cancer0
299713
    1DOPC   NC3    1   1.689   8.241  16.610  0.2014  0.2230 -0.1668
    1DOPC   PO4    2   1.599   8.029  16.302  0.1472 -0.0449 -0.0915
    1DOPC   GL1    3   1.656   8.402  16.154  0.2814 -0.0738 -0.4383
    1DOPC   GL2    4   1.574   8.410  15.865  0.0086  0.0422 -0.0053
    1DOPC   C1A    5   1.930   8.799  16.112  0.0818 -0.0063  0.1681
    1DOPC   D2A    6   2.102   8.919  15.678 -0.0461 -0.2111 -0.3170
    1DOPC   C3A    7   1.780   9.073  15.423 -0.1175  0.1078 -0.1691
    1DOPC   C4A    8   1.399   8.992  15.196  0.2578  0.1104 -0.1962
    1DOPC   C1B    9   1.807   8.576  15.527  0.1710  0.3972  0.3355
    1DOPC   D2B   10   1.855   8.693  15.054 -0.4204  0.4804 -0.0272
    1DOPC   C3B   11   1.778   9.205  14.879 -0.1001 -0.0101 -0.2537
    1DOPC   C4B   12   1.700   9.495  15.170  0.2507  0.1399 -0.2655
    2DOPC   NC3   13   9.039   2.469  15.153 -0.0142 -0.0890 -0.2067
    2DOPC   PO4   14   9.425   2.522  15.122 -0.1625 -0.2528  0.0378
    2DOPC   GL1   15   9.349   2.804  14.792  0.0575  0.0052 -0.3404
    2DOPC   GL2   16   9.052   2.834  14.762  0.2156 -0.3204  0.2099
    2DOPC   C1A   17   9.662   2.972  14.486  0.1371 -0.2186 -0.0475
    2DOPC   D2A   18   9.658   3.220  14.109  0.2143 -0.0541 -0.2156
    2DOPC   C3A   19   9.506   3.631  14.032 -0.1172 -0.0086 -0.0845
    2DOPC   C4A   20   9.443   3.969  13.764  0.4721  0.0445 -0.2389
    2DOPC   C1B   21   9.044   2.797  14.309 -0.3711  0.0343 -0.0987
    2DOPC   D2B   22   9.325   2.915  14.038  0.2259 -0.0879 -0.1732
    2DOPC   C3B   23   9.777   2.738  14.012 -0.0835  0.2056  0.2688
    2DOPC   C4B   24   9.867   2.280  13.858 -0.4518  0.2540 -0.3040
    3DOPE   NH3   25   9.156   9.334  15.427  0.0309 -0.0066 -0.2077
    3DOPE   PO4   26   9.412   9.216  15.610  0.1762 -0.1131  0.0502
    3DOPE   GL1   27   9.457   8.997  15.320  0.1137 -0.1906 -0.2872
    3DOPE   GL2   28   9.218   8.887  15.164 -0.0581 -0.4149 -0.0988
    3DOPE   C1A   29   9.635   9.046  14.893  0.0228  0.0023 -0.0929
    3DOPE   D2A   30   9.571   8.891  14.455 -0.3664 -0.0714  0.3671
    3DOPE   C3A   31   9.312   8.470  14.414 -0.1200  0.1645  0.0272
    3DOPE   C4A   32   9.484   8.077  14.629 -0.1666 -0.2194 -0.2834
    3DOPE   C1B   33   9.036   8.836  14.757 -0.1178 -0.3455 -0.3440
    3DOPE   D2B   34   8.982   8.938  14.323 -0.0523  0.4032 -0.1106
    3DOPE   C3B   35   8.932   9.332  14.121 -0.1677 -0.0046 -0.3243
    3DOPE   C4B   36   8.679   9.523  13.792 -0.1084  0.2089 -0.0433
    4DOPE   NH3   37   0.128   8.685  16.853 -0.2294  0.2786  0.2027
    4DOPE   PO4   38   0.386   8.785  16.963  0.1055 -0.1165  0.3395
    4DOPE   GL1   39   0.534   8.962  16.728  0.2309  0.1742  0.0804
    4DOPE   GL2   40   0.315   9.052  16.464  0.0372 -0.0383  0.2208
    4DOPE   C1A   41   0.828   9.272  16.571  0.2478 -0.0615  0.2462
    4DOPE   D2A   42   1.176   9.177  16.304 -0.1093 -0.1081  0.0757
    4DOPE   C3A   43   1.246   9.264  15.856 -0.0945 -0.0048  0.0784
    4DOPE   C4A   44   1.438   9.492  15.539 -0.1004  0.0389  0.0368
    4DOPE   C1B   45   0.279   9.147  16.054  0.2383 -0.5512  0.2056
    4DOPE   D2B   46   0.381   9.183  15.525  0.0233  0.4152  0.0280
    4DOPE   C3B   47   0.449   8.778  15.279  0.0231 -0.0606  0.0771
    4DOPE   C4B   48   0.445   8.300  15.280 -0.0197  0.0174 -0.1894
    5DOPC   NC3   49   8.778  11.085  15.654  0.0447  0.3268  0.3569
    5DOPC   PO4   50   9.004  11.364  15.781  0.2887 -0.0726 -0.1168
    5DOPC   GL1   51   9.014  11.363  15.358 -0.1338  0.2533  0.5934
    5DOPC   GL2   52   9.105  11.658  15.341 -0.0355 -0.1473  0.1149
    5DOPC   C1A   53   8.714  11.093  15.137  0.0910 -0.4366 -0.0391
    5DOPC   D2A   54   8.527  10.685  14.976  0.1470 -0.1325 -0.4250
    5DOPC   C3A   55   8.895  10.692  14.624 -0.1592  0.0791  0.0095
    5DOPC   C4A   56   9.180  10.729  14.237 -0.0417 -0.3734 -0.0263
    5DOPC   C1B   57   8.806  11.695  15.002  0.0689 -0.1997 -0.0163
    5DOPC   D2B   58   8.543  11.613  14.666  0.2197  0.1668  0.4348
    5DOPC   C3B   59   8.624  11.718  14.245  0.0735  0.2399  0.2509
    5DOPC   C4B   60   8.629  11.441  13.857 -0.0263 -0.0263  0.1357
    6DOPC   NC3   61   9.999   9.404  15.825  0.0305 -0.1697  0.3281
    6DOPC   PO4   62  10.373   9.409  15.773 -0.0324  0.1431  0.0262
    6DOPC   GL1   63  10.298   9.409  15.408  0.0071  0.1099  0.0360
    6DOPC   GL2   64  10.516   9.448  15.158 -0.2146  0.3797 -0.1251
    6DOPC   C1A   65  10.253   9.853  15.172 -0.0224  0.1506 -0.0415
    6DOPC   D2A   66  10.333  10.143  14.809 -0.0202  0.1114 -0.1591
    6DOPC   C3A   67  10.473  10.566  14.782  0.3192  0.1541 -0.2425
    6DOPC   C4A   68  10.910  10.670  14.723 -0.0898  0.1081 -0.2167
    6DOPC   C1B   69  10.526   9.636  14.764  0.1502  0.2231  0.0430
    6DOPC   D2B   70  10.264   9.708  14.370 -0.0942 -0.3423 -0.0073
    6DOPC   C3B   71  10.076  10.088  14.192 -0.2669  0.0336 -0.1560
    6DOPC   C4B   72   9.760  10.423  14.046 -0.1110  0.3569  0.3628
    7POSM   NC3   73   4.061   3.229  15.472  0.1145  0.0800 -0.1460
    7POSM   PO4   74   4.030   3.602  15.553 -0.0014 -0.0710 -0.2188
    7POSM   AM1   75   3.920   3.603  15.234 -0.1755  0.2780  0.0823
    7POSM   AM2   76   4.051   3.694  15.024 -0.2094 -0.0935 -0.1940
    7POSM   T1A   77   3.613   3.731  14.867 -0.0874  0.0213 -0.0725
    7POSM   C2A   78   3.227   3.747  14.590 -0.0299 -0.1946 -0.1837
    7POSM   C3A   79   2.737   3.773  14.714 -0.1389 -0.2963 -0.0426
    7POSM   C1B   80   4.126   3.740  14.682 -0.0969  0.0015 -0.0972
    7POSM   D2B   81   4.257   3.590  14.218 -0.2145  0.1687 -0.0446
    7POSM   C3B   82   4.072   3.646  13.811  0.1745  0.0610  0.0933
    7POSM   C4B   83   4.012   3.655  13.279  0.1767  0.1503  0.1000
    8DOPS   CNO   84   8.112   9.503  15.999 -0.0136  0.3462  0.0038
    8DOPS   PO4   85   7.969   9.427  15.654  0.0441  0.1914 -0.1995
    8DOPS   GL1   86   8.108   9.227  15.357  0.2031  0.2529  0.0891
    8DOPS   GL2   87   7.838   9.115  15.253 -0.1030 -0.0982  0.3378
    8DOPS   C1A   88   8.413   9.398  15.037 -0.0857  0.3551 -0.2800
    8DOPS   D2A   89   8.499   9.764  14.794  0.1546  0.1579 -0.0341
    8DOPS   C3A   90   8.211  10.103  14.882  0.0869  0.0578 -0.4103
    8DOPS   C4A   91   8.058  10.545  14.906 -0.0962  0.2013 -0.1615
    8DOPS   C1B   92   7.778   9.058  14.823 -0.1892 -0.0450 -0.2042
    8DOPS   D2B   93   7.731   9.182  14.354 -0.1404  0.1198 -0.0379
    8DOPS   C3B   94   8.073   9.191  13.993  0.2535  0.0749 -0.3219
    8DOPS   C4B   95   8.242   9.236  13.608 -0.2854 -0.0216  0.0229
    9DOPC   NC3   96   5.932   2.617  15.798 -0.0812 -0.1208  0.0510
    9DOPC   PO4   97   6.252   2.566  15.616 -0.2128 -0.0656 -0.0820
    9DOPC   GL1   98   5.948   2.558  15.273 -0.2980 -0.2568  0.3934
    9DOPC   GL2   99   5.680   2.414  15.256  0.0662  0.0908 -0.0504
    9DOPC   C1A  100   5.960   2.394  14.832 -0.1627  0.1518  0.1037
    9DOPC   D2A  101   5.693   2.388  14.440 -0.0444 -0.1574  0.0358
    9DOPC   C3A  102   5.603   2.520  14.001  0.0689 -0.1336 -0.0516
    9DOPC   C4A  103   5.436   2.733  13.647 -0.1859 -0.1357 -0.1552
    9DOPC   C1B  104   5.253   2.557  15.255  0.1201  0.0795  0.0787
    9DOPC   D2B  105   4.834   2.736  15.051 -0.2520  0.0751  0.1772
    9DOPC   C3B  106   4.844   3.021  14.678 -0.2971 -0.1243  0.1158
    9DOPC   C4B  107   4.615   3.269  14.318 -0.0538  0.2199  0.2378
   10DOPE   NH3  108   3.479   5.824  16.176  0.0905 -0.1538 -0.0182
   10DOPE   PO4  109   3.359   5.508  16.121 -0.0593 -0.2289  0.1125
   10DOPE   GL1  110   3.271   5.579  15.731  0.0583  0.0454 -0.2877
   10DOPE   GL2  111   3.369   5.346  15.591  0.0709  0.0040 -0.1598
   10DOPE   C1A  112   2.950   5.780  15.431 -0.1575  0.0050  0.0881
   10DOPE   D2A  113   2.770   6.046  15.049 -0.0387 -0.0330 -0.0647
   10DOPE   C3A  114   2.403   5.948  14.698 -0.1330 -0.1257 -0.1411
   10DOPE   C4A  115   2.255   6.375  14.543  0.1226  0.3604 -0.0084
   10DOPE   C1B  116   3.389   5.521  15.196  0.1568 -0.0585 -0.2987
   10DOPE   D2B  117   3.249   5.952  15.052  0.0427  0.1496 -0.0868
   10DOPE   C3B  118   3.160   6.213  14.671  0.0785  0.4067 -0.0233
   10DOPE   C4B  119   2.765   6.372  14.586  0.1561  0.2538  0.2753
   11POSM   NC3  120   9.251   8.758  16.247  0.1012  0.2512  0.1535
   11POSM   PO4  121   9.099   9.019  16.012  0.0896 -0.3366 -0.0662
   11POSM   AM1  122   8.879   8.922  15.797  0.5638  0.2115  0.2079
   11POSM   AM2  123   8.754   9.068  15.590  0.0029 -0.0976  0.0131
   11POSM   T1A  124   8.609   8.579  15.584 -0.2331 -0.0321  0.1572
   11POSM   C2A  125   8.613   8.155  15.358 -0.1431  0.0690 -0.3027
   11POSM   C3A  126   8.524   7.984  14.920  0.0615 -0.2829  0.1110
   11POSM   C1B  127   8.621   9.020  15.273 -0.4037 -0.1839  0.1311
   11POSM   D2B  128   8.365   8.922  14.899 -0.0433  0.0538  0.1914
   11POSM   C3B  129   8.570   8.730  14.562 -0.0904  0.1834  0.4647
   11POSM   C4B  130   8.358   8.740  14.155  0.0445  0.2659  0.0526
   12DOPS   CNO  131   5.233  10.905  16.589 -0.2664  0.1111 -0.0423
   12DOPS   PO4  132   5.568  11.107  16.491 -0.1388 -0.1747 -0.3122
   12DOPS   GL1  133   5.500  11.158  16.090 -0.0162  0.1776 -0.4315
   12DOPS   GL2  134   5.238  11.153  16.091 -0.1252 -0.2240 -0.2357
   12DOPS   C1A  135   5.739  11.417  15.740  0.1148 -0.3011  0.2779
   12DOPS   D2A  136   5.956  11.627  15.362  0.3630 -0.2618 -0.1771
   12DOPS   C3A  137   5.998  11.698  14.917  0.0036 -0.1884  0.0000
   12DOPS   C4A  138   6.176  11.873  14.531  0.0615  0.3106  0.2914
   12DOPS   C1B  139   5.263  11.185  15.641  0.1596  0.1734 -0.0237
   12DOPS   D2B  140   5.317  10.999  15.206 -0.0135  0.1689 -0.0640
   12DOPS   C3B  141   5.263  11.210  14.822 -0.4311  0.1166  0.2490
   12DOPS   C4B  142   5.129  11.407  14.397  0.2376 -0.2335 -0.2777
   13DOPC   NC3  143   9.612   2.213  14.827  0.3157  0.1464  0.0161
   13DOPC   PO4  144   9.614   1.835  14.743 -0.0033  0.1376  0.0202
   13DOPC   GL1  145   9.708   1.921  14.373 -0.3656 -0.3318 -0.1125
   13DOPC   GL2  146   9.543   1.977  14.141 -0.0163  0.0045 -0.0830
   13DOPC   C1A  147  10.143   1.907  14.315 -0.0956  0.4541 -0.2471
   13DOPC   D2A  148  10.548   1.762  14.210 -0.0654  0.0081  0.0811
   13DOPC   C3A  149  10.596   1.759  13.810  0.0513 -0.1199  0.1037
   13DOPC   C4A  150  10.445   1.487  13.451  0.1289  0.1585  0.0105
   13DOPC   C1B  151   9.470   2.035  13.703  0.0374  0.0066  0.1656
   13DOPC   D2B  152   9.270   2.101  13.263  0.0466  0.3179  0.0209
   13DOPC   C3B  153   9.183   1.721  13.067  0.1120  0.1125  0.1157
   13DOPC   C4B  154   8.875   1.423  12.895  0.0405 -0.3265 -0.3664
   14DOPE   NH3  155   6.316   4.862  16.218 -0.2388  0.0661  0.2382
   14DOPE   PO4  156   6.354   4.576  16.040  0.0661 -0.3281  0.4698
   14DOPE   GL1  157   6.383   4.593  15.672 -0.1850  0.1454 -0.0477
   14DOPE   GL2  158   6.610   4.750  15.642 -0.0522 -0.0550  0.0581
   14DOPE   C1A  159   6.191   4.458  15.233  0.0686  0.3416 -0.1795
   14DOPE   D2A  160   5.924   4.427  14.861 -0.1881 -0.1876  0.0086
   14DOPE   C3A  161   5.933   4.103  14.553 -0.1449  0.1437 -0.1385
   14DOPE   C4A  162   5.783   3.660  14.266 -0.1395 -0.2368 -0.1257
   14DOPE   C1B  163   6.555   4.802  15.219 -0.2531 -0.1834 -0.0170
   14DOPE   D2B  164   6.281   4.833  14.872  0.4924 -0.1814 -0.3059
   14DOPE   C3B  165   6.428   4.927  14.465 -0.2455  0.1982 -0.1586
   14DOPE   C4B  166   6.712   4.759  14.164 -0.0355 -0.0133  0.0228
   15DOPE   NH3  167   5.497   5.142  15.813 -0.1016 -0.0253 -0.1174
   15DOPE   PO4  168   5.170   5.155  15.657 -0.2062  0.1193  0.1002
   15DOPE   GL1  169   5.308   5.088  15.346 -0.1574  0.0130  0.3966
   15DOPE   GL2  170   5.536   5.285  15.318  0.0211 -0.1842 -0.1089
   15DOPE   C1A  171   5.259   5.193  14.898 -0.0285 -0.2202 -0.1477
   15DOPE   D2A  172   5.209   5.262  14.509 -0.2161 -0.1846 -0.0068
   15DOPE   C3A  173   5.324   5.106  14.070  0.0564 -0.1028 -0.1030
   15DOPE   C4A  174   5.685   4.945  14.033 -0.0517 -0.1073  0.2316
   15DOPE   C1B  175   5.739   5.315  14.878  0.3178 -0.0592 -0.1239
   15DOPE   D2B  176   5.739   5.334  14.428 -0.2471  0.1713  0.0816
   15DOPE   C3B  177   5.570   5.555  14.085 -0.1034  0.2165 -0.1355
   15DOPE   C4B  178   5.278   5.793  13.808 -0.0044 -0.3804  0.0112
   16DOPC   NC3  179   8.025   9.922  15.700  0.0033 -0.0703  0.1024
   16DOPC   PO4  180   8.113  10.241  15.963 -0.2452  0.1266  0.1525
   16DOPC   GL1  181   8.066  10.368  15.561  0.2384 -0.2622 -0.0353
   16DOPC   GL2  182   8.192  10.607  15.389 -0.2947  0.2403 -0.3053
   16DOPC   C1A  183   7.816  10.190  15.191  0.1471 -0.0293 -0.0044
   16DOPC   D2A  184   7.675   9.980  14.857  0.1835  0.0763 -0.1431
   16DOPC   C3A  185   7.851  10.205  14.489  0.1946  0.0442  0.0191
   16DOPC   C4A  186   8.220  10.390  14.434  0.1860 -0.2266  0.0601
   16DOPC   C1B  187   8.166  11.022  15.348  0.0956  0.0178 -0.1005
   16DOPC   D2B  188   8.264  11.316  14.954 -0.1405  0.5113 -0.1480
   16DOPC   C3B  189   7.911  11.531  14.705  0.0091 -0.3477  0.2086
   16DOPC   C4B  190   7.504  11.715  14.504 -0.0382  0.2426  0.1512
   17POSM   NC3  191   8.845   6.599  16.522  0.0026 -0.2552  0.0872
   17POSM   PO4  192   8.923   6.276  16.313 -0.1668 -0.1537  0.2574
   17POSM   AM1  193   9.177   6.105  16.139  0.0363  0.1105 -0.0006
   17POSM   AM2  194   9.475   6.093  16.135  0.0534  0.1981 -0.1519
   17POSM   T1A  195   9.288   6.044  15.636 -0.0236 -0.1005 -0.2202
   17POSM   C2A  196   9.318   6.224  15.261  0.0468  0.1225  0.4300
   17POSM   C3A  197   9.488   6.344  14.865 -0.0922 -0.2338 -0.3540
   17POSM   C1B  198   9.739   6.110  15.913  0.3507  0.1823 -0.0990
   17POSM   D2B  199   9.775   6.198  15.481  0.2933  0.0698 -0.2433
   17POSM   C3B  200   9.867   6.558  15.200 -0.2669 -0.0059 -0.0069
   17POSM   C4B  201  10.069   6.977  15.346 -0.1457  0.0403 -0.2359
   18DOPE   NH3  202   0.573   9.679  17.236  0.1338  0.1133  0.1708
   18DOPE   PO4  203   0.399   9.519  17.059 -0.0549 -0.2822 -0.1497
   18DOPE   GL1  204   0.364   9.451  16.614 -0.1757 -0.1167 -0.1145
   18DOPE   GL2  205   0.184   9.662  16.491  0.0998  0.1845 -0.0435
   18DOPE   C1A  206   0.623   9.540  16.217 -0.2828  0.2709 -0.1564
   18DOPE   D2A  207   0.735   9.308  15.840  0.2382 -0.3209 -0.1277
   18DOPE   C3A  208   0.914   9.602  15.550  0.1324 -0.1396 -0.0868
   18DOPE   C4A  209   1.195   9.920  15.541  0.2285 -0.5922 -0.0066
   18DOPE   C1B  210  -0.190   9.847  16.206  0.1606  0.0943  0.0868
   18DOPE   D2B  211  -0.515  10.117  16.421 -0.2080  0.2134  0.1307
   18DOPE   C3B  212  -0.808  10.126  16.074 -0.2612 -0.1611 -0.1115
   18DOPE   C4B  213  -1.196  10.222  15.834  0.1986 -0.0737 -0.2797
   19DOPS   CNO  214   4.143   1.290  15.920 -0.0163 -0.0637  0.1756
   19DOPS   PO4  215   4.106   1.309  15.506 -0.0471 -0.4075 -0.2866
   19DOPS   GL1  216   4.328   1.304  15.195  0.1701  0.1015  0.0019
   19DOPS   GL2  217   4.501   1.484  15.128  0.0224  0.0200  0.2027
   19DOPS   C1A  218   4.196   1.314  14.754  0.0426 -0.1786 -0.0243
   19DOPS   D2A  219   4.045   1.564  14.390 -0.2398 -0.1578  0.3057
   19DOPS   C3A  220   3.835   1.272  14.005  0.0209  0.0965  0.1952
   19DOPS   C4A  221   3.885   0.976  13.647  0.0327 -0.0130  0.2471
   19DOPS   C1B  222   4.435   1.706  14.679 -0.0447 -0.0044  0.2057
   19DOPS   D2B  223   4.454   1.888  14.233  0.1779  0.2191  0.0591
   19DOPS   C3B  224   4.414   2.280  13.980  0.2781  0.0016 -0.3249
   19DOPS   C4B  225   4.610   2.392  13.624 -0.1571  0.0674  0.1048
   20POSM   NC3  226   7.589   8.544  15.975  0.0390  0.2508  0.3326
   20POSM   PO4  227   7.410   8.326  16.233 -0.0604 -0.0553  0.0162
   20POSM   AM1  228   7.255   8.259  15.925 -0.4843 -0.0397  0.1488
   20POSM   AM2  229   7.346   8.266  15.682  0.0947 -0.1928  0.0771
   20POSM   T1A  230   7.012   7.858  15.702 -0.0424  0.2412 -0.0208
   20POSM   C2A  231   7.043   7.403  15.607 -0.1059 -0.1407 -0.0643
   20POSM   C3A  232   7.429   7.224  15.407 -0.0546  0.1504 -0.0692
   20POSM   C1B  233   7.153   8.273  15.415  0.2769 -0.0060 -0.0169
   20POSM   D2B  234   6.804   8.307  15.114 -0.0658  0.2518  0.1580
   20POSM   C3B  235   6.883   8.500  14.742 -0.0357  0.1945  0.1923
   20POSM   C4B  236   6.784   8.727  14.356 -0.1382 -0.0007 -0.1794
   21POSM   NC3  237   5.487   7.685  16.910  0.0276  0.2487 -0.0481
   21POSM   PO4  238   5.385   8.053  16.918 -0.1615 -0.5464  0.2397
   21POSM   AM1  239   5.347   8.080  16.598 -0.0568  0.0676 -0.2258
   21POSM   AM2  240   5.435   8.221  16.348  0.1305 -0.0747  0.1638
   21POSM   T1A  241   4.957   8.297  16.341 -0.1443  0.1557 -0.0562
   21POSM   C2A  242   4.532   8.228  16.061 -0.2443  0.0060  0.1049
   21POSM   C3A  243   4.109   8.216  15.853 -0.1356  0.1663 -0.2606
   21POSM   C1B  244   5.473   8.166  15.993  0.1035 -0.1558 -0.1169
   21POSM   D2B  245   5.371   7.917  15.614  0.1923 -0.1127  0.5259
   21POSM   C3B  246   5.615   7.655  15.258  0.1394 -0.0453  0.1297
   21POSM   C4B  247   5.872   7.831  14.966  0.1576  0.0717  0.1289
   22DOPC   NC3  248   2.408   0.532  15.640  0.0786 -0.0054  0.2724
   22DOPC   PO4  249   2.403   0.207  15.406  0.1776  0.3228  0.0044
   22DOPC   GL1  250   2.588   0.533  15.229  0.2204 -0.1485  0.0432
   22DOPC   GL2  251   2.772   0.463  15.032  0.3126 -0.0072 -0.1529
   22DOPC   C1A  252   2.372   0.796  14.968  0.0008 -0.2258  0.1198
   22DOPC   D2A  253   2.045   0.790  14.638 -0.0103 -0.0466 -0.4905
   22DOPC   C3A  254   2.112   0.804  14.160 -0.0838 -0.2317 -0.1891
   22DOPC   C4A  255   2.410   0.988  13.976 -0.0850 -0.2384 -0.2243
   22DOPC   C1B  256   2.880   0.305  14.651  0.0157 -0.1013 -0.2424
   22DOPC   D2B  257   2.805   0.111  14.218 -0.2695 -0.0440  0.0174
   22DOPC   C3B  258   3.130   0.016  13.850 -0.1799 -0.1019  0.1142
   22DOPC   C4B  259   3.388  -0.286  13.599 -0.0475  0.1782 -0.3384
   23DOPS   CNO  260   7.838   3.831  15.648 -0.1024  0.0601 -0.0241
   23DOPS   PO4  261   7.661   4.087  15.903 -0.1528 -0.2086  0.1699
   23DOPS   GL1  262   7.622   4.176  15.460 -0.1832  0.0324  0.1770
   23DOPS   GL2  263   7.876   4.336  15.438 -0.1150  0.0690  0.0470
   23DOPS   C1A  264   7.535   3.856  15.146 -0.0428 -0.0534 -0.1130
   23DOPS   D2A  265   7.683   3.434  14.945 -0.3166 -0.2166  0.0812
   23DOPS   C3A  266   8.115   3.522  14.699 -0.1083  0.0867 -0.3339
   23DOPS   C4A  267   8.500   3.704  14.660  0.0963 -0.1996 -0.0758
   23DOPS   C1B  268   8.023   4.771  15.268  0.1147  0.3810 -0.0868
   23DOPS   D2B  269   8.174   4.984  14.908 -0.0830  0.2553 -0.3516
   23DOPS   C3B  270   8.002   5.228  14.515  0.1431 -0.1202  0.1918
   23DOPS   C4B  271   7.585   5.367  14.364 -0.2254 -0.1525  0.2774
   24DOPE   NH3  272   9.213  10.338  15.977  0.0909 -0.0304  0.0137
   24DOPE   PO4  273   8.996  10.088  15.884  0.2495  0.1809 -0.1010
   24DOPE   GL1  274   9.026  10.212  15.574 -0.1910 -0.1394 -0.0790
   24DOPE   GL2  275   9.121   9.943  15.427  0.0323  0.3874  0.0002
   24DOPE   C1A  276   9.359  10.299  15.254  0.0918 -0.0024  0.3028
   24DOPE   D2A  277   9.285  10.466  14.809 -0.0990 -0.1565 -0.1138
   24DOPE   C3A  278   9.101  10.238  14.446 -0.0261  0.0204  0.1824
   24DOPE   C4A  279   9.187  10.223  13.975 -0.0343 -0.0246  0.2193
   24DOPE   C1B  280   9.066   9.826  14.949 -0.1675  0.0394  0.1292
   24DOPE   D2B  281   8.928   9.727  14.497  0.3144  0.3120  0.1045
   24DOPE   C3B  282   8.812   9.935  14.147 -0.4400 -0.3034  0.1181
   24DOPE   C4B  283   8.755  10.081  13.681  0.3485  0.1631 -0.3917
   25POSM   NC3  284  10.109   4.989  16.430  0.3862 -0.2885  0.1705
   25POSM   PO4  285  10.098   4.802  16.059 -0.0528 -0.1977 -0.0035
   25POSM   AM1  286   9.906   4.894  15.801  0.1810 -0.0842 -0.1079
   25POSM   AM2  287   9.895   5.172  15.657  0.0459  0.4013 -0.1038
   25POSM   T1A  288   9.802   4.891  15.281 -0.3081 -0.1052 -0.4141
   25POSM   C2A  289   9.743   5.117  14.859  0.2738  0.0458  0.0980
   25POSM   C3A  290   9.976   5.537  14.730  0.2161  0.0333 -0.1909
   25POSM   C1B  291  10.073   5.412  15.825 -0.0166 -0.0384  0.1878
   25POSM   D2B  292  10.199   5.825  15.707  0.0505  0.2353 -0.1552
   25POSM   C3B  293  10.075   5.744  15.300  0.0287  0.0843 -0.2038
   25POSM   C4B  294   9.687   5.452  15.153  0.2288 -0.0461 -0.0525
   26POSM   NC3  295  10.890   1.554  14.892 -0.2594  0.0259 -0.1498
   26POSM   PO4  296  10.610   1.254  14.813 -0.4135  0.0124  0.1580
   26POSM   AM1  297  10.662   1.363  14.504  0.0276  0.0486 -0.0510
   26POSM   AM2  298  10.873   1.457  14.408 -0.2972 -0.1467 -0.0898
   26POSM   T1A  299  10.614   1.258  14.015  0.1570 -0.1603 -0.0836
   26POSM   C2A  300  10.839   1.166  13.640  0.0741  0.1467  0.4944
   26POSM   C3A  301  10.925   1.223  13.186  0.0254  0.1792  0.1940
   26POSM   C1B  302  10.975   1.541  14.100 -0.2180  0.1722 -0.0486
   26POSM   D2B  303  11.291   1.845  13.876  0.1293 -0.0727  0.1861
   26POSM   C3B  304  10.946   2.088  13.609  0.1162  0.2547  0.2753
   26POSM   C4B  305  10.475   2.107  13.447 -0.2202 -0.0555  0.0780
   27DOPC   NC3  306   0.797   7.989  16.692 -0.1971  0.1802 -0.1893
   27DOPC   PO4  307   1.070   8.220  16.593 -0.0794  0.0299 -0.2382
   27DOPC   GL1  308   1.224   8.323  16.312  0.1021  0.1494  0.1001
   27DOPC   GL2  309   1.172   8.613  16.338 -0.0671  0.2005  0.1833
   27DOPC   C1A  310   1.099   8.222  15.904  0.2543  0.0792 -0.0902
   27DOPC   D2A  311   0.884   7.778  15.874 -0.2992 -0.3149 -0.1595
   27DOPC   C3A  312   0.674   7.801  15.421 -0.0057 -0.1114 -0.0081
   27DOPC   C4A  313   0.656   7.872  14.978  0.1119 -0.1343 -0.0085
   27DOPC   C1B  314   1.445   8.843  16.114 -0.0585  0.2680 -0.0386
   27DOPC   D2B  315   1.710   9.216  16.047  0.5609  0.1185  0.1040
   27DOPC   C3B  316   1.514   9.551  16.305  0.0506  0.3038  0.0462
   27DOPC   C4B  317   1.305   9.479  16.736  0.3288  0.0609 -0.3503
   28DOPC   NC3  318   1.713   2.487  15.788  0.0491  0.0446 -0.0232
   28DOPC   PO4  319   1.946   2.171  15.631  0.3020  0.2532  0.2319
   28DOPC   GL1  320   1.879   2.332  15.281 -0.0666  0.0506 -0.1572
   28DOPC   GL2  321   1.958   2.248  15.012 -0.0086  0.2811 -0.1261
   28DOPC   C1A  322   1.854   2.786  15.085 -0.0919 -0.3779 -0.0617
   28DOPC   D2A  323   1.539   3.128  14.927  0.2596  0.1713 -0.0777
   28DOPC   C3A  324   1.635   3.578  14.876 -0.3009 -0.0807  0.0158
   28DOPC   C4A  325   1.854   3.989  14.729  0.0776 -0.1024  0.0964
   28DOPC   C1B  326   1.840   2.469  14.622 -0.0281 -0.0516 -0.1709
   28DOPC   D2B  327   1.409   2.474  14.414 -0.3249 -0.0386 -0.2300
   28DOPC   C3B  328   1.415   2.449  13.891 -0.2810 -0.0233  0.1586
   28DOPC   C4B  329   1.426   2.539  13.403 -0.0687  0.0556  0.0345
   29POSM   NC3  330   6.388   0.175  15.088 -0.2147  0.0521 -0.4089
   29POSM   PO4  331   6.150  -0.159  15.172 -0.0777 -0.1434  0.0415
   29POSM   AM1  332   6.163  -0.153  14.864  0.1848  0.0950 -0.0770
   29POSM   AM2  333   6.123   0.075  14.685  0.1904  0.2401  0.1285
   29POSM   T1A  334   6.089  -0.376  14.430  0.1475  0.2797  0.2938
   29POSM   C2A  335   6.087  -0.670  14.080 -0.1355  0.2205 -0.2422
   29POSM   C3A  336   5.978  -0.808  13.701  0.0889  0.4410 -0.0215
   29POSM   C1B  337   6.318   0.142  14.350  0.1882  0.0514 -0.0769
   29POSM   D2B  338   6.451   0.248  13.958 -0.1317 -0.2308  0.0172
   29POSM   C3B  339   6.111   0.392  13.703  0.1822 -0.1537  0.0062
   29POSM   C4B  340   6.037   0.516  13.204  0.1948 -0.0628 -0.0515
   30POSM   NC3  341  11.780   4.757  15.661 -0.0068  0.1650  0.4472
   30POSM   PO4  342  11.794   5.088  15.867 -0.0205 -0.4117 -0.0658
   30POSM   AM1  343  11.767   5.228  15.563 -0.0977 -0.0724 -0.0004
   30POSM   AM2  344  11.849   5.403  15.341  0.3695 -0.0275  0.0027
   30POSM   T1A  345  11.352   5.140  15.265  0.2432  0.0519 -0.4870
   30POSM   C2A  346  11.071   4.853  15.040 -0.2187  0.0241 -0.1442
   30POSM   C3A  347  10.899   4.437  14.920  0.0426 -0.2812  0.2591
   30POSM   C1B  348  11.719   5.507  15.085  0.1650 -0.2617 -0.0381
   30POSM   D2B  349  11.593   5.847  14.911  0.1071 -0.2868  0.1479
   30POSM   C3B  350  11.723   6.088  14.502  0.0636  0.2345 -0.0627
   30POSM   C4B  351  11.696   5.975  14.063 -0.0739 -0.0631 -0.3116
   31DOPE   NH3  352   9.959  10.433  16.281  0.3709  0.0637 -0.1006
   31DOPE   PO4  353   9.716  10.283  16.125  0.2308  0.2914  0.0944
   31DOPE   GL1  354   9.667  10.281  15.779 -0.3823  0.4083 -0.1045
   31DOPE   GL2  355   9.877  10.133  15.576 -0.0120 -0.2487 -0.1271
   31DOPE   C1A  356   9.755  10.595  15.419 -0.1405  0.3326 -0.0619
   31DOPE   D2A  357   9.712  10.849  15.060 -0.1733 -0.1292 -0.0966
   31DOPE   C3A  358  10.041  10.851  14.745 -0.0754 -0.0033 -0.2922
   31DOPE   C4A  359  10.171  10.952  14.324 -0.0820  0.0749  0.1916
   31DOPE   C1B  360   9.796  10.005  15.104 -0.2091 -0.2337  0.0960
   31DOPE   D2B  361   9.820   9.818  14.684 -0.0728  0.0993  0.0011
   31DOPE   C3B  362   9.579  10.070  14.364  0.2086  0.3277 -0.2007
   31DOPE   C4B  363   9.585   9.951  13.920 -0.0080 -0.0302  0.1993
   32DOPC   NC3  364   6.704   9.499  16.153 -0.0694  0.1732 -0.4339
   32DOPC   PO4  365   7.111   9.592  16.153 -0.1582  0.3072  0.1161
   32DOPC   GL1  366   6.985   9.543  15.843  0.0173  0.2196  0.1770
   32DOPC   GL2  367   7.202   9.486  15.656 -0.0933  0.1589 -0.0714
   32DOPC   C1A  368   6.761   9.758  15.490 -0.3407  0.0770 -0.0170
   32DOPC   D2A  369   6.516  10.140  15.548 -0.2004 -0.1947 -0.1951
   32DOPC   C3A  370   6.266  10.230  15.209  0.0166  0.1284  0.1311
   32DOPC   C4A  371   6.484  10.124  14.758 -0.2831 -0.0236  0.1572
   32DOPC   C1B  372   7.054   9.506  15.204 -0.1102  0.1051 -0.1858
   32DOPC   D2B  373   7.126   9.135  14.941  0.2515  0.3942  0.2110
   32DOPC   C3B  374   6.747   9.059  14.780 -0.1211 -0.1876 -0.0296
   32DOPC   C4B  375   6.464   9.153  14.422 -0.0634  0.2234 -0.2190
   33DOPE   NH3  376   8.380   5.555  15.814  0.2493  0.1478  0.0674
   33DOPE   PO4  377   8.396   5.885  15.832  0.1317 -0.1318  0.0660
   33DOPE   GL1  378   8.313   5.992  15.518 -0.3436 -0.1247 -0.3378
   33DOPE   GL2  379   8.330   5.772  15.336 -0.2655  0.0241  0.0495
   33DOPE   C1A  380   8.113   6.285  15.280 -0.1567  0.0173  0.1525
   33DOPE   D2A  381   7.815   6.532  15.000 -0.1590 -0.1162  0.1661
   33DOPE   C3A  382   7.794   7.002  14.917 -0.0447  0.2207 -0.1805
   33DOPE   C4A  383   7.427   7.258  14.900 -0.3195  0.2574  0.1654
   33DOPE   C1B  384   8.239   5.640  14.865 -0.1033  0.0095 -0.1107
   33DOPE   D2B  385   8.475   5.331  14.632 -0.1059  0.1028  0.1580
   33DOPE   C3B  386   8.628   5.612  14.302 -0.1164  0.1419 -0.0792
   33DOPE   C4B  387   8.972   5.862  14.099 -0.1436 -0.0279 -0.1968
   34DOPE   NH3  388  10.646   2.307  15.042 -0.1848  0.1481 -0.0546
   34DOPE   PO4  389  10.597   2.240  14.760 -0.1256  0.1783  0.0313
   34DOPE   GL1  390  10.362   2.293  14.431 -0.2383  0.0133  0.0845
   34DOPE   GL2  391  10.438   2.583  14.405  0.0488  0.3548  0.0853
   34DOPE   C1A  392   9.949   2.413  14.359 -0.1710 -0.0294  0.0046
   34DOPE   D2A  393   9.503   2.466  14.383  0.0976 -0.2899  0.0710
   34DOPE   C3A  394   9.240   2.437  13.983  0.1163  0.1429  0.3065
   34DOPE   C4A  395   9.415   2.491  13.553  0.1524 -0.0898 -0.1098
   34DOPE   C1B  396  10.281   2.991  14.427  0.3777  0.0439 -0.1313
   34DOPE   D2B  397  10.154   3.237  14.045  0.1382 -0.2464 -0.0188
   34DOPE   C3B  398  10.340   3.297  13.639  0.1992 -0.0675  0.3079
   34DOPE   C4B  399  10.283   3.038  13.216 -0.1172 -0.0092  0.2593
   35DOPE   NH3  400   7.055   2.482  15.914  0.2481 -0.0040  0.2715
   35DOPE   PO4  401   6.781   2.633  15.874 -0.4293 -0.0621  0.0171
   35DOPE   GL1  402   6.853   2.560  15.435  0.0215  0.0165  0.0042
   35DOPE   GL2  403   6.865   2.843  15.367  0.0096 -0.0820  0.0079
   35DOPE   C1A  404   6.611   2.478  15.020  0.2656 -0.3488 -0.2069
   35DOPE   D2A  405   6.400   2.492  14.580  0.1912  0.2772 -0.3881
   35DOPE   C3A  406   6.242   2.947  14.517  0.1823  0.0339 -0.5730
   35DOPE   C4A  407   6.077   3.272  14.255  0.0835 -0.2256  0.1365
   35DOPE   C1B  408   6.840   3.022  14.955 -0.2009  0.1593  0.2522
   35DOPE   D2B  409   6.980   2.754  14.621 -0.0743 -0.2799 -0.0429
   35DOPE   C3B  410   7.127   2.716  14.194  0.0566 -0.0194  0.2594
   35DOPE   C4B  411   7.217   2.585  13.786 -0.2830  0.3901  0.0384
   36DOPS   CNO  412   1.188   5.808  16.376  0.1288 -0.0605 -0.2012
   36DOPS   PO4  413   1.435   5.987  16.153 -0.4005 -0.1172 -0.1646
   36DOPS   GL1  414   1.224   6.027  15.777 -0.1561 -0.1223  0.2373
   36DOPS   GL2  415   1.054   5.769  15.904  0.0520  0.2582  0.2464
   36DOPS   C1A  416   1.088   6.215  15.441 -0.4668  0.0672 -0.2277
   36DOPS   D2A  417   1.087   6.043  15.096 -0.2352  0.2268 -0.1468
   36DOPS   C3A  418   1.330   5.803  14.767 -0.1998  0.3693  0.1405
   36DOPS   C4A  419   1.209   5.587  14.403  0.0444 -0.2513  0.0571
   36DOPS   C1B  420   0.875   5.810  15.499 -0.1476 -0.1373 -0.2749
   36DOPS   D2B  421   0.588   5.672  15.133 -0.0304 -0.0051  0.1191
   36DOPS   C3B  422   0.786   5.845  14.760 -0.1455 -0.2049 -0.0140
   36DOPS   C4B  423   0.869   5.910  14.256 -0.2724 -0.1113 -0.0749
   37DOPE   NH3  424   7.154   6.442  16.104 -0.0211  0.0632 -0.2398
   37DOPE   PO4  425   6.907   6.528  15.881  0.0114  0.1197 -0.0174
   37DOPE   GL1  426   6.739   6.539  15.524 -0.0836 -0.2405  0.0196
   37DOPE   GL2  427   6.476   6.557  15.643 -0.1370  0.1552  0.2860
   37DOPE   C1A  428   6.682   6.738  15.111  0.1470 -0.0858 -0.1987
   37DOPE   D2A  429   7.027   6.794  14.794 -0.0652 -0.0475 -0.0408
   37DOPE   C3A  430   7.405   6.765  15.019  0.0524 -0.1558 -0.0052
   37DOPE   C4A  431   7.669   6.798  15.430  0.2104 -0.1134 -0.0182
   37DOPE   C1B  432   6.401   6.963  15.478 -0.0444 -0.1668  0.2071
   37DOPE   D2B  433   6.506   7.287  15.124  0.0257 -0.2180 -0.2329
   37DOPE   C3B  434   6.539   7.295  14.681  0.0157  0.1928  0.1658
   37DOPE   C4B  435   6.625   7.675  14.458 -0.0626 -0.1010 -0.2126
   38DOPE   NH3  436   3.837   6.149  16.713  0.0877 -0.3908  0.0899
   38DOPE   PO4  437   3.852   5.958  16.456 -0.4270 -0.0522  0.0353
   38DOPE   GL1  438   3.735   6.256  16.201 -0.0428 -0.0269  0.1137
   38DOPE   GL2  439   3.949   6.383  16.070  0.2220 -0.1498  0.2529
   38DOPE   C1A  440   3.361   6.424  16.019  0.0500  0.1499 -0.4977
   38DOPE   D2A  441   3.048   6.638  15.728  0.2214  0.1798 -0.1592
   38DOPE   C3A  442   2.905   6.444  15.338 -0.0805 -0.1128 -0.2152
   38DOPE   C4A  443   2.518   6.495  15.086  0.0317 -0.0781 -0.0866
   38DOPE   C1B  444   3.686   6.390  15.664 -0.2651  0.1788  0.0085
   38DOPE   D2B  445   3.362   6.514  15.316 -0.1013 -0.2018 -0.2138
   38DOPE   C3B  446   3.389   6.688  14.922  0.1333 -0.1682 -0.0866
   38DOPE   C4B  447   3.172   6.712  14.474  0.1341 -0.0542 -0.1700
   39POSM   NC3  448   3.169   0.163  15.450 -0.0256 -0.0795  0.1016
   39POSM   PO4  449   3.566   0.283  15.498 -0.0702 -0.1138  0.0771
   39POSM   AM1  450   3.529   0.264  15.165  0.1873 -0.1684  0.1115
   39POSM   AM2  451   3.355   0.276  14.924 -0.1122  0.1480  0.0540
   39POSM   T1A  452   3.795   0.112  14.776 -0.3018 -0.0621  0.0595
   39POSM   C2A  453   3.788  -0.060  14.352  0.2368  0.3775  0.3400
   39POSM   C3A  454   3.494  -0.260  14.085  0.2467  0.1257 -0.2276
   39POSM   C1B  455   3.352   0.494  14.668 -0.0888  0.2429 -0.0206
   39POSM   D2B  456   3.370   0.880  14.425 -0.1374  0.4561  0.1025
   39POSM   C3B  457   3.495   0.903  13.965  0.0033 -0.0583  0.1526
   39POSM   C4B  458   3.397   0.515  13.747  0.0511 -0.1800  0.0498
   40POSM   NC3  459   4.914   3.401  15.648  0.2929  0.0415  0.0681
   40POSM   PO4  460   5.119   3.643  15.858  0.1269 -0.1279 -0.0832
   40POSM   AM1  461   5.082   3.818  15.617  0.1023 -0.5402  0.0198
   40POSM   AM2  462   4.932   3.819  15.371  0.1016  0.0979  0.0907
   40POSM   T1A  463   5.290   4.138  15.264 -0.1521  0.0555 -0.0282
   40POSM   C2A  464   5.461   4.250  14.863  0.1477  0.1419 -0.1970
   40POSM   C3A  465   5.503   4.355  14.439  0.0180  0.1365 -0.4467
   40POSM   C1B  466   4.959   3.788  15.035  0.0155  0.0710 -0.1581
   40POSM   D2B  467   5.076   3.456  14.701 -0.1340  0.1817 -0.2244
   40POSM   C3B  468   5.161   3.488  14.271  0.0071 -0.2076 -0.2034
   40POSM   C4B  469   5.310   3.543  13.913 -0.2566  0.0603  0.3602
   41DOPC   NC3  470   6.044   6.453  16.368 -0.0334  0.0062 -0.3471
   41DOPC   PO4  471   6.314   6.557  16.146 -0.0180 -0.2118  0.0430
   41DOPC   GL1  472   6.076   6.411  15.926  0.1328  0.0904  0.1380
   41DOPC   GL2  473   5.827   6.627  15.987  0.1026 -0.0639 -0.0199
   41DOPC   C1A  474   6.169   6.196  15.527 -0.0651  0.1423 -0.0871
   41DOPC   D2A  475   6.248   6.401  15.119 -0.1261 -0.2514 -0.0982
   41DOPC   C3A  476   6.020   6.374  14.691  0.1620 -0.1274  0.3818
   41DOPC   C4A  477   6.072   6.416  14.233  0.0133  0.1210  0.1015
   41DOPC   C1B  478   5.960   6.665  15.509  0.1135  0.0138 -0.1778
   41DOPC   D2B  479   5.793   6.724  15.093  0.3342  0.2431 -0.0895
   41DOPC   C3B  480   6.128   6.903  14.912  0.1963  0.0525 -0.1063
   41DOPC   C4B  481   6.477   6.788  14.623 -0.4173  0.1983  0.1166
   42DOPC   NC3  482   3.667   8.984  17.134 -0.1558 -0.0343  0.1339
   42DOPC   PO4  483   3.813   9.110  16.789  0.1472  0.3673  0.1794
   42DOPC   GL1  484   3.656   8.920  16.451 -0.1021  0.0439  0.6930
   42DOPC   GL2  485   3.888   8.947  16.242 -0.0186  0.1962 -0.1582
   42DOPC   C1A  486   3.685   8.524  16.154  0.0011  0.2933 -0.1035
   42DOPC   D2A  487   3.563   8.071  15.982 -0.4173  0.1334 -0.0282
   42DOPC   C3A  488   3.868   7.638  15.959 -0.0329  0.1878 -0.2288
   42DOPC   C4A  489   4.178   7.288  15.934  0.3223 -0.1330  0.3292
   42DOPC   C1B  490   4.108   8.731  15.915  0.3545 -0.0345 -0.2505
   42DOPC   D2B  491   4.400   8.446  15.557 -0.2287 -0.1187  0.1578
   42DOPC   C3B  492   4.442   8.066  15.174  0.1297 -0.1344 -0.3234
   42DOPC   C4B  493   4.131   7.719  14.976  0.2105  0.0456 -0.0700
   43POSM   NC3  494   2.547   9.990  17.156 -0.1298  0.0177 -0.4102
   43POSM   PO4  495   2.791   9.956  16.838  0.2623 -0.2506  0.0527
   43POSM   AM1  496   2.825  10.077  16.542  0.2575 -0.0134 -0.1316
   43POSM   AM2  497   2.813  10.313  16.432  0.2018 -0.0651  0.3869
   43POSM   T1A  498   2.967  10.059  16.032 -0.1393  0.0852 -0.1399
   43POSM   C2A  499   3.045  10.292  15.663 -0.0735 -0.1586  0.1097
   43POSM   C3A  500   2.947  10.522  15.277 -0.0155  0.0755  0.1328
   43POSM   C1B  501   2.659  10.457  16.113 -0.2320 -0.1854 -0.3330
   43POSM   D2B  502   2.574  10.387  15.704  0.0149 -0.1104 -0.0062
   43POSM   C3B  503   2.694  10.012  15.434  0.2151  0.0338  0.0203
   43POSM   C4B  504   2.670   9.556  15.241 -0.0942 -0.0871  0.0647
   44DOPC   NC3  505   8.756   1.607  14.867 -0.0946 -0.0359  0.1707
   44DOPC   PO4  506   8.824   1.955  14.698 -0.0984  0.0924  0.0100
   44DOPC   GL1  507   8.753   1.881  14.326 -0.2449  0.0721 -0.2169
   44DOPC   GL2  508   8.450   1.969  14.297 -0.2139 -0.2485 -0.2150
   44DOPC   C1A  509   8.655   1.675  13.934  0.2084 -0.0109 -0.0476
   44DOPC   D2A  510   8.464   1.356  13.593  0.3694  0.1181  0.2271
   44DOPC   C3A  511   8.478   1.515  13.149  0.0833 -0.1686  0.1267
   44DOPC   C4A  512   8.044   1.652  12.944  0.0851 -0.2229 -0.1548
   44DOPC   C1B  513   8.537   2.145  13.898  0.2347  0.1312 -0.1342
   44DOPC   D2B  514   8.382   2.111  13.496 -0.0642 -0.0186 -0.0790
   44DOPC   C3B  515   8.176   1.705  13.518 -0.2037 -0.2529  0.0217
   44DOPC   C4B  516   7.876   1.394  13.331  0.0310 -0.3882 -0.1552
   45POSM   NC3  517   0.050   7.644  16.468  0.1301  0.0629 -0.0690
   45POSM   PO4  518   0.025   7.876  16.175 -0.0183 -0.3292 -0.1863
   45POSM   AM1  519   0.206   7.906  15.926 -0.2054 -0.1207  0.0403
   45POSM   AM2  520   0.400   8.015  15.789  0.2174  0.0252 -0.2573
   45POSM   T1A  521   0.099   7.943  15.433 -0.4313  0.1309 -0.2172
   45POSM   C2A  522   0.141   7.919  15.003  0.0364  0.0202  0.1523
   45POSM   C3A  523   0.238   7.613  14.656 -0.2073 -0.1894 -0.0442
   45POSM   C1B  524   0.603   8.213  15.739 -0.3428  0.3481  0.2510
   45POSM   D2B  525   0.890   8.398  15.435 -0.1380 -0.1829 -0.0466
   45POSM   C3B  526   0.846   8.321  14.993 -0.1423 -0.0141  0.0779
   45POSM   C4B  527   0.905   8.067  14.586 -0.3095 -0.2419  0.0189
   46DOPC   NC3  528   3.443   4.950  16.066 -0.0704  0.1355  0.1629
   46DOPC   PO4  529   3.151   4.739  15.911  0.1769  0.1510 -0.2162
   46DOPC   GL1  530   3.172   4.906  15.596  0.3556 -0.0316  0.0992
   46DOPC   GL2  531   2.825   4.939  15.563  0.0003  0.2572  0.2172
   46DOPC   C1A  532   3.430   5.003  15.211  0.1792 -0.0538 -0.0998
   46DOPC   D2A  533   3.420   5.260  14.786  0.0159  0.3856 -0.0930
   46DOPC   C3A  534   3.336   5.139  14.272 -0.0474  0.1957 -0.0202
   46DOPC   C4A  535   3.590   5.167  13.892  0.0177 -0.1087  0.1013
   46DOPC   C1B  536   2.972   5.249  15.215 -0.2347  0.0474  0.0074
   46DOPC   D2B  537   2.876   5.557  14.828 -0.0497  0.1004  0.1089
   46DOPC   C3B  538   3.199   5.689  14.546 -0.0983  0.0200 -0.1186
   46DOPC   C4B  539   3.359   5.702  14.149 -0.1775  0.0185 -0.1997
   47POSM   NC3  540   1.807  10.496  16.904  0.0744 -0.2232  0.1269
   47POSM   PO4  541   1.452  10.442  17.067 -0.3281 -0.3397 -0.2044
   47POSM   AM1  542   1.226  10.573  16.835 -0.1040 -0.0455 -0.1809
   47POSM   AM2  543   1.284  10.628  16.583 -0.1290  0.1295  0.0775
   47POSM   T1A  544   0.874  10.848  16.611 -0.1050 -0.2018  0.1557
   47POSM   C2A  545   0.506  11.055  16.410  0.2207  0.3128  0.0856
   47POSM   C3A  546   0.056  11.229  16.366 -0.0035  0.0182 -0.3685
   47POSM   C1B  547   1.524  10.571  16.349  0.1459  0.0656  0.2227
   47POSM   D2B  548   1.720  10.480  15.918 -0.0909  0.1206  0.3553
   47POSM   C3B  549   1.474  10.298  15.566  0.1042  0.0128 -0.0981
   47POSM   C4B  550   1.463  10.121  15.120  0.3954 -0.1468  0.2776
   48DOPE   NH3  551   3.804   6.613  16.576 -0.0807  0.1390  0.0410
   48DOPE   PO4  552   3.992   6.825  16.418  0.2804  0.6734 -0.0636
   48DOPE   GL1  553   3.983   6.900  16.134  0.0957  0.4520  0.1009
   48DOPE   GL2  554   3.725   7.053  16.087 -0.0789 -0.0327  0.0662
   48DOPE   C1A  555   4.043   6.777  15.674 -0.0829 -0.2872  0.1370
   48DOPE   D2A  556   3.856   6.874  15.249 -0.4002 -0.1676 -0.0104
   48DOPE   C3A  557   3.665   7.120  14.926 -0.2654 -0.1386  0.3085
   48DOPE   C4A  558   3.708   7.499  14.619 -0.4611  0.2838  0.1435
   48DOPE   C1B  559   3.554   6.871  15.706  0.0604 -0.0597  0.1728
   48DOPE   D2B  560   3.339   7.084  15.384  0.0622  0.0226 -0.1014
   48DOPE   C3B  561   3.515   7.511  15.272  0.1069 -0.0850 -0.1318
   48DOPE   C4B  562   3.840   7.832  15.455 -0.1243 -0.2508 -0.0109
   49DOPC   NC3  563  10.220   0.972  14.789  0.1602  0.0114 -0.1726
   49DOPC   PO4  564   9.856   0.942  14.610  0.1628 -0.2171  0.1160
   49DOPC   GL1  565   9.753   0.992  14.179 -0.1010 -0.0084  0.0572
   49DOPC   GL2  566   9.523   1.159  14.132 -0.1525  0.0017 -0.0681
   49DOPC   C1A  567   9.780   0.780  13.810  0.1700 -0.0625 -0.2872
   49DOPC   D2A  568   9.893   0.782  13.361  0.2835  0.0052  0.0782
   49DOPC   C3A  569  10.029   0.929  12.977  0.2306  0.0969 -0.0155
   49DOPC   C4A  570   9.749   0.995  12.638  0.2976  0.1531 -0.0703
   49DOPC   C1B  571   9.790   1.477  13.863 -0.0603  0.2339  0.5373
   49DOPC   D2B  572   9.995   1.835  13.645  0.3649 -0.1983  0.1211
   49DOPC   C3B  573  10.091   1.731  13.207  0.1964 -0.1953  0.2438
   49DOPC   C4B  574  10.090   1.415  12.880 -0.0531  0.1177 -0.0901
   50DOPC   NC3  575   5.793   0.148  15.064 -0.2757 -0.1844 -0.2181
   50DOPC   PO4  576   5.957   0.518  14.967  0.1511  0.0295  0.0703
   50DOPC   GL1  577   6.121   0.697  14.702 -0.0118 -0.0467  0.0508
   50DOPC   GL2  578   6.395   0.548  14.664 -0.2553 -0.0979  0.2503
   50DOPC   C1A  579   6.325   0.980  14.403  0.0568  0.0985  0.1909
   50DOPC   D2A  580   6.327   0.904  13.946 -0.2195  0.0654 -0.0698
   50DOPC   C3A  581   6.338   0.828  13.485 -0.1456  0.1344 -0.0700
   50DOPC   C4A  582   6.519   0.453  13.301  0.4024  0.1697 -0.0732
   50DOPC   C1B  583   6.606   0.591  14.259 -0.3340 -0.2023 -0.1482
   50DOPC   D2B  584   6.785   0.609  13.795 -0.0822  0.1824  0.4447
   50DOPC   C3B  585   7.142   0.265  13.847 -0.2650  0.0036  0.3547
   50DOPC   C4B  586   7.568   0.411  14.050 -0.0567 -0.0141 -0.0232
   51DOPC   NC3  587   4.331   4.189  15.502  0.0868 -0.3009 -0.0445
   51DOPC   PO4  588   4.066   4.484  15.587 -0.1202 -0.0696  0.1285
   51DOPC   GL1  589   4.258   4.634  15.369  0.0747 -0.0648  0.1342
   51DOPC   GL2  590   4.243   4.477  15.043  0.1127 -0.0501 -0.2920
   51DOPC   C1A  591   4.330   4.981  15.093 -0.2239  0.1165 -0.1290
   51DOPC   D2A  592   4.389   5.468  15.086  0.2312 -0.1945  0.2140
   51DOPC   C3A  593   4.808   5.604  15.166 -0.3087 -0.1662 -0.2564
   51DOPC   C4A  594   5.237   5.667  15.016  0.0543 -0.2232  0.0544
   51DOPC   C1B  595   4.075   4.739  14.699  0.1059  0.3233  0.0798
   51DOPC   D2B  596   3.631   4.778  14.548 -0.0945 -0.2772  0.1380
   51DOPC   C3B  597   3.575   4.662  14.059 -0.1906 -0.2161  0.1628
   51DOPC   C4B  598   3.792   4.605  13.659 -0.1936 -0.0318 -0.3193
   52DOPC   NC3  599  10.339   7.402  16.124  0.1002 -0.1848 -0.1458
   52DOPC   PO4  600  10.308   7.777  15.940 -0.0754  0.0464  0.0739
   52DOPC   GL1  601  10.259   7.825  15.532 -0.1521 -0.1414  0.3528
   52DOPC   GL2  602   9.956   7.671  15.606 -0.2378  0.1451  0.1611
   52DOPC   C1A  603  10.390   7.974  15.105  0.1391  0.0710 -0.0271
   52DOPC   D2A  604  10.359   7.709  14.724  0.2148  0.0354  0.2624
   52DOPC   C3A  605  10.301   8.045  14.424  0.3051  0.0707 -0.2031
   52DOPC   C4A  606   9.914   8.226  14.318  0.1393  0.3379 -0.1598
   52DOPC   C1B  607   9.910   7.591  15.167 -0.0765 -0.0481 -0.0920
   52DOPC   D2B  608  10.065   7.271  14.925  0.2971  0.1348 -0.0841
   52DOPC   C3B  609   9.865   7.186  14.516 -0.1236 -0.0356 -0.2008
   52DOPC   C4B  610   9.571   7.190  14.209  0.0708  0.0196 -0.3318
   53DOPS   CNO  611   6.153   4.934  15.730 -0.0651 -0.1338 -0.0692
   53DOPS   PO4  612   5.997   5.246  15.844 -0.2425  0.2499 -0.1029
   53DOPS   GL1  613   6.356   5.347  15.608 -0.2011 -0.2344  0.0306
   53DOPS   GL2  614   6.444   5.606  15.723  0.0498  0.0387 -0.1587
   53DOPS   C1A  615   6.626   5.343  15.219 -0.0364 -0.1480 -0.0339
   53DOPS   D2A  616   6.679   5.588  14.844  0.2458 -0.1464  0.0079
   53DOPS   C3A  617   6.694   5.823  14.488  0.3304  0.2895  0.0562
   53DOPS   C4A  618   6.390   5.989  14.209  0.0933 -0.0142  0.2016
   53DOPS   C1B  619   6.922   5.545  15.515  0.2052 -0.0919  0.1017
   53DOPS   D2B  620   7.010   5.812  15.153 -0.1697 -0.0759 -0.1686
   53DOPS   C3B  621   6.679   6.093  14.972  0.0685 -0.0106  0.1439
   53DOPS   C4B  622   6.628   6.313  14.650  0.0580 -0.1295 -0.5476
   54DOPC   NC3  623   6.785   4.333  15.858  0.0052  0.1429 -0.0025
   54DOPC   PO4  624   7.193   4.339  15.805  0.1510  0.1823 -0.1752
   54DOPC   GL1  625   7.168   4.244  15.375 -0.1463  0.2025 -0.0532
   54DOPC   GL2  626   7.120   4.468  15.320 -0.0203 -0.2597 -0.0715
   54DOPC   C1A  627   7.051   4.016  14.998 -0.0263  0.0710 -0.0393
   54DOPC   D2A  628   7.286   3.769  14.653 -0.0681 -0.1521 -0.1211
   54DOPC   C3A  629   7.695   3.945  14.640  0.2355 -0.0604 -0.0850
   54DOPC   C4A  630   8.091   4.091  14.528  0.0908  0.1517 -0.1262
   54DOPC   C1B  631   7.174   4.714  14.933  0.3759 -0.0296 -0.1682
   54DOPC   D2B  632   7.214   4.995  14.535  0.0028 -0.0275 -0.0827
   54DOPC   C3B  633   7.628   4.919  14.282  0.0102 -0.3063 -0.0077
   54DOPC   C4B  634   7.891   4.632  14.000  0.1749  0.3346  0.1100
   55DOPS   CNO  635   8.040   7.228  15.631 -0.2629  0.1780 -0.0180
   55DOPS   PO4  636   7.869   7.445  15.869 -0.1925 -0.1450 -0.1340
   55DOPS   GL1  637   7.771   7.612  15.507 -0.0039 -0.1392 -0.3655
   55DOPS   GL2  638   7.578   7.736  15.572  0.0157  0.0639 -0.1370
   55DOPS   C1A  639   7.815   7.603  15.047  0.1714 -0.0333  0.4226
   55DOPS   D2A  640   7.674   7.558  14.604 -0.0227 -0.2803 -0.0397
   55DOPS   C3A  641   7.505   7.389  14.179  0.1010 -0.0271 -0.0562
   55DOPS   C4A  642   7.171   7.162  13.918  0.0384 -0.0243  0.0000
   55DOPS   C1B  643   7.213   7.715  15.255 -0.0949 -0.1386  0.2153
   55DOPS   D2B  644   6.715   7.758  15.240 -0.2268 -0.1275 -0.2357
   55DOPS   C3B  645   6.379   7.817  14.875 -0.0946 -0.1584  0.1746
   55DOPS   C4B  646   6.124   7.786  14.504  0.1257 -0.3864  0.0414
   56POSM   NC3  647  10.880   0.221  14.374 -0.1100  0.2433  0.2384
   56POSM   PO4  648  11.272   0.224  14.512  0.2017 -0.3084 -0.2083
   56POSM   AM1  649  11.543   0.178  14.316  0.2192 -0.0569  0.2874
   56POSM   AM2  650  11.561   0.015  14.117  0.1464  0.0297  0.1213
   56POSM   T1A  651  11.802   0.455  14.012 -0.1220  0.1063  0.0133
   56POSM   C2A  652  12.207   0.597  13.803 -0.3630 -0.1256 -0.2691
   56POSM   C3A  653  12.467   0.713  13.400  0.1052  0.2299 -0.0386
   56POSM   C1B  654  11.631  -0.177  13.827  0.1159 -0.1727 -0.1154
   56POSM   D2B  655  11.715  -0.454  13.457 -0.0112  0.4303  0.1415
   56POSM   C3B  656  11.450  -0.753  13.280  0.1812  0.2910 -0.0969
   56POSM   C4B  657  11.145  -1.055  12.983  0.2224  0.0352  0.1571
   57DOPS   CNO  658   4.769   4.924  15.475  0.2439  0.0510 -0.0513
   57DOPS   PO4  659   5.100   4.669  15.380  0.0015  0.2187 -0.0989
   57DOPS   GL1  660   5.068   4.854  15.059 -0.1157 -0.5153 -0.6516
   57DOPS   GL2  661   5.217   4.705  14.879  0.0737 -0.2805  0.2410
   57DOPS   C1A  662   4.744   5.155  14.871  0.2582 -0.0019  0.1319
   57DOPS   D2A  663   4.754   5.524  14.662 -0.1164 -0.0090  0.1040
   57DOPS   C3A  664   4.520   5.611  14.290 -0.3258 -0.2402  0.2831
   57DOPS   C4A  665   4.397   5.862  13.957 -0.1233 -0.0560 -0.1411
   57DOPS   C1B  666   4.946   4.816  14.511 -0.1047 -0.1977 -0.0605
   57DOPS   D2B  667   4.795   5.183  14.206  0.0080 -0.0427 -0.1261
   57DOPS   C3B  668   4.986   5.429  13.823 -0.1294  0.1202  0.1247
   57DOPS   C4B  669   4.853   5.370  13.375  0.0030 -0.0025  0.0355
   58DOPS   CNO  670   1.406   2.555  16.168  0.0946 -0.1419  0.1160
   58DOPS   PO4  671   1.381   2.897  15.982 -0.0822  0.3242 -0.2508
   58DOPS   GL1  672   1.402   2.797  15.576  0.0882 -0.4146  0.1519
   58DOPS   GL2  673   1.551   2.977  15.448 -0.2399 -0.0435 -0.1168
   58DOPS   C1A  674   1.158   2.949  15.187  0.0485 -0.1046  0.1893
   58DOPS   D2A  675   0.757   2.956  14.920  0.0213  0.1716  0.2381
   58DOPS   C3A  676   0.795   3.218  14.507 -0.1040 -0.0916  0.3102
   58DOPS   C4A  677   0.911   3.256  14.030 -0.0329 -0.1510 -0.2588
   58DOPS   C1B  678   1.405   3.398  15.289  0.0962  0.0885  0.0241
   58DOPS   D2B  679   1.282   3.834  15.235  0.0132 -0.1402 -0.0093
   58DOPS   C3B  680   0.860   3.908  15.010 -0.3351 -0.0780 -0.0874
   58DOPS   C4B  681   0.634   3.590  14.811 -0.1870 -0.0156 -0.1316
   59DOPE   NH3  682   3.817   4.113  15.816 -0.2483  0.1587 -0.0327
   59DOPE   PO4  683   3.695   3.852  15.904  0.1924  0.0687 -0.0841
   59DOPE   GL1  684   3.592   3.845  15.475 -0.1605  0.4560 -0.0270
   59DOPE   GL2  685   3.506   3.998  15.422  0.0648 -0.3322  0.0482
   59DOPE   C1A  686   3.823   4.110  15.087  0.3066 -0.0546 -0.0320
   59DOPE   D2A  687   3.880   4.255  14.591  0.0468 -0.0232 -0.2726
   59DOPE   C3A  688   4.063   4.239  14.166  0.1166  0.0904  0.0380
   59DOPE   C4A  689   4.401   4.039  13.879  0.0367 -0.1587  0.0334
   59DOPE   C1B  690   3.133   3.957  15.169  0.0731 -0.2514 -0.2072
   59DOPE   D2B  691   2.755   4.204  15.008  0.1098 -0.1496 -0.1859
   59DOPE   C3B  692   2.813   4.215  14.544  0.1099  0.0557 -0.2303
   59DOPE   C4B  693   3.095   4.474  14.262 -0.1950 -0.0693  0.1104
   60DOPE   NH3  694   9.003   0.212  14.428 -0.0143 -0.0759  0.1097
   60DOPE   PO4  695   8.743   0.056  14.454  0.0319  0.0388 -0.0295
   60DOPE   GL1  696   8.433   0.144  14.141 -0.1571 -0.4865 -0.3369
   60DOPE   GL2  697   8.607   0.425  14.105 -0.0801 -0.0009  0.0687
   60DOPE   C1A  698   8.099   0.104  13.853  0.0908  0.1312  0.0270
   60DOPE   D2A  699   7.964   0.046  13.408 -0.1724  0.0354 -0.2038
   60DOPE   C3A  700   7.889  -0.022  12.908  0.1562 -0.0866 -0.0260
   60DOPE   C4A  701   7.933  -0.214  12.529 -0.0571 -0.1370  0.3569
   60DOPE   C1B  702   8.912   0.522  13.846 -0.0870 -0.0458  0.0292
   60DOPE   D2B  703   9.272   0.836  13.871 -0.2024 -0.5074  0.0741
   60DOPE   C3B  704   9.425   1.013  13.491  0.0705  0.0574 -0.1135
   60DOPE   C4B  705   9.392   1.259  13.057  0.2150 -0.0510  0.0627
   61DOPE   NH3  706   7.591   9.455  16.021  0.4879 -0.1336  0.1670
   61DOPE   PO4  707   7.575   9.746  15.865 -0.4336  0.1001  0.0054
   61DOPE   GL1  708   7.626   9.682  15.453 -0.0740  0.1179 -0.2903
   61DOPE   GL2  709   7.372   9.843  15.387  0.2614 -0.2410  0.1786
   61DOPE   C1A  710   7.492   9.492  15.016 -0.0751 -0.2624 -0.3306
   61DOPE   D2A  711   7.388   9.557  14.547 -0.0420  0.0121  0.1960
   61DOPE   C3A  712   7.474   9.984  14.318 -0.0509 -0.1008 -0.0439
   61DOPE   C4A  713   7.365  10.448  14.342  0.0078  0.2927  0.2187
   61DOPE   C1B  714   7.201   9.859  14.903  0.3004  0.0744 -0.1421
   61DOPE   D2B  715   6.946   9.948  14.502  0.1494 -0.2149  0.0773
   61DOPE   C3B  716   7.069   9.900  14.098  0.0547  0.3005 -0.0039
   61DOPE   C4B  717   7.348   9.804  13.775  0.0771  0.0975 -0.0703
   62DOPC   NC3  718   4.765   6.572  16.255 -0.0496  0.0240  0.1046
   62DOPC   PO4  719   4.539   6.333  16.011 -0.1649  0.1726  0.0070
   62DOPC   GL1  720   4.435   6.572  15.695 -0.0370 -0.3537 -0.1234
   62DOPC   GL2  721   4.563   6.824  15.787 -0.0204  0.1233  0.0922
   62DOPC   C1A  722   4.197   6.499  15.291  0.0713  0.3281 -0.0313
   62DOPC   D2A  723   3.791   6.329  15.162 -0.0484 -0.0796  0.0701
   62DOPC   C3A  724   3.760   6.179  14.756  0.1331  0.1738  0.1754
   62DOPC   C4A  725   3.992   6.004  14.449 -0.0020  0.1245 -0.3258
   62DOPC   C1B  726   4.904   6.979  15.526  0.1712 -0.0101 -0.0777
   62DOPC   D2B  727   4.898   7.138  15.124 -0.0921  0.0900  0.1842
   62DOPC   C3B  728   4.737   6.917  14.745  0.2335  0.0197 -0.5409
   62DOPC   C4B  729   4.654   6.592  14.397 -0.1915 -0.1760 -0.4099
   63DOPC   NC3  730  11.866   3.974  15.316  0.2804 -0.2360  0.0453
   63DOPC   PO4  731  11.470   3.930  15.127 -0.3970 -0.2612  0.1070
   63DOPC   GL1  732  11.357   4.235  14.835 -0.0392 -0.0179  0.0473
   63DOPC   GL2  733  11.167   4.026  14.701  0.0059 -0.2067 -0.1408
   63DOPC   C1A  734  11.171   4.540  14.531 -0.0474 -0.3904 -0.2220
   63DOPC   D2A  735  10.934   4.789  14.299  0.1182 -0.0455 -0.2381
   63DOPC   C3A  736  11.170   4.817  13.899 -0.1301 -0.0274 -0.1240
   63DOPC   C4A  737  11.187   4.883  13.441  0.0528  0.2277  0.0372
   63DOPC   C1B  738  11.490   3.866  14.430  0.4135 -0.1026 -0.1063
   63DOPC   D2B  739  11.763   3.587  14.197  0.2074  0.2193  0.0978
   63DOPC   C3B  740  12.120   3.370  14.216  0.0297  0.0726 -0.0549
   63DOPC   C4B  741  12.466   3.463  13.965 -0.0789 -0.1924  0.1273
   64POSM   NC3  742   4.138   4.810  15.966 -0.0591 -0.1848 -0.1022
   64POSM   PO4  743   3.842   4.940  15.756  0.0929  0.0370 -0.2239
   64POSM   AM1  744   3.905   4.935  15.389  0.0632 -0.0592 -0.1283
   64POSM   AM2  745   3.835   4.735  15.237  0.1690 -0.2830  0.3878
   64POSM   T1A  746   3.916   5.188  14.946 -0.1916 -0.0039 -0.3880
   64POSM   C2A  747   4.197   5.357  14.644 -0.2270  0.0280  0.0204
   64POSM   C3A  748   4.082   5.336  14.176 -0.3140 -0.2069  0.0042
   64POSM   C1B  749   3.612   4.525  15.071  0.2798 -0.1189  0.1181
   64POSM   D2B  750   3.305   4.313  14.765  0.0071 -0.3722 -0.0551
   64POSM   C3B  751   3.458   4.161  14.358 -0.1100 -0.1801  0.1382
   64POSM   C4B  752   3.820   3.831  14.343  0.1617  0.0384  0.2654
   65POSM   NC3  753   1.276  10.013  17.610 -0.0184 -0.1293  0.0392
   65POSM   PO4  754   1.458   9.892  17.323  0.1809  0.3784  0.2326
   65POSM   AM1  755   1.466   9.936  16.982  0.1565 -0.2400 -0.1507
   65POSM   AM2  756   1.322  10.064  16.748 -0.0688  0.0025 -0.1172
   65POSM   T1A  757   1.787   9.888  16.590 -0.0564  0.1504  0.2299
   65POSM   C2A  758   2.011   9.805  16.128 -0.0538  0.0719  0.0945
   65POSM   C3A  759   2.008   9.500  15.743 -0.0366 -0.0937  0.0150
   65POSM   C1B  760   1.343  10.104  16.387  0.2158  0.0958  0.1771
   65POSM   D2B  761   1.241  10.335  15.994 -0.0082  0.0381  0.1252
   65POSM   C3B  762   1.023  10.552  15.661  0.2864 -0.4143  0.3205
   65POSM   C4B  763   1.149  10.898  15.345  0.0703  0.1229  0.0099
   66DOPE   NH3  764   3.221   3.003  15.659 -0.1419 -0.1293  0.0094
   66DOPE   PO4  765   3.038   3.152  15.450 -0.1489  0.0794  0.2051
   66DOPE   GL1  766   3.090   3.085  15.130 -0.0933  0.0713  0.0688
   66DOPE   GL2  767   3.057   3.292  14.925 -0.0037  0.1300 -0.1096
   66DOPE   C1A  768   3.195   2.904  14.719 -0.0531  0.1215  0.2635
   66DOPE   D2A  769   3.262   2.829  14.275 -0.0794 -0.4879 -0.0086
   66DOPE   C3A  770   3.157   3.239  14.034 -0.1774  0.2382  0.0096
   66DOPE   C4A  771   3.069   3.415  13.611  0.4106 -0.0160 -0.1555
   66DOPE   C1B  772   2.929   3.331  14.523  0.2561  0.2917  0.0948
   66DOPE   D2B  773   2.930   3.645  14.206  0.0218  0.0113  0.0723
   66DOPE   C3B  774   3.320   3.786  14.052 -0.0594  0.1786 -0.0841
   66DOPE   C4B  775   3.698   4.012  13.891  0.0872 -0.0337  0.0748
   67DOPE   NH3  776   1.918   5.310  15.949 -0.0960 -0.1408  0.2812
   67DOPE   PO4  777   1.749   5.029  15.992 -0.1873  0.0150 -0.0074
   67DOPE   GL1  778   1.921   4.817  15.732 -0.0469 -0.0840  0.0607
   67DOPE   GL2  779   1.959   5.028  15.542  0.2373  0.1187  0.1353
   67DOPE   C1A  780   2.298   4.666  15.521  0.3243 -0.1421  0.1954
   67DOPE   D2A  781   2.641   4.649  15.212  0.1212  0.3542 -0.0960
   67DOPE   C3A  782   2.512   4.691  14.768 -0.1100  0.1025  0.0402
   67DOPE   C4A  783   2.422   5.024  14.493  0.0688  0.0941 -0.0239
   67DOPE   C1B  784   1.816   4.649  15.249 -0.2248  0.2704 -0.1354
   67DOPE   D2B  785   1.839   4.427  14.885  0.3197 -0.3373 -0.1675
   67DOPE   C3B  786   2.020   4.631  14.508 -0.1582  0.0543 -0.0227
   67DOPE   C4B  787   1.793   5.055  14.366 -0.2113 -0.1912 -0.0730
   68DOPE   NH3  788   5.637  11.553  16.616 -0.0999 -0.2457 -0.0254
   68DOPE   PO4  789   5.497  11.795  16.793  0.2532  0.2757  0.1411
   68DOPE   GL1  790   5.182  11.862  16.527 -0.1216 -0.2658  0.2776
   68DOPE   GL2  791   4.848  11.985  16.506  0.1278 -0.0663 -0.0827
   68DOPE   C1A  792   5.150  11.775  16.057 -0.1057  0.0322  0.0324
   68DOPE   D2A  793   4.891  11.519  15.822  0.0630 -0.2160  0.0266
   68DOPE   C3A  794   5.018  11.672  15.427 -0.1202 -0.0008 -0.1965
   68DOPE   C4A  795   5.071  11.630  14.954 -0.0344  0.2325 -0.0778
   68DOPE   C1B  796   4.646  12.048  16.089  0.3772  0.0772  0.2910
   68DOPE   D2B  797   4.649  11.913  15.640  0.3760  0.1232  0.1311
   68DOPE   C3B  798   4.551  12.335  15.470 -0.0869 -0.1337  0.0245
   68DOPE   C4B  799   4.678  12.809  15.469  0.2844 -0.0280 -0.4025
   69DOPC   NC3  800   1.100   1.166  16.039  0.1355 -0.1726 -0.0901
   69DOPC   PO4  801   0.727   1.301  15.966 -0.1543 -0.1234 -0.3278
   69DOPC   GL1  802   0.649   1.418  15.584 -0.0326 -0.0321  0.1971
   69DOPC   GL2  803   0.842   1.148  15.450 -0.1739  0.1824  0.2212
   69DOPC   C1A  804   0.482   1.302  15.186  0.0429  0.0205  0.3524
   69DOPC   D2A  805   0.180   0.978  15.151  0.2574  0.2856  0.0846
   69DOPC   C3A  806  -0.062   1.163  14.794 -0.0566 -0.2623  0.2344
   69DOPC   C4A  807   0.004   1.557  14.433  0.2554 -0.0668 -0.2217
   69DOPC   C1B  808   0.657   0.694  15.403 -0.0051  0.1841 -0.0239
   69DOPC   D2B  809   0.644   0.310  15.676 -0.3687 -0.1811  0.1192
   69DOPC   C3B  810   0.425  -0.028  15.473 -0.1177 -0.0822  0.1038
   69DOPC   C4B  811   0.129  -0.016  15.132  0.1508 -0.0270  0.4752
   70DOPC   NC3  812   0.677   5.910  16.207  0.0701  0.1347 -0.3746
   70DOPC   PO4  813   0.649   6.203  16.430 -0.2736  0.2221 -0.2072
   70DOPC   GL1  814   0.674   6.359  16.069  0.2620 -0.0144  0.2316
   70DOPC   GL2  815   0.942   6.269  16.014  0.1178 -0.2327 -0.2333
   70DOPC   C1A  816   0.550   6.145  15.682  0.1173  0.1583  0.1627
   70DOPC   D2A  817   0.636   6.183  15.232 -0.0133 -0.1599  0.3416
   70DOPC   C3A  818   0.391   6.133  14.901 -0.1258  0.3700  0.4132
   70DOPC   C4A  819   0.252   6.093  14.417  0.2051 -0.1184 -0.1233
   70DOPC   C1B  820   0.897   6.686  15.804  0.1812 -0.0399 -0.2199
   70DOPC   D2B  821   0.726   6.629  15.382  0.0394  0.0304 -0.0767
   70DOPC   C3B  822   0.795   6.511  14.889 -0.1012 -0.0293  0.3748
   70DOPC   C4B  823   1.053   6.225  14.625  0.0077  0.1251 -0.2607
   71POSM   NC3  824   5.136   0.874  15.571  0.5657  0.0813 -0.0232
   71POSM   PO4  825   5.027   1.258  15.495 -0.2703  0.0978  0.4381
   71POSM   AM1  826   5.195   1.419  15.239 -0.2982  0.1832 -0.3066
   71POSM   AM2  827   5.381   1.437  15.025  0.2128 -0.2523  0.1729
   71POSM   T1A  828   4.925   1.570  14.815 -0.0735  0.3234 -0.1119
   71POSM   C2A  829   4.887   1.895  14.453  0.1653 -0.0227 -0.2154
   71POSM   C3A  830   4.874   1.989  13.995 -0.0559 -0.1191  0.2621
   71POSM   C1B  831   5.429   1.570  14.763 -0.4443  0.2606  0.2918
   71POSM   D2B  832   5.541   1.871  14.445  0.0392 -0.0474  0.1754
   71POSM   C3B  833   5.277   2.212  14.325  0.1663  0.2538  0.1389
   71POSM   C4B  834   5.079   2.472  13.989  0.0719 -0.0384 -0.0933
   72DOPC   NC3  835   1.726  10.973  16.803  0.0596  0.1374  0.2289
   72DOPC   PO4  836   1.830  11.280  16.997 -0.0975  0.1703 -0.0644
   72DOPC   GL1  837   1.854  11.389  16.613 -0.0994 -0.2471 -0.0665
   72DOPC   GL2  838   2.148  11.292  16.602 -0.1027 -0.4032  0.0349
   72DOPC   C1A  839   1.784  11.381  16.162 -0.1866 -0.1000 -0.2510
   72DOPC   D2A  840   1.794  11.637  15.785  0.0635  0.0316  0.1197
   72DOPC   C3A  841   2.098  11.957  15.897 -0.2923  0.0866  0.0424
   72DOPC   C4A  842   2.121  12.297  16.225 -0.0955  0.1863 -0.0178
   72DOPC   C1B  843   2.253  11.245  16.176 -0.1065 -0.2139  0.1049
   72DOPC   D2B  844   2.419  10.958  15.821  0.0021  0.0338  0.0824
   72DOPC   C3B  845   2.111  10.699  15.575  0.0277 -0.1269 -0.1282
   72DOPC   C4B  846   1.650  10.824  15.548  0.0997  0.3945 -0.0614
   73DOPE   NH3  847   8.134   1.731  14.589 -0.1550  0.0073  0.0498
   73DOPE   PO4  848   8.286   1.665  14.904  0.0565  0.3946  0.0628
   73DOPE   GL1  849   8.370   1.343  14.590 -0.1212  0.1744 -0.3247
   73DOPE   GL2  850   8.555   1.466  14.399  0.0510 -0.0649  0.0641
   73DOPE   C1A  851   8.005   1.164  14.373 -0.2625 -0.3601  0.2880
   73DOPE   D2A  852   8.099   1.092  13.943 -0.1089 -0.2904 -0.2158
   73DOPE   C3A  853   8.465   0.889  13.761  0.1229 -0.3383 -0.0797
   73DOPE   C4A  854   8.628   0.641  13.397  0.1756  0.2481 -0.0496
   73DOPE   C1B  855   8.163   1.513  14.098  0.0778 -0.1847  0.1044
   73DOPE   D2B  856   7.768   1.412  13.939  0.4130  0.1000  0.3000
   73DOPE   C3B  857   7.648   1.695  13.601  0.2531 -0.1177  0.2096
   73DOPE   C4B  858   7.478   1.714  13.213 -0.0401 -0.2607 -0.0355
   74DOPC   NC3  859   2.853   6.182  16.396 -0.0005  0.3438 -0.4323
   74DOPC   PO4  860   2.440   6.260  16.441 -0.1626 -0.1599 -0.0422
   74DOPC   GL1  861   2.623   6.533  16.108  0.1529  0.2947 -0.0792
   74DOPC   GL2  862   2.853   6.634  16.166  0.2563 -0.4138 -0.0096
   74DOPC   C1A  863   2.500   6.602  15.660 -0.1999  0.1460 -0.0542
   74DOPC   D2A  864   2.275   6.976  15.408  0.2198  0.0425  0.0708
   74DOPC   C3A  865   2.551   7.319  15.515  0.4989 -0.3132  0.0500
   74DOPC   C4A  866   2.829   7.582  15.774 -0.0912  0.0446  0.0539
   74DOPC   C1B  867   3.209   7.006  16.153 -0.2419 -0.0005  0.3331
   74DOPC   D2B  868   3.316   7.328  15.814  0.0587  0.0145  0.0048
   74DOPC   C3B  869   3.800   7.277  15.597 -0.1971 -0.1172 -0.2457
   74DOPC   C4B  870   4.150   7.327  15.352 -0.1071  0.0315 -0.0140
   75DOPE   NH3  871  34.567   9.409  16.998 -0.0570 -0.0611  0.2357
   75DOPE   PO4  872  34.667   9.159  16.824 -0.2461 -0.2274 -0.2183
   75DOPE   GL1  873  34.461   8.948  16.574  0.5385 -0.3147 -0.0476
   75DOPE   GL2  874  34.214   8.960  16.438  0.1754 -0.0883 -0.1135
   75DOPE   C1A  875  34.673   8.766  16.152  0.0990 -0.0338  0.0653
   75DOPE   D2A  876  34.622   8.865  15.738  0.2420 -0.4348  0.0589
   75DOPE   C3A  877  34.681   8.514  15.440  0.0908 -0.3325  0.0783
   75DOPE   C4A  878  34.570   8.495  14.975 -0.0885 -0.0978  0.3015
   75DOPE   C1B  879  34.355   9.155  16.044 -0.2451 -0.0132 -0.2649
   75DOPE   D2B  880  34.583   9.432  15.801  0.0792  0.3459 -0.2291
   75DOPE   C3B  881  34.624   9.506  15.333  0.0309 -0.4472  0.1363
   75DOPE   C4B  882  34.769   9.523  14.867  0.1653 -0.1312  0.0139
   76DOPE   NH3  883   9.459   0.738  14.428  0.2059 -0.1103 -0.0154
   76DOPE   PO4  884   9.368   0.491  14.270 -0.1932 -0.1290 -0.0031
   76DOPE   GL1  885   9.554   0.208  14.147 -0.2291  0.1116  0.0077
   76DOPE   GL2  886   9.725   0.283  13.922 -0.1016 -0.1343 -0.1556
   76DOPE   C1A  887   9.687  -0.196  13.953 -0.0017  0.4712 -0.1094
   76DOPE   D2A  888   9.732  -0.217  13.505 -0.3228 -0.3142  0.0435
   76DOPE   C3A  889   9.851   0.224  13.354 -0.0569  0.0590  0.0469
   76DOPE   C4A  890   9.935   0.449  12.936  0.1108  0.1555 -0.4082
   76DOPE   C1B  891   9.466   0.446  13.558  0.2534 -0.1269 -0.0599
   76DOPE   D2B  892   9.118   0.636  13.333 -0.0750  0.1328 -0.0731
   76DOPE   C3B  893   8.917   0.232  13.292 -0.0349 -0.0098 -0.3245
   76DOPE   C4B  894   8.522   0.204  13.040  0.1704  0.4334  0.0607
   77DOPC   NC3  895   3.337   3.524  15.293 -0.2196  0.0315  0.0074
   77DOPC   PO4  896   3.602   3.226  15.312 -0.0891 -0.2567  0.2678
   77DOPC   GL1  897   3.640   3.040  14.910 -0.0584  0.0912  0.1847
   77DOPC   GL2  898   3.534   3.225  14.731  0.1913  0.1116 -0.2696
   77DOPC   C1A  899   3.598   2.624  14.723 -0.0332 -0.0222 -0.0185
   77DOPC   D2A  900   3.602   2.305  14.401  0.1787 -0.0869 -0.0609
   77DOPC   C3A  901   3.242   2.229  14.146 -0.3847  0.1851  0.1134
   77DOPC   C4A  902   2.909   2.570  14.078 -0.3184  0.0845  0.0006
   77DOPC   C1B  903   3.535   3.410  14.319  0.1520 -0.0841  0.2739
   77DOPC   D2B  904   3.632   3.384  13.881 -0.0891  0.0353 -0.2310
   77DOPC   C3B  905   3.934   3.220  13.569  0.2650 -0.0739  0.3358
   77DOPC   C4B  906   4.308   3.249  13.401 -0.0633  0.0203  0.0408
   78DOPC   NC3  907   5.143   4.289  15.690 -0.0143  0.0837 -0.0002
   78DOPC   PO4  908   4.766   4.178  15.748  0.1336 -0.0237 -0.1904
   78DOPC   GL1  909   4.814   4.268  15.347 -0.1225  0.0355  0.0900
   78DOPC   GL2  910   4.673   4.487  15.280 -0.0280  0.1570  0.1336
   78DOPC   C1A  911   4.934   4.234  14.899  0.0416 -0.1469  0.0532
   78DOPC   D2A  912   5.035   4.316  14.382  0.0957 -0.0622 -0.0195
   78DOPC   C3A  913   5.287   4.559  14.075 -0.0335 -0.1264  0.1410
   78DOPC   C4A  914   5.216   4.784  13.676  0.4327 -0.1281  0.2057
   78DOPC   C1B  915   4.616   4.685  14.900 -0.0255 -0.1117 -0.4115
   78DOPC   D2B  916   4.491   4.956  14.510 -0.0564 -0.1955 -0.2263
   78DOPC   C3B  917   4.268   4.871  14.176 -0.0735 -0.2501  0.0812
   78DOPC   C4B  918   4.287   4.575  13.888  0.1687  0.1651 -0.2940
   79DOPC   NC3  919  10.721   9.144  16.000 -0.1200 -0.2804 -0.2697
   79DOPC   PO4  920  11.037   9.106  15.814 -0.2551 -0.2036  0.1708
   79DOPC   GL1  921  10.836   9.122  15.418  0.2910 -0.2162 -0.4984
   79DOPC   GL2  922  11.068   8.979  15.268  0.2216  0.1268  0.0619
   79DOPC   C1A  923  10.727   9.099  14.936 -0.1573 -0.2649 -0.1972
   79DOPC   D2A  924  10.592   8.802  14.584 -0.2257  0.2491 -0.0327
   79DOPC   C3A  925  10.602   8.897  14.130 -0.3597 -0.0001 -0.0017
   79DOPC   C4A  926  10.406   8.821  13.759 -0.0295 -0.0021  0.2754
   79DOPC   C1B  927  11.231   9.032  14.775 -0.0009 -0.2901  0.4596
   79DOPC   D2B  928  11.237   9.178  14.350 -0.1022  0.4315  0.2459
   79DOPC   C3B  929  11.098   9.037  13.904 -0.5272  0.2938  0.1190
   79DOPC   C4B  930  10.971   9.217  13.508  0.1211  0.3352 -0.2285
   80DOPC   NC3  931   0.292   1.102  16.298 -0.0597 -0.1373  0.1917
   80DOPC   PO4  932   0.211   1.068  15.878  0.3420  0.0672 -0.2190
   80DOPC   GL1  933   0.165   1.386  15.566  0.1756  0.0903 -0.0291
   80DOPC   GL2  934  -0.076   1.398  15.659 -0.2627  0.3567  0.1994
   80DOPC   C1A  935   0.074   1.524  15.146 -0.0572  0.0378  0.1282
   80DOPC   D2A  936  -0.271   1.698  14.948  0.2487 -0.3674 -0.1242
   80DOPC   C3A  937  -0.247   2.033  14.648 -0.2406  0.0861 -0.3615
   80DOPC   C4A  938  -0.074   2.341  14.389 -0.1693 -0.0819  0.1237
   80DOPC   C1B  939  -0.504   1.546  15.513 -0.0345  0.0324 -0.0495
   80DOPC   D2B  940  -0.775   1.647  15.172  0.0294  0.0559  0.1408
   80DOPC   C3B  941  -1.032   2.065  15.269  0.1287 -0.0833 -0.0560
   80DOPC   C4B  942  -1.371   2.324  15.106 -0.1145  0.2608  0.1321
   81DOPC   NC3  943   6.457   4.116  16.165  0.2782 -0.0340  0.2252
   81DOPC   PO4  944   6.341   4.137  15.759  0.3336  0.0176  0.0579
   81DOPC   GL1  945   6.410   3.848  15.605  0.0042  0.3393  0.1430
   81DOPC   GL2  946   6.308   3.585  15.539  0.1864  0.1937 -0.3108
   81DOPC   C1A  947   6.334   3.880  15.140  0.0162 -0.1627 -0.1962
   81DOPC   D2A  948   6.399   3.894  14.697  0.1223 -0.1474  0.0150
   81DOPC   C3A  949   6.800   3.652  14.587  0.1023 -0.2111 -0.3166
   81DOPC   C4A  950   7.099   3.524  14.266  0.1892 -0.1830 -0.2453
   81DOPC   C1B  951   6.528   3.311  15.173 -0.0107 -0.2280 -0.3073
   81DOPC   D2B  952   6.420   3.342  14.736 -0.0883  0.0943  0.1492
   81DOPC   C3B  953   6.039   3.581  14.697  0.0846  0.2120 -0.1876
   81DOPC   C4B  954   5.624   3.344  14.687 -0.0282  0.2155  0.2538
   82DOPE   NH3  955   9.586   7.101  16.159 -0.1456 -0.1679 -0.3241
   82DOPE   PO4  956   9.738   6.816  16.203 -0.0472  0.1457  0.2518
   82DOPE   GL1  957   9.772   6.510  15.909 -0.0566 -0.1065  0.1394
   82DOPE   GL2  958   9.542   6.543  15.768 -0.0180  0.1513 -0.2967
   82DOPE   C1A  959  10.148   6.445  15.598 -0.1956  0.2243  0.3041
   82DOPE   D2A  960  10.501   6.699  15.440  0.0528  0.0193  0.0421
   82DOPE   C3A  961  10.474   6.783  14.940 -0.0932  0.1008  0.3711
   82DOPE   C4A  962  10.088   6.751  14.625 -0.1731 -0.3075  0.0922
   82DOPE   C1B  963   9.331   6.750  15.392 -0.0967  0.0436  0.0256
   82DOPE   D2B  964   9.172   6.928  15.008 -0.1868 -0.1122 -0.0957
   82DOPE   C3B  965   8.846   7.042  14.672  0.2088 -0.0810  0.0852
   82DOPE   C4B  966   8.564   7.347  14.445  0.2935  0.1905  0.2251
   83DOPE   NH3  967   8.802   5.797  16.204  0.0303 -0.4806 -0.0837
   83DOPE   PO4  968   9.056   5.618  16.107 -0.2326  0.2467 -0.3219
   83DOPE   GL1  969   9.142   5.538  15.715  0.0018 -0.2123 -0.1604
   83DOPE   GL2  970   8.826   5.701  15.669  0.1140 -0.0310  0.3456
   83DOPE   C1A  971   9.191   5.626  15.226 -0.0755  0.4249  0.0783
   83DOPE   D2A  972   9.484   5.848  14.987 -0.0996 -0.2983  0.0046
   83DOPE   C3A  973   9.893   6.070  14.964  0.3075 -0.1497 -0.0946
   83DOPE   C4A  974  10.217   6.303  14.774 -0.0385 -0.0307  0.0105
   83DOPE   C1B  975   8.896   6.000  15.303 -0.0848  0.1358 -0.0543
   83DOPE   D2B  976   9.065   6.088  14.853 -0.2512  0.1632  0.2290
   83DOPE   C3B  977   9.233   5.779  14.565  0.5111  0.0535 -0.2573
   83DOPE   C4B  978   9.626   5.555  14.391  0.0545  0.0660  0.1803
   84POSM   NC3  979   5.518   9.888  16.692  0.0989  0.0053  0.0630
   84POSM   PO4  980   5.743   9.607  16.594  0.2274 -0.1309  0.0612
   84POSM   AM1  981   5.661   9.350  16.365 -0.0480 -0.2596 -0.0539
   84POSM   AM2  982   5.522   9.442  16.128 -0.0160  0.1652 -0.0545
   84POSM   T1A  983   5.429   8.970  16.154  0.3483 -0.2456  0.0204
   84POSM   C2A  984   5.199   8.629  15.908 -0.0395 -0.0756 -0.0366
   84POSM   C3A  985   4.909   8.326  15.728 -0.1253  0.1501  0.0136
   84POSM   C1B  986   5.455   9.394  15.815  0.0736 -0.2546 -0.0677
   84POSM   D2B  987   5.442   9.449  15.347  0.0458  0.0104  0.2791
   84POSM   C3B  988   5.370   9.085  15.084  0.0407 -0.1326  0.4263
   84POSM   C4B  989   5.471   8.634  15.017  0.0320  0.0981 -0.0092
   85DOPC   NC3  990   7.713  33.807  14.244  0.2810  0.2012  0.0493
   85DOPC   PO4  991   7.429  33.994  14.153  0.2869 -0.2235 -0.0039
   85DOPC   GL1  992   7.633  34.264  13.979  0.1326 -0.0732  0.1175
   85DOPC   GL2  993   7.933  34.303  14.093  0.1524  0.3084  0.3278
   85DOPC   C1A  994   7.530  34.615  13.684 -0.1648 -0.1316 -0.0512
   85DOPC   D2A  995   7.578  35.053  13.470  0.0438 -0.0852 -0.2129
   85DOPC   C3A  996   7.575  34.983  13.044  0.1520  0.0917 -0.1367
   85DOPC   C4A  997   7.718  35.119  12.624 -0.0077  0.1386  0.1400
   85DOPC   C1B  998   7.996  34.216  13.641 -0.1831 -0.0956  0.1358
   85DOPC   D2B  999   7.867  34.197  13.218  0.0055  0.0497 -0.1165
   85DOPC   C3B 1000   7.908  33.779  13.095 -0.0483 -0.2223 -0.0146
   85DOPC   C4B 1001   8.256  33.479  13.215  0.0028  0.1601  0.0584
   86POSM   NC3 1002   4.044   2.294  15.869 -0.1176  0.0876  0.0399
   86POSM   PO4 1003   4.183   2.374  15.518  0.1582  0.2102 -0.1264
   86POSM   AM1 1004   3.989   2.312  15.246 -0.4040 -0.3201 -0.1162
   86POSM   AM2 1005   3.711   2.302  15.186  0.0726  0.1389  0.1230
   86POSM   T1A 1006   4.001   2.217  14.739 -0.5761  0.0129  0.2347
   86POSM   C2A 1007   4.023   2.088  14.320 -0.2576 -0.2754 -0.1506
   86POSM   C3A 1008   3.895   2.304  13.942 -0.0790 -0.0582  0.1105
   86POSM   C1B 1009   3.548   2.183  14.952 -0.2902  0.0640 -0.0440
   86POSM   D2B 1010   3.188   2.019  14.754  0.0758 -0.1981  0.0021
   86POSM   C3B 1011   3.165   1.789  14.393 -0.0445  0.1143 -0.3186
   86POSM   C4B 1012   3.337   1.425  14.209  0.1402  0.2549 -0.0199
   87POSM   NC3 1013   1.034  10.174  17.140 -0.1009 -0.4417  0.0351
   87POSM   PO4 1014   0.655  10.200  17.233 -0.0066 -0.1557  0.2264
   87POSM   AM1 1015   0.620  10.377  16.963  0.0079  0.0070 -0.2265
   87POSM   AM2 1016   0.790  10.401  16.730  0.0558  0.1087  0.0179
   87POSM   T1A 1017   0.400  10.584  16.521  0.1028  0.2717  0.1401
   87POSM   C2A 1018   0.262  10.819  16.085 -0.2040 -0.1120 -0.0621
   87POSM   C3A 1019   0.103  11.255  15.887 -0.4032  0.0691  0.2314
   87POSM   C1B 1020   0.873  10.324  16.393 -0.2172  0.1276  0.1040
   87POSM   D2B 1021   0.783  10.046  15.970 -0.0412  0.0125 -0.1742
   87POSM   C3B 1022   0.628  10.123  15.563 -0.1563  0.1121  0.1052
   87POSM   C4B 1023   0.851  10.090  15.155  0.2259  0.0051  0.1936
   88DOPS   CNO 1024   6.419   7.242  16.515 -0.0886 -0.0592  0.1016
   88DOPS   PO4 1025   6.416   7.143  16.140 -0.0875 -0.1300 -0.0001
   88DOPS   GL1 1026   6.075   7.137  15.788 -0.4315 -0.3564  0.0480
   88DOPS   GL2 1027   5.878   7.138  15.998  0.1058 -0.1456  0.0944
   88DOPS   C1A 1028   5.909   7.157  15.350 -0.0098 -0.0263  0.1242
   88DOPS   D2A 1029   5.661   7.214  14.961 -0.1340  0.0176 -0.0399
   88DOPS   C3A 1030   5.684   6.858  14.590  0.2461  0.0830 -0.2104
   88DOPS   C4A 1031   5.772   6.812  14.103  0.0459  0.1264 -0.0129
   88DOPS   C1B 1032   5.599   6.990  15.698  0.3553  0.1077  0.1703
   88DOPS   D2B 1033   5.355   7.145  15.323 -0.0630  0.2653  0.2052
   88DOPS   C3B 1034   5.292   6.814  14.967 -0.1780 -0.1283 -0.0067
   88DOPS   C4B 1035   5.046   6.554  14.712  0.1143 -0.0766  0.0849
   89DOPC   NC3 1036   2.835   8.982  16.847  0.1771 -0.1761 -0.2288
   89DOPC   PO4 1037   2.547   8.950  17.090  0.1833  0.1714  0.2891
   89DOPC   GL1 1038   2.370   8.719  16.788  0.1605 -0.1674 -0.1524
   89DOPC   GL2 1039   2.421   8.479  16.606 -0.2630  0.1585 -0.0453
   89DOPC   C1A 1040   2.270   8.954  16.392  0.0960  0.0187  0.1878
   89DOPC   D2A 1041   2.469   9.270  16.119  0.0974 -0.1273  0.2845
   89DOPC   C3A 1042   2.534   9.273  15.630  0.0944 -0.2086  0.1391
   89DOPC   C4A 1043   2.779   9.048  15.363 -0.0602 -0.1269 -0.6404
   89DOPC   C1B 1044   2.745   8.714  16.268 -0.1449  0.0454 -0.0692
   89DOPC   D2B 1045   3.207   8.695  16.168 -0.2246 -0.1091 -0.0765
   89DOPC   C3B 1046   3.326   9.092  15.995 -0.0301 -0.1519  0.2627
   89DOPC   C4B 1047   3.243   9.187  15.545  0.1512 -0.0978  0.0883
   90DOPE   NH3 1048   4.767   6.805  16.723 -0.0059 -0.0274  0.3376
   90DOPE   PO4 1049   4.534   6.910  16.499 -0.1612  0.0679  0.1339
   90DOPE   GL1 1050   4.464   7.213  16.369  0.1502 -0.0952 -0.1709
   90DOPE   GL2 1051   4.498   7.451  16.559 -0.0465 -0.1147  0.0206
   90DOPE   C1A 1052   4.656   7.318  15.986 -0.0866 -0.0373 -0.1055
   90DOPE   D2A 1053   4.577   7.327  15.559 -0.0466 -0.0624  0.2374
   90DOPE   C3A 1054   4.800   7.670  15.283 -0.0133 -0.0468 -0.1376
   90DOPE   C4A 1055   5.103   7.667  14.932  0.1355 -0.2066  0.1954
   90DOPE   C1B 1056   4.691   7.727  16.233 -0.2517  0.1352  0.4064
   90DOPE   D2B 1057   5.138   7.858  16.148  0.1741 -0.3558 -0.1933
   90DOPE   C3B 1058   5.458   7.595  16.031 -0.3019  0.3455  0.1580
   90DOPE   C4B 1059   5.714   7.483  15.690 -0.1867  0.2218  0.4649
   91DOPE   NH3 1060   4.389   0.911  15.525 -0.1502  0.1180  0.0558
   91DOPE   PO4 1061   4.634   0.776  15.359 -0.3880 -0.1285 -0.1986
   91DOPE   GL1 1062   4.740   1.040  15.165  0.0398  0.4411  0.2359
   91DOPE   GL2 1063   4.994   1.010  15.059  0.0978  0.1603  0.3004
   91DOPE   C1A 1064   4.635   1.191  14.715 -0.3663 -0.1173 -0.2307
   91DOPE   D2A 1065   4.839   1.142  14.315 -0.1992 -0.3573 -0.3495
   91DOPE   C3A 1066   4.699   1.502  13.958 -0.3069 -0.1427 -0.1581
   91DOPE   C4A 1067   4.499   1.866  13.699 -0.1067 -0.2295  0.2008
   91DOPE   C1B 1068   5.288   1.064  14.733 -0.0272 -0.0579  0.0411
   91DOPE   D2B 1069   5.474   1.266  14.337 -0.1089 -0.2022  0.0973
   91DOPE   C3B 1070   5.205   1.567  14.112  0.0338 -0.3546 -0.0233
   91DOPE   C4B 1071   5.114   1.636  13.655  0.0058  0.0460  0.1352
   92DOPC   NC3 1072   7.498   3.652  15.975  0.5412  0.4765 -0.1449
   92DOPC   PO4 1073   7.179   3.381  15.980  0.0791 -0.0605 -0.1558
   92DOPC   GL1 1074   7.097   3.432  15.674  0.1926 -0.4929  0.0331
   92DOPC   GL2 1075   6.841   3.374  15.589  0.2732 -0.1022  0.1118
   92DOPC   C1A 1076   7.092   3.364  15.193 -0.1243 -0.2776 -0.1951
   92DOPC   D2A 1077   7.233   3.260  14.757  0.0202  0.3865  0.1196
   92DOPC   C3A 1078   6.806   3.147  14.474  0.0757  0.3627 -0.1584
   92DOPC   C4A 1079   6.605   3.471  14.197  0.0791  0.2626  0.0402
   92DOPC   C1B 1080   6.860   3.784  15.429  0.1753 -0.1098  0.1282
   92DOPC   D2B 1081   6.671   4.201  15.401 -0.0820 -0.0267  0.0296
   92DOPC   C3B 1082   6.622   4.329  14.969 -0.0017 -0.0142 -0.1544
   92DOPC   C4B 1083   6.812   4.607  14.658  0.2147 -0.0233 -0.1907
   93POSM   NC3 1084   7.893   8.184  16.312  0.3515  0.1477  0.0588
   93POSM   PO4 1085   7.915   7.981  15.940  0.0312 -0.0161 -0.3023
   93POSM   AM1 1086   7.846   8.083  15.652 -0.2874 -0.0926 -0.1958
   93POSM   AM2 1087   8.055   8.005  15.448 -0.1249  0.0972  0.4238
   93POSM   T1A 1088   7.612   8.141  15.233  0.0712  0.0798  0.2397
   93POSM   C2A 1089   7.247   8.039  14.881 -0.1238 -0.0462  0.1101
   93POSM   C3A 1090   6.819   8.001  14.734 -0.2143 -0.0282  0.0162
   93POSM   C1B 1091   8.070   8.071  15.109  0.1886 -0.1729  0.0503
   93POSM   D2B 1092   7.865   8.045  14.673 -0.0922 -0.1758 -0.0752
   93POSM   C3B 1093   7.958   7.784  14.302  0.0857  0.2209  0.0567
   93POSM   C4B 1094   8.158   7.396  14.131  0.1486  0.0742 -0.2211
   94POSM   NC3 1095   2.339   9.933  16.473  0.1719  0.0860 -0.1213
   94POSM   PO4 1096   2.300  10.187  16.778 -0.0388 -0.0611 -0.0758
   94POSM   AM1 1097   2.090  10.354  16.577 -0.1133  0.1295  0.0326
   94POSM   AM2 1098   1.977  10.287  16.347  0.3619 -0.2242  0.1166
   94POSM   T1A 1099   1.964  10.791  16.373  0.3000  0.1474 -0.1473
   94POSM   C2A 1100   1.895  10.947  15.930 -0.0026 -0.1305 -0.0908
   94POSM   C3A 1101   2.055  11.185  15.565  0.1211  0.0874 -0.0341
   94POSM   C1B 1102   2.191  10.367  16.093 -0.0849  0.2133  0.1358
   94POSM   D2B 1103   2.142  10.185  15.648 -0.1959  0.0169 -0.0473
   94POSM   C3B 1104   1.932  10.291  15.274 -0.0965  0.0072 -0.1568
   94POSM   C4B 1105   1.652  10.595  15.107 -0.1281  0.2232  0.1077
   95DOPC   NC3 1106   8.367  10.074  16.353  0.0212  0.0439  0.2053
   95DOPC   PO4 1107   8.427   9.867  15.982 -0.2157 -0.2920 -0.1406
   95DOPC   GL1 1108   8.696   9.887  15.642 -0.1410 -0.0608 -0.0296
   95DOPC   GL2 1109   8.459  10.131  15.571 -0.1378 -0.0699  0.1363
   95DOPC   C1A 1110   8.761   9.653  15.286 -0.1396 -0.3486 -0.2303
   95DOPC   D2A 1111   8.915   9.315  15.008  0.0390  0.1480 -0.0715
   95DOPC   C3A 1112   8.670   9.235  14.587  0.0340 -0.0379 -0.1200
   95DOPC   C4A 1113   8.203   9.134  14.474 -0.1746  0.1928  0.5250
   95DOPC   C1B 1114   8.276   9.819  15.272  0.2319  0.1046 -0.0054
   95DOPC   D2B 1115   7.986   9.595  14.937 -0.0912  0.0922  0.4128
   95DOPC   C3B 1116   7.908   9.655  14.547 -0.4054 -0.0573 -0.0146
   95DOPC   C4B 1117   7.834   9.667  14.088 -0.2921 -0.2026 -0.0774
   96DOPS   CNO 1118   5.213   6.465  16.866 -0.0334 -0.0908 -0.0603
   96DOPS   PO4 1119   5.175   6.605  16.521 -0.0060 -0.2385  0.3868
   96DOPS   GL1 1120   5.320   6.710  16.098  0.2780 -0.2353  0.3177
   96DOPS   GL2 1121   5.350   6.609  15.912  0.3156 -0.0529  0.0376
   96DOPS   C1A 1122   5.148   7.127  15.904  0.0690  0.2103 -0.2392
   96DOPS   D2A 1123   5.106   7.471  15.633 -0.1011 -0.0086 -0.1337
   96DOPS   C3A 1124   4.760   7.787  15.744 -0.0801  0.1718 -0.2539
   96DOPS   C4A 1125   4.351   7.801  15.592  0.3580 -0.1777 -0.0856
   96DOPS   C1B 1126   5.365   6.608  15.446  0.0877 -0.0958  0.0535
   96DOPS   D2B 1127   4.918   6.587  15.206 -0.0936 -0.3086  0.3863
   96DOPS   C3B 1128   4.582   6.443  14.879  0.1596  0.0684 -0.0648
   96DOPS   C4B 1129   4.150   6.473  14.775 -0.0836  0.2162  0.0459
   97DOPE   NH3 1130  10.504   5.093  16.023  0.0969 -0.2292  0.1902
   97DOPE   PO4 1131  10.715   4.888  15.868  0.0830 -0.1141 -0.0419
   97DOPE   GL1 1132  10.534   4.833  15.560 -0.0515  0.2720  0.1823
   97DOPE   GL2 1133  10.365   5.074  15.526  0.3111  0.0319  0.1646
   97DOPE   C1A 1134  10.449   4.729  15.107 -0.0116 -0.2290  0.0177
   97DOPE   D2A 1135  10.657   4.828  14.710  0.1202 -0.1155 -0.2483
   97DOPE   C3A 1136  10.350   4.779  14.328 -0.1870  0.0255  0.0813
   97DOPE   C4A 1137   9.922   4.724  14.173 -0.1891  0.0677  0.0474
   97DOPE   C1B 1138  10.184   5.279  15.147 -0.0238 -0.0233  0.1984
   97DOPE   D2B 1139  10.231   5.112  14.733  0.0710  0.1440  0.5198
   97DOPE   C3B 1140   9.982   5.205  14.313 -0.2193 -0.0041 -0.1893
   97DOPE   C4B 1141   9.846   5.269  13.884  0.2321 -0.0624 -0.0870
   98DOPS   CNO 1142   4.714   8.799  16.735 -0.1294  0.1242 -0.2801
   98DOPS   PO4 1143   4.947   9.101  16.770 -0.1534 -0.0401 -0.0285
   98DOPS   GL1 1144   4.820   9.193  16.412 -0.0035  0.1575 -0.5535
   98DOPS   GL2 1145   4.638   9.100  16.263 -0.2640 -0.1515 -0.1006
   98DOPS   C1A 1146   5.037   9.208  16.013  0.1259 -0.5758 -0.3543
   98DOPS   D2A 1147   5.094   9.163  15.578 -0.0356  0.0498  0.0188
   98DOPS   C3A 1148   5.496   8.966  15.581 -0.0528  0.2015  0.0150
   98DOPS   C4A 1149   5.903   8.856  15.425 -0.3939  0.0492 -0.3074
   98DOPS   C1B 1150   4.645   8.843  15.879 -0.2453 -0.1618  0.3754
   98DOPS   D2B 1151   4.717   8.879  15.399 -0.2327 -0.1109 -0.1232
   98DOPS   C3B 1152   4.919   9.180  15.122  0.3199 -0.2246  0.0267
   98DOPS   C4B 1153   5.152   9.493  14.828 -0.0292  0.0023  0.2845
   99DOPS   CNO 1154   2.327   1.838  15.843  0.0733 -0.3990  0.1535
   99DOPS   PO4 1155   2.365   1.569  15.611 -0.2757  0.1209  0.0440
   99DOPS   GL1 1156   2.065   1.470  15.447 -0.0865  0.0770 -0.3185
   99DOPS   GL2 1157   1.903   1.750  15.363 -0.0182  0.1472 -0.1421
   99DOPS   C1A 1158   1.846   1.284  15.054  0.0294  0.2305  0.2896
   99DOPS   D2A 1159   1.558   0.918  14.937  0.0333  0.0050 -0.4822
   99DOPS   C3A 1160   1.201   0.930  14.641 -0.0337 -0.0802 -0.3139
   99DOPS   C4A 1161   0.738   0.697  14.757  0.0107 -0.0801 -0.0882
   99DOPS   C1B 1162   2.034   1.732  14.915  0.1813 -0.0643  0.2488
   99DOPS   D2B 1163   1.857   1.650  14.426  0.1032  0.2384 -0.2458
   99DOPS   C3B 1164   1.707   1.193  14.430  0.1745  0.1984 -0.2809
   99DOPS   C4B 1165   1.679   0.780  14.317  0.2839  0.0582  0.2364
  100POSM   NC3 1166   2.498   7.416  16.703 -0.0987 -0.1451 -0.1519
  100POSM   PO4 1167   2.776   7.516  16.421 -0.1092  0.1781 -0.2989
  100POSM   AM1 1168   2.583   7.587  16.150 -0.0328  0.2293 -0.0770
  100POSM   AM2 1169   2.325   7.523  16.002 -0.1153  0.0870 -0.0037
  100POSM   T1A 1170   2.499   7.947  15.801 -0.1243  0.0086 -0.1071
  100POSM   C2A 1171   2.384   8.220  15.512 -0.0456 -0.1750  0.2031
  100POSM   C3A 1172   2.052   8.225  15.214 -0.0533  0.0655  0.2121
  100POSM   C1B 1173   2.136   7.630  15.733 -0.0492  0.0343 -0.0905
  100POSM   D2B 1174   1.994   7.752  15.302 -0.2579 -0.0677  0.1879
  100POSM   C3B 1175   1.598   7.571  15.207  0.3731 -0.0245 -0.2441
  100POSM   C4B 1176   1.388   7.303  14.913 -0.2367  0.2008 -0.1531
  101POSM   NC3 1177   9.137   5.135  15.921 -0.2477 -0.1137 -0.1723
  101POSM   PO4 1178   8.785   5.272  15.978  0.1470 -0.0443  0.3200
  101POSM   AM1 1179   8.722   5.250  15.654 -0.2449 -0.3627  0.1307
  101POSM   AM2 1180   8.926   5.115  15.490 -0.3148  0.0177  0.2903
  101POSM   T1A 1181   8.655   5.358  15.172  0.0066  0.2369  0.0694
  101POSM   C2A 1182   8.696   5.716  14.962  0.0833 -0.2120  0.0788
  101POSM   C3A 1183   8.466   6.137  14.947  0.1300  0.1047 -0.1693
  101POSM   C1B 1184   9.057   5.065  15.165  0.2899 -0.0076 -0.1997
  101POSM   D2B 1185   8.974   5.318  14.776  0.2552  0.0351  0.2609
  101POSM   C3B 1186   9.007   5.328  14.320 -0.0230 -0.0123  0.0272
  101POSM   C4B 1187   9.369   5.515  13.992 -0.1701 -0.3379 -0.0313
  102DOPC   NC3 1188   3.029   2.310  16.361 -0.1119 -0.1449 -0.0786
  102DOPC   PO4 1189   2.995   2.332  15.973  0.1269 -0.0831 -0.2208
  102DOPC   GL1 1190   2.894   2.374  15.454 -0.3984  0.0228 -0.0358
  102DOPC   GL2 1191   3.018   2.611  15.383  0.1059  0.1881  0.0094
  102DOPC   C1A 1192   2.881   2.071  15.116 -0.2331 -0.1794  0.0734
  102DOPC   D2A 1193   2.820   1.742  14.771  0.2466 -0.0331 -0.1611
  102DOPC   C3A 1194   2.471   1.719  14.501 -0.1945 -0.0342  0.1677
  102DOPC   C4A 1195   2.152   1.993  14.524  0.3096  0.0634 -0.1535
  102DOPC   C1B 1196   3.165   2.453  14.953  0.1534  0.1585  0.1284
  102DOPC   D2B 1197   3.014   2.487  14.545 -0.1269 -0.0506  0.3394
  102DOPC   C3B 1198   2.739   2.120  14.410 -0.2083  0.1990  0.2304
  102DOPC   C4B 1199   2.513   2.031  13.993 -0.1036 -0.0324  0.0153
  103POSM   NC3 1200   5.719   9.947  16.230 -0.0730  0.2728  0.0791
  103POSM   PO4 1201   5.449  10.215  16.306  0.1751 -0.0759  0.0050
  103POSM   AM1 1202   5.452  10.425  16.042 -0.1482 -0.0511 -0.0720
  103POSM   AM2 1203   5.518  10.689  16.009  0.0369 -0.1608 -0.1773
  103POSM   T1A 1204   5.330  10.442  15.521 -0.0355  0.1609  0.1337
  103POSM   C2A 1205   5.149  10.477  15.083  0.2606 -0.0225 -0.0844
  103POSM   C3A 1206   5.166  10.391  14.592  0.0207 -0.2242 -0.1749
  103POSM   C1B 1207   5.676  10.821  15.683  0.0521 -0.1731  0.0062
  103POSM   D2B 1208   5.786  11.148  15.342 -0.1474 -0.2317 -0.1825
  103POSM   C3B 1209   6.251  11.291  15.288 -0.0371  0.0056 -0.0599
  103POSM   C4B 1210   6.644  11.178  15.093  0.1942  0.3367 -0.1765
  104DOPC   NC3 1211   7.157   5.658  16.395 -0.3717  0.1792 -0.1939
  104DOPC   PO4 1212   6.916   5.820  16.184  0.0727 -0.0290  0.0671
  104DOPC   GL1 1213   6.907   6.053  15.852  0.1808 -0.2221 -0.1574
  104DOPC   GL2 1214   7.126   6.147  15.655 -0.3022 -0.1304  0.1233
  104DOPC   C1A 1215   6.684   6.059  15.455  0.1417 -0.2220  0.0693
  104DOPC   D2A 1216   6.334   5.795  15.187  0.1003 -0.1015  0.0007
  104DOPC   C3A 1217   6.239   5.887  14.721  0.0406 -0.1459 -0.2898
  104DOPC   C4A 1218   5.950   5.762  14.346  0.1663  0.0464  0.2561
  104DOPC   C1B 1219   7.504   6.204  15.381  0.0497 -0.1479 -0.0482
  104DOPC   D2B 1220   7.511   6.085  14.870  0.1106  0.0634 -0.1069
  104DOPC   C3B 1221   7.574   6.379  14.522 -0.1401  0.0888 -0.0190
  104DOPC   C4B 1222   7.485   6.866  14.514  0.1255  0.0227 -0.2587
  105POSM   NC3 1223   7.751   6.622  16.357 -0.2083 -0.3796 -0.1376
  105POSM   PO4 1224   7.597   6.292  16.236 -0.0458  0.2741  0.0690
  105POSM   AM1 1225   7.566   6.108  15.955  0.1980  0.2406 -0.1461
  105POSM   AM2 1226   7.478   5.836  15.881  0.2306  0.1936 -0.3047
  105POSM   T1A 1227   7.845   5.997  15.592  0.0682 -0.1421  0.4317
  105POSM   C2A 1228   7.893   5.885  15.125 -0.0636 -0.0587 -0.0472
  105POSM   C3A 1229   7.994   6.146  14.754 -0.1936  0.1689 -0.0746
  105POSM   C1B 1230   7.397   5.720  15.612  0.1380  0.2625  0.1215
  105POSM   D2B 1231   7.479   5.631  15.169  0.1928  0.0252 -0.0224
  105POSM   C3B 1232   7.729   5.623  14.751  0.2741  0.1522 -0.0063
  105POSM   C4B 1233   7.698   5.873  14.344  0.0526 -0.1226 -0.1678
  106POSM   NC3 1234   7.966   0.049  14.312 -0.2682  0.2190  0.1993
  106POSM   PO4 1235   8.226   0.227  14.547 -0.1885  0.0052  0.2087
  106POSM   AM1 1236   8.250   0.501  14.381  0.0233 -0.1759 -0.0093
  106POSM   AM2 1237   8.075   0.658  14.189 -0.2609  0.0378  0.2609
  106POSM   T1A 1238   8.535   0.913  14.301 -0.0639  0.2778  0.2995
  106POSM   C2A 1239   8.802   1.206  14.053 -0.1865 -0.1404  0.1472
  106POSM   C3A 1240   8.925   1.073  13.637  0.1100  0.0159 -0.2918
  106POSM   C1B 1241   7.988   0.567  13.888  0.1313 -0.0063 -0.0731
  106POSM   D2B 1242   8.056   0.585  13.405  0.0255 -0.1375  0.0746
  106POSM   C3B 1243   8.254   0.967  13.249 -0.1899 -0.2023 -0.0052
  106POSM   C4B 1244   8.243   1.210  12.854 -0.1200  0.1720 -0.2156
  107DOPC   NC3 1245   2.270   4.672  16.203  0.0752 -0.0972 -0.1144
  107DOPC   PO4 1246   2.221   4.280  16.189  0.0260 -0.2274 -0.3080
  107DOPC   GL1 1247   2.229   4.304  15.811  0.2541  0.1174  0.0956
  107DOPC   GL2 1248   1.927   4.339  15.746  0.1203 -0.0529  0.2466
  107DOPC   C1A 1249   2.573   4.241  15.507 -0.0653  0.3161  0.0704
  107DOPC   D2A 1250   3.046   4.331  15.507  0.0739 -0.1209  0.1552
  107DOPC   C3A 1251   3.124   4.618  15.190 -0.0443 -0.0255  0.1569
  107DOPC   C4A 1252   3.108   4.856  14.835 -0.0365 -0.4276  0.1928
  107DOPC   C1B 1253   2.091   4.192  15.375  0.0745 -0.0206 -0.2034
  107DOPC   D2B 1254   2.302   4.369  15.046 -0.0525 -0.1475  0.0281
  107DOPC   C3B 1255   2.321   4.157  14.651 -0.1917 -0.2265  0.2185
  107DOPC   C4B 1256   2.372   4.029  14.223  0.2265 -0.1746  0.1543
  108DOPE   NH3 1257   2.821   2.801  16.041 -0.1210  0.0228  0.1911
  108DOPE   PO4 1258   2.758   2.863  15.733  0.0597  0.1632 -0.4341
  108DOPE   GL1 1259   2.691   2.917  15.365  0.2598  0.2379 -0.1057
  108DOPE   GL2 1260   2.460   3.049  15.313  0.1442  0.1107 -0.1501
  108DOPE   C1A 1261   2.725   2.830  14.960 -0.0685  0.2973  0.1650
  108DOPE   D2A 1262   2.702   2.872  14.498  0.0068 -0.0526 -0.1565
  108DOPE   C3A 1263   2.712   3.025  14.118 -0.0773  0.0727 -0.3361
  108DOPE   C4A 1264   2.570   3.047  13.703 -0.2756  0.1925 -0.3580
  108DOPE   C1B 1265   2.440   3.280  14.879 -0.0150 -0.1047 -0.0658
  108DOPE   D2B 1266   2.411   3.278  14.441 -0.1835  0.1209 -0.1009
  108DOPE   C3B 1267   2.211   2.913  14.168  0.1477 -0.0480  0.1271
  108DOPE   C4B 1268   2.470   2.579  13.918  0.0616 -0.2517 -0.1712
  109DOPC   NC3 1269   0.864   5.018  16.169  0.1234  0.0491 -0.0986
  109DOPC   PO4 1270   1.032   5.371  16.221  0.1416  0.2408 -0.0885
  109DOPC   GL1 1271   1.058   5.343  15.829 -0.4033  0.2703  0.0082
  109DOPC   GL2 1272   1.272   5.168  15.799  0.2586  0.2816 -0.0555
  109DOPC   C1A 1273   1.053   5.302  15.349  0.3900  0.1214  0.1490
  109DOPC   D2A 1274   0.963   5.371  14.843 -0.1012 -0.1427  0.1489
  109DOPC   C3A 1275   0.807   5.103  14.455 -0.2124  0.0559 -0.1479
  109DOPC   C4A 1276   0.463   4.700  14.527 -0.1252  0.2614  0.2766
  109DOPC   C1B 1277   1.403   5.543  15.574  0.1619 -0.0913  0.1786
  109DOPC   D2B 1278   1.518   5.866  15.326  0.3329 -0.1556  0.1816
  109DOPC   C3B 1279   1.756   5.835  14.916 -0.0414 -0.2730 -0.2100
  109DOPC   C4B 1280   1.905   6.032  14.474 -0.0559  0.3522 -0.2063
  110POSM   NC3 1281   8.948   7.495  15.831  0.1943  0.1575  0.1219
  110POSM   PO4 1282   9.185   7.449  16.138  0.0893  0.0479 -0.2229
  110POSM   AM1 1283   9.434   7.451  15.919 -0.1499  0.2107 -0.3350
  110POSM   AM2 1284   9.456   7.344  15.666  0.0035  0.0866 -0.1897
  110POSM   T1A 1285   9.910   7.250  15.795 -0.0825  0.2577 -0.0334
  110POSM   C2A 1286  10.329   7.307  15.602 -0.0087 -0.1826 -0.0301
  110POSM   C3A 1287  10.476   7.460  15.187 -0.1304 -0.1980 -0.0635
  110POSM   C1B 1288   9.554   7.216  15.381 -0.0426  0.0966  0.0039
  110POSM   D2B 1289   9.694   6.964  14.981  0.2265  0.3026 -0.1421
  110POSM   C3B 1290   9.497   6.816  14.619  0.1152  0.0714  0.2913
  110POSM   C4B 1291   9.237   6.494  14.373 -0.1601  0.1191  0.0190
  111POSM   NC3 1292   0.185  10.249  17.107 -0.1067 -0.2027  0.0341
  111POSM   PO4 1293   0.121   9.926  17.048  0.0520  0.2063 -0.0495
  111POSM   AM1 1294   0.385   9.967  16.843 -0.1649  0.2068  0.0631
  111POSM   AM2 1295   0.667   9.953  16.800  0.0801 -0.0507 -0.1012
  111POSM   T1A 1296   0.453  10.081  16.398  0.2942 -0.0078  0.1713
  111POSM   C2A 1297   0.296   9.901  16.010  0.2724  0.1481 -0.1230
  111POSM   C3A 1298   0.412   9.693  15.598 -0.1883  0.2557  0.2493
  111POSM   C1B 1299   0.860   9.844  16.540 -0.2195 -0.1805 -0.3028
  111POSM   D2B 1300   1.094   9.703  16.159 -0.0643 -0.1805 -0.0520
  111POSM   C3B 1301   1.450   9.860  15.951  0.1898  0.0703 -0.3320
  111POSM   C4B 1302   1.744   9.852  15.580  0.0897 -0.2374 -0.1591
  112POSM   NC3 1303   4.350   5.885  16.040  0.3784 -0.0146 -0.3920
  112POSM   PO4 1304   3.980   5.847  15.995 -0.1652 -0.0052  0.2216
  112POSM   AM1 1305   3.813   5.871  15.746 -0.1509  0.2590  0.3501
  112POSM   AM2 1306   3.578   5.916  15.552 -0.0370  0.3330 -0.0308
  112POSM   T1A 1307   3.970   5.911  15.269 -0.0790 -0.2266 -0.1332
  112POSM   C2A 1308   3.786   5.699  14.919  0.2272  0.0439 -0.2439
  112POSM   C3A 1309   3.774   5.590  14.478 -0.1465 -0.2959 -0.0848
  112POSM   C1B 1310   3.300   6.062  15.663  0.0939  0.0364  0.1576
  112POSM   D2B 1311   2.858   6.176  15.842 -0.0720  0.0718  0.1283
  112POSM   C3B 1312   2.570   6.076  15.500  0.3242  0.2951  0.2326
  112POSM   C4B 1313   2.254   6.046  15.141  0.0023  0.1977  0.0300
  113POSM   NC3 1314   2.988  11.411  16.884 -0.1548 -0.1133  0.1404
  113POSM   PO4 1315   3.298  11.207  16.740  0.1352  0.1953 -0.0378
  113POSM   AM1 1316   3.198  11.206  16.440  0.1445 -0.3966 -0.2970
  113POSM   AM2 1317   3.277  11.141  16.186  0.0025 -0.0162 -0.1364
  113POSM   T1A 1318   2.801  11.270  16.109 -0.1325  0.0293 -0.0307
  113POSM   C2A 1319   2.783  11.271  15.639 -0.2474  0.0440 -0.1093
  113POSM   C3A 1320   2.940  11.108  15.233 -0.0459  0.2129 -0.1649
  113POSM   C1B 1321   3.304  11.026  15.829  0.1354 -0.1635  0.3061
  113POSM   D2B 1322   3.398  10.905  15.382  0.3941 -0.1378 -0.0113
  113POSM   C3B 1323   3.550  10.551  15.196 -0.1736  0.2336 -0.0591
  113POSM   C4B 1324   3.451  10.296  14.879 -0.3726 -0.1388 -0.3411
  114DOPC   NC3 1325  11.709   7.117  15.762 -0.1111  0.3347 -0.3106
  114DOPC   PO4 1326  11.461   7.296  15.490  0.2020 -0.1506 -0.1084
  114DOPC   GL1 1327  11.508   7.519  15.192 -0.4583  0.1409  0.5322
  114DOPC   GL2 1328  11.568   7.280  14.973 -0.1310  0.0883 -0.0959
  114DOPC   C1A 1329  11.299   7.862  14.959 -0.1719  0.0653  0.0493
  114DOPC   D2A 1330  11.228   7.947  14.485 -0.0300  0.1492 -0.2250
  114DOPC   C3A 1331  11.167   7.922  13.992 -0.1370  0.0306 -0.0242
  114DOPC   C4A 1332  11.041   8.056  13.571  0.0801 -0.3009 -0.0071
  114DOPC   C1B 1333  11.461   7.528  14.631  0.0748  0.2230  0.0546
  114DOPC   D2B 1334  11.448   7.505  14.159  0.0621 -0.1405 -0.2474
  114DOPC   C3B 1335  11.580   7.761  13.784  0.0150  0.1564  0.0977
  114DOPC   C4B 1336  11.995   7.864  13.540  0.4794  0.0933 -0.0646
  115POSM   NC3 1337  10.693   7.863  15.731 -0.2136  0.2150 -0.2554
  115POSM   PO4 1338  10.747   7.493  15.901 -0.0231 -0.1826  0.0356
  115POSM   AM1 1339  10.867   7.386  15.616  0.1817 -0.0694 -0.2573
  115POSM   AM2 1340  10.959   7.537  15.426 -0.2213  0.1200  0.2735
  115POSM   T1A 1341  10.838   7.042  15.244 -0.2218 -0.0380  0.0068
  115POSM   C2A 1342  10.703   7.184  14.809  0.0085  0.2798  0.0677
  115POSM   C3A 1343  10.326   7.275  14.531 -0.1002 -0.2406  0.0892
  115POSM   C1B 1344  10.970   7.501  15.102  0.1076 -0.0191 -0.1934
  115POSM   D2B 1345  10.945   7.575  14.612 -0.1026 -0.3855  0.1232
  115POSM   C3B 1346  10.690   7.681  14.290  0.0098  0.0609  0.0583
  115POSM   C4B 1347  10.709   7.922  13.933 -0.3515  0.0926  0.2099
  116DOPS   CNO 1348   5.551   6.255  16.394  0.0439 -0.2332  0.0285
  116DOPS   PO4 1349   5.689   6.143  16.064 -0.1083 -0.0356  0.2396
  116DOPS   GL1 1350   5.661   6.327  15.691 -0.3703 -0.1972  0.1369
  116DOPS   GL2 1351   5.449   6.114  15.609 -0.1272 -0.1056  0.1534
  116DOPS   C1A 1352   5.742   6.153  15.236  0.2154 -0.1486  0.3811
  116DOPS   D2A 1353   5.521   6.330  14.802  0.1696 -0.0373  0.3383
  116DOPS   C3A 1354   5.538   6.161  14.334 -0.1693  0.0208  0.0623
  116DOPS   C4A 1355   5.803   6.071  13.977 -0.0201 -0.1365  0.0320
  116DOPS   C1B 1356   5.189   6.189  15.225 -0.1654  0.2246 -0.0246
  116DOPS   D2B 1357   4.951   6.080  14.837 -0.1850  0.0207 -0.1277
  116DOPS   C3B 1358   4.947   6.117  14.395  0.1400  0.1834  0.1256
  116DOPS   C4B 1359   4.849   6.070  13.897 -0.1569  0.0247  0.1699
  117DOPS   CNO 1360   0.557   7.516  16.592  0.2028  0.4367 -0.3348
  117DOPS   PO4 1361   0.493   7.615  16.233  0.1253  0.0466  0.1807
  117DOPS   GL1 1362   0.482   7.560  15.837  0.1611  0.2665 -0.2839
  117DOPS   GL2 1363   0.209   7.454  15.756  0.2144  0.0324 -0.0350
  117DOPS   C1A 1364   0.778   7.348  15.521  0.0151 -0.2598  0.0484
  117DOPS   D2A 1365   0.888   7.073  15.204  0.2430 -0.1479  0.0699
  117DOPS   C3A 1366   0.984   7.131  14.762 -0.4267 -0.6123  0.1423
  117DOPS   C4A 1367   1.124   7.171  14.332  0.3846 -0.1858  0.1638
  117DOPS   C1B 1368  -0.153   7.176  15.619  0.1976  0.0283  0.1154
  117DOPS   D2B 1369  -0.139   6.864  15.265 -0.0881 -0.2285  0.1150
  117DOPS   C3B 1370  -0.466   7.060  14.962  0.2121 -0.1051  0.4172
  117DOPS   C4B 1371  -0.790   7.443  14.797  0.1386 -0.3179  0.0057
  118DOPS   CNO 1372   6.289   8.880  16.873  0.0426 -0.0326  0.1157
  118DOPS   PO4 1373   6.105   8.595  16.748 -0.1531  0.2443 -0.0833
  118DOPS   GL1 1374   6.115   8.551  16.404 -0.0138 -0.1301  0.0610
  118DOPS   GL2 1375   6.186   8.660  16.112 -0.1748 -0.2443  0.4543
  118DOPS   C1A 1376   5.931   8.247  16.182  0.0314 -0.2090  0.2398
  118DOPS   D2A 1377   5.871   7.913  15.857 -0.1287  0.2042  0.3931
  118DOPS   C3A 1378   5.827   8.085  15.429  0.0050  0.2648 -0.0337
  118DOPS   C4A 1379   5.465   8.151  15.148  0.0153  0.2065 -0.1332
  118DOPS   C1B 1380   6.520   8.333  16.124 -0.3430 -0.0600 -0.0624
  118DOPS   D2B 1381   6.586   7.921  16.008  0.0351 -0.1403 -0.2454
  118DOPS   C3B 1382   6.359   7.928  15.615  0.3308 -0.0180  0.2616
  118DOPS   C4B 1383   6.172   7.627  15.314 -0.1917  0.2099 -0.4220
  119POSM   NC3 1384   7.897   2.550  14.850 -0.0521 -0.2628  0.0841
  119POSM   PO4 1385   7.892   2.865  15.094  0.2402  0.3287 -0.0304
  119POSM   AM1 1386   7.750   2.991  14.809  0.1122  0.5515 -0.3317
  119POSM   AM2 1387   7.520   2.917  14.638  0.0738  0.3134 -0.0991
  119POSM   T1A 1388   7.936   3.099  14.366 -0.0831 -0.1398  0.0724
  119POSM   C2A 1389   7.967   3.274  13.977 -0.2223  0.1034  0.3597
  119POSM   C3A 1390   7.873   3.347  13.533 -0.0436 -0.1179 -0.1133
  119POSM   C1B 1391   7.609   2.704  14.423  0.7444  0.1135  0.0245
  119POSM   D2B 1392   7.752   2.417  14.057 -0.3575 -0.3354 -0.1213
  119POSM   C3B 1393   8.132   2.487  13.880  0.0896 -0.1395 -0.0830
  119POSM   C4B 1394   8.440   2.566  13.562 -0.2809  0.3458 -0.3111
  120DOPE   NH3 1395   7.453  10.922  16.130 -0.1764 -0.1604 -0.1956
  120DOPE   PO4 1396   7.697  11.113  16.117 -0.0368 -0.2109  0.0926
  120DOPE   GL1 1397   7.612  11.042  15.748  0.2457  0.3179  0.0846
  120DOPE   GL2 1398   7.832  10.826  15.675 -0.0052 -0.0857 -0.1377
  120DOPE   C1A 1399   7.645  11.155  15.280  0.1275 -0.0177 -0.2023
  120DOPE   D2A 1400   7.801  10.978  14.891  0.0432 -0.0693  0.1055
  120DOPE   C3A 1401   8.231  10.939  14.630 -0.0126  0.1451 -0.1229
  120DOPE   C4A 1402   8.621  11.117  14.625 -0.0662  0.0706 -0.0909
  120DOPE   C1B 1403   7.651  10.676  15.212  0.2570 -0.0823  0.2330
  120DOPE   D2B 1404   7.560  10.499  14.768 -0.0532 -0.0491 -0.0801
  120DOPE   C3B 1405   7.814  10.710  14.418 -0.1402 -0.0451  0.2869
  120DOPE   C4B 1406   8.200  10.765  14.142  0.1993 -0.2905 -0.3646
  121POSM   NC3 1407   5.093   0.482  15.196 -0.0310 -0.1454 -0.1197
  121POSM   PO4 1408   4.827   0.291  15.349 -0.0340 -0.5817 -0.4279
  121POSM   AM1 1409   4.616   0.315  15.111 -0.1454  0.1319 -0.1433
  121POSM   AM2 1410   4.656   0.531  14.911  0.1114 -0.2230  0.0766
  121POSM   T1A 1411   4.193   0.339  14.815 -0.0727  0.1858  0.3120
  121POSM   C2A 1412   3.958   0.458  14.415  0.0100 -0.1449 -0.0753
  121POSM   C3A 1413   3.648   0.437  14.179  0.4177 -0.3572 -0.1103
  121POSM   C1B 1414   4.871   0.515  14.683  0.2618  0.3322  0.0477
  121POSM   D2B 1415   4.896   0.612  14.265  0.2930 -0.0534  0.1647
  121POSM   C3B 1416   4.529   0.591  13.959  0.1540  0.1896 -0.0497
  121POSM   C4B 1417   4.261   0.592  13.617 -0.1076 -0.0842  0.1344
  122DOPS   CNO 1418   7.359   7.274  15.950  0.3311  0.0838 -0.0933
  122DOPS   PO4 1419   7.325   6.917  16.018  0.1637  0.1543 -0.0410
  122DOPS   GL1 1420   7.174   6.869  15.644 -0.4767  0.1950 -0.1008
  122DOPS   GL2 1421   7.186   6.672  15.468  0.1828 -0.0846 -0.0208
  122DOPS   C1A 1422   7.022   7.072  15.242  0.0458 -0.0768  0.3332
  122DOPS   D2A 1423   6.951   7.364  14.893  0.3159  0.3399 -0.1143
  122DOPS   C3A 1424   7.210   7.630  14.606 -0.1772  0.4659 -0.1010
  122DOPS   C4A 1425   7.471   7.923  14.379  0.3107 -0.0592 -0.1739
  122DOPS   C1B 1426   7.060   6.397  15.150  0.0092 -0.1061 -0.2108
  122DOPS   D2B 1427   7.132   6.323  14.712  0.0461 -0.0261 -0.3323
  122DOPS   C3B 1428   7.008   6.556  14.328  0.1191 -0.0676 -0.0496
  122DOPS   C4B 1429   6.542   6.690  14.182 -0.1245 -0.0710 -0.2319
  123POSM   NC3 1430  10.938   4.660  15.451  0.2997  0.3255  0.1375
  123POSM   PO4 1431  10.709   4.337  15.506  0.1037 -0.0687  0.2495
  123POSM   AM1 1432  10.483   4.313  15.260 -0.1690  0.3940 -0.2417
  123POSM   AM2 1433  10.404   4.106  15.060 -0.2624 -0.3141  0.0937
  123POSM   T1A 1434  10.029   4.475  15.098 -0.0362 -0.2127  0.1819
  123POSM   C2A 1435   9.927   4.526  14.645 -0.1345  0.0248  0.0529
  123POSM   C3A 1436   9.495   4.610  14.460  0.1799 -0.4378 -0.2395
  123POSM   C1B 1437  10.373   4.290  14.759 -0.0428 -0.2079 -0.2486
  123POSM   D2B 1438  10.668   4.398  14.425  0.3840 -0.3130 -0.0954
  123POSM   C3B 1439  10.652   4.537  13.956  0.0989  0.2052  0.1083
  123POSM   C4B 1440  10.544   4.450  13.490  0.4020 -0.1276 -0.0895
  124POSM   NC3 1441   5.767   3.421  15.499 -0.1405  0.4682 -0.0887
  124POSM   PO4 1442   5.897   3.017  15.553 -0.4159 -0.2829  0.0167
  124POSM   AM1 1443   5.704   2.951  15.280  0.4437 -0.4087 -0.5601
  124POSM   AM2 1444   5.419   3.059  15.234 -0.4529  0.2778  0.3172
  124POSM   T1A 1445   5.802   2.853  14.791  0.1020 -0.3432 -0.1113
  124POSM   C2A 1446   5.755   2.926  14.351 -0.1792 -0.0786 -0.2869
  124POSM   C3A 1447   5.637   3.173  14.054 -0.1066  0.1437  0.1561
  124POSM   C1B 1448   5.266   3.022  14.909  0.0244  0.2845  0.0115
  124POSM   D2B 1449   5.266   3.043  14.449 -0.0175 -0.0130 -0.0943
  124POSM   C3B 1450   4.952   2.946  14.158  0.1343 -0.2123  0.0869
  124POSM   C4B 1451   4.636   2.890  13.808 -0.0020  0.0808  0.4257
  125POSM   NC3 1452   1.897   7.590  16.302  0.0565  0.1040  0.0498
  125POSM   PO4 1453   2.223   7.688  16.452  0.3924 -0.1299  0.2021
  125POSM   AM1 1454   2.163   7.940  16.223 -0.1362 -0.0342  0.0307
  125POSM   AM2 1455   2.097   8.215  16.271  0.0807  0.0080  0.0053
  125POSM   T1A 1456   1.929   8.047  15.755  0.2238 -0.0287 -0.1065
  125POSM   C2A 1457   1.569   7.994  15.472  0.1473  0.3073 -0.1805
  125POSM   C3A 1458   1.196   7.994  15.141  0.3602  0.0984 -0.0202
  125POSM   C1B 1459   2.339   8.399  16.096  0.3362 -0.0627 -0.4230
  125POSM   D2B 1460   2.552   8.701  15.757  0.0771  0.2963 -0.1569
  125POSM   C3B 1461   2.882   8.970  15.837 -0.2404  0.1497 -0.0768
  125POSM   C4B 1462   2.984   9.453  15.883 -0.0697  0.1375 -0.2175
  126DOPE   NH3 1463  11.326   8.661  15.583  0.1963 -0.2306 -0.1892
  126DOPE   PO4 1464  11.500   8.384  15.580 -0.1774 -0.0910 -0.2279
  126DOPE   GL1 1465  11.264   8.390  15.223 -0.0356 -0.0586 -0.2223
  126DOPE   GL2 1466  11.469   8.609  15.100 -0.2886  0.0089 -0.2079
  126DOPE   C1A 1467  11.010   8.500  14.831 -0.1228  0.0096 -0.0002
  126DOPE   D2A 1468  10.981   8.660  14.337 -0.2022 -0.1680  0.1964
  126DOPE   C3A 1469  11.079   8.539  13.854  0.2425  0.1686  0.0823
  126DOPE   C4A 1470  10.824   8.746  13.508 -0.0141  0.0735  0.2585
  126DOPE   C1B 1471  11.493   8.662  14.627 -0.2508 -0.2188 -0.0440
  126DOPE   D2B 1472  11.637   8.850  14.237  0.0379 -0.1323  0.1511
  126DOPE   C3B 1473  11.541   8.780  13.791  0.1424  0.0293 -0.0739
  126DOPE   C4B 1474  11.294   8.664  13.365  0.0603 -0.0303 -0.0927
  127DOPE   NH3 1475   0.888   7.264  16.223  0.2238 -0.2792  0.2239
  127DOPE   PO4 1476   1.190   7.084  16.266 -0.0080  0.0127  0.0507
  127DOPE   GL1 1477   1.304   7.443  15.968  0.0112  0.0286  0.1876
  127DOPE   GL2 1478   1.609   7.400  15.918  0.2512 -0.1801  0.0485
  127DOPE   C1A 1479   1.179   7.586  15.553 -0.0107 -0.2330 -0.1502
  127DOPE   D2A 1480   1.009   7.546  15.086  0.1104  0.0320  0.1960
  127DOPE   C3A 1481   0.565   7.405  15.048  0.4412  0.1571 -0.0668
  127DOPE   C4A 1482   0.141   7.446  15.225  0.0723  0.0078 -0.2590
  127DOPE   C1B 1483   1.472   7.128  15.670 -0.0552 -0.1009 -0.1549
  127DOPE   D2B 1484   1.242   6.725  15.507 -0.0678 -0.1854 -0.1372
  127DOPE   C3B 1485   1.201   6.713  15.052  0.2618  0.0263  0.0850
  127DOPE   C4B 1486   1.129   6.719  14.560 -0.1776 -0.0991 -0.3550
  128DOPS   CNO 1487  10.425   0.501  14.881  0.0981  0.0082 -0.0559
  128DOPS   PO4 1488  10.461   0.334  14.524  0.0840 -0.0207 -0.1856
  128DOPS   GL1 1489  10.374   0.220  14.180 -0.1141 -0.6370 -0.3258
  128DOPS   GL2 1490  10.281  -0.045  14.173 -0.1112  0.1820  0.1462
  128DOPS   C1A 1491  10.628   0.055  13.810 -0.1155  0.0829  0.1070
  128DOPS   D2A 1492  10.922  -0.339  13.700  0.3813 -0.3102  0.2344
  128DOPS   C3A 1493  10.901  -0.798  13.768  0.0815  0.3375 -0.0094
  128DOPS   C4A 1494  10.943  -1.226  13.762  0.0744 -0.2759 -0.3947
  128DOPS   C1B 1495  10.179  -0.118  13.715 -0.0522  0.0244  0.2483
  128DOPS   D2B 1496  10.269   0.015  13.252 -0.0532  0.1752  0.3311
  128DOPS   C3B 1497  10.709  -0.017  13.080 -0.1535  0.1200  0.0634
  128DOPS   C4B 1498  11.052   0.236  13.009 -0.2727 -0.0057  0.1685
  129DOPS   CNO 1499   0.762   4.465  16.013  0.0597 -0.1723  0.2256
  129DOPS   PO4 1500   0.525   4.615  16.249  0.0172 -0.0654 -0.0749
  129DOPS   GL1 1501   0.304   4.643  15.895  0.5696  0.2075  0.3223
  129DOPS   GL2 1502   0.044   4.718  15.770  0.1336  0.2618  0.0665
  129DOPS   C1A 1503   0.567   4.513  15.529 -0.2016  0.0653  0.0988
  129DOPS   D2A 1504   0.515   4.237  15.183 -0.1063 -0.1345  0.0101
  129DOPS   C3A 1505   0.441   3.822  15.231  0.1450  0.1799 -0.0952
  129DOPS   C4A 1506   0.351   3.336  15.179 -0.3127 -0.0230  0.0201
  129DOPS   C1B 1507   0.113   4.589  15.345 -0.1348  0.2013 -0.0799
  129DOPS   D2B 1508   0.061   4.552  14.834  0.1698  0.2117 -0.1013
  129DOPS   C3B 1509   0.062   4.978  14.557  0.0959 -0.1426  0.4398
  129DOPS   C4B 1510   0.320   5.134  14.223 -0.0382 -0.1910 -0.0771
  130DOPE   NH3 1511   4.551  10.034  16.895 -0.0326 -0.1821 -0.4734
  130DOPE   PO4 1512   4.372   9.917  16.693  0.1716  0.3928 -0.2051
  130DOPE   GL1 1513   4.340   9.700  16.418  0.2287  0.0569 -0.1672
  130DOPE   GL2 1514   4.036   9.819  16.322 -0.0945 -0.0256  0.0199
  130DOPE   C1A 1515   4.209   9.509  16.032 -0.2997 -0.2807  0.0271
  130DOPE   D2A 1516   4.098   9.362  15.629  0.0240 -0.5122  0.0062
  130DOPE   C3A 1517   4.199   8.936  15.463 -0.0983 -0.1441 -0.2441
  130DOPE   C4A 1518   4.328   8.671  15.099  0.3612  0.0377  0.1118
  130DOPE   C1B 1519   3.864   9.860  15.915 -0.2057 -0.3470  0.0203
  130DOPE   D2B 1520   3.622   9.658  15.534 -0.2290 -0.0509 -0.3318
  130DOPE   C3B 1521   3.778   9.308  15.271  0.2501  0.0447 -0.1780
  130DOPE   C4B 1522   3.816   8.898  15.096  0.0147 -0.0577 -0.1650
  131DOPC   NC3 1523   4.417   9.311  16.659 -0.0611  0.0532 -0.1100
  131DOPC   PO4 1524   4.724   9.557  16.633  0.0681 -0.4652 -0.0493
  131DOPC   GL1 1525   4.713   9.940  16.352  0.3812  0.3639  0.3514
  131DOPC   GL2 1526   4.835  10.138  16.310 -0.2999  0.0634  0.2325
  131DOPC   C1A 1527   4.370  10.077  16.060  0.0438 -0.1532 -0.1872
  131DOPC   D2A 1528   4.116  10.325  15.828 -0.2870 -0.1487 -0.2718
  131DOPC   C3A 1529   4.120  10.768  15.792 -0.1206  0.0373  0.4125
  131DOPC   C4A 1530   3.797  11.125  15.885  0.2926  0.1827  0.2156
  131DOPC   C1B 1531   4.887  10.157  15.890 -0.2624  0.0950 -0.2081
  131DOPC   D2B 1532   4.927  10.171  15.419 -0.0475 -0.0255 -0.1332
  131DOPC   C3B 1533   4.675  10.397  15.108  0.1168 -0.1346  0.0843
  131DOPC   C4B 1534   4.553  10.413  14.649 -0.2012 -0.1814  0.0073
  132DOPE   NH3 1535   6.057   9.062  16.457  0.0505  0.2059  0.0113
  132DOPE   PO4 1536   6.365   9.091  16.398  0.0226 -0.2169 -0.2567
  132DOPE   GL1 1537   6.217   9.102  16.063 -0.2413 -0.2363  0.2619
  132DOPE   GL2 1538   5.926   9.129  15.967  0.3278  0.1340  0.0214
  132DOPE   C1A 1539   6.349   8.952  15.629 -0.1337 -0.0344  0.0911
  132DOPE   D2A 1540   6.426   8.867  15.220 -0.0618 -0.2983 -0.0226
  132DOPE   C3A 1541   6.854   8.799  15.209 -0.0545 -0.0800  0.2525
  132DOPE   C4A 1542   7.252   8.962  15.384 -0.0015  0.2300 -0.1260
  132DOPE   C1B 1543   5.763   8.695  15.962 -0.0687 -0.1867 -0.0752
  132DOPE   D2B 1544   5.562   8.474  15.568 -0.0144  0.0479  0.0850
  132DOPE   C3B 1545   5.895   8.482  15.144 -0.0277  0.3172  0.0502
  132DOPE   C4B 1546   6.338   8.350  15.156  0.0050 -0.0987  0.1098
  133DOPC   NC3 1547   0.000   3.293  16.497 -0.0414  0.0752 -0.1095
  133DOPC   PO4 1548  -0.166   3.532  16.280  0.0625 -0.2464  0.5456
  133DOPC   GL1 1549  -0.452   3.484  15.884 -0.0385 -0.1391 -0.2738
  133DOPC   GL2 1550  -0.229   3.533  15.705 -0.3751  0.0192  0.0035
  133DOPC   C1A 1551  -0.684   3.570  15.485 -0.0964  0.2551  0.1304
  133DOPC   D2A 1552  -0.699   3.495  15.041 -0.2441  0.0338 -0.1270
  133DOPC   C3A 1553  -0.489   3.173  14.844  0.0548 -0.0993  0.0457
  133DOPC   C4A 1554  -0.180   2.867  14.673 -0.0959  0.1239  0.0398
  133DOPC   C1B 1555   0.193   3.653  15.568 -0.0314  0.2898  0.0889
  133DOPC   D2B 1556   0.607   3.449  15.588 -0.0478  0.3394 -0.1497
  133DOPC   C3B 1557   0.878   3.417  15.264  0.1263  0.1925 -0.2630
  133DOPC   C4B 1558   1.086   3.334  14.872 -0.1715 -0.0616  0.2083
  134DOPE   NH3 1559  10.230   4.015  15.868 -0.4258 -0.3555 -0.2498
  134DOPE   PO4 1560   9.919   4.088  15.784 -0.1578 -0.2651 -0.0327
  134DOPE   GL1 1561   9.837   4.223  15.419 -0.1472  0.0403 -0.1457
  134DOPE   GL2 1562   9.607   4.370  15.362 -0.1035  0.0853  0.1901
  134DOPE   C1A 1563   9.903   3.957  15.032 -0.0084  0.1247 -0.1421
  134DOPE   D2A 1564  10.055   3.942  14.550 -0.2091  0.0210  0.0261
  134DOPE   C3A 1565  10.136   4.267  14.203  0.0398  0.0803 -0.1817
  134DOPE   C4A 1566  10.152   4.402  13.788  0.0139  0.2761  0.1395
  134DOPE   C1B 1567   9.541   4.268  14.883  0.0348 -0.6026 -0.4633
  134DOPE   D2B 1568   9.669   4.111  14.412  0.0362  0.1534 -0.2963
  134DOPE   C3B 1569   9.687   4.315  13.969  0.5197 -0.0037 -0.0575
  134DOPE   C4B 1570   9.708   4.544  13.616  0.1904 -0.2077  0.3244
  135DOPE   NH3 1571   9.861   8.108  15.948 -0.1042  0.1869 -0.0951
  135DOPE   PO4 1572   9.844   8.163  15.652 -0.1287 -0.0517  0.1647
  135DOPE   GL1 1573   9.860   8.156  15.268 -0.1030  0.2117 -0.1399
  135DOPE   GL2 1574   9.641   7.999  15.182  0.2459 -0.1814 -0.0313
  135DOPE   C1A 1575   9.955   8.034  14.804 -0.2947 -0.1301  0.1072
  135DOPE   D2A 1576   9.903   7.750  14.431 -0.4584  0.2469  0.1483
  135DOPE   C3A 1577  10.087   7.678  13.996  0.0499 -0.1767 -0.1494
  135DOPE   C4A 1578  10.449   7.502  13.796 -0.1292 -0.0022 -0.0256
  135DOPE   C1B 1579   9.595   7.672  14.835  0.0732  0.1233 -0.3678
  135DOPE   D2B 1580   9.310   7.320  14.694 -0.2887  0.0504  0.2682
  135DOPE   C3B 1581   9.093   7.101  14.267 -0.3432 -0.0708  0.1625
  135DOPE   C4B 1582   9.279   6.881  13.917 -0.0178  0.0667 -0.0553
  136DOPC   NC3 1583   3.039  34.264  14.982  0.1296  0.0567 -0.0068
  136DOPC   PO4 1584   2.887  34.575  15.179  0.0949 -0.0449 -0.2732
  136DOPC   GL1 1585   2.548  34.616  14.961  0.0833 -0.2618 -0.0943
  136DOPC   GL2 1586   2.586  34.539  14.708 -0.1649  0.1568 -0.0633
  136DOPC   C1A 1587   2.351  34.984  14.676  0.0083 -0.1931 -0.0819
  136DOPC   D2A 1588   2.522  35.273  14.356  0.3491 -0.0463 -0.1303
  136DOPC   C3A 1589   2.446  35.729  14.451 -0.0690  0.1709 -0.3787
  136DOPC   C4A 1590   2.397  36.005  14.863  0.1426  0.0976  0.0349
  136DOPC   C1B 1591   2.334  34.626  14.310  0.1397  0.2992 -0.1230
  136DOPC   D2B 1592   1.889  34.519  14.134 -0.2852 -0.1787  0.0404
  136DOPC   C3B 1593   1.702  34.196  13.880  0.1318 -0.0137 -0.1276
  136DOPC   C4B 1594   1.623  33.842  13.614  0.0132 -0.1389 -0.1962
  137DOPC   NC3 1595  11.008   3.127  15.113 -0.0001 -0.0591 -0.1232
  137DOPC   PO4 1596  10.698   3.114  14.897  0.0413 -0.0188 -0.3666
  137DOPC   GL1 1597  10.740   3.417  14.552  0.1326  0.1139 -0.2510
  137DOPC   GL2 1598  10.485   3.447  14.442  0.1156 -0.3238  0.1931
  137DOPC   C1A 1599  10.990   3.765  14.277 -0.0906 -0.2266  0.0301
  137DOPC   D2A 1600  11.032   4.192  14.178 -0.3061  0.0201 -0.0122
  137DOPC   C3A 1601  11.018   4.300  13.762 -0.1662  0.0417  0.0552
  137DOPC   C4A 1602  10.930   4.069  13.435  0.0489 -0.2982  0.1505
  137DOPC   C1B 1603  10.655   3.496  13.976 -0.4982  0.0549 -0.3601
  137DOPC   D2B 1604  10.564   3.704  13.544 -0.2839 -0.2893 -0.2365
  137DOPC   C3B 1605  10.222   4.009  13.540  0.0702  0.3973 -0.0675
  137DOPC   C4B 1606  10.067   4.356  13.301  0.0294 -0.2225  0.1214
  138DOPE   NH3 1607   7.579   1.752  15.473 -0.0179  0.2918 -0.1283
  138DOPE   PO4 1608   7.472   2.046  15.263  0.1048  0.0262 -0.1148
  138DOPE   GL1 1609   7.288   2.038  14.873  0.1708  0.1441  0.2522
  138DOPE   GL2 1610   7.307   1.847  14.656  0.1539  0.3901 -0.0004
  138DOPE   C1A 1611   6.851   2.056  14.655  0.2433  0.4305 -0.0946
  138DOPE   D2A 1612   6.494   2.067  14.355 -0.1823  0.0290  0.1759
  138DOPE   C3A 1613   6.322   1.830  13.969 -0.0113 -0.0873 -0.0121
  138DOPE   C4A 1614   6.199   1.845  13.467 -0.1087  0.3705 -0.0628
  138DOPE   C1B 1615   7.150   2.211  14.328  0.2882  0.0579  0.1226
  138DOPE   D2B 1616   6.844   2.238  13.987  0.0440  0.0756 -0.0089
  138DOPE   C3B 1617   6.866   2.155  13.556 -0.0213 -0.0764  0.0187
  138DOPE   C4B 1618   6.865   1.982  13.131 -0.5813  0.0289 -0.2876
  139DOPE   NH3 1619  11.170   7.064  15.839 -0.2590  0.2264 -0.0987
  139DOPE   PO4 1620  11.324   6.779  15.903 -0.0176 -0.0670 -0.1765
  139DOPE   GL1 1621  11.197   6.631  15.540 -0.2257 -0.2689  0.1068
  139DOPE   GL2 1622  11.260   6.829  15.343 -0.2669 -0.0318  0.0017
  139DOPE   C1A 1623  10.966   6.378  15.250 -0.0606  0.0118  0.3538
  139DOPE   D2A 1624  11.046   5.988  14.964 -0.2122 -0.2109  0.0060
  139DOPE   C3A 1625  10.818   5.771  14.631  0.2271  0.0953  0.0705
  139DOPE   C4A 1626  10.768   5.663  14.199  0.2584 -0.0615  0.1240
  139DOPE   C1B 1627  11.133   6.751  14.895  0.2284  0.1515  0.1256
  139DOPE   D2B 1628  10.828   6.781  14.524  0.0526  0.3041  0.1385
  139DOPE   C3B 1629  11.029   6.663  14.106  0.3173 -0.0395 -0.1063
  139DOPE   C4B 1630  11.345   6.377  13.918 -0.0281  0.0966 -0.4013
  140DOPS   CNO 1631   2.432   5.798  16.264 -0.0725  0.0540  0.0833
  140DOPS   PO4 1632   2.393   5.544  16.018 -0.2491  0.0649 -0.2003
  140DOPS   GL1 1633   2.575   5.652  15.717 -0.1224  0.1767 -0.0466
  140DOPS   GL2 1634   2.676   5.369  15.628 -0.0903 -0.1203  0.4083
  140DOPS   C1A 1635   2.339   5.617  15.262 -0.0322  0.2363  0.1668
  140DOPS   D2A 1636   2.364   5.471  14.835  0.0438  0.0740  0.2299
  140DOPS   C3A 1637   2.049   5.479  14.544 -0.1765 -0.1724 -0.0064
  140DOPS   C4A 1638   1.724   5.576  14.291 -0.0273  0.1282 -0.5478
  140DOPS   C1B 1639   2.428   5.137  15.305 -0.0865  0.3795  0.0377
  140DOPS   D2B 1640   2.177   4.888  15.043  0.2393  0.0207  0.1454
  140DOPS   C3B 1641   1.775   5.047  14.858 -0.1263 -0.1247 -0.2349
  140DOPS   C4B 1642   1.507   5.353  14.706  0.1830 -0.1191 -0.1289
  141POSM   NC3 1643   4.522  10.721  16.788 -0.0371  0.2221 -0.0071
  141POSM   PO4 1644   4.808  10.436  16.724  0.1285  0.1471 -0.0606
  141POSM   AM1 1645   4.835  10.636  16.450  0.1838 -0.2937  0.1811
  141POSM   AM2 1646   4.970  10.590  16.172 -0.0379  0.1848  0.1346
  141POSM   T1A 1647   4.750  11.106  16.247  0.0893  0.1353 -0.0974
  141POSM   C2A 1648   4.663  11.552  16.331  0.2526 -0.1768  0.0591
  141POSM   C3A 1649   4.346  11.815  16.399  0.2478  0.1370 -0.1362
  141POSM   C1B 1650   5.027  10.763  15.871  0.2573 -0.1604 -0.1219
  141POSM   D2B 1651   4.956  10.782  15.417 -0.1898  0.2110 -0.0400
  141POSM   C3B 1652   4.844  11.198  15.194 -0.0840  0.1595 -0.0541
  141POSM   C4B 1653   4.496  11.517  15.124  0.1748  0.1296  0.0748
  142DOPC   NC3 1654  34.467   6.674  16.523  0.1702  0.4574  0.0462
  142DOPC   PO4 1655  34.582   6.898  16.831 -0.0607 -0.0270 -0.0722
  142DOPC   GL1 1656  34.743   7.099  16.369 -0.0823 -0.0853 -0.1363
  142DOPC   GL2 1657  35.054   7.153  16.326  0.0967  0.0270  0.0136
  142DOPC   C1A 1658  34.769   6.805  16.045 -0.0098  0.0820  0.0665
  142DOPC   D2A 1659  34.970   6.634  15.696  0.3449  0.0141 -0.1091
  142DOPC   C3A 1660  34.939   6.505  15.306  0.0060 -0.0910 -0.1335
  142DOPC   C4A 1661  34.616   6.476  14.948 -0.0181 -0.1669 -0.4085
  142DOPC   C1B 1662  35.169   7.041  15.891  0.0261 -0.1037  0.1536
  142DOPC   D2B 1663  35.085   7.091  15.457  0.0196  0.3611 -0.0313
  142DOPC   C3B 1664  35.105   6.880  15.039 -0.0860  0.3061 -0.1015
  142DOPC   C4B 1665  35.031   6.660  14.669  0.1853 -0.1256 -0.1333
  143DOPC   NC3 1666   4.771   3.861  16.114  0.4383  0.1146  0.1622
  143DOPC   PO4 1667   4.617   3.728  15.792  0.0684 -0.2922  0.0286
  143DOPC   GL1 1668   4.495   3.754  15.471 -0.2383  0.1226  0.3206
  143DOPC   GL2 1669   4.498   3.558  15.302 -0.0589  0.0128 -0.3842
  143DOPC   C1A 1670   4.505   4.043  15.086 -0.3910  0.1254  0.1853
  143DOPC   D2A 1671   4.362   4.209  14.651 -0.0938  0.1793  0.0719
  143DOPC   C3A 1672   4.569   4.425  14.307  0.0053 -0.0741  0.3898
  143DOPC   C4A 1673   4.799   4.722  14.005  0.1561  0.1188 -0.0426
  143DOPC   C1B 1674   4.557   3.518  14.869 -0.1562  0.1311 -0.1457
  143DOPC   D2B 1675   4.718   3.718  14.517  0.0073  0.0920  0.0092
  143DOPC   C3B 1676   4.846   3.895  14.106  0.3281 -0.0035  0.1845
  143DOPC   C4B 1677   4.876   4.256  13.835 -0.0769  0.2336  0.0836
  144DOPS   CNO 1678   2.955   0.566  15.484 -0.1773  0.1805  0.1355
  144DOPS   PO4 1679   2.920   0.952  15.548 -0.3607  0.1839  0.2432
  144DOPS   GL1 1680   3.010   0.861  15.092  0.1525 -0.0814  0.0592
  144DOPS   GL2 1681   3.058   1.149  14.996  0.0184 -0.2549  0.0747
  144DOPS   C1A 1682   2.839   0.808  14.676  0.2184  0.0182  0.0459
  144DOPS   D2A 1683   2.884   0.891  14.221 -0.3393  0.1350  0.1770
  144DOPS   C3A 1684   3.128   0.520  14.151 -0.0350 -0.0236 -0.0605
  144DOPS   C4A 1685   3.290   0.094  14.360  0.1807  0.0710  0.3511
  144DOPS   C1B 1686   2.888   1.307  14.543 -0.3470 -0.0680 -0.2428
  144DOPS   D2B 1687   2.776   1.345  14.054  0.1941 -0.1079  0.1570
  144DOPS   C3B 1688   2.935   1.755  13.896 -0.0577  0.2997  0.1621
  144DOPS   C4B 1689   3.111   2.078  13.515 -0.2760  0.1180 -0.1421
  145DOPC   NC3 1690  10.269  10.933  15.314 -0.4215 -0.2298  0.0072
  145DOPC   PO4 1691  10.347  11.304  15.417  0.2258 -0.0565  0.2032
  145DOPC   GL1 1692  10.151  11.329  15.082 -0.0958  0.1191  0.2593
  145DOPC   GL2 1693   9.885  11.368  15.113  0.0215  0.2220  0.2189
  145DOPC   C1A 1694  10.220  11.483  14.666 -0.0047  0.1027 -0.0287
  145DOPC   D2A 1695  10.153  11.899  14.434 -0.0060 -0.0514 -0.0411
  145DOPC   C3A 1696  10.182  11.907  13.935 -0.1045 -0.0592  0.0384
  145DOPC   C4A 1697  10.410  11.701  13.559 -0.4155  0.1594  0.0800
  145DOPC   C1B 1698   9.794  11.269  14.677  0.1049 -0.0030  0.1739
  145DOPC   D2B 1699   9.886  11.512  14.238  0.0347 -0.0747 -0.0654
  145DOPC   C3B 1700   9.652  11.626  13.889 -0.1749 -0.1210 -0.2527
  145DOPC   C4B 1701   9.353  11.761  13.526 -0.0314  0.0469 -0.3232
  146POSM   NC3 1702   9.583   3.865  15.458 -0.0143  0.1006 -0.0721
  146POSM   PO4 1703   9.360   3.684  15.637  0.0376 -0.5766  0.0367
  146POSM   AM1 1704   9.232   3.571  15.357  0.2167  0.0074  0.0604
  146POSM   AM2 1705   8.958   3.577  15.250 -0.2030  0.2810  0.0569
  146POSM   T1A 1706   9.180   3.343  14.891  0.2020 -0.1846  0.1295
  146POSM   C2A 1707   9.294   3.280  14.421 -0.0859  0.1873 -0.4167
  146POSM   C3A 1708   8.904   3.227  14.075 -0.2774  0.2199 -0.0248
  146POSM   C1B 1709   8.869   3.738  14.982  0.2156 -0.1599  0.3514
  146POSM   D2B 1710   8.934   4.145  14.745  0.2744 -0.0874  0.1556
  146POSM   C3B 1711   8.949   4.537  14.922  0.2131  0.1278 -0.5932
  146POSM   C4B 1712   9.372   4.738  14.956 -0.0851  0.1603 -0.3749
  147DOPC   NC3 1713   6.283   1.263  15.149 -0.0822  0.0359  0.3372
  147DOPC   PO4 1714   6.005   0.968  15.237  0.0828  0.2373  0.1656
  147DOPC   GL1 1715   5.844   0.981  14.913  0.2962 -0.2437  0.0508
  147DOPC   GL2 1716   5.873   1.301  14.850 -0.0762 -0.2593  0.0430
  147DOPC   C1A 1717   5.676   0.859  14.522  0.2996 -0.3167  0.0361
  147DOPC   D2A 1718   5.438   0.579  14.233 -0.0495  0.1100 -0.0025
  147DOPC   C3A 1719   5.544   0.485  13.811 -0.0327  0.0417  0.0620
  147DOPC   C4A 1720   5.522   0.378  13.356 -0.0004 -0.3441 -0.1223
  147DOPC   C1B 1721   5.898   1.556  14.494  0.1224  0.0902 -0.2302
  147DOPC   D2B 1722   5.966   1.469  14.071  0.0049  0.0408  0.2266
  147DOPC   C3B 1723   5.853   0.990  14.047 -0.3306  0.1924  0.1088
  147DOPC   C4B 1724   5.974   0.569  14.260 -0.0581 -0.0316 -0.2463
  148DOPC   NC3 1725   9.652  34.362  14.469  0.1858  0.1184 -0.1186
  148DOPC   PO4 1726   9.269  34.431  14.561 -0.0364  0.2119 -0.0905
  148DOPC   GL1 1727   9.232  34.389  14.168  0.2231  0.0224  0.0378
  148DOPC   GL2 1728   8.954  34.333  14.085  0.0489  0.2051 -0.2474
  148DOPC   C1A 1729   9.275  34.638  13.791  0.0683 -0.1366  0.3511
  148DOPC   D2A 1730   9.340  34.692  13.349 -0.2221 -0.2240  0.0293
  148DOPC   C3A 1731   9.467  34.987  13.066  0.1327 -0.0212  0.1118
  148DOPC   C4A 1732   9.487  35.452  12.980  0.3976  0.2283 -0.2085
  148DOPC   C1B 1733   8.790  34.682  13.813 -0.0704  0.0965  0.2176
  148DOPC   D2B 1734   8.477  34.881  13.513  0.0006 -0.2241 -0.1752
  148DOPC   C3B 1735   8.356  34.447  13.278  0.0570 -0.2469  0.0002
  148DOPC   C4B 1736   8.331  34.322  12.792  0.2142 -0.0738 -0.3897
  149DOPE   NH3 1737   6.662  34.143  14.837 -0.3309 -0.3216 -0.1599
  149DOPE   PO4 1738   6.902  33.992  14.815 -0.0226 -0.0721  0.3669
  149DOPE   GL1 1739   6.737  33.991  14.436 -0.1938 -0.0193 -0.1800
  149DOPE   GL2 1740   6.881  34.004  14.187 -0.3538  0.0114  0.1389
  149DOPE   C1A 1741   6.588  34.389  14.189  0.2860 -0.1321  0.0320
  149DOPE   D2A 1742   6.133  34.498  13.982 -0.2073  0.0260  0.1755
  149DOPE   C3A 1743   6.158  34.340  13.574 -0.0167  0.0162  0.3236
  149DOPE   C4A 1744   5.850  34.246  13.198 -0.1671 -0.2885  0.0559
  149DOPE   C1B 1745   6.567  34.089  13.816 -0.3258  0.0412  0.0204
  149DOPE   D2B 1746   6.690  34.461  13.490  0.0699  0.0620 -0.1822
  149DOPE   C3B 1747   7.027  34.689  13.327  0.1545 -0.5575 -0.0154
  149DOPE   C4B 1748   7.485  34.492  13.172 -0.1429 -0.1677 -0.2416
  150POSM   NC3 1749   9.941   0.387  14.796 -0.0325 -0.1557 -0.2266
  150POSM   PO4 1750   9.945   0.274  14.435  0.1618  0.0305  0.2278
  150POSM   AM1 1751   9.988   0.499  14.256 -0.2532 -0.0158 -0.3500
  150POSM   AM2 1752  10.148   0.754  14.260 -0.1192 -0.2501 -0.2124
  150POSM   T1A 1753  10.164   0.481  13.761  0.1333  0.0315 -0.0273
  150POSM   C2A 1754  10.353   0.478  13.332 -0.3808  0.1270 -0.1077
  150POSM   C3A 1755  10.474   0.544  12.857 -0.1581 -0.0639 -0.0676
  150POSM   C1B 1756  10.240   0.906  13.933  0.0361  0.4259  0.1840
  150POSM   D2B 1757  10.294   1.005  13.491  0.0244  0.0505  0.1791
  150POSM   C3B 1758   9.953   1.274  13.359  0.1722  0.0637  0.0189
  150POSM   C4B 1759   9.607   1.594  13.443 -0.2247 -0.1262  0.0931
  151POSM   NC3 1760   1.860   6.962  16.763  0.0603  0.1859  0.2690
  151POSM   PO4 1761   1.998   7.324  16.723  0.1266  0.0589 -0.0367
  151POSM   AM1 1762   2.113   7.235  16.413  0.4873  0.0900 -0.4354
  151POSM   AM2 1763   2.399   7.145  16.317 -0.0628 -0.0758  0.0284
  151POSM   T1A 1764   2.055   7.159  15.911  0.1720 -0.2613  0.1852
  151POSM   C2A 1765   1.885   7.294  15.510  0.0741  0.0120  0.1196
  151POSM   C3A 1766   2.092   7.323  15.060  0.0407 -0.1291 -0.1967
  151POSM   C1B 1767   2.518   7.009  16.019  0.0417  0.2908 -0.2441
  151POSM   D2B 1768   2.925   7.092  15.767  0.3823  0.4324  0.0369
  151POSM   C3B 1769   2.882   6.905  15.353  0.2091 -0.1318  0.0157
  151POSM   C4B 1770   2.866   6.836  14.870 -0.0882  0.0567  0.0722
  152DOPE   NH3 1771   1.878   1.611  15.857  0.0368 -0.0262 -0.0135
  152DOPE   PO4 1772   1.600   1.531  15.997  0.0863 -0.0099 -0.1379
  152DOPE   GL1 1773   1.488   1.676  15.588  0.1111 -0.0985  0.0888
  152DOPE   GL2 1774   1.363   1.423  15.493 -0.0974 -0.0443 -0.0698
  152DOPE   C1A 1775   1.452   1.838  15.134 -0.1062 -0.1827  0.1609
  152DOPE   D2A 1776   1.591   1.918  14.724 -0.0570 -0.0248  0.1661
  152DOPE   C3A 1777   1.259   1.974  14.475  0.1226 -0.1781 -0.0277
  152DOPE   C4A 1778   1.073   2.193  14.126  0.0111  0.0986  0.2050
  152DOPE   C1B 1779   1.272   1.325  15.076  0.1114  0.3629 -0.1789
  152DOPE   D2B 1780   1.353   1.496  14.604  0.0547  0.1778 -0.1476
  152DOPE   C3B 1781   0.899   1.498  14.376 -0.0842  0.1443 -0.2562
  152DOPE   C4B 1782   0.515   1.412  14.099  0.0316 -0.3054  0.3201
  153POSM   NC3 1783   0.792   2.237  16.019  0.0445 -0.3027  0.2848
  153POSM   PO4 1784   1.132   2.103  16.126  0.1674  0.1725 -0.0577
  153POSM   AM1 1785   1.201   2.080  15.785  0.0806 -0.0731  0.1159
  153POSM   AM2 1786   1.382   2.162  15.587  0.0359  0.1519 -0.1147
  153POSM   T1A 1787   0.957   1.828  15.408 -0.3317  0.1672 -0.0254
  153POSM   C2A 1788   0.880   1.672  15.026 -0.1599 -0.2098  0.2275
  153POSM   C3A 1789   0.838   1.214  14.862  0.1110  0.1722 -0.0653
  153POSM   C1B 1790   1.418   2.345  15.292 -0.2845 -0.2666  0.0210
  153POSM   D2B 1791   1.426   2.577  14.882  0.0368  0.0637  0.5060
  153POSM   C3B 1792   0.976   2.630  14.663  0.1658 -0.2637  0.0847
  153POSM   C4B 1793   0.841   2.733  14.249 -0.1188 -0.1862 -0.2604
  154DOPE   NH3 1794   3.849  10.575  16.784 -0.2484  0.0736 -0.1020
  154DOPE   PO4 1795   4.029  10.835  16.762  0.2973 -0.1219  0.2774
  154DOPE   GL1 1796   4.257  10.861  16.448  0.3090 -0.2506 -0.2675
  154DOPE   GL2 1797   4.020  10.805  16.264 -0.1218 -0.0192 -0.2567
  154DOPE   C1A 1798   4.456  10.638  16.146  0.0292 -0.0241  0.0052
  154DOPE   D2A 1799   4.616  10.541  15.759  0.1916  0.2121 -0.1422
  154DOPE   C3A 1800   4.464  10.223  15.492  0.0402 -0.1887 -0.0740
  154DOPE   C4A 1801   4.314  10.046  15.022  0.2761 -0.2744  0.0365
  154DOPE   C1B 1802   4.229  11.165  16.109 -0.1336  0.0383 -0.1682
  154DOPE   D2B 1803   4.411  11.513  15.857 -0.0605  0.1504 -0.0228
  154DOPE   C3B 1804   4.198  11.705  15.529 -0.0386 -0.1508 -0.0294
  154DOPE   C4B 1805   4.123  12.083  15.386 -0.0379 -0.2095 -0.3206
  155POSM   NC3 1806   0.807   5.633  16.630  0.0960 -0.0344  0.2391
  155POSM   PO4 1807   0.536   5.445  16.322 -0.0776 -0.3765  0.5156
  155POSM   AM1 1808   0.610   5.500  16.001  0.1154  0.0650  0.3739
  155POSM   AM2 1809   0.597   5.285  15.819  0.0676 -0.4028  0.1135
  155POSM   T1A 1810   0.383   5.684  15.576  0.2633  0.3620 -0.0706
  155POSM   C2A 1811   0.124   5.977  15.291  0.5981  0.0396 -0.4937
  155POSM   C3A 1812  -0.266   6.072  15.051  0.0520 -0.1761 -0.0849
  155POSM   C1B 1813   0.330   5.108  15.617 -0.0851 -0.2466 -0.2960
  155POSM   D2B 1814   0.169   5.046  15.164  0.0689 -0.0275 -0.0636
  155POSM   C3B 1815   0.430   5.180  14.821  0.1848 -0.0240 -0.0706
  155POSM   C4B 1816   0.499   5.515  14.512  0.1108  0.2156  0.1029
  156DOPS   CNO 1817  11.611   1.291  14.958  0.0560 -0.0820  0.1019
  156DOPS   PO4 1818  11.792   1.589  14.838  0.2396 -0.0067 -0.0740
  156DOPS   GL1 1819  11.679   1.724  14.497  0.0617 -0.0609  0.0865
  156DOPS   GL2 1820  11.861   1.880  14.267 -0.1967 -0.0148 -0.2804
  156DOPS   C1A 1821  11.476   1.487  14.130 -0.2431 -0.2765  0.1280
  156DOPS   D2A 1822  11.380   1.297  13.757 -0.1577  0.0004 -0.1469
  156DOPS   C3A 1823  11.203   1.612  13.467  0.1484 -0.0233 -0.0361
  156DOPS   C4A 1824  10.828   1.717  13.314  0.0746 -0.2335 -0.0718
  156DOPS   C1B 1825  11.825   1.725  13.842 -0.0061  0.1055  0.0719
  156DOPS   D2B 1826  11.703   1.490  13.437  0.0080  0.0586  0.2880
  156DOPS   C3B 1827  11.822   1.409  13.013 -0.1449  0.0859 -0.0113
  156DOPS   C4B 1828  12.061   1.765  12.794 -0.0167  0.0423 -0.2865
  157DOPC   NC3 1829   6.499  10.354  16.210 -0.0946 -0.0903 -0.1120
  157DOPC   PO4 1830   6.246  10.065  16.202  0.0005 -0.0459 -0.1669
  157DOPC   GL1 1831   6.158  10.106  15.853 -0.0219  0.0874 -0.1439
  157DOPC   GL2 1832   5.914   9.864  15.769  0.0404  0.2622  0.2538
  157DOPC   C1A 1833   5.853  10.342  15.525  0.0457 -0.2137  0.3945
  157DOPC   D2A 1834   5.713  10.664  15.159  0.3980  0.0888  0.1236
  157DOPC   C3A 1835   5.969  10.565  14.808 -0.0140  0.0213 -0.1313
  157DOPC   C4A 1836   5.955  10.133  14.661 -0.1117  0.0835 -0.0344
  157DOPC   C1B 1837   5.754   9.817  15.378 -0.0861  0.0324 -0.1823
  157DOPC   D2B 1838   5.294   9.896  15.199  0.2237  0.2149  0.0381
  157DOPC   C3B 1839   4.982  10.059  14.902 -0.1198 -0.0086 -0.1369
  157DOPC   C4B 1840   4.830  10.022  14.451  0.0407  0.2176  0.0483
  158DOPS   CNO 1841  34.388   9.816  16.779 -0.1630  0.0095 -0.0685
  158DOPS   PO4 1842  34.318  10.161  16.933 -0.1338 -0.2226 -0.2892
  158DOPS   GL1 1843  34.614  10.195  16.641  0.3756 -0.0882  0.3254
  158DOPS   GL2 1844  34.624  10.469  16.689 -0.3691 -0.0957  0.0019
  158DOPS   C1A 1845  34.707  10.299  16.199 -0.0760 -0.0248  0.1357
  158DOPS   D2A 1846  34.981  10.385  15.854  0.1025  0.1210  0.1337
  158DOPS   C3A 1847  35.358  10.552  15.996  0.1822 -0.0203  0.2381
  158DOPS   C4A 1848  35.639  10.863  16.111 -0.1215 -0.0853  0.1639
  158DOPS   C1B 1849  34.513  10.711  16.409 -0.1000  0.1095  0.0971
  158DOPS   D2B 1850  34.385  10.936  15.984 -0.1194  0.2011  0.1387
  158DOPS   C3B 1851  34.344  11.399  16.098  0.0039 -0.0297  0.1424
  158DOPS   C4B 1852  34.178  11.774  16.325  0.0039  0.2147  0.0385
  159DOPE   NH3 1853   9.339   8.665  15.673  0.3157  0.1291  0.0357
  159DOPE   PO4 1854   9.389   8.394  15.824  0.1227 -0.1103 -0.2201
  159DOPE   GL1 1855   9.372   8.246  15.465 -0.3007  0.3251  0.0801
  159DOPE   GL2 1856   9.066   8.304  15.454  0.1642  0.0206 -0.1323
  159DOPE   C1A 1857   9.380   8.440  15.012 -0.1607  0.0874 -0.0327
  159DOPE   D2A 1858   9.771   8.494  14.721  0.1776 -0.1292  0.0239
  159DOPE   C3A 1859  10.049   8.901  14.668  0.4206  0.0025  0.2076
  159DOPE   C4A 1860  10.274   9.201  14.549  0.0078  0.1197 -0.1134
  159DOPE   C1B 1861   8.853   8.552  15.153 -0.1406 -0.1283  0.3098
  159DOPE   D2B 1862   8.433   8.426  14.959  0.2193 -0.0240 -0.0184
  159DOPE   C3B 1863   8.327   8.312  14.553  0.0004  0.0460 -0.1613
  159DOPE   C4B 1864   8.177   8.282  14.121 -0.3079 -0.0455  0.0471
  160DOPC   NC3 1865   1.367   6.665  16.007  0.0170 -0.3572  0.1985
  160DOPC   PO4 1866   1.657   6.571  16.252 -0.3830 -0.1418  0.1056
  160DOPC   GL1 1867   1.837   6.505  15.936  0.1604 -0.3800 -0.1526
  160DOPC   GL2 1868   2.110   6.671  15.881  0.3665 -0.3432 -0.1159
  160DOPC   C1A 1869   1.595   6.295  15.635 -0.0471  0.1761 -0.1139
  160DOPC   D2A 1870   1.552   6.373  15.203 -0.0257 -0.2309  0.1129
  160DOPC   C3A 1871   1.570   6.282  14.772  0.1820  0.0270 -0.2144
  160DOPC   C4A 1872   1.413   6.067  14.351 -0.1249  0.1202 -0.2907
  160DOPC   C1B 1873   1.808   6.777  15.587  0.0075  0.2475 -0.1585
  160DOPC   D2B 1874   1.663   6.899  15.163 -0.4839  0.2955 -0.1643
  160DOPC   C3B 1875   1.715   6.790  14.713 -0.1403  0.0776 -0.1655
  160DOPC   C4B 1876   1.593   6.595  14.282  0.0598 -0.0620 -0.0858
  161DOPS   CNO 1877   0.907   2.705  16.173 -0.1796 -0.0384  0.2905
  161DOPS   PO4 1878   0.550   2.619  16.234 -0.1649  0.1068 -0.1711
  161DOPS   GL1 1879   0.552   2.613  15.795 -0.1412  0.3202  0.0192
  161DOPS   GL2 1880   0.317   2.602  15.723  0.5434  0.1329 -0.1116
  161DOPS   C1A 1881   0.551   2.858  15.361  0.0869  0.0735  0.0988
  161DOPS   D2A 1882   0.235   2.866  15.011  0.0026 -0.1659  0.2555
  161DOPS   C3A 1883   0.169   3.269  14.769 -0.0015 -0.0294  0.1419
  161DOPS   C4A 1884   0.201   3.445  14.315 -0.1982 -0.0975 -0.0656
  161DOPS   C1B 1885   0.329   2.449  15.236 -0.0984  0.1244 -0.0893
  161DOPS   D2B 1886   0.474   2.363  14.856 -0.0579 -0.0169 -0.0868
  161DOPS   C3B 1887   0.521   2.311  14.385  0.0753 -0.2368 -0.2848
  161DOPS   C4B 1888   0.320   2.590  14.020  0.3213  0.0465  0.1713
  162DOPC   NC3 1889   4.612   2.687  15.502 -0.1368 -0.1345 -0.3768
  162DOPC   PO4 1890   4.520   3.044  15.448 -0.0882 -0.1398  0.0293
  162DOPC   GL1 1891   4.253   3.095  15.098  0.1776 -0.1719 -0.2535
  162DOPC   GL2 1892   4.050   3.185  14.943  0.2559 -0.0073  0.0569
  162DOPC   C1A 1893   4.271   2.841  14.635  0.1082  0.2091  0.1296
  162DOPC   D2A 1894   3.939   2.767  14.353 -0.1392  0.3990  0.2779
  162DOPC   C3A 1895   3.662   2.834  13.988 -0.2199  0.0964  0.2619
  162DOPC   C4A 1896   3.297   2.639  13.751  0.0691 -0.0926 -0.3144
  162DOPC   C1B 1897   3.983   3.261  14.500 -0.1938 -0.2528  0.0055
  162DOPC   D2B 1898   4.143   3.155  14.069  0.1100 -0.2289  0.4898
  162DOPC   C3B 1899   4.102   2.793  13.760  0.1942 -0.0894  0.0059
  162DOPC   C4B 1900   3.871   2.545  13.469  0.2065 -0.0042 -0.1065
  163DOPE   NH3 1901  10.547   8.206  16.374  0.3669 -0.3705 -0.0981
  163DOPE   PO4 1902  10.724   8.198  16.085 -0.2654 -0.0944 -0.0371
  163DOPE   GL1 1903  10.832   8.286  15.660  0.1118  0.0677 -0.2033
  163DOPE   GL2 1904  10.865   8.571  15.511 -0.1660 -0.4211  0.0843
  163DOPE   C1A 1905  10.868   8.048  15.253 -0.1768 -0.0563 -0.2623
  163DOPE   D2A 1906  10.803   7.994  14.770 -0.2631  0.1662 -0.3161
  163DOPE   C3A 1907  10.783   8.173  14.347 -0.0947  0.1178  0.0345
  163DOPE   C4A 1908  10.591   8.390  13.966  0.0838 -0.0487  0.0131
  163DOPE   C1B 1909  10.623   8.606  15.126 -0.2532  0.0004  0.0651
  163DOPE   D2B 1910  10.299   8.423  14.771  0.0741  0.1003 -0.2815
  163DOPE   C3B 1911  10.300   8.564  14.304  0.1790  0.1913 -0.1448
  163DOPE   C4B 1912  10.077   8.955  14.120  0.0159 -0.2211  0.0117
  164POSM   NC3 1913   7.383   9.213  16.528 -0.2055  0.1868 -0.0327
  164POSM   PO4 1914   7.463   8.990  16.226 -0.0081  0.0095  0.0887
  164POSM   AM1 1915   7.243   8.882  15.990 -0.2800  0.1020  0.0344
  164POSM   AM2 1916   7.091   9.057  15.806  0.0912 -0.1715 -0.0108
  164POSM   T1A 1917   6.970   8.612  15.730  0.1113  0.1194  0.2447
  164POSM   C2A 1918   6.561   8.391  15.590 -0.1533  0.0750 -0.2454
  164POSM   C3A 1919   6.096   8.396  15.636  0.2355  0.0259 -0.1339
  164POSM   C1B 1920   6.829   9.174  15.586  0.0954  0.1151 -0.0890
  164POSM   D2B 1921   6.639   9.297  15.225  0.1235  0.1510  0.1027
  164POSM   C3B 1922   6.688   9.704  14.963  0.0913 -0.2877  0.0575
  164POSM   C4B 1923   6.812  10.109  15.128  0.0510 -0.3233  0.1275
  165DOPE   NH3 1924   5.178   9.494  16.456 -0.3069 -0.1711  0.1988
  165DOPE   PO4 1925   5.226   9.801  16.347  0.0044  0.0528 -0.0457
  165DOPE   GL1 1926   4.956   9.685  16.096  0.0307  0.1799  0.2239
  165DOPE   GL2 1927   4.720   9.622  16.057  0.1069 -0.0410  0.1400
  165DOPE   C1A 1928   4.995   9.657  15.647  0.1853 -0.0604  0.0021
  165DOPE   D2A 1929   4.784   9.703  15.250  0.0811  0.1324  0.1305
  165DOPE   C3A 1930   4.636   9.615  14.879 -0.2871  0.1486 -0.2717
  165DOPE   C4A 1931   4.620   9.424  14.486  0.1984 -0.0386  0.2372
  165DOPE   C1B 1932   4.611   9.302  15.692 -0.1701 -0.4514 -0.0323
  165DOPE   D2B 1933   4.432   9.340  15.286 -0.2104  0.1365 -0.0932
  165DOPE   C3B 1934   4.385   9.145  14.932  0.2621 -0.1749  0.1628
  165DOPE   C4B 1935   4.186   8.909  14.639 -0.0152  0.1733 -0.0077
  166POSM   NC3 1936   8.311   9.041  15.846  0.2566 -0.0684  0.1489
  166POSM   PO4 1937   7.955   9.022  16.004 -0.0232 -0.0839  0.1891
  166POSM   AM1 1938   7.922   8.815  15.773  0.3503  0.1271  0.0453
  166POSM   AM2 1939   8.024   8.520  15.682 -0.0811 -0.4987 -0.0325
  166POSM   T1A 1940   7.652   8.633  15.357 -0.0609  0.1723  0.1020
  166POSM   C2A 1941   7.386   8.498  15.039  0.1274 -0.2122  0.2352
  166POSM   C3A 1942   7.516   8.356  14.612 -0.1760  0.0026  0.1523
  166POSM   C1B 1943   8.142   8.523  15.314  0.0584 -0.0118  0.1365
  166POSM   D2B 1944   7.942   8.543  14.913 -0.1922 -0.3946  0.2448
  166POSM   C3B 1945   7.922   8.646  14.457 -0.0355 -0.1593 -0.2432
  166POSM   C4B 1946   7.600   8.742  14.091 -0.0747  0.1929  0.2448
  167DOPC   NC3 1947   8.373   3.897  15.734  0.0176 -0.0316  0.1472
  167DOPC   PO4 1948   8.469   3.590  15.552 -0.0291 -0.3357  0.0600
  167DOPC   GL1 1949   8.410   3.648  15.177 -0.1474  0.2477  0.0583
  167DOPC   GL2 1950   8.079   3.643  15.172 -0.1108  0.0414  0.0466
  167DOPC   C1A 1951   8.542   4.120  15.098 -0.1658  0.1387  0.0377
  167DOPC   D2A 1952   8.406   4.427  14.796 -0.1585  0.1019  0.0082
  167DOPC   C3A 1953   8.654   4.523  14.455  0.1602  0.2109 -0.0988
  167DOPC   C4A 1954   8.978   4.500  14.207  0.3163  0.1635  0.0693
  167DOPC   C1B 1955   8.097   4.044  15.024 -0.0436  0.0399 -0.2049
  167DOPC   D2B 1956   7.933   4.431  14.876 -0.0320 -0.1317  0.2505
  167DOPC   C3B 1957   8.051   4.675  14.462 -0.3381 -0.1016  0.1075
  167DOPC   C4B 1958   8.305   4.871  14.101  0.0527 -0.3411  0.0842
  168DOPE   NH3 1959   7.180  10.059  16.342 -0.2047 -0.1578 -0.0343
  168DOPE   PO4 1960   6.949  10.308  16.334 -0.1419  0.1012 -0.0359
  168DOPE   GL1 1961   6.885  10.399  15.937 -0.2813  0.0033  0.0231
  168DOPE   GL2 1962   7.078  10.617  15.995 -0.0967  0.0353 -0.0792
  168DOPE   C1A 1963   7.001  10.351  15.489  0.0365  0.0328 -0.3456
  168DOPE   D2A 1964   7.295  10.263  15.163  0.1957 -0.1012  0.0142
  168DOPE   C3A 1965   7.053  10.375  14.776 -0.0554  0.0863  0.3221
  168DOPE   C4A 1966   6.848  10.456  14.353  0.0630 -0.0675 -0.0505
  168DOPE   C1B 1967   7.268  10.763  15.602 -0.2961  0.0134  0.3369
  168DOPE   D2B 1968   7.065  10.763  15.175 -0.0906  0.3638 -0.0407
  168DOPE   C3B 1969   7.175  11.183  15.095  0.2068  0.0205  0.2211
  168DOPE   C4B 1970   7.465  11.416  14.889 -0.2446  0.1073 -0.2242
  169POSM   NC3 1971   6.949   0.709  15.164  0.1345 -0.0505 -0.0296
  169POSM   PO4 1972   6.794   0.432  14.974 -0.2034  0.4748 -0.2068
  169POSM   AM1 1973   6.860   0.415  14.669 -0.1561 -0.0834  0.1254
  169POSM   AM2 1974   7.034   0.555  14.522  0.0576  0.0823 -0.1351
  169POSM   T1A 1975   6.856   0.152  14.246  0.1215 -0.2057 -0.2028
  169POSM   C2A 1976   6.989  -0.186  14.018  0.1921  0.0576  0.2498
  169POSM   C3A 1977   7.067  -0.469  13.643  0.0380 -0.1233  0.1671
  169POSM   C1B 1978   7.164   0.634  14.193  0.0604 -0.1629 -0.1413
  169POSM   D2B 1979   7.295   0.730  13.708  0.0798  0.0723 -0.1184
  169POSM   C3B 1980   7.178   0.566  13.301  0.1746  0.1542 -0.2986
  169POSM   C4B 1981   6.876   0.382  12.973  0.1099  0.2028 -0.0667
  170DOPE   NH3 1982   9.463   9.906  15.903 -0.0937  0.2641  0.1669
  170DOPE   PO4 1983   9.530   9.692  15.693 -0.0094 -0.3081  0.1127
  170DOPE   GL1 1984   9.599   9.684  15.355  0.1197  0.0972 -0.0424
  170DOPE   GL2 1985   9.840   9.501  15.358  0.0823 -0.0388  0.0526
  170DOPE   C1A 1986   9.412   9.515  14.931  0.0616  0.1561 -0.2703
  170DOPE   D2A 1987   9.310   9.301  14.549  0.3057 -0.0678 -0.0321
  170DOPE   C3A 1988   9.308   9.621  14.228  0.0304  0.4182  0.1233
  170DOPE   C4A 1989   9.153   9.650  13.824  0.1478 -0.2163  0.0111
  170DOPE   C1B 1990  10.027   9.463  14.926 -0.0120 -0.0466 -0.0880
  170DOPE   D2B 1991   9.819   9.326  14.519 -0.0970 -0.1252 -0.0485
  170DOPE   C3B 1992   9.880   9.573  14.121  0.4835 -0.3266  0.3425
  170DOPE   C4B 1993   9.662   9.498  13.693  0.2267  0.3092  0.0929
  171DOPE   NH3 1994   1.347   4.363  16.417 -0.2043 -0.2789 -0.1044
  171DOPE   PO4 1995   1.072   4.524  16.446 -0.1931  0.4359 -0.1042
  171DOPE   GL1 1996   1.147   4.712  15.996  0.2585 -0.0661 -0.3611
  171DOPE   GL2 1997   1.427   4.615  15.925  0.3919 -0.0655 -0.1770
  171DOPE   C1A 1998   0.857   4.882  15.690  0.0867 -0.1194 -0.0569
  171DOPE   D2A 1999   0.645   4.881  15.252 -0.4384 -0.1778  0.1382
  171DOPE   C3A 2000   0.786   4.588  14.870  0.0065 -0.3512 -0.3046
  171DOPE   C4A 2001   0.907   4.571  14.374  0.1306 -0.1393  0.1461
  171DOPE   C1B 2002   1.348   4.374  15.574 -0.1256  0.3001  0.2752
  171DOPE   D2B 2003   1.622   4.126  15.226  0.0766 -0.1660  0.2628
  171DOPE   C3B 2004   1.838   3.754  15.311 -0.1882  0.2662  0.3383
  171DOPE   C4B 2005   1.920   3.326  15.232 -0.1458 -0.0376  0.1164
  172DOPE   NH3 2006   8.269   6.702  16.240  0.1704 -0.0466  0.0814
  172DOPE   PO4 2007   8.460   6.493  16.202  0.1038 -0.1034  0.0385
  172DOPE   GL1 2008   8.365   6.457  15.727  0.0212  0.1663  0.3870
  172DOPE   GL2 2009   8.328   6.753  15.757 -0.2270 -0.2783  0.0842
  172DOPE   C1A 2010   8.653   6.397  15.371 -0.0060  0.0639 -0.1127
  172DOPE   D2A 2011   8.954   6.526  15.105 -0.0013  0.1724  0.0060
  172DOPE   C3A 2012   8.856   6.526  14.680  0.0025  0.0282  0.1017
  172DOPE   C4A 2013   8.459   6.446  14.494 -0.3810 -0.1957 -0.1225
  172DOPE   C1B 2014   8.158   6.787  15.347  0.0822 -0.3345  0.0207
  172DOPE   D2B 2015   8.336   6.651  14.942 -0.1246  0.0679  0.1278
  172DOPE   C3B 2016   8.028   6.722  14.578  0.1980 -0.0134 -0.0006
  172DOPE   C4B 2017   7.893   7.161  14.467  0.0673 -0.3919 -0.0157
  173DOPE   NH3 2018   2.200   1.241  15.986 -0.0110  0.0151  0.1152
  173DOPE   PO4 2019   1.895   1.137  16.089  0.0925  0.1522  0.3132
  173DOPE   GL1 2020   1.650   1.125  15.790 -0.0032  0.2146 -0.0750
  173DOPE   GL2 2021   1.800   1.127  15.563 -0.0601  0.0585  0.1082
  173DOPE   C1A 2022   1.306   0.903  15.537 -0.2192 -0.1428  0.0620
  173DOPE   D2A 2023   1.058   0.752  15.169  0.0875  0.0613 -0.0494
  173DOPE   C3A 2024   0.912   0.283  15.271 -0.2607  0.1377  0.1925
  173DOPE   C4A 2025   1.018  -0.164  15.285  0.3941  0.3593 -0.2112
  173DOPE   C1B 2026   2.021   0.779  15.346  0.1258 -0.2909  0.2682
  173DOPE   D2B 2027   2.074   0.426  15.096  0.0307  0.1282  0.0571
  173DOPE   C3B 2028   1.714   0.459  14.763 -0.0017  0.0037  0.4950
  173DOPE   C4B 2029   1.852   0.344  14.297  0.1091  0.0004  0.0890
  174POSM   NC3 2030   9.185   1.739  14.533  0.1108  0.2385 -0.1057
  174POSM   PO4 2031   9.139   1.357  14.359 -0.0993  0.1184  0.0486
  174POSM   AM1 2032   9.107   1.555  14.055 -0.0671 -0.1355 -0.2217
  174POSM   AM2 2033   9.180   1.504  13.779 -0.0687  0.1642 -0.1529
  174POSM   T1A 2034   9.035   1.955  13.782 -0.1046 -0.0667  0.0653
  174POSM   C2A 2035   8.870   2.296  13.580  0.4783 -0.2273 -0.1308
  174POSM   C3A 2036   9.024   2.579  13.233  0.3658  0.0694 -0.1195
  174POSM   C1B 2037   8.960   1.552  13.485  0.0895 -0.0959 -0.0445
  174POSM   D2B 2038   8.771   1.893  13.286 -0.3112  0.1471 -0.0737
  174POSM   C3B 2039   8.829   2.221  12.954  0.1433  0.0836 -0.1368
  174POSM   C4B 2040   9.088   2.548  12.707 -0.2172 -0.0112  0.1912
  175DOPE   NH3 2041   9.443   7.858  15.702 -0.0309 -0.0281  0.1358
  175DOPE   PO4 2042   9.131   7.904  15.737 -0.1499  0.1148  0.4968
  175DOPE   GL1 2043   9.058   7.689  15.417 -0.0417 -0.1814  0.3877
  175DOPE   GL2 2044   9.300   7.643  15.244 -0.1616 -0.2388  0.1035
  175DOPE   C1A 2045   9.026   7.208  15.406 -0.0132  0.2995 -0.0118
  175DOPE   D2A 2046   8.786   6.856  15.534  0.2421  0.0221  0.0402
  175DOPE   C3A 2047   8.543   7.033  15.209 -0.2933  0.1590  0.0374
  175DOPE   C4A 2048   8.304   7.153  14.766 -0.3340 -0.0409  0.1043
  175DOPE   C1B 2049   9.097   8.031  15.071  0.1307  0.0891 -0.1982
  175DOPE   D2B 2050   8.951   8.285  14.791  0.0272  0.0869 -0.0896
  175DOPE   C3B 2051   8.857   8.229  14.377 -0.0050 -0.2830 -0.0085
  175DOPE   C4B 2052   8.761   8.474  13.993  0.1119 -0.0049 -0.1712
  176DOPE   NH3 2053   8.630  10.389  15.931  0.0559  0.0184 -0.1886
  176DOPE   PO4 2054   8.812  10.601  15.745  0.2918 -0.2405  0.3259
  176DOPE   GL1 2055   8.810  10.509  15.366 -0.2631  0.1406  0.3416
  176DOPE   GL2 2056   8.997  10.664  15.184 -0.1792  0.0151 -0.2006
  176DOPE   C1A 2057   8.838  10.242  14.986  0.3511 -0.2705  0.0847
  176DOPE   D2A 2058   8.631  10.169  14.606 -0.0591  0.4287  0.1077
  176DOPE   C3A 2059   8.330   9.902  14.330 -0.1672  0.0556 -0.1218
  176DOPE   C4A 2060   8.450   9.521  14.235 -0.3373  0.5060  0.1828
  176DOPE   C1B 2061   9.217  11.029  15.039  0.1173 -0.1643 -0.0849
  176DOPE   D2B 2062   9.383  10.976  14.625  0.0245  0.0635  0.4811
  176DOPE   C3B 2063   9.667  10.689  14.473 -0.0771 -0.1943 -0.0875
  176DOPE   C4B 2064   9.909  10.329  14.678 -0.0454  0.0487  0.1015
  177POSM   NC3 2065   8.492   3.064  15.614  0.0817 -0.3695  0.1056
  177POSM   PO4 2066   8.577   2.785  15.428 -0.3244 -0.1929  0.1987
  177POSM   AM1 2067   8.420   2.862  15.173 -0.2580  0.1240 -0.0505
  177POSM   AM2 2068   8.293   3.104  15.137  0.1284 -0.1445 -0.0972
  177POSM   T1A 2069   8.260   2.941  14.680 -0.3139  0.0392  0.0979
  177POSM   C2A 2070   8.471   3.088  14.290  0.2762 -0.1803  0.2562
  177POSM   C3A 2071   8.316   2.940  13.855 -0.2144  0.0062 -0.4760
  177POSM   C1B 2072   8.500   3.275  14.937 -0.3107  0.2868 -0.0902
  177POSM   D2B 2073   8.797   3.256  14.646  0.1208  0.2819  0.0644
  177POSM   C3B 2074   8.899   3.672  14.430 -0.1647  0.0226  0.0706
  177POSM   C4B 2075   8.642   4.058  14.323 -0.3050  0.2028 -0.0355
  178DOPC   NC3 2076   3.311   8.295  16.481  0.0612 -0.1278 -0.0194
  178DOPC   PO4 2077   3.156   7.953  16.453  0.0459  0.0705  0.0193
  178DOPC   GL1 2078   2.952   8.002  16.128 -0.5033 -0.1310 -0.2077
  178DOPC   GL2 2079   2.972   8.289  16.100 -0.1677 -0.1345  0.3372
  178DOPC   C1A 2080   3.170   7.929  15.711 -0.0829 -0.1272  0.0551
  178DOPC   D2A 2081   2.906   7.985  15.336  0.0818 -0.1266  0.0991
  178DOPC   C3A 2082   2.604   8.146  14.993  0.1020 -0.0591 -0.0985
  178DOPC   C4A 2083   2.289   8.477  14.773  0.0013  0.0380  0.0528
  178DOPC   C1B 2084   2.934   8.445  15.616  0.0923 -0.0750  0.2107
  178DOPC   D2B 2085   2.704   8.573  15.237  0.0912  0.0487  0.2387
  178DOPC   C3B 2086   2.345   8.810  15.193  0.0928  0.0505  0.1352
  178DOPC   C4B 2087   2.244   9.221  15.235  0.0448 -0.0970 -0.0760
  179DOPE   NH3 2088   2.502   2.374  15.767 -0.0809 -0.2736 -0.0132
  179DOPE   PO4 2089   2.305   2.626  15.891 -0.0903  0.2184  0.3383
  179DOPE   GL1 2090   2.136   2.638  15.566  0.0649  0.1244  0.0403
  179DOPE   GL2 2091   2.047   2.911  15.543 -0.1712  0.1344  0.1069
  179DOPE   C1A 2092   2.434   2.528  15.223  0.3898 -0.2206 -0.1783
  179DOPE   D2A 2093   2.588   2.352  14.811  0.2815  0.0170  0.0982
  179DOPE   C3A 2094   2.373   2.468  14.379  0.2145  0.0072  0.1158
  179DOPE   C4A 2095   2.023   2.423  14.093  0.2503 -0.1519 -0.1217
  179DOPE   C1B 2096   2.186   3.373  15.698 -0.2277  0.1678  0.0249
  179DOPE   D2B 2097   2.347   3.740  15.544 -0.0964 -0.0049  0.3581
  179DOPE   C3B 2098   2.367   3.775  15.093 -0.2349 -0.0636  0.1245
  179DOPE   C4B 2099   2.186   3.667  14.695  0.2356  0.0199 -0.1292
  180DOPC   NC3 2100  11.282   5.411  15.721 -0.1232  0.0509 -0.0472
  180DOPC   PO4 2101  11.001   5.273  15.992  0.0334 -0.1492  0.0528
  180DOPC   GL1 2102  10.856   5.337  15.613  0.1341  0.2158 -0.0229
  180DOPC   GL2 2103  10.839   5.169  15.372 -0.0716 -0.1795 -0.0814
  180DOPC   C1A 2104  10.537   5.563  15.348  0.0527 -0.3074  0.0102
  180DOPC   D2A 2105  10.419   5.681  14.927  0.0700  0.2656  0.1826
  180DOPC   C3A 2106  10.253   5.774  14.429  0.0299  0.1378 -0.1680
  180DOPC   C4A 2107   9.955   5.726  14.052 -0.1726 -0.0959  0.1811
  180DOPC   C1B 2108  10.729   5.335  14.914  0.2075  0.1165 -0.1456
  180DOPC   D2B 2109  10.566   5.321  14.479  0.1832 -0.0904 -0.0695
  180DOPC   C3B 2110  10.611   5.080  14.064 -0.0746 -0.2430 -0.1143
  180DOPC   C4B 2111  10.318   4.912  13.750 -0.2095 -0.1620 -0.0538
  181POSM   NC3 2112   2.156  34.473  15.725 -0.1692  0.2349 -0.3268
  181POSM   PO4 2113   2.086  34.845  15.843 -0.0891  0.3525 -0.2016
  181POSM   AM1 2114   1.947  34.892  15.576 -0.0844  0.2816 -0.2436
  181POSM   AM2 2115   1.829  34.739  15.376 -0.1892 -0.1680  0.3451
  181POSM   T1A 2116   1.604  35.169  15.333  0.0035 -0.0375  0.0272
  181POSM   C2A 2117   1.317  35.060  14.956 -0.1665  0.2362 -0.1968
  181POSM   C3A 2118   0.897  34.875  14.769  0.1169  0.3088 -0.5097
  181POSM   C1B 2119   1.557  34.560  15.361  0.1178 -0.2193 -0.1173
  181POSM   D2B 2120   1.361  34.286  15.039  0.0103  0.2961  0.2764
  181POSM   C3B 2121   0.967  34.355  14.744  0.1683 -0.2343 -0.3365
  181POSM   C4B 2122   0.541  34.470  14.938 -0.0699  0.1783 -0.2266
  182DOPE   NH3 2123   7.731   1.704  14.944 -0.2564  0.0189  0.1538
  182DOPE   PO4 2124   7.768   2.000  14.838  0.1087 -0.0009 -0.2989
  182DOPE   GL1 2125   7.785   2.053  14.458  0.0633 -0.3280  0.0320
  182DOPE   GL2 2126   8.015   2.225  14.477 -0.1701  0.0747 -0.0326
  182DOPE   C1A 2127   8.025   2.037  14.051  0.0476  0.2661  0.0170
  182DOPE   D2A 2128   7.875   2.101  13.652 -0.0093 -0.1830  0.2146
  182DOPE   C3A 2129   8.013   2.446  13.307  0.0129  0.0344  0.2901
  182DOPE   C4A 2130   8.424   2.577  13.106  0.1849 -0.1297  0.0713
  182DOPE   C1B 2131   8.341   2.608  14.289 -0.2032  0.1142 -0.4320
  182DOPE   D2B 2132   8.694   2.680  14.001  0.0908  0.0303  0.2799
  182DOPE   C3B 2133   8.943   2.873  13.707 -0.0522 -0.0022 -0.1205
  182DOPE   C4B 2134   9.323   2.995  13.428 -0.4496 -0.1743  0.0249
  183DOPE   NH3 2135  10.039   3.109  15.493  0.2946  0.0685  0.1661
  183DOPE   PO4 2136  10.073   2.914  15.266  0.2337 -0.1810 -0.1290
  183DOPE   GL1 2137  10.211   3.170  14.930  0.1722 -0.2576  0.0899
  183DOPE   GL2 2138   9.928   3.326  14.890  0.2579  0.1937  0.6220
  183DOPE   C1A 2139  10.321   3.624  14.948  0.1159 -0.1470  0.3541
  183DOPE   D2A 2140  10.674   3.849  14.699 -0.1114 -0.4201 -0.0067
  183DOPE   C3A 2141  10.546   3.959  14.302 -0.1627  0.1404 -0.2974
  183DOPE   C4A 2142  10.599   4.066  13.876 -0.0112 -0.0709  0.1745
  183DOPE   C1B 2143   9.873   3.480  14.428 -0.1553 -0.1004  0.2006
  183DOPE   D2B 2144  10.023   3.704  13.992  0.0663 -0.1830  0.2100
  183DOPE   C3B 2145   9.868   3.502  13.655  0.0248 -0.1943  0.0525
  183DOPE   C4B 2146   9.500   3.591  13.381  0.3509  0.0283  0.2218
  184POSM   NC3 2147   3.649   1.396  15.705  0.1248 -0.7118  0.0361
  184POSM   PO4 2148   3.646   1.629  15.407 -0.2640 -0.1694  0.2972
  184POSM   AM1 2149   3.568   1.581  15.095  0.1721  0.1535  0.5181
  184POSM   AM2 2150   3.475   1.412  14.894  0.0361  0.2719  0.1640
  184POSM   T1A 2151   3.643   1.802  14.640 -0.2094  0.0642  0.0058
  184POSM   C2A 2152   3.634   1.870  14.180 -0.2967 -0.0876 -0.1018
  184POSM   C3A 2153   3.485   1.689  13.783 -0.0740  0.2021 -0.6491
  184POSM   C1B 2154   3.670   1.292  14.604  0.1642  0.1348 -0.1591
  184POSM   D2B 2155   3.912   0.950  14.466 -0.2194  0.1189  0.0366
  184POSM   C3B 2156   4.045   0.731  14.047  0.2073 -0.3016  0.0763
  184POSM   C4B 2157   4.103   0.235  13.940 -0.0894 -0.1942 -0.0307
  185DOPS   CNO 2158   7.534   1.305  15.164  0.1364 -0.2122  0.0130
  185DOPS   PO4 2159   7.439   1.308  14.775 -0.3729  0.0480  0.1572
  185DOPS   GL1 2160   7.540   1.332  14.374 -0.0316 -0.0302 -0.0234
  185DOPS   GL2 2161   7.686   1.594  14.429  0.0194 -0.2344 -0.3464
  185DOPS   C1A 2162   7.258   1.446  14.021 -0.2452 -0.2931  0.3294
  185DOPS   D2A 2163   7.226   1.357  13.556  0.0324 -0.1462 -0.4222
  185DOPS   C3A 2164   7.023   1.385  13.129  0.2093  0.2318 -0.0269
  185DOPS   C4A 2165   7.109   1.172  12.758  0.1542 -0.1188 -0.2358
  185DOPS   C1B 2166   7.531   1.885  14.123  0.0941 -0.2310 -0.2219
  185DOPS   D2B 2167   7.298   2.037  13.795  0.1942 -0.0172 -0.1067
  185DOPS   C3B 2168   7.461   2.198  13.421  0.3984 -0.0038 -0.5023
  185DOPS   C4B 2169   7.505   2.591  13.102 -0.1666 -0.0112 -0.2824
  186DOPC   NC3 2170   3.715  11.172  16.470 -0.3189 -0.3027 -0.0419
  186DOPC   PO4 2171   3.569  10.803  16.472  0.0081 -0.1423  0.1320
  186DOPC   GL1 2172   3.461  10.587  16.186 -0.5601  0.1196  0.4446
  186DOPC   GL2 2173   3.156  10.563  16.083  0.0641 -0.2157 -0.1397
  186DOPC   C1A 2174   3.643  10.614  15.731  0.0197 -0.1579 -0.5003
  186DOPC   D2A 2175   3.870  10.902  15.402  0.3726 -0.1053 -0.1731
  186DOPC   C3A 2176   4.228  11.175  15.474 -0.1104  0.0435 -0.2796
  186DOPC   C4A 2177   4.620  11.036  15.699 -0.1934 -0.0007 -0.3964
  186DOPC   C1B 2178   2.901  10.782  15.702  0.0443 -0.1058 -0.1255
  186DOPC   D2B 2179   2.573  10.789  15.383  0.2039 -0.1975 -0.2309
  186DOPC   C3B 2180   2.456  11.226  15.226  0.1030 -0.2354 -0.0806
  186DOPC   C4B 2181   2.109  11.516  15.085 -0.2667 -0.0425 -0.4756
  187POSM   NC3 2182   5.122   5.676  15.880  0.0283  0.0461  0.0216
  187POSM   PO4 2183   5.496   5.677  15.834  0.0663  0.2187  0.0010
  187POSM   AM1 2184   5.738   5.555  15.629  0.2260  0.2145 -0.1965
  187POSM   AM2 2185   5.906   5.747  15.508 -0.0124  0.0369 -0.2169
  187POSM   T1A 2186   6.092   5.314  15.283 -0.1665 -0.0571 -0.3542
  187POSM   C2A 2187   6.243   5.400  14.853  0.3428  0.2157 -0.4501
  187POSM   C3A 2188   6.364   5.507  14.362  0.4280  0.0809 -0.1915
  187POSM   C1B 2189   5.808   5.679  15.182 -0.0947 -0.0042 -0.1137
  187POSM   D2B 2190   5.695   5.874  14.800 -0.0966 -0.0236  0.0676
  187POSM   C3B 2191   5.333   5.758  14.534 -0.2948 -0.1382  0.2405
  187POSM   C4B 2192   5.020   5.646  14.248 -0.1857 -0.0030  0.0758
  188DOPE   NH3 2193   7.051   1.157  15.091  0.3070  0.0127  0.1053
  188DOPE   PO4 2194   6.766   1.293  15.076 -0.0027  0.3216 -0.1468
  188DOPE   GL1 2195   6.810   1.503  14.710  0.3256 -0.0666  0.0879
  188DOPE   GL2 2196   6.493   1.588  14.679 -0.2896 -0.0783  0.0569
  188DOPE   C1A 2197   6.963   1.721  14.354 -0.0781 -0.1292 -0.1604
  188DOPE   D2A 2198   6.885   1.748  13.887  0.1689  0.0123 -0.1127
  188DOPE   C3A 2199   6.643   1.619  13.463 -0.0540 -0.2470 -0.0129
  188DOPE   C4A 2200   6.444   1.302  13.165 -0.0519 -0.0018 -0.1677
  188DOPE   C1B 2201   6.507   1.451  14.211 -0.0323  0.0192  0.2064
  188DOPE   D2B 2202   6.355   1.357  13.795  0.4099 -0.0374 -0.2970
  188DOPE   C3B 2203   6.004   1.223  13.558 -0.0429 -0.0828  0.0058
  188DOPE   C4B 2204   5.751   0.927  13.382 -0.0111 -0.1573 -0.2248
  189DOPS   CNO 2205   5.680  34.285  14.833 -0.0616  0.3614 -0.0772
  189DOPS   PO4 2206   5.462  34.428  15.119 -0.0797 -0.2318 -0.2310
  189DOPS   GL1 2207   5.460  34.697  14.766 -0.0290 -0.3502 -0.1050
  189DOPS   GL2 2208   5.177  34.790  14.904  0.0899 -0.0947 -0.4307
  189DOPS   C1A 2209   5.680  34.824  14.355  0.2407 -0.0333 -0.0639
  189DOPS   D2A 2210   5.677  34.687  13.895  0.0562  0.0095 -0.5550
  189DOPS   C3A 2211   5.858  34.667  13.460 -0.1006  0.1509 -0.2010
  189DOPS   C4A 2212   6.245  34.575  13.147 -0.0859 -0.1263 -0.0092
  189DOPS   C1B 2213   5.180  34.890  14.451  0.1406 -0.0332  0.5094
  189DOPS   D2B 2214   5.077  34.915  14.027 -0.1217  0.3181 -0.1679
  189DOPS   C3B 2215   5.066  35.398  13.767 -0.3548 -0.1430 -0.0911
  189DOPS   C4B 2216   5.015  35.859  13.775  0.1516 -0.2669  0.0512
  190DOPS   CNO 2217   6.219   9.668  16.499  0.1045  0.0290 -0.0800
  190DOPS   PO4 2218   6.127   9.558  16.164 -0.0222 -0.0109 -0.0265
  190DOPS   GL1 2219   6.375   9.712  15.785 -0.1232  0.1658 -0.2110
  190DOPS   GL2 2220   6.439   9.425  15.752  0.0983 -0.0133  0.1511
  190DOPS   C1A 2221   6.297   9.740  15.325  0.3023 -0.2287  0.1552
  190DOPS   D2A 2222   6.178   9.614  14.916  0.2545 -0.0016 -0.0615
  190DOPS   C3A 2223   6.402   9.599  14.544 -0.2447 -0.0942  0.0559
  190DOPS   C4A 2224   6.793   9.525  14.295 -0.2063 -0.0997  0.0706
  190DOPS   C1B 2225   6.006   9.382  15.575  0.1008 -0.2911 -0.1140
  190DOPS   D2B 2226   5.941   9.267  15.122  0.0395 -0.1005 -0.1933
  190DOPS   C3B 2227   6.222   9.083  14.848 -0.0357 -0.3838  0.0346
  190DOPS   C4B 2228   6.430   8.647  14.784  0.1662 -0.1430 -0.2027
  191DOPE   NH3 2229  10.558  34.194  14.449  0.0107  0.0558 -0.2459
  191DOPE   PO4 2230  10.665  34.482  14.531  0.0071  0.1021  0.1933
  191DOPE   GL1 2231  10.902  34.467  14.159 -0.0155 -0.1034  0.2434
  191DOPE   GL2 2232  10.947  34.152  14.142  0.3511 -0.1710 -0.4272
  191DOPE   C1A 2233  11.124  34.741  13.833 -0.0626  0.0730  0.0040
  191DOPE   D2A 2234  11.448  34.993  13.649 -0.2277  0.3412  0.2211
  191DOPE   C3A 2235  11.415  35.213  13.191  0.2080 -0.4836  0.2651
  191DOPE   C4A 2236  11.436  35.090  12.728 -0.1904  0.0723 -0.0933
  191DOPE   C1B 2237  11.358  34.065  13.820  0.1299  0.1564  0.2598
  191DOPE   D2B 2238  11.514  33.638  13.722 -0.1102 -0.0751 -0.1689
  191DOPE   C3B 2239  11.877  33.619  13.469  0.0654 -0.1085 -0.1068
  191DOPE   C4B 2240  11.843  33.436  13.057 -0.1973 -0.1641  0.0561
  192DOPC   NC3 2241   6.115   2.130  15.309 -0.0433  0.2127 -0.1901
  192DOPC   PO4 2242   6.254   1.749  15.279 -0.0997 -0.0609 -0.0872
  192DOPC   GL1 2243   6.042   1.797  14.892  0.0773  0.3123  0.1461
  192DOPC   GL2 2244   5.750   1.895  15.038 -0.1717 -0.1248  0.0259
  192DOPC   C1A 2245   6.005   2.020  14.445  0.1477 -0.0079  0.2040
  192DOPC   D2A 2246   6.102   2.288  14.089  0.1055  0.2249 -0.1699
  192DOPC   C3A 2247   6.419   2.396  13.789 -0.0399 -0.0579  0.3151
  192DOPC   C4A 2248   6.710   2.782  13.677 -0.1292 -0.0261  0.0210
  192DOPC   C1B 2249   5.420   2.174  14.881 -0.0620 -0.3443  0.0879
  192DOPC   D2B 2250   5.277   2.558  14.732 -0.1522 -0.3185 -0.0719
  192DOPC   C3B 2251   4.897   2.559  14.470  0.0896  0.3953 -0.0805
  192DOPC   C4B 2252   4.488   2.704  14.233  0.2045  0.0639 -0.1053
  193DOPS   CNO 2253  10.685   6.973  15.835  0.0632 -0.2879 -0.1967
  193DOPS   PO4 2254  10.643   6.607  15.951  0.0734 -0.4103 -0.3328
  193DOPS   GL1 2255  10.836   6.354  15.714 -0.1419 -0.1356 -0.2812
  193DOPS   GL2 2256  10.625   6.129  15.645  0.2241 -0.0914  0.5521
  193DOPS   C1A 2257  11.047   5.946  15.557 -0.2815  0.0776 -0.3626
  193DOPS   D2A 2258  11.304   5.656  15.251  0.0646 -0.0589 -0.1688
  193DOPS   C3A 2259  11.207   5.490  14.859  0.1050  0.0243 -0.2550
  193DOPS   C4A 2260  11.359   5.734  14.471  0.2902  0.0542 -0.0006
  193DOPS   C1B 2261  10.438   6.231  15.214 -0.1052 -0.0628 -0.2539
  193DOPS   D2B 2262  10.727   6.333  14.787 -0.2631  0.3090 -0.0130
  193DOPS   C3B 2263  10.568   6.201  14.386 -0.0761 -0.1086  0.1740
  193DOPS   C4B 2264  10.555   6.205  13.921  0.0822  0.1056 -0.0817
  194DOPE   NH3 2265   3.448  10.318  16.638  0.0333  0.0886  0.0500
  194DOPE   PO4 2266   3.432  10.074  16.841 -0.0247 -0.1326 -0.0309
  194DOPE   GL1 2267   3.568   9.956  16.430 -0.3317  0.3086 -0.2885
  194DOPE   GL2 2268   3.268   9.930  16.387  0.0275  0.2041 -0.3095
  194DOPE   C1A 2269   3.480  10.160  15.990 -0.1336  0.2063  0.0584
  194DOPE   D2A 2270   3.571  10.125  15.482  0.0582  0.0262 -0.0026
  194DOPE   C3A 2271   3.992   9.936  15.412 -0.5011  0.0784  0.0715
  194DOPE   C4A 2272   4.326   9.780  15.664 -0.4985 -0.0147 -0.4017
  194DOPE   C1B 2273   3.459   9.665  16.053 -0.1874 -0.1506  0.0402
  194DOPE   D2B 2274   3.735   9.368  15.933  0.2015 -0.1758  0.0749
  194DOPE   C3B 2275   3.696   8.967  15.683  0.0096  0.2296  0.1760
  194DOPE   C4B 2276   3.391   8.603  15.693  0.1793 -0.1009  0.3063
  195DOPE   NH3 2277   8.283   7.683  15.740 -0.1882 -0.2551 -0.0908
  195DOPE   PO4 2278   8.587   7.791  15.765  0.1902  0.2096  0.1712
  195DOPE   GL1 2279   8.550   7.734  15.400 -0.2308 -0.1831 -0.1563
  195DOPE   GL2 2280   8.298   7.555  15.226 -0.0436 -0.1383  0.0717
  195DOPE   C1A 2281   8.759   7.549  15.047 -0.1464  0.2357 -0.1000
  195DOPE   D2A 2282   9.006   7.705  14.676  0.1263 -0.3399  0.2093
  195DOPE   C3A 2283   9.009   7.725  14.225  0.1895 -0.2605 -0.1177
  195DOPE   C4A 2284   9.171   7.434  13.932 -0.0571  0.3632  0.0957
  195DOPE   C1B 2285   8.251   7.648  14.764  0.1373 -0.1350  0.3980
  195DOPE   D2B 2286   8.458   7.848  14.405  0.1298  0.2682  0.1980
  195DOPE   C3B 2287   8.601   7.908  13.959  0.4000  0.1042  0.0098
  195DOPE   C4B 2288   8.562   8.144  13.554  0.0217  0.0924  0.3267
  196DOPE   NH3 2289   7.643   4.629  15.838 -0.0340  0.0884  0.2079
  196DOPE   PO4 2290   7.739   4.916  15.963 -0.0870 -0.0751 -0.2695
  196DOPE   GL1 2291   7.699   5.043  15.525  0.2402  0.2741  0.2690
  196DOPE   GL2 2292   7.515   5.230  15.415 -0.1927  0.1708 -0.2210
  196DOPE   C1A 2293   7.514   4.747  15.264  0.1124 -0.2524 -0.1559
  196DOPE   D2A 2294   7.501   4.316  15.057  0.1063  0.1712 -0.1360
  196DOPE   C3A 2295   7.290   4.338  14.633 -0.1818 -0.2770  0.0787
  196DOPE   C4A 2296   7.129   4.457  14.218 -0.0424  0.0894  0.0981
  196DOPE   C1B 2297   7.112   5.201  15.177  0.0937 -0.1444 -0.1141
  196DOPE   D2B 2298   6.803   5.074  14.852  0.2637 -0.4310  0.0847
  196DOPE   C3B 2299   6.848   5.208  14.360 -0.0258 -0.0464  0.1069
  196DOPE   C4B 2300   7.226   5.251  14.049  0.1915 -0.0899 -0.0792
  197DOPC   NC3 2301  10.774  11.929  15.063 -0.1631 -0.0028  0.0162
  197DOPC   PO4 2302  10.741  11.621  15.310 -0.4116  0.0195  0.2148
  197DOPC   GL1 2303  10.584  11.409  15.027 -0.0833  0.1840 -0.2193
  197DOPC   GL2 2304  10.566  11.158  14.981 -0.0109  0.1154 -0.2289
  197DOPC   C1A 2305  10.856  11.398  14.624  0.3164 -0.0140 -0.0651
  197DOPC   D2A 2306  10.758  11.190  14.198  0.1077 -0.3943 -0.0601
  197DOPC   C3A 2307  11.123  11.297  13.925  0.0022 -0.0283  0.0950
  197DOPC   C4A 2308  11.604  11.143  13.926  0.2144  0.2186 -0.0235
  197DOPC   C1B 2309  10.565  10.964  14.599 -0.2925  0.0617 -0.0994
  197DOPC   D2B 2310  10.708  10.723  14.198 -0.0496  0.2260  0.1669
  197DOPC   C3B 2311  10.772  10.285  14.178 -0.1608  0.3146 -0.3747
  197DOPC   C4B 2312  10.597   9.902  14.008 -0.1214 -0.0126  0.3010
  198POSM   NC3 2313   1.669   5.771  16.541  0.0916  0.0048 -0.2752
  198POSM   PO4 2314   1.926   5.677  16.289 -0.0761 -0.1191  0.2100
  198POSM   AM1 2315   1.903   5.799  15.967 -0.0872 -0.0056 -0.0045
  198POSM   AM2 2316   1.768   5.829  15.749  0.2383  0.1406  0.4417
  198POSM   T1A 2317   2.126   6.196  15.721 -0.1942  0.0752 -0.0062
  198POSM   C2A 2318   2.096   6.448  15.398 -0.0637 -0.0842  0.2221
  198POSM   C3A 2319   2.024   6.529  14.924 -0.1866 -0.2578 -0.1590
  198POSM   C1B 2320   1.943   5.672  15.515 -0.1180  0.2709  0.3342
  198POSM   D2B 2321   1.908   5.408  15.141  0.2925 -0.0536 -0.0867
  198POSM   C3B 2322   1.540   5.118  15.290  0.1667  0.0664 -0.4395
  198POSM   C4B 2323   1.278   4.809  15.421 -0.0848 -0.3312 -0.0111
  199POSM   NC3 2324  34.028   8.844  17.078  0.1879  0.0484  0.1446
  199POSM   PO4 2325  34.143   9.199  16.912  0.1638 -0.0853  0.2513
  199POSM   AM1 2326  34.051   9.387  16.661 -0.0861  0.0265  0.0819
  199POSM   AM2 2327  33.990   9.369  16.355 -0.1127 -0.0490 -0.1423
  199POSM   T1A 2328  33.745   9.757  16.522  0.0603  0.1680 -0.2982
  199POSM   C2A 2329  33.456  10.001  16.294 -0.0846 -0.2999  0.0539
  199POSM   C3A 2330  33.121   9.914  15.990 -0.1744  0.0303  0.2480
  199POSM   C1B 2331  33.998   9.581  16.147  0.0501 -0.0681  0.0927
  199POSM   D2B 2332  34.187   9.754  15.799  0.2802  0.0106  0.2292
  199POSM   C3B 2333  34.169   9.696  15.338  0.2295 -0.1803 -0.3008
  199POSM   C4B 2334  34.258   9.336  14.977 -0.4483 -0.1840 -0.0750
  200DOPC   NC3 2335   5.098   4.747  15.876 -0.2873  0.1705  0.0258
  200DOPC   PO4 2336   5.491   4.591  15.935  0.0450  0.0721  0.1725
  200DOPC   GL1 2337   5.494   4.679  15.589  0.1730 -0.0720 -0.0272
  200DOPC   GL2 2338   5.740   4.843  15.511 -0.1568  0.0156 -0.5523
  200DOPC   C1A 2339   5.666   4.395  15.289 -0.2583 -0.2955 -0.0118
  200DOPC   D2A 2340   5.872   4.043  15.126  0.0059  0.2958 -0.2312
  200DOPC   C3A 2341   5.598   3.764  14.892 -0.2809  0.0412 -0.1285
  200DOPC   C4A 2342   5.258   3.883  14.583  0.1324  0.0175 -0.1750
  200DOPC   C1B 2343   5.685   4.859  15.122  0.1140  0.1297 -0.0115
  200DOPC   D2B 2344   5.627   4.878  14.638  0.1629 -0.2981  0.2617
  200DOPC   C3B 2345   5.924   4.618  14.406 -0.1983 -0.1764  0.2651
  200DOPC   C4B 2346   6.345   4.392  14.422 -0.2125  0.0551 -0.0902
  201DOPC   NC3 2347   8.103   4.718  15.762  0.1271  0.0335 -0.0657
  201DOPC   PO4 2348   8.314   5.028  15.875  0.0737 -0.1865  0.0987
  201DOPC   GL1 2349   8.307   5.037  15.490 -0.2677  0.0198  0.0294
  201DOPC   GL2 2350   8.256   5.263  15.423  0.0535 -0.1706  0.2347
  201DOPC   C1A 2351   8.608   4.814  15.211  0.0704  0.2149 -0.4180
  201DOPC   D2A 2352   8.670   4.883  14.739  0.2506 -0.2974  0.1121
  201DOPC   C3A 2353   9.086   4.848  14.548  0.1585 -0.1890 -0.0456
  201DOPC   C4A 2354   9.444   5.133  14.475 -0.1080 -0.0686 -0.4790
  201DOPC   C1B 2355   7.880   5.346  15.154  0.0464  0.1564 -0.0280
  201DOPC   D2B 2356   7.563   5.167  14.875 -0.0965  0.2262  0.0424
  201DOPC   C3B 2357   7.589   4.731  14.709  0.0024  0.0137 -0.0231
  201DOPC   C4B 2358   7.668   4.407  14.328 -0.1283  0.1304 -0.0441
  202DOPS   CNO 2359   0.386   8.304  16.652 -0.2726 -0.0666 -0.0044
  202DOPS   PO4 2360   0.013   8.224  16.601  0.2462 -0.1558 -0.1925
  202DOPS   GL1 2361   0.198   8.327  16.163 -0.1936 -0.1035  0.0984
  202DOPS   GL2 2362   0.163   8.424  15.859 -0.0176 -0.1645  0.0562
  202DOPS   C1A 2363   0.564   8.623  16.236  0.1158 -0.2385 -0.2927
  202DOPS   D2A 2364   0.906   8.891  15.999  0.1173 -0.3162 -0.2477
  202DOPS   C3A 2365   1.225   8.739  15.619  0.0883 -0.0231  0.0043
  202DOPS   C4A 2366   1.387   8.443  15.236  0.1081 -0.1839  0.2295
  202DOPS   C1B 2367   0.493   8.731  15.733 -0.2503 -0.3070 -0.1088
  202DOPS   D2B 2368   0.855   8.950  15.459 -0.2021  0.2896 -0.3178
  202DOPS   C3B 2369   0.817   9.301  15.144 -0.1911 -0.1127  0.1189
  202DOPS   C4B 2370   1.181   9.625  15.030  0.2507  0.2961  0.2608
  203DOPE   NH3 2371   7.645   0.842  14.695 -0.1543  0.1204  0.3160
  203DOPE   PO4 2372   7.363   0.826  14.762  0.0858 -0.0772 -0.1328
  203DOPE   GL1 2373   7.196   1.035  14.410 -0.0029 -0.0595  0.0378
  203DOPE   GL2 2374   7.031   1.149  14.509 -0.0211  0.1849 -0.3158
  203DOPE   C1A 2375   7.588   0.973  14.074 -0.0387  0.1241 -0.0543
  203DOPE   D2A 2376   7.676   1.014  13.640 -0.3464 -0.0823  0.0413
  203DOPE   C3A 2377   7.428   0.983  13.258  0.3615  0.0451 -0.0296
  203DOPE   C4A 2378   7.617   1.243  12.959 -0.1161  0.0709 -0.0087
  203DOPE   C1B 2379   6.794   1.035  14.152 -0.2852  0.2595  0.0041
  203DOPE   D2B 2380   6.795   1.233  13.776 -0.0956 -0.1538  0.1576
  203DOPE   C3B 2381   6.805   0.948  13.443 -0.1425 -0.0306  0.0631
  203DOPE   C4B 2382   6.813   0.859  13.040  0.2399  0.0121  0.0406
  204DOPS   CNO 2383   8.492   4.593  16.092 -0.4796  0.3155 -0.3075
  204DOPS   PO4 2384   8.710   4.287  15.954 -0.0295 -0.3056 -0.2808
  204DOPS   GL1 2385   8.893   4.289  15.683 -0.0878 -0.0429 -0.0570
  204DOPS   GL2 2386   8.864   4.198  15.405 -0.3313  0.0697 -0.0020
  204DOPS   C1A 2387   9.113   4.630  15.387  0.1089  0.3172 -0.0327
  204DOPS   D2A 2388   9.411   4.813  15.597  0.1714  0.4163 -0.0216
  204DOPS   C3A 2389   9.425   5.241  15.510 -0.1492  0.2328 -0.2150
  204DOPS   C4A 2390   9.610   5.695  15.535  0.3021 -0.0797 -0.0256
  204DOPS   C1B 2391   9.205   4.103  15.152  0.3370  0.0440 -0.0206
  204DOPS   D2B 2392   9.429   3.744  15.008 -0.1416 -0.0683  0.0338
  204DOPS   C3B 2393   9.376   3.774  14.560  0.0028  0.0640 -0.2225
  204DOPS   C4B 2394   9.191   4.015  14.201 -0.3382 -0.0531  0.1670
  205DOPE   NH3 2395  10.431   1.853  11.137  0.0359  0.0311  0.0636
  205DOPE   PO4 2396  10.424   1.599  10.950 -0.0965  0.2743 -0.3167
  205DOPE   GL1 2397  10.454   1.449  11.403  0.4584  0.3274  0.4598
  205DOPE   GL2 2398  10.545   1.147  11.336 -0.2621 -0.1202  0.0495
  205DOPE   C1A 2399  10.724   1.246  11.759 -0.2081  0.2334  0.0128
  205DOPE   D2A 2400  11.007   1.489  12.068 -0.0031  0.0466 -0.3754
  205DOPE   C3A 2401  11.054   1.212  12.467  0.2181 -0.2444  0.0317
  205DOPE   C4A 2402  11.184   0.875  12.860  0.1109  0.0196 -0.0081
  205DOPE   C1B 2403  10.973   0.977  11.344  0.3486 -0.2659 -0.1105
  205DOPE   D2B 2404  11.452   0.961  11.219 -0.2603 -0.0009  0.0744
  205DOPE   C3B 2405  11.758   1.239  11.471  0.2612 -0.1661  0.0613
  205DOPE   C4B 2406  12.076   1.078  11.713 -0.1641  0.1988  0.0557
  206DOPS   CNO 2407   1.343   4.144  12.941 -0.0152 -0.0673  0.2832
  206DOPS   PO4 2408   1.676   4.209  13.096  0.1581 -0.1775  0.2115
  206DOPS   GL1 2409   1.862   4.141  13.364 -0.2152  0.1757 -0.0800
  206DOPS   GL2 2410   1.746   4.186  13.644  0.2592 -0.0624 -0.2324
  206DOPS   C1A 2411   2.328   4.072  13.318 -0.1073 -0.0772 -0.2370
  206DOPS   D2A 2412   2.653   3.802  13.429 -0.0714  0.0687 -0.0005
  206DOPS   C3A 2413   2.372   3.417  13.468 -0.0893 -0.0042  0.0471
  206DOPS   C4A 2414   2.088   3.112  13.742  0.1156  0.4431  0.0430
  206DOPS   C1B 2415   1.518   3.926  13.937  0.1389  0.2252 -0.1952
  206DOPS   D2B 2416   1.524   3.779  14.367 -0.0441 -0.1280  0.0109
  206DOPS   C3B 2417   1.329   3.393  14.314 -0.3024 -0.1581  0.4605
  206DOPS   C4B 2418   1.244   3.021  14.498 -0.0940  0.0559  0.0800
  207DOPE   NH3 2419   8.232   1.970  11.237  0.1440 -0.0978 -0.2894
  207DOPE   PO4 2420   8.336   2.280  11.135 -0.1822  0.0011 -0.2432
  207DOPE   GL1 2421   8.435   2.321  11.586 -0.1161 -0.0842  0.0151
  207DOPE   GL2 2422   8.644   2.088  11.577  0.0422  0.0875 -0.3092
  207DOPE   C1A 2423   8.763   2.475  11.895 -0.2466  0.1708 -0.3387
  207DOPE   D2A 2424   8.741   2.556  12.352  0.0098  0.2019  0.0226
  207DOPE   C3A 2425   8.487   2.282  12.601 -0.0198 -0.1797  0.1123
  207DOPE   C4A 2426   8.417   1.977  12.945  0.3726 -0.1433  0.0970
  207DOPE   C1B 2427   8.716   1.944  11.989 -0.2793  0.0327  0.1934
  207DOPE   D2B 2428   8.899   2.067  12.408 -0.0925 -0.2826 -0.2369
  207DOPE   C3B 2429   9.317   2.047  12.628 -0.1749  0.2443  0.1407
  207DOPE   C4B 2430   9.620   1.828  12.907 -0.0102  0.1764  0.1212
  208DOPE   NH3 2431  10.102   1.823  11.501 -0.1552 -0.3059 -0.0984
  208DOPE   PO4 2432   9.991   1.554  11.400  0.0352  0.4037  0.1847
  208DOPE   GL1 2433   9.854   1.413  11.882 -0.0996 -0.1909  0.1269
  208DOPE   GL2 2434   9.808   1.690  12.035 -0.2923  0.2156 -0.1538
  208DOPE   C1A 2435   9.365   1.401  12.051  0.0983  0.2412 -0.0183
  208DOPE   D2A 2436   8.862   1.440  12.071  0.2855 -0.2711  0.2676
  208DOPE   C3A 2437   8.386   1.395  12.083 -0.2034  0.1314 -0.2735
  208DOPE   C4A 2438   8.071   1.430  12.391 -0.2662  0.0795 -0.0062
  208DOPE   C1B 2439   9.705   2.083  12.354 -0.3354 -0.0900  0.2515
  208DOPE   D2B 2440   9.978   2.250  12.668  0.1901  0.3456  0.1055
  208DOPE   C3B 2441  10.243   2.152  13.007 -0.0129  0.1861  0.0048
  208DOPE   C4B 2442  10.432   2.519  13.239  0.0731 -0.1295 -0.1280
  209DOPC   NC3 2443   9.791   2.458  11.452  0.0203  0.1926 -0.0348
  209DOPC   PO4 2444   9.609   2.100  11.445 -0.1550 -0.0476  0.2084
  209DOPC   GL1 2445   9.536   2.031  11.759 -0.1686 -0.0769 -0.0216
  209DOPC   GL2 2446   9.499   2.277  11.976  0.3003  0.1947  0.0003
  209DOPC   C1A 2447   9.247   1.857  12.104 -0.0146  0.1389 -0.1286
  209DOPC   D2A 2448   9.096   1.565  12.512  0.1150  0.1669  0.3202
  209DOPC   C3A 2449   9.189   1.157  12.586  0.0617  0.3734 -0.0031
  209DOPC   C4A 2450   9.067   0.970  12.266 -0.3226 -0.2304  0.3404
  209DOPC   C1B 2451   9.691   2.637  12.236  0.3291  0.0080  0.0979
  209DOPC   D2B 2452   9.748   2.687  12.636  0.2968 -0.0551  0.3172
  209DOPC   C3B 2453   9.529   2.379  12.964 -0.1606  0.2675  0.3582
  209DOPC   C4B 2454   9.740   2.107  13.284 -0.0151 -0.2627  0.1145
  210DOPC   NC3 2455   1.502   8.009  12.922  0.1658  0.0296 -0.2861
  210DOPC   PO4 2456   1.758   8.341  12.947  0.0609  0.0753 -0.0699
  210DOPC   GL1 2457   1.900   8.243  13.285 -0.0063  0.3278  0.1557
  210DOPC   GL2 2458   1.695   8.188  13.476  0.1081 -0.0084  0.0493
  210DOPC   C1A 2459   2.234   8.022  13.514 -0.4123  0.2543  0.3125
  210DOPC   D2A 2460   2.119   7.594  13.588 -0.2477  0.3467  0.2197
  210DOPC   C3A 2461   1.797   7.722  13.913  0.4024 -0.1510  0.1951
  210DOPC   C4A 2462   1.619   8.125  14.027  0.1194 -0.1523  0.2062
  210DOPC   C1B 2463   1.550   7.757  13.455 -0.1550 -0.1777 -0.0462
  210DOPC   D2B 2464   1.722   7.265  13.484  0.0541  0.0872 -0.3406
  210DOPC   C3B 2465   1.835   7.201  13.936  0.0456  0.0046  0.1370
  210DOPC   C4B 2466   1.595   7.191  14.321 -0.2849  0.0677 -0.1067
  211DOPE   NH3 2467  34.187   7.992  13.609  0.1470 -0.0059 -0.0818
  211DOPE   PO4 2468  34.457   8.055  13.413 -0.1320 -0.0332  0.1726
  211DOPE   GL1 2469  34.581   8.101  13.795  0.1908  0.0597 -0.3280
  211DOPE   GL2 2470  34.663   7.767  13.827  0.0693  0.1214 -0.2926
  211DOPE   C1A 2471  34.744   8.512  13.842 -0.2245  0.0371  0.0091
  211DOPE   D2A 2472  34.963   8.913  13.934 -0.0361 -0.1465  0.0130
  211DOPE   C3A 2473  34.865   8.823  14.370 -0.4439 -0.0134  0.2247
  211DOPE   C4A 2474  34.588   8.884  14.667  0.1971  0.0849 -0.1151
  211DOPE   C1B 2475  34.570   8.038  14.229 -0.1150 -0.3112 -0.1204
  211DOPE   D2B 2476  34.358   8.453  14.354  0.0456 -0.0466  0.3480
  211DOPE   C3B 2477  34.139   8.665  14.699  0.1469  0.0718  0.0338
  211DOPE   C4B 2478  33.979   8.490  15.153  0.0127  0.1238 -0.0989
  212DOPE   NH3 2479  11.170   9.905  11.792  0.0761 -0.0274  0.4671
  212DOPE   PO4 2480  11.097   9.669  11.991  0.0509 -0.2279 -0.1348
  212DOPE   GL1 2481  11.166   9.478  12.304 -0.0024 -0.3640  0.1393
  212DOPE   GL2 2482  11.350   9.247  12.247 -0.1034 -0.1563  0.0321
  212DOPE   C1A 2483  11.333   9.390  12.748 -0.2241 -0.0448  0.0864
  212DOPE   D2A 2484  11.380   9.495  13.177 -0.2891  0.1626  0.2970
  212DOPE   C3A 2485  11.263   9.658  13.536 -0.1637 -0.1781 -0.1854
  212DOPE   C4A 2486  11.680   9.705  13.706  0.4131  0.1694 -0.0251
  212DOPE   C1B 2487  11.137   9.010  12.604  0.1994  0.1123 -0.2182
  212DOPE   D2B 2488  10.906   9.069  13.001  0.0429 -0.1653 -0.0783
  212DOPE   C3B 2489  10.854   9.537  13.111  0.3069 -0.1165 -0.0635
  212DOPE   C4B 2490  10.737   9.732  13.544 -0.0885 -0.3239 -0.0448
  213DOPE   NH3 2491   6.833   4.902  12.493  0.2647 -0.0201 -0.1319
  213DOPE   PO4 2492   6.769   4.922  12.816 -0.0551  0.2147  0.1178
  213DOPE   GL1 2493   6.912   5.057  13.170 -0.2130 -0.1681  0.2544
  213DOPE   GL2 2494   6.564   5.180  13.316  0.0681 -0.0055  0.1216
  213DOPE   C1A 2495   7.024   5.514  13.246 -0.0751  0.1331 -0.1779
  213DOPE   D2A 2496   6.938   5.876  13.496 -0.1564  0.1355  0.0198
  213DOPE   C3A 2497   7.186   6.274  13.658  0.1707 -0.1453 -0.0357
  213DOPE   C4A 2498   6.958   6.630  13.770  0.0082 -0.2355  0.4933
  213DOPE   C1B 2499   6.572   4.825  13.650  0.4441  0.0082 -0.1067
  213DOPE   D2B 2500   6.325   4.615  13.945  0.0015 -0.1325  0.1221
  213DOPE   C3B 2501   6.157   5.011  14.083 -0.2410 -0.0246  0.2488
  213DOPE   C4B 2502   6.048   5.448  14.004 -0.0784  0.0861  0.0158
  214POSM   NC3 2503   0.636   8.577  13.718  0.2647 -0.0254  0.0218
  214POSM   PO4 2504   0.733   8.354  13.417 -0.2441  0.2130  0.1571
  214POSM   AM1 2505   1.006   8.371  13.614 -0.0569 -0.0074 -0.0419
  214POSM   AM2 2506   1.034   8.322  13.861 -0.2939 -0.1049  0.2614
  214POSM   T1A 2507   1.472   8.499  13.784  0.0160 -0.1830  0.2524
  214POSM   C2A 2508   1.679   8.560  14.200  0.1281  0.1280  0.2654
  214POSM   C3A 2509   1.944   8.708  14.535 -0.1628  0.0655 -0.2582
  214POSM   C1B 2510   1.173   8.246  14.181  0.1616  0.0284  0.2539
  214POSM   D2B 2511   1.339   8.330  14.589  0.2520 -0.0126  0.2317
  214POSM   C3B 2512   1.430   8.771  14.744 -0.2472 -0.0515 -0.2375
  214POSM   C4B 2513   1.271   9.168  14.602 -0.0544 -0.0117 -0.1234
  215DOPE   NH3 2514   4.097   7.518  13.388 -0.2374  0.0707  0.2915
  215DOPE   PO4 2515   3.854   7.723  13.392 -0.0738 -0.2698  0.1689
  215DOPE   GL1 2516   3.972   7.948  13.665 -0.2089  0.1996 -0.2636
  215DOPE   GL2 2517   4.065   7.723  13.873  0.3038 -0.4894  0.1922
  215DOPE   C1A 2518   3.773   8.265  13.991  0.2772  0.2823 -0.2954
  215DOPE   D2A 2519   3.798   8.368  14.457 -0.1806 -0.2244 -0.0231
  215DOPE   C3A 2520   3.399   8.383  14.703  0.0919  0.0229 -0.0924
  215DOPE   C4A 2521   3.063   8.202  14.921 -0.0642  0.0807 -0.1253
  215DOPE   C1B 2522   4.145   7.934  14.292 -0.1691  0.4508 -0.0553
  215DOPE   D2B 2523   4.275   8.245  14.678 -0.2703  0.1524  0.1076
  215DOPE   C3B 2524   3.945   8.433  14.930 -0.1386  0.2867 -0.4113
  215DOPE   C4B 2525   3.855   8.464  15.386 -0.2452 -0.2211 -0.2659
  216POSM   NC3 2526   7.744   6.560  12.947  0.1297  0.1827  0.0016
  216POSM   PO4 2527   7.778   6.684  12.568  0.2866 -0.0367 -0.1060
  216POSM   AM1 2528   7.715   6.991  12.694  0.2021 -0.1883 -0.0219
  216POSM   AM2 2529   7.757   7.116  12.947 -0.1922  0.4583 -0.0454
  216POSM   T1A 2530   7.475   7.444  12.730 -0.2148 -0.0928 -0.3692
  216POSM   C2A 2531   7.275   7.900  12.603  0.1239  0.1864 -0.0060
  216POSM   C3A 2532   7.312   8.087  12.169 -0.0716 -0.2913  0.2846
  216POSM   C1B 2533   7.738   7.042  13.250  0.3426  0.3105 -0.2489
  216POSM   D2B 2534   7.630   7.002  13.696  0.0115  0.5024  0.1267
  216POSM   C3B 2535   7.455   6.595  13.972  0.0875  0.1200 -0.0245
  216POSM   C4B 2536   7.317   6.205  14.169 -0.3433 -0.0808  0.1408
  217POSM   NC3 2537   0.272   0.295  13.249 -0.0296 -0.1269  0.1053
  217POSM   PO4 2538   0.207   0.313  12.857  0.0550  0.0945 -0.0856
  217POSM   AM1 2539   0.384   0.508  12.874 -0.2117  0.2588 -0.0600
  217POSM   AM2 2540   0.587   0.623  13.033  0.1068  0.0408  0.1974
  217POSM   T1A 2541   0.376   1.008  12.829 -0.2247  0.0081 -0.2831
  217POSM   C2A 2542   0.349   1.489  12.875 -0.0804  0.1039 -0.0987
  217POSM   C3A 2543   0.330   1.839  13.188 -0.2891 -0.0946 -0.0004
  217POSM   C1B 2544   0.563   0.890  13.269 -0.3159 -0.1675  0.0984
  217POSM   D2B 2545   0.474   1.317  13.361 -0.1316 -0.0603  0.2910
  217POSM   C3B 2546   0.117   1.255  13.634  0.2839 -0.1027 -0.1327
  217POSM   C4B 2547  -0.231   1.378  13.896  0.3904  0.0333 -0.2426
  218DOPC   NC3 2548  10.047   8.352  11.862 -0.4895 -0.3957 -0.1264
  218DOPC   PO4 2549  10.463   8.290  11.939 -0.0812  0.0387 -0.0449
  218DOPC   GL1 2550  10.603   8.606  11.920 -0.0357 -0.0144  0.3381
  218DOPC   GL2 2551  10.323   8.745  11.747  0.2411 -0.3661  0.0427
  218DOPC   C1A 2552  10.759   9.000  12.132 -0.1255 -0.1026  0.0411
  218DOPC   D2A 2553  10.713   9.381  12.343 -0.2430 -0.0239  0.0772
  218DOPC   C3A 2554  10.925   9.681  12.635  0.1821  0.1327 -0.1233
  218DOPC   C4A 2555  11.092   9.946  12.915  0.3189 -0.4552 -0.2186
  218DOPC   C1B 2556   9.937   8.866  11.829  0.0118  0.2200  0.1500
  218DOPC   D2B 2557   9.438   8.939  11.885 -0.2720 -0.1422 -0.1010
  218DOPC   C3B 2558   8.991   8.912  12.052  0.1232  0.0132 -0.1832
  218DOPC   C4B 2559   8.789   9.161  12.394  0.0480 -0.0428  0.0353
  219DOPC   NC3 2560   7.793   6.805  12.066 -0.1966 -0.0520 -0.0089
  219DOPC   PO4 2561   7.514   6.987  12.238  0.0944  0.1026  0.0590
  219DOPC   GL1 2562   7.899   7.101  12.355  0.4987 -0.2492  0.0056
  219DOPC   GL2 2563   7.914   7.361  12.127  0.1569 -0.2758 -0.0373
  219DOPC   C1A 2564   8.014   7.392  12.670 -0.3435 -0.1029 -0.1414
  219DOPC   D2A 2565   8.121   7.872  12.724  0.0807 -0.2030 -0.1895
  219DOPC   C3A 2566   8.095   8.059  13.227 -0.1309 -0.2432  0.0660
  219DOPC   C4A 2567   8.096   8.409  13.515 -0.1003  0.0446 -0.0356
  219DOPC   C1B 2568   7.801   7.728  12.279  0.1388  0.0428  0.4462
  219DOPC   D2B 2569   7.768   8.122  12.507  0.4292 -0.0208 -0.3100
  219DOPC   C3B 2570   7.608   8.054  12.952 -0.0950 -0.4205  0.1606
  219DOPC   C4B 2571   7.594   8.068  13.387 -0.1471  0.1972 -0.0765
  220DOPC   NC3 2572   2.835   5.519  12.526 -0.0598  0.0953  0.1663
  220DOPC   PO4 2573   3.137   5.398  12.300 -0.0533  0.3229  0.0803
  220DOPC   GL1 2574   3.316   5.169  12.476 -0.0549 -0.2676 -0.1154
  220DOPC   GL2 2575   3.630   5.131  12.292  0.2292 -0.1060 -0.0304
  220DOPC   C1A 2576   3.419   5.012  12.933 -0.1340  0.3031  0.0712
  220DOPC   D2A 2577   3.719   4.866  13.245  0.0251  0.1173  0.0344
  220DOPC   C3A 2578   4.177   4.878  13.194 -0.0666  0.1382  0.0631
  220DOPC   C4A 2579   4.433   4.881  12.786 -0.2483  0.0005  0.0471
  220DOPC   C1B 2580   3.990   4.854  12.159  0.0375 -0.2241 -0.0985
  220DOPC   D2B 2581   4.493   4.818  12.224  0.1750 -0.0677 -0.1234
  220DOPC   C3B 2582   4.652   5.196  12.458  0.0054 -0.0739  0.0424
  220DOPC   C4B 2583   4.510   5.614  12.533  0.0997 -0.0363 -0.1850
  221DOPE   NH3 2584   7.037   0.481  11.530 -0.3635 -0.0448 -0.0697
  221DOPE   PO4 2585   6.741   0.347  11.602  0.0608  0.0693 -0.2855
  221DOPE   GL1 2586   6.680   0.473  11.989  0.1365  0.0102 -0.3362
  221DOPE   GL2 2587   6.969   0.542  12.096  0.0209  0.0468  0.0404
  221DOPE   C1A 2588   6.397   0.354  12.358  0.2409 -0.1848  0.1326
  221DOPE   D2A 2589   6.034   0.285  12.706  0.1375 -0.1072 -0.1087
  221DOPE   C3A 2590   5.542   0.298  12.782 -0.1458 -0.2973 -0.2325
  221DOPE   C4A 2591   5.096   0.456  12.730 -0.4562  0.3759 -0.1248
  221DOPE   C1B 2592   6.768   0.690  12.521  0.1466  0.2692 -0.0988
  221DOPE   D2B 2593   6.438   0.634  12.835 -0.1268 -0.1304 -0.1969
  221DOPE   C3B 2594   6.158   0.953  12.994 -0.0842 -0.0150 -0.2386
  221DOPE   C4B 2595   5.763   1.153  12.891  0.1176 -0.0232 -0.0687
  222POSM   NC3 2596   5.618   0.413  11.744 -0.0628  0.0766 -0.1970
  222POSM   PO4 2597   5.233   0.326  11.737 -0.0699  0.0370  0.0378
  222POSM   AM1 2598   5.172   0.135  11.996  0.0831  0.2098  0.1451
  222POSM   AM2 2599   5.423  -0.056  12.035  0.0073 -0.0086 -0.0114
  222POSM   T1A 2600   4.922  -0.289  12.057  0.1073 -0.3278 -0.0787
  222POSM   C2A 2601   4.704  -0.710  12.036  0.1256  0.0735 -0.0714
  222POSM   C3A 2602   4.348  -1.003  11.858  0.1193 -0.0928 -0.0930
  222POSM   C1B 2603   5.382  -0.317  12.267  0.0765  0.3312 -0.0832
  222POSM   D2B 2604   5.595  -0.578  12.554 -0.1340 -0.0599  0.0361
  222POSM   C3B 2605   6.054  -0.570  12.655 -0.2642  0.1091 -0.0863
  222POSM   C4B 2606   6.355  -0.545  12.944  0.0284 -0.1209  0.1037
  223DOPE   NH3 2607   1.303   8.489  13.262 -0.1119  0.0136 -0.1446
  223DOPE   PO4 2608   1.047   8.525  13.060 -0.3766  0.0556 -0.0708
  223DOPE   GL1 2609   0.913   8.779  13.301  0.1760  0.5504  0.3778
  223DOPE   GL2 2610   0.702   8.871  13.217  0.0643  0.1896  0.1179
  223DOPE   C1A 2611   0.939   9.237  13.413 -0.1495 -0.2567 -0.0526
  223DOPE   D2A 2612   0.993   9.456  13.808  0.1091 -0.2783 -0.0211
  223DOPE   C3A 2613   1.324   9.332  14.117 -0.0350  0.2210 -0.0291
  223DOPE   C4A 2614   1.642   9.046  14.219  0.2175  0.0063  0.1701
  223DOPE   C1B 2615   0.463   9.111  13.540  0.0996 -0.0696 -0.0820
  223DOPE   D2B 2616   0.452   9.363  13.915 -0.2277 -0.2533  0.1655
  223DOPE   C3B 2617   0.382   9.402  14.414  0.2272  0.1989 -0.1785
  223DOPE   C4B 2618   0.523   9.129  14.797 -0.2061 -0.0584 -0.0591
  224DOPC   NC3 2619   7.940  34.211  11.090 -0.1053 -0.0554  0.0404
  224DOPC   PO4 2620   8.274  34.448  11.025  0.1135  0.0792 -0.2693
  224DOPC   GL1 2621   8.473  34.269  11.258 -0.1580 -0.0130 -0.2302
  224DOPC   GL2 2622   8.699  34.409  11.298 -0.1180 -0.0117 -0.2033
  224DOPC   C1A 2623   8.546  33.989  11.611  0.1201 -0.2046 -0.2331
  224DOPC   D2A 2624   8.618  33.592  11.886  0.0956 -0.0559 -0.1676
  224DOPC   C3A 2625   8.808  33.178  11.873 -0.2068  0.2383  0.3221
  224DOPC   C4A 2626   8.679  32.754  11.921  0.1587 -0.1587  0.0854
  224DOPC   C1B 2627   8.830  34.503  11.748 -0.2228  0.2619  0.1682
  224DOPC   D2B 2628   8.874  34.686  12.177  0.0581 -0.2975  0.6161
  224DOPC   C3B 2629   8.895  35.067  12.451 -0.1704  0.0014  0.2292
  224DOPC   C4B 2630   9.082  35.275  12.794 -0.0925 -0.1156  0.1754
  225POSM   NC3 2631   6.837  34.216  11.316  0.3158 -0.0793 -0.1887
  225POSM   PO4 2632   6.931  34.582  11.222  0.2060 -0.3040  0.2582
  225POSM   AM1 2633   6.862  34.545  11.588  0.1786  0.1080 -0.0291
  225POSM   AM2 2634   6.666  34.547  11.834  0.1323  0.2206 -0.1872
  225POSM   T1A 2635   7.078  34.516  12.055 -0.0825  0.0807 -0.2969
  225POSM   C2A 2636   7.475  34.490  12.244 -0.0553  0.0016  0.0183
  225POSM   C3A 2637   7.735  34.414  11.940 -0.0146 -0.2570  0.0953
  225POSM   C1B 2638   6.659  34.719  12.117 -0.0465 -0.0269  0.2069
  225POSM   D2B 2639   6.861  34.836  12.493  0.2191 -0.4020 -0.1569
  225POSM   C3B 2640   7.255  34.685  12.698 -0.2122  0.3671  0.1764
  225POSM   C4B 2641   7.332  34.243  12.801 -0.2162 -0.1882 -0.4148
  226DOPE   NH3 2642   7.918   5.613  12.627 -0.3714  0.2976 -0.1668
  226DOPE   PO4 2643   7.967   5.713  12.892 -0.4869 -0.1382 -0.0574
  226DOPE   GL1 2644   7.932   5.717  13.309 -0.1176  0.1179 -0.3134
  226DOPE   GL2 2645   8.224   5.641  13.371  0.0153 -0.0468 -0.2100
  226DOPE   C1A 2646   7.935   5.779  13.781 -0.0945 -0.0617  0.0252
  226DOPE   D2A 2647   8.158   5.585  14.174 -0.4686 -0.5097 -0.1658
  226DOPE   C3A 2648   8.289   5.949  14.383  0.2010  0.0966 -0.1853
  226DOPE   C4A 2649   8.742   6.081  14.473  0.1322  0.4660  0.1249
  226DOPE   C1B 2650   8.598   5.441  13.384  0.3207 -0.0229  0.2367
  226DOPE   D2B 2651   9.066   5.378  13.282  0.0700 -0.2704 -0.1188
  226DOPE   C3B 2652   9.233   5.220  13.619 -0.1218 -0.2361  0.0300
  226DOPE   C4B 2653   9.474   4.973  13.931  0.2193  0.1049 -0.2020
  227DOPE   NH3 2654   0.182   4.307  13.446 -0.0247  0.0636 -0.1225
  227DOPE   PO4 2655   0.008   4.371  13.695 -0.4530 -0.2531 -0.2031
  227DOPE   GL1 2656  -0.376   4.456  13.847 -0.1744 -0.1883 -0.0560
  227DOPE   GL2 2657  -0.338   4.742  13.702 -0.3954 -0.0760 -0.0538
  227DOPE   C1A 2658  -0.713   4.722  14.056  0.1880  0.3208  0.0959
  227DOPE   D2A 2659  -0.742   5.046  14.387  0.1426  0.2326  0.2640
  227DOPE   C3A 2660  -0.531   5.429  14.265 -0.0403  0.4081  0.1600
  227DOPE   C4A 2661  -0.051   5.500  14.179 -0.1423 -0.0156 -0.0902
  227DOPE   C1B 2662  -0.507   5.194  13.792 -0.0061 -0.0204 -0.2097
  227DOPE   D2B 2663  -0.521   5.493  13.463  0.2396 -0.2316  0.2146
  227DOPE   C3B 2664  -0.215   5.335  13.235 -0.2431  0.2046  0.1354
  227DOPE   C4B 2665   0.152   5.415  12.939  0.0074 -0.1389  0.1871
  228DOPC   NC3 2666   4.460   6.929  12.719  0.0891  0.1996  0.1084
  228DOPC   PO4 2667   4.253   7.257  12.830 -0.1103 -0.3374  0.0092
  228DOPC   GL1 2668   4.389   7.141  13.187  0.1389  0.0988  0.1230
  228DOPC   GL2 2669   4.241   6.866  13.217  0.1496 -0.2101 -0.2804
  228DOPC   C1A 2670   4.458   7.198  13.679 -0.0069  0.1114  0.1893
  228DOPC   D2A 2671   4.403   7.409  14.046 -0.0668 -0.2393 -0.0867
  228DOPC   C3A 2672   4.677   7.430  14.435 -0.1619 -0.0662 -0.0993
  228DOPC   C4A 2673   4.574   7.470  14.877 -0.2873 -0.2281 -0.0032
  228DOPC   C1B 2674   4.539   6.636  13.482 -0.0902 -0.1658  0.1246
  228DOPC   D2B 2675   4.951   6.458  13.626 -0.0777 -0.1633  0.0029
  228DOPC   C3B 2676   5.039   6.532  14.086  0.0915 -0.5238 -0.1474
  228DOPC   C4B 2677   5.277   6.873  14.268  0.1133 -0.0812  0.3650
  229DOPE   NH3 2678   0.654   8.196  12.943 -0.1771  0.3965  0.1596
  229DOPE   PO4 2679   0.965   8.058  12.843  0.1182  0.2501 -0.3182
  229DOPE   GL1 2680   0.961   7.816  13.228  0.0510 -0.2532 -0.3659
  229DOPE   GL2 2681   1.121   8.034  13.337  0.0873  0.0668 -0.0724
  229DOPE   C1A 2682   1.119   7.414  13.504  0.0348 -0.0326 -0.3496
  229DOPE   D2A 2683   1.374   7.374  13.876 -0.0763 -0.2225 -0.1549
  229DOPE   C3A 2684   1.386   7.659  14.213  0.1392 -0.2745  0.2206
  229DOPE   C4A 2685   1.229   7.727  14.680 -0.2377  0.5258  0.1253
  229DOPE   C1B 2686   1.217   7.878  13.804  0.2416  0.3153 -0.0781
  229DOPE   D2B 2687   0.884   7.818  14.166 -0.1106 -0.0475  0.1283
  229DOPE   C3B 2688   0.740   7.498  14.482  0.1497 -0.0949  0.0553
  229DOPE   C4B 2689   0.461   7.141  14.580  0.1035  0.2257  0.1518
  230POSM   NC3 2690   8.406   5.681  12.681 -0.0353 -0.0369 -0.4275
  230POSM   PO4 2691   8.330   5.363  12.407 -0.3381 -0.0553 -0.0135
  230POSM   AM1 2692   8.473   5.149  12.622  0.0082 -0.3757 -0.1037
  230POSM   AM2 2693   8.479   4.868  12.630  0.2822 -0.0515  0.2778
  230POSM   T1A 2694   8.653   5.064  13.085  0.2322 -0.4140 -0.1608
  230POSM   C2A 2695   8.680   4.994  13.531 -0.4048  0.0323 -0.1769
  230POSM   C3A 2696   8.879   4.952  13.942  0.1584 -0.0744  0.1144
  230POSM   C1B 2697   8.747   4.709  12.718 -0.2270  0.3543 -0.0004
  230POSM   D2B 2698   9.225   4.686  12.772 -0.0352  0.4178  0.3347
  230POSM   C3B 2699   9.207   4.902  13.190  0.2119  0.3013  0.1368
  230POSM   C4B 2700   9.196   4.701  13.604 -0.0363 -0.3156 -0.0880
  231DOPC   NC3 2701   8.810   7.136  12.670  0.0218  0.1265  0.0159
  231DOPC   PO4 2702   8.801   7.051  12.260 -0.2382  0.0225 -0.1075
  231DOPC   GL1 2703   8.895   7.485  12.390 -0.3518  0.2442  0.2578
  231DOPC   GL2 2704   8.925   7.617  12.133  0.0432 -0.1312 -0.2653
  231DOPC   C1A 2705   8.958   7.860  12.710 -0.1651 -0.1592 -0.2135
  231DOPC   D2A 2706   9.151   7.903  13.166  0.1220  0.0826 -0.0789
  231DOPC   C3A 2707   9.365   7.533  13.345 -0.2612  0.4327 -0.0335
  231DOPC   C4A 2708   9.518   7.148  13.571  0.0979  0.0288 -0.0004
  231DOPC   C1B 2709   8.597   7.858  12.358  0.0545 -0.1141  0.3648
  231DOPC   D2B 2710   8.595   8.234  12.638  0.2095 -0.1773 -0.4854
  231DOPC   C3B 2711   8.881   8.325  13.053  0.1753  0.0605 -0.4136
  231DOPC   C4B 2712   9.021   8.312  13.515  0.0608  0.3744 -0.4021
  232POSM   NC3 2713   6.898  10.047  12.843  0.1696 -0.3333  0.1982
  232POSM   PO4 2714   6.918  10.300  13.140  0.2592  0.0085 -0.1247
  232POSM   AM1 2715   6.936  10.361  13.494  0.2827  0.0091  0.1479
  232POSM   AM2 2716   7.154  10.371  13.614  0.0275  0.2215  0.2063
  232POSM   T1A 2717   6.833  10.589  13.893  0.0137 -0.4807  0.0921
  232POSM   C2A 2718   7.013  10.921  14.201  0.0297  0.1774 -0.3551
  232POSM   C3A 2719   7.318  10.934  14.587 -0.2739  0.3229  0.1844
  232POSM   C1B 2720   7.432  10.371  13.857  0.0982  0.0621 -0.1544
  232POSM   D2B 2721   7.772  10.149  13.996 -0.1752  0.2056 -0.3299
  232POSM   C3B 2722   8.198  10.287  13.908  0.2625 -0.1917  0.1481
  232POSM   C4B 2723   8.463  10.539  13.544  0.0068  0.1034 -0.0468
  233DOPE   NH3 2724   5.520   0.960  11.484 -0.0957  0.4508  0.0344
  233DOPE   PO4 2725   5.857   0.950  11.613 -0.0759  0.3090  0.0625
  233DOPE   GL1 2726   5.824   0.765  11.951 -0.0367  0.0960  0.2433
  233DOPE   GL2 2727   5.608   0.889  12.122  0.0664  0.1070 -0.2484
  233DOPE   C1A 2728   5.936   0.321  12.173  0.1658  0.1352 -0.0724
  233DOPE   D2A 2729   5.783  -0.032  12.383 -0.0840  0.1324 -0.0390
  233DOPE   C3A 2730   5.806  -0.130  12.827  0.4330  0.2480  0.0140
  233DOPE   C4A 2731   5.418  -0.077  13.141  0.0829  0.0485 -0.1057
  233DOPE   C1B 2732   5.483   0.448  12.325  0.4551  0.2778  0.2975
  233DOPE   D2B 2733   5.250   0.116  12.455 -0.3030  0.4555 -0.4916
  233DOPE   C3B 2734   4.853  -0.064  12.663  0.0038  0.3388  0.1218
  233DOPE   C4B 2735   4.658  -0.463  12.818 -0.0640 -0.2142  0.0614
  234DOPC   NC3 2736   8.170   4.390  12.819  0.1834  0.1628  0.0072
  234DOPC   PO4 2737   8.176   4.511  12.456  0.1157 -0.0102 -0.2841
  234DOPC   GL1 2738   8.390   4.203  12.387  0.0054  0.4106  0.0707
  234DOPC   GL2 2739   8.642   4.229  12.575  0.3790 -0.1962  0.1137
  234DOPC   C1A 2740   8.490   3.715  12.421 -0.1889  0.1863 -0.1001
  234DOPC   D2A 2741   8.432   3.291  12.273  0.2325  0.0848  0.0791
  234DOPC   C3A 2742   8.550   2.923  12.609  0.5698  0.0585  0.2272
  234DOPC   C4A 2743   8.807   2.926  12.996  0.2701  0.1494  0.0219
  234DOPC   C1B 2744   9.003   4.107  12.826  0.3936 -0.3986 -0.1791
  234DOPC   D2B 2745   9.373   3.845  12.994 -0.1491 -0.3762  0.3576
  234DOPC   C3B 2746   9.828   3.828  13.129  0.0272 -0.1883 -0.1713
  234DOPC   C4B 2747  10.250   3.638  13.126  0.1337 -0.3460 -0.1110
  235DOPE   NH3 2748  12.433  34.612  10.654 -0.2789 -0.0155 -0.0934
  235DOPE   PO4 2749  12.223  34.752  10.450 -0.0730  0.0815  0.2427
  235DOPE   GL1 2750  12.066  34.936  10.715  0.2216 -0.1039  0.3660
  235DOPE   GL2 2751  11.966  34.845  10.988  0.2129 -0.1782 -0.3358
  235DOPE   C1A 2752  11.893  35.310  10.936  0.2691  0.1014  0.2113
  235DOPE   D2A 2753  11.847  35.414  11.396  0.2403  0.0410 -0.3670
  235DOPE   C3A 2754  11.525  35.515  11.730  0.1955 -0.0090  0.0062
  235DOPE   C4A 2755  11.076  35.581  11.906 -0.1126  0.2287 -0.0105
  235DOPE   C1B 2756  11.578  34.978  11.249  0.1191 -0.1796 -0.0577
  235DOPE   D2B 2757  11.279  35.220  11.421 -0.1413 -0.0258 -0.3652
  235DOPE   C3B 2758  10.992  35.084  11.744 -0.1442  0.0265 -0.1523
  235DOPE   C4B 2759  10.783  35.218  12.161 -0.1435  0.2547 -0.3290
  236POSM   NC3 2760   0.807   4.232  12.859 -0.0437 -0.2930  0.1244
  236POSM   PO4 2761   0.978   4.491  13.102 -0.1778  0.1431  0.0485
  236POSM   AM1 2762   1.183   4.422  13.344  0.2636  0.0159 -0.0212
  236POSM   AM2 2763   1.401   4.477  13.504 -0.1031 -0.3199  0.0559
  236POSM   T1A 2764   1.199   4.310  13.894  0.4758  0.0913  0.0558
  236POSM   C2A 2765   1.327   4.223  14.339 -0.2063  0.0459 -0.0178
  236POSM   C3A 2766   1.315   4.047  14.784  0.0171 -0.1268 -0.2858
  236POSM   C1B 2767   1.525   4.613  13.725 -0.0330  0.0506  0.2683
  236POSM   D2B 2768   1.602   4.615  14.169 -0.3052  0.1848  0.1462
  236POSM   C3B 2769   1.834   4.239  14.221  0.0471 -0.3473 -0.0148
  236POSM   C4B 2770   1.957   3.792  14.107  0.0633 -0.2393 -0.1832
  237DOPC   NC3 2771   7.122   7.272  12.410  0.0371  0.3360 -0.0069
  237DOPC   PO4 2772   6.992   6.948  12.280  0.1445  0.1306 -0.1613
  237DOPC   GL1 2773   6.729   6.975  12.604  0.1353 -0.0294  0.1376
  237DOPC   GL2 2774   6.653   6.700  12.700 -0.2409 -0.1133 -0.2451
  237DOPC   C1A 2775   6.300   7.008  12.816  0.0721  0.1214 -0.1732
  237DOPC   D2A 2776   5.944   6.945  13.093 -0.4130  0.0926 -0.3101
  237DOPC   C3A 2777   5.573   6.665  13.009  0.5186  0.0091  0.0396
  237DOPC   C4A 2778   5.188   6.456  13.080 -0.3458 -0.0910 -0.4027
  237DOPC   C1B 2779   6.859   6.947  13.128  0.1376  0.0932  0.0667
  237DOPC   D2B 2780   6.775   7.101  13.571  0.3154 -0.1947  0.1742
  237DOPC   C3B 2781   6.711   7.122  14.060 -0.3161  0.0754  0.0092
  237DOPC   C4B 2782   7.098   7.107  14.388  0.2980 -0.3601 -0.4316
  238POSM   NC3 2783   7.228   1.091  10.918 -0.1296  0.0677  0.0031
  238POSM   PO4 2784   7.096   0.835  11.123  0.0237  0.0121  0.1516
  238POSM   AM1 2785   7.305   0.943  11.371 -0.0255  0.1914 -0.0768
  238POSM   AM2 2786   7.343   1.208  11.462  0.1751  0.1793 -0.0207
  238POSM   T1A 2787   7.425   0.755  11.837 -0.2040 -0.0072  0.0062
  238POSM   C2A 2788   7.746   0.583  12.086 -0.4401  0.2405  0.1641
  238POSM   C3A 2789   7.882   0.146  12.213  0.0364  0.2251  0.3467
  238POSM   C1B 2790   7.542   1.264  11.735 -0.2460  0.3874 -0.0459
  238POSM   D2B 2791   7.906   1.438  11.889 -0.0258  0.1774 -0.2129
  238POSM   C3B 2792   7.761   1.848  12.131  0.2123 -0.2171  0.4316
  238POSM   C4B 2793   7.526   2.142  12.366  0.2887 -0.0004  0.0070
  239POSM   NC3 2794   0.580   7.634  13.096  0.0152  0.1803  0.1263
  239POSM   PO4 2795   0.310   7.670  12.788  0.0185 -0.1198  0.0196
  239POSM   AM1 2796   0.267   7.321  12.835  0.3442 -0.1449 -0.1205
  239POSM   AM2 2797   0.301   7.192  13.066  0.0018 -0.0388  0.0402
  239POSM   T1A 2798   0.230   6.828  12.835 -0.3502  0.2283 -0.0446
  239POSM   C2A 2799   0.283   6.454  13.051 -0.1365  0.3439  0.1747
  239POSM   C3A 2800   0.609   6.159  13.216  0.2491 -0.3573 -0.0344
  239POSM   C1B 2801   0.557   7.131  13.261 -0.0589 -0.0982  0.0827
  239POSM   D2B 2802   0.807   6.996  13.649 -0.0140 -0.2246  0.1719
  239POSM   C3B 2803   0.751   6.571  13.815 -0.0851 -0.1623  0.1791
  239POSM   C4B 2804   0.735   6.089  13.785 -0.0969  0.0597  0.0300
  240DOPC   NC3 2805   5.524   2.418  12.231  0.1472 -0.2374  0.2096
  240DOPC   PO4 2806   5.180   2.455  12.096 -0.0180  0.5758  0.0200
  240DOPC   GL1 2807   4.983   2.469  12.493  0.2213  0.1659  0.0035
  240DOPC   GL2 2808   5.156   2.325  12.598  0.3584  0.1269 -0.0779
  240DOPC   C1A 2809   4.608   2.380  12.758 -0.1640  0.0342 -0.1308
  240DOPC   D2A 2810   4.469   2.176  13.216 -0.2748  0.3154  0.0736
  240DOPC   C3A 2811   4.088   2.006  13.438  0.2646 -0.1281 -0.3417
  240DOPC   C4A 2812   4.030   1.834  13.910  0.0034 -0.1304 -0.1481
  240DOPC   C1B 2813   5.138   2.297  13.061  0.3850  0.0721 -0.2909
  240DOPC   D2B 2814   5.056   2.228  13.527 -0.1912 -0.0899 -0.2147
  240DOPC   C3B 2815   5.331   2.033  13.816 -0.1273  0.1862 -0.0831
  240DOPC   C4B 2816   5.721   2.000  13.971  0.1564  0.0926 -0.5795
  241DOPE   NH3 2817   2.491   0.953  11.866 -0.2645  0.0386 -0.1282
  241DOPE   PO4 2818   2.506   1.272  11.945 -0.1160 -0.0481 -0.1007
  241DOPE   GL1 2819   2.736   1.311  12.233 -0.2492 -0.4551 -0.3142
  241DOPE   GL2 2820   2.943   1.477  12.044  0.1912 -0.3071 -0.0221
  241DOPE   C1A 2821   2.611   1.572  12.630 -0.0193  0.3078 -0.1526
  241DOPE   D2A 2822   2.616   1.842  13.021  0.1818 -0.2300 -0.3034
  241DOPE   C3A 2823   2.662   2.229  13.274  0.0806 -0.0515 -0.0313
  241DOPE   C4A 2824   2.792   2.650  13.449 -0.2959 -0.1310 -0.3313
  241DOPE   C1B 2825   2.860   1.849  12.314 -0.1974 -0.2247  0.2469
  241DOPE   D2B 2826   3.029   1.870  12.746  0.1248  0.1881  0.1674
  241DOPE   C3B 2827   3.057   2.176  13.037  0.0286  0.0320 -0.2054
  241DOPE   C4B 2828   3.235   2.545  13.237 -0.2548  0.2488 -0.0452
  242POSM   NC3 2829   3.561  11.522  13.956  0.1560 -0.3182 -0.0396
  242POSM   PO4 2830   3.179  11.587  13.807  0.3771  0.1625 -0.1174
  242POSM   AM1 2831   3.021  11.666  14.080 -0.2024  0.0815  0.0673
  242POSM   AM2 2832   2.794  11.766  14.144 -0.1116  0.0316 -0.4211
  242POSM   T1A 2833   2.925  11.585  14.561  0.1003  0.1831 -0.0993
  242POSM   C2A 2834   3.230  11.814  14.887  0.1509 -0.0352  0.0782
  242POSM   C3A 2835   3.218  12.144  15.196  0.1840  0.1120  0.0142
  242POSM   C1B 2836   2.548  11.723  14.270  0.4590  0.0382  0.2765
  242POSM   D2B 2837   2.194  11.522  14.493  0.0051  0.1595  0.1992
  242POSM   C3B 2838   2.237  11.130  14.738 -0.2251  0.2290 -0.0200
  242POSM   C4B 2839   2.153  10.833  15.073 -0.1513  0.0965 -0.0917
  243POSM   NC3 2840   4.676   2.204  12.291 -0.1230 -0.2217  0.2320
  243POSM   PO4 2841   4.558   2.533  12.085  0.1153 -0.0190 -0.2224
  243POSM   AM1 2842   4.310   2.595  12.265 -0.3913 -0.0651 -0.0189
  243POSM   AM2 2843   4.039   2.610  12.210  0.1351  0.3407  0.0702
  243POSM   T1A 2844   4.037   2.686  12.657  0.0769 -0.0537 -0.2477
  243POSM   C2A 2845   3.847   3.000  12.976  0.3473  0.1518 -0.0378
  243POSM   C3A 2846   3.489   2.970  13.297 -0.1196  0.3556 -0.1012
  243POSM   C1B 2847   3.783   2.810  12.246 -0.2441 -0.1725 -0.0933
  243POSM   D2B 2848   3.654   3.157  12.505  0.1254 -0.0668 -0.0443
  243POSM   C3B 2849   3.296   3.376  12.410 -0.0810 -0.0251  0.2073
  243POSM   C4B 2850   3.117   3.567  12.044  0.0141  0.2088  0.0349
  244DOPS   CNO 2851   7.723   6.134  12.272 -0.1377  0.0940  0.0842
  244DOPS   PO4 2852   7.569   6.169  12.588  0.0428 -0.0018 -0.2439
  244DOPS   GL1 2853   7.583   6.064  12.915 -0.0720  0.2201  0.2567
  244DOPS   GL2 2854   7.813   6.122  13.173  0.2284  0.3293 -0.1241
  244DOPS   C1A 2855   7.223   6.118  13.171  0.2381 -0.0885 -0.2383
  244DOPS   D2A 2856   6.905   6.459  13.138 -0.2377 -0.1735 -0.1913
  244DOPS   C3A 2857   6.564   6.243  13.383 -0.0056 -0.2656  0.2177
  244DOPS   C4A 2858   6.208   6.148  13.712  0.1104  0.2865 -0.0369
  244DOPS   C1B 2859   7.557   5.944  13.559  0.0299 -0.1082 -0.2349
  244DOPS   D2B 2860   7.403   5.733  13.960  0.2478 -0.2989  0.1949
  244DOPS   C3B 2861   7.175   5.757  14.353  0.0612 -0.0440  0.1224
  244DOPS   C4B 2862   7.134   5.499  14.729 -0.3014 -0.1236 -0.0921
  245DOPC   NC3 2863   2.263   9.881  13.138 -0.1768  0.1031 -0.2215
  245DOPC   PO4 2864   2.338   9.522  13.305  0.1295 -0.0122 -0.4214
  245DOPC   GL1 2865   2.418   9.613  13.646 -0.3507  0.1948 -0.2318
  245DOPC   GL2 2866   2.258   9.436  13.781 -0.0820 -0.2104 -0.3127
  245DOPC   C1A 2867   2.336   9.874  14.030 -0.0789  0.1445 -0.1275
  245DOPC   D2A 2868   2.538   9.961  14.492  0.1425  0.2415 -0.2733
  245DOPC   C3A 2869   2.487   9.920  14.955 -0.0152  0.0237  0.1210
  245DOPC   C4A 2870   2.229   9.766  15.366  0.0301  0.0719  0.3413
  245DOPC   C1B 2871   2.048   9.461  14.150  0.1660  0.0402 -0.3363
  245DOPC   D2B 2872   1.668   9.552  14.390 -0.2526 -0.2926 -0.4772
  245DOPC   C3B 2873   1.480   9.871  14.638  0.3974 -0.2090  0.0272
  245DOPC   C4B 2874   1.042  10.083  14.610 -0.1184 -0.4522 -0.1690
  246POSM   NC3 2875  34.570   7.835  12.944  0.2147  0.0052  0.0097
  246POSM   PO4 2876  34.485   7.412  12.953 -0.1011 -0.0671 -0.0019
  246POSM   AM1 2877  34.468   7.096  13.015 -0.2762  0.1886  0.1032
  246POSM   AM2 2878  34.305   6.901  12.935 -0.1306  0.1229  0.2390
  246POSM   T1A 2879  34.715   6.776  13.354 -0.2947  0.0090 -0.2765
  246POSM   C2A 2880  34.895   6.439  13.626  0.1828 -0.0266  0.4110
  246POSM   C3A 2881  34.906   6.110  13.952  0.1188 -0.0994  0.2202
  246POSM   C1B 2882  34.368   6.594  13.050 -0.1404  0.0694  0.2517
  246POSM   D2B 2883  34.481   6.219  13.241  0.4171  0.0371  0.1055
  246POSM   C3B 2884  34.392   5.826  13.025 -0.1386  0.1385  0.3129
  246POSM   C4B 2885  34.520   5.633  12.611  0.1569 -0.3822 -0.1774
  247DOPE   NH3 2886   6.034   3.616  12.651 -0.0534 -0.2282 -0.0621
  247DOPE   PO4 2887   5.942   3.899  12.784 -0.2031  0.0054  0.1602
  247DOPE   GL1 2888   5.967   4.094  13.085  0.4311 -0.0354  0.2814
  247DOPE   GL2 2889   5.673   4.066  13.176  0.0773  0.4511 -0.2417
  247DOPE   C1A 2890   6.165   3.992  13.497  0.0593  0.2207 -0.2063
  247DOPE   D2A 2891   6.418   3.737  13.792 -0.1544  0.0446  0.1410
  247DOPE   C3A 2892   6.872   3.586  13.810  0.1266  0.1989  0.1940
  247DOPE   C4A 2893   6.966   3.130  13.981  0.0388  0.2794 -0.4086
  247DOPE   C1B 2894   5.609   4.283  13.633 -0.1846 -0.0255 -0.2824
  247DOPE   D2B 2895   5.859   4.470  13.939 -0.0002 -0.3236 -0.0343
  247DOPE   C3B 2896   6.154   4.111  14.086  0.1808 -0.0331  0.0590
  247DOPE   C4B 2897   6.235   3.758  14.298  0.0909 -0.2197 -0.3582
  248POSM   NC3 2898   0.218   8.490  13.370  0.1815  0.1477  0.1904
  248POSM   PO4 2899   0.238   8.154  13.184  0.3850  0.0116 -0.0349
  248POSM   AM1 2900   0.423   8.016  13.439  0.0915 -0.3481  0.3428
  248POSM   AM2 2901   0.363   8.054  13.724  0.1713  0.3264  0.1737
  248POSM   T1A 2902   0.737   7.688  13.683 -0.0897 -0.2170  0.2831
  248POSM   C2A 2903   0.827   7.338  13.989 -0.2767 -0.3022  0.0383
  248POSM   C3A 2904   0.660   6.937  14.136  0.1777 -0.0562  0.1795
  248POSM   C1B 2905   0.578   8.136  13.968 -0.0017 -0.1673 -0.3038
  248POSM   D2B 2906   0.720   8.452  14.256  0.0927  0.1769  0.1160
  248POSM   C3B 2907   0.779   8.877  14.066  0.3572  0.0456 -0.0876
  248POSM   C4B 2908   0.830   9.223  14.334 -0.0417 -0.2418  0.1008
  249POSM   NC3 2909   3.357   7.420  13.376 -0.2471  0.2255  0.0813
  249POSM   PO4 2910   3.337   7.690  13.105 -0.1608 -0.1320  0.2822
  249POSM   AM1 2911   3.410   7.857  13.396  0.0009 -0.1481 -0.4643
  249POSM   AM2 2912   3.302   8.075  13.539  0.0713 -0.1169  0.1676
  249POSM   T1A 2913   3.515   7.810  13.880  0.1602 -0.1497 -0.2042
  249POSM   C2A 2914   3.625   7.902  14.288  0.2991 -0.1142 -0.0564
  249POSM   C3A 2915   3.771   8.008  14.763 -0.2124  0.1869  0.1455
  249POSM   C1B 2916   3.212   8.189  13.842  0.1685 -0.0188  0.1984
  249POSM   D2B 2917   3.272   8.280  14.270 -0.0181  0.3431 -0.4122
  249POSM   C3B 2918   2.936   8.478  14.541 -0.3127 -0.3893 -0.0243
  249POSM   C4B 2919   2.669   8.801  14.822  0.3599 -0.0261 -0.0879
  250POSM   NC3 2920   2.744   7.423  12.766 -0.0630 -0.0304 -0.1704
  250POSM   PO4 2921   2.612   7.040  12.743  0.0078 -0.2384 -0.3018
  250POSM   AM1 2922   2.552   7.137  13.069  0.1398 -0.3316 -0.1410
  250POSM   AM2 2923   2.429   7.427  13.179 -0.2888 -0.0133  0.0022
  250POSM   T1A 2924   2.636   6.986  13.569 -0.0432  0.2232  0.4602
  250POSM   C2A 2925   2.531   6.662  13.900 -0.1254 -0.0493 -0.0514
  250POSM   C3A 2926   2.475   6.286  14.118  0.0618 -0.2963 -0.0355
  250POSM   C1B 2927   2.084   7.196  13.154  0.0647 -0.2578 -0.0812
  250POSM   D2B 2928   1.806   6.820  13.232  0.0592  0.1486  0.0279
  250POSM   C3B 2929   1.363   6.936  13.290  0.0811  0.0167  0.0185
  250POSM   C4B 2930   0.989   6.984  13.100 -0.0151 -0.3014  0.2392
  251DOPS   CNO 2931   7.827   5.270  12.245  0.0679 -0.1869  0.0224
  251DOPS   PO4 2932   7.955   5.200  11.880  0.2169 -0.2561  0.0225
  251DOPS   GL1 2933   8.335   5.207  11.755  0.2040  0.5639  0.1797
  251DOPS   GL2 2934   8.465   5.502  11.812 -0.0920  0.1270 -0.0347
  251DOPS   C1A 2935   8.632   4.841  11.609  0.0386 -0.1286 -0.2089
  251DOPS   D2A 2936   8.910   4.537  11.323  0.3617  0.1709  0.0844
  251DOPS   C3A 2937   9.094   4.156  11.475 -0.2979  0.1303 -0.0276
  251DOPS   C4A 2938   9.243   3.879  11.840 -0.0183  0.3192 -0.0127
  251DOPS   C1B 2939   8.802   5.472  11.544 -0.2349 -0.3069  0.0666
  251DOPS   D2B 2940   9.114   5.298  11.349 -0.0307 -0.1082 -0.1645
  251DOPS   C3B 2941   9.259   5.003  11.610  0.1861  0.2013  0.0051
  251DOPS   C4B 2942   9.099   4.714  11.966 -0.2229  0.0129  0.1466
  252POSM   NC3 2943   6.247   0.166  11.751 -0.0679 -0.1478 -0.2998
  252POSM   PO4 2944   6.264   0.591  11.712  0.1819 -0.1014 -0.4738
  252POSM   AM1 2945   6.275   0.835  11.923  0.2186 -0.0617 -0.5205
  252POSM   AM2 2946   6.380   0.841  12.209  0.0938  0.1289 -0.2805
  252POSM   T1A 2947   6.346   1.329  12.128  0.0521  0.5217  0.2151
  252POSM   C2A 2948   6.240   1.727  12.351 -0.1292 -0.0041 -0.0648
  252POSM   C3A 2949   5.880   1.709  12.648 -0.1670  0.3196 -0.1134
  252POSM   C1B 2950   6.071   0.782  12.333  0.0822 -0.0284  0.0205
  252POSM   D2B 2951   5.732   0.728  12.653  0.1678  0.0403  0.0741
  252POSM   C3B 2952   5.388   0.790  12.969  0.2250 -0.0853  0.1745
  252POSM   C4B 2953   5.254   0.936  13.392  0.2290  0.1588 -0.2358
  253DOPE   NH3 2954  10.717   2.634  11.496 -0.1861 -0.0343 -0.2096
  253DOPE   PO4 2955  10.569   2.908  11.421  0.1689 -0.1007  0.1668
  253DOPE   GL1 2956  10.231   3.241  11.468  0.1114 -0.0060 -0.1192
  253DOPE   GL2 2957  10.286   3.537  11.498 -0.0701  0.1685  0.1459
  253DOPE   C1A 2958   9.886   3.277  11.740 -0.1119  0.0737  0.1037
  253DOPE   D2A 2959   9.833   3.099  12.179  0.3313 -0.2619 -0.2276
  253DOPE   C3A 2960   9.545   3.114  12.555  0.1957 -0.1038 -0.3023
  253DOPE   C4A 2961   9.334   2.919  12.915  0.2903  0.3029 -0.2490
  253DOPE   C1B 2962   9.931   3.773  11.669  0.1267  0.1828 -0.0047
  253DOPE   D2B 2963   9.764   4.157  11.875 -0.0450  0.3467 -0.1722
  253DOPE   C3B 2964   9.560   4.402  11.612  0.0956 -0.4339 -0.1433
  253DOPE   C4B 2965   9.377   4.594  11.254  0.0576 -0.3019 -0.0987
  254DOPE   NH3 2966  11.173  10.636  11.853 -0.0410 -0.2084 -0.1294
  254DOPE   PO4 2967  10.912  10.418  11.858 -0.5099 -0.0250 -0.2387
  254DOPE   GL1 2968  10.759  10.299  12.275  0.0653  0.0656 -0.2117
  254DOPE   GL2 2969  10.809  10.012  12.212  0.0713 -0.1496 -0.2249
  254DOPE   C1A 2970  10.775  10.310  12.702 -0.0621 -0.0235 -0.1631
  254DOPE   D2A 2971  10.580  10.352  13.150 -0.2607  0.0596 -0.1534
  254DOPE   C3A 2972  10.337  10.649  13.486 -0.0375 -0.0270  0.2060
  254DOPE   C4A 2973  10.129  10.854  13.840  0.1810 -0.0073 -0.1827
  254DOPE   C1B 2974  10.357   9.892  12.334  0.2139 -0.0958 -0.0449
  254DOPE   D2B 2975  10.056   9.519  12.432  0.0451  0.1821  0.1076
  254DOPE   C3B 2976   9.706   9.308  12.648  0.1127 -0.0755 -0.0124
  254DOPE   C4B 2977   9.468   9.450  13.010 -0.0283 -0.3121 -0.1703
  255DOPE   NH3 2978   4.575   7.561  13.128 -0.3252 -0.1185 -0.0276
  255DOPE   PO4 2979   4.830   7.372  12.996  0.1165 -0.0762 -0.1833
  255DOPE   GL1 2980   4.901   7.008  13.221 -0.1364  0.0271 -0.2906
  255DOPE   GL2 2981   4.863   6.800  13.003  0.2197  0.1493  0.0178
  255DOPE   C1A 2982   4.993   6.930  13.709 -0.1281  0.2435  0.1674
  255DOPE   D2A 2983   4.745   6.993  14.113  0.0654  0.1422  0.1033
  255DOPE   C3A 2984   4.330   7.003  14.276 -0.2702  0.0854 -0.1317
  255DOPE   C4A 2985   3.941   6.955  14.537 -0.3058 -0.2239  0.1873
  255DOPE   C1B 2986   5.170   6.726  12.595  0.0035  0.1330  0.0530
  255DOPE   D2B 2987   5.429   6.318  12.634 -0.1148 -0.1468  0.2341
  255DOPE   C3B 2988   5.564   6.020  12.993 -0.0497 -0.0802  0.0075
  255DOPE   C4B 2989   5.724   5.600  13.077 -0.0446  0.0183 -0.0127
  256DOPE   NH3 2990   1.327   3.639  13.000  0.1600 -0.0635 -0.0025
  256DOPE   PO4 2991   1.223   3.619  12.741  0.2177 -0.1492 -0.1035
  256DOPE   GL1 2992   1.421   3.255  12.707  0.0356  0.2866  0.1654
  256DOPE   GL2 2993   1.737   3.181  12.813  0.3360 -0.0712  0.0712
  256DOPE   C1A 2994   1.416   2.783  12.744  0.0704  0.0624 -0.0588
  256DOPE   D2A 2995   1.539   2.364  12.809  0.1084  0.0959 -0.2072
  256DOPE   C3A 2996   1.215   2.158  13.046  0.2529 -0.0091  0.2625
  256DOPE   C4A 2997   0.978   2.178  13.459  0.0383  0.0711  0.3380
  256DOPE   C1B 2998   1.685   3.043  12.410 -0.1022 -0.5085  0.1166
  256DOPE   D2B 2999   1.532   2.742  12.113 -0.0259  0.0280  0.3474
  256DOPE   C3B 3000   1.295   2.373  12.300  0.0763 -0.0692  0.1752
  256DOPE   C4B 3001   1.119   2.013  12.565 -0.1490 -0.0307 -0.0370
  257POSM   NC3 3002   0.477   4.014  13.622 -0.2310  0.2760  0.0893
  257POSM   PO4 3003   0.641   4.129  13.271 -0.1762 -0.0949  0.2443
  257POSM   AM1 3004   0.674   3.808  13.160 -0.1918  0.2410 -0.1083
  257POSM   AM2 3005   0.791   3.552  13.263 -0.1198 -0.0008 -0.2560
  257POSM   T1A 3006   0.669   3.337  12.859 -0.0185 -0.0154  0.4106
  257POSM   C2A 3007   0.792   3.034  12.513 -0.3100  0.2048  0.4083
  257POSM   C3A 3008   0.960   2.765  12.212 -0.0269 -0.0415  0.2756
  257POSM   C1B 3009   0.964   3.268  13.365  0.0978  0.0118  0.1662
  257POSM   D2B 3010   1.071   2.933  13.597 -0.0041 -0.1408  0.2968
  257POSM   C3B 3011   1.285   2.919  14.028 -0.2710 -0.2138 -0.0366
  257POSM   C4B 3012   1.703   2.867  14.164  0.0899 -0.2735  0.0759
  258DOPC   NC3 3013   9.290   7.819  12.372 -0.2706  0.3358  0.1904
  258DOPC   PO4 3014   9.572   7.729  12.117  0.3535  0.0132 -0.0265
  258DOPC   GL1 3015   9.736   7.918  12.422 -0.4401 -0.1758 -0.1313
  258DOPC   GL2 3016   9.643   8.165  12.321 -0.0409 -0.2805  0.0153
  258DOPC   C1A 3017   9.919   8.124  12.776  0.1916  0.0561  0.3058
  258DOPC   D2A 3018   9.830   8.352  13.214  0.1480 -0.2150 -0.2443
  258DOPC   C3A 3019   9.920   8.732  13.497 -0.0289 -0.1262  0.2900
  258DOPC   C4A 3020  10.019   9.118  13.608  0.3730 -0.1496  0.0559
  258DOPC   C1B 3021   9.755   8.593  12.254 -0.1170  0.0194  0.1648
  258DOPC   D2B 3022   9.812   9.059  12.251 -0.1367  0.0404  0.0169
  258DOPC   C3B 3023  10.277   9.154  12.125 -0.1572 -0.3011 -0.3620
  258DOPC   C4B 3024  10.371   9.484  11.838  0.0004  0.2201 -0.1158
  259DOPC   NC3 3025   5.712   9.662  13.857 -0.1419  0.0378  0.2809
  259DOPC   PO4 3026   5.468   9.358  13.876 -0.0568  0.2231  0.2929
  259DOPC   GL1 3027   5.854   9.230  13.966  0.0995 -0.1004 -0.0935
  259DOPC   GL2 3028   6.015   9.262  13.722  0.1344  0.1049 -0.2488
  259DOPC   C1A 3029   5.918   9.179  14.418  0.4252  0.0160  0.2843
  259DOPC   D2A 3030   5.632   9.353  14.676  0.0947 -0.1840  0.1362
  259DOPC   C3A 3031   5.648   9.720  14.929 -0.2396  0.0675  0.4320
  259DOPC   C4A 3032   5.670  10.173  15.047  0.0872 -0.0294 -0.0168
  259DOPC   C1B 3033   6.265   8.962  13.993  0.0293 -0.1804  0.1522
  259DOPC   D2B 3034   6.166   8.681  14.372  0.2939 -0.0687 -0.1125
  259DOPC   C3B 3035   5.750   8.697  14.610  0.0211 -0.3064  0.1602
  259DOPC   C4B 3036   5.314   8.483  14.594  0.2188 -0.0454 -0.0750
  260POSM   NC3 3037   1.671   5.607  12.554  0.2119  0.0046  0.0090
  260POSM   PO4 3038   1.730   5.985  12.634 -0.2572  0.0955 -0.0792
  260POSM   AM1 3039   1.695   6.005  12.978  0.0515 -0.0874 -0.1829
  260POSM   AM2 3040   1.857   6.132  13.152 -0.0162 -0.0243 -0.2953
  260POSM   T1A 3041   1.523   5.739  13.321 -0.3129 -0.1568  0.1780
  260POSM   C2A 3042   1.434   5.436  13.575  0.0865 -0.1904 -0.0341
  260POSM   C3A 3043   1.186   4.982  13.551  0.0969 -0.0281 -0.1140
  260POSM   C1B 3044   1.694   6.180  13.453  0.1558 -0.2559  0.2373
  260POSM   D2B 3045   1.280   6.125  13.706  0.0707 -0.2472  0.1352
  260POSM   C3B 3046   1.008   5.783  13.530  0.2990 -0.0463 -0.1026
  260POSM   C4B 3047   0.709   5.646  13.127  0.0865  0.1048 -0.1967
  261POSM   NC3 3048   8.262   6.148  13.453  0.2239  0.0585 -0.0490
  261POSM   PO4 3049   8.297   6.064  13.073  0.0468  0.0918 -0.3129
  261POSM   AM1 3050   8.564   5.911  13.133  0.2433  0.3432 -0.1155
  261POSM   AM2 3051   8.810   5.930  13.299 -0.4900  0.0747  0.1311
  261POSM   T1A 3052   8.889   5.612  12.903 -0.2247 -0.2761 -0.4190
  261POSM   C2A 3053   9.005   5.190  12.713  0.0023 -0.2719 -0.2205
  261POSM   C3A 3054   9.216   5.013  12.314  0.1306 -0.2234 -0.1753
  261POSM   C1B 3055   8.686   5.977  13.592 -0.2818  0.3599  0.5575
  261POSM   D2B 3056   8.394   5.950  13.903  0.0486  0.1158 -0.2130
  261POSM   C3B 3057   8.349   6.371  13.961  0.1705  0.0896  0.0389
  261POSM   C4B 3058   8.012   6.707  13.997 -0.0390 -0.3398 -0.2385
  262DOPS   CNO 3059   7.552   4.515  11.867 -0.0052 -0.1064 -0.0309
  262DOPS   PO4 3060   7.372   4.194  11.928 -0.2713  0.1018 -0.0964
  262DOPS   GL1 3061   7.655   3.946  11.945 -0.0997  0.5336 -0.0990
  262DOPS   GL2 3062   7.808   4.063  11.676 -0.3559 -0.1017  0.1366
  262DOPS   C1A 3063   7.633   3.572  12.128  0.2024 -0.3671 -0.1352
  262DOPS   D2A 3064   7.450   3.144  12.307  0.1914 -0.3330 -0.2396
  262DOPS   C3A 3065   7.723   3.062  12.647 -0.1392 -0.3717 -0.0714
  262DOPS   C4A 3066   8.083   2.814  12.812 -0.2423  0.1057  0.0598
  262DOPS   C1B 3067   7.822   3.639  11.518  0.2208 -0.0595  0.0123
  262DOPS   D2B 3068   8.131   3.298  11.546  0.0058  0.0743 -0.3003
  262DOPS   C3B 3069   8.480   3.265  11.734 -0.0148  0.4174  0.2142
  262DOPS   C4B 3070   8.789   3.046  12.013  0.1766 -0.3353  0.0467
  263DOPE   NH3 3071   8.297   6.838  12.516 -0.0135  0.0391  0.0071
  263DOPE   PO4 3072   8.285   6.914  12.189 -0.2980  0.1125 -0.1158
  263DOPE   GL1 3073   8.406   7.262  12.361  0.4798  0.0005 -0.0676
  263DOPE   GL2 3074   8.453   7.465  12.101  0.1897 -0.3550  0.0626
  263DOPE   C1A 3075   8.498   7.536  12.708 -0.3288  0.0862 -0.2241
  263DOPE   D2A 3076   8.521   7.833  13.063  0.1994 -0.0251  0.1366
  263DOPE   C3A 3077   8.367   7.661  13.449 -0.2508  0.3009  0.1608
  263DOPE   C4A 3078   8.123   7.923  13.738 -0.2730 -0.3764 -0.0177
  263DOPE   C1B 3079   8.182   7.886  12.018  0.0011  0.0285 -0.1069
  263DOPE   D2B 3080   8.094   8.348  12.107  0.3734 -0.2767  0.1774
  263DOPE   C3B 3081   8.104   8.478  12.558  0.1131 -0.2279  0.2037
  263DOPE   C4B 3082   8.339   8.423  12.975 -0.1449  0.1382  0.1070
  264DOPC   NC3 3083   7.415   4.914  13.053 -0.1586  0.3924 -0.0519
  264DOPC   PO4 3084   7.241   4.763  12.755  0.1720  0.0899 -0.0429
  264DOPC   GL1 3085   7.207   4.444  13.072  0.3769 -0.1161 -0.2743
  264DOPC   GL2 3086   6.907   4.578  13.213  0.1198 -0.1104 -0.0544
  264DOPC   C1A 3087   7.462   4.371  13.443 -0.3283 -0.1158 -0.1176
  264DOPC   D2A 3088   7.470   4.391  13.894  0.2476 -0.0685 -0.5003
  264DOPC   C3A 3089   7.464   3.985  14.109 -0.0047 -0.2225  0.0324
  264DOPC   C4A 3090   7.831   3.734  14.191 -0.1919  0.2163 -0.2820
  264DOPC   C1B 3091   6.458   4.467  13.249 -0.0033 -0.0352  0.3063
  264DOPC   D2B 3092   6.018   4.540  13.323 -0.0198 -0.0916  0.1600
  264DOPC   C3B 3093   5.680   4.869  13.536 -0.1895 -0.1176 -0.0837
  264DOPC   C4B 3094   5.644   5.330  13.659 -0.1939  0.2479 -0.0985
  265DOPC   NC3 3095   4.120   8.247  13.093  0.0722 -0.2157 -0.0455
  265DOPC   PO4 3096   4.327   8.018  13.331 -0.5964 -0.0299  0.0035
  265DOPC   GL1 3097   4.547   7.978  13.645  0.0038 -0.1293  0.4548
  265DOPC   GL2 3098   4.663   7.746  13.653 -0.0257  0.1706  0.0757
  265DOPC   C1A 3099   4.635   7.890  14.113  0.3969 -0.1156 -0.1800
  265DOPC   D2A 3100   4.604   7.899  14.538 -0.1245 -0.1334 -0.2165
  265DOPC   C3A 3101   4.796   8.111  14.841  0.2521  0.2745 -0.0700
  265DOPC   C4A 3102   4.955   8.137  15.271  0.1386  0.0267  0.0508
  265DOPC   C1B 3103   4.923   7.457  13.850 -0.2105  0.2000  0.1090
  265DOPC   D2B 3104   5.321   7.258  13.939  0.1253  0.1034 -0.2219
  265DOPC   C3B 3105   5.638   7.267  14.277  0.1264  0.0098  0.1150
  265DOPC   C4B 3106   5.989   7.275  14.560 -0.2167  0.1507  0.2508
  266DOPC   NC3 3107   3.921  10.789  13.594 -0.0981  0.0112  0.0610
  266DOPC   PO4 3108   3.890  10.825  13.213  0.5188  0.1238  0.0156
  266DOPC   GL1 3109   4.051  10.502  13.156 -0.1577 -0.1594 -0.3389
  266DOPC   GL2 3110   3.926  10.475  12.839 -0.1696  0.0610  0.0109
  266DOPC   C1A 3111   3.898  10.108  13.285 -0.0007  0.0028  0.4502
  266DOPC   D2A 3112   4.087   9.700  13.208  0.1511 -0.0288 -0.0532
  266DOPC   C3A 3113   4.283   9.480  12.809  0.1987  0.1102  0.0732
  266DOPC   C4A 3114   4.659   9.234  12.697  0.0559  0.1181 -0.3654
  266DOPC   C1B 3115   4.251  10.101  12.931 -0.0726 -0.0388 -0.0140
  266DOPC   D2B 3116   4.660   9.775  12.925 -0.0240  0.2202 -0.0188
  266DOPC   C3B 3117   4.676   9.457  13.221  0.0088  0.1157  0.0178
  266DOPC   C4B 3118   4.610   8.991  13.133  0.2252  0.4642 -0.1788
  267DOPE   NH3 3119   6.720   0.893  11.474 -0.2746  0.4323 -0.0563
  267DOPE   PO4 3120   6.757   0.858  11.773  0.4531  0.2871 -0.1895
  267DOPE   GL1 3121   7.076   1.024  11.912  0.0121  0.2377  0.2336
  267DOPE   GL2 3122   7.061   1.298  11.901  0.3684 -0.2973  0.1341
  267DOPE   C1A 3123   7.298   0.886  12.305  0.3383  0.2663  0.0232
  267DOPE   D2A 3124   7.329   0.729  12.736  0.1907 -0.2471 -0.0836
  267DOPE   C3A 3125   7.803   0.812  12.995  0.0414  0.0196 -0.1032
  267DOPE   C4A 3126   8.118   0.446  12.964 -0.1256  0.0278 -0.0066
  267DOPE   C1B 3127   7.270   1.608  12.130 -0.0576 -0.1021 -0.0401
  267DOPE   D2B 3128   7.146   1.700  12.548  0.2147 -0.2765  0.0709
  267DOPE   C3B 3129   6.656   1.623  12.694  0.0612  0.3448  0.1390
  267DOPE   C4B 3130   6.320   1.772  12.905 -0.4018 -0.0311 -0.2154
  268DOPC   NC3 3131  10.119   7.733  12.575  0.0294  0.1063 -0.0734
  268DOPC   PO4 3132  10.223   7.414  12.811 -0.0583 -0.5181 -0.2197
  268DOPC   GL1 3133  10.459   7.526  13.059 -0.1715 -0.1699 -0.2450
  268DOPC   GL2 3134  10.434   7.324  13.322 -0.0294 -0.0602 -0.1669
  268DOPC   C1A 3135  10.950   7.419  13.073  0.2588  0.0013 -0.0351
  268DOPC   D2A 3136  11.433   7.665  13.101 -0.0615  0.0934  0.3275
  268DOPC   C3A 3137  11.740   7.401  13.290 -0.2657  0.0061  0.1246
  268DOPC   C4A 3138  11.644   7.223  13.704 -0.3901 -0.0754 -0.1233
  268DOPC   C1B 3139  10.062   7.611  13.502 -0.0248 -0.3805 -0.1533
  268DOPC   D2B 3140   9.661   7.581  13.742  0.1169 -0.3297 -0.0183
  268DOPC   C3B 3141   9.483   7.722  14.159 -0.1039 -0.0708  0.0050
  268DOPC   C4B 3142   9.406   8.147  14.080  0.0097 -0.1506  0.1599
  269POSM   NC3 3143   2.108   4.116  12.873  0.3789 -0.1086 -0.0689
  269POSM   PO4 3144   2.158   4.491  12.696 -0.2879 -0.3745  0.1722
  269POSM   AM1 3145   2.477   4.329  12.817  0.0921  0.0778 -0.1731
  269POSM   AM2 3146   2.609   4.400  13.073  0.1126 -0.2549 -0.1889
  269POSM   T1A 3147   2.700   3.889  12.892 -0.0349  0.0378  0.0125
  269POSM   C2A 3148   2.958   3.527  13.107 -0.0713 -0.0981  0.0164
  269POSM   C3A 3149   3.438   3.466  13.217 -0.0220 -0.2318  0.0478
  269POSM   C1B 3150   2.890   4.236  13.237  0.1081 -0.0097  0.1352
  269POSM   D2B 3151   3.110   3.897  13.477 -0.0481  0.1113 -0.0452
  269POSM   C3B 3152   3.589   4.005  13.444 -0.0294  0.0081  0.0777
  269POSM   C4B 3153   4.011   4.156  13.385  0.2273  0.1967  0.0706
  270DOPS   CNO 3154   2.044  34.412  11.718 -0.2031 -0.0894  0.3430
  270DOPS   PO4 3155   2.322  34.596  11.928  0.0857 -0.2763  0.0976
  270DOPS   GL1 3156   2.512  34.299  12.041  0.1371 -0.0685 -0.0559
  270DOPS   GL2 3157   2.702  34.392  12.277  0.0043 -0.3737 -0.1715
  270DOPS   C1A 3158   2.763  33.928  12.134  0.1206 -0.0011 -0.0670
  270DOPS   D2A 3159   2.793  33.533  12.296 -0.0503  0.3015 -0.0025
  270DOPS   C3A 3160   2.982  33.264  12.003  0.0760 -0.0928 -0.0491
  270DOPS   C4A 3161   3.041  32.829  11.878 -0.4247  0.4143  0.3478
  270DOPS   C1B 3162   2.756  34.110  12.602  0.2104  0.2021  0.0366
  270DOPS   D2B 3163   2.455  33.734  12.607  0.2734 -0.2342 -0.1678
  270DOPS   C3B 3164   2.349  33.321  12.552  0.0734 -0.0387  0.1209
  270DOPS   C4B 3165   2.361  33.103  12.165 -0.0561  0.0353  0.3085
  271DOPE   NH3 3166   2.802   6.204  13.023  0.1166 -0.0208 -0.0158
  271DOPE   PO4 3167   2.730   6.528  13.008 -0.0607 -0.0191  0.3398
  271DOPE   GL1 3168   2.379   6.636  12.992  0.0920 -0.1213  0.2197
  271DOPE   GL2 3169   2.341   6.763  13.256 -0.0623  0.0032 -0.0746
  271DOPE   C1A 3170   1.983   6.673  12.766  0.0223 -0.2457  0.2637
  271DOPE   D2A 3171   1.569   6.455  12.638 -0.1497  0.3321  0.1081
  271DOPE   C3A 3172   1.315   6.426  12.979 -0.0501  0.1025  0.0419
  271DOPE   C4A 3173   1.041   6.032  13.088  0.0492 -0.3982 -0.3084
  271DOPE   C1B 3174   2.129   7.029  13.630 -0.1831 -0.1081 -0.0540
  271DOPE   D2B 3175   2.308   7.112  14.067  0.0419 -0.0528  0.2994
  271DOPE   C3B 3176   2.143   7.260  14.508 -0.1275 -0.1537  0.2560
  271DOPE   C4B 3177   1.762   7.536  14.705  0.1763 -0.3730  0.1730
  272POSM   NC3 3178  34.112   3.242  12.937 -0.0209  0.1663  0.0692
  272POSM   PO4 3179  34.428   3.135  12.704  0.2891  0.1545  0.2568
  272POSM   AM1 3180  34.660   3.067  12.958 -0.0390  0.0417  0.1346
  272POSM   AM2 3181  34.618   3.047  13.242 -0.3472 -0.1204 -0.3125
  272POSM   T1A 3182  35.085   3.228  13.317  0.1111 -0.1286 -0.3035
  272POSM   C2A 3183  35.183   3.502  13.693  0.0567 -0.2859 -0.0013
  272POSM   C3A 3184  35.233   3.750  14.085  0.2889  0.1565  0.0700
  272POSM   C1B 3185  34.681   2.708  13.233 -0.0131 -0.0169  0.0797
  272POSM   D2B 3186  34.772   2.284  13.364 -0.0978 -0.1598 -0.0334
  272POSM   C3B 3187  35.154   2.296  13.642  0.2227  0.2309  0.1663
  272POSM   C4B 3188  35.510   2.520  13.773 -0.0328 -0.0724 -0.0042
  273DOPC   NC3 3189   6.395   4.523  12.710  0.2189 -0.0975  0.0085
  273DOPC   PO4 3190   6.501   4.555  12.346 -0.1448 -0.1296 -0.1163
  273DOPC   GL1 3191   6.361   4.940  12.443 -0.4296  0.0181 -0.1474
  273DOPC   GL2 3192   6.402   5.184  12.544  0.3805 -0.0529 -0.3133
  273DOPC   C1A 3193   5.956   5.063  12.301 -0.0352  0.0364 -0.2760
  273DOPC   D2A 3194   5.476   5.026  12.281  0.1677  0.0084  0.1071
  273DOPC   C3A 3195   5.359   4.621  12.551 -0.1699  0.1642 -0.1793
  273DOPC   C4A 3196   5.252   4.335  12.873 -0.0846  0.0061 -0.1044
  273DOPC   C1B 3197   6.232   5.466  12.199 -0.0254  0.1154  0.3089
  273DOPC   D2B 3198   6.253   5.943  12.031  0.1575 -0.1703 -0.3964
  273DOPC   C3B 3199   5.940   6.234  12.264  0.4030 -0.0546  0.0813
  273DOPC   C4B 3200   5.985   6.130  12.667  0.1706 -0.1796 -0.0520
  274DOPS   CNO 3201   2.171   0.667  12.304 -0.1627 -0.0086 -0.1354
  274DOPS   PO4 3202   2.458   0.751  12.520 -0.0194  0.1094  0.1484
  274DOPS   GL1 3203   2.663   1.126  12.659 -0.0467 -0.1488  0.2486
  274DOPS   GL2 3204   2.845   0.922  12.743  0.1481 -0.1924  0.2128
  274DOPS   C1A 3205   2.511   1.250  13.101 -0.0948 -0.1988 -0.2355
  274DOPS   D2A 3206   2.704   1.256  13.535 -0.1706  0.0605 -0.3041
  274DOPS   C3A 3207   2.327   1.453  13.737 -0.0838 -0.1108 -0.1120
  274DOPS   C4A 3208   2.136   1.353  14.190  0.4878 -0.2447 -0.1146
  274DOPS   C1B 3209   2.929   0.959  13.205 -0.1024 -0.2452 -0.1174
  274DOPS   D2B 3210   3.387   1.099  13.330 -0.1916 -0.1926 -0.0507
  274DOPS   C3B 3211   3.609   0.706  13.272  0.0833  0.2479 -0.1881
  274DOPS   C4B 3212   3.866   0.363  13.459 -0.1021  0.2337  0.0135
  275DOPC   NC3 3213   1.401   4.766  13.006  0.1172  0.4188  0.7311
  275DOPC   PO4 3214   1.647   4.714  12.703  0.2086  0.1527 -0.0892
  275DOPC   GL1 3215   1.838   4.921  12.964  0.3983 -0.2197 -0.0286
  275DOPC   GL2 3216   1.961   4.623  13.119 -0.1190 -0.1219 -0.1249
  275DOPC   C1A 3217   1.722   4.977  13.392 -0.1650  0.0106  0.1153
  275DOPC   D2A 3218   1.703   5.051  13.842 -0.0122  0.0579 -0.0994
  275DOPC   C3A 3219   1.377   5.298  14.097  0.4075 -0.0926  0.2479
  275DOPC   C4A 3220   0.946   5.385  13.905  0.3862  0.2844  0.0622
  275DOPC   C1B 3221   2.247   4.635  13.496 -0.2949  0.1645 -0.0353
  275DOPC   D2B 3222   2.210   4.368  13.869 -0.0331  0.3155  0.4629
  275DOPC   C3B 3223   2.214   3.929  13.751 -0.0278 -0.1095  0.1680
  275DOPC   C4B 3224   2.485   3.609  13.989 -0.1385  0.0120 -0.0307
  276DOPC   NC3 3225   5.588   4.119  12.517 -0.0536 -0.0192  0.5194
  276DOPC   PO4 3226   5.504   3.713  12.418 -0.1559 -0.0487 -0.0331
  276DOPC   GL1 3227   5.385   3.837  12.819  0.0607 -0.0183 -0.4449
  276DOPC   GL2 3228   5.206   3.575  12.791 -0.1276 -0.0768 -0.1814
  276DOPC   C1A 3229   4.986   3.919  13.032  0.1136 -0.4503 -0.2483
  276DOPC   D2A 3230   4.678   3.935  13.361  0.3283  0.1116 -0.0294
  276DOPC   C3A 3231   4.510   4.346  13.465 -0.2073 -0.0205 -0.0485
  276DOPC   C4A 3232   4.515   4.795  13.518 -0.2034 -0.1636  0.2843
  276DOPC   C1B 3233   4.796   3.623  12.689 -0.0117  0.1656  0.3708
  276DOPC   D2B 3234   4.400   3.630  12.380 -0.1206 -0.1476 -0.0470
  276DOPC   C3B 3235   4.266   3.888  11.968  0.1403 -0.0263 -0.1240
  276DOPC   C4B 3236   3.902   3.831  11.678 -0.0330 -0.2914 -0.2661
  277DOPE   NH3 3237   5.764   3.252  12.007  0.1432 -0.1589  0.1529
  277DOPE   PO4 3238   5.909   3.505  12.154 -0.2996  0.0287  0.1263
  277DOPE   GL1 3239   6.129   3.353  12.292  0.0211  0.0434 -0.0587
  277DOPE   GL2 3240   6.236   3.122  12.061  0.0481 -0.0274  0.0515
  277DOPE   C1A 3241   6.240   3.084  12.666  0.0384  0.2379  0.3125
  277DOPE   D2A 3242   5.966   2.747  12.903 -0.0367 -0.2185  0.0578
  277DOPE   C3A 3243   5.715   2.907  13.251 -0.3879  0.1113  0.0033
  277DOPE   C4A 3244   5.620   3.194  13.536  0.2511 -0.2755  0.0697
  277DOPE   C1B 3245   6.392   2.708  12.285  0.2206  0.0415  0.2706
  277DOPE   D2B 3246   6.385   2.451  12.676 -0.1821  0.2551 -0.1424
  277DOPE   C3B 3247   6.698   2.150  12.734 -0.0176 -0.0293  0.1555
  277DOPE   C4B 3248   7.163   2.112  12.799  0.2207 -0.1703 -0.0239
  278DOPC   NC3 3249   1.866   3.602  13.625  0.2067 -0.2802  0.0702
  278DOPC   PO4 3250   1.792   3.700  13.241 -0.0211 -0.2718 -0.1216
  278DOPC   GL1 3251   1.645   3.308  13.286 -0.0126  0.0819 -0.2291
  278DOPC   GL2 3252   1.420   3.410  13.537  0.0964  0.1280  0.1522
  278DOPC   C1A 3253   1.340   3.042  13.118 -0.0043  0.0824  0.0156
  278DOPC   D2A 3254   0.978   2.766  13.091 -0.1449  0.0437  0.1815
  278DOPC   C3A 3255   0.552   2.887  12.967 -0.0303 -0.3552 -0.1158
  278DOPC   C4A 3256   0.237   2.703  12.669 -0.0485  0.2199  0.0308
  278DOPC   C1B 3257   1.571   3.334  13.928 -0.0199  0.0859  0.1216
  278DOPC   D2B 3258   1.867   3.313  14.324 -0.2642 -0.1711 -0.1597
  278DOPC   C3B 3259   1.924   3.043  14.660  0.2048 -0.0530  0.0679
  278DOPC   C4B 3260   2.243   2.719  14.774 -0.1131  0.0199  0.0621
  279DOPC   NC3 3261   6.509  10.456  13.442  0.1134  0.0033 -0.2429
  279DOPC   PO4 3262   6.767  10.752  13.298  0.0964  0.0130 -0.0472
  279DOPC   GL1 3263   6.925  10.955  13.671  0.3272 -0.1791 -0.0621
  279DOPC   GL2 3264   7.205  10.884  13.550 -0.0202 -0.0541  0.2424
  279DOPC   C1A 3265   7.092  11.353  13.504 -0.0422 -0.1605 -0.2083
  279DOPC   D2A 3266   7.364  11.746  13.704  0.0793 -0.0513  0.2283
  279DOPC   C3A 3267   7.612  11.549  14.017 -0.1896  0.1888 -0.4292
  279DOPC   C4A 3268   7.689  11.187  14.353  0.0164  0.0269  0.1222
  279DOPC   C1B 3269   7.624  10.732  13.469 -0.0515 -0.0873  0.0160
  279DOPC   D2B 3270   7.862  10.392  13.485  0.1037 -0.1216  0.0153
  279DOPC   C3B 3271   8.203  10.111  13.353 -0.1457  0.2183  0.1478
  279DOPC   C4B 3272   8.569  10.193  13.131  0.0129  0.2140  0.2330
  280POSM   NC3 3273   5.001  10.209  13.045 -0.0665  0.2125 -0.1469
  280POSM   PO4 3274   5.365  10.423  13.094  0.0751  0.0280  0.0536
  280POSM   AM1 3275   5.224  10.457  13.379 -0.0051 -0.3830  0.1694
  280POSM   AM2 3276   5.282  10.620  13.608 -0.0891  0.0417 -0.0873
  280POSM   T1A 3277   4.865  10.293  13.684 -0.0340  0.0765 -0.1378
  280POSM   C2A 3278   4.623   9.965  13.893  0.3120 -0.1494 -0.1481
  280POSM   C3A 3279   4.274   9.663  14.164 -0.1200  0.0833 -0.1862
  280POSM   C1B 3280   4.954  10.783  13.709 -0.0348 -0.0997  0.3392
  280POSM   D2B 3281   4.842  11.081  14.016  0.1076 -0.0014 -0.0252
  280POSM   C3B 3282   4.928  10.961  14.390  0.0557  0.1885  0.2528
  280POSM   C4B 3283   4.878  10.771  14.828  0.0790  0.3454  0.1097
  281DOPE   NH3 3284   5.604   4.107  11.980  0.0154 -0.1732 -0.1151
  281DOPE   PO4 3285   5.920   4.149  11.829 -0.2062  0.2506  0.1132
  281DOPE   GL1 3286   5.742   4.504  11.795 -0.0005  0.5224 -0.4462
  281DOPE   GL2 3287   5.752   4.611  12.096  0.1844 -0.0253  0.0585
  281DOPE   C1A 3288   5.504   4.935  11.802 -0.0250 -0.3084  0.0214
  281DOPE   D2A 3289   5.343   5.408  11.782 -0.1912  0.1000 -0.0256
  281DOPE   C3A 3290   5.515   5.590  12.132 -0.0003 -0.1521  0.1288
  281DOPE   C4A 3291   5.630   5.800  12.517  0.0549  0.1217 -0.1836
  281DOPE   C1B 3292   5.304   4.550  12.058 -0.0140 -0.1066 -0.2044
  281DOPE   D2B 3293   4.912   4.456  12.246 -0.1550  0.2995  0.1088
  281DOPE   C3B 3294   4.855   4.566  12.664  0.4169  0.1338  0.1748
  281DOPE   C4B 3295   4.901   4.739  13.130 -0.1255  0.3432 -0.0357
  282DOPS   CNO 3296   5.222   3.204  11.937 -0.1318 -0.2611  0.1031
  282DOPS   PO4 3297   5.238   3.600  11.990 -0.1152  0.0615  0.0626
  282DOPS   GL1 3298   5.009   3.775  12.259 -0.2161  0.1076  0.0361
  282DOPS   GL2 3299   5.091   3.951  12.471 -0.0704 -0.1215  0.0228
  282DOPS   C1A 3300   4.618   4.060  12.242 -0.2287  0.0000  0.0376
  282DOPS   D2A 3301   4.311   4.371  12.193  0.2462  0.0559  0.2860
  282DOPS   C3A 3302   4.190   4.541  12.569 -0.1179  0.2524  0.0289
  282DOPS   C4A 3303   4.340   4.435  13.024  0.2125  0.3821 -0.1743
  282DOPS   C1B 3304   4.667   4.113  12.730  0.0115 -0.0683 -0.0268
  282DOPS   D2B 3305   4.208   3.963  12.893 -0.3099  0.3705  0.0859
  282DOPS   C3B 3306   4.002   4.046  12.527  0.1056  0.2256 -0.3599
  282DOPS   C4B 3307   3.689   4.408  12.341  0.2488  0.1427 -0.2497
  283DOPC   NC3 3308   3.997  11.282  13.053 -0.2613 -0.0206  0.1281
  283DOPC   PO4 3309   4.252  11.265  13.357 -0.1147 -0.0258  0.0625
  283DOPC   GL1 3310   4.169  11.242  13.698  0.1339  0.2311  0.0772
  283DOPC   GL2 3311   3.862  11.198  13.848  0.0896  0.2468  0.1057
  283DOPC   C1A 3312   4.343  11.313  14.110 -0.0224 -0.3124  0.0318
  283DOPC   D2A 3313   4.509  11.308  14.541  0.1147  0.1489 -0.0673
  283DOPC   C3A 3314   4.155  11.443  14.765  0.0736  0.1882 -0.2663
  283DOPC   C4A 3315   4.169  11.839  15.008 -0.0104 -0.2393 -0.0382
  283DOPC   C1B 3316   3.830  10.832  14.147 -0.1022 -0.3477 -0.3487
  283DOPC   D2B 3317   3.967  10.530  14.454  0.0016  0.0291  0.1078
  283DOPC   C3B 3318   3.938  10.563  14.861 -0.0684  0.1624  0.0763
  283DOPC   C4B 3319   4.039  10.427  15.324  0.1439  0.2640 -0.0835
  284DOPE   NH3 3320   1.400   3.900  13.426 -0.3347 -0.5115  0.0491
  284DOPE   PO4 3321   1.114   3.946  13.347 -0.0622 -0.3164  0.1485
  284DOPE   GL1 3322   0.921   3.935  13.661 -0.0900  0.2612  0.3742
  284DOPE   GL2 3323   0.942   3.716  13.752 -0.1618  0.1384  0.0220
  284DOPE   C1A 3324   0.694   4.218  14.004  0.0329 -0.0048 -0.2873
  284DOPE   D2A 3325   0.262   4.358  14.112 -0.0193  0.1286  0.1313
  284DOPE   C3A 3326  -0.051   4.572  14.294  0.0450  0.1709  0.3187
  284DOPE   C4A 3327  -0.263   4.989  14.191 -0.0298  0.0968 -0.0109
  284DOPE   C1B 3328   1.057   3.863  14.148  0.1407 -0.2110  0.0865
  284DOPE   D2B 3329   0.970   3.725  14.534 -0.1674  0.1520 -0.0863
  284DOPE   C3B 3330   0.578   4.049  14.519 -0.0000  0.1119 -0.1374
  284DOPE   C4B 3331   0.140   4.058  14.628  0.0664  0.0350 -0.0279
  285DOPE   NH3 3332   7.428   5.678  12.635 -0.0478  0.0190 -0.1918
  285DOPE   PO4 3333   7.457   5.607  12.348 -0.1057 -0.1106 -0.2875
  285DOPE   GL1 3334   7.052   5.525  12.410  0.0743 -0.2193 -0.0474
  285DOPE   GL2 3335   6.995   5.371  12.652  0.0094 -0.2359 -0.0400
  285DOPE   C1A 3336   6.767   5.269  12.115  0.0676  0.0348  0.1229
  285DOPE   D2A 3337   6.437   4.984  11.879  0.2068 -0.1687 -0.2012
  285DOPE   C3A 3338   5.992   5.079  11.759 -0.2838 -0.1097 -0.0361
  285DOPE   C4A 3339   5.707   5.068  11.375  0.1983  0.0196  0.1966
  285DOPE   C1B 3340   6.613   5.620  12.683  0.0289  0.0109  0.1453
  285DOPE   D2B 3341   6.318   5.472  12.971 -0.1153 -0.1594 -0.0559
  285DOPE   C3B 3342   5.958   5.378  12.694  0.1223  0.1276 -0.0458
  285DOPE   C4B 3343   5.511   5.178  12.760  0.1199  0.1543  0.1868
  286POSM   NC3 3344   9.442   7.299  12.300  0.0518 -0.0712  0.1178
  286POSM   PO4 3345   9.746   7.047  12.451 -0.0329  0.0067  0.2773
  286POSM   AM1 3346   9.587   6.998  12.708 -0.1022 -0.0009 -0.4777
  286POSM   AM2 3347   9.367   7.144  12.796  0.1720 -0.0151 -0.0621
  286POSM   T1A 3348   9.585   6.807  13.192  0.1101 -0.2387 -0.2896
  286POSM   C2A 3349   9.695   6.661  13.644  0.0152 -0.2765  0.2229
  286POSM   C3A 3350   9.627   6.576  14.111 -0.1693  0.4060 -0.1481
  286POSM   C1B 3351   9.160   7.103  13.091 -0.0022 -0.0502 -0.0482
  286POSM   D2B 3352   9.045   6.801  13.466  0.3760 -0.3206 -0.1477
  286POSM   C3B 3353   8.702   6.911  13.776 -0.3170  0.0549  0.1892
  286POSM   C4B 3354   8.566   7.420  13.867  0.0796 -0.1544 -0.1332
  287POSM   NC3 3355  10.113  11.059  12.637  0.0364 -0.2686 -0.3339
  287POSM   PO4 3356   9.995  10.839  12.388 -0.3119 -0.0485 -0.2876
  287POSM   AM1 3357   9.843  10.541  12.350  0.0181 -0.3115 -0.0599
  287POSM   AM2 3358   9.651  10.402  12.497  0.0127  0.1106 -0.2626
  287POSM   T1A 3359   9.858  10.083  12.163  0.0830 -0.2928  0.2256
  287POSM   C2A 3360   9.638   9.686  11.959  0.1550  0.1167  0.0802
  287POSM   C3A 3361   9.251   9.487  12.051 -0.0495 -0.1198 -0.2893
  287POSM   C1B 3362   9.554  10.280  12.763 -0.0268  0.2205  0.1004
  287POSM   D2B 3363   9.497  10.021  13.190 -0.2704  0.2396  0.1078
  287POSM   C3B 3364   9.891   9.783  13.255 -0.0544  0.3043 -0.2969
  287POSM   C4B 3365  10.351   9.965  13.319  0.0048  0.3168 -0.1737
  288DOPC   NC3 3366   0.807   4.503  13.636 -0.0514 -0.1351  0.1149
  288DOPC   PO4 3367   0.542   4.625  13.356  0.0867  0.1496 -0.0470
  288DOPC   GL1 3368   0.373   4.623  13.751  0.0994 -0.2128  0.2423
  288DOPC   GL2 3369   0.157   4.833  13.827  0.2870  0.0190 -0.0508
  288DOPC   C1A 3370   0.688   4.836  14.012 -0.0266 -0.0881  0.0599
  288DOPC   D2A 3371   1.125   4.853  14.019  0.1287  0.1974 -0.1876
  288DOPC   C3A 3372   1.345   4.878  14.455 -0.1036 -0.8053 -0.2578
  288DOPC   C4A 3373   1.216   4.940  14.893  0.2973  0.0029 -0.1936
  288DOPC   C1B 3374   0.056   5.302  13.657  0.2968 -0.2478  0.1794
  288DOPC   D2B 3375  -0.068   5.701  13.679  0.0141 -0.0736 -0.1292
  288DOPC   C3B 3376   0.220   5.849  13.360  0.0453  0.0810 -0.3134
  288DOPC   C4B 3377   0.226   6.000  12.908 -0.1024  0.2974  0.2482
  289DOPC   NC3 3378   4.408  10.829  13.197 -0.1236  0.2078  0.0594
  289DOPC   PO4 3379   4.753  10.625  13.101 -0.2809 -0.1571 -0.2549
  289DOPC   GL1 3380   4.547  10.391  13.311 -0.1736  0.2634 -0.0746
  289DOPC   GL2 3381   4.331  10.406  13.523 -0.1936 -0.0496 -0.0937
  289DOPC   C1A 3382   4.438   9.969  13.460 -0.3816  0.2430  0.1323
  289DOPC   D2A 3383   4.175   9.628  13.702  0.1817  0.2130 -0.1062
  289DOPC   C3A 3384   4.377   9.205  13.873 -0.2705  0.0207  0.1369
  289DOPC   C4A 3385   4.465   8.903  14.194 -0.0303  0.0347  0.0191
  289DOPC   C1B 3386   4.127  10.456  13.933 -0.2671 -0.0889  0.1026
  289DOPC   D2B 3387   4.321  10.136  14.280 -0.1970 -0.0693 -0.1481
  289DOPC   C3B 3388   4.151   9.821  14.608 -0.0781  0.2200 -0.1911
  289DOPC   C4B 3389   4.122   9.602  15.034  0.0051 -0.2672  0.2118
  290DOPC   NC3 3390   5.304   7.276  12.790  0.2664 -0.1059 -0.2454
  290DOPC   PO4 3391   5.671   7.439  12.898  0.0753 -0.1081 -0.1827
  290DOPC   GL1 3392   5.707   7.407  13.289 -0.3241  0.1441  0.0303
  290DOPC   GL2 3393   5.884   7.656  13.378 -0.0266  0.2482 -0.0290
  290DOPC   C1A 3394   5.841   7.085  13.601 -0.2483  0.0980  0.1014
  290DOPC   D2A 3395   5.926   6.642  13.710 -0.2905  0.1478  0.0558
  290DOPC   C3A 3396   5.862   6.284  13.398  0.0669 -0.2566 -0.0511
  290DOPC   C4A 3397   6.174   6.023  13.226 -0.2334 -0.1800  0.1144
  290DOPC   C1B 3398   5.867   7.557  13.782 -0.1469  0.0736 -0.0921
  290DOPC   D2B 3399   6.118   7.302  14.101  0.2221 -0.0614 -0.0352
  290DOPC   C3B 3400   6.292   6.978  13.832 -0.1161  0.1158  0.0154
  290DOPC   C4B 3401   6.360   6.796  13.416 -0.1899 -0.0546 -0.0987
  291POSM   NC3 3402   1.738   4.267  12.494  0.1217  0.0462 -0.1855
  291POSM   PO4 3403   1.914   4.009  12.324  0.1127  0.1453 -0.0581
  291POSM   AM1 3404   2.222   3.996  12.384 -0.1590 -0.0486  0.3172
  291POSM   AM2 3405   2.366   3.782  12.500  0.0183 -0.1902 -0.1649
  291POSM   T1A 3406   2.720   4.149  12.442  0.2121  0.1686  0.1010
  291POSM   C2A 3407   3.153   4.245  12.391  0.0982  0.1116  0.1864
  291POSM   C3A 3408   3.257   4.668  12.291 -0.1303 -0.0796 -0.1127
  291POSM   C1B 3409   2.579   3.570  12.346 -0.0584 -0.2358  0.2114
  291POSM   D2B 3410   2.658   3.158  12.127  0.1865 -0.5229  0.3862
  291POSM   C3B 3411   2.370   2.823  12.258  0.0113 -0.3945 -0.4560
  291POSM   C4B 3412   2.188   2.407  12.228  0.0876  0.2236  0.0448
  292DOPC   NC3 3413  34.290  10.671  12.879  0.1842 -0.0462  0.3429
  292DOPC   PO4 3414  34.609  10.933  12.824  0.0354  0.1707 -0.1723
  292DOPC   GL1 3415  35.066  10.864  13.023  0.2333  0.1941  0.2865
  292DOPC   GL2 3416  35.053  10.963  13.293 -0.3109 -0.0040  0.1673
  292DOPC   C1A 3417  35.379  10.529  12.863  0.2663 -0.0525 -0.0437
  292DOPC   D2A 3418  35.698  10.155  12.953  0.4301 -0.0802 -0.1731
  292DOPC   C3A 3419  35.755  10.002  13.372 -0.1417  0.0656 -0.2991
  292DOPC   C4A 3420  35.604  10.063  13.870  0.3625 -0.2446  0.1436
  292DOPC   C1B 3421  35.489  10.874  13.270  0.0332 -0.0442  0.3337
  292DOPC   D2B 3422  35.952  10.723  13.420 -0.0042  0.0464  0.1015
  292DOPC   C3B 3423  36.155  10.373  13.297 -0.1240  0.2737 -0.4218
  292DOPC   C4B 3424  36.393  10.053  13.044 -0.1658 -0.0166  0.0205
  293POSM   NC3 3425  10.629   3.603  10.762 -0.0561  0.1042  0.1079
  293POSM   PO4 3426  10.773   3.375  11.071  0.0911 -0.0141  0.0500
  293POSM   AM1 3427  10.685   3.651  11.204 -0.0460 -0.2702  0.2831
  293POSM   AM2 3428  10.737   3.943  11.157  0.0675  0.1644 -0.0257
  293POSM   T1A 3429  10.598   3.890  11.622 -0.0893 -0.1323  0.0652
  293POSM   C2A 3430  10.742   3.944  12.090  0.0698  0.2012  0.1360
  293POSM   C3A 3431  10.455   4.103  12.495 -0.1768  0.0635 -0.2043
  293POSM   C1B 3432  10.620   4.254  11.277 -0.0025  0.1919 -0.2384
  293POSM   D2B 3433  10.260   4.459  11.529 -0.0635  0.0638  0.2237
  293POSM   C3B 3434  10.238   4.186  11.928  0.2635 -0.0368  0.1003
  293POSM   C4B 3435   9.913   4.218  12.343  0.1028 -0.0095 -0.0054
  294DOPS   CNO 3436   8.115   1.189  11.466  0.1188 -0.0682  0.1930
  294DOPS   PO4 3437   8.134   1.480  11.186  0.0357  0.3666 -0.0964
  294DOPS   GL1 3438   7.892   1.671  11.439 -0.1422 -0.0028  0.3451
  294DOPS   GL2 3439   7.729   1.933  11.522  0.1665 -0.0391 -0.3105
  294DOPS   C1A 3440   8.177   1.904  11.763  0.1512  0.0584 -0.0118
  294DOPS   D2A 3441   8.233   1.830  12.172 -0.0845  0.0691 -0.0623
  294DOPS   C3A 3442   7.994   1.982  12.558  0.2051  0.1095  0.0401
  294DOPS   C4A 3443   7.767   2.073  12.993 -0.0906  0.0159  0.0523
  294DOPS   C1B 3444   7.945   2.337  11.702 -0.0780  0.0532  0.0008
  294DOPS   D2B 3445   7.890   2.795  11.688  0.1417  0.2342 -0.1704
  294DOPS   C3B 3446   7.594   3.201  11.708  0.0812  0.0140 -0.1986
  294DOPS   C4B 3447   7.358   3.558  11.579  0.2969 -0.1817  0.3258
  295DOPC   NC3 3448   3.502   5.972  12.933  0.2490  0.2228  0.1243
  295DOPC   PO4 3449   3.628   6.328  12.786 -0.0821  0.3238  0.1502
  295DOPC   GL1 3450   3.892   6.082  12.652  0.1014 -0.1338 -0.0695
  295DOPC   GL2 3451   4.088   5.988  12.818  0.1784 -0.2817  0.3834
  295DOPC   C1A 3452   3.951   5.667  12.463 -0.2017  0.1278  0.2707
  295DOPC   D2A 3453   4.093   5.247  12.496  0.0202  0.0790  0.0685
  295DOPC   C3A 3454   3.845   4.914  12.701 -0.0617  0.0208  0.1865
  295DOPC   C4A 3455   3.786   4.499  12.933 -0.0945  0.0318  0.0295
  295DOPC   C1B 3456   4.457   6.111  12.580 -0.2603 -0.0690  0.0710
  295DOPC   D2B 3457   4.892   6.208  12.570  0.0012  0.1154 -0.1278
  295DOPC   C3B 3458   5.147   5.898  12.461  0.0350 -0.0999 -0.1127
  295DOPC   C4B 3459   5.107   5.436  12.432  0.0348 -0.2520 -0.2802
  296DOPS   CNO 3460  34.229  11.040  13.234  0.2897  0.2495  0.2455
  296DOPS   PO4 3461  34.548  10.899  13.401  0.0174  0.0007 -0.0773
  296DOPS   GL1 3462  34.769  10.626  13.545  0.2591 -0.1946 -0.1267
  296DOPS   GL2 3463  34.774  10.566  13.818  0.0935  0.2389  0.1251
  296DOPS   C1A 3464  35.135  10.393  13.439 -0.1955 -0.0023  0.2846
  296DOPS   D2A 3465  35.224   9.940  13.305  0.0866 -0.0197 -0.1209
  296DOPS   C3A 3466  35.549   9.682  13.054 -0.1124  0.1365 -0.1386
  296DOPS   C4A 3467  35.389   9.366  12.763  0.1376  0.2959  0.2137
  296DOPS   C1B 3468  35.180  10.298  13.946  0.3436 -0.0388  0.1091
  296DOPS   D2B 3469  35.289  10.199  14.387  0.0249  0.0574 -0.1589
  296DOPS   C3B 3470  35.247   9.821  14.687 -0.1106 -0.0979 -0.0068
  296DOPS   C4B 3471  35.187   9.669  15.108  0.2172 -0.0740 -0.0270
  297DOPE   NH3 3472   3.845   7.530  12.902  0.1874  0.0056 -0.0017
  297DOPE   PO4 3473   4.117   7.752  12.925 -0.0324 -0.1911  0.1691
  297DOPE   GL1 3474   3.753   7.986  12.910 -0.3186 -0.4648  0.3399
  297DOPE   GL2 3475   3.614   8.187  13.142 -0.1800  0.2171 -0.2063
  297DOPE   C1A 3476   3.654   8.442  12.736 -0.0392  0.1217 -0.0338
  297DOPE   D2A 3477   3.325   8.761  12.934  0.1327 -0.1407 -0.2493
  297DOPE   C3A 3478   3.444   9.198  13.046  0.1991  0.1661 -0.2526
  297DOPE   C4A 3479   3.678   9.596  12.899  0.6125 -0.5150 -0.1558
  297DOPE   C1B 3480   3.803   8.305  13.520 -0.3654 -0.1529  0.0932
  297DOPE   D2B 3481   4.244   8.357  13.672  0.1309 -0.1185 -0.0620
  297DOPE   C3B 3482   4.415   8.396  14.121 -0.0457 -0.0529  0.1683
  297DOPE   C4B 3483   4.665   8.492  14.558  0.2717 -0.0614  0.1597
  298DOPE   NH3 3484  10.366   2.593  11.139  0.0708 -0.1508 -0.0426
  298DOPE   PO4 3485  10.298   2.326  11.270  0.0651  0.1824 -0.0247
  298DOPE   GL1 3486  10.391   2.367  11.695 -0.1123  0.0075 -0.1823
  298DOPE   GL2 3487  10.124   2.383  11.850 -0.1439 -0.0416  0.0249
  298DOPE   C1A 3488  10.647   2.286  12.063  0.1043  0.0072 -0.0977
  298DOPE   D2A 3489  10.519   2.254  12.534 -0.2097 -0.1140  0.1831
  298DOPE   C3A 3490  10.609   2.595  12.787 -0.4449  0.2624 -0.2236
  298DOPE   C4A 3491  10.776   2.994  12.773  0.1775  0.1568  0.1711
  298DOPE   C1B 3492  10.170   2.050  12.182  0.1896 -0.0675 -0.1081
  298DOPE   D2B 3493  10.127   1.793  12.551  0.1059 -0.2175  0.2731
  298DOPE   C3B 3494  10.491   1.702  12.864  0.0296  0.1925  0.0779
  298DOPE   C4B 3495  10.913   1.719  12.746 -0.1136  0.0554 -0.3894
  299DOPE   NH3 3496   6.947   4.258  12.434 -0.1745 -0.2392 -0.0925
  299DOPE   PO4 3497   6.882   4.430  12.708  0.1823 -0.2310  0.2584
  299DOPE   GL1 3498   6.971   4.072  12.874  0.0454  0.1324  0.0167
  299DOPE   GL2 3499   6.926   3.866  12.766  0.3442  0.2576  0.2042
  299DOPE   C1A 3500   7.304   3.944  13.163  0.1192 -0.3035 -0.0817
  299DOPE   D2A 3501   7.554   3.811  13.530 -0.3529 -0.1088  0.1279
  299DOPE   C3A 3502   7.446   3.545  13.874  0.0122  0.2007 -0.1407
  299DOPE   C4A 3503   7.482   3.172  14.115  0.2183  0.0471 -0.1459
  299DOPE   C1B 3504   6.928   3.492  13.053  0.0882  0.1300  0.1595
  299DOPE   D2B 3505   7.264   3.412  13.365  0.0495  0.2249  0.2467
  299DOPE   C3B 3506   7.403   3.028  13.582  0.1244 -0.1267  0.3479
  299DOPE   C4B 3507   7.694   2.687  13.592  0.0018 -0.0222 -0.0501
  300DOPC   NC3 3508   5.201   1.788  11.789 -0.0385 -0.0947 -0.2287
  300DOPC   PO4 3509   5.397   2.002  11.985 -0.2123  0.0514  0.0736
  300DOPC   GL1 3510   5.260   2.002  12.341  0.0996  0.1400 -0.0043
  300DOPC   GL2 3511   5.020   1.766  12.277 -0.0198 -0.0402 -0.2096
  300DOPC   C1A 3512   5.477   1.950  12.756 -0.1061 -0.0353 -0.0953
  300DOPC   D2A 3513   5.422   1.938  13.292  0.2033  0.0630  0.1103
  300DOPC   C3A 3514   5.601   1.650  13.597 -0.2667  0.1864  0.1359
  300DOPC   C4A 3515   5.490   1.263  13.778  0.1612 -0.4842  0.2359
  300DOPC   C1B 3516   4.986   1.886  12.698  0.1033 -0.0495 -0.2831
  300DOPC   D2B 3517   4.890   1.847  13.173  0.0003 -0.1789  0.0211
  300DOPC   C3B 3518   4.510   1.559  13.220 -0.0172  0.1033 -0.0869
  300DOPC   C4B 3519   4.140   1.508  13.487  0.0603 -0.0837 -0.0072
  301DOPS   CNO 3520  10.447   7.199  12.167  0.1976  0.1776 -0.0148
  301DOPS   PO4 3521  10.296   7.029  12.495  0.1551  0.1280 -0.0661
  301DOPS   GL1 3522  10.533   6.820  12.735  0.1436 -0.1203 -0.0972
  301DOPS   GL2 3523  10.601   7.004  12.876  0.1810 -0.1527 -0.0120
  301DOPS   C1A 3524  10.526   6.656  13.184 -0.2391  0.2439  0.1187
  301DOPS   D2A 3525  10.812   6.575  13.543  0.2119  0.2116 -0.1111
  301DOPS   C3A 3526  10.983   6.138  13.661  0.2148  0.1354 -0.0013
  301DOPS   C4A 3527  11.359   5.854  13.767 -0.0440  0.1696  0.2387
  301DOPS   C1B 3528  10.963   6.918  13.140  0.2878  0.0598  0.1659
  301DOPS   D2B 3529  11.300   7.184  13.355 -0.0929 -0.1432 -0.0384
  301DOPS   C3B 3530  11.151   7.586  13.539 -0.1189 -0.1490 -0.1554
  301DOPS   C4B 3531  10.688   7.771  13.452 -0.3847  0.2023  0.0977
  302DOPS   CNO 3532   6.532   9.455  12.631 -0.1270 -0.0120  0.1033
  302DOPS   PO4 3533   6.500   9.654  12.975 -0.0478 -0.0821 -0.2823
  302DOPS   GL1 3534   6.765   9.799  13.214 -0.1113  0.0347 -0.0966
  302DOPS   GL2 3535   6.924   9.911  13.497 -0.0094  0.1873 -0.0557
  302DOPS   C1A 3536   7.273   9.675  13.254 -0.3314 -0.1877 -0.1924
  302DOPS   D2A 3537   7.685   9.575  13.116  0.4112  0.2059  0.0435
  302DOPS   C3A 3538   7.869   9.130  13.284 -0.1802  0.0739 -0.0294
  302DOPS   C4A 3539   7.881   8.834  13.665  0.0192 -0.0766 -0.0176
  302DOPS   C1B 3540   6.725  10.107  13.804 -0.0585 -0.0095 -0.1453
  302DOPS   D2B 3541   6.486  10.158  14.226  0.3411 -0.3028  0.3852
  302DOPS   C3B 3542   6.284  10.494  14.448 -0.1640 -0.0735  0.1121
  302DOPS   C4B 3543   6.088  10.948  14.393  0.0570 -0.2863  0.2897
  303DOPC   NC3 3544   6.362   9.248  13.148  0.0290  0.2116 -0.0568
  303DOPC   PO4 3545   6.187   9.531  13.352 -0.1395  0.1389 -0.0654
  303DOPC   GL1 3546   6.627   9.466  13.459  0.2547  0.1271  0.0122
  303DOPC   GL2 3547   6.506   9.318  13.665 -0.1918  0.4506 -0.4367
  303DOPC   C1A 3548   7.055   9.449  13.690  0.1778  0.2622 -0.0047
  303DOPC   D2A 3549   7.340   9.401  14.078 -0.0588 -0.0495 -0.0510
  303DOPC   C3A 3550   7.137   9.067  14.338  0.4275 -0.1794 -0.1763
  303DOPC   C4A 3551   7.350   8.831  14.655 -0.2265  0.2529  0.1216
  303DOPC   C1B 3552   6.790   9.033  13.912 -0.1016 -0.1345 -0.3698
  303DOPC   D2B 3553   7.268   9.007  13.800  0.1360 -0.1683 -0.1062
  303DOPC   C3B 3554   7.413   8.741  13.485  0.1881 -0.0880  0.2047
  303DOPC   C4B 3555   7.715   8.602  13.166  0.1219 -0.4186  0.0713
  304DOPS   CNO 3556   2.133   5.849  12.394 -0.0622  0.1323  0.1318
  304DOPS   PO4 3557   2.274   5.493  12.524 -0.0027  0.4940 -0.0979
  304DOPS   GL1 3558   2.428   5.232  12.822 -0.0453 -0.2522  0.0908
  304DOPS   GL2 3559   2.534   4.963  12.788 -0.0128  0.0861  0.4805
  304DOPS   C1A 3560   2.333   5.019  13.209 -0.4359 -0.2224  0.0200
  304DOPS   D2A 3561   2.170   5.102  13.648 -0.0191 -0.0579 -0.1648
  304DOPS   C3A 3562   2.173   4.886  14.056 -0.0281  0.0390 -0.1785
  304DOPS   C4A 3563   2.454   4.558  14.283  0.0322  0.1285  0.1951
  304DOPS   C1B 3564   2.895   4.660  12.739 -0.2762  0.0097 -0.1201
  304DOPS   D2B 3565   3.275   4.432  12.892  0.2276 -0.0871 -0.0241
  304DOPS   C3B 3566   3.319   4.552  13.360 -0.1699  0.0445  0.0775
  304DOPS   C4B 3567   3.295   4.297  13.788 -0.2041  0.1532  0.3192
  305DOPS   CNO 3568   3.561   7.119  12.913  0.3064  0.2113 -0.4398
  305DOPS   PO4 3569   3.804   7.163  13.195  0.1719 -0.0495  0.0940
  305DOPS   GL1 3570   3.895   6.981  13.563  0.2457 -0.0174  0.2035
  305DOPS   GL2 3571   3.956   7.177  13.787 -0.1067  0.4812  0.2109
  305DOPS   C1A 3572   4.231   6.766  13.857 -0.0932 -0.0462  0.3110
  305DOPS   D2A 3573   4.482   6.421  13.974  0.2874 -0.0610 -0.2459
  305DOPS   C3A 3574   4.452   6.162  14.403 -0.5192  0.3273 -0.1162
  305DOPS   C4A 3575   4.448   5.855  14.779  0.0207 -0.0278  0.0214
  305DOPS   C1B 3576   3.851   7.376  14.163 -0.2020  0.1518 -0.0457
  305DOPS   D2B 3577   4.165   7.444  14.493 -0.0324  0.2160  0.2697
  305DOPS   C3B 3578   4.212   7.173  14.840  0.1242 -0.1799  0.3110
  305DOPS   C4B 3579   4.448   6.938  15.191 -0.3539  0.1852 -0.1074
  306DOPC   NC3 3580   1.926   8.831  12.990  0.2866 -0.0227  0.1021
  306DOPC   PO4 3581   1.804   8.730  13.348  0.2334  0.0538 -0.1590
  306DOPC   GL1 3582   1.822   8.793  13.721 -0.1008  0.5884 -0.1196
  306DOPC   GL2 3583   1.851   9.063  13.821 -0.1791  0.2778 -0.1011
  306DOPC   C1A 3584   2.135   8.766  14.067  0.1068 -0.0360  0.2310
  306DOPC   D2A 3585   2.395   8.769  14.398 -0.0544 -0.0377 -0.1778
  306DOPC   C3A 3586   2.214   9.031  14.746  0.0779  0.0703 -0.1329
  306DOPC   C4A 3587   2.219   9.530  14.798 -0.1438  0.0335  0.1785
  306DOPC   C1B 3588   1.721   9.427  13.823 -0.0010  0.0942 -0.0002
  306DOPC   D2B 3589   1.827   9.862  13.994 -0.1358 -0.1636 -0.1542
  306DOPC   C3B 3590   2.021   9.837  14.462  0.1589  0.0638  0.1511
  306DOPC   C4B 3591   1.927   9.983  14.869 -0.0432  0.5088 -0.0972
  307DOPE   NH3 3592   9.433  34.019  10.888  0.4276  0.1668 -0.2615
  307DOPE   PO4 3593   9.556  34.273  11.110  0.1520 -0.0038 -0.0567
  307DOPE   GL1 3594   9.547  34.357  11.438  0.3376 -0.2714 -0.3712
  307DOPE   GL2 3595   9.345  34.525  11.445  0.1317 -0.2046 -0.0211
  307DOPE   C1A 3596   9.748  34.311  11.887  0.2195  0.1740 -0.2638
  307DOPE   D2A 3597   9.770  34.150  12.345  0.2725 -0.0550  0.1080
  307DOPE   C3A 3598   9.474  33.807  12.471  0.0830 -0.0316  0.3204
  307DOPE   C4A 3599   9.376  33.368  12.552 -0.0022  0.0640  0.2122
  307DOPE   C1B 3600   9.346  34.967  11.637 -0.1054 -0.0706 -0.3626
  307DOPE   D2B 3601   9.318  35.044  12.085 -0.1030  0.0542  0.3072
  307DOPE   C3B 3602   9.381  34.582  12.019  0.1431  0.2856 -0.0940
  307DOPE   C4B 3603   9.211  34.191  12.253  0.1213 -0.2102 -0.3136
  308DOPE   NH3 3604  34.668  11.132  13.956 -0.0248  0.0642 -0.0691
  308DOPE   PO4 3605  34.659  11.143  14.275  0.1222 -0.1748 -0.1626
  308DOPE   GL1 3606  34.752  11.364  14.658  0.0914  0.0308 -0.0077
  308DOPE   GL2 3607  35.000  11.478  14.467 -0.0570  0.0669 -0.0004
  308DOPE   C1A 3608  35.081  11.308  14.983 -0.1727  0.1718  0.0485
  308DOPE   D2A 3609  35.366  11.174  15.291  0.0388 -0.2740 -0.0858
  308DOPE   C3A 3610  35.538  11.244  15.771  0.3806 -0.2336  0.0574
  308DOPE   C4A 3611  35.645  11.376  16.201  0.1220 -0.1216 -0.0749
  308DOPE   C1B 3612  35.246  11.086  14.429  0.0837  0.0348  0.0817
  308DOPE   D2B 3613  35.680  11.013  14.249  0.0953 -0.0504  0.2376
  308DOPE   C3B 3614  35.679  10.632  14.547 -0.1550  0.0276  0.1255
  308DOPE   C4B 3615  35.808  10.484  15.001 -0.0200  0.0172  0.0130
  309POSM   NC3 3616   5.828   2.917  12.387  0.0970  0.0717 -0.1570
  309POSM   PO4 3617   5.642   3.232  12.558 -0.1318 -0.2151  0.1226
  309POSM   AM1 3618   5.647   3.330  12.875  0.0063 -0.2815  0.0797
  309POSM   AM2 3619   5.907   3.282  13.020  0.2720  0.4724 -0.2067
  309POSM   T1A 3620   5.420   3.611  13.199 -0.2757 -0.0121  0.1582
  309POSM   C2A 3621   5.223   3.902  13.496  0.0160 -0.1266  0.2975
  309POSM   C3A 3622   5.108   4.326  13.381 -0.0988  0.0533  0.1271
  309POSM   C1B 3623   5.903   3.477  13.283  0.0934  0.2647  0.1784
  309POSM   D2B 3624   5.961   3.468  13.750 -0.1059 -0.1410 -0.0687
  309POSM   C3B 3625   5.730   3.869  13.860  0.0196  0.1749 -0.0046
  309POSM   C4B 3626   5.337   4.066  14.101 -0.0897  0.0851  0.0415
  310DOPS   CNO 3627   9.183  10.720  12.223 -0.1360  0.1864 -0.2507
  310DOPS   PO4 3628   8.835  10.867  12.181 -0.1008  0.4164  0.0452
  310DOPS   GL1 3629   8.670  10.455  12.285  0.1400 -0.1297  0.1440
  310DOPS   GL2 3630   8.916  10.377  12.517  0.0153  0.0313  0.1149
  310DOPS   C1A 3631   8.654  10.041  12.110 -0.2081  0.0486 -0.1994
  310DOPS   D2A 3632   8.482   9.690  12.345  0.1813 -0.1379 -0.2149
  310DOPS   C3A 3633   8.048   9.530  12.547 -0.5211 -0.4182 -0.0832
  310DOPS   C4A 3634   7.694   9.280  12.632 -0.2707  0.0116  0.0542
  310DOPS   C1B 3635   9.219  10.161  12.275 -0.1366 -0.0062  0.0437
  310DOPS   D2B 3636   9.508  10.330  11.945 -0.2302  0.1135  0.0464
  310DOPS   C3B 3637   9.810  10.187  11.632 -0.3558 -0.1632  0.1382
  310DOPS   C4B 3638  10.118   9.851  11.738  0.1504 -0.1534  0.0964
  311DOPC   NC3 3639   6.533   3.216  11.569 -0.1565  0.1634 -0.1284
  311DOPC   PO4 3640   6.169   3.055  11.485 -0.0626 -0.2491 -0.6386
  311DOPC   GL1 3641   6.395   2.825  11.713 -0.2371 -0.0710  0.4831
  311DOPC   GL2 3642   6.377   2.526  11.641 -0.1509  0.0977 -0.0250
  311DOPC   C1A 3643   6.791   2.610  11.872 -0.1757 -0.1562 -0.1479
  311DOPC   D2A 3644   7.181   2.799  12.122  0.3636 -0.1229 -0.1329
  311DOPC   C3A 3645   7.596   2.711  12.153  0.1020 -0.0430 -0.2866
  311DOPC   C4A 3646   8.029   2.729  12.324  0.1397 -0.1923  0.0788
  311DOPC   C1B 3647   6.632   2.169  11.695  0.1337  0.0167 -0.2202
  311DOPC   D2B 3648   6.855   2.020  12.055 -0.2107  0.1595 -0.0989
  311DOPC   C3B 3649   6.754   1.569  12.139 -0.1440 -0.1800 -0.0238
  311DOPC   C4B 3650   6.867   1.137  12.307 -0.0025 -0.1104 -0.1599
  312DOPE   NH3 3651   0.273   3.834  13.045  0.2239 -0.0690  0.0902
  312DOPE   PO4 3652   0.172   3.827  13.312 -0.2107  0.4098 -0.0397
  312DOPE   GL1 3653   0.041   3.728  13.678 -0.1773  0.0124 -0.2574
  312DOPE   GL2 3654   0.007   3.965  13.925  0.1792 -0.3306  0.0155
  312DOPE   C1A 3655   0.086   3.256  13.815 -0.1795  0.5464  0.1685
  312DOPE   D2A 3656   0.508   2.983  13.786  0.1420  0.0699 -0.2800
  312DOPE   C3A 3657   0.566   2.720  13.393  0.3273 -0.0784 -0.1303
  312DOPE   C4A 3658   0.603   2.357  13.088  0.2904  0.2582 -0.1000
  312DOPE   C1B 3659  -0.179   3.622  14.078 -0.1370  0.0554 -0.2230
  312DOPE   D2B 3660  -0.293   3.204  14.191  0.2179 -0.2150  0.2869
  312DOPE   C3B 3661   0.063   2.988  14.257  0.0260 -0.2518 -0.0794
  312DOPE   C4B 3662   0.408   2.900  14.548  0.0222  0.2344 -0.2001
  313DOPS   CNO 3663   5.485   2.781  11.884 -0.0012  0.0411 -0.0008
  313DOPS   PO4 3664   5.878   2.769  11.896 -0.0338 -0.0336 -0.0382
  313DOPS   GL1 3665   5.942   2.327  12.076  0.2268  0.3895 -0.1120
  313DOPS   GL2 3666   6.191   2.154  11.979  0.0103  0.0481 -0.1981
  313DOPS   C1A 3667   5.931   2.210  12.558  0.4117 -0.2516  0.0086
  313DOPS   D2A 3668   5.971   2.098  13.026 -0.0377  0.2083  0.1313
  313DOPS   C3A 3669   5.901   1.585  13.155 -0.0495 -0.1203 -0.1631
  313DOPS   C4A 3670   5.514   1.372  13.254  0.1224 -0.1297  0.4073
  313DOPS   C1B 3671   6.448   2.204  12.282 -0.0249  0.2532 -0.1582
  313DOPS   D2B 3672   6.880   2.467  12.350 -0.1656  0.2251  0.2911
  313DOPS   C3B 3673   7.285   2.569  12.527 -0.1734  0.0020 -0.0803
  313DOPS   C4B 3674   7.762   2.451  12.669  0.1218  0.0718 -0.0446
  314DOPS   CNO 3675   9.396   8.221  11.901 -0.3473  0.0012 -0.0722
  314DOPS   PO4 3676   9.171   8.278  12.172 -0.0432  0.0240 -0.0191
  314DOPS   GL1 3677   9.325   8.503  12.444 -0.0657 -0.3810 -0.2837
  314DOPS   GL2 3678   9.031   8.704  12.548 -0.0360 -0.1030 -0.1749
  314DOPS   C1A 3679   9.508   8.860  12.706  0.1393  0.0946 -0.1779
  314DOPS   D2A 3680   9.670   8.946  13.119  0.0800 -0.1663  0.0941
  314DOPS   C3A 3681   9.543   8.998  13.611  0.1050  0.0446 -0.0895
  314DOPS   C4A 3682   9.394   9.076  14.032  0.1465  0.0581 -0.1463
  314DOPS   C1B 3683   8.650   8.761  12.729  0.3278 -0.1325 -0.1324
  314DOPS   D2B 3684   8.458   8.908  13.109  0.0055  0.1006  0.0103
  314DOPS   C3B 3685   8.665   9.194  13.385  0.2384 -0.0292  0.1485
  314DOPS   C4B 3686   9.121   9.250  13.551  0.1055 -0.0646 -0.0520
  315DOPE   NH3 3687  34.223  10.140  13.383  0.1260 -0.0040 -0.0137
  315DOPE   PO4 3688  34.412  10.390  13.488  0.2116 -0.1076 -0.0460
  315DOPE   GL1 3689  34.501  10.191  13.815 -0.2063 -0.1022 -0.2635
  315DOPE   GL2 3690  34.395   9.919  13.907 -0.2048 -0.0412  0.1740
  315DOPE   C1A 3691  34.652  10.175  14.236  0.2957  0.1979  0.1261
  315DOPE   D2A 3692  34.777  10.179  14.636 -0.1110 -0.2840 -0.1462
  315DOPE   C3A 3693  34.817  10.071  15.092 -0.0598  0.0297 -0.1752
  315DOPE   C4A 3694  34.643  10.007  15.544 -0.0399  0.2222  0.2270
  315DOPE   C1B 3695  34.641   9.572  13.831  0.2557  0.1127 -0.4280
  315DOPE   D2B 3696  34.668   9.260  14.173  0.3476 -0.2184  0.3168
  315DOPE   C3B 3697  34.324   9.233  14.495 -0.3114  0.0173  0.0722
  315DOPE   C4B 3698  33.904   9.167  14.616  0.0410  0.2856 -0.0685
  316DOPE   NH3 3699   3.753   6.823  12.545 -0.0181  0.2220  0.0918
  316DOPE   PO4 3700   3.902   6.790  12.819 -0.3233  0.5505  0.3632
  316DOPE   GL1 3701   4.150   6.463  12.845  0.6927 -0.1181 -0.3501
  316DOPE   GL2 3702   4.437   6.498  12.999 -0.3184 -0.0713 -0.0829
  316DOPE   C1A 3703   4.129   6.241  13.266 -0.0289 -0.0606 -0.5321
  316DOPE   D2A 3704   4.450   6.143  13.567 -0.4247  0.1366  0.0455
  316DOPE   C3A 3705   4.822   5.843  13.462  0.0114 -0.0978 -0.2083
  316DOPE   C4A 3706   5.226   6.049  13.393 -0.1784  0.4283  0.1198
  316DOPE   C1B 3707   4.670   6.112  13.035  0.0909  0.1037  0.0557
  316DOPE   D2B 3708   4.404   5.723  13.161 -0.3358  0.0501  0.0006
  316DOPE   C3B 3709   4.583   5.325  12.941  0.1261 -0.1168  0.0192
  316DOPE   C4B 3710   4.980   5.124  12.813  0.3766 -0.1125  0.1002
  317POSM   NC3 3711   9.546   0.177  11.089  0.3053 -0.3025  0.2162
  317POSM   PO4 3712   9.878   0.299  10.943 -0.0753 -0.4478  0.2108
  317POSM   AM1 3713   9.925   0.378  11.265  0.0546  0.1421 -0.0098
  317POSM   AM2 3714   9.798   0.271  11.512  0.2339 -0.1239 -0.0477
  317POSM   T1A 3715  10.070   0.649  11.707  0.0045  0.1331  0.0521
  317POSM   C2A 3716  10.078   0.932  12.121 -0.3214 -0.1462  0.1398
  317POSM   C3A 3717  10.252   0.913  12.544  0.1223 -0.1850  0.0640
  317POSM   C1B 3718   9.833   0.175  11.842 -0.1813  0.2557  0.0007
  317POSM   D2B 3719   9.882   0.402  12.245  0.1289  0.0472  0.0564
  317POSM   C3B 3720  10.331   0.438  12.332 -0.0861 -0.0719  0.0807
  317POSM   C4B 3721  10.770   0.228  12.592 -0.1503  0.0191  0.0179
  318DOPC   NC3 3722   7.734   4.754  12.343 -0.1691  0.0124 -0.0385
  318DOPC   PO4 3723   7.693   4.627  12.743  0.0401 -0.0163  0.0485
  318DOPC   GL1 3724   7.726   4.457  13.024  0.0387 -0.0622 -0.0358
  318DOPC   GL2 3725   7.731   4.136  13.015  0.0793 -0.0145 -0.0505
  318DOPC   C1A 3726   7.970   4.291  13.411 -0.2774  0.3248  0.0470
  318DOPC   D2A 3727   8.252   4.572  13.650  0.1312  0.2223 -0.2464
  318DOPC   C3A 3728   8.634   4.487  13.638 -0.0054 -0.2586 -0.0834
  318DOPC   C4A 3729   9.005   4.232  13.738 -0.1875  0.1569  0.0443
  318DOPC   C1B 3730   7.943   3.803  13.256 -0.2891 -0.1514 -0.0477
  318DOPC   D2B 3731   8.081   3.766  13.722  0.2149 -0.2497  0.2288
  318DOPC   C3B 3732   8.032   4.131  13.973  0.0309  0.1733 -0.0131
  318DOPC   C4B 3733   8.382   4.370  14.079 -0.0660  0.0147  0.1284
  319DOPC   NC3 3734   3.177   6.379  12.638  0.1001  0.1997 -0.1878
  319DOPC   PO4 3735   3.045   6.038  12.597 -0.1661 -0.1507  0.2735
  319DOPC   GL1 3736   3.117   5.754  12.838 -0.5931  0.0655 -0.0526
  319DOPC   GL2 3737   3.297   5.575  12.728  0.2347  0.0219  0.2461
  319DOPC   C1A 3738   3.307   5.504  13.224  0.0333 -0.3540 -0.0685
  319DOPC   D2A 3739   3.311   5.084  13.472  0.0956 -0.3409  0.1874
  319DOPC   C3A 3740   3.140   4.912  13.842 -0.1192  0.2270 -0.1383
  319DOPC   C4A 3741   2.752   5.001  14.055 -0.0408  0.2155  0.1634
  319DOPC   C1B 3742   3.701   5.376  12.789  0.2665 -0.0245  0.0127
  319DOPC   D2B 3743   4.075   5.376  13.021  0.0462  0.1467  0.4773
  319DOPC   C3B 3744   4.320   5.291  13.395  0.0197  0.1070 -0.2347
  319DOPC   C4B 3745   4.515   5.369  13.812  0.1360 -0.2356  0.0805
  320DOPE   NH3 3746   8.644  10.838  12.650 -0.0170  0.0561  0.1882
  320DOPE   PO4 3747   8.401  10.808  12.428  0.0626 -0.1415  0.2856
  320DOPE   GL1 3748   8.165  10.669  12.664 -0.3937 -0.1285  0.1121
  320DOPE   GL2 3749   8.106  10.395  12.505 -0.2673  0.1152 -0.0467
  320DOPE   C1A 3750   8.158  10.647  13.159  0.0642 -0.0022 -0.0330
  320DOPE   D2A 3751   8.119  10.860  13.587  0.0697  0.2317  0.2002
  320DOPE   C3A 3752   8.512  10.985  13.765 -0.2112  0.3543  0.0025
  320DOPE   C4A 3753   8.811  11.057  14.075  0.0332 -0.2435  0.1572
  320DOPE   C1B 3754   8.482  10.154  12.643 -0.0085  0.1136  0.0297
  320DOPE   D2B 3755   8.907   9.953  12.708  0.1395 -0.0051  0.3715
  320DOPE   C3B 3756   8.858   9.490  12.836 -0.1406  0.1459  0.1806
  320DOPE   C4B 3757   9.143   9.165  12.810  0.1631 -0.0872 -0.0187
  321POSM   NC3 3758  10.409  10.235  11.951  0.0383 -0.2559  0.3233
  321POSM   PO4 3759  10.412  10.592  12.046  0.0805  0.1349 -0.1152
  321POSM   AM1 3760  10.343  10.499  12.370  0.1480  0.0963 -0.2044
  321POSM   AM2 3761  10.414  10.571  12.646  0.4359  0.1515 -0.1314
  321POSM   T1A 3762  10.066  10.230  12.706  0.0413 -0.3940 -0.4230
  321POSM   C2A 3763   9.801   9.839  12.721  0.0539  0.1408  0.2718
  321POSM   C3A 3764   9.362   9.813  12.648 -0.0525  0.3085  0.0091
  321POSM   C1B 3765  10.360  10.739  12.953  0.1632  0.3480 -0.0354
  321POSM   D2B 3766  10.164  11.023  13.192 -0.2500 -0.5280  0.0338
  321POSM   C3B 3767  10.133  11.420  13.005 -0.0089  0.3693  0.1951
  321POSM   C4B 3768  10.183  11.616  12.585 -0.2115 -0.0306 -0.4635
  322DOPE   NH3 3769   7.229   6.103  12.142  0.0816  0.2014 -0.1303
  322DOPE   PO4 3770   6.987   5.905  12.201 -0.0452 -0.2099  0.1823
  322DOPE   GL1 3771   6.872   5.980  12.590  0.3337 -0.3051 -0.3980
  322DOPE   GL2 3772   7.038   5.933  12.723 -0.0583  0.0066 -0.0996
  322DOPE   C1A 3773   6.501   6.141  12.787  0.1631 -0.1288 -0.3427
  322DOPE   D2A 3774   6.272   6.495  13.044 -0.0587  0.1335  0.1283
  322DOPE   C3A 3775   5.972   6.631  12.699  0.2094  0.1377 -0.1129
  322DOPE   C4A 3776   5.669   6.890  12.478  0.2377  0.2453  0.0465
  322DOPE   C1B 3777   6.721   5.810  13.088 -0.1995 -0.3306  0.0446
  322DOPE   D2B 3778   6.456   5.669  13.458 -0.2664  0.1253 -0.0954
  322DOPE   C3B 3779   6.031   5.663  13.544  0.0563 -0.1008 -0.0013
  322DOPE   C4B 3780   5.671   5.879  13.531  0.1716  0.0988  0.0517
  323DOPC   NC3 3781   7.283   5.096  12.292 -0.0122  0.0468 -0.5728
  323DOPC   PO4 3782   7.452   5.201  12.619 -0.2301 -0.0981  0.1466
  323DOPC   GL1 3783   7.640   5.367  12.907 -0.0411 -0.5337 -0.0064
  323DOPC   GL2 3784   7.533   5.561  13.141 -0.3202 -0.0988  0.0188
  323DOPC   C1A 3785   7.799   5.182  13.306 -0.2867 -0.0455  0.0386
  323DOPC   D2A 3786   8.123   5.094  13.664 -0.1495 -0.4235 -0.5260
  323DOPC   C3A 3787   8.437   5.317  13.915  0.3418 -0.0222  0.1157
  323DOPC   C4A 3788   8.832   5.456  13.823 -0.4674  0.0170 -0.1667
  323DOPC   C1B 3789   7.392   5.404  13.554 -0.0146 -0.1784  0.0955
  323DOPC   D2B 3790   6.958   5.261  13.689 -0.0034  0.0308 -0.0124
  323DOPC   C3B 3791   6.904   5.668  13.936 -0.3310  0.2233  0.3673
  323DOPC   C4B 3792   6.848   6.115  14.126  0.1131 -0.2070 -0.1487
  324DOPS   CNO 3793   1.637   0.574  12.253 -0.2091 -0.1314  0.3375
  324DOPS   PO4 3794   1.304   0.769  12.303 -0.5006  0.2385 -0.0819
  324DOPS   GL1 3795   1.262   1.143  12.568  0.0390 -0.3118  0.0229
  324DOPS   GL2 3796   1.484   1.182  12.762 -0.0268 -0.2321 -0.3926
  324DOPS   C1A 3797   1.014   1.526  12.552 -0.1568  0.0225 -0.3616
  324DOPS   D2A 3798   0.644   1.842  12.582  0.0020  0.4758  0.1411
  324DOPS   C3A 3799   0.703   2.286  12.404 -0.1354  0.1446 -0.1507
  324DOPS   C4A 3800   1.000   2.513  12.672  0.1082 -0.0825  0.2484
  324DOPS   C1B 3801   1.351   1.179  13.222  0.2744  0.1907  0.1440
  324DOPS   D2B 3802   1.349   1.420  13.590  0.1971  0.4279  0.0771
  324DOPS   C3B 3803   1.783   1.603  13.781  0.0150  0.0165 -0.0270
  324DOPS   C4B 3804   2.108   1.805  14.023 -0.0407  0.0659  0.2574
  325DOPE   NH3 3805   2.850  10.446  13.019  0.1217 -0.3645 -0.3531
  325DOPE   PO4 3806   3.060  10.384  13.248  0.3788 -0.2259 -0.2786
  325DOPE   GL1 3807   3.407  10.147  13.278 -0.1849  0.0264  0.0618
  325DOPE   GL2 3808   3.274   9.928  13.062  0.0051 -0.0836  0.0505
  325DOPE   C1A 3809   3.559   9.754  13.454  0.1232 -0.0872  0.0706
  325DOPE   D2A 3810   3.694   9.530  13.841 -0.2898 -0.0136  0.1661
  325DOPE   C3A 3811   3.713   9.607  14.316  0.4234  0.0066  0.0085
  325DOPE   C4A 3812   3.739   9.377  14.765  0.3540  0.1143 -0.3308
  325DOPE   C1B 3813   3.150   9.596  12.781  0.3339 -0.0948 -0.1497
  325DOPE   D2B 3814   3.214   9.167  12.593 -0.0188  0.1399 -0.1718
  325DOPE   C3B 3815   3.654   9.032  12.653 -0.0373  0.1442  0.0465
  325DOPE   C4B 3816   3.959   9.171  12.948 -0.1325  0.2730 -0.0988
  326DOPE   NH3 3817   2.557   5.873  12.716  0.0504 -0.1804  0.1424
  326DOPE   PO4 3818   2.653   5.675  12.970  0.0791  0.2234 -0.0932
  326DOPE   GL1 3819   2.761   5.400  13.098 -0.0228  0.0743  0.0317
  326DOPE   GL2 3820   2.971   5.213  12.942  0.0862  0.1488 -0.1528
  326DOPE   C1A 3821   2.872   5.296  13.522 -0.2062 -0.0094 -0.1672
  326DOPE   D2A 3822   3.212   5.536  13.716 -0.0767 -0.2012 -0.0918
  326DOPE   C3A 3823   2.954   5.448  14.122 -0.3226 -0.2091 -0.0230
  326DOPE   C4A 3824   2.896   5.145  14.474  0.1548 -0.1365 -0.0063
  326DOPE   C1B 3825   2.891   4.835  13.199  0.1973 -0.1622  0.0499
  326DOPE   D2B 3826   2.722   4.813  13.610  0.1987  0.0510  0.0832
  326DOPE   C3B 3827   2.746   4.470  13.826  0.5497  0.0177  0.1375
  326DOPE   C4B 3828   2.823   4.018  13.938 -0.2567  0.0340  0.0668
  327DOPS   CNO 3829  10.305  11.077  12.074 -0.0983  0.0240 -0.0091
  327DOPS   PO4 3830  10.500  10.977  12.357 -0.0729 -0.0138 -0.2227
  327DOPS   GL1 3831  10.589  11.062  12.710  0.0329 -0.0701  0.3964
  327DOPS   GL2 3832  10.778  10.910  12.783 -0.1355 -0.1312 -0.1620
  327DOPS   C1A 3833  10.593  11.285  13.097  0.1931 -0.0695  0.1208
  327DOPS   D2A 3834  10.714  11.724  13.099  0.1431 -0.0963  0.1585
  327DOPS   C3A 3835  11.056  11.994  13.206 -0.1144 -0.1445  0.2683
  327DOPS   C4A 3836  11.305  12.079  13.594  0.1992 -0.0447  0.1502
  327DOPS   C1B 3837  10.901  10.731  13.168 -0.1861  0.3690 -0.0658
  327DOPS   D2B 3838  11.028  10.328  13.294 -0.2872  0.0370 -0.0047
  327DOPS   C3B 3839  10.738  10.307  13.673  0.0009 -0.3074  0.1928
  327DOPS   C4B 3840  10.395  10.406  13.925 -0.3981 -0.0452  0.0270
  328DOPE   NH3 3841  11.038   3.034  11.751 -0.0630 -0.0381 -0.0258
  328DOPE   PO4 3842  11.183   2.693  11.702  0.3329 -0.1243 -0.0824
  328DOPE   GL1 3843  10.925   2.610  11.924  0.3273 -0.3409 -0.3846
  328DOPE   GL2 3844  11.132   2.408  12.159  0.1055  0.1314 -0.0752
  328DOPE   C1A 3845  10.643   2.733  12.282 -0.3933 -0.0471  0.2346
  328DOPE   D2A 3846  10.229   2.643  12.398 -0.0835  0.3682  0.0617
  328DOPE   C3A 3847  10.189   2.710  12.843  0.3900  0.0596 -0.0401
  328DOPE   C4A 3848   9.949   2.545  13.234  0.1192 -0.2172 -0.1951
  328DOPE   C1B 3849  10.996   1.951  12.189  0.0704 -0.3550 -0.0095
  328DOPE   D2B 3850  10.577   1.790  12.341 -0.1061 -0.0662 -0.0880
  328DOPE   C3B 3851  10.597   1.336  12.428  0.3171 -0.0600  0.1408
  328DOPE   C4B 3852  10.577   1.018  12.150  0.0467 -0.2018 -0.2224
  329DOPS   CNO 3853   4.690   1.011  11.918 -0.0695 -0.1654  0.1032
  329DOPS   PO4 3854   4.924   1.173  11.645  0.0404  0.2045  0.0018
  329DOPS   GL1 3855   4.989   1.393  11.943  0.3814  0.1833  0.0637
  329DOPS   GL2 3856   4.656   1.503  12.014  0.1822  0.0502  0.1659
  329DOPS   C1A 3857   4.954   1.284  12.386  0.0044 -0.1631 -0.0790
  329DOPS   D2A 3858   4.618   1.356  12.757 -0.0179  0.0403 -0.3179
  329DOPS   C3A 3859   4.203   1.301  12.539  0.0577  0.1447  0.2796
  329DOPS   C4A 3860   3.746   1.322  12.474 -0.0863  0.3103 -0.0791
  329DOPS   C1B 3861   4.239   1.338  11.987  0.0487 -0.0142 -0.0644
  329DOPS   D2B 3862   4.131   0.937  12.174 -0.0968 -0.2031  0.1972
  329DOPS   C3B 3863   4.469   0.706  12.342  0.0573  0.0424  0.0779
  329DOPS   C4B 3864   4.931   0.540  12.291 -0.1317 -0.1494 -0.0418
  330DOPS   CNO 3865   9.191   1.254  10.983  0.3501 -0.1738 -0.0486
  330DOPS   PO4 3866   9.542   1.213  11.116  0.0462 -0.0736 -0.1201
  330DOPS   GL1 3867   9.778   1.120  11.447 -0.0696 -0.1733 -0.3176
  330DOPS   GL2 3868   9.643   1.039  11.664  0.2146 -0.1707 -0.1514
  330DOPS   C1A 3869  10.198   1.095  11.704  0.2357 -0.2617 -0.0868
  330DOPS   D2A 3870  10.519   0.783  11.619 -0.0929 -0.0326  0.1421
  330DOPS   C3A 3871  10.453   0.359  11.755 -0.0588  0.3694  0.1375
  330DOPS   C4A 3872  10.480  -0.007  11.473  0.2607  0.1322  0.0431
  330DOPS   C1B 3873   9.560   0.828  12.096 -0.5322 -0.1210 -0.1444
  330DOPS   D2B 3874   9.464   0.607  12.497 -0.1086  0.0509  0.2082
  330DOPS   C3B 3875   9.568   0.188  12.518 -0.1061  0.4914 -0.0917
  330DOPS   C4B 3876   9.572  -0.260  12.690  0.1847 -0.0654 -0.1620
  331DOPC   NC3 3877   4.424   2.265  11.680 -0.1905 -0.0640  0.0034
  331DOPC   PO4 3878   4.073   2.305  11.833 -0.1582  0.4041  0.4236
  331DOPC   GL1 3879   3.803   2.190  12.127 -0.1156  0.1007  0.2506
  331DOPC   GL2 3880   3.618   2.370  12.104 -0.1657  0.0802  0.1385
  331DOPC   C1A 3881   3.579   1.919  12.444  0.1413  0.1210 -0.0202
  331DOPC   D2A 3882   3.476   1.634  12.813  0.0560  0.0446 -0.2911
  331DOPC   C3A 3883   3.481   1.834  13.279 -0.3067 -0.0096  0.0204
  331DOPC   C4A 3884   3.636   2.108  13.622 -0.5864  0.0183 -0.1471
  331DOPC   C1B 3885   3.221   2.272  12.314 -0.4927 -0.1041 -0.0851
  331DOPC   D2B 3886   2.807   2.367  12.566  0.3011  0.2586  0.0123
  331DOPC   C3B 3887   2.840   2.680  12.931  0.0656  0.0675 -0.1577
  331DOPC   C4B 3888   2.744   3.044  13.187  0.0146  0.0808 -0.0639
  332DOPC   NC3 3889   9.974   6.637  12.347  0.3132  0.3978 -0.0106
  332DOPC   PO4 3890   9.664   6.481  12.478 -0.0508  0.1016  0.3840
  332DOPC   GL1 3891   9.820   6.608  12.846 -0.5826  0.3487 -0.2361
  332DOPC   GL2 3892  10.019   6.855  12.928  0.2452  0.2096 -0.0108
  332DOPC   C1A 3893  10.049   6.460  13.243  0.0126  0.0988 -0.0743
  332DOPC   D2A 3894  10.303   6.493  13.630 -0.0334  0.0681  0.4141
  332DOPC   C3A 3895  10.475   6.948  13.670 -0.0022  0.1861  0.1450
  332DOPC   C4A 3896  10.848   7.185  13.548 -0.2539 -0.2950  0.2985
  332DOPC   C1B 3897  10.065   7.011  13.325 -0.3267 -0.0439  0.0192
  332DOPC   D2B 3898   9.956   7.163  13.711 -0.0812  0.2222  0.0026
  332DOPC   C3B 3899   9.999   6.915  14.086 -0.0726  0.4227  0.1950
  332DOPC   C4B 3900  10.406   6.691  14.217 -0.0264 -0.0046 -0.1544
  333DOPE   NH3 3901   6.503   4.081  12.262 -0.1341 -0.0602  0.3145
  333DOPE   PO4 3902   6.451   4.066  12.588 -0.1577 -0.1403  0.0609
  333DOPE   GL1 3903   6.399   3.865  12.902 -0.0611 -0.1544 -0.0387
  333DOPE   GL2 3904   6.533   4.001  13.067  0.1790 -0.1569 -0.5876
  333DOPE   C1A 3905   6.418   3.493  13.221  0.1225 -0.1089 -0.0195
  333DOPE   D2A 3906   6.256   3.004  13.251 -0.0574 -0.0078  0.2241
  333DOPE   C3A 3907   6.121   2.862  13.683  0.1157 -0.0423 -0.2349
  333DOPE   C4A 3908   6.329   2.795  14.048  0.0417  0.1790 -0.1375
  333DOPE   C1B 3909   6.867   3.899  13.416  0.0417  0.1577  0.3043
  333DOPE   D2B 3910   7.075   4.051  13.797 -0.2892  0.2708 -0.1458
  333DOPE   C3B 3911   6.788   3.987  14.120  0.1057 -0.0524 -0.2069
  333DOPE   C4B 3912   6.781   4.173  14.494  0.3149 -0.0497 -0.0173
  334DOPC   NC3 3913   9.339  10.712  12.702  0.1037 -0.0079  0.1270
  334DOPC   PO4 3914   9.572  11.004  12.730  0.2870  0.1552 -0.2570
  334DOPC   GL1 3915   9.729  10.866  13.050 -0.2851 -0.1075 -0.1179
  334DOPC   GL2 3916   9.872  10.656  12.905 -0.4602  0.0566 -0.0609
  334DOPC   C1A 3917   9.379  10.680  13.297  0.2883  0.2907  0.0734
  334DOPC   D2A 3918   9.106  10.397  13.506  0.0459  0.2509  0.1229
  334DOPC   C3A 3919   8.863  10.569  13.823 -0.1837  0.2315 -0.1832
  334DOPC   C4A 3920   8.744  10.451  14.206 -0.1529 -0.1359 -0.1479
  334DOPC   C1B 3921  10.044  10.317  13.260  0.0939  0.1233  0.0262
  334DOPC   D2B 3922  10.043  10.115  13.680 -0.2459  0.1368  0.1648
  334DOPC   C3B 3923  10.172   9.658  13.737  0.1619  0.1031 -0.2508
  334DOPC   C4B 3924  10.320   9.331  13.977 -0.3201 -0.2539 -0.4043
  335POSM   NC3 3925   5.149   3.284  12.407 -0.2002  0.0101  0.2916
  335POSM   PO4 3926   5.250   2.880  12.362 -0.2281  0.1026  0.0737
  335POSM   AM1 3927   5.332   2.866  12.698 -0.1222 -0.0809  0.3919
  335POSM   AM2 3928   5.410   2.721  12.881  0.1673  0.0005  0.0197
  335POSM   T1A 3929   5.275   3.116  13.151 -0.1480 -0.2026  0.1651
  335POSM   C2A 3930   4.830   3.286  13.254  0.0597  0.3453 -0.0405
  335POSM   C3A 3931   4.538   3.575  13.130  0.4827 -0.1032  0.1716
  335POSM   C1B 3932   5.612   2.471  13.047  0.4594 -0.2851 -0.2934
  335POSM   D2B 3933   5.731   2.379  13.483  0.2188  0.0211  0.1272
  335POSM   C3B 3934   6.171   2.435  13.351 -0.0778 -0.2483 -0.0508
  335POSM   C4B 3935   6.539   2.634  13.131  0.0844  0.2003  0.0634
  336DOPC   NC3 3936   1.940   9.288  13.357  0.1798 -0.3324 -0.2290
  336DOPC   PO4 3937   2.202   9.018  13.400 -0.0296  0.2698  0.2116
  336DOPC   GL1 3938   2.374   8.732  13.580 -0.0734 -0.0224 -0.2090
  336DOPC   GL2 3939   2.203   8.506  13.493  0.3182  0.1480  0.0220
  336DOPC   C1A 3940   2.524   8.462  13.949 -0.3577 -0.1826 -0.0806
  336DOPC   D2A 3941   2.822   8.210  14.137 -0.2170 -0.3617  0.1699
  336DOPC   C3A 3942   2.648   8.007  14.515 -0.0588 -0.2624 -0.1289
  336DOPC   C4A 3943   2.837   7.735  14.824 -0.0734  0.2146  0.4398
  336DOPC   C1B 3944   2.007   8.323  13.844 -0.2911  0.0793 -0.0333
  336DOPC   D2B 3945   2.167   8.194  14.286 -0.1523  0.1812 -0.1245
  336DOPC   C3B 3946   1.820   8.244  14.568 -0.0914  0.1304  0.0072
  336DOPC   C4B 3947   1.609   7.987  14.908 -0.1347  0.3408  0.1185
  337DOPC   NC3 3948   5.291   8.858  13.251 -0.2278 -0.0167  0.2067
  337DOPC   PO4 3949   5.530   8.944  13.571  0.0047 -0.0160 -0.4027
  337DOPC   GL1 3950   5.681   8.759  13.819  0.0717 -0.3573  0.4575
  337DOPC   GL2 3951   5.827   8.579  13.647  0.0064  0.3129  0.0050
  337DOPC   C1A 3952   5.839   8.432  14.142 -0.0185  0.2119  0.1009
  337DOPC   D2A 3953   6.154   8.072  14.124  0.0855 -0.1507 -0.0776
  337DOPC   C3A 3954   6.529   8.243  14.367 -0.1633 -0.2825  0.1073
  337DOPC   C4A 3955   6.929   8.064  14.247 -0.1774 -0.1685  0.0298
  337DOPC   C1B 3956   6.179   8.452  13.790 -0.1852  0.0531 -0.1636
  337DOPC   D2B 3957   6.607   8.573  13.919 -0.1461  0.1102  0.0786
  337DOPC   C3B 3958   7.091   8.536  13.957 -0.3936 -0.0747 -0.1623
  337DOPC   C4B 3959   7.498   8.265  13.988 -0.3269 -0.0674 -0.1440
  338DOPE   NH3 3960   2.813  10.088  13.909  0.0534  0.1552  0.2791
  338DOPE   PO4 3961   3.036  10.065  13.636  0.0544  0.0547  0.0181
  338DOPE   GL1 3962   3.158   9.655  13.731  0.0161  0.2879 -0.1543
  338DOPE   GL2 3963   2.821   9.537  13.819  0.0221  0.0346  0.1354
  338DOPE   C1A 3964   3.232   9.514  14.178 -0.0642  0.1785  0.2209
  338DOPE   D2A 3965   3.296   9.316  14.584  0.2431 -0.0937 -0.2682
  338DOPE   C3A 3966   3.110   9.518  14.987 -0.0766  0.1065 -0.0888
  338DOPE   C4A 3967   3.116   9.719  15.443  0.1857 -0.0573 -0.0563
  338DOPE   C1B 3968   2.643   9.511  14.204  0.1350 -0.5494  0.0054
  338DOPE   D2B 3969   2.955   9.689  14.529 -0.0317 -0.1577 -0.3550
  338DOPE   C3B 3970   3.382   9.821  14.673  0.1097  0.0199  0.2180
  338DOPE   C4B 3971   3.754   9.903  14.933 -0.0940 -0.2101 -0.3655
  339DOPE   NH3 3972   2.903   9.530  13.296 -0.0668  0.0273 -0.0279
  339DOPE   PO4 3973   2.781   9.806  13.287 -0.2227 -0.1437 -0.0098
  339DOPE   GL1 3974   2.551   9.991  13.542  0.3335  0.1801  0.0700
  339DOPE   GL2 3975   2.552  10.234  13.374 -0.0287 -0.1190 -0.2799
  339DOPE   C1A 3976   2.105  10.069  13.623  0.0949  0.0731  0.3267
  339DOPE   D2A 3977   1.959  10.361  13.822  0.0261  0.1271  0.0031
  339DOPE   C3A 3978   1.786  10.256  14.282  0.0864  0.1957  0.1635
  339DOPE   C4A 3979   1.523  10.394  14.624 -0.1074  0.1052 -0.0669
  339DOPE   C1B 3980   2.453  10.698  13.402 -0.2208 -0.0892  0.0338
  339DOPE   D2B 3981   2.454  11.133  13.493  0.3158  0.3097  0.1089
  339DOPE   C3B 3982   2.256  10.860  13.864 -0.1603 -0.2760  0.2206
  339DOPE   C4B 3983   2.403  10.781  14.321 -0.1676 -0.1818 -0.1105
  340DOPC   NC3 3984  33.887   7.252  13.087 -0.1621  0.1312  0.1832
  340DOPC   PO4 3985  34.131   7.087  13.369  0.0100  0.1488 -0.1709
  340DOPC   GL1 3986  34.381   7.067  13.698  0.0896 -0.2223  0.0605
  340DOPC   GL2 3987  34.213   6.991  13.963  0.1626  0.0677 -0.0801
  340DOPC   C1A 3988  34.677   6.922  14.078  0.1727 -0.0538 -0.0386
  340DOPC   D2A 3989  34.966   6.554  14.112  0.0300 -0.1029  0.0238
  340DOPC   C3A 3990  35.404   6.472  14.276  0.1369 -0.0768  0.2367
  340DOPC   C4A 3991  35.801   6.432  14.106 -0.0302 -0.1505 -0.0226
  340DOPC   C1B 3992  34.015   6.640  14.241 -0.2235  0.0901 -0.0092
  340DOPC   D2B 3993  34.034   6.228  14.430  0.0982 -0.0244 -0.0361
  340DOPC   C3B 3994  33.868   5.811  14.235 -0.0209 -0.1327 -0.0915
  340DOPC   C4B 3995  33.742   5.521  13.920 -0.0041 -0.2203 -0.2654
  341DOPE   NH3 3996   8.631   6.131  12.751 -0.0934  0.0076 -0.1453
  341DOPE   PO4 3997   8.800   6.112  12.474 -0.0758  0.2322 -0.4710
  341DOPE   GL1 3998   9.163   6.027  12.460  0.1670  0.0286  0.1563
  341DOPE   GL2 3999   9.189   6.057  12.823 -0.0523  0.2060 -0.0722
  341DOPE   C1A 4000   9.593   5.846  12.362 -0.0056  0.3508 -0.2275
  341DOPE   D2A 4001   9.814   5.994  12.787  0.3168  0.1266 -0.0523
  341DOPE   C3A 4002  10.127   5.739  12.974  0.2330  0.0675 -0.1968
  341DOPE   C4A 4003  10.291   5.372  13.256  0.0134  0.1384 -0.1333
  341DOPE   C1B 4004   9.392   5.752  13.109 -0.0170  0.1487  0.2702
  341DOPE   D2B 4005   9.577   5.532  13.485 -0.0011 -0.2089  0.0924
  341DOPE   C3B 4006   9.756   5.079  13.424 -0.0770 -0.1969 -0.1048
  341DOPE   C4B 4007   9.699   4.660  13.155  0.2992 -0.1911 -0.0252
  342DOPS   CNO 4008   6.440  10.207  12.857  0.1274 -0.0902  0.1675
  342DOPS   PO4 4009   6.281  10.085  13.164  0.7086  0.3652  0.1120
  342DOPS   GL1 4010   6.406   9.958  13.503 -0.1308 -0.5587 -0.1966
  342DOPS   GL2 4011   6.266  10.088  13.672  0.2959 -0.1818  0.0123
  342DOPS   C1A 4012   6.531   9.720  13.916  0.1027 -0.0736  0.1048
  342DOPS   D2A 4013   6.170   9.570  14.154 -0.0720  0.0338  0.3356
  342DOPS   C3A 4014   5.816   9.761  14.309  0.2783  0.1657 -0.1388
  342DOPS   C4A 4015   5.426   9.969  14.452  0.2354 -0.0786  0.1270
  342DOPS   C1B 4016   6.259  10.456  13.950 -0.0824  0.1230 -0.2422
  342DOPS   D2B 4017   6.450  10.880  13.987  0.0865 -0.0925  0.1466
  342DOPS   C3B 4018   6.556  10.923  14.428 -0.0232  0.3505 -0.2833
  342DOPS   C4B 4019   6.855  10.893  14.734 -0.0742 -0.3132 -0.0091
  343DOPC   NC3 4020   3.420  10.881  12.992  0.0354 -0.0299  0.0616
  343DOPC   PO4 4021   3.138  10.899  13.250 -0.1146  0.0807  0.0946
  343DOPC   GL1 4022   3.380  10.642  13.468  0.2783 -0.0624  0.0015
  343DOPC   GL2 4023   3.198  10.551  13.709  0.3893 -0.0147  0.0775
  343DOPC   C1A 4024   3.662  10.341  13.625 -0.2040 -0.0331 -0.0368
  343DOPC   D2A 4025   3.866  10.056  13.957 -0.1876  0.3656 -0.0068
  343DOPC   C3A 4026   3.729  10.098  14.361  0.1570 -0.1834  0.2328
  343DOPC   C4A 4027   3.248  10.123  14.298  0.1753 -0.4195 -0.2388
  343DOPC   C1B 4028   3.460  10.524  14.039 -0.2691  0.2015  0.0099
  343DOPC   D2B 4029   3.422  10.670  14.453  0.1943 -0.0092  0.2984
  343DOPC   C3B 4030   3.224  11.027  14.549 -0.0237  0.0340  0.1698
  343DOPC   C4B 4031   3.205  11.320  14.882  0.0746  0.1746  0.3621
  344POSM   NC3 4032   8.674   6.508  12.176  0.0539 -0.5245 -0.1324
  344POSM   PO4 4033   8.700   6.576  12.568  0.0234 -0.0713  0.3382
  344POSM   AM1 4034   8.561   6.656  12.871  0.1398 -0.3974 -0.2892
  344POSM   AM2 4035   8.602   6.476  13.092 -0.3053  0.1776  0.3599
  344POSM   T1A 4036   8.674   7.020  13.190 -0.0016  0.1679 -0.1779
  344POSM   C2A 4037   8.848   7.487  13.172 -0.0443 -0.0546 -0.0525
  344POSM   C3A 4038   8.912   7.750  13.561  0.2258 -0.2953  0.1991
  344POSM   C1B 4039   8.677   6.445  13.444  0.4689 -0.2071 -0.3396
  344POSM   D2B 4040   8.933   6.412  13.832  0.0289 -0.1045  0.0527
  344POSM   C3B 4041   8.793   6.639  14.197  0.0617  0.0994 -0.0297
  344POSM   C4B 4042   8.412   6.941  14.302 -0.2539 -0.2604 -0.1876
  345DOPC   NC3 4043   2.571   8.333  13.203 -0.4012 -0.0780 -0.2099
  345DOPC   PO4 4044   2.264   8.467  13.020  0.1192 -0.1681 -0.0367
  345DOPC   GL1 4045   2.145   8.070  12.953  0.3863  0.1869  0.4134
  345DOPC   GL2 4046   2.408   7.884  12.998  0.0413 -0.2087 -0.0446
  345DOPC   C1A 4047   1.908   7.710  13.140 -0.1337  0.2302 -0.1820
  345DOPC   D2A 4048   1.616   7.420  13.018  0.0012  0.0549  0.0759
  345DOPC   C3A 4049   1.204   7.451  12.992  0.0045 -0.0512  0.0259
  345DOPC   C4A 4050   0.902   7.229  12.684 -0.1540  0.1787  0.2763
  345DOPC   C1B 4051   2.165   7.555  12.712  0.2526 -0.1754  0.1685
  345DOPC   D2B 4052   1.885   7.166  12.636 -0.2190 -0.0704 -0.0107
  345DOPC   C3B 4053   1.444   7.104  12.659  0.0998  0.0775  0.3257
  345DOPC   C4B 4054   1.141   6.743  12.566  0.3116  0.1815 -0.2361
  346POSM   NC3 4055   4.697   8.308  13.355  0.0026 -0.2337 -0.2028
  346POSM   PO4 4056   4.995   8.061  13.325  0.1839  0.2174 -0.1048
  346POSM   AM1 4057   5.017   8.036  13.673  0.2233 -0.0434  0.1231
  346POSM   AM2 4058   4.916   8.184  13.887  0.0928  0.4830  0.2934
  346POSM   T1A 4059   5.268   7.814  14.013  0.3229  0.1815  0.0708
  346POSM   C2A 4060   5.140   7.585  14.363 -0.0066  0.1112  0.2894
  346POSM   C3A 4061   5.126   7.205  14.634 -0.3437  0.0345  0.0818
  346POSM   C1B 4062   4.946   8.241  14.227  0.0234  0.2804  0.1721
  346POSM   D2B 4063   5.189   8.035  14.555 -0.1217 -0.3352  0.2109
  346POSM   C3B 4064   5.666   8.121  14.567 -0.1524  0.2766  0.1327
  346POSM   C4B 4065   6.110   8.266  14.670 -0.0979 -0.0653 -0.1579
  347DOPE   NH3 4066   2.954   6.918  13.154 -0.0131 -0.2011 -0.2543
  347DOPE   PO4 4067   3.014   7.215  13.091  0.0190 -0.0166 -0.2071
  347DOPE   GL1 4068   2.841   7.334  13.413  0.4006 -0.0070 -0.0890
  347DOPE   GL2 4069   3.001   7.197  13.646 -0.2831 -0.3285  0.1334
  347DOPE   C1A 4070   2.589   7.412  13.783  0.0801 -0.0866 -0.1484
  347DOPE   D2A 4071   2.715   7.557  14.199 -0.3993 -0.0951 -0.1873
  347DOPE   C3A 4072   2.761   7.271  14.571 -0.0962 -0.0495 -0.1341
  347DOPE   C4A 4073   2.710   7.253  14.999 -0.2413  0.1045 -0.3767
  347DOPE   C1B 4074   3.238   7.160  14.023 -0.0518  0.0694 -0.0013
  347DOPE   D2B 4075   3.259   7.176  14.461 -0.0295  0.1065 -0.0644
  347DOPE   C3B 4076   3.205   7.411  14.896  0.2389  0.1611  0.1217
  347DOPE   C4B 4077   3.019   7.458  15.340 -0.2614 -0.3451  0.0818
  348DOPE   NH3 4078   9.178   6.470  12.403  0.3153  0.0325 -0.1373
  348DOPE   PO4 4079   9.200   6.733  12.555 -0.2629 -0.1284  0.0500
  348DOPE   GL1 4080   9.327   6.635  12.849 -0.2217  0.2269  0.0507
  348DOPE   GL2 4081   9.104   6.608  13.054  0.0531  0.4287  0.3515
  348DOPE   C1A 4082   9.559   6.320  13.119 -0.3801 -0.2272  0.0161
  348DOPE   D2A 4083   9.828   5.988  13.378  0.4214  0.0782  0.1245
  348DOPE   C3A 4084   9.939   6.132  13.799  0.0351  0.0161 -0.0877
  348DOPE   C4A 4085  10.108   6.267  14.216  0.1092 -0.0430 -0.0883
  348DOPE   C1B 4086   9.110   6.277  13.397 -0.0883 -0.1252 -0.3604
  348DOPE   D2B 4087   9.153   5.872  13.650  0.1498 -0.1730 -0.0684
  348DOPE   C3B 4088   9.377   6.142  13.953 -0.2025  0.0246 -0.2202
  348DOPE   C4B 4089   9.573   6.126  14.366  0.0410 -0.1071 -0.0486
  349DOPS   CNO 4090   5.712  34.567  11.280  0.2979  0.2617  0.0951
  349DOPS   PO4 4091   5.440  34.488  11.533  0.1930 -0.3148 -0.1152
  349DOPS   GL1 4092   5.764  34.265  11.708 -0.3410 -0.1984 -0.1844
  349DOPS   GL2 4093   5.850  34.476  11.896  0.1351 -0.0714  0.2504
  349DOPS   C1A 4094   5.920  34.068  12.124 -0.2845 -0.0015 -0.0154
  349DOPS   D2A 4095   6.282  33.820  12.266 -0.2610 -0.3883  0.1014
  349DOPS   C3A 4096   6.217  33.358  12.320 -0.1319  0.2556  0.1100
  349DOPS   C4A 4097   6.121  33.024  12.641  0.2322 -0.0825  0.1489
  349DOPS   C1B 4098   6.196  34.523  12.226 -0.0180  0.0078 -0.0400
  349DOPS   D2B 4099   6.389  34.593  12.682  0.0658 -0.0444  0.2463
  349DOPS   C3B 4100   6.762  34.455  12.854 -0.3539 -0.0123  0.1063
  349DOPS   C4B 4101   6.932  34.162  13.119  0.0767 -0.0785 -0.0783
  350DOPE   NH3 4102   1.008  34.659  12.547  0.1269 -0.0403 -0.0104
  350DOPE   PO4 4103   1.120  34.957  12.480  0.0025 -0.1388  0.1493
  350DOPE   GL1 4104   1.023  35.149  12.835 -0.1822  0.2152 -0.2011
  350DOPE   GL2 4105   1.053  35.430  12.744  0.3201 -0.0817 -0.0648
  350DOPE   C1A 4106   1.042  35.399  13.252  0.0214  0.1446  0.1638
  350DOPE   D2A 4107   0.907  35.830  13.496  0.2293  0.1808  0.0275
  350DOPE   C3A 4108   0.918  35.805  13.943 -0.1758 -0.1530  0.1314
  350DOPE   C4A 4109   0.786  35.662  14.346  0.2170 -0.2060  0.1592
  350DOPE   C1B 4110   0.863  35.781  12.892 -0.3100  0.3919  0.0192
  350DOPE   D2B 4111   0.814  36.281  13.009  0.1329  0.0423  0.0166
  350DOPE   C3B 4112   0.846  36.360  13.500 -0.0771 -0.1181 -0.4302
  350DOPE   C4B 4113   0.719  36.564  13.860  0.0041 -0.2469 -0.0328
  351DOPE   NH3 4114   8.276   0.330  11.132 -0.1300  0.0673 -0.0810
  351DOPE   PO4 4115   8.506   0.554  11.166 -0.0427  0.2250  0.0124
  351DOPE   GL1 4116   8.535   0.459  11.509  0.0188 -0.0526 -0.1618
  351DOPE   GL2 4117   8.634   0.205  11.543  0.4844  0.0801 -0.0505
  351DOPE   C1A 4118   8.804   0.443  11.917 -0.0862 -0.1052  0.1048
  351DOPE   D2A 4119   8.625   0.737  12.243  0.0886 -0.1578  0.0406
  351DOPE   C3A 4120   8.575   1.204  12.445  0.1028  0.4074  0.1136
  351DOPE   C4A 4121   8.541   1.671  12.495  0.2014  0.0699 -0.0307
  351DOPE   C1B 4122   8.256   0.361  11.897  0.0177  0.0613 -0.0145
  351DOPE   D2B 4123   8.177   0.540  12.350  0.0965  0.1002 -0.1812
  351DOPE   C3B 4124   8.473   0.647  12.710  0.0251  0.1863  0.2129
  351DOPE   C4B 4125   8.744   0.923  12.994  0.1418  0.1300  0.1192
  352POSM   NC3 4126  10.381   7.754  12.034  0.0660 -0.1840 -0.3242
  352POSM   PO4 4127  10.108   7.984  12.177  0.2575  0.2967  0.0099
  352POSM   AM1 4128  10.095   8.264  12.350  0.0357  0.0853  0.0021
  352POSM   AM2 4129  10.258   8.510  12.300 -0.1154 -0.4434 -0.1195
  352POSM   T1A 4130   9.941   8.593  12.721  0.0488  0.0222  0.4920
  352POSM   C2A 4131  10.080   9.039  12.768  0.1772  0.1997 -0.0810
  352POSM   C3A 4132   9.985   9.449  12.984  0.1170  0.1129 -0.1060
  352POSM   C1B 4133  10.350   8.739  12.429  0.0666  0.0234  0.2859
  352POSM   D2B 4134  10.613   9.003  12.626 -0.1472  0.3834  0.2792
  352POSM   C3B 4135  10.475   9.411  12.821  0.1710 -0.0352  0.2913
  352POSM   C4B 4136  10.428   9.870  12.839  0.0598  0.0646  0.2838
  353DOPC   NC3 4137  10.855   8.436  12.399  0.1112  0.0662 -0.2810
  353DOPC   PO4 4138  10.564   8.188  12.432 -0.0517 -0.1976 -0.2184
  353DOPC   GL1 4139  10.378   8.116  12.722  0.0872 -0.1441 -0.1744
  353DOPC   GL2 4140  10.333   8.398  12.868 -0.1313 -0.0001 -0.1420
  353DOPC   C1A 4141  10.161   7.987  13.151  0.1445  0.2811  0.1421
  353DOPC   D2A 4142  10.263   8.028  13.608  0.4575 -0.1590 -0.3011
  353DOPC   C3A 4143   9.958   8.316  13.837  0.0343  0.1428 -0.3524
  353DOPC   C4A 4144   9.683   8.627  14.054  0.1514 -0.0946  0.1971
  353DOPC   C1B 4145  10.717   8.550  12.912  0.2283  0.2491 -0.2131
  353DOPC   D2B 4146  11.141   8.590  12.924 -0.0872  0.1068 -0.0656
  353DOPC   C3B 4147  11.419   8.964  13.037 -0.2057 -0.2039  0.1353
  353DOPC   C4B 4148  11.562   9.143  13.452 -0.0633  0.0388  0.2437
  354DOPC   NC3 4149   4.084   0.409  12.008  0.3504  0.0199 -0.1133
  354DOPC   PO4 4150   3.780   0.664  11.911  0.4217  0.0154  0.1770
  354DOPC   GL1 4151   3.649   0.556  12.353 -0.2928  0.2523 -0.0050
  354DOPC   GL2 4152   3.388   0.612  12.458 -0.3416  0.0645 -0.1929
  354DOPC   C1A 4153   4.007   0.743  12.640 -0.1025  0.3127 -0.1762
  354DOPC   D2A 4154   4.415   0.861  12.835  0.2609 -0.3373 -0.0053
  354DOPC   C3A 4155   4.810   0.863  12.665 -0.2719 -0.1437 -0.1096
  354DOPC   C4A 4156   5.270   0.859  12.505 -0.0797 -0.1638 -0.0362
  354DOPC   C1B 4157   3.595   0.478  12.859  0.0486  0.3835  0.0382
  354DOPC   D2B 4158   3.473   0.163  13.206  0.2346  0.2517 -0.0445
  354DOPC   C3B 4159   3.798  -0.176  13.129 -0.0119  0.0754 -0.3031
  354DOPC   C4B 4160   3.735  -0.600  12.845  0.0873 -0.0015 -0.0043
  355DOPE   NH3 4161   2.751   0.624  12.086 -0.3989  0.1267  0.2370
  355DOPE   PO4 4162   2.939   0.864  12.181 -0.2322  0.2378 -0.0560
  355DOPE   GL1 4163   3.256   1.031  12.363  0.5067  0.1716 -0.0680
  355DOPE   GL2 4164   3.131   1.329  12.496  0.0698 -0.0794 -0.3066
  355DOPE   C1A 4165   3.430   1.035  12.827 -0.0647 -0.3955 -0.0436
  355DOPE   D2A 4166   3.831   1.145  13.042 -0.0504  0.2677 -0.3344
  355DOPE   C3A 4167   4.041   1.573  12.977 -0.1063  0.0058 -0.0674
  355DOPE   C4A 4168   4.389   1.837  12.784 -0.2042 -0.0065  0.1468
  355DOPE   C1B 4169   3.020   1.391  12.915  0.2041  0.2607  0.1878
  355DOPE   D2B 4170   3.019   1.579  13.297  0.1479  0.0142  0.1368
  355DOPE   C3B 4171   3.157   1.345  13.731  0.0951 -0.0136  0.3427
  355DOPE   C4B 4172   3.028   0.924  13.738  0.2083 -0.3505 -0.1407
  356DOPE   NH3 4173   7.766   4.223  12.289 -0.1375 -0.0789  0.1797
  356DOPE   PO4 4174   7.910   4.080  12.526 -0.0652  0.2455 -0.2154
  356DOPE   GL1 4175   8.101   3.782  12.832 -0.1885  0.2406 -0.0326
  356DOPE   GL2 4176   8.316   3.930  12.885 -0.0647  0.1814 -0.0963
  356DOPE   C1A 4177   8.297   3.483  13.108 -0.1732 -0.1211  0.0421
  356DOPE   D2A 4178   8.679   3.497  13.372  0.0536 -0.1545  0.2050
  356DOPE   C3A 4179   8.418   3.437  13.789 -0.0188 -0.0702 -0.0821
  356DOPE   C4A 4180   8.358   3.631  14.203 -0.4355  0.2337  0.0047
  356DOPE   C1B 4181   8.510   4.053  13.270  0.0724 -0.0479 -0.0843
  356DOPE   D2B 4182   8.527   3.992  13.750  0.0369 -0.2203 -0.2962
  356DOPE   C3B 4183   8.893   3.758  13.825  0.1410  0.3447  0.1343
  356DOPE   C4B 4184   9.106   3.421  13.596 -0.1381 -0.1038 -0.4211
  357POSM   NC3 4185   5.783   1.318  11.880 -0.1630 -0.3153 -0.0604
  357POSM   PO4 4186   5.422   1.278  11.856 -0.0558  0.2919  0.1902
  357POSM   AM1 4187   5.375   1.300  12.148 -0.0752  0.3111  0.0188
  357POSM   AM2 4188   5.438   1.528  12.296 -0.2594  0.1879  0.1175
  357POSM   T1A 4189   5.820   1.231  12.441 -0.2144  0.1736 -0.3304
  357POSM   C2A 4190   6.205   1.325  12.647  0.1778  0.1585  0.1040
  357POSM   C3A 4191   6.602   1.148  12.703 -0.2838 -0.0220 -0.1082
  357POSM   C1B 4192   5.406   1.390  12.575  0.0374  0.0486  0.0104
  357POSM   D2B 4193   5.171   1.287  12.930  0.0022 -0.1006  0.1595
  357POSM   C3B 4194   4.800   1.067  13.106  0.2000  0.2776 -0.0732
  357POSM   C4B 4195   4.745   0.706  13.421 -0.0171 -0.0820 -0.2134
  358POSM   NC3 4196   8.146   5.250  12.959  0.0464  0.0406  0.2506
  358POSM   PO4 4197   8.012   5.018  12.684  0.0399 -0.1636 -0.3773
  358POSM   AM1 4198   8.106   4.829  12.932  0.0352  0.2791 -0.2588
  358POSM   AM2 4199   8.037   4.775  13.218 -0.2573 -0.4630 -0.3045
  358POSM   T1A 4200   8.468   4.553  13.166  0.0411  0.1372  0.0419
  358POSM   C2A 4201   8.887   4.434  13.144 -0.1721  0.0160  0.2690
  358POSM   C3A 4202   9.276   4.305  13.371 -0.0261  0.0358 -0.1039
  358POSM   C1B 4203   7.765   4.720  13.513  0.0171 -0.0620 -0.1533
  358POSM   D2B 4204   7.448   4.899  13.824  0.0870  0.0067  0.0334
  358POSM   C3B 4205   7.060   4.679  13.705 -0.1102  0.1849  0.0621
  358POSM   C4B 4206   6.685   4.345  13.705  0.0235  0.2358 -0.0867
  359POSM   NC3 4207   1.084   8.972  12.818  0.0624 -0.1568  0.1013
  359POSM   PO4 4208   1.444   8.838  12.924 -0.0007 -0.3444 -0.0226
  359POSM   AM1 4209   1.461   9.002  13.237  0.2476  0.0972  0.1500
  359POSM   AM2 4210   1.385   8.970  13.474 -0.0031  0.2940  0.3878
  359POSM   T1A 4211   1.390   9.493  13.415  0.0322  0.1158 -0.1873
  359POSM   C2A 4212   1.370   9.798  13.781  0.0958  0.0768  0.0051
  359POSM   C3A 4213   1.267   9.875  14.195 -0.0296  0.1299 -0.1280
  359POSM   C1B 4214   1.208   8.939  13.703 -0.2899 -0.1201 -0.1873
  359POSM   D2B 4215   1.225   8.761  14.175  0.0633  0.1853 -0.2255
  359POSM   C3B 4216   0.942   8.768  14.559  0.1491  0.1067  0.2035
  359POSM   C4B 4217   0.892   8.853  14.979  0.0839 -0.2425 -0.3689
  360POSM   NC3 4218   8.086   4.759  11.695 -0.1415  0.1624  0.3783
  360POSM   PO4 4219   8.057   4.447  11.943 -0.0389  0.0008  0.0183
  360POSM   AM1 4220   8.214   4.145  11.957  0.0768  0.1388  0.1037
  360POSM   AM2 4221   8.136   3.910  12.110  0.1903  0.0936  0.1124
  360POSM   T1A 4222   8.543   3.792  11.791  0.0401 -0.0107 -0.1845
  360POSM   C2A 4223   8.897   3.517  11.847 -0.1757  0.0198 -0.2992
  360POSM   C3A 4224   9.318   3.313  11.672 -0.0712  0.0221  0.0309
  360POSM   C1B 4225   8.136   3.556  12.039  0.1810  0.2046 -0.3450
  360POSM   D2B 4226   8.029   3.111  12.037 -0.0106  0.0680  0.2085
  360POSM   C3B 4227   8.366   2.789  11.949 -0.0388 -0.2272 -0.0034
  360POSM   C4B 4228   8.322   2.292  12.048 -0.2551  0.1014  0.0322
  361DOPC   NC3 4229   3.696   6.728  13.266  0.0186  0.2449  0.1949
  361DOPC   PO4 4230   3.368   6.929  13.423  0.0392 -0.0261 -0.5702
  361DOPC   GL1 4231   3.471   6.915  13.705 -0.0282  0.1467  0.2009
  361DOPC   GL2 4232   3.493   6.549  13.698  0.2999 -0.2903 -0.0992
  361DOPC   C1A 4233   3.787   6.799  14.062 -0.1551 -0.2072 -0.0775
  361DOPC   D2A 4234   4.106   6.503  14.257 -0.0729  0.0120  0.4957
  361DOPC   C3A 4235   4.001   6.120  14.009 -0.2498 -0.2947 -0.1225
  361DOPC   C4A 4236   3.979   5.708  13.788 -0.1403  0.2290  0.0514
  361DOPC   C1B 4237   3.621   6.209  13.427  0.1878  0.0185  0.0650
  361DOPC   D2B 4238   3.791   5.791  13.270  0.1115  0.2527 -0.2607
  361DOPC   C3B 4239   3.770   5.337  13.436 -0.1103 -0.1485 -0.0255
  361DOPC   C4B 4240   4.032   5.030  13.699 -0.0672 -0.2875  0.3328
  362DOPC   NC3 4241   7.732   1.009  11.188 -0.0158 -0.1926  0.0764
  362DOPC   PO4 4242   8.004   0.759  11.106 -0.1535 -0.2415  0.0694
  362DOPC   GL1 4243   8.100   0.586  11.461  0.1675 -0.0102 -0.1815
  362DOPC   GL2 4244   8.111   0.749  11.700 -0.0335  0.0568 -0.2251
  362DOPC   C1A 4245   7.886   0.242  11.661 -0.3800  0.1084  0.1021
  362DOPC   D2A 4246   8.251  -0.087  11.660 -0.1192  0.2910 -0.0483
  362DOPC   C3A 4247   8.408  -0.014  12.127 -0.1665  0.1531  0.2603
  362DOPC   C4A 4248   8.500   0.183  12.556  0.0529 -0.0070 -0.1720
  362DOPC   C1B 4249   8.120   0.918  12.113 -0.1098 -0.1981  0.1224
  362DOPC   D2B 4250   7.922   0.959  12.526 -0.1868  0.3598 -0.1005
  362DOPC   C3B 4251   7.591   1.293  12.416 -0.0775  0.1576 -0.3832
  362DOPC   C4B 4252   7.580   1.718  12.720  0.0149 -0.1923  0.0173
  363DOPE   NH3 4253   8.111   6.164  12.590  0.3697  0.3093 -0.1665
  363DOPE   PO4 4254   8.182   6.409  12.718  0.0194 -0.1608  0.1330
  363DOPE   GL1 4255   8.184   6.521  13.060 -0.3002  0.0340 -0.2082
  363DOPE   GL2 4256   8.155   6.781  12.994  0.4969  0.3072 -0.0085
  363DOPE   C1A 4257   8.214   6.693  13.459  0.2336  0.0883 -0.0190
  363DOPE   D2A 4258   8.131   7.150  13.599  0.0506 -0.1209 -0.2973
  363DOPE   C3A 4259   7.806   7.461  13.747  0.0438 -0.3245 -0.0727
  363DOPE   C4A 4260   7.455   7.718  13.843  0.2516 -0.1699 -0.0834
  363DOPE   C1B 4261   8.209   7.249  13.098 -0.2440  0.0013 -0.1215
  363DOPE   D2B 4262   7.931   7.622  13.184 -0.0061  0.0161  0.2927
  363DOPE   C3B 4263   7.513   7.556  13.321 -0.1778  0.2191 -0.0383
  363DOPE   C4B 4264   7.220   7.186  13.414  0.4418  0.2618  0.0734
  364DOPC   NC3 4265   7.331   6.565  12.346 -0.0597 -0.1913 -0.0505
  364DOPC   PO4 4266   7.018   6.435  12.506 -0.0370 -0.0960 -0.1088
  364DOPC   GL1 4267   7.273   6.642  12.861 -0.3238 -0.1906 -0.1238
  364DOPC   GL2 4268   7.242   6.927  12.716  0.2345 -0.0780 -0.1115
  364DOPC   C1A 4269   7.292   6.689  13.359 -0.1425 -0.1755  0.1161
  364DOPC   D2A 4270   7.728   6.563  13.470  0.1984 -0.0012 -0.1070
  364DOPC   C3A 4271   7.772   6.249  13.855 -0.2079 -0.6259  0.0269
  364DOPC   C4A 4272   7.980   6.303  14.245 -0.0349  0.2914 -0.2949
  364DOPC   C1B 4273   7.047   7.297  12.876 -0.2639 -0.0039  0.1009
  364DOPC   D2B 4274   6.781   7.503  13.186  0.1767 -0.2700  0.3267
  364DOPC   C3B 4275   6.876   7.629  13.592 -0.0409  0.1227  0.0402
  364DOPC   C4B 4276   7.014   7.636  14.065  0.1039  0.2963 -0.4483
  365DOPC   NC3 4277   9.778   7.329  12.986 -0.0409  0.1322  0.0717
  365DOPC   PO4 4278   9.676   7.553  12.670 -0.0256 -0.3330 -0.0426
  365DOPC   GL1 4279   9.504   7.821  12.883  0.0490  0.0230 -0.0554
  365DOPC   GL2 4280   9.665   7.823  13.150  0.1598  0.0729  0.0480
  365DOPC   C1A 4281   9.478   8.253  12.773 -0.0363  0.1218  0.1274
  365DOPC   D2A 4282   9.314   8.495  13.167 -0.0903  0.0313  0.2030
  365DOPC   C3A 4283   8.978   8.792  13.344  0.3992  0.3086  0.0436
  365DOPC   C4A 4284   8.531   8.643  13.525 -0.2465  0.4414  0.2273
  365DOPC   C1B 4285   9.547   8.054  13.528  0.0134  0.0551 -0.2797
  365DOPC   D2B 4286   9.525   8.485  13.633  0.0473 -0.2642  0.0221
  365DOPC   C3B 4287   9.171   8.672  13.859 -0.3937 -0.4180  0.0976
  365DOPC   C4B 4288   8.772   8.940  13.866 -0.0027  0.2187 -0.1207
  366DOPS   CNO 4289   7.275  10.890  12.411 -0.0079 -0.2830  0.2323
  366DOPS   PO4 4290   7.555  11.089  12.571 -0.0214  0.1968  0.0673
  366DOPS   GL1 4291   7.728  10.857  12.879  0.2870 -0.4142 -0.0361
  366DOPS   GL2 4292   7.646  10.552  12.783  0.2655 -0.0207  0.3063
  366DOPS   C1A 4293   7.997  11.148  13.180  0.1251  0.3970  0.0030
  366DOPS   D2A 4294   8.126  11.452  13.490  0.1091  0.1376 -0.0456
  366DOPS   C3A 4295   7.830  11.759  13.416  0.2220  0.2086  0.1166
  366DOPS   C4A 4296   7.939  12.145  13.209 -0.2506  0.0381  0.0954
  366DOPS   C1B 4297   7.897  10.191  12.935  0.0971 -0.0597  0.3456
  366DOPS   D2B 4298   8.232   9.837  12.902  0.3546  0.1031  0.2358
  366DOPS   C3B 4299   8.322   9.391  12.956 -0.2545  0.3356 -0.0413
  366DOPS   C4B 4300   8.096   8.970  12.728 -0.3544  0.1913 -0.0654
  367POSM   NC3 4301  11.023   5.410  11.841 -0.0613 -0.1736  0.0226
  367POSM   PO4 4302  10.822   5.743  11.805  0.4828  0.0793 -0.0688
  367POSM   AM1 4303  10.568   5.597  11.945  0.0655 -0.1643 -0.1228
  367POSM   AM2 4304  10.601   5.471  12.195 -0.0018 -0.1568  0.1763
  367POSM   T1A 4305  10.110   5.388  12.041  0.2199 -0.2157 -0.0930
  367POSM   C2A 4306   9.587   5.396  12.053  0.2051  0.0574  0.0177
  367POSM   C3A 4307   9.100   5.327  11.933  0.0578  0.0258  0.2056
  367POSM   C1B 4308  10.578   5.182  12.257 -0.1037 -0.1612  0.1080
  367POSM   D2B 4309  10.391   4.781  12.192 -0.0647  0.1458  0.2196
  367POSM   C3B 4310   9.989   4.581  12.028 -0.0486  0.2275  0.0066
  367POSM   C4B 4311   9.633   4.896  11.923  0.0809 -0.2752  0.2754
  368DOPS   CNO 4312   5.781   8.840  12.959 -0.0957  0.1223 -0.2306
  368DOPS   PO4 4313   5.982   8.952  13.285  0.0520  0.4229  0.1913
  368DOPS   GL1 4314   6.176   8.662  13.355 -0.0120  0.2040 -0.0556
  368DOPS   GL2 4315   6.387   8.847  13.477 -0.2629  0.0240 -0.1342
  368DOPS   C1A 4316   6.407   8.328  13.306 -0.2408  0.2238 -0.0529
  368DOPS   D2A 4317   6.728   8.044  13.111 -0.2032 -0.2989  0.0506
  368DOPS   C3A 4318   6.777   7.803  12.756 -0.0061 -0.1419 -0.0022
  368DOPS   C4A 4319   6.615   7.407  12.563  0.3556  0.2563  0.1739
  368DOPS   C1B 4320   6.786   9.064  13.422  0.1465 -0.1171 -0.2069
  368DOPS   D2B 4321   6.899   9.341  13.123  0.0794  0.0140 -0.2053
  368DOPS   C3B 4322   7.347   9.214  13.321  0.0002 -0.2164 -0.2673
  368DOPS   C4B 4323   7.631   9.375  13.693  0.0116 -0.1744 -0.1696
  369POSM   NC3 4324   2.178   6.227  12.728 -0.1010  0.2508 -0.0031
  369POSM   PO4 4325   2.328   6.171  13.063 -0.0211  0.3047  0.0489
  369POSM   AM1 4326   2.360   6.315  13.328 -0.2877 -0.0311 -0.4678
  369POSM   AM2 4327   2.592   6.382  13.477  0.1447 -0.0947 -0.0870
  369POSM   T1A 4328   2.098   6.523  13.674  0.1699  0.1832  0.1413
  369POSM   C2A 4329   1.682   6.684  13.716  0.3312 -0.2263 -0.0473
  369POSM   C3A 4330   1.245   6.793  13.748  0.2332  0.0436  0.0511
  369POSM   C1B 4331   2.751   6.182  13.688 -0.2836  0.4661 -0.1387
  369POSM   D2B 4332   3.139   6.061  13.891  0.0287  0.2239  0.0937
  369POSM   C3B 4333   3.363   6.310  14.145 -0.0827  0.0595 -0.2222
  369POSM   C4B 4334   3.633   6.570  14.497  0.0830  0.3084 -0.0217
  370DOPC   NC3 4335   2.512   9.033  13.889 -0.0552  0.0549  0.1385
  370DOPC   PO4 4336   2.671   9.172  13.547  0.0793 -0.2020 -0.2327
  370DOPC   GL1 4337   3.039   9.200  13.682 -0.0401 -0.0994  0.3284
  370DOPC   GL2 4338   3.083   9.147  13.936  0.0763 -0.0096 -0.0877
  370DOPC   C1A 4339   3.404   9.270  13.550  0.0070 -0.0681  0.4326
  370DOPC   D2A 4340   3.861   9.283  13.424  0.3506  0.0762  0.0837
  370DOPC   C3A 4341   3.967   8.886  13.702  0.2038 -0.2871 -0.0328
  370DOPC   C4A 4342   3.990   8.715  14.136 -0.1823  0.1020  0.0034
  370DOPC   C1B 4343   2.848   9.072  14.376 -0.1732 -0.2519 -0.1865
  370DOPC   D2B 4344   2.739   9.288  14.802  0.0614 -0.1808  0.0214
  370DOPC   C3B 4345   3.089   9.053  15.002  0.1210  0.1698  0.0674
  370DOPC   C4B 4346   3.291   8.715  15.209  0.0911  0.1497  0.5163
  371DOPC   NC3 4347   8.686   5.051  12.084  0.3458  0.0760 -0.3015
  371DOPC   PO4 4348   8.321   4.859  12.157 -0.1901  0.1236 -0.1101
  371DOPC   GL1 4349   8.587   4.572  12.137  0.1898 -0.1466 -0.3292
  371DOPC   GL2 4350   8.639   4.448  11.885 -0.2981 -0.1704 -0.1251
  371DOPC   C1A 4351   9.035   4.422  12.356 -0.2284  0.0461 -0.1037
  371DOPC   D2A 4352   9.424   4.247  12.297  0.0117 -0.0053 -0.0265
  371DOPC   C3A 4353   9.572   4.261  12.781  0.5312 -0.2272 -0.1595
  371DOPC   C4A 4354  10.102   4.304  12.793 -0.2033  0.4602  0.3276
  371DOPC   C1B 4355   8.818   4.088  12.077  0.2644 -0.1688  0.2289
  371DOPC   D2B 4356   9.094   3.818  12.415  0.0221  0.0462  0.2671
  371DOPC   C3B 4357   9.244   3.529  12.698  0.2724  0.1775  0.1804
  371DOPC   C4B 4358   9.102   3.383  13.098  0.2481  0.0498  0.0517
  372DOPC   NC3 4359   1.537   0.527  12.706  0.0040  0.2153  0.1101
  372DOPC   PO4 4360   1.806   0.809  12.652 -0.0777 -0.3574 -0.1163
  372DOPC   GL1 4361   1.966   0.755  13.051  0.0053  0.1116 -0.1856
  372DOPC   GL2 4362   2.180   0.791  13.084 -0.0907  0.0261 -0.1468
  372DOPC   C1A 4363   1.596   0.754  13.359  0.1853 -0.0099  0.0387
  372DOPC   D2A 4364   1.248   0.822  13.677  0.2220  0.0451  0.0093
  372DOPC   C3A 4365   1.223   0.743  14.132 -0.0991  0.0064 -0.1304
  372DOPC   C4A 4366   1.208   0.390  14.436  0.0155  0.0112  0.4312
  372DOPC   C1B 4367   2.042   1.202  13.241 -0.3577  0.2876 -0.0658
  372DOPC   D2B 4368   1.898   1.637  13.259 -0.1128  0.1053  0.2573
  372DOPC   C3B 4369   2.134   1.885  13.515  0.4786  0.1027 -0.4617
  372DOPC   C4B 4370   2.609   1.826  13.523  0.0806  0.1695  0.1475
  373POSM   NC3 4371   6.831  10.687  12.807 -0.2451 -0.1194 -0.0484
  373POSM   PO4 4372   7.156  10.466  12.706 -0.2034 -0.0860 -0.4203
  373POSM   AM1 4373   7.320  10.247  12.858 -0.0237 -0.0427 -0.0569
  373POSM   AM2 4374   7.402   9.967  12.844  0.0597 -0.2029 -0.2572
  373POSM   T1A 4375   7.511  10.105  13.316  0.2434  0.0853 -0.0205
  373POSM   C2A 4376   7.786   9.842  13.576  0.1198 -0.0851 -0.1612
  373POSM   C3A 4377   8.253   9.785  13.703 -0.3570 -0.2971 -0.1012
  373POSM   C1B 4378   7.199   9.667  12.757 -0.2237 -0.1014  0.2613
  373POSM   D2B 4379   7.268   9.196  12.829 -0.0819 -0.1849  0.1791
  373POSM   C3B 4380   7.145   8.834  13.107 -0.2167 -0.3726 -0.0940
  373POSM   C4B 4381   6.932   8.622  13.470  0.2092  0.0853 -0.0012
  374POSM   NC3 4382   1.766   3.545  12.415 -0.2186 -0.0034  0.1170
  374POSM   PO4 4383   1.741   3.715  12.727  0.0110 -0.1165 -0.2705
  374POSM   AM1 4384   2.011   3.586  12.815 -0.2873  0.4901 -0.1589
  374POSM   AM2 4385   2.240   3.643  12.981 -0.0384 -0.2551 -0.2300
  374POSM   T1A 4386   2.086   3.172  13.138 -0.1730 -0.2835  0.0397
  374POSM   C2A 4387   2.324   2.768  13.292  0.1187  0.3136  0.0007
  374POSM   C3A 4388   2.255   2.367  13.505 -0.2568 -0.2175  0.0991
  374POSM   C1B 4389   2.453   3.419  12.954 -0.1456 -0.1645  0.0923
  374POSM   D2B 4390   2.838   3.303  12.665  0.0923  0.0394 -0.0003
  374POSM   C3B 4391   2.854   2.856  12.483 -0.1407  0.0306 -0.1861
  374POSM   C4B 4392   3.205   2.731  12.225  0.2625 -0.0383 -0.3137
  375DOPE   NH3 4393   6.023   3.955  12.300 -0.4563 -0.1587  0.0783
  375DOPE   PO4 4394   6.026   4.258  12.334  0.1640 -0.2148  0.0020
  375DOPE   GL1 4395   5.957   4.556  12.551 -0.2269  0.0930  0.1017
  375DOPE   GL2 4396   5.843   4.481  12.775  0.4391  0.0467 -0.2972
  375DOPE   C1A 4397   6.011   4.897  12.854  0.0087 -0.0237  0.0659
  375DOPE   D2A 4398   5.990   5.209  13.214  0.1143 -0.0545 -0.0944
  375DOPE   C3A 4399   6.107   5.135  13.625 -0.0885 -0.2080  0.1069
  375DOPE   C4A 4400   6.504   5.302  13.886 -0.0105  0.0514 -0.2239
  375DOPE   C1B 4401   5.539   4.697  13.113 -0.0885 -0.0544  0.0927
  375DOPE   D2B 4402   5.334   5.098  13.260 -0.2436  0.1097  0.2353
  375DOPE   C3B 4403   5.210   5.540  13.061 -0.0836  0.0423  0.0115
  375DOPE   C4B 4404   4.873   5.723  12.842 -0.2809 -0.1166  0.1099
  376DOPS   CNO 4405  11.446   3.976  11.243 -0.0620 -0.2571 -0.0564
  376DOPS   PO4 4406  11.183   3.765  11.190  0.1312  0.0254 -0.1904
  376DOPS   GL1 4407  11.023   3.789  11.516  0.4576 -0.0271 -0.3378
  376DOPS   GL2 4408  10.959   3.474  11.508  0.0763  0.0534  0.1138
  376DOPS   C1A 4409  10.969   4.174  11.681 -0.0628 -0.1594  0.3082
  376DOPS   D2A 4410  10.684   4.544  11.807  0.2396  0.0279 -0.0815
  376DOPS   C3A 4411  10.488   4.898  11.581 -0.0190  0.1101  0.2132
  376DOPS   C4A 4412  10.050   5.036  11.579  0.0936 -0.0701 -0.1744
  376DOPS   C1B 4413  10.639   3.424  11.805  0.1738 -0.0207  0.2064
  376DOPS   D2B 4414  10.284   3.712  12.053  0.0083  0.2647 -0.1134
  376DOPS   C3B 4415   9.797   3.638  12.138 -0.2316 -0.3444  0.3659
  376DOPS   C4B 4416   9.347   3.427  12.213  0.1591 -0.1704 -0.1858
  377DOPE   NH3 4417  10.890  10.734  12.328  0.2826 -0.1742  0.1228
  377DOPE   PO4 4418  11.204  10.833  12.339 -0.2033 -0.1700  0.3810
  377DOPE   GL1 4419  11.278  10.813  12.681  0.0825  0.2743 -0.1630
  377DOPE   GL2 4420  11.225  10.594  12.848  0.0106 -0.2062  0.0245
  377DOPE   C1A 4421  11.436  11.119  13.051 -0.1201  0.1373 -0.3257
  377DOPE   D2A 4422  11.313  11.560  13.096 -0.1439  0.1219  0.0119
  377DOPE   C3A 4423  11.583  11.936  13.054 -0.4718 -0.2390 -0.0247
  377DOPE   C4A 4424  11.547  12.384  13.201  0.2432  0.1720 -0.0438
  377DOPE   C1B 4425  11.399  10.594  13.200  0.4473 -0.2867  0.0500
  377DOPE   D2B 4426  11.325  10.833  13.616 -0.0303 -0.3034 -0.0749
  377DOPE   C3B 4427  10.867  10.878  13.699  0.1430 -0.1112 -0.1657
  377DOPE   C4B 4428  10.456  11.110  13.576 -0.1857  0.0950 -0.2252
  378DOPC   NC3 4429   2.128   5.027  12.445 -0.1706  0.2812  0.3222
  378DOPC   PO4 4430   1.807   5.169  12.559 -0.0659 -0.0661  0.1010
  378DOPC   GL1 4431   1.518   5.209  12.841 -0.0037  0.3485 -0.0343
  378DOPC   GL2 4432   1.482   5.293  13.099 -0.1431 -0.0547 -0.1039
  378DOPC   C1A 4433   1.231   5.613  12.833 -0.0127  0.0387  0.1039
  378DOPC   D2A 4434   0.843   5.753  12.571 -0.1114 -0.1070  0.0604
  378DOPC   C3A 4435   0.655   6.181  12.609 -0.1711  0.4584 -0.2834
  378DOPC   C4A 4436   0.729   6.615  12.722  0.1997  0.1312 -0.0562
  378DOPC   C1B 4437   1.016   5.281  13.153 -0.1245  0.0404  0.0640
  378DOPC   D2B 4438   0.626   5.173  13.323 -0.3320  0.0228  0.2774
  378DOPC   C3B 4439   0.542   5.520  13.618 -0.1279  0.1864  0.0481
  378DOPC   C4B 4440   0.489   5.689  14.063 -0.2900 -0.2476  0.0173
  379DOPC   NC3 4441   4.919   2.831  11.992 -0.1223 -0.3075 -0.0780
  379DOPC   PO4 4442   4.787   3.057  11.666  0.0311  0.0227 -0.2670
  379DOPC   GL1 4443   4.395   3.148  11.715 -0.0644  0.2526  0.0734
  379DOPC   GL2 4444   4.390   3.021  12.012 -0.0582 -0.2469 -0.1292
  379DOPC   C1A 4445   4.108   3.461  11.917  0.0395  0.1393  0.0679
  379DOPC   D2A 4446   3.905   3.556  12.305  0.0319 -0.0447 -0.2357
  379DOPC   C3A 4447   3.517   3.840  12.386  0.2651  0.0751 -0.1070
  379DOPC   C4A 4448   3.163   3.785  12.701 -0.2129 -0.3350 -0.1882
  379DOPC   C1B 4449   4.188   3.217  12.405 -0.0366  0.4024 -0.2034
  379DOPC   D2B 4450   4.136   3.444  12.816 -0.3175  0.3244 -0.0631
  379DOPC   C3B 4451   3.748   3.632  12.799  0.0414 -0.0630 -0.1665
  379DOPC   C4B 4452   3.535   4.041  12.915  0.0675 -0.2039  0.3140
  380POSM   NC3 4453  10.698   6.534  11.769 -0.1985 -0.5768 -0.0935
  380POSM   PO4 4454  10.358   6.570  12.004 -0.0551  0.0717  0.1088
  380POSM   AM1 4455  10.382   6.389  12.272  0.1566 -0.0545 -0.2627
  380POSM   AM2 4456  10.346   6.400  12.572 -0.2049  0.1480  0.0052
  380POSM   T1A 4457  10.172   5.951  12.437  0.1779  0.1373  0.1327
  380POSM   C2A 4458   9.926   5.535  12.523 -0.0972 -0.2506 -0.2329
  380POSM   C3A 4459  10.004   5.079  12.401 -0.3254 -0.1076 -0.4257
  380POSM   C1B 4460  10.224   6.228  12.860  0.1088 -0.0263 -0.0702
  380POSM   D2B 4461  10.377   6.115  13.289 -0.1853 -0.0842  0.0274
  380POSM   C3B 4462  10.272   5.770  13.587 -0.0988  0.2636 -0.1343
  380POSM   C4B 4463  10.378   5.393  13.809  0.1755 -0.0860  0.0124
  381POSM   NC3 4464   0.067  10.517  13.085  0.2132 -0.0135 -0.2053
  381POSM   PO4 4465  -0.100  10.191  13.019  0.2750  0.0184  0.0404
  381POSM   AM1 4466  -0.091   9.904  13.189 -0.0846 -0.2132  0.1206
  381POSM   AM2 4467   0.031   9.921  13.465  0.4603  0.3101 -0.1308
  381POSM   T1A 4468  -0.379   9.546  13.397  0.0824 -0.0675 -0.1112
  381POSM   C2A 4469  -0.544   9.088  13.416 -0.1482 -0.1389  0.0253
  381POSM   C3A 4470  -0.777   8.836  13.671  0.0909  0.0192  0.0629
  381POSM   C1B 4471   0.236   9.916  13.727 -0.2014  0.2009  0.1511
  381POSM   D2B 4472   0.403   9.872  14.156  0.0775  0.1520  0.1458
  381POSM   C3B 4473   0.820   9.701  14.205 -0.2536  0.0065  0.0298
  381POSM   C4B 4474   0.967   9.555  14.631 -0.2301  0.1920 -0.2164
  382DOPS   CNO 4475   6.856   4.524  11.956  0.0561  0.2329  0.0624
  382DOPS   PO4 4476   6.847   4.110  11.901  0.1163 -0.0110  0.0235
  382DOPS   GL1 4477   6.923   3.709  12.134  0.1400  0.2477 -0.1162
  382DOPS   GL2 4478   7.173   3.732  12.013 -0.2299  0.1814 -0.0440
  382DOPS   C1A 4479   7.042   3.421  12.475 -0.2047 -0.1376 -0.1511
  382DOPS   D2A 4480   7.308   3.244  12.820 -0.1315  0.3109  0.1246
  382DOPS   C3A 4481   7.129   2.953  13.192 -0.1526 -0.0987  0.2110
  382DOPS   C4A 4482   6.995   2.546  13.323 -0.0641  0.0168 -0.2591
  382DOPS   C1B 4483   7.164   3.242  11.866  0.1828  0.1705 -0.0565
  382DOPS   D2B 4484   7.238   2.869  11.555 -0.0412 -0.1141  0.0219
  382DOPS   C3B 4485   7.199   2.427  11.735  0.0934 -0.0480 -0.1972
  382DOPS   C4B 4486   7.396   2.114  11.912 -0.0144  0.3437  0.0747
  383POSM   NC3 4487   2.287  34.577  12.446  0.0236  0.2687  0.2656
  383POSM   PO4 4488   2.420  34.879  12.345  0.0014  0.1803  0.3374
  383POSM   AM1 4489   2.584  34.886  12.652 -0.1668  0.1774  0.2136
  383POSM   AM2 4490   2.531  34.745  12.896 -0.1464  0.1068 -0.2216
  383POSM   T1A 4491   2.685  35.163  13.072 -0.1308 -0.1117 -0.1627
  383POSM   C2A 4492   2.504  35.489  13.465 -0.1630 -0.1082 -0.1157
  383POSM   C3A 4493   2.074  35.530  13.610  0.2237  0.0290  0.2419
  383POSM   C1B 4494   2.618  34.457  12.978  0.2706 -0.3534 -0.1395
  383POSM   D2B 4495   2.697  34.033  13.139 -0.4935  0.1209 -0.1149
  383POSM   C3B 4496   2.931  33.975  13.528 -0.1444  0.0886 -0.4969
  383POSM   C4B 4497   3.077  34.128  13.980 -0.1131  0.1656 -0.0659
  384DOPE   NH3 4498   5.547   9.281  13.199 -0.0117  0.1325 -0.0003
  384DOPE   PO4 4499   5.632   9.497  13.405 -0.2716  0.0708  0.1164
  384DOPE   GL1 4500   5.185   9.489  13.404  0.0224  0.0421  0.0856
  384DOPE   GL2 4501   5.102   9.541  13.099 -0.3407 -0.1000 -0.1081
  384DOPE   C1A 4502   4.931   9.136  13.498  0.2102  0.0362 -0.1216
  384DOPE   D2A 4503   4.647   8.792  13.600  0.1513 -0.1903  0.1133
  384DOPE   C3A 4504   4.208   8.732  13.325  0.0626  0.0507  0.1448
  384DOPE   C4A 4505   3.762   8.710  13.174 -0.0698 -0.0891  0.0675
  384DOPE   C1B 4506   5.177   9.152  12.837 -0.0113  0.0662  0.0716
  384DOPE   D2B 4507   4.957   8.737  12.801 -0.0849 -0.1953  0.2542
  384DOPE   C3B 4508   4.535   8.599  12.853 -0.2516  0.0489 -0.0641
  384DOPE   C4B 4509   4.054   8.628  12.755 -0.2100 -0.0468  0.0650
  385DOPE   NH3 4510   1.756   1.083  12.299 -0.0758 -0.2092  0.0279
  385DOPE   PO4 4511   1.757   1.404  12.366 -0.2018  0.0922 -0.0018
  385DOPE   GL1 4512   1.718   1.653  12.620 -0.3398  0.2696 -0.0905
  385DOPE   GL2 4513   1.485   1.802  12.746  0.0749 -0.0229  0.2890
  385DOPE   C1A 4514   1.848   2.113  12.549  0.1220 -0.1792  0.2982
  385DOPE   D2A 4515   1.880   2.592  12.538  0.0235 -0.2250 -0.0340
  385DOPE   C3A 4516   1.887   2.644  12.987 -0.2617 -0.0569  0.1725
  385DOPE   C4A 4517   1.889   2.683  13.466 -0.0445  0.0653 -0.1626
  385DOPE   C1B 4518   1.378   1.773  13.232 -0.0471  0.1239  0.4209
  385DOPE   D2B 4519   1.323   1.933  13.710 -0.0681 -0.0825  0.1013
  385DOPE   C3B 4520   1.452   1.731  14.093 -0.2303  0.1065 -0.5297
  385DOPE   C4B 4521   1.363   1.263  14.119  0.0082 -0.0216 -0.0932
  386DOPE   NH3 4522   2.168   1.112  12.671 -0.1578  0.0659 -0.0823
  386DOPE   PO4 4523   2.257   1.182  12.380  0.1327 -0.0369 -0.0236
  386DOPE   GL1 4524   2.193   1.614  12.530 -0.0492  0.1353  0.0912
  386DOPE   GL2 4525   2.153   1.582  12.788 -0.0680 -0.0997  0.0463
  386DOPE   C1A 4526   2.378   2.015  12.586 -0.0996 -0.4137 -0.0275
  386DOPE   D2A 4527   2.332   2.399  12.863 -0.0376  0.3178 -0.1309
  386DOPE   C3A 4528   2.351   2.830  12.734  0.0521 -0.1430 -0.1074
  386DOPE   C4A 4529   2.242   3.214  12.576 -0.1471 -0.2036 -0.5515
  386DOPE   C1B 4530   2.091   2.007  13.025 -0.0237 -0.0839 -0.1747
  386DOPE   D2B 4531   1.746   2.163  13.330  0.1897 -0.1169  0.1818
  386DOPE   C3B 4532   1.771   2.156  13.796  0.0417 -0.0842 -0.1534
  386DOPE   C4B 4533   1.669   2.122  14.223 -0.3035 -0.0219  0.0470
  387DOPS   CNO 4534   4.904   2.263  11.695  0.0681  0.1958  0.0411
  387DOPS   PO4 4535   4.758   1.990  11.899  0.0606 -0.0080  0.1509
  387DOPS   GL1 4536   4.275   1.952  12.084 -0.0286  0.2480  0.1157
  387DOPS   GL2 4537   4.320   1.739  12.302 -0.2547  0.2229  0.1070
  387DOPS   C1A 4538   4.132   2.220  12.489  0.1905  0.3667 -0.1260
  387DOPS   D2A 4539   3.721   2.366  12.608  0.2182 -0.2485 -0.3868
  387DOPS   C3A 4540   3.417   2.671  12.719 -0.0373  0.2269 -0.0352
  387DOPS   C4A 4541   3.255   3.090  12.797 -0.2146  0.0393 -0.0011
  387DOPS   C1B 4542   3.920   1.698  12.152  0.4820  0.2335  0.3993
  387DOPS   D2B 4543   3.456   1.643  11.956  0.2594  0.1469 -0.2112
  387DOPS   C3B 4544   3.122   2.025  11.934 -0.1507  0.0866 -0.1988
  387DOPS   C4B 4545   2.708   2.234  11.998 -0.1260  0.0529 -0.0985
  388POSM   NC3 4546   6.157   3.506  11.697 -0.0521 -0.1508 -0.3146
  388POSM   PO4 4547   6.298   3.788  11.902 -0.2363 -0.1959  0.0226
  388POSM   AM1 4548   6.497   3.579  12.035  0.4068 -0.2566 -0.2753
  388POSM   AM2 4549   6.520   3.534  12.286 -0.1940 -0.0270 -0.5022
  388POSM   T1A 4550   6.769   3.141  12.135 -0.0832 -0.0628  0.0148
  388POSM   C2A 4551   6.785   2.924  12.519  0.0366 -0.1472  0.1358
  388POSM   C3A 4552   6.939   2.701  12.845  0.2105  0.0207  0.2016
  388POSM   C1B 4553   6.587   3.418  12.635  0.0745 -0.2345  0.1432
  388POSM   D2B 4554   6.638   3.090  12.989 -0.2813  0.2502 -0.1471
  388POSM   C3B 4555   6.749   3.166  13.419 -0.4538  0.3519 -0.2446
  388POSM   C4B 4556   6.423   3.231  13.779 -0.0185  0.0978 -0.0583
  389POSM   NC3 4557   8.013   5.684  12.097 -0.3024  0.4435  0.2366
  389POSM   PO4 4558   8.340   5.938  12.188 -0.0006  0.1538 -0.3080
  389POSM   AM1 4559   8.640   5.775  12.240  0.2231  0.0263  0.3402
  389POSM   AM2 4560   8.796   5.582  12.343  0.0295 -0.1891 -0.0331
  389POSM   T1A 4561   9.098   5.796  12.019  0.1987 -0.2820 -0.1311
  389POSM   C2A 4562   9.333   5.695  11.640  0.0126  0.1329  0.2512
  389POSM   C3A 4563   9.618   5.380  11.451 -0.0005  0.0966 -0.1314
  389POSM   C1B 4564   9.113   5.604  12.496  0.1189  0.0683  0.1705
  389POSM   D2B 4565   9.499   5.440  12.758  0.0028  0.3605 -0.0261
  389POSM   C3B 4566   9.562   4.994  12.673 -0.4151  0.0620 -0.0202
  389POSM   C4B 4567   9.698   4.653  12.431  0.0784  0.0608 -0.1008
  390DOPE   NH3 4568   7.376   4.276  12.653  0.2003  0.1985  0.2844
  390DOPE   PO4 4569   7.374   4.028  12.468 -0.2251  0.4013  0.2146
  390DOPE   GL1 4570   7.538   3.782  12.754  0.2630  0.2228  0.4978
  390DOPE   GL2 4571   7.735   3.609  12.614  0.0566  0.1514 -0.1793
  390DOPE   C1A 4572   7.665   3.483  13.094 -0.2627 -0.0607  0.1111
  390DOPE   D2A 4573   7.683   3.048  13.158  0.2022  0.0647 -0.2820
  390DOPE   C3A 4574   8.158   2.999  13.240  0.2496  0.2182  0.1031
  390DOPE   C4A 4575   8.568   3.021  13.414 -0.0747  0.0593 -0.1327
  390DOPE   C1B 4576   8.144   3.356  12.655 -0.2264  0.1316 -0.0341
  390DOPE   D2B 4577   8.584   3.367  12.722 -0.0411  0.0222  0.0332
  390DOPE   C3B 4578   8.789   3.712  12.839  0.2137  0.0247  0.1944
  390DOPE   C4B 4579   8.981   3.861  13.321  0.4644 -0.1164  0.1952
  391DOPS   CNO 4580   0.389  11.662  12.853  0.1667 -0.0220  0.0171
  391DOPS   PO4 4581   0.615  11.442  13.130  0.0151  0.0547 -0.3522
  391DOPS   GL1 4582   0.977  11.469  13.398  0.1370  0.0858 -0.0275
  391DOPS   GL2 4583   1.025  11.242  13.536 -0.3514  0.1170  0.1197
  391DOPS   C1A 4584   1.255  11.577  13.810 -0.1878 -0.0140 -0.0953
  391DOPS   D2A 4585   1.404  11.429  14.187 -0.0113  0.1594 -0.0620
  391DOPS   C3A 4586   1.292  11.649  14.564  0.3695 -0.0248  0.0453
  391DOPS   C4A 4587   1.085  11.729  14.986  0.1445 -0.2406 -0.3065
  391DOPS   C1B 4588   1.327  11.068  13.843  0.0212  0.0810  0.0944
  391DOPS   D2B 4589   1.739  10.846  13.804  0.0769 -0.3191  0.1017
  391DOPS   C3B 4590   1.883  10.753  14.213 -0.2534 -0.1798 -0.0359
  391DOPS   C4B 4591   1.873  10.835  14.661 -0.0497  0.0234  0.0537
  392DOPE   NH3 4592   5.187   8.308  12.982  0.1916 -0.2672  0.2005
  392DOPE   PO4 4593   5.433   8.471  12.866 -0.0476 -0.0142 -0.1629
  392DOPE   GL1 4594   5.768   8.380  13.069 -0.2261  0.1415  0.3481
  392DOPE   GL2 4595   5.975   8.185  12.942 -0.0882  0.1419  0.1889
  392DOPE   C1A 4596   5.927   8.141  13.446  0.1959  0.0245 -0.2710
  392DOPE   D2A 4597   6.317   7.926  13.621 -0.1210  0.2643 -0.0723
  392DOPE   C3A 4598   6.713   8.067  13.804 -0.0302 -0.0766  0.1973
  392DOPE   C4A 4599   7.136   8.192  13.627 -0.0049  0.1060  0.0546
  392DOPE   C1B 4600   6.282   7.830  12.928  0.0360  0.3002 -0.2379
  392DOPE   D2B 4601   6.283   7.399  13.081  0.2545 -0.3072 -0.2312
  392DOPE   C3B 4602   6.333   7.405  13.543  0.1866  0.0789  0.0759
  392DOPE   C4B 4603   6.521   7.558  13.975 -0.1596 -0.1188  0.4219
  393POSM   NC3 4604  32.901   1.939  12.809 -0.1108 -0.1719  0.0650
  393POSM   PO4 4605  33.284   1.855  12.738  0.1066 -0.3722 -0.0667
  393POSM   AM1 4606  33.471   1.838  13.000  0.1715  0.2172  0.2957
  393POSM   AM2 4607  33.464   1.892  13.264  0.0898 -0.0580 -0.0480
  393POSM   T1A 4608  33.871   2.114  13.192 -0.3423  0.1748 -0.2468
  393POSM   C2A 4609  34.312   2.217  13.097 -0.0839  0.2476 -0.1676
  393POSM   C3A 4610  34.763   2.221  12.904 -0.0023 -0.0843 -0.0687
  393POSM   C1B 4611  33.585   1.875  13.602 -0.0772 -0.1699  0.0881
  393POSM   D2B 4612  33.840   1.895  13.999  0.1182  0.0415 -0.2625
  393POSM   C3B 4613  34.217   2.254  14.039  0.0225  0.0430  0.3456
  393POSM   C4B 4614  34.587   2.355  13.817 -0.0097 -0.0446  0.0272
  394POSM   NC3 4615   0.110  11.318  13.106 -0.0948  0.0671  0.1412
  394POSM   PO4 4616  -0.004  11.382  13.529 -0.1760 -0.4620  0.2677
  394POSM   AM1 4617   0.281  11.252  13.601  0.0598  0.1270 -0.0370
  394POSM   AM2 4618   0.577  11.331  13.640  0.2363 -0.1866 -0.2414
  394POSM   T1A 4619   0.529  10.803  13.775  0.0435 -0.0468 -0.1400
  394POSM   C2A 4620   0.956  10.573  13.886  0.0264  0.2074  0.2382
  394POSM   C3A 4621   1.311  10.541  14.185 -0.2970  0.0027  0.0102
  394POSM   C1B 4622   0.781  11.356  13.938  0.1987 -0.2134  0.0888
  394POSM   D2B 4623   0.876  11.511  14.442 -0.1344 -0.0392  0.0099
  394POSM   C3B 4624   1.055  11.285  14.783 -0.0944 -0.1794  0.2425
  394POSM   C4B 4625   1.388  10.960  14.871 -0.0383 -0.3078 -0.0322
  395DOPC   NC3 4626   2.431   8.971  12.983 -0.3729  0.1682  0.2268
  395DOPC   PO4 4627   2.718   8.671  12.925  0.1910  0.1091  0.0385
  395DOPC   GL1 4628   2.827   8.794  13.234 -0.3251 -0.1511 -0.1985
  395DOPC   GL2 4629   2.993   9.035  13.129  0.0710 -0.1355 -0.2013
  395DOPC   C1A 4630   2.886   8.519  13.627  0.1914 -0.3692  0.0874
  395DOPC   D2A 4631   2.963   8.671  14.045  0.1812  0.1428  0.1420
  395DOPC   C3A 4632   3.285   8.801  14.356  0.2830 -0.0192  0.1411
  395DOPC   C4A 4633   3.720   8.935  14.526 -0.2102  0.2712 -0.1966
  395DOPC   C1B 4634   3.297   8.800  13.410  0.0034 -0.0303  0.2735
  395DOPC   D2B 4635   3.406   8.739  13.823  0.1334 -0.0643 -0.3775
  395DOPC   C3B 4636   3.615   9.084  14.025  0.0763  0.2676  0.0179
  395DOPC   C4B 4637   4.031   9.215  14.217 -0.4562  0.2806 -0.3101
  396POSM   NC3 4638  34.519   7.411  13.477 -0.6261  0.0078 -0.3050
  396POSM   PO4 4639  34.848   7.655  13.333 -0.2307  0.0746  0.1698
  396POSM   AM1 4640  34.943   7.391  13.541 -0.0597 -0.3289  0.2849
  396POSM   AM2 4641  35.013   7.419  13.833  0.1783 -0.0496 -0.2168
  396POSM   T1A 4642  35.026   6.925  13.673 -0.2921 -0.2718 -0.0324
  396POSM   C2A 4643  35.262   6.681  13.344  0.1855 -0.0780  0.0425
  396POSM   C3A 4644  35.624   6.469  13.368  0.0025 -0.1301 -0.0038
  396POSM   C1B 4645  35.065   7.642  14.097 -0.2684 -0.2787  0.1845
  396POSM   D2B 4646  35.100   7.992  14.386  0.1533 -0.2590 -0.1856
  396POSM   C3B 4647  34.930   8.278  14.660 -0.2208  0.2629 -0.0500
  396POSM   C4B 4648  35.152   8.657  14.759 -0.0176  0.0540  0.4163
  397DOPE   NH3 4649   4.704   3.590  11.914 -0.2386  0.2110 -0.0768
  397DOPE   PO4 4650   4.745   3.362  12.158 -0.0050 -0.2374  0.0919
  397DOPE   GL1 4651   4.649   3.087  12.367  0.0538  0.1807 -0.0430
  397DOPE   GL2 4652   4.758   2.855  12.465 -0.1607 -0.0601 -0.0762
  397DOPE   C1A 4653   4.454   2.996  12.804  0.2766  0.3205  0.0302
  397DOPE   D2A 4654   4.305   2.679  13.119  0.0643 -0.4450 -0.0990
  397DOPE   C3A 4655   4.010   2.364  13.040  0.1793  0.0134 -0.1570
  397DOPE   C4A 4656   3.551   2.240  13.061  0.0436 -0.1248 -0.0316
  397DOPE   C1B 4657   4.909   2.871  12.924  0.3514 -0.0604 -0.1518
  397DOPE   D2B 4658   4.991   2.806  13.406 -0.2245 -0.1191 -0.0355
  397DOPE   C3B 4659   5.071   3.191  13.667 -0.3684  0.2057 -0.2285
  397DOPE   C4B 4660   4.783   3.516  13.853 -0.2836  0.1273  0.1033
  398DOPS   CNO 4661   3.105   6.911  12.695  0.0179  0.2213  0.0473
  398DOPS   PO4 4662   3.336   6.690  12.925 -0.2578 -0.2859 -0.0405
  398DOPS   GL1 4663   3.250   6.375  13.185 -0.0077  0.0541 -0.0749
  398DOPS   GL2 4664   3.098   6.501  13.399  0.1255  0.2945 -0.2249
  398DOPS   C1A 4665   3.181   6.009  13.380  0.0015  0.3283  0.0488
  398DOPS   D2A 4666   2.808   5.741  13.433  0.0362 -0.0008  0.0258
  398DOPS   C3A 4667   2.516   5.594  13.807  0.1965 -0.1178  0.1965
  398DOPS   C4A 4668   2.215   5.363  14.053 -0.4832  0.1476  0.0574
  398DOPS   C1B 4669   3.026   6.592  13.848 -0.0115  0.1547 -0.2108
  398DOPS   D2B 4670   2.780   7.004  14.132 -0.0570  0.1223  0.1727
  398DOPS   C3B 4671   2.497   6.786  14.464  0.0132  0.1487 -0.0313
  398DOPS   C4B 4672   2.352   6.913  14.888 -0.0091  0.1671  0.3749
  399DOPC   NC3 4673   2.954   8.046  13.027  0.2187  0.1880  0.0507
  399DOPC   PO4 4674   2.826   7.728  13.198  0.2629  0.0226 -0.4537
  399DOPC   GL1 4675   2.785   7.741  13.514  0.0881 -0.1115 -0.0614
  399DOPC   GL2 4676   2.790   8.034  13.619 -0.1334 -0.0193  0.3893
  399DOPC   C1A 4677   3.056   7.671  13.876  0.0207 -0.1141  0.1712
  399DOPC   D2A 4678   3.155   7.682  14.350  0.2784 -0.1577 -0.1414
  399DOPC   C3A 4679   3.328   7.863  14.746  0.2614 -0.0867  0.0848
  399DOPC   C4A 4680   3.487   8.044  15.185 -0.0694 -0.1466  0.0767
  399DOPC   C1B 4681   2.462   7.950  13.940 -0.0198 -0.3519 -0.2864
  399DOPC   D2B 4682   2.184   7.701  14.248 -0.0274 -0.3587 -0.2511
  399DOPC   C3B 4683   2.348   7.638  14.764 -0.2604 -0.0414  0.2825
  399DOPC   C4B 4684   2.495   7.708  15.222  0.1623 -0.1753  0.2821
  400DOPC   NC3 4685   6.044   9.738  12.760 -0.3300  0.0367 -0.5299
  400DOPC   PO4 4686   5.944   9.385  12.912 -0.1400 -0.1077  0.1247
  400DOPC   GL1 4687   6.161   9.099  12.777  0.0049 -0.1691  0.2429
  400DOPC   GL2 4688   6.293   9.069  12.479 -0.4899  0.1419 -0.1102
  400DOPC   C1A 4689   6.321   8.635  12.768  0.1716  0.2160 -0.2207
  400DOPC   D2A 4690   6.561   8.258  12.611 -0.3787 -0.2476 -0.0961
  400DOPC   C3A 4691   6.994   8.393  12.477  0.0588  0.1508  0.0312
  400DOPC   C4A 4692   7.430   8.441  12.687  0.3119 -0.1115 -0.1429
  400DOPC   C1B 4693   6.663   8.971  12.798  0.0432 -0.1471 -0.0079
  400DOPC   D2B 4694   6.751   8.567  12.966 -0.0131  0.2056 -0.0372
  400DOPC   C3B 4695   7.156   8.325  13.134  0.1814  0.0158 -0.0309
  400DOPC   C4B 4696   7.205   7.859  13.117 -0.1019 -0.0691 -0.1218
  401DOPC   NC3 4697   1.945   5.364  13.034 -0.0528 -0.0686  0.2256
  401DOPC   PO4 4698   2.063   5.708  12.923 -0.0679  0.2228  0.1814
  401DOPC   GL1 4699   2.260   5.785  13.278  0.0648 -0.0165 -0.1901
  401DOPC   GL2 4700   2.334   5.493  13.333 -0.1839 -0.0957  0.1278
  401DOPC   C1A 4701   2.211   5.977  13.689 -0.0075  0.0493  0.2429
  401DOPC   D2A 4702   2.188   5.888  14.082 -0.3258 -0.0726 -0.4244
  401DOPC   C3A 4703   2.517   5.659  14.323 -0.0559  0.1676 -0.0053
  401DOPC   C4A 4704   2.863   5.942  14.316 -0.3086 -0.0605  0.0768
  401DOPC   C1B 4705   1.937   5.523  13.636  0.0778 -0.2331 -0.2850
  401DOPC   D2B 4706   1.678   5.893  13.851  0.2037 -0.1140  0.1431
  401DOPC   C3B 4707   1.842   6.258  13.996  0.1952 -0.0350 -0.2364
  401DOPC   C4B 4708   2.077   6.660  14.156  0.1761  0.0516 -0.0381
  402DOPS   CNO 4709   5.413   8.361  13.461 -0.1572 -0.0387  0.3714
  402DOPS   PO4 4710   5.098   8.500  13.537 -0.1633  0.0896  0.1179
  402DOPS   GL1 4711   5.202   8.646  13.794 -0.0358 -0.1007 -0.0989
  402DOPS   GL2 4712   5.350   8.391  13.973 -0.0885  0.1378  0.2156
  402DOPS   C1A 4713   4.958   8.850  14.163 -0.0622  0.0500  0.3414
  402DOPS   D2A 4714   4.823   8.978  14.605  0.1328 -0.0611 -0.1455
  402DOPS   C3A 4715   4.976   8.713  14.924  0.0277  0.0693  0.2951
  402DOPS   C4A 4716   5.138   8.650  15.349 -0.1513 -0.2655  0.0009
  402DOPS   C1B 4717   5.451   8.777  14.228 -0.1257 -0.2050 -0.2529
  402DOPS   D2B 4718   5.299   9.213  14.308 -0.0485 -0.1322 -0.1869
  402DOPS   C3B 4719   5.066   9.618  14.387 -0.3559 -0.2384  0.3011
  402DOPS   C4B 4720   5.071   9.926  14.035 -0.0309  0.1744 -0.0270
  403POSM   NC3 4721   1.407   0.016  12.159 -0.1867  0.0239 -0.0762
  403POSM   PO4 4722   1.540  -0.101  12.521  0.1384 -0.1520  0.3586
  403POSM   AM1 4723   1.555   0.061  12.799 -0.1474  0.1170 -0.2450
  403POSM   AM2 4724   1.401   0.109  13.061  0.3522 -0.0514  0.2989
  403POSM   T1A 4725   1.792   0.344  13.179 -0.1077 -0.2550 -0.2199
  403POSM   C2A 4726   2.168   0.346  13.372 -0.2746 -0.0369  0.0081
  403POSM   C3A 4727   2.528   0.083  13.441  0.1656 -0.1737 -0.0724
  403POSM   C1B 4728   1.317   0.265  13.344  0.1514 -0.1377  0.1302
  403POSM   D2B 4729   1.190   0.212  13.806  0.0293 -0.4504 -0.1939
  403POSM   C3B 4730   0.863   0.297  14.083 -0.0879 -0.0511 -0.1212
  403POSM   C4B 4731   0.526   0.566  14.202 -0.0711  0.2014  0.2480
  404POSM   NC3 4732   5.884   9.879  13.308  0.0537 -0.0577 -0.1537
  404POSM   PO4 4733   5.608   9.903  13.039 -0.1233 -0.3923  0.0976
  404POSM   AM1 4734   5.407   9.974  13.279 -0.3215 -0.1213  0.0742
  404POSM   AM2 4735   5.471  10.108  13.480 -0.2072  0.0559 -0.0275
  404POSM   T1A 4736   4.949   9.836  13.423  0.2169 -0.0706  0.0113
  404POSM   C2A 4737   4.712   9.573  13.686  0.2096 -0.1916 -0.2584
  404POSM   C3A 4738   4.840   9.329  14.064  0.0465  0.1291 -0.1269
  404POSM   C1B 4739   5.562  10.235  13.832 -0.2197  0.1272  0.3542
  404POSM   D2B 4740   5.888  10.256  14.138 -0.1998 -0.4223  0.4243
  404POSM   C3B 4741   5.686  10.553  14.391 -0.0900 -0.0723 -0.1026
  404POSM   C4B 4742   5.485  10.768  14.726 -0.1196 -0.3189 -0.0788
  405DOPE   NH3 4743  33.593   7.119  13.552  0.3868  0.0724  0.1647
  405DOPE   PO4 4744  33.732   6.890  13.747 -0.3446  0.1774  0.3773
  405DOPE   GL1 4745  34.049   6.595  13.798  0.1299 -0.1421 -0.3114
  405DOPE   GL2 4746  34.220   6.623  13.549 -0.0158 -0.0063  0.0822
  405DOPE   C1A 4747  33.939   6.142  13.852  0.2147  0.2223  0.1288
  405DOPE   D2A 4748  34.288   5.892  13.997  0.1049 -0.0070 -0.0590
  405DOPE   C3A 4749  34.435   5.944  14.394  0.2236  0.2308  0.2391
  405DOPE   C4A 4750  34.710   5.761  14.732 -0.1604 -0.1470 -0.2069
  405DOPE   C1B 4751  34.450   6.498  13.934 -0.2338  0.2492 -0.0196
  405DOPE   D2B 4752  34.543   6.409  14.383 -0.4508 -0.0913  0.0365
  405DOPE   C3B 4753  34.481   6.817  14.540  0.2613 -0.0116 -0.1407
  405DOPE   C4B 4754  34.690   7.148  14.852 -0.3221  0.1471  0.1193
  406DOPC   NC3 4755   4.170   0.813  11.617 -0.1477 -0.2715  0.1487
  406DOPC   PO4 4756   4.478   0.584  11.675 -0.4618 -0.3568  0.0916
  406DOPC   GL1 4757   4.557   0.333  12.006  0.0695  0.0895 -0.2427
  406DOPC   GL2 4758   4.685   0.109  11.977  0.0685 -0.0491 -0.4780
  406DOPC   C1A 4759   4.542   0.249  12.465  0.2413 -0.1837  0.5063
  406DOPC   D2A 4760   4.634   0.412  12.923 -0.0296 -0.2242  0.0624
  406DOPC   C3A 4761   4.419   0.268  13.294 -0.4017 -0.0607 -0.0847
  406DOPC   C4A 4762   4.328  -0.116  13.507  0.1327 -0.0195 -0.0481
  406DOPC   C1B 4763   4.406  -0.174  12.226 -0.0215  0.0172  0.3148
  406DOPC   D2B 4764   4.185  -0.382  12.597 -0.1782 -0.3712 -0.0257
  406DOPC   C3B 4765   4.203  -0.555  13.012  0.2364 -0.2666  0.2948
  406DOPC   C4B 4766   4.422  -0.976  13.110 -0.2524 -0.2002  0.0582
  407POSM   NC3 4767  10.303   3.173  11.029  0.3005  0.0816 -0.0395
  407POSM   PO4 4768   9.970   2.982  11.117 -0.3281 -0.0783 -0.0780
  407POSM   AM1 4769  10.015   2.827  11.416  0.0065  0.1840  0.0791
  407POSM   AM2 4770  10.102   2.862  11.683 -0.0427  0.0014  0.2674
  407POSM   T1A 4771   9.629   2.799  11.801  0.0041 -0.0859 -0.0105
  407POSM   C2A 4772   9.315   2.917  12.110 -0.2020  0.0808 -0.0594
  407POSM   C3A 4773   9.017   3.037  12.499 -0.0353 -0.0640 -0.1152
  407POSM   C1B 4774  10.221   2.934  11.957  0.0382  0.0148  0.0906
  407POSM   D2B 4775  10.313   3.200  12.400 -0.0455  0.0005 -0.4096
  407POSM   C3B 4776   9.984   3.177  12.794 -0.3104 -0.3147  0.0956
  407POSM   C4B 4777   9.659   3.329  13.019 -0.2334 -0.0956  0.2439
  408POSM   NC3 4778   5.500   7.934  13.084  0.0285 -0.2181 -0.3362
  408POSM   PO4 4779   5.168   7.776  12.911 -0.1321  0.1494  0.0724
  408POSM   AM1 4780   5.221   7.575  13.166 -0.0496  0.0177 -0.1851
  408POSM   AM2 4781   5.148   7.583  13.450  0.0974  0.1397  0.2221
  408POSM   T1A 4782   5.390   7.065  13.341  0.1428  0.2067 -0.0950
  408POSM   C2A 4783   5.422   6.678  13.548 -0.2143  0.0097  0.0925
  408POSM   C3A 4784   5.409   6.313  13.878  0.1228 -0.0267 -0.3511
  408POSM   C1B 4785   5.464   7.744  13.569  0.1498  0.0873 -0.0813
  408POSM   D2B 4786   5.683   8.054  13.840  0.2922 -0.0836  0.0899
  408POSM   C3B 4787   5.724   7.749  14.253  0.1647 -0.3121  0.1383
  408POSM   C4B 4788   5.532   7.601  14.624 -0.1268  0.3765  0.0681
  409DOPC   NC3 4789   1.882  20.484  16.673 -0.0743 -0.1452  0.0604
  409DOPC   PO4 4790   2.216  20.682  16.689  0.0463 -0.1665 -0.1091
  409DOPC   GL1 4791   2.138  20.665  16.338  0.2297  0.1253 -0.3749
  409DOPC   GL2 4792   2.207  20.456  16.155  0.2294  0.3363 -0.3305
  409DOPC   C1A 4793   2.013  21.034  16.037  0.6545  0.3035  0.0168
  409DOPC   D2A 4794   1.897  21.008  15.582  0.0507 -0.0352 -0.0039
  409DOPC   C3A 4795   2.119  21.011  15.211 -0.2554 -0.3283 -0.3325
  409DOPC   C4A 4796   2.275  20.685  14.860 -0.2938 -0.2897  0.0529
  409DOPC   C1B 4797   2.294  20.241  15.755 -0.0267  0.0219  0.2944
  409DOPC   D2B 4798   2.089  19.949  15.444 -0.0619 -0.0891 -0.2826
  409DOPC   C3B 4799   1.698  19.984  15.295 -0.0732 -0.2144 -0.0338
  409DOPC   C4B 4800   1.420  20.193  14.983 -0.1724  0.1968 -0.0432
  410DOPC   NC3 4801   9.016  15.035  15.556  0.2120 -0.2613 -0.0925
  410DOPC   PO4 4802   9.087  14.653  15.665  0.0356 -0.0608  0.0383
  410DOPC   GL1 4803   8.743  14.669  15.370 -0.1051  0.0658  0.1177
  410DOPC   GL2 4804   8.893  14.623  15.146  0.1509 -0.0208  0.0577
  410DOPC   C1A 4805   8.474  14.305  15.206  0.1341 -0.2771 -0.1586
  410DOPC   D2A 4806   8.239  14.432  14.882 -0.0115 -0.2303  0.3902
  410DOPC   C3A 4807   8.433  14.504  14.468  0.2495 -0.1671 -0.0441
  410DOPC   C4A 4808   8.381  14.741  14.102 -0.0565 -0.3637  0.2575
  410DOPC   C1B 4809   8.858  14.624  14.676  0.0815 -0.0558 -0.3022
  410DOPC   D2B 4810   8.844  14.524  14.151  0.0908 -0.0473 -0.2319
  410DOPC   C3B 4811   9.167  14.488  13.856 -0.1807  0.3880 -0.1657
  410DOPC   C4B 4812   9.512  14.362  13.579 -0.1886 -0.0586 -0.3067
  411DOPE   NH3 4813   9.453  20.928  15.298 -0.2462 -0.0172 -0.4972
  411DOPE   PO4 4814   9.358  20.679  15.168  0.1956  0.1011  0.5533
  411DOPE   GL1 4815   9.446  20.667  14.714 -0.3534 -0.1531  0.2965
  411DOPE   GL2 4816   9.695  20.457  14.765  0.0515  0.1205 -0.0322
  411DOPE   C1A 4817   9.278  20.696  14.234  0.3523 -0.1228 -0.1263
  411DOPE   D2A 4818   9.340  20.698  13.816 -0.2262 -0.0377 -0.2124
  411DOPE   C3A 4819   9.484  20.754  13.364 -0.4463 -0.0551  0.1634
  411DOPE   C4A 4820   9.432  21.111  13.034  0.0863  0.0773 -0.2189
  411DOPE   C1B 4821   9.470  20.247  14.470 -0.1183 -0.2983  0.0210
  411DOPE   D2B 4822   9.098  20.195  14.230 -0.1553  0.2943 -0.0893
  411DOPE   C3B 4823   8.904  20.576  13.984 -0.0622  0.1713  0.0005
  411DOPE   C4B 4824   8.545  20.511  13.712 -0.1103  0.2644  0.1789
  412DOPE   NH3 4825   1.705  20.835  17.381  0.1216  0.0030  0.2327
  412DOPE   PO4 4826   1.471  20.899  17.179  0.3426 -0.0843  0.3023
  412DOPE   GL1 4827   1.522  20.720  16.899 -0.1124 -0.0567  0.3274
  412DOPE   GL2 4828   1.182  20.619  16.860  0.0914 -0.2499  0.0248
  412DOPE   C1A 4829   1.467  20.782  16.426 -0.0908 -0.1000  0.1054
  412DOPE   D2A 4830   1.595  20.849  15.977  0.0930 -0.1312  0.0810
  412DOPE   C3A 4831   1.410  20.764  15.601 -0.1787 -0.0162 -0.1171
  412DOPE   C4A 4832   1.207  20.770  15.179  0.0088 -0.0274  0.1458
  412DOPE   C1B 4833   0.945  20.602  16.482 -0.0017 -0.2510  0.0637
  412DOPE   D2B 4834   1.033  20.689  16.015 -0.0836  0.1229 -0.0793
  412DOPE   C3B 4835   0.787  20.735  15.640  0.0284 -0.1245  0.0969
  412DOPE   C4B 4836   0.666  20.960  15.220 -0.2625 -0.0105 -0.1821
  413DOPC   NC3 4837   9.667  22.066  15.948 -0.2865 -0.1378  0.1132
  413DOPC   PO4 4838   9.530  22.268  15.694 -0.3265 -0.2288  0.1037
  413DOPC   GL1 4839   9.273  22.075  15.521  0.0425 -0.0299 -0.2863
  413DOPC   GL2 4840   9.122  22.208  15.367  0.1882 -0.3088  0.1421
  413DOPC   C1A 4841   9.220  21.822  15.084 -0.2055  0.0187 -0.2075
  413DOPC   D2A 4842   9.443  21.901  14.705 -0.1992 -0.0266  0.1202
  413DOPC   C3A 4843   9.604  22.313  14.493 -0.0956  0.0875  0.2412
  413DOPC   C4A 4844   9.967  22.571  14.278 -0.0490 -0.0181 -0.0749
  413DOPC   C1B 4845   8.923  22.328  14.941 -0.1832  0.0689 -0.0595
  413DOPC   D2B 4846   8.522  22.601  14.853 -0.1544 -0.2394 -0.2033
  413DOPC   C3B 4847   8.338  22.647  14.440  0.1432  0.0520 -0.1942
  413DOPC   C4B 4848   8.328  23.063  14.172  0.3563  0.0738 -0.0166
  414DOPC   NC3 4849  10.533  20.088  15.537  0.0945 -0.0937 -0.0014
  414DOPC   PO4 4850  10.798  20.340  15.390 -0.1436 -0.0007 -0.1311
  414DOPC   GL1 4851  10.912  20.574  14.993  0.1303  0.3098 -0.0175
  414DOPC   GL2 4852  10.747  20.508  14.758  0.3228 -0.1325 -0.0817
  414DOPC   C1A 4853  10.994  20.899  14.711 -0.2271 -0.4024  0.1457
  414DOPC   D2A 4854  10.743  21.084  14.352 -0.0257  0.0620 -0.0346
  414DOPC   C3A 4855  11.050  21.180  14.041 -0.2522 -0.0252  0.0421
  414DOPC   C4A 4856  11.276  21.339  13.706  0.0958  0.1399  0.0266
  414DOPC   C1B 4857  10.533  20.613  14.324 -0.1291  0.1878 -0.4127
  414DOPC   D2B 4858  10.579  20.847  13.910  0.2051 -0.0949 -0.1394
  414DOPC   C3B 4859  10.792  21.082  13.600  0.0060  0.0873  0.0121
  414DOPC   C4B 4860  10.923  21.157  13.135  0.2002  0.4314 -0.1267
  415POSM   NC3 4861   3.357  14.820  16.842  0.0552  0.0857  0.0467
  415POSM   PO4 4862   3.060  15.051  16.928 -0.2052  0.3356 -0.0941
  415POSM   AM1 4863   3.031  15.073  16.605 -0.1569 -0.1123 -0.1102
  415POSM   AM2 4864   3.206  14.995  16.367 -0.1510  0.0184 -0.0913
  415POSM   T1A 4865   2.763  15.362  16.307 -0.0381  0.0530  0.0919
  415POSM   C2A 4866   2.487  15.711  16.061  0.2906  0.1030 -0.0958
  415POSM   C3A 4867   2.127  16.020  15.945 -0.1429  0.2968  0.4055
  415POSM   C1B 4868   3.247  14.766  16.132  0.0119  0.2502  0.0621
  415POSM   D2B 4869   3.211  14.391  15.843 -0.3853  0.1952  0.0090
  415POSM   C3B 4870   3.042  14.518  15.441  0.0216  0.0145  0.0478
  415POSM   C4B 4871   3.216  14.783  15.091 -0.0739  0.0600 -0.0096
  416DOPS   CNO 4872   8.950  20.847  16.004  0.1403  0.0428 -0.0342
  416DOPS   PO4 4873   8.954  21.094  15.680  0.0737 -0.0567  0.1118
  416DOPS   GL1 4874   8.778  20.997  15.297  0.0436 -0.0296 -0.1063
  416DOPS   GL2 4875   8.496  21.041  15.359 -0.0533  0.0831 -0.0046
  416DOPS   C1A 4876   8.834  21.085  14.847 -0.1179  0.0032 -0.0753
  416DOPS   D2A 4877   8.778  21.329  14.448  0.0185 -0.0006 -0.0230
  416DOPS   C3A 4878   8.562  21.771  14.322  0.0650 -0.2100  0.1905
  416DOPS   C4A 4879   8.404  22.173  14.558  0.0614 -0.0249 -0.0576
  416DOPS   C1B 4880   8.281  21.122  14.966  0.1494 -0.1379 -0.0356
  416DOPS   D2B 4881   8.314  21.088  14.539  0.1276 -0.1690  0.2043
  416DOPS   C3B 4882   8.311  20.621  14.531 -0.2230  0.1853  0.4635
  416DOPS   C4B 4883   8.605  20.294  14.274 -0.1050 -0.0852  0.0386
  417DOPC   NC3 4884   5.909  14.408  16.316 -0.3621 -0.0491 -0.3161
  417DOPC   PO4 4885   5.706  14.207  16.571  0.1850  0.1145  0.1529
  417DOPC   GL1 4886   5.617  13.996  16.322  0.2065  0.0463 -0.0202
  417DOPC   GL2 4887   5.327  14.053  16.220 -0.2971 -0.0568  0.3578
  417DOPC   C1A 4888   5.576  14.117  15.829 -0.2646  0.0304 -0.2213
  417DOPC   D2A 4889   5.663  13.923  15.412  0.2483  0.2414 -0.3770
  417DOPC   C3A 4890   5.383  14.012  15.039 -0.1523 -0.0685 -0.2123
  417DOPC   C4A 4891   4.987  14.200  14.880  0.1716  0.0935  0.3975
  417DOPC   C1B 4892   4.897  13.949  16.361 -0.0667 -0.3628 -0.1858
  417DOPC   D2B 4893   4.438  13.745  16.164  0.3314 -0.2083 -0.1650
  417DOPC   C3B 4894   4.554  13.573  15.711  0.2028 -0.0335  0.0145
  417DOPC   C4B 4895   4.522  13.448  15.250  0.0546 -0.0398  0.2014
  418DOPE   NH3 4896   2.660  16.252  17.184 -0.0961 -0.1910 -0.0938
  418DOPE   PO4 4897   2.688  16.382  16.891 -0.0272  0.1326 -0.0890
  418DOPE   GL1 4898   2.321  16.139  16.770 -0.1651 -0.1281  0.3330
  418DOPE   GL2 4899   2.144  16.389  16.765  0.2404 -0.2100  0.3553
  418DOPE   C1A 4900   1.953  16.085  16.451  0.0858  0.3427  0.1854
  418DOPE   D2A 4901   1.670  16.081  16.092 -0.0789 -0.0198 -0.2185
  418DOPE   C3A 4902   1.766  16.236  15.625 -0.1386 -0.0855  0.2389
  418DOPE   C4A 4903   1.942  16.387  15.189 -0.1948  0.0184  0.2129
  418DOPE   C1B 4904   2.314  16.711  16.502  0.0382 -0.2451  0.0238
  418DOPE   D2B 4905   2.560  16.961  16.157  0.1766  0.0450 -0.0649
  418DOPE   C3B 4906   2.158  17.107  15.989  0.0806 -0.1213  0.0800
  418DOPE   C4B 4907   1.709  17.215  15.932  0.1144 -0.1721 -0.0195
  419POSM   NC3 4908   9.044  20.629  15.583  0.1341  0.1808 -0.0261
  419POSM   PO4 4909   9.085  20.255  15.445 -0.2927 -0.3659 -0.1477
  419POSM   AM1 4910   8.900  20.371  15.186 -0.0062  0.4090 -0.3934
  419POSM   AM2 4911   8.828  20.631  15.060 -0.2752  0.0676  0.2358
  419POSM   T1A 4912   8.522  20.236  14.798  0.1533 -0.1773 -0.0352
  419POSM   C2A 4913   8.132  20.156  14.520 -0.5215  0.3253  0.1272
  419POSM   C3A 4914   7.817  20.044  14.181  0.0891  0.0636 -0.0483
  419POSM   C1B 4915   8.528  20.703  14.998 -0.0756  0.0574 -0.2451
  419POSM   D2B 4916   8.039  20.720  15.005 -0.0471 -0.2102 -0.1526
  419POSM   C3B 4917   7.775  20.451  14.735  0.1362 -0.0793 -0.2458
  419POSM   C4B 4918   7.491  20.181  14.565 -0.1265 -0.0395  0.3225
  420DOPS   CNO 4919   6.634  22.629  16.348  0.0850  0.0743 -0.0137
  420DOPS   PO4 4920   6.436  22.589  16.660 -0.2473  0.1583 -0.0344
  420DOPS   GL1 4921   6.227  22.857  16.430 -0.1059  0.1650 -0.0223
  420DOPS   GL2 4922   6.120  22.574  16.276  0.1483  0.4819 -0.0901
  420DOPS   C1A 4923   6.182  22.844  15.916  0.0367  0.0152  0.2444
  420DOPS   D2A 4924   6.223  22.799  15.424  0.0661  0.1755  0.0692
  420DOPS   C3A 4925   6.233  22.332  15.393 -0.2581  0.1506  0.0626
  420DOPS   C4A 4926   5.932  21.998  15.216 -0.1244 -0.1558  0.2784
  420DOPS   C1B 4927   6.062  22.328  15.912 -0.3028 -0.3093  0.0816
  420DOPS   D2B 4928   5.793  22.439  15.587  0.0255  0.1489  0.0166
  420DOPS   C3B 4929   5.433  22.155  15.500 -0.2690  0.1330  0.2331
  420DOPS   C4B 4930   5.460  21.891  15.134  0.0265  0.1264 -0.1326
  421DOPC   NC3 4931  10.096  14.021  15.041 -0.1810  0.2083 -0.4048
  421DOPC   PO4 4932   9.796  14.228  15.029 -0.0320  0.1854  0.0769
  421DOPC   GL1 4933   9.723  13.951  14.770  0.7182 -0.1693 -0.3126
  421DOPC   GL2 4934   9.641  14.136  14.524 -0.2206 -0.4257  0.0052
  421DOPC   C1A 4935   9.842  13.657  14.428 -0.0512 -0.0260  0.2244
  421DOPC   D2A 4936  10.216  13.452  14.175 -0.1012 -0.4908  0.1148
  421DOPC   C3A 4937  10.081  13.373  13.716 -0.0333  0.0125 -0.1019
  421DOPC   C4A 4938   9.837  13.307  13.375 -0.1115 -0.1326 -0.0357
  421DOPC   C1B 4939   9.596  14.203  14.061  0.1505  0.0677  0.0775
  421DOPC   D2B 4940   9.306  13.941  13.819  0.1230 -0.0437 -0.0906
  421DOPC   C3B 4941   9.347  13.876  13.423  0.1342  0.1426 -0.0409
  421DOPC   C4B 4942   9.035  13.704  13.117  0.0824  0.0020 -0.2824
  422DOPE   NH3 4943   6.016  16.589  16.072  0.0744 -0.0319  0.2261
  422DOPE   PO4 4944   5.746  16.456  16.198  0.1146  0.2440 -0.1655
  422DOPE   GL1 4945   5.707  16.412  15.810  0.1206  0.1312 -0.0961
  422DOPE   GL2 4946   5.918  16.336  15.663  0.0739 -0.0157 -0.0294
  422DOPE   C1A 4947   5.581  16.019  15.599  0.2071  0.0116  0.1259
  422DOPE   D2A 4948   5.588  15.551  15.614  0.1652 -0.0848 -0.2526
  422DOPE   C3A 4949   5.640  15.292  15.265 -0.1643 -0.2106  0.0028
  422DOPE   C4A 4950   5.461  15.017  14.911  0.0109  0.2063 -0.1127
  422DOPE   C1B 4951   5.883  16.309  15.182  0.0644 -0.0791  0.1943
  422DOPE   D2B 4952   5.840  16.241  14.686 -0.1512  0.1735  0.0484
  422DOPE   C3B 4953   5.513  16.458  14.366  0.3806  0.4135  0.1579
  422DOPE   C4B 4954   5.071  16.466  14.424 -0.1596  0.1086  0.1741
  423DOPE   NH3 4955   4.417  17.144  15.657 -0.2645  0.1658  0.1693
  423DOPE   PO4 4956   4.408  16.856  15.810 -0.0384 -0.0095  0.0353
  423DOPE   GL1 4957   4.407  16.650  15.422 -0.1456 -0.3406  0.2582
  423DOPE   GL2 4958   4.078  16.630  15.386 -0.2758  0.0086  0.0871
  423DOPE   C1A 4959   4.810  16.471  15.225 -0.3317  0.0637 -0.0126
  423DOPE   D2A 4960   4.902  16.091  14.945  0.2282  0.0562  0.0368
  423DOPE   C3A 4961   4.825  15.791  14.577 -0.2009  0.1422  0.2862
  423DOPE   C4A 4962   5.089  15.647  14.217 -0.0178 -0.0113  0.0901
  423DOPE   C1B 4963   4.206  16.581  14.931 -0.1810  0.1645 -0.0222
  423DOPE   D2B 4964   4.208  16.658  14.438  0.0931 -0.0253  0.2088
  423DOPE   C3B 4965   4.033  16.438  14.073 -0.3841  0.5492  0.2009
  423DOPE   C4B 4966   3.681  16.180  14.001  0.2769 -0.1785  0.1624
  424DOPC   NC3 4967   8.942  21.680  16.134  0.3433 -0.0335 -0.1118
  424DOPC   PO4 4968   8.613  21.769  16.300  0.0554 -0.1278 -0.0774
  424DOPC   GL1 4969   8.485  21.714  15.890 -0.4382  0.1216  0.6898
  424DOPC   GL2 4970   8.645  21.465  15.716 -0.3198  0.1304 -0.1214
  424DOPC   C1A 4971   8.195  21.684  15.529 -0.0202  0.3400 -0.0719
  424DOPC   D2A 4972   8.025  21.863  15.131 -0.2133  0.0168 -0.2913
  424DOPC   C3A 4973   7.818  21.883  14.677  0.3909  0.1254 -0.2591
  424DOPC   C4A 4974   7.605  21.747  14.295 -0.0405  0.2600 -0.2535
  424DOPC   C1B 4975   8.720  21.888  15.485 -0.2638 -0.0127  0.1016
  424DOPC   D2B 4976   8.722  22.365  15.542  0.2368 -0.0463 -0.1932
  424DOPC   C3B 4977   8.630  22.698  15.287  0.1760 -0.2405  0.3554
  424DOPC   C4B 4978   8.658  23.176  15.150  0.2079  0.3342 -0.2592
  425POSM   NC3 4979   9.577  17.442  16.357  0.0009 -0.2933 -0.0251
  425POSM   PO4 4980   9.654  17.747  16.122 -0.1300 -0.1562  0.0818
  425POSM   AM1 4981   9.401  17.727  15.953  0.0266  0.3900  0.0551
  425POSM   AM2 4982   9.458  17.808  15.679  0.3547  0.0773 -0.1613
  425POSM   T1A 4983   8.990  17.938  15.821 -0.3114  0.0840  0.0541
  425POSM   C2A 4984   8.738  18.244  15.586 -0.0937  0.0618  0.1785
  425POSM   C3A 4985   8.469  18.637  15.343 -0.3353 -0.4177  0.0057
  425POSM   C1B 4986   9.642  17.942  15.372  0.0064 -0.0363  0.0273
  425POSM   D2B 4987   9.624  18.225  15.045  0.0180 -0.1439  0.2541
  425POSM   C3B 4988   9.297  18.137  14.703  0.2450  0.2364 -0.0609
  425POSM   C4B 4989   9.255  18.057  14.209  0.0688 -0.1957 -0.0540
  426DOPE   NH3 4990   0.707  20.878  16.982 -0.3373 -0.1546  0.1104
  426DOPE   PO4 4991   0.642  21.137  17.107  0.3234 -0.2306 -0.1540
  426DOPE   GL1 4992   0.710  21.317  16.760  0.4487  0.0020 -0.1210
  426DOPE   GL2 4993   0.777  21.586  16.749 -0.1186  0.0187 -0.1583
  426DOPE   C1A 4994   0.956  21.148  16.395  0.2849 -0.1660  0.0890
  426DOPE   D2A 4995   1.177  21.184  16.007  0.1559 -0.2489 -0.1602
  426DOPE   C3A 4996   1.068  21.121  15.561  0.0583 -0.0233 -0.1749
  426DOPE   C4A 4997   1.018  21.284  15.142  0.1517  0.0088 -0.0570
  426DOPE   C1B 4998   0.469  21.451  16.391  0.1480  0.1442  0.0451
  426DOPE   D2B 4999   0.146  21.236  16.101 -0.0401 -0.3793  0.0938
  426DOPE   C3B 5000  -0.167  21.520  15.911  0.2215 -0.2107  0.0602
  426DOPE   C4B 5001  -0.583  21.423  15.793  0.0722 -0.4165 -0.1140
  427DOPS   CNO 5002   4.728  13.237  17.283  0.1438 -0.2546  0.1997
  427DOPS   PO4 5003   4.656  12.901  17.171  0.0102 -0.2393 -0.2096
  427DOPS   GL1 5004   4.811  12.884  16.733  0.2279 -0.2281 -0.2765
  427DOPS   GL2 5005   4.509  12.961  16.671  0.1782  0.1424  0.2234
  427DOPS   C1A 5006   4.793  12.855  16.264 -0.0984  0.1386 -0.0053
  427DOPS   D2A 5007   4.599  12.590  15.952  0.3584  0.2449  0.0403
  427DOPS   C3A 5008   4.218  12.616  15.698 -0.0068 -0.1774 -0.1955
  427DOPS   C4A 5009   4.114  12.606  15.231 -0.5138 -0.1101  0.2692
  427DOPS   C1B 5010   4.310  12.782  16.278 -0.3052  0.0492 -0.2549
  427DOPS   D2B 5011   4.224  13.167  15.996  0.1900 -0.3909 -0.0084
  427DOPS   C3B 5012   4.277  13.071  15.551 -0.0273 -0.0983 -0.0290
  427DOPS   C4B 5013   4.089  13.257  15.201  0.2043 -0.3400  0.1477
  428POSM   NC3 5014   7.115  19.668  17.065  0.5168 -0.2275  0.0878
  428POSM   PO4 5015   7.036  19.917  16.794 -0.1229 -0.0787  0.0466
  428POSM   AM1 5016   7.000  19.863  16.475 -0.0294 -0.0143  0.0618
  428POSM   AM2 5017   7.109  19.795  16.243 -0.1269 -0.2574  0.1833
  428POSM   T1A 5018   6.606  19.895  16.169 -0.0923  0.0850  0.0162
  428POSM   C2A 5019   6.304  19.711  15.828 -0.0337 -0.0186 -0.0314
  428POSM   C3A 5020   5.958  19.967  15.708  0.0382 -0.0180 -0.0060
  428POSM   C1B 5021   7.068  19.908  15.935  0.0331  0.2020 -0.1492
  428POSM   D2B 5022   6.749  20.055  15.586  0.0492 -0.3888  0.1066
  428POSM   C3B 5023   6.421  19.859  15.324  0.0018  0.1660  0.0259
  428POSM   C4B 5024   6.145  19.494  15.331  0.1204 -0.0395  0.1293
  429POSM   NC3 5025   4.311  19.927  16.605  0.0947  0.1014 -0.0622
  429POSM   PO4 5026   4.417  19.533  16.547 -0.0622  0.0046  0.1531
  429POSM   AM1 5027   4.421  19.438  16.230 -0.1167  0.1227 -0.3618
  429POSM   AM2 5028   4.538  19.461  15.953  0.0753  0.0446 -0.0411
  429POSM   T1A 5029   4.111  19.458  15.790 -0.2057 -0.0112  0.0836
  429POSM   C2A 5030   3.938  19.626  15.393  0.1098  0.1019 -0.1606
  429POSM   C3A 5031   3.961  19.594  14.952  0.3394 -0.1258 -0.0840
  429POSM   C1B 5032   4.679  19.228  15.763  0.1953 -0.1975  0.3040
  429POSM   D2B 5033   4.922  18.965  15.500 -0.1003  0.0336  0.1461
  429POSM   C3B 5034   5.244  19.066  15.145  0.4551 -0.2568 -0.6676
  429POSM   C4B 5035   5.387  19.374  14.800  0.0039 -0.2265 -0.5139
  430DOPC   NC3 5036   2.916  12.130  16.922  0.1144 -0.1808 -0.1068
  430DOPC   PO4 5037   2.504  12.091  16.844 -0.0026 -0.2850  0.3191
  430DOPC   GL1 5038   2.631  12.000  16.533 -0.0884 -0.0896  0.2153
  430DOPC   GL2 5039   2.899  11.867  16.538  0.0806 -0.0146  0.2970
  430DOPC   C1A 5040   2.536  12.048  16.099  0.0914 -0.0734 -0.3714
  430DOPC   D2A 5041   2.528  12.261  15.639 -0.0296  0.2501  0.3958
  430DOPC   C3A 5042   2.098  12.240  15.387  0.2097 -0.0482  0.0460
  430DOPC   C4A 5043   1.603  12.335  15.308 -0.0694 -0.1147  0.1489
  430DOPC   C1B 5044   2.959  11.788  16.087 -0.0792 -0.1575  0.1486
  430DOPC   D2B 5045   2.943  11.843  15.626 -0.0802  0.2552 -0.3321
  430DOPC   C3B 5046   2.797  11.587  15.256  0.0693  0.2016 -0.1035
  430DOPC   C4B 5047   2.547  11.616  14.888  0.1581  0.0261 -0.1975
  431DOPS   CNO 5048   8.066  16.147  16.451 -0.1037  0.1161  0.1317
  431DOPS   PO4 5049   7.751  16.111  16.232 -0.0645  0.2967  0.0150
  431DOPS   GL1 5050   7.488  16.103  16.022 -0.4163  0.5358 -0.5644
  431DOPS   GL2 5051   7.399  16.360  15.971  0.0612  0.0316 -0.1614
  431DOPS   C1A 5052   7.215  15.905  15.660 -0.0168 -0.3960 -0.1735
  431DOPS   D2A 5053   6.923  15.554  15.728  0.1128 -0.1719 -0.2624
  431DOPS   C3A 5054   6.652  15.518  15.326 -0.1572 -0.1342  0.1706
  431DOPS   C4A 5055   6.636  15.171  15.013  0.1142 -0.3866 -0.0026
  431DOPS   C1B 5056   7.532  16.309  15.523 -0.1068  0.2189  0.2634
  431DOPS   D2B 5057   7.670  16.485  15.130 -0.0832  0.0289 -0.0876
  431DOPS   C3B 5058   7.819  16.717  14.757  0.1607 -0.1082  0.2557
  431DOPS   C4B 5059   7.799  17.147  14.636  0.0126 -0.1423  0.2461
  432DOPE   NH3 5060   9.740  20.981  14.911 -0.1097 -0.1407 -0.1064
  432DOPE   PO4 5061  10.038  21.093  15.006  0.2490  0.2080  0.1062
  432DOPE   GL1 5062   9.932  21.305  14.612 -0.0878  0.4018  0.1491
  432DOPE   GL2 5063   9.660  21.443  14.648 -0.1725  0.0488 -0.0726
  432DOPE   C1A 5064   9.843  21.425  14.154  0.0027 -0.0690  0.0881
  432DOPE   D2A 5065   9.660  21.628  13.777 -0.1566 -0.0382  0.0947
  432DOPE   C3A 5066   9.508  21.652  13.317  0.3898 -0.2722  0.1063
  432DOPE   C4A 5067   9.200  21.914  13.115 -0.1638  0.2601  0.2191
  432DOPE   C1B 5068   9.395  21.438  14.290  0.1298  0.0169  0.2211
  432DOPE   D2B 5069   9.172  21.459  13.872 -0.2126 -0.0312  0.1840
  432DOPE   C3B 5070   8.686  21.429  13.961  0.2584 -0.3489 -0.1457
  432DOPE   C4B 5071   8.253  21.395  14.112  0.0201 -0.1835  0.1515
  433POSM   NC3 5072  10.010  17.705  15.561  0.0984 -0.0763 -0.1907
  433POSM   PO4 5073  10.101  17.337  15.625 -0.1597 -0.1469  0.0422
  433POSM   AM1 5074   9.878  17.325  15.381  0.1095  0.1162  0.5614
  433POSM   AM2 5075   9.632  17.484  15.293 -0.1816 -0.1429  0.3931
  433POSM   T1A 5076   9.909  17.308  14.858  0.0353  0.1163 -0.2826
  433POSM   C2A 5077   9.882  17.536  14.446 -0.2372 -0.1134 -0.2267
  433POSM   C3A 5078   9.856  17.342  14.002  0.0593  0.0451 -0.2007
  433POSM   C1B 5079   9.546  17.632  15.018  0.1619 -0.0740 -0.0847
  433POSM   D2B 5080   9.384  17.693  14.604 -0.1194 -0.0205 -0.0187
  433POSM   C3B 5081   9.100  17.366  14.418 -0.0378 -0.1266  0.2017
  433POSM   C4B 5082   8.611  17.459  14.451  0.5122  0.1960  0.0813
  434POSM   NC3 5083  10.587  13.130  14.688  0.2081 -0.4247 -0.1137
  434POSM   PO4 5084  10.623  13.487  14.524 -0.2084  0.0827  0.4016
  434POSM   AM1 5085  10.716  13.340  14.228  0.2086 -0.5184  0.1230
  434POSM   AM2 5086  10.901  13.435  14.018  0.0987 -0.0363  0.0311
  434POSM   T1A 5087  10.566  13.259  13.705 -0.1896  0.1082  0.3373
  434POSM   C2A 5088  10.416  13.193  13.268 -0.0770 -0.2068  0.2226
  434POSM   C3A 5089  10.483  13.415  12.871 -0.0949  0.3638  0.1386
  434POSM   C1B 5090  10.835  13.804  13.949  0.0580  0.0293 -0.0559
  434POSM   D2B 5091  10.747  14.172  13.683  0.0209 -0.2037  0.0943
  434POSM   C3B 5092  10.809  14.226  13.257  0.0850 -0.2142 -0.2228
  434POSM   C4B 5093  10.833  14.328  12.786  0.0672  0.3047 -0.0894
  435DOPC   NC3 5094   2.121  19.798  17.422  0.0865 -0.0483  0.4116
  435DOPC   PO4 5095   1.947  20.002  17.138  0.1130 -0.0876 -0.0783
  435DOPC   GL1 5096   2.000  19.841  16.855 -0.0354  0.3032  0.0668
  435DOPC   GL2 5097   2.143  19.745  16.566  0.0598  0.3348  0.1120
  435DOPC   C1A 5098   1.669  19.577  16.666 -0.2114 -0.0233  0.2248
  435DOPC   D2A 5099   1.191  19.636  16.554  0.0371 -0.1024  0.2415
  435DOPC   C3A 5100   0.902  19.316  16.327 -0.0886 -0.0791  0.1666
  435DOPC   C4A 5101   0.811  18.886  16.414  0.1900  0.0330  0.1012
  435DOPC   C1B 5102   1.869  20.090  16.369 -0.2993 -0.0951  0.0558
  435DOPC   D2B 5103   1.627  20.399  16.116 -0.2152  0.0632  0.3647
  435DOPC   C3B 5104   1.795  20.453  15.658  0.0189 -0.0417 -0.0053
  435DOPC   C4B 5105   1.677  20.615  15.213 -0.1691 -0.0429  0.1439
  436DOPC   NC3 5106   0.151  13.875  17.141 -0.1734  0.1810 -0.2231
  436DOPC   PO4 5107   0.272  13.529  16.989 -0.3885  0.0195  0.1292
  436DOPC   GL1 5108   0.422  13.734  16.690  0.0372  0.3513  0.3787
  436DOPC   GL2 5109   0.460  13.466  16.543  0.0907  0.2125 -0.1320
  436DOPC   C1A 5110   0.341  14.039  16.326 -0.0283 -0.2147 -0.1632
  436DOPC   D2A 5111   0.354  14.141  15.914 -0.0128 -0.0001  0.0665
  436DOPC   C3A 5112   0.420  13.747  15.564  0.3109  0.0618  0.2293
  436DOPC   C4A 5113   0.384  13.707  15.079  0.2091  0.1246 -0.0106
  436DOPC   C1B 5114   0.313  13.370  16.092  0.0694  0.1564  0.0428
  436DOPC   D2B 5115   0.245  13.276  15.689  0.1771  0.0429  0.2712
  436DOPC   C3B 5116   0.521  13.277  15.343 -0.3467  0.1862  0.1281
  436DOPC   C4B 5117   0.912  13.440  15.093  0.0056 -0.0943 -0.1532
  437POSM   NC3 5118   6.714  12.146  16.306 -0.0512  0.0221 -0.2545
  437POSM   PO4 5119   6.577  11.785  16.428  0.0113  0.0371 -0.1659
  437POSM   AM1 5120   6.494  11.776  16.121  0.0012  0.0178 -0.5970
  437POSM   AM2 5121   6.600  11.889  15.859  0.1305 -0.2148  0.3224
  437POSM   T1A 5122   6.202  11.522  15.826  0.0497  0.0775 -0.0152
  437POSM   C2A 5123   6.110  11.083  15.759  0.1733  0.1074  0.0277
  437POSM   C3A 5124   6.140  10.778  15.374  0.2145  0.2633  0.0058
  437POSM   C1B 5125   6.452  11.830  15.575  0.3003 -0.3799 -0.0273
  437POSM   D2B 5126   6.431  11.742  15.161  0.4544  0.0551 -0.4602
  437POSM   C3B 5127   6.642  12.048  14.861 -0.0185 -0.0959 -0.0070
  437POSM   C4B 5128   6.827  12.509  14.737 -0.0339  0.2167  0.3686
  438POSM   NC3 5129  10.752  16.231  14.791 -0.0225 -0.0567 -0.0541
  438POSM   PO4 5130  10.804  16.560  14.992 -0.3742  0.0377 -0.1463
  438POSM   AM1 5131  10.770  16.714  14.694  0.3315 -0.0356 -0.1608
  438POSM   AM2 5132  10.871  16.945  14.546 -0.0491  0.2161 -0.1549
  438POSM   T1A 5133  10.513  16.680  14.279  0.3647  0.1909  0.3069
  438POSM   C2A 5134  10.364  16.521  13.927  0.2465  0.2821  0.0017
  438POSM   C3A 5135  10.336  16.224  13.552 -0.0572  0.1143  0.0814
  438POSM   C1B 5136  11.063  17.050  14.282  0.3522  0.3295 -0.3378
  438POSM   D2B 5137  11.243  17.241  13.892  0.1843  0.0426  0.1385
  438POSM   C3B 5138  10.902  17.444  13.695  0.2518 -0.1919  0.2719
  438POSM   C4B 5139  10.571  17.722  13.518  0.1252 -0.0217 -0.0656
  439DOPE   NH3 5140  10.487  21.957  15.267  0.0963  0.1906 -0.1244
  439DOPE   PO4 5141  10.647  21.721  15.130  0.1636 -0.1447  0.0272
  439DOPE   GL1 5142  10.633  21.686  14.760  0.1217  0.0076  0.1048
  439DOPE   GL2 5143  10.653  21.394  14.692 -0.1337 -0.0609  0.3509
  439DOPE   C1A 5144  10.762  21.801  14.339 -0.1863 -0.2924  0.0774
  439DOPE   D2A 5145  10.676  21.532  13.970 -0.0485  0.0412 -0.3583
  439DOPE   C3A 5146  10.917  21.653  13.572 -0.4422  0.2195 -0.2606
  439DOPE   C4A 5147  11.344  21.722  13.365 -0.1758  0.0268 -0.0490
  439DOPE   C1B 5148  10.337  21.472  14.342  0.1814 -0.1400 -0.0223
  439DOPE   D2B 5149  10.261  21.706  14.024  0.2865 -0.1929 -0.2524
  439DOPE   C3B 5150  10.525  21.918  13.698 -0.2884  0.1172  0.2440
  439DOPE   C4B 5151  10.847  22.074  13.939 -0.2289 -0.2688  0.0326
  440DOPC   NC3 5152   7.627  21.744  16.292 -0.1099 -0.2390  0.1178
  440DOPC   PO4 5153   7.328  21.707  16.575 -0.0919 -0.2149  0.1670
  440DOPC   GL1 5154   7.065  21.720  16.227 -0.0175 -0.0113 -0.3110
  440DOPC   GL2 5155   7.189  21.474  16.099  0.1926 -0.1036 -0.0553
  440DOPC   C1A 5156   6.661  21.549  16.148 -0.1529 -0.4412  0.1530
  440DOPC   D2A 5157   6.400  21.273  15.877  0.0264 -0.1757 -0.1323
  440DOPC   C3A 5158   6.526  21.244  15.393  0.0743 -0.0558  0.1997
  440DOPC   C4A 5159   6.395  21.269  14.946 -0.2695 -0.0193 -0.0789
  440DOPC   C1B 5160   7.484  21.259  15.778  0.2361  0.2144 -0.0162
  440DOPC   D2B 5161   7.600  20.960  15.450 -0.2417 -0.0597 -0.1545
  440DOPC   C3B 5162   7.550  20.868  15.027  0.0146  0.2556  0.3090
  440DOPC   C4B 5163   7.258  20.828  14.675  0.1319  0.1315 -0.3108
  441DOPE   NH3 5164   7.640  17.731  16.335 -0.1796  0.0171 -0.2527
  441DOPE   PO4 5165   7.373  17.874  16.370  0.2971 -0.0883 -0.2297
  441DOPE   GL1 5166   7.205  18.095  16.070  0.0819 -0.4452 -0.1794
  441DOPE   GL2 5167   7.297  17.963  15.838 -0.2447  0.0251  0.0684
  441DOPE   C1A 5168   7.342  18.487  15.897  0.1026  0.0661  0.1463
  441DOPE   D2A 5169   7.274  18.942  15.827 -0.2122 -0.1587  0.4545
  441DOPE   C3A 5170   7.065  19.005  15.396 -0.0104  0.1842 -0.0578
  441DOPE   C4A 5171   7.058  18.996  14.900  0.2578  0.0623 -0.0181
  441DOPE   C1B 5172   6.890  17.731  15.634 -0.1193  0.2456  0.1558
  441DOPE   D2B 5173   6.767  17.553  15.225  0.0150  0.0215  0.5233
  441DOPE   C3B 5174   7.126  17.466  14.908 -0.1260 -0.0098  0.0162
  441DOPE   C4B 5175   7.324  17.352  14.542  0.0319 -0.2103 -0.2074
  442DOPE   NH3 5176  10.104  14.585  15.249 -0.2160  0.1167  0.1436
  442DOPE   PO4 5177  10.297  14.370  15.264 -0.0893  0.1995 -0.0915
  442DOPE   GL1 5178  10.371  14.322  14.839  0.0457  0.3278  0.0719
  442DOPE   GL2 5179  10.208  14.606  14.777  0.0458 -0.1929 -0.1544
  442DOPE   C1A 5180  10.138  14.133  14.479 -0.0533 -0.1750 -0.1149
  442DOPE   D2A 5181  10.069  13.946  14.116  0.1020  0.2945  0.0252
  442DOPE   C3A 5182  10.284  13.800  13.734  0.1114 -0.0386 -0.0567
  442DOPE   C4A 5183  10.678  13.734  13.505  0.2585 -0.0396  0.0937
  442DOPE   C1B 5184   9.860  14.585  14.483 -0.1445  0.4133  0.2033
  442DOPE   D2B 5185   9.864  14.575  13.974 -0.4542  0.0599 -0.0505
  442DOPE   C3B 5186   9.998  14.665  13.573 -0.0172  0.0246  0.3115
  442DOPE   C4B 5187  10.079  15.110  13.387 -0.1489  0.1087 -0.1526
  443DOPE   NH3 5188   6.923  14.897  16.410  0.2184 -0.1317  0.4184
  443DOPE   PO4 5189   6.949  14.606  16.478 -0.1445 -0.0466  0.0906
  443DOPE   GL1 5190   6.746  14.595  16.090 -0.2897  0.0728  0.0170
  443DOPE   GL2 5191   6.889  14.768  15.887 -0.3067 -0.2147 -0.0169
  443DOPE   C1A 5192   6.325  14.486  15.920  0.0439 -0.4293 -0.0930
  443DOPE   D2A 5193   6.372  14.501  15.446  0.0655 -0.3415  0.0507
  443DOPE   C3A 5194   6.472  14.109  15.193  0.0826  0.0468  0.2335
  443DOPE   C4A 5195   6.439  13.881  14.778 -0.1263 -0.1102  0.4151
  443DOPE   C1B 5196   7.170  15.083  15.723 -0.3426 -0.0047  0.1943
  443DOPE   D2B 5197   7.453  15.368  15.717 -0.4839  0.0740  0.0441
  443DOPE   C3B 5198   7.152  15.403  15.332  0.0265  0.1321  0.0945
  443DOPE   C4B 5199   7.159  15.477  14.899 -0.0231  0.1835  0.2599
  444DOPS   CNO 5200   0.291  17.099  17.492  0.1873  0.0656  0.0833
  444DOPS   PO4 5201   0.342  16.813  17.219 -0.3087 -0.0495  0.0809
  444DOPS   GL1 5202   0.404  16.592  16.911  0.1084 -0.2554 -0.1173
  444DOPS   GL2 5203   0.273  16.545  16.629 -0.0181  0.0171 -0.0302
  444DOPS   C1A 5204   0.746  16.455  16.620 -0.0162 -0.2657 -0.0168
  444DOPS   D2A 5205   0.886  16.594  16.158  0.2220 -0.1762  0.3864
  444DOPS   C3A 5206   1.117  16.299  15.836  0.1920 -0.0426  0.0551
  444DOPS   C4A 5207   1.240  16.259  15.440 -0.1788  0.0513  0.0381
  444DOPS   C1B 5208   0.154  16.585  16.146  0.0299 -0.1344 -0.1749
  444DOPS   D2B 5209   0.495  16.645  15.834 -0.0198  0.1750  0.0944
  444DOPS   C3B 5210   0.800  16.701  15.532 -0.3506  0.0448 -0.2675
  444DOPS   C4B 5211   0.942  17.102  15.315  0.0029  0.1323  0.1740
  445DOPE   NH3 5212   5.818  18.366  16.441  0.0493  0.2587  0.0344
  445DOPE   PO4 5213   5.688  18.492  16.176 -0.2963  0.2466 -0.2794
  445DOPE   GL1 5214   5.786  18.431  15.868  0.3012 -0.1016  0.1976
  445DOPE   GL2 5215   5.622  18.534  15.579  0.0528 -0.3915  0.1789
  445DOPE   C1A 5216   6.107  18.659  15.640  0.0552 -0.0692  0.1403
  445DOPE   D2A 5217   6.218  18.969  15.375  0.0946  0.1740  0.2359
  445DOPE   C3A 5218   6.670  18.831  15.168 -0.1161  0.1086  0.2951
  445DOPE   C4A 5219   6.957  18.446  14.934  0.1569 -0.0379 -0.2326
  445DOPE   C1B 5220   5.984  18.460  15.247 -0.1380  0.1131  0.0641
  445DOPE   D2B 5221   6.004  18.654  14.803  0.1172 -0.0975 -0.1702
  445DOPE   C3B 5222   6.349  18.685  14.538  0.1457  0.1429 -0.0546
  445DOPE   C4B 5223   6.442  18.911  14.150  0.0845 -0.0236 -0.3123
  446DOPE   NH3 5224   3.407  17.871  16.368 -0.0120  0.0136 -0.0131
  446DOPE   PO4 5225   3.226  17.635  16.207 -0.2939 -0.0411  0.0992
  446DOPE   GL1 5226   3.126  17.408  15.873  0.0131 -0.0273  0.3434
  446DOPE   GL2 5227   3.121  17.707  15.702  0.0365  0.1457  0.1997
  446DOPE   C1A 5228   2.969  17.339  15.391 -0.0249  0.3251  0.4843
  446DOPE   D2A 5229   2.835  17.216  14.950  0.0787 -0.3763 -0.2869
  446DOPE   C3A 5230   2.431  17.116  14.751  0.1086  0.0750 -0.0578
  446DOPE   C4A 5231   2.051  17.190  14.455  0.0276 -0.2884  0.2538
  446DOPE   C1B 5232   2.978  17.864  15.236 -0.0400  0.0022  0.0843
  446DOPE   D2B 5233   2.971  17.667  14.757 -0.1234  0.1195  0.2899
  446DOPE   C3B 5234   3.238  17.981  14.439  0.0162  0.2654  0.0630
  446DOPE   C4B 5235   3.471  18.360  14.284 -0.1153 -0.1780 -0.2511
  447POSM   NC3 5236   3.583  11.670  17.171 -0.0286 -0.0251 -0.1381
  447POSM   PO4 5237   3.265  11.782  17.022 -0.0378 -0.0503  0.0194
  447POSM   AM1 5238   3.394  11.829  16.712  0.0065 -0.1992  0.0626
  447POSM   AM2 5239   3.472  12.023  16.545 -0.2685 -0.2124 -0.3265
  447POSM   T1A 5240   3.383  11.647  16.230 -0.1057  0.1513 -0.2107
  447POSM   C2A 5241   3.190  11.499  15.841  0.1695  0.0825 -0.1654
  447POSM   C3A 5242   3.287  11.432  15.387 -0.0945  0.0326  0.3618
  447POSM   C1B 5243   3.545  12.093  16.206  0.2041 -0.0436  0.5292
  447POSM   D2B 5244   3.786  12.335  15.861 -0.2296  0.0567  0.0518
  447POSM   C3B 5245   3.561  12.330  15.434 -0.1428 -0.0956  0.1244
  447POSM   C4B 5246   3.557  12.630  15.057 -0.0357  0.0623  0.2281
  448POSM   NC3 5247   5.109  14.898  16.680 -0.1320 -0.1167 -0.0194
  448POSM   PO4 5248   5.116  15.134  16.353 -0.2054 -0.2825  0.3790
  448POSM   AM1 5249   4.878  15.180  16.093  0.1743 -0.0032  0.6856
  448POSM   AM2 5250   4.594  15.240  16.073  0.1984  0.2721  0.2548
  448POSM   T1A 5251   4.780  15.503  15.676  0.2951 -0.0749  0.4871
  448POSM   C2A 5252   4.680  15.681  15.250  0.0546 -0.2459 -0.1083
  448POSM   C3A 5253   4.309  15.660  14.959 -0.0477  0.0049 -0.1429
  448POSM   C1B 5254   4.552  14.996  15.807  0.0521  0.2775 -0.1613
  448POSM   D2B 5255   4.540  14.531  15.718  0.2468  0.2103  0.0163
  448POSM   C3B 5256   4.188  14.361  15.451  0.2745 -0.1703  0.0823
  448POSM   C4B 5257   3.972  13.989  15.335  0.1930  0.0443 -0.0980
  449DOPC   NC3 5258   5.340  18.221  15.860  0.0030  0.1760 -0.3092
  449DOPC   PO4 5259   5.488  18.021  15.530 -0.4829  0.1132  0.1156
  449DOPC   GL1 5260   5.582  17.663  15.200  0.0169 -0.2203  0.0297
  449DOPC   GL2 5261   5.473  17.831  15.001 -0.0280 -0.2129 -0.0883
  449DOPC   C1A 5262   5.827  17.631  14.819  0.0918  0.0212  0.1219
  449DOPC   D2A 5263   5.916  17.822  14.428  0.4163 -0.0711 -0.2149
  449DOPC   C3A 5264   6.196  18.181  14.519  0.0534 -0.0718  0.1456
  449DOPC   C4A 5265   6.474  18.359  14.842  0.3985  0.0972  0.0183
  449DOPC   C1B 5266   5.429  17.959  14.589  0.1542  0.2004  0.1176
  449DOPC   D2B 5267   5.558  17.973  14.158 -0.1538 -0.1557 -0.1238
  449DOPC   C3B 5268   5.405  17.989  13.780 -0.0699 -0.2756 -0.1295
  449DOPC   C4B 5269   5.335  17.853  13.340 -0.1992 -0.0395 -0.2839
  450DOPC   NC3 5270   3.573  20.110  16.489  0.0615 -0.0524  0.1476
  450DOPC   PO4 5271   3.956  20.164  16.377 -0.0981  0.0634  0.1006
  450DOPC   GL1 5272   3.999  20.148  15.950  0.0074  0.3177  0.1652
  450DOPC   GL2 5273   4.089  19.974  15.729 -0.3376  0.0657 -0.1001
  450DOPC   C1A 5274   3.616  19.973  15.783  0.0286  0.0035 -0.1928
  450DOPC   D2A 5275   3.233  20.287  15.641  0.1562  0.3347 -0.2392
  450DOPC   C3A 5276   3.072  20.450  15.253  0.0600 -0.0589 -0.2938
  450DOPC   C4A 5277   2.661  20.367  15.022  0.0123 -0.2685 -0.1060
  450DOPC   C1B 5278   3.829  20.244  15.440 -0.3204 -0.0444  0.0351
  450DOPC   D2B 5279   3.521  20.201  15.067 -0.1275  0.1116 -0.0684
  450DOPC   C3B 5280   3.071  20.225  14.807  0.2066  0.0147  0.1332
  450DOPC   C4B 5281   2.794  20.016  14.520  0.0253 -0.5388 -0.3659
  451POSM   NC3 5282   2.535  20.927  16.334  0.1856 -0.2300  0.3127
  451POSM   PO4 5283   2.775  21.239  16.475  0.1441 -0.0879  0.1046
  451POSM   AM1 5284   2.810  21.287  16.153  0.0451 -0.0213 -0.0352
  451POSM   AM2 5285   2.900  21.110  15.947 -0.0172  0.1301  0.0057
  451POSM   T1A 5286   2.840  21.465  15.673 -0.0405 -0.1593  0.0096
  451POSM   C2A 5287   2.854  21.428  15.207  0.2008  0.1194 -0.2841
  451POSM   C3A 5288   2.913  21.620  14.736 -0.2080 -0.0350 -0.2889
  451POSM   C1B 5289   2.875  20.927  15.667 -0.4168 -0.0762  0.4364
  451POSM   D2B 5290   2.765  20.846  15.162  0.0366 -0.1066 -0.2425
  451POSM   C3B 5291   3.013  20.744  14.772  0.0814  0.0203 -0.0897
  451POSM   C4B 5292   3.174  20.850  14.373 -0.2243  0.0047  0.0800
  452DOPC   NC3 5293   8.483  13.391  16.096  0.2361 -0.1447  0.1875
  452DOPC   PO4 5294   8.650  13.014  16.070  0.0475 -0.2935  0.2744
  452DOPC   GL1 5295   8.744  13.043  15.621 -0.0516 -0.0405  0.2523
  452DOPC   GL2 5296   8.458  13.152  15.591  0.1414  0.0687  0.0910
  452DOPC   C1A 5297   8.812  13.018  15.165 -0.4386 -0.0005  0.0902
  452DOPC   D2A 5298   8.663  13.004  14.745  0.3259 -0.0916  0.1717
  452DOPC   C3A 5299   8.291  13.281  14.662 -0.0439 -0.4303  0.1284
  452DOPC   C4A 5300   8.275  13.751  14.768  0.0158 -0.0065 -0.1003
  452DOPC   C1B 5301   8.427  13.427  15.207 -0.3040 -0.1056  0.0022
  452DOPC   D2B 5302   8.539  13.848  15.131  0.1908 -0.0752 -0.1473
  452DOPC   C3B 5303   8.668  14.107  14.707  0.2635 -0.1900  0.2785
  452DOPC   C4B 5304   9.033  14.079  14.416 -0.0133 -0.0702 -0.2059
  453POSM   NC3 5305  34.613  20.002  17.400  0.2508  0.0485  0.3615
  453POSM   PO4 5306  34.909  19.807  17.212 -0.3441 -0.1574 -0.0309
  453POSM   AM1 5307  35.104  19.626  16.983  0.0516  0.0974  0.0242
  453POSM   AM2 5308  35.393  19.601  16.820  0.1169 -0.0071  0.0006
  453POSM   T1A 5309  35.113  19.258  16.647  0.0691  0.1111  0.1326
  453POSM   C2A 5310  34.984  19.101  16.225  0.1879  0.0737  0.0305
  453POSM   C3A 5311  34.925  18.849  15.879 -0.3273 -0.1012 -0.1970
  453POSM   C1B 5312  35.302  19.732  16.559 -0.0808  0.1648  0.1372
  453POSM   D2B 5313  35.136  19.716  16.127 -0.2333 -0.3966  0.4213
  453POSM   C3B 5314  35.278  19.348  15.912 -0.2866  0.0587 -0.0216
  453POSM   C4B 5315  35.604  19.060  15.812 -0.1118  0.4104 -0.1437
  454DOPC   NC3 5316   2.875  15.497  16.930 -0.0846  0.0036  0.1993
  454DOPC   PO4 5317   2.831  15.870  16.846 -0.2165  0.1134 -0.0516
  454DOPC   GL1 5318   2.754  16.047  16.555  0.3733  0.2677  0.0037
  454DOPC   GL2 5319   2.914  15.937  16.313 -0.1992  0.0804  0.1060
  454DOPC   C1A 5320   2.401  16.234  16.313  0.2066 -0.2079 -0.0948
  454DOPC   D2A 5321   2.404  16.536  15.961  0.1681  0.2289 -0.1071
  454DOPC   C3A 5322   2.322  16.330  15.551 -0.0820  0.0004  0.5705
  454DOPC   C4A 5323   2.143  15.942  15.407  0.0999 -0.2084 -0.1965
  454DOPC   C1B 5324   2.721  16.137  15.880 -0.0407  0.1749  0.2102
  454DOPC   D2B 5325   2.683  15.907  15.471 -0.0126  0.0031  0.1388
  454DOPC   C3B 5326   2.977  15.899  15.095  0.1841  0.0096 -0.0576
  454DOPC   C4B 5327   3.091  15.745  14.629 -0.3633 -0.2649  0.0496
  455POSM   NC3 5328   2.207  21.980  16.321 -0.1242  0.2752 -0.0601
  455POSM   PO4 5329   1.942  22.133  16.573  0.3322  0.0658  0.4153
  455POSM   AM1 5330   1.794  22.221  16.295  0.0860 -0.0515  0.1027
  455POSM   AM2 5331   1.870  22.321  16.065 -0.0039 -0.0234 -0.0571
  455POSM   T1A 5332   1.382  22.221  16.042 -0.0019 -0.0325  0.3380
  455POSM   C2A 5333   1.089  22.072  15.757  0.1304 -0.1109 -0.2462
  455POSM   C3A 5334   0.833  21.968  15.353 -0.2025 -0.3001  0.0795
  455POSM   C1B 5335   1.830  22.438  15.728  0.0311  0.0849  0.0851
  455POSM   D2B 5336   1.912  22.357  15.297 -0.0160  0.1587  0.1604
  455POSM   C3B 5337   2.110  21.971  15.284  0.1344 -0.0974  0.0872
  455POSM   C4B 5338   2.593  21.921  15.313  0.0682  0.1597  0.2286
  456DOPE   NH3 5339   3.531  18.509  16.347  0.0088 -0.1465  0.1846
  456DOPE   PO4 5340   3.685  18.283  16.216 -0.3723 -0.0748  0.0197
  456DOPE   GL1 5341   3.339  18.239  15.963  0.3812  0.4893 -0.4030
  456DOPE   GL2 5342   3.082  18.229  16.055  0.0347  0.0242  0.2949
  456DOPE   C1A 5343   3.218  18.269  15.499 -0.1266  0.1515  0.0568
  456DOPE   D2A 5344   3.212  18.508  15.108 -0.1649 -0.1878  0.0463
  456DOPE   C3A 5345   3.534  18.874  15.070 -0.0033 -0.2401 -0.3222
  456DOPE   C4A 5346   3.940  19.148  15.124  0.1445 -0.1040  0.1672
  456DOPE   C1B 5347   2.784  18.285  15.731  0.3539  0.1943 -0.0518
  456DOPE   D2B 5348   2.494  18.575  15.449 -0.0418 -0.2043 -0.1158
  456DOPE   C3B 5349   2.767  18.922  15.241  0.3436  0.0565 -0.3977
  456DOPE   C4B 5350   3.079  19.158  15.035 -0.0041  0.2374  0.4904
  457DOPC   NC3 5351  10.155  13.378  14.698 -0.3612  0.3605  0.0840
  457DOPC   PO4 5352   9.999  13.459  15.074 -0.0643 -0.0696 -0.0932
  457DOPC   GL1 5353   9.700  13.305  14.835 -0.2557  0.1538  0.1840
  457DOPC   GL2 5354   9.536  13.304  15.099 -0.1280  0.1705 -0.1682
  457DOPC   C1A 5355   9.604  13.173  14.431 -0.1051  0.0482  0.1644
  457DOPC   D2A 5356   9.291  12.896  14.243  0.3267 -0.1363  0.2470
  457DOPC   C3A 5357   8.865  12.994  14.050 -0.1209 -0.0494  0.2231
  457DOPC   C4A 5358   8.482  13.125  14.129  0.0600  0.0703 -0.1468
  457DOPC   C1B 5359   9.422  13.627  14.736 -0.3800  0.1191 -0.3545
  457DOPC   D2B 5360   9.376  13.722  14.264 -0.1407 -0.2066  0.2210
  457DOPC   C3B 5361   9.386  13.463  13.871  0.2587  0.2087 -0.0429
  457DOPC   C4B 5362   9.388  13.404  13.452 -0.0794 -0.3380 -0.1061
  458DOPC   NC3 5363   5.950  12.555  16.347  0.2401 -0.1158  0.1758
  458DOPC   PO4 5364   6.282  12.597  16.423  0.0532 -0.0013  0.0047
  458DOPC   GL1 5365   6.400  12.742  16.131  0.1257 -0.1823 -0.2604
  458DOPC   GL2 5366   6.618  12.614  15.989 -0.0309 -0.1504 -0.3588
  458DOPC   C1A 5367   6.340  12.906  15.682  0.2756 -0.0415 -0.1898
  458DOPC   D2A 5368   6.141  13.120  15.277 -0.1094  0.1303  0.1583
  458DOPC   C3A 5369   6.066  13.042  14.824 -0.0477  0.2355 -0.2591
  458DOPC   C4A 5370   5.770  12.711  14.732 -0.0229 -0.1553 -0.1620
  458DOPC   C1B 5371   6.552  12.400  15.640  0.1595 -0.0546 -0.2132
  458DOPC   D2B 5372   6.751  12.120  15.311 -0.2315 -0.0047  0.2008
  458DOPC   C3B 5373   7.170  12.079  15.262  0.2245 -0.0073 -0.0734
  458DOPC   C4B 5374   7.454  12.381  15.130  0.3251  0.3186 -0.0024
  459DOPC   NC3 5375   4.154  16.524  16.481 -0.1727 -0.2594 -0.0901
  459DOPC   PO4 5376   3.787  16.487  16.524  0.3608 -0.0922 -0.0253
  459DOPC   GL1 5377   3.631  16.386  16.086  0.0352  0.0280  0.1617
  459DOPC   GL2 5378   3.386  16.524  16.103  0.0360 -0.1892 -0.0429
  459DOPC   C1A 5379   3.666  16.608  15.664  0.2448  0.0948 -0.0819
  459DOPC   D2A 5380   3.571  16.717  15.250  0.0227 -0.2118 -0.1763
  459DOPC   C3A 5381   3.844  17.095  15.079 -0.0133 -0.0171  0.1011
  459DOPC   C4A 5382   4.224  17.092  14.849  0.0084  0.0061  0.0790
  459DOPC   C1B 5383   3.369  16.100  15.885  0.2355 -0.0051  0.1308
  459DOPC   D2B 5384   3.271  15.818  15.490 -0.0267 -0.0342 -0.0661
  459DOPC   C3B 5385   3.486  15.864  15.087  0.2366  0.4019 -0.0375
  459DOPC   C4B 5386   3.503  15.982  14.693 -0.0438  0.0234  0.2235
  460DOPC   NC3 5387  10.852  19.785  15.227  0.1439 -0.0133  0.2610
  460DOPC   PO4 5388  10.548  19.598  15.390  0.0282 -0.0552 -0.0480
  460DOPC   GL1 5389  10.359  19.777  15.116  0.2176 -0.2881  0.0249
  460DOPC   GL2 5390  10.457  20.015  15.029  0.4517  0.0583  0.2141
  460DOPC   C1A 5391  10.132  19.712  14.684 -0.0828  0.3210  0.1846
  460DOPC   D2A 5392   9.702  19.653  14.498  0.3882 -0.1006 -0.1113
  460DOPC   C3A 5393   9.806  19.943  14.165  0.1306 -0.2153  0.2045
  460DOPC   C4A 5394   9.888  20.009  13.679  0.4024 -0.0556  0.0798
  460DOPC   C1B 5395  10.612  19.742  14.765 -0.1335  0.5968  0.0301
  460DOPC   D2B 5396  10.364  19.321  14.867 -0.0395 -0.1783  0.0264
  460DOPC   C3B 5397   9.863  19.301  14.820 -0.0313 -0.0939  0.2792
  460DOPC   C4B 5398   9.428  19.279  14.695 -0.1008 -0.2657  0.0273
  461DOPS   CNO 5399   5.637  16.947  16.316 -0.1834  0.1888 -0.3541
  461DOPS   PO4 5400   5.918  17.087  16.114  0.1056 -0.1079  0.0796
  461DOPS   GL1 5401   5.760  17.156  15.764 -0.1613 -0.0387  0.0250
  461DOPS   GL2 5402   5.964  17.226  15.597  0.1809  0.1116 -0.1560
  461DOPS   C1A 5403   5.691  16.809  15.446 -0.0493  0.2886 -0.0238
  461DOPS   D2A 5404   5.642  16.737  14.973 -0.4288  0.1590 -0.2734
  461DOPS   C3A 5405   5.844  16.745  14.592 -0.0590  0.2171 -0.3282
  461DOPS   C4A 5406   5.942  16.626  14.150  0.2518 -0.2123  0.2554
  461DOPS   C1B 5407   5.878  17.310  15.154  0.1551 -0.1389  0.0898
  461DOPS   D2B 5408   5.519  17.243  14.844 -0.0057 -0.1286  0.0917
  461DOPS   C3B 5409   5.464  17.507  14.462  0.1094  0.0611  0.2562
  461DOPS   C4B 5410   5.540  17.487  14.010 -0.2790  0.0561 -0.0353
  462DOPC   NC3 5411   6.072  16.239  16.499 -0.1357  0.0588 -0.0416
  462DOPC   PO4 5412   6.355  16.012  16.393 -0.2075 -0.2172 -0.0415
  462DOPC   GL1 5413   6.164  16.167  16.043  0.2619 -0.1947  0.0859
  462DOPC   GL2 5414   6.074  15.917  15.847  0.0711  0.2521 -0.4648
  462DOPC   C1A 5415   6.537  16.383  15.864  0.3812  0.2679 -0.0430
  462DOPC   D2A 5416   6.911  16.350  15.595  0.1444 -0.1501 -0.0426
  462DOPC   C3A 5417   6.916  16.105  15.194  0.0576  0.1960 -0.0925
  462DOPC   C4A 5418   6.996  15.969  14.755  0.1082 -0.1099 -0.1582
  462DOPC   C1B 5419   6.033  15.860  15.404 -0.4744 -0.0506 -0.2226
  462DOPC   D2B 5420   5.782  15.845  15.023 -0.2156 -0.0601  0.2125
  462DOPC   C3B 5421   5.708  15.465  14.727 -0.1037 -0.2356  0.4959
  462DOPC   C4B 5422   5.497  15.358  14.318 -0.3110 -0.2249 -0.0368
  463DOPS   CNO 5423   7.443  19.748  16.600  0.0841 -0.1779  0.2598
  463DOPS   PO4 5424   7.641  19.747  16.278 -0.0735  0.2056 -0.0496
  463DOPS   GL1 5425   7.562  19.565  15.881  0.2212 -0.1557 -0.0466
  463DOPS   GL2 5426   7.272  19.485  15.849 -0.0359 -0.1842  0.1752
  463DOPS   C1A 5427   7.644  19.252  15.579  0.3314  0.4960  0.1066
  463DOPS   D2A 5428   7.645  18.848  15.391  0.0585  0.0847 -0.1851
  463DOPS   C3A 5429   7.644  18.902  14.947 -0.1318 -0.1991  0.1024
  463DOPS   C4A 5430   7.667  19.022  14.506 -0.1280 -0.2757  0.0160
  463DOPS   C1B 5431   7.224  19.645  15.401 -0.1998  0.0693  0.1324
  463DOPS   D2B 5432   6.985  19.468  15.044 -0.1017  0.1400 -0.2912
  463DOPS   C3B 5433   6.828  19.646  14.610 -0.0673 -0.2383  0.0382
  463DOPS   C4B 5434   6.652  19.461  14.231 -0.1175 -0.2130  0.0975
  464POSM   NC3 5435  11.780  12.734  14.994 -0.0506 -0.2964  0.1066
  464POSM   PO4 5436  11.944  12.941  14.689 -0.0363 -0.2398 -0.0359
  464POSM   AM1 5437  11.975  12.704  14.488  0.3034 -0.1327  0.0227
  464POSM   AM2 5438  11.759  12.502  14.456 -0.0366  0.1367 -0.1147
  464POSM   T1A 5439  12.123  12.553  14.017  0.2567  0.2622 -0.1790
  464POSM   C2A 5440  11.966  12.395  13.599  0.0902 -0.0005 -0.1365
  464POSM   C3A 5441  12.139  12.193  13.185  0.1429  0.1632 -0.0594
  464POSM   C1B 5442  11.834  12.246  14.646 -0.0517  0.1106  0.0187
  464POSM   D2B 5443  11.810  11.869  14.918 -0.0176  0.2160 -0.0286
  464POSM   C3B 5444  11.562  11.535  14.787  0.0576  0.0115 -0.3018
  464POSM   C4B 5445  11.357  11.478  14.363  0.1645  0.3144  0.0491
  465DOPS   CNO 5446   4.686  15.936  16.661 -0.2191 -0.0551 -0.0126
  465DOPS   PO4 5447   4.456  16.031  16.363 -0.1870 -0.0399  0.2747
  465DOPS   GL1 5448   4.224  16.213  16.128  0.2136 -0.0223 -0.1335
  465DOPS   GL2 5449   4.439  16.421  16.040  0.2926  0.0084 -0.1136
  465DOPS   C1A 5450   3.971  16.207  15.729 -0.0817 -0.0788 -0.0072
  465DOPS   D2A 5451   3.775  16.208  15.295 -0.1354  0.3389 -0.0019
  465DOPS   C3A 5452   3.993  16.001  14.899 -0.0180  0.0875 -0.1819
  465DOPS   C4A 5453   3.984  15.875  14.436 -0.0992 -0.1654  0.1967
  465DOPS   C1B 5454   4.496  16.156  15.640  0.1304  0.1007  0.0738
  465DOPS   D2B 5455   4.422  16.169  15.161 -0.2341 -0.3075  0.3093
  465DOPS   C3B 5456   4.383  16.145  14.701 -0.0204 -0.0058  0.2564
  465DOPS   C4B 5457   4.461  16.105  14.261 -0.0191 -0.0094 -0.2808
  466DOPS   CNO 5458   0.762  14.652  17.021 -0.4054 -0.0118 -0.0437
  466DOPS   PO4 5459   0.668  14.865  16.725  0.3680  0.1483  0.0698
  466DOPS   GL1 5460   0.447  14.771  16.338  0.5179  0.3576  0.0521
  466DOPS   GL2 5461   0.560  14.604  16.115 -0.0319 -0.2931 -0.0766
  466DOPS   C1A 5462   0.117  14.486  16.287 -0.4831  0.3497 -0.0392
  466DOPS   D2A 5463  -0.214  14.204  16.112 -0.2084 -0.1265  0.0930
  466DOPS   C3A 5464  -0.136  14.170  15.651  0.0300  0.1787  0.1401
  466DOPS   C4A 5465   0.112  14.128  15.257 -0.0788 -0.0931 -0.0710
  466DOPS   C1B 5466   0.462  14.899  15.747 -0.3221 -0.1357  0.3507
  466DOPS   D2B 5467   0.719  15.280  15.646  0.2605 -0.0516 -0.0039
  466DOPS   C3B 5468   0.756  15.469  15.247  0.0815 -0.1372  0.0491
  466DOPS   C4B 5469   0.334  15.463  15.056  0.3151  0.1315  0.2125
  467DOPE   NH3 5470   3.373  15.746  16.682 -0.0302  0.1640 -0.1422
  467DOPE   PO4 5471   3.337  15.444  16.687  0.2966  0.0780  0.0736
  467DOPE   GL1 5472   3.189  15.481  16.312  0.2733 -0.2593 -0.0982
  467DOPE   GL2 5473   3.340  15.616  16.131 -0.0449 -0.0396 -0.2974
  467DOPE   C1A 5474   3.130  15.227  15.958 -0.0137  0.0147  0.2200
  467DOPE   D2A 5475   2.872  14.950  15.749  0.1120  0.0188  0.2268
  467DOPE   C3A 5476   2.854  15.016  15.324 -0.1244 -0.2386  0.2663
  467DOPE   C4A 5477   2.818  15.451  15.170 -0.2559  0.2350 -0.1143
  467DOPE   C1B 5478   3.005  15.714  15.904 -0.0870 -0.1792 -0.0270
  467DOPE   D2B 5479   2.782  15.423  15.651  0.0169 -0.0304  0.0500
  467DOPE   C3B 5480   2.395  15.304  15.620 -0.1589 -0.0365  0.1484
  467DOPE   C4B 5481   2.073  15.527  15.767  0.1586 -0.2077  0.1393
  468DOPE   NH3 5482   8.457  11.961  16.335 -0.1040  0.0087 -0.0704
  468DOPE   PO4 5483   8.656  12.150  16.183 -0.3581  0.0540 -0.2283
  468DOPE   GL1 5484   8.718  12.259  15.770 -0.0422  0.1447 -0.2335
  468DOPE   GL2 5485   8.853  12.525  15.859 -0.1459  0.1710 -0.0422
  468DOPE   C1A 5486   8.699  12.077  15.358 -0.0019  0.0847  0.1012
  468DOPE   D2A 5487   8.711  12.260  14.927 -0.2172  0.1682  0.0646
  468DOPE   C3A 5488   8.415  12.051  14.620 -0.0360 -0.4566  0.1408
  468DOPE   C4A 5489   8.170  11.778  14.324 -0.1339 -0.0040 -0.0577
  468DOPE   C1B 5490   9.143  12.717  15.561 -0.1538 -0.2011 -0.0612
  468DOPE   D2B 5491   9.373  12.808  15.161 -0.2861  0.0112  0.0035
  468DOPE   C3B 5492   9.168  12.969  14.751 -0.1293  0.0202 -0.3483
  468DOPE   C4B 5493   9.029  13.280  14.436 -0.0119 -0.3157 -0.0589
  469DOPE   NH3 5494   7.857  20.566  15.750 -0.0252  0.2287  0.0762
  469DOPE   PO4 5495   8.124  20.707  15.643 -0.1260  0.0318  0.0198
  469DOPE   GL1 5496   8.028  21.051  15.498  0.3883  0.0027 -0.2458
  469DOPE   GL2 5497   8.065  21.193  15.786  0.1996 -0.1269 -0.2125
  469DOPE   C1A 5498   7.772  21.390  15.367  0.0776  0.1022  0.2038
  469DOPE   D2A 5499   7.577  21.473  14.946 -0.1564 -0.1476  0.2191
  469DOPE   C3A 5500   7.188  21.368  14.775  0.1490 -0.1678 -0.1709
  469DOPE   C4A 5501   6.895  21.143  14.427 -0.2807 -0.1491  0.0745
  469DOPE   C1B 5502   7.882  21.580  15.886 -0.1153 -0.2234  0.2159
  469DOPE   D2B 5503   7.827  22.014  15.634  0.0262 -0.0860  0.1085
  469DOPE   C3B 5504   7.583  21.856  15.250 -0.1249 -0.0395  0.1626
  469DOPE   C4B 5505   7.186  21.887  15.083 -0.0816 -0.0415  0.0918
  470DOPC   NC3 5506   4.235  18.194  15.986  0.0175 -0.4061 -0.1272
  470DOPC   PO4 5507   3.904  18.231  15.776 -0.0515  0.0016 -0.2536
  470DOPC   GL1 5508   3.638  18.161  15.565 -0.0439  0.3550 -0.1115
  470DOPC   GL2 5509   3.737  18.261  15.282  0.3208  0.1552 -0.0026
  470DOPC   C1A 5510   3.493  17.815  15.379 -0.3320 -0.0887  0.0334
  470DOPC   D2A 5511   3.348  17.556  15.018 -0.2247  0.1754 -0.2206
  470DOPC   C3A 5512   3.321  17.127  15.061 -0.0376  0.2457 -0.2539
  470DOPC   C4A 5513   3.298  16.776  14.751 -0.2595  0.2105  0.3434
  470DOPC   C1B 5514   3.995  18.559  14.932 -0.2908  0.2910  0.2979
  470DOPC   D2B 5515   3.930  18.927  14.695 -0.0070 -0.0527 -0.1512
  470DOPC   C3B 5516   3.645  19.293  14.731  0.0683 -0.1459 -0.0905
  470DOPC   C4B 5517   3.510  19.749  14.869  0.0227 -0.0640  0.0807
  471DOPC   NC3 5518  10.598  15.848  15.051  0.0910  0.2433  0.0666
  471DOPC   PO4 5519  10.807  15.573  14.882 -0.0208  0.0653 -0.1250
  471DOPC   GL1 5520  10.820  15.822  14.615  0.1190  0.3057  0.2105
  471DOPC   GL2 5521  10.611  15.661  14.472 -0.2994 -0.0619  0.3795
  471DOPC   C1A 5522  10.768  16.119  14.267  0.1503 -0.1280 -0.0212
  471DOPC   D2A 5523  11.004  16.114  13.867 -0.4962 -0.3179  0.0112
  471DOPC   C3A 5524  10.800  16.063  13.443 -0.0166 -0.4642 -0.0795
  471DOPC   C4A 5525  10.845  15.777  13.033  0.0158  0.2921  0.1864
  471DOPC   C1B 5526  11.013  15.532  14.333  0.0730  0.4152  0.0576
  471DOPC   D2B 5527  11.459  15.417  14.184  0.1299  0.0215  0.0110
  471DOPC   C3B 5528  11.585  15.064  13.909 -0.0701  0.0509  0.2099
  471DOPC   C4B 5529  11.530  14.873  13.505  0.0045 -0.4976  0.1597
  472POSM   NC3 5530   3.507  16.671  16.852 -0.0302  0.0695  0.0502
  472POSM   PO4 5531   3.146  16.812  16.800  0.2793 -0.3543  0.1234
  472POSM   AM1 5532   3.015  16.761  16.519  0.0739 -0.0068  0.1614
  472POSM   AM2 5533   2.807  16.601  16.440 -0.2434  0.1916  0.1471
  472POSM   T1A 5534   3.081  16.977  16.012  0.2098  0.1331 -0.0254
  472POSM   C2A 5535   3.301  16.978  15.623 -0.0295  0.2568  0.1757
  472POSM   C3A 5536   3.545  17.358  15.468 -0.1097  0.1230 -0.1521
  472POSM   C1B 5537   2.904  16.549  16.154  0.0910  0.1466 -0.4621
  472POSM   D2B 5538   3.118  16.506  15.699  0.1695  0.2758 -0.0134
  472POSM   C3B 5539   2.773  16.360  15.350 -0.0268  0.2252 -0.0563
  472POSM   C4B 5540   2.466  16.174  15.050 -0.0877  0.0632 -0.2868
  473POSM   NC3 5541   1.690  21.764  16.772 -0.3037 -0.2439 -0.2427
  473POSM   PO4 5542   1.913  21.599  16.498  0.0427  0.0392 -0.2370
  473POSM   AM1 5543   1.824  21.612  16.168 -0.2310 -0.2000  0.1908
  473POSM   AM2 5544   1.856  21.855  16.004 -0.0796 -0.0731 -0.0455
  473POSM   T1A 5545   1.633  21.363  15.782  0.0001  0.0948 -0.2461
  473POSM   C2A 5546   1.481  21.189  15.327  0.1927  0.2457  0.0423
  473POSM   C3A 5547   1.721  21.047  14.962 -0.1434 -0.0330  0.2745
  473POSM   C1B 5548   1.740  21.950  15.686  0.1335 -0.2117 -0.0193
  473POSM   D2B 5549   1.443  22.014  15.331  0.0728 -0.1952  0.0696
  473POSM   C3B 5550   1.697  21.948  14.919 -0.1362 -0.2265 -0.3957
  473POSM   C4B 5551   1.998  22.129  14.658  0.2919  0.1485 -0.1929
  474DOPE   NH3 5552   1.731  14.893  16.993 -0.2122 -0.1835  0.2304
  474DOPE   PO4 5553   1.811  14.596  16.890  0.1272  0.4005 -0.0631
  474DOPE   GL1 5554   1.918  14.423  16.483  0.0908  0.3055 -0.2933
  474DOPE   GL2 5555   1.687  14.480  16.316  0.1830  0.1217 -0.1017
  474DOPE   C1A 5556   2.270  14.607  16.317 -0.1549 -0.1371  0.0773
  474DOPE   D2A 5557   2.422  14.569  15.853 -0.0213  0.2362 -0.2296
  474DOPE   C3A 5558   2.343  14.843  15.462  0.0191 -0.0365  0.2475
  474DOPE   C4A 5559   2.336  15.222  15.118 -0.1285  0.0263  0.0257
  474DOPE   C1B 5560   1.948  14.462  15.965  0.2237 -0.0374 -0.2942
  474DOPE   D2B 5561   2.004  14.506  15.522 -0.1778 -0.4003 -0.1052
  474DOPE   C3B 5562   2.424  14.382  15.244 -0.1326 -0.1619  0.0238
  474DOPE   C4B 5563   2.663  14.663  15.024 -0.1258 -0.0740 -0.0099
  475DOPE   NH3 5564   1.059  15.178  16.983  0.1854  0.1480  0.0202
  475DOPE   PO4 5565   1.353  15.252  16.926  0.1536 -0.0988  0.1691
  475DOPE   GL1 5566   1.466  15.128  16.623 -0.1833 -0.1361  0.1798
  475DOPE   GL2 5567   1.462  14.870  16.558  0.0953 -0.1993  0.1347
  475DOPE   C1A 5568   1.339  15.394  16.274 -0.3047 -0.3110  0.0826
  475DOPE   D2A 5569   1.281  15.744  15.885  0.2458 -0.0967  0.2604
  475DOPE   C3A 5570   1.671  15.742  15.638  0.0466 -0.1487 -0.1219
  475DOPE   C4A 5571   1.903  15.538  15.294 -0.0208 -0.1447 -0.2122
  475DOPE   C1B 5572   1.746  15.012  16.219 -0.0294 -0.3474 -0.3222
  475DOPE   D2B 5573   1.646  15.335  15.907 -0.1738 -0.2256 -0.1810
  475DOPE   C3B 5574   1.266  15.213  15.641  0.1343  0.0640  0.0666
  475DOPE   C4B 5575   0.990  14.834  15.663  0.0585 -0.2117  0.2852
  476DOPE   NH3 5576   5.252  23.827  17.143 -0.0296  0.1435 -0.2892
  476DOPE   PO4 5577   5.344  23.977  16.860  0.2074 -0.0285  0.1133
  476DOPE   GL1 5578   5.605  23.772  16.649 -0.1219  0.0523 -0.1484
  476DOPE   GL2 5579   5.352  23.544  16.602  0.2907  0.1353 -0.0336
  476DOPE   C1A 5580   5.856  23.676  16.258  0.3393 -0.2833 -0.2414
  476DOPE   D2A 5581   5.889  23.299  15.994 -0.1193  0.2480 -0.4081
  476DOPE   C3A 5582   6.188  23.285  15.654 -0.2818 -0.0029 -0.2353
  476DOPE   C4A 5583   6.580  23.084  15.569  0.3494 -0.1683 -0.3766
  476DOPE   C1B 5584   5.384  23.517  16.111 -0.2857 -0.3002  0.0312
  476DOPE   D2B 5585   5.267  23.220  15.772 -0.3130 -0.1974 -0.0609
  476DOPE   C3B 5586   4.856  23.036  15.829  0.1254 -0.0496 -0.3620
  476DOPE   C4B 5587   4.608  22.921  16.238 -0.0499  0.1487 -0.2645
  477DOPC   NC3 5588   0.375  13.039  16.831  0.1602  0.0345 -0.3421
  477DOPC   PO4 5589   0.168  12.828  17.034  0.1633  0.0355 -0.3524
  477DOPC   GL1 5590   0.029  12.653  16.681 -0.1271 -0.0141  0.2073
  477DOPC   GL2 5591   0.159  12.468  16.475  0.1490 -0.3032  0.1872
  477DOPC   C1A 5592  -0.313  12.769  16.389 -0.4970 -0.1077  0.0456
  477DOPC   D2A 5593  -0.548  12.847  15.970  0.1916 -0.0724  0.1471
  477DOPC   C3A 5594  -0.590  13.137  15.630 -0.0331  0.2138 -0.2622
  477DOPC   C4A 5595  -0.623  13.524  15.384 -0.1406  0.1915 -0.0866
  477DOPC   C1B 5596   0.483  12.153  16.391  0.1025 -0.1022  0.2492
  477DOPC   D2B 5597   0.838  11.900  16.276 -0.2393 -0.0106 -0.2489
  477DOPC   C3B 5598   0.922  11.834  15.793  0.0863  0.1914  0.2039
  477DOPC   C4B 5599   0.757  11.651  15.345 -0.2615  0.0650 -0.2267
  478DOPC   NC3 5600   0.603  18.049  16.764 -0.1108 -0.1094  0.2888
  478DOPC   PO4 5601   0.795  17.705  16.802  0.0262  0.0806  0.0832
  478DOPC   GL1 5602   0.771  17.617  16.472 -0.3295 -0.1277  0.0815
  478DOPC   GL2 5603   0.728  17.805  16.276  0.0739  0.1761  0.1507
  478DOPC   C1A 5604   0.610  17.319  16.202  0.3923  0.1310 -0.0356
  478DOPC   D2A 5605   0.754  17.107  15.863  0.1173 -0.0366  0.2443
  478DOPC   C3A 5606   0.476  17.181  15.509  0.0047  0.2546 -0.1453
  478DOPC   C4A 5607   0.212  17.375  15.158 -0.0421 -0.4602  0.0164
  478DOPC   C1B 5608   0.823  17.597  15.859 -0.0676  0.2291  0.0005
  478DOPC   D2B 5609   0.973  17.577  15.369  0.3280 -0.0643  0.0679
  478DOPC   C3B 5610   0.737  17.507  15.003 -0.3743 -0.0358  0.1434
  478DOPC   C4B 5611   0.588  17.240  14.657 -0.1911 -0.0483  0.0829
  479POSM   NC3 5612   5.164  12.962  17.105 -0.2285  0.0586 -0.2076
  479POSM   PO4 5613   5.483  13.209  17.170 -0.1482  0.0731  0.0410
  479POSM   AM1 5614   5.294  13.366  16.946 -0.0935  0.2090  0.0464
  479POSM   AM2 5615   4.984  13.504  16.919 -0.0868 -0.3103 -0.2041
  479POSM   T1A 5616   5.106  13.501  16.491  0.1154  0.1411  0.0598
  479POSM   C2A 5617   4.784  13.365  16.218  0.0085 -0.2265 -0.2956
  479POSM   C3A 5618   4.711  13.126  15.864  0.1070  0.1748  0.2326
  479POSM   C1B 5619   4.659  13.538  16.725  0.0023 -0.0114 -0.1255
  479POSM   D2B 5620   4.303  13.363  16.450 -0.2535  0.3875 -0.0940
  479POSM   C3B 5621   4.005  13.070  16.480 -0.3422  0.1543 -0.1648
  479POSM   C4B 5622   3.583  12.973  16.262 -0.1023  0.1041 -0.0739
  480DOPC   NC3 5623   2.272  22.521  16.449  0.1087 -0.4172 -0.0868
  480DOPC   PO4 5624   2.528  22.280  16.603  0.0830  0.0030  0.3487
  480DOPC   GL1 5625   2.623  22.254  16.253  0.1061  0.3772 -0.1906
  480DOPC   GL2 5626   2.882  22.181  16.176  0.0094 -0.0009 -0.1287
  480DOPC   C1A 5627   2.669  22.697  16.074 -0.0704  0.0134  0.1329
  480DOPC   D2A 5628   2.560  23.083  15.909  0.3887 -0.1632  0.3299
  480DOPC   C3A 5629   2.634  23.368  15.573 -0.0306  0.1722 -0.0665
  480DOPC   C4A 5630   2.384  23.748  15.387  0.0388 -0.0672  0.0887
  480DOPC   C1B 5631   2.837  22.068  15.766  0.2225  0.0860  0.1948
  480DOPC   D2B 5632   3.004  22.279  15.386  0.1412 -0.1232 -0.1106
  480DOPC   C3B 5633   3.277  22.427  15.035 -0.1816 -0.1528 -0.0795
  480DOPC   C4B 5634   3.260  22.725  14.751 -0.3331  0.0475 -0.0813
  481DOPE   NH3 5635   7.895  13.835  16.061  0.0509  0.2530  0.3155
  481DOPE   PO4 5636   7.968  13.540  16.019  0.1644  0.1698 -0.1508
  481DOPE   GL1 5637   7.744  13.325  15.805 -0.0586  0.0471  0.1108
  481DOPE   GL2 5638   7.511  13.495  15.827 -0.0180 -0.1831 -0.1870
  481DOPE   C1A 5639   7.977  13.216  15.439  0.2776 -0.0419 -0.0750
  481DOPE   D2A 5640   7.796  13.120  14.992 -0.0552 -0.1589 -0.4145
  481DOPE   C3A 5641   7.851  12.983  14.599  0.2552 -0.1891 -0.1974
  481DOPE   C4A 5642   8.035  12.858  14.221  0.2057  0.0342  0.1660
  481DOPE   C1B 5643   7.720  13.783  15.527 -0.0316  0.0192  0.1198
  481DOPE   D2B 5644   7.569  14.007  15.155 -0.1167  0.1127  0.1769
  481DOPE   C3B 5645   7.297  13.883  14.809 -0.2361  0.2041 -0.0194
  481DOPE   C4B 5646   7.309  13.644  14.429 -0.1841  0.0188  0.4001
  482DOPC   NC3 5647   3.218  18.356  17.103 -0.1633 -0.3455  0.0176
  482DOPC   PO4 5648   3.252  18.219  16.743  0.1879 -0.4182  0.0744
  482DOPC   GL1 5649   2.985  18.415  16.503 -0.1976  0.3124 -0.2493
  482DOPC   GL2 5650   3.014  18.673  16.607 -0.0422  0.0142  0.2217
  482DOPC   C1A 5651   2.543  18.369  16.483 -0.1960  0.2427  0.0031
  482DOPC   D2A 5652   2.092  18.320  16.432 -0.3543  0.0643 -0.2967
  482DOPC   C3A 5653   1.842  18.523  16.049  0.3624 -0.0757  0.0936
  482DOPC   C4A 5654   1.802  18.692  15.585 -0.2629  0.2094  0.0805
  482DOPC   C1B 5655   2.802  18.685  16.192  0.0245  0.2532  0.2513
  482DOPC   D2B 5656   2.935  18.805  15.749 -0.3276 -0.3901 -0.1978
  482DOPC   C3B 5657   3.289  19.063  15.542  0.2046 -0.0490  0.0244
  482DOPC   C4B 5658   3.482  19.332  15.209 -0.0219  0.1687  0.1939
  483DOPE   NH3 5659   0.653  20.087  16.983 -0.2477 -0.3533  0.1857
  483DOPE   PO4 5660   0.668  20.380  17.070 -0.1561  0.0824 -0.3581
  483DOPE   GL1 5661   0.608  20.469  16.731  0.5654  0.0602  0.0516
  483DOPE   GL2 5662   0.364  20.636  16.690  0.0585  0.3132 -0.1762
  483DOPE   C1A 5663   0.559  20.267  16.296  0.0257  0.3449  0.0637
  483DOPE   D2A 5664   0.741  20.289  15.886  0.5430 -0.2471 -0.0965
  483DOPE   C3A 5665   0.836  19.985  15.597 -0.1066  0.0550 -0.0608
  483DOPE   C4A 5666   1.188  19.776  15.422  0.0818 -0.2907 -0.1677
  483DOPE   C1B 5667   0.527  20.902  16.375 -0.2458 -0.0240 -0.0555
  483DOPE   D2B 5668   0.704  21.095  16.005 -0.0382  0.2111  0.0502
  483DOPE   C3B 5669   0.393  21.162  15.675  0.1553  0.1489 -0.1281
  483DOPE   C4B 5670   0.171  20.813  15.389  0.0996  0.4328  0.3107
  484DOPE   NH3 5671  10.058  12.359  15.634 -0.0292 -0.3643 -0.0103
  484DOPE   PO4 5672  10.030  12.125  15.435  0.0021  0.0043 -0.0190
  484DOPE   GL1 5673   9.997  12.095  15.133 -0.6430  0.2318  0.0683
  484DOPE   GL2 5674   9.972  12.311  14.869  0.0110 -0.1049 -0.0748
  484DOPE   C1A 5675   9.844  11.774  14.845  0.0208 -0.1536 -0.1310
  484DOPE   D2A 5676   9.567  11.717  14.521  0.1189  0.0907  0.2040
  484DOPE   C3A 5677   9.698  12.033  14.254 -0.1610  0.2507  0.0083
  484DOPE   C4A 5678   9.543  12.461  14.292  0.3805  0.3366 -0.3182
  484DOPE   C1B 5679   9.588  12.218  14.776  0.2112  0.2708 -0.4184
  484DOPE   D2B 5680   9.206  12.470  14.883  0.1359 -0.2804 -0.1504
  484DOPE   C3B 5681   9.029  12.553  14.460  0.3592 -0.1407 -0.2977
  484DOPE   C4B 5682   8.951  12.493  13.986 -0.0838  0.2764  0.2172
  485DOPC   NC3 5683   2.891  14.603  16.778  0.0693  0.2296  0.1354
  485DOPC   PO4 5684   3.232  14.342  16.778  0.2709 -0.1879  0.1489
  485DOPC   GL1 5685   3.045  14.178  16.548 -0.0416  0.0550  0.3273
  485DOPC   GL2 5686   2.849  14.346  16.361  0.3269  0.1113 -0.0798
  485DOPC   C1A 5687   2.995  13.986  16.073  0.0305  0.0875  0.1287
  485DOPC   D2A 5688   3.272  13.819  15.713 -0.1652  0.2818 -0.1301
  485DOPC   C3A 5689   3.309  13.977  15.343 -0.0335  0.1682 -0.0737
  485DOPC   C4A 5690   3.465  14.210  14.952 -0.1071 -0.1286 -0.0370
  485DOPC   C1B 5691   2.780  14.788  16.259  0.1033 -0.0699 -0.0324
  485DOPC   D2B 5692   2.425  15.094  16.043 -0.1198 -0.0667  0.2603
  485DOPC   C3B 5693   2.053  14.984  15.845 -0.2996 -0.1081 -0.0287
  485DOPC   C4B 5694   1.722  15.114  15.494 -0.2737 -0.2817  0.1453
  486DOPC   NC3 5695   4.267  15.632  16.538  0.2183  0.0203  0.0463
  486DOPC   PO4 5696   4.164  15.409  16.232  0.2674  0.0157 -0.0713
  486DOPC   GL1 5697   4.247  15.373  15.894  0.0630  0.0693 -0.0139
  486DOPC   GL2 5698   4.001  15.429  15.774 -0.2915 -0.0066 -0.3471
  486DOPC   C1A 5699   4.348  15.333  15.458  0.2560 -0.3658 -0.1702
  486DOPC   D2A 5700   4.613  15.195  15.085  0.0130  0.1801  0.2251
  486DOPC   C3A 5701   4.598  15.276  14.618  0.1215 -0.0980  0.0446
  486DOPC   C4A 5702   4.436  15.561  14.300  0.1503 -0.0600 -0.1673
  486DOPC   C1B 5703   3.543  15.499  15.717  0.2028 -0.1469 -0.0641
  486DOPC   D2B 5704   3.223  15.324  15.418 -0.2226  0.1098 -0.3206
  486DOPC   C3B 5705   3.333  15.386  14.977 -0.1560 -0.2473  0.2635
  486DOPC   C4B 5706   3.646  15.493  14.696 -0.3767  0.0000 -0.2986
  487DOPC   NC3 5707  11.289  20.397  15.264  0.1562 -0.0813 -0.1134
  487DOPC   PO4 5708  11.671  20.359  15.187 -0.0712  0.2428 -0.0417
  487DOPC   GL1 5709  11.502  20.247  14.860 -0.1868  0.2643  0.0014
  487DOPC   GL2 5710  11.695  20.287  14.637 -0.1344 -0.0400 -0.1781
  487DOPC   C1A 5711  11.190  20.487  14.576  0.2191 -0.2027 -0.3340
  487DOPC   D2A 5712  11.049  20.697  14.124  0.2500  0.1224 -0.0968
  487DOPC   C3A 5713  10.993  20.596  13.695  0.2613 -0.0215 -0.2241
  487DOPC   C4A 5714  11.154  20.425  13.282  0.1272 -0.0924 -0.1475
  487DOPC   C1B 5715  11.559  20.391  14.213  0.2446 -0.3626  0.2280
  487DOPC   D2B 5716  11.527  20.471  13.723  0.3105 -0.0352 -0.1258
  487DOPC   C3B 5717  11.383  20.822  13.521  0.1304  0.4265 -0.0135
  487DOPC   C4B 5718  11.456  21.190  13.252 -0.0460 -0.0282 -0.0032
  488DOPC   NC3 5719  34.279  12.779  16.911  0.0103 -0.1748  0.2768
  488DOPC   PO4 5720  33.953  12.898  17.073 -0.1407 -0.0800 -0.0002
  488DOPC   GL1 5721  33.884  12.858  16.633  0.0415 -0.1925  0.2253
  488DOPC   GL2 5722  33.832  12.589  16.565 -0.0243  0.1174  0.0260
  488DOPC   C1A 5723  33.646  13.174  16.415 -0.4014 -0.1734  0.0363
  488DOPC   D2A 5724  33.807  13.326  16.032 -0.0677 -0.0532 -0.3188
  488DOPC   C3A 5725  33.621  13.032  15.667 -0.1048  0.3193  0.4137
  488DOPC   C4A 5726  33.894  12.680  15.556  0.0612  0.1908  0.0051
  488DOPC   C1B 5727  33.713  12.624  16.088  0.2645 -0.1598  0.0549
  488DOPC   D2B 5728  33.405  12.477  15.755  0.0464 -0.0917 -0.0767
  488DOPC   C3B 5729  33.245  12.782  15.482  0.0245  0.0752  0.1192
  488DOPC   C4B 5730  32.892  12.838  15.192  0.1423  0.2074 -0.1349
  489DOPC   NC3 5731   6.075  15.477  16.250  0.2735  0.2694  0.0822
  489DOPC   PO4 5732   5.836  15.272  16.016  0.0608 -0.0981 -0.0671
  489DOPC   GL1 5733   6.143  15.217  15.840  0.0818 -0.5686  0.0936
  489DOPC   GL2 5734   6.110  14.952  15.710  0.3188 -0.0015  0.0579
  489DOPC   C1A 5735   6.168  15.266  15.392  0.0191  0.2700 -0.1188
  489DOPC   D2A 5736   6.195  15.541  15.035 -0.1766  0.0771 -0.0903
  489DOPC   C3A 5737   6.316  15.299  14.657  0.0388 -0.0132  0.0685
  489DOPC   C4A 5738   6.563  15.242  14.253  0.0471 -0.0526  0.0755
  489DOPC   C1B 5739   5.801  14.675  15.758  0.2243  0.0404  0.1775
  489DOPC   D2B 5740   5.464  14.472  15.461 -0.2773 -0.0297 -0.0172
  489DOPC   C3B 5741   5.474  14.496  14.997 -0.2077  0.0834 -0.2044
  489DOPC   C4B 5742   5.510  14.320  14.580 -0.0573  0.3103 -0.1913
  490DOPE   NH3 5743  10.381  18.283  16.014 -0.0137 -0.2877  0.0167
  490DOPE   PO4 5744  10.303  18.209  15.720 -0.2825  0.0758 -0.1306
  490DOPE   GL1 5745  10.067  18.248  15.371  0.0163  0.0133  0.0083
  490DOPE   GL2 5746   9.926  18.423  15.479  0.1992 -0.4097  0.1739
  490DOPE   C1A 5747  10.090  18.460  14.986 -0.1657  0.3668  0.5384
  490DOPE   D2A 5748  10.197  18.849  14.728 -0.2216 -0.0405  0.2218
  490DOPE   C3A 5749  10.326  19.138  14.366  0.0010  0.0617 -0.2240
  490DOPE   C4A 5750  10.129  19.550  14.224  0.0826 -0.0352 -0.0666
  490DOPE   C1B 5751   9.534  18.632  15.452 -0.0075 -0.0051  0.1044
  490DOPE   D2B 5752   9.233  18.352  15.626 -0.2028 -0.1324  0.2139
  490DOPE   C3B 5753   9.127  18.025  15.334  0.0742 -0.1091  0.1241
  490DOPE   C4B 5754   9.065  17.749  14.993 -0.0682 -0.1628  0.0145
  491DOPE   NH3 5755   8.769  17.269  16.037 -0.2636 -0.0110 -0.1171
  491DOPE   PO4 5756   8.459  17.308  16.075 -0.2711 -0.0248 -0.1006
  491DOPE   GL1 5757   8.485  17.622  15.726  0.1339 -0.4140  0.2799
  491DOPE   GL2 5758   8.375  17.938  15.781  0.1204  0.0964  0.2661
  491DOPE   C1A 5759   8.796  17.667  15.386 -0.0752  0.0216  0.1339
  491DOPE   D2A 5760   9.095  17.268  15.322 -0.0575  0.0413 -0.0782
  491DOPE   C3A 5761   9.323  17.198  14.873 -0.0779  0.0300  0.0154
  491DOPE   C4A 5762   9.546  17.153  14.432 -0.3891  0.2132 -0.0509
  491DOPE   C1B 5763   8.355  18.072  15.338 -0.1190 -0.0073  0.3373
  491DOPE   D2B 5764   8.691  18.122  15.001  0.2526  0.2902 -0.1936
  491DOPE   C3B 5765   8.846  18.368  14.682  0.1359 -0.1740 -0.2232
  491DOPE   C4B 5766   8.688  18.748  14.419  0.1066  0.1872  0.0753
  492POSM   NC3 5767   4.870  18.902  16.137  0.2806  0.0006  0.0426
  492POSM   PO4 5768   4.852  19.224  16.368 -0.0672 -0.0168  0.0345
  492POSM   AM1 5769   4.973  19.374  16.127 -0.1855  0.2667  0.3288
  492POSM   AM2 5770   5.024  19.639  16.059 -0.4122  0.0362 -0.0154
  492POSM   T1A 5771   5.242  19.296  15.713  0.0334 -0.0910 -0.1090
  492POSM   C2A 5772   5.456  19.473  15.368  0.1926 -0.0174 -0.4477
  492POSM   C3A 5773   5.740  19.731  15.127  0.2956  0.0385 -0.0309
  492POSM   C1B 5774   4.904  19.660  15.703 -0.0231 -0.1789 -0.1090
  492POSM   D2B 5775   4.991  19.597  15.259  0.0478  0.2711  0.2596
  492POSM   C3B 5776   4.869  19.495  14.838  0.0210 -0.1623  0.0578
  492POSM   C4B 5777   5.017  19.608  14.381  0.0767  0.0024  0.0886
  493DOPC   NC3 5778   7.433  11.504  16.247 -0.0952  0.0358  0.0600
  493DOPC   PO4 5779   7.482  11.482  15.867 -0.0846  0.2420  0.0252
  493DOPC   GL1 5780   7.544  11.618  15.459 -0.2410  0.1534 -0.2198
  493DOPC   GL2 5781   7.357  11.645  15.349  0.1368 -0.0426 -0.3178
  493DOPC   C1A 5782   7.936  11.555  15.264  0.0040 -0.2644 -0.1849
  493DOPC   D2A 5783   8.316  11.833  15.208 -0.0628  0.0660  0.3668
  493DOPC   C3A 5784   8.315  12.313  15.188 -0.0424  0.2320 -0.1178
  493DOPC   C4A 5785   8.248  12.828  15.145  0.3168  0.0677  0.1447
  493DOPC   C1B 5786   7.528  11.912  14.992  0.0282  0.1563 -0.0126
  493DOPC   D2B 5787   7.390  12.199  14.677 -0.1147 -0.0747 -0.3206
  493DOPC   C3B 5788   7.511  12.592  14.480  0.3080  0.3225  0.2614
  493DOPC   C4B 5789   7.707  12.549  14.068  0.3132  0.0293  0.0972
  494POSM   NC3 5790   3.306  13.507  17.402 -0.1483  0.0486 -0.0335
  494POSM   PO4 5791   3.671  13.431  17.309 -0.0475 -0.0625  0.0890
  494POSM   AM1 5792   3.538  13.456  17.003  0.0704 -0.0804 -0.2301
  494POSM   AM2 5793   3.313  13.368  16.899  0.3287 -0.0936 -0.1564
  494POSM   T1A 5794   3.581  13.408  16.463 -0.1376  0.0650 -0.0004
  494POSM   C2A 5795   3.900  13.578  16.117  0.1362 -0.1008  0.0725
  494POSM   C3A 5796   4.015  13.548  15.686  0.1431  0.2904 -0.0417
  494POSM   C1B 5797   3.158  13.210  16.631 -0.2231 -0.2471 -0.0458
  494POSM   D2B 5798   3.078  13.017  16.143 -0.3396  0.0589  0.1389
  494POSM   C3B 5799   2.957  12.706  15.829  0.2830 -0.1464 -0.0987
  494POSM   C4B 5800   2.974  12.511  15.454  0.1247 -0.3828 -0.0699
  495POSM   NC3 5801   1.308  22.647  17.293  0.0025  0.1356  0.0224
  495POSM   PO4 5802   1.292  22.239  17.172 -0.0299 -0.2052 -0.0469
  495POSM   AM1 5803   1.141  22.254  16.886 -0.0092  0.2161 -0.0703
  495POSM   AM2 5804   0.964  22.096  16.756  0.2662 -0.2061 -0.0249
  495POSM   T1A 5805   0.823  22.537  16.676  0.2373  0.3439 -0.1517
  495POSM   C2A 5806   0.576  22.868  16.684 -0.2324  0.2278 -0.1707
  495POSM   C3A 5807   0.128  22.990  16.771  0.0954 -0.0641 -0.0173
  495POSM   C1B 5808   0.746  22.032  16.566 -0.0996 -0.1025 -0.2033
  495POSM   D2B 5809   0.522  21.966  16.161  0.1497 -0.0177  0.2579
  495POSM   C3B 5810   0.552  22.110  15.749 -0.2305  0.0076 -0.1346
  495POSM   C4B 5811   0.368  22.076  15.298 -0.1395 -0.0816 -0.5039
  496DOPS   CNO 5812   4.944  17.983  16.218 -0.0805  0.0884  0.1126
  496DOPS   PO4 5813   4.739  18.100  15.922 -0.2537 -0.3466 -0.2729
  496DOPS   GL1 5814   4.893  18.189  15.530  0.4088 -0.1034 -0.1141
  496DOPS   GL2 5815   4.890  17.916  15.405 -0.0496 -0.2269 -0.0852
  496DOPS   C1A 5816   5.179  18.487  15.374 -0.3429 -0.0687  0.0022
  496DOPS   D2A 5817   5.518  18.687  15.120  0.1646 -0.2421 -0.0914
  496DOPS   C3A 5818   5.301  18.564  14.756 -0.1373 -0.4318 -0.2440
  496DOPS   C4A 5819   5.386  18.715  14.278  0.2247  0.4874  0.2649
  496DOPS   C1B 5820   5.060  18.082  14.964  0.2554  0.4537  0.0749
  496DOPS   D2B 5821   5.035  18.254  14.522 -0.0502  0.2116  0.3325
  496DOPS   C3B 5822   4.880  18.682  14.354 -0.1047  0.4341 -0.2277
  496DOPS   C4B 5823   4.661  18.733  13.935  0.0625  0.2055  0.0321
  497DOPC   NC3 5824   2.593  20.495  16.894  0.1745 -0.0066  0.5386
  497DOPC   PO4 5825   2.624  20.428  16.476 -0.0926 -0.1873  0.3042
  497DOPC   GL1 5826   2.668  20.444  16.045 -0.4020  0.2530 -0.1595
  497DOPC   GL2 5827   2.950  20.546  16.033  0.1457  0.0904 -0.1736
  497DOPC   C1A 5828   2.395  20.759  15.795 -0.2414 -0.0794  0.1378
  497DOPC   D2A 5829   2.411  21.218  15.655  0.2046 -0.0822 -0.0556
  497DOPC   C3A 5830   2.360  21.396  15.273  0.0032  0.0322 -0.1967
  497DOPC   C4A 5831   2.495  21.334  14.880  0.3950  0.1423  0.1164
  497DOPC   C1B 5832   2.751  20.477  15.609  0.4446  0.4254  0.0413
  497DOPC   D2B 5833   2.353  20.482  15.389  0.0117 -0.1442 -0.1930
  497DOPC   C3B 5834   2.173  20.225  15.053 -0.1590  0.2712 -0.0612
  497DOPC   C4B 5835   2.008  20.028  14.682  0.1262  0.0294 -0.0908
  498DOPE   NH3 5836   3.819  19.021  16.411  0.1497  0.2412  0.1115
  498DOPE   PO4 5837   3.974  19.312  16.301  0.2227 -0.1846 -0.1035
  498DOPE   GL1 5838   3.704  19.435  15.989 -0.1406  0.0923 -0.0778
  498DOPE   GL2 5839   3.532  19.215  15.994 -0.0990  0.3448 -0.5039
  498DOPE   C1A 5840   3.454  19.517  15.621  0.0484  0.0929  0.1569
  498DOPE   D2A 5841   3.114  19.823  15.533 -0.0482  0.0422  0.0307
  498DOPE   C3A 5842   3.124  19.874  15.159 -0.1516  0.1607 -0.0478
  498DOPE   C4A 5843   3.045  19.587  14.808 -0.2226  0.0825 -0.0591
  498DOPE   C1B 5844   3.784  19.158  15.583 -0.0733  0.0168 -0.3907
  498DOPE   D2B 5845   4.271  19.128  15.459  0.0510  0.0205 -0.1602
  498DOPE   C3B 5846   4.324  18.861  15.122  0.0336 -0.0950  0.3292
  498DOPE   C4B 5847   4.687  18.591  15.175 -0.2463  0.0075  0.2633
  499DOPE   NH3 5848   5.366  13.029  16.607  0.2429 -0.1135  0.0692
  499DOPE   PO4 5849   5.523  12.800  16.429 -0.0075  0.0502 -0.0721
  499DOPE   GL1 5850   5.265  12.885  16.197 -0.0994 -0.3104  0.2662
  499DOPE   GL2 5851   5.209  13.126  16.150  0.2531  0.2597  0.2930
  499DOPE   C1A 5852   5.055  12.752  15.806 -0.2035  0.0671  0.0800
  499DOPE   D2A 5853   5.169  12.897  15.346 -0.0806  0.3086  0.0383
  499DOPE   C3A 5854   4.934  13.252  15.140 -0.1641 -0.1936  0.0265
  499DOPE   C4A 5855   4.911  13.713  15.080 -0.0073  0.1347  0.0587
  499DOPE   C1B 5856   5.129  13.308  15.677 -0.0381  0.3348 -0.1083
  499DOPE   D2B 5857   5.248  13.624  15.468  0.0849  0.1391  0.0581
  499DOPE   C3B 5858   5.512  13.558  15.038  0.0473  0.0256 -0.0344
  499DOPE   C4B 5859   5.939  13.508  14.954  0.0592 -0.0068 -0.0661
  500DOPC   NC3 5860   6.406  14.915  16.110  0.1462  0.0590  0.2133
  500DOPC   PO4 5861   6.486  15.171  16.341 -0.1050  0.1695  0.0477
  500DOPC   GL1 5862   6.578  15.327  15.966  0.1009  0.0978 -0.0457
  500DOPC   GL2 5863   6.500  15.600  16.009  0.2300  0.0635  0.4462
  500DOPC   C1A 5864   6.644  15.095  15.549  0.2099 -0.1547 -0.4107
  500DOPC   D2A 5865   6.868  14.674  15.382  0.0551 -0.2393  0.0383
  500DOPC   C3A 5866   6.603  14.523  14.982 -0.1500  0.2718 -0.0587
  500DOPC   C4A 5867   6.165  14.446  14.821 -0.0134  0.1204 -0.0741
  500DOPC   C1B 5868   6.581  15.924  15.621 -0.0735  0.0537 -0.0087
  500DOPC   D2B 5869   6.416  16.314  15.404  0.4674 -0.1732 -0.1118
  500DOPC   C3B 5870   6.406  15.987  15.070 -0.2466  0.0990  0.1834
  500DOPC   C4B 5871   6.216  15.896  14.702 -0.0905  0.0462  0.2593
  501POSM   NC3 5872   7.425  20.182  16.327 -0.4180 -0.0596 -0.2688
  501POSM   PO4 5873   7.805  20.239  16.321  0.1705 -0.2829 -0.0988
  501POSM   AM1 5874   7.732  20.203  15.998 -0.2730  0.5781 -0.0671
  501POSM   AM2 5875   7.670  19.976  15.762  0.1045 -0.2668  0.0331
  501POSM   T1A 5876   7.280  20.323  15.737  0.3866 -0.1567  0.2883
  501POSM   C2A 5877   7.207  20.144  15.319  0.0008  0.0655  0.1236
  501POSM   C3A 5878   7.236  19.891  14.933  0.0837  0.0082 -0.3419
  501POSM   C1B 5879   7.660  19.852  15.484  0.0257 -0.4289  0.0405
  501POSM   D2B 5880   7.687  19.608  15.122  0.0229 -0.1242 -0.0785
  501POSM   C3B 5881   7.451  19.387  14.799 -0.2198 -0.2080 -0.1411
  501POSM   C4B 5882   7.209  19.283  14.445  0.0281  0.2302 -0.1837
  502POSM   NC3 5883   3.015  21.702  16.331  0.1630 -0.7656  0.3829
  502POSM   PO4 5884   2.655  21.758  16.395  0.1114 -0.1396 -0.0836
  502POSM   AM1 5885   2.580  21.841  16.094 -0.3780 -0.2245 -0.0631
  502POSM   AM2 5886   2.455  21.736  15.825 -0.2974 -0.4145  0.0596
  502POSM   T1A 5887   2.382  22.261  15.881  0.1363  0.1220 -0.1491
  502POSM   C2A 5888   2.281  22.686  15.736  0.0146  0.1333  0.1828
  502POSM   C3A 5889   2.227  23.043  15.517 -0.2180  0.0674 -0.3273
  502POSM   C1B 5890   2.152  21.652  15.668 -0.3327  0.1118 -0.0382
  502POSM   D2B 5891   1.836  21.582  15.408  0.4699  0.2123 -0.1368
  502POSM   C3B 5892   1.972  21.488  14.951  0.1181  0.0907  0.0722
  502POSM   C4B 5893   2.078  21.143  14.666  0.1242 -0.0581 -0.0395
  503DOPC   NC3 5894   9.129  21.649  15.650 -0.1152  0.1325  0.0430
  503DOPC   PO4 5895   9.362  21.365  15.532  0.1138  0.2563 -0.0999
  503DOPC   GL1 5896   9.186  21.312  15.277  0.1453  0.0079  0.1305
  503DOPC   GL2 5897   8.905  21.434  15.315 -0.1674  0.0953  0.3135
  503DOPC   C1A 5898   9.254  21.361  14.828  0.2687 -0.1677  0.0762
  503DOPC   D2A 5899   9.229  21.055  14.512  0.0724 -0.0178  0.0042
  503DOPC   C3A 5900   9.056  21.101  14.116  0.1563  0.1118  0.3148
  503DOPC   C4A 5901   8.897  21.044  13.688  0.0265  0.0081 -0.0171
  503DOPC   C1B 5902   8.523  21.624  15.129 -0.0793  0.2133  0.0681
  503DOPC   D2B 5903   8.344  21.716  14.725  0.4244 -0.1253  0.3033
  503DOPC   C3B 5904   7.991  21.428  14.621 -0.0893  0.2855  0.0175
  503DOPC   C4B 5905   7.862  20.993  14.599 -0.2360 -0.1391 -0.3100
  504DOPS   CNO 5906   4.138  17.270  16.085 -0.4252  0.1770 -0.0063
  504DOPS   PO4 5907   4.022  17.568  15.895  0.1763 -0.1593  0.4861
  504DOPS   GL1 5908   4.151  17.570  15.514  0.1922  0.6653 -0.0021
  504DOPS   GL2 5909   4.023  17.866  15.453 -0.1083  0.3900 -0.1180
  504DOPS   C1A 5910   4.370  17.774  15.130  0.2045 -0.1418  0.0803
  504DOPS   D2A 5911   4.382  18.199  14.900 -0.1157 -0.2462 -0.3556
  504DOPS   C3A 5912   4.164  18.291  14.495 -0.0198  0.1702 -0.2215
  504DOPS   C4A 5913   4.215  18.598  14.154 -0.0297 -0.1479 -0.0234
  504DOPS   C1B 5914   3.897  17.557  15.136  0.1014 -0.1876 -0.0464
  504DOPS   D2B 5915   3.759  17.504  14.650 -0.0587 -0.4414 -0.0485
  504DOPS   C3B 5916   3.332  17.423  14.525  0.3775 -0.5206  0.1977
  504DOPS   C4B 5917   3.048  17.059  14.422 -0.2337  0.0241 -0.2668
  505DOPE   NH3 5918  10.491  16.536  15.421 -0.0066 -0.2490  0.1476
  505DOPE   PO4 5919  10.428  16.211  15.381 -0.1419  0.2139 -0.1400
  505DOPE   GL1 5920  10.288  16.253  15.062 -0.2552 -0.1250  0.1216
  505DOPE   GL2 5921  10.301  16.544  14.913  0.0303  0.0064 -0.1506
  505DOPE   C1A 5922  10.282  15.994  14.658  0.0808 -0.2825  0.0173
  505DOPE   D2A 5923  10.307  16.094  14.199  0.1298 -0.1917  0.3936
  505DOPE   C3A 5924   9.981  15.955  13.842 -0.0446  0.2927  0.1486
  505DOPE   C4A 5925   9.584  15.933  13.698  0.3416  0.1069  0.0136
  505DOPE   C1B 5926  10.115  16.523  14.447 -0.2227 -0.1878  0.0835
  505DOPE   D2B 5927   9.866  16.534  14.069 -0.3427 -0.1371 -0.1269
  505DOPE   C3B 5928   9.647  16.880  14.034 -0.0299 -0.0277  0.0293
  505DOPE   C4B 5929   9.395  17.303  13.953  0.0373  0.0453 -0.2234
  506DOPS   CNO 5930   4.506  20.803  16.931 -0.2645  0.0619  0.1318
  506DOPS   PO4 5931   4.770  20.639  16.674  0.1315  0.2589  0.1426
  506DOPS   GL1 5932   4.598  20.678  16.337  0.5322 -0.0715  0.0111
  506DOPS   GL2 5933   4.739  20.561  16.125  0.1718  0.2365  0.0662
  506DOPS   C1A 5934   4.794  21.031  16.056 -0.0148  0.3104 -0.2142
  506DOPS   D2A 5935   5.078  21.096  15.722  0.0266  0.2218 -0.3371
  506DOPS   C3A 5936   4.831  21.256  15.424  0.4157  0.0189 -0.4511
  506DOPS   C4A 5937   4.504  21.272  15.093 -0.2669 -0.5836 -0.0801
  506DOPS   C1B 5938   4.800  20.556  15.705 -0.4114 -0.1709 -0.3275
  506DOPS   D2B 5939   4.791  20.347  15.296 -0.0739  0.2371 -0.0836
  506DOPS   C3B 5940   4.647  20.009  15.009 -0.1114 -0.2665 -0.0506
  506DOPS   C4B 5941   4.434  19.739  14.743  0.5370  0.0245 -0.0572
  507DOPS   CNO 5942   1.608  13.237  16.872  0.1568 -0.1306 -0.0373
  507DOPS   PO4 5943   1.723  13.097  17.181 -0.2799 -0.1085  0.0059
  507DOPS   GL1 5944   1.692  12.752  16.926 -0.3466 -0.2336 -0.1128
  507DOPS   GL2 5945   1.873  12.794  16.699  0.1366  0.0762 -0.6003
  507DOPS   C1A 5946   1.305  12.681  16.597  0.1366 -0.2176  0.0483
  507DOPS   D2A 5947   0.957  12.469  16.397  0.1616 -0.0585 -0.3381
  507DOPS   C3A 5948   0.991  12.444  15.973 -0.3550  0.2824 -0.1825
  507DOPS   C4A 5949   1.113  12.615  15.581  0.5089  0.0436 -0.3118
  507DOPS   C1B 5950   2.001  12.808  16.251  0.0218 -0.2116  0.0122
  507DOPS   D2B 5951   1.982  12.544  15.823  0.0300 -0.1086 -0.1594
  507DOPS   C3B 5952   2.276  12.721  15.478 -0.3036 -0.1069 -0.1440
  507DOPS   C4B 5953   2.570  12.596  15.179 -0.3837  0.1260  0.0642
  508POSM   NC3 5954   2.396  18.698  17.255  0.1055  0.0211  0.3635
  508POSM   PO4 5955   2.262  19.061  17.258 -0.1327 -0.1496  0.0901
  508POSM   AM1 5956   2.209  19.137  16.974 -0.0961 -0.1457  0.1683
  508POSM   AM2 5957   2.040  19.213  16.777 -0.2704  0.1462 -0.1771
  508POSM   T1A 5958   2.412  19.317  16.535 -0.1134  0.1971  0.0690
  508POSM   C2A 5959   2.253  19.336  16.131 -0.2360  0.0783 -0.0340
  508POSM   C3A 5960   2.423  19.556  15.711  0.2478  0.0759  0.0221
  508POSM   C1B 5961   1.959  19.130  16.484 -0.0512 -0.0400  0.0785
  508POSM   D2B 5962   1.799  19.026  16.035  0.0286  0.6250 -0.0335
  508POSM   C3B 5963   1.999  19.228  15.644  0.0113  0.3827  0.1398
  508POSM   C4B 5964   1.682  19.315  15.291  0.0806  0.1508  0.0130
  509POSM   NC3 5965   8.097  16.994  16.080  0.3085 -0.0210  0.3464
  509POSM   PO4 5966   7.818  17.298  16.114 -0.1466 -0.0720  0.0805
  509POSM   AM1 5967   7.693  17.517  15.870  0.0722 -0.6644 -0.0646
  509POSM   AM2 5968   7.855  17.709  15.706  0.0479 -0.0256 -0.1382
  509POSM   T1A 5969   7.363  17.637  15.478  0.3985 -0.0672 -0.0907
  509POSM   C2A 5970   7.222  17.965  15.215  0.2447  0.2444  0.1305
  509POSM   C3A 5971   6.867  17.978  14.910 -0.1266 -0.0554  0.1684
  509POSM   C1B 5972   7.874  17.599  15.409 -0.3418 -0.1240  0.0080
  509POSM   D2B 5973   7.659  17.501  14.989  0.2925  0.3947 -0.1033
  509POSM   C3B 5974   7.515  17.798  14.682 -0.2425 -0.0204 -0.3153
  509POSM   C4B 5975   7.821  18.025  14.459  0.1214  0.0771 -0.0585
  510DOPC   NC3 5976   2.798  13.163  17.158 -0.4664 -0.0611 -0.0414
  510DOPC   PO4 5977   2.506  13.274  16.950 -0.1293  0.2871 -0.2463
  510DOPC   GL1 5978   2.675  13.103  16.674  0.1291  0.6625  0.1984
  510DOPC   GL2 5979   2.731  13.350  16.475 -0.0783 -0.3581 -0.2044
  510DOPC   C1A 5980   2.371  13.109  16.320  0.0815  0.0091  0.1744
  510DOPC   D2A 5981   2.254  13.507  16.018  0.1544  0.3474  0.0086
  510DOPC   C3A 5982   2.321  13.409  15.595 -0.3040 -0.3193  0.2421
  510DOPC   C4A 5983   2.459  13.244  15.215 -0.0063 -0.3331 -0.2295
  510DOPC   C1B 5984   2.780  13.412  15.992 -0.2986  0.1432  0.2042
  510DOPC   D2B 5985   2.831  13.616  15.593 -0.1340 -0.0574  0.0046
  510DOPC   C3B 5986   2.855  14.067  15.514  0.1948 -0.3920  0.1717
  510DOPC   C4B 5987   2.840  14.157  15.076  0.0719 -0.0416  0.0967
  511POSM   NC3 5988   5.707  22.631  17.232  0.1810 -0.2444  0.0566
  511POSM   PO4 5989   5.582  22.288  17.310  0.0119  0.1993 -0.0425
  511POSM   AM1 5990   5.704  22.154  17.045  0.2936  0.0626  0.0189
  511POSM   AM2 5991   5.600  22.121  16.782  0.2267  0.1256 -0.1636
  511POSM   T1A 5992   6.005  21.858  16.692 -0.1949 -0.2789  0.1863
  511POSM   C2A 5993   6.011  21.483  16.437  0.3336 -0.0304  0.1269
  511POSM   C3A 5994   5.931  21.461  15.977  0.4119  0.2292  0.2112
  511POSM   C1B 5995   5.756  22.227  16.510 -0.0229  0.0207  0.0783
  511POSM   D2B 5996   5.596  22.373  16.117  0.3095  0.0402  0.0150
  511POSM   C3B 5997   5.694  22.029  15.895  0.6350  0.1043 -0.4310
  511POSM   C4B 5998   5.672  21.735  15.559  0.0761  0.0508 -0.3055
  512DOPC   NC3 5999   6.360  18.517  16.114 -0.2257  0.3101 -0.1499
  512DOPC   PO4 6000   6.256  18.200  16.291 -0.2098  0.1401 -0.0778
  512DOPC   GL1 6001   6.298  17.990  15.991  0.0658  0.2659  0.1511
  512DOPC   GL2 6002   6.518  18.132  15.809  0.1182 -0.1522 -0.2167
  512DOPC   C1A 6003   6.110  18.187  15.589  0.0174  0.2095 -0.3567
  512DOPC   D2A 6004   5.938  17.954  15.227 -0.1051 -0.0330 -0.2464
  512DOPC   C3A 6005   5.763  18.222  14.889  0.1943 -0.0764 -0.0373
  512DOPC   C4A 6006   5.677  18.383  14.466 -0.2192  0.0604 -0.0973
  512DOPC   C1B 6007   6.923  18.232  15.664  0.3475  0.0949  0.1853
  512DOPC   D2B 6008   7.212  18.549  15.439  0.2534  0.1362  0.0905
  512DOPC   C3B 6009   7.469  18.368  15.091 -0.0958 -0.0946  0.2903
  512DOPC   C4B 6010   7.761  18.391  14.762 -0.0838  0.1219  0.3080
  513POSM   NC3 6011   6.214  17.558  16.192 -0.0657  0.2747  0.1874
  513POSM   PO4 6012   6.567  17.499  16.233 -0.0562  0.1810 -0.1013
  513POSM   AM1 6013   6.626  17.439  15.908  0.0585 -0.3329  0.0928
  513POSM   AM2 6014   6.517  17.211  15.743  0.1215  0.1851 -0.1084
  513POSM   T1A 6015   6.988  17.254  15.632 -0.2784 -0.1108  0.0954
  513POSM   C2A 6016   7.129  17.154  15.224 -0.0207  0.2611  0.0299
  513POSM   C3A 6017   7.386  16.960  14.872  0.1402 -0.0616  0.3688
  513POSM   C1B 6018   6.462  17.307  15.472  0.1859  0.1871 -0.0113
  513POSM   D2B 6019   6.284  17.552  15.092 -0.0436 -0.1285 -0.1083
  513POSM   C3B 6020   6.252  17.388  14.632 -0.4158  0.1034  0.1126
  513POSM   C4B 6021   5.850  17.194  14.414  0.3388 -0.0760  0.0358
  514POSM   NC3 6022   7.599  12.477  16.081  0.0919 -0.0803  0.1438
  514POSM   PO4 6023   7.870  12.707  16.215 -0.1377 -0.0890  0.1799
  514POSM   AM1 6024   7.992  12.618  15.902  0.1841  0.2670  0.0433
  514POSM   AM2 6025   7.880  12.434  15.674  0.2273 -0.2501 -0.2014
  514POSM   T1A 6026   8.393  12.614  15.590 -0.0290  0.0956  0.0531
  514POSM   C2A 6027   8.796  12.543  15.337 -0.0262 -0.0707  0.1529
  514POSM   C3A 6028   9.177  12.286  15.349  0.0248 -0.2369 -0.0621
  514POSM   C1B 6029   7.872  12.568  15.345  0.4681  0.1093  0.1398
  514POSM   D2B 6030   7.808  12.571  14.843  0.0550  0.2934  0.0733
  514POSM   C3B 6031   8.189  12.557  14.592 -0.1326  0.3415  0.1180
  514POSM   C4B 6032   8.528  12.693  14.349 -0.1069  0.3176 -0.3122
  515DOPC   NC3 6033   1.447  14.296  16.757  0.1147  0.2000  0.3979
  515DOPC   PO4 6034   1.136  14.187  16.938  0.0782  0.0801  0.2108
  515DOPC   GL1 6035   1.137  13.952  16.652  0.1250 -0.0459 -0.1291
  515DOPC   GL2 6036   0.848  13.883  16.611  0.2107 -0.2925  0.1051
  515DOPC   C1A 6037   1.301  14.026  16.252  0.0551  0.1345  0.1639
  515DOPC   D2A 6038   1.446  14.101  15.799 -0.0004  0.0886  0.0054
  515DOPC   C3A 6039   1.444  14.279  15.400  0.1613 -0.4923  0.0738
  515DOPC   C4A 6040   1.428  14.185  14.939 -0.1066 -0.0920  0.0929
  515DOPC   C1B 6041   0.811  14.169  16.200 -0.2872  0.1013 -0.1434
  515DOPC   D2B 6042   1.031  14.428  15.952  0.0298 -0.3619 -0.0370
  515DOPC   C3B 6043   0.941  14.304  15.505  0.1199  0.0045 -0.4157
  515DOPC   C4B 6044   0.929  14.025  15.169  0.0183  0.1830  0.1531
  516DOPE   NH3 6045   2.119  13.396  17.233  0.1374  0.3243  0.1571
  516DOPE   PO4 6046   1.882  13.586  17.147  0.2828  0.4770  0.3564
  516DOPE   GL1 6047   1.959  13.566  16.809 -0.1439 -0.0980  0.2806
  516DOPE   GL2 6048   2.104  13.319  16.683 -0.2830  0.1545 -0.1169
  516DOPE   C1A 6049   2.307  13.768  16.464 -0.0891  0.2390  0.1145
  516DOPE   D2A 6050   2.351  14.059  16.168 -0.1345  0.0330  0.0389
  516DOPE   C3A 6051   2.462  13.860  15.703 -0.0624 -0.3829  0.3869
  516DOPE   C4A 6052   2.331  13.809  15.244 -0.3649  0.1330 -0.2037
  516DOPE   C1B 6053   1.799  13.254  16.328 -0.0214 -0.0071 -0.0889
  516DOPE   D2B 6054   1.762  13.471  15.921 -0.0539 -0.0886  0.1313
  516DOPE   C3B 6055   1.521  13.629  15.540  0.1694  0.0692 -0.3495
  516DOPE   C4B 6056   1.368  13.693  15.138  0.0014 -0.2574 -0.0165
  517DOPC   NC3 6057   0.617  16.049  16.981  0.1803  0.1324  0.1447
  517DOPC   PO4 6058   0.852  15.769  17.093 -0.2953  0.0542  0.0012
  517DOPC   GL1 6059   0.869  15.684  16.676  0.0452 -0.0231 -0.1068
  517DOPC   GL2 6060   0.929  15.405  16.586 -0.1025  0.2751  0.0409
  517DOPC   C1A 6061   0.775  16.067  16.326 -0.2094 -0.0854 -0.0827
  517DOPC   D2A 6062   0.604  16.132  15.929 -0.1722 -0.2584 -0.1038
  517DOPC   C3A 6063   0.742  16.161  15.507  0.0740  0.0027  0.2375
  517DOPC   C4A 6064   0.818  16.009  15.111  0.2178 -0.1284  0.3612
  517DOPC   C1B 6065   0.869  15.493  16.107 -0.2068 -0.2416 -0.2526
  517DOPC   D2B 6066   0.838  15.730  15.695  0.0980 -0.0902 -0.1385
  517DOPC   C3B 6067   1.203  15.747  15.389  0.1305 -0.1429 -0.0587
  517DOPC   C4B 6068   1.567  15.990  15.222 -0.0310  0.2297 -0.3984
  518POSM   NC3 6069  10.159  19.370  15.773  0.1273 -0.0015  0.1787
  518POSM   PO4 6070  10.467  19.112  15.785 -0.0437  0.1824 -0.1089
  518POSM   AM1 6071  10.388  19.034  15.486  0.0139  0.2723 -0.0280
  518POSM   AM2 6072  10.112  18.963  15.390  0.2479  0.0159 -0.1067
  518POSM   T1A 6073  10.586  18.919  15.027 -0.0308  0.1399  0.0862
  518POSM   C2A 6074  10.791  18.939  14.567 -0.2463  0.0332 -0.2006
  518POSM   C3A 6075  10.759  19.128  14.132 -0.1187  0.0897  0.0662
  518POSM   C1B 6076   9.897  18.878  15.167 -0.3751  0.0988 -0.2642
  518POSM   D2B 6077   9.578  18.795  14.860 -0.0000  0.2088 -0.2123
  518POSM   C3B 6078   9.253  18.505  15.066  0.2146 -0.1936  0.1176
  518POSM   C4B 6079   8.949  18.663  15.368 -0.2470  0.4676 -0.0098
  519POSM   NC3 6080   0.967  21.828  17.183 -0.2452 -0.2965  0.0586
  519POSM   PO4 6081   1.237  21.698  16.911 -0.1503 -0.2441  0.2264
  519POSM   AM1 6082   1.218  21.724  16.573 -0.4384  0.1474  0.0012
  519POSM   AM2 6083   1.410  21.759  16.341  0.0328 -0.1734 -0.2476
  519POSM   T1A 6084   0.909  21.549  16.213  0.2258  0.0021 -0.0666
  519POSM   C2A 6085   0.849  21.604  15.782 -0.3373  0.4092 -0.0484
  519POSM   C3A 6086   0.637  21.538  15.364  0.1533  0.0988 -0.2818
  519POSM   C1B 6087   1.357  21.718  15.995 -0.0186 -0.3005  0.2514
  519POSM   D2B 6088   1.250  21.608  15.527 -0.0234  0.1114  0.1254
  519POSM   C3B 6089   1.400  21.591  15.043 -0.0166  0.0714  0.1303
  519POSM   C4B 6090   1.619  21.467  14.617  0.2104  0.1981  0.1377
  520POSM   NC3 6091   3.020  17.270  16.434 -0.0384  0.0068  0.2059
  520POSM   PO4 6092   2.730  17.507  16.535 -0.0787  0.1416  0.1320
  520POSM   AM1 6093   2.613  17.521  16.236  0.1422 -0.0524  0.1418
  520POSM   AM2 6094   2.717  17.750  16.095 -0.3026 -0.2214  0.3923
  520POSM   T1A 6095   2.643  17.285  15.785 -0.0403  0.1284 -0.0571
  520POSM   C2A 6096   2.762  16.847  15.640 -0.0420 -0.1333  0.0311
  520POSM   C3A 6097   2.986  16.848  15.264  0.1736  0.2394  0.0424
  520POSM   C1B 6098   2.476  17.949  16.038  0.0031 -0.2163  0.1068
  520POSM   D2B 6099   2.001  18.030  16.076  0.2138 -0.0161 -0.3747
  520POSM   C3B 6100   1.652  18.145  15.824 -0.0868  0.0071 -0.6458
  520POSM   C4B 6101   1.639  18.237  15.365  0.2295 -0.0141 -0.1182
  521POSM   NC3 6102   3.553  21.655  16.446  0.4943 -0.1584  0.1139
  521POSM   PO4 6103   3.420  22.033  16.460  0.1335 -0.3238 -0.2045
  521POSM   AM1 6104   3.399  22.266  16.246  0.0201 -0.3409 -0.2777
  521POSM   AM2 6105   3.520  22.484  16.121 -0.0300  0.1914 -0.0192
  521POSM   T1A 6106   3.080  22.502  15.876  0.2708 -0.2569  0.0676
  521POSM   C2A 6107   2.778  22.696  15.576  0.0661  0.3061 -0.2378
  521POSM   C3A 6108   2.460  22.490  15.318 -0.2336  0.1318  0.2113
  521POSM   C1B 6109   3.601  22.421  15.811 -0.1232 -0.1152 -0.3140
  521POSM   D2B 6110   3.540  22.214  15.404 -0.2800  0.2344 -0.2558
  521POSM   C3B 6111   3.827  22.011  15.015  0.1089 -0.0966  0.0126
  521POSM   C4B 6112   4.008  22.036  14.532  0.0764  0.0390 -0.2167
  522DOPC   NC3 6113  11.955  18.587  14.657  0.4322 -0.1590 -0.1473
  522DOPC   PO4 6114  11.790  18.531  14.978  0.1720 -0.0083 -0.0761
  522DOPC   GL1 6115  11.492  18.481  14.869  0.1103  0.1601  0.0986
  522DOPC   GL2 6116  11.464  18.234  14.656 -0.0929  0.2318  0.2690
  522DOPC   C1A 6117  11.445  18.660  14.435  0.2506 -0.4611  0.1951
  522DOPC   D2A 6118  11.300  18.708  13.978 -0.1923  0.0274  0.0858
  522DOPC   C3A 6119  10.906  18.779  13.839 -0.2558  0.1055  0.2420
  522DOPC   C4A 6120  10.441  18.695  13.767  0.1441  0.3193  0.0736
  522DOPC   C1B 6121  11.642  18.202  14.221 -0.1334 -0.1276 -0.1162
  522DOPC   D2B 6122  11.606  18.184  13.749  0.1286 -0.0469 -0.1769
  522DOPC   C3B 6123  11.341  18.497  13.529 -0.1328  0.0871  0.4109
  522DOPC   C4B 6124  11.203  18.918  13.430  0.2165  0.5691 -0.2401
  523POSM   NC3 6125  11.099  18.910  15.781  0.3022  0.1444 -0.0615
  523POSM   PO4 6126  11.357  19.125  15.601 -0.1492 -0.1396 -0.2106
  523POSM   AM1 6127  11.273  19.121  15.259  0.3596  0.0138  0.0261
  523POSM   AM2 6128  11.365  19.277  15.022  0.2200  0.2238 -0.2756
  523POSM   T1A 6129  11.228  18.858  14.862  0.1898 -0.3901 -0.3138
  523POSM   C2A 6130  11.015  18.482  14.579 -0.4254 -0.2845  0.0283
  523POSM   C3A 6131  11.101  18.210  14.183 -0.1007 -0.2673 -0.0589
  523POSM   C1B 6132  11.157  19.377  14.781 -0.2567 -0.0899 -0.0877
  523POSM   D2B 6133  11.065  19.492  14.356  0.5060 -0.1310  0.0104
  523POSM   C3B 6134  10.647  19.662  14.237 -0.2852  0.0300  0.2320
  523POSM   C4B 6135  10.388  19.940  13.989 -0.1063  0.1471  0.3714
  524DOPS   CNO 6136   4.696  17.267  16.119  0.0240  0.1894  0.0087
  524DOPS   PO4 6137   4.813  17.424  15.801  0.0804 -0.1098  0.5005
  524DOPS   GL1 6138   4.739  17.306  15.397 -0.1118  0.1439 -0.2528
  524DOPS   GL2 6139   4.834  17.099  15.382  0.0985  0.1929  0.0708
  524DOPS   C1A 6140   4.694  17.493  14.966  0.2217 -0.1825 -0.0616
  524DOPS   D2A 6141   4.681  17.764  14.615  0.1715 -0.0594  0.1039
  524DOPS   C3A 6142   4.634  17.481  14.239  0.3472  0.0472  0.0088
  524DOPS   C4A 6143   4.590  17.130  13.955 -0.1809 -0.1504  0.0595
  524DOPS   C1B 6144   4.694  17.036  14.926 -0.0406  0.1907  0.3034
  524DOPS   D2B 6145   4.634  16.984  14.445 -0.3184  0.0572 -0.0316
  524DOPS   C3B 6146   4.640  16.589  14.164  0.2724  0.2372  0.2152
  524DOPS   C4B 6147   4.757  16.351  13.787  0.1885  0.0900  0.1200
  525DOPS   CNO 6148   0.209  18.864  17.053  0.0372  0.1839 -0.0042
  525DOPS   PO4 6149  -0.082  18.863  16.809  0.0028  0.2997  0.1074
  525DOPS   GL1 6150   0.050  18.689  16.561 -0.1202 -0.0594 -0.0030
  525DOPS   GL2 6151  -0.106  18.866  16.284 -0.2841  0.0789  0.0642
  525DOPS   C1A 6152   0.361  18.615  16.284 -0.0459 -0.3872  0.0682
  525DOPS   D2A 6153   0.687  18.666  15.978  0.3812  0.1456  0.0879
  525DOPS   C3A 6154   1.006  18.318  15.936 -0.1857 -0.2954  0.0846
  525DOPS   C4A 6155   1.147  17.984  15.676 -0.3842 -0.0415  0.1635
  525DOPS   C1B 6156  -0.142  18.499  16.000  0.0965 -0.0604 -0.0332
  525DOPS   D2B 6157  -0.296  18.258  15.610 -0.1221  0.0462  0.2640
  525DOPS   C3B 6158  -0.241  18.449  15.246  0.4458  0.5138  0.3426
  525DOPS   C4B 6159  -0.529  18.629  14.966 -0.0286 -0.0572 -0.1979
  526DOPS   CNO 6160   6.068  19.031  16.370 -0.3302 -0.0544 -0.3394
  526DOPS   PO4 6161   5.936  19.378  16.420 -0.0120 -0.0243 -0.0194
  526DOPS   GL1 6162   5.952  19.592  16.081 -0.1593  0.1884 -0.3814
  526DOPS   GL2 6163   5.691  19.775  16.042  0.1665 -0.1455  0.0432
  526DOPS   C1A 6164   5.825  19.434  15.685  0.1793  0.0666 -0.2910
  526DOPS   D2A 6165   5.750  19.062  15.442 -0.3708  0.0300 -0.2363
  526DOPS   C3A 6166   5.793  19.119  15.014 -0.0756 -0.1039  0.2631
  526DOPS   C4A 6167   5.658  18.935  14.579 -0.0842 -0.1988 -0.3727
  526DOPS   C1B 6168   5.413  19.835  15.677 -0.0330 -0.1390  0.0121
  526DOPS   D2B 6169   5.282  19.958  15.213  0.0446  0.0484 -0.0504
  526DOPS   C3B 6170   5.506  19.996  14.787  0.1420  0.0040  0.2632
  526DOPS   C4B 6171   5.827  19.699  14.607 -0.0944  0.1484 -0.0939
  527POSM   NC3 6172   8.600  15.012  16.424  0.0594 -0.2750 -0.3646
  527POSM   PO4 6173   8.447  14.706  16.337  0.3015 -0.2181  0.3337
  527POSM   AM1 6174   8.285  14.707  16.020 -0.0916  0.0488  0.1563
  527POSM   AM2 6175   8.354  14.600  15.729 -0.0652 -0.0581 -0.2462
  527POSM   T1A 6176   7.864  14.678  15.737  0.3019  0.2708 -0.0824
  527POSM   C2A 6177   7.757  15.004  15.459 -0.0060 -0.2881  0.0905
  527POSM   C3A 6178   7.686  15.442  15.230  0.2913 -0.2007  0.2074
  527POSM   C1B 6179   8.314  14.725  15.399 -0.0562  0.1559  0.0907
  527POSM   D2B 6180   8.135  15.032  15.130  0.2506 -0.1386  0.1130
  527POSM   C3B 6181   8.121  14.853  14.681 -0.2110 -0.0082  0.0290
  527POSM   C4B 6182   7.836  14.723  14.299  0.0611 -0.0134 -0.1356
  528DOPE   NH3 6183   9.035  22.560  16.108  0.0717  0.0088 -0.0975
  528DOPE   PO4 6184   8.756  22.731  16.213  0.1995 -0.2073 -0.2207
  528DOPE   GL1 6185   8.705  22.757  15.820  0.1628 -0.1802  0.2336
  528DOPE   GL2 6186   8.381  22.606  15.832 -0.1409  0.0736 -0.1272
  528DOPE   C1A 6187   8.468  23.095  15.574  0.0069  0.2445  0.0520
  528DOPE   D2A 6188   8.080  23.186  15.287 -0.2127 -0.0847 -0.0668
  528DOPE   C3A 6189   8.044  22.830  14.947  0.1817 -0.3326  0.1024
  528DOPE   C4A 6190   8.034  22.335  14.871  0.0514  0.0030  0.0243
  528DOPE   C1B 6191   7.922  22.514  15.875  0.2609  0.2613 -0.0795
  528DOPE   D2B 6192   7.516  22.509  15.648  0.0538 -0.0857 -0.1581
  528DOPE   C3B 6193   7.733  22.342  15.273 -0.0807 -0.1296  0.0410
  528DOPE   C4B 6194   7.534  22.240  14.838  0.3369 -0.0803 -0.0302
  529POSM   NC3 6195   5.181  12.105  16.924 -0.3492  0.0105  0.1518
  529POSM   PO4 6196   5.274  12.491  17.034  0.0477  0.1133 -0.1012
  529POSM   AM1 6197   5.170  12.510  16.723 -0.1063 -0.1400 -0.0470
  529POSM   AM2 6198   5.216  12.362  16.452 -0.1662 -0.2008  0.0026
  529POSM   T1A 6199   4.729  12.457  16.522  0.2221  0.2806 -0.0206
  529POSM   C2A 6200   4.399  12.221  16.619 -0.1327  0.0146  0.0326
  529POSM   C3A 6201   3.969  12.051  16.499  0.3344 -0.0791 -0.1795
  529POSM   C1B 6202   5.014  12.312  16.150 -0.2526  0.0378  0.1583
  529POSM   D2B 6203   5.092  12.135  15.739  0.2213 -0.3999 -0.0241
  529POSM   C3B 6204   5.015  12.412  15.363  0.1197  0.1020 -0.1315
  529POSM   C4B 6205   4.725  12.567  15.077 -0.2122 -0.1086 -0.1136
  530DOPS   CNO 6206   6.614  19.034  16.522  0.1148 -0.0346  0.1241
  530DOPS   PO4 6207   6.575  18.945  16.142 -0.0581 -0.1439  0.1106
  530DOPS   GL1 6208   6.758  19.016  15.795 -0.0485 -0.1803 -0.0621
  530DOPS   GL2 6209   6.695  18.784  15.659 -0.0602 -0.1680  0.3339
  530DOPS   C1A 6210   6.608  19.378  15.477 -0.0936 -0.2073 -0.0152
  530DOPS   D2A 6211   6.457  19.247  15.005  0.0439 -0.1276  0.2547
  530DOPS   C3A 6212   6.671  19.165  14.638  0.0508  0.3454 -0.3409
  530DOPS   C4A 6213   6.898  18.815  14.465 -0.2654  0.0065  0.1398
  530DOPS   C1B 6214   6.532  18.449  15.372  0.1846 -0.1140  0.0677
  530DOPS   D2B 6215   6.497  17.978  15.217  0.2490 -0.0860  0.1844
  530DOPS   C3B 6216   6.437  17.838  14.750  0.2993 -0.1316  0.1325
  530DOPS   C4B 6217   6.524  17.795  14.339 -0.3103  0.1200  0.2775
  531POSM   NC3 6218   9.890  16.869  15.628 -0.0966  0.1405 -0.1337
  531POSM   PO4 6219   9.992  16.508  15.486 -0.1853  0.3652 -0.2426
  531POSM   AM1 6220   9.876  16.516  15.194  0.2232 -0.3213 -0.0267
  531POSM   AM2 6221   9.766  16.332  15.039  0.1243 -0.0576  0.0186
  531POSM   T1A 6222   9.816  16.697  14.733  0.2424  0.0517 -0.0898
  531POSM   C2A 6223   9.503  16.642  14.426  0.2381 -0.1375  0.2212
  531POSM   C3A 6224   9.196  16.871  14.137  0.0778 -0.0262  0.3356
  531POSM   C1B 6225   9.823  16.208  14.759 -0.1867  0.4941 -0.1109
  531POSM   D2B 6226   9.821  15.968  14.329  0.0684  0.0888 -0.0402
  531POSM   C3B 6227   9.536  15.664  14.188 -0.0510  0.0777 -0.2864
  531POSM   C4B 6228   9.104  15.546  14.384  0.0532  0.0049  0.2206
  532POSM   NC3 6229   4.746  15.317  16.592  0.0315 -0.0547 -0.1224
  532POSM   PO4 6230   4.685  14.937  16.471 -0.0128 -0.1875  0.0497
  532POSM   AM1 6231   4.875  14.792  16.165 -0.3140  0.4533 -0.0767
  532POSM   AM2 6232   5.030  14.586  16.062 -0.0217 -0.0139 -0.2165
  532POSM   T1A 6233   5.041  14.934  15.725 -0.2564  0.2106 -0.0982
  532POSM   C2A 6234   5.477  14.978  15.574 -0.2701  0.0870  0.0674
  532POSM   C3A 6235   5.802  14.843  15.304 -0.1917 -0.0805 -0.0993
  532POSM   C1B 6236   5.082  14.397  15.800 -0.2636 -0.2286  0.2459
  532POSM   D2B 6237   4.968  13.996  15.541 -0.0839 -0.1129 -0.3017
  532POSM   C3B 6238   4.595  14.018  15.303 -0.0903 -0.3435 -0.1709
  532POSM   C4B 6239   4.301  13.942  14.931 -0.1973  0.3808 -0.2192
  533POSM   NC3 6240   2.763  19.270  17.144 -0.1226 -0.1302  0.1314
  533POSM   PO4 6241   2.819  19.649  17.163  0.0943  0.2335 -0.0145
  533POSM   AM1 6242   2.798  19.772  16.858 -0.1643  0.0206  0.1349
  533POSM   AM2 6243   2.830  20.040  16.749  0.0003 -0.0216  0.0450
  533POSM   T1A 6244   2.631  19.756  16.353  0.2339  0.1676  0.2339
  533POSM   C2A 6245   2.266  19.852  16.061 -0.2846 -0.0647  0.1937
  533POSM   C3A 6246   1.799  19.945  15.874 -0.2201 -0.0477  0.0012
  533POSM   C1B 6247   3.081  19.950  16.532  0.0219  0.0815  0.4436
  533POSM   D2B 6248   3.236  20.049  16.094 -0.0356  0.0584 -0.2000
  533POSM   C3B 6249   2.808  20.031  15.923  0.0946  0.1070  0.2554
  533POSM   C4B 6250   2.642  20.002  15.472  0.0311 -0.0202 -0.0881
  534DOPE   NH3 6251  11.939  19.914  15.067 -0.2544 -0.0187  0.0378
  534DOPE   PO4 6252  11.820  19.618  15.056  0.1296  0.3921 -0.0090
  534DOPE   GL1 6253  11.648  19.448  14.679 -0.1257 -0.0591  0.2308
  534DOPE   GL2 6254  11.536  19.679  14.651 -0.0179 -0.1981 -0.2671
  534DOPE   C1A 6255  11.428  19.181  14.376  0.0977 -0.0557  0.0851
  534DOPE   D2A 6256  11.275  19.164  13.902 -0.2051 -0.3363 -0.4772
  534DOPE   C3A 6257  11.383  19.573  13.679 -0.0022  0.2323  0.0561
  534DOPE   C4A 6258  11.280  19.918  13.439 -0.2371 -0.2563  0.1647
  534DOPE   C1B 6259  11.609  19.668  14.145 -0.0847 -0.2652  0.2886
  534DOPE   D2B 6260  11.730  19.971  13.768  0.0429  0.1190 -0.1857
  534DOPE   C3B 6261  11.816  20.057  13.321 -0.0808  0.3861 -0.1732
  534DOPE   C4B 6262  11.923  20.137  12.880 -0.0469 -0.1707 -0.1281
  535DOPE   NH3 6263   1.027  19.077  17.431  0.1453  0.1009  0.1445
  535DOPE   PO4 6264   1.129  18.755  17.479 -0.1485  0.0893  0.0820
  535DOPE   GL1 6265   1.160  18.818  17.059 -0.0483 -0.0656  0.2339
  535DOPE   GL2 6266   1.352  18.668  17.026  0.2212  0.2322 -0.0241
  535DOPE   C1A 6267   1.308  19.080  16.665  0.3543 -0.0691 -0.1327
  535DOPE   D2A 6268   1.326  19.187  16.213 -0.0029 -0.0680  0.1122
  535DOPE   C3A 6269   1.412  18.759  16.027 -0.0505  0.1051  0.1370
  535DOPE   C4A 6270   1.223  18.617  15.639 -0.0718  0.0253  0.1488
  535DOPE   C1B 6271   1.120  18.597  16.638 -0.0866 -0.3696 -0.0181
  535DOPE   D2B 6272   0.793  18.335  16.400  0.0869 -0.1166  0.2966
  535DOPE   C3B 6273   0.505  18.203  16.073  0.0514 -0.0175 -0.0815
  535DOPE   C4B 6274   0.114  18.053  15.931 -0.0022 -0.0134  0.2478
  536DOPS   CNO 6275  10.770  12.443  15.156  0.0649 -0.0503 -0.3775
  536DOPS   PO4 6276  10.918  12.355  14.804  0.0820 -0.0904  0.0146
  536DOPS   GL1 6277  10.670  12.214  14.458 -0.2397 -0.0699 -0.2207
  536DOPS   GL2 6278  10.682  12.395  14.211  0.0760  0.2152 -0.3278
  536DOPS   C1A 6279  10.671  11.757  14.279 -0.1078 -0.1581  0.1515
  536DOPS   D2A 6280  10.403  11.425  14.032  0.1176 -0.1211  0.0374
  536DOPS   C3A 6281  10.081  11.382  13.758  0.0410 -0.0917  0.3605
  536DOPS   C4A 6282   9.861  11.648  13.435  0.1540  0.1135  0.2067
  536DOPS   C1B 6283  10.540  12.303  13.744  0.2431  0.1761  0.3166
  536DOPS   D2B 6284  10.249  12.313  13.400 -0.2662  0.1452  0.0092
  536DOPS   C3B 6285   9.836  12.591  13.435 -0.0604 -0.0964  0.2940
  536DOPS   C4B 6286   9.555  12.902  13.300 -0.3862 -0.2017 -0.0764
  537DOPS   CNO 6287   0.121  15.988  17.063  0.1264 -0.0124  0.1331
  537DOPS   PO4 6288   0.019  16.352  16.995 -0.1623  0.0428  0.3564
  537DOPS   GL1 6289  -0.090  16.221  16.535 -0.2555  0.1005  0.1280
  537DOPS   GL2 6290  -0.285  16.375  16.392  0.0906  0.0751 -0.2186
  537DOPS   C1A 6291  -0.033  15.860  16.226  0.0086  0.3354 -0.0707
  537DOPS   D2A 6292   0.012  15.433  16.007  0.0031 -0.0035 -0.0689
  537DOPS   C3A 6293  -0.405  15.439  15.767 -0.0658 -0.4295  0.2350
  537DOPS   C4A 6294  -0.897  15.468  15.844 -0.1021 -0.1251 -0.2079
  537DOPS   C1B 6295  -0.175  16.323  15.941 -0.1039  0.0284 -0.4243
  537DOPS   D2B 6296   0.106  16.304  15.633 -0.2050  0.0919  0.0149
  537DOPS   C3B 6297  -0.183  16.494  15.299 -0.0048  0.0563  0.1390
  537DOPS   C4B 6298  -0.252  16.958  15.167  0.0027 -0.1740 -0.2032
  538DOPE   NH3 6299   3.722  20.866  16.241  0.1190  0.0090  0.1165
  538DOPE   PO4 6300   3.543  20.601  16.283  0.1974 -0.0860 -0.3835
  538DOPE   GL1 6301   3.531  20.459  15.966 -0.0517  0.0266 -0.1461
  538DOPE   GL2 6302   3.833  20.586  15.883  0.0378  0.0427  0.0539
  538DOPE   C1A 6303   3.544  20.687  15.534 -0.2112 -0.3553 -0.0850
  538DOPE   D2A 6304   3.697  21.126  15.266  0.0701  0.0471  0.1150
  538DOPE   C3A 6305   3.825  21.331  14.900 -0.1026  0.3797  0.0500
  538DOPE   C4A 6306   3.994  21.358  14.475 -0.4937 -0.1070  0.1619
  538DOPE   C1B 6307   4.054  20.737  15.505 -0.0380 -0.1890 -0.1575
  538DOPE   D2B 6308   4.146  20.861  15.071  0.0486 -0.0889  0.1173
  538DOPE   C3B 6309   3.975  20.612  14.745 -0.0573  0.1089 -0.0112
  538DOPE   C4B 6310   3.834  20.119  14.623 -0.0928 -0.0784  0.1361
  539DOPC   NC3 6311   5.356  21.978  16.341 -0.0935 -0.0011  0.4292
  539DOPC   PO4 6312   5.275  21.715  16.615  0.1422 -0.0550  0.0943
  539DOPC   GL1 6313   4.907  21.823  16.399 -0.2244 -0.2927 -0.1134
  539DOPC   GL2 6314   4.867  22.065  16.247 -0.2436  0.2299 -0.2245
  539DOPC   C1A 6315   4.515  21.782  16.128  0.0503  0.0702 -0.0154
  539DOPC   D2A 6316   4.221  21.648  15.827  0.0906 -0.0270 -0.1392
  539DOPC   C3A 6317   3.957  22.006  15.544  0.1878  0.0479 -0.0641
  539DOPC   C4A 6318   4.021  22.439  15.468 -0.3733  0.0467 -0.1603
  539DOPC   C1B 6319   5.130  21.999  15.892 -0.2713 -0.2532 -0.0609
  539DOPC   D2B 6320   5.159  21.651  15.508  0.1627  0.0362  0.1624
  539DOPC   C3B 6321   5.160  21.471  15.079  0.0916 -0.0370  0.1777
  539DOPC   C4B 6322   5.379  21.263  14.778  0.0016  0.0314  0.0139
  540DOPE   NH3 6323   5.618  19.734  16.643 -0.0525 -0.2841 -0.0846
  540DOPE   PO4 6324   5.351  19.774  16.460 -0.1167 -0.0759 -0.4232
  540DOPE   GL1 6325   5.297  20.005  16.177  0.1554 -0.1113 -0.1797
  540DOPE   GL2 6326   4.975  20.095  16.254  0.1655  0.2448 -0.0512
  540DOPE   C1A 6327   5.549  20.318  15.906  0.1561  0.0572  0.1058
  540DOPE   D2A 6328   5.935  20.546  15.849  0.1693 -0.1856 -0.0896
  540DOPE   C3A 6329   6.192  20.389  15.568 -0.1253 -0.2328  0.1701
  540DOPE   C4A 6330   6.131  20.202  15.117 -0.1165 -0.1317  0.6241
  540DOPE   C1B 6331   5.083  20.154  15.793  0.2472 -0.1817  0.0293
  540DOPE   D2B 6332   5.254  20.535  15.535  0.0500  0.1067 -0.1205
  540DOPE   C3B 6333   5.227  20.531  15.103 -0.2055  0.2896  0.0933
  540DOPE   C4B 6334   5.651  20.553  14.895  0.2281 -0.0720 -0.0900
  541DOPC   NC3 6335  33.366  15.068  17.734 -0.3208  0.0739 -0.0076
  541DOPC   PO4 6336  33.419  14.939  17.363  0.2169 -0.2133 -0.1605
  541DOPC   GL1 6337  33.611  14.896  16.909 -0.3324 -0.1712 -0.0931
  541DOPC   GL2 6338  33.572  14.959  16.632 -0.1985  0.0838 -0.0449
  541DOPC   C1A 6339  33.579  14.480  16.715 -0.0551  0.1694  0.0025
  541DOPC   D2A 6340  33.439  14.229  16.334 -0.0086  0.3828 -0.5074
  541DOPC   C3A 6341  33.075  14.385  16.099  0.0455 -0.0705  0.0439
  541DOPC   C4A 6342  32.759  14.528  15.770  0.4457 -0.0184  0.0581
  541DOPC   C1B 6343  33.846  15.130  16.249 -0.0221 -0.0806 -0.3244
  541DOPC   D2B 6344  34.032  15.004  15.838 -0.1518  0.0943  0.0037
  541DOPC   C3B 6345  34.467  15.011  15.679  0.1265 -0.3691 -0.0448
  541DOPC   C4B 6346  34.841  15.239  15.522 -0.2078  0.0983 -0.3104
  542DOPE   NH3 6347  10.170  15.853  15.659  0.0300 -0.1300  0.1881
  542DOPE   PO4 6348   9.891  15.670  15.597  0.1746  0.0485  0.0108
  542DOPE   GL1 6349   9.561  15.793  15.374  0.4432 -0.0884 -0.1175
  542DOPE   GL2 6350   9.516  15.897  15.075  0.0683  0.0474  0.4545
  542DOPE   C1A 6351   9.155  15.573  15.272 -0.0715  0.1962 -0.0451
  542DOPE   D2A 6352   8.764  15.493  14.962 -0.0163  0.0169  0.2740
  542DOPE   C3A 6353   8.861  15.241  14.681 -0.1970  0.0262  0.1467
  542DOPE   C4A 6354   8.625  14.977  14.417  0.1265  0.2558 -0.0702
  542DOPE   C1B 6355   9.392  16.011  14.620  0.0365 -0.2499  0.0425
  542DOPE   D2B 6356   9.435  16.153  14.143  0.0512 -0.0228  0.0371
  542DOPE   C3B 6357   9.376  16.485  13.801 -0.0781 -0.0126  0.1759
  542DOPE   C4B 6358   9.312  16.858  13.537 -0.1585 -0.1644  0.0792
  543DOPE   NH3 6359   9.609  19.372  16.120 -0.0674  0.0418  0.0048
  543DOPE   PO4 6360   9.793  19.578  16.025 -0.0515 -0.1405  0.3155
  543DOPE   GL1 6361   9.732  19.479  15.576  0.1202 -0.2904 -0.0723
  543DOPE   GL2 6362   9.759  19.175  15.614 -0.2827 -0.0545  0.1369
  543DOPE   C1A 6363   9.545  19.615  15.184  0.0903  0.1022  0.1694
  543DOPE   D2A 6364   9.248  19.787  14.805  0.0839  0.2584  0.0676
  543DOPE   C3A 6365   9.243  19.749  14.330 -0.0580 -0.3384 -0.0848
  543DOPE   C4A 6366   9.323  19.817  13.841 -0.1805 -0.0153  0.0206
  543DOPE   C1B 6367   9.421  19.116  15.275 -0.1690  0.0297  0.1240
  543DOPE   D2B 6368   9.102  19.353  15.006  0.1327 -0.1228 -0.2063
  543DOPE   C3B 6369   8.959  19.293  14.526 -0.0942 -0.0701  0.1217
  543DOPE   C4B 6370   8.637  19.316  14.190  0.0556  0.1310  0.2824
  544DOPC   NC3 6371   2.174  11.672  16.938  0.1874 -0.0155 -0.1232
  544DOPC   PO4 6372   2.518  11.611  16.750  0.0070  0.0096  0.0982
  544DOPC   GL1 6373   2.556  11.635  16.279  0.0342  0.3119 -0.0475
  544DOPC   GL2 6374   2.260  11.739  16.341 -0.0871  0.0485 -0.1653
  544DOPC   C1A 6375   2.418  11.580  15.848  0.3519 -0.2328  0.1417
  544DOPC   D2A 6376   2.249  11.766  15.473  0.0196 -0.0195 -0.2302
  544DOPC   C3A 6377   2.533  11.997  15.198  0.4119  0.6326  0.4438
  544DOPC   C4A 6378   2.796  12.133  14.843  0.2605  0.0543 -0.1765
  544DOPC   C1B 6379   1.808  11.843  16.401 -0.0187 -0.0820 -0.0211
  544DOPC   D2B 6380   1.376  11.853  16.432  0.1093  0.1871 -0.0419
  544DOPC   C3B 6381   1.319  12.011  16.029 -0.1364 -0.2227  0.3156
  544DOPC   C4B 6382   1.621  12.141  15.744  0.1515 -0.0359  0.1818
  545DOPC   NC3 6383   9.820  15.390  15.201  0.1081 -0.0059  0.1368
  545DOPC   PO4 6384  10.045  15.050  15.133  0.0985  0.2208  0.1251
  545DOPC   GL1 6385  10.059  15.116  14.774  0.0549  0.0900 -0.1015
  545DOPC   GL2 6386   9.762  15.103  14.696 -0.1843 -0.5357  0.0730
  545DOPC   C1A 6387  10.151  15.036  14.382 -0.0923 -0.1744  0.0154
  545DOPC   D2A 6388  10.329  14.841  14.006  0.1211  0.0127  0.0838
  545DOPC   C3A 6389  10.776  14.709  13.968 -0.0651 -0.3445  0.0702
  545DOPC   C4A 6390  11.012  14.344  14.127  0.2548 -0.4708  0.0536
  545DOPC   C1B 6391   9.554  15.172  14.251  0.0387  0.3521 -0.0628
  545DOPC   D2B 6392   9.471  14.876  13.835  0.1721 -0.0371  0.0020
  545DOPC   C3B 6393   9.529  15.060  13.415  0.0252 -0.1061 -0.0185
  545DOPC   C4B 6394   9.733  15.116  13.035 -0.1827  0.3239  0.0851
  546DOPE   NH3 6395   7.389  14.338  16.422 -0.0405  0.2135 -0.1621
  546DOPE   PO4 6396   7.697  14.215  16.373  0.0067 -0.2053  0.1146
  546DOPE   GL1 6397   7.635  14.337  16.026  0.0808 -0.1296  0.0674
  546DOPE   GL2 6398   7.738  14.196  15.804  0.0601  0.0597  0.2428
  546DOPE   C1A 6399   7.174  14.313  15.890  0.1204 -0.0900  0.0206
  546DOPE   D2A 6400   6.743  14.273  15.739  0.1756  0.1912  0.1776
  546DOPE   C3A 6401   6.511  13.894  15.726 -0.0386 -0.1213 -0.1264
  546DOPE   C4A 6402   6.125  13.749  15.443  0.0048  0.1800 -0.0845
  546DOPE   C1B 6403   7.470  14.425  15.476  0.1516 -0.1749  0.2547
  546DOPE   D2B 6404   7.324  14.778  15.236 -0.1698 -0.0286 -0.0115
  546DOPE   C3B 6405   7.548  15.057  14.954  0.1673  0.6032  0.0849
  546DOPE   C4B 6406   7.775  15.199  14.547 -0.2898 -0.1601  0.0192
  547DOPE   NH3 6407  11.442  18.649  15.392 -0.4754 -0.1251 -0.0295
  547DOPE   PO4 6408  11.192  18.476  15.490 -0.2010 -0.0907  0.0197
  547DOPE   GL1 6409  10.903  18.414  15.235 -0.3382 -0.2197 -0.0339
  547DOPE   GL2 6410  10.742  18.226  15.401  0.0195 -0.1876  0.1256
  547DOPE   C1A 6411  10.565  18.428  14.901 -0.3268  0.0357 -0.1840
  547DOPE   D2A 6412  10.283  18.224  14.613  0.0969  0.5755 -0.1759
  547DOPE   C3A 6413  10.207  18.232  14.160 -0.3396  0.0017  0.0793
  547DOPE   C4A 6414  10.216  18.132  13.742 -0.2565 -0.1078 -0.4371
  547DOPE   C1B 6415  10.947  18.056  15.033  0.3381  0.0569  0.2052
  547DOPE   D2B 6416  11.120  17.891  14.672  0.1697 -0.0059  0.1262
  547DOPE   C3B 6417  10.700  18.059  14.412  0.2475  0.0725  0.0366
  547DOPE   C4B 6418  10.645  18.494  14.277  0.2278  0.0597 -0.0680
  548DOPS   CNO 6419   0.862  16.547  17.185  0.1214 -0.1171  0.2999
  548DOPS   PO4 6420   1.152  16.781  17.151 -0.0140  0.1578  0.1027
  548DOPS   GL1 6421   1.286  16.566  16.771 -0.1747 -0.5929 -0.0392
  548DOPS   GL2 6422   1.147  16.739  16.602 -0.0416  0.2113 -0.0477
  548DOPS   C1A 6423   1.701  16.583  16.539 -0.2120  0.0448 -0.1434
  548DOPS   D2A 6424   1.946  16.514  16.174 -0.1384 -0.2529  0.0039
  548DOPS   C3A 6425   1.828  16.730  15.788  0.0536  0.2841 -0.2899
  548DOPS   C4A 6426   1.714  16.843  15.376 -0.0485 -0.0612 -0.2471
  548DOPS   C1B 6427   1.291  16.349  16.360 -0.1338 -0.1911  0.0605
  548DOPS   D2B 6428   1.320  15.871  16.418 -0.2415  0.0677  0.0906
  548DOPS   C3B 6429   1.758  15.689  16.295  0.0715  0.2100 -0.0476
  548DOPS   C4B 6430   2.113  15.378  16.294 -0.1631  0.1148  0.0676
  549POSM   NC3 6431   5.118  22.389  17.288 -0.2745  0.0222 -0.4428
  549POSM   PO4 6432   5.249  22.613  16.993 -0.3356  0.0403 -0.0950
  549POSM   AM1 6433   5.015  22.671  16.775  0.1706 -0.3888  0.3292
  549POSM   AM2 6434   4.887  22.613  16.523 -0.1577  0.2573  0.1440
  549POSM   T1A 6435   4.824  23.135  16.643 -0.2334  0.3912 -0.0698
  549POSM   C2A 6436   4.466  23.354  16.434  0.3474 -0.1964 -0.2402
  549POSM   C3A 6437   4.171  23.345  16.054 -0.1455  0.2058 -0.1826
  549POSM   C1B 6438   5.101  22.504  16.223 -0.0125  0.2207  0.2005
  549POSM   D2B 6439   5.263  22.488  15.769 -0.1455  0.2119 -0.4830
  549POSM   C3B 6440   5.403  22.815  15.577  0.0929  0.1030  0.0296
  549POSM   C4B 6441   5.771  23.041  15.500  0.3050  0.0152  0.2455
  550DOPC   NC3 6442  34.303  17.100  16.440  0.1362  0.1393  0.0848
  550DOPC   PO4 6443  34.534  17.394  16.577 -0.1035  0.2121 -0.1654
  550DOPC   GL1 6444  34.582  17.570  16.207 -0.0543 -0.1720  0.1979
  550DOPC   GL2 6445  34.457  17.380  16.041 -0.2050 -0.0264 -0.0402
  550DOPC   C1A 6446  34.846  17.539  15.779  0.1495 -0.2374 -0.3543
  550DOPC   D2A 6447  35.162  17.686  15.398  0.0888  0.0677  0.0285
  550DOPC   C3A 6448  35.446  18.012  15.417 -0.0346 -0.0531  0.0717
  550DOPC   C4A 6449  35.397  18.472  15.512  0.1993  0.1755  0.0598
  550DOPC   C1B 6450  34.513  17.285  15.584  0.0510 -0.1102 -0.1719
  550DOPC   D2B 6451  34.249  17.502  15.248  0.0502 -0.0574  0.3540
  550DOPC   C3B 6452  34.177  17.969  15.244 -0.0330  0.1161 -0.0431
  550DOPC   C4B 6453  33.913  18.327  15.416  0.0026  0.0033  0.0474
  551DOPC   NC3 6454   4.167  14.943  16.097  0.1946  0.2935  0.0088
  551DOPC   PO4 6455   3.968  14.789  16.389  0.0238 -0.0815 -0.1482
  551DOPC   GL1 6456   3.730  14.664  16.017 -0.1445  0.3704 -0.3306
  551DOPC   GL2 6457   3.941  14.580  15.797  0.0519  0.1132 -0.0385
  551DOPC   C1A 6458   3.513  14.955  15.694 -0.0861  0.0246 -0.2102
  551DOPC   D2A 6459   3.696  15.219  15.348  0.0805 -0.0073 -0.0503
  551DOPC   C3A 6460   3.880  15.567  15.164  0.0983  0.0322 -0.2228
  551DOPC   C4A 6461   4.118  15.811  15.470 -0.1526 -0.0365  0.0997
  551DOPC   C1B 6462   4.059  14.928  15.528  0.0881  0.3167 -0.0372
  551DOPC   D2B 6463   4.134  14.886  15.079  0.1395 -0.0222  0.0983
  551DOPC   C3B 6464   3.772  14.933  14.796 -0.0328 -0.0351 -0.0786
  551DOPC   C4B 6465   3.332  14.948  14.619 -0.1177 -0.1359  0.0590
  552DOPS   CNO 6466   2.477  12.484  17.139  0.3117 -0.0979 -0.0560
  552DOPS   PO4 6467   2.801  12.674  16.993 -0.2300  0.2163  0.1650
  552DOPS   GL1 6468   2.784  12.506  16.628  0.1814  0.0311 -0.3808
  552DOPS   GL2 6469   3.017  12.721  16.534  0.2079 -0.1557  0.0914
  552DOPS   C1A 6470   2.969  12.264  16.268 -0.0474  0.2556  0.2290
  552DOPS   D2A 6471   3.251  12.226  15.845  0.1792  0.0667  0.1206
  552DOPS   C3A 6472   3.405  11.864  15.617  0.2142 -0.2545 -0.1150
  552DOPS   C4A 6473   3.742  11.593  15.679 -0.2198  0.1310 -0.1404
  552DOPS   C1B 6474   2.634  12.666  16.238 -0.1056  0.0696  0.2041
  552DOPS   D2B 6475   2.454  12.913  15.868 -0.2060  0.0864 -0.2630
  552DOPS   C3B 6476   2.016  13.069  15.817  0.1322 -0.1324 -0.0536
  552DOPS   C4B 6477   1.743  12.880  15.518  0.1267 -0.0655 -0.0341
  553DOPC   NC3 6478  10.711  22.416  15.200  0.0633  0.0134 -0.1292
  553DOPC   PO4 6479  10.351  22.520  15.238  0.2598  0.3834 -0.0064
  553DOPC   GL1 6480  10.134  22.742  14.992 -0.3228 -0.1471  0.0563
  553DOPC   GL2 6481  10.030  22.583  14.777 -0.0121 -0.1406  0.1929
  553DOPC   C1A 6482  10.103  22.968  14.564 -0.0163  0.0694 -0.0941
  553DOPC   D2A 6483   9.964  23.094  14.147 -0.0313  0.0391 -0.1524
  553DOPC   C3A 6484  10.019  22.814  13.789 -0.0222 -0.0867  0.0012
  553DOPC   C4A 6485  10.128  22.544  13.416  0.0276 -0.1586  0.0676
  553DOPC   C1B 6486   9.651  22.868  14.700 -0.0224  0.2272  0.1269
  553DOPC   D2B 6487   9.410  23.006  14.288  0.3298  0.1403 -0.0245
  553DOPC   C3B 6488   9.607  23.135  13.890  0.4876  0.0863 -0.0629
  553DOPC   C4B 6489   9.848  23.500  13.662 -0.2455  0.0434  0.0628
  554POSM   NC3 6490   8.454  15.861  16.320 -0.2527  0.0145 -0.1292
  554POSM   PO4 6491   8.846  15.869  16.210  0.0489 -0.3073  0.2662
  554POSM   AM1 6492   8.681  15.793  15.890 -0.3885 -0.1496 -0.4053
  554POSM   AM2 6493   8.395  15.847  15.829  0.0015  0.0674  0.3391
  554POSM   T1A 6494   8.687  15.602  15.461  0.0275 -0.0938  0.0112
  554POSM   C2A 6495   8.637  15.146  15.282 -0.1392 -0.3084 -0.0849
  554POSM   C3A 6496   8.576  14.919  14.965  0.0387 -0.2848  0.1773
  554POSM   C1B 6497   8.346  15.932  15.514 -0.1844 -0.0925  0.1135
  554POSM   D2B 6498   8.498  15.911  15.091  0.2272 -0.2797  0.0292
  554POSM   C3B 6499   8.607  16.391  15.122 -0.3857 -0.0174  0.1696
  554POSM   C4B 6500   8.889  16.781  15.170 -0.0254 -0.0077  0.0960
  555DOPC   NC3 6501   5.726  13.297  16.352  0.1258 -0.0501 -0.1842
  555DOPC   PO4 6502   6.011  13.011  16.356 -0.1321  0.1371  0.0391
  555DOPC   GL1 6503   5.916  12.902  15.988 -0.0139  0.2014 -0.0043
  555DOPC   GL2 6504   5.639  13.014  15.914 -0.1812 -0.4362 -0.1267
  555DOPC   C1A 6505   5.974  12.498  15.789  0.1480 -0.4074  0.1603
  555DOPC   D2A 6506   6.042  12.085  15.597  0.2211  0.2104 -0.0834
  555DOPC   C3A 6507   6.083  12.163  15.146  0.0898  0.2852 -0.2844
  555DOPC   C4A 6508   5.833  12.210  14.750  0.2441  0.0233  0.0217
  555DOPC   C1B 6509   5.727  12.841  15.486  0.2735 -0.0908  0.4750
  555DOPC   D2B 6510   5.988  12.630  15.162 -0.2225 -0.0796 -0.1168
  555DOPC   C3B 6511   6.492  12.654  15.125  0.0472 -0.4121  0.2119
  555DOPC   C4B 6512   6.998  12.652  15.163  0.2038 -0.1726  0.1414
  556DOPC   NC3 6513  10.276  11.740  15.651  0.1767 -0.3906  0.0359
  556DOPC   PO4 6514   9.913  11.616  15.568 -0.1165  0.4233  0.4470
  556DOPC   GL1 6515   9.695  11.741  15.305 -0.1546  0.0234 -0.1937
  556DOPC   GL2 6516   9.557  11.975  15.271  0.1568 -0.0822  0.0475
  556DOPC   C1A 6517   9.438  11.497  14.970 -0.0572 -0.2046 -0.2157
  556DOPC   D2A 6518   9.100  11.381  14.720 -0.4244 -0.3927  0.0222
  556DOPC   C3A 6519   9.416  11.303  14.284 -0.0824  0.1634 -0.3603
  556DOPC   C4A 6520   9.744  10.991  14.041 -0.3282 -0.0241 -0.0038
  556DOPC   C1B 6521   9.215  11.998  14.950 -0.2445  0.0300 -0.1075
  556DOPC   D2B 6522   9.163  12.059  14.488 -0.1055  0.4827 -0.1354
  556DOPC   C3B 6523   8.756  12.182  14.285  0.3358 -0.2755  0.3336
  556DOPC   C4B 6524   8.268  12.296  14.144  0.2380  0.0293  0.0331
  557DOPE   NH3 6525   6.806  11.302  16.299 -0.0701  0.0585 -0.3392
  557DOPE   PO4 6526   7.061  11.162  16.189 -0.2241 -0.0030 -0.3565
  557DOPE   GL1 6527   6.854  11.057  15.826  0.1647  0.0376  0.0024
  557DOPE   GL2 6528   6.663  11.185  15.703  0.1708  0.1334  0.1789
  557DOPE   C1A 6529   6.658  10.732  15.480 -0.3076 -0.0932  0.0864
  557DOPE   D2A 6530   6.630  10.581  15.046 -0.1550  0.2320  0.0293
  557DOPE   C3A 6531   6.334  10.896  14.855 -0.0547  0.0207  0.0964
  557DOPE   C4A 6532   5.939  11.128  14.829  0.0228  0.4270  0.1821
  557DOPE   C1B 6533   6.824  11.551  15.439 -0.3526  0.0830 -0.2338
  557DOPE   D2B 6534   6.858  11.610  14.974 -0.1937 -0.1775  0.1201
  557DOPE   C3B 6535   7.046  11.841  14.666 -0.0175 -0.1258  0.1698
  557DOPE   C4B 6536   7.079  12.222  14.364  0.0975  0.2479 -0.0045
  558POSM   NC3 6537   9.887  12.928  15.207  0.1169  0.0773 -0.1365
  558POSM   PO4 6538  10.201  12.973  14.961  0.1115 -0.0730  0.2736
  558POSM   AM1 6539  10.142  12.859  14.653 -0.0512 -0.0449 -0.2078
  558POSM   AM2 6540  10.131  12.929  14.376  0.1019 -0.1056 -0.3665
  558POSM   T1A 6541  10.033  12.438  14.404 -0.1562  0.0566  0.1909
  558POSM   C2A 6542   9.980  12.412  13.929  0.1277  0.0381  0.0174
  558POSM   C3A 6543   9.756  12.131  13.637  0.1383  0.2521 -0.0422
  558POSM   C1B 6544   9.836  12.885  14.179 -0.0608  0.0071  0.1290
  558POSM   D2B 6545   9.594  12.963  13.790 -0.0271 -0.1757  0.2530
  558POSM   C3B 6546   9.182  12.884  13.687  0.0001 -0.0058 -0.1937
  558POSM   C4B 6547   8.841  12.644  13.472  0.0713  0.0442 -0.1560
  559POSM   NC3 6548   1.788  19.442  17.178  0.0732 -0.1485  0.0974
  559POSM   PO4 6549   1.591  19.107  17.275 -0.2321  0.0455 -0.1754
  559POSM   AM1 6550   1.734  18.954  17.060 -0.3004  0.0449  0.3979
  559POSM   AM2 6551   1.933  18.762  16.981 -0.0432  0.1703 -0.1871
  559POSM   T1A 6552   1.643  18.754  16.561  0.2999  0.2914 -0.0350
  559POSM   C2A 6553   1.409  18.372  16.321 -0.0958 -0.2387 -0.0990
  559POSM   C3A 6554   1.207  17.942  16.277  0.3785 -0.1117  0.2520
  559POSM   C1B 6555   2.133  18.721  16.702 -0.0167  0.0136 -0.2233
  559POSM   D2B 6556   2.275  18.823  16.266  0.2445  0.0989  0.3155
  559POSM   C3B 6557   2.305  18.555  15.891 -0.1334 -0.3414  0.2573
  559POSM   C4B 6558   2.243  18.170  15.590 -0.1219 -0.2219 -0.0174
  560DOPE   NH3 6559   1.204  12.962  17.039  0.0969 -0.1586  0.1420
  560DOPE   PO4 6560   1.010  12.881  17.259 -0.1991  0.1110 -0.3504
  560DOPE   GL1 6561   0.881  12.888  16.732 -0.0905  0.3170 -0.1331
  560DOPE   GL2 6562   0.982  13.093  16.625  0.1300 -0.0848  0.1179
  560DOPE   C1A 6563   0.566  12.789  16.358  0.1398  0.1648  0.0659
  560DOPE   D2A 6564   0.391  12.692  15.913  0.1230  0.0586 -0.0436
  560DOPE   C3A 6565   0.497  12.830  15.466  0.0997  0.2406  0.3252
  560DOPE   C4A 6566   0.770  12.926  15.067 -0.1353  0.3863  0.1580
  560DOPE   C1B 6567   1.015  12.980  16.185 -0.1200 -0.3636  0.2238
  560DOPE   D2B 6568   0.767  13.034  15.824  0.0523 -0.0754 -0.2039
  560DOPE   C3B 6569   1.025  13.121  15.452 -0.0800  0.4528 -0.0748
  560DOPE   C4B 6570   1.464  13.241  15.320 -0.0568 -0.1956 -0.0612
  561POSM   NC3 6571  34.310  14.102  17.118 -0.1205 -0.0983  0.2951
  561POSM   PO4 6572  34.338  13.712  17.119 -0.0284 -0.0213 -0.0393
  561POSM   AM1 6573  34.469  13.631  16.825 -0.1439  0.1019 -0.1661
  561POSM   AM2 6574  34.659  13.766  16.665  0.0157 -0.1489 -0.2786
  561POSM   T1A 6575  34.567  13.262  16.508 -0.0335 -0.0580  0.0516
  561POSM   C2A 6576  34.777  12.935  16.274 -0.0835  0.0729  0.2057
  561POSM   C3A 6577  34.638  12.457  16.021 -0.1684  0.1898 -0.2777
  561POSM   C1B 6578  34.664  13.708  16.358  0.0142 -0.1044  0.0476
  561POSM   D2B 6579  34.707  13.742  15.929 -0.2224 -0.1099 -0.0229
  561POSM   C3B 6580  34.510  13.581  15.525 -0.0636 -0.2221  0.1450
  561POSM   C4B 6581  34.701  13.386  15.120  0.0651 -0.0587 -0.5019
  562DOPE   NH3 6582   4.490  22.115  16.611 -0.1139 -0.1528  0.2024
  562DOPE   PO4 6583   4.340  22.394  16.608 -0.0076 -0.0645 -0.0186
  562DOPE   GL1 6584   4.524  22.437  16.197  0.1993 -0.0252  0.1886
  562DOPE   GL2 6585   4.259  22.174  16.091  0.1336  0.1468 -0.2265
  562DOPE   C1A 6586   4.680  22.211  15.816  0.1367 -0.1060  0.6231
  562DOPE   D2A 6587   4.953  22.136  15.420 -0.1209  0.2226  0.0307
  562DOPE   C3A 6588   4.767  21.777  15.107 -0.2679  0.2790  0.0229
  562DOPE   C4A 6589   4.814  21.475  14.736  0.2885 -0.2556  0.2146
  562DOPE   C1B 6590   4.138  22.602  15.920  0.2436 -0.0240 -0.5195
  562DOPE   D2B 6591   4.366  22.893  15.663 -0.0471 -0.4401  0.0154
  562DOPE   C3B 6592   4.111  22.920  15.253  0.0446  0.3848  0.1817
  562DOPE   C4B 6593   3.638  22.835  15.110  0.0324  0.1703  0.0184
  563POSM   NC3 6594   0.361  17.272  16.732  0.0540  0.2434 -0.0470
  563POSM   PO4 6595   0.089  16.945  16.766  0.1112 -0.1077  0.2790
  563POSM   AM1 6596   0.092  16.950  16.447 -0.2424  0.1229 -0.1970
  563POSM   AM2 6597   0.155  17.148  16.246  0.0702 -0.0033 -0.1919
  563POSM   T1A 6598  -0.242  16.866  16.051  0.0939  0.2113 -0.1401
  563POSM   C2A 6599  -0.479  16.687  15.723 -0.2062 -0.0377 -0.2159
  563POSM   C3A 6600  -0.493  16.284  15.573  0.2637 -0.1748  0.0909
  563POSM   C1B 6601   0.176  17.050  15.919  0.0447  0.0691  0.3078
  563POSM   D2B 6602  -0.003  16.817  15.627 -0.1978  0.2025  0.2836
  563POSM   C3B 6603   0.238  16.860  15.241 -0.4004 -0.1779 -0.0498
  563POSM   C4B 6604   0.642  16.861  14.983  0.1637 -0.0545 -0.1810
  564DOPS   CNO 6605  11.583  14.241  14.542 -0.1381  0.0160  0.1440
  564DOPS   PO4 6606  11.793  13.928  14.641  0.1285  0.2414  0.2776
  564DOPS   GL1 6607  11.567  13.750  14.340  0.0047 -0.0154  0.2041
  564DOPS   GL2 6608  11.719  13.552  14.160 -0.0441  0.1555 -0.1533
  564DOPS   C1A 6609  11.296  13.935  13.990  0.1888 -0.1070  0.0357
  564DOPS   D2A 6610  11.174  13.813  13.566 -0.1807 -0.1523  0.0513
  564DOPS   C3A 6611  11.435  13.779  13.193  0.0819 -0.2038  0.0743
  564DOPS   C4A 6612  11.533  13.807  12.777 -0.1854 -0.1771  0.0713
  564DOPS   C1B 6613  11.696  13.762  13.725  0.0862  0.4426  0.1588
  564DOPS   D2B 6614  11.933  13.858  13.348  0.0978  0.0533 -0.3889
  564DOPS   C3B 6615  11.798  13.467  13.158  0.5874  0.0060 -0.0351
  564DOPS   C4B 6616  11.998  13.192  12.794  0.0512  0.1231 -0.0231
  565DOPC   NC3 6617   5.161  20.382  16.957  0.0389 -0.1844  0.1868
  565DOPC   PO4 6618   5.278  20.236  16.620  0.2048 -0.1214 -0.1214
  565DOPC   GL1 6619   5.151  20.530  16.471 -0.2773 -0.4546 -0.0638
  565DOPC   GL2 6620   5.301  20.817  16.585 -0.0140  0.1033 -0.3270
  565DOPC   C1A 6621   5.227  20.656  16.072 -0.1632  0.1196  0.1230
  565DOPC   D2A 6622   5.493  20.866  15.769  0.1837  0.3955  0.0663
  565DOPC   C3A 6623   5.330  20.964  15.317  0.2331 -0.1929 -0.3319
  565DOPC   C4A 6624   5.005  20.930  15.025  0.1598 -0.0526  0.0020
  565DOPC   C1B 6625   5.404  21.108  16.184 -0.1218  0.3156  0.1382
  565DOPC   D2B 6626   5.440  21.508  15.952  0.0166 -0.0766  0.1257
  565DOPC   C3B 6627   4.976  21.543  15.981 -0.0693  0.0760  0.0728
  565DOPC   C4B 6628   4.701  21.723  15.656 -0.1531  0.2019 -0.1570
  566DOPS   CNO 6629   0.680  21.734  17.598  0.0471  0.3930 -0.3556
  566DOPS   PO4 6630   0.512  22.007  17.369 -0.0311  0.3559 -0.1166
  566DOPS   GL1 6631   0.556  22.007  17.003  0.0604 -0.4552 -0.0863
  566DOPS   GL2 6632   0.502  22.289  16.905 -0.1839 -0.1687 -0.2252
  566DOPS   C1A 6633   0.295  21.846  16.696  0.0279 -0.0350  0.2766
  566DOPS   D2A 6634   0.039  21.784  16.273  0.1100 -0.2580  0.0119
  566DOPS   C3A 6635   0.307  21.638  15.885 -0.0119 -0.0359 -0.1396
  566DOPS   C4A 6636   0.124  21.526  15.456  0.1111 -0.1681 -0.1800
  566DOPS   C1B 6637   0.451  22.459  16.457 -0.0579 -0.0449 -0.0907
  566DOPS   D2B 6638   0.838  22.408  16.223 -0.2269 -0.1247  0.1677
  566DOPS   C3B 6639   0.860  22.495  15.801  0.1276  0.0601  0.1664
  566DOPS   C4B 6640   0.998  22.434  15.423  0.3332  0.2618 -0.1565
  567DOPE   NH3 6641   9.476  20.031  15.691 -0.0619  0.0662 -0.0278
  567DOPE   PO4 6642   9.591  20.315  15.533 -0.3568 -0.0366 -0.1947
  567DOPE   GL1 6643   9.510  20.102  15.208  0.0874 -0.3039  0.1991
  567DOPE   GL2 6644   9.278  20.215  14.998 -0.1164  0.1249 -0.0793
  567DOPE   C1A 6645   9.715  19.981  14.831  0.3007  0.0005  0.0927
  567DOPE   D2A 6646  10.045  20.194  14.597 -0.1799 -0.0569  0.1169
  567DOPE   C3A 6647   9.862  20.475  14.260  0.0736  0.1606 -0.2087
  567DOPE   C4A 6648   9.537  20.316  13.970  0.1927 -0.3100  0.0341
  567DOPE   C1B 6649   8.956  20.367  14.667  0.1826 -0.0374  0.2219
  567DOPE   D2B 6650   8.815  20.707  14.512  0.0756  0.0749 -0.0078
  567DOPE   C3B 6651   8.608  20.898  14.200 -0.0954  0.2618  0.0488
  567DOPE   C4B 6652   8.424  21.029  13.794 -0.1764  0.1661 -0.1988
  568DOPC   NC3 6653   1.663  17.844  17.060  0.0455  0.1176  0.0580
  568DOPC   PO4 6654   2.027  17.888  16.931 -0.0050 -0.0135 -0.0093
  568DOPC   GL1 6655   1.769  17.794  16.576  0.1553 -0.1648 -0.1338
  568DOPC   GL2 6656   1.671  17.963  16.404  0.2199 -0.3702 -0.2719
  568DOPC   C1A 6657   1.364  17.535  16.483 -0.1492  0.2800 -0.2140
  568DOPC   D2A 6658   1.139  17.383  16.121  0.2357 -0.2039  0.1110
  568DOPC   C3A 6659   1.281  17.434  15.730 -0.2049 -0.1274  0.1274
  568DOPC   C4A 6660   1.452  17.350  15.302 -0.2371 -0.3105  0.0279
  568DOPC   C1B 6661   1.618  17.674  16.031 -0.2977  0.2825  0.1309
  568DOPC   D2B 6662   1.709  17.620  15.588 -0.0204 -0.1680  0.1429
  568DOPC   C3B 6663   2.045  17.343  15.488 -0.4585 -0.0101  0.1264
  568DOPC   C4B 6664   2.490  17.344  15.296  0.1869 -0.4397  0.3799
  569DOPS   CNO 6665  34.382  15.121  16.953  0.1880 -0.0233  0.0137
  569DOPS   PO4 6666  34.423  14.747  16.978 -0.0636  0.0558  0.3403
  569DOPS   GL1 6667  34.486  14.656  16.560  0.1435 -0.2204 -0.2473
  569DOPS   GL2 6668  34.332  14.374  16.622  0.0157  0.1686 -0.0493
  569DOPS   C1A 6669  34.263  14.697  16.129  0.0840  0.1391 -0.0802
  569DOPS   D2A 6670  34.252  14.528  15.714  0.2431 -0.0005  0.1760
  569DOPS   C3A 6671  34.567  14.576  15.366 -0.1121  0.3285  0.1112
  569DOPS   C4A 6672  34.951  14.777  15.206 -0.2015 -0.1636 -0.1123
  569DOPS   C1B 6673  33.929  14.288  16.416 -0.2086  0.0460 -0.0992
  569DOPS   D2B 6674  33.741  14.663  16.114  0.2688 -0.1475 -0.0543
  569DOPS   C3B 6675  33.644  14.355  15.788  0.1176  0.0252  0.0841
  569DOPS   C4B 6676  33.593  14.015  15.449  0.1346  0.0027  0.4350
  570DOPC   NC3 6677   3.500  14.274  17.234  0.0690  0.1713 -0.4504
  570DOPC   PO4 6678   3.333  13.942  17.178  0.1394  0.3060  0.0383
  570DOPC   GL1 6679   3.184  13.798  16.771 -0.0479 -0.0281 -0.2263
  570DOPC   GL2 6680   3.450  13.860  16.694  0.3833  0.0790  0.4831
  570DOPC   C1A 6681   3.151  13.632  16.407  0.1577 -0.3288  0.3501
  570DOPC   D2A 6682   3.398  13.434  16.017  0.4935  0.0423 -0.1780
  570DOPC   C3A 6683   3.184  13.208  15.669 -0.0548  0.2081 -0.0996
  570DOPC   C4A 6684   2.745  13.043  15.523  0.0733  0.0224 -0.0661
  570DOPC   C1B 6685   3.432  13.975  16.266 -0.1403  0.1421  0.1557
  570DOPC   D2B 6686   3.684  14.034  15.814  0.2172  0.1292  0.0058
  570DOPC   C3B 6687   3.644  14.345  15.498  0.1017  0.0568  0.3674
  570DOPC   C4B 6688   3.702  14.721  15.246  0.0700  0.0819 -0.0626
  571DOPE   NH3 6689  11.392  19.628  15.365 -0.0193 -0.2028  0.2103
  571DOPE   PO4 6690  11.408  19.897  15.188  0.2623 -0.2030  0.0213
  571DOPE   GL1 6691  11.215  19.910  14.866 -0.2811  0.3809  0.1573
  571DOPE   GL2 6692  11.060  20.103  14.885 -0.0252 -0.0648  0.0197
  571DOPE   C1A 6693  11.286  20.024  14.415  0.0836 -0.1647  0.0488
  571DOPE   D2A 6694  11.172  19.945  13.967  0.3600 -0.0927  0.1454
  571DOPE   C3A 6695  10.876  19.610  13.820 -0.0115 -0.0240  0.3146
  571DOPE   C4A 6696  10.777  19.185  13.635 -0.4445 -0.0824  0.1747
  571DOPE   C1B 6697  10.827  20.119  14.451  0.1645  0.2223  0.0208
  571DOPE   D2B 6698  10.722  20.294  13.997 -0.2302  0.0917 -0.2075
  571DOPE   C3B 6699  10.780  20.045  13.618 -0.2075 -0.1032 -0.0827
  571DOPE   C4B 6700  10.836  20.076  13.108 -0.0530  0.4431  0.1021
  572POSM   NC3 6701   7.837  20.475  16.744  0.1051 -0.2882  0.3311
  572POSM   PO4 6702   7.643  20.783  16.604  0.0566 -0.2078  0.2735
  572POSM   AM1 6703   7.459  20.717  16.337 -0.2815  0.0916 -0.3713
  572POSM   AM2 6704   7.467  20.625  16.070 -0.1306  0.3180 -0.1719
  572POSM   T1A 6705   7.031  20.528  16.167  0.0444 -0.0858 -0.2448
  572POSM   C2A 6706   6.623  20.362  16.083 -0.3813  0.0714 -0.1146
  572POSM   C3A 6707   6.184  20.197  16.083  0.0006 -0.0302 -0.0311
  572POSM   C1B 6708   7.308  20.791  15.814  0.2746 -0.0491  0.2193
  572POSM   D2B 6709   6.982  21.080  15.680  0.0665  0.0011 -0.2870
  572POSM   C3B 6710   6.857  21.543  15.683 -0.1491  0.0667 -0.0215
  572POSM   C4B 6711   6.732  21.927  15.535 -0.0982  0.0016  0.1106
  573DOPE   NH3 6712   4.371  21.072  16.507 -0.0066 -0.0802  0.2325
  573DOPE   PO4 6713   4.096  21.181  16.407  0.0077 -0.1194 -0.3058
  573DOPE   GL1 6714   4.165  20.902  16.117  0.1526  0.0024  0.1379
  573DOPE   GL2 6715   4.157  20.610  16.227  0.1544  0.1721 -0.1072
  573DOPE   C1A 6716   4.433  20.914  15.762  0.0152  0.1014  0.1745
  573DOPE   D2A 6717   4.553  20.786  15.328 -0.0707 -0.1394  0.2374
  573DOPE   C3A 6718   4.308  20.413  15.194  0.0906  0.1665  0.0674
  573DOPE   C4A 6719   4.186  19.990  15.024  0.0184 -0.2210 -0.2580
  573DOPE   C1B 6720   4.315  20.452  15.833 -0.2155 -0.0487 -0.0449
  573DOPE   D2B 6721   4.579  20.071  15.749  0.2448 -0.1994 -0.1590
  573DOPE   C3B 6722   4.461  19.759  15.442  0.0232 -0.1350 -0.0588
  573DOPE   C4B 6723   4.513  19.398  15.145 -0.0908 -0.0597 -0.4092
  574POSM   NC3 6724   8.548  20.064  15.308  0.3430 -0.1677 -0.2846
  574POSM   PO4 6725   8.332  20.177  15.671  0.1281  0.0257 -0.0328
  574POSM   AM1 6726   8.068  20.228  15.486 -0.3977  0.2391  0.0801
  574POSM   AM2 6727   8.060  20.245  15.174 -0.1747 -0.0865  0.0940
  574POSM   T1A 6728   7.637  20.390  15.302  0.1285 -0.2857 -0.1132
  574POSM   C2A 6729   7.179  20.626  15.285 -0.2498  0.2037 -0.0156
  574POSM   C3A 6730   6.950  21.007  15.075 -0.1472  0.1275 -0.0738
  574POSM   C1B 6731   7.882  20.040  14.952  0.0294  0.2874 -0.1561
  574POSM   D2B 6732   7.776  19.714  14.641 -0.0211 -0.0080 -0.0335
  574POSM   C3B 6733   7.978  19.348  14.837  0.0959  0.0139 -0.0142
  574POSM   C4B 6734   8.044  19.280  15.273  0.1202 -0.3118 -0.2438
  575DOPC   NC3 6735   7.967  16.192  15.808 -0.0303 -0.1880 -0.0592
  575DOPC   PO4 6736   8.336  16.291  15.991  0.0781  0.1122 -0.3077
  575DOPC   GL1 6737   8.175  16.676  15.737  0.0965  0.1880  0.2143
  575DOPC   GL2 6738   7.929  16.680  15.625 -0.1668  0.1930 -0.1028
  575DOPC   C1A 6739   8.366  16.867  15.367  0.0884 -0.2303  0.0173
  575DOPC   D2A 6740   8.311  16.838  14.921  0.1599 -0.2485 -0.1071
  575DOPC   C3A 6741   8.265  17.105  14.536  0.0158 -0.0075  0.1161
  575DOPC   C4A 6742   8.223  17.401  14.140  0.0029  0.4741 -0.2458
  575DOPC   C1B 6743   8.126  16.406  15.343 -0.2909 -0.1261 -0.0255
  575DOPC   D2B 6744   8.098  16.334  14.876 -0.0933 -0.1950  0.2421
  575DOPC   C3B 6745   8.375  16.461  14.445  0.2138  0.1468 -0.1752
  575DOPC   C4B 6746   8.474  16.419  14.012 -0.2189  0.0733  0.0857
  576DOPE   NH3 6747   6.937  21.735  16.977 -0.1228  0.3450  0.0849
  576DOPE   PO4 6748   6.880  21.882  16.679  0.3482  0.2920 -0.0592
  576DOPE   GL1 6749   6.500  21.899  16.450  0.0797  0.0563 -0.0276
  576DOPE   GL2 6750   6.492  22.147  16.284 -0.3678 -0.3237 -0.4727
  576DOPE   C1A 6751   6.247  21.808  16.064 -0.1136  0.3394 -0.1939
  576DOPE   D2A 6752   6.145  21.861  15.636  0.4229  0.1444 -0.2768
  576DOPE   C3A 6753   6.389  21.663  15.307  0.3094  0.0016 -0.1162
  576DOPE   C4A 6754   6.787  21.582  15.087 -0.1849  0.2297 -0.1113
  576DOPE   C1B 6755   6.857  22.051  16.028 -0.2389  0.0708  0.1261
  576DOPE   D2B 6756   7.285  21.974  15.921 -0.1868  0.0753 -0.2414
  576DOPE   C3B 6757   7.333  21.652  15.631 -0.2990 -0.0109 -0.1223
  576DOPE   C4B 6758   7.273  21.286  15.331 -0.2613  0.0893 -0.0131
  577POSM   NC3 6759   8.313  12.152  15.819 -0.0617  0.1529  0.2011
  577POSM   PO4 6760   8.217  11.766  15.950  0.0050  0.0329 -0.0061
  577POSM   AM1 6761   7.983  11.856  15.736 -0.5418  0.1801  0.2569
  577POSM   AM2 6762   7.714  11.957  15.749  0.0652 -0.0067  0.0367
  577POSM   T1A 6763   7.878  12.030  15.326 -0.2590 -0.2680  0.0867
  577POSM   C2A 6764   7.980  12.125  14.913 -0.0221 -0.2107  0.0985
  577POSM   C3A 6765   7.831  12.220  14.479  0.0048 -0.3289  0.0756
  577POSM   C1B 6766   7.515  12.178  15.689  0.1673  0.1342  0.0635
  577POSM   D2B 6767   7.321  12.551  15.601  0.1373  0.0132  0.0791
  577POSM   C3B 6768   7.458  12.836  15.240 -0.3323 -0.2335 -0.0338
  577POSM   C4B 6769   7.263  12.866  14.793  0.0494  0.0101  0.0062
  578DOPE   NH3 6770  10.366  20.530  15.196 -0.0583 -0.0532  0.1367
  578DOPE   PO4 6771  10.175  20.579  14.937 -0.0422  0.4708  0.1570
  578DOPE   GL1 6772  10.064  20.771  14.633  0.0076  0.1850 -0.2539
  578DOPE   GL2 6773  10.266  21.002  14.583 -0.2532  0.3469  0.0827
  578DOPE   C1A 6774   9.721  20.979  14.368  0.2354  0.0280  0.5706
  578DOPE   D2A 6775   9.546  21.110  13.957 -0.2847  0.0851 -0.3569
  578DOPE   C3A 6776   9.647  21.176  13.594  0.3096  0.0283 -0.0975
  578DOPE   C4A 6777   9.836  21.314  13.135 -0.1677 -0.1888  0.1577
  578DOPE   C1B 6778  10.139  21.014  14.099  0.2251 -0.1412 -0.0734
  578DOPE   D2B 6779  10.267  21.254  13.746  0.0319  0.2666  0.2947
  578DOPE   C3B 6780  10.166  21.644  13.537 -0.0402  0.1045 -0.0558
  578DOPE   C4B 6781   9.840  22.023  13.542  0.4199  0.2132 -0.1032
  579DOPE   NH3 6782   0.513  15.298  16.819 -0.0310  0.2062 -0.1889
  579DOPE   PO4 6783   0.440  15.591  16.836 -0.2192  0.2247 -0.1061
  579DOPE   GL1 6784   0.399  15.615  16.375  0.0296  0.2463  0.2416
  579DOPE   GL2 6785   0.165  15.380  16.467  0.1411 -0.1787  0.4744
  579DOPE   C1A 6786   0.368  15.738  15.902  0.4795 -0.0218 -0.1360
  579DOPE   D2A 6787   0.391  15.805  15.490 -0.1115  0.0466  0.0769
  579DOPE   C3A 6788   0.076  15.905  15.153 -0.1327  0.1960 -0.2595
  579DOPE   C4A 6789  -0.371  16.045  15.161 -0.2805 -0.2073  0.0344
  579DOPE   C1B 6790   0.523  15.224  16.188  0.2896 -0.2324  0.1378
  579DOPE   D2B 6791   0.942  15.017  16.249  0.2276  0.0873  0.0394
  579DOPE   C3B 6792   1.313  14.885  16.027 -0.2756 -0.2739 -0.2929
  579DOPE   C4B 6793   1.557  14.680  15.720 -0.0080 -0.0107  0.0371
  580DOPE   NH3 6794   8.056  18.709  16.368  0.1992  0.0460 -0.3616
  580DOPE   PO4 6795   7.807  18.494  16.396  0.1669 -0.1579  0.0248
  580DOPE   GL1 6796   7.882  18.399  16.025  0.2541  0.5198 -0.2539
  580DOPE   GL2 6797   7.752  18.136  15.975 -0.3480 -0.2089  0.2420
  580DOPE   C1A 6798   8.063  18.459  15.636 -0.1752  0.3564  0.1326
  580DOPE   D2A 6799   8.036  18.533  15.161  0.0089  0.2239 -0.3414
  580DOPE   C3A 6800   8.195  18.897  14.957  0.2223 -0.1427 -0.2212
  580DOPE   C4A 6801   8.509  19.226  14.738 -0.0111 -0.2353  0.0939
  580DOPE   C1B 6802   7.734  18.131  15.494  0.4718 -0.2356 -0.1800
  580DOPE   D2B 6803   7.796  17.962  15.048  0.0883  0.0680 -0.2960
  580DOPE   C3B 6804   8.192  18.098  14.853  0.1470 -0.0049 -0.0660
  580DOPE   C4B 6805   8.288  18.498  14.680  0.1431  0.4054 -0.2288
  581DOPE   NH3 6806   1.375  12.657  17.560 -0.1846 -0.2382  0.1018
  581DOPE   PO4 6807   1.444  12.561  17.295  0.1339 -0.1903 -0.1478
  581DOPE   GL1 6808   1.476  12.198  17.124  0.1700  0.0950 -0.0764
  581DOPE   GL2 6809   1.562  12.269  16.818 -0.3528  0.0210 -0.1581
  581DOPE   C1A 6810   1.173  11.925  16.912  0.1155  0.0447  0.3228
  581DOPE   D2A 6811   0.872  11.698  17.217 -0.3443  0.1954 -0.0555
  581DOPE   C3A 6812   0.428  11.608  17.142 -0.3141  0.1152  0.1645
  581DOPE   C4A 6813   0.017  11.466  17.008  0.0735  0.0232 -0.1016
  581DOPE   C1B 6814   1.706  12.428  16.413  0.0532 -0.1280  0.4584
  581DOPE   D2B 6815   1.466  12.615  16.081 -0.1891 -0.0819 -0.5363
  581DOPE   C3B 6816   1.466  13.088  15.983  0.1179  0.1149  0.2351
  581DOPE   C4B 6817   1.208  13.455  15.921 -0.0556 -0.1218 -0.0561
  582POSM   NC3 6818   9.429  14.015  15.734  0.1755 -0.2625 -0.2897
  582POSM   PO4 6819   9.230  13.689  15.669 -0.2616  0.2291 -0.0065
  582POSM   AM1 6820   9.111  13.684  15.328 -0.3245  0.0209  0.4209
  582POSM   AM2 6821   8.930  13.508  15.170 -0.0220 -0.0066  0.2597
  582POSM   T1A 6822   9.039  14.040  15.003  0.1672  0.0717 -0.4284
  582POSM   C2A 6823   9.314  14.420  14.788  0.1880  0.2075  0.0962
  582POSM   C3A 6824   9.384  14.588  14.353  0.1896  0.1503 -0.0142
  582POSM   C1B 6825   8.888  13.542  14.854 -0.4543 -0.1552 -0.1870
  582POSM   D2B 6826   8.656  13.606  14.443 -0.0020 -0.0747 -0.1525
  582POSM   C3B 6827   8.922  13.583  14.061  0.2939 -0.0893  0.0802
  582POSM   C4B 6828   8.966  13.315  13.687 -0.2210 -0.1464  0.0305
  583DOPE   NH3 6829   8.719  19.797  15.762 -0.0125  0.0308 -0.1979
  583DOPE   PO4 6830   8.971  19.917  15.816  0.0403 -0.1781  0.0184
  583DOPE   GL1 6831   9.094  19.801  15.510  0.1540 -0.2869 -0.3044
  583DOPE   GL2 6832   8.960  19.794  15.243  0.0862 -0.1443  0.1692
  583DOPE   C1A 6833   9.008  19.331  15.506 -0.0360 -0.0186 -0.0385
  583DOPE   D2A 6834   8.771  19.099  15.790  0.0582 -0.1868  0.0596
  583DOPE   C3A 6835   8.354  19.071  15.649  0.1851  0.2197  0.0399
  583DOPE   C4A 6836   7.969  18.891  15.856  0.4135 -0.1014 -0.4038
  583DOPE   C1B 6837   8.725  19.702  14.873  0.2941  0.2446 -0.3913
  583DOPE   D2B 6838   8.677  19.835  14.409  0.3168 -0.1495  0.2348
  583DOPE   C3B 6839   8.826  19.834  13.971  0.2393  0.1388  0.1196
  583DOPE   C4B 6840   8.920  20.131  13.637  0.1935  0.3498  0.0519
  584DOPE   NH3 6841  10.193  21.566  14.990  0.2077 -0.1175  0.0543
  584DOPE   PO4 6842  10.044  21.816  15.018 -0.1515 -0.0128 -0.0374
  584DOPE   GL1 6843  10.238  21.892  14.713  0.0035 -0.0504 -0.2182
  584DOPE   GL2 6844  10.301  22.152  14.796  0.4162  0.0650 -0.0337
  584DOPE   C1A 6845   9.900  21.826  14.434 -0.1597  0.1187 -0.0334
  584DOPE   D2A 6846   9.533  21.885  14.188  0.6178  0.1732 -0.1457
  584DOPE   C3A 6847   9.097  21.771  14.332 -0.0909  0.0362  0.1718
  584DOPE   C4A 6848   8.820  21.875  14.704  0.0432  0.1635  0.0523
  584DOPE   C1B 6849  10.302  22.147  14.330 -0.1549 -0.0897  0.1737
  584DOPE   D2B 6850  10.002  22.083  14.012  0.2552  0.0144 -0.0150
  584DOPE   C3B 6851   9.684  22.402  13.849  0.2745 -0.1301 -0.0761
  584DOPE   C4B 6852   9.467  22.568  13.528 -0.0691  0.1915 -0.2274
  585POSM   NC3 6853   7.662  15.625  16.376  0.0037 -0.2186  0.0093
  585POSM   PO4 6854   8.039  15.562  16.426  0.0153  0.3490 -0.1982
  585POSM   AM1 6855   7.975  15.589  16.067  0.3405  0.1088 -0.1690
  585POSM   AM2 6856   7.767  15.666  15.863  0.0955  0.1936  0.3092
  585POSM   T1A 6857   8.092  15.505  15.535 -0.0708  0.0588 -0.0269
  585POSM   C2A 6858   8.231  15.523  15.072  0.3160 -0.2817 -0.1258
  585POSM   C3A 6859   8.329  15.334  14.696 -0.3807 -0.1307 -0.0842
  585POSM   C1B 6860   7.724  15.810  15.529 -0.3036 -0.0225  0.0734
  585POSM   D2B 6861   7.888  15.965  15.176 -0.2100 -0.0525  0.0874
  585POSM   C3B 6862   7.835  15.678  14.805 -0.1029 -0.1620  0.3534
  585POSM   C4B 6863   7.462  15.684  14.515  0.4078  0.3750 -0.5409
  586DOPC   NC3 6864   3.533  19.407  16.466 -0.0689 -0.1238  0.0072
  586DOPC   PO4 6865   3.337  19.106  16.643  0.2687 -0.1910  0.1433
  586DOPC   GL1 6866   2.931  19.137  16.566  0.0840 -0.4230 -0.2659
  586DOPC   GL2 6867   2.915  19.416  16.662 -0.1189  0.0785 -0.1809
  586DOPC   C1A 6868   2.703  19.148  16.162  0.0463 -0.4713  0.0554
  586DOPC   D2A 6869   2.468  19.081  15.703  0.0226  0.0837 -0.0649
  586DOPC   C3A 6870   2.375  19.244  15.297 -0.4877 -0.0893 -0.2448
  586DOPC   C4A 6871   2.085  19.547  15.176 -0.3880 -0.0981  0.0782
  586DOPC   C1B 6872   3.057  19.479  16.196 -0.1108 -0.4116  0.2693
  586DOPC   D2B 6873   3.039  19.333  15.800 -0.1077  0.0416  0.0568
  586DOPC   C3B 6874   2.835  19.476  15.368 -0.0441 -0.0095  0.0832
  586DOPC   C4B 6875   2.540  19.731  14.987 -0.2623  0.0592 -0.0731
  587DOPE   NH3 6876   1.455  13.910  17.351  0.1718 -0.4197  0.0233
  587DOPE   PO4 6877   1.502  13.844  17.059  0.0252 -0.2271  0.0095
  587DOPE   GL1 6878   1.589  13.721  16.695  0.0098 -0.0910  0.2794
  587DOPE   GL2 6879   1.697  13.909  16.496  0.2327 -0.3403  0.2357
  587DOPE   C1A 6880   1.350  13.527  16.388  0.0689  0.0436 -0.0428
  587DOPE   D2A 6881   0.907  13.475  16.357 -0.0918  0.0214  0.2224
  587DOPE   C3A 6882   0.767  13.734  15.970  0.0224  0.0163  0.2177
  587DOPE   C4A 6883   0.981  13.636  15.532 -0.1799 -0.0431  0.4286
  587DOPE   C1B 6884   1.838  14.009  16.107  0.1612 -0.1923  0.0363
  587DOPE   D2B 6885   2.004  14.048  15.688 -0.2566 -0.0828  0.1289
  587DOPE   C3B 6886   1.849  14.085  15.203 -0.0199 -0.1165  0.2368
  587DOPE   C4B 6887   1.936  14.046  14.733  0.2482  0.1707 -0.0907
  588DOPC   NC3 6888  10.768  17.318  15.052  0.1257  0.1024 -0.0221
  588DOPC   PO4 6889  10.568  16.994  15.068 -0.0108 -0.1599 -0.0809
  588DOPC   GL1 6890  10.382  16.944  14.719 -0.2646  0.1551  0.3114
  588DOPC   GL2 6891  10.404  17.292  14.645 -0.1235  0.3218  0.0816
  588DOPC   C1A 6892  10.066  16.984  14.416 -0.3104 -0.0043  0.0003
  588DOPC   D2A 6893  10.112  16.917  13.973 -0.1592  0.0165  0.0823
  588DOPC   C3A 6894   9.801  16.906  13.601 -0.1479 -0.0947 -0.2829
  588DOPC   C4A 6895   9.660  16.988  13.163 -0.1851  0.1586  0.1319
  588DOPC   C1B 6896  10.419  17.232  14.175 -0.0801  0.0389  0.1879
  588DOPC   D2B 6897  10.623  17.001  13.800  0.2391 -0.1412 -0.3636
  588DOPC   C3B 6898  10.286  16.784  13.538  0.2857 -0.2294 -0.0754
  588DOPC   C4B 6899  10.081  16.554  13.147 -0.0168  0.1348 -0.0554
  589POSM   NC3 6900   1.394  11.138  17.491 -0.2787 -0.0608 -0.0710
  589POSM   PO4 6901   1.375  10.982  17.110 -0.2298 -0.0740  0.0290
  589POSM   AM1 6902   1.287  11.166  16.883  0.1307 -0.1987  0.0512
  589POSM   AM2 6903   1.417  11.358  16.722  0.1542  0.1267  0.0568
  589POSM   T1A 6904   0.972  11.550  16.701  0.1971 -0.0015 -0.1745
  589POSM   C2A 6905   0.663  11.877  16.775  0.1619  0.1746 -0.0639
  589POSM   C3A 6906   0.593  12.360  16.838 -0.1019  0.0392 -0.0257
  589POSM   C1B 6907   1.400  11.211  16.412 -0.1415 -0.1364  0.1839
  589POSM   D2B 6908   1.428  10.995  16.008  0.4486  0.2260  0.3345
  589POSM   C3B 6909   1.437  11.300  15.648 -0.1356  0.0233 -0.1551
  589POSM   C4B 6910   1.288  11.331  15.215  0.1536 -0.0130  0.0643
  590DOPE   NH3 6911   8.525  14.128  15.747  0.0986  0.1570 -0.0895
  590DOPE   PO4 6912   8.470  13.894  15.958  0.0102 -0.2825 -0.2010
  590DOPE   GL1 6913   8.107  13.927  15.695 -0.2180 -0.1628  0.1375
  590DOPE   GL2 6914   8.163  13.680  15.504 -0.0473  0.1737  0.0581
  590DOPE   C1A 6915   7.963  14.210  15.340 -0.0968  0.1594  0.3375
  590DOPE   D2A 6916   7.839  14.576  15.226 -0.1098  0.1174 -0.1221
  590DOPE   C3A 6917   7.726  14.546  14.810  0.0614  0.1227  0.1109
  590DOPE   C4A 6918   7.624  14.305  14.385 -0.2368  0.0561  0.1192
  590DOPE   C1B 6919   7.869  13.664  15.076 -0.2776  0.0462 -0.0117
  590DOPE   D2B 6920   7.862  14.002  14.771  0.2044  0.0188  0.1075
  590DOPE   C3B 6921   8.142  14.105  14.351 -0.2192 -0.4089  0.0921
  590DOPE   C4B 6922   7.978  14.351  13.991 -0.2803 -0.0960  0.0337
  591DOPE   NH3 6923   9.659  14.712  15.413  0.2405  0.2583  0.1279
  591DOPE   PO4 6924   9.530  14.960  15.542  0.0605  0.5470 -0.0698
  591DOPE   GL1 6925   9.462  15.072  15.173 -0.2757 -0.0484 -0.1487
  591DOPE   GL2 6926   9.184  15.038  15.075 -0.1158  0.1741 -0.0478
  591DOPE   C1A 6927   9.425  15.438  14.894 -0.0185 -0.2989 -0.3165
  591DOPE   D2A 6928   9.796  15.675  14.748  0.1202  0.4347  0.1841
  591DOPE   C3A 6929  10.062  15.548  14.349 -0.0720  0.0652  0.2650
  591DOPE   C4A 6930  10.167  15.432  13.934  0.0379  0.1722 -0.1264
  591DOPE   C1B 6931   9.279  15.022  14.626  0.3213  0.1811 -0.1917
  591DOPE   D2B 6932   9.122  14.985  14.213  0.0013 -0.0889  0.0888
  591DOPE   C3B 6933   8.802  15.284  14.039 -0.1457 -0.1988 -0.0899
  591DOPE   C4B 6934   8.727  15.461  13.627  0.2803 -0.2713 -0.4256
  592POSM   NC3 6935   3.219  12.870  16.992 -0.3481 -0.1073  0.1403
  592POSM   PO4 6936   3.256  12.507  16.936 -0.0921  0.1241 -0.1953
  592POSM   AM1 6937   3.406  12.557  16.703 -0.3069  0.3999 -0.1858
  592POSM   AM2 6938   3.654  12.563  16.594 -0.0103 -0.2500  0.3780
  592POSM   T1A 6939   3.360  12.537  16.188 -0.2053  0.0201 -0.0934
  592POSM   C2A 6940   3.495  12.797  15.798 -0.3920  0.1709 -0.2551
  592POSM   C3A 6941   3.732  13.168  15.719  0.3633  0.2478  0.0348
  592POSM   C1B 6942   3.897  12.537  16.376  0.0485  0.0653 -0.1619
  592POSM   D2B 6943   4.222  12.330  16.086 -0.4226 -0.1211 -0.1428
  592POSM   C3B 6944   4.143  11.906  15.968 -0.3208  0.0305 -0.1399
  592POSM   C4B 6945   3.887  11.610  16.211  0.1167 -0.0135 -0.2386
  593DOPS   CNO 6946   6.668  14.139  16.221 -0.0015 -0.2394 -0.0097
  593DOPS   PO4 6947   6.934  13.981  16.425 -0.0116  0.0245  0.0850
  593DOPS   GL1 6948   7.044  13.926  16.040  0.1223 -0.4281 -0.1640
  593DOPS   GL2 6949   7.345  13.889  16.100 -0.1405 -0.0183  0.1175
  593DOPS   C1A 6950   6.926  13.562  15.760 -0.0957 -0.0776 -0.1234
  593DOPS   D2A 6951   6.854  13.649  15.336  0.1276  0.0131 -0.4881
  593DOPS   C3A 6952   6.862  13.609  14.883 -0.0417 -0.0262  0.2265
  593DOPS   C4A 6953   6.824  13.673  14.423  0.0190  0.1647  0.3026
  593DOPS   C1B 6954   7.290  13.931  15.643  0.0737 -0.1876  0.0594
  593DOPS   D2B 6955   7.077  14.163  15.282  0.1131 -0.1390  0.1751
  593DOPS   C3B 6956   7.266  14.395  14.909 -0.2619 -0.3273  0.0069
  593DOPS   C4B 6957   7.226  14.772  14.659 -0.0650 -0.0087 -0.2357
  594DOPC   NC3 6958   3.906  22.320  16.399  0.1477 -0.0718 -0.0370
  594DOPC   PO4 6959   3.971  22.030  16.576  0.2183  0.0791 -0.0619
  594DOPC   GL1 6960   3.979  21.808  16.192  0.0678  0.0160 -0.4096
  594DOPC   GL2 6961   3.781  22.013  16.027  0.0329 -0.2584 -0.3329
  594DOPC   C1A 6962   3.727  21.613  15.807  0.0317  0.2464 -0.1695
  594DOPC   D2A 6963   3.610  21.672  15.394  0.0018 -0.1630 -0.1437
  594DOPC   C3A 6964   3.403  21.490  15.060 -0.1739 -0.0255 -0.2716
  594DOPC   C4A 6965   3.308  21.279  14.653  0.3597  0.0352 -0.0451
  594DOPC   C1B 6966   3.362  21.992  15.798  0.2789  0.3037 -0.2452
  594DOPC   D2B 6967   3.138  21.799  15.449 -0.1466  0.2728 -0.0696
  594DOPC   C3B 6968   3.213  21.926  15.018 -0.0036  0.2148 -0.1063
  594DOPC   C4B 6969   3.580  21.786  14.658 -0.4176  0.2290  0.3304
  595POSM   NC3 6970   4.975  16.946  15.863 -0.0844 -0.0785  0.0153
  595POSM   PO4 6971   5.287  17.208  15.977  0.1112 -0.3408 -0.0333
  595POSM   AM1 6972   5.186  17.254  15.631 -0.0886 -0.1669 -0.0370
  595POSM   AM2 6973   5.231  17.409  15.444  0.0765  0.1272 -0.2054
  595POSM   T1A 6974   5.282  16.948  15.219  0.1130 -0.0844  0.2613
  595POSM   C2A 6975   5.089  16.736  14.878 -0.0659  0.1394 -0.0102
  595POSM   C3A 6976   4.666  16.571  14.679 -0.3367 -0.1098  0.1363
  595POSM   C1B 6977   5.162  17.488  15.157  0.4414  0.1314 -0.3669
  595POSM   D2B 6978   5.054  17.270  14.688 -0.1801 -0.3941  0.2365
  595POSM   C3B 6979   5.323  16.921  14.499  0.2650  0.0084  0.1937
  595POSM   C4B 6980   5.482  16.905  14.041 -0.1998  0.0894  0.4128
  596DOPE   NH3 6981   6.467  13.069  16.585 -0.1826  0.2073 -0.0373
  596DOPE   PO4 6982   6.650  13.089  16.320  0.1575 -0.3241 -0.0796
  596DOPE   GL1 6983   6.578  13.234  15.973 -0.0088  0.3149 -0.2682
  596DOPE   GL2 6984   6.257  13.319  16.052  0.0563  0.4392  0.1915
  596DOPE   C1A 6985   6.428  13.413  15.597  0.2682  0.1386 -0.0941
  596DOPE   D2A 6986   6.455  13.525  15.159 -0.2163 -0.4648  0.0253
  596DOPE   C3A 6987   6.436  13.376  14.709 -0.0448 -0.3055  0.1079
  596DOPE   C4A 6988   6.049  13.466  14.444  0.1907 -0.0389  0.0223
  596DOPE   C1B 6989   5.951  13.344  15.707 -0.0892 -0.1757  0.1127
  596DOPE   D2B 6990   5.565  13.303  15.466 -0.0062 -0.0511 -0.0542
  596DOPE   C3B 6991   5.487  13.065  15.043 -0.0973  0.2797 -0.1872
  596DOPE   C4B 6992   5.265  13.260  14.676 -0.0967  0.0337 -0.0844
  597DOPS   CNO 6993   5.682  12.293  16.741  0.1990  0.1989 -0.0448
  597DOPS   PO4 6994   5.721  12.099  16.405 -0.2509  0.5132  0.0813
  597DOPS   GL1 6995   5.495  12.103  16.107  0.1445 -0.0980  0.1811
  597DOPS   GL2 6996   5.510  12.411  16.042  0.0596  0.0805 -0.0831
  597DOPS   C1A 6997   5.594  11.963  15.704 -0.1581  0.1927  0.2004
  597DOPS   D2A 6998   5.600  11.965  15.207  0.1123  0.0732  0.0743
  597DOPS   C3A 6999   5.188  12.093  15.018  0.3692 -0.0666 -0.1784
  597DOPS   C4A 7000   4.917  12.283  14.730  0.0245 -0.0711  0.1103
  597DOPS   C1B 7001   5.424  12.490  15.598 -0.3174  0.0716  0.0544
  597DOPS   D2B 7002   5.497  12.559  15.119 -0.0528 -0.1804  0.2197
  597DOPS   C3B 7003   5.248  12.688  14.722  0.0955  0.0494  0.0288
  597DOPS   C4B 7004   4.875  12.953  14.714 -0.3352  0.3737  0.0996
  598DOPS   CNO 7005   6.769  21.204  17.088  0.0056  0.1374 -0.5085
  598DOPS   PO4 7006   6.457  21.113  16.860  0.1494  0.0476 -0.0465
  598DOPS   GL1 7007   6.201  21.031  16.500  0.3273 -0.0215 -0.1462
  598DOPS   GL2 7008   6.352  21.040  16.272 -0.0240 -0.1159 -0.3011
  598DOPS   C1A 7009   5.911  20.934  16.141  0.0091 -0.1858  0.0564
  598DOPS   D2A 7010   5.986  21.054  15.668 -0.1203 -0.1327  0.1437
  598DOPS   C3A 7011   5.775  20.725  15.358  0.1042  0.1808  0.2431
  598DOPS   C4A 7012   5.707  20.268  15.428 -0.1366  0.0781  0.2780
  598DOPS   C1B 7013   6.658  20.872  15.990 -0.0025  0.1865 -0.3076
  598DOPS   D2B 7014   6.821  20.562  15.627  0.2494  0.1600 -0.3094
  598DOPS   C3B 7015   6.664  20.339  15.206 -0.0057 -0.1534 -0.1797
  598DOPS   C4B 7016   6.757  19.990  14.922  0.2354 -0.1804 -0.0471
  599DOPE   NH3 7017  11.440  12.917  14.731  0.0517  0.2529  0.1118
  599DOPE   PO4 7018  11.304  12.674  14.559  0.1835  0.2986  0.0634
  599DOPE   GL1 7019  11.131  12.350  14.404 -0.1038 -0.0813  0.1438
  599DOPE   GL2 7020  11.381  12.163  14.413 -0.2087  0.0557 -0.0525
  599DOPE   C1A 7021  11.096  12.428  13.929  0.1302  0.1290 -0.0729
  599DOPE   D2A 7022  11.192  12.597  13.436 -0.1901  0.0910  0.1909
  599DOPE   C3A 7023  11.082  12.433  13.016  0.0779 -0.1517 -0.1034
  599DOPE   C4A 7024  11.317  12.296  12.695 -0.4698 -0.2998  0.1351
  599DOPE   C1B 7025  11.158  11.926  14.122 -0.0357  0.4607 -0.2974
  599DOPE   D2B 7026  10.869  11.883  13.801  0.1380 -0.0076 -0.0038
  599DOPE   C3B 7027  10.935  11.558  13.508 -0.2834 -0.0447  0.1588
  599DOPE   C4B 7028  11.068  11.163  13.344 -0.0100  0.0992 -0.1245
  600DOPC   NC3 7029   6.485  13.883  16.718 -0.0216  0.0548  0.1309
  600DOPC   PO4 7030   6.202  13.994  16.417 -0.3183 -0.2224  0.0207
  600DOPC   GL1 7031   6.036  14.038  16.077 -0.1184 -0.3446  0.0065
  600DOPC   GL2 7032   6.022  13.723  15.965  0.1039 -0.1503  0.1860
  600DOPC   C1A 7033   6.038  14.171  15.655  0.1072  0.1319 -0.1620
  600DOPC   D2A 7034   5.904  14.354  15.270  0.1107  0.1718 -0.1537
  600DOPC   C3A 7035   5.971  14.012  14.977 -0.0893  0.0711  0.0171
  600DOPC   C4A 7036   6.024  14.069  14.506 -0.0985  0.2005  0.2883
  600DOPC   C1B 7037   5.614  13.659  15.992 -0.0477  0.0333 -0.3073
  600DOPC   D2B 7038   5.120  13.688  16.001  0.0158 -0.1488 -0.0200
  600DOPC   C3B 7039   4.736  14.057  15.946 -0.0370  0.0591 -0.1249
  600DOPC   C4B 7040   4.259  14.039  15.839  0.1872  0.3443  0.0844
  601DOPS   CNO 7041  10.586  17.750  15.703 -0.0607 -0.0595 -0.0778
  601DOPS   PO4 7042  10.764  17.429  15.498 -0.1069 -0.0160 -0.1472
  601DOPS   GL1 7043  10.632  17.750  15.257  0.1586  0.2559  0.1509
  601DOPS   GL2 7044  10.344  17.887  15.248 -0.1011 -0.1531  0.0261
  601DOPS   C1A 7045  10.544  17.754  14.807 -0.0386  0.0441  0.0067
  601DOPS   D2A 7046  10.267  17.820  14.375  0.3820  0.3083 -0.1317
  601DOPS   C3A 7047  10.241  17.717  13.954  0.0726  0.0328  0.1191
  601DOPS   C4A 7048  10.250  17.347  13.667 -0.3073 -0.0841  0.0461
  601DOPS   C1B 7049  10.001  17.853  15.012 -0.5004 -0.1354  0.0443
  601DOPS   D2B 7050   9.782  18.044  14.647 -0.4210 -0.1217 -0.2708
  601DOPS   C3B 7051   9.771  18.454  14.584 -0.0722 -0.0664  0.2000
  601DOPS   C4B 7052  10.042  18.695  14.243 -0.2124  0.3168  0.1130
  602DOPE   NH3 7053   3.089  20.861  16.397 -0.1479 -0.2109  0.0332
  602DOPE   PO4 7054   3.265  21.114  16.349 -0.0017  0.1671 -0.1867
  602DOPE   GL1 7055   3.531  21.338  16.059 -0.0528 -0.4039  0.1485
  602DOPE   GL2 7056   3.259  21.493  15.926  0.1882 -0.2617  0.1859
  602DOPE   C1A 7057   3.830  21.131  15.793  0.0648 -0.1131  0.0175
  602DOPE   D2A 7058   4.199  21.240  15.454 -0.0437  0.2262  0.3437
  602DOPE   C3A 7059   4.300  21.720  15.321  0.2287 -0.2381 -0.0824
  602DOPE   C4A 7060   4.446  22.188  15.328  0.1049 -0.3600  0.1650
  602DOPE   C1B 7061   3.251  21.309  15.519 -0.1432 -0.5643 -0.1813
  602DOPE   D2B 7062   3.224  21.047  15.141  0.0561 -0.0702  0.1879
  602DOPE   C3B 7063   3.489  20.660  15.008 -0.0283  0.4148  0.0139
  602DOPE   C4B 7064   3.516  20.481  14.576  0.2048  0.0561 -0.1612
  603DOPE   NH3 7065   8.144  19.874  16.204 -0.2671  0.1766 -0.0255
  603DOPE   PO4 7066   8.321  19.712  16.053  0.0970  0.0432  0.1777
  603DOPE   GL1 7067   8.275  19.656  15.635  0.3839  0.2504 -0.3164
  603DOPE   GL2 7068   8.104  19.793  15.391  0.1844 -0.0411  0.2006
  603DOPE   C1A 7069   8.576  19.492  15.293 -0.0188 -0.0968  0.1403
  603DOPE   D2A 7070   8.717  19.046  15.179 -0.0095 -0.0221  0.1371
  603DOPE   C3A 7071   9.076  18.920  14.855 -0.0651 -0.0547  0.1244
  603DOPE   C4A 7072   9.217  18.708  14.486 -0.1558  0.0347  0.1390
  603DOPE   C1B 7073   8.248  19.774  14.877 -0.1099 -0.3420 -0.0237
  603DOPE   D2B 7074   8.201  19.595  14.476  0.2405  0.3864  0.1755
  603DOPE   C3B 7075   8.203  19.149  14.393  0.1489  0.0614  0.1119
  603DOPE   C4B 7076   8.293  18.769  14.130 -0.1654  0.2035  0.1468
  604DOPE   NH3 7077   6.595  17.114  16.507  0.0642  0.3071  0.1965
  604DOPE   PO4 7078   6.415  16.975  16.261 -0.1475 -0.1077  0.0419
  604DOPE   GL1 7079   6.516  16.820  15.983  0.0462 -0.0382 -0.5071
  604DOPE   GL2 7080   6.753  16.818  15.863 -0.1537 -0.0368  0.2879
  604DOPE   C1A 7081   6.246  16.776  15.616  0.0965 -0.0060 -0.1265
  604DOPE   D2A 7082   6.099  16.786  15.177  0.1259 -0.1644 -0.1046
  604DOPE   C3A 7083   6.308  16.529  14.852  0.1026  0.1267  0.0576
  604DOPE   C4A 7084   6.765  16.396  14.783 -0.1084  0.2240  0.3160
  604DOPE   C1B 7085   6.730  16.877  15.394  0.0030 -0.1191  0.3039
  604DOPE   D2B 7086   6.554  17.101  14.985  0.0774 -0.1605  0.3381
  604DOPE   C3B 7087   6.719  17.448  14.673 -0.0963 -0.3732 -0.1600
  604DOPE   C4B 7088   6.985  17.785  14.496 -0.0479  0.1054 -0.3416
  605DOPC   NC3 7089  11.242  21.787  15.004  0.1792  0.0852  0.1459
  605DOPC   PO4 7090  11.158  22.138  15.211  0.2095  0.1181  0.0120
  605DOPC   GL1 7091  10.944  22.044  14.781  0.1539  0.4102 -0.1710
  605DOPC   GL2 7092  10.789  22.176  14.707  0.1911 -0.2782  0.1628
  605DOPC   C1A 7093  11.276  21.947  14.467  0.0490 -0.0651  0.1507
  605DOPC   D2A 7094  11.390  22.191  14.080  0.1446  0.1936  0.2621
  605DOPC   C3A 7095  11.287  22.114  13.687 -0.0020  0.0728  0.2601
  605DOPC   C4A 7096  10.892  22.122  13.359  0.3744 -0.2023  0.0687
  605DOPC   C1B 7097  10.963  22.347  14.356  0.0685 -0.0073 -0.1984
  605DOPC   D2B 7098  11.027  22.573  13.926  0.2627  0.1895  0.1242
  605DOPC   C3B 7099  10.737  22.589  13.598 -0.0064  0.2425  0.1270
  605DOPC   C4B 7100  10.472  22.810  13.278  0.0744 -0.2673  0.0119
  606POSM   NC3 7101   2.568  17.732  16.925 -0.3638  0.0428 -0.1860
  606POSM   PO4 7102   2.346  17.402  16.909 -0.1790 -0.2713 -0.7133
  606POSM   AM1 7103   2.239  17.352  16.639 -0.1754 -0.2994  0.4228
  606POSM   AM2 7104   2.190  17.196  16.438  0.1536  0.3264  0.3994
  606POSM   T1A 7105   2.051  17.566  16.218  0.1942  0.1316 -0.1714
  606POSM   C2A 7106   2.169  17.665  15.793 -0.0362  0.0743  0.1330
  606POSM   C3A 7107   2.549  17.796  15.565  0.0986 -0.2646  0.1564
  606POSM   C1B 7108   1.878  17.054  16.373 -0.1021 -0.0390 -0.2154
  606POSM   D2B 7109   1.425  17.051  16.406  0.5263 -0.1390 -0.0800
  606POSM   C3B 7110   1.454  16.815  16.087  0.2602 -0.1452 -0.0851
  606POSM   C4B 7111   1.300  16.940  15.671  0.1764 -0.2669  0.0237
  607POSM   NC3 7112   0.417  21.541  17.183 -0.0532  0.1259  0.1460
  607POSM   PO4 7113   0.228  21.227  17.339  0.0264 -0.2089 -0.0748
  607POSM   AM1 7114   0.116  21.214  17.029  0.1499  0.0096 -0.0355
  607POSM   AM2 7115   0.197  21.118  16.798  0.1798  0.2785 -0.3245
  607POSM   T1A 7116  -0.085  21.480  16.621  0.0780  0.1052  0.2394
  607POSM   C2A 7117  -0.404  21.600  16.360  0.1986  0.0705 -0.3471
  607POSM   C3A 7118  -0.381  21.941  16.055 -0.0424  0.2454  0.1465
  607POSM   C1B 7119  -0.020  21.003  16.563  0.0389  0.1142  0.1230
  607POSM   D2B 7120  -0.306  21.132  16.177  0.0270 -0.2671 -0.0462
  607POSM   C3B 7121  -0.039  20.858  15.879  0.3049 -0.2961  0.0036
  607POSM   C4B 7122   0.349  20.575  15.927  0.0251  0.1039 -0.0605
  608DOPC   NC3 7123   5.320  16.572  16.437 -0.0964 -0.0204  0.1347
  608DOPC   PO4 7124   5.020  16.569  16.149  0.1862 -0.1181 -0.0021
  608DOPC   GL1 7125   5.056  16.397  15.784  0.1216  0.0210  0.1422
  608DOPC   GL2 7126   5.223  16.520  15.555 -0.1126  0.0081  0.1516
  608DOPC   C1A 7127   5.054  16.041  15.481 -0.2598  0.1278 -0.0944
  608DOPC   D2A 7128   5.297  15.730  15.198  0.1092  0.0974 -0.0495
  608DOPC   C3A 7129   5.133  15.442  14.882 -0.0328  0.0899  0.1051
  608DOPC   C4A 7130   5.106  15.187  14.497  0.2467 -0.1054  0.2473
  608DOPC   C1B 7131   5.371  16.328  15.168  0.1242 -0.0133  0.2752
  608DOPC   D2B 7132   5.350  16.102  14.785 -0.1635 -0.0117  0.2497
  608DOPC   C3B 7133   5.523  15.921  14.375  0.0556  0.2472 -0.0209
  608DOPC   C4B 7134   5.499  15.732  13.963  0.1583  0.1828  0.5105
  609DOPC   NC3 7135   7.213  16.984  16.607  0.2196 -0.1005 -0.0231
  609DOPC   PO4 7136   7.391  17.296  16.460 -0.0515  0.1958  0.2537
  609DOPC   GL1 7137   7.385  17.152  15.943  0.0663 -0.1518  0.0225
  609DOPC   GL2 7138   7.535  16.818  16.033 -0.0463 -0.2304 -0.2947
  609DOPC   C1A 7139   7.552  17.193  15.512 -0.1223 -0.2280 -0.0796
  609DOPC   D2A 7140   7.797  16.997  15.185  0.0808 -0.1577 -0.4551
  609DOPC   C3A 7141   8.156  17.306  15.069 -0.0099 -0.1347  0.0029
  609DOPC   C4A 7142   8.435  17.643  14.889  0.1785  0.0119  0.0718
  609DOPC   C1B 7143   7.279  16.811  15.647  0.1789  0.2699  0.4034
  609DOPC   D2B 7144   7.145  16.650  15.227  0.0875  0.2033  0.1247
  609DOPC   C3B 7145   7.266  16.334  14.913 -0.1464 -0.1660 -0.2357
  609DOPC   C4B 7146   7.347  15.891  15.110  0.2092  0.4066 -0.2410
  610DOPS   CNO 7147   1.360  19.896  17.054 -0.2723  0.0327  0.1702
  610DOPS   PO4 7148   1.013  19.825  17.162 -0.0598 -0.0594  0.0376
  610DOPS   GL1 7149   1.060  20.130  16.836  0.0085  0.0014  0.3849
  610DOPS   GL2 7150   0.955  20.091  16.562 -0.1416  0.1999  0.0339
  610DOPS   C1A 7151   1.427  20.231  16.549  0.0670  0.1696  0.3184
  610DOPS   D2A 7152   1.436  19.909  16.205 -0.0359 -0.0627  0.1805
  610DOPS   C3A 7153   1.314  20.146  15.792 -0.2550  0.0989  0.0364
  610DOPS   C4A 7154   1.183  20.306  15.386 -0.0847 -0.1073  0.4315
  610DOPS   C1B 7155   0.906  19.875  16.178  0.1334  0.2542  0.2687
  610DOPS   D2B 7156   1.053  19.559  15.864  0.2312  0.4350 -0.2655
  610DOPS   C3B 7157   1.537  19.504  15.882  0.2424 -0.1883  0.0680
  610DOPS   C4B 7158   1.855  19.598  16.198 -0.0282  0.0015 -0.0211
  611DOPE   NH3 7159   7.643  13.129  16.235  0.3564  0.1852  0.1805
  611DOPE   PO4 7160   7.365  13.042  16.134 -0.0934  0.0660 -0.0303
  611DOPE   GL1 7161   7.265  13.117  15.742  0.2199  0.2222 -0.1468
  611DOPE   GL2 7162   6.955  13.087  15.853  0.2939 -0.3164 -0.1040
  611DOPE   C1A 7163   7.302  13.382  15.371  0.4821  0.1104 -0.1658
  611DOPE   D2A 7164   7.356  13.383  14.895 -0.0972 -0.1859  0.2033
  611DOPE   C3A 7165   7.054  13.242  14.593  0.4096 -0.0355  0.2839
  611DOPE   C4A 7166   6.901  12.833  14.350 -0.1575  0.0795 -0.2736
  611DOPE   C1B 7167   6.863  13.131  15.408 -0.0392  0.2386  0.2429
  611DOPE   D2B 7168   6.781  13.051  14.936 -0.0095 -0.2492 -0.1725
  611DOPE   C3B 7169   6.492  12.831  14.627 -0.0224 -0.1688 -0.0307
  611DOPE   C4B 7170   6.248  12.416  14.662 -0.0571  0.2155 -0.2287
  612DOPS   CNO 7171   9.379  16.619  15.823 -0.0025  0.4290  0.2989
  612DOPS   PO4 7172   9.277  16.387  15.527  0.1480 -0.0598 -0.0010
  612DOPS   GL1 7173   9.238  16.195  15.309 -0.1148  0.2096 -0.0634
  612DOPS   GL2 7174   8.984  16.026  15.265  0.0033  0.1177  0.2771
  612DOPS   C1A 7175   9.194  16.371  14.871 -0.0082  0.1956 -0.0506
  612DOPS   D2A 7176   9.004  16.609  14.514 -0.0261  0.2577 -0.5286
  612DOPS   C3A 7177   8.815  16.993  14.593  0.3323  0.5114 -0.1087
  612DOPS   C4A 7178   8.701  17.234  14.940 -0.2521  0.1094  0.1425
  612DOPS   C1B 7179   8.980  15.907  14.836 -0.2736 -0.1127  0.1831
  612DOPS   D2B 7180   8.700  16.093  14.437 -0.0563  0.0782  0.2072
  612DOPS   C3B 7181   8.929  16.289  14.039  0.0007  0.0493  0.0312
  612DOPS   C4B 7182   8.866  16.664  13.829 -0.1519  0.4167 -0.2971
  613DOPE   NH3 7183  10.080  14.035  11.616 -0.1716 -0.0495 -0.1352
  613DOPE   PO4 7184   9.882  13.906  11.410 -0.0846 -0.0322  0.2292
  613DOPE   GL1 7185  10.092  13.547  11.590 -0.1946 -0.1892 -0.1454
  613DOPE   GL2 7186  10.390  13.465  11.639 -0.3690 -0.2234  0.1239
  613DOPE   C1A 7187   9.969  13.155  11.760 -0.0572  0.0481  0.0313
  613DOPE   D2A 7188   9.917  13.146  12.173 -0.1960 -0.0192 -0.1242
  613DOPE   C3A 7189   9.751  12.984  12.543  0.2087  0.1803  0.1061
  613DOPE   C4A 7190   9.762  12.666  12.864  0.0982 -0.1729 -0.1334
  613DOPE   C1B 7191  10.756  13.132  11.724  0.1150  0.0638  0.1213
  613DOPE   D2B 7192  11.069  12.790  11.681 -0.0163 -0.2248  0.2276
  613DOPE   C3B 7193  11.509  12.802  11.689 -0.2204  0.1530  0.4344
  613DOPE   C4B 7194  11.925  12.889  11.752 -0.1800  0.0413 -0.1962
  614DOPS   CNO 7195   1.255  14.961  13.105  0.1199 -0.0757 -0.1451
  614DOPS   PO4 7196   1.559  14.918  13.323  0.2099 -0.0443  0.4599
  614DOPS   GL1 7197   1.715  14.610  13.542 -0.0953  0.3217  0.0486
  614DOPS   GL2 7198   1.619  14.641  13.858 -0.0699 -0.2848  0.1037
  614DOPS   C1A 7199   1.653  14.128  13.430  0.4412 -0.2127 -0.1043
  614DOPS   D2A 7200   1.395  13.768  13.208 -0.1762  0.3169  0.1750
  614DOPS   C3A 7201   1.694  13.448  12.941 -0.0051 -0.2700  0.1523
  614DOPS   C4A 7202   1.828  13.093  12.767 -0.1403  0.0143  0.1786
  614DOPS   C1B 7203   1.432  14.768  14.294  0.2200  0.2037 -0.4899
  614DOPS   D2B 7204   1.412  14.835  14.725  0.1102 -0.1579 -0.0188
  614DOPS   C3B 7205   1.022  14.596  14.818 -0.3474  0.0790 -0.2507
  614DOPS   C4B 7206   0.695  14.471  15.117  0.3703  0.1119 -0.0944
  615DOPE   NH3 7207   7.684  14.278  12.493 -0.0510  0.2324 -0.0089
  615DOPE   PO4 7208   7.809  13.960  12.527 -0.2657 -0.1972 -0.0358
  615DOPE   GL1 7209   8.024  13.702  12.722  0.2049  0.3007  0.3621
  615DOPE   GL2 7210   8.026  13.429  12.614 -0.0096  0.1416 -0.0211
  615DOPE   C1A 7211   8.079  13.428  13.155 -0.0376 -0.0612  0.2909
  615DOPE   D2A 7212   7.836  13.066  13.336 -0.2881  0.2518  0.1257
  615DOPE   C3A 7213   8.109  12.851  13.687  0.0592 -0.2108  0.0960
  615DOPE   C4A 7214   8.490  12.664  13.869 -0.4150 -0.3542 -0.2167
  615DOPE   C1B 7215   8.376  13.214  12.834  0.0723 -0.0385 -0.1033
  615DOPE   D2B 7216   8.759  13.162  12.677  0.1974 -0.1506 -0.0040
  615DOPE   C3B 7217   9.156  13.282  12.530 -0.2065 -0.1291  0.2176
  615DOPE   C4B 7218   9.578  13.432  12.434  0.1685  0.0324  0.1162
  616DOPE   NH3 7219   8.572  11.252  12.316 -0.3826  0.1421  0.0219
  616DOPE   PO4 7220   8.790  11.383  12.165 -0.0039  0.3186 -0.2430
  616DOPE   GL1 7221   8.933  11.737  12.338 -0.1214  0.1866  0.2860
  616DOPE   GL2 7222   9.161  11.641  12.438 -0.1568  0.2530 -0.2232
  616DOPE   C1A 7223   8.963  12.227  12.395  0.0243 -0.0315  0.2191
  616DOPE   D2A 7224   8.842  12.594  12.605 -0.3355  0.1378  0.0958
  616DOPE   C3A 7225   8.370  12.652  12.611 -0.0452 -0.0879 -0.1606
  616DOPE   C4A 7226   8.025  12.728  12.953  0.3288  0.5861  0.3117
  616DOPE   C1B 7227   9.265  11.952  12.737  0.1096 -0.0506  0.0126
  616DOPE   D2B 7228   9.401  12.386  12.665  0.0969  0.0124  0.1675
  616DOPE   C3B 7229   9.304  12.747  12.425  0.2479  0.1308 -0.2135
  616DOPE   C4B 7230   8.992  12.991  12.165 -0.0593  0.2131  0.0482
  617DOPC   NC3 7231   9.741  14.666  11.444 -0.1599  0.1490  0.3303
  617DOPC   PO4 7232   9.599  14.332  11.590 -0.1591 -0.1290 -0.1249
  617DOPC   GL1 7233   9.518  14.438  11.970  0.2532  0.1541  0.2199
  617DOPC   GL2 7234   9.725  14.577  12.075  0.1410 -0.3132 -0.0281
  617DOPC   C1A 7235   9.406  14.175  12.307 -0.4572 -0.0551  0.1658
  617DOPC   D2A 7236   9.110  13.916  12.510 -0.0868  0.2213 -0.2243
  617DOPC   C3A 7237   8.867  13.832  12.099  0.0696  0.1106 -0.0481
  617DOPC   C4A 7238   8.516  14.019  11.893 -0.0833 -0.1657 -0.0442
  617DOPC   C1B 7239   9.765  14.434  12.536 -0.1954 -0.2157 -0.3471
  617DOPC   D2B 7240   9.530  14.242  12.919 -0.3801 -0.2200 -0.1102
  617DOPC   C3B 7241   9.598  13.770  12.872 -0.1051  0.0872  0.3528
  617DOPC   C4B 7242   9.551  13.342  12.957  0.2109  0.0431 -0.3352
  618DOPC   NC3 7243   2.007  18.593  13.066  0.0080  0.0367  0.1170
  618DOPC   PO4 7244   1.841  18.719  13.391 -0.1856  0.0212 -0.2007
  618DOPC   GL1 7245   1.986  18.822  13.881 -0.1436 -0.0689 -0.0193
  618DOPC   GL2 7246   1.688  18.904  13.991  0.1669  0.3361  0.1045
  618DOPC   C1A 7247   2.193  19.080  14.240  0.0542  0.0707 -0.3455
  618DOPC   D2A 7248   2.133  19.549  14.355  0.0116  0.2095  0.1681
  618DOPC   C3A 7249   1.835  19.570  14.720  0.3642 -0.0494 -0.1702
  618DOPC   C4A 7250   1.471  19.704  14.958 -0.1433 -0.1372 -0.0199
  618DOPC   C1B 7251   1.619  18.758  14.434 -0.0258  0.3008  0.3412
  618DOPC   D2B 7252   1.711  18.661  14.850  0.4288 -0.1534  0.0368
  618DOPC   C3B 7253   1.455  18.886  15.187  0.3037 -0.0910 -0.1827
  618DOPC   C4B 7254   1.407  19.049  15.640  0.0612 -0.1957  0.1202
  619DOPE   NH3 7255  34.158  19.604  13.396  0.4014  0.2287  0.0151
  619DOPE   PO4 7256  34.469  19.515  13.387 -0.0057  0.2635 -0.0122
  619DOPE   GL1 7257  34.559  19.703  13.670  0.1371 -0.0957 -0.2931
  619DOPE   GL2 7258  34.775  19.897  13.659  0.2582  0.0770 -0.0159
  619DOPE   C1A 7259  34.476  19.750  14.123 -0.0107 -0.1395  0.1689
  619DOPE   D2A 7260  34.362  19.718  14.580  0.0022  0.0387  0.1691
  619DOPE   C3A 7261  34.774  19.658  14.850  0.0494 -0.2894  0.1502
  619DOPE   C4A 7262  35.181  19.667  15.042 -0.0719 -0.2359  0.0563
  619DOPE   C1B 7263  34.984  19.895  14.064 -0.2664 -0.1269 -0.2125
  619DOPE   D2B 7264  35.083  19.611  14.444 -0.0427  0.0215 -0.0177
  619DOPE   C3B 7265  34.858  19.223  14.581  0.2441 -0.0231 -0.0599
  619DOPE   C4B 7266  34.734  18.755  14.421 -0.0444 -0.0466  0.0906
  620DOPE   NH3 7267  11.451  22.668  12.321 -0.0434 -0.0362 -0.3213
  620DOPE   PO4 7268  11.386  22.572  12.046  0.1008  0.0525  0.0733
  620DOPE   GL1 7269  11.531  22.241  12.218 -0.1417 -0.1408 -0.0285
  620DOPE   GL2 7270  11.284  22.089  12.220 -0.2930 -0.0699 -0.2511
  620DOPE   C1A 7271  11.586  21.860  12.523  0.1153  0.0353  0.2682
  620DOPE   D2A 7272  11.610  21.549  12.891  0.2283  0.1366 -0.1349
  620DOPE   C3A 7273  11.979  21.286  12.997 -0.1457 -0.1382 -0.2307
  620DOPE   C4A 7274  12.241  20.837  13.042  0.2223 -0.1634 -0.1034
  620DOPE   C1B 7275  11.123  21.745  12.435 -0.1498  0.1002  0.1592
  620DOPE   D2B 7276  11.004  21.509  12.774  0.2420  0.3060 -0.4132
  620DOPE   C3B 7277  10.547  21.498  12.784 -0.1838 -0.1070  0.1839
  620DOPE   C4B 7278  10.306  21.738  13.046  0.0955  0.0351  0.1899
  621DOPE   NH3 7279   5.904  16.467  12.746 -0.1630  0.3336  0.2270
  621DOPE   PO4 7280   5.861  16.751  12.918  0.1259 -0.2100  0.1619
  621DOPE   GL1 7281   6.027  16.482  13.223  0.4286 -0.1633 -0.3832
  621DOPE   GL2 7282   6.278  16.326  13.123  0.0396  0.1688  0.2068
  621DOPE   C1A 7283   5.895  16.681  13.597 -0.1630 -0.2134  0.0287
  621DOPE   D2A 7284   5.875  17.132  13.794 -0.1300 -0.2650 -0.2117
  621DOPE   C3A 7285   6.134  17.474  14.018 -0.2541 -0.0064  0.4534
  621DOPE   C4A 7286   6.513  17.328  14.243 -0.1591  0.0661  0.0654
  621DOPE   C1B 7287   6.377  16.207  13.603 -0.0853 -0.0296  0.0210
  621DOPE   D2B 7288   6.314  16.215  14.094 -0.4491 -0.0545  0.1092
  621DOPE   C3B 7289   6.703  16.436  14.276  0.1685 -0.0639  0.0481
  621DOPE   C4B 7290   7.158  16.331  14.434 -0.3082 -0.1051  0.1460
  622POSM   NC3 7291   0.620  18.720  13.380  0.3910 -0.1095  0.3075
  622POSM   PO4 7292   0.955  18.842  13.547  0.2443  0.1039 -0.1954
  622POSM   AM1 7293   1.139  18.919  13.802 -0.1520  0.3831  0.1100
  622POSM   AM2 7294   1.163  19.011  14.052 -0.1416  0.1790 -0.0603
  622POSM   T1A 7295   1.464  19.359  13.951 -0.1944  0.0548 -0.0382
  622POSM   C2A 7296   1.665  19.664  14.234 -0.1981  0.0127 -0.0381
  622POSM   C3A 7297   1.527  20.019  14.518 -0.1817  0.0875 -0.1510
  622POSM   C1B 7298   1.262  19.138  14.347 -0.0313  0.2402 -0.0260
  622POSM   D2B 7299   1.456  19.233  14.755  0.0875 -0.2077 -0.0738
  622POSM   C3B 7300   1.907  19.095  14.803  0.0404 -0.4305 -0.0595
  622POSM   C4B 7301   2.001  18.926  15.182  0.1781  0.1651 -0.2208
  623DOPE   NH3 7302   2.611  18.529  13.155  0.1746  0.4657  0.0555
  623DOPE   PO4 7303   2.933  18.510  13.149  0.1722 -0.1878 -0.1894
  623DOPE   GL1 7304   3.253  18.529  13.255 -0.2345 -0.0940 -0.1732
  623DOPE   GL2 7305   3.246  18.587  13.587  0.2103 -0.0667 -0.1625
  623DOPE   C1A 7306   3.693  18.402  13.259  0.0207  0.0548 -0.1236
  623DOPE   D2A 7307   4.147  18.514  13.332  0.0939 -0.1111 -0.0786
  623DOPE   C3A 7308   4.258  18.795  13.638  0.1320  0.0948  0.0469
  623DOPE   C4A 7309   4.173  19.092  13.972 -0.1871 -0.0593 -0.1559
  623DOPE   C1B 7310   3.617  18.584  13.867 -0.2022  0.1852  0.1374
  623DOPE   D2B 7311   3.761  18.797  14.200  0.0734  0.2402 -0.3670
  623DOPE   C3B 7312   3.771  19.253  14.225 -0.3246 -0.0575 -0.2822
  623DOPE   C4B 7313   3.433  19.463  14.329 -0.1200 -0.1785  0.1507
  624POSM   NC3 7314   7.413  18.437  12.301 -0.2388  0.0868  0.2721
  624POSM   PO4 7315   7.337  18.068  12.391 -0.0260 -0.0537 -0.4006
  624POSM   AM1 7316   7.320  18.161  12.725 -0.1159  0.1929  0.2691
  624POSM   AM2 7317   7.202  17.965  12.912  0.2497 -0.0045  0.1692
  624POSM   T1A 7318   7.145  18.438  13.103 -0.0240  0.3356 -0.0883
  624POSM   C2A 7319   7.234  18.717  13.436  0.0863  0.2229  0.1269
  624POSM   C3A 7320   7.416  19.073  13.635  0.1098 -0.0482 -0.1516
  624POSM   C1B 7321   7.292  18.022  13.250 -0.0130  0.4373 -0.1751
  624POSM   D2B 7322   7.264  18.200  13.668 -0.1176 -0.0730 -0.1360
  624POSM   C3B 7323   7.589  18.202  13.928 -0.0472 -0.0940  0.0188
  624POSM   C4B 7324   7.944  18.410  14.207  0.1877 -0.0455 -0.0485
  625POSM   NC3 7325  34.464  12.295  13.062  0.0364  0.0252  0.1914
  625POSM   PO4 7326  34.556  12.049  13.376  0.1039  0.1113  0.0938
  625POSM   AM1 7327  34.833  12.210  13.496 -0.1277 -0.3699  0.0370
  625POSM   AM2 7328  35.058  12.220  13.684  0.0210 -0.1188 -0.1830
  625POSM   T1A 7329  35.289  12.510  13.463  0.0931 -0.0023  0.1837
  625POSM   C2A 7330  35.684  12.441  13.280 -0.0927  0.1209  0.0517
  625POSM   C3A 7331  36.041  12.498  12.954 -0.1894  0.2403 -0.2269
  625POSM   C1B 7332  35.098  12.419  13.930 -0.1442  0.0521  0.0249
  625POSM   D2B 7333  35.318  12.758  14.189 -0.0636  0.0347  0.1691
  625POSM   C3B 7334  35.135  13.100  14.405  0.2312 -0.1964 -0.0319
  625POSM   C4B 7335  35.152  13.285  14.846  0.0472 -0.0664  0.0193
  626DOPC   NC3 7336   9.490  19.718  11.820 -0.0680  0.1236  0.1732
  626DOPC   PO4 7337   9.902  19.803  11.799  0.1387  0.0815  0.1854
  626DOPC   GL1 7338   9.794  20.133  11.998  0.0684 -0.0546 -0.3357
  626DOPC   GL2 7339   9.718  20.055  12.260 -0.0343 -0.0407  0.1256
  626DOPC   C1A 7340   9.569  20.567  11.922  0.2323 -0.3489  0.1509
  626DOPC   D2A 7341   9.404  20.996  11.938 -0.2073  0.1715  0.0409
  626DOPC   C3A 7342   9.156  21.152  12.286  0.2535  0.1667  0.1176
  626DOPC   C4A 7343   9.054  21.262  12.749 -0.1006  0.1454 -0.5052
  626DOPC   C1B 7344   9.324  20.186  12.099 -0.2547 -0.0306 -0.0496
  626DOPC   D2B 7345   9.015  20.504  12.079  0.2944 -0.0455  0.0586
  626DOPC   C3B 7346   8.726  20.352  12.345  0.1348  0.0679  0.0519
  626DOPC   C4B 7347   8.680  20.441  12.765 -0.0571  0.0203  0.2420
  627DOPC   NC3 7348   8.144  18.535  12.386  0.0463 -0.2327  0.0636
  627DOPC   PO4 7349   7.872  18.585  12.102 -0.1731 -0.1423 -0.0079
  627DOPC   GL1 7350   7.627  18.947  12.415  0.0494  0.0065 -0.5536
  627DOPC   GL2 7351   7.693  19.099  12.167  0.1335  0.0540 -0.1445
  627DOPC   C1A 7352   7.345  19.197  12.698 -0.2852 -0.1633  0.0492
  627DOPC   D2A 7353   7.229  19.304  13.147 -0.0033  0.0051  0.0219
  627DOPC   C3A 7354   7.470  19.589  13.397  0.0584 -0.2848  0.3616
  627DOPC   C4A 7355   7.785  19.722  13.680  0.1039 -0.0592 -0.0071
  627DOPC   C1B 7356   7.771  19.463  12.350 -0.4705  0.1795 -0.2520
  627DOPC   D2B 7357   7.918  19.789  12.620 -0.1801  0.2472 -0.2965
  627DOPC   C3B 7358   7.854  20.201  12.442 -0.2784  0.0732 -0.3463
  627DOPC   C4B 7359   8.218  20.483  12.363 -0.2317  0.0155  0.4851
  628DOPC   NC3 7360   2.399  16.457  13.613  0.0348  0.0355 -0.0256
  628DOPC   PO4 7361   2.229  16.429  13.254 -0.0337 -0.0110 -0.4930
  628DOPC   GL1 7362   2.573  16.312  13.179 -0.0994 -0.3685  0.2995
  628DOPC   GL2 7363   2.595  16.418  12.874 -0.0593 -0.0130 -0.2058
  628DOPC   C1A 7364   2.754  16.003  13.459 -0.1603  0.0112 -0.0110
  628DOPC   D2A 7365   3.141  16.027  13.779 -0.1529 -0.0587  0.0723
  628DOPC   C3A 7366   3.024  16.023  14.235 -0.3170  0.1060  0.0362
  628DOPC   C4A 7367   2.772  16.125  14.608 -0.1542 -0.1612  0.1860
  628DOPC   C1B 7368   2.997  16.117  12.929 -0.0568 -0.0475  0.1140
  628DOPC   D2B 7369   3.479  16.241  12.876  0.0309 -0.0212  0.0364
  628DOPC   C3B 7370   3.860  16.010  12.706 -0.0488 -0.3830  0.1218
  628DOPC   C4B 7371   4.035  15.724  12.350 -0.1645 -0.2097  0.0934
  629DOPE   NH3 7372   6.536  11.142  13.041 -0.2737 -0.2918 -0.0155
  629DOPE   PO4 7373   6.301  11.400  13.046 -0.0764  0.1502  0.1762
  629DOPE   GL1 7374   6.143  11.651  13.254 -0.2782 -0.4262 -0.2010
  629DOPE   GL2 7375   6.166  11.926  13.121  0.0613  0.1742  0.1136
  629DOPE   C1A 7376   6.171  11.709  13.686 -0.0271 -0.2655 -0.1217
  629DOPE   D2A 7377   6.206  11.923  14.068 -0.1390  0.2535 -0.2073
  629DOPE   C3A 7378   6.580  11.810  14.233  0.0199  0.1222  0.0027
  629DOPE   C4A 7379   7.017  11.705  14.173  0.2243  0.0086  0.0323
  629DOPE   C1B 7380   6.222  12.201  13.517  0.2845  0.4039 -0.4257
  629DOPE   D2B 7381   6.102  12.659  13.656 -0.0544  0.0033 -0.1425
  629DOPE   C3B 7382   6.402  12.926  13.885  0.1641 -0.0725 -0.0030
  629DOPE   C4B 7383   6.546  13.216  14.259  0.0982  0.4517 -0.2805
  630POSM   NC3 7384   5.855  10.325  12.982 -0.0666 -0.1938 -0.1003
  630POSM   PO4 7385   5.952  10.453  13.360 -0.3321 -0.1790  0.2346
  630POSM   AM1 7386   5.925  10.665  13.593 -0.0093 -0.3799 -0.0010
  630POSM   AM2 7387   5.983  10.912  13.703  0.4150 -0.0520 -0.0944
  630POSM   T1A 7388   5.616  10.729  13.977 -0.0862 -0.0995  0.2345
  630POSM   C2A 7389   5.230  10.522  14.150 -0.2746  0.2033  0.1030
  630POSM   C3A 7390   4.762  10.467  14.152 -0.0914 -0.1964  0.1917
  630POSM   C1B 7391   6.001  11.168  13.927  0.1496 -0.0892  0.2838
  630POSM   D2B 7392   6.356  11.374  14.144 -0.0782  0.2301 -0.2360
  630POSM   C3B 7393   6.728  11.373  14.452  0.2076 -0.1383  0.1042
  630POSM   C4B 7394   7.163  11.368  14.478  0.4359  0.1367 -0.2084
  631DOPE   NH3 7395   1.462  19.034  13.522 -0.1791 -0.0838 -0.0083
  631DOPE   PO4 7396   1.256  19.124  13.256 -0.3232  0.1165 -0.1110
  631DOPE   GL1 7397   1.096  19.327  13.470  0.1505 -0.2422 -0.2562
  631DOPE   GL2 7398   1.004  19.347  13.714  0.1144  0.0553 -0.1759
  631DOPE   C1A 7399   0.992  19.792  13.464  0.0355  0.2679 -0.0761
  631DOPE   D2A 7400   1.189  20.182  13.602 -0.0079  0.1643 -0.0831
  631DOPE   C3A 7401   0.934  20.501  13.839 -0.0399 -0.1985  0.0989
  631DOPE   C4A 7402   0.645  20.838  13.985 -0.1414 -0.1954  0.0271
  631DOPE   C1B 7403   1.084  19.665  13.969 -0.1040 -0.1874  0.0048
  631DOPE   D2B 7404   0.951  20.118  14.139  0.1989 -0.2286  0.0305
  631DOPE   C3B 7405   1.000  20.063  14.614  0.1853 -0.2915 -0.0717
  631DOPE   C4B 7406   0.905  19.904  15.025  0.0136 -0.1069  0.1981
  632DOPC   NC3 7407   8.808  11.523  12.855 -0.2286  0.1163 -0.0922
  632DOPC   PO4 7408   8.502  11.281  12.813 -0.0729 -0.1188 -0.0237
  632DOPC   GL1 7409   8.544  10.989  13.068 -0.1590  0.1378  0.1255
  632DOPC   GL2 7410   8.517  11.088  13.311 -0.1570  0.0386  0.1432
  632DOPC   C1A 7411   8.794  10.663  13.138  0.0675  0.0745  0.0713
  632DOPC   D2A 7412   9.081  10.357  13.012  0.1419  0.2134  0.2230
  632DOPC   C3A 7413   8.993   9.946  13.232  0.2587  0.3216  0.1150
  632DOPC   C4A 7414   8.569   9.719  13.260  0.0379 -0.1977  0.0001
  632DOPC   C1B 7415   8.772  11.517  13.366 -0.1552  0.4145 -0.0299
  632DOPC   D2B 7416   8.966  11.951  13.255 -0.3144  0.0055 -0.1442
  632DOPC   C3B 7417   9.137  12.256  13.569  0.2755  0.3301  0.1731
  632DOPC   C4B 7418   9.451  12.500  13.803 -0.0238  0.4334 -0.0383
  633POSM   NC3 7419   7.285  10.622  13.144  0.1686 -0.2376  0.1894
  633POSM   PO4 7420   7.235  11.005  13.002  0.1522  0.0747 -0.0677
  633POSM   AM1 7421   7.444  11.190  13.157  0.0500 -0.1119 -0.1045
  633POSM   AM2 7422   7.466  11.492  13.215 -0.1514 -0.0178  0.1783
  633POSM   T1A 7423   7.650  11.196  13.598 -0.0694 -0.1014 -0.2650
  633POSM   C2A 7424   8.016  11.223  13.906  0.0904  0.1994  0.0968
  633POSM   C3A 7425   8.329  11.266  14.229  0.0878  0.0336  0.2280
  633POSM   C1B 7426   7.277  11.771  13.258  0.2680  0.0006  0.0918
  633POSM   D2B 7427   7.315  12.222  13.274  0.1719 -0.0999 -0.2007
  633POSM   C3B 7428   7.396  12.397  13.716  0.0339  0.1174 -0.0246
  633POSM   C4B 7429   7.218  12.571  14.078 -0.0058 -0.0171 -0.2166
  634DOPE   NH3 7430   7.962  17.266  12.226 -0.2475 -0.1319 -0.0692
  634DOPE   PO4 7431   7.885  17.249  12.522 -0.1784 -0.0449  0.0180
  634DOPE   GL1 7432   7.974  17.326  12.865  0.4025 -0.3623 -0.4741
  634DOPE   GL2 7433   8.288  17.304  12.906  0.1670 -0.0063 -0.0842
  634DOPE   C1A 7434   8.026  17.599  13.255  0.0599 -0.0195  0.2232
  634DOPE   D2A 7435   7.880  17.547  13.710  0.2380  0.0819  0.1525
  634DOPE   C3A 7436   8.020  17.885  14.053  0.2918  0.2247  0.0501
  634DOPE   C4A 7437   8.332  17.960  14.413 -0.1420  0.1017  0.1313
  634DOPE   C1B 7438   7.991  17.076  13.244  0.0686  0.1172  0.4540
  634DOPE   D2B 7439   7.781  16.704  13.307 -0.1775  0.2629  0.0520
  634DOPE   C3B 7440   7.945  16.578  13.701 -0.0681  0.1829  0.1735
  634DOPE   C4B 7441   7.949  16.754  14.152 -0.0141  0.0268  0.2515
  635DOPE   NH3 7442  33.904  14.654  14.161 -0.2068 -0.0860 -0.0238
  635DOPE   PO4 7443  33.980  14.704  13.869 -0.0030 -0.1592 -0.1527
  635DOPE   GL1 7444  34.192  14.997  13.733 -0.1263  0.1974  0.0744
  635DOPE   GL2 7445  34.388  15.047  13.595  0.0363  0.0559  0.1039
  635DOPE   C1A 7446  34.071  15.294  14.008 -0.1001  0.0554  0.2592
  635DOPE   D2A 7447  33.777  15.456  14.256 -0.1607  0.0757  0.0850
  635DOPE   C3A 7448  33.796  15.660  14.688 -0.0891 -0.0630 -0.0452
  635DOPE   C4A 7449  33.819  16.053  15.010 -0.1095 -0.0315 -0.2667
  635DOPE   C1B 7450  34.296  15.532  13.662  0.0351 -0.0003 -0.0253
  635DOPE   D2B 7451  34.023  15.915  13.726  0.2466 -0.0157 -0.0395
  635DOPE   C3B 7452  33.896  15.957  14.165 -0.3148 -0.1628  0.3187
  635DOPE   C4B 7453  33.755  16.213  14.554  0.1472  0.2957  0.0834
  636DOPC   NC3 7454   3.498  17.687  12.757 -0.1336 -0.1077  0.0689
  636DOPC   PO4 7455   3.248  17.673  13.057 -0.2922 -0.5557 -0.1640
  636DOPC   GL1 7456   3.549  17.908  13.235 -0.1613 -0.0499 -0.1648
  636DOPC   GL2 7457   3.804  17.771  13.249 -0.1406  0.2072  0.3544
  636DOPC   C1A 7458   3.612  18.108  13.621 -0.2042 -0.1981 -0.0458
  636DOPC   D2A 7459   3.869  18.101  13.983 -0.2834  0.2622 -0.1080
  636DOPC   C3A 7460   3.786  18.006  14.400 -0.1933 -0.0115 -0.0458
  636DOPC   C4A 7461   3.842  18.009  14.826  0.2247 -0.0173  0.1248
  636DOPC   C1B 7462   4.178  17.988  13.465  0.1169  0.2509 -0.4161
  636DOPC   D2B 7463   4.275  18.282  13.800 -0.0152 -0.1102 -0.1180
  636DOPC   C3B 7464   4.569  18.260  14.160 -0.1825  0.1924  0.2449
  636DOPC   C4B 7465   4.900  17.948  14.116 -0.2955 -0.2110 -0.0418
  637DOPE   NH3 7466   1.377  18.567  13.347  0.1824 -0.1640  0.2274
  637DOPE   PO4 7467   1.316  18.513  13.658 -0.0147 -0.1518  0.1461
  637DOPE   GL1 7468   1.236  18.524  14.142 -0.0261 -0.0339 -0.0976
  637DOPE   GL2 7469   0.901  18.535  13.995 -0.0147 -0.3143  0.1226
  637DOPE   C1A 7470   1.049  18.191  14.371  0.2519  0.2260 -0.2210
  637DOPE   D2A 7471   0.676  18.177  14.614  0.2578  0.0736 -0.0371
  637DOPE   C3A 7472   0.790  18.483  14.961 -0.5680 -0.1059 -0.1814
  637DOPE   C4A 7473   0.943  18.816  15.234 -0.1904  0.1508  0.0837
  637DOPE   C1B 7474   0.583  18.547  14.354 -0.0299 -0.0337 -0.2380
  637DOPE   D2B 7475   0.358  18.667  14.799  0.0115 -0.1324  0.1096
  637DOPE   C3B 7476   0.320  18.320  15.080 -0.0569 -0.1853 -0.0920
  637DOPE   C4B 7477   0.229  18.364  15.545  0.0083  0.4977  0.0606
  638POSM   NC3 7478   7.693  16.712  12.804 -0.1632 -0.3117 -0.0811
  638POSM   PO4 7479   7.307  16.600  12.726  0.0752  0.1061 -0.2204
  638POSM   AM1 7480   7.379  16.442  13.021  0.0443 -0.0335  0.0598
  638POSM   AM2 7481   7.551  16.234  13.106  0.0463  0.0276 -0.1466
  638POSM   T1A 7482   7.351  16.515  13.490 -0.0634 -0.3367 -0.2736
  638POSM   C2A 7483   7.464  16.744  13.873  0.1042 -0.1799 -0.0151
  638POSM   C3A 7484   7.403  17.187  13.963  0.2160  0.4843  0.2188
  638POSM   C1B 7485   7.693  16.191  13.440  0.2241 -0.1314  0.1865
  638POSM   D2B 7486   8.014  16.107  13.789 -0.2659 -0.0850  0.0316
  638POSM   C3B 7487   7.902  16.186  14.275 -0.1361  0.1437 -0.1448
  638POSM   C4B 7488   7.625  16.219  14.631 -0.0264  0.2044  0.0468
  639DOPC   NC3 7489   8.253  18.929  12.160  0.2320  0.3046 -0.3148
  639DOPC   PO4 7490   8.633  18.828  12.103  0.2086  0.1369  0.2655
  639DOPC   GL1 7491   8.652  18.988  12.569  0.0707  0.0939 -0.0149
  639DOPC   GL2 7492   8.415  18.883  12.727 -0.0056 -0.2966  0.1192
  639DOPC   C1A 7493   8.808  19.303  12.823  0.1623 -0.0182 -0.1989
  639DOPC   D2A 7494   8.700  19.457  13.261  0.0250  0.0330  0.0865
  639DOPC   C3A 7495   8.839  19.408  13.702 -0.3539 -0.1922  0.0901
  639DOPC   C4A 7496   9.173  19.353  14.064  0.1382  0.1006  0.0451
  639DOPC   C1B 7497   8.366  19.158  13.035  0.1950 -0.8375 -0.2128
  639DOPC   D2B 7498   8.099  19.383  13.338  0.0681 -0.0980 -0.0146
  639DOPC   C3B 7499   8.313  19.715  13.507 -0.3116 -0.3207 -0.1045
  639DOPC   C4B 7500   8.356  19.993  13.873 -0.3371 -0.0666  0.2274
  640POSM   NC3 7501   7.514  21.871  12.993  0.1629 -0.1951 -0.0023
  640POSM   PO4 7502   7.131  21.885  13.134  0.0164  0.0622  0.3032
  640POSM   AM1 7503   7.131  21.796  13.444  0.2737  0.3570  0.3096
  640POSM   AM2 7504   7.242  21.597  13.638  0.1552 -0.2368 -0.3647
  640POSM   T1A 7505   6.803  21.632  13.813 -0.1508  0.3473 -0.0513
  640POSM   C2A 7506   6.574  21.795  14.190  0.1408 -0.0495 -0.0322
  640POSM   C3A 7507   6.571  21.519  14.513 -0.0798 -0.0359 -0.0592
  640POSM   C1B 7508   7.417  21.882  13.794  0.2198  0.1258 -0.2933
  640POSM   D2B 7509   7.692  22.196  13.973  0.0835  0.0910 -0.1614
  640POSM   C3B 7510   7.846  22.356  14.389 -0.0163 -0.1315  0.1434
  640POSM   C4B 7511   7.889  22.774  14.193 -0.1307 -0.1865  0.1901
  641DOPE   NH3 7512   5.777  10.810  13.076 -0.3716  0.2234 -0.1223
  641DOPE   PO4 7513   5.579  10.865  13.347 -0.0703  0.3402  0.0292
  641DOPE   GL1 7514   5.484  11.059  13.601 -0.1469  0.0998 -0.0324
  641DOPE   GL2 7515   5.535  11.317  13.627 -0.1089 -0.1510  0.0753
  641DOPE   C1A 7516   5.300  11.166  13.992 -0.1393  0.0141 -0.1505
  641DOPE   D2A 7517   5.548  11.212  14.381  0.0038  0.1478 -0.1144
  641DOPE   C3A 7518   5.961  11.403  14.421 -0.2820 -0.2368 -0.2730
  641DOPE   C4A 7519   6.314  11.425  14.709  0.2183  0.3044 -0.1007
  641DOPE   C1B 7520   5.644  11.577  13.998 -0.2178  0.1356  0.4928
  641DOPE   D2B 7521   5.684  11.843  14.348  0.0677 -0.0544  0.0159
  641DOPE   C3B 7522   5.520  11.686  14.729 -0.3062 -0.0025 -0.2513
  641DOPE   C4B 7523   5.511  11.460  15.156  0.2247 -0.4237  0.4260
  642DOPC   NC3 7524   7.699  15.349  12.476 -0.0863  0.0510 -0.0027
  642DOPC   PO4 7525   7.624  15.129  12.815  0.0053 -0.1599  0.0033
  642DOPC   GL1 7526   7.966  15.043  12.883 -0.1385 -0.2121  0.3290
  642DOPC   GL2 7527   8.159  15.347  13.012 -0.1796 -0.2198  0.0156
  642DOPC   C1A 7528   8.469  15.061  12.798  0.1018  0.0913  0.1102
  642DOPC   D2A 7529   8.769  14.774  12.619  0.1336  0.1685  0.1498
  642DOPC   C3A 7530   8.747  14.373  12.509 -0.0942 -0.0023 -0.2183
  642DOPC   C4A 7531   8.878  14.142  12.848  0.0338 -0.1684 -0.0887
  642DOPC   C1B 7532   8.255  15.729  13.227  0.2040 -0.1142  0.1682
  642DOPC   D2B 7533   8.336  16.030  13.452 -0.1851  0.0264  0.2346
  642DOPC   C3B 7534   8.766  15.946  13.533 -0.0658 -0.2969  0.0247
  642DOPC   C4B 7535   9.051  15.786  13.928 -0.0293  0.2434 -0.0993
  643DOPE   NH3 7536  10.781  10.972  11.938  0.1687  0.1829  0.2321
  643DOPE   PO4 7537  10.786  11.069  11.590 -0.0332 -0.0260 -0.3604
  643DOPE   GL1 7538  10.676  11.473  11.793 -0.2385 -0.4466  0.0557
  643DOPE   GL2 7539  10.531  11.484  12.095  0.0366  0.0467 -0.1273
  643DOPE   C1A 7540  10.764  11.908  11.792 -0.2982 -0.1597 -0.2995
  643DOPE   D2A 7541  10.841  12.356  11.856 -0.2773  0.1510  0.0157
  643DOPE   C3A 7542  10.555  12.740  11.843  0.1779  0.1347  0.0686
  643DOPE   C4A 7543  10.449  13.112  12.059  0.0256 -0.2012  0.1327
  643DOPE   C1B 7544  10.518  11.889  12.293 -0.0223  0.1603  0.2109
  643DOPE   D2B 7545  10.746  12.063  12.674 -0.0997 -0.0210  0.2633
  643DOPE   C3B 7546  11.142  11.859  12.760 -0.1997 -0.0703  0.1508
  643DOPE   C4B 7547  11.560  11.884  12.590  0.2058  0.0776 -0.1178
  644POSM   NC3 7548   1.230  14.550  13.474  0.1155 -0.3495  0.0142
  644POSM   PO4 7549   1.202  14.893  13.711 -0.0783  0.1208  0.1400
  644POSM   AM1 7550   1.024  14.950  13.981 -0.0385 -0.4605  0.1310
  644POSM   AM2 7551   0.848  15.142  14.090  0.1681  0.0670  0.1202
  644POSM   T1A 7552   0.846  14.723  14.391 -0.1362 -0.0529  0.0957
  644POSM   C2A 7553   0.467  14.615  14.696  0.0867  0.0289  0.0589
  644POSM   C3A 7554   0.054  14.376  14.819 -0.1915  0.0273 -0.1239
  644POSM   C1B 7555   0.767  15.242  14.392  0.0472  0.0027 -0.0719
  644POSM   D2B 7556   0.618  15.133  14.798 -0.0623 -0.1239 -0.1775
  644POSM   C3B 7557   0.845  15.002  15.201  0.1598  0.1046 -0.2822
  644POSM   C4B 7558   1.286  14.868  15.222  0.2472  0.1321 -0.3056
  645DOPC   NC3 7559   6.616  17.440  13.175  0.1326  0.2593 -0.0668
  645DOPC   PO4 7560   6.294  17.556  12.950 -0.3705 -0.0761  0.1476
  645DOPC   GL1 7561   6.137  17.654  13.219  0.0814 -0.1576  0.0172
  645DOPC   GL2 7562   6.285  17.490  13.533 -0.0540 -0.2935  0.0703
  645DOPC   C1A 7563   5.794  17.967  13.294  0.1512  0.1037  0.0855
  645DOPC   D2A 7564   5.456  18.303  13.427 -0.0403 -0.1344 -0.0089
  645DOPC   C3A 7565   5.003  18.225  13.393  0.2163  0.0582 -0.0407
  645DOPC   C4A 7566   4.626  18.530  13.375 -0.0803 -0.1019  0.2653
  645DOPC   C1B 7567   6.546  17.800  13.821  0.2522  0.0218  0.2969
  645DOPC   D2B 7568   6.753  18.248  13.760  0.0212 -0.0023 -0.1107
  645DOPC   C3B 7569   7.079  18.491  14.059 -0.0215 -0.0630  0.2903
  645DOPC   C4B 7570   7.473  18.769  14.120 -0.0260  0.1528 -0.1396
  646POSM   NC3 7571   6.841  13.762  13.253 -0.3662 -0.0292  0.0090
  646POSM   PO4 7572   7.092  13.789  12.920  0.1484  0.0421 -0.2507
  646POSM   AM1 7573   7.198  13.490  13.022  0.2138 -0.1696 -0.1673
  646POSM   AM2 7574   7.332  13.377  13.238 -0.1170 -0.4683  0.0060
  646POSM   T1A 7575   7.179  13.004  12.968 -0.2790  0.1858  0.0283
  646POSM   C2A 7576   7.042  12.542  12.943 -0.1711 -0.0010  0.0716
  646POSM   C3A 7577   7.166  12.079  12.807 -0.0446 -0.1048 -0.2178
  646POSM   C1B 7578   7.082  13.328  13.474 -0.1666 -0.0136  0.1582
  646POSM   D2B 7579   6.595  13.280  13.564  0.0500 -0.3162 -0.1690
  646POSM   C3B 7580   6.205  13.127  13.329  0.2280 -0.0803 -0.1518
  646POSM   C4B 7581   5.750  12.974  13.433 -0.0373  0.0188  0.0962
  647POSM   NC3 7582   0.888  18.992  12.856  0.0880 -0.2756 -0.0943
  647POSM   PO4 7583   1.162  18.727  12.945 -0.1975  0.0679  0.2174
  647POSM   AM1 7584   0.918  18.536  13.065  0.1240 -0.1503 -0.0327
  647POSM   AM2 7585   0.952  18.342  13.244 -0.0813  0.1992 -0.1875
  647POSM   T1A 7586   0.444  18.388  12.983  0.3316 -0.0162 -0.0156
  647POSM   C2A 7587   0.016  18.223  12.887 -0.0659  0.1378 -0.1009
  647POSM   C3A 7588  -0.351  18.255  12.588  0.3688 -0.0694  0.0611
  647POSM   C1B 7589   0.740  18.197  13.478 -0.1931 -0.0041  0.2416
  647POSM   D2B 7590   0.420  18.085  13.774 -0.1665  0.1083 -0.2419
  647POSM   C3B 7591   0.480  17.911  14.218  0.0934 -0.0533  0.1601
  647POSM   C4B 7592   0.351  17.726  14.686 -0.2188  0.1241 -0.0184
  648DOPC   NC3 7593   3.934  13.086  13.657 -0.3548 -0.2446 -0.2413
  648DOPC   PO4 7594   3.693  13.241  13.436  0.4904 -0.2111 -0.0155
  648DOPC   GL1 7595   3.738  13.499  13.697 -0.1596  0.2242  0.0148
  648DOPC   GL2 7596   3.694  13.767  13.556 -0.0574  0.3266  0.1332
  648DOPC   C1A 7597   3.868  13.467  14.159  0.1051  0.2971  0.2818
  648DOPC   D2A 7598   4.102  13.613  14.539  0.0028  0.3106 -0.2902
  648DOPC   C3A 7599   3.832  13.914  14.707 -0.0211 -0.0742  0.2909
  648DOPC   C4A 7600   3.465  14.100  14.452  0.0979  0.4236 -0.1162
  648DOPC   C1B 7601   3.929  13.884  13.948 -0.0009  0.2955  0.2199
  648DOPC   D2B 7602   4.283  14.066  14.172  0.1070  0.0990  0.3355
  648DOPC   C3B 7603   4.153  14.351  14.522 -0.2143  0.1814 -0.2165
  648DOPC   C4B 7604   3.996  14.368  14.955 -0.3358  0.2497 -0.1758
  649DOPE   NH3 7605   2.879  12.777  13.937  0.0774 -0.1064 -0.1477
  649DOPE   PO4 7606   2.589  12.761  14.112 -0.1773 -0.0600 -0.0062
  649DOPE   GL1 7607   2.782  13.044  14.350 -0.1470  0.3094 -0.3879
  649DOPE   GL2 7608   2.499  13.072  14.441 -0.1648 -0.2678 -0.0296
  649DOPE   C1A 7609   3.179  12.828  14.486  0.1835  0.2088  0.1173
  649DOPE   D2A 7610   3.644  12.865  14.602  0.2965  0.0909 -0.3837
  649DOPE   C3A 7611   4.088  12.805  14.824  0.2874 -0.0692 -0.1052
  649DOPE   C4A 7612   4.441  12.990  15.033  0.0885  0.1956 -0.0375
  649DOPE   C1B 7613   2.630  13.415  14.760 -0.0550  0.0630 -0.0604
  649DOPE   D2B 7614   2.840  13.616  15.103  0.1428 -0.1796  0.0882
  649DOPE   C3B 7615   3.223  13.401  15.204  0.0434 -0.0619  0.4186
  649DOPE   C4B 7616   3.241  12.928  15.285 -0.0317 -0.0829 -0.1026
  650POSM   NC3 7617   3.851  22.761  13.277  0.0597 -0.3953 -0.1418
  650POSM   PO4 7618   3.596  22.864  13.546 -0.0984  0.1431  0.0738
  650POSM   AM1 7619   3.458  22.827  13.850  0.3306  0.4002  0.0753
  650POSM   AM2 7620   3.241  22.913  13.976  0.0825 -0.0239  0.0133
  650POSM   T1A 7621   3.489  22.598  14.303  0.3300 -0.0719 -0.0361
  650POSM   C2A 7622   3.641  22.398  14.669  0.1467  0.1255  0.1614
  650POSM   C3A 7623   3.977  22.463  14.985  0.5502  0.0345 -0.1725
  650POSM   C1B 7624   3.208  23.028  14.276  0.0873 -0.1181  0.2062
  650POSM   D2B 7625   3.031  23.243  14.683 -0.1887 -0.1781 -0.2781
  650POSM   C3B 7626   2.683  23.459  14.538 -0.0886 -0.0117  0.0022
  650POSM   C4B 7627   2.236  23.615  14.526  0.0466 -0.0714  0.2899
  651POSM   NC3 7628   2.476  13.410  13.501  0.0662 -0.2739  0.2483
  651POSM   PO4 7629   2.499  13.112  13.711 -0.0792  0.0341 -0.0759
  651POSM   AM1 7630   2.699  13.242  13.955  0.0995  0.3925 -0.0312
  651POSM   AM2 7631   2.605  13.445  14.174  0.0483 -0.2334 -0.0100
  651POSM   T1A 7632   3.120  13.269  14.220  0.0197  0.2087  0.1102
  651POSM   C2A 7633   3.114  13.476  14.646 -0.0761  0.1849  0.1095
  651POSM   C3A 7634   3.407  13.739  14.913 -0.1808 -0.0462 -0.0673
  651POSM   C1B 7635   2.492  13.678  14.373  0.0167 -0.0657  0.2535
  651POSM   D2B 7636   2.439  13.962  14.764  0.0396  0.1923 -0.2538
  651POSM   C3B 7637   2.316  14.416  14.725  0.1148 -0.2129 -0.2295
  651POSM   C4B 7638   2.235  14.873  14.691  0.1114  0.1920 -0.4620
  652DOPS   CNO 7639   6.621  17.241  12.751  0.0059  0.1105  0.0498
  652DOPS   PO4 7640   6.702  16.957  12.980 -0.0452 -0.1748 -0.4085
  652DOPS   GL1 7641   6.621  16.990  13.365 -0.4819  0.1338  0.1674
  652DOPS   GL2 7642   6.371  16.785  13.405  0.2529  0.1184  0.1261
  652DOPS   C1A 7643   6.761  17.335  13.657  0.0865 -0.3208 -0.0628
  652DOPS   D2A 7644   7.028  17.497  13.989  0.0091 -0.1041 -0.0495
  652DOPS   C3A 7645   6.926  17.978  14.048  0.2727  0.2775  0.0684
  652DOPS   C4A 7646   6.739  18.232  14.409  0.2235 -0.2514 -0.1401
  652DOPS   C1B 7647   6.367  17.037  13.834  0.0652 -0.2792 -0.4042
  652DOPS   D2B 7648   6.260  16.949  14.226  0.0529  0.1821 -0.1698
  652DOPS   C3B 7649   6.561  16.796  14.560  0.1228 -0.2561 -0.1726
  652DOPS   C4B 7650   6.900  16.869  14.833 -0.2205 -0.1585  0.0353
  653DOPC   NC3 7651   2.549  19.414  12.694  0.1698  0.0116 -0.0901
  653DOPC   PO4 7652   2.418  19.697  12.918 -0.1505  0.1466 -0.2690
  653DOPC   GL1 7653   2.472  19.887  13.324 -0.2227  0.0721 -0.0216
  653DOPC   GL2 7654   2.504  19.692  13.550  0.0844 -0.0721 -0.0439
  653DOPC   C1A 7655   2.310  20.227  13.572  0.1740 -0.0117  0.0787
  653DOPC   D2A 7656   2.018  20.516  13.806 -0.2045 -0.4175 -0.1163
  653DOPC   C3A 7657   1.818  20.918  13.845 -0.1836  0.0166 -0.3421
  653DOPC   C4A 7658   1.560  21.292  13.615 -0.2773 -0.1019 -0.1447
  653DOPC   C1B 7659   2.738  19.922  13.806  0.2010  0.1662  0.1329
  653DOPC   D2B 7660   2.783  20.405  13.840  0.2372 -0.3029  0.0758
  653DOPC   C3B 7661   2.446  20.653  13.998 -0.0217  0.2003 -0.0728
  653DOPC   C4B 7662   2.100  20.748  14.253  0.0018 -0.0217  0.1449
  654POSM   NC3 7663  33.005  17.690  13.502 -0.0124 -0.4140  0.1546
  654POSM   PO4 7664  33.286  17.365  13.464  0.4218 -0.0572  0.2860
  654POSM   AM1 7665  33.313  17.056  13.589 -0.2600  0.2824  0.1189
  654POSM   AM2 7666  33.519  17.002  13.810  0.1043 -0.0508 -0.2431
  654POSM   T1A 7667  33.419  16.594  13.460 -0.0724 -0.1562  0.0472
  654POSM   C2A 7668  33.653  16.129  13.528 -0.1615 -0.0247  0.0704
  654POSM   C3A 7669  33.843  15.806  13.279 -0.0355  0.0141  0.0561
  654POSM   C1B 7670  33.663  16.934  14.055  0.1196  0.3137 -0.1732
  654POSM   D2B 7671  33.928  16.616  14.285 -0.0235  0.0079  0.0852
  654POSM   C3B 7672  34.396  16.514  14.407  0.1983 -0.2818  0.1033
  654POSM   C4B 7673  34.568  16.234  14.752  0.3425 -0.0590  0.0952
  655DOPE   NH3 7674   5.048  14.501  13.507 -0.2035  0.0790 -0.0489
  655DOPE   PO4 7675   5.185  14.772  13.548  0.0085 -0.0350  0.2641
  655DOPE   GL1 7676   5.094  14.858  13.925  0.3124  0.3189  0.0633
  655DOPE   GL2 7677   4.873  14.702  13.954 -0.0536 -0.0375 -0.0978
  655DOPE   C1A 7678   5.340  14.769  14.291 -0.0481  0.3456  0.4106
  655DOPE   D2A 7679   5.100  14.671  14.670  0.1488  0.2177  0.2064
  655DOPE   C3A 7680   4.993  14.900  15.105 -0.0394 -0.0053 -0.0971
  655DOPE   C4A 7681   5.082  15.299  15.331 -0.1972  0.0135 -0.2346
  655DOPE   C1B 7682   4.589  14.831  14.333 -0.2506  0.3867 -0.1313
  655DOPE   D2B 7683   4.486  14.810  14.779 -0.1520  0.1089 -0.2546
  655DOPE   C3B 7684   4.582  14.609  15.120  0.1716 -0.1468  0.2617
  655DOPE   C4B 7685   4.929  14.461  15.321 -0.2604  0.0497 -0.0830
  656POSM   NC3 7686   0.246  19.433  13.478  0.1616  0.1826 -0.2128
  656POSM   PO4 7687   0.607  19.199  13.462 -0.1765 -0.1369  0.2334
  656POSM   AM1 7688   0.584  19.021  13.727 -0.1305  0.2340  0.1389
  656POSM   AM2 7689   0.649  18.983  14.023 -0.1394 -0.0097  0.2640
  656POSM   T1A 7690   0.324  18.647  13.860  0.2257  0.0454 -0.1435
  656POSM   C2A 7691   0.178  18.337  14.147 -0.0467  0.0288 -0.0979
  656POSM   C3A 7692  -0.007  17.969  14.422 -0.0914  0.0433 -0.1248
  656POSM   C1B 7693   0.765  19.231  14.218  0.1017  0.1014  0.0558
  656POSM   D2B 7694   1.053  19.577  14.453 -0.4475 -0.1022  0.1201
  656POSM   C3B 7695   0.975  19.408  14.902  0.0343 -0.1460 -0.0299
  656POSM   C4B 7696   1.160  19.285  15.250  0.0971  0.1079 -0.3080
  657POSM   NC3 7697   2.098  17.845  13.044  0.0774 -0.1027  0.1027
  657POSM   PO4 7698   2.270  18.147  13.252  0.2290 -0.1045 -0.4111
  657POSM   AM1 7699   2.422  18.119  13.530  0.2306 -0.3119 -0.1472
  657POSM   AM2 7700   2.676  18.246  13.614 -0.3885  0.0387  0.0225
  657POSM   T1A 7701   2.717  17.887  13.904 -0.1748 -0.2704  0.1158
  657POSM   C2A 7702   3.022  17.483  14.093 -0.0831  0.0924  0.0830
  657POSM   C3A 7703   3.410  17.185  14.067  0.0151  0.0238  0.0950
  657POSM   C1B 7704   2.782  18.518  13.796  0.0054  0.3062  0.2046
  657POSM   D2B 7705   3.105  18.758  14.053  0.0085  0.1403  0.0494
  657POSM   C3B 7706   3.357  19.065  14.012  0.0007 -0.1516 -0.3357
  657POSM   C4B 7707   3.713  19.066  13.752  0.1117  0.2026 -0.3961
  658POSM   NC3 7708   1.883  16.989  13.993 -0.0388  0.0807  0.3363
  658POSM   PO4 7709   1.724  17.242  13.708  0.0569 -0.0683 -0.0640
  658POSM   AM1 7710   1.666  17.504  13.913 -0.3630 -0.0083  0.1033
  658POSM   AM2 7711   1.599  17.758  13.921 -0.3446  0.0179 -0.4159
  658POSM   T1A 7712   1.601  17.515  14.381  0.0749  0.0435 -0.1745
  658POSM   C2A 7713   1.545  17.782  14.744 -0.0936 -0.0406 -0.2153
  658POSM   C3A 7714   1.398  17.839  15.193  0.1560  0.1846 -0.0645
  658POSM   C1B 7715   1.501  18.038  14.154  0.0549 -0.0757  0.2097
  658POSM   D2B 7716   1.509  18.247  14.594 -0.0277  0.0921 -0.0444
  658POSM   C3B 7717   1.193  18.639  14.670  0.1060  0.0353 -0.1579
  658POSM   C4B 7718   0.827  18.938  14.658  0.0970  0.2850 -0.0666
  659DOPS   CNO 7719   7.408  17.183  12.239 -0.1414  0.0556  0.0010
  659DOPS   PO4 7720   7.611  16.861  12.342  0.0297  0.1193  0.1249
  659DOPS   GL1 7721   7.936  16.570  12.371  0.3197  0.3889 -0.0513
  659DOPS   GL2 7722   8.128  16.720  12.405  0.0853  0.0398  0.0482
  659DOPS   C1A 7723   8.240  16.132  12.453 -0.1385  0.2290 -0.2744
  659DOPS   D2A 7724   8.524  15.884  12.718 -0.0923  0.0366 -0.3116
  659DOPS   C3A 7725   8.911  15.704  12.948  0.0559  0.0475 -0.2947
  659DOPS   C4A 7726   9.107  15.558  13.371 -0.1766 -0.0574  0.3467
  659DOPS   C1B 7727   8.439  16.674  12.733  0.0888 -0.0148  0.1064
  659DOPS   D2B 7728   8.726  16.769  13.076 -0.3198 -0.2544 -0.1162
  659DOPS   C3B 7729   8.659  16.989  13.471 -0.0070  0.0933 -0.0260
  659DOPS   C4B 7730   8.381  16.840  13.804  0.0825 -0.1764  0.2556
  660POSM   NC3 7731   5.921  11.235  13.326 -0.4097  0.1828 -0.1158
  660POSM   PO4 7732   5.771  11.291  12.929  0.0458 -0.1102 -0.2994
  660POSM   AM1 7733   5.752  11.602  13.073  0.1020 -0.0192 -0.1728
  660POSM   AM2 7734   5.589  11.692  13.315  0.0500  0.3537 -0.0488
  660POSM   T1A 7735   5.550  12.060  12.994 -0.0353  0.0447 -0.0259
  660POSM   C2A 7736   5.310  12.454  13.060  0.1296 -0.0558  0.0630
  660POSM   C3A 7737   5.246  12.815  13.327 -0.1603 -0.2221 -0.1262
  660POSM   C1B 7738   5.711  11.932  13.502 -0.1208 -0.1312  0.0702
  660POSM   D2B 7739   5.821  12.185  13.887  0.0925 -0.2154  0.0016
  660POSM   C3B 7740   5.371  12.130  14.011 -0.0295 -0.1890 -0.2404
  660POSM   C4B 7741   5.159  11.888  14.301  0.0688 -0.2936 -0.3835
  661DOPE   NH3 7742  10.503  15.799  11.930  0.1054 -0.2211 -0.1142
  661DOPE   PO4 7743  10.341  15.863  11.694 -0.2135  0.1299  0.1662
  661DOPE   GL1 7744  10.050  15.669  12.130  0.0009 -0.2079  0.1661
  661DOPE   GL2 7745   9.804  15.797  12.008  0.2648 -0.1486 -0.3131
  661DOPE   C1A 7746  10.082  15.465  12.511  0.0187 -0.2196  0.2016
  661DOPE   D2A 7747   9.918  15.613  12.916 -0.2376 -0.0085 -0.3343
  661DOPE   C3A 7748   9.708  15.515  13.299  0.0968 -0.0115  0.2289
  661DOPE   C4A 7749   9.756  15.342  13.722 -0.0545  0.0516  0.0871
  661DOPE   C1B 7750   9.607  16.015  12.344 -0.3531 -0.1467  0.1092
  661DOPE   D2B 7751   9.329  16.371  12.539 -0.1322  0.1276  0.3734
  661DOPE   C3B 7752   8.944  16.239  12.740  0.2228 -0.2371  0.1529
  661DOPE   C4B 7753   8.589  16.277  13.029  0.1577 -0.0583 -0.1119
  662DOPE   NH3 7754  11.303  22.990  11.546 -0.1307  0.0564 -0.2045
  662DOPE   PO4 7755  11.043  22.880  11.765 -0.0410  0.1215 -0.3513
  662DOPE   GL1 7756  10.940  22.637  12.065 -0.0730 -0.2879 -0.2310
  662DOPE   GL2 7757  10.958  22.347  11.908  0.3607  0.1519 -0.3068
  662DOPE   C1A 7758  10.923  22.357  12.467  0.1040 -0.0959  0.1302
  662DOPE   D2A 7759  10.691  22.503  12.843 -0.0131 -0.4423 -0.1934
  662DOPE   C3A 7760  10.235  22.690  12.854 -0.0078  0.0600 -0.0239
  662DOPE   C4A 7761   9.719  22.707  12.868 -0.2107 -0.1636  0.0932
  662DOPE   C1B 7762  10.508  22.293  12.013 -0.0820 -0.2084 -0.1543
  662DOPE   D2B 7763  10.145  22.501  12.222  0.1645  0.0791  0.1292
  662DOPE   C3B 7764   9.798  22.747  11.952 -0.3045  0.1283  0.2983
  662DOPE   C4B 7765   9.618  23.145  12.067  0.0417  0.2015  0.0864
  663DOPE   NH3 7766   3.250  18.168  12.958 -0.1478 -0.3331 -0.0790
  663DOPE   PO4 7767   3.286  18.133  12.647  0.3491 -0.2661  0.0036
  663DOPE   GL1 7768   3.716  18.170  12.635 -0.0172 -0.3559  0.2875
  663DOPE   GL2 7769   3.744  18.146  12.889 -0.0326  0.2325 -0.2052
  663DOPE   C1A 7770   4.053  18.502  12.707  0.2946  0.2017 -0.2312
  663DOPE   D2A 7771   4.271  18.867  12.968  0.0894  0.0815  0.1493
  663DOPE   C3A 7772   4.509  19.038  13.219 -0.0268 -0.1187 -0.0780
  663DOPE   C4A 7773   4.625  19.150  13.684 -0.0570  0.1907  0.0322
  663DOPE   C1B 7774   4.230  18.136  13.004  0.1268  0.2269 -0.1381
  663DOPE   D2B 7775   4.585  17.845  13.137  0.0515 -0.0324 -0.2494
  663DOPE   C3B 7776   4.655  17.467  12.929 -0.0778  0.0024 -0.2023
  663DOPE   C4B 7777   4.515  17.015  12.955 -0.0407 -0.1880  0.3262
  664DOPE   NH3 7778   0.259  14.368  13.073  0.2574 -0.0190  0.0095
  664DOPE   PO4 7779   0.072  14.116  13.094  0.2563 -0.2384  0.0774
  664DOPE   GL1 7780   0.438  13.924  13.044 -0.0751 -0.1687 -0.2503
  664DOPE   GL2 7781   0.271  13.699  13.189  0.0279  0.1157  0.0095
  664DOPE   C1A 7782   0.845  13.833  12.960  0.0267 -0.2535  0.1362
  664DOPE   D2A 7783   0.916  13.466  12.711  0.0852  0.1646  0.0007
  664DOPE   C3A 7784   0.771  13.024  12.854 -0.0568  0.0613 -0.2899
  664DOPE   C4A 7785   0.423  12.716  12.905  0.3199  0.0253  0.0058
  664DOPE   C1B 7786   0.510  13.557  13.511 -0.2028  0.0673  0.1336
  664DOPE   D2B 7787   0.586  13.517  13.978 -0.4028  0.1717  0.1302
  664DOPE   C3B 7788   0.377  13.650  14.407  0.2908 -0.2529 -0.1270
  664DOPE   C4B 7789   0.102  13.873  14.716 -0.1566 -0.0242  0.0831
  665POSM   NC3 7790   0.126  14.693  13.792  0.1480  0.0554  0.2887
  665POSM   PO4 7791   0.186  14.408  13.548 -0.3774 -0.0644  0.1033
  665POSM   AM1 7792   0.438  14.352  13.795  0.0064  0.1740  0.2873
  665POSM   AM2 7793   0.457  14.440  14.053  0.0092 -0.0976 -0.2472
  665POSM   T1A 7794   0.726  13.975  13.900  0.1198 -0.3936 -0.4186
  665POSM   C2A 7795   0.863  13.847  14.300 -0.0545 -0.0304  0.0456
  665POSM   C3A 7796   0.823  13.432  14.551  0.0009  0.0090  0.0276
  665POSM   C1B 7797   0.570  14.325  14.323  0.0973 -0.2011  0.2483
  665POSM   D2B 7798   0.749  14.168  14.716 -0.3406  0.2786 -0.0733
  665POSM   C3B 7799   1.081  13.833  14.737 -0.0980 -0.2990 -0.1725
  665POSM   C4B 7800   1.274  13.550  14.440 -0.1137  0.1994 -0.3209
  666DOPC   NC3 7801   9.995  20.964  12.005  0.1104 -0.2599  0.0429
  666DOPC   PO4 7802  10.261  20.729  11.823 -0.0530  0.0826  0.0113
  666DOPC   GL1 7803  10.307  20.632  12.171  0.0881  0.1942 -0.1517
  666DOPC   GL2 7804  10.075  20.432  12.193 -0.3391  0.2083 -0.0707
  666DOPC   C1A 7805  10.646  20.658  12.469 -0.2252 -0.1645 -0.0864
  666DOPC   D2A 7806  10.871  20.977  12.670  0.0661 -0.0451 -0.1301
  666DOPC   C3A 7807  11.260  20.779  12.902 -0.1753  0.6371 -0.0508
  666DOPC   C4A 7808  11.677  20.904  12.772 -0.2512  0.0696 -0.0447
  666DOPC   C1B 7809   9.777  20.687  12.458  0.1111  0.3120 -0.1358
  666DOPC   D2B 7810   9.715  21.092  12.464  0.0719 -0.0469 -0.1251
  666DOPC   C3B 7811   9.560  21.515  12.628 -0.1393  0.0530 -0.0007
  666DOPC   C4B 7812   9.149  21.703  12.590 -0.1697  0.3558 -0.2724
  667DOPC   NC3 7813   6.299  20.967  13.555 -0.1267  0.0917  0.3399
  667DOPC   PO4 7814   6.015  21.209  13.473  0.0164 -0.0817 -0.1436
  667DOPC   GL1 7815   5.896  21.277  13.829  0.2493 -0.0709 -0.1061
  667DOPC   GL2 7816   5.986  21.109  14.058 -0.1756 -0.1311 -0.2015
  667DOPC   C1A 7817   5.566  21.456  14.144  0.1758  0.1154  0.2818
  667DOPC   D2A 7818   5.518  21.685  14.530  0.0598 -0.0597 -0.2902
  667DOPC   C3A 7819   5.749  22.060  14.752 -0.4197 -0.3473 -0.1187
  667DOPC   C4A 7820   6.062  22.390  14.850  0.2358 -0.0455  0.2310
  667DOPC   C1B 7821   6.358  20.771  14.056 -0.0131 -0.2486  0.3716
  667DOPC   D2B 7822   6.707  20.397  14.089  0.0038 -0.1544 -0.2748
  667DOPC   C3B 7823   7.011  20.019  14.256  0.0289 -0.1577 -0.0014
  667DOPC   C4B 7824   7.323  19.728  14.393  0.0714 -0.0216 -0.1461
  668POSM   NC3 7825   1.269  16.515  13.626  0.2489  0.2782 -0.2021
  668POSM   PO4 7826   1.080  16.153  13.565 -0.0903 -0.2082  0.0585
  668POSM   AM1 7827   0.933  16.235  13.828  0.1793 -0.2941  0.1907
  668POSM   AM2 7828   0.937  16.434  14.007 -0.1867  0.1448 -0.2639
  668POSM   T1A 7829   0.740  16.072  14.256 -0.1256  0.0843 -0.1357
  668POSM   C2A 7830   0.632  16.270  14.697 -0.3456  0.2311  0.2434
  668POSM   C3A 7831   0.460  16.371  15.080 -0.2259  0.0720 -0.1565
  668POSM   C1B 7832   0.819  16.714  13.858 -0.0519  0.0960  0.1147
  668POSM   D2B 7833   0.687  16.944  13.469 -0.2405  0.0479  0.0664
  668POSM   C3B 7834   0.422  17.295  13.587 -0.0403  0.0410  0.1453
  668POSM   C4B 7835   0.126  17.582  13.759  0.0531  0.0260  0.1366
  669POSM   NC3 7836   8.781  18.151  12.072 -0.2331 -0.1010  0.1910
  669POSM   PO4 7837   8.370  18.181  12.179  0.2871 -0.0014 -0.0498
  669POSM   AM1 7838   8.343  18.081  12.534  0.1499 -0.2129  0.0842
  669POSM   AM2 7839   8.308  18.173  12.780 -0.1322  0.0621  0.0269
  669POSM   T1A 7840   8.551  17.808  12.946  0.1553 -0.0538 -0.0579
  669POSM   C2A 7841   8.615  17.432  13.245 -0.1386 -0.2844  0.2244
  669POSM   C3A 7842   8.389  17.365  13.676 -0.1799 -0.0137  0.2075
  669POSM   C1B 7843   8.194  18.128  13.109  0.0709  0.0817 -0.2509
  669POSM   D2B 7844   8.313  17.933  13.499 -0.0231 -0.4470  0.3855
  669POSM   C3B 7845   8.514  17.912  13.914 -0.1751 -0.0484 -0.1255
  669POSM   C4B 7846   8.580  18.324  14.136 -0.3888 -0.2351  0.3946
  670DOPS   CNO 7847   8.035  14.948  12.477  0.1281 -0.0407 -0.0860
  670DOPS   PO4 7848   8.122  14.584  12.498  0.1446  0.1054 -0.1452
  670DOPS   GL1 7849   8.359  14.302  12.763  0.4177  0.0688 -0.0701
  670DOPS   GL2 7850   8.386  14.078  12.625 -0.0775  0.1266 -0.3223
  670DOPS   C1A 7851   8.449  14.108  13.138  0.1324  0.2228  0.3642
  670DOPS   D2A 7852   8.278  13.802  13.433 -0.1658 -0.1203  0.1212
  670DOPS   C3A 7853   8.014  13.814  13.855 -0.2041 -0.0612  0.3205
  670DOPS   C4A 7854   7.684  13.863  14.197  0.2285  0.0854 -0.0184
  670DOPS   C1B 7855   8.500  13.712  12.871  0.0031  0.1459 -0.0560
  670DOPS   D2B 7856   8.606  13.425  13.232  0.0838  0.0816  0.1153
  670DOPS   C3B 7857   8.984  13.177  13.156 -0.1052  0.1270 -0.0700
  670DOPS   C4B 7858   9.249  12.944  12.887 -0.2475  0.1737  0.0760
  671DOPE   NH3 7859   7.832  18.082  12.224 -0.0053  0.4074  0.2055
  671DOPE   PO4 7860   7.849  18.135  12.518 -0.1063  0.0033  0.4111
  671DOPE   GL1 7861   7.778  18.494  12.589  0.1055  0.0977 -0.3194
  671DOPE   GL2 7862   7.924  18.662  12.808  0.0493 -0.1592 -0.0245
  671DOPE   C1A 7863   7.394  18.698  12.740  0.1590 -0.0667  0.1304
  671DOPE   D2A 7864   6.960  18.641  12.582 -0.1786  0.1749 -0.1926
  671DOPE   C3A 7865   6.816  18.980  12.829 -0.0051  0.1981 -0.1149
  671DOPE   C4A 7866   6.497  19.052  13.238 -0.0324 -0.0425 -0.0968
  671DOPE   C1B 7867   7.945  19.075  12.693 -0.3447  0.1873 -0.0158
  671DOPE   D2B 7868   8.297  19.377  12.595  0.0655 -0.0877 -0.0040
  671DOPE   C3B 7869   8.325  19.676  12.989 -0.0407  0.1880  0.2596
  671DOPE   C4B 7870   8.711  19.976  13.057 -0.0945  0.1482  0.1402
  672DOPC   NC3 7871   6.787  16.624  12.549 -0.0398 -0.4435  0.0684
  672DOPC   PO4 7872   6.427  16.640  12.713 -0.0151  0.1110 -0.0007
  672DOPC   GL1 7873   6.545  16.291  12.735  0.3524 -0.0745  0.0361
  672DOPC   GL2 7874   6.570  16.120  12.512 -0.0914  0.2407 -0.1874
  672DOPC   C1A 7875   6.683  15.986  13.000  0.0558  0.1150 -0.1117
  672DOPC   D2A 7876   6.505  15.797  13.345  0.0666  0.2952 -0.1817
  672DOPC   C3A 7877   6.563  15.787  13.828 -0.1703  0.0092  0.0511
  672DOPC   C4A 7878   6.631  15.797  14.279  0.0699 -0.1109 -0.0260
  672DOPC   C1B 7879   6.252  15.921  12.705 -0.2218 -0.0498  0.2079
  672DOPC   D2B 7880   5.901  15.991  13.068 -0.2038  0.0976 -0.2561
  672DOPC   C3B 7881   5.836  16.111  13.560 -0.0529  0.2015 -0.1598
  672DOPC   C4B 7882   5.863  16.072  13.997 -0.1199 -0.1815  0.1785
  673DOPC   NC3 7883   5.435  20.481  13.823  0.3106 -0.0227 -0.3066
  673DOPC   PO4 7884   5.167  20.282  13.572 -0.0824 -0.1415  0.1398
  673DOPC   GL1 7885   4.871  20.072  13.541  0.1628 -0.0740 -0.0842
  673DOPC   GL2 7886   4.761  19.804  13.434  0.0310 -0.0817 -0.2717
  673DOPC   C1A 7887   4.442  20.012  13.790 -0.1081 -0.1479  0.1596
  673DOPC   D2A 7888   4.212  19.861  14.160  0.0136  0.2107 -0.0721
  673DOPC   C3A 7889   4.149  19.512  14.427  0.0253 -0.0252  0.1985
  673DOPC   C4A 7890   4.266  19.260  14.735 -0.1028  0.2874  0.0895
  673DOPC   C1B 7891   4.847  19.375  13.228  0.0379  0.1524 -0.2795
  673DOPC   D2B 7892   5.200  19.046  13.079 -0.0622 -0.1605 -0.2779
  673DOPC   C3B 7893   4.950  18.626  12.996  0.0343 -0.0906 -0.1109
  673DOPC   C4B 7894   4.917  18.202  12.898  0.0934 -0.0247  0.2502
  674DOPC   NC3 7895   4.862  21.862  12.811  0.2726  0.0567  0.0802
  674DOPC   PO4 7896   5.003  21.813  13.168  0.1263 -0.0392  0.2479
  674DOPC   GL1 7897   4.778  21.537  13.386 -0.1856  0.3156  0.3775
  674DOPC   GL2 7898   4.577  21.491  13.200  0.1163 -0.2688  0.1055
  674DOPC   C1A 7899   4.764  21.521  13.879  0.2480  0.3728  0.5022
  674DOPC   D2A 7900   4.920  21.705  14.266  0.1116 -0.0714 -0.1932
  674DOPC   C3A 7901   4.582  21.889  14.573  0.2872  0.0184  0.0121
  674DOPC   C4A 7902   4.238  21.666  14.830 -0.1703  0.0206  0.1488
  674DOPC   C1B 7903   4.325  21.469  13.608 -0.1376 -0.0824 -0.1745
  674DOPC   D2B 7904   4.068  21.266  13.984 -0.2674 -0.1746 -0.0298
  674DOPC   C3B 7905   4.177  20.889  14.233 -0.4404  0.1514  0.0500
  674DOPC   C4B 7906   4.552  20.710  14.411 -0.1752 -0.1443  0.0713
  675DOPE   NH3 7907   7.208  11.446  12.665 -0.3088  0.2474 -0.1015
  675DOPE   PO4 7908   6.956  11.349  12.800 -0.0042 -0.1942  0.0566
  675DOPE   GL1 7909   6.866  11.606  13.057 -0.2081  0.4293  0.3198
  675DOPE   GL2 7910   6.652  11.735  12.935  0.0247  0.0147  0.0600
  675DOPE   C1A 7911   6.833  11.979  13.280  0.0485 -0.0007  0.0652
  675DOPE   D2A 7912   6.869  12.439  13.423 -0.2013  0.2616  0.0982
  675DOPE   C3A 7913   6.620  12.434  13.822  0.1666 -0.2502  0.1092
  675DOPE   C4A 7914   6.577  12.360  14.291  0.2200  0.0006 -0.0205
  675DOPE   C1B 7915   6.534  12.236  12.914 -0.0544 -0.3234 -0.1687
  675DOPE   D2B 7916   6.429  12.730  12.877  0.0551 -0.0815 -0.1495
  675DOPE   C3B 7917   6.677  12.924  13.201 -0.4962  0.0307  0.0472
  675DOPE   C4B 7918   6.832  12.854  13.661 -0.0735  0.4489  0.0696
  676DOPC   NC3 7919  10.050  18.832  11.902 -0.3063 -0.1014  0.2522
  676DOPC   PO4 7920   9.908  18.923  12.248  0.0080 -0.4024  0.2445
  676DOPC   GL1 7921  10.186  19.124  12.534 -0.0404  0.2918  0.0970
  676DOPC   GL2 7922  10.071  19.336  12.694 -0.2524  0.2482 -0.1090
  676DOPC   C1A 7923  10.309  18.961  12.931 -0.1200 -0.0021 -0.2039
  676DOPC   D2A 7924  10.332  19.189  13.325  0.0053  0.1523  0.2052
  676DOPC   C3A 7925  10.201  19.665  13.456 -0.2055  0.4309 -0.0488
  676DOPC   C4A 7926  10.364  20.083  13.351 -0.2671  0.1836  0.1765
  676DOPC   C1B 7927   9.717  19.563  12.940 -0.1233  0.2568  0.1111
  676DOPC   D2B 7928   9.636  19.608  13.388  0.1306 -0.3867 -0.1691
  676DOPC   C3B 7929   9.675  19.435  13.816 -0.1349 -0.2623 -0.0753
  676DOPC   C4B 7930   9.751  19.246  14.234  0.1308  0.0390 -0.1176
  677POSM   NC3 7931   2.346  15.930  13.085  0.3209 -0.0998  0.3767
  677POSM   PO4 7932   2.105  15.620  12.935  0.2098  0.0020  0.0762
  677POSM   AM1 7933   2.401  15.469  13.006  0.0760 -0.1542  0.2374
  677POSM   AM2 7934   2.550  15.244  13.089 -0.2845  0.0782  0.1375
  677POSM   T1A 7935   2.857  15.630  13.124  0.2597  0.1993  0.2585
  677POSM   C2A 7936   3.211  15.849  13.294 -0.1587 -0.0001 -0.0479
  677POSM   C3A 7937   3.451  15.711  13.680 -0.1939  0.2392 -0.0446
  677POSM   C1B 7938   2.824  15.151  13.303  0.4906 -0.3755 -0.1194
  677POSM   D2B 7939   3.066  15.050  13.696  0.2010 -0.2692 -0.1995
  677POSM   C3B 7940   3.486  15.251  13.709 -0.1133 -0.1227  0.1399
  677POSM   C4B 7941   3.856  15.459  13.883  0.1792 -0.3331  0.0167
  678DOPS   CNO 7942   3.443  11.437  13.318 -0.0148 -0.0977 -0.1226
  678DOPS   PO4 7943   3.458  11.131  13.554  0.2244 -0.3649  0.1519
  678DOPS   GL1 7944   3.191  11.013  13.775  0.0512 -0.1749  0.1209
  678DOPS   GL2 7945   3.285  11.152  14.036  0.0713  0.1214 -0.0267
  678DOPS   C1A 7946   2.781  10.800  13.728 -0.0949  0.0654  0.5484
  678DOPS   D2A 7947   2.453  10.423  13.827  0.0994 -0.1348 -0.0161
  678DOPS   C3A 7948   2.300  10.324  14.221  0.4277 -0.2950  0.0384
  678DOPS   C4A 7949   2.164  10.412  14.691 -0.1019  0.4554 -0.0013
  678DOPS   C1B 7950   2.976  10.817  14.181 -0.1562 -0.1653 -0.0232
  678DOPS   D2B 7951   2.815  10.378  14.291 -0.2828  0.2068 -0.0228
  678DOPS   C3B 7952   2.967  10.342  14.684 -0.2815 -0.0478 -0.5649
  678DOPS   C4B 7953   2.982   9.997  14.969  0.1453  0.0085  0.0211
  679DOPE   NH3 7954   1.792  17.695  13.445 -0.1135  0.0432 -0.1219
  679DOPE   PO4 7955   1.650  17.600  13.186 -0.0354  0.1431 -0.1208
  679DOPE   GL1 7956   1.245  17.498  13.453 -0.1184 -0.0429  0.1864
  679DOPE   GL2 7957   1.224  17.465  13.724 -0.0785  0.3958  0.1048
  679DOPE   C1A 7958   0.842  17.431  13.332  0.1613 -0.1062 -0.0210
  679DOPE   D2A 7959   0.439  17.412  13.109  0.0861  0.1494 -0.1686
  679DOPE   C3A 7960   0.232  16.969  13.158  0.1279 -0.0435 -0.0440
  679DOPE   C4A 7961   0.236  16.774  13.572  0.0231 -0.3390 -0.3573
  679DOPE   C1B 7962   1.109  17.615  14.144 -0.3491 -0.1099  0.4792
  679DOPE   D2B 7963   0.854  17.697  14.515  0.1273  0.0305 -0.0089
  679DOPE   C3B 7964   0.931  17.940  14.931  0.0539  0.0098 -0.0248
  679DOPE   C4B 7965   1.253  18.269  15.021 -0.0133 -0.2675 -0.0605
  680POSM   NC3 7966  34.550  13.602  13.503  0.0336  0.2190 -0.3400
  680POSM   PO4 7967  34.318  13.896  13.433 -0.1759 -0.3387  0.1532
  680POSM   AM1 7968  34.582  14.005  13.693  0.0899 -0.1834  0.1026
  680POSM   AM2 7969  34.875  13.930  13.662 -0.0420  0.0676  0.1212
  680POSM   T1A 7970  34.720  14.160  14.133  0.4660 -0.0688  0.0690
  680POSM   C2A 7971  34.780  14.570  14.385 -0.0359 -0.1648  0.1090
  680POSM   C3A 7972  34.716  14.854  14.762 -0.2236  0.3239  0.0885
  680POSM   C1B 7973  34.795  13.729  13.922  0.3925  0.3036  0.3346
  680POSM   D2B 7974  34.707  13.363  14.176  0.1058  0.1245  0.0880
  680POSM   C3B 7975  34.684  13.395  14.619 -0.0538 -0.1301  0.0308
  680POSM   C4B 7976  34.330  13.595  14.874 -0.0989  0.1609 -0.1080
  681DOPC   NC3 7977   5.881  15.070  12.998 -0.1083 -0.0892 -0.2320
  681DOPC   PO4 7978   5.772  15.424  12.918  0.1618 -0.0127 -0.2167
  681DOPC   GL1 7979   5.523  15.696  13.151  0.2782  0.1248 -0.0304
  681DOPC   GL2 7980   5.520  15.638  13.449  0.2769  0.0850  0.0241
  681DOPC   C1A 7981   5.072  15.839  13.171 -0.1252 -0.2207 -0.1966
  681DOPC   D2A 7982   4.704  16.026  13.408  0.0547  0.1267 -0.2147
  681DOPC   C3A 7983   4.560  16.503  13.293  0.2661 -0.1433 -0.1340
  681DOPC   C4A 7984   4.168  16.776  13.297  0.2479  0.2310 -0.0939
  681DOPC   C1B 7985   5.319  16.066  13.620  0.2435 -0.1054 -0.4143
  681DOPC   D2B 7986   5.047  16.321  13.281 -0.0380  0.2799  0.1123
  681DOPC   C3B 7987   4.702  16.136  12.930  0.0912 -0.2049  0.4745
  681DOPC   C4B 7988   4.395  16.116  12.560  0.2900  0.2507  0.0155
  682DOPS   CNO 7989   2.776  12.171  13.337  0.0523 -0.0333  0.0063
  682DOPS   PO4 7990   2.451  12.150  13.551 -0.2893  0.1767  0.0245
  682DOPS   GL1 7991   2.241  12.282  13.923 -0.0091 -0.0416  0.2333
  682DOPS   GL2 7992   2.371  12.279  14.148 -0.2459  0.2144 -0.1456
  682DOPS   C1A 7993   2.058  11.846  14.089 -0.0682 -0.0367  0.1951
  682DOPS   D2A 7994   1.742  11.727  14.416 -0.0387  0.0760  0.0522
  682DOPS   C3A 7995   1.717  11.405  14.762  0.0134  0.1783  0.1025
  682DOPS   C4A 7996   1.743  11.142  15.168 -0.0308 -0.4406  0.0222
  682DOPS   C1B 7997   2.383  12.086  14.584 -0.2439 -0.1223 -0.1182
  682DOPS   D2B 7998   2.090  11.950  14.908 -0.1594 -0.1863  0.1195
  682DOPS   C3B 7999   1.663  11.811  15.154  0.0370  0.0520  0.1482
  682DOPS   C4B 8000   1.348  11.780  15.474  0.1373 -0.0828  0.0107
  683DOPC   NC3 8001   0.876  15.709  13.823 -0.3256 -0.1514 -0.0155
  683DOPC   PO4 8002   0.996  15.357  13.697  0.0272 -0.2887  0.1095
  683DOPC   GL1 8003   1.212  15.449  13.979 -0.0962  0.1692  0.1447
  683DOPC   GL2 8004   1.398  15.200  14.045  0.0540  0.0582  0.1835
  683DOPC   C1A 8005   1.105  15.740  14.322  0.2540 -0.2812  0.2614
  683DOPC   D2A 8006   1.221  15.724  14.758  0.1723 -0.0679 -0.0693
  683DOPC   C3A 8007   1.242  16.169  14.813  0.0291 -0.2950  0.0456
  683DOPC   C4A 8008   1.572  16.452  14.928 -0.0225  0.1010  0.2373
  683DOPC   C1B 8009   1.258  15.313  14.485  0.0154  0.1587 -0.1916
  683DOPC   D2B 8010   1.097  15.250  14.906  0.0431  0.1569  0.2804
  683DOPC   C3B 8011   1.487  15.350  15.122  0.1415  0.0176 -0.0678
  683DOPC   C4B 8012   1.889  15.169  14.914  0.2649  0.1809 -0.2235
  684DOPC   NC3 8013   4.798  15.070  13.598 -0.1534  0.3265 -0.0948
  684DOPC   PO4 8014   4.824  14.929  13.212  0.0492  0.1997  0.0289
  684DOPC   GL1 8015   4.442  14.915  13.318 -0.3050  0.1489 -0.0428
  684DOPC   GL2 8016   4.389  14.746  13.558  0.1076  0.1721 -0.0172
  684DOPC   C1A 8017   4.129  15.241  13.334 -0.0420  0.1969  0.3631
  684DOPC   D2A 8018   3.762  15.493  13.396  0.0554 -0.2456 -0.1023
  684DOPC   C3A 8019   3.908  15.902  13.290  0.0280  0.3500  0.0124
  684DOPC   C4A 8020   4.230  16.174  13.150  0.0882  0.1465  0.0208
  684DOPC   C1B 8021   4.042  14.750  13.225  0.1463  0.0877  0.0978
  684DOPC   D2B 8022   3.774  14.525  12.927  0.0201  0.1690 -0.2510
  684DOPC   C3B 8023   3.983  14.627  12.559  0.2390  0.0293  0.0092
  684DOPC   C4B 8024   4.353  14.850  12.417  0.0485  0.1415  0.1520
  685DOPE   NH3 8025   5.697  14.680  13.300  0.2177 -0.3103  0.2627
  685DOPE   PO4 8026   5.951  14.540  13.426  0.0339  0.1638  0.1215
  685DOPE   GL1 8027   6.094  14.189  13.616 -0.0154 -0.1197  0.0939
  685DOPE   GL2 8028   5.827  14.118  13.734  0.1230 -0.0100 -0.1138
  685DOPE   C1A 8029   6.503  14.306  13.770  0.2118  0.3126 -0.1753
  685DOPE   D2A 8030   6.677  14.619  14.104  0.1257 -0.2019 -0.0672
  685DOPE   C3A 8031   6.594  14.330  14.469  0.0599 -0.0121  0.0383
  685DOPE   C4A 8032   6.862  14.126  14.785  0.1529 -0.3664  0.0981
  685DOPE   C1B 8033   5.650  14.041  14.143  0.0081  0.2225 -0.3769
  685DOPE   D2B 8034   5.557  13.786  14.575  0.0792 -0.1991  0.0373
  685DOPE   C3B 8035   5.077  13.749  14.596  0.0037  0.0965 -0.0348
  685DOPE   C4B 8036   4.635  13.871  14.492 -0.3617 -0.2134 -0.2321
  686DOPC   NC3 8037   0.686  14.038  13.432 -0.1745  0.2306 -0.1008
  686DOPC   PO4 8038   0.670  14.423  13.387 -0.1305  0.2858  0.0318
  686DOPC   GL1 8039   0.879  14.387  13.689  0.0701  0.2634 -0.1301
  686DOPC   GL2 8040   0.968  14.485  14.001  0.1085 -0.3916 -0.1960
  686DOPC   C1A 8041   1.267  14.163  13.752 -0.0621 -0.4547 -0.1122
  686DOPC   D2A 8042   1.476  13.784  13.786  0.0235  0.2711 -0.2808
  686DOPC   C3A 8043   1.362  13.373  14.003 -0.1369 -0.3423 -0.0633
  686DOPC   C4A 8044   0.949  13.162  14.121 -0.3372 -0.0589  0.2353
  686DOPC   C1B 8045   1.236  14.317  14.336 -0.0220 -0.0640  0.1968
  686DOPC   D2B 8046   1.477  13.998  14.518  0.1865  0.3941  0.2255
  686DOPC   C3B 8047   1.752  13.650  14.328 -0.1304 -0.1413  0.2060
  686DOPC   C4B 8048   2.086  13.532  14.003  0.0026  0.0833 -0.2483
  687DOPC   NC3 8049   6.722  21.893  13.364  0.3483 -0.1422 -0.0958
  687DOPC   PO4 8050   6.770  22.230  13.215 -0.0440 -0.0505  0.0692
  687DOPC   GL1 8051   7.162  22.281  13.432  0.2179  0.1867 -0.0603
  687DOPC   GL2 8052   7.293  22.314  13.187 -0.0800  0.0345 -0.0758
  687DOPC   C1A 8053   7.185  22.319  13.915  0.0377 -0.0215 -0.2009
  687DOPC   D2A 8054   6.854  22.380  14.259 -0.0798  0.1760  0.0960
  687DOPC   C3A 8055   6.694  22.052  14.653  0.0215  0.1228 -0.0679
  687DOPC   C4A 8056   6.361  22.029  14.949 -0.2240  0.2900 -0.3710
  687DOPC   C1B 8057   7.674  22.139  13.454  0.0630  0.2505  0.0218
  687DOPC   D2B 8058   8.126  22.164  13.450 -0.2286 -0.0526 -0.0735
  687DOPC   C3B 8059   8.419  21.911  13.627 -0.2902  0.0084 -0.0578
  687DOPC   C4B 8060   8.764  21.993  13.883 -0.0512  0.1504  0.0828
  688POSM   NC3 8061   5.734  21.693  13.593  0.1585 -0.0899  0.0385
  688POSM   PO4 8062   5.590  21.920  13.301  0.0874  0.0699 -0.0212
  688POSM   AM1 8063   5.368  22.044  13.520 -0.1632 -0.1204 -0.1426
  688POSM   AM2 8064   5.313  22.320  13.621 -0.2919 -0.1946  0.2505
  688POSM   T1A 8065   4.970  21.976  13.847  0.0436  0.0585  0.2640
  688POSM   C2A 8066   4.526  21.936  14.013  0.2944 -0.1996  0.2591
  688POSM   C3A 8067   4.401  21.544  14.226  0.0953 -0.2521 -0.3379
  688POSM   C1B 8068   5.199  22.427  13.919 -0.3185 -0.1298 -0.1348
  688POSM   D2B 8069   4.919  22.297  14.263 -0.0147 -0.3628  0.0529
  688POSM   C3B 8070   4.573  22.391  14.555  0.0893  0.2597  0.0009
  688POSM   C4B 8071   4.436  22.796  14.731  0.3861 -0.1931 -0.0917
  689DOPE   NH3 8072   4.876  15.001  12.734  0.2143 -0.0941  0.0046
  689DOPE   PO4 8073   5.113  15.018  12.507 -0.0621  0.0584 -0.1307
  689DOPE   GL1 8074   4.886  15.362  12.410 -0.2517  0.2168 -0.4139
  689DOPE   GL2 8075   4.981  15.609  12.559 -0.1117 -0.1276  0.1925
  689DOPE   C1A 8076   4.452  15.515  12.511 -0.1396 -0.0028 -0.0232
  689DOPE   D2A 8077   4.185  15.591  12.848  0.0100 -0.0288 -0.3335
  689DOPE   C3A 8078   3.745  15.542  12.733  0.0209  0.0414  0.0445
  689DOPE   C4A 8079   3.377  15.542  12.444 -0.0027  0.2012 -0.0134
  689DOPE   C1B 8080   4.740  15.548  12.958  0.4032 -0.0599 -0.1567
  689DOPE   D2B 8081   4.613  15.545  13.374  0.0581 -0.1977 -0.1682
  689DOPE   C3B 8082   4.261  15.630  13.621 -0.0934  0.4225  0.2431
  689DOPE   C4B 8083   4.113  15.912  13.955  0.0241  0.1601 -0.2033
  690DOPS   CNO 8084   5.553  14.768  12.804  0.0588 -0.2291  0.4269
  690DOPS   PO4 8085   5.253  14.635  13.014  0.2509  0.0868 -0.1004
  690DOPS   GL1 8086   4.880  14.401  13.099 -0.1620  0.0130  0.3628
  690DOPS   GL2 8087   4.816  14.425  12.851 -0.0291 -0.2706  0.0867
  690DOPS   C1A 8088   4.494  14.347  13.363  0.1151  0.0936  0.2930
  690DOPS   D2A 8089   4.051  14.249  13.217 -0.2050 -0.3517  0.0738
  690DOPS   C3A 8090   4.192  13.983  12.849 -0.0294  0.0568  0.2966
  690DOPS   C4A 8091   4.565  14.126  12.601 -0.2221  0.1433  0.2888
  690DOPS   C1B 8092   4.376  14.579  12.928 -0.3671  0.1248 -0.1076
  690DOPS   D2B 8093   4.166  15.012  12.855  0.0447 -0.0560 -0.0271
  690DOPS   C3B 8094   3.661  15.099  12.881  0.1422  0.1509 -0.1243
  690DOPS   C4B 8095   3.313  15.358  13.064 -0.1714  0.1544 -0.2491
  691DOPC   NC3 8096   3.792  23.073  14.042 -0.2077 -0.1311 -0.3018
  691DOPC   PO4 8097   4.030  23.079  13.726 -0.1563 -0.0903  0.2208
  691DOPC   GL1 8098   4.217  22.787  13.876 -0.0762  0.0292  0.0048
  691DOPC   GL2 8099   3.911  22.611  13.878  0.1233 -0.0979 -0.0921
  691DOPC   C1A 8100   4.542  22.758  14.203  0.0719 -0.2112 -0.3037
  691DOPC   D2A 8101   4.933  22.738  14.438  0.0964 -0.0237  0.3020
  691DOPC   C3A 8102   4.898  22.718  14.909 -0.0070  0.0204 -0.2257
  691DOPC   C4A 8103   5.150  22.563  15.228  0.2210 -0.1396  0.2402
  691DOPC   C1B 8104   3.802  22.235  14.141 -0.1316 -0.0735 -0.2096
  691DOPC   D2B 8105   3.408  22.066  14.331  0.0782 -0.1495 -0.0432
  691DOPC   C3B 8106   3.096  22.267  14.528  0.0698 -0.2637 -0.1934
  691DOPC   C4B 8107   2.822  22.244  14.871 -0.1819 -0.0005  0.1206
  692DOPE   NH3 8108   0.765  14.895  13.519  0.0682 -0.2077 -0.1001
  692DOPE   PO4 8109   0.605  14.825  13.796  0.3045  0.0660  0.1194
  692DOPE   GL1 8110   0.299  15.052  14.043 -0.1230 -0.1047 -0.0955
  692DOPE   GL2 8111   0.346  14.982  14.292 -0.3289 -0.2071  0.0982
  692DOPE   C1A 8112  -0.114  15.149  14.283 -0.0430 -0.1053  0.0472
  692DOPE   D2A 8113  -0.456  15.397  14.502 -0.2796 -0.0557 -0.1071
  692DOPE   C3A 8114  -0.393  15.866  14.483 -0.1480 -0.0857 -0.3461
  692DOPE   C4A 8115  -0.313  16.130  14.142  0.2155  0.0252  0.0869
  692DOPE   C1B 8116   0.252  15.394  14.543 -0.1416 -0.1471 -0.0938
  692DOPE   D2B 8117  -0.099  15.632  14.798 -0.2176 -0.5036  0.1977
  692DOPE   C3B 8118  -0.543  15.510  15.005  0.2185  0.0003  0.0018
  692DOPE   C4B 8119  -0.614  15.221  15.346  0.1163 -0.3275 -0.2723
  693DOPE   NH3 8120   5.424  15.439  12.596 -0.1454  0.0788  0.1058
  693DOPE   PO4 8121   5.486  15.763  12.663  0.0129  0.0133 -0.1937
  693DOPE   GL1 8122   5.542  16.176  12.765  0.1100  0.2463  0.3403
  693DOPE   GL2 8123   5.490  16.214  13.072  0.3936 -0.2078 -0.2516
  693DOPE   C1A 8124   5.243  16.596  12.780 -0.1750 -0.1473  0.2451
  693DOPE   D2A 8125   5.071  16.887  13.093  0.0411 -0.2203 -0.4352
  693DOPE   C3A 8126   4.872  16.811  13.558 -0.1344 -0.1896 -0.2816
  693DOPE   C4A 8127   5.048  16.723  13.943  0.1397 -0.0125 -0.2025
  693DOPE   C1B 8128   5.465  16.552  13.348  0.2897 -0.2170 -0.1833
  693DOPE   D2B 8129   5.553  17.026  13.354  0.2192 -0.1054 -0.0009
  693DOPE   C3B 8130   5.258  17.223  13.664 -0.0747 -0.0298  0.1562
  693DOPE   C4B 8131   5.092  17.236  14.079  0.0014  0.2131  0.2798
  694POSM   NC3 8132   9.442  18.835  12.439 -0.2724  0.4534 -0.1036
  694POSM   PO4 8133   9.464  18.460  12.590  0.2467  0.0922  0.0764
  694POSM   AM1 8134   9.278  18.608  12.823 -0.1544 -0.1764 -0.4344
  694POSM   AM2 8135   9.055  18.817  12.833 -0.0738  0.0717 -0.0015
  694POSM   T1A 8136   9.280  18.821  13.301  0.0361  0.0349  0.3004
  694POSM   C2A 8137   9.191  18.942  13.730 -0.0545  0.1389 -0.1691
  694POSM   C3A 8138   9.012  18.906  14.101 -0.2307 -0.0090  0.0793
  694POSM   C1B 8139   8.817  18.864  13.110 -0.0063 -0.0352 -0.0200
  694POSM   D2B 8140   8.705  18.933  13.611  0.2366 -0.0115  0.2356
  694POSM   C3B 8141   8.327  19.108  13.805 -0.2010  0.4231 -0.0824
  694POSM   C4B 8142   8.232  19.506  13.983  0.1592  0.1989  0.0136
  695POSM   NC3 8143   8.357  23.122  12.721  0.1688 -0.1217 -0.1158
  695POSM   PO4 8144   8.095  23.069  12.413  0.2053 -0.2521  0.1282
  695POSM   AM1 8145   8.324  22.807  12.338  0.0334  0.0383  0.4030
  695POSM   AM2 8146   8.604  22.746  12.345 -0.1078  0.1261  0.1233
  695POSM   T1A 8147   8.350  22.284  12.348 -0.5025  0.2186 -0.0512
  695POSM   C2A 8148   8.663  21.962  12.408  0.3484  0.0420  0.0207
  695POSM   C3A 8149   8.842  22.047  12.790  0.2166  0.2415  0.0088
  695POSM   C1B 8150   8.775  22.534  12.550  0.2088 -0.0349 -0.2605
  695POSM   D2B 8151   9.204  22.423  12.680  0.1832  0.2713 -0.0719
  695POSM   C3B 8152   9.508  22.118  12.708  0.1786  0.0805  0.1035
  695POSM   C4B 8153   9.795  21.789  12.900 -0.3607 -0.0180  0.1646
  696DOPC   NC3 8154   0.040  15.084  13.062 -0.2913  0.2213 -0.0258
  696DOPC   PO4 8155   0.275  14.817  13.290  0.1824 -0.2610 -0.0454
  696DOPC   GL1 8156   0.264  15.102  13.558 -0.3299 -0.0681  0.0605
  696DOPC   GL2 8157   0.508  15.323  13.724  0.0553 -0.0225  0.4296
  696DOPC   C1A 8158   0.030  15.321  13.870  0.1629 -0.3782  0.0168
  696DOPC   D2A 8159  -0.054  15.723  14.036 -0.1078 -0.0575  0.0707
  696DOPC   C3A 8160   0.227  15.853  14.467 -0.2498 -0.0412 -0.2162
  696DOPC   C4A 8161   0.637  15.725  14.644  0.0034 -0.0179  0.3327
  696DOPC   C1B 8162   0.424  15.701  13.964  0.1503 -0.1859 -0.3023
  696DOPC   D2B 8163   0.240  16.144  13.956 -0.1606  0.1111 -0.3601
  696DOPC   C3B 8164   0.176  16.364  14.342 -0.1019  0.2985 -0.1908
  696DOPC   C4B 8165   0.056  16.736  14.703  0.0922  0.1535 -0.0928
  697DOPC   NC3 8166   5.267  22.277  13.126  0.2230  0.3137 -0.1526
  697DOPC   PO4 8167   4.950  22.397  12.872 -0.1034  0.1428  0.0606
  697DOPC   GL1 8168   4.737  22.225  13.093  0.0300  0.0143  0.1143
  697DOPC   GL2 8169   4.779  22.252  13.347  0.1737  0.0157  0.0112
  697DOPC   C1A 8170   4.272  22.062  13.053 -0.2422 -0.2572 -0.0083
  697DOPC   D2A 8171   3.842  21.992  13.197 -0.1657 -0.0169 -0.2373
  697DOPC   C3A 8172   3.816  21.739  13.558 -0.0984 -0.0098  0.2338
  697DOPC   C4A 8173   3.610  21.362  13.717  0.1251 -0.2752  0.2039
  697DOPC   C1B 8174   4.435  22.031  13.543 -0.0415  0.0063 -0.2913
  697DOPC   D2B 8175   4.086  22.038  13.756  0.1700 -0.0771 -0.1220
  697DOPC   C3B 8176   3.914  21.780  14.041  0.0276 -0.1272  0.2155
  697DOPC   C4B 8177   3.541  21.579  14.193  0.1695  0.0715  0.1096
  698DOPC   NC3 8178   7.076  17.582  12.527  0.0900  0.0986  0.2830
  698DOPC   PO4 8179   6.765  17.748  12.713  0.3244  0.1585  0.1570
  698DOPC   GL1 8180   6.497  17.967  12.995 -0.0733 -0.3498 -0.2150
  698DOPC   GL2 8181   6.341  18.146  12.748  0.0247  0.1625 -0.0061
  698DOPC   C1A 8182   6.298  18.021  13.444  0.0043 -0.1821  0.0518
  698DOPC   D2A 8183   6.135  18.407  13.613 -0.1974 -0.2779  0.1842
  698DOPC   C3A 8184   6.271  18.903  13.667  0.4337 -0.0446 -0.0396
  698DOPC   C4A 8185   6.428  19.356  13.655  0.0343  0.3521  0.1304
  698DOPC   C1B 8186   5.848  18.216  12.868 -0.1047  0.0978  0.3205
  698DOPC   D2B 8187   5.548  18.531  12.978 -0.1826  0.0764 -0.2484
  698DOPC   C3B 8188   5.596  18.862  13.343 -0.1358 -0.0968  0.0371
  698DOPC   C4B 8189   5.619  18.970  13.828  0.1422  0.1104 -0.3578
  699POSM   NC3 8190   2.281  14.344  13.405 -0.2095  0.0381 -0.2009
  699POSM   PO4 8191   2.446  14.183  13.093 -0.4806  0.1509 -0.1314
  699POSM   AM1 8192   2.627  14.481  13.025 -0.0712 -0.1991 -0.0178
  699POSM   AM2 8193   2.562  14.762  13.141 -0.0475  0.0389  0.2419
  699POSM   T1A 8194   3.078  14.658  13.131 -0.1160 -0.1274  0.3141
  699POSM   C2A 8195   3.396  14.905  13.328 -0.0705  0.0861  0.1801
  699POSM   C3A 8196   3.775  14.930  13.572 -0.0065  0.3981  0.0217
  699POSM   C1B 8197   2.637  14.693  13.465  0.0130  0.0331  0.1871
  699POSM   D2B 8198   2.797  14.692  13.913 -0.2082 -0.3356  0.0301
  699POSM   C3B 8199   2.697  14.284  14.059 -0.0265 -0.4045  0.2553
  699POSM   C4B 8200   2.430  13.987  13.889  0.1420  0.0630  0.1646
  700DOPC   NC3 8201   2.620  22.929  12.833 -0.2121 -0.0636 -0.0562
  700DOPC   PO4 8202   2.300  22.824  12.660  0.0709 -0.0909 -0.0966
  700DOPC   GL1 8203   2.288  22.616  12.969 -0.1334 -0.2479 -0.0907
  700DOPC   GL2 8204   2.539  22.417  12.839 -0.0038  0.0807  0.0676
  700DOPC   C1A 8205   2.110  22.189  13.045  0.2907  0.0975  0.1007
  700DOPC   D2A 8206   2.110  21.946  13.425 -0.1228  0.0933 -0.3590
  700DOPC   C3A 8207   1.691  21.733  13.356 -0.3728 -0.3751  0.1953
  700DOPC   C4A 8208   1.497  21.350  13.103 -0.0074  0.0767  0.1912
  700DOPC   C1B 8209   2.753  22.067  13.050 -0.1570 -0.1875 -0.1948
  700DOPC   D2B 8210   2.840  21.770  13.390 -0.0869  0.2541 -0.1070
  700DOPC   C3B 8211   2.496  21.521  13.597 -0.0328 -0.0119  0.0416
  700DOPC   C4B 8212   2.027  21.440  13.738  0.2280  0.2611 -0.0142
  701POSM   NC3 8213  10.643  16.645  12.018 -0.0088  0.0452 -0.3332
  701POSM   PO4 8214  10.424  16.402  11.862 -0.2101  0.0598  0.2109
  701POSM   AM1 8215  10.115  16.286  11.944  0.1843 -0.0759  0.2303
  701POSM   AM2 8216   9.992  16.337  12.203  0.2627  0.0341 -0.2480
  701POSM   T1A 8217   9.595  16.217  11.862 -0.3326 -0.3300  0.0018
  701POSM   C2A 8218   9.221  16.370  11.737  0.3158 -0.2857  0.2150
  701POSM   C3A 8219   8.913  16.546  11.390 -0.0303 -0.3403  0.2160
  701POSM   C1B 8220   9.806  16.550  12.369  0.1456  0.0394 -0.1137
  701POSM   D2B 8221   9.668  16.691  12.750  0.2050 -0.2265  0.0982
  701POSM   C3B 8222   9.442  16.497  13.076 -0.2738 -0.0024  0.0528
  701POSM   C4B 8223   9.308  16.085  13.156  0.2441  0.0451 -0.1335
  702DOPS   CNO 8224   7.186  14.215  12.440  0.0349  0.1052  0.5163
  702DOPS   PO4 8225   7.321  13.901  12.493  0.1217  0.0823 -0.0884
  702DOPS   GL1 8226   7.558  13.619  12.710  0.2849  0.0703 -0.1599
  702DOPS   GL2 8227   7.649  13.678  13.027  0.0782 -0.1069  0.0373
  702DOPS   C1A 8228   7.673  13.182  12.853 -0.2815 -0.1826 -0.4136
  702DOPS   D2A 8229   7.556  12.713  12.983 -0.3992  0.2404  0.1449
  702DOPS   C3A 8230   7.754  12.551  13.394 -0.2716  0.0986  0.0387
  702DOPS   C4A 8231   8.087  12.405  13.565 -0.1751  0.0193 -0.0903
  702DOPS   C1B 8232   7.769  13.649  13.460 -0.0219  0.0813 -0.0772
  702DOPS   D2B 8233   8.030  13.340  13.685  0.3294 -0.0092  0.0903
  702DOPS   C3B 8234   8.070  13.362  14.140  0.4458  0.0690 -0.1960
  702DOPS   C4B 8235   7.854  13.519  14.531  0.1160  0.3146 -0.0586
  703DOPC   NC3 8236   2.507  17.546  12.887  0.0959 -0.0086  0.0872
  703DOPC   PO4 8237   2.490  17.140  12.932  0.0925  0.1944  0.3901
  703DOPC   GL1 8238   2.850  17.106  12.777 -0.6728 -0.1084 -0.2573
  703DOPC   GL2 8239   3.036  17.355  12.716 -0.0938 -0.1796  0.1122
  703DOPC   C1A 8240   3.261  16.899  12.850 -0.2005 -0.0340  0.2294
  703DOPC   D2A 8241   3.698  16.809  12.993 -0.2615 -0.1273 -0.1241
  703DOPC   C3A 8242   3.805  16.427  13.135  0.0061  0.0905  0.1989
  703DOPC   C4A 8243   3.567  16.203  13.462 -0.3551 -0.0203  0.1410
  703DOPC   C1B 8244   3.516  17.242  12.592  0.1229  0.2018 -0.0651
  703DOPC   D2B 8245   3.898  17.240  12.781  0.0251 -0.3540 -0.4110
  703DOPC   C3B 8246   4.208  17.379  13.077 -0.4855 -0.4581 -0.0277
  703DOPC   C4B 8247   4.416  17.402  13.501  0.0273  0.1109  0.2532
  704DOPS   CNO 8248   0.008  21.444  13.249 -0.1525  0.2650  0.3036
  704DOPS   PO4 8249   0.118  21.746  13.082 -0.2586  0.0320 -0.0390
  704DOPS   GL1 8250   0.483  21.437  13.028  0.2743 -0.2094  0.1542
  704DOPS   GL2 8251   0.564  21.533  13.296  0.0805 -0.1457 -0.2180
  704DOPS   C1A 8252   0.828  21.095  13.077  0.2674  0.2276 -0.0444
  704DOPS   D2A 8253   1.176  21.023  13.369 -0.2110 -0.0546 -0.3082
  704DOPS   C3A 8254   1.111  20.988  13.801 -0.1042  0.2198 -0.3992
  704DOPS   C4A 8255   1.066  20.830  14.235  0.1361  0.1569  0.2688
  704DOPS   C1B 8256   0.995  21.547  13.445  0.1031 -0.1193  0.0474
  704DOPS   D2B 8257   1.297  21.604  13.850 -0.0593 -0.2874  0.0303
  704DOPS   C3B 8258   1.267  21.365  14.203 -0.0113  0.0441  0.0394
  704DOPS   C4B 8259   1.244  21.142  14.626 -0.1410 -0.1340  0.0117
  705DOPE   NH3 8260   5.069  21.332  12.990 -0.2283 -0.2013  0.1288
  705DOPE   PO4 8261   4.839  21.220  12.782  0.0634 -0.2202  0.0273
  705DOPE   GL1 8262   4.702  20.898  12.988  0.0778  0.1784  0.2990
  705DOPE   GL2 8263   4.937  20.855  13.194 -0.0164 -0.0408 -0.0738
  705DOPE   C1A 8264   4.353  20.856  13.217 -0.2063 -0.1949  0.1326
  705DOPE   D2A 8265   4.078  21.008  13.524  0.3082  0.2309  0.0520
  705DOPE   C3A 8266   3.848  20.811  13.854  0.1012  0.2915 -0.3072
  705DOPE   C4A 8267   3.561  20.485  14.075  0.0253  0.3601 -0.3366
  705DOPE   C1B 8268   4.681  20.638  13.531 -0.3255 -0.2518 -0.0476
  705DOPE   D2B 8269   4.807  20.406  13.980 -0.2706 -0.3946  0.2696
  705DOPE   C3B 8270   4.650  20.074  14.247 -0.0718 -0.1625 -0.3175
  705DOPE   C4B 8271   4.342  20.256  14.556 -0.0179 -0.0685  0.2743
  706DOPE   NH3 8272  10.163  14.816  11.869  0.1572 -0.1924  0.1535
  706DOPE   PO4 8273  10.117  14.482  11.799  0.1605  0.3299  0.2785
  706DOPE   GL1 8274  10.106  14.340  12.238  0.0512 -0.0555  0.2852
  706DOPE   GL2 8275   9.968  14.110  12.097 -0.0914  0.2094 -0.1563
  706DOPE   C1A 8276  10.395  14.110  12.507  0.0376 -0.1104 -0.2753
  706DOPE   D2A 8277  10.461  13.925  12.934 -0.2634 -0.0800 -0.0974
  706DOPE   C3A 8278  10.131  13.722  13.230  0.1213  0.1737 -0.1288
  706DOPE   C4A 8279   9.804  13.878  13.530 -0.3517 -0.2822 -0.0427
  706DOPE   C1B 8280   9.985  13.913  12.507 -0.1969  0.0019 -0.1325
  706DOPE   D2B 8281  10.026  13.427  12.588 -0.3480 -0.2123  0.1194
  706DOPE   C3B 8282  10.007  13.140  12.926  0.1120 -0.1829  0.1409
  706DOPE   C4B 8283  10.197  12.799  13.191  0.0414 -0.1171 -0.2476
  707DOPE   NH3 8284   7.148  15.000  12.966 -0.2671  0.0653 -0.0997
  707DOPE   PO4 8285   7.110  15.160  12.652 -0.0801  0.1397  0.1313
  707DOPE   GL1 8286   6.725  15.374  12.735 -0.5525  0.1447  0.0898
  707DOPE   GL2 8287   6.822  15.657  12.680  0.2253  0.1943  0.0349
  707DOPE   C1A 8288   6.393  15.531  12.969  0.1561  0.2591  0.0186
  707DOPE   D2A 8289   6.066  15.539  13.315  0.1319  0.2294  0.1448
  707DOPE   C3A 8290   5.998  15.661  13.757 -0.0578 -0.2651 -0.1947
  707DOPE   C4A 8291   6.030  15.641  14.247 -0.0785  0.2069  0.2010
  707DOPE   C1B 8292   6.910  15.601  13.147  0.0338  0.0731 -0.3305
  707DOPE   D2B 8293   6.963  15.550  13.564  0.4299 -0.0645 -0.1240
  707DOPE   C3B 8294   6.954  15.302  13.913  0.1901  0.1712  0.1168
  707DOPE   C4B 8295   7.049  14.983  14.204 -0.1210  0.1455  0.5644
  708DOPC   NC3 8296   4.527  13.345  12.930 -0.1213 -0.0545  0.1410
  708DOPC   PO4 8297   4.273  13.509  13.210  0.1446 -0.0751  0.1309
  708DOPC   GL1 8298   4.237  13.638  13.606 -0.0400  0.2844 -0.5570
  708DOPC   GL2 8299   4.372  13.868  13.562 -0.0984  0.0325  0.0430
  708DOPC   C1A 8300   4.480  13.655  14.015 -0.0068  0.0523 -0.1923
  708DOPC   D2A 8301   4.930  13.774  14.124 -0.0828 -0.0447 -0.2232
  708DOPC   C3A 8302   5.297  13.506  14.205  0.0645  0.2495  0.0510
  708DOPC   C4A 8303   5.742  13.575  14.102 -0.3743  0.2976  0.2544
  708DOPC   C1B 8304   4.756  13.643  13.600  0.3572 -0.2077 -0.2506
  708DOPC   D2B 8305   4.900  13.297  13.837 -0.1670  0.3245 -0.1080
  708DOPC   C3B 8306   4.807  13.354  14.339 -0.0404 -0.3066  0.0587
  708DOPC   C4B 8307   4.564  13.386  14.764 -0.1498 -0.4847 -0.2376
  709DOPS   CNO 8308  10.610  19.077  11.811 -0.1979 -0.1816  0.0244
  709DOPS   PO4 8309  10.437  19.029  12.140 -0.1460 -0.2288 -0.1590
  709DOPS   GL1 8310  10.765  19.120  12.315 -0.3240  0.1499 -0.3500
  709DOPS   GL2 8311  10.965  19.174  12.122  0.1505  0.2743 -0.1814
  709DOPS   C1A 8312  10.769  19.045  12.782 -0.0535 -0.3497 -0.0406
  709DOPS   D2A 8313  10.684  18.884  13.218  0.0209  0.1792 -0.1895
  709DOPS   C3A 8314  10.445  18.518  13.181  0.1935 -0.1382 -0.2676
  709DOPS   C4A 8315  10.612  18.122  13.079  0.0749  0.0256  0.1401
  709DOPS   C1B 8316  11.191  18.940  12.439 -0.1935  0.1653  0.0340
  709DOPS   D2B 8317  11.223  18.947  12.917  0.4452 -0.3023 -0.2871
  709DOPS   C3B 8318  11.033  19.333  13.198  0.2889 -0.2373 -0.1243
  709DOPS   C4B 8319  10.660  19.664  13.351  0.4384 -0.1132  0.0192
  710DOPS   CNO 8320   6.686  21.600  12.924 -0.0926 -0.2645 -0.0925
  710DOPS   PO4 8321   6.878  21.427  13.230 -0.0712 -0.2900 -0.1635
  710DOPS   GL1 8322   7.057  21.117  13.474  0.0510 -0.1696 -0.0231
  710DOPS   GL2 8323   6.788  21.099  13.663  0.0222  0.0017 -0.1214
  710DOPS   C1A 8324   7.340  21.073  13.814  0.1112 -0.3185  0.1829
  710DOPS   D2A 8325   7.677  21.343  13.877  0.0792  0.0043 -0.0538
  710DOPS   C3A 8326   8.054  21.370  13.650 -0.0063  0.0637 -0.0960
  710DOPS   C4A 8327   8.520  21.439  13.520 -0.1405  0.0361 -0.0939
  710DOPS   C1B 8328   6.952  20.788  14.005 -0.0787  0.0653 -0.0488
  710DOPS   D2B 8329   7.267  20.608  14.241  0.0995 -0.2786 -0.1140
  710DOPS   C3B 8330   7.721  20.582  14.258 -0.2747  0.1585  0.1754
  710DOPS   C4B 8331   8.156  20.456  14.060 -0.0331 -0.0019  0.3363
  711DOPC   NC3 8332   6.429  21.205  13.144 -0.0101  0.1720  0.1224
  711DOPC   PO4 8333   6.713  20.891  13.238  0.0386  0.0501  0.2054
  711DOPC   GL1 8334   6.835  20.648  13.501 -0.0708 -0.0492 -0.1557
  711DOPC   GL2 8335   6.593  20.556  13.631  0.1848 -0.1115 -0.0050
  711DOPC   C1A 8336   7.026  20.256  13.711  0.0704  0.1015  0.0744
  711DOPC   D2A 8337   7.353  19.948  13.818  0.1167  0.4709  0.0808
  711DOPC   C3A 8338   7.273  19.517  13.834  0.0879  0.0326 -0.3512
  711DOPC   C4A 8339   6.943  19.356  13.510  0.0439  0.2729 -0.1131
  711DOPC   C1B 8340   6.731  20.212  13.365  0.2236  0.2142 -0.3726
  711DOPC   D2B 8341   6.512  19.757  13.269 -0.2574  0.2551 -0.0391
  711DOPC   C3B 8342   6.141  19.530  13.257  0.1813  0.1246  0.0029
  711DOPC   C4B 8343   5.690  19.327  13.164  0.1605 -0.2783 -0.1820
  712DOPS   CNO 8344   1.631  15.823  13.146  0.0055 -0.0043  0.1115
  712DOPS   PO4 8345   1.663  15.444  13.119 -0.1927  0.0474  0.2245
  712DOPS   GL1 8346   1.884  15.322  13.394 -0.3554  0.2202  0.1874
  712DOPS   GL2 8347   2.021  15.518  13.487 -0.1202 -0.1682  0.0658
  712DOPS   C1A 8348   1.875  15.068  13.812 -0.2045 -0.1902  0.1341
  712DOPS   D2A 8349   1.906  14.821  14.225 -0.0243 -0.0259  0.0346
  712DOPS   C3A 8350   1.724  15.119  14.482 -0.0724 -0.1023  0.1894
  712DOPS   C4A 8351   1.675  15.512  14.664 -0.5208  0.1799  0.1628
  712DOPS   C1B 8352   2.506  15.542  13.447  0.0629 -0.1772 -0.0125
  712DOPS   D2B 8353   2.959  15.539  13.636  0.0089  0.1064  0.2782
  712DOPS   C3B 8354   3.182  15.457  14.044  0.1983 -0.2024  0.2052
  712DOPS   C4B 8355   3.525  15.746  14.253 -0.1531  0.2318 -0.0412
  713DOPS   CNO 8356   2.850  17.858  12.756  0.0598 -0.0972 -0.1852
  713DOPS   PO4 8357   2.715  18.030  13.055 -0.2826 -0.0233 -0.1215
  713DOPS   GL1 8358   2.956  17.899  13.347  0.1877  0.1865  0.0074
  713DOPS   GL2 8359   3.154  18.125  13.436  0.0688 -0.4667  0.2586
  713DOPS   C1A 8360   3.216  17.766  13.686  0.0859 -0.0774  0.1845
  713DOPS   D2A 8361   3.523  17.695  14.049  0.1775 -0.1256 -0.2944
  713DOPS   C3A 8362   3.799  17.404  14.213 -0.1302  0.0193  0.2035
  713DOPS   C4A 8363   4.153  17.183  14.322 -0.2059 -0.0386  0.2426
  713DOPS   C1B 8364   3.168  18.181  13.870 -0.0431 -0.0899 -0.0465
  713DOPS   D2B 8365   2.917  18.350  14.252 -0.0861 -0.2149 -0.2504
  713DOPS   C3B 8366   2.948  18.241  14.703 -0.2201  0.3140  0.0376
  713DOPS   C4B 8367   3.315  18.082  14.920  0.0277 -0.0601  0.1689
  714DOPC   NC3 8368   1.957  19.196  13.572  0.2917  0.0610 -0.0532
  714DOPC   PO4 8369   2.101  19.458  13.302  0.2067 -0.3252 -0.2746
  714DOPC   GL1 8370   2.038  19.787  13.439  0.0148 -0.2738 -0.1585
  714DOPC   GL2 8371   1.944  20.013  13.265  0.3261 -0.1884  0.0343
  714DOPC   C1A 8372   2.002  19.908  13.891 -0.1889  0.4663  0.1733
  714DOPC   D2A 8373   2.316  19.970  14.206 -0.0399  0.2610 -0.1249
  714DOPC   C3A 8374   2.390  20.368  14.475 -0.1132  0.4276  0.0989
  714DOPC   C4A 8375   2.541  20.814  14.475 -0.0664 -0.2418 -0.1423
  714DOPC   C1B 8376   1.711  20.196  13.543  0.1204  0.2083 -0.0101
  714DOPC   D2B 8377   1.503  20.456  13.824  0.0161  0.1669  0.0866
  714DOPC   C3B 8378   1.351  20.460  14.252 -0.0339 -0.2136 -0.0062
  714DOPC   C4B 8379   1.375  20.622  14.674 -0.3366 -0.1242 -0.1263
  715DOPE   NH3 8380   9.232  11.222  12.156  0.0704 -0.4128  0.0583
  715DOPE   PO4 8381   9.149  11.138  12.489  0.0491 -0.0468 -0.1734
  715DOPE   GL1 8382   9.246  11.323  12.819 -0.1820  0.0733  0.0842
  715DOPE   GL2 8383   9.013  11.105  12.985 -0.0068 -0.0144 -0.1540
  715DOPE   C1A 8384   9.374  11.322  13.284  0.0632  0.0721 -0.0528
  715DOPE   D2A 8385   9.771  11.125  13.452 -0.1530 -0.0243 -0.4966
  715DOPE   C3A 8386   9.780  10.687  13.570 -0.0339  0.2008 -0.4200
  715DOPE   C4A 8387   9.566  10.295  13.598 -0.1147  0.0498  0.1722
  715DOPE   C1B 8388   8.963  11.032  13.405  0.0904 -0.0304 -0.0077
  715DOPE   D2B 8389   9.385  11.001  13.717 -0.0444 -0.0619 -0.0854
  715DOPE   C3B 8390   9.141  11.380  13.802  0.0094  0.4391 -0.1448
  715DOPE   C4B 8391   9.079  11.665  14.150  0.0751  0.0777  0.0930
  716DOPE   NH3 8392  34.643  22.243  13.151 -0.1505 -0.2300  0.2188
  716DOPE   PO4 8393  34.691  22.504  13.392  0.0571 -0.1960  0.1217
  716DOPE   GL1 8394  35.004  22.689  13.682  0.0317 -0.1708  0.0334
  716DOPE   GL2 8395  35.190  22.552  13.474 -0.1501 -0.2256 -0.2023
  716DOPE   C1A 8396  35.355  22.874  13.886 -0.0190 -0.3943 -0.1384
  716DOPE   D2A 8397  35.810  22.909  13.970  0.2607 -0.2028  0.2126
  716DOPE   C3A 8398  36.064  22.820  14.378 -0.2905 -0.3306 -0.1800
  716DOPE   C4A 8399  36.295  23.054  14.711  0.0868  0.0734 -0.0519
  716DOPE   C1B 8400  35.579  22.392  13.568  0.0818  0.3186 -0.2281
  716DOPE   D2B 8401  35.860  22.155  13.855 -0.2007 -0.1589  0.1344
  716DOPE   C3B 8402  36.029  21.975  14.281 -0.1817  0.1609  0.0571
  716DOPE   C4B 8403  35.839  21.691  14.643  0.3647  0.2969  0.3147
  717POSM   NC3 8404   5.544  14.187  12.917  0.0136 -0.1276 -0.1605
  717POSM   PO4 8405   5.539  14.167  13.301 -0.0427 -0.0175 -0.0010
  717POSM   AM1 8406   5.474  14.361  13.577 -0.1759  0.1319  0.1796
  717POSM   AM2 8407   5.550  14.541  13.728  0.0477  0.0554  0.2550
  717POSM   T1A 8408   5.231  14.332  14.035 -0.1928  0.0774 -0.2305
  717POSM   C2A 8409   5.027  14.233  14.411 -0.0261 -0.0376 -0.0636
  717POSM   C3A 8410   4.684  14.383  14.513 -0.1417 -0.2367  0.0036
  717POSM   C1B 8411   5.756  14.554  13.989 -0.4819 -0.2395  0.1673
  717POSM   D2B 8412   5.874  14.635  14.455  0.0570  0.0386  0.3548
  717POSM   C3B 8413   6.326  14.773  14.513 -0.1445 -0.0314  0.0047
  717POSM   C4B 8414   6.740  14.896  14.649  0.0704 -0.2034 -0.0387
  718DOPS   CNO 8415   7.034  21.922  12.621 -0.0916 -0.2589  0.1721
  718DOPS   PO4 8416   7.324  22.003  12.399 -0.0929  0.0833  0.1353
  718DOPS   GL1 8417   7.601  21.782  12.564 -0.1052 -0.2240  0.1054
  718DOPS   GL2 8418   7.853  21.911  12.420 -0.1292 -0.2853 -0.2520
  718DOPS   C1A 8419   7.831  21.519  12.862 -0.0936  0.1450  0.0782
  718DOPS   D2A 8420   8.164  21.361  13.143 -0.2995 -0.0827 -0.1740
  718DOPS   C3A 8421   8.639  21.192  13.088 -0.1623  0.0035  0.0465
  718DOPS   C4A 8422   9.041  21.270  13.242  0.1015 -0.0893  0.1048
  718DOPS   C1B 8423   8.224  21.791  12.634  0.0948 -0.1758 -0.0744
  718DOPS   D2B 8424   8.618  21.560  12.699 -0.1544  0.1516  0.1548
  718DOPS   C3B 8425   8.366  21.158  12.683 -0.2503  0.0576 -0.4367
  718DOPS   C4B 8426   8.181  20.741  12.763  0.2457 -0.0320 -0.2878
  719DOPC   NC3 8427   6.825  13.747  12.531  0.3444  0.1594  0.2099
  719DOPC   PO4 8428   6.681  14.071  12.736  0.1141  0.0624 -0.0684
  719DOPC   GL1 8429   6.508  13.709  12.938  0.0145  0.2183  0.0203
  719DOPC   GL2 8430   6.642  13.408  12.927  0.0393  0.1191  0.0870
  719DOPC   C1A 8431   6.145  13.643  13.259 -0.2215 -0.1116 -0.2306
  719DOPC   D2A 8432   5.909  13.424  13.583 -0.1451 -0.0698  0.3351
  719DOPC   C3A 8433   6.199  13.407  13.925 -0.0204 -0.2435  0.1098
  719DOPC   C4A 8434   6.223  13.855  14.074  0.3207  0.1104 -0.0648
  719DOPC   C1B 8435   6.216  13.315  12.862 -0.3270 -0.1774 -0.1713
  719DOPC   D2B 8436   5.964  12.910  12.923 -0.1709  0.0085  0.1370
  719DOPC   C3B 8437   5.892  12.516  13.192  0.1647 -0.2211  0.1558
  719DOPC   C4B 8438   5.573  12.460  13.500 -0.0599 -0.1856 -0.2861
  720DOPE   NH3 8439  34.425  14.350  13.395  0.2567 -0.0059 -0.2431
  720DOPE   PO4 8440  34.362  14.423  13.713  0.0183 -0.1400 -0.2285
  720DOPE   GL1 8441  34.372  14.452  14.039 -0.4237 -0.5106 -0.2714
  720DOPE   GL2 8442  34.400  14.744  14.104 -0.2190  0.1111 -0.0884
  720DOPE   C1A 8443  34.329  14.307  14.434  0.1811  0.0124 -0.1737
  720DOPE   D2A 8444  34.228  14.431  14.841  0.1885 -0.1523 -0.2318
  720DOPE   C3A 8445  34.295  14.112  15.173 -0.0179 -0.3457  0.2701
  720DOPE   C4A 8446  34.068  14.129  15.586 -0.1520  0.1446  0.3088
  720DOPE   C1B 8447  34.255  14.874  14.570 -0.0026 -0.0333 -0.1574
  720DOPE   D2B 8448  34.070  14.941  14.976 -0.0200 -0.0326 -0.0437
  720DOPE   C3B 8449  33.625  14.823  15.058 -0.1746  0.0970 -0.0963
  720DOPE   C4B 8450  33.351  14.609  15.338 -0.1217 -0.2013 -0.0819
  721DOPS   CNO 8451   6.307  14.539  12.720 -0.0193 -0.2270  0.1233
  721DOPS   PO4 8452   6.000  14.495  12.894  0.2838 -0.2454  0.0848
  721DOPS   GL1 8453   6.185  14.122  12.905 -0.2493  0.1387 -0.3946
  721DOPS   GL2 8454   6.376  14.107  13.131 -0.4645  0.2031 -0.0567
  721DOPS   C1A 8455   5.911  13.713  12.844  0.0345  0.2492  0.1156
  721DOPS   D2A 8456   5.784  13.350  13.109 -0.2307  0.0885  0.0890
  721DOPS   C3A 8457   5.340  13.288  13.278 -0.1562  0.0804 -0.2960
  721DOPS   C4A 8458   4.851  13.229  13.334  0.0227 -0.1579  0.0641
  721DOPS   C1B 8459   6.444  13.830  13.568 -0.0926 -0.1915 -0.1173
  721DOPS   D2B 8460   6.703  13.644  13.930 -0.2678  0.1980  0.3419
  721DOPS   C3B 8461   7.069  13.342  14.056 -0.4291  0.2620  0.2774
  721DOPS   C4B 8462   7.381  13.048  14.267 -0.0087 -0.0719  0.1393
  722DOPS   CNO 8463   9.080  18.819  11.787  0.2252 -0.0132  0.0395
  722DOPS   PO4 8464   9.454  18.941  11.730 -0.2116  0.4422 -0.3498
  722DOPS   GL1 8465   9.248  19.156  12.086  0.0957 -0.1242 -0.1460
  722DOPS   GL2 8466   9.042  19.170  12.343 -0.1699 -0.1732  0.1671
  722DOPS   C1A 8467   9.126  19.610  12.186 -0.1722  0.1586 -0.0888
  722DOPS   D2A 8468   8.963  19.944  12.500  0.3060  0.0441  0.0061
  722DOPS   C3A 8469   9.259  20.288  12.578  0.1040 -0.3898 -0.1242
  722DOPS   C4A 8470   9.278  20.727  12.462 -0.0926 -0.2262 -0.1496
  722DOPS   C1B 8471   8.666  19.489  12.263  0.2657  0.0091  0.1052
  722DOPS   D2B 8472   8.483  19.817  12.527 -0.2804 -0.2790 -0.0497
  722DOPS   C3B 8473   8.232  20.122  12.765 -0.1741  0.1233  0.2784
  722DOPS   C4B 8474   7.841  20.325  13.021  0.0970  0.2134  0.1197
  723DOPE   NH3 8475  34.045  21.457  13.627 -0.5245 -0.1406 -0.2757
  723DOPE   PO4 8476  34.358  21.461  13.687 -0.0229  0.0036 -0.0582
  723DOPE   GL1 8477  34.642  21.252  13.742  0.3493  0.0092  0.2366
  723DOPE   GL2 8478  34.678  21.294  14.022 -0.0333 -0.2766  0.1713
  723DOPE   C1A 8479  35.116  21.234  13.706  0.0901  0.2370 -0.2102
  723DOPE   D2A 8480  35.483  21.390  13.935  0.1876  0.3178 -0.2040
  723DOPE   C3A 8481  35.546  21.767  14.182 -0.1084 -0.0747 -0.1183
  723DOPE   C4A 8482  35.421  22.080  14.460  0.3203  0.0595 -0.1848
  723DOPE   C1B 8483  35.084  21.211  14.173 -0.1313 -0.3141 -0.2576
  723DOPE   D2B 8484  35.449  21.218  14.453 -0.0124  0.1898 -0.1741
  723DOPE   C3B 8485  35.231  21.281  14.883 -0.1414 -0.3541  0.0988
  723DOPE   C4B 8486  34.894  21.617  14.972 -0.1191  0.0207  0.0251
  724DOPE   NH3 8487   2.665  17.292  13.463 -0.1586 -0.1074 -0.1651
  724DOPE   PO4 8488   2.807  17.463  13.262  0.2111 -0.0068  0.0138
  724DOPE   GL1 8489   3.210  17.363  13.388  0.1778 -0.1633  0.0598
  724DOPE   GL2 8490   3.454  17.227  13.201 -0.2562  0.1509  0.0257
  724DOPE   C1A 8491   3.571  17.453  13.651  0.0097  0.1580 -0.1072
  724DOPE   D2A 8492   3.965  17.642  13.814  0.0353 -0.0143 -0.1716
  724DOPE   C3A 8493   4.179  17.713  14.245  0.0534 -0.0349  0.1690
  724DOPE   C4A 8494   4.264  17.549  14.690  0.1502  0.1547 -0.0008
  724DOPE   C1B 8495   3.842  17.128  13.344  0.2236  0.2453  0.0293
  724DOPE   D2B 8496   4.104  17.049  13.761  0.2317 -0.1578 -0.3407
  724DOPE   C3B 8497   4.367  16.667  13.750 -0.0265  0.1394  0.0842
  724DOPE   C4B 8498   4.227  16.277  13.623  0.1270 -0.0260 -0.0174
  725POSM   NC3 8499   9.947  10.729  11.874 -0.3528 -0.3371 -0.0635
  725POSM   PO4 8500   9.623  10.882  12.062  0.0753 -0.1263  0.0349
  725POSM   AM1 8501   9.771  11.164  12.130 -0.2109  0.1544 -0.0114
  725POSM   AM2 8502   9.738  11.357  12.356  0.1091 -0.1296 -0.1815
  725POSM   T1A 8503   9.994  11.618  12.011  0.3780  0.1423 -0.0286
  725POSM   C2A 8504  10.051  12.042  12.169  0.0274 -0.0232  0.1188
  725POSM   C3A 8505   9.816  12.102  12.551 -0.3281 -0.0098 -0.2155
  725POSM   C1B 8506   9.692  11.578  12.574 -0.1395  0.0315 -0.5575
  725POSM   D2B 8507   9.784  11.825  12.966  0.0357 -0.0779 -0.1395
  725POSM   C3B 8508  10.274  11.963  12.906  0.2804 -0.1532  0.2494
  725POSM   C4B 8509  10.472  12.369  12.938 -0.1462 -0.1749  0.2637
  726DOPC   NC3 8510   7.239  15.870  12.847  0.1355 -0.0842 -0.2968
  726DOPC   PO4 8511   7.476  15.630  12.769  0.0361  0.0863 -0.0852
  726DOPC   GL1 8512   7.630  15.596  13.128 -0.1448 -0.1285 -0.1709
  726DOPC   GL2 8513   7.411  15.422  13.233  0.0468 -0.2355 -0.0167
  726DOPC   C1A 8514   7.806  15.663  13.525 -0.1937 -0.0202  0.0840
  726DOPC   D2A 8515   7.731  15.789  13.978  0.1236 -0.0001 -0.4298
  726DOPC   C3A 8516   8.003  15.691  14.352  0.2820 -0.1417 -0.0192
  726DOPC   C4A 8517   8.286  15.879  14.658  0.3282  0.2339 -0.0218
  726DOPC   C1B 8518   7.433  15.362  13.653  0.1597 -0.2800  0.3771
  726DOPC   D2B 8519   7.420  15.363  14.143  0.0905  0.2006  0.1993
  726DOPC   C3B 8520   7.028  15.447  14.458 -0.0908  0.0343  0.0346
  726DOPC   C4B 8521   6.702  15.608  14.790  0.1620  0.0783  0.4887
  727DOPC   NC3 8522   2.964  16.994  13.216  0.2645 -0.1273  0.5449
  727DOPC   PO4 8523   2.660  16.748  13.285 -0.4731 -0.0649  0.1510
  727DOPC   GL1 8524   2.865  16.513  13.543 -0.4477 -0.0713 -0.3071
  727DOPC   GL2 8525   3.129  16.485  13.483 -0.1074  0.2459 -0.0040
  727DOPC   C1A 8526   2.801  16.455  13.998  0.0353  0.1372 -0.2820
  727DOPC   D2A 8527   3.042  16.483  14.400 -0.2003  0.1577 -0.0692
  727DOPC   C3A 8528   3.192  16.312  14.864  0.2526  0.1985  0.0062
  727DOPC   C4A 8529   3.276  16.255  15.275  0.4049 -0.0807 -0.0094
  727DOPC   C1B 8530   3.497  16.761  13.432 -0.1146  0.3566  0.1408
  727DOPC   D2B 8531   3.824  16.630  13.681 -0.3168 -0.1181 -0.0583
  727DOPC   C3B 8532   3.710  16.800  14.091  0.3214 -0.2539  0.0807
  727DOPC   C4B 8533   3.743  16.941  14.557 -0.5849  0.1258  0.0051
  728DOPE   NH3 8534   7.896  22.609  12.318 -0.0167 -0.3512  0.0860
  728DOPE   PO4 8535   7.846  22.704  12.610  0.2054 -0.0105 -0.2167
  728DOPE   GL1 8536   8.087  22.647  12.914 -0.0769 -0.1912 -0.1308
  728DOPE   GL2 8537   8.321  22.577  12.754  0.0855  0.0482  0.0127
  728DOPE   C1A 8538   8.250  22.932  13.221  0.2651 -0.1586  0.2920
  728DOPE   D2A 8539   8.515  23.367  13.258 -0.0307 -0.2283 -0.1361
  728DOPE   C3A 8540   8.379  23.759  13.286 -0.1636 -0.1945 -0.3698
  728DOPE   C4A 8541   8.321  24.227  13.146  0.2700 -0.0622  0.2880
  728DOPE   C1B 8542   8.442  22.355  13.142 -0.0415  0.2731  0.2974
  728DOPE   D2B 8543   8.734  22.114  13.376  0.1792 -0.1132  0.2218
  728DOPE   C3B 8544   9.129  22.413  13.236 -0.2122  0.0410 -0.4182
  728DOPE   C4B 8545   9.586  22.287  13.150 -0.1527 -0.3014  0.0679
  729POSM   NC3 8546  10.637  23.286  11.838 -0.2464  0.3334 -0.1113
  729POSM   PO4 8547  10.741  23.188  11.460  0.1657 -0.1001  0.3550
  729POSM   AM1 8548  10.611  22.877  11.512  0.0394 -0.2182 -0.0076
  729POSM   AM2 8549  10.523  22.782  11.745 -0.1355 -0.4082 -0.2406
  729POSM   T1A 8550  10.710  22.406  11.481  0.0217 -0.0049  0.0537
  729POSM   C2A 8551  10.847  21.968  11.589 -0.1796  0.2630  0.2539
  729POSM   C3A 8552  10.905  21.798  11.966 -0.1332  0.2820  0.0825
  729POSM   C1B 8553  10.480  22.872  12.072  0.0091 -0.2405  0.1493
  729POSM   D2B 8554  10.603  22.815  12.461 -0.0698  0.1305 -0.0966
  729POSM   C3B 8555  10.626  23.156  12.746 -0.2912 -0.3177 -0.4169
  729POSM   C4B 8556  10.326  23.382  13.071 -0.0629  0.0198  0.3066
  730DOPE   NH3 8557   6.195  17.075  12.951 -0.1678  0.1560 -0.0410
  730DOPE   PO4 8558   6.038  17.208  13.190  0.1467 -0.0930 -0.4260
  730DOPE   GL1 8559   5.679  17.530  13.167  0.0333 -0.1400 -0.2182
  730DOPE   GL2 8560   5.712  17.509  13.475 -0.4103 -0.0007 -0.1509
  730DOPE   C1A 8561   5.262  17.389  13.171 -0.0622  0.5633 -0.2632
  730DOPE   D2A 8562   4.878  17.282  13.340  0.0555  0.1375  0.1294
  730DOPE   C3A 8563   4.845  17.551  13.709 -0.2112  0.2213 -0.3291
  730DOPE   C4A 8564   4.479  17.789  13.845 -0.1048  0.2940  0.2624
  730DOPE   C1B 8565   5.921  17.831  13.726  0.0945  0.0054 -0.2344
  730DOPE   D2B 8566   6.166  18.094  14.004  0.1036 -0.0857 -0.0247
  730DOPE   C3B 8567   6.033  18.549  14.083  0.2127 -0.1843 -0.2234
  730DOPE   C4B 8568   5.972  19.023  14.166 -0.3489 -0.0804 -0.0256
  731DOPC   NC3 8569   7.106  17.030  12.692 -0.0303 -0.3317 -0.0862
  731DOPC   PO4 8570   7.479  17.227  12.751  0.0990  0.2123 -0.0201
  731DOPC   GL1 8571   7.415  17.083  13.128  0.0569  0.0029 -0.0234
  731DOPC   GL2 8572   7.137  16.895  13.158 -0.1952 -0.1408 -0.2672
  731DOPC   C1A 8573   7.601  17.197  13.519 -0.3837 -0.0382  0.1162
  731DOPC   D2A 8574   7.984  17.095  13.800 -0.2439 -0.1931  0.1790
  731DOPC   C3A 8575   7.757  17.374  14.212 -0.0819 -0.0627 -0.2226
  731DOPC   C4A 8576   8.037  17.566  14.617 -0.1970  0.1532  0.1525
  731DOPC   C1B 8577   7.053  16.893  13.610 -0.0365  0.1165 -0.1384
  731DOPC   D2B 8578   6.843  16.883  13.991 -0.2742  0.2375 -0.1054
  731DOPC   C3B 8579   7.102  16.988  14.332  0.2869  0.2743 -0.0585
  731DOPC   C4B 8580   7.507  16.783  14.386  0.1777 -0.1014 -0.2551
  732DOPS   CNO 8581   2.732  12.791  13.052 -0.1054 -0.2249  0.1130
  732DOPS   PO4 8582   2.478  13.012  13.235  0.1721  0.1036  0.3026
  732DOPS   GL1 8583   2.145  13.006  13.435 -0.5385  0.3378  0.0849
  732DOPS   GL2 8584   2.009  13.149  13.640 -0.3496 -0.5061  0.2390
  732DOPS   C1A 8585   1.693  12.975  13.233 -0.4404  0.0045  0.4654
  732DOPS   D2A 8586   1.304  13.150  12.940  0.2104 -0.1229 -0.0120
  732DOPS   C3A 8587   0.995  13.378  13.242 -0.2039  0.1017 -0.0765
  732DOPS   C4A 8588   1.014  13.681  13.608  0.0046  0.3243 -0.1258
  732DOPS   C1B 8589   1.697  12.934  13.909  0.0027 -0.0175  0.2268
  732DOPS   D2B 8590   1.639  12.600  14.203 -0.1173  0.2480 -0.0580
  732DOPS   C3B 8591   1.353  12.543  14.594 -0.1744  0.0646 -0.2635
  732DOPS   C4B 8592   1.417  12.777  15.006  0.0288  0.2408  0.0284
  733DOPE   NH3 8593   2.594  19.255  13.272 -0.0340  0.1325  0.2826
  733DOPE   PO4 8594   2.811  19.428  13.140 -0.2141  0.0258 -0.1373
  733DOPE   GL1 8595   3.024  19.570  13.339  0.1158 -0.1566 -0.0920
  733DOPE   GL2 8596   2.957  19.842  13.358 -0.5776 -0.1174  0.0493
  733DOPE   C1A 8597   3.258  19.687  13.712 -0.2752 -0.2104  0.4732
  733DOPE   D2A 8598   3.707  19.646  13.839 -0.0314 -0.0721  0.1746
  733DOPE   C3A 8599   3.700  19.871  14.243 -0.3719 -0.0906  0.0737
  733DOPE   C4A 8600   3.375  20.018  14.452 -0.0909 -0.2744 -0.1234
  733DOPE   C1B 8601   3.241  20.159  13.526 -0.1530 -0.0912  0.1450
  733DOPE   D2B 8602   3.606  20.419  13.533 -0.0464 -0.0044 -0.1462
  733DOPE   C3B 8603   4.081  20.361  13.505 -0.0500 -0.1473  0.0190
  733DOPE   C4B 8604   4.459  20.190  13.331 -0.1578 -0.1635 -0.0074
  734DOPE   NH3 8605   1.762  16.198  13.578  0.1584 -0.0716 -0.0440
  734DOPE   PO4 8606   1.962  16.018  13.406  0.4185 -0.0898 -0.0171
  734DOPE   GL1 8607   2.285  15.969  13.608 -0.5216 -0.2276  0.0240
  734DOPE   GL2 8608   2.161  15.996  13.903  0.0118  0.0686 -0.0797
  734DOPE   C1A 8609   2.633  15.909  13.911  0.0449 -0.2428  0.0389
  734DOPE   D2A 8610   2.513  15.774  14.330  0.1246 -0.2280  0.1771
  734DOPE   C3A 8611   2.728  15.404  14.502 -0.0265  0.0646  0.1756
  734DOPE   C4A 8612   2.708  15.069  14.797  0.0010 -0.3132 -0.2616
  734DOPE   C1B 8613   2.257  15.504  13.972  0.0687  0.0938 -0.1725
  734DOPE   D2B 8614   2.201  15.347  14.403 -0.0331  0.0903  0.1084
  734DOPE   C3B 8615   2.410  14.981  14.258 -0.1066  0.2173  0.1180
  734DOPE   C4B 8616   2.680  14.632  14.438 -0.0654  0.1340  0.0575
  735DOPS   CNO 8617  11.194  23.489  11.464  0.1774  0.3082  0.0414
  735DOPS   PO4 8618  11.130  23.353  11.825  0.1042 -0.2520 -0.1072
  735DOPS   GL1 8619  10.931  23.236  12.191 -0.0903  0.0779 -0.0026
  735DOPS   GL2 8620  11.068  22.995  12.312  0.0865  0.2157 -0.3028
  735DOPS   C1A 8621  11.050  23.422  12.589  0.2620 -0.0641  0.2710
  735DOPS   D2A 8622  11.208  23.252  13.014  0.0004  0.0825  0.0753
  735DOPS   C3A 8623  11.627  23.276  13.150 -0.2716  0.2389 -0.1994
  735DOPS   C4A 8624  11.825  23.687  13.339  0.3946 -0.0687  0.0089
  735DOPS   C1B 8625  11.112  22.789  12.742 -0.2429 -0.2620 -0.0535
  735DOPS   D2B 8626  11.000  22.778  13.190 -0.0284  0.0421 -0.0713
  735DOPS   C3B 8627  11.245  23.012  13.444 -0.0091 -0.2426  0.3190
  735DOPS   C4B 8628  11.079  23.282  13.800 -0.1862 -0.2436  0.4991
  736DOPE   NH3 8629  10.835  14.518  11.549  0.2305 -0.4794 -0.2092
  736DOPE   PO4 8630  10.648  14.566  11.817  0.1299 -0.0265  0.1003
  736DOPE   GL1 8631  10.529  14.560  12.219 -0.0687  0.1618 -0.1386
  736DOPE   GL2 8632  10.788  14.399  12.261 -0.0135  0.0296 -0.0239
  736DOPE   C1A 8633  10.264  14.610  12.603  0.2367 -0.2983 -0.1323
  736DOPE   D2A 8634  10.074  14.783  12.927  0.0773 -0.1407 -0.0074
  736DOPE   C3A 8635   9.737  14.580  13.156 -0.3292 -0.0307 -0.1042
  736DOPE   C4A 8636   9.239  14.553  13.133 -0.3323  0.0746  0.2474
  736DOPE   C1B 8637  10.848  13.963  12.339  0.3761 -0.0254 -0.0519
  736DOPE   D2B 8638  10.587  13.551  12.396  0.1688 -0.0965 -0.0746
  736DOPE   C3B 8639  10.863  13.206  12.570 -0.0037 -0.2270 -0.0937
  736DOPE   C4B 8640  11.159  12.854  12.673  0.1065  0.3698  0.0667
  737DOPS   CNO 8641   3.650  12.791  13.182  0.0474 -0.0144 -0.0891
  737DOPS   PO4 8642   3.738  12.479  13.383  0.2169 -0.0022 -0.2272
  737DOPS   GL1 8643   3.871  12.612  13.764  0.3054  0.2538  0.1962
  737DOPS   GL2 8644   4.166  12.691  13.602 -0.0265  0.0524  0.0312
  737DOPS   C1A 8645   4.036  12.865  14.165 -0.0094 -0.1809 -0.2122
  737DOPS   D2A 8646   4.392  13.049  14.411  0.0543  0.0918  0.0675
  737DOPS   C3A 8647   4.510  12.616  14.620  0.2746  0.4291  0.0260
  737DOPS   C4A 8648   4.384  12.309  14.907  0.3182  0.1997  0.0988
  737DOPS   C1B 8649   4.538  12.416  13.473 -0.0457  0.2618 -0.0857
  737DOPS   D2B 8650   4.874  12.253  13.231  0.2005 -0.4096 -0.3934
  737DOPS   C3B 8651   5.180  12.072  13.497 -0.0433  0.0213 -0.0266
  737DOPS   C4B 8652   5.195  11.689  13.795  0.0421 -0.1055  0.3187
  738DOPS   CNO 8653   9.108  11.014  11.707  0.2153 -0.0979 -0.0547
  738DOPS   PO4 8654   9.455  11.191  11.713  0.2602 -0.1454  0.3034
  738DOPS   GL1 8655   9.455  11.608  11.819  0.1080  0.2871  0.1954
  738DOPS   GL2 8656   9.137  11.599  11.854  0.1256  0.1186  0.2381
  738DOPS   C1A 8657   9.525  11.874  12.163 -0.1955  0.1213 -0.0991
  738DOPS   D2A 8658   9.503  12.310  12.190 -0.0528  0.0429  0.2177
  738DOPS   C3A 8659   9.860  12.576  12.309  0.0209 -0.1171  0.3100
  738DOPS   C4A 8660  10.288  12.373  12.456  0.1740  0.3541  0.0587
  738DOPS   C1B 8661   8.960  12.028  11.953 -0.0810 -0.0856  0.0730
  738DOPS   D2B 8662   9.049  12.498  11.931  0.1855  0.2682  0.1728
  738DOPS   C3B 8663   9.476  12.709  11.891  0.0396  0.1936 -0.0465
  738DOPS   C4B 8664   9.562  13.023  11.522  0.0648 -0.1164 -0.2244
  739DOPC   NC3 8665   3.236  12.408  13.214  0.0894 -0.0885  0.5821
  739DOPC   PO4 8666   3.097  12.508  13.525 -0.0181  0.1071 -0.2053
  739DOPC   GL1 8667   3.331  12.699  13.926 -0.0358 -0.3926  0.3902
  739DOPC   GL2 8668   3.508  12.825  13.743 -0.2903 -0.0174  0.1733
  739DOPC   C1A 8669   3.507  12.505  14.304  0.0416 -0.2080 -0.1571
  739DOPC   D2A 8670   3.300  12.352  14.708  0.1147  0.2402 -0.0927
  739DOPC   C3A 8671   3.025  12.556  14.952  0.1396 -0.3384 -0.2553
  739DOPC   C4A 8672   2.783  12.976  14.909  0.3062  0.0779 -0.0334
  739DOPC   C1B 8673   3.551  13.051  14.148  0.0627 -0.1350 -0.3479
  739DOPC   D2B 8674   3.591  13.340  14.527  0.0553 -0.2476 -0.1440
  739DOPC   C3B 8675   3.669  13.277  15.006  0.1053  0.1434  0.0240
  739DOPC   C4B 8676   3.632  13.566  15.399 -0.3559 -0.1491  0.0181
  740DOPC   NC3 8677  10.286  18.644  12.473 -0.0560 -0.2845  0.2679
  740DOPC   PO4 8678   9.963  18.404  12.360 -0.3680  0.0258 -0.3395
  740DOPC   GL1 8679   9.912  18.516  12.734  0.0513 -0.1054 -0.0267
  740DOPC   GL2 8680   9.869  18.814  12.735 -0.0719 -0.2461 -0.1272
  740DOPC   C1A 8681   9.731  18.545  13.153  0.0972  0.1591 -0.3369
  740DOPC   D2A 8682   9.554  18.495  13.581  0.1432 -0.2337 -0.0170
  740DOPC   C3A 8683   9.703  18.329  14.013 -0.0287  0.3104  0.1677
  740DOPC   C4A 8684   9.721  17.864  14.080 -0.1087 -0.1211 -0.2658
  740DOPC   C1B 8685   9.709  19.035  13.088  0.1395 -0.0711 -0.0268
  740DOPC   D2B 8686   9.758  19.030  13.564  0.0934  0.3084  0.0504
  740DOPC   C3B 8687  10.103  19.094  13.825  0.1487 -0.0445 -0.0883
  740DOPC   C4B 8688  10.394  19.412  13.840  0.2876  0.2436  0.0661
  741DOPE   NH3 8689   6.532  14.634  13.196 -0.1741 -0.0792  0.1701
  741DOPE   PO4 8690   6.257  14.825  13.131 -0.1880  0.1762 -0.2860
  741DOPE   GL1 8691   6.229  14.961  13.499  0.4477  0.0728  0.3949
  741DOPE   GL2 8692   5.910  15.082  13.511 -0.0061  0.3573 -0.1443
  741DOPE   C1A 8693   6.648  14.854  13.688  0.1091  0.0578  0.2048
  741DOPE   D2A 8694   6.916  14.500  13.528  0.2673  0.0272 -0.0903
  741DOPE   C3A 8695   6.999  14.136  13.839  0.3439 -0.0503 -0.4196
  741DOPE   C4A 8696   7.080  14.104  14.310  0.6794  0.0338 -0.2129
  741DOPE   C1B 8697   5.700  15.098  13.934 -0.0101  0.1296 -0.3993
  741DOPE   D2B 8698   5.939  15.152  14.330 -0.0387 -0.1220  0.5531
  741DOPE   C3B 8699   5.908  15.012  14.761  0.0133 -0.0533 -0.1688
  741DOPE   C4B 8700   6.282  14.890  15.060 -0.0690  0.1161  0.1681
  742DOPC   NC3 8701   9.031  23.407  12.273 -0.1277  0.0352  0.0173
  742DOPC   PO4 8702   9.048  23.032  12.178  0.0481 -0.1553  0.2951
  742DOPC   GL1 8703   9.301  23.065  12.473  0.1681  0.3254 -0.1477
  742DOPC   GL2 8704   9.499  22.949  12.509  0.2827 -0.0488  0.3557
  742DOPC   C1A 8705   9.257  22.894  12.887 -0.2579 -0.0407  0.1019
  742DOPC   D2A 8706   9.273  22.936  13.348 -0.3902 -0.4748  0.0075
  742DOPC   C3A 8707   9.111  22.949  13.811  0.1171  0.1398 -0.0309
  742DOPC   C4A 8708   8.855  22.847  14.196  0.3072 -0.1179  0.0577
  742DOPC   C1B 8709   9.691  22.548  12.379 -0.0523 -0.1202 -0.4853
  742DOPC   D2B 8710   9.796  22.126  12.218 -0.2392 -0.0438 -0.0752
  742DOPC   C3B 8711  10.013  21.779  12.481  0.0910 -0.0544  0.0971
  742DOPC   C4B 8712  10.089  21.407  12.672 -0.1183 -0.2548  0.1034
  743POSM   NC3 8713   4.648  13.864  13.090 -0.0441 -0.1476 -0.1014
  743POSM   PO4 8714   5.037  13.973  13.169  0.0382 -0.0906  0.1289
  743POSM   AM1 8715   5.044  14.021  13.501 -0.0233  0.1354 -0.0585
  743POSM   AM2 8716   5.204  13.971  13.708 -0.4640  0.4585 -0.1618
  743POSM   T1A 8717   4.671  14.190  13.847 -0.2948 -0.0739 -0.0045
  743POSM   C2A 8718   4.370  14.508  14.034 -0.1751 -0.2842 -0.1473
  743POSM   C3A 8719   4.040  14.807  13.979  0.3059 -0.2387  0.1530
  743POSM   C1B 8720   5.332  13.637  13.744 -0.0379 -0.0994  0.0265
  743POSM   D2B 8721   5.448  13.180  13.793  0.2083 -0.2235  0.0825
  743POSM   C3B 8722   5.883  13.069  13.928 -0.0914 -0.0661  0.2065
  743POSM   C4B 8723   6.139  12.867  14.275  0.1429  0.0349  0.0004
  744DOPC   NC3 8724   2.250  18.522  13.603  0.0601 -0.1152  0.1224
  744DOPC   PO4 8725   2.360  18.838  13.405  0.2483  0.0327  0.3006
  744DOPC   GL1 8726   2.367  18.976  13.818  0.0738 -0.1715 -0.1187
  744DOPC   GL2 8727   2.419  19.282  13.745  0.1731  0.3279 -0.2602
  744DOPC   C1A 8728   2.695  19.076  14.138  0.0716 -0.1425 -0.0751
  744DOPC   D2A 8729   3.019  19.192  14.446 -0.0724  0.1404 -0.1158
  744DOPC   C3A 8730   3.300  18.835  14.513 -0.2885  0.0132  0.2450
  744DOPC   C4A 8731   3.530  18.558  14.727  0.0700  0.0419 -0.2874
  744DOPC   C1B 8732   2.524  19.552  14.030  0.0612  0.0238  0.0708
  744DOPC   D2B 8733   2.617  19.589  14.455  0.1028 -0.1492  0.0708
  744DOPC   C3B 8734   2.446  19.221  14.710 -0.1206 -0.1060  0.2088
  744DOPC   C4B 8735   2.406  18.806  14.932  0.1224  0.0832 -0.0762
  745DOPC   NC3 8736   5.422  20.499  13.146  0.1073  0.0766  0.1824
  745DOPC   PO4 8737   5.772  20.619  13.326  0.0078 -0.0577  0.3331
  745DOPC   GL1 8738   5.952  20.737  13.763 -0.0263  0.3005 -0.3222
  745DOPC   GL2 8739   5.964  20.411  13.805  0.3763  0.1405  0.1395
  745DOPC   C1A 8740   5.885  20.631  14.237  0.1077  0.1597 -0.2182
  745DOPC   D2A 8741   6.148  20.566  14.596 -0.2703  0.0763  0.2023
  745DOPC   C3A 8742   6.316  20.101  14.652  0.0854 -0.3232  0.0423
  745DOPC   C4A 8743   6.342  19.646  14.708  0.1692  0.0423  0.0394
  745DOPC   C1B 8744   6.212  20.210  14.091 -0.1555  0.0629  0.0329
  745DOPC   D2B 8745   6.562  19.943  14.177  0.0681  0.2404  0.0687
  745DOPC   C3B 8746   6.720  19.775  13.733 -0.0236  0.0834 -0.1565
  745DOPC   C4B 8747   7.036  19.817  13.363 -0.1518  0.0309 -0.0221
  746DOPE   NH3 8748   2.834  19.967  12.931  0.3525  0.0540 -0.0443
  746DOPE   PO4 8749   2.642  20.231  12.967  0.3552  0.3421 -0.1911
  746DOPE   GL1 8750   2.764  20.438  13.355  0.0953  0.0999  0.0116
  746DOPE   GL2 8751   2.571  20.709  13.359 -0.1102 -0.3304 -0.0328
  746DOPE   C1A 8752   3.082  20.732  13.526 -0.1119 -0.0296  0.1064
  746DOPE   D2A 8753   3.414  20.942  13.657  0.1505  0.0306 -0.1681
  746DOPE   C3A 8754   3.551  21.068  14.100  0.3097 -0.1698 -0.2295
  746DOPE   C4A 8755   3.725  20.937  14.493 -0.0636  0.0251 -0.0358
  746DOPE   C1B 8756   2.316  21.028  13.670 -0.2607  0.0865 -0.4004
  746DOPE   D2B 8757   2.320  21.219  14.095 -0.1377  0.1594 -0.0620
  746DOPE   C3B 8758   1.890  21.275  14.199  0.0281  0.0066  0.2409
  746DOPE   C4B 8759   1.597  20.952  14.351  0.0386 -0.1868  0.2640
  747DOPE   NH3 8760   2.508  23.063  13.492 -0.1978  0.4458  0.2019
  747DOPE   PO4 8761   2.574  22.796  13.267 -0.2398  0.1689 -0.2364
  747DOPE   GL1 8762   2.695  22.512  13.371  0.2841 -0.2245  0.0837
  747DOPE   GL2 8763   2.424  22.337  13.392 -0.2080 -0.1111 -0.0706
  747DOPE   C1A 8764   2.815  22.181  13.688  0.3907  0.2902  0.1880
  747DOPE   D2A 8765   2.852  21.953  14.054  0.1858 -0.0758 -0.0629
  747DOPE   C3A 8766   2.688  21.563  14.226 -0.0587 -0.2724 -0.4806
  747DOPE   C4A 8767   2.841  21.206  14.427  0.0379  0.0875 -0.1002
  747DOPE   C1B 8768   2.360  22.163  13.854  0.1037  0.2106 -0.1417
  747DOPE   D2B 8769   2.013  22.298  14.056 -0.1662 -0.3448  0.0055
  747DOPE   C3B 8770   2.202  22.523  14.463 -0.0086 -0.1295 -0.2986
  747DOPE   C4B 8771   2.375  22.460  14.875 -0.1526  0.1420 -0.0190
  748DOPC   NC3 8772  33.259  18.024  13.108 -0.1007 -0.1137  0.2485
  748DOPC   PO4 8773  33.225  18.171  13.476 -0.2088  0.0490  0.1639
  748DOPC   GL1 8774  33.563  18.363  13.627  0.2088 -0.0116  0.2323
  748DOPC   GL2 8775  33.596  18.233  13.836 -0.2694 -0.0181  0.1596
  748DOPC   C1A 8776  33.862  18.338  13.309 -0.3015 -0.2847  0.2716
  748DOPC   D2A 8777  34.269  18.062  13.263  0.0312 -0.1952 -0.0408
  748DOPC   C3A 8778  34.231  17.672  13.479  0.3642  0.0652  0.0479
  748DOPC   C4A 8779  34.357  17.419  13.863  0.1910  0.0285  0.1540
  748DOPC   C1B 8780  33.577  18.104  14.276 -0.2551 -0.2951 -0.1239
  748DOPC   D2B 8781  33.773  17.971  14.701  0.2118 -0.1353 -0.0054
  748DOPC   C3B 8782  34.227  18.076  14.772 -0.2165 -0.0734  0.3429
  748DOPC   C4B 8783  34.545  18.346  14.747 -0.0253 -0.1131 -0.1198
  749DOPE   NH3 8784   9.547  18.549  12.053 -0.1622  0.2432  0.3047
  749DOPE   PO4 8785   9.291  18.334  12.115  0.3193  0.0781 -0.0900
  749DOPE   GL1 8786   9.287  17.939  12.143 -0.0371  0.3384  0.0797
  749DOPE   GL2 8787   9.115  17.731  12.310 -0.2682  0.1598 -0.2774
  749DOPE   C1A 8788   9.457  17.483  12.137 -0.2364 -0.1070  0.0950
  749DOPE   D2A 8789   9.678  17.112  12.380 -0.1689 -0.1787  0.0153
  749DOPE   C3A 8790   9.984  17.044  12.722 -0.1601 -0.4240 -0.1453
  749DOPE   C4A 8791  10.123  17.166  13.171 -0.0131  0.0117 -0.1078
  749DOPE   C1B 8792   9.379  17.508  12.638 -0.2978 -0.0958 -0.1238
  749DOPE   D2B 8793   9.631  17.447  12.948 -0.0253  0.1244  0.1237
  749DOPE   C3B 8794  10.012  17.696  12.800 -0.0115  0.3933  0.2158
  749DOPE   C4B 8795  10.340  17.660  13.075  0.1053  0.2540  0.0049
  750DOPS   CNO 8796   6.319  21.975  12.982 -0.0198  0.2116 -0.1562
  750DOPS   PO4 8797   6.222  21.721  13.259 -0.0652 -0.2878 -0.1870
  750DOPS   GL1 8798   6.376  21.451  13.603  0.1911  0.2241 -0.1032
  750DOPS   GL2 8799   6.331  21.710  13.761  0.0628  0.1934  0.1530
  750DOPS   C1A 8800   6.435  21.308  14.054  0.0086  0.0347 -0.1318
  750DOPS   D2A 8801   6.381  21.032  14.453 -0.3484 -0.1822 -0.1254
  750DOPS   C3A 8802   6.620  20.684  14.601  0.0914  0.5739 -0.2176
  750DOPS   C4A 8803   6.989  20.371  14.685  0.0120 -0.0267 -0.5352
  750DOPS   C1B 8804   6.030  21.669  14.104 -0.0191  0.1281 -0.2670
  750DOPS   D2B 8805   6.000  21.427  14.497  0.1078 -0.1408 -0.3739
  750DOPS   C3B 8806   5.872  21.533  14.901 -0.1036 -0.0051 -0.2782
  750DOPS   C4B 8807   5.708  21.313  15.242  0.0423 -0.1887  0.0422
  751DOPC   NC3 8808   4.479  23.012  13.446  0.0451 -0.0758  0.2702
  751DOPC   PO4 8809   4.203  23.134  13.207  0.0580  0.5155 -0.1731
  751DOPC   GL1 8810   4.347  22.894  12.981  0.2177 -0.2134  0.0532
  751DOPC   GL2 8811   4.436  22.639  13.121 -0.1430  0.0335 -0.1445
  751DOPC   C1A 8812   4.060  22.476  12.890 -0.0080 -0.2903  0.2479
  751DOPC   D2A 8813   4.012  22.118  12.625 -0.0622  0.1707  0.1512
  751DOPC   C3A 8814   3.997  21.681  12.803  0.1367  0.2631  0.1768
  751DOPC   C4A 8815   3.991  21.370  13.143 -0.4001  0.0960 -0.2962
  751DOPC   C1B 8816   4.149  22.395  13.449 -0.1243  0.1491  0.0426
  751DOPC   D2B 8817   3.709  22.364  13.509 -0.1033  0.4420 -0.4123
  751DOPC   C3B 8818   3.400  22.391  13.862  0.0961 -0.2520 -0.1512
  751DOPC   C4B 8819   3.036  22.461  14.086 -0.2044  0.0801 -0.3007
  752POSM   NC3 8820   9.002  18.622  12.412  0.0410 -0.0952  0.2925
  752POSM   PO4 8821   8.657  18.485  12.453 -0.1158  0.0790 -0.0521
  752POSM   AM1 8822   8.714  18.486  12.783 -0.4935 -0.1686 -0.0028
  752POSM   AM2 8823   8.756  18.321  13.028 -0.1402  0.3700  0.1294
  752POSM   T1A 8824   8.396  18.586  13.171  0.1933 -0.3051 -0.0306
  752POSM   C2A 8825   8.055  18.871  13.267 -0.1139 -0.1006 -0.2512
  752POSM   C3A 8826   7.608  18.935  13.159 -0.1493 -0.0244 -0.0251
  752POSM   C1B 8827   8.838  18.119  13.307 -0.0531 -0.2035 -0.2564
  752POSM   D2B 8828   8.943  18.137  13.808  0.1012 -0.1207 -0.2604
  752POSM   C3B 8829   9.231  18.483  13.987  0.1926  0.0683 -0.1815
  752POSM   C4B 8830   9.591  18.786  14.051  0.0763 -0.0099 -0.1462
  753DOPC   NC3 8831   1.132  18.046  13.803  0.0141 -0.0426 -0.1185
  753DOPC   PO4 8832   1.340  17.972  13.481 -0.3397  0.2634  0.0887
  753DOPC   GL1 8833   0.984  17.869  13.367 -0.0476  0.0881 -0.0760
  753DOPC   GL2 8834   0.930  17.899  13.041  0.0246  0.0303 -0.0248
  753DOPC   C1A 8835   0.711  17.726  13.782  0.1431  0.1151  0.1790
  753DOPC   D2A 8836   0.628  17.402  14.103 -0.3430 -0.0425 -0.0438
  753DOPC   C3A 8837   0.174  17.388  14.296 -0.0041  0.2475 -0.0600
  753DOPC   C4A 8838  -0.106  17.288  14.668  0.1594  0.1027  0.0713
  753DOPC   C1B 8839   0.470  17.932  13.180  0.1554 -0.1383 -0.2536
  753DOPC   D2B 8840   0.081  17.849  13.291  0.2026  0.1551  0.0812
  753DOPC   C3B 8841  -0.087  17.396  13.321  0.0221  0.4408 -0.0816
  753DOPC   C4B 8842  -0.254  16.934  13.254 -0.0748  0.1281  0.4399
  754POSM   NC3 8843   5.698  19.755  13.408  0.1310  0.3587  0.1790
  754POSM   PO4 8844   5.632  20.130  13.431 -0.1755 -0.0817 -0.1342
  754POSM   AM1 8845   5.547  20.061  13.734  0.1286  0.0628 -0.3296
  754POSM   AM2 8846   5.631  19.904  13.954 -0.1346  0.3034  0.0124
  754POSM   T1A 8847   5.191  20.045  14.180 -0.1054 -0.1618  0.1343
  754POSM   C2A 8848   4.960  20.164  14.597  0.0848 -0.1533 -0.1063
  754POSM   C3A 8849   4.807  20.549  14.782 -0.0374  0.0841 -0.1199
  754POSM   C1B 8850   5.545  19.622  14.074 -0.2224 -0.1322  0.0373
  754POSM   D2B 8851   5.357  19.235  14.241 -0.1696  0.0742  0.3816
  754POSM   C3B 8852   5.051  19.125  14.566 -0.1413 -0.0803  0.0659
  754POSM   C4B 8853   4.750  19.033  14.915 -0.1745 -0.3162 -0.0023
  755DOPE   NH3 8854   2.366  17.701  13.419  0.0004  0.1320  0.4491
  755DOPE   PO4 8855   2.209  17.446  13.353  0.0945 -0.1801  0.0213
  755DOPE   GL1 8856   2.125  17.460  13.792  0.1361 -0.3687  0.0655
  755DOPE   GL2 8857   2.369  17.401  13.881 -0.2034 -0.3460 -0.0352
  755DOPE   C1A 8858   2.073  17.715  14.162  0.1206  0.2078  0.0460
  755DOPE   D2A 8859   1.979  18.050  14.476 -0.0400 -0.2520 -0.2263
  755DOPE   C3A 8860   1.948  18.003  14.959 -0.0194  0.2057 -0.3876
  755DOPE   C4A 8861   2.165  17.782  15.263  0.1458 -0.2410  0.1490
  755DOPE   C1B 8862   2.535  17.491  14.332  0.3121 -0.3951  0.0712
  755DOPE   D2B 8863   2.270  17.618  14.733 -0.3862  0.2047  0.1184
  755DOPE   C3B 8864   2.576  17.884  14.946  0.1145 -0.4659  0.2222
  755DOPE   C4B 8865   2.773  18.306  15.139 -0.0766  0.0957 -0.0042
  756DOPE   NH3 8866   8.802  18.017  12.590  0.1131  0.0205 -0.1219
  756DOPE   PO4 8867   9.109  18.151  12.590  0.1698 -0.2544  0.1629
  756DOPE   GL1 8868   9.241  18.057  12.903 -0.2387 -0.3632  0.0065
  756DOPE   GL2 8869   9.251  18.263  13.097 -0.1711  0.1686 -0.1040
  756DOPE   C1A 8870   9.046  17.676  13.097  0.1269 -0.0988  0.3183
  756DOPE   D2A 8871   8.943  17.716  13.527  0.0377  0.2634 -0.2735
  756DOPE   C3A 8872   8.929  17.294  13.772 -0.3153 -0.1762  0.0658
  756DOPE   C4A 8873   8.678  17.067  14.101 -0.1807 -0.0291 -0.0445
  756DOPE   C1B 8874   9.308  18.001  13.441  0.1945  0.1780 -0.0104
  756DOPE   D2B 8875   9.339  17.769  13.818 -0.1274 -0.3091  0.1942
  756DOPE   C3B 8876   8.963  17.715  14.079  0.1284 -0.0472 -0.1604
  756DOPE   C4B 8877   8.873  17.870  14.517  0.1517  0.0255 -0.0102
  757DOPS   CNO 8878   6.318  10.704  12.968 -0.2250  0.1658  0.2297
  757DOPS   PO4 8879   6.248  10.865  13.289  0.0016 -0.0337 -0.0798
  757DOPS   GL1 8880   6.390  11.176  13.587 -0.1887  0.1145  0.4331
  757DOPS   GL2 8881   6.560  11.391  13.479 -0.0621 -0.0581  0.2253
  757DOPS   C1A 8882   6.760  11.241  13.915  0.0992  0.0004  0.3841
  757DOPS   D2A 8883   7.208  11.311  13.952 -0.1479  0.2578  0.0717
  757DOPS   C3A 8884   7.471  10.999  13.986  0.0998  0.0196 -0.5708
  757DOPS   C4A 8885   7.755  10.710  13.941 -0.0517  0.2111  0.0849
  757DOPS   C1B 8886   6.714  11.791  13.716  0.1928  0.1243  0.1412
  757DOPS   D2B 8887   6.981  12.077  13.904  0.1866 -0.0293  0.0632
  757DOPS   C3B 8888   7.447  12.077  14.109  0.1557 -0.0946 -0.0185
  757DOPS   C4B 8889   7.791  12.050  13.860 -0.0835 -0.2018 -0.1024
  758DOPE   NH3 8890   0.049  11.825  13.804  0.0328 -0.1005  0.0882
  758DOPE   PO4 8891   0.185  11.587  13.930  0.0967  0.4741  0.3069
  758DOPE   GL1 8892   0.546  11.737  14.134  0.1096 -0.3909 -0.2195
  758DOPE   GL2 8893   0.421  11.990  14.185 -0.1813 -0.0162  0.0217
  758DOPE   C1A 8894   0.666  11.909  14.576  0.2929 -0.0065  0.3749
  758DOPE   D2A 8895   0.670  12.028  15.008  0.1500  0.0146  0.0752
  758DOPE   C3A 8896   0.668  12.133  15.468 -0.0535 -0.4520 -0.2811
  758DOPE   C4A 8897   0.491  12.174  15.910 -0.0751 -0.0865  0.0692
  758DOPE   C1B 8898   0.420  12.338  14.442  0.1624 -0.0627  0.1249
  758DOPE   D2B 8899   0.535  12.704  14.646 -0.3742 -0.2341  0.1550
  758DOPE   C3B 8900   0.910  12.959  14.586  0.0237 -0.1483  0.1257
  758DOPE   C4B 8901   1.224  13.206  14.794 -0.4351 -0.0771 -0.2077
  759DOPE   NH3 8902   7.738  11.735  12.387 -0.0352 -0.1294  0.2083
  759DOPE   PO4 8903   7.683  11.585  12.703  0.1959  0.0931  0.2043
  759DOPE   GL1 8904   8.062  11.802  12.838 -0.0213 -0.1219 -0.0566
  759DOPE   GL2 8905   8.151  11.582  12.964  0.0108 -0.0441 -0.1217
  759DOPE   C1A 8906   8.263  12.235  12.748 -0.0100  0.1231 -0.1596
  759DOPE   D2A 8907   8.463  12.427  13.068 -0.0061  0.1068 -0.1055
  759DOPE   C3A 8908   8.364  12.780  13.294 -0.2733  0.2243 -0.0499
  759DOPE   C4A 8909   8.501  13.113  13.641  0.0224  0.0804  0.0337
  759DOPE   C1B 8910   8.358  11.850  13.343 -0.0770 -0.1331  0.1841
  759DOPE   D2B 8911   8.358  11.902  13.832  0.0614 -0.0184  0.0298
  759DOPE   C3B 8912   8.875  11.890  13.781 -0.0085 -0.0677  0.1673
  759DOPE   C4B 8913   9.290  12.039  13.980 -0.0877 -0.2375  0.1208
  760POSM   NC3 8914  10.744  20.860  11.966  0.0394  0.0381 -0.0050
  760POSM   PO4 8915  10.577  21.122  11.747  0.1987  0.3362 -0.0051
  760POSM   AM1 8916  10.375  21.153  12.024 -0.0032  0.1817 -0.1035
  760POSM   AM2 8917  10.307  21.337  12.174  0.0709  0.2765  0.0659
  760POSM   T1A 8918  10.224  20.954  12.499 -0.2833 -0.5259  0.4570
  760POSM   C2A 8919  10.000  20.901  12.899 -0.1306 -0.2900 -0.2186
  760POSM   C3A 8920  10.015  20.905  13.377 -0.0483 -0.1458 -0.2773
  760POSM   C1B 8921  10.470  21.601  12.205  0.4836 -0.1475  0.2595
  760POSM   D2B 8922  10.671  21.984  12.329 -0.1463  0.1580 -0.1252
  760POSM   C3B 8923  10.367  22.232  12.535 -0.0498 -0.2719  0.2056
  760POSM   C4B 8924  10.045  22.216  12.846 -0.1559 -0.1700  0.2077
  761DOPC   NC3 8925  10.406  19.491  12.402 -0.0004  0.1065 -0.1643
  761DOPC   PO4 8926  10.022  19.598  12.292 -0.1196  0.1412  0.1599
  761DOPC   GL1 8927  10.163  19.915  12.296 -0.1972 -0.1460 -0.3213
  761DOPC   GL2 8928  10.351  20.013  12.090 -0.1167  0.1896  0.0091
  761DOPC   C1A 8929   9.962  20.219  12.634  0.1369 -0.0549 -0.1263
  761DOPC   D2A 8930   9.617  20.403  12.979 -0.2560 -0.0676  0.2204
  761DOPC   C3A 8931   9.845  20.434  13.356  0.0678  0.1060 -0.2676
  761DOPC   C4A 8932   9.907  20.645  13.792  0.0821  0.2541  0.1835
  761DOPC   C1B 8933  10.666  20.302  12.145  0.1168  0.0230  0.0249
  761DOPC   D2B 8934  11.129  20.450  12.208 -0.1238  0.0253  0.1407
  761DOPC   C3B 8935  11.352  20.854  12.322  0.0897 -0.0388  0.0975
  761DOPC   C4B 8936  11.352  21.241  12.551 -0.0731  0.0654  0.1990
  762DOPC   NC3 8937   3.933  12.067  13.495 -0.2582  0.3057  0.3442
  762DOPC   PO4 8938   3.846  11.675  13.485 -0.0475  0.2164  0.1259
  762DOPC   GL1 8939   4.148  11.657  13.734  0.3524 -0.1764 -0.0375
  762DOPC   GL2 8940   4.038  11.712  14.034  0.0201  0.0122  0.3478
  762DOPC   C1A 8941   4.430  12.009  13.790  0.1031  0.1581 -0.2241
  762DOPC   D2A 8942   4.867  12.182  13.881 -0.0817  0.2829  0.0481
  762DOPC   C3A 8943   5.062  12.432  14.256  0.1928  0.1972 -0.0052
  762DOPC   C4A 8944   5.418  12.299  14.510 -0.2741 -0.1089  0.0267
  762DOPC   C1B 8945   3.888  11.351  14.303  0.0212  0.0078  0.0375
  762DOPC   D2B 8946   3.952  11.051  14.601  0.1606 -0.0798 -0.0809
  762DOPC   C3B 8947   3.602  10.959  14.897 -0.0422 -0.2223 -0.0803
  762DOPC   C4B 8948   3.189  10.751  14.930  0.1370 -0.2967 -0.3032
  763DOPE   NH3 8949   2.966  12.044  13.749  0.0543  0.1043 -0.3669
  763DOPE   PO4 8950   2.812  12.314  13.882 -0.2614 -0.1618 -0.0243
  763DOPE   GL1 8951   3.018  12.280  14.144  0.0564  0.1153  0.0680
  763DOPE   GL2 8952   2.870  12.382  14.414  0.0305 -0.3280  0.2436
  763DOPE   C1A 8953   3.178  11.983  14.449  0.1201 -0.0956  0.0056
  763DOPE   D2A 8954   3.365  11.577  14.426  0.1210  0.0380  0.4236
  763DOPE   C3A 8955   3.679  11.510  14.787 -0.1155 -0.0803  0.1554
  763DOPE   C4A 8956   3.842  11.438  15.229 -0.2040 -0.1030  0.1381
  763DOPE   C1B 8957   2.523  12.562  14.692  0.0460 -0.3760  0.4183
  763DOPE   D2B 8958   2.287  12.900  14.861  0.0468  0.1111  0.1155
  763DOPE   C3B 8959   2.142  13.334  14.728  0.1274  0.4080 -0.1995
  763DOPE   C4B 8960   1.690  13.519  14.826 -0.0301  0.2592  0.1475
  764DOPE   NH3 8961   7.741  14.650  12.801 -0.0874  0.4889  0.0358
  764DOPE   PO4 8962   7.448  14.566  12.900  0.0802  0.0557  0.1283
  764DOPE   GL1 8963   7.543  14.578  13.300  0.0171 -0.4186 -0.4316
  764DOPE   GL2 8964   7.569  14.899  13.292  0.2195  0.3671  0.0390
  764DOPE   C1A 8965   7.735  14.734  13.713 -0.1711 -0.2082 -0.1854
  764DOPE   D2A 8966   7.843  15.177  13.853  0.1469 -0.1767 -0.1984
  764DOPE   C3A 8967   8.158  15.250  14.158 -0.0312  0.0970  0.1132
  764DOPE   C4A 8968   8.498  15.545  14.289 -0.0989 -0.0195 -0.0287
  764DOPE   C1B 8969   8.010  15.027  13.364 -0.4087  0.1979  0.1896
  764DOPE   D2B 8970   8.345  15.205  13.690 -0.3968 -0.2871 -0.3685
  764DOPE   C3B 8971   8.247  15.640  13.719 -0.1248 -0.1940 -0.0355
  764DOPE   C4B 8972   8.438  15.925  14.001  0.1909 -0.1486 -0.1510
  765POSM   NC3 8973   4.462  12.725  13.014  0.1036  0.0599  0.1001
  765POSM   PO4 8974   4.181  12.949  13.140  0.3732  0.0454 -0.1549
  765POSM   AM1 8975   4.404  13.001  13.388  0.2150  0.4195  0.2797
  765POSM   AM2 8976   4.408  13.167  13.628  0.1482  0.1374  0.0108
  765POSM   T1A 8977   4.827  12.791  13.622 -0.4078 -0.2250  0.1248
  765POSM   C2A 8978   5.212  12.645  13.852  0.0196  0.0385  0.2712
  765POSM   C3A 8979   5.659  12.664  13.999  0.1053 -0.3360 -0.1667
  765POSM   C1B 8980   4.483  13.006  13.875  0.2093 -0.0271  0.0918
  765POSM   D2B 8981   4.857  12.859  14.136 -0.4894  0.1870  0.1124
  765POSM   C3B 8982   5.258  12.969  14.275 -0.3304 -0.1535 -0.2774
  765POSM   C4B 8983   5.696  13.065  14.370  0.0972 -0.2726 -0.2283
  766POSM   NC3 8984   7.125  15.845  12.306  0.1424 -0.0584 -0.0026
  766POSM   PO4 8985   7.064  16.205  12.535 -0.0978  0.0677  0.3052
  766POSM   AM1 8986   7.009  16.249  12.876  0.1335  0.1224  0.1669
  766POSM   AM2 8987   6.943  16.489  13.084 -0.3649 -0.1457  0.0821
  766POSM   T1A 8988   7.109  16.067  13.301  0.1739 -0.1786  0.0742
  766POSM   C2A 8989   7.309  15.946  13.696 -0.0141  0.4364  0.0344
  766POSM   C3A 8990   7.105  15.827  14.127 -0.0231  0.1202  0.0535
  766POSM   C1B 8991   6.719  16.424  13.351 -0.3217 -0.1099  0.1960
  766POSM   D2B 8992   6.687  16.516  13.801 -0.5907  0.4221  0.0435
  766POSM   C3B 8993   7.050  16.309  13.945  0.4109 -0.0186 -0.2395
  766POSM   C4B 8994   7.513  16.292  13.981  0.1419 -0.0685  0.0044
  767POSM   NC3 8995   1.602  18.992  12.729 -0.0414  0.0274  0.0137
  767POSM   PO4 8996   1.704  19.100  13.085  0.1616  0.3529 -0.1967
  767POSM   AM1 8997   1.591  19.415  13.171  0.2323 -0.2652  0.1165
  767POSM   AM2 8998   1.563  19.508  13.427 -0.0888  0.0392 -0.2626
  767POSM   T1A 8999   1.422  19.925  13.165 -0.0093  0.0433  0.0807
  767POSM   C2A 9000   1.206  20.304  13.035  0.1845  0.3378 -0.1404
  767POSM   C3A 9001   1.147  20.763  12.910 -0.1089 -0.3190 -0.0858
  767POSM   C1B 9002   1.570  19.726  13.625 -0.2636  0.1187 -0.0469
  767POSM   D2B 9003   1.435  20.029  13.971 -0.1917  0.4566 -0.1733
  767POSM   C3B 9004   1.818  20.235  14.209 -0.1238 -0.0781  0.0391
  767POSM   C4B 9005   1.832  20.497  14.603  0.0414 -0.0325 -0.5036
  768POSM   NC3 9006   9.427  14.878  11.815  0.0318  0.1785  0.2769
  768POSM   PO4 9007   9.757  15.081  11.775 -0.0153 -0.0065  0.0376
  768POSM   AM1 9008   9.595  15.300  11.986 -0.0010  0.1167 -0.3605
  768POSM   AM2 9009   9.651  15.422  12.251 -0.2406 -0.0983 -0.0892
  768POSM   T1A 9010   9.291  15.722  12.036  0.0049  0.4245  0.2583
  768POSM   C2A 9011   9.096  16.118  12.128  0.2400 -0.4251 -0.1670
  768POSM   C3A 9012   8.975  16.566  12.232 -0.3225 -0.0315 -0.4757
  768POSM   C1B 9013   9.597  15.439  12.567  0.3744  0.3316 -0.1802
  768POSM   D2B 9014   9.313  15.388  12.865 -0.0005 -0.3539 -0.0205
  768POSM   C3B 9015   9.061  15.048  12.995 -0.1159  0.1553 -0.0267
  768POSM   C4B 9016   8.665  15.134  13.233 -0.3392 -0.0376 -0.3133
  769DOPC   NC3 9017   2.084  16.912  13.243  0.0920 -0.1591 -0.1405
  769DOPC   PO4 9018   2.238  16.995  13.632  0.1277  0.0407  0.0782
  769DOPC   GL1 9019   2.500  16.843  13.905  0.3716  0.3657 -0.2500
  769DOPC   GL2 9020   2.726  17.088  13.914 -0.2894 -0.1671  0.1868
  769DOPC   C1A 9021   2.547  16.756  14.367  0.0759  0.2343  0.0146
  769DOPC   D2A 9022   2.775  16.693  14.768 -0.0600 -0.2441  0.0878
  769DOPC   C3A 9023   2.513  16.729  15.101 -0.1582  0.2329 -0.2255
  769DOPC   C4A 9024   2.279  16.865  15.486  0.1637  0.2038 -0.1770
  769DOPC   C1B 9025   3.085  16.804  13.822 -0.1978 -0.1239 -0.1847
  769DOPC   D2B 9026   3.346  16.479  13.954  0.1381  0.2279  0.0046
  769DOPC   C3B 9027   3.505  16.416  14.396 -0.2672  0.0421  0.2200
  769DOPC   C4B 9028   3.793  16.426  14.727 -0.1846  0.0578  0.1388
  770DOPC   NC3 9029   8.040  11.199  12.716 -0.1439 -0.2344  0.1494
  770DOPC   PO4 9030   8.183  11.500  12.464 -0.1531  0.0506  0.3269
  770DOPC   GL1 9031   8.502  11.714  12.497 -0.1734 -0.0432 -0.4675
  770DOPC   GL2 9032   8.426  11.957  12.321  0.1135 -0.0396  0.1151
  770DOPC   C1A 9033   8.746  12.014  12.778 -0.2054  0.2527 -0.3293
  770DOPC   D2A 9034   9.022  12.354  12.986 -0.3061 -0.2172 -0.1729
  770DOPC   C3A 9035   9.461  12.187  13.133 -0.0872 -0.0005 -0.0173
  770DOPC   C4A 9036   9.924  12.269  13.064 -0.0703 -0.0761 -0.1169
  770DOPC   C1B 9037   8.554  12.369  12.200  0.0240  0.1724 -0.3710
  770DOPC   D2B 9038   8.251  12.707  12.041  0.0539 -0.2286 -0.1916
  770DOPC   C3B 9039   8.459  13.059  12.328 -0.0562 -0.2533  0.1420
  770DOPC   C4B 9040   8.505  13.520  12.401  0.1586 -0.0549  0.0851
  771DOPE   NH3 9041   7.628  17.656  12.383 -0.0489 -0.1353 -0.1192
  771DOPE   PO4 9042   7.591  17.719  12.714 -0.1670 -0.0479 -0.0876
  771DOPE   GL1 9043   7.773  17.870  12.992  0.0646  0.0454  0.1258
  771DOPE   GL2 9044   7.687  18.181  12.950 -0.1559  0.0943 -0.0479
  771DOPE   C1A 9045   7.781  17.999  13.467  0.0511 -0.6091 -0.1051
  771DOPE   D2A 9046   8.149  18.313  13.756 -0.0468  0.0928 -0.1132
  771DOPE   C3A 9047   8.539  18.502  13.676  0.1149 -0.0423  0.0117
  771DOPE   C4A 9048   8.989  18.527  13.588 -0.0391  0.0754  0.1949
  771DOPE   C1B 9049   7.810  18.457  13.296 -0.1363 -0.2470  0.0944
  771DOPE   D2B 9050   7.774  18.730  13.712  0.1011  0.0923  0.0403
  771DOPE   C3B 9051   7.835  19.174  13.850 -0.0656  0.1860 -0.2204
  771DOPE   C4B 9052   7.779  19.527  14.133 -0.1161 -0.3330 -0.0279
  772DOPC   NC3 9053   7.483  17.542  13.150  0.2131  0.0975  0.1709
  772DOPC   PO4 9054   7.105  17.450  13.043  0.0434  0.0199  0.0045
  772DOPC   GL1 9055   7.080  17.532  13.407 -0.1492  0.0020 -0.1916
  772DOPC   GL2 9056   6.946  17.772  13.542  0.1307  0.1595 -0.2982
  772DOPC   C1A 9057   7.420  17.722  13.655  0.1408  0.0126  0.0696
  772DOPC   D2A 9058   7.398  17.796  14.133  0.1018 -0.0993  0.0860
  772DOPC   C3A 9059   7.325  18.195  14.368 -0.0661  0.0342  0.0288
  772DOPC   C4A 9060   7.320  18.590  14.606 -0.0806  0.1807 -0.2536
  772DOPC   C1B 9061   6.824  18.124  13.283 -0.2284 -0.1941  0.1652
  772DOPC   D2B 9062   6.572  18.545  13.358  0.1878  0.0855 -0.0626
  772DOPC   C3B 9063   6.789  18.811  13.659  0.0594 -0.1219  0.0385
  772DOPC   C4B 9064   6.908  19.074  14.084  0.0899 -0.2265  0.1277
  773DOPC   NC3 9065   9.765  19.296  11.581 -0.1369  0.2217 -0.1367
  773DOPC   PO4 9066   9.749  19.297  11.988 -0.0672  0.0830  0.1599
  773DOPC   GL1 9067   9.583  19.522  12.300  0.2718 -0.1633 -0.2019
  773DOPC   GL2 9068   9.620  19.294  12.461 -0.4680  0.2472  0.1617
  773DOPC   C1A 9069   9.445  19.830  12.574  0.2029  0.1949 -0.1040
  773DOPC   D2A 9070   9.375  19.934  12.970  0.0579 -0.1995  0.0236
  773DOPC   C3A 9071   9.130  20.307  13.063  0.0651 -0.1446 -0.2663
  773DOPC   C4A 9072   9.011  20.758  12.931 -0.0463 -0.1589 -0.4024
  773DOPC   C1B 9073   9.292  19.192  12.768 -0.0932 -0.1077 -0.0660
  773DOPC   D2B 9074   9.252  19.284  13.259 -0.1754 -0.1679 -0.1213
  773DOPC   C3B 9075   9.134  19.738  13.386  0.0339 -0.0984 -0.1340
  773DOPC   C4B 9076   9.423  20.160  13.477  0.0389  0.0352 -0.2045
  774DOPS   CNO 9077   7.371  22.532  12.426 -0.2458 -0.0682  0.0584
  774DOPS   PO4 9078   7.516  22.342  12.715 -0.3848 -0.1268  0.0090
  774DOPS   GL1 9079   7.775  22.266  13.010  0.2748 -0.0826 -0.0952
  774DOPS   GL2 9080   8.022  22.126  12.909 -0.1485  0.0505 -0.2816
  774DOPS   C1A 9081   7.874  22.596  13.313  0.2104 -0.1029  0.0593
  774DOPS   D2A 9082   7.740  23.040  13.491 -0.0004  0.2448  0.1340
  774DOPS   C3A 9083   7.890  23.185  13.934  0.2795 -0.0782  0.0034
  774DOPS   C4A 9084   8.035  23.514  14.220 -0.0935  0.1728 -0.0271
  774DOPS   C1B 9085   8.382  21.893  13.100  0.1846  0.1020 -0.4916
  774DOPS   D2B 9086   8.756  21.658  13.205 -0.3217  0.2246 -0.0031
  774DOPS   C3B 9087   9.041  21.759  13.556 -0.0074  0.0010  0.0485
  774DOPS   C4B 9088   9.307  22.112  13.623  0.3610  0.0005  0.0294
  775POSM   NC3 9089  10.262  16.643  11.335  0.3623 -0.1651  0.1659
  775POSM   PO4 9090  10.369  16.871  11.663  0.3701 -0.1457 -0.0693
  775POSM   AM1 9091  10.099  16.944  11.826  0.0800  0.0111 -0.1502
  775POSM   AM2 9092   9.925  16.728  11.836 -0.0298 -0.0575 -0.0735
  775POSM   T1A 9093   9.647  17.184  11.777  0.2831  0.1756  0.0833
  775POSM   C2A 9094   9.243  17.369  11.730  0.0269  0.1392 -0.0054
  775POSM   C3A 9095   8.882  17.395  12.035  0.1239  0.0792  0.1635
  775POSM   C1B 9096   9.644  16.711  11.928  0.0422 -0.2174  0.1195
  775POSM   D2B 9097   9.237  16.933  12.002 -0.2655 -0.2024  0.2654
  775POSM   C3B 9098   9.193  16.987  12.431  0.2300 -0.3315 -0.1173
  775POSM   C4B 9099   9.159  16.814  12.852 -0.1645 -0.2248 -0.0636
  776DOPS   CNO 9100   6.283  20.609  13.200  0.0078  0.4023 -0.2474
  776DOPS   PO4 9101   6.379  20.777  12.879  0.1547  0.0866 -0.3263
  776DOPS   GL1 9102   6.633  20.412  12.905 -0.0222 -0.0638  0.0754
  776DOPS   GL2 9103   6.910  20.451  12.947  0.1054  0.2489 -0.0406
  776DOPS   C1A 9104   6.817  19.955  12.935  0.0409 -0.0130  0.0161
  776DOPS   D2A 9105   6.728  19.442  12.989 -0.0612 -0.4784  0.0418
  776DOPS   C3A 9106   6.303  19.295  12.801  0.0379  0.1143 -0.1399
  776DOPS   C4A 9107   5.928  19.560  12.578 -0.1851  0.0688 -0.0832
  776DOPS   C1B 9108   7.178  20.304  13.213  0.2242  0.2821 -0.2163
  776DOPS   D2B 9109   7.564  20.083  13.388  0.0713  0.0662  0.4036
  776DOPS   C3B 9110   7.829  19.805  13.116  0.0607  0.0196  0.1922
  776DOPS   C4B 9111   7.793  19.371  13.009  0.1958 -0.0875 -0.3394
  777POSM   NC3 9112   1.625  17.120  13.272  0.1595 -0.2373 -0.0940
  777POSM   PO4 9113   1.315  16.989  13.453 -0.1099 -0.0522 -0.1656
  777POSM   AM1 9114   1.312  16.965  13.802  0.1255 -0.1912 -0.0503
  777POSM   AM2 9115   1.407  16.822  14.005  0.0085 -0.1155 -0.0980
  777POSM   T1A 9116   1.014  16.992  14.219 -0.1421  0.4178 -0.0235
  777POSM   C2A 9117   1.111  17.173  14.630 -0.0243  0.0797 -0.1199
  777POSM   C3A 9118   1.197  17.508  14.871  0.2732  0.0568  0.1863
  777POSM   C1B 9119   1.452  16.857  14.288  0.1555  0.0062 -0.1545
  777POSM   D2B 9120   1.642  16.964  14.698 -0.3083  0.1270  0.0677
  777POSM   C3B 9121   1.340  16.917  14.996 -0.1611  0.1931 -0.2912
  777POSM   C4B 9122   1.056  16.585  15.130  0.2184  0.2382  0.2127
  778DOPC   NC3 9123   3.052  19.125  12.766 -0.3668 -0.1005 -0.0612
  778DOPC   PO4 9124   2.709  18.960  12.893  0.0184  0.0026 -0.2213
  778DOPC   GL1 9125   2.970  19.001  13.195 -0.0168 -0.0083 -0.0846
  778DOPC   GL2 9126   2.854  18.912  13.485  0.3893 -0.2136  0.0073
  778DOPC   C1A 9127   3.333  19.135  13.469 -0.1329 -0.0370  0.0808
  778DOPC   D2A 9128   3.680  19.417  13.360  0.0767  0.0342  0.1503
  778DOPC   C3A 9129   3.535  19.826  13.285 -0.4641 -0.0702 -0.3169
  778DOPC   C4A 9130   3.445  20.246  13.051  0.0621 -0.3761  0.1097
  778DOPC   C1B 9131   2.919  19.275  13.764  0.2788 -0.0530  0.1756
  778DOPC   D2B 9132   2.990  19.587  14.118 -0.2011 -0.0167 -0.1108
  778DOPC   C3B 9133   3.112  20.036  14.060  0.0104 -0.1277  0.1204
  778DOPC   C4B 9134   2.915  20.392  14.270  0.0291 -0.1255  0.1641
  779DOPC   NC3 9135   7.504  16.354  12.375  0.0833 -0.1237 -0.1418
  779DOPC   PO4 9136   7.605  15.965  12.391 -0.3053  0.0862 -0.1696
  779DOPC   GL1 9137   7.760  16.048  12.755  0.2405  0.1111  0.0358
  779DOPC   GL2 9138   7.930  15.784  12.849  0.0960  0.1598  0.0288
  779DOPC   C1A 9139   8.061  16.370  12.913  0.0941  0.0268 -0.0424
  779DOPC   D2A 9140   8.274  16.650  13.216 -0.2546 -0.0284 -0.1281
  779DOPC   C3A 9141   8.560  16.473  13.490 -0.0300 -0.0895  0.1076
  779DOPC   C4A 9142   9.016  16.435  13.415 -0.0417  0.0965 -0.2221
  779DOPC   C1B 9143   8.174  15.482  12.559  0.1023  0.1051 -0.3626
  779DOPC   D2B 9144   8.606  15.411  12.413 -0.2941 -0.0210  0.0699
  779DOPC   C3B 9145   8.985  15.267  12.569  0.1682 -0.2247 -0.1852
  779DOPC   C4B 9146   9.342  15.061  12.392 -0.1177  0.0312  0.0427
  780DOPC   NC3 9147   2.392  12.299  13.040 -0.2380  0.1494  0.1925
  780DOPC   PO4 9148   2.164  12.590  13.106  0.1894 -0.5015 -0.2522
  780DOPC   GL1 9149   1.893  12.609  13.388  0.0284  0.0619 -0.1393
  780DOPC   GL2 9150   1.945  12.296  13.497 -0.0088  0.0359 -0.0459
  780DOPC   C1A 9151   1.532  12.516  13.657 -0.0074 -0.0931 -0.2689
  780DOPC   D2A 9152   1.253  12.136  13.852 -0.2384  0.0523  0.0902
  780DOPC   C3A 9153   1.437  12.187  14.336  0.0423 -0.3189  0.0484
  780DOPC   C4A 9154   1.284  12.084  14.730 -0.1675  0.1799 -0.1197
  780DOPC   C1B 9155   1.794  12.220  13.933  0.0865 -0.2946  0.2268
  780DOPC   D2B 9156   1.916  12.207  14.392  0.0509 -0.3442 -0.3376
  780DOPC   C3B 9157   1.745  12.302  14.819  0.0150  0.0565  0.3424
  780DOPC   C4B 9158   2.015  12.552  15.055  0.2540 -0.1096 -0.2317
  781POSM   NC3 9159   7.282  21.511  12.407 -0.0834 -0.2936 -0.1576
  781POSM   PO4 9160   7.137  21.474  12.799 -0.0774 -0.1365 -0.1440
  781POSM   AM1 9161   7.358  21.457  13.055  0.0945 -0.5240  0.1136
  781POSM   AM2 9162   7.458  21.290  13.257 -0.0858  0.1167  0.0440
  781POSM   T1A 9163   7.773  21.653  13.336 -0.2030  0.1541  0.0091
  781POSM   C2A 9164   7.914  21.795  13.778  0.3172 -0.1217 -0.3891
  781POSM   C3A 9165   8.095  21.866  14.186 -0.0481  0.1664  0.1937
  781POSM   C1B 9166   7.592  21.022  13.377 -0.1226  0.2478  0.0927
  781POSM   D2B 9167   7.741  20.612  13.398  0.3889 -0.2221  0.1377
  781POSM   C3B 9168   8.068  20.707  13.680  0.1868  0.1744 -0.0108
  781POSM   C4B 9169   8.084  20.931  14.109 -0.1654  0.1657  0.2659
  782POSM   NC3 9170   1.922  15.014  13.027  0.0212  0.0399 -0.0686
  782POSM   PO4 9171   2.054  14.650  13.081  0.1490  0.0782  0.0735
  782POSM   AM1 9172   2.097  14.775  13.367 -0.0685  0.1149 -0.2620
  782POSM   AM2 9173   2.215  15.045  13.452  0.0570 -0.0182 -0.2213
  782POSM   T1A 9174   2.166  14.647  13.810  0.0404 -0.1592  0.1834
  782POSM   C2A 9175   2.261  14.441  14.198  0.0390  0.0047  0.2763
  782POSM   C3A 9176   2.139  13.999  14.278  0.1123  0.2625 -0.1607
  782POSM   C1B 9177   2.397  15.084  13.744 -0.1275  0.4190  0.0257
  782POSM   D2B 9178   2.687  15.306  13.993 -0.0031  0.1972  0.3371
  782POSM   C3B 9179   3.017  14.994  14.219 -0.1931 -0.1511  0.1827
  782POSM   C4B 9180   3.178  14.565  14.275  0.1288  0.1067 -0.0665
  783DOPE   NH3 9181   5.272  15.158  13.019  0.0593 -0.2563 -0.1717
  783DOPE   PO4 9182   5.455  15.114  13.286  0.2928  0.1878  0.0028
  783DOPE   GL1 9183   5.336  15.271  13.630  0.0727 -0.1745  0.2494
  783DOPE   GL2 9184   5.258  15.267  13.904 -0.1011  0.1538  0.0218
  783DOPE   C1A 9185   5.029  15.608  13.636  0.0025  0.4316  0.3015
  783DOPE   D2A 9186   4.787  15.881  13.891 -0.3205  0.1435  0.2215
  783DOPE   C3A 9187   5.180  16.168  14.074  0.0284  0.0310  0.1527
  783DOPE   C4A 9188   5.503  16.457  13.866  0.0395  0.4196  0.1842
  783DOPE   C1B 9189   4.826  15.232  14.073  0.1995 -0.3692  0.2527
  783DOPE   D2B 9190   4.374  15.137  13.920  0.0917 -0.1745  0.1913
  783DOPE   C3B 9191   4.141  15.142  14.345  0.0223  0.1935  0.1127
  783DOPE   C4B 9192   4.111  15.307  14.736 -0.2923  0.0112  0.0750
  784DOPS   CNO 9193  10.868  16.169  11.730  0.3442 -0.1359 -0.4314
  784DOPS   PO4 9194  11.005  16.296  12.079 -0.0208 -0.2206 -0.0885
  784DOPS   GL1 9195  10.738  16.322  12.411 -0.4136 -0.0054 -0.1581
  784DOPS   GL2 9196  10.482  16.153  12.282 -0.0168  0.0632  0.1838
  784DOPS   C1A 9197  10.591  16.374  12.880 -0.2010 -0.0563 -0.0114
  784DOPS   D2A 9198  10.475  16.784  13.071  0.0750  0.2614 -0.1854
  784DOPS   C3A 9199  10.610  17.092  12.748 -0.0257 -0.0689  0.0245
  784DOPS   C4A 9200  10.570  17.553  12.666 -0.0715 -0.2658 -0.0199
  784DOPS   C1B 9201  10.182  16.186  12.640  0.1345  0.1742 -0.1210
  784DOPS   D2B 9202   9.690  16.155  12.801  0.3513  0.0668 -0.1843
  784DOPS   C3B 9203   9.341  15.872  12.699  0.1003 -0.0058 -0.2096
  784DOPS   C4B 9204   8.957  15.765  12.484  0.1575 -0.1907 -0.0577
  785DOPE   NH3 9205  11.490  23.090  12.008 -0.2266  0.2653 -0.0612
  785DOPE   PO4 9206  11.526  23.202  12.355  0.1262 -0.0675  0.0013
  785DOPE   GL1 9207  11.776  23.133  12.695  0.0013 -0.0978 -0.2038
  785DOPE   GL2 9208  11.578  22.885  12.771  0.0362  0.0843 -0.1111
  785DOPE   C1A 9209  12.086  23.091  13.011  0.1702 -0.0599  0.1613
  785DOPE   D2A 9210  12.102  23.227  13.445  0.5183  0.0997  0.0863
  785DOPE   C3A 9211  12.238  23.059  13.838  0.0073 -0.0483 -0.0445
  785DOPE   C4A 9212  12.339  23.123  14.303  0.0934 -0.0726  0.3779
  785DOPE   C1B 9213  11.439  22.695  13.111 -0.0666 -0.2702  0.0451
  785DOPE   D2B 9214  11.385  22.567  13.533  0.1898 -0.2702 -0.0678
  785DOPE   C3B 9215  11.545  22.723  13.960  0.1451  0.0469 -0.2620
  785DOPE   C4B 9216  11.353  23.015  14.217 -0.1773 -0.1332  0.0342
  786DOPC   NC3 9217   1.119  15.467  13.170  0.3893 -0.1233  0.0149
  786DOPC   PO4 9218   0.800  15.316  13.215  0.0553  0.1295 -0.1681
  786DOPC   GL1 9219   0.607  15.667  13.195 -0.1012 -0.1507 -0.2259
  786DOPC   GL2 9220   0.342  15.498  13.198  0.0962 -0.2261 -0.1818
  786DOPC   C1A 9221   0.430  16.044  13.368 -0.2172  0.0305  0.0196
  786DOPC   D2A 9222   0.620  16.455  13.462  0.3473  0.0205 -0.0457
  786DOPC   C3A 9223   0.880  16.593  13.117 -0.0693  0.2740 -0.0792
  786DOPC   C4A 9224   0.816  17.015  12.918 -0.1178  0.0007  0.3261
  786DOPC   C1B 9225   0.140  15.763  13.583  0.1018  0.1869 -0.1663
  786DOPC   D2B 9226  -0.187  16.156  13.625  0.0459 -0.0752 -0.0008
  786DOPC   C3B 9227   0.003  16.454  13.248  0.1553 -0.1378  0.4490
  786DOPC   C4B 9228   0.370  16.478  12.965 -0.0655  0.3876  0.0047
  787DOPC   NC3 9229   2.894  13.678  12.912  0.1470  0.0047  0.0326
  787DOPC   PO4 9230   2.846  13.297  13.080 -0.0362 -0.1147  0.1423
  787DOPC   GL1 9231   2.831  13.611  13.353  0.3407  0.2723  0.0363
  787DOPC   GL2 9232   2.712  13.876  13.347 -0.2424  0.1327  0.4529
  787DOPC   C1A 9233   2.790  13.680  13.831 -0.1221 -0.2867  0.1406
  787DOPC   D2A 9234   2.986  13.886  14.173 -0.2005  0.1732  0.0047
  787DOPC   C3A 9235   2.846  14.111  14.528 -0.1655 -0.4218 -0.0765
  787DOPC   C4A 9236   3.079  14.434  14.776  0.1836  0.1291 -0.2398
  787DOPC   C1B 9237   2.916  14.180  13.650  0.1337  0.0844  0.2166
  787DOPC   D2B 9238   3.212  14.566  13.659 -0.1802  0.2102 -0.0223
  787DOPC   C3B 9239   3.472  14.755  13.950 -0.1445 -0.1883 -0.2786
  787DOPC   C4B 9240   3.579  15.128  14.229  0.1454  0.1316  0.1369
  788POSM   NC3 9241   9.645  18.044  12.445 -0.0131  0.3057  0.2314
  788POSM   PO4 9242   9.802  18.033  12.060 -0.0436  0.1090  0.1150
  788POSM   AM1 9243  10.035  17.859  12.212 -0.0889  0.1910  0.2510
  788POSM   AM2 9244  10.253  17.881  12.385  0.4124 -0.0611  0.2397
  788POSM   T1A 9245  10.108  17.359  12.365  0.0787  0.1050 -0.0434
  788POSM   C2A 9246  10.227  16.952  12.262 -0.2375  0.1451  0.1786
  788POSM   C3A 9247  10.402  16.646  12.522 -0.1162 -0.1467 -0.0816
  788POSM   C1B 9248  10.566  17.980  12.498 -0.0547  0.1249  0.3444
  788POSM   D2B 9249  10.901  17.893  12.749  0.2126  0.0655  0.1486
  788POSM   C3B 9250  10.845  17.580  13.091  0.0554  0.0486 -0.3007
  788POSM   C4B 9251  10.611  17.236  13.292  0.1401 -0.1582  0.0011
  789POSM   NC3 9252   0.222  21.033  13.111  0.1184 -0.3229 -0.0224
  789POSM   PO4 9253   0.167  20.633  13.103 -0.2433  0.0861 -0.2215
  789POSM   AM1 9254   0.379  20.485  13.322  0.1003 -0.2880 -0.1147
  789POSM   AM2 9255   0.615  20.594  13.454  0.1795  0.3761  0.2611
  789POSM   T1A 9256   0.618  20.100  13.554  0.1611 -0.0114 -0.0586
  789POSM   C2A 9257   0.619  19.651  13.765  0.0552 -0.1022 -0.2381
  789POSM   C3A 9258   0.335  19.351  13.977  0.1689 -0.1738 -0.1876
  789POSM   C1B 9259   0.890  20.520  13.371  0.0280  0.2837  0.0401
  789POSM   D2B 9260   1.348  20.603  13.363  0.0849 -0.0588 -0.1886
  789POSM   C3B 9261   1.676  20.873  13.362  0.0381 -0.1428 -0.0581
  789POSM   C4B 9262   2.081  20.869  13.090 -0.0667  0.0892  0.3763
  790DOPS   CNO 9263   6.937  14.528  12.910 -0.3397  0.1509  0.0488
  790DOPS   PO4 9264   7.008  14.230  13.133 -0.1024 -0.1401  0.0358
  790DOPS   GL1 9265   7.175  14.137  13.434 -0.3179  0.0062  0.4030
  790DOPS   GL2 9266   7.355  13.912  13.391  0.1917  0.2245  0.2147
  790DOPS   C1A 9267   7.531  14.247  13.714  0.1732  0.0030  0.0733
  790DOPS   D2A 9268   7.950  14.189  13.530  0.2081  0.2762 -0.1167
  790DOPS   C3A 9269   8.381  14.201  13.771  0.1996 -0.1405  0.0168
  790DOPS   C4A 9270   8.594  14.074  14.167  0.0786  0.1786  0.0658
  790DOPS   C1B 9271   7.338  13.698  13.800  0.1724  0.1390  0.0055
  790DOPS   D2B 9272   7.609  13.409  14.007  0.3899 -0.1169 -0.2273
  790DOPS   C3B 9273   7.457  13.018  13.724  0.1078 -0.1121 -0.0176
  790DOPS   C4B 9274   7.285  12.770  13.410  0.1019 -0.0547  0.0920
  791POSM   NC3 9275   2.902  11.346  13.464 -0.0765  0.1767 -0.0757
  791POSM   PO4 9276   2.708  11.662  13.599  0.0178 -0.2465 -0.2450
  791POSM   AM1 9277   2.679  11.478  13.830  0.4265 -0.1529 -0.4604
  791POSM   AM2 9278   2.807  11.248  13.946  0.1133  0.1139  0.3994
  791POSM   T1A 9279   2.229  11.338  14.034  0.0532 -0.1641 -0.0541
  791POSM   C2A 9280   1.911  11.197  14.288  0.2828  0.0135  0.1395
  791POSM   C3A 9281   1.495  10.971  14.380  0.1833 -0.3318  0.0484
  791POSM   C1B 9282   2.704  11.223  14.308  0.1021 -0.1532  0.1143
  791POSM   D2B 9283   2.742  11.109  14.789 -0.0297 -0.3631 -0.2278
  791POSM   C3B 9284   2.665  10.678  14.898 -0.0404  0.0193 -0.0903
  791POSM   C4B 9285   2.399  10.396  15.160 -0.0987  0.3809  0.1333
  792DOPE   NH3 9286   5.655  21.547  12.966 -0.0299  0.2401 -0.4767
  792DOPE   PO4 9287   5.618  21.398  13.251 -0.0142  0.1968  0.3945
  792DOPE   GL1 9288   5.343  21.525  13.415  0.2356 -0.0373  0.0486
  792DOPE   GL2 9289   5.180  21.237  13.487  0.0462  0.0308 -0.1310
  792DOPE   C1A 9290   5.259  21.609  13.830  0.1808  0.0492 -0.1646
  792DOPE   D2A 9291   5.135  21.234  14.120 -0.0293  0.2633  0.1118
  792DOPE   C3A 9292   4.743  21.190  14.352 -0.1880 -0.0106 -0.1016
  792DOPE   C4A 9293   4.428  21.121  14.604  0.0918 -0.1196 -0.0838
  792DOPE   C1B 9294   4.760  21.117  13.576 -0.1519  0.0307 -0.0065
  792DOPE   D2B 9295   4.492  21.051  13.893  0.1086 -0.0960 -0.0227
  792DOPE   C3B 9296   4.377  20.598  13.886  0.0162 -0.0706 -0.1520
  792DOPE   C4B 9297   4.040  20.420  14.165  0.0589  0.2707 -0.2727
  793DOPE   NH3 9298   2.176  13.407  13.057  0.0943  0.1103 -0.0058
  793DOPE   PO4 9299   2.344  13.688  13.073 -0.2682 -0.1082  0.0471
  793DOPE   GL1 9300   2.257  13.875  13.499  0.1600 -0.0983 -0.1387
  793DOPE   GL2 9301   1.964  13.703  13.530  0.0059  0.0808 -0.0892
  793DOPE   C1A 9302   2.004  14.175  13.776 -0.4220 -0.3075 -0.1330
  793DOPE   D2A 9303   1.686  14.212  14.075  0.0346 -0.0542 -0.1149
  793DOPE   C3A 9304   1.810  14.419  14.465  0.0087 -0.1919 -0.0806
  793DOPE   C4A 9305   1.855  14.594  14.947  0.1577 -0.1133 -0.4503
  793DOPE   C1B 9306   1.589  13.424  13.469 -0.1409  0.1440 -0.2237
  793DOPE   D2B 9307   1.246  13.143  13.596  0.0621  0.2642  0.2658
  793DOPE   C3B 9308   0.916  12.912  13.358 -0.0726  0.1229  0.1418
  793DOPE   C4B 9309   0.473  13.109  13.273 -0.2792 -0.0701 -0.0803
  794DOPE   NH3 9310   2.626  12.676  13.527  0.0830 -0.0310  0.0765
  794DOPE   PO4 9311   2.360  12.642  13.649  0.2321  0.1571  0.1600
  794DOPE   GL1 9312   2.153  12.748  13.950  0.0919  0.1249 -0.1304
  794DOPE   GL2 9313   2.206  13.019  14.040  0.0920  0.0952 -0.1660
  794DOPE   C1A 9314   2.075  12.717  14.431  0.1485  0.0701 -0.0483
  794DOPE   D2A 9315   1.775  12.920  14.713 -0.0317  0.1071 -0.1490
  794DOPE   C3A 9316   1.869  13.106  15.059 -0.3058 -0.0092 -0.0130
  794DOPE   C4A 9317   1.928  13.513  15.299 -0.2725 -0.0200  0.1032
  794DOPE   C1B 9318   1.856  13.196  14.293  0.2777 -0.3737  0.0855
  794DOPE   D2B 9319   1.465  13.058  14.368  0.3320  0.2645  0.2149
  794DOPE   C3B 9320   1.160  12.746  14.170 -0.0245 -0.0288  0.2757
  794DOPE   C4B 9321   1.015  12.528  13.770 -0.1358  0.1242  0.0188
  795DOPS   CNO 9322   3.190  11.853  13.240  0.3713 -0.2344 -0.0699
  795DOPS   PO4 9323   3.412  12.033  13.505  0.3525  0.2041  0.3137
  795DOPS   GL1 9324   3.577  12.112  13.786  0.1708 -0.2926 -0.1642
  795DOPS   GL2 9325   3.409  12.002  14.022 -0.1616 -0.0279  0.0228
  795DOPS   C1A 9326   3.976  12.265  14.061 -0.1026 -0.0739 -0.1347
  795DOPS   D2A 9327   3.984  12.456  14.458 -0.3155  0.2360  0.2264
  795DOPS   C3A 9328   3.920  12.205  14.830  0.3342  0.5076  0.2188
  795DOPS   C4A 9329   3.676  11.949  15.112  0.1724  0.0799  0.0226
  795DOPS   C1B 9330   3.720  11.939  14.376 -0.0708  0.1135  0.0066
  795DOPS   D2B 9331   4.212  11.912  14.512 -0.0193 -0.1927 -0.3187
  795DOPS   C3B 9332   4.492  12.220  14.339 -0.0814  0.0178 -0.0827
  795DOPS   C4B 9333   4.393  12.535  14.046  0.0306  0.0629  0.0560
  796POSM   NC3 9334   6.346  15.103  12.648 -0.2806 -0.0840  0.0016
  796POSM   PO4 9335   6.665  14.926  12.793  0.1575  0.0262  0.1804
  796POSM   AM1 9336   6.730  15.023  13.099 -0.2378 -0.2976 -0.0330
  796POSM   AM2 9337   6.630  15.175  13.283 -0.1682  0.1674 -0.0438
  796POSM   T1A 9338   7.073  15.030  13.436 -0.1490 -0.1005 -0.2312
  796POSM   C2A 9339   7.277  14.862  13.776 -0.2164 -0.2635 -0.0725
  796POSM   C3A 9340   7.259  14.548  14.105 -0.3117 -0.0236  0.2125
  796POSM   C1B 9341   6.548  15.289  13.568 -0.3690 -0.0334 -0.1023
  796POSM   D2B 9342   6.201  15.234  13.904 -0.1698  0.0394 -0.0286
  796POSM   C3B 9343   6.194  14.760  13.981  0.0637  0.2620  0.0244
  796POSM   C4B 9344   6.195  14.352  14.172 -0.0809 -0.0019  0.3817
  797POSM   NC3 9345   8.096  17.688  12.680  0.1979  0.1771  0.0060
  797POSM   PO4 9346   8.165  17.746  12.318 -0.2402  0.1945  0.0876
  797POSM   AM1 9347   8.364  17.468  12.397 -0.2649 -0.1855 -0.4757
  797POSM   AM2 9348   8.634  17.501  12.523  0.1838  0.0919 -0.1457
  797POSM   T1A 9349   8.523  17.065  12.186  0.2836 -0.0355  0.0899
  797POSM   C2A 9350   8.563  16.708  11.976  0.4072  0.0648  0.0362
  797POSM   C3A 9351   8.530  16.301  12.035 -0.0159 -0.0438 -0.0061
  797POSM   C1B 9352   8.835  17.340  12.758  0.2908 -0.1350  0.0975
  797POSM   D2B 9353   9.079  17.197  13.086 -0.1134 -0.0299 -0.1084
  797POSM   C3B 9354   9.337  17.394  13.368  0.1392 -0.1877  0.1252
  797POSM   C4B 9355   9.820  17.450  13.445  0.0279  0.1101  0.3014
  798DOPE   NH3 9356   7.485  14.103  12.933 -0.0773  0.0735 -0.0611
  798DOPE   PO4 9357   7.803  14.184  13.005 -0.1704 -0.1080  0.0153
  798DOPE   GL1 9358   8.029  14.538  13.170  0.3718 -0.1949  0.2426
  798DOPE   GL2 9359   8.237  14.674  12.991 -0.0162 -0.4405 -0.0727
  798DOPE   C1A 9360   8.202  14.646  13.553 -0.1099  0.1739 -0.2659
  798DOPE   D2A 9361   8.711  14.758  13.695 -0.1704  0.0327 -0.1524
  798DOPE   C3A 9362   9.045  15.051  13.530 -0.0343  0.0347 -0.0669
  798DOPE   C4A 9363   9.265  15.342  13.836 -0.0866  0.3870 -0.2145
  798DOPE   C1B 9364   8.664  14.572  13.133  0.1311  0.0923 -0.1358
  798DOPE   D2B 9365   8.863  14.275  13.418  0.0084  0.1909  0.0560
  798DOPE   C3B 9366   8.756  13.921  13.642  0.0588 -0.3238 -0.0541
  798DOPE   C4B 9367   8.480  13.566  13.830  0.0208 -0.0512 -0.0475
  799DOPS   CNO 9368   2.400  23.297  13.098  0.0292 -0.0236 -0.2089
  799DOPS   PO4 9369   2.124  23.008  13.116 -0.1581 -0.1079 -0.2315
  799DOPS   GL1 9370   2.100  22.943  13.644 -0.3469 -0.0943 -0.0088
  799DOPS   GL2 9371   2.093  22.696  13.489  0.0191 -0.0272 -0.0919
  799DOPS   C1A 9372   1.730  22.810  13.861  0.1434  0.2192  0.0687
  799DOPS   D2A 9373   1.540  22.438  14.100 -0.0779 -0.0573 -0.3420
  799DOPS   C3A 9374   1.602  22.403  14.541 -0.1396  0.0551  0.0659
  799DOPS   C4A 9375   1.487  22.505  14.976  0.1319  0.1736  0.2218
  799DOPS   C1B 9376   1.785  22.371  13.577 -0.2292  0.0464 -0.2784
  799DOPS   D2B 9377   1.705  21.961  13.819 -0.2282  0.0808  0.0789
  799DOPS   C3B 9378   1.763  21.757  14.204 -0.2003 -0.0260 -0.0989
  799DOPS   C4B 9379   2.170  21.660  14.515  0.4253 -0.0714 -0.1352
  800DOPE   NH3 9380   5.988  20.402  12.863 -0.0251 -0.1814  0.2118
  800DOPE   PO4 9381   5.735  20.162  12.920  0.1103  0.1126 -0.1232
  800DOPE   GL1 9382   6.001  19.992  13.115  0.1915 -0.1720  0.0781
  800DOPE   GL2 9383   6.146  20.170  13.313 -0.0460 -0.1740 -0.0263
  800DOPE   C1A 9384   6.343  19.919  12.754  0.1711  0.3851  0.1029
  800DOPE   D2A 9385   6.622  19.607  12.474 -0.3630  0.1613 -0.1473
  800DOPE   C3A 9386   7.057  19.624  12.555 -0.0280 -0.1268  0.2086
  800DOPE   C4A 9387   7.349  19.743  12.915  0.1501 -0.0360  0.0861
  800DOPE   C1B 9388   6.152  19.838  13.630 -0.0680 -0.0559 -0.0169
  800DOPE   D2B 9389   6.017  19.457  13.857 -0.2421 -0.2357  0.1119
  800DOPE   C3B 9390   6.118  19.447  14.272 -0.0963  0.0407  0.2674
  800DOPE   C4B 9391   6.143  19.123  14.654  0.0736 -0.1067  0.0507
  801POSM   NC3 9392  33.721  13.431  13.155  0.3684  0.1628 -0.0979
  801POSM   PO4 9393  33.857  13.722  13.439  0.0270  0.0472  0.0012
  801POSM   AM1 9394  34.005  13.655  13.716 -0.1125  0.1145 -0.2397
  801POSM   AM2 9395  33.908  13.575  13.990 -0.0308 -0.0539 -0.2571
  801POSM   T1A 9396  34.272  13.338  13.950 -0.1343  0.0246  0.3723
  801POSM   C2A 9397  34.366  12.889  13.807  0.0919  0.0116 -0.1730
  801POSM   C3A 9398  34.743  12.647  13.670 -0.1121 -0.5423  0.1987
  801POSM   C1B 9399  33.868  13.383  14.252  0.2332 -0.0395  0.0582
  801POSM   D2B 9400  33.681  13.063  14.503  0.0409  0.3486  0.1785
  801POSM   C3B 9401  33.390  12.813  14.818 -0.1598 -0.3618 -0.0416
  801POSM   C4B 9402  33.162  13.184  15.016 -0.0016  0.0574 -0.2258
  802POSM   NC3 9403   1.117  23.972  12.870 -0.0641  0.3018  0.0868
  802POSM   PO4 9404   1.209  23.602  12.922 -0.1050  0.3364 -0.0920
  802POSM   AM1 9405   1.178  23.453  13.211  0.1404  0.1448  0.0744
  802POSM   AM2 9406   0.969  23.342  13.380  0.0349  0.0698 -0.0579
  802POSM   T1A 9407   1.307  23.044  13.464  0.2939 -0.0436 -0.1794
  802POSM   C2A 9408   1.358  22.546  13.489 -0.2074 -0.1806  0.0534
  802POSM   C3A 9409   1.290  22.129  13.369  0.0979  0.1114  0.2427
  802POSM   C1B 9410   0.873  23.286  13.719 -0.1468  0.0599 -0.2462
  802POSM   D2B 9411   0.874  23.540  14.125  0.0940 -0.1682 -0.1082
  802POSM   C3B 9412   0.937  23.759  14.511 -0.1831  0.1165 -0.0123
  802POSM   C4B 9413   0.702  24.201  14.564  0.0055 -0.4025 -0.0839
  803DOPC   NC3 9414   2.848  18.500  12.679  0.4034  0.0667  0.1604
  803DOPC   PO4 9415   3.243  18.615  12.785 -0.2027  0.0304  0.2174
  803DOPC   GL1 9416   3.641  18.705  12.908  0.0830  0.1185  0.1900
  803DOPC   GL2 9417   3.765  18.899  12.754 -0.0063  0.3287  0.0815
  803DOPC   C1A 9418   3.828  18.953  13.246 -0.0653  0.1794  0.1580
  803DOPC   D2A 9419   4.134  19.258  13.437 -0.2094  0.0322  0.1960
  803DOPC   C3A 9420   4.302  19.539  13.778 -0.2585  0.0732  0.0281
  803DOPC   C4A 9421   4.587  19.523  14.134 -0.0242 -0.1359  0.1071
  803DOPC   C1B 9422   3.991  19.319  12.910  0.1615  0.4029 -0.2883
  803DOPC   D2B 9423   4.037  19.691  13.115  0.0844 -0.1668 -0.0183
  803DOPC   C3B 9424   4.035  19.850  13.545 -0.2547 -0.0176  0.3061
  803DOPC   C4B 9425   3.814  20.094  13.842  0.0739  0.0226  0.0690
  804POSM   NC3 9426   0.063  19.283  12.995 -0.1871  0.3293  0.2882
  804POSM   PO4 9427   0.414  19.068  13.013 -0.2812  0.2133 -0.2667
  804POSM   AM1 9428   0.229  18.945  13.240  0.2922  0.2154 -0.2695
  804POSM   AM2 9429   0.028  19.009  13.411 -0.2032  0.0666 -0.2660
  804POSM   T1A 9430   0.064  18.500  13.345 -0.0822  0.2004  0.0874
  804POSM   C2A 9431  -0.067  18.224  13.641 -0.0907 -0.3905 -0.4054
  804POSM   C3A 9432  -0.150  17.921  13.974  0.3889  0.1785  0.1548
  804POSM   C1B 9433   0.040  19.007  13.739 -0.2014 -0.1665  0.2479
  804POSM   D2B 9434  -0.121  19.228  14.147  0.0196 -0.0345  0.1206
  804POSM   C3B 9435  -0.522  18.998  14.103  0.0438 -0.1362  0.3619
  804POSM   C4B 9436  -0.757  18.668  13.880 -0.4895  0.0850  0.2419
  805DOPE   NH3 9437   3.227  12.975  13.359  0.0418 -0.2576  0.0738
  805DOPE   PO4 9438   2.987  13.077  13.538 -0.0462  0.1849 -0.1511
  805DOPE   GL1 9439   3.290  13.300  13.714 -0.1140 -0.2004 -0.2149
  805DOPE   GL2 9440   3.261  13.520  13.530  0.1221 -0.3424 -0.4462
  805DOPE   C1A 9441   3.414  13.642  13.978 -0.0084  0.0626 -0.2323
  805DOPE   D2A 9442   3.470  14.064  13.871 -0.0091  0.2581  0.1258
  805DOPE   C3A 9443   3.682  14.318  14.115 -0.1046  0.0611  0.1768
  805DOPE   C4A 9444   3.724  14.659  14.395 -0.0729 -0.1027 -0.0310
  805DOPE   C1B 9445   3.369  13.777  13.178 -0.3725 -0.2983 -0.0232
  805DOPE   D2B 9446   3.399  14.238  13.200 -0.1645  0.1314 -0.3013
  805DOPE   C3B 9447   3.676  14.442  13.491  0.1969 -0.1514 -0.0683
  805DOPE   C4B 9448   3.997  14.343  13.725 -0.1926 -0.3027 -0.0618
  806DOPS   CNO 9449   1.678  16.575  13.257  0.0065  0.0977  0.2424
  806DOPS   PO4 9450   1.704  16.754  13.609  0.1309  0.3393  0.2825
  806DOPS   GL1 9451   1.893  16.597  13.794  0.1435 -0.0118 -0.2799
  806DOPS   GL2 9452   1.761  16.466  14.004  0.2114 -0.0515 -0.1659
  806DOPS   C1A 9453   2.205  16.463  14.106 -0.0500 -0.2951 -0.0608
  806DOPS   D2A 9454   2.215  16.223  14.473  0.0208 -0.3151 -0.0635
  806DOPS   C3A 9455   2.011  15.889  14.368 -0.1326 -0.1930  0.1583
  806DOPS   C4A 9456   1.792  15.493  14.158 -0.1540 -0.2408  0.2104
  806DOPS   C1B 9457   1.843  16.569  14.450  0.1267 -0.0785  0.1101
  806DOPS   D2B 9458   2.111  16.673  14.810  0.0342  0.0363 -0.1237
  806DOPS   C3B 9459   1.984  17.092  15.044  0.1191 -0.3121 -0.0277
  806DOPS   C4B 9460   1.797  17.487  14.967 -0.2145  0.2278  0.2169
  807DOPC   NC3 9461   1.440  18.146  12.914 -0.1969 -0.0159  0.0300
  807DOPC   PO4 9462   1.766  18.176  13.196  0.0922 -0.3270 -0.0160
  807DOPC   GL1 9463   1.688  18.290  13.631  0.1530  0.1444 -0.0064
  807DOPC   GL2 9464   1.950  18.131  13.720  0.3276 -0.1294 -0.0653
  807DOPC   C1A 9465   1.803  18.438  14.052 -0.0740  0.0763 -0.3532
  807DOPC   D2A 9466   2.075  18.574  14.363  0.1859  0.0891  0.1887
  807DOPC   C3A 9467   2.563  18.650  14.432  0.1722 -0.2264  0.1048
  807DOPC   C4A 9468   2.886  18.790  14.758 -0.2626  0.2337 -0.1446
  807DOPC   C1B 9469   2.266  18.158  14.016 -0.1877  0.0619 -0.0982
  807DOPC   D2B 9470   2.485  18.159  14.373  0.3121 -0.2178 -0.0021
  807DOPC   C3B 9471   2.323  18.318  14.767 -0.4295 -0.1174  0.1525
  807DOPC   C4B 9472   2.083  18.438  15.149  0.2084  0.0434  0.1868
  808DOPC   NC3 9473   6.860  20.937  12.748 -0.0836 -0.1216 -0.2315
  808DOPC   PO4 9474   7.159  21.025  12.494 -0.1256 -0.2856  0.1209
  808DOPC   GL1 9475   7.342  21.069  12.857 -0.1420 -0.1520 -0.0096
  808DOPC   GL2 9476   7.222  20.827  13.123  0.2650  0.0212 -0.2941
  808DOPC   C1A 9477   7.807  20.988  12.944  0.1306  0.1803 -0.2187
  808DOPC   D2A 9478   8.176  20.902  13.221 -0.0552  0.0616  0.2662
  808DOPC   C3A 9479   8.597  20.712  13.282  0.1701  0.0312 -0.1791
  808DOPC   C4A 9480   9.035  20.572  13.450  0.3914 -0.1423 -0.2133
  808DOPC   C1B 9481   7.289  20.647  13.551 -0.1232  0.2530 -0.2071
  808DOPC   D2B 9482   7.556  20.416  13.807 -0.1256  0.0517  0.2324
  808DOPC   C3B 9483   7.965  20.228  13.609 -0.2144  0.1043  0.0391
  808DOPC   C4B 9484   8.292  20.215  13.309 -0.2620  0.3137 -0.2173
  809DOPC   NC3 9485   1.489  15.338  13.611 -0.0133  0.0316  0.1166
  809DOPC   PO4 9486   1.548  15.735  13.627  0.0739 -0.0417  0.1215
  809DOPC   GL1 9487   1.338  15.875  13.990  0.2401 -0.0537  0.3006
  809DOPC   GL2 9488   1.393  16.160  13.942 -0.2737 -0.0725  0.1451
  809DOPC   C1A 9489   1.542  15.965  14.420 -0.2680 -0.0678 -0.1322
  809DOPC   D2A 9490   1.813  16.070  14.812 -0.1631  0.1944 -0.2456
  809DOPC   C3A 9491   2.156  15.779  14.892 -0.0404 -0.0631  0.1661
  809DOPC   C4A 9492   2.601  15.684  14.824  0.2181 -0.0834  0.0066
  809DOPC   C1B 9493   1.259  16.348  14.374 -0.1911  0.0003  0.1305
  809DOPC   D2B 9494   0.977  16.639  14.563 -0.0870  0.0356 -0.2402
  809DOPC   C3B 9495   0.616  16.738  14.354 -0.0131  0.1408 -0.1787
  809DOPC   C4B 9496   0.185  16.821  14.134  0.4944  0.2050  0.0088
  810DOPS   CNO 9497   5.153  20.768  12.748 -0.4149 -0.1599 -0.2216
  810DOPS   PO4 9498   5.408  20.946  13.025  0.3585 -0.0292  0.3156
  810DOPS   GL1 9499   5.400  20.834  13.458 -0.1590  0.0270 -0.1092
  810DOPS   GL2 9500   5.575  20.981  13.593  0.1383  0.0109 -0.0438
  810DOPS   C1A 9501   5.048  20.812  13.831 -0.0311 -0.1398 -0.1230
  810DOPS   D2A 9502   5.037  20.742  14.317  0.2065 -0.0587 -0.1494
  810DOPS   C3A 9503   5.460  20.410  14.449  0.0097  0.0548  0.0899
  810DOPS   C4A 9504   5.848  20.183  14.504  0.0258 -0.4387 -0.0172
  810DOPS   C1B 9505   5.505  20.912  14.056  0.0397 -0.0444  0.1706
  810DOPS   D2B 9506   5.682  21.038  14.478  0.0643 -0.0330 -0.3606
  810DOPS   C3B 9507   5.918  21.007  14.870 -0.0952  0.0338  0.0711
  810DOPS   C4B 9508   6.259  20.744  15.140 -0.1858  0.2653  0.1310
  811POSM   NC3 9509   0.544  12.027  13.187  0.4193  0.0634  0.5162
  811POSM   PO4 9510   0.331  11.774  13.417  0.0561 -0.1630  0.3139
  811POSM   AM1 9511   0.663  11.752  13.504 -0.1158 -0.2688  0.0983
  811POSM   AM2 9512   0.775  11.811  13.751  0.1058 -0.0011 -0.0467
  811POSM   T1A 9513   1.079  11.972  13.430  0.0379  0.0462 -0.2024
  811POSM   C2A 9514   1.493  12.034  13.431  0.0564 -0.1248 -0.1604
  811POSM   C3A 9515   1.915  11.827  13.314  0.3236 -0.1750 -0.1976
  811POSM   C1B 9516   0.806  12.050  13.926 -0.2493  0.3006 -0.0367
  811POSM   D2B 9517   0.907  12.346  14.253  0.1112 -0.0770 -0.1353
  811POSM   C3B 9518   0.868  12.401  14.706  0.0104 -0.0603 -0.0390
  811POSM   C4B 9519   1.087  12.393  15.147  0.0212 -0.2269  0.2587
  812POSM   NC3 9520   5.926  22.246  13.191 -0.0454 -0.0366 -0.0709
  812POSM   PO4 9521   5.742  22.509  13.392 -0.1733  0.1532 -0.2525
  812POSM   AM1 9522   5.845  22.275  13.629  0.2061 -0.1143 -0.1805
  812POSM   AM2 9523   5.987  22.110  13.748 -0.3125  0.3742  0.0366
  812POSM   T1A 9524   5.572  22.015  13.985  0.1641 -0.2017  0.1169
  812POSM   C2A 9525   5.350  22.098  14.362  0.1286 -0.0436 -0.2078
  812POSM   C3A 9526   5.113  21.828  14.711 -0.1037 -0.2913  0.2802
  812POSM   C1B 9527   6.263  22.156  13.999 -0.0388 -0.1062  0.3196
  812POSM   D2B 9528   6.392  22.354  14.369 -0.1560 -0.0609  0.0101
  812POSM   C3B 9529   6.168  22.712  14.456  0.0141  0.1721  0.0911
  812POSM   C4B 9530   6.160  23.147  14.577 -0.2438  0.2570 -0.0711
  813DOPE   NH3 9531  33.734  17.606  13.306  0.0743 -0.0246  0.4888
  813DOPE   PO4 9532  33.563  17.811  13.473 -0.2311 -0.3998  0.1677
  813DOPE   GL1 9533  33.612  17.517  13.810 -0.0078  0.1095 -0.3652
  813DOPE   GL2 9534  33.885  17.357  13.827  0.0404  0.0609 -0.1974
  813DOPE   C1A 9535  33.783  17.510  14.274 -0.2071 -0.3069  0.2191
  813DOPE   D2A 9536  34.042  17.199  14.463  0.0082  0.1318  0.1865
  813DOPE   C3A 9537  34.388  17.009  14.205  0.1281  0.0216 -0.1768
  813DOPE   C4A 9538  34.370  16.673  13.960  0.1865 -0.0618  0.1160
  813DOPE   C1B 9539  34.069  17.037  13.655 -0.1863  0.0336 -0.1547
  813DOPE   D2B 9540  33.962  16.681  13.457  0.0031  0.3029  0.0839
  813DOPE   C3B 9541  34.157  16.282  13.238  0.2474  0.0711  0.0027
  813DOPE   C4B 9542  34.360  15.815  13.256 -0.1306  0.2170 -0.0966
  814DOPC   NC3 9543   5.081  10.983  13.232  0.0118  0.1849 -0.1443
  814DOPC   PO4 9544   5.265  11.304  13.188  0.0132  0.1036 -0.3912
  814DOPC   GL1 9545   4.944  11.313  13.497 -0.1272 -0.2968  0.1678
  814DOPC   GL2 9546   4.685  11.135  13.508 -0.1021  0.3141  0.3862
  814DOPC   C1A 9547   4.704  11.607  13.822 -0.1214 -0.1346 -0.2983
  814DOPC   D2A 9548   4.676  11.764  14.269  0.2031  0.1413  0.1444
  814DOPC   C3A 9549   4.672  11.813  14.720  0.0429  0.1072 -0.0815
  814DOPC   C4A 9550   4.739  11.959  15.130 -0.1185  0.2366  0.0654
  814DOPC   C1B 9551   4.465  10.876  13.796 -0.1039  0.1230 -0.0871
  814DOPC   D2B 9552   4.384  10.786  14.259 -0.1017  0.0578 -0.1908
  814DOPC   C3B 9553   4.375  10.848  14.739  0.0132  0.1428  0.1983
  814DOPC   C4B 9554   4.449  10.829  15.257 -0.0803  0.1062 -0.1904
  815POSM   NC3 9555   9.860  15.561  11.581  0.0589  0.0785  0.0876
  815POSM   PO4 9556  10.156  15.370  11.830  0.2154  0.0274 -0.2452
  815POSM   AM1 9557  10.134  15.223  12.112  0.0713 -0.1471  0.2466
  815POSM   AM2 9558  10.325  15.016  12.297 -0.0985  0.1597  0.0467
  815POSM   T1A 9559   9.851  14.953  12.422 -0.0354  0.2077 -0.0350
  815POSM   C2A 9560   9.515  14.788  12.721 -0.3174  0.2587  0.0969
  815POSM   C3A 9561   9.171  14.613  12.529 -0.2942  0.5005  0.1100
  815POSM   C1B 9562  10.458  15.069  12.615 -0.0342 -0.1272 -0.0707
  815POSM   D2B 9563  10.616  14.799  12.971  0.0894  0.2618 -0.0912
  815POSM   C3B 9564  10.336  14.426  13.100  0.1477  0.1075  0.0017
  815POSM   C4B 9565  10.014  14.186  12.923 -0.0058 -0.0865  0.1643
  816POSM   NC3 9566   4.940  20.211  13.103 -0.1210  0.3614  0.1455
  816POSM   PO4 9567   5.293  19.907  13.104  0.2028  0.1089 -0.0815
  816POSM   AM1 9568   5.220  19.722  13.391 -0.1628 -0.1246  0.2054
  816POSM   AM2 9569   5.194  19.811  13.683  0.0660  0.2346  0.0540
  816POSM   T1A 9570   5.240  19.219  13.564 -0.2772  0.0847 -0.0929
  816POSM   C2A 9571   5.153  18.759  13.610  0.2370  0.0508  0.1385
  816POSM   C3A 9572   5.051  18.406  13.920  0.0156 -0.2256 -0.5990
  816POSM   C1B 9573   5.024  19.572  13.838  0.0130 -0.1060  0.3808
  816POSM   D2B 9574   4.918  19.198  14.095 -0.0856  0.1244 -0.2576
  816POSM   C3B 9575   4.550  19.094  14.359  0.1156 -0.0458 -0.0343
  816POSM   C4B 9576   4.432  18.732  14.643  0.2554  0.0040  0.0642
  817DOPC   NC3 9577   2.841  31.756  15.518 -0.0214  0.3513 -0.1555
  817DOPC   PO4 9578   2.489  31.834  15.485 -0.0257 -0.0254 -0.2363
  817DOPC   GL1 9579   2.522  31.968  15.148 -0.2707  0.1366 -0.0814
  817DOPC   GL2 9580   2.310  31.782  15.039  0.1630  0.1836 -0.0262
  817DOPC   C1A 9581   2.576  32.269  14.732 -0.1347 -0.5179 -0.3277
  817DOPC   D2A 9582   2.684  32.164  14.302 -0.0352  0.0941 -0.2116
  817DOPC   C3A 9583   2.476  32.015  13.918  0.0630  0.0902 -0.1151
  817DOPC   C4A 9584   2.627  32.002  13.484  0.0286 -0.2263 -0.0319
  817DOPC   C1B 9585   2.202  31.937  14.632  0.2217  0.1625 -0.1002
  817DOPC   D2B 9586   2.078  32.169  14.207  0.2259 -0.0322 -0.2869
  817DOPC   C3B 9587   1.977  32.508  13.974  0.1442 -0.0062  0.3526
  817DOPC   C4B 9588   2.144  32.949  14.066  0.3023  0.3646 -0.0712
  818DOPC   NC3 9589   9.124  25.859  15.501 -0.1892 -0.0518 -0.1051
  818DOPC   PO4 9590   9.464  25.910  15.324 -0.0116  0.1877  0.2618
  818DOPC   GL1 9591   9.405  26.090  14.913  0.1697  0.1317  0.4718
  818DOPC   GL2 9592   9.371  25.844  14.786 -0.0323 -0.1243  0.0996
  818DOPC   C1A 9593   9.152  26.407  14.617 -0.1099 -0.0945 -0.2010
  818DOPC   D2A 9594   9.161  26.506  14.185  0.2346  0.0319  0.2921
  818DOPC   C3A 9595   8.869  26.171  13.992  0.0703  0.0601  0.2233
  818DOPC   C4A 9596   8.653  25.822  13.761  0.0328  0.1787 -0.1079
  818DOPC   C1B 9597   9.770  25.865  14.556 -0.1217 -0.1508 -0.0975
  818DOPC   D2B 9598  10.013  26.179  14.232  0.2332  0.1934  0.0768
  818DOPC   C3B 9599   9.918  26.351  13.794 -0.2755  0.1138  0.1831
  818DOPC   C4B 9600   9.567  26.429  13.500 -0.2409 -0.1512 -0.1366
  819DOPE   NH3 9601   8.822  32.347  14.156  0.0840 -0.0477  0.2876
  819DOPE   PO4 9602   8.719  32.468  13.866 -0.2462 -0.1598 -0.0623
  819DOPE   GL1 9603   9.025  32.335  13.657 -0.1568  0.3328 -0.0669
  819DOPE   GL2 9604   8.845  32.205  13.456 -0.0261 -0.2523  0.2114
  819DOPE   C1A 9605   9.323  31.989  13.507 -0.2184 -0.1296 -0.1628
  819DOPE   D2A 9606   9.419  31.803  13.059  0.2068  0.0783  0.0907
  819DOPE   C3A 9607   9.815  31.557  13.053 -0.2507  0.0113  0.1530
  819DOPE   C4A 9608  10.223  31.388  12.943 -0.0629 -0.2447  0.0427
  819DOPE   C1B 9609   9.056  32.115  13.081  0.0697  0.1334  0.0280
  819DOPE   D2B 9610   9.182  32.069  12.577 -0.5145 -0.0793 -0.1173
  819DOPE   C3B 9611   9.039  32.062  12.154 -0.3886 -0.0619  0.1534
  819DOPE   C4B 9612   8.859  32.263  11.746 -0.0128 -0.3238 -0.1683
  820DOPE   NH3 9613   1.289  32.588  16.337  0.2217 -0.0570  0.0629
  820DOPE   PO4 9614   1.451  32.501  16.050 -0.0086  0.0297 -0.1624
  820DOPE   GL1 9615   1.570  32.605  15.690 -0.4105 -0.2231 -0.2404
  820DOPE   GL2 9616   1.476  32.435  15.475 -0.3183 -0.0292  0.1339
  820DOPE   C1A 9617   1.704  32.929  15.354 -0.2275  0.0085  0.0775
  820DOPE   D2A 9618   1.671  33.285  15.042  0.3914 -0.0168 -0.0088
  820DOPE   C3A 9619   1.466  33.219  14.646 -0.1803  0.2355 -0.0141
  820DOPE   C4A 9620   1.223  32.995  14.314  0.6758  0.2191  0.2019
  820DOPE   C1B 9621   1.144  32.450  15.190 -0.0610 -0.0493  0.3710
  820DOPE   D2B 9622   1.005  32.301  14.741  0.1086  0.2814  0.4458
  820DOPE   C3B 9623   1.213  32.480  14.393  0.0400  0.0809  0.1946
  820DOPE   C4B 9624   1.504  32.357  14.083  0.0859  0.0875 -0.2147
  821DOPC   NC3 9625   9.140  33.954  14.451  0.2827  0.0331  0.1357
  821DOPC   PO4 9626   9.456  33.968  14.226 -0.2444  0.0809 -0.2152
  821DOPC   GL1 9627   9.281  33.984  13.897  0.2055 -0.2061 -0.3010
  821DOPC   GL2 9628   9.360  34.175  13.765  0.2054 -0.0092 -0.0385
  821DOPC   C1A 9629   9.427  33.787  13.514 -0.5135  0.0457  0.0374
  821DOPC   D2A 9630   9.657  33.910  13.116 -0.1201 -0.0423 -0.3141
  821DOPC   C3A 9631   9.897  33.826  12.765 -0.0227 -0.0657  0.1188
  821DOPC   C4A 9632  10.353  33.677  12.724 -0.3734  0.0132  0.1444
  821DOPC   C1B 9633   9.235  34.246  13.306 -0.1156  0.1975 -0.4084
  821DOPC   D2B 9634   9.197  34.181  12.873 -0.1794  0.0873 -0.0872
  821DOPC   C3B 9635   8.814  34.287  12.576 -0.1579  0.3408 -0.1217
  821DOPC   C4B 9636   8.662  34.238  12.095  0.1079  0.2970 -0.1038
  822DOPC   NC3 9637  10.302  31.685  14.187 -0.1803  0.1940 -0.0586
  822DOPC   PO4 9638  10.560  31.961  14.195  0.1516 -0.0596 -0.1796
  822DOPC   GL1 9639  10.522  31.966  13.785  0.3647  0.1833  0.0399
  822DOPC   GL2 9640  10.495  32.183  13.551 -0.0891  0.2791  0.1827
  822DOPC   C1A 9641  10.885  31.971  13.421 -0.0831 -0.0059 -0.1814
  822DOPC   D2A 9642  11.203  32.000  13.038 -0.0272 -0.2205 -0.1709
  822DOPC   C3A 9643  11.408  32.377  12.894  0.0690 -0.1724 -0.2163
  822DOPC   C4A 9644  11.540  32.782  12.722  0.1916 -0.2610  0.1378
  822DOPC   C1B 9645  10.199  32.445  13.326 -0.2425 -0.1355  0.1643
  822DOPC   D2B 9646  10.089  32.419  12.849 -0.1716 -0.0513 -0.1055
  822DOPC   C3B 9647  10.514  32.393  12.663 -0.0466  0.2015  0.0796
  822DOPC   C4B 9648  10.855  32.167  12.532 -0.0478  0.3380  0.3829
  823POSM   NC3 9649   4.269  26.185  15.803 -0.0945 -0.0797 -0.1905
  823POSM   PO4 9650   4.164  26.298  16.172 -0.3231  0.1980  0.0029
  823POSM   AM1 9651   3.958  26.499  16.012 -0.2638  0.3121  0.2434
  823POSM   AM2 9652   3.814  26.434  15.836  0.0157  0.2569 -0.0942
  823POSM   T1A 9653   3.746  26.923  15.779  0.1857  0.1759  0.2278
  823POSM   C2A 9654   3.438  26.988  15.482 -0.5580  0.0462 -0.1509
  823POSM   C3A 9655   3.074  27.250  15.532  0.0281 -0.0735 -0.1114
  823POSM   C1B 9656   3.758  26.482  15.535 -0.2148 -0.2984 -0.5199
  823POSM   D2B 9657   3.681  26.619  15.077  0.0078 -0.0963  0.2120
  823POSM   C3B 9658   3.958  26.403  14.789  0.3222 -0.0324  0.1282
  823POSM   C4B 9659   4.269  26.124  14.608 -0.0357 -0.0786 -0.0125
  824DOPS   CNO 9660   7.461  32.307  14.225 -0.3618 -0.1055  0.0072
  824DOPS   PO4 9661   7.812  32.199  14.153 -0.0642  0.1632  0.0256
  824DOPS   GL1 9662   7.811  32.415  13.865 -0.0469  0.6262  0.0851
  824DOPS   GL2 9663   7.719  32.171  13.675  0.2931 -0.0217 -0.3452
  824DOPS   C1A 9664   8.096  32.434  13.496 -0.0973  0.0662  0.2425
  824DOPS   D2A 9665   8.098  32.482  12.984 -0.0245 -0.3037  0.1703
  824DOPS   C3A 9666   7.834  32.256  12.677  0.0263 -0.3323  0.0559
  824DOPS   C4A 9667   7.731  31.955  12.328 -0.3825 -0.0107 -0.2460
  824DOPS   C1B 9668   7.626  32.463  13.306 -0.0441  0.1178 -0.0163
  824DOPS   D2B 9669   7.542  32.856  13.064  0.0142 -0.1889  0.1684
  824DOPS   C3B 9670   7.693  32.896  12.668  0.0229 -0.2364  0.1358
  824DOPS   C4B 9671   8.075  32.824  12.397  0.1862  0.0002 -0.3291
  825DOPC   NC3 9672   5.724  26.497  16.202  0.4144 -0.1549 -0.0919
  825DOPC   PO4 9673   6.124  26.451  16.176  0.1153 -0.0507 -0.2280
  825DOPC   GL1 9674   6.004  26.207  15.785 -0.2026 -0.0503 -0.2321
  825DOPC   GL2 9675   6.248  26.048  15.738  0.3195 -0.1204 -0.0293
  825DOPC   C1A 9676   6.019  26.068  15.287 -0.0341 -0.2876 -0.1499
  825DOPC   D2A 9677   5.914  26.186  14.864  0.0057  0.2012 -0.1734
  825DOPC   C3A 9678   5.973  25.773  14.688 -0.2133  0.2079 -0.3676
  825DOPC   C4A 9679   6.088  25.423  14.435 -0.0295 -0.2528  0.0487
  825DOPC   C1B 9680   5.896  25.729  15.640  0.2355 -0.0894  0.0301
  825DOPC   D2B 9681   5.481  25.644  15.585  0.1683  0.0907  0.1350
  825DOPC   C3B 9682   5.171  25.528  15.295 -0.1475 -0.0539 -0.3742
  825DOPC   C4B 9683   4.945  25.495  14.884  0.0155  0.1120 -0.3176
  826DOPE   NH3 9684   2.873  29.069  16.073 -0.1146  0.1116 -0.2346
  826DOPE   PO4 9685   2.973  29.371  15.958 -0.1346  0.2097  0.0294
  826DOPE   GL1 9686   3.021  29.203  15.602  0.0419 -0.1328  0.0169
  826DOPE   GL2 9687   3.227  28.998  15.629 -0.1243  0.2804  0.0289
  826DOPE   C1A 9688   2.895  29.033  15.132  0.1878  0.0021 -0.0994
  826DOPE   D2A 9689   2.730  28.684  14.785 -0.3403 -0.0833  0.3968
  826DOPE   C3A 9690   2.602  28.265  14.883  0.1926 -0.0411 -0.1192
  826DOPE   C4A 9691   2.211  28.043  15.133  0.1798 -0.0265 -0.0340
  826DOPE   C1B 9692   3.405  28.787  15.283 -0.0915 -0.0007 -0.0422
  826DOPE   D2B 9693   3.859  28.553  15.401 -0.0885 -0.0873  0.4546
  826DOPE   C3B 9694   3.576  28.388  15.056  0.0239  0.2545  0.0958
  826DOPE   C4B 9695   3.727  28.231  14.648  0.0647 -0.3467 -0.8484
  827POSM   NC3 9696   8.229  32.091  13.860 -0.2330 -0.1870  0.0819
  827POSM   PO4 9697   8.632  31.975  13.855  0.1607 -0.1877  0.1851
  827POSM   AM1 9698   8.505  31.841  13.602 -0.2321  0.0164  0.1720
  827POSM   AM2 9699   8.421  31.958  13.369 -0.0202  0.0422  0.1004
  827POSM   T1A 9700   8.377  31.468  13.291 -0.1961  0.1123 -0.3899
  827POSM   C2A 9701   8.323  31.056  13.044  0.0500 -0.0348 -0.2173
  827POSM   C3A 9702   8.468  30.740  12.679 -0.0168  0.0285 -0.1251
  827POSM   C1B 9703   8.092  32.003  13.250  0.1934  0.1058  0.1303
  827POSM   D2B 9704   7.730  31.848  12.971 -0.2058  0.0684  0.1915
  827POSM   C3B 9705   7.382  32.143  12.850  0.1376 -0.2887  0.0875
  827POSM   C4B 9706   7.280  32.560  12.758 -0.2295  0.0472 -0.2996
  828DOPS   CNO 9707   6.070  33.633  15.189  0.2629 -0.1160 -0.2058
  828DOPS   PO4 9708   6.056  33.448  14.878  0.1412 -0.0836  0.0523
  828DOPS   GL1 9709   5.949  33.424  14.475 -0.0649 -0.0615  0.0798
  828DOPS   GL2 9710   5.791  33.700  14.490  0.0722 -0.1418 -0.0156
  828DOPS   C1A 9711   5.592  33.349  14.155  0.0854  0.3695 -0.0176
  828DOPS   D2A 9712   5.425  33.620  13.859  0.1207 -0.1413  0.0265
  828DOPS   C3A 9713   5.551  33.813  13.454 -0.4050  0.2955 -0.2458
  828DOPS   C4A 9714   5.500  33.942  13.063  0.0492 -0.0395  0.0542
  828DOPS   C1B 9715   5.612  34.061  14.163  0.2207 -0.1302 -0.2499
  828DOPS   D2B 9716   5.663  34.241  13.758  0.1915  0.2146 -0.2392
  828DOPS   C3B 9717   5.301  34.221  13.471 -0.1937  0.0818  0.0940
  828DOPS   C4B 9718   5.109  34.223  12.994 -0.0041  0.1555 -0.1456
  829DOPC   NC3 9719  10.793  25.156  15.375 -0.2083  0.2084 -0.2233
  829DOPC   PO4 9720  10.504  25.450  15.373 -0.0221 -0.0228 -0.4608
  829DOPC   GL1 9721  10.386  25.517  14.968  0.2079  0.1282 -0.0408
  829DOPC   GL2 9722  10.131  25.555  14.809  0.0421  0.0754 -0.2779
  829DOPC   C1A 9723  10.527  25.470  14.535 -0.2530 -0.0165  0.2991
  829DOPC   D2A 9724  10.857  25.323  14.245 -0.2842  0.1636 -0.3325
  829DOPC   C3A 9725  11.020  24.953  14.084 -0.2471  0.1070  0.1122
  829DOPC   C4A 9726  10.948  24.533  14.074  0.2290 -0.1783  0.1873
  829DOPC   C1B 9727   9.940  25.084  14.759  0.0297 -0.0989  0.0096
  829DOPC   D2B 9728   9.728  24.887  14.368 -0.0243  0.2475 -0.0778
  829DOPC   C3B 9729   9.872  24.984  13.943  0.2032 -0.1204 -0.0629
  829DOPC   C4B 9730   9.695  25.237  13.589 -0.0312 -0.0268  0.7248
  830DOPE   NH3 9731   6.191  28.111  15.806 -0.2106  0.0963 -0.1033
  830DOPE   PO4 9732   6.259  27.944  16.099  0.0138  0.0621  0.1005
  830DOPE   GL1 9733   6.185  27.637  15.766 -0.2016  0.3105  0.2429
  830DOPE   GL2 9734   6.082  27.752  15.497  0.2359 -0.1278 -0.0781
  830DOPE   C1A 9735   6.459  27.338  15.519  0.0694 -0.1453  0.3140
  830DOPE   D2A 9736   6.479  26.906  15.275 -0.1863 -0.2748 -0.0351
  830DOPE   C3A 9737   6.503  26.995  14.778 -0.3487  0.0266 -0.2915
  830DOPE   C4A 9738   6.698  27.066  14.366 -0.1897 -0.0247 -0.1178
  830DOPE   C1B 9739   6.071  28.123  15.201  0.1293 -0.0122 -0.0629
  830DOPE   D2B 9740   5.908  28.415  14.878  0.2379  0.1553  0.0147
  830DOPE   C3B 9741   6.070  28.758  14.570 -0.0685 -0.2090  0.1017
  830DOPE   C4B 9742   6.018  29.053  14.252  0.0083 -0.0020 -0.1107
  831DOPE   NH3 9743   5.638  27.770  15.931  0.0820 -0.1962  0.1477
  831DOPE   PO4 9744   5.701  27.989  15.761 -0.1758 -0.1141 -0.1115
  831DOPE   GL1 9745   5.621  28.063  15.265 -0.1621 -0.0871 -0.0677
  831DOPE   GL2 9746   5.498  28.276  15.226 -0.4260 -0.0529 -0.1764
  831DOPE   C1A 9747   5.453  27.928  14.829 -0.2286 -0.1001 -0.2834
  831DOPE   D2A 9748   5.042  27.931  14.584  0.0820  0.1259  0.0994
  831DOPE   C3A 9749   5.239  27.972  14.133 -0.0072  0.0742  0.1945
  831DOPE   C4A 9750   5.290  28.215  13.732 -0.0406 -0.1009  0.1583
  831DOPE   C1B 9751   5.089  28.138  15.045 -0.2435 -0.0397 -0.1791
  831DOPE   D2B 9752   4.745  28.381  14.929  0.2144 -0.1759  0.0620
  831DOPE   C3B 9753   4.848  28.423  14.471  0.1756 -0.0395  0.2581
  831DOPE   C4B 9754   5.174  28.504  14.163  0.0039 -0.0648 -0.2696
  832DOPC   NC3 9755   8.140  33.459  14.431 -0.3656 -0.0031  0.1418
  832DOPC   PO4 9756   8.132  33.097  14.436  0.0939  0.4267 -0.1273
  832DOPC   GL1 9757   8.288  33.168  14.081 -0.0490  0.0093 -0.0570
  832DOPC   GL2 9758   8.599  33.311  14.097  0.1492 -0.1961  0.1454
  832DOPC   C1A 9759   8.152  33.240  13.617  0.0963  0.1501  0.0437
  832DOPC   D2A 9760   7.762  33.364  13.336 -0.1237  0.1234 -0.0999
  832DOPC   C3A 9761   7.664  33.339  12.900  0.0310  0.4472  0.0479
  832DOPC   C4A 9762   7.259  33.352  12.631  0.3410 -0.1412  0.0179
  832DOPC   C1B 9763   8.691  33.451  13.653  0.1572  0.2687 -0.1055
  832DOPC   D2B 9764   8.931  33.728  13.389 -0.3330  0.0427 -0.4523
  832DOPC   C3B 9765   8.783  34.218  13.530  0.1795  0.2664 -0.1277
  832DOPC   C4B 9766   8.433  34.418  13.729 -0.3185 -0.1301 -0.2759
  833POSM   NC3 9767   9.227  29.963  15.063 -0.1650  0.0610 -0.0665
  833POSM   PO4 9768   9.459  29.666  15.110 -0.3473 -0.0774  0.2602
  833POSM   AM1 9769   9.359  29.601  14.789 -0.0226 -0.0157 -0.1170
  833POSM   AM2 9770   9.418  29.562  14.504 -0.0291  0.3909  0.1523
  833POSM   T1A 9771   8.975  29.453  14.429  0.5773  0.1584 -0.0602
  833POSM   C2A 9772   8.956  29.275  14.031 -0.1060 -0.0907 -0.3908
  833POSM   C3A 9773   8.939  29.134  13.628  0.3500  0.2662  0.0448
  833POSM   C1B 9774   9.412  29.485  14.180  0.0821  0.1332  0.0860
  833POSM   D2B 9775   9.456  29.303  13.726  0.2727  0.2118  0.1617
  833POSM   C3B 9776   9.371  28.851  13.576  0.2183 -0.3082 -0.0069
  833POSM   C4B 9777   9.251  28.481  13.679  0.1137 -0.0894 -0.1638
  834DOPE   NH3 9778   0.621  32.260  16.319  0.1393 -0.2883 -0.0141
  834DOPE   PO4 9779   0.902  32.330  16.201 -0.2323 -0.0558 -0.0594
  834DOPE   GL1 9780   1.001  32.655  15.954  0.3861  0.1843 -0.3421
  834DOPE   GL2 9781   1.041  32.915  16.069  0.1083 -0.0978 -0.1706
  834DOPE   C1A 9782   1.230  32.871  15.611  0.1157 -0.1552  0.3891
  834DOPE   D2A 9783   1.272  32.978  15.185 -0.2607 -0.2051 -0.0314
  834DOPE   C3A 9784   1.574  32.816  14.902 -0.0940  0.0039 -0.0217
  834DOPE   C4A 9785   1.720  32.707  14.420  0.2307 -0.1550  0.2621
  834DOPE   C1B 9786   0.821  33.110  15.740  0.2998  0.2786 -0.2061
  834DOPE   D2B 9787   0.408  33.278  15.728  0.0003  0.1350  0.0853
  834DOPE   C3B 9788   0.342  33.039  15.319 -0.0202  0.3154 -0.1631
  834DOPE   C4B 9789   0.056  33.107  14.961 -0.3047  0.0026 -0.2091
  835DOPS   CNO 9790   4.154  25.274  16.193  0.0067 -0.1643  0.0991
  835DOPS   PO4 9791   4.200  24.914  16.379 -0.0822 -0.1607  0.0305
  835DOPS   GL1 9792   4.161  24.720  16.042 -0.1458  0.5222 -0.1094
  835DOPS   GL2 9793   3.967  24.859  15.935  0.0342  0.3105  0.0433
  835DOPS   C1A 9794   4.450  24.493  15.775 -0.1351 -0.1148  0.4836
  835DOPS   D2A 9795   4.380  24.231  15.376 -0.0095  0.0283 -0.0097
  835DOPS   C3A 9796   4.465  24.482  14.986  0.0603  0.1500 -0.0724
  835DOPS   C4A 9797   4.391  24.866  14.660 -0.0349  0.0525 -0.1728
  835DOPS   C1B 9798   4.321  25.094  15.706  0.0963  0.1247  0.1458
  835DOPS   D2B 9799   4.779  25.171  15.713  0.0446  0.1275  0.0008
  835DOPS   C3B 9800   5.030  25.078  15.363  0.1712  0.0202  0.0236
  835DOPS   C4B 9801   5.102  24.696  15.058 -0.1630  0.0500  0.1563
  836POSM   NC3 9802   7.212  31.287  15.357  0.0769  0.2101  0.3460
  836POSM   PO4 9803   7.392  31.084  15.036  0.1321  0.3075  0.1123
  836POSM   AM1 9804   7.473  30.905  14.767  0.1586 -0.0579  0.1120
  836POSM   AM2 9805   7.471  31.023  14.524 -0.1119 -0.2245 -0.1203
  836POSM   T1A 9806   7.531  30.585  14.364 -0.1619  0.2807 -0.0537
  836POSM   C2A 9807   7.199  30.338  14.190  0.1468 -0.2429  0.0438
  836POSM   C3A 9808   6.783  30.222  13.987  0.2403 -0.2516  0.2361
  836POSM   C1B 9809   7.226  30.948  14.267 -0.0974 -0.1539  0.0758
  836POSM   D2B 9810   6.938  30.712  13.950 -0.0076  0.1811  0.0059
  836POSM   C3B 9811   6.841  30.871  13.518  0.3189 -0.2699 -0.3886
  836POSM   C4B 9812   6.502  31.173  13.579  0.1952 -0.1040  0.0024
  837POSM   NC3 9813   4.453  31.142  15.360  0.0209  0.0935 -0.0001
  837POSM   PO4 9814   4.778  31.333  15.477 -0.0424  0.0847 -0.0274
  837POSM   AM1 9815   4.887  31.167  15.205  0.0045 -0.1269 -0.0052
  837POSM   AM2 9816   5.009  30.926  15.093  0.1017 -0.0032 -0.1867
  837POSM   T1A 9817   4.887  31.263  14.730 -0.0258  0.1353 -0.2706
  837POSM   C2A 9818   4.744  31.522  14.370  0.1649  0.0768  0.2638
  837POSM   C3A 9819   4.448  31.421  14.029 -0.0947  0.0094  0.2797
  837POSM   C1B 9820   5.181  30.735  14.808 -0.1688  0.0979  0.0402
  837POSM   D2B 9821   5.153  30.760  14.338  0.2071  0.2701 -0.0901
  837POSM   C3B 9822   4.970  31.133  14.105  0.1259  0.1808  0.2862
  837POSM   C4B 9823   4.892  31.456  13.795 -0.1183 -0.0259 -0.2385
  838DOPC   NC3 9824   3.111  22.537  16.438 -0.2639  0.0849 -0.0374
  838DOPC   PO4 9825   3.212  22.869  16.607 -0.0462 -0.3273  0.3111
  838DOPC   GL1 9826   3.289  23.226  16.552 -0.3667 -0.1696 -0.0402
  838DOPC   GL2 9827   3.344  23.213  16.264  0.2143  0.2640  0.4964
  838DOPC   C1A 9828   3.076  23.648  16.474 -0.0681  0.1619 -0.0486
  838DOPC   D2A 9829   2.826  23.952  16.241  0.1804  0.3212 -0.0387
  838DOPC   C3A 9830   2.657  23.963  15.824 -0.1019  0.0741  0.1406
  838DOPC   C4A 9831   2.873  23.762  15.421  0.1997 -0.0687  0.0504
  838DOPC   C1B 9832   3.189  22.978  15.910  0.2305  0.1198 -0.4153
  838DOPC   D2B 9833   3.386  22.837  15.533  0.1108 -0.1748 -0.1548
  838DOPC   C3B 9834   3.083  22.922  15.243  0.1584  0.0263 -0.1647
  838DOPC   C4B 9835   2.942  23.319  15.170  0.1240 -0.1067 -0.0092
  839DOPS   CNO 9836   7.947  27.491  16.196  0.1461 -0.1656 -0.1044
  839DOPS   PO4 9837   7.803  27.377  15.841 -0.1880  0.0920  0.0733
  839DOPS   GL1 9838   7.844  27.091  15.476 -0.0766 -0.1127 -0.1268
  839DOPS   GL2 9839   8.109  27.277  15.436  0.2214  0.0986  0.0212
  839DOPS   C1A 9840   7.967  26.728  15.194  0.0818 -0.1827  0.2407
  839DOPS   D2A 9841   7.994  26.360  14.919  0.0114 -0.1385  0.0861
  839DOPS   C3A 9842   8.252  26.393  14.572 -0.1651 -0.1784  0.0041
  839DOPS   C4A 9843   8.173  26.273  14.162 -0.2934 -0.1625 -0.0045
  839DOPS   C1B 9844   7.853  27.502  15.087  0.0233 -0.2084 -0.0666
  839DOPS   D2B 9845   7.859  27.817  14.762  0.0829 -0.2193 -0.0532
  839DOPS   C3B 9846   7.804  27.765  14.330  0.0672  0.0181  0.1495
  839DOPS   C4B 9847   7.797  27.711  13.874 -0.3233 -0.0085  0.0061
  840DOPE   NH3 9848   9.437  32.245  14.090  0.1015 -0.0837  0.0124
  840DOPE   PO4 9849   9.310  32.558  14.050  0.0548 -0.3239  0.2086
  840DOPE   GL1 9850   9.292  32.669  13.624  0.3505 -0.0784  0.1341
  840DOPE   GL2 9851   9.025  32.800  13.573 -0.1493 -0.2284 -0.1161
  840DOPE   C1A 9852   9.435  32.976  13.276 -0.1966 -0.2543 -0.2251
  840DOPE   D2A 9853   9.639  33.410  13.102  0.1888 -0.0421  0.0923
  840DOPE   C3A 9854   9.262  33.655  12.907 -0.1190  0.2375  0.2034
  840DOPE   C4A 9855   8.859  33.732  12.689  0.0159  0.0596  0.0509
  840DOPE   C1B 9856   9.120  32.638  13.125 -0.1025 -0.0735  0.1690
  840DOPE   D2B 9857   9.123  32.545  12.674 -0.1882  0.0993 -0.1648
  840DOPE   C3B 9858   8.762  32.383  12.445 -0.2485  0.1894 -0.0410
  840DOPE   C4B 9859   8.515  32.311  12.103 -0.2749 -0.2196 -0.0335
  841POSM   NC3 9860   9.342  28.678  15.630 -0.0304  0.2652  0.1150
  841POSM   PO4 9861   9.651  28.756  15.414  0.2431 -0.0926 -0.1237
  841POSM   AM1 9862   9.773  28.782  15.130 -0.2342  0.0209  0.0447
  841POSM   AM2 9863   9.719  28.679  14.880 -0.1241 -0.2088  0.1830
  841POSM   T1A 9864  10.175  28.643  14.787  0.1170 -0.1334  0.4553
  841POSM   C2A 9865  10.376  28.702  14.433 -0.3650 -0.1133  0.0245
  841POSM   C3A 9866  10.562  29.128  14.258  0.1737  0.1496 -0.4019
  841POSM   C1B 9867   9.714  28.790  14.514 -0.0243 -0.1914 -0.2236
  841POSM   D2B 9868   9.659  29.032  14.150 -0.0691  0.0244  0.1623
  841POSM   C3B 9869   9.811  28.981  13.734  0.1505  0.3306  0.0074
  841POSM   C4B 9870  10.144  28.933  13.436 -0.1648  0.0567 -0.1246
  842POSM   NC3 9871  11.294  25.009  15.396  0.1417 -0.2089  0.1677
  842POSM   PO4 9872  11.137  24.971  15.019  0.0926 -0.1740 -0.1693
  842POSM   AM1 9873  11.254  25.116  14.706  0.3326 -0.5626 -0.0325
  842POSM   AM2 9874  11.297  25.441  14.629 -0.3941  0.0974 -0.0719
  842POSM   T1A 9875  11.488  25.137  14.236 -0.1208  0.3091 -0.0710
  842POSM   C2A 9876  11.405  25.340  13.789  0.1819  0.2411 -0.1800
  842POSM   C3A 9877  11.303  25.401  13.320 -0.1128 -0.1890 -0.0174
  842POSM   C1B 9878  11.258  25.579  14.317  0.0971 -0.0697 -0.1694
  842POSM   D2B 9879  11.111  25.711  13.857 -0.2460  0.0638  0.0724
  842POSM   C3B 9880  10.951  25.257  13.684  0.1120 -0.0834 -0.2336
  842POSM   C4B 9881  10.813  24.798  13.636 -0.0067 -0.1222  0.3806
  843DOPC   NC3 9882   1.916  32.285  15.942 -0.2800  0.2704  0.5195
  843DOPC   PO4 9883   2.023  32.259  15.613 -0.0470  0.2879 -0.1651
  843DOPC   GL1 9884   1.871  32.018  15.304 -0.0066  0.2314 -0.0921
  843DOPC   GL2 9885   2.039  32.207  15.080 -0.1630  0.0289  0.0187
  843DOPC   C1A 9886   1.740  31.691  15.016 -0.0059  0.2985  0.0910
  843DOPC   D2A 9887   1.538  31.419  14.741 -0.0963  0.2909 -0.2799
  843DOPC   C3A 9888   1.131  31.344  14.818 -0.0604 -0.1658 -0.2927
  843DOPC   C4A 9889   0.708  31.238  14.937  0.1747  0.1803 -0.0862
  843DOPC   C1B 9890   2.142  32.509  14.838  0.0850 -0.3784  0.1748
  843DOPC   D2B 9891   2.434  32.721  14.544 -0.3173  0.0461  0.5348
  843DOPC   C3B 9892   2.442  32.576  14.088 -0.1660 -0.0853  0.0368
  843DOPC   C4B 9893   2.662  32.433  13.749  0.2238 -0.0005 -0.1693
  844DOPC   NC3 9894   1.711  26.004  16.714  0.5312  0.0694  0.0387
  844DOPC   PO4 9895   1.550  26.340  16.650  0.1284 -0.2212  0.0704
  844DOPC   GL1 9896   1.217  26.510  16.393 -0.4031 -0.1587  0.4001
  844DOPC   GL2 9897   1.468  26.517  16.125 -0.2307  0.1840 -0.2261
  844DOPC   C1A 9898   0.969  26.479  16.004 -0.2138  0.2517  0.2249
  844DOPC   D2A 9899   1.122  26.472  15.550  0.0228 -0.0803  0.0595
  844DOPC   C3A 9900   1.065  26.294  15.120  0.1490 -0.2741 -0.2090
  844DOPC   C4A 9901   0.969  25.975  14.790 -0.1951 -0.2151  0.1249
  844DOPC   C1B 9902   1.579  26.313  15.750 -0.1440 -0.0056  0.0263
  844DOPC   D2B 9903   1.930  26.095  15.592  0.3251 -0.1372  0.3067
  844DOPC   C3B 9904   1.722  25.675  15.648 -0.1810  0.2949 -0.0641
  844DOPC   C4B 9905   1.464  25.509  15.320  0.0623 -0.1315  0.2873
  845POSM   NC3 9906   7.611  23.350  16.096  0.0388 -0.1585 -0.0645
  845POSM   PO4 9907   7.406  23.409  16.406  0.1288 -0.0745  0.2890
  845POSM   AM1 9908   7.105  23.419  16.233  0.0076 -0.1103  0.5110
  845POSM   AM2 9909   7.079  23.520  15.946  0.0069 -0.1489 -0.1710
  845POSM   T1A 9910   6.721  23.142  16.149 -0.3237  0.3409  0.1105
  845POSM   C2A 9911   6.748  22.763  15.878 -0.3667 -0.1916  0.0205
  845POSM   C3A 9912   6.550  22.337  15.771  0.1632 -0.0754  0.0359
  845POSM   C1B 9913   7.017  23.521  15.608  0.0641 -0.1370  0.1331
  845POSM   D2B 9914   6.778  23.443  15.191 -0.0201  0.1014 -0.0936
  845POSM   C3B 9915   6.585  23.038  15.072  0.1564  0.1366 -0.0731
  845POSM   C4B 9916   6.527  22.632  14.842  0.0325 -0.0937 -0.1745
  846POSM   NC3 9917  12.023  27.796  14.937 -0.2636 -0.3663 -0.0036
  846POSM   PO4 9918  11.654  27.867  14.855  0.1395 -0.0504  0.0221
  846POSM   AM1 9919  11.610  27.892  14.502 -0.3374  0.4846 -0.1087
  846POSM   AM2 9920  11.578  28.120  14.346 -0.1773  0.3322 -0.1541
  846POSM   T1A 9921  11.404  27.700  14.120 -0.1586 -0.0481  0.3729
  846POSM   C2A 9922  11.145  27.806  13.748  0.1405  0.0153 -0.1051
  846POSM   C3A 9923  11.048  28.068  13.385  0.3190 -0.2129 -0.0501
  846POSM   C1B 9924  11.705  28.096  14.062  0.0341 -0.1953  0.0439
  846POSM   D2B 9925  12.012  28.070  13.729 -0.1005  0.0644  0.0852
  846POSM   C3B 9926  12.319  28.181  13.396  0.0109 -0.2001  0.0045
  846POSM   C4B 9927  12.333  28.136  12.925 -0.0991 -0.1800  0.0383
  847DOPE   NH3 9928   9.874  33.092  14.296 -0.2573  0.0737 -0.0096
  847DOPE   PO4 9929  10.087  32.931  14.341 -0.0951  0.1995  0.0381
  847DOPE   GL1 9930  10.303  32.847  14.138 -0.0246 -0.3913  0.1691
  847DOPE   GL2 9931  10.178  32.767  13.887 -0.2630 -0.1713  0.0045
  847DOPE   C1A 9932  10.558  33.137  13.821 -0.1242 -0.2222  0.1814
  847DOPE   D2A 9933  10.585  33.300  13.381  0.3015  0.0833  0.2561
  847DOPE   C3A 9934  10.338  33.284  13.045  0.1220  0.2425  0.0564
  847DOPE   C4A 9935   9.962  33.272  12.730  0.1140  0.1756 -0.2281
  847DOPE   C1B 9936  10.108  32.979  13.477 -0.0296 -0.2534 -0.3347
  847DOPE   D2B 9937   9.996  32.913  13.056 -0.3298 -0.1748 -0.1194
  847DOPE   C3B 9938  10.283  32.847  12.642 -0.1520  0.1861 -0.2767
  847DOPE   C4B 9939  10.167  32.680  12.231  0.1817  0.1878 -0.0047
  848DOPC   NC3 9940   6.428  32.995  14.647 -0.2562  0.4650 -0.0665
  848DOPC   PO4 9941   6.829  33.013  14.584  0.0218 -0.1191  0.0978
  848DOPC   GL1 9942   6.751  33.179  14.168 -0.3304 -0.1773 -0.4573
  848DOPC   GL2 9943   7.004  33.068  13.956  0.0616  0.1476  0.0551
  848DOPC   C1A 9944   6.469  32.988  13.871  0.0710  0.0219 -0.1788
  848DOPC   D2A 9945   6.181  32.617  13.831  0.0432 -0.1864 -0.0005
  848DOPC   C3A 9946   6.112  32.490  13.376  0.0183  0.0620 -0.0997
  848DOPC   C4A 9947   5.972  32.753  13.062 -0.2000  0.2479  0.3610
  848DOPC   C1B 9948   6.989  32.869  13.589  0.2046  0.1519 -0.0081
  848DOPC   D2B 9949   7.178  32.583  13.278 -0.1341 -0.2939 -0.1660
  848DOPC   C3B 9950   6.834  32.472  13.026 -0.2196  0.2054 -0.1628
  848DOPC   C4B 9951   6.649  32.145  12.685  0.0266  0.3100 -0.0280
  849DOPE   NH3 9952   7.119  29.181  15.171  0.0486 -0.2862 -0.1857
  849DOPE   PO4 9953   7.391  29.192  15.330  0.1649 -0.2417  0.0000
  849DOPE   GL1 9954   7.557  29.355  14.952 -0.1204  0.1493 -0.1204
  849DOPE   GL2 9955   7.466  29.176  14.787 -0.1186 -0.1450  0.3119
  849DOPE   C1A 9956   7.620  29.578  14.506  0.2647  0.0928  0.0609
  849DOPE   D2A 9957   7.688  29.633  14.039  0.2976 -0.2903 -0.0578
  849DOPE   C3A 9958   7.605  29.590  13.627  0.2901 -0.1458 -0.0199
  849DOPE   C4A 9959   7.271  29.482  13.266 -0.0778 -0.1693 -0.2002
  849DOPE   C1B 9960   7.502  28.907  14.437 -0.0010 -0.3524 -0.1262
  849DOPE   D2B 9961   7.798  28.644  14.169  0.3839 -0.2768 -0.1685
  849DOPE   C3B 9962   7.575  28.585  13.742 -0.1794 -0.3613  0.0204
  849DOPE   C4B 9963   7.688  28.594  13.296 -0.0261  0.0557  0.1277
  850DOPE   NH3 9964  10.484  26.261  14.934 -0.0563  0.4970 -0.1199
  850DOPE   PO4 9965  10.354  25.970  14.936  0.0059 -0.1751  0.4717
  850DOPE   GL1 9966  10.286  25.932  14.585 -0.1779 -0.0042  0.1006
  850DOPE   GL2 9967  10.504  26.054  14.473  0.3589 -0.1771 -0.2131
  850DOPE   C1A 9968  10.210  25.687  14.213  0.0659 -0.0419 -0.2947
  850DOPE   D2A 9969   9.984  25.748  13.791 -0.2036 -0.1230 -0.2382
  850DOPE   C3A 9970   9.881  25.639  13.360 -0.1063  0.0471  0.2112
  850DOPE   C4A 9971   9.565  25.785  13.114 -0.2499  0.1622  0.0820
  850DOPE   C1B 9972  10.481  26.250  14.055 -0.1015  0.2021 -0.1881
  850DOPE   D2B 9973  10.454  26.444  13.622 -0.2682  0.0003  0.0668
  850DOPE   C3B 9974  10.443  26.770  13.269 -0.1329 -0.1298 -0.1448
  850DOPE   C4B 9975  10.223  27.062  13.088  0.0468  0.2236 -0.2350
  851DOPE   NH3 9976   7.378  26.092  16.070  0.2064 -0.0760 -0.1210
  851DOPE   PO4 9977   7.653  26.091  15.933  0.1856  0.3471 -0.2175
  851DOPE   GL1 9978   7.746  26.204  15.646  0.2356  0.3024  0.4125
  851DOPE   GL2 9979   7.505  26.432  15.551 -0.1668 -0.0412 -0.0115
  851DOPE   C1A 9980   7.751  25.964  15.212  0.1291  0.4979 -0.2792
  851DOPE   D2A 9981   7.666  25.899  14.767 -0.2091  0.0050  0.0809
  851DOPE   C3A 9982   7.516  26.216  14.572 -0.1106 -0.2581  0.1758
  851DOPE   C4A 9983   7.538  26.419  14.172 -0.2395 -0.2222 -0.3562
  851DOPE   C1B 9984   7.479  26.465  15.078 -0.0329 -0.0437 -0.0026
  851DOPE   D2B 9985   7.450  26.672  14.761  0.1948  0.0152 -0.0027
  851DOPE   C3B 9986   7.095  26.567  14.416 -0.0862  0.2069  0.1608
  851DOPE   C4B 9987   6.648  26.501  14.461  0.0230  0.0614  0.0954
  852DOPS   CNO 9988   1.854  29.062  16.572 -0.0877 -0.2182 -0.1450
  852DOPS   PO4 9989   1.692  28.975  16.247 -0.1901 -0.0635 -0.1126
  852DOPS   GL1 9990   1.698  28.953  15.813 -0.4899 -0.2655 -0.0080
  852DOPS   GL2 9991   1.686  28.718  15.597  0.1745 -0.1162 -0.2034
  852DOPS   C1A 9992   1.675  29.195  15.410 -0.0757  0.0339  0.2056
  852DOPS   D2A 9993   1.807  29.085  14.924 -0.2406 -0.2776  0.3591
  852DOPS   C3A 9994   1.608  29.266  14.586  0.0015 -0.0241  0.1352
  852DOPS   C4A 9995   1.404  29.391  14.178 -0.0776 -0.2134  0.0394
  852DOPS   C1B 9996   1.442  28.657  15.143  0.0659  0.1520 -0.1008
  852DOPS   D2B 9997   1.359  28.889  14.759 -0.0999  0.1026  0.0340
  852DOPS   C3B 9998   1.010  28.825  14.473  0.1676 -0.1079 -0.3425
  852DOPS   C4B 9999   0.915  28.758  14.034 -0.2638  0.1759  0.3329
  853DOPE   NH310000   6.657  29.915  15.556 -0.1750 -0.0251 -0.1190
  853DOPE   PO410001   6.587  30.016  15.264 -0.5515 -0.0197 -0.2282
  853DOPE   GL110002   6.510  30.311  15.008 -0.1189  0.0794 -0.1554
  853DOPE   GL210003   6.261  30.354  14.921  0.0232 -0.1824  0.1078
  853DOPE   C1A10004   6.571  30.744  14.805 -0.0037  0.2829 -0.2965
  853DOPE   D2A10005   6.711  30.635  14.366 -0.1812  0.1307  0.2258
  853DOPE   C3A10006   6.428  30.669  14.002 -0.0143 -0.1642  0.0105
  853DOPE   C4A10007   6.296  30.697  13.536 -0.2592 -0.2660 -0.3424
  853DOPE   C1B10008   6.189  30.460  14.458 -0.2209  0.0261 -0.1062
  853DOPE   D2B10009   5.802  30.349  14.201 -0.0122 -0.1382 -0.0626
  853DOPE   C3B10010   5.960  30.350  13.747  0.4032 -0.3323 -0.1201
  853DOPE   C4B10011   5.845  30.616  13.448 -0.1072  0.2272  0.0664
  854DOPE   NH310012   3.653  29.442  15.999 -0.1320  0.3464 -0.1490
  854DOPE   PO410013   3.495  29.678  15.929 -0.0334 -0.0120  0.1276
  854DOPE   GL110014   3.272  29.643  15.580  0.0346 -0.1422 -0.0932
  854DOPE   GL210015   3.461  29.879  15.451 -0.1466 -0.0916  0.3720
  854DOPE   C1A10016   3.090  29.701  15.092  0.0180 -0.1125 -0.0825
  854DOPE   D2A10017   2.969  29.598  14.692  0.3715  0.2094  0.0864
  854DOPE   C3A10018   2.831  29.202  14.541  0.1336 -0.1948 -0.0297
  854DOPE   C4A10019   2.987  28.845  14.262  0.0591  0.1670  0.0751
  854DOPE   C1B10020   3.615  29.753  15.071 -0.2296  0.1930 -0.3225
  854DOPE   D2B10021   3.761  29.568  14.698  0.0728  0.0542 -0.1271
  854DOPE   C3B10022   3.810  29.132  14.532  0.0099 -0.0479 -0.2286
  854DOPE   C4B10023   4.025  29.050  14.140  0.0958  0.0249  0.0886
  855POSM   NC310024   3.445  22.662  17.021 -0.2135 -0.3417  0.1795
  855POSM   PO410025   3.531  22.482  16.693 -0.2455 -0.0327 -0.0813
  855POSM   AM110026   3.642  22.778  16.527  0.1124  0.3662  0.2524
  855POSM   AM210027   3.754  23.030  16.577  0.3551  0.1182 -0.2210
  855POSM   T1A10028   3.806  22.945  16.116 -0.1692 -0.0311  0.5512
  855POSM   C2A10029   3.843  22.974  15.678  0.2235  0.3872  0.1429
  855POSM   C3A10030   3.596  23.264  15.393 -0.1212  0.2130 -0.1256
  855POSM   C1B10031   3.886  23.306  16.392 -0.1409 -0.1650 -0.2027
  855POSM   D2B10032   3.973  23.770  16.274  0.0710  0.1957  0.2571
  855POSM   C3B10033   3.571  23.795  16.242  0.2071  0.0602 -0.0989
  855POSM   C4B10034   3.223  23.793  15.936  0.0205 -0.0303  0.2477
  856POSM   NC310035   4.972  26.716  15.913 -0.3809 -0.0516 -0.0070
  856POSM   PO410036   5.337  26.774  15.925  0.0356 -0.3239 -0.0970
  856POSM   AM110037   5.343  26.845  15.646  0.3855  0.3915  0.1992
  856POSM   AM210038   5.178  26.743  15.444  0.1622  0.0948 -0.1708
  856POSM   T1A10039   5.480  27.154  15.241 -0.0541  0.1946  0.1442
  856POSM   C2A10040   5.468  27.347  14.811 -0.0401 -0.0323 -0.0188
  856POSM   C3A10041   5.324  27.547  14.403  0.0700  0.3178  0.3399
  856POSM   C1B10042   5.082  26.425  15.274 -0.3419  0.0247 -0.0059
  856POSM   D2B10043   4.975  26.044  15.022  0.2406 -0.6045  0.0089
  856POSM   C3B10044   5.269  25.835  14.759 -0.2553 -0.0502  0.2632
  856POSM   C4B10045   5.603  25.554  14.550 -0.2013  0.1671  0.2372
  857DOPC   NC310046   5.774  29.840  15.711  0.0866  0.3367  0.1988
  857DOPC   PO410047   6.069  29.982  15.476 -0.3505 -0.0713 -0.0406
  857DOPC   GL110048   5.809  29.694  15.257 -0.7258 -0.3564 -0.3451
  857DOPC   GL210049   5.950  29.370  15.275  0.1766 -0.0913  0.1364
  857DOPC   C1A10050   5.709  29.656  14.819  0.0077 -0.0314 -0.2505
  857DOPC   D2A10051   5.530  29.843  14.401  0.0662  0.3088  0.0607
  857DOPC   C3A10052   5.615  29.958  13.934  0.3005  0.1940  0.3299
  857DOPC   C4A10053   5.572  29.921  13.487 -0.1017 -0.4287 -0.1546
  857DOPC   C1B10054   6.009  29.245  14.796 -0.1523 -0.2403 -0.1050
  857DOPC   D2B10055   5.965  29.535  14.418  0.0287 -0.2003  0.1981
  857DOPC   C3B10056   5.705  29.443  14.067 -0.1873  0.2547  0.1078
  857DOPC   C4B10057   5.494  29.465  13.666  0.1246  0.3219  0.1333
  858DOPC   NC310058   4.226  32.054  15.304  0.1500 -0.0088  0.1924
  858DOPC   PO410059   4.216  31.696  15.451 -0.0842 -0.1114  0.3108
  858DOPC   GL110060   4.121  31.493  15.166  0.2387 -0.1793 -0.1305
  858DOPC   GL210061   3.880  31.389  15.070  0.0763 -0.2690  0.2279
  858DOPC   C1A10062   4.300  31.267  14.839 -0.0076  0.0182  0.1183
  858DOPC   D2A10063   4.316  31.119  14.446  0.0753  0.3025 -0.1112
  858DOPC   C3A10064   4.053  30.813  14.194 -0.1331  0.2168 -0.0376
  858DOPC   C4A10065   3.753  30.786  13.879 -0.2770  0.1524 -0.1217
  858DOPC   C1B10066   3.904  31.436  14.612 -0.1838 -0.2196  0.1102
  858DOPC   D2B10067   3.804  31.223  14.227  0.3474  0.0558 -0.4074
  858DOPC   C3B10068   4.059  31.144  13.837  0.1401 -0.3868  0.1990
  858DOPC   C4B10069   4.033  31.185  13.382 -0.2413  0.1785  0.0526
  859POSM   NC310070   3.386  33.197  15.707  0.0541  0.1231  0.2907
  859POSM   PO410071   3.127  33.051  15.432 -0.0592  0.0973 -0.0938
  859POSM   AM110072   3.146  33.090  15.088  0.0749 -0.1108 -0.2767
  859POSM   AM210073   3.334  33.016  14.847  0.2131  0.1088 -0.1439
  859POSM   T1A10074   2.820  33.082  14.671  0.1367  0.2071 -0.2426
  859POSM   C2A10075   2.464  33.280  14.486  0.0047  0.1063  0.0589
  859POSM   C3A10076   2.357  33.710  14.448  0.4303 -0.0988  0.1074
  859POSM   C1B10077   3.394  32.933  14.513 -0.2864  0.3975  0.1386
  859POSM   D2B10078   3.397  32.848  14.063 -0.4263 -0.1504  0.1623
  859POSM   C3B10079   3.459  32.544  13.729  0.3712 -0.0223  0.2528
  859POSM   C4B10080   3.774  32.547  13.429 -0.3113 -0.0212  0.2362
  860DOPC   NC310081   9.011  24.915  15.400 -0.0685  0.0422 -0.3685
  860DOPC   PO410082   8.658  24.942  15.604  0.4022  0.1411 -0.3590
  860DOPC   GL110083   8.620  25.043  15.169  0.5325  0.0714 -0.0046
  860DOPC   GL210084   8.534  24.799  15.023  0.0637 -0.0682 -0.0445
  860DOPC   C1A10085   8.945  24.970  14.798  0.2010  0.2464  0.1849
  860DOPC   D2A10086   8.890  24.699  14.433  0.0496 -0.0409  0.0466
  860DOPC   C3A10087   8.762  24.883  14.009 -0.0115  0.0412  0.2014
  860DOPC   C4A10088   8.876  24.871  13.518 -0.0155 -0.1031 -0.2356
  860DOPC   C1B10089   8.489  25.057  14.666 -0.0041  0.0386 -0.0367
  860DOPC   D2B10090   8.387  25.244  14.265 -0.2008 -0.3572 -0.1010
  860DOPC   C3B10091   8.772  25.557  14.230  0.1468 -0.0892 -0.1643
  860DOPC   C4B10092   9.155  25.826  14.325  0.1121 -0.0316 -0.1456
  861POSM   NC310093   1.153  31.364  16.148  0.1993 -0.3595 -0.2260
  861POSM   PO410094   0.746  31.425  16.093  0.3037 -0.2934 -0.1675
  861POSM   AM110095   0.773  31.434  15.784 -0.0890 -0.1901  0.0176
  861POSM   AM210096   0.650  31.554  15.557 -0.1931 -0.0940  0.0904
  861POSM   T1A10097   0.588  31.111  15.383  0.3709  0.1306 -0.2097
  861POSM   C2A10098   0.293  30.830  15.101  0.3400  0.0658  0.3840
  861POSM   C3A10099   0.458  30.716  14.665 -0.2312  0.0482 -0.1901
  861POSM   C1B10100   0.784  31.700  15.292  0.1483  0.1899 -0.1412
  861POSM   D2B10101   0.840  31.852  14.846 -0.3255  0.2076 -0.1017
  861POSM   C3B10102   0.864  31.611  14.451 -0.1715  0.1345  0.1136
  861POSM   C4B10103   1.259  31.370  14.290  0.1349 -0.1638  0.1693
  862DOPC   NC310104   2.629  28.719  16.483  0.4941 -0.1064 -0.4638
  862DOPC   PO410105   3.038  28.781  16.442  0.2264  0.0133 -0.0481
  862DOPC   GL110106   3.140  28.544  15.957  0.1368  0.2921 -0.0199
  862DOPC   GL210107   3.142  28.290  15.953  0.2300  0.0829  0.1555
  862DOPC   C1A10108   2.979  28.534  15.511 -0.0587  0.0831 -0.2200
  862DOPC   D2A10109   3.080  28.468  15.060 -0.1909 -0.0641 -0.0068
  862DOPC   C3A10110   3.185  28.303  14.606 -0.2467  0.0386  0.2452
  862DOPC   C4A10111   2.780  28.301  14.374  0.3293  0.2332  0.0149
  862DOPC   C1B10112   2.752  28.176  15.747  0.2231  0.1938 -0.3023
  862DOPC   D2B10113   2.376  28.008  15.598 -0.1854 -0.0189  0.0959
  862DOPC   C3B10114   2.390  27.592  15.468  0.1439 -0.2221 -0.0697
  862DOPC   C4B10115   2.590  27.269  15.162 -0.4714 -0.0135  0.1638
  863POSM   NC310116   2.188  33.671  15.809 -0.3143  0.1003 -0.1333
  863POSM   PO410117   2.338  33.985  15.634 -0.0770  0.0308  0.0395
  863POSM   AM110118   2.060  34.033  15.557 -0.0415 -0.3728 -0.3356
  863POSM   AM210119   1.924  34.158  15.323 -0.0244  0.1847  0.1765
  863POSM   T1A10120   1.673  34.254  15.724  0.0860  0.0045  0.1806
  863POSM   C2A10121   1.321  34.415  15.955 -0.0688 -0.2006  0.1933
  863POSM   C3A10122   0.972  34.608  15.749 -0.1286 -0.2489 -0.0464
  863POSM   C1B10123   1.978  34.388  15.048 -0.0757  0.0947  0.2187
  863POSM   D2B10124   1.925  34.638  14.711  0.1703 -0.0149  0.0561
  863POSM   C3B10125   1.711  34.234  14.516  0.0190  0.1502  0.0105
  863POSM   C4B10126   1.493  33.969  14.214 -0.3973  0.3194  0.2041
  864DOPE   NH310127   3.873  30.857  15.907 -0.0526 -0.0646  0.0822
  864DOPE   PO410128   4.017  30.582  15.868  0.2222  0.0501 -0.2227
  864DOPE   GL110129   3.903  30.221  15.537 -0.1282  0.1578 -0.4592
  864DOPE   GL210130   3.669  30.357  15.459  0.1726  0.1181 -0.1455
  864DOPE   C1A10131   3.913  30.233  15.079  0.1310 -0.0661  0.0493
  864DOPE   D2A10132   3.886  30.075  14.668 -0.3619 -0.2431  0.2535
  864DOPE   C3A10133   3.794  29.884  14.272 -0.0863  0.1251 -0.0687
  864DOPE   C4A10134   3.557  29.907  13.897 -0.0866  0.0521  0.1884
  864DOPE   C1B10135   3.448  30.337  15.007 -0.0801  0.0288 -0.1174
  864DOPE   D2B10136   3.383  29.995  14.670  0.0275 -0.0165 -0.2004
  864DOPE   C3B10137   3.224  29.967  14.263  0.1008  0.0540 -0.2076
  864DOPE   C4B10138   3.086  30.087  13.835 -0.1065  0.0071  0.1406
  865DOPC   NC310139  11.056  24.288  15.389  0.3283  0.0756 -0.0632
  865DOPC   PO410140  10.716  24.283  15.636 -0.0614 -0.1145  0.2222
  865DOPC   GL110141  10.586  24.360  15.226 -0.1239  0.0984 -0.1260
  865DOPC   GL210142  10.755  24.655  15.215 -0.3563 -0.2136  0.0656
  865DOPC   C1A10143  10.279  24.543  14.968 -0.1549 -0.0257 -0.3364
  865DOPC   D2A10144   9.855  24.562  14.756 -0.0220 -0.2271 -0.1488
  865DOPC   C3A10145   9.522  24.312  14.934  0.2112 -0.1114  0.1530
  865DOPC   C4A10146   9.229  23.963  14.859 -0.0094 -0.0131 -0.1120
  865DOPC   C1B10147  10.639  24.767  14.722 -0.2278 -0.1186  0.0493
  865DOPC   D2B10148  10.492  24.741  14.303 -0.0082 -0.4586 -0.3788
  865DOPC   C3B10149  10.245  25.131  14.364  0.1585  0.1136  0.1715
  865DOPC   C4B10150   9.848  25.341  14.384  0.0475 -0.0855 -0.1487
  866DOPC   NC310151   6.666  24.102  16.489  0.1878  0.2633 -0.0082
  866DOPC   PO410152   6.955  24.416  16.440  0.0944  0.0125 -0.0764
  866DOPC   GL110153   6.847  24.314  16.013 -0.1033  0.1984 -0.4323
  866DOPC   GL210154   6.877  24.069  15.994  0.2557  0.1292  0.3487
  866DOPC   C1A10155   6.775  24.545  15.588 -0.0136  0.1688 -0.2445
  866DOPC   D2A10156   6.406  24.460  15.398  0.4203 -0.2821  0.0769
  866DOPC   C3A10157   6.493  24.693  15.061 -0.1898 -0.2727 -0.2768
  866DOPC   C4A10158   6.312  24.729  14.637  0.1770 -0.0920 -0.3129
  866DOPC   C1B10159   6.804  24.038  15.491  0.1060 -0.0599  0.1073
  866DOPC   D2B10160   6.505  24.089  15.093 -0.0437 -0.1077  0.0850
  866DOPC   C3B10161   6.601  23.810  14.740  0.0250  0.1361 -0.1976
  866DOPC   C4B10162   6.446  23.540  14.472  0.1750 -0.0874 -0.0462
  867DOPC   NC310163   4.532  27.300  15.866  0.3485  0.1885  0.2120
  867DOPC   PO410164   4.326  27.412  16.183  0.7182 -0.0561 -0.1002
  867DOPC   GL110165   4.120  27.583  15.930 -0.1690  0.1304 -0.2362
  867DOPC   GL210166   3.970  27.433  15.750  0.0789 -0.2649 -0.1732
  867DOPC   C1A10167   4.313  27.737  15.552  0.0292 -0.1271  0.0011
  867DOPC   D2A10168   4.192  27.661  15.105 -0.2633  0.1381  0.0016
  867DOPC   C3A10169   4.186  27.960  14.741  0.0547  0.0026  0.2475
  867DOPC   C4A10170   4.383  28.267  14.470  0.0344 -0.2515 -0.0856
  867DOPC   C1B10171   3.818  27.367  15.366  0.0543  0.0420  0.2728
  867DOPC   D2B10172   3.587  27.146  14.979  0.3091  0.1561  0.0925
  867DOPC   C3B10173   3.582  27.410  14.561  0.0866 -0.0332 -0.2023
  867DOPC   C4B10174   3.624  27.446  14.098  0.0817 -0.4432  0.0828
  868DOPC   NC310175   9.592  30.498  14.368  0.2569  0.2924 -0.1746
  868DOPC   PO410176   9.525  30.893  14.264 -0.1625 -0.0230  0.1869
  868DOPC   GL110177   9.730  30.882  13.918  0.1949 -0.1654 -0.0509
  868DOPC   GL210178   9.837  30.565  13.925  0.3444  0.1924  0.2215
  868DOPC   C1A10179   9.530  31.164  13.635 -0.2981 -0.2725  0.0399
  868DOPC   D2A10180   9.380  31.396  13.241  0.1933  0.0079  0.3042
  868DOPC   C3A10181   9.335  31.152  12.847  0.0678 -0.0364  0.0282
  868DOPC   C4A10182   9.246  30.960  12.479 -0.0302  0.0033 -0.2352
  868DOPC   C1B10183   9.811  30.237  13.648 -0.1395  0.0064  0.0396
  868DOPC   D2B10184   9.679  29.813  13.629 -0.2400 -0.4885 -0.0662
  868DOPC   C3B10185   9.744  29.754  13.130 -0.3590 -0.0160 -0.0644
  868DOPC   C4B10186   9.718  29.700  12.663  0.2854 -0.0841  0.3002
  869DOPS   CNO10187   6.347  28.403  16.150 -0.0418 -0.1543 -0.0838
  869DOPS   PO410188   6.376  28.655  15.883 -0.0699 -0.0009 -0.1335
  869DOPS   GL110189   6.373  28.631  15.465  0.1076 -0.1013 -0.0086
  869DOPS   GL210190   6.050  28.648  15.459 -0.1047  0.3639  0.0137
  869DOPS   C1A10191   6.400  28.504  15.025  0.0839  0.1915  0.0525
  869DOPS   D2A10192   6.463  28.463  14.540  0.1595 -0.2222  0.1586
  869DOPS   C3A10193   6.102  28.255  14.381  0.2048  0.1005 -0.0569
  869DOPS   C4A10194   5.746  27.900  14.380  0.1531 -0.0643  0.1339
  869DOPS   C1B10195   6.290  28.997  15.241  0.2604  0.2225  0.2436
  869DOPS   D2B10196   6.547  29.110  14.918  0.3446  0.1389 -0.2153
  869DOPS   C3B10197   6.564  28.972  14.470  0.1253 -0.1391 -0.3140
  869DOPS   C4B10198   6.613  28.699  14.100  0.1723  0.1259 -0.1314
  870DOPC   NC310199   7.403  28.333  16.065  0.0930 -0.1542 -0.0030
  870DOPC   PO410200   7.170  28.045  15.947  0.1697 -0.0973  0.3037
  870DOPC   GL110201   7.069  27.886  15.520 -0.2791  0.1607 -0.3700
  870DOPC   GL210202   6.893  27.678  15.380 -0.0732 -0.1472  0.2280
  870DOPC   C1A10203   7.345  27.544  15.213  0.1005  0.2452 -0.0130
  870DOPC   D2A10204   7.396  27.090  15.090  0.1858 -0.0453  0.1281
  870DOPC   C3A10205   7.765  27.091  14.756 -0.5065  0.2623  0.1488
  870DOPC   C4A10206   8.027  27.374  14.534 -0.0982  0.2933 -0.2904
  870DOPC   C1B10207   6.501  27.772  15.182 -0.0402  0.0330 -0.1839
  870DOPC   D2B10208   6.358  28.018  14.780  0.2700  0.1953 -0.1820
  870DOPC   C3B10209   6.522  28.001  14.312  0.0504 -0.3293  0.0612
  870DOPC   C4B10210   6.137  27.859  14.082 -0.2017 -0.3318  0.0211
  871DOPS   CNO10211   8.228  31.324  14.188 -0.0376  0.3629 -0.1826
  871DOPS   PO410212   7.912  31.242  14.348 -0.1047 -0.0257  0.0073
  871DOPS   GL110213   7.851  30.993  13.953  0.2075 -0.1474 -0.0848
  871DOPS   GL210214   7.603  31.062  13.986  0.0172  0.1572  0.4121
  871DOPS   C1A10215   7.573  30.666  13.714  0.1545 -0.4604 -0.2492
  871DOPS   D2A10216   7.225  30.308  13.680 -0.1275 -0.0952  0.0615
  871DOPS   C3A10217   6.811  30.302  13.487 -0.0219 -0.2395 -0.0318
  871DOPS   C4A10218   6.516  30.508  13.122 -0.0139  0.1036  0.2195
  871DOPS   C1B10219   7.209  31.172  13.761  0.0612 -0.0524 -0.1544
  871DOPS   D2B10220   6.955  31.457  13.406 -0.0371  0.1522 -0.2465
  871DOPS   C3B10221   6.634  31.311  13.155  0.1469 -0.1427  0.0823
  871DOPS   C4B10222   6.344  31.012  13.120  0.1987 -0.1577 -0.0713
  872POSM   NC310223  11.716  23.582  15.669  0.0628 -0.1950 -0.0778
  872POSM   PO410224  11.814  23.518  15.305 -0.1904 -0.1709  0.0562
  872POSM   AM110225  11.967  23.669  15.066 -0.0573 -0.2372 -0.0326
  872POSM   AM210226  11.984  23.612  14.814  0.1738 -0.2330  0.0782
  872POSM   T1A10227  12.219  24.040  14.917 -0.1786  0.2999  0.1758
  872POSM   C2A10228  12.140  24.507  14.687 -0.3726  0.3320 -0.1380
  872POSM   C3A10229  12.049  24.711  14.312 -0.0622  0.1601 -0.0928
  872POSM   C1B10230  11.688  23.602  14.612  0.2277 -0.0036  0.2036
  872POSM   D2B10231  11.513  23.676  14.143 -0.2783  0.3093  0.2722
  872POSM   C3B10232  11.090  23.712  14.014  0.3331 -0.1861  0.0019
  872POSM   C4B10233  10.925  24.007  13.681  0.2040  0.2713 -0.1808
  873DOPS   CNO10234   5.158  28.358  16.487  0.1357  0.2982  0.0204
  873DOPS   PO410235   4.966  28.157  16.214  0.0965 -0.0076 -0.3347
  873DOPS   GL110236   4.936  28.185  15.795 -0.3219 -0.0067 -0.1002
  873DOPS   GL210237   5.139  27.943  15.705  0.0146  0.3545  0.0197
  873DOPS   C1A10238   4.791  27.970  15.397  0.2263  0.1999  0.0942
  873DOPS   D2A10239   4.613  27.912  14.966 -0.0369  0.1275 -0.2104
  873DOPS   C3A10240   4.582  27.613  14.573  0.2315 -0.0667 -0.4167
  873DOPS   C4A10241   4.400  27.555  14.191 -0.0203 -0.2006 -0.1877
  873DOPS   C1B10242   5.291  27.772  15.353  0.1110  0.2654  0.0382
  873DOPS   D2B10243   5.021  27.640  14.974 -0.1414  0.0124  0.2277
  873DOPS   C3B10244   4.947  27.245  14.752 -0.1507 -0.0063  0.3100
  873DOPS   C4B10245   4.802  26.854  14.526 -0.2836 -0.2210 -0.1925
  874DOPS   CNO10246   0.683  26.796  16.972 -0.0840  0.2938  0.2518
  874DOPS   PO410247   0.699  26.552  16.705 -0.2343 -0.4915  0.0935
  874DOPS   GL110248   0.655  26.417  16.310  0.1043 -0.2006 -0.1279
  874DOPS   GL210249   0.485  26.571  16.209 -0.1928  0.5976  0.3253
  874DOPS   C1A10250   0.818  26.009  16.180  0.3860  0.0207 -0.0339
  874DOPS   D2A10251   0.842  25.569  16.008 -0.0774  0.2895 -0.2390
  874DOPS   C3A10252   1.008  25.573  15.600 -0.2426 -0.0556  0.1079
  874DOPS   C4A10253   1.009  25.659  15.135 -0.3222 -0.1410 -0.0973
  874DOPS   C1B10254   0.554  26.316  15.884 -0.0387  0.1807  0.2066
  874DOPS   D2B10255   0.810  26.116  15.538 -0.0510  0.0931 -0.0299
  874DOPS   C3B10256   0.573  25.872  15.250 -0.0631 -0.1881 -0.1496
  874DOPS   C4B10257   0.549  25.500  15.046  0.0235 -0.0607  0.0540
  875DOPE   NH310258   2.834  28.161  16.369 -0.0348  0.1793  0.0934
  875DOPE   PO410259   3.053  27.924  16.382 -0.1675  0.2034 -0.1641
  875DOPE   GL110260   3.185  27.821  16.038 -0.1337 -0.0213 -0.0657
  875DOPE   GL210261   3.088  27.588  16.005  0.2812  0.0652  0.0142
  875DOPE   C1A10262   3.442  27.700  15.669 -0.1531  0.2085 -0.2273
  875DOPE   D2A10263   3.358  27.581  15.192  0.2768 -0.1030  0.1040
  875DOPE   C3A10264   3.058  27.345  14.944  0.4447  0.4101  0.0006
  875DOPE   C4A10265   2.717  27.346  14.605  0.2523  0.0173  0.4042
  875DOPE   C1B10266   2.841  27.707  15.626  0.0403 -0.2531 -0.0083
  875DOPE   D2B10267   2.701  27.918  15.260 -0.2850  0.1221  0.0189
  875DOPE   C3B10268   2.520  27.678  14.877  0.1929 -0.2576  0.0478
  875DOPE   C4B10269   2.516  27.739  14.380  0.1097  0.0627 -0.0566
  876DOPE   NH310270   8.779  23.916  15.698 -0.2992 -0.0403 -0.0009
  876DOPE   PO410271   8.966  24.071  15.910  0.2138 -0.1808  0.2999
  876DOPE   GL110272   9.049  24.227  15.470 -0.1807  0.3749 -0.2060
  876DOPE   GL210273   8.811  24.456  15.384 -0.1684 -0.2554  0.0463
  876DOPE   C1A10274   8.802  24.004  15.106  0.1479 -0.0917 -0.1780
  876DOPE   D2A10275   8.733  23.739  14.705  0.0317  0.1509  0.0636
  876DOPE   C3A10276   8.335  23.918  14.461 -0.1804  0.0625 -0.1109
  876DOPE   C4A10277   8.036  24.126  14.199 -0.0866  0.1163 -0.0225
  876DOPE   C1B10278   8.914  24.493  14.907  0.1836  0.3221 -0.0181
  876DOPE   D2B10279   8.832  24.213  14.606 -0.2490  0.2781  0.0929
  876DOPE   C3B10280   9.107  24.308  14.253  0.2253 -0.3801 -0.1973
  876DOPE   C4B10281   9.562  24.368  14.396  0.1748 -0.2350 -0.4474
  877DOPE   NH310282   7.220  32.765  14.257 -0.2061 -0.1874  0.0758
  877DOPE   PO410283   7.501  32.919  14.260  0.0348  0.1314  0.1121
  877DOPE   GL110284   7.654  32.770  13.944  0.1350 -0.2989  0.0293
  877DOPE   GL210285   7.428  32.655  13.783 -0.2959  0.1992 -0.0407
  877DOPE   C1A10286   7.905  32.840  13.573 -0.0986  0.1260  0.0327
  877DOPE   D2A10287   8.092  32.977  13.172 -0.1574  0.1732  0.3863
  877DOPE   C3A10288   8.114  33.174  12.736  0.4250 -0.0303  0.0741
  877DOPE   C4A10289   7.793  33.257  12.387  0.1825  0.2467 -0.1470
  877DOPE   C1B10290   7.453  33.008  13.595  0.2123 -0.3020 -0.0970
  877DOPE   D2B10291   7.251  33.285  13.275  0.1028  0.0361  0.2138
  877DOPE   C3B10292   6.961  32.952  12.971 -0.2597 -0.0731 -0.1375
  877DOPE   C4B10293   6.531  32.808  12.857 -0.1379  0.0415  0.0403
  878DOPC   NC310294   4.876  30.358  14.993  0.1160  0.1256  0.2022
  878DOPC   PO410295   4.940  30.324  15.382  0.3067 -0.1449  0.1881
  878DOPC   GL110296   4.616  29.982  15.392 -0.0134 -0.0434  0.2319
  878DOPC   GL210297   4.782  29.912  15.152  0.0247  0.0049  0.1280
  878DOPC   C1A10298   4.163  29.844  15.302 -0.3335  0.0427 -0.0522
  878DOPC   D2A10299   3.883  29.553  15.477 -0.2160  0.2036  0.1781
  878DOPC   C3A10300   3.864  29.285  15.115  0.0916  0.1742 -0.0988
  878DOPC   C4A10301   3.849  28.872  14.983  0.1666 -0.0134 -0.1486
  878DOPC   C1B10302   4.514  29.880  14.767  0.0230  0.1190  0.0468
  878DOPC   D2B10303   4.318  30.055  14.371 -0.0266  0.0296  0.2033
  878DOPC   C3B10304   4.713  30.020  14.101 -0.1301 -0.0955 -0.4060
  878DOPC   C4B10305   5.091  29.877  13.993  0.0374  0.2945  0.1360
  879DOPC   NC310306  11.812  26.958  14.747  0.0119  0.1186  0.0733
  879DOPC   PO410307  11.435  26.993  14.884  0.0945  0.1620 -0.1829
  879DOPC   GL110308  11.174  27.115  14.524 -0.1553  0.0681  0.2989
  879DOPC   GL210309  10.935  26.934  14.409 -0.0407 -0.0089 -0.3156
  879DOPC   C1A10310  11.076  27.229  14.077 -0.1414  0.1996  0.2532
  879DOPC   D2A10311  11.087  27.357  13.608 -0.4119  0.0930 -0.3555
  879DOPC   C3A10312  11.050  27.019  13.335 -0.0157  0.1276  0.2289
  879DOPC   C4A10313  10.865  26.722  13.041 -0.1033 -0.0001  0.2702
  879DOPC   C1B10314  11.346  26.769  14.240 -0.2939  0.0909 -0.0079
  879DOPC   D2B10315  11.754  26.829  13.978  0.4340 -0.1926 -0.2258
  879DOPC   C3B10316  12.020  27.208  13.728 -0.0486  0.0280  0.1229
  879DOPC   C4B10317  12.380  27.119  13.434  0.0049  0.1310 -0.3457
  880POSM   NC310318   4.213  27.978  16.110  0.1360 -0.1154  0.1002
  880POSM   PO410319   4.473  28.281  16.067  0.4216  0.1591  0.2693
  880POSM   AM110320   4.375  28.242  15.739 -0.3171  0.2083 -0.0548
  880POSM   AM210321   4.087  28.198  15.670  0.0067 -0.2359  0.3132
  880POSM   T1A10322   4.346  28.302  15.225  0.0995  0.0509 -0.0388
  880POSM   C2A10323   4.097  28.438  14.936  0.0528  0.1245 -0.1013
  880POSM   C3A10324   4.002  28.635  14.471 -0.1531  0.3648  0.0283
  880POSM   C1B10325   3.870  28.020  15.475  0.0730 -0.2255 -0.2956
  880POSM   D2B10326   3.770  27.933  15.067 -0.0591 -0.0331  0.1962
  880POSM   C3B10327   3.413  27.853  14.766  0.2246  0.0620 -0.0487
  880POSM   C4B10328   2.939  27.880  14.644  0.1248 -0.2274  0.0594
  881POSM   NC310329   2.508  32.959  16.158 -0.3042 -0.1131 -0.1628
  881POSM   PO410330   2.310  33.190  15.896  0.1042  0.0949  0.3381
  881POSM   AM110331   2.264  33.204  15.585 -0.3110  0.0785 -0.1448
  881POSM   AM210332   2.047  33.355  15.422 -0.0887 -0.1136  0.1462
  881POSM   T1A10333   2.267  33.014  15.113  0.2524  0.1599 -0.2662
  881POSM   C2A10334   2.036  32.952  14.730  0.2944 -0.1438  0.5256
  881POSM   C3A10335   1.869  33.209  14.407  0.1155  0.0821 -0.2112
  881POSM   C1B10336   1.974  33.661  15.254  0.0057 -0.1525  0.0654
  881POSM   D2B10337   1.752  33.880  14.907 -0.1315 -0.1844 -0.1845
  881POSM   C3B10338   1.340  33.779  14.814  0.1536 -0.1400 -0.0404
  881POSM   C4B10339   1.090  33.712  14.473 -0.2380  0.2282  0.0434
  882DOPE   NH310340   3.208  26.228  15.783  0.2571  0.1437  0.1039
  882DOPE   PO410341   2.897  26.169  15.870  0.0240 -0.0729 -0.3899
  882DOPE   GL110342   2.867  26.185  15.443 -0.3642  0.0726 -0.1158
  882DOPE   GL210343   3.142  25.997  15.349 -0.0307 -0.2503 -0.0738
  882DOPE   C1A10344   2.795  26.472  15.062 -0.0018 -0.1191 -0.2416
  882DOPE   D2A10345   2.827  26.402  14.607  0.1692  0.2408 -0.0296
  882DOPE   C3A10346   3.070  26.524  14.238 -0.1866  0.3059  0.1970
  882DOPE   C4A10347   3.395  26.574  13.885 -0.0494  0.3583 -0.3024
  882DOPE   C1B10348   3.300  26.474  15.305  0.3831  0.2595  0.0285
  882DOPE   D2B10349   3.162  26.853  15.093 -0.0251 -0.2926  0.0494
  882DOPE   C3B10350   3.300  26.900  14.646 -0.0712 -0.1031  0.0559
  882DOPE   C4B10351   3.240  27.089  14.203  0.2616 -0.0891 -0.3419
  883DOPE   NH310352   2.183  27.395  16.502  0.2561  0.0052 -0.1395
  883DOPE   PO410353   2.013  27.649  16.606  0.1230 -0.1640 -0.0780
  883DOPE   GL110354   1.910  27.542  16.174 -0.0452 -0.3551 -0.2214
  883DOPE   GL210355   1.775  27.282  16.078 -0.0013  0.2794  0.0748
  883DOPE   C1A10356   2.332  27.409  15.978 -0.3762 -0.0167  0.1435
  883DOPE   D2A10357   2.719  27.220  16.076  0.1468  0.0560  0.0389
  883DOPE   C3A10358   3.034  26.945  15.913 -0.0950  0.3639  0.0482
  883DOPE   C4A10359   3.424  26.700  16.028  0.0835  0.0428  0.0910
  883DOPE   C1B10360   1.880  27.265  15.603 -0.1322  0.0570  0.2853
  883DOPE   D2B10361   2.023  26.902  15.296 -0.2918  0.3113  0.0850
  883DOPE   C3B10362   1.878  26.744  14.905  0.2238  0.0593  0.2005
  883DOPE   C4B10363   1.707  26.304  14.730 -0.2029  0.2858  0.0625
  884DOPE   NH310364   4.927  34.458  15.338  0.0849  0.3726  0.1173
  884DOPE   PO410365   4.950  34.349  15.044 -0.0321  0.2601  0.1816
  884DOPE   GL110366   4.810  34.436  14.697 -0.2142  0.1322 -0.1667
  884DOPE   GL210367   4.691  34.700  14.748 -0.1075 -0.4913  0.1384
  884DOPE   C1A10368   4.884  34.478  14.259 -0.1475  0.3543  0.2375
  884DOPE   D2A10369   5.274  34.491  14.050 -0.1514  0.1542 -0.0766
  884DOPE   C3A10370   5.243  34.730  13.600  0.0914 -0.1430  0.3887
  884DOPE   C4A10371   5.024  35.003  13.227  0.2428 -0.1115  0.3382
  884DOPE   C1B10372   4.513  34.938  14.359 -0.1898 -0.1021  0.3328
  884DOPE   D2B10373   4.395  35.373  14.457  0.0348 -0.0823  0.0476
  884DOPE   C3B10374   4.287  35.769  14.172  0.0467 -0.0577 -0.0126
  884DOPE   C4B10375   4.479  35.738  13.766  0.1019  0.0391 -0.2562
  885DOPC   NC310376   1.502  24.215  16.287 -0.3202  0.1187  0.0441
  885DOPC   PO410377   1.448  24.572  16.480  0.2035  0.4373  0.3672
  885DOPC   GL110378   1.007  24.757  16.429  0.0637 -0.0446  0.2730
  885DOPC   GL210379   1.021  24.504  16.261  0.4866  0.1997  0.1284
  885DOPC   C1A10380   0.637  24.996  16.205 -0.0510 -0.0552 -0.2099
  885DOPC   D2A10381   0.383  24.863  15.840  0.3915  0.0437 -0.0421
  885DOPC   C3A10382   0.055  24.626  15.525  0.1907 -0.1459 -0.1645
  885DOPC   C4A10383  -0.028  24.254  15.230 -0.1815  0.2899  0.0521
  885DOPC   C1B10384   1.129  24.117  15.951  0.0093  0.0075 -0.0403
  885DOPC   D2B10385   1.021  24.014  15.488  0.2264 -0.1905  0.0903
  885DOPC   C3B10386   1.112  23.610  15.321  0.1627 -0.4308  0.1579
  885DOPC   C4B10387   1.402  23.315  15.117 -0.3961  0.1132 -0.1484
  886DOPC   NC310388   1.297  28.800  15.936  0.4200  0.0296 -0.2059
  886DOPC   PO410389   0.937  28.862  16.120 -0.0188  0.2668 -0.0624
  886DOPC   GL110390   0.820  28.852  15.754  0.3216 -0.2308 -0.0001
  886DOPC   GL210391   1.094  29.031  15.577 -0.1603 -0.0001 -0.0070
  886DOPC   C1A10392   0.916  28.612  15.325  0.0644 -0.1507 -0.0045
  886DOPC   D2A10393   1.092  28.444  14.864 -0.0642  0.1450  0.2766
  886DOPC   C3A10394   0.784  28.256  14.614  0.3485 -0.1273  0.0114
  886DOPC   C4A10395   0.357  28.104  14.660 -0.0832 -0.2301  0.0581
  886DOPC   C1B10396   1.170  29.459  15.567 -0.0840  0.0123  0.0454
  886DOPC   D2B10397   1.045  29.811  15.325 -0.0486 -0.0186  0.0912
  886DOPC   C3B10398   0.969  29.730  14.828 -0.0457 -0.2221 -0.1104
  886DOPC   C4B10399   1.297  29.792  14.479  0.2199 -0.1135  0.0986
  887POSM   NC310400   4.873  25.155  16.477  0.0822  0.1056 -0.0355
  887POSM   PO410401   5.261  25.190  16.565 -0.1658  0.0313 -0.1844
  887POSM   AM110402   5.380  25.090  16.283  0.0451 -0.1793 -0.1891
  887POSM   AM210403   5.522  25.161  16.045  0.3416 -0.1173 -0.0616
  887POSM   T1A10404   5.237  24.774  15.909  0.1411  0.2168 -0.0117
  887POSM   C2A10405   4.900  24.666  15.590 -0.0861 -0.2562 -0.0583
  887POSM   C3A10406   4.557  24.867  15.344  0.3263  0.3552 -0.1343
  887POSM   C1B10407   5.512  25.127  15.644 -0.1316 -0.0654  0.2832
  887POSM   D2B10408   5.541  25.050  15.232 -0.1340 -0.0159 -0.2446
  887POSM   C3B10409   5.311  25.063  14.827 -0.1415  0.0238  0.0995
  887POSM   C4B10410   5.165  24.910  14.419  0.1795 -0.1427  0.1800
  888DOPC   NC310411   3.631  33.938  15.082 -0.0361  0.0584 -0.0002
  888DOPC   PO410412   3.345  33.959  15.327  0.2097  0.2689  0.2561
  888DOPC   GL110413   3.218  33.804  14.927 -0.4744  0.2260 -0.2291
  888DOPC   GL210414   3.325  33.899  14.673  0.1249 -0.0236 -0.2598
  888DOPC   C1A10415   2.798  33.909  14.721  0.1189  0.0195 -0.0232
  888DOPC   D2A10416   2.852  33.748  14.268 -0.1351  0.1301 -0.1123
  888DOPC   C3A10417   2.630  33.908  13.908 -0.1082 -0.0950 -0.3050
  888DOPC   C4A10418   2.552  34.295  13.770  0.0356  0.1243  0.0411
  888DOPC   C1B10419   3.151  33.508  14.620 -0.1062 -0.2903  0.1027
  888DOPC   D2B10420   2.978  33.244  14.272 -0.3384  0.1904 -0.2921
  888DOPC   C3B10421   2.620  33.375  14.034  0.1406 -0.1862 -0.2709
  888DOPC   C4B10422   2.580  33.532  13.591 -0.0544  0.0139 -0.1229
  889DOPE   NH310423   7.902  25.706  15.666  0.0408 -0.2932 -0.0188
  889DOPE   PO410424   7.843  25.397  15.750 -0.4086 -0.1197 -0.0096
  889DOPE   GL110425   7.777  25.283  15.387 -0.0847  0.1382 -0.1412
  889DOPE   GL210426   7.598  25.451  15.266  0.1685  0.3798  0.1641
  889DOPE   C1A10427   7.834  24.935  15.104 -0.0602 -0.1990 -0.1863
  889DOPE   D2A10428   7.967  24.768  14.648 -0.1973 -0.0572 -0.2192
  889DOPE   C3A10429   7.778  24.569  14.274  0.1223  0.1013  0.0164
  889DOPE   C4A10430   7.759  24.282  13.859  0.0780  0.2077 -0.1767
  889DOPE   C1B10431   7.617  25.283  14.801 -0.2650  0.1701  0.1447
  889DOPE   D2B10432   7.760  25.132  14.386  0.2465  0.3135 -0.0743
  889DOPE   C3B10433   7.965  25.415  14.012 -0.0146 -0.0816 -0.1184
  889DOPE   C4B10434   8.202  25.573  13.655  0.0559 -0.1116  0.0852
  890DOPC   NC310435   3.070  30.198  15.610  0.4297  0.0423 -0.0897
  890DOPC   PO410436   2.996  30.495  15.880  0.0585 -0.1471 -0.0812
  890DOPC   GL110437   2.946  30.639  15.474  0.0338 -0.0148  0.2334
  890DOPC   GL210438   3.212  30.700  15.295  0.0665 -0.2707 -0.2949
  890DOPC   C1A10439   2.843  30.373  15.136 -0.2241  0.0425 -0.0121
  890DOPC   D2A10440   2.826  30.086  14.791 -0.0905  0.0374 -0.1622
  890DOPC   C3A10441   2.641  30.039  14.369  0.0292 -0.3282  0.3333
  890DOPC   C4A10442   2.374  30.140  13.968  0.3426  0.2448 -0.0023
  890DOPC   C1B10443   3.563  30.898  15.091 -0.0032 -0.3144 -0.0966
  890DOPC   D2B10444   4.034  30.849  14.953 -0.0187 -0.0195 -0.2873
  890DOPC   C3B10445   3.782  30.648  14.651 -0.0914  0.1287  0.0900
  890DOPC   C4B10446   3.434  30.413  14.389  0.0108  0.2633 -0.2115
  891DOPE   NH310447   0.779  31.900  15.920  0.2926 -0.3199  0.2055
  891DOPE   PO410448   0.468  31.900  15.873 -0.2773 -0.1578  0.0738
  891DOPE   GL110449   0.480  32.131  15.650  0.2363  0.0039 -0.2149
  891DOPE   GL210450   0.612  32.371  15.770 -0.2901  0.0096  0.0253
  891DOPE   C1A10451   0.591  32.124  15.189  0.2589  0.0142  0.1600
  891DOPE   D2A10452   0.341  32.211  14.829 -0.1994 -0.1987  0.2295
  891DOPE   C3A10453   0.600  32.483  14.533 -0.0612 -0.2095  0.2626
  891DOPE   C4A10454   0.750  32.776  14.274  0.2133  0.2853 -0.3437
  891DOPE   C1B10455   0.818  32.651  15.458  0.1731 -0.0316  0.1082
  891DOPE   D2B10456   0.783  33.020  15.214 -0.0387  0.1668 -0.0637
  891DOPE   C3B10457   0.526  33.190  14.849  0.1332  0.1446 -0.3260
  891DOPE   C4B10458   0.337  32.942  14.476 -0.0949 -0.0187  0.2060
  892DOPE   NH310459   9.640  23.566  15.541  0.0819 -0.0289  0.1679
  892DOPE   PO410460   9.484  23.350  15.463  0.0640  0.1005  0.0013
  892DOPE   GL110461   9.367  23.351  15.126 -0.0429 -0.2296 -0.2390
  892DOPE   GL210462   9.084  23.376  15.020 -0.1557  0.3236  0.4899
  892DOPE   C1A10463   9.566  23.384  14.651  0.0293  0.0009  0.0702
  892DOPE   D2A10464   9.643  23.534  14.217  0.0273  0.0342  0.0780
  892DOPE   C3A10465   9.430  23.694  13.841  0.1901 -0.1801  0.0455
  892DOPE   C4A10466   9.285  23.878  13.434  0.0584  0.0295 -0.0413
  892DOPE   C1B10467   9.028  23.265  14.525 -0.6331  0.1214  0.0324
  892DOPE   D2B10468   9.035  23.360  14.105  0.2508  0.0448  0.2102
  892DOPE   C3B10469   8.639  23.306  13.819  0.0360 -0.0830  0.2173
  892DOPE   C4B10470   8.256  23.497  13.710  0.1522  0.0528 -0.2514
  893DOPC   NC310471   3.660  26.344  16.335 -0.1819 -0.1329  0.0543
  893DOPC   PO410472   3.721  26.014  16.144 -0.0816 -0.0499 -0.0638
  893DOPC   GL110473   3.863  25.964  15.787 -0.0728 -0.0972 -0.6011
  893DOPC   GL210474   3.686  25.983  15.571  0.2417  0.0875  0.1857
  893DOPC   C1A10475   4.089  25.823  15.329  0.2483 -0.0728 -0.0821
  893DOPC   D2A10476   3.983  25.732  14.910 -0.0159  0.2395  0.1708
  893DOPC   C3A10477   3.827  25.982  14.510 -0.0540  0.2503 -0.0283
  893DOPC   C4A10478   3.602  26.226  14.159 -0.1293 -0.4645  0.1312
  893DOPC   C1B10479   3.655  26.130  15.145  0.2356 -0.0391  0.2607
  893DOPC   D2B10480   3.267  26.087  14.856  0.1169  0.1099 -0.0886
  893DOPC   C3B10481   3.469  26.341  14.592  0.2246 -0.0132  0.0043
  893DOPC   C4B10482   3.730  26.767  14.449 -0.1228 -0.2966  0.1121
  894DOPC   NC310483   5.119  27.688  16.152 -0.1729  0.1458  0.1796
  894DOPC   PO410484   4.987  27.321  16.086 -0.0322 -0.6164 -0.0308
  894DOPC   GL110485   5.017  27.265  15.697 -0.0392  0.5887  0.1105
  894DOPC   GL210486   4.865  27.506  15.568 -0.3956  0.0016  0.0880
  894DOPC   C1A10487   5.022  27.121  15.245  0.0426 -0.1633  0.1140
  894DOPC   D2A10488   5.173  26.830  14.906 -0.2646  0.2684 -0.0051
  894DOPC   C3A10489   5.333  26.999  14.476 -0.1350  0.1906  0.1708
  894DOPC   C4A10490   5.596  27.071  14.094 -0.1768  0.1346 -0.2068
  894DOPC   C1B10491   4.575  27.348  15.298  0.1777 -0.0735  0.2558
  894DOPC   D2B10492   4.207  27.123  15.328  0.1791 -0.1899 -0.1930
  894DOPC   C3B10493   4.072  26.891  14.925  0.2975 -0.0850  0.3596
  894DOPC   C4B10494   4.315  26.667  14.584 -0.2236 -0.0639  0.1677
  895DOPC   NC310495  10.877  31.678  14.454  0.1902  0.3196  0.0165
  895DOPC   PO410496  10.676  31.366  14.345  0.0034 -0.0593 -0.0746
  895DOPC   GL110497  10.745  31.490  13.987  0.4448  0.0573 -0.0375
  895DOPC   GL210498  10.541  31.469  13.755  0.1072  0.1248 -0.2201
  895DOPC   C1A10499  10.928  31.169  13.696 -0.3267  0.3215 -0.1269
  895DOPC   D2A10500  11.075  30.811  13.359  0.0688  0.2415 -0.0058
  895DOPC   C3A10501  10.709  30.611  13.179  0.0288  0.0736 -0.2060
  895DOPC   C4A10502  10.297  30.456  13.198  0.0004  0.0760  0.0773
  895DOPC   C1B10503  10.677  31.491  13.330 -0.2870  0.0353 -0.0796
  895DOPC   D2B10504  10.830  31.707  12.930  0.0293  0.2472 -0.0099
  895DOPC   C3B10505  11.081  31.305  12.741 -0.0300 -0.0247 -0.1665
  895DOPC   C4B10506  11.046  31.218  12.265 -0.1667 -0.1010  0.0681
  896DOPC   NC310507   1.086  24.496  16.828  0.0632  0.2009 -0.3971
  896DOPC   PO410508   0.736  24.325  16.665 -0.5325  0.1399  0.1177
  896DOPC   GL110509   0.656  24.122  16.320  0.1900  0.1031  0.0394
  896DOPC   GL210510   0.559  23.825  16.324  0.0759  0.1199 -0.0311
  896DOPC   C1A10511   0.661  23.970  15.828 -0.1425 -0.1416 -0.0975
  896DOPC   D2A10512   0.544  23.993  15.365 -0.0846 -0.0648 -0.3181
  896DOPC   C3A10513   0.802  23.781  14.993 -0.0735 -0.2458 -0.1679
  896DOPC   C4A10514   0.882  23.388  14.863  0.2967  0.0835 -0.1966
  896DOPC   C1B10515   0.320  23.644  15.951  0.1599 -0.3731 -0.3162
  896DOPC   D2B10516   0.193  23.305  15.741  0.0407 -0.2566  0.0469
  896DOPC   C3B10517   0.231  22.959  15.411 -0.0578 -0.3105  0.3418
  896DOPC   C4B10518   0.396  22.931  14.954  0.0267  0.3860 -0.0103
  897DOPC   NC310519   6.924  26.697  16.270  0.0742  0.1795 -0.1938
  897DOPC   PO410520   6.971  26.349  16.454 -0.0172  0.0487 -0.2116
  897DOPC   GL110521   6.957  26.225  16.023 -0.3334  0.1556  0.1176
  897DOPC   GL210522   7.078  26.450  15.820 -0.2565  0.2666 -0.0698
  897DOPC   C1A10523   6.850  26.005  15.665  0.2763 -0.0292  0.0208
  897DOPC   D2A10524   6.540  26.057  15.287 -0.1402  0.1335 -0.1500
  897DOPC   C3A10525   6.634  26.433  15.018  0.0581  0.2254 -0.2841
  897DOPC   C4A10526   6.960  26.732  14.918 -0.1523  0.0119 -0.0794
  897DOPC   C1B10527   6.645  26.489  15.593 -0.0535 -0.0269  0.1368
  897DOPC   D2B10528   6.201  26.526  15.410 -0.0235  0.0155 -0.0884
  897DOPC   C3B10529   6.121  26.642  14.961  0.0737  0.0918  0.0006
  897DOPC   C4B10530   6.213  26.647  14.485  0.1659  0.1783  0.3086
  898DOPE   NH310531   9.939  29.628  15.166 -0.1220  0.2977  0.0925
  898DOPE   PO410532  10.193  29.712  14.952 -0.1443 -0.0920 -0.0661
  898DOPE   GL110533  10.145  29.622  14.540 -0.4060  0.0430 -0.3002
  898DOPE   GL210534   9.901  29.542  14.576 -0.0780 -0.1030 -0.0524
  898DOPE   C1A10535  10.432  29.634  14.233 -0.2406  0.0820  0.2241
  898DOPE   D2A10536  10.506  29.426  13.879 -0.1132  0.0778  0.0002
  898DOPE   C3A10537  10.641  29.270  13.463 -0.2689 -0.2060 -0.1925
  898DOPE   C4A10538  11.051  29.047  13.268  0.0309  0.0107  0.0776
  898DOPE   C1B10539   9.933  29.515  14.118  0.0871 -0.0799  0.1751
  898DOPE   D2B10540  10.013  29.445  13.649  0.1097  0.0700 -0.0927
  898DOPE   C3B10541   9.695  29.191  13.315 -0.1335 -0.3381  0.1823
  898DOPE   C4B10542   9.320  28.988  13.102 -0.0917 -0.0371  0.0928
  899DOPE   NH310543   8.915  29.555  15.317  0.2008 -0.0855  0.1134
  899DOPE   PO410544   9.016  29.301  15.149  0.0734 -0.0530  0.0441
  899DOPE   GL110545   9.017  29.171  14.830  0.0246 -0.1863  0.0397
  899DOPE   GL210546   8.857  28.953  14.825 -0.0801  0.1432 -0.0241
  899DOPE   C1A10547   9.255  29.049  14.453  0.2744  0.0067  0.1451
  899DOPE   D2A10548   9.225  28.792  14.104 -0.5530 -0.2776 -0.3588
  899DOPE   C3A10549   8.827  28.682  13.908  0.2546  0.1563 -0.2608
  899DOPE   C4A10550   8.676  28.416  13.636 -0.3056 -0.1820  0.3236
  899DOPE   C1B10551   8.691  28.975  14.430 -0.1924  0.1897 -0.3901
  899DOPE   D2B10552   8.494  29.137  14.070 -0.3995 -0.0417  0.1596
  899DOPE   C3B10553   8.448  28.972  13.603  0.1448 -0.2780  0.0298
  899DOPE   C4B10554   8.636  28.786  13.216  0.2459  0.1039 -0.0228
  900POSM   NC310555   5.127  31.633  15.187  0.0516 -0.1190 -0.2222
  900POSM   PO410556   5.502  31.722  15.174 -0.0596 -0.2079 -0.2433
  900POSM   AM110557   5.460  31.605  14.834  0.3447  0.0981 -0.0839
  900POSM   AM210558   5.392  31.363  14.673 -0.3254 -0.2603  0.1241
  900POSM   T1A10559   5.638  31.676  14.359 -0.0084  0.0235  0.1110
  900POSM   C2A10560   5.902  31.341  14.109  0.1087 -0.1729  0.0625
  900POSM   C3A10561   6.114  31.054  13.938 -0.0702  0.1884 -0.1219
  900POSM   C1B10562   5.405  31.273  14.301 -0.3301  0.0622 -0.2427
  900POSM   D2B10563   5.497  31.303  13.874  0.0271 -0.1759  0.1745
  900POSM   C3B10564   5.366  31.332  13.464  0.1668 -0.2630 -0.2535
  900POSM   C4B10565   4.968  31.363  13.330 -0.1824 -0.0108 -0.1107
  901DOPC   NC310566   8.689  23.210  16.466  0.0028  0.3147  0.0756
  901DOPC   PO410567   8.395  23.419  16.334  0.1904 -0.2723  0.0171
  901DOPC   GL110568   8.206  23.420  15.954  0.0709  0.2459  0.0877
  901DOPC   GL210569   8.032  23.216  15.929  0.0391  0.1957 -0.0309
  901DOPC   C1A10570   8.293  23.610  15.550 -0.1104 -0.3647 -0.2165
  901DOPC   D2A10571   8.436  23.648  15.133  0.2007 -0.1327 -0.1489
  901DOPC   C3A10572   8.244  23.405  14.761 -0.1140  0.1280 -0.0042
  901DOPC   C4A10573   7.896  23.118  14.537 -0.2541  0.1121  0.2327
  901DOPC   C1B10574   7.796  22.921  15.641  0.1629 -0.4605  0.2884
  901DOPC   D2B10575   8.088  22.653  15.374 -0.0214 -0.2339 -0.1587
  901DOPC   C3B10576   8.232  22.214  15.415 -0.0103  0.0144 -0.1599
  901DOPC   C4B10577   8.494  22.120  15.048  0.0993  0.0565  0.0535
  902POSM   NC310578   3.158  25.674  16.606  0.0001 -0.1435  0.3390
  902POSM   PO410579   3.165  25.439  16.294  0.0459  0.1305  0.0795
  902POSM   AM110580   3.200  25.302  16.004 -0.2252  0.5862  0.1887
  902POSM   AM210581   3.036  25.185  15.821  0.0466  0.1141 -0.0900
  902POSM   T1A10582   3.576  25.060  15.646 -0.0723 -0.0132 -0.0308
  902POSM   C2A10583   3.934  25.310  15.412  0.2835  0.0796  0.1721
  902POSM   C3A10584   4.189  25.025  15.126  0.0836 -0.2172  0.0738
  902POSM   C1B10585   3.082  24.866  15.687 -0.1962 -0.0999 -0.0367
  902POSM   D2B10586   3.418  24.666  15.419 -0.3283  0.4691  0.1294
  902POSM   C3B10587   3.667  24.964  15.173  0.0611 -0.1718  0.0129
  902POSM   C4B10588   3.847  24.932  14.782  0.1251  0.1725 -0.0536
  903POSM   NC310589   1.560  33.397  16.495  0.0271  0.0053  0.1094
  903POSM   PO410590   1.848  33.683  16.428  0.0742 -0.0300  0.0841
  903POSM   AM110591   1.713  33.708  16.148  0.2421  0.0857 -0.0091
  903POSM   AM210592   1.669  33.506  15.996 -0.0254  0.1932  0.0339
  903POSM   T1A10593   1.354  33.892  15.862  0.0126  0.0282 -0.0473
  903POSM   C2A10594   1.030  34.080  15.603 -0.1384 -0.1789  0.0445
  903POSM   C3A10595   0.623  34.145  15.735  0.2885  0.0403 -0.1080
  903POSM   C1B10596   1.684  33.578  15.688  0.1017 -0.1085 -0.2613
  903POSM   D2B10597   1.458  33.923  15.352 -0.0554 -0.0603  0.2348
  903POSM   C3B10598   1.024  33.855  15.155  0.2286  0.4540  0.0725
  903POSM   C4B10599   0.602  34.063  15.259 -0.4554 -0.1704  0.0074
  904DOPS   CNO10600   5.397  29.430  16.097  0.0617 -0.3453 -0.1792
  904DOPS   PO410601   5.620  29.326  15.844 -0.0685  0.0665  0.1912
  904DOPS   GL110602   5.470  29.362  15.404  0.0626  0.0194 -0.1060
  904DOPS   GL210603   5.205  29.328  15.358 -0.2382  0.0163  0.0257
  904DOPS   C1A10604   5.366  29.788  15.213 -0.0444  0.0342 -0.1642
  904DOPS   D2A10605   5.405  30.141  14.945 -0.3559  0.1169  0.0155
  904DOPS   C3A10606   5.818  30.128  14.697 -0.1445 -0.0317 -0.0093
  904DOPS   C4A10607   6.211  29.932  14.692  0.1073 -0.1666 -0.2865
  904DOPS   C1B10608   5.399  29.261  14.945 -0.1720  0.1106 -0.0625
  904DOPS   D2B10609   5.425  29.328  14.464  0.1456 -0.1040 -0.0310
  904DOPS   C3B10610   5.219  29.368  14.032 -0.1644 -0.0846 -0.1956
  904DOPS   C4B10611   5.332  29.009  13.771  0.0877 -0.0321  0.0252
  905DOPC   NC310612   3.720  32.373  15.184 -0.2790 -0.1807  0.0475
  905DOPC   PO410613   3.372  32.512  15.104  0.2288 -0.0777  0.3912
  905DOPC   GL110614   3.164  32.577  14.775 -0.0583  0.1418 -0.3568
  905DOPC   GL210615   3.069  32.258  14.739  0.1052 -0.0893 -0.1708
  905DOPC   C1A10616   2.981  32.679  14.366 -0.1046 -0.1483 -0.0773
  905DOPC   D2A10617   2.871  32.814  13.955 -0.0815 -0.0251  0.1378
  905DOPC   C3A10618   3.004  32.712  13.524  0.2157 -0.2975  0.0944
  905DOPC   C4A10619   2.668  32.598  13.225 -0.1971 -0.0446  0.3904
  905DOPC   C1B10620   3.171  31.924  14.444 -0.2781 -0.2744 -0.0131
  905DOPC   D2B10621   3.131  31.480  14.474 -0.1198  0.1158 -0.5003
  905DOPC   C3B10622   3.288  31.313  14.049  0.0477  0.0715 -0.1645
  905DOPC   C4B10623   3.289  31.007  13.670 -0.0912 -0.0881 -0.0249
  906DOPE   NH310624   4.572  30.429  15.943 -0.3023 -0.0856  0.0791
  906DOPE   PO410625   4.432  30.469  15.661  0.0729 -0.0035  0.4016
  906DOPE   GL110626   4.497  30.458  15.352 -0.3823  0.0625 -0.1423
  906DOPE   GL210627   4.545  30.704  15.214 -0.0914 -0.3877  0.1080
  906DOPE   C1A10628   4.331  30.366  14.904  0.0091 -0.2146  0.2931
  906DOPE   D2A10629   4.252  30.505  14.501  0.1033 -0.0904 -0.3218
  906DOPE   C3A10630   4.362  30.420  14.028 -0.0607  0.0360 -0.1232
  906DOPE   C4A10631   4.719  30.411  13.765 -0.1268 -0.2071 -0.0838
  906DOPE   C1B10632   4.598  30.804  14.748 -0.0286  0.1203 -0.1901
  906DOPE   D2B10633   4.673  30.758  14.307 -0.3440 -0.0595 -0.0387
  906DOPE   C3B10634   4.478  30.853  13.871 -0.0398 -0.1458  0.0344
  906DOPE   C4B10635   4.496  31.150  13.562 -0.2827 -0.0193 -0.0301
  907DOPE   NH310636   4.492  24.447  17.115  0.1904  0.0859 -0.5136
  907DOPE   PO410637   4.417  24.173  16.960  0.3861 -0.0670  0.2264
  907DOPE   GL110638   4.431  24.196  16.594 -0.1044 -0.4413 -0.1823
  907DOPE   GL210639   4.302  24.382  16.336 -0.4544  0.0781  0.1184
  907DOPE   C1A10640   4.465  23.847  16.239  0.2498  0.3974 -0.1043
  907DOPE   D2A10641   4.671  23.616  15.886 -0.0893  0.0173 -0.0275
  907DOPE   C3A10642   5.072  23.807  15.651 -0.2305 -0.0883 -0.1334
  907DOPE   C4A10643   5.222  23.900  15.201 -0.1551  0.1790 -0.2149
  907DOPE   C1B10644   4.738  24.401  16.152  0.0977  0.0148 -0.3722
  907DOPE   D2B10645   5.119  24.281  15.942  0.1785 -0.0787  0.3261
  907DOPE   C3B10646   5.258  24.340  15.553  0.0588  0.0731  0.0337
  907DOPE   C4B10647   5.567  24.455  15.221 -0.1013  0.2889 -0.0164
  908DOPC   NC310648   7.474  27.050  15.737  0.2273  0.1817 -0.0817
  908DOPC   PO410649   7.194  26.956  15.980  0.0405  0.2429 -0.0936
  908DOPC   GL110650   6.936  26.978  15.736  0.0482  0.0331 -0.2779
  908DOPC   GL210651   6.946  27.212  15.528  0.0581  0.1726 -0.4029
  908DOPC   C1A10652   7.098  26.707  15.373 -0.1307 -0.0571  0.5866
  908DOPC   D2A10653   7.077  26.259  15.310  0.1628 -0.0656 -0.1576
  908DOPC   C3A10654   7.046  26.218  14.877  0.1082  0.1173 -0.0099
  908DOPC   C4A10655   6.807  26.074  14.445  0.0799 -0.1861  0.1206
  908DOPC   C1B10656   6.875  27.201  15.072 -0.2451  0.0532  0.1707
  908DOPC   D2B10657   7.013  27.584  14.795 -0.0543  0.0401 -0.1735
  908DOPC   C3B10658   6.864  27.545  14.388 -0.3622  0.2484  0.0632
  908DOPC   C4B10659   6.416  27.478  14.232 -0.3135 -0.0933  0.0328
  909POSM   NC310660   7.963  31.820  14.411  0.1313  0.3107  0.1257
  909POSM   PO410661   7.986  31.730  14.026 -0.0028  0.2435 -0.1723
  909POSM   AM110662   7.909  31.477  13.847  0.2196 -0.0582  0.0929
  909POSM   AM210663   8.076  31.314  13.667  0.1169 -0.0742 -0.0071
  909POSM   T1A10664   7.614  31.185  13.520 -0.0159 -0.1245 -0.2649
  909POSM   C2A10665   7.513  30.773  13.143  0.1440 -0.0978 -0.4450
  909POSM   C3A10666   7.159  30.456  13.232  0.0640  0.0882  0.0420
  909POSM   C1B10667   8.045  30.965  13.553 -0.4474 -0.1284  0.1816
  909POSM   D2B10668   7.990  30.493  13.467 -0.0657 -0.2516 -0.2385
  909POSM   C3B10669   8.296  30.323  13.157  0.2621  0.1231 -0.0845
  909POSM   C4B10670   8.471  29.871  13.066  0.0623 -0.1533  0.0460
  910POSM   NC310671   2.671  33.167  15.385 -0.0438 -0.1761 -0.0163
  910POSM   PO410672   2.585  33.523  15.572  0.1631  0.0616 -0.2934
  910POSM   AM110673   2.436  33.654  15.319  0.0709 -0.3876  0.3534
  910POSM   AM210674   2.380  33.516  15.047 -0.4405  0.1323 -0.0138
  910POSM   T1A10675   2.340  33.988  14.930  0.1920  0.0679 -0.4472
  910POSM   C2A10676   2.220  34.230  14.579  0.1374 -0.0859  0.0748
  910POSM   C3A10677   2.218  34.129  14.122  0.1542 -0.2851 -0.0901
  910POSM   C1B10678   2.108  33.448  14.813 -0.0105  0.1628  0.0501
  910POSM   D2B10679   1.799  33.661  14.495  0.0162 -0.0078  0.0228
  910POSM   C3B10680   1.896  33.763  14.086 -0.1309  0.1298 -0.2020
  910POSM   C4B10681   2.127  33.864  13.664 -0.0979 -0.2131  0.0968
  911DOPC   NC310682   8.034  32.734  14.179 -0.1758 -0.1670  0.1583
  911DOPC   PO410683   8.417  32.730  14.200 -0.2693 -0.1872 -0.0690
  911DOPC   GL110684   8.339  32.747  13.766 -0.0623  0.0067 -0.0248
  911DOPC   GL210685   8.539  32.973  13.706  0.0207  0.0212 -0.0195
  911DOPC   C1A10686   8.504  32.585  13.308  0.0985 -0.0565 -0.1792
  911DOPC   D2A10687   8.593  32.259  12.986  0.0205 -0.1277 -0.0152
  911DOPC   C3A10688   8.301  32.096  12.704 -0.0037 -0.1363 -0.1414
  911DOPC   C4A10689   8.074  31.680  12.666  0.1284 -0.2179  0.1048
  911DOPC   C1B10690   8.589  33.125  13.253  0.0512 -0.1016 -0.3162
  911DOPC   D2B10691   8.592  33.317  12.805 -0.3089 -0.0783 -0.1351
  911DOPC   C3B10692   8.393  33.706  12.789  0.2064 -0.0011 -0.0211
  911DOPC   C4B10693   8.049  33.940  12.631  0.0167 -0.4149  0.0089
  912DOPS   CNO10694   4.368  29.394  15.693 -0.0053  0.0947 -0.0125
  912DOPS   PO410695   4.679  29.574  15.612 -0.1480  0.1336 -0.1821
  912DOPS   GL110696   4.574  29.556  15.326 -0.3994  0.4629 -0.0666
  912DOPS   GL210697   4.340  29.432  15.175  0.1217  0.2131 -0.3115
  912DOPS   C1A10698   4.860  29.470  14.928  0.2967  0.2530 -0.1682
  912DOPS   D2A10699   5.162  29.651  14.732 -0.2422 -0.0345 -0.3493
  912DOPS   C3A10700   4.994  29.977  14.559  0.3747 -0.1429 -0.3838
  912DOPS   C4A10701   4.734  30.331  14.472 -0.2931  0.1785 -0.0621
  912DOPS   C1B10702   4.232  29.476  14.701 -0.0161 -0.0226  0.1896
  912DOPS   D2B10703   4.172  29.580  14.255 -0.1441 -0.4245 -0.0490
  912DOPS   C3B10704   3.740  29.444  14.079 -0.1667 -0.2719  0.1132
  912DOPS   C4B10705   3.344  29.225  14.296 -0.1837 -0.1574 -0.1794
  913DOPE   NH310706  10.691  27.676  15.420  0.0271  0.0462  0.0353
  913DOPE   PO410707  10.716  27.486  15.168 -0.0648  0.1972  0.2939
  913DOPE   GL110708  10.875  27.644  14.854 -0.3132  0.2811  0.0183
  913DOPE   GL210709  10.655  27.831  14.829 -0.2773  0.1569 -0.0448
  913DOPE   C1A10710  10.841  27.457  14.432  0.0668 -0.2276  0.1627
  913DOPE   D2A10711  10.748  27.532  13.998 -0.0199  0.3495 -0.0736
  913DOPE   C3A10712  10.291  27.514  13.765  0.0530 -0.4380 -0.2102
  913DOPE   C4A10713  10.005  27.466  13.405 -0.0215  0.1526 -0.0420
  913DOPE   C1B10714  10.442  27.775  14.441 -0.0541  0.1423  0.0439
  913DOPE   D2B10715  10.325  27.998  14.061 -0.1727  0.2697  0.0683
  913DOPE   C3B10716   9.897  28.110  13.961 -0.1749 -0.2295 -0.1922
  913DOPE   C4B10717   9.500  28.098  13.779 -0.1036  0.3046  0.1175
  914DOPS   CNO10718   5.753  32.030  14.801  0.0867  0.1027  0.1551
  914DOPS   PO410719   5.348  32.062  14.850 -0.1803  0.2548 -0.1585
  914DOPS   GL110720   5.206  31.998  14.535 -0.2011 -0.0199  0.0785
  914DOPS   GL210721   5.145  31.735  14.498 -0.0786 -0.0411  0.2183
  914DOPS   C1A10722   4.925  32.108  14.087 -0.1415  0.1249 -0.3500
  914DOPS   D2A10723   4.752  32.343  13.740 -0.1051 -0.1985 -0.1196
  914DOPS   C3A10724   4.734  32.476  13.337  0.0300  0.2029 -0.2062
  914DOPS   C4A10725   4.868  32.529  12.867  0.2512  0.0368 -0.2637
  914DOPS   C1B10726   5.226  31.717  14.035 -0.3157  0.1780 -0.0160
  914DOPS   D2B10727   5.198  31.865  13.603  0.0008 -0.1825 -0.0328
  914DOPS   C3B10728   5.252  32.338  13.627 -0.0100 -0.3236 -0.3244
  914DOPS   C4B10729   5.305  32.666  13.989  0.2565  0.1153 -0.0085
  915DOPS   CNO10730   2.269  25.405  16.313  0.1749  0.0058  0.0764
  915DOPS   PO410731   2.609  25.316  16.277 -0.0698  0.1702  0.0787
  915DOPS   GL110732   2.482  25.193  15.961  0.1471  0.0018  0.1000
  915DOPS   GL210733   2.554  25.282  15.666  0.2990  0.2217 -0.1760
  915DOPS   C1A10734   2.230  24.913  15.744 -0.0413  0.3885 -0.1325
  915DOPS   D2A10735   2.171  24.732  15.312 -0.1371 -0.0109  0.2536
  915DOPS   C3A10736   1.856  24.444  15.444  0.0360  0.0917 -0.2695
  915DOPS   C4A10737   1.548  24.128  15.640  0.0024 -0.2993  0.2078
  915DOPS   C1B10738   2.604  24.937  15.381 -0.0296  0.1423 -0.0215
  915DOPS   D2B10739   2.512  24.693  14.980  0.0709 -0.0881  0.0287
  915DOPS   C3B10740   2.807  24.641  14.629  0.1171 -0.1066 -0.2448
  915DOPS   C4B10741   3.098  24.316  14.530  0.3118 -0.1614  0.2319
  916POSM   NC310742   2.465  30.571  15.987  0.1100 -0.1940 -0.0817
  916POSM   PO410743   2.362  30.930  16.139  0.1117 -0.0367 -0.2777
  916POSM   AM110744   2.324  30.923  15.818 -0.0997 -0.1929 -0.0407
  916POSM   AM210745   2.153  30.996  15.620 -0.3418  0.0304 -0.3857
  916POSM   T1A10746   2.501  30.753  15.368  0.2925 -0.1531 -0.1440
  916POSM   C2A10747   2.641  30.982  15.058  0.2096 -0.1988 -0.0689
  916POSM   C3A10748   2.702  30.874  14.605 -0.0476  0.3705 -0.2189
  916POSM   C1B10749   2.124  31.057  15.321  0.2557 -0.0034 -0.1799
  916POSM   D2B10750   2.015  30.811  14.981  0.3795  0.0159  0.3180
  916POSM   C3B10751   2.179  30.871  14.647  0.2211 -0.0800  0.0385
  916POSM   C4B10752   2.398  31.147  14.318  0.0967  0.1160  0.0814
  917POSM   NC310753   8.665  28.517  15.064 -0.1013 -0.0197 -0.0971
  917POSM   PO410754   8.396  28.729  15.317  0.1725 -0.0235  0.0368
  917POSM   AM110755   8.215  28.907  15.049 -0.0800 -0.1459 -0.1585
  917POSM   AM210756   8.354  28.981  14.816 -0.1206 -0.0764 -0.0971
  917POSM   T1A10757   7.944  29.165  14.676 -0.1313  0.2281 -0.0413
  917POSM   C2A10758   7.972  29.257  14.232 -0.0714  0.2427 -0.0875
  917POSM   C3A10759   8.060  29.020  13.863  0.1314  0.2442 -0.0638
  917POSM   C1B10760   8.247  28.806  14.554 -0.3753 -0.0054 -0.0528
  917POSM   D2B10761   8.353  28.662  14.146 -0.0461 -0.0550  0.0640
  917POSM   C3B10762   8.568  28.260  14.110  0.1329  0.4800 -0.1408
  917POSM   C4B10763   8.645  27.934  13.744  0.0715 -0.0203  0.0980
  918DOPC   NC310764   3.719  25.501  15.892 -0.0218  0.1518  0.0724
  918DOPC   PO410765   3.362  25.718  15.810 -0.3580 -0.0203 -0.3736
  918DOPC   GL110766   3.184  25.431  15.505 -0.1305 -0.0074  0.2044
  918DOPC   GL210767   3.387  25.570  15.305 -0.1411 -0.1075 -0.0399
  918DOPC   C1A10768   3.214  25.113  15.240 -0.0659  0.0387 -0.0178
  918DOPC   D2A10769   2.942  25.080  14.781 -0.1750  0.0666 -0.5260
  918DOPC   C3A10770   2.786  25.380  14.464  0.1984  0.1149 -0.2089
  918DOPC   C4A10771   2.571  25.665  14.162  0.4148 -0.1629  0.3164
  918DOPC   C1B10772   3.564  25.401  14.925  0.0083 -0.1689  0.3519
  918DOPC   D2B10773   3.889  25.383  14.523 -0.0591  0.1164  0.0953
  918DOPC   C3B10774   3.909  25.588  14.132  0.0384 -0.2489 -0.0369
  918DOPC   C4B10775   3.799  25.746  13.699  0.1116  0.1139 -0.0631
  919POSM   NC310776   5.652  33.701  14.961 -0.0487  0.1212 -0.0079
  919POSM   PO410777   5.386  33.482  14.948  0.2250  0.1501  0.1027
  919POSM   AM110778   5.172  33.514  14.711  0.1987  0.0131 -0.0684
  919POSM   AM210779   4.975  33.392  14.577  0.1189  0.0695 -0.1398
  919POSM   T1A10780   5.132  33.847  14.348  0.3209 -0.1266 -0.3744
  919POSM   C2A10781   5.041  34.030  13.980 -0.1342 -0.0854  0.1951
  919POSM   C3A10782   4.904  33.915  13.564 -0.3484  0.1623 -0.1326
  919POSM   C1B10783   5.128  33.252  14.255  0.1907  0.2201  0.0113
  919POSM   D2B10784   5.344  33.131  13.783  0.3189  0.4421 -0.1071
  919POSM   C3B10785   5.158  33.450  13.431 -0.0750  0.1207  0.0794
  919POSM   C4B10786   4.961  33.696  13.034 -0.0726 -0.2794  0.5976
  920DOPC   NC310787   6.272  29.665  15.094 -0.0999 -0.0100 -0.0346
  920DOPC   PO410788   6.633  29.485  15.239  0.0545 -0.2848 -0.1495
  920DOPC   GL110789   6.698  29.641  14.904  0.0405 -0.0019  0.1796
  920DOPC   GL210790   6.968  29.551  14.833  0.2952 -0.0898  0.0643
  920DOPC   C1A10791   6.501  29.454  14.518 -0.5476 -0.0238  0.0074
  920DOPC   D2A10792   6.306  29.398  14.079 -0.0021  0.3454 -0.2566
  920DOPC   C3A10793   6.351  29.018  13.875  0.1033 -0.1368 -0.0629
  920DOPC   C4A10794   6.141  28.625  14.022  0.1464 -0.0847  0.1400
  920DOPC   C1B10795   7.087  29.759  14.436 -0.3199 -0.1039  0.1224
  920DOPC   D2B10796   7.170  29.796  14.009  0.0352  0.1597  0.1219
  920DOPC   C3B10797   6.913  29.785  13.649  0.1795 -0.0612  0.1106
  920DOPC   C4B10798   6.526  29.595  13.608  0.3531  0.2312 -0.3177
  921POSM   NC310799   7.637  28.809  15.089 -0.0092  0.0466  0.0059
  921POSM   PO410800   7.280  28.709  15.182 -0.2695  0.2871 -0.1719
  921POSM   AM110801   7.096  28.772  14.899 -0.0542 -0.0123  0.3060
  921POSM   AM210802   6.961  28.584  14.757  0.1656 -0.0470  0.2333
  921POSM   T1A10803   7.018  29.154  14.551  0.0227 -0.4408  0.1846
  921POSM   C2A10804   7.236  29.285  14.172 -0.2672  0.1312 -0.0014
  921POSM   C3A10805   7.596  29.069  13.957 -0.2079 -0.0877  0.0010
  921POSM   C1B10806   7.035  28.646  14.443  0.1517  0.0465  0.0093
  921POSM   D2B10807   7.107  28.840  14.033 -0.2073  0.2959 -0.0708
  921POSM   C3B10808   6.825  29.226  13.879  0.2737  0.0050 -0.0744
  921POSM   C4B10809   6.725  29.640  14.107 -0.2557  0.0310 -0.3281
  922POSM   NC310810   8.846  24.548  15.947 -0.3468 -0.1108 -0.2746
  922POSM   PO410811   8.551  24.324  15.922  0.0703 -0.2833  0.0993
  922POSM   AM110812   8.455  24.269  15.593  0.1412  0.1296 -0.0761
  922POSM   AM210813   8.245  24.135  15.434 -0.3555  0.0627 -0.1545
  922POSM   T1A10814   8.402  24.340  15.057  0.1274 -0.0852  0.2742
  922POSM   C2A10815   8.404  24.457  14.615 -0.2232 -0.1014  0.1935
  922POSM   C3A10816   8.332  24.748  14.270 -0.0259 -0.0541  0.0451
  922POSM   C1B10817   8.034  23.995  15.155  0.3569  0.1041 -0.0452
  922POSM   D2B10818   7.730  23.820  14.875 -0.0777  0.3717  0.1201
  922POSM   C3B10819   7.330  23.658  14.707 -0.1700  0.0017 -0.0499
  922POSM   C4B10820   7.038  23.809  14.363  0.2329  0.1964 -0.0852
  923DOPC   NC310821   2.799  26.799  16.463 -0.3376 -0.2621 -0.1494
  923DOPC   PO410822   2.465  26.958  16.451 -0.2121  0.1783 -0.0937
  923DOPC   GL110823   2.309  26.966  16.117 -0.2392  0.0865 -0.0165
  923DOPC   GL210824   2.045  26.893  16.063 -0.2717 -0.0044  0.0535
  923DOPC   C1A10825   2.396  27.046  15.629  0.1278  0.2407 -0.0946
  923DOPC   D2A10826   2.541  26.799  15.288  0.0174  0.2711  0.2289
  923DOPC   C3A10827   2.272  26.497  15.088 -0.2801  0.1915 -0.1069
  923DOPC   C4A10828   2.200  26.346  14.656  0.0899 -0.1378  0.0649
  923DOPC   C1B10829   2.028  26.603  15.658  0.1548 -0.1183 -0.1519
  923DOPC   D2B10830   1.730  26.420  15.303 -0.1196  0.3025 -0.5435
  923DOPC   C3B10831   1.970  26.044  15.102  0.2517 -0.0418  0.3219
  923DOPC   C4B10832   1.980  25.616  15.047  0.1795 -0.1316 -0.1238
  924DOPE   NH310833   2.879  25.673  15.936 -0.1111 -0.1655 -0.1688
  924DOPE   PO410834   2.852  25.718  15.615  0.3074  0.2245 -0.1537
  924DOPE   GL110835   2.751  25.707  15.236 -0.0934  0.1393  0.1605
  924DOPE   GL210836   2.761  25.388  15.206 -0.0049 -0.1893  0.0706
  924DOPE   C1A10837   3.040  25.586  14.888  0.0426  0.0231 -0.0786
  924DOPE   D2A10838   3.286  25.656  14.534 -0.2673 -0.0443 -0.3720
  924DOPE   C3A10839   3.106  25.648  14.093 -0.3860  0.3717  0.2155
  924DOPE   C4A10840   3.067  25.542  13.643 -0.1221  0.0800  0.0899
  924DOPE   C1B10841   2.485  25.532  14.857 -0.1626 -0.0462 -0.0537
  924DOPE   D2B10842   2.212  25.824  14.559  0.0975  0.1923  0.0085
  924DOPE   C3B10843   1.793  25.601  14.553  0.3692  0.2800 -0.0452
  924DOPE   C4B10844   1.421  25.360  14.812  0.0213 -0.1093  0.0437
  925DOPC   NC310845   1.376  28.173  16.636  0.2411  0.1386 -0.3049
  925DOPC   PO410846   1.568  27.832  16.583  0.2371 -0.0556 -0.0440
  925DOPC   GL110847   1.510  27.766  16.235  0.0412  0.0370 -0.0724
  925DOPC   GL210848   1.317  27.593  16.023 -0.2026  0.2277  0.2223
  925DOPC   C1A10849   1.460  28.051  15.882  0.1217 -0.2087 -0.0210
  925DOPC   D2A10850   1.268  28.371  15.689 -0.1530 -0.1256  0.2102
  925DOPC   C3A10851   1.193  28.139  15.310 -0.1680 -0.1972  0.1440
  925DOPC   C4A10852   1.120  27.963  14.843  0.1465 -0.0026 -0.1726
  925DOPC   C1B10853   1.480  27.595  15.607  0.1946  0.1503  0.5095
  925DOPC   D2B10854   1.759  27.902  15.332 -0.0610 -0.1313 -0.1041
  925DOPC   C3B10855   1.579  28.126  14.931  0.1332  0.1750 -0.0410
  925DOPC   C4B10856   1.749  28.165  14.467 -0.1791 -0.2970 -0.1088
  926POSM   NC310857   8.823  30.577  15.446 -0.2463  0.1474  0.3360
  926POSM   PO410858   9.097  30.457  15.135  0.2584 -0.2828 -0.0025
  926POSM   AM110859   9.033  30.302  14.864 -0.3131  0.3153  0.1249
  926POSM   AM210860   8.793  30.286  14.715  0.3734 -0.0107  0.0699
  926POSM   T1A10861   9.394  30.096  14.532  0.3009  0.0816 -0.0949
  926POSM   C2A10862   9.634  29.998  14.163  0.2776  0.3943  0.0248
  926POSM   C3A10863  10.068  29.963  14.016 -0.1114 -0.3220 -0.1140
  926POSM   C1B10864   8.781  30.073  14.460 -0.0641 -0.2949  0.1466
  926POSM   D2B10865   9.075  29.900  14.098 -0.1504 -0.0657 -0.1136
  926POSM   C3B10866   9.097  29.648  13.726 -0.1343 -0.1398  0.0727
  926POSM   C4B10867   9.289  29.578  13.338  0.1086 -0.0957 -0.0588
  927POSM   NC310868   1.007  34.144  16.153 -0.0816 -0.0075 -0.0766
  927POSM   PO410869   1.065  33.929  16.455 -0.0411 -0.1921 -0.1268
  927POSM   AM110870   0.999  33.668  16.232  0.1728 -0.1545 -0.0665
  927POSM   AM210871   1.163  33.443  16.120 -0.0563 -0.1437  0.2738
  927POSM   T1A10872   0.783  33.608  15.783 -0.0807  0.1258  0.0407
  927POSM   C2A10873   0.635  33.488  15.345  0.0562 -0.3308  0.1683
  927POSM   C3A10874   0.566  33.705  14.910  0.1029  0.2555 -0.1827
  927POSM   C1B10875   1.240  33.352  15.805 -0.0061 -0.0643 -0.4794
  927POSM   D2B10876   1.124  33.406  15.337  0.2677 -0.2731 -0.0853
  927POSM   C3B10877   1.031  33.401  14.855 -0.0197  0.0471  0.1254
  927POSM   C4B10878   0.803  33.243  14.416 -0.0560 -0.2073  0.1167
  928POSM   NC310879   3.507  28.931  16.552 -0.1524  0.1370  0.0020
  928POSM   PO410880   3.887  28.900  16.417 -0.0984 -0.0106 -0.1564
  928POSM   AM110881   3.813  28.976  16.103 -0.1467  0.0420 -0.2097
  928POSM   AM210882   3.915  29.012  15.826 -0.2907  0.0930 -0.3126
  928POSM   T1A10883   3.554  28.695  15.745 -0.1708 -0.0741 -0.0960
  928POSM   C2A10884   3.422  28.303  15.570  0.4297  0.0197 -0.5741
  928POSM   C3A10885   3.232  28.020  15.285 -0.0403  0.1121  0.0653
  928POSM   C1B10886   3.723  29.116  15.580  0.1498 -0.1708  0.0226
  928POSM   D2B10887   3.403  29.330  15.302 -0.2172  0.0035  0.1120
  928POSM   C3B10888   3.260  29.175  14.843  0.2140 -0.1476 -0.0623
  928POSM   C4B10889   3.391  28.731  14.691 -0.0825 -0.0324 -0.0891
  929POSM   NC310890   4.096  34.367  15.683 -0.0401 -0.1089  0.0496
  929POSM   PO410891   4.009  34.190  15.310 -0.0630 -0.2020 -0.0992
  929POSM   AM110892   3.868  34.299  15.024 -0.0782 -0.3092  0.2721
  929POSM   AM210893   3.959  34.207  14.753  0.0553 -0.0159  0.0424
  929POSM   T1A10894   3.481  34.339  14.710 -0.2537  0.0410  0.1097
  929POSM   C2A10895   3.041  34.337  14.467 -0.0076 -0.2934  0.0211
  929POSM   C3A10896   2.670  34.196  14.332  0.0449  0.0047 -0.2060
  929POSM   C1B10897   3.887  34.075  14.487  0.1212  0.0814  0.1822
  929POSM   D2B10898   3.619  33.948  14.152 -0.4381  0.1718 -0.3867
  929POSM   C3B10899   3.806  33.628  13.866 -0.1752  0.0411  0.0759
  929POSM   C4B10900   3.923  33.506  13.417 -0.3476 -0.1496 -0.1891
  930DOPC   NC310901  10.622  31.151  14.859 -0.1827  0.0245 -0.1710
  930DOPC   PO410902  10.395  30.973  14.629  0.3985  0.2461  0.0269
  930DOPC   GL110903  10.470  30.714  14.345 -0.1997  0.1883 -0.2299
  930DOPC   GL210904  10.657  30.457  14.425  0.2769  0.1511  0.0570
  930DOPC   C1A10905  10.700  30.679  13.946  0.0192 -0.1168  0.0965
  930DOPC   D2A10906  10.802  30.394  13.637 -0.1575  0.1196  0.2166
  930DOPC   C3A10907  10.692  30.120  13.290 -0.2400 -0.1372 -0.2064
  930DOPC   C4A10908  10.642  29.720  13.164 -0.1885  0.1868 -0.4018
  930DOPC   C1B10909  11.055  30.310  14.192  0.4348 -0.3128  0.0718
  930DOPC   D2B10910  11.153  29.985  13.949  0.1610  0.3150  0.0982
  930DOPC   C3B10911  11.190  30.058  13.529 -0.0094  0.3284  0.1340
  930DOPC   C4B10912  11.181  30.369  13.217 -0.1781 -0.1561  0.3449
  931POSM   NC310913  10.322  30.072  14.482 -0.0807  0.2082  0.2535
  931POSM   PO410914  10.080  30.408  14.445 -0.3200  0.0508 -0.4717
  931POSM   AM110915  10.220  30.377  14.141 -0.0596  0.2796 -0.0209
  931POSM   AM210916  10.293  30.393  13.856  0.1627 -0.1215  0.3209
  931POSM   T1A10917  10.647  30.090  13.976  0.1888  0.2311 -0.1216
  931POSM   C2A10918  10.808  29.739  13.663  0.0386 -0.1974  0.2249
  931POSM   C3A10919  11.149  29.489  13.488  0.1728  0.2391 -0.2057
  931POSM   C1B10920  10.317  30.209  13.611 -0.2617  0.2818 -0.3201
  931POSM   D2B10921  10.144  29.874  13.427 -0.2911 -0.0357 -0.1064
  931POSM   C3B10922  10.291  30.041  12.988  0.2621 -0.0200  0.0844
  931POSM   C4B10923  10.218  29.939  12.590  0.0260 -0.1193  0.4479
  932DOPS   CNO10924   4.399  28.761  16.207  0.3576  0.1272 -0.0605
  932DOPS   PO410925   4.596  28.982  15.925 -0.2560  0.2728 -0.0824
  932DOPS   GL110926   4.506  29.012  15.507  0.2489 -0.0417 -0.2165
  932DOPS   GL210927   4.781  29.090  15.361  0.0783  0.2192  0.1638
  932DOPS   C1A10928   4.297  28.898  15.149 -0.0658  0.1602  0.2923
  932DOPS   D2A10929   4.314  28.907  14.665 -0.0502  0.1294 -0.0172
  932DOPS   C3A10930   4.531  29.153  14.332  0.0973  0.2006  0.1272
  932DOPS   C4A10931   4.787  29.565  14.320  0.2088 -0.2551  0.1126
  932DOPS   C1B10932   4.782  28.984  14.905  0.1698 -0.0126  0.0148
  932DOPS   D2B10933   4.968  29.006  14.434 -0.1530 -0.1458  0.0078
  932DOPS   C3B10934   4.778  28.800  14.071  0.4228  0.1258 -0.1176
  932DOPS   C4B10935   4.310  28.671  14.043  0.2547  0.1082 -0.1356
  933DOPS   CNO10936   1.123  30.263  16.202 -0.2652 -0.2889  0.0645
  933DOPS   PO410937   1.012  30.556  15.975 -0.0036 -0.1783  0.0983
  933DOPS   GL110938   0.867  30.655  15.559  0.1184  0.2008  0.1340
  933DOPS   GL210939   0.914  30.326  15.496  0.0024 -0.1405  0.0144
  933DOPS   C1A10940   0.819  30.793  15.079 -0.1894 -0.3610 -0.0836
  933DOPS   D2A10941   0.980  30.871  14.681 -0.2816  0.1233 -0.2212
  933DOPS   C3A10942   0.756  31.130  14.383  0.1641  0.1287  0.1589
  933DOPS   C4A10943   0.723  31.168  13.905 -0.1378 -0.1254 -0.0838
  933DOPS   C1B10944   0.464  30.403  15.300 -0.0497  0.0786 -0.1964
  933DOPS   D2B10945   0.180  30.317  14.938 -0.1128 -0.0714 -0.1622
  933DOPS   C3B10946  -0.080  30.552  14.583  0.1097 -0.1909 -0.0049
  933DOPS   C4B10947  -0.450  30.641  14.303  0.0909 -0.2773 -0.1107
  934DOPS   CNO10948   6.362  31.432  14.714  0.1412  0.2466  0.1241
  934DOPS   PO410949   6.272  31.265  15.078  0.3589  0.0447  0.3285
  934DOPS   GL110950   6.107  30.916  14.806 -0.0400 -0.1126 -0.0563
  934DOPS   GL210951   5.777  31.056  14.818  0.2500  0.5123 -0.0021
  934DOPS   C1A10952   5.953  30.880  14.375 -0.1464 -0.1395  0.2769
  934DOPS   D2A10953   5.614  30.813  14.111 -0.0508 -0.2083  0.0843
  934DOPS   C3A10954   5.531  30.857  13.715  0.0474  0.1278  0.1646
  934DOPS   C4A10955   5.343  30.821  13.246  0.0863  0.1285 -0.1194
  934DOPS   C1B10956   5.666  30.623  14.643 -0.1681 -0.0628  0.1773
  934DOPS   D2B10957   5.338  30.329  14.490  0.1333  0.1322  0.2567
  934DOPS   C3B10958   5.231  30.349  14.029  0.1203 -0.2518  0.0557
  934DOPS   C4B10959   5.316  30.431  13.564  0.0422  0.0999 -0.0496
  935POSM   NC310960   8.057  26.457  16.156  0.1304 -0.2328 -0.1027
  935POSM   PO410961   8.357  26.584  15.946 -0.0065 -0.2389  0.0353
  935POSM   AM110962   8.415  26.505  15.652 -0.0694  0.0534 -0.5065
  935POSM   AM210963   8.239  26.365  15.450 -0.2111 -0.2436  0.0815
  935POSM   T1A10964   8.585  26.586  15.193 -0.2722 -0.1748 -0.0836
  935POSM   C2A10965   8.670  26.448  14.756  0.1957  0.1086  0.1474
  935POSM   C3A10966   8.735  26.469  14.338 -0.1407  0.3514  0.0279
  935POSM   C1B10967   8.360  26.156  15.182  0.1454  0.0349  0.0752
  935POSM   D2B10968   8.259  25.949  14.806 -0.3334 -0.0126 -0.1404
  935POSM   C3B10969   8.529  25.548  14.684 -0.0063 -0.1588  0.0245
  935POSM   C4B10970   8.926  25.468  14.666 -0.0634 -0.1328 -0.1763
  936DOPE   NH310971   8.837  33.838  13.988 -0.0623 -0.2829 -0.0861
  936DOPE   PO410972   8.668  33.779  14.287  0.0382 -0.0149 -0.0235
  936DOPE   GL110973   8.342  33.922  13.920 -0.1177 -0.2855  0.3031
  936DOPE   GL210974   8.315  33.696  13.938 -0.1398  0.2282 -0.3505
  936DOPE   C1A10975   8.344  33.933  13.457 -0.1856  0.3953  0.0006
  936DOPE   D2A10976   8.627  34.011  13.073  0.2421  0.3679  0.0200
  936DOPE   C3A10977   8.801  34.429  13.074 -0.2458 -0.1991  0.2329
  936DOPE   C4A10978   9.089  34.705  12.775 -0.1069 -0.3946  0.1223
  936DOPE   C1B10979   7.943  33.727  13.642  0.1708  0.0423 -0.3535
  936DOPE   D2B10980   7.531  33.976  13.563  0.0365  0.0077  0.2529
  936DOPE   C3B10981   7.172  33.705  13.516 -0.1021 -0.3470 -0.0816
  936DOPE   C4B10982   6.748  33.812  13.416  0.1792 -0.1852  0.1549
  937POSM   NC310983   5.749  24.188  16.636  0.0017  0.2398  0.0458
  937POSM   PO410984   5.439  24.464  16.649 -0.3430  0.1686 -0.1182
  937POSM   AM110985   5.295  24.254  16.422  0.5383  0.0217  0.2048
  937POSM   AM210986   5.435  24.085  16.265  0.1393  0.0446  0.1301
  937POSM   T1A10987   4.978  23.877  16.282  0.4649 -0.1196  0.1957
  937POSM   C2A10988   4.908  23.401  16.246  0.1158 -0.0468 -0.1781
  937POSM   C3A10989   5.165  23.046  16.287 -0.2275  0.1301  0.0935
  937POSM   C1B10990   5.589  23.970  15.991  0.0625  0.2133 -0.0406
  937POSM   D2B10991   5.600  23.991  15.502  0.2187  0.1238 -0.0023
  937POSM   C3B10992   5.741  23.668  15.173  0.1373  0.0599 -0.1636
  937POSM   C4B10993   5.600  23.282  15.112  0.2341  0.3482  0.1371
  938DOPS   CNO10994   8.280  30.202  15.424  0.0834 -0.1021 -0.3072
  938DOPS   PO410995   7.899  30.315  15.352 -0.0579 -0.0284 -0.0929
  938DOPS   GL110996   7.743  30.148  15.062 -0.2519 -0.0277  0.4418
  938DOPS   GL210997   7.530  29.916  14.991 -0.0504 -0.0882 -0.0101
  938DOPS   C1A10998   7.821  30.157  14.621 -0.0683  0.1203 -0.0683
  938DOPS   D2A10999   7.591  30.067  14.253  0.0530 -0.3781  0.0524
  938DOPS   C3A11000   7.699  30.074  13.811 -0.1216 -0.0060  0.0531
  938DOPS   C4A11001   7.551  30.044  13.394 -0.0784  0.1558 -0.0561
  938DOPS   C1B11002   7.345  30.307  14.756 -0.1018 -0.0477 -0.1810
  938DOPS   D2B11003   6.891  30.365  14.731  0.1315  0.2155  0.2022
  938DOPS   C3B11004   6.636  30.014  14.453  0.1958 -0.1500 -0.0626
  938DOPS   C4B11005   6.270  29.980  14.143 -0.0245  0.0979 -0.1532
  939POSM   NC311006  10.187  27.847  15.730  0.1672  0.0136  0.3674
  939POSM   PO411007  10.149  27.557  15.409 -0.0757 -0.0758 -0.0525
  939POSM   AM111008  10.211  27.693  15.111  0.1123  0.0394  0.0219
  939POSM   AM211009  10.279  27.577  14.899 -0.0487 -0.2196 -0.1344
  939POSM   T1A11010  10.166  28.044  14.750 -0.1889 -0.0576 -0.3420
  939POSM   C2A11011  10.033  28.303  14.367 -0.1767 -0.1526 -0.4500
  939POSM   C3A11012  10.090  28.609  14.017 -0.0774 -0.1916 -0.0435
  939POSM   C1B11013  10.012  27.485  14.727  0.2003  0.0254 -0.1276
  939POSM   D2B11014   9.675  27.302  14.484  0.5236  0.0715  0.0018
  939POSM   C3B11015   9.848  27.156  14.092 -0.0516  0.0836 -0.1369
  939POSM   C4B11016   9.693  26.973  13.699  0.2209  0.1956  0.3823
  940POSM   NC311017   5.539  25.660  16.104  0.0593 -0.1593  0.0481
  940POSM   PO411018   5.430  26.019  16.266 -0.0897 -0.0544  0.2194
  940POSM   AM111019   5.426  26.195  16.002  0.1479 -0.1680  0.3384
  940POSM   AM211020   5.211  26.273  15.841 -0.0087  0.1067  0.5584
  940POSM   T1A11021   5.637  26.379  15.602  0.0141 -0.1876  0.1721
  940POSM   C2A11022   5.695  26.618  15.248 -0.0112 -0.0528 -0.0634
  940POSM   C3A11023   5.660  26.740  14.778 -0.1809  0.1424 -0.2886
  940POSM   C1B11024   5.232  26.052  15.567  0.3415  0.1814 -0.0595
  940POSM   D2B11025   5.507  26.081  15.208 -0.0406  0.0958 -0.1407
  940POSM   C3B11026   5.382  26.337  14.845  0.1858  0.2479 -0.0143
  940POSM   C4B11027   5.226  26.525  14.493  0.0530 -0.1075  0.1560
  941POSM   NC311028   2.310  31.398  15.891  0.1898  0.1947 -0.0038
  941POSM   PO411029   2.579  31.334  15.629  0.1919 -0.0187 -0.0737
  941POSM   AM111030   2.559  31.365  15.324  0.2219  0.0564 -0.1197
  941POSM   AM211031   2.702  31.434  15.141 -0.1507 -0.0564  0.0582
  941POSM   T1A11032   2.288  31.258  14.892 -0.0660  0.1668  0.0648
  941POSM   C2A11033   2.041  31.450  14.526 -0.1003 -0.1444  0.1591
  941POSM   C3A11034   2.137  31.634  14.104  0.0582 -0.2148  0.0518
  941POSM   C1B11035   2.701  31.502  14.805 -0.1571  0.0337  0.3798
  941POSM   D2B11036   2.554  31.637  14.383  0.0084 -0.3240  0.4951
  941POSM   C3B11037   2.638  31.479  13.993 -0.0543  0.2863  0.2282
  941POSM   C4B11038   2.828  31.013  13.981  0.0476  0.1577 -0.0889
  942DOPE   NH311039  11.386  31.493  14.803  0.0252 -0.3412 -0.0134
  942DOPE   PO411040  11.195  31.316  14.578 -0.4167  0.0178 -0.1854
  942DOPE   GL111041  11.396  31.078  14.235  0.0331  0.0934 -0.0626
  942DOPE   GL211042  11.146  30.903  14.065 -0.1672 -0.2595  0.1194
  942DOPE   C1A11043  11.430  31.106  13.764 -0.0722  0.3793  0.2565
  942DOPE   D2A11044  11.661  31.055  13.367 -0.0236  0.1674 -0.0990
  942DOPE   C3A11045  11.514  30.890  13.016  0.3133  0.1123  0.0310
  942DOPE   C4A11046  11.233  30.640  12.756 -0.0018  0.0247 -0.2183
  942DOPE   C1B11047  11.377  30.619  13.840  0.3619  0.1657  0.1748
  942DOPE   D2B11048  11.595  30.605  13.425 -0.1448 -0.0215  0.2237
  942DOPE   C3B11049  11.734  30.346  13.047  0.2536 -0.1767 -0.1821
  942DOPE   C4B11050  12.009  30.125  12.789 -0.2034 -0.1785 -0.0670
  943DOPE   NH311051   1.565  31.554  15.518  0.3965 -0.0936  0.2108
  943DOPE   PO411052   1.469  31.309  15.742 -0.0254 -0.2926  0.0314
  943DOPE   GL111053   1.435  31.094  15.525  0.2697  0.1028  0.2726
  943DOPE   GL211054   1.642  30.885  15.528 -0.0932 -0.0018  0.2115
  943DOPE   C1A11055   1.566  31.046  15.069  0.2058  0.1373  0.0112
  943DOPE   D2A11056   1.666  30.970  14.585 -0.1121  0.3802 -0.1227
  943DOPE   C3A11057   1.338  30.755  14.270 -0.2395 -0.1263 -0.2406
  943DOPE   C4A11058   1.103  30.440  14.039  0.1290  0.1716 -0.1890
  943DOPE   C1B11059   1.314  30.626  15.347  0.0838 -0.2673 -0.0007
  943DOPE   D2B11060   1.145  30.440  15.047  0.1570 -0.0971  0.1249
  943DOPE   C3B11061   0.830  30.243  14.808  0.0194  0.4820  0.1535
  943DOPE   C4B11062   0.955  30.102  14.427 -0.0198 -0.0928 -0.0436
  944DOPS   CNO11063  10.929  23.776  15.517 -0.2455 -0.0513  0.1888
  944DOPS   PO411064  10.811  23.411  15.393  0.0403 -0.3169 -0.0936
  944DOPS   GL111065  10.716  23.385  15.070 -0.2161 -0.1715  0.2590
  944DOPS   GL211066  10.486  23.574  15.019  0.0473  0.1473  0.3391
  944DOPS   C1A11067  10.580  23.042  14.814  0.2501  0.0839 -0.0177
  944DOPS   D2A11068  10.547  22.629  14.620  0.1214 -0.0397 -0.2072
  944DOPS   C3A11069  10.445  22.668  14.191 -0.1363 -0.0794 -0.3168
  944DOPS   C4A11070  10.320  22.385  13.839  0.0384  0.1004 -0.2941
  944DOPS   C1B11071  10.461  23.684  14.598  0.3919 -0.3899 -0.3526
  944DOPS   D2B11072  10.127  23.551  14.274 -0.0303 -0.1927 -0.0426
  944DOPS   C3B11073  10.282  23.784  13.915 -0.0969  0.2598  0.0277
  944DOPS   C4B11074  10.281  23.762  13.481  0.0139  0.1527  0.5685
  945DOPS   CNO11075   0.552  27.969  16.384 -0.0277 -0.2467  0.0907
  945DOPS   PO411076   0.371  27.690  16.239  0.2243  0.1049  0.0387
  945DOPS   GL111077   0.406  27.815  15.837 -0.1663 -0.2611  0.0700
  945DOPS   GL211078   0.241  27.983  15.741 -0.1220  0.3114 -0.1399
  945DOPS   C1A11079   0.461  27.409  15.553  0.0893 -0.3004 -0.2328
  945DOPS   D2A11080   0.313  26.973  15.462  0.1499  0.3686 -0.0040
  945DOPS   C3A11081   0.384  26.921  14.978  0.4411  0.0584  0.0376
  945DOPS   C4A11082   0.530  27.177  14.571 -0.1809 -0.0652 -0.1379
  945DOPS   C1B11083   0.518  27.998  15.377  0.0294  0.2460 -0.2547
  945DOPS   D2B11084   0.741  28.198  15.106  0.0808  0.1209 -0.1835
  945DOPS   C3B11085   0.492  28.499  14.963 -0.2659 -0.1868  0.3138
  945DOPS   C4B11086   0.481  28.723  14.528  0.0550 -0.0058 -0.0943
  946DOPE   NH311087   4.261  32.584  14.780  0.2123  0.3114  0.0582
  946DOPE   PO411088   4.135  32.467  15.018 -0.1091  0.0211  0.2885
  946DOPE   GL111089   4.023  32.083  14.838 -0.1139 -0.6162 -0.1135
  946DOPE   GL211090   4.162  31.837  14.837  0.2655 -0.2666  0.1683
  946DOPE   C1A11091   3.637  32.031  14.657  0.0219 -0.0324  0.2283
  946DOPE   D2A11092   3.630  31.744  14.284 -0.1739  0.1850 -0.1308
  946DOPE   C3A11093   3.344  31.866  13.971  0.0283 -0.0963  0.2995
  946DOPE   C4A11094   2.939  31.849  13.879 -0.4164 -0.0476  0.2374
  946DOPE   C1B11095   4.249  31.681  14.409 -0.0173 -0.0084  0.1759
  946DOPE   D2B11096   4.003  31.671  13.989 -0.0834 -0.1460 -0.0014
  946DOPE   C3B11097   4.172  31.592  13.616  0.0134  0.0632  0.0323
  946DOPE   C4B11098   4.603  31.733  13.523  0.1485  0.0344 -0.1241
  947DOPC   NC311099   4.977  32.939  14.825 -0.1928 -0.0379  0.1598
  947DOPC   PO411100   4.690  32.737  14.948 -0.2106  0.1394 -0.0096
  947DOPC   GL111101   4.593  32.855  14.571 -0.2790 -0.2933  0.4725
  947DOPC   GL211102   4.802  32.891  14.397  0.1450 -0.0965 -0.3860
  947DOPC   C1A11103   4.414  33.171  14.242 -0.0131  0.2017 -0.0653
  947DOPC   D2A11104   4.280  33.317  13.820  0.0801 -0.1464  0.0242
  947DOPC   C3A11105   4.469  33.760  13.727  0.1917 -0.0002  0.0202
  947DOPC   C4A11106   4.518  34.090  13.427  0.1338 -0.0504 -0.3045
  947DOPC   C1B11107   4.893  32.962  13.960  0.0193 -0.0776  0.0582
  947DOPC   D2B11108   4.994  32.905  13.516 -0.0036  0.4213 -0.4088
  947DOPC   C3B11109   4.756  32.970  13.100  0.0166 -0.2832  0.1248
  947DOPC   C4B11110   4.873  33.278  12.724  0.0154 -0.0392  0.0880
  948DOPE   NH311111   5.959  31.604  15.228 -0.1990 -0.0169  0.1415
  948DOPE   PO411112   6.194  31.794  15.088  0.0769 -0.3045  0.0415
  948DOPE   GL111113   6.314  31.903  14.666 -0.1319 -0.3738  0.1919
  948DOPE   GL211114   6.111  31.835  14.467 -0.0150 -0.2778 -0.0602
  948DOPE   C1A11115   6.574  31.784  14.286  0.1113 -0.1525 -0.0170
  948DOPE   D2A11116   6.581  31.964  13.880  0.1502 -0.3105 -0.2045
  948DOPE   C3A11117   6.409  31.684  13.559 -0.2670  0.0878  0.1597
  948DOPE   C4A11118   6.179  31.481  13.225  0.0513  0.0119  0.2051
  948DOPE   C1B11119   6.194  31.769  14.011  0.4320 -0.0137 -0.0701
  948DOPE   D2B11120   6.138  32.073  13.649  0.1132  0.0655  0.1193
  948DOPE   C3B11121   6.310  32.059  13.218 -0.0009 -0.0798 -0.2667
  948DOPE   C4B11122   6.122  31.897  12.769  0.3168 -0.0144  0.3341
  949DOPC   NC311123   0.501  27.010  16.552 -0.1259  0.0426 -0.1340
  949DOPC   PO411124   0.116  27.028  16.452  0.2180 -0.2318  0.0903
  949DOPC   GL111125  -0.207  26.928  16.222 -0.3006 -0.0885 -0.1444
  949DOPC   GL211126  -0.437  27.124  16.331  0.0839  0.2670 -0.0494
  949DOPC   C1A11127  -0.343  26.620  15.915  0.1982 -0.1678  0.0128
  949DOPC   D2A11128  -0.512  26.232  16.048 -0.2018 -0.1528  0.0263
  949DOPC   C3A11129  -0.459  25.929  15.709 -0.1594  0.1967  0.2873
  949DOPC   C4A11130  -0.361  25.587  15.421 -0.2120  0.0351  0.0116
  949DOPC   C1B11131  -0.586  27.055  15.862  0.0643  0.2351  0.2498
  949DOPC   D2B11132  -0.550  26.889  15.435 -0.2009 -0.0033 -0.3198
  949DOPC   C3B11133  -0.136  26.694  15.465  0.0592 -0.1658 -0.0098
  949DOPC   C4B11134   0.151  26.650  15.798 -0.0847  0.0195  0.0222
  950DOPE   NH311135   9.552  27.789  15.364  0.1169 -0.1767  0.0447
  950DOPE   PO411136   9.826  27.951  15.397 -0.1574 -0.0870 -0.0321
  950DOPE   GL111137   9.844  27.827  15.006  0.1089  0.0790 -0.0841
  950DOPE   GL211138   9.665  28.024  14.870 -0.3146  0.0169  0.0983
  950DOPE   C1A11139   9.462  27.582  14.813 -0.2227  0.2338  0.1091
  950DOPE   D2A11140   9.193  27.393  14.491 -0.1349 -0.0814 -0.1403
  950DOPE   C3A11141   9.322  27.189  14.062  0.1733  0.0485 -0.3869
  950DOPE   C4A11142   9.277  27.227  13.572 -0.0935 -0.0503 -0.3700
  950DOPE   C1B11143   9.806  27.840  14.471 -0.0185  0.2063  0.1761
  950DOPE   D2B11144   9.932  27.619  14.085  0.1935 -0.1620  0.0236
  950DOPE   C3B11145   9.657  27.583  13.756  0.1868 -0.1591  0.1479
  950DOPE   C4B11146   9.392  27.687  13.369  0.0283  0.0262 -0.1949
  951DOPE   NH311147   9.102  31.001  14.450  0.0738  0.1270  0.1537
  951DOPE   PO411148   9.136  30.679  14.490  0.1767 -0.0671  0.1405
  951DOPE   GL111149   9.212  30.620  14.102 -0.3247  0.0421  0.2786
  951DOPE   GL211150   9.168  30.392  14.086 -0.2133  0.0129 -0.0835
  951DOPE   C1A11151   9.360  30.683  13.667  0.3115 -0.3995  0.1326
  951DOPE   D2A11152   9.276  30.712  13.228  0.2484 -0.0275 -0.2466
  951DOPE   C3A11153   9.567  30.746  12.854  0.1338 -0.1791 -0.3355
  951DOPE   C4A11154  10.023  30.653  12.807 -0.0474 -0.1041 -0.4056
  951DOPE   C1B11155   9.259  30.208  13.659 -0.0568 -0.3800  0.2231
  951DOPE   D2B11156   9.429  30.161  13.269  0.0329  0.3098  0.1372
  951DOPE   C3B11157   9.365  30.322  12.858 -0.2982  0.3590 -0.1535
  951DOPE   C4B11158   9.032  30.611  12.761  0.2776 -0.2231  0.3233
  952DOPC   NC311159   2.534  23.832  16.609  0.0806 -0.0696 -0.0876
  952DOPC   PO411160   2.444  23.421  16.599  0.1765  0.0472 -0.3587
  952DOPC   GL111161   2.455  23.416  16.149  0.1505 -0.0005 -0.1281
  952DOPC   GL211162   2.372  23.711  16.108 -0.2449 -0.0801  0.3018
  952DOPC   C1A11163   2.886  23.458  15.981  0.2847 -0.0478  0.0801
  952DOPC   D2A11164   3.204  23.380  15.634  0.0873  0.0779 -0.0707
  952DOPC   C3A11165   3.363  23.745  15.344  0.1240  0.2263  0.0271
  952DOPC   C4A11166   3.251  24.195  15.127 -0.2033 -0.0264 -0.2209
  952DOPC   C1B11167   2.145  23.540  15.743  0.0150  0.2633 -0.1669
  952DOPC   D2B11168   1.934  23.440  15.373 -0.0436 -0.0450  0.0033
  952DOPC   C3B11169   1.977  23.637  14.997 -0.0692 -0.1345  0.0474
  952DOPC   C4B11170   1.696  23.686  14.616  0.0338  0.0960 -0.0748
  953DOPC   NC311171  10.642  27.160  14.799 -0.3194  0.1158 -0.2139
  953DOPC   PO411172  10.553  26.782  14.925  0.4031 -0.1968 -0.1201
  953DOPC   GL111173  10.552  26.680  14.519  0.1727  0.0161 -0.1535
  953DOPC   GL211174  10.320  26.562  14.506 -0.1291  0.1883 -0.3028
  953DOPC   C1A11175  10.836  26.536  14.187  0.0883  0.1740 -0.0544
  953DOPC   D2A11176  10.966  26.387  13.825 -0.3721  0.0268 -0.0183
  953DOPC   C3A11177  10.840  26.034  13.542  0.1537  0.2221  0.2472
  953DOPC   C4A11178  10.420  25.975  13.418 -0.0236  0.1123  0.0239
  953DOPC   C1B11179  10.127  26.703  14.091 -0.2840 -0.1426 -0.3501
  953DOPC   D2B11180  10.238  26.902  13.673  0.0291 -0.0211 -0.0221
  953DOPC   C3B11181   9.962  26.712  13.423  0.0050 -0.3541  0.0396
  953DOPC   C4B11182   9.765  26.630  13.000 -0.0518  0.1399 -0.0803
  954DOPE   NH311183   7.619  25.605  16.193 -0.0145 -0.0470  0.0320
  954DOPE   PO411184   7.410  25.615  15.945  0.0911  0.0492 -0.1678
  954DOPE   GL111185   7.235  25.705  15.664  0.3193  0.4574 -0.1077
  954DOPE   GL211186   7.375  25.938  15.534 -0.0291  0.0654 -0.2838
  954DOPE   C1A11187   6.875  25.603  15.374 -0.0841  0.0614 -0.2246
  954DOPE   D2A11188   6.796  25.644  14.887  0.0450 -0.1360  0.0521
  954DOPE   C3A11189   6.565  25.287  14.632  0.2896 -0.0659 -0.3108
  954DOPE   C4A11190   6.642  25.224  14.171  0.0113  0.2936  0.2342
  954DOPE   C1B11191   7.286  25.769  15.098 -0.4711 -0.3765  0.0035
  954DOPE   D2B11192   7.238  25.807  14.636  0.2242  0.0200  0.2637
  954DOPE   C3B11193   7.469  25.527  14.380 -0.0640  0.2123  0.2919
  954DOPE   C4B11194   7.464  25.493  13.918  0.0946 -0.3916 -0.0584
  955DOPE   NH311195  10.558  29.963  15.273 -0.1397 -0.0163 -0.2872
  955DOPE   PO411196  10.554  30.008  14.965 -0.2460 -0.4102 -0.2024
  955DOPE   GL111197  10.890  30.057  14.720 -0.0626  0.2181 -0.1906
  955DOPE   GL211198  10.814  29.949  14.446 -0.2511 -0.0650 -0.0139
  955DOPE   C1A11199  11.307  30.004  14.479 -0.1939 -0.0686  0.0822
  955DOPE   D2A11200  11.624  29.693  14.436  0.1159  0.0625 -0.1336
  955DOPE   C3A11201  11.331  29.405  14.642  0.1543 -0.0844  0.2498
  955DOPE   C4A11202  10.911  29.253  14.581  0.2125  0.1113 -0.2957
  955DOPE   C1B11203  10.903  29.587  14.114  0.0579 -0.0365  0.1008
  955DOPE   D2B11204  10.957  29.131  14.042 -0.1036  0.2957  0.0886
  955DOPE   C3B11205  11.313  28.988  13.729  0.2027  0.0129  0.1079
  955DOPE   C4B11206  11.499  28.709  13.397 -0.2819  0.2703  0.2328
  956DOPS   CNO11207   2.146  28.804  16.168 -0.1224  0.2226  0.0645
  956DOPS   PO411208   2.384  29.104  16.258  0.1333 -0.0336 -0.2478
  956DOPS   GL111209   2.489  29.220  15.930  0.1131 -0.0025  0.0315
  956DOPS   GL211210   2.393  29.392  15.741  0.1024 -0.1932 -0.1149
  956DOPS   C1A11211   2.648  28.944  15.596 -0.2891 -0.0321 -0.2746
  956DOPS   D2A11212   2.532  28.649  15.258 -0.0664  0.1784  0.5971
  956DOPS   C3A11213   2.265  28.592  14.840 -0.0725 -0.2180  0.0304
  956DOPS   C4A11214   1.819  28.593  14.760  0.0958  0.0419  0.0574
  956DOPS   C1B11215   2.183  28.986  15.660 -0.0020  0.0560 -0.0112
  956DOPS   D2B11216   2.214  28.561  15.661 -0.1702  0.0353  0.3590
  956DOPS   C3B11217   1.945  28.174  15.699 -0.5183  0.0987  0.1614
  956DOPS   C4B11218   1.962  27.741  15.744 -0.2448 -0.0112  0.1756
  957POSM   NC311219   4.773  33.845  14.701  0.1949  0.1491  0.0154
  957POSM   PO411220   4.478  34.049  14.897 -0.2307 -0.0352 -0.0497
  957POSM   AM111221   4.388  34.082  14.595 -0.2707  0.3830  0.0377
  957POSM   AM211222   4.473  34.030  14.322 -0.2173 -0.1189 -0.0584
  957POSM   T1A11223   4.260  34.434  14.299  0.1966  0.4268  0.0146
  957POSM   C2A11224   4.533  34.623  13.921 -0.1946 -0.2461  0.0062
  957POSM   C3A11225   4.791  34.959  13.658 -0.1077 -0.0002 -0.2253
  957POSM   C1B11226   4.593  34.121  14.045  0.0185  0.2370  0.1082
  957POSM   D2B11227   4.899  34.395  13.713 -0.1776  0.1169 -0.2086
  957POSM   C3B11228   4.845  34.529  13.254 -0.1770 -0.5364  0.3205
  957POSM   C4B11229   4.417  34.591  12.987  0.0828 -0.1304 -0.1601
  958DOPC   NC311230   0.679  29.286  16.323  0.0836 -0.0308 -0.1998
  958DOPC   PO411231   0.424  29.569  16.194 -0.0535 -0.1035 -0.1020
  958DOPC   GL111232   0.501  29.674  15.785 -0.1578 -0.0760  0.3426
  958DOPC   GL211233   0.769  29.451  15.886  0.1304  0.2317 -0.0943
  958DOPC   C1A11234   0.497  29.799  15.291 -0.3906 -0.0429  0.2386
  958DOPC   D2A11235   0.408  29.902  14.831  0.0794  0.0935  0.1328
  958DOPC   C3A11236   0.549  29.676  14.442 -0.0103  0.0665  0.1346
  958DOPC   C4A11237   0.359  29.523  13.961  0.1555 -0.0418 -0.1709
  958DOPC   C1B11238   0.640  29.353  15.439  0.1074 -0.1220  0.0679
  958DOPC   D2B11239   0.569  29.379  14.950  0.1027 -0.2006  0.1096
  958DOPC   C3B11240   0.614  29.189  14.507  0.2225  0.1420 -0.1616
  958DOPC   C4B11241   0.858  29.230  14.122 -0.3174 -0.0296 -0.0168
  959DOPC   NC311242   4.119  26.917  16.257 -0.0708 -0.0657  0.0113
  959DOPC   PO411243   4.452  26.773  16.230  0.2431  0.0168 -0.0181
  959DOPC   GL111244   4.423  26.612  15.850 -0.0315  0.0760  0.5073
  959DOPC   GL211245   4.222  26.755  15.712 -0.1793  0.0058  0.2956
  959DOPC   C1A11246   4.644  26.739  15.408 -0.1238 -0.0897 -0.1445
  959DOPC   D2A11247   4.640  26.783  14.966 -0.1979 -0.2043  0.1522
  959DOPC   C3A11248   4.420  27.172  14.823 -0.0371 -0.1913  0.1003
  959DOPC   C4A11249   4.081  27.464  14.588  0.1399 -0.0217  0.1399
  959DOPC   C1B11250   4.202  26.468  15.348  0.1094 -0.0549  0.0064
  959DOPC   D2B11251   4.564  26.318  15.144 -0.0356 -0.1981  0.2013
  959DOPC   C3B11252   4.807  26.416  14.734  0.1442  0.0164 -0.2816
  959DOPC   C4B11253   4.692  26.447  14.229 -0.1171  0.0662  0.6204
  960DOPS   CNO11254   2.672  24.235  16.885  0.0183  0.0008 -0.2771
  960DOPS   PO411255   2.639  24.396  16.529 -0.0012  0.0557  0.1550
  960DOPS   GL111256   2.909  24.499  16.244  0.0223  0.0049  0.0056
  960DOPS   GL211257   2.658  24.685  16.098 -0.3445 -0.0470 -0.1660
  960DOPS   C1A11258   3.011  24.365  15.814  0.1180  0.2316  0.1551
  960DOPS   D2A11259   3.406  24.192  15.631  0.0323 -0.0852 -0.0461
  960DOPS   C3A11260   3.694  23.857  15.711 -0.1267 -0.0462 -0.1194
  960DOPS   C4A11261   3.724  23.447  15.924  0.2359 -0.1281  0.0960
  960DOPS   C1B11262   2.444  24.458  15.780  0.3051  0.0738  0.0704
  960DOPS   D2B11263   2.386  24.248  15.429  0.0165 -0.0653 -0.0469
  960DOPS   C3B11264   2.757  24.322  15.177 -0.1182 -0.1037  0.0410
  960DOPS   C4B11265   3.079  24.620  15.064  0.2427 -0.0555 -0.0588
  961DOPC   NC311266  10.704  33.570  14.531 -0.1293  0.0207 -0.0710
  961DOPC   PO411267  10.366  33.729  14.589  0.2704 -0.1953 -0.0550
  961DOPC   GL111268  10.402  33.833  14.168 -0.0748  0.3181  0.0740
  961DOPC   GL211269  10.554  33.570  14.068  0.0562 -0.1857  0.0287
  961DOPC   C1A11270  10.540  34.177  13.913 -0.0904  0.1854 -0.3171
  961DOPC   D2A11271  10.558  34.131  13.429 -0.1015 -0.0024 -0.1165
  961DOPC   C3A11272  10.967  34.229  13.243  0.0797 -0.1116 -0.2145
  961DOPC   C4A11273  11.239  34.559  13.393  0.1259 -0.0481  0.4865
  961DOPC   C1B11274  10.411  33.757  13.671  0.0972 -0.1139  0.2671
  961DOPC   D2B11275  10.026  34.037  13.582  0.1312  0.1012 -0.2884
  961DOPC   C3B11276  10.006  34.229  13.196 -0.3248  0.0341 -0.1110
  961DOPC   C4B11277  10.392  34.298  12.973  0.2884 -0.3055  0.0199
  962POSM   NC311278   9.396  27.258  16.004  0.1137  0.1229  0.2408
  962POSM   PO411279   9.584  27.317  15.613 -0.1298  0.1588 -0.1229
  962POSM   AM111280   9.443  27.264  15.317 -0.0845 -0.1599 -0.0834
  962POSM   AM211281   9.216  27.372  15.182  0.0411  0.0794  0.1395
  962POSM   T1A11282   9.361  27.109  14.836 -0.3579 -0.2873  0.1961
  962POSM   C2A11283   9.426  26.874  14.473  0.2247  0.1770  0.0985
  962POSM   C3A11284   9.622  26.680  14.097 -0.0127  0.1783 -0.0608
  962POSM   C1B11285   9.027  27.394  14.963 -0.2762 -0.4776 -0.2527
  962POSM   D2B11286   8.831  27.692  14.732  0.0095  0.4159  0.2524
  962POSM   C3B11287   8.825  28.139  14.608  0.1194  0.1007  0.0914
  962POSM   C4B11288   8.869  28.553  14.393 -0.0042 -0.3406 -0.0049
  963DOPC   NC311289   5.698  24.919  16.547 -0.1470  0.2325 -0.0594
  963DOPC   PO411290   6.005  24.708  16.680  0.0330 -0.1571 -0.4903
  963DOPC   GL111291   6.026  24.688  16.226  0.0293 -0.0646  0.0625
  963DOPC   GL211292   5.954  24.862  15.999  0.2830 -0.1426 -0.2870
  963DOPC   C1A11293   6.324  24.507  15.914  0.1151 -0.3470 -0.0115
  963DOPC   D2A11294   6.376  24.068  15.727  0.0689 -0.1731 -0.0464
  963DOPC   C3A11295   6.037  23.747  15.780 -0.1006 -0.4125 -0.1662
  963DOPC   C4A11296   5.662  23.542  15.655  0.2451 -0.0672  0.0044
  963DOPC   C1B11297   5.866  24.800  15.546  0.2997 -0.0855  0.2101
  963DOPC   D2B11298   5.977  24.802  15.125  0.2212 -0.3858  0.1733
  963DOPC   C3B11299   6.028  24.383  14.884 -0.0889  0.0822  0.4815
  963DOPC   C4B11300   6.393  24.228  14.651 -0.0355  0.1064 -0.3353
  964DOPC   NC311301   9.519  22.902  15.678  0.3134  0.0660  0.0981
  964DOPC   PO411302   9.188  22.627  15.630  0.0102  0.0238 -0.2834
  964DOPC   GL111303   9.411  22.612  15.302  0.0132 -0.3193  0.0404
  964DOPC   GL211304   9.333  22.916  15.145 -0.1100  0.0788  0.1657
  964DOPC   C1A11305   9.347  22.501  14.833 -0.1445  0.0049 -0.0523
  964DOPC   D2A11306   9.060  22.270  14.500  0.2552 -0.1068 -0.0726
  964DOPC   C3A11307   8.688  22.357  14.197  0.1455 -0.0544 -0.0702
  964DOPC   C4A11308   8.361  22.382  13.884  0.2964 -0.1492  0.3965
  964DOPC   C1B11309   9.012  22.876  14.785  0.0503 -0.0561  0.3127
  964DOPC   D2B11310   8.601  23.056  14.585  0.0898 -0.1169  0.3840
  964DOPC   C3B11311   8.581  23.445  14.303  0.3141  0.1818  0.2356
  964DOPC   C4B11312   8.500  23.798  13.995  0.4095 -0.0080  0.3430
  965DOPE   NH311313   6.849  22.849  16.765 -0.1637  0.3199  0.2046
  965DOPE   PO411314   7.129  22.719  16.888 -0.1269  0.1951 -0.1472
  965DOPE   GL111315   7.237  22.680  16.447 -0.3823  0.0332  0.1665
  965DOPE   GL211316   7.164  22.963  16.311  0.3328 -0.2659  0.0842
  965DOPE   C1A11317   7.189  22.534  16.023  0.0661 -0.0227  0.1816
  965DOPE   D2A11318   7.030  22.347  15.680  0.1286 -0.1246  0.2129
  965DOPE   C3A11319   7.152  22.421  15.209  0.1702  0.1521  0.1823
  965DOPE   C4A11320   7.037  22.388  14.753 -0.5089 -0.0707 -0.2504
  965DOPE   C1B11321   7.242  23.053  15.882 -0.3259  0.2008  0.1509
  965DOPE   D2B11322   7.087  22.874  15.480  0.1464  0.0736  0.3131
  965DOPE   C3B11323   6.729  22.620  15.386 -0.2577 -0.1323  0.1954
  965DOPE   C4B11324   6.733  22.243  15.107 -0.3041  0.1936 -0.0977
  966POSM   NC311325  10.367  23.584  15.548  0.1887 -0.0505 -0.0654
  966POSM   PO411326  10.070  23.632  15.307 -0.3788 -0.1708  0.0206
  966POSM   AM111327  10.034  23.843  15.035  0.0542 -0.3640  0.1659
  966POSM   AM211328  10.215  24.012  14.863 -0.2227  0.0243 -0.2059
  966POSM   T1A11329   9.744  23.877  14.616  0.4738  0.1272 -0.0458
  966POSM   C2A11330   9.377  23.905  14.393 -0.1990 -0.2218  0.0468
  966POSM   C3A11331   8.923  23.818  14.285  0.1131  0.1633 -0.4684
  966POSM   C1B11332  10.274  24.226  14.584 -0.1908 -0.1448  0.2656
  966POSM   D2B11333  10.147  24.389  14.145  0.0984  0.2000 -0.1151
  966POSM   C3B11334   9.781  24.536  13.904 -0.1641  0.0154 -0.2284
  966POSM   C4B11335   9.437  24.288  13.801  0.1979 -0.0369  0.0363
  967POSM   NC311336   1.499  30.726  16.054  0.0923 -0.3514  0.1993
  967POSM   PO411337   1.885  30.659  15.927 -0.1774  0.0962  0.0185
  967POSM   AM111338   1.923  30.551  15.623  0.1969  0.1115  0.1038
  967POSM   AM211339   2.116  30.487  15.440 -0.0638  0.0869 -0.3335
  967POSM   T1A11340   1.740  30.386  15.180 -0.1869 -0.2745 -0.1093
  967POSM   C2A11341   1.601  30.495  14.788 -0.3353 -0.1934 -0.1166
  967POSM   C3A11342   1.414  30.260  14.449  0.1450  0.0053  0.0493
  967POSM   C1B11343   2.304  30.352  15.148 -0.0233 -0.0453  0.2057
  967POSM   D2B11344   2.428  30.355  14.718  0.0338  0.0829 -0.0351
  967POSM   C3B11345   2.211  30.517  14.291  0.0431  0.3122 -0.1738
  967POSM   C4B11346   2.355  30.673  13.822  0.0301 -0.1880  0.2871
  968DOPE   NH311347   1.617  25.073  16.450 -0.0348  0.2611 -0.1234
  968DOPE   PO411348   1.794  25.301  16.342  0.0378  0.0526  0.0951
  968DOPE   GL111349   1.706  25.272  15.927  0.4927  0.0841  0.0902
  968DOPE   GL211350   2.004  25.319  15.890  0.2359  0.0087 -0.0838
  968DOPE   C1A11351   1.305  25.201  15.690 -0.3642 -0.1181  0.0667
  968DOPE   D2A11352   1.053  25.157  15.320 -0.6183 -0.0198 -0.0668
  968DOPE   C3A11353   1.007  24.776  15.099  0.0475 -0.1413 -0.0587
  968DOPE   C4A11354   1.000  24.303  15.001 -0.0805  0.1479  0.2641
  968DOPE   C1B11355   1.844  25.170  15.469 -0.1760 -0.1360 -0.1318
  968DOPE   D2B11356   1.528  24.983  15.190  0.2362 -0.1384  0.3057
  968DOPE   C3B11357   1.616  24.805  14.763 -0.0827 -0.4033  0.3611
  968DOPE   C4B11358   1.674  24.456  14.387  0.0588 -0.1187  0.1246
  969POSM   NC311359   0.676  25.766  16.819  0.0527 -0.2637 -0.0414
  969POSM   PO411360   1.052  25.656  16.753 -0.0882  0.0039  0.0364
  969POSM   AM111361   1.112  25.566  16.447  0.0682  0.2177 -0.0174
  969POSM   AM211362   1.367  25.536  16.300  0.2493  0.1292 -0.2684
  969POSM   T1A11363   1.110  25.132  16.222 -0.1620  0.0555  0.2275
  969POSM   C2A11364   1.327  24.799  16.005  0.0361 -0.0238 -0.1060
  969POSM   C3A11365   1.637  24.802  15.670  0.0450 -0.2160 -0.0132
  969POSM   C1B11366   1.355  25.609  15.993 -0.1770 -0.0213 -0.0055
  969POSM   D2B11367   1.263  25.959  15.717 -0.1712 -0.2002  0.2030
  969POSM   C3B11368   1.527  25.990  15.370 -0.0249 -0.0677  0.1353
  969POSM   C4B11369   1.462  25.901  14.920 -0.0314  0.0834  0.0434
  970DOPE   NH311370   4.284  33.119  14.846 -0.0691  0.1728 -0.3931
  970DOPE   PO411371   4.576  33.241  14.832 -0.2057 -0.1700 -0.3633
  970DOPE   GL111372   4.476  33.496  14.535  0.2685 -0.2193  0.1337
  970DOPE   GL211373   4.305  33.628  14.684 -0.1645 -0.0503 -0.1775
  970DOPE   C1A11374   4.676  33.631  14.140 -0.0465  0.2369 -0.0838
  970DOPE   D2A11375   4.861  33.431  13.824  0.0688  0.1791 -0.2706
  970DOPE   C3A11376   4.640  33.318  13.441  0.1262  0.0671  0.1277
  970DOPE   C4A11377   4.304  33.209  13.130 -0.3725 -0.0316  0.2842
  970DOPE   C1B11378   4.129  33.723  14.272 -0.1609 -0.2668  0.2588
  970DOPE   D2B11379   4.098  34.036  13.955  0.2812 -0.1608  0.2108
  970DOPE   C3B11380   3.893  34.454  13.814 -0.0716 -0.2396 -0.0441
  970DOPE   C4B11381   3.630  34.811  13.795  0.0256 -0.2153  0.1407
  971POSM   NC311382   1.175  27.548  16.583  0.0725  0.0227  0.0740
  971POSM   PO411383   1.039  27.817  16.392 -0.1674  0.0876  0.3599
  971POSM   AM111384   0.939  27.951  16.124 -0.1640 -0.1990  0.1007
  971POSM   AM211385   0.890  27.829  15.873 -0.1174 -0.3332 -0.3098
  971POSM   T1A11386   0.801  28.337  15.832  0.3200 -0.1760 -0.2436
  971POSM   C2A11387   0.487  28.486  15.480  0.0929 -0.0559  0.0072
  971POSM   C3A11388   0.090  28.666  15.370 -0.1015 -0.1331  0.0286
  971POSM   C1B11389   0.990  27.740  15.562 -0.3789 -0.2952  0.0100
  971POSM   D2B11390   1.096  27.595  15.158  0.1736  0.3760 -0.0130
  971POSM   C3B11391   1.483  27.590  14.909 -0.0908 -0.2241  0.1656
  971POSM   C4B11392   1.433  27.709  14.434  0.1503 -0.3294  0.1689
  972DOPS   CNO11393  11.583  25.366  15.009  0.0429 -0.1026 -0.1649
  972DOPS   PO411394  11.825  25.550  14.780  0.0713  0.2330 -0.0438
  972DOPS   GL111395  11.936  25.514  14.365 -0.1598  0.0800  0.1131
  972DOPS   GL211396  12.145  25.755  14.392  0.1569 -0.2416 -0.1168
  972DOPS   C1A11397  11.820  25.478  13.901  0.1214  0.2466  0.0599
  972DOPS   D2A11398  11.793  25.289  13.458  0.1572  0.1195 -0.0111
  972DOPS   C3A11399  11.792  24.852  13.402  0.0005 -0.1510  0.1484
  972DOPS   C4A11400  11.577  24.591  13.084 -0.0623  0.0399  0.0970
  972DOPS   C1B11401  12.363  25.668  14.016  0.3497 -0.4268 -0.1687
  972DOPS   D2B11402  12.704  25.422  13.829  0.1451 -0.0102  0.4662
  972DOPS   C3B11403  12.394  25.104  13.578 -0.1187  0.4259 -0.4065
  972DOPS   C4B11404  12.193  24.938  13.177  0.0001 -0.0875 -0.3576
  973DOPC   NC311405   5.721  32.467  14.494  0.1791 -0.0315  0.2761
  973DOPC   PO411406   5.362  32.651  14.609 -0.3946 -0.0789  0.1046
  973DOPC   GL111407   5.130  32.370  14.406  0.0497 -0.1574  0.0647
  973DOPC   GL211408   4.940  32.385  14.582 -0.1091 -0.0611  0.2838
  973DOPC   C1A11409   5.422  32.181  14.143 -0.2904  0.0285  0.0720
  973DOPC   D2A11410   5.666  31.890  13.863 -0.0618 -0.1324 -0.2764
  973DOPC   C3A11411   5.908  31.552  13.637 -0.3089 -0.1729  0.2952
  973DOPC   C4A11412   5.926  31.133  13.423  0.0369 -0.2077  0.1099
  973DOPC   C1B11413   4.549  32.489  14.307 -0.0540  0.1951 -0.1632
  973DOPC   D2B11414   4.476  32.771  13.972 -0.0592  0.2275  0.0131
  973DOPC   C3B11415   4.402  32.877  13.535  0.0112 -0.3809  0.0578
  973DOPC   C4B11416   4.259  32.620  13.155 -0.1597 -0.0967 -0.1841
  974DOPS   CNO11417   0.343  33.567  16.510 -0.2130  0.0439 -0.1674
  974DOPS   PO411418   0.110  33.843  16.421 -0.2217 -0.2514 -0.2711
  974DOPS   GL111419   0.203  33.537  16.046 -0.2241  0.4140 -0.2878
  974DOPS   GL211420  -0.055  33.544  16.031  0.0518 -0.1645  0.1595
  974DOPS   C1A11421   0.301  33.751  15.598 -0.1489  0.0767  0.0308
  974DOPS   D2A11422   0.099  33.570  15.200  0.1472  0.1413 -0.1654
  974DOPS   C3A11423  -0.081  33.944  14.903  0.1977  0.2465  0.0897
  974DOPS   C4A11424  -0.019  34.370  14.758  0.0494 -0.0928  0.1668
  974DOPS   C1B11425  -0.180  33.904  15.795 -0.1487 -0.1293 -0.0267
  974DOPS   D2B11426  -0.334  34.291  15.896 -0.0852 -0.0970  0.0083
  974DOPS   C3B11427  -0.262  34.787  15.753  0.1077  0.0014  0.2735
  974DOPS   C4B11428  -0.513  35.088  15.420  0.2068 -0.1137 -0.0288
  975DOPE   NH311429   9.280  31.519  14.384  0.0223  0.0783 -0.1227
  975DOPE   PO411430   9.419  31.768  14.237  0.3703  0.1237  0.2095
  975DOPE   GL111431   9.426  31.662  13.899 -0.1022  0.0220  0.2222
  975DOPE   GL211432   9.155  31.562  13.760  0.0551  0.1252 -0.4560
  975DOPE   C1A11433   9.781  31.599  13.585  0.2469  0.1202  0.2792
  975DOPE   D2A11434  10.160  31.694  13.401  0.2172  0.1812  0.2269
  975DOPE   C3A11435  10.444  31.977  13.130 -0.0239  0.3539  0.2144
  975DOPE   C4A11436  10.703  32.331  13.111  0.0884 -0.0513  0.1779
  975DOPE   C1B11437   8.854  31.624  13.393 -0.0704 -0.4326 -0.0963
  975DOPE   D2B11438   8.715  31.760  12.971 -0.3283  0.2366  0.1413
  975DOPE   C3B11439   8.553  31.411  12.687  0.0218 -0.0886  0.1618
  975DOPE   C4B11440   8.601  31.116  12.307 -0.0259  0.4092  0.0617
  976DOPC   NC311441   1.631  29.759  15.828 -0.0017  0.4474 -0.0744
  976DOPC   PO411442   1.647  29.994  16.118 -0.3660 -0.1285  0.0709
  976DOPC   GL111443   1.763  30.165  15.775  0.0349 -0.0636  0.1295
  976DOPC   GL211444   1.481  30.322  15.765  0.4220 -0.0010 -0.0858
  976DOPC   C1A11445   1.939  29.894  15.460  0.2711 -0.0612 -0.2775
  976DOPC   D2A11446   2.004  29.669  15.031  0.1723  0.3022  0.2210
  976DOPC   C3A11447   1.505  29.575  14.959  0.0295 -0.0216  0.0251
  976DOPC   C4A11448   1.191  29.304  15.087 -0.0709  0.3533  0.1565
  976DOPC   C1B11449   1.446  30.009  15.445  0.0968 -0.0026  0.1747
  976DOPC   D2B11450   1.422  30.056  14.970 -0.0214  0.2136 -0.0012
  976DOPC   C3B11451   1.844  30.080  14.824  0.0320  0.0775 -0.0085
  976DOPC   C4B11452   2.139  30.035  14.481  0.0525  0.1720 -0.0876
  977DOPS   CNO11453   0.417  26.136  16.656 -0.1233 -0.2951 -0.1857
  977DOPS   PO411454   0.136  26.345  16.499  0.1927  0.3297  0.0481
  977DOPS   GL111455  -0.063  26.260  16.248 -0.6043 -0.1090  0.2128
  977DOPS   GL211456  -0.114  25.978  16.324 -0.0340  0.3578  0.0305
  977DOPS   C1A11457   0.005  26.160  15.782  0.0695 -0.0927 -0.0831
  977DOPS   D2A11458  -0.151  26.034  15.333  0.0317  0.3281 -0.4000
  977DOPS   C3A11459   0.087  25.870  15.001 -0.0730  0.0355  0.0065
  977DOPS   C4A11460   0.416  25.829  14.697 -0.1732 -0.1033  0.1694
  977DOPS   C1B11461  -0.060  25.702  15.928  0.0618  0.0724  0.2054
  977DOPS   D2B11462  -0.061  25.236  15.743  0.0785  0.1867  0.1433
  977DOPS   C3B11463  -0.344  25.040  15.424  0.0921 -0.0471 -0.1065
  977DOPS   C4B11464  -0.451  25.117  14.950 -0.2598 -0.0957 -0.0517
  978DOPC   NC311465   5.009  25.854  15.992 -0.1426  0.0836 -0.3875
  978DOPC   PO411466   4.629  25.920  15.953 -0.0137 -0.2433  0.1391
  978DOPC   GL111467   4.674  25.723  15.680  0.0736 -0.0731 -0.1332
  978DOPC   GL211468   4.736  25.823  15.373 -0.1888  0.1597 -0.3176
  978DOPC   C1A11469   4.503  25.449  15.318  0.0728 -0.1509  0.1947
  978DOPC   D2A11470   4.475  25.318  14.866 -0.1621  0.2125  0.0033
  978DOPC   C3A11471   4.429  25.513  14.494 -0.2017 -0.6198 -0.0547
  978DOPC   C4A11472   4.432  25.807  14.118 -0.1813  0.1335 -0.1326
  978DOPC   C1B11473   4.576  25.826  14.952  0.0822  0.1424 -0.1326
  978DOPC   D2B11474   4.784  25.960  14.573 -0.2530  0.2247 -0.0166
  978DOPC   C3B11475   4.967  25.588  14.359  0.1785  0.1676 -0.1022
  978DOPC   C4B11476   4.946  25.483  13.929  0.0144  0.1448  0.1075
  979DOPE   NH311477  10.025  30.963  14.307  0.1751  0.0603  0.1626
  979DOPE   PO411478  10.121  31.244  14.365 -0.2690 -0.2084 -0.1210
  979DOPE   GL111479  10.196  31.261  13.952 -0.2258  0.0123 -0.4212
  979DOPE   GL211480  10.457  31.084  14.006  0.0382  0.1501 -0.2535
  979DOPE   C1A11481  10.083  31.193  13.530 -0.2061 -0.1044  0.0236
  979DOPE   D2A11482   9.847  31.078  13.127  0.0767  0.5173 -0.1000
  979DOPE   C3A11483   9.812  31.221  12.649 -0.1017 -0.0760 -0.1259
  979DOPE   C4A11484   9.597  31.219  12.191  0.1059 -0.3293 -0.3875
  979DOPE   C1B11485  10.351  30.816  13.605 -0.3687  0.1201 -0.2418
  979DOPE   D2B11486  10.318  30.958  13.160  0.1044 -0.2688  0.1759
  979DOPE   C3B11487  10.728  31.054  12.917  0.5825 -0.0870 -0.0521
  979DOPE   C4B11488  10.834  30.796  12.533  0.1046  0.0265 -0.0626
  980POSM   NC311489   6.757  32.253  14.675 -0.2655 -0.1542  0.4316
  980POSM   PO411490   7.006  32.276  14.347  0.0354 -0.1082 -0.1411
  980POSM   AM111491   7.049  32.030  14.120 -0.0453 -0.0327 -0.0662
  980POSM   AM211492   7.189  32.092  13.877  0.0489 -0.0905  0.2359
  980POSM   T1A11493   6.907  31.603  13.918  0.0581 -0.0330 -0.2122
  980POSM   C2A11494   6.784  31.179  14.135 -0.0394 -0.0114  0.2286
  980POSM   C3A11495   6.423  31.010  14.390 -0.3081 -0.1646 -0.0004
  980POSM   C1B11496   7.049  32.367  13.721  0.1206  0.0853 -0.0264
  980POSM   D2B11497   6.646  32.590  13.531  0.0227 -0.0719 -0.3313
  980POSM   C3B11498   6.428  32.943  13.369 -0.1687 -0.3105  0.0478
  980POSM   C4B11499   6.162  33.328  13.426  0.0664  0.1060  0.1722
  981DOPE   NH311500   4.885  32.037  15.000 -0.2389 -0.0214 -0.3758
  981DOPE   PO411501   4.549  32.140  14.933  0.0332  0.1689 -0.1445
  981DOPE   GL111502   4.446  32.112  14.568 -0.0898 -0.1096 -0.1086
  981DOPE   GL211503   4.651  31.994  14.463 -0.0506 -0.3206  0.0976
  981DOPE   C1A11504   4.025  32.219  14.362 -0.1616  0.2672 -0.1933
  981DOPE   D2A11505   3.721  32.253  14.000 -0.0672  0.2278 -0.3666
  981DOPE   C3A11506   3.728  32.066  13.631  0.0122  0.0224 -0.0599
  981DOPE   C4A11507   3.722  31.794  13.336  0.2073  0.0168 -0.1936
  981DOPE   C1B11508   4.445  31.972  14.016  0.0532  0.0218  0.0729
  981DOPE   D2B11509   4.261  32.215  13.724 -0.0451  0.0684  0.0466
  981DOPE   C3B11510   4.261  32.048  13.299  0.0405 -0.0751 -0.0861
  981DOPE   C4B11511   4.444  32.154  12.881  0.1935 -0.0734  0.2939
  982POSM   NC311512   7.354  31.442  14.277  0.1052  0.1753  0.0713
  982POSM   PO411513   7.501  31.802  14.183 -0.1380 -0.0591  0.1309
  982POSM   AM111514   7.500  31.803  13.851  0.1371 -0.2014  0.3276
  982POSM   AM211515   7.387  31.620  13.667  0.2369  0.1016  0.2867
  982POSM   T1A11516   7.289  32.014  13.421 -0.1999  0.1671  0.0754
  982POSM   C2A11517   6.906  32.008  13.131  0.0922 -0.2982 -0.1921
  982POSM   C3A11518   6.703  31.704  12.863 -0.1528 -0.1230  0.3220
  982POSM   C1B11519   7.670  31.719  13.466 -0.0921 -0.1312  0.0813
  982POSM   D2B11520   7.872  31.452  13.130  0.0898  0.3724 -0.2647
  982POSM   C3B11521   7.846  31.029  12.950 -0.0997 -0.1210 -0.2364
  982POSM   C4B11522   7.986  30.611  12.903 -0.0608  0.1883  0.1046
  983DOPC   NC311523   8.893  27.648  15.459  0.0511 -0.0651  0.0202
  983DOPC   PO411524   8.566  27.517  15.550 -0.0512 -0.0191 -0.2433
  983DOPC   GL111525   8.581  27.473  15.137 -0.5057  0.0838  0.0771
  983DOPC   GL211526   8.389  27.600  15.000  0.2943 -0.4880  0.3325
  983DOPC   C1A11527   8.603  27.235  14.721 -0.1871 -0.2517  0.0814
  983DOPC   D2A11528   8.722  27.447  14.299  0.0573  0.2190 -0.1350
  983DOPC   C3A11529   8.856  27.845  14.191 -0.4253 -0.0894  0.0467
  983DOPC   C4A11530   9.082  28.251  14.061 -0.2179 -0.0383 -0.1968
  983DOPC   C1B11531   8.382  27.806  14.583 -0.0847  0.0598 -0.1161
  983DOPC   D2B11532   8.310  27.813  14.166  0.0441  0.2031 -0.0019
  983DOPC   C3B11533   8.235  27.416  14.027  0.2568  0.0584 -0.0341
  983DOPC   C4B11534   8.283  27.183  13.615 -0.1754 -0.0667  0.3493
  984DOPE   NH311535   6.945  33.456  14.792  0.0666  0.1475  0.2244
  984DOPE   PO411536   6.750  33.493  14.513 -0.1267  0.1457 -0.0596
  984DOPE   GL111537   6.374  33.353  14.311  0.2950 -0.0889 -0.0870
  984DOPE   GL211538   6.412  33.542  14.082  0.1661  0.0935  0.0340
  984DOPE   C1A11539   6.058  33.314  13.939 -0.1655 -0.2843 -0.1072
  984DOPE   D2A11540   5.741  33.354  13.597 -0.1693  0.1202 -0.1936
  984DOPE   C3A11541   5.731  33.318  13.101 -0.0430  0.0293  0.0164
  984DOPE   C4A11542   5.332  33.210  12.879  0.0834 -0.0345 -0.1451
  984DOPE   C1B11543   6.589  33.415  13.662  0.1830  0.0494  0.3191
  984DOPE   D2B11544   6.700  33.366  13.232 -0.2211 -0.3059 -0.0016
  984DOPE   C3B11545   6.926  33.625  12.986 -0.0741 -0.0078  0.1234
  984DOPE   C4B11546   7.384  33.774  13.074  0.1966 -0.1014  0.0150
  985POSM   NC311547   7.351  24.182  16.271 -0.1874 -0.0594 -0.3443
  985POSM   PO411548   7.416  23.850  16.074  0.1922  0.0341  0.2352
  985POSM   AM111549   7.519  23.724  15.801 -0.1432  0.0078  0.0265
  985POSM   AM211550   7.804  23.685  15.720  0.0415  0.0376  0.1309
  985POSM   T1A11551   7.499  23.283  15.495 -0.1636  0.0963  0.1727
  985POSM   C2A11552   7.504  22.856  15.226  0.1924 -0.2823  0.2412
  985POSM   C3A11553   7.570  22.703  14.747  0.4303 -0.0146 -0.2026
  985POSM   C1B11554   7.793  23.631  15.418  0.3119 -0.3146 -0.1818
  985POSM   D2B11555   7.670  23.380  15.065 -0.2473  0.1493  0.2239
  985POSM   C3B11556   7.232  23.305  15.064  0.2137  0.0004 -0.2965
  985POSM   C4B11557   6.914  23.333  14.730  0.2250 -0.0427  0.1393
  986DOPE   NH311558  10.236  32.292  14.045 -0.0210  0.2285  0.1147
  986DOPE   PO411559   9.937  32.427  14.130  0.0095  0.1143 -0.1861
  986DOPE   GL111560   9.769  32.470  13.775 -0.2093 -0.1053 -0.1459
  986DOPE   GL211561   9.880  32.174  13.592  0.1451 -0.0883  0.0492
  986DOPE   C1A11562   9.706  32.585  13.374  0.1757 -0.1093 -0.3669
  986DOPE   D2A11563   9.525  32.405  13.027 -0.1309 -0.1988 -0.1440
  986DOPE   C3A11564   9.636  32.260  12.668  0.0258 -0.1131 -0.3853
  986DOPE   C4A11565   9.508  32.528  12.331  0.0423 -0.1275  0.2745
  986DOPE   C1B11566   9.888  32.036  13.159  0.3239  0.1337  0.5606
  986DOPE   D2B11567   9.956  31.859  12.713  0.0633  0.0049  0.0138
  986DOPE   C3B11568  10.086  32.112  12.354  0.1853 -0.1102 -0.2743
  986DOPE   C4B11569  10.452  32.076  12.065 -0.1752 -0.3099  0.0713
  987DOPE   NH311570   1.331  26.935  16.705  0.1300 -0.0172  0.2999
  987DOPE   PO411571   1.050  27.083  16.704  0.0585 -0.1119 -0.0206
  987DOPE   GL111572   0.942  27.214  16.273  0.4525 -0.3898 -0.4296
  987DOPE   GL211573   0.948  26.841  16.260  0.0716 -0.1010  0.0075
  987DOPE   C1A11574   0.904  27.291  15.801 -0.1172 -0.3147  0.2304
  987DOPE   D2A11575   0.919  27.148  15.357  0.1828  0.1399  0.1209
  987DOPE   C3A11576   0.578  27.380  15.062 -0.1675 -0.0626 -0.2282
  987DOPE   C4A11577   0.700  27.728  14.906  0.3236 -0.0476 -0.2636
  987DOPE   C1B11578   1.292  26.991  15.971  0.2645  0.0163  0.3912
  987DOPE   D2B11579   1.568  26.791  15.593 -0.2465 -0.1076 -0.2873
  987DOPE   C3B11580   1.226  26.777  15.205 -0.0773  0.0212 -0.0261
  987DOPE   C4B11581   0.956  26.960  14.861 -0.0892 -0.2982  0.0505
  988DOPE   NH311582   8.079  29.756  15.285  0.2634 -0.0934  0.2265
  988DOPE   PO411583   8.407  29.716  15.224 -0.0379 -0.2213 -0.1083
  988DOPE   GL111584   8.230  29.490  14.899  0.2318  0.1298 -0.1811
  988DOPE   GL211585   8.036  29.672  14.789  0.0126 -0.4681 -0.1457
  988DOPE   C1A11586   8.390  29.375  14.505 -0.0065  0.2135  0.1562
  988DOPE   D2A11587   8.502  29.636  14.171  0.1902 -0.1183 -0.1817
  988DOPE   C3A11588   8.618  29.588  13.723  0.0646 -0.0095 -0.1750
  988DOPE   C4A11589   8.762  29.835  13.426 -0.1592  0.3193 -0.0686
  988DOPE   C1B11590   8.099  29.816  14.363 -0.0471  0.0934  0.0861
  988DOPE   D2B11591   8.121  29.723  13.854  0.0161  0.1305  0.3388
  988DOPE   C3B11592   8.138  29.416  13.570  0.4287  0.2946 -0.0080
  988DOPE   C4B11593   8.039  29.010  13.328 -0.1574 -0.1753 -0.0057
  989DOPE   NH311594   2.171  24.166  16.731  0.2613 -0.4544  0.0982
  989DOPE   PO411595   1.899  24.345  16.604 -0.0357  0.1827  0.1489
  989DOPE   GL111596   1.991  24.162  16.225 -0.0577  0.0852  0.2466
  989DOPE   GL211597   2.257  24.176  16.233  0.0538 -0.1014  0.1025
  989DOPE   C1A11598   1.762  23.834  15.990  0.2098 -0.1433 -0.0541
  989DOPE   D2A11599   1.551  23.628  15.607  0.0958 -0.3211  0.0420
  989DOPE   C3A11600   1.294  23.210  15.655  0.0069  0.1444 -0.2538
  989DOPE   C4A11601   1.058  22.915  15.841  0.1344  0.0800 -0.0181
  989DOPE   C1B11602   2.088  24.113  15.813  0.1269 -0.0415  0.0952
  989DOPE   D2B11603   1.975  23.958  15.371  0.1159 -0.2476 -0.0560
  989DOPE   C3B11604   1.544  23.840  15.190 -0.1837  0.2497 -0.0352
  989DOPE   C4B11605   1.269  23.756  14.825  0.3614 -0.1130 -0.2919
  990POSM   NC311606   9.765  24.907  15.668 -0.2311  0.0144 -0.0079
  990POSM   PO411607   9.510  25.048  15.476  0.0075 -0.0809 -0.2894
  990POSM   AM111608   9.389  25.041  15.185 -0.1203 -0.0269  0.1079
  990POSM   AM211609   9.378  24.850  14.994  0.0372 -0.0469  0.0050
  990POSM   T1A11610   9.471  25.257  14.741 -0.1128 -0.2438  0.1898
  990POSM   C2A11611   9.337  25.377  14.317  0.1389 -0.1190  0.0335
  990POSM   C3A11612   9.585  25.674  14.038  0.1233 -0.1285  0.0682
  990POSM   C1B11613   9.323  24.706  14.670 -0.0460 -0.0056 -0.0177
  990POSM   D2B11614   9.295  24.762  14.174  0.0972  0.2206 -0.0173
  990POSM   C3B11615   9.392  24.800  13.740 -0.0038 -0.4221  0.2873
  990POSM   C4B11616   9.759  24.764  13.444  0.0099  0.0257 -0.2658
  991DOPE   NH311617   8.567  31.436  13.875  0.0178 -0.2047  0.2126
  991DOPE   PO411618   8.760  31.418  14.111  0.2426 -0.1803 -0.1653
  991DOPE   GL111619   8.880  31.001  14.012 -0.2391 -0.0313 -0.0335
  991DOPE   GL211620   9.134  31.087  13.933  0.1780  0.2824  0.0658
  991DOPE   C1A11621   8.861  30.648  13.694 -0.1276 -0.1939 -0.3676
  991DOPE   D2A11622   8.777  30.255  13.796  0.0386 -0.4740  0.1469
  991DOPE   C3A11623   8.425  30.117  14.048  0.1116 -0.3200 -0.0908
  991DOPE   C4A11624   8.073  30.272  14.142  0.7346  0.1477 -0.0333
  991DOPE   C1B11625   9.012  31.151  13.464 -0.3428  0.0969 -0.0538
  991DOPE   D2B11626   8.819  31.254  13.090  0.0991  0.3745  0.0720
  991DOPE   C3B11627   9.058  31.538  12.797 -0.4517 -0.1682  0.0946
  991DOPE   C4B11628   9.401  31.534  12.480 -0.1787 -0.1814 -0.2854
  992DOPE   NH311629   8.930  32.897  14.045  0.1969 -0.1912  0.1127
  992DOPE   PO411630   9.220  33.069  14.084  0.1081  0.0417 -0.1518
  992DOPE   GL111631   9.204  33.242  13.768 -0.0079 -0.1486  0.1819
  992DOPE   GL211632   9.199  33.541  13.784  0.0010  0.2671  0.2613
  992DOPE   C1A11633   9.056  33.287  13.341  0.0407  0.3455 -0.4148
  992DOPE   D2A11634   9.055  33.150  12.905  0.0185  0.0434 -0.0262
  992DOPE   C3A11635   9.447  32.903  12.801 -0.0506 -0.3225  0.4155
  992DOPE   C4A11636   9.792  32.884  12.463  0.3883 -0.0182 -0.0015
  992DOPE   C1B11637   9.628  33.368  13.650  0.0772 -0.0563 -0.3068
  992DOPE   D2B11638  10.058  33.463  13.543 -0.1921  0.1293 -0.3199
  992DOPE   C3B11639  10.267  33.766  13.195 -0.1691  0.2155  0.0779
  992DOPE   C4B11640  10.692  33.705  13.148 -0.1840  0.2832 -0.1135
  993POSM   NC311641   8.768  26.962  15.825 -0.1818 -0.1532  0.0264
  993POSM   PO411642   9.097  27.142  15.614 -0.2447  0.0234  0.0042
  993POSM   AM111643   8.923  27.077  15.381 -0.0021  0.1901 -0.2309
  993POSM   AM211644   8.672  27.064  15.295  0.0041  0.0916  0.0321
  993POSM   T1A11645   8.926  26.866  14.933  0.2459 -0.1018 -0.0738
  993POSM   C2A11646   8.903  26.930  14.460 -0.0105 -0.2911 -0.0884
  993POSM   C3A11647   8.843  27.074  14.029 -0.3981 -0.3427 -0.4031
  993POSM   C1B11648   8.433  27.019  15.100  0.0539 -0.1776 -0.0771
  993POSM   D2B11649   8.199  26.876  14.666  0.1430 -0.2139  0.2301
  993POSM   C3B11650   8.420  26.831  14.247 -0.0193 -0.0404 -0.0660
  993POSM   C4B11651   8.547  26.588  13.864 -0.0925 -0.0569  0.2690
  994DOPC   NC311652   3.675  31.623  15.674 -0.2324 -0.0306  0.1779
  994DOPC   PO411653   3.335  31.626  15.498 -0.1182 -0.0950 -0.1848
  994DOPC   GL111654   3.126  31.552  15.180  0.2148 -0.3010  0.1211
  994DOPC   GL211655   3.129  31.822  15.010  0.0958 -0.0550  0.0771
  994DOPC   C1A11656   3.095  31.171  14.899  0.2775  0.3746  0.0706
  994DOPC   D2A11657   3.233  30.711  14.761  0.0731  0.1230 -0.0113
  994DOPC   C3A11658   2.981  30.412  14.494 -0.0788 -0.0927  0.1835
  994DOPC   C4A11659   2.701  30.506  14.144  0.2902  0.1827  0.0399
  994DOPC   C1B11660   3.442  31.636  14.844 -0.2319  0.1393  0.0938
  994DOPC   D2B11661   3.538  31.185  14.741 -0.1414 -0.0584  0.2061
  994DOPC   C3B11662   3.426  30.966  14.310  0.1288  0.2420 -0.3192
  994DOPC   C4B11663   3.181  30.713  14.060 -0.0573  0.0351  0.1583
  995DOPE   NH311664   2.360  26.002  15.926 -0.3389  0.0143  0.0764
  995DOPE   PO411665   2.382  25.672  15.879  0.0918  0.2275  0.0193
  995DOPE   GL111666   2.195  25.654  15.554 -0.2638 -0.1540  0.3577
  995DOPE   GL211667   2.343  25.801  15.358  0.0480 -0.2123 -0.5179
  995DOPE   C1A11668   2.263  25.288  15.280 -0.0686  0.0150  0.1730
  995DOPE   D2A11669   2.002  25.097  14.936 -0.0223  0.0961  0.1814
  995DOPE   C3A11670   2.282  25.133  14.557 -0.2039  0.0055 -0.2387
  995DOPE   C4A11671   2.337  25.146  14.080  0.1936 -0.0016 -0.3081
  995DOPE   C1B11672   2.494  26.088  14.980 -0.0401  0.0699  0.3779
  995DOPE   D2B11673   2.806  25.916  14.641 -0.0057  0.1897 -0.1007
  995DOPE   C3B11674   3.113  26.059  14.322 -0.1449 -0.1355  0.1267
  995DOPE   C4B11675   3.132  26.124  13.868  0.0161 -0.0997  0.1018
  996DOPC   NC311676  11.242  27.882  15.091 -0.1388 -0.0221 -0.0203
  996DOPC   PO411677  10.902  28.060  15.191  0.0785 -0.0471 -0.4770
  996DOPC   GL111678  11.026  28.160  14.772  0.1933  0.2405  0.2082
  996DOPC   GL211679  11.152  27.993  14.574 -0.2328 -0.2215 -0.0573
  996DOPC   C1A11680  10.601  28.222  14.481 -0.1934 -0.1214 -0.1313
  996DOPC   D2A11681  10.528  28.441  14.085  0.0292 -0.0881 -0.0974
  996DOPC   C3A11682  10.317  28.270  13.659 -0.2600 -0.2869 -0.3287
  996DOPC   C4A11683  10.005  27.960  13.554  0.0706 -0.3637  0.3059
  996DOPC   C1B11684  10.918  27.953  14.187 -0.0192  0.1669 -0.0866
  996DOPC   D2B11685  10.711  27.991  13.789 -0.0811  0.3031 -0.0778
  996DOPC   C3B11686  10.689  27.680  13.467  0.0013  0.2937  0.0890
  996DOPC   C4B11687  10.578  27.285  13.397  0.2470 -0.0074 -0.1455
  997POSM   NC311688   2.173  22.513  16.948  0.3669  0.0260  0.1617
  997POSM   PO411689   2.208  22.848  16.807  0.1868  0.2560 -0.1471
  997POSM   AM111690   2.212  23.033  16.540  0.3506  0.2590 -0.0263
  997POSM   AM211691   2.305  23.017  16.299 -0.0721 -0.1246 -0.0412
  997POSM   T1A11692   1.908  23.316  16.194  0.0729  0.0619  0.0790
  997POSM   C2A11693   1.761  23.142  15.806  0.0191 -0.1837 -0.0169
  997POSM   C3A11694   1.794  22.914  15.388  0.1419  0.0692  0.3317
  997POSM   C1B11695   2.035  22.855  16.125  0.0794 -0.1115  0.1877
  997POSM   D2B11696   1.538  22.719  16.051  0.1275  0.3713  0.2502
  997POSM   C3B11697   1.424  22.625  15.621 -0.0025 -0.1547 -0.0301
  997POSM   C4B11698   1.268  22.858  15.254  0.1929 -0.2214 -0.0839
  998DOPE   NH311699   8.455  25.301  15.913 -0.0857  0.1076  0.1430
  998DOPE   PO411700   8.361  25.580  15.890 -0.2273 -0.2334 -0.1546
  998DOPE   GL111701   8.360  25.813  15.527 -0.0121 -0.0941 -0.2359
  998DOPE   GL211702   8.606  25.968  15.577  0.0886 -0.3574 -0.0183
  998DOPE   C1A11703   8.140  25.654  15.159 -0.1458  0.0111  0.1289
  998DOPE   D2A11704   8.131  25.300  14.917 -0.0242  0.4623 -0.0739
  998DOPE   C3A11705   8.047  25.542  14.517  0.3381  0.2177  0.2116
  998DOPE   C4A11706   7.783  25.857  14.265  0.0428  0.0854  0.3946
  998DOPE   C1B11707   8.663  25.790  15.146  0.2548 -0.0872  0.1057
  998DOPE   D2B11708   8.838  25.985  14.771 -0.0893  0.1900 -0.1744
  998DOPE   C3B11709   8.564  25.978  14.410  0.3618 -0.2503 -0.2877
  998DOPE   C4B11710   8.277  25.748  14.159  0.1291 -0.3001  0.0013
  999DOPE   NH311711   9.879  26.078  15.088 -0.3069  0.2560 -0.0526
  999DOPE   PO411712   9.698  26.338  15.174 -0.3651  0.2175  0.2612
  999DOPE   GL111713   9.692  26.527  14.834  0.1839  0.1489  0.1844
  999DOPE   GL211714   9.826  26.355  14.635 -0.1247  0.2844 -0.0691
  999DOPE   C1A11715   9.916  26.871  14.661  0.2151 -0.0913 -0.2135
  999DOPE   D2A11716  10.270  27.061  14.475  0.2902 -0.1131  0.0107
  999DOPE   C3A11717  10.431  27.147  14.023  0.0804 -0.0716 -0.2000
  999DOPE   C4A11718  10.759  26.890  13.707 -0.1840  0.1325 -0.0301
  999DOPE   C1B11719   9.490  26.189  14.299  0.0516  0.1882 -0.1861
  999DOPE   D2B11720   9.416  26.134  13.865 -0.2657  0.1649  0.2049
  999DOPE   C3B11721   9.166  25.712  13.826 -0.1262  0.0659 -0.1623
  999DOPE   C4B11722   9.184  25.256  13.852 -0.0672  0.1532  0.0006
 1000POSM   NC311723   3.073  24.929  16.280  0.0460 -0.2524  0.0285
 1000POSM   PO411724   3.324  24.904  16.578  0.1740  0.2757  0.0624
 1000POSM   AM111725   3.483  24.641  16.410 -0.3279 -0.0416 -0.0490
 1000POSM   AM211726   3.787  24.568  16.396  0.0612 -0.0275  0.1043
 1000POSM   T1A11727   3.576  24.597  15.891  0.1937  0.0647  0.4792
 1000POSM   C2A11728   3.946  24.652  15.512 -0.2813  0.0795  0.0477
 1000POSM   C3A11729   4.029  24.495  15.111  0.1487 -0.3852  0.2143
 1000POSM   C1B11730   3.821  24.288  16.224  0.4768 -0.2734  0.0719
 1000POSM   D2B11731   4.087  24.204  15.811 -0.2073  0.0448 -0.1510
 1000POSM   C3B11732   4.225  23.802  15.699  0.1686  0.4159 -0.1498
 1000POSM   C4B11733   4.133  23.341  15.550 -0.1964 -0.0843 -0.0469
 1001DOPS   CNO11734   7.180  24.602  16.011  0.1346 -0.3036 -0.0020
 1001DOPS   PO411735   7.542  24.558  16.012 -0.1324  0.0393  0.2338
 1001DOPS   GL111736   7.624  24.554  15.646  0.2583 -0.0100 -0.0321
 1001DOPS   GL211737   7.411  24.694  15.477  0.1520 -0.1830 -0.0338
 1001DOPS   C1A11738   7.769  24.414  15.203  0.1382  0.0762  0.1245
 1001DOPS   D2A11739   7.930  24.312  14.742  0.0834 -0.2000  0.0443
 1001DOPS   C3A11740   7.657  24.087  14.467 -0.2419 -0.0478 -0.1192
 1001DOPS   C4A11741   7.402  24.073  14.069 -0.0074 -0.1411 -0.3796
 1001DOPS   C1B11742   7.294  24.785  15.037  0.3491 -0.0289 -0.1218
 1001DOPS   D2B11743   7.391  24.846  14.621 -0.1163 -0.0674  0.1276
 1001DOPS   C3B11744   7.088  24.926  14.248  0.2012  0.2761  0.0673
 1001DOPS   C4B11745   6.899  24.904  13.828 -0.1295  0.0029 -0.2241
 1002DOPC   NC311746   4.111  33.772  15.139  0.6137  0.3254  0.0932
 1002DOPC   PO411747   3.927  33.436  15.291  0.2079 -0.1829 -0.3871
 1002DOPC   GL111748   3.864  33.386  14.891 -0.1177 -0.0572 -0.0570
 1002DOPC   GL211749   3.698  33.517  14.763  0.0568  0.0293 -0.1272
 1002DOPC   C1A11750   3.855  33.170  14.482  0.1326  0.1207  0.0447
 1002DOPC   D2A11751   3.875  33.112  14.009  0.1436 -0.4755  0.1145
 1002DOPC   C3A11752   3.492  33.207  13.717 -0.1736  0.1159 -0.3592
 1002DOPC   C4A11753   3.076  33.352  13.527 -0.0175 -0.2711 -0.2259
 1002DOPC   C1B11754   3.540  33.522  14.316 -0.0020  0.1613 -0.0038
 1002DOPC   D2B11755   3.240  33.581  13.992 -0.0822 -0.0816 -0.0982
 1002DOPC   C3B11756   3.403  33.770  13.634 -0.0275  0.0264 -0.2442
 1002DOPC   C4B11757   3.757  34.066  13.408 -0.0080  0.1753 -0.0384
 1003POSM   NC311758   5.237  28.938  16.201 -0.0294 -0.3233 -0.0702
 1003POSM   PO411759   5.520  28.793  16.018 -0.0135 -0.4864  0.0599
 1003POSM   AM111760   5.584  28.820  15.704 -0.0140 -0.6188 -0.0911
 1003POSM   AM211761   5.644  28.983  15.460 -0.1168  0.1116 -0.2494
 1003POSM   T1A11762   5.237  28.825  15.280  0.0835 -0.1447  0.2707
 1003POSM   C2A11763   5.183  28.614  14.829 -0.1117 -0.4642 -0.0528
 1003POSM   C3A11764   5.454  28.331  14.530 -0.1821  0.0484 -0.0604
 1003POSM   C1B11765   5.757  28.919  15.139  0.3053  0.1380  0.5134
 1003POSM   D2B11766   5.559  28.849  14.693 -0.2760  0.0922 -0.0952
 1003POSM   C3B11767   5.551  28.906  14.239 -0.2765 -0.1646 -0.0459
 1003POSM   C4B11768   5.806  28.922  13.793  0.0333  0.1303  0.1249
 1004DOPE   NH311769   7.551  25.044  15.997 -0.1564  0.0266  0.1107
 1004DOPE   PO411770   7.413  25.138  15.707  0.0791 -0.1703 -0.1131
 1004DOPE   GL111771   7.183  25.225  15.489  0.2930 -0.2739  0.2838
 1004DOPE   GL211772   6.946  24.953  15.480 -0.0636 -0.3623 -0.2552
 1004DOPE   C1A11773   7.132  25.303  15.058 -0.1414  0.0555  0.1276
 1004DOPE   D2A11774   7.114  25.270  14.602  0.1089  0.2707 -0.2460
 1004DOPE   C3A11775   6.926  25.586  14.325 -0.0767 -0.0076 -0.2871
 1004DOPE   C4A11776   6.449  25.768  14.304 -0.1200  0.3089  0.4863
 1004DOPE   C1B11777   6.611  25.173  15.178  0.1414  0.1272  0.0260
 1004DOPE   D2B11778   6.186  25.219  14.935  0.1024  0.0857  0.0379
 1004DOPE   C3B11779   5.830  25.059  14.717  0.0745  0.0501  0.0301
 1004DOPE   C4B11780   5.631  24.660  14.759 -0.4549  0.3314  0.3875
 1005DOPS   CNO11781   6.567  24.009  16.953  0.0753  0.2175 -0.1130
 1005DOPS   PO411782   6.700  23.697  16.780 -0.3745 -0.0813 -0.0116
 1005DOPS   GL111783   6.684  23.561  16.345 -0.0910 -0.2935  0.4541
 1005DOPS   GL211784   6.404  23.495  16.329 -0.0110 -0.1407  0.2577
 1005DOPS   C1A11785   6.538  23.616  15.870 -0.1008 -0.1118  0.0429
 1005DOPS   D2A11786   6.384  23.673  15.395  0.3736 -0.2361 -0.0856
 1005DOPS   C3A11787   6.155  23.302  15.210  0.0526  0.0708  0.3045
 1005DOPS   C4A11788   6.059  22.903  14.957 -0.3694 -0.1331 -0.0560
 1005DOPS   C1B11789   6.260  23.952  16.217 -0.0191 -0.0465 -0.1375
 1005DOPS   D2B11790   5.946  24.254  16.186 -0.1099  0.0212  0.1770
 1005DOPS   C3B11791   5.938  24.279  15.720  0.1688 -0.0510  0.0513
 1005DOPS   C4B11792   6.019  24.125  15.293 -0.0688 -0.3796  0.0531
 1006DOPS   CNO11793   6.164  32.285  14.961  0.1401 -0.4040 -0.2009
 1006DOPS   PO411794   6.384  32.595  14.883 -0.0584 -0.1091 -0.0533
 1006DOPS   GL111795   6.156  32.536  14.546 -0.4442  0.0770  0.2313
 1006DOPS   GL211796   6.334  32.305  14.374 -0.0066 -0.0752 -0.2687
 1006DOPS   C1A11797   6.089  32.886  14.253  0.0312  0.0480 -0.0729
 1006DOPS   D2A11798   5.793  32.907  13.881  0.0632 -0.3271  0.0035
 1006DOPS   C3A11799   5.664  32.806  13.478  0.1860  0.1690  0.1526
 1006DOPS   C4A11800   5.359  32.576  13.172  0.0156  0.1616  0.1927
 1006DOPS   C1B11801   5.975  32.222  14.129  0.0067 -0.2319 -0.1196
 1006DOPS   D2B11802   5.778  32.368  13.751 -0.0449 -0.2157 -0.0531
 1006DOPS   C3B11803   5.643  32.206  13.361 -0.2451 -0.1388  0.0100
 1006DOPS   C4B11804   5.855  32.304  12.970  0.2742 -0.1806 -0.0330
 1007DOPE   NH311805  11.126  22.654  15.484 -0.0209 -0.3431 -0.1040
 1007DOPE   PO411806  11.291  22.940  15.400 -0.1105  0.1140 -0.1015
 1007DOPE   GL111807  11.238  22.900  15.020 -0.2445  0.3739 -0.3631
 1007DOPE   GL211808  11.102  22.596  14.971  0.1635  0.2330  0.0111
 1007DOPE   C1A11809  11.286  23.246  14.684  0.0218  0.3369 -0.0973
 1007DOPE   D2A11810  10.909  23.450  14.535  0.0230  0.1858  0.0050
 1007DOPE   C3A11811  10.589  23.438  14.215 -0.0721  0.1321  0.1330
 1007DOPE   C4A11812  10.651  23.553  13.771 -0.0580 -0.1069  0.0427
 1007DOPE   C1B11813  10.985  22.784  14.588  0.1858  0.0018 -0.1381
 1007DOPE   D2B11814  10.886  23.053  14.189 -0.0588  0.3367 -0.2063
 1007DOPE   C3B11815  10.566  23.036  13.872  0.0384 -0.3933  0.0686
 1007DOPE   C4B11816  10.256  23.261  13.568 -0.2025  0.0755  0.1285
 1008DOPC   NC311817   6.739  25.394  16.334 -0.0784  0.0005 -0.2010
 1008DOPC   PO411818   7.012  25.728  16.260  0.3184 -0.0059 -0.2164
 1008DOPC   GL111819   6.849  25.582  15.896 -0.0869 -0.7406 -0.0255
 1008DOPC   GL211820   6.926  25.382  15.875 -0.2848 -0.1690  0.0299
 1008DOPC   C1A11821   6.419  25.563  15.625 -0.0612 -0.0076  0.1236
 1008DOPC   D2A11822   6.281  25.633  15.188  0.0316 -0.2812 -0.0351
 1008DOPC   C3A11823   6.387  25.965  14.838 -0.0751 -0.3226  0.2312
 1008DOPC   C4A11824   6.233  26.163  14.450 -0.2244  0.1044 -0.0555
 1008DOPC   C1B11825   6.595  25.096  15.835  0.1066  0.0136  0.1602
 1008DOPC   D2B11826   6.310  24.992  15.486  0.0215 -0.0214 -0.3719
 1008DOPC   C3B11827   5.943  25.279  15.363  0.1250  0.1234 -0.0772
 1008DOPC   C4B11828   5.677  25.510  15.057 -0.1122  0.0564  0.0487
 1009DOPS   CNO11829  10.987  29.152  15.133 -0.1371  0.0841 -0.0467
 1009DOPS   PO411830  10.710  29.014  15.347  0.2054  0.0122 -0.2152
 1009DOPS   GL111831  10.628  28.899  14.987  0.2591 -0.3189  0.1065
 1009DOPS   GL211832  10.484  29.180  14.875 -0.1578  0.2969  0.0027
 1009DOPS   C1A11833  10.868  28.767  14.635  0.5159 -0.0988 -0.0248
 1009DOPS   D2A11834  11.038  28.399  14.320 -0.2934  0.1357  0.4392
 1009DOPS   C3A11835  11.166  28.325  13.860  0.0450 -0.0302  0.1354
 1009DOPS   C4A11836  11.491  28.222  13.487 -0.0741 -0.0539  0.0356
 1009DOPS   C1B11837  10.164  29.123  14.506  0.3528 -0.3833 -0.0240
 1009DOPS   D2B11838  10.124  29.076  14.049  0.0289  0.1188 -0.2691
 1009DOPS   C3B11839  10.542  28.881  13.814  0.1081 -0.3726  0.0590
 1009DOPS   C4B11840  10.783  28.533  13.597 -0.2306 -0.1514 -0.2336
 1010DOPE   NH311841   3.601  32.965  15.234  0.1167 -0.0272 -0.0788
 1010DOPE   PO411842   3.875  32.870  15.181  0.1156 -0.0377  0.4493
 1010DOPE   GL111843   3.810  32.829  14.771 -0.0051 -0.2847  0.1504
 1010DOPE   GL211844   3.739  32.520  14.709  0.0425 -0.1785 -0.0947
 1010DOPE   C1A11845   3.990  32.711  14.307 -0.3558 -0.0785  0.0349
 1010DOPE   D2A11846   4.013  32.655  13.824 -0.2569 -0.4209  0.1309
 1010DOPE   C3A11847   3.852  32.991  13.536 -0.1194  0.2307  0.3104
 1010DOPE   C4A11848   3.840  33.070  13.095  0.0355 -0.2671 -0.1623
 1010DOPE   C1B11849   3.426  32.427  14.372 -0.0295  0.2960  0.2225
 1010DOPE   D2B11850   3.156  32.338  14.050  0.0797 -0.0066  0.0514
 1010DOPE   C3B11851   3.087  32.235  13.629  0.1130 -0.0290  0.1229
 1010DOPE   C4B11852   3.386  32.172  13.254 -0.0933  0.3006  0.2544
 1011DOPE   NH311853   8.713  30.624  14.272  0.1437  0.2009 -0.1359
 1011DOPE   PO411854   8.567  30.930  14.334 -0.0059  0.2102  0.1342
 1011DOPE   GL111855   8.415  31.030  13.962 -0.1418  0.0473 -0.3702
 1011DOPE   GL211856   8.293  30.784  13.918  0.0825  0.0126 -0.2698
 1011DOPE   C1A11857   8.529  31.019  13.494  0.1697  0.0598  0.1701
 1011DOPE   D2A11858   8.773  30.782  13.197  0.0035  0.2990 -0.3584
 1011DOPE   C3A11859   8.897  30.340  13.242  0.5268 -0.0296 -0.1272
 1011DOPE   C4A11860   9.046  29.975  13.016 -0.1376 -0.1746 -0.0769
 1011DOPE   C1B11861   8.449  30.541  13.561  0.1226  0.4258  0.0372
 1011DOPE   D2B11862   8.356  30.093  13.599 -0.1631  0.1540  0.0181
 1011DOPE   C3B11863   8.012  29.818  13.356  0.1652  0.1497  0.0066
 1011DOPE   C4B11864   7.763  29.458  13.214  0.1510 -0.4381 -0.0675
 1012DOPE   NH311865   6.979  28.884  15.643 -0.0387 -0.0474 -0.1381
 1012DOPE   PO411866   7.089  28.604  15.742  0.1133 -0.0373  0.3785
 1012DOPE   GL111867   7.033  28.374  15.432  0.0217  0.5481  0.2523
 1012DOPE   GL211868   6.771  28.271  15.305 -0.0194 -0.2199  0.0805
 1012DOPE   C1A11869   7.295  28.093  15.127  0.3833 -0.1114 -0.0853
 1012DOPE   D2A11870   7.374  27.891  14.719  0.3038 -0.0992  0.0820
 1012DOPE   C3A11871   7.505  27.467  14.623  0.0059 -0.3996 -0.2818
 1012DOPE   C4A11872   7.199  27.094  14.572 -0.1249  0.2318 -0.0985
 1012DOPE   C1B11873   6.878  28.145  14.875  0.0121  0.2760 -0.1200
 1012DOPE   D2B11874   7.035  28.174  14.508  0.0370 -0.0030  0.2778
 1012DOPE   C3B11875   6.862  28.249  14.081  0.0683  0.2428 -0.1377
 1012DOPE   C4B11876   6.399  28.216  13.846 -0.0038 -0.2738 -0.2172
 1013DOPC   NC311877  10.464  32.472  14.438 -0.2460  0.0333  0.0723
 1013DOPC   PO411878  10.721  32.774  14.428 -0.0135 -0.0955  0.1274
 1013DOPC   GL111879  10.815  32.721  14.081 -0.0144 -0.1236 -0.1459
 1013DOPC   GL211880  10.667  32.567  13.918  0.0098 -0.1107 -0.2791
 1013DOPC   C1A11881  11.014  32.794  13.645 -0.0101 -0.1291 -0.3027
 1013DOPC   D2A11882  11.230  33.162  13.505  0.1245 -0.1441  0.0725
 1013DOPC   C3A11883  11.462  33.120  13.115 -0.0324 -0.2492  0.0552
 1013DOPC   C4A11884  11.423  33.283  12.689  0.0507 -0.1766  0.1424
 1013DOPC   C1B11885  10.562  32.696  13.499 -0.1180 -0.0031  0.0066
 1013DOPC   D2B11886  10.512  32.848  13.056 -0.0382 -0.1855  0.0273
 1013DOPC   C3B11887  10.785  33.112  12.811 -0.0107  0.3415  0.0048
 1013DOPC   C4B11888  10.957  33.208  12.438  0.1291 -0.2208  0.3598
 1014POSM   NC311889   2.534  29.673  16.110 -0.1425 -0.0083  0.2264
 1014POSM   PO411890   2.694  30.019  15.989 -0.0404  0.2351 -0.0458
 1014POSM   AM111891   2.755  29.857  15.706  0.3815  0.0360  0.2121
 1014POSM   AM211892   2.826  29.653  15.511 -0.1974  0.1356  0.1378
 1014POSM   T1A11893   2.519  29.910  15.247  0.2012  0.0397 -0.1533
 1014POSM   C2A11894   2.519  29.581  14.861  0.1504 -0.0992  0.0828
 1014POSM   C3A11895   2.411  29.091  14.834  0.2860  0.1718 -0.0092
 1014POSM   C1B11896   2.652  29.407  15.348 -0.2123  0.2131 -0.5022
 1014POSM   D2B11897   2.233  29.246  15.242  0.2720  0.1610 -0.4043
 1014POSM   C3B11898   2.100  28.831  15.205  0.1152  0.0360 -0.2086
 1014POSM   C4B11899   1.856  28.394  15.253 -0.1267 -0.0152 -0.2633
 1015POSM   NC311900  34.294  32.936  16.860  0.3824  0.0408 -0.0880
 1015POSM   PO411901  34.456  33.020  16.463 -0.0207  0.0876  0.0272
 1015POSM   AM111902  34.580  33.061  16.145  0.2056  0.3913  0.3416
 1015POSM   AM211903  34.651  32.861  15.959 -0.0175 -0.4982 -0.0799
 1015POSM   T1A11904  34.538  33.235  15.680 -0.1254  0.0337 -0.0334
 1015POSM   C2A11905  34.305  33.264  15.272 -0.0130  0.0145 -0.0004
 1015POSM   C3A11906  33.901  33.304  15.084 -0.2799  0.3210 -0.2024
 1015POSM   C1B11907  34.828  32.750  15.677  0.0559  0.0965 -0.2130
 1015POSM   D2B11908  34.994  32.505  15.348 -0.0930  0.2124  0.2421
 1015POSM   C3B11909  35.345  32.612  14.976 -0.3423 -0.0562 -0.1630
 1015POSM   C4B11910  35.676  32.873  14.734 -0.1255 -0.0558 -0.0355
 1016DOPC   NC311911   5.739  27.007  16.220  0.1462  0.1465 -0.1900
 1016DOPC   PO411912   5.889  27.340  16.046 -0.0067 -0.1612 -0.1278
 1016DOPC   GL111913   5.837  27.192  15.690  0.0952  0.2742 -0.1748
 1016DOPC   GL211914   5.710  27.405  15.577 -0.3329 -0.1114  0.3016
 1016DOPC   C1A11915   5.949  27.006  15.297 -0.2171 -0.1578 -0.3851
 1016DOPC   D2A11916   6.020  27.144  14.816 -0.2382  0.1384 -0.2479
 1016DOPC   C3A11917   6.240  27.434  14.942 -0.4460 -0.1000 -0.4071
 1016DOPC   C4A11918   6.542  27.531  14.697 -0.0531 -0.1452  0.0047
 1016DOPC   C1B11919   5.784  27.566  15.147  0.2260 -0.1929  0.0812
 1016DOPC   D2B11920   5.936  27.749  14.761  0.1223 -0.2920  0.1213
 1016DOPC   C3B11921   5.911  27.397  14.408  0.3282 -0.2438  0.3732
 1016DOPC   C4B11922   6.099  27.046  14.202 -0.0922 -0.0999 -0.2575
 1017DOPC   NC311923   8.577  27.958  15.320  0.2314 -0.5122  0.0298
 1017DOPC   PO411924   8.302  28.155  15.139  0.1765  0.0196  0.3419
 1017DOPC   GL111925   8.252  28.422  14.772  0.2892  0.1128 -0.1970
 1017DOPC   GL211926   7.966  28.447  14.867 -0.3375  0.2613 -0.0589
 1017DOPC   C1A11927   8.022  28.285  14.415 -0.2562  0.0272  0.1855
 1017DOPC   D2A11928   8.035  28.146  13.951  0.0159  0.1528  0.0863
 1017DOPC   C3A11929   8.190  28.467  13.691  0.5521  0.1191  0.0292
 1017DOPC   C4A11930   8.187  28.548  13.224 -0.1089 -0.1384 -0.2794
 1017DOPC   C1B11931   7.582  28.368  14.668 -0.0177  0.1666 -0.0760
 1017DOPC   D2B11932   7.474  28.254  14.235 -0.1410 -0.1246 -0.0095
 1017DOPC   C3B11933   7.241  27.813  14.227  0.1653  0.0839  0.2189
 1017DOPC   C4B11934   7.277  27.394  14.149 -0.1988 -0.1853 -0.0349
 1018DOPS   CNO11935   1.494  32.016  16.045 -0.0799 -0.1511  0.3438
 1018DOPS   PO411936   1.564  32.042  15.678 -0.1476  0.3718 -0.2948
 1018DOPS   GL111937   1.414  31.978  15.368  0.3225  0.0093 -0.2122
 1018DOPS   GL211938   1.277  31.729  15.166 -0.0515 -0.0860 -0.0228
 1018DOPS   C1A11939   1.547  32.223  15.013  0.1583  0.2603 -0.1319
 1018DOPS   D2A11940   1.712  32.259  14.591  0.2144 -0.0937 -0.1327
 1018DOPS   C3A11941   1.712  31.852  14.332  0.2307 -0.0744 -0.1865
 1018DOPS   C4A11942   1.691  31.462  14.018 -0.1612 -0.0850 -0.1918
 1018DOPS   C1B11943   1.312  31.851  14.708 -0.1233  0.0932  0.0095
 1018DOPS   D2B11944   1.178  31.997  14.217  0.0403  0.0733 -0.4283
 1018DOPS   C3B11945   1.307  31.691  13.860 -0.1013  0.0675 -0.0161
 1018DOPS   C4B11946   1.501  31.706  13.470  0.0625  0.0901  0.0534
 1019DOPE   NH311947   8.048  24.434  15.838  0.0949  0.1330  0.1620
 1019DOPE   PO411948   7.833  24.158  15.823  0.2333  0.1344 -0.0670
 1019DOPE   GL111949   7.596  24.126  15.643  0.2245  0.1359 -0.2628
 1019DOPE   GL211950   7.302  24.143  15.674  0.1556 -0.0261 -0.3456
 1019DOPE   C1A11951   7.389  23.837  15.295  0.0679 -0.1595 -0.3665
 1019DOPE   D2A11952   6.996  23.855  15.007 -0.1776  0.2406 -0.1476
 1019DOPE   C3A11953   6.925  24.199  14.709 -0.1746 -0.0324 -0.0067
 1019DOPE   C4A11954   6.902  24.678  14.786 -0.2305  0.1727  0.0498
 1019DOPE   C1B11955   7.206  24.307  15.223  0.1356 -0.3026 -0.0687
 1019DOPE   D2B11956   7.424  24.372  14.814  0.0059  0.1259 -0.0268
 1019DOPE   C3B11957   7.238  24.462  14.366 -0.0933  0.1797 -0.0481
 1019DOPE   C4B11958   7.352  24.604  13.938  0.1702 -0.0164  0.0201
 1020DOPS   CNO11959   8.848  28.031  15.835  0.1215  0.0698  0.0221
 1020DOPS   PO411960   9.088  28.190  15.587  0.0998  0.1077 -0.0479
 1020DOPS   GL111961   9.046  28.185  15.197  0.1472  0.0898 -0.1031
 1020DOPS   GL211962   9.163  27.892  15.041 -0.0688  0.2057  0.3743
 1020DOPS   C1A11963   9.188  28.432  14.828  0.0956  0.1011 -0.0266
 1020DOPS   D2A11964   9.449  28.418  14.477  0.2140 -0.0249 -0.1579
 1020DOPS   C3A11965   9.627  28.504  14.078 -0.3500  0.3406  0.3650
 1020DOPS   C4A11966   9.832  28.504  13.620 -0.1217 -0.2871 -0.1017
 1020DOPS   C1B11967   9.252  27.913  14.527  0.0075 -0.3256  0.0706
 1020DOPS   D2B11968   9.422  27.686  14.147 -0.5212 -0.0816  0.1715
 1020DOPS   C3B11969   9.111  27.600  13.809  0.1405  0.1264 -0.1492
 1020DOPS   C4B11970   8.670  27.451  13.799 -0.0460  0.3542 -0.0242
 1021DOPE   NH311971  10.950  24.746  10.927  0.0423 -0.2112 -0.0837
 1021DOPE   PO411972  10.917  25.046  11.037  0.0829 -0.1170  0.1604
 1021DOPE   GL111973  11.151  25.026  11.350 -0.2157  0.1068  0.1455
 1021DOPE   GL211974  11.379  24.833  11.150 -0.0205 -0.2277 -0.0924
 1021DOPE   C1A11975  11.338  24.698  11.655  0.1042  0.0459  0.0561
 1021DOPE   D2A11976  11.169  24.358  11.965 -0.1880  0.2908 -0.2464
 1021DOPE   C3A11977  10.980  24.528  12.404 -0.0006 -0.0390  0.1781
 1021DOPE   C4A11978  10.783  24.713  12.799  0.4030 -0.1356  0.0478
 1021DOPE   C1B11979  11.566  25.137  11.446  0.2939 -0.1309 -0.1143
 1021DOPE   D2B11980  11.760  25.441  11.807 -0.1081  0.2213 -0.0905
 1021DOPE   C3B11981  12.170  25.386  11.663  0.0632  0.0619 -0.0747
 1021DOPE   C4B11982  12.431  25.506  11.245  0.1703  0.0930 -0.1245
 1022DOPS   CNO11983   1.786  27.673  12.872  0.0911  0.1593 -0.1327
 1022DOPS   PO411984   1.859  27.313  12.779  0.2996  0.0347 -0.2011
 1022DOPS   GL111985   1.985  27.312  13.152 -0.0842  0.0769  0.0991
 1022DOPS   GL211986   1.822  27.052  13.222 -0.0706  0.1342  0.1945
 1022DOPS   C1A11987   2.234  27.143  13.497 -0.2432 -0.0496  0.0178
 1022DOPS   D2A11988   2.125  26.868  13.914 -0.0689  0.1590 -0.2984
 1022DOPS   C3A11989   2.286  26.441  14.062 -0.1427  0.1675  0.0260
 1022DOPS   C4A11990   2.676  26.167  14.094  0.0360 -0.1292  0.0578
 1022DOPS   C1B11991   1.921  26.693  13.498 -0.0376  0.1298 -0.2115
 1022DOPS   D2B11992   1.958  26.294  13.770 -0.0861 -0.0816  0.3125
 1022DOPS   C3B11993   2.274  25.965  13.830  0.0772  0.1742  0.0994
 1022DOPS   C4B11994   2.541  25.613  13.622  0.3251 -0.2598 -0.1892
 1023DOPE   NH311995  10.498  25.329  11.262  0.6221  0.0135 -0.3182
 1023DOPE   PO411996  10.159  25.255  11.250 -0.0645 -0.1988  0.1056
 1023DOPE   GL111997   9.895  25.237  11.405  0.0797  0.0250  0.0530
 1023DOPE   GL211998   9.555  25.339  11.237  0.2817  0.0406  0.0593
 1023DOPE   C1A11999   9.607  25.316  11.775  0.0374 -0.1665  0.3898
 1023DOPE   D2A12000   9.175  25.138  11.866 -0.1543  0.1876  0.1590
 1023DOPE   C3A12001   9.157  25.070  12.305 -0.0075  0.2617 -0.0842
 1023DOPE   C4A12002   8.837  25.335  12.562  0.0521 -0.1147  0.0062
 1023DOPE   C1B12003   9.318  25.051  11.394  0.2059  0.2623 -0.0615
 1023DOPE   D2B12004   9.045  24.667  11.587  0.0015 -0.3112  0.5070
 1023DOPE   C3B12005   8.943  24.671  12.037  0.3377 -0.3404  0.0178
 1023DOPE   C4B12006   8.775  24.791  12.473  0.3886 -0.1560  0.3547
 1024DOPE   NH312007  10.420  24.221  11.388  0.2051 -0.2030  0.0175
 1024DOPE   PO412008  10.420  24.481  11.580  0.1067 -0.0449  0.1399
 1024DOPE   GL112009  10.015  24.315  11.639  0.2286  0.0300  0.0750
 1024DOPE   GL212010   9.993  24.289  11.899 -0.2206  0.2719 -0.1202
 1024DOPE   C1A12011   9.828  23.908  11.471 -0.0515 -0.3443  0.1470
 1024DOPE   D2A12012   9.521  23.551  11.326  0.2407 -0.0372  0.0388
 1024DOPE   C3A12013   9.242  23.708  11.702  0.0838  0.3611  0.0936
 1024DOPE   C4A12014   9.017  24.037  11.971  0.0387  0.2018  0.0460
 1024DOPE   C1B12015  10.083  24.615  12.154  0.1087 -0.1607 -0.0858
 1024DOPE   D2B12016  10.159  24.705  12.616  0.1548 -0.2682 -0.3254
 1024DOPE   C3B12017  10.165  24.818  13.064 -0.1358  0.3114 -0.1304
 1024DOPE   C4B12018  10.479  24.948  13.363  0.0497 -0.0353 -0.1642
 1025DOPC   NC312019   9.880  24.902  11.081 -0.1459 -0.0274 -0.0555
 1025DOPC   PO412020   9.985  24.564  11.246  0.2356  0.0035 -0.4309
 1025DOPC   GL112021   9.648  24.725  11.475  0.1622 -0.1133 -0.4945
 1025DOPC   GL212022   9.611  24.867  11.800  0.2736  0.1105 -0.0851
 1025DOPC   C1A12023   9.461  24.279  11.671  0.1080 -0.1187  0.0232
 1025DOPC   D2A12024   9.617  23.918  11.951 -0.4170  0.2032  0.1018
 1025DOPC   C3A12025   9.848  24.099  12.317  0.1143 -0.1156  0.2083
 1025DOPC   C4A12026   9.756  24.373  12.702  0.3867 -0.1964 -0.0966
 1025DOPC   C1B12027   9.507  24.537  12.139 -0.0423  0.2738 -0.0504
 1025DOPC   D2B12028   9.199  24.339  12.393 -0.2474  0.1289  0.0304
 1025DOPC   C3B12029   9.157  24.445  12.821 -0.0533 -0.0811 -0.1483
 1025DOPC   C4B12030   9.188  24.623  13.244 -0.0772 -0.0714  0.1850
 1026DOPC   NC312031   0.933  31.216  11.978  0.0417 -0.0718 -0.0448
 1026DOPC   PO412032   1.198  30.998  12.159 -0.0279  0.2912 -0.3609
 1026DOPC   GL112033   1.364  31.083  12.460  0.4474 -0.0299 -0.1614
 1026DOPC   GL212034   1.165  31.109  12.694 -0.3483  0.0808 -0.2620
 1026DOPC   C1A12035   1.772  31.188  12.601 -0.0844  0.0690  0.0814
 1026DOPC   D2A12036   2.221  31.257  12.571  0.3933  0.0982 -0.1046
 1026DOPC   C3A12037   2.356  31.651  12.476 -0.0818  0.2317  0.2953
 1026DOPC   C4A12038   2.253  32.074  12.676  0.2847  0.4416 -0.0172
 1026DOPC   C1B12039   1.364  30.742  12.876  0.0830 -0.4173  0.2137
 1026DOPC   D2B12040   1.735  30.703  13.121 -0.3896  0.1013 -0.1120
 1026DOPC   C3B12041   1.868  30.846  13.568 -0.1489  0.0676  0.1601
 1026DOPC   C4B12042   2.106  31.120  13.758 -0.0527  0.2350  0.0369
 1027DOPE   NH312043  33.969  30.659  12.821 -0.3099 -0.0460 -0.2855
 1027DOPE   PO412044  34.102  30.972  12.701  0.2876  0.2118  0.2673
 1027DOPE   GL112045  34.242  31.187  12.987 -0.0134  0.0425  0.1626
 1027DOPE   GL212046  34.445  31.367  12.881  0.1245 -0.3263  0.0436
 1027DOPE   C1A12047  34.243  31.464  13.358 -0.3161  0.0645 -0.1288
 1027DOPE   D2A12048  34.480  31.812  13.596 -0.0946  0.2648  0.2898
 1027DOPE   C3A12049  34.257  32.147  13.753 -0.0762  0.0230 -0.0517
 1027DOPE   C4A12050  33.873  32.275  13.995  0.1652  0.1353 -0.1132
 1027DOPE   C1B12051  34.295  31.803  12.992  0.0464 -0.1492  0.3795
 1027DOPE   D2B12052  34.485  32.245  13.032  0.0112 -0.2810  0.2414
 1027DOPE   C3B12053  34.157  32.385  13.312 -0.0428  0.0419  0.0366
 1027DOPE   C4B12054  33.690  32.622  13.249 -0.2440 -0.2401  0.0529
 1028DOPE   NH312055  12.175  32.376  10.779  0.0158 -0.5346  0.0793
 1028DOPE   PO412056  11.976  32.360  11.066 -0.0092  0.0231 -0.1055
 1028DOPE   GL112057  11.885  32.122  11.389 -0.1052  0.0280  0.0302
 1028DOPE   GL212058  12.092  32.307  11.569  0.0660 -0.2598  0.0486
 1028DOPE   C1A12059  11.781  31.900  11.784  0.1757  0.2990 -0.2456
 1028DOPE   D2A12060  11.647  31.661  12.106  0.2148  0.2252  0.0583
 1028DOPE   C3A12061  11.243  31.629  12.345 -0.6076  0.2035 -0.0161
 1028DOPE   C4A12062  10.764  31.641  12.359 -0.2290  0.3226  0.1600
 1028DOPE   C1B12063  11.705  32.470  11.767  0.2131  0.0661  0.0728
 1028DOPE   D2B12064  11.298  32.274  11.827  0.3487 -0.3517  0.1849
 1028DOPE   C3B12065  10.910  32.321  11.557 -0.0489  0.3611  0.2591
 1028DOPE   C4B12066  10.607  32.336  11.221 -0.2248  0.1085 -0.0059
 1029DOPE   NH312067   6.228  28.049  12.033 -0.1147 -0.1749 -0.2809
 1029DOPE   PO412068   6.451  28.255  12.107  0.1306 -0.0901 -0.1752
 1029DOPE   GL112069   6.413  28.317  12.453  0.1383  0.0046  0.0218
 1029DOPE   GL212070   6.707  28.356  12.578 -0.2711  0.1612 -0.0994
 1029DOPE   C1A12071   6.169  28.409  12.808  0.1297  0.0110 -0.2609
 1029DOPE   D2A12072   5.958  28.633  13.101  0.1761  0.1302 -0.2198
 1029DOPE   C3A12073   6.155  28.955  13.340 -0.1579  0.5857  0.0558
 1029DOPE   C4A12074   6.074  29.338  13.576 -0.3092 -0.0097  0.0190
 1029DOPE   C1B12075   6.881  28.408  13.040 -0.0554 -0.0067 -0.1311
 1029DOPE   D2B12076   7.227  28.524  13.292 -0.0526 -0.1306 -0.2219
 1029DOPE   C3B12077   7.061  28.962  13.394  0.2431  0.3252 -0.0946
 1029DOPE   C4B12078   6.603  29.164  13.432  0.4124  0.1818 -0.2330
 1030POSM   NC312079   0.421  32.016  12.671  0.0361  0.2067  0.0916
 1030POSM   PO412080   0.752  32.246  12.614 -0.0094 -0.2213  0.2716
 1030POSM   AM112081   1.017  32.298  12.794 -0.0336  0.1123  0.2741
 1030POSM   AM212082   1.190  32.111  12.824 -0.0297  0.3233 -0.0589
 1030POSM   T1A12083   1.400  32.489  13.073 -0.2708 -0.1569 -0.0941
 1030POSM   C2A12084   1.786  32.488  13.351 -0.2467 -0.2982 -0.1127
 1030POSM   C3A12085   2.227  32.431  13.547  0.2223 -0.1751  0.3276
 1030POSM   C1B12086   1.185  32.069  13.199 -0.4625 -0.3232  0.2092
 1030POSM   D2B12087   1.288  32.122  13.661  0.2262 -0.1080  0.1371
 1030POSM   C3B12088   1.722  32.068  13.754  0.0915 -0.0405 -0.1937
 1030POSM   C4B12089   2.044  31.806  13.631 -0.0075  0.0548 -0.0114
 1031DOPE   NH312090   3.633  30.759  12.290  0.0281  0.1325 -0.1331
 1031DOPE   PO412091   3.519  30.484  12.259 -0.1390  0.0359 -0.0354
 1031DOPE   GL112092   3.300  30.559  12.638  0.0585  0.1457 -0.2163
 1031DOPE   GL212093   3.567  30.634  12.776 -0.0197  0.4125  0.2155
 1031DOPE   C1A12094   3.125  30.889  12.904 -0.0245  0.0245  0.0227
 1031DOPE   D2A12095   3.139  31.152  13.193 -0.2511 -0.0330 -0.1864
 1031DOPE   C3A12096   3.514  31.305  13.325 -0.0483 -0.2281  0.0686
 1031DOPE   C4A12097   3.584  31.544  13.707  0.1336  0.0201  0.1304
 1031DOPE   C1B12098   3.720  30.735  13.220  0.0179 -0.4076 -0.1660
 1031DOPE   D2B12099   4.096  30.717  13.482 -0.1292 -0.1886 -0.2514
 1031DOPE   C3B12100   4.196  30.269  13.515 -0.3693 -0.0111  0.0585
 1031DOPE   C4B12101   4.121  29.947  13.834 -0.0676  0.0291 -0.4373
 1032POSM   NC312102   6.024  29.441  11.584 -0.2008  0.1231 -0.2774
 1032POSM   PO412103   6.409  29.478  11.616  0.2686  0.2602  0.0753
 1032POSM   AM112104   6.617  29.628  11.813 -0.4712  0.4005 -0.1726
 1032POSM   AM212105   6.614  29.890  11.825 -0.0689  0.1132  0.1419
 1032POSM   T1A12106   6.728  29.748  12.333 -0.1704 -0.0376 -0.0879
 1032POSM   C2A12107   6.952  29.721  12.744 -0.0099 -0.0108  0.0078
 1032POSM   C3A12108   7.012  29.876  13.162  0.1000  0.0759 -0.0452
 1032POSM   C1B12109   6.904  30.036  11.904  0.1705  0.0602 -0.1700
 1032POSM   D2B12110   7.034  30.124  12.303 -0.1376 -0.1311  0.0371
 1032POSM   C3B12111   7.275  30.100  12.716  0.0300  0.1206  0.3248
 1032POSM   C4B12112   7.585  30.332  12.977 -0.3294 -0.1257  0.2353
 1033POSM   NC312113   1.640  23.300  12.977 -0.1148  0.2372  0.2775
 1033POSM   PO412114   1.639  23.624  13.207 -0.0668 -0.0666 -0.1088
 1033POSM   AM112115   1.515  23.908  13.193  0.0722  0.1976  0.4276
 1033POSM   AM212116   1.722  24.143  13.132  0.1086  0.0079  0.0295
 1033POSM   T1A12117   1.282  24.364  13.087 -0.2490 -0.1342 -0.0728
 1033POSM   C2A12118   1.002  24.724  13.146  0.1887 -0.1081  0.0113
 1033POSM   C3A12119   0.696  25.012  13.002 -0.0594  0.1364 -0.1701
 1033POSM   C1B12120   1.679  24.304  13.442  0.2617 -0.0186 -0.2622
 1033POSM   D2B12121   1.646  24.575  13.818  0.1799  0.1551 -0.0749
 1033POSM   C3B12122   1.323  24.309  13.948  0.0622 -0.1862  0.0265
 1033POSM   C4B12123   1.007  23.996  14.040 -0.1529 -0.0356  0.0695
 1034DOPC   NC312124   8.611  32.437  10.510 -0.1926 -0.1297  0.4072
 1034DOPC   PO412125   8.854  32.627  10.275  0.1558  0.4498 -0.0898
 1034DOPC   GL112126   9.009  32.656  10.701 -0.4512 -0.1937 -0.0157
 1034DOPC   GL212127   8.801  32.582  10.942  0.0173  0.0776  0.1123
 1034DOPC   C1A12128   9.276  32.980  10.853 -0.0247 -0.1293 -0.0622
 1034DOPC   D2A12129   9.664  33.261  10.844 -0.0637 -0.2430  0.0130
 1034DOPC   C3A12130   9.954  33.024  11.023 -0.1063  0.0469  0.0004
 1034DOPC   C4A12131  10.170  32.612  10.917 -0.3455  0.0719 -0.1118
 1034DOPC   C1B12132   8.721  32.301  11.286 -0.1323  0.2079 -0.2372
 1034DOPC   D2B12133   8.332  31.955  11.317  0.5169 -0.0730 -0.1528
 1034DOPC   C3B12134   7.952  32.101  11.441  0.1243  0.0360  0.0766
 1034DOPC   C4B12135   7.506  32.088  11.443  0.1200 -0.0412  0.0189
 1035DOPC   NC312136   7.046  30.787  11.082 -0.0799  0.0182  0.1511
 1035DOPC   PO412137   7.282  30.953  10.795 -0.1915  0.1691 -0.0743
 1035DOPC   GL112138   7.339  31.160  11.202  0.1667  0.0523  0.0095
 1035DOPC   GL212139   7.338  31.446  11.083  0.1250 -0.1307  0.0972
 1035DOPC   C1A12140   7.688  31.175  11.499  0.0532 -0.1079  0.0251
 1035DOPC   D2A12141   7.899  30.836  11.693 -0.3979 -0.0193 -0.2984
 1035DOPC   C3A12142   7.752  30.564  12.030 -0.2199  0.3214 -0.1434
 1035DOPC   C4A12143   7.357  30.467  12.297  0.2123 -0.1078 -0.1488
 1035DOPC   C1B12144   7.070  31.471  11.470 -0.0050  0.2061 -0.2520
 1035DOPC   D2B12145   6.742  31.467  11.849 -0.0916  0.2462  0.0486
 1035DOPC   C3B12146   6.887  31.464  12.273  0.2902 -0.0632 -0.1385
 1035DOPC   C4B12147   6.694  31.159  12.609  0.1021 -0.0712 -0.1038
 1036DOPC   NC312148   3.246  27.811  12.481  0.0331 -0.0083 -0.1734
 1036DOPC   PO412149   3.069  27.517  12.680  0.3171 -0.0646  0.0369
 1036DOPC   GL112150   3.320  27.492  12.866 -0.1369  0.1651  0.3242
 1036DOPC   GL212151   3.579  27.416  12.678 -0.1379 -0.2932 -0.1521
 1036DOPC   C1A12152   3.790  27.463  13.096  0.0305  0.1549  0.1992
 1036DOPC   D2A12153   4.089  27.122  13.254 -0.0082  0.0821  0.1334
 1036DOPC   C3A12154   3.975  26.882  13.587 -0.0007  0.0854 -0.1684
 1036DOPC   C4A12155   3.723  26.944  13.981  0.2081 -0.1858  0.1685
 1036DOPC   C1B12156   3.673  27.030  12.875  0.1117 -0.1811  0.0256
 1036DOPC   D2B12157   3.897  26.694  13.057 -0.0235 -0.0441  0.2151
 1036DOPC   C3B12158   3.792  26.254  12.968  0.0598 -0.3201 -0.2120
 1036DOPC   C4B12159   3.777  25.852  13.186  0.1321  0.3878  0.3547
 1037DOPE   NH312160   7.044  22.912  12.602 -0.1737  0.1631 -0.1284
 1037DOPE   PO412161   6.822  23.137  12.759 -0.2703  0.0419 -0.2769
 1037DOPE   GL112162   6.991  23.394  12.973 -0.1384  0.2371  0.5465
 1037DOPE   GL212163   6.816  23.622  12.972  0.2820  0.0624  0.0309
 1037DOPE   C1A12164   6.905  23.489  13.427  0.1090 -0.0634 -0.3985
 1037DOPE   D2A12165   6.789  23.247  13.795  0.0756  0.1281  0.1737
 1037DOPE   C3A12166   7.036  23.269  14.213  0.0531 -0.0156  0.2708
 1037DOPE   C4A12167   7.360  23.153  14.518 -0.0088  0.3062  0.1374
 1037DOPE   C1B12168   6.761  23.964  13.287  0.6618 -0.2213  0.2224
 1037DOPE   D2B12169   6.756  24.421  13.329  0.1395 -0.2376  0.1464
 1037DOPE   C3B12170   6.529  24.707  13.566 -0.1500 -0.0690 -0.1812
 1037DOPE   C4B12171   6.512  24.701  14.042  0.1056  0.2084  0.0676
 1038POSM   NC312172   5.884  22.939  13.107 -0.0714  0.2610 -0.0504
 1038POSM   PO412173   6.115  22.970  13.407 -0.0089  0.1484  0.1643
 1038POSM   AM112174   6.037  22.792  13.654 -0.2516  0.0498 -0.3677
 1038POSM   AM212175   6.135  22.578  13.803 -0.0749  0.0466  0.0146
 1038POSM   T1A12176   5.730  22.512  13.994 -0.0410 -0.0833 -0.1632
 1038POSM   C2A12177   5.907  22.244  14.352  0.1521 -0.2704 -0.2317
 1038POSM   C3A12178   6.187  21.903  14.489  0.0098  0.0146  0.2119
 1038POSM   C1B12179   6.399  22.796  13.973  0.1223  0.1785  0.2793
 1038POSM   D2B12180   6.596  23.073  14.260 -0.1366  0.0558  0.0406
 1038POSM   C3B12181   6.935  22.823  14.488  0.2163 -0.4034  0.1472
 1038POSM   C4B12182   7.026  22.865  14.948  0.3006  0.1423  0.0476
 1039DOPE   NH312183   1.310  33.181  12.232  0.0574  0.2485  0.1593
 1039DOPE   PO412184   0.981  33.150  12.325 -0.1419 -0.3798 -0.0104
 1039DOPE   GL112185   0.756  32.926  12.614  0.2198 -0.0779  0.0949
 1039DOPE   GL212186   0.539  32.796  12.583  0.1561 -0.1795 -0.1641
 1039DOPE   C1A12187   0.607  32.955  13.081  0.3001  0.0043 -0.1402
 1039DOPE   D2A12188   0.626  33.084  13.537  0.1737 -0.1176 -0.0143
 1039DOPE   C3A12189   1.061  32.987  13.410 -0.0561 -0.2293  0.2110
 1039DOPE   C4A12190   1.447  32.752  13.553 -0.1107 -0.0896 -0.1216
 1039DOPE   C1B12191   0.200  32.702  12.878  0.0120  0.0895  0.0756
 1039DOPE   D2B12192   0.222  32.766  13.360 -0.1657  0.1505 -0.2320
 1039DOPE   C3B12193   0.108  32.456  13.733  0.3701 -0.1916 -0.0353
 1039DOPE   C4B12194   0.276  32.414  14.172 -0.1231  0.2015  0.2236
 1040DOPC   NC312195   8.577  23.058  11.989  0.1108 -0.1179 -0.3537
 1040DOPC   PO412196   8.583  23.264  12.322  0.2500  0.1383 -0.3155
 1040DOPC   GL112197   8.865  23.105  12.639 -0.3965 -0.1426  0.0122
 1040DOPC   GL212198   9.021  23.373  12.761  0.0284 -0.1173  0.2101
 1040DOPC   C1A12199   8.800  22.814  12.987 -0.0249 -0.1627 -0.3422
 1040DOPC   D2A12200   8.730  22.870  13.466  0.1554  0.0212  0.1599
 1040DOPC   C3A12201   8.946  22.521  13.712 -0.1804 -0.3531 -0.2773
 1040DOPC   C4A12202   9.197  22.299  14.027  0.1045  0.3582 -0.1414
 1040DOPC   C1B12203   8.943  23.611  13.163  0.2049 -0.0835  0.1478
 1040DOPC   D2B12204   8.771  23.711  13.576  0.1664  0.3043  0.3200
 1040DOPC   C3B12205   8.996  24.064  13.814  0.0676  0.0955 -0.0302
 1040DOPC   C4B12206   8.973  24.501  13.815  0.0370  0.0857  0.2484
 1041POSM   NC312207   6.967  22.382  12.799  0.0865  0.1400  0.1228
 1041POSM   PO412208   6.957  22.687  13.049 -0.0536  0.2255 -0.0935
 1041POSM   AM112209   7.150  22.761  13.341 -0.1751  0.0323  0.2716
 1041POSM   AM212210   7.204  23.000  13.512 -0.2958 -0.0773 -0.2948
 1041POSM   T1A12211   7.499  22.626  13.688  0.4928  0.1342  0.0437
 1041POSM   C2A12212   7.936  22.670  13.755  0.2912  0.0980 -0.1202
 1041POSM   C3A12213   8.291  22.878  13.728 -0.2179 -0.0357  0.1094
 1041POSM   C1B12214   7.336  23.113  13.763 -0.1484 -0.1794 -0.3689
 1041POSM   D2B12215   7.514  23.409  14.117  0.3391  0.2463 -0.5430
 1041POSM   C3B12216   7.768  23.743  13.888  0.1873 -0.2589  0.0488
 1041POSM   C4B12217   8.127  23.953  13.732 -0.2090 -0.0380  0.3151
 1042DOPE   NH312218   8.675  28.569  11.316  0.2587 -0.0537  0.2940
 1042DOPE   PO412219   8.413  28.391  11.337 -0.1947  0.2899  0.1613
 1042DOPE   GL112220   8.330  28.388  11.701 -0.3144  0.3168 -0.1931
 1042DOPE   GL212221   8.395  28.077  11.759 -0.2278 -0.3098  0.0066
 1042DOPE   C1A12222   8.361  28.862  11.775  0.1426 -0.2699 -0.1022
 1042DOPE   D2A12223   8.351  29.311  11.620 -0.2346  0.1629 -0.3018
 1042DOPE   C3A12224   8.185  29.569  12.031 -0.1530 -0.0427 -0.0734
 1042DOPE   C4A12225   7.966  29.770  12.401 -0.2124 -0.0753  0.0430
 1042DOPE   C1B12226   8.359  27.904  12.156  0.1037  0.1399 -0.1809
 1042DOPE   D2B12227   8.190  27.776  12.607  0.2877  0.2846  0.2183
 1042DOPE   C3B12228   7.912  28.010  12.892  0.2745 -0.1423  0.1068
 1042DOPE   C4B12229   7.758  28.479  12.801 -0.1545  0.2184  0.0993
 1043DOPE   NH312230   0.049  26.064  13.634 -0.0503  0.0530  0.2677
 1043DOPE   PO412231   0.256  26.187  13.382  0.1554  0.2092 -0.1540
 1043DOPE   GL112232   0.525  26.339  13.695  0.0124  0.0165 -0.0625
 1043DOPE   GL212233   0.669  26.156  13.851 -0.1951  0.0729  0.0394
 1043DOPE   C1A12234   0.407  26.644  14.031 -0.0640  0.2096 -0.2166
 1043DOPE   D2A12235   0.297  26.692  14.497  0.0560  0.0795 -0.0446
 1043DOPE   C3A12236   0.067  27.092  14.589  0.1116 -0.2757 -0.2922
 1043DOPE   C4A12237  -0.352  27.196  14.644 -0.1601 -0.1071  0.0570
 1043DOPE   C1B12238   0.902  26.246  14.223  0.1088 -0.2457  0.0851
 1043DOPE   D2B12239   0.825  26.655  14.484 -0.3828 -0.1097  0.3307
 1043DOPE   C3B12240   0.777  26.987  14.167  0.0887 -0.1077 -0.3630
 1043DOPE   C4B12241   0.869  27.438  14.131  0.0531  0.0821 -0.1750
 1044DOPC   NC312242   3.847  29.835  12.029 -0.1975 -0.0616 -0.0192
 1044DOPC   PO412243   4.033  30.197  12.076  0.1397  0.1378  0.0962
 1044DOPC   GL112244   3.959  30.219  12.451 -0.2051 -0.0525 -0.2951
 1044DOPC   GL212245   4.097  29.846  12.475 -0.1134  0.1715 -0.1033
 1044DOPC   C1A12246   3.928  30.260  12.945 -0.4016  0.0595  0.2121
 1044DOPC   D2A12247   3.694  30.229  13.371  0.1536  0.1172  0.3284
 1044DOPC   C3A12248   3.271  30.020  13.424 -0.2316 -0.0350  0.3546
 1044DOPC   C4A12249   2.851  29.984  13.364 -0.4531  0.2485  0.0386
 1044DOPC   C1B12250   4.058  29.664  12.918 -0.0085 -0.1106 -0.0382
 1044DOPC   D2B12251   4.219  29.277  13.108 -0.1444 -0.1846 -0.1178
 1044DOPC   C3B12252   4.636  29.228  13.306 -0.0517  0.0824  0.3836
 1044DOPC   C4B12253   4.777  29.115  13.701 -0.0054 -0.2845  0.0270
 1045DOPE   NH312254   0.840  31.423  12.489 -0.0210  0.1421 -0.0541
 1045DOPE   PO412255   0.737  31.661  12.651 -0.2858 -0.1748 -0.3121
 1045DOPE   GL112256   0.771  31.713  13.008 -0.0450  0.0739 -0.2378
 1045DOPE   GL212257   0.693  32.034  13.062  0.0752  0.4760  0.2764
 1045DOPE   C1A12258   1.080  31.532  13.291  0.1002  0.0493 -0.3784
 1045DOPE   D2A12259   1.108  31.208  13.609  0.0379 -0.0114 -0.0191
 1045DOPE   C3A12260   1.482  31.062  13.821  0.0481 -0.0253  0.0695
 1045DOPE   C4A12261   1.830  30.869  14.086 -0.0695  0.1115  0.5354
 1045DOPE   C1B12262   0.849  31.963  13.525 -0.0954  0.2743 -0.0699
 1045DOPE   D2B12263   0.815  31.673  13.880  0.0242  0.0201 -0.2819
 1045DOPE   C3B12264   0.503  31.587  14.128  0.0766 -0.2210 -0.0939
 1045DOPE   C4B12265   0.011  31.520  14.254 -0.0267 -0.0625 -0.2230
 1046POSM   NC312266   7.927  27.333  12.438 -0.2054 -0.0268  0.0851
 1046POSM   PO412267   7.736  27.458  12.151  0.0607 -0.1263 -0.0036
 1046POSM   AM112268   7.727  27.805  12.176  0.0360  0.0418  0.2312
 1046POSM   AM212269   7.543  27.952  12.273  0.0959  0.2935 -0.0141
 1046POSM   T1A12270   7.973  28.204  12.411  0.0582  0.1328  0.0680
 1046POSM   C2A12271   8.300  28.412  12.654 -0.0656  0.0075 -0.1349
 1046POSM   C3A12272   8.408  28.867  12.677  0.1893  0.2222  0.0959
 1046POSM   C1B12273   7.419  28.047  12.579  0.2149 -0.2709 -0.0984
 1046POSM   D2B12274   7.431  28.114  13.055 -0.0645  0.1827  0.0180
 1046POSM   C3B12275   7.777  27.898  13.382 -0.0603 -0.0832  0.0698
 1046POSM   C4B12276   8.128  27.691  13.558 -0.1684 -0.1752  0.1445
 1047DOPC   NC312277   8.128  30.451  11.250  0.0144 -0.1137 -0.2379
 1047DOPC   PO412278   8.123  30.792  11.033 -0.2837 -0.1185 -0.3133
 1047DOPC   GL112279   8.436  30.984  11.379 -0.2665 -0.2182 -0.2783
 1047DOPC   GL212280   8.244  31.119  11.518 -0.3271 -0.0296 -0.3727
 1047DOPC   C1A12281   8.524  31.465  11.357  0.1951  0.1874 -0.0175
 1047DOPC   D2A12282   8.823  31.786  11.331  0.1984  0.1155  0.0307
 1047DOPC   C3A12283   8.909  31.696  11.768  0.2497 -0.0065 -0.1215
 1047DOPC   C4A12284   9.327  31.627  11.896 -0.2832 -0.0296 -0.0130
 1047DOPC   C1B12285   8.227  31.125  11.984  0.1282 -0.0141 -0.4103
 1047DOPC   D2B12286   8.072  31.175  12.447 -0.0849  0.2915  0.1016
 1047DOPC   C3B12287   7.651  31.273  12.589  0.1802 -0.3184 -0.3688
 1047DOPC   C4B12288   7.290  31.150  12.412 -0.0226  0.1632 -0.0291
 1048POSM   NC312289   6.398  34.313  11.052 -0.2800 -0.1560  0.3746
 1048POSM   PO412290   6.383  33.960  11.235 -0.2789 -0.0260  0.1483
 1048POSM   AM112291   6.287  33.707  11.467  0.0056 -0.5206  0.0314
 1048POSM   AM212292   6.501  33.495  11.485 -0.1571 -0.1557 -0.0956
 1048POSM   T1A12293   6.089  33.570  11.881  0.0366  0.0628 -0.0253
 1048POSM   C2A12294   5.841  33.620  12.253  0.2958 -0.0471  0.1780
 1048POSM   C3A12295   5.674  33.268  12.492 -0.1513  0.2931 -0.3363
 1048POSM   C1B12296   6.660  33.605  11.798 -0.0084  0.1751 -0.3503
 1048POSM   D2B12297   6.818  33.665  12.279  0.0791 -0.1968 -0.0143
 1048POSM   C3B12298   7.146  34.004  12.322  0.0935 -0.0044 -0.2082
 1048POSM   C4B12299   7.593  33.850  12.346  0.0904 -0.1907 -0.1368
 1049DOPE   NH312300   5.602  23.002  13.597  0.1760 -0.3216  0.1898
 1049DOPE   PO412301   5.550  23.252  13.393 -0.0385 -0.0785 -0.0519
 1049DOPE   GL112302   5.925  23.407  13.621  0.1929 -0.0444 -0.1236
 1049DOPE   GL212303   6.092  23.316  13.728 -0.3430  0.4480  0.1812
 1049DOPE   C1A12304   6.110  23.804  13.826 -0.2844 -0.0722  0.1974
 1049DOPE   D2A12305   5.836  24.070  14.104 -0.0398  0.2900  0.2229
 1049DOPE   C3A12306   5.928  23.975  14.542  0.0138 -0.0331 -0.0081
 1049DOPE   C4A12307   6.098  23.701  14.836  0.0422 -0.0353  0.1395
 1049DOPE   C1B12308   5.937  23.010  14.038 -0.1191 -0.0603 -0.0923
 1049DOPE   D2B12309   5.741  22.866  14.371 -0.0333  0.2134 -0.3215
 1049DOPE   C3B12310   5.541  22.534  14.570 -0.1102  0.0420  0.0989
 1049DOPE   C4B12311   5.254  22.316  14.831  0.1930 -0.3703  0.3847
 1050DOPC   NC312312   7.758  26.952  12.138 -0.2171  0.1194 -0.1376
 1050DOPC   PO412313   8.066  27.093  11.975 -0.0785 -0.2071 -0.4235
 1050DOPC   GL112314   8.272  26.861  12.186  0.0168  0.0721 -0.2552
 1050DOPC   GL212315   8.463  27.085  12.350  0.2843 -0.3282 -0.0895
 1050DOPC   C1A12316   8.610  26.543  12.259  0.0957  0.0826 -0.2089
 1050DOPC   D2A12317   8.658  26.173  11.970 -0.1485 -0.1371  0.0523
 1050DOPC   C3A12318   8.535  25.754  11.957 -0.2613 -0.1181  0.1539
 1050DOPC   C4A12319   8.068  25.555  12.010  0.1109 -0.1573  0.1863
 1050DOPC   C1B12320   8.791  27.044  12.722  0.0774 -0.1572  0.2060
 1050DOPC   D2B12321   9.094  27.123  13.039 -0.0288  0.0867 -0.1191
 1050DOPC   C3B12322   9.516  27.359  12.966  0.0559 -0.3012  0.0255
 1050DOPC   C4B12323   9.833  27.773  13.077  0.0640  0.0550  0.1036
 1051DOPE   NH312324  11.423  23.653  12.107 -0.3693 -0.4095 -0.0431
 1051DOPE   PO412325  11.637  23.553  11.857  0.2639  0.4194 -0.0329
 1051DOPE   GL112326  11.726  23.934  11.865 -0.1499 -0.0029 -0.1536
 1051DOPE   GL212327  11.881  23.933  12.082  0.1048 -0.0905  0.0360
 1051DOPE   C1A12328  11.716  24.401  11.816  0.1751 -0.0499 -0.2165
 1051DOPE   D2A12329  11.506  24.656  12.138  0.0716 -0.0742 -0.2365
 1051DOPE   C3A12330  11.584  24.296  12.424 -0.0071 -0.0290 -0.0673
 1051DOPE   C4A12331  11.490  24.149  12.872 -0.0343 -0.1754  0.2797
 1051DOPE   C1B12332  11.950  23.927  12.578  0.2063 -0.0563  0.0701
 1051DOPE   D2B12333  11.985  24.047  12.987  0.1631 -0.3887 -0.1833
 1051DOPE   C3B12334  11.734  24.179  13.356 -0.0789  0.2616  0.0056
 1051DOPE   C4B12335  11.820  24.381  13.746 -0.0917  0.0479 -0.0340
 1052POSM   NC312336   1.291  27.674  13.063 -0.4341 -0.2125 -0.1766
 1052POSM   PO412337   1.467  27.364  13.284  0.0997  0.0913 -0.1605
 1052POSM   AM112338   1.384  27.072  13.424  0.3190 -0.0683  0.1710
 1052POSM   AM212339   1.216  26.970  13.591  0.2643 -0.2504  0.1454
 1052POSM   T1A12340   1.519  26.655  13.713 -0.0307 -0.0473  0.0753
 1052POSM   C2A12341   1.608  26.390  14.079 -0.0535 -0.1202 -0.0935
 1052POSM   C3A12342   1.970  26.082  14.235  0.1663  0.0764  0.1343
 1052POSM   C1B12343   1.184  27.070  13.951 -0.2879 -0.0928  0.0627
 1052POSM   D2B12344   1.381  27.227  14.330 -0.1775  0.1480 -0.1679
 1052POSM   C3B12345   1.824  27.169  14.552  0.1412 -0.1147 -0.6152
 1052POSM   C4B12346   2.268  27.117  14.730 -0.1505  0.1037 -0.1633
 1053DOPC   NC312347   6.448  29.310  12.122  0.2493  0.0152  0.2528
 1053DOPC   PO412348   6.154  29.129  12.012 -0.0682 -0.1295  0.1909
 1053DOPC   GL112349   6.017  29.498  12.085 -0.2300  0.0851 -0.1218
 1053DOPC   GL212350   6.227  29.736  12.100 -0.2468 -0.2836  0.0618
 1053DOPC   C1A12351   5.772  29.573  12.465  0.1077  0.2987 -0.1684
 1053DOPC   D2A12352   5.510  29.466  12.823 -0.2679  0.2043  0.1484
 1053DOPC   C3A12353   5.441  29.879  12.980 -0.0964 -0.1401 -0.1676
 1053DOPC   C4A12354   5.512  30.312  13.101  0.3482 -0.0405 -0.3179
 1053DOPC   C1B12355   6.280  29.583  12.527 -0.0013 -0.2227 -0.0570
 1053DOPC   D2B12356   6.545  29.229  12.672 -0.1490 -0.0439  0.1128
 1053DOPC   C3B12357   6.960  29.306  12.541 -0.2038  0.0716 -0.1340
 1053DOPC   C4B12358   7.275  29.655  12.420  0.4282  0.0351 -0.1445
 1054POSM   NC312359   7.740  23.673  11.949 -0.1379  0.0888  0.2098
 1054POSM   PO412360   7.519  23.681  12.272 -0.3559 -0.4096 -0.0320
 1054POSM   AM112361   7.543  23.912  12.524 -0.1546  0.1952 -0.0038
 1054POSM   AM212362   7.689  23.947  12.803  0.1154 -0.2190  0.0965
 1054POSM   T1A12363   7.512  24.383  12.682 -0.2582 -0.1688 -0.2369
 1054POSM   C2A12364   7.498  24.842  12.680  0.1739  0.2295  0.1517
 1054POSM   C3A12365   7.454  25.052  13.104  0.0405 -0.0823  0.0164
 1054POSM   C1B12366   7.752  24.203  13.061  0.0266  0.0121 -0.1206
 1054POSM   D2B12367   7.940  24.440  13.404  0.3617 -0.2115 -0.0601
 1054POSM   C3B12368   7.709  24.729  13.659 -0.0178 -0.0058 -0.3554
 1054POSM   C4B12369   7.374  25.037  13.687 -0.0038 -0.1806 -0.1277
 1055POSM   NC312370   0.011  30.874  12.609  0.4025  0.0258 -0.0694
 1055POSM   PO412371  -0.195  30.741  12.893  0.1991 -0.1348 -0.3320
 1055POSM   AM112372   0.063  30.514  12.896  0.1510 -0.1119  0.0701
 1055POSM   AM212373   0.335  30.528  12.784 -0.0935 -0.2966 -0.1213
 1055POSM   T1A12374   0.361  30.228  13.229 -0.1573 -0.0768  0.1978
 1055POSM   C2A12375   0.477  30.013  13.638  0.1904  0.1209  0.0617
 1055POSM   C3A12376   0.842  29.823  13.949  0.1790  0.1646 -0.1889
 1055POSM   C1B12377   0.614  30.303  12.788 -0.0440 -0.0785 -0.0732
 1055POSM   D2B12378   1.011  30.196  12.707 -0.0706  0.3129 -0.3029
 1055POSM   C3B12379   1.170  30.348  13.116  0.2545 -0.0814 -0.1627
 1055POSM   C4B12380   1.505  30.411  13.380  0.2485 -0.0363 -0.1814
 1056DOPC   NC312381   5.300  25.896  11.979 -0.2367 -0.0102  0.2245
 1056DOPC   PO412382   4.915  25.895  12.103  0.3172  0.2320  0.1176
 1056DOPC   GL112383   5.063  25.584  12.335 -0.0442  0.0299  0.0136
 1056DOPC   GL212384   5.409  25.502  12.369  0.0328  0.1202 -0.0478
 1056DOPC   C1A12385   5.038  25.141  12.377 -0.1503  0.0017  0.1592
 1056DOPC   D2A12386   4.946  24.783  12.639  0.1497  0.0136 -0.1581
 1056DOPC   C3A12387   4.619  24.744  13.006 -0.1295  0.2699 -0.1336
 1056DOPC   C4A12388   4.630  25.000  13.401 -0.0861  0.2410 -0.3674
 1056DOPC   C1B12389   5.383  25.237  12.772 -0.1698  0.1185  0.1373
 1056DOPC   D2B12390   5.670  24.940  12.884  0.1041 -0.1073 -0.1393
 1056DOPC   C3B12391   6.073  24.756  12.690 -0.0332  0.0244  0.0604
 1056DOPC   C4B12392   6.515  24.779  12.571 -0.1598 -0.1620 -0.1572
 1057DOPE   NH312393   3.618  23.363  13.696 -0.1570 -0.1531 -0.1812
 1057DOPE   PO412394   3.642  23.697  13.698 -0.0256 -0.0061 -0.0562
 1057DOPE   GL112395   3.552  24.056  13.775  0.4162  0.2327 -0.1293
 1057DOPE   GL212396   3.722  24.167  13.859  0.0628 -0.1644  0.1394
 1057DOPE   C1A12397   3.533  24.442  13.512 -0.3495  0.0610  0.2897
 1057DOPE   D2A12398   3.358  24.857  13.545 -0.1138  0.2190  0.1513
 1057DOPE   C3A12399   3.327  25.154  13.903  0.0868  0.1053 -0.0604
 1057DOPE   C4A12400   3.379  25.221  14.356 -0.1500 -0.1562  0.2646
 1057DOPE   C1B12401   3.564  24.564  14.076 -0.0900  0.1765  0.2488
 1057DOPE   D2B12402   3.782  24.910  14.241  0.0551  0.0059 -0.1314
 1057DOPE   C3B12403   4.222  25.134  14.199 -0.2474 -0.0618 -0.4444
 1057DOPE   C4B12404   4.701  25.141  14.267 -0.2268 -0.1608 -0.0414
 1058POSM   NC312405   2.607   0.089  11.548  0.2197 -0.1787 -0.2179
 1058POSM   PO412406   2.801   0.161  11.877  0.1927 -0.0362 -0.0454
 1058POSM   AM112407   2.879   0.108  12.202 -0.5460  0.0625  0.1435
 1058POSM   AM212408   3.018   0.311  12.371  0.1450 -0.1301  0.0587
 1058POSM   T1A12409   3.038  -0.103  12.635 -0.0193 -0.0938 -0.3406
 1058POSM   C2A12410   3.019   0.077  13.053 -0.0851 -0.2324 -0.3785
 1058POSM   C3A12411   2.948  -0.150  13.405  0.0332 -0.1611  0.1995
 1058POSM   C1B12412   3.000   0.416  12.681  0.1180  0.0101 -0.1171
 1058POSM   D2B12413   3.168   0.599  13.075 -0.1489 -0.0349  0.0372
 1058POSM   C3B12414   2.993   0.395  13.453  0.0098 -0.0322  0.0106
 1058POSM   C4B12415   2.740   0.463  13.824  0.0267  0.2469 -0.1212
 1059POSM   NC312416   3.903  24.007  13.409 -0.1558 -0.1069  0.1771
 1059POSM   PO412417   3.689  23.797  13.232  0.2658  0.0747 -0.3943
 1059POSM   AM112418   3.495  24.057  13.090 -0.3809  0.0690 -0.1085
 1059POSM   AM212419   3.274  24.038  12.897 -0.0283 -0.0809 -0.0631
 1059POSM   T1A12420   3.477  24.515  13.058  0.1954 -0.3466  0.0675
 1059POSM   C2A12421   3.743  24.857  13.242 -0.1467  0.2207 -0.1081
 1059POSM   C3A12422   3.883  25.320  13.278  0.0876  0.2623 -0.0608
 1059POSM   C1B12423   3.090  24.321  12.836 -0.0382  0.0343  0.0446
 1059POSM   D2B12424   2.885  24.686  12.808  0.0253 -0.2795  0.1370
 1059POSM   C3B12425   3.121  25.075  12.969 -0.0210 -0.2850 -0.0898
 1059POSM   C4B12426   3.403  25.311  13.261 -0.1065  0.2634  0.0467
 1060DOPS   CNO12427   7.153  28.650  11.911  0.0054 -0.0369  0.3765
 1060DOPS   PO412428   6.856  28.449  11.786  0.0996  0.0855 -0.2441
 1060DOPS   GL112429   6.714  28.650  12.126  0.0521  0.0455  0.2938
 1060DOPS   GL212430   6.434  28.774  12.219  0.2555  0.3284  0.1205
 1060DOPS   C1A12431   7.075  28.826  12.368 -0.4072 -0.1408 -0.1533
 1060DOPS   D2A12432   7.472  28.903  12.620  0.1369 -0.1781 -0.1879
 1060DOPS   C3A12433   7.522  29.004  13.086  0.0718  0.2066  0.0554
 1060DOPS   C4A12434   7.584  29.052  13.490  0.1198  0.1340 -0.1902
 1060DOPS   C1B12435   6.455  28.744  12.641 -0.1395 -0.3160 -0.0489
 1060DOPS   D2B12436   6.601  28.819  13.085 -0.0662  0.2388  0.1586
 1060DOPS   C3B12437   6.401  28.554  13.445 -0.0455 -0.4421 -0.0606
 1060DOPS   C4B12438   5.965  28.415  13.579 -0.2882 -0.0483  0.1824
 1061DOPC   NC312439   1.940   0.232  12.015  0.0352 -0.3160  0.1845
 1061DOPC   PO412440   1.883  -0.120  12.148  0.1690  0.0017  0.1456
 1061DOPC   GL112441   1.976  -0.526  12.407  0.3791 -0.0181  0.0251
 1061DOPC   GL212442   2.232  -0.590  12.319  0.2338 -0.0017  0.2679
 1061DOPC   C1A12443   2.005  -0.949  12.696  0.1902  0.1730 -0.0817
 1061DOPC   D2A12444   1.782  -1.331  12.560  0.2829 -0.1628 -0.1556
 1061DOPC   C3A12445   2.012  -1.524  12.933  0.3318  0.2147 -0.1470
 1061DOPC   C4A12446   2.425  -1.696  12.897 -0.2041 -0.0610 -0.0895
 1061DOPC   C1B12447   2.194  -1.056  12.135 -0.0257  0.2925  0.0583
 1061DOPC   D2B12448   1.888  -1.443  12.120 -0.2844 -0.0043 -0.0711
 1061DOPC   C3B12449   2.030  -1.782  11.840 -0.1974 -0.4467  0.4097
 1061DOPC   C4B12450   2.091  -2.183  11.633 -0.0912  0.0560  0.0813
 1062POSM   NC312451  33.952  29.902  13.682 -0.0648 -0.3100  0.0386
 1062POSM   PO412452  33.821  30.004  13.318 -0.0583 -0.2563  0.3085
 1062POSM   AM112453  34.114  29.873  13.210 -0.1564  0.0549 -0.2748
 1062POSM   AM212454  34.201  29.685  13.004 -0.1749  0.0006 -0.0420
 1062POSM   T1A12455  34.542  29.631  13.352 -0.1357  0.1997  0.1551
 1062POSM   C2A12456  34.926  29.362  13.434  0.3234 -0.2146 -0.1943
 1062POSM   C3A12457  35.084  28.915  13.279 -0.1014  0.1311 -0.2279
 1062POSM   C1B12458  34.200  29.345  13.025 -0.0399  0.3235 -0.1480
 1062POSM   D2B12459  34.412  29.050  13.324 -0.1869  0.0602  0.2620
 1062POSM   C3B12460  34.715  28.680  13.212  0.0618 -0.0546  0.1340
 1062POSM   C4B12461  34.785  28.206  13.335  0.1183 -0.1797 -0.0832
 1063DOPE   NH312462   6.022  26.563  12.475 -0.1389 -0.2213  0.1388
 1063DOPE   PO412463   5.879  26.664  12.753  0.1158  0.2136 -0.0161
 1063DOPE   GL112464   5.452  26.700  12.946  0.0137  0.2383 -0.2414
 1063DOPE   GL212465   5.194  26.664  12.973  0.1716 -0.0103 -0.2602
 1063DOPE   C1A12466   5.434  26.606  13.458  0.0589  0.1229  0.0643
 1063DOPE   D2A12467   5.732  26.651  13.765  0.2390  0.1997  0.1674
 1063DOPE   C3A12468   6.099  26.900  13.699 -0.0983  0.3826  0.0492
 1063DOPE   C4A12469   6.164  27.433  13.794  0.1524 -0.1198  0.1201
 1063DOPE   C1B12470   4.937  26.751  13.339 -0.1982  0.1167 -0.1138
 1063DOPE   D2B12471   4.822  26.803  13.774  0.2130  0.2709  0.0850
 1063DOPE   C3B12472   5.243  26.625  13.999 -0.0823 -0.0972  0.0274
 1063DOPE   C4B12473   5.657  26.600  14.278 -0.0503  0.0179 -0.0534
 1064POSM   NC312474   0.821  30.729  12.675 -0.2788  0.2234 -0.3438
 1064POSM   PO412475   0.573  31.009  12.593  0.2098 -0.1669  0.1484
 1064POSM   AM112476   0.719  31.134  12.864 -0.2939 -0.1771 -0.1120
 1064POSM   AM212477   0.666  31.304  13.113 -0.1284  0.2395 -0.0931
 1064POSM   T1A12478   1.026  30.966  13.195  0.0815  0.1265 -0.4000
 1064POSM   C2A12479   1.158  30.685  13.582 -0.3042  0.1180  0.1874
 1064POSM   C3A12480   1.527  30.505  13.859  0.1919 -0.0579  0.1848
 1064POSM   C1B12481   0.580  31.349  13.463  0.1967  0.2894  0.2065
 1064POSM   D2B12482   0.310  31.708  13.622 -0.2054 -0.1725  0.2566
 1064POSM   C3B12483   0.459  32.143  13.808 -0.1322 -0.0176 -0.0853
 1064POSM   C4B12484   0.576  32.647  13.822  0.1969  0.1032  0.3753
 1065POSM   NC312485   3.274  30.038  12.157  0.0584  0.0540 -0.2146
 1065POSM   PO412486   3.100  29.835  12.478  0.1251  0.3589 -0.0321
 1065POSM   AM112487   3.043  30.156  12.535 -0.2581  0.2399 -0.5541
 1065POSM   AM212488   2.919  30.303  12.349  0.2195 -0.0164 -0.0656
 1065POSM   T1A12489   2.953  30.390  12.915  0.1252 -0.0373  0.0158
 1065POSM   C2A12490   2.743  30.698  13.184  0.3020  0.1870 -0.2686
 1065POSM   C3A12491   2.672  31.062  13.459 -0.2418  0.1588  0.3530
 1065POSM   C1B12492   2.656  30.504  12.453 -0.0265  0.1394  0.0754
 1065POSM   D2B12493   2.432  30.739  12.784 -0.1317 -0.0421 -0.3365
 1065POSM   C3B12494   2.207  31.072  13.118 -0.3254  0.1629  0.2615
 1065POSM   C4B12495   1.923  31.381  13.302 -0.0377  0.1730 -0.4039
 1066POSM   NC312496   2.185  28.700  12.523 -0.0771  0.0702 -0.2646
 1066POSM   PO412497   2.392  28.873  12.846 -0.0288  0.1258  0.0495
 1066POSM   AM112498   2.414  28.962  13.158 -0.0752  0.2989  0.0257
 1066POSM   AM212499   2.216  29.003  13.336  0.1445 -0.1531  0.0492
 1066POSM   T1A12500   2.562  29.138  13.601 -0.1212  0.0344  0.4387
 1066POSM   C2A12501   2.478  29.126  14.091 -0.0058 -0.0373  0.0631
 1066POSM   C3A12502   2.478  28.706  14.345 -0.1470  0.0331  0.0686
 1066POSM   C1B12503   2.129  29.327  13.221 -0.1139 -0.0665  0.0001
 1066POSM   D2B12504   1.889  29.685  13.101  0.0934  0.1598  0.1087
 1066POSM   C3B12505   1.784  29.851  13.527  0.1497  0.0376  0.3068
 1066POSM   C4B12506   1.904  30.031  13.943 -0.2067  0.1439 -0.0411
 1067DOPS   CNO12507   8.125  27.058  11.519  0.3772  0.0312 -0.0645
 1067DOPS   PO412508   7.888  26.746  11.593 -0.4636 -0.0605  0.0956
 1067DOPS   GL112509   8.123  26.490  11.712 -0.0211 -0.0245  0.4228
 1067DOPS   GL212510   8.384  26.687  11.814 -0.0059  0.1982  0.2078
 1067DOPS   C1A12511   8.230  26.014  11.592  0.2929  0.0767 -0.1002
 1067DOPS   D2A12512   8.651  25.832  11.486 -0.2259  0.0733 -0.0653
 1067DOPS   C3A12513   9.028  25.919  11.758  0.0527  0.1984  0.1889
 1067DOPS   C4A12514   9.211  26.364  11.825 -0.2129  0.0256  0.3423
 1067DOPS   C1B12515   8.871  26.711  11.798  0.2156 -0.0814 -0.2090
 1067DOPS   D2B12516   9.305  26.949  11.915 -0.0865  0.3328  0.3149
 1067DOPS   C3B12517   9.489  27.364  11.891  0.2589  0.1478  0.1502
 1067DOPS   C4B12518   9.579  27.781  12.046 -0.1498 -0.0504  0.0347
 1068POSM   NC312519   6.549  22.982  13.174 -0.3121 -0.3298 -0.0050
 1068POSM   PO412520   6.329  23.045  12.868 -0.1341 -0.1796 -0.0244
 1068POSM   AM112521   6.397  23.387  12.969 -0.2868  0.0346  0.2827
 1068POSM   AM212522   6.386  23.451  13.258 -0.3275 -0.0424 -0.0450
 1068POSM   T1A12523   6.346  23.892  12.955  0.0581  0.0379 -0.2279
 1068POSM   C2A12524   5.991  24.203  12.920  0.0569 -0.0032  0.1725
 1068POSM   C3A12525   5.696  24.441  12.636  0.3017 -0.0673 -0.1128
 1068POSM   C1B12526   6.480  23.620  13.531  0.0077  0.4683  0.0691
 1068POSM   D2B12527   6.555  24.045  13.709 -0.0231  0.5300 -0.5287
 1068POSM   C3B12528   6.154  24.332  13.845  0.0781 -0.2281 -0.2308
 1068POSM   C4B12529   5.965  24.748  13.792 -0.1082  0.5832  0.1057
 1069DOPE   NH312530  10.601  26.182  11.551  0.2489 -0.1483 -0.0894
 1069DOPE   PO412531  10.372  26.361  11.698 -0.2377 -0.1705 -0.0629
 1069DOPE   GL112532  10.023  26.281  11.805  0.1774  0.4422  0.0746
 1069DOPE   GL212533   9.851  26.179  11.638 -0.1590 -0.0161 -0.0788
 1069DOPE   C1A12534   9.802  26.140  12.191 -0.2250 -0.1890  0.2738
 1069DOPE   D2A12535   9.743  25.967  12.619 -0.1803  0.0091 -0.3865
 1069DOPE   C3A12536   9.835  26.173  13.045 -0.1214  0.1431 -0.1335
 1069DOPE   C4A12537  10.240  26.369  13.160 -0.0222  0.0850  0.2704
 1069DOPE   C1B12538   9.651  26.569  11.917 -0.1225 -0.0378 -0.0646
 1069DOPE   D2B12539   9.758  26.924  12.184  0.2456 -0.0611 -0.2058
 1069DOPE   C3B12540   9.506  27.143  12.519 -0.3534 -0.2335 -0.3158
 1069DOPE   C4B12541   9.229  27.418  12.490  0.0799 -0.1151  0.1670
 1070DOPE   NH312542  11.365  33.319  10.923 -0.0359 -0.0303 -0.0136
 1070DOPE   PO412543  11.171  33.538  10.936 -0.1514  0.3340 -0.2065
 1070DOPE   GL112544  10.968  33.565  11.184 -0.0926 -0.2721 -0.2739
 1070DOPE   GL212545  11.056  33.370  11.367 -0.2221  0.0445  0.1546
 1070DOPE   C1A12546  10.657  33.755  11.532 -0.0284 -0.0633  0.2422
 1070DOPE   D2A12547  10.570  34.092  11.778 -0.2122  0.1309 -0.2982
 1070DOPE   C3A12548  10.170  34.006  11.963 -0.0896  0.0845 -0.1532
 1070DOPE   C4A12549  10.008  33.709  12.317  0.0113 -0.0281 -0.0885
 1070DOPE   C1B12550  10.634  33.241  11.498  0.0407 -0.0283  0.1324
 1070DOPE   D2B12551  10.237  33.219  11.415 -0.2036 -0.2045 -0.1028
 1070DOPE   C3B12552   9.997  33.008  11.743  0.0752  0.0007 -0.2420
 1070DOPE   C4B12553   9.795  32.627  11.922 -0.0475 -0.2758 -0.1413
 1071DOPE   NH312554   3.754  28.844  11.991 -0.2572 -0.1065  0.3213
 1071DOPE   PO412555   4.023  28.833  11.813  0.1287  0.0639  0.3842
 1071DOPE   GL112556   4.274  29.003  11.994 -0.1270  0.1470  0.0143
 1071DOPE   GL212557   4.182  29.034  12.280 -0.1492  0.0325  0.0704
 1071DOPE   C1A12558   4.317  29.454  12.028 -0.3512 -0.1108 -0.0007
 1071DOPE   D2A12559   4.474  29.831  12.017  0.0945  0.1169  0.3915
 1071DOPE   C3A12560   4.640  29.911  12.453  0.1410  0.4079  0.1429
 1071DOPE   C4A12561   4.634  29.778  12.946 -0.0608  0.3047  0.2147
 1071DOPE   C1B12562   4.642  28.900  12.148  0.2937 -0.0129 -0.1234
 1071DOPE   D2B12563   4.963  28.741  11.891  0.5005  0.2617 -0.1845
 1071DOPE   C3B12564   5.283  28.983  12.006  0.1729 -0.3000 -0.3079
 1071DOPE   C4B12565   5.510  29.128  12.403 -0.1062  0.0265  0.0284
 1072DOPE   NH312566   0.206  26.200  12.765  0.1032  0.0405  0.1101
 1072DOPE   PO412567   0.401  26.024  12.941 -0.2423  0.5012 -0.0663
 1072DOPE   GL112568   0.672  25.808  12.836 -0.2305 -0.2102  0.1741
 1072DOPE   GL212569   0.560  25.510  12.888  0.1350 -0.1373  0.1430
 1072DOPE   C1A12570   1.137  25.795  12.705  0.0198 -0.2607  0.0096
 1072DOPE   D2A12571   1.506  25.611  12.518  0.0093  0.0754  0.1349
 1072DOPE   C3A12572   1.757  25.309  12.749  0.0790  0.0204 -0.1934
 1072DOPE   C4A12573   2.018  24.933  12.675 -0.1650  0.0487  0.1904
 1072DOPE   C1B12574   0.932  25.339  12.698 -0.0280  0.0882  0.0471
 1072DOPE   D2B12575   1.176  25.059  12.382  0.2196  0.2698  0.0039
 1072DOPE   C3B12576   1.587  25.001  12.188 -0.2559  0.1360  0.1328
 1072DOPE   C4B12577   1.914  25.202  11.929 -0.2230 -0.3847 -0.0819
 1073POSM   NC312578   0.505  26.535  13.127 -0.0606 -0.5047  0.1952
 1073POSM   PO412579   0.771  26.297  13.321 -0.1799  0.5271  0.3521
 1073POSM   AM112580   1.002  26.118  13.402  0.2674 -0.2238 -0.1011
 1073POSM   AM212581   1.236  26.169  13.303 -0.1011 -0.1683 -0.2467
 1073POSM   T1A12582   1.218  25.673  13.480  0.0025  0.0426  0.1587
 1073POSM   C2A12583   1.253  25.450  13.080 -0.2424  0.0011 -0.0565
 1073POSM   C3A12584   1.275  25.069  12.858 -0.1808  0.0836  0.0642
 1073POSM   C1B12585   1.543  26.038  13.449 -0.0281 -0.2588  0.0130
 1073POSM   D2B12586   1.690  25.872  13.858  0.3885  0.0811 -0.1231
 1073POSM   C3B12587   1.503  25.891  14.258  0.1283 -0.1596  0.5707
 1073POSM   C4B12588   1.285  26.282  14.505 -0.0692 -0.1282 -0.2892
 1074DOPC   NC312589  10.494  30.436  11.280  0.2064 -0.0265  0.2385
 1074DOPC   PO412590  10.431  30.674  10.945  0.1318 -0.0577  0.0366
 1074DOPC   GL112591  10.479  30.993  11.219  0.4328 -0.5140  0.0117
 1074DOPC   GL212592  10.298  30.896  11.356 -0.0770 -0.0668 -0.1086
 1074DOPC   C1A12593  10.496  31.141  11.717 -0.4128  0.1894 -0.2175
 1074DOPC   D2A12594  10.340  31.552  11.917 -0.1513  0.3367 -0.3182
 1074DOPC   C3A12595  10.200  31.605  12.341  0.2324  0.0224  0.0272
 1074DOPC   C4A12596  10.422  31.852  12.583 -0.0719 -0.0534 -0.0970
 1074DOPC   C1B12597  10.297  31.401  11.232 -0.1299 -0.1365 -0.0773
 1074DOPC   D2B12598  10.342  31.882  11.089  0.0971  0.1853 -0.0480
 1074DOPC   C3B12599  10.070  32.244  11.357  0.4444 -0.1303 -0.0310
 1074DOPC   C4B12600   9.647  32.461  11.400  0.1708  0.1312 -0.0739
 1075DOPC   NC312601   5.997  33.257  11.189 -0.0647 -0.2149  0.0932
 1075DOPC   PO412602   6.027  33.598  11.019  0.1232 -0.3376 -0.2917
 1075DOPC   GL112603   5.741  33.596  11.346 -0.0666  0.0232  0.2743
 1075DOPC   GL212604   5.535  33.427  11.207  0.0513 -0.0985  0.4161
 1075DOPC   C1A12605   5.730  33.264  11.724  0.1977  0.2924 -0.1896
 1075DOPC   D2A12606   5.756  32.875  12.025 -0.2474 -0.1936  0.0952
 1075DOPC   C3A12607   5.327  32.752  12.028  0.3679 -0.1174  0.1553
 1075DOPC   C4A12608   4.925  32.935  11.959  0.3573 -0.0546 -0.3610
 1075DOPC   C1B12609   5.580  33.018  11.035  0.1704 -0.0527  0.1523
 1075DOPC   D2B12610   5.658  32.562  11.123 -0.0227 -0.2103  0.3151
 1075DOPC   C3B12611   5.564  32.124  11.288  0.2004  0.1864 -0.2450
 1075DOPC   C4B12612   5.644  31.963  11.694  0.1314  0.1155 -0.4252
 1076POSM   NC312613   1.472  28.030  12.709 -0.0999  0.3096 -0.3203
 1076POSM   PO412614   1.623  28.144  13.092  0.1920 -0.0657 -0.3704
 1076POSM   AM112615   1.624  28.389  13.300  0.2149 -0.0135  0.1349
 1076POSM   AM212616   1.768  28.539  13.432  0.1989  0.1122  0.0036
 1076POSM   T1A12617   1.392  28.316  13.754  0.1621  0.1090 -0.0423
 1076POSM   C2A12618   0.997  28.336  13.822 -0.1653 -0.0104 -0.4561
 1076POSM   C3A12619   0.593  28.384  14.072  0.0404 -0.0532  0.0281
 1076POSM   C1B12620   1.552  28.786  13.638  0.0485  0.2410 -0.0892
 1076POSM   D2B12621   1.192  29.134  13.658 -0.2588  0.0804  0.1515
 1076POSM   C3B12622   1.244  29.553  13.707  0.0894 -0.2087  0.0784
 1076POSM   C4B12623   1.382  29.933  13.955 -0.0224  0.2235  0.1836
 1077POSM   NC312624   9.575  28.343  11.281  0.0903  0.0745  0.4515
 1077POSM   PO412625   9.186  28.263  11.167  0.1040 -0.1578  0.0259
 1077POSM   AM112626   9.053  28.209  11.493  0.1611  0.0201 -0.1142
 1077POSM   AM212627   8.841  28.302  11.670 -0.1360  0.3455 -0.0789
 1077POSM   T1A12628   9.051  28.008  11.968 -0.0133  0.0954  0.0901
 1077POSM   C2A12629   9.018  27.935  12.418  0.0992 -0.0008  0.0675
 1077POSM   C3A12630   9.210  27.793  12.809 -0.1320  0.2394 -0.3552
 1077POSM   C1B12631   8.848  28.565  11.898  0.4123  0.0680 -0.3493
 1077POSM   D2B12632   8.785  28.813  12.321  0.0037 -0.0182 -0.1928
 1077POSM   C3B12633   8.865  28.576  12.795  0.1619 -0.1290 -0.2564
 1077POSM   C4B12634   9.110  28.489  13.207  0.1274 -0.0709  0.1711
 1078DOPS   CNO12635   7.237  26.300  12.215  0.1319 -0.1136 -0.0119
 1078DOPS   PO412636   7.424  26.107  11.918 -0.1382 -0.1017  0.0750
 1078DOPS   GL112637   7.670  26.009  12.176 -0.0239  0.1693 -0.1093
 1078DOPS   GL212638   7.979  26.034  12.168  0.1661  0.2060 -0.0201
 1078DOPS   C1A12639   7.803  25.606  12.447 -0.1583  0.0953 -0.0587
 1078DOPS   D2A12640   7.858  25.309  12.855  0.2918  0.5305  0.0301
 1078DOPS   C3A12641   8.301  25.470  12.974  0.1461 -0.0457  0.2712
 1078DOPS   C4A12642   8.653  25.779  12.928  0.1934 -0.1254  0.1168
 1078DOPS   C1B12643   8.369  25.986  12.403 -0.1417 -0.3854 -0.0254
 1078DOPS   D2B12644   8.801  25.953  12.431 -0.1961  0.0583  0.0811
 1078DOPS   C3B12645   9.012  26.187  12.774  0.0398 -0.1288 -0.2950
 1078DOPS   C4B12646   9.274  26.220  13.123  0.2541  0.1216 -0.2597
 1079DOPE   NH312647   6.703  30.412  11.034 -0.2343 -0.0676  0.1756
 1079DOPE   PO412648   6.562  30.192  11.224 -0.2374  0.0540 -0.3382
 1079DOPE   GL112649   6.769  30.275  11.578 -0.3152 -0.2672  0.0774
 1079DOPE   GL212650   7.017  30.240  11.374 -0.0459  0.1371  0.2152
 1079DOPE   C1A12651   6.942  30.535  11.935  0.0387  0.1667  0.1519
 1079DOPE   D2A12652   6.985  30.982  12.042  0.5044  0.1704  0.3361
 1079DOPE   C3A12653   7.241  31.324  11.909 -0.0070 -0.1287 -0.2875
 1079DOPE   C4A12654   7.544  31.577  11.645 -0.3914 -0.1265 -0.1570
 1079DOPE   C1B12655   7.364  30.276  11.676 -0.0163 -0.1698  0.3460
 1079DOPE   D2B12656   7.845  30.270  11.653  0.1370 -0.1554 -0.2763
 1079DOPE   C3B12657   7.880  29.833  11.785  0.1329  0.0015  0.0832
 1079DOPE   C4B12658   7.756  29.405  11.894 -0.1698 -0.2795  0.2387
 1080DOPC   NC312659   7.026  28.198  12.174  0.0602  0.2024 -0.0706
 1080DOPC   PO412660   6.798  27.903  12.007  0.3194 -0.0673  0.0108
 1080DOPC   GL112661   6.745  27.868  12.421  0.1699  0.1765  0.3154
 1080DOPC   GL212662   6.493  27.778  12.569 -0.0319  0.0678  0.0523
 1080DOPC   C1A12663   6.926  28.001  12.776  0.1912 -0.2126  0.0052
 1080DOPC   D2A12664   7.094  27.810  13.196 -0.0535 -0.0331  0.0135
 1080DOPC   C3A12665   6.920  27.487  13.485 -0.0237 -0.1775 -0.3515
 1080DOPC   C4A12666   6.765  27.278  13.907  0.0567  0.3985 -0.3939
 1080DOPC   C1B12667   6.167  27.876  12.912 -0.1808 -0.0685  0.0566
 1080DOPC   D2B12668   6.162  27.908  13.401 -0.3721  0.1132 -0.0733
 1080DOPC   C3B12669   6.503  27.710  13.639 -0.0965 -0.1529 -0.2296
 1080DOPC   C4B12670   6.843  27.800  13.919  0.1498  0.0297 -0.0833
 1081DOPC   NC312671   4.346  30.274  11.714  0.0125 -0.5662  0.0477
 1081DOPC   PO412672   4.277  30.635  11.901  0.0720 -0.0199  0.2052
 1081DOPC   GL112673   4.278  30.578  12.292 -0.2476  0.2120 -0.0509
 1081DOPC   GL212674   4.381  30.381  12.435  0.0807  0.0219  0.0456
 1081DOPC   C1A12675   4.066  30.770  12.707  0.3079  0.0907 -0.0050
 1081DOPC   D2A12676   4.278  30.830  13.033 -0.1770 -0.1990 -0.3471
 1081DOPC   C3A12677   4.598  30.726  13.380 -0.0771  0.0766 -0.0074
 1081DOPC   C4A12678   5.011  30.905  13.607  0.0177 -0.1410 -0.1461
 1081DOPC   C1B12679   4.451  30.218  12.855 -0.2727  0.1675 -0.1294
 1081DOPC   D2B12680   4.670  30.244  13.262  0.2438 -0.1267 -0.2193
 1081DOPC   C3B12681   4.640  29.885  13.602  0.0037  0.1645 -0.0054
 1081DOPC   C4B12682   4.432  29.508  13.692  0.0364 -0.0844 -0.0295
 1082DOPC   NC312683   3.799  31.605  11.945 -0.0555 -0.1195  0.0683
 1082DOPC   PO412684   4.039  31.549  11.689  0.0708  0.2393  0.1951
 1082DOPC   GL112685   4.242  31.780  11.924  0.1240  0.3623 -0.1684
 1082DOPC   GL212686   4.147  32.042  11.929  0.5307 -0.2431  0.0965
 1082DOPC   C1A12687   4.591  31.902  12.116  0.1753 -0.0191  0.3192
 1082DOPC   D2A12688   4.952  32.169  12.138  0.2070 -0.2288 -0.0255
 1082DOPC   C3A12689   4.969  32.042  12.590  0.0411 -0.2609  0.2370
 1082DOPC   C4A12690   4.784  31.842  13.004 -0.4948  0.2039 -0.0465
 1082DOPC   C1B12691   4.473  32.286  11.676  0.3345 -0.2853  0.1574
 1082DOPC   D2B12692   4.878  32.445  11.719  0.2687  0.0491 -0.3369
 1082DOPC   C3B12693   5.061  32.789  11.436 -0.0499 -0.1730  0.1545
 1082DOPC   C4B12694   5.073  33.320  11.367  0.0291  0.3815  0.0065
 1083DOPE   NH312695   7.487  22.782  12.989 -0.1100 -0.0944 -0.1240
 1083DOPE   PO412696   7.295  23.072  13.001  0.0689  0.2476  0.4791
 1083DOPE   GL112697   7.578  23.288  13.151 -0.0981  0.0394 -0.1084
 1083DOPE   GL212698   7.878  23.161  12.936 -0.0311  0.0079  0.1922
 1083DOPE   C1A12699   7.487  23.530  13.545 -0.1857  0.0329 -0.0665
 1083DOPE   D2A12700   7.142  23.623  13.873  0.2359 -0.0948 -0.0084
 1083DOPE   C3A12701   6.665  23.675  14.040  0.0313 -0.0484  0.1836
 1083DOPE   C4A12702   6.362  24.031  14.170  0.1662  0.0259  0.1159
 1083DOPE   C1B12703   8.036  23.411  13.263  0.2579  0.1222  0.0519
 1083DOPE   D2B12704   7.901  23.839  13.266 -0.0365 -0.1769 -0.1265
 1083DOPE   C3B12705   7.566  23.988  13.502 -0.1395 -0.0977  0.0116
 1083DOPE   C4B12706   7.069  24.026  13.626 -0.2396 -0.2666 -0.0673
 1084DOPC   NC312707  10.228  29.824  10.765 -0.0647  0.1800 -0.2207
 1084DOPC   PO412708  10.205  30.056  11.100 -0.0489  0.0302  0.1065
 1084DOPC   GL112709  10.123  30.213  11.465  0.4507  0.0420 -0.0950
 1084DOPC   GL212710   9.868  30.465  11.478  0.0615  0.0908  0.0295
 1084DOPC   C1A12711  10.089  30.284  11.905 -0.1222 -0.1822  0.1123
 1084DOPC   D2A12712  10.179  30.464  12.304  0.0871  0.3976 -0.1557
 1084DOPC   C3A12713   9.890  30.837  12.333  0.0448 -0.1563 -0.0373
 1084DOPC   C4A12714   9.508  30.744  12.076 -0.3804  0.0739 -0.0189
 1084DOPC   C1B12715   9.985  30.805  11.787  0.0794 -0.3110  0.1122
 1084DOPC   D2B12716   9.876  31.231  11.805  0.3827  0.1557  0.1074
 1084DOPC   C3B12717   9.788  31.672  12.023  0.0615 -0.0392  0.0514
 1084DOPC   C4B12718   9.623  32.003  12.273  0.3709  0.3541  0.2513
 1085POSM   NC312719   2.343  27.095  12.826 -0.0235 -0.0194  0.2526
 1085POSM   PO412720   2.553  27.333  12.565 -0.0516 -0.3948 -0.1369
 1085POSM   AM112721   2.744  27.030  12.642 -0.1187  0.2164  0.2711
 1085POSM   AM212722   3.014  26.986  12.829  0.2273  0.0545 -0.0238
 1085POSM   T1A12723   2.959  26.566  12.579 -0.0209  0.0264 -0.0844
 1085POSM   C2A12724   3.263  26.184  12.613  0.1098 -0.0631  0.2607
 1085POSM   C3A12725   3.134  25.732  12.756 -0.2471 -0.0842  0.0168
 1085POSM   C1B12726   3.088  26.749  13.074 -0.0197 -0.0042  0.2222
 1085POSM   D2B12727   2.975  26.436  13.398 -0.0077  0.1322  0.0125
 1085POSM   C3B12728   2.759  26.593  13.772 -0.2635 -0.0966  0.2280
 1085POSM   C4B12729   2.770  26.955  14.054  0.2565  0.1400 -0.0552
 1086DOPS   CNO12730   3.318  22.955  13.091 -0.0532  0.0354  0.3301
 1086DOPS   PO412731   2.989  22.704  13.041  0.2379 -0.0533 -0.1674
 1086DOPS   GL112732   3.136  22.414  12.975 -0.0895 -0.2501 -0.3962
 1086DOPS   GL212733   3.495  22.467  13.024  0.3089  0.1324 -0.0477
 1086DOPS   C1A12734   3.201  22.028  12.703 -0.0058 -0.0882  0.2456
 1086DOPS   D2A12735   3.527  21.785  12.763 -0.1285 -0.1835  0.0850
 1086DOPS   C3A12736   3.477  21.572  13.199  0.0922  0.0201  0.0368
 1086DOPS   C4A12737   3.116  21.399  13.421 -0.1772 -0.1779  0.0473
 1086DOPS   C1B12738   3.309  22.091  13.218  0.0550 -0.2703 -0.0993
 1086DOPS   D2B12739   3.324  21.806  13.644 -0.1580 -0.2272  0.0706
 1086DOPS   C3B12740   2.999  21.557  13.875 -0.1618  0.1957  0.0877
 1086DOPS   C4B12741   2.830  21.136  13.803  0.0039  0.1122  0.0970
 1087DOPE   NH312742   2.143  28.099  13.038 -0.0673 -0.2424  0.2947
 1087DOPE   PO412743   2.019  28.271  12.765 -0.2888  0.0088  0.0486
 1087DOPE   GL112744   1.875  28.548  12.951 -0.1298 -0.1079 -0.0181
 1087DOPE   GL212745   1.565  28.550  12.835 -0.1284 -0.0061  0.0944
 1087DOPE   C1A12746   1.708  28.941  13.145 -0.0593  0.0225  0.2583
 1087DOPE   D2A12747   1.433  29.376  13.190  0.0202 -0.0467  0.0249
 1087DOPE   C3A12748   1.010  29.552  13.210 -0.1174 -0.2524 -0.3322
 1087DOPE   C4A12749   0.792  29.903  13.184  0.1573 -0.1166  0.1869
 1087DOPE   C1B12750   1.260  28.952  12.721 -0.2499  0.3163  0.1411
 1087DOPE   D2B12751   0.846  29.151  12.715 -0.1039  0.1466  0.1326
 1087DOPE   C3B12752   0.541  29.327  13.023 -0.0689 -0.1804 -0.3589
 1087DOPE   C4B12753   0.305  29.739  13.082  0.2341 -0.0192  0.3344
 1088POSM   NC312754   0.088  24.894  13.366  0.0045  0.0285 -0.0441
 1088POSM   PO412755   0.199  25.285  13.304 -0.0389  0.0440 -0.1016
 1088POSM   AM112756   0.504  25.270  13.413 -0.2404  0.2335 -0.2391
 1088POSM   AM212757   0.560  25.045  13.579 -0.2292 -0.1015  0.2829
 1088POSM   T1A12758   1.044  25.132  13.412 -0.0146  0.0185  0.0236
 1088POSM   C2A12759   1.409  25.196  13.664  0.0277  0.0491  0.2051
 1088POSM   C3A12760   1.464  25.442  14.045 -0.0170 -0.4549 -0.0651
 1088POSM   C1B12761   0.729  24.927  13.846 -0.1192  0.0510  0.4291
 1088POSM   D2B12762   1.107  24.741  14.081 -0.2044  0.4738 -0.1837
 1088POSM   C3B12763   1.520  24.912  14.124 -0.0923 -0.1720 -0.2448
 1088POSM   C4B12764   1.858  25.132  14.316 -0.1744  0.1054  0.2006
 1089DOPC   NC312765   6.354  27.517  11.941  0.0733 -0.0458  0.0611
 1089DOPC   PO412766   6.133  27.554  12.302 -0.4088 -0.0839  0.1665
 1089DOPC   GL112767   5.797  27.607  12.494 -0.0980  0.4159 -0.1147
 1089DOPC   GL212768   5.594  27.390  12.442  0.2903  0.2651  0.0106
 1089DOPC   C1A12769   5.435  27.703  12.809 -0.0439 -0.1057 -0.0027
 1089DOPC   D2A12770   5.269  28.078  13.020  0.2834  0.0640  0.0051
 1089DOPC   C3A12771   5.655  28.226  13.221 -0.1675 -0.1620 -0.2610
 1089DOPC   C4A12772   5.567  28.642  13.416  0.1132 -0.3797  0.1236
 1089DOPC   C1B12773   5.349  27.746  12.308  0.1728 -0.3615  0.1284
 1089DOPC   D2B12774   5.322  28.147  12.091  0.2726 -0.2902 -0.1951
 1089DOPC   C3B12775   5.328  28.053  11.608  0.0596 -0.1342  0.3715
 1089DOPC   C4B12776   5.096  27.831  11.324  0.0599  0.0241 -0.2390
 1090DOPS   CNO12777   3.278  23.451  13.304 -0.2277 -0.2465 -0.0029
 1090DOPS   PO412778   3.149  23.323  13.615 -0.1176  0.0443 -0.1004
 1090DOPS   GL112779   3.189  23.374  13.996 -0.4249  0.1900  0.2528
 1090DOPS   GL212780   3.468  23.473  14.127 -0.0534 -0.0070  0.0785
 1090DOPS   C1A12781   3.116  23.631  14.400  0.0150  0.0533  0.1401
 1090DOPS   D2A12782   3.142  23.769  14.841 -0.1765  0.1291  0.0148
 1090DOPS   C3A12783   2.656  23.761  14.916 -0.1523 -0.0528 -0.1111
 1090DOPS   C4A12784   2.405  24.133  14.826 -0.0331  0.0849  0.1803
 1090DOPS   C1B12785   3.518  23.255  14.551  0.0882  0.0958 -0.3094
 1090DOPS   D2B12786   3.496  23.408  14.916  0.1853 -0.1520 -0.2395
 1090DOPS   C3B12787   3.897  23.641  15.138  0.0054  0.1815 -0.1462
 1090DOPS   C4B12788   3.922  24.073  15.324  0.0917 -0.2301 -0.0235
 1091DOPC   NC312789   1.537  27.871  13.495  0.0136  0.4388  0.0584
 1091DOPC   PO412790   1.868  27.692  13.386  0.0053  0.1776  0.1754
 1091DOPC   GL112791   1.615  27.486  13.724 -0.0116  0.1014 -0.0731
 1091DOPC   GL212792   1.736  27.170  13.718 -0.3699  0.0132 -0.0718
 1091DOPC   C1A12793   1.264  27.680  13.943 -0.1108 -0.1527 -0.0287
 1091DOPC   D2A12794   1.062  28.027  14.212 -0.1882  0.0987  0.1076
 1091DOPC   C3A12795   1.307  28.464  14.232 -0.0051 -0.2509  0.2053
 1091DOPC   C4A12796   1.438  28.915  14.181  0.5534  0.0841 -0.1055
 1091DOPC   C1B12797   1.670  26.882  14.107  0.2892 -0.1918 -0.2437
 1091DOPC   D2B12798   1.943  26.735  14.422 -0.2642 -0.0642  0.1459
 1091DOPC   C3B12799   2.428  26.792  14.404  0.0387 -0.0892 -0.0045
 1091DOPC   C4B12800   2.774  26.855  14.724 -0.0675  0.1691  0.0092
 1092DOPC   NC312801   5.679  26.314  13.173  0.0631  0.1415 -0.2087
 1092DOPC   PO412802   5.400  26.227  12.865 -0.3644  0.2649  0.0460
 1092DOPC   GL112803   5.100  26.273  13.197 -0.0080  0.0731  0.2261
 1092DOPC   GL212804   4.919  26.271  13.016  0.2061 -0.0743  0.0492
 1092DOPC   C1A12805   4.884  26.315  13.655 -0.4259  0.1348  0.0150
 1092DOPC   D2A12806   4.929  25.996  13.980 -0.1476  0.4330 -0.0317
 1092DOPC   C3A12807   5.276  26.063  14.201  0.1752  0.4457 -0.1250
 1092DOPC   C4A12808   5.676  26.087  14.469 -0.1876 -0.2678  0.1249
 1092DOPC   C1B12809   4.505  26.215  13.233  0.0539 -0.3667  0.0455
 1092DOPC   D2B12810   4.043  26.273  13.372 -0.0652  0.0657  0.1143
 1092DOPC   C3B12811   3.870  26.400  13.765  0.3896  0.1924 -0.0019
 1092DOPC   C4B12812   4.036  26.470  14.187 -0.0041 -0.3459 -0.2551
 1093DOPE   NH312813   6.384  26.226  12.659  0.0404 -0.2232  0.0664
 1093DOPE   PO412814   6.279  26.375  12.898 -0.0120 -0.2039 -0.3258
 1093DOPE   GL112815   6.608  26.185  13.075  0.0299  0.1694  0.5587
 1093DOPE   GL212816   6.757  25.834  12.942  0.1519 -0.2662  0.1065
 1093DOPE   C1A12817   6.664  26.015  13.523  0.2329  0.0857  0.0882
 1093DOPE   D2A12818   6.669  25.693  13.850  0.1828 -0.0601 -0.1518
 1093DOPE   C3A12819   7.098  25.884  13.785  0.0186 -0.1438  0.0548
 1093DOPE   C4A12820   7.245  26.038  14.186  0.1271  0.0007 -0.0769
 1093DOPE   C1B12821   6.619  25.529  13.195 -0.1538 -0.0902  0.0005
 1093DOPE   D2B12822   6.445  25.203  13.358  0.4214  0.1113 -0.0484
 1093DOPE   C3B12823   6.315  25.114  13.762 -0.0621 -0.2094 -0.0208
 1093DOPE   C4B12824   6.155  24.987  14.229 -0.2546 -0.0612 -0.1541
 1094DOPC   NC312825   1.434  27.071  12.897 -0.1516 -0.0491 -0.0352
 1094DOPC   PO412826   1.305  26.769  12.679 -0.0298 -0.2819  0.0650
 1094DOPC   GL112827   1.481  26.364  12.640  0.0742 -0.3260  0.0998
 1094DOPC   GL212828   1.366  26.243  12.832  0.1105 -0.1649 -0.1139
 1094DOPC   C1A12829   1.840  25.995  12.596  0.4273 -0.0771  0.2261
 1094DOPC   D2A12830   2.058  25.693  12.409  0.1359 -0.2541  0.0971
 1094DOPC   C3A12831   2.251  25.353  12.644  0.1543  0.1289  0.0396
 1094DOPC   C4A12832   2.676  25.066  12.524  0.1587 -0.4033 -0.1570
 1094DOPC   C1B12833   1.522  25.843  12.987 -0.0229 -0.0233  0.2853
 1094DOPC   D2B12834   1.717  25.555  13.334  0.1850 -0.0699 -0.1095
 1094DOPC   C3B12835   2.040  25.528  13.666  0.0979  0.4330 -0.4753
 1094DOPC   C4B12836   2.055  25.623  14.105 -0.0065 -0.0155  0.2737
 1095DOPC   NC312837   5.932  33.995  11.277  0.0666 -0.0572 -0.1687
 1095DOPC   PO412838   6.101  34.321  11.441 -0.2801  0.0290 -0.0385
 1095DOPC   GL112839   6.233  34.254  11.813  0.2426 -0.5522  0.2433
 1095DOPC   GL212840   6.340  34.037  11.787 -0.0621 -0.2578 -0.1110
 1095DOPC   C1A12841   6.555  34.180  12.208 -0.0440  0.1475  0.2691
 1095DOPC   D2A12842   6.691  34.052  12.608  0.0956 -0.0294 -0.1490
 1095DOPC   C3A12843   6.448  33.663  12.716 -0.1993  0.0811  0.0221
 1095DOPC   C4A12844   6.626  33.197  12.641  0.0791  0.3804 -0.0744
 1095DOPC   C1B12845   6.840  34.067  11.778  0.4839  0.0601  0.0641
 1095DOPC   D2B12846   7.318  34.076  11.891  0.0619 -0.0805  0.1405
 1095DOPC   C3B12847   7.764  33.873  11.862 -0.0862 -0.2440  0.2212
 1095DOPC   C4B12848   8.129  33.574  11.832  0.0122  0.0592 -0.0821
 1096POSM   NC312849   4.369   0.022  11.637 -0.0431  0.2194 -0.0983
 1096POSM   PO412850   4.084  -0.123  11.481 -0.1389 -0.4726 -0.1346
 1096POSM   AM112851   4.019  -0.368  11.683  0.1240  0.0235 -0.1471
 1096POSM   AM212852   4.087  -0.508  11.914 -0.4510 -0.1091 -0.0612
 1096POSM   T1A12853   3.893  -0.879  11.801  0.0863 -0.2857 -0.1682
 1096POSM   C2A12854   3.933  -1.311  11.740  0.0899 -0.2335  0.0250
 1096POSM   C3A12855   4.070  -1.711  11.420 -0.4684 -0.1079 -0.0500
 1096POSM   C1B12856   4.252  -0.635  12.181 -0.1083 -0.0189 -0.0673
 1096POSM   D2B12857   4.268  -0.883  12.577  0.0668  0.1814  0.0693
 1096POSM   C3B12858   4.366  -1.321  12.605 -0.1339  0.1666 -0.1409
 1096POSM   C4B12859   4.532  -1.754  12.517  0.2043  0.0748 -0.0775
 1097DOPE   NH312860   5.516  26.482  12.495 -0.3360  0.0878  0.0847
 1097DOPE   PO412861   5.596  26.728  12.272 -0.2981 -0.1140 -0.1716
 1097DOPE   GL112862   5.205  26.855  12.444  0.1720 -0.0744  0.1557
 1097DOPE   GL212863   5.244  27.068  12.625  0.4393  0.1295  0.1546
 1097DOPE   C1A12864   4.798  26.996  12.305 -0.1394 -0.1450 -0.0432
 1097DOPE   D2A12865   4.395  27.152  12.071  0.2732  0.1874 -0.0050
 1097DOPE   C3A12866   4.495  27.558  12.377  0.2493  0.0252  0.1413
 1097DOPE   C4A12867   4.429  27.850  12.759  0.1334  0.1033  0.0978
 1097DOPE   C1B12868   4.806  27.197  12.763 -0.1398 -0.0140  0.0266
 1097DOPE   D2B12869   4.659  27.163  13.181 -0.0290  0.0065 -0.2557
 1097DOPE   C3B12870   4.513  27.111  13.625  0.0756 -0.2095  0.1419
 1097DOPE   C4B12871   4.316  26.844  14.008 -0.1666  0.0678 -0.0857
 1098DOPS   CNO12872   5.110  26.415  12.129 -0.1922 -0.0100 -0.1886
 1098DOPS   PO412873   5.038  26.454  12.532  0.0365 -0.0140  0.0523
 1098DOPS   GL112874   4.783  26.751  12.695 -0.0010 -0.2255  0.3427
 1098DOPS   GL212875   4.601  26.664  12.962 -0.0464 -0.4640  0.1195
 1098DOPS   C1A12876   4.331  26.973  12.571 -0.0605  0.0631 -0.0360
 1098DOPS   D2A12877   4.103  27.338  12.771 -0.1428  0.2306  0.4785
 1098DOPS   C3A12878   4.357  27.490  13.111 -0.2337 -0.2299  0.1448
 1098DOPS   C4A12879   4.543  27.543  13.491  0.2951  0.2225 -0.2119
 1098DOPS   C1B12880   4.401  26.701  13.421 -0.0234 -0.0598 -0.1097
 1098DOPS   D2B12881   4.379  26.427  13.787 -0.3503 -0.0385 -0.2364
 1098DOPS   C3B12882   4.308  25.983  13.681 -0.0992  0.0657 -0.0535
 1098DOPS   C4B12883   4.229  25.790  13.276 -0.1876 -0.0729 -0.0733
 1099DOPC   NC312884   3.612  34.476  11.726  0.2433 -0.0631  0.1590
 1099DOPC   PO412885   3.671  34.838  11.811  0.2288  0.0074  0.0366
 1099DOPC   GL112886   3.884  34.534  12.111 -0.1507  0.0797  0.1709
 1099DOPC   GL212887   3.736  34.315  12.219 -0.2513  0.0134 -0.0792
 1099DOPC   C1A12888   3.982  34.778  12.464 -0.0612  0.2649  0.0202
 1099DOPC   D2A12889   4.036  34.897  12.934 -0.0485 -0.0661  0.3991
 1099DOPC   C3A12890   4.081  35.312  13.128  0.2438 -0.0727 -0.2338
 1099DOPC   C4A12891   4.266  35.699  13.323 -0.0281  0.0429  0.0456
 1099DOPC   C1B12892   3.758  33.906  12.376  0.1734 -0.0753  0.1517
 1099DOPC   D2B12893   3.843  33.495  12.221 -0.3411 -0.1231 -0.0175
 1099DOPC   C3B12894   3.921  33.195  12.519 -0.1044 -0.1162 -0.0512
 1099DOPC   C4B12895   4.117  32.803  12.682  0.3343  0.0670  0.3447
 1100DOPE   NH312896   1.327  26.645  13.207  0.0292 -0.0296 -0.1729
 1100DOPE   PO412897   1.051  26.775  13.160 -0.1975 -0.0144  0.0524
 1100DOPE   GL112898   1.008  26.594  13.564 -0.2147  0.0977 -0.2483
 1100DOPE   GL212899   0.883  26.634  13.813  0.0477  0.2923  0.0749
 1100DOPE   C1A12900   1.241  26.235  13.814 -0.1045 -0.4463  0.0317
 1100DOPE   D2A12901   1.066  25.828  13.992  0.2970 -0.1579  0.1901
 1100DOPE   C3A12902   1.014  25.644  14.403 -0.0141  0.3917  0.0591
 1100DOPE   C4A12903   0.652  25.393  14.509  0.0819 -0.1527 -0.1061
 1100DOPE   C1B12904   1.224  26.659  14.146  0.0247 -0.0963  0.0776
 1100DOPE   D2B12905   1.441  26.748  14.555 -0.1078  0.0016 -0.2776
 1100DOPE   C3B12906   1.434  27.109  14.840  0.0514 -0.3435  0.0507
 1100DOPE   C4B12907   1.482  27.234  15.283  0.0688  0.0364  0.1545
 1101DOPE   NH312908   6.518  28.060  11.604 -0.0749  0.0791 -0.2115
 1101DOPE   PO412909   6.218  27.897  11.574  0.1391  0.1261 -0.0636
 1101DOPE   GL112910   5.952  27.690  11.855 -0.0265 -0.0476 -0.1197
 1101DOPE   GL212911   5.808  27.868  12.085  0.0978 -0.1816 -0.0809
 1101DOPE   C1A12912   5.519  27.461  11.834 -0.1656 -0.3981 -0.0357
 1101DOPE   D2A12913   5.233  27.178  12.129 -0.0118  0.1445  0.0332
 1101DOPE   C3A12914   4.982  27.419  12.380  0.2348 -0.1602 -0.1163
 1101DOPE   C4A12915   4.945  27.703  12.745  0.1928 -0.0610  0.1772
 1101DOPE   C1B12916   5.826  28.160  12.386  0.1573  0.0705 -0.2956
 1101DOPE   D2B12917   5.629  28.359  12.739 -0.1287  0.2490 -0.1029
 1101DOPE   C3B12918   5.210  28.231  12.593  0.2427 -0.0234  0.0463
 1101DOPE   C4B12919   4.773  28.369  12.461 -0.1023  0.2983 -0.1990
 1102POSM   NC312920  10.207  29.808  11.607  0.2317 -0.4906  0.1418
 1102POSM   PO412921   9.861  29.765  11.453  0.4317 -0.0139 -0.2559
 1102POSM   AM112922   9.671  29.985  11.628  0.6025  0.5158 -0.0627
 1102POSM   AM212923   9.489  30.179  11.566  0.1688  0.1715 -0.0780
 1102POSM   T1A12924   9.460  30.062  12.119 -0.1175  0.2610 -0.1042
 1102POSM   C2A12925   9.091  30.227  12.346 -0.1216 -0.0417 -0.1838
 1102POSM   C3A12926   8.791  30.113  12.648  0.0290  0.0334 -0.1624
 1102POSM   C1B12927   9.249  30.342  11.774 -0.1074 -0.3893  0.0535
 1102POSM   D2B12928   9.009  30.627  12.039  0.1902  0.0598 -0.3794
 1102POSM   C3B12929   8.679  30.496  12.291 -0.0078 -0.0694 -0.2631
 1102POSM   C4B12930   8.283  30.325  12.495  0.2108 -0.1273 -0.1748
 1103POSM   NC312931   8.805  33.971  10.255 -0.0552  0.1890  0.0164
 1103POSM   PO412932   8.798  33.785  10.577 -0.0827 -0.0142 -0.3758
 1103POSM   AM112933   8.928  33.563  10.778  0.0125  0.1637 -0.2673
 1103POSM   AM212934   9.156  33.469  10.796 -0.2279  0.2084 -0.1695
 1103POSM   T1A12935   8.822  33.092  11.022  0.0426  0.0566 -0.0578
 1103POSM   C2A12936   8.630  32.810  11.346 -0.0871  0.4113 -0.1739
 1103POSM   C3A12937   8.389  32.502  11.620  0.3391  0.0956  0.0198
 1103POSM   C1B12938   9.306  33.474  11.104 -0.0564  0.1206 -0.1528
 1103POSM   D2B12939   9.535  33.654  11.412 -0.3349  0.0686  0.2443
 1103POSM   C3B12940   9.381  33.394  11.778  0.0566  0.4648  0.0785
 1103POSM   C4B12941   9.425  32.949  11.984  0.2967 -0.0104  0.1276
 1104DOPC   NC312942   1.081  27.315  12.649  0.0987  0.3960  0.1072
 1104DOPC   PO412943   0.999  27.291  13.046 -0.0861  0.1599 -0.1698
 1104DOPC   GL112944   0.928  27.510  13.374 -0.0675 -0.0549 -0.0478
 1104DOPC   GL212945   1.026  27.421  13.586 -0.0951 -0.0026 -0.2634
 1104DOPC   C1A12946   0.575  27.517  13.709 -0.0666  0.3001 -0.3042
 1104DOPC   D2A12947   0.530  27.835  14.058  0.4732  0.0240  0.0710
 1104DOPC   C3A12948   0.715  27.769  14.448  0.0532 -0.0295  0.0535
 1104DOPC   C4A12949   1.033  27.440  14.647 -0.2161 -0.2004 -0.1587
 1104DOPC   C1B12950   1.020  27.919  13.603  0.0910 -0.0843 -0.1701
 1104DOPC   D2B12951   1.182  28.282  13.320  0.2669  0.0357 -0.1844
 1104DOPC   C3B12952   1.242  28.728  13.268  0.1761 -0.3492  0.0119
 1104DOPC   C4B12953   0.903  29.065  13.274 -0.3227 -0.1798 -0.1310
 1105DOPC   NC312954   3.961  34.344  11.061 -0.0671  0.0279 -0.1762
 1105DOPC   PO412955   3.717  34.192  11.320 -0.1419 -0.3279  0.1629
 1105DOPC   GL112956   3.390  34.004  11.641 -0.2939  0.2762  0.0918
 1105DOPC   GL212957   3.445  34.010  11.892 -0.4137 -0.1501 -0.1393
 1105DOPC   C1A12958   3.368  33.548  11.685 -0.1161 -0.0348  0.3450
 1105DOPC   D2A12959   3.478  33.125  11.812  0.1901  0.0502 -0.1443
 1105DOPC   C3A12960   3.880  33.000  12.052  0.2537 -0.3425 -0.0897
 1105DOPC   C4A12961   4.284  33.223  12.070 -0.0300 -0.1154  0.1519
 1105DOPC   C1B12962   3.273  33.722  12.177  0.0626  0.1575 -0.2175
 1105DOPC   D2B12963   3.374  33.246  12.298 -0.2402 -0.0497  0.4229
 1105DOPC   C3B12964   3.032  33.301  12.676 -0.0026 -0.0127  0.5432
 1105DOPC   C4B12965   2.997  33.656  12.953 -0.2830 -0.1297  0.2715
 1106DOPC   NC312966   6.270  29.938  11.500  0.2182 -0.4704  0.1887
 1106DOPC   PO412967   5.918  29.896  11.738 -0.2393 -0.0135 -0.0511
 1106DOPC   GL112968   6.070  30.184  12.021  0.0184  0.1504  0.0814
 1106DOPC   GL212969   6.279  30.266  11.838 -0.4247 -0.0541 -0.0164
 1106DOPC   C1A12970   6.106  30.033  12.430  0.2221 -0.1272  0.1231
 1106DOPC   D2A12971   5.928  29.837  12.834  0.1634 -0.1017  0.3667
 1106DOPC   C3A12972   5.967  29.703  13.273  0.0624  0.2328 -0.0731
 1106DOPC   C4A12973   6.046  29.782  13.734  0.4328 -0.1090 -0.0181
 1106DOPC   C1B12974   6.574  30.193  12.209 -0.1162 -0.1760  0.1788
 1106DOPC   D2B12975   6.409  30.352  12.608  0.1557  0.2061 -0.3000
 1106DOPC   C3B12976   6.449  30.086  12.911  0.3280  0.1688 -0.2686
 1106DOPC   C4B12977   6.482  29.634  13.024 -0.2127 -0.0294  0.0546
 1107POSM   NC312978   2.120  27.211  12.359 -0.2099 -0.1583  0.1728
 1107POSM   PO412979   2.338  26.847  12.394  0.1827  0.0977  0.1087
 1107POSM   AM112980   2.416  26.645  12.660  0.1838  0.0988 -0.1433
 1107POSM   AM212981   2.246  26.413  12.724 -0.1308 -0.0063  0.1316
 1107POSM   T1A12982   2.677  26.451  13.026  0.2698  0.0155 -0.3272
 1107POSM   C2A12983   2.959  26.147  12.993 -0.1850 -0.2002 -0.1708
 1107POSM   C3A12984   3.173  25.852  13.274 -0.0922 -0.0892  0.1706
 1107POSM   C1B12985   2.190  26.095  12.884  0.0444 -0.1125  0.1730
 1107POSM   D2B12986   2.046  25.660  13.007 -0.1387  0.3209  0.1600
 1107POSM   C3B12987   2.414  25.404  13.090 -0.0675 -0.1590  0.1688
 1107POSM   C4B12988   2.836  25.481  13.101  0.1886  0.2657  0.1809
 1108DOPC   NC312989   1.556  34.112  12.209  0.1595  0.0114  0.1840
 1108DOPC   PO412990   1.209  34.189  12.449  0.0720  0.2869  0.1017
 1108DOPC   GL112991   1.584  33.941  12.651 -0.0168 -0.1803 -0.1167
 1108DOPC   GL212992   1.690  34.129  12.733 -0.1329  0.0013 -0.1671
 1108DOPC   C1A12993   1.641  33.641  13.004  0.1229  0.1421  0.1659
 1108DOPC   D2A12994   1.905  33.461  13.310  0.3235  0.0892  0.2231
 1108DOPC   C3A12995   1.827  33.406  13.785 -0.1128  0.0016 -0.1718
 1108DOPC   C4A12996   1.562  33.058  13.926 -0.1911  0.0806 -0.0084
 1108DOPC   C1B12997   1.800  34.100  13.158 -0.0126 -0.2630 -0.0904
 1108DOPC   D2B12998   2.211  34.245  13.328 -0.2295  0.1164  0.2474
 1108DOPC   C3B12999   2.144  34.582  13.673  0.0309 -0.0969 -0.0617
 1108DOPC   C4B13000   2.164  34.997  13.922  0.0382  0.0541  0.0836
 1109POSM   NC313001  11.127  27.475  11.540  0.0500 -0.1657 -0.2976
 1109POSM   PO413002  10.715  27.436  11.527 -0.5230  0.0146 -0.0792
 1109POSM   AM113003  10.533  27.374  11.806 -0.2484 -0.1233  0.1247
 1109POSM   AM213004  10.384  27.186  11.997 -0.0197  0.2339  0.1038
 1109POSM   T1A13005  10.745  27.432  12.236 -0.3374  0.0217 -0.3918
 1109POSM   C2A13006  10.919  27.417  12.619 -0.1543  0.1731 -0.2695
 1109POSM   C3A13007  10.903  27.630  13.000  0.1097  0.0715  0.1100
 1109POSM   C1B13008  10.219  27.137  12.274  0.2473 -0.0489 -0.1314
 1109POSM   D2B13009   9.984  26.986  12.626  0.1099 -0.2200 -0.0777
 1109POSM   C3B13010  10.018  27.399  12.779 -0.3278  0.3014  0.1367
 1109POSM   C4B13011  10.325  27.653  13.053  0.0532  0.0327  0.0868
 1110DOPS   CNO13012   8.617  23.666  12.029  0.0428 -0.4096  0.0151
 1110DOPS   PO413013   8.252  23.752  11.879  0.2001  0.0277 -0.2031
 1110DOPS   GL113014   8.275  24.197  12.040 -0.3432  0.4034  0.5816
 1110DOPS   GL213015   8.428  24.121  12.290 -0.1406 -0.0812  0.0945
 1110DOPS   C1A13016   7.994  24.563  12.102 -0.0638 -0.1699 -0.1228
 1110DOPS   D2A13017   8.105  24.923  12.404  0.1613  0.0548  0.0838
 1110DOPS   C3A13018   8.365  24.983  12.759 -0.0597  0.1417 -0.0542
 1110DOPS   C4A13019   8.576  25.117  13.184 -0.0221  0.1217  0.1657
 1110DOPS   C1B13020   8.486  24.562  12.166  0.1593 -0.0024 -0.0374
 1110DOPS   D2B13021   8.526  24.868  11.844 -0.2804  0.0544 -0.4153
 1110DOPS   C3B13022   8.544  25.235  12.098 -0.2195  0.1477 -0.1529
 1110DOPS   C4B13023   8.305  25.491  12.429  0.3835  0.1199 -0.0468
 1111DOPC   NC313024   3.405  28.603  12.643  0.0398  0.0100  0.2796
 1111DOPC   PO413025   3.497  28.521  12.258 -0.0604 -0.5574 -0.0086
 1111DOPC   GL113026   3.896  28.442  12.211 -0.2326 -0.1261  0.1349
 1111DOPC   GL213027   4.241  28.570  12.228  0.1576  0.0364  0.0698
 1111DOPC   C1A13028   4.023  28.070  12.456  0.4909  0.0494 -0.2083
 1111DOPC   D2A13029   3.885  27.724  12.338  0.1053 -0.1421 -0.1895
 1111DOPC   C3A13030   4.206  27.664  11.983  0.0635 -0.0761 -0.2795
 1111DOPC   C4A13031   4.593  27.549  11.704 -0.1164 -0.0508  0.0365
 1111DOPC   C1B13032   4.387  28.120  12.168  0.1678 -0.0230 -0.0081
 1111DOPC   D2B13033   4.797  27.856  12.173  0.0514  0.1996  0.0731
 1111DOPC   C3B13034   5.085  27.657  11.845 -0.1496 -0.0380 -0.1460
 1111DOPC   C4B13035   5.039  27.238  11.628  0.1284  0.2518 -0.0645
 1112DOPS   CNO13036   0.215  34.111  12.272 -0.0392 -0.1487  0.0440
 1112DOPS   PO413037   0.342  33.834  12.493 -0.2385 -0.0098 -0.1096
 1112DOPS   GL113038   0.540  33.782  12.812  0.2467  0.3141  0.1014
 1112DOPS   GL213039   0.675  33.865  13.141 -0.0687  0.0179  0.1627
 1112DOPS   C1A13040   0.414  33.402  13.075  0.1144  0.1718  0.1928
 1112DOPS   D2A13041   0.037  33.296  13.251  0.0836  0.1960  0.2097
 1112DOPS   C3A13042   0.121  33.133  13.664 -0.0924  0.0198 -0.0617
 1112DOPS   C4A13043   0.416  33.125  14.015  0.0407 -0.0766  0.4946
 1112DOPS   C1B13044   0.683  33.624  13.483  0.3045 -0.0687 -0.2214
 1112DOPS   D2B13045   0.678  33.549  13.918 -0.0811  0.1601 -0.0485
 1112DOPS   C3B13046   0.959  33.132  13.907 -0.0207 -0.0530 -0.0378
 1112DOPS   C4B13047   1.077  32.680  13.854 -0.1451 -0.1892  0.1599
 1113DOPE   NH313048   3.788  30.818  11.834 -0.0284 -0.0593  0.0220
 1113DOPE   PO413049   3.930  31.071  11.633  0.0221  0.0481 -0.2215
 1113DOPE   GL113050   4.084  31.225  12.049  0.1168 -0.0547  0.0992
 1113DOPE   GL213051   4.061  31.000  12.257  0.4175  0.1207  0.2333
 1113DOPE   C1A13052   4.008  31.521  12.382 -0.1033  0.1091 -0.2835
 1113DOPE   D2A13053   4.102  31.922  12.435  0.0177  0.0707 -0.4933
 1113DOPE   C3A13054   4.374  32.285  12.376 -0.1038 -0.5374 -0.0733
 1113DOPE   C4A13055   4.688  32.572  12.196 -0.3730 -0.1676  0.2136
 1113DOPE   C1B13056   4.294  31.202  12.669 -0.2315 -0.1296 -0.0928
 1113DOPE   D2B13057   4.569  31.172  13.042 -0.2387 -0.2364  0.0665
 1113DOPE   C3B13058   4.965  30.988  13.032 -0.1668 -0.6100  0.0168
 1113DOPE   C4B13059   5.177  30.704  12.785  0.1345 -0.0115  0.1376
 1114DOPE   NH313060  10.869  25.270  11.564 -0.2105 -0.3039  0.0194
 1114DOPE   PO413061  10.646  25.479  11.700 -0.0028 -0.0113  0.2788
 1114DOPE   GL113062  10.321  25.448  11.991 -0.0007 -0.1839  0.2897
 1114DOPE   GL213063  10.169  25.362  11.747 -0.1922  0.1163  0.1893
 1114DOPE   C1A13064  10.213  25.394  12.430 -0.4426 -0.1673 -0.0610
 1114DOPE   D2A13065  10.174  25.228  12.831  0.1830  0.0242 -0.4159
 1114DOPE   C3A13066   9.772  25.169  13.090 -0.0551  0.0416 -0.0400
 1114DOPE   C4A13067   9.356  25.171  13.165 -0.2465 -0.0815  0.0309
 1114DOPE   C1B13068   9.884  25.122  12.128 -0.3519 -0.0053  0.0592
 1114DOPE   D2B13069   9.806  24.990  12.559 -0.1134 -0.0702 -0.2868
 1114DOPE   C3B13070   9.405  24.845  12.761  0.1445 -0.1228  0.1841
 1114DOPE   C4B13071   8.996  25.024  12.872 -0.0867 -0.2668 -0.3585
 1115DOPE   NH313072   6.811  27.115  12.343  0.0135  0.1686  0.1978
 1115DOPE   PO413073   6.620  27.400  12.326 -0.3105  0.2876  0.1427
 1115DOPE   GL113074   6.491  27.330  12.759 -0.1939 -0.0649  0.2708
 1115DOPE   GL213075   6.661  27.155  12.809  0.0217 -0.3049  0.2204
 1115DOPE   C1A13076   6.632  27.582  13.111 -0.0591 -0.0804  0.1667
 1115DOPE   D2A13077   6.577  28.026  13.142 -0.1474 -0.3361  0.2728
 1115DOPE   C3A13078   6.769  28.149  13.559 -0.2514 -0.0615  0.0285
 1115DOPE   C4A13079   6.894  28.563  13.684  0.0725  0.1390 -0.1198
 1115DOPE   C1B13080   6.787  27.076  13.234  0.0901 -0.1205 -0.0436
 1115DOPE   D2B13081   7.132  27.012  13.537 -0.1876 -0.1149 -0.1488
 1115DOPE   C3B13082   6.989  26.675  13.867 -0.3105 -0.1899 -0.2248
 1115DOPE   C4B13083   6.799  26.258  13.974 -0.0144 -0.0469  0.1821
 1116DOPC   NC313084   5.767  23.830  12.723  0.0945 -0.0138  0.1449
 1116DOPC   PO413085   5.425  23.871  12.910  0.2804  0.1420 -0.1582
 1116DOPC   GL113086   5.502  24.272  13.013 -0.0288  0.0048 -0.3266
 1116DOPC   GL213087   5.616  24.238  13.308 -0.2122 -0.0031  0.1264
 1116DOPC   C1A13088   5.441  24.669  13.297  0.0318  0.1585 -0.6143
 1116DOPC   D2A13089   5.475  24.874  13.684  0.0380  0.2281  0.0313
 1116DOPC   C3A13090   5.651  24.748  14.149  0.1168 -0.0658  0.1465
 1116DOPC   C4A13091   5.922  24.479  14.351  0.0195 -0.0776  0.0015
 1116DOPC   C1B13092   5.452  24.329  13.712  0.0521 -0.1420 -0.2343
 1116DOPC   D2B13093   5.245  24.441  14.133  0.0436  0.1434  0.0688
 1116DOPC   C3B13094   5.470  24.266  14.426 -0.1126 -0.1120 -0.1020
 1116DOPC   C4B13095   5.562  24.117  14.874  0.3110 -0.0463  0.2276
 1117DOPS   CNO13096  10.562  29.168  11.755 -0.1297 -0.0995  0.0309
 1117DOPS   PO413097  10.579  29.455  11.551 -0.1301 -0.3791 -0.0828
 1117DOPS   GL113098  10.788  29.488  11.976  0.2124 -0.3032  0.1308
 1117DOPS   GL213099  10.941  29.681  11.812 -0.1607 -0.1771 -0.1979
 1117DOPS   C1A13100  11.030  29.647  12.403  0.3334 -0.0609  0.0430
 1117DOPS   D2A13101  11.044  29.634  12.853  0.3986  0.0258  0.4404
 1117DOPS   C3A13102  10.787  29.231  12.894 -0.3563 -0.0420 -0.1882
 1117DOPS   C4A13103  10.543  28.971  12.654 -0.1126  0.0036 -0.4612
 1117DOPS   C1B13104  11.270  29.998  12.013  0.0895 -0.0460  0.2305
 1117DOPS   D2B13105  11.165  30.305  12.333 -0.0450  0.0872 -0.0202
 1117DOPS   C3B13106  10.745  30.371  12.279 -0.1431  0.2169  0.1079
 1117DOPS   C4B13107  10.459  30.001  12.171 -0.0166 -0.0271 -0.1490
 1118DOPS   CNO13108   6.652  32.795  10.834  0.1624  0.0357 -0.0657
 1118DOPS   PO413109   6.449  32.505  10.724 -0.2405  0.0573  0.0869
 1118DOPS   GL113110   6.318  32.550  11.167  0.0225 -0.1472  0.0547
 1118DOPS   GL213111   6.476  32.805  11.292  0.0943  0.3599  0.3620
 1118DOPS   C1A13112   6.454  32.424  11.595 -0.0027  0.0347  0.0195
 1118DOPS   D2A13113   6.705  32.555  11.994  0.1558  0.2564 -0.0070
 1118DOPS   C3A13114   6.996  32.818  11.832  0.3337 -0.0668  0.1829
 1118DOPS   C4A13115   7.315  33.086  11.601 -0.1482  0.0280 -0.1172
 1118DOPS   C1B13116   6.071  32.872  11.506  0.0369 -0.2838  0.1267
 1118DOPS   D2B13117   5.618  32.818  11.547  0.1011 -0.1999 -0.0019
 1118DOPS   C3B13118   5.375  32.447  11.634  0.1140 -0.3984 -0.3456
 1118DOPS   C4B13119   5.105  32.088  11.525 -0.1070 -0.1695  0.0167
 1119DOPC   NC313120   6.578  31.559  10.985  0.0677 -0.0027  0.1754
 1119DOPC   PO413121   6.189  31.670  10.895 -0.0928  0.0692 -0.1387
 1119DOPC   GL113122   6.216  31.779  11.210 -0.0139 -0.1367  0.1961
 1119DOPC   GL213123   6.183  31.662  11.445  0.2180  0.1585 -0.1231
 1119DOPC   C1A13124   6.061  32.155  11.419 -0.0227  0.0994 -0.1164
 1119DOPC   D2A13125   5.975  32.392  11.777 -0.0781 -0.2035 -0.2440
 1119DOPC   C3A13126   6.275  32.385  12.147 -0.0116 -0.2861 -0.1096
 1119DOPC   C4A13127   6.250  32.499  12.606 -0.3150  0.2222 -0.0624
 1119DOPC   C1B13128   6.271  31.913  11.815  0.2620  0.0976  0.0918
 1119DOPC   D2B13129   6.579  32.017  12.104 -0.1814 -0.1380  0.0781
 1119DOPC   C3B13130   6.963  31.913  12.419 -0.1724 -0.2246  0.1294
 1119DOPC   C4B13131   7.214  31.642  12.727  0.0535  0.0119  0.1491
 1120DOPS   CNO13132   2.220  27.781  12.659 -0.2657 -0.2943 -0.0667
 1120DOPS   PO413133   2.277  27.541  12.957 -0.1014  0.1942  0.2980
 1120DOPS   GL113134   2.501  27.326  13.180  0.2022 -0.4193 -0.2138
 1120DOPS   GL213135   2.800  27.384  13.079  0.0642  0.0869  0.1816
 1120DOPS   C1A13136   2.716  27.299  13.572  0.1893  0.0903 -0.0704
 1120DOPS   D2A13137   2.613  27.417  14.036 -0.0386 -0.0311  0.0383
 1120DOPS   C3A13138   2.208  27.252  14.182 -0.1901 -0.0281 -0.0837
 1120DOPS   C4A13139   1.810  27.463  14.140 -0.1678 -0.0075  0.0590
 1120DOPS   C1B13140   3.193  27.261  13.241  0.0131 -0.1917  0.2169
 1120DOPS   D2B13141   3.516  26.981  13.367 -0.1557 -0.2478  0.1384
 1120DOPS   C3B13142   3.476  26.580  13.309  0.0600  0.0020  0.1286
 1120DOPS   C4B13143   3.524  26.175  13.459 -0.0969 -0.4014 -0.0740
 1121DOPS   CNO13144   3.345  29.321  12.260  0.3417 -0.0690  0.0006
 1121DOPS   PO413145   3.614  29.555  12.337  0.0948 -0.3990 -0.0033
 1121DOPS   GL113146   3.692  29.790  12.653 -0.0152  0.1399 -0.2294
 1121DOPS   GL213147   3.547  30.057  12.581  0.0493 -0.1016  0.0313
 1121DOPS   C1A13148   3.629  29.735  13.121  0.0568  0.1686  0.0272
 1121DOPS   D2A13149   3.896  29.677  13.499  0.2485 -0.1121  0.1771
 1121DOPS   C3A13150   3.967  29.269  13.581 -0.1737  0.0641 -0.0301
 1121DOPS   C4A13151   4.344  28.926  13.571  0.2612 -0.1220 -0.2704
 1121DOPS   C1B13152   3.384  30.246  13.018  0.2199  0.3238  0.1832
 1121DOPS   D2B13153   3.272  30.553  13.357  0.0690  0.0593 -0.1357
 1121DOPS   C3B13154   3.457  30.399  13.763  0.1211 -0.2170  0.1994
 1121DOPS   C4B13155   3.833  30.358  14.033 -0.5086  0.0621  0.3612
 1122DOPC   NC313156   1.105  32.661  12.436 -0.1410  0.1881  0.2610
 1122DOPC   PO413157   1.273  32.742  12.049 -0.0014 -0.3290 -0.3084
 1122DOPC   GL113158   1.568  32.659  12.334 -0.0919 -0.4483  0.0887
 1122DOPC   GL213159   1.582  32.861  12.523  0.1666 -0.0332  0.4349
 1122DOPC   C1A13160   1.625  32.304  12.670  0.2433  0.0173 -0.0854
 1122DOPC   D2A13161   1.622  31.961  13.000  0.3428  0.2593 -0.2475
 1122DOPC   C3A13162   1.577  31.475  12.973 -0.0545 -0.1159  0.1346
 1122DOPC   C4A13163   1.461  31.154  13.282  0.1185 -0.0213  0.0681
 1122DOPC   C1B13164   1.804  32.716  12.903 -0.2680 -0.0758  0.1156
 1122DOPC   D2B13165   2.217  32.442  12.980 -0.1507 -0.0795 -0.1022
 1122DOPC   C3B13166   2.241  31.969  13.163  0.4328  0.1588 -0.0180
 1122DOPC   C4B13167   2.411  31.570  13.426  0.1650 -0.1345 -0.1635
 1123DOPE   NH313168  10.751  23.698  11.603 -0.1045  0.1704  0.0594
 1123DOPE   PO413169  10.442  23.613  11.511  0.0794 -0.1327  0.2118
 1123DOPE   GL113170  10.307  23.591  11.845 -0.0790 -0.1566 -0.1468
 1123DOPE   GL213171  10.132  23.812  11.902  0.1632  0.2033  0.0529
 1123DOPE   C1A13172  10.101  23.262  12.022  0.3305 -0.3598  0.0271
 1123DOPE   D2A13173  10.019  23.014  12.397 -0.0260  0.1844 -0.1407
 1123DOPE   C3A13174   9.971  23.116  12.868  0.3656 -0.0018 -0.1024
 1123DOPE   C4A13175   9.846  22.972  13.266 -0.1548  0.2498  0.0459
 1123DOPE   C1B13176   9.891  23.632  12.265  0.0147  0.3712  0.1704
 1123DOPE   D2B13177   9.552  23.444  12.492  0.1213 -0.0239  0.0753
 1123DOPE   C3B13178   9.549  23.290  12.962  0.3025  0.0513  0.0234
 1123DOPE   C4B13179   9.401  23.432  13.403 -0.1406  0.0569  0.0785
 1124DOPE   NH313180  33.798  34.668  13.321 -0.2283 -0.0569  0.1552
 1124DOPE   PO413181  34.100  34.642  13.377 -0.1703  0.3174 -0.0769
 1124DOPE   GL113182  34.314  34.773  13.676  0.3111 -0.2507  0.0865
 1124DOPE   GL213183  34.634  34.829  13.583  0.1246  0.0716  0.0027
 1124DOPE   C1A13184  34.623  34.777  14.059  0.1842 -0.2611 -0.0269
 1124DOPE   D2A13185  35.029  34.797  14.228 -0.0439 -0.2125  0.2877
 1124DOPE   C3A13186  35.054  34.812  14.650  0.2734 -0.0178  0.2637
 1124DOPE   C4A13187  35.109  35.076  14.990  0.1887  0.0630  0.1904
 1124DOPE   C1B13188  35.048  34.918  13.722  0.2810 -0.0974 -0.0554
 1124DOPE   D2B13189  35.421  34.576  13.799 -0.0423 -0.0046 -0.2090
 1124DOPE   C3B13190  35.356  34.420  14.276  0.3315  0.0971  0.2252
 1124DOPE   C4B13191  35.220  34.074  14.548 -0.2097  0.1130  0.0268
 1125POSM   NC313192   5.876  25.789  12.346 -0.0401 -0.0399  0.2343
 1125POSM   PO413193   5.922  26.066  12.648 -0.1857 -0.1213 -0.1656
 1125POSM   AM113194   6.006  25.996  13.003 -0.0695 -0.0558 -0.0493
 1125POSM   AM213195   6.229  25.975  13.140  0.1590 -0.2662 -0.3258
 1125POSM   T1A13196   5.721  25.840  13.368 -0.2364  0.1111 -0.0355
 1125POSM   C2A13197   5.431  25.644  13.715 -0.2452  0.2885 -0.3525
 1125POSM   C3A13198   5.374  25.370  14.101 -0.0735 -0.1426  0.2495
 1125POSM   C1B13199   6.159  25.657  13.167 -0.4470  0.1689  0.1777
 1125POSM   D2B13200   5.885  25.394  13.388 -0.2381  0.2579 -0.0626
 1125POSM   C3B13201   5.492  25.318  13.313  0.1522 -0.0530 -0.1382
 1125POSM   C4B13202   5.080  25.321  13.495  0.0616  0.1213  0.2735
 1126DOPS   CNO13203   7.698  33.285  10.762  0.2190  0.0589  0.0681
 1126DOPS   PO413204   8.049  33.178  10.773  0.0175  0.0554 -0.0421
 1126DOPS   GL113205   8.355  33.073  11.075 -0.0038 -0.0001 -0.2221
 1126DOPS   GL213206   8.192  32.775  11.071  0.1223  0.1627  0.0066
 1126DOPS   C1A13207   8.230  33.007  11.543 -0.1052  0.0029  0.2180
 1126DOPS   D2A13208   8.314  33.102  11.983  0.0119  0.0694  0.5366
 1126DOPS   C3A13209   8.555  33.007  12.364  0.0614 -0.0064  0.1125
 1126DOPS   C4A13210   8.481  32.806  12.797 -0.3479 -0.0914 -0.2410
 1126DOPS   C1B13211   7.957  32.603  11.430  0.1933  0.0797 -0.1249
 1126DOPS   D2B13212   7.877  32.680  11.862  0.1099 -0.0276  0.2332
 1126DOPS   C3B13213   8.008  32.338  12.147 -0.0613 -0.0210  0.0559
 1126DOPS   C4B13214   8.183  31.925  12.215  0.0932  0.0874  0.2692
 1127DOPC   NC313215   7.125  23.458  12.542  0.1138 -0.1422 -0.0458
 1127DOPC   PO413216   7.459  23.507  12.770 -0.2377 -0.0606 -0.0379
 1127DOPC   GL113217   7.220  23.837  12.851  0.1616  0.0526 -0.0770
 1127DOPC   GL213218   7.227  23.831  13.082 -0.1935 -0.1037  0.4401
 1127DOPC   C1A13219   6.956  24.231  12.814  0.0578 -0.0100 -0.0085
 1127DOPC   D2A13220   6.903  24.687  12.884 -0.1362  0.2867  0.0951
 1127DOPC   C3A13221   6.942  24.988  13.309  0.1046 -0.0423 -0.0144
 1127DOPC   C4A13222   6.982  25.352  13.541  0.1223 -0.0538 -0.1426
 1127DOPC   C1B13223   7.256  24.220  13.210  0.1312 -0.3292  0.0001
 1127DOPC   D2B13224   7.181  24.563  13.477  0.0086 -0.0139 -0.1599
 1127DOPC   C3B13225   6.877  24.414  13.793  0.0136  0.3072 -0.0130
 1127DOPC   C4B13226   6.743  24.314  14.265 -0.1516  0.1915 -0.1249
 1128DOPE   NH313227   0.731  25.794  13.316  0.0558 -0.2452  0.2144
 1128DOPE   PO413228   0.434  25.697  13.461 -0.1780 -0.2494 -0.1373
 1128DOPE   GL113229   0.580  25.683  13.804 -0.0186  0.1793 -0.2851
 1128DOPE   GL213230   0.810  25.492  13.656  0.1589 -0.1481 -0.0199
 1128DOPE   C1A13231   0.506  25.321  14.100  0.1535 -0.0892  0.1224
 1128DOPE   D2A13232   0.342  24.995  14.408  0.2294  0.0646  0.1474
 1128DOPE   C3A13233   0.288  24.567  14.693 -0.1995  0.0065  0.3224
 1128DOPE   C4A13234   0.406  24.257  15.020 -0.5108  0.0334 -0.0533
 1128DOPE   C1B13235   1.004  25.266  14.039 -0.1265  0.0589 -0.4124
 1128DOPE   D2B13236   1.189  25.120  14.453 -0.0641  0.2992  0.2044
 1128DOPE   C3B13237   0.977  25.219  14.842  0.0101 -0.0651 -0.1943
 1128DOPE   C4B13238   0.560  25.039  14.877 -0.0736  0.4056  0.1312
 1129DOPS   CNO13239   6.157  26.241  11.791 -0.3889  0.0193  0.0209
 1129DOPS   PO413240   6.292  26.178  12.174  0.0047  0.1676  0.3005
 1129DOPS   GL113241   6.328  25.802  12.412  0.2038 -0.1986  0.3117
 1129DOPS   GL213242   6.296  25.742  12.695 -0.1616  0.2773  0.2093
 1129DOPS   C1A13243   6.202  25.348  12.373  0.0167  0.3175  0.2642
 1129DOPS   D2A13244   5.827  25.164  12.323 -0.1412 -0.2266 -0.2105
 1129DOPS   C3A13245   5.495  24.854  12.405 -0.0671  0.1424 -0.1271
 1129DOPS   C4A13246   5.170  24.672  12.173 -0.0615  0.0165 -0.1800
 1129DOPS   C1B13247   6.673  25.509  12.598 -0.5012  0.1369  0.0082
 1129DOPS   D2B13248   6.967  25.181  12.845 -0.1724  0.1527  0.0923
 1129DOPS   C3B13249   7.161  25.514  13.103  0.1764  0.2609  0.0906
 1129DOPS   C4B13250   7.147  25.949  13.253 -0.0241 -0.0078 -0.0991
 1130DOPS   CNO13251   9.001  30.636  10.794 -0.0650  0.0995  0.1976
 1130DOPS   PO413252   8.633  30.595  10.901  0.1754 -0.3469  0.0256
 1130DOPS   GL113253   8.804  30.672  11.280 -0.0795 -0.2438  0.0181
 1130DOPS   GL213254   8.579  30.578  11.409  0.1499  0.2187  0.2350
 1130DOPS   C1A13255   9.042  30.939  11.618  0.1664  0.2319 -0.1528
 1130DOPS   D2A13256   9.111  31.147  12.032  0.2598 -0.2411  0.2617
 1130DOPS   C3A13257   8.945  31.513  12.261 -0.1339 -0.1065  0.2698
 1130DOPS   C4A13258   8.647  31.805  12.446 -0.2318 -0.0424 -0.2149
 1130DOPS   C1B13259   8.648  30.804  11.814  0.1953 -0.0680 -0.0079
 1130DOPS   D2B13260   8.695  31.204  11.760 -0.0933 -0.2413 -0.1859
 1130DOPS   C3B13261   8.531  31.512  12.018 -0.0105  0.1468 -0.0928
 1130DOPS   C4B13262   8.448  31.928  11.775  0.2035  0.1750  0.0072
 1131DOPE   NH313263   0.309  34.257  12.784  0.0713 -0.1739 -0.0650
 1131DOPE   PO413264   0.202  34.052  13.041  0.0224  0.3708 -0.1436
 1131DOPE   GL113265   0.196  33.764  13.340  0.0281 -0.3159  0.2047
 1131DOPE   GL213266  -0.097  33.749  13.415  0.4808  0.0796 -0.3249
 1131DOPE   C1A13267   0.209  33.656  13.801  0.2575  0.1793  0.0019
 1131DOPE   D2A13268  -0.073  33.406  14.043  0.0535  0.0698 -0.0015
 1131DOPE   C3A13269  -0.371  33.615  14.312  0.0776  0.1309 -0.1063
 1131DOPE   C4A13270  -0.467  34.026  14.557  0.0323 -0.1116 -0.0015
 1131DOPE   C1B13271  -0.298  33.392  13.585 -0.0455 -0.1342 -0.2723
 1131DOPE   D2B13272  -0.416  32.932  13.509 -0.1722  0.0110 -0.2643
 1131DOPE   C3B13273  -0.735  32.701  13.703 -0.1815  0.1355  0.0057
 1131DOPE   C4B13274  -1.204  32.510  13.745  0.0945  0.0148 -0.0223
 1132DOPE   NH313275   3.839  29.204  12.604  0.0190 -0.2041  0.1311
 1132DOPE   PO413276   3.689  28.971  12.442  0.5501  0.3677  0.0443
 1132DOPE   GL113277   3.946  28.750  12.564 -0.3021  0.0581  0.2548
 1132DOPE   GL213278   3.939  28.500  12.731 -0.0337 -0.0946 -0.2757
 1132DOPE   C1A13279   4.343  28.906  12.744 -0.3566 -0.2668 -0.0922
 1132DOPE   D2A13280   4.696  28.727  12.981 -0.2666 -0.1587 -0.3268
 1132DOPE   C3A13281   5.112  28.668  12.857 -0.0744 -0.0685  0.1623
 1132DOPE   C4A13282   5.501  28.876  12.899 -0.1180  0.0061 -0.0825
 1132DOPE   C1B13283   4.344  28.354  12.765 -0.0967  0.5083  0.1886
 1132DOPE   D2B13284   4.688  28.198  12.967  0.0057 -0.2889  0.1360
 1132DOPE   C3B13285   4.956  28.317  13.320  0.0159  0.0227 -0.2494
 1132DOPE   C4B13286   4.994  28.691  13.572  0.1828 -0.1648 -0.1795
 1133POSM   NC313287  11.585  23.877  11.394  0.1054  0.0820  0.2166
 1133POSM   PO413288  11.277  23.958  11.628  0.3043 -0.1484  0.1416
 1133POSM   AM113289  11.050  23.900  11.891  0.3116  0.1658  0.2135
 1133POSM   AM213290  10.896  23.729  12.071  0.2427  0.0340 -0.1381
 1133POSM   T1A13291  11.116  24.051  12.364 -0.2563 -0.0397 -0.0581
 1133POSM   C2A13292  11.088  23.896  12.760  0.0346 -0.3507 -0.3051
 1133POSM   C3A13293  10.728  23.669  12.881 -0.1643 -0.1556  0.1496
 1133POSM   C1B13294  10.641  23.736  12.315  0.1706 -0.0433 -0.0594
 1133POSM   D2B13295  10.293  23.491  12.512 -0.1329 -0.0588  0.1091
 1133POSM   C3B13296  10.052  23.787  12.785  0.0572 -0.2124  0.1814
 1133POSM   C4B13297   9.788  23.762  13.151 -0.0088  0.0956 -0.0431
 1134DOPC   NC313298   7.319  26.691  11.889  0.0073 -0.0116  0.1683
 1134DOPC   PO413299   7.258  27.019  12.084  0.2946  0.4300 -0.1372
 1134DOPC   GL113300   7.460  27.189  12.412 -0.1342 -0.2335 -0.0381
 1134DOPC   GL213301   7.265  27.078  12.572 -0.0467 -0.3649  0.0994
 1134DOPC   C1A13302   7.667  27.190  12.879  0.1006 -0.0405 -0.2111
 1134DOPC   D2A13303   7.902  27.196  13.292 -0.1947 -0.1697  0.0869
 1134DOPC   C3A13304   7.699  27.183  13.691 -0.3151  0.3905  0.1320
 1134DOPC   C4A13305   7.762  27.223  14.145  0.0503 -0.2334 -0.1775
 1134DOPC   C1B13306   7.223  26.900  12.992 -0.2426  0.2658 -0.2044
 1134DOPC   D2B13307   7.568  26.840  13.287  0.3633  0.4399 -0.3372
 1134DOPC   C3B13308   7.588  26.675  13.745  0.0254 -0.0096 -0.1289
 1134DOPC   C4B13309   8.017  26.791  13.906 -0.2153  0.2020 -0.0571
 1135DOPC   NC313310   3.075  28.429  12.059  0.0104 -0.0822 -0.0957
 1135DOPC   PO413311   3.101  28.287  12.448 -0.1279  0.2538 -0.3952
 1135DOPC   GL113312   3.285  28.188  12.803  0.1460 -0.1238 -0.0881
 1135DOPC   GL213313   3.549  28.088  12.709 -0.2255  0.0951 -0.0670
 1135DOPC   C1A13314   3.559  28.356  13.165 -0.1873  0.4179  0.1147
 1135DOPC   D2A13315   3.524  28.274  13.640  0.0107 -0.1361  0.4706
 1135DOPC   C3A13316   3.467  27.836  13.728  0.0284 -0.1047 -0.1827
 1135DOPC   C4A13317   3.621  27.458  13.529  0.0350  0.2701 -0.1826
 1135DOPC   C1B13318   3.944  28.036  12.946 -0.1065  0.1211  0.4027
 1135DOPC   D2B13319   4.304  28.027  13.192  0.3233 -0.0630  0.1238
 1135DOPC   C3B13320   4.478  28.000  13.577  0.3067  0.2771 -0.0154
 1135DOPC   C4B13321   4.786  27.740  13.929 -0.2841  0.0777  0.0748
 1136DOPE   NH313322   7.987  33.668  10.613  0.2782  0.1354  0.2440
 1136DOPE   PO413323   8.251  33.863  10.634 -0.0034 -0.0875 -0.0406
 1136DOPE   GL113324   8.214  33.828  11.047 -0.4014  0.0872  0.0735
 1136DOPE   GL213325   8.054  33.601  11.125 -0.3116  0.1845  0.1718
 1136DOPE   C1A13326   8.091  33.963  11.470 -0.1424  0.0998 -0.1102
 1136DOPE   D2A13327   8.216  34.184  11.885 -0.0879  0.0849 -0.4171
 1136DOPE   C3A13328   8.277  33.923  12.229 -0.3466  0.1748 -0.2914
 1136DOPE   C4A13329   8.282  33.464  12.302  0.0675  0.1828 -0.0767
 1136DOPE   C1B13330   8.423  33.551  11.368  0.0319  0.1931 -0.2607
 1136DOPE   D2B13331   8.862  33.450  11.432  0.0335  0.2244  0.1377
 1136DOPE   C3B13332   9.122  33.057  11.454 -0.3595  0.0756  0.0519
 1136DOPE   C4B13333   9.563  32.985  11.382 -0.0372 -0.0629  0.0515
 1137POSM   NC313334  10.510  33.457  11.012 -0.0158  0.4787 -0.2845
 1137POSM   PO413335  10.259  33.771  10.922  0.0995  0.2351  0.2245
 1137POSM   AM113336  10.050  33.805  11.193  0.5148 -0.1756  0.3792
 1137POSM   AM213337   9.927  33.990  11.308  0.1337  0.0602 -0.2682
 1137POSM   T1A13338  10.091  33.659  11.655  0.0721  0.0445 -0.0059
 1137POSM   C2A13339  10.419  33.523  11.904  0.2979 -0.0804 -0.1415
 1137POSM   C3A13340  10.840  33.367  11.972  0.3482  0.1653 -0.1520
 1137POSM   C1B13341  10.136  34.169  11.533 -0.0333 -0.0667 -0.2104
 1137POSM   D2B13342  10.253  34.492  11.843 -0.1472 -0.0905  0.1101
 1137POSM   C3B13343  10.030  34.597  12.273  0.1359 -0.2237  0.1442
 1137POSM   C4B13344  10.288  34.700  12.640 -0.0305 -0.1243  0.1921
 1138DOPE   NH313345   6.365  28.588  11.737  0.4753 -0.0352 -0.1907
 1138DOPE   PO413346   6.051  28.490  11.719  0.1510 -0.0453 -0.0721
 1138DOPE   GL113347   5.899  28.525  12.036  0.3579 -0.3890 -0.0900
 1138DOPE   GL213348   5.925  28.752  12.169 -0.0803  0.0769 -0.0110
 1138DOPE   C1A13349   5.523  28.598  12.262  0.0526 -0.1068 -0.2865
 1138DOPE   D2A13350   5.130  28.692  12.331 -0.1002  0.1226  0.0082
 1138DOPE   C3A13351   4.993  29.059  12.555  0.1034 -0.3905  0.1538
 1138DOPE   C4A13352   4.738  29.285  12.805  0.1087  0.0444  0.1907
 1138DOPE   C1B13353   5.899  28.832  12.616  0.1543 -0.2060  0.0916
 1138DOPE   D2B13354   6.111  29.154  12.896  0.0726  0.0279 -0.3318
 1138DOPE   C3B13355   5.760  29.185  13.160 -0.0986 -0.1254 -0.0118
 1138DOPE   C4B13356   5.321  29.121  13.294  0.3028 -0.1893 -0.1348
 1139DOPC   NC313357   8.035  27.976  11.476  0.0113  0.5064  0.1513
 1139DOPC   PO413358   7.751  28.041  11.751 -0.0873 -0.0943 -0.0609
 1139DOPC   GL113359   7.941  28.337  11.937 -0.1675 -0.0034 -0.4135
 1139DOPC   GL213360   7.675  28.509  11.935  0.0190 -0.0169  0.1939
 1139DOPC   C1A13361   8.358  28.463  12.140  0.0145 -0.1847 -0.2281
 1139DOPC   D2A13362   8.709  28.335  12.352  0.1741  0.3686 -0.1843
 1139DOPC   C3A13363   9.143  28.458  12.398 -0.3870  0.1031 -0.1287
 1139DOPC   C4A13364   9.479  28.752  12.586  0.0053 -0.5108 -0.0844
 1139DOPC   C1B13365   7.496  28.475  12.356  0.1784  0.0360 -0.0451
 1139DOPC   D2B13366   7.224  28.470  12.747 -0.2751  0.1954 -0.3080
 1139DOPC   C3B13367   7.027  28.890  12.812  0.1534 -0.3358 -0.1566
 1139DOPC   C4B13368   6.895  29.265  13.024  0.0778 -0.0601 -0.4861
 1140DOPS   CNO13369   2.138  23.368  12.633  0.2333 -0.0736 -0.2135
 1140DOPS   PO413370   2.526  23.420  12.650  0.0893 -0.0100  0.0662
 1140DOPS   GL113371   2.477  23.742  12.848 -0.0658 -0.0283  0.1245
 1140DOPS   GL213372   2.347  23.773  13.188 -0.1270 -0.1852 -0.1468
 1140DOPS   C1A13373   2.248  24.072  12.551 -0.0570  0.0891  0.0774
 1140DOPS   D2A13374   2.124  24.509  12.346 -0.1945 -0.1892 -0.0406
 1140DOPS   C3A13375   2.439  24.775  12.089 -0.0632 -0.0888 -0.2685
 1140DOPS   C4A13376   2.608  25.190  12.046  0.1062  0.0194 -0.2040
 1140DOPS   C1B13377   2.207  24.149  13.443 -0.3989 -0.2811 -0.0864
 1140DOPS   D2B13378   1.941  24.149  13.823  0.2109  0.2129  0.0745
 1140DOPS   C3B13379   2.021  24.115  14.279  0.1548 -0.1731  0.2182
 1140DOPS   C4B13380   1.881  24.140  14.723  0.1444 -0.5111 -0.0345
 1141DOPE   NH313381   3.740  31.603  11.167  0.2061  0.0156  0.0098
 1141DOPE   PO413382   3.628  31.883  11.338  0.0487  0.3459 -0.1532
 1141DOPE   GL113383   3.556  32.040  11.640  0.1884 -0.2769  0.0218
 1141DOPE   GL213384   3.446  32.308  11.675 -0.2274 -0.1368  0.0893
 1141DOPE   C1A13385   3.667  32.040  12.129  0.3375 -0.1298  0.2232
 1141DOPE   D2A13386   3.503  32.058  12.551 -0.0454  0.2274 -0.3232
 1141DOPE   C3A13387   3.121  32.154  12.805 -0.1477 -0.1992  0.1786
 1141DOPE   C4A13388   3.060  32.553  12.937  0.0521 -0.2125 -0.1518
 1141DOPE   C1B13389   3.515  32.524  12.072 -0.4017  0.0155  0.0145
 1141DOPE   D2B13390   3.657  32.607  12.531 -0.2144  0.0174  0.0258
 1141DOPE   C3B13391   3.546  32.604  13.018 -0.3033 -0.1018 -0.0425
 1141DOPE   C4B13392   3.380  32.964  13.257  0.2559  0.2144  0.4004
 1142DOPE   NH313393   2.657  27.818  12.821 -0.0089 -0.0846 -0.1736
 1142DOPE   PO413394   2.754  27.915  12.556  0.3207 -0.1828  0.0415
 1142DOPE   GL113395   3.061  27.819  12.994  0.1809 -0.2170 -0.0287
 1142DOPE   GL213396   3.007  27.869  13.226 -0.1197 -0.0139 -0.0128
 1142DOPE   C1A13397   3.472  27.857  13.175  0.0812  0.0508  0.0943
 1142DOPE   D2A13398   3.860  27.926  13.446  0.0097 -0.2301  0.0372
 1142DOPE   C3A13399   4.038  27.714  13.825  0.1967  0.3569 -0.1185
 1142DOPE   C4A13400   4.119  27.274  13.877 -0.1865 -0.0076  0.2641
 1142DOPE   C1B13401   3.016  27.623  13.615 -0.0151  0.2402 -0.1091
 1142DOPE   D2B13402   3.245  27.232  13.729 -0.1600 -0.0061 -0.0419
 1142DOPE   C3B13403   3.076  26.887  13.554  0.0560 -0.5175 -0.1404
 1142DOPE   C4B13404   2.671  26.890  13.309 -0.2401 -0.0006 -0.1280
 1143DOPS   CNO13405  10.780  34.599  11.001 -0.2150  0.0381 -0.0169
 1143DOPS   PO413406  11.058  34.358  10.900 -0.0798  0.3544 -0.0412
 1143DOPS   GL113407  11.283  34.515  11.144  0.1019 -0.1308  0.2274
 1143DOPS   GL213408  11.171  34.705  11.292  0.0700  0.1742 -0.4867
 1143DOPS   C1A13409  11.513  34.321  11.484 -0.1392 -0.0999 -0.0940
 1143DOPS   D2A13410  11.331  34.213  11.938  0.1964 -0.1334  0.0181
 1143DOPS   C3A13411  10.945  34.022  12.101 -0.1070  0.0837  0.0809
 1143DOPS   C4A13412  10.600  33.784  12.261  0.0672 -0.1017 -0.0791
 1143DOPS   C1B13413  11.086  34.553  11.706 -0.1575 -0.1157  0.2449
 1143DOPS   D2B13414  10.731  34.644  11.953 -0.0924 -0.1195 -0.5998
 1143DOPS   C3B13415  10.535  34.364  12.235  0.3915 -0.0418 -0.0582
 1143DOPS   C4B13416  10.258  34.173  12.496  0.2224 -0.0824 -0.0003
 1144DOPE   NH313417  10.961  25.859  11.942  0.1527  0.1367  0.3379
 1144DOPE   PO413418  11.153  25.570  11.869  0.2331 -0.1444 -0.0133
 1144DOPE   GL113419  10.963  25.396  12.141  0.0598 -0.1406 -0.3464
 1144DOPE   GL213420  10.739  25.242  12.100 -0.0806 -0.1775  0.3611
 1144DOPE   C1A13421  10.662  25.627  12.385  0.0802 -0.3157 -0.6551
 1144DOPE   D2A13422  10.531  25.625  12.807  0.2206  0.2539 -0.0004
 1144DOPE   C3A13423  10.113  25.723  12.885  0.2598  0.3832  0.0261
 1144DOPE   C4A13424   9.759  25.469  12.714  0.1199 -0.1544 -0.2530
 1144DOPE   C1B13425  11.074  25.040  12.421  0.2857 -0.2352 -0.0680
 1144DOPE   D2B13426  11.393  24.790  12.685 -0.2926 -0.2133 -0.3766
 1144DOPE   C3B13427  11.775  24.717  12.615  0.2553  0.0533 -0.1947
 1144DOPE   C4B13428  12.089  24.542  12.821 -0.0609  0.2388 -0.1847
 1145DOPS   CNO13429   4.898  23.921  12.996 -0.1513 -0.4736 -0.4353
 1145DOPS   PO413430   5.088  24.239  12.837  0.1664  0.2604 -0.0098
 1145DOPS   GL113431   4.887  24.440  13.207  0.0137 -0.0697 -0.0239
 1145DOPS   GL213432   5.033  24.254  13.385  0.1201 -0.0509 -0.1934
 1145DOPS   C1A13433   5.030  24.702  13.547 -0.1786  0.1411  0.3561
 1145DOPS   D2A13434   4.913  24.886  13.882  0.1739 -0.1775 -0.0702
 1145DOPS   C3A13435   4.777  24.624  14.238  0.1575  0.2255 -0.0144
 1145DOPS   C4A13436   4.981  24.456  14.663 -0.1297  0.0103  0.0434
 1145DOPS   C1B13437   5.131  23.858  13.587 -0.0187  0.0576 -0.1240
 1145DOPS   D2B13438   5.274  23.500  13.727 -0.1083 -0.0529 -0.2092
 1145DOPS   C3B13439   5.584  23.444  14.009 -0.0128  0.0233  0.2322
 1145DOPS   C4B13440   5.957  23.520  14.303 -0.0717 -0.2688 -0.1259
 1146DOPS   CNO13441  10.858  24.235  11.607  0.0877 -0.1729 -0.1064
 1146DOPS   PO413442  10.574  24.124  11.878 -0.1375 -0.0783  0.1567
 1146DOPS   GL113443  10.535  24.169  12.274  0.0687  0.1211 -0.2417
 1146DOPS   GL213444  10.276  24.241  12.423 -0.0567 -0.1314  0.2629
 1146DOPS   C1A13445  10.672  24.172  12.725  0.3527  0.0841 -0.1560
 1146DOPS   D2A13446  10.717  24.055  13.197  0.2357  0.2502  0.0543
 1146DOPS   C3A13447  10.927  23.635  13.375  0.2292 -0.3891 -0.1044
 1146DOPS   C4A13448  10.737  23.231  13.369 -0.0107  0.2761 -0.2167
 1146DOPS   C1B13449  10.163  24.237  12.962  0.2816  0.5153  0.1774
 1146DOPS   D2B13450  10.028  24.363  13.421 -0.0219  0.1102  0.4136
 1146DOPS   C3B13451   9.830  24.061  13.684 -0.0047  0.2612  0.2525
 1146DOPS   C4B13452   9.859  23.939  14.092 -0.1050  0.2433 -0.1903
 1147DOPC   NC313453   4.148  23.522  12.914  0.2523  0.3153 -0.0250
 1147DOPC   PO413454   4.262  23.892  13.047 -0.2169  0.2447 -0.0207
 1147DOPC   GL113455   4.326  24.172  13.271 -0.0561 -0.4217 -0.0922
 1147DOPC   GL213456   4.555  24.109  13.393  0.1926  0.0971 -0.2730
 1147DOPC   C1A13457   4.210  24.256  13.730 -0.2094 -0.1169 -0.1494
 1147DOPC   D2A13458   4.205  24.130  14.187  0.2683  0.0354  0.1337
 1147DOPC   C3A13459   3.851  24.097  14.416  0.1030  0.0065 -0.0720
 1147DOPC   C4A13460   3.409  24.027  14.235  0.3752  0.0150  0.0631
 1147DOPC   C1B13461   4.540  24.555  13.481 -0.2347  0.2431  0.0555
 1147DOPC   D2B13462   4.376  24.821  13.805 -0.1060  0.2495  0.2263
 1147DOPC   C3B13463   4.278  24.649  14.248 -0.2140  0.1053  0.1999
 1147DOPC   C4B13464   3.993  24.523  14.578 -0.0364  0.0887 -0.0804
 1148DOPC   NC313465  10.300  29.019  11.348  0.0374 -0.0406 -0.2290
 1148DOPC   PO413466  10.066  29.267  11.508  0.1651  0.0753  0.0967
 1148DOPC   GL113467  10.158  29.164  11.911  0.0504 -0.0414  0.3213
 1148DOPC   GL213468  10.116  29.452  11.973 -0.0583 -0.1214  0.2501
 1148DOPC   C1A13469  10.072  28.952  12.312 -0.3102  0.2305 -0.1889
 1148DOPC   D2A13470   9.942  28.578  12.575 -0.1044  0.2521 -0.0979
 1148DOPC   C3A13471   9.725  28.599  13.024  0.0469 -0.0908 -0.0580
 1148DOPC   C4A13472   9.551  28.200  13.282  0.1041 -0.0538 -0.1433
 1148DOPC   C1B13473   9.971  29.866  12.146 -0.0646 -0.2865 -0.1432
 1148DOPC   D2B13474   9.813  30.194  12.509  0.4042 -0.1051  0.2650
 1148DOPC   C3B13475   9.880  30.234  13.028  0.1670  0.0657 -0.0918
 1148DOPC   C4B13476   9.854  30.615  13.342 -0.2270 -0.1491 -0.2889
 1149DOPE   NH313477   6.276  27.132  13.169  0.1604 -0.3079 -0.0396
 1149DOPE   PO413478   6.274  26.926  12.929 -0.0328 -0.1499 -0.1089
 1149DOPE   GL113479   6.053  26.696  13.249 -0.1645 -0.0922  0.3858
 1149DOPE   GL213480   5.804  26.907  13.289  0.1460  0.0703  0.0596
 1149DOPE   C1A13481   6.131  26.406  13.575 -0.2196 -0.1671 -0.1466
 1149DOPE   D2A13482   6.304  26.036  13.832  0.1565 -0.1160 -0.0877
 1149DOPE   C3A13483   6.138  25.610  13.790 -0.4137 -0.1726 -0.1551
 1149DOPE   C4A13484   5.854  25.254  13.898  0.0701 -0.0099 -0.1651
 1149DOPE   C1B13485   5.651  27.298  13.541  0.0285 -0.1608 -0.0425
 1149DOPE   D2B13486   5.684  27.584  13.888  0.2746 -0.1909 -0.0420
 1149DOPE   C3B13487   5.738  28.072  13.844 -0.0573 -0.0954 -0.2278
 1149DOPE   C4B13488   5.703  28.442  14.087  0.1338 -0.3024 -0.0687
 1150DOPC   NC313489   8.773  33.949  11.063 -0.0296  0.0212  0.1569
 1150DOPC   PO413490   9.080  34.106  11.270 -0.0063 -0.2203 -0.2461
 1150DOPC   GL113491   9.201  33.841  11.636  0.0301  0.2711  0.1819
 1150DOPC   GL213492   9.302  34.138  11.762  0.1617 -0.1127 -0.0957
 1150DOPC   C1A13493   9.064  33.712  12.087  0.2798  0.2556  0.3209
 1150DOPC   D2A13494   8.908  33.386  12.354  0.2839  0.0637 -0.0081
 1150DOPC   C3A13495   9.072  33.001  12.328 -0.2856  0.2819 -0.0947
 1150DOPC   C4A13496   9.097  32.561  12.128 -0.0169 -0.3453  0.0777
 1150DOPC   C1B13497   9.663  33.808  11.924 -0.1026  0.1165 -0.0438
 1150DOPC   D2B13498   9.672  33.366  12.136  0.2859  0.1613  0.2131
 1150DOPC   C3B13499  10.104  33.186  12.183  0.1665 -0.1200 -0.1816
 1150DOPC   C4B13500  10.473  33.266  12.427 -0.1440 -0.0444  0.0378
 1151POSM   NC313501   5.080  25.927  12.639 -0.2407 -0.1373  0.0841
 1151POSM   PO413502   5.420  25.974  12.449 -0.2541  0.1700 -0.0681
 1151POSM   AM113503   5.499  25.797  12.713 -0.2177  0.1848 -0.1415
 1151POSM   AM213504   5.711  25.665  12.820 -0.2123 -0.0103  0.0881
 1151POSM   T1A13505   5.218  25.656  13.101 -0.0284  0.1595  0.4008
 1151POSM   C2A13506   5.160  25.929  13.443  0.1939  0.0273 -0.0546
 1151POSM   C3A13507   5.410  26.139  13.738 -0.1827  0.1821  0.0579
 1151POSM   C1B13508   5.870  25.376  12.869 -0.0253 -0.0236 -0.1035
 1151POSM   D2B13509   6.300  25.196  12.899  0.1691 -0.1594  0.2181
 1151POSM   C3B13510   6.455  24.781  13.064  0.0529  0.0346  0.1908
 1151POSM   C4B13511   6.458  24.347  12.879  0.0271  0.4920 -0.1757
 1152DOPC   NC313512   1.181  32.168  12.304 -0.1121  0.0884  0.0876
 1152DOPC   PO413513   0.958  31.846  12.199  0.1163  0.0358  0.0450
 1152DOPC   GL113514   1.258  31.494  12.149  0.0025  0.0043  0.1353
 1152DOPC   GL213515   1.336  31.595  12.461 -0.2695 -0.0349 -0.0328
 1152DOPC   C1A13516   1.694  31.369  12.155 -0.2024  0.2588 -0.2467
 1152DOPC   D2A13517   2.028  31.041  12.169 -0.0356  0.1820  0.2159
 1152DOPC   C3A13518   1.774  30.689  12.298  0.1752 -0.0613  0.1381
 1152DOPC   C4A13519   1.477  30.366  12.452 -0.1531  0.0641 -0.1220
 1152DOPC   C1B13520   1.781  31.742  12.571 -0.1536 -0.1894 -0.2148
 1152DOPC   D2B13521   1.779  32.056  12.282 -0.0379 -0.1889 -0.2183
 1152DOPC   C3B13522   2.097  32.385  12.329  0.3468 -0.2532 -0.1529
 1152DOPC   C4B13523   2.229  32.747  12.524 -0.1689  0.0761  0.3978
 1153DOPC   NC313524   5.768  31.677  11.179  0.1852 -0.3644  0.0276
 1153DOPC   PO413525   5.834  31.300  11.092 -0.0350 -0.0258 -0.0212
 1153DOPC   GL113526   5.823  31.318  11.546  0.0730 -0.1501 -0.0915
 1153DOPC   GL213527   5.739  31.137  11.740 -0.0933  0.0041  0.0289
 1153DOPC   C1A13528   5.794  31.568  11.956  0.1296  0.0069 -0.2398
 1153DOPC   D2A13529   5.923  31.919  12.236  0.0955 -0.1147  0.1309
 1153DOPC   C3A13530   5.752  32.312  12.441  0.0713 -0.0105 -0.0148
 1153DOPC   C4A13531   5.693  32.772  12.570 -0.0794 -0.1983 -0.3153
 1153DOPC   C1B13532   6.152  31.263  11.994  0.2783 -0.2636  0.0396
 1153DOPC   D2B13533   6.338  31.523  12.345 -0.1296  0.0630  0.0695
 1153DOPC   C3B13534   6.272  31.381  12.741  0.2687 -0.1926  0.2026
 1153DOPC   C4B13535   5.926  31.134  12.884  0.1881  0.2866 -0.0855
 1154DOPE   NH313536   3.498  31.323  11.544  0.0831  0.0256  0.0891
 1154DOPE   PO413537   3.349  31.578  11.680 -0.0021 -0.1440  0.1588
 1154DOPE   GL113538   3.081  31.968  11.607 -0.2213 -0.0364  0.1189
 1154DOPE   GL213539   2.840  31.749  11.722  0.1867  0.1565  0.1912
 1154DOPE   C1A13540   3.005  32.212  12.022  0.0133 -0.0809  0.0669
 1154DOPE   D2A13541   3.143  32.408  12.388  0.2595 -0.1564 -0.2854
 1154DOPE   C3A13542   3.133  32.828  12.438  0.0686  0.4044 -0.0909
 1154DOPE   C4A13543   2.729  32.992  12.468 -0.0422 -0.2028  0.0823
 1154DOPE   C1B13544   2.668  32.164  11.641 -0.1750  0.0698 -0.0342
 1154DOPE   D2B13545   2.668  32.573  11.810  0.0240 -0.1628 -0.1086
 1154DOPE   C3B13546   2.617  32.541  12.268  0.2767  0.1954  0.0587
 1154DOPE   C4B13547   2.653  32.611  12.748  0.3303  0.0683  0.2460
 1155DOPE   NH313548   2.188   0.393  12.763  0.3934  0.2230  0.0841
 1155DOPE   PO413549   1.942   0.266  12.560  0.2280 -0.0172  0.3402
 1155DOPE   GL113550   1.999  -0.092  12.747  0.3173  0.0354 -0.0639
 1155DOPE   GL213551   1.989  -0.064  13.043 -0.0287  0.2437 -0.0413
 1155DOPE   C1A13552   2.200  -0.534  12.833 -0.4566 -0.0209  0.1256
 1155DOPE   D2A13553   2.243  -0.868  13.172 -0.0218  0.0072 -0.0024
 1155DOPE   C3A13554   2.559  -1.216  13.086 -0.1742  0.1798  0.2729
 1155DOPE   C4A13555   2.847  -1.601  13.135 -0.2380 -0.0519 -0.0159
 1155DOPE   C1B13556   1.747  -0.113  13.433 -0.0169 -0.3152  0.2201
 1155DOPE   D2B13557   1.668   0.160  13.800  0.0453 -0.1542 -0.4014
 1155DOPE   C3B13558   1.698   0.605  13.827  0.2212 -0.1330  0.2296
 1155DOPE   C4B13559   1.645   1.097  13.766  0.0696 -0.0348 -0.3517
 1156DOPC   NC313560  34.528  30.117  13.036  0.1947  0.0177 -0.0718
 1156DOPC   PO413561  34.177  30.288  13.075  0.3193 -0.0415 -0.0626
 1156DOPC   GL113562  34.406  30.417  13.409  0.0767  0.3293  0.5518
 1156DOPC   GL213563  34.354  30.125  13.533 -0.0675 -0.0726 -0.2283
 1156DOPC   C1A13564  34.656  30.768  13.549 -0.4680  0.0675  0.4904
 1156DOPC   D2A13565  35.087  30.788  13.792 -0.0931  0.1576  0.2431
 1156DOPC   C3A13566  35.231  30.459  14.075 -0.2209  0.4786  0.2415
 1156DOPC   C4A13567  35.148  30.273  14.503  0.2127  0.0952 -0.1673
 1156DOPC   C1B13568  34.343  30.120  13.984 -0.1653  0.0034 -0.1255
 1156DOPC   D2B13569  34.386  29.732  14.194  0.0217  0.0850 -0.3141
 1156DOPC   C3B13570  34.678  29.529  14.411  0.2114  0.1170  0.1896
 1156DOPC   C4B13571  34.813  29.105  14.628  0.0420 -0.1702 -0.1167
 1157DOPE   NH313572   9.736  28.979  11.764  0.0184 -0.0830 -0.0057
 1157DOPE   PO413573   9.776  28.834  11.453 -0.0854  0.1026  0.0437
 1157DOPE   GL113574   9.944  28.557  11.681 -0.2431  0.1200  0.3522
 1157DOPE   GL213575  10.189  28.651  11.718 -0.1080  0.1566 -0.2398
 1157DOPE   C1A13576   9.956  28.457  12.118  0.1450  0.0983 -0.2475
 1157DOPE   D2A13577   9.994  28.038  12.363  0.1220 -0.0074  0.1257
 1157DOPE   C3A13578  10.270  28.071  12.724 -0.1305 -0.0313  0.1027
 1157DOPE   C4A13579  10.150  28.175  13.180 -0.2929  0.1154  0.0352
 1157DOPE   C1B13580  10.430  28.659  12.073  0.3188  0.2764 -0.0923
 1157DOPE   D2B13581  10.433  28.488  12.453  0.2744 -0.1016 -0.2683
 1157DOPE   C3B13582  10.459  28.516  12.870 -0.1386 -0.1124 -0.0615
 1157DOPE   C4B13583  10.557  28.822  13.191  0.0194 -0.0560 -0.1197
 1158DOPS   CNO13584   5.512  33.896  10.939 -0.0407 -0.1182  0.0481
 1158DOPS   PO413585   5.431  33.928  11.297  0.0252 -0.0664  0.0217
 1158DOPS   GL113586   5.349  33.628  11.623  0.2592 -0.3437 -0.1613
 1158DOPS   GL213587   5.601  33.749  11.834  0.0783 -0.2727  0.0868
 1158DOPS   C1A13588   5.298  33.313  11.923  0.0368  0.4929  0.0661
 1158DOPS   D2A13589   5.214  33.285  12.339  0.1195  0.0116 -0.0016
 1158DOPS   C3A13590   5.104  32.859  12.492 -0.4171  0.3182  0.3552
 1158DOPS   C4A13591   5.212  32.440  12.482  0.0261  0.0745  0.1599
 1158DOPS   C1B13592   5.351  33.746  12.207 -0.1568 -0.2521  0.1534
 1158DOPS   D2B13593   5.397  33.640  12.625  0.0434 -0.1588 -0.0839
 1158DOPS   C3B13594   5.822  33.665  12.791  0.1740  0.0610 -0.1672
 1158DOPS   C4B13595   6.007  33.762  13.194 -0.3119 -0.1597 -0.0720
 1159DOPC   NC313596   3.341   0.438  11.479 -0.1505 -0.1859  0.0234
 1159DOPC   PO413597   3.216   0.084  11.655  0.3092 -0.1745 -0.1894
 1159DOPC   GL113598   3.277   0.057  12.040  0.0851  0.1965 -0.2583
 1159DOPC   GL213599   3.427   0.023  12.261  0.2212 -0.3894 -0.1578
 1159DOPC   C1A13600   3.251  -0.383  12.280  0.3651  0.0216  0.0514
 1159DOPC   D2A13601   3.282  -0.670  12.602 -0.1871 -0.1504 -0.2138
 1159DOPC   C3A13602   3.504  -1.059  12.656 -0.1469  0.1022  0.3519
 1159DOPC   C4A13603   3.886  -1.103  12.908  0.3390 -0.2428  0.2813
 1159DOPC   C1B13604   3.538  -0.139  12.706 -0.3747 -0.0785  0.0247
 1159DOPC   D2B13605   3.288  -0.397  13.058 -0.2144 -0.1834 -0.0779
 1159DOPC   C3B13606   3.410  -0.786  13.145 -0.1281  0.1061 -0.1145
 1159DOPC   C4B13607   3.480  -1.210  13.171  0.0954 -0.1100 -0.5661
 1160POSM   NC313608   9.646  30.070  11.085 -0.1919  0.1082  0.0622
 1160POSM   PO413609   9.344  29.789  11.162 -0.0621  0.1080  0.1306
 1160POSM   AM113610   9.232  29.738  11.499 -0.1540  0.0510  0.0394
 1160POSM   AM213611   8.998  29.537  11.570  0.0643  0.1346  0.1873
 1160POSM   T1A13612   9.027  29.902  11.929 -0.0616 -0.1669  0.1174
 1160POSM   C2A13613   8.967  29.723  12.325 -0.4445  0.1571 -0.4728
 1160POSM   C3A13614   8.864  29.601  12.741 -0.0250  0.0640  0.1019
 1160POSM   C1B13615   8.746  29.481  11.865  0.0323 -0.2077  0.1631
 1160POSM   D2B13616   8.603  29.287  12.314 -0.0107 -0.1634  0.1722
 1160POSM   C3B13617   8.218  29.092  12.271 -0.2144  0.0767 -0.1972
 1160POSM   C4B13618   7.960  28.775  12.349 -0.3502  0.2152  0.2166
 1161DOPC   NC313619   2.853  29.273  12.419  0.0732 -0.2568  0.0507
 1161DOPC   PO413620   2.498  29.107  12.376  0.0281 -0.1747  0.0792
 1161DOPC   GL113621   2.198  29.223  12.672  0.0752 -0.0074 -0.1457
 1161DOPC   GL213622   1.953  29.072  12.775  0.3322 -0.3574  0.1083
 1161DOPC   C1A13623   2.010  29.638  12.574 -0.0693  0.2353 -0.0486
 1161DOPC   D2A13624   1.709  29.957  12.576 -0.0595 -0.1305  0.1793
 1161DOPC   C3A13625   1.667  30.128  12.986  0.4470 -0.1845  0.0168
 1161DOPC   C4A13626   1.345  29.919  13.262  0.0638  0.1276 -0.2283
 1161DOPC   C1B13627   1.604  29.355  12.738 -0.2264 -0.1520  0.1074
 1161DOPC   D2B13628   1.333  29.753  12.786  0.2151 -0.1535  0.0417
 1161DOPC   C3B13629   0.854  29.733  12.708  0.0258  0.0151  0.1412
 1161DOPC   C4B13630   0.396  29.694  12.591 -0.2425  0.5368  0.0471
 1162POSM   NC313631   4.990  29.756  11.825 -0.0414  0.2753  0.0725
 1162POSM   PO413632   4.893  30.123  11.771  0.1410  0.2406  0.1310
 1162POSM   AM113633   5.068  30.168  12.019  0.0658  0.0051 -0.3037
 1162POSM   AM213634   5.252  30.367  12.150  0.0280 -0.1649 -0.0683
 1162POSM   T1A13635   4.982  30.281  12.521 -0.0209 -0.0677  0.2529
 1162POSM   C2A13636   5.071  30.154  12.976 -0.0210  0.0596 -0.2894
 1162POSM   C3A13637   5.104  29.996  13.377 -0.4601  0.0791  0.0940
 1162POSM   C1B13638   5.500  30.495  12.368 -0.1223  0.1690 -0.2598
 1162POSM   D2B13639   5.615  30.750  12.695  0.0524 -0.0223 -0.2985
 1162POSM   C3B13640   5.434  31.198  12.836  0.0261 -0.2324  0.2682
 1162POSM   C4B13641   5.177  31.583  12.861 -0.1815  0.2130 -0.4447
 1163DOPE   NH313642   2.866  28.720  12.734 -0.2460 -0.1579  0.0103
 1163DOPE   PO413643   2.850  29.007  12.840 -0.0689 -0.0413 -0.3372
 1163DOPE   GL113644   2.904  29.129  13.185 -0.0502 -0.3894 -0.0298
 1163DOPE   GL213645   3.157  29.236  13.160 -0.0064  0.0824  0.1640
 1163DOPE   C1A13646   2.903  29.493  13.515  0.1510  0.1180  0.1013
 1163DOPE   D2A13647   2.579  29.718  13.742 -0.0325 -0.0103  0.0578
 1163DOPE   C3A13648   2.168  29.475  13.703 -0.0860  0.1364  0.0294
 1163DOPE   C4A13649   1.750  29.280  13.578  0.0349 -0.2160  0.4628
 1163DOPE   C1B13650   3.428  29.500  13.521  0.1439  0.0142 -0.1528
 1163DOPE   D2B13651   3.235  29.519  13.945 -0.0753  0.1413  0.0046
 1163DOPE   C3B13652   2.815  29.573  14.176 -0.0808 -0.0498 -0.1692
 1163DOPE   C4B13653   2.336  29.646  14.128 -0.0266  0.2549  0.1186
 1164DOPE   NH313654   9.568  29.392  11.391 -0.2181 -0.0230  0.2252
 1164DOPE   PO413655   9.369  29.177  11.475  0.1783 -0.0417 -0.2127
 1164DOPE   GL113656   9.361  29.404  11.796 -0.0785  0.0693  0.0976
 1164DOPE   GL213657   9.553  29.572  11.850 -0.0901  0.1536 -0.1088
 1164DOPE   C1A13658   9.103  29.227  12.174  0.2049 -0.3641 -0.0077
 1164DOPE   D2A13659   9.106  29.025  12.623 -0.0228  0.0062 -0.0691
 1164DOPE   C3A13660   8.858  29.156  12.985  0.1112 -0.1410 -0.3008
 1164DOPE   C4A13661   8.496  29.333  13.271 -0.0987 -0.3991 -0.0345
 1164DOPE   C1B13662   9.455  29.594  12.258  0.0184 -0.0287  0.1714
 1164DOPE   D2B13663   9.315  29.454  12.668 -0.1431 -0.2372  0.0509
 1164DOPE   C3B13664   9.745  29.191  12.809  0.0194 -0.2015 -0.1280
 1164DOPE   C4B13665  10.133  28.896  12.916 -0.0114  0.4062  0.0518
 1165DOPS   CNO13666   6.328  22.167  13.460 -0.2683  0.0940  0.1130
 1165DOPS   PO413667   6.350  22.508  13.271 -0.0901  0.1903  0.0387
 1165DOPS   GL113668   6.566  22.508  13.606 -0.0923 -0.2607 -0.0032
 1165DOPS   GL213669   6.792  22.716  13.672  0.2886  0.4110 -0.3214
 1165DOPS   C1A13670   6.752  22.150  13.861 -0.1177  0.1084 -0.0750
 1165DOPS   D2A13671   7.074  21.888  14.151 -0.2306  0.0281  0.3273
 1165DOPS   C3A13672   7.143  21.422  14.134 -0.0365  0.1692  0.4184
 1165DOPS   C4A13673   7.429  21.080  14.291  0.0007  0.0477  0.0850
 1165DOPS   C1B13674   7.049  22.790  14.021  0.1694 -0.0789 -0.0865
 1165DOPS   D2B13675   7.427  22.659  14.211 -0.2806 -0.1212  0.0619
 1165DOPS   C3B13676   7.346  22.263  14.418  0.0219  0.0365  0.1709
 1165DOPS   C4B13677   7.162  21.881  14.595  0.2954  0.1122 -0.0732
 1166DOPE   NH313678   1.939  23.795  12.862  0.2494 -0.1438 -0.3149
 1166DOPE   PO413679   1.631  23.820  12.740  0.0040  0.0649  0.0252
 1166DOPE   GL113680   1.771  24.280  12.635  0.1509 -0.1146 -0.0296
 1166DOPE   GL213681   2.048  24.420  12.841  0.1017  0.1220  0.2317
 1166DOPE   C1A13682   1.645  24.706  12.854  0.0253 -0.0225  0.2494
 1166DOPE   D2A13683   1.522  24.920  13.241 -0.2537  0.1026 -0.2878
 1166DOPE   C3A13684   1.228  24.711  13.585 -0.0815  0.4154  0.2521
 1166DOPE   C4A13685   0.867  24.414  13.736  0.3887 -0.3434  0.0760
 1166DOPE   C1B13686   1.993  24.678  13.264  0.2171  0.0617  0.1876
 1166DOPE   D2B13687   2.204  24.601  13.689 -0.0891 -0.2757 -0.1986
 1166DOPE   C3B13688   2.019  24.648  14.102  0.2661 -0.2467  0.0323
 1166DOPE   C4B13689   2.052  24.675  14.606  0.1366 -0.0487  0.1147
 1167DOPE   NH313690   7.889  23.499  12.541 -0.0304  0.2590 -0.2654
 1167DOPE   PO413691   8.129  23.526  12.312 -0.0810 -0.0403  0.0777
 1167DOPE   GL113692   8.527  23.637  12.485  0.0846 -0.1276 -0.2146
 1167DOPE   GL213693   8.583  23.562  12.780  0.0532 -0.1552  0.0104
 1167DOPE   C1A13694   8.894  23.898  12.460 -0.4148  0.0705  0.0543
 1167DOPE   D2A13695   9.408  23.890  12.486  0.2082  0.1119  0.2219
 1167DOPE   C3A13696   9.394  24.006  12.911 -0.3490  0.1190 -0.0358
 1167DOPE   C4A13697   9.558  24.300  13.256 -0.4067 -0.0852 -0.2601
 1167DOPE   C1B13698   8.765  23.977  12.962 -0.0860  0.0751 -0.0883
 1167DOPE   D2B13699   8.902  24.236  13.308  0.1994 -0.1512  0.1171
 1167DOPE   C3B13700   8.590  24.247  13.599  0.2752  0.4105 -0.1805
 1167DOPE   C4B13701   8.551  24.269  14.064  0.0748  0.1911  0.3478
 1168POSM   NC313702  11.511  32.623  11.194  0.0021  0.1117 -0.0011
 1168POSM   PO413703  11.363  32.832  10.885 -0.1515  0.1220  0.3014
 1168POSM   AM113704  11.109  32.863  11.096 -0.4612  0.0029 -0.0023
 1168POSM   AM213705  11.053  32.792  11.343 -0.2797 -0.1132  0.0701
 1168POSM   T1A13706  10.629  32.895  11.135  0.1121  0.0047  0.0067
 1168POSM   C2A13707  10.320  32.769  11.403 -0.1508  0.0776  0.0099
 1168POSM   C3A13708  10.414  32.486  11.707  0.5111 -0.1446  0.2184
 1168POSM   C1B13709  10.807  32.776  11.595  0.1178  0.3326 -0.0660
 1168POSM   D2B13710  10.547  32.934  11.971 -0.1116  0.1411 -0.1466
 1168POSM   C3B13711  10.674  32.728  12.387 -0.3518 -0.0519  0.0843
 1168POSM   C4B13712  11.088  32.593  12.554 -0.2308  0.2435  0.2890
 1169DOPC   NC313713  10.980  29.684  11.285  0.3177 -0.4459  0.0122
 1169DOPC   PO413714  10.614  29.926  11.332 -0.3800 -0.1527  0.4068
 1169DOPC   GL113715  10.628  30.175  11.699 -0.1921  0.0493 -0.3698
 1169DOPC   GL213716  10.820  30.288  11.627 -0.0796 -0.0033 -0.1627
 1169DOPC   C1A13717  10.451  30.611  11.834 -0.2494 -0.4307  0.1891
 1169DOPC   D2A13718  10.546  30.968  12.161 -0.3609  0.0016 -0.1045
 1169DOPC   C3A13719  10.389  30.891  12.536  0.0806 -0.0943  0.1398
 1169DOPC   C4A13720  10.499  30.481  12.744  0.0322 -0.2724 -0.0887
 1169DOPC   C1B13721  10.808  30.762  11.500 -0.0243  0.0161  0.1910
 1169DOPC   D2B13722  10.872  31.228  11.360  0.1743  0.2677 -0.1900
 1169DOPC   C3B13723  10.709  31.641  11.417 -0.0295  0.1926  0.0027
 1169DOPC   C4B13724  10.424  31.962  11.604 -0.0517 -0.2838  0.0655
 1170DOPC   NC313725   5.075  23.504  13.211  0.0357  0.2318 -0.2318
 1170DOPC   PO413726   4.938  23.222  13.491  0.1323 -0.0647  0.0600
 1170DOPC   GL113727   4.904  23.209  13.816  0.2285 -0.3059 -0.2076
 1170DOPC   GL213728   4.587  23.205  13.948 -0.1829  0.1436 -0.1490
 1170DOPC   C1A13729   5.068  23.417  14.203  0.2981  0.3408 -0.0818
 1170DOPC   D2A13730   5.002  23.609  14.576 -0.4232 -0.1436 -0.0433
 1170DOPC   C3A13731   5.079  23.451  15.031 -0.2682  0.0485 -0.0226
 1170DOPC   C4A13732   5.127  23.087  15.248 -0.1358  0.4392 -0.2190
 1170DOPC   C1B13733   4.678  23.230  14.406  0.1950  0.3977  0.1203
 1170DOPC   D2B13734   4.652  23.249  14.868  0.4222  0.0105 -0.0244
 1170DOPC   C3B13735   4.623  22.963  15.237 -0.0836  0.0777 -0.5118
 1170DOPC   C4B13736   4.776  22.631  15.566  0.0803 -0.0100  0.4656
 1171DOPE   NH313737   4.069  23.529  13.485 -0.0929 -0.0234  0.1790
 1171DOPE   PO413738   4.187  23.601  13.739 -0.0579 -0.0220  0.0773
 1171DOPE   GL113739   3.977  23.474  14.041 -0.1682  0.1924  0.0601
 1171DOPE   GL213740   4.003  23.670  14.185  0.3148  0.0647 -0.0666
 1171DOPE   C1A13741   4.112  23.192  14.380  0.2509 -0.1378  0.2371
 1171DOPE   D2A13742   4.126  23.207  14.837  0.3509  0.3481 -0.1805
 1171DOPE   C3A13743   4.362  23.457  15.145  0.0318 -0.3010 -0.1255
 1171DOPE   C4A13744   4.728  23.500  15.377  0.1569 -0.1575 -0.0971
 1171DOPE   C1B13745   3.854  23.669  14.649  0.0092  0.2341  0.0289
 1171DOPE   D2B13746   3.629  23.994  14.867 -0.0348 -0.0706 -0.1661
 1171DOPE   C3B13747   3.538  24.399  14.815 -0.2689 -0.0896  0.2823
 1171DOPE   C4B13748   3.380  24.877  14.727 -0.0975  0.1640  0.0351
 1172DOPE   NH313749   7.674  26.341  12.479  0.0984  0.2751 -0.0728
 1172DOPE   PO413750   7.490  26.629  12.428 -0.0482  0.1818 -0.0567
 1172DOPE   GL113751   7.760  26.765  12.662 -0.1062  0.1453  0.2222
 1172DOPE   GL213752   8.015  26.846  12.620 -0.0767  0.0387 -0.1899
 1172DOPE   C1A13753   7.988  26.725  13.063  0.0124  0.2355  0.5037
 1172DOPE   D2A13754   8.003  26.622  13.485 -0.1652 -0.1153 -0.0771
 1172DOPE   C3A13755   8.257  26.215  13.588 -0.0063  0.0653 -0.0089
 1172DOPE   C4A13756   8.413  25.861  13.335 -0.0089 -0.0925  0.1870
 1172DOPE   C1B13757   8.242  27.186  12.859 -0.3115 -0.2009  0.2350
 1172DOPE   D2B13758   8.599  27.246  13.180  0.1766  0.0918 -0.2427
 1172DOPE   C3B13759   8.891  27.600  13.293 -0.1795  0.0998  0.0090
 1172DOPE   C4B13760   9.033  28.031  13.424  0.1729 -0.0660  0.0130
 1173POSM   NC313761   5.546  23.409  12.924 -0.1582  0.1226  0.1371
 1173POSM   PO413762   5.929  23.408  13.009 -0.0644  0.2283 -0.0026
 1173POSM   AM113763   5.861  23.666  13.174  0.0413  0.0820  0.0025
 1173POSM   AM213764   5.685  23.713  13.401  0.0611 -0.0859 -0.0426
 1173POSM   T1A13765   6.073  24.055  13.398 -0.2572  0.1864 -0.1340
 1173POSM   C2A13766   6.105  24.530  13.334  0.0506  0.5247  0.1004
 1173POSM   C3A13767   5.967  24.941  13.288  0.2241  0.3533 -0.0233
 1173POSM   C1B13768   5.665  23.837  13.667  0.0174  0.2051 -0.1997
 1173POSM   D2B13769   5.364  23.886  14.073 -0.1296  0.2118  0.0247
 1173POSM   C3B13770   5.499  23.699  14.431  0.2346  0.0041  0.2516
 1173POSM   C4B13771   5.632  23.344  14.628 -0.2263  0.2806 -0.0335
 1174POSM   NC313772   7.254  27.579  11.846 -0.1046 -0.3257  0.1500
 1174POSM   PO413773   7.150  27.620  12.230 -0.1682  0.0835  0.1566
 1174POSM   AM113774   7.201  27.587  12.540 -0.2563 -0.0563 -0.2603
 1174POSM   AM213775   6.991  27.532  12.674 -0.0204  0.2551 -0.0884
 1174POSM   T1A13776   7.554  27.658  12.961 -0.3078  0.4513  0.1466
 1174POSM   C2A13777   8.001  27.573  13.035  0.0811  0.0738  0.0797
 1174POSM   C3A13778   8.436  27.706  13.190  0.0723 -0.1119 -0.3882
 1174POSM   C1B13779   7.135  27.377  12.959  0.1500 -0.1055  0.3122
 1174POSM   D2B13780   7.409  27.405  13.332  0.3103  0.0820  0.2709
 1174POSM   C3B13781   7.326  27.720  13.658 -0.0330  0.1320 -0.1797
 1174POSM   C4B13782   7.224  28.191  13.753  0.3078 -0.0387  0.0097
 1175POSM   NC313783   1.188  33.823  12.809 -0.0214 -0.1508 -0.0482
 1175POSM   PO413784   1.303  33.602  12.482  0.1592 -0.2403 -0.3258
 1175POSM   AM113785   1.327  33.375  12.697 -0.0409  0.0420 -0.0734
 1175POSM   AM213786   1.195  33.101  12.775 -0.0096  0.0217 -0.3241
 1175POSM   T1A13787   1.526  33.158  13.104 -0.0156  0.2292 -0.2755
 1175POSM   C2A13788   1.869  32.986  13.376  0.2217 -0.2078  0.0226
 1175POSM   C3A13789   2.338  32.934  13.442  0.3573  0.3502  0.3149
 1175POSM   C1B13790   1.090  32.837  12.938 -0.0397  0.0369 -0.1631
 1175POSM   D2B13791   0.971  32.518  13.262  0.2180 -0.1609 -0.0121
 1175POSM   C3B13792   0.572  32.406  13.334  0.3512 -0.2584 -0.1432
 1175POSM   C4B13793   0.167  32.117  13.347  0.0087 -0.1018 -0.3213
 1176POSM   NC313794   9.476  26.236  10.804  0.0739  0.2349  0.0993
 1176POSM   PO413795   9.727  26.009  11.043  0.3515 -0.1680 -0.1381
 1176POSM   AM113796   9.514  25.791  11.228  0.3470  0.1282 -0.1635
 1176POSM   AM213797   9.487  25.854  11.495 -0.1038  0.1059 -0.2082
 1176POSM   T1A13798   9.175  25.483  11.497 -0.3671 -0.0170  0.3911
 1176POSM   C2A13799   8.761  25.268  11.525  0.1256  0.2279  0.0566
 1176POSM   C3A13800   8.376  25.337  11.412 -0.1932  0.1100  0.0103
 1176POSM   C1B13801   9.464  25.832  11.826  0.2212 -0.2068  0.0607
 1176POSM   D2B13802   9.245  26.038  12.207 -0.0196  0.0593 -0.0026
 1176POSM   C3B13803   9.309  25.765  12.576 -0.3955  0.0948  0.1409
 1176POSM   C4B13804   9.131  25.585  12.934 -0.0211  0.0114  0.1548
 1177DOPC   NC313805   3.354  29.458  12.730 -0.0867 -0.0925 -0.0903
 1177DOPC   PO413806   3.301  29.060  12.728  0.1714 -0.0296  0.3742
 1177DOPC   GL113807   3.581  28.968  13.010  0.2077  0.1335  0.0884
 1177DOPC   GL213808   3.696  29.191  13.087 -0.0559 -0.1014 -0.2417
 1177DOPC   C1A13809   3.620  28.875  13.463  0.1751  0.0559  0.0803
 1177DOPC   D2A13810   3.930  28.560  13.585  0.1384 -0.2701  0.1928
 1177DOPC   C3A13811   4.087  28.177  13.881  0.0217 -0.0742 -0.4543
 1177DOPC   C4A13812   4.051  27.912  14.306 -0.0512 -0.0651  0.1744
 1177DOPC   C1B13813   4.014  28.797  13.077 -0.2716 -0.1142  0.0119
 1177DOPC   D2B13814   4.311  28.491  13.223 -0.0859  0.0535 -0.3979
 1177DOPC   C3B13815   4.548  28.507  13.599  0.0047 -0.0401  0.2257
 1177DOPC   C4B13816   4.774  28.316  13.934 -0.1224 -0.3181  0.2608
 1178DOPC   NC313817   7.954  23.994  12.303  0.2322  0.2708  0.2633
 1178DOPC   PO413818   8.165  23.928  12.673 -0.1082 -0.1524 -0.0336
 1178DOPC   GL113819   8.131  24.291  12.765 -0.5095  0.1522  0.2839
 1178DOPC   GL213820   8.140  24.465  12.526 -0.0048 -0.3088 -0.0348
 1178DOPC   C1A13821   7.949  24.720  12.880 -0.1697  0.3101  0.0988
 1178DOPC   D2A13822   7.923  25.002  13.273 -0.1086  0.0367 -0.0564
 1178DOPC   C3A13823   8.125  25.079  13.658  0.0662  0.3056  0.2806
 1178DOPC   C4A13824   8.547  25.258  13.762 -0.3284 -0.0306 -0.1761
 1178DOPC   C1B13825   8.536  24.447  12.744  0.0607  0.1717 -0.2067
 1178DOPC   D2B13826   8.705  24.647  13.054 -0.1242  0.0559  0.2919
 1178DOPC   C3B13827   8.399  24.636  13.389 -0.0428 -0.0641 -0.3672
 1178DOPC   C4B13828   8.151  24.570  13.808  0.1562 -0.0347  0.0021
 1179DOPE   NH313829   8.881  29.635  11.105 -0.1149  0.1890 -0.3819
 1179DOPE   PO413830   8.603  29.730  11.228  0.2879 -0.3459  0.4242
 1179DOPE   GL113831   8.434  29.794  11.682  0.0986 -0.4536 -0.3202
 1179DOPE   GL213832   8.400  30.140  11.633 -0.3884  0.0622 -0.1509
 1179DOPE   C1A13833   8.557  29.845  12.111  0.1621 -0.0494  0.0953
 1179DOPE   D2A13834   8.440  29.808  12.569  0.3522 -0.1406 -0.2861
 1179DOPE   C3A13835   8.204  29.421  12.765  0.1632 -0.1615  0.0865
 1179DOPE   C4A13836   7.976  29.037  12.788 -0.1384  0.0158 -0.2954
 1179DOPE   C1B13837   8.307  30.427  11.967  0.2339 -0.0739  0.2273
 1179DOPE   D2B13838   8.122  30.709  12.258  0.0713 -0.1002 -0.1678
 1179DOPE   C3B13839   7.701  30.760  12.510 -0.0963 -0.1394  0.1269
 1179DOPE   C4B13840   7.236  30.709  12.718  0.2162 -0.3650 -0.1681
 1180DOPC   NC313841   6.949  28.900  11.510  0.1472  0.2367 -0.0720
 1180DOPC   PO413842   6.680  29.042  11.754  0.3322 -0.1198  0.1284
 1180DOPC   GL113843   6.949  29.137  11.982 -0.2175  0.1049  0.0270
 1180DOPC   GL213844   6.961  29.444  12.042 -0.1479 -0.3370 -0.0716
 1180DOPC   C1A13845   7.406  29.126  12.135  0.0282  0.0067 -0.0806
 1180DOPC   D2A13846   7.766  29.255  12.407 -0.1737 -0.0146 -0.0598
 1180DOPC   C3A13847   7.495  29.403  12.793  0.0172 -0.1628  0.0143
 1180DOPC   C4A13848   7.541  29.830  12.979 -0.1274  0.1265  0.0706
 1180DOPC   C1B13849   7.309  29.692  11.922 -0.0526 -0.3055  0.1958
 1180DOPC   D2B13850   7.547  29.964  12.097 -0.0052 -0.1251 -0.1395
 1180DOPC   C3B13851   7.729  30.217  12.473 -0.0693 -0.0647 -0.0098
 1180DOPC   C4B13852   7.989  30.050  12.852  0.2324  0.2045  0.4590
 1181DOPC   NC313853   9.977  30.489  10.982  0.2369  0.3387 -0.1406
 1181DOPC   PO413854   9.602  30.574  11.016 -0.2788  0.0607 -0.0075
 1181DOPC   GL113855   9.808  30.884  11.276 -0.1893  0.5708  0.0609
 1181DOPC   GL213856   9.557  30.860  11.508 -0.0323 -0.5698 -0.1931
 1181DOPC   C1A13857   9.828  31.316  11.243 -0.0686 -0.1257 -0.1261
 1181DOPC   D2A13858   9.998  31.644  11.563 -0.3117 -0.1385 -0.2933
 1181DOPC   C3A13859   9.707  31.996  11.661  0.3249 -0.3228  0.1513
 1181DOPC   C4A13860   9.435  32.307  11.880  0.1711  0.0495  0.1795
 1181DOPC   C1B13861   9.365  31.257  11.563  0.0918 -0.0035  0.1210
 1181DOPC   D2B13862   9.391  31.713  11.341 -0.3032 -0.0387  0.0352
 1181DOPC   C3B13863   9.202  32.139  11.356  0.0969  0.0322 -0.2417
 1181DOPC   C4B13864   9.122  32.552  11.463  0.0351  0.0708 -0.2162
 1182DOPS   CNO13865   7.712  34.071  10.648  0.0795  0.0696  0.2090
 1182DOPS   PO413866   7.623  33.817  10.933 -0.0213 -0.0190 -0.0581
 1182DOPS   GL113867   7.666  33.790  11.350 -0.3201  0.0801 -0.0152
 1182DOPS   GL213868   7.348  33.876  11.370 -0.2096 -0.1268 -0.0210
 1182DOPS   C1A13869   7.621  34.262  11.448 -0.1101  0.0907 -0.1830
 1182DOPS   D2A13870   7.468  34.657  11.531 -0.1281 -0.1827 -0.0052
 1182DOPS   C3A13871   7.384  34.893  11.932 -0.0597 -0.1720  0.0810
 1182DOPS   C4A13872   7.331  35.029  12.342 -0.0166 -0.1611  0.0440
 1182DOPS   C1B13873   7.424  33.578  11.701  0.1761 -0.0864  0.4216
 1182DOPS   D2B13874   7.275  33.528  12.138  0.3261 -0.1589  0.1580
 1182DOPS   C3B13875   7.044  33.165  12.207 -0.2934 -0.0327 -0.2362
 1182DOPS   C4B13876   6.850  32.813  12.416  0.1033  0.1329 -0.0176
 1183POSM   NC313877  10.133  26.807  11.750  0.0079 -0.0720 -0.0359
 1183POSM   PO413878  10.147  27.141  11.549 -0.1173  0.0104  0.2348
 1183POSM   AM113879  10.010  27.340  11.802 -0.0966 -0.1009 -0.0731
 1183POSM   AM213880  10.036  27.586  11.885 -0.2938  0.2898 -0.0496
 1183POSM   T1A13881   9.821  27.418  12.298  0.0701  0.0917  0.0541
 1183POSM   C2A13882   9.673  27.724  12.583 -0.4315  0.0578 -0.1430
 1183POSM   C3A13883   9.546  28.149  12.491  0.0561  0.1359  0.0009
 1183POSM   C1B13884  10.236  27.662  12.159  0.2754 -0.0019 -0.3515
 1183POSM   D2B13885  10.456  27.523  12.578 -0.1652  0.1667  0.0794
 1183POSM   C3B13886  10.760  27.932  12.596  0.0871  0.2849 -0.1045
 1183POSM   C4B13887  11.025  28.331  12.572 -0.0987 -0.2988 -0.4408
 1184DOPS   CNO13888   6.248  31.152  10.888 -0.3257 -0.1363  0.2384
 1184DOPS   PO413889   6.586  30.972  10.953 -0.2414 -0.0047  0.1839
 1184DOPS   GL113890   6.824  31.162  11.168 -0.3978 -0.2615  0.1478
 1184DOPS   GL213891   6.596  31.208  11.386  0.4350 -0.4191 -0.1530
 1184DOPS   C1A13892   7.048  30.985  11.562 -0.0263 -0.1090  0.5148
 1184DOPS   D2A13893   7.379  30.749  11.806  0.0608  0.0887 -0.0428
 1184DOPS   C3A13894   7.647  31.038  12.079  0.1495 -0.3378 -0.0854
 1184DOPS   C4A13895   7.819  31.486  12.157  0.1348 -0.1206  0.1384
 1184DOPS   C1B13896   6.545  31.043  11.839 -0.1012 -0.2942  0.2173
 1184DOPS   D2B13897   6.482  30.702  12.055 -0.1517 -0.0675  0.1311
 1184DOPS   C3B13898   6.817  30.675  12.419 -0.1832 -0.0751 -0.0787
 1184DOPS   C4B13899   6.853  30.410  12.785 -0.2001 -0.1376 -0.0766
 1185POSM   NC313900   2.650  28.601  13.337 -0.2384  0.4153 -0.1392
 1185POSM   PO413901   2.263  28.524  13.278 -0.3716 -0.3124 -0.0536
 1185POSM   AM113902   2.217  28.638  13.585  0.2706  0.0030 -0.1323
 1185POSM   AM213903   2.384  28.687  13.803  0.1353  0.1180  0.0964
 1185POSM   T1A13904   2.046  28.980  13.875 -0.1446  0.1946  0.2611
 1185POSM   C2A13905   1.855  29.305  14.051 -0.1561 -0.1340  0.0443
 1185POSM   C3A13906   1.752  29.702  14.358 -0.1573  0.1132  0.3300
 1185POSM   C1B13907   2.692  28.540  13.859 -0.1276  0.0385 -0.1047
 1185POSM   D2B13908   3.125  28.429  14.047 -0.1506  0.3756  0.0320
 1185POSM   C3B13909   3.181  27.931  14.151  0.2342 -0.0068  0.0080
 1185POSM   C4B13910   3.062  27.525  14.272  0.1036 -0.4981 -0.0146
 1186DOPC   NC313911   3.050  31.308  12.084  0.2649 -0.1098  0.2941
 1186DOPC   PO413912   3.328  31.078  11.958  0.1335  0.1071 -0.1608
 1186DOPC   GL113913   3.576  31.249  12.208  0.1600  0.2215 -0.4906
 1186DOPC   GL213914   3.471  31.544  12.340 -0.3494  0.0298  0.2539
 1186DOPC   C1A13915   3.760  31.139  12.594  0.2868  0.1656 -0.0940
 1186DOPC   D2A13916   3.826  31.283  12.991  0.2826  0.4236 -0.1042
 1186DOPC   C3A13917   3.847  31.729  12.820 -0.1392 -0.0394  0.1470
 1186DOPC   C4A13918   3.964  32.210  12.773 -0.0964 -0.0896 -0.1706
 1186DOPC   C1B13919   3.132  31.840  12.336 -0.1441 -0.6839 -0.2575
 1186DOPC   D2B13920   2.716  32.013  12.514 -0.0744 -0.2260  0.2025
 1186DOPC   C3B13921   2.449  32.043  12.129  0.1744 -0.1597  0.1106
 1186DOPC   C4B13922   2.154  31.971  11.722  0.1281  0.0251 -0.1867
 1187DOPC   NC313923   7.992  27.545  11.746 -0.0665 -0.0130  0.1203
 1187DOPC   PO413924   8.344  27.624  11.539  0.2723  0.1829  0.1558
 1187DOPC   GL113925   8.472  27.484  11.937 -0.1120 -0.0558  0.0802
 1187DOPC   GL213926   8.561  27.175  11.879 -0.2933  0.0211 -0.1247
 1187DOPC   C1A13927   8.725  27.521  12.333 -0.0542  0.1683 -0.0297
 1187DOPC   D2A13928   8.720  27.553  12.794  0.0378  0.3794  0.3342
 1187DOPC   C3A13929   8.688  28.015  12.832  0.0803  0.2957 -0.1202
 1187DOPC   C4A13930   8.593  28.277  13.174  0.1081 -0.1696  0.0319
 1187DOPC   C1B13931   8.919  27.062  12.161  0.3781  0.0804 -0.2007
 1187DOPC   D2B13932   9.153  26.789  12.496  0.1148 -0.0056 -0.0386
 1187DOPC   C3B13933   9.322  26.697  12.896 -0.0077 -0.1254 -0.2249
 1187DOPC   C4B13934   9.510  26.935  13.263  0.0771 -0.2653  0.0490
 1188DOPC   NC313935   1.763  23.246  13.589  0.0806 -0.0166  0.0224
 1188DOPC   PO413936   2.042  23.399  13.436  0.2263 -0.3783  0.3224
 1188DOPC   GL113937   2.177  23.479  13.785  0.6221  0.1140  0.1850
 1188DOPC   GL213938   2.316  23.771  13.897  0.0688 -0.1007  0.0457
 1188DOPC   C1A13939   1.784  23.680  14.094 -0.1431 -0.2460  0.1111
 1188DOPC   D2A13940   1.394  23.901  14.319 -0.4383  0.1294  0.0839
 1188DOPC   C3A13941   1.410  24.174  14.687  0.1448  0.1118  0.0148
 1188DOPC   C4A13942   1.462  24.412  15.113 -0.1200  0.0199 -0.3291
 1188DOPC   C1B13943   2.622  24.100  14.002 -0.1306 -0.0890  0.0035
 1188DOPC   D2B13944   3.033  24.296  13.862  0.2667  0.0246  0.2434
 1188DOPC   C3B13945   3.028  24.750  13.852  0.2283  0.1121  0.1320
 1188DOPC   C4B13946   2.918  25.102  14.099 -0.1552  0.0843  0.2614
 1189POSM   NC313947   7.398  33.399  11.155  0.2493  0.2868 -0.2236
 1189POSM   PO413948   7.161  33.357  10.806  0.0282 -0.0623  0.1572
 1189POSM   AM113949   7.005  33.201  11.030  0.0847 -0.2566 -0.2771
 1189POSM   AM213950   7.043  32.930  11.119 -0.1348  0.0299 -0.3745
 1189POSM   T1A13951   6.831  33.165  11.487  0.1691 -0.0497 -0.0632
 1189POSM   C2A13952   6.490  33.033  11.724 -0.1183 -0.1176 -0.0177
 1189POSM   C3A13953   6.379  32.943  12.156 -0.2579 -0.1578  0.3433
 1189POSM   C1B13954   7.008  32.687  11.359  0.1112 -0.1299  0.0230
 1189POSM   D2B13955   6.930  32.271  11.548 -0.1390 -0.0653 -0.0640
 1189POSM   C3B13956   7.028  31.956  11.795  0.1566  0.0774 -0.1378
 1189POSM   C4B13957   7.369  31.765  12.110  0.1764 -0.0645  0.2049
 1190POSM   NC313958   1.834  26.518  12.325  0.4505  0.1468  0.0667
 1190POSM   PO413959   1.798  26.850  12.473 -0.0581  0.5969 -0.1514
 1190POSM   AM113960   1.868  26.776  12.774 -0.3592 -0.1001  0.2350
 1190POSM   AM213961   1.774  26.600  12.958  0.0017 -0.1824  0.2700
 1190POSM   T1A13962   2.230  26.679  13.127 -0.1807 -0.3468  0.0049
 1190POSM   C2A13963   2.477  26.411  13.434  0.1963 -0.0445  0.0244
 1190POSM   C3A13964   2.721  26.034  13.609 -0.0586  0.0815  0.3695
 1190POSM   C1B13965   1.826  26.334  13.126 -0.0484  0.2581 -0.0127
 1190POSM   D2B13966   2.106  26.001  13.342 -0.0320 -0.0230  0.1313
 1190POSM   C3B13967   2.542  25.912  13.150 -0.4007 -0.3658 -0.1649
 1190POSM   C4B13968   2.583  25.797  12.735 -0.1017 -0.1404  0.1156
 1191DOPE   NH313969   6.344  26.986  12.396 -0.2365  0.2027  0.4948
 1191DOPE   PO413970   6.071  27.083  12.482 -0.1538  0.0042  0.1180
 1191DOPE   GL113971   5.972  27.330  12.794 -0.2464 -0.0330  0.6295
 1191DOPE   GL213972   5.756  27.170  12.850 -0.2224  0.0508 -0.0013
 1191DOPE   C1A13973   5.789  27.615  13.145  0.0649 -0.0421 -0.1436
 1191DOPE   D2A13974   5.545  27.831  13.478  0.1847 -0.0235 -0.3700
 1191DOPE   C3A13975   5.115  27.685  13.532  0.0506 -0.1689 -0.1696
 1191DOPE   C4A13976   4.788  27.811  13.220 -0.0338  0.0219 -0.0581
 1191DOPE   C1B13977   5.380  27.205  13.117 -0.0267  0.0101 -0.0978
 1191DOPE   D2B13978   5.121  27.206  13.485 -0.2191 -0.0692  0.1386
 1191DOPE   C3B13979   5.112  27.172  13.948 -0.0273 -0.0114  0.1137
 1191DOPE   C4B13980   4.670  27.123  14.144  0.0718 -0.0058  0.2989
 1192DOPS   CNO13981  11.111  26.650  11.304 -0.2320 -0.3097  0.0719
 1192DOPS   PO413982  11.003  27.000  11.487 -0.0588 -0.1504  0.3250
 1192DOPS   GL113983  10.940  27.180  11.871  0.3351  0.0067 -0.1267
 1192DOPS   GL213984  10.950  26.974  12.054  0.5865  0.2006 -0.2485
 1192DOPS   C1A13985  11.164  27.521  12.081 -0.0113 -0.0644 -0.1521
 1192DOPS   D2A13986  11.278  27.767  12.462 -0.2237 -0.0731 -0.1173
 1192DOPS   C3A13987  11.648  27.699  12.784  0.0367 -0.2838 -0.0922
 1192DOPS   C4A13988  11.922  27.878  13.173 -0.0505 -0.1224  0.0107
 1192DOPS   C1B13989  10.584  26.830  12.278 -0.0398  0.1349 -0.4130
 1192DOPS   D2B13990  10.223  26.562  12.208  0.2173  0.2826 -0.0830
 1192DOPS   C3B13991   9.927  26.519  12.571 -0.1220 -0.0662  0.1300
 1192DOPS   C4B13992   9.476  26.361  12.543 -0.1169  0.1152  0.1374
 1193DOPE   NH313993  11.448  34.142  10.792 -0.3943 -0.1599 -0.1155
 1193DOPE   PO413994  11.624  33.845  10.873 -0.2794 -0.1672 -0.1498
 1193DOPE   GL113995  11.518  33.714  11.255  0.3348  0.1242  0.2793
 1193DOPE   GL213996  11.284  33.934  11.248  0.2502 -0.2514 -0.2474
 1193DOPE   C1A13997  11.654  33.884  11.664 -0.2257 -0.3157  0.4150
 1193DOPE   D2A13998  11.773  34.069  12.036 -0.0668  0.2132 -0.1042
 1193DOPE   C3A13999  11.731  34.098  12.475 -0.1753  0.0224  0.0532
 1193DOPE   C4A14000  11.887  33.985  12.913 -0.0925  0.1601  0.0638
 1193DOPE   C1B14001  11.156  33.773  11.681  0.4643 -0.1267  0.1148
 1193DOPE   D2B14002  11.294  33.652  12.145  0.2724 -0.0461 -0.0686
 1193DOPE   C3B14003  11.127  33.864  12.537  0.0469  0.0782 -0.1907
 1193DOPE   C4B14004  10.823  34.095  12.772 -0.1568  0.1593 -0.2081
 1194DOPC   NC314005   0.675  27.637  12.788 -0.2704  0.2553 -0.1099
 1194DOPC   PO414006   0.989  27.833  12.657  0.1518 -0.1159 -0.2031
 1194DOPC   GL114007   0.982  28.054  12.921 -0.1680 -0.2032  0.1221
 1194DOPC   GL214008   1.103  28.333  12.866  0.2532 -0.3531 -0.1528
 1194DOPC   C1A14009   0.666  28.087  13.229 -0.1247 -0.1488 -0.0235
 1194DOPC   D2A14010   0.507  28.118  13.645 -0.0205 -0.3133 -0.1694
 1194DOPC   C3A14011   0.245  28.508  13.670  0.0262 -0.1697 -0.1149
 1194DOPC   C4A14012   0.046  28.888  13.695 -0.2984 -0.0612 -0.1927
 1194DOPC   C1B14013   0.779  28.595  13.064  0.3616  0.0516  0.1331
 1194DOPC   D2B14014   0.719  28.625  13.527 -0.2042  0.2887  0.1186
 1194DOPC   C3B14015   0.651  28.994  13.692 -0.1433 -0.0016 -0.1989
 1194DOPC   C4B14016   0.677  29.470  13.598 -0.2444  0.3019 -0.3208
 1195DOPC   NC314017   3.429  23.590  12.816 -0.3596  0.3925 -0.1067
 1195DOPC   PO414018   3.778  23.805  12.737  0.3420  0.0718 -0.0965
 1195DOPC   GL114019   3.771  24.271  12.638  0.0221 -0.0548  0.0727
 1195DOPC   GL214020   3.890  24.256  12.908 -0.1616  0.1618  0.1012
 1195DOPC   C1A14021   3.867  24.748  12.691  0.1045 -0.3420 -0.0520
 1195DOPC   D2A14022   3.709  25.150  12.834 -0.0789  0.2152 -0.0102
 1195DOPC   C3A14023   3.874  25.498  12.799 -0.2591  0.2909 -0.2152
 1195DOPC   C4A14024   4.190  25.824  12.742 -0.1312 -0.1509 -0.0601
 1195DOPC   C1B14025   4.041  24.499  13.250  0.1512 -0.2683 -0.2368
 1195DOPC   D2B14026   3.938  24.697  13.688 -0.1959  0.0706 -0.0442
 1195DOPC   C3B14027   3.896  25.133  13.745 -0.0362 -0.0129  0.3009
 1195DOPC   C4B14028   4.221  25.447  13.724  0.1643  0.1244 -0.1705
 1196POSM   NC314029  10.858  28.577  11.194  0.1885 -0.1129  0.0046
 1196POSM   PO414030  10.833  28.746  11.540  0.3817  0.0522 -0.0540
 1196POSM   AM114031  10.962  28.787  11.833  0.0486 -0.5091  0.3557
 1196POSM   AM214032  11.046  28.940  12.054 -0.2579 -0.1278  0.1498
 1196POSM   T1A14033  11.206  28.504  12.164 -0.0563  0.1100 -0.3473
 1196POSM   C2A14034  11.486  28.161  12.346  0.1797 -0.0657  0.1432
 1196POSM   C3A14035  11.822  28.116  12.616 -0.0951 -0.3254 -0.1490
 1196POSM   C1B14036  10.831  29.060  12.259  0.1194 -0.1300  0.1990
 1196POSM   D2B14037  10.538  29.396  12.332 -0.1554 -0.1709 -0.1407
 1196POSM   C3B14038  10.378  29.507  12.748  0.2676  0.0359  0.0146
 1196POSM   C4B14039  10.144  29.424  13.150 -0.1968  0.1042 -0.1371
 1197POSM   NC314040   0.561  33.628  12.073 -0.1765  0.0206 -0.2174
 1197POSM   PO414041   0.872  33.800  12.312 -0.1579 -0.1034 -0.0494
 1197POSM   AM114042   0.748  33.530  12.465 -0.1880 -0.1079 -0.3449
 1197POSM   AM214043   0.852  33.450  12.718 -0.0590  0.1992  0.1019
 1197POSM   T1A14044   0.365  33.233  12.522  0.1660 -0.2123 -0.0018
 1197POSM   C2A14045  -0.157  33.230  12.618  0.0929  0.0047  0.0073
 1197POSM   C3A14046  -0.612  33.196  12.607 -0.1294  0.1250 -0.1059
 1197POSM   C1B14047   0.937  33.415  13.045  0.1718 -0.3227 -0.2255
 1197POSM   D2B14048   1.282  33.526  13.331  0.0830 -0.2724  0.2904
 1197POSM   C3B14049   1.322  33.454  13.776 -0.0947 -0.3858 -0.2008
 1197POSM   C4B14050   1.423  33.484  14.193 -0.2119  0.0894  0.0375
 1198DOPS   CNO14051   6.778  26.344  11.977 -0.3722 -0.2241  0.4024
 1198DOPS   PO414052   6.588  26.602  12.163 -0.1236 -0.0413 -0.2243
 1198DOPS   GL114053   6.847  26.254  12.454  0.1249 -0.2637 -0.3613
 1198DOPS   GL214054   6.775  26.026  12.430  0.0564  0.1183  0.2804
 1198DOPS   C1A14055   7.146  26.271  12.852  0.0359 -0.2591 -0.2822
 1198DOPS   D2A14056   7.527  26.426  13.021 -0.2629 -0.0621 -0.1286
 1198DOPS   C3A14057   7.893  26.111  13.176 -0.1776 -0.4414 -0.1599
 1198DOPS   C4A14058   8.152  25.901  12.887 -0.1509 -0.1002  0.1651
 1198DOPS   C1B14059   7.205  25.836  12.555  0.2737  0.1293  0.3520
 1198DOPS   D2B14060   7.508  25.884  12.897  0.1670  0.1476 -0.0317
 1198DOPS   C3B14061   7.617  25.624  13.255 -0.0408  0.0412  0.0360
 1198DOPS   C4B14062   7.698  25.325  13.559 -0.0047 -0.1370  0.2464
 1199POSM   NC314063   2.848  23.689  13.197  0.2125  0.0273 -0.1488
 1199POSM   PO414064   2.674  23.563  13.538 -0.2745 -0.0005 -0.0257
 1199POSM   AM114065   2.613  23.413  13.806  0.1653 -0.1867 -0.3931
 1199POSM   AM214066   2.733  23.197  13.908  0.1734  0.0258 -0.0063
 1199POSM   T1A14067   2.282  23.295  14.163 -0.1080  0.2130 -0.1644
 1199POSM   C2A14068   2.337  23.048  14.556  0.2381 -0.0945 -0.0615
 1199POSM   C3A14069   2.105  22.886  14.940  0.0126 -0.2570  0.1380
 1199POSM   C1B14070   2.661  23.017  14.181 -0.1860  0.0411 -0.1292
 1199POSM   D2B14071   2.820  22.803  14.535 -0.0036 -0.0405 -0.3069
 1199POSM   C3B14072   2.640  22.889  14.941  0.1302  0.2404  0.3455
 1199POSM   C4B14073   2.350  23.286  15.094 -0.2627  0.2770 -0.1246
 1200DOPE   NH314074   5.494  31.057  11.286  0.3333 -0.0508  0.0473
 1200DOPE   PO414075   5.340  31.352  11.238 -0.0178 -0.0346  0.0682
 1200DOPE   GL114076   5.383  31.483  11.612  0.1844  0.0887 -0.0429
 1200DOPE   GL214077   5.187  31.283  11.686 -0.0574 -0.3015  0.2676
 1200DOPE   C1A14078   5.170  31.760  11.947  0.0924 -0.0218 -0.1032
 1200DOPE   D2A14079   4.988  31.628  12.355  0.1540  0.3678 -0.2042
 1200DOPE   C3A14080   4.882  31.205  12.555  0.1077  0.2759 -0.1487
 1200DOPE   C4A14081   4.631  30.771  12.669 -0.0337 -0.0278  0.4238
 1200DOPE   C1B14082   4.838  31.373  11.919 -0.1381  0.0394 -0.3661
 1200DOPE   D2B14083   4.500  31.404  12.225  0.0158 -0.1093 -0.0734
 1200DOPE   C3B14084   4.559  31.587  12.665 -0.3228 -0.0453  0.3173
 1200DOPE   C4B14085   4.308  31.581  13.099  0.3282  0.0859  0.1758
 1201DOPE   NH314086   2.898  23.191  13.178 -0.0883 -0.0306 -0.0246
 1201DOPE   PO414087   2.983  23.310  12.917  0.0861 -0.0066  0.0466
 1201DOPE   GL114088   2.987  23.626  12.587  0.0065  0.3650  0.1254
 1201DOPE   GL214089   2.868  23.846  12.664  0.0123 -0.2084 -0.0302
 1201DOPE   C1A14090   3.165  23.715  12.241 -0.2260 -0.1230 -0.2085
 1201DOPE   D2A14091   3.538  24.040  12.296 -0.2802 -0.1332  0.0844
 1201DOPE   C3A14092   3.398  24.464  12.453 -0.1650 -0.0673  0.1743
 1201DOPE   C4A14093   3.276  24.875  12.582 -0.2657  0.2254 -0.1549
 1201DOPE   C1B14094   2.615  24.189  12.898 -0.0145  0.0005  0.1623
 1201DOPE   D2B14095   2.549  24.521  13.169 -0.1413 -0.0156  0.0816
 1201DOPE   C3B14096   2.376  24.929  13.040  0.2658  0.2841  0.0890
 1201DOPE   C4B14097   1.981  25.168  13.208  0.0138  0.2451 -0.1024
 1202DOPE   NH314098   3.156  23.809  13.818 -0.0677  0.1604 -0.2138
 1202DOPE   PO414099   3.239  23.926  13.479 -0.1036  0.2605  0.1347
 1202DOPE   GL114100   2.963  24.134  13.251 -0.0863 -0.1249 -0.1744
 1202DOPE   GL214101   2.768  24.142  13.414  0.0941  0.3137 -0.1714
 1202DOPE   C1A14102   3.037  24.625  13.273 -0.5060  0.2051  0.4684
 1202DOPE   D2A14103   2.804  25.004  13.446 -0.1065  0.1063  0.1842
 1202DOPE   C3A14104   2.338  25.085  13.568  0.2849 -0.1223  0.0541
 1202DOPE   C4A14105   1.928  25.024  13.733  0.1156  0.3527 -0.0491
 1202DOPE   C1B14106   2.660  24.508  13.635 -0.0782 -0.1133  0.0431
 1202DOPE   D2B14107   2.520  24.695  14.058  0.0149  0.0909  0.1142
 1202DOPE   C3B14108   2.436  24.403  14.387  0.1208 -0.0408  0.2340
 1202DOPE   C4B14109   2.664  23.973  14.463  0.0176 -0.3140  0.1261
 1203DOPS   CNO14110   4.579  23.330  12.952 -0.0587  0.1774  0.1821
 1203DOPS   PO414111   4.573  23.526  13.292  0.2433 -0.0292  0.0563
 1203DOPS   GL114112   4.658  23.730  13.616  0.0262 -0.4104 -0.3295
 1203DOPS   GL214113   4.647  23.629  13.805 -0.1363 -0.2176 -0.1537
 1203DOPS   C1A14114   4.746  24.146  13.815 -0.0593 -0.0286  0.1349
 1203DOPS   D2A14115   4.842  24.119  14.289 -0.4969  0.2985  0.0499
 1203DOPS   C3A14116   4.580  24.136  14.610  0.2106  0.0361  0.2462
 1203DOPS   C4A14117   4.235  24.086  14.868  0.0857 -0.1812 -0.1951
 1203DOPS   C1B14118   4.612  23.659  14.243  0.1018 -0.3054 -0.2527
 1203DOPS   D2B14119   4.413  23.586  14.653  0.0562 -0.2146 -0.0837
 1203DOPS   C3B14120   4.670  23.842  15.014 -0.1988  0.1232  0.0425
 1203DOPS   C4B14121   4.889  24.281  15.171 -0.2169  0.1059 -0.6778
 1204POSM   NC314122   7.002  26.664  12.498 -0.0905 -0.2631 -0.0137
 1204POSM   PO414123   6.631  26.662  12.646  0.2966  0.0427  0.6477
 1204POSM   AM114124   6.665  26.630  12.978  0.0167 -0.0103 -0.3381
 1204POSM   AM214125   6.558  26.594  13.247 -0.3803 -0.1511  0.0823
 1204POSM   T1A14126   7.041  26.568  13.300  0.2325 -0.0257 -0.2755
 1204POSM   C2A14127   7.357  26.304  13.522 -0.1824 -0.0992  0.1445
 1204POSM   C3A14128   7.660  26.057  13.758 -0.3203 -0.1330  0.0037
 1204POSM   C1B14129   6.517  26.685  13.519 -0.1308  0.1973 -0.0603
 1204POSM   D2B14130   6.411  26.657  13.964  0.1506  0.1439 -0.3183
 1204POSM   C3B14131   6.082  26.337  14.078  0.0242 -0.0788 -0.3046
 1204POSM   C4B14132   5.867  25.919  14.069  0.0398  0.2579 -0.0846
 1205POSM   NC314133   9.240  27.561  11.336  0.2088  0.2005  0.2192
 1205POSM   PO414134   9.520  27.796  11.161 -0.3376  0.1619  0.2210
 1205POSM   AM114135   9.563  27.867  11.486  0.1577 -0.1558 -0.0084
 1205POSM   AM214136   9.507  28.087  11.676  0.2412  0.0119 -0.3568
 1205POSM   T1A14137   9.936  28.077  11.775  0.2473  0.1235 -0.3186
 1205POSM   C2A14138  10.355  28.174  11.961 -0.1414 -0.0981  0.0346
 1205POSM   C3A14139  10.732  27.911  12.008 -0.1655  0.0925 -0.0784
 1205POSM   C1B14140   9.444  28.369  11.937 -0.0164 -0.0364  0.0770
 1205POSM   D2B14141   9.310  28.815  12.025 -0.2647  0.1683  0.0707
 1205POSM   C3B14142   9.557  29.109  12.283 -0.1842 -0.0756  0.3227
 1205POSM   C4B14143   9.944  29.387  12.415 -0.0118  0.1075  0.3256
 1206DOPE   NH314144   7.755  26.469  11.988 -0.0845  0.1499 -0.0303
 1206DOPE   PO414145   8.018  26.505  12.226 -0.0218  0.1069 -0.1203
 1206DOPE   GL114146   8.198  26.406  12.488  0.1380  0.2625 -0.2276
 1206DOPE   GL214147   8.105  26.376  12.737  0.0996 -0.1837 -0.0914
 1206DOPE   C1A14148   8.480  26.648  12.745  0.3094 -0.0990  0.0339
 1206DOPE   D2A14149   8.471  26.777  13.170  0.0191 -0.0761  0.2380
 1206DOPE   C3A14150   8.863  26.907  13.415 -0.2736 -0.1379 -0.2034
 1206DOPE   C4A14151   9.201  26.760  13.731 -0.1305 -0.2294  0.4564
 1206DOPE   C1B14152   8.430  26.309  13.075  0.0683  0.0961 -0.0153
 1206DOPE   D2B14153   8.815  26.317  13.386 -0.0915 -0.0614 -0.1078
 1206DOPE   C3B14154   8.932  25.851  13.346 -0.1004  0.0715 -0.1554
 1206DOPE   C4B14155   8.925  25.395  13.431  0.3793  0.1798  0.0611
 1207DOPS   CNO14156   0.675  34.305  12.438  0.0434 -0.0264 -0.0903
 1207DOPS   PO414157   0.801  34.180  12.772  0.0854  0.3408 -0.0766
 1207DOPS   GL114158   1.077  34.438  12.915  0.3133 -0.2052 -0.2479
 1207DOPS   GL214159   1.276  34.326  12.933  0.1443 -0.4114 -0.1734
 1207DOPS   C1A14160   1.126  34.493  13.414  0.0462 -0.1568 -0.0800
 1207DOPS   D2A14161   1.166  34.329  13.813 -0.0818 -0.0984  0.2212
 1207DOPS   C3A14162   1.385  34.589  14.153  0.1059  0.0821 -0.2725
 1207DOPS   C4A14163   1.387  34.615  14.617 -0.0437 -0.3618  0.2489
 1207DOPS   C1B14164   1.280  33.996  13.274 -0.0864 -0.1017 -0.0895
 1207DOPS   D2B14165   1.085  33.855  13.690  0.1405 -0.0323 -0.0744
 1207DOPS   C3B14166   0.869  33.916  14.111 -0.2720  0.0185 -0.0516
 1207DOPS   C4B14167   1.097  34.228  14.326 -0.1235  0.0711  0.0810
 1208DOPE   NH314168   6.079  30.986  11.414 -0.6892  0.2695 -0.2288
 1208DOPE   PO414169   5.858  30.716  11.521  0.0085 -0.2440  0.2249
 1208DOPE   GL114170   6.051  30.859  11.944  0.0319 -0.3651 -0.0994
 1208DOPE   GL214171   5.959  30.663  12.074 -0.0170 -0.1173  0.0250
 1208DOPE   C1A14172   6.155  30.982  12.415 -0.1620  0.3219 -0.0697
 1208DOPE   D2A14173   6.418  30.783  12.726  0.1035  0.0121  0.0313
 1208DOPE   C3A14174   6.820  30.875  12.984  0.1785  0.1316 -0.1893
 1208DOPE   C4A14175   7.183  31.172  13.069 -0.3066  0.0853  0.0971
 1208DOPE   C1B14176   5.968  30.509  12.490  0.2652  0.1823  0.0962
 1208DOPE   D2B14177   6.044  30.508  12.975 -0.0108 -0.1031  0.1310
 1208DOPE   C3B14178   6.041  30.178  13.281  0.1366  0.1536  0.1161
 1208DOPE   C4B14179   6.360  30.113  13.582 -0.0462  0.2864  0.0765
 1209POSM   NC314180  34.264  25.124  13.047  0.2166  0.1169  0.1639
 1209POSM   PO414181  33.976  24.868  13.199  0.2133 -0.2036 -0.0773
 1209POSM   AM114182  34.251  24.716  13.287  0.2717  0.1989 -0.0234
 1209POSM   AM214183  34.345  24.642  13.558 -0.0974  0.0696 -0.0479
 1209POSM   T1A14184  34.682  24.478  13.211  0.1171 -0.0119  0.2786
 1209POSM   C2A14185  34.927  24.195  12.965  0.1237 -0.2608 -0.1916
 1209POSM   C3A14186  35.212  23.847  12.876  0.0252 -0.0490  0.3188
 1209POSM   C1B14187  34.534  24.654  13.879 -0.2906 -0.4081 -0.4949
 1209POSM   D2B14188  34.556  24.816  14.291 -0.1705  0.0768 -0.1246
 1209POSM   C3B14189  34.625  24.982  14.687 -0.0469 -0.3952  0.1542
 1209POSM   C4B14190  34.734  24.737  15.057  0.2414  0.0600 -0.0196
 1210POSM   NC314191   0.597   0.628  12.492  0.2587 -0.1394  0.4380
 1210POSM   PO414192   0.630   0.254  12.609 -0.1170  0.1822 -0.3424
 1210POSM   AM114193   0.628   0.059  12.892  0.1920  0.1042  0.0866
 1210POSM   AM214194   0.836   0.112  13.098 -0.2323  0.3720  0.2689
 1210POSM   T1A14195   0.562  -0.210  13.314 -0.0141 -0.0111 -0.0645
 1210POSM   C2A14196   0.476  -0.606  13.594 -0.1645  0.1689  0.1057
 1210POSM   C3A14197   0.356  -0.624  14.064 -0.0675  0.0658 -0.0487
 1210POSM   C1B14198   0.826   0.323  13.417  0.0695  0.1653 -0.2315
 1210POSM   D2B14199   0.757   0.717  13.681  0.2359  0.0171  0.0639
 1210POSM   C3B14200   0.443   0.929  13.848  0.1306 -0.0323  0.0644
 1210POSM   C4B14201   0.119   1.056  14.115 -0.1658  0.1352 -0.0672
 1211DOPC   NC314202   2.795  30.449  11.796  0.0807  0.0309 -0.0807
 1211DOPC   PO414203   3.119  30.571  11.949  0.0209 -0.0013  0.1551
 1211DOPC   GL114204   3.082  30.811  12.315 -0.0241 -0.2088  0.0456
 1211DOPC   GL214205   3.265  31.031  12.458  0.0370 -0.3270  0.0359
 1211DOPC   C1A14206   2.734  31.011  12.562  0.1435 -0.1430 -0.0664
 1211DOPC   D2A14207   2.640  31.244  12.944  0.3987  0.4240 -0.0458
 1211DOPC   C3A14208   2.629  31.693  12.941 -0.2142 -0.1113 -0.3689
 1211DOPC   C4A14209   2.638  32.189  12.991 -0.1236 -0.2600  0.1475
 1211DOPC   C1B14210   3.080  31.412  12.613  0.0386  0.3593  0.3535
 1211DOPC   D2B14211   3.325  31.644  12.833  0.2955 -0.1429 -0.2043
 1211DOPC   C3B14212   3.150  31.676  13.248  0.2701  0.0616 -0.1173
 1211DOPC   C4B14213   3.007  31.409  13.572  0.3084  0.1576 -0.0656
 1212POSM   NC314214   0.240  31.669  13.061  0.0585 -0.1967  0.0949
 1212POSM   PO414215   0.330  31.399  12.787 -0.0648  0.0198  0.3778
 1212POSM   AM114216   0.288  31.091  12.928  0.1787  0.0700 -0.0424
 1212POSM   AM214217   0.132  30.977  13.167 -0.3881 -0.1061  0.2524
 1212POSM   T1A14218   0.577  30.746  13.226 -0.2429  0.0031 -0.2217
 1212POSM   C2A14219   0.737  30.459  13.505 -0.0603 -0.0297 -0.1646
 1212POSM   C3A14220   1.019  30.120  13.606  0.0204 -0.1676  0.1983
 1212POSM   C1B14221   0.018  31.229  13.324 -0.0437  0.0395  0.1244
 1212POSM   D2B14222   0.006  31.371  13.773  0.1137  0.0383  0.2700
 1212POSM   C3B14223   0.080  31.032  14.056  0.0515 -0.0313  0.0475
 1212POSM   C4B14224   0.098  30.566  14.125 -0.2187  0.0287 -0.1175
 1213DOPE   NH314225   4.520  24.250  12.869 -0.0313 -0.0896  0.0802
 1213DOPE   PO414226   4.307  24.097  12.613 -0.1894 -0.3910 -0.3612
 1213DOPE   GL114227   4.285  24.569  12.760 -0.2404  0.0930  0.1638
 1213DOPE   GL214228   4.418  24.750  12.595  0.1572  0.1239  0.2564
 1213DOPE   C1A14229   4.188  24.972  13.021  0.1603 -0.0434 -0.0586
 1213DOPE   D2A14230   4.437  25.337  13.041 -0.0383 -0.4291 -0.3199
 1213DOPE   C3A14231   4.904  25.251  13.010  0.0056  0.1756 -0.1409
 1213DOPE   C4A14232   5.094  24.875  13.085 -0.1386 -0.0130  0.2334
 1213DOPE   C1B14233   4.454  25.214  12.518  0.1853  0.2863 -0.0055
 1213DOPE   D2B14234   4.715  25.582  12.649 -0.0384 -0.0398  0.1564
 1213DOPE   C3B14235   4.718  25.753  13.039  0.2525 -0.1110  0.0413
 1213DOPE   C4B14236   4.666  25.628  13.543 -0.0309 -0.3924 -0.0008
 1214DOPS   CNO14237   2.540  28.354  12.802 -0.2651  0.1381  0.0818
 1214DOPS   PO414238   2.900  28.308  12.985 -0.1750 -0.0179 -0.1398
 1214DOPS   GL114239   3.127  28.364  13.204  0.0428 -0.1963  0.0112
 1214DOPS   GL214240   3.178  28.665  13.129  0.2677  0.2744  0.1545
 1214DOPS   C1A14241   3.028  28.171  13.629 -0.4144  0.1547 -0.0708
 1214DOPS   D2A14242   2.687  27.988  13.879 -0.1229  0.2449  0.1531
 1214DOPS   C3A14243   2.234  27.796  13.903  0.2152  0.1161  0.0878
 1214DOPS   C4A14244   1.783  27.944  13.962  0.0318  0.1555 -0.0076
 1214DOPS   C1B14245   3.170  28.703  13.541  0.0906  0.4951  0.4021
 1214DOPS   D2B14246   3.260  29.023  13.847 -0.0643  0.3047  0.0556
 1214DOPS   C3B14247   3.611  28.729  14.080 -0.0543  0.2869  0.0315
 1214DOPS   C4B14248   3.713  28.245  14.180 -0.3797  0.3203 -0.3329
 1215DOPC   NC314249   2.543  29.359  12.934  0.0145  0.0723  0.0398
 1215DOPC   PO414250   2.898  29.520  12.841 -0.5705  0.2379  0.0744
 1215DOPC   GL114251   2.636  29.731  12.692  0.4202  0.0784 -0.1044
 1215DOPC   GL214252   2.513  29.614  12.475  0.1804 -0.1722  0.1380
 1215DOPC   C1A14253   2.256  29.917  12.881 -0.3610  0.2327  0.2803
 1215DOPC   D2A14254   2.289  29.933  13.356 -0.1572 -0.2578 -0.1075
 1215DOPC   C3A14255   2.532  30.333  13.505  0.2837  0.1026  0.2270
 1215DOPC   C4A14256   2.819  30.594  13.676 -0.2420 -0.2557 -0.2404
 1215DOPC   C1B14257   2.363  30.044  12.392 -0.2869  0.5053 -0.2595
 1215DOPC   D2B14258   2.126  30.337  12.635 -0.1491 -0.0537 -0.0588
 1215DOPC   C3B14259   2.153  30.387  13.077 -0.0777  0.3237 -0.2214
 1215DOPC   C4B14260   1.991  30.343  13.510  0.0098  0.0761  0.2893
 1216DOPC   NC314261   7.252  32.868  10.668  0.0273  0.0966 -0.1392
 1216DOPC   PO414262   7.645  32.826  10.639 -0.0853  0.0032  0.0801
 1216DOPC   GL114263   7.733  32.910  11.069  0.1240 -0.0316  0.0401
 1216DOPC   GL214264   7.554  32.743  11.176  0.1671 -0.1385  0.3357
 1216DOPC   C1A14265   7.775  33.167  11.449  0.0277  0.1303  0.1530
 1216DOPC   D2A14266   7.790  33.148  11.902 -0.2397 -0.3177  0.0126
 1216DOPC   C3A14267   7.475  32.824  12.082  0.1464 -0.0082 -0.0704
 1216DOPC   C4A14268   7.167  32.503  12.146 -0.1515  0.1574 -0.0048
 1216DOPC   C1B14269   7.476  32.577  11.575  0.3582  0.0075 -0.2249
 1216DOPC   D2B14270   7.528  32.240  11.927 -0.2731  0.1254 -0.4321
 1216DOPC   C3B14271   7.856  31.945  11.886  0.0634  0.0733  0.1205
 1216DOPC   C4B14272   8.058  31.567  11.713 -0.0834  0.2270 -0.0937
 1217DOPC   NC314273   2.393  27.699  13.419 -0.0772  0.2797  0.1297
 1217DOPC   PO414274   2.543  28.026  13.324 -0.0164 -0.0354 -0.0597
 1217DOPC   GL114275   2.296  28.227  13.657 -0.0121  0.0279 -0.2482
 1217DOPC   GL214276   2.001  28.133  13.551  0.1986  0.0235  0.2487
 1217DOPC   C1A14277   2.270  28.255  14.126 -0.0311  0.1055 -0.1584
 1217DOPC   D2A14278   2.249  28.174  14.565  0.2907  0.1126 -0.4290
 1217DOPC   C3A14279   2.026  27.795  14.735  0.1050 -0.0460  0.1532
 1217DOPC   C4A14280   2.037  27.506  15.086  0.4021  0.1483 -0.2449
 1217DOPC   C1B14281   1.921  28.458  13.891 -0.0113 -0.2885 -0.0027
 1217DOPC   D2B14282   1.909  28.708  14.292  0.0789 -0.2054 -0.1602
 1217DOPC   C3B14283   2.121  29.033  14.502  0.2904  0.2319 -0.1663
 1217DOPC   C4B14284   2.151  29.445  14.588 -0.0720  0.0619  0.0767
 1218DOPS   CNO14285   5.219  30.447  11.552 -0.0597 -0.1293 -0.0880
 1218DOPS   PO414286   5.380  30.768  11.673 -0.1916  0.0655 -0.0135
 1218DOPS   GL114287   5.429  30.757  12.044 -0.1407  0.0164  0.0614
 1218DOPS   GL214288   5.229  30.960  12.217 -0.1185 -0.0046  0.0560
 1218DOPS   C1A14289   5.713  31.032  12.290 -0.0568 -0.0767 -0.0758
 1218DOPS   D2A14290   5.869  31.428  12.427  0.0441  0.1300 -0.1252
 1218DOPS   C3A14291   5.736  31.566  12.815  0.3693 -0.1394 -0.0739
 1218DOPS   C4A14292   5.578  31.738  13.292 -0.3497  0.0345 -0.3173
 1218DOPS   C1B14293   5.375  31.390  12.177 -0.2508 -0.1424  0.0777
 1218DOPS   D2B14294   5.490  31.745  12.388  0.0539  0.2609  0.1025
 1218DOPS   C3B14295   5.426  31.964  12.744  0.0256 -0.0208 -0.2719
 1218DOPS   C4B14296   5.153  32.097  13.154 -0.0228 -0.2787  0.3002
 1219POSM   NC314297   3.168  22.524  13.471 -0.0137 -0.2481  0.1952
 1219POSM   PO414298   2.970  22.872  13.587 -0.1543  0.3174  0.1302
 1219POSM   AM114299   2.773  22.688  13.768  0.0101  0.2881  0.3808
 1219POSM   AM214300   2.484  22.675  13.779  0.1635 -0.0361  0.2510
 1219POSM   T1A14301   2.601  22.465  14.207  0.3042 -0.0628 -0.0518
 1219POSM   C2A14302   2.466  22.052  14.448  0.1381  0.0445  0.2516
 1219POSM   C3A14303   2.425  21.898  14.866  0.0797  0.3432  0.0440
 1219POSM   C1B14304   2.273  22.792  14.077  0.4059 -0.1113 -0.4202
 1219POSM   D2B14305   1.884  22.907  14.302  0.0964  0.0449 -0.2014
 1219POSM   C3B14306   1.569  23.227  14.160  0.5193  0.0515  0.1984
 1219POSM   C4B14307   1.329  23.568  13.953 -0.1775 -0.1739  0.0412
 1220POSM   NC314308   4.842  34.102  11.090  0.0416  0.1678 -0.1948
 1220POSM   PO414309   4.555  33.763  11.071 -0.0896 -0.3876 -0.0129
 1220POSM   AM114310   4.642  33.635  11.346 -0.0172 -0.0702  0.2085
 1220POSM   AM214311   4.861  33.766  11.526 -0.0085  0.1609  0.0106
 1220POSM   T1A14312   4.646  33.195  11.595 -0.1731 -0.2531 -0.0237
 1220POSM   C2A14313   4.401  32.817  11.767  0.3995 -0.2392 -0.2179
 1220POSM   C3A14314   4.079  32.549  12.074  0.0053  0.1611 -0.0912
 1220POSM   C1B14315   4.890  33.550  11.843  0.1358  0.2950  0.2103
 1220POSM   D2B14316   4.710  33.431  12.238 -0.0775 -0.4739 -0.2672
 1220POSM   C3B14317   4.794  33.752  12.481  0.0508  0.2674 -0.1089
 1220POSM   C4B14318   5.085  34.040  12.542 -0.1745  0.0849  0.1189
 1221DOPE   NH314319  33.581  29.768  12.935  0.2124  0.1608  0.2972
 1221DOPE   PO414320  33.454  29.446  12.972 -0.0104 -0.0849 -0.1030
 1221DOPE   GL114321  33.695  29.283  13.239  0.2477 -0.1287 -0.2279
 1221DOPE   GL214322  33.829  29.498  13.388 -0.2514 -0.1737  0.0892
 1221DOPE   C1A14323  33.827  28.969  13.479 -0.3446 -0.2663 -0.0816
 1221DOPE   D2A14324  34.194  28.762  13.729  0.3086 -0.0941  0.0679
 1221DOPE   C3A14325  34.462  28.599  14.037  0.0440  0.0776 -0.1116
 1221DOPE   C4A14326  34.789  28.416  14.264  0.3412 -0.0032  0.2153
 1221DOPE   C1B14327  34.160  29.446  13.649  0.1203  0.2859 -0.2047
 1221DOPE   D2B14328  34.564  29.339  13.814  0.0749 -0.2747 -0.6417
 1221DOPE   C3B14329  34.696  29.820  13.806 -0.0607  0.0974  0.1351
 1221DOPE   C4B14330  34.750  30.285  13.712 -0.2859  0.2914 -0.1388
 1222DOPC   NC314331   4.863  22.924  13.098 -0.1309  0.3283 -0.2970
 1222DOPC   PO414332   5.248  22.807  13.227  0.0106  0.0123  0.1571
 1222DOPC   GL114333   5.166  22.809  13.675 -0.1971 -0.1851  0.2745
 1222DOPC   GL214334   4.833  22.713  13.605 -0.0595  0.0011 -0.0232
 1222DOPC   C1A14335   5.325  23.006  14.092  0.0270  0.0051  0.1361
 1222DOPC   D2A14336   5.233  23.052  14.618  0.2027 -0.0692  0.2092
 1222DOPC   C3A14337   5.540  22.877  14.922  0.1404  0.1951  0.1467
 1222DOPC   C4A14338   5.650  22.476  15.117  0.4021 -0.1202  0.2284
 1222DOPC   C1B14339   4.603  22.413  13.801  0.1763 -0.2299 -0.0515
 1222DOPC   D2B14340   4.276  22.351  14.117 -0.3987 -0.0721 -0.1932
 1222DOPC   C3B14341   4.041  22.620  14.344  0.0082  0.2731  0.0089
 1222DOPC   C4B14342   3.832  22.847  14.609  0.1663  0.0711  0.0553
 1223POSM   NC314343   9.971  25.678  11.434  0.2443 -0.1343  0.1123
 1223POSM   PO414344  10.344  25.753  11.429  0.1418 -0.0892 -0.0821
 1223POSM   AM114345  10.217  25.838  11.748  0.2230  0.1820 -0.1453
 1223POSM   AM214346  10.467  25.924  11.953 -0.0190 -0.0557 -0.1937
 1223POSM   T1A14347   9.951  25.679  12.155 -0.3296 -0.3350 -0.1955
 1223POSM   C2A14348   9.483  25.474  12.248  0.1144 -0.1196 -0.1031
 1223POSM   C3A14349   9.049  25.592  12.172  0.0782 -0.0095 -0.1757
 1223POSM   C1B14350  10.305  25.972  12.275  0.1344  0.1438  0.3047
 1223POSM   D2B14351  10.258  26.176  12.686  0.1803  0.1462  0.0683
 1223POSM   C3B14352  10.418  26.621  12.711 -0.3111 -0.0203 -0.1120
 1223POSM   C4B14353  10.578  27.097  12.729 -0.2950  0.1454 -0.3071
 1224POSM   NC314354   5.659  30.338  11.795  0.2223  0.0572  0.1006
 1224POSM   PO414355   5.478  30.040  11.605 -0.2191 -0.3329  0.0400
 1224POSM   AM114356   5.478  29.924  11.956 -0.2414  0.0063  0.1721
 1224POSM   AM214357   5.622  30.003  12.209 -0.1721  0.0608 -0.1613
 1224POSM   T1A14358   5.310  29.545  12.273  0.2337  0.1449 -0.0644
 1224POSM   C2A14359   4.816  29.435  12.255  0.0498  0.5754 -0.1818
 1224POSM   C3A14360   4.386  29.418  12.530  0.0375 -0.1504 -0.0304
 1224POSM   C1B14361   5.387  29.948  12.478 -0.0320  0.2258  0.1197
 1224POSM   D2B14362   5.043  29.697  12.691  0.1914 -0.1148  0.0847
 1224POSM   C3B14363   5.061  29.560  13.120  0.2456 -0.1550  0.1872
 1224POSM   C4B14364   4.993  29.496  13.522 -0.0867  0.0874  0.0971
 1225DOPC   NC314365  13.609   8.358  15.083  0.2273  0.2572 -0.1282
 1225DOPC   PO414366  13.503   8.726  15.160 -0.2675 -0.3358  0.3184
 1225DOPC   GL114367  13.541   8.690  14.765  0.0114 -0.0973  0.1129
 1225DOPC   GL214368  13.394   8.901  14.615  0.0972  0.1872 -0.2183
 1225DOPC   C1A14369  13.656   8.465  14.420 -0.1833  0.0972  0.1600
 1225DOPC   D2A14370  13.411   8.181  14.136 -0.0888  0.3816 -0.2650
 1225DOPC   C3A14371  13.206   8.508  13.949  0.0502 -0.1518  0.1460
 1225DOPC   C4A14372  12.900   8.789  13.719 -0.0611  0.0653  0.0355
 1225DOPC   C1B14373  13.567   8.898  14.194 -0.0653  0.1265 -0.0939
 1225DOPC   D2B14374  13.573   8.967  13.720  0.3927  0.5665 -0.3052
 1225DOPC   C3B14375  13.670   8.678  13.350  0.0732 -0.2061  0.0764
 1225DOPC   C4B14376  13.611   8.479  12.901 -0.3629 -0.0121  0.2640
 1226DOPC   NC314377  20.841   2.885  16.377  0.2654  0.3607  0.0180
 1226DOPC   PO414378  20.725   3.170  16.115  0.1602  0.0572 -0.2168
 1226DOPC   GL114379  20.606   3.070  15.809 -0.0471 -0.2519  0.0562
 1226DOPC   GL214380  20.881   3.047  15.680 -0.2829  0.3336  0.0667
 1226DOPC   C1A14381  20.434   3.125  15.388 -0.2023 -0.1663 -0.1822
 1226DOPC   D2A14382  20.383   3.077  14.953  0.1189 -0.1539 -0.1284
 1226DOPC   C3A14383  20.488   3.221  14.487 -0.0964  0.0714 -0.0060
 1226DOPC   C4A14384  20.528   3.235  14.069 -0.0088  0.0996  0.3267
 1226DOPC   C1B14385  21.244   3.076  15.489 -0.1863  0.2123  0.0856
 1226DOPC   D2B14386  21.559   3.310  15.241 -0.1101 -0.2070  0.2266
 1226DOPC   C3B14387  21.552   3.295  14.802  0.2853 -0.1853 -0.1191
 1226DOPC   C4B14388  21.602   3.011  14.453  0.0377  0.3265  0.1097
 1227DOPE   NH314389  20.831   9.067  16.142  0.4098  0.0496  0.0431
 1227DOPE   PO414390  20.678   9.174  15.864  0.2645 -0.5995 -0.1083
 1227DOPE   GL114391  20.721   9.341  15.558  0.0110 -0.3182 -0.3790
 1227DOPE   GL214392  20.790   9.127  15.399 -0.0583  0.4052 -0.2338
 1227DOPE   C1A14393  20.889   9.530  15.159 -0.0049  0.2323  0.0430
 1227DOPE   D2A14394  21.183   9.745  14.892  0.1296 -0.0905 -0.0023
 1227DOPE   C3A14395  21.216   9.799  14.389 -0.0465 -0.5157  0.2893
 1227DOPE   C4A14396  21.343   9.718  13.976 -0.1618 -0.0268 -0.1403
 1227DOPE   C1B14397  20.638   9.040  14.980 -0.1060  0.1076 -0.0100
 1227DOPE   D2B14398  20.504   8.901  14.595 -0.0664  0.0251 -0.4143
 1227DOPE   C3B14399  20.636   9.160  14.155 -0.0366 -0.0457 -0.2201
 1227DOPE   C4B14400  20.888   9.510  14.032 -0.2281  0.1689 -0.3134
 1228DOPE   NH314401  12.802   8.957  15.336 -0.0469  0.2040 -0.0255
 1228DOPE   PO414402  12.603   8.902  15.564 -0.1364  0.1439  0.2756
 1228DOPE   GL114403  12.322   8.753  15.255  0.2954 -0.0002  0.2427
 1228DOPE   GL214404  12.226   9.070  15.223  0.0931 -0.3192  0.1280
 1228DOPE   C1A14405  12.067   8.698  14.874  0.4199 -0.1588  0.0907
 1228DOPE   D2A14406  11.979   8.495  14.455  0.0965  0.2356  0.0608
 1228DOPE   C3A14407  12.065   8.688  14.071  0.0388  0.0561  0.0607
 1228DOPE   C4A14408  12.387   8.864  13.788 -0.1547  0.0720  0.0343
 1228DOPE   C1B14409  12.277   9.536  15.053 -0.3923  0.0243  0.4094
 1228DOPE   D2B14410  12.167   9.895  14.779 -0.0363  0.1092 -0.1212
 1228DOPE   C3B14411  12.215   9.952  14.297  0.0689  0.1156  0.1922
 1228DOPE   C4B14412  11.819  10.023  14.101 -0.0097  0.0783  0.1138
 1229DOPC   NC314413  20.102  11.071  16.134  0.0287  0.1880  0.2045
 1229DOPC   PO414414  20.251  11.424  16.090 -0.0182  0.0117 -0.0182
 1229DOPC   GL114415  20.263  11.314  15.674  0.2414 -0.2783  0.1491
 1229DOPC   GL214416  20.009  11.287  15.663  0.0397  0.1361  0.1183
 1229DOPC   C1A14417  20.368  11.383  15.235  0.1733 -0.2088 -0.1021
 1229DOPC   D2A14418  20.615  11.662  15.005 -0.1328 -0.4382  0.2268
 1229DOPC   C3A14419  20.858  11.431  14.678 -0.1946  0.0166  0.0520
 1229DOPC   C4A14420  21.048  11.077  14.404  0.0220  0.1369 -0.1948
 1229DOPC   C1B14421  19.908  11.249  15.249  0.0156  0.2868  0.1253
 1229DOPC   D2B14422  19.732  11.208  14.812 -0.1188  0.0529  0.0123
 1229DOPC   C3B14423  20.165  11.118  14.570  0.3128 -0.0498 -0.2717
 1229DOPC   C4B14424  20.576  11.067  14.463 -0.3450  0.1110 -0.1873
 1230DOPC   NC314425  21.339   9.927  16.095 -0.0080 -0.2133  0.1654
 1230DOPC   PO414426  21.546   9.674  15.861 -0.0011  0.2498 -0.1915
 1230DOPC   GL114427  21.665   9.928  15.509  0.1601  0.0124  0.0098
 1230DOPC   GL214428  21.682  10.144  15.619 -0.3616 -0.3424 -0.0517
 1230DOPC   C1A14429  22.038  10.008  15.248 -0.1787 -0.1623  0.0571
 1230DOPC   D2A14430  22.212  10.365  14.961  0.0281  0.3460  0.2379
 1230DOPC   C3A14431  22.574  10.618  14.880  0.0652  0.3368  0.0271
 1230DOPC   C4A14432  22.607  11.007  14.663 -0.0418 -0.0880 -0.2574
 1230DOPC   C1B14433  21.866  10.455  15.313  0.1267  0.2713  0.0829
 1230DOPC   D2B14434  22.054  10.871  15.141 -0.2548  0.2480 -0.1679
 1230DOPC   C3B14435  22.138  10.814  14.714  0.3823 -0.0943 -0.1606
 1230DOPC   C4B14436  22.277  10.684  14.282 -0.2817  0.1728  0.0251
 1231POSM   NC314437  13.716   2.830  16.381  0.4214  0.2614 -0.1974
 1231POSM   PO414438  13.724   2.955  16.000 -0.1349  0.3152  0.0404
 1231POSM   AM114439  13.801   2.950  15.653  0.2125 -0.4594 -0.0673
 1231POSM   AM214440  13.952   2.912  15.433 -0.2325 -0.0444 -0.2290
 1231POSM   T1A14441  13.549   3.221  15.257  0.2261 -0.0540  0.0826
 1231POSM   C2A14442  13.380   3.619  15.231  0.1218 -0.0409  0.0390
 1231POSM   C3A14443  13.487   4.024  15.417 -0.0531  0.2788  0.4635
 1231POSM   C1B14444  14.057   3.238  15.430  0.0202  0.1234  0.1007
 1231POSM   D2B14445  14.416   3.546  15.387  0.0673 -0.0743 -0.1257
 1231POSM   C3B14446  14.646   3.342  14.988 -0.0411  0.2581  0.0652
 1231POSM   C4B14447  14.711   3.150  14.633  0.1520 -0.4316  0.2020
 1232DOPS   CNO14448  19.871   8.517  15.981 -0.0813  0.3210  0.2630
 1232DOPS   PO414449  19.838   8.777  15.708  0.0308  0.1294 -0.3820
 1232DOPS   GL114450  19.691   9.006  15.523  0.0779  0.0645  0.2568
 1232DOPS   GL214451  19.467   8.904  15.314  0.1848  0.2362  0.1175
 1232DOPS   C1A14452  19.787   9.299  15.154  0.2273  0.4105  0.1022
 1232DOPS   D2A14453  19.937   9.671  14.888  0.1487  0.2763 -0.1020
 1232DOPS   C3A14454  19.690   9.746  14.521 -0.0076  0.2624  0.0576
 1232DOPS   C4A14455  19.603   9.559  14.118 -0.0350 -0.3151  0.1361
 1232DOPS   C1B14456  19.668   8.913  14.863 -0.0188 -0.1049 -0.0582
 1232DOPS   D2B14457  19.656   9.237  14.537 -0.3349  0.0144 -0.0751
 1232DOPS   C3B14458  19.542   9.050  14.149  0.0679 -0.0287 -0.0048
 1232DOPS   C4B14459  19.738   8.732  13.801 -0.0965 -0.4554 -0.3250
 1233DOPC   NC314460  16.536   2.762  15.766  0.1977  0.1629  0.0724
 1233DOPC   PO414461  16.290   2.781  15.450  0.0186  0.1040 -0.2906
 1233DOPC   GL114462  16.367   2.863  15.097  0.1746  0.1208 -0.3100
 1233DOPC   GL214463  16.172   2.911  14.915  0.0185 -0.2017 -0.2439
 1233DOPC   C1A14464  16.537   2.650  14.691 -0.0266 -0.0524  0.0510
 1233DOPC   D2A14465  16.669   2.440  14.278  0.4454 -0.1105 -0.0420
 1233DOPC   C3A14466  16.988   2.053  14.125 -0.2005  0.1945  0.0940
 1233DOPC   C4A14467  17.311   1.795  14.153  0.2348 -0.1196  0.1245
 1233DOPC   C1B14468  15.688   2.835  14.815  0.2560  0.2616  0.2074
 1233DOPC   D2B14469  15.171   2.984  14.837 -0.1490 -0.1825 -0.2603
 1233DOPC   C3B14470  15.142   3.455  14.875  0.0948  0.0698  0.0745
 1233DOPC   C4B14471  15.450   3.827  14.880  0.3594  0.0801  0.0794
 1234DOPE   NH314472  13.526   5.834  15.451  0.2282  0.3314 -0.1476
 1234DOPE   PO414473  13.558   5.759  15.164 -0.1599  0.0314  0.0989
 1234DOPE   GL114474  13.780   5.785  14.787 -0.1398 -0.1065 -0.3618
 1234DOPE   GL214475  13.876   6.033  14.877  0.0415  0.1400  0.0542
 1234DOPE   C1A14476  13.827   5.499  14.424  0.2751 -0.0842  0.0970
 1234DOPE   D2A14477  13.614   5.168  14.113 -0.1122  0.2058  0.0854
 1234DOPE   C3A14478  13.781   4.771  14.171  0.2566 -0.0085  0.0404
 1234DOPE   C4A14479  14.132   4.454  14.226 -0.0469 -0.0367  0.1202
 1234DOPE   C1B14480  14.161   5.907  14.555 -0.0501 -0.2010 -0.0522
 1234DOPE   D2B14481  14.302   6.104  14.167 -0.1398 -0.0983 -0.0039
 1234DOPE   C3B14482  14.052   6.477  14.009 -0.2848 -0.2620 -0.1796
 1234DOPE   C4B14483  13.921   6.403  13.600 -0.1429 -0.0503 -0.2126
 1235POSM   NC314484  20.267   8.457  15.713 -0.4095  0.1725  0.1373
 1235POSM   PO414485  20.597   8.667  15.651  0.3165  0.0191  0.2388
 1235POSM   AM114486  20.513   8.658  15.355 -0.2416  0.0024 -0.4715
 1235POSM   AM214487  20.251   8.738  15.234  0.0174 -0.0750 -0.0476
 1235POSM   T1A14488  20.403   8.468  14.843 -0.3618 -0.0973  0.1525
 1235POSM   C2A14489  20.396   8.474  14.353 -0.1369  0.0606 -0.2642
 1235POSM   C3A14490  20.330   8.782  13.972  0.1047 -0.2903  0.3132
 1235POSM   C1B14491  20.180   8.867  14.957  0.1710 -0.0895 -0.5381
 1235POSM   D2B14492  20.018   8.868  14.531  0.3558  0.0700 -0.3801
 1235POSM   C3B14493  19.619   8.637  14.425 -0.1058 -0.1452 -0.1254
 1235POSM   C4B14494  19.524   8.346  14.078 -0.0999  0.2829  0.0193
 1236DOPS   CNO14495  17.115  10.683  14.834  0.3297 -0.1993 -0.0357
 1236DOPS   PO414496  17.056  11.099  14.824 -0.0977  0.0448  0.1354
 1236DOPS   GL114497  17.114  11.024  14.440  0.1238 -0.4943 -0.1235
 1236DOPS   GL214498  17.102  11.186  14.224 -0.1741  0.0154  0.0459
 1236DOPS   C1A14499  17.512  10.882  14.330  0.1424  0.0334  0.0109
 1236DOPS   D2A14500  17.938  11.090  14.294 -0.1879 -0.0609  0.1417
 1236DOPS   C3A14501  18.355  10.982  14.141  0.1314 -0.0730 -0.2483
 1236DOPS   C4A14502  18.782  10.956  14.285 -0.3717 -0.0181  0.0672
 1236DOPS   C1B14503  17.350  11.287  13.906 -0.1217 -0.1480  0.1247
 1236DOPS   D2B14504  17.356  11.240  13.467  0.3940  0.2035 -0.1756
 1236DOPS   C3B14505  17.568  10.854  13.304 -0.0671 -0.2954  0.0570
 1236DOPS   C4B14506  17.505  10.376  13.229 -0.2112  0.4033  0.3266
 1237DOPC   NC314507  21.213   2.393  16.334 -0.3555 -0.2752 -0.2481
 1237DOPC   PO414508  21.349   2.031  16.358 -0.2576  0.2223 -0.0225
 1237DOPC   GL114509  21.705   2.004  16.171 -0.0885 -0.3013 -0.0727
 1237DOPC   GL214510  21.710   2.281  16.111  0.2139 -0.2717  0.2772
 1237DOPC   C1A14511  21.894   1.776  15.828  0.0721  0.2128 -0.2947
 1237DOPC   D2A14512  22.083   1.798  15.400  0.2659  0.0054  0.0920
 1237DOPC   C3A14513  21.850   1.766  14.970 -0.4001  0.1817 -0.1718
 1237DOPC   C4A14514  21.600   1.721  14.629 -0.2366 -0.1668 -0.5717
 1237DOPC   C1B14515  21.474   2.498  15.753 -0.0384  0.2052 -0.1751
 1237DOPC   D2B14516  21.240   2.580  15.349  0.3702 -0.0495 -0.0027
 1237DOPC   C3B14517  21.091   2.391  14.965 -0.2506  0.0326 -0.0863
 1237DOPC   C4B14518  21.047   2.314  14.518 -0.0274  0.1678 -0.2275
 1238DOPE   NH314519  16.894   4.462  15.994  0.1023 -0.0306  0.1995
 1238DOPE   PO414520  16.812   4.203  15.850  0.0884  0.0888 -0.0646
 1238DOPE   GL114521  17.082   4.080  15.463  0.0747  0.1268 -0.3993
 1238DOPE   GL214522  17.187   4.348  15.457  0.2069  0.1421 -0.0980
 1238DOPE   C1A14523  16.869   3.847  15.109 -0.0680 -0.0948  0.0217
 1238DOPE   D2A14524  16.851   3.837  14.680 -0.1499 -0.1198 -0.2892
 1238DOPE   C3A14525  17.001   3.454  14.358  0.0855  0.1269 -0.1225
 1238DOPE   C4A14526  17.202   3.152  14.094  0.0679  0.2347  0.1015
 1238DOPE   C1B14527  17.086   4.540  15.022  0.2956  0.1459  0.3308
 1238DOPE   D2B14528  16.907   4.756  14.627 -0.0595  0.0297 -0.3203
 1238DOPE   C3B14529  16.808   5.203  14.614 -0.0615 -0.1535 -0.0110
 1238DOPE   C4B14530  16.660   5.605  14.337  0.0174  0.2054  0.0838
 1239DOPE   NH314531  16.664   5.393  15.828 -0.2158  0.0698 -0.1573
 1239DOPE   PO414532  16.442   5.185  15.854 -0.0321 -0.1218  0.0670
 1239DOPE   GL114533  16.491   5.165  15.508 -0.1523 -0.2721  0.0661
 1239DOPE   GL214534  16.311   5.431  15.326 -0.1303  0.4171 -0.0025
 1239DOPE   C1A14535  16.367   4.804  15.219  0.0075  0.0788  0.1401
 1239DOPE   D2A14536  16.068   4.559  14.902  0.1038  0.4217  0.2187
 1239DOPE   C3A14537  15.999   4.352  14.466  0.2702 -0.2344  0.1496
 1239DOPE   C4A14538  15.805   4.175  14.116  0.0535  0.0781  0.2648
 1239DOPE   C1B14539  16.370   5.249  14.896  0.0742  0.0685  0.0173
 1239DOPE   D2B14540  16.422   4.896  14.713 -0.1073 -0.2644  0.3775
 1239DOPE   C3B14541  16.501   4.933  14.312  0.0567  0.1241  0.3669
 1239DOPE   C4B14542  16.293   4.986  13.895 -0.6346  0.0803 -0.3009
 1240DOPC   NC314543  19.492   9.568  16.366  0.0103  0.0568  0.0210
 1240DOPC   PO414544  19.361   9.925  16.290  0.2211 -0.2082 -0.1460
 1240DOPC   GL114545  19.254   9.995  15.955 -0.0108  0.1010 -0.0251
 1240DOPC   GL214546  19.423   9.955  15.752  0.0723 -0.1938  0.3089
 1240DOPC   C1A14547  18.982  10.008  15.540 -0.1965  0.0285 -0.0396
 1240DOPC   D2A14548  18.813  10.373  15.318 -0.2256 -0.1224  0.0264
 1240DOPC   C3A14549  18.424  10.542  15.194  0.2150  0.1906  0.2144
 1240DOPC   C4A14550  18.022  10.574  15.012 -0.0814 -0.1107  0.0418
 1240DOPC   C1B14551  19.720  10.003  15.401 -0.0059 -0.0959  0.0684
 1240DOPC   D2B14552  20.004  10.162  15.080  0.4111  0.0168 -0.0094
 1240DOPC   C3B14553  19.945  10.523  15.311  0.0776 -0.1365  0.2263
 1240DOPC   C4B14554  19.813  10.852  15.600  0.0061 -0.0476 -0.1012
 1241POSM   NC314555  20.958   6.323  15.789  0.2673 -0.0073  0.2434
 1241POSM   PO414556  20.680   6.630  15.850  0.0737  0.1279  0.2822
 1241POSM   AM114557  20.639   6.626  15.480 -0.1599  0.3855 -0.1884
 1241POSM   AM214558  20.750   6.423  15.289  0.1154 -0.3680 -0.0740
 1241POSM   T1A14559  20.488   6.763  15.008 -0.1898 -0.3375  0.3386
 1241POSM   C2A14560  20.195   6.673  14.673  0.3048 -0.1300 -0.0916
 1241POSM   C3A14561  20.096   6.422  14.282  0.1806 -0.2598 -0.0891
 1241POSM   C1B14562  20.861   6.412  14.984  0.1381 -0.1425 -0.2074
 1241POSM   D2B14563  21.155   6.305  14.598 -0.4236 -0.1603 -0.3061
 1241POSM   C3B14564  21.388   6.465  14.263  0.2146  0.0643  0.2264
 1241POSM   C4B14565  21.734   6.789  14.235 -0.0952  0.0591  0.3628
 1242DOPE   NH314566  12.113   9.617  15.687  0.1601  0.5202 -0.1199
 1242DOPE   PO414567  11.849   9.526  15.532  0.0200  0.0893  0.0293
 1242DOPE   GL114568  11.861   9.829  15.221  0.2290 -0.3087  0.0028
 1242DOPE   GL214569  11.553   9.868  15.329 -0.0527 -0.1406  0.0473
 1242DOPE   C1A14570  11.683  10.272  15.070  0.1556 -0.1239  0.0643
 1242DOPE   D2A14571  11.418  10.407  14.712 -0.2500 -0.0989  0.1265
 1242DOPE   C3A14572  11.667  10.659  14.342 -0.2158  0.0978  0.2644
 1242DOPE   C4A14573  11.746  10.604  13.889  0.0616 -0.2050 -0.2228
 1242DOPE   C1B14574  11.303   9.984  14.984  0.0619  0.0013  0.2691
 1242DOPE   D2B14575  10.971  10.146  14.767 -0.1867  0.0807  0.3714
 1242DOPE   C3B14576  10.905   9.817  14.417 -0.0363  0.0089 -0.0252
 1242DOPE   C4B14577  10.772   9.354  14.456  0.0835 -0.0341  0.0317
 1243DOPS   CNO14578  15.298   1.481  14.909 -0.0299  0.0325 -0.3131
 1243DOPS   PO414579  15.651   1.375  14.934  0.4090 -0.2515  0.3771
 1243DOPS   GL114580  15.674   1.397  14.618  0.0878 -0.4289  0.2481
 1243DOPS   GL214581  15.610   1.679  14.526 -0.2808 -0.0138 -0.2409
 1243DOPS   C1A14582  15.902   1.234  14.241 -0.3140  0.0746 -0.0981
 1243DOPS   D2A14583  16.053   0.856  14.008 -0.0223 -0.5601 -0.2244
 1243DOPS   C3A14584  16.467   0.775  13.752 -0.3545 -0.1948 -0.0453
 1243DOPS   C4A14585  16.777   0.982  13.453 -0.1868  0.0149  0.2380
 1243DOPS   C1B14586  15.250   2.011  14.440 -0.2285  0.0753 -0.1069
 1243DOPS   D2B14587  15.001   2.130  14.148 -0.1264  0.2402 -0.3374
 1243DOPS   C3B14588  15.245   2.207  13.713 -0.3396 -0.0923  0.2147
 1243DOPS   C4B14589  15.230   2.530  13.411 -0.1365  0.3476  0.0343
 1244POSM   NC314590  19.076   7.813  15.708 -0.1171 -0.1478 -0.2367
 1244POSM   PO414591  18.785   7.804  15.989  0.0603 -0.0208  0.2153
 1244POSM   AM114592  18.617   7.693  15.709  0.1331 -0.0821 -0.2206
 1244POSM   AM214593  18.543   7.840  15.475  0.0771 -0.0139 -0.1763
 1244POSM   T1A14594  18.445   7.360  15.382 -0.5776 -0.1838 -0.0663
 1244POSM   C2A14595  18.336   6.953  15.153 -0.2130  0.1497 -0.1555
 1244POSM   C3A14596  18.508   6.747  14.782  0.1018  0.2061 -0.1493
 1244POSM   C1B14597  18.622   8.028  15.222  0.3192  0.1960  0.0832
 1244POSM   D2B14598  18.454   8.425  15.003  0.2754  0.0351 -0.0105
 1244POSM   C3B14599  18.580   8.312  14.582 -0.1522  0.2499  0.1261
 1244POSM   C4B14600  18.529   8.357  14.105  0.1225  0.2766  0.0104
 1245POSM   NC314601  16.228   8.406  15.663 -0.1960 -0.1183 -0.0378
 1245POSM   PO414602  16.129   8.638  15.331 -0.2410 -0.0596 -0.0128
 1245POSM   AM114603  16.121   8.524  14.971 -0.0227 -0.2897  0.0133
 1245POSM   AM214604  16.205   8.302  14.817  0.1691 -0.1046  0.0296
 1245POSM   T1A14605  15.925   8.677  14.566  0.0580  0.1574 -0.0088
 1245POSM   C2A14606  15.752   8.899  14.215 -0.2620  0.0941  0.0858
 1245POSM   C3A14607  15.904   9.056  13.823  0.0734  0.0671  0.0352
 1245POSM   C1B14608  16.171   8.209  14.482 -0.0760  0.0031 -0.0364
 1245POSM   D2B14609  16.187   8.315  14.004 -0.2701 -0.2268 -0.0857
 1245POSM   C3B14610  16.215   8.779  14.032  0.1510  0.0845  0.1138
 1245POSM   C4B14611  16.512   9.080  13.918  0.3698 -0.2135  0.0013
 1246DOPC   NC314612  13.032   0.509  14.719  0.1236 -0.0365 -0.0693
 1246DOPC   PO414613  13.356   0.388  14.660 -0.4045  0.0544  0.3393
 1246DOPC   GL114614  13.558   0.486  14.369 -0.2340 -0.4340  0.0416
 1246DOPC   GL214615  13.811   0.311  14.332 -0.0753  0.1985  0.0373
 1246DOPC   C1A14616  13.469   0.456  13.912 -0.1567  0.1452  0.0950
 1246DOPC   D2A14617  13.411   0.509  13.455 -0.0914 -0.3170 -0.0121
 1246DOPC   C3A14618  13.728   0.629  13.196 -0.1691 -0.4840  0.0271
 1246DOPC   C4A14619  13.896   0.880  12.800  0.4539 -0.1405  0.0083
 1246DOPC   C1B14620  14.112   0.192  14.149 -0.3651 -0.0484 -0.0047
 1246DOPC   D2B14621  14.448  -0.113  13.977 -0.1644  0.5446 -0.0053
 1246DOPC   C3B14622  14.432  -0.287  13.561  0.0754  0.0465  0.1286
 1246DOPC   C4B14623  14.363  -0.167  13.074 -0.2245  0.0958  0.2009
 1247DOPS   CNO14624  18.408   3.976  15.974 -0.1113  0.1576  0.0579
 1247DOPS   PO414625  18.621   3.750  15.763  0.0493 -0.1622 -0.2023
 1247DOPS   GL114626  18.574   3.856  15.427  0.0526 -0.1859  0.0250
 1247DOPS   GL214627  18.381   4.077  15.338 -0.2179  0.1550  0.1041
 1247DOPS   C1A14628  18.676   3.758  14.974  0.0597  0.0267 -0.1194
 1247DOPS   D2A14629  18.741   4.145  14.669 -0.0935  0.2605 -0.0243
 1247DOPS   C3A14630  18.463   4.221  14.358 -0.1244 -0.0783 -0.1550
 1247DOPS   C4A14631  18.091   4.194  14.114 -0.1201 -0.1782  0.3752
 1247DOPS   C1B14632  18.695   4.349  15.157  0.2209  0.2986  0.3051
 1247DOPS   D2B14633  19.078   4.490  14.933  0.4622  0.0011 -0.0624
 1247DOPS   C3B14634  19.266   4.929  14.793  0.0166  0.3562  0.0757
 1247DOPS   C4B14635  19.606   5.113  14.482 -0.2669  0.1548 -0.2767
 1248DOPE   NH314636  20.377  10.036  16.343 -0.1659  0.0219  0.1009
 1248DOPE   PO414637  20.290   9.949  16.034 -0.2172 -0.1677  0.0890
 1248DOPE   GL114638  20.454  10.239  15.792 -0.1798 -0.1032  0.2224
 1248DOPE   GL214639  20.308  10.185  15.542 -0.0723 -0.1863 -0.0693
 1248DOPE   C1A14640  20.680  10.629  15.586 -0.2573 -0.4976 -0.1403
 1248DOPE   D2A14641  20.728  10.956  15.266 -0.0605  0.2456  0.1038
 1248DOPE   C3A14642  20.983  10.987  14.893 -0.0675 -0.1677 -0.0647
 1248DOPE   C4A14643  21.226  10.637  14.700 -0.2588 -0.2269  0.1097
 1248DOPE   C1B14644  20.408  10.449  15.174 -0.0051 -0.0762  0.3785
 1248DOPE   D2B14645  20.616  10.616  14.790 -0.2784 -0.0809  0.0421
 1248DOPE   C3B14646  20.750  10.538  14.382  0.0273 -0.3134 -0.0323
 1248DOPE   C4B14647  21.119  10.696  14.115 -0.2526 -0.5277  0.1232
 1249POSM   NC314648  20.722   6.177  16.316  0.2735  0.3844  0.0145
 1249POSM   PO414649  20.782   5.854  16.144  0.0680 -0.2684 -0.0554
 1249POSM   AM114650  20.877   5.845  15.865  0.1961  0.0798 -0.0186
 1249POSM   AM214651  20.729   5.834  15.615  0.1778  0.2707  0.0278
 1249POSM   T1A14652  21.222   5.915  15.553 -0.2681 -0.2280  0.0873
 1249POSM   C2A14653  21.286   6.085  15.092  0.0724  0.1534  0.3634
 1249POSM   C3A14654  21.638   6.150  14.745 -0.1939 -0.0399 -0.0613
 1249POSM   C1B14655  20.747   5.822  15.235 -0.3090  0.4186  0.0222
 1249POSM   D2B14656  20.728   5.918  14.745 -0.2392 -0.0940 -0.0458
 1249POSM   C3B14657  21.191   5.813  14.675 -0.5087 -0.2083 -0.3491
 1249POSM   C4B14658  21.645   5.715  14.581  0.1348  0.2685 -0.1363
 1250POSM   NC314659  22.609   2.009  16.886 -0.0268 -0.1791  0.0382
 1250POSM   PO414660  22.589   1.893  16.513 -0.0461  0.1172 -0.0413
 1250POSM   AM114661  22.642   1.961  16.203  0.2630  0.3638 -0.2347
 1250POSM   AM214662  22.864   2.104  16.038 -0.2921  0.0856  0.1192
 1250POSM   T1A14663  22.436   1.796  15.774  0.1652 -0.1137 -0.1049
 1250POSM   C2A14664  22.624   1.705  15.395 -0.0610  0.0800 -0.0552
 1250POSM   C3A14665  22.894   1.633  15.024  0.1849  0.1292 -0.0941
 1250POSM   C1B14666  22.678   2.173  15.727  0.0412 -0.1622  0.0405
 1250POSM   D2B14667  22.524   2.239  15.345  0.1596  0.0420 -0.2852
 1250POSM   C3B14668  22.492   1.905  14.979  0.2604 -0.0394 -0.1616
 1250POSM   C4B14669  22.367   1.649  14.669 -0.0527 -0.1140  0.0827
 1251DOPC   NC314670  13.263   8.724  15.586  0.0703 -0.0621 -0.0443
 1251DOPC   PO414671  13.091   8.400  15.561 -0.0300  0.0481  0.1894
 1251DOPC   GL114672  12.864   8.413  15.175  0.0332 -0.1512  0.0868
 1251DOPC   GL214673  13.054   8.602  15.040 -0.3361  0.2183  0.0179
 1251DOPC   C1A14674  12.803   8.035  14.866  0.3832  0.1670  0.0951
 1251DOPC   D2A14675  12.632   7.804  14.467 -0.3251  0.2053 -0.2527
 1251DOPC   C3A14676  12.607   7.816  13.958 -0.1783 -0.2186  0.1763
 1251DOPC   C4A14677  12.451   7.945  13.483 -0.0933  0.4335  0.0772
 1251DOPC   C1B14678  12.930   8.920  14.775 -0.0790  0.1771  0.1757
 1251DOPC   D2B14679  12.603   9.202  14.571 -0.0368 -0.0402  0.1009
 1251DOPC   C3B14680  12.639   9.666  14.554 -0.3448 -0.1847  0.3365
 1251DOPC   C4B14681  12.842  10.073  14.515 -0.1415 -0.1931 -0.1260
 1252DOPC   NC314682  12.705   2.574  14.779 -0.0181  0.2705  0.1426
 1252DOPC   PO414683  12.558   2.218  14.684 -0.2355 -0.0972 -0.2689
 1252DOPC   GL114684  12.754   2.248  14.353  0.0327 -0.3840  0.0619
 1252DOPC   GL214685  12.804   1.985  14.261  0.0444 -0.1095 -0.1990
 1252DOPC   C1A14686  12.596   2.583  14.033  0.2234  0.1680 -0.2434
 1252DOPC   D2A14687  12.181   2.857  14.091 -0.0082  0.3927 -0.2860
 1252DOPC   C3A14688  12.292   3.011  13.662  0.0704  0.2225  0.1526
 1252DOPC   C4A14689  12.144   3.399  13.464 -0.1265 -0.1061 -0.1959
 1252DOPC   C1B14690  12.794   2.201  13.814 -0.1542  0.1383 -0.1524
 1252DOPC   D2B14691  12.488   2.138  13.442 -0.0213 -0.4309 -0.0114
 1252DOPC   C3B14692  12.179   2.316  13.058  0.2369  0.2252 -0.1153
 1252DOPC   C4B14693  11.753   2.272  12.904  0.1975  0.1669  0.0482
 1253POSM   NC314694  18.227  34.526  16.381 -0.0855 -0.4320 -0.3410
 1253POSM   PO414695  18.438  34.739  16.085 -0.2038 -0.2486  0.2102
 1253POSM   AM114696  18.286  34.815  15.821 -0.3383 -0.4246  0.0545
 1253POSM   AM214697  18.293  35.021  15.625  0.0724  0.1564  0.0457
 1253POSM   T1A14698  18.003  34.611  15.470  0.2496  0.0153 -0.0393
 1253POSM   C2A14699  18.152  34.250  15.207  0.0694  0.0019 -0.0902
 1253POSM   C3A14700  17.943  33.870  14.980 -0.0069  0.0268  0.1380
 1253POSM   C1B14701  18.183  35.142  15.338  0.4573  0.0652 -0.2314
 1253POSM   D2B14702  17.912  35.312  15.020  0.1636  0.0385  0.2263
 1253POSM   C3B14703  17.862  35.276  14.546  0.2903  0.1775 -0.4157
 1253POSM   C4B14704  17.705  35.356  14.128 -0.4045  0.1528  0.1567
 1254POSM   NC314705  22.479   5.625  16.397 -0.0671  0.1035  0.1767
 1254POSM   PO414706  22.486   5.275  16.278 -0.1379  0.0980  0.0917
 1254POSM   AM114707  22.593   5.241  15.957 -0.0623  0.1765  0.0851
 1254POSM   AM214708  22.787   5.314  15.733  0.2980  0.0529  0.2050
 1254POSM   T1A14709  22.553   4.917  15.611  0.2062 -0.1342 -0.1872
 1254POSM   C2A14710  22.244   4.674  15.396 -0.2582  0.1504 -0.0357
 1254POSM   C3A14711  22.089   4.314  15.335  0.3656  0.1296 -0.0010
 1254POSM   C1B14712  22.754   5.293  15.372 -0.2860  0.1480  0.1676
 1254POSM   D2B14713  22.888   5.170  14.895 -0.2054 -0.1210  0.0119
 1254POSM   C3B14714  22.731   5.238  14.463 -0.1351  0.4399  0.1959
 1254POSM   C4B14715  22.994   5.206  14.069  0.1072  0.2258 -0.1015
 1255DOPE   NH314716  20.844  12.102  15.850 -0.1138 -0.0804 -0.0758
 1255DOPE   PO414717  20.908  11.818  16.022 -0.3439  0.0454 -0.2176
 1255DOPE   GL114718  21.068  11.611  15.727 -0.0358 -0.0383  0.0856
 1255DOPE   GL214719  21.152  11.425  15.877 -0.0863  0.0720  0.0726
 1255DOPE   C1A14720  21.446  11.498  15.481 -0.3381 -0.0826 -0.0805
 1255DOPE   D2A14721  21.775  11.214  15.279  0.4203 -0.0381 -0.2624
 1255DOPE   C3A14722  21.634  10.912  14.927 -0.0260 -0.0371 -0.1090
 1255DOPE   C4A14723  21.717  10.575  14.601 -0.0562 -0.0335 -0.1944
 1255DOPE   C1B14724  21.238  11.053  15.565  0.1638  0.1748 -0.0310
 1255DOPE   D2B14725  21.320  10.658  15.323 -0.1046 -0.2030  0.0932
 1255DOPE   C3B14726  20.937  10.487  15.181 -0.0388 -0.1284 -0.1085
 1255DOPE   C4B14727  20.853  10.183  14.807  0.2932 -0.1889  0.0423
 1256DOPC   NC314728  18.084   9.344  15.673  0.0354 -0.0602 -0.1704
 1256DOPC   PO414729  17.728   9.518  15.686  0.0472 -0.1216  0.1539
 1256DOPC   GL114730  17.735   9.346  15.306  0.2144  0.1070 -0.6337
 1256DOPC   GL214731  18.003   9.433  15.194 -0.2452 -0.0391 -0.1827
 1256DOPC   C1A14732  17.574   9.506  14.942  0.0917  0.2450 -0.1630
 1256DOPC   D2A14733  17.415   9.713  14.559  0.0476 -0.2124  0.1445
 1256DOPC   C3A14734  17.304   9.793  14.152  0.3450  0.1109  0.0973
 1256DOPC   C4A14735  17.041  10.127  14.001  0.0970 -0.0719 -0.1685
 1256DOPC   C1B14736  18.407   9.374  15.024  0.3993 -0.1459 -0.0294
 1256DOPC   D2B14737  18.651   9.200  14.691  0.1523 -0.0280  0.4488
 1256DOPC   C3B14738  18.773   9.332  14.267  0.0404  0.0161  0.0723
 1256DOPC   C4B14739  18.796   9.590  13.845 -0.0762  0.0980 -0.0411
 1257DOPE   NH314740  19.055   5.576  16.267  0.2856  0.1154  0.1759
 1257DOPE   PO414741  19.071   5.279  16.129  0.1954 -0.2788 -0.3642
 1257DOPE   GL114742  19.081   5.496  15.824 -0.0818  0.4650 -0.1347
 1257DOPE   GL214743  19.220   5.376  15.532 -0.0385 -0.2252 -0.0021
 1257DOPE   C1A14744  19.111   5.891  15.601 -0.0303 -0.0322  0.3471
 1257DOPE   D2A14745  19.107   6.289  15.371 -0.2005 -0.2981 -0.1687
 1257DOPE   C3A14746  19.402   6.459  15.017  0.1121  0.0388  0.0611
 1257DOPE   C4A14747  19.277   6.811  14.772 -0.1254 -0.2387 -0.0327
 1257DOPE   C1B14748  19.158   5.431  15.076 -0.2318  0.0314  0.1918
 1257DOPE   D2B14749  18.886   5.301  14.635  0.1168  0.1297  0.2398
 1257DOPE   C3B14750  18.805   5.629  14.303  0.3455 -0.0626  0.0651
 1257DOPE   C4B14751  19.103   5.935  14.072 -0.0472 -0.1616 -0.0761
 1258DOPE   NH314752  21.975   3.108  16.151 -0.0704 -0.0916  0.1758
 1258DOPE   PO414753  21.794   2.831  16.172 -0.0753  0.2598  0.0443
 1258DOPE   GL114754  21.896   2.676  15.766  0.0946 -0.0947 -0.0649
 1258DOPE   GL214755  22.051   2.897  15.706  0.0636 -0.2173  0.0915
 1258DOPE   C1A14756  21.694   2.763  15.346 -0.2246  0.3968 -0.0844
 1258DOPE   D2A14757  21.563   2.752  14.922 -0.0384 -0.3859 -0.0194
 1258DOPE   C3A14758  21.182   2.872  14.653  0.1039  0.0934  0.0887
 1258DOPE   C4A14759  21.165   3.068  14.185 -0.0442 -0.1170  0.0973
 1258DOPE   C1B14760  22.087   3.134  15.345 -0.2618  0.2638  0.2004
 1258DOPE   D2B14761  22.058   3.309  14.904  0.0219  0.4163  0.2204
 1258DOPE   C3B14762  21.885   3.514  14.490 -0.3714  0.0218 -0.0498
 1258DOPE   C4B14763  21.692   3.753  14.177  0.0875  0.1278  0.2562
 1259DOPE   NH314764  18.086   3.135  15.773 -0.1639 -0.0728 -0.0531
 1259DOPE   PO414765  17.789   3.001  15.719 -0.2696 -0.1462 -0.0161
 1259DOPE   GL114766  17.801   2.996  15.332  0.3093 -0.1938 -0.1776
 1259DOPE   GL214767  18.064   3.139  15.204 -0.0919 -0.0581  0.0930
 1259DOPE   C1A14768  17.681   3.317  14.971 -0.1463 -0.0771 -0.1194
 1259DOPE   D2A14769  17.960   3.339  14.553  0.1202  0.3470 -0.1126
 1259DOPE   C3A14770  18.238   2.967  14.444 -0.1935 -0.1218 -0.2978
 1259DOPE   C4A14771  18.411   2.534  14.538  0.1331  0.0405 -0.1269
 1259DOPE   C1B14772  18.367   3.190  14.900 -0.1830 -0.0985 -0.0290
 1259DOPE   D2B14773  18.579   3.439  14.558  0.1421 -0.3260  0.1998
 1259DOPE   C3B14774  18.833   3.456  14.155  0.0893  0.1403  0.0544
 1259DOPE   C4B14775  18.661   3.374  13.756  0.4141  0.2599 -0.1107
 1260DOPS   CNO14776  13.304   4.560  15.710 -0.3685 -0.0167 -0.1076
 1260DOPS   PO414777  12.994   4.698  15.653  0.0388  0.0167 -0.4873
 1260DOPS   GL114778  12.822   4.756  15.298 -0.0357 -0.0131  0.2384
 1260DOPS   GL214779  12.579   4.867  15.329 -0.0805  0.0937 -0.0457
 1260DOPS   C1A14780  12.994   5.000  14.882  0.2977  0.2015  0.0327
 1260DOPS   D2A14781  12.707   5.247  14.547  0.0832 -0.1006 -0.0098
 1260DOPS   C3A14782  12.843   5.625  14.346  0.0934  0.0724  0.1323
 1260DOPS   C4A14783  12.971   5.944  14.131  0.0335 -0.2432  0.2617
 1260DOPS   C1B14784  12.417   4.739  14.927  0.1161  0.0827  0.0760
 1260DOPS   D2B14785  12.203   4.756  14.479  0.0235  0.0252 -0.0362
 1260DOPS   C3B14786  12.207   4.951  14.020  0.2910 -0.3783  0.0445
 1260DOPS   C4B14787  11.952   5.262  13.807  0.1131 -0.0877 -0.0894
 1261DOPE   NH314788  17.799   7.240  15.940  0.0661 -0.0220  0.1957
 1261DOPE   PO414789  17.618   6.992  15.833 -0.0036 -0.0623 -0.3824
 1261DOPE   GL114790  17.798   6.989  15.417  0.0604 -0.2181 -0.1675
 1261DOPE   GL214791  17.716   6.781  15.278  0.0137  0.1443  0.2039
 1261DOPE   C1A14792  18.004   7.327  15.178 -0.1837 -0.0510 -0.0752
 1261DOPE   D2A14793  18.331   7.375  14.871  0.1403 -0.0903  0.0116
 1261DOPE   C3A14794  18.306   7.167  14.475 -0.3283 -0.0163 -0.0506
 1261DOPE   C4A14795  18.387   7.386  14.076 -0.0398 -0.1728 -0.0550
 1261DOPE   C1B14796  17.990   6.924  14.875  0.0716  0.1610  0.0207
 1261DOPE   D2B14797  18.152   6.632  14.542 -0.0671  0.2923  0.1756
 1261DOPE   C3B14798  18.486   6.311  14.571  0.0268  0.0971 -0.2928
 1261DOPE   C4B14799  18.790   6.046  14.508  0.1507 -0.1230 -0.0564
 1262DOPE   NH314800  15.116   7.191  15.313  0.1297  0.2905 -0.1278
 1262DOPE   PO414801  14.893   7.016  15.402  0.0109  0.3247  0.1296
 1262DOPE   GL114802  14.665   6.890  15.060 -0.0022  0.1411 -0.1168
 1262DOPE   GL214803  14.842   6.648  14.945  0.0776  0.0283 -0.0031
 1262DOPE   C1A14804  14.555   6.817  14.566  0.3679  0.1341 -0.0071
 1262DOPE   D2A14805  14.496   6.618  14.163  0.0250 -0.1620 -0.0610
 1262DOPE   C3A14806  14.711   6.289  13.867  0.0047 -0.1467  0.3044
 1262DOPE   C4A14807  14.795   5.820  13.718  0.0608  0.2608 -0.2979
 1262DOPE   C1B14808  15.085   6.608  14.547 -0.0961  0.0341  0.2991
 1262DOPE   D2B14809  14.963   6.624  14.136 -0.1744 -0.1735 -0.4347
 1262DOPE   C3B14810  15.024   6.749  13.704  0.2112 -0.1916 -0.2605
 1262DOPE   C4B14811  15.209   6.844  13.330  0.2800 -0.0311  0.2768
 1263POSM   NC314812  14.469   0.473  15.274  0.1233  0.0254  0.1719
 1263POSM   PO414813  14.785   0.297  15.051  0.1794 -0.0727  0.0139
 1263POSM   AM114814  14.746   0.313  14.738 -0.1410  0.3784  0.1108
 1263POSM   AM214815  14.654   0.390  14.465 -0.2709  0.0830  0.0083
 1263POSM   T1A14816  14.888  -0.002  14.335  0.3239  0.4266  0.0165
 1263POSM   C2A14817  15.148  -0.356  14.177 -0.2591 -0.1404 -0.0613
 1263POSM   C3A14818  15.604  -0.465  14.188  0.0818 -0.0136 -0.1061
 1263POSM   C1B14819  14.824   0.500  14.218  0.1985 -0.4547  0.2819
 1263POSM   D2B14820  15.008   0.698  13.825 -0.4520  0.2030 -0.0947
 1263POSM   C3B14821  15.109   1.108  13.683  0.2274  0.1072 -0.0899
 1263POSM   C4B14822  15.196   1.326  13.300  0.0831 -0.0867 -0.0351
 1264POSM   NC314823  15.489   2.851  15.856  0.1212  0.0506  0.0567
 1264POSM   PO414824  15.674   3.121  15.655  0.1497 -0.0931  0.0054
 1264POSM   AM114825  15.622   3.393  15.472  0.2969 -0.0456  0.4058
 1264POSM   AM214826  15.448   3.481  15.241  0.0264  0.2436 -0.1448
 1264POSM   T1A14827  15.818   3.770  15.231  0.1171 -0.1876  0.2749
 1264POSM   C2A14828  15.872   4.053  14.851  0.1718 -0.0531 -0.5777
 1264POSM   C3A14829  15.572   4.208  14.590  0.0708  0.0148 -0.0070
 1264POSM   C1B14830  15.609   3.351  15.020 -0.0257 -0.2150  0.1654
 1264POSM   D2B14831  15.496   3.267  14.548  0.1072  0.1061 -0.3190
 1264POSM   C3B14832  15.552   2.949  14.240 -0.0403  0.2839 -0.1523
 1264POSM   C4B14833  15.521   2.911  13.779 -0.0541  0.3879  0.0964
 1265DOPC   NC314834  17.174   7.044  15.620  0.1807 -0.1326 -0.0788
 1265DOPC   PO414835  17.242   6.661  15.637 -0.1390  0.2019  0.0922
 1265DOPC   GL114836  17.120   6.788  15.208 -0.1720 -0.3224  0.1488
 1265DOPC   GL214837  17.318   6.885  15.028 -0.1465 -0.2067 -0.1079
 1265DOPC   C1A14838  16.884   6.843  14.765 -0.1143 -0.0648  0.1541
 1265DOPC   D2A14839  16.817   6.916  14.321  0.0244 -0.0201  0.1083
 1265DOPC   C3A14840  16.422   6.848  14.030  0.1598  0.1075 -0.1500
 1265DOPC   C4A14841  16.080   6.703  13.731 -0.1376  0.4381 -0.1245
 1265DOPC   C1B14842  17.523   7.231  14.940  0.1360 -0.0170  0.3350
 1265DOPC   D2B14843  17.530   7.486  14.518  0.2403 -0.1786  0.0040
 1265DOPC   C3B14844  17.751   7.230  14.188 -0.1987  0.1487  0.0881
 1265DOPC   C4B14845  17.920   6.812  14.105  0.0942 -0.1509  0.0017
 1266DOPC   NC314846  15.100   8.760  15.676 -0.4292 -0.1549  0.2038
 1266DOPC   PO414847  14.856   8.555  15.464 -0.0007 -0.0061 -0.5236
 1266DOPC   GL114848  14.983   8.460  15.121  0.2603  0.1506 -0.2656
 1266DOPC   GL214849  15.261   8.437  15.082 -0.1209  0.2672 -0.0242
 1266DOPC   C1A14850  14.852   8.215  14.706 -0.3318  0.4739 -0.1254
 1266DOPC   D2A14851  14.775   7.893  14.451 -0.0110  0.1609  0.0102
 1266DOPC   C3A14852  14.915   7.870  14.039  0.2458 -0.0141 -0.0309
 1266DOPC   C4A14853  15.338   7.814  13.845 -0.2880  0.2155 -0.2141
 1266DOPC   C1B14854  15.039   8.814  14.826  0.0681  0.1047  0.0963
 1266DOPC   D2B14855  14.923   9.191  14.591  0.2456 -0.0804 -0.1059
 1266DOPC   C3B14856  14.968   9.053  14.107 -0.1441  0.3205  0.0173
 1266DOPC   C4B14857  14.948   8.930  13.636  0.1812  0.1392 -0.1300
 1267POSM   NC314858  13.881   9.553  15.565 -0.0211 -0.0674 -0.2032
 1267POSM   PO414859  14.095   9.711  15.324  0.2989  0.1929  0.4450
 1267POSM   AM114860  14.147   9.480  15.066 -0.0201  0.1023  0.0581
 1267POSM   AM214861  14.323   9.253  14.958  0.1029 -0.1005  0.3396
 1267POSM   T1A14862  14.101   9.526  14.556  0.0750 -0.0523 -0.0341
 1267POSM   C2A14863  14.043   9.651  14.097 -0.3139 -0.0188  0.1952
 1267POSM   C3A14864  13.895   9.698  13.655 -0.0976  0.1929  0.0520
 1267POSM   C1B14865  14.517   9.040  14.780 -0.1156  0.0838 -0.2556
 1267POSM   D2B14866  14.574   8.880  14.380 -0.1462  0.1456  0.2711
 1267POSM   C3B14867  14.487   9.027  13.860  0.0095  0.1378  0.1596
 1267POSM   C4B14868  14.212   8.858  13.538  0.0643 -0.0960  0.0290
 1268DOPC   NC314869  19.868   2.102  15.994 -0.2261  0.0927 -0.1508
 1268DOPC   PO414870  19.532   2.305  15.969  0.0908  0.2048 -0.2134
 1268DOPC   GL114871  19.547   2.254  15.578  0.2583 -0.1823 -0.1187
 1268DOPC   GL214872  19.290   2.078  15.518  0.0858 -0.0624  0.1097
 1268DOPC   C1A14873  19.972   2.107  15.488  0.0756 -0.0361 -0.1027
 1268DOPC   D2A14874  20.115   1.745  15.269  0.2629  0.2622  0.0788
 1268DOPC   C3A14875  20.346   1.797  14.850 -0.1022  0.2114 -0.2912
 1268DOPC   C4A14876  20.721   2.117  14.856  0.0154 -0.1497  0.1348
 1268DOPC   C1B14877  19.571   2.150  15.130 -0.0329  0.0650 -0.1335
 1268DOPC   D2B14878  19.865   2.173  14.739 -0.0654  0.2041 -0.0346
 1268DOPC   C3B14879  20.218   2.286  14.558 -0.0188 -0.0551 -0.0678
 1268DOPC   C4B14880  20.254   2.743  14.310  0.1430 -0.0015 -0.2997
 1269POSM   NC314881  11.348   7.836  15.459 -0.1158 -0.0057  0.3945
 1269POSM   PO414882  11.644   7.858  15.669  0.0594 -0.0911 -0.1886
 1269POSM   AM114883  11.749   7.958  15.374  0.4488  0.1800  0.2120
 1269POSM   AM214884  11.693   8.149  15.155 -0.2015  0.1878 -0.1726
 1269POSM   T1A14885  11.835   7.716  14.931  0.0778 -0.3547 -0.2467
 1269POSM   C2A14886  11.915   7.658  14.530 -0.2269 -0.1224  0.0916
 1269POSM   C3A14887  11.970   7.654  14.083 -0.0843  0.0110  0.0041
 1269POSM   C1B14888  11.700   8.221  14.817 -0.1112 -0.0745  0.0144
 1269POSM   D2B14889  11.727   8.063  14.381 -0.3822 -0.0725  0.3499
 1269POSM   C3B14890  11.870   8.224  13.983  0.0315  0.0438 -0.0667
 1269POSM   C4B14891  11.966   8.490  13.568 -0.0140  0.1798  0.1079
 1270DOPC   NC314892  14.035   5.509  15.445  0.0647  0.0113 -0.2244
 1270DOPC   PO414893  14.409   5.696  15.402  0.1155 -0.0090 -0.4278
 1270DOPC   GL114894  14.605   5.468  15.115 -0.0560 -0.4937  0.3294
 1270DOPC   GL214895  14.617   5.197  15.147 -0.2239  0.0489  0.2498
 1270DOPC   C1A14896  14.649   5.604  14.710  0.0521  0.0270  0.1283
 1270DOPC   D2A14897  14.686   5.792  14.258 -0.0319 -0.0792 -0.1302
 1270DOPC   C3A14898  14.440   5.565  13.939  0.0102  0.3629 -0.0897
 1270DOPC   C4A14899  14.177   5.483  13.561  0.0933  0.1249  0.0435
 1270DOPC   C1B14900  14.316   4.955  14.858 -0.1731 -0.0335 -0.1413
 1270DOPC   D2B14901  14.360   4.833  14.435 -0.2235 -0.0623 -0.0919
 1270DOPC   C3B14902  14.413   4.754  14.007  0.1259  0.1174  0.0522
 1270DOPC   C4B14903  14.524   4.650  13.548 -0.0304 -0.1051  0.3035
 1271POSM   NC314904  13.479  11.291  15.147  0.0741 -0.0186 -0.3477
 1271POSM   PO414905  13.251  11.601  15.049  0.0468 -0.0566  0.1620
 1271POSM   AM114906  13.003  11.544  14.848 -0.2433  0.2098 -0.3618
 1271POSM   AM214907  12.923  11.278  14.782  0.0719  0.1462  0.0326
 1271POSM   T1A14908  12.670  11.533  14.470  0.0433  0.1726 -0.4394
 1271POSM   C2A14909  12.278  11.386  14.314 -0.0683 -0.1112  0.1305
 1271POSM   C3A14910  11.837  11.266  14.428 -0.1050  0.0399  0.1172
 1271POSM   C1B14911  12.963  10.973  14.667 -0.0627 -0.1173  0.0525
 1271POSM   D2B14912  12.919  10.587  14.442 -0.1594 -0.3231  0.2830
 1271POSM   C3B14913  13.235  10.335  14.218 -0.0007 -0.0030  0.0159
 1271POSM   C4B14914  13.345  10.312  13.763  0.0447 -0.0985 -0.1180
 1272DOPE   NH314915  14.515   7.659  15.055  0.1583 -0.1923 -0.1854
 1272DOPE   PO414916  14.706   7.502  15.272 -0.0655  0.2863  0.0569
 1272DOPE   GL114917  14.975   7.508  14.952 -0.0652  0.2107 -0.2478
 1272DOPE   GL214918  14.848   7.272  14.857 -0.0821  0.0973 -0.4315
 1272DOPE   C1A14919  15.185   7.525  14.541 -0.0964 -0.1166 -0.2203
 1272DOPE   D2A14920  15.317   7.392  14.101 -0.0083 -0.0095 -0.1704
 1272DOPE   C3A14921  15.312   6.968  14.122  0.3874 -0.1510  0.0602
 1272DOPE   C4A14922  15.558   6.800  14.424 -0.1363  0.2611 -0.0774
 1272DOPE   C1B14923  14.977   7.127  14.492 -0.2463  0.0990 -0.1402
 1272DOPE   D2B14924  14.775   7.050  14.061 -0.0628  0.0056  0.2192
 1272DOPE   C3B14925  14.677   7.119  13.582  0.2103 -0.2666 -0.3837
 1272DOPE   C4B14926  14.466   7.472  13.378  0.1728  0.0649  0.1108
 1273DOPC   NC314927  20.911   2.033  16.598  0.2140  0.1197 -0.0161
 1273DOPC   PO414928  20.754   2.247  16.287 -0.0127  0.2007 -0.2177
 1273DOPC   GL114929  21.043   2.096  15.990 -0.2327 -0.1975  0.0314
 1273DOPC   GL214930  20.910   1.872  15.905  0.2527  0.3372  0.0252
 1273DOPC   C1A14931  21.405   1.944  15.724 -0.1781 -0.4608 -0.0432
 1273DOPC   D2A14932  21.555   1.643  15.425  0.0365 -0.1160 -0.1384
 1273DOPC   C3A14933  21.333   1.740  15.008  0.3822 -0.1972 -0.1054
 1273DOPC   C4A14934  21.084   1.777  14.648 -0.1418  0.0032  0.1066
 1273DOPC   C1B14935  21.019   2.130  15.464 -0.1582  0.0419  0.3102
 1273DOPC   D2B14936  21.441   2.158  15.227  0.0495  0.1705  0.1006
 1273DOPC   C3B14937  21.612   2.174  14.792 -0.0148  0.1947 -0.0287
 1273DOPC   C4B14938  21.766   2.411  14.425  0.0620  0.1645  0.1775
 1274DOPC   NC314939  17.353   1.877  15.731 -0.0935 -0.0072  0.4043
 1274DOPC   PO414940  17.632   1.687  15.925  0.1341 -0.1714  0.0895
 1274DOPC   GL114941  17.951   1.442  15.573 -0.0219  0.4904 -0.0878
 1274DOPC   GL214942  18.140   1.222  15.640  0.0375 -0.2511 -0.1652
 1274DOPC   C1A14943  17.867   1.232  15.187  0.1553  0.0643 -0.0833
 1274DOPC   D2A14944  17.942   1.085  14.744 -0.1298 -0.1491  0.0757
 1274DOPC   C3A14945  17.690   1.187  14.386 -0.1251  0.0288 -0.0788
 1274DOPC   C4A14946  17.363   1.224  14.019  0.0805  0.0280 -0.0397
 1274DOPC   C1B14947  18.329   0.925  15.242 -0.2043 -0.1474 -0.1049
 1274DOPC   D2B14948  18.434   0.594  14.989  0.0476  0.1866 -0.0831
 1274DOPC   C3B14949  18.157   0.222  14.872  0.2578 -0.2563 -0.2787
 1274DOPC   C4B14950  17.883  -0.125  14.908 -0.0212  0.1319  0.2238
 1275DOPC   NC314951  15.571   5.450  16.007 -0.0751 -0.0953  0.2357
 1275DOPC   PO414952  15.205   5.496  15.895 -0.1983 -0.2155  0.2665
 1275DOPC   GL114953  15.264   5.332  15.571 -0.4053 -0.2076 -0.0797
 1275DOPC   GL214954  15.026   5.371  15.406  0.1406 -0.0306 -0.2768
 1275DOPC   C1A14955  15.416   5.169  15.170 -0.0998 -0.0218 -0.0165
 1275DOPC   D2A14956  15.471   5.558  14.886 -0.1457 -0.2918 -0.2272
 1275DOPC   C3A14957  15.894   5.504  14.716  0.1713 -0.2500 -0.3216
 1275DOPC   C4A14958  16.114   5.239  14.408  0.0633 -0.1124  0.0606
 1275DOPC   C1B14959  15.030   5.325  14.946  0.1402 -0.0316  0.0863
 1275DOPC   D2B14960  14.740   5.090  14.597 -0.1228  0.4056 -0.0177
 1275DOPC   C3B14961  14.645   5.186  14.154 -0.0396 -0.0643  0.1807
 1275DOPC   C4B14962  14.812   5.074  13.764  0.0241  0.0227 -0.2397
 1276DOPC   NC314963  21.601   8.662  15.587 -0.1782 -0.0880 -0.1246
 1276DOPC   PO414964  21.548   8.286  15.792 -0.1635 -0.0682  0.2330
 1276DOPC   GL114965  21.621   8.156  15.496  0.1359  0.0604  0.1828
 1276DOPC   GL214966  21.626   7.890  15.334 -0.3403  0.1534  0.0045
 1276DOPC   C1A14967  21.373   8.406  15.188 -0.0593  0.2031 -0.0778
 1276DOPC   D2A14968  21.402   8.756  14.910 -0.0523 -0.1889 -0.2312
 1276DOPC   C3A14969  21.070   9.114  14.857 -0.1665  0.0583 -0.2524
 1276DOPC   C4A14970  20.753   9.334  14.616 -0.0397 -0.2094 -0.0692
 1276DOPC   C1B14971  21.583   7.969  14.928 -0.0933  0.1379  0.0752
 1276DOPC   D2B14972  21.413   7.653  14.613 -0.1813  0.1292 -0.1048
 1276DOPC   C3B14973  21.448   7.634  14.177 -0.0458  0.1152  0.0639
 1276DOPC   C4B14974  21.590   7.678  13.730  0.3007 -0.0866 -0.0989
 1277DOPS   CNO14975  16.872   5.267  16.273 -0.0553 -0.3289  0.0224
 1277DOPS   PO414976  16.954   5.000  16.019 -0.1412 -0.2050  0.0219
 1277DOPS   GL114977  17.102   5.239  15.689 -0.0085  0.1791 -0.2015
 1277DOPS   GL214978  17.137   5.452  15.533 -0.0291 -0.2016 -0.1608
 1277DOPS   C1A14979  17.203   5.004  15.309 -0.2083 -0.0158  0.3745
 1277DOPS   D2A14980  17.234   5.052  14.871  0.0802  0.1640  0.1883
 1277DOPS   C3A14981  17.668   5.090  14.731  0.2191  0.1787  0.0523
 1277DOPS   C4A14982  18.040   5.153  14.407 -0.1219  0.3855 -0.3437
 1277DOPS   C1B14983  17.334   5.895  15.414  0.4570  0.1938  0.0506
 1277DOPS   D2B14984  17.419   6.326  15.237 -0.0105  0.0939  0.0046
 1277DOPS   C3B14985  17.252   6.453  14.812 -0.2313  0.0552 -0.2447
 1277DOPS   C4B14986  17.084   6.522  14.391 -0.0588 -0.0999 -0.0607
 1278DOPC   NC314987  18.011   4.152  15.722  0.1059  0.1515 -0.2205
 1278DOPC   PO414988  17.869   4.478  15.927 -0.2291 -0.1996 -0.0669
 1278DOPC   GL114989  18.006   4.624  15.594 -0.2086  0.1623 -0.4014
 1278DOPC   GL214990  17.849   4.535  15.427  0.0053 -0.0133  0.2898
 1278DOPC   C1A14991  18.252   4.605  15.197  0.2282 -0.1726  0.1886
 1278DOPC   D2A14992  18.434   4.540  14.792  0.2828  0.2335 -0.0464
 1278DOPC   C3A14993  18.218   4.641  14.381 -0.2516  0.0059 -0.1085
 1278DOPC   C4A14994  18.071   4.789  13.921  0.0251 -0.0811 -0.2517
 1278DOPC   C1B14995  17.553   4.696  15.136 -0.1464  0.1591 -0.4012
 1278DOPC   D2B14996  17.416   4.650  14.657  0.0793 -0.2995  0.0835
 1278DOPC   C3B14997  17.252   5.061  14.365 -0.1799  0.1762 -0.0458
 1278DOPC   C4B14998  16.918   5.158  14.083 -0.0154 -0.0497 -0.3007
 1279DOPS   CNO14999  19.550   7.250  15.904  0.0793 -0.0964 -0.1069
 1279DOPS   PO415000  19.421   7.362  15.598 -0.3993 -0.1026 -0.2006
 1279DOPS   GL115001  19.250   7.563  15.366  0.0259  0.2833 -0.1176
 1279DOPS   GL215002  18.918   7.582  15.298  0.0845 -0.2128 -0.2001
 1279DOPS   C1A15003  19.330   7.628  14.884  0.3742 -0.0359  0.0544
 1279DOPS   D2A15004  19.240   7.327  14.590 -0.0933 -0.1124  0.0098
 1279DOPS   C3A15005  19.115   7.578  14.207  0.2007 -0.1058 -0.1090
 1279DOPS   C4A15006  19.251   7.893  13.895  0.1572  0.1873  0.0552
 1279DOPS   C1B15007  18.802   7.706  14.882  0.1117 -0.2552  0.1108
 1279DOPS   D2B15008  18.667   7.560  14.440 -0.0280 -0.5335  0.3246
 1279DOPS   C3B15009  18.460   7.894  14.291 -0.3776 -0.2017 -0.1640
 1279DOPS   C4B15010  18.101   8.126  14.265  0.0505  0.0471  0.1644
 1280POSM   NC315011  23.607   0.879  16.133 -0.0957  0.1373 -0.0801
 1280POSM   PO415012  23.946   1.001  16.083 -0.0674 -0.0132 -0.2072
 1280POSM   AM115013  24.005   0.929  15.775 -0.3995 -0.1076  0.0391
 1280POSM   AM215014  24.195   0.687  15.692  0.2795  0.0180  0.1752
 1280POSM   T1A15015  24.063   0.897  15.268 -0.2054  0.1661 -0.2609
 1280POSM   C2A15016  24.166   0.643  14.890 -0.2978  0.0234 -0.1515
 1280POSM   C3A15017  24.023   0.589  14.479 -0.0811 -0.0767  0.1472
 1280POSM   C1B15018  24.060   0.444  15.569  0.0646  0.2441  0.2665
 1280POSM   D2B15019  23.673   0.177  15.401 -0.3560 -0.1297  0.0543
 1280POSM   C3B15020  23.224   0.392  15.367 -0.0637  0.0742 -0.1348
 1280POSM   C4B15021  22.921   0.615  15.134 -0.0322 -0.1766  0.0301
 1281DOPS   CNO15022  16.213   5.617  15.970  0.2553 -0.1138  0.1241
 1281DOPS   PO415023  15.967   5.456  15.719 -0.0108  0.0248 -0.0336
 1281DOPS   GL115024  16.031   5.080  15.511 -0.4557 -0.2436  0.0141
 1281DOPS   GL215025  15.899   5.199  15.224  0.2669 -0.1492 -0.0916
 1281DOPS   C1A15026  15.907   4.628  15.403 -0.0062 -0.2589  0.0341
 1281DOPS   D2A15027  15.625   4.387  15.133  0.0374  0.1649 -0.0233
 1281DOPS   C3A15028  15.536   4.686  14.794 -0.1282 -0.0376 -0.2652
 1281DOPS   C4A15029  15.373   5.082  14.621  0.4010  0.1539 -0.2185
 1281DOPS   C1B15030  15.866   5.046  14.765 -0.1068 -0.1229 -0.1069
 1281DOPS   D2B15031  15.810   4.838  14.362 -0.0204  0.0333 -0.0314
 1281DOPS   C3B15032  15.703   4.930  13.883 -0.0862  0.1132  0.1809
 1281DOPS   C4B15033  15.297   4.951  13.676 -0.2135 -0.1955 -0.0986
 1282DOPS   CNO15034  12.049   2.939  15.117 -0.3051 -0.2128  0.0065
 1282DOPS   PO415035  11.937   3.100  14.795  0.1999 -0.1896  0.2289
 1282DOPS   GL115036  11.803   2.871  14.451 -0.0314  0.1096 -0.3402
 1282DOPS   GL215037  11.707   3.090  14.348  0.0343  0.1223 -0.2715
 1282DOPS   C1A15038  11.662   2.604  14.125  0.0234  0.0471 -0.0486
 1282DOPS   D2A15039  11.615   2.229  13.924  0.0647  0.2016 -0.0251
 1282DOPS   C3A15040  11.528   1.971  13.503 -0.1842  0.2349 -0.1346
 1282DOPS   C4A15041  11.533   1.840  13.063  0.0235 -0.0751  0.0007
 1282DOPS   C1B15042  11.788   3.059  13.841 -0.1067 -0.2859  0.0200
 1282DOPS   D2B15043  11.633   2.703  13.605  0.0030  0.0050  0.2278
 1282DOPS   C3B15044  11.607   2.687  13.122 -0.1917  0.0170  0.0104
 1282DOPS   C4B15045  11.837   2.760  12.769 -0.1671  0.1696  0.1596
 1283DOPE   NH315046  14.695   5.412  15.761  0.4439 -0.0943 -0.0947
 1283DOPE   PO415047  14.540   5.188  15.624 -0.2332 -0.0945 -0.0065
 1283DOPE   GL115048  14.362   4.858  15.389 -0.0342 -0.0838 -0.1405
 1283DOPE   GL215049  14.161   5.074  15.335  0.0971 -0.0182  0.0573
 1283DOPE   C1A15050  14.207   4.489  15.149  0.0594  0.0780 -0.1991
 1283DOPE   D2A15051  14.222   3.972  15.250  0.0452  0.2732 -0.0422
 1283DOPE   C3A15052  13.890   3.665  15.149  0.1952  0.0959  0.3012
 1283DOPE   C4A15053  13.653   3.456  14.794  0.1104 -0.1261  0.0541
 1283DOPE   C1B15054  13.842   4.824  15.120 -0.1687  0.0581  0.1558
 1283DOPE   D2B15055  13.447   4.818  14.993  0.3737 -0.0267 -0.0524
 1283DOPE   C3B15056  13.440   4.353  15.052  0.0617 -0.4473 -0.3095
 1283DOPE   C4B15057  13.532   3.962  14.781 -0.0938 -0.0596 -0.3528
 1284DOPE   NH315058  19.270   1.217  15.821 -0.2068 -0.2500  0.3611
 1284DOPE   PO415059  19.436   0.973  15.927 -0.0623  0.2379  0.0818
 1284DOPE   GL115060  19.666   1.056  15.633  0.2198  0.3731 -0.2270
 1284DOPE   GL215061  19.775   1.344  15.749 -0.1690  0.6222 -0.1102
 1284DOPE   C1A15062  19.846   1.345  15.258  0.3753  0.4664 -0.0493
 1284DOPE   D2A15063  20.154   1.288  14.845  0.1343 -0.0361  0.1340
 1284DOPE   C3A15064  20.160   0.818  15.047 -0.0534  0.0143  0.1186
 1284DOPE   C4A15065  20.188   0.357  14.989  0.0848 -0.1095  0.1779
 1284DOPE   C1B15066  20.005   1.660  15.797 -0.0794 -0.1677  0.1399
 1284DOPE   D2B15067  20.443   1.780  15.710  0.0950 -0.0013  0.1939
 1284DOPE   C3B15068  20.518   2.072  15.388  0.0006  0.0256 -0.0049
 1284DOPE   C4B15069  20.257   2.206  15.090 -0.0579 -0.1777 -0.0480
 1285DOPE   NH315070  18.464   9.242  15.973 -0.0521  0.1728 -0.3121
 1285DOPE   PO415071  18.753   9.166  15.900 -0.1224 -0.0327 -0.2671
 1285DOPE   GL115072  18.732   9.280  15.539 -0.1498  0.1030 -0.2172
 1285DOPE   GL215073  18.562   9.594  15.448 -0.1415 -0.0766 -0.0229
 1285DOPE   C1A15074  18.941   9.014  15.237 -0.2566 -0.2251 -0.1081
 1285DOPE   D2A15075  19.250   9.164  14.947  0.0923 -0.0029 -0.0063
 1285DOPE   C3A15076  19.192   9.477  14.516  0.0646 -0.1828  0.1625
 1285DOPE   C4A15077  19.169   9.703  14.131 -0.1471 -0.0202  0.2176
 1285DOPE   C1B15078  18.391   9.854  15.124 -0.0833 -0.1751 -0.3814
 1285DOPE   D2B15079  18.070   9.742  14.787  0.1312 -0.3480  0.2062
 1285DOPE   C3B15080  18.281   9.465  14.462 -0.0929 -0.0061  0.2652
 1285DOPE   C4B15081  18.311   9.099  14.161 -0.1485  0.0769  0.0187
 1286DOPC   NC315082  15.656   6.735  15.602 -0.1296 -0.4629 -0.0861
 1286DOPC   PO415083  15.315   6.874  15.692  0.2537 -0.2361  0.0124
 1286DOPC   GL115084  15.256   6.744  15.275  0.4699 -0.0821 -0.2733
 1286DOPC   GL215085  15.504   6.877  15.180  0.1603 -0.2123  0.0080
 1286DOPC   C1A15086  15.404   6.553  14.842 -0.4034  0.2325  0.1649
 1286DOPC   D2A15087  15.446   6.310  14.440 -0.0983 -0.0420 -0.0356
 1286DOPC   C3A15088  15.563   5.918  14.540  0.0827 -0.3802 -0.0217
 1286DOPC   C4A15089  15.626   5.571  14.248 -0.3026  0.0118  0.0261
 1286DOPC   C1B15090  15.364   7.132  14.824 -0.2387  0.0731 -0.1945
 1286DOPC   D2B15091  15.649   7.272  14.487 -0.1205  0.1912 -0.1041
 1286DOPC   C3B15092  15.791   7.531  14.094 -0.0451 -0.0209  0.0640
 1286DOPC   C4B15093  16.118   7.433  13.776  0.0566 -0.2781  0.1367
 1287DOPC   NC315094  22.995   4.160  16.023  0.0114  0.0007  0.1513
 1287DOPC   PO415095  22.623   4.098  16.103 -0.0703 -0.2303 -0.2715
 1287DOPC   GL115096  22.587   4.258  15.731  0.2475  0.2340 -0.0869
 1287DOPC   GL215097  22.756   4.488  15.756 -0.0532 -0.0394  0.3081
 1287DOPC   C1A15098  22.594   4.291  15.265 -0.0076 -0.0566 -0.1277
 1287DOPC   D2A15099  22.930   4.300  15.029 -0.0685  0.0055 -0.0898
 1287DOPC   C3A15100  22.859   4.611  14.643 -0.3788  0.4772  0.2032
 1287DOPC   C4A15101  23.105   4.815  14.341  0.0067  0.3215 -0.0514
 1287DOPC   C1B15102  23.033   4.261  15.493 -0.1630  0.0563  0.3113
 1287DOPC   D2B15103  23.421   4.114  15.336  0.2409 -0.1391 -0.2709
 1287DOPC   C3B15104  23.717   3.990  14.955  0.2213 -0.2785  0.5202
 1287DOPC   C4B15105  23.899   3.714  14.634  0.4560  0.0793 -0.1406
 1288POSM   NC315106  15.053   6.403  15.751 -0.2143 -0.2351  0.0387
 1288POSM   PO415107  14.930   6.456  15.402 -0.0705 -0.0482 -0.3480
 1288POSM   AM115108  15.075   6.319  15.150 -0.1800 -0.1566  0.0750
 1288POSM   AM215109  15.038   6.166  14.897 -0.1297  0.0101  0.2238
 1288POSM   T1A15110  15.523   6.119  15.046  0.1234  0.0597  0.2007
 1288POSM   C2A15111  15.911   5.914  14.967 -0.3471 -0.4256 -0.1050
 1288POSM   C3A15112  16.397   5.871  14.939  0.1459  0.1785 -0.0707
 1288POSM   C1B15113  15.075   5.860  14.795 -0.0781 -0.0640  0.1926
 1288POSM   D2B15114  15.084   5.484  14.460 -0.2429  0.0002 -0.0842
 1288POSM   C3B15115  15.169   5.114  14.175 -0.1579 -0.0658 -0.3705
 1288POSM   C4B15116  14.964   4.704  14.024 -0.2398  0.0626  0.0510
 1289POSM   NC315117  13.609  10.011  15.394  0.0810 -0.1681  0.2024
 1289POSM   PO415118  13.413   9.678  15.278 -0.2663 -0.1514 -0.0628
 1289POSM   AM115119  13.360   9.622  14.931 -0.2322 -0.1120 -0.1433
 1289POSM   AM215120  13.169   9.450  14.753  0.1988 -0.1936  0.1687
 1289POSM   T1A15121  13.607   9.474  14.529  0.0530  0.1155 -0.0506
 1289POSM   C2A15122  13.645   9.430  14.060 -0.3037 -0.0337 -0.0418
 1289POSM   C3A15123  13.959   9.211  13.772  0.2596  0.1116  0.1004
 1289POSM   C1B15124  13.150   9.297  14.411 -0.0201 -0.0097 -0.0005
 1289POSM   D2B15125  13.146   9.214  13.932 -0.3015  0.0527 -0.1608
 1289POSM   C3B15126  13.374   9.428  13.614  0.0162  0.2856 -0.2318
 1289POSM   C4B15127  13.749   9.383  13.327 -0.1542  0.0964 -0.2983
 1290DOPE   NH315128  13.536   2.605  15.421  0.0763 -0.1005 -0.0178
 1290DOPE   PO415129  13.518   2.525  15.096 -0.1203 -0.0931  0.0463
 1290DOPE   GL115130  13.503   2.826  14.835 -0.0746 -0.1394 -0.4273
 1290DOPE   GL215131  13.268   2.835  14.673  0.3325  0.0918 -0.3607
 1290DOPE   C1A15132  13.664   3.054  14.484  0.1025  0.0395  0.0348
 1290DOPE   D2A15133  13.575   3.391  14.242  0.0866  0.1721  0.0421
 1290DOPE   C3A15134  13.823   3.663  14.421  0.1652 -0.1402 -0.0355
 1290DOPE   C4A15135  14.197   3.994  14.347 -0.0366  0.1410 -0.1420
 1290DOPE   C1B15136  13.249   2.896  14.236  0.1427  0.0133 -0.2080
 1290DOPE   D2B15137  13.570   2.948  13.915  0.1520 -0.0655  0.0053
 1290DOPE   C3B15138  13.860   3.303  13.808  0.4826  0.1077  0.0441
 1290DOPE   C4B15139  14.258   3.541  13.910  0.2034 -0.0988 -0.3076
 1291DOPE   NH315140  12.866   3.016  15.437 -0.3311 -0.0335  0.0205
 1291DOPE   PO415141  12.846   3.349  15.431 -0.1461  0.2665  0.1891
 1291DOPE   GL115142  13.019   3.435  15.098  0.2047  0.0172 -0.1048
 1291DOPE   GL215143  13.187   3.246  14.970 -0.0414 -0.2482  0.1699
 1291DOPE   C1A15144  13.029   3.846  14.947 -0.0602  0.1807 -0.0844
 1291DOPE   D2A15145  12.973   4.107  14.592 -0.3602 -0.0853  0.1442
 1291DOPE   C3A15146  13.346   4.370  14.502  0.0999 -0.1392  0.2857
 1291DOPE   C4A15147  13.642   4.255  14.160  0.1989  0.1666 -0.0622
 1291DOPE   C1B15148  13.247   3.508  14.601  0.1965 -0.1336 -0.1079
 1291DOPE   D2B15149  13.365   3.864  14.317  0.1257  0.2527  0.2608
 1291DOPE   C3B15150  13.665   3.744  13.928  0.0089  0.0940 -0.3536
 1291DOPE   C4B15151  13.963   3.764  13.553  0.0791 -0.0030 -0.0940
 1292DOPE   NH315152  16.476  11.844  14.421 -0.1863  0.0130  0.0679
 1292DOPE   PO415153  16.259  12.030  14.246  0.0795 -0.0847  0.3245
 1292DOPE   GL115154  16.506  11.966  13.895  0.0144  0.1156 -0.2130
 1292DOPE   GL215155  16.366  12.246  13.737  0.0313  0.0813  0.1636
 1292DOPE   C1A15156  16.605  11.768  13.480 -0.0945 -0.0158 -0.1498
 1292DOPE   D2A15157  16.452  11.480  13.124  0.0275  0.1062 -0.3593
 1292DOPE   C3A15158  16.674  11.446  12.736 -0.0387 -0.3202 -0.0808
 1292DOPE   C4A15159  16.957  11.137  12.559  0.0224  0.4255 -0.0834
 1292DOPE   C1B15160  16.277  12.217  13.291 -0.1909  0.1470  0.0989
 1292DOPE   D2B15161  16.431  11.944  12.973 -0.0229  0.1484 -0.0274
 1292DOPE   C3B15162  16.752  12.005  12.578 -0.2251 -0.2787  0.1677
 1292DOPE   C4B15163  16.833  12.095  12.129  0.1763  0.0335 -0.1735
 1293DOPC   NC315164  11.423   0.771  14.616 -0.0094 -0.1094 -0.2737
 1293DOPC   PO415165  11.717   1.010  14.517  0.0188  0.0479 -0.1358
 1293DOPC   GL115166  11.637   1.094  14.221 -0.0927  0.1635 -0.4755
 1293DOPC   GL215167  11.532   0.921  14.034  0.0416  0.1121  0.1053
 1293DOPC   C1A15168  11.916   1.241  13.882 -0.0714 -0.0312 -0.0667
 1293DOPC   D2A15169  12.110   1.220  13.501  0.1797  0.1113  0.0517
 1293DOPC   C3A15170  12.052   0.946  13.170 -0.0667  0.1037  0.0346
 1293DOPC   C4A15171  11.744   0.800  12.881 -0.1322 -0.1431 -0.0041
 1293DOPC   C1B15172  11.761   0.788  13.635  0.1432  0.0197  0.1723
 1293DOPC   D2B15173  12.031   0.511  13.324 -0.1521 -0.2838 -0.4263
 1293DOPC   C3B15174  12.002   0.378  12.872 -0.0099  0.2517 -0.2261
 1293DOPC   C4B15175  11.870   0.481  12.449 -0.1370 -0.1871 -0.0407
 1294DOPC   NC315176  12.986   5.468  16.019  0.1180  0.0060  0.0258
 1294DOPC   PO415177  12.710   5.730  15.909 -0.0924 -0.0091  0.1194
 1294DOPC   GL115178  12.585   5.517  15.671 -0.2415 -0.0854  0.0307
 1294DOPC   GL215179  12.726   5.208  15.686  0.2541 -0.1134 -0.0281
 1294DOPC   C1A15180  12.303   5.614  15.281 -0.1060 -0.1247  0.2354
 1294DOPC   D2A15181  12.086   5.743  14.842 -0.1453 -0.1236  0.0127
 1294DOPC   C3A15182  11.809   5.543  14.551 -0.2165  0.1090 -0.2116
 1294DOPC   C4A15183  11.661   5.477  14.134  0.1359 -0.1530 -0.1553
 1294DOPC   C1B15184  12.753   5.331  15.215  0.0256 -0.0768  0.2005
 1294DOPC   D2B15185  12.636   5.667  14.912  0.0618 -0.1664  0.0537
 1294DOPC   C3B15186  12.540   6.109  15.034  0.2141  0.0586 -0.0709
 1294DOPC   C4B15187  12.593   6.547  14.892 -0.0759  0.0430  0.3010
 1295POSM   NC315188  15.070   2.465  15.182  0.0322 -0.0412  0.1760
 1295POSM   PO415189  15.460   2.302  15.179 -0.1823 -0.3321  0.1491
 1295POSM   AM115190  15.613   2.350  14.915 -0.2268  0.0871  0.1481
 1295POSM   AM215191  15.452   2.379  14.667  0.1283  0.0415 -0.1772
 1295POSM   T1A15192  15.813   2.225  14.460  0.1276 -0.1586  0.2456
 1295POSM   C2A15193  15.714   2.341  14.026 -0.2462  0.1762 -0.1038
 1295POSM   C3A15194  15.751   2.527  13.612  0.0304 -0.0028 -0.2693
 1295POSM   C1B15195  15.332   2.527  14.354 -0.0185  0.0500  0.0922
 1295POSM   D2B15196  15.164   2.597  13.949  0.5176 -0.0642 -0.1161
 1295POSM   C3B15197  15.042   3.005  13.718 -0.0066 -0.1383 -0.0060
 1295POSM   C4B15198  15.094   3.415  13.530 -0.3050 -0.0214  0.0440
 1296DOPC   NC315199  13.627  11.856  14.632 -0.4029 -0.0243  0.0491
 1296DOPC   PO415200  13.706  11.493  14.791 -0.0552  0.0423  0.1297
 1296DOPC   GL115201  13.379  11.318  14.627  0.1127 -0.2171  0.1330
 1296DOPC   GL215202  13.417  11.092  14.703 -0.1953 -0.0848 -0.1729
 1296DOPC   C1A15203  13.066  11.283  14.294  0.2197  0.0606 -0.4386
 1296DOPC   D2A15204  13.128  11.061  13.914  0.2257 -0.1306 -0.0307
 1296DOPC   C3A15205  13.417  11.321  13.623  0.0690  0.0992 -0.1474
 1296DOPC   C4A15206  13.549  11.783  13.697  0.0275  0.4588 -0.3534
 1296DOPC   C1B15207  13.475  10.990  14.255  0.1285 -0.0238  0.6162
 1296DOPC   D2B15208  13.684  10.568  14.181 -0.2154 -0.1497 -0.0393
 1296DOPC   C3B15209  13.860  10.216  13.855  0.1796  0.2396 -0.0543
 1296DOPC   C4B15210  13.982  10.274  13.438  0.0955 -0.1299  0.0696
 1297DOPE   NH315211  18.425   2.344  15.968 -0.0410  0.1173 -0.3249
 1297DOPE   PO415212  18.623   2.285  15.755  0.1616 -0.0650  0.1745
 1297DOPE   GL115213  18.821   2.242  15.382 -0.0402  0.1430 -0.1242
 1297DOPE   GL215214  18.725   2.510  15.274 -0.1012  0.0201  0.2836
 1297DOPE   C1A15215  19.058   1.916  15.100 -0.0774  0.0298  0.3592
 1297DOPE   D2A15216  19.280   1.741  14.721  0.0493 -0.3132  0.2849
 1297DOPE   C3A15217  19.467   1.370  14.728  0.2643 -0.4622 -0.0072
 1297DOPE   C4A15218  19.652   0.994  14.855  0.1675  0.0425  0.0875
 1297DOPE   C1B15219  19.133   2.469  15.052  0.0348 -0.0137 -0.3421
 1297DOPE   D2B15220  19.354   2.323  14.652  0.1378  0.0144 -0.0699
 1297DOPE   C3B15221  19.200   2.065  14.315 -0.2460 -0.3012 -0.0418
 1297DOPE   C4B15222  18.986   1.910  13.919  0.3574 -0.0470 -0.0736
 1298DOPC   NC315223  14.391   7.115  15.402 -0.0442 -0.1137  0.0314
 1298DOPC   PO415224  14.062   7.085  15.169 -0.0153  0.0756  0.1278
 1298DOPC   GL115225  14.119   7.032  14.737  0.2126  0.5677 -0.1298
 1298DOPC   GL215226  14.330   7.265  14.749 -0.1962  0.1115  0.1896
 1298DOPC   C1A15227  14.132   6.893  14.293  0.4474  0.2249 -0.1137
 1298DOPC   D2A15228  14.209   7.060  13.902  0.1354  0.3570  0.1907
 1298DOPC   C3A15229  14.055   7.261  13.506 -0.1261 -0.2137  0.2367
 1298DOPC   C4A15230  13.789   7.362  13.159  0.0132  0.1190  0.0273
 1298DOPC   C1B15231  14.502   7.330  14.370 -0.3108 -0.2090  0.0831
 1298DOPC   D2B15232  14.553   7.472  13.893  0.0208  0.2659 -0.3895
 1298DOPC   C3B15233  14.959   7.526  13.708 -0.0157  0.2935 -0.0384
 1298DOPC   C4B15234  15.295   7.246  13.615  0.2399 -0.0368 -0.1085
 1299DOPE   NH315235  11.965   8.527  15.408  0.1353 -0.3260 -0.1033
 1299DOPE   PO415236  11.789   8.769  15.439  0.1479 -0.2425  0.0380
 1299DOPE   GL115237  11.803   9.007  15.092  0.4437 -0.4357  0.0245
 1299DOPE   GL215238  11.605   9.220  15.095 -0.0166  0.2173 -0.0603
 1299DOPE   C1A15239  11.805   9.119  14.638 -0.4465  0.0271  0.0979
 1299DOPE   D2A15240  12.154   8.993  14.423 -0.0088  0.3317  0.1965
 1299DOPE   C3A15241  12.359   9.266  14.116 -0.4394  0.2159 -0.2223
 1299DOPE   C4A15242  12.718   9.239  13.768  0.2400  0.0066 -0.1769
 1299DOPE   C1B15243  11.721   9.596  14.792  0.2390 -0.2525  0.0379
 1299DOPE   D2B15244  11.641   9.943  14.543 -0.3196 -0.3774  0.2709
 1299DOPE   C3B15245  11.316  10.157  14.333  0.1138 -0.0167 -0.0524
 1299DOPE   C4B15246  11.220  10.424  13.974  0.0249 -0.1450  0.2068
 1300DOPE   NH315247  20.307   1.192  16.766  0.1652  0.3426 -0.2308
 1300DOPE   PO415248  20.155   0.923  16.647 -0.1073 -0.1789  0.0180
 1300DOPE   GL115249  20.039   0.827  16.258 -0.0265  0.1353 -0.3930
 1300DOPE   GL215250  19.891   0.848  16.057 -0.0405 -0.0842  0.2418
 1300DOPE   C1A15251  20.456   0.870  15.995 -0.1488  0.2030  0.0843
 1300DOPE   D2A15252  20.731   1.043  15.637 -0.4002 -0.2858 -0.0150
 1300DOPE   C3A15253  20.984   0.747  15.376  0.1684 -0.0161 -0.3311
 1300DOPE   C4A15254  21.377   0.594  15.147 -0.0127 -0.2213 -0.0781
 1300DOPE   C1B15255  20.122   0.990  15.641  0.3814 -0.3000  0.1075
 1300DOPE   D2B15256  20.360   1.287  15.431 -0.0257  0.1426  0.0679
 1300DOPE   C3B15257  20.605   1.174  15.069 -0.0491 -0.0802  0.1946
 1300DOPE   C4B15258  20.624   1.293  14.610 -0.0178  0.1534 -0.1441
 1301DOPC   NC315259  14.012   2.255  14.984 -0.1439 -0.0053  0.2116
 1301DOPC   PO415260  14.064   2.452  15.322  0.0281  0.0428 -0.0337
 1301DOPC   GL115261  14.142   2.672  15.004  0.1131 -0.1779  0.2773
 1301DOPC   GL215262  13.901   2.812  14.925 -0.5027 -0.3266  0.1088
 1301DOPC   C1A15263  14.261   2.808  14.580 -0.2346  0.0212  0.0199
 1301DOPC   D2A15264  14.040   3.022  14.213  0.2911 -0.1616 -0.0927
 1301DOPC   C3A15265  14.040   2.787  13.801  0.2219 -0.0410  0.0184
 1301DOPC   C4A15266  14.013   2.835  13.389 -0.1300  0.0945  0.0331
 1301DOPC   C1B15267  14.086   3.229  14.782 -0.2939 -0.0606  0.3126
 1301DOPC   D2B15268  14.237   3.681  14.790 -0.0857 -0.0381  0.1644
 1301DOPC   C3B15269  14.027   4.113  14.812 -0.0586  0.2227  0.0475
 1301DOPC   C4B15270  13.866   4.537  14.682 -0.0430 -0.1158 -0.0736
 1302DOPC   NC315271  15.917   3.974  16.007 -0.0756  0.0799  0.1015
 1302DOPC   PO415272  15.605   4.191  16.142 -0.0289  0.0196 -0.1040
 1302DOPC   GL115273  15.410   4.118  15.765 -0.3327  0.3528 -0.0982
 1302DOPC   GL215274  15.410   4.383  15.625  0.0712 -0.0745  0.0310
 1302DOPC   C1A15275  15.270   3.965  15.324  0.1255 -0.0926 -0.3165
 1302DOPC   D2A15276  15.182   4.228  14.965  0.3214 -0.0051 -0.1758
 1302DOPC   C3A15277  15.087   4.060  14.553 -0.4519 -0.0987 -0.1155
 1302DOPC   C4A15278  15.198   4.053  14.076 -0.0413 -0.2989 -0.0292
 1302DOPC   C1B15279  15.189   4.674  15.392 -0.1060  0.0802 -0.1542
 1302DOPC   D2B15280  15.050   4.824  14.948 -0.4030  0.0030 -0.2380
 1302DOPC   C3B15281  15.107   4.700  14.508 -0.0977  0.1331 -0.0695
 1302DOPC   C4B15282  15.419   4.506  14.213 -0.0506 -0.0098 -0.3303
 1303DOPC   NC315283  22.519   9.544  16.500 -0.0786 -0.2675  0.1367
 1303DOPC   PO415284  22.581   9.361  16.197 -0.3068  0.2261  0.1163
 1303DOPC   GL115285  22.513   9.575  15.834 -0.0649 -0.0894 -0.3803
 1303DOPC   GL215286  22.745   9.688  15.794 -0.1084  0.2090  0.4542
 1303DOPC   C1A15287  22.293   9.475  15.386 -0.0654  0.1639 -0.2043
 1303DOPC   D2A15288  21.968   9.461  15.067  0.0978 -0.2043  0.0482
 1303DOPC   C3A15289  22.113   9.518  14.654  0.1691 -0.0263  0.2571
 1303DOPC   C4A15290  22.395   9.746  14.364 -0.1910  0.1578  0.4364
 1303DOPC   C1B15291  22.816   9.462  15.356  0.0753 -0.2497 -0.1911
 1303DOPC   D2B15292  22.631   9.503  14.954  0.0834  0.2180  0.1234
 1303DOPC   C3B15293  22.418   9.917  14.855 -0.3630  0.0128 -0.0953
 1303DOPC   C4B15294  21.962  10.057  14.697  0.1392 -0.2842  0.1025
 1304DOPC   NC315295  11.235   1.176  14.438  0.4055 -0.1356 -0.0337
 1304DOPC   PO415296  11.076   1.087  14.819 -0.2226  0.1221 -0.0850
 1304DOPC   GL115297  10.834   0.954  14.468 -0.0790 -0.1258  0.0582
 1304DOPC   GL215298  10.589   0.897  14.425 -0.0117  0.0966  0.2825
 1304DOPC   C1A15299  11.052   0.923  14.011  0.4387  0.0274 -0.2788
 1304DOPC   D2A15300  11.261   0.845  13.599 -0.2298  0.1320  0.1372
 1304DOPC   C3A15301  11.477   1.143  13.287 -0.0391  0.2567  0.0366
 1304DOPC   C4A15302  11.348   1.422  12.926  0.0073 -0.1826  0.0486
 1304DOPC   C1B15303  10.623   0.650  14.030  0.0204  0.2145  0.2825
 1304DOPC   D2B15304  10.828   0.614  13.638  0.0304  0.2547 -0.2388
 1304DOPC   C3B15305  10.771   0.745  13.201 -0.1405 -0.0123 -0.2886
 1304DOPC   C4B15306  10.691   1.073  12.836  0.3587 -0.1447  0.2116
 1305DOPC   NC315307  16.952   3.769  16.008  0.1954  0.3683  0.3321
 1305DOPC   PO415308  17.303   3.653  15.865  0.0822 -0.0353  0.0118
 1305DOPC   GL115309  17.236   3.565  15.418 -0.0222 -0.1646 -0.0813
 1305DOPC   GL215310  17.001   3.415  15.444  0.4181  0.3433  0.0372
 1305DOPC   C1A15311  17.323   3.716  14.998 -0.2319 -0.1617 -0.1727
 1305DOPC   D2A15312  17.731   3.884  14.709 -0.0034  0.4058  0.0505
 1305DOPC   C3A15313  17.681   4.242  14.435 -0.0854  0.0232  0.2907
 1305DOPC   C4A15314  17.713   4.662  14.284  0.0254 -0.0656 -0.2195
 1305DOPC   C1B15315  17.148   3.199  15.025  0.1125  0.0170 -0.1625
 1305DOPC   D2B15316  16.973   2.886  14.755 -0.0924 -0.0513  0.0524
 1305DOPC   C3B15317  17.152   2.727  14.366 -0.3200 -0.0879  0.0279
 1305DOPC   C4B15318  17.193   2.664  13.923  0.4330  0.0256  0.0886
 1306DOPE   NH315319  21.896   6.896  15.932 -0.1225 -0.0607 -0.1524
 1306DOPE   PO415320  22.132   7.102  15.833  0.4317  0.0981 -0.0713
 1306DOPE   GL115321  22.137   6.915  15.504 -0.0745  0.3236 -0.0766
 1306DOPE   GL215322  21.881   7.061  15.343 -0.3744 -0.0355 -0.0995
 1306DOPE   C1A15323  22.269   6.769  15.084  0.0151 -0.0249 -0.0449
 1306DOPE   D2A15324  22.341   6.792  14.653 -0.0205  0.1767 -0.1533
 1306DOPE   C3A15325  22.427   7.219  14.464  0.3956  0.2859 -0.3831
 1306DOPE   C4A15326  22.258   7.599  14.385 -0.0066  0.1126  0.1057
 1306DOPE   C1B15327  21.592   6.814  15.170  0.1658  0.1833 -0.0537
 1306DOPE   D2B15328  21.392   6.635  14.834 -0.1359  0.2474 -0.1591
 1306DOPE   C3B15329  20.993   6.759  14.583  0.2051  0.2863  0.0878
 1306DOPE   C4B15330  20.606   6.783  14.321 -0.1555  0.0248 -0.2836
 1307DOPE   NH315331  19.795   6.037  16.183 -0.0359 -0.1314 -0.1661
 1307DOPE   PO415332  19.840   6.313  15.971 -0.1334  0.1330 -0.0687
 1307DOPE   GL115333  19.928   6.544  15.636  0.2096  0.1385 -0.1279
 1307DOPE   GL215334  19.690   6.422  15.449  0.3345  0.0829  0.0899
 1307DOPE   C1A15335  20.202   6.480  15.266 -0.0264 -0.0832 -0.1450
 1307DOPE   D2A15336  20.414   6.219  14.992 -0.0839  0.0403  0.1383
 1307DOPE   C3A15337  20.549   6.377  14.592  0.0165 -0.0075 -0.0208
 1307DOPE   C4A15338  20.844   6.336  14.244 -0.1344 -0.3732 -0.3265
 1307DOPE   C1B15339  19.822   6.169  15.109  0.2406  0.0015 -0.5115
 1307DOPE   D2B15340  19.647   6.230  14.695  0.1510 -0.0228  0.2164
 1307DOPE   C3B15341  19.660   6.103  14.227 -0.3491  0.0931  0.3273
 1307DOPE   C4B15342  19.957   6.036  13.813  0.1650  0.0151  0.2199
 1308POSM   NC315343  16.831   9.358  15.381  0.0193  0.2284  0.0884
 1308POSM   PO415344  16.836   9.048  15.559  0.0678  0.0359 -0.1777
 1308POSM   AM115345  17.065   8.982  15.318 -0.1530 -0.0524 -0.4640
 1308POSM   AM215346  17.146   9.068  15.096  0.0969  0.2364  0.1055
 1308POSM   T1A15347  17.286   8.595  15.038  0.0866  0.0701 -0.0438
 1308POSM   C2A15348  17.512   8.235  14.923 -0.2392  0.2728 -0.1456
 1308POSM   C3A15349  17.631   7.981  14.536 -0.0066  0.1992 -0.4363
 1308POSM   C1B15350  17.192   9.109  14.780  0.0102  0.3795 -0.1036
 1308POSM   D2B15351  17.414   9.131  14.354  0.2146  0.2896  0.0934
 1308POSM   C3B15352  17.398   8.826  14.035 -0.1444  0.0613 -0.0908
 1308POSM   C4B15353  17.328   8.846  13.584  0.0619  0.1961  0.0751
 1309DOPC   NC315354  18.891  34.620  16.193  0.2564 -0.2902  0.1815
 1309DOPC   PO415355  18.872  35.028  16.119  0.1418 -0.1885  0.1957
 1309DOPC   GL115356  18.799  34.891  15.733  0.0550 -0.0707 -0.0800
 1309DOPC   GL215357  18.895  34.690  15.679 -0.1125 -0.2509 -0.1077
 1309DOPC   C1A15358  19.122  35.223  15.558  0.3052  0.1867 -0.0481
 1309DOPC   D2A15359  19.335  35.597  15.292  0.0343  0.1683 -0.0273
 1309DOPC   C3A15360  19.606  35.262  15.173 -0.3148 -0.0938 -0.2793
 1309DOPC   C4A15361  19.981  35.177  15.451 -0.2538  0.0186 -0.3616
 1309DOPC   C1B15362  18.913  34.519  15.262 -0.0811  0.0547 -0.0940
 1309DOPC   D2B15363  19.018  34.459  14.807  0.0249 -0.2564  0.1371
 1309DOPC   C3B15364  19.065  34.725  14.484  0.0496  0.2171 -0.0236
 1309DOPC   C4B15365  19.131  34.850  14.053 -0.1654 -0.1259 -0.0855
 1310POSM   NC315366  14.635   1.482  15.182 -0.0932  0.0131  0.0637
 1310POSM   PO415367  14.873   1.192  15.060  0.0040  0.2007  0.0276
 1310POSM   AM115368  14.935   1.268  14.743  0.0483  0.0085  0.0387
 1310POSM   AM215369  14.864   1.167  14.461 -0.5296 -0.0480 -0.0295
 1310POSM   T1A15370  15.074   1.568  14.333  0.1476  0.2272 -0.0534
 1310POSM   C2A15371  15.344   1.756  14.030 -0.1964 -0.0921  0.0221
 1310POSM   C3A15372  15.559   1.488  13.704  0.1861 -0.1127 -0.0724
 1310POSM   C1B15373  14.907   1.107  14.127 -0.2368 -0.5199  0.1073
 1310POSM   D2B15374  14.630   1.045  13.745  0.1285  0.1030 -0.3237
 1310POSM   C3B15375  14.768   0.898  13.333 -0.2125 -0.3520  0.5307
 1310POSM   C4B15376  14.980   0.542  13.293 -0.2024  0.0003  0.1351
 1311POSM   NC315377  12.475  11.387  15.631 -0.1140  0.0315  0.1057
 1311POSM   PO415378  12.625  11.027  15.600  0.0151 -0.1793 -0.0938
 1311POSM   AM115379  12.529  11.025  15.272  0.1629 -0.0761 -0.2496
 1311POSM   AM215380  12.680  10.884  15.078 -0.1010  0.0671  0.2525
 1311POSM   T1A15381  12.390  11.240  14.785 -0.1350 -0.0168  0.1046
 1311POSM   C2A15382  12.541  11.008  14.435 -0.0802 -0.1722  0.0764
 1311POSM   C3A15383  12.592  11.005  14.033  0.0060 -0.0108  0.3573
 1311POSM   C1B15384  12.502  10.721  14.814  0.1077  0.1212  0.0412
 1311POSM   D2B15385  12.447  10.340  14.534  0.3050 -0.1672 -0.0994
 1311POSM   C3B15386  12.655  10.285  14.097  0.1810  0.1887 -0.1439
 1311POSM   C4B15387  12.739  10.185  13.677 -0.1703  0.2130 -0.2466
 1312DOPS   CNO15388  16.902   7.342  15.928 -0.2840  0.0366 -0.1729
 1312DOPS   PO415389  17.233   7.475  15.925  0.0317  0.1172  0.0729
 1312DOPS   GL115390  17.313   7.754  15.550 -0.0298  0.1137  0.3424
 1312DOPS   GL215391  17.094   7.527  15.435 -0.0944  0.0660 -0.0256
 1312DOPS   C1A15392  17.330   7.761  15.078 -0.0247 -0.3629 -0.0400
 1312DOPS   D2A15393  17.002   7.694  14.772 -0.2496 -0.2160  0.0430
 1312DOPS   C3A15394  17.110   7.239  14.656 -0.3479 -0.3489  0.2144
 1312DOPS   C4A15395  17.343   7.002  14.466 -0.0883  0.1171 -0.1043
 1312DOPS   C1B15396  16.884   7.303  15.091  0.1585  0.1527  0.0632
 1312DOPS   D2B15397  16.621   7.282  14.686 -0.1901  0.2513  0.0114
 1312DOPS   C3B15398  16.831   7.439  14.313  0.3728 -0.2141  0.3597
 1312DOPS   C4B15399  17.200   7.698  14.261 -0.2341  0.0062 -0.1932
 1313DOPC   NC315400  14.504   8.529  15.123  0.0031 -0.1261  0.0605
 1313DOPC   PO415401  14.293   8.709  15.342 -0.0117  0.3665  0.0907
 1313DOPC   GL115402  13.976   8.740  15.061 -0.0616  0.1733  0.2121
 1313DOPC   GL215403  13.980   8.460  14.859 -0.1010  0.0365  0.2062
 1313DOPC   C1A15404  13.855   8.961  14.648 -0.2780  0.2409 -0.3474
 1313DOPC   D2A15405  14.078   9.106  14.242 -0.0580  0.2223 -0.0151
 1313DOPC   C3A15406  13.982   8.732  13.946  0.1065 -0.1260 -0.0990
 1313DOPC   C4A15407  13.628   8.466  13.796 -0.0462  0.0120 -0.0236
 1313DOPC   C1B15408  14.144   8.403  14.437  0.0924  0.1335  0.0604
 1313DOPC   D2B15409  14.462   8.413  14.118  0.0951  0.0565 -0.1651
 1313DOPC   C3B15410  14.915   8.346  14.228 -0.4319  0.1650 -0.0038
 1313DOPC   C4B15411  15.303   8.278  14.049  0.2621 -0.1120 -0.2623
 1314DOPE   NH315412  14.942   7.906  15.602  0.2102 -0.0435  0.1235
 1314DOPE   PO415413  15.149   7.688  15.434 -0.0429  0.0093 -0.0044
 1314DOPE   GL115414  15.354   7.680  15.117  0.0576 -0.0779 -0.1148
 1314DOPE   GL215415  15.497   7.429  15.148  0.1316  0.0792  0.0258
 1314DOPE   C1A15416  15.273   7.926  14.756 -0.0884  0.1942  0.2550
 1314DOPE   D2A15417  15.539   7.879  14.367  0.1920 -0.0299 -0.0931
 1314DOPE   C3A15418  15.956   7.720  14.514 -0.2124 -0.2746  0.1485
 1314DOPE   C4A15419  16.090   7.350  14.695 -0.0596  0.4463 -0.2763
 1314DOPE   C1B15420  15.755   7.793  14.998  0.0102 -0.2194 -0.0521
 1314DOPE   D2B15421  15.671   8.230  14.729 -0.0976  0.2152 -0.1422
 1314DOPE   C3B15422  15.350   8.460  14.606 -0.2049  0.0180  0.0605
 1314DOPE   C4B15423  15.294   8.715  14.233 -0.0083  0.0316 -0.0809
 1315DOPE   NH315424  15.897   2.015  15.163 -0.0755  0.1088 -0.0867
 1315DOPE   PO415425  15.799   1.836  14.939  0.1763 -0.1851 -0.0597
 1315DOPE   GL115426  16.107   1.621  14.671 -0.0325  0.0447  0.1569
 1315DOPE   GL215427  16.375   1.653  14.612 -0.0682  0.1466 -0.0516
 1315DOPE   C1A15428  16.015   1.736  14.239  0.1057 -0.2880 -0.2510
 1315DOPE   D2A15429  16.094   1.895  13.798  0.3568 -0.2834 -0.0183
 1315DOPE   C3A15430  16.188   2.386  13.835  0.1627  0.1945 -0.3288
 1315DOPE   C4A15431  16.050   2.795  14.069 -0.0403  0.3561 -0.2211
 1315DOPE   C1B15432  16.566   1.841  14.193 -0.0115  0.0692  0.0873
 1315DOPE   D2B15433  16.669   2.065  13.729  0.5341 -0.4591 -0.0073
 1315DOPE   C3B15434  17.115   2.127  13.675 -0.1032 -0.0467 -0.0210
 1315DOPE   C4B15435  17.547   1.877  13.743  0.0495  0.1058  0.0037
 1316DOPC   NC315436  18.367   3.410  15.461 -0.0012  0.3987 -0.0502
 1316DOPC   PO415437  18.113   3.653  15.672 -0.2057  0.1203  0.1570
 1316DOPC   GL115438  17.954   3.816  15.355  0.0174  0.0833 -0.1248
 1316DOPC   GL215439  17.823   4.055  15.201  0.1009 -0.0923  0.1167
 1316DOPC   C1A15440  18.139   3.678  14.941  0.1412  0.0781  0.1363
 1316DOPC   D2A15441  18.203   3.831  14.502  0.1230 -0.0199 -0.0384
 1316DOPC   C3A15442  18.244   3.567  14.106 -0.0630 -0.0660  0.0058
 1316DOPC   C4A15443  18.125   3.192  13.883 -0.0042  0.1086  0.1853
 1316DOPC   C1B15444  17.444   4.227  15.000  0.1835  0.0234 -0.0330
 1316DOPC   D2B15445  17.201   4.162  14.577  0.0982  0.1315 -0.1166
 1316DOPC   C3B15446  17.393   3.826  14.358  0.0934  0.1533 -0.1151
 1316DOPC   C4B15447  17.419   3.537  14.008  0.1586 -0.1920  0.0983
 1317POSM   NC315448  19.403   8.617  15.813 -0.3546  0.1388  0.3628
 1317POSM   PO415449  19.486   8.227  15.824  0.1299  0.0166 -0.1249
 1317POSM   AM115450  19.462   8.044  15.561 -0.0187  0.0672  0.0773
 1317POSM   AM215451  19.651   7.858  15.473 -0.0452 -0.0620  0.0068
 1317POSM   T1A15452  19.176   7.996  15.190  0.1105 -0.1723 -0.1712
 1317POSM   C2A15453  19.137   8.039  14.744  0.0660  0.2240 -0.2411
 1317POSM   C3A15454  19.091   8.452  14.542  0.1484  0.0570  0.1182
 1317POSM   C1B15455  19.687   7.918  15.121  0.1369  0.1703 -0.0374
 1317POSM   D2B15456  19.676   8.034  14.700 -0.3006 -0.0044  0.1325
 1317POSM   C3B15457  19.452   7.978  14.323  0.0357  0.2782 -0.4355
 1317POSM   C4B15458  18.940   8.057  14.272  0.2769  0.0814  0.0429
 1318POSM   NC315459  14.038  10.563  14.517  0.0745 -0.0309 -0.0876
 1318POSM   PO415460  13.961  10.248  14.678 -0.0610  0.0753 -0.0648
 1318POSM   AM115461  13.732  10.126  14.493 -0.0546 -0.4275 -0.2393
 1318POSM   AM215462  13.727   9.951  14.265 -0.2659 -0.0259 -0.1181
 1318POSM   T1A15463  13.302   9.839  14.499 -0.0455 -0.3232  0.2402
 1318POSM   C2A15464  13.004   9.727  14.163  0.3700 -0.0799 -0.0173
 1318POSM   C3A15465  12.616   9.737  13.984  0.0878 -0.0053 -0.0667
 1318POSM   C1B15466  13.497   9.861  14.031  0.1132  0.1006  0.3528
 1318POSM   D2B15467  13.174   9.869  13.681 -0.1067 -0.0861  0.0063
 1318POSM   C3B15468  13.418   9.810  13.318 -0.1370  0.1510 -0.3197
 1318POSM   C4B15469  13.265   9.868  12.879  0.4040  0.2384 -0.2930
 1319DOPC   NC315470  20.240   9.163  15.645 -0.1371  0.0036 -0.1596
 1319DOPC   PO415471  20.236   9.377  15.984  0.0517  0.2309  0.3098
 1319DOPC   GL115472  20.330   9.654  15.664  0.3696 -0.3166  0.0846
 1319DOPC   GL215473  20.059   9.631  15.547 -0.0329 -0.2161  0.0854
 1319DOPC   C1A15474  20.333   9.437  15.229 -0.0276 -0.0432 -0.2035
 1319DOPC   D2A15475  20.236   9.311  14.754  0.0811 -0.2326  0.4301
 1319DOPC   C3A15476  20.307   9.596  14.387 -0.0451 -0.1169  0.0353
 1319DOPC   C4A15477  20.400   9.769  14.004  0.5847 -0.2945  0.0091
 1319DOPC   C1B15478  19.607   9.549  15.576  0.1470  0.1237  0.0027
 1319DOPC   D2B15479  19.147   9.444  15.416  0.0323  0.1992  0.2281
 1319DOPC   C3B15480  18.903   9.690  15.089 -0.0251 -0.2473 -0.1097
 1319DOPC   C4B15481  18.765   9.715  14.700 -0.1919  0.2518  0.2081
 1320DOPS   CNO15482  16.333   7.997  15.929  0.0312  0.1376  0.0715
 1320DOPS   PO415483  16.126   7.896  15.628 -0.0352 -0.0530  0.3361
 1320DOPS   GL115484  16.136   7.731  15.321 -0.1533  0.1811  0.0951
 1320DOPS   GL215485  16.037   7.462  15.423 -0.1584  0.0233 -0.0843
 1320DOPS   C1A15486  16.370   7.664  14.905  0.1038  0.0380 -0.0756
 1320DOPS   D2A15487  16.553   7.849  14.514 -0.0038 -0.2584  0.2650
 1320DOPS   C3A15488  16.293   7.783  14.173  0.1770  0.2797  0.1453
 1320DOPS   C4A15489  16.279   7.871  13.722 -0.0034 -0.1725 -0.1514
 1320DOPS   C1B15490  15.972   7.175  15.164 -0.1645  0.2785 -0.2096
 1320DOPS   D2B15491  15.845   6.880  14.804  0.2446  0.2719 -0.0433
 1320DOPS   C3B15492  16.023   6.951  14.381  0.2403  0.4428  0.0666
 1320DOPS   C4B15493  16.289   7.314  14.199 -0.1913 -0.0642  0.0862
 1321DOPE   NH315494  22.193   4.325  16.338 -0.0293  0.1664 -0.1345
 1321DOPE   PO415495  22.292   4.458  16.069  0.2546 -0.0763 -0.0380
 1321DOPE   GL115496  21.996   4.723  15.794 -0.0642  0.0748  0.1675
 1321DOPE   GL215497  21.777   4.861  15.931  0.3733 -0.2590 -0.1167
 1321DOPE   C1A15498  21.660   4.694  15.521 -0.2971  0.2392 -0.0299
 1321DOPE   D2A15499  21.443   4.981  15.282  0.3798 -0.3732 -0.0254
 1321DOPE   C3A15500  21.370   4.840  14.896  0.1315 -0.1747  0.0356
 1321DOPE   C4A15501  21.472   4.605  14.548  0.0335 -0.2281  0.2991
 1321DOPE   C1B15502  21.342   5.017  15.824  0.0022 -0.0265  0.0596
 1321DOPE   D2B15503  21.060   5.177  15.557 -0.3623 -0.2654 -0.0570
 1321DOPE   C3B15504  21.095   5.362  15.104  0.0713  0.0164  0.1194
 1321DOPE   C4B15505  21.403   5.326  14.769 -0.3662 -0.0235 -0.0751
 1322DOPS   CNO15506  16.261   9.456  15.703  0.0388 -0.3148 -0.1884
 1322DOPS   PO415507  16.393   9.561  15.384  0.0224  0.0496 -0.1215
 1322DOPS   GL115508  16.452   9.475  14.993 -0.2038  0.1142  0.2190
 1322DOPS   GL215509  16.166   9.478  14.903 -0.0248  0.0355  0.2186
 1322DOPS   C1A15510  16.506   9.383  14.567 -0.1928  0.0112  0.0261
 1322DOPS   D2A15511  16.199   9.266  14.246  0.2089 -0.3362 -0.1673
 1322DOPS   C3A15512  15.929   9.515  13.994 -0.0599  0.0510  0.0178
 1322DOPS   C4A15513  16.022   9.919  13.790  0.0215 -0.1205  0.1998
 1322DOPS   C1B15514  16.160   9.069  14.844 -0.0187  0.0562  0.2795
 1322DOPS   D2B15515  16.428   8.835  14.549  0.1032  0.1103  0.2113
 1322DOPS   C3B15516  16.836   8.675  14.755 -0.0654  0.0959  0.0878
 1322DOPS   C4B15517  17.274   8.701  14.564  0.4442  0.1639 -0.3072
 1323DOPS   CNO15518  13.064   1.292  15.116  0.4000 -0.1111 -0.0411
 1323DOPS   PO415519  13.343   1.368  14.846  0.0045  0.2841  0.3864
 1323DOPS   GL115520  13.474   1.293  14.444  0.0329 -0.0919 -0.1245
 1323DOPS   GL215521  13.286   1.520  14.349 -0.1170  0.0674  0.0420
 1323DOPS   C1A15522  13.328   1.049  14.083 -0.1522 -0.2617 -0.2812
 1323DOPS   D2A15523  13.506   0.966  13.705  0.0071  0.3386 -0.2733
 1323DOPS   C3A15524  13.306   0.976  13.312  0.0952 -0.0889 -0.1957
 1323DOPS   C4A15525  13.104   0.895  12.883  0.2356 -0.1299 -0.1404
 1323DOPS   C1B15526  13.342   1.571  13.903 -0.1088  0.0799  0.1467
 1323DOPS   D2B15527  13.401   1.462  13.455  0.0705 -0.0229 -0.0313
 1323DOPS   C3B15528  13.783   1.213  13.262 -0.1216  0.2436 -0.0012
 1323DOPS   C4B15529  14.122   0.855  13.434 -0.2577  0.2414  0.0646
 1324POSM   NC315530  13.217   7.848  15.604  0.0129 -0.1491 -0.0521
 1324POSM   PO415531  13.284   7.575  15.297 -0.1935 -0.0856  0.0902
 1324POSM   AM115532  13.362   7.560  14.947 -0.0228 -0.1731 -0.1645
 1324POSM   AM215533  13.251   7.721  14.796  0.2759  0.1326  0.1756
 1324POSM   T1A15534  13.521   7.553  14.479 -0.0861  0.0501 -0.0343
 1324POSM   C2A15535  13.590   7.675  14.058 -0.1588  0.2551  0.0151
 1324POSM   C3A15536  13.622   7.564  13.617 -0.3200 -0.2779 -0.0945
 1324POSM   C1B15537  13.120   7.845  14.473 -0.0132 -0.1445  0.0742
 1324POSM   D2B15538  13.080   7.872  14.023  0.0975  0.0571  0.0171
 1324POSM   C3B15539  13.369   8.011  13.681  0.1011  0.1201 -0.0900
 1324POSM   C4B15540  13.265   8.358  13.349 -0.1782 -0.4118  0.0917
 1325POSM   NC315541  20.291   5.735  15.956  0.4096 -0.1076 -0.1778
 1325POSM   PO415542  19.944   5.577  15.992  0.2101  0.1037  0.1123
 1325POSM   AM115543  19.883   5.780  15.744  0.0776  0.3966 -0.1027
 1325POSM   AM215544  19.981   5.982  15.586 -0.1662  0.1313 -0.0287
 1325POSM   T1A15545  19.541   5.777  15.328  0.4723 -0.2144  0.0656
 1325POSM   C2A15546  19.322   5.923  14.994 -0.0676 -0.2664 -0.1191
 1325POSM   C3A15547  19.221   5.632  14.637 -0.1952  0.0150  0.0022
 1325POSM   C1B15548  20.144   5.823  15.334  0.2525 -0.1091 -0.0914
 1325POSM   D2B15549  20.306   5.640  14.905 -0.0243 -0.1168  0.0095
 1325POSM   C3B15550  20.112   5.308  14.620  0.1933  0.1528  0.1341
 1325POSM   C4B15551  20.113   5.309  14.170  0.0610  0.1960 -0.2080
 1326DOPC   NC315552  13.965   1.170  14.460 -0.0610  0.0595  0.1953
 1326DOPC   PO415553  13.859   1.554  14.507 -0.0334 -0.0599  0.0237
 1326DOPC   GL115554  13.912   1.687  14.212  0.0579  0.2296  0.1415
 1326DOPC   GL215555  13.630   1.858  14.141  0.1358  0.0269 -0.2070
 1326DOPC   C1A15556  13.886   1.678  13.739  0.2385 -0.1780 -0.0191
 1326DOPC   D2A15557  14.003   1.908  13.335 -0.2832  0.1096 -0.1720
 1326DOPC   C3A15558  13.675   1.780  13.040 -0.0458 -0.0590 -0.0878
 1326DOPC   C4A15559  13.800   1.536  12.632 -0.0230 -0.0541 -0.1629
 1326DOPC   C1B15560  13.995   2.060  13.976  0.1599 -0.4022  0.0326
 1326DOPC   D2B15561  14.212   2.304  13.611 -0.0686 -0.1931 -0.2902
 1326DOPC   C3B15562  14.430   2.485  13.218 -0.1208 -0.4543 -0.0394
 1326DOPC   C4B15563  14.383   2.466  12.799  0.0452 -0.0487 -0.2804
 1327POSM   NC315564  15.899  10.580  14.651  0.2351  0.0770  0.0448
 1327POSM   PO415565  16.194  10.670  14.862  0.1719  0.2009  0.1125
 1327POSM   AM115566  16.396  10.746  14.572  0.0896 -0.3142 -0.3235
 1327POSM   AM215567  16.720  10.777  14.532 -0.0028 -0.1137  0.2138
 1327POSM   T1A15568  16.603  10.966  14.129 -0.0659  0.3094 -0.0342
 1327POSM   C2A15569  16.845  11.064  13.821  0.0962 -0.4496  0.2109
 1327POSM   C3A15570  16.807  11.236  13.371 -0.2003  0.1964  0.0618
 1327POSM   C1B15571  16.640  10.507  14.301 -0.0467  0.1060 -0.3229
 1327POSM   D2B15572  16.455  10.157  13.989 -0.2298  0.1223  0.1480
 1327POSM   C3B15573  16.709   9.954  13.638  0.1711  0.0860 -0.1222
 1327POSM   C4B15574  17.133   9.832  13.576 -0.3254 -0.2387 -0.2127
 1328DOPC   NC315575  17.767   6.651  16.128  0.2718  0.2787 -0.1032
 1328DOPC   PO415576  18.018   6.378  16.132 -0.1536  0.0036 -0.0047
 1328DOPC   GL115577  18.179   6.209  15.782 -0.3929 -0.3137 -0.0513
 1328DOPC   GL215578  18.316   5.946  15.790 -0.1915  0.1210  0.0510
 1328DOPC   C1A15579  17.872   6.077  15.415  0.0120  0.0230 -0.0353
 1328DOPC   D2A15580  17.658   5.911  15.062 -0.2027 -0.0891 -0.4683
 1328DOPC   C3A15581  17.232   5.925  14.820 -0.0590  0.2663 -0.3193
 1328DOPC   C4A15582  16.886   5.675  14.781  0.0287  0.1795  0.0821
 1328DOPC   C1B15583  18.510   6.022  15.351 -0.2072 -0.0592 -0.1972
 1328DOPC   D2B15584  18.650   6.342  15.036  0.2717 -0.0262 -0.2037
 1328DOPC   C3B15585  18.933   6.472  14.731 -0.0380 -0.0370 -0.4888
 1328DOPC   C4B15586  19.226   6.438  14.415  0.1040 -0.1749 -0.2353
 1329POSM   NC315587  18.691   4.980  16.094  0.1100  0.3619  0.4115
 1329POSM   PO415588  18.461   5.265  16.224  0.0484  0.0512  0.1044
 1329POSM   AM115589  18.452   5.465  15.964  0.0642 -0.0500  0.0014
 1329POSM   AM215590  18.666   5.567  15.787 -0.3717 -0.1842 -0.2541
 1329POSM   T1A15591  18.226   5.590  15.505  0.0413 -0.1003 -0.0633
 1329POSM   C2A15592  18.189   5.515  15.089 -0.0787  0.0486 -0.1786
 1329POSM   C3A15593  17.861   5.525  14.818  0.2154 -0.1813 -0.1734
 1329POSM   C1B15594  18.691   5.370  15.494 -0.0172 -0.1955 -0.2949
 1329POSM   D2B15595  18.668   5.461  15.064  0.0188 -0.1663 -0.0479
 1329POSM   C3B15596  18.600   5.853  14.902  0.1089  0.2003  0.2025
 1329POSM   C4B15597  18.158   6.054  14.919  0.1485 -0.1789  0.1370
 1330POSM   NC315598  18.989   2.069  15.944  0.0250 -0.0703 -0.0004
 1330POSM   PO415599  18.999   1.616  15.913  0.0639  0.1227 -0.3113
 1330POSM   AM115600  19.123   1.603  15.642  0.0100  0.0497  0.0167
 1330POSM   AM215601  19.096   1.440  15.387 -0.2380  0.2630 -0.1940
 1330POSM   T1A15602  19.469   1.680  15.222  0.2056  0.2968 -0.0828
 1330POSM   C2A15603  19.779   1.711  14.905 -0.1641  0.1945 -0.0712
 1330POSM   C3A15604  19.861   1.781  14.431 -0.0538  0.1994 -0.0552
 1330POSM   C1B15605  19.064   1.399  15.065  0.2353  0.0509 -0.1716
 1330POSM   D2B15606  18.948   1.406  14.576  0.0079 -0.1194  0.0798
 1330POSM   C3B15607  18.698   1.604  14.158  0.2796  0.1605  0.0556
 1330POSM   C4B15608  18.462   1.767  13.844  0.1066 -0.1350 -0.4597
 1331DOPC   NC315609  12.379   3.142  14.654  0.0389 -0.2916 -0.0573
 1331DOPC   PO415610  12.665   3.077  14.928  0.3704  0.0781  0.0689
 1331DOPC   GL115611  12.872   3.119  14.537  0.1055  0.1500  0.0892
 1331DOPC   GL215612  12.776   2.905  14.395 -0.0520  0.1212 -0.0725
 1331DOPC   C1A15613  13.041   3.355  14.154 -0.0687 -0.1692 -0.1190
 1331DOPC   D2A15614  13.295   3.428  13.781  0.2607 -0.1121  0.0532
 1331DOPC   C3A15615  13.440   3.774  13.473  0.0146  0.1055  0.0843
 1331DOPC   C4A15616  13.172   4.165  13.319 -0.1423 -0.1232 -0.1308
 1331DOPC   C1B15617  12.702   3.063  13.899 -0.1635 -0.0247  0.2505
 1331DOPC   D2B15618  12.801   3.303  13.557  0.0237 -0.1061 -0.3106
 1331DOPC   C3B15619  12.872   3.270  13.087  0.0497 -0.3795 -0.0766
 1331DOPC   C4B15620  12.797   2.987  12.702  0.0906  0.0084  0.0727
 1332DOPE   NH315621  13.528   1.817  14.701 -0.3200 -0.4588 -0.2051
 1332DOPE   PO415622  13.571   2.122  14.823  0.3348 -0.2635  0.2164
 1332DOPE   GL115623  13.718   2.450  14.645  0.1776 -0.6178 -0.0908
 1332DOPE   GL215624  13.535   2.497  14.451 -0.0851  0.5357 -0.0128
 1332DOPE   C1A15625  14.036   2.513  14.272  0.0438  0.3715 -0.1436
 1332DOPE   D2A15626  14.473   2.607  14.005 -0.3320 -0.0783  0.0764
 1332DOPE   C3A15627  14.551   2.821  13.612 -0.3300 -0.0563  0.2446
 1332DOPE   C4A15628  14.497   3.260  13.584  0.0328  0.2733 -0.3077
 1332DOPE   C1B15629  13.604   2.426  14.015 -0.1276 -0.0266 -0.0131
 1332DOPE   D2B15630  13.716   2.473  13.585 -0.1870  0.2332  0.1309
 1332DOPE   C3B15631  13.550   2.570  13.175  0.1108  0.0174 -0.0375
 1332DOPE   C4B15632  13.159   2.796  12.996 -0.3164 -0.0097  0.0187
 1333DOPC   NC315633  12.687   3.783  15.414  0.2628  0.4806 -0.2122
 1333DOPC   PO415634  12.291   3.701  15.511 -0.4968 -0.0816  0.1186
 1333DOPC   GL115635  12.351   4.040  15.305  0.3333 -0.1027  0.3673
 1333DOPC   GL215636  12.340   4.000  15.052  0.0924 -0.3022  0.1727
 1333DOPC   C1A15637  12.776   4.208  15.140  0.0469 -0.2002 -0.1518
 1333DOPC   D2A15638  13.029   4.542  14.902 -0.0970  0.0934  0.0595
 1333DOPC   C3A15639  12.857   4.679  14.476  0.0436  0.1287  0.2272
 1333DOPC   C4A15640  12.766   4.753  13.988  0.0405 -0.1279  0.1447
 1333DOPC   C1B15641  12.463   4.183  14.688  0.1300 -0.2118  0.1379
 1333DOPC   D2B15642  12.493   4.433  14.270  0.1116  0.1658  0.0940
 1333DOPC   C3B15643  12.627   4.273  13.854  0.3543  0.0155 -0.0778
 1333DOPC   C4B15644  12.637   4.351  13.398  0.0025  0.0524  0.1198
 1334POSM   NC315645  21.454   6.867  16.195  0.1494 -0.0519 -0.2159
 1334POSM   PO415646  21.130   6.857  15.973  0.1585  0.0411 -0.1766
 1334POSM   AM115647  21.086   6.983  15.674 -0.0762 -0.2582 -0.0125
 1334POSM   AM215648  20.981   6.867  15.432 -0.1072 -0.2304 -0.0655
 1334POSM   T1A15649  21.426   7.244  15.358 -0.3496 -0.0413  0.1603
 1334POSM   C2A15650  21.684   7.438  15.063  0.2649 -0.3148  0.1804
 1334POSM   C3A15651  21.932   7.694  14.699 -0.0290 -0.2809  0.1893
 1334POSM   C1B15652  20.963   6.962  15.149  0.1524  0.2313  0.0325
 1334POSM   D2B15653  21.234   7.294  14.857 -0.3597  0.0545  0.1908
 1334POSM   C3B15654  21.165   7.157  14.416  0.1732 -0.0283 -0.2407
 1334POSM   C4B15655  21.129   6.863  14.069 -0.1820  0.3159  0.0734
 1335POSM   NC315656  12.501  10.673  15.972 -0.1202  0.0091 -0.0250
 1335POSM   PO415657  12.139  10.754  15.801 -0.0663  0.0559  0.0477
 1335POSM   AM115658  12.278  10.704  15.481 -0.0924  0.1274  0.3996
 1335POSM   AM215659  12.288  10.499  15.289  0.0488  0.0563 -0.2050
 1335POSM   T1A15660  12.032  10.802  14.991  0.2818  0.0900 -0.0174
 1335POSM   C2A15661  12.080  10.831  14.547  0.1185  0.1860  0.0651
 1335POSM   C3A15662  12.120  11.004  14.093  0.1099 -0.3314  0.1480
 1335POSM   C1B15663  12.196  10.347  14.992 -0.2647  0.1760  0.0330
 1335POSM   D2B15664  11.959  10.306  14.535  0.1261 -0.3098 -0.1971
 1335POSM   C3B15665  12.145  10.489  14.164  0.1516 -0.1948  0.2863
 1335POSM   C4B15666  12.203  10.716  13.738  0.1037  0.3169  0.0512
 1336POSM   NC315667  14.366   5.915  14.983  0.1904  0.3058 -0.1843
 1336POSM   PO415668  14.494   6.222  15.197  0.3442  0.0768  0.0780
 1336POSM   AM115669  14.395   6.370  14.960 -0.2254 -0.2007  0.0901
 1336POSM   AM215670  14.227   6.478  14.761 -0.2925  0.0404 -0.1517
 1336POSM   T1A15671  14.641   6.273  14.543 -0.0514  0.2193  0.4078
 1336POSM   C2A15672  15.021   6.106  14.284 -0.2844 -0.2018 -0.0987
 1336POSM   C3A15673  15.225   5.783  14.077 -0.1424 -0.2203  0.0398
 1336POSM   C1B15674  14.016   6.390  14.506 -0.0426  0.0659 -0.3635
 1336POSM   D2B15675  13.767   6.120  14.255 -0.2843  0.2678  0.3209
 1336POSM   C3B15676  13.958   5.871  13.916 -0.2324  0.1797 -0.2366
 1336POSM   C4B15677  14.289   6.016  13.627 -0.0392  0.0172  0.1234
 1337POSM   NC315678  14.234  11.085  15.131 -0.1180  0.0004 -0.1576
 1337POSM   PO415679  13.859  11.011  15.002  0.3600  0.1954 -0.1445
 1337POSM   AM115680  13.933  11.068  14.674 -0.0742 -0.5076 -0.0732
 1337POSM   AM215681  14.121  11.235  14.592 -0.0716 -0.2590 -0.0520
 1337POSM   T1A15682  13.935  10.954  14.175 -0.0166  0.2611 -0.0786
 1337POSM   C2A15683  13.872  11.298  13.821  0.0894  0.1442 -0.1464
 1337POSM   C3A15684  13.857  11.352  13.375  0.0290 -0.0422 -0.3579
 1337POSM   C1B15685  14.313  11.341  14.302 -0.1450 -0.1926 -0.1729
 1337POSM   D2B15686  14.371  11.283  13.863 -0.2125  0.0689 -0.1916
 1337POSM   C3B15687  14.726  11.039  13.807  0.0266 -0.0354  0.1034
 1337POSM   C4B15688  15.129  10.950  13.616 -0.1558  0.0139 -0.1403
 1338DOPC   NC315689  23.343   7.351  15.760  0.0749 -0.1004  0.2210
 1338DOPC   PO415690  23.046   7.566  15.921 -0.3532 -0.0541  0.1058
 1338DOPC   GL115691  22.915   7.498  15.529 -0.2048  0.2114  0.5568
 1338DOPC   GL215692  22.991   7.264  15.401 -0.1099  0.0192 -0.0746
 1338DOPC   C1A15693  22.619   7.666  15.228 -0.3730 -0.1134 -0.3126
 1338DOPC   D2A15694  22.425   7.542  14.865 -0.1678  0.0565  0.4100
 1338DOPC   C3A15695  22.108   7.151  14.858  0.0595  0.1580  0.1433
 1338DOPC   C4A15696  21.840   6.805  14.684  0.2207 -0.3747 -0.3046
 1338DOPC   C1B15697  23.151   6.918  15.077  0.0894 -0.2497  0.1389
 1338DOPC   D2B15698  23.289   7.023  14.661 -0.1908 -0.1327  0.0270
 1338DOPC   C3B15699  23.451   7.452  14.605  0.2027  0.3194  0.0068
 1338DOPC   C4B15700  23.430   7.907  14.625 -0.0417  0.1364  0.0230
 1339POSM   NC315701  21.454   7.795  15.773 -0.2622  0.0887  0.2836
 1339POSM   PO415702  21.811   7.868  15.924  0.0050 -0.1741 -0.0227
 1339POSM   AM115703  22.007   7.816  15.664  0.0031  0.0536  0.2271
 1339POSM   AM215704  22.124   7.971  15.465  0.1695  0.0961  0.1291
 1339POSM   T1A15705  22.158   7.485  15.311 -0.0163  0.0659 -0.0508
 1339POSM   C2A15706  22.529   7.188  15.238  0.1349 -0.1782  0.1216
 1339POSM   C3A15707  22.716   7.082  14.832  0.0201 -0.0886  0.0016
 1339POSM   C1B15708  22.122   7.981  15.143 -0.1977 -0.0656 -0.4127
 1339POSM   D2B15709  22.366   8.005  14.767  0.0168  0.0392  0.2812
 1339POSM   C3B15710  22.163   8.104  14.366 -0.4488 -0.2856  0.2200
 1339POSM   C4B15711  22.018   8.376  14.045  0.0538 -0.3383 -0.0062
 1340DOPS   CNO15712  16.808   6.380  16.042  0.1927  0.0392 -0.1075
 1340DOPS   PO415713  16.452   6.518  15.989  0.0042  0.1725 -0.1140
 1340DOPS   GL115714  16.602   6.430  15.650  0.1486 -0.1832 -0.1857
 1340DOPS   GL215715  16.747   6.636  15.552 -0.0811 -0.2648 -0.1879
 1340DOPS   C1A15716  16.345   6.259  15.347  0.0107  0.2175  0.1914
 1340DOPS   D2A15717  15.904   6.444  15.272  0.1362  0.1106  0.3455
 1340DOPS   C3A15718  15.867   6.405  14.813  0.2301 -0.0945 -0.0472
 1340DOPS   C4A15719  15.966   6.342  14.375 -0.0378 -0.1353  0.0259
 1340DOPS   C1B15720  16.501   6.746  15.147  0.2700  0.0898 -0.3210
 1340DOPS   D2B15721  16.384   6.835  14.740 -0.0188  0.0423  0.0921
 1340DOPS   C3B15722  16.466   6.529  14.392 -0.3456  0.0790 -0.0043
 1340DOPS   C4B15723  16.332   6.324  13.973 -0.1312 -0.1776  0.1162
 1341DOPS   CNO15724  12.471   6.956  15.714 -0.1174  0.1427 -0.1371
 1341DOPS   PO415725  12.113   6.934  15.637  0.1552 -0.0946 -0.0943
 1341DOPS   GL115726  12.010   7.118  15.305  0.0752  0.0691  0.1759
 1341DOPS   GL215727  11.780   6.948  15.242 -0.0455 -0.0614 -0.0391
 1341DOPS   C1A15728  12.050   7.186  14.815 -0.3178 -0.7598 -0.2367
 1341DOPS   D2A15729  11.817   7.194  14.390  0.1303 -0.0690  0.0821
 1341DOPS   C3A15730  12.047   7.158  14.035 -0.1465 -0.0708 -0.1305
 1341DOPS   C4A15731  12.103   7.382  13.624 -0.0626  0.0734 -0.1876
 1341DOPS   C1B15732  11.834   6.772  14.821  0.2593  0.2633 -0.0262
 1341DOPS   D2B15733  11.485   6.621  14.504 -0.5201  0.0649 -0.2239
 1341DOPS   C3B15734  11.293   7.061  14.409 -0.0523 -0.0359  0.2108
 1341DOPS   C4B15735  11.006   7.243  14.094 -0.0371 -0.0831 -0.0589
 1342DOPS   CNO15736  17.424   8.012  16.579 -0.0508  0.0300 -0.1499
 1342DOPS   PO415737  17.540   8.193  16.235 -0.0407  0.3199 -0.2664
 1342DOPS   GL115738  17.518   8.300  15.779 -0.0736 -0.2918  0.1240
 1342DOPS   GL215739  17.692   8.541  15.616  0.0382 -0.1701 -0.0295
 1342DOPS   C1A15740  17.226   8.228  15.407 -0.2017  0.0945 -0.1238
 1342DOPS   D2A15741  16.943   8.165  15.078  0.0998  0.2506  0.2737
 1342DOPS   C3A15742  17.018   8.172  14.646 -0.1368 -0.0599  0.1955
 1342DOPS   C4A15743  17.145   8.314  14.221  0.0863  0.0904  0.2694
 1342DOPS   C1B15744  17.730   8.171  15.413  0.0887  0.0188  0.3556
 1342DOPS   D2B15745  17.774   7.748  15.321 -0.0249  0.2121 -0.0606
 1342DOPS   C3B15746  17.823   7.687  14.897 -0.0893 -0.3506  0.3568
 1342DOPS   C4B15747  18.045   7.594  14.465 -0.1057 -0.3915 -0.0480
 1343POSM   NC315748  19.632   3.326  15.752  0.1027  0.1198 -0.0544
 1343POSM   PO415749  19.248   3.208  15.631  0.1665  0.2746  0.0332
 1343POSM   AM115750  19.143   3.171  15.338  0.0185 -0.1943 -0.2890
 1343POSM   AM215751  19.191   2.953  15.164  0.0586 -0.2470 -0.3500
 1343POSM   T1A15752  18.956   3.354  14.902  0.0865  0.0648 -0.0922
 1343POSM   C2A15753  19.143   3.299  14.509 -0.1107  0.4235  0.2999
 1343POSM   C3A15754  19.331   3.454  14.071 -0.1071  0.0702  0.0233
 1343POSM   C1B15755  19.417   3.260  14.998 -0.0096 -0.0426  0.1177
 1343POSM   D2B15756  19.480   3.593  14.634  0.2180  0.2366 -0.7399
 1343POSM   C3B15757  19.951   3.727  14.554 -0.2445 -0.0443 -0.3367
 1343POSM   C4B15758  20.305   3.698  14.244  0.0418 -0.2117 -0.1508
 1344DOPE   NH315759  19.533  10.746  16.565 -0.1559 -0.0241  0.2479
 1344DOPE   PO415760  19.607  10.903  16.289 -0.0686  0.1984  0.0828
 1344DOPE   GL115761  19.272  10.754  15.953 -0.2215  0.2210 -0.1352
 1344DOPE   GL215762  19.313  11.004  15.739 -0.1826 -0.1574 -0.1373
 1344DOPE   C1A15763  19.344  10.418  15.664  0.1023 -0.0787 -0.1614
 1344DOPE   D2A15764  19.405  10.493  15.240 -0.0341  0.0546  0.2500
 1344DOPE   C3A15765  19.471  10.125  15.044 -0.0575  0.1276  0.0125
 1344DOPE   C4A15766  19.463   9.686  14.953 -0.2218  0.0039 -0.2585
 1344DOPE   C1B15767  19.027  10.842  15.470 -0.0217  0.0353 -0.3482
 1344DOPE   D2B15768  18.832  10.919  15.055 -0.1165 -0.0466 -0.3670
 1344DOPE   C3B15769  18.616  10.627  14.673 -0.0695 -0.0032  0.1179
 1344DOPE   C4B15770  18.509  10.481  14.268  0.4340 -0.1033 -0.3667
 1345POSM   NC315771  16.069   1.508  15.140  0.0430 -0.1533  0.3008
 1345POSM   PO415772  16.088   1.187  15.372 -0.1129  0.3705 -0.0274
 1345POSM   AM115773  16.133   1.068  15.068 -0.0685  0.2456 -0.3620
 1345POSM   AM215774  16.140   1.163  14.787  0.1063  0.1087 -0.0684
 1345POSM   T1A15775  15.887   0.736  14.762  0.1634 -0.3449 -0.0334
 1345POSM   C2A15776  15.787   0.355  14.485  0.1445 -0.0839  0.0391
 1345POSM   C3A15777  15.489   0.086  14.317 -0.2320  0.0249 -0.2884
 1345POSM   C1B15778  16.322   1.090  14.449 -0.1253  0.2169 -0.3074
 1345POSM   D2B15779  16.633   0.834  14.247  0.0858 -0.1152  0.0770
 1345POSM   C3B15780  16.854   1.104  13.940 -0.0016 -0.2648 -0.3461
 1345POSM   C4B15781  17.152   1.235  13.571 -0.2712 -0.2216 -0.1797
 1346DOPS   CNO15782  19.118   6.902  15.985  0.1269 -0.2997 -0.0220
 1346DOPS   PO415783  19.005   6.546  15.979 -0.4272  0.1242  0.0051
 1346DOPS   GL115784  18.807   6.653  15.613 -0.0117  0.1556 -0.1927
 1346DOPS   GL215785  18.536   6.556  15.543  0.1112  0.2415 -0.1888
 1346DOPS   C1A15786  18.849   6.789  15.175 -0.1721 -0.1388 -0.0505
 1346DOPS   D2A15787  18.792   7.156  14.890 -0.2504  0.1020 -0.1630
 1346DOPS   C3A15788  18.780   7.062  14.441  0.0320  0.0725  0.1159
 1346DOPS   C4A15789  18.483   6.896  14.100  0.1084  0.2391 -0.1934
 1346DOPS   C1B15790  18.196   6.483  15.177  0.1559 -0.0145 -0.1633
 1346DOPS   D2B15791  17.801   6.412  14.915  0.2254 -0.0396 -0.0563
 1346DOPS   C3B15792  17.655   6.633  14.489  0.2120  0.1195  0.0097
 1346DOPS   C4B15793  17.430   6.698  14.049 -0.1441  0.0589  0.1854
 1347POSM   NC315794  20.977   5.044  16.221 -0.0532 -0.1377  0.0996
 1347POSM   PO415795  20.726   4.821  16.008  0.4009  0.2205  0.0450
 1347POSM   AM115796  20.906   4.747  15.750  0.0466 -0.2810 -0.0410
 1347POSM   AM215797  21.135   4.620  15.617  0.0751  0.1027 -0.0629
 1347POSM   T1A15798  20.924   4.806  15.236 -0.0427  0.2885 -0.0975
 1347POSM   C2A15799  20.928   4.931  14.819 -0.0728 -0.0877  0.0200
 1347POSM   C3A15800  21.129   4.985  14.377 -0.0450 -0.3507 -0.3385
 1347POSM   C1B15801  21.216   4.386  15.350  0.2015 -0.3424  0.2859
 1347POSM   D2B15802  21.253   4.232  14.918 -0.0234  0.5207  0.0053
 1347POSM   C3B15803  20.939   4.007  14.694  0.0656  0.0743 -0.2608
 1347POSM   C4B15804  20.808   3.760  14.319 -0.0288 -0.0181 -0.0399
 1348POSM   NC315805  16.128   3.275  15.563  0.1551  0.0223 -0.1225
 1348POSM   PO415806  16.512   3.294  15.542  0.1064 -0.2094  0.1394
 1348POSM   AM115807  16.425   3.336  15.193 -0.1434  0.1362 -0.4023
 1348POSM   AM215808  16.202   3.418  15.060 -0.1255  0.1797 -0.3512
 1348POSM   T1A15809  16.586   3.206  14.786  0.1137  0.4253  0.2285
 1348POSM   C2A15810  16.671   3.061  14.342  0.1403 -0.2634 -0.1437
 1348POSM   C3A15811  16.750   2.876  13.931 -0.4003  0.1010 -0.0643
 1348POSM   C1B15812  16.012   3.514  14.780 -0.0840  0.2851 -0.0059
 1348POSM   D2B15813  15.873   3.751  14.435  0.1741  0.5574  0.1817
 1348POSM   C3B15814  15.453   3.765  14.404 -0.1150  0.0528  0.2535
 1348POSM   C4B15815  15.025   3.624  14.312 -0.0462  0.1480 -0.0411
 1349POSM   NC315816  13.806   7.497  14.960  0.0617 -0.0544 -0.1233
 1349POSM   PO415817  13.719   7.804  15.206  0.3718 -0.1380 -0.4577
 1349POSM   AM115818  13.575   7.953  14.948 -0.1799  0.2771  0.3083
 1349POSM   AM215819  13.675   7.973  14.701  0.3555 -0.1433  0.2683
 1349POSM   T1A15820  13.248   8.255  14.714  0.1827  0.1177  0.0535
 1349POSM   C2A15821  13.128   8.558  14.425  0.1213  0.2517  0.2242
 1349POSM   C3A15822  12.821   8.818  14.223  0.3852 -0.1915  0.1236
 1349POSM   C1B15823  13.850   7.974  14.407  0.0925  0.0656  0.1646
 1349POSM   D2B15824  13.993   8.165  14.007 -0.0053  0.2206  0.1020
 1349POSM   C3B15825  14.144   8.320  13.614  0.1873  0.3425 -0.2742
 1349POSM   C4B15826  13.914   8.165  13.260  0.1574  0.0321 -0.3610
 1350DOPE   NH315827  22.866   8.132  16.253 -0.1636  0.0287 -0.1309
 1350DOPE   PO415828  22.662   8.339  16.060 -0.0610 -0.2949  0.1538
 1350DOPE   GL115829  22.727   8.358  15.706  0.2981  0.1073 -0.2065
 1350DOPE   GL215830  22.520   8.256  15.542  0.1040 -0.0705 -0.0075
 1350DOPE   C1A15831  22.815   8.599  15.293 -0.0573  0.0279  0.0436
 1350DOPE   D2A15832  22.724   9.011  15.117 -0.0312  0.3874 -0.1716
 1350DOPE   C3A15833  22.370   9.066  14.768 -0.0115 -0.0001  0.0820
 1350DOPE   C4A15834  22.505   9.167  14.358  0.3478  0.3904 -0.1922
 1350DOPE   C1B15835  22.690   8.152  15.119  0.2634  0.0451  0.2472
 1350DOPE   D2B15836  22.887   7.899  14.774 -0.1644 -0.1388  0.0834
 1350DOPE   C3B15837  23.102   8.166  14.455  0.0036 -0.2504  0.1190
 1350DOPE   C4B15838  23.523   8.287  14.319 -0.1490 -0.0584 -0.1543
 1351DOPE   NH315839  12.870   7.415  15.480 -0.2289 -0.1136  0.0580
 1351DOPE   PO415840  12.725   7.626  15.635 -0.2799  0.0754  0.2325
 1351DOPE   GL115841  12.611   7.689  15.184 -0.4745 -0.0535 -0.0255
 1351DOPE   GL215842  12.840   7.546  14.993 -0.1997  0.0575  0.1637
 1351DOPE   C1A15843  12.307   7.608  14.822  0.0645 -0.2375 -0.0159
 1351DOPE   D2A15844  12.363   7.409  14.390  0.4338 -0.0035 -0.0244
 1351DOPE   C3A15845  12.547   7.331  13.968 -0.2755 -0.0815  0.1093
 1351DOPE   C4A15846  12.569   7.361  13.525 -0.3403 -0.1961 -0.1275
 1351DOPE   C1B15847  12.626   7.213  14.738 -0.0209 -0.2522 -0.0004
 1351DOPE   D2B15848  12.355   6.855  14.535 -0.0153  0.3410  0.0819
 1351DOPE   C3B15849  12.401   6.704  14.120 -0.1154  0.1598 -0.1590
 1351DOPE   C4B15850  12.213   6.831  13.699  0.1116 -0.1675 -0.0056
 1352DOPS   CNO15851  23.104   0.755  16.840  0.3407 -0.0843  0.0523
 1352DOPS   PO415852  22.840   1.000  16.859 -0.0485  0.1752  0.0252
 1352DOPS   GL115853  22.871   0.926  16.423  0.1023  0.2703  0.2214
 1352DOPS   GL215854  23.079   0.963  16.247 -0.0440  0.2529 -0.3609
 1352DOPS   C1A15855  22.795   0.538  16.150  0.1705  0.0614 -0.2226
 1352DOPS   D2A15856  22.633   0.598  15.739 -0.4693  0.0428  0.0657
 1352DOPS   C3A15857  22.248   0.353  15.626 -0.1837  0.0775  0.1785
 1352DOPS   C4A15858  21.924   0.392  15.284  0.1723  0.4090  0.1698
 1352DOPS   C1B15859  23.137   0.771  15.880  0.1761 -0.0641 -0.0930
 1352DOPS   D2B15860  23.271   0.933  15.409  0.0852 -0.1310 -0.2445
 1352DOPS   C3B15861  22.986   1.137  15.039 -0.3545 -0.2103 -0.2050
 1352DOPS   C4B15862  22.932   1.292  14.589 -0.0785 -0.0747 -0.0110
 1353DOPS   CNO15863  12.105   4.492  15.277  0.2790  0.1119  0.4372
 1353DOPS   PO415864  11.707   4.424  15.272  0.2222 -0.0082  0.1805
 1353DOPS   GL115865  11.809   4.576  14.874 -0.0634 -0.1537 -0.0161
 1353DOPS   GL215866  11.562   4.711  14.844  0.0735  0.3587  0.3079
 1353DOPS   C1A15867  11.783   4.466  14.417  0.1654 -0.6123 -0.0298
 1353DOPS   D2A15868  11.482   4.325  14.053 -0.0383  0.2225 -0.2963
 1353DOPS   C3A15869  11.401   3.872  13.938 -0.0903  0.0829  0.0284
 1353DOPS   C4A15870  11.041   3.692  13.725  0.0027  0.1137  0.1426
 1353DOPS   C1B15871  11.347   5.087  14.641  0.3075  0.3944 -0.0346
 1353DOPS   D2B15872  11.099   5.309  14.314 -0.0553  0.0132 -0.2614
 1353DOPS   C3B15873  11.047   5.315  13.849 -0.1727 -0.0652  0.3634
 1353DOPS   C4B15874  10.806   5.659  13.672  0.2276 -0.2778  0.1283
 1354DOPE   NH315875  14.547   9.441  15.344 -0.0804 -0.0332  0.2125
 1354DOPE   PO415876  14.617   9.643  15.103  0.0612 -0.2656 -0.0389
 1354DOPE   GL115877  14.588   9.671  14.714  0.0247  0.0178 -0.1670
 1354DOPE   GL215878  14.851   9.691  14.603 -0.4772 -0.2771  0.1278
 1354DOPE   C1A15879  14.529   9.463  14.318  0.1912 -0.3026  0.0079
 1354DOPE   D2A15880  14.478   9.507  13.861 -0.0388 -0.1107 -0.2458
 1354DOPE   C3A15881  14.323   9.310  13.416 -0.2502  0.2008 -0.3899
 1354DOPE   C4A15882  14.221   9.025  13.083  0.2056 -0.0068  0.2425
 1354DOPE   C1B15883  14.968   9.522  14.165 -0.3074 -0.1109 -0.1742
 1354DOPE   D2B15884  15.100   9.412  13.685 -0.1828  0.3404  0.1288
 1354DOPE   C3B15885  14.880   9.485  13.280  0.2366 -0.2776  0.0556
 1354DOPE   C4B15886  14.571   9.470  12.964  0.1051  0.2023  0.2617
 1355DOPC   NC315887  15.088  10.929  14.590 -0.2106  0.2029 -0.0112
 1355DOPC   PO415888  15.376  10.657  14.744  0.4356 -0.3123  0.0656
 1355DOPC   GL115889  15.330  10.446  14.460  0.0261  0.1230 -0.1793
 1355DOPC   GL215890  15.561  10.561  14.280 -0.0750  0.0802 -0.1036
 1355DOPC   C1A15891  15.141  10.379  14.023  0.2953  0.1727 -0.3755
 1355DOPC   D2A15892  15.133  10.434  13.536  0.1936 -0.4981  0.2425
 1355DOPC   C3A15893  15.051  10.353  13.062  0.1167  0.3181 -0.1440
 1355DOPC   C4A15894  15.044  10.274  12.595 -0.2538 -0.0015 -0.1050
 1355DOPC   C1B15895  15.963  10.632  14.085  0.0669 -0.1005  0.0301
 1355DOPC   D2B15896  16.346  10.618  13.867 -0.0281 -0.0234  0.2189
 1355DOPC   C3B15897  16.396  10.337  13.505 -0.2338  0.0300  0.1520
 1355DOPC   C4B15898  16.368   9.907  13.333 -0.2039  0.0645 -0.1595
 1356DOPE   NH315899  18.012   8.975  16.076 -0.0106 -0.1902  0.0704
 1356DOPE   PO415900  17.768   9.022  15.877 -0.0178  0.4821 -0.0921
 1356DOPE   GL115901  17.819   8.977  15.517 -0.3018  0.2615 -0.0202
 1356DOPE   GL215902  17.543   8.935  15.391 -0.1855  0.0639  0.0999
 1356DOPE   C1A15903  17.901   8.609  15.187 -0.1594  0.0357  0.0828
 1356DOPE   D2A15904  18.022   8.423  14.770 -0.1777 -0.2660  0.0775
 1356DOPE   C3A15905  18.246   8.662  14.440 -0.1884 -0.3979 -0.0475
 1356DOPE   C4A15906  18.692   8.760  14.359 -0.1562  0.1653  0.1414
 1356DOPE   C1B15907  17.615   8.956  14.963  0.3468 -0.1319  0.2276
 1356DOPE   D2B15908  17.773   8.852  14.461  0.1088  0.3002 -0.5428
 1356DOPE   C3B15909  17.673   8.432  14.338  0.0333 -0.1853  0.0966
 1356DOPE   C4B15910  17.610   8.040  14.018  0.1085  0.2087 -0.1589
 1357DOPC   NC315911  11.656   2.666  14.856  0.0266 -0.1567  0.1334
 1357DOPC   PO415912  11.423   3.011  14.789 -0.1793  0.3881 -0.2429
 1357DOPC   GL115913  11.153   3.134  14.552  0.2396  0.1965  0.1160
 1357DOPC   GL215914  11.228   3.357  14.401  0.1128 -0.0026  0.0993
 1357DOPC   C1A15915  10.802   3.095  14.216  0.0007 -0.2996 -0.2594
 1357DOPC   D2A15916  10.491   2.833  13.998  0.1395 -0.2965  0.2242
 1357DOPC   C3A15917  10.172   2.777  13.656  0.2053 -0.1268 -0.1176
 1357DOPC   C4A15918   9.834   3.019  13.462 -0.1072  0.2710 -0.0294
 1357DOPC   C1B15919  11.272   3.347  13.948  0.2936 -0.0945 -0.1453
 1357DOPC   D2B15920  11.362   3.147  13.560  0.0035 -0.0924  0.1402
 1357DOPC   C3B15921  11.793   3.132  13.299 -0.3785 -0.0435  0.2960
 1357DOPC   C4B15922  12.081   2.751  13.331  0.3261  0.1677 -0.0102
 1358DOPE   NH315923  20.553   4.451  15.750 -0.2259  0.0175 -0.0601
 1358DOPE   PO415924  20.710   4.178  15.684  0.0090 -0.1835  0.2897
 1358DOPE   GL115925  20.798   4.169  15.345  0.1128 -0.0154  0.1589
 1358DOPE   GL215926  20.646   4.437  15.231 -0.0509 -0.0395 -0.1015
 1358DOPE   C1A15927  20.481   3.971  15.049 -0.0355  0.0298  0.0522
 1358DOPE   D2A15928  20.046   4.148  14.964  0.0310 -0.2284  0.1921
 1358DOPE   C3A15929  19.987   4.300  14.466  0.3242 -0.1585 -0.1097
 1358DOPE   C4A15930  19.905   4.195  13.997  0.2023  0.1167 -0.0031
 1358DOPE   C1B15931  20.835   4.470  14.783  0.1040 -0.0210  0.2801
 1358DOPE   D2B15932  20.968   4.436  14.349 -0.0012  0.3216 -0.2137
 1358DOPE   C3B15933  20.954   4.704  14.021 -0.0552  0.1259  0.1659
 1358DOPE   C4B15934  21.132   5.058  13.812 -0.2306 -0.2390 -0.0307
 1359DOPE   NH315935  21.100   8.195  15.590  0.0583  0.2695  0.0870
 1359DOPE   PO415936  20.990   7.907  15.609 -0.2239  0.0373  0.1694
 1359DOPE   GL115937  21.005   7.825  15.283  0.1177 -0.1811  0.3245
 1359DOPE   GL215938  21.239   7.683  15.130  0.3616  0.0205  0.1413
 1359DOPE   C1A15939  21.059   8.166  14.979 -0.3159 -0.0463 -0.0532
 1359DOPE   D2A15940  21.315   8.312  14.621  0.0121  0.3342  0.0513
 1359DOPE   C3A15941  21.606   8.048  14.314  0.1296 -0.1517 -0.0420
 1359DOPE   C4A15942  21.889   7.745  14.112  0.2080 -0.0225  0.2401
 1359DOPE   C1B15943  20.959   7.703  14.751 -0.1586  0.2417  0.0368
 1359DOPE   D2B15944  20.903   7.588  14.353  0.1018 -0.0629 -0.1382
 1359DOPE   C3B15945  20.463   7.448  14.183 -0.0080 -0.1894  0.0511
 1359DOPE   C4B15946  20.092   7.394  13.938  0.0228 -0.0158 -0.0269
 1360DOPC   NC315947  13.736   0.066  14.809 -0.1416 -0.0827  0.1003
 1360DOPC   PO415948  13.729  -0.324  14.807  0.2923  0.0821 -0.2342
 1360DOPC   GL115949  13.683  -0.455  14.425  0.4659  0.3495 -0.0378
 1360DOPC   GL215950  13.496  -0.553  14.270  0.2130 -0.0615  0.0600
 1360DOPC   C1A15951  13.815  -0.269  14.017  0.2295  0.0931 -0.0231
 1360DOPC   D2A15952  14.059  -0.008  13.678  0.2274  0.0917 -0.0443
 1360DOPC   C3A15953  13.953   0.436  13.756 -0.1078 -0.1068  0.2295
 1360DOPC   C4A15954  13.843   0.734  14.112  0.4773  0.0749  0.1120
 1360DOPC   C1B15955  13.173  -0.402  13.964 -0.3549  0.0081 -0.3550
 1360DOPC   D2B15956  13.127  -0.370  13.580  0.0680  0.1606  0.0477
 1360DOPC   C3B15957  13.167  -0.039  13.277 -0.0816  0.2434 -0.4427
 1360DOPC   C4B15958  13.639   0.116  13.203 -0.1030  0.2176 -0.2588
 1361DOPC   NC315959  22.689   3.627  16.014  0.3845  0.0419  0.0223
 1361DOPC   PO415960  22.335   3.475  16.197 -0.0316  0.3947  0.0117
 1361DOPC   GL115961  22.344   3.547  15.748  0.1039  0.0035 -0.2231
 1361DOPC   GL215962  22.056   3.487  15.728  0.1892 -0.2494 -0.2142
 1361DOPC   C1A15963  22.377   3.593  15.264  0.2402 -0.3063  0.6039
 1361DOPC   D2A15964  22.717   3.407  15.003  0.0834 -0.2048 -0.2531
 1361DOPC   C3A15965  22.507   2.997  14.869  0.0039 -0.0197 -0.0344
 1361DOPC   C4A15966  22.045   2.814  14.977 -0.2536 -0.0502 -0.0191
 1361DOPC   C1B15967  21.900   3.648  15.311 -0.3557  0.0405  0.0367
 1361DOPC   D2B15968  22.006   3.940  14.924 -0.1571 -0.2179 -0.1416
 1361DOPC   C3B15969  21.594   3.913  14.734 -0.0240 -0.2283  0.1457
 1361DOPC   C4B15970  21.300   3.973  14.368 -0.0165  0.1856 -0.2513
 1362DOPE   NH315971  18.712   2.762  16.087  0.3021 -0.1320 -0.3108
 1362DOPE   PO415972  18.450   2.847  15.916 -0.0922 -0.0176 -0.1307
 1362DOPE   GL115973  18.542   2.882  15.512  0.0434 -0.0477  0.1909
 1362DOPE   GL215974  18.664   3.057  15.236  0.3929 -0.3485 -0.3633
 1362DOPE   C1A15975  18.302   2.739  15.104 -0.1146 -0.2717 -0.1138
 1362DOPE   D2A15976  17.954   2.642  14.769 -0.0576 -0.2377 -0.2039
 1362DOPE   C3A15977  17.653   2.346  14.580  0.4102  0.3868 -0.1780
 1362DOPE   C4A15978  17.170   2.280  14.519  0.0014 -0.1872 -0.1305
 1362DOPE   C1B15979  18.765   2.855  14.815  0.0247  0.1153  0.2258
 1362DOPE   D2B15980  18.766   2.978  14.399  0.0436 -0.2038 -0.2398
 1362DOPE   C3B15981  18.571   2.801  14.055  0.0396  0.0476  0.3104
 1362DOPE   C4B15982  18.422   2.352  13.875  0.1185  0.1256  0.2276
 1363DOPE   NH315983  22.556   6.661  16.047  0.1061  0.2381 -0.0576
 1363DOPE   PO415984  22.350   6.623  15.806  0.1173  0.0056  0.1585
 1363DOPE   GL115985  22.417   6.497  15.418  0.1893  0.0777 -0.5613
 1363DOPE   GL215986  22.734   6.563  15.456 -0.3038 -0.0682 -0.2035
 1363DOPE   C1A15987  22.420   6.172  15.072  0.3473  0.1920  0.0964
 1363DOPE   D2A15988  22.077   5.836  15.020  0.0644 -0.0711  0.1442
 1363DOPE   C3A15989  22.119   5.742  14.560  0.0471  0.0918 -0.3274
 1363DOPE   C4A15990  21.915   5.542  14.170  0.0429 -0.3482  0.1819
 1363DOPE   C1B15991  22.771   6.566  14.996 -0.2305 -0.4392 -0.3665
 1363DOPE   D2B15992  22.969   6.544  14.616  0.1421 -0.1683  0.1620
 1363DOPE   C3B15993  22.647   6.527  14.357  0.3098  0.1227  0.3870
 1363DOPE   C4B15994  22.349   6.201  14.165 -0.0111  0.0620 -0.1186
 1364DOPS   CNO15995  13.636   5.506  15.823 -0.3165 -0.0145  0.2900
 1364DOPS   PO415996  13.545   5.346  15.467  0.0497 -0.3013  0.3194
 1364DOPS   GL115997  13.462   5.327  15.041 -0.1278 -0.1438  0.1859
 1364DOPS   GL215998  13.690   5.355  14.937  0.1936 -0.1659 -0.2844
 1364DOPS   C1A15999  13.273   5.384  14.559 -0.0191 -0.2583 -0.0470
 1364DOPS   D2A16000  13.079   5.217  14.158 -0.1479  0.0070 -0.2259
 1364DOPS   C3A16001  13.129   5.104  13.728 -0.0344  0.1264 -0.1916
 1364DOPS   C4A16002  12.911   5.369  13.356 -0.3160  0.2079  0.1094
 1364DOPS   C1B16003  13.761   5.028  14.628 -0.2853 -0.1608  0.3752
 1364DOPS   D2B16004  13.352   4.877  14.498 -0.2284 -0.2114  0.0276
 1364DOPS   C3B16005  13.236   4.676  14.108 -0.1078  0.0848 -0.3070
 1364DOPS   C4B16006  13.115   4.560  13.639 -0.0908  0.0602 -0.2242
 1365POSM   NC316007  16.110  11.122  14.356  0.1426 -0.3892  0.4591
 1365POSM   PO416008  16.137  11.532  14.417  0.1137  0.3180  0.0522
 1365POSM   AM116009  16.225  11.599  14.098 -0.0882 -0.0078 -0.2099
 1365POSM   AM216010  16.428  11.490  13.956 -0.0766 -0.1316 -0.0855
 1365POSM   T1A16011  16.136  11.654  13.614  0.0487 -0.5273  0.1156
 1365POSM   C2A16012  16.040  11.783  13.155 -0.0436 -0.1673 -0.0768
 1365POSM   C3A16013  16.150  11.630  12.688 -0.3812  0.4247  0.2141
 1365POSM   C1B16014  16.463  11.322  13.696 -0.1683 -0.0316  0.2555
 1365POSM   D2B16015  16.464  10.911  13.467  0.4266 -0.1502 -0.2016
 1365POSM   C3B16016  16.594  11.014  13.015 -0.0610  0.0820 -0.2911
 1365POSM   C4B16017  16.600  10.776  12.626 -0.2968  0.1371 -0.3438
 1366DOPC   NC316018  12.087   5.502  15.763 -0.0961 -0.2180 -0.1502
 1366DOPC   PO416019  11.708   5.608  15.843  0.0518  0.2967 -0.1138
 1366DOPC   GL116020  11.637   5.772  15.564 -0.2270 -0.1713 -0.4183
 1366DOPC   GL216021  11.900   5.873  15.412  0.1256 -0.1067 -0.0604
 1366DOPC   C1A16022  11.461   6.130  15.290  0.1582 -0.0766  0.1420
 1366DOPC   D2A16023  11.546   6.398  14.967 -0.0962 -0.0301  0.4043
 1366DOPC   C3A16024  11.239   6.228  14.586 -0.0727  0.2743  0.2129
 1366DOPC   C4A16025  11.092   6.036  14.168  0.2255  0.1516 -0.0455
 1366DOPC   C1B16026  11.966   6.159  15.035  0.2095 -0.0106 -0.0331
 1366DOPC   D2B16027  12.145   6.414  14.648  0.1602  0.1075 -0.0525
 1366DOPC   C3B16028  11.924   6.466  14.229 -0.2372  0.0372 -0.0435
 1366DOPC   C4B16029  11.991   6.282  13.858  0.1724 -0.0716 -0.0533
 1367DOPC   NC316030  15.087   4.243  16.080 -0.1475 -0.0495  0.2445
 1367DOPC   PO416031  14.723   4.267  15.959  0.1321  0.2570  0.1116
 1367DOPC   GL116032  14.926   4.302  15.601 -0.2815 -0.0562 -0.0244
 1367DOPC   GL216033  14.759   4.000  15.487  0.0408 -0.1383  0.4235
 1367DOPC   C1A16034  14.717   4.382  15.160  0.0804 -0.1615 -0.0306
 1367DOPC   D2A16035  14.691   4.566  14.704 -0.0814  0.2651  0.0785
 1367DOPC   C3A16036  14.697   4.331  14.318  0.1611 -0.3249  0.1442
 1367DOPC   C4A16037  14.491   4.326  13.877 -0.0902  0.2189  0.4000
 1367DOPC   C1B16038  14.761   3.873  15.033  0.2184  0.0995 -0.1822
 1367DOPC   D2B16039  14.695   3.830  14.596 -0.2116  0.1050 -0.0069
 1367DOPC   C3B16040  14.490   3.509  14.335  0.0675  0.0239 -0.2544
 1367DOPC   C4B16041  14.507   3.118  14.097  0.4070  0.0741  0.0544
 1368DOPS   CNO16042  13.823   0.660  14.738 -0.0868 -0.0341  0.1167
 1368DOPS   PO416043  14.141   0.766  14.872  0.0279  0.0498  0.1866
 1368DOPS   GL116044  14.283   0.740  14.467 -0.1508 -0.0505  0.0003
 1368DOPS   GL216045  14.420   0.946  14.451 -0.2408 -0.2965 -0.0454
 1368DOPS   C1A16046  14.328   0.616  13.987 -0.2625 -0.1491 -0.4320
 1368DOPS   D2A16047  14.655   0.413  13.709  0.0733  0.1386 -0.0396
 1368DOPS   C3A16048  15.060   0.208  13.658  0.1643 -0.1008  0.0090
 1368DOPS   C4A16049  15.462  -0.054  13.701  0.1783 -0.2020  0.2977
 1368DOPS   C1B16050  14.453   1.384  14.160  0.1713 -0.2314  0.4359
 1368DOPS   D2B16051  14.381   1.613  13.722 -0.2510  0.2211  0.0958
 1368DOPS   C3B16052  14.671   1.942  13.568  0.0402 -0.0812  0.0511
 1368DOPS   C4B16053  14.789   2.384  13.586 -0.1921  0.0273 -0.0547
 1369DOPC   NC316054  21.546  12.660  15.733  0.1479  0.1793 -0.1705
 1369DOPC   PO416055  21.280  12.379  15.915 -0.1463  0.0632  0.0752
 1369DOPC   GL116056  21.260  12.280  15.559  0.2187 -0.0554  0.0509
 1369DOPC   GL216057  21.024  12.363  15.411  0.0830  0.2387  0.3104
 1369DOPC   C1A16058  21.394  12.604  15.232  0.2396  0.0399 -0.0182
 1369DOPC   D2A16059  21.435  12.471  14.798 -0.1618 -0.2399 -0.2634
 1369DOPC   C3A16060  21.802  12.480  14.525  0.1250 -0.0715  0.1367
 1369DOPC   C4A16061  21.957  12.101  14.332  0.1284  0.0506 -0.0018
 1369DOPC   C1B16062  20.985  12.264  15.002  0.2360  0.0462 -0.0024
 1369DOPC   D2B16063  20.938  12.341  14.528  0.2515  0.0068  0.3994
 1369DOPC   C3B16064  21.350  12.313  14.348 -0.1380  0.1495  0.0264
 1369DOPC   C4B16065  21.323  12.165  13.929 -0.2631  0.4188  0.2912
 1370POSM   NC316066  20.535   4.266  16.303  0.0281  0.1133  0.1488
 1370POSM   PO416067  20.284   3.987  16.114 -0.0514  0.0729  0.0062
 1370POSM   AM116068  20.298   3.899  15.813 -0.0831  0.0044  0.3015
 1370POSM   AM216069  20.143   4.020  15.584  0.3002 -0.2920 -0.1235
 1370POSM   T1A16070  20.555   3.643  15.476  0.1966  0.1023 -0.0650
 1370POSM   C2A16071  20.839   3.484  15.213  0.1124  0.0945 -0.1497
 1370POSM   C3A16072  20.988   3.133  15.079  0.1301  0.0385 -0.1698
 1370POSM   C1B16073  20.133   4.331  15.397 -0.0239 -0.6893 -0.5017
 1370POSM   D2B16074  19.975   4.735  15.273  0.1708 -0.1071 -0.1142
 1370POSM   C3B16075  19.871   4.780  14.810  0.0131  0.1633 -0.1010
 1370POSM   C4B16076  19.984   4.805  14.372  0.0525  0.1738 -0.1112
 1371DOPC   NC316077  16.509   1.600  15.836 -0.2565 -0.0588 -0.1778
 1371DOPC   PO416078  16.515   1.634  15.451  0.2642  0.2015 -0.1389
 1371DOPC   GL116079  16.651   1.540  15.133 -0.2443  0.0255 -0.0609
 1371DOPC   GL216080  16.555   1.281  15.045  0.0517  0.1455  0.3118
 1371DOPC   C1A16081  17.112   1.482  14.981 -0.0570  0.1084  0.0595
 1371DOPC   D2A16082  17.510   1.328  14.828 -0.3078 -0.4186  0.0732
 1371DOPC   C3A16083  17.487   0.841  14.794 -0.3426 -0.4876  0.2238
 1371DOPC   C4A16084  17.285   0.523  14.539  0.5435 -0.1317  0.2214
 1371DOPC   C1B16085  16.820   1.144  14.721  0.0433 -0.0126 -0.0465
 1371DOPC   D2B16086  17.166   1.002  14.459  0.0249 -0.3159  0.2815
 1371DOPC   C3B16087  17.159   0.750  14.064  0.2704  0.0254  0.3048
 1371DOPC   C4B16088  17.377   0.681  13.693 -0.2032  0.2802  0.0727
 1372DOPC   NC316089  21.139   0.666  16.513  0.3912  0.0525  0.0578
 1372DOPC   PO416090  20.884   0.442  16.244 -0.1245 -0.2647 -0.1270
 1372DOPC   GL116091  20.905   0.211  15.859  0.1993 -0.1983 -0.3251
 1372DOPC   GL216092  20.693   0.452  15.759  0.2644 -0.2723 -0.0463
 1372DOPC   C1A16093  20.886   0.237  15.372  0.0185  0.2610  0.1069
 1372DOPC   D2A16094  21.027   0.308  14.925 -0.3061 -0.0455 -0.3075
 1372DOPC   C3A16095  20.650   0.183  14.780  0.0572  0.3648 -0.0150
 1372DOPC   C4A16096  20.290  -0.133  14.933 -0.7826 -0.1118  0.0339
 1372DOPC   C1B16097  20.499   0.684  15.419  0.1116  0.0671 -0.1403
 1372DOPC   D2B16098  20.592   0.658  14.945 -0.0165  0.0880 -0.0364
 1372DOPC   C3B16099  20.984   0.882  14.853  0.2936 -0.0175  0.2499
 1372DOPC   C4B16100  21.452   0.862  14.725  0.2337 -0.3789  0.3736
 1373DOPE   NH316101  17.965  33.694  15.633 -0.2569 -0.0034 -0.2519
 1373DOPE   PO416102  18.092  34.019  15.663 -0.1750 -0.2221  0.1968
 1373DOPE   GL116103  18.469  34.158  15.528  0.0219 -0.2128 -0.0633
 1373DOPE   GL216104  18.470  34.382  15.643  0.0167  0.0936 -0.1936
 1373DOPE   C1A16105  18.708  34.141  15.094  0.0580 -0.0133 -0.0476
 1373DOPE   D2A16106  18.994  33.885  14.819  0.4957  0.0477  0.1054
 1373DOPE   C3A16107  19.144  34.121  14.486 -0.2547  0.2666  0.4138
 1373DOPE   C4A16108  18.953  34.333  14.146  0.2141  0.1250 -0.0436
 1373DOPE   C1B16109  18.474  34.691  15.302 -0.1076  0.3741  0.4544
 1373DOPE   D2B16110  18.430  34.501  14.855  0.0871 -0.1842  0.1520
 1373DOPE   C3B16111  18.587  34.586  14.461  0.1867  0.2540 -0.0355
 1373DOPE   C4B16112  18.617  34.751  14.056  0.2258  0.1776 -0.1189
 1374POSM   NC316113  21.717   1.720  16.647 -0.2203 -0.2522  0.0625
 1374POSM   PO416114  21.857   1.392  16.700 -0.2573 -0.0909 -0.1524
 1374POSM   AM116115  21.768   1.337  16.387  0.3279  0.2811 -0.1065
 1374POSM   AM216116  21.636   1.531  16.185 -0.1905  0.1748  0.1925
 1374POSM   T1A16117  21.635   1.068  15.992  0.0508 -0.2653 -0.0048
 1374POSM   C2A16118  21.314   0.900  15.715 -0.2548  0.1792  0.2132
 1374POSM   C3A16119  21.215   0.470  15.686  0.0135  0.0522  0.0280
 1374POSM   C1B16120  21.433   1.522  15.931 -0.2201 -0.0304  0.0786
 1374POSM   D2B16121  21.044   1.306  15.869 -0.1711  0.3773 -0.2211
 1374POSM   C3B16122  20.826   1.516  15.485  0.2395  0.0833 -0.2507
 1374POSM   C4B16123  20.773   1.681  15.081  0.0214 -0.1515 -0.1158
 1375POSM   NC316124  12.812   7.006  15.187  0.0181 -0.3223  0.0674
 1375POSM   PO416125  13.162   7.015  15.306  0.1265  0.0890  0.0113
 1375POSM   AM116126  13.215   7.104  15.012 -0.0351 -0.0037  0.2553
 1375POSM   AM216127  13.482   7.079  14.876  0.1220 -0.2595 -0.2379
 1375POSM   T1A16128  13.123   7.284  14.584 -0.1046  0.2040  0.1880
 1375POSM   C2A16129  12.939   7.454  14.195 -0.3820  0.2560 -0.2504
 1375POSM   C3A16130  13.046   7.485  13.729 -0.1164 -0.1452  0.0847
 1375POSM   C1B16131  13.601   6.997  14.593 -0.0373  0.1883 -0.0715
 1375POSM   D2B16132  13.697   6.653  14.213  0.0259 -0.2492  0.0191
 1375POSM   C3B16133  13.712   6.870  13.764 -0.2194  0.1808  0.1781
 1375POSM   C4B16134  13.744   6.905  13.323 -0.1630 -0.0928  0.0262
 1376DOPE   NH316135  12.723   1.750  14.805  0.1395  0.2403 -0.6334
 1376DOPE   PO416136  12.850   1.477  14.675 -0.0946 -0.0268 -0.1085
 1376DOPE   GL116137  12.747   1.503  14.319  0.2445  0.3606 -0.2050
 1376DOPE   GL216138  12.821   1.174  14.233  0.4024 -0.5484  0.1712
 1376DOPE   C1A16139  12.826   1.690  13.906  0.0218  0.0376  0.2591
 1376DOPE   D2A16140  13.001   1.715  13.511 -0.2412  0.0841 -0.0847
 1376DOPE   C3A16141  12.782   1.764  13.086  0.0199  0.1115  0.2316
 1376DOPE   C4A16142  12.530   2.088  12.857 -0.2569  0.0973  0.2429
 1376DOPE   C1B16143  12.970   1.177  13.765  0.1720 -0.0399  0.1093
 1376DOPE   D2B16144  12.906   1.265  13.306  0.1452 -0.0128  0.0046
 1376DOPE   C3B16145  13.111   1.467  12.942 -0.0090 -0.2912  0.0737
 1376DOPE   C4B16146  13.471   1.239  12.784  0.0887  0.3477 -0.0657
 1377POSM   NC316147  12.121   1.938  14.723 -0.0251  0.3672  0.0885
 1377POSM   PO416148  12.266   1.602  14.689 -0.1219  0.0098 -0.0669
 1377POSM   AM116149  12.344   1.713  14.382 -0.3430  0.0305 -0.2172
 1377POSM   AM216150  12.359   1.933  14.212  0.3019  0.2518  0.4137
 1377POSM   T1A16151  12.410   1.441  13.971  0.0819 -0.0950 -0.0224
 1377POSM   C2A16152  12.434   1.639  13.541 -0.1649 -0.5477 -0.0738
 1377POSM   C3A16153  12.408   1.456  13.072  0.0120 -0.0807  0.0927
 1377POSM   C1B16154  12.206   2.105  13.930  0.1512  0.2586 -0.1130
 1377POSM   D2B16155  12.060   2.518  13.789 -0.0914 -0.0987  0.1609
 1377POSM   C3B16156  11.899   2.320  13.467  0.2717 -0.0023 -0.0521
 1377POSM   C4B16157  12.036   1.888  13.329  0.0256  0.2738  0.1346
 1378DOPE   NH316158  15.509  11.168  14.668 -0.1203  0.1432 -0.0026
 1378DOPE   PO416159  15.615  11.428  14.481 -0.1750 -0.0312 -0.1144
 1378DOPE   GL116160  15.719  11.289  14.190 -0.2151  0.1343 -0.1809
 1378DOPE   GL216161  15.775  11.496  13.996 -0.0866 -0.1149  0.1540
 1378DOPE   C1A16162  16.064  11.103  13.895 -0.1167  0.0033  0.2818
 1378DOPE   D2A16163  16.036  11.167  13.442 -0.2718 -0.2180  0.0034
 1378DOPE   C3A16164  16.126  10.803  13.083  0.1979 -0.0586 -0.2749
 1378DOPE   C4A16165  16.465  10.412  13.060 -0.0855 -0.2809  0.2293
 1378DOPE   C1B16166  15.591  11.240  13.698  0.0670 -0.2880 -0.1928
 1378DOPE   D2B16167  15.525  11.047  13.291  0.2218 -0.2636  0.2080
 1378DOPE   C3B16168  15.534  10.582  13.284 -0.0532 -0.0346 -0.0409
 1378DOPE   C4B16169  15.773  10.176  13.384  0.0414 -0.1644  0.1382
 1379POSM   NC316170  12.499   4.791  15.910 -0.2264  0.1776 -0.0907
 1379POSM   PO416171  12.246   4.969  15.674 -0.2642 -0.2280 -0.0742
 1379POSM   AM116172  12.149   5.089  15.371 -0.3169  0.2373 -0.1778
 1379POSM   AM216173  11.940   4.961  15.175 -0.1092  0.0127  0.0280
 1379POSM   T1A16174  12.330   5.262  14.932 -0.3055  0.0504  0.2943
 1379POSM   C2A16175  12.234   5.294  14.436  0.1491  0.1242  0.1568
 1379POSM   C3A16176  12.442   5.390  14.038 -0.1454 -0.1875 -0.2525
 1379POSM   C1B16177  11.915   5.052  14.833  0.0388  0.0973 -0.1576
 1379POSM   D2B16178  11.784   5.027  14.330  0.0719  0.4466 -0.1403
 1379POSM   C3B16179  11.633   4.843  13.906  0.0667 -0.1013 -0.0781
 1379POSM   C4B16180  11.556   4.491  13.547  0.1211  0.0519  0.2965
 1380DOPS   CNO16181  23.044   2.110  16.548 -0.2045 -0.0716 -0.0198
 1380DOPS   PO416182  23.329   2.349  16.517  0.1169  0.2230  0.2329
 1380DOPS   GL116183  23.376   2.194  16.094  0.0659  0.0356 -0.3870
 1380DOPS   GL216184  23.424   1.881  16.054 -0.3472 -0.3363 -0.1943
 1380DOPS   C1A16185  23.175   2.300  15.685  0.0547 -0.1967 -0.3130
 1380DOPS   D2A16186  23.111   2.456  15.285 -0.0808  0.0413 -0.2580
 1380DOPS   C3A16187  23.077   2.643  14.838  0.1003  0.0781  0.0106
 1380DOPS   C4A16188  22.766   2.544  14.501 -0.0046  0.2616 -0.0738
 1380DOPS   C1B16189  23.567   1.757  15.604  0.0147  0.4460 -0.3435
 1380DOPS   D2B16190  23.774   1.678  15.160  0.0040 -0.1707 -0.1337
 1380DOPS   C3B16191  23.924   1.503  14.687 -0.1346  0.3148 -0.1566
 1380DOPS   C4B16192  24.150   1.355  14.285 -0.4376 -0.1184  0.0197
 1381DOPC   NC316193  16.242   9.924  15.076  0.0500  0.3270 -0.0391
 1381DOPC   PO416194  15.945  10.150  14.961  0.2254  0.4029 -0.1077
 1381DOPC   GL116195  16.081  10.059  14.566  0.2620 -0.1161 -0.1339
 1381DOPC   GL216196  16.215  10.256  14.388  0.2285  0.0090 -0.1046
 1381DOPC   C1A16197  16.275   9.784  14.201  0.0190  0.0596 -0.0602
 1381DOPC   D2A16198  16.406   9.595  13.791  0.0458  0.0311  0.1155
 1381DOPC   C3A16199  16.224   9.306  13.463 -0.0081  0.0494  0.2276
 1381DOPC   C4A16200  15.853   9.082  13.331  0.5292  0.0752 -0.1905
 1381DOPC   C1B16201  15.862  10.165  14.191  0.4508 -0.1694 -0.1330
 1381DOPC   D2B16202  15.560  10.198  13.848  0.0708  0.1234 -0.1326
 1381DOPC   C3B16203  15.343   9.959  13.480 -0.0110 -0.3989  0.1521
 1381DOPC   C4B16204  15.344   9.728  13.093 -0.3851 -0.1336 -0.0862
 1382DOPS   CNO16205  12.167  12.114  15.597  0.0503 -0.1828 -0.2295
 1382DOPS   PO416206  12.485  11.957  15.346 -0.1243  0.3068  0.3657
 1382DOPS   GL116207  12.297  11.771  15.113  0.3883 -0.6428  0.4144
 1382DOPS   GL216208  12.442  11.879  14.834 -0.1481 -0.1411 -0.1680
 1382DOPS   C1A16209  11.989  11.429  15.018  0.1759  0.0507 -0.0346
 1382DOPS   D2A16210  11.669  11.122  15.157  0.1567 -0.3646  0.1066
 1382DOPS   C3A16211  11.395  10.951  14.813  0.0307 -0.1468 -0.3243
 1382DOPS   C4A16212  11.139  11.005  14.391  0.1966 -0.0041 -0.0123
 1382DOPS   C1B16213  12.128  11.851  14.540 -0.3125 -0.1038  0.1003
 1382DOPS   D2B16214  11.704  11.783  14.368 -0.1933  0.1202 -0.0117
 1382DOPS   C3B16215  11.524  11.647  13.949 -0.0381  0.2542  0.1320
 1382DOPS   C4B16216  11.431  11.442  13.571 -0.1040  0.3271  0.2049
 1383DOPE   NH316217  21.347   8.628  16.038 -0.1262 -0.1335 -0.1696
 1383DOPE   PO416218  21.113   8.668  15.861 -0.0288 -0.1299  0.2804
 1383DOPE   GL116219  21.141   8.786  15.445  0.0724  0.0285  0.1783
 1383DOPE   GL216220  20.926   8.594  15.286 -0.2418 -0.1452  0.0008
 1383DOPE   C1A16221  21.427   9.066  15.283  0.0047  0.3516  0.1438
 1383DOPE   D2A16222  21.534   9.501  15.230  0.1670  0.0910 -0.1922
 1383DOPE   C3A16223  21.612   9.654  14.772  0.1728  0.2079 -0.0321
 1383DOPE   C4A16224  21.716   9.755  14.355  0.0894  0.0922 -0.1835
 1383DOPE   C1B16225  20.873   8.670  14.816  0.0036  0.1816  0.2524
 1383DOPE   D2B16226  20.986   8.655  14.387  0.2847  0.1177 -0.0918
 1383DOPE   C3B16227  20.809   8.545  14.020  0.1210 -0.1684 -0.0818
 1383DOPE   C4B16228  20.629   8.198  13.796  0.2753 -0.2794 -0.1294
 1384DOPC   NC316229  13.252   6.523  15.479  0.1664  0.0519 -0.1094
 1384DOPC   PO416230  13.168   6.153  15.406 -0.0562 -0.0842 -0.2498
 1384DOPC   GL116231  13.146   6.573  15.046  0.1546 -0.2315  0.3245
 1384DOPC   GL216232  13.281   6.591  14.779 -0.3804 -0.0768  0.1508
 1384DOPC   C1A16233  12.916   6.830  14.668 -0.0717  0.1983 -0.2703
 1384DOPC   D2A16234  12.829   6.986  14.238 -0.0560  0.1122 -0.0972
 1384DOPC   C3A16235  12.839   6.941  13.818 -0.4501  0.1804 -0.2167
 1384DOPC   C4A16236  12.970   6.906  13.341  0.3035  0.4172 -0.0307
 1384DOPC   C1B16237  13.312   6.334  14.450 -0.0561 -0.2130 -0.0209
 1384DOPC   D2B16238  13.449   6.319  13.961 -0.0086 -0.0636 -0.2481
 1384DOPC   C3B16239  13.326   6.608  13.606 -0.0740 -0.0265 -0.0010
 1384DOPC   C4B16240  13.317   6.674  13.163 -0.0178 -0.1044 -0.1357
 1385DOPS   CNO16241  11.143   2.641  15.129 -0.1037 -0.3762 -0.3216
 1385DOPS   PO416242  11.172   2.355  14.909 -0.1984 -0.2667  0.0198
 1385DOPS   GL116243  11.350   2.607  14.534 -0.3424 -0.1752  0.1014
 1385DOPS   GL216244  11.315   2.410  14.403  0.2149  0.1810 -0.0708
 1385DOPS   C1A16245  11.247   2.859  14.099  0.2115 -0.2741 -0.0752
 1385DOPS   D2A16246  10.986   2.922  13.770 -0.0671  0.0163  0.1139
 1385DOPS   C3A16247  10.830   3.290  13.541  0.2449 -0.0997 -0.1267
 1385DOPS   C4A16248  10.688   3.371  13.136  0.1783  0.1321  0.1373
 1385DOPS   C1B16249  10.897   2.476  14.243 -0.0220  0.0061 -0.2621
 1385DOPS   D2B16250  10.506   2.337  13.998 -0.1565 -0.0957 -0.2305
 1385DOPS   C3B16251  10.705   2.522  13.624  0.0249  0.0085  0.0397
 1385DOPS   C4B16252  10.868   2.818  13.307 -0.0911 -0.3109 -0.1232
 1386DOPC   NC316253  14.738   2.320  15.749  0.3871  0.2220 -0.1616
 1386DOPC   PO416254  14.579   2.509  15.473 -0.0156  0.1249  0.1128
 1386DOPC   GL116255  14.454   2.353  15.144 -0.2710  0.1600 -0.1184
 1386DOPC   GL216256  14.715   2.194  15.008  0.0072  0.0386 -0.4384
 1386DOPC   C1A16257  14.426   2.327  14.645 -0.0234  0.2836  0.1713
 1386DOPC   D2A16258  14.426   2.137  14.208 -0.0249 -0.1438 -0.4561
 1386DOPC   C3A16259  14.707   1.799  14.082  0.0835 -0.3509 -0.2167
 1386DOPC   C4A16260  14.845   1.528  13.712 -0.0102  0.2525  0.0002
 1386DOPC   C1B16261  14.956   2.395  14.636  0.1090  0.0384  0.0931
 1386DOPC   D2B16262  14.819   2.697  14.389 -0.1784 -0.1932 -0.1075
 1386DOPC   C3B16263  15.064   3.094  14.298 -0.3205  0.0930 -0.2621
 1386DOPC   C4B16264  15.253   3.354  13.989  0.3262  0.0199 -0.2292
 1387DOPE   NH316265  22.110   8.288  15.846 -0.1023 -0.2501 -0.0032
 1387DOPE   PO416266  22.033   8.510  15.624 -0.2954 -0.2110 -0.0079
 1387DOPE   GL116267  21.901   8.439  15.264 -0.0881 -0.0719  0.2100
 1387DOPE   GL216268  22.036   8.728  15.200 -0.0572  0.1981 -0.0985
 1387DOPE   C1A16269  21.957   8.363  14.799  0.1595 -0.2853  0.0697
 1387DOPE   D2A16270  21.750   8.580  14.473 -0.0466  0.1730  0.0937
 1387DOPE   C3A16271  21.430   8.892  14.451 -0.2089  0.2359 -0.3355
 1387DOPE   C4A16272  21.207   9.241  14.303 -0.1500  0.0283 -0.0037
 1387DOPE   C1B16273  21.909   8.862  14.801 -0.0629  0.0892 -0.2022
 1387DOPE   D2B16274  21.734   9.215  14.599 -0.0026  0.0083 -0.0599
 1387DOPE   C3B16275  21.731   9.246  14.159 -0.0348 -0.0520  0.0357
 1387DOPE   C4B16276  21.670   9.411  13.712 -0.0924 -0.1153 -0.1457
 1388POSM   NC316277  18.913   8.731  16.201 -0.1104 -0.0723 -0.2220
 1388POSM   PO416278  18.552   8.731  16.124  0.0512 -0.0162  0.0690
 1388POSM   AM116279  18.335   8.644  15.877 -0.1005  0.0353 -0.2033
 1388POSM   AM216280  18.237   8.799  15.684  0.2091 -0.0161  0.1669
 1388POSM   T1A16281  18.198   8.342  15.468  0.1944 -0.2743 -0.1432
 1388POSM   C2A16282  18.110   8.103  15.107  0.0343  0.1486  0.0085
 1388POSM   C3A16283  18.322   7.860  14.770  0.2513  0.1198 -0.0503
 1388POSM   C1B16284  18.360   8.922  15.381  0.1851 -0.1503  0.0781
 1388POSM   D2B16285  18.285   8.891  14.867 -0.0900  0.0135  0.0427
 1388POSM   C3B16286  18.040   9.138  14.723 -0.0110 -0.0441  0.2291
 1388POSM   C4B16287  17.804   9.407  14.398 -0.0939 -0.0994  0.1763
 1389DOPE   NH316288  15.490   9.524  15.362 -0.1583  0.2668 -0.4976
 1389DOPE   PO416289  15.298   9.710  15.217 -0.1750 -0.2283 -0.4035
 1389DOPE   GL116290  15.265   9.815  14.799 -0.0088 -0.2146 -0.2840
 1389DOPE   GL216291  15.346   9.590  14.682  0.0345  0.1326  0.1374
 1389DOPE   C1A16292  15.315   9.948  14.324 -0.1394  0.0525  0.4722
 1389DOPE   D2A16293  15.452   9.690  13.971 -0.1078 -0.2230  0.1427
 1389DOPE   C3A16294  15.586   9.441  13.588 -0.0023  0.2310 -0.1310
 1389DOPE   C4A16295  15.390   9.247  13.244  0.0751 -0.0560  0.0291
 1389DOPE   C1B16296  15.432   9.292  14.345 -0.0548  0.1584 -0.0907
 1389DOPE   D2B16297  15.429   9.123  13.912  0.0814  0.1675 -0.0309
 1389DOPE   C3B16298  15.500   8.651  13.749 -0.0882 -0.2226  0.0515
 1389DOPE   C4B16299  15.827   8.378  13.561  0.0133  0.2191  0.0728
 1390POSM   NC316300  18.649   8.318  15.788 -0.0120  0.1980  0.1588
 1390POSM   PO416301  18.998   8.323  15.941 -0.0592  0.0727  0.0751
 1390POSM   AM116302  19.066   8.330  15.576  0.1085 -0.2127 -0.0475
 1390POSM   AM216303  19.278   8.402  15.405 -0.1224 -0.2170 -0.0349
 1390POSM   T1A16304  18.934   8.447  15.086 -0.0603  0.0681  0.1565
 1390POSM   C2A16305  18.919   8.797  14.813  0.0391  0.0154 -0.2688
 1390POSM   C3A16306  19.178   8.941  14.472 -0.0253 -0.0804  0.2538
 1390POSM   C1B16307  19.477   8.429  15.089 -0.2925  0.2288 -0.0652
 1390POSM   D2B16308  19.860   8.446  14.837  0.3850 -0.2445  0.0210
 1390POSM   C3B16309  19.950   8.343  14.363 -0.0866 -0.0041 -0.1626
 1390POSM   C4B16310  20.036   8.312  13.884 -0.2171 -0.1039 -0.1264
 1391DOPC   NC316311  19.902   4.278  15.983  0.1689  0.2345  0.3045
 1391DOPC   PO416312  19.730   4.646  15.924  0.1636  0.0130 -0.0873
 1391DOPC   GL116313  19.642   4.452  15.577  0.4403 -0.0465  0.0451
 1391DOPC   GL216314  19.366   4.425  15.600  0.1415  0.2196  0.0106
 1391DOPC   C1A16315  19.513   4.568  15.153 -0.1567 -0.1520  0.1056
 1391DOPC   D2A16316  19.502   4.533  14.668  0.2274  0.0168  0.0396
 1391DOPC   C3A16317  19.136   4.359  14.453 -0.2188 -0.1941 -0.2514
 1391DOPC   C4A16318  18.934   4.322  14.033 -0.0756  0.3339 -0.0850
 1391DOPC   C1B16319  19.207   4.133  15.300 -0.0507 -0.1185  0.2561
 1391DOPC   D2B16320  19.144   3.841  15.027  0.0794  0.0122 -0.2997
 1391DOPC   C3B16321  19.065   3.808  14.587 -0.1707 -0.0970 -0.0986
 1391DOPC   C4B16322  19.059   3.865  14.120  0.6019 -0.1647 -0.1595
 1392DOPE   NH316323  17.675   9.994  15.852 -0.0770 -0.2112  0.1187
 1392DOPE   PO416324  17.770  10.251  15.708 -0.0451  0.0500  0.3574
 1392DOPE   GL116325  17.471  10.115  15.364  0.2907 -0.1817 -0.1731
 1392DOPE   GL216326  17.544   9.845  15.273  0.1359 -0.0973 -0.1108
 1392DOPE   C1A16327  17.384  10.071  14.889  0.1497 -0.0508 -0.1619
 1392DOPE   D2A16328  17.135  10.234  14.455  0.0521 -0.0742  0.1524
 1392DOPE   C3A16329  17.098  10.570  14.229 -0.3068 -0.0477  0.2071
 1392DOPE   C4A16330  17.263  10.789  13.900 -0.0093  0.3168  0.0042
 1392DOPE   C1B16331  17.904  10.097  15.057  0.0756  0.1216  0.0291
 1392DOPE   D2B16332  18.281  10.235  14.783  0.1491  0.3986  0.0719
 1392DOPE   C3B16333  18.751  10.202  14.767 -0.1169 -0.0060 -0.1419
 1392DOPE   C4B16334  19.147   9.973  14.622 -0.3160 -0.1210 -0.0882
 1393POSM   NC316335  18.451   0.611  16.060 -0.0466  0.0391 -0.1084
 1393POSM   PO416336  18.298   1.011  16.067  0.0801  0.2285 -0.1079
 1393POSM   AM116337  18.543   0.990  15.833  0.1416 -0.3591 -0.3144
 1393POSM   AM216338  18.728   1.133  15.612  0.1672 -0.1919  0.0573
 1393POSM   T1A16339  18.633   0.625  15.491 -0.2087 -0.0527  0.1553
 1393POSM   C2A16340  18.882   0.345  15.179  0.0380 -0.1290 -0.0669
 1393POSM   C3A16341  18.735   0.246  14.753  0.1883 -0.3310 -0.1478
 1393POSM   C1B16342  18.840   0.998  15.305 -0.3181 -0.1582 -0.0265
 1393POSM   D2B16343  18.785   0.933  14.834 -0.0611 -0.1723  0.1303
 1393POSM   C3B16344  18.786   0.977  14.337 -0.1548  0.0877  0.0603
 1393POSM   C4B16345  18.926   0.976  13.889 -0.1770 -0.1092 -0.1782
 1394DOPE   NH316346  20.741  10.340  16.115  0.1686  0.0717 -0.0109
 1394DOPE   PO416347  20.824  10.022  16.057 -0.1784 -0.0553 -0.0411
 1394DOPE   GL116348  20.740   9.896  15.737  0.0997 -0.0294 -0.3386
 1394DOPE   GL216349  20.975   9.684  15.624 -0.3542 -0.1162 -0.0279
 1394DOPE   C1A16350  20.670   9.988  15.280 -0.2993  0.0553  0.0827
 1394DOPE   D2A16351  20.580   9.786  14.838 -0.0008  0.0966 -0.3220
 1394DOPE   C3A16352  20.695   9.932  14.402 -0.0269 -0.1551 -0.1183
 1394DOPE   C4A16353  20.850  10.032  14.019  0.2137  0.1386 -0.3410
 1394DOPE   C1B16354  21.155  10.019  15.312 -0.2335 -0.0221  0.0314
 1394DOPE   D2B16355  21.471  10.194  15.134 -0.0855  0.0513  0.0931
 1394DOPE   C3B16356  21.396  10.165  14.694  0.0733 -0.0479 -0.0142
 1394DOPE   C4B16357  21.273  10.285  14.297  0.0277  0.0278 -0.1050
 1395DOPE   NH316358  11.853   3.299  15.454 -0.3263  0.0400 -0.3174
 1395DOPE   PO416359  11.971   3.444  15.192  0.0062 -0.2855  0.1176
 1395DOPE   GL116360  12.343   3.506  14.976  0.2546 -0.3027  0.2451
 1395DOPE   GL216361  12.613   3.583  14.962  0.2975 -0.2022  0.0968
 1395DOPE   C1A16362  12.258   3.758  14.572  0.0094  0.0852 -0.0501
 1395DOPE   D2A16363  12.306   3.941  14.116  0.0346  0.2620  0.1059
 1395DOPE   C3A16364  11.930   3.884  13.805 -0.3231 -0.1412  0.0501
 1395DOPE   C4A16365  11.672   3.585  13.590  0.0453  0.2171 -0.0408
 1395DOPE   C1B16366  12.780   3.647  14.536  0.0544 -0.0637  0.0705
 1395DOPE   D2B16367  12.805   3.842  14.122 -0.3280  0.0811 -0.1885
 1395DOPE   C3B16368  12.950   3.744  13.658 -0.2531 -0.3901 -0.1594
 1395DOPE   C4B16369  12.751   3.769  13.240  0.0474  0.1216  0.1643
 1396DOPE   NH316370  20.274   6.875  15.617 -0.2539  0.2530  0.1227
 1396DOPE   PO416371  19.993   7.036  15.569  0.0353 -0.3943  0.1280
 1396DOPE   GL116372  19.766   6.945  15.264 -0.0147 -0.1067 -0.1298
 1396DOPE   GL216373  19.864   6.730  15.055 -0.1989  0.0377  0.1978
 1396DOPE   C1A16374  19.680   7.162  14.877  0.0130 -0.2155  0.2029
 1396DOPE   D2A16375  19.649   7.158  14.388 -0.3875 -0.1499  0.3354
 1396DOPE   C3A16376  19.293   7.031  14.186  0.0030 -0.2661 -0.2417
 1396DOPE   C4A16377  18.979   6.838  13.930 -0.1124 -0.1604  0.2813
 1396DOPE   C1B16378  19.735   6.730  14.547  0.0667  0.0777 -0.0746
 1396DOPE   D2B16379  19.619   6.623  14.135 -0.1400  0.1896 -0.0955
 1396DOPE   C3B16380  19.897   6.585  13.807 -0.0786  0.0063 -0.0936
 1396DOPE   C4B16381  20.286   6.369  13.677  0.0101 -0.1347 -0.0220
 1397DOPE   NH316382  12.449   1.150  14.567  0.0744  0.0900 -0.1495
 1397DOPE   PO416383  12.661   0.949  14.682 -0.0814 -0.0653 -0.0381
 1397DOPE   GL116384  12.415   0.783  14.302 -0.0723 -0.0786  0.4407
 1397DOPE   GL216385  12.188   0.961  14.140  0.0054  0.2081 -0.2267
 1397DOPE   C1A16386  12.474   0.350  14.138 -0.1052 -0.2328 -0.2936
 1397DOPE   D2A16387  12.105   0.102  13.976 -0.0444 -0.2513  0.1379
 1397DOPE   C3A16388  11.941   0.098  13.532 -0.2629  0.3361  0.1292
 1397DOPE   C4A16389  11.651   0.016  13.171  0.1214  0.4759 -0.0716
 1397DOPE   C1B16390  12.585   0.899  13.910 -0.2160  0.3290  0.3609
 1397DOPE   D2B16391  12.894   0.565  13.840 -0.0128  0.0748 -0.0628
 1397DOPE   C3B16392  12.934   0.557  13.374 -0.0291 -0.1637 -0.2870
 1397DOPE   C4B16393  13.184   0.387  13.012 -0.0935 -0.1730  0.0879
 1398POSM   NC316394  19.627   2.690  16.350 -0.1081 -0.0186 -0.2439
 1398POSM   PO416395  19.977   2.604  16.187  0.3095 -0.0050 -0.1659
 1398POSM   AM116396  20.098   2.570  15.882 -0.2140  0.1139 -0.0790
 1398POSM   AM216397  19.975   2.543  15.660 -0.1484 -0.3437  0.2941
 1398POSM   T1A16398  20.521   2.595  15.547  0.1036 -0.3207  0.0256
 1398POSM   C2A16399  20.763   2.631  15.150  0.0183 -0.0447  0.3475
 1398POSM   C3A16400  20.696   2.818  14.702  0.1071 -0.2531 -0.0069
 1398POSM   C1B16401  20.064   2.580  15.325  0.0403 -0.4755  0.1222
 1398POSM   D2B16402  20.112   2.681  14.867 -0.0252  0.2150  0.2310
 1398POSM   C3B16403  19.799   2.657  14.522  0.1129 -0.0846  0.1327
 1398POSM   C4B16404  19.739   2.758  14.051 -0.1453  0.1328  0.4493
 1399DOPE   NH316405  20.699   7.116  15.889  0.1752  0.0418 -0.0663
 1399DOPE   PO416406  20.476   7.359  15.802 -0.4422 -0.1315  0.0167
 1399DOPE   GL116407  20.293   7.363  15.413 -0.1416 -0.2069  0.0723
 1399DOPE   GL216408  20.554   7.163  15.351  0.2054 -0.0813 -0.1189
 1399DOPE   C1A16409  20.192   7.256  14.979 -0.2008  0.3102  0.0207
 1399DOPE   D2A16410  20.162   7.163  14.512 -0.1100  0.2222  0.0979
 1399DOPE   C3A16411  20.052   6.894  14.137  0.2216  0.0239 -0.2534
 1399DOPE   C4A16412  19.722   7.151  13.809  0.0665  0.1365 -0.0425
 1399DOPE   C1B16413  20.637   7.540  15.107 -0.2100 -0.0420 -0.0741
 1399DOPE   D2B16414  20.575   7.958  15.022 -0.2759 -0.2615 -0.0290
 1399DOPE   C3B16415  20.690   8.083  14.539 -0.1734 -0.0965 -0.0398
 1399DOPE   C4B16416  21.010   8.073  14.239 -0.0705  0.2353  0.0552
 1400DOPE   NH316417  20.751  11.363  16.162  0.0916 -0.2464  0.0548
 1400DOPE   PO416418  20.590  11.084  16.210 -0.0016  0.1226  0.2535
 1400DOPE   GL116419  20.535  11.048  15.847  0.0017 -0.3430 -0.0996
 1400DOPE   GL216420  20.760  11.258  15.689  0.1088 -0.0423  0.0697
 1400DOPE   C1A16421  20.275  10.883  15.481  0.2097  0.0758 -0.1803
 1400DOPE   D2A16422  20.185  10.936  15.050  0.1305 -0.1900 -0.2983
 1400DOPE   C3A16423  20.059  10.564  14.785  0.0102  0.1834 -0.0175
 1400DOPE   C4A16424  20.255  10.164  14.626  0.0502  0.2189  0.3739
 1400DOPE   C1B16425  20.956  11.413  15.329  0.2113  0.3414 -0.1903
 1400DOPE   D2B16426  21.293  11.329  15.072 -0.2001 -0.1555 -0.0322
 1400DOPE   C3B16427  21.443  11.283  14.623  0.0997  0.0586  0.2970
 1400DOPE   C4B16428  21.776  11.058  14.352  0.0520  0.1583  0.2231
 1401POSM   NC316429  19.141   3.852  15.696 -0.0268 -0.1931  0.1110
 1401POSM   PO416430  19.386   3.727  15.955  0.1539 -0.0573 -0.0490
 1401POSM   AM116431  19.664   3.796  15.802 -0.1578  0.1085 -0.0181
 1401POSM   AM216432  19.661   4.021  15.603 -0.4498  0.0160  0.0088
 1401POSM   T1A16433  19.976   3.572  15.499  0.0482  0.0130 -0.0034
 1401POSM   C2A16434  20.162   3.531  15.109 -0.0092 -0.2000 -0.0324
 1401POSM   C3A16435  20.403   3.645  14.705  0.0083 -0.0125  0.4414
 1401POSM   C1B16436  19.660   4.034  15.290 -0.2702  0.0517 -0.3579
 1401POSM   D2B16437  19.553   4.068  14.836 -0.0956 -0.2285  0.0329
 1401POSM   C3B16438  19.488   4.051  14.364 -0.4275 -0.1170 -0.1232
 1401POSM   C4B16439  19.416   4.285  14.002  0.1887  0.3802  0.2671
 1402DOPC   NC316440  14.042   8.251  15.351 -0.1208 -0.0820  0.0380
 1402DOPC   PO416441  14.125   8.001  15.057 -0.2091 -0.1186  0.1100
 1402DOPC   GL116442  14.157   7.789  14.739 -0.1019 -0.0015 -0.3795
 1402DOPC   GL216443  14.310   7.967  14.589  0.0498 -0.1360  0.1655
 1402DOPC   C1A16444  14.011   7.505  14.424 -0.1172 -0.3272  0.2030
 1402DOPC   D2A16445  13.821   7.285  14.129 -0.2353 -0.0647 -0.0552
 1402DOPC   C3A16446  13.396   7.131  14.134  0.0044 -0.2308  0.0199
 1402DOPC   C4A16447  13.207   6.697  14.166 -0.2394  0.0187  0.0309
 1402DOPC   C1B16448  14.350   7.825  14.198 -0.5185 -0.2391  0.0744
 1402DOPC   D2B16449  14.075   7.639  13.917 -0.0096 -0.1441  0.0329
 1402DOPC   C3B16450  14.070   7.769  13.510 -0.1515  0.2883  0.1506
 1402DOPC   C4B16451  14.162   7.733  13.067 -0.2738  0.0098 -0.0505
 1403DOPE   NH316452  13.135   2.361  14.719 -0.1777 -0.1587 -0.1689
 1403DOPE   PO416453  13.070   2.095  14.624 -0.2954 -0.0255 -0.0356
 1403DOPE   GL116454  13.251   2.032  14.281 -0.4417 -0.1424 -0.0590
 1403DOPE   GL216455  13.133   2.392  14.229  0.2242  0.2336  0.0265
 1403DOPE   C1A16456  13.325   2.079  13.831  0.2017  0.0148 -0.3281
 1403DOPE   D2A16457  13.205   2.160  13.344 -0.1974  0.0137  0.1981
 1403DOPE   C3A16458  12.912   2.371  13.081 -0.2342 -0.5551  0.0376
 1403DOPE   C4A16459  12.725   2.481  12.662 -0.1013  0.1758 -0.0392
 1403DOPE   C1B16460  13.168   2.569  13.784  0.1384 -0.2105  0.0392
 1403DOPE   D2B16461  13.209   2.906  13.465  0.0895  0.0258  0.0106
 1403DOPE   C3B16462  13.589   3.152  13.434 -0.4106  0.1259  0.4659
 1403DOPE   C4B16463  13.953   3.360  13.273  0.1875  0.0715  0.2225
 1404DOPC   NC316464  21.834   5.938  15.942 -0.2576  0.1827 -0.1351
 1404DOPC   PO416465  22.152   5.934  16.130 -0.0476 -0.0541  0.2504
 1404DOPC   GL116466  22.108   5.590  15.907  0.1078  0.2138 -0.0349
 1404DOPC   GL216467  22.122   5.256  15.934 -0.1875 -0.0376 -0.0753
 1404DOPC   C1A16468  21.673   5.404  15.816  0.2852 -0.5260 -0.0871
 1404DOPC   D2A16469  21.467   5.481  15.439  0.2638  0.0682  0.0673
 1404DOPC   C3A16470  21.755   5.353  15.136 -0.1350 -0.1933  0.0827
 1404DOPC   C4A16471  21.876   5.320  14.695 -0.1308 -0.0506  0.1174
 1404DOPC   C1B16472  21.986   5.067  15.524  0.1177  0.0772 -0.2284
 1404DOPC   D2B16473  21.943   4.882  15.078  0.1109  0.0891 -0.2291
 1404DOPC   C3B16474  21.989   4.834  14.616 -0.1881  0.2026 -0.3153
 1404DOPC   C4B16475  21.998   4.688  14.195  0.0275  0.4852 -0.1473
 1405POSM   NC316476  12.616  34.182  15.406  0.1563  0.2641  0.0249
 1405POSM   PO416477  12.326  34.058  15.106 -0.2451  0.0356 -0.1647
 1405POSM   AM116478  12.399  34.186  14.795  0.3880  0.0566 -0.3157
 1405POSM   AM216479  12.222  34.284  14.553  0.0111  0.1412  0.0196
 1405POSM   T1A16480  12.663  34.323  14.376  0.0440  0.1098  0.2630
 1405POSM   C2A16481  12.679  34.589  14.034 -0.1405  0.2305 -0.2701
 1405POSM   C3A16482  12.579  34.873  13.689 -0.0829 -0.1620  0.0383
 1405POSM   C1B16483  12.175  34.266  14.217  0.2248  0.3532 -0.1241
 1405POSM   D2B16484  12.289  34.409  13.734 -0.0145 -0.2547  0.0704
 1405POSM   C3B16485  12.660  34.454  13.430  0.2064 -0.1335  0.1751
 1405POSM   C4B16486  12.959  34.193  13.148 -0.2347  0.1942 -0.1080
 1406DOPE   NH316487  19.080   2.481  15.692 -0.0879 -0.1842 -0.1631
 1406DOPE   PO416488  18.970   2.765  15.627  0.2186 -0.1124  0.2373
 1406DOPE   GL116489  19.449   2.672  15.448  0.1240  0.0427 -0.0000
 1406DOPE   GL216490  19.601   2.930  15.442 -0.1558 -0.0301  0.1096
 1406DOPE   C1A16491  19.576   2.648  14.973 -0.0369 -0.0230 -0.1112
 1406DOPE   D2A16492  19.265   2.811  14.669 -0.4049 -0.0121  0.1594
 1406DOPE   C3A16493  19.318   2.553  14.220 -0.0845  0.1324 -0.3191
 1406DOPE   C4A16494  19.341   2.286  13.771  0.1006  0.2400  0.3982
 1406DOPE   C1B16495  19.932   3.091  15.189  0.1536 -0.0827 -0.1432
 1406DOPE   D2B16496  19.862   3.209  14.719 -0.2265  0.1681 -0.0360
 1406DOPE   C3B16497  19.544   3.115  14.390  0.4742 -0.1892  0.1374
 1406DOPE   C4B16498  19.289   2.968  14.025  0.1626 -0.2973  0.2382
 1407DOPE   NH316499  21.932   3.732  16.164 -0.0515 -0.1478 -0.1211
 1407DOPE   PO416500  21.621   3.745  16.021  0.0269  0.3223  0.1321
 1407DOPE   GL116501  21.638   3.788  15.628  0.2754  0.4682  0.0719
 1407DOPE   GL216502  21.331   3.570  15.576 -0.2816  0.1408 -0.1044
 1407DOPE   C1A16503  21.644   4.101  15.238  0.2263  0.0183 -0.0002
 1407DOPE   D2A16504  21.761   4.389  14.874  0.0027  0.2278 -0.0588
 1407DOPE   C3A16505  21.777   4.235  14.377  0.1625  0.0272  0.1065
 1407DOPE   C4A16506  21.650   4.246  13.983 -0.2036  0.1122  0.3474
 1407DOPE   C1B16507  21.289   3.678  15.125 -0.1977  0.1245 -0.0289
 1407DOPE   D2B16508  21.122   3.550  14.758 -0.1709 -0.1386  0.0104
 1407DOPE   C3B16509  21.361   3.471  14.387  0.2242  0.0590  0.0392
 1407DOPE   C4B16510  21.515   3.375  13.932 -0.3167  0.3201  0.1088
 1408POSM   NC316511  14.634   0.756  14.871  0.0632 -0.4381  0.1220
 1408POSM   PO416512  15.017   0.728  14.771 -0.1217  0.3297  0.1972
 1408POSM   AM116513  15.146   0.724  14.450 -0.2176 -0.2097 -0.3524
 1408POSM   AM216514  15.405   0.653  14.384 -0.0311  0.0952 -0.0653
 1408POSM   T1A16515  15.408   1.085  14.122  0.2519 -0.0813  0.3689
 1408POSM   C2A16516  15.635   0.986  13.679 -0.1314  0.0616 -0.2840
 1408POSM   C3A16517  16.070   0.910  13.468  0.2870 -0.0195  0.0324
 1408POSM   C1B16518  15.513   0.554  14.022 -0.2709  0.0501 -0.0187
 1408POSM   D2B16519  15.649   0.466  13.586 -0.0833  0.2712  0.2376
 1408POSM   C3B16520  16.094   0.376  13.500  0.2284  0.2640  0.0737
 1408POSM   C4B16521  16.465   0.622  13.260 -0.1009  0.0773  0.3131
 1409DOPS   CNO16522  18.205   2.091  15.549  0.0646  0.0293  0.1346
 1409DOPS   PO416523  18.422   2.104  15.246  0.1477 -0.0072 -0.1900
 1409DOPS   GL116524  18.474   1.828  14.929  0.4632 -0.3497  0.4648
 1409DOPS   GL216525  18.645   1.658  14.950 -0.1924 -0.0712  0.1222
 1409DOPS   C1A16526  18.313   1.642  14.547 -0.1963 -0.2325 -0.0610
 1409DOPS   D2A16527  18.306   1.277  14.274  0.2489 -0.1116 -0.1196
 1409DOPS   C3A16528  17.944   1.305  13.984  0.2185 -0.1073  0.0137
 1409DOPS   C4A16529  17.679   1.290  13.610  0.0420  0.0096  0.1017
 1409DOPS   C1B16530  18.785   1.954  14.575  0.0815 -0.0678 -0.0294
 1409DOPS   D2B16531  18.856   2.420  14.579 -0.0105  0.4758 -0.0562
 1409DOPS   C3B16532  18.862   2.454  14.163  0.2296  0.3218  0.0096
 1409DOPS   C4B16533  18.969   2.694  13.767  0.1682 -0.2684  0.0237
 1410DOPC   NC316534  14.523  10.415  14.434 -0.0680 -0.1012  0.1681
 1410DOPC   PO416535  14.752  10.589  14.709 -0.3210  0.0547  0.0102
 1410DOPC   GL116536  14.781  10.763  14.311  0.1484 -0.1338  0.3208
 1410DOPC   GL216537  14.747  11.048  14.279  0.0120 -0.1613 -0.2413
 1410DOPC   C1A16538  14.709  10.556  13.875  0.0004 -0.2712 -0.1806
 1410DOPC   D2A16539  14.655  10.558  13.370 -0.0147  0.1908  0.4562
 1410DOPC   C3A16540  14.614  10.461  12.862 -0.2295 -0.2206 -0.3692
 1410DOPC   C4A16541  14.607  10.684  12.399 -0.1134 -0.0983 -0.2776
 1410DOPC   C1B16542  14.379  10.800  14.124  0.0473 -0.2369  0.1230
 1410DOPC   D2B16543  14.136  10.639  13.784 -0.1385 -0.2884 -0.3849
 1410DOPC   C3B16544  14.188  10.980  13.496  0.0410  0.0331  0.0828
 1410DOPC   C4B16545  14.431  11.352  13.401  0.1703 -0.0767 -0.2116
 1411POSM   NC316546  16.753   5.724  16.335  0.0949 -0.1843 -0.0607
 1411POSM   PO416547  16.661   5.944  16.001 -0.0585  0.2871 -0.2757
 1411POSM   AM116548  16.784   6.000  15.715 -0.0713  0.0741 -0.0047
 1411POSM   AM216549  16.948   6.198  15.497  0.0233 -0.0372  0.1238
 1411POSM   T1A16550  16.746   5.797  15.254 -0.3487 -0.0202 -0.1094
 1411POSM   C2A16551  16.829   5.364  15.161  0.2838  0.0301  0.0628
 1411POSM   C3A16552  16.798   4.937  15.083  0.1096  0.1906 -0.2946
 1411POSM   C1B16553  16.911   6.245  15.179 -0.2668  0.2903 -0.1723
 1411POSM   D2B16554  16.760   6.165  14.734  0.1320  0.0857 -0.0165
 1411POSM   C3B16555  16.356   6.088  14.452  0.3240  0.0905 -0.0380
 1411POSM   C4B16556  16.061   5.777  14.221  0.1915  0.2864  0.1316
 1412DOPE   NH316557  17.642   2.278  16.122  0.1534 -0.4248 -0.1028
 1412DOPE   PO416558  17.682   2.282  15.801  0.6708  0.1646  0.2189
 1412DOPE   GL116559  17.599   2.456  15.610  0.0249 -0.1127  0.3384
 1412DOPE   GL216560  17.373   2.336  15.422 -0.2397  0.1127 -0.0283
 1412DOPE   C1A16561  17.817   2.518  15.201 -0.0293  0.4069 -0.0367
 1412DOPE   D2A16562  17.877   2.161  14.957  0.1428  0.0222 -0.1146
 1412DOPE   C3A16563  18.149   2.094  14.626  0.0233  0.1206  0.0680
 1412DOPE   C4A16564  18.402   2.050  14.252 -0.0883  0.0644  0.1447
 1412DOPE   C1B16565  17.385   1.971  15.074 -0.0222 -0.1036 -0.3461
 1412DOPE   D2B16566  17.390   1.879  14.683  0.0189  0.1919 -0.0884
 1412DOPE   C3B16567  16.948   1.779  14.558  0.3914  0.1839 -0.0437
 1412DOPE   C4B16568  16.876   1.422  14.304 -0.2351  0.0907  0.0337
 1413DOPS   CNO16569  17.581   0.818  16.459 -0.2229  0.0551  0.0514
 1413DOPS   PO416570  17.785   1.057  16.261  0.1346  0.1152 -0.1837
 1413DOPS   GL116571  17.876   0.741  15.987 -0.0299  0.4997 -0.6972
 1413DOPS   GL216572  18.087   0.756  15.735 -0.3346  0.0262 -0.2465
 1413DOPS   C1A16573  17.828   0.319  15.695 -0.2188 -0.0357 -0.1043
 1413DOPS   D2A16574  17.730   0.232  15.274 -0.0511 -0.1878  0.2248
 1413DOPS   C3A16575  17.557   0.330  14.870  0.3976 -0.0317 -0.1946
 1413DOPS   C4A16576  17.695   0.136  14.477  0.1578  0.0063  0.0661
 1413DOPS   C1B16577  17.744   0.826  15.484 -0.2317  0.0364 -0.0074
 1413DOPS   D2B16578  17.374   0.665  15.276 -0.1047 -0.0866  0.2595
 1413DOPS   C3B16579  17.007   0.819  15.069  0.1524 -0.0120  0.1197
 1413DOPS   C4B16580  16.596   0.767  14.934 -0.0227  0.0336  0.1114
 1414DOPS   CNO16581  17.064  10.466  15.251 -0.1165  0.3479  0.0930
 1414DOPS   PO416582  16.780  10.236  15.338  0.2916 -0.1674  0.0896
 1414DOPS   GL116583  16.700   9.888  15.167 -0.3646  0.1260 -0.1366
 1414DOPS   GL216584  16.952   9.807  15.167  0.2984 -0.1806  0.1745
 1414DOPS   C1A16585  16.588   9.817  14.731 -0.1443  0.1430 -0.3358
 1414DOPS   D2A16586  16.751   9.951  14.334  0.3616 -0.1272  0.0415
 1414DOPS   C3A16587  16.843   9.641  14.039  0.0452  0.2780  0.0625
 1414DOPS   C4A16588  17.050   9.239  13.833 -0.2045 -0.0836  0.0030
 1414DOPS   C1B16589  16.950   9.492  14.856  0.3159  0.0908 -0.1187
 1414DOPS   D2B16590  16.970   9.338  14.386  0.1367 -0.0077  0.3963
 1414DOPS   C3B16591  16.924   8.879  14.249  0.0727 -0.2032 -0.2559
 1414DOPS   C4B16592  16.826   8.597  13.874  0.2599  0.1777  0.3451
 1415DOPE   NH316593  22.903   0.323  16.889 -0.0523  0.0638 -0.3146
 1415DOPE   PO416594  23.066   0.156  16.643  0.1775 -0.1058 -0.0512
 1415DOPE   GL116595  23.077   0.179  16.279  0.0563 -0.0241  0.1286
 1415DOPE   GL216596  23.205  -0.123  16.195 -0.2635 -0.2798  0.2613
 1415DOPE   C1A16597  23.391   0.330  15.944 -0.3348  0.0064 -0.0928
 1415DOPE   D2A16598  23.585   0.615  15.677 -0.2558  0.1780  0.1203
 1415DOPE   C3A16599  23.653   0.664  15.205 -0.0572 -0.3932  0.0582
 1415DOPE   C4A16600  23.340   0.839  14.832  0.0298  0.4352  0.2761
 1415DOPE   C1B16601  22.981   0.142  15.832 -0.2187  0.2567 -0.1705
 1415DOPE   D2B16602  22.789   0.153  15.325  0.0772  0.3966 -0.1666
 1415DOPE   C3B16603  22.978  -0.143  15.026  0.3450 -0.1121 -0.3164
 1415DOPE   C4B16604  23.267  -0.488  14.844 -0.1037  0.0987 -0.1971
 1416DOPC   NC316605  17.270   2.905  15.491 -0.0767 -0.3000 -0.0444
 1416DOPC   PO416606  16.960   2.630  15.499  0.2236  0.0604  0.1659
 1416DOPC   GL116607  17.141   2.563  15.104  0.1183  0.0187  0.0086
 1416DOPC   GL216608  17.021   2.303  15.004 -0.1180  0.4493 -0.1028
 1416DOPC   C1A16609  17.461   2.825  14.961  0.0679 -0.0643  0.1315
 1416DOPC   D2A16610  17.553   3.008  14.552 -0.2400 -0.1393  0.1655
 1416DOPC   C3A16611  17.618   2.697  14.235  0.2341  0.0186 -0.0623
 1416DOPC   C4A16612  17.493   2.290  14.065  0.1188  0.1046 -0.1244
 1416DOPC   C1B16613  16.629   2.094  14.738  0.0115  0.2010  0.0208
 1416DOPC   D2B16614  16.282   2.202  14.475  0.0067 -0.0938  0.2637
 1416DOPC   C3B16615  16.099   2.595  14.512 -0.0287  0.0964  0.1631
 1416DOPC   C4B16616  16.077   3.080  14.476 -0.1806 -0.3923 -0.1212
 1417DOPS   CNO16617  21.229   6.402  16.275 -0.4075 -0.0025  0.1893
 1417DOPS   PO416618  21.487   6.440  16.006 -0.3379  0.4188 -0.1877
 1417DOPS   GL116619  21.710   6.331  15.687  0.2157  0.3152 -0.3438
 1417DOPS   GL216620  21.898   6.439  15.469 -0.0830 -0.1452 -0.1659
 1417DOPS   C1A16621  21.768   5.950  15.394 -0.2584  0.0392  0.1804
 1417DOPS   D2A16622  21.982   5.585  15.487 -0.1658 -0.3713  0.0030
 1417DOPS   C3A16623  22.332   5.466  15.269  0.1735 -0.2074 -0.0753
 1417DOPS   C4A16624  22.570   5.593  14.917 -0.1897 -0.1222 -0.1041
 1417DOPS   C1B16625  21.955   6.390  15.038  0.1008 -0.0755  0.0519
 1417DOPS   D2B16626  22.160   6.207  14.651  0.1959 -0.1512 -0.3517
 1417DOPS   C3B16627  21.845   6.104  14.254  0.2876 -0.0012  0.0421
 1417DOPS   C4B16628  21.428   5.974  14.261  0.1891  0.1372 -0.1735
 1418DOPE   NH316629  14.293   9.960  14.913 -0.0570  0.2694 -0.2731
 1418DOPE   PO416630  14.490  10.185  14.868  0.1628 -0.2396  0.2364
 1418DOPE   GL116631  14.297  10.010  14.444  0.0180 -0.1243  0.3438
 1418DOPE   GL216632  14.166  10.137  14.234 -0.1274 -0.1007  0.0203
 1418DOPE   C1A16633  14.669  10.009  14.149  0.2372  0.0583 -0.1240
 1418DOPE   D2A16634  14.962   9.958  13.785 -0.2634  0.3073 -0.3390
 1418DOPE   C3A16635  14.876   9.954  13.342  0.1774  0.0577 -0.0437
 1418DOPE   C4A16636  14.855   9.961  12.864 -0.1046  0.2233 -0.0022
 1418DOPE   C1B16637  14.307   9.991  13.800 -0.0652  0.2344  0.2271
 1418DOPE   D2B16638  14.268   9.837  13.354 -0.3566 -0.2374  0.0513
 1418DOPE   C3B16639  13.868   9.824  13.101 -0.2955 -0.1623 -0.3519
 1418DOPE   C4B16640  13.690   9.619  12.712  0.0596  0.2948 -0.1371
 1419DOPE   NH316641  20.009   7.654  15.746 -0.0296  0.1788 -0.0368
 1419DOPE   PO416642  19.987   7.988  15.843  0.1055  0.0899 -0.0051
 1419DOPE   GL116643  20.227   8.026  15.588 -0.3163  0.2016 -0.0529
 1419DOPE   GL216644  20.421   7.779  15.491  0.0729  0.2977  0.1364
 1419DOPE   C1A16645  20.112   8.187  15.177 -0.1315 -0.1307  0.2291
 1419DOPE   D2A16646  20.162   7.980  14.739  0.1108  0.0598 -0.0359
 1419DOPE   C3A16647  20.427   7.611  14.660  0.1306 -0.1781  0.0847
 1419DOPE   C4A16648  20.731   7.251  14.722 -0.5354 -0.3631  0.0448
 1419DOPE   C1B16649  20.169   7.705  15.150  0.0769  0.0118  0.0929
 1419DOPE   D2B16650  19.886   7.569  14.829  0.0448  0.1565 -0.0351
 1419DOPE   C3B16651  19.977   7.681  14.373  0.0932 -0.1248  0.3686
 1419DOPE   C4B16652  19.648   7.660  14.032  0.1485  0.1709  0.0618
 1420DOPE   NH316653  17.650   5.569  16.227  0.1110  0.1242 -0.4183
 1420DOPE   PO416654  17.924   5.494  16.113 -0.1256  0.0047 -0.1437
 1420DOPE   GL116655  17.984   5.311  15.825 -0.0596  0.2951 -0.5462
 1420DOPE   GL216656  17.752   5.043  15.755  0.3290 -0.1523  0.1804
 1420DOPE   C1A16657  18.189   5.076  15.443 -0.1418  0.1747  0.1262
 1420DOPE   D2A16658  18.076   5.014  15.026  0.2137 -0.2915  0.2942
 1420DOPE   C3A16659  17.900   4.600  14.813  0.0671 -0.0840  0.0017
 1420DOPE   C4A16660  18.128   4.187  14.838 -0.3208 -0.0870 -0.2760
 1420DOPE   C1B16661  17.634   5.203  15.304 -0.1341  0.0512 -0.1503
 1420DOPE   D2B16662  17.375   5.510  15.039  0.1565  0.0371  0.0702
 1420DOPE   C3B16663  17.331   5.490  14.593  0.0416  0.0609  0.2540
 1420DOPE   C4B16664  17.175   5.552  14.205  0.2858  0.0304 -0.2303
 1421DOPC   NC316665  22.274  11.644  16.042 -0.0086  0.0718 -0.2695
 1421DOPC   PO416666  22.259  11.290  15.888  0.1983  0.1556 -0.0142
 1421DOPC   GL116667  22.441  11.187  15.661 -0.1130 -0.2972 -0.0235
 1421DOPC   GL216668  22.541  11.091  15.365 -0.0273 -0.0970 -0.2316
 1421DOPC   C1A16669  22.809  10.899  15.741 -0.2726 -0.0780 -0.2847
 1421DOPC   D2A16670  23.234  10.994  15.590 -0.0301 -0.0374 -0.4201
 1421DOPC   C3A16671  23.168  11.347  15.325  0.2085 -0.3151 -0.2683
 1421DOPC   C4A16672  22.743  11.520  15.144  0.0130 -0.2336  0.2336
 1421DOPC   C1B16673  22.245  11.319  15.116 -0.0976  0.0389 -0.0974
 1421DOPC   D2B16674  21.891  11.442  14.810 -0.1946  0.0071 -0.1795
 1421DOPC   C3B16675  21.853  11.579  14.384 -0.0195 -0.2033  0.1043
 1421DOPC   C4B16676  21.603  11.793  14.075 -0.1130  0.0650  0.1155
 1422POSM   NC316677  13.762   6.600  14.850 -0.3407  0.3359  0.1079
 1422POSM   PO416678  13.625   6.350  15.127 -0.1259  0.2615  0.3421
 1422POSM   AM116679  13.447   6.194  14.923  0.3668 -0.0153  0.2347
 1422POSM   AM216680  13.175   6.111  14.907  0.2014  0.1349  0.0051
 1422POSM   T1A16681  13.383   5.881  14.548 -0.0236 -0.1904 -0.1345
 1422POSM   C2A16682  13.467   5.662  14.122  0.2623 -0.1531  0.0214
 1422POSM   C3A16683  13.716   5.482  13.766  0.2809 -0.2150 -0.2039
 1422POSM   C1B16684  12.892   6.026  14.663 -0.0655  0.0828  0.0182
 1422POSM   D2B16685  12.408   5.931  14.522 -0.2414  0.2518 -0.1292
 1422POSM   C3B16686  12.116   5.738  14.171  0.1997  0.0576 -0.1149
 1422POSM   C4B16687  12.163   5.835  13.704 -0.1838 -0.2373 -0.1331
 1423POSM   NC316688  11.556   9.149  15.642 -0.1988  0.0765  0.0209
 1423POSM   PO416689  11.323   9.422  15.522  0.2835  0.1066  0.1707
 1423POSM   AM116690  11.175   9.586  15.241  0.0191  0.5420 -0.0903
 1423POSM   AM216691  11.068   9.425  15.040 -0.0472 -0.0000 -0.0745
 1423POSM   T1A16692  10.806   9.835  15.133  0.0858  0.1163  0.1599
 1423POSM   C2A16693  10.584  10.292  15.176 -0.0169 -0.1309  0.0213
 1423POSM   C3A16694  10.160  10.451  15.206  0.0601  0.0324 -0.1732
 1423POSM   C1B16695  11.126   9.571  14.703 -0.1150  0.3301  0.1616
 1423POSM   D2B16696  11.349   9.653  14.289  0.0793  0.1629 -0.1712
 1423POSM   C3B16697  11.798   9.443  14.270  0.0819 -0.1356  0.0550
 1423POSM   C4B16698  12.204   9.492  14.515 -0.0032  0.1600 -0.2377
 1424DOPC   NC316699  16.264   4.737  15.738 -0.0328  0.1124 -0.0447
 1424DOPC   PO416700  16.290   4.365  15.924 -0.0089  0.0918 -0.2212
 1424DOPC   GL116701  16.409   4.150  15.590  0.0621  0.0640 -0.2647
 1424DOPC   GL216702  16.591   4.412  15.482 -0.1522  0.2543  0.0204
 1424DOPC   C1A16703  16.347   3.949  15.170 -0.1630 -0.0441 -0.1965
 1424DOPC   D2A16704  16.347   3.924  14.694 -0.1021 -0.1164 -0.1827
 1424DOPC   C3A16705  16.405   3.521  14.445  0.0946 -0.0002  0.1180
 1424DOPC   C4A16706  16.331   3.302  14.039 -0.0955 -0.0156 -0.1100
 1424DOPC   C1B16707  16.577   4.342  15.024 -0.1191 -0.1783 -0.0696
 1424DOPC   D2B16708  16.690   4.304  14.593  0.0660 -0.0014 -0.0686
 1424DOPC   C3B16709  16.534   4.383  14.167  0.1784  0.1723  0.1799
 1424DOPC   C4B16710  16.149   4.561  13.923  0.1331 -0.0799  0.0316
 1425DOPC   NC316711  18.795   4.210  15.638  0.1436  0.1462  0.0133
 1425DOPC   PO416712  18.972   4.489  15.844  0.1547  0.0749 -0.1817
 1425DOPC   GL116713  18.934   4.787  15.644 -0.3348 -0.1724  0.1293
 1425DOPC   GL216714  18.686   4.768  15.534  0.2695 -0.2417  0.0085
 1425DOPC   C1A16715  19.159   4.957  15.272 -0.3215  0.1223  0.1149
 1425DOPC   D2A16716  19.576   5.087  15.140 -0.1214 -0.0258  0.0777
 1425DOPC   C3A16717  19.684   5.462  14.903 -0.1410  0.0527 -0.1044
 1425DOPC   C4A16718  19.715   5.597  14.515  0.1404 -0.4077  0.3167
 1425DOPC   C1B16719  18.643   4.938  15.148 -0.0450  0.0929 -0.5301
 1425DOPC   D2B16720  18.495   5.060  14.709  0.2343  0.2048 -0.0902
 1425DOPC   C3B16721  18.340   5.467  14.537 -0.1777 -0.0856 -0.1474
 1425DOPC   C4B16722  18.266   5.923  14.397  0.1104 -0.1718  0.0153
 1426DOPS   CNO16723  12.235   8.639  15.825  0.1883  0.4370  0.0575
 1426DOPS   PO416724  12.478   8.412  15.596 -0.2167 -0.0026  0.0418
 1426DOPS   GL116725  12.423   8.340  15.202  0.3273  0.2651  0.1363
 1426DOPS   GL216726  12.288   8.051  15.140 -0.1576  0.5077  0.1423
 1426DOPS   C1A16727  12.612   8.495  14.804 -0.1246  0.0984 -0.0979
 1426DOPS   D2A16728  12.502   8.507  14.367 -0.0701 -0.0941 -0.0967
 1426DOPS   C3A16729  12.846   8.219  14.192 -0.0121  0.1461 -0.0370
 1426DOPS   C4A16730  12.884   8.187  13.728 -0.1338 -0.0079 -0.1916
 1426DOPS   C1B16731  12.233   8.061  14.691 -0.3188  0.1044 -0.0746
 1426DOPS   D2B16732  12.241   7.985  14.263  0.0263  0.1452 -0.1240
 1426DOPS   C3B16733  12.445   8.285  13.931 -0.0135 -0.2068 -0.1766
 1426DOPS   C4B16734  12.580   8.475  13.511  0.0037 -0.1147  0.0663
 1427DOPE   NH316735  18.724   1.820  15.498  0.0655 -0.2148  0.0940
 1427DOPE   PO416736  18.436   1.664  15.587  0.1553  0.1829  0.0570
 1427DOPE   GL116737  18.422   1.429  15.258  0.1921  0.0154 -0.2444
 1427DOPE   GL216738  18.158   1.611  15.185  0.2447  0.0788 -0.3156
 1427DOPE   C1A16739  18.405   1.239  14.771  0.2227  0.2400  0.0310
 1427DOPE   D2A16740  18.337   0.836  14.531 -0.1593 -0.0355  0.1497
 1427DOPE   C3A16741  18.206   0.779  14.065  0.1013 -0.0383 -0.1799
 1427DOPE   C4A16742  18.040   0.889  13.629 -0.2528  0.2501 -0.1211
 1427DOPE   C1B16743  17.837   1.668  14.809  0.1900 -0.0670  0.0499
 1427DOPE   D2B16744  17.737   1.708  14.438 -0.0165  0.1220  0.3345
 1427DOPE   C3B16745  17.952   1.833  14.063  0.3365  0.1171 -0.0457
 1427DOPE   C4B16746  18.078   2.012  13.662 -0.0478 -0.1903 -0.1138
 1428DOPS   CNO16747  20.312   5.179  16.073 -0.0014  0.0364 -0.2134
 1428DOPS   PO416748  20.609   5.369  16.000 -0.1869 -0.1802 -0.0242
 1428DOPS   GL116749  20.535   5.360  15.689 -0.5663 -0.0387 -0.0352
 1428DOPS   GL216750  20.222   5.454  15.574 -0.3621  0.0217 -0.0687
 1428DOPS   C1A16751  20.633   5.262  15.241  0.1158  0.1611  0.1220
 1428DOPS   D2A16752  20.670   5.324  14.829  0.2684  0.3065  0.1433
 1428DOPS   C3A16753  20.935   5.422  14.440  0.1174 -0.0192 -0.1332
 1428DOPS   C4A16754  21.316   5.417  14.213  0.1276  0.3932 -0.1978
 1428DOPS   C1B16755  20.131   5.224  15.190  0.0374 -0.3318 -0.1472
 1428DOPS   D2B16756  20.387   4.912  14.998  0.1556 -0.0628  0.2982
 1428DOPS   C3B16757  20.331   4.502  14.789 -0.0742 -0.1428 -0.2513
 1428DOPS   C4B16758  20.482   4.140  14.506 -0.0597 -0.0564 -0.1174
 1429DOPE   NH316759  24.088   2.823  12.654  0.1568 -0.2643 -0.1715
 1429DOPE   PO416760  23.815   2.692  12.744  0.0077  0.0115  0.0117
 1429DOPE   GL116761  23.590   2.441  12.931  0.0297 -0.3255 -0.3657
 1429DOPE   GL216762  23.744   2.400  13.156  0.1361  0.1012 -0.1711
 1429DOPE   C1A16763  23.304   2.025  12.986 -0.1034 -0.3926  0.2407
 1429DOPE   D2A16764  23.070   1.669  13.147 -0.2434  0.1631 -0.4347
 1429DOPE   C3A16765  23.026   1.642  13.602  0.0114  0.0141  0.0462
 1429DOPE   C4A16766  22.926   1.837  14.005  0.0711 -0.0950  0.0972
 1429DOPE   C1B16767  23.982   2.476  13.573  0.2595 -0.0231  0.0315
 1429DOPE   D2B16768  24.157   2.678  13.945  0.2048 -0.0369 -0.2336
 1429DOPE   C3B16769  23.854   2.894  14.206 -0.1267  0.0637 -0.1744
 1429DOPE   C4B16770  23.451   2.899  14.446  0.0010  0.2378 -0.1590
 1430DOPS   CNO16771  12.463   3.466  11.506 -0.0029 -0.2528  0.0206
 1430DOPS   PO416772  12.434   3.299  11.821  0.1190  0.0311 -0.0582
 1430DOPS   GL116773  12.692   3.058  12.016 -0.0120 -0.2190  0.1629
 1430DOPS   GL216774  12.683   3.198  12.239 -0.1406 -0.2207 -0.2529
 1430DOPS   C1A16775  13.000   2.784  11.936  0.3792  0.0477  0.1688
 1430DOPS   D2A16776  13.331   2.487  11.856 -0.1150  0.1474  0.1289
 1430DOPS   C3A16777  13.611   2.464  11.462 -0.2581 -0.1004  0.1027
 1430DOPS   C4A16778  14.062   2.573  11.521 -0.3237 -0.0391 -0.0618
 1430DOPS   C1B16779  12.289   3.169  12.572  0.1500 -0.1987  0.0132
 1430DOPS   D2B16780  11.835   3.209  12.555  0.0238 -0.0111 -0.0113
 1430DOPS   C3B16781  11.553   3.341  12.874 -0.1678 -0.3158  0.2001
 1430DOPS   C4B16782  11.655   3.710  13.127 -0.1784  0.0452 -0.0297
 1431DOPE   NH316783  21.089   1.219  13.404 -0.1395 -0.2061  0.1761
 1431DOPE   PO416784  21.067   1.344  13.108 -0.0508  0.3117 -0.0106
 1431DOPE   GL116785  21.113   1.656  13.276  0.1692  0.0419  0.1812
 1431DOPE   GL216786  21.125   1.889  13.089 -0.0333 -0.0444  0.3793
 1431DOPE   C1A16787  20.901   2.020  13.524  0.0464 -0.1435  0.1108
 1431DOPE   D2A16788  20.967   2.469  13.708  0.3226  0.0086  0.0489
 1431DOPE   C3A16789  21.055   2.918  13.624 -0.0866  0.1604 -0.0434
 1431DOPE   C4A16790  20.989   3.373  13.788 -0.1782  0.0760 -0.0739
 1431DOPE   C1B16791  21.316   2.302  13.173 -0.1231 -0.1169 -0.1791
 1431DOPE   D2B16792  21.510   2.496  13.583 -0.4128  0.2968 -0.1531
 1431DOPE   C3B16793  21.788   2.293  13.873  0.1555  0.1479 -0.0197
 1431DOPE   C4B16794  22.197   2.073  14.000  0.1166  0.0569 -0.2954
 1432DOPE   NH316795  21.715   1.135  12.874 -0.1208 -0.1846 -0.5078
 1432DOPE   PO416796  21.546   1.036  13.132  0.1588 -0.1207 -0.1584
 1432DOPE   GL116797  21.575   1.367  13.385  0.3227  0.2147  0.0364
 1432DOPE   GL216798  21.795   1.465  13.261 -0.3740 -0.0672  0.2090
 1432DOPE   C1A16799  21.355   1.754  13.646  0.0799 -0.0937  0.1663
 1432DOPE   D2A16800  21.259   2.091  13.856 -0.1873 -0.2273  0.1527
 1432DOPE   C3A16801  20.854   1.968  14.050 -0.3029 -0.4189 -0.1227
 1432DOPE   C4A16802  20.535   1.878  14.368  0.1576 -0.0175  0.0946
 1432DOPE   C1B16803  22.163   1.693  13.274 -0.0640  0.0389  0.0245
 1432DOPE   D2B16804  22.557   1.924  13.084  0.0202  0.1723  0.1310
 1432DOPE   C3B16805  22.827   1.926  12.717  0.1550  0.0959 -0.0765
 1432DOPE   C4B16806  23.178   2.111  12.491  0.0103 -0.1943 -0.1166
 1433DOPC   NC316807  20.864   1.144  12.744  0.2645 -0.2490 -0.0157
 1433DOPC   PO416808  21.230   1.095  12.683 -0.1153 -0.0624  0.5050
 1433DOPC   GL116809  21.387   1.526  12.849 -0.1668 -0.1019 -0.0140
 1433DOPC   GL216810  21.408   1.554  12.646  0.0379  0.2286  0.0839
 1433DOPC   C1A16811  21.654   1.855  12.961 -0.1444  0.1135 -0.0747
 1433DOPC   D2A16812  21.723   2.057  13.363 -0.1485  0.1799  0.0755
 1433DOPC   C3A16813  21.812   1.766  13.694  0.2362  0.0379  0.0755
 1433DOPC   C4A16814  21.670   1.348  13.852 -0.0711  0.3030 -0.2031
 1433DOPC   C1B16815  21.404   1.958  12.604 -0.0217 -0.0888 -0.0614
 1433DOPC   D2B16816  21.514   2.362  12.722  0.3332 -0.1717 -0.1511
 1433DOPC   C3B16817  21.798   2.498  12.997  0.0350  0.0008 -0.1120
 1433DOPC   C4B16818  21.994   2.544  13.408 -0.0180 -0.4064 -0.0460
 1434DOPC   NC316819  12.472   6.680  12.281 -0.1491  0.0786  0.0860
 1434DOPC   PO416820  12.241   6.617  11.963  0.1017 -0.3604 -0.1152
 1434DOPC   GL116821  12.503   6.956  11.898 -0.1935 -0.2297 -0.0626
 1434DOPC   GL216822  12.784   6.859  11.891  0.1941 -0.3087 -0.0551
 1434DOPC   C1A16823  12.713   7.365  11.749  0.1396  0.0258  0.1355
 1434DOPC   D2A16824  12.718   7.843  11.746  0.0423  0.1486 -0.1326
 1434DOPC   C3A16825  13.105   8.059  11.846 -0.2972 -0.0248  0.4649
 1434DOPC   C4A16826  13.297   8.407  12.041  0.4900 -0.1328 -0.1788
 1434DOPC   C1B16827  12.792   7.112  12.271 -0.0905  0.0092 -0.0034
 1434DOPC   D2B16828  12.995   7.296  12.630 -0.3152 -0.0546 -0.0307
 1434DOPC   C3B16829  13.192   7.258  13.068  0.0263  0.0921  0.2252
 1434DOPC   C4B16830  13.308   7.163  13.489 -0.0508 -0.1771 -0.1569
 1435DOPE   NH316831  10.679   7.396  12.622 -0.1020  0.2119  0.0260
 1435DOPE   PO416832  10.591   7.693  12.580  0.0649  0.1022 -0.1006
 1435DOPE   GL116833  10.747   7.872  12.934  0.0324 -0.1748  0.0312
 1435DOPE   GL216834  10.918   8.080  12.822  0.2107 -0.0595  0.0840
 1435DOPE   C1A16835  10.661   8.203  13.239  0.1604  0.0072  0.0062
 1435DOPE   D2A16836  10.331   8.525  13.339 -0.1242 -0.1620 -0.1135
 1435DOPE   C3A16837  10.372   9.014  13.189  0.2177  0.2072  0.0113
 1435DOPE   C4A16838  10.354   9.430  13.314 -0.0823 -0.1983 -0.2878
 1435DOPE   C1B16839  11.252   8.093  13.131  0.3815  0.1302  0.1108
 1435DOPE   D2B16840  11.620   8.103  13.352  0.3942 -0.2511 -0.0481
 1435DOPE   C3B16841  11.463   8.257  13.719 -0.0465  0.0868 -0.3917
 1435DOPE   C4B16842  11.401   8.350  14.171  0.0206  0.0572 -0.2592
 1436DOPE   NH316843  23.177  10.124  13.004  0.0630  0.4349 -0.2612
 1436DOPE   PO416844  23.481  10.243  13.136  0.1824 -0.0206  0.0406
 1436DOPE   GL116845  23.479   9.964  13.383 -0.3163 -0.2134  0.3156
 1436DOPE   GL216846  23.230   9.766  13.333  0.3605 -0.0460 -0.1045
 1436DOPE   C1A16847  23.607   9.694  13.759 -0.0844 -0.5293  0.4215
 1436DOPE   D2A16848  23.659   9.361  14.121 -0.3412  0.1321  0.1334
 1436DOPE   C3A16849  24.029   9.100  13.998  0.1707 -0.1826 -0.0754
 1436DOPE   C4A16850  24.499   8.995  13.873 -0.2499  0.0805  0.0601
 1436DOPE   C1B16851  22.838  10.031  13.372 -0.0474  0.0884 -0.3429
 1436DOPE   D2B16852  22.410   9.997  13.664  0.1648  0.3782 -0.0882
 1436DOPE   C3B16853  22.399  10.245  14.048 -0.0728  0.1284  0.0055
 1436DOPE   C4B16854  22.422  10.280  14.506  0.0771  0.3382  0.0954
 1437DOPE   NH316855  17.366   5.214  12.613 -0.1551  0.0667 -0.0073
 1437DOPE   PO416856  17.090   5.267  12.735  0.0385 -0.2507  0.0670
 1437DOPE   GL116857  16.885   5.322  13.033  0.1353 -0.0574  0.1480
 1437DOPE   GL216858  17.092   5.270  13.257 -0.1155 -0.0002 -0.1921
 1437DOPE   C1A16859  16.649   5.614  13.291  0.1109 -0.1784  0.0522
 1437DOPE   D2A16860  16.633   5.958  13.644  0.4775 -0.1756  0.0065
 1437DOPE   C3A16861  16.847   6.098  14.028  0.1174 -0.0292  0.0061
 1437DOPE   C4A16862  17.222   6.027  14.254 -0.2248  0.5198 -0.1015
 1437DOPE   C1B16863  17.323   5.379  13.692 -0.1606  0.1263  0.1717
 1437DOPE   D2B16864  17.677   5.392  13.959 -0.1033  0.0643  0.2545
 1437DOPE   C3B16865  17.851   5.689  14.274 -0.0727 -0.3043  0.1351
 1437DOPE   C4B16866  17.758   5.962  14.543  0.3852  0.0860  0.4454
 1438POSM   NC316867  11.914   9.015  11.627  0.0311  0.0009 -0.1492
 1438POSM   PO416868  12.072   9.345  11.726 -0.2813  0.2730  0.3021
 1438POSM   AM116869  11.972   9.233  12.047  0.1528  0.2207  0.2493
 1438POSM   AM216870  11.869   8.971  12.130  0.0257  0.2749  0.1246
 1438POSM   T1A16871  12.226   9.078  12.488 -0.0731 -0.0096  0.1005
 1438POSM   C2A16872  12.480   8.720  12.565 -0.0183  0.1191 -0.2254
 1438POSM   C3A16873  12.540   8.261  12.649 -0.0779 -0.0751  0.3020
 1438POSM   C1B16874  12.060   8.721  12.118 -0.0222 -0.0656 -0.0271
 1438POSM   D2B16875  12.429   8.434  12.089 -0.1248  0.1130 -0.1559
 1438POSM   C3B16876  12.817   8.525  11.856 -0.1367 -0.0433 -0.2563
 1438POSM   C4B16877  13.121   8.637  11.536 -0.1781  0.1839  0.1528
 1439DOPE   NH316878  16.138   7.872  12.023 -0.3010 -0.1363 -0.0145
 1439DOPE   PO416879  16.157   7.887  12.316  0.1617  0.0582 -0.1458
 1439DOPE   GL116880  16.088   7.694  12.662  0.1907  0.0449 -0.0268
 1439DOPE   GL216881  15.869   7.562  12.694 -0.0441  0.0083  0.0691
 1439DOPE   C1A16882  15.986   7.840  13.124 -0.0851 -0.0681  0.0170
 1439DOPE   D2A16883  15.772   7.691  13.523 -0.0101 -0.1030  0.1937
 1439DOPE   C3A16884  15.816   7.992  13.926 -0.2632 -0.1176 -0.0470
 1439DOPE   C4A16885  15.759   8.351  14.232  0.0733 -0.5391 -0.2563
 1439DOPE   C1B16886  15.485   7.661  12.951  0.4753  0.0306  0.1834
 1439DOPE   D2B16887  15.337   7.672  13.355 -0.2725 -0.0458  0.1702
 1439DOPE   C3B16888  14.956   7.954  13.397  0.0140  0.1155  0.2993
 1439DOPE   C4B16889  14.577   7.945  13.680 -0.0444  0.1040 -0.2801
 1440POSM   NC316890  17.945   7.140  12.119  0.2832  0.2453 -0.1401
 1440POSM   PO416891  18.114   7.392  12.304 -0.2388 -0.2072  0.3708
 1440POSM   AM116892  18.381   7.419  12.504 -0.0880 -0.2714  0.0023
 1440POSM   AM216893  18.536   7.170  12.564 -0.0618 -0.0311 -0.2644
 1440POSM   T1A16894  18.496   7.529  12.995  0.1986  0.3895 -0.3142
 1440POSM   C2A16895  18.435   7.554  13.423  0.1620 -0.1941 -0.5267
 1440POSM   C3A16896  18.654   7.774  13.769 -0.4713  0.2666  0.1084
 1440POSM   C1B16897  18.901   7.127  12.612 -0.0554  0.2090  0.1546
 1440POSM   D2B16898  19.244   7.025  12.905 -0.0214 -0.2280 -0.4414
 1440POSM   C3B16899  19.701   7.056  12.846  0.3681 -0.0248  0.2949
 1440POSM   C4B16900  19.898   7.202  12.417  0.0013  0.1223 -0.0357
 1441POSM   NC316901  12.371   0.560  10.910 -0.2625  0.1604  0.2756
 1441POSM   PO416902  12.566   0.280  11.012 -0.0595  0.1075 -0.1030
 1441POSM   AM116903  12.361   0.191  11.226 -0.0128 -0.2390  0.3179
 1441POSM   AM216904  12.382   0.021  11.417  0.0157  0.0528 -0.0381
 1441POSM   T1A16905  11.981   0.339  11.509  0.0812 -0.0880  0.1714
 1441POSM   C2A16906  11.546   0.347  11.776  0.0440  0.0902 -0.0729
 1441POSM   C3A16907  11.327   0.548  12.143  0.3259 -0.1027 -0.2141
 1441POSM   C1B16908  12.376   0.063  11.750 -0.1478 -0.2408 -0.2182
 1441POSM   D2B16909  12.196   0.188  12.106 -0.1903 -0.2226 -0.3641
 1441POSM   C3B16910  11.859  -0.024  12.315  0.0583 -0.0952  0.0646
 1441POSM   C4B16911  11.857  -0.107  12.746  0.1251  0.0009  0.1275
 1442DOPC   NC316912  22.042   7.287  12.786 -0.0142  0.1960  0.3364
 1442DOPC   PO416913  22.117   7.605  12.607  0.2027 -0.2085  0.1256
 1442DOPC   GL116914  22.037   8.010  12.607  0.4819  0.2499  0.2066
 1442DOPC   GL216915  22.187   8.043  12.355 -0.2646  0.1537  0.0136
 1442DOPC   C1A16916  21.672   8.297  12.470  0.3590 -0.3626 -0.1717
 1442DOPC   D2A16917  21.355   8.644  12.456  0.0695  0.0408  0.0074
 1442DOPC   C3A16918  21.253   8.972  12.751 -0.0167  0.0937  0.1326
 1442DOPC   C4A16919  21.143   8.996  13.218 -0.0230  0.1802  0.0973
 1442DOPC   C1B16920  22.328   8.445  12.442 -0.0097  0.1023  0.0126
 1442DOPC   D2B16921  22.402   8.878  12.254  0.0782 -0.0295 -0.1254
 1442DOPC   C3B16922  22.225   9.283  12.415  0.2094  0.0298  0.1046
 1442DOPC   C4B16923  21.896   9.598  12.285 -0.0492 -0.0383 -0.4283
 1443DOPC   NC316924  19.063   8.331  12.091 -0.0293 -0.3781  0.2768
 1443DOPC   PO416925  18.808   8.032  12.126  0.1527 -0.1748  0.3412
 1443DOPC   GL116926  18.899   8.136  12.556 -0.1076  0.1638  0.0599
 1443DOPC   GL216927  18.729   8.346  12.705 -0.4454 -0.1056  0.4056
 1443DOPC   C1A16928  19.060   7.970  12.954  0.1938  0.1607 -0.0899
 1443DOPC   D2A16929  19.482   8.095  13.055  0.0667  0.0040 -0.0861
 1443DOPC   C3A16930  19.906   7.904  12.924  0.0376 -0.0927 -0.3352
 1443DOPC   C4A16931  20.115   7.695  12.607 -0.0862  0.1538  0.2093
 1443DOPC   C1B16932  19.183   8.441  12.667  0.1661  0.0169 -0.0422
 1443DOPC   D2B16933  19.539   8.560  12.337  0.0475  0.3625 -0.3071
 1443DOPC   C3B16934  19.603   8.181  12.041 -0.1170 -0.1298  0.5465
 1443DOPC   C4B16935  19.775   7.788  12.135  0.1761 -0.0564 -0.2553
 1444DOPC   NC316936  14.840   5.189  12.798 -0.1219  0.1239 -0.1629
 1444DOPC   PO416937  14.744   4.878  12.524  0.0105 -0.3177 -0.0800
 1444DOPC   GL116938  14.573   4.573  12.697 -0.0750 -0.0848  0.0209
 1444DOPC   GL216939  14.736   4.527  12.909 -0.0800  0.0007  0.1576
 1444DOPC   C1A16940  14.284   4.500  13.027 -0.4097  0.1801 -0.1846
 1444DOPC   D2A16941  14.295   4.222  13.407  0.2082  0.1191 -0.0496
 1444DOPC   C3A16942  14.488   3.836  13.507  0.0327 -0.5846 -0.0208
 1444DOPC   C4A16943  14.766   3.597  13.835 -0.0200  0.1186 -0.1281
 1444DOPC   C1B16944  14.746   4.326  13.252  0.1216 -0.1424  0.0972
 1444DOPC   D2B16945  14.980   4.154  13.589  0.2643  0.2098  0.1981
 1444DOPC   C3B16946  15.436   4.166  13.682  0.1421  0.0574  0.1314
 1444DOPC   C4B16947  15.759   4.488  13.624 -0.0174  0.3189 -0.0580
 1445DOPE   NH316948  19.907   1.414  12.339 -0.0655  0.4407 -0.1861
 1445DOPE   PO416949  19.933   1.166  12.568  0.4476 -0.0530 -0.1134
 1445DOPE   GL116950  19.589   0.964  12.430 -0.1748  0.2922 -0.0369
 1445DOPE   GL216951  19.395   1.120  12.265 -0.2804 -0.0519 -0.1590
 1445DOPE   C1A16952  19.307   0.688  12.668 -0.0993  0.2046 -0.2024
 1445DOPE   D2A16953  18.857   0.524  12.725  0.1443 -0.3344  0.0449
 1445DOPE   C3A16954  18.804   0.292  13.124  0.1995  0.2136 -0.3294
 1445DOPE   C4A16955  18.833   0.285  13.581 -0.2351  0.2915  0.0873
 1445DOPE   C1B16956  19.090   1.118  12.542 -0.0369  0.2580  0.0842
 1445DOPE   D2B16957  18.980   1.484  12.773  0.1740 -0.2456  0.2069
 1445DOPE   C3B16958  18.606   1.368  12.987  0.1903 -0.5311 -0.2551
 1445DOPE   C4B16959  18.278   1.178  13.234  0.0634 -0.0204 -0.0195
 1446POSM   NC316960  18.068  33.954  12.428 -0.2745  0.0978 -0.0173
 1446POSM   PO416961  18.226  34.209  12.664 -0.2128 -0.3457 -0.2027
 1446POSM   AM116962  18.156  34.341  12.952 -0.2440  0.0185  0.2924
 1446POSM   AM216963  18.204  34.508  13.148 -0.3440  0.1573 -0.1981
 1446POSM   T1A16964  17.972  34.183  13.412 -0.1335 -0.0604  0.2605
 1446POSM   C2A16965  17.658  34.126  13.723 -0.2978 -0.4960 -0.0153
 1446POSM   C3A16966  17.300  34.053  14.046  0.1472  0.1453 -0.1268
 1446POSM   C1B16967  18.287  34.728  13.414  0.1348 -0.1388 -0.1639
 1446POSM   D2B16968  18.383  35.111  13.603  0.0564 -0.4087 -0.2205
 1446POSM   C3B16969  18.652  35.271  13.941  0.0761 -0.2672  0.0244
 1446POSM   C4B16970  18.941  35.191  14.362  0.1188  0.1993 -0.1030
 1447DOPE   NH316971  12.120   9.909  11.890 -0.0930 -0.0932  0.1280
 1447DOPE   PO416972  12.120   9.818  12.210  0.2455  0.1240  0.0357
 1447DOPE   GL116973  12.289   9.762  12.586  0.0263 -0.0009 -0.2960
 1447DOPE   GL216974  12.131   9.543  12.651 -0.1271  0.2255 -0.2634
 1447DOPE   C1A16975  12.493   9.800  13.066  0.3207 -0.0645  0.3508
 1447DOPE   D2A16976  12.608   9.644  13.431  0.1555 -0.1643 -0.1710
 1447DOPE   C3A16977  12.983   9.414  13.244  0.0836 -0.0820 -0.1951
 1447DOPE   C4A16978  13.326   9.069  13.291  0.1511 -0.0900  0.0485
 1447DOPE   C1B16979  12.016   9.226  12.971 -0.3073 -0.2449 -0.2974
 1447DOPE   D2B16980  12.020   8.951  13.400  0.0508  0.2189  0.0241
 1447DOPE   C3B16981  11.875   9.099  13.849  0.0061  0.2230 -0.0155
 1447DOPE   C4B16982  11.458   9.317  13.885  0.0717  0.0148 -0.3372
 1448DOPC   NC316983  20.405   0.240  13.445  0.2967 -0.0577 -0.3706
 1448DOPC   PO416984  20.581   0.573  13.578  0.1373  0.0709  0.1430
 1448DOPC   GL116985  20.778   0.337  13.778  0.0445  0.0176  0.1385
 1448DOPC   GL216986  20.900   0.529  13.924 -0.1924  0.0101 -0.0228
 1448DOPC   C1A16987  20.923   0.078  14.146  0.0271  0.2570 -0.2503
 1448DOPC   D2A16988  20.985  -0.362  14.325  0.1066  0.4600  0.0837
 1448DOPC   C3A16989  20.710  -0.706  14.228 -0.2897 -0.0746 -0.1039
 1448DOPC   C4A16990  20.803  -1.152  14.181 -0.1309 -0.4093 -0.0668
 1448DOPC   C1B16991  21.029   0.870  14.234 -0.2939  0.0014  0.1543
 1448DOPC   D2B16992  21.107   1.286  14.475  0.4273 -0.0469 -0.1436
 1448DOPC   C3B16993  21.105   1.347  14.915  0.3398  0.0024 -0.1538
 1448DOPC   C4B16994  21.288   1.198  15.337 -0.0983  0.4689  0.1338
 1449POSM   NC316995  18.448  34.403  12.289 -0.1673  0.1565 -0.3767
 1449POSM   PO416996  18.794  34.581  12.306 -0.1404 -0.1346 -0.1570
 1449POSM   AM116997  19.007  34.534  12.578 -0.1185  0.3627 -0.3790
 1449POSM   AM216998  19.058  34.766  12.777 -0.0361  0.2574 -0.1734
 1449POSM   T1A16999  19.197  34.391  13.014 -0.3051 -0.0461 -0.0474
 1449POSM   C2A17000  19.326  34.631  13.393 -0.2216  0.2233 -0.2109
 1449POSM   C3A17001  19.514  34.705  13.801 -0.2125 -0.2432 -0.2257
 1449POSM   C1B17002  19.241  34.942  12.993  0.2644  0.4448  0.0189
 1449POSM   D2B17003  19.534  35.068  13.344  0.3005  0.1287 -0.1814
 1449POSM   C3B17004  19.291  35.162  13.738  0.3054  0.1747 -0.1955
 1449POSM   C4B17005  19.437  35.184  14.210  0.0517  0.3669  0.0826
 1450DOPE   NH317006  19.555   5.150  12.721 -0.4232 -0.0330  0.1784
 1450DOPE   PO417007  19.405   5.123  12.411 -0.2266 -0.0477 -0.0718
 1450DOPE   GL117008  19.498   5.526  12.465  0.0546 -0.1383  0.1876
 1450DOPE   GL217009  19.845   5.509  12.374  0.0279  0.1340 -0.1120
 1450DOPE   C1A17010  19.566   5.963  12.578 -0.1311 -0.1706  0.3818
 1450DOPE   D2A17011  19.421   6.380  12.583 -0.0725  0.2697  0.0813
 1450DOPE   C3A17012  19.428   6.586  13.033  0.2127 -0.0574 -0.2358
 1450DOPE   C4A17013  19.740   6.794  13.335  0.1563  0.0849  0.0872
 1450DOPE   C1B17014  19.830   5.598  12.823 -0.1698 -0.1242 -0.1881
 1450DOPE   D2B17015  19.775   5.861  13.250 -0.0762 -0.1477  0.2288
 1450DOPE   C3B17016  19.777   5.596  13.637  0.0793 -0.0403 -0.0460
 1450DOPE   C4B17017  19.606   5.607  14.061  0.1260 -0.0303 -0.1469
 1451DOPE   NH317018  11.497   3.442  11.381 -0.3105  0.2933  0.0131
 1451DOPE   PO417019  11.484   3.596  11.670  0.0806  0.1935  0.1750
 1451DOPE   GL117020  11.149   3.488  11.884  0.0804  0.6248  0.1989
 1451DOPE   GL217021  11.228   3.704  12.060 -0.0033  0.0481  0.1040
 1451DOPE   C1A17022  10.896   3.299  12.194  0.0799 -0.1491  0.1408
 1451DOPE   D2A17023  10.617   3.553  12.476 -0.2182  0.2761 -0.2981
 1451DOPE   C3A17024  10.160   3.709  12.596  0.5753 -0.0227 -0.1455
 1451DOPE   C4A17025   9.688   3.676  12.625  0.1149  0.0431  0.1998
 1451DOPE   C1B17026  11.057   3.825  12.439  0.1596  0.1398  0.0260
 1451DOPE   D2B17027  11.009   4.234  12.658  0.2337  0.0201  0.0494
 1451DOPE   C3B17028  10.647   4.577  12.698 -0.4476 -0.0267  0.1411
 1451DOPE   C4B17029  10.252   4.756  12.672  0.0629 -0.1670 -0.3216
 1452DOPC   NC317030  16.386   7.420  12.445  0.2879  0.1663  0.3869
 1452DOPC   PO417031  16.225   7.151  12.706 -0.0158  0.0151 -0.1667
 1452DOPC   GL117032  15.888   7.095  12.950  0.2044 -0.1545 -0.3718
 1452DOPC   GL217033  15.918   7.332  13.176  0.1594  0.3681 -0.1216
 1452DOPC   C1A17034  15.450   7.188  13.098  0.0063 -0.1349  0.0376
 1452DOPC   D2A17035  14.986   7.284  13.220 -0.2672 -0.3261  0.0148
 1452DOPC   C3A17036  14.562   7.102  13.063 -0.0099  0.1965  0.0623
 1452DOPC   C4A17037  14.155   7.195  12.961 -0.0822 -0.2290  0.2337
 1452DOPC   C1B17038  15.753   6.987  13.444 -0.0410  0.0390  0.0417
 1452DOPC   D2B17039  15.738   6.991  13.877 -0.2106  0.1471 -0.1434
 1452DOPC   C3B17040  15.527   6.585  13.943  0.0057  0.2083 -0.1629
 1452DOPC   C4B17041  15.222   6.297  13.799  0.1304 -0.0986 -0.1272
 1453DOPE   NH317042  12.067   7.111  11.960 -0.2562  0.1862  0.1032
 1453DOPE   PO417043  11.785   7.246  11.981 -0.2996 -0.0946 -0.0849
 1453DOPE   GL117044  11.940   7.529  12.061 -0.0833 -0.2095 -0.0301
 1453DOPE   GL217045  11.823   7.755  11.846  0.0852  0.2007  0.1929
 1453DOPE   C1A17046  12.406   7.515  12.112  0.1993  0.0597 -0.0454
 1453DOPE   D2A17047  12.848   7.625  12.215 -0.0421 -0.1832  0.0020
 1453DOPE   C3A17048  12.883   7.884  12.569 -0.3616  0.1339  0.1209
 1453DOPE   C4A17049  13.212   8.169  12.778  0.1247 -0.0228 -0.0528
 1453DOPE   C1B17050  12.135   8.028  11.913  0.0412 -0.0265  0.0496
 1453DOPE   D2B17051  12.401   7.954  12.306  0.1503 -0.1102 -0.1909
 1453DOPE   C3B17052  12.287   7.672  12.664 -0.1141 -0.2056  0.1487
 1453DOPE   C4B17053  12.297   7.685  13.115 -0.0803 -0.3473  0.1130
 1454POSM   NC317054  18.861   5.259  12.667  0.2911  0.1758  0.1510
 1454POSM   PO417055  18.822   4.925  12.410 -0.1522 -0.0941  0.3145
 1454POSM   AM117056  19.014   4.867  12.687  0.0423 -0.2018 -0.2284
 1454POSM   AM217057  19.030   4.649  12.855 -0.2454 -0.0272 -0.0250
 1454POSM   T1A17058  19.218   5.097  13.091  0.2892  0.1274  0.0245
 1454POSM   C2A17059  19.578   5.180  13.379 -0.2427  0.1270  0.0044
 1454POSM   C3A17060  19.877   5.091  13.710  0.0229 -0.0711  0.1041
 1454POSM   C1B17061  19.012   4.659  13.209 -0.3233  0.0786 -0.1157
 1454POSM   D2B17062  19.253   4.726  13.591  0.0462  0.1825  0.1859
 1454POSM   C3B17063  19.367   5.082  13.867 -0.3756 -0.1508 -0.2387
 1454POSM   C4B17064  19.171   5.315  14.195 -0.3334  0.0030  0.2589
 1455DOPC   NC317065  20.654   7.090  11.827 -0.0773  0.1827 -0.2575
 1455DOPC   PO417066  20.816   7.029  12.184  0.0113 -0.1694  0.0791
 1455DOPC   GL117067  20.733   7.236  12.588 -0.1842  0.2059 -0.2254
 1455DOPC   GL217068  20.552   7.451  12.537  0.0847 -0.0716  0.0666
 1455DOPC   C1A17069  20.554   7.148  13.031 -0.3506  0.0859 -0.0305
 1455DOPC   D2A17070  20.766   7.266  13.440  0.3123 -0.0119 -0.0439
 1455DOPC   C3A17071  21.184   7.338  13.601 -0.0012 -0.0661  0.0387
 1455DOPC   C4A17072  21.454   7.173  13.950  0.0623  0.0937 -0.0108
 1455DOPC   C1B17073  20.471   7.633  12.974 -0.0385  0.2996  0.0285
 1455DOPC   D2B17074  20.382   7.566  13.404 -0.1624  0.1717 -0.1011
 1455DOPC   C3B17075  20.290   7.854  13.743 -0.0008 -0.0363  0.0080
 1455DOPC   C4B17076  20.383   7.952  14.153  0.2158 -0.0379 -0.0291
 1456POSM   NC317077  18.523   9.520  12.467  0.1464  0.0559 -0.1633
 1456POSM   PO417078  18.728   9.765  12.269 -0.1003 -0.1173  0.0469
 1456POSM   AM117079  18.807   9.840  12.590  0.2709 -0.1517 -0.0984
 1456POSM   AM217080  19.026   9.936  12.725  0.1217  0.4308  0.0811
 1456POSM   T1A17081  18.876   9.590  13.009 -0.3694 -0.2931 -0.0610
 1456POSM   C2A17082  18.666   9.476  13.362 -0.3337  0.0788 -0.1636
 1456POSM   C3A17083  18.359   9.354  13.725 -0.1053  0.1893 -0.1672
 1456POSM   C1B17084  19.170  10.052  12.991 -0.1579  0.0924 -0.1808
 1456POSM   D2B17085  19.168  10.305  13.392  0.0754  0.1445  0.1605
 1456POSM   C3B17086  19.096  10.247  13.859  0.1437 -0.2921  0.0137
 1456POSM   C4B17087  19.393  10.131  14.214  0.3305  0.0985  0.1321
 1457DOPE   NH317088  17.669  34.076  12.769 -0.0138  0.0027  0.0262
 1457DOPE   PO417089  17.762  34.393  12.786  0.2790  0.1411  0.0947
 1457DOPE   GL117090  17.581  34.454  13.150 -0.0258 -0.0933  0.0567
 1457DOPE   GL217091  17.433  34.693  13.132 -0.2856  0.0716 -0.2460
 1457DOPE   C1A17092  17.794  34.606  13.520  0.1733 -0.2344 -0.0172
 1457DOPE   D2A17093  17.858  35.038  13.589  0.1481 -0.0699  0.1991
 1457DOPE   C3A17094  18.077  34.912  13.999  0.0239  0.0690 -0.1010
 1457DOPE   C4A17095  18.334  35.027  14.404  0.1262  0.0584 -0.3734
 1457DOPE   C1B17096  17.330  34.835  13.596 -0.0258  0.1004 -0.1236
 1457DOPE   D2B17097  17.543  34.857  13.998  0.2623  0.1742  0.2178
 1457DOPE   C3B17098  17.709  34.488  14.038  0.2212 -0.0759 -0.0511
 1457DOPE   C4B17099  17.725  34.200  14.449  0.0588  0.0079  0.0453
 1458DOPC   NC317100  19.292   4.615  12.305 -0.0100 -0.6379 -0.3256
 1458DOPC   PO417101  19.558   4.327  12.299 -0.1565  0.2957  0.0449
 1458DOPC   GL117102  19.556   4.199  12.675 -0.2763  0.4323  0.1950
 1458DOPC   GL217103  19.373   4.252  12.925  0.2182 -0.0297  0.3237
 1458DOPC   C1A17104  19.931   4.044  12.937  0.0097 -0.3357 -0.1771
 1458DOPC   D2A17105  20.403   3.863  12.942 -0.1389 -0.0054  0.1802
 1458DOPC   C3A17106  20.511   4.111  13.309  0.0086  0.1193 -0.0792
 1458DOPC   C4A17107  20.668   4.218  13.789  0.2777 -0.1786 -0.0490
 1458DOPC   C1B17108  19.601   4.152  13.308  0.0536  0.1380  0.0177
 1458DOPC   D2B17109  19.977   3.934  13.417 -0.0050 -0.0671  0.1351
 1458DOPC   C3B17110  20.138   3.597  13.773 -0.0054 -0.2017 -0.0480
 1458DOPC   C4B17111  20.047   3.286  14.138 -0.0116 -0.1185  0.3289
 1459DOPE   NH317112  23.109  34.499  12.821 -0.4336 -0.1014  0.1264
 1459DOPE   PO417113  22.918  34.759  12.815  0.1586  0.0472  0.0399
 1459DOPE   GL117114  22.931  35.192  12.892 -0.5233 -0.5465  0.0876
 1459DOPE   GL217115  22.943  35.348  13.167 -0.2138  0.0121  0.1394
 1459DOPE   C1A17116  23.321  35.480  12.831  0.1714  0.1309 -0.1117
 1459DOPE   D2A17117  23.527  35.859  12.619 -0.2975  0.0272 -0.0912
 1459DOPE   C3A17118  23.804  36.194  12.818 -0.0620 -0.4358  0.1439
 1459DOPE   C4A17119  23.804  36.570  13.086 -0.2669  0.2622  0.0640
 1459DOPE   C1B17120  23.371  35.425  13.394 -0.2414 -0.3823 -0.0806
 1459DOPE   D2B17121  23.632  35.681  13.682  0.0286 -0.0005  0.1328
 1459DOPE   C3B17122  23.990  35.821  13.396  0.0564 -0.1576  0.2074
 1459DOPE   C4B17123  24.292  36.144  13.171  0.1418  0.2759 -0.2137
 1460POSM   NC317124  12.230   4.534  11.979 -0.2189  0.4491  0.2135
 1460POSM   PO417125  12.256   4.133  11.868  0.5408 -0.1511 -0.2215
 1460POSM   AM117126  12.147   3.992  12.171 -0.0483  0.2739 -0.3396
 1460POSM   AM217127  12.195   4.169  12.382  0.1009 -0.2394  0.1430
 1460POSM   T1A17128  12.115   3.771  12.585  0.2031  0.1409 -0.2164
 1460POSM   C2A17129  12.066   3.502  12.931  0.0672 -0.2724 -0.0196
 1460POSM   C3A17130  12.406   3.251  13.070  0.2408  0.0491 -0.0369
 1460POSM   C1B17131  12.064   4.287  12.637  0.6669 -0.0483 -0.0613
 1460POSM   D2B17132  12.151   4.553  13.037  0.0050  0.0734  0.0205
 1460POSM   C3B17133  12.128   4.459  13.537  0.2993  0.2236 -0.2321
 1460POSM   C4B17134  11.991   4.385  13.986 -0.1923  0.2220 -0.2002
 1461DOPC   NC317135  17.290   6.860  12.555  0.1744  0.0075 -0.3027
 1461DOPC   PO417136  17.690   6.772  12.387 -0.0755 -0.2346 -0.1707
 1461DOPC   GL117137  17.744   6.776  12.861 -0.0875  0.0034  0.0289
 1461DOPC   GL217138  17.939   6.550  12.898  0.0322  0.1781  0.0232
 1461DOPC   C1A17139  17.683   7.095  13.183  0.0903  0.0767  0.1592
 1461DOPC   D2A17140  17.487   7.473  13.252 -0.0636 -0.0619 -0.1144
 1461DOPC   C3A17141  17.500   7.637  13.708 -0.0241 -0.1040 -0.1206
 1461DOPC   C4A17142  17.128   7.954  13.851 -0.0519  0.1829 -0.0366
 1461DOPC   C1B17143  18.341   6.463  13.073 -0.2209  0.2234  0.0472
 1461DOPC   D2B17144  18.680   6.599  13.295 -0.2142  0.2287 -0.1571
 1461DOPC   C3B17145  18.708   6.448  13.731  0.0355  0.2873 -0.1986
 1461DOPC   C4B17146  18.774   6.473  14.212  0.2594 -0.0591 -0.1283
 1462POSM   NC317147  20.255   1.791  12.747 -0.1126 -0.1456  0.0034
 1462POSM   PO417148  19.933   1.578  12.815  0.1211 -0.1940 -0.0425
 1462POSM   AM117149  19.739   1.572  13.083  0.0873 -0.1100  0.0384
 1462POSM   AM217150  19.460   1.616  13.099 -0.3313  0.1946 -0.0660
 1462POSM   T1A17151  19.527   1.351  13.499  0.0564  0.1605 -0.0820
 1462POSM   C2A17152  19.294   0.974  13.553 -0.0789  0.0379 -0.0893
 1462POSM   C3A17153  19.084   0.681  13.312 -0.1053  0.0387 -0.1629
 1462POSM   C1B17154  19.140   1.655  13.223  0.2841  0.1101 -0.3208
 1462POSM   D2B17155  18.656   1.700  13.369 -0.0237  0.3855  0.1814
 1462POSM   C3B17156  18.266   1.698  13.112 -0.0050  0.1660  0.0821
 1462POSM   C4B17157  17.882   1.885  12.859 -0.0257 -0.1785 -0.1031
 1463POSM   NC317158  11.500   6.792  12.509 -0.0272  0.4705  0.3041
 1463POSM   PO417159  11.753   6.764  12.191  0.0678 -0.0086 -0.2579
 1463POSM   AM117160  12.045   6.844  12.327  0.1132  0.0794 -0.2834
 1463POSM   AM217161  12.076   7.085  12.433 -0.0605  0.0004 -0.3125
 1463POSM   T1A17162  12.243   6.647  12.706  0.0128 -0.2008  0.1684
 1463POSM   C2A17163  12.325   6.292  12.982 -0.0648 -0.2214  0.3267
 1463POSM   C3A17164  12.040   6.284  13.356 -0.2261 -0.1158  0.0211
 1463POSM   C1B17165  12.336   7.146  12.634 -0.0215  0.3218 -0.0186
 1463POSM   D2B17166  12.665   7.272  12.955  0.0973 -0.0428  0.1425
 1463POSM   C3B17167  12.827   7.598  13.159  0.2670 -0.1149  0.3478
 1463POSM   C4B17168  12.986   7.960  13.262 -0.2715 -0.0777 -0.1338
 1464DOPC   NC317169  16.659   2.010  11.804 -0.2090  0.1668  0.0057
 1464DOPC   PO417170  16.721   1.942  12.246  0.1844 -0.0999 -0.4072
 1464DOPC   GL117171  16.538   1.802  12.509  0.0527 -0.1182  0.1907
 1464DOPC   GL217172  16.553   2.053  12.730  0.0288  0.1244  0.0181
 1464DOPC   C1A17173  16.088   1.603  12.592 -0.2096  0.2787  0.1659
 1464DOPC   D2A17174  15.667   1.519  12.490 -0.1007 -0.0403  0.0023
 1464DOPC   C3A17175  15.427   1.537  12.857  0.0742 -0.0419 -0.3133
 1464DOPC   C4A17176  15.653   1.231  13.155 -0.0218 -0.1050 -0.2586
 1464DOPC   C1B17177  16.478   1.593  12.930 -0.3722 -0.2594 -0.0986
 1464DOPC   D2B17178  16.401   1.260  13.199 -0.0545 -0.1926 -0.0726
 1464DOPC   C3B17179  16.163   1.318  13.660 -0.1503  0.0866  0.0547
 1464DOPC   C4B17180  16.352   1.367  14.053  0.0732  0.0348 -0.0829
 1465DOPE   NH317181  14.885   0.969  11.543  0.1060  0.0679  0.0101
 1465DOPE   PO417182  15.090   1.142  11.675 -0.3722  0.1209  0.0628
 1465DOPE   GL117183  14.832   1.138  11.939  0.1602  0.0877 -0.0041
 1465DOPE   GL217184  14.662   1.416  11.978  0.2505  0.2640  0.0971
 1465DOPE   C1A17185  14.706   1.086  12.323 -0.0586 -0.0929 -0.0804
 1465DOPE   D2A17186  14.371   0.869  12.567 -0.0598  0.1499  0.0589
 1465DOPE   C3A17187  14.414   1.022  13.041  0.0350  0.1199  0.1151
 1465DOPE   C4A17188  14.324   1.366  13.258 -0.0456 -0.0698  0.4448
 1465DOPE   C1B17189  14.547   1.715  12.283 -0.0733  0.0649  0.0897
 1465DOPE   D2B17190  14.275   1.961  12.596 -0.0607  0.3380 -0.2695
 1465DOPE   C3B17191  14.503   2.035  13.013 -0.1092  0.0976  0.0566
 1465DOPE   C4B17192  14.932   2.233  13.070 -0.0091 -0.0693  0.1948
 1466POSM   NC317193  14.523  10.923  11.391  0.1865  0.1631 -0.3972
 1466POSM   PO417194  14.547  11.299  11.260  0.2138  0.0321 -0.2497
 1466POSM   AM117195  14.504  11.371  11.595  0.0485  0.1920  0.0361
 1466POSM   AM217196  14.354  11.622  11.670 -0.0675  0.0327 -0.1127
 1466POSM   T1A17197  14.823  11.488  11.985 -0.2601  0.0039 -0.3102
 1466POSM   C2A17198  15.166  11.779  12.244 -0.0123 -0.1504  0.0082
 1466POSM   C3A17199  15.531  11.477  12.433  0.1842  0.1985  0.2117
 1466POSM   C1B17200  14.127  11.574  11.893  0.2482 -0.2099  0.0075
 1466POSM   D2B17201  13.748  11.484  12.134 -0.0317  0.0438 -0.1002
 1466POSM   C3B17202  13.614  11.844  12.485  0.0621  0.1711  0.1087
 1466POSM   C4B17203  13.231  11.940  12.795  0.1579  0.1160 -0.2124
 1467POSM   NC317204  15.595   2.511  11.630 -0.1885  0.1972 -0.0674
 1467POSM   PO417205  15.706   2.195  11.877  0.0029  0.0597  0.0078
 1467POSM   AM117206  15.627   2.268  12.179 -0.1408  0.1339 -0.2629
 1467POSM   AM217207  15.684   2.108  12.409 -0.4783 -0.0515 -0.0686
 1467POSM   T1A17208  15.334   2.442  12.562  0.1261  0.1330 -0.0740
 1467POSM   C2A17209  14.987   2.651  12.787 -0.2416  0.0470 -0.2836
 1467POSM   C3A17210  14.795   2.887  13.150  0.2587  0.0853  0.1973
 1467POSM   C1B17211  15.426   1.988  12.626 -0.1208 -0.3533  0.0306
 1467POSM   D2B17212  14.981   1.887  12.706 -0.0324 -0.0834 -0.0603
 1467POSM   C3B17213  14.738   2.199  12.438 -0.1698  0.3185  0.1797
 1467POSM   C4B17214  14.710   2.532  12.128 -0.1902  0.0279  0.0332
 1468DOPS   CNO17215  17.630   5.794  12.299  0.0044 -0.0667  0.0614
 1468DOPS   PO417216  17.538   5.714  12.638 -0.0338  0.3422 -0.0613
 1468DOPS   GL117217  17.470   5.602  12.954  0.3606 -0.4142 -0.1858
 1468DOPS   GL217218  17.182   5.696  12.982  0.1660  0.2832 -0.1569
 1468DOPS   C1A17219  17.621   5.750  13.383 -0.2813  0.2065 -0.2858
 1468DOPS   D2A17220  17.661   5.847  13.858 -0.1134  0.0598 -0.1572
 1468DOPS   C3A17221  18.126   5.911  13.938 -0.2355  0.1392  0.1068
 1468DOPS   C4A17222  18.595   6.082  13.971  0.1123  0.1584  0.2241
 1468DOPS   C1B17223  17.090   5.749  13.441 -0.0084  0.1806 -0.2616
 1468DOPS   D2B17224  16.887   5.542  13.804 -0.0687  0.2431  0.1090
 1468DOPS   C3B17225  16.447   5.499  13.823  0.2030 -0.3499  0.0543
 1468DOPS   C4B17226  16.006   5.360  13.662 -0.3753  0.2768  0.0661
 1469DOPC   NC317227  14.397   8.709  11.802 -0.2630  0.0548 -0.2379
 1469DOPC   PO417228  14.674   8.512  11.622  0.1910 -0.0056 -0.2423
 1469DOPC   GL117229  14.639   8.436  12.062  0.2379  0.1769  0.5684
 1469DOPC   GL217230  14.669   8.152  11.995 -0.1270  0.1722 -0.0954
 1469DOPC   C1A17231  14.220   8.506  12.262 -0.1148  0.3571  0.1307
 1469DOPC   D2A17232  13.736   8.392  12.338 -0.0731  0.0487  0.2117
 1469DOPC   C3A17233  13.411   8.650  12.497  0.3506  0.0508 -0.1049
 1469DOPC   C4A17234  13.037   8.630  12.672 -0.2115 -0.1859 -0.1073
 1469DOPC   C1B17235  14.216   8.032  12.087  0.0473 -0.0386  0.0103
 1469DOPC   D2B17236  13.948   7.918  12.432  0.0888 -0.1307 -0.0369
 1469DOPC   C3B17237  13.729   7.995  12.793  0.1364 -0.0954  0.2591
 1469DOPC   C4B17238  13.593   7.805  13.189  0.3445  0.2009 -0.2642
 1470POSM   NC317239  10.606   6.034  12.135  0.4905  0.1051 -0.0380
 1470POSM   PO417240  10.996   6.143  12.026  0.1537  0.2141  0.0536
 1470POSM   AM117241  11.165   5.912  12.185 -0.0564 -0.4069 -0.1026
 1470POSM   AM217242  11.137   5.679  12.244  0.1811  0.0861  0.4803
 1470POSM   T1A17243  11.496   5.908  12.571 -0.1365  0.0244 -0.1859
 1470POSM   C2A17244  11.418   5.638  12.971  0.2394  0.3862 -0.0037
 1470POSM   C3A17245  11.218   5.527  13.382 -0.1291  0.0522  0.0960
 1470POSM   C1B17246  11.033   5.441  12.456 -0.1545 -0.1797 -0.2737
 1470POSM   D2B17247  10.855   5.177  12.789  0.0157  0.2003 -0.1910
 1470POSM   C3B17248  10.536   4.981  13.047 -0.1319 -0.0006 -0.2865
 1470POSM   C4B17249  10.131   4.847  13.255  0.1546  0.0624 -0.1994
 1471DOPE   NH317250  16.865   3.008  12.614 -0.3477 -0.1018 -0.0806
 1471DOPE   PO417251  16.709   3.271  12.481  0.0439  0.0820 -0.2640
 1471DOPE   GL117252  16.438   3.385  12.735  0.0210 -0.2846  0.0170
 1471DOPE   GL217253  16.208   3.237  12.638 -0.2942  0.3728 -0.2528
 1471DOPE   C1A17254  16.326   3.270  13.206  0.0905 -0.0347  0.1378
 1471DOPE   D2A17255  16.561   3.183  13.585 -0.1519 -0.0653  0.0740
 1471DOPE   C3A17256  16.784   3.507  13.863  0.1575  0.0541  0.0422
 1471DOPE   C4A17257  16.751   3.841  14.136 -0.0767 -0.2361  0.1704
 1471DOPE   C1B17258  15.900   3.270  12.873 -0.0420 -0.1963 -0.1557
 1471DOPE   D2B17259  15.546   3.345  13.091  0.0289  0.1036 -0.1120
 1471DOPE   C3B17260  15.740   3.304  13.488  0.0572 -0.1201 -0.0009
 1471DOPE   C4B17261  15.828   3.277  13.969  0.0693 -0.2570 -0.1437
 1472POSM   NC317262  11.329   7.335  11.850 -0.2114  0.0464 -0.0316
 1472POSM   PO417263  11.360   7.093  12.169  0.0949 -0.3295 -0.0887
 1472POSM   AM117264  11.540   7.326  12.361 -0.1264  0.1756 -0.0162
 1472POSM   AM217265  11.512   7.618  12.314  0.0488  0.1233  0.1136
 1472POSM   T1A17266  11.785   7.533  12.754  0.1657 -0.3416 -0.3594
 1472POSM   C2A17267  11.878   7.935  12.995 -0.3811  0.0932  0.2399
 1472POSM   C3A17268  12.146   8.259  13.193 -0.0341  0.2140 -0.0115
 1472POSM   C1B17269  11.624   7.975  12.325  0.1096 -0.4505 -0.0216
 1472POSM   D2B17270  11.888   8.331  12.316  0.3386  0.1960  0.1361
 1472POSM   C3B17271  12.085   8.396  12.694  0.1504 -0.0878  0.0310
 1472POSM   C4B17272  12.199   8.707  13.013  0.1141 -0.6026 -0.3205
 1473POSM   NC317273  15.864   7.479  11.931 -0.3465  0.4443 -0.1689
 1473POSM   PO417274  15.518   7.516  11.994 -0.3199  0.0817 -0.3129
 1473POSM   AM117275  15.242   7.380  12.040 -0.3137 -0.2448  0.1052
 1473POSM   AM217276  15.021   7.460  12.136  0.0404  0.2538 -0.0010
 1473POSM   T1A17277  15.004   6.971  12.210  0.3653  0.2049 -0.1563
 1473POSM   C2A17278  14.983   6.475  12.264  0.0743  0.1921 -0.0498
 1473POSM   C3A17279  14.833   6.026  12.436 -0.1331  0.2974 -0.0261
 1473POSM   C1B17280  14.682   7.511  12.186  0.0481  0.0758  0.0752
 1473POSM   D2B17281  14.232   7.540  12.230 -0.1816 -0.0184  0.2181
 1473POSM   C3B17282  13.906   7.518  12.652  0.0385  0.0432  0.3950
 1473POSM   C4B17283  13.445   7.572  12.748  0.0884 -0.3861 -0.1872
 1474POSM   NC317284  13.122   5.804  11.769  0.2133 -0.0130  0.2105
 1474POSM   PO417285  13.355   5.922  12.134  0.0043 -0.1522 -0.1139
 1474POSM   AM117286  13.368   5.987  12.436  0.1878 -0.2095 -0.2887
 1474POSM   AM217287  13.565   6.136  12.548  0.2195 -0.1521 -0.3400
 1474POSM   T1A17288  13.435   5.993  12.950 -0.2503  0.3117  0.1279
 1474POSM   C2A17289  13.726   6.288  13.170 -0.2085  0.0705 -0.0567
 1474POSM   C3A17290  14.181   6.299  13.212  0.0701 -0.4466 -0.1754
 1474POSM   C1B17291  13.394   6.393  12.584 -0.1982 -0.3981 -0.2136
 1474POSM   D2B17292  13.132   6.779  12.552  0.3722  0.1186  0.0128
 1474POSM   C3B17293  12.739   6.832  12.791  0.0318  0.0907 -0.0452
 1474POSM   C4B17294  12.482   6.757  13.151 -0.0031 -0.1971  0.0083
 1475DOPS   CNO17295  19.889   4.899  12.356 -0.0515  0.0335  0.1443
 1475DOPS   PO417296  20.088   5.002  12.646  0.0931 -0.1272  0.2476
 1475DOPS   GL117297  20.423   4.851  12.826 -0.0494  0.1215  0.4338
 1475DOPS   GL217298  20.496   5.095  13.056  0.0394  0.0905 -0.0180
 1475DOPS   C1A17299  20.710   4.652  13.146 -0.0874  0.0024  0.2532
 1475DOPS   D2A17300  21.021   4.684  13.477  0.0769  0.2303  0.2539
 1475DOPS   C3A17301  21.175   4.324  13.792  0.1724 -0.0871 -0.0984
 1475DOPS   C4A17302  21.095   3.907  13.908 -0.3363 -0.1253 -0.1296
 1475DOPS   C1B17303  20.394   4.817  13.462  0.0966 -0.0119 -0.3005
 1475DOPS   D2B17304  20.225   4.588  13.828 -0.1295  0.0864  0.1577
 1475DOPS   C3B17305  20.481   4.610  14.217  0.0051 -0.0871 -0.1513
 1475DOPS   C4B17306  20.624   4.977  14.382 -0.0094 -0.0958  0.1494
 1476POSM   NC317307  18.551  34.576  12.758 -0.1780  0.2307 -0.0174
 1476POSM   PO417308  18.217  34.693  12.667  0.2491 -0.1277  0.2398
 1476POSM   AM117309  17.966  34.889  12.791  0.1405  0.2937 -0.0774
 1476POSM   AM217310  17.886  34.929  13.044 -0.1798 -0.4517  0.1530
 1476POSM   T1A17311  17.700  35.295  12.755  0.0519  0.0542  0.0070
 1476POSM   C2A17312  17.652  35.771  12.615 -0.2244  0.1242  0.1912
 1476POSM   C3A17313  17.932  36.034  12.854  0.2260  0.0272  0.0689
 1476POSM   C1B17314  18.173  35.134  13.134 -0.0602 -0.0776 -0.1252
 1476POSM   D2B17315  18.566  35.326  13.146 -0.1298  0.0089 -0.1237
 1476POSM   C3B17316  18.648  35.560  13.513 -0.0569  0.0544 -0.0141
 1476POSM   C4B17317  18.507  35.888  13.861 -0.1429 -0.1786  0.0391
 1477DOPE   NH317318  22.690   3.927  12.962 -0.4121 -0.2082  0.2064
 1477DOPE   PO417319  22.694   3.745  12.706  0.2613  0.0363  0.1525
 1477DOPE   GL117320  22.496   3.502  12.897 -0.0159 -0.3844 -0.0081
 1477DOPE   GL217321  22.589   3.290  12.755  0.4686 -0.0080 -0.2382
 1477DOPE   C1A17322  22.241   3.697  13.279  0.0891  0.1549 -0.0598
 1477DOPE   D2A17323  22.050   3.496  13.650  0.0185  0.4952  0.2225
 1477DOPE   C3A17324  22.281   3.724  13.992 -0.1721 -0.1347 -0.0642
 1477DOPE   C4A17325  22.654   4.036  14.062 -0.0230 -0.1204  0.0534
 1477DOPE   C1B17326  22.219   3.159  12.547  0.2337  0.2160  0.0765
 1477DOPE   D2B17327  21.866   2.845  12.562 -0.3250  0.1682 -0.0929
 1477DOPE   C3B17328  21.436   2.851  12.672 -0.0534  0.0309  0.2626
 1477DOPE   C4B17329  21.242   3.299  12.731  0.2850  0.0849 -0.1158
 1478DOPE   NH317330  23.466  10.721  12.375  0.2829 -0.1824 -0.0749
 1478DOPE   PO417331  23.179  10.788  12.377  0.0592  0.3778  0.1588
 1478DOPE   GL117332  22.874  10.516  12.465  0.2581 -0.1672 -0.0364
 1478DOPE   GL217333  23.022  10.263  12.495 -0.2147 -0.1256  0.1300
 1478DOPE   C1A17334  22.418  10.585  12.376  0.0465 -0.0804  0.3299
 1478DOPE   D2A17335  22.158  10.222  12.493 -0.3310 -0.1349  0.1418
 1478DOPE   C3A17336  21.808  10.236  12.795 -0.1431  0.2746  0.0242
 1478DOPE   C4A17337  21.631   9.877  13.025  0.3718 -0.4303 -0.0103
 1478DOPE   C1B17338  22.774  10.038  12.211  0.0003  0.0283 -0.1590
 1478DOPE   D2B17339  22.404   9.758  12.315 -0.3400 -0.2928 -0.2334
 1478DOPE   C3B17340  22.174   9.686  12.702 -0.0636  0.1439 -0.1787
 1478DOPE   C4B17341  21.985   9.520  13.093 -0.0868  0.0621 -0.1367
 1479DOPE   NH317342  17.399   8.021  12.172 -0.1412  0.2635  0.1494
 1479DOPE   PO417343  17.309   7.889  12.439 -0.1704 -0.1927  0.3704
 1479DOPE   GL117344  17.053   7.557  12.614  0.1902  0.2389 -0.2525
 1479DOPE   GL217345  17.208   7.315  12.815  0.2729  0.0197 -0.1018
 1479DOPE   C1A17346  16.728   7.582  12.933  0.1497 -0.2714 -0.1296
 1479DOPE   D2A17347  16.359   7.491  13.203 -0.2832 -0.0949 -0.3410
 1479DOPE   C3A17348  16.614   7.420  13.511 -0.1256  0.2156 -0.0562
 1479DOPE   C4A17349  16.793   7.020  13.792  0.2186 -0.0762 -0.0903
 1479DOPE   C1B17350  17.268   6.909  13.026  0.0079  0.1720 -0.1356
 1479DOPE   D2B17351  16.943   6.563  13.079  0.2610 -0.1231  0.2840
 1479DOPE   C3B17352  16.524   6.658  12.980  0.1212 -0.0847  0.0048
 1479DOPE   C4B17353  16.031   6.637  13.161  0.3474  0.1449 -0.3082
 1480DOPE   NH317354  11.333   2.979  11.279  0.2369  0.0758 -0.0235
 1480DOPE   PO417355  11.643   3.024  11.172  0.1026 -0.0636  0.0571
 1480DOPE   GL117356  11.793   2.835  11.425  0.0698  0.0983  0.1490
 1480DOPE   GL217357  11.634   2.602  11.466 -0.1199  0.1823  0.0104
 1480DOPE   C1A17358  12.151   2.565  11.358  0.3889  0.2127 -0.0843
 1480DOPE   D2A17359  12.480   2.212  11.366  0.3526  0.1495  0.0368
 1480DOPE   C3A17360  12.896   2.306  11.495  0.0516  0.0222 -0.1491
 1480DOPE   C4A17361  13.282   2.090  11.607  0.1073 -0.0257 -0.2189
 1480DOPE   C1B17362  11.820   2.190  11.319  0.0925 -0.2659 -0.1762
 1480DOPE   D2B17363  12.008   1.786  11.334  0.0209 -0.1956  0.1171
 1480DOPE   C3B17364  12.441   1.701  11.371 -0.1034  0.0075  0.0068
 1480DOPE   C4B17365  12.869   1.737  11.594 -0.1298  0.0387  0.0384
 1481POSM   NC317366  11.953   3.654  11.412 -0.1628 -0.1687 -0.1826
 1481POSM   PO417367  11.951   3.264  11.552 -0.0898  0.1803 -0.1046
 1481POSM   AM117368  12.035   3.073  11.800  0.0653  0.0322  0.5565
 1481POSM   AM217369  12.065   2.997  12.080 -0.0041 -0.0639  0.1919
 1481POSM   T1A17370  11.999   2.546  11.871 -0.1643  0.3923 -0.0985
 1481POSM   C2A17371  12.059   2.111  11.897  0.0866  0.5307  0.0052
 1481POSM   C3A17372  12.398   1.789  11.883 -0.2344 -0.0812 -0.1488
 1481POSM   C1B17373  12.012   2.787  12.306  0.2664  0.0976  0.0944
 1481POSM   D2B17374  12.103   2.353  12.372  0.1184 -0.0336 -0.0366
 1481POSM   C3B17375  12.495   2.133  12.329  0.0143 -0.1627  0.0968
 1481POSM   C4B17376  12.765   1.877  12.474  0.0352 -0.1121 -0.0148
 1482DOPC   NC317377  22.589   7.728  12.387 -0.0449  0.0603 -0.2638
 1482DOPC   PO417378  22.527   7.954  12.723 -0.0874  0.1336 -0.1017
 1482DOPC   GL117379  22.639   8.315  12.957 -0.3165  0.0943 -0.1012
 1482DOPC   GL217380  22.324   8.302  13.037  0.1882  0.1363  0.1233
 1482DOPC   C1A17381  22.580   8.713  13.250  0.3319 -0.1951  0.2100
 1482DOPC   D2A17382  22.297   9.019  13.485  0.1924  0.1137 -0.3002
 1482DOPC   C3A17383  22.549   9.389  13.620  0.0427 -0.1154 -0.3068
 1482DOPC   C4A17384  22.850   9.625  13.872 -0.0153 -0.0938  0.0955
 1482DOPC   C1B17385  22.055   8.640  12.831 -0.2737  0.0247  0.2846
 1482DOPC   D2B17386  22.052   9.068  12.973  0.0051 -0.1401  0.3531
 1482DOPC   C3B17387  21.739   9.182  12.717  0.2966 -0.1214  0.1920
 1482DOPC   C4B17388  21.432   9.574  12.660 -0.0393  0.0084  0.3284
 1483DOPC   NC317389  18.007   9.257  12.053  0.1340  0.2995 -0.0234
 1483DOPC   PO417390  18.219   9.142  12.362  0.0556  0.0072  0.4045
 1483DOPC   GL117391  17.933   9.174  12.599  0.2710  0.0469  0.1346
 1483DOPC   GL217392  18.048   9.494  12.701  0.1602 -0.2555 -0.0843
 1483DOPC   C1A17393  17.898   9.145  13.053 -0.1656  0.2100 -0.1203
 1483DOPC   D2A17394  17.713   9.141  13.502 -0.1058 -0.2066 -0.0952
 1483DOPC   C3A17395  17.321   9.296  13.459 -0.0161 -0.3235 -0.0412
 1483DOPC   C4A17396  17.111   9.501  13.073 -0.1026 -0.1919  0.1340
 1483DOPC   C1B17397  18.351   9.346  12.988 -0.2085 -0.3434 -0.0117
 1483DOPC   D2B17398  18.784   9.097  12.948 -0.0448 -0.0215 -0.1214
 1483DOPC   C3B17399  18.994   9.055  13.347 -0.0512  0.1692  0.3649
 1483DOPC   C4B17400  19.344   8.883  13.635 -0.1062 -0.1763 -0.0103
 1484POSM   NC317401  13.229   4.787  11.748  0.1666  0.1423 -0.2277
 1484POSM   PO417402  12.964   4.857  12.046  0.4595 -0.0961 -0.1211
 1484POSM   AM117403  12.710   4.929  12.187  0.0768 -0.3068  0.1519
 1484POSM   AM217404  12.654   5.020  12.448  0.0481  0.3716 -0.4859
 1484POSM   T1A17405  12.175   5.006  12.217 -0.1009  0.1122  0.0393
 1484POSM   C2A17406  11.699   4.977  12.200  0.0977 -0.0143 -0.2026
 1484POSM   C3A17407  11.200   4.983  12.208 -0.2853  0.0697 -0.1996
 1484POSM   C1B17408  12.421   4.962  12.747 -0.4329  0.2119 -0.0919
 1484POSM   D2B17409  12.338   5.000  13.214 -0.0191 -0.0440  0.1224
 1484POSM   C3B17410  11.885   4.886  13.327 -0.0568  0.2233 -0.0405
 1484POSM   C4B17411  11.579   4.661  13.082  0.0690  0.1489  0.0959
 1485POSM   NC317412  19.800   6.351  12.250  0.0510 -0.1480  0.4498
 1485POSM   PO417413  20.101   6.098  12.175 -0.0040  0.0512 -0.1173
 1485POSM   AM117414  20.271   6.017  12.460  0.2564  0.0115  0.2409
 1485POSM   AM217415  20.225   5.995  12.662 -0.0714 -0.0872 -0.0572
 1485POSM   T1A17416  20.703   5.839  12.653 -0.2052  0.0680 -0.0817
 1485POSM   C2A17417  21.047   5.703  12.416 -0.1995 -0.1997  0.2568
 1485POSM   C3A17418  21.430   5.416  12.261 -0.2021  0.2315  0.1527
 1485POSM   C1B17419  20.227   5.952  12.992 -0.1116 -0.1193  0.1864
 1485POSM   D2B17420  20.239   5.836  13.438 -0.1050 -0.1044  0.0479
 1485POSM   C3B17421  20.345   5.384  13.642  0.2883  0.0140 -0.1795
 1485POSM   C4B17422  20.495   5.023  13.943 -0.1745 -0.1725  0.0676
 1486DOPS   CNO17423  20.875   1.753  12.471  0.0236  0.1831 -0.6883
 1486DOPS   PO417424  20.763   1.674  12.845  0.0042 -0.2963  0.1223
 1486DOPS   GL117425  20.524   1.900  13.087  0.4134 -0.0955 -0.0935
 1486DOPS   GL217426  20.634   2.179  13.145  0.1779 -0.0451  0.0768
 1486DOPS   C1A17427  20.127   2.172  13.091  0.0561  0.2782  0.1834
 1486DOPS   D2A17428  19.917   2.474  12.826  0.0192 -0.0782  0.0914
 1486DOPS   C3A17429  19.502   2.531  12.963  0.2382 -0.1062 -0.1402
 1486DOPS   C4A17430  19.249   2.408  12.594  0.1747  0.1641 -0.2632
 1486DOPS   C1B17431  20.904   2.568  13.235  0.0947  0.0985  0.0022
 1486DOPS   D2B17432  21.287   2.835  13.181 -0.2112 -0.2288  0.1500
 1486DOPS   C3B17433  21.166   3.292  13.295  0.0368 -0.2566 -0.0640
 1486DOPS   C4B17434  20.887   3.607  13.118 -0.0083 -0.0298  0.1500
 1487DOPE   NH317435  18.317   8.139  12.463 -0.1855 -0.3906  0.1703
 1487DOPE   PO417436  18.498   7.919  12.487 -0.0610  0.1039  0.1128
 1487DOPE   GL117437  18.754   7.629  12.572  0.0439 -0.2582  0.1618
 1487DOPE   GL217438  19.042   7.677  12.433  0.1208  0.4209 -0.2462
 1487DOPE   C1A17439  19.031   7.484  12.904  0.0299 -0.1907 -0.1507
 1487DOPE   D2A17440  18.967   7.528  13.306 -0.2311  0.0847 -0.0803
 1487DOPE   C3A17441  19.343   7.757  13.450  0.2323 -0.1595 -0.1597
 1487DOPE   C4A17442  19.442   8.242  13.543  0.2722 -0.2225  0.1332
 1487DOPE   C1B17443  19.353   7.928  12.544 -0.0371 -0.3668  0.0370
 1487DOPE   D2B17444  19.762   8.123  12.468  0.0096 -0.2075 -0.0551
 1487DOPE   C3B17445  20.207   8.227  12.671  0.4776 -0.0027 -0.1461
 1487DOPE   C4B17446  20.666   8.057  12.787  0.2878  0.1679 -0.1847
 1488DOPC   NC317447  18.017   5.666  12.773  0.0322 -0.1850  0.1191
 1488DOPC   PO417448  17.939   5.401  12.478  0.4724  0.0008  0.3688
 1488DOPC   GL117449  17.946   5.108  12.790  0.2648 -0.1161 -0.1190
 1488DOPC   GL217450  17.747   5.193  12.939  0.0490  0.4281 -0.1310
 1488DOPC   C1A17451  18.059   4.823  13.207 -0.2714 -0.0196  0.1432
 1488DOPC   D2A17452  18.123   4.436  13.447  0.2166  0.2553  0.0266
 1488DOPC   C3A17453  17.757   4.402  13.759  0.1312 -0.0823 -0.0565
 1488DOPC   C4A17454  17.421   4.139  13.952  0.0391  0.1337  0.1181
 1488DOPC   C1B17455  17.788   5.182  13.412 -0.0355 -0.0236 -0.0634
 1488DOPC   D2B17456  17.618   4.894  13.709  0.1676 -0.1525  0.3248
 1488DOPC   C3B17457  17.284   4.778  13.979 -0.0693 -0.1171 -0.0971
 1488DOPC   C4B17458  17.139   4.493  14.272  0.0073 -0.0698 -0.1918
 1489DOPC   NC317459  16.802   7.950  12.550  0.1267 -0.2346 -0.1271
 1489DOPC   PO417460  16.661   8.063  12.213  0.0791 -0.1995  0.2888
 1489DOPC   GL117461  16.370   8.246  12.485  0.4941  0.0037 -0.1024
 1489DOPC   GL217462  16.351   8.119  12.743 -0.1101  0.2333  0.1341
 1489DOPC   C1A17463  16.166   8.655  12.639 -0.1452 -0.1595 -0.2300
 1489DOPC   D2A17464  16.215   8.964  13.009  0.3475 -0.1157 -0.2506
 1489DOPC   C3A17465  16.284   8.813  13.443  0.0395 -0.0284 -0.1030
 1489DOPC   C4A17466  16.309   8.298  13.488 -0.1547 -0.0121  0.3141
 1489DOPC   C1B17467  16.524   8.029  13.140 -0.2767  0.1777 -0.0231
 1489DOPC   D2B17468  16.743   7.973  13.522  0.4844 -0.0414 -0.1886
 1489DOPC   C3B17469  16.672   8.078  13.969 -0.3661  0.1003  0.2914
 1489DOPC   C4B17470  16.685   8.384  14.304 -0.0014  0.1086  0.1515
 1490DOPC   NC317471  16.528   8.401  11.901  0.1582 -0.0236 -0.2504
 1490DOPC   PO417472  16.557   8.573  11.544  0.0749  0.0179  0.4729
 1490DOPC   GL117473  16.656   8.975  11.586  0.5154 -0.1131  0.2337
 1490DOPC   GL217474  16.542   9.108  11.267 -0.1275  0.2383 -0.0767
 1490DOPC   C1A17475  16.858   9.355  11.636 -0.0745 -0.0836 -0.1956
 1490DOPC   D2A17476  16.957   9.800  11.594  0.0240 -0.0556 -0.3605
 1490DOPC   C3A17477  16.937  10.120  11.210 -0.2482 -0.4809 -0.0674
 1490DOPC   C4A17478  16.806  10.246  10.783 -0.1375 -0.1956 -0.3564
 1490DOPC   C1B17479  16.360   9.403  11.590 -0.1177 -0.3795 -0.0137
 1490DOPC   D2B17480  16.258   9.741  11.889 -0.1269  0.2489 -0.3655
 1490DOPC   C3B17481  15.873   9.904  12.128  0.1838 -0.0442  0.0486
 1490DOPC   C4B17482  15.709  10.265  12.396  0.1176 -0.0036  0.0718
 1491DOPE   NH317483  20.283   0.800  12.709 -0.1786 -0.0574 -0.0281
 1491DOPE   PO417484  19.980   0.623  12.657  0.3139  0.2263  0.1938
 1491DOPE   GL117485  19.811   0.821  12.874 -0.1461  0.0719 -0.3649
 1491DOPE   GL217486  19.862   1.068  13.064  0.0021  0.1182 -0.0787
 1491DOPE   C1A17487  19.405   0.977  13.053  0.1888 -0.2827  0.0873
 1491DOPE   D2A17488  18.968   1.051  13.031 -0.1515  0.0083  0.1914
 1491DOPE   C3A17489  18.936   1.272  13.416 -0.0448  0.2333 -0.1784
 1491DOPE   C4A17490  19.006   1.464  13.790  0.0275  0.4036  0.1735
 1491DOPE   C1B17491  19.816   0.970  13.471  0.0104 -0.0193 -0.1925
 1491DOPE   D2B17492  19.722   0.789  13.911  0.0843 -0.1623  0.4479
 1491DOPE   C3B17493  19.423   1.157  14.007 -0.0731 -0.0091 -0.0312
 1491DOPE   C4B17494  19.226   1.526  14.202  0.0306 -0.0513  0.0146
 1492DOPC   NC317495  22.402   7.340  13.344 -0.0271  0.2313  0.0573
 1492DOPC   PO417496  21.975   7.386  13.271  0.0547  0.0726  0.5174
 1492DOPC   GL117497  22.136   7.681  13.515  0.0941 -0.1881  0.2375
 1492DOPC   GL217498  21.942   7.945  13.505  0.0932 -0.1050  0.0274
 1492DOPC   C1A17499  22.307   7.983  13.880  0.2975 -0.0278 -0.0418
 1492DOPC   D2A17500  22.582   8.367  13.914  0.0068 -0.1785  0.1176
 1492DOPC   C3A17501  22.445   8.822  13.895 -0.0606  0.3411 -0.1950
 1492DOPC   C4A17502  22.082   8.899  14.164 -0.0739 -0.1086 -0.0281
 1492DOPC   C1B17503  21.545   8.151  13.778  0.5159  0.1029 -0.0761
 1492DOPC   D2B17504  21.370   8.415  14.081 -0.0060 -0.0882  0.2356
 1492DOPC   C3B17505  21.276   8.885  13.980  0.0053  0.0311 -0.0942
 1492DOPC   C4B17506  21.217   9.216  13.643  0.0636 -0.0771  0.0070
 1493POSM   NC317507  13.141   4.032  11.010 -0.1715 -0.0048 -0.2948
 1493POSM   PO417508  12.887   3.855  11.295  0.2667 -0.0495 -0.0060
 1493POSM   AM117509  13.110   3.878  11.484 -0.2100 -0.0540 -0.1145
 1493POSM   AM217510  13.247   3.860  11.761 -0.0880 -0.0581  0.1993
 1493POSM   T1A17511  13.625   3.861  11.506  0.1916  0.1944  0.0173
 1493POSM   C2A17512  13.939   4.102  11.779  0.2749  0.3493  0.2356
 1493POSM   C3A17513  13.963   4.502  12.006  0.0725 -0.0848 -0.2694
 1493POSM   C1B17514  13.465   3.946  12.021 -0.0084 -0.4676 -0.2254
 1493POSM   D2B17515  13.694   4.087  12.345  0.0492 -0.0442 -0.0399
 1493POSM   C3B17516  14.027   3.820  12.334 -0.0775 -0.1847  0.2088
 1493POSM   C4B17517  14.244   3.946  12.749 -0.0740  0.0014  0.1475
 1494DOPS   CNO17518  14.146  34.589  11.077  0.2765 -0.0306  0.1687
 1494DOPS   PO417519  14.229  34.199  11.116 -0.1297 -0.0261 -0.0461
 1494DOPS   GL117520  14.411  34.046  11.440 -0.1449  0.3145  0.0390
 1494DOPS   GL217521  14.109  34.003  11.566 -0.1802 -0.0842  0.2072
 1494DOPS   C1A17522  14.443  33.630  11.589 -0.1063 -0.1227 -0.4494
 1494DOPS   D2A17523  14.282  33.210  11.761 -0.0029 -0.0798 -0.1344
 1494DOPS   C3A17524  13.931  32.942  11.591 -0.2119  0.1943 -0.0472
 1494DOPS   C4A17525  13.727  32.697  11.900 -0.0206  0.1542  0.0652
 1494DOPS   C1B17526  14.191  33.746  11.943 -0.1027  0.1273 -0.2266
 1494DOPS   D2B17527  14.352  33.409  12.221  0.2975 -0.0444 -0.1452
 1494DOPS   C3B17528  14.745  33.434  12.459  0.2990 -0.5275  0.2773
 1494DOPS   C4B17529  14.907  33.771  12.819 -0.3915  0.2689  0.0816
 1495DOPE   NH317530  12.992   5.336  12.219  0.1028  0.0287  0.1122
 1495DOPE   PO417531  12.953   5.640  12.197  0.1491 -0.0503  0.2110
 1495DOPE   GL117532  12.919   5.615  12.641 -0.0884 -0.0688 -0.0128
 1495DOPE   GL217533  13.077   5.639  12.894 -0.2424 -0.1317 -0.1644
 1495DOPE   C1A17534  12.638   5.397  12.968  0.0366  0.2628 -0.0027
 1495DOPE   D2A17535  12.098   5.434  12.981 -0.1025 -0.0934 -0.0186
 1495DOPE   C3A17536  11.725   5.241  13.062 -0.2283 -0.0544  0.2156
 1495DOPE   C4A17537  11.269   5.130  13.009  0.0016 -0.1644  0.1398
 1495DOPE   C1B17538  12.884   5.913  13.232  0.0958  0.1240  0.0561
 1495DOPE   D2B17539  12.972   6.132  13.613 -0.2077 -0.1387  0.0336
 1495DOPE   C3B17540  12.871   6.471  13.948 -0.1306 -0.0840 -0.0452
 1495DOPE   C4B17541  12.763   6.462  14.392  0.0218 -0.0277  0.0136
 1496POSM   NC317542  11.503   2.483  11.004 -0.4900  0.1201 -0.1962
 1496POSM   PO417543  11.163   2.543  11.160 -0.0151 -0.0679 -0.2259
 1496POSM   AM117544  11.209   2.327  11.430 -0.3143  0.0317 -0.0689
 1496POSM   AM217545  11.015   2.232  11.626 -0.1999 -0.1703 -0.0814
 1496POSM   T1A17546  11.589   2.166  11.780 -0.1589 -0.1289 -0.0842
 1496POSM   C2A17547  11.518   1.806  12.070 -0.1298 -0.3886 -0.1102
 1496POSM   C3A17548  11.323   1.630  12.485 -0.2431  0.0022 -0.1528
 1496POSM   C1B17549  11.140   1.957  11.684 -0.1316  0.0635 -0.3923
 1496POSM   D2B17550  11.574   1.729  11.588 -0.1043  0.0232  0.1042
 1496POSM   C3B17551  11.901   1.549  11.866  0.1366  0.1224 -0.3123
 1496POSM   C4B17552  11.851   1.549  12.328 -0.1336  0.2144 -0.2290
 1497DOPC   NC317553  17.915   4.733  12.288 -0.0635  0.2230 -0.0623
 1497DOPC   PO417554  17.606   4.803  12.499 -0.0875  0.1055  0.1894
 1497DOPC   GL117555  17.771   4.712  12.866 -0.2522 -0.2165 -0.1124
 1497DOPC   GL217556  18.005   4.458  12.886  0.1004  0.1802  0.1095
 1497DOPC   C1A17557  17.422   4.887  13.152  0.3067  0.0192  0.2546
 1497DOPC   D2A17558  16.911   4.840  13.041 -0.0859 -0.2723  0.0492
 1497DOPC   C3A17559  16.512   5.007  12.938  0.1597 -0.0175 -0.0935
 1497DOPC   C4A17560  16.321   5.199  13.294 -0.1720 -0.1253 -0.2803
 1497DOPC   C1B17561  17.693   4.436  13.195 -0.0008 -0.2253 -0.0364
 1497DOPC   D2B17562  17.345   4.509  13.480 -0.4411  0.2521 -0.1918
 1497DOPC   C3B17563  17.136   4.889  13.542  0.1432  0.1617  0.0517
 1497DOPC   C4B17564  16.715   5.122  13.567 -0.0138 -0.0354 -0.0321
 1498DOPS   CNO17565  14.446   0.931  11.815 -0.0162  0.0719  0.2707
 1498DOPS   PO417566  14.632   0.621  11.816 -0.1706 -0.0042  0.0477
 1498DOPS   GL117567  14.476   0.594  12.193 -0.1035  0.0419 -0.0190
 1498DOPS   GL217568  14.675   0.441  12.340  0.1033 -0.2244  0.0801
 1498DOPS   C1A17569  14.102   0.461  12.409 -0.0148  0.0061 -0.0303
 1498DOPS   D2A17570  13.840   0.364  12.778  0.2419 -0.0971  0.2453
 1498DOPS   C3A17571  13.479   0.654  12.665 -0.0779 -0.1153 -0.1022
 1498DOPS   C4A17572  13.252   0.983  12.395  0.1838 -0.1448  0.4548
 1498DOPS   C1B17573  14.653   0.117  12.644  0.0890 -0.5582 -0.0931
 1498DOPS   D2B17574  14.858   0.095  13.067 -0.0524 -0.0901  0.2545
 1498DOPS   C3B17575  15.308   0.160  13.221  0.3264  0.3667 -0.0567
 1498DOPS   C4B17576  15.750   0.087  13.248 -0.3239  0.0481  0.2956
 1499DOPC   NC317577  12.678   4.080  12.344 -0.0923 -0.0205  0.0851
 1499DOPC   PO417578  12.688   4.405  12.108 -0.0930 -0.1032 -0.3888
 1499DOPC   GL117579  12.399   4.587  12.437  0.2970 -0.0744 -0.1164
 1499DOPC   GL217580  12.518   4.484  12.645 -0.1513  0.0127 -0.1063
 1499DOPC   C1A17581  12.003   4.752  12.582 -0.4032 -0.1102  0.2072
 1499DOPC   D2A17582  11.613   4.918  12.693  0.2460  0.0885 -0.2360
 1499DOPC   C3A17583  11.178   4.761  12.741 -0.0031 -0.0645  0.0231
 1499DOPC   C4A17584  11.034   4.486  13.069 -0.1020 -0.0704  0.1603
 1499DOPC   C1B17585  12.541   4.034  12.856 -0.1386  0.4073 -0.0216
 1499DOPC   D2B17586  12.540   3.606  12.668  0.0523 -0.0441 -0.2812
 1499DOPC   C3B17587  12.989   3.538  12.702  0.2391  0.2893 -0.1234
 1499DOPC   C4B17588  13.346   3.213  12.625  0.2253  0.0056 -0.0850
 1500DOPC   NC317589  17.011   3.868  12.216  0.0375  0.0665  0.0582
 1500DOPC   PO417590  16.812   3.586  12.063 -0.2985 -0.1591 -0.2324
 1500DOPC   GL117591  16.552   3.717  12.346  0.3310 -0.2181 -0.1140
 1500DOPC   GL217592  16.336   3.608  12.173 -0.0047 -0.1149 -0.0114
 1500DOPC   C1A17593  16.279   3.769  12.713 -0.0725  0.1028  0.2176
 1500DOPC   D2A17594  15.816   3.789  12.725  0.0213 -0.2656  0.0612
 1500DOPC   C3A17595  15.413   3.796  12.902 -0.1278 -0.1834 -0.1343
 1500DOPC   C4A17596  15.345   3.844  13.312  0.1390  0.0482  0.2250
 1500DOPC   C1B17597  15.886   3.550  12.300  0.2329 -0.1040  0.4330
 1500DOPC   D2B17598  15.515   3.346  12.456  0.2491 -0.1231  0.1526
 1500DOPC   C3B17599  15.110   3.509  12.231  0.0859  0.3207  0.0335
 1500DOPC   C4B17600  14.664   3.480  12.148  0.1852  0.2092 -0.2278
 1501DOPE   NH317601  16.988   3.120  12.059  0.1385  0.1335 -0.1880
 1501DOPE   PO417602  17.064   2.844  12.233 -0.3499 -0.1193 -0.0029
 1501DOPE   GL117603  17.269   2.748  12.617 -0.0881  0.0254  0.0605
 1501DOPE   GL217604  17.395   2.528  12.613 -0.0887  0.1974  0.1493
 1501DOPE   C1A17605  17.307   2.799  13.109  0.1401 -0.1430  0.3710
 1501DOPE   D2A17606  17.493   2.662  13.514  0.2526 -0.1387 -0.0241
 1501DOPE   C3A17607  17.811   2.450  13.793  0.2823 -0.1326  0.1917
 1501DOPE   C4A17608  17.964   2.307  14.181 -0.1861 -0.1385  0.2125
 1501DOPE   C1B17609  17.890   2.332  12.655  0.2575 -0.0927 -0.0482
 1501DOPE   D2B17610  18.316   2.146  12.776  0.1793  0.2183  0.1396
 1501DOPE   C3B17611  18.260   1.728  12.557  0.0987  0.2606 -0.1072
 1501DOPE   C4B17612  18.562   1.336  12.508  0.1271 -0.1166  0.1692
 1502DOPC   NC317613  12.629   2.898  10.923  0.0394  0.1988  0.2285
 1502DOPC   PO417614  12.687   3.056  11.304  0.1671  0.2710 -0.1935
 1502DOPC   GL117615  12.645   2.695  11.604  0.3635  0.3778 -0.1121
 1502DOPC   GL217616  12.415   2.777  11.744 -0.2140  0.0252  0.0624
 1502DOPC   C1A17617  12.525   2.331  11.884  0.3174  0.3661 -0.0389
 1502DOPC   D2A17618  12.841   2.116  11.996 -0.2565  0.2068 -0.0061
 1502DOPC   C3A17619  13.111   2.210  12.363  0.0575  0.1205 -0.1743
 1502DOPC   C4A17620  13.301   2.412  12.736 -0.1015 -0.1195  0.0924
 1502DOPC   C1B17621  12.484   2.655  12.211 -0.0596 -0.1582 -0.1637
 1502DOPC   D2B17622  12.305   2.710  12.679 -0.2510 -0.1156 -0.3941
 1502DOPC   C3B17623  12.607   2.772  13.099  0.3040  0.1524 -0.0762
 1502DOPC   C4B17624  12.769   2.652  13.498 -0.0579  0.0445  0.5341
 1503DOPC   NC317625  18.897  10.200  12.049 -0.0852  0.0308  0.2987
 1503DOPC   PO417626  18.912  10.317  12.430 -0.3523  0.3332 -0.0432
 1503DOPC   GL117627  19.027  10.467  12.717  0.0110 -0.0263 -0.0271
 1503DOPC   GL217628  19.301  10.522  12.638 -0.0922  0.1483 -0.0417
 1503DOPC   C1A17629  18.840  10.507  13.140 -0.0001 -0.2288 -0.0413
 1503DOPC   D2A17630  18.637  10.402  13.528  0.2400  0.0120 -0.2946
 1503DOPC   C3A17631  18.512   9.965  13.704  0.5951  0.0963  0.1921
 1503DOPC   C4A17632  18.525   9.827  14.158  0.0580  0.3154 -0.2033
 1503DOPC   C1B17633  19.516  10.507  13.073  0.0983 -0.2371 -0.0698
 1503DOPC   D2B17634  19.771  10.325  13.439 -0.1234  0.0625  0.0022
 1503DOPC   C3B17635  19.591  10.483  13.871 -0.0150 -0.1786  0.0052
 1503DOPC   C4B17636  19.336  10.740  14.144  0.3205 -0.1826  0.4739
 1504POSM   NC317637  17.825  10.021  11.888 -0.2471  0.0592  0.0589
 1504POSM   PO417638  17.545  10.028  11.614 -0.0256  0.0962 -0.1628
 1504POSM   AM117639  17.348   9.987  11.889  0.2003 -0.1692 -0.1226
 1504POSM   AM217640  17.383  10.080  12.152 -0.0393  0.3199  0.0509
 1504POSM   T1A17641  17.000   9.767  12.157  0.1443  0.0684  0.0773
 1504POSM   C2A17642  16.875   9.817  12.573 -0.2016  0.0995  0.0971
 1504POSM   C3A17643  16.624   9.682  12.988  0.3682 -0.1703  0.2628
 1504POSM   C1B17644  17.052  10.230  12.205  0.0176 -0.1470 -0.2368
 1504POSM   D2B17645  16.601  10.419  12.088  0.1740  0.2249 -0.1898
 1504POSM   C3B17646  16.229  10.429  12.330 -0.1220 -0.2626 -0.2933
 1504POSM   C4B17647  16.091  10.679  12.597  0.1429  0.1537 -0.0552
 1505DOPE   NH317648  16.730   4.736  12.441  0.1224 -0.2298 -0.0373
 1505DOPE   PO417649  17.048   4.811  12.501  0.1522  0.0979 -0.2004
 1505DOPE   GL117650  17.025   4.464  12.764  0.1295 -0.0931  0.0741
 1505DOPE   GL217651  16.824   4.301  12.674  0.0511  0.0647  0.3297
 1505DOPE   C1A17652  16.773   4.381  13.163  0.0220 -0.0178 -0.0278
 1505DOPE   D2A17653  16.508   4.596  13.482  0.0951 -0.0734 -0.2875
 1505DOPE   C3A17654  16.100   4.566  13.245 -0.0416 -0.1256  0.1055
 1505DOPE   C4A17655  15.975   4.880  12.913 -0.1371 -0.2998  0.0521
 1505DOPE   C1B17656  16.389   4.427  12.797 -0.1761  0.1757 -0.2236
 1505DOPE   D2B17657  15.944   4.325  12.850  0.0812  0.0507  0.0717
 1505DOPE   C3B17658  15.778   4.105  13.189 -0.0631 -0.0588  0.1931
 1505DOPE   C4B17659  15.973   3.661  13.179 -0.0123 -0.0369 -0.0553
 1506DOPS   CNO17660  16.776   4.765  11.927 -0.0026 -0.2996  0.1892
 1506DOPS   PO417661  16.501   4.515  11.916  0.2196  0.2128 -0.0677
 1506DOPS   GL117662  16.396   4.397  12.302  0.0311  0.0614 -0.1069
 1506DOPS   GL217663  16.457   4.143  12.343 -0.0429 -0.0533 -0.0422
 1506DOPS   C1A17664  15.996   4.608  12.411 -0.0435  0.3268  0.0376
 1506DOPS   D2A17665  15.629   4.380  12.406 -0.0177 -0.0789 -0.3613
 1506DOPS   C3A17666  15.439   4.332  12.851  0.1125  0.1671  0.2157
 1506DOPS   C4A17667  15.295   4.372  13.264  0.0574  0.0005  0.1474
 1506DOPS   C1B17668  16.010   4.063  12.321  0.2521  0.2422 -0.1371
 1506DOPS   D2B17669  15.609   3.904  12.134 -0.4495  0.4852 -0.2778
 1506DOPS   C3B17670  15.218   4.029  12.465  0.0608 -0.1436 -0.0903
 1506DOPS   C4B17671  14.898   3.966  12.744 -0.1964 -0.0253 -0.0738
 1507DOPC   NC317672  14.765  11.841  11.492 -0.2304 -0.2173  0.0756
 1507DOPC   PO417673  14.948  11.748  11.180 -0.0589 -0.0412  0.1085
 1507DOPC   GL117674  15.203  11.415  11.217 -0.0419  0.1797 -0.0571
 1507DOPC   GL217675  15.097  11.189  11.324  0.0071  0.4073 -0.1817
 1507DOPC   C1A17676  15.511  11.184  11.526 -0.1598  0.1120  0.1504
 1507DOPC   D2A17677  15.943  11.026  11.601 -0.2814 -0.0954 -0.1167
 1507DOPC   C3A17678  16.307  11.275  11.755  0.1623  0.1206 -0.2502
 1507DOPC   C4A17679  16.631  11.609  11.752  0.1475 -0.0185  0.0172
 1507DOPC   C1B17680  15.026  11.034  11.776 -0.2809  0.1268  0.0598
 1507DOPC   D2B17681  14.845  11.073  12.196  0.2399 -0.2170  0.2784
 1507DOPC   C3B17682  14.965  11.012  12.652  0.1147 -0.0007  0.0483
 1507DOPC   C4B17683  15.034  10.865  13.084  0.1444  0.1393 -0.0169
 1508DOPE   NH317684  12.082   3.489  12.141 -0.0826 -0.2677 -0.1116
 1508DOPE   PO417685  11.985   3.666  11.893  0.0054  0.1333  0.1594
 1508DOPE   GL117686  11.634   3.656  12.175 -0.0882  0.3093  0.1511
 1508DOPE   GL217687  11.697   3.922  12.293  0.0680 -0.0836 -0.2092
 1508DOPE   C1A17688  11.317   3.373  12.413 -0.0879 -0.0051  0.3083
 1508DOPE   D2A17689  11.027   3.410  12.709  0.1381  0.0003  0.0595
 1508DOPE   C3A17690  10.757   3.820  12.840 -0.2328 -0.4233  0.4620
 1508DOPE   C4A17691  10.529   4.142  13.111  0.0233 -0.2721  0.0832
 1508DOPE   C1B17692  11.497   3.869  12.652 -0.0102 -0.0002 -0.0849
 1508DOPE   D2B17693  11.238   3.989  13.023  0.1096  0.2104 -0.4213
 1508DOPE   C3B17694  11.180   3.601  13.139 -0.0746  0.0159  0.1381
 1508DOPE   C4B17695  11.146   3.156  13.087  0.2594 -0.0375  0.1113
 1509DOPE   NH317696  17.061   5.625  12.427 -0.1176  0.0519 -0.0925
 1509DOPE   PO417697  17.089   5.885  12.211  0.0858  0.1864 -0.1895
 1509DOPE   GL117698  16.769   6.019  12.453  0.1174  0.2476  0.1478
 1509DOPE   GL217699  16.857   6.165  12.679  0.2323 -0.2254 -0.1517
 1509DOPE   C1A17700  16.539   5.658  12.649  0.1592 -0.2571  0.3559
 1509DOPE   D2A17701  16.211   5.302  12.693 -0.1517  0.2616  0.0797
 1509DOPE   C3A17702  15.754   5.311  12.926 -0.3472 -0.3978  0.0368
 1509DOPE   C4A17703  15.559   5.551  13.304 -0.1372  0.0769  0.2455
 1509DOPE   C1B17704  16.829   6.051  13.155  0.2257  0.3946  0.2006
 1509DOPE   D2B17705  16.789   6.405  13.521 -0.0170  0.2649  0.4210
 1509DOPE   C3B17706  16.538   6.747  13.477  0.2285  0.1481 -0.4466
 1509DOPE   C4B17707  16.223   7.055  13.405  0.4203 -0.0302  0.0490
 1510POSM   NC317708  21.485   6.682  12.773  0.0406 -0.1011  0.2344
 1510POSM   PO417709  21.132   6.797  12.836  0.1529 -0.0462 -0.0015
 1510POSM   AM117710  21.061   6.688  13.117  0.0431 -0.0770  0.1724
 1510POSM   AM217711  20.795   6.720  13.224 -0.0240 -0.1969  0.0159
 1510POSM   T1A17712  21.084   6.308  13.477 -0.2274  0.0933  0.1467
 1510POSM   C2A17713  21.141   6.033  13.887 -0.1674  0.1851  0.0754
 1510POSM   C3A17714  20.937   5.859  14.253  0.1466 -0.1838  0.1443
 1510POSM   C1B17715  20.564   6.790  13.409  0.2832 -0.3278 -0.2595
 1510POSM   D2B17716  20.185   6.903  13.608  0.2178 -0.2398 -0.0154
 1510POSM   C3B17717  19.995   7.244  13.400  0.1576 -0.1586  0.0047
 1510POSM   C4B17718  19.872   7.694  13.383  0.0693 -0.1275 -0.1323
 1511POSM   NC317719  20.872  11.199  12.125 -0.1561  0.3196 -0.1529
 1511POSM   PO417720  20.812  11.081  12.500 -0.0637 -0.0600 -0.0654
 1511POSM   AM117721  20.878  10.970  12.819 -0.1383  0.0436 -0.1728
 1511POSM   AM217722  21.127  10.873  12.993 -0.3096 -0.0298  0.4111
 1511POSM   T1A17723  20.725  10.579  13.079 -0.1204  0.2592 -0.0375
 1511POSM   C2A17724  20.532  10.149  12.972 -0.0839 -0.0693  0.1950
 1511POSM   C3A17725  20.574   9.725  13.024 -0.0423  0.0843  0.3148
 1511POSM   C1B17726  21.145  10.720  13.280  0.0428  0.3636  0.2796
 1511POSM   D2B17727  21.092  10.368  13.596  0.0210 -0.0985  0.0619
 1511POSM   C3B17728  21.475  10.225  13.847 -0.1841 -0.0186  0.2689
 1511POSM   C4B17729  21.833  10.168  14.136 -0.2926  0.4848 -0.0973
 1512DOPC   NC317730  11.655   4.031  11.838  0.0662  0.0646 -0.2485
 1512DOPC   PO417731  11.830   4.258  11.547 -0.0531 -0.0130  0.1646
 1512DOPC   GL117732  11.719   4.558  11.760 -0.1418 -0.2690  0.1924
 1512DOPC   GL217733  11.957   4.791  11.629 -0.0225 -0.2455 -0.1233
 1512DOPC   C1A17734  11.641   4.399  12.201  0.1610 -0.0651  0.5246
 1512DOPC   D2A17735  11.559   4.423  12.642 -0.0711  0.0463  0.2929
 1512DOPC   C3A17736  11.730   4.157  12.991  0.3032  0.2078  0.1467
 1512DOPC   C4A17737  12.052   4.017  13.177  0.0342 -0.1163 -0.0742
 1512DOPC   C1B17738  11.535   5.047  11.705 -0.1506  0.2416 -0.0849
 1512DOPC   D2B17739  11.040   4.955  11.676 -0.1186 -0.1725  0.1857
 1512DOPC   C3B17740  11.252   4.559  11.846  0.0855  0.3354 -0.1077
 1512DOPC   C4B17741  11.138   4.243  12.173 -0.2018 -0.1619  0.0655
 1513DOPC   NC317742  16.091   8.818  11.422  0.0488  0.1555  0.3605
 1513DOPC   PO417743  15.717   8.694  11.474  0.1817 -0.2329  0.1499
 1513DOPC   GL117744  15.754   9.112  11.634 -0.3970  0.2769  0.2054
 1513DOPC   GL217745  15.909   9.271  11.428  0.0949 -0.2233 -0.0965
 1513DOPC   C1A17746  15.559   9.562  11.712 -0.1399  0.0841  0.1572
 1513DOPC   D2A17747  15.460  10.015  11.747 -0.0630 -0.0229  0.5893
 1513DOPC   C3A17748  15.289  10.274  12.072 -0.0507  0.1185  0.0941
 1513DOPC   C4A17749  15.177  10.704  12.154 -0.0021 -0.0372 -0.1649
 1513DOPC   C1B17750  15.954   9.696  11.438 -0.1863 -0.0531 -0.3085
 1513DOPC   D2B17751  16.021  10.120  11.660 -0.1761  0.0385  0.2240
 1513DOPC   C3B17752  15.729  10.319  11.434 -0.0644  0.0945  0.1901
 1513DOPC   C4B17753  15.357  10.276  11.274  0.0952  0.1772  0.2760
 1514DOPC   NC317754  18.031   7.385  12.817  0.0667  0.1808 -0.4182
 1514DOPC   PO417755  18.129   7.006  12.707  0.1288 -0.0360 -0.1153
 1514DOPC   GL117756  18.241   6.960  13.027  0.4308  0.5812 -0.1912
 1514DOPC   GL217757  18.191   7.137  13.240  0.0961 -0.1244 -0.1326
 1514DOPC   C1A17758  18.211   6.747  13.460  0.3815 -0.2979  0.2206
 1514DOPC   D2A17759  18.183   6.405  13.786  0.0507  0.1007 -0.3341
 1514DOPC   C3A17760  18.394   6.130  13.466  0.0285 -0.2923 -0.1156
 1514DOPC   C4A17761  18.142   5.823  13.223 -0.0297  0.2889 -0.1755
 1514DOPC   C1B17762  18.525   7.056  13.585  0.0662  0.0873 -0.1305
 1514DOPC   D2B17763  18.821   7.310  13.824  0.1499 -0.0630 -0.2362
 1514DOPC   C3B17764  19.270   7.277  13.745  0.0809 -0.0674  0.1004
 1514DOPC   C4B17765  19.427   7.271  13.302  0.3500  0.0230 -0.1150
 1515POSM   NC317766  12.865   3.451  11.797 -0.1685  0.2977 -0.0691
 1515POSM   PO417767  13.064   3.350  11.506  0.0350 -0.0911  0.1028
 1515POSM   AM117768  13.331   3.256  11.674 -0.5380 -0.2481 -0.1916
 1515POSM   AM217769  13.453   3.425  11.890 -0.2186 -0.0291  0.2334
 1515POSM   T1A17770  13.846   3.122  11.543 -0.4387 -0.2013  0.0635
 1515POSM   C2A17771  14.288   3.068  11.578  0.3020  0.1005  0.1387
 1515POSM   C3A17772  14.603   2.961  11.912 -0.1523 -0.2574  0.0290
 1515POSM   C1B17773  13.763   3.458  11.931  0.0268 -0.5961 -0.0596
 1515POSM   D2B17774  14.193   3.505  11.967 -0.0713 -0.0906 -0.2392
 1515POSM   C3B17775  14.267   3.206  12.323 -0.1837  0.3950  0.1393
 1515POSM   C4B17776  14.334   2.785  12.291 -0.0338  0.0753 -0.0269
 1516DOPC   NC317777  12.348   9.395  12.156  0.3258  0.2055 -0.0570
 1516DOPC   PO417778  12.555   9.594  11.889  0.1211  0.1446 -0.0651
 1516DOPC   GL117779  12.954   9.639  11.993 -0.0695  0.1985  0.3010
 1516DOPC   GL217780  13.004   9.635  11.663  0.0936  0.0639 -0.2641
 1516DOPC   C1A17781  13.205   9.579  12.421  0.0985 -0.4104  0.1568
 1516DOPC   D2A17782  13.242   9.348  12.770  0.0345  0.2288 -0.0943
 1516DOPC   C3A17783  12.959   9.027  12.959  0.1607  0.1455  0.1555
 1516DOPC   C4A17784  12.751   8.656  13.098  0.1424  0.3594 -0.0208
 1516DOPC   C1B17785  13.392   9.526  11.906  0.0006  0.2444 -0.1257
 1516DOPC   D2B17786  13.705   9.690  12.209  0.2402 -0.1192 -0.0452
 1516DOPC   C3B17787  13.679  10.135  12.388 -0.1337  0.2128  0.6397
 1516DOPC   C4B17788  13.636  10.600  12.358 -0.0880  0.0657  0.1073
 1517POSM   NC317789  22.181   4.363  12.818 -0.2361  0.0040 -0.1262
 1517POSM   PO417790  22.453   4.378  13.091  0.3777  0.0232 -0.0349
 1517POSM   AM117791  22.325   4.541  13.353 -0.1091  0.1301  0.3672
 1517POSM   AM217792  22.228   4.812  13.450 -0.0130 -0.2311 -0.1947
 1517POSM   T1A17793  22.244   4.531  13.842  0.0370  0.0977 -0.3275
 1517POSM   C2A17794  22.227   4.201  14.186 -0.0914  0.0506  0.4051
 1517POSM   C3A17795  22.291   3.884  14.538  0.2235 -0.1912  0.0333
 1517POSM   C1B17796  21.931   4.768  13.569 -0.1273  0.2386 -0.1831
 1517POSM   D2B17797  21.516   4.640  13.618 -0.3280  0.0566  0.1913
 1517POSM   C3B17798  21.438   4.741  14.062  0.3153 -0.2651  0.1546
 1517POSM   C4B17799  21.686   5.073  14.290  0.0191  0.0431 -0.2920
 1518DOPS   CNO17800  20.416   1.382  12.595 -0.1263 -0.1314  0.1392
 1518DOPS   PO417801  20.376   1.364  12.962  0.1703 -0.2825  0.3785
 1518DOPS   GL117802  20.196   1.602  13.247  0.2623 -0.3079 -0.3110
 1518DOPS   GL217803  20.058   1.384  13.386  0.2776 -0.2204 -0.1493
 1518DOPS   C1A17804  20.413   1.893  13.594 -0.0178  0.4041 -0.0587
 1518DOPS   D2A17805  20.499   2.375  13.578 -0.3074 -0.0407  0.2248
 1518DOPS   C3A17806  20.341   2.587  13.242 -0.3096  0.1445 -0.2734
 1518DOPS   C4A17807  20.038   2.907  13.090 -0.0251  0.2842  0.2046
 1518DOPS   C1B17808  19.879   1.722  13.632  0.0995  0.1159 -0.1093
 1518DOPS   D2B17809  20.016   2.199  13.651  0.0364 -0.2526  0.1869
 1518DOPS   C3B17810  19.752   2.490  13.438 -0.0849 -0.3830 -0.2540
 1518DOPS   C4B17811  19.473   2.788  13.618 -0.1841  0.0218 -0.1125
 1519DOPC   NC317812  17.349   4.808  12.069 -0.0454 -0.3866 -0.1110
 1519DOPC   PO417813  17.309   5.184  12.096  0.1254  0.1663  0.0080
 1519DOPC   GL117814  16.938   5.128  12.181  0.0967  0.1714  0.4824
 1519DOPC   GL217815  16.836   5.349  11.972  0.3759 -0.0399 -0.3180
 1519DOPC   C1A17816  16.467   5.163  12.286  0.1712 -0.2481 -0.1985
 1519DOPC   D2A17817  16.014   5.259  12.150  0.0487 -0.2777  0.0372
 1519DOPC   C3A17818  15.682   5.146  12.443  0.1293 -0.1074 -0.0766
 1519DOPC   C4A17819  15.425   4.835  12.675  0.1803 -0.2099 -0.0436
 1519DOPC   C1B17820  16.494   5.642  12.121 -0.0389  0.1398 -0.2519
 1519DOPC   D2B17821  16.294   5.992  12.410 -0.1058  0.1495 -0.0168
 1519DOPC   C3B17822  16.277   6.155  12.851 -0.3749  0.0787  0.1720
 1519DOPC   C4B17823  16.335   6.211  13.320 -0.0593 -0.2791  0.0031
 1520DOPS   CNO17824  12.103  10.313  12.107 -0.2000  0.0801  0.2438
 1520DOPS   PO417825  11.771  10.154  12.204 -0.1475  0.0227 -0.5399
 1520DOPS   GL117826  11.971  10.158  12.519  0.3543  0.3883  0.2638
 1520DOPS   GL217827  12.064  10.480  12.578 -0.1339 -0.0696  0.2732
 1520DOPS   C1A17828  12.050  10.095  12.948  0.0451  0.1470  0.0426
 1520DOPS   D2A17829  11.920  10.307  13.293 -0.0306  0.0254 -0.0029
 1520DOPS   C3A17830  11.827  10.730  13.340  0.0424  0.0650 -0.3363
 1520DOPS   C4A17831  11.807  11.111  13.513 -0.4739 -0.2687 -0.1373
 1520DOPS   C1B17832  12.175  10.588  12.976 -0.0324 -0.1352 -0.0272
 1520DOPS   D2B17833  12.441  10.394  13.296  0.0421 -0.0518  0.0394
 1520DOPS   C3B17834  12.730  10.630  13.490  0.1492  0.0622  0.2993
 1520DOPS   C4B17835  12.947  10.603  13.814 -0.0647 -0.0111  0.2782
 1521DOPE   NH317836  16.014   8.379  12.189 -0.1639  0.3327  0.0477
 1521DOPE   PO417837  16.027   8.441  11.865 -0.0270  0.2740 -0.1350
 1521DOPE   GL117838  16.132   8.890  11.985 -0.1306  0.0284 -0.1077
 1521DOPE   GL217839  16.312   8.992  11.911 -0.3008 -0.0843 -0.1194
 1521DOPE   C1A17840  16.014   9.365  11.994  0.0930 -0.1348 -0.0962
 1521DOPE   D2A17841  15.798   9.500  12.354  0.1087 -0.2093  0.1500
 1521DOPE   C3A17842  15.700   9.782  12.685 -0.4406 -0.3108 -0.2033
 1521DOPE   C4A17843  15.407  10.114  12.807 -0.4266 -0.1617 -0.5666
 1521DOPE   C1B17844  16.719   8.945  12.022  0.0308  0.0179 -0.1797
 1521DOPE   D2B17845  17.144   8.874  11.795  0.1523 -0.0450  0.1520
 1521DOPE   C3B17846  17.312   9.146  11.461  0.3808 -0.0649 -0.3237
 1521DOPE   C4B17847  17.284   9.533  11.212 -0.0679 -0.0079 -0.0463
 1522DOPE   NH317848  23.264   2.629  12.632  0.1796  0.1141  0.1506
 1522DOPE   PO417849  23.027   2.619  12.828  0.2035  0.0954  0.1027
 1522DOPE   GL117850  22.777   2.533  13.147 -0.2850 -0.4149  0.0289
 1522DOPE   GL217851  22.901   2.296  13.210 -0.0560 -0.2272 -0.1868
 1522DOPE   C1A17852  22.543   2.730  13.524  0.0176  0.1465  0.0423
 1522DOPE   D2A17853  22.244   2.604  13.863  0.0310  0.2532  0.0228
 1522DOPE   C3A17854  22.261   2.469  14.312 -0.1406 -0.4488 -0.1719
 1522DOPE   C4A17855  22.473   2.103  14.510 -0.5586 -0.0314  0.0303
 1522DOPE   C1B17856  22.849   2.150  13.622 -0.1291 -0.1688 -0.0630
 1522DOPE   D2B17857  22.614   2.307  14.019  0.4622 -0.0858  0.0822
 1522DOPE   C3B17858  22.658   2.755  14.077  0.2726  0.1194  0.0349
 1522DOPE   C4B17859  22.728   3.065  14.444  0.1824  0.0225  0.1148
 1523DOPE   NH317860  17.541   4.323  12.646  0.1473 -0.0020  0.1647
 1523DOPE   PO417861  17.765   4.243  12.446  0.0984  0.1728  0.1081
 1523DOPE   GL117862  17.957   3.925  12.644  0.1293 -0.0163 -0.1557
 1523DOPE   GL217863  18.206   3.966  12.582 -0.2204 -0.0033 -0.1438
 1523DOPE   C1A17864  17.870   3.979  13.093 -0.0782 -0.0835  0.1053
 1523DOPE   D2A17865  17.553   4.041  13.411  0.1244 -0.0884 -0.4134
 1523DOPE   C3A17866  17.765   3.777  13.743 -0.0881  0.3337  0.1888
 1523DOPE   C4A17867  17.849   3.763  14.196  0.3075 -0.0085  0.0754
 1523DOPE   C1B17868  18.219   3.564  12.434 -0.0167 -0.0697 -0.1540
 1523DOPE   D2B17869  18.400   3.180  12.190  0.1378 -0.3814 -0.1037
 1523DOPE   C3B17870  18.653   3.067  12.534 -0.0866  0.1979 -0.1198
 1523DOPE   C4B17871  19.064   2.955  12.695 -0.0603 -0.1820  0.0941
 1524DOPC   NC317872  15.866   1.782  12.093 -0.2867  0.0566 -0.3651
 1524DOPC   PO417873  16.184   1.892  11.887  0.3121 -0.2131  0.5498
 1524DOPC   GL117874  16.300   1.598  12.182  0.1378  0.0425 -0.1928
 1524DOPC   GL217875  16.465   1.436  12.025  0.2420 -0.1658 -0.0323
 1524DOPC   C1A17876  16.599   1.359  12.520  0.0734  0.2879 -0.1202
 1524DOPC   D2A17877  16.685   1.080  12.844  0.2928 -0.1216  0.2014
 1524DOPC   C3A17878  16.879   1.351  13.081  0.4643  0.0421 -0.0531
 1524DOPC   C4A17879  17.138   1.669  13.366  0.0199 -0.2433  0.2021
 1524DOPC   C1B17880  16.166   1.188  12.216  0.0427  0.0092 -0.2982
 1524DOPC   D2B17881  15.991   1.107  12.647 -0.1152  0.0614  0.1335
 1524DOPC   C3B17882  16.179   0.801  12.884  0.0094 -0.0955 -0.1986
 1524DOPC   C4B17883  15.867   0.625  13.122  0.0335  0.2260  0.1266
 1525DOPS   CNO17884  22.560   7.414  12.841 -0.1237  0.0304  0.1854
 1525DOPS   PO417885  22.844   7.478  13.063 -0.0299  0.2913  0.2303
 1525DOPS   GL117886  22.811   7.681  13.460 -0.1349 -0.2412 -0.3013
 1525DOPS   GL217887  23.125   7.677  13.453 -0.1830  0.4129  0.0834
 1525DOPS   C1A17888  22.520   7.544  13.822 -0.0310 -0.0168  0.5167
 1525DOPS   D2A17889  22.120   7.278  13.780 -0.2704 -0.0426 -0.3867
 1525DOPS   C3A17890  21.892   7.256  14.212 -0.3141  0.0763 -0.0336
 1525DOPS   C4A17891  21.642   7.228  14.543 -0.0045 -0.1515  0.0866
 1525DOPS   C1B17892  22.928   7.904  13.843 -0.2427 -0.2600 -0.3879
 1525DOPS   D2B17893  22.662   7.851  14.201 -0.0659  0.4274  0.1367
 1525DOPS   C3B17894  22.604   8.254  14.403  0.0171  0.0349  0.4467
 1525DOPS   C4B17895  22.347   8.629  14.412  0.2622  0.0370 -0.1589
 1526DOPS   CNO17896  19.444  10.283  12.029  0.0948  0.2552 -0.0843
 1526DOPS   PO417897  19.327  10.065  12.305 -0.1833 -0.1032 -0.1675
 1526DOPS   GL117898  19.482  10.025  12.668 -0.0156 -0.1961  0.2363
 1526DOPS   GL217899  19.469   9.697  12.754  0.0072  0.0297  0.4092
 1526DOPS   C1A17900  19.691   9.989  13.110 -0.0540 -0.0798  0.0291
 1526DOPS   D2A17901  20.120  10.007  13.311 -0.2013 -0.3016 -0.3440
 1526DOPS   C3A17902  20.411   9.646  13.463  0.2362 -0.0547  0.1425
 1526DOPS   C4A17903  20.413   9.355  13.761 -0.3929 -0.1551 -0.0854
 1526DOPS   C1B17904  19.326   9.652  13.246  0.0345 -0.0764 -0.6123
 1526DOPS   D2B17905  19.305   9.500  13.658 -0.1641  0.1529 -0.1712
 1526DOPS   C3B17906  19.159   9.204  13.918 -0.0645  0.1579 -0.2469
 1526DOPS   C4B17907  18.747   8.948  13.902  0.2209 -0.1756 -0.0853
 1527DOPC   NC317908  18.459   9.358  11.929 -0.2276  0.1973  0.2625
 1527DOPC   PO417909  18.774   9.220  12.138 -0.1238 -0.2533  0.0784
 1527DOPC   GL117910  19.090   9.385  12.264 -0.2176 -0.3240  0.4179
 1527DOPC   GL217911  19.020   9.418  12.537 -0.3224 -0.1964 -0.1679
 1527DOPC   C1A17912  19.532   9.168  12.298 -0.0127 -0.0904 -0.0628
 1527DOPC   D2A17913  19.910   8.970  12.406 -0.3738 -0.2413  0.2701
 1527DOPC   C3A17914  20.082   9.046  12.827  0.1106  0.0667  0.1838
 1527DOPC   C4A17915  20.026   9.130  13.308  0.1492  0.0859  0.2417
 1527DOPC   C1B17916  19.247   9.253  12.946 -0.0134  0.0323  0.0266
 1527DOPC   D2B17917  19.519   9.134  13.294 -0.0687  0.0351  0.1199
 1527DOPC   C3B17918  19.706   9.203  13.731  0.0298  0.1282  0.1947
 1527DOPC   C4B17919  20.087   9.170  14.058  0.1199 -0.1683  0.0603
 1528DOPS   CNO17920  12.780   4.575  11.640  0.0672  0.0346  0.0189
 1528DOPS   PO417921  13.051   4.304  11.608 -0.1213  0.0864  0.1692
 1528DOPS   GL117922  13.047   4.198  12.029  0.4828  0.0135 -0.1217
 1528DOPS   GL217923  13.266   4.404  12.095 -0.0523  0.1808  0.2848
 1528DOPS   C1A17924  13.200   4.144  12.480 -0.2030 -0.2022 -0.1506
 1528DOPS   D2A17925  13.014   4.077  12.868  0.0938  0.0382 -0.3964
 1528DOPS   C3A17926  12.950   4.540  12.987  0.1767  0.0320  0.3621
 1528DOPS   C4A17927  12.920   4.898  13.293 -0.2358 -0.0629 -0.2635
 1528DOPS   C1B17928  13.578   4.452  11.729 -0.2237  0.0459  0.3543
 1528DOPS   D2B17929  13.969   4.526  11.429  0.1315  0.0105  0.0907
 1528DOPS   C3B17930  14.099   4.990  11.508 -0.0745 -0.1757 -0.3677
 1528DOPS   C4B17931  14.345   5.382  11.601  0.0201 -0.1491  0.0754
 1529DOPS   CNO17932  16.079   7.016  12.118  0.1549 -0.0881 -0.1837
 1529DOPS   PO417933  15.873   7.234  12.323  0.2831  0.3072 -0.1248
 1529DOPS   GL117934  15.541   7.076  12.553  0.2095 -0.3558 -0.1140
 1529DOPS   GL217935  15.342   7.238  12.494 -0.2366 -0.1614 -0.2539
 1529DOPS   C1A17936  15.563   6.773  12.939 -0.0960  0.0109 -0.1860
 1529DOPS   D2A17937  15.553   6.484  13.288  0.1996 -0.0335  0.0048
 1529DOPS   C3A17938  15.947   6.276  13.546 -0.4639  0.0732  0.0374
 1529DOPS   C4A17939  16.125   5.854  13.735  0.2464 -0.0036  0.1151
 1529DOPS   C1B17940  15.132   6.962  12.767  0.0309 -0.1701 -0.2235
 1529DOPS   D2B17941  14.820   6.711  13.019  0.1181  0.0804 -0.1515
 1529DOPS   C3B17942  14.397   6.719  12.810 -0.0671 -0.1455  0.1814
 1529DOPS   C4B17943  14.061   6.955  12.553  0.0641  0.0597 -0.1795
 1530DOPC   NC317944  12.261   9.684  11.368  0.0927  0.1037 -0.1614
 1530DOPC   PO417945  12.345   9.271  11.284 -0.0893 -0.1264 -0.0004
 1530DOPC   GL117946  12.553   9.152  11.709  0.2133 -0.1721  0.0181
 1530DOPC   GL217947  12.446   8.939  11.874 -0.0481  0.2197  0.0900
 1530DOPC   C1A17948  13.003   9.082  11.784 -0.0686  0.2267 -0.0452
 1530DOPC   D2A17949  13.379   8.924  12.061  0.0095  0.0237 -0.0808
 1530DOPC   C3A17950  13.565   9.184  12.400 -0.3047 -0.3492 -0.1022
 1530DOPC   C4A17951  13.736   9.100  12.849 -0.0077  0.0128 -0.0507
 1530DOPC   C1B17952  12.496   8.616  11.532 -0.0134  0.0220 -0.0668
 1530DOPC   D2B17953  12.147   8.314  11.521  0.2576  0.2508  0.1675
 1530DOPC   C3B17954  11.776   8.334  11.799  0.2880 -0.2719 -0.3481
 1530DOPC   C4B17955  11.257   8.266  11.827 -0.1054  0.1036 -0.2252
 1531DOPE   NH317956  22.003   0.466  13.130  0.0935 -0.2710 -0.0216
 1531DOPE   PO417957  21.993   0.750  13.235  0.3469 -0.2193 -0.0346
 1531DOPE   GL117958  22.055   0.852  13.639  0.0933 -0.0192  0.0418
 1531DOPE   GL217959  21.942   1.083  13.583  0.0803  0.1624 -0.0895
 1531DOPE   C1A17960  21.860   0.893  14.093  0.0373 -0.0095 -0.0384
 1531DOPE   D2A17961  21.707   0.553  14.358 -0.2482  0.0522 -0.0054
 1531DOPE   C3A17962  21.872   0.106  14.323  0.1283 -0.3681  0.0890
 1531DOPE   C4A17963  22.195  -0.063  13.983  0.1684 -0.1557 -0.2208
 1531DOPE   C1B17964  22.167   1.422  13.795  0.2181 -0.1768 -0.2861
 1531DOPE   D2B17965  22.179   1.634  14.198  0.0292 -0.0777  0.0891
 1531DOPE   C3B17966  21.899   1.332  14.420  0.2182  0.1984 -0.3730
 1531DOPE   C4B17967  21.495   1.107  14.309  0.1046  0.0757 -0.1778
 1532DOPE   NH317968  11.133  11.346  11.788  0.0135 -0.0789  0.0779
 1532DOPE   PO417969  11.269  11.152  11.980 -0.0883  0.0945  0.1930
 1532DOPE   GL117970  11.661  11.295  12.101  0.0835 -0.3713  0.0064
 1532DOPE   GL217971  11.665  11.282  12.332  0.2207 -0.1709 -0.0488
 1532DOPE   C1A17972  11.878  11.737  12.214  0.2220 -0.0313 -0.1773
 1532DOPE   D2A17973  11.865  12.177  12.371  0.1364 -0.0483  0.2348
 1532DOPE   C3A17974  11.823  12.382  12.817 -0.0970  0.1499 -0.2036
 1532DOPE   C4A17975  12.069  12.648  13.154  0.0397  0.3470 -0.1289
 1532DOPE   C1B17976  11.668  11.433  12.783  0.2163 -0.1191 -0.2873
 1532DOPE   D2B17977  11.817  11.584  13.234  0.0226 -0.1554 -0.2903
 1532DOPE   C3B17978  12.249  11.472  13.399 -0.1612  0.0093 -0.1651
 1532DOPE   C4B17979  12.682  11.667  13.389  0.0611 -0.0881 -0.0689
 1533POSM   NC317980  17.051   2.319  12.322  0.0754 -0.3553 -0.0521
 1533POSM   PO417981  16.674   2.443  12.396  0.0254 -0.0957  0.4298
 1533POSM   AM117982  16.799   2.565  12.690 -0.3583  0.2885  0.0749
 1533POSM   AM217983  16.950   2.503  12.917 -0.0036 -0.3933  0.2164
 1533POSM   T1A17984  16.656   2.838  13.124  0.0617  0.0375 -0.4638
 1533POSM   C2A17985  16.446   2.655  13.486 -0.1048 -0.0254  0.0949
 1533POSM   C3A17986  16.154   2.957  13.592  0.1967 -0.1648 -0.1576
 1533POSM   C1B17987  17.248   2.349  13.068  0.0088 -0.2070  0.1562
 1533POSM   D2B17988  17.593   2.154  13.348  0.1491  0.1289  0.1581
 1533POSM   C3B17989  17.774   1.731  13.326  0.1520  0.0386  0.0645
 1533POSM   C4B17990  18.143   1.536  13.568  0.1760  0.0026 -0.1322
 1534DOPS   CNO17991  20.810  10.422  12.556 -0.2262 -0.3445  0.2499
 1534DOPS   PO417992  21.047  10.624  12.375 -0.0083 -0.1213 -0.3110
 1534DOPS   GL117993  21.248  10.451  12.739  0.0091  0.1049 -0.4500
 1534DOPS   GL217994  21.256  10.155  12.581 -0.1798 -0.2123  0.0768
 1534DOPS   C1A17995  21.190  10.165  13.086 -0.0992  0.3897  0.0952
 1534DOPS   D2A17996  20.844   9.969  13.383  0.3469 -0.1007 -0.0227
 1534DOPS   C3A17997  20.507  10.168  13.652  0.1530  0.1223  0.2705
 1534DOPS   C4A17998  20.430  10.287  14.080  0.0276  0.0298 -0.1106
 1534DOPS   C1B17999  21.011   9.800  12.821  0.1434 -0.1516 -0.0650
 1534DOPS   D2B18000  20.946   9.388  12.901 -0.0705  0.2442 -0.1240
 1534DOPS   C3B18001  21.030   9.512  13.307  0.1579 -0.0207 -0.1984
 1534DOPS   C4B18002  21.307   9.763  13.503 -0.2995  0.0315 -0.1263
 1535DOPC   NC318003  19.490   1.349  12.684  0.0051  0.1192 -0.3570
 1535DOPC   PO418004  19.502   1.755  12.529  0.0287 -0.0814  0.0054
 1535DOPC   GL118005  19.177   1.928  12.699 -0.0872 -0.1678 -0.0409
 1535DOPC   GL218006  18.939   1.949  12.482  0.2289 -0.1164 -0.3728
 1535DOPC   C1A18007  19.161   2.148  13.123  0.2982 -0.0311 -0.0517
 1535DOPC   D2A18008  18.861   2.176  13.498  0.0872  0.0895 -0.2190
 1535DOPC   C3A18009  18.566   2.554  13.425 -0.2364  0.1698 -0.0509
 1535DOPC   C4A18010  18.493   3.000  13.545 -0.1518  0.1055 -0.1994
 1535DOPC   C1B18011  18.736   1.925  12.949  0.0165  0.0533 -0.2454
 1535DOPC   D2B18012  18.395   2.117  13.273 -0.0227  0.2358 -0.2988
 1535DOPC   C3B18013  18.122   2.349  13.177 -0.0626  0.1225 -0.0475
 1535DOPC   C4B18014  17.724   2.535  13.053 -0.0558  0.2267  0.0905
 1536DOPE   NH318015  11.635   3.262  11.958 -0.1855  0.2266 -0.1221
 1536DOPE   PO418016  11.521   3.089  11.723  0.0981  0.3086  0.0805
 1536DOPE   GL118017  11.609   2.771  12.015  0.2503 -0.3699  0.2293
 1536DOPE   GL218018  11.445   2.791  12.224 -0.2943  0.2341 -0.2163
 1536DOPE   C1A18019  11.617   2.367  12.238  0.0864  0.0561 -0.3244
 1536DOPE   D2A18020  11.633   2.033  12.495  0.0051  0.2454 -0.1591
 1536DOPE   C3A18021  11.199   2.093  12.732 -0.2565 -0.0069  0.1688
 1536DOPE   C4A18022  10.842   2.194  13.025 -0.1466  0.0290  0.0728
 1536DOPE   C1B18023  11.304   2.887  12.698  0.2024 -0.1703  0.2324
 1536DOPE   D2B18024  11.096   2.558  12.897 -0.2563  0.3488 -0.2682
 1536DOPE   C3B18025  11.158   2.440  13.336  0.1134 -0.1328 -0.0295
 1536DOPE   C4B18026  11.239   2.477  13.793  0.2082  0.2485 -0.0594
 1537DOPS   CNO18027  17.476   3.500  11.910 -0.4258 -0.2276 -0.0832
 1537DOPS   PO418028  17.768   3.275  12.073 -0.3186 -0.0510  0.2546
 1537DOPS   GL118029  17.972   3.107  12.377  0.2745 -0.2110  0.1050
 1537DOPS   GL218030  17.793   2.819  12.276  0.2177  0.0310  0.3061
 1537DOPS   C1A18031  17.893   2.878  12.776 -0.2214 -0.1552  0.2281
 1537DOPS   D2A18032  18.177   2.830  13.142  0.2582  0.1161  0.0014
 1537DOPS   C3A18033  17.977   2.851  13.510 -0.0433  0.3070 -0.4894
 1537DOPS   C4A18034  17.624   3.000  13.801 -0.3992  0.1923  0.0671
 1537DOPS   C1B18035  18.205   2.640  12.387 -0.1429  0.1393  0.0003
 1537DOPS   D2B18036  18.443   2.632  12.745  0.1880  0.3039 -0.3247
 1537DOPS   C3B18037  18.846   2.486  12.903 -0.1089  0.0029 -0.0074
 1537DOPS   C4B18038  19.062   2.748  13.239  0.0468 -0.0567 -0.2126
 1538DOPS   CNO18039  21.601   7.343  12.475  0.2852  0.0343  0.2037
 1538DOPS   PO418040  21.378   7.040  12.395 -0.2770 -0.0534  0.0033
 1538DOPS   GL118041  21.169   7.295  12.660  0.3279 -0.0080 -0.4037
 1538DOPS   GL218042  20.989   7.295  12.976 -0.2905 -0.4860  0.1031
 1538DOPS   C1A18043  21.122   7.737  12.785  0.2323 -0.4188 -0.2144
 1538DOPS   D2A18044  21.184   8.152  12.906 -0.1694  0.1956  0.1385
 1538DOPS   C3A18045  21.013   8.576  12.961 -0.1826  0.0001  0.0474
 1538DOPS   C4A18046  20.620   8.762  12.986 -0.0307 -0.1455  0.3238
 1538DOPS   C1B18047  20.986   7.632  13.232  0.0888  0.0264  0.1003
 1538DOPS   D2B18048  20.827   8.070  13.296  0.3551 -0.2045  0.0430
 1538DOPS   C3B18049  20.644   8.493  13.385  0.0062 -0.1524 -0.1611
 1538DOPS   C4B18050  20.701   8.828  13.620 -0.0101  0.0998  0.4046
 1539DOPE   NH318051  11.328   9.973  12.322  0.1075  0.0363 -0.1649
 1539DOPE   PO418052  11.255  10.281  12.241 -0.0594  0.1267  0.2277
 1539DOPE   GL118053  11.562  10.423  12.525 -0.0572  0.3168  0.1026
 1539DOPE   GL218054  11.523  10.215  12.772  0.1741 -0.3438  0.0293
 1539DOPE   C1A18055  11.739  10.728  12.826 -0.0453  0.0218  0.1264
 1539DOPE   D2A18056  12.029  11.022  13.049 -0.0853 -0.1012 -0.1740
 1539DOPE   C3A18057  12.422  10.960  13.224 -0.0343  0.2343  0.2643
 1539DOPE   C4A18058  12.808  11.148  13.438 -0.1411 -0.0113 -0.3495
 1539DOPE   C1B18059  11.516  10.064  13.227  0.3215  0.1007  0.2822
 1539DOPE   D2B18060  11.379  10.092  13.642  0.0288  0.0073 -0.1732
 1539DOPE   C3B18061  11.074   9.974  13.872  0.1685 -0.1350 -0.1643
 1539DOPE   C4B18062  10.834   9.519  13.980 -0.1199 -0.0784  0.2318
 1540DOPE   NH318063  17.386   6.224  12.586  0.2027  0.0470  0.0222
 1540DOPE   PO418064  17.230   6.390  12.365 -0.2678 -0.1179 -0.0808
 1540DOPE   GL118065  16.972   6.593  12.429  0.1632 -0.5709  0.1243
 1540DOPE   GL218066  16.760   6.459  12.219  0.2587 -0.4064  0.4842
 1540DOPE   C1A18067  16.827   6.960  12.714 -0.0085 -0.1145 -0.0757
 1540DOPE   D2A18068  16.725   7.119  13.138  0.2414  0.1991 -0.0666
 1540DOPE   C3A18069  17.083   7.181  13.442  0.1289  0.0200 -0.2754
 1540DOPE   C4A18070  17.475   7.157  13.675  0.2420 -0.0714 -0.1380
 1540DOPE   C1B18071  16.330   6.528  12.409  0.1577 -0.0045 -0.0927
 1540DOPE   D2B18072  15.903   6.312  12.466 -0.0545  0.0961 -0.2015
 1540DOPE   C3B18073  15.706   6.240  12.894  0.0909 -0.0408  0.1422
 1540DOPE   C4B18074  15.793   5.991  13.229  0.0041 -0.0705 -0.1008
 1541POSM   NC318075  22.418   0.555  12.673  0.1432 -0.3109 -0.0263
 1541POSM   PO418076  22.506   0.432  13.061 -0.2939 -0.1023 -0.1691
 1541POSM   AM118077  22.397   0.591  13.342 -0.0488  0.1664  0.0335
 1541POSM   AM218078  22.469   0.829  13.397  0.2813 -0.0638  0.2851
 1541POSM   T1A18079  22.444   0.728  13.876 -0.0557  0.1028 -0.1803
 1541POSM   C2A18080  22.339   0.931  14.280  0.0999  0.1688 -0.0650
 1541POSM   C3A18081  22.059   0.886  14.629  0.0572 -0.0045  0.0050
 1541POSM   C1B18082  22.695   0.983  13.536  0.1489  0.1689  0.0392
 1541POSM   D2B18083  22.656   1.268  13.897 -0.1150 -0.1116 -0.0727
 1541POSM   C3B18084  22.950   1.013  14.161  0.2559  0.0279 -0.3036
 1541POSM   C4B18085  22.856   0.552  14.167  0.0191 -0.4118 -0.1669
 1542DOPC   NC318086  18.386   4.789  12.561 -0.1435  0.4251  0.0445
 1542DOPC   PO418087  18.392   4.409  12.437  0.0857 -0.2006  0.0667
 1542DOPC   GL118088  18.555   4.074  12.361  0.1691 -0.2243 -0.2222
 1542DOPC   GL218089  18.528   3.832  12.188  0.1091  0.2077 -0.3793
 1542DOPC   C1A18090  18.656   3.807  12.742  0.3029  0.2887 -0.1870
 1542DOPC   D2A18091  18.738   3.555  13.228  0.2470  0.1372 -0.2460
 1542DOPC   C3A18092  18.762   3.833  13.634 -0.1430 -0.0939 -0.1328
 1542DOPC   C4A18093  18.474   4.218  13.793  0.1303  0.1160 -0.0683
 1542DOPC   C1B18094  18.849   3.519  12.365  0.1739  0.1287 -0.0933
 1542DOPC   D2B18095  19.079   3.471  12.789  0.0220 -0.0718 -0.2129
 1542DOPC   C3B18096  19.532   3.638  12.870 -0.0515  0.1161  0.4095
 1542DOPC   C4B18097  19.910   3.467  13.094 -0.3175 -0.0255 -0.0751
 1543DOPC   NC318098  14.272   4.889  12.173  0.0197 -0.0145 -0.1335
 1543DOPC   PO418099  14.426   5.246  12.250 -0.0680  0.1078 -0.0500
 1543DOPC   GL118100  14.620   5.456  12.426  0.3666 -0.0981 -0.1656
 1543DOPC   GL218101  14.904   5.506  12.415 -0.1460  0.1720  0.1336
 1543DOPC   C1A18102  14.663   5.709  12.805 -0.1185  0.1361 -0.0612
 1543DOPC   D2A18103  14.756   5.637  13.246  0.1379  0.0342  0.0767
 1543DOPC   C3A18104  15.070   5.429  13.490 -0.2869 -0.2620  0.2495
 1543DOPC   C4A18105  15.501   5.404  13.760 -0.1879 -0.0815 -0.1355
 1543DOPC   C1B18106  15.378   5.520  12.490  0.2103 -0.3074  0.1651
 1543DOPC   D2B18107  15.689   5.859  12.368 -0.0820 -0.3927  0.1368
 1543DOPC   C3B18108  15.946   5.820  12.737  0.0648  0.1625  0.0543
 1543DOPC   C4B18109  16.190   5.710  13.100  0.1084 -0.1857 -0.1160
 1544DOPE   NH318110  19.995  11.077  12.378 -0.0106  0.0475 -0.0154
 1544DOPE   PO418111  20.262  11.159  12.209  0.0525 -0.0702  0.4144
 1544DOPE   GL118112  20.365  11.184  12.678 -0.0350 -0.1704 -0.0470
 1544DOPE   GL218113  20.427  10.999  12.922 -0.0056 -0.0714  0.2440
 1544DOPE   C1A18114  20.046  11.303  12.979  0.0409 -0.1246  0.1615
 1544DOPE   D2A18115  19.835  11.391  13.404 -0.1750 -0.2108 -0.0616
 1544DOPE   C3A18116  19.873  11.428  13.857 -0.0416  0.0187  0.0515
 1544DOPE   C4A18117  19.576  11.497  14.232 -0.2816 -0.1922 -0.0332
 1544DOPE   C1B18118  20.712  11.063  13.270  0.0125 -0.1512 -0.0859
 1544DOPE   D2B18119  20.787  10.752  13.614 -0.1441  0.0409 -0.2206
 1544DOPE   C3B18120  20.569  10.797  13.951 -0.1371 -0.0377 -0.1596
 1544DOPE   C4B18121  20.316  10.680  14.321 -0.0916  0.5272  0.1699
 1545POSM   NC318122  21.997  11.451  12.003  0.3092 -0.0648  0.1320
 1545POSM   PO418123  22.261  11.229  12.252 -0.1639  0.3460 -0.0367
 1545POSM   AM118124  22.101  11.009  12.450 -0.0673 -0.3862  0.1193
 1545POSM   AM218125  21.978  10.979  12.747 -0.2161  0.3019  0.0428
 1545POSM   T1A18126  21.820  10.640  12.420 -0.2391 -0.0582  0.1374
 1545POSM   C2A18127  21.593  10.221  12.273 -0.3841  0.2034  0.1108
 1545POSM   C3A18128  21.256   9.944  12.178 -0.0381 -0.0384  0.1286
 1545POSM   C1B18129  21.953  11.021  13.099  0.0712 -0.0622  0.1614
 1545POSM   D2B18130  21.877  11.099  13.555  0.1924 -0.1326  0.2454
 1545POSM   C3B18131  21.725  11.525  13.699  0.1968  0.1204 -0.2486
 1545POSM   C4B18132  21.586  11.903  13.560  0.0569  0.0880  0.3420
 1546DOPE   NH318133  17.862   6.260  12.240  0.3431  0.1286  0.2845
 1546DOPE   PO418134  17.869   6.220  12.545  0.4167  0.0496  0.1920
 1546DOPE   GL118135  17.872   6.088  12.931 -0.3597 -0.4368 -0.2090
 1546DOPE   GL218136  17.587   6.061  12.992  0.0368 -0.0747 -0.2871
 1546DOPE   C1A18137  17.866   6.356  13.357 -0.0819  0.0970  0.0721
 1546DOPE   D2A18138  17.696   6.722  13.562  0.0513  0.1528  0.1582
 1546DOPE   C3A18139  17.239   6.686  13.577 -0.3369  0.0689  0.0679
 1546DOPE   C4A18140  16.940   6.588  13.942  0.1581  0.1331 -0.2794
 1546DOPE   C1B18141  17.307   6.200  13.311  0.0930  0.0703 -0.0123
 1546DOPE   D2B18142  17.233   6.220  13.763 -0.2546  0.0643  0.1790
 1546DOPE   C3B18143  17.670   6.320  13.854  0.1173 -0.0149 -0.2780
 1546DOPE   C4B18144  17.967   6.313  14.224  0.0447  0.2165  0.0790
 1547DOPC   NC318145  18.155   5.842  12.292 -0.1224 -0.0302 -0.0026
 1547DOPC   PO418146  18.403   6.097  12.160  0.1018 -0.0187  0.4413
 1547DOPC   GL118147  18.540   5.964  12.536  0.0832  0.3143  0.1660
 1547DOPC   GL218148  18.368   6.183  12.672 -0.0366  0.0902 -0.1831
 1547DOPC   C1A18149  18.955   5.837  12.653  0.2870  0.2978 -0.0976
 1547DOPC   D2A18150  19.261   5.531  12.887 -0.2173  0.1674 -0.1295
 1547DOPC   C3A18151  19.329   5.658  13.322 -0.0076 -0.0305  0.1532
 1547DOPC   C4A18152  19.182   5.533  13.700 -0.2400 -0.1875  0.0997
 1547DOPC   C1B18153  18.603   6.020  13.029  0.3568  0.0966  0.2413
 1547DOPC   D2B18154  18.841   5.641  13.151  0.0786 -0.1225 -0.2700
 1547DOPC   C3B18155  18.805   5.270  13.457 -0.1109  0.1424  0.1066
 1547DOPC   C4B18156  18.882   5.113  13.809  0.0128  0.2893  0.0160
 1548DOPS   CNO18157  14.398   0.383  11.094  0.2266 -0.0201  0.0321
 1548DOPS   PO418158  14.239   0.686  11.276 -0.1754  0.2436  0.0442
 1548DOPS   GL118159  13.989   0.885  11.513  0.3109 -0.0721 -0.2965
 1548DOPS   GL218160  13.705   0.802  11.511 -0.1205 -0.0252 -0.0381
 1548DOPS   C1A18161  13.697   1.220  11.327  0.0199  0.1627 -0.2333
 1548DOPS   D2A18162  13.397   1.547  11.415  0.0175 -0.3305  0.2086
 1548DOPS   C3A18163  13.062   1.338  11.729  0.2908  0.4573  0.1577
 1548DOPS   C4A18164  12.987   1.006  11.963  0.2870  0.0538  0.0375
 1548DOPS   C1B18165  13.559   1.095  11.760  0.0246  0.2697  0.1617
 1548DOPS   D2B18166  13.510   1.338  12.133  0.2148  0.0812 -0.0411
 1548DOPS   C3B18167  12.997   1.444  12.210  0.0125 -0.0831 -0.0398
 1548DOPS   C4B18168  12.720   1.354  12.640 -0.0074  0.0826  0.0933
 1549DOPE   NH318169  15.364   8.964  11.815 -0.1142  0.2907 -0.3286
 1549DOPE   PO418170  15.628   8.798  11.977 -0.2486 -0.3883 -0.1477
 1549DOPE   GL118171  15.341   8.788  12.324 -0.0777  0.0794  0.3031
 1549DOPE   GL218172  15.538   8.863  12.535 -0.2204  0.0298  0.0343
 1549DOPE   C1A18173  14.905   9.077  12.290  0.3927  0.0650  0.1912
 1549DOPE   D2A18174  14.712   9.516  12.385  0.0421 -0.0455 -0.0771
 1549DOPE   C3A18175  14.887   9.918  12.307  0.0487  0.0102 -0.2070
 1549DOPE   C4A18176  14.708  10.321  12.161 -0.0791  0.1844  0.0541
 1549DOPE   C1B18177  15.559   9.260  12.751 -0.1195  0.2034 -0.2229
 1549DOPE   D2B18178  15.794   9.540  13.132  0.1466 -0.1084 -0.4308
 1549DOPE   C3B18179  16.017   9.954  13.008  0.0193  0.0203  0.2122
 1549DOPE   C4B18180  15.869  10.426  12.975 -0.0042  0.0589 -0.0419
 1550DOPE   NH318181  13.465   5.373  12.110 -0.1959 -0.0880 -0.3904
 1550DOPE   PO418182  13.487   5.016  12.131 -0.0209  0.0523  0.0653
 1550DOPE   GL118183  13.672   4.737  12.311 -0.2858 -0.3267  0.1195
 1550DOPE   GL218184  13.572   4.605  12.479 -0.0246 -0.2075 -0.0665
 1550DOPE   C1A18185  14.049   4.475  12.486  0.0251  0.2682  0.1776
 1550DOPE   D2A18186  14.377   4.337  12.251 -0.0942 -0.1622 -0.2256
 1550DOPE   C3A18187  14.485   3.924  12.341 -0.2782  0.0218 -0.1584
 1550DOPE   C4A18188  14.608   3.507  12.636  0.0034 -0.1574  0.0956
 1550DOPE   C1B18189  13.589   4.247  12.821  0.3558  0.3331 -0.1515
 1550DOPE   D2B18190  13.787   3.949  13.076 -0.2929  0.0310 -0.1027
 1550DOPE   C3B18191  13.542   3.653  12.934 -0.3179 -0.3129 -0.3868
 1550DOPE   C4B18192  13.339   3.307  13.073 -0.1764  0.3479  0.0632
 1551DOPS   CNO18193  22.418  11.236  12.716 -0.4075  0.0989 -0.2283
 1551DOPS   PO418194  22.307  11.607  12.641  0.2252 -0.0907  0.0828
 1551DOPS   GL118195  22.327  11.593  13.011 -0.0573  0.4048  0.2174
 1551DOPS   GL218196  22.072  11.517  13.127  0.0523 -0.1684  0.0387
 1551DOPS   C1A18197  22.672  11.472  13.277 -0.0920 -0.2209  0.3742
 1551DOPS   D2A18198  22.599  11.125  13.562 -0.2268 -0.4948  0.2389
 1551DOPS   C3A18199  22.315  10.788  13.371 -0.1082  0.1022 -0.3098
 1551DOPS   C4A18200  22.197  10.550  12.921  0.2617 -0.3154 -0.1820
 1551DOPS   C1B18201  22.285  11.466  13.544  0.2491 -0.2256  0.0322
 1551DOPS   D2B18202  22.217  11.138  13.936 -0.1012  0.0312 -0.1330
 1551DOPS   C3B18203  22.224  11.176  14.373  0.2150  0.1231  0.0320
 1551DOPS   C4B18204  22.342  11.474  14.645 -0.1789 -0.2811  0.0107
 1552DOPE   NH318205  23.407   3.507  13.302  0.2114 -0.1382  0.0533
 1552DOPE   PO418206  23.233   3.247  13.367  0.1398  0.0872 -0.4499
 1552DOPE   GL118207  22.835   3.157  13.562  0.3449  0.1039  0.0728
 1552DOPE   GL218208  22.900   3.185  13.909  0.1309  0.1838  0.1626
 1552DOPE   C1A18209  22.430   3.247  13.863 -0.1339  0.0358 -0.0881
 1552DOPE   D2A18210  22.032   3.155  14.015  0.2575 -0.0889  0.3738
 1552DOPE   C3A18211  21.687   2.874  13.949 -0.2690 -0.0030 -0.1842
 1552DOPE   C4A18212  21.387   2.554  14.081  0.0489  0.0400 -0.2309
 1552DOPE   C1B18213  23.368   3.084  13.981  0.3582  0.0088  0.2223
 1552DOPE   D2B18214  23.589   2.719  13.842  0.0725 -0.0093  0.4167
 1552DOPE   C3B18215  23.491   2.318  13.956  0.3117 -0.1367 -0.0794
 1552DOPE   C4B18216  23.447   1.870  14.055  0.3475 -0.0853 -0.1301
 1553DOPS   CNO18217  17.173  34.092  12.018 -0.0129 -0.0135  0.4156
 1553DOPS   PO418218  17.049  34.468  12.028  0.1611 -0.3864 -0.0571
 1553DOPS   GL118219  17.088  34.822  12.208 -0.0335 -0.2339 -0.0042
 1553DOPS   GL218220  16.981  34.720  12.465  0.1132  0.0227  0.0655
 1553DOPS   C1A18221  16.764  35.172  12.307  0.0187 -0.1298  0.2152
 1553DOPS   D2A18222  16.609  35.600  12.238  0.0809  0.1786 -0.3067
 1553DOPS   C3A18223  16.965  35.893  12.154  0.4394 -0.2239 -0.3329
 1553DOPS   C4A18224  17.131  36.081  12.599 -0.1434 -0.0041 -0.2116
 1553DOPS   C1B18225  16.918  34.838  12.903  0.2311 -0.2383 -0.2415
 1553DOPS   D2B18226  16.996  35.172  13.203 -0.1417  0.0890 -0.0881
 1553DOPS   C3B18227  17.450  35.205  13.235  0.1628 -0.3214  0.2027
 1553DOPS   C4B18228  17.790  35.538  13.195  0.0035  0.2772 -0.1276
 1554DOPS   CNO18229  21.717   0.658  12.544 -0.3410 -0.1945  0.0332
 1554DOPS   PO418230  22.002   0.803  12.705  0.1065  0.0938 -0.0881
 1554DOPS   GL118231  22.286   0.906  12.929  0.1646 -0.4324  0.1416
 1554DOPS   GL218232  22.238   1.166  13.098  0.1732 -0.1157 -0.1270
 1554DOPS   C1A18233  22.701   1.087  13.025  0.2649 -0.1315  0.1001
 1554DOPS   D2A18234  23.132   1.162  13.155  0.1597 -0.2844  0.2439
 1554DOPS   C3A18235  23.135   1.118  13.641 -0.0180  0.1482 -0.0589
 1554DOPS   C4A18236  23.363   1.350  13.928 -0.0151 -0.2225  0.2496
 1554DOPS   C1B18237  22.580   1.450  13.342  0.1934 -0.1473 -0.1069
 1554DOPS   D2B18238  22.507   1.778  13.621  0.0918 -0.1188  0.0620
 1554DOPS   C3B18239  22.283   2.126  13.503  0.2150 -0.4619  0.2088
 1554DOPS   C4B18240  22.357   2.379  13.154  0.0139 -0.2925  0.0688
 1555DOPC   NC318241  15.212   2.309  11.866 -0.1274 -0.0403  0.1085
 1555DOPC   PO418242  15.322   2.008  11.664 -0.1206  0.0448  0.0955
 1555DOPC   GL118243  15.418   1.801  11.990  0.0548  0.6815  0.0917
 1555DOPC   GL218244  15.212   1.886  12.161 -0.1264  0.0474 -0.2796
 1555DOPC   C1A18245  15.594   1.336  12.054 -0.0913  0.0383  0.2927
 1555DOPC   D2A18246  15.657   0.933  12.329 -0.1668  0.0858  0.3450
 1555DOPC   C3A18247  15.438   1.034  12.740  0.0110  0.5125 -0.1480
 1555DOPC   C4A18248  15.406   0.803  13.125 -0.0950 -0.1428 -0.4060
 1555DOPC   C1B18249  15.099   1.496  12.388  0.1960 -0.0771 -0.2973
 1555DOPC   D2B18250  14.857   1.283  12.747 -0.3991 -0.1260 -0.2811
 1555DOPC   C3B18251  14.815   1.593  13.109  0.0140 -0.2074 -0.1143
 1555DOPC   C4B18252  15.117   1.834  13.370  0.0738 -0.2301  0.3657
 1556DOPC   NC318253  22.718   6.979  13.142  0.0234 -0.3823  0.0216
 1556DOPC   PO418254  22.360   7.015  13.005  0.1848  0.0509 -0.2846
 1556DOPC   GL118255  22.297   6.793  13.273 -0.1191 -0.2245 -0.1490
 1556DOPC   GL218256  22.254   6.837  13.544  0.0962 -0.0838 -0.2236
 1556DOPC   C1A18257  22.002   6.435  13.262 -0.2499  0.0737 -0.2720
 1556DOPC   D2A18258  21.577   6.461  13.227  0.0043  0.0195 -0.1494
 1556DOPC   C3A18259  21.503   6.454  13.678  0.3234  0.0239 -0.0309
 1556DOPC   C4A18260  21.880   6.434  13.939 -0.1699 -0.3490  0.1963
 1556DOPC   C1B18261  21.794   6.847  13.574 -0.1367 -0.0564  0.4916
 1556DOPC   D2B18262  21.410   6.919  13.337  0.2133 -0.3736 -0.1035
 1556DOPC   C3B18263  21.044   6.812  13.581 -0.2724  0.0969  0.0413
 1556DOPC   C4B18264  20.728   6.612  13.861  0.0909 -0.1087 -0.3374
 1557DOPE   NH318265  17.174   3.405  12.420 -0.0224 -0.1209  0.3460
 1557DOPE   PO418266  17.394   3.165  12.445 -0.0367  0.2228  0.1396
 1557DOPE   GL118267  17.405   3.159  12.839  0.0764  0.5327 -0.1193
 1557DOPE   GL218268  17.091   3.288  12.941  0.0743  0.0701 -0.0621
 1557DOPE   C1A18269  17.703   3.111  13.151  0.0238 -0.0091  0.0623
 1557DOPE   D2A18270  17.957   3.367  13.462 -0.0746 -0.0897  0.2815
 1557DOPE   C3A18271  18.223   3.687  13.404 -0.0671 -0.0652 -0.1845
 1557DOPE   C4A18272  18.337   4.050  13.109 -0.0484 -0.0991  0.2245
 1557DOPE   C1B18273  16.762   3.480  13.136  0.0526 -0.1010 -0.0281
 1557DOPE   D2B18274  16.487   3.719  13.456 -0.0489  0.0998 -0.1503
 1557DOPE   C3B18275  16.079   3.627  13.654 -0.0970  0.1635 -0.0764
 1557DOPE   C4B18276  15.607   3.701  13.773 -0.0485  0.2051  0.1765
 1558DOPC   NC318277  21.327  11.869  12.690  0.2886 -0.3315 -0.1480
 1558DOPC   PO418278  21.346  11.603  12.381  0.1653  0.1073  0.1014
 1558DOPC   GL118279  21.209  11.333  12.623 -0.1761 -0.0963  0.0824
 1558DOPC   GL218280  21.398  11.182  12.681 -0.0302 -0.3182 -0.0842
 1558DOPC   C1A18281  21.087  11.344  13.069 -0.0512  0.1003 -0.0775
 1558DOPC   D2A18282  20.774  11.526  13.324 -0.0007  0.0973 -0.1878
 1558DOPC   C3A18283  20.902  11.249  13.749  0.0567 -0.1638 -0.0233
 1558DOPC   C4A18284  20.851  11.466  14.180 -0.0862  0.0338  0.0616
 1558DOPC   C1B18285  21.560  10.756  12.819  0.1174 -0.0711 -0.1078
 1558DOPC   D2B18286  21.563  10.456  13.166  0.0569  0.2437  0.1220
 1558DOPC   C3B18287  21.808  10.575  13.444 -0.1007 -0.0423 -0.3203
 1558DOPC   C4B18288  22.024  10.656  13.807  0.1741  0.0392 -0.1881
 1559POSM   NC318289  16.238   3.144  12.087  0.0292  0.1029  0.4049
 1559POSM   PO418290  16.363   2.837  12.293 -0.2677 -0.0083 -0.2205
 1559POSM   AM118291  16.258   2.798  12.610 -0.2840  0.0597  0.1095
 1559POSM   AM218292  16.335   2.573  12.763 -0.3300  0.3432 -0.0725
 1559POSM   T1A18293  16.105   2.825  13.100 -0.1554 -0.1862  0.0088
 1559POSM   C2A18294  15.631   2.835  13.202  0.0235 -0.0404  0.1822
 1559POSM   C3A18295  15.232   2.993  13.282  0.2176  0.5160 -0.2107
 1559POSM   C1B18296  16.466   2.402  13.055  0.1221 -0.1662 -0.1558
 1559POSM   D2B18297  16.772   2.111  13.259  0.0154 -0.1055  0.2569
 1559POSM   C3B18298  17.015   1.983  12.903  0.1888 -0.0239 -0.1350
 1559POSM   C4B18299  17.351   2.047  12.656 -0.0569 -0.1431 -0.1226
 1560DOPC   NC318300  14.989   8.508  12.326  0.1890 -0.0449  0.0171
 1560DOPC   PO418301  15.087   8.554  11.968 -0.0424  0.0148 -0.0050
 1560DOPC   GL118302  15.088   8.164  11.820  0.2171 -0.0402  0.2136
 1560DOPC   GL218303  15.158   7.972  12.045 -0.2123  0.2377  0.0628
 1560DOPC   C1A18304  14.792   7.802  11.706 -0.1490 -0.0082  0.3840
 1560DOPC   D2A18305  14.429   7.540  11.753  0.0366  0.1091 -0.1382
 1560DOPC   C3A18306  13.966   7.684  11.820  0.2528 -0.4185 -0.1578
 1560DOPC   C4A18307  13.678   8.010  11.996 -0.0199  0.0213 -0.1999
 1560DOPC   C1B18308  14.900   7.937  12.453 -0.2412  0.3237  0.3153
 1560DOPC   D2B18309  14.458   7.978  12.585 -0.1685 -0.0522  0.0372
 1560DOPC   C3B18310  14.206   8.248  12.790 -0.1944 -0.1470 -0.1315
 1560DOPC   C4B18311  14.087   8.679  12.673 -0.2949  0.2842  0.2080
 1561DOPC   NC318312  18.608   8.937  12.517  0.1993 -0.5327 -0.0514
 1561DOPC   PO418313  18.381   8.751  12.776 -0.0141  0.1606 -0.1470
 1561DOPC   GL118314  18.478   8.633  13.106  0.4014  0.3178  0.3209
 1561DOPC   GL218315  18.685   8.493  13.174 -0.3597 -0.3105  0.0524
 1561DOPC   C1A18316  18.466   8.517  13.584 -0.1940  0.1085  0.0668
 1561DOPC   D2A18317  18.127   8.508  13.885 -0.1543  0.2495 -0.3340
 1561DOPC   C3A18318  17.667   8.493  13.745  0.3276 -0.1950  0.0305
 1561DOPC   C4A18319  17.245   8.374  13.705  0.2429 -0.0986 -0.1546
 1561DOPC   C1B18320  19.181   8.585  13.146  0.2027  0.1209 -0.2083
 1561DOPC   D2B18321  19.612   8.576  13.285 -0.4289  0.0891  0.2366
 1561DOPC   C3B18322  19.895   8.242  13.415 -0.1836  0.0309  0.1419
 1561DOPC   C4B18323  20.343   8.128  13.393 -0.2193 -0.0679  0.2832
 1562DOPE   NH318324  15.228   8.659  11.436 -0.1953 -0.1971  0.3721
 1562DOPE   PO418325  15.245   8.971  11.339 -0.1088  0.0147 -0.0148
 1562DOPE   GL118326  14.869   9.023  11.499 -0.1516  0.2937 -0.0535
 1562DOPE   GL218327  14.865   8.962  11.728  0.1172 -0.0544 -0.1933
 1562DOPE   C1A18328  14.610   9.387  11.452  0.0217  0.3583  0.0282
 1562DOPE   D2A18329  14.527   9.692  11.773  0.4567  0.1415  0.2197
 1562DOPE   C3A18330  14.302   9.725  12.176  0.0803 -0.2131 -0.2288
 1562DOPE   C4A18331  14.213   9.574  12.628  0.3985 -0.2575  0.4396
 1562DOPE   C1B18332  14.504   9.214  11.932 -0.0175 -0.1208  0.2534
 1562DOPE   D2B18333  14.253   9.076  12.310 -0.1956  0.0153  0.0189
 1562DOPE   C3B18334  14.531   9.042  12.704 -0.1813 -0.3002  0.0992
 1562DOPE   C4B18335  14.734   8.914  13.101 -0.0495 -0.1229  0.1500
 1563DOPE   NH318336  12.908  10.122  11.847 -0.1807 -0.1574  0.1651
 1563DOPE   PO418337  13.089  10.167  11.556 -0.1441  0.1327  0.0957
 1563DOPE   GL118338  13.391  10.045  11.880 -0.2447  0.1508  0.1961
 1563DOPE   GL218339  13.275   9.973  12.143 -0.1824  0.1328  0.2310
 1563DOPE   C1A18340  13.810  10.192  11.938  0.1684 -0.1610  0.2140
 1563DOPE   D2A18341  14.093  10.433  12.233  0.0555  0.0545 -0.4107
 1563DOPE   C3A18342  14.408  10.106  12.509 -0.3022  0.2874  0.2048
 1563DOPE   C4A18343  14.386  10.033  12.928 -0.1149  0.3999  0.0355
 1563DOPE   C1B18344  13.238  10.433  12.142 -0.0660 -0.1534 -0.0012
 1563DOPE   D2B18345  13.041  10.813  12.205  0.0824  0.1395  0.4136
 1563DOPE   C3B18346  13.173  11.073  12.587  0.1588  0.1276 -0.2299
 1563DOPE   C4B18347  13.285  11.456  12.682 -0.0488 -0.2189 -0.5084
 1564DOPC   NC318348  10.682   6.743  12.300 -0.1729 -0.1591  0.3326
 1564DOPC   PO418349  10.911   7.002  12.456  0.3227  0.1317 -0.0824
 1564DOPC   GL118350  11.056   6.758  12.645 -0.0256 -0.3381 -0.1264
 1564DOPC   GL218351  10.939   6.508  12.681  0.0408  0.1010  0.0538
 1564DOPC   C1A18352  11.362   6.661  12.982  0.0837 -0.2499  0.2070
 1564DOPC   D2A18353  11.833   6.655  13.129  0.1139 -0.0655  0.1056
 1564DOPC   C3A18354  11.763   6.749  13.525  0.4019 -0.2152 -0.5079
 1564DOPC   C4A18355  11.623   6.847  14.005  0.2795 -0.2190 -0.1739
 1564DOPC   C1B18356  10.823   6.246  13.101 -0.0731 -0.1342 -0.1485
 1564DOPC   D2B18357  11.027   5.905  13.203  0.1001  0.1585 -0.0727
 1564DOPC   C3B18358  10.773   5.489  13.207 -0.1493  0.0671 -0.0772
 1564DOPC   C4B18359  10.693   5.123  13.523 -0.0585  0.0311 -0.1152
 1565DOPE   NH318360  23.029   7.243  12.633  0.0841  0.0306  0.3329
 1565DOPE   PO418361  22.827   6.981  12.649 -0.0361  0.3022  0.2433
 1565DOPE   GL118362  22.685   6.634  12.858 -0.1222  0.0198 -0.1008
 1565DOPE   GL218363  22.386   6.546  12.719  0.0072 -0.0244 -0.2830
 1565DOPE   C1A18364  22.521   6.434  13.224 -0.0894  0.2495 -0.3939
 1565DOPE   D2A18365  22.396   6.392  13.638 -0.1967  0.0972  0.0582
 1565DOPE   C3A18366  22.751   6.379  13.927 -0.1818  0.1185 -0.1214
 1565DOPE   C4A18367  23.055   6.276  14.252 -0.3851 -0.2354  0.1189
 1565DOPE   C1B18368  22.024   6.349  12.750 -0.0861  0.0435  0.1027
 1565DOPE   D2B18369  21.678   6.083  12.807  0.1925 -0.2667 -0.1305
 1565DOPE   C3B18370  21.486   5.931  12.356  0.3953  0.2113 -0.3367
 1565DOPE   C4B18371  21.139   6.008  12.019  0.1083 -0.0072  0.3461
 1566DOPS   CNO18372  18.313   9.914  11.906  0.1103 -0.0807  0.1234
 1566DOPS   PO418373  18.180   9.715  12.171 -0.2560  0.3809  0.2133
 1566DOPS   GL118374  18.044   9.880  12.388  0.4585  0.2400 -0.0527
 1566DOPS   GL218375  17.862   9.983  12.576 -0.1930  0.2424  0.0204
 1566DOPS   C1A18376  18.310   9.908  12.800 -0.1839 -0.2800 -0.3633
 1566DOPS   D2A18377  18.225   9.769  13.246 -0.1608 -0.0998  0.1111
 1566DOPS   C3A18378  18.042   9.734  13.691  0.1745 -0.0458  0.1949
 1566DOPS   C4A18379  17.973   9.827  14.144 -0.0266 -0.2343 -0.0892
 1566DOPS   C1B18380  17.902  10.100  13.027  0.2015 -0.0672  0.0452
 1566DOPS   D2B18381  18.103  10.299  13.414 -0.0339 -0.0347 -0.0911
 1566DOPS   C3B18382  17.807  10.560  13.653 -0.0443 -0.0153  0.2601
 1566DOPS   C4B18383  17.779  11.001  13.789 -0.1952  0.0753 -0.2499
 1567DOPC   NC318384  14.464  10.939  10.857 -0.1413  0.4335  0.0470
 1567DOPC   PO418385  14.747  10.674  10.996 -0.1905 -0.0274  0.1613
 1567DOPC   GL118386  14.716  10.454  11.360 -0.2334 -0.0657 -0.2307
 1567DOPC   GL218387  14.940  10.578  11.544  0.0690  0.0187  0.0542
 1567DOPC   C1A18388  14.918  10.082  11.530 -0.0149 -0.0286  0.2463
 1567DOPC   D2A18389  15.118   9.623  11.429  0.0864  0.1895 -0.1800
 1567DOPC   C3A18390  15.034   9.432  11.880 -0.1453  0.0844  0.1747
 1567DOPC   C4A18391  15.364   9.334  12.246  0.0086  0.1511 -0.2597
 1567DOPC   C1B18392  15.368  10.579  11.722  0.1348  0.2260  0.2456
 1567DOPC   D2B18393  15.752  10.580  11.865 -0.0576 -0.1770  0.3182
 1567DOPC   C3B18394  15.663  10.721  12.322 -0.1318  0.0046  0.3357
 1567DOPC   C4B18395  15.538  10.700  12.726  0.0290  0.0516  0.0827
 1568POSM   NC318396  20.690   6.758  12.636 -0.0086 -0.1695 -0.0763
 1568POSM   PO418397  20.521   6.420  12.508 -0.0464  0.2438  0.0875
 1568POSM   AM118398  20.448   6.337  12.836  0.3012  0.0214 -0.0569
 1568POSM   AM218399  20.581   6.275  13.081 -0.0196  0.1258 -0.1146
 1568POSM   T1A18400  20.067   6.324  13.251 -0.3269 -0.0116  0.1374
 1568POSM   C2A18401  19.678   6.294  13.449  0.1055 -0.1241 -0.2589
 1568POSM   C3A18402  19.518   6.011  13.765 -0.1145  0.0863  0.4240
 1568POSM   C1B18403  20.618   6.149  13.396  0.0627  0.0152 -0.2107
 1568POSM   D2B18404  20.617   6.009  13.839 -0.0601  0.3433 -0.0717
 1568POSM   C3B18405  20.415   5.991  14.283  0.1869  0.1484 -0.0557
 1568POSM   C4B18406  20.125   6.112  14.638  0.0485 -0.3140 -0.1184
 1569DOPC   NC318407  13.276   6.457  12.084 -0.4276 -0.1603 -0.2529
 1569DOPC   PO418408  12.912   6.373  12.102 -0.0840  0.1220 -0.0565
 1569DOPC   GL118409  12.961   6.072  12.350 -0.3610 -0.1697  0.1404
 1569DOPC   GL218410  12.679   6.004  12.393  0.0856  0.0757 -0.1481
 1569DOPC   C1A18411  12.926   6.266  12.764  0.0098 -0.0235  0.0686
 1569DOPC   D2A18412  12.819   6.426  13.196  0.2386 -0.1324 -0.1895
 1569DOPC   C3A18413  12.526   6.274  13.573  0.0234  0.1021  0.1432
 1569DOPC   C4A18414  12.506   6.131  14.004 -0.0352  0.0732 -0.1203
 1569DOPC   C1B18415  12.540   5.881  12.796 -0.2600  0.0299 -0.2273
 1569DOPC   D2B18416  12.352   5.890  13.265 -0.3144 -0.0047 -0.1492
 1569DOPC   C3B18417  12.378   5.438  13.433 -0.0195  0.0531  0.0218
 1569DOPC   C4B18418  12.541   5.076  13.657 -0.1248  0.2412 -0.2011
 1570POSM   NC318419  17.404   8.583  12.141 -0.0760  0.1737 -0.4698
 1570POSM   PO418420  17.050   8.369  12.044 -0.1301 -0.0264 -0.0133
 1570POSM   AM118421  17.025   8.347  12.395 -0.1002 -0.2453  0.1137
 1570POSM   AM218422  17.254   8.360  12.575  0.1580  0.2522  0.0769
 1570POSM   T1A18423  16.784   8.372  12.781  0.0160 -0.4703  0.0972
 1570POSM   C2A18424  16.452   8.518  13.026 -0.0942  0.2814  0.0172
 1570POSM   C3A18425  16.005   8.366  13.083  0.1069  0.3332 -0.1247
 1570POSM   C1B18426  17.285   8.487  12.874  0.2730  0.2201 -0.0255
 1570POSM   D2B18427  17.509   8.472  13.263  0.0488 -0.1597  0.1046
 1570POSM   C3B18428  17.548   8.049  13.414 -0.1893 -0.2617 -0.1716
 1570POSM   C4B18429  17.924   7.739  13.330  0.2039  0.2048 -0.0588
 1571DOPE   NH318430  13.694   5.686  12.445  0.0470  0.0114 -0.2263
 1571DOPE   PO418431  13.951   5.815  12.624 -0.1058  0.1190 -0.1397
 1571DOPE   GL118432  14.030   6.200  12.590 -0.0216  0.1586 -0.0470
 1571DOPE   GL218433  14.355   6.142  12.606 -0.2378  0.1324  0.0863
 1571DOPE   C1A18434  13.841   6.574  12.789 -0.1306 -0.1458 -0.0657
 1571DOPE   D2A18435  13.560   6.976  12.851 -0.2263 -0.4630  0.2506
 1571DOPE   C3A18436  13.507   7.182  12.419  0.0776 -0.0084  0.0886
 1571DOPE   C4A18437  13.307   6.989  12.093 -0.2129 -0.1990  0.1887
 1571DOPE   C1B18438  14.662   6.192  12.935  0.0880 -0.2353 -0.3870
 1571DOPE   D2B18439  14.696   6.240  13.396  0.2941 -0.1256 -0.2483
 1571DOPE   C3B18440  14.522   6.635  13.575  0.2309  0.1997 -0.0800
 1571DOPE   C4B18441  14.253   6.802  13.287 -0.0047  0.0810  0.1029
 1572DOPE   NH318442  21.081   6.606  12.313  0.1766  0.0211 -0.1232
 1572DOPE   PO418443  21.046   6.397  12.515 -0.0015 -0.1918  0.1756
 1572DOPE   GL118444  21.245   6.285  12.749  0.0675  0.0493  0.0214
 1572DOPE   GL218445  21.092   6.241  12.982  0.0293  0.0571  0.0026
 1572DOPE   C1A18446  21.264   5.821  12.854  0.1552  0.1840 -0.0550
 1572DOPE   D2A18447  20.919   5.501  12.898 -0.0191 -0.1284 -0.2293
 1572DOPE   C3A18448  20.504   5.559  13.160  0.0867  0.3959  0.0712
 1572DOPE   C4A18449  20.068   5.434  13.267  0.3887  0.0888 -0.1799
 1572DOPE   C1B18450  20.953   5.856  13.241  0.4704 -0.2034  0.0684
 1572DOPE   D2B18451  20.965   5.391  13.369 -0.1167  0.3131 -0.0762
 1572DOPE   C3B18452  20.831   5.449  13.853 -0.0679  0.0626 -0.2054
 1572DOPE   C4B18453  20.527   5.518  14.190 -0.2927  0.1238 -0.2955
 1573DOPS   CNO18454  18.414  33.609  12.342  0.1373 -0.2255  0.4722
 1573DOPS   PO418455  18.459  33.690  12.691 -0.2772  0.1496 -0.3315
 1573DOPS   GL118456  18.850  33.771  12.868  0.2299 -0.1460 -0.1887
 1573DOPS   GL218457  18.686  34.038  12.904 -0.2779 -0.2420  0.3382
 1573DOPS   C1A18458  19.039  33.712  13.256  0.0444 -0.2693  0.0047
 1573DOPS   D2A18459  19.327  33.536  13.505  0.0731 -0.0238 -0.0591
 1573DOPS   C3A18460  19.694  33.818  13.685 -0.2632 -0.0781  0.0816
 1573DOPS   C4A18461  20.057  34.021  13.537 -0.0076  0.0990 -0.0683
 1573DOPS   C1B18462  18.819  34.290  13.286 -0.0180 -0.1230 -0.0063
 1573DOPS   D2B18463  18.967  34.415  13.673  0.0588  0.0828 -0.1371
 1573DOPS   C3B18464  19.398  34.219  13.919 -0.0900  0.0019 -0.0162
 1573DOPS   C4B18465  19.845  34.199  14.031 -0.1654  0.1218  0.0713
 1574DOPE   NH318466  13.065   0.167  11.108  0.0179 -0.2151 -0.3252
 1574DOPE   PO418467  12.899   0.106  11.404 -0.1339  0.0423 -0.0907
 1574DOPE   GL118468  12.740   0.480  11.407 -0.0321  0.0352  0.1899
 1574DOPE   GL218469  12.895   0.593  11.226 -0.0687  0.2448  0.3076
 1574DOPE   C1A18470  12.377   0.622  11.707 -0.3363  0.0747  0.1697
 1574DOPE   D2A18471  11.966   0.632  11.957 -0.1184  0.3792 -0.2032
 1574DOPE   C3A18472  11.828   0.945  12.260  0.2043 -0.1375  0.0055
 1574DOPE   C4A18473  11.611   1.163  12.581 -0.1685 -0.0166 -0.0668
 1574DOPE   C1B18474  12.776   0.882  11.576  0.1700 -0.1122  0.0082
 1574DOPE   D2B18475  12.554   1.300  11.598  0.0485 -0.0091  0.3684
 1574DOPE   C3B18476  12.478   1.350  12.078 -0.1657 -0.3274  0.1407
 1574DOPE   C4B18477  12.349   1.656  12.453  0.0572  0.1517  0.1219
 1575DOPE   NH318478  21.094   0.814  13.163  0.0907  0.1260 -0.0340
 1575DOPE   PO418479  21.062   0.745  13.485  0.3166  0.1043  0.0042
 1575DOPE   GL118480  20.936   0.978  13.769  0.2566  0.2909  0.2501
 1575DOPE   GL218481  20.696   1.062  13.765 -0.1841  0.0074  0.0271
 1575DOPE   C1A18482  21.184   1.266  13.964 -0.0062  0.2175  0.1170
 1575DOPE   D2A18483  21.249   1.672  14.113  0.2132 -0.3394  0.0133
 1575DOPE   C3A18484  21.714   1.864  14.129 -0.1796  0.0616 -0.1530
 1575DOPE   C4A18485  21.999   1.951  14.519  0.0048  0.0028  0.2362
 1575DOPE   C1B18486  20.570   0.950  14.192  0.0418  0.2509 -0.0691
 1575DOPE   D2B18487  20.250   0.864  14.519 -0.1624  0.2625 -0.1737
 1575DOPE   C3B18488  19.879   0.603  14.532  0.1843 -0.0683 -0.0452
 1575DOPE   C4B18489  19.608   0.240  14.629 -0.0574 -0.2507 -0.1409
 1576POSM   NC318490  23.328   8.200  12.678  0.2178 -0.1242 -0.0322
 1576POSM   PO418491  22.943   8.242  12.642 -0.0247  0.1776 -0.2352
 1576POSM   AM118492  22.971   8.545  12.787  0.0330  0.1136  0.0936
 1576POSM   AM218493  23.152   8.731  12.917  0.0440 -0.1142  0.2683
 1576POSM   T1A18494  22.674   8.930  12.794 -0.1000 -0.0433  0.0151
 1576POSM   C2A18495  22.479   9.324  12.936 -0.1399 -0.0690  0.2088
 1576POSM   C3A18496  22.427   9.690  13.210  0.1494 -0.0915 -0.0572
 1576POSM   C1B18497  23.078   8.876  13.213 -0.2934 -0.2487  0.0309
 1576POSM   D2B18498  23.029   9.326  13.284  0.1468 -0.2605  0.2535
 1576POSM   C3B18499  22.900   9.618  12.943 -0.1443 -0.0167  0.0743
 1576POSM   C4B18500  22.694   9.974  12.773  0.3145  0.1471  0.1395
 1577DOPC   NC318501  22.155   7.822  13.037  0.1236  0.1582  0.1529
 1577DOPC   PO418502  22.482   7.878  13.264 -0.2957 -0.2834 -0.2356
 1577DOPC   GL118503  22.496   8.112  13.517  0.1113  0.3839 -0.1566
 1577DOPC   GL218504  22.812   8.287  13.462  0.0158  0.1368  0.0099
 1577DOPC   C1A18505  22.237   8.504  13.489  0.2460 -0.2133  0.0909
 1577DOPC   D2A18506  21.953   8.764  13.710 -0.0913 -0.0339 -0.0892
 1577DOPC   C3A18507  21.548   8.565  13.501  0.1913 -0.1534  0.0799
 1577DOPC   C4A18508  21.112   8.413  13.507 -0.1215 -0.3270  0.2129
 1577DOPC   C1B18509  22.888   8.786  13.704  0.3354  0.3790 -0.0271
 1577DOPC   D2B18510  22.874   9.174  13.927  0.0732  0.1383  0.0126
 1577DOPC   C3B18511  23.292   9.324  13.788 -0.1153  0.2191  0.2082
 1577DOPC   C4B18512  23.675   9.173  13.657  0.1524  0.0788  0.2669
 1578DOPC   NC318513  15.001   0.290  10.866  0.3143  0.0121 -0.0387
 1578DOPC   PO418514  15.044  -0.024  11.051 -0.1665  0.0316 -0.2463
 1578DOPC   GL118515  15.270   0.066  11.332 -0.0279 -0.0822 -0.0037
 1578DOPC   GL218516  15.211   0.011  11.569  0.0929 -0.1429 -0.1240
 1578DOPC   C1A18517  15.709   0.110  11.439 -0.0874  0.0012 -0.2819
 1578DOPC   D2A18518  16.038  -0.066  11.682 -0.0242 -0.0058 -0.0180
 1578DOPC   C3A18519  15.991   0.153  12.105  0.3028 -0.0471  0.0972
 1578DOPC   C4A18520  15.746   0.478  12.406 -0.0056 -0.0023  0.0586
 1578DOPC   C1B18521  15.403  -0.152  11.988 -0.0110  0.0818 -0.2894
 1578DOPC   D2B18522  15.455  -0.195  12.432 -0.0800  0.0863 -0.0835
 1578DOPC   C3B18523  15.857  -0.125  12.662 -0.0341 -0.0577 -0.0181
 1578DOPC   C4B18524  16.119   0.195  12.780  0.0797 -0.0589 -0.0400
 1579DOPE   NH318525  14.864   0.485  11.378  0.2109 -0.0003 -0.2065
 1579DOPE   PO418526  15.163   0.532  11.302  0.0066 -0.2001  0.2975
 1579DOPE   GL118527  15.365   0.556  11.604  0.2994  0.0964 -0.0681
 1579DOPE   GL218528  15.115   0.574  11.818  0.2725 -0.0592 -0.0302
 1579DOPE   C1A18529  15.791   0.612  11.907 -0.0572  0.0261 -0.1648
 1579DOPE   D2A18530  16.199   0.713  12.030 -0.2431  0.1421 -0.0173
 1579DOPE   C3A18531  16.330   0.610  12.486  0.0239  0.1532  0.1220
 1579DOPE   C4A18532  16.579   0.447  12.812 -0.4022  0.1448 -0.1444
 1579DOPE   C1B18533  15.174   0.694  12.273 -0.0432 -0.0634  0.2073
 1579DOPE   D2B18534  14.978   0.777  12.722  0.1329 -0.4094 -0.1192
 1579DOPE   C3B18535  14.639   0.540  12.881  0.1915  0.1758 -0.1463
 1579DOPE   C4B18536  14.353   0.388  13.265 -0.0607  0.0994  0.1754
 1580DOPE   NH318537  19.051   4.130  12.589  0.0734 -0.0232  0.1866
 1580DOPE   PO418538  18.913   4.382  12.446  0.0776  0.3063  0.2538
 1580DOPE   GL118539  18.729   4.302  12.902  0.1660  0.7915  0.2878
 1580DOPE   GL218540  18.503   4.527  12.999 -0.1385 -0.0394 -0.0482
 1580DOPE   C1A18541  19.022   3.919  13.084  0.2284 -0.0156  0.0179
 1580DOPE   D2A18542  19.288   3.598  13.332 -0.0135  0.0005  0.1889
 1580DOPE   C3A18543  19.630   3.375  13.612 -0.0400  0.1131 -0.0208
 1580DOPE   C4A18544  20.052   3.127  13.518  0.2240  0.2209  0.1035
 1580DOPE   C1B18545  18.691   4.306  13.389 -0.0157  0.1616  0.2210
 1580DOPE   D2B18546  19.133   4.185  13.546 -0.1785  0.3288  0.2047
 1580DOPE   C3B18547  19.419   3.904  13.742 -0.3281 -0.4093 -0.3262
 1580DOPE   C4B18548  19.730   3.749  14.076 -0.1830 -0.1139 -0.0989
 1581POSM   NC318549  17.671  34.341  12.007  0.0502 -0.1428 -0.3367
 1581POSM   PO418550  17.932  34.458  12.294  0.1897  0.2055  0.2835
 1581POSM   AM118551  17.727  34.708  12.315 -0.2146 -0.1896 -0.0455
 1581POSM   AM218552  17.586  34.855  12.556 -0.0416  0.2778 -0.1130
 1581POSM   T1A18553  17.706  35.233  12.181 -0.3863 -0.0609 -0.0264
 1581POSM   C2A18554  17.371  35.492  11.999  0.1023 -0.2764 -0.1423
 1581POSM   C3A18555  17.084  35.693  11.717 -0.1443 -0.3277 -0.0093
 1581POSM   C1B18556  17.280  35.065  12.593 -0.0665 -0.1079  0.0236
 1581POSM   D2B18557  17.011  35.367  12.754 -0.0426  0.1461  0.0069
 1581POSM   C3B18558  17.214  35.615  13.102 -0.0394  0.2811  0.1352
 1581POSM   C4B18559  17.393  36.024  13.081 -0.1116 -0.0882  0.3345
 1582POSM   NC318560  18.684   5.637  12.188 -0.2308  0.1387  0.0596
 1582POSM   PO418561  18.462   5.355  12.347  0.1378 -0.1861 -0.2979
 1582POSM   AM118562  18.413   5.287  12.687  0.0274  0.1785  0.1539
 1582POSM   AM218563  18.327   5.339  12.956 -0.0195 -0.3230 -0.1760
 1582POSM   T1A18564  18.651   4.996  13.072 -0.2298  0.3166  0.2033
 1582POSM   C2A18565  18.485   4.748  13.503 -0.0148 -0.2222  0.1681
 1582POSM   C3A18566  18.586   4.689  13.981 -0.0601 -0.0490  0.0275
 1582POSM   C1B18567  18.294   5.294  13.269 -0.2900  0.1444 -0.1150
 1582POSM   D2B18568  18.092   5.555  13.642  0.1238 -0.0057 -0.2761
 1582POSM   C3B18569  18.297   5.432  14.005 -0.1223 -0.0722  0.2578
 1582POSM   C4B18570  18.580   5.132  14.223  0.1284  0.0314 -0.0579
 1583POSM   NC318571  12.452  10.161  12.490 -0.3830 -0.0055  0.0537
 1583POSM   PO418572  12.635   9.960  12.191 -0.0292 -0.0717 -0.1328
 1583POSM   AM118573  12.637   9.686  12.349  0.0979 -0.3043 -0.1722
 1583POSM   AM218574  12.697   9.613  12.612  0.0381 -0.2542 -0.1329
 1583POSM   T1A18575  12.756   9.170  12.453 -0.0221  0.1141  0.0652
 1583POSM   C2A18576  12.866   8.753  12.234  0.0971 -0.2462 -0.0372
 1583POSM   C3A18577  12.892   8.282  12.285  0.0335 -0.2577 -0.1114
 1583POSM   C1B18578  12.577   9.385  12.831 -0.3373 -0.1739 -0.0762
 1583POSM   D2B18579  12.452   9.173  13.237 -0.0734  0.3535  0.0328
 1583POSM   C3B18580  12.251   9.395  13.618  0.1903 -0.3579 -0.0815
 1583POSM   C4B18581  12.113   9.695  13.928 -0.2020 -0.1650  0.0646
 1584POSM   NC318582  22.979   3.259  12.507  0.1143  0.0601  0.0766
 1584POSM   PO418583  22.862   2.922  12.495  0.1127 -0.1921  0.1217
 1584POSM   AM118584  22.597   2.798  12.669 -0.2624  0.2727 -0.0982
 1584POSM   AM218585  22.462   2.817  12.900 -0.0382 -0.2083 -0.2571
 1584POSM   T1A18586  22.207   2.467  12.701  0.0663 -0.1046 -0.2778
 1584POSM   C2A18587  22.165   2.021  12.718 -0.1812 -0.1083  0.1748
 1584POSM   C3A18588  22.083   1.547  12.787 -0.2277  0.0784  0.1710
 1584POSM   C1B18589  22.186   2.941  12.995  0.2037 -0.4000  0.5655
 1584POSM   D2B18590  21.748   3.082  13.009  0.0311 -0.1301  0.1308
 1584POSM   C3B18591  21.656   3.466  13.226  0.0191 -0.0305 -0.0780
 1584POSM   C4B18592  21.558   3.843  13.578  0.0216 -0.0435  0.1762
 1585DOPC   NC318593  15.924   6.795  12.578 -0.0327 -0.2447  0.0110
 1585DOPC   PO418594  15.646   6.703  12.319  0.1355 -0.0096  0.2270
 1585DOPC   GL118595  15.418   6.293  12.480  0.0736 -0.0617 -0.3412
 1585DOPC   GL218596  15.264   6.412  12.756 -0.3688 -0.1398  0.0650
 1585DOPC   C1A18597  15.236   5.937  12.689  0.1877  0.0212 -0.2339
 1585DOPC   D2A18598  15.157   5.615  12.998 -0.3422 -0.0027 -0.0312
 1585DOPC   C3A18599  15.269   5.162  13.031  0.0015 -0.3499  0.0478
 1585DOPC   C4A18600  15.509   4.907  13.234 -0.0053 -0.3952  0.3670
 1585DOPC   C1B18601  15.157   6.253  13.161  0.0552 -0.2515  0.2402
 1585DOPC   D2B18602  15.230   5.920  13.439 -0.1171  0.2711  0.3872
 1585DOPC   C3B18603  15.642   5.877  13.669 -0.2074 -0.0412 -0.1057
 1585DOPC   C4B18604  15.691   6.040  14.073 -0.1322 -0.0740 -0.0332
 1586DOPC   NC318605  20.327   0.951  13.327 -0.0262 -0.0862  0.0186
 1586DOPC   PO418606  20.662   1.016  13.230 -0.0311  0.1585  0.0212
 1586DOPC   GL118607  20.529   1.359  13.439  0.5019  0.5447  0.0855
 1586DOPC   GL218608  20.652   1.520  13.331 -0.0388 -0.2705 -0.3936
 1586DOPC   C1A18609  20.373   1.481  13.838 -0.1027  0.1561  0.0658
 1586DOPC   D2A18610  20.198   1.865  14.032  0.0820 -0.0862 -0.0700
 1586DOPC   C3A18611  20.472   2.277  14.112 -0.2501 -0.1045  0.3366
 1586DOPC   C4A18612  20.814   2.646  14.209 -0.2747  0.2340 -0.0836
 1586DOPC   C1B18613  20.882   1.583  13.767  0.3241 -0.1979  0.1446
 1586DOPC   D2B18614  20.712   1.493  14.181  0.2121  0.3823 -0.4751
 1586DOPC   C3B18615  20.253   1.424  14.333  0.0042  0.2642 -0.1901
 1586DOPC   C4B18616  19.810   1.211  14.405  0.0555  0.1735 -0.1140
 1587DOPE   NH318617  18.595   7.552  12.124  0.0534 -0.2159  0.0734
 1587DOPE   PO418618  18.460   7.337  11.934  0.3225 -0.2069 -0.2635
 1587DOPE   GL118619  18.779   7.129  12.187  0.2161  0.1229 -0.1294
 1587DOPE   GL218620  19.038   7.231  12.033 -0.0819 -0.1587 -0.1116
 1587DOPE   C1A18621  19.131   6.827  12.276  0.1964  0.0861 -0.0763
 1587DOPE   D2A18622  19.582   6.799  12.249  0.1298  0.1441 -0.0757
 1587DOPE   C3A18623  19.877   6.720  12.565 -0.1232  0.0000  0.1396
 1587DOPE   C4A18624  19.851   6.308  12.785 -0.3162  0.1679 -0.1781
 1587DOPE   C1B18625  19.405   7.324  12.367  0.2247  0.1926  0.1577
 1587DOPE   D2B18626  19.669   7.513  12.736  0.2150  0.0429  0.5586
 1587DOPE   C3B18627  20.063   7.332  12.945 -0.0385 -0.0529  0.2050
 1587DOPE   C4B18628  20.163   6.834  12.997 -0.0598  0.0362 -0.1434
 1588DOPC   NC318629  18.193   6.596  12.475  0.0199  0.0788  0.1697
 1588DOPC   PO418630  18.513   6.732  12.229 -0.1737 -0.2896  0.2076
 1588DOPC   GL118631  18.735   6.611  12.538 -0.0749  0.2656 -0.2211
 1588DOPC   GL218632  18.620   6.752  12.785  0.2407  0.0064 -0.2860
 1588DOPC   C1A18633  18.951   6.384  12.905  0.1602 -0.2375  0.1828
 1588DOPC   D2A18634  19.133   6.094  13.220 -0.0869 -0.4090  0.3244
 1588DOPC   C3A18635  18.915   5.965  13.584 -0.0317 -0.2771  0.0208
 1588DOPC   C4A18636  18.668   5.634  13.736  0.1469 -0.2174 -0.1463
 1588DOPC   C1B18637  18.741   7.071  13.130  0.0900  0.2948 -0.3148
 1588DOPC   D2B18638  19.002   7.037  13.459 -0.0582 -0.1372  0.1608
 1588DOPC   C3B18639  19.188   6.619  13.513 -0.0844  0.3979  0.1200
 1588DOPC   C4B18640  19.211   6.383  13.923 -0.0946  0.0486  0.3764
 1589DOPC   NC318641  21.826   6.914  13.032  0.1042 -0.0262 -0.0543
 1589DOPC   PO418642  21.519   7.150  12.914 -0.0717 -0.0215  0.2274
 1589DOPC   GL118643  21.450   7.522  13.138 -0.0807 -0.0924  0.0145
 1589DOPC   GL218644  21.680   7.602  12.933 -0.1243 -0.0785 -0.1651
 1589DOPC   C1A18645  21.308   7.975  13.358  0.0301  0.0724  0.0591
 1589DOPC   D2A18646  21.098   7.938  13.753  0.4469 -0.0425 -0.3392
 1589DOPC   C3A18647  20.752   7.679  13.789  0.1166  0.0285 -0.1951
 1589DOPC   C4A18648  20.752   7.202  13.912 -0.1014  0.1098  0.2758
 1589DOPC   C1B18649  21.694   8.102  12.971  0.0310 -0.1580  0.1193
 1589DOPC   D2B18650  21.491   8.513  12.969  0.0290 -0.0876  0.1719
 1589DOPC   C3B18651  21.601   8.933  13.107 -0.0655 -0.1990  0.0439
 1589DOPC   C4B18652  21.435   9.365  13.117 -0.0566  0.0668 -0.0524
 1590DOPS   CNO18653  19.539  10.795  11.992  0.1788  0.3764 -0.0146
 1590DOPS   PO418654  19.521  10.912  12.342 -0.1261 -0.1016  0.0984
 1590DOPS   GL118655  19.590  11.052  12.729 -0.0657 -0.3039  0.0059
 1590DOPS   GL218656  19.731  10.842  12.765 -0.1045  0.1474  0.1632
 1590DOPS   C1A18657  19.535  11.055  13.191  0.2223 -0.0550  0.2186
 1590DOPS   D2A18658  19.711  10.886  13.540 -0.2197 -0.2862  0.1178
 1590DOPS   C3A18659  19.462  11.081  13.840 -0.0448  0.1246  0.2537
 1590DOPS   C4A18660  19.024  11.206  13.952  0.0651 -0.3264 -0.0702
 1590DOPS   C1B18661  20.019  10.867  13.165  0.0022  0.3611 -0.1159
 1590DOPS   D2B18662  20.219  10.988  13.581  0.0700 -0.0097 -0.0722
 1590DOPS   C3B18663  19.998  10.942  13.971 -0.3283 -0.0345  0.2052
 1590DOPS   C4B18664  19.657  11.029  14.313 -0.2403 -0.0156 -0.2564
 1591POSM   NC318665  22.719   4.767  13.210  0.1866 -0.0263  0.1338
 1591POSM   PO418666  22.653   5.046  13.408  0.1912  0.0537 -0.3629
 1591POSM   AM118667  22.475   5.289  13.260  0.0002 -0.2180 -0.0556
 1591POSM   AM218668  22.295   5.430  13.399 -0.0464 -0.0818  0.0187
 1591POSM   T1A18669  22.194   5.465  12.855 -0.0429 -0.0900  0.1556
 1591POSM   C2A18670  21.864   5.198  12.591 -0.0178 -0.1817 -0.0572
 1591POSM   C3A18671  21.594   4.865  12.705  0.0560 -0.4971 -0.0966
 1591POSM   C1B18672  21.999   5.492  13.530  0.2352  0.0162  0.0164
 1591POSM   D2B18673  21.666   5.203  13.782 -0.0099 -0.2467 -0.0408
 1591POSM   C3B18674  21.412   5.082  13.397 -0.3835  0.1306 -0.1078
 1591POSM   C4B18675  21.210   4.875  13.025 -0.4629  0.1303  0.2443
 1592DOPS   CNO18676  18.445   8.833  12.018  0.1027 -0.0942 -0.1551
 1592DOPS   PO418677  18.581   8.534  12.227  0.0164  0.0031  0.1311
 1592DOPS   GL118678  18.881   8.717  12.221 -0.0461  0.2751  0.0547
 1592DOPS   GL218679  19.107   8.920  12.418  0.0072 -0.3659 -0.0987
 1592DOPS   C1A18680  19.257   8.777  11.968  0.0443 -0.2931  0.2054
 1592DOPS   D2A18681  19.740   8.678  11.896 -0.2149 -0.1715 -0.0480
 1592DOPS   C3A18682  20.006   8.530  12.213 -0.2646  0.1243 -0.0151
 1592DOPS   C4A18683  20.357   8.733  12.479  0.3176 -0.0180 -0.2732
 1592DOPS   C1B18684  19.473   8.849  12.719  0.1069 -0.0393 -0.0789
 1592DOPS   D2B18685  19.854   8.518  12.753 -0.1162  0.5064 -0.4121
 1592DOPS   C3B18686  20.127   8.569  13.087  0.0421  0.0393  0.0856
 1592DOPS   C4B18687  20.210   8.663  13.484  0.0334  0.1437 -0.0817
 1593POSM   NC318688  13.601   5.090  12.649  0.2303  0.1544  0.0415
 1593POSM   PO418689  13.371   5.383  12.617  0.0081  0.4281 -0.0180
 1593POSM   AM118690  13.520   5.514  12.885  0.3054  0.0388  0.1959
 1593POSM   AM218691  13.795   5.525  12.990 -0.4797  0.1073 -0.0286
 1593POSM   T1A18692  13.389   5.535  13.383 -0.0086 -0.1318  0.0772
 1593POSM   C2A18693  13.137   5.621  13.754  0.2550  0.0765 -0.2677
 1593POSM   C3A18694  12.659   5.731  13.799  0.0014 -0.1243  0.2090
 1593POSM   C1B18695  13.866   5.197  13.108 -0.0293 -0.3736  0.1709
 1593POSM   D2B18696  14.193   4.976  13.236  0.1607  0.1603 -0.0231
 1593POSM   C3B18697  14.625   5.007  13.199 -0.1972  0.1691  0.3804
 1593POSM   C4B18698  14.979   4.704  13.347  0.0975  0.4634 -0.1854
 1594DOPC   NC318699  15.530   8.333  11.864  0.0913 -0.0665 -0.2794
 1594DOPC   PO418700  15.468   8.375  12.255  0.0212  0.3372  0.0445
 1594DOPC   GL118701  15.355   8.461  12.711 -0.2403  0.4130  0.1941
 1594DOPC   GL218702  15.288   8.157  12.680  0.1381  0.1981 -0.0411
 1594DOPC   C1A18703  15.166   8.828  12.840 -0.3721  0.1384  0.0531
 1594DOPC   D2A18704  15.021   9.265  12.822  0.1460  0.0623  0.1372
 1594DOPC   C3A18705  15.187   9.625  12.605  0.1664 -0.2481 -0.0931
 1594DOPC   C4A18706  15.413   9.797  12.268 -0.1616 -0.3087  0.2136
 1594DOPC   C1B18707  15.082   7.876  12.921  0.1494  0.0804 -0.1927
 1594DOPC   D2B18708  14.650   7.816  13.011  0.0245 -0.1973  0.3006
 1594DOPC   C3B18709  14.502   8.168  13.193  0.0778  0.1292 -0.2715
 1594DOPC   C4B18710  14.233   8.551  13.185 -0.2633 -0.0859 -0.1577
 1595DOPC   NC318711  19.976   4.490  12.677  0.0373 -0.2545 -0.1921
 1595DOPC   PO418712  19.649   4.648  12.748 -0.1670  0.1843  0.0982
 1595DOPC   GL118713  19.771   4.695  13.114 -0.3074 -0.2088  0.2273
 1595DOPC   GL218714  19.996   4.972  13.152  0.1130 -0.1682  0.0825
 1595DOPC   C1A18715  19.752   4.569  13.562  0.0379 -0.0361 -0.2736
 1595DOPC   D2A18716  19.723   4.708  13.953 -0.0122  0.1866 -0.1981
 1595DOPC   C3A18717  19.374   4.740  14.273 -0.2075  0.2665 -0.1499
 1595DOPC   C4A18718  18.974   4.856  14.371 -0.0432  0.2996  0.0696
 1595DOPC   C1B18719  20.204   4.568  13.118  0.3853 -0.1161  0.0827
 1595DOPC   D2B18720  20.477   4.329  12.808  0.0632  0.2184  0.0761
 1595DOPC   C3B18721  20.853   4.078  12.911 -0.3498 -0.1312  0.0391
 1595DOPC   C4B18722  21.282   3.917  13.011  0.0547 -0.2059 -0.2691
 1596DOPC   NC318723  13.783   0.348  11.218 -0.2063  0.1123  0.0596
 1596DOPC   PO418724  13.418   0.442  11.276 -0.1432 -0.0844 -0.0974
 1596DOPC   GL118725  13.225   0.459  11.626  0.3257  0.0256  0.1195
 1596DOPC   GL218726  13.314   0.657  11.766 -0.2209  0.2191  0.1428
 1596DOPC   C1A18727  12.845   0.498  11.892  0.1348  0.3248 -0.0001
 1596DOPC   D2A18728  12.543   0.674  12.150  0.2595 -0.0981  0.0941
 1596DOPC   C3A18729  12.259   0.825  12.487  0.0871 -0.0893 -0.1788
 1596DOPC   C4A18730  12.160   1.201  12.717 -0.0916 -0.1691  0.0258
 1596DOPC   C1B18731  13.644   0.581  12.054  0.3739  0.0210  0.2603
 1596DOPC   D2B18732  13.961   0.908  12.019 -0.0430  0.1528  0.1784
 1596DOPC   C3B18733  14.103   1.280  12.290  0.2295 -0.2646  0.0972
 1596DOPC   C4B18734  14.321   1.444  12.660 -0.1426 -0.2257  0.0767
 1597POSM   NC318735  20.501  10.683  12.225  0.1574 -0.0337  0.0093
 1597POSM   PO418736  20.301  10.642  12.569 -0.0335 -0.2086  0.2991
 1597POSM   AM118737  20.245  10.561  12.883 -0.0601  0.0423 -0.2609
 1597POSM   AM218738  20.036  10.350  12.912 -0.1301 -0.1630  0.1625
 1597POSM   T1A18739  20.357  10.525  13.379  0.2345  0.1682  0.1930
 1597POSM   C2A18740  20.129  10.491  13.783  0.0041  0.1865 -0.1252
 1597POSM   C3A18741  19.944  10.375  14.228 -0.1438 -0.0839 -0.0710
 1597POSM   C1B18742  20.095   9.989  12.817  0.2140  0.3338  0.1867
 1597POSM   D2B18743  20.049   9.587  13.064 -0.1308 -0.2098  0.1145
 1597POSM   C3B18744  19.840   9.630  13.481  0.0225  0.0027  0.2403
 1597POSM   C4B18745  19.926   9.994  13.775 -0.1226 -0.2845 -0.0339
 1598POSM   NC318746  12.730   3.946  11.822  0.2753 -0.0893  0.1804
 1598POSM   PO418747  12.516   3.706  12.068  0.0843 -0.2397 -0.1859
 1598POSM   AM118748  12.829   3.613  12.214 -0.0526  0.1235  0.0555
 1598POSM   AM218749  13.048   3.760  12.233 -0.1305 -0.2310  0.2625
 1598POSM   T1A18750  13.142   3.204  12.209  0.1506  0.3010  0.0716
 1598POSM   C2A18751  13.610   3.034  12.194  0.0688 -0.0248 -0.4891
 1598POSM   C3A18752  13.983   2.919  11.963  0.0904 -0.1568  0.0392
 1598POSM   C1B18753  13.394   3.662  12.353 -0.1000 -0.0170 -0.2171
 1598POSM   D2B18754  13.776   3.423  12.433 -0.1485 -0.0796 -0.2481
 1598POSM   C3B18755  14.074   3.485  12.801 -0.0473 -0.1853 -0.3934
 1598POSM   C4B18756  14.461   3.579  13.064  0.2262  0.1423 -0.1896
 1599DOPE   NH318757  16.901   4.357  12.129 -0.0155  0.2004 -0.0295
 1599DOPE   PO418758  17.150   4.335  12.296 -0.1692  0.1357 -0.3871
 1599DOPE   GL118759  17.193   4.005  12.633 -0.2172  0.1830  0.3791
 1599DOPE   GL218760  16.989   3.812  12.749  0.1948 -0.1848 -0.2206
 1599DOPE   C1A18761  17.182   4.164  13.067 -0.2270 -0.2535  0.0791
 1599DOPE   D2A18762  16.977   3.929  13.393 -0.1863 -0.1103 -0.0484
 1599DOPE   C3A18763  16.927   4.319  13.692 -0.2207  0.0888 -0.1968
 1599DOPE   C4A18764  16.799   4.683  13.917  0.2727 -0.0752  0.1312
 1599DOPE   C1B18765  16.636   3.958  12.992 -0.0383 -0.2366  0.4348
 1599DOPE   D2B18766  16.325   4.139  13.222  0.1792  0.1829 -0.0608
 1599DOPE   C3B18767  16.275   4.143  13.634 -0.0234 -0.0944  0.1519
 1599DOPE   C4B18768  16.236   3.882  14.064  0.1843 -0.3725  0.1844
 1600DOPS   CNO18769  22.723   4.366  12.648  0.2021  0.1211  0.1538
 1600DOPS   PO418770  22.939   4.346  12.969 -0.3889 -0.2797 -0.1346
 1600DOPS   GL118771  22.835   4.359  13.306  0.0480  0.4035 -0.2206
 1600DOPS   GL218772  22.758   4.094  13.447  0.0082 -0.1702  0.0167
 1600DOPS   C1A18773  22.710   4.449  13.781  0.2121 -0.0380  0.0583
 1600DOPS   D2A18774  22.644   4.852  13.989 -0.2298 -0.0623  0.0363
 1600DOPS   C3A18775  22.478   4.723  14.394  0.0278  0.0785 -0.0084
 1600DOPS   C4A18776  22.338   4.361  14.683 -0.1727 -0.2188 -0.0359
 1600DOPS   C1B18777  22.379   4.112  13.653  0.1051  0.3139  0.0276
 1600DOPS   D2B18778  21.947   4.213  13.475 -0.0795 -0.0188  0.2836
 1600DOPS   C3B18779  21.752   3.965  13.101 -0.0963 -0.4165 -0.1353
 1600DOPS   C4B18780  21.978   3.707  12.811  0.1061 -0.0877 -0.0929
 1601DOPE   NH318781  22.992  11.114  13.001  0.1588 -0.6114  0.0484
 1601DOPE   PO418782  22.785  10.937  12.870  0.3651 -0.3092  0.1369
 1601DOPE   GL118783  22.783  10.781  13.318 -0.1884 -0.0291  0.0097
 1601DOPE   GL218784  22.758  10.466  13.063  0.0254  0.0866 -0.2738
 1601DOPE   C1A18785  23.011  10.851  13.725  0.2077  0.0339  0.0865
 1601DOPE   D2A18786  23.355  11.138  13.871 -0.2142 -0.2062  0.1622
 1601DOPE   C3A18787  23.643  11.136  14.215 -0.2243  0.2757  0.0943
 1601DOPE   C4A18788  24.035  11.042  14.342  0.1029  0.1330 -0.0470
 1601DOPE   C1B18789  22.371  10.193  13.168  0.4426 -0.0216  0.3493
 1601DOPE   D2B18790  21.922   9.999  13.451  0.5320 -0.0680  0.0113
 1601DOPE   C3B18791  22.031   9.780  13.869  0.3268 -0.1197 -0.0096
 1601DOPE   C4B18792  22.208   9.355  13.926 -0.0418  0.0945 -0.3868
 1602DOPC   NC318793  12.380   4.996  11.643  0.1228  0.3317 -0.2325
 1602DOPC   PO418794  12.696   5.206  11.808 -0.0552  0.0344 -0.3984
 1602DOPC   GL118795  12.537   5.377  12.112  0.0718 -0.0683  0.0269
 1602DOPC   GL218796  12.396   5.703  12.059  0.2204 -0.0529 -0.1417
 1602DOPC   C1A18797  12.314   5.373  12.507  0.1664  0.0639  0.0282
 1602DOPC   D2A18798  11.873   5.444  12.578 -0.0312  0.1061 -0.1777
 1602DOPC   C3A18799  11.603   5.435  12.183 -0.1830  0.0731 -0.0467
 1602DOPC   C4A18800  11.492   5.693  11.821 -0.1890 -0.0581 -0.0496
 1602DOPC   C1B18801  12.062   5.981  12.288  0.1043 -0.2841  0.0548
 1602DOPC   D2B18802  11.928   5.936  12.792  0.1418  0.1227  0.0236
 1602DOPC   C3B18803  11.863   5.839  13.237  0.0213  0.1941  0.1106
 1602DOPC   C4B18804  11.693   5.538  13.502  0.0917  0.2851 -0.2592
 1603DOPC   NC318805  16.354   2.527  11.886 -0.2268 -0.2272 -0.1324
 1603DOPC   PO418806  16.035   2.720  11.956  0.4433 -0.2224 -0.0138
 1603DOPC   GL118807  15.730   2.723  12.177 -0.2813  0.1817  0.0908
 1603DOPC   GL218808  15.848   2.910  12.398 -0.1134  0.0171 -0.1819
 1603DOPC   C1A18809  15.372   3.001  12.175  0.2563  0.2690  0.4807
 1603DOPC   D2A18810  14.935   3.048  12.252 -0.3161  0.1674  0.1196
 1603DOPC   C3A18811  14.660   2.991  12.607 -0.0512 -0.1338 -0.0140
 1603DOPC   C4A18812  14.331   2.995  12.947 -0.0564  0.0081 -0.3267
 1603DOPC   C1B18813  15.529   2.967  12.730  0.1185  0.1402 -0.1583
 1603DOPC   D2B18814  15.120   3.162  12.691  0.2885  0.2291 -0.0720
 1603DOPC   C3B18815  15.052   3.480  12.990 -0.0158  0.0615  0.0745
 1603DOPC   C4B18816  14.861   3.831  13.199  0.1066 -0.2672  0.0355
 1604POSM   NC318817  23.257   5.542  12.795  0.1793  0.1158  0.0795
 1604POSM   PO418818  22.872   5.575  12.689  0.1570 -0.0497  0.4161
 1604POSM   AM118819  22.650   5.703  12.890  0.1535 -0.1665  0.2421
 1604POSM   AM218820  22.619   5.834  13.148  0.1509 -0.1044  0.0090
 1604POSM   T1A18821  22.202   5.951  12.991 -0.1141  0.1632  0.0585
 1604POSM   C2A18822  21.858   5.954  13.295 -0.4170  0.1223  0.3511
 1604POSM   C3A18823  21.424   6.027  13.370 -0.0333 -0.3635 -0.0175
 1604POSM   C1B18824  22.464   5.891  13.429 -0.0604  0.0386  0.0394
 1604POSM   D2B18825  22.140   5.972  13.756 -0.0242 -0.1323  0.3055
 1604POSM   C3B18826  21.677   5.822  13.789 -0.0324  0.2797  0.2409
 1604POSM   C4B18827  21.318   5.549  13.677 -0.1194 -0.2812 -0.0084
 1605POSM   NC318828  11.501   9.363  11.796  0.1250  0.0070  0.1194
 1605POSM   PO418829  11.649   9.702  11.939 -0.1177  0.2214 -0.0720
 1605POSM   AM118830  11.702   9.579  12.218  0.0666  0.0948 -0.2663
 1605POSM   AM218831  11.709   9.704  12.487  0.0575 -0.1866  0.2472
 1605POSM   T1A18832  11.764   9.220  12.541  0.0628 -0.0395  0.1258
 1605POSM   C2A18833  11.823   8.775  12.687  0.1687 -0.0410 -0.0578
 1605POSM   C3A18834  11.691   8.556  13.120 -0.2430 -0.0275  0.2311
 1605POSM   C1B18835  11.710   9.766  12.829 -0.3390  0.1872 -0.1050
 1605POSM   D2B18836  11.936   9.680  13.223  0.0295  0.0118  0.4024
 1605POSM   C3B18837  12.162   9.928  13.497 -0.1943  0.1834  0.1738
 1605POSM   C4B18838  12.247  10.230  13.789 -0.3084 -0.2551  0.1827
 1606DOPS   CNO18839  20.267   1.790  12.245 -0.0218 -0.2473 -0.2791
 1606DOPS   PO418840  19.926   1.892  12.398  0.0434 -0.0945  0.1626
 1606DOPS   GL118841  19.749   2.182  12.478 -0.5119 -0.3334 -0.3063
 1606DOPS   GL218842  19.740   2.057  12.803 -0.4873 -0.0410  0.2590
 1606DOPS   C1A18843  19.646   2.625  12.477  0.1066 -0.1843  0.3849
 1606DOPS   D2A18844  19.662   3.008  12.780 -0.1024  0.0807  0.1678
 1606DOPS   C3A18845  19.461   3.131  13.199  0.0336 -0.0909 -0.1192
 1606DOPS   C4A18846  19.108   3.169  13.549 -0.1686 -0.2168 -0.1420
 1606DOPS   C1B18847  19.659   2.023  13.253  0.2330  0.0541  0.0725
 1606DOPS   D2B18848  19.384   1.818  13.601  0.3193  0.0492  0.1185
 1606DOPS   C3B18849  19.588   1.840  13.983 -0.0819  0.4118  0.2555
 1606DOPS   C4B18850  19.653   2.233  14.154 -0.2296  0.0502  0.2738
 1607POSM   NC318851  14.130   0.463  11.816  0.1629 -0.1054  0.1547
 1607POSM   PO418852  14.147   0.224  11.519 -0.1706 -0.0553  0.0807
 1607POSM   AM118853  13.965   0.044  11.721  0.1385 -0.1398 -0.1533
 1607POSM   AM218854  13.989  -0.212  11.841  0.2772  0.4230 -0.1146
 1607POSM   T1A18855  13.852  -0.016  12.233  0.0460  0.1377  0.0095
 1607POSM   C2A18856  13.516   0.200  12.402  0.0814 -0.2008 -0.1618
 1607POSM   C3A18857  13.114   0.162  12.534  0.0788  0.1239  0.1102
 1607POSM   C1B18858  14.206  -0.395  12.056 -0.1667  0.0152 -0.1380
 1607POSM   D2B18859  14.643  -0.361  12.173 -0.2129 -0.0007  0.0141
 1607POSM   C3B18860  14.953  -0.300  12.485  0.0994 -0.2099 -0.2898
 1607POSM   C4B18861  14.821  -0.342  12.890  0.0442 -0.2098  0.1466
 1608DOPE   NH318862  18.114   8.634  12.365 -0.1449 -0.0010  0.0572
 1608DOPE   PO418863  17.955   8.723  12.088  0.0863  0.0142  0.0124
 1608DOPE   GL118864  17.698   8.958  12.254 -0.2314 -0.0390  0.1893
 1608DOPE   GL218865  17.551   9.108  11.999  0.0156  0.1528 -0.1013
 1608DOPE   C1A18866  17.312   8.978  12.496 -0.0882  0.0402  0.0477
 1608DOPE   D2A18867  16.902   8.791  12.431 -0.0305 -0.0207 -0.2842
 1608DOPE   C3A18868  16.494   8.969  12.468  0.0651  0.1032  0.2272
 1608DOPE   C4A18869  16.019   9.080  12.409  0.1079  0.1461 -0.0177
 1608DOPE   C1B18870  17.146   9.292  12.119 -0.2113  0.0486 -0.0270
 1608DOPE   D2B18871  16.698   9.416  12.073  0.2052  0.0842  0.1043
 1608DOPE   C3B18872  16.457   9.474  12.495 -0.2348  0.0061 -0.0930
 1608DOPE   C4B18873  16.150   9.466  12.779  0.1011  0.0162 -0.1219
 1609DOPE   NH318874  15.007   1.636  11.747 -0.0027  0.3670 -0.1576
 1609DOPE   PO418875  14.887   1.926  11.805 -0.3117 -0.2468 -0.1465
 1609DOPE   GL118876  14.515   1.962  11.834  0.2078  0.1803 -0.0150
 1609DOPE   GL218877  14.501   2.217  11.719 -0.1365 -0.2792 -0.2978
 1609DOPE   C1A18878  14.319   2.223  12.180  0.0367 -0.0882  0.2987
 1609DOPE   D2A18879  14.003   2.406  12.399 -0.2288 -0.0608  0.0647
 1609DOPE   C3A18880  13.864   2.819  12.564 -0.2289 -0.1338  0.4387
 1609DOPE   C4A18881  13.730   3.121  12.853  0.0927 -0.1156  0.2209
 1609DOPE   C1B18882  14.067   2.098  11.679  0.0300 -0.1276  0.1089
 1609DOPE   D2B18883  13.731   2.191  11.964  0.3656 -0.0296 -0.0047
 1609DOPE   C3B18884  13.556   2.536  12.270 -0.1664 -0.1183  0.0677
 1609DOPE   C4B18885  13.156   2.765  12.434 -0.0305 -0.0957 -0.1508
 1610DOPE   NH318886  14.937   1.923  11.278 -0.2720 -0.0544 -0.2680
 1610DOPE   PO418887  14.601   1.838  11.362  0.3414 -0.3356 -0.1423
 1610DOPE   GL118888  14.346   1.593  11.593 -0.0585  0.1165 -0.3604
 1610DOPE   GL218889  14.084   1.616  11.504 -0.0531 -0.0447 -0.0309
 1610DOPE   C1A18890  14.123   1.707  12.002 -0.1438 -0.0338  0.1864
 1610DOPE   D2A18891  13.790   1.760  12.245  0.3671 -0.2682  0.1264
 1610DOPE   C3A18892  13.623   2.099  12.519 -0.0441 -0.1186 -0.1771
 1610DOPE   C4A18893  13.800   2.270  12.881  0.4465  0.4546  0.0701
 1610DOPE   C1B18894  13.692   1.763  11.765  0.1450  0.2226 -0.2538
 1610DOPE   D2B18895  13.333   1.843  12.073 -0.0016 -0.0710  0.0773
 1610DOPE   C3B18896  13.323   1.727  12.470  0.1566 -0.2581 -0.3356
 1610DOPE   C4B18897  13.192   1.927  12.886 -0.0041  0.1540 -0.4616
 1611DOPS   CNO18898  15.648   1.682  11.611  0.1398 -0.0606  0.3187
 1611DOPS   PO418899  15.319   1.551  11.391  0.0265 -0.1712 -0.3043
 1611DOPS   GL118900  15.572   1.246  11.589  0.4365  0.1224  0.3463
 1611DOPS   GL218901  15.563   0.978  11.496  0.1560 -0.2054  0.1355
 1611DOPS   C1A18902  15.995   1.253  11.743 -0.0476  0.0845 -0.0614
 1611DOPS   D2A18903  16.438   1.117  11.623  0.1731 -0.1364  0.0277
 1611DOPS   C3A18904  16.683   0.720  11.603  0.1624  0.0077 -0.1716
 1611DOPS   C4A18905  17.004   0.436  11.799  0.1867  0.3453  0.0259
 1611DOPS   C1B18906  15.973   0.800  11.470  0.1460  0.2615  0.1902
 1611DOPS   D2B18907  16.164   0.425  11.468 -0.2742  0.2334  0.0591
 1611DOPS   C3B18908  16.439   0.226  11.818 -0.1138 -0.2353  0.2312
 1611DOPS   C4B18909  16.519   0.065  12.301  0.4640 -0.0724 -0.0312
 1612POSM   NC318910  17.881   3.811  12.187 -0.1612  0.0832  0.0205
 1612POSM   PO418911  17.459   3.873  12.273  0.1829 -0.0410  0.1163
 1612POSM   AM118912  17.557   3.723  12.550 -0.1611  0.4481 -0.2597
 1612POSM   AM218913  17.534   3.779  12.825 -0.0307 -0.1935 -0.0715
 1612POSM   T1A18914  17.898   3.445  12.797  0.1204  0.0649  0.1907
 1612POSM   C2A18915  18.355   3.315  12.950  0.3077  0.1811  0.1932
 1612POSM   C3A18916  18.658   2.959  13.084  0.1224 -0.1238 -0.0015
 1612POSM   C1B18917  17.442   3.617  13.101 -0.2503 -0.2266  0.1716
 1612POSM   D2B18918  17.297   3.453  13.530 -0.0268  0.2400  0.1006
 1612POSM   C3B18919  17.063   3.054  13.605 -0.1055  0.0846  0.1728
 1612POSM   C4B18920  16.958   2.567  13.474  0.0040 -0.0980 -0.1618
 1613POSM   NC318921  22.621   5.206  12.862  0.2044  0.1435 -0.0544
 1613POSM   PO418922  22.507   4.823  12.745 -0.3140  0.0309 -0.1154
 1613POSM   AM118923  22.227   4.847  12.920 -0.0292 -0.0041  0.0291
 1613POSM   AM218924  22.059   5.034  13.042 -0.0504  0.2008 -0.1585
 1613POSM   T1A18925  21.800   4.630  13.110  0.0536  0.0145 -0.3556
 1613POSM   C2A18926  21.429   4.334  13.257 -0.4041 -0.1408 -0.0977
 1613POSM   C3A18927  20.988   4.155  13.367  0.3038 -0.1299 -0.1549
 1613POSM   C1B18928  21.820   5.227  13.112 -0.2414 -0.4119 -0.3008
 1613POSM   D2B18929  21.508   5.534  13.118  0.1163  0.2558  0.2508
 1613POSM   C3B18930  21.369   5.348  12.742 -0.2733 -0.1736  0.1892
 1613POSM   C4B18931  21.115   5.037  12.493  0.2650 -0.2246  0.2138
 1614DOPE   NH318932  20.203   2.322  12.427 -0.2479  0.0587 -0.0683
 1614DOPE   PO418933  20.506   2.203  12.498  0.1215 -0.0928  0.1944
 1614DOPE   GL118934  20.717   2.558  12.723 -0.2247 -0.1150  0.1215
 1614DOPE   GL218935  20.952   2.692  12.620 -0.1393 -0.0268 -0.0856
 1614DOPE   C1A18936  20.445   2.898  12.813 -0.0341 -0.0296 -0.5107
 1614DOPE   D2A18937  20.403   3.332  12.949 -0.2120 -0.0872 -0.1294
 1614DOPE   C3A18938  20.460   3.460  13.375 -0.4034  0.3059  0.0872
 1614DOPE   C4A18939  20.667   3.750  13.689 -0.0185 -0.1150  0.1075
 1614DOPE   C1B18940  20.845   3.036  12.953 -0.0064 -0.1106  0.0718
 1614DOPE   D2B18941  20.648   2.990  13.383  0.1400 -0.1194 -0.1445
 1614DOPE   C3B18942  20.625   2.829  13.794  0.0630 -0.1976 -0.1865
 1614DOPE   C4B18943  20.203   2.687  13.753  0.0067  0.0344 -0.1421
 1615DOPS   CNO18944  12.521  10.347  11.695 -0.2730 -0.0696 -0.0668
 1615DOPS   PO418945  12.583  10.445  12.095  0.2440 -0.2102  0.3207
 1615DOPS   GL118946  12.857  10.394  12.405  0.0640 -0.1760 -0.2053
 1615DOPS   GL218947  12.981  10.078  12.517  0.1100  0.0565 -0.0491
 1615DOPS   C1A18948  13.185  10.531  12.689 -0.1068  0.0799 -0.1082
 1615DOPS   D2A18949  13.585  10.717  12.817 -0.0929 -0.1673 -0.3263
 1615DOPS   C3A18950  13.737  10.675  13.352 -0.1738 -0.0347  0.1861
 1615DOPS   C4A18951  13.512  10.831  13.741 -0.2376 -0.3106  0.0159
 1615DOPS   C1B18952  12.821  10.263  12.933  0.4349 -0.1162 -0.1385
 1615DOPS   D2B18953  12.991  10.043  13.267  0.2440  0.4826 -0.3077
 1615DOPS   C3B18954  13.161  10.436  13.294  0.0615 -0.3964 -0.3978
 1615DOPS   C4B18955  13.240  10.891  13.321  0.0523  0.0239 -0.2233
 1616DOPE   NH318956  17.788   7.777  12.362  0.1151  0.0429 -0.2783
 1616DOPE   PO418957  18.011   7.802  12.601 -0.0892  0.1187  0.0267
 1616DOPE   GL118958  18.183   7.930  12.928  0.0134 -0.3994  0.0312
 1616DOPE   GL218959  18.252   8.258  12.917 -0.2245 -0.0452 -0.2165
 1616DOPE   C1A18960  18.572   7.973  13.183 -0.1212 -0.0960  0.1091
 1616DOPE   D2A18961  18.923   8.013  13.476 -0.0711 -0.2264 -0.0820
 1616DOPE   C3A18962  18.994   8.346  13.781  0.2690  0.0527  0.1459
 1616DOPE   C4A18963  19.080   8.654  14.077 -0.1149 -0.1051 -0.0490
 1616DOPE   C1B18964  18.087   8.180  13.287 -0.4224  0.0576 -0.1004
 1616DOPE   D2B18965  18.180   8.039  13.705  0.1227 -0.1605 -0.2067
 1616DOPE   C3B18966  17.993   7.624  13.845  0.2455 -0.0457  0.0094
 1616DOPE   C4B18967  18.084   7.149  13.756  0.1843  0.0006  0.2170
 1617POSM   NC318968  10.867   2.362  10.779 -0.1327 -0.0456  0.1253
 1617POSM   PO418969  10.766   2.224  11.127 -0.3795 -0.2050 -0.2552
 1617POSM   AM118970  10.750   2.016  11.363 -0.1482 -0.2596 -0.0024
 1617POSM   AM218971  10.657   1.908  11.607 -0.3430 -0.1046 -0.1060
 1617POSM   T1A18972  10.968   1.562  11.438 -0.0524 -0.0325 -0.1985
 1617POSM   C2A18973  11.276   1.254  11.623 -0.0600  0.1919 -0.1829
 1617POSM   C3A18974  11.501   1.310  12.043 -0.1663 -0.2080  0.2273
 1617POSM   C1B18975  10.599   1.805  11.870 -0.2436 -0.1495  0.3066
 1617POSM   D2B18976  10.300   1.442  12.009 -0.3569 -0.2475  0.1071
 1617POSM   C3B18977  10.015   1.351  12.344 -0.0906 -0.4359  0.0583
 1617POSM   C4B18978   9.581   1.526  12.500  0.0422  0.3710  0.1904
 1618POSM   NC318979  11.767  10.447  11.763 -0.2604 -0.4044 -0.2202
 1618POSM   PO418980  11.676  10.725  12.027 -0.1116  0.0338 -0.1113
 1618POSM   AM118981  11.969  10.842  12.138  0.1030 -0.2583  0.2711
 1618POSM   AM218982  12.073  11.106  12.145  0.0755  0.0450  0.7014
 1618POSM   T1A18983  12.347  10.859  12.490 -0.2670  0.2196  0.0220
 1618POSM   C2A18984  12.601  10.646  12.708 -0.0649  0.2076  0.1614
 1618POSM   C3A18985  12.893  10.826  13.028  0.0143 -0.1720 -0.0935
 1618POSM   C1B18986  12.180  11.334  12.400 -0.1728 -0.1976  0.2374
 1618POSM   D2B18987  12.365  11.759  12.419  0.1066  0.1226  0.0532
 1618POSM   C3B18988  12.370  12.231  12.338 -0.1393 -0.1700 -0.0770
 1618POSM   C4B18989  12.177  12.646  12.502  0.1038  0.2794 -0.3389
 1619DOPC   NC318990  15.389   7.739  12.418  0.1525 -0.3209  0.1259
 1619DOPC   PO418991  15.647   7.933  12.307 -0.1723  0.0621  0.1265
 1619DOPC   GL118992  15.731   8.054  12.659 -0.6439 -0.2931 -0.2277
 1619DOPC   GL218993  15.780   8.371  12.638 -0.0382 -0.3364  0.0257
 1619DOPC   C1A18994  15.501   8.147  13.085  0.2516  0.2040 -0.0914
 1619DOPC   D2A18995  15.421   8.143  13.542  0.1370  0.2359  0.0254
 1619DOPC   C3A18996  15.039   8.385  13.641  0.2184  0.0328  0.1221
 1619DOPC   C4A18997  14.619   8.504  13.527  0.2759  0.1646  0.1052
 1619DOPC   C1B18998  15.727   8.734  12.958  0.1280 -0.0811  0.1487
 1619DOPC   D2B18999  15.410   8.633  13.260  0.2011 -0.3801 -0.2230
 1619DOPC   C3B19000  14.972   8.434  13.091  0.1660 -0.2541  0.0341
 1619DOPC   C4B19001  14.613   8.492  12.820  0.0060  0.2868 -0.2433
 1620POSM   NC319002  10.962   7.856  12.226  0.1405 -0.2874 -0.1679
 1620POSM   PO419003  10.976   7.479  12.174  0.2112 -0.1697  0.1198
 1620POSM   AM119004  11.141   7.442  12.475 -0.0145  0.2769  0.0266
 1620POSM   AM219005  11.120   7.633  12.715  0.1712 -0.0176  0.3179
 1620POSM   T1A19006  11.382   7.188  12.846  0.2702 -0.2075  0.1431
 1620POSM   C2A19007  11.810   7.054  12.830 -0.0457  0.1714 -0.2212
 1620POSM   C3A19008  12.170   7.201  13.093  0.2222  0.3591  0.1353
 1620POSM   C1B19009  11.364   7.880  12.700  0.0722  0.0344 -0.2504
 1620POSM   D2B19010  11.575   8.305  12.725  0.1024 -0.0230  0.0782
 1620POSM   C3B19011  11.444   8.671  12.403 -0.0167 -0.1401  0.0385
 1620POSM   C4B19012  11.191   8.816  12.005  0.1108  0.0726 -0.1575
 1621DOPE   NH319013  16.217   2.110  12.341 -0.1334 -0.0558  0.2963
 1621DOPE   PO419014  16.081   2.426  12.324 -0.1777 -0.1472  0.0164
 1621DOPE   GL119015  15.991   2.330  12.693 -0.0002 -0.2602  0.0961
 1621DOPE   GL219016  15.756   2.489  12.819 -0.1915  0.1368  0.3223
 1621DOPE   C1A19017  15.887   1.903  12.885 -0.0320  0.1700 -0.0221
 1621DOPE   D2A19018  15.991   1.586  13.148  0.3176 -0.3119  0.3786
 1621DOPE   C3A19019  15.604   1.792  13.319 -0.1145 -0.2572  0.0042
 1621DOPE   C4A19020  15.494   2.125  13.092 -0.0913  0.1947 -0.2104
 1621DOPE   C1B19021  15.942   2.304  13.165  0.2053 -0.2665  0.0710
 1621DOPE   D2B19022  16.275   1.987  13.206  0.1309  0.0851 -0.0045
 1621DOPE   C3B19023  16.475   1.696  13.491  0.0063  0.1618 -0.0983
 1621DOPE   C4B19024  16.850   1.615  13.808 -0.1139  0.1488 -0.0057
 1622DOPS   CNO19025  13.963   5.211  11.975  0.1361 -0.0207  0.1906
 1622DOPS   PO419026  13.929   5.283  12.345 -0.0495  0.2204  0.0118
 1622DOPS   GL119027  14.003   4.924  12.552 -0.0605 -0.1523 -0.2401
 1622DOPS   GL219028  14.254   4.963  12.680 -0.0802 -0.0281  0.1720
 1622DOPS   C1A19029  13.837   4.721  12.915 -0.2457 -0.1056  0.1840
 1622DOPS   D2A19030  13.809   4.411  13.226  0.1125 -0.1233 -0.1987
 1622DOPS   C3A19031  13.620   4.161  13.602  0.2264 -0.3029  0.2870
 1622DOPS   C4A19032  13.243   4.131  13.849 -0.1048  0.0745  0.1893
 1622DOPS   C1B19033  14.304   5.403  12.915 -0.0354  0.0831  0.1393
 1622DOPS   D2B19034  14.220   5.800  13.102 -0.0245  0.2262 -0.2348
 1622DOPS   C3B19035  13.896   5.854  13.375  0.1530 -0.1965  0.3659
 1622DOPS   C4B19036  13.465   6.026  13.495  0.2034 -0.0838  0.2085
 1623DOPC   NC319037  14.291   5.734  12.226  0.0739 -0.0448  0.0503
 1623DOPC   PO419038  13.945   5.712  11.985  0.4039 -0.0540 -0.1118
 1623DOPC   GL119039  13.945   6.048  12.163  0.3836 -0.2951  0.1375
 1623DOPC   GL219040  13.759   6.271  12.035  0.1817 -0.0353  0.2659
 1623DOPC   C1A19041  14.210   6.410  12.213  0.3865  0.0478  0.1283
 1623DOPC   D2A19042  14.440   6.790  12.187 -0.0935 -0.0017  0.0889
 1623DOPC   C3A19043  14.545   7.106  12.504 -0.0138  0.1408 -0.0752
 1623DOPC   C4A19044  14.809   7.421  12.757 -0.1726  0.2096  0.2479
 1623DOPC   C1B19045  13.768   6.723  12.213 -0.1674 -0.3440  0.3852
 1623DOPC   D2B19046  13.871   7.178  12.132  0.3074 -0.0825 -0.0104
 1623DOPC   C3B19047  13.559   7.494  12.054  0.1410 -0.0054 -0.3293
 1623DOPC   C4B19048  13.365   7.783  12.296  0.0070 -0.0457 -0.2482
 1624DOPC   NC319049  19.717  10.409  12.455 -0.1932  0.3327  0.1805
 1624DOPC   PO419050  19.975  10.452  12.115 -0.0476 -0.1555  0.3949
 1624DOPC   GL119051  20.117  10.114  12.260 -0.1333 -0.0965  0.1339
 1624DOPC   GL219052  20.371  10.157  12.406  0.0085  0.0195 -0.0924
 1624DOPC   C1A19053  20.079   9.653  12.300  0.1651  0.2701 -0.4156
 1624DOPC   D2A19054  20.315   9.265  12.371  0.0051 -0.1663  0.3422
 1624DOPC   C3A19055  20.513   9.275  12.816  0.1856  0.2488  0.1678
 1624DOPC   C4A19056  20.623   9.229  13.330 -0.0391  0.2684  0.2891
 1624DOPC   C1B19057  20.733   9.838  12.362 -0.0595 -0.0125 -0.3878
 1624DOPC   D2B19058  21.027   9.507  12.314  0.2642  0.5436 -0.0488
 1624DOPC   C3B19059  20.881   9.096  12.442  0.1216 -0.2215 -0.3186
 1624DOPC   C4B19060  20.803   8.645  12.377 -0.0161  0.0936  0.1590
 1625DOPC   NC319061  12.963   4.567  12.471  0.0354  0.1322 -0.4333
 1625DOPC   PO419062  13.170   4.913  12.520 -0.0350 -0.1341 -0.1463
 1625DOPC   GL119063  13.312   4.918  12.919  0.0258 -0.0781  0.2464
 1625DOPC   GL219064  13.255   5.170  13.090  0.0322  0.1580 -0.0483
 1625DOPC   C1A19065  13.381   4.676  13.275 -0.3033  0.0288  0.1239
 1625DOPC   D2A19066  13.627   4.656  13.718  0.1097 -0.1129  0.2603
 1625DOPC   C3A19067  14.033   4.532  13.694  0.1974 -0.1067 -0.0527
 1625DOPC   C4A19068  14.119   4.090  13.883 -0.1309  0.0049  0.0832
 1625DOPC   C1B19069  13.588   5.076  13.474 -0.1630 -0.0128 -0.2736
 1625DOPC   D2B19070  13.973   4.995  13.688  0.0472 -0.0637 -0.0525
 1625DOPC   C3B19071  14.150   5.191  14.076 -0.0682  0.2633  0.2556
 1625DOPC   C4B19072  14.307   5.406  14.454 -0.1299 -0.1380 -0.0742
 1626DOPS   CNO19073  17.851   8.231  12.074  0.1062 -0.3702  0.0780
 1626DOPS   PO419074  17.720   8.261  12.446  0.2155 -0.0035 -0.4600
 1626DOPS   GL119075  17.767   8.532  12.838 -0.3522  0.1234 -0.2060
 1626DOPS   GL219076  17.737   8.775  12.719  0.1212 -0.1391 -0.2056
 1626DOPS   C1A19077  17.932   8.663  13.246 -0.2294 -0.0771  0.0423
 1626DOPS   D2A19078  18.128   8.925  13.606 -0.1175 -0.0317  0.0758
 1626DOPS   C3A19079  17.868   9.165  13.956  0.0374  0.0329 -0.1208
 1626DOPS   C4A19080  17.492   9.438  13.895  0.0233 -0.4905  0.1410
 1626DOPS   C1B19081  17.435   8.979  12.998  0.0575 -0.0942 -0.3113
 1626DOPS   D2B19082  16.965   8.837  13.011 -0.1487 -0.0646  0.4147
 1626DOPS   C3B19083  16.680   9.191  12.878  0.2942 -0.0460  0.1622
 1626DOPS   C4B19084  16.938   9.299  12.524  0.3594 -0.1027 -0.2493
 1627POSM   NC319085  13.796  34.443  11.372  0.0355 -0.1735 -0.3638
 1627POSM   PO419086  13.445  34.613  11.285  0.0550 -0.0510  0.0969
 1627POSM   AM119087  13.399  34.650  11.599  0.0880 -0.1414 -0.0001
 1627POSM   AM219088  13.522  34.797  11.803  0.0160  0.3976 -0.1715
 1627POSM   T1A19089  13.471  34.404  12.062  0.0114 -0.0240 -0.1418
 1627POSM   C2A19090  13.772  34.192  12.316  0.0495  0.4922  0.0037
 1627POSM   C3A19091  13.925  33.912  12.647 -0.0563 -0.2714  0.2331
 1627POSM   C1B19092  13.277  34.887  11.963  0.1599 -0.0777 -0.0731
 1627POSM   D2B19093  13.068  35.214  12.294 -0.1018 -0.0489 -0.0745
 1627POSM   C3B19094  12.742  35.238  12.604  0.1362 -0.1403  0.0289
 1627POSM   C4B19095  12.521  35.416  12.918 -0.2705 -0.0622  0.1007
 1628POSM   NC319096  17.364   9.586  11.706 -0.2313  0.2128  0.3503
 1628POSM   PO419097  17.669   9.595  11.986 -0.2677  0.1541 -0.5079
 1628POSM   AM119098  17.522   9.618  12.262  0.0700 -0.3091 -0.4024
 1628POSM   AM219099  17.478   9.452  12.524  0.1230  0.0637  0.0159
 1628POSM   T1A19100  17.396   9.907  12.614  0.0553  0.1512  0.3836
 1628POSM   C2A19101  17.203  10.083  12.981 -0.5402  0.0369  0.1712
 1628POSM   C3A19102  16.922  10.237  13.288 -0.1241  0.1066 -0.1158
 1628POSM   C1B19103  17.549   9.454  12.859  0.2419 -0.0777  0.0819
 1628POSM   D2B19104  17.739   9.678  13.213  0.2091 -0.1257 -0.1525
 1628POSM   C3B19105  17.654  10.010  13.537 -0.0163 -0.0322  0.4138
 1628POSM   C4B19106  17.331  10.326  13.628  0.0836  0.2450  0.1474
 1629DOPE   NH319107  11.339   6.598  11.911  0.0273 -0.0074 -0.2172
 1629DOPE   PO419108  11.141   6.607  12.234 -0.0959  0.0123  0.1248
 1629DOPE   GL119109  11.253   6.260  12.414 -0.0155 -0.1365 -0.0498
 1629DOPE   GL219110  11.565   6.271  12.244 -0.1454 -0.0234 -0.0125
 1629DOPE   C1A19111  11.013   5.934  12.669  0.1362 -0.1042 -0.2109
 1629DOPE   D2A19112  10.609   5.788  12.883 -0.4034 -0.1996 -0.3135
 1629DOPE   C3A19113  10.352   5.395  12.702  0.0009 -0.1506  0.1408
 1629DOPE   C4A19114  10.025   5.193  12.941 -0.1270  0.2950 -0.0534
 1629DOPE   C1B19115  11.722   6.329  12.665  0.0190 -0.4152 -0.1157
 1629DOPE   D2B19116  11.468   6.159  13.004 -0.2198  0.0220 -0.0893
 1629DOPE   C3B19117  11.279   6.323  13.345 -0.2447 -0.2040  0.3169
 1629DOPE   C4B19118  11.238   6.758  13.566 -0.0632  0.0516 -0.0534
 1630DOPC   NC319119  17.232  34.353  12.733 -0.0704  0.0285  0.0600
 1630DOPC   PO419120  17.413  34.331  12.390 -0.0647 -0.1778 -0.1357
 1630DOPC   GL119121  17.194  33.960  12.430  0.1127  0.1825 -0.0516
 1630DOPC   GL219122  16.914  34.068  12.446 -0.0299 -0.2370 -0.1770
 1630DOPC   C1A19123  17.142  33.835  12.839 -0.4539 -0.1737 -0.0521
 1630DOPC   D2A19124  16.994  34.098  13.205 -0.0254 -0.2061 -0.0538
 1630DOPC   C3A19125  16.602  34.377  13.296  0.1869  0.0506 -0.1332
 1630DOPC   C4A19126  16.398  34.766  13.174  0.3738 -0.2154 -0.1664
 1630DOPC   C1B19127  16.607  33.889  12.087 -0.2627  0.2978 -0.2059
 1630DOPC   D2B19128  16.272  33.606  12.033 -0.2300 -0.0500  0.0946
 1630DOPC   C3B19129  15.816  33.565  11.952 -0.1834 -0.1543 -0.1845
 1630DOPC   C4B19130  15.639  33.472  12.386 -0.0117  0.0550 -0.0418
 1631POSM   NC319131  22.979   3.095  12.959 -0.1621  0.0595 -0.1800
 1631POSM   PO419132  23.063   3.462  12.895  0.1493  0.1319 -0.2973
 1631POSM   AM119133  22.832   3.519  13.130 -0.0826  0.3391 -0.0849
 1631POSM   AM219134  22.730   3.601  13.379 -0.1659  0.0807 -0.0385
 1631POSM   T1A19135  22.421   3.225  13.277 -0.0090  0.2166  0.0601
 1631POSM   C2A19136  22.024   3.042  13.543  0.3666 -0.0348 -0.0461
 1631POSM   C3A19137  21.574   3.076  13.497 -0.1712  0.0018  0.1383
 1631POSM   C1B19138  22.768   3.601  13.722 -0.1364 -0.0433  0.1703
 1631POSM   D2B19139  22.704   3.566  14.173  0.2672 -0.1662  0.0498
 1631POSM   C3B19140  22.319   3.357  14.406  0.0847 -0.2017  0.0558
 1631POSM   C4B19141  22.143   2.952  14.480 -0.1659 -0.0411 -0.0224
 1632POSM   NC319142  17.736   8.050  12.909 -0.0156 -0.0207 -0.0083
 1632POSM   PO419143  17.569   7.674  12.808  0.0171 -0.2643 -0.0789
 1632POSM   AM119144  17.310   7.795  12.940  0.0205  0.0273  0.4243
 1632POSM   AM219145  17.124   7.987  12.948 -0.3677 -0.0969 -0.0612
 1632POSM   T1A19146  17.029   7.656  13.334 -0.2364 -0.0105  0.0875
 1632POSM   C2A19147  16.971   7.492  13.788  0.0864  0.0001  0.3307
 1632POSM   C3A19148  17.194   7.200  14.102  0.0656 -0.2278  0.0512
 1632POSM   C1B19149  17.102   8.145  13.227 -0.2201 -0.2724 -0.1732
 1632POSM   D2B19150  16.852   8.449  13.382 -0.2517 -0.3224  0.2321
 1632POSM   C3B19151  16.794   8.958  13.494 -0.2612 -0.0621  0.0004
 1632POSM   C4B19152  16.806   9.422  13.441 -0.3652 -0.0019 -0.0493
 1633DOPC   NC319153  13.886  20.976  14.558 -0.0623  0.2647  0.1100
 1633DOPC   PO419154  13.879  20.646  14.743 -0.0001  0.1298 -0.2196
 1633DOPC   GL119155  13.796  20.512  14.362 -0.1177 -0.0685 -0.2111
 1633DOPC   GL219156  13.587  20.595  14.187  0.1680  0.0708 -0.2093
 1633DOPC   C1A19157  14.002  20.646  13.964 -0.0286  0.0650  0.2123
 1633DOPC   D2A19158  13.915  21.046  13.694  0.0016  0.0280  0.1923
 1633DOPC   C3A19159  13.982  21.109  13.200  0.1696 -0.0231 -0.1402
 1633DOPC   C4A19160  13.846  21.407  12.818  0.0850  0.1909  0.0401
 1633DOPC   C1B19161  13.504  20.787  13.808 -0.0944  0.1604  0.0364
 1633DOPC   D2B19162  13.473  20.813  13.337 -0.0674 -0.2366  0.1832
 1633DOPC   C3B19163  13.488  21.083  12.959 -0.1333 -0.2101  0.0160
 1633DOPC   C4B19164  13.463  21.327  12.575 -0.0299 -0.3485 -0.1441
 1634DOPC   NC319165  20.344  14.761  14.007  0.1136 -0.1924  0.0271
 1634DOPC   PO419166  20.437  15.188  14.030  0.2906  0.0884  0.0863
 1634DOPC   GL119167  20.285  15.288  13.700 -0.3261 -0.0460 -0.1541
 1634DOPC   GL219168  20.076  15.101  13.659  0.2294  0.2380 -0.2254
 1634DOPC   C1A19169  20.478  15.138  13.287 -0.0201 -0.0256  0.1089
 1634DOPC   D2A19170  20.326  15.127  12.830  0.1067  0.0381 -0.0132
 1634DOPC   C3A19171  20.522  14.759  12.682  0.0876 -0.0638 -0.0689
 1634DOPC   C4A19172  20.716  14.486  12.395  0.2458  0.3670  0.0883
 1634DOPC   C1B19173  20.354  14.747  13.535 -0.0873  0.0981 -0.1470
 1634DOPC   D2B19174  20.704  14.520  13.282 -0.2956  0.3726 -0.1540
 1634DOPC   C3B19175  20.748  14.215  12.923 -0.2826  0.3250  0.1256
 1634DOPC   C4B19176  21.091  14.024  12.638  0.3533  0.4820  0.0106
 1635DOPE   NH319177  20.781  20.855  15.202 -0.2122 -0.2223  0.3338
 1635DOPE   PO419178  20.959  21.146  15.200 -0.2896  0.2110  0.1286
 1635DOPE   GL119179  21.194  21.140  14.830  0.3145 -0.0073  0.0562
 1635DOPE   GL219180  21.031  21.171  14.584  0.0072 -0.0956 -0.0532
 1635DOPE   C1A19181  21.471  21.067  14.448 -0.0766 -0.1449 -0.0180
 1635DOPE   D2A19182  21.835  20.938  14.191  0.1331 -0.0164 -0.0553
 1635DOPE   C3A19183  21.818  21.186  13.753 -0.0100  0.0563  0.0441
 1635DOPE   C4A19184  21.956  21.341  13.346 -0.1030  0.2714  0.1880
 1635DOPE   C1B19185  20.703  21.182  14.310 -0.1183  0.1785 -0.2305
 1635DOPE   D2B19186  20.695  21.385  13.903  0.2176  0.1821 -0.3784
 1635DOPE   C3B19187  20.313  21.500  13.829 -0.3343 -0.1855 -0.4111
 1635DOPE   C4B19188  19.980  21.469  13.497 -0.0920 -0.1475  0.2594
 1636DOPE   NH319189  13.291  21.555  15.414  0.0162 -0.0711  0.1359
 1636DOPE   PO419190  13.090  21.378  15.224 -0.0088 -0.3405 -0.3125
 1636DOPE   GL119191  13.011  21.527  14.820  0.2695 -0.3146  0.3335
 1636DOPE   GL219192  12.857  21.294  14.635 -0.0789 -0.1613 -0.1145
 1636DOPE   C1A19193  13.213  21.595  14.448  0.0753  0.2863  0.0555
 1636DOPE   D2A19194  13.378  21.586  13.998  0.0312  0.0937 -0.1067
 1636DOPE   C3A19195  13.409  21.268  13.695  0.0064  0.0841 -0.0306
 1636DOPE   C4A19196  13.051  21.191  13.392 -0.1772 -0.2771 -0.2815
 1636DOPE   C1B19197  12.700  20.964  14.325  0.1586  0.2283  0.0621
 1636DOPE   D2B19198  12.434  20.590  14.233 -0.0669  0.1881 -0.1813
 1636DOPE   C3B19199  12.488  20.674  13.745  0.1673 -0.0086 -0.1853
 1636DOPE   C4B19200  12.685  20.352  13.420  0.2039  0.1182  0.3720
 1637DOPC   NC319201  21.043  23.229  15.777 -0.2998 -0.2694 -0.1220
 1637DOPC   PO419202  20.912  22.835  15.732  0.1588  0.2316 -0.1278
 1637DOPC   GL119203  21.045  22.802  15.364 -0.1697  0.3317 -0.0099
 1637DOPC   GL219204  20.764  22.822  15.193  0.0707 -0.1271  0.1475
 1637DOPC   C1A19205  21.365  22.814  15.051  0.0495 -0.2204  0.1078
 1637DOPC   D2A19206  21.514  22.927  14.665 -0.0850  0.3211  0.1171
 1637DOPC   C3A19207  21.536  22.906  14.207  0.1037  0.0861 -0.3494
 1637DOPC   C4A19208  21.461  22.578  13.944 -0.0689  0.1952  0.0580
 1637DOPC   C1B19209  20.605  23.114  14.825 -0.3083  0.0399  0.2957
 1637DOPC   D2B19210  20.510  23.087  14.357 -0.1524 -0.0840  0.2581
 1637DOPC   C3B19211  20.219  23.246  14.031 -0.0283 -0.3332  0.1611
 1637DOPC   C4B19212  19.926  23.493  13.713  0.1213  0.1468  0.1833
 1638DOPC   NC319213  21.670  21.215  15.427  0.1785 -0.0426  0.0719
 1638DOPC   PO419214  21.555  21.619  15.431  0.0126 -0.1807 -0.0831
 1638DOPC   GL119215  21.872  21.615  15.089 -0.2003  0.0832  0.1690
 1638DOPC   GL219216  22.013  21.356  15.140  0.3608  0.1081 -0.1723
 1638DOPC   C1A19217  22.200  21.768  14.804 -0.1477  0.4365  0.0193
 1638DOPC   D2A19218  22.383  21.691  14.395 -0.1213  0.1272  0.2031
 1638DOPC   C3A19219  22.874  21.760  14.360 -0.0663 -0.3210  0.2026
 1638DOPC   C4A19220  23.292  21.778  14.209  0.2161  0.0325 -0.3111
 1638DOPC   C1B19221  22.043  21.310  14.703  0.0652  0.0548  0.1739
 1638DOPC   D2B19222  21.982  21.386  14.237  0.2893 -0.2428 -0.2672
 1638DOPC   C3B19223  21.529  21.425  14.061  0.2212  0.2320  0.1614
 1638DOPC   C4B19224  21.180  21.694  14.077  0.0872  0.0579  0.2090
 1639POSM   NC319225  14.986  15.729  14.183  0.2733  0.0404  0.1689
 1639POSM   PO419226  15.147  15.411  14.040  0.0398 -0.2928 -0.0299
 1639POSM   AM119227  14.977  15.313  13.775 -0.0197  0.4528 -0.1621
 1639POSM   AM219228  15.083  15.155  13.559  0.1062 -0.0023 -0.3236
 1639POSM   T1A19229  14.727  15.434  13.404 -0.0833 -0.1524  0.2614
 1639POSM   C2A19230  14.337  15.470  13.158  0.0752 -0.0997  0.2002
 1639POSM   C3A19231  13.996  15.285  12.876  0.1645 -0.1078  0.2257
 1639POSM   C1B19232  15.034  14.967  13.256 -0.1837 -0.1545 -0.2182
 1639POSM   D2B19233  14.818  14.787  12.809  0.0879  0.1078  0.2036
 1639POSM   C3B19234  15.098  14.611  12.510  0.1467 -0.2151  0.0327
 1639POSM   C4B19235  15.379  14.370  12.243 -0.0619  0.0731  0.0285
 1640DOPS   CNO19236  19.513  20.970  14.977  0.1317  0.0482  0.3043
 1640DOPS   PO419237  19.511  21.033  14.617  0.2582 -0.1014 -0.0387
 1640DOPS   GL119238  19.569  21.202  14.328  0.0245  0.0160  0.1101
 1640DOPS   GL219239  19.347  21.379  14.180  0.1977  0.0786 -0.4639
 1640DOPS   C1A19240  19.849  21.477  14.031 -0.3260  0.2510  0.1633
 1640DOPS   D2A19241  20.050  21.911  13.976  0.0063 -0.0548 -0.4983
 1640DOPS   C3A19242  19.942  22.181  13.629 -0.3283 -0.0627  0.2056
 1640DOPS   C4A19243  19.938  22.607  13.494  0.0866  0.1013 -0.3937
 1640DOPS   C1B19244  19.424  21.368  13.758  0.0347  0.0218 -0.3473
 1640DOPS   D2B19245  19.311  21.343  13.299  0.0373  0.1634  0.2740
 1640DOPS   C3B19246  19.673  21.385  13.071 -0.2348  0.2971 -0.1040
 1640DOPS   C4B19247  20.090  21.444  12.831 -0.2173 -0.1091 -0.1880
 1641DOPC   NC319248  16.996  13.279  14.004  0.1813  0.2150  0.2057
 1641DOPC   PO419249  16.744  13.549  14.084 -0.0448  0.0820  0.1612
 1641DOPC   GL119250  16.703  13.601  13.704  0.2007 -0.1048 -0.2936
 1641DOPC   GL219251  16.572  13.841  13.571  0.2435 -0.3505 -0.0309
 1641DOPC   C1A19252  17.118  13.660  13.485 -0.0342 -0.4014  0.1158
 1641DOPC   D2A19253  17.194  13.909  13.155  0.4868  0.2154 -0.3260
 1641DOPC   C3A19254  17.261  14.021  12.714 -0.2577  0.1888  0.1181
 1641DOPC   C4A19255  17.495  13.807  12.342  0.2924 -0.2200  0.0318
 1641DOPC   C1B19256  16.143  13.876  13.375  0.0011  0.2752  0.1199
 1641DOPC   D2B19257  15.926  14.046  12.950  0.1517 -0.0959 -0.2810
 1641DOPC   C3B19258  15.532  14.243  12.872 -0.0865 -0.0666 -0.1103
 1641DOPC   C4B19259  15.100  14.096  12.837  0.3666 -0.1120 -0.1239
 1642DOPE   NH319260  13.950  16.852  14.104  0.2022  0.2881  0.3990
 1642DOPE   PO419261  13.992  16.707  13.827  0.1009  0.0392  0.0513
 1642DOPE   GL119262  13.889  16.879  13.470 -0.0897 -0.2007 -0.0969
 1642DOPE   GL219263  13.978  17.183  13.406 -0.3105  0.0067 -0.2903
 1642DOPE   C1A19264  13.547  17.019  13.152 -0.1714  0.0057  0.0356
 1642DOPE   D2A19265  13.312  17.120  12.790 -0.0345  0.0404 -0.0482
 1642DOPE   C3A19266  12.911  17.241  12.685  0.1210 -0.0964 -0.2337
 1642DOPE   C4A19267  12.555  16.970  12.660 -0.1755 -0.3235  0.1449
 1642DOPE   C1B19268  14.131  17.443  13.062  0.0491 -0.0359 -0.0206
 1642DOPE   D2B19269  14.092  17.702  12.654  0.2897  0.0129 -0.0859
 1642DOPE   C3B19270  13.651  17.909  12.632  0.2414 -0.2168 -0.1768
 1642DOPE   C4B19271  13.481  18.195  12.301  0.2705 -0.0484 -0.3573
 1643POSM   NC319272  20.049  21.104  14.789 -0.0426 -0.3315 -0.1805
 1643POSM   PO419273  20.301  20.840  14.799  0.1155  0.1366  0.0381
 1643POSM   AM119274  20.127  20.749  14.518  0.1470  0.0441  0.2484
 1643POSM   AM219275  19.908  20.864  14.307  0.2543  0.1581 -0.4229
 1643POSM   T1A19276  20.136  20.462  14.068 -0.0828  0.1775  0.0430
 1643POSM   C2A19277  20.384  20.534  13.628  0.0046  0.1851  0.3406
 1643POSM   C3A19278  20.463  20.485  13.117  0.3387 -0.0413  0.1596
 1643POSM   C1B19279  19.796  20.967  14.010  0.2639 -0.0661 -0.2597
 1643POSM   D2B19280  19.735  21.051  13.600 -0.2563  0.0061  0.2153
 1643POSM   C3B19281  19.985  21.019  13.203 -0.0112  0.0938  0.1406
 1643POSM   C4B19282  20.052  20.891  12.746  0.0689 -0.2779  0.3882
 1644DOPS   CNO19283  18.223  22.329  15.743 -0.1268 -0.0666  0.0718
 1644DOPS   PO419284  18.005  22.615  15.704 -0.1559 -0.1408  0.0492
 1644DOPS   GL119285  17.819  22.744  15.427 -0.1946  0.0674 -0.2389
 1644DOPS   GL219286  17.843  22.540  15.156 -0.0916  0.0091  0.1093
 1644DOPS   C1A19287  17.668  23.089  15.146  0.3078  0.3071 -0.0526
 1644DOPS   D2A19288  17.518  23.461  14.896  0.2890  0.1197 -0.0612
 1644DOPS   C3A19289  17.545  23.445  14.400  0.0198 -0.0157 -0.2255
 1644DOPS   C4A19290  17.326  23.731  14.107  0.1868 -0.1873 -0.4013
 1644DOPS   C1B19291  17.523  22.672  14.854 -0.1302  0.1185 -0.0184
 1644DOPS   D2B19292  17.574  22.873  14.481  0.3895 -0.0121 -0.1102
 1644DOPS   C3B19293  17.974  23.164  14.480 -0.2199  0.0141  0.1439
 1644DOPS   C4B19294  18.428  23.356  14.486 -0.0819 -0.0854 -0.0238
 1645DOPC   NC319295  21.493  14.330  15.014 -0.1529 -0.1327 -0.0875
 1645DOPC   PO419296  21.397  14.572  14.677 -0.2131 -0.4061 -0.2421
 1645DOPC   GL119297  21.183  14.571  14.255 -0.1506 -0.0033  0.1866
 1645DOPC   GL219298  21.093  14.336  14.354  0.1935  0.0153  0.0453
 1645DOPC   C1A19299  21.194  14.365  13.852 -0.4779  0.1791 -0.2308
 1645DOPC   D2A19300  21.171  14.316  13.370 -0.6841  0.2416  0.0982
 1645DOPC   C3A19301  21.465  14.275  12.971  0.0885 -0.1883  0.0484
 1645DOPC   C4A19302  21.425  14.374  12.512 -0.1690  0.1102 -0.0093
 1645DOPC   C1B19303  20.827  13.977  14.122  0.0607 -0.2051  0.1843
 1645DOPC   D2B19304  20.844  13.643  13.755  0.0907  0.0593  0.0269
 1645DOPC   C3B19305  20.677  13.220  13.835  0.2236  0.1725 -0.2104
 1645DOPC   C4B19306  20.660  12.836  13.669  0.2897  0.0169  0.0756
 1646DOPE   NH319307  17.220  16.195  13.797 -0.1381  0.1007 -0.0011
 1646DOPE   PO419308  17.138  16.042  13.554  0.0979 -0.0535  0.0447
 1646DOPE   GL119309  17.204  16.156  13.264  0.4047  0.1938 -0.3246
 1646DOPE   GL219310  16.959  16.370  13.168 -0.0095  0.2005 -0.2301
 1646DOPE   C1A19311  17.031  16.003  12.813  0.2724 -0.1011 -0.0532
 1646DOPE   D2A19312  16.828  15.707  12.513  0.0350 -0.1573  0.1914
 1646DOPE   C3A19313  16.895  15.457  12.096 -0.0331 -0.2313 -0.0172
 1646DOPE   C4A19314  17.167  15.451  11.734  0.0364  0.5156 -0.1917
 1646DOPE   C1B19315  16.784  16.544  12.780  0.0521 -0.0119  0.0184
 1646DOPE   D2B19316  16.716  16.996  12.668 -0.0829 -0.1281  0.2162
 1646DOPE   C3B19317  17.015  17.131  12.333  0.0694 -0.0660  0.0338
 1646DOPE   C4B19318  17.001  17.286  11.858  0.2024 -0.1312  0.3120
 1647DOPE   NH319319  16.437  16.834  13.864  0.2607  0.2236 -0.0515
 1647DOPE   PO419320  16.194  16.816  13.665 -0.0207 -0.1988  0.0690
 1647DOPE   GL119321  16.140  16.853  13.283 -0.0450 -0.1471  0.3812
 1647DOPE   GL219322  15.914  17.039  13.163 -0.1100  0.0416 -0.1906
 1647DOPE   C1A19323  16.324  16.702  12.887  0.1442  0.1248  0.0577
 1647DOPE   D2A19324  16.316  16.512  12.469 -0.0458  0.1786  0.0694
 1647DOPE   C3A19325  16.531  16.798  12.241  0.0601  0.2349 -0.0830
 1647DOPE   C4A19326  16.646  16.941  11.833 -0.0805  0.3076  0.0997
 1647DOPE   C1B19327  15.755  17.124  12.767  0.3145  0.1877 -0.3110
 1647DOPE   D2B19328  15.797  16.924  12.372  0.4185 -0.3081  0.0208
 1647DOPE   C3B19329  15.743  17.108  11.978 -0.2061 -0.0451  0.0066
 1647DOPE   C4B19330  15.812  17.029  11.534  0.0104 -0.0224  0.0909
 1648DOPC   NC319331  19.953  22.620  15.442  0.1449  0.3428 -0.2219
 1648DOPC   PO419332  19.897  22.231  15.368  0.1750 -0.1930  0.0438
 1648DOPC   GL119333  19.879  22.436  15.008 -0.0786 -0.2035  0.1896
 1648DOPC   GL219334  20.078  22.428  14.835 -0.4230 -0.0966  0.0977
 1648DOPC   C1A19335  19.656  22.291  14.666  0.2567  0.2770  0.1005
 1648DOPC   D2A19336  19.222  22.284  14.387  0.0307 -0.1527 -0.2403
 1648DOPC   C3A19337  19.132  22.633  14.045  0.2076 -0.2162  0.0753
 1648DOPC   C4A19338  18.913  22.890  13.812  0.1797 -0.0866 -0.1989
 1648DOPC   C1B19339  20.289  22.788  15.089 -0.1522 -0.3638 -0.1240
 1648DOPC   D2B19340  20.379  23.245  15.349 -0.2545 -0.0459 -0.0762
 1648DOPC   C3B19341  20.224  23.677  15.128 -0.0540 -0.2504 -0.0982
 1648DOPC   C4B19342  20.329  24.137  15.122 -0.0852 -0.3024 -0.0232
 1649POSM   NC319343  20.949  18.746  15.027 -0.0603  0.0095  0.0506
 1649POSM   PO419344  20.565  18.710  14.980  0.2107 -0.1762 -0.2007
 1649POSM   AM119345  20.570  18.673  14.654  0.0493 -0.2365  0.1144
 1649POSM   AM219346  20.573  18.426  14.532 -0.2580 -0.1147  0.1100
 1649POSM   T1A19347  20.391  18.763  14.220  0.0597  0.1327  0.2967
 1649POSM   C2A19348  20.232  19.112  14.010 -0.1195 -0.2193 -0.0593
 1649POSM   C3A19349  20.181  19.552  14.024  0.1134 -0.0949  0.0605
 1649POSM   C1B19350  20.530  18.180  14.287  0.3243 -0.4779  0.1667
 1649POSM   D2B19351  20.655  17.890  13.925  0.1126  0.0705  0.1066
 1649POSM   C3B19352  20.595  18.061  13.488 -0.0102  0.3695 -0.0704
 1649POSM   C4B19353  20.776  18.055  13.052  0.0835  0.1303 -0.2814
 1650DOPE   NH319354  12.234  21.692  15.125  0.1316  0.1369 -0.2084
 1650DOPE   PO419355  12.082  21.444  15.292  0.1344  0.0252  0.1056
 1650DOPE   GL119356  12.197  21.269  14.922 -0.2267  0.1405 -0.0348
 1650DOPE   GL219357  12.000  21.050  14.772 -0.2683  0.0151  0.0155
 1650DOPE   C1A19358  12.352  21.373  14.514  0.0086  0.1954 -0.0835
 1650DOPE   D2A19359  12.603  21.424  14.117 -0.3004  0.0184  0.0994
 1650DOPE   C3A19360  12.825  21.082  13.872 -0.0941  0.3724 -0.0798
 1650DOPE   C4A19361  13.045  20.755  13.642  0.1768 -0.4158  0.0927
 1650DOPE   C1B19362  11.799  21.319  14.420 -0.2298 -0.0471  0.2138
 1650DOPE   D2B19363  11.630  21.484  14.010  0.2778 -0.1087  0.2594
 1650DOPE   C3B19364  11.763  21.510  13.566 -0.1037 -0.1767 -0.1471
 1650DOPE   C4B19365  11.981  21.793  13.251  0.2144  0.0073 -0.2631
 1651DOPS   CNO19366  16.018  12.492  14.574  0.1679 -0.1056  0.1993
 1651DOPS   PO419367  15.777  12.695  14.375  0.0115 -0.0678 -0.1193
 1651DOPS   GL119368  15.873  12.919  13.964  0.1797 -0.0565 -0.1770
 1651DOPS   GL219369  15.625  12.979  13.752  0.0619 -0.1442 -0.1656
 1651DOPS   C1A19370  16.111  12.820  13.527 -0.1910 -0.0011 -0.3864
 1651DOPS   D2A19371  15.952  12.654  13.128 -0.0869 -0.2897  0.0314
 1651DOPS   C3A19372  15.617  12.532  12.778 -0.0805  0.3370 -0.1787
 1651DOPS   C4A19373  15.391  12.316  12.426 -0.1563 -0.0309 -0.0383
 1651DOPS   C1B19374  15.869  13.312  13.661 -0.1236  0.1238 -0.1628
 1651DOPS   D2B19375  15.578  13.703  13.687 -0.1194 -0.3198 -0.3319
 1651DOPS   C3B19376  15.664  13.825  13.292  0.1755  0.2103 -0.2451
 1651DOPS   C4B19377  15.376  13.725  12.966  0.0504 -0.0618  0.0188
 1652POSM   NC319378  18.252  19.914  15.210 -0.2409  0.2091 -0.0323
 1652POSM   PO419379  18.566  19.729  14.999 -0.0496 -0.2403 -0.0614
 1652POSM   AM119380  18.517  19.850  14.705 -0.1507 -0.0860 -0.2929
 1652POSM   AM219381  18.676  19.930  14.557  0.1265  0.3966  0.0240
 1652POSM   T1A19382  18.340  19.740  14.224  0.0176  0.2158  0.0047
 1652POSM   C2A19383  18.296  19.807  13.769 -0.1771 -0.2159  0.0081
 1652POSM   C3A19384  18.195  19.899  13.320 -0.2020 -0.2713  0.0460
 1652POSM   C1B19385  18.686  20.064  14.228  0.1144  0.0938 -0.2394
 1652POSM   D2B19386  18.714  20.291  13.808 -0.1347  0.1628 -0.0425
 1652POSM   C3B19387  18.805  20.760  13.641  0.2395 -0.0764  0.5354
 1652POSM   C4B19388  18.919  21.216  13.622 -0.2679  0.1174  0.0676
 1653POSM   NC319389  15.920  19.601  14.547  0.0190 -0.4057  0.0833
 1653POSM   PO419390  15.505  19.556  14.604  0.0185 -0.0286  0.2497
 1653POSM   AM119391  15.496  19.728  14.315 -0.1532 -0.0977 -0.3201
 1653POSM   AM219392  15.614  19.685  14.064 -0.2537  0.2598 -0.1334
 1653POSM   T1A19393  15.282  20.025  13.984  0.0738 -0.1411 -0.3555
 1653POSM   C2A19394  14.834  20.060  13.841 -0.0059  0.1819  0.0881
 1653POSM   C3A19395  14.457  19.787  13.737 -0.0752 -0.1827 -0.1230
 1653POSM   C1B19396  15.825  19.637  13.779 -0.2327 -0.1286  0.0960
 1653POSM   D2B19397  16.146  19.356  13.635 -0.2512  0.2319 -0.0855
 1653POSM   C3B19398  16.467  19.582  13.354  0.1262 -0.1223 -0.1171
 1653POSM   C4B19399  16.601  19.702  12.872 -0.3011 -0.1694 -0.0338
 1654DOPC   NC319400  14.786  11.565  14.167  0.0478  0.1065 -0.1571
 1654DOPC   PO419401  14.789  11.966  14.085  0.2428 -0.2303  0.0358
 1654DOPC   GL119402  14.817  11.924  13.685 -0.1140  0.1944  0.4547
 1654DOPC   GL219403  14.635  11.746  13.688 -0.2754  0.1202 -0.3403
 1654DOPC   C1A19404  14.383  12.123  13.541  0.2235  0.0044 -0.2201
 1654DOPC   D2A19405  13.932  12.113  13.406  0.1997 -0.1725 -0.1785
 1654DOPC   C3A19406  13.497  12.223  13.341  0.0309 -0.0007  0.0351
 1654DOPC   C4A19407  13.118  12.345  13.023  0.1179 -0.2879 -0.1257
 1654DOPC   C1B19408  14.731  11.784  13.209 -0.1161  0.0522 -0.0857
 1654DOPC   D2B19409  14.669  11.407  12.943 -0.0718  0.2245  0.0474
 1654DOPC   C3B19410  14.568  10.954  13.085  0.1529 -0.1081 -0.0114
 1654DOPC   C4B19411  14.199  10.669  13.124 -0.1116 -0.2256 -0.2561
 1655DOPS   CNO19412  18.775  15.889  14.014 -0.0198 -0.1019  0.0978
 1655DOPS   PO419413  18.529  15.964  13.692  0.2160 -0.0493 -0.0006
 1655DOPS   GL119414  18.519  16.218  13.362 -0.2549 -0.0502  0.0259
 1655DOPS   GL219415  18.772  16.291  13.320  0.2712 -0.2575  0.2542
 1655DOPS   C1A19416  18.432  16.080  12.920  0.1978  0.1458  0.0191
 1655DOPS   D2A19417  18.431  15.944  12.454 -0.2638  0.1838  0.3620
 1655DOPS   C3A19418  18.065  15.973  12.167  0.1351 -0.0076  0.2308
 1655DOPS   C4A19419  17.939  15.987  11.728  0.2625  0.1661  0.1679
 1655DOPS   C1B19420  18.910  16.420  12.922  0.2024 -0.3066  0.0705
 1655DOPS   D2B19421  19.223  16.578  12.620 -0.0812  0.2211 -0.3525
 1655DOPS   C3B19422  19.647  16.390  12.701 -0.1921  0.1479 -0.1704
 1655DOPS   C4B19423  19.995  16.057  12.819  0.0367  0.1039 -0.0047
 1656DOPE   NH319424  20.251  21.606  14.927  0.0184  0.0334  0.2351
 1656DOPE   PO419425  20.214  21.902  14.937 -0.0019  0.0287  0.0115
 1656DOPE   GL119426  20.446  22.134  14.667  0.1119 -0.0920  0.0475
 1656DOPE   GL219427  20.298  22.175  14.355  0.0666  0.1331 -0.0735
 1656DOPE   C1A19428  20.814  22.111  14.400 -0.0922  0.0842 -0.0597
 1656DOPE   D2A19429  21.113  22.196  14.017 -0.1677  0.2989  0.1331
 1656DOPE   C3A19430  20.906  22.471  13.691 -0.0969 -0.2424 -0.1929
 1656DOPE   C4A19431  20.923  22.922  13.533  0.1127  0.1923  0.2645
 1656DOPE   C1B19432  20.364  22.350  13.884  0.3510 -0.1589  0.0646
 1656DOPE   D2B19433  20.418  22.594  13.494  0.1236 -0.0786  0.3084
 1656DOPE   C3B19434  20.506  22.425  13.123 -0.2083 -0.2408 -0.0776
 1656DOPE   C4B19435  20.347  22.553  12.698 -0.0169 -0.1706 -0.2490
 1657POSM   NC319436  20.879  17.013  14.707  0.3480 -0.0714  0.0446
 1657POSM   PO419437  20.586  17.284  14.617  0.1706 -0.0649  0.2100
 1657POSM   AM119438  20.820  17.455  14.473  0.1182 -0.0452 -0.2294
 1657POSM   AM219439  21.087  17.436  14.589  0.1112  0.0544  0.1751
 1657POSM   T1A19440  21.013  17.573  14.028  0.2164 -0.0794 -0.1496
 1657POSM   C2A19441  21.384  17.380  13.780  0.0269 -0.4735 -0.4791
 1657POSM   C3A19442  21.763  17.328  13.618 -0.1806 -0.2340 -0.0392
 1657POSM   C1B19443  21.313  17.491  14.402  0.1510 -0.1402 -0.0745
 1657POSM   D2B19444  21.566  17.763  14.137  0.1276  0.0577  0.0528
 1657POSM   C3B19445  21.764  17.855  13.735 -0.2509  0.0824  0.1456
 1657POSM   C4B19446  21.865  17.954  13.271 -0.0973  0.2004  0.0328
 1658POSM   NC319447  22.465  13.837  15.928 -0.1145 -0.1734 -0.3900
 1658POSM   PO419448  22.117  13.755  15.728  0.3961 -0.1808  0.1971
 1658POSM   AM119449  22.346  13.677  15.474  0.0304  0.0231  0.1788
 1658POSM   AM219450  22.612  13.776  15.444 -0.0330 -0.2597 -0.0221
 1658POSM   T1A19451  22.525  13.343  15.170  0.2123  0.0736 -0.0136
 1658POSM   C2A19452  22.361  13.198  14.762  0.0785 -0.0097  0.2586
 1658POSM   C3A19453  22.316  13.198  14.316 -0.2035 -0.3376  0.1276
 1658POSM   C1B19454  22.600  13.845  15.150  0.1012  0.2726  0.0260
 1658POSM   D2B19455  22.711  13.809  14.663 -0.1174 -0.3270 -0.0824
 1658POSM   C3B19456  22.414  13.684  14.360 -0.4276  0.1793  0.2343
 1658POSM   C4B19457  22.305  13.538  13.909 -0.1473  0.1618  0.2378
 1659DOPC   NC319458  12.774  20.183  14.977  0.2300  0.0743  0.3383
 1659DOPC   PO419459  12.987  20.489  14.955 -0.5319 -0.1071  0.1458
 1659DOPC   GL119460  12.815  20.378  14.518 -0.0524  0.3495 -0.0744
 1659DOPC   GL219461  13.040  20.346  14.420  0.0324 -0.1197 -0.0904
 1659DOPC   C1A19462  12.780  20.330  14.035  0.0926  0.0452 -0.1723
 1659DOPC   D2A19463  12.914  19.949  13.735 -0.0013  0.0066  0.0717
 1659DOPC   C3A19464  12.770  19.785  13.298  0.0579 -0.2310 -0.1069
 1659DOPC   C4A19465  12.773  19.644  12.957 -0.0171  0.1020  0.2527
 1659DOPC   C1B19466  13.079  20.735  14.146  0.0641  0.1879  0.2492
 1659DOPC   D2B19467  13.270  21.169  14.214 -0.0214 -0.1895  0.0543
 1659DOPC   C3B19468  13.774  21.253  14.136 -0.2017  0.5405  0.2812
 1659DOPC   C4B19469  14.183  21.061  14.184  0.1747  0.0758 -0.1005
 1660DOPC   NC319470  12.622  14.519  14.505 -0.0559 -0.0329 -0.3214
 1660DOPC   PO419471  12.989  14.553  14.338 -0.3445  0.0186 -0.1072
 1660DOPC   GL119472  12.815  14.705  14.059  0.2533  0.2651  0.4261
 1660DOPC   GL219473  12.869  14.460  13.833 -0.1352  0.0744  0.1835
 1660DOPC   C1A19474  12.606  14.904  13.725 -0.0593 -0.2120  0.0633
 1660DOPC   D2A19475  12.571  15.310  13.558  0.0640  0.0001 -0.0830
 1660DOPC   C3A19476  12.222  15.577  13.393  0.0188  0.5461  0.1359
 1660DOPC   C4A19477  11.879  15.870  13.387  0.1883 -0.2861  0.3163
 1660DOPC   C1B19478  12.940  14.204  13.423  0.2366  0.0832 -0.4481
 1660DOPC   D2B19479  12.851  14.166  12.974 -0.0414  0.1538  0.0618
 1660DOPC   C3B19480  12.548  14.043  12.654 -0.1025  0.0687  0.1745
 1660DOPC   C4B19481  12.203  14.261  12.380 -0.2516  0.0862  0.2564
 1661POSM   NC319482  17.336  11.892  14.838 -0.0878  0.1967  0.2583
 1661POSM   PO419483  17.646  11.757  15.059  0.2005  0.1852  0.2515
 1661POSM   AM119484  17.509  11.488  14.867 -0.0437  0.0633  0.0109
 1661POSM   AM219485  17.438  11.365  14.609  0.5385  0.1041  0.1486
 1661POSM   T1A19486  17.666  10.975  14.833  0.3408 -0.1199 -0.0767
 1661POSM   C2A19487  17.626  10.479  14.689  0.0060  0.0336 -0.1742
 1661POSM   C3A19488  17.761  10.021  14.537 -0.1312 -0.3035 -0.0624
 1661POSM   C1B19489  17.379  11.563  14.349 -0.2067  0.1935  0.4438
 1661POSM   D2B19490  17.396  11.833  14.009 -0.0013  0.3416 -0.0999
 1661POSM   C3B19491  17.784  11.643  13.868 -0.0736 -0.1994 -0.3480
 1661POSM   C4B19492  18.189  11.408  14.012  0.5202  0.1576 -0.3533
 1662POSM   NC319493  22.003  16.924  15.282  0.0629  0.0663 -0.0313
 1662POSM   PO419494  21.645  16.839  15.170  0.2348  0.2157  0.2692
 1662POSM   AM119495  21.834  16.868  14.860 -0.4676  0.1061  0.2048
 1662POSM   AM219496  22.091  16.894  14.733 -0.2735  0.1132  0.0004
 1662POSM   T1A19497  21.931  16.632  14.370 -0.0343  0.0330  0.0729
 1662POSM   C2A19498  21.933  16.302  13.964  0.0969 -0.0130 -0.3638
 1662POSM   C3A19499  21.608  16.215  13.668 -0.0821 -0.4160 -0.0571
 1662POSM   C1B19500  22.372  17.078  14.727 -0.2613 -0.0935 -0.0879
 1662POSM   D2B19501  22.724  17.237  14.414 -0.0427 -0.2894 -0.0890
 1662POSM   C3B19502  22.557  17.373  14.017  0.1172 -0.1434  0.0015
 1662POSM   C4B19503  22.380  17.089  13.687  0.1355 -0.1235  0.1122
 1663DOPE   NH319504  21.087  21.627  15.394 -0.0625 -0.1064 -0.1877
 1663DOPE   PO419505  21.171  21.952  15.347 -0.0235  0.0807 -0.1403
 1663DOPE   GL119506  21.404  21.864  15.050 -0.1037 -0.2699  0.1008
 1663DOPE   GL219507  21.366  21.605  14.927  0.3176  0.3219 -0.0265
 1663DOPE   C1A19508  21.756  22.011  14.845  0.2388  0.2458 -0.3075
 1663DOPE   D2A19509  22.117  22.270  14.758  0.0045 -0.2993 -0.3495
 1663DOPE   C3A19510  22.351  22.211  14.377  0.3180  0.2837  0.0872
 1663DOPE   C4A19511  22.356  21.963  13.944  0.2898  0.2817  0.0072
 1663DOPE   C1B19512  21.673  21.603  14.581 -0.1160  0.0179  0.1330
 1663DOPE   D2B19513  21.912  21.905  14.389 -0.1671  0.0998  0.1028
 1663DOPE   C3B19514  21.910  21.778  13.920  0.1807  0.2139  0.0394
 1663DOPE   C4B19515  22.116  21.858  13.524  0.0519  0.0454 -0.0945
 1664DOPC   NC319516  18.867  21.495  15.302 -0.0152 -0.2748  0.1543
 1664DOPC   PO419517  18.769  21.559  14.896  0.3386  0.1374  0.0553
 1664DOPC   GL119518  18.512  21.330  14.670 -0.2027 -0.0724 -0.2489
 1664DOPC   GL219519  18.575  21.462  14.438 -0.0955 -0.4017  0.1297
 1664DOPC   C1A19520  18.093  21.357  14.498  0.1975 -0.0790 -0.2038
 1664DOPC   D2A19521  17.797  21.581  14.186 -0.0744 -0.4064  0.2242
 1664DOPC   C3A19522  17.514  21.918  14.441  0.0742  0.0679 -0.0026
 1664DOPC   C4A19523  17.369  22.016  14.857 -0.2824  0.0169  0.4532
 1664DOPC   C1B19524  18.780  21.151  14.204  0.2148  0.1577  0.2162
 1664DOPC   D2B19525  18.721  20.677  14.135  0.0325 -0.1244 -0.1364
 1664DOPC   C3B19526  18.339  20.619  13.944 -0.0523  0.0493 -0.1470
 1664DOPC   C4B19527  17.940  20.719  14.051  0.0464  0.0948  0.2528
 1665DOPE   NH319528  18.688  17.052  15.286 -0.0851  0.2209  0.1806
 1665DOPE   PO419529  18.704  17.116  14.990  0.1601  0.0166  0.3811
 1665DOPE   GL119530  18.741  17.170  14.564 -0.0068 -0.0433  0.1786
 1665DOPE   GL219531  19.077  17.040  14.543  0.0080 -0.1281  0.1879
 1665DOPE   C1A19532  18.694  17.419  14.163  0.0814 -0.0868 -0.2431
 1665DOPE   D2A19533  18.729  17.449  13.713  0.2943 -0.2991  0.2208
 1665DOPE   C3A19534  18.628  17.921  13.663  0.2259 -0.0083 -0.2096
 1665DOPE   C4A19535  18.958  18.240  13.811  0.1686  0.2187  0.2164
 1665DOPE   C1B19536  19.088  17.154  14.154  0.0106  0.4404 -0.2213
 1665DOPE   D2B19537  19.282  17.164  13.793  0.0880  0.1700  0.1811
 1665DOPE   C3B19538  19.015  17.204  13.402 -0.2438 -0.6233  0.1016
 1665DOPE   C4B19539  19.074  16.894  13.115  0.1026 -0.4354  0.1088
 1666DOPE   NH319540  20.536  14.294  14.503 -0.1414  0.1109 -0.0401
 1666DOPE   PO419541  20.616  14.602  14.478 -0.2163 -0.0614  0.0819
 1666DOPE   GL119542  20.764  14.545  14.088  0.2195  0.0166 -0.1033
 1666DOPE   GL219543  20.841  14.699  13.848 -0.0379  0.0878  0.0913
 1666DOPE   C1A19544  20.565  14.357  13.720 -0.0475 -0.2092  0.1505
 1666DOPE   D2A19545  20.770  14.049  13.401  0.2547  0.2841  0.0542
 1666DOPE   C3A19546  20.567  13.706  13.115  0.3450  0.0790 -0.0417
 1666DOPE   C4A19547  20.403  13.359  12.857  0.0101 -0.1712  0.3841
 1666DOPE   C1B19548  21.264  14.811  13.602  0.2904  0.1914 -0.2786
 1666DOPE   D2B19549  21.449  14.755  13.215 -0.1519 -0.1567  0.2671
 1666DOPE   C3B19550  21.203  14.718  12.779 -0.0954  0.1514  0.0357
 1666DOPE   C4B19551  21.163  14.816  12.351 -0.3182 -0.2303 -0.0747
 1667DOPE   NH319552  18.197  14.947  13.870  0.0048 -0.0528 -0.0584
 1667DOPE   PO419553  18.340  14.733  13.736 -0.1361 -0.4839  0.2393
 1667DOPE   GL119554  18.183  14.602  13.435 -0.1024  0.3072 -0.2222
 1667DOPE   GL219555  18.263  14.806  13.199 -0.0158  0.2050 -0.0919
 1667DOPE   C1A19556  18.330  14.285  13.154  0.2511 -0.0943  0.0843
 1667DOPE   D2A19557  18.496  13.853  13.026 -0.1317 -0.5528  0.0270
 1667DOPE   C3A19558  18.567  13.950  12.564  0.0454  0.2326 -0.0011
 1667DOPE   C4A19559  18.360  14.018  12.179  0.1415  0.1164 -0.0108
 1667DOPE   C1B19560  18.391  14.658  12.807  0.1240  0.0483  0.0656
 1667DOPE   D2B19561  18.370  14.500  12.376 -0.1008  0.5150 -0.1403
 1667DOPE   C3B19562  18.765  14.403  12.133  0.1258  0.2146  0.1177
 1667DOPE   C4B19563  19.155  14.176  11.962  0.0701  0.1103 -0.1161
 1668DOPS   CNO19564  12.688  17.158  15.117 -0.3379  0.1765 -0.1786
 1668DOPS   PO419565  12.726  16.993  14.742 -0.0895  0.2279 -0.1132
 1668DOPS   GL119566  12.714  17.089  14.298 -0.2597 -0.1832  0.2264
 1668DOPS   GL219567  12.590  16.877  14.095 -0.0180  0.0072 -0.5558
 1668DOPS   C1A19568  12.675  17.504  14.049 -0.1138 -0.1033  0.0259
 1668DOPS   D2A19569  12.667  17.583  13.573  0.1796  0.0776 -0.0755
 1668DOPS   C3A19570  12.574  17.256  13.319  0.1430 -0.1432  0.3635
 1668DOPS   C4A19571  12.516  16.814  13.433 -0.0622 -0.4247  0.0395
 1668DOPS   C1B19572  12.404  17.160  13.863 -0.0352  0.0787 -0.1859
 1668DOPS   D2B19573  12.082  17.489  13.749  0.2812 -0.1757 -0.0461
 1668DOPS   C3B19574  12.019  17.505  13.256  0.0018 -0.0242  0.0114
 1668DOPS   C4B19575  11.660  17.296  13.043  0.2468  0.0793  0.0577
 1669DOPE   NH319576  16.806  19.069  14.318 -0.1753  0.0214 -0.0387
 1669DOPE   PO419577  17.130  18.965  14.233  0.4613  0.1131 -0.1965
 1669DOPE   GL119578  17.371  18.954  13.895 -0.2464  0.1191  0.0858
 1669DOPE   GL219579  17.255  19.099  13.593  0.0012  0.3552  0.3812
 1669DOPE   C1A19580  17.755  19.181  13.805  0.3035 -0.1974 -0.4315
 1669DOPE   D2A19581  17.820  19.609  13.700  0.0303  0.0330  0.4249
 1669DOPE   C3A19582  17.676  20.051  13.538 -0.0565  0.3471 -0.0197
 1669DOPE   C4A19583  17.472  20.274  13.196 -0.2603 -0.1290 -0.0726
 1669DOPE   C1B19584  17.573  19.191  13.348 -0.0645  0.4100  0.0221
 1669DOPE   D2B19585  17.877  19.450  13.094 -0.0215  0.1700 -0.2710
 1669DOPE   C3B19586  18.161  19.294  12.749  0.0424 -0.0185  0.1323
 1669DOPE   C4B19587  18.615  19.312  12.588  0.1106 -0.5061 -0.2955
 1670DOPE   NH319588  14.137  18.049  13.829  0.4873  0.0559  0.0201
 1670DOPE   PO419589  14.378  18.160  13.613  0.0833  0.0040  0.1612
 1670DOPE   GL119590  14.493  18.287  13.284  0.1111 -0.1577 -0.0631
 1670DOPE   GL219591  14.787  18.290  13.330 -0.3421  0.2194 -0.2919
 1670DOPE   C1A19592  14.341  18.152  12.851 -0.1296  0.1646 -0.1084
 1670DOPE   D2A19593  14.356  18.214  12.399  0.0547 -0.0800  0.1153
 1670DOPE   C3A19594  13.996  18.451  12.294 -0.2472 -0.1671  0.2014
 1670DOPE   C4A19595  13.621  18.679  12.095 -0.2482 -0.0936 -0.0542
 1670DOPE   C1B19596  14.769  18.336  12.849 -0.2036 -0.2640  0.2840
 1670DOPE   D2B19597  14.893  18.325  12.394  0.3015 -0.0606  0.1035
 1670DOPE   C3B19598  14.754  18.039  12.086 -0.3749  0.2680 -0.0027
 1670DOPE   C4B19599  14.582  17.826  11.733  0.0145  0.0330 -0.2647
 1671POSM   NC319600  15.218  11.630  14.868 -0.0748  0.1909  0.2691
 1671POSM   PO419601  15.005  11.389  14.655 -0.0302  0.0201  0.0800
 1671POSM   AM119602  15.166  11.293  14.363  0.3097 -0.2308  0.0405
 1671POSM   AM219603  15.243  11.409  14.076 -0.1624  0.0298  0.0398
 1671POSM   T1A19604  15.320  10.914  14.093 -0.2086  0.4080 -0.1244
 1671POSM   C2A19605  15.550  10.710  13.780 -0.0894  0.2339 -0.1263
 1671POSM   C3A19606  15.914  10.687  13.541  0.3340 -0.4787  0.1902
 1671POSM   C1B19607  15.094  11.427  13.758 -0.1116  0.4916  0.0119
 1671POSM   D2B19608  14.987  11.293  13.330  0.0494 -0.2224  0.1245
 1671POSM   C3B19609  15.131  11.588  12.958  0.0136  0.0633  0.2103
 1671POSM   C4B19610  15.169  12.029  12.852 -0.2454 -0.0376  0.0078
 1672POSM   NC319611  16.081  14.638  13.572  0.3099 -0.0026  0.1247
 1672POSM   PO419612  16.430  14.758  13.491  0.3222  0.1578 -0.1876
 1672POSM   AM119613  16.285  14.864  13.217 -0.0305 -0.1906 -0.0028
 1672POSM   AM219614  16.044  14.844  13.096 -0.0185  0.0024 -0.2448
 1672POSM   T1A19615  16.295  15.037  12.726  0.1768  0.0402  0.0643
 1672POSM   C2A19616  16.428  15.307  12.387  0.2202 -0.0426 -0.0292
 1672POSM   C3A19617  16.387  15.776  12.298  0.1793  0.2182  0.2787
 1672POSM   C1B19618  15.979  14.571  12.855  0.2274  0.1614  0.0115
 1672POSM   D2B19619  15.810  14.360  12.490  0.1538 -0.0424 -0.0384
 1672POSM   C3B19620  15.773  14.624  12.082 -0.2167 -0.0372 -0.1748
 1672POSM   C4B19621  15.598  14.998  11.830  0.3448 -0.1193 -0.2950
 1673DOPC   NC319622  16.387  18.022  14.048  0.1096  0.0211  0.3157
 1673DOPC   PO419623  16.758  18.179  13.971 -0.1159  0.1960  0.1117
 1673DOPC   GL119624  16.931  18.452  13.720 -0.1109  0.0349  0.1633
 1673DOPC   GL219625  17.221  18.519  13.851 -0.3756  0.2428 -0.1179
 1673DOPC   C1A19626  16.823  18.156  13.296 -0.1652 -0.1170 -0.1244
 1673DOPC   D2A19627  16.777  17.943  12.943 -0.0020  0.0810 -0.0494
 1673DOPC   C3A19628  16.837  18.042  12.538 -0.1369  0.2413 -0.1648
 1673DOPC   C4A19629  16.708  18.000  12.054  0.0428 -0.2790 -0.3983
 1673DOPC   C1B19630  17.340  18.319  13.453 -0.1374 -0.0538  0.1362
 1673DOPC   D2B19631  17.299  17.988  13.111 -0.1159 -0.1608  0.1521
 1673DOPC   C3B19632  17.329  18.056  12.651  0.1666 -0.1580 -0.0776
 1673DOPC   C4B19633  17.201  18.106  12.242 -0.0335 -0.0724  0.3397
 1674DOPC   NC319634  15.516  20.437  15.332  0.2964  0.0608  0.0529
 1674DOPC   PO419635  15.597  20.780  15.147  0.0379  0.1145 -0.2035
 1674DOPC   GL119636  15.518  20.706  14.761 -0.4529 -0.2585 -0.1755
 1674DOPC   GL219637  15.533  20.932  14.628  0.1280 -0.1357 -0.1955
 1674DOPC   C1A19638  15.559  20.475  14.350  0.0532  0.0248 -0.4270
 1674DOPC   D2A19639  15.750  20.161  14.119 -0.3031  0.4284 -0.0485
 1674DOPC   C3A19640  15.644  20.122  13.660  0.0092 -0.2016  0.0866
 1674DOPC   C4A19641  15.680  20.427  13.329  0.0983 -0.0055 -0.5630
 1674DOPC   C1B19642  15.503  20.993  14.156  0.2467  0.0505  0.1952
 1674DOPC   D2B19643  15.626  21.461  14.032 -0.0402 -0.0572 -0.0917
 1674DOPC   C3B19644  15.574  21.477  13.536  0.1101  0.0471  0.0775
 1674DOPC   C4B19645  15.645  21.565  13.124 -0.0029  0.1316  0.1541
 1675POSM   NC319646  14.797  21.535  14.945  0.0929 -0.0729 -0.1524
 1675POSM   PO419647  14.486  21.702  14.680  0.2797 -0.2612  0.0262
 1675POSM   AM119648  14.424  21.917  14.433  0.0052 -0.1566  0.0615
 1675POSM   AM219649  14.620  22.142  14.336 -0.3413  0.0738  0.2575
 1675POSM   T1A19650  14.304  22.030  13.949 -0.0723 -0.0383 -0.1041
 1675POSM   C2A19651  13.978  22.135  13.659  0.2046  0.2260  0.1591
 1675POSM   C3A19652  13.754  22.391  13.329  0.0545 -0.0187  0.1365
 1675POSM   C1B19653  14.810  22.025  14.074 -0.1128 -0.0549 -0.0693
 1675POSM   D2B19654  14.866  22.018  13.602  0.1543 -0.2830  0.2008
 1675POSM   C3B19655  14.669  22.350  13.380  0.1040 -0.0697 -0.1243
 1675POSM   C4B19656  14.394  22.724  13.268  0.0536  0.2050 -0.1511
 1676DOPC   NC319657  19.710  13.263  14.360  0.0309  0.2178  0.2625
 1676DOPC   PO419658  19.672  13.629  14.406  0.0417 -0.2632 -0.1417
 1676DOPC   GL119659  19.696  13.649  14.012  0.2312 -0.2061  0.1204
 1676DOPC   GL219660  19.865  13.954  13.998  0.1151 -0.1065 -0.1507
 1676DOPC   C1A19661  19.963  13.726  13.592  0.0801  0.3929  0.2717
 1676DOPC   D2A19662  20.076  13.646  13.159 -0.0492 -0.0899  0.2101
 1676DOPC   C3A19663  19.861  13.474  12.838  0.1839  0.0533 -0.1444
 1676DOPC   C4A19664  20.025  13.222  12.470  0.1955  0.4238 -0.1213
 1676DOPC   C1B19665  19.594  14.089  13.648 -0.1977 -0.1606 -0.1390
 1676DOPC   D2B19666  19.724  14.095  13.215 -0.2984  0.0266  0.2140
 1676DOPC   C3B19667  19.773  14.396  12.861  0.1326  0.2122 -0.0533
 1676DOPC   C4B19668  19.684  14.560  12.445  0.1253  0.1650 -0.0805
 1677POSM   NC319669  12.238  19.563  15.196 -0.0178 -0.2233  0.0135
 1677POSM   PO419670  12.429  19.762  14.896 -0.0579  0.0450 -0.0102
 1677POSM   AM119671  12.218  19.726  14.647 -0.2849  0.3124 -0.2144
 1677POSM   AM219672  12.006  19.890  14.550  0.0195 -0.0382 -0.0008
 1677POSM   T1A19673  12.027  19.433  14.287  0.2190  0.1792  0.1247
 1677POSM   C2A19674  11.765  19.269  13.903 -0.1250 -0.0134  0.1978
 1677POSM   C3A19675  11.733  18.948  13.568  0.1976 -0.1072 -0.0980
 1677POSM   C1B19676  12.113  19.884  14.207 -0.1828 -0.0810 -0.4016
 1677POSM   D2B19677  12.076  19.637  13.858 -0.0529  0.2786  0.1449
 1677POSM   C3B19678  11.909  19.562  13.451  0.0607 -0.0269  0.0285
 1677POSM   C4B19679  11.599  19.329  13.243 -0.3647  0.0732 -0.1778
 1678DOPC   NC319680  14.081  15.994  14.373  0.1723 -0.0956  0.0768
 1678DOPC   PO419681  13.960  16.279  14.132 -0.3682  0.0530 -0.1964
 1678DOPC   GL119682  13.954  16.271  13.701 -0.2630  0.0155 -0.1166
 1678DOPC   GL219683  13.713  16.291  13.710  0.0793  0.0685  0.1392
 1678DOPC   C1A19684  14.219  16.296  13.307 -0.2248  0.0995 -0.0048
 1678DOPC   D2A19685  14.246  16.790  13.214 -0.2098 -0.2149  0.2188
 1678DOPC   C3A19686  14.108  16.988  12.828  0.0910 -0.3313 -0.1304
 1678DOPC   C4A19687  14.372  16.964  12.418  0.4016  0.2780 -0.0212
 1678DOPC   C1B19688  13.654  16.442  13.304  0.2174  0.1301 -0.0138
 1678DOPC   D2B19689  13.607  16.627  12.894 -0.1366  0.0043 -0.1178
 1678DOPC   C3B19690  13.537  16.598  12.470  0.0370  0.1047  0.4108
 1678DOPC   C4B19691  13.208  16.480  12.133 -0.1083 -0.0634  0.0141
 1679POSM   NC319692  13.716  22.279  15.028 -0.3937  0.3168  0.2835
 1679POSM   PO419693  13.334  22.387  15.017 -0.1909 -0.2134 -0.0374
 1679POSM   AM119694  13.284  22.469  14.703  0.4829 -0.2825  0.2226
 1679POSM   AM219695  13.404  22.512  14.426 -0.3469  0.1787 -0.0404
 1679POSM   T1A19696  13.004  22.760  14.370  0.0775  0.0423 -0.0153
 1679POSM   C2A19697  12.969  22.873  13.923  0.0513 -0.3356  0.0080
 1679POSM   C3A19698  12.681  22.853  13.557  0.0553  0.0058  0.0561
 1679POSM   C1B19699  13.522  22.764  14.197 -0.1173 -0.0338  0.0125
 1679POSM   D2B19700  13.428  22.940  13.830  0.2282 -0.1884 -0.0333
 1679POSM   C3B19701  13.502  22.838  13.390  0.2271  0.0359  0.0113
 1679POSM   C4B19702  13.910  22.786  13.147 -0.5084 -0.0423 -0.2743
 1680DOPE   NH319703  15.145  18.692  14.374  0.2259 -0.0655 -0.2081
 1680DOPE   PO419704  14.918  18.616  14.166 -0.2886 -0.2398  0.0313
 1680DOPE   GL119705  14.830  18.708  13.881  0.0290  0.2301 -0.1009
 1680DOPE   GL219706  14.700  18.941  13.826  0.0403  0.2536  0.1785
 1680DOPE   C1A19707  15.067  18.761  13.484 -0.1498 -0.1151  0.0774
 1680DOPE   D2A19708  15.393  18.979  13.342 -0.0369  0.0365 -0.0028
 1680DOPE   C3A19709  15.532  18.774  12.986 -0.1860 -0.0242 -0.0055
 1680DOPE   C4A19710  15.305  18.732  12.596  0.1055  0.1781 -0.3846
 1680DOPE   C1B19711  14.606  18.759  13.380  0.1455  0.1747 -0.2970
 1680DOPE   D2B19712  14.356  18.643  12.973  0.0278  0.0642 -0.0005
 1680DOPE   C3B19713  14.449  18.697  12.530  0.1216 -0.0539  0.5539
 1680DOPE   C4B19714  14.831  18.885  12.357 -0.0131  0.0213  0.2957
 1681DOPC   NC319715  21.230  13.538  15.242 -0.3191  0.0503  0.4432
 1681DOPC   PO419716  21.163  13.860  15.017  0.1970  0.0109 -0.0389
 1681DOPC   GL119717  21.015  13.649  14.724  0.1057 -0.1510 -0.0553
 1681DOPC   GL219718  21.020  13.790  14.482 -0.0288 -0.0052 -0.0116
 1681DOPC   C1A19719  20.828  13.246  14.694 -0.0771  0.2825  0.1803
 1681DOPC   D2A19720  20.702  12.987  14.285  0.0814 -0.3857 -0.0000
 1681DOPC   C3A19721  20.348  12.940  14.074 -0.0184  0.0808 -0.1968
 1681DOPC   C4A19722  19.903  13.012  13.981  0.0035 -0.0058  0.0942
 1681DOPC   C1B19723  21.356  13.767  14.113  0.1151 -0.0025  0.0232
 1681DOPC   D2B19724  21.347  13.938  13.654 -0.1243 -0.2003  0.0872
 1681DOPC   C3B19725  21.098  13.719  13.334  0.0043 -0.1427 -0.0620
 1681DOPC   C4B19726  20.973  13.357  13.046  0.2863 -0.0333 -0.2643
 1682DOPC   NC319727  17.147  12.481  14.305  0.2781  0.1223 -0.4700
 1682DOPC   PO419728  17.278  12.339  14.650 -0.1913 -0.2712  0.0145
 1682DOPC   GL119729  17.564  12.261  14.413 -0.0873 -0.1238  0.2593
 1682DOPC   GL219730  17.657  11.967  14.450  0.1272 -0.1930  0.2009
 1682DOPC   C1A19731  17.772  12.184  13.975  0.0949  0.1877 -0.2034
 1682DOPC   D2A19732  17.961  11.990  13.572 -0.2777  0.2844  0.1510
 1682DOPC   C3A19733  18.431  12.062  13.365 -0.0993 -0.0743 -0.1150
 1682DOPC   C4A19734  18.653  12.278  13.027 -0.1024 -0.0464  0.1431
 1682DOPC   C1B19735  17.911  11.602  14.417 -0.2386 -0.0078  0.3387
 1682DOPC   D2B19736  18.377  11.582  14.461  0.0417 -0.0643 -0.0556
 1682DOPC   C3B19737  18.657  11.476  14.087 -0.0578 -0.0551 -0.1005
 1682DOPC   C4B19738  18.611  11.265  13.661  0.2058  0.1260 -0.1762
 1683DOPC   NC319739  14.983  17.204  13.686 -0.1073  0.0667 -0.0829
 1683DOPC   PO419740  15.320  16.977  13.786 -0.0473 -0.2093  0.3306
 1683DOPC   GL119741  15.092  16.882  13.368  0.0769  0.4828 -0.0448
 1683DOPC   GL219742  14.845  16.754  13.293 -0.0754 -0.0136 -0.1635
 1683DOPC   C1A19743  15.321  17.006  13.005  0.1223 -0.0802  0.0144
 1683DOPC   D2A19744  15.318  17.008  12.535  0.3027 -0.2404  0.0144
 1683DOPC   C3A19745  15.218  17.460  12.294 -0.0364  0.1611  0.1595
 1683DOPC   C4A19746  14.957  17.556  11.965  0.1311  0.0241 -0.0551
 1683DOPC   C1B19747  14.587  16.428  12.978  0.1227 -0.1983 -0.2499
 1683DOPC   D2B19748  14.211  16.511  12.743 -0.0287 -0.1245 -0.2533
 1683DOPC   C3B19749  14.005  16.211  12.423 -0.0748  0.0496  0.4533
 1683DOPC   C4B19750  13.717  16.220  12.014  0.2264  0.1060  0.1264
 1684DOPC   NC319751  21.747  19.883  14.814 -0.1547  0.0447 -0.3167
 1684DOPC   PO419752  21.419  20.131  14.700 -0.2850 -0.2226  0.0951
 1684DOPC   GL119753  21.587  20.009  14.348  0.1893 -0.0573 -0.1588
 1684DOPC   GL219754  21.571  19.658  14.303  0.0329  0.0986 -0.4672
 1684DOPC   C1A19755  21.885  20.238  14.065  0.0211 -0.2258  0.2605
 1684DOPC   D2A19756  21.822  20.573  13.756  0.2325 -0.1803  0.0856
 1684DOPC   C3A19757  21.633  20.487  13.405 -0.0881  0.0122  0.2051
 1684DOPC   C4A19758  21.207  20.522  13.148 -0.2905  0.0877  0.0064
 1684DOPC   C1B19759  21.426  19.672  13.831 -0.0629 -0.0714 -0.0627
 1684DOPC   D2B19760  21.366  19.535  13.373  0.3534  0.1758  0.0315
 1684DOPC   C3B19761  21.242  19.161  13.156  0.1562  0.0838 -0.0467
 1684DOPC   C4B19762  21.034  18.748  13.161 -0.2380 -0.1495 -0.0732
 1685DOPS   CNO19763  16.625  17.059  13.378  0.0448 -0.0221  0.0567
 1685DOPS   PO419764  16.888  17.030  13.674 -0.2560  0.4292  0.0759
 1685DOPS   GL119765  17.135  17.255  13.402  0.1125  0.3524  0.2687
 1685DOPS   GL219766  16.988  17.317  13.148  0.1886 -0.1247  0.0500
 1685DOPS   C1A19767  17.566  17.242  13.207  0.1182 -0.2338 -0.5030
 1685DOPS   D2A19768  17.944  17.331  13.027  0.1360 -0.1324 -0.1113
 1685DOPS   C3A19769  17.699  17.666  12.858  0.0665 -0.0834 -0.0006
 1685DOPS   C4A19770  17.786  17.975  12.522  0.3109 -0.2440  0.1288
 1685DOPS   C1B19771  17.029  17.481  12.751  0.2154  0.4092  0.1691
 1685DOPS   D2B19772  16.977  17.631  12.338 -0.0070  0.0369 -0.0292
 1685DOPS   C3B19773  16.627  17.347  12.208  0.2114 -0.0659 -0.2743
 1685DOPS   C4B19774  16.234  17.167  12.117 -0.0432 -0.1246  0.1117
 1686DOPC   NC319775  17.921  15.842  13.858  0.0440  0.1832  0.1698
 1686DOPC   PO419776  17.889  15.546  13.604 -0.3305  0.3354 -0.0406
 1686DOPC   GL119777  18.057  15.734  13.302 -0.1109  0.0139  0.0793
 1686DOPC   GL219778  18.244  15.846  13.342  0.2615  0.2552  0.0540
 1686DOPC   C1A19779  18.224  15.605  12.897 -0.0095 -0.1286 -0.0483
 1686DOPC   D2A19780  17.929  15.617  12.519  0.0661  0.1315 -0.2950
 1686DOPC   C3A19781  17.833  15.270  12.316 -0.0049 -0.0692 -0.2081
 1686DOPC   C4A19782  17.979  14.909  12.100  0.1148  0.0323  0.0815
 1686DOPC   C1B19783  18.013  16.183  13.158  0.3658 -0.1853  0.1212
 1686DOPC   D2B19784  17.551  16.317  12.962  0.0183  0.1563  0.1171
 1686DOPC   C3B19785  17.499  16.507  12.546  0.2812 -0.0625 -0.3942
 1686DOPC   C4B19786  17.451  16.786  12.161  0.1054 -0.1480  0.1101
 1687DOPS   CNO19787  19.491  19.154  14.575 -0.3272  0.1969  0.1907
 1687DOPS   PO419788  19.214  19.366  14.488  0.0615 -0.0789 -0.0386
 1687DOPS   GL119789  19.271  19.385  14.040 -0.1620 -0.2803  0.2804
 1687DOPS   GL219790  18.997  19.321  13.984  0.0820  0.0847 -0.1708
 1687DOPS   C1A19791  19.259  19.547  13.607 -0.0666 -0.0738 -0.0483
 1687DOPS   D2A19792  19.304  19.826  13.256 -0.0925  0.0444 -0.0033
 1687DOPS   C3A19793  19.220  19.960  12.817  0.0940 -0.3196 -0.1011
 1687DOPS   C4A19794  19.070  20.363  12.658  0.0281  0.2883  0.3713
 1687DOPS   C1B19795  18.873  19.764  13.830 -0.1227 -0.0425 -0.2091
 1687DOPS   D2B19796  18.712  19.941  13.404 -0.0036  0.5466 -0.0529
 1687DOPS   C3B19797  18.433  20.339  13.377  0.1059 -0.0008 -0.1107
 1687DOPS   C4B19798  18.066  20.352  13.056 -0.0565  0.0122 -0.1742
 1688POSM   NC319799  22.594  12.525  16.191 -0.1099 -0.1753 -0.3342
 1688POSM   PO419800  22.926  12.421  16.012  0.1507  0.0430  0.1113
 1688POSM   AM119801  22.920  12.329  15.744  0.1477  0.2705  0.1346
 1688POSM   AM219802  22.921  12.440  15.461  0.1007  0.2030  0.0455
 1688POSM   T1A19803  22.706  12.017  15.428  0.1003 -0.6029  0.4797
 1688POSM   C2A19804  22.530  11.970  15.012 -0.4324 -0.2163  0.1451
 1688POSM   C3A19805  22.783  11.859  14.656 -0.0419 -0.0086 -0.0061
 1688POSM   C1B19806  23.070  12.450  15.142 -0.0681 -0.2063 -0.1056
 1688POSM   D2B19807  23.321  12.217  14.806  0.3968  0.0892  0.0786
 1688POSM   C3B19808  23.261  11.913  14.463 -0.0745  0.1209 -0.0494
 1688POSM   C4B19809  22.970  11.911  14.128  0.1253  0.0899 -0.0765
 1689DOPS   CNO19810  16.335  16.274  13.726 -0.2295  0.2816  0.0163
 1689DOPS   PO419811  15.990  16.328  13.622  0.4051 -0.1189 -0.0609
 1689DOPS   GL119812  16.027  16.431  13.170 -0.0226 -0.2180 -0.1179
 1689DOPS   GL219813  16.183  16.167  13.102  0.2157 -0.0642 -0.0315
 1689DOPS   C1A19814  15.782  16.628  12.846 -0.2047  0.1751 -0.0020
 1689DOPS   D2A19815  15.477  16.508  12.495 -0.0707  0.4046  0.0211
 1689DOPS   C3A19816  15.570  16.617  12.015  0.3283  0.0959 -0.0107
 1689DOPS   C4A19817  15.742  16.573  11.615  0.3422 -0.1252 -0.0940
 1689DOPS   C1B19818  15.993  16.174  12.682  0.1863  0.0392 -0.2103
 1689DOPS   D2B19819  15.894  16.329  12.278  0.1865  0.0586 -0.1974
 1689DOPS   C3B19820  15.777  16.072  11.877  0.2412  0.1497  0.1281
 1689DOPS   C4B19821  15.393  16.128  11.596 -0.0863 -0.0595 -0.2560
 1690DOPS   CNO19822  12.316  14.660  14.115  0.2887  0.1262  0.1091
 1690DOPS   PO419823  12.380  14.919  14.366 -0.1608  0.0346  0.0716
 1690DOPS   GL119824  12.363  15.193  14.040  0.0364  0.3358 -0.0935
 1690DOPS   GL219825  12.007  15.194  14.126  0.0332  0.1064  0.1328
 1690DOPS   C1A19826  12.130  14.990  13.680 -0.2322 -0.0057 -0.1900
 1690DOPS   D2A19827  11.979  14.594  13.553  0.1106  0.0042  0.3685
 1690DOPS   C3A19828  12.173  14.366  13.238  0.2891  0.1980  0.1071
 1690DOPS   C4A19829  12.128  14.029  12.922  0.0402 -0.1621  0.0993
 1690DOPS   C1B19830  11.891  15.441  13.753 -0.1822  0.3396  0.0842
 1690DOPS   D2B19831  11.788  15.267  13.324  0.1476  0.1326 -0.0568
 1690DOPS   C3B19832  12.175  15.120  13.132  0.2525 -0.2971  0.0571
 1690DOPS   C4B19833  12.560  15.094  12.906  0.1580  0.2940  0.0611
 1691DOPE   NH319834  13.836  15.811  13.865  0.0798 -0.0399  0.1225
 1691DOPE   PO419835  14.151  15.858  13.884  0.0581 -0.1044 -0.2746
 1691DOPE   GL119836  14.269  15.790  13.596  0.3581  0.3429  0.1663
 1691DOPE   GL219837  14.051  15.812  13.404 -0.0545 -0.0221 -0.1399
 1691DOPE   C1A19838  14.585  15.979  13.283 -0.1158 -0.0083  0.1561
 1691DOPE   D2A19839  14.760  15.751  12.924 -0.2540 -0.0877 -0.0601
 1691DOPE   C3A19840  14.423  15.596  12.576 -0.2761  0.4569 -0.1692
 1691DOPE   C4A19841  14.197  15.283  12.450  0.2343 -0.1328 -0.0843
 1691DOPE   C1B19842  14.159  15.836  12.946 -0.0754 -0.0538 -0.2066
 1691DOPE   D2B19843  14.454  16.074  12.672 -0.0466 -0.0125  0.1375
 1691DOPE   C3B19844  14.647  16.492  12.475  0.3539 -0.0716 -0.0793
 1691DOPE   C4B19845  15.041  16.656  12.276 -0.0424  0.0914 -0.0144
 1692DOPE   NH319846  19.552  13.146  15.282 -0.0991 -0.2414 -0.2479
 1692DOPE   PO419847  19.540  12.879  15.061  0.0935  0.1443 -0.0603
 1692DOPE   GL119848  19.523  12.535  14.823 -0.0963  0.1544  0.2619
 1692DOPE   GL219849  19.837  12.522  14.677 -0.0985  0.1221  0.5071
 1692DOPE   C1A19850  19.591  12.092  14.686 -0.1393  0.0272 -0.0262
 1692DOPE   D2A19851  19.863  11.831  14.434  0.2318 -0.2079  0.0561
 1692DOPE   C3A19852  20.057  12.156  14.242 -0.1876  0.1460  0.0450
 1692DOPE   C4A19853  19.955  12.549  14.099  0.1477 -0.0896 -0.1075
 1692DOPE   C1B19854  19.986  12.899  14.585 -0.1600 -0.0047  0.1678
 1692DOPE   D2B19855  20.254  13.262  14.477 -0.0188 -0.0336 -0.0404
 1692DOPE   C3B19856  20.247  13.524  14.014 -0.0438 -0.0712 -0.2996
 1692DOPE   C4B19857  20.420  13.909  13.775  0.1052  0.1507  0.1430
 1693DOPE   NH319858  19.048  21.248  14.669 -0.0512 -0.1772  0.0969
 1693DOPE   PO419859  19.230  21.397  14.915  0.2312 -0.1346 -0.0602
 1693DOPE   GL119860  19.263  21.675  14.592  0.2841 -0.0512  0.0677
 1693DOPE   GL219861  19.108  21.908  14.674 -0.0979 -0.3079 -0.2855
 1693DOPE   C1A19862  19.037  21.739  14.193 -0.0720 -0.0102 -0.0431
 1693DOPE   D2A19863  19.002  22.173  13.945 -0.2266 -0.1193 -0.0848
 1693DOPE   C3A19864  18.645  22.314  13.768  0.2141 -0.0728 -0.1797
 1693DOPE   C4A19865  18.210  22.219  13.804 -0.1238 -0.1279  0.2576
 1693DOPE   C1B19866  18.715  22.063  14.486 -0.2654 -0.5149 -0.3948
 1693DOPE   D2B19867  18.524  21.934  14.121  0.1263  0.0570  0.0440
 1693DOPE   C3B19868  18.661  21.563  13.911  0.1018  0.0801  0.3516
 1693DOPE   C4B19869  18.535  21.509  13.469 -0.3331 -0.3182  0.2597
 1694DOPC   NC319870  15.849  18.852  14.072  0.3694 -0.2691  0.1357
 1694DOPC   PO419871  15.685  18.529  14.234  0.0496  0.1599  0.3304
 1694DOPC   GL119872  15.365  18.586  14.002  0.1248 -0.3386  0.1950
 1694DOPC   GL219873  15.323  18.838  13.931 -0.2168  0.0422 -0.0906
 1694DOPC   C1A19874  15.343  18.361  13.623  0.1001  0.1011  0.1813
 1694DOPC   D2A19875  15.208  17.939  13.478 -0.0863 -0.2112 -0.4744
 1694DOPC   C3A19876  15.068  17.924  13.017  0.3119  0.1232  0.4093
 1694DOPC   C4A19877  14.822  17.873  12.621 -0.1019  0.1257 -0.2292
 1694DOPC   C1B19878  15.550  19.175  13.798 -0.0900 -0.0648  0.2283
 1694DOPC   D2B19879  15.491  19.448  13.437 -0.0482  0.1848  0.1686
 1694DOPC   C3B19880  15.675  19.296  13.050  0.2231 -0.2251  0.0446
 1694DOPC   C4B19881  15.601  19.134  12.594 -0.1008  0.3093  0.2709
 1695DOPC   NC319882  22.725  15.410  15.370 -0.0916 -0.0430  0.3547
 1695DOPC   PO419883  22.498  15.647  15.119 -0.1462  0.3051 -0.0112
 1695DOPC   GL119884  22.675  15.638  14.800  0.0525 -0.1018  0.0746
 1695DOPC   GL219885  22.952  15.534  14.879  0.0561 -0.0333  0.0010
 1695DOPC   C1A19886  22.728  15.419  14.408 -0.2372  0.2794 -0.2933
 1695DOPC   D2A19887  22.432  15.339  14.098  0.0151  0.2185 -0.2591
 1695DOPC   C3A19888  22.358  15.394  13.579  0.0414  0.3876  0.0491
 1695DOPC   C4A19889  22.540  15.679  13.273 -0.0874 -0.2437  0.0453
 1695DOPC   C1B19890  23.217  15.368  14.500 -0.1183  0.0335 -0.0848
 1695DOPC   D2B19891  23.596  15.261  14.296  0.0841  0.0751  0.1760
 1695DOPC   C3B19892  23.685  15.493  13.954 -0.0718  0.0615  0.2355
 1695DOPC   C4B19893  23.601  15.631  13.518  0.3699  0.3572 -0.1049
 1696POSM   NC319894  14.219  17.244  14.084 -0.1041 -0.0539  0.2135
 1696POSM   PO419895  14.561  17.295  13.987  0.0017  0.0363 -0.0632
 1696POSM   AM119896  14.556  17.392  13.643  0.0591 -0.0642  0.0868
 1696POSM   AM219897  14.527  17.304  13.378 -0.0533  0.1395  0.4031
 1696POSM   T1A19898  14.953  17.456  13.252  0.0784 -0.1977  0.3120
 1696POSM   C2A19899  15.089  17.463  12.773  0.2931  0.0911 -0.2874
 1696POSM   C3A19900  15.513  17.613  12.724  0.2452 -0.2026  0.2505
 1696POSM   C1B19901  14.561  17.161  13.081 -0.1774 -0.0994  0.0647
 1696POSM   D2B19902  14.683  16.904  12.738 -0.0356 -0.0168  0.0676
 1696POSM   C3B19903  15.016  16.612  12.864 -0.0527 -0.1781  0.2410
 1696POSM   C4B19904  15.392  16.521  13.104  0.0287  0.2112  0.1624
 1697POSM   NC319905  13.064  22.071  14.706 -0.3123 -0.1120  0.1489
 1697POSM   PO419906  13.229  21.875  15.010 -0.1881  0.1945 -0.1054
 1697POSM   AM119907  13.474  21.827  14.791 -0.1844 -0.2123  0.1302
 1697POSM   AM219908  13.577  22.050  14.642 -0.0904  0.1995 -0.0331
 1697POSM   T1A19909  13.694  21.544  14.483 -0.1332  0.0447  0.1150
 1697POSM   C2A19910  14.171  21.525  14.344 -0.1454  0.0573 -0.1964
 1697POSM   C3A19911  14.229  21.468  13.913 -0.3305 -0.2669 -0.2216
 1697POSM   C1B19912  13.454  22.006  14.285 -0.0284  0.2264  0.0162
 1697POSM   D2B19913  13.534  22.046  13.825  0.3331  0.0391  0.2138
 1697POSM   C3B19914  13.041  22.030  13.658 -0.2650  0.1587  0.2077
 1697POSM   C4B19915  12.755  22.202  13.310  0.0348 -0.1272 -0.1458
 1698DOPE   NH319916  13.855  14.312  14.209 -0.2383  0.0898 -0.1583
 1698DOPE   PO419917  14.011  14.458  14.004 -0.3516 -0.4545 -0.2283
 1698DOPE   GL119918  13.941  14.403  13.546 -0.3344 -0.1935 -0.1047
 1698DOPE   GL219919  13.987  14.143  13.367 -0.0066 -0.2391  0.1361
 1698DOPE   C1A19920  14.218  14.578  13.214 -0.0408  0.3858 -0.0556
 1698DOPE   D2A19921  14.301  14.756  12.775 -0.0566  0.4479 -0.0718
 1698DOPE   C3A19922  14.206  14.522  12.415 -0.2286 -0.1960  0.1286
 1698DOPE   C4A19923  14.112  14.229  12.073 -0.1494  0.2188  0.2665
 1698DOPE   C1B19924  13.880  14.312  12.922 -0.0828 -0.0797 -0.0191
 1698DOPE   D2B19925  13.781  14.735  12.819 -0.3483  0.1788  0.3035
 1698DOPE   C3B19926  13.895  14.894  12.466 -0.1659 -0.0311 -0.1636
 1698DOPE   C4B19927  13.809  15.248  12.137  0.1898  0.1461 -0.0484
 1699DOPE   NH319928  12.447  16.140  14.585  0.0441  0.1033  0.3035
 1699DOPE   PO419929  12.718  15.986  14.527  0.1448 -0.2148 -0.2781
 1699DOPE   GL119930  12.705  15.873  14.239  0.0441 -0.2946  0.0110
 1699DOPE   GL219931  12.919  16.072  14.107  0.3232  0.0730  0.1493
 1699DOPE   C1A19932  13.015  15.640  13.959 -0.0322 -0.3745 -0.2249
 1699DOPE   D2A19933  13.054  15.264  13.660 -0.0952 -0.3063  0.0142
 1699DOPE   C3A19934  13.167  15.581  13.278 -0.0030  0.4352 -0.3388
 1699DOPE   C4A19935  13.580  15.686  13.075 -0.0750  0.0514 -0.0399
 1699DOPE   C1B19936  12.784  16.202  13.744  0.0640 -0.2178 -0.1290
 1699DOPE   D2B19937  12.809  16.278  13.323 -0.2239  0.2484  0.2355
 1699DOPE   C3B19938  12.553  16.530  13.036 -0.0326 -0.0021 -0.1344
 1699DOPE   C4B19939  12.397  16.446  12.606  0.1841  0.2155 -0.2596
 1700DOPE   NH319940  16.642  23.015  15.790 -0.0811 -0.3220 -0.3011
 1700DOPE   PO419941  16.417  23.107  15.579  0.0582 -0.1839 -0.4522
 1700DOPE   GL119942  16.594  23.341  15.287 -0.3317  0.2041  0.1325
 1700DOPE   GL219943  16.548  23.637  15.208  0.1441  0.0091  0.1086
 1700DOPE   C1A19944  16.654  23.481  14.770  0.0145 -0.1407 -0.1112
 1700DOPE   D2A19945  16.699  23.963  14.610 -0.1792 -0.0033  0.0090
 1700DOPE   C3A19946  16.535  24.284  14.326  0.1293 -0.0334 -0.0638
 1700DOPE   C4A19947  16.291  24.680  14.205  0.2428 -0.1790  0.0280
 1700DOPE   C1B19948  16.657  24.130  15.103 -0.1160 -0.0206  0.0862
 1700DOPE   D2B19949  16.444  24.361  14.806 -0.2516 -0.0002  0.0210
 1700DOPE   C3B19950  16.063  24.315  14.501  0.0217  0.0364 -0.1833
 1700DOPE   C4B19951  15.850  24.341  14.107  0.4191  0.0306 -0.0809
 1701DOPC   NC319952  11.440  13.580  14.780 -0.4123 -0.0666 -0.2439
 1701DOPC   PO419953  11.646  13.339  14.593  0.1243  0.2699 -0.1625
 1701DOPC   GL119954  11.549  13.150  14.338  0.4026  0.2112 -0.3167
 1701DOPC   GL219955  11.607  12.908  14.226 -0.1026  0.1553  0.0559
 1701DOPC   C1A19956  11.397  13.267  13.916 -0.0545  0.3373  0.5368
 1701DOPC   D2A19957  11.295  13.338  13.452 -0.1260 -0.1172  0.1402
 1701DOPC   C3A19958  11.352  13.224  13.051  0.0533 -0.3905  0.0033
 1701DOPC   C4A19959  11.459  13.354  12.600 -0.1616  0.0771 -0.2609
 1701DOPC   C1B19960  11.503  12.775  13.822  0.3709 -0.2226  0.0965
 1701DOPC   D2B19961  11.728  12.878  13.432 -0.0971 -0.1449 -0.2282
 1701DOPC   C3B19962  11.627  12.842  12.968 -0.0695  0.1218 -0.0797
 1701DOPC   C4B19963  11.702  12.868  12.513 -0.0833  0.0770 -0.1079
 1702DOPC   NC319964  11.548  17.748  14.896 -0.0796  0.0250 -0.2398
 1702DOPC   PO419965  11.879  17.559  14.745 -0.2043  0.0766 -0.0772
 1702DOPC   GL119966  11.899  17.823  14.431  0.3083 -0.0431  0.1047
 1702DOPC   GL219967  12.039  18.082  14.560  0.1342 -0.3042  0.1711
 1702DOPC   C1A19968  12.093  17.928  14.039  0.1419 -0.1007  0.1311
 1702DOPC   D2A19969  12.347  18.135  13.679 -0.2292 -0.0709 -0.0016
 1702DOPC   C3A19970  12.277  18.108  13.245  0.0539  0.0298 -0.0591
 1702DOPC   C4A19971  12.243  17.760  12.907  0.1494 -0.0041  0.0048
 1702DOPC   C1B19972  12.186  18.412  14.198 -0.2053  0.0889  0.0802
 1702DOPC   D2B19973  12.531  18.639  13.939 -0.0420  0.1641  0.0026
 1702DOPC   C3B19974  12.617  18.542  13.464 -0.0092  0.0502 -0.2757
 1702DOPC   C4B19975  12.573  18.516  13.032  0.1220 -0.2088 -0.2867
 1703POSM   NC319976  15.928  13.911  14.076  0.0833  0.0788  0.0045
 1703POSM   PO419977  16.279  13.748  14.068 -0.0247  0.1428  0.2830
 1703POSM   AM119978  16.286  13.498  13.822 -0.0492 -0.2606  0.3578
 1703POSM   AM219979  16.306  13.212  13.897 -0.3155  0.3460 -0.0974
 1703POSM   T1A19980  16.361  13.366  13.315  0.3144 -0.0420  0.1845
 1703POSM   C2A19981  16.332  12.996  13.075 -0.1393  0.1893 -0.0555
 1703POSM   C3A19982  16.498  12.535  12.997  0.0426 -0.1003  0.1722
 1703POSM   C1B19983  16.573  13.161  13.695  0.5126 -0.2473  0.1295
 1703POSM   D2B19984  16.831  13.338  13.314  0.0891 -0.3847 -0.0100
 1703POSM   C3B19985  16.740  13.706  13.083 -0.1576 -0.1469  0.1451
 1703POSM   C4B19986  16.296  13.711  12.860 -0.0343  0.0101  0.0150
 1704DOPC   NC319987  13.541  22.817  15.148 -0.0583 -0.0135  0.2712
 1704DOPC   PO419988  13.761  23.083  14.925 -0.2256  0.2012 -0.0499
 1704DOPC   GL119989  13.856  23.246  14.609 -0.0824 -0.1437 -0.2236
 1704DOPC   GL219990  14.108  23.152  14.509  0.0912 -0.3440  0.2734
 1704DOPC   C1A19991  13.822  23.329  14.146 -0.2293  0.3812  0.1081
 1704DOPC   D2A19992  14.078  23.522  13.762  0.0104  0.3493  0.1419
 1704DOPC   C3A19993  14.071  23.936  13.773 -0.0299  0.0302  0.1431
 1704DOPC   C4A19994  13.994  24.401  14.010  0.1782 -0.1833 -0.0106
 1704DOPC   C1B19995  14.022  22.830  14.247 -0.0850 -0.4087  0.0100
 1704DOPC   D2B19996  14.222  22.554  13.952  0.0002  0.1673 -0.1481
 1704DOPC   C3B19997  14.651  22.455  13.868  0.0537 -0.0061 -0.1537
 1704DOPC   C4B19998  15.148  22.307  13.861  0.0362 -0.3370  0.0310
 1705DOPE   NH319999  18.670  14.234  14.150  0.1065  0.0564  0.2715
 1705DOPE   PO420000  18.960  14.212  14.187  0.3640  0.1740  0.0966
 1705DOPE   GL120001  19.076  14.120  13.841 -0.0417  0.4114 -0.3103
 1705DOPE   GL220002  19.142  14.237  13.606 -0.0449 -0.0385  0.0050
 1705DOPE   C1A20003  19.266  13.721  13.729 -0.2167 -0.0763  0.0853
 1705DOPE   D2A20004  19.503  13.326  13.737 -0.0901 -0.0071  0.0101
 1705DOPE   C3A20005  19.808  13.175  13.388  0.0394 -0.0543  0.1057
 1705DOPE   C4A20006  20.057  13.090  13.049  0.1394 -0.2231  0.3083
 1705DOPE   C1B20007  19.180  13.937  13.276 -0.2781 -0.1272 -0.0140
 1705DOPE   D2B20008  19.531  13.594  13.221  0.3316 -0.0474  0.1994
 1705DOPE   C3B20009  19.474  13.144  12.980  0.1073  0.1529  0.0298
 1705DOPE   C4B20010  19.509  12.640  12.921 -0.0471 -0.0722 -0.1292
 1706DOPC   NC320011  14.075  19.763  14.155 -0.2293 -0.1334 -0.1806
 1706DOPC   PO420012  14.036  19.352  14.186 -0.3938 -0.2065 -0.0212
 1706DOPC   GL120013  14.046  19.158  13.772 -0.1232 -0.2272 -0.0008
 1706DOPC   GL220014  14.084  19.400  13.655  0.4021 -0.1228 -0.0650
 1706DOPC   C1A20015  14.110  18.826  13.458 -0.1954  0.1201  0.1439
 1706DOPC   D2A20016  13.914  18.389  13.450 -0.0133  0.1134  0.0912
 1706DOPC   C3A20017  13.504  18.345  13.190  0.0854  0.0081 -0.0588
 1706DOPC   C4A20018  13.241  18.044  12.935  0.0800 -0.1149  0.0394
 1706DOPC   C1B20019  14.480  19.241  13.430 -0.1576 -0.1489  0.2865
 1706DOPC   D2B20020  14.593  19.075  13.004 -0.2830  0.2790 -0.0140
 1706DOPC   C3B20021  14.923  18.817  12.985 -0.0756 -0.2489  0.1903
 1706DOPC   C4B20022  15.193  18.425  13.095  0.2841 -0.1470 -0.0892
 1707DOPE   NH320023  12.046  20.596  14.985 -0.0382 -0.1063  0.4220
 1707DOPE   PO420024  12.196  20.307  14.870  0.1777  0.3771 -0.2148
 1707DOPE   GL120025  12.087  20.352  14.391 -0.0857 -0.1673  0.0583
 1707DOPE   GL220026  11.966  20.618  14.430 -0.0944 -0.0210 -0.0025
 1707DOPE   C1A20027  12.045  20.437  13.935 -0.5928 -0.2984  0.3229
 1707DOPE   D2A20028  12.056  20.522  13.499  0.0403  0.0032  0.0504
 1707DOPE   C3A20029  11.712  20.544  13.170  0.1169 -0.1049 -0.0833
 1707DOPE   C4A20030  11.450  20.250  12.897 -0.0571  0.1361 -0.1759
 1707DOPE   C1B20031  12.126  20.913  14.147 -0.1397 -0.1733 -0.0333
 1707DOPE   D2B20032  12.128  21.333  13.940 -0.3121  0.0691  0.1498
 1707DOPE   C3B20033  12.463  21.365  13.591 -0.1604 -0.2070  0.0190
 1707DOPE   C4B20034  12.425  21.740  13.261  0.2294  0.1256 -0.0310
 1708DOPE   NH320035  20.423  12.723  15.658  0.1354  0.5043 -0.2024
 1708DOPE   PO420036  20.569  12.430  15.549 -0.0513 -0.3498  0.0284
 1708DOPE   GL120037  20.361  12.397  15.218 -0.3040 -0.0794 -0.3925
 1708DOPE   GL220038  20.561  12.597  15.096 -0.0996 -0.1773 -0.0141
 1708DOPE   C1A20039  20.485  12.096  14.882 -0.0836 -0.0643 -0.2225
 1708DOPE   D2A20040  20.777  11.890  14.552 -0.0565  0.0650 -0.0457
 1708DOPE   C3A20041  20.879  12.046  14.143 -0.0596 -0.0397 -0.0345
 1708DOPE   C4A20042  20.703  11.849  13.845  0.2278 -0.0602 -0.1164
 1708DOPE   C1B20043  20.484  12.600  14.648 -0.1510 -0.0142  0.3623
 1708DOPE   D2B20044  20.496  12.438  14.214 -0.2144  0.2258 -0.0777
 1708DOPE   C3B20045  20.325  12.223  13.853  0.1431 -0.0551  0.2140
 1708DOPE   C4B20046  20.161  11.817  13.771 -0.0904 -0.1453 -0.4243
 1709DOPC   NC320047  14.251  14.972  14.145  0.2452 -0.2936 -0.1540
 1709DOPC   PO420048  14.546  14.729  14.081  0.2831  0.0103 -0.3011
 1709DOPC   GL120049  14.671  14.752  13.671 -0.1699  0.3186 -0.1219
 1709DOPC   GL220050  14.479  15.022  13.667  0.1859  0.0573  0.0971
 1709DOPC   C1A20051  14.769  14.490  13.308  0.4870  0.0191 -0.3199
 1709DOPC   D2A20052  14.578  14.311  12.947 -0.1613  0.3085 -0.0244
 1709DOPC   C3A20053  14.679  14.354  12.529 -0.0286 -0.0973 -0.0651
 1709DOPC   C4A20054  14.778  14.424  12.047 -0.1805 -0.2940  0.0265
 1709DOPC   C1B20055  14.475  15.010  13.214  0.0105  0.1380  0.0139
 1709DOPC   D2B20056  14.709  15.259  12.908  0.0943 -0.1617  0.0686
 1709DOPC   C3B20057  14.663  15.167  12.437 -0.2889  0.0161 -0.1191
 1709DOPC   C4B20058  14.725  14.947  12.032  0.3049  0.2511 -0.0858
 1710DOPC   NC320059  15.642  16.343  14.416  0.2150  0.0059 -0.0287
 1710DOPC   PO420060  15.406  16.130  14.165  0.1493  0.0293 -0.2272
 1710DOPC   GL120061  15.317  16.126  13.818 -0.0965  0.1736 -0.0228
 1710DOPC   GL220062  15.326  15.822  13.724  0.0770 -0.0523 -0.0132
 1710DOPC   C1A20063  15.096  16.094  13.434  0.1782  0.0622  0.2633
 1710DOPC   D2A20064  15.251  16.009  12.985  0.0543  0.2349  0.1218
 1710DOPC   C3A20065  15.040  16.188  12.610 -0.2566  0.0044  0.0110
 1710DOPC   C4A20066  14.814  16.056  12.226  0.1307 -0.2566  0.1067
 1710DOPC   C1B20067  15.182  15.622  13.301  0.0839  0.2897 -0.1211
 1710DOPC   D2B20068  15.281  15.350  12.942  0.1567  0.1289 -0.2036
 1710DOPC   C3B20069  15.112  15.112  12.656  0.0921  0.1488 -0.1431
 1710DOPC   C4B20070  15.226  14.973  12.225 -0.0933 -0.0203 -0.0793
 1711DOPC   NC320071  22.207  20.367  15.864 -0.2409  0.2193  0.3326
 1711DOPC   PO420072  22.145  20.575  15.532  0.1012  0.0223 -0.1239
 1711DOPC   GL120073  22.184  20.651  15.058  0.1134 -0.1677 -0.1915
 1711DOPC   GL220074  22.230  20.927  15.077 -0.1399  0.1098 -0.3646
 1711DOPC   C1A20075  22.513  20.710  14.751 -0.1185  0.1496 -0.2319
 1711DOPC   D2A20076  22.658  20.296  14.576 -0.0945  0.2323 -0.0036
 1711DOPC   C3A20077  22.873  20.266  14.194  0.0434 -0.0727  0.1018
 1711DOPC   C4A20078  22.812  20.073  13.757 -0.2278 -0.0025 -0.0600
 1711DOPC   C1B20079  22.693  21.090  15.078 -0.1828 -0.3058 -0.4645
 1711DOPC   D2B20080  23.067  21.360  14.926 -0.1244  0.2018 -0.0189
 1711DOPC   C3B20081  23.231  21.294  14.486 -0.1191  0.1730 -0.1498
 1711DOPC   C4B20082  23.739  21.275  14.413  0.2112  0.3199 -0.0587
 1712DOPC   NC320083  11.134  13.556  14.395  0.0968  0.0470 -0.4011
 1712DOPC   PO420084  11.083  13.239  14.587 -0.0866 -0.0985  0.1162
 1712DOPC   GL120085  11.057  13.066  14.280 -0.0219 -0.0879  0.1472
 1712DOPC   GL220086  10.860  12.817  14.354  0.1098 -0.1588 -0.1692
 1712DOPC   C1A20087  11.000  12.994  13.843  0.0289  0.1273  0.0868
 1712DOPC   D2A20088  10.941  13.031  13.382  0.5155  0.1805 -0.2031
 1712DOPC   C3A20089  10.889  13.381  13.131  0.2167 -0.0080 -0.2646
 1712DOPC   C4A20090  11.062  13.649  12.828  0.1745 -0.3412 -0.0554
 1712DOPC   C1B20091  10.536  12.911  14.038 -0.3318 -0.2202 -0.4618
 1712DOPC   D2B20092  10.259  12.810  13.693  0.4188  0.0731 -0.0409
 1712DOPC   C3B20093  10.608  12.679  13.390  0.1453  0.1383 -0.3534
 1712DOPC   C4B20094  10.694  12.808  12.944 -0.3759  0.0480  0.0008
 1713DOPC   NC320095  17.428  15.550  13.443  0.2094 -0.3162 -0.1053
 1713DOPC   PO420096  17.371  15.168  13.491 -0.1662 -0.0570  0.3537
 1713DOPC   GL120097  17.327  15.044  13.094 -0.1312 -0.1756  0.0804
 1713DOPC   GL220098  17.019  15.072  13.011  0.0156  0.2613 -0.1514
 1713DOPC   C1A20099  17.666  15.108  12.770  0.2215  0.0191  0.0447
 1713DOPC   D2A20100  18.103  15.039  12.749  0.0360  0.3290 -0.0154
 1713DOPC   C3A20101  18.354  14.993  12.410 -0.1914  0.0088  0.0129
 1713DOPC   C4A20102  18.588  14.838  12.026 -0.2951 -0.0171  0.1220
 1713DOPC   C1B20103  17.247  15.393  12.727 -0.1834 -0.0298  0.1075
 1713DOPC   D2B20104  17.384  15.798  12.486 -0.1096  0.0323 -0.5216
 1713DOPC   C3B20105  17.337  16.133  12.234  0.0285  0.0805  0.1902
 1713DOPC   C4B20106  17.525  16.357  11.858 -0.0417  0.2934  0.3614
 1714DOPE   NH320107  20.820  18.275  15.085  0.0593  0.3594 -0.1275
 1714DOPE   PO420108  20.975  18.187  14.832  0.0176  0.3473  0.3651
 1714DOPE   GL120109  21.072  18.342  14.559 -0.0312  0.1172  0.0211
 1714DOPE   GL220110  21.035  18.657  14.590 -0.3805  0.0753  0.2266
 1714DOPE   C1A20111  21.188  18.158  14.105  0.1486 -0.0021 -0.1659
 1714DOPE   D2A20112  21.084  17.917  13.710  0.2431 -0.1357  0.0743
 1714DOPE   C3A20113  21.152  17.787  13.272 -0.2418 -0.0650 -0.1935
 1714DOPE   C4A20114  21.056  17.718  12.810  0.1371 -0.1291 -0.1391
 1714DOPE   C1B20115  20.899  18.554  14.153 -0.2688  0.2623 -0.3245
 1714DOPE   D2B20116  20.709  18.393  13.793  0.2154 -0.0361 -0.0700
 1714DOPE   C3B20117  20.527  18.513  13.366  0.1867 -0.1255  0.0877
 1714DOPE   C4B20118  20.593  18.497  12.881 -0.0254 -0.0432 -0.1328
 1715DOPE   NH320119  20.722  17.730  14.833 -0.1521 -0.0802  0.1008
 1715DOPE   PO420120  20.391  17.743  14.867  0.0042 -0.2735 -0.0855
 1715DOPE   GL120121  20.447  17.700  14.438  0.3781 -0.0397 -0.0523
 1715DOPE   GL220122  20.169  17.670  14.333 -0.1321 -0.0217 -0.4838
 1715DOPE   C1A20123  20.454  17.410  14.045 -0.1723  0.4909 -0.0867
 1715DOPE   D2A20124  20.653  17.443  13.629  0.2521 -0.0850 -0.3953
 1715DOPE   C3A20125  20.524  17.589  13.225  0.1668 -0.0207 -0.1285
 1715DOPE   C4A20126  20.298  17.934  13.013  0.2709  0.0609 -0.0097
 1715DOPE   C1B20127  20.170  17.938  13.982  0.2974  0.1476  0.1770
 1715DOPE   D2B20128  20.146  18.311  13.666 -0.0071  0.0086  0.1291
 1715DOPE   C3B20129  19.697  18.521  13.562  0.0055 -0.1281  0.2594
 1715DOPE   C4B20130  19.228  18.620  13.587  0.0766  0.3359  0.1732
 1716POSM   NC320131  16.632  20.284  15.036  0.0951 -0.3629  0.0553
 1716POSM   PO420132  16.731  20.101  14.700 -0.1456 -0.0597  0.1212
 1716POSM   AM120133  16.754  20.234  14.439  0.2068  0.1209 -0.1540
 1716POSM   AM220134  16.584  20.119  14.215  0.0186 -0.2605  0.1734
 1716POSM   T1A20135  17.081  20.193  14.049  0.0039 -0.1640  0.0384
 1716POSM   C2A20136  17.109  20.188  13.558  0.1045  0.1582  0.0992
 1716POSM   C3A20137  16.930  19.958  13.181 -0.0864  0.1436 -0.0456
 1716POSM   C1B20138  16.364  20.266  14.000  0.0964  0.0097  0.3287
 1716POSM   D2B20139  16.114  20.444  13.638 -0.4651  0.0718  0.2230
 1716POSM   C3B20140  16.382  20.707  13.380 -0.2139  0.2306  0.2815
 1716POSM   C4B20141  16.673  20.987  13.217 -0.0655  0.1918  0.3111
 1717DOPC   NC320142  18.534  11.642  15.388 -0.0758 -0.0180 -0.3153
 1717DOPC   PO420143  18.582  11.576  15.764 -0.1029 -0.3409 -0.0469
 1717DOPC   GL120144  18.934  11.657  15.578  0.1836  0.0201  0.0446
 1717DOPC   GL220145  19.082  11.442  15.702 -0.3468  0.3622  0.0846
 1717DOPC   C1A20146  19.049  11.885  15.177  0.0417  0.2124  0.0085
 1717DOPC   D2A20147  19.052  12.178  14.817 -0.0102  0.0719  0.1825
 1717DOPC   C3A20148  19.064  12.016  14.380  0.2155  0.0216  0.2264
 1717DOPC   C4A20149  18.720  12.006  14.026 -0.0959  0.0442 -0.0573
 1717DOPC   C1B20150  19.341  11.360  15.296 -0.0544 -0.0587  0.0828
 1717DOPC   D2B20151  19.503  10.969  15.161 -0.1675 -0.0450  0.1491
 1717DOPC   C3B20152  19.557  10.693  14.819  0.1205 -0.0973 -0.2819
 1717DOPC   C4B20153  19.619  10.276  14.607 -0.0908  0.0872  0.0541
 1718POSM   NC320154  15.129  13.324  14.548 -0.1023  0.1490  0.2851
 1718POSM   PO420155  14.913  13.648  14.367  0.0900  0.0917  0.1658
 1718POSM   AM120156  15.009  13.580  14.053  0.0237  0.4150 -0.0397
 1718POSM   AM220157  14.857  13.510  13.784 -0.1683  0.0497  0.0606
 1718POSM   T1A20158  15.274  13.312  13.657 -0.1146 -0.1593  0.0155
 1718POSM   C2A20159  15.557  13.223  13.320 -0.0901  0.0498  0.0124
 1718POSM   C3A20160  15.817  13.419  13.037  0.2051  0.2234  0.0036
 1718POSM   C1B20161  14.789  13.375  13.473 -0.2257 -0.1261  0.0635
 1718POSM   D2B20162  14.994  13.411  13.057  0.0225 -0.4203 -0.4287
 1718POSM   C3B20163  14.871  13.091  12.782 -0.1456  0.0445 -0.0109
 1718POSM   C4B20164  14.523  12.828  12.600 -0.4114  0.0408  0.2507
 1719POSM   NC320165  12.806  22.675  15.731 -0.0147  0.0088 -0.2313
 1719POSM   PO420166  12.556  22.570  15.410  0.2348 -0.1660 -0.2377
 1719POSM   AM120167  12.468  22.624  15.103 -0.2436 -0.0937  0.0173
 1719POSM   AM220168  12.471  22.480  14.849  0.1251 -0.3226  0.0090
 1719POSM   T1A20169  12.514  22.970  14.794 -0.3069  0.0013  0.0617
 1719POSM   C2A20170  12.778  23.255  14.487  0.1742  0.2539  0.0798
 1719POSM   C3A20171  12.656  23.470  14.130  0.1159  0.0090  0.1758
 1719POSM   C1B20172  12.754  22.473  14.676 -0.1029 -0.3711  0.1231
 1719POSM   D2B20173  12.926  22.279  14.291 -0.1247  0.0951 -0.0588
 1719POSM   C3B20174  13.181  22.414  13.973 -0.1620 -0.0489  0.0165
 1719POSM   C4B20175  13.092  22.552  13.529 -0.1494 -0.4092  0.1098
 1720DOPS   CNO20176  16.380  19.031  14.643  0.2773  0.4974  0.0155
 1720DOPS   PO420177  16.326  18.952  14.271 -0.4838 -0.0509  0.0164
 1720DOPS   GL120178  16.380  19.058  13.936  0.3077  0.2237  0.0448
 1720DOPS   GL220179  16.202  18.900  13.715  0.0750  0.1470 -0.0156
 1720DOPS   C1A20180  16.740  19.001  13.646 -0.4492 -0.1384  0.2788
 1720DOPS   D2A20181  16.954  18.716  13.302  0.0203  0.0375  0.0629
 1720DOPS   C3A20182  16.976  18.929  12.870 -0.3228 -0.1578 -0.0375
 1720DOPS   C4A20183  16.781  19.043  12.496 -0.1228  0.0607 -0.1642
 1720DOPS   C1B20184  16.438  18.582  13.487 -0.1869  0.5112 -0.1498
 1720DOPS   D2B20185  16.485  18.463  13.027  0.2517  0.1048  0.2221
 1720DOPS   C3B20186  16.393  18.727  12.628  0.1806 -0.0571  0.2205
 1720DOPS   C4B20187  16.153  18.979  12.280  0.0118  0.4429 -0.0429
 1721DOPC   NC320188  15.073  20.841  14.900  0.0655  0.0398  0.2078
 1721DOPC   PO420189  14.706  21.009  14.981 -0.2071  0.0921 -0.0857
 1721DOPC   GL120190  14.830  21.255  14.633  0.0241  0.0007  0.1336
 1721DOPC   GL220191  15.083  21.244  14.619  0.1136 -0.0982  0.1867
 1721DOPC   C1A20192  14.628  21.323  14.211  0.2234  0.1942 -0.0650
 1721DOPC   D2A20193  14.752  21.596  13.819  0.0314  0.1439  0.3379
 1721DOPC   C3A20194  14.434  21.776  13.558 -0.2666 -0.0635 -0.3315
 1721DOPC   C4A20195  14.284  22.140  13.248  0.3157 -0.5106  0.0923
 1721DOPC   C1B20196  15.005  20.922  14.291  0.1101  0.1107  0.1054
 1721DOPC   D2B20197  15.101  20.540  14.038  0.0963 -0.3632  0.0687
 1721DOPC   C3B20198  15.462  20.662  13.741 -0.3133  0.2429 -0.0938
 1721DOPC   C4B20199  15.826  21.000  13.771 -0.0037 -0.0669 -0.4296
 1722DOPE   NH320200  14.545  19.276  14.418 -0.1873 -0.0350 -0.2512
 1722DOPE   PO420201  14.785  19.086  14.325  0.2952 -0.1437  0.2061
 1722DOPE   GL120202  15.095  19.223  14.014  0.0005  0.0770 -0.0501
 1722DOPE   GL220203  15.073  19.573  13.985 -0.1423  0.2003  0.4486
 1722DOPE   C1A20204  15.036  19.254  13.560 -0.0592 -0.1295 -0.0305
 1722DOPE   D2A20205  15.063  19.318  13.106  0.0491  0.1437  0.3593
 1722DOPE   C3A20206  15.136  19.679  12.846 -0.1157 -0.1563  0.1934
 1722DOPE   C4A20207  15.496  19.702  12.508  0.1448 -0.1518 -0.1513
 1722DOPE   C1B20208  15.131  19.762  13.529  0.0354 -0.1144 -0.1655
 1722DOPE   D2B20209  15.398  19.904  13.199  0.1681 -0.0509 -0.1227
 1722DOPE   C3B20210  15.853  19.770  13.210  0.1469  0.2748  0.3536
 1722DOPE   C4B20211  16.148  19.937  13.529  0.0403  0.0456 -0.0408
 1723DOPE   NH320212  16.182  12.533  14.088 -0.5151 -0.2241  0.0612
 1723DOPE   PO420213  16.304  12.825  14.240 -0.1546 -0.0721 -0.1330
 1723DOPE   GL120214  16.604  12.725  13.926 -0.0510 -0.1966 -0.0709
 1723DOPE   GL220215  16.919  12.808  13.891  0.0891  0.4130 -0.2168
 1723DOPE   C1A20216  16.593  12.615  13.447 -0.0185  0.1877  0.1211
 1723DOPE   D2A20217  16.861  12.827  13.177  0.0540  0.2601  0.0794
 1723DOPE   C3A20218  16.829  12.785  12.689 -0.0403  0.0919  0.0587
 1723DOPE   C4A20219  16.604  12.440  12.505  0.0509 -0.0104 -0.2918
 1723DOPE   C1B20220  17.268  12.813  13.534  0.0263  0.0842 -0.1607
 1723DOPE   D2B20221  17.480  12.683  13.175 -0.1107  0.0096 -0.1745
 1723DOPE   C3B20222  17.309  12.664  12.743  0.1031  0.0108  0.0149
 1723DOPE   C4B20223  17.105  12.582  12.321  0.2650 -0.0011 -0.2458
 1724DOPC   NC320224  18.247  15.242  13.366  0.0788  0.1486  0.2394
 1724DOPC   PO420225  17.944  15.063  13.502  0.0391  0.3093  0.0230
 1724DOPC   GL120226  17.830  15.021  13.198 -0.0632 -0.3521 -0.0967
 1724DOPC   GL220227  17.804  15.382  13.130 -0.0502  0.0741  0.2172
 1724DOPC   C1A20228  17.845  14.614  12.988  0.1461 -0.1000  0.0751
 1724DOPC   D2A20229  17.675  14.246  12.844  0.0072  0.1786 -0.0426
 1724DOPC   C3A20230  17.499  14.336  12.412  0.0885 -0.0567  0.1758
 1724DOPC   C4A20231  17.624  14.524  11.987 -0.2887 -0.4131 -0.0578
 1724DOPC   C1B20232  17.745  15.822  12.926 -0.0426 -0.3499 -0.0167
 1724DOPC   D2B20233  17.750  16.071  12.521 -0.0923  0.2359  0.2221
 1724DOPC   C3B20234  18.035  16.393  12.724  0.0409  0.2759 -0.2421
 1724DOPC   C4B20235  17.786  16.768  12.883  0.0282 -0.0593  0.0111
 1725POSM   NC320236  19.262  20.415  15.039 -0.1150  0.1320  0.1687
 1725POSM   PO420237  19.270  20.229  14.685  0.1392  0.1401 -0.0895
 1725POSM   AM120238  19.462  20.248  14.420 -0.1571 -0.3682  0.0545
 1725POSM   AM220239  19.563  20.439  14.217 -0.1242 -0.1258 -0.1246
 1725POSM   T1A20240  19.512  20.032  13.937  0.0415  0.3007 -0.3072
 1725POSM   C2A20241  19.574  20.135  13.501 -0.1472  0.0919  0.0929
 1725POSM   C3A20242  19.404  20.368  13.051 -0.0904  0.0202 -0.0351
 1725POSM   C1B20243  19.563  20.543  13.853 -0.0333  0.2607  0.1053
 1725POSM   D2B20244  19.794  20.542  13.483  0.1685 -0.1031  0.3862
 1725POSM   C3B20245  19.864  20.572  13.025  0.0263 -0.0387 -0.0372
 1725POSM   C4B20246  19.717  20.327  12.655 -0.1916 -0.1358 -0.1887
 1726POSM   NC320247  14.085  21.771  14.912 -0.3604  0.0700 -0.4670
 1726POSM   PO420248  14.188  22.134  14.867  0.0857 -0.0995 -0.0584
 1726POSM   AM120249  13.980  22.197  14.603  0.2281 -0.1253  0.0323
 1726POSM   AM220250  13.975  21.986  14.395 -0.0631  0.0133  0.1929
 1726POSM   T1A20251  13.810  22.323  14.128 -0.2780 -0.1208  0.1716
 1726POSM   C2A20252  13.749  22.552  13.760  0.0050 -0.1105  0.0480
 1726POSM   C3A20253  13.881  22.971  13.646  0.1835  0.0786 -0.1545
 1726POSM   C1B20254  13.855  21.774  14.098 -0.1172  0.0332  0.0661
 1726POSM   D2B20255  13.843  21.579  13.655  0.0326 -0.2189  0.0208
 1726POSM   C3B20256  14.131  21.615  13.223  0.0988 -0.2544  0.0605
 1726POSM   C4B20257  14.330  21.373  12.879  0.1372 -0.2538  0.1190
 1727DOPC   NC320258  19.697  21.889  15.024  0.0558 -0.1616  0.2580
 1727DOPC   PO420259  19.747  21.531  14.777  0.1625  0.4087  0.0661
 1727DOPC   GL120260  19.966  21.640  14.495  0.2237  0.0002 -0.0223
 1727DOPC   GL220261  19.916  21.911  14.521  0.0739  0.0069 -0.2859
 1727DOPC   C1A20262  20.213  21.299  14.305  0.1463 -0.1527  0.1042
 1727DOPC   D2A20263  20.248  20.984  13.963 -0.3722 -0.1863  0.2147
 1727DOPC   C3A20264  20.340  21.139  13.490 -0.1818  0.0631 -0.5335
 1727DOPC   C4A20265  20.445  21.026  13.061  0.0117 -0.0226 -0.0302
 1727DOPC   C1B20266  19.554  21.897  14.258  0.0543 -0.0181  0.2718
 1727DOPC   D2B20267  19.463  21.837  13.857 -0.2355  0.1260  0.2728
 1727DOPC   C3B20268  19.611  21.827  13.471 -0.0661  0.1007 -0.4249
 1727DOPC   C4B20269  19.947  21.814  13.144 -0.3108  0.2984 -0.1365
 1728DOPS   CNO20270  15.916  17.795  14.365  0.2127  0.3546  0.1297
 1728DOPS   PO420271  15.758  18.023  14.111  0.0823 -0.0777  0.0456
 1728DOPS   GL120272  15.856  18.379  13.809  0.0070 -0.7827  0.2252
 1728DOPS   GL220273  16.052  18.185  13.690 -0.3297 -0.0564  0.2606
 1728DOPS   C1A20274  15.803  18.746  13.491  0.1608  0.0802  0.0358
 1728DOPS   D2A20275  16.082  19.053  13.242  0.3112 -0.1470 -0.2310
 1728DOPS   C3A20276  16.555  19.105  13.189  0.0847 -0.1059 -0.0027
 1728DOPS   C4A20277  16.943  19.346  13.291 -0.0025 -0.2948 -0.0795
 1728DOPS   C1B20278  15.907  18.320  13.286  0.0080 -0.0662  0.0757
 1728DOPS   D2B20279  16.024  18.660  13.024  0.0210 -0.0170  0.3197
 1728DOPS   C3B20280  15.902  18.568  12.510  0.0631  0.1756  0.2634
 1728DOPS   C4B20281  15.726  18.750  12.116  0.0651  0.0245 -0.1293
 1729DOPE   NH320282  21.502  16.532  14.644  0.1840  0.0517  0.1756
 1729DOPE   PO420283  21.216  16.568  14.528 -0.2213  0.0336 -0.6446
 1729DOPE   GL120284  21.283  16.724  14.224 -0.0219 -0.1011 -0.0222
 1729DOPE   GL220285  21.155  16.980  14.233 -0.2646 -0.1073 -0.0138
 1729DOPE   C1A20286  21.280  16.728  13.781 -0.0500  0.1943 -0.0911
 1729DOPE   D2A20287  21.461  17.004  13.404 -0.1216 -0.1728 -0.0830
 1729DOPE   C3A20288  21.583  17.178  13.038  0.1581  0.1433 -0.4632
 1729DOPE   C4A20289  21.750  17.589  12.906  0.1620  0.3546 -0.3224
 1729DOPE   C1B20290  20.932  17.050  13.791 -0.0036 -0.0933  0.2771
 1729DOPE   D2B20291  20.895  16.990  13.373 -0.2893  0.0217  0.0369
 1729DOPE   C3B20292  20.960  17.307  13.092 -0.1410 -0.1855 -0.0011
 1729DOPE   C4B20293  20.887  17.197  12.648  0.1416 -0.0697 -0.1351
 1730DOPS   CNO20294  15.850  21.317  15.221  0.0028  0.1619 -0.2085
 1730DOPS   PO420295  15.983  21.439  14.891 -0.2055  0.2348 -0.1324
 1730DOPS   GL120296  16.059  21.137  14.686  0.2333  0.5393  0.2763
 1730DOPS   GL220297  15.984  20.878  14.853  0.0661 -0.3310  0.3585
 1730DOPS   C1A20298  15.994  21.119  14.236  0.0732 -0.2888  0.1826
 1730DOPS   D2A20299  16.169  21.370  13.894  0.1190 -0.1834 -0.2140
 1730DOPS   C3A20300  16.054  21.325  13.443  0.1144  0.0699  0.1309
 1730DOPS   C4A20301  16.121  21.042  13.063  0.0113  0.0978  0.1309
 1730DOPS   C1B20302  16.011  20.686  14.514 -0.2127 -0.1813  0.0277
 1730DOPS   D2B20303  15.991  20.660  14.065  0.1327 -0.3827 -0.0898
 1730DOPS   C3B20304  16.335  20.864  13.905  0.5460  0.1553  0.0606
 1730DOPS   C4B20305  16.512  21.219  13.600 -0.3250  0.1376  0.0058
 1731DOPS   CNO20306  13.449  13.354  14.406  0.0058 -0.5114  0.1171
 1731DOPS   PO420307  13.505  13.013  14.202 -0.1381  0.0647 -0.2587
 1731DOPS   GL120308  13.361  12.855  13.872  0.0181 -0.0973 -0.1494
 1731DOPS   GL220309  13.138  13.096  13.803 -0.0496 -0.0978  0.1676
 1731DOPS   C1A20310  13.104  12.518  13.698  0.0891  0.0971  0.1904
 1731DOPS   D2A20311  13.201  12.053  13.829  0.0116 -0.2746 -0.1748
 1731DOPS   C3A20312  13.114  11.831  13.439  0.0158  0.0303  0.2396
 1731DOPS   C4A20313  13.123  11.444  13.162 -0.2474 -0.0440 -0.1247
 1731DOPS   C1B20314  13.377  12.920  13.476 -0.1110  0.2853 -0.2367
 1731DOPS   D2B20315  13.792  12.719  13.554 -0.1342  0.0788 -0.1301
 1731DOPS   C3B20316  14.218  12.591  13.313  0.1492  0.1774  0.1154
 1731DOPS   C4B20317  14.668  12.712  13.090 -0.0891  0.0842  0.0129
 1732POSM   NC320318  13.662  19.307  14.528 -0.0255 -0.1310 -0.0191
 1732POSM   PO420319  13.695  19.694  14.527  0.1069 -0.2878  0.0538
 1732POSM   AM120320  13.557  19.638  14.233 -0.2367  0.0636 -0.2735
 1732POSM   AM220321  13.560  19.385  14.032 -0.2849  0.0856  0.0693
 1732POSM   T1A20322  13.388  19.782  13.767 -0.0207 -0.0399 -0.3769
 1732POSM   C2A20323  13.550  19.921  13.395 -0.0790 -0.0335  0.2203
 1732POSM   C3A20324  13.839  20.081  13.064  0.0959  0.1597  0.1030
 1732POSM   C1B20325  13.561  19.328  13.719  0.1834 -0.1122  0.2745
 1732POSM   D2B20326  13.723  19.441  13.269 -0.2528  0.0747  0.0539
 1732POSM   C3B20327  13.525  19.587  12.897  0.1902 -0.1562 -0.2142
 1732POSM   C4B20328  13.359  19.987  12.595 -0.0479  0.2337 -0.0398
 1733POSM   NC320329  19.899  16.654  14.814 -0.1751 -0.1142  0.3952
 1733POSM   PO420330  19.750  17.021  14.827  0.2249 -0.1658  0.0230
 1733POSM   AM120331  19.541  17.137  14.588  0.0129 -0.1517  0.1450
 1733POSM   AM220332  19.556  17.114  14.277 -0.1916  0.2307  0.0190
 1733POSM   T1A20333  19.237  17.505  14.490  0.1835 -0.1721 -0.0382
 1733POSM   C2A20334  19.158  17.611  14.034 -0.1817 -0.0883  0.0167
 1733POSM   C3A20335  19.108  17.831  13.591 -0.0946  0.1058 -0.1557
 1733POSM   C1B20336  19.682  17.424  14.137  0.0113  0.2373 -0.2843
 1733POSM   D2B20337  19.597  17.742  13.824 -0.1539  0.1270 -0.0276
 1733POSM   C3B20338  19.513  17.534  13.479  0.1518  0.2285 -0.1946
 1733POSM   C4B20339  19.535  17.376  13.063  0.0220 -0.4870  0.2865
 1734DOPC   NC320340  14.531  13.743  14.061  0.1020  0.1559  0.3100
 1734DOPC   PO420341  14.217  13.476  14.005 -0.0757  0.2975  0.1466
 1734DOPC   GL120342  14.198  13.241  13.628  0.2725 -0.2526 -0.2046
 1734DOPC   GL220343  14.268  13.530  13.476 -0.3203 -0.0183  0.1467
 1734DOPC   C1A20344  13.951  13.098  13.284  0.4525 -0.1472 -0.0473
 1734DOPC   D2A20345  13.786  12.772  12.957  0.1108  0.3659  0.0907
 1734DOPC   C3A20346  13.336  12.812  12.987  0.0142  0.1349  0.1174
 1734DOPC   C4A20347  12.894  12.864  12.690 -0.3547  0.2418  0.0460
 1734DOPC   C1B20348  14.008  13.642  13.093  0.2823  0.1363  0.2115
 1734DOPC   D2B20349  13.640  13.737  12.872  0.1686  0.0896  0.1174
 1734DOPC   C3B20350  13.550  13.608  12.400 -0.2558  0.1951  0.1442
 1734DOPC   C4B20351  13.750  13.256  12.185 -0.0083 -0.1690 -0.2139
 1735POSM   NC320352  16.815  22.189  15.857  0.1366  0.0068 -0.2838
 1735POSM   PO420353  16.920  22.332  15.487  0.0899 -0.0097 -0.0552
 1735POSM   AM120354  16.967  22.448  15.184 -0.2014  0.2392  0.2670
 1735POSM   AM220355  16.992  22.374  14.908 -0.2792  0.0711 -0.3862
 1735POSM   T1A20356  17.048  22.835  14.853 -0.1282  0.1706  0.1842
 1735POSM   C2A20357  17.174  23.180  14.593  0.1216 -0.1632  0.3677
 1735POSM   C3A20358  17.057  23.628  14.508  0.0899 -0.2699 -0.0070
 1735POSM   C1B20359  17.178  22.396  14.601  0.1395  0.1263  0.1148
 1735POSM   D2B20360  17.147  22.263  14.189 -0.0482  0.0921  0.0433
 1735POSM   C3B20361  16.984  22.549  13.862 -0.0907 -0.0686  0.0072
 1735POSM   C4B20362  16.586  22.509  13.664 -0.0016 -0.1426 -0.1575
 1736DOPC   NC320363  17.818  18.730  14.044  0.0022  0.4028  0.0856
 1736DOPC   PO420364  18.140  18.531  14.154  0.0695  0.2920 -0.2219
 1736DOPC   GL120365  18.111  18.605  13.745  0.2257 -0.3706 -0.0107
 1736DOPC   GL220366  18.226  18.854  13.752  0.0173 -0.0759 -0.0137
 1736DOPC   C1A20367  17.748  18.682  13.443  0.5497 -0.1182  0.0369
 1736DOPC   D2A20368  17.405  18.718  13.098 -0.1258 -0.1495 -0.0444
 1736DOPC   C3A20369  17.039  18.453  12.937 -0.1079  0.5040  0.5061
 1736DOPC   C4A20370  16.897  18.527  12.477 -0.2228  0.0041 -0.0076
 1736DOPC   C1B20371  18.569  18.569  13.519  0.0234  0.0986 -0.1993
 1736DOPC   D2B20372  18.856  18.222  13.300  0.0876  0.2723  0.0257
 1736DOPC   C3B20373  18.677  17.973  12.931 -0.1769  0.0097 -0.4664
 1736DOPC   C4B20374  18.799  17.749  12.524  0.1083  0.4173  0.1076
 1737POSM   NC320375  17.088  17.575  14.301 -0.0464  0.0136  0.0902
 1737POSM   PO420376  17.452  17.543  14.162 -0.2051 -0.2529 -0.0056
 1737POSM   AM120377  17.566  17.585  13.844  0.2133 -0.0189  0.1730
 1737POSM   AM220378  17.666  17.811  13.649  0.4261 -0.1772 -0.1319
 1737POSM   T1A20379  17.920  17.444  13.572  0.2062  0.0252  0.1070
 1737POSM   C2A20380  18.310  17.488  13.404 -0.1483  0.2263  0.3202
 1737POSM   C3A20381  18.715  17.591  13.221 -0.1708  0.0671 -0.1572
 1737POSM   C1B20382  17.855  17.858  13.355 -0.3098 -0.1790  0.0654
 1737POSM   D2B20383  17.883  18.112  12.989 -0.2656 -0.1250 -0.2928
 1737POSM   C3B20384  17.623  18.420  12.777  0.0294 -0.0019  0.3327
 1737POSM   C4B20385  17.951  18.715  12.528 -0.1170  0.0955 -0.3483
 1738POSM   NC320386  19.173  13.610  14.650 -0.2748 -0.3556 -0.1416
 1738POSM   PO420387  19.161  13.177  14.646 -0.1179  0.2340  0.1163
 1738POSM   AM120388  19.311  12.985  14.436  0.1738  0.2864 -0.0123
 1738POSM   AM220389  19.491  12.771  14.432  0.0160  0.1576 -0.0438
 1738POSM   T1A20390  19.401  12.854  13.939 -0.0883  0.1733 -0.0551
 1738POSM   C2A20391  19.711  12.683  13.655  0.2297  0.1738  0.1162
 1738POSM   C3A20392  20.167  12.809  13.571  0.1190  0.0329 -0.1282
 1738POSM   C1B20393  19.512  12.468  14.293  0.1429 -0.3052  0.1276
 1738POSM   D2B20394  19.508  12.082  14.179  0.0400  0.0917 -0.4458
 1738POSM   C3B20395  19.223  12.166  13.900 -0.1363 -0.1493  0.2703
 1738POSM   C4B20396  18.855  12.372  13.702 -0.0492  0.1581 -0.0001
 1739DOPC   NC320397  13.248  14.823  14.021  0.3527 -0.0345  0.2208
 1739DOPC   PO420398  13.651  14.842  14.092 -0.2147  0.0187  0.1858
 1739DOPC   GL120399  13.592  14.663  13.773 -0.0721 -0.2379 -0.2316
 1739DOPC   GL220400  13.505  14.376  13.702  0.1175  0.1814  0.0040
 1739DOPC   C1A20401  13.195  14.671  13.475 -0.2603  0.0279 -0.3298
 1739DOPC   D2A20402  13.111  14.570  12.990 -0.1006 -0.1371 -0.0514
 1739DOPC   C3A20403  13.080  14.994  12.695  0.0577  0.0066 -0.2429
 1739DOPC   C4A20404  13.472  15.313  12.657  0.0817 -0.0319  0.2058
 1739DOPC   C1B20405  13.643  14.537  13.293 -0.0289  0.0552  0.1089
 1739DOPC   D2B20406  13.743  14.965  13.246  0.0166 -0.2862 -0.0857
 1739DOPC   C3B20407  13.370  15.162  13.090  0.4097  0.0355  0.2269
 1739DOPC   C4B20408  12.935  15.069  13.200 -0.1294  0.1525  0.2486
 1740DOPE   NH320409  13.766  13.587  14.070  0.0957 -0.1640 -0.0713
 1740DOPE   PO420410  13.623  13.825  14.103 -0.0448  0.0424 -0.0658
 1740DOPE   GL120411  13.633  13.925  13.769 -0.0665 -0.2191  0.1647
 1740DOPE   GL220412  13.736  13.670  13.578  0.1155  0.1085  0.2113
 1740DOPE   C1A20413  13.502  14.033  13.307 -0.2540 -0.0887  0.0577
 1740DOPE   D2A20414  13.377  14.160  12.890  0.0650  0.1491 -0.1034
 1740DOPE   C3A20415  13.560  14.138  12.456 -0.3143 -0.2289  0.0338
 1740DOPE   C4A20416  13.609  14.114  11.992 -0.1071 -0.1842 -0.0193
 1740DOPE   C1B20417  13.610  13.418  13.260 -0.2570  0.0838  0.1940
 1740DOPE   D2B20418  13.644  13.247  12.823  0.0579  0.1043  0.1439
 1740DOPE   C3B20419  13.234  13.263  12.709 -0.1630 -0.2125  0.1502
 1740DOPE   C4B20420  13.052  13.303  12.248 -0.0887 -0.1273  0.1115
 1741DOPC   NC320421  11.647  15.973  14.482  0.1757 -0.2689  0.0257
 1741DOPC   PO420422  11.973  16.119  14.535  0.0041  0.1089 -0.2499
 1741DOPC   GL120423  11.851  16.285  14.173 -0.0521  0.0795 -0.2575
 1741DOPC   GL220424  11.998  16.522  14.160  0.1026 -0.0965 -0.3176
 1741DOPC   C1A20425  11.721  16.322  13.731 -0.1733 -0.2705 -0.0392
 1741DOPC   D2A20426  11.677  16.745  13.496 -0.2648  0.0119  0.2523
 1741DOPC   C3A20427  12.045  16.983  13.380 -0.0895  0.1101  0.0204
 1741DOPC   C4A20428  12.215  17.083  13.005  0.3053 -0.1757 -0.1228
 1741DOPC   C1B20429  12.199  16.681  13.795 -0.0083 -0.1768  0.1320
 1741DOPC   D2B20430  12.108  16.480  13.370  0.1213 -0.0133 -0.2507
 1741DOPC   C3B20431  11.945  16.608  12.948 -0.2088 -0.1043  0.4523
 1741DOPC   C4B20432  12.062  16.831  12.512  0.0512  0.1781  0.1244
 1742POSM   NC320433  20.999  19.959  15.262  0.4528  0.2180 -0.1473
 1742POSM   PO420434  21.219  19.732  15.057 -0.4086 -0.0079 -0.2660
 1742POSM   AM120435  21.292  19.617  14.750  0.1003 -0.2593  0.0184
 1742POSM   AM220436  21.118  19.609  14.543  0.3162  0.0986  0.2268
 1742POSM   T1A20437  21.396  19.241  14.485 -0.3341  0.1213  0.1301
 1742POSM   C2A20438  21.331  19.008  14.123  0.0633 -0.1530 -0.0647
 1742POSM   C3A20439  21.371  18.595  13.927 -0.0068  0.3030 -0.0549
 1742POSM   C1B20440  21.109  19.480  14.187  0.0910  0.0178 -0.2467
 1742POSM   D2B20441  21.090  19.351  13.749  0.0326  0.0764  0.0984
 1742POSM   C3B20442  21.153  18.930  13.617 -0.2255 -0.1705 -0.0575
 1742POSM   C4B20443  21.453  18.702  13.403 -0.2832 -0.3770 -0.0015
 1743POSM   NC320444  12.147  22.369  15.306  0.0824  0.0965  0.1508
 1743POSM   PO420445  12.475  22.110  15.248  0.1397 -0.0096 -0.3848
 1743POSM   AM120446  12.560  22.050  14.968 -0.6274  0.2051 -0.0845
 1743POSM   AM220447  12.604  21.824  14.795  0.1377  0.0702 -0.0205
 1743POSM   T1A20448  12.471  22.160  14.483 -0.0352 -0.2502  0.0302
 1743POSM   C2A20449  12.464  22.181  14.081 -0.0140  0.1657 -0.2205
 1743POSM   C3A20450  12.728  22.372  13.843  0.0023  0.3084 -0.2007
 1743POSM   C1B20451  12.722  21.742  14.471 -0.1383 -0.2582  0.0925
 1743POSM   D2B20452  12.957  21.846  14.128 -0.4412 -0.0175 -0.1506
 1743POSM   C3B20453  12.961  21.581  13.717  0.1050 -0.0921 -0.0555
 1743POSM   C4B20454  13.308  21.633  13.366 -0.2495  0.1541  0.0846
 1744POSM   NC320455  13.805  17.620  13.562 -0.2388 -0.1282 -0.0951
 1744POSM   PO420456  14.152  17.574  13.711 -0.1318  0.0071 -0.1380
 1744POSM   AM120457  14.263  17.718  13.421  0.4506 -0.2658 -0.1637
 1744POSM   AM220458  14.166  17.899  13.280 -0.1203 -0.2829 -0.3755
 1744POSM   T1A20459  14.568  17.713  13.015  0.0617  0.0144  0.4158
 1744POSM   C2A20460  14.582  17.425  12.654  0.0766  0.0448  0.4166
 1744POSM   C3A20461  14.485  17.658  12.239  0.1052  0.3169  0.0616
 1744POSM   C1B20462  13.927  17.959  13.061 -0.0641  0.2031  0.3850
 1744POSM   D2B20463  13.864  18.304  12.774 -0.0403  0.1312  0.2673
 1744POSM   C3B20464  13.471  18.483  12.687  0.4819  0.2953 -0.0626
 1744POSM   C4B20465  13.135  18.810  12.580  0.0246 -0.1766 -0.0564
 1745POSM   NC320466  13.991  23.483  15.152 -0.0477 -0.1746  0.0081
 1745POSM   PO420467  14.330  23.339  14.993  0.2499  0.0773 -0.2081
 1745POSM   AM120468  14.424  23.361  14.667 -0.0942  0.0609  0.1944
 1745POSM   AM220469  14.651  23.221  14.547 -0.0716  0.2686 -0.1891
 1745POSM   T1A20470  14.324  23.492  14.184 -0.0621 -0.1349  0.0836
 1745POSM   C2A20471  14.554  23.665  13.854  0.0369  0.0273  0.3379
 1745POSM   C3A20472  14.504  23.992  13.532 -0.2127 -0.1069 -0.0561
 1745POSM   C1B20473  14.815  23.244  14.283  0.1462 -0.1517  0.0450
 1745POSM   D2B20474  14.896  23.251  13.812 -0.0334 -0.3268  0.0722
 1745POSM   C3B20475  14.832  23.558  13.445 -0.1267  0.0975 -0.1074
 1745POSM   C4B20476  15.062  23.544  13.056 -0.2491  0.2162  0.0329
 1746DOPC   NC320477  22.245  18.649  15.127 -0.1441 -0.2375  0.0812
 1746DOPC   PO420478  21.909  18.846  15.238  0.0211 -0.1630  0.2708
 1746DOPC   GL120479  22.039  19.153  14.958 -0.1180  0.0818 -0.1576
 1746DOPC   GL220480  22.248  19.235  15.009 -0.2080  0.2189 -0.0413
 1746DOPC   C1A20481  21.941  19.219  14.521  0.1748 -0.1555  0.1403
 1746DOPC   D2A20482  21.841  19.268  14.078  0.0791 -0.0228 -0.2650
 1746DOPC   C3A20483  22.248  19.360  13.904  0.0690 -0.0677  0.0890
 1746DOPC   C4A20484  22.574  19.230  13.581 -0.1606  0.3737  0.3536
 1746DOPC   C1B20485  22.583  19.178  14.717  0.0526 -0.0839  0.0788
 1746DOPC   D2B20486  22.496  19.212  14.291  0.1606  0.1362 -0.1589
 1746DOPC   C3B20487  22.871  19.294  14.021 -0.0461 -0.1285 -0.2936
 1746DOPC   C4B20488  23.020  19.460  13.552 -0.1098 -0.0546  0.1395
 1747POSM   NC320489  21.950  19.423  15.428 -0.1650 -0.0246 -0.0303
 1747POSM   PO420490  22.020  19.708  15.198  0.0079 -0.1005 -0.2237
 1747POSM   AM120491  22.149  19.706  14.899 -0.1940  0.2053 -0.4657
 1747POSM   AM220492  22.379  19.649  14.789  0.0214  0.0845 -0.0588
 1747POSM   T1A20493  22.091  19.666  14.364 -0.1225 -0.2261 -0.1457
 1747POSM   C2A20494  21.899  19.770  13.992 -0.2434  0.0620  0.1248
 1747POSM   C3A20495  21.921  19.575  13.594  0.0256 -0.0275 -0.0130
 1747POSM   C1B20496  22.645  19.661  14.590  0.2009 -0.1793  0.0039
 1747POSM   D2B20497  22.631  19.749  14.134 -0.1035  0.0281  0.0049
 1747POSM   C3B20498  22.360  19.833  13.738  0.1656 -0.2692  0.0471
 1747POSM   C4B20499  22.019  20.086  13.577  0.0988  0.2478 -0.1812
 1748DOPS   CNO20500  16.155  17.301  14.146  0.0412 -0.2335 -0.0863
 1748DOPS   PO420501  16.143  17.608  13.954  0.0244  0.0304  0.2059
 1748DOPS   GL120502  16.037  17.641  13.583  0.0249  0.0592  0.0620
 1748DOPS   GL220503  16.181  17.451  13.307  0.0595 -0.2840 -0.0233
 1748DOPS   C1A20504  15.755  17.828  13.240  0.3319 -0.1669 -0.0305
 1748DOPS   D2A20505  15.633  18.159  12.906 -0.0487  0.1899 -0.0452
 1748DOPS   C3A20506  15.319  18.098  12.608  0.2226  0.0176 -0.3191
 1748DOPS   C4A20507  15.197  17.954  12.188  0.2337 -0.1278  0.1822
 1748DOPS   C1B20508  16.097  17.547  12.859  0.1650  0.2245  0.0044
 1748DOPS   D2B20509  15.951  17.479  12.423 -0.0839  0.1215  0.0611
 1748DOPS   C3B20510  16.238  17.750  12.115 -0.1424  0.2921  0.1075
 1748DOPS   C4B20511  16.420  17.676  11.727 -0.1694 -0.4686 -0.3036
 1749DOPS   CNO20512  12.599  18.627  14.521 -0.2444 -0.0394  0.1757
 1749DOPS   PO420513  12.460  18.936  14.649  0.1447 -0.0215  0.2982
 1749DOPS   GL120514  12.190  18.996  14.421 -0.4531 -0.2220 -0.4229
 1749DOPS   GL220515  11.885  18.999  14.341  0.0554  0.1008  0.2778
 1749DOPS   C1A20516  12.206  19.071  13.965  0.1714  0.1572 -0.0524
 1749DOPS   D2A20517  12.205  19.071  13.522  0.0229  0.0981  0.1118
 1749DOPS   C3A20518  12.131  18.709  13.173  0.1601 -0.1216 -0.1247
 1749DOPS   C4A20519  12.245  18.775  12.686 -0.3090 -0.0862 -0.1659
 1749DOPS   C1B20520  11.829  18.629  13.976  0.1880  0.1560 -0.2569
 1749DOPS   D2B20521  12.062  18.534  13.645  0.0793  0.0714 -0.3206
 1749DOPS   C3B20522  11.811  18.342  13.295 -0.3556  0.2390  0.1123
 1749DOPS   C4B20523  11.489  18.269  13.046  0.1124 -0.2303 -0.2507
 1750DOPS   CNO20524  16.449  19.737  14.484 -0.3179 -0.2155 -0.4300
 1750DOPS   PO420525  16.443  19.420  14.342 -0.2872 -0.0022 -0.2998
 1750DOPS   GL120526  16.559  19.458  14.006  0.0323  0.3148  0.1226
 1750DOPS   GL220527  16.899  19.445  13.952 -0.2352 -0.0279  0.0844
 1750DOPS   C1A20528  16.648  19.875  13.772  0.1699 -0.0856  0.0073
 1750DOPS   D2A20529  16.573  20.213  13.479  0.1123  0.0524  0.0396
 1750DOPS   C3A20530  16.765  20.471  13.160 -0.1459 -0.4149  0.3346
 1750DOPS   C4A20531  16.860  20.665  12.721 -0.0689  0.2223 -0.2456
 1750DOPS   C1B20532  17.156  19.673  13.649 -0.2777  0.0983  0.0709
 1750DOPS   D2B20533  17.448  19.683  13.260  0.1520  0.1114  0.1256
 1750DOPS   C3B20534  17.795  19.937  13.037  0.1982  0.3312  0.3058
 1750DOPS   C4B20535  18.095  19.782  12.668  0.1447 -0.0181  0.2010
 1751POSM   NC320536  19.008  15.083  14.154  0.0539  0.0504 -0.2300
 1751POSM   PO420537  18.724  15.088  13.872 -0.2858 -0.1732  0.2277
 1751POSM   AM120538  18.674  15.027  13.571  0.1595 -0.3609 -0.1976
 1751POSM   AM220539  18.733  14.812  13.371 -0.2229 -0.4424  0.2908
 1751POSM   T1A20540  18.657  15.134  13.053  0.1916  0.2502  0.0088
 1751POSM   C2A20541  18.625  15.368  12.667 -0.0568  0.0323 -0.1786
 1751POSM   C3A20542  18.792  15.343  12.218  0.0059  0.0642 -0.0692
 1751POSM   C1B20543  18.915  14.685  13.083 -0.1568 -0.3007 -0.1427
 1751POSM   D2B20544  19.241  14.625  12.775 -0.0839 -0.0835 -0.0134
 1751POSM   C3B20545  19.233  14.312  12.456  0.0488 -0.0976 -0.3350
 1751POSM   C4B20546  19.312  13.880  12.323 -0.3754  0.1232 -0.0657
 1752DOPE   NH320547  19.163  22.448  15.577 -0.1109  0.1865 -0.1133
 1752DOPE   PO420548  19.469  22.572  15.484  0.1170  0.0269  0.1311
 1752DOPE   GL120549  19.600  22.746  15.181 -0.4061 -0.1578  0.0499
 1752DOPE   GL220550  19.377  22.769  14.946  0.1136  0.3168  0.0956
 1752DOPE   C1A20551  19.878  22.841  14.819  0.1769  0.0614 -0.1422
 1752DOPE   D2A20552  20.166  22.696  14.468  0.3907 -0.0032 -0.1977
 1752DOPE   C3A20553  19.857  22.377  14.270 -0.0323 -0.1346 -0.0667
 1752DOPE   C4A20554  19.542  22.325  13.978  0.1401 -0.0495  0.0695
 1752DOPE   C1B20555  19.448  22.736  14.493  0.3381  0.0680  0.1176
 1752DOPE   D2B20556  19.656  22.817  14.058 -0.4909  0.0272 -0.0778
 1752DOPE   C3B20557  20.081  22.812  13.919  0.0929  0.1251 -0.0108
 1752DOPE   C4B20558  20.535  22.886  13.884 -0.0553 -0.2449 -0.2497
 1753POSM   NC320559  15.812  11.837  14.373  0.0227 -0.2432 -0.1213
 1753POSM   PO420560  15.620  12.162  14.354  0.3530  0.1021 -0.5936
 1753POSM   AM120561  15.776  12.225  14.080  0.0372  0.0499  0.1073
 1753POSM   AM220562  15.924  12.117  13.907 -0.0713 -0.0179  0.1924
 1753POSM   T1A20563  15.770  12.544  13.713  0.4535 -0.0387 -0.0342
 1753POSM   C2A20564  15.520  12.676  13.393  0.0362  0.3587  0.0121
 1753POSM   C3A20565  15.207  12.472  13.097 -0.4426 -0.0026  0.3529
 1753POSM   C1B20566  15.775  12.093  13.572  0.0489 -0.3746 -0.2190
 1753POSM   D2B20567  15.656  12.229  13.137 -0.0075 -0.0184 -0.0024
 1753POSM   C3B20568  16.070  12.219  12.845 -0.2339  0.1033  0.2406
 1753POSM   C4B20569  16.306  12.074  12.431  0.0509 -0.2207 -0.0396
 1754DOPS   CNO20570  18.425  19.240  14.642 -0.3394  0.0366 -0.1170
 1754DOPS   PO420571  18.211  19.004  14.347 -0.2915 -0.2973  0.0212
 1754DOPS   GL120572  18.450  19.272  14.068 -0.0660 -0.1492 -0.1159
 1754DOPS   GL220573  18.196  19.355  13.951 -0.0701 -0.1921  0.0950
 1754DOPS   C1A20574  18.638  19.283  13.620  0.2369  0.3197  0.1954
 1754DOPS   D2A20575  18.538  19.340  13.123 -0.0750 -0.4052  0.1519
 1754DOPS   C3A20576  18.587  19.746  12.924 -0.0255  0.1460  0.1272
 1754DOPS   C4A20577  18.595  20.196  12.936  0.0217  0.1559 -0.0021
 1754DOPS   C1B20578  18.135  19.290  13.479 -0.2744  0.0452 -0.0604
 1754DOPS   D2B20579  18.197  18.959  13.177  0.0229 -0.1184  0.3019
 1754DOPS   C3B20580  18.167  18.494  13.271  0.1604 -0.1131 -0.0172
 1754DOPS   C4B20581  18.302  18.057  13.297 -0.0096  0.0252 -0.1042
 1755POSM   NC320582  21.220  15.750  14.746 -0.1010 -0.3252  0.3594
 1755POSM   PO420583  21.379  16.028  14.518  0.1041 -0.0287  0.0562
 1755POSM   AM120584  21.172  16.105  14.263  0.0482  0.0608 -0.0968
 1755POSM   AM220585  21.162  16.018  13.961 -0.3568 -0.0989  0.2879
 1755POSM   T1A20586  20.926  16.493  13.967 -0.0607 -0.0695 -0.0919
 1755POSM   C2A20587  20.612  16.701  13.646  0.2313 -0.3034 -0.0126
 1755POSM   C3A20588  20.402  17.076  13.404  0.5685 -0.1995 -0.1849
 1755POSM   C1B20589  21.106  16.187  13.599  0.0284 -0.2347 -0.1211
 1755POSM   D2B20590  20.965  16.014  13.221  0.3268 -0.0448  0.1499
 1755POSM   C3B20591  21.086  16.253  12.809  0.0112  0.0998  0.0512
 1755POSM   C4B20592  21.310  16.447  12.394 -0.1266 -0.3373 -0.1605
 1756POSM   NC320593  16.594  14.152  14.084 -0.0143 -0.2190 -0.1618
 1756POSM   PO420594  16.285  14.218  13.893 -0.3819  0.0191 -0.0569
 1756POSM   AM120595  16.446  14.284  13.636  0.0039 -0.1749  0.0938
 1756POSM   AM220596  16.380  14.274  13.363  0.1678  0.0773  0.0182
 1756POSM   T1A20597  16.824  14.250  13.324  0.1143 -0.1255 -0.2728
 1756POSM   C2A20598  17.026  14.369  12.949  0.0955  0.3066  0.0641
 1756POSM   C3A20599  17.338  14.652  12.775  0.1840 -0.1769 -0.3515
 1756POSM   C1B20600  16.385  14.200  13.023 -0.1562 -0.1139  0.0093
 1756POSM   D2B20601  16.489  14.364  12.600 -0.0635 -0.0851 -0.1582
 1756POSM   C3B20602  16.905  14.403  12.388 -0.0441 -0.1225  0.1594
 1756POSM   C4B20603  17.088  14.469  11.986  0.1154 -0.1440  0.2875
 1757POSM   NC320604  13.215  19.596  14.610 -0.1690 -0.1147  0.2086
 1757POSM   PO420605  13.286  19.997  14.689 -0.3762 -0.2440 -0.3158
 1757POSM   AM120606  13.417  20.107  14.417  0.3207 -0.1011 -0.0479
 1757POSM   AM220607  13.591  20.059  14.172  0.1713 -0.0371  0.0859
 1757POSM   T1A20608  13.262  20.271  13.928  0.3231  0.2860 -0.0846
 1757POSM   C2A20609  13.256  20.288  13.453 -0.0631  0.0345 -0.3014
 1757POSM   C3A20610  13.366  20.332  12.972  0.0072  0.0234 -0.0867
 1757POSM   C1B20611  13.792  20.141  13.918  0.0084 -0.0290 -0.3322
 1757POSM   D2B20612  13.764  20.396  13.521 -0.1971  0.1392  0.1581
 1757POSM   C3B20613  14.170  20.567  13.420 -0.0283  0.1514 -0.1335
 1757POSM   C4B20614  14.418  20.855  13.204 -0.0639  0.2345 -0.0259
 1758DOPE   NH320615  22.435  20.175  15.410 -0.1981 -0.1386 -0.0735
 1758DOPE   PO420616  22.708  20.284  15.576 -0.0946 -0.1365  0.2513
 1758DOPE   GL120617  22.828  20.219  15.150  0.2656  0.1623 -0.2416
 1758DOPE   GL220618  22.665  19.977  15.024  0.1984  0.0092  0.0355
 1758DOPE   C1A20619  23.008  20.613  14.907 -0.0800  0.1810  0.1145
 1758DOPE   D2A20620  22.928  20.932  14.603  0.2660  0.2178 -0.0357
 1758DOPE   C3A20621  23.228  20.737  14.281 -0.1152  0.4682  0.1491
 1758DOPE   C4A20622  23.221  20.531  13.906 -0.0674 -0.0123  0.2698
 1758DOPE   C1B20623  23.013  20.028  14.792  0.3473  0.0104  0.0528
 1758DOPE   D2B20624  23.388  20.174  14.631  0.0622 -0.1328  0.2198
 1758DOPE   C3B20625  23.494  20.186  14.182 -0.0643  0.1635  0.3046
 1758DOPE   C4B20626  23.873  20.250  13.890 -0.0847 -0.0798 -0.0015
 1759DOPE   NH320627  12.504  19.411  14.490 -0.0680  0.0915 -0.3373
 1759DOPE   PO420628  12.774  19.270  14.572  0.1334  0.1866  0.2554
 1759DOPE   GL120629  12.985  19.314  14.236  0.0468  0.1431  0.1197
 1759DOPE   GL220630  12.771  19.086  14.089  0.1734  0.1112  0.0398
 1759DOPE   C1A20631  13.070  19.376  13.778  0.4215  0.0723 -0.1842
 1759DOPE   D2A20632  13.211  19.549  13.346  0.2639 -0.0465  0.1318
 1759DOPE   C3A20633  13.177  19.915  13.096 -0.2254  0.0869  0.1079
 1759DOPE   C4A20634  12.887  20.234  12.951 -0.1635  0.3909 -0.0272
 1759DOPE   C1B20635  12.676  19.089  13.705  0.1270 -0.3182  0.5092
 1759DOPE   D2B20636  12.775  19.253  13.338 -0.1167 -0.0780  0.0599
 1759DOPE   C3B20637  12.678  19.078  12.910 -0.1701  0.0077 -0.3988
 1759DOPE   C4B20638  12.535  19.080  12.448  0.1767 -0.4722  0.0265
 1760DOPS   CNO20639  21.689  13.446  15.567  0.0250  0.6010 -0.1188
 1760DOPS   PO420640  21.410  13.151  15.694  0.0253  0.1535 -0.2084
 1760DOPS   GL120641  21.754  12.947  15.483 -0.4577 -0.0193 -0.3337
 1760DOPS   GL220642  21.687  13.027  15.188 -0.1017  0.0396 -0.0333
 1760DOPS   C1A20643  21.869  12.486  15.366 -0.0350  0.2509 -0.0295
 1760DOPS   D2A20644  21.687  12.096  15.458  0.2872 -0.1819 -0.3858
 1760DOPS   C3A20645  21.473  11.821  15.075  0.0612  0.1779  0.0954
 1760DOPS   C4A20646  21.114  11.813  14.876  0.3096  0.1802  0.0772
 1760DOPS   C1B20647  21.847  12.978  14.746 -0.1114 -0.1555  0.1639
 1760DOPS   D2B20648  21.844  13.011  14.283 -0.0920 -0.0047 -0.1779
 1760DOPS   C3B20649  22.133  12.637  14.173 -0.2103  0.1050  0.0735
 1760DOPS   C4B20650  22.276  12.241  13.986 -0.0520 -0.0996 -0.1286
 1761DOPS   CNO20651  11.550  16.725  15.060  0.1406  0.1456  0.0590
 1761DOPS   PO420652  11.282  16.526  14.908 -0.1104 -0.1175  0.1347
 1761DOPS   GL120653  11.154  16.373  14.576 -0.1125 -0.1167  0.0422
 1761DOPS   GL220654  11.132  16.537  14.402 -0.0062 -0.0507 -0.0971
 1761DOPS   C1A20655  11.383  16.204  14.141 -0.3375 -0.1495 -0.1140
 1761DOPS   D2A20656  11.504  15.848  13.921 -0.0414  0.1829  0.0724
 1761DOPS   C3A20657  11.334  15.950  13.562 -0.0930  0.2331 -0.4504
 1761DOPS   C4A20658  11.273  15.964  13.108 -0.1734 -0.0700 -0.1701
 1761DOPS   C1B20659  10.882  16.630  13.975  0.0612  0.1004  0.0624
 1761DOPS   D2B20660  10.777  16.593  13.514  0.3270 -0.0534 -0.1421
 1761DOPS   C3B20661  11.020  16.524  13.127 -0.0446 -0.2012  0.2490
 1761DOPS   C4B20662  10.965  16.656  12.711 -0.2804  0.0480 -0.3322
 1762DOPE   NH320663  15.548  21.490  14.618 -0.1879  0.0136 -0.0839
 1762DOPE   PO420664  15.359  21.740  14.729  0.2837 -0.0231  0.1351
 1762DOPE   GL120665  15.355  21.757  14.270  0.6430 -0.2396  0.1675
 1762DOPE   GL220666  15.430  22.023  14.214  0.0955  0.0431  0.0599
 1762DOPE   C1A20667  15.242  21.757  13.784 -0.0378 -0.0369 -0.3210
 1762DOPE   D2A20668  15.134  21.663  13.315  0.0549 -0.4808 -0.2239
 1762DOPE   C3A20669  15.274  21.202  13.147 -0.1982 -0.0925  0.2647
 1762DOPE   C4A20670  15.623  20.955  13.281 -0.1822  0.0564  0.3248
 1762DOPE   C1B20671  15.605  22.092  13.851 -0.2864  0.1844 -0.1081
 1762DOPE   D2B20672  15.581  22.149  13.445  0.1689  0.1101  0.1899
 1762DOPE   C3B20673  15.333  22.087  13.044 -0.2044 -0.2659  0.0280
 1762DOPE   C4B20674  15.361  21.894  12.600  0.0578 -0.2128  0.1033
 1763DOPC   NC320675  16.482  22.621  15.280  0.0743  0.0302  0.1609
 1763DOPC   PO420676  16.472  22.225  15.166  0.0773 -0.0778 -0.0739
 1763DOPC   GL120677  16.437  22.403  14.845 -0.2280  0.2877  0.0686
 1763DOPC   GL220678  16.333  22.179  14.617 -0.2282  0.0149  0.0865
 1763DOPC   C1A20679  16.278  22.714  14.557  0.0333  0.0685  0.0338
 1763DOPC   D2A20680  15.979  22.719  14.223  0.0706 -0.1168  0.1170
 1763DOPC   C3A20681  15.723  23.077  14.067 -0.1528 -0.0341 -0.1803
 1763DOPC   C4A20682  15.715  23.517  14.122 -0.0742  0.0583 -0.2274
 1763DOPC   C1B20683  16.799  22.059  14.571 -0.0665 -0.0434 -0.0232
 1763DOPC   D2B20684  17.039  21.683  14.459 -0.1026 -0.4249  0.0126
 1763DOPC   C3B20685  17.086  21.794  13.986 -0.0981 -0.0186  0.1548
 1763DOPC   C4B20686  17.382  22.118  13.783 -0.1259  0.2996 -0.0351
 1764DOPE   NH320687  17.569  20.408  14.996  0.1240  0.2450 -0.1165
 1764DOPE   PO420688  17.521  20.669  14.834 -0.1759  0.0006  0.1544
 1764DOPE   GL120689  17.268  20.910  14.493  0.3161  0.2001 -0.0992
 1764DOPE   GL220690  17.034  20.668  14.536 -0.0042  0.0822  0.2882
 1764DOPE   C1A20691  17.358  20.794  14.058 -0.4014 -0.2243  0.1164
 1764DOPE   D2A20692  17.563  20.500  13.760  0.1204 -0.1755  0.0337
 1764DOPE   C3A20693  17.760  20.570  13.410  0.0004 -0.1187  0.0903
 1764DOPE   C4A20694  17.835  20.964  13.135  0.2721 -0.0279  0.2702
 1764DOPE   C1B20695  16.820  20.640  14.120 -0.2973 -0.1943 -0.0480
 1764DOPE   D2B20696  16.817  20.548  13.727  0.1361 -0.0495  0.1271
 1764DOPE   C3B20697  17.172  20.670  13.424  0.2057  0.0581  0.2807
 1764DOPE   C4B20698  17.253  20.690  12.996  0.1000 -0.4263 -0.0726
 1765DOPC   NC320699  11.280  14.949  15.174 -0.0861 -0.1532  0.0489
 1765DOPC   PO420700  11.050  15.018  14.878  0.0785 -0.0511 -0.2100
 1765DOPC   GL120701  10.915  14.866  14.568  0.2190  0.1193 -0.0252
 1765DOPC   GL220702  10.759  15.158  14.445 -0.0040  0.1187 -0.3149
 1765DOPC   C1A20703  10.652  14.530  14.463  0.0403  0.0439  0.0408
 1765DOPC   D2A20704  10.538  14.201  14.177  0.1493  0.0117  0.2621
 1765DOPC   C3A20705  10.304  14.353  13.821  0.2501  0.1337 -0.0060
 1765DOPC   C4A20706  10.170  14.196  13.432  0.0029  0.1589 -0.0697
 1765DOPC   C1B20707  10.637  15.284  14.043  0.2491  0.2177 -0.3827
 1765DOPC   D2B20708  10.683  15.739  13.882  0.2257 -0.0115  0.3791
 1765DOPC   C3B20709  10.354  15.673  13.546  0.0778 -0.0266  0.1573
 1765DOPC   C4B20710  10.379  15.483  13.125  0.1547  0.1355 -0.0764
 1766DOPE   NH320711  20.809  15.843  14.543  0.0421  0.0295  0.1824
 1766DOPE   PO420712  20.786  15.815  14.218 -0.0779  0.0086  0.0774
 1766DOPE   GL120713  20.751  15.864  13.810 -0.0233 -0.3025 -0.0872
 1766DOPE   GL220714  20.578  16.166  13.914  0.2051  0.0322 -0.1010
 1766DOPE   C1A20715  20.572  15.619  13.485 -0.2497 -0.0977 -0.1914
 1766DOPE   D2A20716  20.678  15.525  12.996 -0.2316  0.1899 -0.0835
 1766DOPE   C3A20717  20.599  15.845  12.772  0.0086 -0.0142 -0.0258
 1766DOPE   C4A20718  20.564  16.315  12.776 -0.1561 -0.0586  0.1810
 1766DOPE   C1B20719  20.601  16.201  13.483  0.2642  0.2338  0.1296
 1766DOPE   D2B20720  20.881  16.475  13.248 -0.0136 -0.1247  0.0694
 1766DOPE   C3B20721  21.337  16.419  13.232 -0.0499 -0.0065 -0.1595
 1766DOPE   C4B20722  21.731  16.636  13.083  0.0399 -0.0611  0.0830
 1767DOPE   NH320723  20.926  20.098  14.755 -0.0129  0.3689  0.0531
 1767DOPE   PO420724  20.798  20.288  14.544 -0.0270  0.2930 -0.1506
 1767DOPE   GL120725  21.192  20.308  14.317 -0.4591  0.4709 -0.4353
 1767DOPE   GL220726  21.094  20.045  14.226  0.2005  0.0117 -0.1707
 1767DOPE   C1A20727  21.351  20.188  13.869  0.0080 -0.2932  0.0008
 1767DOPE   D2A20728  21.366  20.120  13.419 -0.0662  0.1203  0.0625
 1767DOPE   C3A20729  21.112  19.999  13.033 -0.2454 -0.1086 -0.0779
 1767DOPE   C4A20730  20.874  20.244  12.781 -0.0088 -0.2153  0.2996
 1767DOPE   C1B20731  20.935  19.819  13.800  0.2716 -0.0451 -0.1930
 1767DOPE   D2B20732  20.801  19.513  13.372 -0.2393  0.0907  0.0027
 1767DOPE   C3B20733  20.280  19.451  13.396 -0.0934  0.0774 -0.1280
 1767DOPE   C4B20734  19.967  19.186  13.577 -0.1341 -0.1570 -0.2646
 1768DOPC   NC320735  14.175  12.298  14.059 -0.2948 -0.1395  0.0628
 1768DOPC   PO420736  13.963  12.110  14.334 -0.1243 -0.0124  0.2257
 1768DOPC   GL120737  13.858  11.744  14.085  0.0784  0.2369  0.3859
 1768DOPC   GL220738  13.768  11.516  14.292 -0.0107  0.2588 -0.0795
 1768DOPC   C1A20739  14.075  11.677  13.663 -0.2554 -0.2011 -0.2109
 1768DOPC   D2A20740  14.135  11.689  13.237 -0.1053 -0.2072 -0.2020
 1768DOPC   C3A20741  14.273  12.061  13.023  0.0822 -0.3158 -0.2392
 1768DOPC   C4A20742  14.201  12.478  12.809  0.3116 -0.1477 -0.0738
 1768DOPC   C1B20743  13.400  11.524  14.076  0.0244 -0.1598  0.2480
 1768DOPC   D2B20744  12.931  11.509  13.838 -0.2478  0.3760 -0.2455
 1768DOPC   C3B20745  12.449  11.571  13.850  0.2958 -0.1179 -0.1114
 1768DOPC   C4B20746  12.006  11.508  13.894 -0.1170 -0.0894 -0.3265
 1769DOPC   NC320747  21.761  15.647  14.579  0.0470  0.1200  0.0104
 1769DOPC   PO420748  21.761  15.283  14.411  0.3838 -0.2072 -0.1236
 1769DOPC   GL120749  21.600  15.188  14.092 -0.1245 -0.2566  0.2328
 1769DOPC   GL220750  21.667  15.360  13.867 -0.2189  0.0618 -0.1475
 1769DOPC   C1A20751  21.659  14.786  13.928  0.1235 -0.0280  0.0200
 1769DOPC   D2A20752  21.608  14.383  14.201  0.0893 -0.2718 -0.0132
 1769DOPC   C3A20753  21.818  13.960  14.344 -0.1936  0.2432  0.1408
 1769DOPC   C4A20754  21.856  13.559  14.233 -0.0941 -0.1880  0.3518
 1769DOPC   C1B20755  21.426  15.246  13.531  0.0647 -0.1695 -0.2144
 1769DOPC   D2B20756  21.267  15.462  13.069  0.1262  0.2415 -0.0884
 1769DOPC   C3B20757  21.146  15.734  12.768  0.4006 -0.3321  0.0413
 1769DOPC   C4B20758  21.397  15.962  12.466 -0.0706  0.1751 -0.0011
 1770DOPE   NH320759  17.939  14.290  14.182  0.2510  0.3943 -0.2364
 1770DOPE   PO420760  18.201  14.387  14.014 -0.0552 -0.0043  0.0168
 1770DOPE   GL120761  18.344  14.226  13.677  0.1047  0.0633  0.2165
 1770DOPE   GL220762  18.573  14.136  13.666  0.2807 -0.0285  0.0990
 1770DOPE   C1A20763  18.288  13.801  13.496 -0.3018  0.2308 -0.2503
 1770DOPE   D2A20764  18.103  13.422  13.371  0.1671  0.1459 -0.0417
 1770DOPE   C3A20765  17.975  13.331  12.971  0.0224 -0.3009  0.0880
 1770DOPE   C4A20766  18.163  13.539  12.622 -0.0734 -0.3511  0.0417
 1770DOPE   C1B20767  18.752  14.245  13.327  0.1293 -0.2363  0.3258
 1770DOPE   D2B20768  18.907  14.121  12.866 -0.1103  0.0798  0.3240
 1770DOPE   C3B20769  18.789  14.494  12.581 -0.1925  0.0999 -0.1369
 1770DOPE   C4B20770  18.857  14.920  12.591 -0.1670 -0.1484  0.1518
 1771DOPE   NH320771  21.731  18.355  15.287 -0.2602  0.0098  0.3810
 1771DOPE   PO420772  21.986  18.205  15.158 -0.1387  0.2379  0.1998
 1771DOPE   GL120773  21.873  18.323  14.773 -0.3522 -0.4962 -0.0123
 1771DOPE   GL220774  21.875  18.601  14.733 -0.1658  0.1837  0.1471
 1771DOPE   C1A20775  21.983  18.332  14.309 -0.0520 -0.2207 -0.1858
 1771DOPE   D2A20776  21.806  18.334  13.918 -0.0069  0.1386  0.2771
 1771DOPE   C3A20777  21.462  18.221  13.575  0.1227  0.2468  0.0170
 1771DOPE   C4A20778  21.010  18.344  13.405 -0.1659  0.0169  0.1453
 1771DOPE   C1B20779  22.193  18.741  14.445 -0.0921  0.1629  0.2236
 1771DOPE   D2B20780  22.284  18.892  13.970  0.3115 -0.0204 -0.0594
 1771DOPE   C3B20781  22.306  18.591  13.679 -0.4448 -0.1633  0.1154
 1771DOPE   C4B20782  21.926  18.425  13.433  0.0409 -0.0210  0.1652
 1772DOPS   CNO20783  13.689  16.921  14.508  0.1087 -0.2239  0.0227
 1772DOPS   PO420784  13.561  17.184  14.296 -0.2748 -0.0432  0.4347
 1772DOPS   GL120785  13.263  17.138  13.945  0.1318 -0.0914  0.1696
 1772DOPS   GL220786  13.133  16.873  14.057  0.1666 -0.1722 -0.3320
 1772DOPS   C1A20787  13.320  17.308  13.556 -0.1992 -0.0067  0.2602
 1772DOPS   D2A20788  13.058  17.319  13.186 -0.2233  0.2085  0.0798
 1772DOPS   C3A20789  12.876  16.914  13.092  0.0906 -0.1207 -0.0341
 1772DOPS   C4A20790  13.054  16.714  12.736  0.0880 -0.2407 -0.2764
 1772DOPS   C1B20791  13.226  16.443  13.789 -0.0983 -0.0156  0.4218
 1772DOPS   D2B20792  13.244  16.120  13.445 -0.1918 -0.2078  0.1931
 1772DOPS   C3B20793  13.179  16.101  12.970 -0.2041  0.0433  0.0075
 1772DOPS   C4B20794  13.142  15.721  12.757  0.1042  0.3996 -0.2752
 1773POSM   NC320795  15.263  22.982  15.274  0.3075 -0.0089 -0.2014
 1773POSM   PO420796  15.620  23.096  15.352  0.1257 -0.0192  0.1120
 1773POSM   AM120797  15.890  23.171  15.186 -0.1356  0.0285 -0.0048
 1773POSM   AM220798  16.156  23.052  15.057 -0.2423  0.1600  0.2386
 1773POSM   T1A20799  16.065  23.489  14.871  0.0142  0.3466 -0.0462
 1773POSM   C2A20800  16.160  23.695  14.447 -0.1999 -0.3830  0.2389
 1773POSM   C3A20801  16.065  23.939  14.091 -0.0390  0.2930  0.0602
 1773POSM   C1B20802  16.416  23.039  14.905 -0.0157 -0.1372 -0.1142
 1773POSM   D2B20803  16.640  23.090  14.456 -0.0039 -0.0665  0.3208
 1773POSM   C3B20804  16.709  23.449  14.237  0.0714 -0.1541 -0.0828
 1773POSM   C4B20805  16.742  23.916  14.100 -0.0327 -0.0824  0.2349
 1774DOPC   NC320806  11.374  16.962  14.674  0.0599  0.1539  0.6070
 1774DOPC   PO420807  11.138  17.028  15.006 -0.2289 -0.1896  0.0909
 1774DOPC   GL120808  11.132  17.375  14.798  0.3658  0.2040  0.2425
 1774DOPC   GL220809  11.266  17.441  14.618 -0.0014 -0.0284  0.1018
 1774DOPC   C1A20810  10.822  17.528  14.460 -0.3623 -0.3703  0.2562
 1774DOPC   D2A20811  10.732  17.721  14.038 -0.1295  0.2239  0.1526
 1774DOPC   C3A20812  10.679  18.170  13.913 -0.3777 -0.1850  0.0324
 1774DOPC   C4A20813  10.786  18.403  13.563 -0.2357 -0.0402 -0.2470
 1774DOPC   C1B20814  11.234  17.721  14.193 -0.1363 -0.1550 -0.2993
 1774DOPC   D2B20815  11.603  17.684  13.890  0.0946 -0.2987  0.3152
 1774DOPC   C3B20816  11.679  17.820  13.409  0.0638 -0.0969  0.2053
 1774DOPC   C4B20817  11.712  17.808  12.925  0.2046 -0.0181 -0.2320
 1775DOPC   NC320818  16.105  15.186  13.591 -0.0562  0.2267  0.0413
 1775DOPC   PO420819  16.068  15.464  13.907 -0.2479  0.2775 -0.2728
 1775DOPC   GL120820  15.826  15.512  13.616  0.0506  0.2927 -0.2871
 1775DOPC   GL220821  15.522  15.413  13.579  0.2579  0.1885 -0.0803
 1775DOPC   C1A20822  15.646  15.767  13.266 -0.1308 -0.2843 -0.3335
 1775DOPC   D2A20823  15.686  15.730  12.780  0.3465  0.1139 -0.0557
 1775DOPC   C3A20824  15.248  15.705  12.602 -0.1494  0.4799 -0.0753
 1775DOPC   C4A20825  14.974  15.530  12.298  0.1115 -0.0688 -0.0519
 1775DOPC   C1B20826  15.727  15.285  13.158  0.0124 -0.1450 -0.0751
 1775DOPC   D2B20827  15.959  15.330  12.713  0.0662  0.3053 -0.1337
 1775DOPC   C3B20828  15.610  15.367  12.430  0.1462  0.1644 -0.0157
 1775DOPC   C4B20829  15.597  15.567  11.989  0.0806 -0.5583 -0.1693
 1776DOPS   CNO20830  14.583  12.764  14.380 -0.0286  0.1650 -0.0229
 1776DOPS   PO420831  14.739  12.510  14.148 -0.0752  0.1652 -0.0494
 1776DOPS   GL120832  14.795  12.373  13.760 -0.1679  0.0340 -0.1664
 1776DOPS   GL220833  14.687  12.617  13.655  0.2343  0.1709  0.1988
 1776DOPS   C1A20834  14.805  12.262  13.327 -0.0791 -0.2011  0.3417
 1776DOPS   D2A20835  14.736  12.261  12.822 -0.4509 -0.2121 -0.1014
 1776DOPS   C3A20836  14.603  11.906  12.652  0.2098  0.0889  0.3297
 1776DOPS   C4A20837  14.821  11.498  12.474 -0.1679 -0.0724 -0.1872
 1776DOPS   C1B20838  14.480  12.988  13.499 -0.1046 -0.2090 -0.1740
 1776DOPS   D2B20839  14.481  13.202  13.128  0.0461 -0.1287  0.1105
 1776DOPS   C3B20840  14.155  13.113  12.848 -0.0334  0.0975  0.3276
 1776DOPS   C4B20841  13.956  12.948  12.504 -0.3296 -0.0591  0.1964
 1777DOPC   NC320842  22.712  22.759  16.031  0.1526 -0.0678  0.0167
 1777DOPC   PO420843  22.347  22.943  15.973  0.0301 -0.3839  0.1301
 1777DOPC   GL120844  22.101  23.212  15.792  0.0118 -0.1547  0.0854
 1777DOPC   GL220845  21.811  23.126  15.657  0.2208  0.2888  0.1264
 1777DOPC   C1A20846  22.164  23.348  15.367 -0.0079  0.0108 -0.0566
 1777DOPC   D2A20847  22.398  23.721  15.143 -0.0304 -0.1593 -0.0192
 1777DOPC   C3A20848  22.563  23.718  14.706 -0.4933  0.1353 -0.1203
 1777DOPC   C4A20849  22.489  23.867  14.254 -0.5281  0.0108  0.1456
 1777DOPC   C1B20850  21.687  23.141  15.198  0.0788  0.0862 -0.2800
 1777DOPC   D2B20851  21.587  23.488  14.924  0.1169  0.1075 -0.0283
 1777DOPC   C3B20852  21.436  23.430  14.527  0.0091 -0.0769  0.0691
 1777DOPC   C4B20853  21.164  23.688  14.290  0.2335 -0.1584  0.1148
 1778POSM   NC320854  19.851  15.829  14.426 -0.1603 -0.2053  0.1641
 1778POSM   PO420855  19.685  16.220  14.373 -0.1190 -0.1624  0.1052
 1778POSM   AM120856  19.839  16.199  14.061 -0.0643 -0.0651 -0.4992
 1778POSM   AM220857  19.716  16.280  13.857 -0.1394  0.1375  0.0345
 1778POSM   T1A20858  20.044  15.992  13.668 -0.2443  0.2971 -0.0276
 1778POSM   C2A20859  20.004  15.542  13.450  0.3329  0.2193  0.0685
 1778POSM   C3A20860  19.921  15.147  13.200  0.3038  0.2841  0.1552
 1778POSM   C1B20861  19.694  16.404  13.582  0.1665  0.0750  0.1635
 1778POSM   D2B20862  19.746  16.469  13.154  0.2963 -0.1455 -0.4072
 1778POSM   C3B20863  20.056  16.662  12.839 -0.2057 -0.1423  0.1430
 1778POSM   C4B20864  20.350  16.724  12.463  0.1319  0.3793 -0.0124
 1779DOPC   NC320865  17.602  13.226  14.264 -0.2042  0.0191  0.0435
 1779DOPC   PO420866  17.280  12.991  14.271 -0.3579 -0.0035 -0.0283
 1779DOPC   GL120867  17.370  12.812  14.032  0.1940  0.1901 -0.0826
 1779DOPC   GL220868  17.647  12.672  14.068 -0.0466 -0.0588 -0.0946
 1779DOPC   C1A20869  17.326  12.413  13.821  0.0272 -0.0595 -0.1505
 1779DOPC   D2A20870  17.323  12.029  13.538  0.1097  0.0222 -0.1715
 1779DOPC   C3A20871  17.562  11.752  13.340  0.2167 -0.1611  0.2315
 1779DOPC   C4A20872  17.434  11.504  13.001  0.3768  0.0963 -0.0205
 1779DOPC   C1B20873  17.834  12.579  13.673  0.2862 -0.2680 -0.3444
 1779DOPC   D2B20874  17.810  12.367  13.286  0.1547  0.0271  0.2547
 1779DOPC   C3B20875  17.992  11.990  13.042  0.1106  0.2101 -0.1572
 1779DOPC   C4B20876  18.309  11.664  12.895  0.2020 -0.1405 -0.0666
 1780DOPC   NC320877  20.098  12.172  16.241  0.0701  0.1859  0.0527
 1780DOPC   PO420878  20.370  12.263  15.996 -0.0458  0.1825  0.2516
 1780DOPC   GL120879  20.091  11.975  15.811  0.0991 -0.0127 -0.1077
 1780DOPC   GL220880  19.856  11.734  15.890 -0.1535 -0.2008  0.0166
 1780DOPC   C1A20881  20.089  11.848  15.413 -0.1034 -0.2044 -0.0987
 1780DOPC   D2A20882  20.102  11.754  14.960 -0.1099 -0.0098 -0.1259
 1780DOPC   C3A20883  20.316  11.593  14.648  0.3385 -0.2558  0.1166
 1780DOPC   C4A20884  20.422  11.784  14.235  0.0053  0.0799 -0.1152
 1780DOPC   C1B20885  19.678  11.659  15.512  0.0533 -0.0004  0.1099
 1780DOPC   D2B20886  19.592  11.729  15.052  0.0496  0.2792  0.1702
 1780DOPC   C3B20887  19.324  11.568  14.701 -0.0633 -0.0947 -0.0233
 1780DOPC   C4B20888  19.068  11.530  14.333 -0.0777 -0.1601 -0.0212
 1781DOPE   NH320889  18.056  11.368  15.665  0.4002 -0.1172  0.0921
 1781DOPE   PO420890  18.028  11.506  15.363 -0.2480  0.0595  0.1312
 1781DOPE   GL120891  18.195  11.325  15.168 -0.1014 -0.1311 -0.3133
 1781DOPE   GL220892  18.381  11.420  14.980  0.3858  0.2024  0.2184
 1781DOPE   C1A20893  18.215  11.013  14.805  0.2098 -0.0639  0.2086
 1781DOPE   D2A20894  18.134  10.649  14.512 -0.1800  0.1138 -0.2572
 1781DOPE   C3A20895  17.893  10.572  14.183 -0.2954  0.1451 -0.0645
 1781DOPE   C4A20896  17.506  10.305  14.092  0.2402 -0.0699  0.1402
 1781DOPE   C1B20897  18.684  11.201  14.680  0.1716 -0.2416  0.0535
 1781DOPE   D2B20898  19.128  11.086  14.654 -0.2977 -0.0242 -0.3161
 1781DOPE   C3B20899  19.084  10.611  14.672 -0.2599  0.1356  0.1449
 1781DOPE   C4B20900  18.928  10.317  14.324  0.2785 -0.1696  0.1498
 1782POSM   NC320901  20.456  13.103  14.973  0.1431  0.3078 -0.1141
 1782POSM   PO420902  20.561  13.079  15.355  0.2321 -0.3313  0.4879
 1782POSM   AM120903  20.855  13.006  15.181  0.9235 -0.3329 -0.1632
 1782POSM   AM220904  21.118  13.064  15.153 -0.0486 -0.1283  0.1799
 1782POSM   T1A20905  20.966  12.755  14.766  0.0991  0.0219 -0.1319
 1782POSM   C2A20906  21.198  12.801  14.347 -0.0358 -0.0717  0.3769
 1782POSM   C3A20907  21.534  12.726  14.045 -0.2717 -0.2959  0.1641
 1782POSM   C1B20908  21.306  13.114  14.886 -0.0261  0.1215  0.0118
 1782POSM   D2B20909  21.476  13.362  14.503  0.2547  0.1262  0.2965
 1782POSM   C3B20910  21.095  13.333  14.271 -0.0949 -0.0062  0.4715
 1782POSM   C4B20911  20.661  13.546  14.303 -0.2219 -0.1303 -0.0216
 1783POSM   NC320912  13.047  18.778  14.398 -0.2551  0.2481  0.0933
 1783POSM   PO420913  13.324  19.023  14.257  0.0595 -0.0324 -0.3859
 1783POSM   AM120914  13.261  18.936  13.952  0.1420  0.5289  0.4368
 1783POSM   AM220915  13.492  18.791  13.813  0.0538  0.2283  0.0600
 1783POSM   T1A20916  13.200  19.041  13.428  0.1497 -0.0889  0.1424
 1783POSM   C2A20917  13.217  19.165  12.974 -0.2891 -0.1608  0.1434
 1783POSM   C3A20918  13.050  19.321  12.573  0.0840 -0.1065  0.2116
 1783POSM   C1B20919  13.625  18.740  13.535  0.0329  0.3390  0.1339
 1783POSM   D2B20920  13.639  18.786  13.083  0.1302 -0.2253  0.1628
 1783POSM   C3B20921  13.610  19.068  12.693 -0.2072 -0.1749 -0.0216
 1783POSM   C4B20922  13.723  19.234  12.227 -0.0365 -0.2882 -0.1924
 1784DOPE   NH320923  12.579  14.053  14.316  0.5073 -0.4798 -0.1517
 1784DOPE   PO420924  12.828  14.122  14.157 -0.4303 -0.2547  0.1120
 1784DOPE   GL120925  12.570  14.108  13.836 -0.1604 -0.4032  0.1579
 1784DOPE   GL220926  12.669  13.794  13.813  0.2597  0.0937  0.1872
 1784DOPE   C1A20927  12.474  13.939  13.378  0.0610 -0.2948 -0.0333
 1784DOPE   D2A20928  12.489  13.659  13.033  0.0011 -0.1163 -0.0566
 1784DOPE   C3A20929  12.285  13.599  12.601 -0.0785  0.1598 -0.0190
 1784DOPE   C4A20930  11.929  13.386  12.327 -0.0514  0.0788 -0.2755
 1784DOPE   C1B20931  12.486  13.486  13.517 -0.0192 -0.1271 -0.0727
 1784DOPE   D2B20932  12.292  13.082  13.261  0.3156 -0.0638 -0.0574
 1784DOPE   C3B20933  12.426  12.924  12.827 -0.1936  0.1120  0.1843
 1784DOPE   C4B20934  12.389  13.111  12.422  0.1386 -0.0186 -0.0175
 1785POSM   NC320935  11.983  14.587  14.452 -0.0428  0.1103 -0.2611
 1785POSM   PO420936  12.149  14.240  14.504 -0.0454 -0.0965 -0.1527
 1785POSM   AM120937  12.067  14.059  14.270 -0.1325 -0.1518  0.0853
 1785POSM   AM220938  11.851  14.061  14.065  0.0335  0.2726 -0.1225
 1785POSM   T1A20939  12.212  13.689  13.933 -0.2360 -0.5042  0.1586
 1785POSM   C2A20940  12.031  13.325  13.630 -0.0605 -0.0758 -0.2088
 1785POSM   C3A20941  11.944  12.968  13.846  0.0539  0.0253 -0.0466
 1785POSM   C1B20942  12.038  14.203  13.801  0.0238 -0.0885 -0.0899
 1785POSM   D2B20943  12.457  14.449  13.597 -0.0511 -0.0823  0.0418
 1785POSM   C3B20944  12.641  14.682  13.190 -0.3793 -0.3065  0.0408
 1785POSM   C4B20945  12.501  14.557  12.766 -0.0778 -0.0432 -0.1459
 1786DOPE   NH320946  15.398  22.249  15.188  0.1618 -0.1496  0.3638
 1786DOPE   PO420947  15.539  22.525  15.236 -0.0636 -0.2761  0.0525
 1786DOPE   GL120948  15.394  22.732  14.935 -0.0237 -0.1161  0.0269
 1786DOPE   GL220949  15.151  22.676  14.741 -0.0569 -0.1847 -0.0566
 1786DOPE   C1A20950  15.705  22.869  14.604 -0.2198 -0.1498 -0.4304
 1786DOPE   D2A20951  16.015  23.223  14.522  0.0373  0.2713  0.1822
 1786DOPE   C3A20952  16.272  23.156  14.114 -0.1982 -0.0728  0.0435
 1786DOPE   C4A20953  16.191  22.904  13.705  0.1808 -0.2723 -0.0483
 1786DOPE   C1B20954  15.215  23.044  14.511 -0.2801  0.0410 -0.0123
 1786DOPE   D2B20955  15.284  23.295  14.109  0.1436 -0.0729 -0.0155
 1786DOPE   C3B20956  15.384  23.106  13.696 -0.1249 -0.1266  0.1472
 1786DOPE   C4B20957  15.209  23.052  13.284  0.3202  0.0347 -0.0029
 1787POSM   NC320958  12.267  17.075  14.871  0.2879  0.1142 -0.0330
 1787POSM   PO420959  11.871  17.003  14.697  0.2903  0.0827 -0.0809
 1787POSM   AM120960  11.767  16.948  14.386  0.3156  0.0195  0.1697
 1787POSM   AM220961  11.614  16.844  14.182 -0.0913 -0.0888  0.0692
 1787POSM   T1A20962  11.835  17.102  13.865  0.4218  0.0290 -0.3235
 1787POSM   C2A20963  11.632  17.271  13.513  0.1542  0.0824 -0.2654
 1787POSM   C3A20964  11.269  17.559  13.404  0.0865 -0.1242  0.1724
 1787POSM   C1B20965  11.385  16.714  13.917  0.1403  0.0108 -0.0580
 1787POSM   D2B20966  11.295  16.414  13.515 -0.0706  0.1237  0.0008
 1787POSM   C3B20967  11.602  16.301  13.170 -0.4968 -0.1206 -0.0608
 1787POSM   C4B20968  11.806  15.990  12.896  0.1109  0.1401  0.2854
 1788DOPS   CNO20969  22.986  14.030  15.896  0.1945  0.0342  0.1364
 1788DOPS   PO420970  22.944  13.622  15.883 -0.1527  0.0500 -0.2022
 1788DOPS   GL120971  23.038  13.604  15.449  0.2302 -0.1637  0.0598
 1788DOPS   GL220972  23.132  13.362  15.414  0.3543  0.0346  0.2027
 1788DOPS   C1A20973  22.959  13.428  14.995  0.0015  0.0515 -0.0422
 1788DOPS   D2A20974  23.233  13.230  14.699  0.2517  0.0420 -0.0902
 1788DOPS   C3A20975  23.600  13.407  14.574  0.0054  0.1532 -0.1578
 1788DOPS   C4A20976  23.837  13.375  14.176  0.0363 -0.1868 -0.0998
 1788DOPS   C1B20977  23.501  13.344  15.109 -0.3765  0.1941  0.0825
 1788DOPS   D2B20978  23.804  13.081  14.911  0.5456  0.3961 -0.1183
 1788DOPS   C3B20979  23.797  12.648  14.732  0.0436  0.1787 -0.3999
 1788DOPS   C4B20980  23.797  12.421  14.353  0.0427 -0.2705  0.1077
 1789DOPC   NC320981  16.763  20.956  15.362  0.2698  0.1784  0.1565
 1789DOPC   PO420982  16.813  20.812  15.007 -0.1946 -0.0499  0.0931
 1789DOPC   GL120983  16.592  21.026  14.833  0.0057  0.0068 -0.3331
 1789DOPC   GL220984  16.491  21.299  14.769 -0.1280 -0.2182  0.1303
 1789DOPC   C1A20985  16.447  20.996  14.402 -0.3451  0.4339  0.1362
 1789DOPC   D2A20986  16.723  21.150  14.054  0.2306  0.1125  0.1465
 1789DOPC   C3A20987  16.974  21.041  13.720  0.0722  0.2333 -0.0639
 1789DOPC   C4A20988  17.249  21.203  13.369 -0.1451 -0.2442  0.3111
 1789DOPC   C1B20989  16.481  21.503  14.314  0.0887  0.2266 -0.0462
 1789DOPC   D2B20990  16.520  21.808  13.977 -0.3297 -0.1152  0.2779
 1789DOPC   C3B20991  16.636  22.241  14.117  0.1952 -0.1145 -0.1738
 1789DOPC   C4B20992  16.521  22.682  14.129 -0.0257 -0.0065  0.1547
 1790DOPS   CNO20993  11.619  21.830  15.398  0.0889 -0.0491  0.0837
 1790DOPS   PO420994  11.728  22.073  15.177 -0.0398 -0.1176  0.0038
 1790DOPS   GL120995  11.636  22.118  14.754 -0.0387  0.4322  0.0459
 1790DOPS   GL220996  11.492  22.335  14.715 -0.1410 -0.0483 -0.0110
 1790DOPS   C1A20997  11.838  21.810  14.438  0.1314  0.2297  0.1672
 1790DOPS   D2A20998  12.242  21.758  14.190 -0.2779  0.2555 -0.1564
 1790DOPS   C3A20999  11.923  21.892  13.889 -0.0066  0.0707  0.0598
 1790DOPS   C4A21000  11.791  22.251  13.624 -0.0892 -0.0754  0.0866
 1790DOPS   C1B21001  11.523  22.749  14.704 -0.1127 -0.2265 -0.0962
 1790DOPS   D2B21002  11.884  23.029  14.677 -0.0974 -0.2030  0.2569
 1790DOPS   C3B21003  12.087  22.732  14.413  0.0607 -0.2244  0.2604
 1790DOPS   C4B21004  12.482  22.631  14.293  0.2164  0.1253  0.0500
 1791DOPE   NH321005  20.849  20.745  14.738 -0.0398 -0.2075  0.0161
 1791DOPE   PO421006  21.124  20.585  14.819 -0.2193 -0.1025  0.0859
 1791DOPE   GL121007  21.527  20.642  14.775  0.2163  0.0610 -0.3627
 1791DOPE   GL221008  21.552  20.520  14.469 -0.3942 -0.4697 -0.0961
 1791DOPE   C1A21009  21.948  20.791  14.666  0.0938 -0.0865  0.0698
 1791DOPE   D2A21010  22.273  21.014  14.395  0.0554  0.1473  0.3767
 1791DOPE   C3A21011  22.242  21.059  13.936 -0.0374  0.0273  0.1579
 1791DOPE   C4A21012  22.362  21.438  13.726  0.0218  0.0753  0.3765
 1791DOPE   C1B21013  21.446  20.750  14.063 -0.0487  0.1087 -0.4210
 1791DOPE   D2B21014  21.141  21.035  13.997  0.2226 -0.4969  0.2414
 1791DOPE   C3B21015  20.702  20.880  13.773 -0.2006 -0.2332  0.1244
 1791DOPE   C4B21016  20.824  20.828  13.316 -0.0500  0.3173  0.0388
 1792DOPC   NC321017  12.622  18.071  14.662 -0.0574  0.0121  0.0675
 1792DOPC   PO421018  12.908  18.255  14.536  0.0078 -0.1710 -0.1187
 1792DOPC   GL121019  13.117  18.188  14.173  0.1700  0.0420 -0.0269
 1792DOPC   GL221020  13.045  18.450  13.989 -0.2318 -0.0216  0.3044
 1792DOPC   C1A21021  12.989  18.020  13.718 -0.3006  0.3331  0.1284
 1792DOPC   D2A21022  12.845  18.114  13.269  0.0556  0.0151 -0.1397
 1792DOPC   C3A21023  12.793  17.800  12.973  0.0452  0.2337 -0.1235
 1792DOPC   C4A21024  12.577  17.583  12.588 -0.0606  0.2662  0.0907
 1792DOPC   C1B21025  13.099  18.560  13.556  0.4405  0.0529  0.0576
 1792DOPC   D2B21026  13.129  18.639  13.107 -0.0159 -0.0456 -0.1825
 1792DOPC   C3B21027  12.942  18.414  12.767 -0.0768  0.0446  0.1624
 1792DOPC   C4B21028  12.650  18.526  12.367  0.0101 -0.1826  0.0539
 1793DOPS   CNO21029  11.684  15.064  14.892  0.0128  0.0826  0.1401
 1793DOPS   PO421030  11.704  14.677  14.871  0.1755  0.0486 -0.2312
 1793DOPS   GL121031  11.566  14.738  14.547 -0.1426  0.1997  0.2654
 1793DOPS   GL221032  11.613  15.000  14.409 -0.2084  0.1173  0.0640
 1793DOPS   C1A21033  11.208  14.805  14.234 -0.0195  0.0917 -0.3568
 1793DOPS   D2A21034  11.068  15.115  13.907  0.0448 -0.0432 -0.1735
 1793DOPS   C3A21035  11.337  15.415  13.593 -0.1865  0.1079  0.0854
 1793DOPS   C4A21036  11.354  15.444  13.174 -0.2868  0.2154  0.0869
 1793DOPS   C1B21037  11.620  14.591  14.124  0.3521  0.4197 -0.2850
 1793DOPS   D2B21038  11.408  14.403  13.740 -0.4617 -0.4742  0.1642
 1793DOPS   C3B21039  11.045  14.563  13.562 -0.2746  0.2894  0.0545
 1793DOPS   C4B21040  10.598  14.686  13.479  0.0125 -0.1250 -0.0861
 1794DOPC   NC321041  14.895  14.448  13.904  0.1590 -0.3009 -0.2099
 1794DOPC   PO421042  14.855  14.056  13.943  0.1307  0.3757  0.0643
 1794DOPC   GL121043  14.848  14.096  13.648  0.1210 -0.1056  0.0202
 1794DOPC   GL221044  15.078  13.888  13.538 -0.1270  0.2173 -0.0152
 1794DOPC   C1A21045  14.650  13.833  13.293  0.1729  0.0133 -0.1039
 1794DOPC   D2A21046  14.505  13.672  12.839 -0.2681 -0.0921  0.1383
 1794DOPC   C3A21047  14.882  13.661  12.632 -0.0021 -0.1193 -0.5755
 1794DOPC   C4A21048  15.270  13.456  12.510 -0.0894  0.0857  0.0514
 1794DOPC   C1B21049  15.259  14.207  13.353 -0.0473 -0.1109 -0.1779
 1794DOPC   D2B21050  15.175  14.538  13.086  0.1477 -0.1082 -0.2462
 1794DOPC   C3B21051  15.505  14.817  12.932 -0.0913 -0.0511  0.0522
 1794DOPC   C4B21052  15.653  14.905  12.475 -0.0094 -0.0267 -0.1974
 1795DOPE   NH321053  21.928  20.255  15.186 -0.1729 -0.0440 -0.0864
 1795DOPE   PO421054  22.176  20.172  14.999  0.1459  0.0535  0.0545
 1795DOPE   GL121055  22.233  20.078  14.609  0.3154  0.4399 -0.0685
 1795DOPE   GL221056  22.020  20.220  14.520 -0.0831  0.3774 -0.0968
 1795DOPE   C1A21057  22.354  20.124  14.145 -0.1497  0.0208  0.2032
 1795DOPE   D2A21058  22.330  20.429  13.796 -0.1919 -0.2172 -0.1796
 1795DOPE   C3A21059  22.411  20.339  13.363  0.2155  0.0687  0.4506
 1795DOPE   C4A21060  22.660  20.136  13.062 -0.0824 -0.0083  0.0053
 1795DOPE   C1B21061  22.229  20.532  14.337 -0.0422 -0.1726  0.3160
 1795DOPE   D2B21062  22.622  20.684  14.159  0.0610 -0.1232 -0.0579
 1795DOPE   C3B21063  22.771  20.636  13.683 -0.1989  0.1501 -0.0885
 1795DOPE   C4B21064  22.765  20.737  13.229  0.0253  0.1625  0.2154
 1796POSM   NC321065  18.366  20.586  15.507 -0.1785  0.0171 -0.0156
 1796POSM   PO421066  18.460  20.685  15.153  0.1580  0.1452 -0.2159
 1796POSM   AM121067  18.496  20.690  14.831  0.6258  0.0743  0.0944
 1796POSM   AM221068  18.542  20.875  14.618 -0.0260  0.3180  0.1796
 1796POSM   T1A21069  18.394  20.430  14.424  0.0738 -0.1391 -0.0549
 1796POSM   C2A21070  18.101  20.197  14.130  0.1324  0.0820 -0.3938
 1796POSM   C3A21071  18.026  20.301  13.705 -0.0408 -0.2370 -0.0507
 1796POSM   C1B21072  18.319  20.944  14.311  0.4177  0.2436 -0.1689
 1796POSM   D2B21073  18.253  21.271  13.962  0.1569  0.2373  0.1503
 1796POSM   C3B21074  18.172  21.669  13.866 -0.2916 -0.0601  0.1786
 1796POSM   C4B21075  18.069  21.921  13.423  0.0413 -0.2653  0.0344
 1797DOPE   NH321076  16.056  21.963  15.038 -0.2404  0.0389  0.3349
 1797DOPE   PO421077  15.746  21.924  14.977 -0.0121 -0.3510  0.0974
 1797DOPE   GL121078  15.800  21.887  14.627  0.1321 -0.1360 -0.1573
 1797DOPE   GL221079  16.055  21.761  14.542  0.0824 -0.2073  0.0758
 1797DOPE   C1A21080  15.975  22.255  14.378  0.0240  0.0091 -0.2592
 1797DOPE   D2A21081  16.153  22.372  13.923 -0.1004 -0.1590  0.3871
 1797DOPE   C3A21082  16.251  22.234  13.508  0.0334 -0.2474 -0.1444
 1797DOPE   C4A21083  16.543  22.006  13.183 -0.1029  0.0335 -0.2602
 1797DOPE   C1B21084  15.916  21.858  14.113 -0.4407 -0.0894 -0.0827
 1797DOPE   D2B21085  15.920  21.760  13.694 -0.0775 -0.3982  0.0162
 1797DOPE   C3B21086  16.364  21.695  13.521 -0.2622 -0.2847  0.2223
 1797DOPE   C4B21087  16.581  21.490  13.113  0.3062 -0.3387 -0.2253
 1798POSM   NC321088  18.832  20.411  14.703 -0.2728 -0.1307 -0.0120
 1798POSM   PO421089  18.974  20.738  14.838  0.0667  0.0831  0.1084
 1798POSM   AM121090  19.147  20.701  14.511  0.3443 -0.2620  0.0908
 1798POSM   AM221091  19.159  20.836  14.285 -0.1420 -0.1385  0.2228
 1798POSM   T1A21092  19.100  20.399  14.100  0.4033 -0.1618  0.2133
 1798POSM   C2A21093  19.164  20.325  13.665  0.2044 -0.0839 -0.3943
 1798POSM   C3A21094  18.969  20.380  13.283 -0.3193  0.2265  0.1302
 1798POSM   C1B21095  19.215  20.940  13.967  0.1740 -0.2482  0.5477
 1798POSM   D2B21096  19.277  20.862  13.552 -0.0186 -0.1382 -0.1384
 1798POSM   C3B21097  19.498  20.882  13.150  0.2763  0.2256 -0.0754
 1798POSM   C4B21098  19.480  20.760  12.750 -0.1676 -0.3311  0.0556
 1799DOPC   NC321099  19.361  16.546  14.128  0.0525  0.2102  0.1041
 1799DOPC   PO421100  19.227  16.194  14.055 -0.0680 -0.1187 -0.0801
 1799DOPC   GL121101  19.250  16.220  13.676  0.0481  0.0664  0.3973
 1799DOPC   GL221102  19.026  15.962  13.593 -0.3763 -0.0757 -0.1653
 1799DOPC   C1A21103  19.300  16.221  13.251  0.1645 -0.2563 -0.0124
 1799DOPC   D2A21104  19.371  16.022  12.822 -0.3619  0.3729 -0.1063
 1799DOPC   C3A21105  19.666  15.858  12.496  0.0370 -0.2999  0.0747
 1799DOPC   C4A21106  20.107  15.763  12.407  0.2207 -0.0452  0.0262
 1799DOPC   C1B21107  18.911  15.808  13.167 -0.0005  0.1163  0.1399
 1799DOPC   D2B21108  19.014  15.673  12.707 -0.1537  0.1589 -0.0512
 1799DOPC   C3B21109  19.363  15.463  12.473  0.2795 -0.0876 -0.0260
 1799DOPC   C4B21110  19.681  15.490  12.143  0.1434  0.0454 -0.0393
 1800DOPE   NH321111  18.690  22.117  15.846  0.0319 -0.1026  0.0571
 1800DOPE   PO421112  18.723  22.237  15.533 -0.0159 -0.0096 -0.1701
 1800DOPE   GL121113  18.742  22.498  15.256  0.1257 -0.2187  0.0336
 1800DOPE   GL221114  18.917  22.397  15.093 -0.0030  0.2444  0.0426
 1800DOPE   C1A21115  18.469  22.495  14.869 -0.1482  0.1025  0.2121
 1800DOPE   D2A21116  18.280  22.333  14.424  0.1193  0.1371 -0.0910
 1800DOPE   C3A21117  18.070  22.642  14.185 -0.1596 -0.0935  0.1017
 1800DOPE   C4A21118  17.790  22.965  14.052 -0.0047 -0.1153  0.0536
 1800DOPE   C1B21119  18.924  22.638  14.665 -0.1425 -0.0366  0.0649
 1800DOPE   D2B21120  19.106  23.060  14.563  0.0402  0.1801 -0.0336
 1800DOPE   C3B21121  19.267  23.152  14.153 -0.2491 -0.1666  0.1268
 1800DOPE   C4B21122  19.580  23.215  13.774 -0.0695 -0.2207 -0.1266
 1801POSM   NC321123  18.141  12.761  14.599 -0.1735 -0.1774 -0.0916
 1801POSM   PO421124  17.950  12.417  14.751 -0.2232 -0.2760  0.2451
 1801POSM   AM121125  18.194  12.285  14.553  0.5053 -0.3841 -0.0436
 1801POSM   AM221126  18.107  12.138  14.358  0.1527  0.2408  0.0476
 1801POSM   T1A21127  18.573  12.013  14.549  0.0651 -0.2811  0.1179
 1801POSM   C2A21128  18.814  11.680  14.745  0.4883 -0.1511  0.0769
 1801POSM   C3A21129  18.862  11.413  15.124  0.1589 -0.0005 -0.0155
 1801POSM   C1B21130  18.230  11.928  14.126 -0.1656  0.0548 -0.0508
 1801POSM   D2B21131  18.357  11.771  13.718 -0.0833 -0.1031  0.0970
 1801POSM   C3B21132  18.786  11.776  13.489  0.0060 -0.0441  0.1549
 1801POSM   C4B21133  19.083  12.049  13.254 -0.3593 -0.1860  0.1731
 1802DOPE   NH321134  20.671  21.925  15.182  0.2220  0.1395  0.1493
 1802DOPE   PO421135  20.668  21.567  15.160 -0.0122  0.0342  0.2420
 1802DOPE   GL121136  20.730  21.642  14.725 -0.0402 -0.0522 -0.1551
 1802DOPE   GL221137  21.002  21.883  14.769 -0.0089  0.0817  0.1088
 1802DOPE   C1A21138  20.507  21.747  14.289 -0.1606 -0.1694  0.1634
 1802DOPE   D2A21139  20.624  21.937  13.919  0.0182 -0.1771  0.1829
 1802DOPE   C3A21140  20.915  21.974  13.602  0.0356  0.3035 -0.1066
 1802DOPE   C4A21141  21.173  21.818  13.245 -0.0867  0.2894  0.2534
 1802DOPE   C1B21142  21.347  21.993  14.473  0.1568 -0.2323 -0.2534
 1802DOPE   D2B21143  21.543  22.095  14.054  0.0228 -0.0325  0.1889
 1802DOPE   C3B21144  21.445  21.864  13.679  0.1426 -0.0953 -0.2028
 1802DOPE   C4B21145  21.150  21.496  13.616  0.2001  0.4459  0.2044
 1803DOPE   NH321146  12.105  15.320  14.588 -0.1770 -0.4588 -0.1700
 1803DOPE   PO421147  11.808  15.475  14.527 -0.0570 -0.0003 -0.3123
 1803DOPE   GL121148  11.930  15.729  14.245 -0.0476 -0.1646 -0.2285
 1803DOPE   GL221149  12.223  15.764  14.284  0.0506  0.0124  0.0010
 1803DOPE   C1A21150  12.040  15.969  13.881  0.3149 -0.2854  0.0117
 1803DOPE   D2A21151  12.340  16.083  13.562  0.2066 -0.1948  0.1432
 1803DOPE   C3A21152  12.324  16.089  13.135 -0.0038 -0.4026  0.1530
 1803DOPE   C4A21153  12.699  16.064  12.813  0.1515 -0.1529  0.2277
 1803DOPE   C1B21154  12.455  15.716  13.880 -0.0620  0.0854  0.0459
 1803DOPE   D2B21155  12.788  15.713  13.538  0.1057 -0.0062 -0.2106
 1803DOPE   C3B21156  12.657  15.600  13.128  0.2715  0.3741  0.3720
 1803DOPE   C4B21157  12.289  15.592  12.898  0.3424  0.0951 -0.1653
 1804DOPE   NH321158  20.071  18.402  15.042  0.3330  0.3432  0.0723
 1804DOPE   PO421159  20.350  18.256  14.947  0.0374 -0.1425 -0.4325
 1804DOPE   GL121160  20.257  18.104  14.593 -0.4366  0.1956 -0.2312
 1804DOPE   GL221161  19.987  18.016  14.595  0.1264  0.1395  0.4792
 1804DOPE   C1A21162  20.005  18.405  14.285  0.2279 -0.2392  0.2585
 1804DOPE   D2A21163  19.793  18.854  14.094  0.0267  0.0365  0.0140
 1804DOPE   C3A21164  19.532  19.061  13.753 -0.2003  0.1628 -0.1670
 1804DOPE   C4A21165  19.119  19.096  13.513 -0.1726  0.1725  0.2851
 1804DOPE   C1B21166  19.656  18.014  14.243 -0.4476 -0.0841 -0.0938
 1804DOPE   D2B21167  19.495  18.422  14.029  0.2112  0.2185  0.0552
 1804DOPE   C3B21168  19.188  18.814  14.088 -0.1824  0.1405 -0.0967
 1804DOPE   C4B21169  18.736  18.853  13.870 -0.2681 -0.2265  0.0896
 1805DOPE   NH321170  12.965  13.362  14.178  0.1258  0.0414 -0.2557
 1805DOPE   PO421171  12.678  13.404  14.331  0.1992  0.0139  0.1862
 1805DOPE   GL121172  12.519  13.074  14.245 -0.4202  0.0004  0.0465
 1805DOPE   GL221173  12.454  13.179  13.917 -0.2539 -0.0184  0.1636
 1805DOPE   C1A21174  12.425  12.634  14.394 -0.0133  0.3380 -0.0637
 1805DOPE   D2A21175  12.418  12.231  14.201  0.1097 -0.1643  0.2604
 1805DOPE   C3A21176  11.993  12.106  14.104 -0.0703  0.0545  0.0178
 1805DOPE   C4A21177  11.564  12.261  13.962 -0.1756 -0.4824  0.0877
 1805DOPE   C1B21178  12.744  12.998  13.543  0.2827  0.1414  0.0752
 1805DOPE   D2B21179  12.923  12.716  13.262  0.2787  0.0632  0.1986
 1805DOPE   C3B21180  12.653  12.310  13.303 -0.1861  0.2237 -0.4390
 1805DOPE   C4B21181  12.816  11.942  13.025 -0.3241 -0.0648 -0.0060
 1806POSM   NC321182  19.464  14.354  14.084 -0.2200  0.2385  0.1602
 1806POSM   PO421183  19.773  14.598  14.250  0.2367 -0.1454 -0.0944
 1806POSM   AM121184  19.861  14.565  13.950 -0.2110  0.2790  0.0277
 1806POSM   AM221185  19.725  14.666  13.691 -0.1673  0.0547 -0.1552
 1806POSM   T1A21186  20.028  14.268  13.599 -0.0372  0.0108  0.1960
 1806POSM   C2A21187  20.219  14.149  13.181 -0.0065 -0.0276 -0.3415
 1806POSM   C3A21188  20.173  13.896  12.753  0.0325  0.2776  0.0057
 1806POSM   C1B21189  19.862  14.663  13.403 -0.5613  0.2897  0.2817
 1806POSM   D2B21190  20.129  14.693  12.978 -0.2993 -0.3744  0.2712
 1806POSM   C3B21191  20.233  14.365  12.621  0.1442 -0.0500 -0.1697
 1806POSM   C4B21192  20.129  14.248  12.219  0.0084 -0.0009  0.4464
 1807DOPE   NH321193  20.289  20.280  14.639 -0.2352 -0.2277  0.0499
 1807DOPE   PO421194  20.409  20.016  14.839  0.1184  0.3287 -0.3776
 1807DOPE   GL121195  20.533  19.885  14.528 -0.1128  0.0085  0.1364
 1807DOPE   GL221196  20.417  19.969  14.286  0.0114  0.1459  0.2227
 1807DOPE   C1A21197  20.624  19.516  14.329 -0.0063  0.4232 -0.2573
 1807DOPE   D2A21198  20.793  19.150  14.221  0.1642 -0.4191 -0.0404
 1807DOPE   C3A21199  20.724  18.897  13.855 -0.1346 -0.3151  0.1970
 1807DOPE   C4A21200  20.672  19.031  13.430 -0.3457 -0.1277 -0.1121
 1807DOPE   C1B21201  20.586  20.209  13.898  0.1232  0.2584 -0.0166
 1807DOPE   D2B21202  20.790  20.301  13.517  0.1089  0.0406  0.2739
 1807DOPE   C3B21203  21.140  20.530  13.592 -0.1036 -0.0077 -0.0723
 1807DOPE   C4B21204  21.388  20.933  13.561 -0.0611  0.0207 -0.2123
 1808DOPE   NH321205  21.116  22.388  15.597  0.0992 -0.2030  0.0611
 1808DOPE   PO421206  20.810  22.374  15.526  0.5198  0.0177 -0.0781
 1808DOPE   GL121207  20.753  22.365  15.121  0.2209 -0.1098  0.1701
 1808DOPE   GL221208  21.026  22.354  15.052  0.2081 -0.4902 -0.2619
 1808DOPE   C1A21209  20.680  22.519  14.694 -0.2994  0.0946  0.0369
 1808DOPE   D2A21210  20.739  22.604  14.238  0.3270 -0.2949 -0.0504
 1808DOPE   C3A21211  21.009  22.859  13.992 -0.0356 -0.1898 -0.3866
 1808DOPE   C4A21212  20.994  23.281  14.147 -0.2078 -0.2132  0.0129
 1808DOPE   C1B21213  21.386  22.345  14.794  0.2648  0.1272 -0.1066
 1808DOPE   D2B21214  21.721  22.487  14.492  0.0923 -0.2824  0.0880
 1808DOPE   C3B21215  22.047  22.742  14.357 -0.0340 -0.2469 -0.0649
 1808DOPE   C4B21216  22.312  23.071  14.199 -0.1302  0.2885  0.0047
 1809POSM   NC321217  20.408  15.647  13.991  0.0411 -0.6589  0.1206
 1809POSM   PO421218  20.050  15.501  14.100 -0.0731 -0.1963 -0.0329
 1809POSM   AM121219  19.870  15.595  13.901  0.0668 -0.0859  0.2109
 1809POSM   AM221220  19.636  15.759  13.926 -0.1681  0.0678  0.4380
 1809POSM   T1A21221  19.551  15.353  13.583 -0.1829 -0.0622 -0.3201
 1809POSM   C2A21222  19.325  15.487  13.208  0.0419 -0.3124  0.2286
 1809POSM   C3A21223  19.175  15.155  12.916  0.2120  0.0807 -0.1045
 1809POSM   C1B21224  19.572  15.852  13.632 -0.1379  0.2110  0.1229
 1809POSM   D2B21225  19.669  15.919  13.204 -0.1685  0.1415 -0.1102
 1809POSM   C3B21226  19.732  15.583  12.892 -0.3146 -0.1695 -0.1437
 1809POSM   C4B21227  19.903  15.315  12.572  0.1622  0.1121 -0.0284
 1810DOPC   NC321228  13.849  20.169  14.659  0.2262 -0.0993 -0.0684
 1810DOPC   PO421229  14.195  19.995  14.607  0.2926 -0.0222 -0.1869
 1810DOPC   GL121230  14.143  20.197  14.317 -0.1515  0.0760 -0.1430
 1810DOPC   GL221231  14.214  20.504  14.377 -0.0446  0.1941  0.3964
 1810DOPC   C1A21232  14.301  20.232  13.881 -0.1324 -0.1703  0.1559
 1810DOPC   D2A21233  14.128  20.019  13.469  0.2341 -0.2580  0.0694
 1810DOPC   C3A21234  14.165  19.697  13.112 -0.3246 -0.0275  0.1208
 1810DOPC   C4A21235  14.025  19.415  12.803 -0.2502  0.1246 -0.1585
 1810DOPC   C1B21236  14.535  20.662  14.009  0.2308  0.0532  0.0908
 1810DOPC   D2B21237  14.751  20.558  13.633  0.1390  0.1248  0.1775
 1810DOPC   C3B21238  14.709  20.223  13.307 -0.0422  0.1221  0.0889
 1810DOPC   C4B21239  14.409  20.129  13.014  0.3540 -0.0348  0.2179
 1811DOPE   NH321240  13.155  13.790  13.894 -0.1463 -0.0645 -0.0584
 1811DOPE   PO421241  13.320  13.525  13.813 -0.0659  0.1386 -0.1659
 1811DOPE   GL121242  12.978  13.543  13.546  0.3355  0.0252 -0.1880
 1811DOPE   GL221243  13.125  13.769  13.360  0.1014 -0.1810 -0.0782
 1811DOPE   C1A21244  12.878  13.268  13.195  0.1242 -0.0658  0.2343
 1811DOPE   D2A21245  12.744  13.355  12.772 -0.1010 -0.2651  0.0668
 1811DOPE   C3A21246  12.671  13.584  12.367 -0.2007 -0.1476 -0.0236
 1811DOPE   C4A21247  12.634  14.050  12.165  0.2760  0.0042  0.2609
 1811DOPE   C1B21248  13.092  13.696  12.911 -0.0253  0.0659  0.1254
 1811DOPE   D2B21249  13.067  13.961  12.492  0.1598 -0.1644  0.0943
 1811DOPE   C3B21250  13.071  13.853  12.067 -0.1039  0.1426  0.1318
 1811DOPE   C4B21251  13.213  14.077  11.676  0.1072 -0.1585  0.4962
 1812DOPC   NC321252  21.539  17.494  14.860 -0.6216 -0.3430  0.0642
 1812DOPC   PO421253  21.886  17.367  14.861  0.0421  0.0247  0.6803
 1812DOPC   GL121254  21.809  17.371  14.481  0.1172  0.3585 -0.1167
 1812DOPC   GL221255  21.699  17.108  14.408 -0.0905  0.0353 -0.0047
 1812DOPC   C1A21256  21.941  17.476  14.023  0.1862  0.2633  0.3175
 1812DOPC   D2A21257  22.220  17.584  13.657  0.1409  0.0880 -0.2118
 1812DOPC   C3A21258  22.109  17.403  13.294  0.1262 -0.1805 -0.1942
 1812DOPC   C4A21259  22.099  17.180  12.848 -0.1886 -0.0774  0.2726
 1812DOPC   C1B21260  21.689  16.884  14.045  0.1839 -0.1963  0.2489
 1812DOPC   D2B21261  21.823  16.756  13.584 -0.3210  0.2363  0.2109
 1812DOPC   C3B21262  22.138  16.863  13.268 -0.4498  0.0717  0.1216
 1812DOPC   C4B21263  22.489  17.137  13.144 -0.0949  0.1224  0.1027
 1813POSM   NC321264  12.861  11.999  15.040  0.0150 -0.1218 -0.4523
 1813POSM   PO421265  13.243  12.071  14.837  0.3967  0.0852 -0.3472
 1813POSM   AM121266  13.027  12.097  14.601 -0.3387 -0.2148  0.1684
 1813POSM   AM221267  12.799  12.018  14.453  0.2051  0.1999  0.2430
 1813POSM   T1A21268  12.905  12.393  14.201 -0.1398 -0.1684  0.1154
 1813POSM   C2A21269  12.605  12.571  13.901  0.2656  0.0773  0.1392
 1813POSM   C3A21270  12.334  12.711  13.575  0.0657  0.0590  0.1558
 1813POSM   C1B21271  12.795  11.867  14.135  0.0981  0.2038 -0.3194
 1813POSM   D2B21272  12.701  11.995  13.712 -0.1088  0.2082 -0.1222
 1813POSM   C3B21273  12.237  11.978  13.675 -0.1474  0.2345 -0.2116
 1813POSM   C4B21274  11.787  11.932  13.613  0.1895  0.1860  0.1624
 1814DOPE   NH321275  18.789  14.581  13.804 -0.2595 -0.0669 -0.0553
 1814DOPE   PO421276  19.079  14.620  13.942 -0.0938 -0.2521  0.0502
 1814DOPE   GL121277  19.162  14.674  13.502  0.2723 -0.1712  0.2156
 1814DOPE   GL221278  19.157  14.972  13.588 -0.1920 -0.1541 -0.3461
 1814DOPE   C1A21279  19.315  14.390  13.189 -0.2142 -0.0066 -0.0069
 1814DOPE   D2A21280  19.394  14.063  12.844 -0.2553  0.0481  0.0051
 1814DOPE   C3A21281  19.365  13.641  12.740  0.1890  0.3216  0.1134
 1814DOPE   C4A21282  18.997  13.525  12.452  0.4897 -0.1758 -0.2008
 1814DOPE   C1B21283  19.448  14.920  13.226 -0.2190  0.1292 -0.1657
 1814DOPE   D2B21284  19.657  14.910  12.824  0.2021  0.2693  0.1420
 1814DOPE   C3B21285  19.456  15.014  12.415 -0.0433  0.1092  0.0599
 1814DOPE   C4B21286  19.151  14.825  12.175 -0.0105 -0.1474  0.0316
 1815DOPE   NH321287  20.804  15.054  14.294  0.2892 -0.2280  0.1977
 1815DOPE   PO421288  20.901  15.332  14.450  0.0989 -0.1050 -0.2717
 1815DOPE   GL121289  20.879  15.418  14.009 -0.0294 -0.4562  0.0876
 1815DOPE   GL221290  21.105  15.249  13.935 -0.4196  0.0159  0.0530
 1815DOPE   C1A21291  21.042  15.656  13.591 -0.1153 -0.2673  0.1802
 1815DOPE   D2A21292  21.420  15.843  13.384 -0.1525 -0.0493 -0.1331
 1815DOPE   C3A21293  21.780  15.580  13.386 -0.3590 -0.2693 -0.3459
 1815DOPE   C4A21294  21.944  15.165  13.459 -0.0578 -0.2580  0.1690
 1815DOPE   C1B21295  20.931  15.192  13.528  0.0284 -0.0774 -0.0207
 1815DOPE   D2B21296  20.911  15.066  13.079  0.0331 -0.0736 -0.2857
 1815DOPE   C3B21297  20.883  15.173  12.647 -0.2475  0.0607 -0.0701
 1815DOPE   C4B21298  20.697  15.542  12.415 -0.0119  0.0784  0.2381
 1816POSM   NC321299  14.597  13.118  13.983 -0.0183 -0.1644  0.0731
 1816POSM   PO421300  14.956  13.062  14.145  0.1032  0.0679  0.0910
 1816POSM   AM121301  15.078  12.885  13.887 -0.2724  0.4738  0.2811
 1816POSM   AM221302  15.260  12.676  13.801  0.0218 -0.0335 -0.1883
 1816POSM   T1A21303  15.074  12.925  13.400  0.1567 -0.0415 -0.0183
 1816POSM   C2A21304  15.282  12.956  12.994  0.1638  0.0265 -0.3791
 1816POSM   C3A21305  15.636  13.060  12.753 -0.0428 -0.3334 -0.2236
 1816POSM   C1B21306  15.252  12.354  13.570 -0.3142 -0.0661 -0.2004
 1816POSM   D2B21307  15.181  11.945  13.386  0.2110  0.0070 -0.1900
 1816POSM   C3B21308  15.574  11.636  13.349  0.4316 -0.2266 -0.0058
 1816POSM   C4B21309  15.701  11.442  12.961 -0.0837 -0.1542  0.0714
 1817DOPS   CNO21310  18.775  13.978  14.611  0.0715  0.1403 -0.0660
 1817DOPS   PO421311  18.678  13.721  14.348  0.0398  0.1509 -0.0187
 1817DOPS   GL121312  18.792  13.540  14.020  0.3433  0.4645 -0.1401
 1817DOPS   GL221313  18.836  13.748  13.898  0.2751 -0.0704  0.0646
 1817DOPS   C1A21314  19.022  13.221  13.762 -0.1334  0.0311 -0.0795
 1817DOPS   D2A21315  19.131  13.281  13.322  0.0276 -0.4382 -0.3517
 1817DOPS   C3A21316  19.279  12.864  13.407 -0.0582 -0.3452 -0.1742
 1817DOPS   C4A21317  19.329  12.392  13.450 -0.0254  0.1897  0.1002
 1817DOPS   C1B21318  18.807  13.656  13.473  0.1801 -0.0644  0.2245
 1817DOPS   D2B21319  18.931  13.646  13.012 -0.1962  0.1953  0.2255
 1817DOPS   C3B21320  18.633  13.427  12.725 -0.0919  0.1408 -0.0299
 1817DOPS   C4B21321  18.510  13.447  12.221 -0.1003  0.1262 -0.1132
 1818DOPC   NC321322  14.323  22.819  14.828 -0.0568 -0.2704  0.2202
 1818DOPC   PO421323  14.643  22.706  14.822  0.0002 -0.0907  0.0672
 1818DOPC   GL121324  14.838  22.769  14.426 -0.1995 -0.2747  0.2309
 1818DOPC   GL221325  14.586  22.801  14.290  0.2677  0.0672 -0.0575
 1818DOPC   C1A21326  15.097  22.842  14.062 -0.2200  0.0413  0.1273
 1818DOPC   D2A21327  14.980  22.691  13.601  0.3351 -0.2201 -0.0892
 1818DOPC   C3A21328  15.295  22.569  13.380  0.4735  0.0467  0.1877
 1818DOPC   C4A21329  15.559  22.769  13.018  0.0216  0.2875 -0.0179
 1818DOPC   C1B21330  14.486  23.031  13.899  0.1198 -0.2316 -0.0147
 1818DOPC   D2B21331  14.346  23.156  13.515 -0.1413 -0.1309 -0.3490
 1818DOPC   C3B21332  14.574  23.217  13.095  0.3336 -0.2525 -0.1734
 1818DOPC   C4B21333  14.558  23.419  12.669 -0.2108 -0.0267 -0.2074
 1819POSM   NC321334  16.725  17.230  14.090  0.0752  0.2905 -0.0567
 1819POSM   PO421335  16.669  17.645  14.023  0.0687  0.3008  0.1393
 1819POSM   AM121336  16.656  17.703  13.702 -0.4307  0.2251 -0.5883
 1819POSM   AM221337  16.442  17.859  13.554 -0.0564  0.1628  0.0503
 1819POSM   T1A21338  16.646  17.606  13.225  0.1726 -0.0571  0.1861
 1819POSM   C2A21339  16.508  17.322  12.917  0.2353  0.0661 -0.0158
 1819POSM   C3A21340  16.242  17.124  12.599  0.0983  0.0628  0.1874
 1819POSM   C1B21341  16.308  17.960  13.288  0.3817  0.3039  0.1078
 1819POSM   D2B21342  16.131  18.055  12.863  0.0575  0.3022  0.4166
 1819POSM   C3B21343  15.856  18.003  12.504 -0.1735 -0.0439 -0.2086
 1819POSM   C4B21344  15.718  18.159  12.106  0.0196 -0.1666 -0.1409
 1820DOPE   NH321345  18.267  13.515  14.525  0.0865  0.0141 -0.3586
 1820DOPE   PO421346  18.089  13.290  14.395 -0.1330  0.0731 -0.0703
 1820DOPE   GL121347  18.247  13.321  14.115  0.0267  0.0095  0.3484
 1820DOPE   GL221348  18.074  13.418  13.945 -0.0571  0.0981  0.1865
 1820DOPE   C1A21349  18.516  13.325  13.702 -0.0040 -0.1513  0.3281
 1820DOPE   D2A21350  18.661  13.179  13.279  0.1941 -0.1336  0.0584
 1820DOPE   C3A21351  18.429  12.936  12.970  0.0779 -0.1360 -0.2139
 1820DOPE   C4A21352  18.589  12.582  12.674 -0.0201  0.0649  0.1991
 1820DOPE   C1B21353  17.993  13.028  13.718  0.1391  0.1128 -0.3004
 1820DOPE   D2B21354  17.927  12.891  13.242 -0.1152  0.0673  0.2317
 1820DOPE   C3B21355  17.846  12.905  12.812 -0.1054  0.0835 -0.1339
 1820DOPE   C4B21356  17.982  13.023  12.394 -0.2309  0.1030  0.0741
 1821DOPS   CNO21357  16.538  12.192  14.879  0.2803  0.0520 -0.3968
 1821DOPS   PO421358  16.830  12.038  14.687 -0.0225  0.0979  0.1652
 1821DOPS   GL121359  16.940  11.815  14.363 -0.0970 -0.0567  0.0233
 1821DOPS   GL221360  16.987  12.039  14.171 -0.0572 -0.0968 -0.0136
 1821DOPS   C1A21361  16.915  11.620  13.946 -0.0766  0.0168 -0.4521
 1821DOPS   D2A21362  17.057  11.607  13.475 -0.3139 -0.0579  0.1655
 1821DOPS   C3A21363  16.974  11.661  13.046 -0.0459  0.1553 -0.1272
 1821DOPS   C4A21364  17.111  11.600  12.620 -0.1932 -0.0605  0.3060
 1821DOPS   C1B21365  16.888  12.160  13.729  0.1695  0.1636 -0.0111
 1821DOPS   D2B21366  16.841  12.144  13.320 -0.0861 -0.5168  0.0008
 1821DOPS   C3B21367  17.258  12.088  13.043  0.0554 -0.1095  0.2671
 1821DOPS   C4B21368  17.224  12.178  12.593 -0.1228 -0.4414  0.2649
 1822DOPS   CNO21369  18.328  21.481  15.154  0.1603 -0.0368 -0.2964
 1822DOPS   PO421370  17.944  21.489  15.258  0.0838  0.0018 -0.1217
 1822DOPS   GL121371  17.872  21.832  14.997  0.1017 -0.2128  0.1393
 1822DOPS   GL221372  17.804  21.658  14.730 -0.0647 -0.1156 -0.0584
 1822DOPS   C1A21373  17.929  22.229  14.773 -0.0275  0.1732 -0.1484
 1822DOPS   D2A21374  17.700  22.360  14.374  0.0108 -0.2479  0.0192
 1822DOPS   C3A21375  17.829  22.052  14.082  0.1704  0.0164  0.3338
 1822DOPS   C4A21376  17.664  21.728  13.774 -0.2186 -0.0695 -0.1065
 1822DOPS   C1B21377  17.491  21.387  14.560  0.4551 -0.0712 -0.0986
 1822DOPS   D2B21378  17.209  21.305  14.158  0.1283 -0.0663 -0.0924
 1822DOPS   C3B21379  17.530  21.259  13.828  0.1353  0.1252 -0.1997
 1822DOPS   C4B21380  17.864  21.328  13.541 -0.0204  0.0749 -0.0424
 1823DOPE   NH321381  21.785  12.219  15.981  0.2143 -0.0315  0.0418
 1823DOPE   PO421382  22.025  12.078  15.897  0.4997  0.3733  0.0182
 1823DOPE   GL121383  22.328  11.924  15.634 -0.2739  0.1029  0.2640
 1823DOPE   GL221384  22.341  11.691  15.546  0.0250 -0.1572 -0.3481
 1823DOPE   C1A21385  22.250  12.215  15.300 -0.0618 -0.1006  0.0427
 1823DOPE   D2A21386  22.544  12.467  15.102  0.1380  0.1673 -0.1358
 1823DOPE   C3A21387  22.837  12.424  14.698 -0.0321 -0.0317 -0.2870
 1823DOPE   C4A21388  23.116  12.413  14.298 -0.3736  0.1341  0.4867
 1823DOPE   C1B21389  22.022  11.782  15.225  0.0904 -0.1183  0.2606
 1823DOPE   D2B21390  21.922  12.069  14.887  0.3222  0.0758 -0.1306
 1823DOPE   C3B21391  21.554  11.928  14.608  0.2121  0.2649  0.0009
 1823DOPE   C4B21392  21.200  11.771  14.392  0.2888  0.0092  0.0502
 1824DOPC   NC321393  17.632  14.665  13.408 -0.2381  0.1706 -0.1587
 1824DOPC   PO421394  17.833  14.478  13.738 -0.1071 -0.1590 -0.3101
 1824DOPC   GL121395  17.841  14.277  13.325 -0.4153 -0.1921 -0.3440
 1824DOPC   GL221396  17.554  14.108  13.406 -0.2556 -0.4258  0.0591
 1824DOPC   C1A21397  17.968  13.881  13.060 -0.1473  0.0376 -0.0718
 1824DOPC   D2A21398  17.598  13.629  12.854 -0.2129  0.3695 -0.0810
 1824DOPC   C3A21399  17.601  13.319  12.509  0.1840  0.0782 -0.2619
 1824DOPC   C4A21400  17.220  13.071  12.395  0.0839 -0.0323  0.1947
 1824DOPC   C1B21401  17.680  13.679  13.439  0.0505  0.1032 -0.0101
 1824DOPC   D2B21402  17.486  13.275  13.233 -0.2421  0.2001 -0.1136
 1824DOPC   C3B21403  17.176  13.297  12.967 -0.1133 -0.1744 -0.1768
 1824DOPC   C4B21404  17.080  13.540  12.547 -0.1900 -0.1096  0.1146
 1825DOPS   CNO21405  21.753  17.788  15.259  0.0479  0.0853 -0.0163
 1825DOPS   PO421406  21.442  17.988  15.116  0.1030 -0.0855 -0.0768
 1825DOPS   GL121407  21.697  17.894  14.787 -0.1445  0.3424 -0.2250
 1825DOPS   GL221408  21.514  18.047  14.562 -0.3180 -0.1125  0.3168
 1825DOPS   C1A21409  21.971  17.817  14.434  0.0319  0.0910  0.3569
 1825DOPS   D2A21410  22.286  17.458  14.421 -0.2721  0.1108  0.0430
 1825DOPS   C3A21411  22.225  17.038  14.231 -0.2298  0.0560 -0.1111
 1825DOPS   C4A21412  22.381  16.665  13.939  0.0252  0.0768 -0.1758
 1825DOPS   C1B21413  21.441  18.473  14.402 -0.1243 -0.0513  0.0132
 1825DOPS   D2B21414  21.769  18.770  14.222  0.0364  0.3377 -0.0562
 1825DOPS   C3B21415  21.834  18.811  13.785  0.1640 -0.2150 -0.0208
 1825DOPS   C4B21416  21.629  19.169  13.592  0.0386 -0.1210  0.0719
 1826DOPE   NH321417  14.709  22.149  14.825  0.0198  0.1877 -0.2822
 1826DOPE   PO421418  14.957  22.011  14.929  0.0098  0.0625 -0.0361
 1826DOPE   GL121419  15.009  21.958  14.544 -0.1886  0.3939  0.5008
 1826DOPE   GL221420  14.892  21.692  14.440  0.1284  0.0065  0.0059
 1826DOPE   C1A21421  15.094  22.358  14.378  0.2951  0.0246 -0.2404
 1826DOPE   D2A21422  15.474  22.613  14.233  0.1291  0.0088  0.0951
 1826DOPE   C3A21423  15.662  22.642  13.795  0.3583 -0.1674 -0.1009
 1826DOPE   C4A21424  15.914  22.564  13.432  0.1769 -0.2370 -0.0219
 1826DOPE   C1B21425  15.112  21.426  14.146  0.1797  0.0580 -0.0917
 1826DOPE   D2B21426  15.265  21.164  13.768 -0.0425  0.1244  0.1825
 1826DOPE   C3B21427  14.841  21.049  13.691 -0.1774 -0.1186 -0.0857
 1826DOPE   C4B21428  14.397  21.022  13.670  0.0173  0.1437  0.3104
 1827DOPE   NH321429  19.174  19.719  14.792 -0.0066 -0.2911  0.0047
 1827DOPE   PO421430  19.500  19.700  14.823  0.1278  0.0613 -0.0414
 1827DOPE   GL121431  19.563  19.830  14.435 -0.1350  0.0090  0.1266
 1827DOPE   GL221432  19.605  19.647  14.253 -0.1615  0.0443  0.0995
 1827DOPE   C1A21433  19.913  20.012  14.169 -0.3109  0.1515 -0.0069
 1827DOPE   D2A21434  20.063  20.140  13.694  0.0636 -0.0452 -0.3659
 1827DOPE   C3A21435  20.395  19.804  13.687  0.0712 -0.0172 -0.0539
 1827DOPE   C4A21436  20.593  19.364  13.784  0.1134  0.0533 -0.0274
 1827DOPE   C1B21437  19.688  19.639  13.802  0.0413 -0.0061 -0.1175
 1827DOPE   D2B21438  19.868  19.724  13.363  0.1484 -0.0498 -0.3788
 1827DOPE   C3B21439  20.131  20.099  13.133  0.1617 -0.2720  0.2769
 1827DOPE   C4B21440  20.208  20.248  12.717 -0.0535 -0.2370  0.3190
 1828DOPE   NH321441  17.955  16.527  14.004  0.1487  0.0970  0.0456
 1828DOPE   PO421442  17.714  16.290  13.872  0.1890 -0.1080  0.1407
 1828DOPE   GL121443  17.708  16.499  13.529  0.2779  0.4649  0.0665
 1828DOPE   GL221444  17.785  16.799  13.592  0.2046  0.3433 -0.0844
 1828DOPE   C1A21445  18.092  16.645  13.297  0.1159  0.1591  0.1825
 1828DOPE   D2A21446  18.430  16.594  13.014  0.1061  0.1289  0.1559
 1828DOPE   C3A21447  18.229  16.870  12.719  0.1714  0.2934  0.1597
 1828DOPE   C4A21448  17.971  17.228  12.564 -0.0099 -0.2763  0.2225
 1828DOPE   C1B21449  17.417  16.734  13.281  0.0385  0.0575  0.0114
 1828DOPE   D2B21450  17.195  16.842  12.870 -0.0680  0.2116  0.1215
 1828DOPE   C3B21451  17.463  17.192  12.728  0.1340 -0.0372  0.0199
 1828DOPE   C4B21452  17.493  17.598  12.424 -0.0265  0.0594  0.1562
 1829DOPC   NC321453  21.887  22.791  15.977 -0.1679  0.1327 -0.2533
 1829DOPC   PO421454  22.115  22.457  15.863 -0.0382 -0.2250  0.2340
 1829DOPC   GL121455  22.281  22.273  15.585 -0.0751  0.1737  0.2165
 1829DOPC   GL221456  22.500  22.515  15.555  0.3099 -0.2665 -0.0752
 1829DOPC   C1A21457  22.659  22.006  15.667 -0.3584 -0.2096 -0.1122
 1829DOPC   D2A21458  23.071  21.875  15.744 -0.1491  0.0084 -0.2575
 1829DOPC   C3A21459  23.441  22.083  15.531  0.0252  0.0945  0.1881
 1829DOPC   C4A21460  23.499  22.129  15.077 -0.0887 -0.2022  0.0790
 1829DOPC   C1B21461  22.695  22.663  15.188  0.3401  0.0563 -0.3233
 1829DOPC   D2B21462  22.509  22.580  14.828  0.1980 -0.1351 -0.1224
 1829DOPC   C3B21463  22.730  22.174  14.711  0.1877  0.3111  0.0185
 1829DOPC   C4B21464  23.124  21.943  14.755  0.4588  0.1555 -0.1719
 1830POSM   NC321465  13.565  18.280  13.764 -0.0509 -0.3562 -0.2350
 1830POSM   PO421466  13.720  18.115  14.120 -0.2277 -0.1642  0.0665
 1830POSM   AM121467  13.608  17.860  13.915 -0.1971 -0.1109 -0.3052
 1830POSM   AM221468  13.489  17.616  13.956 -0.1688 -0.0163  0.1500
 1830POSM   T1A21469  13.432  17.869  13.445 -0.2201 -0.3011  0.0705
 1830POSM   C2A21470  13.524  17.590  13.060 -0.0299 -0.1563 -0.1048
 1830POSM   C3A21471  13.750  17.334  12.756 -0.2461  0.0647 -0.0242
 1830POSM   C1B21472  13.149  17.542  13.926  0.0985  0.0149 -0.1392
 1830POSM   D2B21473  12.880  17.166  13.733 -0.0446  0.0408  0.1587
 1830POSM   C3B21474  13.073  16.824  13.564 -0.2326 -0.1006  0.2803
 1830POSM   C4B21475  13.174  16.584  13.248 -0.2007  0.0127 -0.0151
 1831POSM   NC321476  11.091  21.188  15.608  0.0925 -0.1856  0.0703
 1831POSM   PO421477  11.297  20.918  15.423  0.0699 -0.0095 -0.1904
 1831POSM   AM121478  11.443  20.985  15.141 -0.0536  0.0051  0.2734
 1831POSM   AM221479  11.488  20.774  14.972 -0.0206 -0.0083 -0.2498
 1831POSM   T1A21480  11.447  21.299  14.728 -0.1756  0.0673  0.1812
 1831POSM   C2A21481  11.217  21.472  14.403 -0.2233 -0.1447  0.1668
 1831POSM   C3A21482  11.168  21.709  14.003  0.1441 -0.1789 -0.1288
 1831POSM   C1B21483  11.597  20.779  14.655 -0.0689 -0.0338  0.0241
 1831POSM   D2B21484  11.488  20.894  14.213  0.1895  0.2658 -0.0388
 1831POSM   C3B21485  11.718  20.978  13.846  0.1358 -0.2151 -0.0159
 1831POSM   C4B21486  12.039  21.063  13.474  0.2810 -0.2087  0.0156
 1832DOPC   NC321487  16.157  15.846  13.525  0.2480  0.1558 -0.1215
 1832DOPC   PO421488  16.468  15.566  13.546 -0.1165  0.3270 -0.0524
 1832DOPC   GL121489  16.411  15.592  13.241  0.0145  0.0506  0.4977
 1832DOPC   GL221490  16.198  15.343  13.130 -0.1229  0.2996  0.1687
 1832DOPC   C1A21491  16.651  15.388  12.905 -0.0242 -0.0151 -0.0652
 1832DOPC   D2A21492  16.885  15.154  12.550  0.3768 -0.2440  0.0721
 1832DOPC   C3A21493  16.613  14.859  12.295  0.0819 -0.2388  0.2065
 1832DOPC   C4A21494  16.208  14.670  12.284 -0.1447  0.5027  0.0349
 1832DOPC   C1B21495  16.248  15.751  12.834 -0.0626 -0.0633 -0.0270
 1832DOPC   D2B21496  16.497  16.144  12.761 -0.0524 -0.1872 -0.1020
 1832DOPC   C3B21497  16.677  16.195  12.340 -0.2985  0.1379  0.0994
 1832DOPC   C4B21498  16.808  16.079  11.969  0.3263  0.1120  0.0286
 1833DOPC   NC321499  18.253  17.113  14.093  0.0231 -0.0550 -0.1347
 1833DOPC   PO421500  18.120  16.828  14.380 -0.1393  0.0846 -0.0249
 1833DOPC   GL121501  18.502  16.748  14.100  0.0452 -0.1061  0.2198
 1833DOPC   GL221502  18.372  16.684  13.822 -0.2171 -0.0773  0.2221
 1833DOPC   C1A21503  18.927  16.835  13.804 -0.0670  0.0871 -0.1229
 1833DOPC   D2A21504  19.229  16.670  13.525 -0.0762  0.1337 -0.0888
 1833DOPC   C3A21505  19.608  16.959  13.356 -0.0101 -0.0233  0.2361
 1833DOPC   C4A21506  19.941  17.128  13.163 -0.3148  0.2074 -0.0433
 1833DOPC   C1B21507  18.458  17.017  13.590  0.0588 -0.1850 -0.1907
 1833DOPC   D2B21508  18.342  17.049  13.154  0.0477  0.0756  0.0027
 1833DOPC   C3B21509  18.609  17.204  12.828 -0.3705 -0.1229  0.0353
 1833DOPC   C4B21510  18.555  17.244  12.371  0.1639  0.2204 -0.0655
 1834DOPS   CNO21511  13.059  19.779  14.219 -0.2460 -0.1335  0.0922
 1834DOPS   PO421512  12.833  19.823  14.548  0.1245  0.1912  0.0210
 1834DOPS   GL121513  12.590  19.866  14.158 -0.0316 -0.1304 -0.1238
 1834DOPS   GL221514  12.571  19.606  14.029  0.0168  0.0228 -0.1486
 1834DOPS   C1A21515  12.417  20.016  13.731  0.3270  0.1568 -0.4568
 1834DOPS   D2A21516  12.286  19.965  13.315 -0.0626 -0.0090  0.3321
 1834DOPS   C3A21517  12.347  20.289  13.044 -0.0871 -0.2389  0.1243
 1834DOPS   C4A21518  12.592  20.586  12.722  0.0810  0.0232 -0.0396
 1834DOPS   C1B21519  12.435  19.521  13.572 -0.1533  0.1099  0.1171
 1834DOPS   D2B21520  12.349  19.451  13.137  0.2747 -0.1121  0.2098
 1834DOPS   C3B21521  12.304  19.848  12.802 -0.1436  0.0842 -0.4880
 1834DOPS   C4B21522  12.549  20.108  12.533  0.0068 -0.0227 -0.1319
 1835DOPE   NH321523  19.101  12.715  14.838  0.0128 -0.0107  0.3959
 1835DOPE   PO421524  18.828  12.874  14.855  0.0908  0.1461  0.0783
 1835DOPE   GL121525  18.740  12.772  14.472 -0.3896 -0.0092  0.1424
 1835DOPE   GL221526  18.904  12.527  14.423  0.3170 -0.2972 -0.2921
 1835DOPE   C1A21527  18.865  12.797  14.012 -0.1772  0.1271 -0.1004
 1835DOPE   D2A21528  18.548  12.824  13.649 -0.0395 -0.0474  0.0670
 1835DOPE   C3A21529  18.796  12.736  13.302  0.0462  0.1261  0.2094
 1835DOPE   C4A21530  19.051  12.567  13.007  0.0513  0.0685 -0.0842
 1835DOPE   C1B21531  18.501  12.450  14.192  0.2153  0.1319 -0.1115
 1835DOPE   D2B21532  18.275  12.316  13.775  0.2605 -0.1561 -0.0517
 1835DOPE   C3B21533  18.250  12.538  13.388  0.0089  0.2440  0.4031
 1835DOPE   C4B21534  18.112  12.496  12.959  0.4211  0.4066  0.1706
 1836DOPS   CNO21535  20.171  16.589  14.375 -0.0480 -0.2416 -0.0956
 1836DOPS   PO421536  19.816  16.685  14.290  0.2247 -0.0497  0.0597
 1836DOPS   GL121537  19.902  16.820  13.972 -0.0289 -0.0194 -0.0505
 1836DOPS   GL221538  19.692  16.867  13.821 -0.2181 -0.0265 -0.0968
 1836DOPS   C1A21539  20.041  17.219  13.824  0.0528 -0.0796  0.1798
 1836DOPS   D2A21540  20.127  17.572  13.544 -0.0486  0.0162 -0.0467
 1836DOPS   C3A21541  19.848  17.887  13.351  0.0417  0.3939 -0.0297
 1836DOPS   C4A21542  19.429  18.106  13.285 -0.0499  0.2669  0.1362
 1836DOPS   C1B21543  20.049  16.761  13.493  0.1016 -0.0532  0.0809
 1836DOPS   D2B21544  20.239  16.420  13.234 -0.1348 -0.0793 -0.0345
 1836DOPS   C3B21545  20.250  15.927  13.203  0.2135 -0.1382 -0.0913
 1836DOPS   C4B21546  20.208  15.573  12.839  0.0790  0.1750 -0.2179
 1837DOPE   NH321547  22.649  12.987  12.336  0.2327 -0.0293  0.0098
 1837DOPE   PO421548  22.926  12.852  12.281  0.1710  0.1202  0.1671
 1837DOPE   GL121549  22.954  12.871  12.645 -0.3422 -0.0485 -0.2337
 1837DOPE   GL221550  23.096  13.091  12.792 -0.2268  0.1757  0.3524
 1837DOPE   C1A21551  22.963  12.654  13.066 -0.0839  0.1991  0.1691
 1837DOPE   D2A21552  22.938  12.537  13.508 -0.1195  0.0030  0.0640
 1837DOPE   C3A21553  22.805  12.343  13.936  0.2132  0.1789  0.1751
 1837DOPE   C4A21554  22.569  12.432  14.321  0.3236 -0.3145  0.0876
 1837DOPE   C1B21555  23.420  12.777  12.671  0.0157  0.1572  0.3530
 1837DOPE   D2B21556  23.694  12.643  12.325 -0.1071  0.0971 -0.1372
 1837DOPE   C3B21557  23.955  12.994  12.325 -0.2003 -0.0584  0.3285
 1837DOPE   C4B21558  24.353  13.195  12.485 -0.0449 -0.5387  0.3120
 1838DOPS   CNO21559  12.262  15.431  10.807  0.2228  0.2543 -0.0297
 1838DOPS   PO421560  12.531  15.174  10.707  0.0513 -0.0439  0.0542
 1838DOPS   GL121561  12.626  15.218  11.054 -0.2671  0.1757  0.1831
 1838DOPS   GL221562  12.413  15.215  11.231 -0.1231  0.1405 -0.2637
 1838DOPS   C1A21563  12.734  14.847  11.267  0.3665  0.0618 -0.0862
 1838DOPS   D2A21564  12.724  14.379  11.316  0.2667  0.2712  0.1677
 1838DOPS   C3A21565  12.363  14.147  11.097  0.0916 -0.2258 -0.1302
 1838DOPS   C4A21566  12.046  13.795  11.064  0.3543  0.3972 -0.2261
 1838DOPS   C1B21567  12.321  15.113  11.694 -0.2261  0.0098 -0.1762
 1838DOPS   D2B21568  12.345  15.073  12.140  0.1077  0.3457 -0.4227
 1838DOPS   C3B21569  12.710  14.823  12.256 -0.2800 -0.3123 -0.3316
 1838DOPS   C4B21570  12.890  14.476  12.474  0.1760 -0.0054 -0.0943
 1839DOPE   NH321571  19.880  12.307  11.610 -0.1560  0.0226  0.1944
 1839DOPE   PO421572  20.196  12.402  11.553  0.5246 -0.2540  0.1698
 1839DOPE   GL121573  20.345  12.670  11.814 -0.2912 -0.0690 -0.1004
 1839DOPE   GL221574  20.548  12.542  11.934 -0.2369 -0.1107  0.0521
 1839DOPE   C1A21575  20.480  13.129  11.757 -0.2293 -0.1648  0.3028
 1839DOPE   D2A21576  20.556  13.657  11.766  0.0463 -0.2126  0.0573
 1839DOPE   C3A21577  20.168  13.903  11.893 -0.1596  0.3082 -0.4133
 1839DOPE   C4A21578  19.761  13.901  11.928  0.2106 -0.1909 -0.0646
 1839DOPE   C1B21579  20.751  12.693  12.334  0.0431  0.0835  0.0607
 1839DOPE   D2B21580  20.789  12.993  12.682 -0.0684 -0.0874  0.1528
 1839DOPE   C3B21581  20.865  13.428  12.519 -0.0988  0.1885  0.2001
 1839DOPE   C4B21582  20.943  13.655  12.116 -0.4725 -0.1087  0.2650
 1840DOPE   NH321583  22.183  12.080  12.351  0.1858 -0.1518  0.3603
 1840DOPE   PO421584  22.038  11.908  12.107 -0.1142  0.1025 -0.1019
 1840DOPE   GL121585  21.691  12.087  12.250 -0.3158  0.0011 -0.1590
 1840DOPE   GL221586  21.720  12.243  12.535  0.2744  0.2755 -0.3791
 1840DOPE   C1A21587  21.528  12.488  12.171  0.0847 -0.0466  0.1691
 1840DOPE   D2A21588  21.214  12.770  11.989  0.0133 -0.0390  0.3960
 1840DOPE   C3A21589  20.923  13.086  12.135 -0.2124  0.0317  0.0906
 1840DOPE   C4A21590  20.470  13.092  12.226 -0.1418 -0.0206 -0.1254
 1840DOPE   C1B21591  21.743  12.759  12.473  0.0810 -0.2721  0.0467
 1840DOPE   D2B21592  21.772  13.141  12.689  0.2638  0.1472 -0.0902
 1840DOPE   C3B21593  21.400  12.977  12.936 -0.2795  0.0848  0.0074
 1840DOPE   C4B21594  21.068  12.849  13.203  0.0383  0.2636 -0.4602
 1841DOPC   NC321595  22.202  13.131  12.414  0.2200 -0.2406 -0.2676
 1841DOPC   PO421596  22.344  13.209  12.035  0.0457  0.1876 -0.0032
 1841DOPC   GL121597  22.009  13.364  11.986 -0.2268  0.2758 -0.0064
 1841DOPC   GL221598  21.919  13.569  12.187 -0.0890 -0.3629  0.1815
 1841DOPC   C1A21599  21.625  13.120  12.174  0.1360 -0.3299  0.1087
 1841DOPC   D2A21600  21.271  12.954  12.409 -0.1514 -0.1283 -0.0155
 1841DOPC   C3A21601  21.249  12.570  12.630 -0.0220 -0.2664 -0.0025
 1841DOPC   C4A21602  21.542  12.402  12.955 -0.1113 -0.0874  0.2238
 1841DOPC   C1B21603  21.543  13.813  12.322  0.3885  0.3007 -0.3295
 1841DOPC   D2B21604  21.236  14.123  12.157  0.3090 -0.3084 -0.0257
 1841DOPC   C3B21605  21.158  14.263  11.781  0.3432 -0.0604 -0.2059
 1841DOPC   C4B21606  21.214  14.593  11.498 -0.0930  0.0696  0.0727
 1842DOPC   NC321607  13.620  20.137  11.729 -0.2055 -0.1259 -0.2777
 1842DOPC   PO421608  13.611  19.746  11.794 -0.0390 -0.0827 -0.2794
 1842DOPC   GL121609  13.560  19.891  12.122 -0.2393 -0.1327 -0.1468
 1842DOPC   GL221610  13.401  19.620  12.251 -0.0103 -0.2060  0.0682
 1842DOPC   C1A21611  13.805  19.745  12.480  0.0925 -0.0471  0.0408
 1842DOPC   D2A21612  14.159  19.891  12.666  0.2545 -0.2855  0.2708
 1842DOPC   C3A21613  14.532  19.623  12.791  0.0998  0.1623 -0.0654
 1842DOPC   C4A21614  14.716  19.731  13.195 -0.0698  0.0131 -0.3037
 1842DOPC   C1B21615  13.257  19.194  12.131  0.2723  0.1983  0.0241
 1842DOPC   D2B21616  13.418  19.274  11.758  0.0218  0.1423 -0.0416
 1842DOPC   C3B21617  13.845  19.057  11.720  0.1677  0.0843  0.2514
 1842DOPC   C4B21618  14.229  19.055  11.442 -0.0741  0.0794  0.1883
 1843DOPE   NH321619  10.250  19.441  11.867 -0.3905 -0.1292 -0.1450
 1843DOPE   PO421620  10.547  19.528  11.948  0.0791  0.2051 -0.4093
 1843DOPE   GL121621  10.665  19.820  12.283  0.1091 -0.2091  0.2184
 1843DOPE   GL221622  10.971  19.927  12.292  0.1983  0.1602 -0.1169
 1843DOPE   C1A21623  10.550  20.098  12.597  0.2609  0.2025 -0.0045
 1843DOPE   D2A21624  10.369  20.413  12.926  0.1092 -0.1917  0.0837
 1843DOPE   C3A21625  10.462  20.905  13.083 -0.1911  0.0158  0.0432
 1843DOPE   C4A21626  10.401  21.319  13.237 -0.1680 -0.0657 -0.2222
 1843DOPE   C1B21627  10.987  20.310  12.635  0.1225  0.1195  0.1603
 1843DOPE   D2B21628  10.840  20.590  12.929  0.1353  0.2337 -0.0114
 1843DOPE   C3B21629  10.613  20.507  13.341  0.1281  0.1149 -0.1557
 1843DOPE   C4B21630  10.324  20.410  13.690 -0.3600 -0.3847 -0.1683
 1844DOPE   NH321631  24.118  22.175  12.502 -0.2018  0.0533  0.0295
 1844DOPE   PO421632  23.838  22.262  12.536  0.1094 -0.2866  0.0544
 1844DOPE   GL121633  23.557  21.895  12.589 -0.0958  0.1439 -0.1524
 1844DOPE   GL221634  23.330  22.020  12.780 -0.2563  0.0912 -0.0180
 1844DOPE   C1A21635  23.543  21.529  12.859  0.0177 -0.1044  0.3798
 1844DOPE   D2A21636  23.578  21.149  13.088  0.0923  0.2946  0.0154
 1844DOPE   C3A21637  23.618  21.098  13.526 -0.0390 -0.0977  0.1659
 1844DOPE   C4A21638  23.443  21.005  13.949  0.0768  0.0414 -0.0219
 1844DOPE   C1B21639  23.025  21.668  12.859 -0.0202  0.1000  0.0958
 1844DOPE   D2B21640  23.042  21.216  13.090  0.0834  0.1103  0.1050
 1844DOPE   C3B21641  22.853  21.125  13.520  0.0261 -0.1174 -0.0994
 1844DOPE   C4B21642  22.916  21.050  13.929  0.0746 -0.2146 -0.0255
 1845DOPE   NH321643  18.002  17.661  10.639  0.0492  0.0278  0.0458
 1845DOPE   PO421644  17.801  17.902  10.590 -0.3606 -0.0695 -0.0413
 1845DOPE   GL121645  17.733  17.764  11.007 -0.1581 -0.0238 -0.2629
 1845DOPE   GL221646  17.423  17.785  10.955 -0.0903 -0.0619  0.2184
 1845DOPE   C1A21647  17.618  17.739  11.501 -0.0374 -0.1680  0.0499
 1845DOPE   D2A21648  17.771  17.799  11.964  0.2453 -0.0554 -0.0109
 1845DOPE   C3A21649  18.082  17.643  12.236  0.0834  0.3405  0.4399
 1845DOPE   C4A21650  18.252  17.647  12.642 -0.1217  0.2128 -0.1728
 1845DOPE   C1B21651  17.220  17.483  11.271  0.0443  0.0363  0.2013
 1845DOPE   D2B21652  16.923  17.137  11.375  0.2095 -0.0508  0.1453
 1845DOPE   C3B21653  16.891  16.684  11.419  0.0581  0.1569  0.0164
 1845DOPE   C4B21654  17.204  16.325  11.484 -0.1600  0.0289 -0.0023
 1846POSM   NC321655  13.306  20.523  11.398 -0.2166  0.0423 -0.1532
 1846POSM   PO421656  13.136  20.195  11.591  0.0960  0.0532 -0.2342
 1846POSM   AM121657  13.130  20.317  11.893  0.1522  0.3181  0.4457
 1846POSM   AM221658  13.011  20.553  12.042 -0.2048  0.0710  0.0713
 1846POSM   T1A21659  13.496  20.449  12.282  0.0411 -0.3477  0.0045
 1846POSM   C2A21660  13.859  20.684  12.369 -0.1767 -0.0540 -0.1896
 1846POSM   C3A21661  13.999  20.933  12.754  0.2787 -0.0071 -0.1224
 1846POSM   C1B21662  12.904  20.853  12.174  0.2528 -0.0104 -0.2257
 1846POSM   D2B21663  12.969  21.169  12.484  0.2211  0.1339 -0.2065
 1846POSM   C3B21664  13.034  21.402  12.877 -0.1283 -0.2091  0.2664
 1846POSM   C4B21665  12.872  21.770  13.106 -0.1457  0.3150  0.1809
 1847DOPE   NH321666  15.644  19.916  10.958  0.1596 -0.1326 -0.0060
 1847DOPE   PO421667  15.415  19.864  11.179  0.1313  0.3446 -0.2646
 1847DOPE   GL121668  15.227  20.034  11.444  0.2630 -0.0967 -0.0252
 1847DOPE   GL221669  14.989  20.064  11.354 -0.1939  0.0417  0.0959
 1847DOPE   C1A21670  15.080  19.828  11.828  0.1513  0.1108  0.1938
 1847DOPE   D2A21671  14.600  19.623  11.904 -0.1450 -0.2345 -0.0537
 1847DOPE   C3A21672  14.667  19.348  12.265 -0.1526  0.1454  0.0002
 1847DOPE   C4A21673  14.923  19.253  12.642  0.2088 -0.1185  0.1504
 1847DOPE   C1B21674  14.719  19.768  11.306  0.3532  0.1289  0.0423
 1847DOPE   D2B21675  14.629  19.359  11.509  0.0957  0.2209 -0.3269
 1847DOPE   C3B21676  14.933  19.270  11.849  0.1817 -0.5774  0.2026
 1847DOPE   C4B21677  15.386  19.005  11.861 -0.1091  0.1166  0.3456
 1848POSM   NC321678  19.545  19.001  10.941 -0.0863  0.0486  0.0211
 1848POSM   PO421679  19.371  18.703  11.180  0.0732 -0.1004  0.0346
 1848POSM   AM121680  19.183  18.949  11.289  0.3522  0.2379  0.0390
 1848POSM   AM221681  19.153  19.005  11.570 -0.0974  0.2438 -0.3847
 1848POSM   T1A21682  18.951  19.392  11.400 -0.0426 -0.0662 -0.1553
 1848POSM   C2A21683  18.795  19.845  11.511  0.1882  0.0904  0.1004
 1848POSM   C3A21684  18.553  20.024  11.861  0.1423 -0.0074 -0.1295
 1848POSM   C1B21685  19.290  19.235  11.821 -0.1776  0.3428 -0.0350
 1848POSM   D2B21686  19.487  19.490  12.076 -0.1295 -0.1724 -0.0303
 1848POSM   C3B21687  19.557  19.610  12.500 -0.2609  0.1292 -0.0467
 1848POSM   C4B21688  19.805  19.852  12.825 -0.0603  0.2507 -0.0902
 1849POSM   NC321689  11.130  11.281  12.696 -0.0887 -0.3612  0.0452
 1849POSM   PO421690  10.924  11.249  12.381  0.3697  0.2933  0.0111
 1849POSM   AM121691  11.055  11.524  12.244 -0.2059 -0.0293 -0.1222
 1849POSM   AM221692  11.310  11.613  12.212 -0.2029  0.2234 -0.0005
 1849POSM   T1A21693  10.989  12.055  12.258  0.2566 -0.1470  0.0756
 1849POSM   C2A21694  10.777  12.536  12.340 -0.0517  0.4536  0.2201
 1849POSM   C3A21695  10.449  12.831  12.490  0.3981 -0.5040 -0.0026
 1849POSM   C1B21696  11.448  11.932  12.092  0.3515  0.0937 -0.0733
 1849POSM   D2B21697  11.517  12.376  12.130  0.0639 -0.2019  0.2024
 1849POSM   C3B21698  11.191  12.607  12.145  0.2199  0.1487  0.1018
 1849POSM   C4B21699  10.921  12.963  12.150  0.2760 -0.4638 -0.0791
 1850DOPC   NC321700  21.794  22.256  12.136  0.1263  0.1360 -0.0102
 1850DOPC   PO421701  22.161  22.108  12.143 -0.2758  0.1289 -0.0346
 1850DOPC   GL121702  21.731  21.771  12.045 -0.1157  0.2786  0.0861
 1850DOPC   GL221703  21.468  21.871  12.069  0.0987 -0.0526  0.2025
 1850DOPC   C1A21704  21.537  21.307  12.113  0.1030 -0.0561  0.0556
 1850DOPC   D2A21705  21.325  20.898  12.108 -0.2665 -0.0969  0.0735
 1850DOPC   C3A21706  20.968  20.713  12.275  0.1178  0.0463  0.0904
 1850DOPC   C4A21707  20.548  20.551  12.434  0.4186  0.0912 -0.0399
 1850DOPC   C1B21708  21.116  21.623  12.088  0.2238 -0.2157 -0.1657
 1850DOPC   D2B21709  20.908  21.229  12.222 -0.0728  0.3624  0.1270
 1850DOPC   C3B21710  20.424  21.311  12.177 -0.0536  0.0629  0.0570
 1850DOPC   C4B21711  19.942  21.268  12.301  0.2137  0.3019  0.1464
 1851DOPC   NC321712  18.434  22.079  12.076 -0.0560 -0.2013  0.1534
 1851DOPC   PO421713  18.675  21.757  12.042  0.0829 -0.0964 -0.2136
 1851DOPC   GL121714  19.026  21.604  11.995  0.2178  0.2142 -0.3214
 1851DOPC   GL221715  19.274  21.680  11.998 -0.2373  0.1501 -0.1598
 1851DOPC   C1A21716  19.118  21.227  11.758  0.0936  0.0015 -0.0324
 1851DOPC   D2A21717  18.807  20.873  11.563 -0.0856 -0.1541 -0.1079
 1851DOPC   C3A21718  18.685  20.532  11.819  0.0186  0.1201  0.2162
 1851DOPC   C4A21719  18.292  20.454  12.032 -0.0981  0.2920  0.1153
 1851DOPC   C1B21720  19.096  21.361  12.350  0.0936  0.0215 -0.2363
 1851DOPC   D2B21721  19.196  21.193  12.804 -0.2474  0.3561  0.0766
 1851DOPC   C3B21722  18.979  20.802  12.961 -0.0999 -0.3493 -0.0591
 1851DOPC   C4B21723  18.537  20.679  12.923 -0.1865  0.0283 -0.2034
 1852DOPC   NC321724  14.793  15.987  10.263  0.0448  0.0497  0.3450
 1852DOPC   PO421725  14.703  15.688  10.549  0.2359  0.0227  0.0641
 1852DOPC   GL121726  14.925  15.449  10.779  0.0858 -0.2539  0.2088
 1852DOPC   GL221727  15.115  15.629  10.860  0.1536 -0.1331 -0.0309
 1852DOPC   C1A21728  15.206  15.182  10.980  0.2198  0.1290  0.1460
 1852DOPC   D2A21729  15.252  15.035  11.407  0.2591 -0.0193  0.0368
 1852DOPC   C3A21730  15.560  15.440  11.472  0.2211 -0.2715  0.0647
 1852DOPC   C4A21731  15.940  15.624  11.644 -0.1375 -0.3948 -0.0229
 1852DOPC   C1B21732  15.495  15.851  10.960  0.1627  0.3225  0.1238
 1852DOPC   D2B21733  15.816  15.739  11.193 -0.2543 -0.1653  0.0021
 1852DOPC   C3B21734  16.281  15.657  11.090  0.0478  0.1477 -0.2836
 1852DOPC   C4B21735  16.340  15.415  10.719  0.1049 -0.1468  0.0006
 1853DOPE   NH321736  19.225  11.178  11.972  0.0391 -0.0818  0.2036
 1853DOPE   PO421737  19.040  11.332  12.155 -0.0064  0.1579  0.0064
 1853DOPE   GL121738  18.748  11.558  12.214  0.1828  0.0131 -0.2169
 1853DOPE   GL221739  18.621  11.553  11.969 -0.5145  0.0146 -0.0422
 1853DOPE   C1A21740  18.367  11.656  12.401 -0.1214  0.0374 -0.0874
 1853DOPE   D2A21741  17.906  11.548  12.461 -0.1798  0.3237  0.3259
 1853DOPE   C3A21742  17.616  11.866  12.693  0.2330 -0.0204  0.2079
 1853DOPE   C4A21743  17.686  12.325  12.798  0.1775 -0.1272 -0.0503
 1853DOPE   C1B21744  18.286  11.882  11.988 -0.3459 -0.2713  0.1030
 1853DOPE   D2B21745  18.226  12.317  12.115  0.0210  0.2628 -0.2302
 1853DOPE   C3B21746  18.368  12.708  12.061 -0.1041  0.3132  0.0375
 1853DOPE   C4B21747  18.473  13.007  12.379  0.1838  0.2607  0.3937
 1854POSM   NC321748  18.441  10.150  12.398 -0.1522  0.1099 -0.0913
 1854POSM   PO421749  18.079  10.289  12.186  0.0315 -0.1121  0.3861
 1854POSM   AM121750  17.942  10.395  12.427 -0.2101 -0.0429 -0.0172
 1854POSM   AM221751  17.947  10.506  12.681 -0.0281  0.1736 -0.1656
 1854POSM   T1A21752  17.502  10.356  12.688  0.1351 -0.4645 -0.1373
 1854POSM   C2A21753  17.052  10.404  12.644  0.2611 -0.1409  0.3433
 1854POSM   C3A21754  16.635  10.231  12.590  0.2966 -0.1636  0.3764
 1854POSM   C1B21755  17.966  10.635  12.989 -0.2082  0.1449  0.2374
 1854POSM   D2B21756  18.104  10.938  13.380 -0.1107 -0.0364  0.0620
 1854POSM   C3B21757  18.266  10.700  13.750  0.0016 -0.2287 -0.0909
 1854POSM   C4B21758  18.213  10.268  13.925 -0.2552 -0.0934 -0.3845
 1855DOPE   NH321759  12.170  22.437  11.503  0.3658 -0.1475 -0.2387
 1855DOPE   PO421760  12.340  22.166  11.402  0.1034  0.0328  0.3140
 1855DOPE   GL121761  12.401  22.110  11.812  0.0841 -0.2242 -0.3128
 1855DOPE   GL221762  12.198  21.834  11.759  0.0015 -0.1182  0.1452
 1855DOPE   C1A21763  12.460  21.836  12.172 -0.3878 -0.0376  0.2246
 1855DOPE   D2A21764  12.452  21.402  12.310 -0.1269 -0.1524  0.1299
 1855DOPE   C3A21765  12.451  21.202  12.757 -0.1974 -0.0909  0.3769
 1855DOPE   C4A21766  12.615  21.324  13.105  0.2154  0.1756 -0.3753
 1855DOPE   C1B21767  12.010  21.474  11.963 -0.4258  0.4642  0.0460
 1855DOPE   D2B21768  11.802  21.371  12.387 -0.0721  0.4392 -0.0461
 1855DOPE   C3B21769  12.047  21.035  12.544 -0.1910 -0.1340 -0.6066
 1855DOPE   C4B21770  12.368  20.836  12.309 -0.1000 -0.1294  0.0121
 1856DOPC   NC321771  20.300  11.609  12.063 -0.0256  0.4771 -0.3693
 1856DOPC   PO421772  20.632  11.564  11.916  0.0604 -0.3083 -0.3715
 1856DOPC   GL121773  20.584  11.550  12.460  0.2693  0.0177  0.2324
 1856DOPC   GL221774  20.796  11.653  12.479 -0.0575  0.1977 -0.1887
 1856DOPC   C1A21775  20.400  11.647  12.902  0.1214  0.0082 -0.0589
 1856DOPC   D2A21776  20.234  11.649  13.329  0.0598  0.0312 -0.1423
 1856DOPC   C3A21777  20.414  11.439  13.695 -0.0593  0.1041  0.0327
 1856DOPC   C4A21778  20.352  11.271  14.094  0.2921  0.0037 -0.0497
 1856DOPC   C1B21779  20.832  11.850  12.879 -0.5261  0.0167  0.0136
 1856DOPC   D2B21780  20.853  12.293  12.963  0.0216  0.2872  0.1969
 1856DOPC   C3B21781  21.190  12.370  13.283 -0.2045 -0.1498 -0.1095
 1856DOPC   C4B21782  21.391  12.688  13.538  0.2205  0.0335 -0.2411
 1857POSM   NC321783  19.029  10.668  11.864 -0.0667 -0.3278  0.2466
 1857POSM   PO421784  19.041  10.770  12.220  0.2324  0.0987  0.0104
 1857POSM   AM121785  19.100  10.967  12.486  0.3485 -0.0822 -0.1896
 1857POSM   AM221786  19.133  11.210  12.600 -0.0223 -0.0857  0.2182
 1857POSM   T1A21787  19.128  10.860  13.017 -0.1221 -0.3379 -0.0865
 1857POSM   C2A21788  19.120  10.791  13.491 -0.1584  0.3549 -0.3335
 1857POSM   C3A21789  18.798  10.744  13.820 -0.0530 -0.0802  0.0179
 1857POSM   C1B21790  19.220  11.353  12.876  0.0268  0.0838  0.4484
 1857POSM   D2B21791  19.425  11.631  13.104  0.1690 -0.0137 -0.1439
 1857POSM   C3B21792  19.628  11.811  13.482 -0.1968 -0.0666 -0.1485
 1857POSM   C4B21793  19.820  12.195  13.630  0.2736 -0.0707  0.2302
 1858DOPE   NH321794  19.382  17.950  11.678 -0.0054  0.3545  0.2627
 1858DOPE   PO421795  19.653  17.768  11.633 -0.0493  0.2452 -0.2034
 1858DOPE   GL121796  19.937  17.713  11.805  0.0214 -0.0885 -0.2910
 1858DOPE   GL221797  20.185  17.622  11.591  0.2929  0.0553 -0.2977
 1858DOPE   C1A21798  20.037  17.793  12.250 -0.0361 -0.2249 -0.0862
 1858DOPE   D2A21799  20.015  18.027  12.632 -0.0370  0.0422 -0.2783
 1858DOPE   C3A21800  19.619  17.969  12.905  0.2017 -0.5312  0.1006
 1858DOPE   C4A21801  19.169  17.751  12.936 -0.3214 -0.3725  0.1868
 1858DOPE   C1B21802  20.335  17.384  11.967  0.1665 -0.0010  0.1994
 1858DOPE   D2B21803  20.249  17.311  12.390  0.1357  0.3456  0.0269
 1858DOPE   C3B21804  19.888  17.112  12.640  0.1250  0.2064 -0.0245
 1858DOPE   C4B21805  19.517  16.897  12.892  0.0891  0.1510 -0.1538
 1859DOPE   NH321806  10.546  15.036  11.713  0.2344  0.3579  0.1001
 1859DOPE   PO421807  10.634  15.304  11.879  0.1928  0.4420 -0.0542
 1859DOPE   GL121808  10.439  15.440  12.270 -0.1080  0.2570 -0.0956
 1859DOPE   GL221809  10.645  15.432  12.359  0.0371 -0.0241  0.0165
 1859DOPE   C1A21810  10.449  15.709  12.674 -0.0758 -0.2532 -0.2084
 1859DOPE   D2A21811  10.242  15.953  13.067  0.0281 -0.0337  0.2482
 1859DOPE   C3A21812   9.845  16.007  13.304  0.1005  0.0408 -0.1849
 1859DOPE   C4A21813   9.756  16.396  13.499  0.4158 -0.0114  0.0182
 1859DOPE   C1B21814  10.956  15.758  12.550  0.0247  0.2087  0.0392
 1859DOPE   D2B21815  11.149  16.182  12.624  0.0711  0.2973 -0.0703
 1859DOPE   C3B21816  11.560  16.321  12.534 -0.1933 -0.1005 -0.0875
 1859DOPE   C4B21817  11.948  16.387  12.348 -0.2554 -0.2358 -0.3708
 1860DOPC   NC321818  15.556  19.788  11.672  0.1047  0.4793  0.0356
 1860DOPC   PO421819  15.809  19.636  11.388  0.2631 -0.3053 -0.3190
 1860DOPC   GL121820  15.538  19.314  11.448 -0.0766 -0.2923 -0.3840
 1860DOPC   GL221821  15.254  19.489  11.429  0.1478 -0.0930 -0.0562
 1860DOPC   C1A21822  15.633  18.838  11.437  0.0894  0.1376 -0.0842
 1860DOPC   D2A21823  15.727  18.469  11.669 -0.1854  0.4783 -0.1302
 1860DOPC   C3A21824  15.472  18.028  11.676 -0.1104 -0.0163  0.1920
 1860DOPC   C4A21825  15.046  17.949  11.700  0.2961 -0.2423  0.1573
 1860DOPC   C1B21826  15.131  19.090  11.182  0.0392 -0.0804  0.0089
 1860DOPC   D2B21827  15.194  18.617  11.166  0.0326  0.0111 -0.0699
 1860DOPC   C3B21828  15.217  18.477  11.588 -0.0365  0.1182  0.1708
 1860DOPC   C4B21829  15.300  18.533  12.080 -0.4219  0.1713  0.1810
 1861DOPE   NH321830  13.129  19.622  11.687 -0.1846  0.3441 -0.0917
 1861DOPE   PO421831  13.120  19.843  11.896 -0.1451 -0.0053 -0.1180
 1861DOPE   GL121832  12.931  19.964  12.142 -0.2337 -0.1082  0.2162
 1861DOPE   GL221833  12.947  19.806  12.404  0.2647 -0.2996 -0.0201
 1861DOPE   C1A21834  13.039  20.317  12.451  0.2977 -0.0967  0.0430
 1861DOPE   D2A21835  13.187  20.744  12.611 -0.2050  0.0764 -0.0496
 1861DOPE   C3A21836  13.015  20.883  13.021 -0.0125  0.0927 -0.3356
 1861DOPE   C4A21837  12.634  20.857  13.294 -0.0460  0.3741 -0.1013
 1861DOPE   C1B21838  12.573  19.568  12.510 -0.0421 -0.4428 -0.0454
 1861DOPE   D2B21839  12.204  19.397  12.690 -0.2742  0.0245  0.0211
 1861DOPE   C3B21840  11.773  19.521  12.833 -0.2154 -0.3158  0.0963
 1861DOPE   C4B21841  11.351  19.743  12.953  0.2729  0.2295  0.1521
 1862POSM   NC321842  18.854  16.707  10.878  0.1593 -0.1294 -0.1419
 1862POSM   PO421843  19.220  16.619  10.964  0.2574 -0.1378  0.0464
 1862POSM   AM121844  19.357  16.549  11.270  0.0597 -0.1903  0.3608
 1862POSM   AM221845  19.490  16.348  11.403 -0.1862 -0.0618 -0.0638
 1862POSM   T1A21846  19.510  16.745  11.730 -0.0583 -0.0234  0.2001
 1862POSM   C2A21847  19.383  16.870  12.199  0.2282 -0.0420 -0.3821
 1862POSM   C3A21848  19.152  17.142  12.460  0.2392 -0.5737 -0.1688
 1862POSM   C1B21849  19.456  16.300  11.706  0.0333 -0.1485 -0.1978
 1862POSM   D2B21850  19.617  16.410  12.181  0.1608 -0.0418 -0.1937
 1862POSM   C3B21851  19.873  16.817  12.185 -0.0800  0.0133 -0.0849
 1862POSM   C4B21852  19.872  17.240  12.042 -0.2013 -0.2516  0.0335
 1863DOPC   NC321853  20.944  18.712  11.227  0.0668 -0.3746  0.1009
 1863DOPC   PO421854  20.630  18.954  11.169 -0.2050  0.0065 -0.0470
 1863DOPC   GL121855  20.545  19.166  11.472  0.3374  0.0445 -0.0522
 1863DOPC   GL221856  20.403  19.409  11.328  0.2702  0.1860 -0.1638
 1863DOPC   C1A21857  20.564  19.379  11.896  0.0205 -0.1359 -0.2730
 1863DOPC   D2A21858  20.403  19.748  12.138 -0.1912 -0.3264 -0.2260
 1863DOPC   C3A21859  20.285  19.708  12.608 -0.1999  0.1389 -0.2789
 1863DOPC   C4A21860  20.536  19.771  12.999  0.0644 -0.0367 -0.0566
 1863DOPC   C1B21861  20.311  19.866  11.443  0.1929 -0.0440 -0.1297
 1863DOPC   D2B21862  20.169  20.329  11.564 -0.1784  0.0134 -0.0222
 1863DOPC   C3B21863  20.381  20.240  12.002 -0.0153  0.0900 -0.2408
 1863DOPC   C4B21864  20.705  20.093  12.315 -0.2747  0.1974  0.2570
 1864POSM   NC321865  18.066  22.429  11.836  0.1479 -0.2180 -0.0678
 1864POSM   PO421866  18.127  22.567  12.216 -0.0983  0.1762  0.1241
 1864POSM   AM121867  18.258  22.428  12.506  0.2672 -0.2125  0.2700
 1864POSM   AM221868  18.453  22.540  12.736 -0.0726  0.3454  0.1030
 1864POSM   T1A21869  18.190  22.163  12.915 -0.2187  0.2568  0.1448
 1864POSM   C2A21870  17.849  21.864  12.917  0.2910 -0.0457 -0.0732
 1864POSM   C3A21871  17.605  21.516  13.106  0.1495 -0.0875  0.1393
 1864POSM   C1B21872  18.735  22.650  12.872  0.2272 -0.3323  0.1499
 1864POSM   D2B21873  19.194  22.586  13.023 -0.1339 -0.0432 -0.0746
 1864POSM   C3B21874  19.562  22.841  13.061 -0.2060  0.0911 -0.1028
 1864POSM   C4B21875  20.079  22.916  13.073  0.1307 -0.0438  0.2162
 1865DOPE   NH321876  18.101  10.763  11.969  0.0579  0.0508  0.0085
 1865DOPE   PO421877  18.093  10.817  12.266  0.0548  0.1373 -0.2460
 1865DOPE   GL121878  17.875  11.104  12.327  0.3133 -0.3024  0.2533
 1865DOPE   GL221879  17.808  11.120  12.621  0.0005  0.1841 -0.0429
 1865DOPE   C1A21880  17.435  11.275  12.201  0.1602 -0.1459 -0.2583
 1865DOPE   D2A21881  17.009  11.339  11.999 -0.0444  0.3879 -0.0833
 1865DOPE   C3A21882  17.015  11.332  11.490  0.0652  0.0673 -0.2490
 1865DOPE   C4A21883  16.652  11.441  11.162 -0.0569 -0.0456 -0.0295
 1865DOPE   C1B21884  17.405  10.844  12.771  0.2067  0.1765  0.1275
 1865DOPE   D2B21885  17.147  10.928  13.041 -0.1061 -0.0716  0.2435
 1865DOPE   C3B21886  16.935  10.751  13.360  0.1690  0.0111 -0.0051
 1865DOPE   C4B21887  16.849  10.524  13.775  0.2332 -0.2004  0.0328
 1866DOPC   NC321888  19.318  15.858  11.379  0.0587  0.1052 -0.0930
 1866DOPC   PO421889  19.622  15.800  11.086 -0.0332 -0.0374 -0.1856
 1866DOPC   GL121890  19.668  15.480  11.238  0.0528 -0.0294  0.3503
 1866DOPC   GL221891  19.708  15.562  11.534  0.0301  0.0934 -0.4303
 1866DOPC   C1A21892  20.074  15.235  11.339 -0.3367 -0.0670 -0.0578
 1866DOPC   D2A21893  20.329  15.094  10.978  0.0827 -0.1732 -0.0484
 1866DOPC   C3A21894  20.759  15.128  11.128  0.1433 -0.1763 -0.0703
 1866DOPC   C4A21895  20.923  15.003  11.529 -0.0857  0.4144  0.0935
 1866DOPC   C1B21896  20.042  15.375  11.835 -0.0948  0.0313  0.3746
 1866DOPC   D2B21897  20.266  15.209  12.193  0.0712 -0.1187  0.2635
 1866DOPC   C3B21898  20.661  14.992  12.190  0.0622  0.2459 -0.2666
 1866DOPC   C4B21899  20.804  14.653  11.922 -0.2125  0.0937  0.0589
 1867DOPE   NH321900  22.778  11.180  12.386 -0.2238 -0.2090  0.2723
 1867DOPE   PO421901  23.077  11.237  12.515  0.2336 -0.0600 -0.0150
 1867DOPE   GL121902  23.297  11.609  12.636 -0.1569 -0.1800  0.1471
 1867DOPE   GL221903  23.370  11.509  12.888 -0.1119  0.2833 -0.0629
 1867DOPE   C1A21904  23.638  11.976  12.575 -0.1437 -0.0243  0.1777
 1867DOPE   D2A21905  23.895  12.305  12.745  0.0940  0.2619  0.1139
 1867DOPE   C3A21906  23.611  12.474  13.061 -0.1021 -0.4183 -0.0861
 1867DOPE   C4A21907  23.463  12.839  13.298  0.3285  0.0593 -0.1072
 1867DOPE   C1B21908  23.326  11.664  13.277  0.1464  0.3495  0.0760
 1867DOPE   D2B21909  23.554  11.599  13.720 -0.1861  0.2110  0.2965
 1867DOPE   C3B21910  23.368  11.584  14.114  0.0436  0.0031 -0.1105
 1867DOPE   C4B21911  22.970  11.426  14.321  0.1986  0.0398  0.2446
 1868POSM   NC321912  11.283  16.466  11.616 -0.1163  0.2202  0.4904
 1868POSM   PO421913  11.372  16.086  11.570 -0.0500 -0.4131 -0.2274
 1868POSM   AM121914  11.686  16.205  11.620 -0.0932 -0.5295  0.0164
 1868POSM   AM221915  11.904  16.328  11.581  0.1271  0.1382 -0.1208
 1868POSM   T1A21916  12.056  16.064  11.940  0.0450 -0.0441 -0.0166
 1868POSM   C2A21917  12.439  16.250  12.167 -0.0324  0.2619 -0.0287
 1868POSM   C3A21918  12.901  16.144  12.225  0.2546 -0.1583  0.0327
 1868POSM   C1B21919  12.081  16.549  11.792 -0.1703 -0.0333  0.0002
 1868POSM   D2B21920  12.427  16.796  11.965  0.0839 -0.1501 -0.1360
 1868POSM   C3B21921  12.285  17.185  12.244 -0.0143  0.1736  0.0039
 1868POSM   C4B21922  12.112  17.367  12.621 -0.3291  0.1694 -0.1097
 1869DOPC   NC321923  18.225  18.538  11.201  0.3375  0.0460 -0.1341
 1869DOPC   PO421924  18.060  18.597  11.511  0.3948  0.0023  0.1556
 1869DOPC   GL121925  17.884  18.729  11.835 -0.1318  0.1449 -0.0258
 1869DOPC   GL221926  17.995  19.049  11.819  0.2057 -0.0771 -0.4121
 1869DOPC   C1A21927  17.542  19.079  11.788 -0.0961  0.1648 -0.1081
 1869DOPC   D2A21928  17.336  19.548  11.858  0.0754  0.1204  0.0074
 1869DOPC   C3A21929  17.426  19.712  12.262 -0.1810  0.0074 -0.1194
 1869DOPC   C4A21930  17.639  20.002  12.507  0.1771 -0.1100  0.1147
 1869DOPC   C1B21931  18.291  19.076  12.195 -0.0565 -0.0709 -0.1666
 1869DOPC   D2B21932  18.533  18.752  12.442 -0.0988 -0.2585  0.2591
 1869DOPC   C3B21933  18.946  18.909  12.622 -0.2159  0.1300 -0.3182
 1869DOPC   C4B21934  19.402  19.027  12.729  0.0534 -0.0774  0.0720
 1870POSM   NC321935  18.630  11.312  11.444 -0.1136  0.3955 -0.1924
 1870POSM   PO421936  18.979  11.468  11.528  0.1985 -0.2331  0.1961
 1870POSM   AM121937  18.856  11.760  11.551  0.5035  0.1130  0.1420
 1870POSM   AM221938  18.955  12.022  11.505  0.2898 -0.1339  0.0567
 1870POSM   T1A21939  18.718  12.116  11.896  0.1537  0.1114  0.1062
 1870POSM   C2A21940  18.894  12.391  12.203 -0.3198  0.1831  0.2927
 1870POSM   C3A21941  19.081  12.252  12.617 -0.2739 -0.0296 -0.2444
 1870POSM   C1B21942  18.708  12.214  11.391  0.0025  0.0868  0.0357
 1870POSM   D2B21943  18.566  12.601  11.235  0.1926  0.0918 -0.2434
 1870POSM   C3B21944  18.297  12.921  11.504  0.1044  0.0252  0.0674
 1870POSM   C4B21945  18.232  13.194  11.947 -0.2005 -0.2826  0.0152
 1871POSM   NC321946  11.338  19.997  11.726  0.0727 -0.2360  0.2580
 1871POSM   PO421947  11.310  19.689  11.504 -0.0363  0.1052  0.1021
 1871POSM   AM121948  11.370  19.372  11.578 -0.3233 -0.0042  0.0298
 1871POSM   AM221949  11.444  19.242  11.820  0.1342 -0.4275 -0.2886
 1871POSM   T1A21950  11.476  18.920  11.459  0.0715 -0.3019  0.1399
 1871POSM   C2A21951  11.388  18.464  11.568 -0.0437 -0.3494  0.3205
 1871POSM   C3A21952  11.250  17.949  11.512  0.3300 -0.0250 -0.2146
 1871POSM   C1B21953  11.731  19.133  11.916  0.1963  0.1036 -0.0530
 1871POSM   D2B21954  12.009  18.944  12.198 -0.1767 -0.0991 -0.0333
 1871POSM   C3B21955  12.117  18.514  12.248  0.0573 -0.1763  0.2131
 1871POSM   C4B21956  12.213  18.151  11.927 -0.0158  0.0854  0.0409
 1872DOPC   NC321957  16.486  13.314  11.066  0.0973 -0.0461  0.0070
 1872DOPC   PO421958  16.228  13.583  10.916  0.2645 -0.2037 -0.1483
 1872DOPC   GL121959  16.194  13.834  11.223  0.1193 -0.1056 -0.2922
 1872DOPC   GL221960  16.285  13.716  11.453 -0.1152 -0.3051 -0.0949
 1872DOPC   C1A21961  16.028  14.108  11.609  0.2265  0.2662 -0.0665
 1872DOPC   D2A21962  15.742  14.069  12.034 -0.0063 -0.1488 -0.0087
 1872DOPC   C3A21963  15.426  13.697  12.086 -0.1527 -0.1126 -0.1367
 1872DOPC   C4A21964  14.970  13.489  12.101  0.1788  0.3367 -0.0947
 1872DOPC   C1B21965  16.445  13.319  11.583 -0.2502 -0.2345 -0.3026
 1872DOPC   D2B21966  16.694  12.958  11.723 -0.2955  0.0460  0.2542
 1872DOPC   C3B21967  17.100  12.872  11.894  0.3677  0.1680  0.0202
 1872DOPC   C4B21968  17.598  12.943  11.977  0.1141  0.0635  0.2410
 1873DOPE   NH321969  14.220  12.393  11.430 -0.1221 -0.1348  0.2313
 1873DOPE   PO421970  14.462  12.238  11.434 -0.2020 -0.3587 -0.2743
 1873DOPE   GL121971  14.657  12.427  11.671  0.2476  0.1957  0.1072
 1873DOPE   GL221972  14.698  12.732  11.518  0.2235  0.0226 -0.0571
 1873DOPE   C1A21973  14.623  12.786  12.007 -0.3097  0.0470 -0.1174
 1873DOPE   D2A21974  14.857  13.037  12.263 -0.1026 -0.3365  0.3103
 1873DOPE   C3A21975  14.492  13.301  12.445 -0.0959 -0.2123  0.0211
 1873DOPE   C4A21976  14.087  13.580  12.438 -0.0715 -0.1270 -0.4380
 1873DOPE   C1B21977  14.776  13.149  11.774  0.0613  0.0547 -0.0310
 1873DOPE   D2B21978  14.503  13.519  11.953 -0.3721 -0.1133 -0.0950
 1873DOPE   C3B21979  14.527  13.854  12.319  0.2940  0.0299 -0.0870
 1873DOPE   C4B21980  14.180  14.075  12.565 -0.2226  0.0929  0.3037
 1874POSM   NC321981  14.612  23.829  11.378 -0.1120 -0.0643 -0.0922
 1874POSM   PO421982  14.585  24.004  11.732 -0.0883  0.1506  0.0986
 1874POSM   AM121983  14.675  24.149  12.006  0.0986  0.1730 -0.0078
 1874POSM   AM221984  14.655  24.011  12.269 -0.2317 -0.3929  0.2755
 1874POSM   T1A21985  14.961  24.428  12.357 -0.4133 -0.0428  0.2141
 1874POSM   C2A21986  15.156  24.411  12.787  0.2039  0.1221  0.2124
 1874POSM   C3A21987  15.437  24.392  13.207  0.0091  0.2216 -0.1974
 1874POSM   C1B21988  14.411  23.851  12.448  0.2521 -0.1880 -0.0993
 1874POSM   D2B21989  14.150  23.658  12.792  0.0216  0.2271  0.1217
 1874POSM   C3B21990  13.687  23.751  13.012 -0.4483 -0.2112 -0.0754
 1874POSM   C4B21991  13.725  23.979  13.418  0.2215 -0.1215 -0.2012
 1875POSM   NC321992  14.405  13.018  10.283 -0.2476  0.1332 -0.0505
 1875POSM   PO421993  14.692  12.928  10.590  0.2772  0.2410  0.1665
 1875POSM   AM121994  14.540  13.075  10.841  0.1651  0.1534 -0.2863
 1875POSM   AM221995  14.298  13.252  10.799  0.1018  0.0839  0.3326
 1875POSM   T1A21996  14.540  13.317  11.274  0.1977 -0.4630  0.1605
 1875POSM   C2A21997  14.119  13.418  11.505  0.0070 -0.1539  0.0086
 1875POSM   C3A21998  14.046  13.592  11.951  0.3398 -0.3496 -0.1778
 1875POSM   C1B21999  14.099  13.380  10.984  0.3590 -0.1017  0.1005
 1875POSM   D2B22000  13.914  13.859  11.096  0.4427  0.4423 -0.0104
 1875POSM   C3B22001  13.599  13.817  11.433  0.1402 -0.1008 -0.3571
 1875POSM   C4B22002  13.514  13.633  11.875 -0.0775  0.0253 -0.3469
 1876DOPS   CNO22003  18.940  18.033  11.497  0.0113 -0.1080  0.1328
 1876DOPS   PO422004  18.920  18.024  11.859  0.0665  0.0937  0.3551
 1876DOPS   GL122005  18.584  17.905  11.958 -0.0592 -0.1521  0.4361
 1876DOPS   GL222006  18.641  17.567  11.972  0.1403  0.3603 -0.2585
 1876DOPS   C1A22007  18.356  18.071  12.366  0.0682  0.0426 -0.0192
 1876DOPS   D2A22008  18.308  18.356  12.731  0.4684  0.1466 -0.3166
 1876DOPS   C3A22009  18.651  18.537  12.974  0.3358 -0.0061  0.1094
 1876DOPS   C4A22010  18.787  18.889  13.198 -0.3321 -0.0519 -0.0748
 1876DOPS   C1B22011  18.303  17.190  11.965  0.0940  0.1792 -0.0590
 1876DOPS   D2B22012  17.850  17.109  12.086 -0.0648 -0.0712 -0.4530
 1876DOPS   C3B22013  17.465  17.320  11.987 -0.2343  0.0686 -0.3042
 1876DOPS   C4B22014  17.267  17.727  11.959 -0.0444 -0.0052  0.2973
 1877DOPC   NC322015  14.200  20.595  11.019  0.2969 -0.0529  0.2431
 1877DOPC   PO422016  14.202  20.932  11.154 -0.1837  0.1526 -0.0529
 1877DOPC   GL122017  14.055  21.002  11.454  0.4415 -0.1729 -0.0544
 1877DOPC   GL222018  14.225  21.001  11.684  0.1228  0.2306  0.1936
 1877DOPC   C1A22019  14.005  21.445  11.557 -0.1294 -0.2798  0.3211
 1877DOPC   D2A22020  13.849  21.864  11.739 -0.2416  0.1656  0.0793
 1877DOPC   C3A22021  14.020  22.010  12.040  0.1191  0.0530 -0.1902
 1877DOPC   C4A22022  14.144  22.232  12.442 -0.0235  0.1082  0.0960
 1877DOPC   C1B22023  13.735  20.996  11.750 -0.2507  0.0609 -0.1437
 1877DOPC   D2B22024  13.440  20.973  12.077  0.3615  0.4141 -0.0920
 1877DOPC   C3B22025  13.099  21.193  11.906 -0.0774  0.0825  0.2908
 1877DOPC   C4B22026  12.931  21.266  11.398  0.0784 -0.0448  0.0274
 1878POSM   NC322027  10.079  17.516  11.904  0.1679  0.2380 -0.0837
 1878POSM   PO422028  10.217  17.860  11.792 -0.2084 -0.1553 -0.0853
 1878POSM   AM122029  10.493  17.796  11.993  0.0108 -0.2834  0.0362
 1878POSM   AM222030  10.586  17.599  12.147 -0.0268  0.2220 -0.0090
 1878POSM   T1A22031  11.015  17.719  11.938 -0.0525  0.1420  0.2446
 1878POSM   C2A22032  11.425  17.891  12.084 -0.2037  0.2283  0.1513
 1878POSM   C3A22033  11.537  18.112  12.506 -0.1797  0.0932  0.1809
 1878POSM   C1B22034  10.875  17.335  12.180  0.2185 -0.0836  0.3650
 1878POSM   D2B22035  11.174  16.950  12.087  0.0113 -0.1768  0.1045
 1878POSM   C3B22036  11.359  16.812  12.460 -0.3142 -0.1244 -0.0831
 1878POSM   C4B22037  11.482  16.663  12.919 -0.0359  0.4244  0.1490
 1879DOPE   NH322038  17.635  15.097  10.845 -0.2723 -0.2663  0.0058
 1879DOPE   PO422039  17.648  14.770  10.991 -0.0091  0.2279  0.1255
 1879DOPE   GL122040  17.489  14.807  11.285 -0.0793 -0.0326 -0.3169
 1879DOPE   GL222041  17.373  14.705  11.589 -0.1012  0.2080  0.0954
 1879DOPE   C1A22042  17.093  15.058  11.417  0.0750  0.2715 -0.0983
 1879DOPE   D2A22043  16.865  14.964  11.830  0.4566  0.1349  0.0670
 1879DOPE   C3A22044  16.528  15.278  11.818  0.0320  0.2287  0.1183
 1879DOPE   C4A22045  16.435  15.711  11.796 -0.0986  0.0506 -0.1013
 1879DOPE   C1B22046  17.480  15.068  11.901  0.0540 -0.3717  0.3128
 1879DOPE   D2B22047  17.358  15.220  12.264  0.1534 -0.1015 -0.0592
 1879DOPE   C3B22048  17.556  14.832  12.372 -0.0253  0.1566 -0.0787
 1879DOPE   C4B22049  17.915  14.630  12.537  0.0229 -0.1682 -0.2257
 1880POSM   NC322050  12.460  19.841  12.069 -0.0552  0.0182 -0.1135
 1880POSM   PO422051  12.656  19.692  11.716 -0.1893 -0.0666  0.2100
 1880POSM   AM122052  12.321  19.704  11.653  0.0557 -0.0772  0.0602
 1880POSM   AM222053  12.102  19.490  11.699  0.2947 -0.0995 -0.1619
 1880POSM   T1A22054  11.878  19.927  11.731 -0.1530  0.0072  0.0496
 1880POSM   C2A22055  11.563  19.821  12.093  0.2382  0.4870 -0.2691
 1880POSM   C3A22056  11.420  20.114  12.404 -0.0558 -0.5187  0.0974
 1880POSM   C1B22057  12.025  19.496  12.019 -0.2068 -0.3914  0.0099
 1880POSM   D2B22058  11.919  19.742  12.438  0.3610 -0.0540 -0.2913
 1880POSM   C3B22059  12.045  20.177  12.352 -0.0958 -0.0865 -0.1638
 1880POSM   C4B22060  12.048  20.561  12.669  0.1201  0.1848 -0.0219
 1881POSM   NC322061  14.452  17.542  10.576 -0.1627 -0.0150 -0.1768
 1881POSM   PO422062  14.331  17.183  10.527 -0.0121 -0.0396  0.0656
 1881POSM   AM122063  14.414  17.146  10.836  0.5428 -0.0771  0.4629
 1881POSM   AM222064  14.627  17.236  10.990  0.0941  0.0816  0.1826
 1881POSM   T1A22065  14.346  17.164  11.346  0.2232 -0.1446  0.1347
 1881POSM   C2A22066  14.106  17.102  11.699 -0.2326  0.3207 -0.1407
 1881POSM   C3A22067  14.107  17.152  12.118 -0.0548  0.1020 -0.0610
 1881POSM   C1B22068  14.939  17.379  11.008  0.2326  0.3691  0.0285
 1881POSM   D2B22069  15.189  17.735  11.118 -0.2053  0.0900  0.2734
 1881POSM   C3B22070  15.118  18.114  11.239  0.0813 -0.2712  0.1055
 1881POSM   C4B22071  14.665  18.212  11.284 -0.0097  0.0063  0.4008
 1882POSM   NC322072  13.568  17.158  10.760 -0.0719 -0.0012 -0.3346
 1882POSM   PO422073  13.496  17.452  10.530  0.0638 -0.1518 -0.2204
 1882POSM   AM122074  13.574  17.687  10.743 -0.0079 -0.2773  0.4361
 1882POSM   AM222075  13.708  17.922  10.808  0.2274  0.3508 -0.2382
 1882POSM   T1A22076  13.524  17.704  11.223  0.0002 -0.3668 -0.1640
 1882POSM   C2A22077  13.215  17.593  11.565 -0.1676  0.0418  0.1456
 1882POSM   C3A22078  13.225  17.247  11.904  0.0278  0.0243  0.1568
 1882POSM   C1B22079  13.949  17.971  11.035  0.1546  0.0439 -0.2221
 1882POSM   D2B22080  14.183  18.210  11.373  0.1506  0.0778 -0.3496
 1882POSM   C3B22081  14.158  18.603  11.668  0.3049  0.3454 -0.3103
 1882POSM   C4B22082  14.124  18.841  12.031 -0.0784  0.0293  0.0104
 1883DOPS   CNO22083  20.284  16.518  10.903 -0.0943  0.2786  0.1332
 1883DOPS   PO422084  20.643  16.480  11.066  0.0284 -0.1864  0.0924
 1883DOPS   GL122085  20.569  16.165  11.399 -0.0888  0.0636  0.0702
 1883DOPS   GL222086  20.721  16.311  11.550 -0.0013  0.1778 -0.0585
 1883DOPS   C1A22087  20.825  15.829  11.603  0.1210 -0.1483  0.0825
 1883DOPS   D2A22088  21.145  15.498  11.563 -0.3185 -0.1442 -0.0830
 1883DOPS   C3A22089  21.487  15.614  11.867  0.0247 -0.2738  0.2701
 1883DOPS   C4A22090  21.673  15.610  12.255  0.0748 -0.0736 -0.0219
 1883DOPS   C1B22091  20.594  16.117  11.891  0.2155  0.3330 -0.0461
 1883DOPS   D2B22092  20.317  15.779  11.988  0.2256  0.1257 -0.3441
 1883DOPS   C3B22093  19.889  15.881  11.927 -0.1471 -0.1477  0.0251
 1883DOPS   C4B22094  19.425  15.843  11.937  0.1913 -0.3377 -0.0342
 1884POSM   NC322095  18.621  11.077  12.230  0.1116  0.2305 -0.0476
 1884POSM   PO422096  18.637  11.011  11.862 -0.2952  0.2609  0.0273
 1884POSM   AM122097  18.371  11.168  11.830  0.1462  0.2809 -0.0895
 1884POSM   AM222098  18.138  11.285  12.021  0.0998 -0.0688 -0.1091
 1884POSM   T1A22099  18.126  11.479  11.477 -0.0408  0.2436  0.0556
 1884POSM   C2A22100  17.740  11.701  11.411  0.0519  0.1361  0.0823
 1884POSM   C3A22101  17.305  11.775  11.202 -0.0041  0.2823  0.0750
 1884POSM   C1B22102  17.930  11.521  11.962 -0.2753  0.0506  0.1005
 1884POSM   D2B22103  17.661  11.779  12.001 -0.0241 -0.0375  0.0548
 1884POSM   C3B22104  17.332  11.697  11.701 -0.1673  0.0087  0.0508
 1884POSM   C4B22105  16.932  11.899  11.484 -0.0394 -0.1667  0.1512
 1885DOPE   NH322106  23.047  15.376  12.065 -0.1014 -0.0624 -0.1335
 1885DOPE   PO422107  22.805  15.176  12.026  0.1211 -0.0079  0.0300
 1885DOPE   GL122108  22.419  15.220  12.096 -0.1603 -0.0619  0.2871
 1885DOPE   GL222109  22.383  15.036  11.796  0.1791  0.0785  0.1068
 1885DOPE   C1A22110  21.969  15.133  12.152  0.1943 -0.1616 -0.0159
 1885DOPE   D2A22111  21.530  15.126  12.209  0.3111  0.3565  0.2132
 1885DOPE   C3A22112  21.171  15.163  11.932  0.1790 -0.1938 -0.4771
 1885DOPE   C4A22113  20.707  15.393  11.915 -0.1059  0.0643 -0.3397
 1885DOPE   C1B22114  22.166  15.457  11.751  0.1072  0.5539  0.0630
 1885DOPE   D2B22115  22.003  15.867  11.915 -0.1253 -0.0736  0.0691
 1885DOPE   C3B22116  21.778  16.184  12.139 -0.1607  0.2243  0.0820
 1885DOPE   C4B22117  21.914  16.265  12.578  0.1445  0.0094 -0.0371
 1886DOPE   NH322118  23.524  22.520  12.852 -0.0636  0.3366 -0.3475
 1886DOPE   PO422119  23.617  22.755  12.677  0.4441 -0.0628 -0.1484
 1886DOPE   GL122120  23.329  22.395  12.402  0.2036  0.0830  0.6813
 1886DOPE   GL222121  23.092  22.431  12.188  0.0012 -0.0814  0.1210
 1886DOPE   C1A22122  22.993  22.063  12.440 -0.1217 -0.2401  0.1606
 1886DOPE   D2A22123  22.690  21.996  12.713 -0.2799  0.2025 -0.0427
 1886DOPE   C3A22124  22.835  22.041  13.145 -0.0203  0.0095 -0.1408
 1886DOPE   C4A22125  22.667  22.104  13.559 -0.3087  0.0325  0.1213
 1886DOPE   C1B22126  23.236  22.006  12.047 -0.0405 -0.1989 -0.1008
 1886DOPE   D2B22127  23.231  21.597  12.313  0.1362 -0.0423 -0.3697
 1886DOPE   C3B22128  22.800  21.438  12.382 -0.0949  0.3814 -0.0109
 1886DOPE   C4B22129  22.618  21.346  12.816 -0.2611  0.2803  0.0868
 1887DOPE   NH322130  16.403  19.856  11.375 -0.0857  0.0939 -0.0994
 1887DOPE   PO422131  16.249  19.677  11.616 -0.1855 -0.0987  0.0866
 1887DOPE   GL122132  16.076  19.469  11.856  0.1355 -0.1202 -0.0088
 1887DOPE   GL222133  15.983  19.203  11.658 -0.0237  0.1977 -0.2059
 1887DOPE   C1A22134  15.683  19.349  12.112 -0.0354 -0.1448 -0.6006
 1887DOPE   D2A22135  15.195  19.443  12.184  0.1081  0.1138 -0.3268
 1887DOPE   C3A22136  14.930  19.750  12.325  0.4964 -0.2718  0.1331
 1887DOPE   C4A22137  14.498  19.929  12.292  0.1324 -0.3852 -0.2702
 1887DOPE   C1B22138  16.151  18.758  11.795  0.0974 -0.0638 -0.0181
 1887DOPE   D2B22139  16.443  18.612  12.166 -0.2143 -0.1700 -0.1700
 1887DOPE   C3B22140  16.336  18.274  12.469  0.2591  0.0093 -0.0133
 1887DOPE   C4B22141  16.382  17.827  12.560 -0.1343  0.1833  0.3036
 1888DOPE   NH322142  11.379  15.215  11.199  0.1093 -0.0599  0.1471
 1888DOPE   PO422143  11.307  14.893  11.170  0.3561  0.0900 -0.1994
 1888DOPE   GL122144  11.283  14.552  11.425 -0.0219  0.2712  0.0352
 1888DOPE   GL222145  11.388  14.281  11.298 -0.0408 -0.0492 -0.1177
 1888DOPE   C1A22146  11.574  14.434  11.740  0.0478  0.0750  0.3013
 1888DOPE   D2A22147  11.807  14.105  11.888  0.2085 -0.1325  0.0735
 1888DOPE   C3A22148  12.165  13.840  12.021  0.1856 -0.0685  0.2300
 1888DOPE   C4A22149  12.449  13.642  11.852  0.1841  0.0705 -0.3885
 1888DOPE   C1B22150  11.543  13.861  11.274  0.3276  0.1765 -0.0902
 1888DOPE   D2B22151  11.604  13.380  11.186 -0.1719  0.0847  0.3691
 1888DOPE   C3B22152  11.986  13.135  11.329  0.1960 -0.2382  0.2512
 1888DOPE   C4B22153  12.420  13.049  11.512 -0.1482  0.3430 -0.2919
 1889POSM   NC322154  11.566  15.729  11.835 -0.1425  0.2234  0.1027
 1889POSM   PO422155  11.428  15.522  11.577 -0.3091  0.0113 -0.1228
 1889POSM   AM122156  11.441  15.216  11.724  0.2200 -0.2127 -0.3420
 1889POSM   AM222157  11.531  14.955  11.685 -0.3436  0.1008 -0.1681
 1889POSM   T1A22158  11.371  14.943  12.149 -0.1264  0.1742 -0.2547
 1889POSM   C2A22159  11.510  14.671  12.513 -0.0448 -0.0312  0.1870
 1889POSM   C3A22160  11.776  14.273  12.660  0.0076  0.0978 -0.1915
 1889POSM   C1B22161  11.828  14.868  11.756 -0.0052  0.3217 -0.2068
 1889POSM   D2B22162  12.069  14.508  11.937 -0.3045 -0.0606  0.0761
 1889POSM   C3B22163  12.386  14.245  11.700 -0.3623 -0.0591 -0.1152
 1889POSM   C4B22164  12.733  13.923  11.572  0.1777 -0.0804  0.1283
 1890DOPC   NC322165  22.006  19.578  11.815  0.1857  0.3655  0.3157
 1890DOPC   PO422166  22.407  19.616  11.752 -0.0390  0.0257 -0.0374
 1890DOPC   GL122167  22.830  19.683  11.764  0.3645 -0.2404 -0.2447
 1890DOPC   GL222168  22.894  19.924  11.759 -0.1413 -0.0634 -0.0467
 1890DOPC   C1A22169  23.214  19.667  12.056 -0.3446 -0.2603 -0.1693
 1890DOPC   D2A22170  23.446  19.832  12.393  0.1459  0.1344 -0.0183
 1890DOPC   C3A22171  23.258  20.199  12.401 -0.0777  0.3350  0.0176
 1890DOPC   C4A22172  23.267  20.659  12.422 -0.1000 -0.1857 -0.2107
 1890DOPC   C1B22173  22.689  20.356  11.998 -0.1440  0.1508  0.0081
 1890DOPC   D2B22174  22.441  20.613  12.273 -0.2639 -0.1756  0.1359
 1890DOPC   C3B22175  22.302  20.978  12.507  0.0795  0.2687 -0.2815
 1890DOPC   C4B22176  22.197  20.887  12.962  0.0706  0.1446  0.0934
 1891DOPC   NC322177  17.641  22.579  12.491  0.0020  0.2614  0.1320
 1891DOPC   PO422178  17.618  22.531  12.108 -0.0822  0.0877  0.1966
 1891DOPC   GL122179  17.439  22.238  12.313  0.1532  0.3242 -0.0859
 1891DOPC   GL222180  17.406  21.986  12.407  0.0432  0.0362  0.1117
 1891DOPC   C1A22181  17.328  22.258  12.784 -0.3134  0.1259  0.2568
 1891DOPC   D2A22182  17.417  22.127  13.243 -0.3587 -0.2752 -0.0011
 1891DOPC   C3A22183  17.315  21.728  13.448 -0.0181  0.1027  0.0051
 1891DOPC   C4A22184  16.899  21.571  13.522 -0.0192  0.0147 -0.0334
 1891DOPC   C1B22185  17.414  21.637  12.640 -0.0921 -0.3460 -0.1311
 1891DOPC   D2B22186  17.789  21.333  12.699 -0.2695 -0.2018 -0.1404
 1891DOPC   C3B22187  17.710  21.095  12.320 -0.0112  0.0045 -0.2377
 1891DOPC   C4B22188  17.341  21.057  12.040  0.0227  0.1031 -0.1660
 1892POSM   NC322189  12.437  16.188  11.088 -0.0149 -0.0902 -0.0022
 1892POSM   PO422190  12.092  16.244  10.910  0.0278 -0.1850  0.0984
 1892POSM   AM122191  12.059  16.494  11.120 -0.1231  0.3620  0.3390
 1892POSM   AM222192  12.291  16.619  11.291  0.0640  0.1345  0.5150
 1892POSM   T1A22193  11.910  16.945  11.336  0.0829  0.3172  0.1563
 1892POSM   C2A22194  11.601  17.093  11.685  0.2260  0.1076  0.3006
 1892POSM   C3A22195  11.439  17.411  11.936 -0.0967 -0.2201  0.0785
 1892POSM   C1B22196  12.408  16.873  11.414 -0.0811 -0.1376 -0.0799
 1892POSM   D2B22197  12.146  17.193  11.659 -0.0381 -0.2129  0.1680
 1892POSM   C3B22198  12.305  17.607  11.805 -0.2137 -0.1997  0.2525
 1892POSM   C4B22199  12.499  17.824  12.151 -0.0436 -0.1184  0.0149
 1893POSM   NC322200  19.724  18.526  12.074 -0.1187 -0.1209  0.1459
 1893POSM   PO422201  19.807  18.192  11.905  0.0913 -0.0954 -0.0693
 1893POSM   AM122202  20.123  18.172  11.968 -0.0842  0.1518 -0.0273
 1893POSM   AM222203  20.340  18.237  12.218 -0.1305 -0.0720  0.2560
 1893POSM   T1A22204  20.545  17.849  11.932  0.0560  0.1966 -0.1341
 1893POSM   C2A22205  20.875  17.589  12.191 -0.1739  0.0597  0.1905
 1893POSM   C3A22206  20.936  17.113  12.135  0.2303 -0.1984 -0.1863
 1893POSM   C1B22207  20.241  18.430  12.494  0.1165  0.1019 -0.1048
 1893POSM   D2B22208  20.166  18.798  12.695 -0.1649  0.3551  0.3120
 1893POSM   C3B22209  20.177  18.879  13.196  0.1263  0.0422 -0.0601
 1893POSM   C4B22210  20.183  18.790  13.661 -0.2095  0.4674 -0.2067
 1894DOPS   CNO22211  19.606  12.643  11.293  0.1299 -0.1149 -0.1174
 1894DOPS   PO422212  19.979  12.684  11.164  0.5523  0.1531 -0.2800
 1894DOPS   GL122213  19.902  12.903  11.570  0.1046 -0.0144  0.1655
 1894DOPS   GL222214  20.070  13.132  11.500  0.1020  0.1570  0.1287
 1894DOPS   C1A22215  19.542  12.713  11.828 -0.3250 -0.3991  0.3921
 1894DOPS   D2A22216  19.379  12.531  12.244 -0.0418 -0.0179  0.1792
 1894DOPS   C3A22217  19.157  12.932  12.451 -0.1177  0.4084 -0.2273
 1894DOPS   C4A22218  19.005  13.109  12.877  0.1950  0.1676  0.0799
 1894DOPS   C1B22219  20.173  13.519  11.405 -0.2044  0.0833 -0.0357
 1894DOPS   D2B22220  20.431  13.756  11.130  0.0930  0.0230  0.0458
 1894DOPS   C3B22221  20.409  14.216  11.232  0.0133  0.1211 -0.0655
 1894DOPS   C4B22222  20.641  14.637  11.335 -0.0207  0.1592 -0.0976
 1895DOPE   NH322223  18.057  19.080  10.962  0.0263  0.1768  0.1062
 1895DOPE   PO422224  18.366  19.026  10.951 -0.4736  0.0700 -0.2080
 1895DOPE   GL122225  18.463  19.359  11.049 -0.4785  0.0052 -0.0063
 1895DOPE   GL222226  18.273  19.603  10.904  0.0828 -0.0122  0.1906
 1895DOPE   C1A22227  18.743  19.703  10.977 -0.2608 -0.2082  0.0416
 1895DOPE   D2A22228  19.180  19.774  11.176  0.2438 -0.0868 -0.1116
 1895DOPE   C3A22229  19.240  19.691  11.675 -0.1013  0.1206 -0.1926
 1895DOPE   C4A22230  18.974  19.760  12.010  0.1734  0.3551 -0.2717
 1895DOPE   C1B22231  18.361  20.012  10.740  0.1772  0.2701  0.1583
 1895DOPE   D2B22232  18.702  20.302  10.860 -0.3281 -0.2687  0.2506
 1895DOPE   C3B22233  18.747  20.321  11.354  0.2095 -0.0258  0.2759
 1895DOPE   C4B22234  19.072  20.270  11.631  0.5363  0.0033  0.0712
 1896DOPC   NC322235  19.027  17.539  11.600  0.1562 -0.0805  0.1643
 1896DOPC   PO422236  18.644  17.550  11.434  0.2657  0.2999 -0.3382
 1896DOPC   GL122237  18.241  17.383  11.562  0.0334  0.3919  0.0055
 1896DOPC   GL222238  18.072  17.528  11.678 -0.0627 -0.0846 -0.3811
 1896DOPC   C1A22239  18.101  17.014  11.349  0.2522  0.0153 -0.0148
 1896DOPC   D2A22240  17.853  16.793  11.031 -0.1627 -0.2723  0.4212
 1896DOPC   C3A22241  17.358  16.728  11.183  0.1388  0.0268 -0.2168
 1896DOPC   C4A22242  16.977  16.720  10.898  0.1674 -0.3560  0.2920
 1896DOPC   C1B22243  17.685  17.259  11.569  0.0120 -0.2074  0.3822
 1896DOPC   D2B22244  17.355  16.922  11.613  0.1355 -0.1495 -0.2114
 1896DOPC   C3B22245  17.069  16.629  11.846  0.3457  0.0933 -0.2464
 1896DOPC   C4B22246  17.005  16.584  12.296  0.0434  0.1791 -0.1386
 1897DOPC   NC322247  16.280  20.672  11.710  0.0431  0.3424 -0.0329
 1897DOPC   PO422248  15.965  20.515  11.827  0.0543 -0.2264  0.2633
 1897DOPC   GL122249  15.905  20.254  11.969  0.0332  0.2953 -0.1245
 1897DOPC   GL222250  15.942  19.982  11.891 -0.0336  0.0526  0.1337
 1897DOPC   C1A22251  15.692  20.242  12.417 -0.2329  0.1880  0.1474
 1897DOPC   D2A22252  15.704  20.041  12.827 -0.0906 -0.0463  0.0390
 1897DOPC   C3A22253  15.961  19.613  12.768  0.2705 -0.0437  0.3977
 1897DOPC   C4A22254  16.139  19.195  12.764 -0.1770  0.0406  0.0796
 1897DOPC   C1B22255  16.030  19.687  12.259  0.2874 -0.0405 -0.0536
 1897DOPC   D2B22256  16.355  19.448  12.352  0.2047 -0.0894  0.0846
 1897DOPC   C3B22257  16.792  19.440  12.203 -0.1627  0.0669 -0.0390
 1897DOPC   C4B22258  17.205  19.218  12.243 -0.1274 -0.1891  0.2814
 1898DOPC   NC322259  17.152  22.625  11.933  0.2226  0.0787 -0.0991
 1898DOPC   PO422260  16.884  22.795  11.702 -0.0595  0.1146  0.2504
 1898DOPC   GL122261  16.691  22.426  11.874 -0.2181  0.0576  0.0073
 1898DOPC   GL222262  16.595  22.295  11.600  0.1532 -0.1048  0.1807
 1898DOPC   C1A22263  16.550  22.085  12.184  0.0324 -0.2446  0.3349
 1898DOPC   D2A22264  16.279  21.705  12.354 -0.1442  0.1366  0.1281
 1898DOPC   C3A22265  16.217  21.673  12.820  0.0029  0.4226  0.1689
 1898DOPC   C4A22266  16.016  21.920  13.210 -0.4250  0.1411  0.4977
 1898DOPC   C1B22267  16.265  22.127  11.806  0.1508 -0.0264  0.1381
 1898DOPC   D2B22268  16.055  22.160  12.210 -0.3926  0.0949  0.1580
 1898DOPC   C3B22269  16.262  22.191  12.688  0.0265 -0.1780 -0.2164
 1898DOPC   C4B22270  16.283  22.472  13.068  0.0858  0.0777 -0.3215
 1899DOPE   NH322271  19.152  11.808  11.940 -0.0987 -0.0063  0.3576
 1899DOPE   PO422272  19.288  11.767  12.186 -0.4052 -0.0023 -0.0128
 1899DOPE   GL122273  19.030  11.632  12.508 -0.3633  0.1241 -0.1348
 1899DOPE   GL222274  18.880  11.783  12.673 -0.2785 -0.2401  0.1095
 1899DOPE   C1A22275  18.693  11.365  12.714  0.1602  0.3386  0.0893
 1899DOPE   D2A22276  18.269  11.085  12.620 -0.0160  0.0048  0.0396
 1899DOPE   C3A22277  18.046  11.259  13.017  0.1423  0.2925  0.1080
 1899DOPE   C4A22278  17.944  11.458  13.414 -0.2083 -0.0647  0.3255
 1899DOPE   C1B22279  18.591  12.119  12.478  0.0211 -0.2679  0.3060
 1899DOPE   D2B22280  18.093  12.088  12.603  0.0732 -0.0557 -0.1336
 1899DOPE   C3B22281  17.751  12.195  12.324 -0.1546  0.0542 -0.1588
 1899DOPE   C4B22282  17.454  12.350  12.017 -0.0993 -0.1582  0.1409
 1900DOPC   NC322283  22.378  18.794  12.292  0.0254  0.0834  0.3421
 1900DOPC   PO422284  22.763  18.956  12.337  0.2905  0.4832  0.0708
 1900DOPC   GL122285  22.795  18.863  12.728 -0.4605 -0.3666  0.0389
 1900DOPC   GL222286  22.976  18.693  12.871 -0.2245 -0.0153 -0.2624
 1900DOPC   C1A22287  22.596  19.055  13.076  0.0987  0.2083 -0.0778
 1900DOPC   D2A22288  22.313  19.310  13.137  0.0710 -0.0846 -0.1657
 1900DOPC   C3A22289  21.883  19.478  13.139  0.1681 -0.1701  0.0337
 1900DOPC   C4A22290  21.508  19.556  12.864 -0.2048 -0.3234 -0.0579
 1900DOPC   C1B22291  22.518  18.549  12.816 -0.0252  0.2580 -0.1189
 1900DOPC   D2B22292  22.117  18.332  12.829 -0.0801  0.3440 -0.1026
 1900DOPC   C3B22293  21.826  18.657  12.934 -0.1853  0.0835  0.1023
 1900DOPC   C4B22294  21.680  19.116  12.870 -0.1115 -0.1900 -0.2377
 1901POSM   NC322295  12.997  15.091  10.820 -0.2576 -0.1438 -0.1484
 1901POSM   PO422296  13.172  15.101  10.480  0.0500 -0.1228  0.2032
 1901POSM   AM122297  13.421  15.077  10.691 -0.1221 -0.3125  0.0241
 1901POSM   AM222298  13.520  14.994  10.908 -0.3005  0.0947 -0.1383
 1901POSM   T1A22299  13.893  15.269  10.687 -0.0076 -0.0043  0.1897
 1901POSM   C2A22300  14.376  15.230  10.771  0.1653 -0.4261 -0.1147
 1901POSM   C3A22301  14.809  15.055  10.658 -0.2264 -0.0277  0.2894
 1901POSM   C1B22302  13.555  14.776  11.182 -0.1196 -0.0648 -0.0143
 1901POSM   D2B22303  13.983  14.590  11.300  0.3330  0.0824  0.2148
 1901POSM   C3B22304  14.221  14.623  11.696  0.1262  0.3243  0.2786
 1901POSM   C4B22305  14.212  14.885  12.096  0.0709  0.1125 -0.2274
 1902DOPS   CNO22306  13.358  10.627  10.722 -0.1599  0.1882 -0.1268
 1902DOPS   PO422307  13.450  10.321  10.923  0.1548  0.0271  0.0568
 1902DOPS   GL122308  13.873  10.304  11.211 -0.1301  0.0063  0.5255
 1902DOPS   GL222309  13.741  10.355  11.448 -0.2829  0.5469 -0.0810
 1902DOPS   C1A22310  14.016   9.901  11.459  0.4183 -0.0722  0.1354
 1902DOPS   D2A22311  13.969   9.470  11.683  0.1285 -0.0099 -0.1778
 1902DOPS   C3A22312  13.845   9.200  11.963 -0.0417 -0.0092  0.1347
 1902DOPS   C4A22313  13.853   8.825  12.191 -0.1373 -0.1222 -0.0243
 1902DOPS   C1B22314  14.073  10.562  11.605 -0.1958  0.2337 -0.2728
 1902DOPS   D2B22315  14.519  10.625  11.824  0.2475 -0.1594 -0.2985
 1902DOPS   C3B22316  14.449  10.235  11.690 -0.0801 -0.1727  0.0733
 1902DOPS   C4B22317  14.471   9.990  11.303 -0.0439  0.0021  0.2799
 1903DOPE   NH322318  12.653  17.895  10.675  0.0167  0.1767  0.3329
 1903DOPE   PO422319  12.556  17.612  10.532 -0.3036 -0.1423  0.0770
 1903DOPE   GL122320  12.782  17.465  10.795 -0.0738 -0.0859  0.1564
 1903DOPE   GL222321  12.716  17.120  10.866  0.0066  0.0175  0.1971
 1903DOPE   C1A22322  12.869  17.676  11.151 -0.0888  0.1091  0.1414
 1903DOPE   D2A22323  13.094  18.082  11.318 -0.2291  0.0214 -0.1038
 1903DOPE   C3A22324  13.084  18.394  11.583  0.0857  0.0125 -0.1370
 1903DOPE   C4A22325  13.339  18.790  11.671 -0.1177 -0.2554  0.0494
 1903DOPE   C1B22326  12.844  17.233  11.298 -0.0694 -0.1709 -0.0481
 1903DOPE   D2B22327  12.694  17.600  11.630 -0.2377  0.0458 -0.0203
 1903DOPE   C3B22328  12.940  17.904  11.834 -0.0067  0.3333 -0.1697
 1903DOPE   C4B22329  13.317  17.739  12.098  0.4231  0.1945 -0.0398
 1904POSM   NC322330  10.810  14.510  10.706  0.0679 -0.2079 -0.2181
 1904POSM   PO422331  10.851  14.375  11.049  0.0189  0.2241 -0.3085
 1904POSM   AM122332  10.929  14.129  11.238  0.2262  0.1014 -0.0029
 1904POSM   AM222333  10.869  13.876  11.280  0.3268  0.2132  0.0657
 1904POSM   T1A22334  11.153  14.067  11.669 -0.1951 -0.0340 -0.2813
 1904POSM   C2A22335  11.354  13.847  12.004 -0.0679 -0.0110  0.1680
 1904POSM   C3A22336  11.695  13.827  12.292 -0.2304  0.0287 -0.3281
 1904POSM   C1B22337  11.001  13.661  11.452  0.1660 -0.0499 -0.0849
 1904POSM   D2B22338  11.290  13.422  11.672  0.3260 -0.1423  0.0609
 1904POSM   C3B22339  11.717  13.482  11.724  0.2622 -0.0829  0.0381
 1904POSM   C4B22340  12.142  13.301  11.857  0.0437  0.2609 -0.0180
 1905DOPC   NC322341  18.795  17.771  11.052 -0.0736  0.1832  0.0773
 1905DOPC   PO422342  18.400  17.801  10.947 -0.0047  0.1184 -0.2619
 1905DOPC   GL122343  18.288  17.485  11.081  0.1598  0.1159 -0.0517
 1905DOPC   GL222344  18.057  17.512  11.189  0.0536  0.2118 -0.2992
 1905DOPC   C1A22345  18.190  17.107  10.839  0.2391  0.1786 -0.1161
 1905DOPC   D2A22346  17.884  16.970  10.560  0.0006  0.1029 -0.3150
 1905DOPC   C3A22347  17.706  16.534  10.471 -0.1718  0.1896 -0.0796
 1905DOPC   C4A22348  17.685  16.157  10.686  0.1689 -0.0447  0.0684
 1905DOPC   C1B22349  17.648  17.308  11.021  0.2883 -0.0823  0.0210
 1905DOPC   D2B22350  17.279  17.133  10.724  0.3588 -0.0018  0.0526
 1905DOPC   C3B22351  16.873  17.257  10.926 -0.3318 -0.0774  0.0156
 1905DOPC   C4B22352  16.590  17.571  11.141 -0.0194  0.0057 -0.1596
 1906DOPS   CNO22353  13.713  11.800  11.175 -0.3636  0.4147 -0.2731
 1906DOPS   PO422354  14.005  11.967  11.316  0.2398 -0.0676 -0.0386
 1906DOPS   GL122355  14.130  12.021  11.733 -0.2622  0.0059 -0.1258
 1906DOPS   GL222356  14.366  12.160  11.901  0.0117  0.2112  0.3104
 1906DOPS   C1A22357  13.978  12.008  12.160 -0.2327  0.1213  0.1736
 1906DOPS   D2A22358  14.123  12.030  12.567 -0.3703 -0.0481 -0.0379
 1906DOPS   C3A22359  13.798  11.995  12.927 -0.2158 -0.0046 -0.1832
 1906DOPS   C4A22360  13.558  11.714  13.118  0.1784  0.0041 -0.0964
 1906DOPS   C1B22361  14.444  11.802  12.202  0.1714  0.1127 -0.0477
 1906DOPS   D2B22362  14.158  11.523  12.439 -0.2813 -0.0369 -0.2737
 1906DOPS   C3B22363  13.814  11.515  12.779 -0.3018  0.1124  0.2680
 1906DOPS   C4B22364  13.577  11.172  13.028 -0.0491  0.2894  0.1673
 1907DOPC   NC322365  11.833  15.952  11.229 -0.0316  0.2997 -0.0316
 1907DOPC   PO422366  12.219  15.736  11.172  0.3218  0.0136  0.2393
 1907DOPC   GL122367  12.563  15.757  11.381 -0.1148 -0.2160 -0.1365
 1907DOPC   GL222368  12.781  15.521  11.382  0.2026  0.1989 -0.0795
 1907DOPC   C1A22369  12.623  15.794  11.814  0.1946  0.0306 -0.3031
 1907DOPC   D2A22370  12.582  15.787  12.315 -0.1669 -0.1478 -0.1552
 1907DOPC   C3A22371  12.163  15.904  12.463 -0.0204  0.1495  0.0264
 1907DOPC   C4A22372  11.820  15.757  12.229  0.0484  0.0212  0.1867
 1907DOPC   C1B22373  12.869  15.367  11.759 -0.0690 -0.1654 -0.1577
 1907DOPC   D2B22374  12.970  14.916  11.885 -0.0784  0.1614  0.3992
 1907DOPC   C3B22375  13.298  14.889  12.184  0.0104  0.0621 -0.1048
 1907DOPC   C4B22376  13.443  14.598  12.545 -0.0092  0.5976 -0.2813
 1908DOPC   NC322377  16.879  14.207  11.243 -0.1167 -0.1469  0.1323
 1908DOPC   PO422378  16.827  14.357  10.865 -0.1535  0.0294 -0.1535
 1908DOPC   GL122379  16.521  14.600  11.090 -0.2788  0.2983 -0.2357
 1908DOPC   GL222380  16.340  14.670  10.948 -0.0948  0.1112  0.0664
 1908DOPC   C1A22381  16.275  14.766  11.506 -0.0817 -0.0122 -0.0556
 1908DOPC   D2A22382  16.191  14.936  11.898 -0.2915  0.1612  0.0125
 1908DOPC   C3A22383  16.055  15.355  12.101  0.1718  0.0954 -0.0895
 1908DOPC   C4A22384  15.914  15.746  12.284  0.0784 -0.0320 -0.2750
 1908DOPC   C1B22385  15.988  14.889  10.797  0.1603  0.0850  0.1281
 1908DOPC   D2B22386  15.721  15.245  10.973  0.1184 -0.0240 -0.1741
 1908DOPC   C3B22387  15.845  15.588  10.692 -0.1386  0.0773  0.2837
 1908DOPC   C4B22388  16.157  15.933  10.663  0.0255 -0.1423 -0.0124
 1909DOPE   NH322389  17.839  14.255  10.908  0.2817  0.0510  0.0518
 1909DOPE   PO422390  17.881  13.972  11.057  0.0476 -0.2330  0.0506
 1909DOPE   GL122391  18.137  13.763  11.203 -0.1764  0.2828 -0.1717
 1909DOPE   GL222392  18.202  13.552  11.081 -0.1272 -0.0651  0.1920
 1909DOPE   C1A22393  18.062  13.595  11.640  0.3042 -0.0504  0.0740
 1909DOPE   D2A22394  17.946  13.624  12.102 -0.0245 -0.2044  0.3068
 1909DOPE   C3A22395  17.916  14.014  12.379  0.3826 -0.2130 -0.2806
 1909DOPE   C4A22396  18.140  14.236  12.731 -0.0249 -0.2156  0.1678
 1909DOPE   C1B22397  18.433  13.391  11.344  0.1326 -0.0028 -0.1181
 1909DOPE   D2B22398  18.811  13.215  11.586 -0.1380  0.1613  0.0652
 1909DOPE   C3B22399  19.283  13.131  11.532 -0.0901  0.2730 -0.0608
 1909DOPE   C4B22400  19.627  13.237  11.874 -0.1200 -0.1654 -0.0642
 1910DOPC   NC322401  12.210  14.803  10.975  0.2133  0.2217 -0.2127
 1910DOPC   PO422402  12.045  14.524  10.731 -0.0446 -0.0714  0.1886
 1910DOPC   GL122403  11.795  14.503  11.029  0.0532 -0.1492  0.1275
 1910DOPC   GL222404  11.742  14.692  11.268  0.0876  0.1359 -0.1550
 1910DOPC   C1A22405  11.917  14.204  11.405  0.0027  0.2584  0.0705
 1910DOPC   D2A22406  12.157  13.853  11.542 -0.0780 -0.0955 -0.0232
 1910DOPC   C3A22407  12.321  13.475  11.365  0.2322 -0.0960 -0.0798
 1910DOPC   C4A22408  12.551  13.271  11.048 -0.3256  0.1048  0.0320
 1910DOPC   C1B22409  12.168  14.641  11.423  0.2716  0.0390 -0.1195
 1910DOPC   D2B22410  12.526  14.685  11.753 -0.2268  0.0969  0.4038
 1910DOPC   C3B22411  12.882  14.397  11.857 -0.1553  0.3100 -0.0427
 1910DOPC   C4B22412  13.256  14.402  12.091  0.1377  0.0202 -0.0827
 1911DOPC   NC322413  18.420  22.932  12.388 -0.0121  0.1306  0.0910
 1911DOPC   PO422414  18.736  23.009  12.155  0.2870 -0.1652  0.1459
 1911DOPC   GL122415  18.867  22.946  12.571  0.0735 -0.1334  0.0279
 1911DOPC   GL222416  19.067  22.726  12.495  0.0403  0.0198  0.1158
 1911DOPC   C1A22417  19.070  23.045  12.981 -0.1459 -0.0817 -0.1895
 1911DOPC   D2A22418  19.242  23.126  13.383  0.0866 -0.1538  0.0191
 1911DOPC   C3A22419  19.316  22.775  13.568 -0.0609  0.2619 -0.3751
 1911DOPC   C4A22420  19.467  22.375  13.407 -0.0387 -0.0114 -0.3473
 1911DOPC   C1B22421  19.309  23.105  12.494  0.1951  0.1136  0.1182
 1911DOPC   D2B22422  19.773  23.141  12.703 -0.0513 -0.0432 -0.0235
 1911DOPC   C3B22423  20.220  23.265  12.644  0.2725  0.0330 -0.0664
 1911DOPC   C4B22424  20.654  23.179  12.443  0.1750 -0.1540  0.0613
 1912POSM   NC322425  16.583  23.181  11.899 -0.1549 -0.0337  0.1254
 1912POSM   PO422426  16.874  22.974  12.165 -0.0826 -0.0847 -0.0054
 1912POSM   AM122427  16.760  22.915  12.457 -0.1788 -0.1375  0.0326
 1912POSM   AM222428  16.677  23.064  12.700  0.0967 -0.2018 -0.1554
 1912POSM   T1A22429  16.685  22.526  12.790  0.2515  0.0297 -0.3286
 1912POSM   C2A22430  16.801  22.413  13.168  0.1031 -0.0142  0.1776
 1912POSM   C3A22431  16.906  22.133  13.558 -0.0737 -0.0289  0.1220
 1912POSM   C1B22432  16.401  22.993  12.819  0.1117  0.0834 -0.1382
 1912POSM   D2B22433  16.019  22.956  12.996 -0.1173  0.0719 -0.0331
 1912POSM   C3B22434  15.855  23.166  13.394  0.2237 -0.0289  0.1732
 1912POSM   C4B22435  15.896  23.500  13.626  0.2106 -0.0123  0.3018
 1913DOPE   NH322436  17.013  14.744  10.551 -0.0833  0.1477  0.0357
 1913DOPE   PO422437  17.354  14.781  10.603  0.0378  0.1152  0.0459
 1913DOPE   GL122438  17.217  14.930  10.945  0.2703 -0.1007 -0.1364
 1913DOPE   GL222439  17.118  14.698  11.089  0.2580 -0.1317 -0.0790
 1913DOPE   C1A22440  17.239  15.378  11.115 -0.0363 -0.1113  0.2141
 1913DOPE   D2A22441  17.224  15.854  11.148 -0.1332 -0.0563 -0.0409
 1913DOPE   C3A22442  17.152  16.180  10.822  0.3017 -0.1415  0.1472
 1913DOPE   C4A22443  17.133  16.462  10.422 -0.1284 -0.0321  0.0544
 1913DOPE   C1B22444  16.900  14.617  11.501 -0.1247 -0.0279  0.3185
 1913DOPE   D2B22445  16.568  14.570  11.837  0.2027 -0.3374  0.2364
 1913DOPE   C3B22446  16.297  14.255  12.036 -0.1217 -0.1921  0.0992
 1913DOPE   C4B22447  16.157  14.034  12.427  0.0652 -0.0232 -0.1777
 1914DOPS   CNO22448  16.293  14.983  10.357 -0.2501  0.1303 -0.1595
 1914DOPS   PO422449  16.520  14.721  10.483  0.0465  0.0116 -0.1056
 1914DOPS   GL122450  16.514  15.015  10.751 -0.0708 -0.2342 -0.3664
 1914DOPS   GL222451  16.753  15.058  10.910 -0.1665 -0.0678 -0.2212
 1914DOPS   C1A22452  16.279  15.070  11.178  0.1112 -0.2245 -0.0482
 1914DOPS   D2A22453  15.971  15.130  11.491 -0.0518  0.2086  0.0856
 1914DOPS   C3A22454  15.680  14.829  11.375  0.0068 -0.0446  0.0452
 1914DOPS   C4A22455  15.553  14.622  10.949 -0.0880  0.1477 -0.0191
 1914DOPS   C1B22456  16.746  15.456  11.166 -0.1791  0.1761 -0.1423
 1914DOPS   D2B22457  16.789  15.704  11.479  0.1193  0.0723 -0.0472
 1914DOPS   C3B22458  16.710  16.112  11.473  0.2210 -0.2525  0.1861
 1914DOPS   C4B22459  16.591  16.465  11.733 -0.0622  0.0147  0.5086
 1915DOPC   NC322460  16.957  23.956  11.885  0.1699 -0.1151 -0.3524
 1915DOPC   PO422461  16.860  23.585  11.815 -0.1473 -0.1995  0.1125
 1915DOPC   GL122462  16.562  23.762  11.974 -0.0798  0.1043  0.2645
 1915DOPC   GL222463  16.444  23.949  11.783 -0.0241 -0.2014 -0.0849
 1915DOPC   C1A22464  16.382  23.750  12.433 -0.3585  0.0703  0.0365
 1915DOPC   D2A22465  16.094  24.027  12.732 -0.0597  0.0883  0.1806
 1915DOPC   C3A22466  15.978  24.098  13.171  0.0324  0.1856  0.3153
 1915DOPC   C4A22467  16.000  24.268  13.629  0.3650  0.2669 -0.1736
 1915DOPC   C1B22468  16.070  23.715  12.015 -0.1080  0.1737 -0.1721
 1915DOPC   D2B22469  15.568  23.756  12.098  0.3440 -0.0167  0.1509
 1915DOPC   C3B22470  15.186  23.990  12.241 -0.1054  0.1220 -0.1852
 1915DOPC   C4B22471  14.938  23.876  12.656 -0.1035  0.2270  0.1737
 1916DOPE   NH322472  11.819  15.459  11.079 -0.0369 -0.2798  0.0893
 1916DOPE   PO422473  11.908  15.176  11.128 -0.1422  0.1596 -0.1607
 1916DOPE   GL122474  11.869  15.309  11.590  0.1967  0.1674  0.1964
 1916DOPE   GL222475  12.004  15.486  11.582 -0.1696 -0.1031 -0.0150
 1916DOPE   C1A22476  11.794  15.278  12.038  0.3497  0.1998  0.3051
 1916DOPE   D2A22477  11.614  15.276  12.473  0.1608  0.3972  0.0815
 1916DOPE   C3A22478  11.156  15.267  12.608  0.2304 -0.2590  0.0237
 1916DOPE   C4A22479  10.863  15.219  12.983 -0.3646  0.2683 -0.1221
 1916DOPE   C1B22480  12.278  15.521  11.998 -0.0185 -0.2699 -0.0724
 1916DOPE   D2B22481  12.176  15.450  12.469  0.0310  0.0637 -0.2698
 1916DOPE   C3B22482  12.073  15.063  12.570 -0.4489 -0.1361  0.4105
 1916DOPE   C4B22483  11.903  14.820  12.267 -0.2250 -0.1072 -0.1399
 1917DOPE   NH322484  17.610  18.302  11.032  0.0954 -0.0371  0.2308
 1917DOPE   PO422485  17.771  18.569  10.954  0.1886 -0.1011  0.3264
 1917DOPE   GL122486  17.634  18.706  11.306 -0.0817  0.1833  0.1817
 1917DOPE   GL222487  17.770  18.974  11.346  0.2481 -0.0909 -0.1765
 1917DOPE   C1A22488  17.257  18.682  11.518  0.0272  0.0264  0.0231
 1917DOPE   D2A22489  16.867  18.505  11.394 -0.0400  0.0617  0.1887
 1917DOPE   C3A22490  16.666  18.120  11.531  0.1832  0.0075  0.1425
 1917DOPE   C4A22491  16.861  17.680  11.523  0.2442 -0.1446  0.1074
 1917DOPE   C1B22492  17.368  19.142  11.286 -0.2214 -0.0812 -0.3014
 1917DOPE   D2B22493  16.920  18.945  11.213 -0.2877  0.0524  0.1204
 1917DOPE   C3B22494  16.534  18.954  11.500  0.3004  0.2609  0.2959
 1917DOPE   C4B22495  16.506  19.096  11.946 -0.1805  0.0540  0.2301
 1918POSM   NC322496  20.972  19.526  11.365 -0.3290  0.3789  0.0600
 1918POSM   PO422497  21.201  19.222  11.266 -0.0629 -0.0939 -0.2214
 1918POSM   AM122498  21.016  19.134  11.554  0.0072  0.3661  0.0375
 1918POSM   AM222499  20.868  18.928  11.674 -0.0257 -0.1171  0.3012
 1918POSM   T1A22500  21.012  19.246  12.011 -0.0348  0.0469 -0.3429
 1918POSM   C2A22501  20.900  19.444  12.448 -0.1741 -0.2091  0.1134
 1918POSM   C3A22502  20.969  19.441  12.874  0.3152  0.1738 -0.3117
 1918POSM   C1B22503  20.909  18.734  11.954 -0.1036 -0.0934  0.1953
 1918POSM   D2B22504  20.675  18.864  12.415  0.0522 -0.2611  0.0248
 1918POSM   C3B22505  20.393  19.256  12.366 -0.0661 -0.0223 -0.2409
 1918POSM   C4B22506  19.975  19.455  12.284 -0.0975 -0.0220  0.1676
 1919POSM   NC322507  22.178  22.324  12.635  0.2925 -0.0180 -0.1521
 1919POSM   PO422508  21.828  22.449  12.572  0.2427 -0.0868  0.2760
 1919POSM   AM122509  21.686  22.306  12.792  0.1450 -0.0766 -0.1517
 1919POSM   AM222510  21.732  22.077  12.973 -0.2697  0.0220 -0.3138
 1919POSM   T1A22511  21.225  22.202  12.958  0.2341 -0.2785  0.1760
 1919POSM   C2A22512  20.808  22.046  13.024 -0.0438  0.0499 -0.1243
 1919POSM   C3A22513  20.401  21.925  12.925 -0.1002  0.1627 -0.1884
 1919POSM   C1B22514  21.648  21.752  13.058 -0.0944 -0.0829  0.1321
 1919POSM   D2B22515  21.449  21.308  13.118 -0.3159  0.0310  0.0844
 1919POSM   C3B22516  21.696  20.917  13.114 -0.1102  0.0469  0.1170
 1919POSM   C4B22517  21.853  20.523  12.992  0.0281  0.2761 -0.4058
 1920DOPC   NC322518  11.082  15.381  12.131  0.2371  0.1965  0.0515
 1920DOPC   PO422519  11.067  15.698  11.925  0.0412 -0.1946 -0.1716
 1920DOPC   GL122520  11.312  15.943  12.221 -0.3400 -0.0232 -0.3534
 1920DOPC   GL222521  11.588  16.204  12.070 -0.0655  0.1962 -0.0581
 1920DOPC   C1A22522  11.468  15.803  12.653  0.0743  0.1790 -0.1432
 1920DOPC   D2A22523  11.777  15.477  12.864  0.0147  0.2066 -0.0569
 1920DOPC   C3A22524  11.553  15.032  12.916 -0.0432  0.0458 -0.0377
 1920DOPC   C4A22525  11.831  14.665  12.952 -0.1424  0.0612 -0.1402
 1920DOPC   C1B22526  11.622  16.659  12.047 -0.2357  0.4168  0.0922
 1920DOPC   D2B22527  11.922  16.927  12.020 -0.0218  0.1562 -0.3295
 1920DOPC   C3B22528  11.780  17.173  12.354  0.0455  0.0586 -0.1474
 1920DOPC   C4B22529  11.642  17.607  12.496 -0.2179 -0.2350 -0.0340
 1921DOPC   NC322530  16.452  22.608  12.342  0.1725  0.4970 -0.0592
 1921DOPC   PO422531  16.285  22.721  12.037  0.2723  0.1136  0.1451
 1921DOPC   GL122532  16.094  23.112  12.118 -0.0818  0.2339  0.0756
 1921DOPC   GL222533  16.129  23.047  12.454  0.0575  0.1595  0.0183
 1921DOPC   C1A22534  15.611  23.224  12.103  0.0265  0.2271 -0.1989
 1921DOPC   D2A22535  15.176  23.031  12.064  0.2129 -0.0395 -0.2201
 1921DOPC   C3A22536  15.014  22.687  12.203  0.4351  0.0434 -0.1134
 1921DOPC   C4A22537  15.005  22.226  12.249 -0.0958  0.1240  0.0663
 1921DOPC   C1B22538  15.925  22.605  12.552 -0.0299 -0.0892 -0.0847
 1921DOPC   D2B22539  15.526  22.331  12.433  0.0932 -0.0196  0.0238
 1921DOPC   C3B22540  15.219  22.519  12.763 -0.2698  0.0099 -0.0010
 1921DOPC   C4B22541  14.863  22.743  13.027 -0.2713  0.1261 -0.2092
 1922DOPC   NC322542  18.637  18.632  10.890  0.1444 -0.3164  0.0249
 1922DOPC   PO422543  18.758  18.725  11.250 -0.2236 -0.0173 -0.2532
 1922DOPC   GL122544  18.606  19.057  11.465  0.0057 -0.0148 -0.4193
 1922DOPC   GL222545  18.350  19.067  11.454 -0.1369  0.0841 -0.0162
 1922DOPC   C1A22546  18.611  19.366  11.831  0.0504  0.0245 -0.0774
 1922DOPC   D2A22547  18.492  19.603  12.199  0.0881 -0.0989  0.0187
 1922DOPC   C3A22548  18.032  19.463  12.318 -0.0850 -0.1905  0.1557
 1922DOPC   C4A22549  17.764  19.100  12.278  0.2323  0.2113 -0.0187
 1922DOPC   C1B22550  18.413  19.540  11.432  0.0764 -0.2067 -0.3605
 1922DOPC   D2B22551  18.089  19.843  11.278 -0.0377  0.1522 -0.0208
 1922DOPC   C3B22552  17.672  19.971  11.613 -0.0299 -0.2246  0.0884
 1922DOPC   C4B22553  17.285  20.048  11.835  0.0337  0.0714 -0.1259
 1923POSM   NC322554  13.379  14.818  10.065  0.1044 -0.0198 -0.2357
 1923POSM   PO422555  13.638  14.743  10.399  0.0585  0.0603 -0.0550
 1923POSM   AM122556  13.711  14.512  10.591  0.0896  0.1476 -0.0071
 1923POSM   AM222557  13.660  14.213  10.596  0.0196 -0.1915  0.0130
 1923POSM   T1A22558  14.032  14.269  10.859 -0.2262 -0.1040  0.1030
 1923POSM   C2A22559  14.342  14.259  11.191 -0.0474 -0.3020 -0.0876
 1923POSM   C3A22560  14.754  14.190  11.503  0.1880 -0.2164  0.0494
 1923POSM   C1B22561  13.351  14.182  10.777 -0.1275 -0.0543  0.0699
 1923POSM   D2B22562  13.148  14.015  11.152  0.0876  0.0965  0.2439
 1923POSM   C3B22563  13.281  13.683  10.874 -0.0517  0.1810 -0.1540
 1923POSM   C4B22564  13.659  13.457  10.760 -0.3401 -0.1967 -0.0134
 1924DOPC   NC322565  12.912  22.312  11.233 -0.1386 -0.2917 -0.1050
 1924DOPC   PO422566  13.117  22.578  11.458  0.1789  0.2064 -0.1874
 1924DOPC   GL122567  13.238  22.315  11.773  0.1536 -0.0813  0.2204
 1924DOPC   GL222568  13.558  22.369  11.657  0.0714 -0.0263  0.0787
 1924DOPC   C1A22569  13.507  22.047  12.040  0.3402  0.0285 -0.1893
 1924DOPC   D2A22570  13.709  21.814  12.470  0.0023  0.0065  0.1628
 1924DOPC   C3A22571  13.801  22.082  12.907  0.1879 -0.0350 -0.1333
 1924DOPC   C4A22572  13.684  21.901  13.282  0.3697  0.1079 -0.1092
 1924DOPC   C1B22573  14.020  22.479  11.570 -0.1139  0.1613  0.1340
 1924DOPC   D2B22574  14.346  22.351  11.733 -0.0187 -0.3630 -0.1751
 1924DOPC   C3B22575  14.450  22.527  12.133  0.0899  0.1664 -0.0638
 1924DOPC   C4B22576  14.670  22.543  12.556 -0.0574  0.1883  0.1825
 1925POSM   NC322577  22.818  16.109  12.281  0.0943  0.0241  0.1078
 1925POSM   PO422578  22.673  15.803  11.998 -0.2604 -0.1064 -0.0933
 1925POSM   AM122579  22.405  15.907  12.175 -0.1233  0.4182  0.2678
 1925POSM   AM222580  22.335  16.147  12.254 -0.4273  0.1935  0.0383
 1925POSM   T1A22581  22.066  15.738  12.533  0.2075 -0.1724  0.0185
 1925POSM   C2A22582  21.712  15.648  12.757  0.3222 -0.0252  0.0419
 1925POSM   C3A22583  21.599  16.068  12.924 -0.0114  0.0079 -0.1781
 1925POSM   C1B22584  22.394  16.338  12.534 -0.4527 -0.0236  0.0391
 1925POSM   D2B22585  22.540  16.720  12.807  0.0037 -0.0610  0.0556
 1925POSM   C3B22586  22.569  16.592  13.253 -0.0083  0.0976 -0.1745
 1925POSM   C4B22587  22.760  16.533  13.632  0.3333  0.3318 -0.0782
 1926DOPS   CNO22588  19.859  11.838  11.861  0.0301  0.0067 -0.1564
 1926DOPS   PO422589  20.163  12.058  11.977 -0.0347  0.2065 -0.2230
 1926DOPS   GL122590  20.210  12.351  12.090  0.1054  0.5863  0.1332
 1926DOPS   GL222591  19.964  12.487  12.053 -0.2458 -0.5078  0.0644
 1926DOPS   C1A22592  20.212  12.649  12.475 -0.0897 -0.2308  0.1898
 1926DOPS   D2A22593  20.457  12.643  12.826  0.0953 -0.2045  0.2350
 1926DOPS   C3A22594  20.570  12.951  13.181  0.1135  0.0472  0.0658
 1926DOPS   C4A22595  20.456  13.345  13.398 -0.0173  0.0830 -0.1901
 1926DOPS   C1B22596  20.006  12.981  12.035 -0.0359 -0.1786  0.1858
 1926DOPS   D2B22597  20.110  13.430  11.950  0.1321 -0.4232  0.1362
 1926DOPS   C3B22598  20.320  13.602  12.313  0.0692  0.3026 -0.0460
 1926DOPS   C4B22599  20.660  13.885  12.462  0.1498 -0.1724 -0.2192
 1927DOPC   NC322600  15.312  16.416  10.803  0.0547 -0.0152 -0.0125
 1927DOPC   PO422601  15.369  16.644  10.450  0.1396 -0.0057 -0.0792
 1927DOPC   GL122602  15.677  16.668  10.719 -0.1959  0.2131 -0.3136
 1927DOPC   GL222603  15.721  16.956  10.688  0.1985  0.1072  0.4139
 1927DOPC   C1A22604  15.822  16.285  10.991  0.0889 -0.1572  0.2569
 1927DOPC   D2A22605  16.233  16.127  11.131 -0.0575  0.0050  0.0400
 1927DOPC   C3A22606  16.224  16.198  11.560  0.0770  0.1432  0.0200
 1927DOPC   C4A22607  16.289  16.176  12.000  0.1397  0.0467 -0.0141
 1927DOPC   C1B22608  16.182  17.099  10.810  0.0547  0.3624 -0.1016
 1927DOPC   D2B22609  16.475  16.943  11.128  0.3953 -0.3663 -0.1227
 1927DOPC   C3B22610  16.293  17.199  11.529 -0.3403  0.0169  0.1535
 1927DOPC   C4B22611  15.932  17.472  11.687 -0.2534  0.0244 -0.0390
 1928DOPS   CNO22612  11.911  23.052  11.696  0.2140  0.3662  0.1272
 1928DOPS   PO422613  12.269  22.866  11.768 -0.1207 -0.0818 -0.0469
 1928DOPS   GL122614  12.281  22.559  12.219  0.1841 -0.2721 -0.1013
 1928DOPS   GL222615  12.427  22.742  12.455 -0.1952  0.1602  0.0359
 1928DOPS   C1A22616  12.409  22.223  12.482 -0.0804  0.2637 -0.0767
 1928DOPS   D2A22617  12.410  22.072  12.905  0.1101  0.2673 -0.2074
 1928DOPS   C3A22618  11.921  22.109  12.889  0.0913 -0.0395 -0.1062
 1928DOPS   C4A22619  11.498  22.150  13.202  0.0678 -0.2273  0.2937
 1928DOPS   C1B22620  12.419  22.549  12.882  0.0481 -0.0105  0.0079
 1928DOPS   D2B22621  12.347  22.532  13.307  0.3375 -0.0578  0.1625
 1928DOPS   C3B22622  12.287  22.214  13.591  0.5057 -0.1447  0.2995
 1928DOPS   C4B22623  12.506  21.867  13.729 -0.1213 -0.2879  0.0393
 1929DOPE   NH322624  16.030  20.759  11.306  0.0833  0.2288  0.0472
 1929DOPE   PO422625  15.968  21.051  11.451  0.0977  0.1958  0.0161
 1929DOPE   GL122626  15.955  20.973  11.830  0.2667  0.0756 -0.0594
 1929DOPE   GL222627  15.714  20.887  12.018 -0.1417 -0.0457 -0.1462
 1929DOPE   C1A22628  15.841  21.374  12.092  0.2703 -0.0087 -0.0208
 1929DOPE   D2A22629  15.687  21.499  12.473 -0.0925  0.1180  0.0647
 1929DOPE   C3A22630  15.834  21.921  12.559  0.0166 -0.1165  0.1563
 1929DOPE   C4A22631  15.828  22.254  12.920 -0.2018  0.3730 -0.2948
 1929DOPE   C1B22632  15.686  20.814  12.474  0.0630  0.1914 -0.1916
 1929DOPE   D2B22633  15.790  20.573  12.803 -0.1123 -0.1668  0.0523
 1929DOPE   C3B22634  16.245  20.535  12.798 -0.3706  0.2053  0.3605
 1929DOPE   C4B22635  16.586  20.203  12.723  0.1406 -0.2454 -0.1732
 1930DOPE   NH322636  22.745  14.357  12.323 -0.1353  0.2306  0.0058
 1930DOPE   PO422637  22.701  14.017  12.359 -0.0641  0.0680  0.1877
 1930DOPE   GL122638  22.439  13.943  12.600 -0.1928  0.1993 -0.2532
 1930DOPE   GL222639  22.228  13.901  12.426  0.1347  0.0871  0.1009
 1930DOPE   C1A22640  22.223  13.999  13.015 -0.2239  0.0267  0.0818
 1930DOPE   D2A22641  21.825  13.900  13.217  0.0282 -0.0333 -0.1673
 1930DOPE   C3A22642  21.474  13.733  12.991 -0.1151  0.0467 -0.1561
 1930DOPE   C4A22643  21.365  13.418  12.695  0.0168  0.0922 -0.0679
 1930DOPE   C1B22644  21.973  13.624  12.743  0.5561 -0.3450 -0.0457
 1930DOPE   D2B22645  21.906  13.432  13.122 -0.0725  0.2492 -0.1449
 1930DOPE   C3B22646  21.869  13.433  13.592 -0.2264  0.0430 -0.0088
 1930DOPE   C4B22647  21.621  13.277  13.906  0.2372  0.3272  0.0228
 1931DOPE   NH322648  18.022  14.615  10.622 -0.3222 -0.1730 -0.3408
 1931DOPE   PO422649  18.108  14.887  10.683  0.2307  0.0753 -0.0885
 1931DOPE   GL122650  18.047  14.930  11.071  0.2811  0.1705  0.2958
 1931DOPE   GL222651  18.216  14.846  11.200 -0.1026 -0.0744 -0.4730
 1931DOPE   C1A22652  18.065  15.321  11.300  0.1064  0.1282 -0.1963
 1931DOPE   D2A22653  18.257  15.733  11.451  0.2178  0.1006 -0.0639
 1931DOPE   C3A22654  18.436  15.804  11.877 -0.1784  0.0375  0.2225
 1931DOPE   C4A22655  18.295  15.486  12.248 -0.1617  0.1832 -0.0756
 1931DOPE   C1B22656  18.704  14.854  11.303 -0.1485 -0.1698  0.1097
 1931DOPE   D2B22657  19.139  14.759  11.309  0.2062 -0.4117 -0.0276
 1931DOPE   C3B22658  19.395  14.583  11.691  0.1219  0.3206  0.3229
 1931DOPE   C4B22659  19.642  14.369  11.984  0.0492  0.0339 -0.0867
 1932DOPC   NC322660  15.844  13.079  10.996 -0.1138 -0.0099  0.0655
 1932DOPC   PO422661  16.196  13.024  10.821  0.0814 -0.0424 -0.0059
 1932DOPC   GL122662  16.374  12.871  11.080  0.0736 -0.0394 -0.3599
 1932DOPC   GL222663  16.357  12.861  11.329  0.0425 -0.3579 -0.0198
 1932DOPC   C1A22664  16.861  12.892  11.157  0.0839  0.4421 -0.0910
 1932DOPC   D2A22665  17.194  12.695  10.907 -0.2231  0.0089 -0.0292
 1932DOPC   C3A22666  17.172  12.295  11.112 -0.0964 -0.1456  0.0957
 1932DOPC   C4A22667  16.813  12.003  10.981  0.0007  0.1957  0.2325
 1932DOPC   C1B22668  16.195  12.914  11.774  0.2798  0.1853  0.1007
 1932DOPC   D2B22669  16.312  13.218  12.095 -0.0171  0.1027 -0.3470
 1932DOPC   C3B22670  16.179  13.118  12.543 -0.3376 -0.1742  0.1270
 1932DOPC   C4B22671  16.097  12.725  12.688  0.1666 -0.0357 -0.2109
 1933DOPS   CNO22672  23.256  18.354  12.022 -0.2103 -0.1140  0.1504
 1933DOPS   PO422673  23.067  18.434  12.344 -0.0872 -0.0806  0.0340
 1933DOPS   GL122674  22.732  18.426  12.471  0.4572 -0.2569 -0.0954
 1933DOPS   GL222675  22.824  18.175  12.642 -0.2082 -0.0985  0.0598
 1933DOPS   C1A22676  22.343  18.328  12.209  0.2110 -0.1939 -0.0005
 1933DOPS   D2A22677  21.857  18.368  12.134 -0.1948 -0.0676 -0.0495
 1933DOPS   C3A22678  21.589  17.943  12.254 -0.3058 -0.0967 -0.0334
 1933DOPS   C4A22679  21.474  17.628  12.497 -0.1003 -0.2473  0.0322
 1933DOPS   C1B22680  22.461  17.937  12.470  0.0680 -0.0220 -0.2442
 1933DOPS   D2B22681  22.015  17.865  12.556  0.0646 -0.1202 -0.1630
 1933DOPS   C3B22682  21.647  18.120  12.716  0.1377  0.0126  0.2559
 1933DOPS   C4B22683  21.539  18.565  12.567  0.0442 -0.0059  0.2679
 1934DOPS   CNO22684  18.555  22.541  11.904  0.0280 -0.4454  0.2162
 1934DOPS   PO422685  18.647  22.487  12.282 -0.0235 -0.1111  0.2708
 1934DOPS   GL122686  18.714  22.223  12.512  0.0638 -0.1060 -0.0609
 1934DOPS   GL222687  18.580  22.026  12.598 -0.4513 -0.1100  0.0039
 1934DOPS   C1A22688  18.864  22.166  12.976  0.0237  0.2571 -0.0887
 1934DOPS   D2A22689  19.221  21.986  13.169  0.0858  0.0811 -0.0780
 1934DOPS   C3A22690  19.493  21.791  12.854 -0.1548  0.5663 -0.2497
 1934DOPS   C4A22691  19.561  21.597  12.434 -0.1315  0.1429  0.2358
 1934DOPS   C1B22692  18.485  21.788  12.950  0.1340 -0.1120 -0.1243
 1934DOPS   D2B22693  18.162  21.425  13.100  0.3534  0.0459 -0.1206
 1934DOPS   C3B22694  18.224  21.114  12.828  0.0574  0.1720  0.3410
 1934DOPS   C4B22695  18.293  20.815  12.496  0.0868 -0.0374 -0.1955
 1935DOPC   NC322696  17.925  22.172  12.453  0.3734 -0.0147  0.0411
 1935DOPC   PO422697  17.811  22.097  12.093 -0.1812  0.1599 -0.3746
 1935DOPC   GL122698  17.702  21.719  12.051  0.0701  0.1866  0.1264
 1935DOPC   GL222699  17.554  21.588  12.186  0.2345 -0.0053  0.3806
 1935DOPC   C1A22700  17.746  21.312  11.846  0.3985  0.2448 -0.1140
 1935DOPC   D2A22701  17.721  20.849  11.814 -0.0797  0.0812 -0.3497
 1935DOPC   C3A22702  17.805  20.536  12.160  0.0187  0.0725 -0.1656
 1935DOPC   C4A22703  18.075  20.310  12.514  0.0065  0.2799 -0.2016
 1935DOPC   C1B22704  17.286  21.542  11.820  0.0416  0.0058 -0.2941
 1935DOPC   D2B22705  17.082  21.192  11.568  0.0398 -0.0966 -0.6346
 1935DOPC   C3B22706  17.273  20.784  11.476  0.0555 -0.0684  0.1211
 1935DOPC   C4B22707  17.641  20.517  11.422  0.2440  0.1796  0.3550
 1936DOPS   CNO22708  13.397  15.546  10.584 -0.1402  0.0864 -0.1789
 1936DOPS   PO422709  13.156  15.560  10.853 -0.2713 -0.2233 -0.0048
 1936DOPS   GL122710  13.288  15.384  11.121  0.1100 -0.1447  0.1818
 1936DOPS   GL222711  13.649  15.510  11.067  0.0935  0.0206  0.1238
 1936DOPS   C1A22712  13.341  15.588  11.575  0.3601 -0.0039 -0.1679
 1936DOPS   D2A22713  13.382  15.342  11.956  0.0701  0.0577  0.0040
 1936DOPS   C3A22714  13.078  15.440  12.308  0.1323  0.0403 -0.1359
 1936DOPS   C4A22715  12.679  15.284  12.409 -0.1555 -0.0190 -0.0066
 1936DOPS   C1B22716  14.043  15.232  11.179  0.2282 -0.3587 -0.0733
 1936DOPS   D2B22717  14.386  14.902  11.212  0.3014 -0.0145  0.2930
 1936DOPS   C3B22718  14.679  14.677  11.484  0.1577  0.1234  0.2061
 1936DOPS   C4B22719  15.091  14.730  11.792 -0.1808 -0.0276  0.1444
 1937DOPS   CNO22720  16.446  19.517  10.902  0.0797 -0.0036 -0.0256
 1937DOPS   PO422721  16.087  19.689  10.889  0.0294  0.1387 -0.0393
 1937DOPS   GL122722  15.700  19.409  10.976 -0.0122 -0.1352 -0.1158
 1937DOPS   GL222723  15.481  19.430  10.808 -0.2306 -0.0052 -0.1778
 1937DOPS   C1A22724  15.738  18.956  10.956  0.0656  0.0610 -0.1643
 1937DOPS   D2A22725  15.657  18.454  10.855 -0.0597  0.3708 -0.1444
 1937DOPS   C3A22726  15.764  18.173  11.193 -0.0223  0.0932 -0.0302
 1937DOPS   C4A22727  15.644  17.716  11.307  0.1652  0.0732 -0.0107
 1937DOPS   C1B22728  15.132  19.140  10.632  0.0668 -0.2027 -0.2927
 1937DOPS   D2B22729  14.712  19.014  10.797 -0.0428  0.3540  0.1591
 1937DOPS   C3B22730  14.664  18.764  11.170  0.3644  0.2344 -0.0686
 1937DOPS   C4B22731  14.888  18.882  11.534 -0.2213  0.2428 -0.1285
 1938DOPC   NC322732  13.553  20.294  10.700 -0.0616 -0.0498 -0.1310
 1938DOPC   PO422733  13.668  20.330  11.074 -0.3986 -0.0540 -0.0722
 1938DOPC   GL122734  13.753  20.660  11.394 -0.2435  0.0340  0.0235
 1938DOPC   GL222735  13.657  20.800  11.212  0.0161 -0.5814 -0.2202
 1938DOPC   C1A22736  13.952  20.550  11.800 -0.2212  0.4735  0.1931
 1938DOPC   D2A22737  13.916  20.232  12.161 -0.1289 -0.0601 -0.0815
 1938DOPC   C3A22738  13.837  20.288  12.606 -0.0327 -0.1134 -0.0685
 1938DOPC   C4A22739  13.839  20.536  12.918 -0.1526  0.1217  0.0474
 1938DOPC   C1B22740  13.622  21.238  11.327  0.1517  0.0874  0.2119
 1938DOPC   D2B22741  13.378  21.486  11.665 -0.1766  0.0221  0.2959
 1938DOPC   C3B22742  13.588  21.546  12.041  0.2412 -0.1390 -0.0906
 1938DOPC   C4B22743  13.866  21.317  12.307 -0.0199  0.1394  0.1123
 1939DOPE   NH322744  21.838  11.436  12.497 -0.0195 -0.1702  0.1667
 1939DOPE   PO422745  21.819  11.763  12.562 -0.2137  0.1234  0.1557
 1939DOPE   GL122746  21.714  11.669  12.875 -0.0781 -0.0240 -0.2124
 1939DOPE   GL222747  21.795  11.948  13.025  0.1643  0.1052 -0.1743
 1939DOPE   C1A22748  21.592  11.353  13.201  0.3331  0.1014 -0.2724
 1939DOPE   D2A22749  21.318  11.251  13.509 -0.4242  0.2141  0.2534
 1939DOPE   C3A22750  21.459  10.873  13.717 -0.2218  0.0505 -0.1115
 1939DOPE   C4A22751  21.625  10.668  14.093 -0.0695 -0.1247 -0.1626
 1939DOPE   C1B22752  21.357  11.897  13.156  0.0813  0.0701  0.2279
 1939DOPE   D2B22753  21.093  11.872  13.483  0.0620  0.0893  0.2908
 1939DOPE   C3B22754  21.198  11.641  13.864 -0.0233 -0.1042 -0.0468
 1939DOPE   C4B22755  21.390  11.292  14.104  0.0868  0.0371 -0.0741
 1940DOPE   NH322756  12.285  23.199  12.154  0.1792 -0.0126 -0.1822
 1940DOPE   PO422757  12.046  23.379  12.073 -0.1794 -0.0061 -0.1051
 1940DOPE   GL122758  11.778  23.567  12.400 -0.0634 -0.1439 -0.0947
 1940DOPE   GL222759  12.023  23.460  12.581 -0.1235 -0.1459  0.0782
 1940DOPE   C1A22760  11.609  23.662  12.826 -0.2159 -0.1173  0.0229
 1940DOPE   D2A22761  11.373  23.790  13.219  0.1009  0.1521 -0.0533
 1940DOPE   C3A22762  11.416  23.579  13.632 -0.1096  0.0241 -0.2896
 1940DOPE   C4A22763  11.623  23.214  13.756  0.0153  0.2836  0.1130
 1940DOPE   C1B22764  12.427  23.266  12.689 -0.3670  0.1234 -0.2157
 1940DOPE   D2B22765  12.625  23.013  13.058 -0.0186 -0.1363  0.0478
 1940DOPE   C3B22766  12.892  22.585  13.087 -0.1247 -0.2744  0.3404
 1940DOPE   C4B22767  13.278  22.284  13.054 -0.0360  0.2636 -0.2762
 1941POSM   NC322768  17.023  13.873  10.730  0.3153 -0.3497  0.1927
 1941POSM   PO422769  17.181  13.898  11.074  0.1299 -0.0669  0.0026
 1941POSM   AM122770  17.320  13.917  11.365  0.1534  0.2911  0.1072
 1941POSM   AM222771  17.580  13.818  11.434  0.3857  0.0419  0.1954
 1941POSM   T1A22772  17.299  14.004  11.835  0.0221 -0.1946 -0.0367
 1941POSM   C2A22773  16.980  13.937  12.194 -0.2101 -0.0502  0.0130
 1941POSM   C3A22774  16.774  13.877  12.602 -0.1143  0.3484  0.3892
 1941POSM   C1B22775  17.577  13.597  11.718 -0.1578  0.0233 -0.1606
 1941POSM   D2B22776  17.274  13.412  12.031 -0.0596 -0.1805 -0.1675
 1941POSM   C3B22777  16.861  13.286  12.045 -0.0441 -0.1879  0.0280
 1941POSM   C4B22778  16.650  12.899  12.241 -0.1042  0.3518  0.0519
 1942DOPS   CNO22779  22.283  21.741  12.567 -0.1392  0.2917  0.1136
 1942DOPS   PO422780  21.941  21.909  12.517  0.1590  0.4812 -0.2433
 1942DOPS   GL122781  21.592  21.963  12.509 -0.1621  0.3481 -0.1967
 1942DOPS   GL222782  21.538  21.649  12.557  0.1271 -0.2188  0.0896
 1942DOPS   C1A22783  21.094  21.871  12.562  0.1062  0.1310  0.0383
 1942DOPS   D2A22784  20.690  21.611  12.648  0.3135  0.0950  0.0861
 1942DOPS   C3A22785  20.728  21.126  12.658  0.2562  0.1605  0.0712
 1942DOPS   C4A22786  20.927  20.763  12.838  0.1320  0.1979  0.1893
 1942DOPS   C1B22787  21.163  21.389  12.680 -0.1351 -0.0919 -0.2462
 1942DOPS   D2B22788  20.947  21.308  13.106  0.1463  0.1014  0.0102
 1942DOPS   C3B22789  20.683  21.561  13.438 -0.0838  0.1753  0.0083
 1942DOPS   C4B22790  20.328  21.895  13.464 -0.0598  0.0291  0.0118
 1943DOPC   NC322791  19.309  12.306  11.841 -0.0549 -0.0198 -0.0023
 1943DOPC   PO422792  19.408  11.996  11.577 -0.0367  0.1851  0.0614
 1943DOPC   GL122793  19.328  12.167  11.268 -0.1879  0.2634  0.0746
 1943DOPC   GL222794  19.381  12.195  10.951 -0.1551 -0.2812  0.3925
 1943DOPC   C1A22795  19.108  12.566  11.403  0.0996  0.1147  0.0698
 1943DOPC   D2A22796  18.726  12.692  11.664 -0.2956 -0.0784  0.0045
 1943DOPC   C3A22797  18.359  12.439  11.670 -0.0899  0.3231  0.0995
 1943DOPC   C4A22798  17.965  12.636  11.752  0.1249 -0.0896  0.3722
 1943DOPC   C1B22799  19.031  11.915  11.042  0.1629 -0.0697  0.1256
 1943DOPC   D2B22800  18.557  11.747  11.139 -0.1003 -0.1677  0.0846
 1943DOPC   C3B22801  18.253  11.958  11.421  0.0344 -0.2991  0.2235
 1943DOPC   C4B22802  17.931  12.055  11.748 -0.1511 -0.1261  0.0140
 1944DOPE   NH322803  10.967  15.273  11.499 -0.3356  0.0546 -0.1659
 1944DOPE   PO422804  11.019  14.993  11.576 -0.1399 -0.0772  0.0090
 1944DOPE   GL122805  11.053  14.793  11.906 -0.3824 -0.4116  0.1811
 1944DOPE   GL222806  10.898  14.862  12.161  0.1052 -0.1740 -0.0546
 1944DOPE   C1A22807  11.247  14.435  12.106  0.0469  0.0413  0.4958
 1944DOPE   D2A22808  11.243  14.194  12.471 -0.1246  0.3621 -0.2048
 1944DOPE   C3A22809  11.352  14.383  12.877  0.0869 -0.1117 -0.0829
 1944DOPE   C4A22810  11.569  14.415  13.302 -0.1769  0.4130  0.3005
 1944DOPE   C1B22811  10.924  14.770  12.563 -0.1361  0.1339  0.0640
 1944DOPE   D2B22812  11.148  14.801  12.980  0.0669 -0.0749 -0.1082
 1944DOPE   C3B22813  11.030  15.008  13.362  0.1977  0.1365 -0.0116
 1944DOPE   C4B22814  10.703  15.253  13.469 -0.0238 -0.2023  0.0894
 1945DOPS   CNO22815  17.720  14.282  10.425 -0.0203 -0.0715 -0.0984
 1945DOPS   PO422816  17.651  13.927  10.556  0.1546  0.1500  0.1227
 1945DOPS   GL122817  17.459  13.662  10.774 -0.2521  0.3857 -0.1550
 1945DOPS   GL222818  17.580  13.597  10.950 -0.0685 -0.0076 -0.1747
 1945DOPS   C1A22819  17.532  13.162  10.800 -0.2109 -0.2474 -0.0342
 1945DOPS   D2A22820  17.794  12.775  10.731  0.2219  0.2382  0.2889
 1945DOPS   C3A22821  17.677  12.377  10.745  0.1775  0.1918  0.1107
 1945DOPS   C4A22822  17.847  12.064  11.038  0.0403 -0.1314  0.1898
 1945DOPS   C1B22823  17.758  13.293  11.248 -0.0603  0.0271 -0.1641
 1945DOPS   D2B22824  17.760  12.898  11.379 -0.1362 -0.0663 -0.1839
 1945DOPS   C3B22825  17.835  12.527  11.169 -0.2968 -0.0213  0.1095
 1945DOPS   C4B22826  18.254  12.310  11.002  0.2793  0.1690 -0.0446
 1946DOPS   CNO22827  21.650  19.124  11.459 -0.1476 -0.1232  0.1009
 1946DOPS   PO422828  21.512  19.379  11.693  0.0332  0.1629  0.3513
 1946DOPS   GL122829  21.526  19.627  11.982 -0.2266  0.1419 -0.0407
 1946DOPS   GL222830  21.270  19.723  11.943 -0.1863 -0.0560 -0.2062
 1946DOPS   C1A22831  21.679  20.118  11.965 -0.3913 -0.1460 -0.2422
 1946DOPS   D2A22832  21.698  20.517  12.273 -0.0024 -0.1856 -0.1728
 1946DOPS   C3A22833  22.064  20.566  12.585 -0.0094 -0.0780 -0.2440
 1946DOPS   C4A22834  22.469  20.513  12.808 -0.1340 -0.0797 -0.4300
 1946DOPS   C1B22835  20.866  19.974  11.812  0.2155  0.0778  0.1459
 1946DOPS   D2B22836  20.749  20.350  11.580 -0.0209  0.2978 -0.1492
 1946DOPS   C3B22837  20.625  20.684  11.935  0.2846 -0.0298  0.0173
 1946DOPS   C4B22838  20.182  20.887  12.020 -0.3047  0.0496  0.2540
 1947DOPE   NH322839  11.894  22.756  12.069  0.3578  0.3329  0.0260
 1947DOPE   PO422840  11.950  22.901  12.349  0.1382  0.0077  0.0302
 1947DOPE   GL122841  11.951  22.600  12.625 -0.0789 -0.1415 -0.1914
 1947DOPE   GL222842  11.849  22.371  12.462  0.0633  0.2307  0.3783
 1947DOPE   C1A22843  11.929  22.564  13.099 -0.0587  0.3745  0.0459
 1947DOPE   D2A22844  11.976  22.751  13.493 -0.1053 -0.2337 -0.1716
 1947DOPE   C3A22845  12.020  22.538  13.911 -0.2491  0.0400  0.1387
 1947DOPE   C4A22846  11.970  22.243  14.322  0.0273 -0.1264 -0.0309
 1947DOPE   C1B22847  11.486  22.309  12.721 -0.0584 -0.0411  0.0218
 1947DOPE   D2B22848  11.129  22.039  12.813  0.3163 -0.1222 -0.1951
 1947DOPE   C3B22849  10.686  22.014  12.861  0.1488  0.1473 -0.0286
 1947DOPE   C4B22850  10.421  22.220  13.163  0.0552  0.2308  0.2437
 1948DOPE   NH322851  15.424  17.152  10.192 -0.1040  0.1346 -0.0515
 1948DOPE   PO422852  15.350  17.375  10.414  0.1774  0.0216  0.2216
 1948DOPE   GL122853  15.310  17.314  10.816 -0.2621 -0.2592 -0.2112
 1948DOPE   GL222854  15.263  17.023  10.907 -0.0786  0.0223  0.1079
 1948DOPE   C1A22855  15.681  17.250  11.078 -0.0769 -0.0376 -0.0196
 1948DOPE   D2A22856  16.089  17.445  11.155 -0.1353  0.1355 -0.2995
 1948DOPE   C3A22857  16.238  17.905  11.279 -0.1743 -0.2945 -0.2776
 1948DOPE   C4A22858  16.120  18.128  11.739 -0.2181 -0.0363  0.3025
 1948DOPE   C1B22859  15.559  16.786  11.177  0.0172 -0.0649  0.2322
 1948DOPE   D2B22860  16.040  16.686  11.181  0.0087 -0.2522 -0.1788
 1948DOPE   C3B22861  16.214  16.717  11.520  0.0932  0.1951 -0.0909
 1948DOPE   C4B22862  16.111  16.692  11.959 -0.0140 -0.2962 -0.2607
 1949POSM   NC322863  22.791  11.614  12.761  0.2609 -0.3253 -0.1026
 1949POSM   PO422864  22.647  11.935  12.545 -0.0642  0.3426 -0.3360
 1949POSM   AM122865  22.450  12.035  12.804 -0.0665 -0.2357 -0.2405
 1949POSM   AM222866  22.210  12.161  12.834  0.0974  0.1153  0.0117
 1949POSM   T1A22867  22.249  11.947  13.266 -0.3026  0.1823 -0.1668
 1949POSM   C2A22868  22.037  11.974  13.596 -0.0280  0.0396 -0.0142
 1949POSM   C3A22869  21.804  12.279  13.866  0.0660 -0.3485 -0.2032
 1949POSM   C1B22870  22.070  12.358  12.998  0.0142  0.1435 -0.0307
 1949POSM   D2B22871  21.778  12.420  13.389 -0.1527 -0.0651  0.4602
 1949POSM   C3B22872  21.988  12.680  13.682 -0.1965 -0.0594 -0.1005
 1949POSM   C4B22873  22.115  13.096  13.866 -0.4301  0.1445 -0.0267
 1950DOPC   NC322874  19.460  16.234  10.844 -0.0148 -0.1770 -0.1208
 1950DOPC   PO422875  19.091  16.081  11.000 -0.2284  0.2164 -0.1578
 1950DOPC   GL122876  19.019  16.231  11.284 -0.0124 -0.1801  0.0744
 1950DOPC   GL222877  18.802  16.411  11.326  0.1426  0.1299  0.1643
 1950DOPC   C1A22878  18.883  16.045  11.682  0.0945 -0.0279 -0.0845
 1950DOPC   D2A22879  18.833  15.857  12.095 -0.1406  0.1214 -0.3926
 1950DOPC   C3A22880  19.079  15.511  11.902 -0.0736 -0.1303 -0.2969
 1950DOPC   C4A22881  19.411  15.222  11.816  0.2614 -0.0350  0.1471
 1950DOPC   C1B22882  18.499  16.289  11.597 -0.1709  0.0452  0.1699
 1950DOPC   D2B22883  18.402  16.304  12.036  0.1037 -0.2588  0.0732
 1950DOPC   C3B22884  18.647  16.386  12.441  0.0254 -0.1761 -0.0624
 1950DOPC   C4B22885  18.785  16.814  12.627 -0.2019 -0.0866 -0.0709
 1951DOPC   NC322886  14.250  16.059  10.737 -0.0346 -0.1437  0.1087
 1951DOPC   PO422887  14.452  16.290  10.517 -0.3868  0.0760 -0.0854
 1951DOPC   GL122888  14.659  16.241  10.823  0.0526  0.1223  0.1915
 1951DOPC   GL222889  14.914  16.135  10.859  0.1243  0.2418  0.2228
 1951DOPC   C1A22890  14.514  16.178  11.235 -0.0654  0.1252  0.3748
 1951DOPC   D2A22891  14.761  15.859  11.481  0.1113  0.2843 -0.1303
 1951DOPC   C3A22892  15.081  15.765  11.780  0.0597  0.0335 -0.1978
 1951DOPC   C4A22893  15.185  15.260  11.835 -0.2708 -0.0387 -0.0550
 1951DOPC   C1B22894  15.001  16.277  11.285  0.0242 -0.0471 -0.0836
 1951DOPC   D2B22895  15.190  16.630  11.522 -0.1941  0.0012  0.2500
 1951DOPC   C3B22896  14.968  16.880  11.855 -0.0079  0.1178 -0.1545
 1951DOPC   C4B22897  14.829  17.141  12.257 -0.0733 -0.3162  0.1366
 1952DOPE   NH322898  21.347  22.353  12.454 -0.3131 -0.3556 -0.4133
 1952DOPE   PO422899  21.281  22.342  12.141  0.0513 -0.2764  0.0471
 1952DOPE   GL122900  21.036  22.625  12.237 -0.0027  0.0334 -0.0258
 1952DOPE   GL222901  20.764  22.655  12.323 -0.0728 -0.3495 -0.0390
 1952DOPE   C1A22902  21.061  22.957  12.570 -0.3394 -0.1517 -0.1042
 1952DOPE   D2A22903  21.328  23.319  12.678  0.2887  0.3776 -0.0991
 1952DOPE   C3A22904  21.182  23.678  13.005 -0.1994 -0.0725  0.0823
 1952DOPE   C4A22905  21.056  23.529  13.412  0.1222 -0.0840  0.0097
 1952DOPE   C1B22906  20.832  22.524  12.753 -0.3350 -0.1238  0.0493
 1952DOPE   D2B22907  20.971  22.527  13.215  0.1670 -0.0737 -0.0535
 1952DOPE   C3B22908  21.292  22.298  13.463  0.0369  0.2391 -0.1912
 1952DOPE   C4B22909  21.778  22.276  13.453  0.1649 -0.2652  0.0483
 1953POSM   NC322910  22.568  22.337  12.307  0.1709 -0.3478  0.0101
 1953POSM   PO422911  22.689  22.631  12.524  0.0914  0.0628  0.0338
 1953POSM   AM122912  22.558  22.516  12.833 -0.2544 -0.0435  0.2808
 1953POSM   AM222913  22.567  22.524  13.128  0.0817 -0.1201 -0.2631
 1953POSM   T1A22914  22.292  22.101  13.030  0.0584  0.0762  0.0962
 1953POSM   C2A22915  22.164  21.678  13.064  0.4899  0.0799 -0.3738
 1953POSM   C3A22916  21.855  21.357  12.846  0.1047  0.0253  0.0053
 1953POSM   C1B22917  22.565  22.806  13.359  0.1209 -0.0608 -0.0448
 1953POSM   D2B22918  22.721  23.021  13.764 -0.2671  0.0226 -0.0019
 1953POSM   C3B22919  22.537  23.389  13.876  0.4173 -0.2132 -0.1383
 1953POSM   C4B22920  22.097  23.506  13.926  0.2754  0.6292  0.2495
 1954DOPE   NH322921  18.317  17.933  11.438  0.0158  0.0046  0.2207
 1954DOPE   PO422922  18.097  18.066  11.271  0.0334  0.1374 -0.0332
 1954DOPE   GL122923  17.958  18.133  11.636  0.1108  0.0132  0.3086
 1954DOPE   GL222924  18.153  18.165  11.880  0.3851 -0.1237  0.0699
 1954DOPE   C1A22925  17.548  18.292  11.628  0.0442  0.2549  0.0687
 1954DOPE   D2A22926  17.179  18.053  11.468 -0.3530 -0.0983 -0.2989
 1954DOPE   C3A22927  17.020  18.076  11.036  0.2268  0.1296  0.2536
 1954DOPE   C4A22928  16.634  18.023  10.865  0.2888  0.2658  0.3938
 1954DOPE   C1B22929  17.802  18.292  12.133 -0.0813 -0.3700 -0.0267
 1954DOPE   D2B22930  17.512  18.644  12.155 -0.2806 -0.6254 -0.1357
 1954DOPE   C3B22931  17.356  18.860  12.542 -0.0939 -0.2494  0.0188
 1954DOPE   C4B22932  17.712  19.043  12.829  0.1724  0.0281  0.2894
 1955DOPC   NC322933  19.168  17.993  12.374  0.1999 -0.0874 -0.0410
 1955DOPC   PO422934  19.338  18.169  12.112 -0.0222 -0.1727 -0.0670
 1955DOPC   GL122935  19.571  17.832  12.082 -0.0603 -0.1602 -0.2550
 1955DOPC   GL222936  19.342  17.555  12.058 -0.2098  0.0967 -0.1882
 1955DOPC   C1A22937  19.753  17.572  12.527  0.3280  0.5251 -0.1593
 1955DOPC   D2A22938  20.071  17.533  12.918  0.0150  0.0895 -0.1937
 1955DOPC   C3A22939  20.335  17.169  12.910 -0.1006 -0.2237 -0.0021
 1955DOPC   C4A22940  20.614  16.785  12.926 -0.2420  0.1207 -0.0043
 1955DOPC   C1B22941  19.066  17.227  11.984  0.0799  0.5398 -0.0704
 1955DOPC   D2B22942  18.847  16.841  12.180 -0.1733  0.0068 -0.0668
 1955DOPC   C3B22943  18.385  16.770  12.212  0.2621 -0.5629  0.2494
 1955DOPC   C4B22944  17.976  16.578  12.225  0.1786  0.0104 -0.0866
 1956DOPS   CNO22945  13.098  10.669  11.207  0.2184 -0.0063  0.3009
 1956DOPS   PO422946  13.273  10.980  11.093  0.0875 -0.2193  0.1286
 1956DOPS   GL122947  13.019  11.104  11.309 -0.3175 -0.0166 -0.0175
 1956DOPS   GL222948  13.141  11.356  11.442 -0.2257 -0.2065 -0.2439
 1956DOPS   C1A22949  12.621  11.335  11.275 -0.2130 -0.0299 -0.3687
 1956DOPS   D2A22950  12.373  11.716  11.144 -0.2111  0.0540 -0.1994
 1956DOPS   C3A22951  11.974  11.901  11.388 -0.2997  0.1481 -0.2224
 1956DOPS   C4A22952  11.721  11.758  11.744 -0.0735 -0.0692  0.2095
 1956DOPS   C1B22953  12.848  11.683  11.599  0.2907 -0.0115  0.1310
 1956DOPS   D2B22954  12.523  12.071  11.525  0.0392 -0.1442 -0.0456
 1956DOPS   C3B22955  12.544  12.379  11.882  0.2050 -0.1896  0.1115
 1956DOPS   C4B22956  12.755  12.603  12.171  0.1359 -0.0805 -0.0999
 1957DOPE   NH322957  15.540  20.712  11.591 -0.0276 -0.1214 -0.1187
 1957DOPE   PO422958  15.371  20.936  11.437  0.3193  0.2096 -0.2278
 1957DOPE   GL122959  15.513  21.203  11.669 -0.0896  0.3186  0.2247
 1957DOPE   GL222960  15.661  21.449  11.553  0.4301  0.2737 -0.2861
 1957DOPE   C1A22961  15.289  21.527  11.930 -0.0233  0.0512 -0.1494
 1957DOPE   D2A22962  14.943  21.565  12.213 -0.2442 -0.1399 -0.0246
 1957DOPE   C3A22963  14.669  21.245  12.396 -0.0421 -0.0358  0.0460
 1957DOPE   C4A22964  14.406  20.860  12.485 -0.0040 -0.1010  0.1031
 1957DOPE   C1B22965  15.781  21.828  11.757  0.1955 -0.3450  0.2144
 1957DOPE   D2B22966  15.481  22.145  11.973  0.1221  0.3873  0.0275
 1957DOPE   C3B22967  15.597  22.614  12.037  0.3176  0.0511  0.1649
 1957DOPE   C4B22968  15.490  22.813  12.455  0.0698 -0.3023  0.1467
 1958DOPE   NH322969  13.319  16.041  10.668  0.1588 -0.1923 -0.1206
 1958DOPE   PO422970  13.622  16.054  10.757  0.0390  0.4820 -0.1868
 1958DOPE   GL122971  13.897  16.033  11.145 -0.1812 -0.2098  0.1198
 1958DOPE   GL222972  13.728  16.210  11.359 -0.2270  0.0917  0.2381
 1958DOPE   C1A22973  14.217  15.775  11.238  0.1357  0.7512  0.2415
 1958DOPE   D2A22974  14.575  15.598  11.057  0.1715 -0.0819 -0.1674
 1958DOPE   C3A22975  14.738  15.288  11.391 -0.0785  0.0346  0.1169
 1958DOPE   C4A22976  14.400  15.160  11.721  0.0061  0.0512  0.0834
 1958DOPE   C1B22977  13.794  15.890  11.600 -0.1624  0.2535 -0.0319
 1958DOPE   D2B22978  13.861  15.488  11.693 -0.2417  0.0095 -0.0881
 1958DOPE   C3B22979  13.675  15.086  11.592  0.1021 -0.1883  0.0455
 1958DOPE   C4B22980  13.196  15.090  11.412  0.0368 -0.0628  0.1708
 1959DOPS   CNO22981  22.990  22.415  12.821  0.3087  0.2304 -0.1277
 1959DOPS   PO422982  23.116  22.688  13.071  0.0730  0.1427  0.1619
 1959DOPS   GL122983  23.163  22.744  13.451  0.1192 -0.0237 -0.0202
 1959DOPS   GL222984  22.954  22.482  13.506 -0.1266  0.1155  0.0057
 1959DOPS   C1A22985  23.385  23.049  13.839 -0.1583  0.1774 -0.1351
 1959DOPS   D2A22986  23.649  22.976  14.201 -0.0863 -0.3856 -0.0688
 1959DOPS   C3A22987  23.727  23.384  14.394 -0.1420  0.1530 -0.2872
 1959DOPS   C4A22988  23.487  23.792  14.389  0.1016  0.0979  0.2502
 1959DOPS   C1B22989  23.017  22.647  13.895  0.0990  0.1350  0.2009
 1959DOPS   D2B22990  22.998  23.073  14.174  0.0484 -0.2758  0.2744
 1959DOPS   C3B22991  22.987  23.543  14.071 -0.3281 -0.0393 -0.0687
 1959DOPS   C4B22992  22.819  23.880  13.835 -0.1821 -0.0095 -0.1597
 1960DOPE   NH322993  23.214  14.786  12.707 -0.2152  0.0054  0.4218
 1960DOPE   PO422994  23.028  14.564  12.691 -0.1999  0.1866 -0.0054
 1960DOPE   GL122995  22.688  14.445  12.819 -0.5727  0.3291 -0.0082
 1960DOPE   GL222996  22.683  14.196  12.972 -0.0965  0.1228 -0.1015
 1960DOPE   C1A22997  22.288  14.347  12.692 -0.1778 -0.3943 -0.0359
 1960DOPE   D2A22998  21.875  14.165  12.602  0.0841  0.0154  0.0396
 1960DOPE   C3A22999  21.862  14.155  12.138 -0.0196 -0.0002  0.2996
 1960DOPE   C4A23000  21.664  14.314  11.771 -0.0107 -0.0730 -0.1923
 1960DOPE   C1B23001  22.771  13.858  13.329 -0.1342 -0.1370 -0.1492
 1960DOPE   D2B23002  23.041  13.619  13.642 -0.0622  0.1936 -0.0348
 1960DOPE   C3B23003  22.861  13.464  14.010 -0.0094 -0.1018  0.0123
 1960DOPE   C4B23004  22.834  13.357  14.446  0.0263 -0.1071 -0.0947
 1961DOPS   CNO23005  16.148  12.150  10.477  0.0690  0.2305 -0.0701
 1961DOPS   PO423006  16.051  12.549  10.518 -0.1357  0.2425  0.0522
 1961DOPS   GL123007  16.023  12.601  10.936  0.2296 -0.1282  0.3552
 1961DOPS   GL223008  16.226  12.394  11.084  0.1263  0.0630  0.0264
 1961DOPS   C1A23009  15.867  12.767  11.376 -0.0559 -0.2653 -0.1783
 1961DOPS   D2A23010  15.717  13.026  11.709  0.1304  0.4423 -0.0492
 1961DOPS   C3A23011  15.829  13.433  11.929 -0.1936  0.2094 -0.0266
 1961DOPS   C4A23012  16.116  13.719  12.052 -0.0714  0.2217 -0.2096
 1961DOPS   C1B23013  16.642  12.353  11.263  0.0819  0.2916 -0.0632
 1961DOPS   D2B23014  16.807  12.448  11.675  0.0049 -0.0454  0.1106
 1961DOPS   C3B23015  16.489  12.447  11.983 -0.1193  0.0755  0.1163
 1961DOPS   C4B23016  16.173  12.658  12.239  0.0147 -0.1485 -0.0894
 1962DOPS   CNO23017  22.238  12.739  12.699 -0.0205 -0.4227 -0.1729
 1962DOPS   PO423018  22.326  12.602  12.365  0.0645 -0.0974  0.1200
 1962DOPS   GL123019  22.696  12.399  12.352  0.1423  0.0768 -0.4369
 1962DOPS   GL223020  22.684  12.539  12.676 -0.3074  0.1075 -0.1144
 1962DOPS   C1A23021  23.122  12.286  12.575  0.0668  0.2656 -0.0588
 1962DOPS   D2A23022  23.141  11.980  12.897  0.3762  0.2541 -0.1507
 1962DOPS   C3A23023  22.772  12.017  13.269  0.0536  0.1937  0.0189
 1962DOPS   C4A23024  22.541  11.913  13.676  0.4127  0.3063 -0.1928
 1962DOPS   C1B23025  22.537  12.415  13.105 -0.0275  0.0458 -0.3648
 1962DOPS   D2B23026  22.295  12.369  13.499 -0.2350 -0.1598  0.2933
 1962DOPS   C3B23027  22.443  12.700  13.820  0.0012  0.1715  0.3236
 1962DOPS   C4B23028  22.625  13.122  13.733 -0.0913 -0.1162  0.2703
 1963DOPC   NC323029  15.154  12.889  11.458 -0.2194 -0.0938  0.1317
 1963DOPC   PO423030  15.329  13.026  11.106 -0.0274 -0.1067 -0.4205
 1963DOPC   GL123031  15.283  13.258  11.236 -0.3405 -0.3620  0.3611
 1963DOPC   GL223032  15.059  13.444  11.237 -0.1086 -0.0341 -0.1731
 1963DOPC   C1A23033  15.340  13.388  11.675  0.1400  0.4384  0.1749
 1963DOPC   D2A23034  15.393  13.205  12.101 -0.0179 -0.2852  0.4822
 1963DOPC   C3A23035  15.336  12.934  12.436  0.1532  0.4386  0.0741
 1963DOPC   C4A23036  15.073  12.636  12.590  0.0608 -0.0921 -0.2824
 1963DOPC   C1B23037  14.810  13.640  11.538  0.0139 -0.2167 -0.1289
 1963DOPC   D2B23038  14.703  13.960  11.893 -0.1791  0.0073  0.1370
 1963DOPC   C3B23039  15.004  13.994  12.235  0.0825 -0.1231  0.1564
 1963DOPC   C4B23040  15.388  13.983  12.476 -0.1259  0.0771 -0.2801
 1964DOPC   NC323041  21.524  18.639  11.408 -0.1991 -0.0342 -0.2233
 1964DOPC   PO423042  21.856  18.562  11.601  0.0785  0.4151  0.2534
 1964DOPC   GL123043  21.545  18.669  11.933  0.1274 -0.0198 -0.2352
 1964DOPC   GL223044  21.426  18.963  11.934  0.0768 -0.1745  0.2060
 1964DOPC   C1A23045  21.332  18.399  12.165  0.1446 -0.0394 -0.3023
 1964DOPC   D2A23046  21.120  17.996  12.348  0.2612  0.0011  0.0165
 1964DOPC   C3A23047  20.687  18.028  12.514 -0.1213  0.2639 -0.0184
 1964DOPC   C4A23048  20.500  17.674  12.667  0.4186  0.1805  0.2189
 1964DOPC   C1B23049  21.205  18.925  12.301 -0.1983  0.2459 -0.1149
 1964DOPC   D2B23050  21.060  18.926  12.729  0.1916  0.0228  0.2736
 1964DOPC   C3B23051  20.694  19.007  12.903 -0.0654  0.0552 -0.0804
 1964DOPC   C4B23052  20.408  19.310  12.951  0.2471  0.1292  0.0080
 1965DOPE   NH323053  17.363  14.342  10.870  0.2039  0.0829 -0.2044
 1965DOPE   PO423054  17.415  14.322  11.221  0.2667 -0.4565  0.2676
 1965DOPE   GL123055  17.801  14.237  11.370  0.1984  0.1258 -0.2086
 1965DOPE   GL223056  17.840  14.509  11.458 -0.0713 -0.1567  0.2018
 1965DOPE   C1A23057  18.215  14.105  11.636  0.2145  0.1027 -0.6067
 1965DOPE   D2A23058  18.654  14.198  11.739 -0.1069 -0.1817  0.0872
 1965DOPE   C3A23059  18.862  14.579  11.688 -0.0785 -0.2755  0.0082
 1965DOPE   C4A23060  18.979  15.036  11.688  0.2489  0.2347  0.0350
 1965DOPE   C1B23061  17.889  14.944  11.601 -0.0355  0.1510 -0.3070
 1965DOPE   D2B23062  17.571  15.277  11.434  0.1299  0.0910 -0.2005
 1965DOPE   C3B23063  17.597  15.728  11.494  0.0437  0.1114 -0.2250
 1965DOPE   C4B23064  17.338  15.915  11.752 -0.1990  0.0194 -0.4185
 1966DOPC   NC323065  22.281  23.139  12.486  0.0084  0.0480 -0.2177
 1966DOPC   PO423066  22.196  22.820  12.731 -0.1699  0.0199  0.0179
 1966DOPC   GL123067  22.168  22.751  13.090  0.2507 -0.0522  0.0811
 1966DOPC   GL223068  22.018  22.504  13.065  0.0002  0.1307  0.1246
 1966DOPC   C1A23069  21.822  22.885  13.278  0.2904  0.1951 -0.2221
 1966DOPC   D2A23070  21.459  23.203  13.227 -0.0124 -0.0634  0.1542
 1966DOPC   C3A23071  21.007  23.159  13.095 -0.2459 -0.1630 -0.1503
 1966DOPC   C4A23072  20.609  22.897  13.044 -0.1336  0.0543 -0.0712
 1966DOPC   C1B23073  22.214  22.514  13.486 -0.3045 -0.0873 -0.0281
 1966DOPC   D2B23074  22.557  22.549  13.822  0.0381 -0.1471  0.0838
 1966DOPC   C3B23075  22.626  22.697  14.235 -0.2359  0.1484  0.1608
 1966DOPC   C4B23076  22.883  22.815  14.651  0.1125  0.1341  0.2063
 1967POSM   NC323077  16.406  14.119  10.924 -0.0932 -0.2817  0.2399
 1967POSM   PO423078  16.608  13.832  11.063  0.0737 -0.0711  0.0234
 1967POSM   AM123079  16.763  13.784  11.372  0.1147  0.6050  0.3928
 1967POSM   AM223080  16.938  13.662  11.496  0.2232  0.3050  0.0161
 1967POSM   T1A23081  16.634  13.688  11.878  0.0572 -0.0818 -0.0698
 1967POSM   C2A23082  16.623  13.526  12.371  0.0922 -0.1192  0.2212
 1967POSM   C3A23083  16.655  13.264  12.778  0.2578  0.1432  0.1002
 1967POSM   C1B23084  16.956  13.349  11.540  0.1308  0.1154  0.0285
 1967POSM   D2B23085  17.300  13.080  11.516 -0.2161  0.2314  0.0324
 1967POSM   C3B23086  17.322  12.636  11.523 -0.0645 -0.1586  0.3882
 1967POSM   C4B23087  17.317  12.202  11.590  0.0177 -0.0665 -0.0115
 1968DOPC   NC323088  14.923  20.661  10.931 -0.3416 -0.2104  0.4661
 1968DOPC   PO423089  14.695  20.487  11.213 -0.2913 -0.3843  0.0587
 1968DOPC   GL123090  14.598  20.733  11.441 -0.0574  0.4688 -0.0487
 1968DOPC   GL223091  14.416  20.488  11.613  0.1503 -0.1230 -0.2850
 1968DOPC   C1A23092  14.627  20.830  11.930 -0.1394  0.0394 -0.1303
 1968DOPC   D2A23093  14.857  20.812  12.300  0.0311  0.0384  0.1000
 1968DOPC   C3A23094  14.818  20.390  12.386 -0.0495  0.1379 -0.0147
 1968DOPC   C4A23095  14.736  20.071  12.677  0.1929  0.1548  0.1987
 1968DOPC   C1B23096  14.359  20.438  12.043  0.2768 -0.1943 -0.1032
 1968DOPC   D2B23097  14.315  20.395  12.521  0.3136 -0.1037 -0.1300
 1968DOPC   C3B23098  14.629  20.552  12.833 -0.3903 -0.2641 -0.2423
 1968DOPC   C4B23099  14.909  20.760  13.235  0.0907  0.2829 -0.0595
 1969DOPC   NC323100  17.330  22.587  11.472  0.0688 -0.0212  0.0427
 1969DOPC   PO423101  17.650  22.405  11.610  0.0034 -0.2208 -0.1400
 1969DOPC   GL123102  17.783  22.067  11.638  0.3976 -0.1845 -0.2232
 1969DOPC   GL223103  17.670  21.830  11.450 -0.1622  0.0394  0.3381
 1969DOPC   C1A23104  18.226  21.884  11.556  0.2647  0.2038 -0.0977
 1969DOPC   D2A23105  18.546  21.532  11.477 -0.3340 -0.0326 -0.1031
 1969DOPC   C3A23106  18.283  21.257  11.731 -0.0561  0.2818 -0.0026
 1969DOPC   C4A23107  18.143  21.002  12.064 -0.1795 -0.5412 -0.0934
 1969DOPC   C1B23108  17.887  21.437  11.358  0.0566 -0.1202 -0.2312
 1969DOPC   D2B23109  17.972  21.008  11.284 -0.0549  0.2512  0.3633
 1969DOPC   C3B23110  18.076  20.644  11.554  0.2356  0.1702  0.1370
 1969DOPC   C4B23111  18.084  20.168  11.608 -0.0571  0.0074  0.1843
 1970DOPE   NH323112  14.854  21.060  11.433 -0.1510  0.0004 -0.0988
 1970DOPE   PO423113  14.632  21.177  11.244  0.1489  0.1196 -0.0891
 1970DOPE   GL123114  14.849  21.512  11.388 -0.1689 -0.2064 -0.2232
 1970DOPE   GL223115  15.151  21.488  11.475 -0.0004 -0.0664 -0.2600
 1970DOPE   C1A23116  14.878  21.820  11.754 -0.2746 -0.2014 -0.0194
 1970DOPE   D2A23117  14.575  22.038  12.098 -0.3877 -0.1838 -0.0704
 1970DOPE   C3A23118  14.593  22.034  12.518 -0.0719 -0.1246 -0.0002
 1970DOPE   C4A23119  14.785  22.217  12.902  0.0893  0.1218  0.1767
 1970DOPE   C1B23120  15.227  21.933  11.268 -0.3987 -0.0373 -0.2468
 1970DOPE   D2B23121  15.396  22.298  11.522  0.5560 -0.2291  0.1001
 1970DOPE   C3B23122  15.235  22.722  11.642  0.0787 -0.0527  0.0738
 1970DOPE   C4B23123  15.062  23.052  11.343 -0.0275  0.0278 -0.1320
 1971DOPE   NH323124  13.488  23.691  11.477 -0.0103 -0.0056 -0.1596
 1971DOPE   PO423125  13.665  23.742  11.737  0.1617 -0.2636 -0.1351
 1971DOPE   GL123126  13.865  23.386  11.836 -0.1571  0.1428  0.2863
 1971DOPE   GL223127  13.616  23.307  11.935  0.0476 -0.2157  0.2327
 1971DOPE   C1A23128  14.093  22.982  11.724  0.1746  0.1962 -0.2016
 1971DOPE   D2A23129  14.286  22.902  11.303  0.0691 -0.0127  0.2869
 1971DOPE   C3A23130  14.711  22.695  11.443 -0.2198  0.0144  0.1265
 1971DOPE   C4A23131  14.889  22.314  11.650  0.2736  0.0851 -0.0933
 1971DOPE   C1B23132  13.633  22.854  11.843 -0.0228 -0.3792 -0.0127
 1971DOPE   D2B23133  13.869  22.505  12.057  0.2832  0.2483  0.1316
 1971DOPE   C3B23134  13.714  22.531  12.509  0.2236 -0.0040 -0.0965
 1971DOPE   C4B23135  13.525  22.778  12.768  0.0641 -0.0973 -0.1876
 1972DOPC   NC323136  11.071  18.294  11.873  0.1837  0.0990 -0.0853
 1972DOPC   PO423137  10.993  18.680  11.733  0.3036 -0.1279 -0.0114
 1972DOPC   GL123138  11.061  18.714  12.116  0.2354  0.0274  0.1250
 1972DOPC   GL223139  10.838  18.640  12.272 -0.0940 -0.0778  0.0214
 1972DOPC   C1A23140  11.459  18.467  12.258  0.1790  0.1543  0.2875
 1972DOPC   D2A23141  11.777  18.553  12.612  0.1669 -0.3219 -0.3001
 1972DOPC   C3A23142  12.009  18.202  12.821  0.2856  0.1056 -0.2178
 1972DOPC   C4A23143  12.497  18.146  12.694  0.3099 -0.0395 -0.1312
 1972DOPC   C1B23144  10.661  18.468  12.677  0.1425 -0.0612  0.0309
 1972DOPC   D2B23145  10.266  18.252  12.782 -0.3205  0.1672  0.0231
 1972DOPC   C3B23146  10.050  18.074  13.161 -0.0176 -0.2374  0.0097
 1972DOPC   C4B23147   9.784  18.034  13.517 -0.0692 -0.1951 -0.0389
 1973DOPE   NH323148  20.033  18.085  11.503 -0.0998 -0.1743  0.1819
 1973DOPE   PO423149  20.273  18.081  11.306 -0.4158  0.2446 -0.0030
 1973DOPE   GL123150  20.700  17.951  11.411  0.2095  0.1915  0.4016
 1973DOPE   GL223151  20.641  17.645  11.403 -0.3391  0.0092  0.0796
 1973DOPE   C1A23152  21.146  17.846  11.379  0.1462 -0.1677 -0.1056
 1973DOPE   D2A23153  21.387  17.444  11.417  0.0177  0.0716 -0.0271
 1973DOPE   C3A23154  21.422  17.036  11.189 -0.1989 -0.0158  0.0722
 1973DOPE   C4A23155  21.507  16.580  11.276  0.0955  0.1332  0.1481
 1973DOPE   C1B23156  20.884  17.404  11.737  0.0159  0.2795  0.1130
 1973DOPE   D2B23157  21.204  17.056  11.711 -0.5533  0.3047  0.0580
 1973DOPE   C3B23158  21.666  17.086  11.679 -0.2447 -0.4156  0.1881
 1973DOPE   C4B23159  22.045  17.324  11.739 -0.2643 -0.2934  0.1165
 1974DOPS   CNO23160  17.909  23.079  12.303  0.1734  0.2123 -0.0776
 1974DOPS   PO423161  18.005  22.865  12.600  0.1142  0.0636  0.0219
 1974DOPS   GL123162  17.949  22.542  12.829 -0.2084 -0.3494 -0.0284
 1974DOPS   GL223163  17.715  22.693  12.986  0.3706 -0.0458  0.0025
 1974DOPS   C1A23164  17.920  22.369  13.288  0.0099 -0.2490  0.1150
 1974DOPS   D2A23165  17.744  22.547  13.685  0.1097  0.0844 -0.1115
 1974DOPS   C3A23166  17.426  22.634  14.023  0.1588  0.0763 -0.2638
 1974DOPS   C4A23167  17.126  22.781  14.320 -0.1133  0.0377 -0.1150
 1974DOPS   C1B23168  17.748  22.937  13.339 -0.0054  0.1887  0.1114
 1974DOPS   D2B23169  17.950  23.182  13.612  0.0688  0.0482  0.2481
 1974DOPS   C3B23170  18.243  23.213  14.028 -0.0508 -0.1476  0.1427
 1974DOPS   C4B23171  18.657  23.363  14.052  0.1002 -0.1793  0.4163
 1975DOPC   NC323172  15.073  23.996  11.749 -0.3245  0.0747  0.1201
 1975DOPC   PO423173  15.075  23.626  11.732  0.3326  0.2632 -0.0523
 1975DOPC   GL123174  14.894  23.616  12.116  0.2021  0.3474 -0.0342
 1975DOPC   GL223175  14.649  23.526  11.943 -0.3245 -0.1719  0.1588
 1975DOPC   C1A23176  15.245  23.499  12.407  0.1889  0.0012  0.0458
 1975DOPC   D2A23177  15.480  23.259  12.786  0.3328 -0.1653 -0.2217
 1975DOPC   C3A23178  15.757  23.549  13.045  0.2991 -0.2073  0.3116
 1975DOPC   C4A23179  16.154  23.640  13.215  0.1154  0.0824  0.2993
 1975DOPC   C1B23180  14.296  23.352  12.151  0.2173 -0.1954  0.2178
 1975DOPC   D2B23181  14.166  22.950  12.187 -0.1617  0.4594 -0.2488
 1975DOPC   C3B23182  14.256  22.850  12.609 -0.0890 -0.1508 -0.0547
 1975DOPC   C4B23183  14.280  22.452  12.850 -0.1041 -0.0275 -0.0798
 1976POSM   NC323184  20.402  18.749  12.029  0.1071 -0.0262  0.2183
 1976POSM   PO423185  20.139  18.618  11.790 -0.2244 -0.1716 -0.0529
 1976POSM   AM123186  19.975  18.848  11.906  0.2620 -0.2457  0.0573
 1976POSM   AM223187  19.896  19.012  12.078 -0.3019 -0.0518  0.0682
 1976POSM   T1A23188  20.037  19.320  11.756  0.4258 -0.0866 -0.1514
 1976POSM   C2A23189  19.894  19.771  11.877  0.0139  0.0802  0.1579
 1976POSM   C3A23190  19.978  20.025  12.271  0.2417  0.0982 -0.0845
 1976POSM   C1B23191  19.819  19.025  12.379 -0.0525 -0.0008 -0.3531
 1976POSM   D2B23192  19.846  19.280  12.771  0.0112 -0.3741  0.0572
 1976POSM   C3B23193  19.489  19.478  12.963  0.3208 -0.1576  0.0154
 1976POSM   C4B23194  19.036  19.456  13.036 -0.0637  0.1725 -0.2217
 1977DOPC   NC323195  12.495  19.414  11.355 -0.1237  0.1081  0.0592
 1977DOPC   PO423196  12.827  19.288  11.507  0.2918 -0.3708  0.0230
 1977DOPC   GL123197  12.918  19.206  11.839 -0.2511 -0.1697 -0.4320
 1977DOPC   GL223198  12.772  19.359  12.068 -0.0455  0.0896 -0.2788
 1977DOPC   C1A23199  12.998  18.819  12.064 -0.0656  0.1452  0.0923
 1977DOPC   D2A23200  13.009  18.381  12.066  0.0694 -0.0751  0.0099
 1977DOPC   C3A23201  12.987  18.014  12.359  0.0769 -0.2371 -0.1295
 1977DOPC   C4A23202  13.192  17.670  12.602  0.1843 -0.0141 -0.2438
 1977DOPC   C1B23203  12.427  19.112  11.929  0.3504 -0.0534  0.2140
 1977DOPC   D2B23204  12.104  18.951  11.632 -0.1930 -0.0383  0.1586
 1977DOPC   C3B23205  11.839  18.543  11.694 -0.5303  0.0251  0.0597
 1977DOPC   C4B23206  11.799  18.085  11.550 -0.1807  0.2600 -0.1407
 1978POSM   NC323207  16.053  20.094  11.106 -0.1214  0.0686 -0.0803
 1978POSM   PO423208  16.159  20.304  11.423 -0.4545  0.5483  0.0077
 1978POSM   AM123209  16.394  20.194  11.675  0.2865 -0.2011  0.1397
 1978POSM   AM223210  16.640  20.234  11.700  0.1628  0.1531  0.2011
 1978POSM   T1A23211  16.337  20.051  12.144 -0.3764 -0.2180 -0.0898
 1978POSM   C2A23212  16.129  20.075  12.557  0.3468 -0.1621  0.1477
 1978POSM   C3A23213  16.245  20.101  13.079 -0.3700  0.3737 -0.0120
 1978POSM   C1B23214  16.947  20.332  11.678 -0.0962 -0.0057  0.1717
 1978POSM   D2B23215  17.305  20.522  11.967 -0.1184  0.1413 -0.0780
 1978POSM   C3B23216  17.271  20.274  12.326  0.2045  0.2587 -0.1854
 1978POSM   C4B23217  17.213  20.158  12.736  0.0030 -0.2010  0.1366
 1979DOPE   NH323218  13.549  16.591  10.945  0.3033 -0.1520 -0.2193
 1979DOPE   PO423219  13.303  16.786  10.984  0.1023  0.1513 -0.1209
 1979DOPE   GL123220  13.446  16.978  11.191 -0.0634 -0.1115  0.4770
 1979DOPE   GL223221  13.410  17.111  11.485  0.2719 -0.0679  0.1288
 1979DOPE   C1A23222  13.850  17.211  11.339  0.1213  0.1780 -0.0029
 1979DOPE   D2A23223  14.068  17.593  11.437  0.2185  0.2765  0.2264
 1979DOPE   C3A23224  13.888  17.866  11.715  0.0611 -0.3882  0.0109
 1979DOPE   C4A23225  13.727  18.334  11.767  0.0517  0.2664 -0.0143
 1979DOPE   C1B23226  13.671  17.419  11.756  0.0287  0.2550 -0.0416
 1979DOPE   D2B23227  13.825  17.552  12.179 -0.3493  0.1324  0.3154
 1979DOPE   C3B23228  13.964  17.962  12.176  0.0828  0.0691  0.0346
 1979DOPE   C4B23229  14.250  18.169  11.893  0.0668  0.2635  0.1193
 1980DOPE   NH323230  19.931  18.591  11.352 -0.1682  0.1011 -0.2367
 1980DOPE   PO423231  20.282  18.556  11.273  0.2990  0.2868  0.3925
 1980DOPE   GL123232  20.623  18.555  11.569 -0.0088 -0.1385 -0.0212
 1980DOPE   GL223233  20.552  18.302  11.695 -0.0022 -0.0130 -0.4228
 1980DOPE   C1A23234  21.033  18.407  11.601  0.0253  0.1878 -0.2121
 1980DOPE   D2A23235  21.464  18.198  11.676 -0.0642  0.2644  0.1160
 1980DOPE   C3A23236  21.359  17.767  11.859 -0.0193  0.0927  0.2876
 1980DOPE   C4A23237  21.346  17.388  12.096  0.3158 -0.0434 -0.2057
 1980DOPE   C1B23238  20.811  18.246  12.073  0.1344  0.1797 -0.1192
 1980DOPE   D2B23239  20.960  18.472  12.441  0.2196 -0.0698  0.0195
 1980DOPE   C3B23240  21.149  18.367  12.883 -0.2637 -0.1045  0.3341
 1980DOPE   C4B23241  21.497  18.304  13.118 -0.0652 -0.3538  0.1113
 1981DOPS   CNO23242  18.472  10.466  11.820 -0.1552  0.1298 -0.4117
 1981DOPS   PO423243  18.602  10.578  12.146 -0.1270 -0.0640 -0.5403
 1981DOPS   GL123244  18.474  10.583  12.587 -0.1843  0.0947 -0.1617
 1981DOPS   GL223245  18.717  10.764  12.705 -0.1254  0.3694  0.2585
 1981DOPS   C1A23246  18.383  10.353  12.961 -0.2046  0.1823 -0.0765
 1981DOPS   D2A23247  18.629  10.021  13.166 -0.0981 -0.2084 -0.4154
 1981DOPS   C3A23248  18.952   9.843  13.462  0.2053  0.2605  0.2034
 1981DOPS   C4A23249  19.405   9.967  13.615 -0.0903 -0.1667  0.0412
 1981DOPS   C1B23250  18.556  10.933  13.074  0.3289 -0.1715 -0.0688
 1981DOPS   D2B23251  18.791  11.290  13.167 -0.0388 -0.1867  0.2262
 1981DOPS   C3B23252  19.081  11.397  13.514  0.4068 -0.2001 -0.2991
 1981DOPS   C4B23253  19.202  11.671  13.891  0.2066  0.0773  0.0568
 1982DOPE   NH323254  11.785  11.087  11.712  0.0335  0.0486  0.0634
 1982DOPE   PO423255  12.057  11.185  11.635  0.0185  0.1790  0.1103
 1982DOPE   GL123256  12.146  11.573  11.894 -0.2428  0.2798  0.0376
 1982DOPE   GL223257  12.419  11.539  11.808  0.1351  0.0682 -0.1273
 1982DOPE   C1A23258  12.150  12.064  11.938 -0.0284 -0.2973 -0.0739
 1982DOPE   D2A23259  12.020  12.532  12.070 -0.0448 -0.1286  0.2282
 1982DOPE   C3A23260  12.328  12.832  12.010 -0.0772  0.1326 -0.3610
 1982DOPE   C4A23261  12.621  13.187  11.965  0.0412  0.0573  0.1612
 1982DOPE   C1B23262  12.626  11.913  12.065 -0.1109  0.0581  0.3064
 1982DOPE   D2B23263  13.053  12.159  12.099 -0.1325 -0.1490  0.2932
 1982DOPE   C3B23264  13.169  12.509  12.368  0.1161  0.0200 -0.2903
 1982DOPE   C4B23265  13.487  12.850  12.498  0.0772  0.0696  0.0673
 1983DOPE   NH323266  19.538  11.384  12.424 -0.1518 -0.0141  0.3852
 1983DOPE   PO423267  19.705  11.456  12.180 -0.1460 -0.1927  0.0058
 1983DOPE   GL123268  19.972  11.742  12.329  0.1723 -0.5607 -0.0207
 1983DOPE   GL223269  20.067  11.603  12.523 -0.2822 -0.1650  0.0114
 1983DOPE   C1A23270  20.347  12.003  12.538 -0.0961  0.1433  0.0327
 1983DOPE   D2A23271  20.735  12.254  12.491  0.0571 -0.1620 -0.0985
 1983DOPE   C3A23272  21.011  12.263  12.112 -0.2243 -0.1152  0.0604
 1983DOPE   C4A23273  21.348  12.021  11.833 -0.1883  0.0254 -0.1437
 1983DOPE   C1B23274  19.903  11.842  12.935 -0.2304 -0.0233 -0.0983
 1983DOPE   D2B23275  19.647  12.177  13.060 -0.3326  0.1036  0.4066
 1983DOPE   C3B23276  19.947  12.518  13.160 -0.0155 -0.0984  0.2507
 1983DOPE   C4B23277  20.410  12.464  13.334 -0.2695  0.2088 -0.0769
 1984POSM   NC323278  23.999  21.594  13.156 -0.0341  0.0453 -0.1804
 1984POSM   PO423279  24.172  21.835  12.879  0.1064  0.0231 -0.0291
 1984POSM   AM123280  23.952  21.669  12.707  0.1697  0.0940  0.1482
 1984POSM   AM223281  23.973  21.676  12.464 -0.0921  0.1314  0.3331
 1984POSM   T1A23282  23.879  21.178  12.681  0.2785  0.0268  0.0634
 1984POSM   C2A23283  23.779  20.762  12.511 -0.1358  0.0732 -0.5172
 1984POSM   C3A23284  23.844  20.326  12.549 -0.1124  0.1443  0.2080
 1984POSM   C1B23285  23.804  21.490  12.260  0.2116 -0.1042  0.0366
 1984POSM   D2B23286  23.578  21.102  12.204  0.1221  0.1429 -0.3920
 1984POSM   C3B23287  23.293  21.119  12.589 -0.0035  0.0212  0.0624
 1984POSM   C4B23288  22.864  20.920  12.669  0.1759  0.0244  0.2557
 1985DOPC   NC323289  22.637  19.358  12.140 -0.0636  0.1897  0.2031
 1985DOPC   PO423290  22.282  19.270  12.176  0.2799 -0.0399 -0.1756
 1985DOPC   GL123291  22.431  19.302  12.539  0.0221 -0.1369 -0.0277
 1985DOPC   GL223292  22.248  19.157  12.674 -0.2876 -0.0512 -0.1536
 1985DOPC   C1A23293  22.638  19.721  12.680  0.2603 -0.0484 -0.2276
 1985DOPC   D2A23294  22.745  20.137  12.547  0.1177 -0.1137  0.2751
 1985DOPC   C3A23295  22.970  20.418  12.789 -0.1585  0.1800  0.0892
 1985DOPC   C4A23296  23.231  20.758  12.983  0.1518  0.0031  0.0259
 1985DOPC   C1B23297  22.108  19.602  12.737 -0.3670 -0.0661  0.1020
 1985DOPC   D2B23298  22.270  20.034  12.720 -0.1403 -0.0293 -0.0794
 1985DOPC   C3B23299  22.337  20.174  12.275  0.1600 -0.1337 -0.0975
 1985DOPC   C4B23300  22.128  20.348  11.896 -0.1294 -0.0856  0.1364
 1986DOPC   NC323301  15.156  11.726  10.744  0.0039  0.3956 -0.2311
 1986DOPC   PO423302  15.438  11.830  10.995 -0.2355 -0.7366  0.0453
 1986DOPC   GL123303  15.472  11.709  11.337  0.3619 -0.1929  0.0582
 1986DOPC   GL223304  15.415  11.949  11.468  0.1298  0.0147  0.0788
 1986DOPC   C1A23305  15.901  11.569  11.540  0.0241  0.0897  0.1225
 1986DOPC   D2A23306  16.259  11.741  11.273 -0.0558  0.0042 -0.2590
 1986DOPC   C3A23307  16.439  12.024  11.574  0.0071  0.1108 -0.1892
 1986DOPC   C4A23308  16.259  12.459  11.580  0.0357  0.1246 -0.1933
 1986DOPC   C1B23309  15.274  11.621  11.731 -0.0171 -0.3902  0.1466
 1986DOPC   D2B23310  15.416  11.261  11.984  0.1520  0.3749 -0.2216
 1986DOPC   C3B23311  15.785  11.127  12.052  0.0020  0.2839 -0.5402
 1986DOPC   C4B23312  16.174  10.822  12.004  0.1816  0.0204  0.2747
 1987DOPE   NH323313  15.072  12.219  11.019 -0.0042 -0.1715  0.0181
 1987DOPE   PO423314  14.993  12.305  11.308  0.3402  0.0068 -0.2739
 1987DOPE   GL123315  15.053  12.150  11.646 -0.2204  0.0656 -0.1282
 1987DOPE   GL223316  15.073  12.411  11.826 -0.2265  0.2246  0.1653
 1987DOPE   C1A23317  15.406  12.066  11.962  0.0983  0.2166  0.3088
 1987DOPE   D2A23318  15.679  11.675  12.026 -0.1896  0.6305 -0.1070
 1987DOPE   C3A23319  16.093  11.549  12.164  0.1659 -0.1368  0.0601
 1987DOPE   C4A23320  16.539  11.559  12.249  0.1534 -0.1346  0.0996
 1987DOPE   C1B23321  14.761  12.234  12.110  0.1517 -0.3103 -0.2956
 1987DOPE   D2B23322  14.395  12.390  12.365  0.1326  0.1832 -0.3032
 1987DOPE   C3B23323  13.932  12.433  12.411  0.3515  0.3513 -0.2570
 1987DOPE   C4B23324  13.537  12.409  12.710  0.0902 -0.2293  0.2385
 1988DOPE   NH323325  18.788  15.749  10.693 -0.1039  0.0327 -0.1755
 1988DOPE   PO423326  18.946  15.553  10.921 -0.3170 -0.2365 -0.0766
 1988DOPE   GL123327  18.973  15.549  11.318 -0.0325  0.0546  0.1777
 1988DOPE   GL223328  19.195  15.351  11.308  0.0712  0.0964 -0.1403
 1988DOPE   C1A23329  18.660  15.408  11.611  0.0427 -0.1578 -0.2983
 1988DOPE   D2A23330  18.265  15.231  11.764  0.2612 -0.2266 -0.1762
 1988DOPE   C3A23331  17.894  15.467  11.793  0.0919 -0.2359 -0.0314
 1988DOPE   C4A23332  17.594  15.665  12.073  0.1295 -0.3913 -0.4577
 1988DOPE   C1B23333  19.545  15.050  11.289 -0.0284  0.2269 -0.1842
 1988DOPE   D2B23334  19.867  14.893  11.629  0.0445  0.1019  0.2289
 1988DOPE   C3B23335  19.826  14.880  12.118 -0.1624  0.0942  0.0295
 1988DOPE   C4B23336  20.073  14.858  12.487 -0.3542 -0.1831 -0.0842
 1989POSM   NC323337  18.007  10.380  11.638  0.1565  0.0910  0.2864
 1989POSM   PO423338  17.781  10.648  11.416  0.2814 -0.0098  0.2745
 1989POSM   AM123339  17.668  10.816  11.683 -0.0032 -0.2108  0.0171
 1989POSM   AM223340  17.688  10.991  11.904  0.0671 -0.0848  0.2539
 1989POSM   T1A23341  17.223  10.918  11.785  0.4503 -0.1239 -0.1887
 1989POSM   C2A23342  16.779  10.927  11.627 -0.2082 -0.0771 -0.2553
 1989POSM   C3A23343  16.470  10.605  11.673 -0.0150  0.0051 -0.1516
 1989POSM   C1B23344  17.615  11.293  11.657  0.0118  0.0563  0.0789
 1989POSM   D2B23345  17.452  11.337  11.197 -0.1280 -0.0966  0.1745
 1989POSM   C3B23346  17.194  10.926  11.187  0.2351 -0.3330 -0.0748
 1989POSM   C4B23347  16.847  10.605  11.159  0.2127  0.1992 -0.0871
 1990POSM   NC323348  19.538  16.955  11.201  0.0705  0.3980  0.1242
 1990POSM   PO423349  19.248  17.189  11.265 -0.0072  0.1218  0.1003
 1990POSM   AM123350  19.090  16.978  11.414  0.1755 -0.2323  0.0472
 1990POSM   AM223351  18.825  16.895  11.462 -0.0296 -0.1872 -0.0570
 1990POSM   T1A23352  19.050  16.577  11.681  0.2438 -0.1334  0.2805
 1990POSM   C2A23353  19.105  16.390  12.078 -0.1175 -0.1533 -0.1669
 1990POSM   C3A23354  19.276  16.086  12.347  0.0629 -0.3741  0.0047
 1990POSM   C1B23355  18.559  16.809  11.651 -0.0402 -0.2739  0.0237
 1990POSM   D2B23356  18.111  16.745  11.782 -0.0746  0.3087 -0.2374
 1990POSM   C3B23357  17.952  16.455  11.503  0.5068  0.0133  0.3246
 1990POSM   C4B23358  17.636  16.310  11.189 -0.1330  0.0655 -0.1689
 1991POSM   NC323359  12.707  22.729  12.017 -0.2146 -0.0245 -0.0353
 1991POSM   PO423360  12.676  22.441  11.765  0.0839 -0.3433  0.1169
 1991POSM   AM123361  12.839  22.151  11.668  0.1233 -0.0426 -0.1069
 1991POSM   AM223362  12.840  21.925  11.832 -0.0461 -0.0977  0.0746
 1991POSM   T1A23363  13.104  21.870  11.394  0.3198 -0.0110 -0.2092
 1991POSM   C2A23364  13.206  21.552  11.100  0.2289  0.0018  0.0888
 1991POSM   C3A23365  13.288  21.282  10.747  0.0629  0.0440  0.1608
 1991POSM   C1B23366  12.803  21.574  11.757 -0.1622  0.1439  0.1077
 1991POSM   D2B23367  12.568  21.183  11.821 -0.2887 -0.0589 -0.0620
 1991POSM   C3B23368  12.800  20.800  11.676  0.2127 -0.0848 -0.1803
 1991POSM   C4B23369  12.784  20.523  11.258  0.2482 -0.2781 -0.1384
 1992POSM   NC323370  22.754  14.691  11.861  0.1451 -0.3027 -0.1305
 1992POSM   PO423371  22.959  14.318  11.877  0.2997 -0.1407  0.2104
 1992POSM   AM123372  22.643  14.290  11.796  0.0447 -0.1576 -0.1683
 1992POSM   AM223373  22.522  14.114  11.930  0.0351  0.2263 -0.0568
 1992POSM   T1A23374  22.168  14.452  11.872 -0.0470  0.0872 -0.2605
 1992POSM   C2A23375  21.897  14.791  11.810 -0.0413  0.3377 -0.1341
 1992POSM   C3A23376  21.610  15.142  11.660  0.0723 -0.4156  0.1212
 1992POSM   C1B23377  22.242  13.896  11.884 -0.3582 -0.1957  0.0068
 1992POSM   D2B23378  21.819  13.839  11.776  0.0920 -0.0943  0.1170
 1992POSM   C3B23379  21.414  13.773  11.617 -0.2499  0.2301  0.0070
 1992POSM   C4B23380  20.964  13.820  11.469 -0.5356  0.0527 -0.3048
 1993DOPC   NC323381  14.564  16.732  10.541 -0.0017  0.3760  0.3286
 1993DOPC   PO423382  14.913  16.625  10.685  0.0163 -0.2085  0.2545
 1993DOPC   GL123383  14.724  16.730  11.046  0.1534  0.1252 -0.0967
 1993DOPC   GL223384  14.440  16.611  10.996 -0.1920 -0.0252  0.0954
 1993DOPC   C1A23385  14.923  17.030  11.410  0.0810  0.1105  0.2524
 1993DOPC   D2A23386  15.296  17.259  11.375 -0.1470  0.1847  0.1437
 1993DOPC   C3A23387  15.433  17.539  11.697  0.1649  0.1095 -0.2538
 1993DOPC   C4A23388  15.634  17.657  12.097  0.0612 -0.1745 -0.1069
 1993DOPC   C1B23389  14.547  16.598  11.481 -0.2765 -0.1961  0.0149
 1993DOPC   D2B23390  14.764  16.311  11.754  0.2371 -0.1055 -0.2571
 1993DOPC   C3B23391  15.145  16.277  11.949 -0.0297 -0.3282 -0.2698
 1993DOPC   C4B23392  15.440  16.011  12.266 -0.1809  0.2831  0.0829
 1994DOPC   NC323393  19.533  11.887  12.562  0.0369  0.1494  0.0841
 1994DOPC   PO423394  19.686  12.112  12.286  0.5677  0.0918  0.3214
 1994DOPC   GL123395  19.689  12.401  12.575 -0.1282 -0.0461 -0.3382
 1994DOPC   GL223396  19.963  12.265  12.663  0.0536 -0.0704  0.0424
 1994DOPC   C1A23397  19.748  12.819  12.409 -0.0335 -0.3698  0.1571
 1994DOPC   D2A23398  19.537  13.256  12.390  0.1591 -0.2309 -0.1076
 1994DOPC   C3A23399  19.760  13.675  12.347 -0.1695 -0.0762 -0.1503
 1994DOPC   C4A23400  19.787  14.054  12.473 -0.0823  0.0419 -0.2116
 1994DOPC   C1B23401  20.265  12.155  13.013  0.1708  0.1046 -0.1776
 1994DOPC   D2B23402  20.612  11.987  13.361 -0.0541  0.1020 -0.2139
 1994DOPC   C3B23403  20.823  12.325  13.642 -0.0157  0.1422  0.1845
 1994DOPC   C4B23404  21.084  12.579  13.883 -0.0760  0.2460 -0.2206
 1995DOPE   NH323405  19.059  18.525  11.615  0.1641  0.1588 -0.0353
 1995DOPE   PO423406  19.340  18.504  11.699  0.3265  0.2706 -0.0263
 1995DOPE   GL123407  19.545  18.841  11.773  0.2268 -0.1844 -0.1030
 1995DOPE   GL223408  19.673  19.022  11.578  0.2610 -0.1413 -0.1285
 1995DOPE   C1A23409  19.330  18.910  12.192  0.0635  0.0239  0.1387
 1995DOPE   D2A23410  19.336  18.583  12.509 -0.0050  0.0114  0.1621
 1995DOPE   C3A23411  19.694  18.569  12.783  0.0891 -0.0295  0.2360
 1995DOPE   C4A23412  19.912  18.343  13.167 -0.0892 -0.5519  0.3189
 1995DOPE   C1B23413  19.550  19.418  11.396 -0.2464  0.1257  0.2335
 1995DOPE   D2B23414  19.638  19.840  11.420 -0.1161 -0.4481 -0.1332
 1995DOPE   C3B23415  19.702  20.251  11.744  0.3073 -0.0447 -0.3566
 1995DOPE   C4B23416  19.966  20.485  12.070 -0.0764  0.1869 -0.1294
 1996DOPC   NC323417  18.533  18.685  11.781  0.0765 -0.1898  0.1588
 1996DOPC   PO423418  18.550  18.338  11.638 -0.0551 -0.2437 -0.0974
 1996DOPC   GL123419  18.615  18.370  12.074  0.3745 -0.0314  0.3363
 1996DOPC   GL223420  18.936  18.577  12.090 -0.1240  0.0505  0.0371
 1996DOPC   C1A23421  18.783  18.317  12.524 -0.3123 -0.0542  0.3518
 1996DOPC   D2A23422  19.049  18.253  12.849 -0.0104 -0.0705 -0.1758
 1996DOPC   C3A23423  19.181  18.648  13.048  0.0524  0.0189  0.1962
 1996DOPC   C4A23424  19.505  18.873  13.262 -0.3234  0.0194 -0.2704
 1996DOPC   C1B23425  18.810  19.021  12.163  0.0454 -0.0024  0.1743
 1996DOPC   D2B23426  19.076  19.338  12.407  0.1159 -0.2482 -0.1068
 1996DOPC   C3B23427  18.879  19.742  12.490 -0.0219 -0.2053  0.1186
 1996DOPC   C4B23428  18.511  20.082  12.381  0.1624 -0.4457 -0.1947
 1997DOPC   NC323429  22.061  18.999  11.828  0.2008  0.1393 -0.0544
 1997DOPC   PO423430  21.887  18.886  12.161 -0.0593 -0.0463 -0.2425
 1997DOPC   GL123431  21.709  19.241  12.173  0.3662 -0.1999  0.3324
 1997DOPC   GL223432  21.849  19.460  12.338  0.1638  0.1248 -0.0620
 1997DOPC   C1A23433  21.404  19.390  12.458  0.3164  0.0336 -0.0546
 1997DOPC   D2A23434  21.203  19.804  12.569 -0.2286 -0.0105 -0.0525
 1997DOPC   C3A23435  21.204  20.226  12.310 -0.4145 -0.2016  0.0066
 1997DOPC   C4A23436  21.129  20.450  11.892 -0.0288 -0.0393 -0.0152
 1997DOPC   C1B23437  21.659  19.916  12.495 -0.3325  0.1139 -0.0324
 1997DOPC   D2B23438  21.491  20.201  12.838 -0.2340 -0.0008 -0.3444
 1997DOPC   C3B23439  21.417  20.580  12.670 -0.1680 -0.2057 -0.1194
 1997DOPC   C4B23440  21.634  20.969  12.584  0.1502 -0.2090 -0.1730
 1998DOPS   CNO23441  18.693  24.264  12.129  0.1240 -0.1392  0.0303
 1998DOPS   PO423442  18.949  24.025  11.976  0.1067 -0.1416 -0.2354
 1998DOPS   GL123443  19.237  24.064  12.159  0.0253 -0.2559 -0.1298
 1998DOPS   GL223444  19.273  23.759  12.280  0.1902 -0.1298  0.2960
 1998DOPS   C1A23445  19.694  23.928  12.136 -0.0587 -0.1157  0.1588
 1998DOPS   D2A23446  20.073  23.805  12.399 -0.1260  0.2554  0.0920
 1998DOPS   C3A23447  20.258  23.815  12.792 -0.0870 -0.1288 -0.1683
 1998DOPS   C4A23448  20.584  23.514  13.027 -0.1438  0.0124  0.0896
 1998DOPS   C1B23449  19.419  23.463  12.001 -0.0254  0.0905  0.0815
 1998DOPS   D2B23450  19.466  23.017  12.051  0.4168  0.4063 -0.0756
 1998DOPS   C3B23451  19.572  22.647  12.309  0.1422  0.2373  0.0284
 1998DOPS   C4B23452  19.996  22.411  12.203  0.1367  0.3673 -0.4337
 1999POSM   NC323453  23.463  16.129  12.566 -0.2130 -0.0013  0.0759
 1999POSM   PO423454  23.213  16.347  12.274  0.1992 -0.3381  0.0007
 1999POSM   AM123455  22.992  16.522  12.414 -0.1598  0.1824  0.2893
 1999POSM   AM223456  22.889  16.435  12.683 -0.0705 -0.0217 -0.5077
 1999POSM   T1A23457  22.530  16.657  12.259 -0.4057 -0.1588  0.2242
 1999POSM   C2A23458  22.267  16.552  11.887 -0.0713 -0.4779  0.1834
 1999POSM   C3A23459  21.835  16.483  11.663 -0.0204  0.2153 -0.0123
 1999POSM   C1B23460  22.994  16.633  12.973  0.1326  0.3556  0.0884
 1999POSM   D2B23461  22.951  16.983  13.209 -0.1571  0.2155 -0.3620
 1999POSM   C3B23462  23.276  17.195  13.438 -0.3135 -0.0289 -0.0139
 1999POSM   C4B23463  23.462  17.626  13.507  0.1102  0.3515 -0.3016
 2000DOPS   CNO23464  18.159  21.663  12.021 -0.0448 -0.3162 -0.0288
 2000DOPS   PO423465  18.169  21.635  12.402  0.3562 -0.0257 -0.3132
 2000DOPS   GL123466  18.588  21.478  12.363  0.4213 -0.1234  0.3997
 2000DOPS   GL223467  18.689  21.350  12.671  0.3356 -0.1337 -0.2325
 2000DOPS   C1A23468  18.698  21.120  12.028  0.0543 -0.2169  0.1150
 2000DOPS   D2A23469  19.062  20.801  11.995  0.3689 -0.3242  0.1343
 2000DOPS   C3A23470  19.475  20.836  11.785  0.1988  0.0763 -0.2060
 2000DOPS   C4A23471  19.850  20.820  11.502  0.3483  0.1937 -0.1148
 2000DOPS   C1B23472  18.844  20.943  12.523  0.0571 -0.1841  0.2179
 2000DOPS   D2B23473  18.731  20.584  12.314  0.0437  0.0274 -0.1111
 2000DOPS   C3B23474  18.977  20.216  12.132  0.0921  0.0808  0.0026
 2000DOPS   C4B23475  19.439  19.982  12.100  0.1384 -0.0960  0.0437
 2001POSM   NC323476  13.364  15.950  11.136  0.0141  0.1502  0.1145
 2001POSM   PO423477  13.144  16.288  11.142  0.1235  0.2234 -0.2753
 2001POSM   AM123478  13.193  16.520  11.335 -0.1027 -0.0567  0.0648
 2001POSM   AM223479  13.414  16.590  11.478  0.0191  0.1956  0.3277
 2001POSM   T1A23480  13.015  16.850  11.655 -0.3434 -0.2245  0.0557
 2001POSM   C2A23481  12.727  17.166  11.918 -0.0087 -0.5001  0.3200
 2001POSM   C3A23482  12.818  17.476  12.211 -0.0403 -0.1153 -0.0429
 2001POSM   C1B23483  13.509  16.608  11.754 -0.0945 -0.2819  0.1270
 2001POSM   D2B23484  13.697  16.870  12.090 -0.3275  0.2062 -0.1788
 2001POSM   C3B23485  14.033  16.642  12.263 -0.0569  0.1932 -0.1570
 2001POSM   C4B23486  14.271  16.355  12.065  0.2376  0.1934  0.1618
 2002DOPC   NC323487  14.891  20.331  11.854  0.2182 -0.0303  0.0707
 2002DOPC   PO423488  15.052  20.518  11.609  0.0008 -0.2750 -0.4543
 2002DOPC   GL123489  15.213  20.802  11.951  0.1531  0.0647 -0.1277
 2002DOPC   GL223490  15.075  21.085  11.885  0.4742 -0.3540  0.0282
 2002DOPC   C1A23491  15.296  21.115  12.290 -0.1045 -0.2117 -0.2257
 2002DOPC   D2A23492  15.193  21.396  12.599 -0.1060 -0.0819 -0.0238
 2002DOPC   C3A23493  14.829  21.626  12.709  0.1474 -0.1407  0.0658
 2002DOPC   C4A23494  14.683  21.814  13.119  0.0587  0.0718 -0.0249
 2002DOPC   C1B23495  14.697  21.344  11.850 -0.0779 -0.2598  0.0293
 2002DOPC   D2B23496  14.318  21.459  12.035  0.3137  0.0419 -0.0510
 2002DOPC   C3B23497  14.287  21.698  12.426  0.1991  0.2170 -0.0244
 2002DOPC   C4B23498  14.199  21.877  12.802 -0.1454  0.1167 -0.2186
 2003DOPC   NC323499  20.331  16.639  11.398  0.1982  0.0522  0.2401
 2003DOPC   PO423500  19.927  16.595  11.268 -0.2039  0.0011  0.0211
 2003DOPC   GL123501  19.916  16.483  11.627 -0.1676 -0.1099 -0.0723
 2003DOPC   GL223502  19.947  16.206  11.572  0.1285  0.0290 -0.0590
 2003DOPC   C1A23503  20.167  16.356  11.952  0.3448  0.0748  0.1691
 2003DOPC   D2A23504  20.303  16.221  12.370  0.3055  0.1026  0.3490
 2003DOPC   C3A23505  20.773  16.155  12.326 -0.0667 -0.2545 -0.2726
 2003DOPC   C4A23506  21.138  16.118  11.990  0.2283 -0.2388  0.3261
 2003DOPC   C1B23507  20.210  15.802  11.533 -0.2113 -0.0555 -0.3104
 2003DOPC   D2B23508  20.480  15.445  11.452 -0.1840 -0.1641 -0.0752
 2003DOPC   C3B23509  20.454  15.007  11.631  0.1102 -0.0750 -0.2452
 2003DOPC   C4B23510  20.310  14.706  12.056 -0.1592  0.1240  0.1202
 2004DOPC   NC323511  13.687  10.941  11.382 -0.0291  0.0300 -0.1646
 2004DOPC   PO423512  13.651  11.294  11.443 -0.0560 -0.2348  0.0635
 2004DOPC   GL123513  13.513  11.543  11.745  0.0198  0.3769 -0.3507
 2004DOPC   GL223514  13.725  11.807  11.696  0.0354  0.2633  0.3253
 2004DOPC   C1A23515  13.234  11.579  12.118  0.4257 -0.0709 -0.1891
 2004DOPC   D2A23516  12.958  11.746  12.476  0.1585  0.0234  0.3219
 2004DOPC   C3A23517  12.842  12.151  12.532 -0.3095  0.0870  0.1540
 2004DOPC   C4A23518  12.555  12.366  12.814 -0.2147 -0.2104  0.2044
 2004DOPC   C1B23519  13.499  12.057  11.992  0.0104 -0.0913 -0.0411
 2004DOPC   D2B23520  13.388  12.540  11.919  0.1482 -0.0698 -0.0156
 2004DOPC   C3B23521  13.784  12.790  12.057  0.1251  0.0047 -0.1659
 2004DOPC   C4B23522  14.175  12.642  11.975  0.0721  0.0541 -0.0600
 2005POSM   NC323523  19.060  22.557  12.023 -0.0795  0.0370  0.2577
 2005POSM   PO423524  18.985  22.165  11.983  0.1936  0.0908  0.1904
 2005POSM   AM123525  19.021  22.057  12.282 -0.3625  0.2366 -0.2593
 2005POSM   AM223526  19.014  21.823  12.443  0.2175 -0.1704 -0.0958
 2005POSM   T1A23527  19.262  22.229  12.696  0.0367  0.1369 -0.1099
 2005POSM   C2A23528  19.681  22.372  12.835 -0.0527  0.2171 -0.0129
 2005POSM   C3A23529  20.068  22.288  13.060 -0.0768 -0.2458 -0.0201
 2005POSM   C1B23530  19.042  21.727  12.758 -0.0319  0.1592 -0.1926
 2005POSM   D2B23531  18.928  21.531  13.132 -0.1672 -0.0298 -0.3107
 2005POSM   C3B23532  18.651  21.149  13.181 -0.2501  0.2318 -0.1066
 2005POSM   C4B23533  18.357  21.039  13.562 -0.0360 -0.2011  0.0802
 2006POSM   NC323534  12.682  15.031  10.280 -0.0168  0.0800  0.4067
 2006POSM   PO423535  12.883  14.749  10.169  0.1921 -0.1971 -0.1221
 2006POSM   AM123536  12.973  14.642  10.494  0.3223 -0.0359  0.0727
 2006POSM   AM223537  13.192  14.637  10.627 -0.0198 -0.2713  0.0963
 2006POSM   T1A23538  12.845  14.299  10.795  0.0257 -0.1267  0.0892
 2006POSM   C2A23539  12.794  13.840  10.846  0.3243  0.0305 -0.1764
 2006POSM   C3A23540  12.880  13.568  11.258 -0.1187 -0.1015  0.1632
 2006POSM   C1B23541  13.132  14.608  10.963  0.1765  0.0604 -0.2495
 2006POSM   D2B23542  13.196  14.555  11.480  0.4062 -0.0350 -0.2395
 2006POSM   C3B23543  13.576  14.489  11.651 -0.2329  0.0961  0.1015
 2006POSM   C4B23544  13.726  14.689  11.956 -0.0092  0.1055  0.2576
 2007DOPE   NH323545  17.753  15.018  10.311  0.0425 -0.2231  0.0674
 2007DOPE   PO423546  17.627  15.292  10.263 -0.0853  0.1395 -0.0898
 2007DOPE   GL123547  17.673  15.656  10.446  0.0986  0.0973 -0.3124
 2007DOPE   GL223548  17.874  15.855  10.330  0.1748 -0.0397  0.0959
 2007DOPE   C1A23549  17.360  15.758  10.699  0.4070 -0.3795 -0.1568
 2007DOPE   D2A23550  16.895  15.661  10.725 -0.1790  0.0285  0.4286
 2007DOPE   C3A23551  16.649  15.949  10.933 -0.3026 -0.2388 -0.0865
 2007DOPE   C4A23552  16.636  16.397  11.066 -0.1664 -0.0361  0.1259
 2007DOPE   C1B23553  18.133  16.180  10.530 -0.0346 -0.4500  0.0950
 2007DOPE   D2B23554  18.249  16.166  10.984  0.1798 -0.0238 -0.1511
 2007DOPE   C3B23555  17.956  15.935  11.146 -0.4335  0.0128 -0.0378
 2007DOPE   C4B23556  17.676  15.593  11.042 -0.2349  0.1978  0.1802
 2008DOPS   CNO23557  23.155  15.860  11.918 -0.0832 -0.0649  0.0851
 2008DOPS   PO423558  23.179  15.811  12.299  0.0074 -0.0275  0.0331
 2008DOPS   GL123559  22.865  15.661  12.502  0.1974  0.1679 -0.0728
 2008DOPS   GL223560  22.658  15.478  12.405 -0.0715  0.3352 -0.3279
 2008DOPS   C1A23561  22.495  15.770  12.772  0.0056  0.0307 -0.1705
 2008DOPS   D2A23562  22.604  16.144  13.031  0.1447 -0.1836  0.0802
 2008DOPS   C3A23563  22.218  16.388  12.957  0.1834 -0.0691  0.1178
 2008DOPS   C4A23564  22.052  16.730  12.674 -0.1987 -0.0315 -0.4873
 2008DOPS   C1B23565  22.232  15.316  12.556 -0.0329  0.2076 -0.0577
 2008DOPS   D2B23566  21.848  15.063  12.672 -0.1297  0.1123  0.0340
 2008DOPS   C3B23567  21.469  15.233  12.643  0.2269 -0.2402 -0.1554
 2008DOPS   C4B23568  21.174  15.417  12.357  0.2138  0.0501 -0.0087
 2009DOPE   NH323569  23.324  22.266  13.212  0.0193 -0.0699  0.0094
 2009DOPE   PO423570  23.503  22.435  13.384 -0.0437  0.1220 -0.0414
 2009DOPE   GL123571  23.476  22.280  13.676 -0.0184  0.0398 -0.0568
 2009DOPE   GL223572  23.299  22.085  13.714  0.3327 -0.0878  0.1486
 2009DOPE   C1A23573  23.496  22.309  14.160  0.0752 -0.0850 -0.0034
 2009DOPE   D2A23574  23.654  22.191  14.557  0.2245  0.1500 -0.4204
 2009DOPE   C3A23575  23.738  22.516  14.820 -0.0024 -0.2306  0.1500
 2009DOPE   C4A23576  23.993  22.790  15.055  0.3378  0.1189 -0.1421
 2009DOPE   C1B23577  22.944  22.135  13.947 -0.1226  0.0082 -0.3890
 2009DOPE   D2B23578  23.091  22.375  14.334  0.0289  0.0390  0.0157
 2009DOPE   C3B23579  23.337  22.771  14.435  0.3240 -0.0767 -0.1418
 2009DOPE   C4B23580  23.563  23.034  14.763  0.0035  0.1208  0.0492
 2010DOPC   NC323581  11.922  16.652  10.659 -0.0250  0.1580  0.3436
 2010DOPC   PO423582  12.293  16.693  10.780  0.0749  0.0136 -0.0482
 2010DOPC   GL123583  12.335  17.040  11.037 -0.1415 -0.2217 -0.0416
 2010DOPC   GL223584  12.091  17.153  10.894  0.0953 -0.0068  0.0596
 2010DOPC   C1A23585  12.335  17.470  11.278 -0.2806  0.0967 -0.0493
 2010DOPC   D2A23586  12.325  17.925  11.380 -0.0452 -0.2246  0.1107
 2010DOPC   C3A23587  12.597  18.168  11.647 -0.1766 -0.0886  0.2283
 2010DOPC   C4A23588  12.596  18.543  11.843 -0.6983  0.0523 -0.0268
 2010DOPC   C1B23589  11.845  17.395  11.225  0.0112 -0.0700 -0.1587
 2010DOPC   D2B23590  11.769  17.540  11.618  0.0755 -0.4030  0.2575
 2010DOPC   C3B23591  11.869  17.628  12.055  0.0314  0.1100  0.1633
 2010DOPC   C4B23592  12.042  17.925  12.346 -0.0211  0.1906 -0.2113
 2011DOPC   NC323593  14.669  13.568  10.055 -0.3011 -0.0328 -0.2438
 2011DOPC   PO423594  14.626  13.486  10.442 -0.1437 -0.0245  0.2900
 2011DOPC   GL123595  14.647  13.587  10.812  0.1864  0.2293  0.0023
 2011DOPC   GL223596  14.867  13.687  10.849  0.2710 -0.2662  0.0774
 2011DOPC   C1A23597  14.498  13.799  11.196 -0.2107  0.0142 -0.1969
 2011DOPC   D2A23598  14.348  13.979  11.610  0.1023  0.1195 -0.3321
 2011DOPC   C3A23599  13.950  14.159  11.563 -0.0207 -0.2312  0.3720
 2011DOPC   C4A23600  13.635  14.260  11.204  0.1870  0.0589 -0.0013
 2011DOPC   C1B23601  14.838  14.139  10.961 -0.0909  0.2223  0.2006
 2011DOPC   D2B23602  14.921  14.537  11.070 -0.0793  0.0130  0.0840
 2011DOPC   C3B23603  15.295  14.486  11.358  0.0708  0.0835 -0.0845
 2011DOPC   C4B23604  15.595  14.388  11.702 -0.3093 -0.2598 -0.1112
 2012POSM   NC323605  23.557  17.298  12.551  0.1036  0.2276  0.3254
 2012POSM   PO423606  23.262  17.397  12.312  0.2573 -0.0032 -0.1892
 2012POSM   AM123607  22.911  17.375  12.260 -0.0157  0.2127 -0.0090
 2012POSM   AM223608  22.729  17.505  12.420 -0.1144 -0.3772 -0.1207
 2012POSM   T1A23609  22.516  17.155  12.114  0.0847  0.0493 -0.0044
 2012POSM   C2A23610  22.104  16.922  12.224  0.2033  0.3197  0.0028
 2012POSM   C3A23611  21.723  16.710  12.163  0.1775  0.1765 -0.4028
 2012POSM   C1B23612  22.391  17.457  12.515  0.2916 -0.0559 -0.4644
 2012POSM   D2B23613  22.031  17.438  12.317 -0.0071  0.2124  0.3802
 2012POSM   C3B23614  21.723  17.192  12.506 -0.0856 -0.1098 -0.1343
 2012POSM   C4B23615  21.324  17.028  12.432  0.2106 -0.1348 -0.1248
 2013POSM   NC323616  11.355  22.383  11.551  0.4064 -0.0149 -0.2930
 2013POSM   PO423617  11.680  22.607  11.623  0.0446 -0.1242 -0.0770
 2013POSM   AM123618  11.785  22.332  11.823  0.1663  0.2707 -0.1639
 2013POSM   AM223619  11.981  22.230  11.981 -0.2075 -0.1602 -0.1129
 2013POSM   T1A23620  11.685  21.861  11.868 -0.0804  0.4681 -0.0991
 2013POSM   C2A23621  11.325  21.586  12.013  0.1197  0.0982 -0.2900
 2013POSM   C3A23622  10.991  21.295  12.270 -0.3095  0.0503 -0.1773
 2013POSM   C1B23623  11.986  21.958  12.255 -0.2174  0.1103  0.1155
 2013POSM   D2B23624  12.144  21.728  12.628  0.1624  0.3047 -0.2704
 2013POSM   C3B23625  12.608  21.719  12.642  0.0813 -0.1208  0.0456
 2013POSM   C4B23626  13.080  21.726  12.476  0.1640  0.3278  0.2492
 2014DOPS   CNO23627  19.054  14.546  10.613  0.0017  0.3256  0.0931
 2014DOPS   PO423628  18.879  14.218  10.523  0.0516 -0.0440  0.4477
 2014DOPS   GL123629  18.964  14.223  10.891  0.0453  0.0800  0.2340
 2014DOPS   GL223630  18.819  14.358  11.116  0.2798 -0.1760 -0.0827
 2014DOPS   C1A23631  19.333  14.394  11.102  0.0167  0.2645 -0.0820
 2014DOPS   D2A23632  19.617  14.270  11.438  0.0590  0.0627 -0.2705
 2014DOPS   C3A23633  19.785  13.846  11.434 -0.0249 -0.1023  0.1780
 2014DOPS   C4A23634  19.633  13.402  11.280 -0.3485 -0.0746 -0.1606
 2014DOPS   C1B23635  19.056  14.083  11.463 -0.2418  0.2674 -0.1367
 2014DOPS   D2B23636  19.280  13.740  11.627  0.0539  0.0554  0.2341
 2014DOPS   C3B23637  19.121  13.479  11.910  0.1546 -0.0683  0.3815
 2014DOPS   C4B23638  18.947  13.026  11.999 -0.2296  0.5265  0.0851
 2015POSM   NC323639  14.124  11.487  11.235 -0.1342 -0.3663 -0.0473
 2015POSM   PO423640  14.112  11.089  11.157 -0.0137  0.0507 -0.2046
 2015POSM   AM123641  14.088  11.062  11.505  0.2138 -0.4049  0.0710
 2015POSM   AM223642  14.248  11.080  11.762  0.1900 -0.2953  0.3016
 2015POSM   T1A23643  13.860  10.978  12.015  0.2872 -0.0768 -0.0958
 2015POSM   C2A23644  13.865  11.075  12.463 -0.0501  0.1711  0.0462
 2015POSM   C3A23645  14.010  11.100  12.914 -0.2171  0.3421  0.3520
 2015POSM   C1B23646  14.360  11.141  12.045  0.0792 -0.1545 -0.2394
 2015POSM   D2B23647  14.412  11.067  12.547 -0.3618 -0.1138  0.0352
 2015POSM   C3B23648  14.186  10.702  12.632 -0.1197 -0.1495 -0.0358
 2015POSM   C4B23649  13.948  10.293  12.817  0.0440  0.3521 -0.2942
 2016DOPE   NH323650  17.359  22.111  11.838  0.1505  0.3238 -0.3352
 2016DOPE   PO423651  17.061  22.230  11.690 -0.0690 -0.0934  0.2491
 2016DOPE   GL123652  16.923  21.887  11.819 -0.0984 -0.1611 -0.2564
 2016DOPE   GL223653  16.998  21.826  12.152  0.0524  0.2201 -0.3984
 2016DOPE   C1A23654  16.554  21.664  11.812 -0.1995  0.0611  0.0068
 2016DOPE   D2A23655  16.297  21.295  12.068 -0.1837  0.3388 -0.0897
 2016DOPE   C3A23656  16.439  20.879  12.157  0.0767 -0.1828 -0.0482
 2016DOPE   C4A23657  16.617  20.446  12.144 -0.3973  0.1965 -0.0769
 2016DOPE   C1B23658  16.723  21.597  12.496 -0.1786 -0.0247  0.0530
 2016DOPE   D2B23659  16.512  21.189  12.623 -0.1432 -0.3424  0.0021
 2016DOPE   C3B23660  16.100  21.155  12.584 -0.0756 -0.2108  0.1942
 2016DOPE   C4B23661  15.652  21.133  12.789  0.3604 -0.2625 -0.1498
 2017DOPE   NH323662  14.381  12.278  10.747 -0.1737  0.1775  0.2851
 2017DOPE   PO423663  14.178  12.349  10.964 -0.3264 -0.2981 -0.0843
 2017DOPE   GL123664  13.733  12.578  10.985 -0.0479 -0.3181 -0.0553
 2017DOPE   GL223665  13.712  12.417  11.255  0.3673  0.0957  0.2171
 2017DOPE   C1A23666  13.392  12.807  10.722 -0.2462  0.0940 -0.1681
 2017DOPE   D2A23667  13.201  13.160  11.017 -0.1828 -0.1617  0.1840
 2017DOPE   C3A23668  13.014  13.106  11.466 -0.1129  0.0795  0.1720
 2017DOPE   C4A23669  13.024  13.444  11.760 -0.0670  0.1062  0.1298
 2017DOPE   C1B23670  13.330  12.643  11.317 -0.4198  0.2423 -0.1950
 2017DOPE   D2B23671  12.910  12.534  11.558 -0.2912 -0.1435 -0.0346
 2017DOPE   C3B23672  12.513  12.546  11.376 -0.1949  0.1285 -0.0129
 2017DOPE   C4B23673  12.027  12.533  11.432 -0.0227  0.1012  0.3263
 2018DOPE   NH323674  14.859  12.798  11.034 -0.2161 -0.1381 -0.2337
 2018DOPE   PO423675  14.537  12.665  11.074 -0.1279 -0.0671  0.2018
 2018DOPE   GL123676  14.085  12.781  11.129 -0.2121  0.0769 -0.1977
 2018DOPE   GL223677  14.201  12.982  11.273 -0.0256  0.0486  0.3322
 2018DOPE   C1A23678  13.687  13.059  11.108 -0.0219 -0.1507  0.0797
 2018DOPE   D2A23679  13.483  13.351  11.443  0.2215 -0.1033  0.0786
 2018DOPE   C3A23680  13.438  13.112  11.814  0.0195 -0.1388 -0.0811
 2018DOPE   C4A23681  13.051  12.887  11.912  0.0506 -0.1612 -0.1544
 2018DOPE   C1B23682  13.881  12.813  11.516 -0.3136 -0.0548 -0.1381
 2018DOPE   D2B23683  13.831  12.365  11.738  0.0971  0.0259 -0.1617
 2018DOPE   C3B23684  13.406  12.189  11.558 -0.0280 -0.3005 -0.0659
 2018DOPE   C4B23685  13.035  12.042  11.246  0.0396 -0.0147 -0.0322
 2019DOPS   CNO23686  15.531  12.857  10.644  0.0681 -0.4027  0.0110
 2019DOPS   PO423687  15.289  12.628  10.850  0.0097  0.1376 -0.1709
 2019DOPS   GL123688  15.369  12.550  11.260 -0.1957 -0.4029  0.3884
 2019DOPS   GL223689  15.617  12.347  11.150  0.0924 -0.3569  0.0434
 2019DOPS   C1A23690  15.617  12.505  11.709  0.0909  0.0289 -0.1525
 2019DOPS   D2A23691  15.689  12.625  12.155 -0.0290  0.0585 -0.0127
 2019DOPS   C3A23692  15.814  13.074  12.231 -0.2153  0.0029  0.2652
 2019DOPS   C4A23693  15.849  13.497  12.517  0.0971  0.1560 -0.1506
 2019DOPS   C1B23694  15.875  12.110  11.504 -0.0102 -0.0116 -0.1615
 2019DOPS   D2B23695  16.081  12.065  11.906  0.2190  0.1018 -0.1956
 2019DOPS   C3B23696  15.853  12.131  12.278  0.3868  0.1906  0.2079
 2019DOPS   C4B23697  15.612  11.921  12.665 -0.0325  0.0093 -0.2345
 2020POSM   NC323698  18.139  13.696  10.542  0.0755  0.1808 -0.0371
 2020POSM   PO423699  18.178  14.105  10.600  0.0897  0.1273  0.0744
 2020POSM   AM123700  18.305  14.138  10.910  0.0832  0.1796 -0.0514
 2020POSM   AM223701  18.300  14.373  11.100 -0.1546  0.1124 -0.0972
 2020POSM   T1A23702  18.572  13.968  11.274 -0.1114  0.0811  0.0109
 2020POSM   C2A23703  18.587  13.724  11.686  0.0975 -0.4033  0.1329
 2020POSM   C3A23704  18.793  13.834  12.089 -0.1078  0.0020 -0.3761
 2020POSM   C1B23705  18.416  14.465  11.399  0.2163 -0.0631 -0.1015
 2020POSM   D2B23706  18.261  14.651  11.775 -0.0566  0.1912 -0.2700
 2020POSM   C3B23707  18.051  14.382  12.055 -0.1331  0.2502 -0.0077
 2020POSM   C4B23708  17.782  14.024  11.874 -0.0055  0.0610 -0.2513
 2021POSM   NC323709  19.545  17.275  11.676  0.1569 -0.0046 -0.0069
 2021POSM   PO423710  19.740  17.365  11.357 -0.0783  0.2257  0.2515
 2021POSM   AM123711  19.964  17.235  11.558 -0.0217 -0.2064 -0.3038
 2021POSM   AM223712  20.039  16.979  11.685  0.1331  0.0846 -0.0601
 2021POSM   T1A23713  20.447  17.183  11.480 -0.2568  0.2376 -0.0194
 2021POSM   C2A23714  20.787  16.861  11.567 -0.0999  0.0927  0.0759
 2021POSM   C3A23715  21.108  16.594  11.789 -0.0186  0.3303  0.0897
 2021POSM   C1B23716  20.305  16.803  11.815 -0.1309 -0.0598 -0.0939
 2021POSM   D2B23717  20.656  16.575  12.006 -0.1370  0.2402  0.1550
 2021POSM   C3B23718  20.868  16.720  12.421  0.2902 -0.0226  0.1228
 2021POSM   C4B23719  21.105  16.722  12.875  0.1031  0.1229  0.0074
 2022DOPE   NH323720  19.483  15.347  10.836  0.1845  0.0075  0.2009
 2022DOPE   PO423721  19.756  15.358  10.667 -0.2976  0.2276 -0.0279
 2022DOPE   GL123722  19.913  14.962  10.774  0.2090 -0.1953 -0.0464
 2022DOPE   GL223723  20.035  14.759  10.603  0.2831 -0.0129  0.2992
 2022DOPE   C1A23724  19.951  14.707  11.179  0.0228  0.0062  0.1666
 2022DOPE   D2A23725  20.087  14.507  11.549 -0.2322  0.0732 -0.3096
 2022DOPE   C3A23726  20.455  14.303  11.779 -0.1609  0.1177 -0.0059
 2022DOPE   C4A23727  20.757  14.135  12.054 -0.0380  0.0327  0.0011
 2022DOPE   C1B23728  19.726  14.414  10.744  0.2762 -0.1441  0.1356
 2022DOPE   D2B23729  19.756  14.090  10.993 -0.0097  0.0332  0.1129
 2022DOPE   C3B23730  19.367  13.861  11.154 -0.0974  0.1763  0.2079
 2022DOPE   C4B23731  18.918  13.618  11.115  0.2432 -0.3598 -0.0821
 2023DOPS   CNO23732  12.808  23.565  11.557 -0.5223 -0.1602  0.0081
 2023DOPS   PO423733  13.121  23.468  11.750  0.1188  0.3449 -0.0181
 2023DOPS   GL123734  13.191  23.213  12.022  0.1065  0.0709  0.3272
 2023DOPS   GL223735  13.130  22.936  11.892 -0.0025 -0.3479  0.0208
 2023DOPS   C1A23736  13.355  23.109  12.458  0.1041 -0.0249 -0.4703
 2023DOPS   D2A23737  13.128  23.059  12.864 -0.0798  0.2417  0.1769
 2023DOPS   C3A23738  12.863  23.414  12.943 -0.2637 -0.1129 -0.2670
 2023DOPS   C4A23739  12.759  23.801  13.146 -0.1286  0.0191 -0.0117
 2023DOPS   C1B23740  13.282  22.615  12.154  0.0290  0.1424  0.0195
 2023DOPS   D2B23741  13.045  22.204  12.186  0.0215  0.2886  0.2420
 2023DOPS   C3B23742  13.336  22.124  12.501  0.1924  0.0409 -0.1856
 2023DOPS   C4B23743  13.384  21.781  12.862  0.1373  0.4044  0.1719
 2024DOPE   NH323744  16.845  20.592  10.783  0.1358 -0.1669 -0.1352
 2024DOPE   PO423745  16.938  20.304  10.856  0.0357  0.2229  0.1752
 2024DOPE   GL123746  17.279  20.282  11.078  0.1235  0.0836 -0.3227
 2024DOPE   GL223747  17.293  20.078  11.307  0.0251 -0.2759  0.1265
 2024DOPE   C1A23748  17.734  20.159  11.114 -0.1654 -0.0324  0.3442
 2024DOPE   D2A23749  18.200  20.321  11.204 -0.0932 -0.1519  0.1522
 2024DOPE   C3A23750  18.389  20.691  11.132 -0.0427  0.0299 -0.3848
 2024DOPE   C4A23751  18.372  21.135  11.059  0.2754  0.2644 -0.2168
 2024DOPE   C1B23752  17.483  19.617  11.303  0.0357 -0.2083  0.0702
 2024DOPE   D2B23753  17.924  19.419  11.324  0.1281  0.0439  0.3985
 2024DOPE   C3B23754  18.018  19.636  11.774 -0.0629 -0.2393  0.1775
 2024DOPE   C4B23755  18.071  19.991  12.091 -0.0105 -0.3347  0.0576
 2025POSM   NC323756  10.358  13.814  11.220  0.1269 -0.1355 -0.0320
 2025POSM   PO423757  10.468  14.187  11.347  0.3541  0.0193  0.0180
 2025POSM   AM123758  10.561  14.064  11.615 -0.0105  0.2459 -0.1102
 2025POSM   AM223759  10.487  14.051  11.932 -0.1836 -0.0673 -0.3566
 2025POSM   T1A23760  10.828  13.702  11.900 -0.1992  0.0579  0.1443
 2025POSM   C2A23761  11.100  13.442  12.152 -0.0942  0.0335  0.3559
 2025POSM   C3A23762  11.386  13.110  12.095 -0.3009 -0.3598  0.0947
 2025POSM   C1B23763  10.372  13.758  12.014 -0.1719 -0.1130  0.0970
 2025POSM   D2B23764   9.998  13.617  12.097  0.1772 -0.2406 -0.2308
 2025POSM   C3B23765   9.596  13.682  11.938 -0.0675 -0.1001  0.0072
 2025POSM   C4B23766   9.217  13.470  12.061 -0.1706 -0.1724 -0.1440
 2026POSM   NC323767  12.707  22.750  11.346  0.2711  0.0829 -0.1623
 2026POSM   PO423768  12.726  23.062  11.613  0.1031  0.1871 -0.0358
 2026POSM   AM123769  12.704  23.195  11.922  0.6148 -0.3095  0.0098
 2026POSM   AM223770  12.752  23.441  12.112  0.0925  0.1384 -0.2012
 2026POSM   T1A23771  12.823  23.076  12.433 -0.2388 -0.0975  0.1437
 2026POSM   C2A23772  12.884  22.617  12.575  0.1366  0.3249  0.1846
 2026POSM   C3A23773  12.882  22.178  12.722 -0.1480 -0.0331  0.1059
 2026POSM   C1B23774  12.725  23.532  12.421 -0.0684  0.0057 -0.1982
 2026POSM   D2B23775  12.463  23.833  12.748 -0.2603 -0.1463 -0.0937
 2026POSM   C3B23776  12.309  23.605  13.101  0.1348 -0.1908  0.2099
 2026POSM   C4B23777  12.576  23.438  13.483  0.0474  0.1129  0.1145
 2027DOPC   NC323778  15.342  20.404  11.150  0.0824  0.3979 -0.0142
 2027DOPC   PO423779  15.639  20.268  11.373 -0.3153 -0.0071  0.0829
 2027DOPC   GL123780  15.470  20.293  11.786 -0.2435 -0.2573 -0.0451
 2027DOPC   GL223781  15.522  20.461  12.040  0.5005  0.1136 -0.2469
 2027DOPC   C1A23782  15.288  20.108  12.178 -0.1511  0.4134 -0.0178
 2027DOPC   D2A23783  15.230  20.138  12.647  0.0338  0.0987 -0.0042
 2027DOPC   C3A23784  15.262  20.382  13.054  0.0308  0.1353  0.2390
 2027DOPC   C4A23785  15.214  20.281  13.506 -0.1071 -0.0550 -0.0804
 2027DOPC   C1B23786  15.284  20.564  12.351 -0.2317  0.1430 -0.2091
 2027DOPC   D2B23787  15.142  20.768  12.764 -0.3477 -0.0606  0.0095
 2027DOPC   C3B23788  14.857  21.053  12.842  0.1432  0.0013 -0.2000
 2027DOPC   C4B23789  14.724  21.336  13.231 -0.2974  0.0727  0.0290
 2028POSM   NC323790  10.880  19.446  11.643 -0.0764  0.2586 -0.0413
 2028POSM   PO423791  11.071  19.627  11.906 -0.1266  0.1943 -0.3674
 2028POSM   AM123792  11.206  19.525  12.198  0.0960  0.4287  0.1081
 2028POSM   AM223793  11.222  19.549  12.467 -0.1410  0.0434 -0.2272
 2028POSM   T1A23794  11.623  19.344  12.382  0.2810 -0.4454 -0.1697
 2028POSM   C2A23795  11.842  19.066  12.755 -0.6076 -0.1541 -0.0689
 2028POSM   C3A23796  11.697  18.851  13.086 -0.2362 -0.0910 -0.0493
 2028POSM   C1B23797  10.933  19.496  12.563 -0.1412  0.0400 -0.0931
 2028POSM   D2B23798  10.622  19.512  12.874 -0.2529  0.0862 -0.3775
 2028POSM   C3B23799  10.243  19.773  12.889 -0.4196 -0.1260 -0.0193
 2028POSM   C4B23800   9.913  20.003  13.172 -0.0555  0.1773  0.1368
 2029DOPE   NH323801  15.118  13.150  10.619 -0.1393 -0.3274 -0.1017
 2029DOPE   PO423802  15.360  13.346  10.720 -0.1100 -0.0472  0.0257
 2029DOPE   GL123803  15.340  13.638  10.944 -0.3793  0.0529  0.2958
 2029DOPE   GL223804  15.528  13.688  11.108  0.0365 -0.0533 -0.1733
 2029DOPE   C1A23805  15.157  13.963  11.273  0.0771 -0.0839  0.0234
 2029DOPE   D2A23806  15.272  14.019  11.733 -0.0924  0.3360  0.0620
 2029DOPE   C3A23807  15.627  13.791  11.567 -0.0682  0.1499  0.0600
 2029DOPE   C4A23808  15.887  13.388  11.447 -0.3444 -0.1119  0.2390
 2029DOPE   C1B23809  15.613  14.151  11.179 -0.1944  0.0524 -0.0720
 2029DOPE   D2B23810  16.002  14.422  11.279  0.4772  0.0778 -0.0186
 2029DOPE   C3B23811  16.397  14.308  11.432 -0.1584 -0.0951  0.2039
 2029DOPE   C4B23812  16.773  14.110  11.690  0.0559 -0.0349 -0.2275
 2030DOPS   CNO23813  14.011  16.825  10.854 -0.1103 -0.0081  0.4718
 2030DOPS   PO423814  14.009  16.480  10.792 -0.5047  0.3396  0.2607
 2030DOPS   GL123815  14.127  16.461  11.231 -0.1740 -0.3469  0.3657
 2030DOPS   GL223816  13.901  16.674  11.261 -0.0258 -0.2375 -0.0480
 2030DOPS   C1A23817  14.198  16.163  11.610 -0.2339 -0.0139  0.4466
 2030DOPS   D2A23818  14.262  15.831  11.919 -0.2001 -0.0055 -0.1074
 2030DOPS   C3A23819  13.908  15.737  12.159 -0.1332  0.2903  0.0038
 2030DOPS   C4A23820  13.796  15.695  12.630 -0.2101 -0.1319  0.2066
 2030DOPS   C1B23821  14.113  16.636  11.703  0.3011 -0.0598  0.0052
 2030DOPS   D2B23822  14.458  16.834  11.939 -0.3093 -0.1171 -0.3114
 2030DOPS   C3B23823  14.611  17.216  11.796 -0.0173  0.2337 -0.0888
 2030DOPS   C4B23824  14.842  17.504  11.497 -0.1648 -0.1419 -0.0728
 2031DOPC   NC323825  13.761  19.423  11.399 -0.0967 -0.4795 -0.0958
 2031DOPC   PO423826  13.556  19.823  11.312 -0.2989 -0.1210 -0.1096
 2031DOPC   GL123827  13.907  19.954  11.364 -0.1781  0.1549  0.1703
 2031DOPC   GL223828  14.012  20.191  11.383 -0.2264 -0.4146 -0.1917
 2031DOPC   C1A23829  14.219  19.615  11.508  0.4149 -0.0642 -0.2292
 2031DOPC   D2A23830  14.263  19.275  11.863  0.1082 -0.1951  0.3076
 2031DOPC   C3A23831  14.565  18.961  11.893  0.1135 -0.0504  0.1957
 2031DOPC   C4A23832  14.676  18.573  11.998  0.0070 -0.2558 -0.1267
 2031DOPC   C1B23833  14.225  20.045  11.737  0.2388 -0.3376 -0.0374
 2031DOPC   D2B23834  14.042  19.749  12.012 -0.1643 -0.0810 -0.1187
 2031DOPC   C3B23835  14.225  19.511  12.345  0.0486  0.1212 -0.0462
 2031DOPC   C4B23836  14.298  19.110  12.421 -0.1347 -0.0726 -0.2321
 2032DOPC   NC323837  19.002  21.843  11.626 -0.1170  0.0852 -0.1890
 2032DOPC   PO423838  19.226  22.137  11.496  0.0413 -0.2737  0.0596
 2032DOPC   GL123839  19.533  22.116  11.761 -0.0043  0.2836  0.0691
 2032DOPC   GL223840  19.504  22.247  11.940  0.0919 -0.2127  0.1550
 2032DOPC   C1A23841  19.840  21.799  11.905  0.1085 -0.1121  0.0772
 2032DOPC   D2A23842  19.663  21.318  11.949  0.1781 -0.0904 -0.1613
 2032DOPC   C3A23843  19.532  20.964  12.243 -0.1649 -0.0341  0.0599
 2032DOPC   C4A23844  19.413  20.515  12.229 -0.1034  0.1967  0.1227
 2032DOPC   C1B23845  19.627  22.112  12.357 -0.0076 -0.3524  0.2382
 2032DOPC   D2B23846  19.969  21.985  12.664 -0.2400  0.2969 -0.0479
 2032DOPC   C3B23847  20.217  21.717  12.400  0.0257 -0.0528 -0.2768
 2032DOPC   C4B23848  20.656  21.800  12.200 -0.2936  0.0842  0.1013
 2033DOPC   NC323849  12.665  15.627  10.891 -0.0761  0.3857  0.0588
 2033DOPC   PO423850  12.847  15.919  11.027  0.0436  0.0831  0.1302
 2033DOPC   GL123851  13.041  15.939  11.390 -0.2099 -0.0559 -0.1409
 2033DOPC   GL223852  12.816  16.133  11.506  0.0995  0.0716 -0.1560
 2033DOPC   C1A23853  13.306  16.137  11.721 -0.1805  0.1513  0.1826
 2033DOPC   D2A23854  13.370  15.855  12.072 -0.0183  0.0708 -0.1809
 2033DOPC   C3A23855  13.445  16.003  12.457  0.1097  0.2257 -0.0648
 2033DOPC   C4A23856  13.720  16.146  12.851 -0.0733  0.0078 -0.0520
 2033DOPC   C1B23857  12.774  16.461  11.862  0.1947  0.0507  0.0985
 2033DOPC   D2B23858  12.797  16.671  12.259  0.2751 -0.1388 -0.0976
 2033DOPC   C3B23859  13.153  16.929  12.313  0.2324 -0.0244  0.0988
 2033DOPC   C4B23860  13.461  17.303  12.386  0.2587  0.1953  0.2808
 2034DOPS   CNO23861  16.599  20.267  11.217  0.0168 -0.2518  0.1234
 2034DOPS   PO423862  16.444  20.594  11.049 -0.1969 -0.0619  0.0807
 2034DOPS   GL123863  16.831  20.590  11.313 -0.2085  0.0962  0.1834
 2034DOPS   GL223864  16.787  20.858  11.262  0.1591 -0.3481 -0.1472
 2034DOPS   C1A23865  16.894  20.783  11.792 -0.1334  0.1883  0.1254
 2034DOPS   D2A23866  16.936  20.830  12.241  0.1096 -0.1953 -0.1145
 2034DOPS   C3A23867  17.353  20.727  12.513 -0.5451 -0.0228  0.1801
 2034DOPS   C4A23868  17.775  20.656  12.683  0.2723 -0.2004  0.1692
 2034DOPS   C1B23869  16.606  21.122  11.692  0.1250  0.0303  0.0958
 2034DOPS   D2B23870  16.835  21.311  12.076 -0.2146  0.2115  0.1062
 2034DOPS   C3B23871  17.080  21.272  12.487 -0.0544  0.0066  0.1134
 2034DOPS   C4B23872  17.015  21.269  12.959 -0.0124  0.1165 -0.1186
 2035POSM   NC323873  12.395  10.842  11.443 -0.0723  0.0130  0.0876
 2035POSM   PO423874  12.217  10.717  11.812  0.2296  0.0317  0.1634
 2035POSM   AM123875  12.453  10.911  11.858  0.0981  0.3609 -0.0014
 2035POSM   AM223876  12.599  10.984  12.098 -0.0224 -0.1490  0.0503
 2035POSM   T1A23877  12.930  11.121  11.785  0.0169 -0.1055  0.2200
 2035POSM   C2A23878  13.324  11.075  11.813  0.0599  0.0466 -0.1512
 2035POSM   C3A23879  13.586  10.678  11.786  0.1245  0.1845  0.0197
 2035POSM   C1B23880  12.655  11.189  12.408 -0.3161  0.0763  0.1452
 2035POSM   D2B23881  12.660  11.220  12.861  0.1954 -0.1106 -0.3566
 2035POSM   C3B23882  12.410  11.635  13.001  0.2295 -0.2793 -0.0221
 2035POSM   C4B23883  12.040  11.809  12.840 -0.1858 -0.3041  0.1638
 2036POSM   NC323884  17.297  23.376  12.094  0.3873  0.0120  0.0206
 2036POSM   PO423885  17.447  23.008  12.181 -0.0559 -0.1778 -0.1309
 2036POSM   AM123886  17.291  22.759  12.348 -0.1509  0.2744 -0.1938
 2036POSM   AM223887  17.137  22.759  12.614 -0.2092  0.0936  0.0406
 2036POSM   T1A23888  16.994  22.374  12.353  0.1678  0.0148  0.1471
 2036POSM   C2A23889  16.758  22.062  12.638  0.1505 -0.3650 -0.1649
 2036POSM   C3A23890  16.977  21.811  12.925  0.0408  0.1079 -0.1239
 2036POSM   C1B23891  17.174  22.731  12.948  0.0427  0.0204 -0.3221
 2036POSM   D2B23892  17.249  22.570  13.391 -0.0613  0.0625 -0.0137
 2036POSM   C3B23893  17.314  22.974  13.678 -0.5612 -0.1350 -0.0386
 2036POSM   C4B23894  17.240  23.195  14.053  0.0638  0.1589  0.0597
 2037DOPE   NH323895  10.297  18.293  12.003 -0.0852 -0.0707 -0.0915
 2037DOPE   PO423896  10.609  18.302  11.948 -0.1837 -0.3275 -0.1241
 2037DOPE   GL123897  10.861  18.027  12.204 -0.2746  0.2243 -0.0717
 2037DOPE   GL223898  11.026  18.148  12.365  0.0489  0.1380 -0.4639
 2037DOPE   C1A23899  11.127  17.658  12.416  0.0826 -0.0808 -0.0341
 2037DOPE   D2A23900  11.295  17.299  12.672  0.0536  0.2448 -0.0598
 2037DOPE   C3A23901  11.208  17.092  13.068  0.0360 -0.0726  0.1082
 2037DOPE   C4A23902  11.144  17.025  13.497 -0.0336 -0.1348 -0.3646
 2037DOPE   C1B23903  11.197  18.448  12.686 -0.1775  0.1099 -0.1721
 2037DOPE   D2B23904  11.025  18.478  13.116  0.3037 -0.3037  0.0064
 2037DOPE   C3B23905  11.118  18.074  13.339  0.1295 -0.0330  0.2216
 2037DOPE   C4B23906  11.124  17.981  13.765 -0.1288 -0.0824 -0.0489
 2038DOPC   NC323907  17.607  10.706  12.319 -0.1549 -0.0823  0.3637
 2038DOPC   PO423908  17.684  10.492  11.971  0.0319 -0.1082 -0.0463
 2038DOPC   GL123909  17.350  10.496  11.954  0.1279  0.2032  0.1997
 2038DOPC   GL223910  17.333  10.512  11.600  0.1242  0.0025  0.1487
 2038DOPC   C1A23911  17.071  10.794  12.214 -0.0002  0.0489  0.3775
 2038DOPC   D2A23912  16.621  10.950  12.096 -0.2673 -0.1768 -0.0712
 2038DOPC   C3A23913  16.305  11.142  12.355  0.1900 -0.1548 -0.1606
 2038DOPC   C4A23914  15.887  11.095  12.552  0.0613 -0.0125 -0.0573
 2038DOPC   C1B23915  16.931  10.372  11.678 -0.0417  0.0412 -0.0446
 2038DOPC   D2B23916  16.606  10.090  11.760 -0.0508  0.2028  0.1274
 2038DOPC   C3B23917  16.464   9.854  11.368 -0.1034 -0.1369  0.4918
 2038DOPC   C4B23918  16.563   9.784  10.943 -0.0015 -0.0674  0.0139
 2039POSM   NC323919  23.352  14.553  12.255 -0.3476  0.2510  0.1853
 2039POSM   PO423920  23.009  14.773  12.249  0.2917  0.0115  0.0190
 2039POSM   AM123921  22.733  14.856  12.380  0.0732 -0.1630 -0.1526
 2039POSM   AM223922  22.591  14.946  12.614  0.1721 -0.1873 -0.1275
 2039POSM   T1A23923  22.255  14.728  12.299 -0.3534  0.0222 -0.1498
 2039POSM   C2A23924  21.794  14.650  12.275  0.1899 -0.3363 -0.2553
 2039POSM   C3A23925  21.447  14.720  11.926 -0.0069  0.4682 -0.4826
 2039POSM   C1B23926  22.334  14.837  12.832  0.0187 -0.0189  0.0868
 2039POSM   D2B23927  21.985  14.817  13.095  0.0685 -0.4365  0.2340
 2039POSM   C3B23928  21.923  14.407  13.145  0.1159  0.1408 -0.1432
 2039POSM   C4B23929  21.627  14.404  13.521 -0.1395  0.2685 -0.0604
 2040POSM   NC323930  17.176  19.833  10.875 -0.1107  0.0376 -0.0165
 2040POSM   PO423931  16.847  19.830  11.086  0.2294 -0.3441 -0.2854
 2040POSM   AM123932  16.943  19.718  11.391  0.0649 -0.0899 -0.2726
 2040POSM   AM223933  16.929  19.749  11.674 -0.2114 -0.0475 -0.1858
 2040POSM   T1A23934  17.038  19.267  11.633  0.0341 -0.1345  0.0407
 2040POSM   C2A23935  16.969  18.912  11.868  0.0877 -0.3105  0.2489
 2040POSM   C3A23936  16.843  18.498  11.958  0.0032 -0.2413  0.1882
 2040POSM   C1B23937  16.800  19.933  12.011  0.0491  0.0909 -0.1899
 2040POSM   D2B23938  16.859  19.914  12.456  0.0265  0.1197  0.0309
 2040POSM   C3B23939  17.106  19.606  12.626  0.0373 -0.0876  0.0969
 2040POSM   C4B23940  17.535  19.565  12.789  0.0797  0.0726 -0.0481
 2041DOPC   NC323941  14.222  31.781  15.290  0.0515 -0.3894 -0.1470
 2041DOPC   PO423942  14.450  31.511  15.124  0.0734  0.0684 -0.0305
 2041DOPC   GL123943  14.405  31.615  14.774  0.0466 -0.3406 -0.3183
 2041DOPC   GL223944  14.102  31.566  14.804  0.2180 -0.1259  0.0495
 2041DOPC   C1A23945  14.450  31.885  14.386  0.2514 -0.0477  0.0040
 2041DOPC   D2A23946  14.325  32.075  14.010 -0.2863  0.0320 -0.1461
 2041DOPC   C3A23947  14.393  31.880  13.634  0.0007 -0.0096 -0.2650
 2041DOPC   C4A23948  14.621  31.761  13.258 -0.0690  0.1904  0.0869
 2041DOPC   C1B23949  13.755  31.798  14.547 -0.1140  0.0638 -0.0273
 2041DOPC   D2B23950  13.699  31.692  14.068 -0.0846  0.1002  0.1104
 2041DOPC   C3B23951  13.940  31.872  13.685  0.1056 -0.1772  0.1320
 2041DOPC   C4B23952  14.048  31.702  13.262 -0.2647 -0.0554 -0.1727
 2042DOPC   NC323953  21.354  26.466  16.005  0.1261  0.1934  0.4100
 2042DOPC   PO423954  21.128  26.142  15.927  0.3345 -0.1358  0.0690
 2042DOPC   GL123955  21.089  26.200  15.566 -0.2029 -0.1063  0.1148
 2042DOPC   GL223956  21.360  26.386  15.489 -0.0512  0.2408 -0.0703
 2042DOPC   C1A23957  20.913  26.437  15.209 -0.0579 -0.0838  0.0181
 2042DOPC   D2A23958  20.572  26.745  15.179 -0.1051  0.0729 -0.2765
 2042DOPC   C3A23959  20.486  27.067  14.897  0.1389  0.0240 -0.1927
 2042DOPC   C4A23960  20.189  27.385  14.876  0.1874 -0.1441 -0.0758
 2042DOPC   C1B23961  21.624  26.703  15.240  0.0593  0.1606  0.3195
 2042DOPC   D2B23962  21.655  27.038  14.921 -0.2378  0.0659 -0.0124
 2042DOPC   C3B23963  21.634  27.100  14.508 -0.1332  0.1300 -0.2872
 2042DOPC   C4B23964  21.541  26.968  14.097 -0.0331 -0.1113  0.0628
 2043DOPE   NH323965  20.741  33.334  16.215  0.1352  0.2977  0.1104
 2043DOPE   PO423966  20.728  33.020  16.199  0.0091  0.1700  0.0392
 2043DOPE   GL123967  20.782  32.839  15.888 -0.2054 -0.0076  0.0918
 2043DOPE   GL223968  20.738  32.907  15.599 -0.1173 -0.1418  0.0929
 2043DOPE   C1A23969  21.241  32.789  15.768  0.0088  0.0513  0.1964
 2043DOPE   D2A23970  21.548  33.049  15.512  0.2937 -0.2460 -0.2081
 2043DOPE   C3A23971  21.484  33.063  15.076  0.0763 -0.1636 -0.0104
 2043DOPE   C4A23972  21.620  33.286  14.630  0.1035 -0.5760 -0.1262
 2043DOPE   C1B23973  20.975  32.710  15.260 -0.1269 -0.4509 -0.1351
 2043DOPE   D2B23974  21.191  32.730  14.891 -0.2574 -0.0614  0.1112
 2043DOPE   C3B23975  21.281  32.491  14.486 -0.3292 -0.0141  0.3364
 2043DOPE   C4B23976  21.164  32.565  14.064 -0.1596  0.0828  0.0844
 2044DOPE   NH323977  12.220  31.975  14.949 -0.0743  0.1736  0.0489
 2044DOPE   PO423978  12.416  32.226  15.027 -0.4369  0.1558  0.1090
 2044DOPE   GL123979  12.504  32.296  14.648  0.2685  0.0992 -0.0197
 2044DOPE   GL223980  12.540  31.968  14.502 -0.0533  0.0293  0.1609
 2044DOPE   C1A23981  12.895  32.363  14.390 -0.1316  0.1036 -0.0921
 2044DOPE   D2A23982  13.171  32.514  14.093  0.0273 -0.2656 -0.3027
 2044DOPE   C3A23983  13.330  32.593  13.705  0.1652  0.2210 -0.5878
 2044DOPE   C4A23984  13.242  32.333  13.264 -0.1823 -0.1334 -0.0780
 2044DOPE   C1B23985  12.257  32.004  14.073 -0.1061 -0.0554 -0.0119
 2044DOPE   D2B23986  12.003  32.198  13.784  0.0887  0.2857  0.1706
 2044DOPE   C3B23987  12.324  32.376  13.552  0.1040 -0.0241  0.4689
 2044DOPE   C4B23988  12.804  32.453  13.420 -0.2058  0.0166  0.1018
 2045DOPC   NC323989  20.171   0.470  15.911  0.1567  0.0407  0.0925
 2045DOPC   PO423990  20.384   0.172  16.081  0.0943  0.3637  0.0071
 2045DOPC   GL123991  20.392   0.019  15.744  0.0050 -0.1700  0.1553
 2045DOPC   GL223992  20.389   0.180  15.421  0.4771  0.0568 -0.0013
 2045DOPC   C1A23993  20.764  -0.225  15.660 -0.0111  0.1085 -0.1317
 2045DOPC   D2A23994  20.908  -0.452  15.293 -0.1924 -0.0381  0.2593
 2045DOPC   C3A23995  20.986  -0.362  14.863 -0.0507  0.0479  0.1803
 2045DOPC   C4A23996  21.235  -0.061  14.610  0.2699 -0.0027  0.0496
 2045DOPC   C1B23997  20.307  -0.312  15.406 -0.2429 -0.3064 -0.0593
 2045DOPC   D2B23998  20.383  -0.695  15.120  0.1470 -0.3987  0.0916
 2045DOPC   C3B23999  20.530  -0.546  14.715 -0.2908  0.1987  0.3274
 2045DOPC   C4B24000  20.509  -0.189  14.370 -0.1533 -0.0187  0.1891
 2046DOPC   NC324001  21.919  33.132  16.552  0.1100 -0.4347  0.0963
 2046DOPC   PO424002  21.982  32.854  16.346  0.1102 -0.0736 -0.1590
 2046DOPC   GL124003  22.045  32.970  16.000 -0.1884 -0.2060 -0.0402
 2046DOPC   GL224004  21.896  32.813  15.819 -0.1608 -0.1617 -0.2162
 2046DOPC   C1A24005  22.378  33.192  15.741 -0.0068 -0.2298  0.0843
 2046DOPC   D2A24006  22.426  33.540  15.460  0.1094  0.0449  0.0382
 2046DOPC   C3A24007  22.372  34.005  15.298 -0.0412  0.0803 -0.2177
 2046DOPC   C4A24008  22.511  34.348  14.992 -0.2426  0.3336  0.2573
 2046DOPC   C1B24009  22.107  32.819  15.364 -0.1047 -0.1373  0.4188
 2046DOPC   D2B24010  21.937  33.007  14.960 -0.1072  0.1374 -0.0324
 2046DOPC   C3B24011  21.771  32.827  14.543 -0.2008  0.1248 -0.2085
 2046DOPC   C4B24012  21.689  32.778  14.095 -0.0366 -0.1004 -0.2121
 2047POSM   NC324013  15.661  26.837  15.417 -0.0450 -0.1146 -0.0336
 2047POSM   PO424014  15.286  26.826  15.583  0.1277 -0.3224 -0.2223
 2047POSM   AM124015  15.147  27.061  15.356 -0.0576 -0.3772  0.0706
 2047POSM   AM224016  15.310  27.141  15.145 -0.1237  0.2013 -0.1288
 2047POSM   T1A24017  14.738  27.199  15.045 -0.0971 -0.1947 -0.3593
 2047POSM   C2A24018  14.488  27.181  14.676  0.0396 -0.0130 -0.2267
 2047POSM   C3A24019  14.057  27.061  14.586  0.1623 -0.0827  0.2514
 2047POSM   C1B24020  15.369  27.018  14.797 -0.3366 -0.2095 -0.0355
 2047POSM   D2B24021  15.317  26.703  14.454  0.3107 -0.2384 -0.1998
 2047POSM   C3B24022  15.633  26.594  14.092 -0.1235  0.1384 -0.1877
 2047POSM   C4B24023  15.773  26.354  13.741 -0.1095 -0.1323 -0.0527
 2048DOPS   CNO24024  19.847  32.547  16.055 -0.3232  0.1086  0.0166
 2048DOPS   PO424025  19.852  32.866  15.816  0.1176 -0.1408 -0.0072
 2048DOPS   GL124026  20.103  32.926  15.460 -0.3893 -0.5785 -0.0298
 2048DOPS   GL224027  19.968  32.737  15.311  0.1459  0.1249 -0.0658
 2048DOPS   C1A24028  20.052  33.252  15.171  0.3431 -0.0502  0.1392
 2048DOPS   D2A24029  20.138  33.574  14.845  0.2019  0.0287 -0.2200
 2048DOPS   C3A24030  19.845  33.706  14.503  0.3581  0.3029  0.0860
 2048DOPS   C4A24031  19.579  33.801  14.158  0.0699  0.1866 -0.4029
 2048DOPS   C1B24032  20.091  32.702  14.874  0.5979  0.3597  0.0010
 2048DOPS   D2B24033  20.129  32.541  14.456 -0.0219  0.1548  0.0603
 2048DOPS   C3B24034  20.503  32.512  14.112  0.1875  0.0168 -0.1579
 2048DOPS   C4B24035  20.430  32.524  13.604  0.0879 -0.2659 -0.2057
 2049DOPC   NC324036  17.530  26.801  15.988  0.1943 -0.0712 -0.1408
 2049DOPC   PO424037  17.569  26.589  16.336  0.0502 -0.3279  0.4526
 2049DOPC   GL124038  17.515  26.304  16.158 -0.1174  0.4089  0.0215
 2049DOPC   GL224039  17.240  26.407  15.913 -0.2306  0.0037  0.1354
 2049DOPC   C1A24040  17.656  26.341  15.697  0.1541  0.2132  0.0386
 2049DOPC   D2A24041  18.042  26.067  15.513  0.0910 -0.3110 -0.1579
 2049DOPC   C3A24042  17.968  25.994  15.049  0.3103 -0.1011 -0.1313
 2049DOPC   C4A24043  17.699  25.990  14.626  0.0044  0.1259 -0.2020
 2049DOPC   C1B24044  17.165  26.196  15.514 -0.3269 -0.3539 -0.0251
 2049DOPC   D2B24045  16.772  26.373  15.325  0.1776  0.1545  0.3052
 2049DOPC   C3B24046  16.387  26.359  15.074 -0.2498 -0.1121 -0.1835
 2049DOPC   C4B24047  16.117  26.012  14.902 -0.0965  0.1536  0.0975
 2050DOPE   NH324048  13.549  29.101  15.412 -0.1588  0.2412  0.0426
 2050DOPE   PO424049  13.863  29.124  15.392 -0.2193  0.1114  0.2441
 2050DOPE   GL124050  14.090  29.164  15.027  0.1019  0.4431 -0.1645
 2050DOPE   GL224051  14.440  29.190  14.904 -0.0912  0.0365 -0.0396
 2050DOPE   C1A24052  14.124  29.150  14.547 -0.2402  0.3634 -0.0414
 2050DOPE   D2A24053  14.360  29.033  14.177 -0.0219 -0.0365  0.3419
 2050DOPE   C3A24054  13.989  29.214  13.854  0.1676  0.1570  0.1972
 2050DOPE   C4A24055  13.963  29.388  13.405  0.0804 -0.1254 -0.1955
 2050DOPE   C1B24056  14.701  29.264  14.538 -0.1438  0.0057  0.1245
 2050DOPE   D2B24057  14.754  29.309  14.110  0.4604  0.0413 -0.0313
 2050DOPE   C3B24058  15.075  29.248  13.692  0.4461 -0.0013 -0.4090
 2050DOPE   C4B24059  15.437  28.922  13.702 -0.0753  0.1181  0.1984
 2051POSM   NC324060  20.374  33.068  15.872  0.1216 -0.0775  0.1062
 2051POSM   PO424061  20.329  32.743  16.097  0.4349 -0.4214 -0.1037
 2051POSM   AM124062  20.379  32.485  15.917  0.3206  0.0092  0.2432
 2051POSM   AM224063  20.246  32.446  15.668 -0.4935 -0.1472 -0.1042
 2051POSM   T1A24064  20.455  32.013  15.720 -0.0550 -0.2647 -0.1539
 2051POSM   C2A24065  20.466  31.686  15.428  0.2175  0.0968 -0.1544
 2051POSM   C3A24066  20.363  31.328  15.170 -0.0332  0.0279  0.1923
 2051POSM   C1B24067  20.451  32.518  15.400 -0.1082 -0.2730  0.0379
 2051POSM   D2B24068  20.613  32.559  14.908 -0.0354  0.5330  0.2834
 2051POSM   C3B24069  20.601  32.315  14.527  0.1209 -0.3926  0.3534
 2051POSM   C4B24070  20.867  32.136  14.188  0.1313  0.2189 -0.0113
 2052DOPS   CNO24071  17.274  33.830  15.904 -0.0793  0.3261  0.2426
 2052DOPS   PO424072  17.534  33.978  15.687 -0.0381 -0.0153 -0.0721
 2052DOPS   GL124073  17.639  33.988  15.336  0.0924  0.2110 -0.1392
 2052DOPS   GL224074  17.634  34.270  15.291 -0.1994  0.2513  0.0696
 2052DOPS   C1A24075  17.481  33.957  14.883  0.1694 -0.0914 -0.2997
 2052DOPS   D2A24076  17.389  33.748  14.452 -0.0634  0.0235  0.2966
 2052DOPS   C3A24077  17.756  33.834  14.132  0.1121 -0.1762 -0.3770
 2052DOPS   C4A24078  18.058  33.888  13.794 -0.0272  0.1406 -0.2801
 2052DOPS   C1B24079  17.417  34.433  14.928  0.0739  0.1981 -0.0017
 2052DOPS   D2B24080  17.266  34.575  14.527  0.2746  0.0724  0.1954
 2052DOPS   C3B24081  17.082  34.506  14.088  0.0294  0.0025 -0.0431
 2052DOPS   C4B24082  17.127  34.267  13.688  0.1221 -0.1226 -0.0528
 2053DOPC   NC324083  21.532  25.346  15.855 -0.2930  0.1693 -0.1415
 2053DOPC   PO424084  21.831  25.584  15.979  0.2623  0.1335  0.1351
 2053DOPC   GL124085  21.962  25.651  15.668 -0.2670 -0.1979 -0.2201
 2053DOPC   GL224086  21.816  25.690  15.421 -0.4404  0.2057 -0.2482
 2053DOPC   C1A24087  22.305  25.423  15.398  0.0098 -0.0609  0.2507
 2053DOPC   D2A24088  22.448  25.385  14.942  0.1113 -0.1940 -0.3144
 2053DOPC   C3A24089  22.692  25.291  14.604 -0.0799  0.0105  0.3248
 2053DOPC   C4A24090  22.983  25.026  14.338 -0.2341  0.0817  0.3139
 2053DOPC   C1B24091  21.776  25.702  14.997  0.0874  0.0266  0.2038
 2053DOPC   D2B24092  21.756  25.511  14.550  0.0905 -0.0851  0.1753
 2053DOPC   C3B24093  21.701  25.131  14.222  0.0165  0.1856  0.4129
 2053DOPC   C4B24094  21.368  24.925  13.913  0.1063 -0.0798  0.1573
 2054DOPE   NH324095  17.316  28.521  16.051 -0.1548 -0.3972  0.0516
 2054DOPE   PO424096  17.244  28.262  15.883  0.0211  0.0799 -0.0355
 2054DOPE   GL124097  17.264  27.945  15.577  0.0345  0.0293  0.2515
 2054DOPE   GL224098  17.178  27.966  15.306  0.2858  0.0767 -0.3820
 2054DOPE   C1A24099  17.565  27.627  15.394  0.0715 -0.0182 -0.2565
 2054DOPE   D2A24100  17.733  27.417  15.059 -0.0395  0.2647  0.0222
 2054DOPE   C3A24101  17.710  26.944  15.107 -0.0880 -0.0793 -0.2097
 2054DOPE   C4A24102  17.677  26.469  15.174  0.2662  0.1582 -0.0808
 2054DOPE   C1B24103  17.413  28.019  14.959 -0.1258 -0.0313  0.2809
 2054DOPE   D2B24104  17.661  28.250  14.678  0.2257  0.2441 -0.1085
 2054DOPE   C3B24105  17.687  28.363  14.210 -0.0033  0.0607 -0.2072
 2054DOPE   C4B24106  17.745  28.592  13.903  0.2661  0.0005  0.3709
 2055DOPE   NH324107  16.811  28.137  15.655  0.2055 -0.2005 -0.3087
 2055DOPE   PO424108  16.702  27.955  15.449  0.0982 -0.2594  0.1862
 2055DOPE   GL124109  16.833  28.219  15.218  0.1782 -0.0352  0.2821
 2055DOPE   GL224110  16.667  28.502  15.223  0.1619  0.1401  0.0655
 2055DOPE   C1A24111  16.960  28.257  14.756 -0.3765  0.1703 -0.1367
 2055DOPE   D2A24112  17.215  28.149  14.434 -0.0168 -0.1718 -0.1350
 2055DOPE   C3A24113  16.993  27.971  14.080  0.0229  0.3031  0.0216
 2055DOPE   C4A24114  16.858  27.981  13.620  0.0509  0.2231  0.0238
 2055DOPE   C1B24115  16.616  28.596  14.760  0.0683 -0.4360 -0.1317
 2055DOPE   D2B24116  16.434  28.880  14.448 -0.0706  0.1380 -0.0458
 2055DOPE   C3B24117  16.251  28.757  14.071  0.5666  0.2833  0.0826
 2055DOPE   C4B24118  15.890  28.739  13.763  0.0524 -0.1939 -0.3549
 2056DOPC   NC324119  19.499  33.956  16.571  0.0950  0.2295 -0.1254
 2056DOPC   PO424120  19.465  33.949  16.175 -0.3950 -0.0769  0.2791
 2056DOPC   GL124121  19.443  33.696  15.799  0.1498  0.1525 -0.0922
 2056DOPC   GL224122  19.534  33.923  15.562  0.0146 -0.0564  0.0178
 2056DOPC   C1A24123  19.320  33.558  15.338  0.2645  0.4167 -0.1182
 2056DOPC   D2A24124  19.136  33.413  14.916 -0.2855  0.2294  0.3529
 2056DOPC   C3A24125  19.310  33.552  14.498  0.0263  0.2247  0.0943
 2056DOPC   C4A24126  19.610  33.265  14.336 -0.1499 -0.0510 -0.1390
 2056DOPC   C1B24127  19.900  34.220  15.671  0.0950 -0.0990  0.1133
 2056DOPC   D2B24128  19.969  34.703  15.612 -0.2789 -0.0858 -0.1501
 2056DOPC   C3B24129  19.838  34.779  15.160  0.1957 -0.2099 -0.4939
 2056DOPC   C4B24130  19.603  34.496  14.835  0.0834 -0.0046  0.4007
 2057POSM   NC324131  21.120  29.586  17.179 -0.1634 -0.0236 -0.0254
 2057POSM   PO424132  21.322  29.790  16.875 -0.0627 -0.0923 -0.2876
 2057POSM   AM124133  21.190  29.871  16.575 -0.1945  0.4046 -0.0217
 2057POSM   AM224134  21.189  29.696  16.371  0.0579  0.4500 -0.1921
 2057POSM   T1A24135  21.056  30.244  16.262  0.2694 -0.1973 -0.0357
 2057POSM   C2A24136  20.745  30.376  15.990 -0.0764  0.0770  0.1065
 2057POSM   C3A24137  20.418  30.215  15.632  0.0079  0.1193 -0.1699
 2057POSM   C1B24138  21.329  29.798  16.076 -0.0162  0.2536  0.1360
 2057POSM   D2B24139  21.482  29.786  15.617 -0.0720 -0.0155 -0.0025
 2057POSM   C3B24140  21.587  30.137  15.376  0.1246  0.1172  0.2000
 2057POSM   C4B24141  21.416  30.257  14.914  0.2141 -0.2240  0.1444
 2058DOPE   NH324142  11.708  31.830  14.933  0.3245 -0.0445 -0.2370
 2058DOPE   PO424143  11.729  32.165  14.943  0.3043  0.0834 -0.2168
 2058DOPE   GL124144  11.973  32.165  14.618  0.1658 -0.0974  0.2786
 2058DOPE   GL224145  11.799  32.037  14.345  0.1451  0.0095  0.0418
 2058DOPE   C1A24146  12.215  32.461  14.329 -0.0214  0.0386  0.3844
 2058DOPE   D2A24147  12.580  32.544  14.051  0.1002 -0.0548 -0.2633
 2058DOPE   C3A24148  12.740  32.194  13.906 -0.0015  0.0602  0.0523
 2058DOPE   C4A24149  13.141  32.001  13.998 -0.2767  0.2856 -0.1389
 2058DOPE   C1B24150  11.465  32.298  14.156  0.1889  0.0730  0.0863
 2058DOPE   D2B24151  11.338  32.703  13.992  0.1486 -0.3240  0.0992
 2058DOPE   C3B24152  11.593  32.518  13.650 -0.3326  0.3554  0.1936
 2058DOPE   C4B24153  11.832  32.482  13.221  0.0578  0.1237 -0.0427
 2059DOPS   CNO24154  16.230  24.788  16.096 -0.2978 -0.2595 -0.0510
 2059DOPS   PO424155  16.041  25.030  15.905 -0.0131 -0.0168 -0.0146
 2059DOPS   GL124156  16.254  25.356  15.687 -0.0002 -0.1632 -0.3128
 2059DOPS   GL224157  15.951  25.391  15.536 -0.1223  0.3546  0.0162
 2059DOPS   C1A24158  16.680  25.414  15.569 -0.0441 -0.3057  0.2531
 2059DOPS   D2A24159  16.919  25.381  15.181 -0.0920 -0.0466  0.0058
 2059DOPS   C3A24160  16.578  25.213  14.991 -0.0278  0.2393 -0.1568
 2059DOPS   C4A24161  16.165  25.070  14.803  0.0347 -0.0904  0.0596
 2059DOPS   C1B24162  16.267  25.496  15.207 -0.0284 -0.1369 -0.1478
 2059DOPS   D2B24163  16.307  25.545  14.735 -0.0528 -0.0100 -0.2108
 2059DOPS   C3B24164  16.067  25.711  14.368  0.3569 -0.1028  0.2134
 2059DOPS   C4B24165  15.936  25.537  13.928  0.4232  0.0938  0.1317
 2060POSM   NC324166  18.612  31.384  16.625 -0.3452 -0.0953  0.0818
 2060POSM   PO424167  18.293  31.259  16.380  0.0902 -0.0652 -0.1625
 2060POSM   AM124168  18.356  31.296  16.044  0.3144  0.0258  0.1088
 2060POSM   AM224169  18.366  31.497  15.797  0.0885  0.1614  0.2977
 2060POSM   T1A24170  18.372  31.099  15.575  0.4165  0.0831  0.1777
 2060POSM   C2A24171  18.448  30.939  15.153  0.0298 -0.1294 -0.1057
 2060POSM   C3A24172  18.614  30.678  14.813 -0.1817  0.1586  0.5758
 2060POSM   C1B24173  18.526  31.568  15.527 -0.0582  0.2869  0.1545
 2060POSM   D2B24174  18.624  31.501  15.084 -0.1207 -0.1339  0.0794
 2060POSM   C3B24175  18.452  31.374  14.688  0.5253 -0.0845  0.2665
 2060POSM   C4B24176  18.024  31.423  14.491  0.0287 -0.1832  0.2266
 2061POSM   NC324177  17.077  31.383  15.381  0.0653  0.1289  0.1877
 2061POSM   PO424178  16.666  31.330  15.353  0.0016  0.1846 -0.0704
 2061POSM   AM124179  16.699  31.455  15.087 -0.1405 -0.0599  0.0390
 2061POSM   AM224180  16.840  31.666  14.966  0.1664  0.1899  0.1045
 2061POSM   T1A24181  16.381  31.474  14.699 -0.1245  0.0333  0.2576
 2061POSM   C2A24182  16.045  31.223  14.455  0.3077 -0.2895  0.0849
 2061POSM   C3A24183  15.778  30.886  14.464  0.0393  0.0116 -0.0632
 2061POSM   C1B24184  16.704  31.857  14.718  0.4144 -0.0842  0.3511
 2061POSM   D2B24185  16.380  31.894  14.422 -0.1063 -0.0996 -0.1456
 2061POSM   C3B24186  16.431  31.452  14.190  0.1695 -0.1570 -0.0984
 2061POSM   C4B24187  16.521  31.372  13.740 -0.2492 -0.1313  0.1514
 2062DOPC   NC324188  14.771  24.057  15.089 -0.2286  0.0863  0.0410
 2062DOPC   PO424189  14.514  24.278  15.254 -0.0827  0.0133  0.3025
 2062DOPC   GL124190  14.533  24.510  14.877 -0.2018  0.0160  0.0981
 2062DOPC   GL224191  14.781  24.387  14.656 -0.3534 -0.4431  0.2184
 2062DOPC   C1A24192  14.316  24.526  14.456 -0.2744 -0.0961  0.1970
 2062DOPC   D2A24193  14.461  24.689  14.043  0.1421  0.1673  0.2402
 2062DOPC   C3A24194  14.381  24.451  13.669 -0.3199 -0.2436  0.0083
 2062DOPC   C4A24195  14.146  24.268  13.341 -0.0169 -0.0074 -0.0233
 2062DOPC   C1B24196  14.913  24.166  14.340  0.2159  0.2841  0.3560
 2062DOPC   D2B24197  15.019  23.717  14.136  0.0064  0.1577 -0.1330
 2062DOPC   C3B24198  15.300  23.632  13.781 -0.0661 -0.1271  0.2237
 2062DOPC   C4B24199  15.413  23.465  13.361  0.1890 -0.0747  0.2818
 2063DOPS   CNO24200  19.519  27.484  16.681  0.0769 -0.0456 -0.1923
 2063DOPS   PO424201  19.195  27.579  16.456  0.4261  0.3527 -0.0492
 2063DOPS   GL124202  19.019  27.577  16.120  0.0378  0.0688 -0.0200
 2063DOPS   GL224203  19.241  27.671  15.895  0.1512  0.2362 -0.1498
 2063DOPS   C1A24204  19.034  27.252  15.766  0.0066  0.0530  0.1412
 2063DOPS   D2A24205  19.037  26.930  15.502  0.2701 -0.3661  0.0398
 2063DOPS   C3A24206  19.162  26.835  15.078  0.2106 -0.0616  0.0343
 2063DOPS   C4A24207  19.334  26.944  14.674  0.2992 -0.1753 -0.0507
 2063DOPS   C1B24208  19.088  27.649  15.479 -0.0011 -0.1515  0.2767
 2063DOPS   D2B24209  19.071  27.897  15.060 -0.0937 -0.0520 -0.3682
 2063DOPS   C3B24210  19.361  28.060  14.637 -0.1503  0.0682  0.3265
 2063DOPS   C4B24211  19.391  28.184  14.124  0.0309  0.2794 -0.0848
 2064DOPE   NH324212  20.335  33.755  16.411  0.2459  0.0224 -0.1271
 2064DOPE   PO424213  20.506  33.730  16.160  0.0439  0.2695 -0.1611
 2064DOPE   GL124214  20.773  33.635  15.823 -0.2827  0.2347 -0.0450
 2064DOPE   GL224215  20.855  33.362  15.689  0.3255  0.3523 -0.5597
 2064DOPE   C1A24216  21.135  33.875  15.681  0.3258  0.1548  0.1989
 2064DOPE   D2A24217  21.463  34.067  15.454 -0.4383  0.2222  0.0867
 2064DOPE   C3A24218  21.726  34.010  15.107 -0.1166  0.1811 -0.2684
 2064DOPE   C4A24219  22.110  34.045  14.818 -0.2208 -0.1026  0.0521
 2064DOPE   C1B24220  21.092  33.191  15.338 -0.0748 -0.2008 -0.2937
 2064DOPE   D2B24221  21.117  33.352  14.873  0.3606  0.0116 -0.4012
 2064DOPE   C3B24222  20.809  33.215  14.557  0.0067  0.1653 -0.3374
 2064DOPE   C4B24223  20.767  32.802  14.449  0.1508  0.0053  0.0496
 2065POSM   NC324224  21.647  28.666  16.442 -0.0598 -0.0658  0.1485
 2065POSM   PO424225  21.988  28.764  16.422 -0.1251  0.1577  0.4330
 2065POSM   AM124226  22.043  28.777  16.115 -0.3063  0.1538  0.0610
 2065POSM   AM224227  22.261  28.854  15.930 -0.0602  0.1731  0.1338
 2065POSM   T1A24228  21.789  28.665  15.724  0.0652  0.0819  0.0020
 2065POSM   C2A24229  21.534  28.499  15.324 -0.2936  0.1192  0.0900
 2065POSM   C3A24230  21.334  28.336  14.973  0.0917  0.0955 -0.0383
 2065POSM   C1B24231  22.279  28.916  15.585 -0.2926 -0.2237  0.1163
 2065POSM   D2B24232  22.300  28.805  15.128  0.0185 -0.2735  0.3940
 2065POSM   C3B24233  22.696  28.692  14.990  0.1006  0.0848  0.1851
 2065POSM   C4B24234  23.075  28.774  14.689 -0.1085 -0.4563  0.2113
 2066POSM   NC324235  22.896  25.067  16.414  0.1967  0.3620 -0.3937
 2066POSM   PO424236  22.687  25.283  16.158 -0.0902 -0.0520 -0.1797
 2066POSM   AM124237  22.829  25.310  15.845 -0.1151 -0.2919 -0.1350
 2066POSM   AM224238  23.005  25.559  15.771  0.3291 -0.0008 -0.1818
 2066POSM   T1A24239  22.796  25.310  15.373 -0.0079 -0.0955 -0.0603
 2066POSM   C2A24240  23.029  25.340  14.981  0.2094  0.0935  0.2934
 2066POSM   C3A24241  23.301  25.138  14.670 -0.1337 -0.0321 -0.0475
 2066POSM   C1B24242  23.243  25.467  15.521  0.0813  0.0393  0.2387
 2066POSM   D2B24243  23.475  25.168  15.215 -0.1209 -0.0306  0.3424
 2066POSM   C3B24244  23.182  24.843  15.105  0.0858 -0.4709 -0.0718
 2066POSM   C4B24245  22.869  24.704  14.764  0.1175  0.3028  0.1317
 2067DOPC   NC324246  13.241  31.770  15.179  0.2178  0.1324  0.0001
 2067DOPC   PO424247  13.326  32.156  15.133  0.0513  0.0945  0.1218
 2067DOPC   GL124248  13.371  31.954  14.766 -0.2025 -0.0664  0.0299
 2067DOPC   GL224249  13.299  32.220  14.621 -0.1978  0.3092 -0.0230
 2067DOPC   C1A24250  13.032  31.755  14.493  0.1450 -0.1163  0.1023
 2067DOPC   D2A24251  12.879  31.347  14.285 -0.2349 -0.2645 -0.2537
 2067DOPC   C3A24252  12.616  31.236  13.875  0.2539  0.2787 -0.3188
 2067DOPC   C4A24253  12.475  31.375  13.443 -0.3509  0.1781 -0.2794
 2067DOPC   C1B24254  13.705  32.387  14.607  0.2471  0.3617 -0.0510
 2067DOPC   D2B24255  14.076  32.205  14.581 -0.0180  0.0142 -0.0235
 2067DOPC   C3B24256  14.525  32.393  14.626 -0.1711 -0.0149 -0.1102
 2067DOPC   C4B24257  14.759  32.699  14.389  0.1627 -0.2782  0.5976
 2068DOPC   NC324258  12.611  26.252  14.895  0.0318  0.0159 -0.1495
 2068DOPC   PO424259  12.990  26.168  14.822 -0.0027  0.2713  0.0141
 2068DOPC   GL124260  13.042  25.977  14.527  0.2849 -0.0576 -0.1700
 2068DOPC   GL224261  13.107  25.684  14.500 -0.1707 -0.0058  0.1524
 2068DOPC   C1A24262  13.307  25.988  14.134 -0.1046 -0.0718  0.1205
 2068DOPC   D2A24263  13.507  26.037  13.707 -0.1247 -0.2012  0.0556
 2068DOPC   C3A24264  13.229  26.075  13.280 -0.3545 -0.2554  0.1731
 2068DOPC   C4A24265  13.037  26.112  12.874  0.1673  0.1988  0.1312
 2068DOPC   C1B24266  13.097  25.410  14.130 -0.1836  0.0899  0.0210
 2068DOPC   D2B24267  13.146  25.677  13.728 -0.2568 -0.2071 -0.3470
 2068DOPC   C3B24268  12.749  25.866  13.498  0.2250  0.0703 -0.0124
 2068DOPC   C4B24269  12.583  26.053  13.081 -0.0359 -0.1252 -0.2320
 2069POSM   NC324270  18.053  24.114  16.020  0.0886  0.3073  0.2621
 2069POSM   PO424271  18.193  23.753  16.172 -0.0841 -0.2066 -0.0779
 2069POSM   AM124272  18.051  23.644  15.871 -0.0618  0.3214  0.2703
 2069POSM   AM224273  17.889  23.771  15.673  0.3806 -0.0309 -0.0376
 2069POSM   T1A24274  18.007  23.273  15.491 -0.2132 -0.1546  0.0347
 2069POSM   C2A24275  18.153  22.960  15.144 -0.0709  0.1718 -0.0064
 2069POSM   C3A24276  17.986  22.764  14.755 -0.0896  0.2151 -0.0021
 2069POSM   C1B24277  18.131  23.935  15.461 -0.0237 -0.0797  0.0466
 2069POSM   D2B24278  18.526  23.804  15.246  0.0023  0.0925  0.2373
 2069POSM   C3B24279  18.421  23.829  14.802 -0.1628  0.2696 -0.2267
 2069POSM   C4B24280  18.623  23.789  14.359 -0.2988  0.0703 -0.5814
 2070POSM   NC324281  22.167  28.184  16.470  0.1145  0.0504 -0.1072
 2070POSM   PO424282  22.477  28.032  16.640 -0.1022 -0.0105  0.1460
 2070POSM   AM124283  22.570  27.979  16.304 -0.2523 -0.2148 -0.0948
 2070POSM   AM224284  22.746  27.903  16.104  0.0144 -0.0549  0.1114
 2070POSM   T1A24285  22.344  27.957  15.834  0.1300 -0.0707 -0.1511
 2070POSM   C2A24286  22.026  27.985  15.475 -0.0668  0.0039 -0.0862
 2070POSM   C3A24287  22.065  27.871  14.977  0.2237 -0.0009  0.3495
 2070POSM   C1B24288  22.947  28.023  15.825  0.0370 -0.1568  0.3408
 2070POSM   D2B24289  23.157  27.933  15.442 -0.4977  0.0796 -0.1597
 2070POSM   C3B24290  23.433  28.256  15.262 -0.1402 -0.3798 -0.1025
 2070POSM   C4B24291  23.699  28.535  15.024 -0.0203  0.1481  0.1460
 2071DOPE   NH324292  20.935  33.960  16.469 -0.2800  0.1154  0.1288
 2071DOPE   PO424293  21.081  33.725  16.313  0.2607  0.1773  0.0959
 2071DOPE   GL124294  21.335  33.922  16.142  0.1992 -0.0161  0.3559
 2071DOPE   GL224295  21.538  34.144  16.133 -0.3093 -0.1781 -0.2241
 2071DOPE   C1A24296  21.675  33.823  15.819 -0.1190 -0.1359 -0.3247
 2071DOPE   D2A24297  21.977  33.774  15.560 -0.0218  0.0610 -0.1440
 2071DOPE   C3A24298  21.987  34.240  15.563  0.3671 -0.4201  0.3299
 2071DOPE   C4A24299  21.791  34.669  15.731 -0.2184  0.0562  0.4067
 2071DOPE   C1B24300  22.011  34.222  16.046  0.0479  0.1080 -0.0606
 2071DOPE   D2B24301  22.364  34.107  16.264 -0.2889  0.3471  0.1379
 2071DOPE   C3B24302  22.783  33.865  16.311 -0.0940  0.0662  0.0015
 2071DOPE   C4B24303  23.173  33.641  16.135  0.1314 -0.1824 -0.2966
 2072DOPC   NC324304  18.204  32.835  15.741  0.0434 -0.3829  0.0748
 2072DOPC   PO424305  18.570  32.896  15.870 -0.0798 -0.2259  0.0654
 2072DOPC   GL124306  18.722  32.849  15.535  0.0527  0.0549  0.1187
 2072DOPC   GL224307  18.894  32.632  15.424 -0.3313 -0.0339 -0.0970
 2072DOPC   C1A24308  18.445  33.044  15.251 -0.0884  0.1652  0.2809
 2072DOPC   D2A24309  18.300  33.390  15.024  0.1332 -0.1472  0.1649
 2072DOPC   C3A24310  18.411  33.830  14.856  0.5316  0.1886  0.0030
 2072DOPC   C4A24311  18.659  34.044  14.519  0.0047  0.0772 -0.2103
 2072DOPC   C1B24312  19.238  32.569  15.100  0.2305  0.0830 -0.0118
 2072DOPC   D2B24313  19.674  32.503  14.924 -0.2260 -0.0379  0.1523
 2072DOPC   C3B24314  19.631  32.680  14.510  0.2548 -0.1147 -0.1524
 2072DOPC   C4B24315  19.423  32.837  14.095 -0.0390 -0.1527 -0.3184
 2073DOPE   NH324316  18.698  29.592  16.489  0.1380  0.1242 -0.0735
 2073DOPE   PO424317  19.002  29.678  16.435  0.3790  0.1772  0.2591
 2073DOPE   GL124318  19.071  29.640  16.039  0.2509 -0.0396  0.1724
 2073DOPE   GL224319  18.921  29.479  15.828 -0.2392  0.2168  0.0810
 2073DOPE   C1A24320  18.873  29.979  15.694  0.1277 -0.2048 -0.2626
 2073DOPE   D2A24321  18.795  29.985  15.258  0.1036  0.1736  0.1859
 2073DOPE   C3A24322  18.488  29.806  14.899  0.1284  0.1610  0.1033
 2073DOPE   C4A24323  18.438  29.495  14.547 -0.1088 -0.0197 -0.0316
 2073DOPE   C1B24324  19.145  29.184  15.525 -0.1183  0.2227  0.1915
 2073DOPE   D2B24325  19.103  28.781  15.277 -0.1336 -0.0423 -0.1578
 2073DOPE   C3B24326  19.294  28.752  14.879 -0.1731  0.0969  0.4809
 2073DOPE   C4B24327  19.368  28.569  14.433 -0.0925 -0.0525 -0.1220
 2074DOPE   NH324328  22.251  26.061  16.212 -0.0997  0.1322  0.2044
 2074DOPE   PO424329  22.128  25.991  15.935 -0.2841  0.0065  0.2423
 2074DOPE   GL124330  22.148  26.086  15.629 -0.0258 -0.0769  0.1698
 2074DOPE   GL224331  22.315  25.918  15.475  0.0720  0.2112  0.0571
 2074DOPE   C1A24332  21.760  26.139  15.340 -0.0536 -0.3462 -0.1952
 2074DOPE   D2A24333  21.415  26.301  15.034 -0.0106 -0.0787  0.0551
 2074DOPE   C3A24334  21.286  26.217  14.602  0.0231  0.0937 -0.1235
 2074DOPE   C4A24335  21.510  26.059  14.297 -0.2060 -0.1330 -0.1710
 2074DOPE   C1B24336  22.481  26.021  15.037  0.0152  0.1721 -0.0269
 2074DOPE   D2B24337  22.607  26.295  14.716 -0.1132  0.1058 -0.0573
 2074DOPE   C3B24338  22.520  26.667  14.470  0.3808  0.0323 -0.2343
 2074DOPE   C4B24339  22.087  26.909  14.559  0.1177  0.0952 -0.0684
 2075DOPE   NH324340  18.821  26.090  15.984 -0.0789  0.3051 -0.0430
 2075DOPE   PO424341  18.774  25.798  16.144 -0.1797  0.1994 -0.1209
 2075DOPE   GL124342  18.616  25.810  15.693 -0.2836 -0.0920 -0.1361
 2075DOPE   GL224343  18.698  26.069  15.506 -0.0511 -0.1168 -0.2758
 2075DOPE   C1A24344  18.477  25.720  15.264 -0.1974  0.1965  0.0720
 2075DOPE   D2A24345  18.571  25.561  14.844  0.5015 -0.0814 -0.0447
 2075DOPE   C3A24346  18.898  25.772  14.682 -0.1884 -0.1535  0.2033
 2075DOPE   C4A24347  19.056  25.930  14.272 -0.1031  0.0389 -0.0157
 2075DOPE   C1B24348  18.921  26.112  15.066  0.0725  0.1506  0.1881
 2075DOPE   D2B24349  18.895  26.422  14.735 -0.1881  0.4070 -0.0633
 2075DOPE   C3B24350  18.674  26.277  14.341  0.1008 -0.0898  0.1132
 2075DOPE   C4B24351  18.315  26.588  14.152 -0.1715 -0.1075 -0.0889
 2076DOPS   CNO24352  12.919  28.940  14.772 -0.0682 -0.2471 -0.4034
 2076DOPS   PO424353  12.558  28.936  14.646  0.1254  0.1999  0.1742
 2076DOPS   GL124354  12.900  28.717  14.422  0.0588  0.0344 -0.1661
 2076DOPS   GL224355  12.662  28.528  14.351  0.0084  0.0604 -0.3120
 2076DOPS   C1A24356  13.183  28.819  14.059  0.1692  0.2299 -0.0327
 2076DOPS   D2A24357  13.033  28.931  13.640 -0.0359 -0.1209  0.2685
 2076DOPS   C3A24358  13.319  28.643  13.497 -0.0134  0.0747 -0.1703
 2076DOPS   C4A24359  13.730  28.310  13.444 -0.1776  0.0677 -0.1832
 2076DOPS   C1B24360  12.615  28.636  13.942  0.0352  0.0391 -0.1042
 2076DOPS   D2B24361  12.307  28.568  13.650 -0.0611 -0.1787 -0.1969
 2076DOPS   C3B24362  12.410  28.651  13.174  0.1541 -0.2750  0.0968
 2076DOPS   C4B24363  12.597  28.887  12.890  0.0687 -0.0827  0.0827
 2077DOPE   NH324364  17.828  29.856  16.307 -0.4321  0.0448 -0.0283
 2077DOPE   PO424365  18.054  29.963  16.151 -0.0205 -0.3048  0.1417
 2077DOPE   GL124366  18.156  30.321  15.935  0.0212 -0.1362 -0.1182
 2077DOPE   GL224367  18.500  30.258  16.020 -0.0677  0.1602  0.2762
 2077DOPE   C1A24368  18.120  30.605  15.584  0.1519 -0.1584  0.1327
 2077DOPE   D2A24369  17.938  30.865  15.259 -0.0889  0.1099 -0.0996
 2077DOPE   C3A24370  18.020  31.263  14.989  0.0348 -0.0382 -0.2741
 2077DOPE   C4A24371  17.769  31.668  14.832 -0.1308  0.0021 -0.1146
 2077DOPE   C1B24372  18.403  30.155  15.585 -0.3490 -0.0703  0.1369
 2077DOPE   D2B24373  18.308  30.369  15.223  0.4985 -0.2420  0.1226
 2077DOPE   C3B24374  18.298  30.295  14.745  0.0969  0.3128 -0.1469
 2077DOPE   C4B24375  18.323  30.392  14.309 -0.1908  0.1777 -0.0499
 2078DOPE   NH324376  14.664  30.457  15.195  0.3007  0.1079 -0.0120
 2078DOPE   PO424377  14.678  30.230  15.364  0.3063 -0.1462 -0.4074
 2078DOPE   GL124378  14.945  30.082  15.123  0.4093  0.3080 -0.2226
 2078DOPE   GL224379  15.154  30.034  15.237  0.1993  0.2868 -0.1212
 2078DOPE   C1A24380  15.027  29.846  14.718  0.0927  0.0155  0.3693
 2078DOPE   D2A24381  15.155  29.721  14.303  0.0069 -0.1358 -0.1703
 2078DOPE   C3A24382  14.938  29.770  13.903 -0.0258  0.3638  0.1411
 2078DOPE   C4A24383  14.605  29.735  13.585  0.1795 -0.0158 -0.2527
 2078DOPE   C1B24384  15.459  29.910  14.912 -0.6826  0.1036 -0.1614
 2078DOPE   D2B24385  15.880  29.829  14.661  0.2603  0.3744  0.0509
 2078DOPE   C3B24386  15.861  29.750  14.218 -0.1085  0.1547  0.0910
 2078DOPE   C4B24387  15.599  29.835  13.834 -0.3569 -0.1787  0.0414
 2079POSM   NC324388  15.669  24.333  15.639  0.0766 -0.0629 -0.0227
 2079POSM   PO424389  15.851  24.011  15.518 -0.0595  0.1545 -0.1499
 2079POSM   AM124390  15.789  24.153  15.236 -0.1005  0.2513  0.0977
 2079POSM   AM224391  15.774  24.391  15.103  0.1195  0.0905 -0.1974
 2079POSM   T1A24392  15.670  23.984  14.748  0.2152  0.4109  0.2897
 2079POSM   C2A24393  15.397  23.910  14.360 -0.0165 -0.2259 -0.0173
 2079POSM   C3A24394  15.497  24.032  13.896 -0.0631  0.1612 -0.1693
 2079POSM   C1B24395  15.582  24.456  14.839  0.3942 -0.0271  0.2146
 2079POSM   D2B24396  15.378  24.443  14.419  0.3753  0.1872  0.1445
 2079POSM   C3B24397  15.331  24.883  14.247 -0.2227  0.1903  0.1862
 2079POSM   C4B24398  15.373  25.340  14.359  0.0880  0.2104 -0.2256
 2080POSM   NC324399  15.830  27.083  16.033  0.2189  0.0059  0.0500
 2080POSM   PO424400  15.947  27.188  15.680  0.3709  0.1128  0.0323
 2080POSM   AM124401  15.992  27.306  15.345 -0.1622  0.1619 -0.1141
 2080POSM   AM224402  15.795  27.390  15.140 -0.2270 -0.2218 -0.0254
 2080POSM   T1A24403  16.360  27.344  15.009 -0.2209  0.1487  0.0146
 2080POSM   C2A24404  16.637  27.501  14.696 -0.3213 -0.1225 -0.0256
 2080POSM   C3A24405  16.860  27.830  14.565 -0.2732 -0.0798  0.1590
 2080POSM   C1B24406  15.805  27.227  14.842 -0.1338  0.2562 -0.4081
 2080POSM   D2B24407  15.817  26.982  14.430  0.2286 -0.1014 -0.0525
 2080POSM   C3B24408  16.152  26.653  14.216  0.2933 -0.1604  0.0708
 2080POSM   C4B24409  16.327  26.319  13.901 -0.1812  0.0755  0.0006
 2081DOPC   NC324410  17.512  30.114  16.614  0.2130 -0.0343 -0.1356
 2081DOPC   PO424411  17.655  30.366  16.362 -0.2260 -0.2196  0.1248
 2081DOPC   GL124412  17.591  30.095  16.045  0.0485 -0.1032  0.0349
 2081DOPC   GL224413  17.698  30.293  15.858 -0.1822 -0.0748 -0.2775
 2081DOPC   C1A24414  17.552  29.844  15.681  0.1869 -0.5187 -0.0162
 2081DOPC   D2A24415  17.542  29.504  15.426 -0.2070 -0.0096 -0.2188
 2081DOPC   C3A24416  17.504  29.670  14.966 -0.4221  0.2191 -0.0213
 2081DOPC   C4A24417  17.468  29.802  14.535 -0.1135 -0.3347  0.1680
 2081DOPC   C1B24418  17.920  30.139  15.511  0.1286  0.0337 -0.0759
 2081DOPC   D2B24419  17.944  29.791  15.176  0.2463 -0.0992  0.0851
 2081DOPC   C3B24420  17.992  29.750  14.698 -0.0324  0.1787 -0.3579
 2081DOPC   C4B24421  18.031  29.387  14.318 -0.0153  0.2778 -0.0610
 2082DOPC   NC324422  16.205  32.453  15.455  0.4836  0.1097 -0.2785
 2082DOPC   PO424423  16.094  32.145  15.253 -0.0051 -0.0292 -0.0628
 2082DOPC   GL124424  16.174  32.041  14.852  0.0937 -0.1474  0.1329
 2082DOPC   GL224425  16.123  32.286  14.707  0.1347 -0.1242 -0.4322
 2082DOPC   C1A24426  15.938  31.739  14.577 -0.1648 -0.0595  0.1121
 2082DOPC   D2A24427  15.745  31.541  14.138 -0.2319  0.0315 -0.3440
 2082DOPC   C3A24428  15.961  31.265  13.865  0.1811 -0.0332 -0.0878
 2082DOPC   C4A24429  16.305  30.932  13.864  0.1858 -0.1533  0.0285
 2082DOPC   C1B24430  16.324  32.361  14.287 -0.0531 -0.0381 -0.2050
 2082DOPC   D2B24431  16.414  32.147  13.907  0.3292 -0.1935  0.3273
 2082DOPC   C3B24432  16.213  32.094  13.496  0.1896  0.1231  0.2549
 2082DOPC   C4B24433  16.346  32.364  13.096  0.3087 -0.0923  0.0339
 2083POSM   NC324434  13.875  32.918  14.726  0.0983  0.0023  0.0933
 2083POSM   PO424435  14.234  33.039  14.714 -0.0542  0.1702  0.1007
 2083POSM   AM124436  14.375  33.005  14.412  0.1058  0.0944  0.2032
 2083POSM   AM224437  14.498  33.150  14.207  0.1630  0.2497  0.3354
 2083POSM   T1A24438  14.338  32.669  14.080  0.1696  0.0297 -0.2794
 2083POSM   C2A24439  14.345  32.402  13.674  0.3005 -0.1174  0.0968
 2083POSM   C3A24440  14.265  32.186  13.287 -0.2751  0.0814  0.0969
 2083POSM   C1B24441  14.690  33.032  13.927 -0.1279  0.0089  0.1418
 2083POSM   D2B24442  14.786  33.152  13.511 -0.2219 -0.0758 -0.0953
 2083POSM   C3B24443  14.982  32.729  13.372  0.2681  0.0932  0.1843
 2083POSM   C4B24444  15.452  32.597  13.317 -0.1194  0.0466 -0.0639
 2084DOPC   NC324445  20.833  25.681  15.649  0.1231  0.3264 -0.2150
 2084DOPC   PO424446  21.035  25.330  15.732 -0.1548  0.0997 -0.0084
 2084DOPC   GL124447  20.765  25.254  15.412  0.3780  0.1426 -0.3383
 2084DOPC   GL224448  20.479  25.242  15.558  0.0015 -0.0676  0.0611
 2084DOPC   C1A24449  20.860  25.381  14.968 -0.5059 -0.1721  0.2275
 2084DOPC   D2A24450  20.776  25.507  14.532  0.0213  0.2485 -0.2348
 2084DOPC   C3A24451  20.696  25.201  14.245  0.0621 -0.0292 -0.1530
 2084DOPC   C4A24452  20.376  25.278  13.901 -0.0251 -0.0334 -0.0460
 2084DOPC   C1B24453  20.430  25.625  15.205  0.0944 -0.2441  0.0371
 2084DOPC   D2B24454  20.537  25.911  14.789  0.3568  0.0212  0.1316
 2084DOPC   C3B24455  20.480  25.985  14.371  0.1939  0.2703 -0.1919
 2084DOPC   C4B24456  20.653  25.719  14.016  0.2357 -0.4921 -0.0180
 2085POSM   NC324457  11.382  30.404  14.860  0.2073 -0.2162 -0.2116
 2085POSM   PO424458  11.322  30.752  14.670  0.0551  0.1544 -0.1518
 2085POSM   AM124459  11.447  30.696  14.384 -0.2166 -0.1410 -0.1316
 2085POSM   AM224460  11.693  30.705  14.239  0.1618 -0.2137  0.1952
 2085POSM   T1A24461  11.586  30.251  14.116 -0.0179 -0.1657 -0.0030
 2085POSM   C2A24462  11.921  29.965  14.016  0.3230  0.0119  0.0054
 2085POSM   C3A24463  11.908  29.518  14.112 -0.3845  0.6032 -0.1153
 2085POSM   C1B24464  11.913  30.909  14.046 -0.2262  0.0512  0.1900
 2085POSM   D2B24465  12.150  31.092  13.762 -0.0703 -0.2542 -0.1749
 2085POSM   C3B24466  12.173  31.003  13.331  0.2153  0.0995  0.2298
 2085POSM   C4B24467  12.492  31.112  13.008  0.1450  0.1561 -0.3487
 2086DOPC   NC324468  13.629  27.918  15.309 -0.3280  0.0892 -0.1961
 2086DOPC   PO424469  13.887  28.210  15.436 -0.0162  0.0760 -0.0234
 2086DOPC   GL124470  13.865  28.269  15.080  0.1384 -0.1822 -0.0337
 2086DOPC   GL224471  13.662  28.468  15.060 -0.1831  0.0902 -0.4189
 2086DOPC   C1A24472  14.244  28.544  14.884  0.0250  0.0976  0.2281
 2086DOPC   D2A24473  14.572  28.759  14.681 -0.0150 -0.0556  0.1701
 2086DOPC   C3A24474  15.050  28.783  14.656  0.0870 -0.2115  0.0637
 2086DOPC   C4A24475  15.500  28.851  14.593  0.1712 -0.0828 -0.5184
 2086DOPC   C1B24476  13.614  28.295  14.669  0.0093 -0.0143 -0.2148
 2086DOPC   D2B24477  13.966  28.113  14.438 -0.0139 -0.1091 -0.2957
 2086DOPC   C3B24478  14.028  27.864  13.994  0.1561  0.1092  0.3121
 2086DOPC   C4B24479  14.221  28.021  13.604  0.1290 -0.0452  0.2398
 2087POSM   NC324480  12.497  33.365  15.229 -0.2622 -0.2328 -0.0345
 2087POSM   PO424481  12.669  33.682  15.061  0.2601 -0.2945  0.0852
 2087POSM   AM124482  12.690  33.713  14.725 -0.1535 -0.0911 -0.1140
 2087POSM   AM224483  12.883  33.800  14.551 -0.0105  0.2319 -0.0005
 2087POSM   T1A24484  12.451  33.873  14.329  0.4594 -0.1861 -0.1764
 2087POSM   C2A24485  12.614  34.056  13.937 -0.0002  0.0392  0.1503
 2087POSM   C3A24486  12.649  33.954  13.505  0.0812 -0.0046  0.0727
 2087POSM   C1B24487  12.937  33.903  14.276 -0.1353  0.1564  0.1917
 2087POSM   D2B24488  13.133  33.788  13.815  0.1361  0.1863 -0.0035
 2087POSM   C3B24489  13.262  33.867  13.376  0.0165  0.3665  0.0627
 2087POSM   C4B24490  13.681  33.690  13.172  0.2541  0.1236 -0.0125
 2088DOPE   NH324491  15.100  30.356  15.639 -0.2654 -0.0438  0.0143
 2088DOPE   PO424492  15.100  30.552  15.386  0.4353 -0.1253 -0.1135
 2088DOPE   GL124493  15.279  30.468  15.138  0.2390 -0.0412  0.0402
 2088DOPE   GL224494  15.095  30.412  14.938  0.1611  0.0821 -0.0207
 2088DOPE   C1A24495  15.547  30.419  14.724  0.1218 -0.0408 -0.1844
 2088DOPE   D2A24496  15.632  30.160  14.270 -0.1777  0.4626  0.0654
 2088DOPE   C3A24497  15.786  30.314  13.833  0.1154 -0.1806 -0.3690
 2088DOPE   C4A24498  16.218  30.424  13.725  0.0909 -0.1589 -0.0896
 2088DOPE   C1B24499  15.062  30.338  14.514  0.2905  0.3534  0.0832
 2088DOPE   D2B24500  14.949  30.144  14.168 -0.2632 -0.2599 -0.3684
 2088DOPE   C3B24501  14.763  30.280  13.762  0.1311  0.2170  0.1041
 2088DOPE   C4B24502  14.489  30.203  13.455  0.1939 -0.1568  0.2782
 2089DOPC   NC324503  21.998  24.822  16.166  0.0699 -0.0791 -0.1867
 2089DOPC   PO424504  21.785  24.907  15.872 -0.0492  0.1354 -0.0009
 2089DOPC   GL124505  21.686  24.983  15.546  0.3378 -0.0804  0.2670
 2089DOPC   GL224506  21.869  25.175  15.479  0.2654 -0.1824  0.1663
 2089DOPC   C1A24507  21.651  24.768  15.196 -0.3973  0.0280  0.5854
 2089DOPC   D2A24508  21.678  24.857  14.734 -0.0085 -0.0244 -0.1303
 2089DOPC   C3A24509  21.304  24.692  14.502 -0.2013 -0.1599  0.0728
 2089DOPC   C4A24510  20.964  24.733  14.295 -0.1959 -0.0874  0.2119
 2089DOPC   C1B24511  21.950  25.237  14.993 -0.1407  0.1241 -0.3473
 2089DOPC   D2B24512  22.054  25.030  14.553 -0.3252 -0.3118 -0.2393
 2089DOPC   C3B24513  22.266  25.316  14.281  0.0519 -0.0480 -0.1034
 2089DOPC   C4B24514  22.593  25.524  14.081 -0.0343  0.0004  0.2620
 2090DOPC   NC324515  18.306  24.135  16.685 -0.0796 -0.0836 -0.1662
 2090DOPC   PO424516  18.545  24.075  16.334 -0.0479  0.2604  0.0467
 2090DOPC   GL124517  18.554  24.177  16.008 -0.0415 -0.3816  0.2187
 2090DOPC   GL224518  18.531  23.942  15.853  0.1089  0.3462  0.1327
 2090DOPC   C1A24519  18.413  24.340  15.566  0.2123  0.1552  0.1716
 2090DOPC   D2A24520  18.400  24.565  15.116  0.0229  0.1632 -0.0999
 2090DOPC   C3A24521  18.514  24.315  14.712  0.0345  0.4561 -0.1685
 2090DOPC   C4A24522  18.584  24.330  14.254 -0.0222 -0.0839 -0.1785
 2090DOPC   C1B24523  18.859  23.749  15.623 -0.0633 -0.2340  0.0141
 2090DOPC   D2B24524  19.029  23.834  15.201  0.3705  0.1348 -0.3033
 2090DOPC   C3B24525  18.911  24.124  14.940 -0.0611  0.2221  0.3828
 2090DOPC   C4B24526  19.027  24.285  14.499  0.1167 -0.1157  0.1500
 2091DOPC   NC324527  14.863  28.621  15.659  0.1179  0.0836 -0.2151
 2091DOPC   PO424528  15.171  28.453  15.839  0.1222  0.0102 -0.1435
 2091DOPC   GL124529  15.255  28.462  15.423  0.0273  0.0073  0.1111
 2091DOPC   GL224530  15.126  28.365  15.207 -0.0488 -0.2017  0.0279
 2091DOPC   C1A24531  15.543  28.663  15.148  0.1263 -0.0407 -0.2169
 2091DOPC   D2A24532  15.902  28.908  14.913  0.0750  0.1088  0.0354
 2091DOPC   C3A24533  16.329  29.007  15.062 -0.1411 -0.0193 -0.3108
 2091DOPC   C4A24534  16.561  29.402  15.263  0.0574 -0.1172 -0.2472
 2091DOPC   C1B24535  15.094  28.005  14.917 -0.5703 -0.1674  0.0138
 2091DOPC   D2B24536  15.054  27.768  14.481  0.1122  0.0986 -0.1565
 2091DOPC   C3B24537  14.990  28.094  14.149 -0.0305  0.2911 -0.0302
 2091DOPC   C4B24538  14.892  28.144  13.720  0.0731  0.0187 -0.1445
 2092DOPC   NC324539  22.113  31.334  16.556  0.1665  0.1262  0.2432
 2092DOPC   PO424540  21.842  31.528  16.786  0.0654  0.2303 -0.1264
 2092DOPC   GL124541  21.630  31.469  16.412  0.4315  0.3470 -0.0183
 2092DOPC   GL224542  21.452  31.209  16.229 -0.1159 -0.0546  0.1029
 2092DOPC   C1A24543  21.723  31.648  15.970  0.2087 -0.1205 -0.0994
 2092DOPC   D2A24544  21.710  32.078  15.815 -0.3401 -0.0078  0.2781
 2092DOPC   C3A24545  21.706  32.116  15.332 -0.0144  0.1550 -0.3264
 2092DOPC   C4A24546  21.388  31.933  15.039  0.1568 -0.3983  0.2347
 2092DOPC   C1B24547  21.427  30.930  15.845  0.0169 -0.0021 -0.0571
 2092DOPC   D2B24548  21.388  30.743  15.430  0.3341 -0.0870 -0.3253
 2092DOPC   C3B24549  21.619  30.927  15.070  0.2486  0.2217  0.2750
 2092DOPC   C4B24550  21.778  31.023  14.672  0.0037  0.3959 -0.4790
 2093DOPS   CNO24551  17.813  28.601  15.765  0.1822 -0.2365 -0.1033
 2093DOPS   PO424552  17.760  28.273  15.952 -0.1038 -0.0767  0.1289
 2093DOPS   GL124553  17.746  28.097  15.521 -0.1746  0.0268 -0.0936
 2093DOPS   GL224554  17.594  28.270  15.436 -0.0970  0.3276  0.1049
 2093DOPS   C1A24555  17.900  27.874  15.114  0.0455  0.0234  0.1701
 2093DOPS   D2A24556  17.893  27.719  14.743  0.0923 -0.1560 -0.0822
 2093DOPS   C3A24557  18.165  28.046  14.513 -0.2206 -0.0290  0.1765
 2093DOPS   C4A24558  18.573  28.011  14.265 -0.0189 -0.1352  0.1498
 2093DOPS   C1B24559  17.691  28.571  15.119 -0.0042  0.1257  0.1813
 2093DOPS   D2B24560  17.720  28.755  14.744 -0.0144 -0.0243  0.1042
 2093DOPS   C3B24561  17.983  28.696  14.412  0.0232 -0.4031 -0.3060
 2093DOPS   C4B24562  18.137  28.433  14.145 -0.1268  0.0645 -0.1259
 2094DOPC   NC324563  17.849  27.781  15.956 -0.1791  0.2452 -0.0533
 2094DOPC   PO424564  18.219  27.829  16.097  0.0224  0.0486 -0.0093
 2094DOPC   GL124565  18.285  27.653  15.693 -0.0940  0.2895  0.2374
 2094DOPC   GL224566  18.073  27.591  15.543  0.4567 -0.1058  0.0205
 2094DOPC   C1A24567  18.673  27.454  15.517  0.1886  0.1981  0.0919
 2094DOPC   D2A24568  18.857  27.300  15.173  0.1227  0.0837  0.2158
 2094DOPC   C3A24569  19.321  27.275  15.202  0.1549 -0.0739  0.3210
 2094DOPC   C4A24570  19.825  27.339  15.241  0.3710  0.4517 -0.1112
 2094DOPC   C1B24571  18.321  27.538  15.174 -0.1234  0.1848 -0.1422
 2094DOPC   D2B24572  18.382  27.585  14.681  0.2316  0.0786 -0.0283
 2094DOPC   C3B24573  18.124  27.594  14.304 -0.0117 -0.4230  0.0939
 2094DOPC   C4B24574  18.057  27.956  14.051  0.0647  0.0285  0.2705
 2095DOPS   CNO24575  18.652  31.989  16.098  0.0567 -0.1261  0.2905
 2095DOPS   PO424576  18.726  31.642  16.163 -0.0408  0.0865 -0.3486
 2095DOPS   GL124577  18.876  31.469  15.831  0.2265  0.1412  0.1107
 2095DOPS   GL224578  18.868  31.177  15.779 -0.0868  0.2327  0.0317
 2095DOPS   C1A24579  19.027  31.588  15.423 -0.1312 -0.1993 -0.0915
 2095DOPS   D2A24580  19.065  31.769  14.991  0.0242  0.2169  0.3014
 2095DOPS   C3A24581  19.286  31.722  14.580 -0.0077  0.4611  0.1750
 2095DOPS   C4A24582  19.496  31.338  14.393 -0.0540  0.0251  0.1329
 2095DOPS   C1B24583  18.871  31.086  15.328 -0.2850  0.0529 -0.3338
 2095DOPS   D2B24584  18.878  31.061  14.859  0.0969 -0.3328  0.0822
 2095DOPS   C3B24585  19.051  31.281  14.526  0.2014  0.0437  0.0448
 2095DOPS   C4B24586  19.084  31.556  14.132  0.0348  0.1636  0.1840
 2096POSM   NC324587  23.152  24.203  15.904  0.1242  0.0215 -0.0554
 2096POSM   PO424588  23.522  24.115  16.008 -0.0097 -0.0637  0.1706
 2096POSM   AM124589  23.649  24.121  15.696  0.1939  0.0717  0.1865
 2096POSM   AM224590  23.607  23.889  15.485  0.0014  0.1320 -0.1228
 2096POSM   T1A24591  24.013  24.228  15.387 -0.4558 -0.0577  0.1095
 2096POSM   C2A24592  24.261  24.071  15.065  0.3151  0.1579  0.1181
 2096POSM   C3A24593  24.492  23.649  15.164  0.0388 -0.0034 -0.0902
 2096POSM   C1B24594  23.455  23.736  15.253 -0.0178 -0.2428  0.0614
 2096POSM   D2B24595  23.309  23.454  14.954  0.0162 -0.0731  0.0106
 2096POSM   C3B24596  23.061  23.570  14.576 -0.1219  0.2345  0.1137
 2096POSM   C4B24597  22.682  23.311  14.475 -0.3545  0.1250  0.3007
 2097DOPS   CNO24598  15.977  28.181  15.838 -0.4282 -0.0653  0.1708
 2097DOPS   PO424599  16.266  28.160  15.581  0.3693  0.0358  0.0449
 2097DOPS   GL124600  16.337  28.143  15.136 -0.0778 -0.1853 -0.0685
 2097DOPS   GL224601  16.537  27.902  14.946  0.2098  0.2379  0.1672
 2097DOPS   C1A24602  16.068  28.353  14.882  0.0430 -0.2134 -0.1192
 2097DOPS   D2A24603  16.001  28.608  14.520 -0.2863 -0.2482  0.3295
 2097DOPS   C3A24604  15.651  28.567  14.214 -0.1186 -0.1025  0.0081
 2097DOPS   C4A24605  15.277  28.482  13.992  0.0000 -0.0790 -0.1501
 2097DOPS   C1B24606  16.465  28.123  14.562  0.0487  0.0591  0.3058
 2097DOPS   D2B24607  16.724  28.437  14.254 -0.0125 -0.2865 -0.0725
 2097DOPS   C3B24608  16.575  28.396  13.788 -0.1634  0.0422  0.3542
 2097DOPS   C4B24609  16.439  28.363  13.318 -0.1676  0.2240 -0.0522
 2098DOPS   CNO24610  12.894  26.910  14.549  0.2567 -0.0796  0.3046
 2098DOPS   PO424611  12.829  26.660  14.720 -0.1251 -0.0597 -0.2482
 2098DOPS   GL124612  12.662  26.346  14.457 -0.0277  0.2788 -0.3564
 2098DOPS   GL224613  12.977  26.396  14.379 -0.3315 -0.0370 -0.0666
 2098DOPS   C1A24614  12.340  26.178  14.147 -0.0276  0.3278 -0.1179
 2098DOPS   D2A24615  12.029  26.128  13.839 -0.0508  0.2233  0.2694
 2098DOPS   C3A24616  12.016  25.940  13.352  0.1584 -0.3134 -0.2453
 2098DOPS   C4A24617  11.748  25.695  13.107  0.3517  0.2280  0.1167
 2098DOPS   C1B24618  12.733  26.561  13.983 -0.1501 -0.0756 -0.0594
 2098DOPS   D2B24619  12.521  26.610  13.540 -0.2828 -0.1091 -0.0822
 2098DOPS   C3B24620  12.541  26.783  13.102  0.0600 -0.0708  0.0783
 2098DOPS   C4B24621  12.780  27.045  12.815 -0.0521 -0.0498 -0.0416
 2099DOPE   NH324622  14.389  28.346  15.481  0.5768 -0.1255  0.0693
 2099DOPE   PO424623  14.658  28.173  15.521 -0.0698 -0.1222 -0.2453
 2099DOPE   GL124624  14.619  27.979  15.179  0.0836  0.1605  0.1329
 2099DOPE   GL224625  14.296  28.059  15.088 -0.0767 -0.1131  0.0888
 2099DOPE   C1A24626  14.675  27.697  14.790  0.0760  0.0286  0.1747
 2099DOPE   D2A24627  14.529  27.730  14.377 -0.2589 -0.0124  0.2893
 2099DOPE   C3A24628  14.287  27.351  14.133 -0.3257 -0.2590 -0.1349
 2099DOPE   C4A24629  13.950  27.381  13.853  0.3195  0.5656 -0.0911
 2099DOPE   C1B24630  14.384  28.138  14.661 -0.1220  0.3210 -0.1268
 2099DOPE   D2B24631  14.422  28.178  14.133  0.2942  0.1789 -0.1052
 2099DOPE   C3B24632  14.544  27.741  13.894 -0.1003 -0.0963  0.1615
 2099DOPE   C4B24633  14.652  27.240  13.785  0.4993 -0.1104  0.0122
 2100DOPE   NH324634  20.693  24.413  15.835  0.1535  0.0237  0.3595
 2100DOPE   PO424635  20.969  24.470  15.908  0.0174  0.5578 -0.0605
 2100DOPE   GL124636  20.997  24.504  15.499 -0.5113  0.1521  0.0420
 2100DOPE   GL224637  21.302  24.527  15.470 -0.1383 -0.0154 -0.3224
 2100DOPE   C1A24638  20.842  24.173  15.154  0.1004 -0.2451  0.0147
 2100DOPE   D2A24639  20.678  23.996  14.789  0.0167  0.0960 -0.1256
 2100DOPE   C3A24640  20.289  24.182  14.602 -0.0808 -0.2992 -0.1140
 2100DOPE   C4A24641  19.837  24.242  14.520 -0.3970  0.1976 -0.1530
 2100DOPE   C1B24642  21.150  24.633  15.020  0.0103  0.0693  0.3027
 2100DOPE   D2B24643  21.188  25.078  14.862 -0.2499 -0.1963 -0.2218
 2100DOPE   C3B24644  21.202  25.189  14.406  0.0871 -0.2015 -0.2198
 2100DOPE   C4B24645  21.148  25.491  14.069 -0.3502 -0.2655 -0.0611
 2101DOPE   NH324646  19.404  32.834  16.084  0.0512  0.1546 -0.1366
 2101DOPE   PO424647  19.219  32.730  15.853 -0.2245  0.0701  0.2731
 2101DOPE   GL124648  19.459  32.837  15.531 -0.0453  0.0907  0.0154
 2101DOPE   GL224649  19.486  33.144  15.605 -0.1745  0.1303  0.1891
 2101DOPE   C1A24650  19.551  32.968  15.094 -0.1780  0.0632  0.1831
 2101DOPE   D2A24651  19.325  32.999  14.694  0.3618  0.0426  0.1075
 2101DOPE   C3A24652  19.080  33.068  14.371  0.1002  0.0040 -0.0343
 2101DOPE   C4A24653  19.154  33.342  14.024 -0.1018 -0.0406 -0.0566
 2101DOPE   C1B24654  19.131  33.115  15.321 -0.2246  0.1006 -0.2929
 2101DOPE   D2B24655  18.852  33.026  14.970 -0.1121 -0.0669 -0.2157
 2101DOPE   C3B24656  18.875  32.666  14.684 -0.3987 -0.0567 -0.1573
 2101DOPE   C4B24657  19.114  32.276  14.575 -0.0310 -0.0911 -0.2203
 2102DOPC   NC324658  15.781  30.085  15.931  0.2267 -0.0865  0.0073
 2102DOPC   PO424659  15.428  30.000  15.674 -0.2027 -0.3044  0.1498
 2102DOPC   GL124660  15.742  29.862  15.404 -0.2668 -0.0914 -0.0101
 2102DOPC   GL224661  15.932  30.097  15.442  0.1525 -0.2090 -0.1378
 2102DOPC   C1A24662  15.845  29.565  15.108 -0.3638 -0.0688  0.0428
 2102DOPC   D2A24663  16.074  29.362  14.731 -0.3218  0.0568 -0.3416
 2102DOPC   C3A24664  15.783  29.168  14.342  0.2634 -0.2427  0.0678
 2102DOPC   C4A24665  15.497  29.388  14.036 -0.2030 -0.0181  0.3694
 2102DOPC   C1B24666  16.096  30.080  15.030 -0.0321  0.3460 -0.0132
 2102DOPC   D2B24667  16.598  30.110  14.850 -0.2522 -0.0298 -0.0544
 2102DOPC   C3B24668  16.539  30.505  14.594 -0.1763  0.0395 -0.0663
 2102DOPC   C4B24669  16.209  30.590  14.245 -0.1519 -0.1458 -0.0111
 2103DOPC   NC324670  22.852  26.282  16.168 -0.2052  0.1821  0.1460
 2103DOPC   PO424671  22.752  26.671  16.257 -0.2510  0.1063  0.1736
 2103DOPC   GL124672  22.823  26.839  15.910  0.1829  0.0875  0.0954
 2103DOPC   GL224673  23.070  26.964  15.935  0.2942  0.0572 -0.1389
 2103DOPC   C1A24674  22.491  27.013  15.584 -0.0139  0.1495  0.0159
 2103DOPC   D2A24675  22.510  27.362  15.279 -0.1064 -0.0841 -0.0326
 2103DOPC   C3A24676  22.871  27.556  15.163 -0.0115  0.3702 -0.1104
 2103DOPC   C4A24677  23.281  27.680  14.991 -0.1888 -0.0581  0.2836
 2103DOPC   C1B24678  23.404  26.706  16.063  0.2610 -0.1997  0.5043
 2103DOPC   D2B24679  23.812  26.505  16.046  0.0294  0.0214  0.0917
 2103DOPC   C3B24680  24.283  26.631  16.042  0.1280  0.0741  0.1453
 2103DOPC   C4B24681  24.642  26.819  15.804  0.1977 -0.0817  0.0347
 2104POSM   NC324682  14.365  29.288  15.430 -0.0394  0.3204  0.0390
 2104POSM   PO424683  14.395  28.907  15.561 -0.0978 -0.2541 -0.0943
 2104POSM   AM124684  14.601  28.850  15.328  0.2844  0.2484 -0.0675
 2104POSM   AM224685  14.648  28.603  15.183 -0.0477 -0.1207  0.1422
 2104POSM   T1A24686  15.082  28.845  15.193 -0.2571 -0.1997 -0.3735
 2104POSM   C2A24687  15.413  29.102  15.005 -0.1148  0.0799  0.0170
 2104POSM   C3A24688  15.560  29.471  14.733  0.3373 -0.0962 -0.3266
 2104POSM   C1B24689  14.766  28.399  14.913  0.0076 -0.4519  0.1046
 2104POSM   D2B24690  14.796  28.347  14.489  0.2494 -0.1010 -0.0277
 2104POSM   C3B24691  14.789  28.669  14.167 -0.2009  0.2185 -0.0230
 2104POSM   C4B24692  14.808  28.808  13.747  0.1708 -0.0134  0.1606
 2105POSM   NC324693  12.433  32.780  14.905 -0.1227 -0.1147 -0.4323
 2105POSM   PO424694  12.744  32.941  15.063  0.0606  0.2164  0.2319
 2105POSM   AM124695  12.929  32.899  14.762 -0.2399  0.5761 -0.3797
 2105POSM   AM224696  12.822  32.788  14.545 -0.0281 -0.2472  0.0909
 2105POSM   T1A24697  13.372  32.762  14.523  0.1589 -0.0331 -0.1783
 2105POSM   C2A24698  13.653  32.598  14.178 -0.0702 -0.0025 -0.0527
 2105POSM   C3A24699  13.873  32.488  13.759 -0.2727  0.0570  0.1028
 2105POSM   C1B24700  12.948  32.980  14.282  0.0318  0.2572 -0.2179
 2105POSM   D2B24701  13.397  33.014  14.011  0.0108 -0.0020 -0.3341
 2105POSM   C3B24702  13.349  33.336  13.645 -0.0864  0.1223  0.0226
 2105POSM   C4B24703  13.336  33.359  13.226  0.1021 -0.0211  0.1620
 2106DOPE   NH324704  13.990  26.209  15.246  0.3196  0.0664  0.0618
 2106DOPE   PO424705  13.906  26.204  14.941 -0.0946 -0.1799 -0.1648
 2106DOPE   GL124706  14.097  26.400  14.715  0.0815 -0.1853 -0.0016
 2106DOPE   GL224707  14.025  26.470  14.448  0.1980 -0.0060 -0.2183
 2106DOPE   C1A24708  14.457  26.697  14.506  0.0274 -0.0305  0.0859
 2106DOPE   D2A24709  14.627  26.891  14.173 -0.2518 -0.1086  0.0201
 2106DOPE   C3A24710  15.079  26.783  14.000  0.0681 -0.2973 -0.2670
 2106DOPE   C4A24711  15.401  26.775  13.578 -0.0043 -0.2497  0.0192
 2106DOPE   C1B24712  14.223  26.222  14.067  0.0586  0.0125  0.1662
 2106DOPE   D2B24713  14.205  26.209  13.623  0.0174 -0.1549 -0.0823
 2106DOPE   C3B24714  14.053  26.553  13.311  0.0268  0.1624 -0.2818
 2106DOPE   C4B24715  13.955  26.804  12.935 -0.0848  0.0979 -0.1123
 2107DOPE   NH324716  12.771  27.942  15.008 -0.2281  0.0335 -0.0265
 2107DOPE   PO424717  12.925  27.678  14.988 -0.1965 -0.0922 -0.2130
 2107DOPE   GL124718  12.995  27.494  14.558  0.1561 -0.1656 -0.4189
 2107DOPE   GL224719  12.775  27.476  14.429  0.0096  0.2922 -0.2118
 2107DOPE   C1A24720  13.364  27.506  14.219 -0.1567  0.3125 -0.1737
 2107DOPE   D2A24721  13.797  27.546  14.365 -0.2455  0.1529  0.2219
 2107DOPE   C3A24722  14.167  27.609  14.704  0.0753  0.0279  0.0618
 2107DOPE   C4A24723  14.359  27.462  15.085 -0.0592 -0.1170  0.1280
 2107DOPE   C1B24724  13.035  27.207  14.126 -0.3521  0.1713 -0.1019
 2107DOPE   D2B24725  13.371  27.155  13.864  0.0402  0.0467 -0.0903
 2107DOPE   C3B24726  13.471  27.229  13.410  0.1430  0.0975 -0.0129
 2107DOPE   C4B24727  13.755  27.326  13.066 -0.1651 -0.1063  0.1406
 2108DOPE   NH324728  16.806   0.031  15.731  0.0325 -0.1920  0.0264
 2108DOPE   PO424729  16.556   0.247  15.608  0.2077  0.1534  0.0172
 2108DOPE   GL124730  16.709   0.081  15.269 -0.1489 -0.2885  0.2881
 2108DOPE   GL224731  16.512   0.047  15.032 -0.1034  0.3378  0.0845
 2108DOPE   C1A24732  16.898   0.214  14.825  0.2710  0.4808  0.2552
 2108DOPE   D2A24733  16.794   0.353  14.354 -0.0056 -0.1950  0.0531
 2108DOPE   C3A24734  16.956   0.284  13.930 -0.0158  0.1514  0.2715
 2108DOPE   C4A24735  16.812   0.074  13.535 -0.0328  0.0451 -0.1261
 2108DOPE   C1B24736  16.343   0.339  14.728 -0.3529 -0.1493 -0.1747
 2108DOPE   D2B24737  16.258   0.520  14.300 -0.0765  0.1240 -0.0427
 2108DOPE   C3B24738  16.439   0.301  13.925 -0.3049 -0.0214 -0.1218
 2108DOPE   C4B24739  16.304  -0.062  13.627  0.2999  0.2535  0.1453
 2109DOPC   NC324740  12.000  24.472  15.222  0.1949  0.0081  0.1844
 2109DOPC   PO424741  11.608  24.438  15.307 -0.0514  0.0661 -0.1904
 2109DOPC   GL124742  11.700  24.415  14.852  0.0743 -0.1112  0.4137
 2109DOPC   GL224743  11.728  24.193  14.657  0.1136  0.2364  0.0353
 2109DOPC   C1A24744  11.612  24.576  14.382  0.1883 -0.0796  0.1363
 2109DOPC   D2A24745  11.533  24.742  13.943  0.0024  0.0771  0.0066
 2109DOPC   C3A24746  11.387  24.638  13.539  0.1258 -0.2314  0.1703
 2109DOPC   C4A24747  11.102  24.370  13.284  0.1786  0.0075  0.0206
 2109DOPC   C1B24748  11.858  24.148  14.210 -0.0406  0.0305 -0.1126
 2109DOPC   D2B24749  12.218  23.986  13.992  0.0816 -0.1287 -0.2591
 2109DOPC   C3B24750  12.708  23.964  13.974 -0.2073  0.2251 -0.3119
 2109DOPC   C4B24751  12.937  23.832  14.371  0.0494 -0.1026  0.0224
 2110DOPC   NC324752  12.143  29.935  14.554 -0.0855  0.3711 -0.0068
 2110DOPC   PO424753  12.450  29.878  14.821  0.0715  0.0413 -0.3973
 2110DOPC   GL124754  12.674  30.027  14.492 -0.0867 -0.5099  0.0814
 2110DOPC   GL224755  12.558  30.320  14.407 -0.0747  0.1572 -0.1577
 2110DOPC   C1A24756  12.816  29.651  14.232 -0.0327 -0.1069 -0.0436
 2110DOPC   D2A24757  12.915  29.351  13.922 -0.1120 -0.3221  0.0271
 2110DOPC   C3A24758  12.542  29.182  13.645 -0.0070 -0.1097  0.3378
 2110DOPC   C4A24759  12.232  29.303  13.352  0.0214 -0.0774  0.0029
 2110DOPC   C1B24760  12.417  30.034  14.046 -0.1290 -0.2058 -0.0163
 2110DOPC   D2B24761  12.339  29.629  13.780 -0.1375  0.0596 -0.1358
 2110DOPC   C3B24762  11.949  29.691  13.463  0.0624 -0.5394 -0.0506
 2110DOPC   C4B24763  11.555  29.716  13.235 -0.0357 -0.1488  0.2803
 2111POSM   NC324764  16.926  25.724  16.497  0.0576 -0.1779 -0.0368
 2111POSM   PO424765  16.659  25.670  16.205  0.2248 -0.0558  0.1253
 2111POSM   AM124766  16.847  25.623  15.904  0.1947 -0.3366  0.1201
 2111POSM   AM224767  17.093  25.570  15.815  0.2131 -0.0454  0.1101
 2111POSM   T1A24768  16.849  25.866  15.429  0.2395 -0.0387 -0.2182
 2111POSM   C2A24769  16.731  25.799  14.969 -0.1660 -0.0487 -0.1954
 2111POSM   C3A24770  16.716  25.644  14.568  0.4633 -0.1827 -0.0439
 2111POSM   C1B24771  17.247  25.456  15.516  0.0026  0.0326 -0.0168
 2111POSM   D2B24772  17.519  25.370  15.137  0.4293 -0.2638 -0.0322
 2111POSM   C3B24773  17.294  25.683  14.797  0.1629 -0.3068 -0.1912
 2111POSM   C4B24774  17.279  25.946  14.397  0.2471  0.2713 -0.1002
 2112DOPC   NC324775  13.637  33.832  14.702  0.0967  0.0179 -0.3207
 2112DOPC   PO424776  13.441  33.559  14.487 -0.2109 -0.0101 -0.3847
 2112DOPC   GL124777  13.640  33.661  14.209 -0.1057  0.1650 -0.3897
 2112DOPC   GL224778  13.927  33.784  14.252 -0.1640  0.2565 -0.0519
 2112DOPC   C1A24779  13.641  33.951  13.819 -0.0447  0.1855 -0.1580
 2112DOPC   D2A24780  13.708  34.279  13.534  0.1357 -0.1547 -0.1982
 2112DOPC   C3A24781  13.473  34.673  13.683 -0.2289 -0.2749  0.1586
 2112DOPC   C4A24782  13.075  34.802  13.766 -0.1145  0.1684  0.1281
 2112DOPC   C1B24783  14.313  33.613  14.060  0.0773  0.3118  0.0106
 2112DOPC   D2B24784  14.397  33.370  13.701 -0.0401  0.1341  0.1247
 2112DOPC   C3B24785  14.323  32.963  13.496 -0.1875 -0.1053 -0.0966
 2112DOPC   C4B24786  14.242  32.833  13.082 -0.0453  0.2305 -0.1729
 2113DOPE   NH324787  19.917  25.328  16.184  0.0910  0.0199 -0.1263
 2113DOPE   PO424788  20.134  25.155  15.993 -0.0058 -0.0139 -0.1386
 2113DOPE   GL124789  19.894  25.044  15.527 -0.0284  0.2142 -0.2305
 2113DOPE   GL224790  19.690  25.069  15.312  0.1444 -0.0379 -0.1381
 2113DOPE   C1A24791  20.191  25.152  15.182  0.2645 -0.0172 -0.1574
 2113DOPE   D2A24792  20.342  25.226  14.741  0.1140  0.2527  0.2849
 2113DOPE   C3A24793  20.536  24.838  14.577 -0.1265  0.0322  0.2318
 2113DOPE   C4A24794  20.492  24.488  14.286 -0.2973 -0.0789 -0.0719
 2113DOPE   C1B24795  19.821  25.117  14.877 -0.0654 -0.0065  0.2563
 2113DOPE   D2B24796  19.914  25.328  14.487 -0.2296 -0.0877  0.0726
 2113DOPE   C3B24797  20.251  25.562  14.281  0.0613  0.1790  0.0097
 2113DOPE   C4B24798  20.201  25.923  13.981  0.2971  0.1775  0.0686
 2114DOPC   NC324799  14.245  30.094  15.204  0.2277  0.0561 -0.1969
 2114DOPC   PO424800  14.131  30.478  15.167 -0.3567 -0.2438 -0.3278
 2114DOPC   GL124801  14.087  30.594  14.860 -0.3325  0.0795 -0.1854
 2114DOPC   GL224802  14.421  30.598  14.776 -0.0635  0.1607  0.1246
 2114DOPC   C1A24803  14.079  30.326  14.515 -0.1438 -0.1002 -0.0638
 2114DOPC   D2A24804  13.837  29.999  14.266  0.0322 -0.4401  0.1166
 2114DOPC   C3A24805  13.792  30.180  13.823  0.2653 -0.4729 -0.1667
 2114DOPC   C4A24806  13.489  30.185  13.505  0.0863 -0.1562  0.2915
 2114DOPC   C1B24807  14.837  30.795  14.623  0.0399 -0.1511 -0.0610
 2114DOPC   D2B24808  15.283  30.831  14.473  0.1072 -0.3771 -0.0758
 2114DOPC   C3B24809  15.399  30.565  14.063 -0.1456 -0.1924 -0.1184
 2114DOPC   C4B24810  15.344  30.223  13.703  0.1085 -0.2945 -0.1326
 2115DOPE   NH324811  11.716  31.049  14.612 -0.3333 -0.0824  0.0280
 2115DOPE   PO424812  11.856  31.292  14.736 -0.0194  0.0002 -0.1360
 2115DOPE   GL124813  11.680  31.470  14.415  0.1669 -0.0866 -0.0908
 2115DOPE   GL224814  11.525  31.610  14.336 -0.3058  0.1118  0.0445
 2115DOPE   C1A24815  11.774  31.412  13.966  0.1603  0.0703  0.0089
 2115DOPE   D2A24816  11.645  31.562  13.572 -0.3513 -0.2277 -0.2861
 2115DOPE   C3A24817  11.905  31.463  13.287  0.2823  0.3918  0.1116
 2115DOPE   C4A24818  11.960  31.188  12.939  0.0708  0.2145  0.1597
 2115DOPE   C1B24819  11.592  31.874  13.936 -0.2116 -0.0585  0.1354
 2115DOPE   D2B24820  11.464  32.008  13.482 -0.2819  0.1458 -0.0612
 2115DOPE   C3B24821  11.743  31.962  13.108 -0.0875 -0.1189  0.0441
 2115DOPE   C4B24822  11.835  32.220  12.711  0.1742  0.0338 -0.2040
 2116DOPE   NH324823  21.843  23.558  15.955  0.0372 -0.0645 -0.0996
 2116DOPE   PO424824  21.518  23.470  15.869  0.0469 -0.0327 -0.1370
 2116DOPE   GL124825  21.443  23.660  15.586  0.1736  0.3342 -0.2524
 2116DOPE   GL224826  21.707  23.643  15.423 -0.2740 -0.0526  0.0780
 2116DOPE   C1A24827  21.218  23.885  15.245 -0.1745  0.1974  0.0735
 2116DOPE   D2A24828  21.153  23.846  14.789 -0.2097  0.0604 -0.2036
 2116DOPE   C3A24829  21.539  23.981  14.531 -0.0521 -0.2746 -0.0587
 2116DOPE   C4A24830  21.664  23.672  14.135  0.0554  0.2132  0.3055
 2116DOPE   C1B24831  21.669  24.080  15.228 -0.2262  0.1811 -0.2992
 2116DOPE   D2B24832  21.551  24.358  14.903  0.1278 -0.1945 -0.0434
 2116DOPE   C3B24833  21.102  24.278  14.659  0.3211  0.0163  0.0755
 2116DOPE   C4B24834  21.078  24.286  14.196 -0.0670  0.2316  0.2233
 2117DOPC   NC324835  14.417  26.092  14.993 -0.2287  0.0434  0.1196
 2117DOPC   PO424836  14.429  26.459  15.162 -0.1642  0.1821  0.0444
 2117DOPC   GL124837  14.724  26.498  14.954 -0.0569 -0.2197 -0.4638
 2117DOPC   GL224838  14.842  26.710  14.864 -0.1947  0.0774  0.4324
 2117DOPC   C1A24839  15.027  26.197  14.732  0.0237  0.0164 -0.2271
 2117DOPC   D2A24840  15.252  26.206  14.312  0.0306  0.1079  0.0027
 2117DOPC   C3A24841  15.269  26.331  13.856  0.0955 -0.2047  0.2450
 2117DOPC   C4A24842  15.270  26.327  13.422  0.4202 -0.0149 -0.0083
 2117DOPC   C1B24843  14.958  27.070  14.552  0.1768  0.1165  0.0318
 2117DOPC   D2B24844  14.831  27.394  14.240 -0.1979  0.0976 -0.0076
 2117DOPC   C3B24845  15.105  27.609  13.895 -0.0340 -0.3903 -0.0482
 2117DOPC   C4B24846  15.417  27.719  13.543 -0.1323  0.1929 -0.2401
 2118DOPC   NC324847  16.311  27.708  15.393 -0.1498  0.1694 -0.1847
 2118DOPC   PO424848  16.066  27.682  15.695 -0.0545  0.0467 -0.0346
 2118DOPC   GL124849  15.898  27.873  15.367 -0.0558 -0.0578  0.4138
 2118DOPC   GL224850  15.676  27.900  15.496  0.1276  0.1769 -0.1642
 2118DOPC   C1A24851  16.062  27.758  14.945 -0.0830 -0.0236  0.0582
 2118DOPC   D2A24852  16.160  27.520  14.562 -0.1010  0.0982  0.1556
 2118DOPC   C3A24853  16.347  27.775  14.239 -0.0915  0.0209 -0.0778
 2118DOPC   C4A24854  16.340  27.966  13.782  0.0987 -0.0214  0.0763
 2118DOPC   C1B24855  15.600  28.175  15.074 -0.0946 -0.4244  0.0870
 2118DOPC   D2B24856  15.505  28.279  14.604 -0.0933  0.0063 -0.0693
 2118DOPC   C3B24857  15.528  28.103  14.155 -0.0385 -0.0523 -0.1181
 2118DOPC   C4B24858  15.806  27.867  13.856 -0.2449  0.0827  0.0780
 2119DOPC   NC324859  21.593  32.554  16.127  0.1137  0.1728 -0.1206
 2119DOPC   PO424860  21.792  32.294  16.404 -0.0528  0.0472 -0.3989
 2119DOPC   GL124861  22.010  32.378  16.084  0.0418 -0.0029  0.1555
 2119DOPC   GL224862  22.203  32.504  16.092  0.0702  0.0135  0.1347
 2119DOPC   C1A24863  22.117  32.374  15.629  0.1319 -0.1039 -0.4703
 2119DOPC   D2A24864  22.145  32.410  15.147  0.0572  0.2564 -0.1290
 2119DOPC   C3A24865  22.207  32.118  14.796 -0.0166 -0.2038 -0.1556
 2119DOPC   C4A24866  22.413  32.053  14.392 -0.1005  0.4472 -0.4405
 2119DOPC   C1B24867  22.549  32.758  15.840  0.0769  0.0205 -0.0127
 2119DOPC   D2B24868  22.571  32.695  15.368 -0.1715 -0.1526  0.2395
 2119DOPC   C3B24869  22.845  32.502  14.999 -0.1289 -0.0280  0.2411
 2119DOPC   C4B24870  22.770  32.078  14.800 -0.0824  0.3314  0.1387
 2120DOPC   NC324871  11.200  24.606  14.680  0.1020 -0.2180 -0.1548
 2120DOPC   PO424872  11.239  24.301  14.923 -0.3374  0.3548 -0.1252
 2120DOPC   GL124873  11.277  24.138  14.528  0.1383 -0.2311  0.0104
 2120DOPC   GL224874  11.255  23.840  14.549 -0.0985  0.0821  0.2120
 2120DOPC   C1A24875  11.269  24.169  14.084  0.1090  0.0962  0.2897
 2120DOPC   D2A24876  11.420  24.076  13.680  0.3259  0.0401  0.0997
 2120DOPC   C3A24877  11.777  23.888  13.776 -0.0531 -0.0070 -0.1573
 2120DOPC   C4A24878  12.087  23.551  13.816  0.1305 -0.0049 -0.1047
 2120DOPC   C1B24879  10.880  23.977  14.360  0.2078 -0.1697  0.0289
 2120DOPC   D2B24880  10.574  24.110  14.070  0.1143 -0.2221 -0.0664
 2120DOPC   C3B24881  10.478  24.230  13.646 -0.3812 -0.1636  0.1083
 2120DOPC   C4B24882  10.568  24.508  13.246  0.0805  0.0921  0.1668
 2121DOPC   NC324883  17.408  27.155  16.329 -0.3137  0.1097 -0.3188
 2121DOPC   PO424884  17.626  27.482  16.320  0.5709 -0.1633  0.4527
 2121DOPC   GL124885  17.837  27.308  16.019 -0.0506  0.1451 -0.0474
 2121DOPC   GL224886  17.667  27.360  15.788 -0.1592 -0.0400  0.0659
 2121DOPC   C1A24887  18.000  26.913  15.829 -0.5016 -0.2110 -0.1031
 2121DOPC   D2A24888  17.983  26.638  15.496  0.0622  0.0371 -0.0936
 2121DOPC   C3A24889  18.170  26.641  15.050  0.0251  0.0321 -0.2295
 2121DOPC   C4A24890  18.427  26.638  14.688  0.3266 -0.1922  0.0553
 2121DOPC   C1B24891  17.560  27.068  15.545  0.1682 -0.1613 -0.0844
 2121DOPC   D2B24892  17.262  26.741  15.415  0.0606 -0.2415 -0.2513
 2121DOPC   C3B24893  17.294  26.712  14.958  0.0037 -0.1273 -0.2434
 2121DOPC   C4B24894  17.455  27.067  14.668  0.0831 -0.1245  0.2521
 2122DOPE   NH324895  21.779  29.508  16.793  0.3819 -0.0861 -0.3979
 2122DOPE   PO424896  21.589  29.454  16.545  0.0356  0.1557 -0.0818
 2122DOPE   GL124897  21.881  29.601  16.245 -0.1366 -0.1524  0.1284
 2122DOPE   GL224898  21.974  29.901  16.177  0.0852  0.1430 -0.1751
 2122DOPE   C1A24899  22.100  29.382  15.940  0.1017  0.2705 -0.1251
 2122DOPE   D2A24900  22.108  29.471  15.474 -0.0329 -0.1218  0.3342
 2122DOPE   C3A24901  22.394  29.280  15.129 -0.0192  0.0506  0.0256
 2122DOPE   C4A24902  22.514  29.053  14.710 -0.0768  0.2620 -0.1101
 2122DOPE   C1B24903  21.665  30.231  16.042 -0.0493  0.1327  0.0413
 2122DOPE   D2B24904  21.320  30.421  15.832 -0.2136 -0.1239 -0.4460
 2122DOPE   C3B24905  21.039  30.060  15.745 -0.0301  0.1810  0.0179
 2122DOPE   C4B24906  20.644  29.791  15.582  0.0489  0.1242 -0.4403
 2123DOPE   NH324907  20.311  29.485  16.634  0.1423  0.0323 -0.2135
 2123DOPE   PO424908  20.462  29.219  16.708  0.0115 -0.0643 -0.1154
 2123DOPE   GL124909  20.697  29.272  16.364 -0.4937 -0.1137 -0.3484
 2123DOPE   GL224910  20.550  29.208  16.089  0.1084 -0.1149 -0.1366
 2123DOPE   C1A24911  21.042  29.238  16.045 -0.0490  0.0367 -0.1400
 2123DOPE   D2A24912  21.159  29.170  15.594  0.3387 -0.2095  0.2220
 2123DOPE   C3A24913  20.914  29.355  15.254  0.2335  0.0007  0.1379
 2123DOPE   C4A24914  20.706  29.700  15.058 -0.0380 -0.0297 -0.0295
 2123DOPE   C1B24915  20.334  29.628  16.014 -0.0606 -0.0347  0.1256
 2123DOPE   D2B24916  20.051  29.969  15.915  0.1280 -0.3320  0.3233
 2123DOPE   C3B24917  19.812  30.020  15.559  0.0139  0.1263  0.4111
 2123DOPE   C4B24918  19.735  29.880  15.117 -0.2892 -0.2374 -0.0549
 2124POSM   NC324919  16.654  32.115  15.161 -0.0597 -0.2486  0.1937
 2124POSM   PO424920  16.984  31.987  15.361 -0.0288 -0.1110 -0.5565
 2124POSM   AM124921  17.245  31.858  15.222 -0.1142 -0.2293 -0.0468
 2124POSM   AM224922  17.398  31.926  14.975  0.0570 -0.0624 -0.0330
 2124POSM   T1A24923  17.407  31.409  15.063 -0.0266  0.0245 -0.0739
 2124POSM   C2A24924  17.613  31.108  14.809  0.0184 -0.0479 -0.0248
 2124POSM   C3A24925  17.949  30.767  14.673  0.1068  0.0211  0.0776
 2124POSM   C1B24926  17.195  31.818  14.706 -0.0710 -0.2522 -0.1870
 2124POSM   D2B24927  17.079  31.869  14.271 -0.1012 -0.3760  0.1279
 2124POSM   C3B24928  17.357  32.197  14.041 -0.0506 -0.1370  0.0557
 2124POSM   C4B24929  17.253  32.480  13.694 -0.1514 -0.0857  0.2091
 2125DOPC   NC324930  20.113  23.670  15.742  0.0249  0.1047 -0.0926
 2125DOPC   PO424931  19.819  23.621  16.045 -0.2985  0.1416  0.1267
 2125DOPC   GL124932  19.603  23.616  15.775  0.1911  0.1534  0.0220
 2125DOPC   GL224933  19.294  23.524  15.935 -0.0206 -0.2707  0.1181
 2125DOPC   C1A24934  19.697  23.477  15.393 -0.0231 -0.0508  0.1134
 2125DOPC   D2A24935  19.909  23.166  15.174  0.0415 -0.0353  0.1674
 2125DOPC   C3A24936  20.160  23.268  14.801 -0.0596  0.1133  0.1060
 2125DOPC   C4A24937  20.322  23.677  14.621  0.1324  0.1310  0.0749
 2125DOPC   C1B24938  19.209  23.407  15.515  0.1627  0.1223 -0.1761
 2125DOPC   D2B24939  19.385  23.201  15.164  0.0571  0.1143 -0.1194
 2125DOPC   C3B24940  19.542  23.268  14.699 -0.1692  0.5085 -0.0700
 2125DOPC   C4B24941  19.915  23.149  14.374 -0.0442  0.1506 -0.1373
 2126POSM   NC324942  15.436  25.447  15.609  0.0630  0.0178 -0.0207
 2126POSM   PO424943  15.018  25.415  15.564 -0.2091 -0.0287 -0.0467
 2126POSM   AM124944  15.079  25.381  15.215  0.0883  0.0442  0.3847
 2126POSM   AM224945  14.985  25.286  14.947  0.2209 -0.0015 -0.0492
 2126POSM   T1A24946  15.332  25.645  14.859 -0.0494 -0.1273 -0.1839
 2126POSM   C2A24947  15.593  25.820  14.549 -0.2131  0.1167 -0.1358
 2126POSM   C3A24948  15.690  25.970  14.092  0.0938  0.2770 -0.0116
 2126POSM   C1B24949  14.863  25.254  14.601  0.1521 -0.0509  0.0509
 2126POSM   D2B24950  14.928  25.245  14.185  0.1329 -0.0079  0.1402
 2126POSM   C3B24951  15.101  24.976  13.832  0.1515 -0.0488 -0.1562
 2126POSM   C4B24952  15.224  24.841  13.388 -0.0886  0.1024  0.2023
 2127POSM   NC324953  11.850  32.856  15.206  0.0434 -0.2691 -0.3398
 2127POSM   PO424954  12.043  33.182  15.105  0.0638  0.1735  0.3674
 2127POSM   AM124955  12.194  33.334  14.849  0.5239 -0.0003 -0.2092
 2127POSM   AM224956  12.482  33.280  14.726  0.2069  0.1676 -0.0511
 2127POSM   T1A24957  12.058  33.412  14.379 -0.1161 -0.0053  0.0723
 2127POSM   C2A24958  12.187  33.374  13.961  0.1382 -0.2579 -0.1585
 2127POSM   C3A24959  12.362  33.475  13.528  0.1420 -0.3793  0.3534
 2127POSM   C1B24960  12.576  33.369  14.412  0.2089  0.0230 -0.0588
 2127POSM   D2B24961  12.677  33.559  14.002  0.0713  0.2734  0.2460
 2127POSM   C3B24962  12.869  33.361  13.620  0.0727 -0.1092  0.2818
 2127POSM   C4B24963  12.805  33.137  13.190 -0.0571 -0.1573 -0.3030
 2128DOPS   CNO24964  16.484  30.726  15.908  0.2384 -0.3729 -0.0097
 2128DOPS   PO424965  16.726  30.519  16.154 -0.1472  0.1004  0.2768
 2128DOPS   GL124966  16.889  30.541  15.717  0.0273 -0.0625 -0.1183
 2128DOPS   GL224967  16.727  30.440  15.506 -0.1357  0.4089  0.0267
 2128DOPS   C1A24968  17.239  30.248  15.571 -0.0584 -0.2873 -0.2170
 2128DOPS   D2A24969  17.521  30.090  15.218  0.3645 -0.0538  0.1386
 2128DOPS   C3A24970  17.800  30.284  14.918  0.2490 -0.1790 -0.2172
 2128DOPS   C4A24971  17.854  30.317  14.459 -0.1698  0.3328 -0.2074
 2128DOPS   C1B24972  16.978  30.346  15.128  0.0270  0.1053  0.0121
 2128DOPS   D2B24973  17.204  30.149  14.758 -0.1958 -0.2423  0.3214
 2128DOPS   C3B24974  17.350  30.357  14.360 -0.1544  0.0915 -0.0833
 2128DOPS   C4B24975  17.433  30.443  13.952  0.2106 -0.1176  0.0664
 2129DOPC   NC324976  15.299  31.674  14.916  0.2686 -0.2766  0.1284
 2129DOPC   PO424977  14.988  31.891  15.019  0.1485  0.0826 -0.2331
 2129DOPC   GL124978  14.891  32.089  14.648 -0.0153  0.0101  0.3946
 2129DOPC   GL224979  15.202  32.127  14.624 -0.3188  0.0124 -0.1059
 2129DOPC   C1A24980  14.783  32.210  14.222  0.0328  0.0728 -0.1161
 2129DOPC   D2A24981  14.775  32.473  13.850  0.0631  0.0702  0.0537
 2129DOPC   C3A24982  15.088  32.773  13.885 -0.1884  0.2277 -0.2903
 2129DOPC   C4A24983  15.566  32.820  13.867 -0.1487 -0.0798 -0.0157
 2129DOPC   C1B24984  15.452  31.777  14.415  0.0383 -0.0483  0.0116
 2129DOPC   D2B24985  15.339  31.336  14.370 -0.0652 -0.3449  0.2463
 2129DOPC   C3B24986  15.511  31.102  14.004 -0.1530  0.0574  0.2550
 2129DOPC   C4B24987  15.835  30.804  13.966 -0.0429  0.1046 -0.0541
 2130DOPE   NH324988  15.529  30.878  15.342  0.3897  0.0787  0.2450
 2130DOPE   PO424989  15.825  30.968  15.310  0.1654  0.1076  0.1035
 2130DOPE   GL124990  15.948  30.957  14.928  0.0987 -0.3330  0.0644
 2130DOPE   GL224991  16.274  30.989  14.858 -0.0169  0.0289 -0.0161
 2130DOPE   C1A24992  16.088  30.548  14.821 -0.0294  0.2879 -0.0098
 2130DOPE   D2A24993  16.187  30.194  14.561 -0.3742 -0.1292  0.0687
 2130DOPE   C3A24994  16.218  30.075  14.116  0.0764 -0.1459 -0.0858
 2130DOPE   C4A24995  16.099  29.828  13.781 -0.1804  0.0584  0.0326
 2130DOPE   C1B24996  16.622  31.024  14.539  0.1785 -0.1747  0.2430
 2130DOPE   D2B24997  16.751  30.987  14.078 -0.0199  0.2140  0.0642
 2130DOPE   C3B24998  17.128  30.936  13.856  0.1858 -0.0322 -0.1166
 2130DOPE   C4B24999  17.535  30.891  13.718  0.0563  0.1911  0.1324
 2131DOPE   NH325000  17.234  24.959  16.236  0.2089  0.5281 -0.2295
 2131DOPE   PO425001  17.030  25.197  16.171  0.0862 -0.0374 -0.0384
 2131DOPE   GL125002  16.980  25.021  15.809  0.3358 -0.1493  0.1367
 2131DOPE   GL225003  16.674  24.933  15.862  0.2281 -0.3641  0.2337
 2131DOPE   C1A25004  17.217  24.987  15.374  0.2226 -0.2368 -0.2697
 2131DOPE   D2A25005  17.176  24.901  14.956  0.0734 -0.1001  0.2527
 2131DOPE   C3A25006  17.527  25.121  14.749 -0.1392 -0.1475 -0.1395
 2131DOPE   C4A25007  17.678  25.494  14.489  0.0432 -0.0050 -0.1497
 2131DOPE   C1B25008  16.587  24.872  15.439 -0.3234 -0.0906  0.2773
 2131DOPE   D2B25009  16.336  24.736  15.075 -0.0836 -0.0012  0.0241
 2131DOPE   C3B25010  16.621  24.834  14.658  0.4372 -0.3149  0.2230
 2131DOPE   C4B25011  16.800  24.702  14.236 -0.0926  0.2313 -0.1517
 2132DOPC   NC325012  18.445  26.306  16.238 -0.0052  0.0790  0.1437
 2132DOPC   PO425013  18.333  26.124  15.896  0.2385 -0.2910  0.0726
 2132DOPC   GL125014  18.351  26.362  15.644  0.2274 -0.1254  0.3948
 2132DOPC   GL225015  18.475  26.592  15.803  0.0657 -0.0260 -0.1946
 2132DOPC   C1A25016  18.418  26.235  15.197 -0.2246  0.0545 -0.1534
 2132DOPC   D2A25017  18.442  26.074  14.771 -0.1162  0.0975 -0.0830
 2132DOPC   C3A25018  18.144  26.310  14.610  0.2715  0.2527  0.0670
 2132DOPC   C4A25019  17.886  26.735  14.585 -0.0221 -0.0016  0.0265
 2132DOPC   C1B25020  18.462  26.976  15.584 -0.1205  0.0943 -0.2817
 2132DOPC   D2B25021  18.074  27.143  15.354  0.0627  0.2594 -0.0933
 2132DOPC   C3B25022  18.090  27.094  14.873 -0.1809 -0.0697 -0.0650
 2132DOPC   C4B25023  18.348  27.082  14.458 -0.1186  0.0233 -0.0557
 2133POSM   NC325024  19.840  32.002  16.654  0.1301 -0.1455 -0.1495
 2133POSM   PO425025  19.733  32.112  16.318 -0.1180 -0.0526  0.2202
 2133POSM   AM125026  19.709  32.007  16.019 -0.0206  0.1779  0.3105
 2133POSM   AM225027  19.892  32.002  15.840 -0.1943 -0.1443 -0.4018
 2133POSM   T1A25028  19.469  31.714  15.682 -0.0774  0.2047  0.0111
 2133POSM   C2A25029  19.511  31.723  15.210  0.1389  0.0288  0.0120
 2133POSM   C3A25030  19.449  32.092  14.957 -0.1824 -0.1767 -0.1509
 2133POSM   C1B25031  20.000  31.868  15.519 -0.3335 -0.0445  0.5111
 2133POSM   D2B25032  20.029  31.739  15.064  0.0036 -0.3651  0.2116
 2133POSM   C3B25033  19.822  31.662  14.646 -0.0486  0.0081  0.0301
 2133POSM   C4B25034  19.649  31.733  14.150  0.1219  0.5727 -0.1486
 2134POSM   NC325035  14.256  33.481  14.518 -0.5479  0.2313  0.0952
 2134POSM   PO425036  13.905  33.425  14.680  0.1665 -0.0345 -0.1182
 2134POSM   AM125037  13.851  33.276  14.420  0.0340 -0.2467 -0.2042
 2134POSM   AM225038  13.979  33.077  14.228  0.2893  0.1768 -0.0956
 2134POSM   T1A25039  13.763  33.362  13.905  0.0146  0.0166 -0.1089
 2134POSM   C2A25040  13.925  33.380  13.460  0.0068  0.2073 -0.3163
 2134POSM   C3A25041  13.934  33.321  13.019  0.0807 -0.2147  0.1646
 2134POSM   C1B25042  13.913  32.927  13.967 -0.0138  0.1573 -0.0247
 2134POSM   D2B25043  13.678  32.930  13.538  0.0803  0.2190  0.2146
 2134POSM   C3B25044  13.710  32.547  13.279 -0.2268  0.1988 -0.2358
 2134POSM   C4B25045  13.812  32.133  13.270 -0.0930  0.3019  0.1264
 2135DOPC   NC325046  19.907  33.351  15.718  0.0100  0.0334  0.0301
 2135DOPC   PO425047  20.127  33.448  16.010  0.0845 -0.1884  0.0041
 2135DOPC   GL125048  20.300  33.648  15.753  0.2892  0.5124 -0.0149
 2135DOPC   GL225049  20.118  33.821  15.561  0.1230 -0.0780  0.1257
 2135DOPC   C1A25050  20.465  33.369  15.414  0.0799 -0.2619  0.3013
 2135DOPC   D2A25051  20.490  33.004  15.119 -0.0471 -0.0385  0.0008
 2135DOPC   C3A25052  20.393  33.062  14.687 -0.0215 -0.0228 -0.0493
 2135DOPC   C4A25053  20.452  33.191  14.232 -0.2272  0.0566  0.0813
 2135DOPC   C1B25054  19.826  33.718  15.213 -0.1808 -0.0207 -0.2355
 2135DOPC   D2B25055  19.664  33.395  14.924  0.3307  0.0015 -0.1691
 2135DOPC   C3B25056  19.913  33.184  14.697 -0.2210  0.1126  0.0898
 2135DOPC   C4B25057  19.990  32.955  14.288  0.0320  0.4913 -0.1532
 2136DOPS   CNO25058  16.353  30.222  16.048 -0.1228  0.1993 -0.1644
 2136DOPS   PO425059  16.254  29.969  15.815  0.1745  0.2512 -0.0011
 2136DOPS   GL125060  16.411  30.119  15.432 -0.1471  0.0073  0.1993
 2136DOPS   GL225061  16.541  29.898  15.279  0.0322  0.0056 -0.1888
 2136DOPS   C1A25062  16.413  30.444  15.152  0.1331 -0.1935 -0.4554
 2136DOPS   D2A25063  16.701  30.790  14.991  0.0987  0.0475  0.0378
 2136DOPS   C3A25064  16.964  30.699  14.640 -0.0105 -0.1085  0.2289
 2136DOPS   C4A25065  17.167  30.998  14.358  0.1733 -0.4225  0.2325
 2136DOPS   C1B25066  16.382  29.696  14.914  0.0614  0.4031  0.2929
 2136DOPS   D2B25067  16.362  29.668  14.445  0.0349 -0.0057 -0.0079
 2136DOPS   C3B25068  16.226  29.323  14.106  0.3093 -0.0080  0.0381
 2136DOPS   C4B25069  15.951  29.265  13.805  0.1611  0.0698 -0.2279
 2137DOPE   NH325070  22.871  27.717  16.553 -0.3500  0.1309  0.1253
 2137DOPE   PO425071  22.599  27.555  16.473 -0.1937  0.0880  0.3272
 2137DOPE   GL125072  22.300  27.634  16.146 -0.2887 -0.2571 -0.1375
 2137DOPE   GL225073  22.033  27.759  16.267  0.0028  0.0334 -0.0612
 2137DOPE   C1A25074  22.157  27.520  15.686  0.1794  0.1750 -0.2255
 2137DOPE   D2A25075  21.903  27.464  15.319 -0.1658 -0.1687 -0.0847
 2137DOPE   C3A25076  22.135  27.345  14.889  0.1362 -0.2439 -0.1416
 2137DOPE   C4A25077  21.968  27.467  14.499  0.2132 -0.2414  0.2007
 2137DOPE   C1B25078  21.849  28.010  15.926  0.0734 -0.4255  0.1091
 2137DOPE   D2B25079  21.553  27.957  15.603  0.1876  0.2792  0.3983
 2137DOPE   C3B25080  21.595  27.900  15.152  0.2122 -0.0369 -0.1650
 2137DOPE   C4B25081  21.609  27.534  14.827 -0.3432  0.1553  0.0103
 2138DOPS   CNO25082  17.211  32.681  15.876  0.3706  0.0244  0.1806
 2138DOPS   PO425083  17.073  32.511  15.544 -0.1030  0.1811  0.2619
 2138DOPS   GL125084  17.170  32.493  15.135  0.0692 -0.0150 -0.3563
 2138DOPS   GL225085  17.030  32.272  14.939 -0.4203  0.1774  0.2303
 2138DOPS   C1A25086  17.128  32.696  14.694  0.2180  0.1625 -0.2248
 2138DOPS   D2A25087  17.158  32.618  14.232 -0.0691 -0.1078 -0.0770
 2138DOPS   C3A25088  16.958  32.900  13.886  0.0339 -0.0575  0.1472
 2138DOPS   C4A25089  16.792  33.233  13.713 -0.0529 -0.1946  0.0911
 2138DOPS   C1B25090  16.900  32.273  14.495 -0.4020 -0.0562 -0.0903
 2138DOPS   D2B25091  16.894  32.275  13.969 -0.0270  0.2735  0.0044
 2138DOPS   C3B25092  16.726  32.364  13.546 -0.2361 -0.1134  0.0802
 2138DOPS   C4B25093  16.854  32.371  13.092  0.1857  0.0046 -0.3140
 2139DOPS   CNO25094  13.705  24.346  15.416  0.2582 -0.0080  0.0873
 2139DOPS   PO425095  13.430  24.353  15.159  0.0831 -0.0727  0.1270
 2139DOPS   GL125096  13.631  24.510  14.838  0.4912  0.0732  0.2774
 2139DOPS   GL225097  13.799  24.637  14.816 -0.2600 -0.0085  0.0976
 2139DOPS   C1A25098  13.659  24.455  14.371  0.2798 -0.2453 -0.1193
 2139DOPS   D2A25099  13.412  24.610  14.043  0.0906 -0.1069 -0.1475
 2139DOPS   C3A25100  13.258  24.639  13.603  0.2207 -0.1578  0.2639
 2139DOPS   C4A25101  13.413  24.812  13.222 -0.0200 -0.1102 -0.0936
 2139DOPS   C1B25102  13.966  24.817  14.431 -0.2495 -0.1064 -0.0053
 2139DOPS   D2B25103  14.050  24.924  13.948 -0.1291 -0.0810  0.0973
 2139DOPS   C3B25104  14.130  24.836  13.521 -0.2393  0.1290  0.1175
 2139DOPS   C4B25105  14.391  24.723  13.113  0.1668  0.0431  0.1251
 2140POSM   NC325106  13.406  30.613  15.346  0.2545 -0.1527 -0.2832
 2140POSM   PO425107  13.158  30.783  15.046  0.2951  0.1420 -0.1661
 2140POSM   AM125108  13.342  30.769  14.782  0.3693  0.1442 -0.1840
 2140POSM   AM225109  13.289  30.915  14.553  0.0760 -0.0260 -0.1276
 2140POSM   T1A25110  13.827  30.803  14.603  0.0229  0.0388  0.0978
 2140POSM   C2A25111  14.170  30.873  14.350  0.1536 -0.1684 -0.2299
 2140POSM   C3A25112  14.447  31.100  14.045 -0.1983  0.0085 -0.1099
 2140POSM   C1B25113  13.444  30.958  14.237 -0.0847  0.2029 -0.0192
 2140POSM   D2B25114  13.755  31.102  14.012  0.1585  0.0415 -0.1379
 2140POSM   C3B25115  13.872  31.334  13.647  0.0989 -0.0473  0.0430
 2140POSM   C4B25116  13.586  31.553  13.348  0.4526 -0.1788 -0.1938
 2141POSM   NC325117  20.133  28.957  17.088 -0.1793 -0.0174 -0.1158
 2141POSM   PO425118  19.790  28.885  16.862  0.0071 -0.3767  0.0816
 2141POSM   AM125119  19.708  29.027  16.571 -0.3469  0.1364  0.3061
 2141POSM   AM225120  19.661  29.314  16.433  0.0483  0.1158 -0.0727
 2141POSM   T1A25121  19.498  29.000  16.082 -0.0965 -0.0530 -0.0134
 2141POSM   C2A25122  19.556  28.927  15.631  0.0207 -0.2283 -0.0727
 2141POSM   C3A25123  19.637  28.700  15.267  0.1314  0.0027 -0.0776
 2141POSM   C1B25124  19.797  29.429  16.138 -0.1488 -0.0452 -0.2442
 2141POSM   D2B25125  19.810  29.467  15.705  0.0057 -0.1632  0.4236
 2141POSM   C3B25126  20.189  29.657  15.539  0.1355  0.2749 -0.1226
 2141POSM   C4B25127  20.256  29.940  15.220  0.0224 -0.0950  0.0620
 2142DOPC   NC325128  14.237  25.290  15.248  0.0385 -0.1120  0.2891
 2142DOPC   PO425129  13.970  25.160  14.953 -0.0276  0.1480 -0.3385
 2142DOPC   GL125130  14.060  25.456  14.622  0.2531  0.0280 -0.2392
 2142DOPC   GL225131  14.382  25.507  14.710  0.2062 -0.0880  0.2313
 2142DOPC   C1A25132  14.084  25.403  14.148  0.1329  0.1115  0.4856
 2142DOPC   D2A25133  14.131  25.364  13.675 -0.2600 -0.1247  0.0526
 2142DOPC   C3A25134  14.417  25.240  13.403 -0.5295  0.1846  0.0088
 2142DOPC   C4A25135  14.709  24.911  13.518 -0.3774 -0.1095 -0.0478
 2142DOPC   C1B25136  14.537  25.598  14.315  0.1243 -0.0624 -0.4105
 2142DOPC   D2B25137  14.580  25.818  13.911  0.0982 -0.3730 -0.1603
 2142DOPC   C3B25138  14.516  25.770  13.485  0.3034  0.1418 -0.2924
 2142DOPC   C4B25139  14.419  25.879  13.027  0.2187 -0.1518  0.0823
 2143POSM   NC325140  17.557  34.522  15.742  0.0499  0.0274 -0.2543
 2143POSM   PO425141  17.192  34.410  15.671  0.2868 -0.2275  0.3033
 2143POSM   AM125142  17.210  34.257  15.402  0.0672  0.0858 -0.0157
 2143POSM   AM225143  17.169  33.981  15.347  0.1393 -0.2010  0.4111
 2143POSM   T1A25144  16.917  34.437  14.992  0.3269  0.0792  0.0092
 2143POSM   C2A25145  16.693  34.516  14.580 -0.1479  0.2300  0.1934
 2143POSM   C3A25146  16.368  34.706  14.311 -0.1685 -0.0394 -0.1091
 2143POSM   C1B25147  17.001  33.986  15.005 -0.0357  0.2783  0.1385
 2143POSM   D2B25148  17.061  34.081  14.536 -0.0358  0.2787 -0.2368
 2143POSM   C3B25149  16.773  34.128  14.171  0.3489  0.1389  0.0015
 2143POSM   C4B25150  16.673  34.362  13.832  0.3885 -0.1958  0.2089
 2144DOPC   NC325151  18.499  29.246  16.094 -0.1960 -0.1909 -0.1624
 2144DOPC   PO425152  18.234  29.474  16.173  0.0390 -0.0979 -0.0333
 2144DOPC   GL125153  18.185  29.477  15.844 -0.0534 -0.0427 -0.3013
 2144DOPC   GL225154  18.101  29.699  15.709 -0.0770 -0.0571  0.0324
 2144DOPC   C1A25155  18.170  29.280  15.426 -0.0728  0.1335  0.2141
 2144DOPC   D2A25156  18.218  29.362  14.966 -0.0827 -0.1174  0.2534
 2144DOPC   C3A25157  17.828  29.245  14.719  0.0046 -0.0025  0.2004
 2144DOPC   C4A25158  17.605  28.983  14.357 -0.1376  0.0454 -0.0144
 2144DOPC   C1B25159  18.477  29.643  15.507  0.2798 -0.3613  0.0280
 2144DOPC   D2B25160  18.833  29.472  15.248 -0.0390 -0.1109 -0.0256
 2144DOPC   C3B25161  19.079  29.252  14.940  0.0273 -0.1010  0.1099
 2144DOPC   C4B25162  19.284  29.151  14.570 -0.2193  0.1291 -0.0127
 2145POSM   NC325163  18.936  28.554  16.293  0.2171  0.1495 -0.0805
 2145POSM   PO425164  18.640  28.793  16.464 -0.0511  0.2657  0.1901
 2145POSM   AM125165  18.619  28.820  16.144 -0.0301  0.0439 -0.0639
 2145POSM   AM225166  18.487  28.650  15.926 -0.4721 -0.0320 -0.2883
 2145POSM   T1A25167  18.682  29.053  15.720 -0.0200 -0.1990  0.3352
 2145POSM   C2A25168  18.609  29.018  15.284  0.1127  0.3352 -0.0742
 2145POSM   C3A25169  18.752  28.848  14.843 -0.2263  0.0744 -0.0942
 2145POSM   C1B25170  18.313  28.739  15.655  0.2149  0.2867 -0.2507
 2145POSM   D2B25171  18.089  28.837  15.239  0.2104 -0.0476  0.0649
 2145POSM   C3B25172  18.292  28.833  14.826  0.3878  0.4322  0.1491
 2145POSM   C4B25173  18.440  28.959  14.427  0.4832 -0.3330 -0.4230
 2146POSM   NC325174  19.610  24.467  16.140  0.0344  0.0365 -0.1644
 2146POSM   PO425175  19.810  24.763  16.120 -0.0725 -0.0333 -0.0065
 2146POSM   AM125176  19.935  24.594  15.885 -0.3784  0.0267  0.0786
 2146POSM   AM225177  19.772  24.567  15.627  0.2498 -0.1493  0.0418
 2146POSM   T1A25178  20.236  24.333  15.597 -0.0523  0.2603  0.1522
 2146POSM   C2A25179  20.573  24.518  15.305 -0.0552  0.2349  0.0179
 2146POSM   C3A25180  20.696  24.887  15.043  0.2076  0.2478 -0.0382
 2146POSM   C1B25181  19.819  24.562  15.343 -0.1438 -0.2015  0.0997
 2146POSM   D2B25182  20.104  24.675  15.034 -0.1567  0.1407 -0.1813
 2146POSM   C3B25183  20.041  24.772  14.632 -0.2677 -0.0901  0.0095
 2146POSM   C4B25184  20.236  24.933  14.226  0.1105 -0.0098  0.0083
 2147DOPC   NC325185  13.464  27.001  15.107 -0.0127 -0.0545 -0.0122
 2147DOPC   PO425186  13.370  27.229  14.763 -0.1593  0.0004  0.0862
 2147DOPC   GL125187  13.401  27.036  14.354  0.0194 -0.3380  0.4869
 2147DOPC   GL225188  13.372  26.673  14.407 -0.0797 -0.2239 -0.2061
 2147DOPC   C1A25189  13.832  26.956  14.170  0.1576 -0.2571  0.2485
 2147DOPC   D2A25190  14.183  26.744  14.063  0.2113 -0.2556  0.1675
 2147DOPC   C3A25191  14.353  26.827  13.629 -0.0407  0.0538 -0.3477
 2147DOPC   C4A25192  14.526  27.004  13.277  0.2099  0.4153 -0.1155
 2147DOPC   C1B25193  13.296  26.582  13.981  0.2029 -0.2080 -0.1250
 2147DOPC   D2B25194  13.315  26.687  13.569  0.2272 -0.0043 -0.0126
 2147DOPC   C3B25195  13.565  26.480  13.245  0.2774 -0.2350  0.2203
 2147DOPC   C4B25196  13.755  26.054  13.183 -0.1821 -0.0227  0.0146
 2148DOPE   NH325197  13.814  25.713  14.907  0.1110  0.1967  0.2176
 2148DOPE   PO425198  14.122  25.708  15.049  0.3002  0.0443  0.0913
 2148DOPE   GL125199  14.161  25.902  14.660  0.1029  0.2609 -0.0021
 2148DOPE   GL225200  14.002  25.923  14.410 -0.1568 -0.1416 -0.1107
 2148DOPE   C1A25201  14.545  26.176  14.502 -0.1076  0.2788  0.2979
 2148DOPE   D2A25202  14.801  26.317  14.122 -0.2319  0.1349  0.0636
 2148DOPE   C3A25203  14.835  26.250  13.730 -0.1693  0.0057 -0.0540
 2148DOPE   C4A25204  14.694  26.484  13.351  0.0223 -0.2497  0.2913
 2148DOPE   C1B25205  13.926  25.863  13.941  0.2561 -0.1382 -0.0393
 2148DOPE   D2B25206  13.963  25.767  13.456  0.0104  0.2002 -0.3063
 2148DOPE   C3B25207  13.504  25.612  13.256 -0.5056 -0.1393 -0.0613
 2148DOPE   C4B25208  13.267  25.285  13.407  0.2569 -0.2561  0.2914
 2149DOPC   NC325209  13.271  27.927  14.574  0.2126  0.1960  0.2532
 2149DOPC   PO425210  12.877  27.995  14.529  0.0394 -0.3727  0.0910
 2149DOPC   GL125211  12.977  28.041  14.154 -0.5530  0.3114  0.0766
 2149DOPC   GL225212  12.966  27.803  14.053 -0.0746 -0.2664 -0.0450
 2149DOPC   C1A25213  13.009  28.328  13.812 -0.2305 -0.0779 -0.1239
 2149DOPC   D2A25214  12.833  28.500  13.421 -0.0034  0.1681 -0.1929
 2149DOPC   C3A25215  12.805  28.232  13.050  0.0777  0.0484  0.0589
 2149DOPC   C4A25216  12.628  28.439  12.634 -0.0833  0.1044  0.1396
 2149DOPC   C1B25217  12.990  27.413  13.735  0.1032 -0.2554  0.0004
 2149DOPC   D2B25218  12.791  27.457  13.310 -0.3337  0.0168 -0.2831
 2149DOPC   C3B25219  12.607  27.698  12.988 -0.1557 -0.1283  0.2123
 2149DOPC   C4B25220  12.663  27.869  12.530 -0.0519 -0.1335 -0.2509
 2150POSM   NC325221  20.299  31.070  16.901  0.1041  0.0080  0.0533
 2150POSM   PO425222  19.984  30.799  16.775  0.3782  0.0558 -0.0629
 2150POSM   AM125223  20.178  30.835  16.509 -0.2501  0.1406 -0.2345
 2150POSM   AM225224  20.211  30.634  16.300 -0.0718 -0.1971  0.2654
 2150POSM   T1A25225  20.646  30.884  16.272  0.1778  0.0144  0.1594
 2150POSM   C2A25226  21.080  30.775  16.099  0.1928 -0.0905 -0.0987
 2150POSM   C3A25227  21.417  30.636  16.352  0.1580 -0.2891  0.1206
 2150POSM   C1B25228  20.126  30.458  15.993 -0.1274 -0.3587  0.2236
 2150POSM   D2B25229  19.960  30.495  15.550  0.1147  0.0918 -0.2601
 2150POSM   C3B25230  20.103  30.913  15.354 -0.1946  0.2000  0.0024
 2150POSM   C4B25231  19.860  31.293  15.374 -0.4374 -0.3728 -0.0629
 2151POSM   NC325232  11.318  33.189  14.452  0.1696  0.2199 -0.1790
 2151POSM   PO425233  11.554  33.019  14.736 -0.5184  0.1293  0.1778
 2151POSM   AM125234  11.753  32.989  14.504  0.1115  0.3616 -0.1827
 2151POSM   AM225235  12.025  32.930  14.563  0.2321 -0.2096  0.2528
 2151POSM   T1A25236  11.857  32.696  14.129  0.0022  0.2272 -0.3144
 2151POSM   C2A25237  12.126  32.750  13.797  0.2059 -0.1460 -0.2433
 2151POSM   C3A25238  12.503  32.817  13.472  0.0127 -0.2205 -0.0929
 2151POSM   C1B25239  12.319  32.961  14.354  0.0649 -0.0397 -0.0926
 2151POSM   D2B25240  12.584  33.059  13.940  0.3285  0.1271 -0.0202
 2151POSM   C3B25241  12.937  32.897  13.701 -0.3171 -0.0968 -0.1567
 2151POSM   C4B25242  13.168  32.827  13.295  0.2524 -0.2404  0.4006
 2152POSM   NC325243  15.020  29.913  16.012  0.3414  0.0051  0.0901
 2152POSM   PO425244  14.951  29.812  15.625 -0.4589 -0.1972  0.1448
 2152POSM   AM125245  14.855  29.628  15.385  0.2059 -0.4172 -0.2346
 2152POSM   AM225246  14.642  29.688  15.220  0.2689 -0.2635  0.2138
 2152POSM   T1A25247  15.012  29.366  14.974  0.1476 -0.2435 -0.0095
 2152POSM   C2A25248  15.179  29.260  14.546  0.3001  0.0628  0.0081
 2152POSM   C3A25249  15.146  29.013  14.170 -0.0448 -0.5880  0.1471
 2152POSM   C1B25250  14.590  29.693  14.886  0.2104 -0.0148 -0.3968
 2152POSM   D2B25251  14.670  29.739  14.430  0.2082  0.2235 -0.1504
 2152POSM   C3B25252  14.457  29.989  14.041  0.0884 -0.0868 -0.0484
 2152POSM   C4B25253  14.278  30.360  13.928 -0.3641 -0.2411  0.4430
 2153POSM   NC325254  14.228  34.090  14.979 -0.3184 -0.0020  0.0521
 2153POSM   PO425255  14.087  33.948  14.652  0.1525 -0.1617  0.3442
 2153POSM   AM125256  14.262  34.046  14.357  0.2267 -0.2061 -0.1709
 2153POSM   AM225257  14.491  34.057  14.204 -0.2569  0.2359 -0.0424
 2153POSM   T1A25258  14.160  34.116  13.889  0.0542  0.0076 -0.3719
 2153POSM   C2A25259  14.096  33.909  13.526 -0.0488 -0.0091 -0.1817
 2153POSM   C3A25260  14.024  34.079  13.079  0.2556  0.1420  0.0469
 2153POSM   C1B25261  14.681  34.131  13.998  0.1337 -0.2315  0.0796
 2153POSM   D2B25262  14.991  34.407  13.702 -0.0035  0.3338 -0.3489
 2153POSM   C3B25263  15.084  34.391  13.284 -0.1701  0.2888  0.1010
 2153POSM   C4B25264  15.296  34.404  12.897  0.0004  0.2322  0.2362
 2154DOPC   NC325265  23.561  30.436  16.339 -0.1237 -0.1353  0.0208
 2154DOPC   PO425266  23.194  30.518  16.493  0.2727 -0.0591 -0.1681
 2154DOPC   GL125267  23.075  30.669  16.198  0.0388 -0.0449 -0.0126
 2154DOPC   GL225268  23.289  30.622  16.002 -0.6007  0.3874  0.1633
 2154DOPC   C1A25269  22.623  30.581  16.074 -0.2357  0.1712  0.1149
 2154DOPC   D2A25270  22.260  30.895  15.850 -0.2027  0.0035 -0.0634
 2154DOPC   C3A25271  22.432  31.229  15.579 -0.0274  0.3792 -0.1196
 2154DOPC   C4A25272  22.924  31.316  15.436  0.1657  0.0968  0.2942
 2154DOPC   C1B25273  23.549  30.286  15.823 -0.1294 -0.1209  0.1523
 2154DOPC   D2B25274  23.743  30.110  15.517 -0.1399  0.0388  0.1864
 2154DOPC   C3B25275  23.632  30.354  15.154  0.1195  0.1767 -0.0701
 2154DOPC   C4B25276  23.859  30.672  15.004  0.3569  0.2089  0.1531
 2155POSM   NC325277  21.779  30.397  16.864 -0.2043 -0.0892  0.1889
 2155POSM   PO425278  22.122  30.186  16.873  0.1581 -0.0233 -0.0764
 2155POSM   AM125279  22.093  30.286  16.555 -0.0710 -0.0565 -0.0993
 2155POSM   AM225280  21.944  30.525  16.420  0.0164  0.0811 -0.1833
 2155POSM   T1A25281  22.169  30.354  16.032 -0.1395 -0.0976  0.2331
 2155POSM   C2A25282  22.359  30.406  15.613 -0.2789 -0.4190 -0.1394
 2155POSM   C3A25283  22.399  30.339  15.145 -0.0635 -0.0788 -0.0419
 2155POSM   C1B25284  21.906  30.779  16.235 -0.1489  0.2439  0.0092
 2155POSM   D2B25285  21.889  31.157  15.969 -0.1187  0.1792  0.0763
 2155POSM   C3B25286  21.767  31.124  15.508 -0.0862 -0.2688 -0.2188
 2155POSM   C4B25287  21.928  31.315  15.166  0.2428 -0.1455  0.1195
 2156DOPS   CNO25288  17.335  29.338  16.305  0.0750  0.3259 -0.3650
 2156DOPS   PO425289  17.355  29.746  16.270 -0.0729 -0.0572 -0.2274
 2156DOPS   GL125290  17.192  29.876  15.896  0.0582  0.0941 -0.2375
 2156DOPS   GL225291  17.202  29.534  15.872 -0.0820  0.1656 -0.2059
 2156DOPS   C1A25292  16.984  29.766  15.456 -0.3346 -0.0590 -0.2382
 2156DOPS   D2A25293  17.034  29.578  15.031 -0.1587  0.0198 -0.0683
 2156DOPS   C3A25294  16.943  29.728  14.613  0.1482 -0.0609 -0.0710
 2156DOPS   C4A25295  16.750  30.035  14.337 -0.0029  0.0386  0.0769
 2156DOPS   C1B25296  17.114  29.308  15.507 -0.0907  0.1756 -0.0044
 2156DOPS   D2B25297  17.393  29.058  15.150 -0.0103  0.1368 -0.1198
 2156DOPS   C3B25298  17.340  29.247  14.740 -0.0336 -0.1162  0.4866
 2156DOPS   C4B25299  17.183  29.295  14.303 -0.0378 -0.1666 -0.1395
 2157DOPS   CNO25300  11.893  30.610  14.785  0.4189  0.0008 -0.3105
 2157DOPS   PO425301  12.222  30.392  14.818  0.1364  0.3652  0.0686
 2157DOPS   GL125302  12.192  30.530  14.410  0.5139  0.2233  0.3579
 2157DOPS   GL225303  12.069  30.397  14.187  0.0475 -0.1296  0.3308
 2157DOPS   C1A25304  12.395  30.700  14.022 -0.1305  0.1910 -0.2797
 2157DOPS   D2A25305  12.594  30.778  13.597 -0.2101  0.2962  0.3142
 2157DOPS   C3A25306  12.598  30.571  13.148  0.0818  0.0153  0.1494
 2157DOPS   C4A25307  12.632  30.178  12.961  0.1718  0.0738  0.1118
 2157DOPS   C1B25308  11.957  30.541  13.731  0.0287 -0.0136 -0.2947
 2157DOPS   D2B25309  12.167  30.487  13.274  0.2312  0.0142 -0.1813
 2157DOPS   C3B25310  12.223  30.634  12.843  0.0254 -0.0248  0.0718
 2157DOPS   C4B25311  12.339  30.787  12.449  0.2634 -0.0462  0.1200
 2158DOPS   CNO25312  17.547  30.779  15.671  0.1133 -0.0863 -0.0311
 2158DOPS   PO425313  17.449  31.128  15.744 -0.1758  0.0983  0.0901
 2158DOPS   GL125314  17.381  31.046  15.321  0.1312 -0.1987  0.5343
 2158DOPS   GL225315  17.159  30.868  15.342  0.2259 -0.1759 -0.0443
 2158DOPS   C1A25316  17.092  31.118  14.889  0.1523 -0.0364  0.2413
 2158DOPS   D2A25317  16.919  31.418  14.571 -0.3345  0.3273 -0.0811
 2158DOPS   C3A25318  16.987  31.386  14.130 -0.2050  0.0769 -0.4625
 2158DOPS   C4A25319  17.419  31.393  13.956  0.1077  0.2107 -0.1547
 2158DOPS   C1B25320  17.409  30.613  15.108  0.0683  0.0732  0.2545
 2158DOPS   D2B25321  17.491  30.647  14.697  0.2131 -0.2381  0.1288
 2158DOPS   C3B25322  17.672  30.814  14.229 -0.0514 -0.1321 -0.0214
 2158DOPS   C4B25323  17.928  31.144  13.992  0.3398  0.2134  0.3411
 2159POSM   NC325324  18.759  26.988  16.040  0.1307  0.0547  0.3398
 2159POSM   PO425325  18.928  26.622  16.124 -0.0757 -0.0725  0.1571
 2159POSM   AM125326  18.931  26.544  15.805  0.0485 -0.0567 -0.0627
 2159POSM   AM225327  19.065  26.345  15.656 -0.0351 -0.2190 -0.2623
 2159POSM   T1A25328  18.736  26.544  15.365  0.0387 -0.1783  0.0027
 2159POSM   C2A25329  18.674  26.885  15.049 -0.0230  0.0233 -0.3051
 2159POSM   C3A25330  18.723  27.199  14.741 -0.2753 -0.0433  0.0521
 2159POSM   C1B25331  19.327  26.385  15.468 -0.0529  0.0695  0.0752
 2159POSM   D2B25332  19.645  26.451  15.162  0.1866 -0.0647 -0.0739
 2159POSM   C3B25333  20.042  26.650  15.201  0.1238 -0.1598 -0.1338
 2159POSM   C4B25334  20.221  27.085  15.307  0.0657 -0.3839  0.0817
 2160DOPE   NH325335  19.652   0.478  16.357 -0.0429 -0.2004  0.0950
 2160DOPE   PO425336  19.432   0.252  16.293  0.1373 -0.0785  0.1797
 2160DOPE   GL125337  19.246   0.169  15.911  0.1618 -0.3336 -0.0238
 2160DOPE   GL225338  19.456  -0.073  15.906  0.1278  0.3260  0.0256
 2160DOPE   C1A25339  19.463   0.194  15.488 -0.0933 -0.0544  0.0258
 2160DOPE   D2A25340  19.294   0.169  15.025 -0.1167  0.0822  0.0105
 2160DOPE   C3A25341  19.198   0.559  14.778  0.0532 -0.0273 -0.1030
 2160DOPE   C4A25342  19.325   0.948  14.471  0.1001  0.1252  0.3870
 2160DOPE   C1B25343  19.508  -0.282  15.482 -0.0341 -0.1591  0.1763
 2160DOPE   D2B25344  19.839  -0.412  15.163 -0.2599 -0.1104 -0.0102
 2160DOPE   C3B25345  20.038  -0.647  14.797  0.0155  0.0398  0.0950
 2160DOPE   C4B25346  20.198  -0.557  14.390  0.3210 -0.0965  0.1186
 2161POSM   NC325347  16.909  24.111  16.288  0.2371  0.2158 -0.1451
 2161POSM   PO425348  17.050  24.483  16.352 -0.2539 -0.0304  0.0915
 2161POSM   AM125349  16.935  24.515  16.025  0.0519 -0.3346 -0.2734
 2161POSM   AM225350  17.123  24.531  15.785  0.0040 -0.0080  0.4169
 2161POSM   T1A25351  16.547  24.474  15.740 -0.0745  0.0327  0.0136
 2161POSM   C2A25352  16.118  24.581  15.510  0.0609 -0.0003 -0.0713
 2161POSM   C3A25353  15.857  24.935  15.300  0.0533 -0.3002 -0.0597
 2161POSM   C1B25354  16.972  24.495  15.483  0.2181  0.2622 -0.0671
 2161POSM   D2B25355  16.802  24.574  15.041 -0.4477  0.0310 -0.1128
 2161POSM   C3B25356  16.960  24.414  14.595 -0.1061  0.1516  0.0891
 2161POSM   C4B25357  17.192  24.189  14.304  0.0008 -0.0150 -0.2154
 2162DOPS   CNO25358  18.269  30.515  16.463  0.2939  0.1338  0.3906
 2162DOPS   PO425359  18.630  30.580  16.380  0.5143 -0.1385  0.1502
 2162DOPS   GL125360  18.869  30.653  15.984  0.2885  0.0283 -0.1865
 2162DOPS   GL225361  18.665  30.716  15.779  0.0541  0.1888 -0.3001
 2162DOPS   C1A25362  19.120  30.700  15.594  0.2898  0.0493 -0.3865
 2162DOPS   D2A25363  19.471  30.843  15.389 -0.1498  0.1527 -0.0391
 2162DOPS   C3A25364  19.388  30.804  14.916  0.2248  0.2356 -0.1222
 2162DOPS   C4A25365  19.299  30.828  14.425 -0.0300  0.2028 -0.0821
 2162DOPS   C1B25366  18.748  30.463  15.431  0.0799  0.2882  0.0162
 2162DOPS   D2B25367  18.991  30.466  15.031 -0.0446  0.2916  0.2051
 2162DOPS   C3B25368  19.298  30.213  14.849 -0.1221 -0.2593 -0.0318
 2162DOPS   C4B25369  19.598  30.334  14.505  0.1319  0.1290 -0.2489
 2163POSM   NC325370  21.701  27.822  16.701 -0.5446  0.0907  0.1739
 2163POSM   PO425371  21.729  28.253  16.685  0.0911  0.0692  0.3492
 2163POSM   AM125372  21.558  28.173  16.385 -0.2161  0.3088  0.0979
 2163POSM   AM225373  21.356  27.983  16.318 -0.0116 -0.0038 -0.0083
 2163POSM   T1A25374  21.397  28.282  15.936 -0.0885  0.4337 -0.3826
 2163POSM   C2A25375  21.264  28.670  15.670 -0.1485  0.0318 -0.0202
 2163POSM   C3A25376  20.833  28.821  15.839 -0.0227  0.2564  0.3526
 2163POSM   C1B25377  21.517  27.716  16.162 -0.0222 -0.1141  0.0543
 2163POSM   D2B25378  21.639  27.458  15.804  0.2971  0.0182 -0.1277
 2163POSM   C3B25379  21.448  27.440  15.364 -0.0185  0.0125  0.2911
 2163POSM   C4B25380  21.056  27.660  15.197  0.1826  0.3852 -0.1179
 2164POSM   NC325381  16.185  26.563  16.153  0.2536  0.3766 -0.0979
 2164POSM   PO425382  16.323  26.815  15.901  0.2412  0.5051 -0.0853
 2164POSM   AM125383  16.385  26.792  15.572 -0.0872  0.2801  0.1116
 2164POSM   AM225384  16.221  26.773  15.348 -0.2981  0.0864 -0.0429
 2164POSM   T1A25385  16.685  26.870  15.156  0.1809  0.0867 -0.2804
 2164POSM   C2A25386  16.791  26.585  14.800 -0.0324 -0.0673  0.1268
 2164POSM   C3A25387  16.933  26.191  14.637 -0.0291 -0.3331 -0.2237
 2164POSM   C1B25388  16.157  26.850  14.989 -0.1006  0.3984  0.0722
 2164POSM   D2B25389  16.385  26.824  14.609 -0.1763 -0.0225 -0.2161
 2164POSM   C3B25390  16.421  27.188  14.329  0.0754 -0.0282 -0.0172
 2164POSM   C4B25391  16.495  27.146  13.879  0.1529 -0.1244  0.2496
 2165POSM   NC325392  13.083  31.305  15.382 -0.3555 -0.0047 -0.4721
 2165POSM   PO425393  13.404  31.189  15.215 -0.2211 -0.3473 -0.0175
 2165POSM   AM125394  13.487  31.256  14.874 -0.1087 -0.4492 -0.3801
 2165POSM   AM225395  13.707  31.314  14.733  0.2071 -0.2081  0.2073
 2165POSM   T1A25396  13.386  31.454  14.409  0.0800  0.1129  0.3587
 2165POSM   C2A25397  13.279  31.408  13.934 -0.0498 -0.3034  0.1266
 2165POSM   C3A25398  12.976  31.386  13.586 -0.2390  0.0776  0.1781
 2165POSM   C1B25399  13.910  31.298  14.468 -0.3040  0.1194 -0.0648
 2165POSM   D2B25400  14.209  31.509  14.210 -0.1756  0.2121 -0.1647
 2165POSM   C3B25401  14.618  31.615  14.017  0.1887  0.0101 -0.1821
 2165POSM   C4B25402  14.831  31.960  13.794  0.1721 -0.1410  0.1727
 2166DOPE   NH325403  22.342  32.328  16.538  0.0894  0.0883  0.2182
 2166DOPE   PO425404  22.563  32.542  16.522  0.0177 -0.0639  0.2087
 2166DOPE   GL125405  22.650  32.399  16.184 -0.0213 -0.1303 -0.1847
 2166DOPE   GL225406  22.595  32.084  16.166  0.2070  0.2073 -0.2373
 2166DOPE   C1A25407  22.696  32.288  15.726  0.3131  0.1299 -0.1381
 2166DOPE   D2A25408  22.557  32.170  15.277  0.0864  0.0253  0.1734
 2166DOPE   C3A25409  22.678  31.744  15.212 -0.2472 -0.1096 -0.1750
 2166DOPE   C4A25410  23.065  31.565  15.011  0.1290 -0.1250 -0.1844
 2166DOPE   C1B25411  22.651  31.690  16.001 -0.0833  0.1337  0.1428
 2166DOPE   D2B25412  22.998  31.379  16.050 -0.2342 -0.2144  0.0063
 2166DOPE   C3B25413  22.834  31.030  15.776 -0.0304  0.0479  0.0165
 2166DOPE   C4B25414  22.701  30.769  15.403  0.2569  0.0407  0.0909
 2167DOPE   NH325415  12.840  31.026  14.656  0.0928  0.2905  0.0893
 2167DOPE   PO425416  12.657  30.756  14.715  0.1550  0.0860 -0.0325
 2167DOPE   GL125417  12.718  30.822  14.276 -0.2931  0.3781  0.3569
 2167DOPE   GL225418  12.931  30.634  14.248  0.1154 -0.0684  0.2012
 2167DOPE   C1A25419  13.051  30.936  13.894 -0.5197  0.0641 -0.1485
 2167DOPE   D2A25420  13.404  31.070  13.605 -0.0388 -0.1224 -0.2822
 2167DOPE   C3A25421  13.336  31.158  13.176 -0.0012  0.1461  0.1698
 2167DOPE   C4A25422  13.243  30.883  12.765  0.1642  0.3456  0.0016
 2167DOPE   C1B25423  12.766  30.402  13.832  0.1081  0.0321 -0.1769
 2167DOPE   D2B25424  12.440  30.221  13.573 -0.0483 -0.1454  0.0896
 2167DOPE   C3B25425  12.274  29.995  13.215 -0.2682  0.2515  0.0947
 2167DOPE   C4B25426  12.117  29.626  12.991  0.1019 -0.2152 -0.1369
 2168DOPS   CNO25427  22.053  24.321  16.013 -0.1863  0.3545 -0.1549
 2168DOPS   PO425428  22.231  24.039  16.190 -0.3308 -0.1065  0.1073
 2168DOPS   GL125429  22.248  23.804  15.890  0.0877 -0.1008 -0.1979
 2168DOPS   GL225430  22.170  23.881  15.658  0.2410 -0.2978  0.3595
 2168DOPS   C1A25431  22.507  23.577  15.591 -0.1265  0.0870  0.1450
 2168DOPS   D2A25432  22.553  23.101  15.513  0.1638  0.0618 -0.1638
 2168DOPS   C3A25433  22.178  22.878  15.346 -0.0580  0.0431  0.0774
 2168DOPS   C4A25434  21.918  22.707  14.987  0.1801  0.1602  0.3301
 2168DOPS   C1B25435  22.134  24.127  15.278 -0.1084 -0.1765  0.1002
 2168DOPS   D2B25436  22.073  24.000  14.861 -0.1914 -0.3446 -0.0945
 2168DOPS   C3B25437  22.021  23.659  14.528 -0.0550 -0.0048  0.4212
 2168DOPS   C4B25438  21.866  23.260  14.308 -0.1834 -0.2263 -0.0277
 2169DOPS   CNO25439  12.083  27.228  15.112 -0.2366  0.0238  0.0740
 2169DOPS   PO425440  11.727  27.405  15.047  0.1225 -0.0571  0.0388
 2169DOPS   GL125441  11.751  27.363  14.637 -0.1964 -0.0884 -0.3812
 2169DOPS   GL225442  11.906  27.538  14.425 -0.2119 -0.1579  0.0969
 2169DOPS   C1A25443  11.589  27.189  14.259 -0.0213 -0.0745 -0.3291
 2169DOPS   D2A25444  11.520  27.249  13.768  0.1549  0.1360 -0.0937
 2169DOPS   C3A25445  11.294  26.850  13.746 -0.2422  0.2213 -0.1722
 2169DOPS   C4A25446  11.176  26.507  13.406  0.2058 -0.0193  0.1056
 2169DOPS   C1B25447  11.845  27.584  13.968 -0.2030  0.1684  0.1723
 2169DOPS   D2B25448  11.633  27.770  13.591 -0.1794  0.0955 -0.1320
 2169DOPS   C3B25449  11.355  27.669  13.260 -0.2197 -0.0436 -0.1363
 2169DOPS   C4B25450  11.333  27.313  13.013 -0.0677 -0.0950 -0.0350
 2170DOPE   NH325451  16.159  33.066  15.535  0.2863 -0.1432  0.0501
 2170DOPE   PO425452  15.875  32.968  15.367 -0.0721  0.1569 -0.0429
 2170DOPE   GL125453  15.926  32.926  14.979 -0.0049 -0.1827 -0.2024
 2170DOPE   GL225454  16.203  32.828  15.036  0.1539 -0.1586 -0.2644
 2170DOPE   C1A25455  15.619  32.794  14.640 -0.1055 -0.1814  0.4454
 2170DOPE   D2A25456  15.660  32.351  14.512  0.0512 -0.0740  0.1256
 2170DOPE   C3A25457  15.921  32.093  14.194 -0.0274  0.5038  0.0880
 2170DOPE   C4A25458  16.138  31.767  13.931  0.1880 -0.1346 -0.0882
 2170DOPE   C1B25459  16.133  32.761  14.613 -0.2830 -0.1936  0.2078
 2170DOPE   D2B25460  16.037  32.768  14.123 -0.2776  0.0546  0.0392
 2170DOPE   C3B25461  15.902  32.455  13.848  0.0888  0.0848 -0.1699
 2170DOPE   C4B25462  15.725  32.246  13.471 -0.0123 -0.0719 -0.3348
 2171DOPC   NC325463  16.076  33.826  15.172 -0.2588  0.0191 -0.2291
 2171DOPC   PO425464  15.958  33.540  15.436  0.0200 -0.0278 -0.2394
 2171DOPC   GL125465  16.004  33.356  15.129 -0.0962  0.0667  0.3843
 2171DOPC   GL225466  16.270  33.360  15.072 -0.1009 -0.1862  0.1199
 2171DOPC   C1A25467  15.926  33.233  14.671 -0.0448  0.2364 -0.0334
 2171DOPC   D2A25468  15.686  33.198  14.279  0.0567  0.1427  0.1043
 2171DOPC   C3A25469  15.915  33.236  13.841 -0.0815  0.2256  0.1014
 2171DOPC   C4A25470  15.926  33.422  13.389 -0.0386  0.1232  0.0286
 2171DOPC   C1B25471  16.272  33.583  14.701  0.2114 -0.3070  0.2405
 2171DOPC   D2B25472  16.591  33.592  14.395 -0.3142  0.0003 -0.0340
 2171DOPC   C3B25473  16.949  33.538  14.652 -0.0908 -0.3526  0.4900
 2171DOPC   C4B25474  17.273  33.527  15.005 -0.0485  0.0806  0.1367
 2172DOPE   NH325475  17.101  31.995  15.873  0.3847 -0.0604  0.1057
 2172DOPE   PO425476  17.372  32.100  15.680 -0.1102 -0.3246 -0.0176
 2172DOPE   GL125477  17.587  32.304  15.501 -0.2750 -0.4173  0.3935
 2172DOPE   GL225478  17.569  32.612  15.416 -0.1859 -0.0344  0.1240
 2172DOPE   C1A25479  17.960  32.170  15.241 -0.1443  0.2581 -0.2919
 2172DOPE   D2A25480  17.944  32.088  14.804 -0.0235  0.0941  0.0040
 2172DOPE   C3A25481  18.304  31.898  14.658  0.0944  0.0267  0.0716
 2172DOPE   C4A25482  18.626  31.715  14.420 -0.0379  0.1123  0.2091
 2172DOPE   C1B25483  17.602  32.450  14.967 -0.0019  0.2826  0.3065
 2172DOPE   D2B25484  17.407  32.272  14.548  0.1638 -0.0104  0.0984
 2172DOPE   C3B25485  17.604  31.849  14.445  0.0181 -0.2245 -0.2315
 2172DOPE   C4B25486  17.468  31.467  14.462  0.0026 -0.0192  0.0123
 2173DOPC   NC325487  10.960  25.789  14.727  0.0396  0.2449  0.1764
 2173DOPC   PO425488  10.991  26.157  14.885 -0.0312 -0.0038 -0.1492
 2173DOPC   GL125489  10.994  26.177  14.450 -0.4206 -0.0611 -0.0480
 2173DOPC   GL225490  11.233  26.184  14.276  0.0699  0.2511 -0.0795
 2173DOPC   C1A25491  10.803  25.878  14.150 -0.5825  0.1409 -0.1138
 2173DOPC   D2A25492  10.541  25.579  13.849 -0.3822  0.0399  0.2774
 2173DOPC   C3A25493  10.485  25.146  13.866  0.1402  0.2615  0.0487
 2173DOPC   C4A25494  10.255  24.745  13.728  0.2979  0.2185  0.1014
 2173DOPC   C1B25495  11.509  26.403  13.983 -0.1290  0.1947  0.0341
 2173DOPC   D2B25496  11.698  26.434  13.548  0.0464  0.2310  0.1708
 2173DOPC   C3B25497  11.623  26.882  13.366  0.3610 -0.1139 -0.1586
 2173DOPC   C4B25498  11.817  27.315  13.247  0.0156 -0.0375 -0.0677
 2174DOPE   NH325499  20.920  27.791  16.562 -0.0817  0.2839  0.1767
 2174DOPE   PO425500  20.821  27.478  16.584  0.2335  0.0351 -0.1184
 2174DOPE   GL125501  20.940  27.557  16.149  0.0059  0.0284  0.1572
 2174DOPE   GL225502  20.969  27.765  15.996 -0.3509 -0.1908 -0.1303
 2174DOPE   C1A25503  20.997  27.387  15.636 -0.3687 -0.0010  0.0894
 2174DOPE   D2A25504  20.882  27.240  15.174 -0.0090  0.1710 -0.1054
 2174DOPE   C3A25505  21.039  27.269  14.760  0.1596  0.0739  0.0998
 2174DOPE   C4A25506  21.121  27.228  14.324  0.1570 -0.0733 -0.1409
 2174DOPE   C1B25507  21.037  28.007  15.678  0.1817  0.3180 -0.0541
 2174DOPE   D2B25508  21.003  28.194  15.319  0.1525  0.3820  0.0453
 2174DOPE   C3B25509  20.752  28.530  15.190 -0.1238  0.3430 -0.0888
 2174DOPE   C4B25510  20.490  28.716  15.551 -0.0379  0.1033  0.2057
 2175DOPE   NH325511  20.777  32.030  16.666 -0.0777 -0.1464 -0.2899
 2175DOPE   PO425512  20.978  31.827  16.484  0.1127 -0.2320 -0.0553
 2175DOPE   GL125513  21.068  31.585  16.154 -0.0260  0.3068  0.0440
 2175DOPE   GL225514  20.958  31.357  16.311 -0.2163  0.2075 -0.1258
 2175DOPE   C1A25515  21.335  31.428  15.765 -0.3215  0.2866  0.1857
 2175DOPE   D2A25516  21.365  31.302  15.307 -0.2133 -0.0204  0.1283
 2175DOPE   C3A25517  21.463  31.399  14.846 -0.0191 -0.2570  0.1010
 2175DOPE   C4A25518  21.404  31.790  14.555  0.0017  0.0868  0.0246
 2175DOPE   C1B25519  20.877  31.169  15.919 -0.0195 -0.2237 -0.1699
 2175DOPE   D2B25520  21.004  30.929  15.572  0.1656 -0.0790 -0.3304
 2175DOPE   C3B25521  20.705  30.910  15.173 -0.0021 -0.2318 -0.0486
 2175DOPE   C4B25522  20.333  30.847  14.855  0.1046 -0.0488  0.0355
 2176DOPC   NC325523  14.095  23.689  14.698 -0.1402 -0.2828 -0.1461
 2176DOPC   PO425524  14.341  23.921  14.859 -0.0899 -0.0279 -0.0526
 2176DOPC   GL125525  14.288  24.058  14.505  0.0828  0.1182  0.1964
 2176DOPC   GL225526  14.051  24.144  14.433  0.3751 -0.1381 -0.1450
 2176DOPC   C1A25527  14.434  24.155  14.097 -0.2551  0.1315  0.2092
 2176DOPC   D2A25528  14.845  24.223  13.840  0.0852  0.0039 -0.0310
 2176DOPC   C3A25529  15.131  24.001  13.459 -0.2071 -0.2150  0.0509
 2176DOPC   C4A25530  15.598  23.930  13.465 -0.0407  0.0979 -0.0992
 2176DOPC   C1B25531  13.855  23.793  14.250 -0.0358  0.1888 -0.0637
 2176DOPC   D2B25532  13.606  23.726  13.941 -0.0736 -0.1025 -0.2155
 2176DOPC   C3B25533  13.643  23.464  13.521  0.1260 -0.0319  0.0286
 2176DOPC   C4B25534  13.608  23.231  13.161  0.2005 -0.1095 -0.0298
 2177DOPC   NC325535  21.930  26.483  15.665 -0.1584 -0.0779 -0.1344
 2177DOPC   PO425536  22.216  26.492  15.915  0.1187 -0.2782  0.2217
 2177DOPC   GL125537  22.373  26.501  15.563  0.1902 -0.1327  0.0550
 2177DOPC   GL225538  22.217  26.365  15.273 -0.4775 -0.2642 -0.0561
 2177DOPC   C1A25539  22.719  26.507  15.196  0.1313 -0.0404 -0.2862
 2177DOPC   D2A25540  23.018  26.523  14.759  0.1827  0.1382 -0.1325
 2177DOPC   C3A25541  23.386  26.762  14.660  0.1674  0.1177  0.1746
 2177DOPC   C4A25542  23.811  26.749  14.829 -0.2982 -0.2574  0.2465
 2177DOPC   C1B25543  21.939  26.508  14.976  0.0710 -0.0788  0.2647
 2177DOPC   D2B25544  21.632  26.599  14.634  0.1323 -0.1406 -0.1123
 2177DOPC   C3B25545  21.679  26.506  14.194  0.2091  0.0729 -0.0476
 2177DOPC   C4B25546  21.832  26.693  13.780  0.0847 -0.0734  0.2255
 2178DOPE   NH325547  19.035  25.348  16.041 -0.1108 -0.1056 -0.2384
 2178DOPE   PO425548  18.977  25.078  15.909  0.2135  0.1188  0.1391
 2178DOPE   GL125549  18.636  25.318  15.733  0.2896  0.0153 -0.1860
 2178DOPE   GL225550  18.781  25.434  15.556 -0.0376  0.1982 -0.0761
 2178DOPE   C1A25551  18.398  25.237  15.358 -0.1293  0.0489  0.1826
 2178DOPE   D2A25552  18.426  24.976  14.875  0.0204  0.0890 -0.2061
 2178DOPE   C3A25553  18.474  25.220  14.502  0.0288  0.0430 -0.1659
 2178DOPE   C4A25554  18.805  25.416  14.191  0.0713 -0.2049  0.0560
 2178DOPE   C1B25555  18.972  25.573  15.189 -0.2319  0.0421 -0.2356
 2178DOPE   D2B25556  19.334  25.904  15.233 -0.3587 -0.1977  0.0454
 2178DOPE   C3B25557  19.693  26.006  14.908 -0.0340  0.1390 -0.0873
 2178DOPE   C4B25558  19.647  26.412  14.643 -0.1898  0.0168 -0.3064
 2179DOPE   NH325559  22.640  30.024  16.782 -0.0213 -0.0666  0.1683
 2179DOPE   PO425560  22.929  30.114  16.709 -0.0635  0.2453 -0.1112
 2179DOPE   GL125561  22.856  30.186  16.324 -0.0752  0.3386 -0.2374
 2179DOPE   GL225562  23.145  30.064  16.227 -0.0301 -0.2162  0.1989
 2179DOPE   C1A25563  22.696  30.111  15.885 -0.0751 -0.0256 -0.0909
 2179DOPE   D2A25564  22.627  30.019  15.429 -0.0045  0.1348 -0.1734
 2179DOPE   C3A25565  22.735  29.568  15.403  0.1330  0.0807  0.1984
 2179DOPE   C4A25566  23.114  29.304  15.462 -0.2333  0.3717  0.4227
 2179DOPE   C1B25567  23.179  30.011  15.805 -0.2393 -0.1067 -0.0237
 2179DOPE   D2B25568  23.284  29.975  15.379 -0.0960  0.1512  0.3970
 2179DOPE   C3B25569  23.311  29.612  15.066  0.3073  0.0469  0.3613
 2179DOPE   C4B25570  23.249  29.423  14.657 -0.2180  0.0453  0.1452
 2180DOPS   CNO25571  12.874  28.857  15.297  0.1348  0.4721  0.0490
 2180DOPS   PO425572  13.235  28.715  15.210  0.1448  0.0106  0.1620
 2180DOPS   GL125573  13.530  28.870  14.969  0.0418  0.2947  0.2968
 2180DOPS   GL225574  13.401  29.067  14.757  0.0760 -0.0596  0.0984
 2180DOPS   C1A25575  13.848  28.750  14.644  0.0469  0.1442 -0.3515
 2180DOPS   D2A25576  14.194  28.552  14.362  0.1130 -0.0252 -0.2991
 2180DOPS   C3A25577  14.300  28.631  13.888 -0.2358 -0.2417  0.4551
 2180DOPS   C4A25578  14.187  28.448  13.462  0.0118  0.0647 -0.1494
 2180DOPS   C1B25579  13.365  28.674  14.496 -0.1857 -0.1890  0.0205
 2180DOPS   D2B25580  13.356  28.338  14.197 -0.3418 -0.2832  0.0562
 2180DOPS   C3B25581  13.459  28.101  13.847  0.1693  0.2997  0.1174
 2180DOPS   C4B25582  13.502  27.635  13.795 -0.2614 -0.2120  0.0235
 2181POSM   NC325583  15.961  34.300  15.673  0.2039  0.0273 -0.1335
 2181POSM   PO425584  16.212  34.515  15.448  0.1509 -0.3695  0.4115
 2181POSM   AM125585  16.285  34.346  15.162 -0.4370 -0.1823  0.2170
 2181POSM   AM225586  16.498  34.085  15.096 -0.0358 -0.0988 -0.3938
 2181POSM   T1A25587  16.180  34.384  14.670 -0.0350  0.1002 -0.2833
 2181POSM   C2A25588  15.908  34.539  14.415 -0.0141  0.1493  0.1636
 2181POSM   C3A25589  15.868  34.746  13.987 -0.1868 -0.1542 -0.2699
 2181POSM   C1B25590  16.544  33.961  14.765 -0.0394 -0.1115 -0.1748
 2181POSM   D2B25591  16.304  34.016  14.317  0.0960 -0.4296  0.3321
 2181POSM   C3B25592  16.224  34.285  13.978  0.1425  0.1119 -0.2402
 2181POSM   C4B25593  15.891  34.333  13.697  0.0264 -0.0393 -0.2792
 2182DOPC   NC325594  11.429  28.896  15.288  0.0607 -0.0002  0.1782
 2182DOPC   PO425595  11.750  28.773  15.126 -0.1266 -0.1128 -0.0717
 2182DOPC   GL125596  11.766  28.753  14.675 -0.1212 -0.4252 -0.0505
 2182DOPC   GL225597  11.616  28.669  14.413  0.2908  0.2823 -0.0511
 2182DOPC   C1A25598  11.960  29.005  14.307  0.3052  0.1182  0.0324
 2182DOPC   D2A25599  12.111  29.021  13.879  0.1087 -0.1101  0.2474
 2182DOPC   C3A25600  11.755  29.246  13.713 -0.2626  0.0403  0.1791
 2182DOPC   C4A25601  11.563  29.206  13.297  0.2982 -0.0318 -0.0303
 2182DOPC   C1B25602  11.425  29.077  14.233 -0.0771 -0.3947 -0.0248
 2182DOPC   D2B25603  11.386  29.472  14.018 -0.0026 -0.2917 -0.1574
 2182DOPC   C3B25604  11.562  29.750  13.760 -0.0859  0.1893  0.2006
 2182DOPC   C4B25605  11.668  30.133  13.543 -0.0645 -0.1032 -0.0003
 2183DOPC   NC325606  14.727  27.679  15.747  0.0201 -0.0491  0.0448
 2183DOPC   PO425607  15.143  27.609  15.792 -0.1673 -0.0504  0.2926
 2183DOPC   GL125608  15.122  27.457  15.443  0.2356 -0.4222 -0.0047
 2183DOPC   GL225609  14.954  27.615  15.211  0.1196 -0.2730 -0.2871
 2183DOPC   C1A25610  15.422  27.664  15.148  0.0925 -0.4768 -0.0234
 2183DOPC   D2A25611  15.596  27.756  14.769 -0.0348 -0.2082 -0.1629
 2183DOPC   C3A25612  15.939  27.982  14.502  0.3952  0.2585 -0.1790
 2183DOPC   C4A25613  16.088  28.242  14.135  0.0067 -0.0435 -0.0067
 2183DOPC   C1B25614  15.099  27.423  14.838  0.2250 -0.3959  0.0909
 2183DOPC   D2B25615  15.346  27.345  14.404  0.3720  0.1654  0.0934
 2183DOPC   C3B25616  15.758  27.544  14.280 -0.2239  0.2448 -0.1947
 2183DOPC   C4B25617  16.077  27.395  14.031 -0.0961 -0.1178  0.3024
 2184DOPS   CNO25618  13.958  24.830  15.323  0.1608 -0.1532  0.2053
 2184DOPS   PO425619  14.301  24.748  15.235 -0.0452  0.0063  0.1967
 2184DOPS   GL125620  14.612  24.950  15.037 -0.0674  0.1696  0.1219
 2184DOPS   GL225621  14.485  25.013  14.783 -0.3455 -0.2044 -0.0104
 2184DOPS   C1A25622  14.989  24.810  14.745  0.2166 -0.0868  0.2271
 2184DOPS   D2A25623  14.923  24.657  14.272 -0.0413  0.1220  0.0506
 2184DOPS   C3A25624  15.281  24.486  13.948  0.2738  0.1798 -0.2328
 2184DOPS   C4A25625  15.583  24.614  13.646  0.1963  0.0533 -0.2545
 2184DOPS   C1B25626  14.452  25.125  14.339  0.0935  0.0425  0.2683
 2184DOPS   D2B25627  14.463  25.161  13.919 -0.0352 -0.4320  0.1203
 2184DOPS   C3B25628  14.836  25.421  13.731 -0.0298 -0.1291 -0.2012
 2184DOPS   C4B25629  15.333  25.510  13.641 -0.0849 -0.2043  0.0758
 2185DOPC   NC325630  21.427   0.581  16.131 -0.0228  0.4263 -0.0356
 2185DOPC   PO425631  21.761   0.514  16.405 -0.1919  0.0989  0.2162
 2185DOPC   GL125632  21.980   0.433  16.100  0.1809  0.2083  0.0974
 2185DOPC   GL225633  22.195   0.662  16.121 -0.0819 -0.2507  0.1411
 2185DOPC   C1A25634  21.742   0.549  15.760  0.1266 -0.2033 -0.0105
 2185DOPC   D2A25635  21.728   0.898  15.391 -0.0270  0.3029  0.1104
 2185DOPC   C3A25636  21.945   1.283  15.441 -0.3112  0.1504  0.3338
 2185DOPC   C4A25637  22.079   1.347  15.906 -0.3549 -0.1366  0.4199
 2185DOPC   C1B25638  22.180   0.849  15.650 -0.0772  0.2935  0.0713
 2185DOPC   D2B25639  22.263   0.944  15.237  0.0653 -0.2056 -0.2307
 2185DOPC   C3B25640  22.429   0.557  15.045 -0.2117 -0.0414  0.0847
 2185DOPC   C4B25641  22.350   0.106  14.935 -0.0663 -0.2385  0.0625
 2186POSM   NC325642  20.375  27.731  16.681  0.0076  0.0811 -0.0105
 2186POSM   PO425643  20.254  28.047  16.849  0.3261 -0.0204  0.1235
 2186POSM   AM125644  20.221  28.185  16.532  0.4697  0.2462  0.1250
 2186POSM   AM225645  20.057  28.308  16.334  0.1421  0.3610 -0.3480
 2186POSM   T1A25646  20.439  27.955  16.190 -0.0020 -0.0507  0.2132
 2186POSM   C2A25647  20.578  27.796  15.762 -0.0253 -0.0016 -0.1189
 2186POSM   C3A25648  20.501  27.486  15.445  0.0979 -0.0572 -0.4749
 2186POSM   C1B25649  20.130  28.593  16.139  0.1973  0.2946 -0.3042
 2186POSM   D2B25650  20.011  28.904  15.867 -0.2626 -0.1682 -0.0657
 2186POSM   C3B25651  20.041  29.104  15.471 -0.3083 -0.0750 -0.0824
 2186POSM   C4B25652  20.080  28.916  15.053 -0.2340 -0.3522  0.2729
 2187DOPC   NC325653  17.388  23.706  16.518  0.1560 -0.1331  0.2057
 2187DOPC   PO425654  17.439  24.074  16.351  0.1921 -0.0657  0.0873
 2187DOPC   GL125655  17.318  24.196  16.042 -0.2932 -0.2980  0.2469
 2187DOPC   GL225656  17.488  24.494  16.090 -0.3273 -0.1107  0.2635
 2187DOPC   C1A25657  17.542  24.185  15.657 -0.0246  0.2116 -0.2424
 2187DOPC   D2A25658  17.502  23.905  15.281  0.1436  0.1927 -0.1329
 2187DOPC   C3A25659  17.858  23.707  15.088 -0.0856 -0.2307  0.1262
 2187DOPC   C4A25660  18.192  23.415  15.008 -0.1400 -0.3601 -0.1464
 2187DOPC   C1B25661  17.532  24.834  15.783  0.0754  0.0334 -0.0689
 2187DOPC   D2B25662  17.818  25.006  15.473 -0.1758  0.0648  0.2755
 2187DOPC   C3B25663  17.769  24.745  15.096  0.0003  0.0200  0.1834
 2187DOPC   C4B25664  18.048  24.629  14.686 -0.0641  0.0454  0.1321
 2188DOPC   NC325665  21.078  24.089  15.638  0.0883 -0.0871 -0.0155
 2188DOPC   PO425666  21.004  23.721  15.837  0.2160 -0.7076 -0.0500
 2188DOPC   GL125667  20.882  23.623  15.490 -0.0821 -0.0767 -0.1319
 2188DOPC   GL225668  20.674  23.773  15.425 -0.1146  0.0881 -0.0557
 2188DOPC   C1A25669  21.199  23.329  15.296  0.1562 -0.1157 -0.0366
 2188DOPC   D2A25670  21.106  23.208  14.867 -0.0625  0.0550 -0.0720
 2188DOPC   C3A25671  21.051  22.870  14.584  0.0112  0.2361  0.0250
 2188DOPC   C4A25672  21.217  22.554  14.369  0.1364  0.4011  0.2812
 2188DOPC   C1B25673  20.792  23.585  15.018 -0.2483  0.0084 -0.2372
 2188DOPC   D2B25674  20.809  23.479  14.548  0.2809 -0.1173  0.0172
 2188DOPC   C3B25675  20.527  23.563  14.189  0.1508 -0.2860  0.0266
 2188DOPC   C4B25676  20.087  23.672  14.163  0.3348 -0.1592 -0.1063
 2189DOPE   NH325677  18.432  22.795  15.525  0.0505 -0.0238 -0.1645
 2189DOPE   PO425678  18.605  23.055  15.704  0.0387  0.1085  0.2497
 2189DOPE   GL125679  18.563  23.227  15.333 -0.0669 -0.1735  0.0322
 2189DOPE   GL225680  18.801  23.309  15.267  0.3110 -0.2025  0.0486
 2189DOPE   C1A25681  18.626  22.941  14.963 -0.0552 -0.0224  0.1864
 2189DOPE   D2A25682  18.476  22.820  14.531  0.0308 -0.1674 -0.1399
 2189DOPE   C3A25683  18.572  22.726  14.128 -0.0470  0.1462  0.0533
 2189DOPE   C4A25684  18.437  22.772  13.682  0.0140  0.4011 -0.1046
 2189DOPE   C1B25685  18.841  23.468  14.832 -0.3640  0.0902 -0.2044
 2189DOPE   D2B25686  19.147  23.728  14.648 -0.3403  0.0015  0.0162
 2189DOPE   C3B25687  19.088  23.629  14.151  0.1614 -0.0750 -0.0012
 2189DOPE   C4B25688  19.115  23.461  13.737  0.2313  0.0955 -0.0012
 2190POSM   NC325689  22.525  24.981  15.649  0.0089  0.0137 -0.1819
 2190POSM   PO425690  22.252  24.756  15.692 -0.2802  0.0396  0.0403
 2190POSM   AM125691  22.156  24.818  15.369 -0.1803  0.2905 -0.0336
 2190POSM   AM225692  22.351  24.911  15.189  0.0553  0.2557 -0.3050
 2190POSM   T1A25693  22.063  24.614  14.878 -0.1722  0.0318  0.0726
 2190POSM   C2A25694  21.866  24.393  14.502  0.0700 -0.1180  0.3329
 2190POSM   C3A25695  21.754  24.631  14.166 -0.2202  0.0219 -0.1918
 2190POSM   C1B25696  22.478  24.914  14.871 -0.0056 -0.1836 -0.5310
 2190POSM   D2B25697  22.556  24.866  14.418  0.0407  0.0543 -0.3014
 2190POSM   C3B25698  22.200  24.823  14.081  0.1885  0.1671 -0.2200
 2190POSM   C4B25699  22.194  24.614  13.683  0.2070  0.0604  0.3641
 2191POSM   NC325700  12.742  30.292  14.844 -0.0811  0.0418 -0.1522
 2191POSM   PO425701  13.074  30.413  14.654 -0.1348  0.3366 -0.2050
 2191POSM   AM125702  13.323  30.451  14.426 -0.2911 -0.0909  0.0592
 2191POSM   AM225703  13.577  30.455  14.288  0.1680 -0.4159 -0.1823
 2191POSM   T1A25704  13.254  30.468  13.932  0.0886 -0.0203  0.0467
 2191POSM   C2A25705  13.199  30.659  13.481  0.1192  0.0227 -0.1920
 2191POSM   C3A25706  12.964  30.892  13.200 -0.0261 -0.1238 -0.1134
 2191POSM   C1B25707  13.891  30.590  14.106  0.1121  0.0176 -0.0821
 2191POSM   D2B25708  14.128  30.881  13.806  0.1117  0.1396 -0.0417
 2191POSM   C3B25709  14.559  30.699  13.652  0.3121  0.1186  0.3016
 2191POSM   C4B25710  14.925  30.952  13.544 -0.2348 -0.0165 -0.0746
 2192DOPE   NH325711  12.869  25.284  14.780  0.0378  0.0638 -0.4109
 2192DOPE   PO425712  13.059  25.161  15.040  0.3142 -0.2665 -0.1431
 2192DOPE   GL125713  13.201  24.981  14.650  0.1968 -0.2290 -0.0644
 2192DOPE   GL225714  13.363  24.756  14.569 -0.0857  0.0537 -0.0453
 2192DOPE   C1A25715  12.992  24.935  14.222 -0.0164 -0.3114  0.0180
 2192DOPE   D2A25716  12.560  24.919  14.148  0.0565  0.1890 -0.3185
 2192DOPE   C3A25717  12.496  24.503  14.167  0.4607 -0.0474 -0.2103
 2192DOPE   C4A25718  12.400  24.119  14.441  0.3338  0.2333 -0.0597
 2192DOPE   C1B25719  13.478  25.068  14.242  0.1464  0.3612 -0.1573
 2192DOPE   D2B25720  13.310  25.098  13.819 -0.3427  0.0659 -0.0905
 2192DOPE   C3B25721  12.891  25.007  13.705 -0.0728  0.1557 -0.0928
 2192DOPE   C4B25722  12.675  24.699  13.410  0.1517  0.4120 -0.0711
 2193POSM   NC325723  12.200  25.826  14.917  0.1549 -0.3388 -0.1068
 2193POSM   PO425724  12.600  25.744  14.982  0.5068  0.1322 -0.0629
 2193POSM   AM125725  12.677  25.747  14.673  0.7636  0.0397  0.1792
 2193POSM   AM225726  12.599  25.906  14.452 -0.1195 -0.0037 -0.4564
 2193POSM   T1A25727  12.603  25.393  14.345 -0.0841 -0.0061 -0.1166
 2193POSM   C2A25728  12.196  25.191  14.215  0.1660  0.1100 -0.1545
 2193POSM   C3A25729  12.064  24.933  13.856 -0.2787 -0.2504  0.0339
 2193POSM   C1B25730  12.808  25.931  14.134 -0.1858  0.2502 -0.0147
 2193POSM   D2B25731  12.995  26.214  13.816 -0.0714 -0.2247  0.2301
 2193POSM   C3B25732  12.926  26.445  13.434  0.0995 -0.1682  0.1556
 2193POSM   C4B25733  13.083  26.588  13.057  0.3432  0.2052 -0.0729
 2194DOPE   NH325734  15.540  33.337  15.197 -0.1027 -0.0130 -0.0933
 2194DOPE   PO425735  15.449  33.578  15.371  0.2345 -0.0853  0.0872
 2194DOPE   GL125736  15.588  33.808  15.035  0.0477  0.0608  0.2415
 2194DOPE   GL225737  15.406  33.707  14.860  0.0164  0.0486 -0.1441
 2194DOPE   C1A25738  15.835  33.838  14.660 -0.2659 -0.2800  0.1876
 2194DOPE   D2A25739  15.971  33.656  14.248 -0.0812 -0.0893 -0.0026
 2194DOPE   C3A25740  16.049  33.743  13.818 -0.0240 -0.0815 -0.0705
 2194DOPE   C4A25741  16.316  34.010  13.575  0.1562  0.3074  0.0308
 2194DOPE   C1B25742  15.342  33.603  14.354  0.1581 -0.3568  0.1798
 2194DOPE   D2B25743  15.554  33.535  13.905 -0.0780 -0.0491 -0.0456
 2194DOPE   C3B25744  15.624  33.930  13.682  0.0628 -0.1748 -0.0239
 2194DOPE   C4B25745  15.543  34.288  13.339  0.0265  0.1774  0.0221
 2195POSM   NC325746  12.163  28.624  14.791 -0.0834  0.0511  0.2383
 2195POSM   PO425747  11.957  28.300  14.960  0.1755  0.0565 -0.0969
 2195POSM   AM125748  11.995  28.227  14.632 -0.2857  0.1137 -0.3584
 2195POSM   AM225749  12.070  27.997  14.431 -0.2037  0.1692 -0.2181
 2195POSM   T1A25750  12.046  28.494  14.230  0.1164 -0.4439  0.4371
 2195POSM   C2A25751  11.819  28.554  13.775  0.2509 -0.0474  0.0952
 2195POSM   C3A25752  11.989  28.835  13.420 -0.0423 -0.0539 -0.2227
 2195POSM   C1B25753  12.316  27.973  14.165 -0.1696  0.0750 -0.1222
 2195POSM   D2B25754  12.556  28.130  13.834 -0.2919  0.0670 -0.1503
 2195POSM   C3B25755  12.775  27.930  13.513 -0.0486  0.2023  0.0123
 2195POSM   C4B25756  13.154  28.088  13.418  0.0185 -0.0070  0.0419
 2196DOPS   CNO25757  23.150  25.518  16.228  0.2101 -0.2095 -0.0215
 2196DOPS   PO425758  23.225  25.153  16.089 -0.1913  0.1571  0.0297
 2196DOPS   GL125759  23.465  25.267  15.865  0.1536  0.2404 -0.4696
 2196DOPS   GL225760  23.643  25.043  15.770  0.0943 -0.3108 -0.1673
 2196DOPS   C1A25761  23.791  25.526  15.600 -0.2696  0.2804 -0.2216
 2196DOPS   D2A25762  23.930  25.562  15.158  0.0174  0.0401  0.2016
 2196DOPS   C3A25763  24.317  25.438  14.945 -0.0544 -0.0975  0.0629
 2196DOPS   C4A25764  24.440  25.184  14.581  0.0778 -0.1356 -0.0083
 2196DOPS   C1B25765  23.948  25.011  15.431  0.1456  0.0738  0.2372
 2196DOPS   D2B25766  24.078  24.889  14.993 -0.2630  0.1637  0.0279
 2196DOPS   C3B25767  24.337  24.543  15.098  0.0775  0.1959  0.0819
 2196DOPS   C4B25768  24.764  24.222  15.147 -0.1022 -0.0140  0.0117
 2197DOPC   NC325769  17.023  33.510  15.560  0.3033 -0.0992 -0.0868
 2197DOPC   PO425770  17.216  33.194  15.754 -0.1231 -0.1129  0.1752
 2197DOPC   GL125771  17.364  33.132  15.330  0.2502 -0.1656  0.2824
 2197DOPC   GL225772  17.111  32.968  15.258 -0.1854 -0.1994 -0.1039
 2197DOPC   C1A25773  17.545  33.031  14.926  0.1306 -0.2568 -0.2968
 2197DOPC   D2A25774  17.558  32.825  14.523 -0.0983  0.0189  0.0940
 2197DOPC   C3A25775  17.823  32.521  14.309  0.0400  0.3036 -0.0490
 2197DOPC   C4A25776  17.991  32.114  14.280 -0.0541 -0.0012 -0.0567
 2197DOPC   C1B25777  16.995  33.122  14.886  0.1615  0.0389  0.3549
 2197DOPC   D2B25778  16.923  33.128  14.382  0.0630 -0.1438 -0.0508
 2197DOPC   C3B25779  16.987  33.466  14.060  0.3700  0.0079 -0.0943
 2197DOPC   C4B25780  16.768  33.814  13.784 -0.0423 -0.1992 -0.1663
 2198DOPS   CNO25781  11.787  33.993  14.899  0.1124  0.2817  0.1035
 2198DOPS   PO425782  11.519  33.970  14.671 -0.0872 -0.1162  0.4300
 2198DOPS   GL125783  11.604  33.744  14.273  0.1233 -0.3643  0.1012
 2198DOPS   GL225784  11.789  33.864  14.093 -0.0070 -0.3945  0.0567
 2198DOPS   C1A25785  11.610  33.320  14.104 -0.1001  0.0717  0.2310
 2198DOPS   D2A25786  11.730  33.082  13.745 -0.3041  0.2741  0.2071
 2198DOPS   C3A25787  12.097  33.126  13.385  0.4701 -0.2114  0.3759
 2198DOPS   C4A25788  12.293  33.319  12.985 -0.1029  0.3419  0.1734
 2198DOPS   C1B25789  12.033  33.977  13.731 -0.1458 -0.1689  0.3946
 2198DOPS   D2B25790  12.212  34.026  13.306  0.1057  0.0754  0.1314
 2198DOPS   C3B25791  12.147  34.429  13.122  0.0595  0.1282 -0.1112
 2198DOPS   C4B25792  12.343  34.838  13.159  0.4296  0.2529 -0.1434
 2199DOPE   NH325793  20.693  32.477  16.362 -0.0560  0.0998 -0.0582
 2199DOPE   PO425794  20.855  32.264  16.238 -0.0106  0.1687 -0.1084
 2199DOPE   GL125795  21.023  32.396  15.963  0.4211  0.1803  0.2217
 2199DOPE   GL225796  20.820  32.394  15.759  0.0902 -0.0622 -0.0157
 2199DOPE   C1A25797  21.329  32.332  15.598 -0.0035 -0.1731  0.0610
 2199DOPE   D2A25798  21.583  32.598  15.310  0.1973 -0.1077  0.0991
 2199DOPE   C3A25799  21.672  32.515  14.920  0.1528  0.3796 -0.0375
 2199DOPE   C4A25800  21.771  32.282  14.602 -0.0246 -0.3173  0.1681
 2199DOPE   C1B25801  20.812  32.143  15.395  0.3160  0.3202  0.2219
 2199DOPE   D2B25802  20.532  32.058  15.091  0.2519  0.1673 -0.0167
 2199DOPE   C3B25803  20.418  31.744  14.790  0.0052  0.0756  0.1518
 2199DOPE   C4B25804  20.241  31.587  14.415 -0.1278 -0.0313 -0.3066
 2200DOPC   NC325805  13.243  29.604  14.773  0.0389 -0.1859 -0.0096
 2200DOPC   PO425806  12.995  29.883  14.792 -0.0489  0.0615  0.0658
 2200DOPC   GL125807  13.210  30.016  14.410 -0.1090 -0.0229 -0.1515
 2200DOPC   GL225808  13.070  30.091  14.229 -0.0418  0.2354  0.0173
 2200DOPC   C1A25809  13.304  29.663  14.168  0.1586  0.0255 -0.1669
 2200DOPC   D2A25810  13.433  29.270  13.879  0.2367  0.0838 -0.1084
 2200DOPC   C3A25811  13.466  29.145  13.443 -0.2473 -0.3631 -0.4340
 2200DOPC   C4A25812  13.488  29.207  12.953 -0.2903 -0.0119  0.1101
 2200DOPC   C1B25813  13.005  29.857  13.793  0.2154  0.2065 -0.1784
 2200DOPC   D2B25814  13.175  29.552  13.506 -0.0746  0.1490 -0.2180
 2200DOPC   C3B25815  13.609  29.651  13.690 -0.0958 -0.1679  0.0460
 2200DOPC   C4B25816  14.099  29.769  13.777  0.0990 -0.2446 -0.1501
 2201DOPS   CNO25817  12.409  26.687  15.104  0.1137 -0.0928  0.1314
 2201DOPS   PO425818  12.242  26.768  14.768  0.0363 -0.1553  0.0799
 2201DOPS   GL125819  12.215  26.487  14.476 -0.3314 -0.0745  0.1307
 2201DOPS   GL225820  12.201  26.243  14.632 -0.0982  0.1524  0.0250
 2201DOPS   C1A25821  12.177  26.622  14.034  0.1299  0.0203 -0.0270
 2201DOPS   D2A25822  12.073  26.732  13.573 -0.2569 -0.4022  0.0484
 2201DOPS   C3A25823  12.092  26.426  13.214 -0.0478 -0.1959 -0.2829
 2201DOPS   C4A25824  12.052  26.093  12.875  0.0933 -0.0093  0.1031
 2201DOPS   C1B25825  11.828  26.243  14.321  0.0071  0.2880  0.0470
 2201DOPS   D2B25826  11.664  25.889  14.088  0.1249  0.1522 -0.2035
 2201DOPS   C3B25827  11.599  25.878  13.617  0.0007 -0.1025 -0.1370
 2201DOPS   C4B25828  11.328  26.022  13.216  0.0399 -0.0991 -0.0251
 2202DOPC   NC325829  14.836  26.722  15.377  0.2450  0.1776  0.2552
 2202DOPC   PO425830  14.812  26.315  15.394 -0.1911  0.2096  0.0321
 2202DOPC   GL125831  14.852  26.046  15.222 -0.0053 -0.0598  0.2457
 2202DOPC   GL225832  15.149  25.978  15.154 -0.3615  0.1601 -0.2372
 2202DOPC   C1A25833  14.831  25.800  14.835 -0.4168 -0.0825 -0.3350
 2202DOPC   D2A25834  14.956  25.822  14.386  0.1489  0.2510 -0.1418
 2202DOPC   C3A25835  15.126  25.861  13.907  0.0825 -0.1075 -0.2883
 2202DOPC   C4A25836  15.017  25.856  13.491 -0.1697 -0.0197 -0.0383
 2202DOPC   C1B25837  15.508  26.161  15.025  0.0195 -0.0974  0.1921
 2202DOPC   D2B25838  15.879  26.417  15.153  0.1765  0.1034  0.0094
 2202DOPC   C3B25839  15.882  26.550  14.698  0.0084 -0.3567  0.1537
 2202DOPC   C4B25840  15.943  26.204  14.417 -0.1080 -0.0904  0.1876
 2203DOPE   NH325841  22.353  31.873  16.899  0.2062 -0.1984  0.0608
 2203DOPE   PO425842  22.447  31.555  16.861  0.2931  0.1202  0.4523
 2203DOPE   GL125843  22.320  31.707  16.455  0.1160 -0.0911 -0.1603
 2203DOPE   GL225844  22.035  31.842  16.437 -0.2418 -0.2797  0.1007
 2203DOPE   C1A25845  22.240  31.516  16.069 -0.2303  0.2076  0.0109
 2203DOPE   D2A25846  22.048  31.548  15.628  0.0641  0.0966  0.0183
 2203DOPE   C3A25847  21.690  31.649  15.419  0.1656  0.2284 -0.3440
 2203DOPE   C4A25848  21.280  31.831  15.539 -0.0462  0.4506 -0.0702
 2203DOPE   C1B25849  22.168  31.976  16.042  0.4725  0.0626 -0.0554
 2203DOPE   D2B25850  22.401  31.885  15.666  0.1349  0.1793  0.0980
 2203DOPE   C3B25851  22.094  31.858  15.271 -0.2295 -0.0574  0.0724
 2203DOPE   C4B25852  21.924  31.713  14.824  0.0547 -0.2828  0.2806
 2204POSM   NC325853  18.853  32.402  15.872 -0.0813 -0.1397 -0.0914
 2204POSM   PO425854  18.471  32.376  15.890 -0.0825 -0.0878  0.0420
 2204POSM   AM125855  18.508  32.383  15.563  0.1336 -0.2006 -0.1017
 2204POSM   AM225856  18.369  32.478  15.320  0.0085  0.1516 -0.0265
 2204POSM   T1A25857  18.488  32.022  15.186 -0.0809 -0.0540 -0.1573
 2204POSM   C2A25858  18.150  31.735  15.130  0.0367  0.3590 -0.1645
 2204POSM   C3A25859  18.006  31.419  15.451 -0.1471  0.0245  0.4001
 2204POSM   C1B25860  18.498  32.603  15.052 -0.2680 -0.0085 -0.1029
 2204POSM   D2B25861  18.487  32.914  14.702  0.2678 -0.0582  0.2263
 2204POSM   C3B25862  18.507  33.035  14.307  0.1814 -0.0163  0.2814
 2204POSM   C4B25863  18.651  33.413  14.038  0.1577 -0.3680  0.5026
 2205DOPE   NH325864  16.771  32.907  15.662  0.1601  0.0966  0.2943
 2205DOPE   PO425865  16.633  33.156  15.471  0.1966  0.1839  0.0937
 2205DOPE   GL125866  16.708  32.904  15.113 -0.4014  0.0385 -0.2537
 2205DOPE   GL225867  16.677  32.642  15.286 -0.0513  0.0767  0.1181
 2205DOPE   C1A25868  16.545  33.137  14.718  0.1208  0.0245  0.1478
 2205DOPE   D2A25869  16.381  33.145  14.319 -0.0176 -0.0004  0.1117
 2205DOPE   C3A25870  16.361  33.385  13.949  0.3639  0.0299 -0.1114
 2205DOPE   C4A25871  16.426  33.455  13.471 -0.1423  0.1279  0.1089
 2205DOPE   C1B25872  16.579  32.595  14.812  0.4269  0.2141  0.2617
 2205DOPE   D2B25873  16.661  32.738  14.372 -0.3059 -0.5329 -0.3304
 2205DOPE   C3B25874  16.505  32.663  13.929  0.3283  0.0155 -0.1699
 2205DOPE   C4B25875  16.298  32.919  13.681  0.0642 -0.1046  0.3002
 2206POSM   NC325876  19.195  31.933  16.059  0.2390  0.4115 -0.2829
 2206POSM   PO425877  19.286  32.320  16.174 -0.1595 -0.3003  0.3935
 2206POSM   AM125878  19.369  32.268  15.887  0.0923 -0.4061 -0.2260
 2206POSM   AM225879  19.495  32.374  15.678 -0.0403 -0.0488  0.0083
 2206POSM   T1A25880  19.186  32.119  15.382 -0.0799  0.0660  0.0809
 2206POSM   C2A25881  18.909  32.248  15.133 -0.3886 -0.1464 -0.1652
 2206POSM   C3A25882  18.697  32.207  14.772 -0.0117  0.3214  0.2874
 2206POSM   C1B25883  19.723  32.311  15.445  0.1582  0.0347 -0.0618
 2206POSM   D2B25884  20.073  32.254  15.179 -0.0433 -0.2648 -0.1487
 2206POSM   C3B25885  20.027  32.115  14.693  0.4113  0.1765 -0.2989
 2206POSM   C4B25886  20.254  32.072  14.333 -0.2666  0.0002  0.3612
 2207DOPC   NC325887  19.234  28.772  16.613  0.1524  0.2304 -0.3226
 2207DOPC   PO425888  19.253  28.396  16.765 -0.0409 -0.3199 -0.0425
 2207DOPC   GL125889  19.252  28.243  16.480  0.2269 -0.2072  0.1263
 2207DOPC   GL225890  19.448  27.959  16.329 -0.0237 -0.2227 -0.1954
 2207DOPC   C1A25891  19.577  28.417  16.234  0.0506 -0.0592  0.0607
 2207DOPC   D2A25892  19.568  28.479  15.769  0.0158  0.1068 -0.1878
 2207DOPC   C3A25893  19.972  28.421  15.598 -0.4319  0.0182  0.3454
 2207DOPC   C4A25894  20.241  28.477  15.174 -0.1366  0.1486  0.0695
 2207DOPC   C1B25895  19.654  27.912  15.883  0.2202  0.2740 -0.1481
 2207DOPC   D2B25896  20.068  27.777  15.723 -0.0331  0.0282 -0.1973
 2207DOPC   C3B25897  20.078  27.791  15.270  0.3801 -0.1275  0.0783
 2207DOPC   C4B25898  19.980  27.974  14.846 -0.0662 -0.2164 -0.1183
 2208DOPE   NH325899  18.689  33.753  15.920  0.3799  0.1581 -0.2382
 2208DOPE   PO425900  18.994  33.695  15.923 -0.0287  0.0175 -0.1989
 2208DOPE   GL125901  18.916  33.690  15.506 -0.5204  0.0579 -0.1554
 2208DOPE   GL225902  18.896  33.979  15.488  0.0196 -0.2658  0.0372
 2208DOPE   C1A25903  18.761  33.555  15.105 -0.0720  0.2933  0.1837
 2208DOPE   D2A25904  18.695  33.413  14.634  0.1176 -0.3225 -0.1356
 2208DOPE   C3A25905  18.417  33.595  14.395 -0.3533 -0.0013 -0.2469
 2208DOPE   C4A25906  18.183  34.023  14.366 -0.0744 -0.1741 -0.0401
 2208DOPE   C1B25907  19.263  34.085  15.182 -0.2241 -0.0635  0.1077
 2208DOPE   D2B25908  19.526  33.904  14.855  0.3914  0.0045  0.0103
 2208DOPE   C3B25909  19.608  34.156  14.492  0.4099 -0.2372  0.0148
 2208DOPE   C4B25910  19.483  34.571  14.300 -0.2708  0.1527  0.2930
 2209POSM   NC325911  18.975  23.862  16.166  0.1054  0.1670  0.0195
 2209POSM   PO425912  19.266  24.146  16.203  0.0635  0.0413 -0.0373
 2209POSM   AM125913  19.432  24.011  15.960 -0.0296  0.1031  0.2440
 2209POSM   AM225914  19.684  24.061  15.853 -0.0881  0.1206  0.0735
 2209POSM   T1A25915  19.391  23.899  15.486 -0.3477 -0.2252  0.1156
 2209POSM   C2A25916  19.550  23.826  15.057 -0.0247  0.1082  0.1569
 2209POSM   C3A25917  19.787  23.723  14.621  0.0174  0.1458 -0.0124
 2209POSM   C1B25918  19.820  24.099  15.505  0.1569  0.0938 -0.1656
 2209POSM   D2B25919  19.819  24.211  15.030 -0.0177  0.2827 -0.0909
 2209POSM   C3B25920  19.604  24.656  14.905  0.3257  0.0562 -0.2244
 2209POSM   C4B25921  19.326  24.977  14.968  0.0260 -0.0394 -0.0518
 2210DOPE   NH325922  20.984  33.040  16.684  0.3169 -0.1579  0.2356
 2210DOPE   PO425923  21.152  33.202  16.488 -0.2071 -0.0975  0.2076
 2210DOPE   GL125924  21.269  33.230  16.085  0.2518 -0.2706 -0.0167
 2210DOPE   GL225925  21.550  33.064  16.055  0.0329  0.1631  0.1195
 2210DOPE   C1A25926  21.350  33.454  15.758 -0.1875 -0.0462  0.1250
 2210DOPE   D2A25927  21.513  33.536  15.322 -0.0427  0.2445  0.0575
 2210DOPE   C3A25928  21.286  33.796  15.043  0.2005 -0.1006  0.6127
 2210DOPE   C4A25929  21.082  33.880  14.635 -0.1111  0.4021  0.2812
 2210DOPE   C1B25930  21.831  33.378  15.824  0.0975 -0.1159  0.0674
 2210DOPE   D2B25931  22.000  33.306  15.393 -0.3769  0.2108  0.0100
 2210DOPE   C3B25932  21.916  33.568  14.988 -0.0655  0.0746  0.0215
 2210DOPE   C4B25933  21.692  33.777  14.618 -0.2481 -0.0454 -0.3034
 2211DOPE   NH325934  12.571  27.178  14.856 -0.1370 -0.2167 -0.0414
 2211DOPE   PO425935  12.340  27.284  14.629  0.0796 -0.0930 -0.0289
 2211DOPE   GL125936  12.234  27.343  14.178 -0.1458  0.0403 -0.1107
 2211DOPE   GL225937  12.157  27.021  14.250 -0.0120  0.0262  0.0678
 2211DOPE   C1A25938  12.463  27.502  13.810 -0.1105 -0.0074 -0.1747
 2211DOPE   D2A25939  12.303  27.677  13.391 -0.2922  0.2331 -0.0582
 2211DOPE   C3A25940  12.261  27.358  13.032  0.0917  0.2975  0.2109
 2211DOPE   C4A25941  12.052  26.948  13.079  0.0147  0.0698 -0.0867
 2211DOPE   C1B25942  12.500  27.003  13.925 -0.3128 -0.1263  0.0660
 2211DOPE   D2B25943  12.899  26.908  13.716  0.1810 -0.3945 -0.1035
 2211DOPE   C3B25944  13.010  27.020  13.291 -0.2837 -0.1427  0.2271
 2211DOPE   C4B25945  13.179  27.417  13.088 -0.3897 -0.0448  0.0845
 2212DOPE   NH325946  19.274  30.106  16.588  0.4708 -0.4465 -0.1603
 2212DOPE   PO425947  19.464  29.815  16.646 -0.1451 -0.3030  0.3346
 2212DOPE   GL125948  19.336  29.880  16.224 -0.0886 -0.2321  0.3069
 2212DOPE   GL225949  19.511  29.758  16.001 -0.0505 -0.2503  0.1277
 2212DOPE   C1A25950  19.312  30.166  15.833  0.0777  0.2819 -0.2751
 2212DOPE   D2A25951  19.217  30.206  15.411  0.2594 -0.0083  0.3029
 2212DOPE   C3A25952  19.592  30.409  15.176 -0.1353 -0.0621 -0.2770
 2212DOPE   C4A25953  20.001  30.345  15.109  0.0621  0.1118 -0.0912
 2212DOPE   C1B25954  19.309  29.670  15.554 -0.4842  0.0179 -0.0164
 2212DOPE   D2B25955  19.270  29.709  15.076  0.0645  0.3817  0.3525
 2212DOPE   C3B25956  19.072  29.654  14.640 -0.1177  0.0944 -0.1579
 2212DOPE   C4B25957  18.833  29.312  14.428  0.0918 -0.0681  0.0475
 2213DOPE   NH325958  13.044  24.613  14.931 -0.0681  0.3479  0.2209
 2213DOPE   PO425959  12.769  24.762  15.033  0.1341 -0.0429  0.2476
 2213DOPE   GL125960  12.588  24.411  14.897 -0.2405  0.2699  0.1797
 2213DOPE   GL225961  12.702  24.469  14.625 -0.1815  0.0770 -0.3562
 2213DOPE   C1A25962  12.737  23.940  14.862  0.0699 -0.0093 -0.2367
 2213DOPE   D2A25963  12.459  23.604  14.620 -0.1152  0.0918 -0.0728
 2213DOPE   C3A25964  12.117  23.551  14.355  0.0658 -0.3117  0.0188
 2213DOPE   C4A25965  11.834  23.224  14.237  0.1478 -0.2652 -0.0099
 2213DOPE   C1B25966  13.018  24.348  14.283  0.1242  0.4379 -0.0049
 2213DOPE   D2B25967  12.892  24.473  13.824  0.0528  0.0916 -0.2958
 2213DOPE   C3B25968  12.682  24.149  13.568 -0.1891  0.0233 -0.0805
 2213DOPE   C4B25969  12.193  24.060  13.517  0.1419 -0.0410  0.1062
 2214POSM   NC325970  21.107  24.995  15.368  0.1084 -0.3276 -0.0097
 2214POSM   PO425971  21.366  25.297  15.333  0.1615  0.2393 -0.0238
 2214POSM   AM125972  21.245  25.559  15.172 -0.0884  0.1979  0.0902
 2214POSM   AM225973  21.193  25.854  15.221 -0.3235  0.3046  0.0690
 2214POSM   T1A25974  21.240  25.680  14.660  0.0400  0.0648  0.0659
 2214POSM   C2A25975  20.977  25.898  14.325 -0.2452  0.0396  0.1940
 2214POSM   C3A25976  20.881  26.307  14.247 -0.0602  0.3073  0.0659
 2214POSM   C1B25977  21.007  25.987  15.009  0.1439 -0.2130  0.1403
 2214POSM   D2B25978  20.817  26.323  14.730 -0.2245 -0.0410  0.1794
 2214POSM   C3B25979  20.422  26.564  14.780  0.0195 -0.0670  0.4540
 2214POSM   C4B25980  20.101  26.815  14.589 -0.2496 -0.3343 -0.3912
 2215DOPE   NH325981  20.189  32.201  16.203 -0.0493  0.1117  0.1186
 2215DOPE   PO425982  20.291  32.089  16.464 -0.2184 -0.0643  0.0826
 2215DOPE   GL125983  20.491  31.810  16.367  0.3841  0.0192  0.0966
 2215DOPE   GL225984  20.604  31.835  16.160 -0.3758 -0.3228 -0.0782
 2215DOPE   C1A25985  20.446  31.340  16.324  0.1882  0.4476 -0.1544
 2215DOPE   D2A25986  20.196  31.117  16.061  0.1704 -0.2001  0.2829
 2215DOPE   C3A25987  19.868  30.946  15.776 -0.3060  0.0635 -0.1948
 2215DOPE   C4A25988  19.626  30.552  15.871 -0.2487 -0.1693  0.1108
 2215DOPE   C1B25989  20.882  31.727  15.778  0.2256 -0.1360  0.2926
 2215DOPE   D2B25990  20.914  31.483  15.457 -0.0270  0.2673  0.2150
 2215DOPE   C3B25991  20.851  31.674  15.059  0.1852 -0.0339  0.1955
 2215DOPE   C4B25992  20.978  32.001  14.781 -0.0511 -0.3018 -0.2902
 2216DOPE   NH325993  20.362  34.292  16.082  0.2423  0.2263 -0.0999
 2216DOPE   PO425994  20.522  34.178  16.351 -0.0298  0.0581 -0.2629
 2216DOPE   GL125995  20.812  34.094  16.002  0.0981  0.1628  0.1955
 2216DOPE   GL225996  21.052  34.257  16.003  0.0787  0.1420 -0.0100
 2216DOPE   C1A25997  20.608  33.981  15.572 -0.1924  0.1276  0.3482
 2216DOPE   D2A25998  20.841  33.681  15.280  0.0176  0.2314  0.1549
 2216DOPE   C3A25999  20.686  33.638  14.846 -0.2172  0.0178 -0.0874
 2216DOPE   C4A26000  20.380  33.637  14.486 -0.1228  0.0457  0.1636
 2216DOPE   C1B26001  21.252  34.533  15.684 -0.0548  0.0049  0.3159
 2216DOPE   D2B26002  21.439  34.844  15.386  0.2945 -0.0812 -0.0158
 2216DOPE   C3B26003  21.438  34.447  15.148 -0.2261  0.0496 -0.0064
 2216DOPE   C4B26004  21.499  34.231  14.768  0.2282 -0.0933 -0.2875
 2217POSM   NC326005  20.149  27.268  15.805 -0.2569  0.0911 -0.1231
 2217POSM   PO426006  19.979  27.062  16.087 -0.2188  0.0313  0.2432
 2217POSM   AM126007  19.756  26.996  15.859 -0.0006 -0.0504  0.4374
 2217POSM   AM226008  19.545  27.164  15.805  0.0547  0.1346 -0.1495
 2217POSM   T1A26009  19.657  26.893  15.381 -0.1658  0.0538 -0.0810
 2217POSM   C2A26010  19.713  26.979  14.934 -0.1530 -0.1587 -0.2168
 2217POSM   C3A26011  19.754  27.240  14.552  0.2892  0.2846 -0.5607
 2217POSM   C1B26012  19.581  27.453  15.676  0.0277 -0.2515 -0.0100
 2217POSM   D2B26013  19.523  27.752  15.328 -0.0621 -0.0795  0.4194
 2217POSM   C3B26014  19.586  27.640  14.921  0.0555  0.2919 -0.0824
 2217POSM   C4B26015  19.232  27.555  14.669 -0.0324 -0.1649 -0.4444
 2218DOPC   NC326016  14.661  31.122  14.973 -0.0436 -0.1956  0.0082
 2218DOPC   PO426017  14.950  31.374  15.038 -0.1174 -0.0444 -0.2252
 2218DOPC   GL126018  14.881  31.344  14.596 -0.0950  0.1019  0.0182
 2218DOPC   GL226019  14.853  31.668  14.583 -0.0534  0.1458 -0.3750
 2218DOPC   C1A26020  14.904  31.231  14.133  0.0743 -0.0334 -0.3380
 2218DOPC   D2A26021  14.973  30.784  14.033 -0.1835  0.1410  0.0243
 2218DOPC   C3A26022  14.651  30.551  14.261  0.2696  0.0576  0.1395
 2218DOPC   C4A26023  14.532  30.151  14.515  0.2150  0.2268  0.1927
 2218DOPC   C1B26024  15.067  31.774  14.194 -0.1138 -0.0172  0.3007
 2218DOPC   D2B26025  15.238  31.491  13.789 -0.2014  0.0331 -0.0570
 2218DOPC   C3B26026  14.794  31.414  13.608  0.1075 -0.1181 -0.1177
 2218DOPC   C4B26027  14.364  31.399  13.667  0.0134  0.0604  0.1046
 2219DOPE   NH326028  13.111  25.738  15.051  0.0699 -0.0315 -0.4801
 2219DOPE   PO426029  13.375  25.889  14.924 -0.1127 -0.0550 -0.3431
 2219DOPE   GL126030  13.577  25.872  14.585  0.1898  0.0709  0.2498
 2219DOPE   GL226031  13.497  26.181  14.543  0.0759  0.2474  0.0765
 2219DOPE   C1A26032  13.606  25.577  14.206  0.3385 -0.2316  0.1563
 2219DOPE   D2A26033  13.634  25.465  13.753 -0.0272 -0.1335 -0.1579
 2219DOPE   C3A26034  13.717  25.085  13.474 -0.0269  0.2127  0.4066
 2219DOPE   C4A26035  13.785  24.951  12.999 -0.1983 -0.1528 -0.0943
 2219DOPE   C1B26036  13.690  26.297  14.154 -0.0548  0.3336  0.2592
 2219DOPE   D2B26037  13.817  26.445  13.757  0.1968  0.0934 -0.1479
 2219DOPE   C3B26038  13.777  26.861  13.628  0.0569  0.0878  0.3293
 2219DOPE   C4B26039  14.034  27.113  13.385 -0.1823 -0.2363 -0.0490
 2220DOPC   NC326040  22.468  28.915  16.346  0.1300  0.3280 -0.0106
 2220DOPC   PO426041  22.437  28.587  16.537 -0.1124  0.3041 -0.0176
 2220DOPC   GL126042  22.478  28.450  16.142  0.1936 -0.0113  0.0455
 2220DOPC   GL226043  22.691  28.381  16.107 -0.0910  0.3212  0.0798
 2220DOPC   C1A26044  22.176  28.403  15.850  0.2675  0.2749 -0.0134
 2220DOPC   D2A26045  22.086  28.460  15.350  0.2960 -0.0459  0.0270
 2220DOPC   C3A26046  21.872  28.357  14.969  0.2585 -0.1190 -0.1183
 2220DOPC   C4A26047  21.653  28.521  14.602 -0.0648 -0.3183  0.1207
 2220DOPC   C1B26048  22.627  28.481  15.627  0.0152 -0.1478 -0.3359
 2220DOPC   D2B26049  22.686  28.261  15.261 -0.0762  0.1872 -0.2642
 2220DOPC   C3B26050  22.403  28.311  14.877  0.2967 -0.2949  0.1071
 2220DOPC   C4B26051  22.208  28.550  14.534  0.1374  0.4159  0.6465
 2221POSM   NC326052  14.084  24.333  15.070  0.3139 -0.0163 -0.2178
 2221POSM   PO426053  13.857  24.055  14.961  0.2588  0.1184 -0.0692
 2221POSM   AM126054  13.691  23.972  14.683 -0.0939  0.0720  0.3247
 2221POSM   AM226055  13.557  23.749  14.645 -0.4126  0.1376  0.0247
 2221POSM   T1A26056  13.398  24.039  14.285  0.1974 -0.1005 -0.0834
 2221POSM   C2A26057  13.218  24.085  13.854  0.0643 -0.0998  0.1050
 2221POSM   C3A26058  13.193  24.128  13.391  0.1546  0.1844  0.1023
 2221POSM   C1B26059  13.409  23.458  14.495  0.0619 -0.1557  0.0649
 2221POSM   D2B26060  13.191  23.291  14.168 -0.1032 -0.0732 -0.0211
 2221POSM   C3B26061  13.095  23.414  13.710 -0.0928  0.1324  0.0669
 2221POSM   C4B26062  13.065  23.089  13.325 -0.0405 -0.1474  0.3009
 2222DOPE   NH326063  19.767  26.106  16.235 -0.1901  0.0167 -0.0402
 2222DOPE   PO426064  19.920  25.845  16.161  0.2089  0.1606 -0.1875
 2222DOPE   GL126065  19.899  25.914  15.756  0.0552 -0.1287  0.4393
 2222DOPE   GL226066  19.599  26.032  15.744  0.3290  0.1510 -0.0301
 2222DOPE   C1A26067  20.069  26.020  15.387 -0.1376  0.0034  0.0515
 2222DOPE   D2A26068  20.303  26.222  15.111  0.0102  0.1321 -0.0782
 2222DOPE   C3A26069  20.118  26.240  14.651 -0.2227 -0.2020 -0.0229
 2222DOPE   C4A26070  20.185  26.450  14.238  0.1721  0.1607 -0.2498
 2222DOPE   C1B26071  19.822  26.447  15.691 -0.0293 -0.0121  0.1031
 2222DOPE   D2B26072  20.195  26.747  15.698  0.2814 -0.1271  0.2718
 2222DOPE   C3B26073  20.454  26.423  15.595 -0.3216  0.2131 -0.0309
 2222DOPE   C4B26074  20.622  26.073  15.398 -0.4219 -0.2759 -0.1063
 2223DOPE   NH326075  22.535  27.138  16.068  0.0981  0.1798 -0.2028
 2223DOPE   PO426076  22.244  27.121  16.203 -0.0036 -0.2507  0.1234
 2223DOPE   GL126077  22.073  26.990  15.850 -0.1308 -0.2567  0.2889
 2223DOPE   GL226078  21.852  26.866  15.983  0.0083  0.1293  0.3532
 2223DOPE   C1A26079  22.040  26.954  15.368  0.0250  0.1953  0.0061
 2223DOPE   D2A26080  22.299  26.838  15.042 -0.2877  0.4020  0.0961
 2223DOPE   C3A26081  22.632  27.015  14.765  0.1327 -0.1247 -0.0124
 2223DOPE   C4A26082  22.494  27.160  14.383 -0.3546 -0.1339 -0.0366
 2223DOPE   C1B26083  21.575  26.989  15.644 -0.2597  0.1225  0.0995
 2223DOPE   D2B26084  21.172  26.936  15.403  0.2552  0.1011  0.3563
 2223DOPE   C3B26085  21.175  26.827  14.940 -0.1442 -0.0082  0.0345
 2223DOPE   C4B26086  21.223  26.705  14.451 -0.1277 -0.0147  0.2659
 2224POSM   NC326087  14.854  24.645  15.265  0.0050 -0.2184  0.0791
 2224POSM   PO426088  15.065  24.901  15.494  0.0382 -0.0320 -0.1099
 2224POSM   AM126089  15.300  24.996  15.320  0.2106  0.3894 -0.2037
 2224POSM   AM226090  15.357  24.922  15.073  0.0257  0.0048 -0.2682
 2224POSM   T1A26091  15.646  25.348  15.144  0.0302  0.0517  0.0397
 2224POSM   C2A26092  15.755  25.381  14.722 -0.0039 -0.0141  0.0639
 2224POSM   C3A26093  15.934  25.190  14.338 -0.1332  0.1331  0.1543
 2224POSM   C1B26094  15.537  24.975  14.798 -0.1386  0.0964 -0.1150
 2224POSM   D2B26095  15.840  24.721  14.563  0.1110  0.2750 -0.0770
 2224POSM   C3B26096  15.772  24.823  14.047 -0.1653  0.2063 -0.2115
 2224POSM   C4B26097  15.559  25.179  13.895  0.2119 -0.1115  0.0931
 2225DOPS   CNO26098  19.345  25.805  16.094  0.2641 -0.1479 -0.0748
 2225DOPS   PO426099  19.547  25.538  15.924 -0.1365  0.4086  0.1535
 2225DOPS   GL126100  19.454  25.510  15.483  0.1027  0.1116 -0.4650
 2225DOPS   GL226101  19.249  25.238  15.465 -0.0920 -0.0200 -0.1595
 2225DOPS   C1A26102  19.866  25.587  15.245 -0.2284  0.0205  0.1853
 2225DOPS   D2A26103  20.060  25.643  14.854 -0.1397 -0.0465  0.4263
 2225DOPS   C3A26104  19.840  25.850  14.447  0.0385  0.1815  0.0291
 2225DOPS   C4A26105  19.610  26.132  14.206 -0.0792  0.0551  0.0775
 2225DOPS   C1B26106  19.443  25.422  15.050  0.0093  0.1068  0.0366
 2225DOPS   D2B26107  19.374  25.673  14.646 -0.3515 -0.3001  0.4203
 2225DOPS   C3B26108  19.282  26.144  14.671  0.4875 -0.3537 -0.0001
 2225DOPS   C4B26109  19.228  26.479  14.316  0.3209  0.0708 -0.0644
 2226DOPC   NC326110  15.379  34.167  14.599 -0.1282  0.4145 -0.2313
 2226DOPC   PO426111  15.027  34.077  14.686  0.1384 -0.0741  0.0026
 2226DOPC   GL126112  14.970  33.890  14.332 -0.1093 -0.0625 -0.2515
 2226DOPC   GL226113  14.825  33.618  14.321 -0.2321  0.0105  0.4955
 2226DOPC   C1A26114  15.186  33.859  13.954 -0.0263  0.0195  0.1328
 2226DOPC   D2A26115  15.208  33.615  13.577 -0.3286  0.0589  0.0325
 2226DOPC   C3A26116  15.125  33.426  13.166 -0.1573  0.0120  0.3316
 2226DOPC   C4A26117  15.331  33.301  12.813 -0.1234 -0.0262 -0.1640
 2226DOPC   C1B26118  14.802  33.586  13.857 -0.0587  0.3873  0.1827
 2226DOPC   D2B26119  14.717  33.759  13.447  0.0111 -0.0122 -0.1672
 2226DOPC   C3B26120  15.122  33.913  13.195  0.1502  0.2086  0.0462
 2226DOPC   C4B26121  15.530  33.745  13.214  0.4535 -0.1325 -0.1232
 2227POSM   NC326122  16.451  28.653  15.768 -0.1173  0.2573 -0.0366
 2227POSM   PO426123  16.830  28.625  15.889  0.1811  0.2160  0.2552
 2227POSM   AM126124  16.897  28.653  15.541 -0.1845 -0.2177 -0.2724
 2227POSM   AM226125  17.133  28.543  15.467 -0.4099  0.1339  0.1258
 2227POSM   T1A26126  16.857  28.988  15.169 -0.0137  0.2355  0.0824
 2227POSM   C2A26127  16.704  29.261  14.748  0.0673 -0.2180  0.1515
 2227POSM   C3A26128  16.664  29.306  14.292 -0.2082  0.1366 -0.0730
 2227POSM   C1B26129  17.171  28.588  15.145  0.0158 -0.0172  0.0594
 2227POSM   D2B26130  17.133  28.790  14.752  0.1031  0.1972  0.1328
 2227POSM   C3B26131  17.276  28.623  14.315 -0.2917 -0.0907 -0.0102
 2227POSM   C4B26132  17.173  28.358  13.916  0.2387  0.0174  0.1670
 2228DOPE   NH326133  18.684  24.687  16.412 -0.1126 -0.1092  0.0228
 2228DOPE   PO426134  18.368  24.593  16.352 -0.0128  0.0420  0.0134
 2228DOPE   GL126135  18.220  24.595  16.007 -0.0327  0.0556 -0.1971
 2228DOPE   GL226136  17.935  24.598  16.044  0.1918  0.2945 -0.2261
 2228DOPE   C1A26137  18.312  24.843  15.638  0.1871  0.0357  0.2214
 2228DOPE   D2A26138  18.762  24.895  15.404 -0.3408  0.1529  0.0196
 2228DOPE   C3A26139  18.833  25.134  15.027  0.1622  0.3461 -0.0329
 2228DOPE   C4A26140  18.982  25.229  14.639  0.0476 -0.0262  0.2151
 2228DOPE   C1B26141  17.915  24.526  15.599  0.3135 -0.1969 -0.3287
 2228DOPE   D2B26142  17.822  24.274  15.278  0.0854 -0.0175 -0.0323
 2228DOPE   C3B26143  17.979  24.185  14.856  0.3348 -0.1338 -0.0407
 2228DOPE   C4B26144  18.163  24.134  14.419 -0.0908  0.1272 -0.0715
 2229DOPS   CNO26145  17.491  22.860  15.798  0.0701 -0.1173  0.0504
 2229DOPS   PO426146  17.199  23.102  15.722 -0.3380 -0.3790  0.1724
 2229DOPS   GL126147  17.070  23.342  15.436  0.2720 -0.1624 -0.2630
 2229DOPS   GL226148  17.007  23.586  15.502  0.0014 -0.2945  0.0693
 2229DOPS   C1A26149  17.065  23.633  15.064  0.2211  0.0823 -0.1236
 2229DOPS   D2A26150  17.145  24.050  14.848  0.0023  0.3095 -0.1098
 2229DOPS   C3A26151  17.570  23.934  14.696 -0.1394  0.0948 -0.2791
 2229DOPS   C4A26152  17.961  23.724  14.574 -0.1889 -0.0671  0.0108
 2229DOPS   C1B26153  17.065  24.071  15.320 -0.0750 -0.1153 -0.4304
 2229DOPS   D2B26154  17.253  24.431  15.113 -0.0663  0.1478  0.1353
 2229DOPS   C3B26155  17.528  24.450  14.760  0.0748  0.0586  0.0861
 2229DOPS   C4B26156  17.733  24.392  14.318  0.0404 -0.0436  0.0294
 2230DOPS   CNO26157  18.231  33.639  16.067 -0.0207  0.2336  0.2135
 2230DOPS   PO426158  18.299  33.363  15.762  0.2413 -0.0910 -0.2079
 2230DOPS   GL126159  18.084  33.268  15.445 -0.2485 -0.0753 -0.1126
 2230DOPS   GL226160  17.832  33.182  15.546 -0.2556  0.1670 -0.2669
 2230DOPS   C1A26161  17.795  33.409  15.125 -0.0576  0.0663  0.2475
 2230DOPS   D2A26162  17.752  33.466  14.666  0.1037 -0.0361  0.1534
 2230DOPS   C3A26163  17.368  33.251  14.444  0.2046 -0.2486 -0.0350
 2230DOPS   C4A26164  17.363  33.152  13.994 -0.1291 -0.0378  0.2920
 2230DOPS   C1B26165  17.998  32.832  15.287  0.1394  0.3212 -0.2435
 2230DOPS   D2B26166  18.056  32.752  14.855 -0.1745  0.2427 -0.0320
 2230DOPS   C3B26167  18.021  32.948  14.455 -0.1352 -0.2623  0.1617
 2230DOPS   C4B26168  17.993  33.367  14.251  0.0966 -0.2698 -0.1922
 2231DOPE   NH326169  22.935  23.706  16.607 -0.1773 -0.0953 -0.1794
 2231DOPE   PO426170  22.848  23.749  16.269  0.0701  0.1663 -0.0437
 2231DOPE   GL126171  22.820  23.657  15.879 -0.3915  0.1453  0.4571
 2231DOPE   GL226172  22.954  23.374  15.858 -0.0320 -0.2258  0.0767
 2231DOPE   C1A26173  22.883  23.999  15.575  0.0696  0.0252  0.1472
 2231DOPE   D2A26174  22.946  23.877  15.076  0.1510 -0.0841 -0.1598
 2231DOPE   C3A26175  23.330  23.931  14.841  0.2818  0.0112  0.0323
 2231DOPE   C4A26176  23.772  23.869  14.872 -0.3376 -0.1775 -0.1664
 2231DOPE   C1B26177  22.953  23.501  15.421 -0.1971  0.1603  0.2351
 2231DOPE   D2B26178  22.783  23.380  15.009 -0.0959  0.2384  0.0168
 2231DOPE   C3B26179  22.404  23.079  14.967  0.0402 -0.1023  0.0640
 2231DOPE   C4B26180  22.007  23.189  14.757  0.0641  0.1158 -0.5582
 2232DOPC   NC326181  18.179  25.454  16.431 -0.0707  0.0666 -0.0200
 2232DOPC   PO426182  18.254  25.135  16.511 -0.0385  0.0821 -0.0706
 2232DOPC   GL126183  18.131  25.110  16.156  0.1117  0.3215  0.2882
 2232DOPC   GL226184  17.813  25.145  16.149 -0.0494  0.0132  0.1659
 2232DOPC   C1A26185  18.067  25.309  15.743  0.0482 -0.0340  0.5220
 2232DOPC   D2A26186  17.978  25.560  15.394 -0.0012  0.0284 -0.0954
 2232DOPC   C3A26187  18.062  25.510  14.929 -0.3771 -0.2520 -0.2599
 2232DOPC   C4A26188  18.022  25.144  14.675  0.0701 -0.1425  0.0866
 2232DOPC   C1B26189  17.556  25.352  15.856 -0.0794  0.4162  0.2641
 2232DOPC   D2B26190  17.592  25.763  15.741 -0.0053  0.4303 -0.3619
 2232DOPC   C3B26191  17.596  25.982  15.345  0.2252 -0.1450  0.0328
 2232DOPC   C4B26192  17.247  26.200  15.059 -0.2747  0.2804  0.1914
 2233DOPS   CNO26193  22.787  29.728  16.379 -0.1384 -0.1605  0.1299
 2233DOPS   PO426194  22.525  29.486  16.473 -0.1664  0.2664  0.3027
 2233DOPS   GL126195  22.527  29.378  16.159  0.0771 -0.1231 -0.0900
 2233DOPS   GL226196  22.461  29.708  15.986 -0.1492 -0.0095  0.2724
 2233DOPS   C1A26197  22.679  29.165  15.789 -0.3978  0.0459 -0.0287
 2233DOPS   D2A26198  22.737  28.966  15.382 -0.1894 -0.0645  0.0354
 2233DOPS   C3A26199  22.884  29.212  14.985 -0.1396 -0.0679  0.3911
 2233DOPS   C4A26200  22.789  29.493  14.687 -0.0695 -0.0117  0.1334
 2233DOPS   C1B26201  22.180  29.915  15.756  0.1062 -0.3497  0.0389
 2233DOPS   D2B26202  22.109  29.989  15.341 -0.0140  0.0559 -0.0973
 2233DOPS   C3B26203  21.826  29.889  14.995  0.1331  0.0062  0.3393
 2233DOPS   C4B26204  21.680  29.790  14.562  0.3108  0.3266 -0.0258
 2234DOPE   NH326205  14.733  33.307  15.180  0.0529  0.2061 -0.0857
 2234DOPE   PO426206  15.034  33.189  15.138 -0.1133  0.1400  0.0400
 2234DOPE   GL126207  15.147  32.953  14.849 -0.0076 -0.2611 -0.0687
 2234DOPE   GL226208  15.115  32.657  14.772  0.2747 -0.0190 -0.0078
 2234DOPE   C1A26209  15.219  33.098  14.418  0.0550 -0.4006 -0.2468
 2234DOPE   D2A26210  15.135  33.239  13.974  0.2664 -0.1121 -0.0448
 2234DOPE   C3A26211  15.319  33.164  13.525  0.0409 -0.1460  0.0045
 2234DOPE   C4A26212  15.659  33.057  13.188 -0.0224 -0.1496 -0.1487
 2234DOPE   C1B26213  15.267  32.609  14.363 -0.0271  0.2213  0.1242
 2234DOPE   D2B26214  15.268  32.302  14.063  0.2146  0.1246 -0.0316
 2234DOPE   C3B26215  15.525  31.926  13.964  0.0020  0.0052  0.0988
 2234DOPE   C4B26216  15.739  31.643  13.646  0.2328  0.1315 -0.0262
 2235DOPE   NH326217  19.515  31.190  16.748 -0.0028 -0.1429  0.0002
 2235DOPE   PO426218  19.340  31.127  16.493  0.2053 -0.2427 -0.0512
 2235DOPE   GL126219  19.536  31.118  16.075 -0.0460  0.3427  0.3285
 2235DOPE   GL226220  19.340  30.952  15.977 -0.0363  0.0920  0.1752
 2235DOPE   C1A26221  19.823  31.481  15.887 -0.0458 -0.0717  0.4410
 2235DOPE   D2A26222  20.258  31.606  15.893 -0.2942  0.0061 -0.2346
 2235DOPE   C3A26223  20.443  31.244  15.673 -0.3131  0.2555 -0.1464
 2235DOPE   C4A26224  20.469  30.749  15.677  0.3636  0.0070  0.1582
 2235DOPE   C1B26225  19.392  31.236  15.619  0.0532 -0.1860  0.0854
 2235DOPE   D2B26226  19.321  31.244  15.197 -0.0125 -0.1187 -0.0454
 2235DOPE   C3B26227  19.563  31.247  14.833  0.2233  0.0740  0.1581
 2235DOPE   C4B26228  20.029  31.244  14.785  0.1968  0.2610 -0.0043
 2236DOPE   NH326229  18.229  28.311  16.218 -0.2471  0.0204 -0.1759
 2236DOPE   PO426230  18.545  28.243  16.177  0.2116 -0.0475 -0.0563
 2236DOPE   GL126231  18.493  28.154  15.805 -0.0013 -0.1371  0.0321
 2236DOPE   GL226232  18.193  28.218  15.689 -0.0232 -0.1691 -0.1021
 2236DOPE   C1A26233  18.604  27.947  15.413 -0.0371  0.0855  0.2261
 2236DOPE   D2A26234  18.584  27.942  15.014 -0.2342 -0.1049 -0.0692
 2236DOPE   C3A26235  18.826  27.810  14.672 -0.0692 -0.2001 -0.0660
 2236DOPE   C4A26236  19.021  27.769  14.287  0.4221  0.1278 -0.0647
 2236DOPE   C1B26237  18.076  28.359  15.315  0.0729  0.0119  0.0308
 2236DOPE   D2B26238  18.104  28.391  14.817  0.4923  0.1246 -0.1068
 2236DOPE   C3B26239  18.495  28.464  14.505  0.1165 -0.0832  0.0213
 2236DOPE   C4B26240  18.631  28.547  14.007  0.1152 -0.1824  0.4296
 2237DOPC   NC326241  22.488  34.299  16.711 -0.2137  0.0189  0.2625
 2237DOPC   PO426242  22.553  34.651  16.752 -0.0364  0.0103  0.1299
 2237DOPC   GL126243  22.636  34.573  16.409 -0.2490 -0.0041  0.0521
 2237DOPC   GL226244  22.550  34.773  16.225 -0.0143  0.3907 -0.0263
 2237DOPC   C1A26245  22.667  34.349  15.999 -0.4686  0.1398  0.0485
 2237DOPC   D2A26246  22.907  34.352  15.556 -0.0110  0.0678 -0.0442
 2237DOPC   C3A26247  22.944  34.035  15.213  0.4405 -0.2091 -0.0512
 2237DOPC   C4A26248  22.960  33.510  15.130 -0.1583  0.0971  0.1636
 2237DOPC   C1B26249  22.300  34.621  15.914 -0.0573 -0.0079  0.1666
 2237DOPC   D2B26250  22.366  34.556  15.476  0.1416  0.3219 -0.1760
 2237DOPC   C3B26251  21.945  34.602  15.215 -0.4148 -0.0247  0.4080
 2237DOPC   C4B26252  21.894  34.502  14.786  0.2821 -0.1332 -0.0981
 2238POSM   NC326253  13.002  29.669  15.241  0.3633  0.0431 -0.0694
 2238POSM   PO426254  13.327  29.597  15.465  0.1657 -0.1667  0.0072
 2238POSM   AM126255  13.500  29.621  15.199 -0.2877  0.5866  0.1265
 2238POSM   AM226256  13.644  29.439  15.056  0.1709 -0.2191  0.1845
 2238POSM   T1A26257  13.714  29.851  14.795  0.0912 -0.0901 -0.1400
 2238POSM   C2A26258  14.131  29.746  14.570 -0.0811  0.0508 -0.0618
 2238POSM   C3A26259  14.316  29.503  14.195 -0.0485 -0.0832 -0.3536
 2238POSM   C1B26260  13.751  29.417  14.707 -0.2011  0.1195 -0.1483
 2238POSM   D2B26261  13.670  29.303  14.281  0.1412  0.1186  0.1499
 2238POSM   C3B26262  13.665  28.892  14.115 -0.2499  0.1856 -0.0086
 2238POSM   C4B26263  13.791  28.482  14.037  0.1084 -0.1444 -0.2847
 2239POSM   NC326264  11.251  32.257  14.819 -0.5083  0.0193 -0.1313
 2239POSM   PO426265  11.284  31.923  14.591  0.0248  0.3885  0.3095
 2239POSM   AM126266  11.211  31.942  14.240 -0.0145  0.2807  0.1073
 2239POSM   AM226267  11.122  31.749  14.032  0.0729  0.1493  0.1706
 2239POSM   T1A26268  11.153  32.227  13.802 -0.0525 -0.0224  0.1171
 2239POSM   C2A26269  11.213  32.416  13.366  0.3321 -0.3091 -0.0896
 2239POSM   C3A26270  11.121  32.791  13.085 -0.1022 -0.0859 -0.1113
 2239POSM   C1B26271  11.225  31.593  13.761 -0.2649 -0.1109 -0.1731
 2239POSM   D2B26272  11.190  31.479  13.301  0.0339  0.0511  0.2722
 2239POSM   C3B26273  11.501  31.521  13.006  0.2321 -0.3597  0.0515
 2239POSM   C4B26274  11.643  31.809  12.674  0.0488  0.2597  0.1513
 2240DOPC   NC326275  16.547  27.646  15.840  0.1105  0.0904 -0.3046
 2240DOPC   PO426276  16.932  27.573  15.771 -0.0047  0.0598  0.2628
 2240DOPC   GL126277  17.033  27.557  15.478  0.1107  0.0287  0.0403
 2240DOPC   GL226278  16.799  27.469  15.288  0.1148 -0.0063 -0.2001
 2240DOPC   C1A26279  17.196  27.190  15.169 -0.0683  0.2512 -0.2017
 2240DOPC   D2A26280  16.978  27.096  14.827 -0.1151  0.1964 -0.1679
 2240DOPC   C3A26281  16.978  27.291  14.399  0.0888  0.1949  0.4921
 2240DOPC   C4A26282  17.269  27.492  14.128  0.2029  0.1354 -0.2385
 2240DOPC   C1B26283  17.065  27.612  14.967  0.2532 -0.1117 -0.0346
 2240DOPC   D2B26284  17.405  27.598  14.699 -0.0815 -0.1069  0.0334
 2240DOPC   C3B26285  17.605  27.892  14.341 -0.1097 -0.2481 -0.0150
 2240DOPC   C4B26286  17.524  27.890  13.870  0.4846  0.1807  0.1421
 2241DOPC   NC326287  18.626  27.820  16.379 -0.0593  0.0539 -0.3062
 2241DOPC   PO426288  18.943  27.992  16.302 -0.0490 -0.0597  0.2589
 2241DOPC   GL126289  19.181  28.083  15.924 -0.0204 -0.2999 -0.0617
 2241DOPC   GL226290  19.025  28.261  15.874 -0.1868 -0.1342 -0.0438
 2241DOPC   C1A26291  19.211  28.181  15.444 -0.3472  0.0609  0.1248
 2241DOPC   D2A26292  19.419  28.246  15.060 -0.0243  0.1377 -0.1543
 2241DOPC   C3A26293  19.748  28.442  14.765  0.0643 -0.0229  0.2624
 2241DOPC   C4A26294  19.761  28.856  14.625 -0.2640 -0.0590  0.0473
 2241DOPC   C1B26295  18.776  28.513  15.568  0.0158 -0.1224 -0.0280
 2241DOPC   D2B26296  18.607  28.502  15.140 -0.3015 -0.0044 -0.0096
 2241DOPC   C3B26297  18.940  28.400  14.786  0.2676 -0.0943 -0.0947
 2241DOPC   C4B26298  18.963  28.281  14.357  0.3118  0.1716 -0.0596
 2242DOPS   CNO26299  12.601  31.624  15.164  0.3386  0.0807 -0.0717
 2242DOPS   PO426300  12.463  31.461  14.813 -0.2999  0.0090 -0.0710
 2242DOPS   GL126301  12.481  31.454  14.444 -0.0345  0.0876 -0.1732
 2242DOPS   GL226302  12.304  31.242  14.361  0.2251 -0.0049  0.1730
 2242DOPS   C1A26303  12.694  31.760  14.119 -0.0324 -0.0493 -0.0928
 2242DOPS   D2A26304  12.702  31.779  13.676 -0.0279 -0.0803 -0.0699
 2242DOPS   C3A26305  13.149  31.875  13.518  0.1767  0.0971 -0.1906
 2242DOPS   C4A26306  13.492  32.156  13.666 -0.1207 -0.1511 -0.0048
 2242DOPS   C1B26307  12.231  31.538  14.035 -0.1481 -0.2512 -0.3123
 2242DOPS   D2B26308  12.130  31.697  13.635 -0.1779 -0.1430 -0.1187
 2242DOPS   C3B26309  12.282  31.899  13.244  0.0411 -0.1728  0.2443
 2242DOPS   C4B26310  12.327  32.223  12.984  0.0620  0.0281  0.0465
 2243DOPE   NH326311  19.477  24.982  15.814 -0.0470  0.1601  0.0113
 2243DOPE   PO426312  19.295  24.687  15.830  0.1146  0.1208  0.1196
 2243DOPE   GL126313  19.346  24.318  15.705 -0.4344 -0.0906 -0.1977
 2243DOPE   GL226314  19.057  24.220  15.742 -0.0486 -0.2651 -0.3051
 2243DOPE   C1A26315  19.397  24.321  15.216  0.2483 -0.0523 -0.1062
 2243DOPE   D2A26316  19.387  24.209  14.776 -0.2398 -0.2626  0.3014
 2243DOPE   C3A26317  19.425  24.596  14.481  0.2959  0.1092  0.0240
 2243DOPE   C4A26318  19.533  25.030  14.482 -0.0766 -0.0025  0.1144
 2243DOPE   C1B26319  18.904  24.389  15.347  0.2927 -0.0537 -0.1689
 2243DOPE   D2B26320  19.005  24.595  14.935 -0.0651 -0.2601 -0.2588
 2243DOPE   C3B26321  18.798  24.726  14.527 -0.1044  0.3268 -0.0794
 2243DOPE   C4B26322  18.401  24.792  14.339 -0.0185 -0.0803  0.2035
 2244DOPS   CNO26323  21.086  28.284  17.056  0.0576  0.2204  0.1894
 2244DOPS   PO426324  21.243  28.121  16.779 -0.1120 -0.1018 -0.0200
 2244DOPS   GL126325  21.042  28.310  16.453 -0.2859 -0.1871 -0.5279
 2244DOPS   GL226326  20.860  28.158  16.252 -0.0004 -0.0054  0.2144
 2244DOPS   C1A26327  21.201  28.751  16.215 -0.0956  0.0111 -0.1541
 2244DOPS   D2A26328  21.540  29.047  16.051  0.0040  0.2606  0.0624
 2244DOPS   C3A26329  21.666  29.130  15.640 -0.0005 -0.0542  0.1599
 2244DOPS   C4A26330  21.877  28.917  15.284  0.1831  0.1611 -0.1859
 2244DOPS   C1B26331  20.672  28.329  15.886 -0.1283  0.0991  0.2367
 2244DOPS   D2B26332  20.427  28.240  15.535  0.2118  0.2702 -0.2670
 2244DOPS   C3B26333  20.595  27.980  15.203 -0.3053  0.3324  0.1185
 2244DOPS   C4B26334  20.671  27.684  14.852 -0.1692 -0.4325 -0.0890
 2245DOPE   NH326335  23.780  23.225  12.793  0.1103  0.0197 -0.0162
 2245DOPE   PO426336  23.803  23.494  12.675  0.4173 -0.1799 -0.0078
 2245DOPE   GL126337  23.592  23.593  13.098 -0.0218 -0.0912  0.1766
 2245DOPE   GL226338  23.876  23.776  13.149  0.0610  0.0873  0.0899
 2245DOPE   C1A26339  23.472  23.948  13.385 -0.3324  0.0534  0.1808
 2245DOPE   D2A26340  23.615  24.310  13.619  0.1737  0.1917  0.0160
 2245DOPE   C3A26341  23.496  24.716  13.435 -0.1084 -0.1191  0.1668
 2245DOPE   C4A26342  23.429  25.108  13.234  0.1367  0.0697 -0.3872
 2245DOPE   C1B26343  23.931  24.225  13.143  0.2123 -0.0226 -0.2083
 2245DOPE   D2B26344  24.090  24.620  12.982  0.2375  0.1206  0.1252
 2245DOPE   C3B26345  24.019  25.091  12.917  0.0105  0.2026 -0.0297
 2245DOPE   C4B26346  24.041  25.517  12.807  0.2562  0.1708  0.3153
 2246DOPS   CNO26347  14.210  27.830  11.631 -0.0300 -0.0769 -0.0614
 2246DOPS   PO426348  14.443  27.591  11.443  0.2803  0.2606  0.0430
 2246DOPS   GL126349  14.236  27.265  11.520  0.2284  0.0666 -0.0699
 2246DOPS   GL226350  14.468  27.157  11.715 -0.0015 -0.1387 -0.1508
 2246DOPS   C1A26351  14.008  26.984  11.220 -0.3858 -0.0433 -0.2316
 2246DOPS   D2A26352  13.854  26.603  11.061  0.2759  0.0704  0.2823
 2246DOPS   C3A26353  13.874  26.198  11.248 -0.0462  0.1486 -0.0412
 2246DOPS   C4A26354  14.318  26.021  11.211  0.0231 -0.1342 -0.0495
 2246DOPS   C1B26355  13.997  27.091  11.795 -0.0004  0.1970 -0.1832
 2246DOPS   D2B26356  13.580  27.144  11.790  0.1481 -0.3392  0.0949
 2246DOPS   C3B26357  13.341  27.023  12.177  0.3574 -0.1669  0.0975
 2246DOPS   C4B26358  12.934  26.929  12.296  0.2440  0.2118 -0.3961
 2247DOPE   NH326359  20.076  25.610  12.489 -0.0713  0.0522  0.1583
 2247DOPE   PO426360  20.256  25.722  12.713  0.0948  0.1362  0.2456
 2247DOPE   GL126361  20.640  26.004  12.960  0.0426 -0.0052  0.0891
 2247DOPE   GL226362  20.880  26.053  12.774 -0.0983 -0.2025  0.1553
 2247DOPE   C1A26363  20.862  25.951  13.383 -0.0549 -0.1077  0.0704
 2247DOPE   D2A26364  21.106  25.957  13.800  0.0744  0.2296  0.2073
 2247DOPE   C3A26365  21.284  26.356  13.946  0.2443  0.2214 -0.1343
 2247DOPE   C4A26366  21.102  26.796  13.983 -0.0922  0.0966  0.0956
 2247DOPE   C1B26367  21.091  25.691  12.988 -0.0483  0.2007 -0.0121
 2247DOPE   D2B26368  21.177  25.279  12.861  0.1123  0.1674  0.0171
 2247DOPE   C3B26369  21.653  25.229  12.757 -0.1619  0.0149  0.2717
 2247DOPE   C4B26370  21.939  25.014  13.015 -0.0357 -0.2278 -0.1142
 2248DOPE   NH326371  22.825  23.681  12.507  0.3625  0.0065 -0.1482
 2248DOPE   PO426372  22.474  23.597  12.420  0.1626  0.0922  0.2003
 2248DOPE   GL126373  22.390  23.967  12.609  0.0832 -0.2476 -0.1566
 2248DOPE   GL226374  22.520  23.954  12.872 -0.1809  0.0966 -0.1805
 2248DOPE   C1A26375  22.223  24.348  12.787 -0.1385 -0.1949 -0.1389
 2248DOPE   D2A26376  22.294  24.579  13.175 -0.0201 -0.1338  0.0280
 2248DOPE   C3A26377  22.442  24.949  13.289  0.1681 -0.0921  0.0119
 2248DOPE   C4A26378  22.379  25.124  13.734  0.0445  0.0591  0.2775
 2248DOPE   C1B26379  22.779  24.333  13.032  0.0087  0.2217 -0.0622
 2248DOPE   D2B26380  22.813  24.659  13.362  0.0817 -0.0168 -0.3047
 2248DOPE   C3B26381  22.899  25.102  13.430  0.0345  0.1072  0.0892
 2248DOPE   C4B26382  22.961  25.322  13.828  0.0199  0.2933  0.1632
 2249DOPC   NC326383  23.127  25.807  12.875  0.2533  0.0012 -0.2119
 2249DOPC   PO426384  22.896  25.733  12.517  0.0240 -0.0558  0.0960
 2249DOPC   GL126385  22.585  25.662  12.752 -0.1544 -0.0237  0.0941
 2249DOPC   GL226386  22.550  25.858  12.917 -0.0113 -0.2458 -0.0075
 2249DOPC   C1A26387  22.510  25.249  12.888 -0.0999  0.6077 -0.2285
 2249DOPC   D2A26388  22.679  24.824  12.767  0.1260  0.0591  0.1467
 2249DOPC   C3A26389  22.903  24.921  12.421 -0.3195  0.0254 -0.0155
 2249DOPC   C4A26390  23.253  24.729  12.167 -0.1991  0.1651  0.1355
 2249DOPC   C1B26391  22.172  26.111  12.972 -0.0345  0.0808  0.3222
 2249DOPC   D2B26392  21.709  26.327  13.016  0.2641 -0.1547 -0.2101
 2249DOPC   C3B26393  21.338  26.341  12.707  0.0417 -0.1040  0.0642
 2249DOPC   C4B26394  21.341  26.040  12.324  0.1943 -0.0018  0.2582
 2250DOPC   NC326395  14.562  30.583  11.597  0.0675  0.2233  0.2697
 2250DOPC   PO426396  14.503  30.981  11.703  0.0811  0.1474 -0.0587
 2250DOPC   GL126397  14.417  30.946  12.063 -0.4007 -0.2178 -0.0583
 2250DOPC   GL226398  14.281  30.674  12.074  0.1935  0.3405  0.0498
 2250DOPC   C1A26399  14.708  30.960  12.382 -0.0882  0.0719  0.3268
 2250DOPC   D2A26400  14.918  31.030  12.769 -0.0839 -0.2354 -0.4850
 2250DOPC   C3A26401  14.674  31.252  13.142  0.4423  0.2275  0.0773
 2250DOPC   C4A26402  14.246  31.248  13.126  0.1868  0.1271 -0.0662
 2250DOPC   C1B26403  14.048  30.523  12.457 -0.0178 -0.0130  0.3279
 2250DOPC   D2B26404  13.748  30.372  12.803  0.3245 -0.2424 -0.1002
 2250DOPC   C3B26405  13.563  30.662  13.105  0.1716  0.0610 -0.3845
 2250DOPC   C4B26406  13.804  30.886  13.442  0.1228  0.0558 -0.0895
 2251DOPE   NH326407  12.686  31.638  10.999  0.1264  0.1609  0.1065
 2251DOPE   PO426408  12.778  31.354  10.880 -0.3071  0.1042 -0.4834
 2251DOPE   GL126409  12.465  31.331  11.297 -0.3815 -0.0873 -0.2056
 2251DOPE   GL226410  12.283  31.159  11.312 -0.1928 -0.0116 -0.0281
 2251DOPE   C1A26411  12.064  31.595  11.433  0.0534  0.0474  0.3536
 2251DOPE   D2A26412  11.591  31.659  11.405  0.2978 -0.2568  0.0160
 2251DOPE   C3A26413  11.273  31.727  11.745 -0.1195 -0.2391  0.0015
 2251DOPE   C4A26414  10.934  31.483  11.870  0.2895  0.1645 -0.0761
 2251DOPE   C1B26415  11.830  31.228  11.207  0.0398  0.3381  0.2685
 2251DOPE   D2B26416  11.361  31.205  11.336 -0.2731 -0.6337 -0.1754
 2251DOPE   C3B26417  11.254  30.950  11.733  0.1560 -0.1485  0.2802
 2251DOPE   C4B26418  11.007  30.677  11.981  0.0565 -0.0898 -0.0436
 2252DOPE   NH326419  22.476  33.824  12.913  0.2226 -0.1355  0.0521
 2252DOPE   PO426420  22.464  33.763  13.245  0.0108  0.5128  0.1200
 2252DOPE   GL126421  22.772  33.549  13.263  0.1891 -0.2326 -0.3612
 2252DOPE   GL226422  22.730  33.339  13.050  0.2141  0.0511 -0.1721
 2252DOPE   C1A26423  23.106  33.303  13.560 -0.2178 -0.0114 -0.1978
 2252DOPE   D2A26424  23.472  33.164  13.784 -0.3050 -0.2402  0.0240
 2252DOPE   C3A26425  23.514  33.117  14.238 -0.1161 -0.0533 -0.0961
 2252DOPE   C4A26426  23.182  33.273  14.584  0.1045  0.0730 -0.0780
 2252DOPE   C1B26427  22.832  32.954  13.347  0.0627  0.3053  0.2946
 2252DOPE   D2B26428  22.972  32.844  13.735 -0.1902  0.0230 -0.0935
 2252DOPE   C3B26429  22.884  32.697  14.116 -0.0962  0.0863 -0.0351
 2252DOPE   C4B26430  22.882  32.251  14.361 -0.2287  0.1750  0.1098
 2253DOPE   NH326431  18.544  30.086  12.820  0.1414 -0.0560 -0.1927
 2253DOPE   PO426432  18.454  29.931  12.575 -0.3123 -0.2705 -0.0318
 2253DOPE   GL126433  18.499  29.617  12.723 -0.0963 -0.2724 -0.3237
 2253DOPE   GL226434  18.701  29.498  12.537  0.1358  0.1273 -0.5465
 2253DOPE   C1A26435  18.330  29.191  12.793 -0.0827  0.3012 -0.1204
 2253DOPE   D2A26436  18.336  28.812  13.070 -0.0958  0.0149 -0.0949
 2253DOPE   C3A26437  18.561  28.850  13.458 -0.1251 -0.2304  0.2618
 2253DOPE   C4A26438  18.700  29.021  13.837  0.0247  0.2385  0.0153
 2253DOPE   C1B26439  19.142  29.309  12.649 -0.1561 -0.4115 -0.0578
 2253DOPE   D2B26440  19.415  28.967  12.756 -0.2120 -0.4369  0.5044
 2253DOPE   C3B26441  19.264  28.745  13.152 -0.2887 -0.3234  0.2004
 2253DOPE   C4B26442  19.016  28.521  13.419  0.1567  0.1411  0.1793
 2254POSM   NC326443  13.846  31.699  11.732  0.2867  0.1170  0.1340
 2254POSM   PO426444  13.523  31.503  11.616  0.0458  0.4017 -0.0348
 2254POSM   AM126445  13.468  31.484  11.918  0.1337 -0.2532 -0.1718
 2254POSM   AM226446  13.484  31.242  12.118  0.0334 -0.1292 -0.0208
 2254POSM   T1A26447  13.203  31.701  12.309 -0.0727 -0.0646 -0.2411
 2254POSM   C2A26448  12.995  31.822  12.739 -0.0701  0.0905  0.2304
 2254POSM   C3A26449  13.022  31.539  13.131  0.0866 -0.2499 -0.0942
 2254POSM   C1B26450  13.261  31.251  12.370 -0.0875  0.0114 -0.1849
 2254POSM   D2B26451  12.905  31.284  12.698 -0.0279 -0.0872 -0.0472
 2254POSM   C3B26452  12.544  31.646  12.767  0.0821 -0.3436  0.0231
 2254POSM   C4B26453  12.116  31.671  12.830  0.0246  0.1347 -0.2490
 2255DOPE   NH326454  16.710  30.798  12.378  0.0784 -0.1730 -0.2920
 2255DOPE   PO426455  16.914  30.606  12.284 -0.0191 -0.3805 -0.1961
 2255DOPE   GL126456  16.830  30.550  12.708 -0.3140  0.0496  0.0741
 2255DOPE   GL226457  16.589  30.365  12.741  0.0788 -0.1542  0.0387
 2255DOPE   C1A26458  16.576  30.803  12.983 -0.2549  0.1264  0.1535
 2255DOPE   D2A26459  16.262  30.781  13.364 -0.0108  0.1758 -0.4250
 2255DOPE   C3A26460  15.874  30.925  13.509 -0.1054  0.4704  0.0311
 2255DOPE   C4A26461  15.523  31.198  13.500 -0.4156  0.0386 -0.0220
 2255DOPE   C1B26462  16.132  30.249  12.805  0.1975  0.5944  0.0795
 2255DOPE   D2B26463  15.976  30.286  13.217 -0.0452 -0.2197 -0.1029
 2255DOPE   C3B26464  15.635  29.989  13.332  0.3720 -0.0200  0.1099
 2255DOPE   C4B26465  15.213  29.765  13.448 -0.3432 -0.3760 -0.0626
 2256POSM   NC326466  19.642  31.383  12.387  0.1666  0.2140  0.2025
 2256POSM   PO426467  19.531  30.990  12.444  0.0228 -0.0354  0.1175
 2256POSM   AM126468  19.521  30.982  12.761  0.1538 -0.2964  0.0606
 2256POSM   AM226469  19.562  30.761  12.970 -0.0651  0.1128  0.1721
 2256POSM   T1A26470  19.390  31.238  13.139  0.1278 -0.2641  0.1150
 2256POSM   C2A26471  19.232  31.234  13.567  0.0234  0.1096 -0.0664
 2256POSM   C3A26472  19.453  30.992  13.940 -0.1884  0.0836 -0.2623
 2256POSM   C1B26473  19.310  30.733  13.188  0.2377  0.0928 -0.0634
 2256POSM   D2B26474  19.222  30.666  13.645 -0.1504 -0.1624 -0.0588
 2256POSM   C3B26475  19.426  30.318  13.873  0.1319 -0.0934  0.0001
 2256POSM   C4B26476  19.315  30.014  14.159  0.0219  0.0648  0.0317
 2257POSM   NC326477  12.365  23.208  11.303  0.1932  0.3469  0.1372
 2257POSM   PO426478  12.303  23.408  11.667  0.2428  0.2655 -0.0426
 2257POSM   AM126479  12.308  23.726  11.689 -0.0915  0.1396  0.1554
 2257POSM   AM226480  12.449  23.824  11.899 -0.2591 -0.1605  0.2446
 2257POSM   T1A26481  12.095  24.111  11.517 -0.2134  0.2194 -0.2386
 2257POSM   C2A26482  11.973  24.522  11.371  0.0268  0.0447 -0.1472
 2257POSM   C3A26483  12.156  25.016  11.361  0.0680  0.2608 -0.2104
 2257POSM   C1B26484  12.366  24.139  12.010 -0.1721 -0.2373 -0.1676
 2257POSM   D2B26485  12.658  24.539  11.990 -0.1696 -0.1477  0.0254
 2257POSM   C3B26486  12.646  24.735  12.395  0.1235 -0.5575  0.0758
 2257POSM   C4B26487  12.588  24.696  12.870  0.0960 -0.2666  0.1687
 2258DOPC   NC326488  21.774  34.216  12.653  0.0176 -0.1340 -0.1792
 2258DOPC   PO426489  22.170  34.213  12.675 -0.1492 -0.1415 -0.1491
 2258DOPC   GL126490  22.128  33.881  12.543  0.0267  0.0914 -0.2664
 2258DOPC   GL226491  21.873  33.736  12.534 -0.0710 -0.2798 -0.0246
 2258DOPC   C1A26492  22.367  33.597  12.337  0.1174  0.1431 -0.0497
 2258DOPC   D2A26493  22.520  33.285  12.586 -0.3742 -0.1294 -0.0623
 2258DOPC   C3A26494  22.368  33.012  12.962 -0.1160 -0.1161  0.0943
 2258DOPC   C4A26495  22.277  32.533  13.073  0.1134  0.0830 -0.2281
 2258DOPC   C1B26496  21.540  33.351  12.637 -0.0097  0.1825 -0.2680
 2258DOPC   D2B26497  21.093  33.193  12.648 -0.0344  0.2373 -0.1135
 2258DOPC   C3B26498  21.234  32.959  13.053 -0.4376  0.2314 -0.2531
 2258DOPC   C4B26499  21.099  32.768  13.517  0.3666  0.4052  0.2451
 2259DOPC   NC326500  20.576  30.669  12.806  0.1441 -0.1243 -0.0710
 2259DOPC   PO426501  20.304  30.686  12.514 -0.2231  0.1264 -0.0012
 2259DOPC   GL126502  20.251  30.984  12.806 -0.1654  0.0256  0.0028
 2259DOPC   GL226503  20.011  31.045  12.642  0.0297  0.2809 -0.2334
 2259DOPC   C1A26504  20.324  31.329  13.096  0.0596 -0.2831  0.2675
 2259DOPC   D2A26505  20.508  31.447  13.564  0.1871  0.0037 -0.1371
 2259DOPC   C3A26506  20.631  31.560  14.055  0.0675 -0.1452 -0.2394
 2259DOPC   C4A26507  20.876  31.694  14.406 -0.1804  0.0113  0.1120
 2259DOPC   C1B26508  19.955  31.466  12.778  0.0990 -0.2433  0.3346
 2259DOPC   D2B26509  20.182  31.818  12.941  0.0489  0.0239 -0.0887
 2259DOPC   C3B26510  20.138  31.927  13.366  0.2776 -0.0522 -0.3032
 2259DOPC   C4B26511  20.386  32.065  13.757 -0.0838 -0.0146 -0.2950
 2260DOPC   NC326512  15.266  27.719  11.792  0.0790 -0.1524  0.0182
 2260DOPC   PO426513  15.291  28.026  11.551 -0.0388 -0.2655  0.1929
 2260DOPC   GL126514  15.540  28.182  11.393 -0.3500 -0.3687  0.3806
 2260DOPC   GL226515  15.778  28.028  11.402 -0.0210 -0.2881  0.1521
 2260DOPC   C1A26516  15.685  28.583  11.244  0.0793  0.3407 -0.3816
 2260DOPC   D2A26517  15.731  28.921  11.591  0.1834 -0.0654 -0.1640
 2260DOPC   C3A26518  16.073  29.244  11.624  0.4172  0.2477  0.0704
 2260DOPC   C4A26519  16.439  29.353  11.838  0.0455  0.1170 -0.2890
 2260DOPC   C1B26520  16.124  27.934  11.696  0.0844 -0.2514  0.0825
 2260DOPC   D2B26521  16.555  27.812  11.810  0.2828  0.0851  0.3665
 2260DOPC   C3B26522  16.811  27.995  12.170  0.3264 -0.0310 -0.1294
 2260DOPC   C4B26523  17.152  27.859  12.450 -0.0112  0.1595  0.0185
 2261DOPE   NH326524  18.882  23.921  12.492  0.2949  0.1148  0.2420
 2261DOPE   PO426525  18.744  24.201  12.614  0.0620 -0.0698  0.5213
 2261DOPE   GL126526  18.767  24.090  12.995 -0.3253  0.0419  0.0626
 2261DOPE   GL226527  19.066  24.069  12.992  0.0085  0.0048  0.0201
 2261DOPE   C1A26528  18.553  23.854  13.331 -0.0295 -0.3034  0.1075
 2261DOPE   D2A26529  18.654  23.869  13.803  0.2318 -0.2541  0.1041
 2261DOPE   C3A26530  18.294  24.145  13.936  0.1732 -0.0249 -0.2471
 2261DOPE   C4A26531  17.965  24.458  13.931  0.0755  0.1537  0.0917
 2261DOPE   C1B26532  18.998  24.219  13.409 -0.1309 -0.0375  0.0002
 2261DOPE   D2B26533  19.168  24.106  13.849  0.0481  0.3456 -0.0363
 2261DOPE   C3B26534  19.254  24.545  14.015  0.1248 -0.1814 -0.4297
 2261DOPE   C4B26535  19.120  24.987  14.235  0.0621 -0.5159  0.0570
 2262POSM   NC326536  18.405  23.749  12.765 -0.1438  0.0091 -0.1247
 2262POSM   PO426537  18.010  23.741  12.713 -0.0311 -0.0235 -0.0301
 2262POSM   AM126538  17.796  23.488  12.849 -0.1281 -0.1180  0.1501
 2262POSM   AM226539  17.900  23.262  12.963  0.0557 -0.1934  0.0571
 2262POSM   T1A26540  17.462  23.308  13.138  0.3084  0.2129  0.0685
 2262POSM   C2A26541  17.087  23.146  13.206 -0.2857 -0.2152 -0.0099
 2262POSM   C3A26542  16.738  22.863  13.300  0.3372  0.1849 -0.3816
 2262POSM   C1B26543  18.173  23.304  13.190  0.0494 -0.3458 -0.0053
 2262POSM   D2B26544  18.503  23.249  13.502  0.0098  0.0241  0.0539
 2262POSM   C3B26545  18.786  22.917  13.344  0.2015 -0.0852 -0.0392
 2262POSM   C4B26546  18.905  22.470  13.404  0.0923  0.2426  0.0181
 2263DOPE   NH326547  13.145  31.475  11.296  0.4342  0.0499 -0.3470
 2263DOPE   PO426548  12.849  31.427  11.482 -0.2280  0.2818 -0.2678
 2263DOPE   GL126549  12.965  31.731  11.815 -0.1050 -0.2324  0.1847
 2263DOPE   GL226550  12.954  31.473  11.974  0.0575 -0.1002 -0.0098
 2263DOPE   C1A26551  12.866  32.133  12.076 -0.2066 -0.1290  0.1979
 2263DOPE   D2A26552  12.974  32.330  12.449  0.1564 -0.0485  0.1164
 2263DOPE   C3A26553  12.888  32.282  12.885  0.1431 -0.0798  0.0903
 2263DOPE   C4A26554  12.767  31.989  13.214 -0.2144 -0.1779  0.3416
 2263DOPE   C1B26555  12.644  31.739  12.313  0.0519  0.0950 -0.0838
 2263DOPE   D2B26556  12.450  32.108  12.445 -0.0244 -0.4228  0.0121
 2263DOPE   C3B26557  12.517  32.493  12.644 -0.3276  0.1347  0.2597
 2263DOPE   C4B26558  12.762  32.699  12.990 -0.1335 -0.1195  0.1123
 2264DOPC   NC326559  21.600  22.760  12.190 -0.0569  0.0211  0.0354
 2264DOPC   PO426560  21.816  23.029  12.387  0.4001 -0.1996  0.0833
 2264DOPC   GL126561  21.784  22.909  12.858  0.3393  0.1394 -0.2883
 2264DOPC   GL226562  21.839  23.159  12.886  0.3512 -0.0417  0.1102
 2264DOPC   C1A26563  21.474  22.667  13.093 -0.4162 -0.1349  0.0978
 2264DOPC   D2A26564  21.393  22.791  13.516 -0.2489  0.0511  0.0151
 2264DOPC   C3A26565  21.644  23.178  13.660 -0.1868  0.2384 -0.2673
 2264DOPC   C4A26566  21.679  23.623  13.525 -0.2292  0.1734  0.0733
 2264DOPC   C1B26567  21.765  23.631  12.926  0.0045 -0.0177  0.2229
 2264DOPC   D2B26568  21.534  24.038  12.960  0.0334 -0.0607 -0.2585
 2264DOPC   C3B26569  21.343  23.981  13.397  0.1583  0.3394  0.1964
 2264DOPC   C4B26570  21.294  23.845  13.836 -0.1347  0.2588 -0.1634
 2265POSM   NC326571  18.862  23.554  12.109  0.1463  0.1102  0.0434
 2265POSM   PO426572  18.778  23.412  12.470 -0.0430 -0.0986  0.1618
 2265POSM   AM126573  19.068  23.432  12.586  0.1929 -0.2453 -0.1310
 2265POSM   AM226574  19.127  23.612  12.785 -0.1773 -0.1057  0.0833
 2265POSM   T1A26575  19.616  23.542  12.507 -0.1521 -0.0943 -0.2452
 2265POSM   C2A26576  19.895  23.388  12.211 -0.3219 -0.1197 -0.1761
 2265POSM   C3A26577  20.005  22.920  12.286  0.2009  0.1169  0.2508
 2265POSM   C1B26578  19.440  23.415  12.974  0.1265  0.2166  0.0810
 2265POSM   D2B26579  19.823  23.284  13.254  0.1461  0.3060  0.1168
 2265POSM   C3B26580  20.210  23.155  13.481 -0.2290 -0.0635  0.1809
 2265POSM   C4B26581  20.627  23.301  13.635 -0.0504  0.1810  0.1705
 2266DOPE   NH326582  21.037  29.222  13.764 -0.5158 -0.0190 -0.1176
 2266DOPE   PO426583  20.816  29.124  13.505  0.3273 -0.0164 -0.3639
 2266DOPE   GL126584  20.409  29.161  13.674 -0.1903 -0.2033  0.1953
 2266DOPE   GL226585  20.397  28.926  13.795  0.0719  0.3393 -0.0920
 2266DOPE   C1A26586  20.148  29.579  13.677  0.2005 -0.0667  0.1814
 2266DOPE   D2A26587  20.162  30.014  13.813  0.3813 -0.0529  0.3707
 2266DOPE   C3A26588  20.114  30.158  14.266  0.0517  0.1266  0.0942
 2266DOPE   C4A26589  20.122  30.388  14.643 -0.2637  0.1568 -0.0305
 2266DOPE   C1B26590  20.018  29.087  14.077 -0.2910 -0.0538 -0.0465
 2266DOPE   D2B26591  19.762  29.363  14.408  0.2456 -0.1278 -0.2831
 2266DOPE   C3B26592  19.656  29.435  14.849 -0.0067 -0.0310  0.1118
 2266DOPE   C4B26593  19.568  29.306  15.281  0.0595  0.3186 -0.1949
 2267DOPE   NH326594  10.592  26.838  11.708 -0.0549  0.0139  0.0677
 2267DOPE   PO426595  10.825  26.552  11.730 -0.0478 -0.0402  0.1264
 2267DOPE   GL126596  10.799  26.261  12.063  0.1000  0.1108  0.0596
 2267DOPE   GL226597  10.895  26.502  12.249 -0.2523 -0.1926 -0.0181
 2267DOPE   C1A26598  10.710  26.106  12.560 -0.1972  0.0244 -0.1920
 2267DOPE   D2A26599  10.783  26.151  12.974  0.0735  0.3305 -0.2594
 2267DOPE   C3A26600  11.192  26.431  12.822 -0.0778  0.0158 -0.2944
 2267DOPE   C4A26601  11.650  26.408  12.998  0.3649  0.0585 -0.3682
 2267DOPE   C1B26602  11.170  26.838  12.536  0.0710  0.2234  0.0869
 2267DOPE   D2B26603  11.512  26.905  12.838 -0.3645 -0.0952 -0.0619
 2267DOPE   C3B26604  11.869  27.235  12.719 -0.1388 -0.0071  0.1275
 2267DOPE   C4B26605  12.145  27.685  12.692  0.0487  0.3229 -0.2482
 2268DOPC   NC326606  17.606  30.306  12.302 -0.0428 -0.0464  0.0168
 2268DOPC   PO426607  17.265  30.205  12.470  0.3934 -0.3941 -0.1534
 2268DOPC   GL126608  17.151  30.224  12.861 -0.1274 -0.2350  0.1392
 2268DOPC   GL226609  17.326  30.032  13.008  0.2202 -0.1294 -0.0078
 2268DOPC   C1A26610  16.840  29.914  13.092 -0.0721 -0.2238 -0.1500
 2268DOPC   D2A26611  16.492  29.690  13.241  0.2759  0.1595 -0.2418
 2268DOPC   C3A26612  16.470  29.363  13.611 -0.0071 -0.2012 -0.3680
 2268DOPC   C4A26613  16.589  28.932  13.795 -0.1930 -0.1139 -0.1549
 2268DOPC   C1B26614  17.203  29.629  13.189  0.0107 -0.1755  0.0566
 2268DOPC   D2B26615  16.865  29.306  13.314 -0.1185  0.2665  0.2419
 2268DOPC   C3B26616  16.633  28.952  13.167 -0.0370  0.0425  0.1634
 2268DOPC   C4B26617  16.236  28.852  13.304  0.1047 -0.0453 -0.3241
 2269DOPE   NH326618  13.194  31.157  11.700  0.1504  0.3260  0.1370
 2269DOPE   PO426619  13.471  30.990  11.627  0.0412 -0.1283 -0.0684
 2269DOPE   GL126620  13.416  30.762  11.920 -0.0282 -0.2927  0.0253
 2269DOPE   GL226621  13.187  30.702  11.929  0.0058 -0.1435 -0.1535
 2269DOPE   C1A26622  13.614  30.820  12.322  0.0715 -0.0276  0.1765
 2269DOPE   D2A26623  13.668  31.148  12.702 -0.3552 -0.1773 -0.0117
 2269DOPE   C3A26624  13.430  31.524  12.845  0.1217 -0.1192  0.0437
 2269DOPE   C4A26625  13.389  31.910  13.049  0.0691 -0.1123  0.0627
 2269DOPE   C1B26626  12.972  30.811  12.367  0.0663 -0.3534  0.3219
 2269DOPE   D2B26627  12.794  30.489  12.616  0.2360  0.0604 -0.2969
 2269DOPE   C3B26628  12.412  30.274  12.506  0.0903  0.1474 -0.1158
 2269DOPE   C4B26629  12.233  29.815  12.470 -0.0856  0.2108 -0.2590
 2270POSM   NC326630  20.799  29.204  13.049  0.0155  0.1116 -0.0184
 2270POSM   PO426631  20.584  28.858  13.123  0.0847 -0.0168 -0.1279
 2270POSM   AM126632  20.340  28.871  13.354 -0.1005 -0.3539 -0.3555
 2270POSM   AM226633  20.177  28.616  13.434 -0.0478  0.0605  0.1059
 2270POSM   T1A26634  19.927  29.042  13.582 -0.2101  0.1069 -0.2878
 2270POSM   C2A26635  19.575  29.196  13.774 -0.1015 -0.1121 -0.0648
 2270POSM   C3A26636  19.299  29.530  13.713  0.0892 -0.2497  0.2954
 2270POSM   C1B26637  20.022  28.555  13.703  0.1392 -0.0890 -0.2160
 2270POSM   D2B26638  19.838  28.635  14.124  0.1014 -0.2677  0.2983
 2270POSM   C3B26639  19.496  28.973  14.180  0.1289  0.4438  0.1936
 2270POSM   C4B26640  19.159  29.202  14.045  0.1227  0.1243  0.1763
 2271DOPC   NC326641  20.330  30.157  12.860  0.0714 -0.2892 -0.1051
 2271DOPC   PO426642  20.633  30.305  13.098  0.4198  0.2499  0.0092
 2271DOPC   GL126643  20.855  30.423  13.381  0.3411  0.0392 -0.5171
 2271DOPC   GL226644  20.731  30.555  13.582  0.0348 -0.0448 -0.1336
 2271DOPC   C1A26645  21.202  30.746  13.454  0.2110 -0.1567 -0.1459
 2271DOPC   D2A26646  21.337  30.952  13.837  0.0289 -0.1993 -0.0866
 2271DOPC   C3A26647  21.489  31.379  13.897 -0.1813  0.1375  0.3086
 2271DOPC   C4A26648  21.241  31.738  14.079  0.0589 -0.1958  0.1754
 2271DOPC   C1B26649  20.831  31.023  13.726  0.4249  0.1059 -0.0578
 2271DOPC   D2B26650  20.960  31.454  13.728 -0.0504  0.0884 -0.0021
 2271DOPC   C3B26651  20.839  31.913  13.672  0.0412 -0.2859 -0.2598
 2271DOPC   C4B26652  20.725  32.234  13.294 -0.1234 -0.1033  0.0311
 2272POSM   NC326653  18.877  32.495  12.706 -0.1264 -0.2479 -0.1181
 2272POSM   PO426654  18.701  32.817  12.884  0.0120  0.1489 -0.2131
 2272POSM   AM126655  18.793  33.124  12.974 -0.1136 -0.1105  0.1327
 2272POSM   AM226656  18.945  33.364  12.871 -0.1350 -0.2442  0.2001
 2272POSM   T1A26657  18.625  33.484  13.240  0.1400 -0.2259  0.1604
 2272POSM   C2A26658  18.575  33.704  13.639  0.2240 -0.0008  0.2236
 2272POSM   C3A26659  18.563  33.905  14.029  0.0728  0.0433 -0.1996
 2272POSM   C1B26660  19.261  33.447  12.877  0.1328  0.1093  0.1705
 2272POSM   D2B26661  19.677  33.588  12.723  0.2645 -0.0201 -0.0137
 2272POSM   C3B26662  19.757  33.976  12.592  0.3056  0.0478 -0.1604
 2272POSM   C4B26663  19.911  34.245  12.250  0.0717 -0.1087 -0.0056
 2273DOPE   NH326664  17.785  23.575  12.298  0.0600 -0.2549 -0.0452
 2273DOPE   PO426665  17.517  23.563  12.501  0.1684  0.4753  0.0377
 2273DOPE   GL126666  17.352  23.679  12.827 -0.4104 -0.1452  0.0259
 2273DOPE   GL226667  17.161  23.864  12.732 -0.1559 -0.1864 -0.1645
 2273DOPE   C1A26668  17.547  23.768  13.211 -0.2080 -0.0936 -0.0446
 2273DOPE   D2A26669  18.015  23.793  13.256  0.1217 -0.2208 -0.1777
 2273DOPE   C3A26670  18.259  23.653  13.684  0.1867  0.1497 -0.1146
 2273DOPE   C4A26671  18.228  23.657  14.131 -0.2115  0.0783  0.3073
 2273DOPE   C1B26672  17.033  23.739  13.192 -0.3870  0.0977  0.1429
 2273DOPE   D2B26673  16.788  23.734  13.588 -0.1601  0.1785 -0.0082
 2273DOPE   C3B26674  16.955  23.319  13.632 -0.0783  0.2147  0.4345
 2273DOPE   C4B26675  16.736  23.046  13.893 -0.1831  0.1407  0.0527
 2274DOPC   NC326676  21.173  28.679  13.002 -0.1591  0.2352 -0.1069
 2274DOPC   PO426677  21.589  28.690  12.969 -0.0425  0.1115 -0.0868
 2274DOPC   GL126678  21.533  28.522  13.364 -0.2175 -0.2929  0.0454
 2274DOPC   GL226679  21.221  28.446  13.447  0.0369 -0.2460 -0.0091
 2274DOPC   C1A26680  21.573  28.044  13.335  0.0625  0.2800 -0.1366
 2274DOPC   D2A26681  21.585  27.602  13.373 -0.0540  0.1252  0.0022
 2274DOPC   C3A26682  21.284  27.360  13.073  0.3169  0.3713  0.2391
 2274DOPC   C4A26683  20.807  27.245  13.004 -0.1059  0.0617  0.0067
 2274DOPC   C1B26684  21.013  28.067  13.284 -0.2072  0.1318  0.3192
 2274DOPC   D2B26685  20.979  27.660  13.326 -0.3712 -0.1521  0.0452
 2274DOPC   C3B26686  20.654  27.653  13.696 -0.1049  0.1771 -0.1685
 2274DOPC   C4B26687  20.260  27.823  13.840 -0.2244  0.0806 -0.0998
 2275DOPE   NH326688  24.355  23.130  13.142  0.1055  0.2261  0.0666
 2275DOPE   PO426689  24.126  23.290  13.168  0.3095 -0.0183  0.0679
 2275DOPE   GL126690  23.941  23.454  13.473 -0.0277 -0.3658 -0.0090
 2275DOPE   GL226691  23.754  23.271  13.468 -0.3002  0.1067 -0.1429
 2275DOPE   C1A26692  23.918  23.880  13.652  0.1414  0.0245  0.0558
 2275DOPE   D2A26693  24.018  24.266  13.897  0.0746 -0.0942  0.2095
 2275DOPE   C3A26694  23.761  24.702  13.880  0.0303  0.1646 -0.1386
 2275DOPE   C4A26695  23.345  24.858  13.854  0.1578  0.0452 -0.0456
 2275DOPE   C1B26696  23.830  23.463  13.877 -0.1017  0.1704 -0.0294
 2275DOPE   D2B26697  23.878  23.821  14.150 -0.1415 -0.0199  0.0502
 2275DOPE   C3B26698  23.994  24.100  14.444  0.2460  0.0054 -0.5838
 2275DOPE   C4B26699  24.381  24.282  14.598  0.0994  0.1284  0.0683
 2276POSM   NC326700  13.240  28.365  11.166 -0.2697  0.0263 -0.1187
 2276POSM   PO426701  13.347  28.090  11.425  0.3063 -0.0123  0.0384
 2276POSM   AM126702  13.297  27.934  11.707 -0.0119 -0.0493 -0.3464
 2276POSM   AM226703  13.184  28.045  11.925 -0.1555 -0.0097  0.4166
 2276POSM   T1A26704  13.340  27.561  12.042  0.0603  0.2914 -0.0497
 2276POSM   C2A26705  12.966  27.406  12.274  0.1443 -0.0677 -0.2267
 2276POSM   C3A26706  12.524  27.403  12.496 -0.3682  0.0394  0.2975
 2276POSM   C1B26707  13.052  27.983  12.221  0.2090 -0.1621 -0.0711
 2276POSM   D2B26708  13.128  27.957  12.705 -0.1371 -0.1015 -0.0825
 2276POSM   C3B26709  13.496  27.937  12.921 -0.2647  0.0590  0.2085
 2276POSM   C4B26710  13.691  27.729  13.303  0.2243  0.1094 -0.2166
 2277DOPC   NC326711  17.675  30.335  12.793 -0.2002 -0.2012 -0.0483
 2277DOPC   PO426712  17.824  30.694  12.659  0.0644  0.4003  0.1669
 2277DOPC   GL126713  18.138  30.846  12.911 -0.1895  0.0188 -0.0882
 2277DOPC   GL226714  18.269  30.617  13.008  0.1111 -0.3599  0.0366
 2277DOPC   C1A26715  18.375  31.122  13.229 -0.1348 -0.1216  0.1689
 2277DOPC   D2A26716  18.280  31.278  13.667  0.4705  0.3783  0.0659
 2277DOPC   C3A26717  17.821  31.408  13.545  0.3003 -0.0182 -0.0751
 2277DOPC   C4A26718  17.529  31.691  13.346 -0.0616  0.1521 -0.0642
 2277DOPC   C1B26719  18.350  30.558  13.463  0.0757 -0.1427 -0.0174
 2277DOPC   D2B26720  18.338  30.192  13.762 -0.1702 -0.2995 -0.0739
 2277DOPC   C3B26721  18.438  29.758  13.735 -0.1843  0.0771  0.3440
 2277DOPC   C4B26722  18.804  29.526  13.530  0.2186  0.0521  0.2069
 2278POSM   NC326723  19.270  25.406  12.883  0.0916  0.0440 -0.1441
 2278POSM   PO426724  19.645  25.398  12.758 -0.3494  0.0824 -0.0387
 2278POSM   AM126725  19.614  25.082  12.852  0.1940 -0.1345  0.1886
 2278POSM   AM226726  19.431  24.946  13.036 -0.0451  0.1624  0.3166
 2278POSM   T1A26727  19.873  24.781  13.193 -0.3681  0.3173  0.1352
 2278POSM   C2A26728  19.988  24.388  13.257  0.1776  0.0253 -0.1410
 2278POSM   C3A26729  19.945  24.036  13.510 -0.1573 -0.1598 -0.0785
 2278POSM   C1B26730  19.483  25.078  13.359  0.0796 -0.0493 -0.2160
 2278POSM   D2B26731  19.351  25.133  13.772 -0.1065 -0.0237  0.1312
 2278POSM   C3B26732  19.720  24.972  13.969 -0.2143 -0.0345 -0.1459
 2278POSM   C4B26733  19.841  24.601  14.150  0.1253 -0.0247 -0.0215
 2279POSM   NC326734  14.017  30.096  11.502  0.4045  0.1061  0.1194
 2279POSM   PO426735  13.753  30.165  11.246  0.0204  0.1025  0.1932
 2279POSM   AM126736  13.481  30.217  11.458 -0.0364 -0.1463  0.0535
 2279POSM   AM226737  13.271  30.328  11.629 -0.3098  0.0869  0.0911
 2279POSM   T1A26738  13.161  29.829  11.585  0.0937  0.0747 -0.0172
 2279POSM   C2A26739  12.895  29.643  11.849  0.0445  0.0542  0.3045
 2279POSM   C3A26740  12.673  29.492  12.181 -0.0436  0.0307 -0.1985
 2279POSM   C1B26741  13.226  30.219  11.923  0.0177 -0.2988 -0.1189
 2279POSM   D2B26742  13.139  30.233  12.370  0.0778 -0.0830 -0.2211
 2279POSM   C3B26743  13.171  30.349  12.855 -0.0875 -0.1299 -0.2251
 2279POSM   C4B26744  13.021  30.257  13.304 -0.0489 -0.1043 -0.2462
 2280DOPC   NC326745  17.339  26.199  12.059 -0.0010 -0.1950 -0.0087
 2280DOPC   PO426746  17.135  26.147  12.384 -0.0854  0.1674  0.3009
 2280DOPC   GL126747  16.916  25.880  12.635 -0.0169 -0.1931 -0.4200
 2280DOPC   GL226748  17.141  25.832  12.792 -0.2707 -0.1304  0.1368
 2280DOPC   C1A26749  16.725  25.499  12.813  0.1156  0.1232  0.0237
 2280DOPC   D2A26750  16.294  25.471  13.040 -0.0423 -0.0103  0.0577
 2280DOPC   C3A26751  15.900  25.723  13.116  0.1396  0.1509 -0.2104
 2280DOPC   C4A26752  15.534  25.859  13.361 -0.2703 -0.1093 -0.2283
 2280DOPC   C1B26753  17.179  25.486  13.099  0.3053  0.0977 -0.0642
 2280DOPC   D2B26754  17.123  25.200  13.516  0.2678 -0.0791  0.2342
 2280DOPC   C3B26755  17.258  24.868  13.827  0.0023  0.3435  0.0497
 2280DOPC   C4B26756  17.408  24.407  13.807 -0.1447  0.2663  0.0878
 2281DOPE   NH326757  14.405  24.444  11.783 -0.0600 -0.1696 -0.0583
 2281DOPE   PO426758  14.440  24.668  11.574 -0.1721  0.1587 -0.0269
 2281DOPE   GL126759  14.530  25.011  11.820  0.2188 -0.1963 -0.1480
 2281DOPE   GL226760  14.804  25.130  11.740 -0.0374  0.0795 -0.0023
 2281DOPE   C1A26761  14.623  25.289  12.243  0.2478 -0.0450 -0.5119
 2281DOPE   D2A26762  14.857  25.508  12.518 -0.2110  0.2083  0.0660
 2281DOPE   C3A26763  15.257  25.233  12.601  0.2205  0.0428 -0.1229
 2281DOPE   C4A26764  15.363  24.844  12.837 -0.1533  0.0162  0.2917
 2281DOPE   C1B26765  15.098  25.133  12.109  0.1861  0.2523  0.0480
 2281DOPE   D2B26766  15.302  25.554  12.231  0.1747 -0.0398 -0.0371
 2281DOPE   C3B26767  15.748  25.469  12.341  0.0697 -0.0448  0.0795
 2281DOPE   C4B26768  16.132  25.307  12.549 -0.0568  0.0299  0.1538
 2282POSM   NC326769  14.382  34.464  11.488 -0.0571  0.4081  0.2985
 2282POSM   PO426770  14.648  34.716  11.384 -0.0110  0.0015 -0.1705
 2282POSM   AM126771  14.674  34.850  11.663  0.0883 -0.1281 -0.1115
 2282POSM   AM226772  14.476  34.785  11.862 -0.2388 -0.0877 -0.1487
 2282POSM   T1A26773  14.963  34.803  12.116 -0.2699  0.1042 -0.0299
 2282POSM   C2A26774  15.147  34.955  12.606 -0.0595 -0.0889  0.0223
 2282POSM   C3A26775  15.552  34.962  12.820  0.1712  0.2829 -0.0602
 2282POSM   C1B26776  14.319  34.730  12.172  0.2646 -0.1116 -0.0444
 2282POSM   D2B26777  14.200  34.658  12.589 -0.0723  0.0683 -0.1188
 2282POSM   C3B26778  13.809  34.488  12.799  0.0258  0.0459  0.1017
 2282POSM   C4B26779  13.509  34.087  12.939  0.1594 -0.1095  0.0669
 2283POSM   NC326780  16.897  25.868  12.027  0.3816  0.0451  0.1292
 2283POSM   PO426781  16.713  26.221  12.085  0.1618 -0.3917  0.4741
 2283POSM   AM126782  16.639  26.060  12.367 -0.0541 -0.1651 -0.0333
 2283POSM   AM226783  16.486  25.830  12.352  0.1157 -0.0497 -0.0366
 2283POSM   T1A26784  16.507  25.955  12.827  0.1390  0.3066  0.1989
 2283POSM   C2A26785  16.338  25.946  13.264 -0.0033  0.3303 -0.0726
 2283POSM   C3A26786  16.037  25.988  13.606  0.2381  0.1409 -0.2159
 2283POSM   C1B26787  16.107  25.791  12.423  0.3053 -0.1571  0.3591
 2283POSM   D2B26788  15.679  25.942  12.373  0.0205 -0.0340  0.1990
 2283POSM   C3B26789  15.485  25.700  12.734  0.0822 -0.1829 -0.0163
 2283POSM   C4B26790  15.313  25.449  13.097 -0.0463  0.0321 -0.0773
 2284DOPS   CNO26791  18.725  30.529  12.692 -0.1908 -0.3995  0.0720
 2284DOPS   PO426792  18.808  30.293  12.438  0.1041 -0.1737 -0.1114
 2284DOPS   GL126793  18.929  29.924  12.492 -0.0370  0.0294  0.2500
 2284DOPS   GL226794  18.950  29.835  12.744  0.1353  0.0290 -0.0269
 2284DOPS   C1A26795  19.390  29.848  12.513  0.1615 -0.0541  0.1466
 2284DOPS   D2A26796  19.597  29.551  12.888  0.0362 -0.3346  0.3103
 2284DOPS   C3A26797  19.356  29.287  13.157 -0.0464  0.0476 -0.5588
 2284DOPS   C4A26798  19.156  29.052  13.488 -0.1477  0.1923 -0.0180
 2284DOPS   C1B26799  18.830  29.483  13.036  0.0900  0.0255 -0.0346
 2284DOPS   D2B26800  18.851  29.005  13.058  0.0349  0.1398  0.4288
 2284DOPS   C3B26801  18.908  28.816  12.640 -0.3394 -0.2918 -0.1920
 2284DOPS   C4B26802  18.874  28.369  12.451 -0.2825  0.0439 -0.1743
 2285DOPC   NC326803  14.580  31.427  11.512  0.1171  0.2109 -0.0553
 2285DOPC   PO426804  14.915  31.658  11.554 -0.0697 -0.5151 -0.2673
 2285DOPC   GL126805  15.023  31.523  11.920 -0.1224 -0.1623 -0.3352
 2285DOPC   GL226806  14.758  31.318  11.995  0.2197  0.3680 -0.1896
 2285DOPC   C1A26807  14.917  31.500  12.404  0.3895 -0.1681 -0.2452
 2285DOPC   D2A26808  14.715  31.586  12.774 -0.2305  0.0383 -0.2494
 2285DOPC   C3A26809  14.642  32.049  12.828 -0.2021 -0.2044 -0.0693
 2285DOPC   C4A26810  14.674  32.490  12.802  0.0369 -0.1022 -0.0103
 2285DOPC   C1B26811  14.412  31.372  12.409 -0.3533 -0.1104  0.2260
 2285DOPC   D2B26812  14.135  31.471  12.741  0.1026  0.1614  0.2324
 2285DOPC   C3B26813  14.013  31.974  12.763 -0.0951 -0.0810  0.3053
 2285DOPC   C4B26814  14.135  32.400  12.850  0.1960  0.1141 -0.3306
 2286POSM   NC326815  11.483  28.576  11.410  0.1745 -0.0127 -0.3770
 2286POSM   PO426816  11.215  28.257  11.347  0.0431 -0.4374 -0.3777
 2286POSM   AM126817  11.464  28.072  11.484  0.3161 -0.2492  0.4548
 2286POSM   AM226818  11.648  27.828  11.521 -0.3305 -0.2112 -0.1833
 2286POSM   T1A26819  11.795  28.110  11.929 -0.1098  0.2110  0.3514
 2286POSM   C2A26820  12.141  27.963  12.203 -0.1833 -0.1496  0.0758
 2286POSM   C3A26821  12.523  27.702  12.070  0.0345 -0.0862  0.2399
 2286POSM   C1B26822  11.664  27.650  11.838  0.3792  0.2747  0.1313
 2286POSM   D2B26823  11.586  27.303  12.222 -0.2597 -0.1674 -0.0445
 2286POSM   C3B26824  12.031  27.054  12.284  0.0175 -0.2712 -0.0787
 2286POSM   C4B26825  12.460  26.889  12.444  0.1702  0.3656  0.0715
 2287DOPE   NH326826  17.786  26.775  12.945 -0.1236 -0.3121  0.2075
 2287DOPE   PO426827  17.790  26.457  12.900 -0.0286  0.0498  0.0653
 2287DOPE   GL126828  17.683  26.485  13.307 -0.2170  0.2772  0.1033
 2287DOPE   GL226829  17.426  26.683  13.288 -0.1950 -0.0044  0.2781
 2287DOPE   C1A26830  17.614  26.537  13.789  0.0775  0.1869  0.1601
 2287DOPE   D2A26831  17.813  26.882  14.020 -0.1833 -0.3555  0.1423
 2287DOPE   C3A26832  18.164  27.156  13.811  0.0438 -0.2530 -0.1339
 2287DOPE   C4A26833  18.604  27.423  13.819 -0.0112 -0.0546  0.2021
 2287DOPE   C1B26834  17.153  27.036  13.326  0.1355  0.0800 -0.1910
 2287DOPE   D2B26835  16.821  27.317  13.251 -0.0619 -0.0449  0.0115
 2287DOPE   C3B26836  16.657  27.553  13.624  0.0013 -0.1842  0.2746
 2287DOPE   C4B26837  16.743  27.566  14.058 -0.3506 -0.1942 -0.0002
 2288POSM   NC326838  13.129  30.751  11.387 -0.3603  0.3560 -0.3574
 2288POSM   PO426839  12.801  30.966  11.299 -0.0798  0.0083  0.1277
 2288POSM   AM126840  12.677  30.934  11.596  0.1798  0.1254  0.2414
 2288POSM   AM226841  12.735  31.056  11.825  0.4498 -0.1744  0.2669
 2288POSM   T1A26842  12.221  30.857  11.852 -0.0586  0.3632 -0.0279
 2288POSM   C2A26843  11.886  30.655  12.119 -0.3212  0.2868 -0.0758
 2288POSM   C3A26844  11.517  30.455  12.014 -0.1470  0.0874 -0.1118
 2288POSM   C1B26845  12.647  31.139  12.187  0.1896  0.1831  0.1201
 2288POSM   D2B26846  12.321  31.259  12.500  0.0570 -0.1131 -0.1841
 2288POSM   C3B26847  12.111  31.660  12.361 -0.0237  0.0336 -0.3428
 2288POSM   C4B26848  11.898  32.048  12.246  0.0590 -0.3322 -0.0318
 2289POSM   NC326849  16.142  31.228  11.942 -0.0431  0.0326 -0.1536
 2289POSM   PO426850  16.192  30.870  12.103  0.4129  0.0818  0.1563
 2289POSM   AM126851  15.926  30.708  12.022  0.2939 -0.1915  0.0943
 2289POSM   AM226852  15.646  30.644  12.092  0.0102 -0.1151 -0.0082
 2289POSM   T1A26853  15.773  30.255  11.804  0.0551  0.1685 -0.2549
 2289POSM   C2A26854  15.568  30.027  11.464  0.1914 -0.0872  0.0802
 2289POSM   C3A26855  15.371  29.600  11.316  0.0728 -0.1791 -0.2870
 2289POSM   C1B26856  15.579  30.399  12.246 -0.2989 -0.4110  0.2993
 2289POSM   D2B26857  15.874  30.078  12.435 -0.1129  0.0631 -0.0964
 2289POSM   C3B26858  15.782  29.650  12.421 -0.1035 -0.0143  0.1129
 2289POSM   C4B26859  15.943  29.268  12.167 -0.0838  0.2918  0.1592
 2290POSM   NC326860  14.753  29.644  11.435  0.2842  0.3223  0.0256
 2290POSM   PO426861  14.391  29.758  11.436  0.2748 -0.0994  0.1329
 2290POSM   AM126862  14.349  29.776  11.759 -0.1810 -0.3025 -0.0776
 2290POSM   AM226863  14.227  29.975  11.909  0.4076 -0.4991  0.1418
 2290POSM   T1A26864  14.382  29.640  12.260  0.0210  0.0978  0.1141
 2290POSM   C2A26865  14.481  29.646  12.764  0.1276 -0.1707  0.0590
 2290POSM   C3A26866  14.399  29.551  13.221  0.0879  0.1831  0.1127
 2290POSM   C1B26867  14.261  30.141  12.166  0.1700  0.3701  0.1051
 2290POSM   D2B26868  14.403  30.227  12.647  0.1799 -0.0479  0.3072
 2290POSM   C3B26869  14.201  30.177  13.026 -0.0173  0.0062  0.0093
 2290POSM   C4B26870  14.018  29.943  13.327  0.1865  0.1343 -0.0422
 2291DOPS   CNO26871  21.339  29.144  13.035  0.0516 -0.2770 -0.0306
 2291DOPS   PO426872  21.280  28.983  13.354  0.1249 -0.0250  0.0662
 2291DOPS   GL126873  21.391  28.796  13.700 -0.0709 -0.2321 -0.0665
 2291DOPS   GL226874  21.412  28.890  13.956 -0.2830 -0.0984  0.2292
 2291DOPS   C1A26875  21.560  28.398  13.863  0.1627  0.3134 -0.3822
 2291DOPS   D2A26876  21.492  27.928  13.955 -0.4072  0.0051 -0.3174
 2291DOPS   C3A26877  21.469  27.638  14.296 -0.0795  0.0398  0.0369
 2291DOPS   C4A26878  21.221  27.786  14.646  0.0712 -0.1997 -0.1278
 2291DOPS   C1B26879  21.233  28.571  14.210 -0.0301 -0.1349 -0.0071
 2291DOPS   D2B26880  21.190  28.175  14.227  0.3277 -0.1585  0.0024
 2291DOPS   C3B26881  20.755  28.067  14.255  0.1073 -0.2703 -0.0970
 2291DOPS   C4B26882  20.368  27.824  14.435  0.0301 -0.0200 -0.1515
 2292POSM   NC326883  18.084  23.914  11.988  0.1729  0.2115  0.0092
 2292POSM   PO426884  18.307  23.874  12.307  0.0736 -0.1193 -0.2477
 2292POSM   AM126885  18.300  24.174  12.455  0.3943  0.0440  0.0049
 2292POSM   AM226886  18.215  24.212  12.728 -0.0621 -0.1050  0.2080
 2292POSM   T1A26887  18.353  24.646  12.373  0.2467  0.3463  0.1148
 2292POSM   C2A26888  18.741  24.874  12.278 -0.0956 -0.1137  0.2785
 2292POSM   C3A26889  19.036  25.240  12.201  0.3013  0.0542  0.2694
 2292POSM   C1B26890  18.133  24.308  13.066  0.1613  0.2014 -0.1094
 2292POSM   D2B26891  18.023  24.240  13.497  0.1016  0.0626 -0.1599
 2292POSM   C3B26892  17.809  23.942  13.723 -0.1942  0.4172 -0.0740
 2292POSM   C4B26893  17.775  23.910  14.185  0.0806 -0.4098 -0.1063
 2293DOPE   NH326894  23.522  27.189  13.229  0.1753  0.2689 -0.0769
 2293DOPE   PO426895  23.246  27.152  13.354 -0.1852 -0.2039  0.2329
 2293DOPE   GL126896  22.939  27.157  13.650 -0.0637 -0.3606 -0.4107
 2293DOPE   GL226897  22.788  27.342  13.492  0.0369 -0.1077 -0.0698
 2293DOPE   C1A26898  22.668  26.947  13.959  0.0343 -0.1893 -0.1559
 2293DOPE   D2A26899  22.240  26.791  14.113 -0.1165 -0.1571  0.1075
 2293DOPE   C3A26900  22.107  26.412  14.418 -0.1213  0.1125 -0.1497
 2293DOPE   C4A26901  21.880  26.143  14.683 -0.2485  0.0648 -0.4124
 2293DOPE   C1B26902  22.499  27.375  13.854 -0.0079  0.0366 -0.0941
 2293DOPE   D2B26903  22.413  27.637  14.236 -0.3416 -0.2843 -0.4687
 2293DOPE   C3B26904  22.802  27.794  14.276  0.0295  0.0042  0.1820
 2293DOPE   C4B26905  23.271  27.785  14.360  0.1031 -0.1247 -0.3864
 2294DOPE   NH326906  22.164  34.226  13.170 -0.0133  0.1570 -0.1255
 2294DOPE   PO426907  22.031  34.289  13.419  0.1716  0.2159 -0.0741
 2294DOPE   GL126908  22.277  34.215  13.662  0.3063 -0.2132 -0.1795
 2294DOPE   GL226909  22.268  33.932  13.730 -0.0181  0.2447 -0.1236
 2294DOPE   C1A26910  22.475  34.246  14.085 -0.0217  0.1731  0.1909
 2294DOPE   D2A26911  22.766  34.226  14.508  0.0415 -0.2095  0.3791
 2294DOPE   C3A26912  22.632  33.890  14.803 -0.3042  0.1232  0.1248
 2294DOPE   C4A26913  22.507  33.462  14.929  0.0894 -0.4052  0.0789
 2294DOPE   C1B26914  22.347  33.773  14.160 -0.0457  0.2364 -0.0917
 2294DOPE   D2B26915  22.153  33.519  14.558 -0.1687  0.2127 -0.0007
 2294DOPE   C3B26916  22.242  33.092  14.403  0.1907 -0.2431 -0.0685
 2294DOPE   C4B26917  22.141  32.786  14.119  0.1455 -0.0411  0.1996
 2295DOPE   NH326918  17.384  30.772  12.411 -0.0314 -0.0339  0.1040
 2295DOPE   PO426919  17.287  30.665  12.709 -0.2988 -0.1827  0.0056
 2295DOPE   GL126920  17.297  30.697  13.018  0.1553  0.0064 -0.0976
 2295DOPE   GL226921  17.585  30.741  13.187 -0.0968  0.1132  0.0022
 2295DOPE   C1A26922  16.855  30.494  13.211  0.0587 -0.2169 -0.0018
 2295DOPE   D2A26923  16.476  30.254  13.239  0.0391  0.3087  0.0506
 2295DOPE   C3A26924  16.555  30.052  13.642  0.0779 -0.2287 -0.0862
 2295DOPE   C4A26925  16.695  29.726  13.987  0.2097  0.0514  0.0111
 2295DOPE   C1B26926  17.330  30.494  13.437 -0.0890 -0.2408  0.0432
 2295DOPE   D2B26927  17.045  30.111  13.432  0.1799  0.3590 -0.0982
 2295DOPE   C3B26928  17.067  29.665  13.644  0.0165  0.1179 -0.2161
 2295DOPE   C4B26929  16.912  29.291  13.874 -0.4306  0.5152  0.0112
 2296DOPE   NH326930  13.438  25.897  11.391 -0.2866 -0.0891  0.0715
 2296DOPE   PO426931  13.364  25.756  11.700  0.2425  0.1647  0.4091
 2296DOPE   GL126932  13.253  25.997  11.919 -0.0306  0.0041  0.0806
 2296DOPE   GL226933  13.013  25.909  12.074  0.1081 -0.2630 -0.2447
 2296DOPE   C1A26934  13.415  26.143  12.356  0.4097  0.1482 -0.0920
 2296DOPE   D2A26935  13.613  26.229  12.772  0.0459 -0.0536  0.3001
 2296DOPE   C3A26936  14.107  26.322  12.810  0.0611  0.1209  0.0171
 2296DOPE   C4A26937  14.419  26.617  12.975  0.0741  0.1087 -0.1919
 2296DOPE   C1B26938  12.814  25.520  11.870  0.1144  0.0836 -0.2559
 2296DOPE   D2B26939  12.757  25.115  12.088  0.2412 -0.2018 -0.1462
 2296DOPE   C3B26940  12.279  25.064  12.042  0.1861  0.2764  0.3844
 2296DOPE   C4B26941  11.922  25.068  12.275 -0.3638 -0.0130  0.4078
 2297POSM   NC326942  11.937  26.792  11.331  0.3861  0.2741 -0.3561
 2297POSM   PO426943  12.271  26.976  11.322 -0.3324 -0.0645 -0.2150
 2297POSM   AM126944  12.388  26.700  11.454  0.1515  0.5954  0.1247
 2297POSM   AM226945  12.484  26.644  11.709  0.2553 -0.1885 -0.0234
 2297POSM   T1A26946  12.204  26.260  11.641  0.3280 -0.1391 -0.0981
 2297POSM   C2A26947  12.046  25.922  11.836  0.4519  0.0145  0.1221
 2297POSM   C3A26948  12.061  25.650  12.166 -0.2318 -0.3684  0.2455
 2297POSM   C1B26949  12.808  26.716  11.887 -0.1132  0.1566 -0.0702
 2297POSM   D2B26950  13.063  26.484  12.206 -0.0150  0.2544 -0.2842
 2297POSM   C3B26951  13.306  26.628  12.545  0.3477 -0.1798  0.1565
 2297POSM   C4B26952  13.468  26.949  12.872 -0.0668  0.1453  0.1250
 2298DOPC   NC326953  22.971  32.046  12.951  0.2360 -0.0809 -0.5934
 2298DOPC   PO426954  23.184  31.758  13.053  0.0572 -0.0613 -0.0468
 2298DOPC   GL126955  22.859  31.694  13.219  0.2088  0.0761  0.0986
 2298DOPC   GL226956  22.644  31.653  13.022 -0.3660  0.1650 -0.2622
 2298DOPC   C1A26957  22.601  31.790  13.568  0.2054 -0.1956  0.0315
 2298DOPC   D2A26958  22.363  31.797  13.972  0.1301 -0.0788 -0.4265
 2298DOPC   C3A26959  22.622  31.588  14.316 -0.1418  0.0746 -0.0473
 2298DOPC   C4A26960  23.043  31.675  14.510  0.0704 -0.3000  0.0373
 2298DOPC   C1B26961  22.392  32.013  13.175 -0.0781 -0.0265 -0.0957
 2298DOPC   D2B26962  22.306  32.195  13.616 -0.0114 -0.1065 -0.0868
 2298DOPC   C3B26963  21.924  32.476  13.629  0.2737 -0.0500  0.3061
 2298DOPC   C4B26964  21.993  32.911  13.570  0.0762  0.0697  0.0433
 2299DOPC   NC326965  18.347  33.254  12.913  0.0216 -0.1294  0.0050
 2299DOPC   PO426966  18.154  32.919  12.961  0.1830  0.3671  0.1399
 2299DOPC   GL126967  17.799  32.977  13.189  0.2349 -0.3643 -0.1055
 2299DOPC   GL226968  17.889  32.948  13.374  0.3443  0.1644  0.4108
 2299DOPC   C1A26969  17.346  33.022  13.268 -0.0971 -0.3569  0.4208
 2299DOPC   D2A26970  16.972  32.836  13.401 -0.1471  0.1701 -0.1579
 2299DOPC   C3A26971  16.527  32.752  13.301  0.2181  0.1500 -0.0678
 2299DOPC   C4A26972  16.132  32.864  13.068 -0.0841  0.1609  0.2359
 2299DOPC   C1B26973  17.617  32.613  13.363  0.2003 -0.0829  0.0477
 2299DOPC   D2B26974  17.556  32.171  13.429  0.3669 -0.2069  0.1631
 2299DOPC   C3B26975  17.641  31.863  13.826  0.0218  0.0799 -0.1600
 2299DOPC   C4B26976  18.050  31.684  14.029  0.0054 -0.0113  0.1173
 2300POSM   NC326977  13.926  28.528  11.513  0.0859 -0.0950 -0.0699
 2300POSM   PO426978  13.659  28.706  11.325  0.1603 -0.1424  0.0080
 2300POSM   AM126979  13.491  28.497  11.530 -0.0561  0.3661  0.0140
 2300POSM   AM226980  13.461  28.433  11.788  0.2690 -0.3595  0.0606
 2300POSM   T1A26981  13.026  28.559  11.765 -0.2517  0.2522  0.1552
 2300POSM   C2A26982  12.573  28.607  11.883  0.0060 -0.2145  0.2051
 2300POSM   C3A26983  12.164  28.481  11.837  0.2884 -0.1085 -0.2306
 2300POSM   C1B26984  13.395  28.606  12.082  0.1308  0.0099  0.2635
 2300POSM   D2B26985  13.310  28.935  12.450  0.0393 -0.0628 -0.0748
 2300POSM   C3B26986  12.869  29.109  12.520 -0.0219 -0.0110 -0.0312
 2300POSM   C4B26987  12.472  29.303  12.615 -0.0780  0.0317  0.2102
 2301POSM   NC326988  21.212  29.491  13.350  0.0702  0.0214  0.0784
 2301POSM   PO426989  20.830  29.588  13.373 -0.0735 -0.2194 -0.0373
 2301POSM   AM126990  20.785  29.632  13.717 -0.2509  0.0335 -0.2791
 2301POSM   AM226991  20.608  29.791  13.874  0.1291  0.2982 -0.2016
 2301POSM   T1A26992  20.567  29.317  14.045  0.0704  0.0775  0.1674
 2301POSM   C2A26993  20.493  29.029  14.335  0.2192  0.0064 -0.2303
 2301POSM   C3A26994  20.678  28.612  14.287  0.0556  0.2324 -0.1814
 2301POSM   C1B26995  20.558  29.874  14.173 -0.2350 -0.0096 -0.1258
 2301POSM   D2B26996  20.485  29.855  14.582  0.3590  0.1936  0.1486
 2301POSM   C3B26997  20.024  29.805  14.655  0.0514  0.3257 -0.0110
 2301POSM   C4B26998  19.537  29.815  14.571 -0.2077  0.1365 -0.1905
 2302DOPS   CNO26999  19.607  26.056  12.397 -0.1215  0.0203 -0.2516
 2302DOPS   PO427000  19.776  25.953  12.716 -0.1529  0.2270 -0.1165
 2302DOPS   GL127001  19.956  26.011  12.998 -0.2795 -0.2096  0.1184
 2302DOPS   GL227002  20.161  26.270  13.024  0.1289 -0.1454  0.0805
 2302DOPS   C1A27003  20.062  26.031  13.463 -0.2307 -0.0598  0.0760
 2302DOPS   D2A27004  20.177  25.625  13.632  0.0587  0.1337  0.2163
 2302DOPS   C3A27005  19.835  25.525  13.933 -0.1331 -0.2021  0.0108
 2302DOPS   C4A27006  19.462  25.566  14.208 -0.0916 -0.1273  0.1715
 2302DOPS   C1B27007  20.467  26.216  13.321  0.0933  0.4019 -0.0906
 2302DOPS   D2B27008  20.947  26.403  13.175  0.1757 -0.2705  0.0792
 2302DOPS   C3B27009  21.328  26.108  13.228  0.2290 -0.5264 -0.3196
 2302DOPS   C4B27010  21.620  25.849  12.945  0.2450  0.1543  0.1280
 2303DOPE   NH327011  19.757  30.572  12.406  0.2339 -0.0395  0.0444
 2303DOPE   PO427012  19.885  30.441  12.673 -0.1213 -0.3981  0.0148
 2303DOPE   GL127013  19.990  30.634  12.971 -0.0838 -0.0040 -0.0816
 2303DOPE   GL227014  20.221  30.625  13.107  0.0446 -0.1310 -0.2832
 2303DOPE   C1A27015  19.931  31.078  13.131 -0.2429  0.0061  0.3005
 2303DOPE   D2A27016  19.791  31.483  13.345 -0.0758  0.0383  0.0414
 2303DOPE   C3A27017  19.654  31.395  13.745 -0.0691  0.0634 -0.1604
 2303DOPE   C4A27018  19.922  31.289  14.143 -0.0260  0.1704  0.0535
 2303DOPE   C1B27019  20.583  30.919  13.221 -0.0120 -0.3822  0.3022
 2303DOPE   D2B27020  20.933  31.234  13.242  0.0976 -0.2362 -0.1288
 2303DOPE   C3B27021  20.832  31.712  13.232  0.3384 -0.1050 -0.4357
 2303DOPE   C4B27022  20.725  31.845  12.868 -0.2488 -0.0482  0.1233
 2304DOPC   NC327023  19.795  29.169  12.507  0.1661 -0.1684  0.0491
 2304DOPC   PO427024  19.841  28.786  12.517 -0.1900  0.2167  0.1384
 2304DOPC   GL127025  19.820  28.390  12.635  0.0864  0.2437  0.1781
 2304DOPC   GL227026  19.670  28.395  12.942 -0.1769 -0.0747 -0.0061
 2304DOPC   C1A27027  19.632  27.985  12.639  0.0283  0.0943 -0.2267
 2304DOPC   D2A27028  19.390  27.675  12.758  0.0170 -0.0925  0.0234
 2304DOPC   C3A27029  19.045  27.672  13.076  0.0303  0.0169 -0.1603
 2304DOPC   C4A27030  18.783  27.688  13.454 -0.2411  0.3786 -0.3983
 2304DOPC   C1B27031  19.198  28.244  12.942  0.0197 -0.0614 -0.1607
 2304DOPC   D2B27032  18.788  28.408  12.939  0.1154  0.0560 -0.1253
 2304DOPC   C3B27033  18.607  28.232  13.312 -0.0068  0.1423  0.1852
 2304DOPC   C4B27034  18.288  27.872  13.358 -0.0803  0.4063  0.2295
 2305DOPC   NC327035  17.206  30.877  11.900  0.0520  0.1752  0.0721
 2305DOPC   PO427036  17.120  31.091  12.201  0.0237 -0.1375  0.0791
 2305DOPC   GL127037  16.963  31.253  12.561 -0.0835  0.1851  0.1649
 2305DOPC   GL227038  16.955  31.055  12.750 -0.0343 -0.1566  0.2099
 2305DOPC   C1A27039  16.664  31.542  12.746  0.2673  0.1896 -0.2307
 2305DOPC   D2A27040  16.578  31.879  13.041 -0.2584 -0.1720  0.1934
 2305DOPC   C3A27041  16.615  31.826  13.494  0.1592  0.2824 -0.1599
 2305DOPC   C4A27042  16.740  31.779  13.925 -0.2107 -0.0807  0.0714
 2305DOPC   C1B27043  16.987  31.004  13.196  0.0240  0.1881 -0.1303
 2305DOPC   D2B27044  16.730  30.951  13.587  0.2451 -0.1879 -0.0124
 2305DOPC   C3B27045  16.737  30.544  13.712 -0.1573  0.4792  0.1970
 2305DOPC   C4B27046  17.012  30.216  13.902  0.5204 -0.2676  0.1437
 2306DOPC   NC327047  15.479  32.491  12.030 -0.1120 -0.3974 -0.0266
 2306DOPC   PO427048  15.620  32.479  11.686  0.1840 -0.2064 -0.0202
 2306DOPC   GL127049  15.876  32.797  11.922 -0.1681  0.0558 -0.5664
 2306DOPC   GL227050  15.666  32.976  11.929  0.0066  0.1038  0.0682
 2306DOPC   C1A27051  16.244  33.090  11.759 -0.1094 -0.3054  0.0370
 2306DOPC   D2A27052  16.570  33.314  11.494 -0.0692 -0.0496 -0.2791
 2306DOPC   C3A27053  16.813  33.665  11.637  0.3217  0.0217  0.0860
 2306DOPC   C4A27054  17.292  33.619  11.549  0.0278 -0.2025  0.1176
 2306DOPC   C1B27055  15.984  33.137  12.209  0.2290  0.0746  0.1437
 2306DOPC   D2B27056  15.935  33.261  12.720  0.0117 -0.3180 -0.1259
 2306DOPC   C3B27057  16.252  33.534  12.999  0.2683 -0.2557 -0.2450
 2306DOPC   C4B27058  16.523  33.933  13.076 -0.0382  0.1687 -0.0325
 2307DOPE   NH327059  19.110  24.523  12.401  0.1734 -0.0399 -0.1512
 2307DOPE   PO427060  19.246  24.326  12.609 -0.3450 -0.4332 -0.0323
 2307DOPE   GL127061  19.539  24.319  12.851 -0.2043 -0.2411 -0.0870
 2307DOPE   GL227062  19.542  23.989  12.817 -0.3914 -0.2272  0.0942
 2307DOPE   C1A27063  19.466  24.349  13.292 -0.3048  0.1663  0.1193
 2307DOPE   D2A27064  19.631  24.588  13.620 -0.1931 -0.0553  0.2702
 2307DOPE   C3A27065  19.588  24.240  13.922  0.0864 -0.1153  0.0799
 2307DOPE   C4A27066  19.419  24.025  14.335  0.2441 -0.0171  0.0450
 2307DOPE   C1B27067  19.817  23.751  13.105 -0.4064 -0.1463 -0.0992
 2307DOPE   D2B27068  20.214  23.698  13.326  0.1145  0.1519 -0.0605
 2307DOPE   C3B27069  20.400  23.926  13.705 -0.0000 -0.4608 -0.1087
 2307DOPE   C4B27070  20.814  23.734  13.796 -0.0651 -0.1107 -0.1229
 2308DOPC   NC327071  22.470  30.830  13.690 -0.2948  0.2282  0.1175
 2308DOPC   PO427072  22.324  30.442  13.607 -0.0729  0.0714  0.0454
 2308DOPC   GL127073  22.064  30.619  13.866  0.0425 -0.2371 -0.0556
 2308DOPC   GL227074  21.746  30.542  13.859  0.1159 -0.1440  0.2081
 2308DOPC   C1A27075  21.941  30.520  14.337  0.1736 -0.0362 -0.0503
 2308DOPC   D2A27076  21.780  30.517  14.780 -0.0402 -0.1048 -0.1499
 2308DOPC   C3A27077  21.883  30.540  15.243 -0.0437  0.1434  0.2069
 2308DOPC   C4A27078  21.906  30.620  15.706  0.1316 -0.1198 -0.0446
 2308DOPC   C1B27079  21.691  30.911  14.192 -0.1583 -0.2140  0.2546
 2308DOPC   D2B27080  21.412  31.174  14.374  0.1286  0.0554 -0.2007
 2308DOPC   C3B27081  20.926  31.145  14.343 -0.1748 -0.1431 -0.1086
 2308DOPC   C4B27082  20.620  31.286  14.680  0.1606 -0.1742  0.1586
 2309POSM   NC327083  15.508  26.841  11.910  0.1363  0.0480 -0.1679
 2309POSM   PO427084  15.454  27.252  11.970 -0.0536 -0.0023 -0.1635
 2309POSM   AM127085  15.460  27.491  12.204 -0.4032  0.0488 -0.2333
 2309POSM   AM227086  15.256  27.647  12.333  0.3120  0.1341 -0.0092
 2309POSM   T1A27087  15.571  27.540  12.738 -0.2527 -0.0985 -0.0638
 2309POSM   C2A27088  15.811  27.661  13.143 -0.2194  0.1558  0.4612
 2309POSM   C3A27089  15.945  27.500  13.566 -0.2565  0.1379 -0.0677
 2309POSM   C1B27090  15.135  27.348  12.555  0.0378  0.0396 -0.1101
 2309POSM   D2B27091  15.291  27.127  12.952  0.0975 -0.1212 -0.0898
 2309POSM   C3B27092  15.047  26.824  13.191  0.2220  0.1550 -0.1875
 2309POSM   C4B27093  14.883  26.883  13.583 -0.0757  0.2688  0.2625
 2310DOPS   CNO27094  13.556  24.221  11.195  0.0842 -0.1385 -0.1197
 2310DOPS   PO427095  13.841  23.976  11.301 -0.1042  0.0387 -0.2093
 2310DOPS   GL127096  13.912  23.650  11.313 -0.3433  0.2183 -0.2783
 2310DOPS   GL227097  14.111  23.445  11.295  0.5041  0.0986  0.0707
 2310DOPS   C1A27098  13.662  23.230  11.217 -0.0472 -0.0180 -0.0989
 2310DOPS   D2A27099  13.714  22.775  11.345 -0.0068  0.0727  0.0805
 2310DOPS   C3A27100  13.571  22.358  11.141  0.2386 -0.0472  0.1323
 2310DOPS   C4A27101  13.572  21.905  11.376 -0.0516 -0.0107 -0.0858
 2310DOPS   C1B27102  14.540  23.298  11.531 -0.1304 -0.0138  0.2331
 2310DOPS   D2B27103  14.603  22.939  11.872 -0.0284  0.2217  0.1085
 2310DOPS   C3B27104  14.687  23.069  12.335 -0.3488 -0.1047  0.0690
 2310DOPS   C4B27105  15.030  23.037  12.584  0.1266  0.1293 -0.0719
 2311DOPE   NH327106  14.060  29.414  11.355  0.1635  0.3904  0.1028
 2311DOPE   PO427107  13.841  29.631  11.321 -0.0774  0.0575  0.0305
 2311DOPE   GL127108  13.701  29.572  11.703  0.2368 -0.0896 -0.1664
 2311DOPE   GL227109  13.919  29.467  11.853  0.1539 -0.1056  0.2212
 2311DOPE   C1A27110  13.360  29.361  11.804 -0.0445  0.0583 -0.0617
 2311DOPE   D2A27111  12.982  29.141  11.955 -0.1589  0.1697  0.0151
 2311DOPE   C3A27112  12.667  29.119  11.677 -0.1449  0.1745 -0.2970
 2311DOPE   C4A27113  12.209  28.998  11.788 -0.0207 -0.0277  0.2015
 2311DOPE   C1B27114  13.896  29.737  12.234  0.1174 -0.1493  0.0603
 2311DOPE   D2B27115  13.923  29.976  12.609 -0.0133  0.0935 -0.0158
 2311DOPE   C3B27116  13.688  29.891  12.973  0.0217  0.0434  0.1068
 2311DOPE   C4B27117  13.276  29.865  13.151 -0.0034  0.0632 -0.0921
 2312POSM   NC327118  11.374  25.622  11.433  0.2435 -0.1235 -0.1962
 2312POSM   PO427119  11.528  25.895  11.714 -0.4114 -0.3532  0.3005
 2312POSM   AM127120  11.568  25.927  12.019 -0.1736  0.1137 -0.0916
 2312POSM   AM227121  11.558  25.697  12.215 -0.1363 -0.2292 -0.1639
 2312POSM   T1A27122  11.878  26.130  12.337 -0.2391 -0.0981 -0.0604
 2312POSM   C2A27123  12.297  25.966  12.503  0.1225 -0.1750  0.0015
 2312POSM   C3A27124  12.745  26.028  12.493 -0.0669  0.0091 -0.0165
 2312POSM   C1B27125  11.445  25.479  12.456  0.2913  0.1515 -0.0375
 2312POSM   D2B27126  11.329  25.320  12.875  0.1667  0.0470 -0.0524
 2312POSM   C3B27127  11.740  25.093  12.929 -0.1625 -0.1640  0.1038
 2312POSM   C4B27128  12.172  25.090  12.668 -0.2605 -0.1388  0.1395
 2313DOPC   NC327129  18.408  30.235  12.159 -0.0936  0.4362 -0.1811
 2313DOPC   PO427130  18.126  29.974  12.084  0.0099 -0.0234  0.0035
 2313DOPC   GL127131  18.168  29.551  12.088  0.2684 -0.0357  0.0596
 2313DOPC   GL227132  18.235  29.261  12.344 -0.0768  0.0530 -0.1641
 2313DOPC   C1A27133  17.855  29.207  12.024 -0.4010 -0.0531  0.0762
 2313DOPC   D2A27134  17.900  28.770  12.153 -0.1809  0.2771 -0.1427
 2313DOPC   C3A27135  17.871  28.400  12.464  0.0676  0.1339 -0.0582
 2313DOPC   C4A27136  17.582  28.065  12.584  0.0014 -0.0470  0.0270
 2313DOPC   C1B27137  17.908  29.014  12.579  0.0585 -0.1525 -0.0087
 2313DOPC   D2B27138  17.849  28.719  12.924  0.1975  0.2314 -0.1493
 2313DOPC   C3B27139  17.972  28.365  13.167  0.2505 -0.1657 -0.2230
 2313DOPC   C4B27140  17.895  28.157  13.587  0.1805 -0.0840 -0.0206
 2314DOPS   CNO27141  13.897  24.647  11.150 -0.0109 -0.1734  0.0428
 2314DOPS   PO427142  13.987  24.513  11.481  0.2667  0.1248  0.0399
 2314DOPS   GL127143  14.060  24.641  11.910  0.2246  0.5531 -0.0620
 2314DOPS   GL227144  13.902  24.490  11.995 -0.1562 -0.0058  0.2450
 2314DOPS   C1A27145  14.259  24.943  12.223 -0.0257 -0.3091 -0.4804
 2314DOPS   D2A27146  14.251  24.969  12.673  0.2268 -0.0268  0.2511
 2314DOPS   C3A27147  14.072  24.550  12.777  0.0594  0.1098 -0.1477
 2314DOPS   C4A27148  14.224  24.167  12.845  0.3471 -0.0049  0.2536
 2314DOPS   C1B27149  14.277  24.430  12.313 -0.1726 -0.0805  0.0020
 2314DOPS   D2B27150  14.606  24.495  12.682  0.3747  0.0167 -0.0602
 2314DOPS   C3B27151  14.684  24.190  13.080 -0.1634  0.1781 -0.0395
 2314DOPS   C4B27152  14.535  23.740  13.051  0.2193  0.1171  0.1782
 2315DOPC   NC327153  13.960  28.223  11.995  0.0825 -0.4232  0.2487
 2315DOPC   PO427154  13.773  28.043  11.666 -0.1856 -0.0827 -0.0312
 2315DOPC   GL127155  13.767  27.800  12.021  0.2468 -0.2326 -0.4112
 2315DOPC   GL227156  13.867  27.553  11.851  0.0536  0.2317 -0.0049
 2315DOPC   C1A27157  13.507  28.072  12.360  0.1143  0.0812  0.1678
 2315DOPC   D2A27158  13.178  28.402  12.509  0.1728 -0.0244 -0.0028
 2315DOPC   C3A27159  12.898  28.664  12.239 -0.2724  0.0275  0.0875
 2315DOPC   C4A27160  12.455  28.934  12.251  0.0415 -0.0351  0.6055
 2315DOPC   C1B27161  13.764  27.306  12.287 -0.0686 -0.0354 -0.0368
 2315DOPC   D2B27162  14.060  27.215  12.658 -0.1371 -0.1523 -0.1248
 2315DOPC   C3B27163  14.294  27.409  13.031  0.2033  0.0620 -0.0146
 2315DOPC   C4B27164  14.333  27.538  13.493  0.1984 -0.1539 -0.1793
 2316DOPC   NC327165  17.293  26.323  12.826 -0.0958  0.0446 -0.2651
 2316DOPC   PO427166  17.313  26.704  12.801 -0.2449  0.1934  0.0992
 2316DOPC   GL127167  16.905  26.850  12.968 -0.0355 -0.0665  0.3031
 2316DOPC   GL227168  16.962  27.068  12.838  0.0848  0.2444 -0.2107
 2316DOPC   C1A27169  16.606  26.875  13.284 -0.1209 -0.3095  0.1702
 2316DOPC   D2A27170  16.566  26.665  13.682 -0.0010  0.2089 -0.1654
 2316DOPC   C3A27171  16.674  26.773  14.117  0.4428  0.1338  0.1500
 2316DOPC   C4A27172  17.037  26.801  14.409  0.2530 -0.2961 -0.0358
 2316DOPC   C1B27173  16.526  27.140  12.842 -0.1926  0.0019 -0.0614
 2316DOPC   D2B27174  16.267  27.490  13.094 -0.1366 -0.1099 -0.2781
 2316DOPC   C3B27175  16.149  27.139  13.343 -0.0734 -0.1093 -0.0642
 2316DOPC   C4B27176  16.064  26.808  13.765 -0.0681 -0.1277  0.0344
 2317DOPE   NH327177  18.882  26.245  13.011  0.0073 -0.3225 -0.1532
 2317DOPE   PO427178  18.751  26.226  12.751  0.0992  0.2636  0.1690
 2317DOPE   GL127179  18.478  25.983  13.029 -0.0637 -0.5454 -0.4285
 2317DOPE   GL227180  18.592  25.773  12.980 -0.3723  0.1408 -0.0026
 2317DOPE   C1A27181  18.665  25.956  13.474 -0.0912 -0.0804 -0.4066
 2317DOPE   D2A27182  18.725  26.045  13.937  0.1199 -0.0299  0.5167
 2317DOPE   C3A27183  18.489  25.792  14.205  0.0756  0.2221 -0.2372
 2317DOPE   C4A27184  18.101  25.775  14.463 -0.0475  0.1244 -0.0312
 2317DOPE   C1B27185  18.336  25.616  13.363  0.2122 -0.0424  0.1963
 2317DOPE   D2B27186  18.621  25.499  13.721 -0.2332 -0.3653 -0.1410
 2317DOPE   C3B27187  19.015  25.679  13.848  0.0623  0.1754  0.0026
 2317DOPE   C4B27188  19.372  25.926  13.828 -0.3512 -0.0568 -0.2180
 2318DOPC   NC327189  12.906  26.491  11.153 -0.0998 -0.3677 -0.3059
 2318DOPC   PO427190  13.029  26.105  11.163 -0.0888  0.0043  0.0898
 2318DOPC   GL127191  13.285  26.422  11.424  0.0172  0.0754 -0.0223
 2318DOPC   GL227192  13.355  26.383  11.739  0.2361 -0.0631  0.3192
 2318DOPC   C1A27193  13.656  26.676  11.494  0.2266  0.0051 -0.1870
 2318DOPC   D2A27194  14.072  26.580  11.659 -0.0207  0.2787 -0.1809
 2318DOPC   C3A27195  14.174  26.369  12.077 -0.0616 -0.1376 -0.0189
 2318DOPC   C4A27196  13.972  26.169  12.362 -0.1962 -0.0003  0.0142
 2318DOPC   C1B27197  13.615  26.663  12.027  0.1678  0.2984 -0.1053
 2318DOPC   D2B27198  13.983  26.871  12.242  0.0722  0.0264 -0.0091
 2318DOPC   C3B27199  14.349  26.716  12.434  0.1353 -0.0086 -0.2358
 2318DOPC   C4B27200  14.797  26.544  12.440 -0.1982  0.0403 -0.0255
 2319DOPC   NC327201  18.925  33.588  12.403 -0.1886  0.0913 -0.1407
 2319DOPC   PO427202  18.751  33.962  12.390  0.0069  0.2095 -0.0400
 2319DOPC   GL127203  19.040  34.137  12.648 -0.2802  0.1593 -0.3055
 2319DOPC   GL227204  19.295  34.201  12.422  0.1248 -0.3056 -0.0645
 2319DOPC   C1A27205  19.370  33.934  12.905 -0.1917 -0.0408  0.2283
 2319DOPC   D2A27206  19.374  34.022  13.387  0.1941 -0.4300 -0.2848
 2319DOPC   C3A27207  19.041  33.934  13.712  0.0084  0.0943 -0.2191
 2319DOPC   C4A27208  19.004  33.786  14.176 -0.2055  0.1754  0.1383
 2319DOPC   C1B27209  19.607  34.411  12.703 -0.2603  0.1897 -0.1190
 2319DOPC   D2B27210  19.714  34.733  12.942 -0.0507  0.2590  0.0339
 2319DOPC   C3B27211  19.821  34.699  13.412  0.0011  0.0968 -0.0516
 2319DOPC   C4B27212  20.127  34.470  13.684  0.1435 -0.3055  0.2327
 2320POSM   NC327213  17.963  33.010  12.316  0.2133 -0.1363 -0.0489
 2320POSM   PO427214  17.766  33.255  12.053 -0.0136  0.0738  0.2226
 2320POSM   AM127215  17.463  33.336  12.108  0.2015 -0.2482 -0.1211
 2320POSM   AM227216  17.223  33.559  12.063 -0.0713  0.0636 -0.1133
 2320POSM   T1A27217  17.090  33.074  12.178 -0.0797 -0.1923  0.0936
 2320POSM   C2A27218  16.763  32.909  12.451 -0.0219  0.3014  0.1887
 2320POSM   C3A27219  16.529  33.133  12.780 -0.0679 -0.0042 -0.1043
 2320POSM   C1B27220  16.966  33.603  12.219  0.1267  0.1894 -0.1368
 2320POSM   D2B27221  16.631  33.544  12.506  0.1308 -0.0216 -0.2722
 2320POSM   C3B27222  16.188  33.721  12.511 -0.1038  0.0112  0.2511
 2320POSM   C4B27223  15.873  34.032  12.412 -0.1217  0.0051 -0.0228
 2321DOPE   NH327224  17.536  26.489  12.418 -0.2336 -0.2476  0.1953
 2321DOPE   PO427225  17.657  26.812  12.453 -0.1278  0.0325 -0.0745
 2321DOPE   GL127226  17.726  27.117  12.641 -0.2326 -0.1569  0.1698
 2321DOPE   GL227227  17.616  27.240  12.898 -0.2001  0.0400 -0.0269
 2321DOPE   C1A27228  17.797  27.599  12.599 -0.2765 -0.0184 -0.0537
 2321DOPE   D2A27229  18.141  27.815  12.454  0.0210  0.3669 -0.0747
 2321DOPE   C3A27230  18.223  28.198  12.141 -0.0187 -0.3177  0.1243
 2321DOPE   C4A27231  18.300  28.263  11.659  0.0401  0.4017  0.0566
 2321DOPE   C1B27232  17.406  27.472  13.187 -0.0653  0.0679 -0.2114
 2321DOPE   D2B27233  17.200  27.544  13.605  0.0498  0.0852  0.0992
 2321DOPE   C3B27234  17.011  27.171  13.835 -0.1276  0.0189  0.2048
 2321DOPE   C4B27235  17.151  26.732  13.760  0.2949 -0.0672  0.1237
 2322DOPS   CNO27236  17.065  26.553  11.777  0.0080 -0.1302 -0.1929
 2322DOPS   PO427237  17.256  26.709  12.068  0.0473  0.4911  0.1365
 2322DOPS   GL127238  17.111  27.008  12.315  0.0439 -0.0807 -0.0162
 2322DOPS   GL227239  17.357  27.171  12.309 -0.0043 -0.2077 -0.1447
 2322DOPS   C1A27240  16.807  27.366  12.334 -0.0572 -0.0431 -0.5809
 2322DOPS   D2A27241  16.628  27.750  12.556  0.0040  0.0383  0.1475
 2322DOPS   C3A27242  16.277  27.831  12.258  0.0634 -0.0651 -0.0206
 2322DOPS   C4A27243  15.816  27.739  12.152 -0.0339 -0.0127 -0.0492
 2322DOPS   C1B27244  17.213  27.470  12.689  0.1163  0.2137 -0.2558
 2322DOPS   D2B27245  17.126  27.843  12.949  0.3701  0.0698  0.0966
 2322DOPS   C3B27246  16.670  27.961  13.096  0.0721 -0.0418  0.3393
 2322DOPS   C4B27247  16.208  27.931  13.265  0.1073  0.0315 -0.0046
 2323DOPC   NC327248  14.828  34.405  11.741 -0.4944 -0.1892 -0.0294
 2323DOPC   PO427249  15.045  34.144  11.613 -0.2863  0.1029 -0.2099
 2323DOPC   GL127250  15.465  34.009  11.865 -0.4969  0.1860  0.0547
 2323DOPC   GL227251  15.333  33.777  11.946  0.1245 -0.2549  0.1721
 2323DOPC   C1A27252  15.988  34.073  11.857  0.1907  0.0315  0.3110
 2323DOPC   D2A27253  16.420  34.321  11.914 -0.0404 -0.0562 -0.1484
 2323DOPC   C3A27254  16.339  34.264  12.366  0.0839 -0.2276  0.1109
 2323DOPC   C4A27255  16.661  34.359  12.721  0.0082  0.1750  0.0447
 2323DOPC   C1B27256  15.280  34.004  12.350  0.0639 -0.2718  0.0084
 2323DOPC   D2B27257  15.444  33.938  12.782 -0.3048  0.2811  0.5056
 2323DOPC   C3B27258  15.867  34.032  12.925  0.6366 -0.0980 -0.1299
 2323DOPC   C4B27259  16.101  34.337  13.182  0.0964  0.3860  0.3432
 2324DOPE   NH327260  11.287  26.726  11.832  0.0018 -0.1219 -0.1099
 2324DOPE   PO427261  11.487  26.919  11.664 -0.2721 -0.1534 -0.0441
 2324DOPE   GL127262  11.713  26.949  11.926  0.1460  0.4240 -0.0079
 2324DOPE   GL227263  12.003  26.859  11.790 -0.4111  0.1098  0.0570
 2324DOPE   C1A27264  11.628  26.759  12.362 -0.4787  0.1028 -0.0768
 2324DOPE   D2A27265  11.961  26.636  12.620 -0.2983 -0.0317  0.1751
 2324DOPE   C3A27266  12.365  26.452  12.760 -0.0428 -0.1319 -0.1210
 2324DOPE   C4A27267  12.852  26.514  12.613  0.1136 -0.7015 -0.0141
 2324DOPE   C1B27268  12.074  26.574  12.098  0.2828 -0.4038 -0.1462
 2324DOPE   D2B27269  12.479  26.338  12.222 -0.0465 -0.0747 -0.3851
 2324DOPE   C3B27270  12.514  25.944  12.056 -0.0380  0.0020 -0.1296
 2324DOPE   C4B27271  12.482  25.822  11.606  0.0594  0.3592  0.2515
 2325DOPE   NH327272  17.910  29.946  12.546  0.0527  0.5610 -0.2697
 2325DOPE   PO427273  18.025  29.704  12.577 -0.0410 -0.0177  0.1927
 2325DOPE   GL127274  17.819  29.434  12.777 -0.3353 -0.1546  0.1456
 2325DOPE   GL227275  17.686  29.565  12.997  0.0291  0.3136 -0.0575
 2325DOPE   C1A27276  17.986  29.140  13.123  0.0990  0.2923 -0.0671
 2325DOPE   D2A27277  17.992  28.763  13.420 -0.1797  0.1366  0.2430
 2325DOPE   C3A27278  18.301  28.475  13.650 -0.3226 -0.0072  0.2163
 2325DOPE   C4A27279  18.474  28.094  13.791 -0.0195  0.2760 -0.0862
 2325DOPE   C1B27280  17.754  29.796  13.381 -0.1792  0.0794  0.3387
 2325DOPE   D2B27281  17.939  29.671  13.766  0.0864 -0.1975  0.3466
 2325DOPE   C3B27282  17.590  29.714  14.074  0.1418 -0.0307 -0.0494
 2325DOPE   C4B27283  17.172  29.817  14.162 -0.0207 -0.0879  0.0128
 2326POSM   NC327284  21.875  30.361  13.448  0.0161  0.4149  0.3262
 2326POSM   PO427285  21.582  30.096  13.536 -0.1655 -0.3070 -0.1064
 2326POSM   AM127286  21.386  30.214  13.808  0.3281  0.0317  0.2501
 2326POSM   AM227287  21.259  30.469  13.899 -0.0154 -0.0706 -0.0378
 2326POSM   T1A27288  21.477  30.316  14.311 -0.3192  0.0635  0.2196
 2326POSM   C2A27289  21.297  30.689  14.596 -0.0298  0.3390  0.2855
 2326POSM   C3A27290  21.108  31.022  14.827  0.1419 -0.0898  0.1206
 2326POSM   C1B27291  21.047  30.572  14.158 -0.0131  0.1444 -0.1232
 2326POSM   D2B27292  20.769  30.550  14.557 -0.1230  0.1091  0.1652
 2326POSM   C3B27293  20.962  30.547  14.969  0.1769 -0.2576 -0.0133
 2326POSM   C4B27294  20.926  30.376  15.382 -0.0971  0.2414  0.2327
 2327POSM   NC327295  21.735   0.035  13.370  0.2362  0.1303  0.0475
 2327POSM   PO427296  21.684  -0.251  13.111  0.0506  0.2944 -0.0009
 2327POSM   AM127297  21.454  -0.390  13.298  0.1736  0.0191  0.2492
 2327POSM   AM227298  21.424  -0.538  13.549 -0.0904 -0.0565  0.0608
 2327POSM   T1A27299  20.991  -0.622  13.291  0.0273 -0.1927 -0.3175
 2327POSM   C2A27300  20.614  -0.726  12.987  0.1421  0.2816 -0.0691
 2327POSM   C3A27301  20.174  -0.642  12.812  0.1183  0.0113 -0.1234
 2327POSM   C1B27302  21.374  -0.661  13.852 -0.1626 -0.1683 -0.1441
 2327POSM   D2B27303  21.287  -0.847  14.206 -0.1892  0.1290  0.4844
 2327POSM   C3B27304  21.335  -1.260  14.254  0.0905 -0.0806 -0.2122
 2327POSM   C4B27305  21.228  -1.677  14.412 -0.2111  0.1124  0.0716
 2328DOPC   NC327306  13.164  26.873  11.643 -0.5595 -0.1162 -0.0921
 2328DOPC   PO427307  13.074  26.933  11.251 -0.1486 -0.0882 -0.5494
 2328DOPC   GL127308  12.829  27.252  11.446  0.4023 -0.0363 -0.1056
 2328DOPC   GL227309  12.701  27.155  11.654  0.0766  0.1881  0.0477
 2328DOPC   C1A27310  12.697  27.665  11.516  0.1189 -0.0404 -0.1430
 2328DOPC   D2A27311  12.750  28.110  11.738  0.4112  0.1180  0.3128
 2328DOPC   C3A27312  12.596  28.247  12.185 -0.0192  0.0864 -0.0967
 2328DOPC   C4A27313  12.234  28.471  12.328 -0.1102 -0.2119  0.2056
 2328DOPC   C1B27314  12.467  27.198  11.998  0.4523  0.2252 -0.0808
 2328DOPC   D2B27315  12.068  27.348  11.888  0.2182  0.0759  0.1339
 2328DOPC   C3B27316  12.196  27.723  11.642 -0.2106  0.1042  0.1425
 2328DOPC   C4B27317  12.301  27.746  11.141 -0.0055  0.0820 -0.1149
 2329DOPC   NC327318  15.160  33.032  11.835  0.0176 -0.0867 -0.0050
 2329DOPC   PO427319  15.111  32.683  11.678 -0.0004 -0.1646 -0.0995
 2329DOPC   GL127320  15.054  32.635  12.081  0.2670  0.1692  0.2104
 2329DOPC   GL227321  14.797  32.686  12.123  0.0271 -0.0776 -0.4727
 2329DOPC   C1A27322  15.043  32.640  12.559  0.1444 -0.0261  0.1834
 2329DOPC   D2A27323  15.349  32.826  12.873 -0.0388  0.0372  0.1183
 2329DOPC   C3A27324  15.782  32.581  12.936  0.2079  0.0004 -0.1434
 2329DOPC   C4A27325  15.953  32.178  12.874 -0.1278  0.0998 -0.0902
 2329DOPC   C1B27326  14.627  32.956  12.465  0.0146 -0.3332 -0.2183
 2329DOPC   D2B27327  14.791  32.999  12.919 -0.1055 -0.2380  0.1361
 2329DOPC   C3B27328  14.525  33.329  13.142 -0.3185 -0.1587 -0.2463
 2329DOPC   C4B27329  14.418  33.769  12.992 -0.2484 -0.0138 -0.1672
 2330DOPC   NC327330  18.313  31.212  12.708  0.0491  0.2396 -0.3267
 2330DOPC   PO427331  18.659  31.003  12.625  0.1765 -0.2435 -0.0398
 2330DOPC   GL127332  18.721  30.915  12.995 -0.0754  0.1756  0.0719
 2330DOPC   GL227333  18.940  31.070  13.064  0.0821 -0.0702 -0.0154
 2330DOPC   C1A27334  18.816  30.516  13.217  0.1079 -0.0114  0.1315
 2330DOPC   D2A27335  18.814  30.375  13.601  0.0606 -0.2622 -0.0138
 2330DOPC   C3A27336  18.593  30.627  13.896  0.1253 -0.0528  0.1477
 2330DOPC   C4A27337  18.306  30.877  14.124 -0.1267  0.1604 -0.1835
 2330DOPC   C1B27338  18.819  30.943  13.509  0.2136 -0.1404  0.0468
 2330DOPC   D2B27339  18.944  31.025  13.944  0.0354 -0.1365  0.3730
 2330DOPC   C3B27340  19.031  30.570  14.115  0.1881  0.3475 -0.0278
 2330DOPC   C4B27341  19.054  30.426  14.502  0.2480  0.2922  0.0409
 2331POSM   NC327342  16.105  26.455  11.972  0.0222 -0.0028  0.0564
 2331POSM   PO427343  16.071  26.822  12.079  0.1729 -0.0463 -0.0720
 2331POSM   AM127344  16.020  27.054  12.283  0.0445 -0.0597  0.2311
 2331POSM   AM227345  15.802  27.224  12.389 -0.2753  0.0828 -0.0911
 2331POSM   T1A27346  16.221  27.364  12.560 -0.0262  0.2437  0.0987
 2331POSM   C2A27347  16.046  27.796  12.672  0.0708  0.1074 -0.1848
 2331POSM   C3A27348  16.252  28.184  12.779  0.0858  0.1633 -0.2094
 2331POSM   C1B27349  15.610  26.997  12.479 -0.4581 -0.1544 -0.0751
 2331POSM   D2B27350  15.699  26.525  12.490 -0.1883 -0.3865 -0.0802
 2331POSM   C3B27351  15.578  26.369  12.070  0.0518 -0.3538 -0.1275
 2331POSM   C4B27352  15.662  26.230  11.610 -0.2445  0.1376 -0.2520
 2332DOPC   NC327353  13.197  32.841  10.816 -0.0352 -0.0609  0.0918
 2332DOPC   PO427354  13.477  33.082  10.782  0.0359  0.2161  0.2264
 2332DOPC   GL127355  13.469  33.073  11.214  0.2352 -0.0296 -0.0393
 2332DOPC   GL227356  13.623  33.299  11.253  0.0715  0.1045 -0.0658
 2332DOPC   C1A27357  13.375  33.145  11.655 -0.1451  0.1013  0.0964
 2332DOPC   D2A27358  13.237  32.900  12.014  0.1719 -0.2536  0.0038
 2332DOPC   C3A27359  13.286  32.442  11.979  0.0468 -0.1846 -0.2403
 2332DOPC   C4A27360  13.544  32.036  12.123  0.0168 -0.1872 -0.2357
 2332DOPC   C1B27361  13.802  33.393  11.725  0.1976 -0.0846 -0.0718
 2332DOPC   D2B27362  13.784  33.119  12.138 -0.1820 -0.3423  0.2991
 2332DOPC   C3B27363  13.496  33.251  12.491 -0.0061 -0.2796 -0.1102
 2332DOPC   C4B27364  13.415  33.633  12.712  0.0410  0.0412 -0.2899
 2333POSM   NC327365  23.662  27.824  12.603  0.2753 -0.1254 -0.2332
 2333POSM   PO427366  23.571  27.476  12.757  0.0991  0.0298  0.1080
 2333POSM   AM127367  23.431  27.642  13.006 -0.6744 -0.4944  0.2836
 2333POSM   AM227368  23.171  27.607  13.163  0.0983 -0.0557 -0.3450
 2333POSM   T1A27369  23.441  28.020  13.306  0.3310 -0.1905 -0.1984
 2333POSM   C2A27370  23.181  28.296  13.551  0.0833  0.1635  0.1647
 2333POSM   C3A27371  23.104  28.123  14.010  0.0189 -0.1981 -0.0375
 2333POSM   C1B27372  23.002  27.787  13.442 -0.1059  0.1696  0.1620
 2333POSM   D2B27373  22.607  27.939  13.618  0.1513 -0.1469  0.0072
 2333POSM   C3B27374  22.187  27.897  13.688 -0.0072  0.0844 -0.0289
 2333POSM   C4B27375  21.922  27.729  14.001  0.0458 -0.0738  0.2679
 2334DOPS   CNO27376  20.739  25.560  12.562 -0.1183  0.1578  0.4123
 2334DOPS   PO427377  20.530  25.437  12.277 -0.1127 -0.1298  0.1680
 2334DOPS   GL127378  20.565  25.040  12.523  0.1890 -0.1427  0.0972
 2334DOPS   GL227379  20.409  25.234  12.758 -0.0169  0.2780 -0.1005
 2334DOPS   C1A27380  20.834  24.863  12.877  0.0062  0.2912 -0.1907
 2334DOPS   D2A27381  21.286  24.787  12.961 -0.2574  0.0824 -0.1090
 2334DOPS   C3A27382  21.435  25.117  13.282 -0.1144 -0.1739 -0.3051
 2334DOPS   C4A27383  21.602  25.445  13.533  0.0618  0.0573 -0.1823
 2334DOPS   C1B27384  20.737  25.324  13.061 -0.0363  0.0489 -0.1126
 2334DOPS   D2B27385  20.993  25.449  13.400 -0.1175 -0.0939 -0.0605
 2334DOPS   C3B27386  20.843  25.226  13.793  0.0961 -0.2462 -0.0288
 2334DOPS   C4B27387  20.657  24.789  13.887  0.1255  0.0140  0.0758
 2335DOPC   NC327388  17.109  29.735  12.630  0.0254  0.2136 -0.1203
 2335DOPC   PO427389  17.480  29.745  12.592 -0.0083 -0.0023  0.0732
 2335DOPC   GL127390  17.344  29.363  12.596 -0.1747  0.4972 -0.4284
 2335DOPC   GL227391  17.450  29.169  12.778  0.0099  0.3874 -0.1409
 2335DOPC   C1A27392  17.439  29.048  12.261  0.1893  0.2850 -0.0147
 2335DOPC   D2A27393  17.302  28.689  12.040  0.4371  0.1753  0.1087
 2335DOPC   C3A27394  17.128  28.339  12.313  0.0417 -0.0394 -0.3164
 2335DOPC   C4A27395  16.938  28.240  12.717  0.0085  0.1680  0.2027
 2335DOPC   C1B27396  17.512  29.155  13.236 -0.0734 -0.2564 -0.0484
 2335DOPC   D2B27397  17.514  29.403  13.662  0.3244 -0.2468  0.0235
 2335DOPC   C3B27398  17.933  29.157  13.871  0.1582  0.1272 -0.1154
 2335DOPC   C4B27399  18.290  28.897  14.012  0.0214 -0.2350 -0.1189
 2336DOPS   CNO27400  12.687  32.606  10.789 -0.2287  0.0990  0.3235
 2336DOPS   PO427401  12.498  32.590  11.119 -0.0574  0.0402  0.0229
 2336DOPS   GL127402  12.370  32.786  11.398 -0.2525  0.0498  0.0789
 2336DOPS   GL227403  12.454  33.054  11.517  0.2178  0.0961 -0.0930
 2336DOPS   C1A27404  11.963  32.938  11.622 -0.0331  0.1520 -0.1764
 2336DOPS   D2A27405  11.634  32.890  11.966  0.1341 -0.1416 -0.1391
 2336DOPS   C3A27406  11.658  32.500  12.311 -0.2653 -0.2125 -0.1331
 2336DOPS   C4A27407  11.355  32.092  12.350 -0.3972  0.0032 -0.2427
 2336DOPS   C1B27408  12.298  33.290  11.817 -0.0327 -0.4860  0.1000
 2336DOPS   D2B27409  12.368  33.266  12.287 -0.1791 -0.0959  0.1070
 2336DOPS   C3B27410  12.606  33.565  12.491  0.2010 -0.3224 -0.0155
 2336DOPS   C4B27411  12.897  33.912  12.704 -0.0552 -0.0287 -0.2396
 2337DOPE   NH327412  16.697  30.655  11.833 -0.1002  0.2735 -0.0906
 2337DOPE   PO427413  16.636  30.976  11.900 -0.1065  0.4399 -0.3491
 2337DOPE   GL127414  16.723  31.325  12.035 -0.0771  0.1941  0.1557
 2337DOPE   GL227415  16.552  31.347  12.293 -0.3053 -0.1609 -0.2754
 2337DOPE   C1A27416  16.749  31.706  11.748  0.2019 -0.0298 -0.2659
 2337DOPE   D2A27417  16.563  32.069  11.611  0.1851 -0.0251  0.1723
 2337DOPE   C3A27418  16.931  32.182  11.900  0.0783 -0.1767 -0.1041
 2337DOPE   C4A27419  17.244  32.536  12.039 -0.0594  0.0391  0.1144
 2337DOPE   C1B27420  16.723  31.800  12.236 -0.0778 -0.1837 -0.0209
 2337DOPE   D2B27421  17.108  31.917  12.408 -0.3091  0.0729  0.1918
 2337DOPE   C3B27422  17.495  31.984  12.137  0.0472 -0.2693 -0.1468
 2337DOPE   C4B27423  17.754  32.354  12.053  0.2040 -0.1922 -0.2345
 2338DOPE   NH327424  22.932  26.527  12.728 -0.1857  0.2277 -0.1253
 2338DOPE   PO427425  22.916  26.221  12.866  0.4176 -0.3744  0.0958
 2338DOPE   GL127426  22.721  26.303  13.207  0.0218 -0.0794 -0.1621
 2338DOPE   GL227427  22.394  26.470  13.203  0.2543 -0.3468 -0.2354
 2338DOPE   C1A27428  22.440  25.939  13.380  0.0995 -0.1369  0.0833
 2338DOPE   D2A27429  22.536  25.484  13.420 -0.1800  0.1679  0.1183
 2338DOPE   C3A27430  22.069  25.334  13.437 -0.1394 -0.0889 -0.0399
 2338DOPE   C4A27431  21.879  24.924  13.564  0.2956 -0.2247  0.0732
 2338DOPE   C1B27432  22.000  26.386  13.368 -0.1876  0.1697 -0.2163
 2338DOPE   D2B27433  21.946  25.932  13.427  0.3003 -0.0430 -0.0611
 2338DOPE   C3B27434  22.046  25.632  13.072 -0.2550  0.0043  0.0031
 2338DOPE   C4B27435  22.111  25.608  12.634  0.0757 -0.3230 -0.0393
 2339DOPE   NH327436  18.694  26.633  12.462  0.2328  0.0012  0.1627
 2339DOPE   PO427437  18.597  26.852  12.180 -0.1644  0.2924  0.1901
 2339DOPE   GL127438  18.559  27.145  12.410 -0.2539 -0.1275 -0.5842
 2339DOPE   GL227439  18.749  27.054  12.619  0.0218 -0.3265 -0.1215
 2339DOPE   C1A27440  18.816  27.518  12.607  0.0428 -0.2612 -0.2260
 2339DOPE   D2A27441  18.667  27.895  12.805 -0.0493 -0.0603  0.1082
 2339DOPE   C3A27442  18.380  28.274  12.660  0.0560 -0.3412 -0.3025
 2339DOPE   C4A27443  18.389  28.739  12.489  0.3877 -0.0415  0.1878
 2339DOPE   C1B27444  19.167  27.257  12.782  0.1584 -0.0110 -0.0772
 2339DOPE   D2B27445  19.478  27.170  13.090 -0.1723 -0.1117 -0.0542
 2339DOPE   C3B27446  19.146  27.309  13.448  0.2524 -0.1308  0.1424
 2339DOPE   C4B27447  19.225  27.606  13.766 -0.1763 -0.2140 -0.1877
 2340DOPC   NC327448  17.280  25.456  12.417  0.0108  0.2345 -0.0559
 2340DOPC   PO427449  17.589  25.538  12.650 -0.1362  0.2650  0.2332
 2340DOPC   GL127450  17.563  25.246  12.900  0.1705  0.0604  0.0674
 2340DOPC   GL227451  17.463  24.966  12.860  0.1994 -0.1884  0.2695
 2340DOPC   C1A27452  17.635  25.102  13.352  0.0341 -0.0782  0.0486
 2340DOPC   D2A27453  18.023  25.331  13.535  0.0045  0.2587 -0.1173
 2340DOPC   C3A27454  18.027  25.710  13.777 -0.0245 -0.0963 -0.0214
 2340DOPC   C4A27455  17.733  25.825  14.140  0.0237 -0.1434 -0.0019
 2340DOPC   C1B27456  17.246  24.757  13.290  0.3902 -0.2263  0.1328
 2340DOPC   D2B27457  16.782  24.711  13.539 -0.0174  0.0602  0.0319
 2340DOPC   C3B27458  16.794  25.064  13.902  0.5098 -0.1213 -0.2714
 2340DOPC   C4B27459  16.970  25.217  14.379  0.0819  0.2237  0.1450
 2341DOPS   CNO27460  22.781  29.989  13.118 -0.0278 -0.1806 -0.3330
 2341DOPS   PO427461  22.674  30.093  13.496 -0.0255  0.0514  0.2597
 2341DOPS   GL127462  22.757  30.236  13.830 -0.0488  0.3197 -0.1887
 2341DOPS   GL227463  22.824  30.053  14.050 -0.0423 -0.0559 -0.3007
 2341DOPS   C1A27464  22.527  30.443  14.209  0.1815 -0.1156  0.0661
 2341DOPS   D2A27465  22.297  30.444  14.585  0.1422  0.1260  0.0032
 2341DOPS   C3A27466  22.227  30.765  14.909 -0.0862 -0.0530  0.1513
 2341DOPS   C4A27467  22.191  30.878  15.348 -0.0236  0.2234  0.0349
 2341DOPS   C1B27468  23.063  30.319  14.337 -0.1240 -0.2516  0.0766
 2341DOPS   D2B27469  23.293  30.432  14.769 -0.2493 -0.1491 -0.1753
 2341DOPS   C3B27470  23.136  30.489  15.235 -0.0189  0.0898  0.5139
 2341DOPS   C4B27471  22.960  30.452  15.659  0.0474 -0.1981  0.0204
 2342DOPS   CNO27472  18.414  32.990  12.467  0.4641  0.0980 -0.0524
 2342DOPS   PO427473  18.729  33.146  12.464 -0.0080 -0.0425  0.2032
 2342DOPS   GL127474  19.097  32.958  12.586 -0.0104  0.0792  0.0862
 2342DOPS   GL227475  19.167  32.860  12.873 -0.1370  0.2753  0.0004
 2342DOPS   C1A27476  19.548  33.046  12.755 -0.1469  0.1061 -0.1313
 2342DOPS   D2A27477  19.672  33.267  13.193 -0.2824 -0.0031  0.1402
 2342DOPS   C3A27478  19.700  33.728  13.204 -0.0312 -0.0999 -0.0675
 2342DOPS   C4A27479  19.734  34.190  13.098  0.1427  0.3655 -0.2185
 2342DOPS   C1B27480  19.192  33.166  13.250  0.1962  0.2745 -0.1891
 2342DOPS   D2B27481  18.919  33.300  13.607 -0.0410  0.3375 -0.0124
 2342DOPS   C3B27482  18.761  32.973  13.879 -0.0686  0.0728 -0.0560
 2342DOPS   C4B27483  18.739  32.668  14.223  0.0251  0.0806 -0.0106
 2343DOPC   NC327484  18.655  32.502  13.753  0.2547  0.1871  0.0765
 2343DOPC   PO427485  18.486  32.647  13.407 -0.0654 -0.1275  0.1232
 2343DOPC   GL127486  18.850  32.847  13.431 -0.1091 -0.2695 -0.3635
 2343DOPC   GL227487  18.992  32.583  13.317  0.1140 -0.0653 -0.0359
 2343DOPC   C1A27488  19.275  32.866  13.608  0.1705 -0.0033  0.1692
 2343DOPC   D2A27489  19.740  32.967  13.631 -0.3689 -0.0647 -0.3084
 2343DOPC   C3A27490  20.007  33.345  13.564 -0.2188 -0.1168 -0.2545
 2343DOPC   C4A27491  20.198  33.601  13.191 -0.0086 -0.0749 -0.2078
 2343DOPC   C1B27492  19.131  32.366  13.695 -0.2136 -0.1919  0.1364
 2343DOPC   D2B27493  19.536  32.329  13.794  0.1962  0.0663 -0.2788
 2343DOPC   C3B27494  19.777  31.955  13.728 -0.2119  0.3217  0.4491
 2343DOPC   C4B27495  20.090  31.615  13.836  0.0186 -0.0611 -0.2381
 2344DOPS   CNO27496  14.902  27.514  11.485 -0.1419 -0.0043  0.2223
 2344DOPS   PO427497  14.875  27.471  11.892 -0.1673  0.4639 -0.0444
 2344DOPS   GL127498  14.880  27.265  12.252  0.0491 -0.0943  0.0493
 2344DOPS   GL227499  14.679  27.075  12.290 -0.1349  0.0135  0.0554
 2344DOPS   C1A27500  14.581  27.457  12.554  0.2029  0.0946  0.0012
 2344DOPS   D2A27501  14.344  27.782  12.567  0.2618  0.3516  0.0615
 2344DOPS   C3A27502  13.900  27.767  12.462  0.0478 -0.0940 -0.0283
 2344DOPS   C4A27503  13.472  27.578  12.599  0.0312  0.0320 -0.0270
 2344DOPS   C1B27504  14.761  27.018  12.712  0.0726 -0.0702 -0.0297
 2344DOPS   D2B27505  14.842  27.302  13.040  0.0520  0.0205 -0.0729
 2344DOPS   C3B27506  15.144  27.655  13.059 -0.0599  0.2315  0.0713
 2344DOPS   C4B27507  15.098  28.015  13.182  0.1600  0.2029 -0.4070
 2345DOPS   CNO27508  17.090  30.264  11.950 -0.1930  0.1575  0.0590
 2345DOPS   PO427509  16.707  30.152  11.883  0.1035 -0.1544 -0.0961
 2345DOPS   GL127510  16.468  29.868  12.032  0.2867  0.1928  0.4784
 2345DOPS   GL227511  16.280  29.938  12.208 -0.1154  0.2561 -0.1119
 2345DOPS   C1A27512  16.376  29.479  12.317 -0.0464  0.2915  0.0969
 2345DOPS   D2A27513  16.073  29.401  12.680  0.0332 -0.2291 -0.0885
 2345DOPS   C3A27514  16.397  29.041  12.720 -0.2709 -0.1266 -0.1737
 2345DOPS   C4A27515  16.527  28.599  12.764 -0.1323  0.3186 -0.0608
 2345DOPS   C1B27516  16.388  29.870  12.634 -0.2851 -0.0901 -0.2393
 2345DOPS   D2B27517  16.544  29.494  12.811  0.1528 -0.0004 -0.4864
 2345DOPS   C3B27518  16.239  29.287  13.155 -0.1977 -0.0793  0.0089
 2345DOPS   C4B27519  15.842  29.140  13.180 -0.1813 -0.0658  0.1272
 2346DOPC   NC327520  13.975  30.962  11.791 -0.0242  0.0001  0.3961
 2346DOPC   PO427521  14.126  31.259  11.637  0.2197  0.0713  0.0850
 2346DOPC   GL127522  14.214  31.328  12.035  0.1010 -0.0798  0.1970
 2346DOPC   GL227523  14.330  31.631  11.923  0.3120 -0.4203 -0.0732
 2346DOPC   C1A27524  14.064  30.999  12.348  0.0692  0.3175  0.4527
 2346DOPC   D2A27525  14.150  30.891  12.808  0.2610 -0.1159 -0.2539
 2346DOPC   C3A27526  14.239  30.715  13.260  0.2197 -0.2074 -0.1962
 2346DOPC   C4A27527  14.035  30.439  13.516  0.2023 -0.0260  0.1350
 2346DOPC   C1B27528  14.112  31.773  12.326 -0.0410 -0.1081  0.2088
 2346DOPC   D2B27529  13.718  31.624  12.458 -0.0628  0.2425 -0.0209
 2346DOPC   C3B27530  13.571  32.011  12.607 -0.0488  0.2092  0.0014
 2346DOPC   C4B27531  13.663  32.423  12.791  0.1388  0.1335  0.1569
 2347DOPE   NH327532  22.702  22.982  12.894  0.2506  0.0636 -0.1309
 2347DOPE   PO427533  22.736  23.228  12.707  0.1580 -0.2745  0.2066
 2347DOPE   GL127534  22.536  23.471  12.948  0.2146  0.2783 -0.5374
 2347DOPE   GL227535  22.262  23.540  12.831 -0.0399 -0.1688  0.1345
 2347DOPE   C1A27536  22.257  23.206  13.256 -0.1448 -0.0322 -0.1003
 2347DOPE   D2A27537  22.223  23.055  13.696 -0.1107 -0.1162 -0.1780
 2347DOPE   C3A27538  21.909  22.758  13.847 -0.0242 -0.0408  0.0088
 2347DOPE   C4A27539  21.985  22.331  14.045  0.4675  0.1312  0.2695
 2347DOPE   C1B27540  22.073  23.970  13.071  0.3411  0.2617  0.2956
 2347DOPE   D2B27541  21.819  24.372  13.238  0.0161 -0.1114  0.0660
 2347DOPE   C3B27542  21.733  24.173  13.702 -0.1917 -0.0373 -0.1754
 2347DOPE   C4B27543  21.532  24.209  14.097  0.1884 -0.3732  0.0532
 2348DOPE   NH327544  11.911  34.230  11.089  0.1088  0.2848 -0.1443
 2348DOPE   PO427545  12.166  34.439  11.051  0.3665  0.4035 -0.2970
 2348DOPE   GL127546  11.941  34.506  11.466  0.2089 -0.1399 -0.1322
 2348DOPE   GL227547  12.061  34.269  11.535  0.0073 -0.0176 -0.1312
 2348DOPE   C1A27548  11.734  34.588  11.854 -0.0108  0.2117 -0.1692
 2348DOPE   D2A27549  11.357  34.702  12.117 -0.2712 -0.2055  0.0144
 2348DOPE   C3A27550  11.423  34.563  12.557 -0.1591  0.0702 -0.1702
 2348DOPE   C4A27551  11.397  34.358  12.893 -0.1111  0.1864  0.3445
 2348DOPE   C1B27552  12.175  34.319  11.932 -0.2550  0.1655  0.0424
 2348DOPE   D2B27553  12.370  34.411  12.324  0.0852 -0.0481  0.0817
 2348DOPE   C3B27554  12.305  34.181  12.708  0.0919  0.3132 -0.1375
 2348DOPE   C4B27555  12.405  33.820  12.915 -0.0016 -0.1003  0.0642
 2349POSM   NC327556  18.088  25.650  12.904 -0.2336  0.0386  0.1298
 2349POSM   PO427557  18.050  25.991  12.940  0.2636 -0.0997  0.1787
 2349POSM   AM127558  17.996  26.140  13.229 -0.2315 -0.3696 -0.1819
 2349POSM   AM227559  18.091  26.326  13.424 -0.4108  0.2185  0.1575
 2349POSM   T1A27560  17.733  26.065  13.696 -0.2843 -0.3566  0.2368
 2349POSM   C2A27561  17.313  26.090  13.874  0.2490  0.2667 -0.1822
 2349POSM   C3A27562  17.084  26.343  14.180 -0.1387 -0.1011  0.1230
 2349POSM   C1B27563  18.223  26.130  13.625 -0.0008  0.1029 -0.0780
 2349POSM   D2B27564  18.110  26.097  14.041 -0.0914 -0.0651 -0.1617
 2349POSM   C3B27565  17.745  26.345  14.214  0.0804 -0.1680 -0.0708
 2349POSM   C4B27566  17.432  26.430  14.564 -0.0069  0.1324 -0.0778
 2350DOPS   CNO27567  21.874  33.836  13.347 -0.1313 -0.0344  0.0194
 2350DOPS   PO427568  22.004  33.728  13.029  0.3912 -0.2471  0.3232
 2350DOPS   GL127569  21.758  33.431  13.093 -0.4175  0.0473 -0.2784
 2350DOPS   GL227570  21.920  33.196  13.101 -0.3865 -0.1856 -0.1827
 2350DOPS   C1A27571  21.536  33.173  13.431 -0.2893 -0.1539  0.1551
 2350DOPS   D2A27572  21.391  33.085  13.876  0.3267  0.2952 -0.3551
 2350DOPS   C3A27573  20.929  33.072  14.001  0.0124 -0.2001  0.1613
 2350DOPS   C4A27574  20.598  33.015  13.703 -0.1025 -0.1530 -0.1653
 2350DOPS   C1B27575  21.789  32.749  12.940  0.1502  0.1277 -0.0311
 2350DOPS   D2B27576  21.441  32.431  12.794 -0.0372  0.0162  0.1607
 2350DOPS   C3B27577  21.145  32.430  13.139  0.1448  0.1449 -0.0293
 2350DOPS   C4B27578  21.189  32.304  13.631 -0.0456  0.3377  0.0891
 2351DOPC   NC327579  19.051  24.553  13.005  0.0240  0.1818 -0.2623
 2351DOPC   PO427580  19.022  24.844  12.761  0.0321 -0.2218 -0.1045
 2351DOPC   GL127581  19.014  24.985  13.190 -0.1469 -0.4080 -0.0590
 2351DOPC   GL227582  19.047  24.773  13.438 -0.0296  0.0622 -0.0900
 2351DOPC   C1A27583  19.022  25.421  13.366  0.0209 -0.2707 -0.0198
 2351DOPC   D2A27584  19.095  25.883  13.265  0.0392  0.4128 -0.4314
 2351DOPC   C3A27585  19.086  26.243  13.601  0.0001 -0.1421  0.2740
 2351DOPC   C4A27586  18.923  26.512  13.876  0.1501  0.1164 -0.1199
 2351DOPC   C1B27587  18.792  24.533  13.743  0.4293  0.0949 -0.0721
 2351DOPC   D2B27588  18.394  24.638  13.905  0.1850 -0.4922  0.0061
 2351DOPC   C3B27589  18.323  25.118  13.988 -0.1679 -0.0835  0.0987
 2351DOPC   C4B27590  18.024  25.388  14.123 -0.3114 -0.0860  0.0697
 2352DOPE   NH327591  11.204  26.256  11.692 -0.2122  0.0602  0.0483
 2352DOPE   PO427592  11.246  26.281  12.016  0.0393  0.5190 -0.0245
 2352DOPE   GL127593  11.299  26.229  12.479 -0.1472  0.0497  0.2386
 2352DOPE   GL227594  11.177  25.968  12.581  0.0279 -0.0316 -0.3950
 2352DOPE   C1A27595  11.637  25.907  12.685  0.4766 -0.1666  0.1167
 2352DOPE   D2A27596  12.021  25.600  12.717  0.4745  0.4921  0.1590
 2352DOPE   C3A27597  12.208  25.420  13.082  0.0749  0.2052  0.0224
 2352DOPE   C4A27598  12.226  25.558  13.488  0.3428 -0.0321 -0.1155
 2352DOPE   C1B27599  10.990  25.682  12.926 -0.1916 -0.2164  0.1610
 2352DOPE   D2B27600  10.803  25.527  13.302  0.1169 -0.5109 -0.1534
 2352DOPE   C3B27601  10.379  25.466  13.255 -0.0402 -0.2890  0.1396
 2352DOPE   C4B27602  10.133  25.189  13.534  0.3130  0.0763 -0.1912
 2353DOPS   CNO27603  18.010  26.321  12.210 -0.2956 -0.0536 -0.3172
 2353DOPS   PO427604  18.306  26.248  12.424 -0.0575  0.0458 -0.0489
 2353DOPS   GL127605  18.499  25.915  12.460  0.0668 -0.0924 -0.0069
 2353DOPS   GL227606  18.736  25.830  12.458  0.0764 -0.0328 -0.0969
 2353DOPS   C1A27607  18.318  25.486  12.480 -0.2508  0.2657  0.2103
 2353DOPS   D2A27608  18.441  25.064  12.608 -0.1435  0.0217  0.0782
 2353DOPS   C3A27609  18.390  24.758  12.930 -0.2733 -0.3673 -0.1105
 2353DOPS   C4A27610  18.556  24.489  13.263 -0.0330  0.3635 -0.0053
 2353DOPS   C1B27611  18.794  25.419  12.703  0.3289  0.0158  0.0045
 2353DOPS   D2B27612  18.518  25.260  13.056  0.0890 -0.0894 -0.0921
 2353DOPS   C3B27613  18.604  24.979  13.419  0.1411  0.1055 -0.1587
 2353DOPS   C4B27614  18.795  25.023  13.830 -0.0563  0.1615 -0.0666
 2354DOPS   CNO27615  21.845  30.042  13.075  0.0766 -0.1804 -0.1571
 2354DOPS   PO427616  21.487  29.883  13.115 -0.1587 -0.0492 -0.1292
 2354DOPS   GL127617  21.357  30.321  13.206  0.1019  0.0600  0.3027
 2354DOPS   GL227618  21.131  30.323  12.931  0.3039 -0.0953  0.2532
 2354DOPS   C1A27619  21.547  30.711  12.968  0.4281 -0.2123 -0.1225
 2354DOPS   D2A27620  21.749  31.128  13.037 -0.3149 -0.0191 -0.3131
 2354DOPS   C3A27621  21.431  31.361  13.313 -0.2559  0.2547 -0.3200
 2354DOPS   C4A27622  21.417  31.788  13.462  0.1032  0.0331  0.1293
 2354DOPS   C1B27623  21.069  30.792  12.975 -0.0697 -0.1238  0.2321
 2354DOPS   D2B27624  20.839  31.151  12.708  0.0931  0.2215 -0.0406
 2354DOPS   C3B27625  21.095  31.535  12.812 -0.0149  0.0921  0.0946
 2354DOPS   C4B27626  21.223  31.979  12.984 -0.0292 -0.3143  0.1335
 2355DOPE   NH327627  11.788  33.222  10.593  0.0659 -0.0656  0.0814
 2355DOPE   PO427628  11.870  33.322  10.882  0.0031 -0.0137  0.0999
 2355DOPE   GL127629  11.717  33.315  11.201 -0.3182  0.3221  0.1083
 2355DOPE   GL227630  11.547  33.078  11.287  0.0315 -0.1194  0.2573
 2355DOPE   C1A27631  11.801  33.422  11.678  0.2120  0.0427  0.2463
 2355DOPE   D2A27632  11.844  33.414  12.129  0.0341  0.0737 -0.0429
 2355DOPE   C3A27633  11.860  33.066  12.427  0.1555 -0.1474  0.3894
 2355DOPE   C4A27634  12.103  32.738  12.505  0.1211 -0.2752  0.0820
 2355DOPE   C1B27635  11.262  33.069  11.706  0.1321  0.2272 -0.3238
 2355DOPE   D2B27636  11.102  32.851  12.063 -0.1413 -0.1954  0.2279
 2355DOPE   C3B27637  10.820  32.438  11.956 -0.0638 -0.5076 -0.3522
 2355DOPE   C4B27638  10.921  31.986  11.995  0.0102 -0.0285  0.1487
 2356DOPE   NH327639  16.811  30.073  12.353  0.2717 -0.0323 -0.1411
 2356DOPE   PO427640  16.926  29.779  12.178  0.2805 -0.0538 -0.2048
 2356DOPE   GL127641  16.792  29.457  12.436 -0.0893  0.0462 -0.0865
 2356DOPE   GL227642  16.882  29.243  12.308 -0.0238  0.2277  0.2128
 2356DOPE   C1A27643  16.910  29.149  12.785 -0.1686  0.1080 -0.3477
 2356DOPE   D2A27644  17.128  28.838  13.016 -0.1135 -0.3419  0.0770
 2356DOPE   C3A27645  17.132  28.842  13.512  0.0193  0.2453  0.2889
 2356DOPE   C4A27646  17.300  28.983  13.916 -0.0250 -0.2707  0.2330
 2356DOPE   C1B27647  17.066  28.823  12.457 -0.0330 -0.1880  0.1550
 2356DOPE   D2B27648  17.456  28.657  12.585 -0.1705  0.1440  0.1421
 2356DOPE   C3B27649  17.450  28.438  12.991 -0.0638 -0.0743  0.3504
 2356DOPE   C4B27650  17.528  28.571  13.441 -0.1893 -0.0701  0.0783
 2357POSM   NC327651  23.091  22.893  12.541  0.2493 -0.0349  0.3374
 2357POSM   PO427652  23.279  23.130  12.847  0.0850  0.2937  0.0968
 2357POSM   AM127653  23.179  23.190  13.169 -0.2161 -0.5744 -0.1085
 2357POSM   AM227654  22.936  23.152  13.314 -0.0594 -0.1493 -0.0952
 2357POSM   T1A27655  23.231  23.546  13.537  0.1650  0.1363 -0.3165
 2357POSM   C2A27656  23.467  23.832  13.863 -0.2005  0.0156  0.0758
 2357POSM   C3A27657  23.574  24.223  14.114  0.2312 -0.1788  0.1024
 2357POSM   C1B27658  22.748  23.387  13.344  0.2561  0.1884 -0.0653
 2357POSM   D2B27659  22.381  23.695  13.376 -0.1127  0.2384  0.0727
 2357POSM   C3B27660  22.249  23.958  13.713  0.0184 -0.2263 -0.1358
 2357POSM   C4B27661  22.051  23.993  14.137 -0.0162  0.1378  0.0625
 2358DOPC   NC327662  19.529  27.355  12.404 -0.0148 -0.1733  0.1953
 2358DOPC   PO427663  19.809  27.091  12.244 -0.0435 -0.0166  0.2511
 2358DOPC   GL127664  20.085  27.195  12.509 -0.0479  0.2566 -0.0609
 2358DOPC   GL227665  19.891  27.266  12.751  0.0485  0.1461 -0.4140
 2358DOPC   C1A27666  20.412  27.598  12.519 -0.1533 -0.1239  0.0351
 2358DOPC   D2A27667  20.587  27.946  12.782 -0.2428  0.0710 -0.1930
 2358DOPC   C3A27668  20.394  27.893  13.214 -0.0154  0.2912 -0.2250
 2358DOPC   C4A27669  20.066  27.653  13.418 -0.5360 -0.0679 -0.4209
 2358DOPC   C1B27670  19.939  27.217  13.213 -0.6016  0.1810  0.1213
 2358DOPC   D2B27671  19.790  27.058  13.578  0.1483 -0.1652 -0.1787
 2358DOPC   C3B27672  19.823  27.463  13.838 -0.0280 -0.3110  0.1959
 2358DOPC   C4B27673  19.557  27.530  14.212  0.0742  0.3274 -0.0245
 2359DOPC   NC327674  15.441  28.526  11.694 -0.0917 -0.1158 -0.1143
 2359DOPC   PO427675  15.135  28.424  11.848  0.0459 -0.1010 -0.5165
 2359DOPC   GL127676  15.400  28.128  12.089 -0.0247 -0.1108 -0.0898
 2359DOPC   GL227677  15.602  28.100  11.892  0.0854 -0.3097 -0.0840
 2359DOPC   C1A27678  15.566  27.951  12.496  0.1507  0.2798 -0.1558
 2359DOPC   D2A27679  15.697  28.282  12.768  0.0636  0.0023  0.0205
 2359DOPC   C3A27680  15.596  28.066  13.160 -0.4182 -0.2115 -0.0788
 2359DOPC   C4A27681  15.394  28.200  13.594 -0.2010 -0.0975  0.0802
 2359DOPC   C1B27682  15.970  28.425  11.810  0.0142 -0.1905  0.1457
 2359DOPC   D2B27683  16.058  28.837  12.027  0.0645  0.2206 -0.2047
 2359DOPC   C3B27684  15.896  28.902  12.476 -0.2055 -0.0966  0.0476
 2359DOPC   C4B27685  16.046  28.681  12.845  0.1689 -0.2841 -0.4252
 2360DOPE   NH327686  20.851   0.262  13.293  0.0498 -0.2870  0.0956
 2360DOPE   PO427687  20.824   0.002  13.419 -0.2856  0.0616  0.0408
 2360DOPE   GL127688  20.695  -0.127  13.698  0.2170  0.1236  0.0667
 2360DOPE   GL227689  20.885  -0.357  13.818  0.1773  0.1344  0.3083
 2360DOPE   C1A27690  20.335   0.132  13.987  0.3221 -0.0896  0.1410
 2360DOPE   D2A27691  20.296   0.569  13.978  0.2233 -0.1606 -0.0543
 2360DOPE   C3A27692  20.186   1.000  13.918  0.1383 -0.0659  0.2681
 2360DOPE   C4A27693  19.861   1.280  13.908 -0.0408 -0.1097 -0.2682
 2360DOPE   C1B27694  20.921  -0.815  13.784  0.3389  0.1625  0.4218
 2360DOPE   D2B27695  21.242  -1.095  13.750 -0.2143  0.0288 -0.2886
 2360DOPE   C3B27696  21.676  -1.179  13.766  0.0863 -0.0076  0.1118
 2360DOPE   C4B27697  21.898  -1.442  14.095  0.4370 -0.1208 -0.0486
 2361POSM   NC327698  21.381   0.805  13.910 -0.0587 -0.1468 -0.0322
 2361POSM   PO427699  21.569   0.783  13.538  0.1198 -0.2985 -0.1485
 2361POSM   AM127700  21.716   0.477  13.586 -0.2100  0.0640  0.0991
 2361POSM   AM227701  21.965   0.369  13.643 -0.2567 -0.0890  0.5174
 2361POSM   T1A27702  21.746  -0.004  13.848  0.0357  0.0190 -0.1352
 2361POSM   C2A27703  21.832  -0.424  13.869  0.1232 -0.1990  0.1664
 2361POSM   C3A27704  21.826  -0.848  14.102 -0.3173  0.1996  0.2966
 2361POSM   C1B27705  22.082   0.430  13.924 -0.0689  0.0148 -0.2021
 2361POSM   D2B27706  22.322   0.411  14.334 -0.1036  0.2998  0.1554
 2361POSM   C3B27707  22.034   0.371  14.689 -0.0546  0.3161  0.0128
 2361POSM   C4B27708  21.602   0.239  14.816 -0.4665  0.2398  0.2898
 2362DOPE   NH327709  18.295  30.693  12.477 -0.0211  0.3838 -0.1419
 2362DOPE   PO427710  18.154  30.367  12.542 -0.0880 -0.2243 -0.0147
 2362DOPE   GL127711  18.127  30.224  12.870 -0.3483 -0.1534  0.2586
 2362DOPE   GL227712  18.044  29.931  13.010  0.1904 -0.1249  0.0993
 2362DOPE   C1A27713  17.916  30.312  13.303  0.2260 -0.0707 -0.1967
 2362DOPE   D2A27714  17.634  30.198  13.584  0.2711  0.1101  0.0964
 2362DOPE   C3A27715  17.919  30.147  13.922 -0.3318 -0.1358 -0.1293
 2362DOPE   C4A27716  18.206  29.881  14.233 -0.0799  0.0368  0.3869
 2362DOPE   C1B27717  18.287  29.632  13.297 -0.0973 -0.1745 -0.1087
 2362DOPE   D2B27718  18.294  29.291  13.589  0.0660  0.1779 -0.1486
 2362DOPE   C3B27719  18.431  29.358  14.039  0.0889  0.3578  0.0513
 2362DOPE   C4B27720  18.820  29.582  14.008  0.0890  0.2247 -0.0083
 2363DOPC   NC327721  20.298  29.315  13.251 -0.0824 -0.1972 -0.0840
 2363DOPC   PO427722  20.227  29.161  12.889 -0.2763  0.1311 -0.0019
 2363DOPC   GL127723  19.859  29.232  13.021 -0.0336  0.0592 -0.2090
 2363DOPC   GL227724  19.853  28.961  13.074  0.0614 -0.0681 -0.2226
 2363DOPC   C1A27725  19.748  29.531  13.370 -0.1885  0.1807 -0.1165
 2363DOPC   D2A27726  19.621  29.904  13.612  0.0937 -0.3253  0.1783
 2363DOPC   C3A27727  19.735  29.763  14.067 -0.0186  0.1373  0.0130
 2363DOPC   C4A27728  20.112  29.554  14.204  0.1307 -0.2857 -0.0261
 2363DOPC   C1B27729  19.683  28.659  13.374  0.2788  0.0242  0.1682
 2363DOPC   D2B27730  19.489  28.461  13.727 -0.2776 -0.1460  0.2699
 2363DOPC   C3B27731  19.120  28.676  13.885  0.0122 -0.0185  0.1205
 2363DOPC   C4B27732  18.911  28.779  14.343 -0.0317 -0.3780  0.3663
 2364DOPS   CNO27733  13.591  25.155  11.182 -0.0050  0.0934  0.2770
 2364DOPS   PO427734  13.298  25.374  11.326  0.0727 -0.1024  0.0346
 2364DOPS   GL127735  13.056  25.127  11.470  0.0450 -0.1666  0.4756
 2364DOPS   GL227736  13.122  25.109  11.755 -0.1743 -0.2564 -0.0641
 2364DOPS   C1A27737  12.640  24.966  11.492  0.4286  0.0622 -0.0518
 2364DOPS   D2A27738  12.468  24.503  11.445  0.1599  0.2101 -0.2331
 2364DOPS   C3A27739  12.177  24.551  11.811 -0.1996  0.1678  0.1094
 2364DOPS   C4A27740  12.104  24.604  12.254 -0.1836 -0.1014 -0.4043
 2364DOPS   C1B27741  13.296  25.265  12.213  0.1398  0.0917 -0.0619
 2364DOPS   D2B27742  13.607  25.258  12.542 -0.2010  0.1130 -0.3562
 2364DOPS   C3B27743  13.363  25.321  12.908  0.0492 -0.1151 -0.1043
 2364DOPS   C4B27744  13.032  25.597  13.063 -0.1877 -0.3549  0.1179
 2365DOPE   NH327745  15.202  32.087  11.610  0.2904  0.0281  0.0164
 2365DOPE   PO427746  15.334  31.891  11.392  0.1217  0.0073 -0.3808
 2365DOPE   GL127747  15.435  31.660  11.740 -0.0871 -0.1645  0.0234
 2365DOPE   GL227748  15.743  31.589  11.784  0.1176 -0.0854 -0.6163
 2365DOPE   C1A27749  15.386  31.672  12.182 -0.0828  0.0081 -0.3808
 2365DOPE   D2A27750  15.638  31.648  12.633 -0.0296 -0.2699  0.0855
 2365DOPE   C3A27751  15.442  31.442  12.971 -0.1008 -0.2908 -0.0215
 2365DOPE   C4A27752  15.117  31.306  13.282  0.3142  0.1774  0.0763
 2365DOPE   C1B27753  15.758  31.982  12.062  0.0291 -0.1497  0.0759
 2365DOPE   D2B27754  15.874  32.237  12.395 -0.1828 -0.5251  0.4269
 2365DOPE   C3B27755  15.640  32.638  12.493 -0.2591  0.0481 -0.1321
 2365DOPE   C4B27756  15.336  32.980  12.338 -0.0425  0.2910  0.3171
 2366DOPE   NH327757  14.722  27.982  11.626 -0.2040  0.4320 -0.1713
 2366DOPE   PO427758  14.887  28.018  11.884  0.0974 -0.2881 -0.1732
 2366DOPE   GL127759  15.000  28.036  12.266 -0.2804  0.2740  0.4478
 2366DOPE   GL227760  14.777  27.807  12.347  0.1525 -0.2906 -0.1830
 2366DOPE   C1A27761  15.176  28.176  12.644  0.2234  0.0598  0.3271
 2366DOPE   D2A27762  15.280  28.468  12.940 -0.0763 -0.0148 -0.0194
 2366DOPE   C3A27763  15.023  28.629  13.305 -0.0957 -0.1197  0.0074
 2366DOPE   C4A27764  14.771  28.990  13.270  0.1740  0.1135 -0.2682
 2366DOPE   C1B27765  14.758  27.894  12.779 -0.0047 -0.0068 -0.0447
 2366DOPE   D2B27766  14.594  27.839  13.165 -0.1101 -0.1799 -0.3966
 2366DOPE   C3B27767  14.861  27.634  13.462  0.1577  0.1684  0.1046
 2366DOPE   C4B27768  15.120  27.268  13.427  0.0118  0.4514 -0.1254
 2367DOPS   CNO27769  22.160  34.654  13.016 -0.1261 -0.0620 -0.4257
 2367DOPS   PO427770  22.306  34.753  13.347  0.2014 -0.1476  0.3478
 2367DOPS   GL127771  22.635  34.889  13.685 -0.2123 -0.0260  0.1501
 2367DOPS   GL227772  22.694  34.608  13.746  0.2945  0.0782  0.2412
 2367DOPS   C1A27773  22.973  35.245  13.674  0.1575 -0.0171 -0.3434
 2367DOPS   D2A27774  23.321  35.404  13.911  0.2119  0.0499  0.0144
 2367DOPS   C3A27775  23.344  35.332  14.365  0.0598  0.1425  0.0581
 2367DOPS   C4A27776  23.236  35.006  14.615  0.0742  0.3459 -0.3883
 2367DOPS   C1B27777  22.699  34.624  14.189 -0.1592  0.1220 -0.0635
 2367DOPS   D2B27778  22.774  34.899  14.606 -0.0253  0.1066 -0.1661
 2367DOPS   C3B27779  22.835  35.375  14.647 -0.0386 -0.2633  0.2654
 2367DOPS   C4B27780  22.527  35.727  14.729  0.2030 -0.1158 -0.1781
 2368DOPE   NH327781  23.520  26.266  13.414  0.3049 -0.2144 -0.2119
 2368DOPE   PO427782  23.286  26.204  13.168 -0.4680 -0.2797 -0.2272
 2368DOPE   GL127783  23.011  26.239  13.509 -0.2421  0.1555 -0.1960
 2368DOPE   GL227784  22.990  25.957  13.449 -0.1083  0.0100  0.2709
 2368DOPE   C1A27785  22.754  26.110  13.849  0.2648 -0.1014  0.0092
 2368DOPE   D2A27786  22.495  26.063  14.238  0.2343 -0.1425  0.0797
 2368DOPE   C3A27787  22.066  25.837  14.190 -0.0752  0.1544  0.0210
 2368DOPE   C4A27788  21.979  25.430  13.919  0.3374  0.1133  0.1426
 2368DOPE   C1B27789  23.138  25.520  13.264 -0.1012  0.2232 -0.0041
 2368DOPE   D2B27790  23.001  25.164  12.941 -0.0683  0.1058 -0.0620
 2368DOPE   C3B27791  23.139  24.712  13.025  0.2399  0.0134 -0.3126
 2368DOPE   C4B27792  23.583  24.503  12.984 -0.0172 -0.3421  0.2928
 2369DOPS   CNO27793  17.405  23.995  12.120 -0.2145  0.0890 -0.2097
 2369DOPS   PO427794  17.270  24.201  12.389  0.0520  0.0365  0.0830
 2369DOPS   GL127795  17.069  24.300  12.676  0.1093 -0.2698  0.0821
 2369DOPS   GL227796  17.226  24.454  12.909 -0.2846  0.3901 -0.3799
 2369DOPS   C1A27797  16.712  24.542  12.933 -0.1056  0.3821 -0.3742
 2369DOPS   D2A27798  16.396  24.493  13.323  0.2082  0.2641  0.1298
 2369DOPS   C3A27799  16.219  24.698  13.723 -0.0581 -0.0076  0.3508
 2369DOPS   C4A27800  16.118  25.095  13.873  0.2240 -0.3562 -0.0015
 2369DOPS   C1B27801  17.391  24.275  13.313 -0.0777 -0.0931 -0.0294
 2369DOPS   D2B27802  17.295  23.882  13.583  0.1735 -0.0616 -0.0355
 2369DOPS   C3B27803  17.477  23.468  13.653  0.0444 -0.0029 -0.1424
 2369DOPS   C4B27804  17.794  23.484  13.965  0.0722  0.0680  0.0293
 2370DOPS   CNO27805  23.499  23.108  12.379 -0.0644 -0.1988 -0.2874
 2370DOPS   PO427806  23.229  23.366  12.434 -0.1971  0.1794 -0.0845
 2370DOPS   GL127807  23.261  23.659  12.751  0.2825 -0.1516 -0.2069
 2370DOPS   GL227808  23.060  23.579  12.986 -0.0756  0.0099 -0.2952
 2370DOPS   C1A27809  23.238  24.072  12.955 -0.3998  0.5022  0.2127
 2370DOPS   D2A27810  23.196  24.349  13.356 -0.1581 -0.1446 -0.2529
 2370DOPS   C3A27811  23.105  24.305  13.814  0.1765  0.2441  0.3306
 2370DOPS   C4A27812  23.115  24.033  14.171 -0.0291 -0.0638  0.0340
 2370DOPS   C1B27813  22.903  23.869  13.301 -0.3349  0.0974 -0.3585
 2370DOPS   D2B27814  22.673  24.213  13.532  0.0518 -0.1346 -0.0657
 2370DOPS   C3B27815  22.511  24.313  13.958 -0.0741 -0.1558  0.0290
 2370DOPS   C4B27816  22.407  24.380  14.386  0.2286 -0.0417  0.1500
 2371DOPC   NC327817  17.320  24.690  12.458 -0.2012  0.0054 -0.0164
 2371DOPC   PO427818  17.441  24.999  12.296  0.1596  0.3143  0.3088
 2371DOPC   GL127819  17.013  25.097  12.398  0.1213 -0.3407  0.2054
 2371DOPC   GL227820  16.989  25.086  12.649  0.1908  0.1147 -0.3789
 2371DOPC   C1A27821  16.653  25.382  12.227  0.0808 -0.4788  0.0225
 2371DOPC   D2A27822  16.272  25.481  12.066 -0.1181 -0.2320  0.3302
 2371DOPC   C3A27823  15.898  25.258  11.895 -0.0581  0.0239 -0.0748
 2371DOPC   C4A27824  15.477  25.110  11.759  0.1355  0.0745 -0.0661
 2371DOPC   C1B27825  16.805  25.012  13.133  0.2585 -0.0980 -0.0153
 2371DOPC   D2B27826  16.441  25.050  13.465  0.1714 -0.2415  0.3394
 2371DOPC   C3B27827  15.996  25.244  13.333 -0.1155 -0.3512 -0.0048
 2371DOPC   C4B27828  15.582  25.134  13.359 -0.4080 -0.1058 -0.2798
 2372DOPC   NC327829  22.362  29.961  13.824  0.0809 -0.3233  0.2769
 2372DOPC   PO427830  22.109  29.901  13.553 -0.0125 -0.2188  0.0119
 2372DOPC   GL127831  21.933  29.830  13.863 -0.2808  0.1432 -0.3093
 2372DOPC   GL227832  21.935  30.113  14.016  0.1454  0.0076  0.2648
 2372DOPC   C1A27833  21.988  29.503  14.238 -0.3404 -0.1132  0.4149
 2372DOPC   D2A27834  22.160  29.445  14.636 -0.0927  0.3413 -0.3283
 2372DOPC   C3A27835  21.874  29.394  15.013  0.2577 -0.2582 -0.1026
 2372DOPC   C4A27836  21.463  29.414  15.226  0.0275  0.0954  0.0512
 2372DOPC   C1B27837  22.107  29.981  14.395  0.1423 -0.2083 -0.0477
 2372DOPC   D2B27838  22.281  29.934  14.843 -0.0165  0.3533 -0.0394
 2372DOPC   C3B27839  22.739  29.890  14.980  0.0596 -0.1414 -0.0356
 2372DOPC   C4B27840  23.131  30.053  14.932  0.4107  0.0287 -0.0037
 2373DOPE   NH327841  18.300  26.436  12.916 -0.2018 -0.1642  0.2048
 2373DOPE   PO427842  18.555  26.635  12.926 -0.0187 -0.0544  0.1546
 2373DOPE   GL127843  18.814  26.583  13.319 -0.0390 -0.0566  0.0050
 2373DOPE   GL227844  18.554  26.423  13.398 -0.0525  0.1465 -0.0620
 2373DOPE   C1A27845  19.043  26.853  13.591  0.3029 -0.2340  0.3460
 2373DOPE   D2A27846  19.264  27.024  13.989  0.0241  0.0745 -0.1094
 2373DOPE   C3A27847  19.021  27.280  14.212  0.2011 -0.0001  0.2937
 2373DOPE   C4A27848  18.637  27.502  14.281 -0.3368  0.0606 -0.1319
 2373DOPE   C1B27849  18.296  26.781  13.456 -0.1526  0.1293 -0.0648
 2373DOPE   D2B27850  17.833  26.872  13.463  0.1250 -0.1331  0.2817
 2373DOPE   C3B27851  17.507  27.072  13.723 -0.0212 -0.5370 -0.0709
 2373DOPE   C4B27852  17.377  26.987  14.150  0.0136  0.1232  0.0120
 2374DOPC   NC327853  21.516   0.571  13.035  0.1008  0.0613  0.1494
 2374DOPC   PO427854  21.360   0.285  13.280  0.1617 -0.1052  0.0568
 2374DOPC   GL127855  21.193   0.241  13.628 -0.0371 -0.0100 -0.0171
 2374DOPC   GL227856  21.298  -0.057  13.666 -0.1762  0.0635  0.4360
 2374DOPC   C1A27857  21.354   0.311  14.092  0.1647 -0.1575 -0.0799
 2374DOPC   D2A27858  21.148   0.467  14.488 -0.1182  0.0102  0.0349
 2374DOPC   C3A27859  20.697   0.501  14.390 -0.0373  0.0772  0.1470
 2374DOPC   C4A27860  20.260   0.344  14.447 -0.2375  0.0080 -0.2610
 2374DOPC   C1B27861  21.372  -0.196  14.040 -0.2164  0.0188 -0.3294
 2374DOPC   D2B27862  21.554  -0.466  14.308  0.1774 -0.2306 -0.1752
 2374DOPC   C3B27863  21.990  -0.369  14.353  0.2079  0.2143 -0.1398
 2374DOPC   C4B27864  22.298  -0.085  14.480 -0.2276 -0.0761 -0.1143
 2375POSM   NC327865  17.987  25.881  12.432  0.0985 -0.1406 -0.2154
 2375POSM   PO427866  17.647  26.053  12.567  0.0049 -0.0321  0.0176
 2375POSM   AM127867  17.618  25.961  12.880  0.3810 -0.2116 -0.0378
 2375POSM   AM227868  17.624  25.750  13.080  0.1809 -0.2366 -0.3203
 2375POSM   T1A27869  17.293  26.028  13.308  0.1350 -0.1426  0.0274
 2375POSM   C2A27870  17.120  25.745  13.595 -0.0963  0.1420  0.1147
 2375POSM   C3A27871  17.086  25.529  14.013  0.1665  0.1933  0.1191
 2375POSM   C1B27872  17.639  25.589  13.407  0.0498  0.0997  0.2853
 2375POSM   D2B27873  17.584  25.422  13.843 -0.1834 -0.0793  0.0575
 2375POSM   C3B27874  17.518  25.127  14.188 -0.0242  0.0725 -0.2274
 2375POSM   C4B27875  17.341  24.781  14.465  0.0860  0.0791 -0.0876
 2376DOPC   NC327876  15.326  31.349  11.443  0.0097  0.0554 -0.1761
 2376DOPC   PO427877  15.049  31.094  11.516  0.2117 -0.1123 -0.2023
 2376DOPC   GL127878  15.142  30.687  11.798 -0.1076  0.2389 -0.0544
 2376DOPC   GL227879  15.288  30.382  11.789  0.0149  0.2636 -0.0582
 2376DOPC   C1A27880  15.158  30.709  12.285 -0.2483 -0.0218  0.3192
 2376DOPC   D2A27881  15.278  30.667  12.723 -0.3224  0.2197 -0.0704
 2376DOPC   C3A27882  15.182  30.814  13.149  0.3770  0.1631 -0.5247
 2376DOPC   C4A27883  15.332  30.720  13.563 -0.2149  0.3924  0.0005
 2376DOPC   C1B27884  15.178  30.212  12.206 -0.0624  0.0370 -0.3826
 2376DOPC   D2B27885  15.365  29.882  12.453 -0.0791  0.1455  0.0018
 2376DOPC   C3B27886  15.607  30.136  12.835 -0.1283  0.2552  0.3950
 2376DOPC   C4B27887  15.436  30.406  13.126 -0.1546  0.1555  0.0903
 2377DOPC   NC327888  18.453  32.147  12.364 -0.0376 -0.0184 -0.3621
 2377DOPC   PO427889  18.491  32.009  12.735 -0.1321 -0.3208  0.0824
 2377DOPC   GL127890  18.779  32.058  13.048  0.0490  0.1638 -0.3532
 2377DOPC   GL227891  19.064  32.179  13.039  0.0468  0.2951  0.1331
 2377DOPC   C1A27892  18.759  32.055  13.535  0.1414  0.1329  0.3342
 2377DOPC   D2A27893  18.816  31.961  13.951  0.3044 -0.0728  0.1915
 2377DOPC   C3A27894  18.551  32.174  14.267  0.0055 -0.1426 -0.1282
 2377DOPC   C4A27895  18.314  32.436  14.546 -0.1867  0.0500  0.2067
 2377DOPC   C1B27896  19.137  31.836  13.290  0.2781 -0.0288  0.1152
 2377DOPC   D2B27897  19.242  31.822  13.734  0.0694 -0.0903 -0.0104
 2377DOPC   C3B27898  19.288  32.062  14.152 -0.1490  0.1779  0.0259
 2377DOPC   C4B27899  19.587  32.189  14.465  0.1753 -0.1756 -0.0844
 2378DOPE   NH327900  14.772  32.271  11.835  0.1716 -0.1577 -0.1207
 2378DOPE   PO427901  14.583  32.035  11.683 -0.0697  0.4490 -0.0043
 2378DOPE   GL127902  14.724  31.827  12.075 -0.0816  0.0437  0.3361
 2378DOPE   GL227903  14.607  31.879  12.366 -0.0041 -0.0097  0.1515
 2378DOPE   C1A27904  14.979  32.164  12.350  0.0376  0.1463 -0.1560
 2378DOPE   D2A27905  15.324  32.294  12.585  0.0101  0.1415 -0.1985
 2378DOPE   C3A27906  15.123  32.297  13.007  0.0736 -0.1912 -0.0153
 2378DOPE   C4A27907  14.814  32.280  13.329 -0.3105  0.0604  0.1779
 2378DOPE   C1B27908  14.334  32.240  12.257  0.1650  0.2944  0.3809
 2378DOPE   D2B27909  13.883  32.432  12.336 -0.1117 -0.0497  0.2851
 2378DOPE   C3B27910  13.495  32.736  12.418 -0.1864 -0.0611  0.0794
 2378DOPE   C4B27911  13.210  32.802  12.795 -0.0529  0.0037 -0.0139
 2379DOPE   NH327912  13.789  33.944  11.161  0.1004 -0.2357  0.0330
 2379DOPE   PO427913  13.515  34.085  11.145  0.3090 -0.1855  0.0337
 2379DOPE   GL127914  13.391  34.202  11.557  0.3513  0.5196 -0.2168
 2379DOPE   GL227915  13.159  34.203  11.509  0.3411 -0.0188  0.0830
 2379DOPE   C1A27916  13.662  33.942  11.878  0.1636  0.3015 -0.3192
 2379DOPE   D2A27917  13.759  33.641  12.186 -0.3186 -0.3251 -0.0461
 2379DOPE   C3A27918  13.969  33.414  12.514 -0.1215 -0.1077 -0.1748
 2379DOPE   C4A27919  14.329  33.246  12.701 -0.3136 -0.0425 -0.0241
 2379DOPE   C1B27920  13.022  33.966  11.843 -0.2358 -0.0670  0.0634
 2379DOPE   D2B27921  13.289  33.871  12.253  0.0859 -0.0155  0.0196
 2379DOPE   C3B27922  13.298  34.217  12.509  0.0498  0.4961  0.1081
 2379DOPE   C4B27923  13.300  34.536  12.845 -0.2835 -0.1834 -0.2094
 2380DOPC   NC327924  11.739  29.236  11.779 -0.0131 -0.0548 -0.0256
 2380DOPC   PO427925  11.511  29.499  11.545 -0.0854 -0.1967 -0.2201
 2380DOPC   GL127926  11.509  29.599  12.038  0.1185 -0.0968  0.3896
 2380DOPC   GL227927  11.328  29.354  12.075  0.1091  0.0813  0.0350
 2380DOPC   C1A27928  11.505  29.845  12.442  0.0542 -0.0157 -0.0475
 2380DOPC   D2A27929  11.384  30.057  12.820  0.1121 -0.0352 -0.1200
 2380DOPC   C3A27930  10.936  30.211  12.792 -0.1855 -0.2578 -0.1547
 2380DOPC   C4A27931  10.680  29.952  12.607 -0.1038  0.0154  0.1832
 2380DOPC   C1B27932  11.317  29.176  12.570 -0.1016  0.0130  0.1226
 2380DOPC   D2B27933  11.006  28.790  12.739 -0.0983 -0.0023 -0.2770
 2380DOPC   C3B27934  10.963  28.481  13.031 -0.2522  0.0678  0.0680
 2380DOPC   C4B27935  10.659  28.123  13.108  0.0914 -0.3509  0.4158
 2381DOPE   NH327936  21.675  29.605  13.551  0.1957 -0.2020 -0.1161
 2381DOPE   PO427937  21.547  29.299  13.665 -0.0559 -0.1519 -0.1711
 2381DOPE   GL127938  21.754  29.161  13.934  0.1277 -0.1231 -0.0891
 2381DOPE   GL227939  21.903  28.888  13.796 -0.2805 -0.0577  0.2544
 2381DOPE   C1A27940  21.554  29.250  14.335  0.2318  0.1308 -0.0976
 2381DOPE   D2A27941  21.358  29.306  14.750 -0.1971  0.3122  0.1282
 2381DOPE   C3A27942  21.312  29.792  14.824 -0.0930 -0.0659  0.1340
 2381DOPE   C4A27943  21.147  29.893  15.215 -0.2525  0.0860  0.0284
 2381DOPE   C1B27944  21.845  28.866  14.264  0.3151 -0.0038  0.1664
 2381DOPE   D2B27945  21.882  28.970  14.726 -0.0427 -0.0343  0.0599
 2381DOPE   C3B27946  21.478  28.857  14.988 -0.0294  0.0437  0.1761
 2381DOPE   C4B27947  21.147  28.892  15.206 -0.1186  0.1642 -0.0793
 2382DOPS   CNO27948  17.767  33.175  12.793  0.0635  0.0659 -0.0691
 2382DOPS   PO427949  17.928  33.489  12.612  0.0764 -0.1686 -0.0579
 2382DOPS   GL127950  17.909  33.600  12.978  0.3454  0.1435 -0.2695
 2382DOPS   GL227951  18.049  33.906  13.007  0.2515 -0.2293 -0.1704
 2382DOPS   C1A27952  18.127  33.528  13.353 -0.5486  0.0538 -0.0553
 2382DOPS   D2A27953  18.393  33.234  13.593  0.3191 -0.0952 -0.0389
 2382DOPS   C3A27954  18.104  32.927  13.825 -0.0101  0.2359 -0.1892
 2382DOPS   C4A27955  18.243  32.590  14.086 -0.1605 -0.3787 -0.2662
 2382DOPS   C1B27956  18.396  33.983  13.266 -0.1455 -0.0017 -0.2653
 2382DOPS   D2B27957  18.501  34.246  13.656 -0.3222  0.1660 -0.0343
 2382DOPS   C3B27958  18.207  34.391  13.966 -0.0661  0.1829  0.0632
 2382DOPS   C4B27959  18.124  34.523  14.406 -0.3504  0.2957 -0.3809
 2383DOPC   NC327960  14.344  32.713  11.287  0.0825 -0.2734 -0.2159
 2383DOPC   PO427961  14.730  32.598  11.306  0.1455  0.1775  0.0066
 2383DOPC   GL127962  14.639  32.625  11.617  0.1510  0.2135 -0.2019
 2383DOPC   GL227963  14.695  32.963  11.653  0.0232  0.0648 -0.0406
 2383DOPC   C1A27964  14.302  32.635  11.913  0.1064 -0.0141 -0.2694
 2383DOPC   D2A27965  14.206  32.901  12.292  0.2807  0.5217  0.2462
 2383DOPC   C3A27966  13.904  32.941  12.675  0.0037 -0.3611  0.0628
 2383DOPC   C4A27967  13.630  32.963  13.044 -0.2223 -0.0611  0.3218
 2383DOPC   C1B27968  14.764  33.360  11.940 -0.1541 -0.2953  0.1124
 2383DOPC   D2B27969  14.734  33.865  11.984 -0.3308  0.0425 -0.2363
 2383DOPC   C3B27970  14.591  33.932  12.437  0.2083  0.7386  0.1399
 2383DOPC   C4B27971  14.360  34.188  12.660  0.2578  0.3506 -0.0633
 2384POSM   NC327972  20.974  29.933  13.103  0.1672  0.2931 -0.2903
 2384POSM   PO427973  21.093  29.978  13.480  0.1542  0.0080  0.0601
 2384POSM   AM127974  20.951  30.051  13.764  0.0265  0.3595 -0.0900
 2384POSM   AM227975  21.056  30.057  14.056 -0.0240 -0.2523 -0.0637
 2384POSM   T1A27976  20.622  30.341  14.007  0.0240 -0.2038 -0.1928
 2384POSM   C2A27977  20.409  30.655  14.236  0.2704 -0.1659 -0.2713
 2384POSM   C3A27978  20.299  31.077  14.412 -0.0849 -0.1300 -0.4501
 2384POSM   C1B27979  21.003  30.129  14.397 -0.2046 -0.0851  0.0468
 2384POSM   D2B27980  20.931  30.078  14.830  0.0858 -0.0642 -0.0820
 2384POSM   C3B27981  20.509  30.259  14.901 -0.0403 -0.2790  0.0610
 2384POSM   C4B27982  20.433  30.484  15.247  0.1386  0.0703  0.0357
 2385DOPC   NC327983  14.217  30.851  11.276  0.3124  0.3496  0.0954
 2385DOPC   PO427984  14.029  30.567  11.522  0.0821  0.1455  0.1124
 2385DOPC   GL127985  13.699  30.489  11.704  0.0138  0.2885 -0.2571
 2385DOPC   GL227986  13.798  30.518  11.974  0.0508  0.1118  0.0608
 2385DOPC   C1A27987  13.729  30.029  11.870  0.4072 -0.1435 -0.0565
 2385DOPC   D2A27988  13.385  29.792  12.055  0.0877 -0.3025 -0.1196
 2385DOPC   C3A27989  13.110  29.601  12.319 -0.1465  0.2763 -0.0626
 2385DOPC   C4A27990  13.219  29.552  12.792 -0.0629 -0.0462  0.1258
 2385DOPC   C1B27991  13.653  30.268  12.280 -0.0412 -0.0694 -0.0003
 2385DOPC   D2B27992  13.456  29.918  12.551 -0.0675 -0.0802 -0.3115
 2385DOPC   C3B27993  13.652  29.526  12.565 -0.0310  0.1909 -0.3053
 2385DOPC   C4B27994  13.795  29.100  12.348 -0.0044 -0.1599 -0.0196
 2386POSM   NC327995  17.274  31.600  11.973 -0.1551  0.2098  0.0917
 2386POSM   PO427996  17.530  31.246  11.995  0.0127 -0.0356  0.1516
 2386POSM   AM127997  17.498  31.396  12.289  0.0004  0.1094  0.2135
 2386POSM   AM227998  17.659  31.568  12.468 -0.0429 -0.1643  0.0420
 2386POSM   T1A27999  17.232  31.573  12.712 -0.0351 -0.0081 -0.1694
 2386POSM   C2A28000  16.975  31.490  13.071  0.1914 -0.1293  0.1925
 2386POSM   C3A28001  16.562  31.264  13.188  0.1147  0.0134  0.1934
 2386POSM   C1B28002  17.763  31.566  12.813 -0.1205 -0.1109  0.0627
 2386POSM   D2B28003  18.126  31.577  13.175  0.0454 -0.1191 -0.1081
 2386POSM   C3B28004  18.071  31.836  13.566  0.0228 -0.2793 -0.0274
 2386POSM   C4B28005  18.324  32.101  13.794  0.2077 -0.2667 -0.1612
 2387DOPE   NH328006  14.731  28.724  11.644 -0.1538 -0.1693 -0.1381
 2387DOPE   PO428007  14.781  29.045  11.523  0.0151 -0.1177 -0.1060
 2387DOPE   GL128008  14.873  29.157  11.865 -0.1703  0.0686 -0.1983
 2387DOPE   GL228009  14.997  29.198  12.110 -0.0762  0.0225  0.3436
 2387DOPE   C1A28010  14.770  29.616  11.955  0.4623  0.2937 -0.0753
 2387DOPE   D2A28011  14.783  29.959  12.238 -0.1134  0.0608 -0.2032
 2387DOPE   C3A28012  14.906  30.012  12.661 -0.0489  0.1059  0.0127
 2387DOPE   C4A28013  14.764  29.878  13.112 -0.1749  0.3365  0.0191
 2387DOPE   C1B28014  14.925  29.542  12.432  0.2897 -0.2107  0.2829
 2387DOPE   D2B28015  15.126  29.639  12.835  0.0497 -0.3671 -0.3703
 2387DOPE   C3B28016  15.549  29.635  12.964 -0.2023  0.3020  0.2590
 2387DOPE   C4B28017  15.963  29.781  13.005 -0.2149  0.3090  0.2031
 2388DOPE   NH328018  21.468  29.762  14.017  0.3601 -0.0083  0.0025
 2388DOPE   PO428019  21.236  29.668  13.837  0.1022 -0.0083  0.0556
 2388DOPE   GL128020  20.963  29.538  14.158  0.1692 -0.4339  0.0985
 2388DOPE   GL228021  21.136  29.629  14.385  0.2857 -0.3536  0.0299
 2388DOPE   C1A28022  21.039  29.109  14.329 -0.1415  0.0343 -0.1164
 2388DOPE   D2A28023  21.106  28.781  14.630 -0.1752  0.1649  0.3498
 2388DOPE   C3A28024  20.943  28.376  14.699  0.3844 -0.3734  0.1838
 2388DOPE   C4A28025  20.532  28.208  14.752 -0.1302 -0.0502  0.2317
 2388DOPE   C1B28026  20.734  29.464  14.592  0.0067  0.2864  0.2570
 2388DOPE   D2B28027  20.287  29.353  14.728  0.1941 -0.0297  0.0056
 2388DOPE   C3B28028  20.342  29.368  15.181 -0.1441 -0.1796 -0.2527
 2388DOPE   C4B28029  20.545  29.263  15.560  0.0553  0.0482 -0.0092
 2389DOPS   CNO28030  18.307  23.418  12.152 -0.0250  0.0423  0.1087
 2389DOPS   PO428031  18.265  23.367  12.514 -0.3687 -0.0077  0.0061
 2389DOPS   GL128032  18.526  23.113  12.826 -0.2681  0.1726 -0.0610
 2389DOPS   GL228033  18.651  23.383  12.990  0.0858  0.1142 -0.4833
 2389DOPS   C1A28034  18.306  22.781  13.108 -0.3800 -0.2016 -0.1542
 2389DOPS   D2A28035  18.439  22.398  13.265  0.1755  0.1965  0.0775
 2389DOPS   C3A28036  18.663  22.001  13.431 -0.0675 -0.0253 -0.0047
 2389DOPS   C4A28037  19.050  21.747  13.617  0.0560  0.1421  0.2485
 2389DOPS   C1B28038  18.977  23.613  13.223  0.1067 -0.0703  0.0710
 2389DOPS   D2B28039  19.375  23.818  13.342 -0.3765 -0.1926  0.0162
 2389DOPS   C3B28040  19.494  23.771  13.804 -0.0033  0.0121 -0.2308
 2389DOPS   C4B28041  19.577  23.580  14.217 -0.0322  0.4050  0.1740
 2390DOPE   NH328042  13.595  24.299  11.678  0.2408  0.3895 -0.0480
 2390DOPE   PO428043  13.524  24.187  11.971 -0.0419  0.0117  0.0544
 2390DOPE   GL128044  13.118  24.357  12.145  0.4836 -0.1466 -0.0638
 2390DOPE   GL228045  13.132  24.486  11.916  0.0561  0.1048  0.0147
 2390DOPE   C1A28046  12.980  24.465  12.577 -0.1460  0.1029  0.1070
 2390DOPE   D2A28047  13.044  24.506  13.081  0.0114  0.1856  0.0985
 2390DOPE   C3A28048  12.995  24.970  13.117 -0.2584 -0.1940 -0.0331
 2390DOPE   C4A28049  12.740  25.330  13.299 -0.0601  0.0775  0.0134
 2390DOPE   C1B28050  13.194  24.800  12.200 -0.1493 -0.1782  0.0055
 2390DOPE   D2B28051  13.066  24.972  12.605  0.1801 -0.1618  0.0250
 2390DOPE   C3B28052  12.670  25.161  12.808 -0.1820 -0.1295  0.2358
 2390DOPE   C4B28053  12.543  25.624  12.805 -0.0604  0.0144  0.0620
 2391DOPE   NH328054  19.416  24.949  12.434 -0.0434 -0.0661 -0.3274
 2391DOPE   PO428055  19.576  24.716  12.600  0.2019  0.1893 -0.0763
 2391DOPE   GL128056  19.625  24.427  12.327 -0.1587 -0.2553 -0.4272
 2391DOPE   GL228057  19.857  24.266  12.497 -0.0828  0.0567 -0.1531
 2391DOPE   C1A28058  19.996  24.483  12.072 -0.3951  0.1234  0.1261
 2391DOPE   D2A28059  20.466  24.567  12.043 -0.5094  0.2241 -0.1748
 2391DOPE   C3A28060  20.830  24.603  12.266 -0.0235 -0.0501  0.0410
 2391DOPE   C4A28061  20.995  24.963  12.437  0.2535  0.2101  0.0215
 2391DOPE   C1B28062  20.303  24.310  12.666 -0.0131 -0.1335  0.1418
 2391DOPE   D2B28063  20.791  24.411  12.702 -0.1315 -0.3270  0.1075
 2391DOPE   C3B28064  20.915  24.269  13.133 -0.0475 -0.0553  0.1059
 2391DOPE   C4B28065  20.759  23.888  13.325 -0.0900  0.1349  0.2805
 2392POSM   NC328066  23.530  31.715  13.795 -0.1781 -0.0265 -0.0489
 2392POSM   PO428067  23.222  31.649  13.520  0.2042  0.0199 -0.2878
 2392POSM   AM128068  23.075  31.938  13.569  0.0633 -0.3814 -0.1370
 2392POSM   AM228069  23.107  32.219  13.429  0.2057 -0.0292  0.1324
 2392POSM   T1A28070  22.744  32.198  13.834  0.0991 -0.1524 -0.2506
 2392POSM   C2A28071  22.460  32.445  14.094  0.0022  0.0086 -0.3900
 2392POSM   C3A28072  22.513  32.511  14.545  0.3183 -0.0577  0.1584
 2392POSM   C1B28073  22.802  32.396  13.395 -0.1211  0.0654 -0.3787
 2392POSM   D2B28074  22.453  32.657  13.549  0.1212  0.3101  0.1857
 2392POSM   C3B28075  22.390  33.105  13.460 -0.0157 -0.0666  0.0419
 2392POSM   C4B28076  22.163  33.434  13.687 -0.1731  0.2749 -0.1746
 2393DOPC   NC328077  22.985  31.227  13.470  0.3703 -0.1389  0.0893
 2393DOPC   PO428078  22.722  31.121  13.188 -0.0783 -0.2285 -0.0244
 2393DOPC   GL128079  22.349  31.413  13.274  0.2243  0.1971 -0.0052
 2393DOPC   GL228080  22.409  31.323  13.571  0.1197 -0.2027  0.1402
 2393DOPC   C1A28081  22.051  31.612  13.008  0.0280 -0.1079 -0.2359
 2393DOPC   D2A28082  22.015  32.016  12.814 -0.0707  0.2016  0.1009
 2393DOPC   C3A28083  21.805  32.246  13.152 -0.0464 -0.3054  0.0046
 2393DOPC   C4A28084  21.569  32.658  13.345 -0.0516 -0.0444  0.1150
 2393DOPC   C1B28085  22.753  31.316  13.907 -0.2309  0.2543  0.3158
 2393DOPC   D2B28086  23.094  31.671  14.004 -0.0814  0.1114 -0.0115
 2393DOPC   C3B28087  23.453  31.732  14.284 -0.3979 -0.0691 -0.1751
 2393DOPC   C4B28088  23.587  31.769  14.707  0.3137 -0.0923  0.0137
 2394DOPC   NC328089  16.729  23.407  12.354 -0.0467 -0.2836 -0.1111
 2394DOPC   PO428090  17.007  23.698  12.292  0.0550  0.1613  0.3375
 2394DOPC   GL128091  16.871  24.025  12.413  0.0940 -0.1983 -0.1208
 2394DOPC   GL228092  16.667  24.067  12.261  0.1784  0.1130  0.0308
 2394DOPC   C1A28093  16.598  24.125  12.759 -0.2478  0.1362  0.1609
 2394DOPC   D2A28094  16.519  23.936  13.137 -0.2601 -0.6315  0.0010
 2394DOPC   C3A28095  16.872  24.236  13.315 -0.0360 -0.2336 -0.0045
 2394DOPC   C4A28096  16.964  24.242  13.737 -0.3826  0.0180  0.0655
 2394DOPC   C1B28097  16.404  24.391  12.453 -0.0651 -0.0261  0.1568
 2394DOPC   D2B28098  16.168  24.513  12.849  0.2035  0.2803 -0.0221
 2394DOPC   C3B28099  15.830  24.823  12.687 -0.0259  0.0174 -0.0588
 2394DOPC   C4B28100  15.720  25.232  12.886  0.0613 -0.2309  0.3672
 2395DOPE   NH328101  14.331  24.225  11.320 -0.1268  0.4182  0.0502
 2395DOPE   PO428102  14.628  24.328  11.192  0.1090  0.5103  0.0061
 2395DOPE   GL128103  14.914  24.422  11.499 -0.3247  0.0496 -0.0132
 2395DOPE   GL228104  14.887  24.624  11.763 -0.1520 -0.1727  0.0728
 2395DOPE   C1A28105  15.341  24.448  11.778  0.1829  0.3597 -0.0116
 2395DOPE   D2A28106  15.760  24.348  11.915 -0.0760 -0.0397  0.3664
 2395DOPE   C3A28107  15.860  24.168  12.333  0.2472  0.1965 -0.1289
 2395DOPE   C4A28108  15.664  24.293  12.758 -0.2969 -0.2613  0.1007
 2395DOPE   C1B28109  14.708  24.771  12.150  0.3164 -0.0060  0.0827
 2395DOPE   D2B28110  14.751  24.931  12.579 -0.4069 -0.1371 -0.1025
 2395DOPE   C3B28111  14.866  24.789  13.011 -0.2790  0.0231  0.3057
 2395DOPE   C4B28112  14.923  24.459  13.417  0.0888  0.3567  0.1610
 2396DOPE   NH328113  19.632  26.436  12.831  0.0952  0.0657  0.1742
 2396DOPE   PO428114  19.597  26.721  12.745  0.0666 -0.2544 -0.0208
 2396DOPE   GL128115  20.026  26.670  12.871  0.2048  0.1137  0.1805
 2396DOPE   GL228116  20.218  26.703  12.676 -0.0455 -0.0460  0.1200
 2396DOPE   C1A28117  20.101  26.682  13.344  0.1805  0.0425 -0.1352
 2396DOPE   D2A28118  20.351  26.828  13.682  0.1420  0.1325 -0.0278
 2396DOPE   C3A28119  20.553  26.827  14.102  0.2903 -0.1293  0.0106
 2396DOPE   C4A28120  20.772  26.856  14.511  0.1180  0.3099  0.3093
 2396DOPE   C1B28121  20.324  27.061  12.986 -0.1827 -0.0743 -0.0492
 2396DOPE   D2B28122  20.521  27.251  13.386  0.1883 -0.0332 -0.2835
 2396DOPE   C3B28123  20.232  27.321  13.738 -0.0664  0.2185 -0.1604
 2396DOPE   C4B28124  20.036  27.063  14.116  0.1985  0.0107 -0.2606
 2397POSM   NC328125  17.648  24.059  12.667 -0.3144 -0.0899 -0.2373
 2397POSM   PO428126  17.804  24.211  12.335  0.2652  0.0428  0.0509
 2397POSM   AM128127  17.864  24.475  12.505  0.0804 -0.0718 -0.0430
 2397POSM   AM228128  17.724  24.531  12.751  0.3715  0.0214 -0.1408
 2397POSM   T1A28129  17.975  24.908  12.611  0.4564  0.0059  0.1669
 2397POSM   C2A28130  18.048  25.093  13.068  0.0438  0.2676 -0.0115
 2397POSM   C3A28131  18.124  24.803  13.434 -0.1629  0.2475  0.4097
 2397POSM   C1B28132  17.804  24.673  13.052 -0.2315  0.0586 -0.1152
 2397POSM   D2B28133  17.706  24.631  13.475  0.1020  0.1013  0.2165
 2397POSM   C3B28134  17.846  24.922  13.817 -0.1169  0.4533 -0.1197
 2397POSM   C4B28135  17.928  24.848  14.219 -0.0338 -0.1560 -0.2541
 2398POSM   NC328136  20.343  28.473  12.541  0.0280 -0.3091  0.2469
 2398POSM   PO428137  20.216  28.588  12.899  0.0451  0.2655  0.0263
 2398POSM   AM128138  20.110  28.321  13.011 -0.0725  0.1534 -0.0959
 2398POSM   AM228139  20.071  28.047  12.849  0.1052 -0.0491  0.0963
 2398POSM   T1A28140  19.919  28.153  13.402  0.1190 -0.2433 -0.1184
 2398POSM   C2A28141  19.784  27.981  13.813 -0.1012  0.0724 -0.0492
 2398POSM   C3A28142  19.864  28.124  14.248  0.1151  0.3925 -0.0645
 2398POSM   C1B28143  19.898  27.775  12.955 -0.2460  0.2591  0.1377
 2398POSM   D2B28144  19.547  27.659  13.304 -0.1860  0.4577  0.1177
 2398POSM   C3B28145  19.305  28.061  13.457 -0.2177  0.2866 -0.3775
 2398POSM   C4B28146  18.996  28.158  13.840  0.3541 -0.3075 -0.1287
 2399POSM   NC328147  13.053  33.243  11.265  0.0806 -0.0585  0.0744
 2399POSM   PO428148  12.777  33.015  11.086 -0.0904 -0.1387  0.1255
 2399POSM   AM128149  12.949  32.842  11.285  0.3004  0.1812  0.4143
 2399POSM   AM228150  12.873  32.776  11.537  0.2865 -0.2528  0.2002
 2399POSM   T1A28151  13.348  32.643  11.471 -0.1049  0.1844 -0.1230
 2399POSM   C2A28152  13.695  32.376  11.508 -0.0200  0.2215 -0.0243
 2399POSM   C3A28153  13.940  32.187  11.825 -0.2848 -0.1307 -0.0622
 2399POSM   C1B28154  12.815  32.627  11.855  0.1310  0.1705  0.2339
 2399POSM   D2B28155  12.775  32.754  12.354  0.2620 -0.2220 -0.0633
 2399POSM   C3B28156  12.517  32.995  12.664 -0.0589 -0.2654  0.2030
 2399POSM   C4B28157  12.294  32.769  13.002  0.2153  0.0174 -0.1744
 2400POSM   NC328158  22.780  27.812  12.833 -0.0711 -0.1687  0.2191
 2400POSM   PO428159  22.930  27.461  12.771  0.3669 -0.2755 -0.3108
 2400POSM   AM128160  22.822  27.174  12.900 -0.1679  0.1806  0.2760
 2400POSM   AM228161  22.815  26.928  13.030  0.0094  0.1123 -0.1011
 2400POSM   T1A28162  22.459  26.868  12.723  0.4053 -0.0496  0.0661
 2400POSM   C2A28163  22.085  26.532  12.736 -0.0589 -0.1752 -0.2452
 2400POSM   C3A28164  21.825  26.224  12.497  0.1707 -0.0444  0.1375
 2400POSM   C1B28165  22.524  26.966  13.236 -0.1743 -0.2106 -0.1028
 2400POSM   D2B28166  22.283  27.000  13.652  0.3550  0.1594 -0.0103
 2400POSM   C3B28167  21.898  27.069  13.438  0.1218  0.0001 -0.0829
 2400POSM   C4B28168  21.458  27.099  13.507  0.1302  0.0421 -0.1571
 2401DOPC   NC328169  15.343  29.339  11.714  0.4564 -0.3500  0.1777
 2401DOPC   PO428170  15.241  28.946  11.699  0.0473 -0.0433 -0.2933
 2401DOPC   GL128171  15.268  28.816  12.098 -0.1911 -0.1836  0.0154
 2401DOPC   GL228172  15.536  28.913  12.101 -0.0105 -0.0891 -0.1675
 2401DOPC   C1A28173  15.344  28.734  12.524 -0.0555 -0.1917  0.0862
 2401DOPC   D2A28174  15.577  28.876  12.884  0.1202  0.1010 -0.2583
 2401DOPC   C3A28175  15.738  28.635  13.208 -0.2415 -0.2786  0.1722
 2401DOPC   C4A28176  15.901  28.310  13.550  0.1571  0.2410 -0.2603
 2401DOPC   C1B28177  15.668  28.489  12.271 -0.2472 -0.2225 -0.0392
 2401DOPC   D2B28178  15.970  28.195  12.229  0.3031  0.1487 -0.3758
 2401DOPC   C3B28179  16.396  28.376  12.321 -0.0813 -0.1364  0.1081
 2401DOPC   C4B28180  16.550  28.804  12.307 -0.1928 -0.1022 -0.3423
 2402DOPC   NC328181  20.198  24.901  12.322 -0.2716 -0.0865 -0.2089
 2402DOPC   PO428182  19.856  25.157  12.415 -0.1950  0.2669  0.0615
 2402DOPC   GL128183  20.013  24.989  12.761 -0.6501  0.3066  0.3270
 2402DOPC   GL228184  20.161  24.754  12.804  0.1415  0.0907 -0.1250
 2402DOPC   C1A28185  20.243  25.074  13.176  0.0082 -0.0122 -0.0053
 2402DOPC   D2A28186  20.588  25.030  13.427  0.2140  0.1773  0.4920
 2402DOPC   C3A28187  21.031  24.826  13.513 -0.0690  0.0146  0.1763
 2402DOPC   C4A28188  21.325  24.455  13.549 -0.0131 -0.0463 -0.2317
 2402DOPC   C1B28189  20.470  24.535  13.087  0.3277 -0.1303  0.0758
 2402DOPC   D2B28190  20.449  24.409  13.504  0.0180  0.0784 -0.0528
 2402DOPC   C3B28191  20.752  24.291  13.803 -0.5147  0.0331  0.3021
 2402DOPC   C4B28192  20.632  24.036  14.194  0.3375  0.2067 -0.1086
 2403DOPE   NH328193  20.583  30.021  13.471  0.2780  0.0936  0.0556
 2403DOPE   PO428194  20.478  29.862  13.153 -0.0934  0.4688 -0.2594
 2403DOPE   GL128195  20.204  30.186  13.312  0.1514 -0.1061 -0.3449
 2403DOPE   GL228196  19.925  30.171  13.207 -0.0540  0.2703 -0.0973
 2403DOPE   C1A28197  20.205  30.533  13.639  0.1885  0.1357  0.1201
 2403DOPE   D2A28198  19.915  30.439  13.938  0.0947 -0.0696  0.1573
 2403DOPE   C3A28199  19.857  30.724  14.302 -0.2765 -0.0634 -0.0360
 2403DOPE   C4A28200  19.844  30.746  14.804  0.0706  0.3980  0.0320
 2403DOPE   C1B28201  19.746  30.484  13.433 -0.1842 -0.0592  0.1884
 2403DOPE   D2B28202  19.635  30.935  13.508  0.0664  0.1478 -0.1787
 2403DOPE   C3B28203  20.013  31.109  13.609 -0.1948 -0.1065  0.3374
 2403DOPE   C4B28204  20.332  31.045  13.899  0.0468  0.0626  0.3033
 2404DOPC   NC328205  19.134  30.799  12.692  0.3785 -0.3222  0.3958
 2404DOPC   PO428206  19.242  30.547  12.430  0.1599 -0.1294 -0.1370
 2404DOPC   GL128207  19.358  30.370  12.750 -0.7659  0.1945  0.4540
 2404DOPC   GL228208  19.115  30.284  12.879  0.0217  0.0577 -0.0661
 2404DOPC   C1A28209  19.478  30.003  12.988  0.1143  0.0764  0.3069
 2404DOPC   D2A28210  19.273  29.762  13.287  0.1483 -0.1267  0.0211
 2404DOPC   C3A28211  18.854  29.968  13.244  0.0731 -0.1335 -0.3583
 2404DOPC   C4A28212  18.463  30.115  13.334 -0.3045 -0.0746  0.1967
 2404DOPC   C1B28213  19.264  30.251  13.307  0.0209  0.0427 -0.0614
 2404DOPC   D2B28214  19.107  29.987  13.691 -0.3579  0.3170  0.0099
 2404DOPC   C3B28215  18.794  30.066  14.043 -0.1324  0.4076  0.2267
 2404DOPC   C4B28216  18.730  30.041  14.535  0.1415 -0.3559 -0.3299
 2405DOPC   NC328217  22.221  31.109  12.987  0.0355  0.0884  0.0027
 2405DOPC   PO428218  22.302  30.800  13.233 -0.1317 -0.3349 -0.0867
 2405DOPC   GL128219  22.052  30.857  13.475 -0.1180  0.3444 -0.3760
 2405DOPC   GL228220  21.786  30.903  13.484  0.0441 -0.0928 -0.3086
 2405DOPC   C1A28221  22.066  31.110  13.899 -0.0747 -0.1910 -0.1842
 2405DOPC   D2A28222  21.833  31.374  14.198  0.3171  0.1055 -0.2188
 2405DOPC   C3A28223  21.893  31.827  14.214  0.1196 -0.2458  0.3208
 2405DOPC   C4A28224  21.936  32.297  14.102  0.0515 -0.3043  0.0557
 2405DOPC   C1B28225  21.837  31.391  13.545  0.0208  0.0011  0.0399
 2405DOPC   D2B28226  21.958  31.810  13.561 -0.0879 -0.0404 -0.0531
 2405DOPC   C3B28227  21.661  31.992  13.819  0.1557 -0.5188  0.0415
 2405DOPC   C4B28228  21.456  32.207  14.144  0.0609 -0.2551 -0.4603
 2406DOPS   CNO28229  20.709   0.514  12.538  0.2188  0.1441  0.1657
 2406DOPS   PO428230  20.709   0.652  12.870 -0.0410 -0.1120  0.0756
 2406DOPS   GL128231  20.403   0.465  13.027  0.3355  0.0683 -0.1854
 2406DOPS   GL228232  20.367   0.228  12.946 -0.0389 -0.1273  0.2000
 2406DOPS   C1A28233  19.998   0.502  13.271  0.1871  0.0815 -0.1119
 2406DOPS   D2A28234  19.967   0.404  13.692 -0.0395  0.1435  0.1205
 2406DOPS   C3A28235  19.879   0.247  14.112 -0.1977 -0.1013  0.1926
 2406DOPS   C4A28236  19.994  -0.102  14.455 -0.3108 -0.1973 -0.1006
 2406DOPS   C1B28237  20.234  -0.205  13.151  0.1271 -0.2715 -0.1069
 2406DOPS   D2B28238  20.454  -0.474  13.426 -0.2390  0.2231  0.1257
 2406DOPS   C3B28239  20.430  -0.583  13.887 -0.1128 -0.2282  0.2067
 2406DOPS   C4B28240  20.092  -0.897  14.037  0.1122  0.4085 -0.0413
 2407POSM   NC328241  22.708  29.540  12.802 -0.1347 -0.0039 -0.1555
 2407POSM   PO428242  22.409  29.327  12.984  0.1519  0.1285  0.0560
 2407POSM   AM128243  22.439  29.053  13.157  0.0434  0.1037 -0.5271
 2407POSM   AM228244  22.361  29.024  13.436 -0.0174 -0.2168 -0.1784
 2407POSM   T1A28245  22.582  28.566  13.238  0.0937 -0.0272 -0.0063
 2407POSM   C2A28246  22.915  28.236  13.068 -0.1823  0.0435 -0.1399
 2407POSM   C3A28247  23.202  28.045  12.733 -0.5357 -0.1167  0.2140
 2407POSM   C1B28248  22.487  28.794  13.701  0.1411  0.1516  0.1212
 2407POSM   D2B28249  22.704  28.373  13.812  0.0417 -0.0450  0.4924
 2407POSM   C3B28250  22.431  28.140  14.155 -0.2544 -0.2252  0.2889
 2407POSM   C4B28251  22.261  27.963  14.530 -0.1989 -0.1530 -0.0506
 2408DOPS   CNO28252  19.228  31.707  12.451  0.0556  0.0576 -0.2115
 2408DOPS   PO428253  19.013  31.977  12.551 -0.0804 -0.1575  0.0641
 2408DOPS   GL128254  19.392  32.100  12.569 -0.1902 -0.1475 -0.1583
 2408DOPS   GL228255  19.673  31.855  12.567 -0.0816 -0.3170 -0.2142
 2408DOPS   C1A28256  19.521  32.517  12.660 -0.0315 -0.0292  0.0268
 2408DOPS   D2A28257  19.911  32.749  12.823  0.2350 -0.1412  0.0013
 2408DOPS   C3A28258  20.348  32.718  12.785  0.0371 -0.1973  0.0443
 2408DOPS   C4A28259  20.763  32.584  12.770  0.0581  0.1540 -0.1296
 2408DOPS   C1B28260  19.899  32.175  12.659  0.0763  0.1800 -0.2369
 2408DOPS   D2B28261  20.154  32.295  13.048 -0.1194  0.0768 -0.2444
 2408DOPS   C3B28262  19.935  32.382  13.445  0.2505 -0.1447 -0.1686
 2408DOPS   C4B28263  19.990  32.552  13.856 -0.1107 -0.0044  0.2847
 2409POSM   NC328264  14.521  28.845  11.174  0.0219  0.0215  0.2340
 2409POSM   PO428265  14.235  28.921  11.436  0.0427  0.1808 -0.3427
 2409POSM   AM128266  14.211  28.846  11.763  0.1869  0.1598 -0.1437
 2409POSM   AM228267  14.111  28.696  12.006  0.0954 -0.2346  0.2958
 2409POSM   T1A28268  14.381  29.091  12.180  0.1261 -0.1800 -0.0779
 2409POSM   C2A28269  14.196  29.237  12.585  0.0725  0.1456  0.0815
 2409POSM   C3A28270  13.934  29.493  12.960 -0.0340  0.0032  0.0847
 2409POSM   C1B28271  13.939  28.644  12.331  0.2091  0.1537  0.0151
 2409POSM   D2B28272  13.776  28.784  12.731 -0.1360  0.0348 -0.0650
 2409POSM   C3B28273  13.789  28.805  13.199  0.0782 -0.1751 -0.1335
 2409POSM   C4B28274  13.795  28.803  13.650  0.4160 -0.0873  0.1422
 2410DOPC   NC328275  15.242  31.115  11.999 -0.0905 -0.1849 -0.1793
 2410DOPC   PO428276  15.624  31.093  11.861 -0.1310  0.0306  0.1957
 2410DOPC   GL128277  15.700  31.302  12.231 -0.0326 -0.1785 -0.1645
 2410DOPC   GL228278  15.677  31.017  12.375  0.0864 -0.2982  0.2100
 2410DOPC   C1A28279  16.055  31.620  12.300 -0.4437  0.0476 -0.1960
 2410DOPC   D2A28280  16.279  31.822  11.930  0.2025  0.0537  0.5627
 2410DOPC   C3A28281  16.224  32.313  12.022  0.0821  0.5350 -0.1812
 2410DOPC   C4A28282  16.206  32.703  12.180 -0.0560 -0.2477 -0.0243
 2410DOPC   C1B28283  15.290  31.250  12.562 -0.0816 -0.1500 -0.3027
 2410DOPC   D2B28284  15.178  31.718  12.733 -0.0628  0.2995  0.1556
 2410DOPC   C3B28285  15.129  31.831  13.175  0.1896 -0.5311 -0.1473
 2410DOPC   C4B28286  15.243  32.008  13.590 -0.2570  0.0832 -0.4494
 2411DOPC   NC328287  20.943  28.718  13.816 -0.1630  0.2519  0.0028
 2411DOPC   PO428288  20.752  28.642  13.505  0.1526 -0.0453 -0.0327
 2411DOPC   GL128289  20.713  28.306  13.746  0.4058 -0.1619  0.0207
 2411DOPC   GL228290  20.583  28.128  13.599  0.1211  0.0830  0.0346
 2411DOPC   C1A28291  20.360  28.348  13.996  0.1266  0.2076 -0.2675
 2411DOPC   D2A28292  20.206  28.387  14.476  0.2624  0.2178  0.1788
 2411DOPC   C3A28293  20.423  28.706  14.760  0.0517  0.0381 -0.0721
 2411DOPC   C4A28294  20.649  29.012  14.934  0.1648  0.1004  0.1838
 2411DOPC   C1B28295  21.013  27.957  13.798 -0.0846 -0.0730  0.1805
 2411DOPC   D2B28296  21.184  27.527  13.912  0.3390 -0.1842  0.0480
 2411DOPC   C3B28297  21.623  27.369  13.849 -0.4358  0.0492 -0.0200
 2411DOPC   C4B28298  22.046  27.279  14.009  0.4115  0.1286  0.1208
 2412DOPC   NC328299  13.407  24.712  11.414 -0.2008  0.2257 -0.1804
 2412DOPC   PO428300  13.655  24.837  11.670 -0.0865  0.2925 -0.0516
 2412DOPC   GL128301  13.591  24.882  11.988  0.2356  0.2829  0.2486
 2412DOPC   GL228302  13.888  25.055  12.037  0.5363  0.1484  0.1918
 2412DOPC   C1A28303  13.726  24.786  12.449  0.0356  0.2371 -0.1889
 2412DOPC   D2A28304  13.450  24.656  12.786  0.2739  0.4345  0.0058
 2412DOPC   C3A28305  13.646  24.399  13.143  0.1296  0.1321  0.0758
 2412DOPC   C4A28306  13.744  24.503  13.544  0.1822 -0.0680 -0.0379
 2412DOPC   C1B28307  14.022  25.343  12.334  0.0091 -0.1218  0.1411
 2412DOPC   D2B28308  14.298  25.471  12.647 -0.2074 -0.1137 -0.0921
 2412DOPC   C3B28309  14.614  25.247  12.959  0.1331  0.1193 -0.0999
 2412DOPC   C4B28310  14.900  25.271  13.248 -0.0256 -0.0922 -0.2210
 2413POSM   NC328311  21.169   0.129  12.470  0.2402 -0.0296 -0.1771
 2413POSM   PO428312  21.049   0.301  12.874 -0.0215 -0.2777  0.1310
 2413POSM   AM128313  20.789   0.124  12.800 -0.1084 -0.1883  0.2889
 2413POSM   AM228314  20.742  -0.146  12.926  0.2491 -0.2412 -0.1125
 2413POSM   T1A28315  20.371   0.059  12.439 -0.0691 -0.2980  0.1409
 2413POSM   C2A28316  19.910   0.069  12.433  0.0272  0.4248  0.0226
 2413POSM   C3A28317  19.466   0.232  12.499 -0.1851  0.1002 -0.0125
 2413POSM   C1B28318  20.604  -0.317  12.712  0.1124 -0.0209  0.1971
 2413POSM   D2B28319  20.584  -0.685  12.497 -0.0699 -0.2523  0.2172
 2413POSM   C3B28320  20.344  -1.061  12.602  0.0755  0.0076 -0.0568
 2413POSM   C4B28321  20.205  -1.472  12.878  0.3460  0.0303 -0.1728
 2414POSM   NC328322  14.623  26.699  11.910 -0.1775  0.0570 -0.1160
 2414POSM   PO428323  14.965  26.967  11.891 -0.1879 -0.2775 -0.2245
 2414POSM   AM128324  15.044  26.771  12.142  0.0925  0.0187  0.1766
 2414POSM   AM228325  15.107  26.872  12.416  0.4742  0.0447  0.1558
 2414POSM   T1A28326  15.107  26.323  12.213 -0.2651  0.1240  0.0974
 2414POSM   C2A28327  15.084  25.970  12.496 -0.0797  0.1828  0.1554
 2414POSM   C3A28328  14.928  25.796  12.930  0.1829 -0.0685 -0.0184
 2414POSM   C1B28329  15.196  26.744  12.726 -0.1714  0.2725 -0.0324
 2414POSM   D2B28330  15.503  26.698  13.122  0.2260  0.0270  0.1271
 2414POSM   C3B28331  15.911  26.526  13.171 -0.1572  0.0580 -0.0517
 2414POSM   C4B28332  16.393  26.450  13.188  0.3511 -0.1143 -0.0771
 2415DOPE   NH328333  18.185  26.748  12.555 -0.3705 -0.3469  0.6501
 2415DOPE   PO428334  18.195  27.036  12.687 -0.1948  0.1235  0.4223
 2415DOPE   GL128335  18.287  27.034  13.016 -0.3448  0.1251 -0.4443
 2415DOPE   GL228336  18.524  27.291  13.011  0.1624 -0.2129 -0.0864
 2415DOPE   C1A28337  18.097  27.304  13.358  0.1530 -0.2534  0.1967
 2415DOPE   D2A28338  17.857  27.657  13.494 -0.0050 -0.0120  0.2203
 2415DOPE   C3A28339  17.811  27.426  13.921  0.1441 -0.1694 -0.0176
 2415DOPE   C4A28340  17.689  27.340  14.346 -0.0485  0.1793 -0.0386
 2415DOPE   C1B28341  18.185  27.630  12.985  0.0040  0.0237  0.0761
 2415DOPE   D2B28342  17.800  27.887  13.044  0.3916  0.2154  0.0398
 2415DOPE   C3B28343  17.457  28.026  13.281  0.1723 -0.0175  0.2363
 2415DOPE   C4B28344  17.101  28.350  13.311  0.1713  0.0875 -0.0077
 2416DOPS   CNO28345  23.818  27.024  12.729  0.0691  0.2305 -0.0455
 2416DOPS   PO428346  24.008  27.256  12.984  0.0436 -0.1859  0.2176
 2416DOPS   GL128347  23.915  27.559  13.095 -0.1175  0.0963  0.3561
 2416DOPS   GL228348  23.808  27.671  13.460  0.0734  0.0073  0.0743
 2416DOPS   C1A28349  23.904  28.025  13.022  0.0399 -0.2523 -0.1352
 2416DOPS   D2A28350  23.703  28.422  12.845 -0.0729  0.0957  0.1097
 2416DOPS   C3A28351  23.740  28.805  13.121 -0.1434 -0.0952 -0.2194
 2416DOPS   C4A28352  24.045  29.101  13.274  0.1067  0.2489 -0.0642
 2416DOPS   C1B28353  23.433  27.737  13.737  0.0714  0.0851  0.2844
 2416DOPS   D2B28354  22.982  27.549  13.864  0.1475  0.3170 -0.1694
 2416DOPS   C3B28355  23.001  27.267  14.190 -0.1258 -0.3034  0.2769
 2416DOPS   C4B28356  22.974  26.909  14.429  0.2814  0.0109  0.1671
 2417DOPE   NH328357  22.836   0.130  13.297 -0.1359  0.1475  0.0776
 2417DOPE   PO428358  23.076  -0.048  13.347  0.0217 -0.3790  0.0315
 2417DOPE   GL128359  23.298  -0.016  13.591  0.0891 -0.0536 -0.0819
 2417DOPE   GL228360  23.357   0.289  13.654 -0.0875 -0.1128  0.1916
 2417DOPE   C1A28361  23.562  -0.121  13.971 -0.0548  0.0032  0.2461
 2417DOPE   D2A28362  23.895  -0.385  14.173 -0.2185 -0.3476  0.2426
 2417DOPE   C3A28363  24.335  -0.388  14.336  0.0352  0.1519  0.3124
 2417DOPE   C4A28364  24.783  -0.265  14.283 -0.0400  0.2444  0.0962
 2417DOPE   C1B28365  23.134   0.118  13.988  0.0675 -0.0331 -0.1414
 2417DOPE   D2B28366  23.151  -0.119  14.369 -0.1001 -0.2431 -0.1483
 2417DOPE   C3B28367  23.574  -0.060  14.447 -0.1699  0.3224 -0.2408
 2417DOPE   C4B28368  24.043   0.070  14.456 -0.0470  0.0732 -0.1472
 2418DOPC   NC328369  12.353  30.536  11.331  0.0089 -0.0188  0.0776
 2418DOPC   PO428370  12.704  30.489  11.469  0.0366 -0.1062 -0.2551
 2418DOPC   GL128371  12.752  30.286  11.851 -0.0496  0.5705  0.0286
 2418DOPC   GL228372  12.666  30.543  12.006  0.2622  0.2334  0.0354
 2418DOPC   C1A28373  12.559  29.994  12.136 -0.0616  0.2620 -0.2273
 2418DOPC   D2A28374  12.748  29.898  12.577 -0.2022 -0.0175  0.2619
 2418DOPC   C3A28375  12.720  29.625  12.975  0.1511 -0.1722  0.1217
 2418DOPC   C4A28376  12.738  29.706  13.415  0.1623  0.0535  0.1697
 2418DOPC   C1B28377  12.269  30.369  11.973  0.1438 -0.0868  0.2827
 2418DOPC   D2B28378  11.914  30.414  11.680  0.1609 -0.1706  0.0128
 2418DOPC   C3B28379  11.826  30.877  11.602  0.0563  0.1905  0.0674
 2418DOPC   C4B28380  11.691  31.295  11.692  0.0402  0.0429 -0.0942
 2419DOPC   NC328381  16.448  27.128  12.085  0.4052 -0.0640  0.2497
 2419DOPC   PO428382  16.598  26.750  12.027 -0.1198 -0.0119 -0.0383
 2419DOPC   GL128383  16.453  26.610  12.317 -0.0388  0.1593  0.1027
 2419DOPC   GL228384  16.403  26.774  12.473 -0.2668 -0.2611  0.0273
 2419DOPC   C1A28385  16.183  26.344  12.662 -0.0548  0.3507  0.1667
 2419DOPC   D2A28386  15.870  26.091  12.841 -0.0550  0.0251 -0.0342
 2419DOPC   C3A28387  15.442  26.232  12.828  0.2790  0.1035  0.0676
 2419DOPC   C4A28388  15.026  26.315  12.926 -0.2342  0.0960  0.4867
 2419DOPC   C1B28389  16.143  26.857  12.862 -0.1062  0.0371  0.2467
 2419DOPC   D2B28390  15.781  27.125  12.976  0.2775 -0.1049 -0.0189
 2419DOPC   C3B28391  15.659  27.135  13.413 -0.0422 -0.0531  0.1778
 2419DOPC   C4B28392  15.567  27.303  13.871 -0.3354 -0.0675  0.0159
 2420POSM   NC328393  21.929  29.555  13.097 -0.1745  0.1658  0.0052
 2420POSM   PO428394  22.072  29.399  13.429 -0.0917 -0.0106  0.2815
 2420POSM   AM128395  22.113  29.420  13.767 -0.3095 -0.1663  0.2465
 2420POSM   AM228396  22.392  29.478  13.859 -0.2059 -0.0410  0.2240
 2420POSM   T1A28397  22.325  29.093  14.114  0.0069  0.1585  0.0893
 2420POSM   C2A28398  22.617  28.811  14.266 -0.0038 -0.1148 -0.1285
 2420POSM   C3A28399  22.798  28.433  14.391 -0.0248  0.1050 -0.1592
 2420POSM   C1B28400  22.444  29.613  14.130  0.0763 -0.1478  0.1732
 2420POSM   D2B28401  22.604  29.897  14.470  0.3139 -0.0381  0.0272
 2420POSM   C3B28402  22.715  30.277  14.686  0.2192 -0.0739 -0.2579
 2420POSM   C4B28403  22.724  30.625  14.911  0.0468 -0.0117  0.1575
 2421POSM   NC328404  12.614  32.338  11.486 -0.0929  0.0125  0.3671
 2421POSM   PO428405  12.829  31.998  11.443 -0.1186 -0.0406  0.2798
 2421POSM   AM128406  12.603  31.837  11.582  0.2974 -0.0820 -0.1122
 2421POSM   AM228407  12.335  31.932  11.712  0.2771  0.2902 -0.0149
 2421POSM   T1A28408  12.361  31.417  11.812  0.1331 -0.1596 -0.2844
 2421POSM   C2A28409  12.058  31.229  12.113 -0.1652  0.2620 -0.3588
 2421POSM   C3A28410  11.600  31.114  12.146  0.1969  0.0022  0.2413
 2421POSM   C1B28411  12.343  32.145  11.967 -0.0551 -0.2918  0.2599
 2421POSM   D2B28412  12.122  32.561  12.039  0.0535 -0.1463 -0.1455
 2421POSM   C3B28413  12.423  32.872  12.019 -0.1704 -0.0074  0.1994
 2421POSM   C4B28414  12.796  33.167  11.950  0.0884  0.1607 -0.0609
 2422DOPS   CNO28415  19.236  25.708  12.420  0.2003  0.2633 -0.1662
 2422DOPS   PO428416  19.191  25.929  12.733 -0.1043  0.1241  0.0802
 2422DOPS   GL128417  19.383  26.102  13.043  0.3594 -0.0154 -0.0766
 2422DOPS   GL228418  19.534  25.791  13.139  0.0166  0.1236  0.0750
 2422DOPS   C1A28419  19.599  26.174  13.433 -0.0720 -0.4597  0.0699
 2422DOPS   D2A28420  19.920  26.369  13.832 -0.2623  0.1267 -0.0353
 2422DOPS   C3A28421  20.373  26.348  13.784  0.1892  0.3539 -0.2557
 2422DOPS   C4A28422  20.802  26.515  13.655 -0.2230  0.0692  0.1762
 2422DOPS   C1B28423  19.700  25.521  13.484 -0.2193  0.0829 -0.3566
 2422DOPS   D2B28424  19.970  25.149  13.583 -0.2896 -0.0941  0.2512
 2422DOPS   C3B28425  20.194  24.773  13.665  0.2248  0.1251  0.1042
 2422DOPS   C4B28426  20.190  24.345  13.916  0.0391 -0.0060  0.0936
 2423POSM   NC328427  14.187  23.733  11.680 -0.1645 -0.0138  0.1008
 2423POSM   PO428428  14.078  24.081  11.737 -0.2773 -0.0550 -0.0428
 2423POSM   AM128429  13.937  23.949  12.022  0.0987  0.1760  0.0864
 2423POSM   AM228430  13.981  23.665  12.173 -0.0198 -0.2250 -0.0442
 2423POSM   T1A28431  13.846  24.056  12.528  0.0376  0.1324 -0.0015
 2423POSM   C2A28432  13.446  24.090  12.699 -0.1001 -0.0536  0.0687
 2423POSM   C3A28433  13.000  23.972  12.715 -0.0523  0.2143 -0.2086
 2423POSM   C1B28434  13.834  23.404  12.396 -0.2817  0.1044  0.0105
 2423POSM   D2B28435  13.880  23.118  12.712 -0.2434  0.0308  0.1082
 2423POSM   C3B28436  14.072  23.302  13.091 -0.1077  0.1288  0.1074
 2423POSM   C4B28437  14.097  23.706  13.329 -0.0711  0.0811  0.2200
 2424DOPE   NH328438  18.383  32.437  12.973 -0.0852  0.0268  0.3384
 2424DOPE   PO428439  18.342  32.523  12.642 -0.1399 -0.3322 -0.1062
 2424DOPE   GL128440  17.922  32.616  12.711 -0.0393  0.3607 -0.4611
 2424DOPE   GL228441  17.841  32.525  12.926  0.0892  0.1160 -0.0333
 2424DOPE   C1A28442  17.502  32.585  12.491 -0.1368  0.0901 -0.0034
 2424DOPE   D2A28443  17.053  32.484  12.494 -0.0289 -0.1458  0.0641
 2424DOPE   C3A28444  16.675  32.458  12.224 -0.2067 -0.1687  0.2605
 2424DOPE   C4A28445  16.607  32.690  11.800  0.0423 -0.1644  0.1483
 2424DOPE   C1B28446  17.401  32.461  12.933 -0.1135  0.1068  0.0313
 2424DOPE   D2B28447  16.999  32.816  12.880 -0.3473  0.2692 -0.1842
 2424DOPE   C3B28448  16.581  32.623  12.772  0.0315 -0.1172 -0.1376
 2424DOPE   C4B28449  16.200  32.494  12.614  0.1181 -0.2317 -0.0513
 2425DOPE   NH328450  13.612  25.324  11.723  0.0468  0.0117  0.1071
 2425DOPE   PO428451  13.776  25.531  11.528 -0.4019 -0.1451 -0.0745
 2425DOPE   GL128452  13.924  25.854  11.664  0.2300 -0.0617  0.0980
 2425DOPE   GL228453  13.853  26.024  11.892  0.2971 -0.0935 -0.2623
 2425DOPE   C1A28454  14.316  26.004  11.808 -0.3062 -0.0025 -0.0792
 2425DOPE   D2A28455  14.751  26.094  11.948 -0.1484 -0.3458 -0.1004
 2425DOPE   C3A28456  15.086  26.366  11.727 -0.0310  0.0782 -0.1196
 2425DOPE   C4A28457  15.355  26.604  11.410 -0.1164 -0.1926  0.1007
 2425DOPE   C1B28458  13.717  25.761  12.204  0.0764  0.0190  0.3005
 2425DOPE   D2B28459  13.394  25.697  12.521  0.1284  0.1943  0.2222
 2425DOPE   C3B28460  12.954  25.465  12.495 -0.0934 -0.1602 -0.0585
 2425DOPE   C4B28461  12.477  25.443  12.321  0.2593 -0.3183 -0.3100
 2426DOPE   NH328462  14.100  25.008  11.551 -0.0008 -0.2302 -0.3215
 2426DOPE   PO428463  14.334  25.169  11.364 -0.1928  0.0621  0.0675
 2426DOPE   GL128464  14.449  25.474  11.642  0.0586 -0.2924 -0.2039
 2426DOPE   GL228465  14.206  25.486  11.817  0.0435  0.1942  0.0123
 2426DOPE   C1A28466  14.856  25.658  11.811 -0.1286  0.0977 -0.0379
 2426DOPE   D2A28467  15.234  25.900  11.858 -0.1688  0.0876  0.0673
 2426DOPE   C3A28468  15.687  25.703  11.764 -0.1475 -0.1407  0.0189
 2426DOPE   C4A28469  16.092  25.927  11.920  0.1439 -0.0743 -0.3077
 2426DOPE   C1B28470  14.426  25.694  12.137  0.0480  0.1332 -0.0757
 2426DOPE   D2B28471  14.359  25.959  12.488 -0.2653 -0.1002  0.1224
 2426DOPE   C3B28472  13.946  25.825  12.759 -0.2638 -0.1321  0.1376
 2426DOPE   C4B28473  13.959  25.414  13.034  0.1823  0.0767  0.0911
 2427DOPS   CNO28474  17.526  24.514  12.025 -0.6184  0.2054  0.1445
 2427DOPS   PO428475  17.264  24.387  11.752  0.0784 -0.3129  0.0244
 2427DOPS   GL128476  17.053  24.664  11.972  0.0558 -0.3310 -0.2259
 2427DOPS   GL228477  16.981  24.456  12.135  0.0857  0.1776 -0.0349
 2427DOPS   C1A28478  16.527  24.814  11.972 -0.0643 -0.1514  0.0206
 2427DOPS   D2A28479  16.219  24.839  12.283  0.1138 -0.3811 -0.1459
 2427DOPS   C3A28480  15.803  24.815  12.144 -0.0824  0.3565 -0.3855
 2427DOPS   C4A28481  15.350  24.799  12.272  0.0433  0.0974 -0.0641
 2427DOPS   C1B28482  16.760  24.707  12.405 -0.0463 -0.2605  0.0593
 2427DOPS   D2B28483  16.481  24.978  12.675  0.0713 -0.1077  0.0613
 2427DOPS   C3B28484  16.192  24.954  13.039 -0.0888 -0.0900  0.0026
 2427DOPS   C4B28485  15.861  24.693  13.218  0.0444  0.0658 -0.1336
 2428POSM   NC328486  18.998  26.192  12.256 -0.1134  0.2861  0.1600
 2428POSM   PO428487  19.183  26.391  12.540  0.0725 -0.1729  0.0637
 2428POSM   AM128488  19.149  26.549  12.827  0.1809  0.0150  0.1248
 2428POSM   AM228489  19.101  26.799  12.891  0.0795 -0.2428  0.1594
 2428POSM   T1A28490  19.287  26.575  13.278 -0.4481 -0.0754 -0.2501
 2428POSM   C2A28491  19.480  26.651  13.706 -0.2288  0.2151  0.1046
 2428POSM   C3A28492  19.694  26.661  14.155 -0.0229  0.1107  0.0765
 2428POSM   C1B28493  18.907  27.017  13.114  0.0043  0.1672 -0.0337
 2428POSM   D2B28494  18.643  27.151  13.447 -0.2502  0.1541  0.1538
 2428POSM   C3B28495  18.577  26.909  13.877 -0.0317  0.1203  0.0328
 2428POSM   C4B28496  18.835  26.817  14.342 -0.1999  0.0559 -0.3368
 2429POSM   NC328497  21.774  29.004  13.373  0.0048 -0.0760  0.2268
 2429POSM   PO428498  22.004  29.048  13.056  0.3478 -0.1132  0.0174
 2429POSM   AM128499  22.087  28.698  13.140  0.2715 -0.0842  0.0029
 2429POSM   AM228500  22.004  28.597  13.341 -0.1720  0.0608 -0.0544
 2429POSM   T1A28501  22.167  28.207  13.129  0.1916  0.0261 -0.5075
 2429POSM   C2A28502  22.448  27.812  13.160 -0.2035 -0.1349  0.1784
 2429POSM   C3A28503  22.254  27.496  13.390  0.1486  0.0185  0.2754
 2429POSM   C1B28504  22.104  28.453  13.643 -0.1119  0.0401 -0.1092
 2429POSM   D2B28505  22.124  28.501  14.043  0.4588 -0.4516  0.1004
 2429POSM   C3B28506  21.889  28.167  14.252 -0.1785 -0.1113 -0.2342
 2429POSM   C4B28507  21.694  27.993  14.632 -0.0520  0.0340  0.2267
 2430DOPE   NH328508  20.163  26.220  12.518  0.4114  0.2338 -0.1362
 2430DOPE   PO428509  20.482  26.280  12.578 -0.0266  0.1415 -0.0801
 2430DOPE   GL128510  20.552  26.573  12.908 -0.0059  0.2750 -0.0151
 2430DOPE   GL228511  20.798  26.731  12.773  0.0895 -0.0740  0.2319
 2430DOPE   C1A28512  20.716  26.798  13.262  0.0550  0.0363  0.0453
 2430DOPE   D2A28513  20.907  27.045  13.611 -0.2347  0.1790  0.0092
 2430DOPE   C3A28514  20.711  27.257  13.961 -0.0243 -0.3847 -0.2340
 2430DOPE   C4A28515  20.617  27.297  14.386  0.1922  0.2017  0.1272
 2430DOPE   C1B28516  21.202  26.842  13.052 -0.1172 -0.2600  0.0370
 2430DOPE   D2B28517  21.371  26.597  13.400  0.2273  0.0216  0.1482
 2430DOPE   C3B28518  21.579  26.266  13.588 -0.1152  0.0398  0.0496
 2430DOPE   C4B28519  21.702  25.928  13.821 -0.2399 -0.1638  0.2446
 2431DOPS   CNO28520  12.958  33.834  11.227  0.1406  0.1187 -0.3301
 2431DOPS   PO428521  12.665  33.598  11.275  0.1305  0.1715  0.1547
 2431DOPS   GL128522  12.739  33.474  11.608 -0.1590  0.2334  0.1909
 2431DOPS   GL228523  13.007  33.521  11.634 -0.0690  0.0619 -0.1292
 2431DOPS   C1A28524  12.778  33.648  12.047 -0.2059  0.2695 -0.0883
 2431DOPS   D2A28525  12.702  34.073  12.253 -0.1343  0.2139 -0.0012
 2431DOPS   C3A28526  12.849  34.412  12.561 -0.4778  0.0868  0.2867
 2431DOPS   C4A28527  12.741  34.673  12.963  0.0758  0.1203 -0.6244
 2431DOPS   C1B28528  13.252  33.426  12.042 -0.2716  0.2420 -0.0358
 2431DOPS   D2B28529  12.981  33.228  12.392  0.1635 -0.0713 -0.0791
 2431DOPS   C3B28530  12.988  33.358  12.813  0.2639 -0.1127 -0.1041
 2431DOPS   C4B28531  12.850  33.658  13.136 -0.2785  0.0709 -0.1420
 2432DOPE   NH328532  19.099  31.156  12.293  0.0364  0.4400  0.1662
 2432DOPE   PO428533  19.071  31.246  12.551 -0.0789  0.4295 -0.0014
 2432DOPE   GL128534  19.080  31.434  12.841 -0.0597 -0.1225 -0.2480
 2432DOPE   GL228535  18.785  31.632  12.864 -0.1334  0.2877 -0.3618
 2432DOPE   C1A28536  19.488  31.623  12.900  0.1329 -0.2676  0.0115
 2432DOPE   D2A28537  19.682  31.947  13.214  0.2132 -0.1206  0.3349
 2432DOPE   C3A28538  19.481  32.293  13.287  0.1742 -0.1091 -0.4528
 2432DOPE   C4A28539  19.515  32.725  13.240  0.1311 -0.1623  0.0527
 2432DOPE   C1B28540  18.734  31.449  13.297  0.0789  0.0723 -0.4085
 2432DOPE   D2B28541  18.760  31.488  13.760  0.1838  0.0465 -0.2960
 2432DOPE   C3B28542  18.586  31.336  14.111 -0.1643  0.4606  0.0999
 2432DOPE   C4B28543  18.715  30.976  14.406  0.2800 -0.0158 -0.2081
 2433POSM   NC328544  10.085  24.798  11.674  0.1568 -0.2523 -0.1132
 2433POSM   PO428545  10.431  24.977  11.630  0.0276 -0.0298 -0.0881
 2433POSM   AM128546  10.594  24.804  11.840  0.0462 -0.1010  0.0105
 2433POSM   AM228547  10.605  24.595  12.022  0.1087  0.1351 -0.4016
 2433POSM   T1A28548  11.041  24.848  12.020 -0.1111 -0.1022 -0.0126
 2433POSM   C2A28549  11.413  25.136  12.001  0.1845  0.2557  0.2089
 2433POSM   C3A28550  11.828  24.874  11.807 -0.1888 -0.0379  0.3179
 2433POSM   C1B28551  10.581  24.783  12.323 -0.1278  0.2400  0.2445
 2433POSM   D2B28552  10.626  25.164  12.560  0.1175  0.1887 -0.1271
 2433POSM   C3B28553  10.874  25.148  13.003 -0.0013 -0.1569  0.0633
 2433POSM   C4B28554  11.233  24.947  13.206 -0.0007 -0.0517 -0.3758
 2434POSM   NC328555  12.126  33.563  11.295 -0.0670 -0.1255 -0.1460
 2434POSM   PO428556  12.195  33.847  11.058 -0.1353  0.2023 -0.0377
 2434POSM   AM128557  12.321  33.928  11.354 -0.3987  0.1714  0.0578
 2434POSM   AM228558  12.535  34.068  11.412  0.2501  0.2037 -0.2518
 2434POSM   T1A28559  12.392  33.792  11.827  0.0204 -0.0466 -0.0155
 2434POSM   C2A28560  12.227  33.931  12.236 -0.2690 -0.2966 -0.1719
 2434POSM   C3A28561  12.030  33.582  12.537  0.0420 -0.3093 -0.0102
 2434POSM   C1B28562  12.651  34.244  11.695 -0.1910 -0.2193  0.1166
 2434POSM   D2B28563  12.941  34.522  11.956  0.0387  0.2846 -0.2946
 2434POSM   C3B28564  12.688  34.791  12.226  0.0314 -0.3926  0.0710
 2434POSM   C4B28565  12.386  34.884  12.563  0.0292  0.1010  0.3586
 2435DOPC   NC328566  16.263  30.381  11.875  0.4805  0.1669 -0.0931
 2435DOPC   PO428567  16.405  30.377  12.235 -0.0209 -0.0227  0.1716
 2435DOPC   GL128568  16.039  30.518  12.365  0.3130 -0.0618 -0.1620
 2435DOPC   GL228569  16.172  30.702  12.623 -0.2195 -0.1547 -0.0634
 2435DOPC   C1A28570  15.750  30.630  12.754  0.1263 -0.0777  0.0910
 2435DOPC   D2A28571  15.710  30.997  13.041  0.3650  0.0614  0.1315
 2435DOPC   C3A28572  16.073  31.174  13.111  0.0320  0.1606 -0.2100
 2435DOPC   C4A28573  16.195  31.569  13.436  0.0529 -0.3392 -0.0091
 2435DOPC   C1B28574  16.182  31.184  12.653  0.0186  0.1657  0.0875
 2435DOPC   D2B28575  16.114  31.612  12.830  0.1933  0.1660  0.1342
 2435DOPC   C3B28576  15.818  31.745  13.132 -0.1423  0.1378 -0.2938
 2435DOPC   C4B28577  15.529  32.080  13.017  0.1466  0.0930 -0.1556
 2436POSM   NC328578  11.325  30.065  11.473 -0.0922 -0.1302 -0.3682
 2436POSM   PO428579  11.684  29.985  11.536 -0.2309 -0.0821  0.1111
 2436POSM   AM128580  11.818  29.877  11.817 -0.1648  0.2158  0.1975
 2436POSM   AM228581  12.003  29.966  11.968 -0.2556  0.0369  0.0500
 2436POSM   T1A28582  11.923  29.514  12.174  0.2458 -0.0484 -0.0560
 2436POSM   C2A28583  11.869  29.329  12.537 -0.0872 -0.0226  0.0217
 2436POSM   C3A28584  11.885  29.140  12.939  0.0677  0.0120 -0.2424
 2436POSM   C1B28585  11.965  30.117  12.258 -0.2651 -0.1848 -0.1720
 2436POSM   D2B28586  11.732  30.439  12.539 -0.0224  0.3120  0.2296
 2436POSM   C3B28587  11.871  30.942  12.539 -0.3610 -0.0320  0.2126
 2436POSM   C4B28588  11.732  31.384  12.530  0.2361  0.1195  0.1351
 2437DOPE   NH328589  16.910  26.596  12.481  0.1262  0.1281  0.0121
 2437DOPE   PO428590  16.804  26.473  12.728  0.4918 -0.2096 -0.2975
 2437DOPE   GL128591  16.865  26.187  13.035  0.3086  0.0278 -0.3509
 2437DOPE   GL228592  16.889  26.492  13.192 -0.2245 -0.2491 -0.0371
 2437DOPE   C1A28593  16.771  25.783  13.247 -0.0529  0.0018  0.1060
 2437DOPE   D2A28594  16.631  25.502  13.593 -0.0504 -0.3834  0.0696
 2437DOPE   C3A28595  16.509  25.485  13.999  0.2022 -0.0893  0.3677
 2437DOPE   C4A28596  16.457  25.193  14.300 -0.0330  0.0099 -0.0924
 2437DOPE   C1B28597  16.708  26.203  13.498 -0.0976  0.2444 -0.3015
 2437DOPE   D2B28598  16.781  25.938  13.861 -0.0775  0.0437 -0.1950
 2437DOPE   C3B28599  16.501  25.970  14.249 -0.0412 -0.2012 -0.0258
 2437DOPE   C4B28600  16.404  26.297  14.554  0.4557 -0.2374 -0.0400
 2438DOPS   CNO28601  14.442  28.334  11.384 -0.1184  0.0790 -0.0938
 2438DOPS   PO428602  14.391  28.403  11.757 -0.0438 -0.2358  0.0868
 2438DOPS   GL128603  14.653  28.426  12.026  0.4694 -0.1128 -0.0617
 2438DOPS   GL228604  14.747  28.651  12.121  0.2299 -0.2112  0.1659
 2438DOPS   C1A28605  14.729  28.368  12.502 -0.2764 -0.4151 -0.3315
 2438DOPS   D2A28606  14.714  28.406  12.965 -0.0973  0.1561 -0.3057
 2438DOPS   C3A28607  14.300  28.245  12.965  0.1671  0.2895 -0.3083
 2438DOPS   C4A28608  13.985  28.032  13.141  0.0429  0.0791 -0.0127
 2438DOPS   C1B28609  14.844  28.881  12.528  0.0793 -0.1569 -0.3491
 2438DOPS   D2B28610  14.864  29.231  12.849 -0.1036 -0.0386  0.0378
 2438DOPS   C3B28611  15.152  29.273  13.195  0.1472  0.2635 -0.2148
 2438DOPS   C4B28612  15.581  29.472  13.391 -0.0283  0.3525 -0.4592
 2439DOPC   NC328613  15.203  30.292  11.234 -0.0110  0.1695 -0.1634
 2439DOPC   PO428614  14.876  30.093  11.179  0.3666  0.0339  0.0020
 2439DOPC   GL128615  14.894  30.180  11.537 -0.2893 -0.1576 -0.2169
 2439DOPC   GL228616  14.668  30.109  11.741 -0.0570 -0.0493 -0.1327
 2439DOPC   C1A28617  15.191  29.888  11.824  0.1807 -0.0735 -0.0996
 2439DOPC   D2A28618  15.624  29.749  11.955 -0.0916  0.0847 -0.1145
 2439DOPC   C3A28619  15.388  29.497  12.207 -0.1592 -0.0003  0.2202
 2439DOPC   C4A28620  15.413  29.250  12.602  0.0338 -0.2318 -0.1229
 2439DOPC   C1B28621  14.795  30.443  12.067 -0.0423 -0.0517  0.0036
 2439DOPC   D2B28622  14.746  30.499  12.510  0.0727 -0.0598  0.2188
 2439DOPC   C3B28623  14.776  30.581  12.960  0.1023 -0.2965 -0.0028
 2439DOPC   C4B28624  15.004  30.390  13.362  0.0776 -0.0170  0.0265
 2440DOPC   NC328625  21.212  34.564  13.092 -0.0861  0.0561 -0.0436
 2440DOPC   PO428626  21.210  34.390  12.701 -0.1067  0.0456  0.1439
 2440DOPC   GL128627  21.320  34.100  12.869  0.4945  0.2003 -0.0665
 2440DOPC   GL228628  21.524  33.908  12.975  0.1120  0.4155  0.2959
 2440DOPC   C1A28629  21.088  33.709  12.718 -0.1062  0.3794  0.1285
 2440DOPC   D2A28630  20.815  33.434  12.930 -0.1543  0.0258 -0.0235
 2440DOPC   C3A28631  20.702  33.613  13.362  0.1220 -0.1951  0.0659
 2440DOPC   C4A28632  20.422  33.489  13.741 -0.0546  0.2291 -0.2619
 2440DOPC   C1B28633  21.308  33.550  13.193 -0.0803 -0.1621 -0.0508
 2440DOPC   D2B28634  21.046  33.224  13.441 -0.2205 -0.0758 -0.2593
 2440DOPC   C3B28635  20.715  32.989  13.240 -0.1367  0.0725  0.0772
 2440DOPC   C4B28636  20.284  32.945  13.363 -0.1422 -0.0270  0.0278
 2441DOPC   NC328637  14.380  27.577  12.056 -0.1100  0.2776 -0.2373
 2441DOPC   PO428638  14.365  27.940  12.095  0.4123 -0.2288  0.0250
 2441DOPC   GL128639  14.337  28.247  12.354 -0.2758  0.0411 -0.0516
 2441DOPC   GL228640  14.104  28.162  12.461  0.2707  0.1496 -0.0802
 2441DOPC   C1A28641  14.378  28.707  12.561 -0.0227  0.1793 -0.1363
 2441DOPC   D2A28642  14.234  28.938  12.949 -0.3585  0.2522 -0.1767
 2441DOPC   C3A28643  14.234  28.951  13.430 -0.0121 -0.2330 -0.3145
 2441DOPC   C4A28644  14.512  29.261  13.649 -0.1066 -0.0317 -0.1310
 2441DOPC   C1B28645  13.785  28.284  12.773 -0.4525 -0.0880  0.1902
 2441DOPC   D2B28646  13.453  28.425  13.065  0.1430 -0.1022  0.0440
 2441DOPC   C3B28647  13.120  28.733  13.080 -0.0671  0.0757 -0.0520
 2441DOPC   C4B28648  12.996  29.173  13.169 -0.1891  0.0782 -0.2351
 2442DOPS   CNO28649  18.638  31.542  12.389 -0.0052  0.1152  0.0717
 2442DOPS   PO428650  18.290  31.592  12.457 -0.0650  0.1295 -0.0681
 2442DOPS   GL128651  18.066  31.854  12.649 -0.0088  0.3929  0.0920
 2442DOPS   GL228652  17.970  32.124  12.542 -0.3203 -0.1791  0.0371
 2442DOPS   C1A28653  17.884  32.026  13.059  0.0610  0.7347 -0.0030
 2442DOPS   D2A28654  18.063  32.330  13.345  0.1685 -0.1599 -0.2094
 2442DOPS   C3A28655  17.839  32.325  13.748  0.3481  0.0532  0.0406
 2442DOPS   C4A28656  17.620  32.691  13.935  0.3148  0.2807 -0.3082
 2442DOPS   C1B28657  17.518  32.039  12.665 -0.4602 -0.3166 -0.0509
 2442DOPS   D2B28658  17.098  32.046  12.858  0.0228 -0.0617  0.3284
 2442DOPS   C3B28659  16.662  32.157  12.652 -0.0961 -0.0559 -0.3225
 2442DOPS   C4B28660  16.331  32.039  12.472  0.0984  0.1979  0.0431
 2443POSM   NC328661  12.816  24.076  11.703 -0.1383 -0.0337  0.0896
 2443POSM   PO428662  13.163  24.082  11.625 -0.2043 -0.2803  0.1120
 2443POSM   AM128663  13.197  23.893  11.907  0.1012 -0.0154 -0.1788
 2443POSM   AM228664  12.988  23.853  12.118 -0.4067  0.0561  0.0057
 2443POSM   T1A28665  13.346  23.650  12.365  0.0843 -0.1295  0.3448
 2443POSM   C2A28666  13.348  23.523  12.788  0.3557 -0.1826  0.1918
 2443POSM   C3A28667  13.248  23.667  13.190  0.0465  0.0991 -0.0262
 2443POSM   C1B28668  12.761  24.062  12.282 -0.5574 -0.0503 -0.2521
 2443POSM   D2B28669  12.417  24.256  12.561 -0.2371  0.0332 -0.2857
 2443POSM   C3B28670  12.410  24.250  13.067 -0.1413 -0.1897  0.0157
 2443POSM   C4B28671  12.214  24.537  13.394  0.0787  0.0661 -0.0637
 2444POSM   NC328672  17.592  33.803  11.924  0.0560 -0.0268  0.0371
 2444POSM   PO428673  17.624  33.803  12.315  0.0327  0.2648  0.0387
 2444POSM   AM128674  17.433  33.595  12.524 -0.2154 -0.2267 -0.0699
 2444POSM   AM228675  17.259  33.415  12.545 -0.0252  0.0328 -0.2757
 2444POSM   T1A28676  17.403  33.488  13.050 -0.1658 -0.0907  0.0291
 2444POSM   C2A28677  17.619  33.416  13.456 -0.0258  0.4504 -0.0810
 2444POSM   C3A28678  17.779  33.272  13.837  0.1222  0.2403  0.4248
 2444POSM   C1B28679  17.023  33.323  12.730  0.0979  0.4581 -0.2176
 2444POSM   D2B28680  16.916  33.298  13.190 -0.1049  0.4843  0.0071
 2444POSM   C3B28681  17.052  33.582  13.495  0.2645 -0.1483  0.0143
 2444POSM   C4B28682  17.439  33.628  13.830  0.2901 -0.1155 -0.1046
 2445DOPE   NH328683  11.077  29.246  11.593  0.1499 -0.0427  0.0235
 2445DOPE   PO428684  11.315  29.038  11.652  0.0597  0.0569  0.1985
 2445DOPE   GL128685  11.517  28.861  12.009 -0.0127 -0.1852 -0.2064
 2445DOPE   GL228686  11.701  28.696  11.849 -0.4145  0.0370  0.0700
 2445DOPE   C1A28687  11.624  28.690  12.445 -0.1388 -0.0737 -0.2232
 2445DOPE   D2A28688  11.537  28.807  12.831 -0.0177  0.0040 -0.0152
 2445DOPE   C3A28689  11.456  28.356  12.905  0.0001 -0.4310  0.2956
 2445DOPE   C4A28690  11.182  28.051  12.918  0.2884 -0.0712  0.1262
 2445DOPE   C1B28691  11.970  28.920  12.176 -0.0359  0.2861  0.0879
 2445DOPE   D2B28692  12.163  28.878  12.616  0.0611  0.1223  0.2448
 2445DOPE   C3B28693  12.023  28.558  12.866  0.0654  0.1081 -0.0231
 2445DOPE   C4B28694  11.877  28.386  13.267  0.0064  0.0978 -0.0835
 2446DOPC   NC328695  17.517  23.105  12.670 -0.2035  0.0433  0.1454
 2446DOPC   PO428696  17.129  23.267  12.614  0.1192 -0.1084  0.1807
 2446DOPC   GL128697  16.975  23.463  12.867  0.2574 -0.1442  0.2498
 2446DOPC   GL228698  16.733  23.676  12.792  0.0325 -0.0804  0.1157
 2446DOPC   C1A28699  16.651  23.387  13.168 -0.1563 -0.2701 -0.1078
 2446DOPC   D2A28700  16.377  23.339  13.590  0.0883  0.1822  0.1219
 2446DOPC   C3A28701  16.350  23.762  13.701 -0.3191  0.0418  0.1291
 2446DOPC   C4A28702  16.493  24.241  13.785  0.1343  0.0262  0.0935
 2446DOPC   C1B28703  16.295  23.464  12.819  0.1851 -0.2263  0.6065
 2446DOPC   D2B28704  15.934  23.514  12.517 -0.0896  0.0855 -0.2151
 2446DOPC   C3B28705  15.598  23.802  12.577  0.1034 -0.1121 -0.0459
 2446DOPC   C4B28706  15.382  23.933  12.966  0.0949 -0.1353  0.0422
 2447POSM   NC328707  23.240  27.047  12.748 -0.3608  0.2000  0.0384
 2447POSM   PO428708  23.353  26.762  12.998 -0.0092 -0.0876  0.3763
 2447POSM   AM128709  23.176  26.618  13.248  0.0949 -0.3560 -0.1250
 2447POSM   AM228710  23.200  26.623  13.526 -0.0381 -0.0884 -0.1440
 2447POSM   T1A28711  22.734  26.660  13.497 -0.0153  0.1007  0.2654
 2447POSM   C2A28712  22.407  26.468  13.726 -0.0092  0.2427 -0.0128
 2447POSM   C3A28713  22.130  26.207  13.875 -0.3889  0.1068 -0.0588
 2447POSM   C1B28714  23.049  26.573  13.861  0.1655  0.1704 -0.0925
 2447POSM   D2B28715  22.915  26.433  14.236  0.1491  0.0695 -0.3216
 2447POSM   C3B28716  22.943  25.946  14.322 -0.0046 -0.0489  0.3314
 2447POSM   C4B28717  23.166  25.560  14.253 -0.5948 -0.0425  0.2474
 2448POSM   NC328718  17.947  31.459  12.102  0.1745 -0.2809  0.0545
 2448POSM   PO428719  17.898  31.088  12.287  0.1225  0.1179 -0.0573
 2448POSM   AM128720  17.778  31.136  12.617 -0.1806  0.2478  0.0714
 2448POSM   AM228721  17.538  31.117  12.748  0.2157  0.4490  0.0498
 2448POSM   T1A28722  17.854  31.132  13.107 -0.2743 -0.2617 -0.0918
 2448POSM   C2A28723  17.961  30.930  13.483 -0.2329 -0.2172 -0.0274
 2448POSM   C3A28724  18.023  30.616  13.818  0.0615 -0.0381  0.0672
 2448POSM   C1B28725  17.413  31.242  13.029 -0.0983  0.1232 -0.0803
 2448POSM   D2B28726  17.308  31.221  13.477 -0.1188  0.1555  0.1741
 2448POSM   C3B28727  17.081  31.605  13.592  0.0227 -0.1159 -0.0757
 2448POSM   C4B28728  17.086  32.046  13.432  0.4060 -0.0092 -0.0418
 2449DOPC   NC328729  24.691   9.041  16.523  0.0899 -0.1032  0.0944
 2449DOPC   PO428730  25.072   8.896  16.596  0.0331  0.1806  0.2873
 2449DOPC   GL128731  25.299   8.808  16.295 -0.1016  0.3352  0.1553
 2449DOPC   GL228732  25.165   8.694  16.098  0.1622 -0.0074  0.1541
 2449DOPC   C1A28733  25.563   8.928  15.885  0.0704  0.2609 -0.0287
 2449DOPC   D2A28734  25.747   9.232  15.635  0.0125 -0.0524 -0.0914
 2449DOPC   C3A28735  25.859   9.180  15.131 -0.0061  0.2767 -0.0867
 2449DOPC   C4A28736  25.600   9.416  14.792 -0.5947  0.2511 -0.0731
 2449DOPC   C1B28737  25.283   8.572  15.674 -0.1138  0.1843 -0.0054
 2449DOPC   D2B28738  25.171   8.595  15.212  0.1311  0.2917 -0.1578
 2449DOPC   C3B28739  24.854   8.724  14.928  0.2320 -0.0828 -0.0027
 2449DOPC   C4B28740  24.747   9.068  14.693  0.0629  0.0563  0.2353
 2450DOPC   NC328741  32.628   3.280  16.493  0.1488  0.1154  0.2276
 2450DOPC   PO428742  32.628   2.950  16.776  0.3900 -0.0286  0.3699
 2450DOPC   GL128743  32.258   2.921  16.504 -0.3953 -0.0109  0.1842
 2450DOPC   GL228744  32.068   3.200  16.503  0.0079 -0.1245  0.0450
 2450DOPC   C1A28745  32.256   2.926  16.017 -0.3339 -0.0649 -0.0596
 2450DOPC   D2A28746  31.846   3.132  15.788 -0.1493 -0.0408 -0.1242
 2450DOPC   C3A28747  31.717   3.220  15.337 -0.0730  0.0900  0.0127
 2450DOPC   C4A28748  31.823   3.081  14.862 -0.1126  0.0714 -0.0096
 2450DOPC   C1B28749  32.090   3.444  16.133  0.1835 -0.0935 -0.2625
 2450DOPC   D2B28750  32.267   3.823  15.937 -0.1049 -0.0067 -0.0723
 2450DOPC   C3B28751  32.142   3.721  15.515  0.0908  0.3954 -0.0547
 2450DOPC   C4B28752  32.067   3.553  15.074  0.3381  0.1296  0.1891
 2451DOPE   NH328753  31.793   9.116  16.475  0.2808 -0.0626 -0.2474
 2451DOPE   PO428754  32.113   9.088  16.530 -0.2033  0.0191 -0.1414
 2451DOPE   GL128755  32.167   9.323  16.276  0.1736  0.2008  0.5791
 2451DOPE   GL228756  31.964   9.443  16.058  0.1999 -0.0402  0.1878
 2451DOPE   C1A28757  32.271   9.107  15.871  0.0896  0.2279 -0.0170
 2451DOPE   D2A28758  32.495   8.924  15.475  0.0339 -0.1227 -0.1500
 2451DOPE   C3A28759  32.678   9.043  15.115 -0.0830  0.1962 -0.2506
 2451DOPE   C4A28760  33.058   9.146  14.894 -0.1889 -0.1490  0.0550
 2451DOPE   C1B28761  31.850   9.333  15.641 -0.1141 -0.0273  0.0503
 2451DOPE   D2B28762  31.791   9.449  15.197  0.0757 -0.4214  0.3422
 2451DOPE   C3B28763  31.772   9.601  14.735  0.1054 -0.0865 -0.1792
 2451DOPE   C4B28764  31.428   9.604  14.384 -0.2074  0.1807 -0.2316
 2452DOPE   NH328765  23.889   8.784  16.486  0.0420 -0.1893  0.2571
 2452DOPE   PO428766  23.738   9.066  16.511  0.1882 -0.0858  0.2617
 2452DOPE   GL128767  23.723   9.051  16.078  0.2250  0.1009  0.3180
 2452DOPE   GL228768  23.471   8.871  15.983 -0.1678 -0.1389 -0.0866
 2452DOPE   C1A28769  24.161   9.180  15.888 -0.0324  0.1830  0.1021
 2452DOPE   D2A28770  24.467   9.232  15.551 -0.1235 -0.0631 -0.0957
 2452DOPE   C3A28771  24.451   8.971  15.132  0.0880 -0.3184  0.1615
 2452DOPE   C4A28772  24.338   8.667  14.755 -0.2445 -0.1969 -0.2674
 2452DOPE   C1B28773  23.651   9.170  15.646  0.3915  0.0224 -0.0821
 2452DOPE   D2B28774  23.682   9.138  15.185 -0.0729 -0.0925  0.0950
 2452DOPE   C3B28775  24.039   9.143  14.911 -0.0410 -0.0160 -0.2438
 2452DOPE   C4B28776  24.313   9.110  14.475 -0.1514 -0.0386 -0.0457
 2453DOPC   NC328777  31.196  11.491  17.291 -0.0276 -0.1407 -0.1638
 2453DOPC   PO428778  31.470  11.237  17.261  0.0468 -0.1206 -0.0147
 2453DOPC   GL128779  31.390  11.361  16.858 -0.3668  0.2243  0.0207
 2453DOPC   GL228780  31.573  11.630  16.811 -0.0708  0.1724 -0.1747
 2453DOPC   C1A28781  31.597  11.326  16.440 -0.1465  0.2938 -0.2009
 2453DOPC   D2A28782  31.714  11.086  16.035  0.1307 -0.1587  0.3775
 2453DOPC   C3A28783  31.625  11.043  15.579  0.3317 -0.1565 -0.1241
 2453DOPC   C4A28784  31.355  11.126  15.183 -0.0126  0.2139  0.0165
 2453DOPC   C1B28785  31.395  11.850  16.401  0.1713  0.0054  0.1230
 2453DOPC   D2B28786  31.503  12.123  16.057  0.1284 -0.2703  0.0057
 2453DOPC   C3B28787  31.336  11.912  15.700  0.1669 -0.3075 -0.0180
 2453DOPC   C4B28788  31.297  11.477  15.552  0.1340  0.1182 -0.3370
 2454DOPC   NC328789  32.819   9.515  16.978 -0.0747  0.1188 -0.1304
 2454DOPC   PO428790  33.182   9.380  16.911  0.1514 -0.1418 -0.1028
 2454DOPC   GL128791  33.219   9.338  16.418  0.3008 -0.1913  0.0771
 2454DOPC   GL228792  32.989   9.519  16.318  0.1934  0.0660  0.0862
 2454DOPC   C1A28793  33.509   9.484  16.123 -0.0333  0.1352  0.1209
 2454DOPC   D2A28794  33.565   9.756  15.759  0.2414 -0.1656  0.0021
 2454DOPC   C3A28795  33.844  10.088  15.551  0.1292  0.2356  0.1274
 2454DOPC   C4A28796  33.855  10.588  15.664 -0.2404  0.0441 -0.0684
 2454DOPC   C1B28797  33.057   9.458  15.875 -0.0260  0.0464  0.1771
 2454DOPC   D2B28798  32.767   9.370  15.522 -0.0979 -0.0207  0.1432
 2454DOPC   C3B28799  32.630   9.678  15.174  0.1391 -0.1486 -0.4004
 2454DOPC   C4B28800  32.252   9.930  15.007  0.2607  0.0037  0.2601
 2455POSM   NC328801  26.860   3.067  16.392  0.1422  0.0982  0.0735
 2455POSM   PO428802  26.605   3.365  16.431  0.1592  0.1736 -0.0271
 2455POSM   AM128803  26.641   3.408  16.073  0.0027 -0.3042  0.4557
 2455POSM   AM228804  26.775   3.266  15.896 -0.1011  0.1558 -0.0710
 2455POSM   T1A28805  26.485   3.645  15.683 -0.0399 -0.2230 -0.2646
 2455POSM   C2A28806  26.020   3.776  15.646  0.6680  0.0105  0.1625
 2455POSM   C3A28807  25.847   3.903  15.229  0.0123 -0.1606  0.0699
 2455POSM   C1B28808  26.757   3.022  15.698  0.2309 -0.1464  0.1579
 2455POSM   D2B28809  26.697   2.680  15.360  0.0115  0.1699  0.0039
 2455POSM   C3B28810  26.920   2.370  15.637  0.0855 -0.2400  0.0573
 2455POSM   C4B28811  26.996   1.925  15.582  0.0938  0.3584 -0.0821
 2456DOPS   CNO28812  30.998  10.123  16.435  0.1137 -0.0218 -0.1723
 2456DOPS   PO428813  31.006   9.810  16.676  0.0092  0.0582  0.2617
 2456DOPS   GL128814  31.123   9.686  16.243 -0.2511  0.0617  0.2997
 2456DOPS   GL228815  30.870   9.594  16.171 -0.1208  0.0893  0.0469
 2456DOPS   C1A28816  31.081   9.858  15.800  0.2547  0.0209 -0.0761
 2456DOPS   D2A28817  31.377  10.181  15.558  0.0151  0.2558 -0.0292
 2456DOPS   C3A28818  31.317  10.614  15.528  0.0166  0.0381 -0.2656
 2456DOPS   C4A28819  31.110  11.029  15.613 -0.0966  0.1252  0.1637
 2456DOPS   C1B28820  31.047   9.320  15.786 -0.0179 -0.0067  0.1452
 2456DOPS   D2B28821  31.213   9.158  15.353 -0.0199  0.2079 -0.2873
 2456DOPS   C3B28822  30.894   8.820  15.119  0.0634  0.2111 -0.2716
 2456DOPS   C4B28823  30.671   8.382  15.011 -0.0848  0.2320  0.1486
 2457DOPC   NC328824  28.072   2.995  17.381  0.1975  0.3119  0.2128
 2457DOPC   PO428825  28.126   3.097  16.997  0.2573 -0.2982 -0.2453
 2457DOPC   GL128826  28.361   3.005  16.684  0.2909  0.0255  0.0751
 2457DOPC   GL228827  28.264   2.703  16.738 -0.0032 -0.0177  0.0625
 2457DOPC   C1A28828  28.775   2.904  16.554  0.4057  0.1251  0.1537
 2457DOPC   D2A28829  29.217   2.885  16.632 -0.0305  0.3344  0.2227
 2457DOPC   C3A28830  29.505   2.650  16.371 -0.2711 -0.2900 -0.3106
 2457DOPC   C4A28831  29.671   2.361  16.107  0.2160 -0.0454 -0.2585
 2457DOPC   C1B28832  27.993   2.566  16.417  0.0975  0.0390 -0.1291
 2457DOPC   D2B28833  27.602   2.478  16.239 -0.2501  0.2310 -0.3767
 2457DOPC   C3B28834  27.858   2.332  15.919 -0.1914 -0.0458 -0.1663
 2457DOPC   C4B28835  28.234   2.416  15.639  0.0636 -0.0102 -0.0630
 2458DOPE   NH328836  25.229   5.774  17.201  0.0938  0.0229  0.1523
 2458DOPE   PO428837  25.343   6.041  17.060  0.1362 -0.2217  0.0388
 2458DOPE   GL128838  25.307   5.765  16.709  0.2669 -0.3180 -0.4140
 2458DOPE   GL228839  25.439   5.976  16.487 -0.3275 -0.3409  0.2116
 2458DOPE   C1A28840  25.150   5.479  16.390  0.0914  0.1312 -0.3374
 2458DOPE   D2A28841  25.246   5.316  15.970  0.2812 -0.3911 -0.0312
 2458DOPE   C3A28842  25.459   5.657  15.751  0.1444 -0.2559 -0.0052
 2458DOPE   C4A28843  25.348   5.982  15.477  0.0312 -0.1069  0.1247
 2458DOPE   C1B28844  25.616   5.644  16.252 -0.1561  0.2976  0.4396
 2458DOPE   D2B28845  25.877   5.541  15.864 -0.2328 -0.1881 -0.2760
 2458DOPE   C3B28846  25.808   5.685  15.420 -0.0310 -0.4725  0.0105
 2458DOPE   C4B28847  26.126   5.568  15.090  0.1749  0.1987 -0.1015
 2459POSM   NC328848  31.071   8.807  16.499  0.1950 -0.2151  0.0456
 2459POSM   PO428849  31.457   8.730  16.577  0.2534  0.1813 -0.4547
 2459POSM   AM128850  31.446   8.766  16.248  0.1120 -0.1257  0.3184
 2459POSM   AM228851  31.474   8.961  16.042 -0.2441 -0.2542  0.2944
 2459POSM   T1A28852  31.505   8.510  15.861  0.0965 -0.2649  0.0126
 2459POSM   C2A28853  31.519   8.215  15.539 -0.1610  0.2556 -0.1519
 2459POSM   C3A28854  31.267   7.961  15.275 -0.2872 -0.1201  0.3692
 2459POSM   C1B28855  31.476   8.955  15.709 -0.0789  0.2095  0.2424
 2459POSM   D2B28856  31.660   8.986  15.251  0.3789 -0.0163  0.0681
 2459POSM   C3B28857  31.480   8.805  14.836  0.1239  0.2840  0.1871
 2459POSM   C4B28858  31.185   8.695  14.435  0.0763  0.1359  0.0928
 2460DOPS   CNO28859  28.337  11.087  17.173  0.0474  0.3430  0.1368
 2460DOPS   PO428860  28.617  11.270  17.161  0.2250  0.0292  0.0662
 2460DOPS   GL128861  28.731  11.353  16.796  0.3830 -0.2113  0.1753
 2460DOPS   GL228862  28.823  11.104  16.629 -0.2291 -0.0800  0.0970
 2460DOPS   C1A28863  28.642  11.537  16.441  0.1871  0.2102 -0.2908
 2460DOPS   D2A28864  28.489  11.670  16.042  0.2111  0.1590  0.4502
 2460DOPS   C3A28865  28.625  11.248  15.840  0.1185 -0.0548  0.2914
 2460DOPS   C4A28866  28.501  10.978  15.506  0.0082  0.0810  0.1835
 2460DOPS   C1B28867  28.461  11.123  16.347  0.0365 -0.4306  0.2420
 2460DOPS   D2B28868  28.230  11.059  15.942 -0.3338 -0.0850 -0.2579
 2460DOPS   C3B28869  28.129  11.323  15.545 -0.1173  0.2373  0.1132
 2460DOPS   C4B28870  28.378  11.333  15.150 -0.1265  0.1163  0.0662
 2461DOPC   NC328871  33.383   3.305  16.725  0.0143  0.0534 -0.1049
 2461DOPC   PO428872  33.628   3.124  16.519 -0.2340 -0.2542 -0.1473
 2461DOPC   GL128873  33.777   3.249  16.185  0.2105 -0.0666  0.1682
 2461DOPC   GL228874  33.679   3.411  15.991 -0.0491  0.2177  0.0982
 2461DOPC   C1A28875  33.964   3.023  15.782  0.0343 -0.2902  0.0104
 2461DOPC   D2A28876  33.853   2.974  15.367  0.1607 -0.0611  0.2806
 2461DOPC   C3A28877  34.278   2.834  15.192 -0.0765 -0.1965 -0.0711
 2461DOPC   C4A28878  34.567   2.555  15.337  0.0033  0.0013  0.0789
 2461DOPC   C1B28879  33.560   3.345  15.550 -0.1842 -0.0584 -0.2640
 2461DOPC   D2B28880  33.405   3.190  15.166  0.2299 -0.0179  0.1054
 2461DOPC   C3B28881  33.196   2.782  14.995  0.0790  0.0476 -0.1971
 2461DOPC   C4B28882  32.930   2.428  14.813  0.2701  0.0977  0.3125
 2462DOPE   NH328883  28.794   4.457  16.927  0.1347  0.2848  0.0953
 2462DOPE   PO428884  28.593   4.195  16.826 -0.1262  0.0678  0.0678
 2462DOPE   GL128885  28.777   4.164  16.515 -0.1507  0.1492 -0.0310
 2462DOPE   GL228886  28.813   4.452  16.402  0.1538  0.2283 -0.1166
 2462DOPE   C1A28887  29.130   4.010  16.229  0.1786 -0.0120 -0.0692
 2462DOPE   D2A28888  29.479   3.945  16.050  0.0639  0.5249 -0.3459
 2462DOPE   C3A28889  29.601   3.668  15.753  0.0615  0.2290  0.0186
 2462DOPE   C4A28890  29.621   3.708  15.309 -0.2207 -0.1391  0.1334
 2462DOPE   C1B28891  28.495   4.609  16.193 -0.1222 -0.2227  0.0686
 2462DOPE   D2B28892  28.215   4.953  16.042  0.1336  0.0377 -0.4207
 2462DOPE   C3B28893  28.062   4.890  15.570  0.1050  0.1470  0.1683
 2462DOPE   C4B28894  28.189   4.856  15.086  0.0537  0.2800 -0.2968
 2463DOPE   NH328895  27.542   4.240  16.290 -0.0096 -0.1301 -0.3992
 2463DOPE   PO428896  27.876   4.200  16.276  0.0484 -0.1230 -0.1194
 2463DOPE   GL128897  27.910   4.042  15.949  0.2051 -0.3103  0.2084
 2463DOPE   GL228898  28.192   4.008  15.812  0.0304 -0.1608 -0.1284
 2463DOPE   C1A28899  27.757   3.736  15.613  0.3520 -0.1023 -0.1590
 2463DOPE   D2A28900  27.657   3.757  15.148  0.0028 -0.1074  0.3104
 2463DOPE   C3A28901  27.888   3.553  14.781  0.1323  0.0957  0.1710
 2463DOPE   C4A28902  28.301   3.358  14.671  0.0292  0.0195  0.0385
 2463DOPE   C1B28903  28.408   4.325  15.659 -0.0106  0.1541 -0.2617
 2463DOPE   D2B28904  28.572   4.702  15.468 -0.0084  0.0127  0.0426
 2463DOPE   C3B28905  29.010   4.740  15.350 -0.2371  0.1885 -0.0805
 2463DOPE   C4B28906  29.244   4.790  15.000 -0.5240 -0.2487 -0.2605
 2464DOPC   NC328907  30.879  10.697  17.498 -0.2710 -0.1372 -0.1665
 2464DOPC   PO428908  30.648  10.824  17.242 -0.1790 -0.0449  0.0144
 2464DOPC   GL128909  30.789  10.711  16.880 -0.2095 -0.0869  0.1077
 2464DOPC   GL228910  31.051  10.590  16.811  0.2211  0.0838 -0.0503
 2464DOPC   C1A28911  30.813  10.803  16.376 -0.0875 -0.1555 -0.0092
 2464DOPC   D2A28912  30.389  10.773  16.166  0.2204  0.2525  0.2838
 2464DOPC   C3A28913  30.342  10.417  15.849 -0.0502 -0.2745  0.0394
 2464DOPC   C4A28914  30.317  10.181  15.446  0.0215 -0.0965  0.2816
 2464DOPC   C1B28915  31.212  11.018  16.560  0.4215 -0.2164  0.1493
 2464DOPC   D2B28916  31.191  11.084  16.084  0.2090  0.0933  0.3201
 2464DOPC   C3B28917  31.412  11.494  16.032  0.0514  0.0472 -0.1434
 2464DOPC   C4B28918  31.817  11.742  16.181  0.3451 -0.0781 -0.0350
 2465POSM   NC328919  32.395   6.169  17.831 -0.4246 -0.3863 -0.1200
 2465POSM   PO428920  32.240   5.980  17.545  0.0467  0.1606 -0.0419
 2465POSM   AM128921  32.338   6.008  17.211  0.0886  0.1449  0.1887
 2465POSM   AM228922  32.463   5.908  17.007 -0.3678 -0.1459  0.1258
 2465POSM   T1A28923  32.183   6.278  16.869  0.0694 -0.0943  0.1560
 2465POSM   C2A28924  31.933   6.420  16.517 -0.1482 -0.0793 -0.3047
 2465POSM   C3A28925  31.710   6.666  16.211 -0.1460  0.1132 -0.0582
 2465POSM   C1B28926  32.423   5.890  16.678 -0.0551  0.2333  0.2324
 2465POSM   D2B28927  32.187   5.952  16.264  0.0954  0.0794 -0.3514
 2465POSM   C3B28928  32.076   6.326  16.010 -0.3215  0.0583  0.0749
 2465POSM   C4B28929  31.926   6.720  15.764  0.5748 -0.1118  0.0358
 2466DOPE   NH328930  23.042   9.631  16.298  0.0609  0.1796 -0.3637
 2466DOPE   PO428931  23.359   9.745  16.320 -0.1120 -0.1955 -0.3150
 2466DOPE   GL128932  23.544   9.811  16.017 -0.2318 -0.0070 -0.1188
 2466DOPE   GL228933  23.424   9.980  15.834 -0.1753 -0.0774 -0.2665
 2466DOPE   C1A28934  23.744   9.689  15.643 -0.2566  0.1374  0.2688
 2466DOPE   D2A28935  24.053   9.482  15.406 -0.2998  0.0555 -0.2599
 2466DOPE   C3A28936  24.386   9.495  15.025 -0.0181 -0.1429  0.0027
 2466DOPE   C4A28937  24.538   9.529  14.581  0.2113  0.0384  0.1308
 2466DOPE   C1B28938  23.399  10.139  15.430  0.0925 -0.0388  0.2863
 2466DOPE   D2B28939  23.302  10.411  15.059 -0.5277  0.1327 -0.0545
 2466DOPE   C3B28940  23.322  10.459  14.621 -0.3405  0.0926 -0.2998
 2466DOPE   C4B28941  23.343  10.195  14.270 -0.0483 -0.0210  0.1456
 2467DOPS   CNO28942  27.650   0.748  16.920 -0.0258  0.0042  0.2105
 2467DOPS   PO428943  27.821   1.016  16.776  0.0111 -0.2569 -0.0032
 2467DOPS   GL128944  27.895   0.910  16.305 -0.1048  0.4025  0.3784
 2467DOPS   GL228945  27.633   0.849  16.217  0.3520 -0.0238 -0.1127
 2467DOPS   C1A28946  27.979   0.989  15.848 -0.1247 -0.3472  0.1502
 2467DOPS   D2A28947  28.212   0.987  15.411  0.2785  0.0370  0.0268
 2467DOPS   C3A28948  27.894   0.964  15.098  0.0287 -0.2841  0.0681
 2467DOPS   C4A28949  27.539   1.009  14.780 -0.3239 -0.0303  0.1530
 2467DOPS   C1B28950  27.602   1.233  16.096 -0.2184  0.0933 -0.1051
 2467DOPS   D2B28951  27.480   1.619  16.336  0.2745  0.0764  0.3143
 2467DOPS   C3B28952  27.422   1.960  16.057  0.1687 -0.0420  0.2013
 2467DOPS   C4B28953  27.505   2.021  15.608 -0.4146  0.2085  0.1104
 2468POSM   NC328954  29.411   7.834  16.961 -0.0455  0.1358 -0.2373
 2468POSM   PO428955  29.660   8.163  16.934  0.0007 -0.0433 -0.0158
 2468POSM   AM128956  29.808   8.049  16.631 -0.0747 -0.3641 -0.0303
 2468POSM   AM228957  29.995   8.078  16.447 -0.0173  0.0019  0.2704
 2468POSM   T1A28958  29.649   7.776  16.226  0.0036  0.1426 -0.0578
 2468POSM   C2A28959  29.316   7.775  15.866 -0.2291 -0.0348 -0.0126
 2468POSM   C3A28960  28.976   7.489  15.718 -0.4692  0.1866  0.2277
 2468POSM   C1B28961  30.020   8.070  16.085 -0.0378 -0.0142  0.2715
 2468POSM   D2B28962  30.045   8.383  15.737  0.2047 -0.2001  0.2514
 2468POSM   C3B28963  29.900   8.385  15.280 -0.0391  0.0433 -0.2904
 2468POSM   C4B28964  29.995   8.208  14.876 -0.0159  0.0636 -0.3049
 2469POSM   NC328965  27.442   8.549  16.853 -0.1994  0.1564  0.1896
 2469POSM   PO428966  27.748   8.338  16.738  0.4715 -0.1073 -0.0244
 2469POSM   AM128967  27.750   8.270  16.431  0.0244 -0.1311  0.2761
 2469POSM   AM228968  27.852   8.082  16.278 -0.0965 -0.1146 -0.2556
 2469POSM   T1A28969  27.610   8.586  16.094  0.2793  0.3123 -0.2212
 2469POSM   C2A28970  27.531   8.750  15.733 -0.0661 -0.1943  0.1357
 2469POSM   C3A28971  27.796   8.989  15.452 -0.2534 -0.6302 -0.5119
 2469POSM   C1B28972  27.884   8.104  15.973  0.0821  0.2911 -0.2410
 2469POSM   D2B28973  27.909   8.188  15.547 -0.1350 -0.1234 -0.1340
 2469POSM   C3B28974  27.721   8.532  15.292  0.0128 -0.2726 -0.0741
 2469POSM   C4B28975  27.600   8.858  14.948 -0.0918  0.1022 -0.1051
 2470DOPC   NC328976  25.707   0.882  16.266 -0.0855  0.0718 -0.3014
 2470DOPC   PO428977  25.707   0.513  16.313  0.0126 -0.0659  0.0967
 2470DOPC   GL128978  25.648   0.346  16.008 -0.0091  0.1245 -0.0269
 2470DOPC   GL228979  25.773   0.197  15.771 -0.0472 -0.1318  0.2265
 2470DOPC   C1A28980  25.425   0.557  15.598 -0.2051  0.0941  0.2775
 2470DOPC   D2A28981  25.170   0.830  15.311  0.2412  0.0897  0.1516
 2470DOPC   C3A28982  25.244   0.968  14.916  0.2189  0.0952  0.1651
 2470DOPC   C4A28983  25.207   0.940  14.494  0.1195 -0.1525  0.2455
 2470DOPC   C1B28984  26.086  -0.147  15.852 -0.2035  0.0093  0.2632
 2470DOPC   D2B28985  26.533  -0.287  15.667 -0.0105 -0.0603 -0.0622
 2470DOPC   C3B28986  26.502  -0.321  15.177 -0.1133  0.3072  0.3508
 2470DOPC   C4B28987  26.201  -0.056  14.881  0.1746 -0.1878 -0.2596
 2471DOPS   CNO28988  31.348   4.019  17.553  0.0860 -0.0461  0.1340
 2471DOPS   PO428989  31.167   3.761  17.327  0.1584  0.0361  0.0731
 2471DOPS   GL128990  31.171   4.049  16.975 -0.3162  0.0562  0.6254
 2471DOPS   GL228991  30.973   4.212  17.164  0.3011  0.1201 -0.1301
 2471DOPS   C1A28992  30.965   4.205  16.578  0.0354 -0.2420  0.1987
 2471DOPS   D2A28993  30.949   4.402  16.138 -0.0412  0.1679  0.0555
 2471DOPS   C3A28994  31.355   4.196  16.022  0.0115 -0.1991 -0.1359
 2471DOPS   C4A28995  31.728   3.952  16.243  0.1018 -0.5565  0.2683
 2471DOPS   C1B28996  30.751   4.587  17.083 -0.0268  0.1443  0.2173
 2471DOPS   D2B28997  30.436   4.690  16.787  0.0799 -0.0911 -0.0907
 2471DOPS   C3B28998  30.343   4.976  16.446  0.0082 -0.1877  0.2019
 2471DOPS   C4B28999  30.284   5.270  16.128  0.0984  0.1218 -0.0093
 2472DOPE   NH329000  32.000   9.641  16.627  0.0030  0.2142 -0.0020
 2472DOPE   PO429001  31.925   9.915  16.675  0.0211 -0.1107 -0.1125
 2472DOPE   GL129002  31.963  10.074  16.354 -0.0905  0.0146  0.0902
 2472DOPE   GL229003  32.183   9.948  16.226  0.1431  0.2004 -0.0005
 2472DOPE   C1A29004  31.930  10.476  16.143  0.0444  0.4168  0.1252
 2472DOPE   D2A29005  32.125  10.749  15.791 -0.0188 -0.0800  0.2523
 2472DOPE   C3A29006  32.065  11.116  15.477  0.0558 -0.1442 -0.1407
 2472DOPE   C4A29007  32.181  11.480  15.251 -0.5066 -0.0066 -0.0901
 2472DOPE   C1B29008  32.009  10.071  15.795 -0.3500 -0.0037 -0.3271
 2472DOPE   D2B29009  31.958   9.964  15.372  0.0028 -0.0852  0.2173
 2472DOPE   C3B29010  31.839  10.252  15.027 -0.0100  0.1319 -0.1526
 2472DOPE   C4B29011  31.819  10.475  14.640  0.4113 -0.0043  0.0989
 2473POSM   NC329012  33.603   5.084  16.893 -0.2579 -0.1297 -0.1304
 2473POSM   PO429013  33.725   5.055  16.536 -0.2772  0.0186  0.0392
 2473POSM   AM129014  33.525   5.185  16.339  0.2325 -0.0075 -0.2969
 2473POSM   AM229015  33.273   5.180  16.209 -0.2432  0.1531  0.0587
 2473POSM   T1A29016  33.569   5.300  15.823  0.1768  0.0239  0.1334
 2473POSM   C2A29017  33.401   5.330  15.417 -0.2822 -0.2924 -0.1768
 2473POSM   C3A29018  33.129   5.379  15.014  0.0831  0.1719  0.0521
 2473POSM   C1B29019  33.176   5.492  16.124 -0.0599  0.1717 -0.1589
 2473POSM   D2B29020  33.206   5.943  15.975 -0.1950 -0.0772 -0.3032
 2473POSM   C3B29021  33.027   6.232  15.683 -0.1100 -0.1413 -0.1473
 2473POSM   C4B29022  32.885   6.590  15.498  0.2312 -0.2927  0.3183
 2474POSM   NC329023  34.225   1.673  16.265 -0.3127 -0.0554  0.0302
 2474POSM   PO429024  34.479   1.847  16.000  0.1104 -0.1326 -0.6982
 2474POSM   AM129025  34.463   1.850  15.689  0.0874 -0.1969 -0.2069
 2474POSM   AM229026  34.647   1.861  15.461  0.1121  0.4644  0.2167
 2474POSM   T1A29027  34.169   2.007  15.350 -0.0642 -0.0409 -0.1407
 2474POSM   C2A29028  34.060   2.099  14.966  0.3648  0.2467  0.0550
 2474POSM   C3A29029  34.010   1.765  14.598  0.3377 -0.0200  0.0452
 2474POSM   C1B29030  34.706   2.050  15.179 -0.0418 -0.2159  0.1390
 2474POSM   D2B29031  34.653   2.424  14.887  0.1087 -0.2621  0.0043
 2474POSM   C3B29032  34.227   2.522  14.803  0.1778 -0.0054 -0.0756
 2474POSM   C4B29033  34.044   2.286  14.481  0.2912  0.0244 -0.2249
 2475DOPC   NC329034  24.180   7.935  16.867 -0.1850  0.2984  0.2878
 2475DOPC   PO429035  24.017   8.300  16.804  0.1226 -0.0375  0.0563
 2475DOPC   GL129036  24.048   8.186  16.373  0.0602 -0.2029 -0.4324
 2475DOPC   GL229037  24.204   8.353  16.147 -0.1747  0.3332 -0.0243
 2475DOPC   C1A29038  23.820   7.985  16.008 -0.0982  0.2351  0.1063
 2475DOPC   D2A29039  23.508   7.854  15.634 -0.3074 -0.0541 -0.1934
 2475DOPC   C3A29040  23.533   8.122  15.187 -0.1897  0.1309 -0.0146
 2475DOPC   C4A29041  23.172   8.264  14.943  0.2565 -0.3445 -0.1365
 2475DOPC   C1B29042  24.431   8.709  15.959  0.2385  0.0860 -0.0907
 2475DOPC   D2B29043  24.716   9.102  16.000 -0.2525 -0.2716  0.1369
 2475DOPC   C3B29044  25.141   9.186  16.050 -0.1105  0.0999  0.0760
 2475DOPC   C4B29045  25.520   9.406  16.125 -0.3720  0.3514 -0.0216
 2476DOPC   NC329046  24.654   2.902  15.951 -0.4152 -0.4663 -0.2240
 2476DOPC   PO429047  24.534   2.583  16.191  0.0264  0.3304  0.1800
 2476DOPC   GL129048  24.347   2.520  15.804 -0.0764  0.2710 -0.1517
 2476DOPC   GL229049  24.586   2.353  15.724  0.2379 -0.1491  0.2649
 2476DOPC   C1A29050  24.268   2.885  15.507 -0.2443 -0.0158  0.1250
 2476DOPC   D2A29051  24.090   3.318  15.496 -0.0188  0.1043 -0.2711
 2476DOPC   C3A29052  23.916   3.407  15.082  0.0402  0.0470 -0.1698
 2476DOPC   C4A29053  23.683   3.191  14.740 -0.1590  0.1120 -0.3695
 2476DOPC   C1B29054  24.743   2.622  15.338 -0.2512 -0.5031  0.1608
 2476DOPC   D2B29055  24.651   2.823  14.967 -0.1878 -0.1739  0.2430
 2476DOPC   C3B29056  24.604   2.380  14.745  0.0820  0.1522 -0.0877
 2476DOPC   C4B29057  24.289   2.175  14.480 -0.1215  0.0425 -0.2129
 2477POSM   NC329058  30.014   0.647  17.006  0.0073 -0.1028  0.1191
 2477POSM   PO429059  30.059   0.252  16.973 -0.0886 -0.0313  0.0602
 2477POSM   AM129060  29.993   0.250  16.630  0.1880 -0.1921 -0.0573
 2477POSM   AM229061  29.741   0.344  16.524 -0.3534  0.0828 -0.3302
 2477POSM   T1A29062  29.850  -0.092  16.323 -0.1345 -0.1807 -0.0657
 2477POSM   C2A29063  29.559  -0.378  16.217  0.0892  0.2021 -0.0401
 2477POSM   C3A29064  29.522  -0.707  15.941 -0.1390  0.1910  0.0217
 2477POSM   C1B29065  29.466   0.520  16.365  0.0194  0.0255 -0.3680
 2477POSM   D2B29066  29.337   0.606  15.936 -0.0434  0.1905  0.1344
 2477POSM   C3B29067  29.257   0.708  15.513  0.1459  0.0234 -0.1060
 2477POSM   C4B29068  29.210   1.087  15.234 -0.1444 -0.0852 -0.1389
 2478POSM   NC329069  34.359   5.681  16.480  0.2209 -0.1555  0.2737
 2478POSM   PO429070  34.670   5.465  16.336  0.1400  0.0024  0.2312
 2478POSM   AM129071  34.646   5.619  16.026 -0.3061 -0.0373  0.2422
 2478POSM   AM229072  34.782   5.873  15.921  0.0942  0.1609 -0.0494
 2478POSM   T1A29073  34.585   5.625  15.539  0.3057  0.1435  0.1002
 2478POSM   C2A29074  34.398   5.488  15.144  0.0100 -0.0553  0.1599
 2478POSM   C3A29075  34.285   5.268  14.757  0.2951  0.5698 -0.0871
 2478POSM   C1B29076  34.740   6.163  15.749  0.2887 -0.2911  0.1813
 2478POSM   D2B29077  34.352   6.413  15.575  0.2067  0.0812 -0.2346
 2478POSM   C3B29078  34.279   6.814  15.726  0.2016  0.0798  0.0642
 2478POSM   C4B29079  34.073   7.201  15.800  0.2576  0.2646 -0.2840
 2479DOPE   NH329080  32.547  10.409  17.323 -0.0300  0.1108  0.1637
 2479DOPE   PO429081  32.371  10.523  17.059 -0.4142 -0.2046  0.1344
 2479DOPE   GL129082  32.525  10.864  16.727 -0.1620 -0.2458  0.2415
 2479DOPE   GL229083  32.398  10.653  16.586 -0.1582 -0.0421  0.1126
 2479DOPE   C1A29084  32.874  10.954  16.416 -0.2386  0.2801 -0.3843
 2479DOPE   D2A29085  32.925  11.157  16.009  0.3459  0.0937 -0.0114
 2479DOPE   C3A29086  33.079  11.546  15.791 -0.3412  0.2472  0.0041
 2479DOPE   C4A29087  33.161  11.983  15.783 -0.1481  0.1695  0.0821
 2479DOPE   C1B29088  32.483  10.464  16.143 -0.0160 -0.2431  0.1675
 2479DOPE   D2B29089  32.535  10.474  15.701 -0.2772 -0.0172  0.2728
 2479DOPE   C3B29090  32.243  10.510  15.355  0.0509  0.0501 -0.3884
 2479DOPE   C4B29091  32.117  10.842  15.059 -0.2549  0.1073 -0.0672
 2480DOPC   NC329092  30.258   9.641  16.717 -0.3967  0.1731  0.2011
 2480DOPC   PO429093  30.545   9.519  16.505 -0.1444 -0.2368 -0.1232
 2480DOPC   GL129094  30.240   9.627  16.186 -0.1101 -0.1952  0.0230
 2480DOPC   GL229095  30.422   9.707  15.929  0.1669  0.1695  0.1352
 2480DOPC   C1A29096  29.889   9.403  15.902  0.3194  0.1024  0.0022
 2480DOPC   D2A29097  29.620   9.419  15.534 -0.0031 -0.0316  0.2095
 2480DOPC   C3A29098  29.490   9.829  15.247 -0.0335  0.1176  0.0039
 2480DOPC   C4A29099  29.445  10.250  15.193 -0.2443  0.1484 -0.2578
 2480DOPC   C1B29100  30.683   9.675  15.570 -0.1075  0.0135  0.0170
 2480DOPC   D2B29101  30.777   9.398  15.186 -0.1623  0.0862  0.1672
 2480DOPC   C3B29102  30.465   9.111  14.983 -0.3135  0.0508  0.3379
 2480DOPC   C4B29103  30.406   8.920  14.510 -0.0423 -0.0770 -0.0943
 2481DOPE   NH329104  30.082   5.538  17.622 -0.2377  0.1828  0.1401
 2481DOPE   PO429105  30.233   5.807  17.640  0.0180 -0.0636 -0.2240
 2481DOPE   GL129106  30.262   5.849  17.257 -0.1293 -0.0065 -0.0344
 2481DOPE   GL229107  30.129   5.682  17.053  0.0488  0.1651 -0.2645
 2481DOPE   C1A29108  30.514   6.126  16.944 -0.0812 -0.0604  0.0969
 2481DOPE   D2A29109  30.604   6.499  16.678 -0.2106 -0.4914  0.1093
 2481DOPE   C3A29110  30.310   6.660  16.347 -0.1133 -0.0624  0.1600
 2481DOPE   C4A29111  30.135   6.958  16.068  0.1633 -0.0528  0.0679
 2481DOPE   C1B29112  30.375   5.799  16.613 -0.0135 -0.1128 -0.1014
 2481DOPE   D2B29113  30.528   5.728  16.142  0.0690 -0.2498  0.0164
 2481DOPE   C3B29114  30.275   5.612  15.818 -0.0347 -0.1162 -0.1453
 2481DOPE   C4B29115  29.915   5.629  15.482  0.1828 -0.0773 -0.1091
 2482DOPE   NH329116  33.394   3.694  16.264  0.0724 -0.0371  0.2609
 2482DOPE   PO429117  33.139   3.469  16.294  0.2288  0.0808 -0.3894
 2482DOPE   GL129118  32.909   3.498  15.994  0.1639  0.2851  0.2127
 2482DOPE   GL229119  33.179   3.523  15.794 -0.0708  0.2038 -0.0273
 2482DOPE   C1A29120  32.487   3.329  15.836 -0.0566 -0.0381 -0.0763
 2482DOPE   D2A29121  32.433   3.295  15.416  0.2944  0.0407  0.0571
 2482DOPE   C3A29122  32.152   2.929  15.368  0.1763  0.0066 -0.1405
 2482DOPE   C4A29123  31.786   2.704  15.407  0.1058  0.1331 -0.0208
 2482DOPE   C1B29124  33.091   3.533  15.326  0.3947  0.1394 -0.0277
 2482DOPE   D2B29125  32.702   3.632  15.089 -0.0141 -0.0873 -0.0403
 2482DOPE   C3B29126  32.689   3.456  14.672  0.1877 -0.1314  0.2410
 2482DOPE   C4B29127  32.672   2.993  14.561 -0.1471 -0.0844  0.0418
 2483DOPE   NH329128  30.788   3.471  17.589 -0.1161 -0.1676  0.2284
 2483DOPE   PO429129  30.671   3.235  17.423 -0.1102  0.2524  0.1759
 2483DOPE   GL129130  30.738   3.318  16.953  0.1783 -0.2493 -0.0385
 2483DOPE   GL229131  30.731   3.622  17.064 -0.2237 -0.1445 -0.1144
 2483DOPE   C1A29132  30.412   3.120  16.652  0.0362  0.2154  0.0587
 2483DOPE   D2A29133  30.043   3.287  16.519  0.0393 -0.2559  0.4075
 2483DOPE   C3A29134  30.056   3.273  16.012 -0.3300  0.1385 -0.1785
 2483DOPE   C4A29135  29.979   3.362  15.534  0.0638 -0.1407  0.2642
 2483DOPE   C1B29136  30.706   3.818  16.681 -0.0297 -0.1477  0.0367
 2483DOPE   D2B29137  30.616   3.523  16.318  0.0022 -0.1347 -0.1780
 2483DOPE   C3B29138  30.485   3.530  15.871  0.0590  0.0326  0.0249
 2483DOPE   C4B29139  30.085   3.793  15.804 -0.1703 -0.0143 -0.1264
 2484DOPS   CNO29140  23.842   6.106  16.582 -0.3272  0.0654 -0.2336
 2484DOPS   PO429141  23.485   5.976  16.582 -0.1374 -0.0407  0.1939
 2484DOPS   GL129142  23.599   5.821  16.197  0.2975 -0.0138 -0.1156
 2484DOPS   GL229143  23.429   5.689  15.937 -0.4510  0.1407  0.1525
 2484DOPS   C1A29144  23.929   5.928  15.909 -0.1791  0.0231  0.0281
 2484DOPS   D2A29145  24.175   5.717  15.606  0.0078 -0.0661 -0.0817
 2484DOPS   C3A29146  24.628   5.728  15.417  0.1788 -0.0532 -0.2051
 2484DOPS   C4A29147  25.028   5.570  15.405 -0.2465  0.1282  0.0403
 2484DOPS   C1B29148  23.719   5.492  15.643 -0.1929 -0.0748  0.1646
 2484DOPS   D2B29149  23.902   5.537  15.206  0.2834  0.0800  0.2058
 2484DOPS   C3B29150  24.163   5.893  15.049 -0.2578 -0.0624  0.0221
 2484DOPS   C4B29151  24.294   5.879  14.602 -0.2451 -0.1254  0.2328
 2485DOPE   NH329152  29.082   6.347  17.261 -0.0112  0.1021  0.0667
 2485DOPE   PO429153  28.875   6.432  17.021  0.0250  0.0681 -0.0893
 2485DOPE   GL129154  28.893   6.699  16.772  0.1425 -0.0527  0.2286
 2485DOPE   GL229155  28.743   6.972  16.789  0.0836 -0.2862 -0.2697
 2485DOPE   C1A29156  29.164   6.957  16.483  0.0895  0.2042 -0.1980
 2485DOPE   D2A29157  29.300   7.314  16.146 -0.1665 -0.0717  0.0547
 2485DOPE   C3A29158  29.337   7.049  15.734 -0.3446 -0.2242 -0.0485
 2485DOPE   C4A29159  29.554   6.919  15.386 -0.0144  0.0827  0.1187
 2485DOPE   C1B29160  28.673   6.847  16.345  0.3637  0.2201  0.0558
 2485DOPE   D2B29161  28.622   6.785  15.873 -0.2904  0.3120 -0.4360
 2485DOPE   C3B29162  28.282   6.875  15.580  0.0672 -0.2551  0.1107
 2485DOPE   C4B29163  28.266   6.855  15.136 -0.0555  0.2549  0.1768
 2486DOPE   NH329164  26.663   6.494  16.747  0.3265  0.3157 -0.0485
 2486DOPE   PO429165  26.527   6.284  16.595 -0.1994 -0.0252 -0.0041
 2486DOPE   GL129166  26.344   6.176  16.258  0.2178 -0.0180 -0.0249
 2486DOPE   GL229167  26.532   6.055  16.131  0.2688  0.0737  0.1332
 2486DOPE   C1A29168  26.154   6.458  15.935  0.1588  0.0726 -0.4317
 2486DOPE   D2A29169  26.274   6.552  15.493  0.0560  0.1558 -0.0948
 2486DOPE   C3A29170  25.943   6.689  15.194 -0.0133 -0.0437  0.0750
 2486DOPE   C4A29171  25.792   6.600  14.758 -0.1137  0.0130 -0.0782
 2486DOPE   C1B29172  26.551   6.099  15.664  0.0071 -0.1905  0.0794
 2486DOPE   D2B29173  26.684   6.342  15.297 -0.3547  0.0220  0.3285
 2486DOPE   C3B29174  26.975   6.133  15.036  0.2292  0.0795  0.2112
 2486DOPE   C4B29175  27.297   6.190  14.719  0.1610 -0.1519 -0.1742
 2487POSM   NC329176  25.563   0.151  16.594 -0.1471 -0.1106 -0.4276
 2487POSM   PO429177  25.916   0.097  16.729  0.2222  0.0199  0.1352
 2487POSM   AM129178  26.138   0.097  16.476  0.1105 -0.1811 -0.0425
 2487POSM   AM229179  26.222   0.221  16.246  0.1087  0.0535  0.1993
 2487POSM   T1A29180  26.475  -0.178  16.237 -0.0659  0.1463 -0.3074
 2487POSM   C2A29181  26.905  -0.308  16.159  0.0891  0.0846 -0.1629
 2487POSM   C3A29182  27.243  -0.301  16.408  0.1607 -0.4283  0.1837
 2487POSM   C1B29183  26.484   0.285  16.020 -0.0945  0.0147  0.6031
 2487POSM   D2B29184  26.708   0.549  15.693 -0.0971  0.1937  0.1032
 2487POSM   C3B29185  27.170   0.491  15.781 -0.0074  0.1269 -0.1194
 2487POSM   C4B29186  27.550   0.283  15.690  0.2854 -0.0199  0.0223
 2488POSM   NC329187  27.270   3.071  17.011 -0.0130 -0.0424  0.3756
 2488POSM   PO429188  27.283   3.110  16.609  0.0818  0.1073 -0.3750
 2488POSM   AM129189  27.374   3.102  16.323 -0.0426  0.1725 -0.1715
 2488POSM   AM229190  27.225   3.017  16.095 -0.4358  0.1395 -0.3096
 2488POSM   T1A29191  27.608   3.258  15.916 -0.3305 -0.0551  0.1677
 2488POSM   C2A29192  27.795   3.243  15.484  0.0239  0.0355  0.0391
 2488POSM   C3A29193  28.189   3.366  15.172  0.0566 -0.1291 -0.0408
 2488POSM   C1B29194  27.282   2.906  15.742  0.0788 -0.2506  0.4356
 2488POSM   D2B29195  27.392   2.912  15.336  0.4490  0.0790 -0.1939
 2488POSM   C3B29196  27.602   2.708  14.990  0.2428  0.0254  0.0773
 2488POSM   C4B29197  27.782   2.389  14.655 -0.0921  0.2135 -0.2020
 2489DOPC   NC329198  27.884   6.112  16.728 -0.0571 -0.1052  0.2741
 2489DOPC   PO429199  28.243   6.042  16.892 -0.3876  0.0580 -0.0867
 2489DOPC   GL129200  28.381   6.097  16.576 -0.2423  0.1263  0.1208
 2489DOPC   GL229201  28.678   6.193  16.550 -0.0132  0.2234 -0.0455
 2489DOPC   C1A29202  28.511   5.915  16.175  0.0006 -0.0071 -0.0014
 2489DOPC   D2A29203  28.372   5.979  15.741  0.2263  0.1485 -0.0791
 2489DOPC   C3A29204  28.378   5.628  15.445  0.0453 -0.0334 -0.1320
 2489DOPC   C4A29205  28.434   5.178  15.496 -0.0159 -0.2884  0.3092
 2489DOPC   C1B29206  28.718   6.385  16.091  0.0388  0.1352  0.2420
 2489DOPC   D2B29207  28.493   6.417  15.610 -0.1286 -0.0260  0.1892
 2489DOPC   C3B29208  28.653   6.608  15.226  0.1784 -0.0117  0.0776
 2489DOPC   C4B29209  28.803   6.469  14.832  0.0320 -0.4489  0.0795
 2490DOPC   NC329210  26.904   9.188  17.044  0.2754 -0.0660  0.1827
 2490DOPC   PO429211  27.006   8.788  16.929 -0.1533  0.0726  0.1221
 2490DOPC   GL129212  26.906   8.750  16.511 -0.0525 -0.0486  0.1126
 2490DOPC   GL229213  27.173   8.666  16.410 -0.1016 -0.0881  0.2403
 2490DOPC   C1A29214  26.727   8.449  16.212 -0.2095  0.0497  0.1096
 2490DOPC   D2A29215  26.898   8.446  15.798  0.0835 -0.0627  0.1767
 2490DOPC   C3A29216  27.079   8.577  15.402 -0.0134 -0.0078 -0.2873
 2490DOPC   C4A29217  27.284   8.423  14.993 -0.0557 -0.1228  0.0595
 2490DOPC   C1B29218  27.292   8.995  16.091 -0.1688  0.3320  0.1980
 2490DOPC   D2B29219  27.125   9.203  15.714 -0.3145 -0.1134  0.1386
 2490DOPC   C3B29220  27.301   8.977  15.334  0.1368  0.1998  0.1443
 2490DOPC   C4B29221  27.080   8.891  14.893 -0.0180  0.2933  0.2468
 2491POSM   NC329222  26.161   9.640  16.825  0.0973  0.5213 -0.0133
 2491POSM   PO429223  26.255   9.897  16.525 -0.1027 -0.2819 -0.1625
 2491POSM   AM129224  26.228   9.949  16.236 -0.2261 -0.1981 -0.1727
 2491POSM   AM229225  26.316  10.142  16.063  0.2573 -0.1256  0.3624
 2491POSM   T1A29226  25.908  10.004  15.846  0.1935 -0.0579  0.0334
 2491POSM   C2A29227  25.534   9.821  15.683 -0.1864  0.0829  0.2229
 2491POSM   C3A29228  25.081   9.890  15.589  0.1355 -0.2311  0.1044
 2491POSM   C1B29229  26.460   9.948  15.841  0.1243 -0.1489  0.3897
 2491POSM   D2B29230  26.639  10.013  15.431 -0.2022  0.2919 -0.4246
 2491POSM   C3B29231  26.339   9.763  15.199 -0.0339  0.1369 -0.2589
 2491POSM   C4B29232  26.163   9.586  14.812  0.2734  0.0973 -0.6157
 2492DOPC   NC329233  32.549   2.601  16.287 -0.2025  0.1635  0.1303
 2492DOPC   PO429234  32.550   2.213  16.336 -0.2562  0.2671  0.0040
 2492DOPC   GL129235  32.143   2.358  16.275  0.0120 -0.0287  0.1865
 2492DOPC   GL229236  31.943   2.474  16.509  0.3354 -0.0040  0.2671
 2492DOPC   C1A29237  31.997   2.518  15.832  0.4074 -0.0110  0.1270
 2492DOPC   D2A29238  31.525   2.445  15.825  0.0238 -0.0041  0.3447
 2492DOPC   C3A29239  31.372   2.466  15.381 -0.3086 -0.2199  0.2000
 2492DOPC   C4A29240  31.109   2.350  15.078  0.2929 -0.0391 -0.0493
 2492DOPC   C1B29241  31.729   2.826  16.243  0.2260  0.1536  0.1682
 2492DOPC   D2B29242  31.421   3.080  16.045 -0.2605 -0.1301  0.0805
 2492DOPC   C3B29243  31.390   2.927  15.580  0.0331  0.1235 -0.3578
 2492DOPC   C4B29244  31.400   2.830  15.104  0.2041  0.0883 -0.3030
 2493POSM   NC329245  22.449   7.503  15.726  0.0206 -0.5185  0.1281
 2493POSM   PO429246  22.567   7.843  15.909 -0.0443 -0.0182  0.1743
 2493POSM   AM129247  22.787   7.892  15.664  0.1860 -0.0468 -0.3120
 2493POSM   AM229248  23.033   8.015  15.670  0.2300  0.3582 -0.3132
 2493POSM   T1A29249  23.090   7.802  15.222 -0.1057  0.1657 -0.1581
 2493POSM   C2A29250  23.532   7.652  15.074 -0.0610 -0.3572  0.2921
 2493POSM   C3A29251  23.853   7.349  14.977  0.0454  0.1810 -0.2654
 2493POSM   C1B29252  23.129   8.278  15.546 -0.1210 -0.0023 -0.0864
 2493POSM   D2B29253  23.422   8.603  15.422  0.2606  0.0770 -0.1251
 2493POSM   C3B29254  23.362   8.715  14.995  0.0541  0.1315 -0.2141
 2493POSM   C4B29255  23.400   8.688  14.540 -0.2510  0.0745 -0.3056
 2494DOPC   NC329256  25.681   4.991  16.897  0.2718  0.2919  0.1053
 2494DOPC   PO429257  25.865   5.284  16.730  0.2269 -0.1364  0.0107
 2494DOPC   GL129258  25.750   5.219  16.311 -0.2677  0.3146  0.0792
 2494DOPC   GL229259  25.464   5.118  16.359 -0.0912  0.1130 -0.1143
 2494DOPC   C1A29260  26.101   5.119  16.012 -0.1862  0.1021 -0.0975
 2494DOPC   D2A29261  26.528   5.124  15.803  0.1335  0.0404  0.3767
 2494DOPC   C3A29262  26.643   5.284  15.331 -0.2755  0.0985 -0.0935
 2494DOPC   C4A29263  26.888   5.230  14.902  0.1718 -0.0004 -0.1920
 2494DOPC   C1B29264  25.621   5.072  15.914 -0.1381 -0.1553 -0.2078
 2494DOPC   D2B29265  25.404   5.077  15.518  0.0554 -0.0034  0.0100
 2494DOPC   C3B29266  25.150   4.631  15.469 -0.0938  0.0281  0.1545
 2494DOPC   C4B29267  25.076   4.198  15.559  0.0574  0.0072 -0.0068
 2495POSM   NC329268  24.437  11.458  16.460 -0.0034  0.1653  0.0651
 2495POSM   PO429269  24.686  11.288  16.211  0.1649  0.0312 -0.0668
 2495POSM   AM129270  24.718  11.213  15.877  0.1337 -0.1697 -0.0256
 2495POSM   AM229271  24.852  11.088  15.728  0.1328 -0.2686 -0.2810
 2495POSM   T1A29272  24.531  11.204  15.420  0.0747  0.3301  0.0159
 2495POSM   C2A29273  24.195  10.953  15.219 -0.1926  0.2473  0.2506
 2495POSM   C3A29274  24.205  10.537  15.139 -0.1870 -0.1703 -0.2546
 2495POSM   C1B29275  25.037  10.920  15.505  0.3281 -0.2209  0.0563
 2495POSM   D2B29276  25.162  10.648  15.136 -0.1782  0.3376  0.1170
 2495POSM   C3B29277  25.554  10.483  14.959  0.1933 -0.3248 -0.2125
 2495POSM   C4B29278  25.681  10.627  14.536 -0.0654  0.4505 -0.1390
 2496DOPE   NH329279  26.330   7.163  16.902  0.2232  0.2642 -0.0379
 2496DOPE   PO429280  26.478   6.962  16.673 -0.0022  0.1817 -0.1205
 2496DOPE   GL129281  26.674   6.858  16.363 -0.2403  0.0228  0.2879
 2496DOPE   GL229282  26.622   6.595  16.215  0.0161 -0.1818 -0.1026
 2496DOPE   C1A29283  26.846   7.109  15.969  0.1641 -0.3552 -0.0654
 2496DOPE   D2A29284  26.674   7.486  15.786  0.1954  0.0430  0.0326
 2496DOPE   C3A29285  26.793   7.589  15.406 -0.1234 -0.0988 -0.0047
 2496DOPE   C4A29286  26.627   7.396  15.048 -0.0050  0.1136  0.3569
 2496DOPE   C1B29287  26.354   7.007  16.057 -0.0822 -0.1267  0.2043
 2496DOPE   D2B29288  26.108   7.415  15.967  0.0709 -0.2140 -0.1282
 2496DOPE   C3B29289  25.695   7.510  16.025  0.0600 -0.2389 -0.1791
 2496DOPE   C4B29290  25.243   7.717  15.969  0.1444  0.2289 -0.1234
 2497DOPC   NC329291  34.076   2.053  15.913  0.2844  0.1253  0.1084
 2497DOPC   PO429292  33.866   2.194  16.192 -0.1764 -0.0302  0.2561
 2497DOPC   GL129293  33.682   2.231  15.820 -0.3542 -0.0725  0.2051
 2497DOPC   GL229294  33.707   2.503  15.669  0.1707 -0.1928  0.1725
 2497DOPC   C1A29295  33.238   2.215  15.647  0.0383 -0.0599 -0.2925
 2497DOPC   D2A29296  32.974   2.040  15.393  0.2625 -0.1057 -0.0293
 2497DOPC   C3A29297  32.526   2.076  15.331 -0.0973  0.0944 -0.1356
 2497DOPC   C4A29298  32.192   2.392  15.259 -0.1610  0.1321  0.2291
 2497DOPC   C1B29299  33.864   2.481  15.196  0.2322  0.1080  0.2244
 2497DOPC   D2B29300  33.754   2.736  14.866  0.3999  0.2276 -0.1215
 2497DOPC   C3B29301  33.559   3.082  14.563  0.1398  0.1540  0.1249
 2497DOPC   C4B29302  33.566   3.033  14.154  0.1601  0.1575 -0.1213
 2498DOPC   NC329303  29.594   1.378  17.001  0.0402 -0.2311  0.2092
 2498DOPC   PO429304  29.577   0.946  16.954 -0.0777  0.2769 -0.0527
 2498DOPC   GL129305  29.752   1.025  16.705 -0.2453 -0.1839 -0.1741
 2498DOPC   GL229306  29.863   0.781  16.506  0.2645  0.1049  0.0853
 2498DOPC   C1A29307  29.770   1.279  16.290  0.1037  0.0294  0.2625
 2498DOPC   D2A29308  29.961   1.460  15.914 -0.0779 -0.3061  0.0847
 2498DOPC   C3A29309  29.748   1.835  15.734  0.0113  0.2916  0.1614
 2498DOPC   C4A29310  29.349   1.980  15.664 -0.1585 -0.0029 -0.0722
 2498DOPC   C1B29311  29.803   0.726  16.025  0.0660  0.3688  0.3541
 2498DOPC   D2B29312  29.962   0.367  15.802  0.0853 -0.1311 -0.2098
 2498DOPC   C3B29313  30.009   0.509  15.400  0.1587 -0.3429 -0.4276
 2498DOPC   C4B29314  30.097   0.759  15.029 -0.1962  0.2150 -0.2960
 2499DOPC   NC329315  26.525   4.570  17.147 -0.0800  0.3130  0.1287
 2499DOPC   PO429316  26.614   4.380  16.782 -0.0234 -0.3043  0.0941
 2499DOPC   GL129317  26.547   4.584  16.521  0.0991 -0.2611  0.0340
 2499DOPC   GL229318  26.533   4.407  16.262  0.0874  0.0379 -0.1667
 2499DOPC   C1A29319  26.975   4.609  16.296 -0.2787 -0.3160  0.2586
 2499DOPC   D2A29320  27.260   4.719  15.975  0.0928  0.0070  0.0589
 2499DOPC   C3A29321  27.488   4.577  15.572 -0.0720  0.2370  0.1684
 2499DOPC   C4A29322  27.659   4.650  15.076 -0.2515  0.2677 -0.1549
 2499DOPC   C1B29323  26.411   4.632  15.853  0.1552  0.1399  0.3318
 2499DOPC   D2B29324  26.429   4.686  15.398 -0.1150  0.3550  0.1262
 2499DOPC   C3B29325  26.272   5.036  15.116 -0.0588  0.0384 -0.2157
 2499DOPC   C4B29326  26.350   5.287  14.725 -0.0517 -0.2772  0.0230
 2500DOPC   NC329327  33.056   7.899  16.766  0.0309  0.0974 -0.3376
 2500DOPC   PO429328  32.776   8.154  16.861  0.0132 -0.0881  0.1508
 2500DOPC   GL129329  32.762   8.196  16.474  0.0567 -0.3408 -0.0146
 2500DOPC   GL229330  33.030   8.219  16.391  0.1651  0.1086  0.0300
 2500DOPC   C1A29331  32.578   8.284  16.074  0.2035 -0.1374  0.2332
 2500DOPC   D2A29332  32.640   8.439  15.622  0.2630 -0.0762 -0.1231
 2500DOPC   C3A29333  32.376   8.437  15.236 -0.1475  0.0961 -0.1050
 2500DOPC   C4A29334  32.287   8.272  14.818 -0.2002 -0.0070 -0.2974
 2500DOPC   C1B29335  33.042   7.820  16.202 -0.1064  0.1062  0.0073
 2500DOPC   D2B29336  32.891   7.372  16.155 -0.4779 -0.0362  0.4687
 2500DOPC   C3B29337  33.042   6.930  16.314  0.2769 -0.5238  0.0282
 2500DOPC   C4B29338  33.035   6.428  16.367  0.0135 -0.0953 -0.1993
 2501DOPS   CNO29339  28.074   5.030  16.907  0.3170 -0.3749 -0.1945
 2501DOPS   PO429340  28.188   5.181  16.577 -0.2799  0.0202 -0.0327
 2501DOPS   GL129341  28.490   5.398  16.335 -0.0596 -0.0604 -0.0762
 2501DOPS   GL229342  28.653   5.187  16.317  0.2739 -0.1097  0.2326
 2501DOPS   C1A29343  28.550   5.492  15.870 -0.1979  0.0114 -0.0062
 2501DOPS   D2A29344  28.826   5.707  15.575  0.2199  0.0460  0.2063
 2501DOPS   C3A29345  28.804   5.552  15.168 -0.1689 -0.0211 -0.1927
 2501DOPS   C4A29346  28.731   5.436  14.714 -0.2394 -0.1813  0.0988
 2501DOPS   C1B29347  28.924   5.582  16.180 -0.0361  0.2909  0.1600
 2501DOPS   D2B29348  29.014   5.998  16.137 -0.0128  0.0007 -0.0724
 2501DOPS   C3B29349  29.002   6.120  15.636  0.0047 -0.0192  0.1770
 2501DOPS   C4B29350  28.758   6.087  15.242  0.2262  0.3355  0.1231
 2502DOPC   NC329351  29.998   4.188  17.315 -0.2437 -0.0864 -0.1141
 2502DOPC   PO429352  29.789   4.543  17.418 -0.1577 -0.0390  0.1120
 2502DOPC   GL129353  29.675   4.502  17.063 -0.2192 -0.0103 -0.0476
 2502DOPC   GL229354  29.562   4.189  16.949 -0.0670 -0.1762 -0.1489
 2502DOPC   C1A29355  30.074   4.349  16.869 -0.0827  0.0588 -0.2581
 2502DOPC   D2A29356  30.431   4.226  16.537 -0.1949 -0.0337 -0.0230
 2502DOPC   C3A29357  30.430   4.486  16.183  0.0919  0.0962 -0.3976
 2502DOPC   C4A29358  30.281   4.801  15.871 -0.2269 -0.0527  0.3238
 2502DOPC   C1B29359  29.259   4.366  16.609  0.1386  0.0074 -0.1334
 2502DOPC   D2B29360  29.357   4.481  16.166  0.1877  0.2662 -0.0101
 2502DOPC   C3B29361  28.974   4.615  15.954 -0.0077  0.0789 -0.5216
 2502DOPC   C4B29362  28.688   4.931  15.858  0.0381 -0.0601  0.3005
 2503DOPS   CNO29363  30.084   8.098  17.164  0.2332  0.3670 -0.0185
 2503DOPS   PO429364  30.358   8.305  17.012  0.0155 -0.1756  0.0375
 2503DOPS   GL129365  30.551   8.024  16.867 -0.0498 -0.3031  0.0115
 2503DOPS   GL229366  30.300   7.839  16.779  0.0722 -0.0798  0.1435
 2503DOPS   C1A29367  30.605   7.979  16.388  0.0273 -0.0115 -0.0336
 2503DOPS   D2A29368  30.781   7.993  15.985  0.0495 -0.1116  0.1679
 2503DOPS   C3A29369  30.526   7.936  15.627 -0.0787  0.1895 -0.1739
 2503DOPS   C4A29370  30.274   8.116  15.393 -0.1427  0.0337  0.2232
 2503DOPS   C1B29371  30.282   7.617  16.386 -0.0668 -0.2683 -0.1716
 2503DOPS   D2B29372  30.215   7.510  15.924  0.2787 -0.0016 -0.2576
 2503DOPS   C3B29373  29.967   7.820  15.646 -0.1593 -0.2378  0.0859
 2503DOPS   C4B29374  29.753   7.935  15.219 -0.0491 -0.1292  0.0627
 2504POSM   NC329375  34.543   0.508  16.581 -0.1551  0.3850  0.1528
 2504POSM   PO429376  34.868   0.707  16.556 -0.2415 -0.0329 -0.1300
 2504POSM   AM129377  34.909   0.554  16.253 -0.3112  0.1539 -0.0390
 2504POSM   AM229378  34.963   0.585  16.012 -0.1160  0.1042  0.1666
 2504POSM   T1A29379  34.867   0.080  16.040 -0.0870 -0.0285 -0.1761
 2504POSM   C2A29380  34.850  -0.347  15.880 -0.0236  0.0081  0.2035
 2504POSM   C3A29381  34.762  -0.468  15.363  0.2921  0.0722  0.0617
 2504POSM   C1B29382  34.803   0.445  15.726 -0.1594  0.1230 -0.1548
 2504POSM   D2B29383  34.682   0.484  15.255 -0.1456 -0.0970  0.1233
 2504POSM   C3B29384  34.361   0.213  15.059  0.0518  0.1378 -0.2715
 2504POSM   C4B29385  33.896   0.242  15.008  0.0635  0.1112  0.0487
 2505DOPS   CNO29386  27.293   3.980  17.007 -0.1532 -0.3045 -0.0337
 2505DOPS   PO429387  27.273   3.868  16.637  0.3128 -0.2725 -0.1137
 2505DOPS   GL129388  27.342   3.846  16.245 -0.4471  0.0508  0.0723
 2505DOPS   GL229389  27.508   3.833  16.006  0.0974  0.0362  0.2887
 2505DOPS   C1A29390  27.083   4.165  16.019  0.5847  0.3883  0.0562
 2505DOPS   D2A29391  26.894   4.526  15.785  0.1631  0.1702 -0.1744
 2505DOPS   C3A29392  26.942   4.880  15.531  0.1519  0.0295  0.3235
 2505DOPS   C4A29393  27.189   5.260  15.547 -0.1501 -0.3600  0.2450
 2505DOPS   C1B29394  27.487   4.143  15.684  0.1478  0.2928  0.0349
 2505DOPS   D2B29395  27.901   4.277  15.466 -0.1461  0.1219  0.0704
 2505DOPS   C3B29396  27.932   4.236  15.017 -0.0215  0.0122 -0.2137
 2505DOPS   C4B29397  27.660   4.017  14.732  0.3517 -0.1207  0.1596
 2506DOPS   CNO29398  23.938   2.938  16.753 -0.4107  0.0695 -0.1197
 2506DOPS   PO429399  23.890   2.825  16.398 -0.0642 -0.1966 -0.0886
 2506DOPS   GL129400  24.078   2.639  16.079  0.5131 -0.0328  0.3804
 2506DOPS   GL229401  23.896   2.815  15.827  0.1068 -0.1146  0.1493
 2506DOPS   C1A29402  23.845   2.330  15.775  0.0849 -0.2562  0.1746
 2506DOPS   D2A29403  23.564   2.276  15.436  0.1522  0.1444  0.0965
 2506DOPS   C3A29404  23.768   2.183  15.059 -0.3485  0.0680  0.1354
 2506DOPS   C4A29405  23.737   1.975  14.673  0.0086 -0.4336  0.2886
 2506DOPS   C1B29406  23.776   2.706  15.376 -0.4562  0.0909  0.1388
 2506DOPS   D2B29407  23.577   2.709  14.953 -0.2719  0.2425  0.1107
 2506DOPS   C3B29408  23.935   2.480  14.722  0.3402 -0.1484 -0.2128
 2506DOPS   C4B29409  23.926   2.430  14.261  0.3696 -0.1423 -0.1264
 2507DOPE   NH329410  25.192   3.442  16.321  0.2190  0.2354 -0.2742
 2507DOPE   PO429411  25.471   3.516  16.439  0.2223  0.3175  0.0804
 2507DOPE   GL129412  25.540   3.635  16.075  0.3316  0.0430  0.4662
 2507DOPE   GL229413  25.362   3.503  15.852 -0.1722 -0.1333 -0.2280
 2507DOPE   C1A29414  25.696   4.011  15.955 -0.1958 -0.1919 -0.1984
 2507DOPE   D2A29415  25.512   4.397  15.734  0.1713  0.1605 -0.0188
 2507DOPE   C3A29416  25.670   4.406  15.303 -0.1215  0.1583  0.1323
 2507DOPE   C4A29417  25.814   4.309  14.852  0.1387 -0.0160  0.2686
 2507DOPE   C1B29418  25.467   3.770  15.502 -0.3905  0.2908  0.2960
 2507DOPE   D2B29419  25.323   3.980  15.116  0.0806 -0.1083  0.0208
 2507DOPE   C3B29420  25.287   4.435  15.007  0.0895  0.0964  0.1851
 2507DOPE   C4B29421  25.358   4.878  14.862  0.0637 -0.0347 -0.1481
 2508DOPE   NH329422  31.965   0.523  17.037 -0.1727  0.0885  0.2836
 2508DOPE   PO429423  31.730   0.641  16.831 -0.2607 -0.0908 -0.1471
 2508DOPE   GL129424  31.977   0.697  16.550  0.2053 -0.1948  0.1173
 2508DOPE   GL229425  32.109   0.864  16.399  0.2658 -0.1870  0.0391
 2508DOPE   C1A29426  31.786   0.760  16.088  0.2118  0.1182 -0.1396
 2508DOPE   D2A29427  31.817   0.468  15.669  0.0156 -0.1622 -0.1029
 2508DOPE   C3A29428  31.798   0.318  15.238 -0.1295 -0.1777  0.1302
 2508DOPE   C4A29429  31.499   0.269  14.874  0.1245 -0.0416 -0.1116
 2508DOPE   C1B29430  32.304   1.259  16.158  0.1554  0.0891 -0.3084
 2508DOPE   D2B29431  32.372   1.459  15.686 -0.1348 -0.1932 -0.0877
 2508DOPE   C3B29432  32.762   1.557  15.661  0.3178 -0.0225  0.0319
 2508DOPE   C4B29433  32.955   1.448  15.268  0.0720  0.1475 -0.0452
 2509DOPE   NH329434  30.593   9.994  16.859 -0.0872  0.2392 -0.0790
 2509DOPE   PO429435  30.607  10.297  16.735 -0.0368  0.0531 -0.0805
 2509DOPE   GL129436  30.517   9.950  16.457  0.5309  0.0056 -0.3768
 2509DOPE   GL229437  30.315  10.136  16.359 -0.1241  0.3940 -0.1381
 2509DOPE   C1A29438  30.686  10.072  16.035  0.0752  0.1005 -0.2800
 2509DOPE   D2A29439  30.768  10.157  15.592  0.0118 -0.1173  0.0491
 2509DOPE   C3A29440  30.994   9.921  15.247 -0.0885  0.0316 -0.3074
 2509DOPE   C4A29441  30.972   9.813  14.815 -0.2614 -0.2238 -0.0006
 2509DOPE   C1B29442  30.011  10.064  15.993  0.1047  0.0849  0.0138
 2509DOPE   D2B29443  30.039   9.823  15.647 -0.2894 -0.0088 -0.1355
 2509DOPE   C3B29444  29.957   9.990  15.198 -0.0650  0.2651 -0.1083
 2509DOPE   C4B29445  29.768   9.868  14.795 -0.1828 -0.3238  0.0161
 2510DOPC   NC329446  27.637   7.007  16.807 -0.1634 -0.2068  0.0731
 2510DOPC   PO429447  27.240   7.040  16.665 -0.0524  0.0635  0.0645
 2510DOPC   GL129448  27.221   7.036  16.271  0.2008  0.0216  0.0546
 2510DOPC   GL229449  27.254   7.331  16.152  0.1838  0.0719 -0.0213
 2510DOPC   C1A29450  27.095   6.661  16.027 -0.3531 -0.0141  0.1554
 2510DOPC   D2A29451  26.969   6.234  15.927 -0.0489 -0.0445  0.0520
 2510DOPC   C3A29452  27.153   6.058  15.511  0.2852  0.1639  0.0008
 2510DOPC   C4A29453  27.558   6.034  15.303  0.0294  0.1679 -0.3450
 2510DOPC   C1B29454  27.250   7.190  15.730  0.1835  0.0795 -0.1875
 2510DOPC   D2B29455  27.393   6.949  15.358 -0.2269  0.2374 -0.2605
 2510DOPC   C3B29456  27.817   6.987  15.147 -0.1246 -0.3562 -0.0760
 2510DOPC   C4B29457  27.960   7.356  14.885  0.0200  0.1791 -0.0141
 2511DOPC   NC329458  34.522   3.959  16.513  0.0642  0.2730 -0.0717
 2511DOPC   PO429459  34.877   3.803  16.507 -0.1384  0.1402  0.0784
 2511DOPC   GL129460  34.718   3.990  16.099 -0.1722  0.2188  0.1203
 2511DOPC   GL229461  34.896   4.214  16.070 -0.3914  0.3367  0.1382
 2511DOPC   C1A29462  34.616   4.089  15.647  0.0519  0.0401 -0.1611
 2511DOPC   D2A29463  34.659   4.160  15.184  0.0971  0.0001  0.1205
 2511DOPC   C3A29464  34.393   4.224  14.819 -0.0532  0.0450 -0.1515
 2511DOPC   C4A29465  34.380   4.104  14.347 -0.0892  0.1667  0.1263
 2511DOPC   C1B29466  35.130   4.030  15.719  0.0266 -0.0335  0.0646
 2511DOPC   D2B29467  35.564   4.059  15.548 -0.0138  0.2004  0.3114
 2511DOPC   C3B29468  35.688   4.322  15.179 -0.2234 -0.1190 -0.0018
 2511DOPC   C4B29469  36.043   4.519  15.003 -0.1090  0.0832 -0.2385
 2512POSM   NC329470  26.100   4.321  16.567  0.3426  0.0664 -0.2351
 2512POSM   PO429471  26.091   4.569  16.911 -0.0890 -0.0435  0.1460
 2512POSM   AM129472  26.105   4.757  16.643 -0.1292  0.1072 -0.3867
 2512POSM   AM229473  25.890   4.778  16.405  0.2256 -0.4311 -0.1205
 2512POSM   T1A29474  26.437   4.923  16.313 -0.2271  0.0871  0.0309
 2512POSM   C2A29475  26.874   5.085  16.292  0.1497 -0.3746  0.1721
 2512POSM   C3A29476  27.201   5.232  16.083  0.3662 -0.0013 -0.0956
 2512POSM   C1B29477  25.940   4.660  16.094  0.2071 -0.1458 -0.2871
 2512POSM   D2B29478  25.979   4.710  15.600 -0.3585  0.4552 -0.1771
 2512POSM   C3B29479  26.093   5.162  15.517  0.2192  0.2125 -0.1165
 2512POSM   C4B29480  26.345   5.557  15.714 -0.0032 -0.2353 -0.0804
 2513POSM   NC329481  24.750  10.408  16.641  0.0017  0.1529  0.0911
 2513POSM   PO429482  25.127  10.297  16.557  0.4420  0.2221  0.2997
 2513POSM   AM129483  24.946  10.126  16.351 -0.3715  0.1429 -0.1312
 2513POSM   AM229484  24.862  10.246  16.099  0.2298 -0.3443 -0.1519
 2513POSM   T1A29485  24.826   9.769  16.035  0.1591 -0.0739  0.1205
 2513POSM   C2A29486  24.891   9.448  15.694 -0.0847  0.0485 -0.1416
 2513POSM   C3A29487  25.271   9.210  15.537  0.4210 -0.1430  0.0434
 2513POSM   C1B29488  24.825  10.267  15.787 -0.0716  0.1128  0.1409
 2513POSM   D2B29489  24.806  10.350  15.339 -0.0856  0.2895  0.1119
 2513POSM   C3B29490  24.973   9.977  15.113 -0.2379  0.0907 -0.0073
 2513POSM   C4B29491  24.920   9.553  14.860 -0.3343 -0.0700 -0.0971
 2514DOPE   NH329492  26.119   2.571  16.350  0.0959 -0.0857 -0.1428
 2514DOPE   PO429493  25.910   2.822  16.338 -0.0086  0.0345 -0.4329
 2514DOPE   GL129494  25.992   2.823  15.982  0.1023 -0.1693 -0.2885
 2514DOPE   GL229495  25.985   2.567  15.846 -0.2943  0.1109  0.2728
 2514DOPE   C1A29496  26.270   2.875  15.581  0.3541 -0.0383  0.0207
 2514DOPE   D2A29497  26.530   3.256  15.375 -0.0828 -0.1160  0.0758
 2514DOPE   C3A29498  26.654   3.060  15.012 -0.0668  0.0457 -0.0578
 2514DOPE   C4A29499  27.029   2.977  14.653 -0.0731  0.0559 -0.0348
 2514DOPE   C1B29500  25.744   2.855  15.458  0.0597 -0.2002  0.1817
 2514DOPE   D2B29501  25.508   3.010  15.092  0.3729  0.1387 -0.1818
 2514DOPE   C3B29502  25.822   3.150  14.768 -0.0404 -0.0712 -0.0066
 2514DOPE   C4B29503  26.121   3.435  14.482 -0.0054 -0.1488  0.1380
 2515DOPE   NH329504  23.656   3.310  16.509  0.1193  0.3721 -0.2747
 2515DOPE   PO429505  23.525   3.599  16.611 -0.1148 -0.0649 -0.0244
 2515DOPE   GL129506  23.724   3.663  16.213  0.3306 -0.1519  0.0563
 2515DOPE   GL229507  23.827   3.475  15.954  0.2552 -0.0312 -0.0354
 2515DOPE   C1A29508  24.019   3.985  16.015  0.1276 -0.1986  0.2266
 2515DOPE   D2A29509  24.388   4.181  16.179 -0.1115  0.1133 -0.0075
 2515DOPE   C3A29510  24.739   3.991  15.855 -0.2026  0.2146 -0.1716
 2515DOPE   C4A29511  24.937   3.647  15.663  0.0308  0.0670 -0.0984
 2515DOPE   C1B29512  24.329   3.615  15.821  0.0375 -0.0180  0.1948
 2515DOPE   D2B29513  24.462   3.744  15.397  0.2132 -0.2533  0.3017
 2515DOPE   C3B29514  24.665   4.148  15.314  0.3608 -0.1157  0.2507
 2515DOPE   C4B29515  24.703   4.527  15.063  0.0597 -0.0285 -0.0733
 2516DOPE   NH329516  27.606  11.068  17.034 -0.0513  0.0585 -0.2054
 2516DOPE   PO429517  27.865  11.006  16.910  0.0755  0.1568 -0.3579
 2516DOPE   GL129518  27.860  11.270  16.526  0.0295  0.1613  0.0674
 2516DOPE   GL229519  27.809  11.166  16.255  0.1117  0.1460  0.1200
 2516DOPE   C1A29520  28.115  11.594  16.367 -0.2099  0.2321 -0.1700
 2516DOPE   D2A29521  28.224  12.016  16.407  0.0435 -0.0784 -0.4928
 2516DOPE   C3A29522  28.382  12.263  16.127  0.0478 -0.0858  0.0297
 2516DOPE   C4A29523  28.317  12.477  15.727  0.3026 -0.2372 -0.0541
 2516DOPE   C1B29524  27.888  11.491  15.942 -0.0481  0.2476  0.1605
 2516DOPE   D2B29525  28.154  11.831  15.755  0.0376  0.1517  0.1814
 2516DOPE   C3B29526  28.585  12.017  15.645 -0.0449 -0.1517  0.1963
 2516DOPE   C4B29527  29.055  12.034  15.481  0.3440 -0.3739 -0.4092
 2517DOPC   NC329528  23.737   1.464  15.971  0.0055  0.3213  0.1525
 2517DOPC   PO429529  23.430   1.378  16.226 -0.3888 -0.1189  0.0975
 2517DOPC   GL129530  23.135   1.380  15.968  0.0312 -0.0271 -0.0874
 2517DOPC   GL229531  23.344   1.296  15.753 -0.1696  0.2321  0.0814
 2517DOPC   C1A29532  23.069   1.731  15.712 -0.0983  0.4447  0.1190
 2517DOPC   D2A29533  23.084   1.970  15.288 -0.1801  0.0533 -0.2299
 2517DOPC   C3A29534  23.286   2.015  14.871 -0.0219  0.0134 -0.0086
 2517DOPC   C4A29535  23.465   2.370  14.582  0.0336 -0.0854 -0.3152
 2517DOPC   C1B29536  23.695   1.143  15.500 -0.0427 -0.3482 -0.1394
 2517DOPC   D2B29537  23.719   1.160  15.052  0.0988 -0.3365 -0.0240
 2517DOPC   C3B29538  23.778   0.970  14.690 -0.1930 -0.1197 -0.0301
 2517DOPC   C4B29539  23.666   1.045  14.230 -0.0873  0.1855 -0.0736
 2518DOPC   NC329540  23.176   6.043  16.180  0.3114 -0.1008 -0.0611
 2518DOPC   PO429541  23.126   6.336  15.912 -0.0214 -0.1187  0.0352
 2518DOPC   GL129542  23.368   6.135  15.772 -0.1127  0.3534  0.3573
 2518DOPC   GL229543  23.599   6.238  15.646 -0.2404  0.0688  0.2578
 2518DOPC   C1A29544  23.487   5.903  15.380  0.0646 -0.3625 -0.0378
 2518DOPC   D2A29545  23.456   5.778  14.892 -0.1858 -0.0128 -0.1902
 2518DOPC   C3A29546  23.825   5.618  14.614  0.0608 -0.3806 -0.0148
 2518DOPC   C4A29547  24.188   5.370  14.557 -0.0753 -0.0462 -0.1763
 2518DOPC   C1B29548  23.986   6.302  15.475  0.0358 -0.0116  0.2103
 2518DOPC   D2B29549  24.386   6.262  15.306  0.2828  0.0345  0.0732
 2518DOPC   C3B29550  24.603   6.655  15.271 -0.0930  0.2397 -0.1034
 2518DOPC   C4B29551  24.675   7.103  15.401  0.2418  0.1336 -0.0539
 2519POSM   NC329552  28.803   2.566  17.684  0.1274  0.1386  0.1386
 2519POSM   PO429553  28.635   2.445  17.373  0.0965 -0.1998  0.0269
 2519POSM   AM129554  28.605   2.402  17.062 -0.2079  0.1988 -0.1256
 2519POSM   AM229555  28.801   2.484  16.862 -0.0362 -0.1439 -0.2082
 2519POSM   T1A29556  28.235   2.177  16.749  0.0119  0.0694  0.0536
 2519POSM   C2A29557  28.000   2.017  16.368 -0.1733  0.2378 -0.0635
 2519POSM   C3A29558  27.882   1.716  16.030 -0.0803  0.0738 -0.0336
 2519POSM   C1B29559  28.585   2.445  16.554  0.0290 -0.3469  0.1482
 2519POSM   D2B29560  28.357   2.276  16.169 -0.2486  0.2199  0.3496
 2519POSM   C3B29561  28.343   1.962  15.837 -0.2061 -0.3045 -0.0160
 2519POSM   C4B29562  28.027   1.861  15.490 -0.0884 -0.3006  0.0870
 2520DOPC   NC329563  25.129  10.658  15.945  0.1396  0.1807  0.2158
 2520DOPC   PO429564  25.216  11.023  16.131 -0.1479 -0.1673  0.0178
 2520DOPC   GL129565  25.384  11.014  15.822  0.3915 -0.1080  0.0194
 2520DOPC   GL229566  25.703  10.869  15.850 -0.1325 -0.0137 -0.2973
 2520DOPC   C1A29567  25.389  11.235  15.396 -0.0741 -0.2966 -0.0015
 2520DOPC   D2A29568  25.363  11.684  15.306 -0.1346 -0.2477  0.1351
 2520DOPC   C3A29569  24.983  11.945  15.408 -0.2186 -0.1990 -0.3322
 2520DOPC   C4A29570  24.685  12.309  15.424  0.1445  0.1125  0.0815
 2520DOPC   C1B29571  25.889  10.446  15.609 -0.1839 -0.1247  0.0382
 2520DOPC   D2B29572  26.130  10.112  15.385  0.0434 -0.2099 -0.3371
 2520DOPC   C3B29573  25.977  10.071  15.027  0.2208 -0.1997 -0.0326
 2520DOPC   C4B29574  26.019  10.239  14.604  0.0527 -0.1913  0.2678
 2521DOPE   NH329575  32.086   2.311  17.161 -0.0679 -0.2623  0.2831
 2521DOPE   PO429576  31.867   2.434  16.979 -0.2244 -0.3869  0.1987
 2521DOPE   GL129577  31.587   2.247  16.777  0.2321 -0.1323  0.2397
 2521DOPE   GL229578  31.384   2.330  16.559  0.0818 -0.1319  0.0682
 2521DOPE   C1A29579  31.725   1.941  16.402 -0.3391 -0.0728  0.2904
 2521DOPE   D2A29580  31.815   2.029  15.967 -0.0149 -0.1436  0.0304
 2521DOPE   C3A29581  31.769   1.662  15.597  0.1351 -0.1670  0.1026
 2521DOPE   C4A29582  31.977   1.302  15.349 -0.2612 -0.1914  0.2677
 2521DOPE   C1B29583  31.199   2.118  16.209  0.0948 -0.0908  0.2541
 2521DOPE   D2B29584  30.758   2.093  16.104 -0.1977  0.0910  0.3460
 2521DOPE   C3B29585  30.579   2.382  15.755 -0.1578  0.3244  0.1283
 2521DOPE   C4B29586  30.658   2.531  15.381  0.1002  0.0155 -0.0418
 2522DOPC   NC329587  25.804   7.765  16.840  0.0996  0.0073  0.0581
 2522DOPC   PO429588  25.868   7.382  16.906 -0.1087  0.1898 -0.2130
 2522DOPC   GL129589  25.905   7.419  16.510 -0.1771  0.0866 -0.1805
 2522DOPC   GL229590  26.181   7.360  16.466 -0.0372  0.0203 -0.0414
 2522DOPC   C1A29591  25.889   7.081  16.219 -0.1215  0.2046 -0.0043
 2522DOPC   D2A29592  25.878   6.842  15.825 -0.0326  0.2232  0.0024
 2522DOPC   C3A29593  25.874   7.184  15.444  0.0012 -0.2126  0.1319
 2522DOPC   C4A29594  25.716   7.422  15.105  0.2741  0.0388  0.1612
 2522DOPC   C1B29595  26.545   7.598  16.277 -0.0033 -0.2961 -0.0235
 2522DOPC   D2B29596  26.893   7.908  16.159 -0.0022 -0.0654 -0.0761
 2522DOPC   C3B29597  27.066   7.860  15.743  0.2039 -0.0111  0.1139
 2522DOPC   C4B29598  26.961   8.093  15.400 -0.3525 -0.1226 -0.0610
 2523DOPE   NH329599  22.904   8.780  15.790 -0.5090 -0.1347 -0.1435
 2523DOPE   PO429600  22.888   8.985  16.007 -0.0309 -0.1385 -0.3363
 2523DOPE   GL129601  23.143   9.170  15.842 -0.0474 -0.1144  0.0305
 2523DOPE   GL229602  23.283   9.456  15.843  0.2382  0.0641 -0.0290
 2523DOPE   C1A29603  23.188   9.062  15.355 -0.1010  0.2951  0.3051
 2523DOPE   D2A29604  23.206   9.254  14.919  0.0856  0.2906 -0.1400
 2523DOPE   C3A29605  23.571   9.178  14.641 -0.1249 -0.2863 -0.0225
 2523DOPE   C4A29606  23.868   8.876  14.497 -0.1403 -0.1974  0.0035
 2523DOPE   C1B29607  23.286   9.555  15.409 -0.0020 -0.0779 -0.0653
 2523DOPE   D2B29608  23.058   9.743  15.056 -0.1188  0.2187  0.0768
 2523DOPE   C3B29609  23.396   9.934  14.870 -0.0331  0.1076 -0.0391
 2523DOPE   C4B29610  23.725  10.204  14.785 -0.2402  0.0859 -0.1172
 2524DOPE   NH329611  32.790   0.274  16.955 -0.3804 -0.3075 -0.0359
 2524DOPE   PO429612  32.875   0.558  16.889  0.4934 -0.1599  0.2646
 2524DOPE   GL129613  32.745   0.413  16.517  0.2084 -0.1678 -0.3396
 2524DOPE   GL229614  32.474   0.292  16.533 -0.0390  0.4210  0.1045
 2524DOPE   C1A29615  33.015   0.507  16.154  0.0463  0.0743 -0.2481
 2524DOPE   D2A29616  33.143   0.656  15.681 -0.1330  0.0360  0.1385
 2524DOPE   C3A29617  33.040   1.126  15.794 -0.3490  0.1209  0.2750
 2524DOPE   C4A29618  33.246   1.540  15.777  0.0162 -0.2446  0.1826
 2524DOPE   C1B29619  32.476   0.548  16.189 -0.2507 -0.0855  0.1366
 2524DOPE   D2B29620  32.534   0.879  15.920 -0.0614  0.0513 -0.1008
 2524DOPE   C3B29621  32.149   0.907  15.709 -0.4853 -0.0091 -0.1818
 2524DOPE   C4B29622  32.001   0.795  15.284  0.1379  0.0314  0.0112
 2525DOPC   NC329623  26.121   3.205  16.551  0.0440 -0.0770  0.0279
 2525DOPC   PO429624  26.409   2.935  16.593  0.0676  0.0033  0.0474
 2525DOPC   GL129625  26.480   2.890  16.187 -0.1336  0.0810 -0.2367
 2525DOPC   GL229626  26.344   3.104  16.053 -0.0425  0.1396  0.1003
 2525DOPC   C1A29627  26.520   2.532  15.929  0.0707 -0.1738  0.1137
 2525DOPC   D2A29628  26.376   2.352  15.527  0.0624  0.2404  0.0942
 2525DOPC   C3A29629  26.685   2.134  15.257  0.0115 -0.0715 -0.0170
 2525DOPC   C4A29630  27.041   1.964  15.045  0.2622 -0.0125  0.3071
 2525DOPC   C1B29631  26.020   3.316  15.796 -0.1299  0.0743  0.2277
 2525DOPC   D2B29632  25.932   3.332  15.322  0.1720  0.1675 -0.1260
 2525DOPC   C3B29633  26.196   3.473  14.989  0.0660 -0.2660 -0.0577
 2525DOPC   C4B29634  26.558   3.594  14.798  0.1393 -0.1478 -0.1564
 2526DOPC   NC329635  26.866   3.762  16.251 -0.2645  0.2894 -0.3095
 2526DOPC   PO429636  27.103   3.452  16.266  0.1104 -0.0767  0.0018
 2526DOPC   GL129637  27.183   3.492  15.922  0.2135  0.0706  0.1639
 2526DOPC   GL229638  27.053   3.695  15.783  0.4685 -0.1858  0.2586
 2526DOPC   C1A29639  27.059   3.337  15.493  0.0756  0.1491  0.2472
 2526DOPC   D2A29640  27.128   3.226  15.067 -0.0980 -0.0664 -0.2978
 2526DOPC   C3A29641  27.565   3.195  14.890 -0.1189 -0.1492  0.0734
 2526DOPC   C4A29642  28.014   3.012  14.838  0.0670  0.2352  0.2438
 2526DOPC   C1B29643  27.188   3.835  15.417  0.1961  0.0487  0.2858
 2526DOPC   D2B29644  27.424   4.183  15.177 -0.0174 -0.0385  0.0009
 2526DOPC   C3B29645  27.173   4.581  15.149 -0.1157 -0.1568 -0.0290
 2526DOPC   C4B29646  26.730   4.740  14.979  0.1879  0.0427 -0.3484
 2527DOPC   NC329647  33.384   8.982  16.734 -0.0299  0.4358  0.3574
 2527DOPC   PO429648  33.744   8.943  16.650  0.1533  0.3949  0.0261
 2527DOPC   GL129649  33.547   8.888  16.323  0.1642  0.0354 -0.0020
 2527DOPC   GL229650  33.797   8.998  16.144 -0.0904  0.1318 -0.3311
 2527DOPC   C1A29651  33.462   8.506  16.043 -0.0633  0.1742  0.2166
 2527DOPC   D2A29652  33.332   8.038  15.894  0.1322  0.1473 -0.2932
 2527DOPC   C3A29653  33.335   7.967  15.429 -0.0917  0.2567  0.0197
 2527DOPC   C4A29654  33.097   8.040  15.000  0.2590 -0.0535  0.0466
 2527DOPC   C1B29655  33.863   9.305  15.785 -0.1830 -0.0130 -0.4494
 2527DOPC   D2B29656  34.203   9.210  15.490  0.0177  0.0286 -0.0410
 2527DOPC   C3B29657  33.867   9.142  15.209 -0.1518 -0.2928 -0.4123
 2527DOPC   C4B29658  33.550   9.292  14.923  0.4137  0.2955  0.2548
 2528DOPC   NC329659  23.033   1.692  16.274  0.1803 -0.1538 -0.2231
 2528DOPC   PO429660  22.754   1.444  16.311  0.0938  0.2728 -0.0144
 2528DOPC   GL129661  22.798   1.217  15.895  0.1099 -0.3701 -0.2113
 2528DOPC   GL229662  22.530   1.092  15.984 -0.4737  0.0215 -0.0649
 2528DOPC   C1A29663  22.910   1.311  15.483  0.1634 -0.1780  0.0398
 2528DOPC   D2A29664  23.352   1.417  15.275  0.1756 -0.0787 -0.2467
 2528DOPC   C3A29665  23.422   1.497  14.872  0.1368  0.0249  0.2036
 2528DOPC   C4A29666  23.512   1.478  14.426 -0.1335 -0.0935  0.1770
 2528DOPC   C1B29667  22.434   1.317  15.544 -0.2336  0.1644  0.2006
 2528DOPC   D2B29668  22.439   1.379  15.083  0.0124  0.2102 -0.1201
 2528DOPC   C3B29669  21.997   1.253  14.944 -0.2057  0.1008 -0.0355
 2528DOPC   C4B29670  21.591   1.331  14.884 -0.1064 -0.0113  0.0964
 2529DOPC   NC329671  28.625   3.363  16.861 -0.1519 -0.0602  0.2188
 2529DOPC   PO429672  28.662   3.672  17.069 -0.0270 -0.0092 -0.1909
 2529DOPC   GL129673  28.871   3.792  16.813 -0.3802  0.0570 -0.0887
 2529DOPC   GL229674  29.093   3.958  16.882 -0.3950  0.0341 -0.1321
 2529DOPC   C1A29675  29.008   3.567  16.417  0.1111  0.0776 -0.2975
 2529DOPC   D2A29676  29.355   3.515  16.180 -0.3103  0.0401 -0.3155
 2529DOPC   C3A29677  29.804   3.651  16.256 -0.1263  0.1292  0.2537
 2529DOPC   C4A29678  30.235   3.852  16.230 -0.1112  0.2416  0.0433
 2529DOPC   C1B29679  29.431   3.724  16.697 -0.0917  0.0319 -0.2293
 2529DOPC   D2B29680  29.546   3.304  16.715  0.3094 -0.0747 -0.2546
 2529DOPC   C3B29681  29.650   3.107  16.284  0.0769 -0.3168  0.1529
 2529DOPC   C4B29682  29.554   3.115  15.848  0.2099 -0.3217 -0.1140
 2530DOPE   NH329683  32.897   5.233  16.939  0.0498 -0.2405  0.1239
 2530DOPE   PO429684  32.905   5.539  17.003 -0.0426  0.1071 -0.0026
 2530DOPE   GL129685  32.836   5.602  16.511  0.0528 -0.5293  0.1657
 2530DOPE   GL229686  32.782   5.272  16.372  0.0339  0.0753  0.0972
 2530DOPE   C1A29687  32.750   6.015  16.238 -0.2491  0.1513  0.0727
 2530DOPE   D2A29688  32.494   6.355  16.432 -0.1911  0.0315  0.1549
 2530DOPE   C3A29689  32.690   6.779  16.569  0.3381 -0.1769 -0.1680
 2530DOPE   C4A29690  32.936   6.875  16.903  0.0002  0.0661  0.0912
 2530DOPE   C1B29691  32.435   5.552  16.208 -0.2520  0.1466 -0.0438
 2530DOPE   D2B29692  32.513   5.817  15.841 -0.1184 -0.0773 -0.2349
 2530DOPE   C3B29693  32.546   6.261  15.856 -0.0675  0.2527  0.2715
 2530DOPE   C4B29694  32.598   6.755  15.983  0.1459  0.0789 -0.1694
 2531DOPE   NH329695  31.100   6.322  17.404 -0.0523 -0.5091  0.1235
 2531DOPE   PO429696  31.385   6.289  17.300  0.1169 -0.0407 -0.2666
 2531DOPE   GL129697  31.606   6.158  16.981 -0.1186  0.0051  0.1813
 2531DOPE   GL229698  31.402   6.061  16.776 -0.0539  0.0292  0.0095
 2531DOPE   C1A29699  31.861   5.924  16.671 -0.1901  0.1484  0.1393
 2531DOPE   D2A29700  31.827   5.541  16.346 -0.0013 -0.0706  0.0519
 2531DOPE   C3A29701  31.761   5.801  15.964 -0.1019  0.0832 -0.2850
 2531DOPE   C4A29702  32.075   5.905  15.645  0.2178  0.0801  0.0129
 2531DOPE   C1B29703  31.561   6.108  16.304 -0.0010  0.0567 -0.0958
 2531DOPE   D2B29704  31.532   6.279  15.887 -0.0300  0.0007  0.1352
 2531DOPE   C3B29705  31.552   5.937  15.544 -0.3689  0.1515 -0.0481
 2531DOPE   C4B29706  31.348   5.598  15.271  0.0282  0.0726 -0.0828
 2532POSM   NC329707  28.258   8.363  16.958  0.2854 -0.2329 -0.1002
 2532POSM   PO429708  28.612   8.254  16.919  0.0685 -0.0300  0.1114
 2532POSM   AM129709  28.675   8.413  16.667  0.2335  0.0258  0.4084
 2532POSM   AM229710  28.586   8.577  16.470  0.2356 -0.1935  0.1247
 2532POSM   T1A29711  29.031   8.450  16.295  0.0293  0.1742 -0.1778
 2532POSM   C2A29712  29.141   8.552  15.814  0.1472 -0.1267 -0.0737
 2532POSM   C3A29713  29.520   8.611  15.584  0.0466  0.0511  0.1112
 2532POSM   C1B29714  28.676   8.721  16.125 -0.2551 -0.2098 -0.2257
 2532POSM   D2B29715  28.720   8.909  15.711  0.4517 -0.2714  0.0280
 2532POSM   C3B29716  28.411   8.958  15.363 -0.1395 -0.1819 -0.0126
 2532POSM   C4B29717  28.135   9.070  15.088  0.1336 -0.1594  0.1988
 2533DOPC   NC329718  29.619  34.646  17.307  0.1009 -0.0500  0.1306
 2533DOPC   PO429719  29.936  34.409  17.151 -0.2791 -0.0640  0.0807
 2533DOPC   GL129720  30.066  34.479  16.832 -0.0211  0.0172 -0.1178
 2533DOPC   GL229721  29.959  34.254  16.641 -0.3434 -0.2157 -0.0234
 2533DOPC   C1A29722  30.375  34.681  16.538  0.0586  0.2105 -0.0750
 2533DOPC   D2A29723  30.778  34.961  16.498 -0.0454  0.4344  0.1985
 2533DOPC   C3A29724  30.766  35.198  16.063  0.1434  0.2412  0.0343
 2533DOPC   C4A29725  30.849  35.450  15.672 -0.1153 -0.1055 -0.0913
 2533DOPC   C1B29726  30.150  34.244  16.203  0.1813 -0.2035  0.0550
 2533DOPC   D2B29727  30.425  34.288  15.795 -0.0173 -0.1585 -0.2325
 2533DOPC   C3B29728  30.839  34.078  15.885  0.5281  0.1784  0.1605
 2533DOPC   C4B29729  31.241  33.991  15.649  0.3859 -0.1426  0.1577
 2534POSM   NC329730  27.145   0.916  17.111  0.0858 -0.1368 -0.2145
 2534POSM   PO429731  27.013   1.168  16.834 -0.1479 -0.0083 -0.0580
 2534POSM   AM129732  26.964   1.281  16.550  0.2135  0.0597  0.1361
 2534POSM   AM229733  26.709   1.242  16.377 -0.0609 -0.1373  0.0126
 2534POSM   T1A29734  27.052   1.473  16.101 -0.0488  0.1555  0.0487
 2534POSM   C2A29735  27.378   1.541  15.759 -0.1452  0.0270 -0.0723
 2534POSM   C3A29736  27.785   1.422  15.559 -0.0487  0.4306 -0.0179
 2534POSM   C1B29737  26.664   1.045  16.083 -0.2490  0.3463 -0.0039
 2534POSM   D2B29738  26.506   0.979  15.577 -0.0952  0.1715 -0.0730
 2534POSM   C3B29739  26.082   0.866  15.403 -0.0167 -0.1824  0.0924
 2534POSM   C4B29740  25.653   0.985  15.431  0.0870 -0.2424  0.2910
 2535POSM   NC329741  24.019  10.454  16.418 -0.0568  0.0452  0.0145
 2535POSM   PO429742  24.407  10.407  16.278 -0.1058  0.4658 -0.3533
 2535POSM   AM129743  24.315  10.617  16.037 -0.0093 -0.0305  0.1554
 2535POSM   AM229744  24.506  10.661  15.808 -0.4055 -0.2496 -0.0446
 2535POSM   T1A29745  24.231  11.053  15.778 -0.1455 -0.0626 -0.1839
 2535POSM   C2A29746  24.095  11.521  15.720 -0.2625 -0.1298 -0.1668
 2535POSM   C3A29747  23.967  11.838  15.489  0.2444 -0.0883  0.0041
 2535POSM   C1B29748  24.505  10.665  15.496 -0.3349 -0.2261  0.1285
 2535POSM   D2B29749  24.719  10.792  15.133  0.2001 -0.0546 -0.2676
 2535POSM   C3B29750  24.855  10.453  14.810  0.2726  0.0759  0.0091
 2535POSM   C4B29751  25.228  10.394  14.537  0.1757  0.2747 -0.0669
 2536DOPS   CNO29752  27.768   6.355  17.133  0.0611 -0.2426  0.0270
 2536DOPS   PO429753  27.895   6.590  16.853 -0.4740 -0.0738 -0.2806
 2536DOPS   GL129754  28.096   6.503  16.448  0.0482  0.0551 -0.0517
 2536DOPS   GL229755  28.033   6.290  16.193  0.1354  0.0071 -0.0727
 2536DOPS   C1A29756  28.086   6.725  16.015  0.2183  0.1598 -0.1602
 2536DOPS   D2A29757  27.781   6.956  15.737 -0.3155 -0.2014  0.1301
 2536DOPS   C3A29758  27.880   7.355  15.538  0.3100  0.2334  0.2793
 2536DOPS   C4A29759  27.819   7.689  15.236  0.0236  0.0680 -0.1080
 2536DOPS   C1B29760  27.950   6.351  15.720  0.3072  0.4718 -0.0881
 2536DOPS   D2B29761  27.824   6.507  15.262 -0.1180 -0.1310  0.4553
 2536DOPS   C3B29762  27.426   6.560  15.054 -0.0302 -0.5397 -0.0044
 2536DOPS   C4B29763  27.044   6.700  14.830 -0.2276  0.2369  0.0112
 2537DOPC   NC329764  25.456   9.270  16.619  0.1079 -0.1829  0.1652
 2537DOPC   PO429765  25.858   9.233  16.787 -0.2232 -0.4462  0.1861
 2537DOPC   GL129766  25.865   9.236  16.376 -0.1934  0.3666 -0.1408
 2537DOPC   GL229767  25.764   8.970  16.327 -0.2896  0.0440  0.1883
 2537DOPC   C1A29768  25.972   9.549  16.044  0.0695 -0.1416  0.0722
 2537DOPC   D2A29769  26.141   9.615  15.618 -0.1445  0.2140  0.0010
 2537DOPC   C3A29770  25.863   9.622  15.260 -0.0367  0.3633  0.1695
 2537DOPC   C4A29771  25.350   9.599  15.202 -0.0622 -0.1442  0.0416
 2537DOPC   C1B29772  26.022   8.741  16.024 -0.1098 -0.1136 -0.1551
 2537DOPC   D2B29773  26.239   8.373  15.791 -0.0687 -0.5383 -0.0066
 2537DOPC   C3B29774  26.572   8.531  15.439 -0.0640 -0.4047  0.0218
 2537DOPC   C4B29775  26.773   8.355  15.035  0.0829 -0.2321 -0.3095
 2538DOPE   NH329776  26.762   8.222  17.067  0.0201 -0.1383  0.0626
 2538DOPE   PO429777  26.985   8.270  16.838 -0.1710 -0.1153  0.0622
 2538DOPE   GL129778  27.278   8.233  16.572 -0.0449 -0.1174 -0.0616
 2538DOPE   GL229779  27.383   8.004  16.491 -0.1828  0.2845 -0.1648
 2538DOPE   C1A29780  27.257   8.255  16.126 -0.1626  0.0936 -0.1660
 2538DOPE   D2A29781  27.440   8.245  15.680  0.1544 -0.0171  0.1600
 2538DOPE   C3A29782  27.429   8.000  15.293 -0.1341 -0.3478  0.0328
 2538DOPE   C4A29783  27.735   8.124  14.937  0.2414  0.0856  0.3282
 2538DOPE   C1B29784  27.438   7.801  16.077 -0.0035 -0.1823 -0.2415
 2538DOPE   D2B29785  27.600   7.785  15.693 -0.0390 -0.1391  0.0581
 2538DOPE   C3B29786  27.396   7.484  15.338  0.1452 -0.0144 -0.4096
 2538DOPE   C4B29787  27.059   7.245  15.242  0.1032 -0.0305 -0.0072
 2539DOPE   NH329788  28.389   0.709  17.292  0.2075 -0.0636  0.2226
 2539DOPE   PO429789  28.370   1.006  17.106 -0.2914 -0.0105 -0.0445
 2539DOPE   GL129790  28.287   1.133  16.676  0.2739 -0.1213 -0.0102
 2539DOPE   GL229791  28.237   0.867  16.577 -0.0515 -0.0512  0.2146
 2539DOPE   C1A29792  28.197   1.265  16.222 -0.0024  0.1941 -0.2223
 2539DOPE   D2A29793  28.247   1.420  15.751  0.3109 -0.2444  0.1689
 2539DOPE   C3A29794  28.530   1.666  15.496 -0.3248  0.1265  0.1230
 2539DOPE   C4A29795  28.952   1.728  15.310 -0.1283 -0.0610 -0.3388
 2539DOPE   C1B29796  28.646   1.031  16.431 -0.0272 -0.3261  0.0009
 2539DOPE   D2B29797  28.792   1.335  16.138 -0.2383  0.0743 -0.0167
 2539DOPE   C3B29798  28.891   1.726  15.909 -0.2992 -0.0470 -0.1148
 2539DOPE   C4B29799  28.856   2.149  16.099 -0.1679  0.3120  0.0132
 2540DOPC   NC329800  30.354   3.604  17.812  0.1296  0.0139 -0.1721
 2540DOPC   PO429801  30.311   3.695  17.419 -0.4769  0.2533  0.0469
 2540DOPC   GL129802  30.268   3.502  17.108  0.0443  0.2638  0.1394
 2540DOPC   GL229803  30.214   3.612  16.921  0.2532  0.1474 -0.2285
 2540DOPC   C1A29804  29.962   3.160  16.971 -0.1061  0.0607 -0.0794
 2540DOPC   D2A29805  29.747   2.880  16.701 -0.0426 -0.0090 -0.0237
 2540DOPC   C3A29806  30.019   2.804  16.336 -0.1260  0.3311 -0.2685
 2540DOPC   C4A29807  30.040   2.776  15.882 -0.1071  0.2018 -0.5738
 2540DOPC   C1B29808  29.974   3.903  16.653 -0.0923 -0.0452  0.2258
 2540DOPC   D2B29809  29.763   4.270  16.494 -0.0796 -0.0171  0.0479
 2540DOPC   C3B29810  29.886   4.249  16.089 -0.1954 -0.0671 -0.0557
 2540DOPC   C4B29811  29.782   4.151  15.629 -0.1861  0.1725 -0.0706
 2541POSM   NC329812  30.999   8.012  16.827  0.1017 -0.1229 -0.3083
 2541POSM   PO429813  31.221   8.357  16.917  0.2307 -0.1163  0.2678
 2541POSM   AM129814  31.189   8.380  16.589  0.2571  0.2705  0.2658
 2541POSM   AM229815  31.266   8.281  16.343 -0.0883  0.0105  0.0809
 2541POSM   T1A29816  30.806   8.440  16.224  0.1757  0.1769 -0.3931
 2541POSM   C2A29817  30.505   8.683  15.942  0.3065  0.0638  0.1168
 2541POSM   C3A29818  30.683   8.933  15.563 -0.0576  0.1198 -0.0201
 2541POSM   C1B29819  31.226   8.161  15.988  0.0216  0.1256  0.1758
 2541POSM   D2B29820  31.026   8.265  15.584 -0.2153  0.3080 -0.2377
 2541POSM   C3B29821  30.645   8.440  15.481 -0.0150 -0.0321  0.0680
 2541POSM   C4B29822  30.307   8.689  15.250  0.0952 -0.0978 -0.0732
 2542POSM   NC329823  25.359   9.916  16.125 -0.2398 -0.0041 -0.2613
 2542POSM   PO429824  25.385  10.265  16.072 -0.0044 -0.4241  0.1470
 2542POSM   AM129825  25.487  10.399  15.796 -0.3242 -0.0536 -0.0901
 2542POSM   AM229826  25.459  10.255  15.523  0.1387  0.0926  0.1273
 2542POSM   T1A29827  25.516  10.746  15.424  0.0720  0.0815  0.1100
 2542POSM   C2A29828  25.718  10.963  15.052 -0.0741 -0.1576 -0.0689
 2542POSM   C3A29829  25.861  11.258  14.622 -0.1458  0.1493  0.1165
 2542POSM   C1B29830  25.515  10.097  15.239  0.0008  0.3556  0.1497
 2542POSM   D2B29831  25.532  10.028  14.732 -0.0117  0.1632  0.1558
 2542POSM   C3B29832  25.124   9.904  14.494 -0.2146  0.1790  0.0659
 2542POSM   C4B29833  24.813   9.787  14.183  0.0508 -0.1900  0.0262
 2543DOPC   NC329834  31.464   9.439  15.993 -0.0976  0.3123  0.1516
 2543DOPC   PO429835  31.608   9.706  16.281 -0.0439  0.1655  0.3833
 2543DOPC   GL129836  31.552   9.904  16.012  0.0481  0.0770 -0.1114
 2543DOPC   GL229837  31.467  10.161  16.137 -0.2640  0.3007 -0.1227
 2543DOPC   C1A29838  31.516   9.717  15.601 -0.0867 -0.1295 -0.1060
 2543DOPC   D2A29839  31.346   9.688  15.181 -0.1289 -0.0985 -0.1097
 2543DOPC   C3A29840  31.449   9.309  14.870  0.0785  0.1106  0.4983
 2543DOPC   C4A29841  31.878   9.058  14.700  0.0725  0.0394  0.1457
 2543DOPC   C1B29842  31.108  10.367  15.949  0.0038 -0.3030 -0.1284
 2543DOPC   D2B29843  30.837  10.707  15.909 -0.2392 -0.2007  0.0467
 2543DOPC   C3B29844  30.758  10.729  15.521  0.2147  0.1395  0.1746
 2543DOPC   C4B29845  30.707  10.445  15.181 -0.0403 -0.3823 -0.0432
 2544DOPS   CNO29846  27.035   6.717  17.010  0.1673  0.3270 -0.3797
 2544DOPS   PO429847  27.367   6.557  16.936  0.2290 -0.0047 -0.0461
 2544DOPS   GL129848  27.545   6.699  16.499 -0.3782 -0.5317 -0.6409
 2544DOPS   GL229849  27.593   6.436  16.434 -0.1950  0.0197 -0.3278
 2544DOPS   C1A29850  27.774   7.080  16.278  0.0878 -0.2718 -0.1340
 2544DOPS   D2A29851  27.818   7.469  15.995  0.1348 -0.0453  0.1751
 2544DOPS   C3A29852  28.134   7.755  15.738  0.0914 -0.1609  0.2074
 2544DOPS   C4A29853  28.338   8.006  15.374  0.2165 -0.0556  0.0183
 2544DOPS   C1B29854  27.575   6.642  16.069  0.0596 -0.1068  0.0249
 2544DOPS   D2B29855  27.494   6.505  15.645 -0.0563 -0.0405 -0.0531
 2544DOPS   C3B29856  27.046   6.619  15.488 -0.2658 -0.2164 -0.1689
 2544DOPS   C4B29857  26.686   6.686  15.763  0.0454  0.2048 -0.3532
 2545DOPE   NH329858  34.555   4.663  16.242  0.1031 -0.1726 -0.0699
 2545DOPE   PO429859  34.459   4.385  16.299 -0.1128 -0.1008  0.0034
 2545DOPE   GL129860  34.325   4.327  15.885  0.3864 -0.1006  0.4551
 2545DOPE   GL229861  34.046   4.415  15.913 -0.2015  0.0033  0.0944
 2545DOPE   C1A29862  34.296   4.455  15.431  0.0185 -0.1898  0.1812
 2545DOPE   D2A29863  34.052   4.499  15.093  0.0837  0.1260  0.0307
 2545DOPE   C3A29864  33.775   4.756  14.902  0.0608 -0.0597  0.1191
 2545DOPE   C4A29865  33.471   5.071  14.659 -0.2030  0.1997  0.2400
 2545DOPE   C1B29866  33.791   4.512  15.549 -0.0494 -0.0116  0.2614
 2545DOPE   D2B29867  33.570   4.854  15.445 -0.0020 -0.0586  0.2556
 2545DOPE   C3B29868  33.290   4.877  15.105  0.1173 -0.1334 -0.0515
 2545DOPE   C4B29869  33.025   4.849  14.746  0.0429 -0.0304 -0.1686
 2546DOPS   CNO29870  27.728   9.320  17.021 -0.1707 -0.1624 -0.5308
 2546DOPS   PO429871  27.772   8.956  16.946  0.1859 -0.0382  0.2269
 2546DOPS   GL129872  28.070   8.796  16.653 -0.1559 -0.2670  0.1857
 2546DOPS   GL229873  27.808   8.773  16.466 -0.0926  0.0758  0.2944
 2546DOPS   C1A29874  28.310   9.013  16.308 -0.0154  0.0566  0.3098
 2546DOPS   D2A29875  28.370   9.183  15.923  0.0444 -0.1534 -0.2369
 2546DOPS   C3A29876  28.138   9.362  15.588  0.1341  0.0384  0.2064
 2546DOPS   C4A29877  28.047   9.547  15.172 -0.3385 -0.0344 -0.2123
 2546DOPS   C1B29878  28.070   8.498  16.166 -0.2124 -0.3798 -0.0759
 2546DOPS   D2B29879  28.406   8.161  15.969 -0.0609  0.0377 -0.1864
 2546DOPS   C3B29880  28.652   8.430  15.635  0.1486  0.0845 -0.1544
 2546DOPS   C4B29881  28.883   8.665  15.316 -0.2660 -0.1769  0.0957
 2547DOPS   CNO29882  24.594   1.389  16.336  0.0451 -0.1791  0.2513
 2547DOPS   PO429883  24.734   1.425  15.960  0.3282  0.1321  0.0348
 2547DOPS   GL129884  24.807   1.223  15.668 -0.2011  0.3067 -0.3334
 2547DOPS   GL229885  25.135   1.151  15.700  0.2105  0.0155 -0.0181
 2547DOPS   C1A29886  24.715   1.124  15.177  0.0354  0.0029 -0.0271
 2547DOPS   D2A29887  24.788   1.356  14.779  0.0665 -0.0104 -0.0610
 2547DOPS   C3A29888  24.738   1.857  14.813  0.2251 -0.0558 -0.3241
 2547DOPS   C4A29889  24.643   2.147  15.144 -0.0164  0.0647  0.1079
 2547DOPS   C1B29890  25.371   1.436  15.365 -0.1749 -0.0278 -0.2125
 2547DOPS   D2B29891  25.649   1.258  14.989  0.2088 -0.2605  0.0999
 2547DOPS   C3B29892  25.956   0.947  14.852 -0.3965 -0.1240  0.2239
 2547DOPS   C4B29893  26.123   0.550  14.687  0.2267 -0.2463  0.1269
 2548POSM   NC329894  24.241   7.445  16.876 -0.0842  0.0353 -0.1079
 2548POSM   PO429895  24.553   7.644  16.855  0.0079  0.0734  0.1984
 2548POSM   AM129896  24.516   7.616  16.508  0.0822 -0.0370 -0.0738
 2548POSM   AM229897  24.251   7.693  16.385  0.3797  0.0843  0.2049
 2548POSM   T1A29898  24.674   7.558  15.999  0.0383  0.4769 -0.0017
 2548POSM   C2A29899  24.981   7.367  15.740  0.5700 -0.0385 -0.1508
 2548POSM   C3A29900  25.379   7.436  15.606  0.3603  0.1066  0.0628
 2548POSM   C1B29901  24.327   7.856  16.074  0.3566  0.0409 -0.0218
 2548POSM   D2B29902  24.256   7.998  15.661 -0.0258  0.0911 -0.1806
 2548POSM   C3B29903  24.673   7.933  15.630 -0.0553  0.0893 -0.1737
 2548POSM   C4B29904  25.088   8.134  15.564 -0.4985 -0.1560 -0.1388
 2549POSM   NC329905  31.384   5.715  17.212  0.0619 -0.1849  0.0389
 2549POSM   PO429906  31.016   5.850  17.211 -0.1652  0.1053 -0.0668
 2549POSM   AM129907  31.034   5.835  16.881  0.0871 -0.1419  0.3483
 2549POSM   AM229908  31.033   5.678  16.631  0.0591 -0.3566  0.1629
 2549POSM   T1A29909  31.026   6.106  16.455  0.1863  0.1250 -0.0633
 2549POSM   C2A29910  31.046   6.004  15.994 -0.0071  0.0700  0.1841
 2549POSM   C3A29911  31.055   6.274  15.632 -0.2239  0.5195  0.0312
 2549POSM   C1B29912  31.265   5.660  16.373 -0.1688  0.0613 -0.0604
 2549POSM   D2B29913  31.403   5.468  15.988 -0.2638 -0.0037  0.0956
 2549POSM   C3B29914  31.147   5.401  15.610  0.0545 -0.0287  0.0638
 2549POSM   C4B29915  30.784   5.673  15.550 -0.0173  0.1353  0.0323
 2550DOPC   NC329916  25.217   1.610  15.819 -0.2268  0.1433 -0.0291
 2550DOPC   PO429917  25.475   1.674  16.105  0.0106  0.0462 -0.0969
 2550DOPC   GL129918  25.646   1.710  15.747  0.4850  0.1878  0.0681
 2550DOPC   GL229919  25.820   1.868  15.877 -0.0707  0.2734  0.0281
 2550DOPC   C1A29920  25.992   1.465  15.521 -0.2059 -0.2110  0.1417
 2550DOPC   D2A29921  26.093   1.301  15.121  0.0288  0.2491  0.1715
 2550DOPC   C3A29922  25.982   1.508  14.747 -0.2263 -0.5138 -0.0299
 2550DOPC   C4A29923  25.650   1.279  14.476  0.1283  0.2376  0.2343
 2550DOPC   C1B29924  25.957   1.969  15.438 -0.0971  0.2188  0.0015
 2550DOPC   D2B29925  26.251   2.013  15.067  0.0572  0.0004  0.1515
 2550DOPC   C3B29926  26.449   2.081  14.625 -0.3619  0.0424  0.0863
 2550DOPC   C4B29927  26.760   2.128  14.236 -0.1707 -0.0325  0.1806
 2551POSM   NC329928  28.879  10.027  16.858 -0.0501 -0.0751 -0.1159
 2551POSM   PO429929  28.597  10.329  16.752 -0.0126  0.0234 -0.2311
 2551POSM   AM129930  28.473  10.447  16.479  0.0708 -0.3050  0.1867
 2551POSM   AM229931  28.612  10.637  16.312  0.0489 -0.2528 -0.0808
 2551POSM   T1A29932  28.208  10.550  16.055 -0.2283  0.0355 -0.0585
 2551POSM   C2A29933  28.112  10.465  15.639 -0.0189 -0.0344  0.0408
 2551POSM   C3A29934  28.189  10.035  15.464  0.2855  0.1139 -0.1117
 2551POSM   C1B29935  28.719  10.751  16.021 -0.1318  0.1176 -0.1486
 2551POSM   D2B29936  29.012  10.961  15.711 -0.2927 -0.3004  0.0825
 2551POSM   C3B29937  28.926  10.784  15.270  0.0830 -0.1055 -0.2046
 2551POSM   C4B29938  29.158  10.626  14.921  0.0662 -0.0654 -0.1345
 2552DOPC   NC329939  29.661   6.360  17.822  0.0291 -0.0387 -0.0380
 2552DOPC   PO429940  29.590   6.288  17.410 -0.2389  0.3092  0.0604
 2552DOPC   GL129941  29.685   6.319  17.081  0.1030 -0.2744  0.0014
 2552DOPC   GL229942  29.924   6.149  17.026 -0.1238  0.3111 -0.2166
 2552DOPC   C1A29943  29.520   6.567  16.677 -0.3771  0.1162 -0.2467
 2552DOPC   D2A29944  29.125   6.436  16.451  0.3161  0.1073 -0.1674
 2552DOPC   C3A29945  29.185   6.668  16.012 -0.1297 -0.2058 -0.1041
 2552DOPC   C4A29946  29.036   6.646  15.554  0.0463  0.1819 -0.2066
 2552DOPC   C1B29947  30.118   6.240  16.625  0.3458  0.0648 -0.1692
 2552DOPC   D2B29948  30.372   6.187  16.249  0.3275  0.1376  0.0699
 2552DOPC   C3B29949  30.724   6.394  16.093 -0.1411  0.0392 -0.1957
 2552DOPC   C4B29950  30.881   6.681  15.759 -0.0211 -0.1848 -0.1794
 2553POSM   NC329951  28.941   5.886  17.465 -0.2442 -0.0967  0.3250
 2553POSM   PO429952  28.907   5.578  17.217  0.3123  0.3757 -0.1591
 2553POSM   AM129953  29.133   5.554  16.966  0.2040  0.3668 -0.1428
 2553POSM   AM229954  29.135   5.717  16.759 -0.0320 -0.0408  0.3544
 2553POSM   T1A29955  29.647   5.565  16.901 -0.2561  0.0081 -0.0198
 2553POSM   C2A29956  29.900   5.779  16.623  0.1705  0.1240  0.1871
 2553POSM   C3A29957  30.001   5.823  16.145 -0.3299  0.0335 -0.0923
 2553POSM   C1B29958  29.228   5.959  16.595  0.2354 -0.0461  0.1585
 2553POSM   D2B29959  29.580   6.135  16.446  0.0019 -0.1098 -0.3123
 2553POSM   C3B29960  29.825   6.365  16.165 -0.1477  0.0633 -0.4178
 2553POSM   C4B29961  29.888   6.200  15.732 -0.1889  0.4160  0.0466
 2554POSM   NC329962  32.426   1.709  16.613  0.0805 -0.0074 -0.0198
 2554POSM   PO429963  32.107   1.556  16.829 -0.0836 -0.0021  0.0442
 2554POSM   AM129964  32.014   1.559  16.500 -0.0472  0.2366  0.3929
 2554POSM   AM229965  31.876   1.365  16.334 -0.1194 -0.0568  0.0444
 2554POSM   T1A29966  32.224   1.718  16.071 -0.1598 -0.1039  0.2418
 2554POSM   C2A29967  32.275   2.062  15.782  0.0887  0.1741  0.3545
 2554POSM   C3A29968  32.445   2.484  15.680 -0.4610 -0.2344  0.2300
 2554POSM   C1B29969  31.835   1.319  16.006  0.0314  0.0047 -0.2992
 2554POSM   D2B29970  31.633   1.030  15.636 -0.1179  0.3131 -0.0572
 2554POSM   C3B29971  31.421   1.224  15.251 -0.1045  0.1295 -0.1249
 2554POSM   C4B29972  31.121   1.290  14.891 -0.2888 -0.0257  0.1275
 2555DOPC   NC329973  25.524   2.938  15.875  0.0742  0.1854 -0.0648
 2555DOPC   PO429974  25.171   3.049  15.971 -0.0617  0.0977 -0.2726
 2555DOPC   GL129975  24.988   3.012  15.673  0.1640  0.2552  0.2031
 2555DOPC   GL229976  25.228   3.174  15.457 -0.0228 -0.1111 -0.2161
 2555DOPC   C1A29977  24.682   3.233  15.416  0.2470 -0.1042  0.0929
 2555DOPC   D2A29978  24.509   3.289  15.043  0.0093 -0.0833  0.2525
 2555DOPC   C3A29979  24.406   3.663  14.851 -0.0359  0.1249 -0.2850
 2555DOPC   C4A29980  24.306   4.067  14.989 -0.3214 -0.2097 -0.2736
 2555DOPC   C1B29981  25.098   3.243  15.005  0.0336 -0.0229  0.0234
 2555DOPC   D2B29982  25.377   3.443  14.670 -0.1879  0.1314 -0.2520
 2555DOPC   C3B29983  25.735   3.736  14.814  0.2088 -0.4062  0.1026
 2555DOPC   C4B29984  26.157   3.939  14.750  0.0626 -0.0870  0.2414
 2556DOPE   NH329985  24.982   2.110  16.102  0.0747  0.0732  0.2134
 2556DOPE   PO429986  25.240   2.091  15.892 -0.1414  0.2031 -0.1778
 2556DOPE   GL129987  25.227   2.007  15.445  0.3205 -0.1032 -0.0533
 2556DOPE   GL229988  25.116   2.205  15.334 -0.0665  0.0589  0.0583
 2556DOPE   C1A29989  25.538   1.899  15.157  0.0381  0.3199 -0.3099
 2556DOPE   D2A29990  25.839   1.996  14.820  0.0616 -0.4191  0.1525
 2556DOPE   C3A29991  26.087   2.384  14.849  0.1387  0.1311  0.1381
 2556DOPE   C4A29992  26.510   2.551  14.909 -0.1706 -0.3747 -0.0232
 2556DOPE   C1B29993  25.173   2.157  14.916  0.0783  0.0748  0.0834
 2556DOPE   D2B29994  25.381   1.933  14.558  0.0553 -0.3319  0.2723
 2556DOPE   C3B29995  25.552   2.282  14.343 -0.0225  0.0813  0.0870
 2556DOPE   C4B29996  25.629   2.426  13.846  0.2340 -0.0606  0.1277
 2557DOPC   NC329997  24.077   5.205  16.443  0.0131  0.0231  0.0401
 2557DOPC   PO429998  23.743   5.413  16.348 -0.3715 -0.2001 -0.0920
 2557DOPC   GL129999  23.881   5.266  15.971  0.4260 -0.1634 -0.3863
 2557DOPC   GL230000  23.965   4.996  15.999  0.2088  0.0041 -0.2945
 2557DOPC   C1A30001  24.178   5.204  15.613 -0.0920 -0.3440  0.0425
 2557DOPC   D2A30002  24.368   5.219  15.178 -0.0355 -0.3187  0.2552
 2557DOPC   C3A30003  24.658   5.492  14.941 -0.0330  0.0246 -0.0998
 2557DOPC   C4A30004  24.696   5.961  15.022  0.1494  0.0485  0.3057
 2557DOPC   C1B30005  24.152   4.558  15.915 -0.2308  0.0242  0.0865
 2557DOPC   D2B30006  24.231   4.209  15.575 -0.0289 -0.2612  0.0049
 2557DOPC   C3B30007  23.961   3.833  15.405 -0.0476  0.1550  0.2418
 2557DOPC   C4B30008  23.607   3.648  15.533  0.0842 -0.1916  0.2760
 2558POSM   NC330009  32.017   6.361  17.303 -0.2052 -0.2631 -0.1203
 2558POSM   PO430010  32.330   6.502  17.510 -0.0136  0.0473 -0.2993
 2558POSM   AM130011  32.449   6.490  17.247 -0.1171 -0.0477  0.1577
 2558POSM   AM230012  32.480   6.707  17.049  0.2037  0.0299 -0.0487
 2558POSM   T1A30013  32.743   6.307  16.899  0.4487  0.1257  0.3126
 2558POSM   C2A30014  33.050   5.999  16.739 -0.2573 -0.0680 -0.0568
 2558POSM   C3A30015  33.365   5.824  16.478 -0.0402 -0.1151  0.3114
 2558POSM   C1B30016  32.166   6.784  16.834  0.0848  0.2677  0.0219
 2558POSM   D2B30017  31.883   7.005  16.563 -0.1642 -0.3274  0.1252
 2558POSM   C3B30018  32.083   6.991  16.144  0.0199  0.2739 -0.0385
 2558POSM   C4B30019  32.486   7.221  15.943  0.2276  0.1517  0.1108
 2559POSM   NC330020  23.406  10.482  16.463 -0.2100 -0.0966  0.1665
 2559POSM   PO430021  23.608  10.386  16.144  0.1201 -0.0861 -0.0510
 2559POSM   AM130022  23.823  10.206  15.949  0.1359  0.3522 -0.2653
 2559POSM   AM230023  23.979   9.994  16.077 -0.0934 -0.1852 -0.1509
 2559POSM   T1A30024  24.019  10.140  15.505 -0.1792  0.0857  0.0544
 2559POSM   C2A30025  23.814   9.904  15.171 -0.0240 -0.2307 -0.0358
 2559POSM   C3A30026  23.750   9.535  14.936 -0.0005 -0.1261 -0.1060
 2559POSM   C1B30027  24.251   9.833  15.882 -0.3983  0.0866  0.1557
 2559POSM   D2B30028  24.580   9.924  15.526  0.0159 -0.1038 -0.1539
 2559POSM   C3B30029  24.434  10.043  15.095 -0.0726  0.0307  0.1499
 2559POSM   C4B30030  24.150   9.865  14.793 -0.1243  0.0221 -0.1704
 2560POSM   NC330031  26.977   5.719  16.984  0.1731  0.1352 -0.1130
 2560POSM   PO430032  26.600   5.846  16.867  0.1244  0.4097 -0.1107
 2560POSM   AM130033  26.517   5.801  16.560  0.0192  0.1639  0.1664
 2560POSM   AM230034  26.266   5.809  16.485  0.0135 -0.1716  0.2472
 2560POSM   T1A30035  26.687   5.535  16.141 -0.0235  0.0840 -0.0052
 2560POSM   C2A30036  26.871   5.605  15.733  0.0690  0.3374 -0.2322
 2560POSM   C3A30037  26.912   5.676  15.241  0.1287  0.2448  0.0922
 2560POSM   C1B30038  26.053   5.798  16.260  0.4230 -0.0027 -0.1536
 2560POSM   D2B30039  26.042   6.013  15.792 -0.1190 -0.2065 -0.0723
 2560POSM   C3B30040  25.764   6.335  15.608  0.3662  0.2342  0.1458
 2560POSM   C4B30041  25.494   6.439  15.245  0.1376  0.2127  0.3263
 2561POSM   NC330042  25.706  11.251  16.181 -0.0860 -0.4423 -0.1009
 2561POSM   PO430043  26.112  11.197  16.203  0.0276 -0.1162  0.0545
 2561POSM   AM130044  26.192  11.081  15.890  0.2798 -0.6347  0.1617
 2561POSM   AM230045  26.444  11.123  15.787  0.1380 -0.1091 -0.0822
 2561POSM   T1A30046  26.030  10.965  15.446  0.2524  0.1253 -0.2088
 2561POSM   C2A30047  26.205  11.206  15.060  0.2055  0.2305 -0.0273
 2561POSM   C3A30048  26.329  11.428  14.670  0.0869  0.0171 -0.0057
 2561POSM   C1B30049  26.569  11.115  15.462  0.0707  0.0399  0.3567
 2561POSM   D2B30050  26.658  10.869  15.116 -0.0937 -0.1320 -0.2472
 2561POSM   C3B30051  26.500  10.612  14.771  0.0167 -0.2238  0.2907
 2561POSM   C4B30052  26.347  10.478  14.338  0.0635  0.2771  0.0884
 2562DOPC   NC330053  33.810   7.472  17.353  0.2091 -0.2381 -0.3912
 2562DOPC   PO430054  33.555   7.194  17.326 -0.1543  0.2766 -0.2433
 2562DOPC   GL130055  33.657   7.243  16.968  0.0308  0.0964  0.1253
 2562DOPC   GL230056  33.913   7.413  16.861  0.1898  0.0658  0.0220
 2562DOPC   C1A30057  33.561   7.055  16.576 -0.2255 -0.0789  0.0928
 2562DOPC   D2A30058  33.537   6.592  16.481 -0.3472  0.0863 -0.2332
 2562DOPC   C3A30059  33.489   6.337  16.138 -0.2136 -0.3163 -0.2351
 2562DOPC   C4A30060  33.696   5.949  16.059  0.0435  0.0076 -0.0348
 2562DOPC   C1B30061  33.969   7.497  16.387  0.2541  0.1472  0.0883
 2562DOPC   D2B30062  34.148   7.796  16.092  0.0982  0.0057 -0.2001
 2562DOPC   C3B30063  33.879   8.131  15.996 -0.0919 -0.2616 -0.0126
 2562DOPC   C4B30064  33.728   8.300  15.567  0.1732 -0.0029 -0.1658
 2563POSM   NC330065  34.187   7.948  16.630 -0.0142  0.0374  0.3524
 2563POSM   PO430066  33.949   7.895  16.891  0.0061  0.2058  0.0535
 2563POSM   AM130067  33.673   7.821  16.737 -0.2898  0.0093 -0.1210
 2563POSM   AM230068  33.547   7.956  16.506  0.3460 -0.0325 -0.0404
 2563POSM   T1A30069  33.321   7.490  16.668 -0.1538 -0.1335 -0.0642
 2563POSM   C2A30070  32.849   7.371  16.693 -0.1159 -0.0257 -0.0028
 2563POSM   C3A30071  32.398   7.304  16.525  0.1399  0.0050  0.0157
 2563POSM   C1B30072  33.582   7.755  16.233  0.3812 -0.0079  0.0566
 2563POSM   D2B30073  33.624   7.422  15.984  0.1364  0.1623  0.0252
 2563POSM   C3B30074  33.531   6.993  16.032 -0.1807  0.1491  0.0011
 2563POSM   C4B30075  33.276   6.651  15.836  0.1847  0.1515  0.1115
 2564DOPS   CNO30076  27.548   5.177  17.063 -0.0951 -0.0354  0.2285
 2564DOPS   PO430077  27.425   5.528  17.074 -0.0082  0.1293 -0.0051
 2564DOPS   GL130078  27.520   5.639  16.658 -0.1041  0.0026 -0.0364
 2564DOPS   GL230079  27.260   5.556  16.483  0.0522  0.1330 -0.1356
 2564DOPS   C1A30080  27.698   5.911  16.289  0.1956 -0.1789 -0.0450
 2564DOPS   D2A30081  27.578   6.100  15.893 -0.1388 -0.1825 -0.2728
 2564DOPS   C3A30082  27.894   5.892  15.618 -0.0335  0.0727  0.2748
 2564DOPS   C4A30083  28.087   6.044  15.231  0.4461  0.0731 -0.0335
 2564DOPS   C1B30084  27.228   5.727  16.121 -0.0200  0.0597  0.0585
 2564DOPS   D2B30085  27.482   5.603  15.763  0.1454  0.2082  0.1682
 2564DOPS   C3B30086  27.473   5.543  15.285 -0.1600  0.0513 -0.0751
 2564DOPS   C4B30087  27.604   5.266  14.944  0.0942  0.2300 -0.3143
 2565DOPS   CNO30088  22.641   7.012  15.702  0.0187  0.1171  0.0266
 2565DOPS   PO430089  22.984   6.896  15.806 -0.1446  0.0339  0.2354
 2565DOPS   GL130090  23.252   6.872  15.522  0.1977 -0.1951  0.2592
 2565DOPS   GL230091  23.253   6.592  15.433 -0.0556  0.0510  0.0095
 2565DOPS   C1A30092  23.527   7.171  15.260  0.1108 -0.3231 -0.0648
 2565DOPS   D2A30093  23.927   7.294  15.427 -0.4813 -0.2297  0.1652
 2565DOPS   C3A30094  24.186   6.921  15.560  0.1211  0.1196 -0.1765
 2565DOPS   C4A30095  24.387   6.527  15.728 -0.2619 -0.2582  0.1370
 2565DOPS   C1B30096  23.516   6.430  15.141 -0.3622  0.1283  0.2051
 2565DOPS   D2B30097  23.954   6.397  14.981  0.0438  0.2530  0.0125
 2565DOPS   C3B30098  24.419   6.470  14.800 -0.4291  0.3158 -0.0772
 2565DOPS   C4B30099  24.821   6.453  14.656  0.1116 -0.3750 -0.0113
 2566DOPS   CNO30100  29.264   7.428  17.272  0.2072 -0.1279 -0.3309
 2566DOPS   PO430101  29.046   7.345  16.968 -0.1323 -0.0568 -0.1368
 2566DOPS   GL130102  29.076   7.418  16.642 -0.2479  0.1088  0.1286
 2566DOPS   GL230103  29.350   7.557  16.561 -0.3365 -0.3786  0.2207
 2566DOPS   C1A30104  28.823   7.420  16.232  0.1914  0.0059  0.2808
 2566DOPS   D2A30105  28.604   7.694  16.002  0.1860 -0.0029 -0.0307
 2566DOPS   C3A30106  28.490   7.454  15.621  0.4840  0.0401  0.4353
 2566DOPS   C4A30107  28.249   7.439  15.249 -0.0586 -0.0339 -0.1291
 2566DOPS   C1B30108  29.140   7.889  16.269 -0.1244 -0.3441 -0.7581
 2566DOPS   D2B30109  28.957   8.080  15.948  0.0199  0.2214  0.4897
 2566DOPS   C3B30110  28.745   7.893  15.561  0.1068 -0.1961  0.0375
 2566DOPS   C4B30111  28.716   7.834  15.099 -0.0420  0.1688  0.2012
 2567POSM   NC330112  31.913   3.208  17.312 -0.2146 -0.3374 -0.2338
 2567POSM   PO430113  31.761   3.497  17.035  0.1499  0.0951  0.2283
 2567POSM   AM130114  31.495   3.610  16.896  0.0370  0.2636 -0.1774
 2567POSM   AM230115  31.223   3.508  16.870  0.3256  0.1546  0.3813
 2567POSM   T1A30116  31.316   3.902  16.579  0.4365 -0.2678 -0.1267
 2567POSM   C2A30117  31.100   3.797  16.171 -0.0153 -0.1112  0.2855
 2567POSM   C3A30118  30.691   3.991  15.981  0.1839 -0.0540  0.0485
 2567POSM   C1B30119  31.063   3.319  16.641 -0.0547  0.4182  0.2082
 2567POSM   D2B30120  30.990   3.129  16.214  0.2964  0.0016 -0.1265
 2567POSM   C3B30121  30.992   3.331  15.812 -0.2165 -0.0740  0.0662
 2567POSM   C4B30122  30.880   3.379  15.353  0.2888  0.2097  0.3976
 2568DOPE   NH330123  30.408  11.313  17.240 -0.0897 -0.0804 -0.4217
 2568DOPE   PO430124  30.676  11.469  17.313  0.2192  0.1876  0.1197
 2568DOPE   GL130125  30.871  11.388  16.897  0.0210  0.0082  0.0853
 2568DOPE   GL230126  30.709  11.176  16.752  0.1767 -0.0531 -0.0011
 2568DOPE   C1A30127  31.055  11.461  16.465  0.2371  0.1492 -0.0589
 2568DOPE   D2A30128  30.875  11.692  16.050  0.1694 -0.0257  0.2932
 2568DOPE   C3A30129  30.855  11.774  15.572 -0.2398 -0.0349 -0.3421
 2568DOPE   C4A30130  31.162  11.948  15.233 -0.1171 -0.2035 -0.0919
 2568DOPE   C1B30131  30.601  11.224  16.276  0.2110  0.3961 -0.0016
 2568DOPE   D2B30132  30.584  11.201  15.814 -0.0582  0.1501 -0.1317
 2568DOPE   C3B30133  30.511  11.148  15.394  0.0438 -0.0637  0.0211
 2568DOPE   C4B30134  30.523  11.282  14.924 -0.1564  0.0925  0.0835
 2569POSM   NC330135  27.941   0.012  16.950 -0.2799  0.1765 -0.3965
 2569POSM   PO430136  27.631   0.267  17.031 -0.1004  0.3024  0.1211
 2569POSM   AM130137  27.598   0.334  16.718 -0.1911 -0.0366 -0.0880
 2569POSM   AM230138  27.799   0.477  16.552 -0.1200 -0.1123 -0.1211
 2569POSM   T1A30139  27.555   0.210  16.192 -0.3190 -0.0370  0.1894
 2569POSM   C2A30140  27.344  -0.076  15.929  0.0700 -0.0236  0.1318
 2569POSM   C3A30141  27.297  -0.500  15.916  0.2801 -0.3541  0.0959
 2569POSM   C1B30142  27.985   0.442  16.307 -0.2694  0.3537  0.1367
 2569POSM   D2B30143  28.079   0.476  15.890  0.3013 -0.0248 -0.1448
 2569POSM   C3B30144  28.438   0.513  15.638  0.4622 -0.1162  0.2547
 2569POSM   C4B30145  28.775   0.714  15.358  0.1302  0.0178 -0.3300
 2570DOPS   CNO30146  29.853   7.557  16.764  0.0827  0.0684 -0.1513
 2570DOPS   PO430147  30.078   7.312  16.932 -0.0863 -0.1140 -0.2047
 2570DOPS   GL130148  29.956   7.123  16.574 -0.2942 -0.0773  0.0839
 2570DOPS   GL230149  29.679   7.042  16.569 -0.1080 -0.0333  0.2223
 2570DOPS   C1A30150  29.841   7.313  16.200  0.1763 -0.0747 -0.3747
 2570DOPS   D2A30151  29.697   7.395  15.725 -0.0998 -0.1630 -0.1353
 2570DOPS   C3A30152  29.421   7.476  15.350  0.1425 -0.1106  0.2060
 2570DOPS   C4A30153  29.214   7.841  15.187 -0.1204  0.0176 -0.0068
 2570DOPS   C1B30154  29.588   6.814  16.198  0.0943 -0.1888  0.0792
 2570DOPS   D2B30155  29.770   6.716  15.775  0.2410  0.2653 -0.1753
 2570DOPS   C3B30156  29.876   6.557  15.352  0.3308  0.1110 -0.2935
 2570DOPS   C4B30157  29.699   6.229  15.079  0.2886  0.0724  0.2174
 2571POSM   NC330158  33.810   4.927  16.032  0.1488 -0.0820  0.1596
 2571POSM   PO430159  33.542   4.704  16.214  0.1801  0.0089 -0.0729
 2571POSM   AM130160  33.410   4.723  15.893  0.2494  0.3572  0.0770
 2571POSM   AM230161  33.254   4.515  15.722  0.0532  0.0616 -0.2028
 2571POSM   T1A30162  33.048   4.974  15.593  0.2148 -0.0428 -0.0912
 2571POSM   C2A30163  32.811   5.062  15.240 -0.1450 -0.1918 -0.1275
 2571POSM   C3A30164  32.673   5.254  14.865 -0.1675 -0.1095 -0.1106
 2571POSM   C1B30165  33.309   4.340  15.432  0.2333  0.1012 -0.1137
 2571POSM   D2B30166  33.599   4.276  15.069 -0.0071  0.2457 -0.0412
 2571POSM   C3B30167  33.395   4.549  14.742 -0.0218  0.2287  0.3515
 2571POSM   C4B30168  33.608   4.676  14.362 -0.2648  0.2602 -0.0130
 2572POSM   NC330169  28.119   4.032  16.750  0.0057  0.3340  0.3023
 2572POSM   PO430170  28.147   3.664  16.933 -0.0744  0.0528 -0.1063
 2572POSM   AM130171  28.218   3.442  16.731 -0.1368  0.2582  0.1038
 2572POSM   AM230172  28.067   3.316  16.549 -0.0096 -0.0527  0.1935
 2572POSM   T1A30173  28.489   3.268  16.309 -0.2111 -0.1177 -0.1448
 2572POSM   C2A30174  28.576   2.933  16.098 -0.2704 -0.0385 -0.2274
 2572POSM   C3A30175  28.706   2.546  15.853  0.0990  0.0086 -0.1718
 2572POSM   C1B30176  27.994   3.129  16.247  0.1919  0.1195 -0.3062
 2572POSM   D2B30177  28.056   2.872  15.869 -0.0895  0.2286 -0.3655
 2572POSM   C3B30178  28.472   2.984  15.666 -0.1604  0.3642 -0.0711
 2572POSM   C4B30179  28.897   2.963  15.704 -0.0024 -0.1945 -0.2236
 2573POSM   NC330180  24.907   8.065  16.655 -0.0175  0.2238 -0.0543
 2573POSM   PO430181  24.557   8.135  16.565  0.1841  0.0467  0.2985
 2573POSM   AM130182  24.643   8.113  16.226  0.0803  0.3934  0.0585
 2573POSM   AM230183  24.914   8.076  16.121  0.4861 -0.2182 -0.0443
 2573POSM   T1A30184  24.795   8.417  15.831 -0.2125  0.3461 -0.0267
 2573POSM   C2A30185  24.726   8.825  15.553 -0.1942 -0.0619  0.0529
 2573POSM   C3A30186  24.893   9.231  15.259  0.1492 -0.0946  0.0253
 2573POSM   C1B30187  25.180   8.206  16.251  0.1365  0.1095 -0.1378
 2573POSM   D2B30188  25.612   8.406  16.072  0.3153  0.0263 -0.0594
 2573POSM   C3B30189  25.793   8.527  15.679 -0.1408  0.1027  0.2089
 2573POSM   C4B30190  25.661   8.772  15.318  0.0442 -0.1403 -0.1689
 2574DOPE   NH330191  34.293   8.317  16.965  0.0574 -0.0354  0.0099
 2574DOPE   PO430192  34.323   8.570  16.763  0.0255  0.2013 -0.2237
 2574DOPE   GL130193  34.389   8.545  16.420 -0.2365  0.0759 -0.0217
 2574DOPE   GL230194  34.373   8.241  16.182 -0.1599 -0.2301  0.3489
 2574DOPE   C1A30195  34.119   8.651  16.012  0.0510 -0.3283  0.0380
 2574DOPE   D2A30196  34.185   8.673  15.560 -0.1739  0.4157  0.2072
 2574DOPE   C3A30197  34.355   8.878  15.145  0.1007  0.2700 -0.1211
 2574DOPE   C4A30198  34.769   9.122  15.126  0.1562 -0.1798  0.2406
 2574DOPE   C1B30199  34.373   8.245  15.674  0.3111  0.1761 -0.0976
 2574DOPE   D2B30200  34.308   8.088  15.275 -0.1469  0.0564 -0.3305
 2574DOPE   C3B30201  33.851   8.005  15.168  0.0683  0.0233 -0.2156
 2574DOPE   C4B30202  33.617   7.894  14.816  0.0732  0.1573 -0.1672
 2575DOPE   NH330203  23.745   7.867  16.592  0.3959 -0.2688 -0.0036
 2575DOPE   PO430204  23.834   7.603  16.630  0.1330 -0.0271 -0.0121
 2575DOPE   GL130205  23.867   7.459  16.220  0.3488  0.3428 -0.0499
 2575DOPE   GL230206  23.622   7.524  16.159  0.0527  0.0031  0.0790
 2575DOPE   C1A30207  23.917   7.618  15.778  0.4312  0.1021  0.1425
 2575DOPE   D2A30208  23.962   7.796  15.342  0.3356 -0.3102  0.0615
 2575DOPE   C3A30209  24.338   7.669  15.118 -0.0492  0.3020 -0.3174
 2575DOPE   C4A30210  24.525   7.454  14.783  0.3247 -0.0328  0.0341
 2575DOPE   C1B30211  23.783   7.143  15.905 -0.0551 -0.2702 -0.1454
 2575DOPE   D2B30212  23.772   6.717  15.584 -0.2058  0.1612  0.2176
 2575DOPE   C3B30213  23.871   6.838  15.160  0.1095  0.0579  0.0538
 2575DOPE   C4B30214  23.999   6.982  14.675 -0.2178 -0.0648  0.1031
 2576DOPS   CNO30215  34.499   1.062  16.626 -0.0317 -0.0192 -0.2075
 2576DOPS   PO430216  34.182   1.241  16.538  0.0036 -0.2758  0.3215
 2576DOPS   GL130217  33.843   1.108  16.196 -0.4614 -0.1999 -0.0165
 2576DOPS   GL230218  34.046   1.099  15.966 -0.2699  0.3503  0.3035
 2576DOPS   C1A30219  33.737   0.749  15.980  0.1367 -0.1339 -0.2419
 2576DOPS   D2A30220  33.524   0.346  15.891  0.0964 -0.0969 -0.4752
 2576DOPS   C3A30221  33.875   0.107  15.880 -0.0313  0.1527 -0.1512
 2576DOPS   C4A30222  34.025  -0.162  15.554  0.0625  0.0717  0.1685
 2576DOPS   C1B30223  33.946   0.956  15.516 -0.0700 -0.1754  0.0689
 2576DOPS   D2B30224  34.035   0.794  15.077 -0.1610  0.1151 -0.1744
 2576DOPS   C3B30225  34.190   0.516  14.726  0.0703 -0.0427 -0.1406
 2576DOPS   C4B30226  34.373   0.115  14.494  0.0218 -0.0883  0.1058
 2577DOPS   CNO30227  23.323   4.491  16.440 -0.1919  0.1115  0.1598
 2577DOPS   PO430228  23.159   4.605  16.130 -0.1453 -0.0108  0.0928
 2577DOPS   GL130229  23.267   4.588  15.723  0.1977  0.2195  0.0222
 2577DOPS   GL230230  23.105   4.800  15.637 -0.1985 -0.0100 -0.0840
 2577DOPS   C1A30231  23.361   4.691  15.279  0.0925  0.2654 -0.3366
 2577DOPS   D2A30232  23.266   4.794  14.877 -0.0748 -0.3985  0.2296
 2577DOPS   C3A30233  23.333   4.407  14.630  0.2639 -0.1182 -0.4738
 2577DOPS   C4A30234  23.443   4.027  14.481 -0.1830  0.0933  0.1783
 2577DOPS   C1B30235  22.854   4.793  15.200 -0.3768 -0.1023  0.1232
 2577DOPS   D2B30236  22.484   4.755  14.965  0.1358  0.0177 -0.0240
 2577DOPS   C3B30237  22.372   5.147  14.807 -0.0942  0.0169 -0.0182
 2577DOPS   C4B30238  22.275   5.299  14.399 -0.2996 -0.0239  0.0337
 2578DOPE   NH330239  27.453   9.709  16.962 -0.1992 -0.0176 -0.1608
 2578DOPE   PO430240  27.214   9.536  16.917 -0.1567 -0.3299  0.3234
 2578DOPE   GL130241  27.206   9.540  16.523  0.1437  0.1002 -0.3049
 2578DOPE   GL230242  27.017   9.287  16.475  0.0910 -0.1968 -0.1709
 2578DOPE   C1A30243  27.306   9.617  16.007  0.2056  0.0789 -0.1785
 2578DOPE   D2A30244  26.974   9.793  15.760 -0.2287  0.0169 -0.1596
 2578DOPE   C3A30245  26.684   9.503  15.528  0.0307  0.2621 -0.0714
 2578DOPE   C4A30246  26.430   9.301  15.158 -0.1381  0.0580  0.1235
 2578DOPE   C1B30247  26.808   9.002  16.141 -0.2627 -0.0733  0.0553
 2578DOPE   D2B30248  26.695   8.917  15.745 -0.1755  0.4483 -0.0853
 2578DOPE   C3B30249  26.836   9.020  15.365  0.0381  0.1769  0.0650
 2578DOPE   C4B30250  26.963   9.431  15.129 -0.2080  0.4387  0.0399
 2579DOPC   NC330251  28.026  10.796  16.426  0.0851  0.1612 -0.1267
 2579DOPC   PO430252  28.015  10.501  16.681 -0.0155 -0.2237  0.4534
 2579DOPC   GL130253  28.054  10.253  16.416  0.0208 -0.2700  0.1434
 2579DOPC   GL230254  28.267  10.030  16.380  0.2949  0.1406 -0.1872
 2579DOPC   C1A30255  27.968  10.064  15.976 -0.0957  0.0214  0.2439
 2579DOPC   D2A30256  27.793   9.816  15.617 -0.2313 -0.0035  0.0465
 2579DOPC   C3A30257  27.624   9.957  15.214  0.0977 -0.0653 -0.1301
 2579DOPC   C4A30258  27.762   9.775  14.800 -0.0743  0.0835 -0.0943
 2579DOPC   C1B30259  28.569  10.195  16.046 -0.5129  0.0536 -0.3250
 2579DOPC   D2B30260  28.690  10.466  15.639  0.3128 -0.0201 -0.3154
 2579DOPC   C3B30261  28.613  10.315  15.168  0.1011 -0.0887  0.0282
 2579DOPC   C4B30262  28.525   9.906  15.154 -0.3186  0.2375 -0.0916
 2580DOPE   NH330263  29.053   8.964  17.303 -0.2096 -0.2060  0.0973
 2580DOPE   PO430264  29.168   9.119  17.014  0.0298 -0.1230 -0.0137
 2580DOPE   GL130265  29.002   8.938  16.682  0.1839 -0.3461  0.2960
 2580DOPE   GL230266  28.714   9.041  16.643 -0.0844  0.0423 -0.1635
 2580DOPE   C1A30267  29.231   8.894  16.270 -0.3034 -0.1800 -0.0481
 2580DOPE   D2A30268  29.597   8.822  15.992  0.0447 -0.0400 -0.1656
 2580DOPE   C3A30269  29.949   8.578  16.187 -0.0317  0.1526 -0.2314
 2580DOPE   C4A30270  30.333   8.471  16.356 -0.1945  0.0573  0.3637
 2580DOPE   C1B30271  28.857   9.174  16.162  0.0779 -0.1040  0.2139
 2580DOPE   D2B30272  28.812   9.468  15.876  0.1149 -0.0872  0.1495
 2580DOPE   C3B30273  28.654   9.371  15.421  0.1323  0.2643  0.2327
 2580DOPE   C4B30274  28.791   9.088  15.108  0.1352  0.0735 -0.0024
 2581DOPC   NC330275  22.959   3.091  16.121  0.1620  0.0732  0.0702
 2581DOPC   PO430276  22.667   2.904  16.261 -0.1735  0.2087  0.1642
 2581DOPC   GL130277  22.462   2.867  16.016  0.1845  0.1229  0.2796
 2581DOPC   GL230278  22.498   3.110  15.843  0.2134  0.0488 -0.3133
 2581DOPC   C1A30279  22.354   2.459  15.878 -0.1813 -0.1739  0.1616
 2581DOPC   D2A30280  21.967   2.229  15.664  0.2466  0.0429  0.1326
 2581DOPC   C3A30281  21.914   2.325  15.172 -0.3191 -0.1935  0.1615
 2581DOPC   C4A30282  22.160   2.356  14.794  0.1141 -0.0812 -0.3000
 2581DOPC   C1B30283  22.674   3.402  15.535 -0.4619 -0.2050 -0.1569
 2581DOPC   D2B30284  22.723   3.836  15.431  0.1384 -0.2085  0.1298
 2581DOPC   C3B30285  22.631   3.925  14.945  0.4313  0.0652 -0.1343
 2581DOPC   C4B30286  22.709   4.103  14.562  0.0598  0.1940 -0.0061
 2582DOPE   NH330287  32.950   4.794  16.241  0.0855 -0.0394 -0.0682
 2582DOPE   PO430288  32.911   4.511  16.102 -0.2984 -0.3961 -0.1050
 2582DOPE   GL130289  32.617   4.508  15.802  0.2300 -0.0784 -0.1028
 2582DOPE   GL230290  32.812   4.359  15.614  0.0532  0.0325 -0.2650
 2582DOPE   C1A30291  32.404   4.667  15.443  0.0408  0.0130 -0.1067
 2582DOPE   D2A30292  32.230   4.434  15.071 -0.1238  0.0031  0.3803
 2582DOPE   C3A30293  32.426   4.730  14.806  0.1507  0.0532  0.1020
 2582DOPE   C4A30294  32.368   4.902  14.404  0.0183 -0.0698 -0.1020
 2582DOPE   C1B30295  32.800   4.520  15.208 -0.1657  0.4244 -0.5853
 2582DOPE   D2B30296  32.905   4.324  14.830  0.0546 -0.0716 -0.1157
 2582DOPE   C3B30297  33.061   4.475  14.365  0.0521  0.0092 -0.1744
 2582DOPE   C4B30298  33.153   4.835  14.097  0.0729  0.0006  0.1378
 2583DOPE   NH330299  32.243   8.359  16.446  0.0212  0.0222 -0.2534
 2583DOPE   PO430300  32.222   8.174  16.689  0.2356  0.1593  0.1343
 2583DOPE   GL130301  32.129   7.891  16.365  0.2105 -0.2682  0.1592
 2583DOPE   GL230302  31.995   7.662  16.551  0.0532  0.1290  0.0111
 2583DOPE   C1A30303  32.292   7.935  15.931 -0.0581 -0.0317  0.3468
 2583DOPE   D2A30304  32.386   7.653  15.594 -0.0695  0.1271  0.1284
 2583DOPE   C3A30305  32.053   7.356  15.619  0.1712 -0.3489  0.0655
 2583DOPE   C4A30306  31.674   7.188  15.857  0.1595 -0.1643  0.4532
 2583DOPE   C1B30307  31.880   7.559  16.092  0.3866 -0.0417 -0.2119
 2583DOPE   D2B30308  31.828   7.780  15.705  0.0744  0.1110  0.0311
 2583DOPE   C3B30309  31.970   7.643  15.261  0.1989 -0.0915  0.0944
 2583DOPE   C4B30310  32.121   7.765  14.827  0.0878  0.0533 -0.0759
 2584DOPC   NC330311  25.758  34.125  16.092 -0.0813  0.0626  0.1485
 2584DOPC   PO430312  25.495  34.296  16.326  0.2431  0.0720 -0.0620
 2584DOPC   GL130313  25.330  34.302  15.932 -0.2576  0.2179 -0.2002
 2584DOPC   GL230314  25.203  34.511  15.769 -0.1689 -0.0062  0.1364
 2584DOPC   C1A30315  25.594  34.357  15.554 -0.1510 -0.2031 -0.0084
 2584DOPC   D2A30316  25.899  34.601  15.335  0.0833  0.0548 -0.2883
 2584DOPC   C3A30317  25.889  35.072  15.157  0.2362 -0.2184  0.1239
 2584DOPC   C4A30318  25.577  35.330  15.057 -0.3149 -0.4158 -0.2163
 2584DOPC   C1B30319  24.940  34.301  15.463 -0.3810 -0.3839 -0.1353
 2584DOPC   D2B30320  24.743  34.594  15.163  0.0368  0.2082 -0.0007
 2584DOPC   C3B30321  24.954  34.717  14.740  0.1752  0.3928  0.1073
 2584DOPC   C4B30322  25.101  34.960  14.356  0.3158  0.0652 -0.0907
 2585DOPC   NC330323  34.201   3.958  16.137  0.0466  0.1669  0.1127
 2585DOPC   PO430324  33.776   3.973  16.134  0.1426 -0.0870 -0.3702
 2585DOPC   GL130325  33.824   4.073  15.736  0.2814 -0.1221  0.0574
 2585DOPC   GL230326  33.569   3.972  15.644 -0.0888  0.0605  0.0844
 2585DOPC   C1A30327  33.991   4.052  15.311  0.0707  0.0664 -0.4623
 2585DOPC   D2A30328  34.326   3.818  15.182 -0.3265 -0.0882 -0.3522
 2585DOPC   C3A30329  34.475   3.361  15.213 -0.1845  0.2437  0.0394
 2585DOPC   C4A30330  34.714   3.064  15.442 -0.2704  0.2681  0.0719
 2585DOPC   C1B30331  33.571   3.782  15.158  0.1809  0.1534  0.0586
 2585DOPC   D2B30332  33.579   3.620  14.733 -0.1919  0.1378  0.2819
 2585DOPC   C3B30333  33.241   3.512  14.430  0.2998 -0.0706  0.0938
 2585DOPC   C4B30334  33.291   3.668  13.981 -0.0346 -0.0389 -0.0639
 2586DOPE   NH330335  30.470   1.992  17.127 -0.2364  0.1354  0.0403
 2586DOPE   PO430336  30.795   1.917  17.174  0.0386 -0.0222  0.2686
 2586DOPE   GL130337  30.786   2.051  16.805 -0.0533  0.0223  0.2447
 2586DOPE   GL230338  30.917   1.936  16.597  0.2731 -0.2616  0.0306
 2586DOPE   C1A30339  30.401   2.065  16.535 -0.0633  0.0773  0.0574
 2586DOPE   D2A30340  30.343   2.382  16.232 -0.2409  0.0883 -0.0806
 2586DOPE   C3A30341  30.103   2.276  15.810 -0.1815 -0.1659  0.0145
 2586DOPE   C4A30342  30.113   2.503  15.400 -0.0530  0.2004  0.2070
 2586DOPE   C1B30343  30.842   2.388  16.482 -0.1373 -0.2013  0.1520
 2586DOPE   D2B30344  30.639   2.766  16.373  0.1407 -0.2933 -0.1957
 2586DOPE   C3B30345  30.545   3.067  15.997 -0.4104 -0.1678  0.1278
 2586DOPE   C4B30346  30.424   2.939  15.648 -0.0001 -0.2256  0.2124
 2587DOPE   NH330347  34.196   6.494  16.990 -0.2762  0.0276  0.1927
 2587DOPE   PO430348  33.958   6.419  16.804  0.0002 -0.1885  0.0598
 2587DOPE   GL130349  33.949   6.640  16.555 -0.2080  0.4134  0.1485
 2587DOPE   GL230350  34.063   6.921  16.703  0.1762 -0.0263  0.0991
 2587DOPE   C1A30351  33.932   6.750  16.107 -0.0261  0.0571  0.4279
 2587DOPE   D2A30352  33.794   6.728  15.630 -0.2391 -0.1353 -0.1018
 2587DOPE   C3A30353  34.055   6.640  15.277  0.0986  0.2779  0.3458
 2587DOPE   C4A30354  34.109   6.512  14.800  0.3176 -0.0050  0.0023
 2587DOPE   C1B30355  34.246   7.120  16.284 -0.2698 -0.0115  0.0137
 2587DOPE   D2B30356  34.496   7.432  16.090 -0.0280  0.1663 -0.0376
 2587DOPE   C3B30357  34.392   7.610  15.649 -0.2060 -0.1886  0.0119
 2587DOPE   C4B30358  34.226   7.584  15.237 -0.0197  0.1428 -0.1676
 2588DOPS   CNO30359  25.166   3.823  16.730  0.0179  0.0740 -0.2675
 2588DOPS   PO430360  25.162   4.213  16.588  0.1587 -0.0654  0.1288
 2588DOPS   GL130361  24.872   4.482  16.423 -0.1885  0.3100  0.1802
 2588DOPS   GL230362  24.947   4.371  16.172 -0.0513  0.3327 -0.1512
 2588DOPS   C1A30363  24.512   4.708  16.247  0.0476 -0.1265  0.0864
 2588DOPS   D2A30364  24.457   5.094  16.097 -0.1192 -0.3881 -0.2457
 2588DOPS   C3A30365  24.598   5.428  15.837 -0.0794  0.0697 -0.2040
 2588DOPS   C4A30366  24.987   5.759  15.911 -0.2112 -0.0031  0.1381
 2588DOPS   C1B30367  25.072   4.760  15.930 -0.1644  0.2211  0.1707
 2588DOPS   D2B30368  24.894   5.059  15.608  0.1356 -0.1183 -0.2482
 2588DOPS   C3B30369  24.873   5.045  15.170  0.1422  0.0503  0.1004
 2588DOPS   C4B30370  24.972   5.179  14.717  0.0044  0.1751  0.0536
 2589POSM   NC330371  27.614   9.876  16.418 -0.0595  0.0092  0.0107
 2589POSM   PO430372  27.719  10.103  16.722 -0.1371 -0.2387  0.0065
 2589POSM   AM130373  27.622  10.341  16.472 -0.2200  0.0149 -0.0433
 2589POSM   AM230374  27.691  10.462  16.242 -0.2323  0.1778  0.0465
 2589POSM   T1A30375  27.388  10.764  16.391  0.1337  0.1263 -0.0845
 2589POSM   C2A30376  27.154  11.140  16.128 -0.2762  0.1389 -0.0615
 2589POSM   C3A30377  26.845  11.375  15.897  0.3582 -0.3151 -0.0614
 2589POSM   C1B30378  27.701  10.717  16.010 -0.2862  0.0349  0.0727
 2589POSM   D2B30379  27.764  11.049  15.692 -0.1351 -0.2388 -0.3123
 2589POSM   C3B30380  28.013  10.877  15.302  0.1016 -0.0877 -0.3509
 2589POSM   C4B30381  28.029  10.881  14.852 -0.2131  0.0837 -0.1129
 2590DOPC   NC330382  23.203   5.536  16.326 -0.0644 -0.0075 -0.3038
 2590DOPC   PO430383  22.896   5.630  16.104 -0.2775 -0.0218  0.0020
 2590DOPC   GL130384  22.955   5.882  15.814  0.3246  0.0085  0.5035
 2590DOPC   GL230385  23.079   5.676  15.591  0.1595  0.0447  0.1017
 2590DOPC   C1A30386  22.745   5.984  15.457 -0.0633 -0.2796 -0.4171
 2590DOPC   D2A30387  23.009   6.201  15.088  0.1771 -0.0750 -0.2344
 2590DOPC   C3A30388  22.868   6.031  14.669 -0.0134 -0.1210  0.2205
 2590DOPC   C4A30389  22.566   5.782  14.446  0.3382 -0.2740 -0.3022
 2590DOPC   C1B30390  23.011   5.672  15.126  0.0210  0.0285 -0.1647
 2590DOPC   D2B30391  23.040   5.610  14.672  0.1192  0.0174  0.0572
 2590DOPC   C3B30392  23.355   5.298  14.520  0.1981 -0.2269  0.0667
 2590DOPC   C4B30393  23.718   5.186  14.369  0.0383  0.0752 -0.0082
 2591DOPC   NC330394  26.735   3.868  16.770 -0.1284 -0.0186 -0.0255
 2591DOPC   PO430395  26.479   3.957  16.469 -0.2897  0.3227 -0.2129
 2591DOPC   GL130396  26.485   3.944  16.058  0.1119 -0.1246  0.0127
 2591DOPC   GL230397  26.237   4.033  16.028  0.2255  0.0899  0.0758
 2591DOPC   C1A30398  26.602   4.150  15.640 -0.1011 -0.4416 -0.1323
 2591DOPC   D2A30399  26.849   4.159  15.244 -0.4545  0.1737 -0.0032
 2591DOPC   C3A30400  26.543   4.271  14.891 -0.0555  0.1097  0.0349
 2591DOPC   C4A30401  26.289   4.635  14.803  0.0273 -0.2093  0.2389
 2591DOPC   C1B30402  26.043   4.244  15.659 -0.0417  0.1700  0.0558
 2591DOPC   D2B30403  26.180   4.306  15.210  0.0763 -0.1833  0.1404
 2591DOPC   C3B30404  26.402   3.884  15.231  0.0862  0.1751 -0.0302
 2591DOPC   C4B30405  26.773   3.598  15.249 -0.0814 -0.4040  0.0782
 2592DOPS   CNO30406  25.452   1.548  16.597  0.2065  0.2292  0.1139
 2592DOPS   PO430407  25.741   1.360  16.472  0.1934  0.1679 -0.3806
 2592DOPS   GL130408  25.948   1.492  16.145 -0.0288  0.2889 -0.2033
 2592DOPS   GL230409  26.177   1.633  16.137  0.0161 -0.1349  0.0335
 2592DOPS   C1A30410  26.098   1.089  15.997  0.2491 -0.2688 -0.0076
 2592DOPS   D2A30411  25.921   0.729  15.832  0.2473  0.0720  0.0223
 2592DOPS   C3A30412  26.206   0.446  15.628  0.1878  0.1513  0.1517
 2592DOPS   C4A30413  26.400   0.141  15.347  0.1573  0.1290  0.0675
 2592DOPS   C1B30414  26.492   1.398  15.833 -0.3153 -0.1343 -0.1170
 2592DOPS   D2B30415  26.897   1.415  15.606  0.4258 -0.1709 -0.0469
 2592DOPS   C3B30416  26.941   0.993  15.414  0.0697  0.1815 -0.0144
 2592DOPS   C4B30417  26.983   0.533  15.312  0.0659 -0.0928 -0.0524
 2593DOPC   NC330418  32.921  11.102  17.468 -0.1792 -0.1547  0.2199
 2593DOPC   PO430419  32.796  11.479  17.373  0.1587 -0.3602 -0.4131
 2593DOPC   GL130420  32.935  11.335  17.029 -0.0167  0.0789  0.0395
 2593DOPC   GL230421  32.713  11.403  16.870  0.0913  0.0707 -0.0501
 2593DOPC   C1A30422  33.102  11.417  16.556 -0.0066  0.0406  0.2752
 2593DOPC   D2A30423  33.317  11.477  16.211 -0.3272  0.1131 -0.0650
 2593DOPC   C3A30424  33.684  11.609  16.084 -0.0397  0.0125  0.2776
 2593DOPC   C4A30425  33.963  11.473  15.702  0.0594  0.0748 -0.0975
 2593DOPC   C1B30426  32.582  11.367  16.483 -0.0323 -0.1957 -0.0935
 2593DOPC   D2B30427  32.529  11.468  16.013  0.2828  0.1235  0.4262
 2593DOPC   C3B30428  32.563  11.593  15.558 -0.0597  0.0428 -0.1150
 2593DOPC   C4B30429  32.710  11.920  15.279 -0.0849 -0.1254  0.1905
 2594POSM   NC330430  31.646   4.901  16.860  0.2595 -0.1034 -0.1221
 2594POSM   PO430431  31.930   5.177  16.894  0.0525 -0.4075 -0.1180
 2594POSM   AM130432  32.069   4.969  16.696 -0.0734 -0.0362  0.1225
 2594POSM   AM230433  32.214   5.029  16.474 -0.1343 -0.0578  0.0588
 2594POSM   T1A30434  31.936   4.642  16.342 -0.0276  0.1905  0.2164
 2594POSM   C2A30435  31.874   4.338  15.978 -0.2896  0.2443 -0.2527
 2594POSM   C3A30436  32.140   4.283  15.635  0.1796  0.1355  0.2457
 2594POSM   C1B30437  32.192   5.134  16.165 -0.2633  0.0633 -0.1026
 2594POSM   D2B30438  32.115   5.453  15.849 -0.1036  0.0394  0.2170
 2594POSM   C3B30439  31.733   5.449  15.562 -0.1948 -0.0865 -0.1152
 2594POSM   C4B30440  31.628   5.224  15.164  0.0104  0.2790 -0.2658
 2595DOPC   NC330441  28.731   1.247  16.873  0.0547  0.0764  0.2034
 2595DOPC   PO430442  29.114   1.172  16.999 -0.1031  0.2708  0.0160
 2595DOPC   GL130443  29.134   0.909  16.669  0.1702  0.4542 -0.0658
 2595DOPC   GL230444  29.328   0.990  16.501 -0.0335  0.2202 -0.1994
 2595DOPC   C1A30445  28.988   0.677  16.287  0.0487 -0.1178 -0.0067
 2595DOPC   D2A30446  28.863   0.577  15.837 -0.2151  0.1586 -0.2461
 2595DOPC   C3A30447  29.040   0.253  15.543 -0.0503  0.1942  0.1823
 2595DOPC   C4A30448  29.088  -0.026  15.230  0.0170  0.0608  0.0037
 2595DOPC   C1B30449  29.356   1.090  16.069 -0.1990  0.2321  0.0442
 2595DOPC   D2B30450  29.619   1.022  15.644 -0.1691 -0.1312 -0.2400
 2595DOPC   C3B30451  30.052   1.032  15.582  0.0782 -0.0816  0.0550
 2595DOPC   C4B30452  30.440   0.902  15.376 -0.0415  0.1833  0.0277
 2596DOPC   NC330453  32.074  34.374  16.888 -0.1660 -0.0289  0.1189
 2596DOPC   PO430454  32.190  34.750  16.936  0.2257  0.2490  0.2071
 2596DOPC   GL130455  31.997  34.973  16.577 -0.2397  0.0505  0.3257
 2596DOPC   GL230456  31.734  34.938  16.474  0.0747  0.0377 -0.1620
 2596DOPC   C1A30457  32.032  34.932  16.082  0.0035 -0.1767  0.3531
 2596DOPC   D2A30458  31.949  34.702  15.637  0.1104  0.3473 -0.0003
 2596DOPC   C3A30459  32.073  34.539  15.220 -0.0042  0.3402 -0.3043
 2596DOPC   C4A30460  31.876  34.660  14.855  0.0225 -0.0712  0.3252
 2596DOPC   C1B30461  31.561  34.633  16.235  0.3028 -0.0666  0.2882
 2596DOPC   D2B30462  31.470  34.600  15.775  0.0258 -0.3237 -0.2199
 2596DOPC   C3B30463  31.379  34.948  15.500  0.1143 -0.1585 -0.1899
 2596DOPC   C4B30464  31.331  35.406  15.445 -0.1028 -0.1691 -0.2493
 2597DOPE   NH330465  29.099  33.801  16.559 -0.4386  0.0418  0.1310
 2597DOPE   PO430466  29.214  33.586  16.782  0.0113  0.0497 -0.1355
 2597DOPE   GL130467  29.500  33.627  16.455 -0.3787  0.1279  0.1876
 2597DOPE   GL230468  29.746  33.491  16.508 -0.0171  0.0026  0.0562
 2597DOPE   C1A30469  29.519  33.426  16.057  0.1543 -0.2065  0.0480
 2597DOPE   D2A30470  29.669  33.104  15.754  0.1684  0.1597 -0.2739
 2597DOPE   C3A30471  29.872  32.983  15.372  0.1985 -0.0820 -0.1485
 2597DOPE   C4A30472  30.027  32.716  14.965 -0.0658 -0.1312  0.1899
 2597DOPE   C1B30473  29.913  33.837  16.239  0.2382 -0.0047 -0.0857
 2597DOPE   D2B30474  29.975  34.070  15.802 -0.1370  0.0263 -0.0998
 2597DOPE   C3B30475  29.843  34.531  15.818 -0.1474 -0.1792  0.0314
 2597DOPE   C4B30476  29.504  34.783  16.046 -0.0532  0.1492 -0.0657
 2598POSM   NC330477  33.847   1.410  16.816  0.2458  0.0027  0.1415
 2598POSM   PO430478  33.710   1.610  16.469 -0.0045 -0.1607 -0.0490
 2598POSM   AM130479  33.733   1.511  16.146  0.2824 -0.2750  0.2779
 2598POSM   AM230480  33.873   1.584  15.927  0.2937  0.1628  0.1769
 2598POSM   T1A30481  33.602   1.215  15.771 -0.0042  0.3178 -0.2995
 2598POSM   C2A30482  33.390   1.103  15.383 -0.1118  0.1286 -0.0180
 2598POSM   C3A30483  33.009   0.916  15.193 -0.1946 -0.0210 -0.1160
 2598POSM   C1B30484  33.698   1.662  15.662 -0.0021  0.1896 -0.2166
 2598POSM   D2B30485  33.425   1.579  15.262  0.0071 -0.0143  0.1496
 2598POSM   C3B30486  33.430   1.856  14.854  0.0736  0.3557 -0.1279
 2598POSM   C4B30487  33.579   1.860  14.407  0.0783 -0.0571  0.3776
 2599POSM   NC330488  23.535   7.224  16.678 -0.0234  0.1397 -0.0217
 2599POSM   PO430489  23.872   7.090  16.563 -0.3065 -0.2134  0.3015
 2599POSM   AM130490  24.164   7.174  16.369  0.1084 -0.2230 -0.2864
 2599POSM   AM230491  24.472   7.182  16.393  0.2525 -0.0523 -0.1830
 2599POSM   T1A30492  24.255   7.324  15.924  0.1735  0.2455  0.1432
 2599POSM   C2A30493  24.451   7.526  15.559 -0.1160 -0.1686  0.1770
 2599POSM   C3A30494  24.833   7.558  15.339 -0.0183 -0.1488  0.0635
 2599POSM   C1B30495  24.800   7.137  16.366  0.0137 -0.0606  0.0735
 2599POSM   D2B30496  25.194   7.255  16.143 -0.0092  0.0971 -0.2890
 2599POSM   C3B30497  25.371   6.999  15.861  0.2565  0.0295 -0.1503
 2599POSM   C4B30498  25.423   6.909  15.413  0.0807 -0.4556  0.2418
 2600DOPE   NH330499  24.325   2.122  16.145 -0.0712  0.2109 -0.1520
 2600DOPE   PO430500  24.536   1.906  16.073 -0.0604 -0.1229 -0.2729
 2600DOPE   GL130501  24.531   1.755  15.698 -0.3817 -0.1942  0.1327
 2600DOPE   GL230502  24.845   1.843  15.659 -0.1779  0.0953 -0.1214
 2600DOPE   C1A30503  24.400   1.730  15.254  0.1050 -0.0603 -0.2504
 2600DOPE   D2A30504  24.203   1.954  14.943 -0.0556  0.0641 -0.1695
 2600DOPE   C3A30505  24.430   1.651  14.573  0.1680  0.1579  0.1475
 2600DOPE   C4A30506  24.568   1.791  14.187 -0.2538 -0.0912 -0.3382
 2600DOPE   C1B30507  24.941   1.617  15.229 -0.3287 -0.2437 -0.1792
 2600DOPE   D2B30508  25.180   1.610  14.807 -0.0193  0.1585 -0.3832
 2600DOPE   C3B30509  25.030   1.635  14.361  0.1126  0.1786  0.1690
 2600DOPE   C4B30510  24.969   1.636  13.903  0.2173  0.0210 -0.0769
 2601POSM   NC330511  23.829   2.226  16.267 -0.2398 -0.1558 -0.2941
 2601POSM   PO430512  23.904   1.847  16.179  0.2200 -0.3675 -0.0052
 2601POSM   AM130513  24.020   1.830  15.886  0.0766  0.0567 -0.0967
 2601POSM   AM230514  24.156   1.960  15.698  0.0363 -0.2835 -0.2846
 2601POSM   T1A30515  24.049   1.492  15.523 -0.0387 -0.1824 -0.0470
 2601POSM   C2A30516  24.156   1.360  15.082 -0.0359  0.0226 -0.1372
 2601POSM   C3A30517  24.284   1.136  14.683  0.0562  0.3750  0.0526
 2601POSM   C1B30518  24.179   2.188  15.466 -0.0670 -0.0625  0.3144
 2601POSM   D2B30519  24.191   2.488  15.149  0.3052 -0.0630  0.0326
 2601POSM   C3B30520  24.073   2.916  14.945  0.2958  0.1196  0.1728
 2601POSM   C4B30521  24.167   3.304  14.671 -0.1363  0.0188 -0.0578
 2602DOPE   NH330522  26.954   9.967  16.830 -0.3476 -0.2033  0.0795
 2602DOPE   PO430523  27.125   9.981  16.598 -0.2653 -0.0449 -0.0055
 2602DOPE   GL130524  27.263  10.051  16.238 -0.4478  0.0917  0.0278
 2602DOPE   GL230525  27.223  10.331  16.242 -0.3204 -0.1861  0.0082
 2602DOPE   C1A30526  27.495  10.127  15.859  0.1162 -0.0268  0.0078
 2602DOPE   D2A30527  27.522  10.485  15.525 -0.2250  0.0401 -0.1621
 2602DOPE   C3A30528  27.832  10.429  15.199 -0.2207 -0.0769  0.0227
 2602DOPE   C4A30529  28.154  10.378  14.930  0.0493  0.1336 -0.3713
 2602DOPE   C1B30530  27.226  10.643  15.882  0.0578 -0.0767  0.0872
 2602DOPE   D2B30531  27.302  11.005  15.653  0.0413  0.1715 -0.0379
 2602DOPE   C3B30532  27.055  11.153  15.286  0.0883  0.1665  0.3033
 2602DOPE   C4B30533  26.770  11.502  15.142 -0.1482 -0.2483  0.0265
 2603POSM   NC330534  22.706   4.796  16.098 -0.1792 -0.1813 -0.0705
 2603POSM   PO430535  22.956   5.056  16.205 -0.4561  0.1329  0.1479
 2603POSM   AM130536  23.167   5.166  15.957  0.1487 -0.4403  0.0139
 2603POSM   AM230537  23.445   5.147  15.932  0.0104  0.1873  0.1224
 2603POSM   T1A30538  23.266   5.263  15.471 -0.1563 -0.1603  0.3369
 2603POSM   C2A30539  23.507   5.197  15.079  0.0479  0.0194  0.1687
 2603POSM   C3A30540  23.907   5.078  14.832 -0.1009 -0.3733  0.1923
 2603POSM   C1B30541  23.607   4.995  15.695 -0.1975  0.3168  0.0969
 2603POSM   D2B30542  23.928   4.845  15.335  0.0347 -0.1256  0.1598
 2603POSM   C3B30543  24.343   4.695  15.432 -0.0500 -0.2088  0.0623
 2603POSM   C4B30544  24.650   4.454  15.699 -0.1367  0.2520 -0.0955
 2604DOPS   CNO30545   0.448   1.901  16.448 -0.0153  0.1427 -0.1413
 2604DOPS   PO430546   0.697   1.774  16.174  0.0284  0.1000 -0.0739
 2604DOPS   GL130547   0.710   1.866  15.791 -0.0556 -0.0094 -0.0464
 2604DOPS   GL230548   0.467   1.834  15.688  0.1416 -0.1756  0.2394
 2604DOPS   C1A30549   0.665   2.298  15.530 -0.1502 -0.0364  0.0617
 2604DOPS   D2A30550   0.925   2.513  15.128  0.2197 -0.0619 -0.0187
 2604DOPS   C3A30551   1.085   2.129  14.901  0.1906  0.0215  0.0395
 2604DOPS   C4A30552   0.805   1.956  14.569  0.0064 -0.1887 -0.1906
 2604DOPS   C1B30553   0.525   1.912  15.219  0.0320 -0.1171  0.3957
 2604DOPS   D2B30554   0.355   1.810  14.819 -0.0617  0.1823  0.0152
 2604DOPS   C3B30555   0.392   1.382  14.687  0.1275 -0.0872  0.0080
 2604DOPS   C4B30556   0.336   0.960  14.634  0.0993  0.0160  0.0048
 2605DOPC   NC330557  28.212  10.128  16.922  0.0248  0.1091 -0.0650
 2605DOPC   PO430558  28.390   9.783  17.094 -0.1241 -0.2480  0.2393
 2605DOPC   GL130559  28.522   9.762  16.733  0.2168 -0.1873 -0.3082
 2605DOPC   GL230560  28.671   9.528  16.755  0.3573 -0.1140 -0.3670
 2605DOPC   C1A30561  28.835   9.783  16.355  0.1916  0.0429  0.0621
 2605DOPC   D2A30562  29.114   9.851  15.987  0.1030  0.1354  0.2810
 2605DOPC   C3A30563  29.158   9.618  15.540  0.0215 -0.2400  0.2561
 2605DOPC   C4A30564  29.056   9.537  15.085 -0.1385 -0.2083 -0.0756
 2605DOPC   C1B30565  28.482   9.488  16.339 -0.4473  0.2830 -0.1141
 2605DOPC   D2B30566  28.367   9.725  15.971  0.0364 -0.1580  0.0192
 2605DOPC   C3B30567  28.672   9.838  15.590 -0.0202 -0.1144 -0.1986
 2605DOPC   C4B30568  29.037  10.097  15.453  0.2987  0.0204  0.0890
 2606DOPS   CNO30569  23.531  11.098  16.371  0.3785 -0.1369 -0.0037
 2606DOPS   PO430570  23.832  10.901  16.520  0.0422  0.1958  0.2142
 2606DOPS   GL130571  23.847  10.797  16.061 -0.2865  0.0659  0.0566
 2606DOPS   GL230572  23.732  11.048  15.911 -0.0228  0.0192  0.3832
 2606DOPS   C1A30573  23.919  10.662  15.637  0.1221  0.4025 -0.1809
 2606DOPS   D2A30574  23.645  10.667  15.325 -0.1679 -0.1803 -0.2809
 2606DOPS   C3A30575  23.817  10.759  14.916  0.1638 -0.1305  0.0551
 2606DOPS   C4A30576  23.824  10.624  14.511 -0.3919 -0.2753 -0.2298
 2606DOPS   C1B30577  23.802  11.163  15.440 -0.1698 -0.1517 -0.0349
 2606DOPS   D2B30578  23.943  11.437  15.141  0.1106  0.4084  0.2178
 2606DOPS   C3B30579  24.131  11.292  14.768  0.3747 -0.1536 -0.3590
 2606DOPS   C4B30580  24.432  10.959  14.640  0.0947 -0.1541  0.0168
 2607DOPE   NH330581  32.565   9.346  16.586 -0.1312  0.3079  0.3480
 2607DOPE   PO430582  32.797   9.164  16.633 -0.0794  0.0948  0.0452
 2607DOPE   GL130583  32.633   9.069  16.247 -0.0802 -0.1722 -0.2175
 2607DOPE   GL230584  32.514   8.815  16.220  0.1402 -0.0096 -0.4096
 2607DOPE   C1A30585  32.827   9.025  15.886  0.1483 -0.0204  0.1871
 2607DOPE   D2A30586  33.079   9.006  15.481 -0.1174 -0.2543 -0.0186
 2607DOPE   C3A30587  33.450   9.278  15.514 -0.1301 -0.3137  0.0477
 2607DOPE   C4A30588  33.650   9.607  15.307  0.0434  0.6532  0.1217
 2607DOPE   C1B30589  32.289   8.621  15.849 -0.2320 -0.0861  0.3227
 2607DOPE   D2B30590  31.967   8.833  15.620  0.0213  0.3165  0.3373
 2607DOPE   C3B30591  31.831   8.531  15.316  0.0265  0.2029  0.2723
 2607DOPE   C4B30592  31.716   8.394  14.922  0.0996 -0.5091 -0.2780
 2608DOPC   NC330593  24.248   6.781  16.614 -0.1373  0.3035 -0.2573
 2608DOPC   PO430594  24.001   6.598  16.801 -0.0412  0.2823  0.1083
 2608DOPC   GL130595  23.994   6.521  16.356 -0.3728 -0.4388  0.0739
 2608DOPC   GL230596  23.896   6.755  16.201 -0.1681  0.1805 -0.0498
 2608DOPC   C1A30597  24.360   6.311  16.128 -0.0889  0.0152  0.0425
 2608DOPC   D2A30598  24.518   5.994  15.840 -0.0478 -0.0702 -0.0334
 2608DOPC   C3A30599  24.855   6.190  15.573  0.0218  0.2201  0.0714
 2608DOPC   C4A30600  25.033   6.327  15.179  0.1227 -0.1086  0.0650
 2608DOPC   C1B30601  24.322   6.853  16.077  0.0498  0.1935  0.0004
 2608DOPC   D2B30602  24.756   6.945  15.886 -0.0245  0.4343 -0.4158
 2608DOPC   C3B30603  24.978   6.638  15.629 -0.1375 -0.0060  0.1517
 2608DOPC   C4B30604  25.278   6.332  15.779  0.1875  0.1379 -0.0697
 2609DOPS   CNO30605  23.342   2.759  16.205  0.1707  0.1585 -0.4336
 2609DOPS   PO430606  23.454   3.089  16.096  0.0955 -0.1213 -0.0573
 2609DOPS   GL130607  23.207   3.039  15.713 -0.1705 -0.0124 -0.3250
 2609DOPS   GL230608  23.218   2.785  15.700  0.0180 -0.3061  0.1520
 2609DOPS   C1A30609  23.052   2.984  15.269  0.1269  0.3813 -0.0039
 2609DOPS   D2A30610  23.101   3.169  14.839  0.2194  0.1302  0.3049
 2609DOPS   C3A30611  23.348   3.540  14.921 -0.0635 -0.3287 -0.0069
 2609DOPS   C4A30612  23.208   3.934  14.902 -0.0490  0.0455  0.1486
 2609DOPS   C1B30613  22.778   2.702  15.681  0.1412  0.3687  0.0560
 2609DOPS   D2B30614  22.457   2.777  15.362  0.0829  0.2001  0.0811
 2609DOPS   C3B30615  22.630   2.551  14.981 -0.3323  0.0991 -0.2289
 2609DOPS   C4B30616  22.839   2.201  14.884 -0.1014  0.5560  0.0867
 2610DOPC   NC330617  26.303   1.752  16.660  0.0919 -0.2125 -0.4348
 2610DOPC   PO430618  26.364   2.111  16.573 -0.1114  0.0477  0.0020
 2610DOPC   GL130619  26.712   2.233  16.396  0.4128 -0.0721  0.1671
 2610DOPC   GL230620  26.682   2.544  16.452 -0.0950 -0.0127  0.2546
 2610DOPC   C1A30621  26.780   2.079  16.002 -0.0078 -0.1121  0.0067
 2610DOPC   D2A30622  26.405   1.906  15.753  0.1314  0.0483  0.1188
 2610DOPC   C3A30623  26.449   1.597  15.335  0.1817 -0.1158  0.1138
 2610DOPC   C4A30624  26.566   1.599  14.917  0.2057 -0.2068  0.0466
 2610DOPC   C1B30625  26.998   2.583  16.056 -0.0799 -0.1787 -0.0597
 2610DOPC   D2B30626  27.372   2.401  15.807  0.0209 -0.0266  0.1465
 2610DOPC   C3B30627  27.332   2.354  15.306 -0.0928 -0.0485 -0.2320
 2610DOPC   C4B30628  27.071   2.627  15.038  0.1221 -0.1796  0.2155
 2611DOPE   NH330629  32.422   8.533  16.987  0.0826 -0.1676 -0.1222
 2611DOPE   PO430630  32.514   8.672  16.701 -0.0680 -0.0152  0.2672
 2611DOPE   GL130631  32.866   8.727  16.366  0.1758  0.1229 -0.3338
 2611DOPE   GL230632  33.107   8.889  16.303  0.3861 -0.1136 -0.1508
 2611DOPE   C1A30633  32.966   8.517  15.961  0.0849 -0.1492 -0.0103
 2611DOPE   D2A30634  33.244   8.541  15.599  0.1203  0.0151  0.0910
 2611DOPE   C3A30635  33.039   8.548  15.178  0.0139  0.0354 -0.3713
 2611DOPE   C4A30636  32.709   8.601  14.841 -0.1538 -0.1118  0.3021
 2611DOPE   C1B30637  33.318   8.978  15.936  0.0079  0.0965 -0.0371
 2611DOPE   D2B30638  33.712   8.840  15.666 -0.1509  0.0681 -0.1046
 2611DOPE   C3B30639  33.495   8.779  15.241 -0.1848 -0.3745 -0.1952
 2611DOPE   C4B30640  33.492   8.783  14.775 -0.1088 -0.3008 -0.0836
 2612POSM   NC330641  30.214   8.788  17.097  0.0738 -0.2985  0.0742
 2612POSM   PO430642  29.866   8.986  17.081  0.3334 -0.0245 -0.3651
 2612POSM   AM130643  29.726   8.926  16.813  0.1655 -0.2388 -0.0624
 2612POSM   AM230644  29.563   9.042  16.591 -0.0089 -0.0364  0.2691
 2612POSM   T1A30645  29.575   8.553  16.492  0.1353  0.0928 -0.0041
 2612POSM   C2A30646  29.520   8.284  16.068  0.0193 -0.0173  0.1598
 2612POSM   C3A30647  29.564   8.093  15.600  0.2038 -0.0938 -0.0843
 2612POSM   C1B30648  29.799   9.164  16.333  0.0871 -0.2408  0.0003
 2612POSM   D2B30649  30.138   9.018  16.040 -0.0265 -0.2528 -0.1638
 2612POSM   C3B30650  29.966   8.934  15.600 -0.1924  0.0270 -0.2986
 2612POSM   C4B30651  29.718   8.853  15.122 -0.2246  0.0724  0.0444
 2613DOPE   NH330652  27.420   9.152  16.648  0.0692 -0.0955 -0.0280
 2613DOPE   PO430653  27.606   9.357  16.561  0.3277  0.1758 -0.0831
 2613DOPE   GL130654  27.895   9.208  16.335  0.2026  0.2494  0.3106
 2613DOPE   GL230655  27.963   9.506  16.156 -0.1009  0.0157  0.0719
 2613DOPE   C1A30656  27.951   8.963  15.955 -0.0190 -0.1670  0.2843
 2613DOPE   D2A30657  28.233   8.692  15.733 -0.2404  0.0819 -0.2411
 2613DOPE   C3A30658  28.195   8.529  15.249 -0.1669  0.0477 -0.0248
 2613DOPE   C4A30659  28.127   8.514  14.810 -0.0119  0.5778 -0.1597
 2613DOPE   C1B30660  27.663   9.313  15.813 -0.2210  0.2169 -0.1384
 2613DOPE   D2B30661  27.501   9.451  15.455 -0.0508  0.0968 -0.0648
 2613DOPE   C3B30662  27.512   9.355  15.017 -0.3011 -0.1327 -0.1857
 2613DOPE   C4B30663  27.588   9.275  14.558  0.1687 -0.0236  0.0646
 2614POSM   NC330664  30.936   9.290  16.627  0.1892 -0.1948  0.0159
 2614POSM   PO430665  31.278   9.235  16.415  0.0396 -0.0409  0.0133
 2614POSM   AM130666  31.040   9.158  16.171 -0.0715  0.0685 -0.2941
 2614POSM   AM230667  30.973   8.915  16.026  0.0259  0.0304 -0.0545
 2614POSM   T1A30668  30.612   9.243  15.927  0.3005 -0.1316  0.1733
 2614POSM   C2A30669  30.326   9.281  15.547 -0.1970  0.0051 -0.0609
 2614POSM   C3A30670  30.005   9.314  15.277  0.0468 -0.0656 -0.1517
 2614POSM   C1B30671  31.047   8.702  15.769 -0.3043 -0.4333 -0.0322
 2614POSM   D2B30672  31.272   8.599  15.324  0.1421  0.0462  0.0620
 2614POSM   C3B30673  31.222   8.347  14.960  0.1133  0.3934  0.2264
 2614POSM   C4B30674  30.944   8.055  14.729 -0.1180 -0.2778  0.2807
 2615DOPC   NC330675  30.892   5.076  16.864 -0.1082  0.1098  0.0479
 2615DOPC   PO430676  31.206   5.248  16.966 -0.3767  0.2513 -0.0101
 2615DOPC   GL130677  31.321   5.044  16.618 -0.4597  0.3251 -0.0380
 2615DOPC   GL230678  31.161   5.151  16.444 -0.0220 -0.2516  0.0859
 2615DOPC   C1A30679  31.655   5.042  16.255 -0.0922  0.0906 -0.2729
 2615DOPC   D2A30680  31.757   5.057  15.816  0.1449 -0.1965 -0.3380
 2615DOPC   C3A30681  32.137   5.111  15.517 -0.1143  0.0088  0.1130
 2615DOPC   C4A30682  32.424   5.455  15.453 -0.3050  0.0466 -0.0610
 2615DOPC   C1B30683  31.198   5.037  15.982 -0.0189  0.2172 -0.3152
 2615DOPC   D2B30684  31.242   4.871  15.561 -0.0980  0.0026  0.0521
 2615DOPC   C3B30685  31.003   4.631  15.241 -0.3620 -0.0355  0.0096
 2615DOPC   C4B30686  30.519   4.545  15.301 -0.0068  0.3293  0.0478
 2616DOPE   NH330687  29.594   9.379  17.009 -0.2843  0.0457  0.3577
 2616DOPE   PO430688  29.776   9.483  16.802  0.2440  0.1679  0.0081
 2616DOPE   GL130689  29.844   9.665  16.419  0.0598 -0.0708  0.3411
 2616DOPE   GL230690  29.849   9.931  16.518  0.0457 -0.1866 -0.0217
 2616DOPE   C1A30691  29.589   9.831  16.095 -0.0880 -0.0224  0.0804
 2616DOPE   D2A30692  29.573  10.004  15.702 -0.0114  0.0829 -0.0834
 2616DOPE   C3A30693  29.849  10.378  15.542 -0.0200 -0.1794  0.2954
 2616DOPE   C4A30694  30.058  10.533  15.191  0.2582 -0.1527  0.0450
 2616DOPE   C1B30695  29.923  10.402  16.419  0.0007  0.0838 -0.2387
 2616DOPE   D2B30696  29.938  10.865  16.429  0.0551 -0.0033  0.2682
 2616DOPE   C3B30697  30.061  11.136  16.107 -0.0438 -0.0847  0.0497
 2616DOPE   C4B30698  29.956  11.374  15.691  0.0708 -0.2982  0.0897
 2617POSM   NC330699  30.730   1.131  17.459  0.1552 -0.5001  0.2468
 2617POSM   PO430700  30.371   0.996  17.365  0.1094 -0.0736  0.1569
 2617POSM   AM130701  30.312   0.996  17.034  0.2046 -0.3380 -0.1088
 2617POSM   AM230702  30.190   1.216  16.869  0.1442 -0.0058 -0.0284
 2617POSM   T1A30703  30.398   0.736  16.595 -0.1508 -0.1028  0.3906
 2617POSM   C2A30704  30.362   0.470  16.290  0.3070  0.1286 -0.0807
 2617POSM   C3A30705  30.294   0.047  16.043 -0.1787 -0.2983  0.1179
 2617POSM   C1B30706  30.213   1.186  16.539 -0.0703 -0.2475  0.1241
 2617POSM   D2B30707  30.165   1.035  16.121  0.3342  0.0701  0.2275
 2617POSM   C3B30708  30.344   0.710  15.855  0.2498  0.2319 -0.0945
 2617POSM   C4B30709  30.524   0.328  15.621 -0.2474  0.1650  0.0082
 2618DOPE   NH330710  32.385  10.145  16.662  0.1995  0.3146 -0.1069
 2618DOPE   PO430711  32.435   9.871  16.775 -0.1904 -0.5957 -0.0728
 2618DOPE   GL130712  32.590   9.775  16.419  0.2344  0.3037  0.1240
 2618DOPE   GL230713  32.744   9.985  16.317 -0.2598 -0.1271  0.0815
 2618DOPE   C1A30714  32.523   9.502  16.061 -0.3046 -0.3910 -0.0921
 2618DOPE   D2A30715  32.280   9.565  15.711  0.2463  0.0272  0.1343
 2618DOPE   C3A30716  32.250   9.336  15.291 -0.0101 -0.3143  0.0476
 2618DOPE   C4A30717  32.116   8.891  15.101 -0.0036  0.0700  0.2217
 2618DOPE   C1B30718  32.569  10.061  15.918 -0.1921  0.0341 -0.0413
 2618DOPE   D2B30719  32.475   9.992  15.484 -0.0047  0.0042 -0.2573
 2618DOPE   C3B30720  32.790  10.229  15.216  0.2149  0.4184 -0.0817
 2618DOPE   C4B30721  32.779  10.683  15.157  0.1571  0.1801 -0.1667
 2619DOPE   NH330722  23.387   5.059  16.413 -0.1522  0.0842 -0.0399
 2619DOPE   PO430723  23.668   4.903  16.403  0.0092 -0.3725  0.1792
 2619DOPE   GL130724  23.601   4.620  16.025  0.1876 -0.1677 -0.2278
 2619DOPE   GL230725  23.702   4.343  16.127  0.1824 -0.2281  0.2354
 2619DOPE   C1A30726  23.663   4.474  15.625 -0.2552 -0.3015 -0.0711
 2619DOPE   D2A30727  23.927   4.378  15.238  0.1912  0.1130 -0.0766
 2619DOPE   C3A30728  23.743   4.615  14.931  0.1670 -0.1658  0.4605
 2619DOPE   C4A30729  23.671   4.709  14.460  0.1607  0.0233 -0.0014
 2619DOPE   C1B30730  23.446   4.044  15.873  0.3244 -0.2858  0.2533
 2619DOPE   D2B30731  23.121   3.726  15.726  0.2249 -0.1213  0.1488
 2619DOPE   C3B30732  23.160   3.492  15.357  0.1240 -0.0800  0.0307
 2619DOPE   C4B30733  23.506   3.143  15.213  0.0797 -0.0700 -0.0456
 2620DOPE   NH330734  31.089   7.118  16.905  0.1899 -0.3255 -0.0544
 2620DOPE   PO430735  30.833   6.978  16.830 -0.1138 -0.1411 -0.0605
 2620DOPE   GL130736  30.889   6.954  16.484 -0.4140 -0.1280 -0.0816
 2620DOPE   GL230737  31.048   6.657  16.546  0.0690 -0.1162 -0.4676
 2620DOPE   C1A30738  30.648   6.961  16.073  0.1359  0.1442  0.0667
 2620DOPE   D2A30739  30.607   7.163  15.608 -0.0657 -0.2059  0.1016
 2620DOPE   C3A30740  30.455   7.512  15.295  0.1926 -0.1037 -0.1311
 2620DOPE   C4A30741  30.708   7.909  15.150  0.3807 -0.1592  0.0652
 2620DOPE   C1B30742  31.210   6.562  16.126 -0.3030 -0.2269 -0.0295
 2620DOPE   D2B30743  31.401   6.717  15.731 -0.0777 -0.1894 -0.0677
 2620DOPE   C3B30744  31.522   6.424  15.428 -0.0867  0.3342  0.0350
 2620DOPE   C4B30745  32.018   6.356  15.457  0.2363 -0.1873 -0.0808
 2621DOPE   NH330746  24.474   1.012  16.034 -0.0925  0.0238  0.0993
 2621DOPE   PO430747  24.741   0.960  16.141  0.2411 -0.1579 -0.2049
 2621DOPE   GL130748  24.610   0.618  15.864  0.0768 -0.2967 -0.1748
 2621DOPE   GL230749  24.724   0.784  15.653  0.1999 -0.1892 -0.0024
 2621DOPE   C1A30750  24.544   0.264  15.562  0.0272 -0.1037  0.2367
 2621DOPE   D2A30751  24.290   0.235  15.122  0.2208  0.0556  0.1815
 2621DOPE   C3A30752  24.001  -0.078  15.001  0.2213 -0.1519  0.0333
 2621DOPE   C4A30753  23.888  -0.394  14.695  0.1733 -0.1127  0.2425
 2621DOPE   C1B30754  24.489   0.690  15.254  0.0816 -0.0900 -0.0379
 2621DOPE   D2B30755  24.620   0.756  14.807  0.2617 -0.5066  0.1095
 2621DOPE   C3B30756  24.488   0.382  14.610 -0.3466  0.0857  0.0240
 2621DOPE   C4B30757  24.510  -0.093  14.750  0.0617 -0.0052 -0.3314
 2622POSM   NC330758  33.333   2.338  16.110  0.2374  0.0803 -0.0997
 2622POSM   PO430759  33.051   2.588  16.153 -0.0184  0.1092 -0.3152
 2622POSM   AM130760  33.062   2.628  15.846  0.0851 -0.1007 -0.1928
 2622POSM   AM230761  32.905   2.613  15.634 -0.0429  0.2503  0.5046
 2622POSM   T1A30762  33.096   3.019  15.570 -0.2159 -0.2076 -0.2835
 2622POSM   C2A30763  32.813   3.115  15.155 -0.2066  0.2224 -0.2489
 2622POSM   C3A30764  32.365   3.141  14.937 -0.2464  0.2478  0.0685
 2622POSM   C1B30765  32.742   2.654  15.294  0.1419  0.0506 -0.0654
 2622POSM   D2B30766  32.466   2.635  14.884  0.3610 -0.0657  0.2056
 2622POSM   C3B30767  32.277   2.252  14.672  0.1282 -0.0188  0.0818
 2622POSM   C4B30768  32.006   1.951  14.411  0.1846 -0.2113 -0.0161
 2623DOPE   NH330769  31.752   8.236  16.970 -0.1551  0.1569 -0.0643
 2623DOPE   PO430770  31.574   8.092  17.202 -0.1650  0.1418 -0.2407
 2623DOPE   GL130771  31.484   7.817  16.861  0.2407 -0.0474 -0.0537
 2623DOPE   GL230772  31.493   7.933  16.594  0.1933 -0.1208  0.4663
 2623DOPE   C1A30773  31.482   7.407  16.611 -0.3038 -0.1636 -0.0894
 2623DOPE   D2A30774  31.309   7.136  16.255  0.2162 -0.2722 -0.0099
 2623DOPE   C3A30775  31.121   7.141  15.817  0.1540 -0.0058 -0.0817
 2623DOPE   C4A30776  31.155   7.042  15.371 -0.0231 -0.0943 -0.3993
 2623DOPE   C1B30777  31.665   7.964  16.182 -0.0946 -0.1614 -0.3864
 2623DOPE   D2B30778  31.926   8.304  15.980 -0.1409  0.1333 -0.0165
 2623DOPE   C3B30779  32.152   8.204  15.580  0.1186 -0.2287  0.0547
 2623DOPE   C4B30780  31.999   8.085  15.189  0.0578  0.1167 -0.0822
 2624DOPE   NH330781  31.469  10.124  16.623  0.1669  0.0215  0.0837
 2624DOPE   PO430782  31.492  10.418  16.753  0.3124 -0.1873  0.2829
 2624DOPE   GL130783  31.443  10.568  16.411  0.0828 -0.4370  0.2158
 2624DOPE   GL230784  31.591  10.772  16.406 -0.1396 -0.2603 -0.0284
 2624DOPE   C1A30785  31.534  10.683  15.956 -0.0225  0.1674  0.1584
 2624DOPE   D2A30786  31.771  10.438  15.589 -0.0593 -0.0533  0.0546
 2624DOPE   C3A30787  31.666  10.661  15.212  0.0311  0.0940  0.4574
 2624DOPE   C4A30788  31.383  10.705  14.898 -0.1011 -0.0141 -0.0911
 2624DOPE   C1B30789  32.043  10.887  16.339 -0.1120  0.0793  0.3918
 2624DOPE   D2B30790  32.441  10.977  16.131  0.1792 -0.0333 -0.0895
 2624DOPE   C3B30791  32.539  11.052  15.713 -0.2938 -0.0530 -0.1553
 2624DOPE   C4B30792  32.493  11.057  15.258  0.0460  0.0605  0.2634
 2625POSM   NC330793  31.591   4.034  17.075  0.2110  0.4277 -0.0593
 2625POSM   PO430794  31.500   4.395  17.153 -0.2843 -0.0972  0.0955
 2625POSM   AM130795  31.327   4.485  16.883 -0.3362 -0.2837 -0.2292
 2625POSM   AM230796  31.158   4.683  16.833  0.1932  0.1219 -0.0116
 2625POSM   T1A30797  31.370   4.621  16.407 -0.0137  0.0569  0.0749
 2625POSM   C2A30798  31.520   4.679  15.943  0.3136 -0.1420  0.0057
 2625POSM   C3A30799  31.410   4.442  15.533 -0.0213  0.0706 -0.2401
 2625POSM   C1B30800  30.885   4.687  16.598 -0.1034  0.0112  0.1350
 2625POSM   D2B30801  30.725   4.884  16.160  0.0415 -0.1957 -0.4545
 2625POSM   C3B30802  30.828   4.704  15.716  0.2361 -0.1547 -0.1163
 2625POSM   C4B30803  30.896   4.281  15.534 -0.0644 -0.3946 -0.2204
 2626DOPC   NC330804  25.670   8.522  16.530 -0.2107  0.1510  0.0829
 2626DOPC   PO430805  26.003   8.379  16.741 -0.0296 -0.0200  0.2078
 2626DOPC   GL130806  26.040   8.328  16.331  0.4238 -0.1099  0.3816
 2626DOPC   GL230807  26.283   8.387  16.317  0.1122 -0.0553  0.0315
 2626DOPC   C1A30808  25.960   8.006  16.014 -0.0112  0.1303 -0.0565
 2626DOPC   D2A30809  25.645   7.965  15.709  0.0017  0.0751 -0.0620
 2626DOPC   C3A30810  25.897   7.618  15.569  0.0893 -0.2203  0.0027
 2626DOPC   C4A30811  26.308   7.563  15.404 -0.1532 -0.1513 -0.2856
 2626DOPC   C1B30812  26.437   8.028  16.098  0.0425  0.3193 -0.0457
 2626DOPC   D2B30813  26.435   7.956  15.584  0.0162  0.0416 -0.2344
 2626DOPC   C3B30814  26.022   8.060  15.434  0.0437 -0.1011  0.0315
 2626DOPC   C4B30815  25.622   8.224  15.284  0.0607 -0.0079  0.2142
 2627DOPE   NH330816  25.754   2.266  16.137 -0.3357 -0.1467 -0.0653
 2627DOPE   PO430817  25.498   2.496  16.143  0.0302  0.1649  0.1757
 2627DOPE   GL130818  25.527   2.539  15.708  0.2526  0.2059 -0.0858
 2627DOPE   GL230819  25.621   2.258  15.628 -0.1154  0.1848  0.2009
 2627DOPE   C1A30820  25.272   2.635  15.339 -0.2709 -0.4938 -0.3433
 2627DOPE   D2A30821  25.116   2.673  14.907  0.4349  0.2230 -0.0144
 2627DOPE   C3A30822  25.350   2.944  14.627  0.2410 -0.1318 -0.3087
 2627DOPE   C4A30823  25.658   3.114  14.277  0.1316 -0.0006  0.2426
 2627DOPE   C1B30824  25.734   2.406  15.249 -0.1169  0.0104 -0.2743
 2627DOPE   D2B30825  25.597   2.556  14.843 -0.2511 -0.0645 -0.1908
 2627DOPE   C3B30826  25.904   2.649  14.451  0.0704  0.0709 -0.0217
 2627DOPE   C4B30827  26.094   2.568  14.034  0.2123  0.1153  0.3671
 2628DOPC   NC330828  34.558   5.200  15.949 -0.3482 -0.1461 -0.1958
 2628DOPC   PO430829  34.291   4.927  15.920  0.1857 -0.2685 -0.1594
 2628DOPC   GL130830  34.218   4.859  15.608  0.2812 -0.0293  0.4247
 2628DOPC   GL230831  34.494   4.991  15.442 -0.2897  0.1900  0.2012
 2628DOPC   C1A30832  33.981   5.196  15.369 -0.2901  0.1080  0.0787
 2628DOPC   D2A30833  33.714   5.270  15.043  0.2338  0.1445  0.2906
 2628DOPC   C3A30834  33.808   5.446  14.659  0.1912  0.0039 -0.2621
 2628DOPC   C4A30835  33.562   5.866  14.569  0.1409 -0.1004  0.1947
 2628DOPC   C1B30836  34.349   4.852  15.059 -0.3006  0.4408  0.2749
 2628DOPC   D2B30837  34.216   4.754  14.626  0.0076 -0.1020 -0.1127
 2628DOPC   C3B30838  33.946   4.366  14.599 -0.3863 -0.0007 -0.0901
 2628DOPC   C4B30839  34.007   3.945  14.747 -0.1862 -0.6183 -0.0962
 2629POSM   NC330840  24.404  34.437  16.286 -0.3300 -0.0502  0.2558
 2629POSM   PO430841  24.716  34.559  16.474  0.2128  0.0382  0.1577
 2629POSM   AM130842  24.802  34.661  16.182  0.1928  0.2636  0.1941
 2629POSM   AM230843  24.733  34.488  15.949  0.2243 -0.0947 -0.2217
 2629POSM   T1A30844  24.932  34.985  15.817 -0.0316  0.0996  0.2564
 2629POSM   C2A30845  24.977  35.095  15.350  0.0511 -0.2445  0.1804
 2629POSM   C3A30846  25.074  35.179  14.938 -0.0474 -0.0813  0.0176
 2629POSM   C1B30847  24.456  34.390  15.783 -0.2279  0.1482 -0.0188
 2629POSM   D2B30848  24.338  34.379  15.380 -0.0663 -0.0778 -0.2180
 2629POSM   C3B30849  24.391  34.147  14.915  0.1477 -0.1103 -0.0912
 2629POSM   C4B30850  24.544  33.867  14.581  0.2360 -0.1442 -0.4615
 2630DOPE   NH330851  31.157   3.249  17.314 -0.2293  0.1384 -0.1404
 2630DOPE   PO430852  31.411   3.126  17.205  0.4291 -0.0554 -0.2026
 2630DOPE   GL130853  31.376   3.085  16.841  0.0466  0.0490  0.0619
 2630DOPE   GL230854  31.563   3.171  16.656 -0.3545 -0.2086 -0.0892
 2630DOPE   C1A30855  31.213   2.793  16.529 -0.4949  0.0817  0.1344
 2630DOPE   D2A30856  31.098   2.641  16.104 -0.2288  0.1406  0.3178
 2630DOPE   C3A30857  30.929   2.812  15.745  0.2774 -0.0018  0.1796
 2630DOPE   C4A30858  30.947   2.867  15.302  0.0003  0.0172  0.3723
 2630DOPE   C1B30859  31.626   3.457  16.356  0.0925  0.0461  0.2130
 2630DOPE   D2B30860  31.690   3.607  15.906 -0.0788  0.1339 -0.1342
 2630DOPE   C3B30861  31.415   3.444  15.543  0.0377  0.1544 -0.1141
 2630DOPE   C4B30862  31.333   3.311  15.088 -0.0482 -0.0035 -0.0597
 2631DOPE   NH330863  33.309   4.151  16.067 -0.2138  0.3553 -0.2814
 2631DOPE   PO430864  33.075   4.014  15.917 -0.1297 -0.0821  0.2589
 2631DOPE   GL130865  32.963   3.892  15.609  0.2839 -0.3093  0.0465
 2631DOPE   GL230866  32.664   3.804  15.617 -0.1240  0.4592 -0.0293
 2631DOPE   C1A30867  33.086   4.031  15.177 -0.2603 -0.2825  0.1219
 2631DOPE   D2A30868  33.085   3.866  14.754 -0.0204  0.0435  0.0227
 2631DOPE   C3A30869  33.399   4.047  14.446  0.1235  0.0414  0.2561
 2631DOPE   C4A30870  33.780   4.159  14.139 -0.0610 -0.2591 -0.0521
 2631DOPE   C1B30871  32.536   4.076  15.334 -0.0633 -0.3603  0.0304
 2631DOPE   D2B30872  32.480   4.004  14.896  0.3123 -0.0830 -0.0568
 2631DOPE   C3B30873  32.352   4.311  14.555 -0.1720  0.1731  0.2742
 2631DOPE   C4B30874  32.020   4.413  14.218 -0.0790 -0.2833  0.2052
 2632POSM   NC330875  26.469   0.909  16.650 -0.3279  0.2385 -0.0688
 2632POSM   PO430876  26.697   0.692  16.873 -0.4746 -0.3233  0.3688
 2632POSM   AM130877  26.939   0.690  16.669  0.1382 -0.0100 -0.3047
 2632POSM   AM230878  27.225   0.694  16.645 -0.1110 -0.0065 -0.0781
 2632POSM   T1A30879  27.121   0.936  16.237 -0.2011  0.0214  0.1533
 2632POSM   C2A30880  27.214   1.069  15.823  0.1093  0.1082  0.2327
 2632POSM   C3A30881  27.529   0.943  15.443  0.2092  0.3236  0.4774
 2632POSM   C1B30882  27.245   0.463  16.435 -0.0493  0.4902 -0.0158
 2632POSM   D2B30883  26.984   0.143  16.219 -0.0148 -0.1686 -0.1385
 2632POSM   C3B30884  26.918   0.084  15.753 -0.1745 -0.3343 -0.1580
 2632POSM   C4B30885  26.865   0.039  15.313 -0.0092  0.0744 -0.2940
 2633DOPS   CNO30886  31.307   1.261  17.414 -0.0382 -0.1002  0.1554
 2633DOPS   PO430887  31.050   1.383  17.176 -0.0143  0.1060  0.1563
 2633DOPS   GL130888  31.037   1.529  16.803  0.1276  0.0473  0.3260
 2633DOPS   GL230889  31.166   1.258  16.598 -0.1091 -0.1537 -0.3412
 2633DOPS   C1A30890  31.366   1.659  16.484 -0.2409 -0.0585 -0.2979
 2633DOPS   D2A30891  31.391   1.598  16.013  0.2080  0.1335  0.1489
 2633DOPS   C3A30892  31.367   1.954  15.718 -0.3101  0.0339  0.0341
 2633DOPS   C4A30893  30.987   2.193  15.613  0.2612 -0.4008  0.0082
 2633DOPS   C1B30894  30.912   1.459  16.303  0.0102  0.0121 -0.0130
 2633DOPS   D2B30895  30.887   1.682  15.897  0.2271 -0.2981 -0.1063
 2633DOPS   C3B30896  30.796   1.756  15.503 -0.1935 -0.1998  0.4132
 2633DOPS   C4B30897  30.628   2.101  15.182 -0.2131  0.1213 -0.0148
 2634DOPC   NC330898  26.824  10.690  16.290 -0.0602  0.3305  0.0153
 2634DOPC   PO430899  26.486  10.862  16.249  0.1495 -0.1162  0.0811
 2634DOPC   GL130900  26.494  10.529  15.980 -0.5718 -0.4265  0.5592
 2634DOPC   GL230901  26.273  10.605  15.848 -0.1277  0.1569  0.1034
 2634DOPC   C1A30902  26.750  10.648  15.634 -0.2424 -0.2683 -0.1749
 2634DOPC   D2A30903  27.077  10.654  15.330  0.1711  0.0421  0.2340
 2634DOPC   C3A30904  26.896  10.334  15.033 -0.3985 -0.2677  0.0292
 2634DOPC   C4A30905  26.460  10.164  15.005 -0.1236 -0.1499  0.2083
 2634DOPC   C1B30906  26.355  10.610  15.389  0.0770  0.0995 -0.0196
 2634DOPC   D2B30907  26.095  10.561  15.059 -0.0567  0.0253 -0.2358
 2634DOPC   C3B30908  26.122  10.912  14.684 -0.0396 -0.1002  0.2188
 2634DOPC   C4B30909  26.527  11.031  14.438 -0.1175 -0.3467  0.1749
 2635POSM   NC330910  27.847   5.802  17.166 -0.2680  0.0272  0.2608
 2635POSM   PO430911  27.997   5.571  16.871  0.3225  0.1760  0.2618
 2635POSM   AM130912  27.971   5.578  16.549 -0.0744  0.6039 -0.1030
 2635POSM   AM230913  28.137   5.705  16.348  0.1805 -0.0871 -0.0021
 2635POSM   T1A30914  27.669   5.409  16.158 -0.2346 -0.2313  0.0171
 2635POSM   C2A30915  27.568   5.087  15.846  0.1217 -0.1507 -0.0999
 2635POSM   C3A30916  27.606   5.011  15.415 -0.0917  0.1701 -0.1499
 2635POSM   C1B30917  28.065   5.674  16.020  0.0694 -0.0996 -0.0108
 2635POSM   D2B30918  27.969   5.359  15.694 -0.1330  0.1372  0.0054
 2635POSM   C3B30919  28.013   5.457  15.197 -0.1765  0.1403 -0.0537
 2635POSM   C4B30920  27.754   5.763  14.974  0.0885 -0.0371 -0.0926
 2636DOPE   NH330921  30.121   1.954  17.499  0.1738  0.0326  0.0722
 2636DOPE   PO430922  30.082   1.710  17.317 -0.0035 -0.0541 -0.1286
 2636DOPE   GL130923  30.130   1.810  16.894  0.0816  0.2981  0.9286
 2636DOPE   GL230924  29.952   1.692  16.784 -0.1446  0.1476  0.4162
 2636DOPE   C1A30925  30.432   1.592  16.642  0.1088  0.1274 -0.1721
 2636DOPE   D2A30926  30.445   1.525  16.154  0.1520  0.2031 -0.1047
 2636DOPE   C3A30927  30.372   1.857  15.777 -0.1039  0.1169  0.0338
 2636DOPE   C4A30928  30.147   1.955  15.387  0.1919 -0.2554  0.0464
 2636DOPE   C1B30929  29.571   1.951  16.735  0.1641 -0.0879  0.0101
 2636DOPE   D2B30930  29.115   1.979  16.831 -0.0081  0.1582  0.2114
 2636DOPE   C3B30931  28.732   1.968  16.541 -0.0194 -0.3474 -0.0701
 2636DOPE   C4B30932  28.443   1.714  16.269 -0.0220 -0.0918 -0.1432
 2637DOPS   CNO30933  28.734   0.759  16.876  0.0200 -0.1045  0.3964
 2637DOPS   PO430934  28.667   0.402  17.005 -0.3740  0.0287  0.3485
 2637DOPS   GL130935  28.648   0.398  16.616 -0.1072 -0.0689 -0.0032
 2637DOPS   GL230936  28.408   0.394  16.562  0.2045 -0.1374  0.0478
 2637DOPS   C1A30937  28.744   0.171  16.250  0.0372 -0.1336  0.2692
 2637DOPS   D2A30938  28.837  -0.061  15.863  0.0264 -0.0077  0.1883
 2637DOPS   C3A30939  28.620   0.041  15.448  0.3869  0.0667  0.0278
 2637DOPS   C4A30940  28.577  -0.089  15.005  0.1502 -0.1395 -0.0482
 2637DOPS   C1B30941  28.480   0.618  16.187 -0.1272 -0.2150 -0.0819
 2637DOPS   D2B30942  28.517   0.977  15.852  0.2498  0.1478  0.1229
 2637DOPS   C3B30943  28.938   1.113  15.707  0.1300 -0.2264  0.1446
 2637DOPS   C4B30944  29.193   1.424  15.676  0.1894  0.0472  0.0032
 2638DOPS   CNO30945  28.924   9.714  17.233 -0.0417  0.2847 -0.2788
 2638DOPS   PO430946  29.253   9.755  17.000  0.2389 -0.0764 -0.0546
 2638DOPS   GL130947  29.302   9.773  16.604  0.3870  0.1563 -0.2898
 2638DOPS   GL230948  29.281   9.510  16.579 -0.0279  0.1965  0.2193
 2638DOPS   C1A30949  29.191  10.145  16.353  0.0963 -0.0559 -0.0630
 2638DOPS   D2A30950  29.130  10.315  15.916  0.1004  0.2556 -0.2238
 2638DOPS   C3A30951  29.410  10.564  15.647  0.3443 -0.1250 -0.2724
 2638DOPS   C4A30952  29.551  10.722  15.263 -0.2381  0.3819 -0.3801
 2638DOPS   C1B30953  29.364   9.405  16.075  0.2807  0.0414 -0.0400
 2638DOPS   D2B30954  29.192   9.068  15.829 -0.0787  0.3731  0.1742
 2638DOPS   C3B30955  29.240   9.178  15.417  0.1523  0.1756  0.0798
 2638DOPS   C4B30956  29.490   9.356  15.071  0.2208 -0.0982  0.2382
 2639DOPE   NH330957  33.811   0.604  16.964  0.1064  0.0744  0.5296
 2639DOPE   PO430958  34.063   0.505  16.809  0.1615  0.0046 -0.1341
 2639DOPE   GL130959  34.079   0.313  16.377  0.1532 -0.1763  0.4929
 2639DOPE   GL230960  33.933   0.080  16.382  0.0137  0.0958  0.0944
 2639DOPE   C1A30961  34.174   0.540  15.895 -0.0553 -0.0406 -0.0758
 2639DOPE   D2A30962  34.473   0.823  15.641  0.3036  0.2602  0.0703
 2639DOPE   C3A30963  34.379   1.096  15.268  0.1383  0.0287 -0.1185
 2639DOPE   C4A30964  34.089   1.270  14.941  0.1699  0.0673 -0.0811
 2639DOPE   C1B30965  33.979  -0.353  16.207 -0.1295 -0.2936 -0.1060
 2639DOPE   D2B30966  33.934  -0.748  15.963  0.0674 -0.0945 -0.0276
 2639DOPE   C3B30967  33.908  -0.646  15.509  0.0658  0.0033 -0.2546
 2639DOPE   C4B30968  34.261  -0.461  15.246 -0.0535  0.2900  0.1099
 2640DOPC   NC330969  30.393   2.943  17.082 -0.0263 -0.0028 -0.1133
 2640DOPC   PO430970  30.293   2.579  17.236 -0.0950 -0.3173 -0.1242
 2640DOPC   GL130971  30.169   2.285  16.942 -0.0039  0.4113  0.0426
 2640DOPC   GL230972  29.872   2.346  17.008  0.2443 -0.1333 -0.1688
 2640DOPC   C1A30973  29.958   2.305  16.502  0.1817 -0.0882  0.1738
 2640DOPC   D2A30974  30.015   1.984  16.205 -0.1931 -0.0580 -0.0587
 2640DOPC   C3A30975  29.635   1.745  16.282 -0.0611  0.0672  0.1357
 2640DOPC   C4A30976  29.231   1.815  16.297  0.1932 -0.0574 -0.3052
 2640DOPC   C1B30977  29.435   2.434  16.853  0.1400  0.1950  0.2782
 2640DOPC   D2B30978  29.207   2.279  16.483 -0.2199  0.2628 -0.2296
 2640DOPC   C3B30979  29.036   2.601  16.211 -0.1277 -0.0062  0.0018
 2640DOPC   C4B30980  29.168   3.003  16.130 -0.4449 -0.2296 -0.2204
 2641DOPS   CNO30981  34.647   6.292  16.937 -0.0233 -0.0227  0.4351
 2641DOPS   PO430982  34.461   6.133  16.619 -0.1045  0.2126 -0.1558
 2641DOPS   GL130983  34.430   6.052  16.206 -0.3689 -0.0600 -0.4274
 2641DOPS   GL230984  34.409   6.383  16.151  0.0098 -0.1148  0.4438
 2641DOPS   C1A30985  34.219   5.915  15.823 -0.0010 -0.4605  0.2509
 2641DOPS   D2A30986  33.813   5.662  15.538  0.3602 -0.0986 -0.1087
 2641DOPS   C3A30987  33.652   5.771  15.066 -0.1006  0.1235 -0.4518
 2641DOPS   C4A30988  34.005   5.919  14.787 -0.0040  0.0162 -0.0175
 2641DOPS   C1B30989  33.975   6.317  15.983  0.0086  0.3541  0.1504
 2641DOPS   D2B30990  33.597   6.257  15.639  0.1291 -0.2887 -0.4058
 2641DOPS   C3B30991  33.393   6.594  15.347 -0.0424 -0.0183 -0.0070
 2641DOPS   C4B30992  33.290   6.744  14.901 -0.0400  0.1364 -0.0118
 2642DOPE   NH330993  26.356  10.405  16.431 -0.2219  0.0059  0.1694
 2642DOPE   PO430994  26.608  10.249  16.551 -0.2119  0.1524 -0.1535
 2642DOPE   GL130995  26.815  10.051  16.205  0.4123  0.3660  0.2796
 2642DOPE   GL230996  26.723   9.774  16.325 -0.1026 -0.0402  0.0946
 2642DOPE   C1A30997  26.910  10.269  15.834  0.1421 -0.0788  0.0743
 2642DOPE   D2A30998  27.173  10.170  15.472 -0.0802 -0.0096 -0.1861
 2642DOPE   C3A30999  27.104   9.915  15.083 -0.3338 -0.0671  0.0319
 2642DOPE   C4A31000  26.703   9.719  14.861 -0.3816  0.0142  0.3058
 2642DOPE   C1B31001  26.632   9.431  16.019  0.0424  0.0076  0.2142
 2642DOPE   D2B31002  26.255   9.135  15.836  0.1520 -0.2762 -0.0520
 2642DOPE   C3B31003  26.215   8.877  15.381 -0.1657  0.2375 -0.1304
 2642DOPE   C4B31004  26.147   8.455  15.196  0.0056 -0.3613 -0.3953
 2643DOPE   NH331005  30.563   7.434  16.920 -0.1053 -0.3666  0.0085
 2643DOPE   PO431006  30.853   7.599  16.998 -0.0535  0.3316  0.1001
 2643DOPE   GL131007  30.996   7.516  16.641 -0.0697 -0.2919 -0.0804
 2643DOPE   GL231008  30.805   7.414  16.466 -0.2582 -0.2381 -0.0125
 2643DOPE   C1A31009  31.151   7.764  16.277  0.2069  0.2048  0.5055
 2643DOPE   D2A31010  31.403   7.617  15.926 -0.2392 -0.0491  0.0526
 2643DOPE   C3A31011  31.449   7.492  15.490  0.1174  0.0179  0.0765
 2643DOPE   C4A31012  31.448   7.374  15.065  0.1636 -0.2672 -0.0375
 2643DOPE   C1B31013  30.716   7.479  16.049  0.1338 -0.0908 -0.2769
 2643DOPE   D2B31014  30.944   7.602  15.621 -0.0544 -0.0060 -0.0707
 2643DOPE   C3B31015  30.963   7.528  15.189 -0.3670 -0.2930  0.2699
 2643DOPE   C4B31016  30.964   7.574  14.750  0.1234 -0.2795  0.2464
 2644DOPE   NH331017  29.098   5.110  17.212 -0.0743 -0.0706 -0.2862
 2644DOPE   PO431018  28.921   4.930  17.069  0.2934  0.0022  0.0422
 2644DOPE   GL131019  29.164   4.822  16.746 -0.2260 -0.2341 -0.1509
 2644DOPE   GL231020  29.085   4.854  16.469 -0.1668 -0.2601 -0.1790
 2644DOPE   C1A31021  29.571   4.769  16.613 -0.0209  0.1127  0.0258
 2644DOPE   D2A31022  29.907   4.798  16.292 -0.1413  0.0104 -0.1526
 2644DOPE   C3A31023  29.750   4.690  15.902 -0.1344 -0.0151 -0.2325
 2644DOPE   C4A31024  29.611   4.736  15.482  0.3556 -0.0134  0.1006
 2644DOPE   C1B31025  29.235   5.155  16.140 -0.2305 -0.2443  0.1234
 2644DOPE   D2B31026  29.509   5.392  15.859 -0.0896 -0.0578 -0.3427
 2644DOPE   C3B31027  29.922   5.229  15.761 -0.0382  0.3254  0.3279
 2644DOPE   C4B31028  30.276   5.229  15.481  0.2086  0.0379  0.4111
 2645DOPC   NC331029  33.520  10.693  17.224 -0.2335 -0.0549 -0.0360
 2645DOPC   PO431030  33.286  10.525  16.949  0.0632  0.1997 -0.1648
 2645DOPC   GL131031  33.176  10.315  16.676 -0.1343 -0.1373 -0.1669
 2645DOPC   GL231032  32.972  10.482  16.488  0.0444 -0.2321 -0.1935
 2645DOPC   C1A31033  33.427  10.485  16.325 -0.2674  0.1043 -0.0053
 2645DOPC   D2A31034  33.855  10.650  16.196 -0.1425  0.2023  0.3143
 2645DOPC   C3A31035  34.225  10.476  16.048  0.2061  0.3484  0.0990
 2645DOPC   C4A31036  34.515  10.460  15.683  0.1169  0.1445 -0.2836
 2645DOPC   C1B31037  32.974  10.560  16.032 -0.1297 -0.0086  0.1407
 2645DOPC   D2B31038  32.998  10.267  15.680 -0.0891 -0.2310  0.1922
 2645DOPC   C3B31039  33.103   9.832  15.518 -0.0371  0.1768  0.1977
 2645DOPC   C4B31040  33.162   9.623  15.142  0.2433 -0.1839 -0.0464
 2646POSM   NC331041  25.007   7.331  17.216 -0.2425 -0.0882 -0.1030
 2646POSM   PO431042  25.039   7.462  16.848  0.1179 -0.1739  0.0718
 2646POSM   AM131043  25.099   7.168  16.713  0.2020 -0.0285  0.1242
 2646POSM   AM231044  25.077   6.946  16.814 -0.3746 -0.1305  0.2753
 2646POSM   T1A31045  25.425   6.947  16.421 -0.1986 -0.1109 -0.0497
 2646POSM   C2A31046  25.486   6.527  16.177  0.0794  0.1644 -0.2145
 2646POSM   C3A31047  25.668   6.114  16.043  0.0306 -0.3913 -0.0204
 2646POSM   C1B31048  24.890   6.715  16.645  0.2740 -0.1980 -0.0476
 2646POSM   D2B31049  24.882   6.446  16.239  0.3522  0.1966  0.2122
 2646POSM   C3B31050  24.743   5.995  16.301  0.0069 -0.0839 -0.0230
 2646POSM   C4B31051  24.648   5.555  16.360  0.3147 -0.0748 -0.2683
 2647POSM   NC331052  22.039   9.756  15.687  0.1968  0.0327 -0.3682
 2647POSM   PO431053  22.042  10.025  15.993  0.4765  0.0629 -0.1905
 2647POSM   AM131054  22.201  10.181  15.748  0.3178  0.2164  0.0082
 2647POSM   AM231055  22.434  10.099  15.651  0.0196 -0.1502  0.0149
 2647POSM   T1A31056  22.347  10.576  15.482  0.0942  0.0135 -0.0719
 2647POSM   C2A31057  22.822  10.625  15.329  0.2111 -0.3126 -0.3062
 2647POSM   C3A31058  23.062  10.861  15.002 -0.0303  0.2456  0.0672
 2647POSM   C1B31059  22.570  10.143  15.391 -0.1360  0.1520  0.0046
 2647POSM   D2B31060  22.853  10.183  15.001  0.1268  0.1371 -0.0241
 2647POSM   C3B31061  22.857  10.020  14.616 -0.2546 -0.2880 -0.1333
 2647POSM   C4B31062  22.793   9.996  14.157  0.1630  0.3167  0.0825
 2648DOPC   NC331063  27.592   3.509  16.374 -0.2080  0.0683  0.0969
 2648DOPC   PO431064  27.741   3.803  16.551 -0.2760 -0.1803 -0.0684
 2648DOPC   GL131065  28.121   3.733  16.345  0.0168 -0.0093  0.1306
 2648DOPC   GL231066  27.970   3.620  16.117 -0.0838  0.0197 -0.2460
 2648DOPC   C1A31067  28.503   3.688  16.098 -0.0797 -0.3448  0.1451
 2648DOPC   D2A31068  28.880   3.506  15.910 -0.1963  0.1633 -0.3916
 2648DOPC   C3A31069  29.150   3.476  15.519 -0.3266 -0.0856 -0.3181
 2648DOPC   C4A31070  29.482   3.291  15.288  0.1674  0.1792 -0.1664
 2648DOPC   C1B31071  28.190   3.458  15.737 -0.1642 -0.1397  0.1925
 2648DOPC   D2B31072  28.610   3.444  15.430  0.0224  0.1978  0.1319
 2648DOPC   C3B31073  28.685   3.875  15.601 -0.2679 -0.1853  0.2147
 2648DOPC   C4B31074  28.781   4.154  15.946 -0.1132  0.1452 -0.1358
 2649DOPC   NC331075  30.133   4.924  17.463 -0.0121  0.2437 -0.0096
 2649DOPC   PO431076  30.336   5.232  17.292  0.1036 -0.0857 -0.1399
 2649DOPC   GL131077  30.364   5.233  16.856  0.1094  0.0343 -0.1314
 2649DOPC   GL231078  30.044   5.283  16.713 -0.1641 -0.1356  0.2085
 2649DOPC   C1A31079  30.649   5.369  16.482 -0.2640  0.2754  0.2734
 2649DOPC   D2A31080  30.866   5.374  16.069  0.0516  0.1891 -0.0332
 2649DOPC   C3A31081  30.676   5.185  15.727  0.0364  0.1088 -0.1536
 2649DOPC   C4A31082  30.708   5.129  15.255  0.1601 -0.0464  0.0925
 2649DOPC   C1B31083  29.754   5.297  16.359  0.0702  0.1341 -0.3914
 2649DOPC   D2B31084  29.409   5.618  16.264  0.4335 -0.2048  0.1411
 2649DOPC   C3B31085  29.496   5.966  15.937  0.4539 -0.0843 -0.1614
 2649DOPC   C4B31086  29.435   6.339  15.648  0.0691 -0.1428  0.0812
 2650DOPS   CNO31087  23.327   8.130  16.521 -0.0710 -0.1464  0.2250
 2650DOPS   PO431088  23.592   8.394  16.401 -0.2453 -0.0039 -0.4194
 2650DOPS   GL131089  23.759   8.466  16.130  0.2134 -0.1582  0.0886
 2650DOPS   GL231090  23.560   8.358  15.843  0.0273  0.0025 -0.0475
 2650DOPS   C1A31091  23.945   8.713  15.796 -0.4062  0.0134  0.0033
 2650DOPS   D2A31092  24.070   8.932  15.459  0.2079 -0.0911 -0.4498
 2650DOPS   C3A31093  23.916   8.705  15.096 -0.0498 -0.0881  0.0764
 2650DOPS   C4A31094  23.686   8.408  14.775 -0.1276  0.0091  0.0404
 2650DOPS   C1B31095  23.849   8.336  15.487 -0.2135  0.1529 -0.0775
 2650DOPS   D2B31096  24.314   8.454  15.525 -0.2291  0.1704 -0.0955
 2650DOPS   C3B31097  24.608   8.398  15.167  0.0930  0.3356  0.0733
 2650DOPS   C4B31098  24.995   8.093  15.058  0.3557  0.2234  0.1063
 2651DOPE   NH331099  31.556   1.369  16.970 -0.1307  0.1169  0.1559
 2651DOPE   PO431100  31.675   1.148  16.764  0.1458  0.1654  0.3462
 2651DOPE   GL131101  31.571   0.990  16.389  0.2768  0.2005  0.5168
 2651DOPE   GL231102  31.414   0.716  16.393 -0.0283 -0.2752  0.3694
 2651DOPE   C1A31103  31.216   1.000  16.064  0.1996  0.0555 -0.2389
 2651DOPE   D2A31104  31.124   1.218  15.714 -0.1307 -0.2548 -0.0215
 2651DOPE   C3A31105  30.822   1.248  15.316 -0.1250 -0.1931  0.2857
 2651DOPE   C4A31106  30.569   1.540  15.031 -0.1293  0.2850  0.3043
 2651DOPE   C1B31107  30.996   0.770  16.518  0.1367  0.4145  0.2950
 2651DOPE   D2B31108  30.684   1.022  16.302 -0.0939  0.2746 -0.0714
 2651DOPE   C3B31109  30.602   1.145  15.867  0.0114  0.2843 -0.0720
 2651DOPE   C4B31110  30.357   1.396  15.546 -0.0269 -0.1854  0.2713
 2652DOPS   CNO31111  32.747   4.444  16.588  0.0828  0.2325  0.0369
 2652DOPS   PO431112  32.641   4.840  16.620  0.0928 -0.1834 -0.2558
 2652DOPS   GL131113  32.497   4.763  16.176  0.1324 -0.1647  0.2452
 2652DOPS   GL231114  32.398   4.573  16.210 -0.2289 -0.0081 -0.0278
 2652DOPS   C1A31115  32.652   5.125  15.865 -0.1630 -0.0899  0.1489
 2652DOPS   D2A31116  32.904   5.429  15.594  0.0445 -0.3121  0.0730
 2652DOPS   C3A31117  32.787   5.862  15.420 -0.2117 -0.1168  0.3388
 2652DOPS   C4A31118  32.513   6.268  15.370 -0.0752  0.1089 -0.0786
 2652DOPS   C1B31119  32.160   4.755  15.875 -0.1130  0.1374 -0.1676
 2652DOPS   D2B31120  31.850   4.680  15.476  0.0424 -0.0565 -0.2132
 2652DOPS   C3B31121  31.947   4.866  15.085 -0.1775  0.1414 -0.0165
 2652DOPS   C4B31122  32.176   5.245  15.029 -0.1783 -0.0002  0.1860
 2653DOPE   NH331123  33.331   0.868  13.169  0.1755 -0.0044  0.0713
 2653DOPE   PO431124  33.253   0.981  12.871  0.1232  0.0601  0.2442
 2653DOPE   GL131125  33.493   1.313  12.948 -0.0964 -0.2016  0.4509
 2653DOPE   GL231126  33.780   1.380  12.827 -0.0292 -0.2339  0.1329
 2653DOPE   C1A31127  33.773   1.574  13.244  0.3474 -0.3876 -0.0690
 2653DOPE   D2A31128  33.994   1.549  13.601 -0.1817 -0.0384  0.1879
 2653DOPE   C3A31129  33.947   1.445  14.010 -0.0202  0.1816  0.1772
 2653DOPE   C4A31130  34.219   1.321  14.379 -0.4273 -0.0461  0.1219
 2653DOPE   C1B31131  34.080   1.688  12.695  0.1096 -0.1498  0.1554
 2653DOPE   D2B31132  34.507   1.772  12.744  0.0291 -0.0764  0.1844
 2653DOPE   C3B31133  34.589   1.306  12.774 -0.1601 -0.2033  0.2678
 2653DOPE   C4B31134  34.561   0.855  12.530 -0.1724  0.1982 -0.0759
 2654DOPS   CNO31135  25.465   3.566  12.931 -0.1532  0.1877  0.1902
 2654DOPS   PO431136  25.182   3.553  13.170  0.0031 -0.1688 -0.0847
 2654DOPS   GL131137  25.181   3.684  13.515  0.1314 -0.3548  0.0465
 2654DOPS   GL231138  25.010   3.874  13.589  0.1386  0.0257  0.1281
 2654DOPS   C1A31139  25.498   3.490  13.833 -0.0360 -0.0736  0.1529
 2654DOPS   D2A31140  25.933   3.348  13.919  0.1498  0.1746  0.0415
 2654DOPS   C3A31141  26.240   3.025  13.716  0.2975  0.1845  0.0330
 2654DOPS   C4A31142  26.732   3.053  13.674 -0.1727 -0.1749  0.1527
 2654DOPS   C1B31143  25.004   3.600  13.899  0.0412  0.1892 -0.1038
 2654DOPS   D2B31144  25.048   3.254  14.247 -0.1795  0.3612 -0.0943
 2654DOPS   C3B31145  24.663   3.096  14.519  0.2256 -0.1601  0.1714
 2654DOPS   C4B31146  24.293   2.765  14.500 -0.0724  0.1258 -0.1480
 2655DOPE   NH331147  32.574   1.468  13.238 -0.0751 -0.0510  0.2049
 2655DOPE   PO431148  32.611   1.562  12.928  0.2639 -0.1617  0.0507
 2655DOPE   GL131149  32.387   1.867  13.002 -0.1839  0.3748 -0.1149
 2655DOPE   GL231150  32.605   1.966  13.214  0.0650  0.0432  0.1874
 2655DOPE   C1A31151  32.163   2.235  13.146 -0.3163  0.1452 -0.0727
 2655DOPE   D2A31152  31.828   2.304  13.489  0.3825 -0.1975 -0.0173
 2655DOPE   C3A31153  31.836   2.710  13.729 -0.3218 -0.2872 -0.1492
 2655DOPE   C4A31154  31.898   3.032  14.091  0.6238 -0.0662  0.1081
 2655DOPE   C1B31155  32.593   2.414  13.265  0.1358 -0.1786  0.3134
 2655DOPE   D2B31156  32.754   2.878  13.340  0.1893  0.2225 -0.2683
 2655DOPE   C3B31157  32.508   3.225  13.585 -0.4629 -0.2679 -0.1498
 2655DOPE   C4B31158  32.168   3.266  13.770  0.0963  0.1368  0.1915
 2656DOPE   NH331159  32.820   1.071  13.046  0.0313  0.0579 -0.2052
 2656DOPE   PO431160  32.938   1.070  13.359  0.2181 -0.0813  0.2830
 2656DOPE   GL131161  32.844   1.298  13.563 -0.0636 -0.1730 -0.1068
 2656DOPE   GL231162  32.977   1.369  13.790 -0.1815  0.0885  0.1114
 2656DOPE   C1A31163  32.486   1.401  13.844 -0.0549  0.0751 -0.0110
 2656DOPE   D2A31164  32.244   1.754  13.991  0.0740  0.1340  0.0761
 2656DOPE   C3A31165  32.480   2.104  14.195 -0.2357  0.0988 -0.0761
 2656DOPE   C4A31166  32.681   2.508  14.387 -0.0566  0.2404 -0.0824
 2656DOPE   C1B31167  33.177   1.784  13.802 -0.2608 -0.0158 -0.1309
 2656DOPE   D2B31168  33.065   2.079  14.096 -0.0973 -0.3516 -0.0501
 2656DOPE   C3B31169  32.937   2.055  14.532  0.1531  0.1620  0.1390
 2656DOPE   C4B31170  32.908   1.877  14.933  0.2043 -0.2230  0.2594
 2657DOPC   NC331171  33.347   1.350  13.464 -0.1113 -0.1774  0.0815
 2657DOPC   PO431172  33.127   1.517  13.164 -0.2135  0.2651 -0.0843
 2657DOPC   GL131173  33.027   1.815  13.371  0.1854  0.0710 -0.1351
 2657DOPC   GL231174  32.998   2.100  13.423  0.1854 -0.0085 -0.2621
 2657DOPC   C1A31175  32.702   1.826  13.706 -0.1804 -0.0262  0.1871
 2657DOPC   D2A31176  32.747   1.694  14.179 -0.1610 -0.2540  0.1830
 2657DOPC   C3A31177  33.088   1.484  14.350 -0.1955 -0.1069  0.0116
 2657DOPC   C4A31178  33.484   1.388  14.126 -0.1669  0.2041 -0.2601
 2657DOPC   C1B31179  32.806   2.426  13.741  0.0879 -0.0728  0.1426
 2657DOPC   D2B31180  32.701   2.827  13.899 -0.2053 -0.0506  0.2009
 2657DOPC   C3B31181  32.356   2.985  14.168 -0.3028 -0.0614 -0.1036
 2657DOPC   C4B31182  32.158   3.190  14.476  0.2490  0.1451 -0.1124
 2658DOPC   NC331183  24.948   7.705  13.546 -0.0766  0.0685 -0.1354
 2658DOPC   PO431184  25.032   8.002  13.299 -0.0284 -0.2747  0.0532
 2658DOPC   GL131185  25.046   8.269  13.557 -0.1257 -0.0248  0.0126
 2658DOPC   GL231186  25.206   8.205  13.776  0.0788  0.1770 -0.0888
 2658DOPC   C1A31187  24.971   8.716  13.714 -0.1193  0.0895  0.1453
 2658DOPC   D2A31188  25.017   8.955  14.132  0.2278  0.0497  0.1090
 2658DOPC   C3A31189  24.775   9.302  14.193  0.0502 -0.1609  0.2755
 2658DOPC   C4A31190  24.424   9.488  14.001 -0.4398  0.1124  0.2537
 2658DOPC   C1B31191  24.849   8.311  14.085  0.0324  0.0867  0.0388
 2658DOPC   D2B31192  24.515   8.071  14.324 -0.1945  0.0894  0.1398
 2658DOPC   C3B31193  24.472   8.010  14.761  0.1567 -0.1998 -0.3705
 2658DOPC   C4B31194  24.179   8.169  15.100  0.0596 -0.1876 -0.0834
 2659DOPE   NH331195  22.936   7.975  13.080  0.1723 -0.0383  0.0663
 2659DOPE   PO431196  23.147   8.215  13.120 -0.2637  0.1721 -0.0572
 2659DOPE   GL131197  23.323   8.539  13.312  0.2630  0.0512 -0.4116
 2659DOPE   GL231198  23.251   8.311  13.577 -0.0851 -0.2407 -0.2087
 2659DOPE   C1A31199  23.358   8.797  13.656 -0.0196  0.0709  0.0551
 2659DOPE   D2A31200  23.381   8.928  14.098  0.1358 -0.0249 -0.0866
 2659DOPE   C3A31201  23.143   9.172  14.363  0.2542  0.0627  0.3335
 2659DOPE   C4A31202  22.898   9.548  14.406 -0.1717 -0.1361  0.0046
 2659DOPE   C1B31203  23.197   8.439  14.034  0.4441 -0.0322  0.2847
 2659DOPE   D2B31204  22.872   8.753  14.214  0.0137  0.0531  0.2882
 2659DOPE   C3B31205  22.840   8.745  14.644 -0.1250  0.0515  0.1602
 2659DOPE   C4B31206  22.491   8.599  14.927  0.0083  0.1523  0.1216
 2660DOPE   NH331207  34.073  10.347  13.990  0.0770  0.2087  0.3896
 2660DOPE   PO431208  33.924  10.426  13.721 -0.2557 -0.1749 -0.0803
 2660DOPE   GL131209  33.791  10.103  13.722  0.1200 -0.0210  0.1765
 2660DOPE   GL231210  33.700  10.064  13.339  0.1572 -0.1147  0.1611
 2660DOPE   C1A31211  33.902   9.751  14.015  0.0031 -0.0642  0.0733
 2660DOPE   D2A31212  34.213   9.399  14.047 -0.0815  0.1176 -0.2582
 2660DOPE   C3A31213  34.036   8.996  14.142  0.0722  0.1228 -0.1675
 2660DOPE   C4A31214  33.817   8.581  14.286  0.2105  0.0678  0.0495
 2660DOPE   C1B31215  33.785   9.637  13.445  0.0058 -0.3812 -0.0724
 2660DOPE   D2B31216  33.773   9.333  13.764 -0.1322  0.0546  0.1807
 2660DOPE   C3B31217  33.700   9.411  14.260  0.1533 -0.1926  0.2710
 2660DOPE   C4B31218  33.349   9.487  14.544 -0.1878 -0.0539  0.2671
 2661DOPE   NH331219  30.059   5.875  13.199  0.3848  0.0418 -0.2548
 2661DOPE   PO431220  30.060   5.852  13.517 -0.2334 -0.3231  0.4855
 2661DOPE   GL131221  30.149   5.679  13.912  0.2099 -0.0574  0.1103
 2661DOPE   GL231222  30.404   5.620  13.879 -0.2273  0.1101  0.1938
 2661DOPE   C1A31223  29.922   5.781  14.318  0.1307  0.1166  0.2529
 2661DOPE   D2A31224  29.744   6.190  14.422  0.2643  0.1928  0.0437
 2661DOPE   C3A31225  29.367   6.218  14.678  0.3945  0.1151  0.0123
 2661DOPE   C4A31226  29.217   6.353  15.094  0.2796 -0.1294 -0.1754
 2661DOPE   C1B31227  30.381   5.449  14.296 -0.2397 -0.0334 -0.2601
 2661DOPE   D2B31228  30.052   5.421  14.655 -0.3676 -0.0968 -0.0197
 2661DOPE   C3B31229  30.240   5.524  15.072  0.2342 -0.3083 -0.0296
 2661DOPE   C4B31230  30.367   5.825  15.357  0.1044  0.2876 -0.2837
 2662POSM   NC331231  24.291   6.993  12.568 -0.0043  0.0250 -0.0824
 2662POSM   PO431232  24.280   7.411  12.624  0.2131  0.1273  0.2870
 2662POSM   AM131233  24.113   7.576  12.902  0.0372 -0.0300  0.1572
 2662POSM   AM231234  24.035   7.608  13.202 -0.0898 -0.5273  0.1214
 2662POSM   T1A31235  24.107   8.065  13.110  0.2132  0.1022 -0.3123
 2662POSM   C2A31236  24.435   8.340  13.208  0.0646 -0.0324  0.1833
 2662POSM   C3A31237  24.550   8.796  13.370 -0.3185  0.0815  0.1712
 2662POSM   C1B31238  23.964   7.585  13.511  0.1890 -0.2669  0.2148
 2662POSM   D2B31239  24.003   7.610  13.929  0.0783  0.2492 -0.1727
 2662POSM   C3B31240  23.657   7.796  14.213 -0.0958 -0.2570 -0.2838
 2662POSM   C4B31241  23.210   7.736  14.213 -0.3317  0.0076 -0.0335
 2663DOPE   NH331242  27.720   7.566  13.761  0.2091  0.1590  0.0391
 2663DOPE   PO431243  27.422   7.620  13.813  0.0269 -0.3844 -0.1581
 2663DOPE   GL131244  27.285   7.648  14.197 -0.0813  0.2893  0.2124
 2663DOPE   GL231245  27.435   7.431  14.261 -0.0785 -0.1352  0.0170
 2663DOPE   C1A31246  27.109   8.003  14.479 -0.1370 -0.0474 -0.1400
 2663DOPE   D2A31247  27.029   8.463  14.502  0.0816 -0.0584  0.4281
 2663DOPE   C3A31248  26.676   8.772  14.641  0.3515 -0.2142 -0.0516
 2663DOPE   C4A31249  26.620   9.227  14.726 -0.0237  0.0476  0.1487
 2663DOPE   C1B31250  27.080   7.482  14.567  0.1261  0.2791  0.1002
 2663DOPE   D2B31251  26.870   7.827  14.870  0.2732  0.3276 -0.1473
 2663DOPE   C3B31252  26.394   7.913  14.982 -0.0106 -0.1209 -0.1119
 2663DOPE   C4B31253  25.946   8.070  14.853 -0.0986  0.0443 -0.1726
 2664POSM   NC331254  30.759   6.382  13.831  0.1084 -0.2418 -0.0311
 2664POSM   PO431255  30.904   6.681  13.620  0.1800 -0.1336  0.1194
 2664POSM   AM131256  30.910   6.848  13.929  0.1085  0.2178 -0.1637
 2664POSM   AM231257  31.109   6.778  14.173  0.2043 -0.1854  0.3205
 2664POSM   T1A31258  30.829   7.191  14.288 -0.0495 -0.0329 -0.1911
 2664POSM   C2A31259  30.678   7.633  14.348 -0.0110  0.3473  0.0587
 2664POSM   C3A31260  30.438   7.817  14.711 -0.3676  0.0234  0.0364
 2664POSM   C1B31261  31.376   6.719  14.391 -0.0435 -0.0856 -0.1221
 2664POSM   D2B31262  31.621   6.910  14.762 -0.2646  0.0660  0.1060
 2664POSM   C3B31263  31.366   6.761  15.078 -0.1822 -0.0417 -0.0266
 2664POSM   C4B31264  30.989   6.604  15.188  0.4128 -0.1295  0.2509
 2665POSM   NC331265  23.573  34.430  12.685  0.2949  0.0780  0.4974
 2665POSM   PO431266  23.459  34.767  12.557 -0.0009  0.2923  0.3141
 2665POSM   AM131267  23.721  34.929  12.669  0.3961 -0.1173  0.4959
 2665POSM   AM231268  23.931  34.909  12.851 -0.0574 -0.0973 -0.1428
 2665POSM   T1A31269  23.868  35.420  12.795  0.4350  0.0027 -0.2525
 2665POSM   C2A31270  23.627  35.703  13.092  0.4245  0.0312  0.0579
 2665POSM   C3A31271  23.567  36.164  13.301  0.0672 -0.0080  0.0925
 2665POSM   C1B31272  24.084  35.121  13.079 -0.3311 -0.1848 -0.2797
 2665POSM   D2B31273  24.298  35.563  13.037  0.1827 -0.1550  0.2104
 2665POSM   C3B31274  24.220  35.915  12.701  0.0891 -0.0725 -0.1099
 2665POSM   C4B31275  24.025  36.045  12.304  0.1490 -0.0022  0.1021
 2666DOPC   NC331276  33.225  10.508  14.288  0.0835  0.1219  0.1802
 2666DOPC   PO431277  33.005  10.213  14.089  0.2352  0.0400  0.2222
 2666DOPC   GL131278  33.009   9.981  14.402  0.2331 -0.3395  0.1058
 2666DOPC   GL231279  32.956   9.763  14.221 -0.2168  0.2506 -0.0981
 2666DOPC   C1A31280  33.209   9.971  14.799  0.3082 -0.0748 -0.0761
 2666DOPC   D2A31281  33.624   9.992  15.038 -0.0193  0.0850  0.1018
 2666DOPC   C3A31282  33.980  10.120  14.816  0.2028  0.2064 -0.0822
 2666DOPC   C4A31283  34.295  10.272  14.554 -0.1473 -0.3058  0.1050
 2666DOPC   C1B31284  32.561   9.566  14.069 -0.0231 -0.0976  0.0385
 2666DOPC   D2B31285  32.203   9.634  13.836  0.3205 -0.1793  0.1982
 2666DOPC   C3B31286  32.396   9.829  13.491 -0.1305 -0.0506 -0.0825
 2666DOPC   C4B31287  32.752   9.938  13.207 -0.1630  0.1537 -0.4089
 2667DOPC   NC331288  29.911   7.970  13.197 -0.0414  0.0032 -0.0885
 2667DOPC   PO431289  30.262   8.166  13.278 -0.1652 -0.0959  0.4416
 2667DOPC   GL131290  30.510   8.100  13.518 -0.3559 -0.4926  0.1990
 2667DOPC   GL231291  30.799   8.284  13.471  0.1568  0.0134 -0.0306
 2667DOPC   C1A31292  30.567   8.327  13.904 -0.1973 -0.1800 -0.3220
 2667DOPC   D2A31293  30.661   8.725  14.172 -0.0358  0.5953 -0.0803
 2667DOPC   C3A31294  30.858   9.122  14.377 -0.0691 -0.0571  0.0395
 2667DOPC   C4A31295  30.998   9.198  14.784  0.0598  0.0003 -0.0175
 2667DOPC   C1B31296  30.920   8.695  13.417 -0.0930  0.1143  0.3102
 2667DOPC   D2B31297  31.193   9.094  13.334 -0.1197 -0.0444 -0.3603
 2667DOPC   C3B31298  31.488   9.271  13.609 -0.2433 -0.3093 -0.4677
 2667DOPC   C4B31299  31.758   9.533  13.924  0.1280 -0.2804  0.3256
 2668DOPC   NC331300  26.249   5.119  13.293 -0.1970  0.2245  0.1170
 2668DOPC   PO431301  26.503   4.904  13.103 -0.0807  0.1225 -0.1648
 2668DOPC   GL131302  26.725   4.734  13.301  0.0605 -0.0909  0.3219
 2668DOPC   GL231303  26.791   4.525  13.048 -0.4162 -0.0443 -0.0192
 2668DOPC   C1A31304  27.148   4.652  13.494  0.1849  0.1048  0.1639
 2668DOPC   D2A31305  27.361   4.494  13.891  0.1083  0.0987 -0.0995
 2668DOPC   C3A31306  27.467   4.893  14.082 -0.1608  0.3251 -0.2074
 2668DOPC   C4A31307  27.694   5.133  14.297 -0.1753 -0.0486 -0.0549
 2668DOPC   C1B31308  27.169   4.737  13.046 -0.1229 -0.0432  0.1680
 2668DOPC   D2B31309  27.421   5.064  13.173 -0.3804  0.0567 -0.2708
 2668DOPC   C3B31310  27.890   5.154  13.264  0.0369 -0.1247 -0.0524
 2668DOPC   C4B31311  28.319   5.327  13.201  0.0695 -0.1077  0.0180
 2669DOPE   NH331312  30.204  34.593  13.535 -0.4071  0.2727  0.0042
 2669DOPE   PO431313  29.924  34.734  13.602 -0.3738  0.1308 -0.0068
 2669DOPE   GL131314  29.722  34.899  13.943 -0.2623  0.1768 -0.5332
 2669DOPE   GL231315  29.906  35.136  14.039  0.1672  0.0053 -0.0615
 2669DOPE   C1A31316  29.637  34.844  14.354 -0.1479 -0.1571 -0.1042
 2669DOPE   D2A31317  29.407  34.834  14.731  0.0747 -0.1382  0.1724
 2669DOPE   C3A31318  29.689  35.107  14.958 -0.0745  0.1393  0.1644
 2669DOPE   C4A31319  29.603  35.480  15.214 -0.5280 -0.1520  0.1237
 2669DOPE   C1B31320  29.789  35.543  14.227  0.2016 -0.2855 -0.0952
 2669DOPE   D2B31321  29.837  35.964  14.072 -0.3486  0.1705  0.0013
 2669DOPE   C3B31322  30.082  36.195  14.320  0.2325  0.1689  0.0478
 2669DOPE   C4B31323  30.234  36.521  14.654 -0.2165 -0.1598  0.0397
 2670POSM   NC331324  29.514  34.384  14.119  0.2263 -0.1247 -0.1725
 2670POSM   PO431325  29.389  34.047  14.057 -0.1072 -0.0200 -0.0763
 2670POSM   AM131326  29.252  33.931  14.314  0.1341  0.0419 -0.1076
 2670POSM   AM231327  29.315  33.654  14.425  0.1618  0.0787  0.0652
 2670POSM   T1A31328  28.912  33.754  14.612  0.0673  0.3292  0.0791
 2670POSM   C2A31329  28.464  33.679  14.724 -0.0733  0.0574 -0.2757
 2670POSM   C3A31330  28.161  33.365  14.946 -0.0492 -0.0129  0.0487
 2670POSM   C1B31331  29.583  33.653  14.558 -0.0525  0.0681 -0.0109
 2670POSM   D2B31332  30.005  33.775  14.613 -0.1112 -0.0172 -0.0091
 2670POSM   C3B31333  30.312  33.471  14.851 -0.0387 -0.0390  0.0514
 2670POSM   C4B31334  30.723  33.505  15.044  0.3189 -0.2851  0.0825
 2671DOPE   NH331335  23.009   7.733  12.625  0.4132  0.1360  0.3703
 2671DOPE   PO431336  23.244   7.691  12.813  0.2809  0.1260 -0.3755
 2671DOPE   GL131337  23.519   7.868  12.915  0.0799 -0.2060 -0.0964
 2671DOPE   GL231338  23.598   7.922  13.246  0.0711  0.0466 -0.1382
 2671DOPE   C1A31339  23.889   8.010  12.671  0.0828 -0.0050 -0.0457
 2671DOPE   D2A31340  24.069   8.446  12.697 -0.1877  0.2629 -0.1486
 2671DOPE   C3A31341  24.144   8.750  13.119 -0.1012  0.2346 -0.0518
 2671DOPE   C4A31342  24.091   8.994  13.488 -0.0429 -0.2164  0.0604
 2671DOPE   C1B31343  23.780   8.308  13.417 -0.3890 -0.1554  0.1517
 2671DOPE   D2B31344  24.132   8.502  13.600  0.0862 -0.2468  0.1148
 2671DOPE   C3B31345  24.263   8.554  14.040  0.1273  0.0478  0.0047
 2671DOPE   C4B31346  24.607   8.738  14.293 -0.2816 -0.0690 -0.3807
 2672DOPC   NC331347  31.740   0.382  13.631  0.2557  0.3631 -0.3642
 2672DOPC   PO431348  32.011   0.461  13.373 -0.3072  0.1401  0.1583
 2672DOPC   GL131349  32.261   0.228  13.651 -0.0355 -0.0853  0.2141
 2672DOPC   GL231350  32.477   0.424  13.707  0.1739  0.1975  0.2974
 2672DOPC   C1A31351  32.287   0.183  14.121  0.3374  0.0315 -0.2806
 2672DOPC   D2A31352  32.302  -0.061  14.496  0.1115 -0.3573 -0.1534
 2672DOPC   C3A31353  32.362  -0.352  14.850 -0.1655 -0.0755  0.0625
 2672DOPC   C4A31354  32.487  -0.818  14.974 -0.3156 -0.1659  0.0857
 2672DOPC   C1B31355  32.514   0.625  14.134  0.0554 -0.2779  0.0492
 2672DOPC   D2B31356  32.279   0.853  14.423 -0.1245 -0.3764 -0.2449
 2672DOPC   C3B31357  31.953   0.824  14.764 -0.2115 -0.1730 -0.0453
 2672DOPC   C4B31358  31.575   0.763  14.989 -0.0934  0.0158 -0.2034
 2673POSM   NC331359  30.406   0.428  13.269 -0.1383 -0.2682  0.0595
 2673POSM   PO431360  30.646   0.143  13.435 -0.2671 -0.0470 -0.2261
 2673POSM   AM131361  30.630   0.116  13.747 -0.0832  0.0070 -0.0738
 2673POSM   AM231362  30.662  -0.144  13.864 -0.2012 -0.0642  0.0635
 2673POSM   T1A31363  30.767   0.332  14.170 -0.0845  0.0530 -0.0206
 2673POSM   C2A31364  30.702   0.700  14.466 -0.1153 -0.0736 -0.0707
 2673POSM   C3A31365  30.694   0.924  14.865 -0.1690  0.1196 -0.0899
 2673POSM   C1B31366  30.783  -0.163  14.145  0.1877  0.0794  0.2240
 2673POSM   D2B31367  30.983   0.107  14.512  0.2552  0.0058  0.1871
 2673POSM   C3B31368  30.776   0.130  14.910  0.1544 -0.0393 -0.1597
 2673POSM   C4B31369  30.514   0.457  15.180 -0.1065 -0.0753 -0.1335
 2674DOPE   NH331370  31.872   6.349  13.545 -0.0531 -0.1149 -0.0141
 2674DOPE   PO431371  31.937   6.630  13.521 -0.2139  0.2045 -0.2156
 2674DOPE   GL131372  31.726   6.763  13.850  0.3386  0.0555  0.0952
 2674DOPE   GL231373  31.740   6.509  13.999  0.0575 -0.2736  0.1658
 2674DOPE   C1A31374  31.879   6.942  14.265  0.3978 -0.0209  0.2274
 2674DOPE   D2A31375  32.102   6.822  14.642 -0.0431 -0.0314  0.0955
 2674DOPE   C3A31376  31.860   6.556  14.981 -0.0612  0.1825  0.0098
 2674DOPE   C4A31377  31.816   6.070  15.118 -0.3083 -0.0520 -0.4124
 2674DOPE   C1B31378  31.725   6.091  14.122 -0.1077 -0.1955  0.0428
 2674DOPE   D2B31379  31.662   5.800  14.464 -0.5968 -0.1283 -0.2115
 2674DOPE   C3B31380  31.392   5.853  14.856 -0.2267  0.2697 -0.1386
 2674DOPE   C4B31381  31.169   6.111  15.099  0.1198 -0.2458  0.0307
 2675DOPE   NH331382  23.236   3.894  12.827 -0.0302  0.0906  0.1717
 2675DOPE   PO431383  23.171   3.922  13.132 -0.1625 -0.1309  0.0073
 2675DOPE   GL131384  23.269   4.236  13.278  0.2030  0.1799  0.0865
 2675DOPE   GL231385  23.417   4.380  13.103 -0.2161 -0.1130 -0.0731
 2675DOPE   C1A31386  23.166   4.619  13.482 -0.0990 -0.0204 -0.0418
 2675DOPE   D2A31387  23.157   5.057  13.591 -0.4460  0.2216  0.0179
 2675DOPE   C3A31388  23.501   5.125  13.882 -0.3372 -0.0996 -0.0749
 2675DOPE   C4A31389  23.906   4.895  14.002 -0.0753  0.2156 -0.0254
 2675DOPE   C1B31390  23.674   4.514  12.753 -0.0774 -0.2724 -0.0303
 2675DOPE   D2B31391  24.049   4.824  12.749  0.2722 -0.1828  0.0702
 2675DOPE   C3B31392  23.998   5.063  13.081 -0.1185  0.0659 -0.1072
 2675DOPE   C4B31393  23.666   5.404  13.098  0.1053 -0.1851  0.0129
 2676DOPC   NC331394  28.100   7.782  13.346 -0.0973 -0.0693  0.1721
 2676DOPC   PO431395  28.022   7.405  13.409 -0.0553 -0.1420 -0.0044
 2676DOPC   GL131396  27.864   7.080  13.673 -0.1760 -0.1635  0.1233
 2676DOPC   GL231397  28.023   6.890  13.603  0.3250 -0.0847  0.2417
 2676DOPC   C1A31398  27.770   7.034  14.101  0.4159  0.0754 -0.2548
 2676DOPC   D2A31399  27.641   7.072  14.527  0.0143  0.0153  0.3284
 2676DOPC   C3A31400  27.464   7.332  14.871  0.4059 -0.0037  0.1046
 2676DOPC   C4A31401  27.361   7.770  14.907 -0.0266  0.0448  0.2290
 2676DOPC   C1B31402  28.203   6.710  13.933  0.0940 -0.2578 -0.1417
 2676DOPC   D2B31403  28.560   6.864  14.177 -0.1376 -0.1070 -0.0339
 2676DOPC   C3B31404  28.430   6.680  14.613 -0.2849  0.1529 -0.0385
 2676DOPC   C4B31405  28.355   6.243  14.769 -0.0441 -0.1931 -0.0331
 2677DOPE   NH331406  25.183   7.364  13.235 -0.1201 -0.1706  0.1668
 2677DOPE   PO431407  24.887   7.216  13.337  0.0928 -0.2294  0.4216
 2677DOPE   GL131408  24.752   7.077  13.649  0.0919 -0.1042  0.0770
 2677DOPE   GL231409  24.500   6.907  13.491 -0.0858 -0.0582 -0.3027
 2677DOPE   C1A31410  24.474   7.009  13.999 -0.2080  0.4172  0.0713
 2677DOPE   D2A31411  24.255   7.267  14.399  0.0869 -0.0519  0.4114
 2677DOPE   C3A31412  24.065   7.667  14.485  0.1011  0.0124 -0.1681
 2677DOPE   C4A31413  23.960   7.978  14.756 -0.1170 -0.2194  0.0106
 2677DOPE   C1B31414  24.276   6.538  13.423  0.0744  0.0853 -0.1642
 2677DOPE   D2B31415  24.027   6.474  13.830  0.1093  0.2494 -0.3102
 2677DOPE   C3B31416  23.915   6.764  14.206  0.0233 -0.0463  0.1867
 2677DOPE   C4B31417  23.680   7.154  14.229  0.1472 -0.1176 -0.1919
 2678POSM   NC331418  31.323   6.609  13.295  0.0206  0.1308 -0.1397
 2678POSM   PO431419  31.364   6.443  13.659  0.3009  0.1514  0.2448
 2678POSM   AM131420  31.301   6.271  13.919  0.0696  0.0507  0.3237
 2678POSM   AM231421  31.181   6.024  13.965  0.1246  0.0782 -0.1384
 2678POSM   T1A31422  31.274   6.106  14.382  0.1479 -0.1037 -0.0082
 2678POSM   C2A31423  30.948   5.908  14.637 -0.1694  0.1703  0.1069
 2678POSM   C3A31424  30.539   5.828  14.891 -0.1338  0.1070  0.2568
 2678POSM   C1B31425  31.334   5.771  14.006  0.0062 -0.0025 -0.1615
 2678POSM   D2B31426  31.501   5.369  14.196  0.0882  0.0687 -0.2016
 2678POSM   C3B31427  31.416   5.355  14.620  0.2176 -0.1051  0.0720
 2678POSM   C4B31428  31.141   5.240  14.994 -0.3679 -0.3522  0.1296
 2679DOPC   NC331429  32.022   7.120  13.807  0.2125 -0.0986 -0.0174
 2679DOPC   PO431430  32.313   6.951  13.679  0.0569  0.0745 -0.0038
 2679DOPC   GL131431  32.217   7.109  13.374  0.0017  0.1974  0.2058
 2679DOPC   GL231432  31.966   7.084  13.307  0.0477  0.2305  0.0316
 2679DOPC   C1A31433  32.194   7.506  13.107 -0.0267  0.2890 -0.0238
 2679DOPC   D2A31434  32.290   7.962  13.157  0.0585 -0.1658 -0.0205
 2679DOPC   C3A31435  32.176   8.226  13.585  0.0248  0.0467  0.0707
 2679DOPC   C4A31436  32.198   8.487  13.963 -0.2469  0.0986 -0.2287
 2679DOPC   C1B31437  31.850   7.527  13.430  0.1825 -0.2435 -0.3254
 2679DOPC   D2B31438  31.735   7.947  13.407 -0.1355 -0.3513 -0.1433
 2679DOPC   C3B31439  31.897   8.200  13.034  0.3554 -0.0388  0.0282
 2679DOPC   C4B31440  31.751   8.653  12.898 -0.1317  0.1238  0.3160
 2680POSM   NC331441  30.069  11.079  13.145  0.0202  0.2802  0.2181
 2680POSM   PO431442  30.285  10.939  13.463  0.0949  0.3301 -0.0267
 2680POSM   AM131443  30.434  11.028  13.700  0.1597 -0.4357 -0.1010
 2680POSM   AM231444  30.634  11.230  13.775 -0.0626  0.2198  0.1982
 2680POSM   T1A31445  30.477  10.887  14.152  0.1068  0.0288 -0.0984
 2680POSM   C2A31446  30.329  10.563  14.512  0.0071  0.1154  0.1232
 2680POSM   C3A31447  30.371  10.251  14.890 -0.1515 -0.2231 -0.2336
 2680POSM   C1B31448  30.815  11.275  14.038 -0.0193 -0.2288 -0.1501
 2680POSM   D2B31449  31.065  11.454  14.351  0.1267  0.1104 -0.0849
 2680POSM   C3B31450  31.073  11.554  14.839 -0.0698 -0.1671  0.1309
 2680POSM   C4B31451  30.911  11.416  15.255 -0.0953 -0.1911 -0.0244
 2681DOPE   NH331452  28.650  34.053  13.855  0.1115 -0.0669  0.1895
 2681DOPE   PO431453  28.916  34.099  14.041 -0.0231  0.0943 -0.0944
 2681DOPE   GL131454  28.943  34.224  14.441 -0.0390 -0.3191 -0.1923
 2681DOPE   GL231455  28.903  34.428  14.558 -0.0452 -0.1477 -0.0299
 2681DOPE   C1A31456  29.350  34.219  14.659 -0.1102  0.0033 -0.1066
 2681DOPE   D2A31457  29.643  34.372  14.861  0.1864  0.0255 -0.0768
 2681DOPE   C3A31458  29.568  34.616  15.240  0.1394  0.0907  0.0749
 2681DOPE   C4A31459  29.518  34.956  15.529 -0.0265 -0.1603  0.1161
 2681DOPE   C1B31460  28.858  34.194  14.920 -0.1473  0.0596  0.1934
 2681DOPE   D2B31461  28.830  33.795  15.107  0.0149 -0.1150 -0.4292
 2681DOPE   C3B31462  28.504  33.554  15.276  0.0199  0.0278 -0.1928
 2681DOPE   C4B31463  28.118  33.344  15.420 -0.0420  0.3233 -0.0112
 2682DOPC   NC331464  31.199   3.406  13.339  0.2668  0.2662 -0.0126
 2682DOPC   PO431465  31.001   3.576  13.627  0.0730 -0.2557  0.0654
 2682DOPC   GL131466  31.384   3.665  13.681 -0.4448 -0.1762 -0.1641
 2682DOPC   GL231467  31.437   3.926  13.554  0.1123  0.0345  0.0892
 2682DOPC   C1A31468  31.658   3.287  13.616  0.1086 -0.3479 -0.1882
 2682DOPC   D2A31469  31.754   3.149  13.237  0.3443  0.3419 -0.2687
 2682DOPC   C3A31470  32.194   2.993  13.301  0.1877  0.0549 -0.2585
 2682DOPC   C4A31471  32.371   2.711  13.592  0.1592  0.1025  0.0047
 2682DOPC   C1B31472  31.811   3.874  13.829  0.4338  0.1152  0.1501
 2682DOPC   D2B31473  32.139   3.939  14.117  0.1555  0.1594  0.1536
 2682DOPC   C3B31474  32.217   4.194  13.747 -0.0814 -0.1610  0.0422
 2682DOPC   C4B31475  32.412   4.502  13.523 -0.2216  0.0299  0.1139
 2683DOPE   NH331476  34.466   0.346  13.160  0.0783 -0.0222 -0.2155
 2683DOPE   PO431477  34.198   0.466  13.229  0.3184 -0.0695 -0.1141
 2683DOPE   GL131478  34.418   0.797  13.069  0.4370  0.1646 -0.2034
 2683DOPE   GL231479  34.716   0.790  13.177  0.1320  0.3643  0.0203
 2683DOPE   C1A31480  34.297   1.239  13.143  0.0766 -0.1729  0.0627
 2683DOPE   D2A31481  34.255   1.716  13.192  0.0355  0.1804 -0.0137
 2683DOPE   C3A31482  34.628   1.750  13.405 -0.0973 -0.0066  0.2465
 2683DOPE   C4A31483  34.997   1.743  13.673 -0.1916  0.0026 -0.0048
 2683DOPE   C1B31484  34.677   0.693  13.684 -0.0695 -0.1714 -0.3247
 2683DOPE   D2B31485  34.384   0.494  13.831  0.2354 -0.1409  0.0883
 2683DOPE   C3B31486  34.547   0.560  14.214 -0.0450  0.2051 -0.1714
 2683DOPE   C4B31487  34.652   0.499  14.715  0.1708  0.0235  0.1388
 2684POSM   NC331488  24.672   4.154  13.095 -0.2660 -0.1486  0.3611
 2684POSM   PO431489  25.077   4.076  13.057  0.0472 -0.0889 -0.2922
 2684POSM   AM131490  25.013   4.279  13.358  0.1448  0.0518 -0.0217
 2684POSM   AM231491  25.140   4.486  13.526  0.3200  0.0113  0.3452
 2684POSM   T1A31492  24.654   4.237  13.695  0.1986 -0.0327  0.1319
 2684POSM   C2A31493  24.421   4.217  14.079  0.2995 -0.3051 -0.0574
 2684POSM   C3A31494  24.372   3.951  14.460 -0.3228  0.0571 -0.1751
 2684POSM   C1B31495  25.017   4.593  13.784  0.2857 -0.2403  0.0834
 2684POSM   D2B31496  24.865   4.444  14.174 -0.2191 -0.2018  0.0397
 2684POSM   C3B31497  24.531   4.419  14.508  0.0305  0.1840 -0.0218
 2684POSM   C4B31498  24.217   4.510  14.803 -0.1394 -0.1309  0.0011
 2685DOPC   NC331499  29.262   6.966  13.351 -0.1363 -0.0508 -0.0867
 2685DOPC   PO431500  29.472   6.737  13.612  0.3639  0.1842 -0.1545
 2685DOPC   GL131501  29.679   6.816  13.827 -0.3052 -0.2898  0.0008
 2685DOPC   GL231502  29.898   6.798  13.985  0.0382 -0.2730 -0.0433
 2685DOPC   C1A31503  29.462   6.731  14.258  0.1108  0.1138 -0.1207
 2685DOPC   D2A31504  29.050   6.832  14.359  0.1611 -0.2044  0.0744
 2685DOPC   C3A31505  28.770   7.022  14.654 -0.0352 -0.1708  0.0143
 2685DOPC   C4A31506  28.568   7.367  14.915  0.1458  0.0011 -0.1431
 2685DOPC   C1B31507  29.809   7.006  14.383  0.1398 -0.1755 -0.2872
 2685DOPC   D2B31508  29.966   7.088  14.823  0.0618 -0.0375 -0.1245
 2685DOPC   C3B31509  30.186   6.787  15.029  0.3036  0.0755  0.1411
 2685DOPC   C4B31510  30.192   6.264  15.053 -0.0513 -0.0059 -0.1933
 2686POSM   NC331511  30.499   2.612  13.422  0.1846  0.0193  0.2730
 2686POSM   PO431512  30.866   2.628  13.532  0.3089 -0.0891  0.0670
 2686POSM   AM131513  31.082   2.482  13.722  0.5652 -0.1148 -0.2031
 2686POSM   AM231514  31.354   2.367  13.656  0.2033  0.1386  0.3124
 2686POSM   T1A31515  31.063   2.090  13.976 -0.2860 -0.0542  0.2344
 2686POSM   C2A31516  30.877   1.687  14.068 -0.0852  0.0092 -0.1397
 2686POSM   C3A31517  30.722   1.369  14.290  0.1317 -0.1692  0.2695
 2686POSM   C1B31518  31.319   2.017  13.532  0.1055 -0.0805  0.2034
 2686POSM   D2B31519  31.320   1.601  13.759  0.0505  0.0441  0.0792
 2686POSM   C3B31520  31.231   1.264  14.113 -0.1580 -0.0396  0.1611
 2686POSM   C4B31521  31.130   1.012  14.525 -0.1581 -0.0948  0.2230
 2687POSM   NC331522  23.696   7.432  12.768  0.5401  0.1942  0.0254
 2687POSM   PO431523  23.543   7.079  12.707  0.0136 -0.1214  0.1622
 2687POSM   AM131524  23.626   6.913  12.960 -0.1252  0.2348  0.0242
 2687POSM   AM231525  23.621   6.905  13.250 -0.1949  0.0679 -0.1267
 2687POSM   T1A31526  23.817   6.442  13.030  0.0986  0.1016  0.1197
 2687POSM   C2A31527  24.208   6.124  12.971  0.0073 -0.2537 -0.2847
 2687POSM   C3A31528  24.647   5.995  12.916 -0.2937  0.0391 -0.1707
 2687POSM   C1B31529  23.517   6.625  13.430 -0.2035 -0.0537 -0.2328
 2687POSM   D2B31530  23.322   6.366  13.791  0.1331  0.2035 -0.3194
 2687POSM   C3B31531  23.624   6.262  14.179  0.0047 -0.0143  0.1088
 2687POSM   C4B31532  23.916   6.203  14.511  0.1393 -0.0553  0.0450
 2688DOPC   NC331533  28.630   2.529  13.361  0.0622 -0.0191 -0.0110
 2688DOPC   PO431534  28.779   2.366  13.712  0.0840  0.0571 -0.1662
 2688DOPC   GL131535  28.543   2.446  13.998  0.0474  0.1470 -0.2587
 2688DOPC   GL231536  28.700   2.384  14.200  0.2411 -0.0308  0.0004
 2688DOPC   C1A31537  28.271   2.173  14.337 -0.2096 -0.2167 -0.0369
 2688DOPC   D2A31538  28.217   2.031  14.801  0.1332  0.0031 -0.1060
 2688DOPC   C3A31539  28.406   2.099  15.236  0.0695 -0.0911 -0.1220
 2688DOPC   C4A31540  28.775   2.111  15.561  0.0935  0.0176 -0.2060
 2688DOPC   C1B31541  28.663   2.310  14.623  0.0743  0.1304 -0.0037
 2688DOPC   D2B31542  28.811   2.027  14.922 -0.2838 -0.0581 -0.0429
 2688DOPC   C3B31543  28.524   1.672  14.973  0.2406  0.0191 -0.1740
 2688DOPC   C4B31544  28.189   1.407  15.157  0.2254 -0.0239  0.0169
 2689DOPE   NH331545  26.555   0.605  13.075  0.1575 -0.0256 -0.0953
 2689DOPE   PO431546  26.839   0.667  13.276  0.1533 -0.0100 -0.0977
 2689DOPE   GL131547  26.807   0.850  13.537 -0.0150  0.1538  0.3674
 2689DOPE   GL231548  26.770   1.158  13.424 -0.0219  0.4049  0.0701
 2689DOPE   C1A31549  26.733   1.146  13.899  0.0516 -0.0902  0.3705
 2689DOPE   D2A31550  26.447   1.431  14.072  0.0786 -0.0565  0.0414
 2689DOPE   C3A31551  26.519   1.684  14.424  0.2297  0.0012 -0.0092
 2689DOPE   C4A31552  26.945   1.821  14.562 -0.2084 -0.1930 -0.0204
 2689DOPE   C1B31553  26.884   1.601  13.549 -0.2309 -0.0906  0.1321
 2689DOPE   D2B31554  26.956   2.055  13.681  0.0085  0.0973 -0.0107
 2689DOPE   C3B31555  27.201   1.989  14.089 -0.1699 -0.1768  0.1251
 2689DOPE   C4B31556  27.361   2.215  14.467 -0.0940  0.5259 -0.0353
 2690POSM   NC331557  26.171  11.642  12.897  0.1745  0.1183 -0.2313
 2690POSM   PO431558  26.049  11.705  13.245 -0.0325 -0.0791  0.2864
 2690POSM   AM131559  26.105  11.536  13.507  0.2150  0.2757 -0.0495
 2690POSM   AM231560  25.954  11.430  13.733 -0.1249  0.2132  0.0271
 2690POSM   T1A31561  26.399  11.344  13.911  0.2802 -0.4534 -0.0314
 2690POSM   C2A31562  26.770  11.361  14.247  0.0443  0.2016  0.2025
 2690POSM   C3A31563  27.172  11.079  14.250  0.2340 -0.2284 -0.2370
 2690POSM   C1B31564  25.959  11.456  14.051  0.0587  0.0481 -0.3804
 2690POSM   D2B31565  25.700  11.673  14.389 -0.1418 -0.1710 -0.2711
 2690POSM   C3B31566  25.731  12.131  14.440 -0.2851 -0.1143  0.2248
 2690POSM   C4B31567  25.675  12.613  14.521  0.0837 -0.0207  0.2516
 2691POSM   NC331568  27.996   2.759  13.354  0.1056  0.3918 -0.0316
 2691POSM   PO431569  28.219   2.708  13.675  0.4603 -0.3638  0.0784
 2691POSM   AM131570  27.938   2.652  13.846 -0.0700 -0.2399  0.1685
 2691POSM   AM231571  27.714   2.564  13.763  0.2408  0.2174 -0.1025
 2691POSM   T1A31572  27.641   2.520  14.240 -0.0257  0.0725 -0.0676
 2691POSM   C2A31573  27.167   2.655  14.241  0.0461  0.3082  0.0505
 2691POSM   C3A31574  26.863   2.503  14.568 -0.2096 -0.1476 -0.1456
 2691POSM   C1B31575  27.373   2.474  13.734  0.0604  0.2656  0.1275
 2691POSM   D2B31576  26.957   2.561  13.647 -0.0010  0.2937  0.1088
 2691POSM   C3B31577  26.633   2.550  14.016  0.3312  0.0115  0.0970
 2691POSM   C4B31578  26.402   2.502  14.408 -0.0262 -0.1988 -0.0941
 2692DOPS   CNO31579  30.429   6.618  13.504 -0.1131  0.0751  0.1143
 2692DOPS   PO431580  30.265   6.326  13.654  0.0112 -0.0651  0.1364
 2692DOPS   GL131581  30.375   6.436  14.017 -0.0725  0.0470 -0.0350
 2692DOPS   GL231582  30.361   6.126  14.091  0.1172 -0.0375  0.0400
 2692DOPS   C1A31583  30.157   6.594  14.402 -0.0211 -0.3471 -0.0742
 2692DOPS   D2A31584  29.864   6.574  14.729 -0.0422 -0.0745  0.1191
 2692DOPS   C3A31585  29.473   6.737  14.798 -0.2859  0.2787 -0.3278
 2692DOPS   C4A31586  29.130   6.910  14.997  0.1535  0.0897 -0.1081
 2692DOPS   C1B31587  30.232   6.125  14.521  0.1069 -0.1434 -0.2682
 2692DOPS   D2B31588  30.002   5.884  14.823  0.2620 -0.3459  0.1069
 2692DOPS   C3B31589  29.600   5.735  14.839  0.0483  0.1853  0.3291
 2692DOPS   C4B31590  29.297   5.696  14.539  0.2066 -0.3034 -0.0040
 2693DOPC   NC331591  24.980   7.961  12.848 -0.0971 -0.2111 -0.0220
 2693DOPC   PO431592  25.366   7.789  12.870 -0.1160  0.0781  0.2905
 2693DOPC   GL131593  25.404   8.191  12.838  0.2384  0.3291 -0.0308
 2693DOPC   GL231594  25.176   8.388  12.992 -0.0021 -0.0401 -0.3116
 2693DOPC   C1A31595  25.735   8.491  13.077  0.1939 -0.0814 -0.3153
 2693DOPC   D2A31596  25.858   8.800  13.409  0.3507  0.0317 -0.0868
 2693DOPC   C3A31597  25.801   9.233  13.566 -0.0924  0.0980  0.1540
 2693DOPC   C4A31598  25.840   9.531  13.932  0.0031 -0.3692 -0.0468
 2693DOPC   C1B31599  25.328   8.637  13.409 -0.1040  0.3792 -0.3261
 2693DOPC   D2B31600  25.447   8.920  13.740  0.2573  0.1210 -0.1665
 2693DOPC   C3B31601  25.339   9.331  13.897  0.0178 -0.0672 -0.2025
 2693DOPC   C4B31602  25.386   9.547  14.300 -0.1308  0.1393 -0.1602
 2694POSM   NC331603  22.821   5.500  13.513  0.1500 -0.1226  0.4093
 2694POSM   PO431604  22.945   5.417  13.178  0.0322 -0.1487  0.0534
 2694POSM   AM131605  23.063   5.158  13.013 -0.2727 -0.1751 -0.1783
 2694POSM   AM231606  23.170   4.876  13.038  0.1014 -0.1869 -0.1724
 2694POSM   T1A31607  23.460   5.019  12.702 -0.2571  0.1457 -0.1038
 2694POSM   C2A31608  23.811   5.293  12.663  0.0210 -0.0679  0.0903
 2694POSM   C3A31609  24.144   5.523  12.883 -0.1092  0.0527  0.0238
 2694POSM   C1B31610  23.458   4.980  13.190 -0.3382  0.0170 -0.0746
 2694POSM   D2B31611  23.776   4.975  13.518 -0.0019 -0.2354  0.0985
 2694POSM   C3B31612  24.247   4.940  13.521  0.1015 -0.0270  0.1077
 2694POSM   C4B31613  24.491   4.557  13.328 -0.0413  0.0758  0.1004
 2695DOPE   NH331614  29.041   3.178  14.124  0.0292  0.0576 -0.1667
 2695DOPE   PO431615  29.233   3.419  14.125 -0.2122 -0.0852  0.0280
 2695DOPE   GL131616  29.322   3.345  14.549  0.2024  0.0428 -0.1072
 2695DOPE   GL231617  29.280   3.089  14.611  0.2707 -0.1793 -0.2110
 2695DOPE   C1A31618  29.251   3.563  14.918 -0.1516 -0.2920 -0.2102
 2695DOPE   D2A31619  28.961   3.782  15.181  0.1521  0.1402  0.1778
 2695DOPE   C3A31620  29.180   3.986  15.559 -0.3201  0.2651  0.1010
 2695DOPE   C4A31621  29.333   4.350  15.663  0.1237 -0.0867 -0.1464
 2695DOPE   C1B31622  28.933   3.231  14.859 -0.0368  0.0850 -0.3170
 2695DOPE   D2B31623  28.900   3.050  15.252 -0.3106 -0.0236 -0.2350
 2695DOPE   C3B31624  29.229   2.737  15.293  0.4382 -0.0611  0.1445
 2695DOPE   C4B31625  29.548   2.477  15.094  0.2261 -0.0164  0.3180
 2696POSM   NC331626  24.438   7.300  13.116  0.4449  0.3533 -0.0146
 2696POSM   PO431627  24.073   7.117  13.077 -0.1210 -0.1158 -0.2274
 2696POSM   AM131628  24.058   7.132  13.409 -0.4175 -0.2355  0.1457
 2696POSM   AM231629  23.964   7.039  13.673 -0.4153  0.2551 -0.0826
 2696POSM   T1A31630  24.400   7.390  13.722 -0.0545 -0.1819 -0.0364
 2696POSM   C2A31631  24.567   7.877  13.844  0.0018 -0.0013  0.4094
 2696POSM   C3A31632  24.605   8.308  13.652 -0.0619 -0.4408 -0.0995
 2696POSM   C1B31633  23.753   7.213  13.759  0.1267  0.1599 -0.0663
 2696POSM   D2B31634  23.403   7.494  13.798  0.1114  0.1224  0.1368
 2696POSM   C3B31635  23.511   7.945  13.763  0.2325 -0.1212 -0.1878
 2696POSM   C4B31636  23.639   8.453  13.880 -0.3423  0.0408 -0.0755
 2697POSM   NC331637  26.133   7.294  13.240  0.1084 -0.2408  0.0005
 2697POSM   PO431638  26.234   7.098  13.581 -0.2673  0.0018  0.0773
 2697POSM   AM131639  26.182   7.059  13.889  0.1775  0.1234 -0.3268
 2697POSM   AM231640  25.991   7.197  13.980  0.3809  0.2907 -0.2292
 2697POSM   T1A31641  26.398   6.988  14.320  0.0654 -0.0316 -0.1695
 2697POSM   C2A31642  26.653   7.021  14.738 -0.1111 -0.0017  0.1761
 2697POSM   C3A31643  26.668   6.800  15.171  0.2194  0.0317 -0.0441
 2697POSM   C1B31644  26.026   7.351  14.281  0.4225  0.3078 -0.1654
 2697POSM   D2B31645  25.750   7.642  14.522 -0.0842  0.1115 -0.1431
 2697POSM   C3B31646  25.393   7.683  14.305  0.2613  0.0544 -0.1235
 2697POSM   C4B31647  25.061   7.860  14.052 -0.3272  0.1919 -0.0312
 2698POSM   NC331648  25.780   6.906  13.609  0.0351 -0.0093  0.0462
 2698POSM   PO431649  25.468   7.004  13.375 -0.0503 -0.1174 -0.0749
 2698POSM   AM131650  25.335   6.791  13.586 -0.3593 -0.0003  0.2486
 2698POSM   AM231651  25.085   6.793  13.687  0.1045  0.0702 -0.0049
 2698POSM   T1A31652  25.367   6.707  14.069  0.0322 -0.1880 -0.2476
 2698POSM   C2A31653  25.331   6.545  14.490 -0.1305  0.1254  0.0706
 2698POSM   C3A31654  25.229   6.690  14.905  0.1639 -0.0493 -0.0037
 2698POSM   C1B31655  24.924   6.823  13.965  0.0814  0.3621  0.0787
 2698POSM   D2B31656  24.916   6.928  14.383 -0.3440 -0.1149 -0.2890
 2698POSM   C3B31657  24.511   6.922  14.683 -0.0104  0.0318 -0.0489
 2698POSM   C4B31658  24.286   7.140  15.082 -0.3463 -0.2924  0.1270
 2699DOPS   CNO31659  31.811   6.380  13.069  0.3193 -0.3149 -0.2137
 2699DOPS   PO431660  31.470   6.195  13.115 -0.0057 -0.0569  0.2820
 2699DOPS   GL131661  31.830   5.952  13.255  0.0471  0.3291 -0.0438
 2699DOPS   GL231662  32.099   6.013  13.281 -0.3222 -0.0232  0.1430
 2699DOPS   C1A31663  31.927   5.470  13.228  0.0740  0.0092  0.1195
 2699DOPS   D2A31664  32.108   5.040  13.298  0.0451 -0.0173  0.0916
 2699DOPS   C3A31665  31.851   4.715  13.441  0.3116 -0.0974 -0.0427
 2699DOPS   C4A31666  31.832   4.200  13.395 -0.1631 -0.0829 -0.2897
 2699DOPS   C1B31667  32.487   5.733  13.333  0.0794  0.3422 -0.2196
 2699DOPS   D2B31668  32.634   5.300  13.223  0.0598 -0.1099  0.0228
 2699DOPS   C3B31669  32.706   5.004  13.581 -0.2865  0.1380  0.0934
 2699DOPS   C4B31670  32.932   4.569  13.733  0.0817  0.2111  0.0203
 2700POSM   NC331671  29.497  34.630  13.317  0.0764 -0.3519 -0.1261
 2700POSM   PO431672  29.389  34.510  13.692 -0.0370  0.1994 -0.1345
 2700POSM   AM131673  29.280  34.750  13.899 -0.1621  0.0014  0.0118
 2700POSM   AM231674  29.104  34.670  14.147  0.1135 -0.2573  0.3883
 2700POSM   T1A31675  29.399  35.243  14.042 -0.3239 -0.2747 -0.0289
 2700POSM   C2A31676  29.596  35.551  13.710  0.2712 -0.0458  0.0884
 2700POSM   C3A31677  29.543  35.994  13.566  0.0707 -0.2111  0.1552
 2700POSM   C1B31678  29.074  34.923  14.325  0.0877  0.3742  0.0770
 2700POSM   D2B31679  28.829  35.301  14.477  0.0719 -0.0502 -0.1700
 2700POSM   C3B31680  28.907  35.629  14.866  0.2028 -0.0392 -0.0603
 2700POSM   C4B31681  28.741  35.893  15.215  0.1141 -0.0512  0.0485
 2701DOPE   NH331682  34.386   4.016  13.403  0.0979 -0.0279 -0.2473
 2701DOPE   PO431683  34.180   4.089  13.639 -0.2807 -0.3050 -0.2325
 2701DOPE   GL131684  33.883   3.876  13.693  0.3495  0.1590 -0.0996
 2701DOPE   GL231685  33.644   4.006  13.670  0.1144 -0.1064 -0.0334
 2701DOPE   C1A31686  33.984   3.625  14.045 -0.3983  0.0140 -0.1343
 2701DOPE   D2A31687  33.976   3.445  14.451 -0.1172  0.1781 -0.0883
 2701DOPE   C3A31688  34.401   3.577  14.615  0.0278 -0.0485 -0.3585
 2701DOPE   C4A31689  34.712   3.717  14.944  0.0037 -0.2019 -0.2515
 2701DOPE   C1B31690  33.246   4.193  13.487  0.4615 -0.1223 -0.0061
 2701DOPE   D2B31691  32.826   4.217  13.265  0.0582 -0.0518 -0.1078
 2701DOPE   C3B31692  32.470   3.939  13.421  0.2182  0.1940  0.0691
 2701DOPE   C4B31693  32.148   3.616  13.362 -0.1229  0.1464  0.0374
 2702DOPE   NH331694  33.867  10.904  13.666 -0.0953  0.2195 -0.1148
 2702DOPE   PO431695  33.868  10.852  13.970 -0.0951  0.3315  0.0435
 2702DOPE   GL131696  33.805  10.677  14.317 -0.1736  0.0785 -0.0022
 2702DOPE   GL231697  33.711  10.438  14.400 -0.2171  0.3844  0.0109
 2702DOPE   C1A31698  33.959  10.691  14.764  0.1041  0.2763 -0.2584
 2702DOPE   D2A31699  34.070  10.502  15.160  0.0247  0.3089  0.3654
 2702DOPE   C3A31700  34.299  10.854  15.336  0.0532 -0.1483 -0.1312
 2702DOPE   C4A31701  34.413  11.266  15.490  0.2532 -0.1017 -0.1438
 2702DOPE   C1B31702  33.457  10.401  14.745  0.0006 -0.3151  0.1785
 2702DOPE   D2B31703  33.292  10.412  15.146 -0.0854  0.0085 -0.0507
 2702DOPE   C3B31704  33.602  10.700  15.262 -0.0846  0.1854 -0.0746
 2702DOPE   C4B31705  33.841  11.029  15.449  0.0723  0.0439 -0.1874
 2703DOPE   NH331706  28.610   7.696  13.859  0.0882  0.0647 -0.2092
 2703DOPE   PO431707  28.546   7.640  13.565  0.1415  0.0350  0.2808
 2703DOPE   GL131708  28.190   7.616  13.816 -0.1246 -0.1815  0.0459
 2703DOPE   GL231709  28.275   7.314  13.818 -0.3782 -0.1563 -0.2967
 2703DOPE   C1A31710  28.021   7.487  14.220  0.4700 -0.1910  0.0771
 2703DOPE   D2A31711  28.143   7.130  14.494 -0.4163  0.1066 -0.1028
 2703DOPE   C3A31712  28.001   6.715  14.398 -0.0606 -0.3369  0.0310
 2703DOPE   C4A31713  27.863   6.357  14.611 -0.2701  0.0544  0.0821
 2703DOPE   C1B31714  28.516   6.995  13.560  0.1506  0.0608 -0.0105
 2703DOPE   D2B31715  28.726   6.595  13.652  0.1005 -0.2220  0.0742
 2703DOPE   C3B31716  28.769   6.259  13.231 -0.0805  0.2116 -0.1413
 2703DOPE   C4B31717  28.690   5.887  12.892 -0.1718 -0.1298  0.2274
 2704DOPE   NH331718  24.327   3.276  13.042 -0.0210 -0.2377 -0.2198
 2704DOPE   PO431719  24.506   3.172  12.750 -0.0995  0.1468  0.1707
 2704DOPE   GL131720  24.639   2.807  12.810  0.0232 -0.1570  0.4002
 2704DOPE   GL231721  24.607   2.786  13.075  0.1197 -0.1836 -0.4082
 2704DOPE   C1A31722  24.438   2.386  12.756  0.0142 -0.0346 -0.2893
 2704DOPE   D2A31723  24.172   2.020  12.645 -0.0349  0.2168  0.0479
 2704DOPE   C3A31724  23.698   1.951  12.586 -0.1544  0.1718 -0.1964
 2704DOPE   C4A31725  23.479   1.635  12.388 -0.0002  0.0126  0.0596
 2704DOPE   C1B31726  24.407   2.391  13.247  0.0138 -0.2592 -0.0118
 2704DOPE   D2B31727  24.150   2.028  13.371 -0.0372  0.2609 -0.2908
 2704DOPE   C3B31728  24.127   1.977  13.821  0.0930  0.0613 -0.0257
 2704DOPE   C4B31729  24.049   1.824  14.230 -0.1816  0.0666 -0.0333
 2705POSM   NC331730  24.697   3.406  13.498 -0.1525 -0.0936 -0.3244
 2705POSM   PO431731  24.817   3.221  13.181 -0.0585  0.1422 -0.1473
 2705POSM   AM131732  24.952   3.019  13.419  0.0942  0.1627  0.1180
 2705POSM   AM231733  25.077   3.147  13.635 -0.0658 -0.0401 -0.1536
 2705POSM   T1A31734  25.283   2.700  13.605 -0.0390  0.0057  0.4280
 2705POSM   C2A31735  25.554   2.546  13.266  0.1762 -0.0763  0.1025
 2705POSM   C3A31736  25.948   2.474  13.012  0.1250  0.1109  0.3321
 2705POSM   C1B31737  24.826   3.061  13.854  0.1011  0.1311 -0.0140
 2705POSM   D2B31738  24.628   2.733  14.103 -0.2231  0.0622  0.0862
 2705POSM   C3B31739  24.590   2.261  14.019 -0.0305 -0.1918  0.0089
 2705POSM   C4B31740  24.575   1.975  13.663 -0.2644  0.0109 -0.0330
 2706DOPC   NC331741  33.618  10.846  13.268 -0.0301  0.1421  0.0743
 2706DOPC   PO431742  33.481  10.512  13.441 -0.0751 -0.1702 -0.0913
 2706DOPC   GL131743  33.274  10.173  13.539  0.3074  0.3085 -0.0514
 2706DOPC   GL231744  33.020  10.066  13.606  0.3452  0.3472 -0.1820
 2706DOPC   C1A31745  33.296   9.755  13.352 -0.0934  0.0593 -0.0514
 2706DOPC   D2A31746  33.297   9.305  13.465 -0.1404 -0.1188  0.3411
 2706DOPC   C3A31747  32.974   9.000  13.283  0.0964 -0.2071  0.1561
 2706DOPC   C4A31748  32.535   9.036  13.114 -0.0611  0.2213 -0.0055
 2706DOPC   C1B31749  32.868   9.641  13.709  0.1348  0.3732 -0.1465
 2706DOPC   D2B31750  32.621   9.263  13.593  0.1076  0.0961 -0.1679
 2706DOPC   C3B31751  32.266   9.413  13.349 -0.2690  0.0169 -0.1103
 2706DOPC   C4B31752  32.010   9.497  13.032 -0.1123  0.0187  0.0270
 2707DOPC   NC331753  29.672   9.847  13.777 -0.1888  0.2669 -0.1365
 2707DOPC   PO431754  29.514   9.815  13.416 -0.1239 -0.1186  0.0643
 2707DOPC   GL131755  29.339   9.542  13.607  0.0692 -0.0124 -0.1767
 2707DOPC   GL231756  29.288   9.340  13.669  0.2471 -0.1626  0.3593
 2707DOPC   C1A31757  29.109   9.752  13.969 -0.1463 -0.3139 -0.2519
 2707DOPC   D2A31758  29.063   9.839  14.402 -0.1511 -0.5625  0.0879
 2707DOPC   C3A31759  28.720   9.592  14.559  0.2502  0.0332 -0.0296
 2707DOPC   C4A31760  28.471   9.463  14.922 -0.1727 -0.2637 -0.1227
 2707DOPC   C1B31761  28.986   9.223  14.032 -0.0489 -0.2901 -0.1391
 2707DOPC   D2B31762  28.918   9.179  14.501 -0.0499  0.1532 -0.3894
 2707DOPC   C3B31763  28.467   9.128  14.557  0.1842  0.1652 -0.0959
 2707DOPC   C4B31764  28.108   8.918  14.556 -0.0385  0.2140 -0.2691
 2708POSM   NC331765  25.633   5.258  13.073 -0.0882 -0.2376  0.3436
 2708POSM   PO431766  25.798   5.435  13.398 -0.0912  0.0183 -0.3448
 2708POSM   AM131767  25.523   5.268  13.507  0.0153 -0.4566  0.1712
 2708POSM   AM231768  25.457   5.052  13.695 -0.0310  0.0969  0.2664
 2708POSM   T1A31769  25.035   5.223  13.400 -0.0272  0.0319  0.0062
 2708POSM   C2A31770  24.717   4.942  13.635  0.1889 -0.0393 -0.1921
 2708POSM   C3A31771  24.406   4.673  13.886 -0.0196  0.2721  0.0973
 2708POSM   C1B31772  25.265   4.968  13.905 -0.0986  0.2724 -0.0327
 2708POSM   D2B31773  25.018   5.076  14.257  0.0134  0.0950  0.1362
 2708POSM   C3B31774  24.587   4.917  14.238 -0.0339 -0.1239 -0.1005
 2708POSM   C4B31775  24.186   4.789  14.370  0.0246  0.0745 -0.0353
 2709POSM   NC331776  32.512   6.513  12.906  0.1925  0.1293  0.0363
 2709POSM   PO431777  32.338   6.542  13.236  0.1312 -0.1178 -0.0439
 2709POSM   AM131778  32.344   6.363  13.519  0.1950  0.1580 -0.0745
 2709POSM   AM231779  32.336   6.457  13.765  0.0738  0.3426 -0.0832
 2709POSM   T1A31780  32.324   5.931  13.747 -0.1228  0.1353 -0.2819
 2709POSM   C2A31781  32.225   5.702  14.144 -0.1313  0.1386 -0.1064
 2709POSM   C3A31782  32.481   5.461  14.470 -0.0716  0.2253 -0.0040
 2709POSM   C1B31783  32.190   6.371  14.050  0.0168  0.0250 -0.1107
 2709POSM   D2B31784  32.025   6.294  14.479  0.1298 -0.0229 -0.0343
 2709POSM   C3B31785  32.309   6.341  14.884 -0.0853 -0.1923  0.1594
 2709POSM   C4B31786  32.449   6.793  14.989  0.0623 -0.0191 -0.1714
 2710DOPS   CNO31787  30.833   3.014  13.173  0.0482 -0.2537  0.0819
 2710DOPS   PO431788  30.753   3.189  13.515  0.0217 -0.0431 -0.0809
 2710DOPS   GL131789  31.149   3.023  13.580  0.1797  0.1135 -0.1101
 2710DOPS   GL231790  31.333   2.887  13.460  0.1627  0.0903  0.2395
 2710DOPS   C1A31791  31.414   2.905  13.951 -0.1032  0.0921 -0.0045
 2710DOPS   D2A31792  31.523   2.473  14.125 -0.1315 -0.2895  0.0688
 2710DOPS   C3A31793  31.674   2.310  14.544  0.1043  0.0915 -0.2976
 2710DOPS   C4A31794  31.755   2.516  14.955  0.1748 -0.2051  0.1029
 2710DOPS   C1B31795  31.432   2.653  13.137  0.2043  0.2863  0.0436
 2710DOPS   D2B31796  31.462   2.205  13.140  0.1806  0.0971  0.3088
 2710DOPS   C3B31797  31.773   2.075  12.827 -0.1033 -0.1890 -0.1681
 2710DOPS   C4B31798  32.154   2.099  12.524  0.2769  0.0898  0.3133
 2711DOPE   NH331799  30.041   7.265  13.950 -0.0834 -0.1714 -0.0223
 2711DOPE   PO431800  30.160   7.515  13.895 -0.0415  0.2021 -0.1826
 2711DOPE   GL131801  30.444   7.697  13.736 -0.3207  0.1898 -0.3662
 2711DOPE   GL231802  30.335   7.640  13.445  0.2980 -0.1453 -0.0384
 2711DOPE   C1A31803  30.864   7.908  13.792  0.4182  0.1391  0.0892
 2711DOPE   D2A31804  30.853   8.086  14.225 -0.2343 -0.3036 -0.4663
 2711DOPE   C3A31805  30.517   8.338  14.462  0.0894  0.1198 -0.1464
 2711DOPE   C4A31806  30.287   8.541  14.753  0.0430  0.1278 -0.0261
 2711DOPE   C1B31807  30.777   7.677  13.298 -0.0672  0.0781 -0.0685
 2711DOPE   D2B31808  31.196   7.833  13.354  0.2793  0.1248 -0.0174
 2711DOPE   C3B31809  31.465   7.773  13.001  0.0000 -0.1677  0.0765
 2711DOPE   C4B31810  31.732   7.840  12.606 -0.1167 -0.2307  0.0331
 2712DOPC   NC331811  30.160   5.358  13.414 -0.3037 -0.3518  0.0749
 2712DOPC   PO431812  29.888   5.304  13.675  0.0092  0.0310 -0.0669
 2712DOPC   GL131813  29.906   5.299  14.116 -0.1840 -0.3985  0.3883
 2712DOPC   GL231814  29.635   5.371  14.191  0.0304 -0.2563 -0.0148
 2712DOPC   C1A31815  30.075   4.977  14.435 -0.4228  0.1174 -0.1866
 2712DOPC   D2A31816  30.071   4.547  14.664 -0.0035 -0.2856 -0.0859
 2712DOPC   C3A31817  30.439   4.342  14.844  0.0801 -0.0451 -0.3788
 2712DOPC   C4A31818  30.832   4.290  14.939 -0.0732  0.1741  0.1689
 2712DOPC   C1B31819  29.558   5.233  14.582 -0.0483  0.2133 -0.0741
 2712DOPC   D2B31820  29.735   5.247  15.027 -0.3421 -0.1639  0.0336
 2712DOPC   C3B31821  29.491   5.195  15.430  0.0707 -0.2254  0.1267
 2712DOPC   C4B31822  29.048   5.180  15.600  0.2323  0.1361  0.1462
 2713DOPC   NC331823  28.763   7.849  13.139 -0.1061 -0.1184  0.1270
 2713DOPC   PO431824  28.505   8.087  13.246 -0.2625 -0.1035 -0.2032
 2713DOPC   GL131825  28.488   8.227  13.516  0.0493  0.0731 -0.1229
 2713DOPC   GL231826  28.296   8.080  13.716  0.1093 -0.0020  0.1569
 2713DOPC   C1A31827  28.307   8.517  13.855 -0.0286 -0.1345  0.0885
 2713DOPC   D2A31828  28.128   8.867  14.066 -0.0016 -0.3126  0.1867
 2713DOPC   C3A31829  27.712   8.941  14.257  0.0456  0.0167  0.0729
 2713DOPC   C4A31830  27.321   8.904  14.422  0.1293  0.1832 -0.1179
 2713DOPC   C1B31831  27.949   8.001  13.965  0.2034 -0.0254 -0.5802
 2713DOPC   D2B31832  27.619   7.959  14.272 -0.0413  0.0637 -0.3878
 2713DOPC   C3B31833  27.827   7.731  14.626 -0.0894  0.0841  0.0702
 2713DOPC   C4B31834  28.166   7.859  14.935 -0.0038 -0.0011 -0.0537
 2714DOPC   NC331835  27.954  11.224  13.492 -0.0648 -0.0128 -0.3610
 2714DOPC   PO431836  28.047  10.953  13.221 -0.0435  0.5679 -0.0840
 2714DOPC   GL131837  28.002  10.547  13.326 -0.0922 -0.1754 -0.1009
 2714DOPC   GL231838  27.748  10.438  13.140 -0.3918 -0.0949  0.2163
 2714DOPC   C1A31839  28.038  10.037  13.328 -0.3230 -0.2052 -0.1201
 2714DOPC   D2A31840  27.749   9.677  13.435 -0.2221 -0.0460 -0.0983
 2714DOPC   C3A31841  27.445   9.563  13.768 -0.1236 -0.3184 -0.0013
 2714DOPC   C4A31842  27.253   9.349  14.116 -0.1309  0.0958  0.1849
 2714DOPC   C1B31843  27.703  10.336  13.572 -0.1417  0.0597 -0.0529
 2714DOPC   D2B31844  27.583  10.045  13.926 -0.2263 -0.1142 -0.0674
 2714DOPC   C3B31845  27.377   9.838  14.264  0.0353  0.0809  0.2248
 2714DOPC   C4B31846  27.230   9.702  14.698 -0.0203  0.0021 -0.2340
 2715DOPE   NH331847  31.017   0.689  13.274 -0.2142  0.1822 -0.0996
 2715DOPE   PO431848  30.787   0.673  13.473 -0.1707 -0.0610 -0.0374
 2715DOPE   GL131849  30.535   0.612  13.813  0.1532 -0.1085 -0.6396
 2715DOPE   GL231850  30.262   0.483  13.733 -0.0647  0.1403 -0.2273
 2715DOPE   C1A31851  30.319   0.508  14.225 -0.3364 -0.1242 -0.4580
 2715DOPE   D2A31852  30.046   0.619  14.581  0.1305 -0.0264  0.0890
 2715DOPE   C3A31853  29.841   1.051  14.680 -0.1827  0.1428 -0.0611
 2715DOPE   C4A31854  29.489   1.155  14.870  0.1441  0.0095 -0.1526
 2715DOPE   C1B31855  30.107   0.905  13.782  0.2588 -0.2732 -0.0948
 2715DOPE   D2B31856  30.254   1.030  14.215 -0.3740  0.0200 -0.1978
 2715DOPE   C3B31857  30.272   1.213  14.692  0.0071 -0.4814  0.1311
 2715DOPE   C4B31858  30.104   1.276  15.119  0.0254 -0.2919  0.2052
 2716DOPC   NC331859  34.098   7.828  14.230  0.0655 -0.0820  0.2764
 2716DOPC   PO431860  33.824   7.868  13.946  0.0043  0.0184  0.0729
 2716DOPC   GL131861  33.522   8.151  14.201  0.0155 -0.4234 -0.1534
 2716DOPC   GL231862  33.282   8.093  14.132  0.1674 -0.4290  0.0781
 2716DOPC   C1A31863  33.352   8.513  14.395  0.1405 -0.1011 -0.1172
 2716DOPC   D2A31864  32.914   8.804  14.398 -0.2761 -0.3235 -0.1372
 2716DOPC   C3A31865  32.910   9.291  14.433 -0.1414  0.3519  0.2077
 2716DOPC   C4A31866  32.741   9.608  14.701 -0.4497  0.3072 -0.1313
 2716DOPC   C1B31867  32.940   8.154  14.466  0.2751  0.0577  0.0729
 2716DOPC   D2B31868  32.663   7.961  14.767  0.1887  0.1153 -0.4506
 2716DOPC   C3B31869  32.669   7.975  15.241  0.1862 -0.4113 -0.2202
 2716DOPC   C4B31870  32.869   7.990  15.683 -0.0064  0.0630  0.2533
 2717POSM   NC331871  26.060   3.748  13.669 -0.1864  0.2914  0.0929
 2717POSM   PO431872  26.355   3.873  13.412  0.3181  0.0758  0.0733
 2717POSM   AM131873  26.530   3.722  13.647  0.2862  0.2745  0.2660
 2717POSM   AM231874  26.466   3.506  13.772 -0.1162 -0.1030 -0.1656
 2717POSM   T1A31875  26.911   3.600  13.903  0.1248 -0.1038 -0.1332
 2717POSM   C2A31876  27.180   3.900  14.175 -0.1356 -0.1517 -0.0276
 2717POSM   C3A31877  27.575   4.092  14.150 -0.0037  0.1433  0.1911
 2717POSM   C1B31878  26.536   3.307  14.043 -0.1809  0.2629  0.1869
 2717POSM   D2B31879  26.584   2.915  14.373 -0.1411  0.4470 -0.2926
 2717POSM   C3B31880  26.281   2.930  14.669  0.1016  0.0057 -0.0899
 2717POSM   C4B31881  26.148   2.852  15.092  0.2144 -0.0333  0.2309
 2718DOPS   CNO31882  26.843  34.306  13.031  0.2262 -0.1769 -0.0079
 2718DOPS   PO431883  26.855  34.007  13.225  0.4309  0.0916  0.0330
 2718DOPS   GL131884  26.821  33.785  13.579  0.3196 -0.1716  0.2360
 2718DOPS   GL231885  27.138  33.878  13.607 -0.1022  0.2413 -0.1430
 2718DOPS   C1A31886  26.671  33.436  13.913  0.1050  0.0153 -0.0006
 2718DOPS   D2A31887  26.642  33.024  14.109  0.2766  0.2274 -0.0531
 2718DOPS   C3A31888  26.633  32.637  13.846 -0.1510 -0.0871 -0.0979
 2718DOPS   C4A31889  26.318  32.432  13.512 -0.1429 -0.2274  0.5892
 2718DOPS   C1B31890  27.190  33.464  13.861  0.0090 -0.0558  0.3241
 2718DOPS   D2B31891  27.044  33.252  14.283 -0.1932 -0.0160  0.1509
 2718DOPS   C3B31892  26.791  32.977  14.578  0.1814 -0.0933 -0.0293
 2718DOPS   C4B31893  26.404  33.061  14.653  0.2457 -0.0129  0.0935
 2719DOPE   NH331894  26.120   6.795  13.224 -0.0259  0.2688  0.2057
 2719DOPE   PO431895  25.873   6.951  13.082  0.0415  0.1394  0.0929
 2719DOPE   GL131896  25.597   6.640  13.134 -0.2239  0.1134 -0.0596
 2719DOPE   GL231897  25.575   6.470  13.405 -0.2209  0.1055  0.1529
 2719DOPE   C1A31898  25.395   6.272  12.951  0.0856  0.3615 -0.1587
 2719DOPE   D2A31899  25.219   5.893  13.100 -0.0711  0.1264 -0.1128
 2719DOPE   C3A31900  25.037   5.700  13.532 -0.2777 -0.2011 -0.0334
 2719DOPE   C4A31901  24.925   5.463  13.880 -0.5228 -0.2020 -0.1831
 2719DOPE   C1B31902  25.257   6.346  13.696  0.1002 -0.0942 -0.1091
 2719DOPE   D2B31903  25.001   6.356  14.099  0.0493 -0.2370  0.0531
 2719DOPE   C3B31904  24.845   5.989  14.382 -0.1055 -0.0589 -0.2053
 2719DOPE   C4B31905  24.686   5.545  14.434  0.0852  0.0655 -0.0792
 2720POSM   NC331906  23.715   2.933  13.405  0.0109 -0.1029  0.1928
 2720POSM   PO431907  24.060   2.892  13.162 -0.1971  0.1466 -0.0124
 2720POSM   AM131908  24.200   3.023  13.423  0.0665 -0.0350  0.1070
 2720POSM   AM231909  24.436   2.974  13.600  0.0633  0.0240 -0.2681
 2720POSM   T1A31910  24.123   3.183  13.909 -0.2010 -0.0551 -0.3956
 2720POSM   C2A31911  23.751   3.354  14.220  0.0929  0.0090 -0.3806
 2720POSM   C3A31912  23.339   3.390  14.374 -0.1806  0.1391  0.3017
 2720POSM   C1B31913  24.607   2.697  13.552 -0.0181  0.0333  0.1350
 2720POSM   D2B31914  24.927   2.450  13.708  0.3141 -0.0463 -0.0764
 2720POSM   C3B31915  25.274   2.139  13.503 -0.2216  0.1434 -0.2977
 2720POSM   C4B31916  25.659   2.076  13.197 -0.3153  0.1068 -0.0500
 2721DOPC   NC331917  29.790   5.044  13.137 -0.1222  0.1086 -0.1465
 2721DOPC   PO431918  29.604   5.380  13.242 -0.0223  0.1400  0.1025
 2721DOPC   GL131919  29.447   5.239  13.646 -0.2560 -0.1900 -0.2587
 2721DOPC   GL231920  29.263   5.467  13.627 -0.2915 -0.2379 -0.0123
 2721DOPC   C1A31921  29.124   5.105  13.950  0.0150 -0.0834  0.3074
 2721DOPC   D2A31922  28.829   4.806  14.127  0.3339 -0.3462  0.2637
 2721DOPC   C3A31923  28.576   4.966  14.486  0.0354 -0.2271  0.2251
 2721DOPC   C4A31924  28.339   5.193  14.772 -0.0010  0.1571  0.0097
 2721DOPC   C1B31925  28.749   5.400  13.689 -0.2045 -0.1965  0.2115
 2721DOPC   D2B31926  28.535   5.025  13.712  0.0772  0.0128 -0.0715
 2721DOPC   C3B31927  28.300   4.817  14.082  0.1550 -0.1302  0.0270
 2721DOPC   C4B31928  27.913   4.532  14.136 -0.3448 -0.1950 -0.0009
 2722DOPS   CNO31929  26.537   0.116  13.220 -0.1357  0.1572  0.1261
 2722DOPS   PO431930  26.646  -0.130  13.488 -0.0171 -0.3376  0.2781
 2722DOPS   GL131931  26.303  -0.263  13.714  0.1468  0.0040  0.1347
 2722DOPS   GL231932  26.359  -0.427  14.020  0.1627 -0.0623 -0.1684
 2722DOPS   C1A31933  25.933  -0.101  14.018 -0.0089  0.2128  0.0965
 2722DOPS   D2A31934  25.525  -0.000  14.235  0.0391  0.0854  0.1601
 2722DOPS   C3A31935  25.307  -0.281  14.592 -0.0993  0.3740  0.0698
 2722DOPS   C4A31936  24.907  -0.446  14.748 -0.0257 -0.0169 -0.0817
 2722DOPS   C1B31937  26.404  -0.254  14.445 -0.1456 -0.0540  0.3496
 2722DOPS   D2B31938  26.696  -0.082  14.775  0.2103  0.2058 -0.0666
 2722DOPS   C3B31939  26.541   0.317  14.877 -0.0432  0.0471  0.1197
 2722DOPS   C4B31940  26.459   0.645  15.221 -0.0919 -0.1546  0.4842
 2723DOPC   NC331941  25.426   4.397  13.069  0.0347 -0.1707  0.0633
 2723DOPC   PO431942  25.450   4.131  13.380  0.2948  0.0242 -0.2397
 2723DOPC   GL131943  25.461   4.196  13.733 -0.0883 -0.2214  0.3773
 2723DOPC   GL231944  25.626   3.968  13.784  0.0724 -0.0219 -0.0233
 2723DOPC   C1A31945  25.376   4.475  14.080  0.0459  0.0338 -0.1961
 2723DOPC   D2A31946  25.250   4.470  14.525  0.1548 -0.1530  0.1631
 2723DOPC   C3A31947  24.884   4.720  14.599 -0.0309  0.1379 -0.1389
 2723DOPC   C4A31948  24.570   4.953  14.805  0.0506  0.1118  0.1294
 2723DOPC   C1B31949  25.239   3.946  14.086  0.4617  0.2956  0.1688
 2723DOPC   D2B31950  24.837   3.883  14.271 -0.2538 -0.0279 -0.2957
 2723DOPC   C3B31951  24.870   3.565  14.622  0.1637  0.4111 -0.4432
 2723DOPC   C4B31952  24.887   3.691  15.048 -0.0011 -0.2176  0.0450
 2724DOPC   NC331953  29.172   3.934  13.429 -0.0784 -0.0704  0.1423
 2724DOPC   PO431954  29.083   3.636  13.708 -0.2584 -0.0300  0.0183
 2724DOPC   GL131955  28.795   3.608  14.002 -0.3799  0.4452 -0.1562
 2724DOPC   GL231956  28.560   3.488  14.074 -0.2170 -0.1181  0.0364
 2724DOPC   C1A31957  28.781   3.793  14.461 -0.2810  0.0497 -0.0846
 2724DOPC   D2A31958  28.663   4.181  14.725  0.0013  0.1064 -0.0596
 2724DOPC   C3A31959  28.439   4.260  15.116  0.1364 -0.2312 -0.0949
 2724DOPC   C4A31960  28.190   3.881  15.326 -0.0050  0.1532 -0.2104
 2724DOPC   C1B31961  28.132   3.551  14.203  0.2218  0.1891  0.3206
 2724DOPC   D2B31962  27.712   3.648  14.287 -0.0046  0.2587  0.0994
 2724DOPC   C3B31963  27.420   3.444  13.948  0.3182  0.0920  0.1487
 2724DOPC   C4B31964  27.170   3.317  13.602  0.0110 -0.3086  0.2487
 2725DOPE   NH331965  29.699   3.241  14.351  0.0472 -0.0340  0.2199
 2725DOPE   PO431966  29.911   3.036  14.248 -0.0116 -0.0860 -0.2822
 2725DOPE   GL131967  30.060   3.251  14.623 -0.0128  0.2124 -0.1924
 2725DOPE   GL231968  30.245   2.963  14.600 -0.0136  0.0652 -0.1027
 2725DOPE   C1A31969  29.950   3.068  15.010  0.3299 -0.4022  0.0250
 2725DOPE   D2A31970  29.870   2.910  15.425 -0.4172 -0.1244  0.0539
 2725DOPE   C3A31971  29.621   2.608  15.671 -0.1338 -0.0251  0.0974
 2725DOPE   C4A31972  29.207   2.452  15.690 -0.2653 -0.0058  0.2342
 2725DOPE   C1B31973  30.104   2.626  14.928  0.1669  0.0339 -0.0103
 2725DOPE   D2B31974  29.961   2.142  14.979  0.1096 -0.4310 -0.2906
 2725DOPE   C3B31975  29.674   1.874  15.236  0.1414  0.1671  0.0867
 2725DOPE   C4B31976  29.631   1.371  15.306  0.0772  0.1636  0.1204
 2726DOPC   NC331977  25.386   3.092  13.215 -0.1377  0.0182  0.0492
 2726DOPC   PO431978  25.709   3.099  12.957  0.0176 -0.0070 -0.3780
 2726DOPC   GL131979  25.957   3.008  13.212  0.0727 -0.1735 -0.2302
 2726DOPC   GL231980  25.845   3.189  13.475 -0.0632 -0.3891 -0.0429
 2726DOPC   C1A31981  26.003   2.650  13.501  0.0830  0.1962  0.0172
 2726DOPC   D2A31982  26.024   2.115  13.563 -0.1080 -0.1671 -0.0773
 2726DOPC   C3A31983  26.028   1.705  13.786 -0.0078 -0.1681  0.0097
 2726DOPC   C4A31984  26.034   1.631  14.259  0.2530  0.1396 -0.0237
 2726DOPC   C1B31985  25.680   2.906  13.868 -0.0758 -0.0911  0.3255
 2726DOPC   D2B31986  25.292   2.819  14.103 -0.0155  0.0807 -0.1740
 2726DOPC   C3B31987  25.095   2.415  14.213 -0.1009 -0.0391  0.0243
 2726DOPC   C4B31988  24.926   2.131  14.465  0.0614 -0.2544  0.0941
 2727DOPC   NC331989  30.145  11.380  13.552  0.1013 -0.1162 -0.0612
 2727DOPC   PO431990  30.425  11.398  13.295  0.2417 -0.0658  0.3097
 2727DOPC   GL131991  30.539  11.710  13.573 -0.0907 -0.2413  0.3274
 2727DOPC   GL231992  30.757  11.777  13.426 -0.1656  0.0611  0.0469
 2727DOPC   C1A31993  30.484  11.716  14.037 -0.3334  0.3406  0.1076
 2727DOPC   D2A31994  30.574  11.611  14.512 -0.2673 -0.0714 -0.0046
 2727DOPC   C3A31995  30.673  11.891  14.863  0.0663  0.0872 -0.0568
 2727DOPC   C4A31996  30.595  12.234  15.093  0.0371  0.1170  0.0541
 2727DOPC   C1B31997  31.184  11.854  13.249 -0.1410 -0.1560  0.2973
 2727DOPC   D2B31998  31.501  12.103  13.057  0.2895  0.0060  0.0061
 2727DOPC   C3B31999  31.924  11.999  13.217 -0.0484  0.1375 -0.0236
 2727DOPC   C4B32000  32.143  11.863  13.612  0.1002 -0.2290  0.2136
 2728POSM   NC332001  29.067  10.489  13.041  0.2731  0.0323 -0.1452
 2728POSM   PO432002  28.941  10.699  13.349 -0.1931 -0.0575  0.0741
 2728POSM   AM132003  28.756  10.512  13.511 -0.2786  0.0077 -0.0592
 2728POSM   AM232004  28.570  10.311  13.496  0.2501 -0.2059 -0.0760
 2728POSM   T1A32005  28.774  10.126  13.873 -0.0863  0.0843  0.2436
 2728POSM   C2A32006  28.565   9.757  14.119  0.2067  0.2450 -0.0236
 2728POSM   C3A32007  28.400   9.389  14.102  0.0172  0.0999  0.2896
 2728POSM   C1B32008  28.293  10.257  13.689 -0.2367 -0.0934  0.1748
 2728POSM   D2B32009  28.057   9.940  13.917  0.4245 -0.3092  0.0465
 2728POSM   C3B32010  27.889   9.674  14.274  0.1969  0.1608  0.1309
 2728POSM   C4B32011  28.067   9.431  14.640 -0.1268 -0.1962  0.0901
 2729DOPE   NH332012  30.053   4.323  13.524 -0.2535 -0.1165  0.1054
 2729DOPE   PO432013  29.841   4.199  13.339 -0.3146 -0.1443 -0.0936
 2729DOPE   GL132014  29.523   4.406  13.435 -0.1305 -0.0359 -0.3554
 2729DOPE   GL232015  29.433   4.531  13.738  0.4132  0.1891 -0.0445
 2729DOPE   C1A32016  29.316   4.774  13.206  0.2063 -0.0151 -0.2496
 2729DOPE   D2A32017  28.907   4.974  13.360 -0.0672 -0.1004 -0.1828
 2729DOPE   C3A32018  28.891   5.408  13.215  0.1502 -0.0807 -0.2024
 2729DOPE   C4A32019  28.623   5.780  13.387 -0.1483  0.0044 -0.2533
 2729DOPE   C1B32020  28.984   4.490  13.678  0.1447 -0.0833 -0.2167
 2729DOPE   D2B32021  28.478   4.480  13.773 -0.2713 -0.3474 -0.1318
 2729DOPE   C3B32022  28.169   4.681  13.526 -0.0331 -0.2048 -0.3048
 2729DOPE   C4B32023  27.674   4.744  13.666  0.2115 -0.0008 -0.0281
 2730DOPS   CNO32024  28.842   3.780  13.052  0.1673  0.1090  0.1363
 2730DOPS   PO432025  28.947   3.495  13.269 -0.2527 -0.2703  0.2213
 2730DOPS   GL132026  28.670   3.644  13.476 -0.1143 -0.1143 -0.1327
 2730DOPS   GL232027  28.651   3.840  13.624  0.2678 -0.0703 -0.3274
 2730DOPS   C1A32028  28.201   3.606  13.645 -0.0207 -0.1425  0.2148
 2730DOPS   D2A32029  27.872   3.757  13.786 -0.0735  0.0774 -0.1665
 2730DOPS   C3A32030  27.443   3.885  13.662 -0.2373 -0.2356 -0.1739
 2730DOPS   C4A32031  27.054   4.114  13.722 -0.1891  0.1802  0.3334
 2730DOPS   C1B32032  28.387   4.001  13.937 -0.2206 -0.3320  0.0086
 2730DOPS   D2B32033  28.057   4.051  14.299 -0.1053  0.0005  0.0665
 2730DOPS   C3B32034  28.262   3.928  14.709  0.0513  0.2263  0.0167
 2730DOPS   C4B32035  28.593   3.685  14.941  0.1875  0.0205  0.1701
 2731DOPC   NC332036  27.560  11.833  13.120  0.3984  0.1991  0.0061
 2731DOPC   PO432037  27.625  11.514  13.347 -0.0734  0.1841  0.0436
 2731DOPC   GL132038  27.462  11.403  13.650 -0.0551  0.0053 -0.0070
 2731DOPC   GL232039  27.195  11.225  13.543 -0.3286 -0.1904 -0.2973
 2731DOPC   C1A32040  27.644  11.238  14.047  0.0875 -0.3975  0.0370
 2731DOPC   D2A32041  27.657  11.200  14.509  0.0738 -0.0009  0.2381
 2731DOPC   C3A32042  27.569  10.748  14.653 -0.2284  0.0387  0.0277
 2731DOPC   C4A32043  27.379  10.375  14.875  0.1358 -0.1977 -0.3001
 2731DOPC   C1B32044  27.128  10.841  13.813 -0.1783 -0.1345  0.1420
 2731DOPC   D2B32045  27.461  10.608  14.021 -0.1128 -0.0810 -0.3273
 2731DOPC   C3B32046  27.178  10.302  14.250  0.2191 -0.0523 -0.0900
 2731DOPC   C4B32047  26.864  10.094  14.574  0.1929 -0.0744  0.1508
 2732DOPE   NH332048  24.825   3.561  12.774  0.0562 -0.1264  0.2564
 2732DOPE   PO432049  24.689   3.653  13.039 -0.1989 -0.0073 -0.3454
 2732DOPE   GL132050  24.404   3.717  13.228 -0.1003 -0.1409  0.0730
 2732DOPE   GL232051  24.185   3.783  13.035 -0.0246 -0.1040 -0.1635
 2732DOPE   C1A32052  24.453   3.801  13.630 -0.0322  0.1013 -0.2218
 2732DOPE   D2A32053  24.487   3.555  13.966  0.2635  0.2368  0.0922
 2732DOPE   C3A32054  24.078   3.755  14.099 -0.4441 -0.0692  0.1944
 2732DOPE   C4A32055  23.646   3.891  14.068  0.2341 -0.0225  0.1331
 2732DOPE   C1B32056  24.182   4.130  13.328 -0.0715  0.0766 -0.1512
 2732DOPE   D2B32057  24.102   4.429  13.657  0.0191  0.2100 -0.4784
 2732DOPE   C3B32058  23.883   4.405  14.064 -0.0270 -0.1241  0.1362
 2732DOPE   C4B32059  23.934   4.235  14.396 -0.1091 -0.0699 -0.0980
 2733DOPE   NH332060  29.670   5.738  13.826 -0.1395  0.2000  0.1517
 2733DOPE   PO432061  29.570   5.854  13.531 -0.0541  0.2749 -0.2727
 2733DOPE   GL132062  29.229   5.908  13.679  0.1181  0.1474  0.2708
 2733DOPE   GL232063  29.208   6.204  13.644  0.0404  0.0410 -0.0305
 2733DOPE   C1A32064  29.049   5.657  14.043 -0.1118  0.0573  0.2661
 2733DOPE   D2A32065  28.725   5.312  14.170  0.1310 -0.0100 -0.1353
 2733DOPE   C3A32066  28.250   5.356  14.283  0.2633 -0.1008 -0.1335
 2733DOPE   C4A32067  27.942   5.424  14.596 -0.0969 -0.1048  0.0700
 2733DOPE   C1B32068  28.784   6.044  13.759 -0.1305 -0.1022  0.1536
 2733DOPE   D2B32069  28.476   5.827  14.038  0.0965  0.1719 -0.0942
 2733DOPE   C3B32070  28.496   5.743  14.470 -0.0151 -0.0782 -0.1403
 2733DOPE   C4B32071  28.405   5.710  14.880 -0.0014 -0.0258  0.1156
 2734POSM   NC332072  33.546   6.910  14.222 -0.0380 -0.2793  0.0937
 2734POSM   PO432073  33.320   7.074  13.948 -0.1118 -0.0523 -0.1892
 2734POSM   AM132074  33.123   7.141  14.188 -0.1192  0.1942 -0.1699
 2734POSM   AM232075  32.980   7.388  14.283 -0.2931  0.2189  0.0504
 2734POSM   T1A32076  32.988   7.100  14.702 -0.2041 -0.2973 -0.0240
 2734POSM   C2A32077  32.903   6.937  15.153  0.0530  0.0798 -0.2756
 2734POSM   C3A32078  32.888   7.089  15.611 -0.1450  0.0380  0.0620
 2734POSM   C1B32079  32.756   7.692  14.321 -0.0066  0.1492  0.1810
 2734POSM   D2B32080  32.311   7.910  14.351  0.0058 -0.0497 -0.1039
 2734POSM   C3B32081  31.874   7.683  14.325  0.0771  0.0694 -0.0434
 2734POSM   C4B32082  31.511   7.801  14.678  0.2565  0.1001  0.0852
 2735POSM   NC332083  33.278  11.537  13.696 -0.0380  0.0986 -0.0948
 2735POSM   PO432084  32.975  11.345  13.461  0.2722  0.0676 -0.2562
 2735POSM   AM132085  32.667  11.255  13.561 -0.6082 -0.2102  0.1106
 2735POSM   AM232086  32.488  11.379  13.691 -0.3294 -0.3367 -0.1973
 2735POSM   T1A32087  32.240  10.986  13.561 -0.1846  0.0739  0.1465
 2735POSM   C2A32088  32.109  10.532  13.770  0.1270  0.2024  0.5235
 2735POSM   C3A32089  31.944  10.118  13.751  0.2062  0.1207 -0.0204
 2735POSM   C1B32090  32.300  11.339  13.918  0.1392 -0.2161  0.1758
 2735POSM   D2B32091  32.157  11.347  14.367  0.4822 -0.0898  0.0110
 2735POSM   C3B32092  32.367  11.224  14.736  0.2516 -0.0568  0.2397
 2735POSM   C4B32093  32.801  11.155  14.833 -0.0115 -0.0397 -0.0725
 2736DOPC   NC332094  23.682   3.860  13.072 -0.0603 -0.1155 -0.0350
 2736DOPC   PO432095  23.653   3.653  12.745  0.3064 -0.2308  0.0332
 2736DOPC   GL132096  23.919   3.927  12.592 -0.0956 -0.0958  0.1319
 2736DOPC   GL232097  24.188   3.696  12.593  0.0918  0.1860  0.0364
 2736DOPC   C1A32098  24.105   4.271  12.872  0.0335 -0.0253 -0.0054
 2736DOPC   D2A32099  23.967   4.591  13.207 -0.1672  0.2115  0.0442
 2736DOPC   C3A32100  23.656   4.498  13.560  0.1540 -0.0636 -0.1992
 2736DOPC   C4A32101  23.392   4.659  13.959 -0.1311  0.2550  0.1225
 2736DOPC   C1B32102  24.412   4.092  12.484  0.0694 -0.0953 -0.2419
 2736DOPC   D2B32103  24.778   4.369  12.418  0.2218 -0.0400 -0.2117
 2736DOPC   C3B32104  25.126   4.013  12.436 -0.0837  0.1855 -0.2717
 2736DOPC   C4B32105  25.573   3.965  12.533 -0.1244 -0.0119 -0.3635
 2737DOPC   NC332106  27.584  10.941  13.449  0.0784  0.2396  0.0776
 2737DOPC   PO432107  27.441  11.105  13.108 -0.1173 -0.0097 -0.1948
 2737DOPC   GL132108  27.250  10.790  13.172 -0.1003 -0.0470  0.0356
 2737DOPC   GL232109  26.940  10.788  13.294  0.1862  0.2448 -0.0112
 2737DOPC   C1A32110  27.232  10.362  13.429  0.0070 -0.0195 -0.4639
 2737DOPC   D2A32111  27.297   9.911  13.357  0.0701 -0.0233  0.1240
 2737DOPC   C3A32112  26.888   9.721  13.301  0.0380 -0.0847 -0.0480
 2737DOPC   C4A32113  26.710   9.283  13.350 -0.1993  0.0123  0.0574
 2737DOPC   C1B32114  26.623  10.485  13.584  0.2248  0.2094 -0.4215
 2737DOPC   D2B32115  26.694  10.268  14.009 -0.2997 -0.0176 -0.3495
 2737DOPC   C3B32116  26.817  10.609  14.360  0.0008  0.0768  0.1237
 2737DOPC   C4B32117  27.021  10.743  14.724 -0.0861  0.5556  0.0040
 2738DOPC   NC332118  29.352   7.104  13.913 -0.0610 -0.0721 -0.1502
 2738DOPC   PO432119  29.631   7.329  13.688  0.0539 -0.0933 -0.1409
 2738DOPC   GL132120  29.651   7.438  14.070  0.0177  0.0478 -0.1221
 2738DOPC   GL232121  29.607   7.760  14.167 -0.1345 -0.0634  0.3220
 2738DOPC   C1A32122  29.383   7.370  14.411 -0.0394  0.1922 -0.1767
 2738DOPC   D2A32123  29.062   7.429  14.729 -0.3447 -0.2820 -0.0599
 2738DOPC   C3A32124  28.977   7.380  15.219 -0.0902  0.1090  0.3071
 2738DOPC   C4A32125  28.752   7.064  15.464  0.1750 -0.0662 -0.1808
 2738DOPC   C1B32126  29.841   7.529  14.494 -0.2250  0.2597  0.1324
 2738DOPC   D2B32127  30.061   7.635  14.891  0.0385  0.3001  0.5826
 2738DOPC   C3B32128  29.963   7.322  15.239  0.3624  0.0813 -0.0481
 2738DOPC   C4B32129  30.135   7.036  15.476 -0.0017  0.1534  0.1031
 2739POSM   NC332130  26.451   3.553  12.902  0.1746  0.3594  0.1010
 2739POSM   PO432131  26.394   3.956  12.920  0.1262  0.2312 -0.0307
 2739POSM   AM132132  26.724   4.064  13.022  0.0246  0.0644  0.0379
 2739POSM   AM232133  26.833   3.903  13.258  0.1300 -0.4602  0.0470
 2739POSM   T1A32134  27.170   4.221  13.150 -0.2366 -0.4526  0.3427
 2739POSM   C2A32135  27.553   4.277  13.432  0.0992  0.1689  0.0718
 2739POSM   C3A32136  27.909   4.238  13.705  0.0684  0.1027 -0.0024
 2739POSM   C1B32137  27.157   3.739  13.257 -0.0401 -0.2502  0.3202
 2739POSM   D2B32138  27.586   3.529  13.305 -0.1174 -0.0399  0.2298
 2739POSM   C3B32139  27.839   3.904  13.281  0.0049  0.2596  0.0519
 2739POSM   C4B32140  28.243   4.138  13.372  0.0408  0.1295  0.0372
 2740DOPC   NC332141  24.690  10.738  12.470  0.0331  0.1212  0.0188
 2740DOPC   PO432142  24.746  10.385  12.685 -0.0402 -0.2222  0.0421
 2740DOPC   GL132143  24.860  10.149  12.986 -0.0086 -0.2612  0.2456
 2740DOPC   GL232144  24.775  10.321  13.190  0.1068  0.1516 -0.1434
 2740DOPC   C1A32145  25.243   9.893  13.215  0.1276 -0.2920  0.2251
 2740DOPC   D2A32146  25.401   9.569  13.495  0.1135  0.0253 -0.6939
 2740DOPC   C3A32147  25.460   9.177  13.253  0.2389  0.2899  0.0493
 2740DOPC   C4A32148  25.433   8.920  12.887  0.2418  0.3405  0.4460
 2740DOPC   C1B32149  24.818   9.942  13.456  0.2056 -0.3324  0.2016
 2740DOPC   D2B32150  24.959   9.593  13.763  0.1273  0.1552  0.1535
 2740DOPC   C3B32151  25.301   9.814  13.908 -0.2229 -0.3984 -0.2059
 2740DOPC   C4B32152  25.514  10.090  14.218 -0.2678 -0.0906  0.0335
 2741POSM   NC332153   0.024   4.838  13.331 -0.0454 -0.0896 -0.1989
 2741POSM   PO432154  -0.249   4.558  13.273 -0.0422 -0.1648  0.0679
 2741POSM   AM132155  -0.555   4.493  13.293  0.0023 -0.2157  0.0620
 2741POSM   AM232156  -0.812   4.445  13.444 -0.0741 -0.1641  0.0598
 2741POSM   T1A32157  -0.908   4.498  12.965 -0.0844  0.4992  0.0556
 2741POSM   C2A32158  -1.316   4.436  12.927  0.1692  0.1802  0.2681
 2741POSM   C3A32159  -1.773   4.416  12.795 -0.0787  0.3372 -0.0954
 2741POSM   C1B32160  -1.130   4.616  13.424  0.1270 -0.2079 -0.1436
 2741POSM   D2B32161  -1.530   4.802  13.381  0.0152 -0.1943 -0.0651
 2741POSM   C3B32162  -1.539   5.173  13.646 -0.0721 -0.2697  0.0836
 2741POSM   C4B32163  -1.822   5.575  13.661 -0.2170  0.1170  0.2101
 2742DOPS   CNO32164  32.210   0.871  12.835 -0.1992  0.1950  0.0527
 2742DOPS   PO432165  32.185   1.256  12.979 -0.2870  0.1291  0.1438
 2742DOPS   GL132166  32.086   1.474  13.237 -0.3081  0.1779  0.0121
 2742DOPS   GL232167  32.051   1.367  13.566  0.1079  0.3454 -0.1707
 2742DOPS   C1A32168  32.229   1.842  13.499  0.4706  0.2638 -0.3994
 2742DOPS   D2A32169  32.287   2.235  13.746 -0.1291  0.4329 -0.2866
 2742DOPS   C3A32170  32.184   2.508  14.129 -0.0112 -0.0059  0.1322
 2742DOPS   C4A32171  32.033   2.757  14.486 -0.1253  0.0083 -0.2723
 2742DOPS   C1B32172  31.778   1.730  13.543 -0.1496 -0.1874 -0.1186
 2742DOPS   D2B32173  31.609   2.027  13.875 -0.0606 -0.0448 -0.2549
 2742DOPS   C3B32174  31.521   1.856  14.310 -0.4047  0.3107  0.2970
 2742DOPS   C4B32175  31.196   1.606  14.465  0.1078  0.1654 -0.2234
 2743DOPC   NC332176  27.727   7.095  13.113 -0.0307  0.1342 -0.1703
 2743DOPC   PO432177  27.344   7.002  13.048 -0.0753 -0.0856  0.0914
 2743DOPC   GL132178  27.405   6.703  13.168 -0.0473  0.0537  0.3345
 2743DOPC   GL232179  27.629   6.616  13.320 -0.2431  0.0736  0.0256
 2743DOPC   C1A32180  27.297   6.237  13.220  0.0011 -0.4144 -0.0693
 2743DOPC   D2A32181  27.326   5.773  13.104  0.1431  0.1152  0.0298
 2743DOPC   C3A32182  27.298   5.571  13.462 -0.2773 -0.1409  0.1449
 2743DOPC   C4A32183  27.367   5.172  13.615 -0.1314 -0.3229  0.2065
 2743DOPC   C1B32184  27.979   6.278  13.233 -0.0534  0.1791  0.0327
 2743DOPC   D2B32185  28.213   5.862  13.200  0.0508  0.3162  0.1241
 2743DOPC   C3B32186  28.210   5.849  13.656  0.1906 -0.4416  0.1987
 2743DOPC   C4B32187  27.937   5.782  14.076 -0.5548 -0.2784  0.0708
 2744DOPS   CNO32188  23.718  10.463  12.736 -0.3235 -0.0403 -0.1760
 2744DOPS   PO432189  23.986  10.352  12.983 -0.1838 -0.2455 -0.0500
 2744DOPS   GL132190  24.127  10.402  13.359 -0.2055 -0.4964  0.2669
 2744DOPS   GL232191  24.336  10.179  13.355  0.2711 -0.1523  0.2420
 2744DOPS   C1A32192  23.778  10.468  13.644 -0.1494  0.3104 -0.3415
 2744DOPS   D2A32193  23.724  10.676  13.992 -0.1921  0.2616  0.0894
 2744DOPS   C3A32194  23.313  10.726  14.131  0.0949  0.2111  0.0243
 2744DOPS   C4A32195  22.901  10.553  14.401  0.1373  0.1249  0.0693
 2744DOPS   C1B32196  24.043   9.989  13.658  0.6240  0.0050  0.0342
 2744DOPS   D2B32197  23.764  10.125  14.018  0.1940  0.1726 -0.0402
 2744DOPS   C3B32198  23.991  10.219  14.339 -0.0516  0.0759 -0.0272
 2744DOPS   C4B32199  24.288  10.450  14.610 -0.3741  0.1679  0.0048
 2745DOPE   NH332200  27.439   7.486  13.170  0.1126  0.1869  0.0511
 2745DOPE   PO432201  27.583   7.724  13.327 -0.2664  0.0505  0.4213
 2745DOPE   GL132202  27.536   8.036  13.340  0.2771  0.0557 -0.0708
 2745DOPE   GL232203  27.595   8.149  13.694  0.2125  0.1455 -0.1540
 2745DOPE   C1A32204  27.445   8.487  13.211  0.0623 -0.1907  0.2576
 2745DOPE   D2A32205  27.135   8.688  12.839 -0.1590 -0.0373 -0.0396
 2745DOPE   C3A32206  27.124   9.127  13.026  0.1446  0.3017 -0.0652
 2745DOPE   C4A32207  27.320   9.428  13.258  0.1768 -0.1546 -0.1551
 2745DOPE   C1B32208  27.936   8.434  13.519 -0.1192 -0.3870 -0.2080
 2745DOPE   D2B32209  28.303   8.545  13.240  0.0035 -0.0529  0.0241
 2745DOPE   C3B32210  28.685   8.709  13.416  0.0486 -0.0946 -0.1113
 2745DOPE   C4B32211  29.059   8.844  13.568 -0.0007 -0.0616 -0.1974
 2746DOPE   NH332212  33.563   2.424  12.907 -0.0392 -0.0054 -0.0186
 2746DOPE   PO432213  33.262   2.295  13.027 -0.0420  0.0453 -0.0262
 2746DOPE   GL132214  33.392   2.302  13.423  0.0099  0.0805  0.0570
 2746DOPE   GL232215  33.538   2.552  13.449 -0.2320 -0.0287  0.2172
 2746DOPE   C1A32216  33.477   2.301  13.894  0.1396 -0.0709 -0.3939
 2746DOPE   D2A32217  33.801   2.561  14.094 -0.5253  0.1411 -0.0430
 2746DOPE   C3A32218  33.865   2.884  13.756  0.0426 -0.0464 -0.1964
 2746DOPE   C4A32219  33.737   3.359  13.695  0.0363 -0.0298 -0.0650
 2746DOPE   C1B32220  33.228   2.752  13.723  0.2500 -0.2224 -0.3263
 2746DOPE   D2B32221  33.141   2.712  14.150  0.1745 -0.0173  0.2709
 2746DOPE   C3B32222  33.325   2.424  14.449 -0.1804  0.1645 -0.1239
 2746DOPE   C4B32223  33.642   2.259  14.743 -0.2113 -0.0507 -0.0428
 2747DOPE   NH332224  30.096   3.845  13.675 -0.1343  0.0590  0.5623
 2747DOPE   PO432225  30.030   3.986  13.938 -0.0655 -0.1372  0.1888
 2747DOPE   GL132226  29.839   4.391  13.909  0.1243 -0.5180  0.2432
 2747DOPE   GL232227  30.143   4.514  13.961 -0.1255 -0.1676  0.0299
 2747DOPE   C1A32228  29.711   4.582  14.316 -0.0246  0.0697 -0.2029
 2747DOPE   D2A32229  29.518   4.472  14.671 -0.1769 -0.2679 -0.0638
 2747DOPE   C3A32230  29.727   4.715  14.990  0.2275 -0.2706  0.0207
 2747DOPE   C4A32231  30.065   4.870  15.312  0.1452  0.0002  0.1219
 2747DOPE   C1B32232  30.395   4.298  14.351  0.1418 -0.1939  0.3635
 2747DOPE   D2B32233  30.615   3.900  14.562 -0.2404  0.0247  0.2167
 2747DOPE   C3B32234  30.670   3.810  15.014 -0.0074  0.0918 -0.2047
 2747DOPE   C4B32235  30.604   3.820  15.508  0.2977  0.2681 -0.0014
 2748DOPC   NC332236  28.142   1.812  13.474  0.3824 -0.1466  0.2425
 2748DOPC   PO432237  28.463   2.042  13.395  0.0112  0.2242 -0.0120
 2748DOPC   GL132238  28.623   1.789  13.731 -0.1896  0.0522 -0.1990
 2748DOPC   GL232239  28.524   1.983  13.994  0.2213 -0.2036  0.3511
 2748DOPC   C1A32240  28.978   1.483  13.676  0.0151 -0.1927 -0.0261
 2748DOPC   D2A32241  29.300   1.344  13.978  0.0332 -0.0951  0.3172
 2748DOPC   C3A32242  29.133   1.451  14.353 -0.1965 -0.1107 -0.0118
 2748DOPC   C4A32243  29.030   1.513  14.877  0.0690 -0.0181 -0.1251
 2748DOPC   C1B32244  28.159   1.709  13.992  0.3297  0.0576 -0.1383
 2748DOPC   D2B32245  27.765   1.568  14.093  0.2203 -0.1587  0.3510
 2748DOPC   C3B32246  27.756   1.316  14.439 -0.1282  0.3171 -0.2663
 2748DOPC   C4B32247  27.719   1.457  14.885 -0.0180 -0.2275 -0.0858
 2749DOPS   CNO32248  33.910   7.580  13.491 -0.0285 -0.2420  0.2681
 2749DOPS   PO432249  34.210   7.542  13.771 -0.0011  0.0560  0.0959
 2749DOPS   GL132250  34.272   7.422  14.203 -0.0135  0.3107 -0.0296
 2749DOPS   GL232251  34.557   7.432  14.231  0.1037 -0.1601 -0.1792
 2749DOPS   C1A32252  34.006   7.105  14.422  0.0133  0.3791 -0.0410
 2749DOPS   D2A32253  33.778   6.854  14.728  0.1936 -0.1672 -0.1140
 2749DOPS   C3A32254  33.666   6.964  15.179  0.0788  0.2836 -0.3061
 2749DOPS   C4A32255  33.409   7.101  15.548  0.2521  0.1286  0.0016
 2749DOPS   C1B32256  34.352   7.529  14.631  0.2225 -0.2087  0.0521
 2749DOPS   D2B32257  34.193   8.019  14.696 -0.0866 -0.1926  0.1541
 2749DOPS   C3B32258  33.839   8.320  14.706  0.0113 -0.0465 -0.0370
 2749DOPS   C4B32259  33.505   8.326  14.991 -0.1982  0.2662 -0.0301
 2750DOPS   CNO32260  29.998  10.252  12.824 -0.1891  0.0421  0.1486
 2750DOPS   PO432261  30.032  10.594  12.997 -0.2104 -0.1881 -0.0894
 2750DOPS   GL132262  30.214  10.512  13.413 -0.0061  0.2888 -0.0183
 2750DOPS   GL232263  30.177  10.375  13.661  0.0165  0.0620 -0.1265
 2750DOPS   C1A32264  30.641  10.316  13.444  0.0405  0.1955 -0.0783
 2750DOPS   D2A32265  30.980  10.143  13.727 -0.3309 -0.0877 -0.0479
 2750DOPS   C3A32266  31.134  10.574  13.843 -0.4236  0.1017  0.0009
 2750DOPS   C4A32267  31.188  11.043  13.787  0.4520 -0.0157 -0.2975
 2750DOPS   C1B32268  30.484  10.358  14.021 -0.1741 -0.0612 -0.2626
 2750DOPS   D2B32269  30.883  10.607  14.265 -0.1554 -0.0542 -0.1485
 2750DOPS   C3B32270  30.887  10.519  14.742 -0.1847  0.0207 -0.1730
 2750DOPS   C4B32271  31.193  10.333  15.092  0.2139  0.0803  0.0108
 2751DOPC   NC332272  29.794  10.202  13.377 -0.0331 -0.0030 -0.2049
 2751DOPC   PO432273  30.147   9.981  13.349  0.1544 -0.3323 -0.0699
 2751DOPC   GL132274  30.404   9.856  13.596 -0.1355  0.0325 -0.0780
 2751DOPC   GL232275  30.474   9.609  13.572  0.0340  0.2980  0.1316
 2751DOPC   C1A32276  30.398   9.886  14.107  0.1858  0.3290  0.2482
 2751DOPC   D2A32277  30.626  10.129  14.457  0.2133  0.2668  0.0970
 2751DOPC   C3A32278  31.053  10.016  14.274  0.2500 -0.0659 -0.0707
 2751DOPC   C4A32279  31.438   9.938  14.009  0.1055  0.0573  0.0910
 2751DOPC   C1B32280  30.119   9.589  13.851 -0.3197 -0.1020 -0.0506
 2751DOPC   D2B32281  29.922   9.767  14.240 -0.2805 -0.2453 -0.2164
 2751DOPC   C3B32282  30.261   9.836  14.595  0.2873 -0.2202 -0.2526
 2751DOPC   C4B32283  30.469   9.736  15.000 -0.2879 -0.1498 -0.2615
 2752DOPS   CNO32284  25.903   4.075  12.947  0.2719 -0.1645 -0.2464
 2752DOPS   PO432285  25.931   4.178  13.282  0.0120  0.0983  0.0035
 2752DOPS   GL132286  26.100   4.211  13.640 -0.2026 -0.1438  0.1599
 2752DOPS   GL232287  26.326   4.140  13.815 -0.4091  0.1742  0.2353
 2752DOPS   C1A32288  25.880   4.321  14.030  0.0118  0.2627  0.0085
 2752DOPS   D2A32289  25.662   4.128  14.425 -0.0801  0.0547  0.2231
 2752DOPS   C3A32290  25.262   3.992  14.584 -0.3523  0.1031 -0.0052
 2752DOPS   C4A32291  24.923   4.168  14.813 -0.1094  0.2581  0.2839
 2752DOPS   C1B32292  26.609   3.883  14.112  0.0659  0.2935 -0.1387
 2752DOPS   D2B32293  26.757   4.030  14.519 -0.1337 -0.0299  0.1681
 2752DOPS   C3B32294  27.220   4.153  14.587  0.3281 -0.4779 -0.0651
 2752DOPS   C4B32295  27.572   4.493  14.569 -0.1024 -0.3312  0.0150
 2753DOPS   CNO32296  26.853   7.364  13.257  0.1168  0.0045 -0.1104
 2753DOPS   PO432297  26.635   7.427  13.530 -0.1725  0.1742  0.0203
 2753DOPS   GL132298  26.609   7.288  13.828 -0.0399  0.1703 -0.0663
 2753DOPS   GL232299  26.474   7.365  14.054  0.1652 -0.2246 -0.1366
 2753DOPS   C1A32300  26.890   7.137  14.211  0.0615  0.3644 -0.0585
 2753DOPS   D2A32301  27.223   6.902  14.405  0.1873  0.1301  0.0926
 2753DOPS   C3A32302  27.555   6.567  14.243  0.0525 -0.0024 -0.1350
 2753DOPS   C4A32303  27.534   6.090  14.216  0.0329 -0.1084  0.0413
 2753DOPS   C1B32304  26.460   7.516  14.490 -0.0042  0.0517 -0.1279
 2753DOPS   D2B32305  26.215   7.448  14.837  0.0653  0.2007 -0.0599
 2753DOPS   C3B32306  26.271   7.047  15.122 -0.2640  0.0772 -0.1362
 2753DOPS   C4B32307  26.391   7.076  15.595 -0.1472  0.1182  0.0695
 2754DOPC   NC332308  24.769   7.572  12.484 -0.0161  0.2668 -0.3040
 2754DOPC   PO432309  24.882   7.325  12.821 -0.1417 -0.4173 -0.1438
 2754DOPC   GL132310  24.764   7.649  13.084 -0.0203 -0.2991 -0.2376
 2754DOPC   GL232311  24.514   7.750  12.887  0.3921  0.1119 -0.1026
 2754DOPC   C1A32312  24.433   7.761  13.397  0.2765  0.0672  0.0547
 2754DOPC   D2A32313  24.161   8.028  13.609  0.1518  0.0371  0.1243
 2754DOPC   C3A32314  24.070   8.074  14.061  0.2038  0.0692  0.1132
 2754DOPC   C4A32315  24.121   8.324  14.460  0.0430 -0.2158 -0.0189
 2754DOPC   C1B32316  24.554   8.221  12.729 -0.1992 -0.3174 -0.1926
 2754DOPC   D2B32317  24.574   8.637  12.865 -0.1668 -0.3232  0.5863
 2754DOPC   C3B32318  24.706   9.141  12.948  0.2712 -0.0324  0.3315
 2754DOPC   C4B32319  24.993   9.514  12.945  0.0910 -0.2667 -0.1600
 2755DOPE   NH332320  32.896   0.562  13.122 -0.3154 -0.0288 -0.1727
 2755DOPE   PO432321  32.922   0.523  13.415  0.2674  0.1431 -0.0502
 2755DOPE   GL132322  32.899   0.589  13.804  0.0547  0.0933  0.1571
 2755DOPE   GL232323  32.713   0.825  13.786 -0.1905 -0.0226  0.2941
 2755DOPE   C1A32324  33.028   0.632  14.225  0.3237  0.2904 -0.1634
 2755DOPE   D2A32325  33.201   0.290  14.492 -0.0113  0.4840 -0.2483
 2755DOPE   C3A32326  33.249  -0.059  14.207  0.0142 -0.4086  0.1050
 2755DOPE   C4A32327  33.034  -0.434  13.914  0.0700  0.1245 -0.0212
 2755DOPE   C1B32328  32.794   1.048  14.143 -0.2279 -0.3206  0.0103
 2755DOPE   D2B32329  32.776   1.112  14.573  0.1887  0.1799 -0.0444
 2755DOPE   C3B32330  32.648   1.306  14.908 -0.2994 -0.4583 -0.0748
 2755DOPE   C4B32331  32.454   1.598  15.184 -0.0925 -0.2337 -0.2572
 2756DOPE   NH332332  23.685  11.142  12.639 -0.0135 -0.2019  0.2002
 2756DOPE   PO432333  23.432  11.029  12.776  0.0028 -0.0308  0.0569
 2756DOPE   GL132334  23.482  11.084  13.142 -0.2487 -0.1211  0.2360
 2756DOPE   GL232335  23.671  11.315  13.243 -0.2037 -0.0323 -0.4136
 2756DOPE   C1A32336  23.162  11.207  13.449  0.0637 -0.2711 -0.1579
 2756DOPE   D2A32337  22.948  11.452  13.751 -0.1171 -0.0632 -0.0633
 2756DOPE   C3A32338  22.576  11.435  13.980  0.3480 -0.0964  0.1231
 2756DOPE   C4A32339  22.127  11.677  13.966 -0.0568 -0.1194  0.1136
 2756DOPE   C1B32340  23.777  11.007  13.598  0.0243 -0.0031 -0.1138
 2756DOPE   D2B32341  24.157  10.899  13.872 -0.3727 -0.2347 -0.4426
 2756DOPE   C3B32342  24.233  10.435  13.955 -0.0690  0.3513  0.0592
 2756DOPE   C4B32343  24.373  10.031  14.087 -0.2138 -0.2824  0.0690
 2757POSM   NC332344  29.630   2.587  13.914  0.1048 -0.1394  0.0386
 2757POSM   PO432345  29.456   2.915  14.051 -0.0674  0.1337 -0.2626
 2757POSM   AM132346  29.521   2.750  14.369 -0.3219  0.3093 -0.2823
 2757POSM   AM232347  29.671   2.782  14.600  0.0577  0.2665 -0.1243
 2757POSM   T1A32348  29.266   2.410  14.649 -0.2594  0.2563  0.2756
 2757POSM   C2A32349  29.080   1.993  14.433 -0.1392  0.0362  0.0262
 2757POSM   C3A32350  28.940   1.750  14.048  0.1218  0.2685  0.3272
 2757POSM   C1B32351  29.814   2.429  14.577  0.0020 -0.3518 -0.1644
 2757POSM   D2B32352  29.686   1.977  14.556 -0.1280 -0.0739 -0.3133
 2757POSM   C3B32353  29.292   1.969  14.887 -0.4164 -0.2403 -0.0764
 2757POSM   C4B32354  29.104   2.249  15.233 -0.1735 -0.0286 -0.0862
 2758DOPS   CNO32355  32.961  11.223  13.982  0.1579  0.1201 -0.1284
 2758DOPS   PO432356  32.861  10.920  13.798 -0.1052  0.0781  0.1355
 2758DOPS   GL132357  32.551  10.730  13.973 -0.0696 -0.4475 -0.1860
 2758DOPS   GL232358  32.624  10.531  14.245 -0.1234  0.1280 -0.0672
 2758DOPS   C1A32359  32.091  10.901  14.074 -0.2502  0.1940 -0.0900
 2758DOPS   D2A32360  31.653  10.745  14.175 -0.0669  0.0723  0.0424
 2758DOPS   C3A32361  31.542  10.312  14.266  0.0059  0.0954  0.0800
 2758DOPS   C4A32362  31.441  10.104  14.687 -0.3613  0.0439  0.2744
 2758DOPS   C1B32363  32.166  10.365  14.241  0.0677 -0.0966  0.1422
 2758DOPS   D2B32364  31.868   9.987  14.417  0.1374  0.0665  0.2830
 2758DOPS   C3B32365  32.233   9.693  14.569  0.1740  0.1856 -0.2756
 2758DOPS   C4B32366  32.387   9.212  14.598  0.3673  0.0184  0.0658
 2759DOPC   NC332367  31.016   2.737  14.096 -0.2985 -0.1945 -0.3452
 2759DOPC   PO432368  30.646   2.843  13.923  0.2347 -0.2343  0.0112
 2759DOPC   GL132369  30.531   2.505  14.108 -0.5773 -0.6029  0.1374
 2759DOPC   GL232370  30.650   2.353  13.894  0.0191 -0.1098  0.1743
 2759DOPC   C1A32371  30.752   2.240  14.360 -0.2039  0.3304 -0.2544
 2759DOPC   D2A32372  30.750   1.816  14.598 -0.2211 -0.0472 -0.0134
 2759DOPC   C3A32373  30.985   1.807  14.997  0.3027  0.0591 -0.3888
 2759DOPC   C4A32374  31.273   1.771  15.322  0.2000  0.0491  0.0160
 2759DOPC   C1B32375  30.368   2.029  14.113 -0.0152  0.1298  0.2671
 2759DOPC   D2B32376  29.959   2.017  14.110  0.0732 -0.0726 -0.2876
 2759DOPC   C3B32377  29.694   2.049  13.717 -0.0818 -0.0911 -0.0231
 2759DOPC   C4B32378  29.272   1.912  13.648  0.0183 -0.0608  0.0408
 2760DOPE   NH332379  23.945   3.269  12.778  0.1429 -0.3304  0.1885
 2760DOPE   PO432380  23.854   3.355  13.085  0.0765 -0.1276  0.0412
 2760DOPE   GL132381  23.910   3.322  13.433 -0.0699  0.4087  0.3805
 2760DOPE   GL232382  24.146   3.454  13.475 -0.2864  0.0387 -0.0493
 2760DOPE   C1A32383  23.668   3.424  13.748  0.0087 -0.1844  0.1101
 2760DOPE   D2A32384  23.247   3.544  13.863  0.0242  0.0774 -0.2757
 2760DOPE   C3A32385  23.107   3.814  14.221  0.0428  0.0646 -0.2468
 2760DOPE   C4A32386  22.933   3.616  14.619 -0.2732 -0.0142  0.0079
 2760DOPE   C1B32387  23.894   3.857  13.637  0.0457  0.2494  0.1270
 2760DOPE   D2B32388  23.500   3.954  13.553  0.1708 -0.1491  0.1161
 2760DOPE   C3B32389  23.198   4.166  13.763 -0.0252 -0.1203  0.0217
 2760DOPE   C4B32390  23.040   4.383  14.189 -0.1108  0.0874 -0.0869
 2761DOPS   CNO32391  30.072   3.349  13.486 -0.2680 -0.1368 -0.2163
 2761DOPS   PO432392  30.212   3.062  13.758  0.4379 -0.2270 -0.3420
 2761DOPS   GL132393  30.138   2.710  13.908 -0.0536 -0.0202  0.0663
 2761DOPS   GL232394  30.102   2.561  14.162  0.0103  0.2437  0.0682
 2761DOPS   C1A32395  30.163   2.290  13.714 -0.1368 -0.2666  0.3517
 2761DOPS   D2A32396  30.398   1.917  13.491 -0.0952  0.2969  0.2501
 2761DOPS   C3A32397  30.800   1.792  13.571 -0.1329  0.1997 -0.1932
 2761DOPS   C4A32398  31.133   1.659  13.236 -0.2058  0.1328 -0.1892
 2761DOPS   C1B32399  30.311   2.357  14.570 -0.1430 -0.1751  0.2250
 2761DOPS   D2B32400  30.642   2.542  14.847 -0.1656  0.0973 -0.1945
 2761DOPS   C3B32401  30.555   2.932  15.073 -0.3172  0.3883 -0.2527
 2761DOPS   C4B32402  30.371   3.288  15.115  0.1281 -0.2447  0.2273
 2762DOPS   CNO32403  33.388   7.484  13.196  0.2245 -0.0608 -0.1774
 2762DOPS   PO432404  33.109   7.700  13.312 -0.0598 -0.0105 -0.1212
 2762DOPS   GL132405  32.952   8.075  13.395 -0.0760 -0.3171  0.0804
 2762DOPS   GL232406  32.875   8.024  13.047 -0.0474 -0.0552 -0.3638
 2762DOPS   C1A32407  33.197   8.432  13.187 -0.1605  0.0380 -0.0718
 2762DOPS   D2A32408  33.555   8.755  13.137  0.0678 -0.0746 -0.2820
 2762DOPS   C3A32409  33.963   8.576  13.246 -0.0643 -0.0828  0.0445
 2762DOPS   C4A32410  34.411   8.588  13.073 -0.1907 -0.2291  0.2069
 2762DOPS   C1B32411  32.620   8.376  13.288 -0.2494  0.1573  0.1477
 2762DOPS   D2B32412  32.226   8.534  13.116 -0.1898 -0.3534 -0.0211
 2762DOPS   C3B32413  31.865   8.698  13.379 -0.0327 -0.0071  0.1977
 2762DOPS   C4B32414  31.397   8.501  13.343 -0.0813  0.1814  0.0953
 2763DOPE   NH332415  23.207  10.600  12.863 -0.0985 -0.1263 -0.1647
 2763DOPE   PO432416  23.227  10.689  13.131 -0.1917 -0.0212 -0.1459
 2763DOPE   GL132417  23.114  10.406  13.356  0.0104  0.2752  0.0645
 2763DOPE   GL232418  23.265  10.438  13.579  0.4270  0.4411 -0.1453
 2763DOPE   C1A32419  22.757  10.418  13.644 -0.0988  0.3219  0.2054
 2763DOPE   D2A32420  22.551  10.733  13.889 -0.2365  0.0672  0.0969
 2763DOPE   C3A32421  22.836  10.993  14.161 -0.1849  0.1251 -0.2212
 2763DOPE   C4A32422  23.175  10.992  14.545 -0.0589  0.1610 -0.2070
 2763DOPE   C1B32423  23.174  10.064  13.813 -0.1482  0.1073 -0.0820
 2763DOPE   D2B32424  23.198   9.759  14.154 -0.1937  0.1953  0.0271
 2763DOPE   C3B32425  23.499   9.687  14.458  0.0725  0.1047  0.1955
 2763DOPE   C4B32426  23.961   9.515  14.477  0.0463  0.1474  0.0406
 2764DOPE   NH332427  27.109   7.267  13.657 -0.0021  0.0933  0.2480
 2764DOPE   PO432428  27.390   7.160  13.537 -0.2185 -0.3575 -0.4027
 2764DOPE   GL132429  27.335   6.902  13.881 -0.1666 -0.2013 -0.4237
 2764DOPE   GL232430  27.211   6.728  13.607  0.2613  0.1315 -0.0556
 2764DOPE   C1A32431  27.704   6.617  13.800 -0.2106 -0.0603  0.1212
 2764DOPE   D2A32432  28.019   6.292  13.832  0.0342  0.1585  0.2406
 2764DOPE   C3A32433  28.342   6.361  13.542 -0.1428  0.3764 -0.1824
 2764DOPE   C4A32434  28.398   6.627  13.208 -0.0570  0.0788  0.3720
 2764DOPE   C1B32435  27.245   6.295  13.717  0.0016  0.1471  0.1608
 2764DOPE   D2B32436  27.628   6.027  13.673 -0.3414  0.1337  0.1475
 2764DOPE   C3B32437  27.776   5.568  13.561  0.1736  0.1413  0.0857
 2764DOPE   C4B32438  28.046   5.207  13.807 -0.2387 -0.1746 -0.0705
 2765POSM   NC332439  33.935   0.384  13.632  0.1006 -0.2181  0.0308
 2765POSM   PO432440  33.716   0.577  13.379 -0.0687 -0.1725 -0.2449
 2765POSM   AM132441  33.540   0.703  13.650 -0.2512  0.0616  0.4210
 2765POSM   AM232442  33.247   0.800  13.662 -0.4037  0.0522 -0.3489
 2765POSM   T1A32443  33.489   0.588  14.164  0.1194 -0.1795 -0.0829
 2765POSM   C2A32444  33.669   0.696  14.572  0.0045  0.0058  0.4040
 2765POSM   C3A32445  33.579   0.992  14.879  0.0302  0.1715 -0.0677
 2765POSM   C1B32446  33.251   0.970  13.980 -0.2054 -0.0991 -0.0429
 2765POSM   D2B32447  33.251   1.015  14.431 -0.1390  0.1755 -0.0405
 2765POSM   C3B32448  33.132   0.716  14.722  0.0745  0.0344 -0.3315
 2765POSM   C4B32449  33.296   0.407  15.034 -0.0149 -0.1368  0.0198
 2766DOPC   NC332450  30.421   4.023  13.198  0.0944  0.1504 -0.0251
 2766DOPC   PO432451  30.566   3.732  13.412 -0.3068 -0.1408 -0.2111
 2766DOPC   GL132452  30.757   3.996  13.552  0.0355  0.2024 -0.1117
 2766DOPC   GL232453  30.500   4.163  13.705 -0.1246  0.1745  0.0212
 2766DOPC   C1A32454  31.055   4.325  13.623  0.1543 -0.2477  0.1648
 2766DOPC   D2A32455  31.361   4.675  13.520 -0.0451  0.2651 -0.0935
 2766DOPC   C3A32456  31.243   4.998  13.872  0.1032 -0.0912 -0.1580
 2766DOPC   C4A32457  31.120   5.035  14.316 -0.1339 -0.1154  0.0788
 2766DOPC   C1B32458  30.727   4.452  13.954  0.1005  0.0562  0.0632
 2766DOPC   D2B32459  31.170   4.543  14.066  0.0603  0.1001  0.2003
 2766DOPC   C3B32460  31.500   4.435  14.407  0.1385  0.0061  0.1009
 2766DOPC   C4B32461  31.770   4.520  14.705  0.0195  0.0881  0.1591
 2767DOPC   NC332462  26.793   6.433  13.279  0.0201 -0.0218  0.0001
 2767DOPC   PO432463  26.414   6.382  13.296 -0.1059  0.0227  0.1533
 2767DOPC   GL132464  26.473   6.228  13.618 -0.1654  0.1164  0.0773
 2767DOPC   GL232465  26.720   6.065  13.597  0.1520 -0.1048 -0.1632
 2767DOPC   C1A32466  26.585   5.942  14.023 -0.0229 -0.0148 -0.0696
 2767DOPC   D2A32467  26.472   5.530  14.206  0.1683 -0.0228  0.0369
 2767DOPC   C3A32468  26.591   5.144  14.298  0.3816 -0.1599  0.1392
 2767DOPC   C4A32469  26.634   4.764  14.486 -0.0849  0.0726  0.2350
 2767DOPC   C1B32470  27.107   5.811  13.824 -0.1193 -0.0391  0.3570
 2767DOPC   D2B32471  27.486   5.567  14.031 -0.1728 -0.0302  0.2657
 2767DOPC   C3B32472  27.499   5.583  14.506  0.1073 -0.3390 -0.3649
 2767DOPC   C4B32473  27.268   5.599  14.821  0.3396  0.2892  0.1079
 2768DOPE   NH332474  32.580  12.336  13.665  0.0892 -0.4042  0.4212
 2768DOPE   PO432475  32.758  12.383  13.443  0.0793 -0.0702 -0.2016
 2768DOPE   GL132476  32.394  12.482  13.243  0.0665  0.1399  0.2002
 2768DOPE   GL232477  32.397  12.275  13.089 -0.0287 -0.0071  0.0631
 2768DOPE   C1A32478  31.910  12.463  13.339  0.0454  0.1682 -0.2012
 2768DOPE   D2A32479  31.559  12.305  13.581  0.0246 -0.2010 -0.2372
 2768DOPE   C3A32480  31.356  12.455  13.948  0.1136  0.1854  0.0788
 2768DOPE   C4A32481  31.235  12.351  14.362  0.1692 -0.1753  0.0169
 2768DOPE   C1B32482  32.343  11.809  12.964  0.3586  0.0644  0.0314
 2768DOPE   D2B32483  32.133  11.442  13.189  0.2918  0.3873 -0.2139
 2768DOPE   C3B32484  31.874  11.310  13.515  0.0991  0.0981  0.3142
 2768DOPE   C4B32485  31.692  10.927  13.699  0.0634  0.1280 -0.2065
 2769POSM   NC332486  33.148  10.883  13.394  0.0875 -0.3688 -0.2030
 2769POSM   PO432487  33.364  11.058  13.655 -0.4033  0.0810 -0.2226
 2769POSM   AM132488  33.355  10.964  13.993  0.2092  0.2156  0.1307
 2769POSM   AM232489  33.472  10.934  14.258  0.5525 -0.1311 -0.5831
 2769POSM   T1A32490  33.012  10.937  14.425 -0.0507 -0.2438  0.1224
 2769POSM   C2A32491  32.916  10.576  14.636  0.0158 -0.2187  0.0231
 2769POSM   C3A32492  32.715  10.143  14.716  0.0507 -0.1441  0.0710
 2769POSM   C1B32493  33.494  10.885  14.592  0.1021 -0.3218  0.1226
 2769POSM   D2B32494  33.245  10.881  14.936  0.1776 -0.1597  0.3679
 2769POSM   C3B32495  33.391  11.218  15.268  0.0736  0.1114 -0.0999
 2769POSM   C4B32496  33.579  11.635  15.456 -0.0581  0.0573  0.0516
 2770DOPE   NH332497  29.898   6.173  13.913 -0.2990  0.3612  0.1381
 2770DOPE   PO432498  29.739   6.324  13.720 -0.1916  0.3758  0.0979
 2770DOPE   GL132499  29.451   6.296  14.033 -0.1229 -0.2211 -0.0688
 2770DOPE   GL232500  29.389   6.003  14.125  0.0338 -0.0720 -0.2024
 2770DOPE   C1A32501  29.045   6.502  14.010  0.0153  0.0984 -0.1633
 2770DOPE   D2A32502  28.596   6.365  14.108 -0.0744  0.1743 -0.0621
 2770DOPE   C3A32503  28.288   6.160  14.295  0.0971  0.0175  0.0066
 2770DOPE   C4A32504  28.018   5.925  14.563 -0.0069 -0.0897  0.2179
 2770DOPE   C1B32505  28.943   6.076  14.285  0.2165 -0.0614 -0.5251
 2770DOPE   D2B32506  28.904   5.988  14.766 -0.1178  0.1962 -0.0580
 2770DOPE   C3B32507  29.218   5.862  15.020  0.0766  0.1131  0.1841
 2770DOPE   C4B32508  29.369   5.734  15.407  0.1844 -0.3623  0.0205
 2771DOPC   NC332509  30.548   6.131  13.235 -0.2977  0.0295 -0.0293
 2771DOPC   PO432510  30.515   5.751  13.397 -0.1876  0.0545  0.2321
 2771DOPC   GL132511  30.748   5.851  13.700  0.3250  0.1745  0.0384
 2771DOPC   GL232512  30.952   5.667  13.646  0.1688 -0.1151  0.2679
 2771DOPC   C1A32513  30.788   5.928  14.181 -0.3885 -0.2099 -0.0566
 2771DOPC   D2A32514  30.781   6.326  14.330 -0.0882  0.0405  0.1193
 2771DOPC   C3A32515  31.079   6.449  14.628 -0.0166  0.0240 -0.2992
 2771DOPC   C4A32516  31.541   6.319  14.721  0.1764 -0.1665 -0.1929
 2771DOPC   C1B32517  30.924   5.427  13.977 -0.1174  0.0222 -0.0589
 2771DOPC   D2B32518  30.970   5.461  14.441  0.0728 -0.1492 -0.1633
 2771DOPC   C3B32519  30.667   5.300  14.756  0.1670  0.2238 -0.0915
 2771DOPC   C4B32520  30.346   4.969  14.952 -0.0423 -0.1967 -0.2938
 2772DOPS   CNO32521  26.374   0.610  12.516 -0.0381 -0.0708 -0.3090
 2772DOPS   PO432522  26.205   0.907  12.714  0.3374 -0.3115 -0.1762
 2772DOPS   GL132523  25.860   0.886  13.024 -0.2396 -0.0184  0.0880
 2772DOPS   GL232524  25.768   0.881  13.339 -0.2862  0.0300  0.2380
 2772DOPS   C1A32525  25.623   1.286  13.083  0.0445 -0.1132  0.0687
 2772DOPS   D2A32526  25.257   1.610  13.238  0.2580  0.2155  0.0828
 2772DOPS   C3A32527  24.946   1.998  13.193 -0.0981 -0.0771  0.0367
 2772DOPS   C4A32528  25.013   2.468  13.195 -0.1784 -0.1759 -0.3549
 2772DOPS   C1B32529  25.712   0.817  13.788  0.0550  0.1053 -0.1143
 2772DOPS   D2B32530  25.618   0.825  14.225 -0.2702 -0.0946  0.1304
 2772DOPS   C3B32531  25.622   0.609  14.599 -0.0430 -0.0784 -0.3471
 2772DOPS   C4B32532  25.705   0.168  14.760 -0.1898 -0.1695 -0.2430
 2773DOPE   NH332533  27.063   7.756  13.485 -0.1009  0.0363 -0.2403
 2773DOPE   PO432534  27.045   7.829  13.172 -0.1518  0.2266  0.2537
 2773DOPE   GL132535  27.051   8.186  13.338  0.3045 -0.4607  0.3215
 2773DOPE   GL232536  26.864   8.334  13.175  0.1330 -0.0153  0.0092
 2773DOPE   C1A32537  27.166   8.415  13.668 -0.1666 -0.0433 -0.2049
 2773DOPE   D2A32538  27.089   8.805  13.943 -0.0464 -0.1459 -0.3642
 2773DOPE   C3A32539  26.830   9.146  14.151 -0.1377  0.0490 -0.1294
 2773DOPE   C4A32540  26.858   9.563  14.331 -0.0636  0.0149  0.2560
 2773DOPE   C1B32541  26.955   8.753  13.326 -0.1718  0.0350 -0.2817
 2773DOPE   D2B32542  27.144   9.109  13.539  0.0762 -0.0349  0.0735
 2773DOPE   C3B32543  26.943   9.492  13.728 -0.2273  0.0052 -0.2189
 2773DOPE   C4B32544  27.073   9.930  13.859  0.0478  0.0947 -0.2874
 2774DOPE   NH332545  26.434   4.330  13.265  0.0868  0.0523  0.1713
 2774DOPE   PO432546  26.248   4.584  13.396  0.2161  0.2166 -0.2275
 2774DOPE   GL132547  26.459   4.636  13.646 -0.3977  0.0520 -0.2082
 2774DOPE   GL232548  26.654   4.487  13.700  0.1054 -0.1353 -0.0067
 2774DOPE   C1A32549  26.272   4.672  14.034 -0.2398  0.1700  0.1257
 2774DOPE   D2A32550  26.099   4.967  14.393 -0.0761  0.2305 -0.0010
 2774DOPE   C3A32551  25.896   5.072  14.803  0.0225 -0.3969 -0.2345
 2774DOPE   C4A32552  25.713   4.843  15.173 -0.3596  0.0134  0.1229
 2774DOPE   C1B32553  26.679   4.359  14.113 -0.3503  0.0524 -0.2831
 2774DOPE   D2B32554  26.327   4.290  14.344  0.1345 -0.3271 -0.0062
 2774DOPE   C3B32555  26.126   3.869  14.246 -0.1536  0.1235 -0.3569
 2774DOPE   C4B32556  25.721   3.642  14.263 -0.0635 -0.2055  0.0108
 2775DOPS   CNO32557  34.186  11.381  13.600  0.0386 -0.4339 -0.0475
 2775DOPS   PO432558  34.176  11.221  13.921 -0.1142  0.3265  0.1151
 2775DOPS   GL132559  34.076  11.218  14.266 -0.1444  0.3517  0.2666
 2775DOPS   GL232560  33.882  11.128  14.392  0.1144  0.0816  0.2825
 2775DOPS   C1A32561  34.234  11.273  14.654 -0.1601 -0.0756 -0.0996
 2775DOPS   D2A32562  34.536  11.124  14.977 -0.1765 -0.1587  0.1536
 2775DOPS   C3A32563  34.893  10.879  14.920 -0.3009  0.1493 -0.0498
 2775DOPS   C4A32564  35.352  10.865  14.904  0.0401 -0.2661 -0.1660
 2775DOPS   C1B32565  33.787  11.233  14.807 -0.2153 -0.1239  0.2588
 2775DOPS   D2B32566  34.041  11.380  15.102  0.0817  0.1301 -0.0816
 2775DOPS   C3B32567  34.045  11.812  15.185 -0.3449 -0.0247  0.1092
 2775DOPS   C4B32568  33.915  12.159  15.355  0.1701 -0.1896 -0.1133
 2776DOPE   NH332569  34.314   2.609  12.827  0.0349  0.0981  0.1054
 2776DOPE   PO432570  34.020   2.613  12.700 -0.0330 -0.1102 -0.0249
 2776DOPE   GL132571  33.920   2.645  13.074 -0.1237 -0.0261  0.1533
 2776DOPE   GL232572  34.122   2.810  13.234  0.1248 -0.2348 -0.3233
 2776DOPE   C1A32573  33.700   3.018  13.297 -0.0240  0.0644 -0.1528
 2776DOPE   D2A32574  33.219   3.142  13.389 -0.0384 -0.1043 -0.0542
 2776DOPE   C3A32575  32.981   3.220  13.836 -0.3051  0.0194  0.2570
 2776DOPE   C4A32576  32.642   3.413  14.067  0.0433  0.2666 -0.0343
 2776DOPE   C1B32577  34.053   2.455  13.598 -0.2879  0.0347 -0.2564
 2776DOPE   D2B32578  34.155   2.063  13.571  0.2860  0.2343 -0.1385
 2776DOPE   C3B32579  34.506   1.887  13.915 -0.0603  0.1740 -0.1170
 2776DOPE   C4B32580  34.889   1.989  14.186 -0.1290 -0.2613  0.0823
 2777DOPS   CNO32581  28.631  34.640  13.308 -0.3202  0.1128 -0.2910
 2777DOPS   PO432582  28.257  34.705  13.207  0.0918  0.0234 -0.0442
 2777DOPS   GL132583  28.315  35.113  13.286 -0.3081  0.1037 -0.0493
 2777DOPS   GL232584  28.603  35.179  13.362 -0.0804  0.0681 -0.0836
 2777DOPS   C1A32585  28.038  35.427  13.097 -0.1927 -0.0108  0.3237
 2777DOPS   D2A32586  28.045  35.878  13.241 -0.3321 -0.2663 -0.1064
 2777DOPS   C3A32587  28.357  35.980  13.537 -0.2007  0.0328 -0.0336
 2777DOPS   C4A32588  28.655  35.865  13.893 -0.0273 -0.1306  0.1039
 2777DOPS   C1B32589  28.600  35.572  13.551  0.1267  0.3810 -0.0277
 2777DOPS   D2B32590  28.247  35.610  13.833 -0.3012 -0.0538 -0.1129
 2777DOPS   C3B32591  28.203  35.932  14.197 -0.0338 -0.2063 -0.0389
 2777DOPS   C4B32592  28.194  36.162  14.638 -0.0091 -0.2284 -0.1018
 2778DOPS   CNO32593  34.081   0.796  12.758  0.2338  0.0792  0.1603
 2778DOPS   PO432594  33.736   0.845  12.837 -0.2065  0.1597 -0.0446
 2778DOPS   GL132595  34.002   0.940  13.228 -0.2436  0.1703 -0.1654
 2778DOPS   GL232596  33.809   1.090  13.285 -0.2214 -0.1971  0.1390
 2778DOPS   C1A32597  34.289   0.992  13.584  0.0189  0.1249  0.0915
 2778DOPS   D2A32598  34.226   0.968  14.004 -0.2766  0.0063  0.0145
 2778DOPS   C3A32599  34.023   0.514  14.186  0.1576 -0.0211 -0.0962
 2778DOPS   C4A32600  33.759   0.229  14.454 -0.1570 -0.1305 -0.2305
 2778DOPS   C1B32601  33.660   1.088  13.760  0.1436 -0.3881  0.0182
 2778DOPS   D2B32602  33.784   1.011  14.238 -0.0065 -0.4074  0.2514
 2778DOPS   C3B32603  33.637   1.340  14.568  0.1515  0.1398  0.1228
 2778DOPS   C4B32604  33.246   1.376  14.867  0.0787  0.2151  0.1280
 2779DOPC   NC332605  28.117   2.235  13.789  0.1436 -0.0352  0.2878
 2779DOPC   PO432606  27.929   2.282  13.399 -0.0425 -0.2513  0.0413
 2779DOPC   GL132607  27.653   2.182  13.525 -0.2772  0.2973 -0.4027
 2779DOPC   GL232608  27.618   2.076  13.796  0.0776  0.0303  0.2392
 2779DOPC   C1A32609  27.300   1.872  13.437 -0.3267 -0.0441  0.3191
 2779DOPC   D2A32610  27.345   1.405  13.318  0.1597 -0.1012 -0.2288
 2779DOPC   C3A32611  27.225   1.094  13.627  0.1033 -0.1667  0.0195
 2779DOPC   C4A32612  27.116   0.767  13.885 -0.0966 -0.2846 -0.0172
 2779DOPC   C1B32613  27.768   2.062  14.195 -0.4883 -0.3360 -0.0023
 2779DOPC   D2B32614  27.764   1.817  14.559 -0.0122  0.1918  0.1751
 2779DOPC   C3B32615  27.346   1.621  14.426 -0.0934  0.1841 -0.4032
 2779DOPC   C4B32616  27.303   1.218  14.203 -0.2492  0.3021 -0.0295
 2780DOPC   NC332617  33.819   7.277  14.020  0.1773 -0.0568 -0.0257
 2780DOPC   PO432618  33.530   7.508  13.853  0.0879  0.2217 -0.0486
 2780DOPC   GL132619  33.385   7.522  14.224  0.3948 -0.1330  0.0640
 2780DOPC   GL232620  33.620   7.629  14.378 -0.0379 -0.4583  0.1005
 2780DOPC   C1A32621  33.447   7.257  14.620  0.2587 -0.0361 -0.0618
 2780DOPC   D2A32622  33.293   7.262  15.071 -0.2515  0.1266 -0.1804
 2780DOPC   C3A32623  33.540   7.548  15.338  0.2060 -0.0684  0.1187
 2780DOPC   C4A32624  33.882   7.738  15.665 -0.1410  0.1941  0.0352
 2780DOPC   C1B32625  33.216   7.718  14.620  0.4485  0.0402  0.1621
 2780DOPC   D2B32626  32.905   7.547  14.901 -0.1154  0.1447  0.0925
 2780DOPC   C3B32627  32.911   7.586  15.372  0.1073 -0.1067  0.1438
 2780DOPC   C4B32628  33.188   7.585  15.784 -0.0422 -0.0341 -0.0118
 2781DOPE   NH332629  29.636   4.070  14.232  0.3855  0.1419  0.6114
 2781DOPE   PO432630  29.603   3.755  14.197 -0.0157  0.1097 -0.2551
 2781DOPE   GL132631  29.580   3.664  14.529 -0.1089 -0.2938 -0.0363
 2781DOPE   GL232632  29.577   3.966  14.704 -0.0246 -0.1097 -0.1531
 2781DOPE   C1A32633  29.852   3.527  14.875  0.0631 -0.0105  0.0644
 2781DOPE   D2A32634  30.133   3.754  15.176 -0.0222 -0.1351  0.0393
 2781DOPE   C3A32635  30.295   4.165  15.315  0.1474  0.1187 -0.1620
 2781DOPE   C4A32636  30.353   4.233  15.761  0.2035  0.4408  0.2958
 2781DOPE   C1B32637  29.132   4.118  14.688  0.0676 -0.0969  0.1576
 2781DOPE   D2B32638  28.971   4.514  14.614  0.0351  0.1570 -0.1611
 2781DOPE   C3B32639  28.686   4.690  14.872  0.2617 -0.1902  0.2356
 2781DOPE   C4B32640  28.702   5.079  15.115  0.1675  0.0767 -0.0931
 2782DOPC   NC332641  32.619  11.807  13.383 -0.0439 -0.2258 -0.2232
 2782DOPC   PO432642  32.786  11.788  13.725 -0.2011  0.1155  0.2888
 2782DOPC   GL132643  32.598  11.763  14.022  0.2333  0.2844 -0.0571
 2782DOPC   GL232644  32.770  11.899  14.270  0.3711  0.0247  0.1118
 2782DOPC   C1A32645  32.299  11.874  14.397  0.1211 -0.0812  0.0814
 2782DOPC   D2A32646  32.151  12.157  14.785 -0.0423  0.3941  0.0379
 2782DOPC   C3A32647  31.903  11.969  15.135  0.2845  0.3350  0.1715
 2782DOPC   C4A32648  31.554  11.641  15.062  0.2888  0.0798  0.3733
 2782DOPC   C1B32649  32.693  11.435  14.367 -0.2029 -0.3168 -0.2109
 2782DOPC   D2B32650  32.551  10.987  14.315  0.0692  0.0925 -0.1025
 2782DOPC   C3B32651  32.295  10.704  14.580  0.1191  0.3447 -0.0060
 2782DOPC   C4B32652  32.408  10.447  14.887 -0.1926 -0.1044 -0.2668
 2783POSM   NC332653  29.220   3.156  13.539 -0.0956  0.1107 -0.0740
 2783POSM   PO432654  29.091   2.824  13.679  0.1639 -0.0294 -0.0095
 2783POSM   AM132655  29.019   2.715  13.974  0.1971  0.0765 -0.3140
 2783POSM   AM232656  29.150   2.490  14.044 -0.0813  0.1455 -0.2549
 2783POSM   T1A32657  28.937   2.704  14.463  0.0262 -0.1455  0.0698
 2783POSM   C2A32658  28.923   2.575  14.942 -0.0367 -0.0406 -0.0531
 2783POSM   C3A32659  28.667   2.529  15.337 -0.0310 -0.1930 -0.0183
 2783POSM   C1B32660  29.359   2.212  14.120 -0.1255  0.1297 -0.0380
 2783POSM   D2B32661  29.527   1.768  14.124 -0.3710  0.0940  0.0095
 2783POSM   C3B32662  29.608   1.485  14.490 -0.0778 -0.2057 -0.4406
 2783POSM   C4B32663  29.860   1.580  14.860 -0.0854 -0.0011  0.2377
 2784DOPC   NC332664  26.166   7.613  13.726  0.1755 -0.1784  0.4157
 2784DOPC   PO432665  26.007   7.812  13.372 -0.3593  0.0340  0.1312
 2784DOPC   GL132666  25.967   8.195  13.507 -0.3821 -0.2914  0.1129
 2784DOPC   GL232667  26.149   8.158  13.789  0.0139  0.0552  0.1031
 2784DOPC   C1A32668  25.633   8.403  13.721  0.0854 -0.0311  0.0850
 2784DOPC   D2A32669  25.359   8.548  14.083 -0.0790 -0.1553 -0.2208
 2784DOPC   C3A32670  25.294   8.189  14.413  0.0237  0.1933  0.0936
 2784DOPC   C4A32671  25.445   8.238  14.839 -0.2068 -0.1468 -0.1022
 2784DOPC   C1B32672  26.096   8.576  13.948 -0.0986  0.0930  0.2047
 2784DOPC   D2B32673  25.865   9.001  14.035  0.0836  0.4482 -0.1224
 2784DOPC   C3B32674  25.531   9.080  14.339  0.3979  0.1761 -0.1539
 2784DOPC   C4B32675  25.246   8.719  14.573 -0.1503 -0.1570 -0.2395
 2785DOPC   NC332676  29.801   8.521  13.217 -0.0485 -0.1717 -0.0378
 2785DOPC   PO432677  29.603   8.293  13.514 -0.2066 -0.0269 -0.1282
 2785DOPC   GL132678  29.310   8.369  13.682  0.5281  0.1318 -0.1728
 2785DOPC   GL232679  29.319   8.156  13.921 -0.0361 -0.2593  0.0265
 2785DOPC   C1A32680  29.327   8.783  13.978 -0.1236 -0.0162  0.0232
 2785DOPC   D2A32681  29.309   8.964  14.388  0.0477  0.0923  0.1524
 2785DOPC   C3A32682  29.254   8.823  14.882 -0.2426  0.1647 -0.0087
 2785DOPC   C4A32683  29.496   8.431  15.018 -0.1320 -0.1175 -0.0054
 2785DOPC   C1B32684  29.613   8.423  14.176 -0.0150  0.5348  0.2975
 2785DOPC   D2B32685  29.750   8.564  14.618 -0.2995  0.2311  0.1568
 2785DOPC   C3B32686  29.731   8.989  14.651 -0.3906  0.0184 -0.1495
 2785DOPC   C4B32687  29.908   9.422  14.728  0.0197 -0.1904 -0.0606
 2786DOPE   NH332688  26.535   7.905  13.297 -0.0339 -0.1218 -0.1267
 2786DOPE   PO432689  26.608   8.008  13.562  0.0254 -0.2589  0.1871
 2786DOPE   GL132690  26.708   8.397  13.643 -0.2229 -0.0296  0.1290
 2786DOPE   GL232691  26.455   8.491  13.474  0.1774 -0.3734 -0.0646
 2786DOPE   C1A32692  26.615   8.856  13.715 -0.0111 -0.2938  0.0068
 2786DOPE   D2A32693  26.377   9.251  13.810  0.1507  0.0129 -0.0416
 2786DOPE   C3A32694  26.329   9.624  14.104 -0.0015  0.1996  0.0437
 2786DOPE   C4A32695  26.355   9.929  14.410  0.1000 -0.0077 -0.0687
 2786DOPE   C1B32696  26.330   8.928  13.328 -0.2416 -0.0895  0.2736
 2786DOPE   D2B32697  26.213   9.348  13.219 -0.1611 -0.0082  0.1237
 2786DOPE   C3B32698  26.477   9.665  13.047 -0.0750 -0.1798 -0.2201
 2786DOPE   C4B32699  26.548   9.951  12.666  0.1113 -0.1253 -0.1025
 2787DOPE   NH332700  24.870  11.233  12.685 -0.2532 -0.0051 -0.0253
 2787DOPE   PO432701  25.149  11.041  12.546 -0.1210 -0.2196 -0.0547
 2787DOPE   GL132702  25.185  10.718  12.807 -0.0980 -0.0938  0.1727
 2787DOPE   GL232703  25.347  10.877  13.002  0.1960 -0.0414  0.0711
 2787DOPE   C1A32704  25.358  10.373  13.064  0.0336  0.2548  0.1393
 2787DOPE   D2A32705  25.365  10.261  13.493  0.0805 -0.1123 -0.0080
 2787DOPE   C3A32706  25.742  10.015  13.618  0.0508  0.2886 -0.0592
 2787DOPE   C4A32707  26.005  10.061  14.014 -0.0652  0.1820  0.1474
 2787DOPE   C1B32708  25.456  10.778  13.426  0.1825 -0.1778  0.2629
 2787DOPE   D2B32709  25.539  10.608  13.873 -0.0561 -0.0714  0.0424
 2787DOPE   C3B32710  25.231  10.765  14.211 -0.2511 -0.0443  0.3485
 2787DOPE   C4B32711  24.940  10.907  14.527 -0.1360  0.0936 -0.2460
 2788DOPC   NC332712  23.171   6.748  13.053  0.2713  0.4107  0.2541
 2788DOPC   PO432713  23.128   6.534  12.743  0.0629  0.0793  0.2585
 2788DOPC   GL132714  23.444   6.256  12.754  0.0789 -0.0085 -0.0767
 2788DOPC   GL232715  23.389   6.276  13.084 -0.0641  0.1097  0.1465
 2788DOPC   C1A32716  23.719   5.910  12.953  0.2654  0.1085 -0.1902
 2788DOPC   D2A32717  23.983   5.801  13.290  0.1736 -0.2009 -0.0632
 2788DOPC   C3A32718  23.925   5.446  13.567 -0.3165  0.2201  0.1022
 2788DOPC   C4A32719  24.077   5.378  13.984 -0.1883  0.1045  0.3850
 2788DOPC   C1B32720  23.021   6.351  13.389  0.3674  0.0940  0.1544
 2788DOPC   D2B32721  22.805   6.749  13.613 -0.2264 -0.1821 -0.2620
 2788DOPC   C3B32722  22.540   6.813  13.950 -0.1713  0.1057  0.0497
 2788DOPC   C4B32723  22.176   6.731  14.203  0.2501  0.0379  0.3880
 2789DOPE   NH332724  33.192   6.465  13.446  0.1040  0.0038  0.3859
 2789DOPE   PO432725  33.246   6.690  13.653 -0.0492  0.0964  0.0738
 2789DOPE   GL132726  33.111   6.628  13.965 -0.3299 -0.1340 -0.1351
 2789DOPE   GL232727  33.048   6.396  14.041 -0.0803 -0.7256 -0.2373
 2789DOPE   C1A32728  32.984   6.712  14.435  0.1601  0.2409  0.0513
 2789DOPE   D2A32729  32.846   6.451  14.813 -0.0319  0.0308 -0.0284
 2789DOPE   C3A32730  33.122   6.139  15.156 -0.1150  0.0537  0.1546
 2789DOPE   C4A32731  33.336   5.905  15.463 -0.4292  0.1944  0.3385
 2789DOPE   C1B32732  33.019   6.200  14.419  0.0622 -0.0490 -0.2999
 2789DOPE   D2B32733  32.974   5.843  14.708 -0.3075  0.0377 -0.0926
 2789DOPE   C3B32734  32.609   5.728  14.943 -0.2911 -0.1280  0.1748
 2789DOPE   C4B32735  32.227   5.848  15.119  0.1289  0.0745  0.2019
 2790DOPS   CNO32736  29.565  10.796  13.161  0.0094  0.0563 -0.0402
 2790DOPS   PO432737  29.825  10.751  13.414 -0.4134 -0.4465  0.2470
 2790DOPS   GL132738  29.900  10.971  13.776 -0.0674  0.0294  0.2103
 2790DOPS   GL232739  29.665  10.983  13.999 -0.0860  0.0994  0.2002
 2790DOPS   C1A32740  30.049  10.668  14.136  0.1129 -0.0972 -0.1943
 2790DOPS   D2A32741  30.048  10.207  14.103  0.0781 -0.1543  0.1489
 2790DOPS   C3A32742  29.880  10.239  14.506 -0.2284 -0.0312 -0.3852
 2790DOPS   C4A32743  29.699  10.556  14.840  0.0143 -0.0230  0.1802
 2790DOPS   C1B32744  29.776  10.916  14.470  0.2415  0.1099 -0.0127
 2790DOPS   D2B32745  30.006  10.954  14.845  0.1867  0.3391  0.1875
 2790DOPS   C3B32746  30.469  10.824  14.902 -0.1373  0.0692 -0.1683
 2790DOPS   C4B32747  30.917  10.942  15.050 -0.1577 -0.0253  0.0174
 2791DOPC   NC332748  27.051  11.516  13.167 -0.3619  0.5366 -0.0457
 2791DOPC   PO432749  26.669  11.631  13.022 -0.2575  0.0206  0.2234
 2791DOPC   GL132750  26.541  11.430  13.374  0.0024 -0.1341 -0.2770
 2791DOPC   GL232751  26.369  11.232  13.293  0.2454 -0.2479 -0.2192
 2791DOPC   C1A32752  26.697  11.081  13.614 -0.0833 -0.0331  0.0652
 2791DOPC   D2A32753  26.497  10.771  13.963  0.0648 -0.0214  0.0302
 2791DOPC   C3A32754  26.088  10.974  14.142  0.0968 -0.0115  0.3636
 2791DOPC   C4A32755  25.647  11.049  14.235  0.0901 -0.3736  0.1541
 2791DOPC   C1B32756  26.479  10.951  12.914 -0.0419 -0.2237  0.1977
 2791DOPC   D2B32757  26.422  10.478  12.966  0.1109 -0.0281  0.3324
 2791DOPC   C3B32758  26.856  10.315  13.077 -0.0764 -0.1010  0.0875
 2791DOPC   C4B32759  27.305  10.251  12.889 -0.0566  0.0013 -0.0582
 2792POSM   NC332760  32.628   7.642  13.301  0.0713 -0.0541  0.3054
 2792POSM   PO432761  32.617   7.312  13.520  0.0318 -0.0087  0.1104
 2792POSM   AM132762  32.503   7.412  13.774  0.0738 -0.0744  0.2107
 2792POSM   AM232763  32.472   7.320  14.080 -0.1310 -0.0378 -0.0251
 2792POSM   T1A32764  32.140   7.692  13.836 -0.1986  0.0141 -0.1555
 2792POSM   C2A32765  31.907   8.073  13.945 -0.3681  0.0417 -0.1601
 2792POSM   C3A32766  31.668   8.425  13.811  0.5344  0.2626  0.1015
 2792POSM   C1B32767  32.204   7.327  14.300  0.2447 -0.1967 -0.2520
 2792POSM   D2B32768  31.920   7.292  14.642  0.3673  0.0200 -0.0387
 2792POSM   C3B32769  31.995   7.113  15.085 -0.0901 -0.2971  0.1629
 2792POSM   C4B32770  31.705   6.966  15.391  0.2715  0.1013 -0.3867
 2793DOPC   NC332771  25.102   6.917  12.997  0.1086 -0.0415 -0.0564
 2793DOPC   PO432772  24.723   6.797  12.950 -0.0032  0.0616  0.3483
 2793DOPC   GL132773  24.858   6.693  13.306  0.0547  0.1249  0.0959
 2793DOPC   GL232774  25.106   6.527  13.263  0.1859 -0.0258 -0.0567
 2793DOPC   C1A32775  24.673   6.466  13.672  0.2782  0.0828 -0.2626
 2793DOPC   D2A32776  24.503   6.506  14.077 -0.1667 -0.0804  0.5035
 2793DOPC   C3A32777  24.349   6.155  14.175 -0.2591  0.0570  0.0083
 2793DOPC   C4A32778  24.029   5.822  14.145  0.1906 -0.1606  0.0265
 2793DOPC   C1B32779  24.843   6.105  13.397  0.0393 -0.0129 -0.2234
 2793DOPC   D2B32780  24.482   5.849  13.340 -0.1945 -0.2855  0.1507
 2793DOPC   C3B32781  24.222   6.001  13.706  0.1290 -0.0266  0.0783
 2793DOPC   C4B32782  23.742   5.999  13.757 -0.1011 -0.0302  0.2515
 2794POSM   NC332783  28.973   8.276  13.402  0.1219 -0.1443  0.1430
 2794POSM   PO432784  28.923   7.967  13.586 -0.3047  0.0253  0.2331
 2794POSM   AM132785  28.772   8.157  13.810 -0.0602  0.2348 -0.3312
 2794POSM   AM232786  28.829   8.414  13.906  0.0240  0.2367  0.2080
 2794POSM   T1A32787  28.543   8.143  14.237 -0.2886  0.0565  0.1126
 2794POSM   C2A32788  28.121   8.382  14.305  0.0717 -0.1988 -0.1335
 2794POSM   C3A32789  27.693   8.497  14.530 -0.2401  0.1837  0.0502
 2794POSM   C1B32790  28.980   8.381  14.214 -0.1023  0.1641 -0.1113
 2794POSM   D2B32791  28.995   8.437  14.636  0.0078  0.1542 -0.0911
 2794POSM   C3B32792  28.932   8.245  15.054 -0.0025 -0.0138  0.1460
 2794POSM   C4B32793  29.120   8.234  15.455 -0.0914 -0.1597  0.1203
 2795DOPE   NH332794  26.264   6.558  13.976 -0.1013  0.0095  0.0522
 2795DOPE   PO432795  26.181   6.610  13.668 -0.2099 -0.0014  0.3955
 2795DOPE   GL132796  25.849   6.620  13.929 -0.2029  0.0369  0.1743
 2795DOPE   GL232797  25.671   6.357  13.900  0.2630  0.0363 -0.0166
 2795DOPE   C1A32798  25.896   6.872  14.342  0.1350 -0.1811  0.2219
 2795DOPE   D2A32799  25.857   7.119  14.737  0.1068  0.2247 -0.1145
 2795DOPE   C3A32800  25.442   7.108  14.840  0.1554  0.0291 -0.1569
 2795DOPE   C4A32801  24.976   7.139  14.970 -0.1300 -0.0558 -0.1557
 2795DOPE   C1B32802  25.915   6.312  14.284 -0.2018 -0.2095  0.2479
 2795DOPE   D2B32803  26.233   6.484  14.503  0.1987  0.2011 -0.2298
 2795DOPE   C3B32804  26.325   6.481  14.928  0.1198 -0.1204 -0.0349
 2795DOPE   C4B32805  26.094   6.148  15.240 -0.2437  0.0337  0.0527
 2796DOPE   NH332806  32.760   6.737  13.607  0.0197 -0.1121  0.1960
 2796DOPE   PO432807  32.857   6.952  13.859 -0.2155 -0.1803  0.2983
 2796DOPE   GL132808  32.660   6.717  14.091  0.3213 -0.3029 -0.0435
 2796DOPE   GL232809  32.400   6.845  14.158 -0.3686 -0.4651  0.3159
 2796DOPE   C1A32810  32.531   6.494  14.468 -0.0670  0.0853  0.0413
 2796DOPE   D2A32811  32.501   6.051  14.536  0.0283 -0.3596  0.0330
 2796DOPE   C3A32812  32.128   5.822  14.678 -0.0529 -0.4498  0.0079
 2796DOPE   C4A32813  31.823   5.592  14.913 -0.3311 -0.2045  0.2084
 2796DOPE   C1B32814  32.539   7.018  14.490  0.2870  0.0509  0.2660
 2796DOPE   D2B32815  32.452   7.390  14.779 -0.0132  0.1457  0.4972
 2796DOPE   C3B32816  32.485   7.254  15.237 -0.3266  0.2389  0.0435
 2796DOPE   C4B32817  32.357   6.847  15.456 -0.2409 -0.3001  0.0254
 2797DOPS   CNO32818  30.107  34.200  13.096  0.1865 -0.0344 -0.1772
 2797DOPS   PO432819  29.856  34.221  13.391  0.0726 -0.1307 -0.1117
 2797DOPS   GL132820  29.827  34.116  13.778  0.0619 -0.1159  0.3058
 2797DOPS   GL232821  30.011  34.288  13.908 -0.0382  0.0961 -0.0938
 2797DOPS   C1A32822  30.036  33.837  14.099  0.0453 -0.0252 -0.2454
 2797DOPS   D2A32823  30.356  33.537  14.257 -0.2686  0.1065  0.0265
 2797DOPS   C3A32824  30.555  33.147  14.243 -0.1397 -0.2701  0.1068
 2797DOPS   C4A32825  30.510  32.806  14.011  0.0471 -0.0431  0.0537
 2797DOPS   C1B32826  30.252  34.695  14.106 -0.1854  0.2269  0.1441
 2797DOPS   D2B32827  30.378  34.827  14.535 -0.3212  0.2180  0.0145
 2797DOPS   C3B32828  30.172  34.853  14.925  0.0820  0.0444  0.1459
 2797DOPS   C4B32829  30.100  34.744  15.382 -0.3013  0.0778 -0.1618
 2798DOPE   NH332830  26.077   0.047  13.471  0.1633  0.3120 -0.0871
 2798DOPE   PO432831  26.008   0.029  13.103  0.1276  0.0700  0.0888
 2798DOPE   GL132832  25.673   0.077  12.993  0.2600  0.1658 -0.0529
 2798DOPE   GL232833  25.563   0.323  13.149  0.3560 -0.0585  0.0818
 2798DOPE   C1A32834  25.204  -0.018  12.978  0.2662 -0.1076  0.1788
 2798DOPE   D2A32835  24.754  -0.009  13.092  0.1029 -0.1758  0.0750
 2798DOPE   C3A32836  24.659   0.445  13.253  0.0978 -0.1521  0.3388
 2798DOPE   C4A32837  24.505   0.756  13.596 -0.6511  0.2036 -0.0559
 2798DOPE   C1B32838  25.395   0.516  12.901 -0.1838 -0.0033  0.0937
 2798DOPE   D2B32839  24.962   0.738  12.880  0.0606 -0.1516 -0.0997
 2798DOPE   C3B32840  24.901   1.075  13.182  0.2116  0.2261 -0.2095
 2798DOPE   C4B32841  24.844   1.385  13.473  0.2167 -0.0829 -0.1720
 2799DOPE   NH332842  32.427   0.716  13.248  0.1629  0.0940 -0.1351
 2799DOPE   PO432843  32.332   0.987  13.382  0.4801 -0.2111 -0.0025
 2799DOPE   GL132844  32.199   0.890  13.667  0.0888 -0.6026 -0.0290
 2799DOPE   GL232845  31.944   0.826  13.697  0.2158  0.1956  0.1829
 2799DOPE   C1A32846  32.097   1.094  14.054 -0.0744 -0.1046  0.3273
 2799DOPE   D2A32847  32.349   1.365  14.356 -0.0747 -0.0555  0.0495
 2799DOPE   C3A32848  32.427   1.724  14.590 -0.3124  0.1850  0.0328
 2799DOPE   C4A32849  32.107   1.864  15.006  0.0194 -0.0682  0.2731
 2799DOPE   C1B32850  32.009   0.616  14.076 -0.1398 -0.2225  0.0224
 2799DOPE   D2B32851  31.972   0.427  14.500 -0.3160  0.1893 -0.0034
 2799DOPE   C3B32852  32.184   0.399  14.951  0.0748  0.0060 -0.0379
 2799DOPE   C4B32853  32.233   0.339  15.406  0.0337 -0.3159  0.1708
 2800POSM   NC332854  33.147  10.547  13.791  0.1010 -0.1659 -0.1316
 2800POSM   PO432855  33.506  10.537  13.945  0.0028 -0.1467  0.0298
 2800POSM   AM132856  33.467  10.236  13.977 -0.1221 -0.0860 -0.3229
 2800POSM   AM232857  33.489  10.075  14.210 -0.0965 -0.1094  0.4211
 2800POSM   T1A32858  33.445   9.805  13.808  0.0146  0.1319 -0.0671
 2800POSM   C2A32859  33.288   9.332  13.930 -0.3464 -0.1002 -0.2032
 2800POSM   C3A32860  33.550   8.936  14.058  0.2185  0.0026 -0.3976
 2800POSM   C1B32861  33.622   9.913  14.449 -0.2270  0.0012 -0.0980
 2800POSM   D2B32862  33.893   9.657  14.749 -0.1934  0.2338  0.1142
 2800POSM   C3B32863  34.338   9.725  14.643  0.0565 -0.1645 -0.0916
 2800POSM   C4B32864  34.680   9.736  14.324 -0.1150  0.2580 -0.1805
 2801DOPC   NC332865  33.340   8.028  13.657  0.0378 -0.0389 -0.2578
 2801DOPC   PO432866  33.673   8.037  13.411 -0.3155  0.0064 -0.1164
 2801DOPC   GL132867  33.590   8.443  13.473 -0.2640  0.3179  0.1025
 2801DOPC   GL232868  33.726   8.386  13.740 -0.1357 -0.2935  0.0756
 2801DOPC   C1A32869  33.335   8.815  13.617  0.2088  0.0687  0.1120
 2801DOPC   D2A32870  32.978   8.921  13.912  0.1194  0.0763  0.2453
 2801DOPC   C3A32871  32.561   8.967  14.046 -0.3451  0.1524  0.0837
 2801DOPC   C4A32872  32.193   9.224  14.164 -0.2015  0.3012 -0.0065
 2801DOPC   C1B32873  34.184   8.516  13.826  0.0067  0.1001 -0.0689
 2801DOPC   D2B32874  34.430   8.907  13.849 -0.1454 -0.0329 -0.1850
 2801DOPC   C3B32875  34.649   9.118  13.457  0.1384  0.0387 -0.1343
 2801DOPC   C4B32876  34.898   9.464  13.305 -0.0993  0.2892 -0.1495
 2802DOPC   NC332877  28.354   0.205  13.753  0.1562  0.1870  0.3681
 2802DOPC   PO432878  28.064   0.488  13.681  0.0750  0.1599 -0.0505
 2802DOPC   GL132879  27.910   0.442  14.072  0.2226 -0.1217 -0.1492
 2802DOPC   GL232880  27.667   0.237  14.035  0.0565  0.0130 -0.2015
 2802DOPC   C1A32881  28.273   0.417  14.370  0.1420  0.2224 -0.0203
 2802DOPC   D2A32882  28.564   0.148  14.527 -0.3597 -0.0254  0.1483
 2802DOPC   C3A32883  28.901   0.236  14.767  0.1782 -0.2508  0.1555
 2802DOPC   C4A32884  29.116   0.505  15.045 -0.0759 -0.0625  0.4211
 2802DOPC   C1B32885  27.484  -0.091  14.335 -0.1222  0.0714 -0.2375
 2802DOPC   D2B32886  27.729  -0.353  14.667  0.2818 -0.1930  0.2980
 2802DOPC   C3B32887  27.496  -0.634  14.942  0.0159  0.2145  0.0982
 2802DOPC   C4B32888  27.311  -0.755  15.356 -0.1536  0.4193  0.1414
 2803DOPE   NH332889  26.989   0.288  13.570 -0.0232 -0.2470 -0.0559
 2803DOPE   PO432890  27.195   0.180  13.800  0.1926  0.1110  0.0785
 2803DOPE   GL132891  27.148   0.361  14.103 -0.0679 -0.2304  0.0428
 2803DOPE   GL232892  26.814   0.423  14.101 -0.0185 -0.1909  0.0746
 2803DOPE   C1A32893  27.143   0.697  14.398 -0.3443 -0.2257  0.1594
 2803DOPE   D2A32894  26.937   1.115  14.510  0.0058 -0.0747 -0.2557
 2803DOPE   C3A32895  27.191   1.310  14.853  0.0568 -0.0446  0.1328
 2803DOPE   C4A32896  27.370   1.453  15.264  0.2707 -0.0609  0.2460
 2803DOPE   C1B32897  26.516   0.195  14.343  0.2034 -0.2800  0.2076
 2803DOPE   D2B32898  26.036   0.147  14.419  0.0142  0.0803  0.3201
 2803DOPE   C3B32899  25.878  -0.260  14.573 -0.0736  0.0898 -0.0770
 2803DOPE   C4B32900  25.740  -0.318  14.993  0.0837 -0.1002  0.4109
 2804DOPE   NH332901  30.499   3.563  13.849 -0.3049 -0.0014 -0.0042
 2804DOPE   PO432902  30.466   3.757  14.088  0.0013 -0.0613 -0.2426
 2804DOPE   GL132903  30.707   3.981  14.128  0.1758 -0.1828 -0.1905
 2804DOPE   GL232904  30.943   3.902  13.951 -0.2636 -0.1120 -0.1068
 2804DOPE   C1A32905  31.035   4.160  14.401  0.1024  0.0312  0.2850
 2804DOPE   D2A32906  31.273   4.152  14.772  0.1657 -0.0551 -0.2381
 2804DOPE   C3A32907  31.133   3.991  15.195  0.0916  0.0450  0.0976
 2804DOPE   C4A32908  31.190   3.943  15.643 -0.2277  0.3326 -0.0820
 2804DOPE   C1B32909  31.324   4.052  14.006 -0.2828  0.0878 -0.0036
 2804DOPE   D2B32910  31.626   4.353  13.850 -0.3395 -0.1777  0.1064
 2804DOPE   C3B32911  31.679   4.776  14.032  0.1881  0.0494 -0.1293
 2804DOPE   C4B32912  31.661   4.950  14.432 -0.2877  0.1121 -0.1511
 2805POSM   NC332913  29.436   0.374  13.562  0.1584 -0.1028 -0.0434
 2805POSM   PO432914  29.092   0.207  13.471 -0.0748  0.2125  0.0896
 2805POSM   AM132915  28.971   0.450  13.632  0.0671  0.1540 -0.1753
 2805POSM   AM232916  28.823   0.433  13.874  0.1455 -0.1087  0.2463
 2805POSM   T1A32917  29.066   0.915  13.867  0.1136  0.0763 -0.0052
 2805POSM   C2A32918  29.270   0.966  14.311  0.0075  0.0200 -0.0304
 2805POSM   C3A32919  29.475   0.639  14.545 -0.1010  0.2051 -0.2504
 2805POSM   C1B32920  28.632   0.672  13.990 -0.1024  0.0004 -0.1307
 2805POSM   D2B32921  28.511   0.913  14.367 -0.0419  0.0165  0.1732
 2805POSM   C3B32922  28.642   1.343  14.441  0.3516 -0.0086 -0.0863
 2805POSM   C4B32923  28.626   1.779  14.492 -0.1063 -0.3279  0.1899
 2806POSM   NC332924  29.682   4.908  13.949 -0.1930 -0.0274 -0.2483
 2806POSM   PO432925  29.891   4.788  13.673 -0.1063 -0.2313  0.2047
 2806POSM   AM132926  30.174   4.949  13.732 -0.2088 -0.0900 -0.4342
 2806POSM   AM232927  30.300   5.040  13.984 -0.1687  0.0968 -0.1823
 2806POSM   T1A32928  30.638   5.198  13.711 -0.1047 -0.0774 -0.1713
 2806POSM   C2A32929  31.008   5.105  13.419 -0.0634  0.0009 -0.0229
 2806POSM   C3A32930  31.413   5.065  13.180  0.0994 -0.0937  0.0564
 2806POSM   C1B32931  30.574   4.936  14.229 -0.4188 -0.1669 -0.0149
 2806POSM   D2B32932  30.722   4.719  14.679  0.0113  0.4528  0.1693
 2806POSM   C3B32933  31.198   4.651  14.744 -0.3582 -0.1446  0.1974
 2806POSM   C4B32934  31.482   4.762  15.047  0.1707  0.0022 -0.0073
 2807POSM   NC332935  24.411  10.588  12.942 -0.3764  0.2039  0.1333
 2807POSM   PO432936  24.233  10.523  12.592 -0.3527 -0.0594 -0.0941
 2807POSM   AM132937  24.344  10.210  12.621 -0.1476  0.2469  0.0069
 2807POSM   AM232938  24.410  10.035  12.863 -0.0521 -0.1448 -0.0456
 2807POSM   T1A32939  24.444   9.762  12.449 -0.1333  0.0106  0.0668
 2807POSM   C2A32940  24.364   9.315  12.621 -0.0792  0.0548  0.0820
 2807POSM   C3A32941  24.653   9.063  12.378  0.0817  0.0919 -0.2347
 2807POSM   C1B32942  24.312   9.716  13.021 -0.1144  0.0816  0.2404
 2807POSM   D2B32943  24.192   9.269  13.120  0.2766  0.0574  0.1135
 2807POSM   C3B32944  23.944   9.124  12.771 -0.1091  0.1859 -0.1982
 2807POSM   C4B32945  23.529   9.281  12.619  0.0053 -0.1254 -0.3272
 2808POSM   NC332946  34.279   4.392  12.789 -0.1438  0.2595  0.2935
 2808POSM   PO432947  34.527   4.120  12.910 -0.2758 -0.0528 -0.1262
 2808POSM   AM132948  34.221   3.997  12.968  0.2628  0.1984 -0.0394
 2808POSM   AM232949  33.990   4.062  13.136  0.1401  0.3140  0.1806
 2808POSM   T1A32950  33.884   3.766  12.782 -0.1796 -0.0125 -0.0857
 2808POSM   C2A32951  33.566   3.436  12.833 -0.1776 -0.0358  0.0804
 2808POSM   C3A32952  33.412   2.971  12.828 -0.0038 -0.0794 -0.1100
 2808POSM   C1B32953  33.636   4.043  13.178  0.1516 -0.0895 -0.0580
 2808POSM   D2B32954  33.251   3.828  13.063  0.3570  0.1249  0.0742
 2808POSM   C3B32955  32.906   3.474  13.217  0.0238  0.1085 -0.0483
 2808POSM   C4B32956  32.473   3.359  13.090 -0.1602  0.0976 -0.1415
 2809DOPC   NC332957  26.596   6.930  13.181  0.3372  0.0129  0.2523
 2809DOPC   PO432958  26.696   6.877  13.537  0.0072  0.0922  0.0728
 2809DOPC   GL132959  26.674   6.799  13.966  0.5795  0.1645  0.2356
 2809DOPC   GL232960  26.800   6.529  13.877 -0.4502 -0.1996  0.0122
 2809DOPC   C1A32961  26.768   6.629  14.425 -0.1835  0.0998  0.0754
 2809DOPC   D2A32962  26.718   6.171  14.553 -0.0253  0.0019  0.0979
 2809DOPC   C3A32963  26.333   5.940  14.488  0.0223  0.1695  0.0666
 2809DOPC   C4A32964  25.973   5.968  14.735 -0.0409 -0.1246  0.5271
 2809DOPC   C1B32965  27.014   6.188  14.174 -0.1324  0.0462  0.0974
 2809DOPC   D2B32966  26.996   5.781  14.296 -0.3416  0.3150  0.0201
 2809DOPC   C3B32967  26.757   5.630  14.666  0.3135  0.0298  0.4800
 2809DOPC   C4B32968  26.476   5.903  14.956  0.2606 -0.0022 -0.1138
 2810DOPC   NC332969  31.853   0.945  13.199 -0.0319  0.0616  0.0344
 2810DOPC   PO432970  31.548   0.681  13.197  0.2536  0.1199  0.0551
 2810DOPC   GL132971  31.479   0.744  13.545 -0.0570  0.1618  0.2952
 2810DOPC   GL232972  31.324   0.984  13.524  0.1734  0.1466 -0.0754
 2810DOPC   C1A32973  31.580   0.701  14.004  0.1396  0.1147  0.3003
 2810DOPC   D2A32974  31.713   0.990  14.315 -0.1884 -0.0709  0.1859
 2810DOPC   C3A32975  31.596   1.195  14.748 -0.2116  0.3926 -0.1663
 2810DOPC   C4A32976  31.700   1.599  14.999  0.3103  0.0122 -0.1487
 2810DOPC   C1B32977  31.602   1.179  13.780 -0.0621  0.0045 -0.0501
 2810DOPC   D2B32978  31.786   1.529  14.017  0.0685  0.3184  0.2312
 2810DOPC   C3B32979  31.888   1.447  14.437  0.2444 -0.1168 -0.0054
 2810DOPC   C4B32980  32.105   1.290  14.833 -0.0014  0.0646  0.0956
 2811DOPE   NH332981  30.026   6.947  13.479 -0.1791 -0.1528 -0.0398
 2811DOPE   PO432982  30.286   7.180  13.495 -0.0838  0.4727 -0.1297
 2811DOPE   GL132983  30.599   7.033  13.250 -0.1847 -0.3137 -0.0352
 2811DOPE   GL232984  30.807   7.235  13.427 -0.1140  0.0600 -0.1700
 2811DOPE   C1A32985  31.013   6.966  13.043 -0.0163  0.3179  0.2531
 2811DOPE   D2A32986  31.329   7.226  13.252 -0.1101 -0.4262 -0.1431
 2811DOPE   C3A32987  31.505   7.148  13.664  0.0721  0.0274  0.2863
 2811DOPE   C4A32988  31.688   7.491  13.935  0.2124  0.3164 -0.4531
 2811DOPE   C1B32989  31.026   7.424  13.854  0.0057 -0.1459 -0.1738
 2811DOPE   D2B32990  31.180   7.599  14.217  0.0662 -0.1285  0.0038
 2811DOPE   C3B32991  31.283   7.247  14.538  0.4111 -0.0586  0.3069
 2811DOPE   C4B32992  31.042   6.919  14.818  0.0041 -0.4901 -0.0200
 2812DOPC   NC332993  30.535   7.239  13.915  0.0782 -0.1311  0.0934
 2812DOPC   PO432994  30.416   6.922  13.918 -0.0128  0.2158 -0.0712
 2812DOPC   GL132995  30.425   6.972  14.324  0.0069 -0.0481  0.3897
 2812DOPC   GL232996  30.312   7.206  14.379  0.1532 -0.1588  0.0038
 2812DOPC   C1A32997  30.565   6.773  14.712 -0.0324 -0.1091  0.2938
 2812DOPC   D2A32998  30.648   6.374  14.846 -0.1255  0.6350  0.1875
 2812DOPC   C3A32999  30.635   6.208  15.283  0.0060  0.0274  0.0115
 2812DOPC   C4A33000  30.539   6.101  15.766  0.0198 -0.0445  0.3221
 2812DOPC   C1B33001  30.485   7.318  14.820  0.4456 -0.0914  0.1704
 2812DOPC   D2B33002  30.716   7.070  15.139  0.2083 -0.2448  0.0710
 2812DOPC   C3B33003  30.514   6.729  15.351  0.3356  0.1029 -0.1175
 2812DOPC   C4B33004  30.375   6.642  15.785 -0.4596 -0.1526  0.0035
 2813DOPC   NC333005  33.019   7.495  13.728 -0.0718 -0.0586 -0.0193
 2813DOPC   PO433006  32.775   7.840  13.758 -0.3035 -0.1100  0.0194
 2813DOPC   GL133007  32.751   8.147  14.020 -0.1204  0.0723 -0.1784
 2813DOPC   GL233008  32.708   8.346  13.772  0.0394 -0.1297  0.2681
 2813DOPC   C1A33009  32.529   8.456  14.339 -0.2579 -0.1292 -0.1109
 2813DOPC   D2A33010  32.212   8.713  14.502  0.1094 -0.0637  0.4477
 2813DOPC   C3A33011  31.939   8.342  14.518 -0.2151  0.4166 -0.0495
 2813DOPC   C4A33012  31.440   8.295  14.456  0.1248 -0.1746 -0.2036
 2813DOPC   C1B33013  32.473   8.730  13.608  0.3244  0.1137  0.0445
 2813DOPC   D2B33014  32.113   9.066  13.677 -0.1359  0.0581 -0.2322
 2813DOPC   C3B33015  31.843   8.843  13.907 -0.1122 -0.0678  0.1184
 2813DOPC   C4B33016  31.663   8.706  14.312 -0.3486 -0.2555 -0.0464
 2814DOPS   CNO33017  29.720  11.962  13.365  0.1870  0.4865  0.2459
 2814DOPS   PO433018  30.097  11.816  13.378  0.2629 -0.0975 -0.0154
 2814DOPS   GL133019  30.344  11.851  13.044 -0.1683  0.3344 -0.2177
 2814DOPS   GL233020  30.472  11.657  12.862 -0.0282 -0.5193 -0.0773
 2814DOPS   C1A33021  30.781  12.082  12.926 -0.0398  0.2334  0.1264
 2814DOPS   D2A33022  30.973  12.298  13.228  0.1464 -0.1706  0.3268
 2814DOPS   C3A33023  31.025  12.141  13.625  0.1561  0.0052 -0.0423
 2814DOPS   C4A33024  30.925  11.807  13.904  0.0893  0.2395  0.3084
 2814DOPS   C1B33025  30.853  11.523  12.699 -0.1457 -0.2096 -0.0575
 2814DOPS   D2B33026  31.304  11.408  12.798  0.1955  0.2816  0.1355
 2814DOPS   C3B33027  31.598  11.615  13.154  0.0593  0.0217 -0.0535
 2814DOPS   C4B33028  31.568  11.824  13.522 -0.0627  0.1844 -0.2711
 2815POSM   NC333029  33.069   7.100  13.357  0.1574  0.3191 -0.0948
 2815POSM   PO433030  33.384   6.962  13.139 -0.0844  0.0172  0.0084
 2815POSM   AM133031  33.392   6.646  13.007  0.0202 -0.1174 -0.0129
 2815POSM   AM233032  33.261   6.441  12.892 -0.1562 -0.0593 -0.1159
 2815POSM   T1A33033  33.730   6.350  12.770 -0.1163 -0.0620  0.0140
 2815POSM   C2A33034  34.118   6.174  12.658 -0.1857 -0.2438 -0.3444
 2815POSM   C3A33035  34.572   6.252  12.554 -0.1453 -0.1743 -0.0604
 2815POSM   C1B33036  33.238   6.090  13.038 -0.0207 -0.1127  0.2066
 2815POSM   D2B33037  33.064   5.767  13.273 -0.0168  0.3073 -0.2355
 2815POSM   C3B33038  33.187   5.330  13.198 -0.1689 -0.1648 -0.0921
 2815POSM   C4B33039  33.438   5.016  13.003 -0.0287 -0.0230  0.2407
 2816DOPS   CNO33040  30.038   8.579  13.654  0.4978 -0.0028  0.2545
 2816DOPS   PO433041  30.241   8.778  13.450  0.4160 -0.1311  0.1016
 2816DOPS   GL133042  30.402   9.068  13.641  0.0675 -0.0435 -0.1833
 2816DOPS   GL233043  30.366   9.038  13.914  0.0558 -0.0987  0.0764
 2816DOPS   C1A33044  30.836   9.017  13.859 -0.0379 -0.1462  0.4330
 2816DOPS   D2A33045  31.224   8.796  13.972  0.0714 -0.0442 -0.2646
 2816DOPS   C3A33046  31.151   8.357  13.903  0.0619 -0.2725 -0.0200
 2816DOPS   C4A33047  31.367   7.952  13.988  0.0845  0.1489  0.1282
 2816DOPS   C1B33048  30.590   9.420  13.989  0.0191  0.0550 -0.1296
 2816DOPS   D2B33049  30.978   9.599  13.851  0.1007  0.1259 -0.1759
 2816DOPS   C3B33050  31.269   9.284  14.036 -0.0109  0.2539 -0.0874
 2816DOPS   C4B33051  31.727   9.209  14.272 -0.0696 -0.0519  0.3647
 2817POSM   NC333052  26.045   6.078  13.643  0.1313 -0.0269 -0.1373
 2817POSM   PO433053  25.719   5.978  13.417  0.0574  0.5793 -0.0926
 2817POSM   AM133054  25.541   5.821  13.630 -0.3218  0.0336  0.1718
 2817POSM   AM233055  25.481   5.617  13.843  0.2263  0.1680 -0.0873
 2817POSM   T1A33056  25.139   5.911  13.912  0.0975 -0.1467  0.0940
 2817POSM   C2A33057  24.689   5.945  13.867 -0.0666 -0.0541  0.2459
 2817POSM   C3A33058  24.460   5.608  13.837 -0.2890 -0.1630  0.2019
 2817POSM   C1B33059  25.608   5.411  14.092  0.0927 -0.1534 -0.0130
 2817POSM   D2B33060  25.948   5.460  14.411 -0.0339 -0.0570 -0.0856
 2817POSM   C3B33061  25.661   5.571  14.760 -0.1366  0.2022 -0.3277
 2817POSM   C4B33062  25.399   5.344  15.098  0.0033 -0.2282 -0.0623
 2818DOPC   NC333063  26.584   7.839  14.047  0.1053  0.3687 -0.3019
 2818DOPC   PO433064  26.919   7.640  13.941 -0.0363 -0.0174  0.1999
 2818DOPC   GL133065  27.079   7.978  13.877 -0.1137 -0.1779 -0.0644
 2818DOPC   GL233066  26.892   8.188  13.978  0.2101  0.2133 -0.0954
 2818DOPC   C1A33067  27.318   8.325  14.134 -0.0750  0.1676  0.0893
 2818DOPC   D2A33068  27.677   8.506  13.999  0.1358 -0.4553  0.1446
 2818DOPC   C3A33069  27.605   8.847  13.714  0.1421 -0.3240 -0.0909
 2818DOPC   C4A33070  27.674   9.060  13.317  0.1226 -0.1253  0.1885
 2818DOPC   C1B33071  26.563   8.493  14.134 -0.2819  0.0415  0.2031
 2818DOPC   D2B33072  26.349   8.885  14.234  0.1640 -0.1165 -0.2637
 2818DOPC   C3B33073  26.094   9.248  14.410 -0.0700 -0.0550  0.1393
 2818DOPC   C4B33074  25.865   9.646  14.406 -0.1659 -0.0245 -0.1619
 2819DOPC   NC333075  31.063   5.799  13.160 -0.0676  0.4997 -0.1466
 2819DOPC   PO433076  31.047   6.076  13.432 -0.1211  0.1482  0.0287
 2819DOPC   GL133077  31.336   5.923  13.542 -0.2021  0.1494 -0.0548
 2819DOPC   GL233078  31.592   5.966  13.648  0.2195 -0.0469  0.1058
 2819DOPC   C1A33079  31.437   5.476  13.521  0.0640  0.0370  0.0522
 2819DOPC   D2A33080  31.729   5.137  13.682 -0.1490  0.0815  0.0973
 2819DOPC   C3A33081  31.952   5.208  14.088  0.0569  0.1180  0.0749
 2819DOPC   C4A33082  31.982   5.365  14.491 -0.2704 -0.0857 -0.1147
 2819DOPC   C1B33083  31.893   5.624  13.742  0.0898  0.1485 -0.3254
 2819DOPC   D2B33084  32.285   5.328  13.646 -0.0680 -0.3000 -0.1610
 2819DOPC   C3B33085  32.256   4.906  13.874  0.1225  0.3603  0.0966
 2819DOPC   C4B33086  32.534   4.595  14.054  0.0894 -0.2392 -0.0242
 2820DOPC   NC333087  26.114   0.423  12.866 -0.0830 -0.1085  0.0943
 2820DOPC   PO433088  26.082   0.511  13.229  0.1401  0.0482  0.0018
 2820DOPC   GL133089  25.848   0.453  13.484  0.3814 -0.1087  0.2881
 2820DOPC   GL233090  25.991   0.419  13.735 -0.0999  0.1302 -0.3260
 2820DOPC   C1A33091  25.393   0.613  13.492  0.1081 -0.1981  0.0857
 2820DOPC   D2A33092  24.990   0.831  13.647 -0.1157  0.1627  0.3643
 2820DOPC   C3A33093  24.762   1.161  13.897  0.0088 -0.0524 -0.4893
 2820DOPC   C4A33094  24.661   1.289  14.313 -0.1607 -0.0322 -0.1468
 2820DOPC   C1B33095  26.208   0.519  14.171  0.3859 -0.1308  0.1016
 2820DOPC   D2B33096  26.544   0.753  14.338 -0.2017  0.0000 -0.0290
 2820DOPC   C3B33097  26.767   0.804  14.795 -0.0706  0.2426  0.0812
 2820DOPC   C4B33098  27.180   0.825  15.002 -0.0707  0.3572  0.2105
 2821POSM   NC333099  30.470  10.720  13.090 -0.0102 -0.2238 -0.3199
 2821POSM   PO433100  30.478  11.088  12.926  0.2053  0.1808  0.1664
 2821POSM   AM133101  30.759  11.136  13.118 -0.2633 -0.0574 -0.1924
 2821POSM   AM233102  30.834  10.978  13.336 -0.3013  0.1243 -0.4489
 2821POSM   T1A33103  31.036  11.391  13.495 -0.1748  0.2140  0.0421
 2821POSM   C2A33104  31.369  11.456  13.808  0.1399 -0.1869  0.3228
 2821POSM   C3A33105  31.347  11.851  14.121 -0.0207  0.3029  0.0863
 2821POSM   C1B33106  30.975  10.676  13.351  0.1755  0.0615  0.4469
 2821POSM   D2B33107  31.075  10.228  13.183  0.1929 -0.1920  0.0433
 2821POSM   C3B33108  31.402  10.063  13.378 -0.0912 -0.0678  0.2510
 2821POSM   C4B33109  31.715   9.761  13.378  0.0665 -0.0796  0.0509
 2822POSM   NC333110  25.652   3.675  13.378 -0.2771 -0.2956 -0.3101
 2822POSM   PO433111  26.016   3.582  13.181  0.1145 -0.2114  0.0197
 2822POSM   AM133112  26.249   3.404  13.328 -0.2577  0.0511  0.1157
 2822POSM   AM233113  26.356   3.145  13.278  0.1440 -0.1579 -0.1202
 2822POSM   T1A33114  26.769   3.369  13.233  0.2412  0.0293 -0.0918
 2822POSM   C2A33115  27.069   2.988  13.152 -0.1888 -0.3744 -0.0386
 2822POSM   C3A33116  27.516   2.986  13.110  0.1767  0.0631  0.4769
 2822POSM   C1B33117  26.399   2.802  13.246  0.0189  0.3636 -0.1950
 2822POSM   D2B33118  26.473   2.425  13.500  0.2063 -0.1751  0.1876
 2822POSM   C3B33119  26.750   2.071  13.270  0.0534  0.0022  0.2856
 2822POSM   C4B33120  26.976   1.776  13.000 -0.2448  0.3571  0.2439
 2823DOPE   NH333121  29.594   3.671  13.680  0.0454  0.0361 -0.0146
 2823DOPE   PO433122  29.588   4.004  13.727  0.2827  0.1137  0.2437
 2823DOPE   GL133123  29.320   4.097  13.859 -0.0773  0.1245 -0.2484
 2823DOPE   GL233124  29.151   3.965  14.063 -0.1305  0.1892  0.0386
 2823DOPE   C1A33125  29.231   4.492  14.166  0.1416 -0.1250 -0.1363
 2823DOPE   D2A33126  29.278   4.888  14.378  0.1262  0.1514  0.0543
 2823DOPE   C3A33127  29.048   5.118  14.703 -0.1107  0.0062  0.1709
 2823DOPE   C4A33128  29.260   5.396  14.985 -0.3260 -0.0396  0.0675
 2823DOPE   C1B33129  28.851   4.207  14.232 -0.1495 -0.1875 -0.1247
 2823DOPE   D2B33130  28.424   4.364  14.264 -0.2972 -0.0630 -0.6439
 2823DOPE   C3B33131  28.190   4.536  14.624  0.3858 -0.2432  0.1773
 2823DOPE   C4B33132  27.975   4.919  14.643  0.1294  0.1544 -0.0534
 2824DOPS   CNO33133   0.304   4.400  12.950 -0.1685  0.0424 -0.0556
 2824DOPS   PO433134   0.002   4.648  12.880 -0.1948  0.2548  0.1616
 2824DOPS   GL133135  -0.366   4.822  12.888  0.2904 -0.1594  0.0655
 2824DOPS   GL233136  -0.651   4.865  13.070  0.0177 -0.3861  0.0249
 2824DOPS   C1A33137  -0.548   5.223  12.648  0.0779 -0.3857  0.2722
 2824DOPS   D2A33138  -0.861   5.568  12.635  0.3187 -0.0655 -0.1122
 2824DOPS   C3A33139  -0.903   5.485  13.097  0.1465  0.2023 -0.3463
 2824DOPS   C4A33140  -1.091   5.745  13.427  0.1638 -0.0124  0.1244
 2824DOPS   C1B33141  -0.866   5.095  13.424  0.2909  0.2604  0.0533
 2824DOPS   D2B33142  -1.081   4.942  13.816  0.0077 -0.1362  0.0140
 2824DOPS   C3B33143  -1.225   4.482  13.943  0.3224 -0.2400 -0.1170
 2824DOPS   C4B33144  -1.551   4.136  13.964 -0.0038  0.3088 -0.0176
 2825DOPE   NH333145  34.333  10.757  13.814  0.1527 -0.0578  0.2212
 2825DOPE   PO433146  34.325  10.760  14.134 -0.2852  0.0227 -0.1959
 2825DOPE   GL133147  34.653  10.705  14.257  0.3699  0.0225  0.0573
 2825DOPE   GL233148  34.472  10.728  14.581  0.0587  0.1760 -0.1213
 2825DOPE   C1A33149  35.052  10.616  14.512  0.1206 -0.0241  0.1582
 2825DOPE   D2A33150  35.168  10.384  14.901 -0.1520 -0.0092 -0.1853
 2825DOPE   C3A33151  35.364  10.574  15.294  0.4378 -0.0130  0.1593
 2825DOPE   C4A33152  35.190  10.829  15.644  0.0835 -0.0520 -0.1316
 2825DOPE   C1B33153  34.537  10.494  14.995 -0.0509 -0.3704  0.0010
 2825DOPE   D2B33154  34.821  10.622  15.328  0.0974 -0.2146 -0.0171
 2825DOPE   C3B33155  34.837  11.101  15.381 -0.0262  0.0804  0.0244
 2825DOPE   C4B33156  34.939  11.541  15.472 -0.0505  0.1063 -0.2276
 2826DOPC   NC333157  26.191   4.519  12.879  0.1073 -0.0038  0.0371
 2826DOPC   PO433158  25.803   4.678  12.901 -0.0025 -0.2392 -0.3116
 2826DOPC   GL133159  25.446   4.861  12.968  0.0437 -0.2083  0.0328
 2826DOPC   GL233160  25.274   4.836  13.241  0.2239  0.3887  0.1127
 2826DOPC   C1A33161  25.127   5.214  12.883 -0.1380 -0.2026 -0.0285
 2826DOPC   D2A33162  24.854   5.521  13.072  0.1845 -0.1032 -0.1982
 2826DOPC   C3A33163  24.616   5.561  12.699 -0.1375 -0.2682  0.0862
 2826DOPC   C4A33164  24.280   5.841  12.522  0.1381 -0.2104  0.3222
 2826DOPC   C1B33165  24.878   4.798  13.133  0.0427  0.2423  0.0470
 2826DOPC   D2B33166  24.578   4.662  12.812 -0.4107 -0.3192  0.0740
 2826DOPC   C3B33167  24.483   5.097  12.571  0.1717 -0.3699  0.0950
 2826DOPC   C4B33168  24.155   5.272  12.338 -0.3094 -0.2565  0.1588
 2827DOPC   NC333169  28.319   3.439  13.196 -0.1648  0.2071  0.0946
 2827DOPC   PO433170  28.411   3.009  13.288  0.2279 -0.0660 -0.2257
 2827DOPC   GL133171  28.160   3.159  13.500  0.2258  0.0765  0.1333
 2827DOPC   GL233172  28.148   3.182  13.861  0.0007  0.0462  0.0610
 2827DOPC   C1A33173  27.706   3.147  13.631  0.0959  0.0293  0.3285
 2827DOPC   D2A33174  27.390   2.904  13.902  0.2791 -0.1345 -0.2082
 2827DOPC   C3A33175  27.034   3.069  14.121  0.0754  0.1147 -0.1844
 2827DOPC   C4A33176  26.809   3.388  14.419 -0.1043 -0.3552 -0.1463
 2827DOPC   C1B33177  27.836   3.118  14.213 -0.0154 -0.2414 -0.0935
 2827DOPC   D2B33178  27.453   3.188  14.409  0.1019  0.2189  0.0521
 2827DOPC   C3B33179  27.260   3.617  14.615 -0.0750  0.0373  0.1256
 2827DOPC   C4B33180  27.107   3.861  14.966 -0.3986 -0.3698  0.4520
 2828POSM   NC333181  33.876   6.684  13.193 -0.2597  0.2169  0.2737
 2828POSM   PO433182  33.659   6.482  13.373  0.0453 -0.0073 -0.2403
 2828POSM   AM133183  33.572   6.403  13.682  0.1140  0.2827  0.1376
 2828POSM   AM233184  33.530   6.435  13.949  0.0440 -0.2089  0.3488
 2828POSM   T1A33185  33.352   6.001  13.878 -0.4259 -0.0044 -0.0838
 2828POSM   C2A33186  33.232   5.533  13.957 -0.1834  0.1350  0.0446
 2828POSM   C3A33187  33.412   5.226  14.229  0.1888  0.1655  0.1783
 2828POSM   C1B33188  33.540   6.318  14.303 -0.1811 -0.1352  0.1356
 2828POSM   D2B33189  33.336   6.250  14.757  0.1327  0.1568  0.2230
 2828POSM   C3B33190  33.655   6.261  15.058  0.3586  0.1404 -0.1491
 2828POSM   C4B33191  33.969   6.134  15.327  0.2084  0.1289 -0.2853
 2829POSM   NC333192  23.946  10.021  12.647  0.0847 -0.0848  0.1995
 2829POSM   PO433193  23.535  10.001  12.601 -0.2522  0.2823  0.0734
 2829POSM   AM133194  23.542   9.849  12.890 -0.3819  0.0969 -0.0723
 2829POSM   AM233195  23.783   9.854  13.078 -0.1758 -0.3010  0.1206
 2829POSM   T1A33196  23.519   9.405  13.160  0.2732  0.0989  0.4345
 2829POSM   C2A33197  23.633   8.962  13.158  0.2685  0.0329 -0.0010
 2829POSM   C3A33198  23.637   8.710  12.811  0.0699  0.1809  0.0218
 2829POSM   C1B33199  23.903   9.669  13.327 -0.2393 -0.3064  0.3048
 2829POSM   D2B33200  24.147   9.469  13.623 -0.3906  0.2761  0.0078
 2829POSM   C3B33201  24.584   9.342  13.505  0.0618 -0.0331 -0.3052
 2829POSM   C4B33202  25.032   9.188  13.483  0.1291 -0.0381 -0.0291
 2830DOPS   CNO33203  30.399   3.230  14.251  0.2693  0.0976 -0.0539
 2830DOPS   PO433204  30.677   3.039  14.378  0.0788 -0.1118 -0.2253
 2830DOPS   GL133205  31.051   3.130  14.468 -0.1754 -0.2531  0.3039
 2830DOPS   GL233206  31.135   2.986  14.741  0.0431  0.0827 -0.0125
 2830DOPS   C1A33207  31.511   3.222  14.504  0.0468 -0.0559  0.0076
 2830DOPS   D2A33208  31.710   3.611  14.718  0.1114 -0.1683  0.4074
 2830DOPS   C3A33209  31.587   3.734  15.144 -0.2212 -0.2361 -0.3273
 2830DOPS   C4A33210  31.656   4.031  15.513 -0.0188  0.1158  0.1219
 2830DOPS   C1B33211  31.158   2.510  14.609 -0.0011 -0.1433 -0.1630
 2830DOPS   D2B33212  31.269   2.076  14.722  0.1798 -0.0002  0.0681
 2830DOPS   C3B33213  31.542   2.094  15.088 -0.4495  0.1343  0.2564
 2830DOPS   C4B33214  31.841   2.155  15.467  0.2485  0.0855  0.1022
 2831POSM   NC333215  26.396  34.283  13.162  0.0500 -0.2998  0.1374
 2831POSM   PO433216  26.086  34.238  13.371 -0.1963  0.0071  0.1551
 2831POSM   AM133217  25.981  34.135  13.681 -0.0649  0.0689  0.2405
 2831POSM   AM233218  25.962  33.926  13.873 -0.0073  0.0669 -0.1085
 2831POSM   T1A33219  25.650  34.150  14.099  0.0560 -0.1087 -0.0937
 2831POSM   C2A33220  25.221  34.296  14.039 -0.3503 -0.0216  0.0957
 2831POSM   C3A33221  24.982  34.642  13.933 -0.3384  0.0008  0.3239
 2831POSM   C1B33222  25.840  33.637  14.116  0.0858 -0.3443  0.0444
 2831POSM   D2B33223  25.716  33.368  14.502  0.1854  0.0795  0.0552
 2831POSM   C3B33224  25.783  32.913  14.461 -0.0513 -0.0856 -0.1922
 2831POSM   C4B33225  25.782  32.432  14.463  0.0291  0.1886  0.1414
 2832DOPE   NH333226  28.463  10.666  13.154  0.0224  0.0309 -0.2350
 2832DOPE   PO433227  28.588  10.381  13.000 -0.1047 -0.2061 -0.2339
 2832DOPE   GL133228  28.725  10.029  13.050 -0.1523  0.1087 -0.4085
 2832DOPE   GL233229  29.040   9.944  13.264  0.1151 -0.2558  0.1592
 2832DOPE   C1A33230  28.685   9.577  12.954  0.0867  0.2677 -0.1352
 2832DOPE   D2A33231  28.460   9.104  13.038 -0.1264 -0.3910  0.0784
 2832DOPE   C3A33232  28.264   9.003  13.446 -0.1877 -0.0420 -0.1572
 2832DOPE   C4A33233  27.995   9.245  13.731 -0.1116  0.0859  0.1633
 2832DOPE   C1B33234  28.803   9.713  13.540  0.2208  0.0185 -0.1604
 2832DOPE   D2B33235  28.393   9.763  13.654 -0.1823 -0.0249 -0.0693
 2832DOPE   C3B33236  28.234   9.518  13.323  0.0831 -0.1808  0.1466
 2832DOPE   C4B33237  27.896   9.475  13.011 -0.4365  0.3439 -0.1841
 2833DOPE   NH333238  26.615   1.285  12.736  0.2247  0.0654  0.1017
 2833DOPE   PO433239  26.626   1.056  12.947 -0.0404  0.0730  0.0589
 2833DOPE   GL133240  26.357   1.297  13.133  0.3000 -0.0785 -0.1754
 2833DOPE   GL233241  26.111   1.365  12.959 -0.0052  0.1831 -0.3260
 2833DOPE   C1A33242  26.400   1.484  13.568  0.1879 -0.0439 -0.0176
 2833DOPE   D2A33243  26.464   1.918  13.660  0.2305 -0.1058  0.0008
 2833DOPE   C3A33244  26.297   2.045  14.024 -0.0269 -0.1120  0.0818
 2833DOPE   C4A33245  26.031   2.129  14.360  0.1464 -0.0617 -0.0260
 2833DOPE   C1B33246  25.946   1.658  13.295 -0.0015  0.1761 -0.1586
 2833DOPE   D2B33247  25.616   1.780  13.606 -0.4198  0.1330 -0.0748
 2833DOPE   C3B33248  25.337   1.385  13.632  0.0510  0.1442 -0.1245
 2833DOPE   C4B33249  25.246   1.191  14.066  0.0257 -0.1271  0.0916
 2834DOPE   NH333250  26.442   0.168  13.816  0.5003  0.2359  0.1735
 2834DOPE   PO433251  26.504   0.413  13.629  0.1985 -0.1403  0.1025
 2834DOPE   GL133252  26.343   0.715  13.583  0.0789  0.0802  0.1641
 2834DOPE   GL233253  26.280   0.957  13.383 -0.3657 -0.2319  0.0207
 2834DOPE   C1A33254  26.274   0.971  13.967 -0.3198 -0.0808  0.1249
 2834DOPE   D2A33255  26.101   1.125  14.354 -0.1350 -0.2794 -0.1078
 2834DOPE   C3A33256  26.376   1.154  14.683 -0.2408  0.0699 -0.0439
 2834DOPE   C4A33257  26.593   1.123  15.050  0.0248  0.0632  0.2308
 2834DOPE   C1B33258  25.923   1.259  13.575  0.2955 -0.3629  0.2003
 2834DOPE   D2B33259  25.753   1.278  14.005 -0.1202 -0.0951  0.0474
 2834DOPE   C3B33260  25.502   1.660  14.113  0.4079  0.0989  0.1396
 2834DOPE   C4B33261  25.315   2.013  13.992  0.2179 -0.0217 -0.1069
 2835DOPS   CNO33262  27.034   0.203  13.018  0.1375 -0.0989 -0.0672
 2835DOPS   PO433263  27.318   0.344  13.241  0.2303  0.2834  0.1028
 2835DOPS   GL133264  27.354   0.622  13.491 -0.1016 -0.0391  0.2463
 2835DOPS   GL233265  27.559   0.550  13.669  0.4730  0.0651 -0.0113
 2835DOPS   C1A33266  27.666   0.956  13.430 -0.0620  0.1777 -0.0323
 2835DOPS   D2A33267  27.733   1.389  13.642 -0.0813  0.0394  0.0848
 2835DOPS   C3A33268  27.346   1.595  13.791 -0.2075 -0.1748 -0.1554
 2835DOPS   C4A33269  26.946   1.577  14.051 -0.0038 -0.0055 -0.3290
 2835DOPS   C1B33270  27.583   0.879  13.981 -0.2795  0.4720 -0.2513
 2835DOPS   D2B33271  27.684   0.767  14.398  0.0229 -0.1688  0.1629
 2835DOPS   C3B33272  28.051   0.852  14.645 -0.2755  0.2087 -0.2794
 2835DOPS   C4B33273  28.424   1.074  14.845 -0.0369 -0.1778 -0.0205
 2836POSM   NC333274  29.718   3.265  13.852  0.2236 -0.0020  0.1661
 2836POSM   PO433275  30.008   3.468  13.985 -0.0389 -0.0588 -0.0284
 2836POSM   AM133276  30.012   3.549  14.313  0.0600  0.0432 -0.1577
 2836POSM   AM233277  30.019   3.775  14.454 -0.0477 -0.2561  0.2066
 2836POSM   T1A33278  30.351   3.533  14.713  0.2626  0.0871  0.1142
 2836POSM   C2A33279  30.795   3.382  14.747 -0.0399  0.1145 -0.0540
 2836POSM   C3A33280  31.151   3.673  14.767 -0.1946 -0.1067  0.1977
 2836POSM   C1B33281  30.116   3.993  14.737 -0.1549  0.0307  0.0725
 2836POSM   D2B33282  29.868   4.224  15.112  0.2659  0.3780 -0.0898
 2836POSM   C3B33283  29.423   4.249  15.160  0.3008  0.1164  0.0461
 2836POSM   C4B33284  28.949   4.260  15.149 -0.3029 -0.1993 -0.2071
 2837POSM   NC333285  32.571   6.938  13.144  0.0926 -0.2285  0.2652
 2837POSM   PO433286  32.871   6.693  13.144 -0.1766 -0.0254  0.0701
 2837POSM   AM133287  32.841   6.349  13.135 -0.1597 -0.0978 -0.2448
 2837POSM   AM233288  32.691   6.169  13.233 -0.1114  0.0489 -0.1303
 2837POSM   T1A33289  32.790   5.998  12.812  0.2456 -0.2943 -0.1948
 2837POSM   C2A33290  32.907   5.540  12.805  0.3874 -0.0008  0.0594
 2837POSM   C3A33291  32.927   5.061  12.817 -0.1435 -0.2917 -0.0765
 2837POSM   C1B33292  32.721   6.140  13.528 -0.0905 -0.2040  0.1007
 2837POSM   D2B33293  32.635   6.145  14.026  0.1247 -0.1647 -0.0586
 2837POSM   C3B33294  32.815   5.742  14.198 -0.0177 -0.0175 -0.2047
 2837POSM   C4B33295  33.015   5.386  14.495 -0.3612 -0.3004 -0.1380
 2838DOPE   NH333296  30.927   3.248  13.966 -0.1037  0.0182 -0.3065
 2838DOPE   PO433297  30.870   3.475  14.186  0.0513 -0.2569 -0.2801
 2838DOPE   GL133298  31.249   3.557  14.328 -0.1291  0.0036 -0.2567
 2838DOPE   GL233299  31.416   3.470  14.061 -0.0070  0.3923  0.0813
 2838DOPE   C1A33300  31.597   3.925  14.375 -0.2404 -0.0505  0.0889
 2838DOPE   D2A33301  31.943   4.053  14.611 -0.0267 -0.0587  0.0406
 2838DOPE   C3A33302  31.919   4.098  15.012 -0.1862  0.3345  0.4434
 2838DOPE   C4A33303  31.571   4.306  15.108 -0.1127 -0.0581  0.2195
 2838DOPE   C1B33304  31.866   3.563  14.208 -0.0496 -0.1397  0.1385
 2838DOPE   D2B33305  32.193   3.657  14.557 -0.0588 -0.0795  0.3140
 2838DOPE   C3B33306  32.584   3.848  14.371 -0.0436  0.0605  0.0954
 2838DOPE   C4B33307  32.602   3.963  13.971  0.0438 -0.0776 -0.2258
 2839DOPS   CNO33308  24.333  11.057  12.563 -0.2002  0.0993 -0.2452
 2839DOPS   PO433309  24.494  11.061  12.908 -0.2140 -0.3531  0.3199
 2839DOPS   GL133310  24.699  11.022  13.186  0.1354 -0.3324 -0.4545
 2839DOPS   GL233311  24.914  10.784  13.215 -0.1099 -0.1117  0.1445
 2839DOPS   C1A33312  24.646  11.138  13.630  0.1232  0.1466 -0.0234
 2839DOPS   D2A33313  24.473  11.230  14.102  0.2567 -0.1460 -0.2169
 2839DOPS   C3A33314  24.314  11.609  14.380 -0.1375  0.2500 -0.2443
 2839DOPS   C4A33315  24.223  11.775  14.775 -0.3014  0.1939  0.0212
 2839DOPS   C1B33316  24.969  10.730  13.657  0.0675  0.0996  0.1849
 2839DOPS   D2B33317  24.728  10.767  13.990 -0.0101 -0.1957  0.1225
 2839DOPS   C3B33318  24.677  10.435  14.328  0.1020 -0.2950  0.2442
 2839DOPS   C4B33319  24.579  10.058  14.598  0.2853 -0.0972  0.2353
 2840DOPE   NH333320  29.817   7.797  13.700 -0.0047  0.1605  0.2224
 2840DOPE   PO433321  29.999   8.043  13.720 -0.2080  0.1720  0.3208
 2840DOPE   GL133322  29.990   8.161  14.008  0.0923  0.4996 -0.0676
 2840DOPE   GL233323  30.097   7.918  14.196  0.0129  0.0769  0.2343
 2840DOPE   C1A33324  30.128   8.532  14.184  0.1041  0.1740 -0.0131
 2840DOPE   D2A33325  29.902   8.959  14.182 -0.1206 -0.3870 -0.0060
 2840DOPE   C3A33326  30.223   9.312  14.319 -0.1366  0.1394 -0.0178
 2840DOPE   C4A33327  30.595   9.492  14.515 -0.0826  0.0224 -0.1424
 2840DOPE   C1B33328  29.755   8.098  14.483  0.0308  0.0262  0.0251
 2840DOPE   D2B33329  29.323   8.102  14.719  0.1201 -0.1276 -0.5130
 2840DOPE   C3B33330  29.424   7.709  14.794  0.0290  0.0617 -0.2190
 2840DOPE   C4B33331  29.520   7.246  14.880 -0.0251  0.1289  0.0651
 2841POSM   NC333332  23.444   3.201  12.626  0.2636  0.0578 -0.0547
 2841POSM   PO433333  23.473   2.981  12.949 -0.1870 -0.0113  0.0217
 2841POSM   AM133334  23.364   2.742  13.179 -0.3004  0.1676  0.1606
 2841POSM   AM233335  23.191   2.731  13.421 -0.1818 -0.0289 -0.2345
 2841POSM   T1A33336  23.368   2.304  13.400  0.0361  0.2577  0.0357
 2841POSM   C2A33337  23.614   2.022  13.571 -0.1573 -0.0056  0.0184
 2841POSM   C3A33338  23.807   1.598  13.750  0.0017 -0.1333  0.0030
 2841POSM   C1B33339  23.071   2.734  13.759  0.2214 -0.1429  0.3102
 2841POSM   D2B33340  23.118   2.642  14.155 -0.2224 -0.1474  0.1924
 2841POSM   C3B33341  23.086   2.221  14.235  0.0794  0.2270 -0.1472
 2841POSM   C4B33342  22.930   1.859  14.499 -0.1140  0.1894 -0.0009
 2842POSM   NC333343  23.717  10.655  13.183 -0.2190 -0.1275  0.0750
 2842POSM   PO433344  23.951  10.868  12.938 -0.1816  0.0885  0.1652
 2842POSM   AM133345  24.156  10.862  13.173 -0.0000 -0.4606  0.0419
 2842POSM   AM233346  24.253  11.150  13.328 -0.1324  0.1025 -0.0975
 2842POSM   T1A33347  24.476  10.625  13.529 -0.2144 -0.1167  0.0215
 2842POSM   C2A33348  24.704  10.339  13.739 -0.0567 -0.1722  0.1332
 2842POSM   C3A33349  25.025  10.219  14.002 -0.1492 -0.0525 -0.2025
 2842POSM   C1B33350  24.148  11.342  13.577 -0.3422 -0.1821 -0.0360
 2842POSM   D2B33351  23.968  11.479  13.996 -0.1010 -0.1593  0.0256
 2842POSM   C3B33352  23.816  11.492  14.499  0.1272 -0.1411  0.1308
 2842POSM   C4B33353  23.626  11.195  14.819  0.2004 -0.1191  0.1394
 2843DOPC   NC333354  25.526   8.086  13.301  0.3217  0.1025 -0.3856
 2843DOPC   PO433355  25.447   7.776  13.520  0.1540 -0.2251 -0.3509
 2843DOPC   GL133356  25.678   7.967  13.796 -0.1790  0.4913  0.1054
 2843DOPC   GL233357  25.765   7.763  13.959 -0.0482 -0.2896 -0.0034
 2843DOPC   C1A33358  25.750   8.241  14.161  0.1452  0.2304 -0.0119
 2843DOPC   D2A33359  25.835   8.631  14.413  0.0303  0.0607 -0.2792
 2843DOPC   C3A33360  25.697   8.756  14.827 -0.1695 -0.0241 -0.0316
 2843DOPC   C4A33361  25.356   9.032  15.003 -0.0490  0.5005  0.2491
 2843DOPC   C1B33362  26.109   7.862  14.229  0.1632 -0.1360 -0.0753
 2843DOPC   D2B33363  26.369   8.063  14.474  0.1251  0.1642  0.1556
 2843DOPC   C3B33364  26.248   8.494  14.661 -0.0753  0.0086  0.1194
 2843DOPC   C4B33365  26.179   8.941  14.856  0.0500  0.1659 -0.1448
 2844POSM   NC333366  23.533   7.446  13.294  0.2874  0.1003 -0.0151
 2844POSM   PO433367  23.266   7.229  13.098  0.0251 -0.0696 -0.4189
 2844POSM   AM133368  23.149   7.160  13.397  0.0811  0.1074  0.0399
 2844POSM   AM233369  22.917   7.212  13.580  0.2912 -0.0952  0.0499
 2844POSM   T1A33370  23.254   6.858  13.830 -0.1445 -0.0598 -0.1227
 2844POSM   C2A33371  23.371   6.683  14.275 -0.0995  0.3694  0.0388
 2844POSM   C3A33372  23.622   6.627  14.646  0.0215  0.2561  0.0416
 2844POSM   C1B33373  22.951   7.209  13.895  0.0408 -0.0389 -0.2508
 2844POSM   D2B33374  22.903   7.014  14.294  0.1063 -0.1380  0.0705
 2844POSM   C3B33375  22.879   7.421  14.487 -0.0541  0.1452 -0.3889
 2844POSM   C4B33376  23.036   7.428  14.896  0.2550  0.0442  0.1330
 2845DOPE   NH333377  28.687   3.187  13.692  0.2815 -0.1605  0.1084
 2845DOPE   PO433378  28.606   2.939  13.887 -0.0312 -0.1234 -0.0502
 2845DOPE   GL133379  28.482   3.018  14.257  0.1782  0.3179  0.0773
 2845DOPE   GL233380  28.667   3.071  14.450 -0.1566 -0.0261  0.0022
 2845DOPE   C1A33381  28.282   2.636  14.480  0.0046 -0.1101 -0.1613
 2845DOPE   D2A33382  28.175   2.527  14.882 -0.2126  0.1195 -0.0217
 2845DOPE   C3A33383  27.928   2.306  15.222  0.2126  0.1186  0.2057
 2845DOPE   C4A33384  27.688   1.947  15.090 -0.0918  0.0445  0.1878
 2845DOPE   C1B33385  28.538   2.929  14.783 -0.0158  0.3457  0.1774
 2845DOPE   D2B33386  28.439   2.920  15.194 -0.2920  0.2029  0.1246
 2845DOPE   C3B33387  28.045   2.801  15.286  0.1558 -0.0664 -0.0498
 2845DOPE   C4B33388  27.697   2.603  15.564 -0.0975  0.0529 -0.0053
 2846DOPS   CNO33389  25.982   6.214  13.118 -0.1873  0.0681 -0.1447
 2846DOPS   PO433390  26.158   5.914  13.172 -0.0320  0.0511  0.0108
 2846DOPS   GL133391  26.267   5.720  13.465 -0.0545  0.1969  0.2633
 2846DOPS   GL233392  26.231   5.652  13.757  0.1170  0.2267 -0.0496
 2846DOPS   C1A33393  26.663   5.545  13.530  0.0134 -0.0096 -0.4363
 2846DOPS   D2A33394  26.869   5.098  13.484  0.1375 -0.1538  0.2474
 2846DOPS   C3A33395  26.917   4.839  13.893 -0.0969  0.0118  0.0369
 2846DOPS   C4A33396  27.062   4.601  14.239  0.0759 -0.3728  0.1133
 2846DOPS   C1B33397  25.992   5.856  14.062 -0.1990  0.3052 -0.5053
 2846DOPS   D2B33398  25.559   5.862  14.274 -0.0423  0.4077 -0.0326
 2846DOPS   C3B33399  25.401   6.060  14.609 -0.0212  0.0725 -0.1888
 2846DOPS   C4B33400  25.178   5.828  14.884  0.1347  0.4410 -0.2213
 2847DOPC   NC333401  25.688   7.444  13.190  0.3696 -0.2360 -0.2668
 2847DOPC   PO433402  25.765   7.411  13.583 -0.0906  0.0876  0.2059
 2847DOPC   GL133403  25.520   7.322  13.900 -0.1103 -0.1801  0.1210
 2847DOPC   GL233404  25.272   7.261  13.806 -0.1055 -0.2031 -0.1287
 2847DOPC   C1A33405  25.446   7.144  14.344  0.0692  0.0447 -0.0766
 2847DOPC   D2A33406  25.093   7.324  14.556  0.0022  0.0757 -0.0782
 2847DOPC   C3A33407  25.166   7.635  14.918  0.1376 -0.4768  0.0655
 2847DOPC   C4A33408  25.353   7.761  15.280 -0.0418  0.0765 -0.2184
 2847DOPC   C1B33409  24.866   7.370  14.024 -0.0686  0.1051 -0.1051
 2847DOPC   D2B33410  24.658   7.577  14.369  0.1959 -0.2075  0.2338
 2847DOPC   C3B33411  24.923   7.860  14.551  0.0864  0.1672  0.0186
 2847DOPC   C4B33412  24.873   8.308  14.652  0.1637  0.1328  0.0380
 2848DOPC   NC333413  32.545  10.049  13.951 -0.0547  0.1959 -0.1022
 2848DOPC   PO433414  32.635  10.352  13.737  0.1095 -0.1075 -0.2128
 2848DOPC   GL133415  32.787  10.451  13.451 -0.0749 -0.2305  0.0304
 2848DOPC   GL233416  33.000  10.453  13.183 -0.0759 -0.2368 -0.0622
 2848DOPC   C1A33417  32.640  10.814  13.157  0.0683  0.2955  0.1515
 2848DOPC   D2A33418  32.241  10.972  12.990 -0.1616 -0.0884  0.0699
 2848DOPC   C3A33419  31.822  10.959  13.185  0.2935  0.0783 -0.1061
 2848DOPC   C4A33420  31.393  11.142  13.251  0.1222 -0.1795  0.1644
 2848DOPC   C1B33421  32.617  10.327  12.935  0.0610  0.1714  0.0614
 2848DOPC   D2B33422  32.181  10.347  13.107  0.0994  0.1930  0.3580
 2848DOPC   C3B33423  31.755  10.389  13.372  0.1580  0.0370  0.0002
 2848DOPC   C4B33424  31.523  10.376  13.766 -0.2053  0.0881 -0.1631
 2849DOPC   NC333425  25.689   4.541  13.504 -0.0976 -0.1830  0.1061
 2849DOPC   PO433426  25.829   4.902  13.368  0.0174  0.4215 -0.2294
 2849DOPC   GL133427  26.068   4.875  13.692 -0.0303  0.0095 -0.0714
 2849DOPC   GL233428  25.978   5.168  13.857  0.4213  0.0496  0.0652
 2849DOPC   C1A33429  26.457   5.162  13.809 -0.3262 -0.0110  0.2579
 2849DOPC   D2A33430  26.903   5.354  13.928  0.2266 -0.2468  0.0510
 2849DOPC   C3A33431  27.138   5.257  14.312  0.1346  0.3110 -0.0286
 2849DOPC   C4A33432  27.311   5.016  14.641 -0.0392  0.1685  0.2250
 2849DOPC   C1B33433  25.768   4.780  14.058 -0.0454  0.0870 -0.1122
 2849DOPC   D2B33434  25.714   4.712  14.506  0.0929  0.0831  0.2257
 2849DOPC   C3B33435  25.527   5.140  14.501 -0.0355  0.1407  0.0606
 2849DOPC   C4B33436  25.228   5.496  14.419 -0.2221 -0.2573 -0.0283
 2850DOPS   CNO33437  29.458   7.829  12.988  0.1908 -0.2035  0.3074
 2850DOPS   PO433438  29.343   8.175  13.109 -0.1623  0.2129 -0.0423
 2850DOPS   GL133439  29.306   8.547  13.225  0.1174  0.0535 -0.2425
 2850DOPS   GL233440  29.116   8.754  13.074  0.0115 -0.1781 -0.3151
 2850DOPS   C1A33441  29.532   8.925  13.359  0.1633  0.1455 -0.0765
 2850DOPS   D2A33442  29.753   9.088  13.753  0.0048 -0.2324  0.2339
 2850DOPS   C3A33443  29.626   9.371  14.119  0.3440  0.4206 -0.0062
 2850DOPS   C4A33444  29.407   9.540  14.548 -0.1924  0.1042  0.0937
 2850DOPS   C1B33445  28.970   9.150  13.214  0.3921 -0.2468  0.0266
 2850DOPS   D2B33446  28.668   9.225  13.582  0.0498 -0.0873  0.0741
 2850DOPS   C3B33447  28.592   8.951  13.873  0.0903 -0.0648 -0.0056
 2850DOPS   C4B33448  28.605   8.685  14.296  0.0544  0.0931 -0.1302
 2851POSM   NC333449  26.022  34.134  12.823 -0.1328 -0.0204 -0.3101
 2851POSM   PO433450  25.707  34.266  13.005 -0.1668  0.1226  0.1749
 2851POSM   AM133451  25.619  34.317  13.314  0.1607 -0.1562 -0.1735
 2851POSM   AM233452  25.602  34.546  13.512 -0.2141  0.2692  0.2362
 2851POSM   T1A33453  25.445  34.054  13.700 -0.0538  0.1802  0.2344
 2851POSM   C2A33454  25.060  33.788  13.682 -0.0723 -0.1177 -0.2624
 2851POSM   C3A33455  24.635  33.759  13.542 -0.0530 -0.2720  0.2020
 2851POSM   C1B33456  25.525  34.766  13.773 -0.0032 -0.3760 -0.0307
 2851POSM   D2B33457  25.322  35.146  13.965 -0.1255  0.0379  0.0316
 2851POSM   C3B33458  24.914  35.355  14.128  0.1765  0.1298 -0.0892
 2851POSM   C4B33459  24.435  35.384  14.167 -0.1357 -0.3246  0.2104
 2852POSM   NC333460  29.360  10.711  13.609  0.2698 -0.0200  0.1508
 2852POSM   PO433461  29.302  10.344  13.520 -0.0037  0.2250 -0.1609
 2852POSM   AM133462  29.411  10.271  13.801 -0.0916 -0.0690  0.1012
 2852POSM   AM233463  29.668  10.418  13.856  0.0632  0.1890 -0.5810
 2852POSM   T1A33464  29.462  10.014  14.210 -0.2529 -0.2048  0.1208
 2852POSM   C2A33465  29.420  10.153  14.632  0.1900 -0.2256 -0.1558
 2852POSM   C3A33466  29.008  10.133  14.861  0.0411 -0.0881 -0.2100
 2852POSM   C1B33467  29.579  10.501  14.158 -0.0620  0.1876  0.0268
 2852POSM   D2B33468  29.273  10.726  14.394 -0.2558 -0.0555  0.2723
 2852POSM   C3B33469  28.905  10.911  14.579 -0.1446  0.1577 -0.1779
 2852POSM   C4B33470  28.800  11.337  14.831  0.0035  0.2874  0.1774
 2853DOPE   NH333471  22.712   6.178  12.788  0.1910  0.0354  0.1701
 2853DOPE   PO433472  22.988   6.027  12.777 -0.0399 -0.0610 -0.3148
 2853DOPE   GL133473  23.057   5.965  13.170 -0.2775 -0.1075 -0.0805
 2853DOPE   GL233474  23.318   5.822  13.230 -0.0792 -0.3374 -0.2546
 2853DOPE   C1A33475  23.085   5.924  13.650  0.0380 -0.1256 -0.1127
 2853DOPE   D2A33476  22.805   5.728  13.996  0.1150 -0.3029  0.0493
 2853DOPE   C3A33477  22.476   5.409  13.879 -0.0398 -0.0548 -0.0416
 2853DOPE   C4A33478  22.145   5.083  13.879 -0.0479 -0.2097 -0.1646
 2853DOPE   C1B33479  23.417   5.527  13.565  0.2139 -0.2005  0.0693
 2853DOPE   D2B33480  23.497   5.592  14.047 -0.0873  0.1048 -0.0449
 2853DOPE   C3B33481  23.396   5.836  14.376 -0.0455 -0.0871 -0.1448
 2853DOPE   C4B33482  23.322   6.206  14.645  0.1953  0.2403  0.0725
 2854DOPC   NC333483  28.846  34.530  13.740 -0.0193 -0.1135 -0.0417
 2854DOPC   PO433484  28.619  34.532  14.042 -0.0253 -0.2534 -0.0171
 2854DOPC   GL133485  28.501  34.272  14.273  0.0123  0.0918 -0.1699
 2854DOPC   GL233486  28.288  34.148  14.186 -0.1313  0.0095  0.1618
 2854DOPC   C1A33487  28.247  34.341  14.649 -0.3119  0.0349  0.2105
 2854DOPC   D2A33488  28.023  34.440  15.042 -0.1853  0.1435  0.0727
 2854DOPC   C3A33489  27.709  34.765  15.154  0.4317  0.5124  0.3223
 2854DOPC   C4A33490  27.419  35.074  15.171  0.2013 -0.2148  0.0042
 2854DOPC   C1B33491  28.161  33.834  13.866 -0.1566  0.3279 -0.3275
 2854DOPC   D2B33492  27.974  33.454  13.852 -0.0440  0.0203 -0.1058
 2854DOPC   C3B33493  28.022  33.086  14.193 -0.0859 -0.2443  0.0672
 2854DOPC   C4B33494  28.135  32.928  14.597  0.0782  0.0395 -0.0313
 2855POSM   NC333495  34.451   3.697  12.702  0.2471 -0.1062 -0.0719
 2855POSM   PO433496  34.488   3.591  13.097  0.0822  0.0332  0.0231
 2855POSM   AM133497  34.229   3.622  13.251  0.0968  0.0608  0.1854
 2855POSM   AM233498  34.190   3.564  13.571 -0.0038 -0.3932 -0.3210
 2855POSM   T1A33499  33.780   3.577  13.243  0.0340  0.0311  0.1736
 2855POSM   C2A33500  33.381   3.625  13.496  0.0712 -0.0090  0.0001
 2855POSM   C3A33501  32.956   3.697  13.637  0.0170 -0.1427  0.2395
 2855POSM   C1B33502  34.228   3.200  13.564  0.1815  0.2045 -0.2623
 2855POSM   D2B33503  34.440   2.805  13.665 -0.0146  0.2473 -0.1944
 2855POSM   C3B33504  34.304   2.755  14.086 -0.0127 -0.0067 -0.0293
 2855POSM   C4B33505  33.995   2.907  14.422 -0.1683 -0.0331 -0.0185
 2856POSM   NC333506  29.376   7.832  13.467  0.3580  0.1245 -0.3463
 2856POSM   PO433507  29.131   7.527  13.354  0.3494  0.3705 -0.0341
 2856POSM   AM133508  29.048   7.504  13.666 -0.0398  0.0194  0.1756
 2856POSM   AM233509  29.144   7.622  13.897  0.1643  0.3684  0.3821
 2856POSM   T1A33510  28.941   7.317  14.142 -0.0104  0.3576 -0.1212
 2856POSM   C2A33511  28.631   7.522  14.398  0.0549  0.0493  0.0818
 2856POSM   C3A33512  28.276   7.835  14.413 -0.0808  0.2661  0.0197
 2856POSM   C1B33513  29.059   7.820  14.211 -0.1409  0.1462 -0.2026
 2856POSM   D2B33514  28.845   7.916  14.614 -0.4005 -0.3693  0.2539
 2856POSM   C3B33515  28.536   8.232  14.738  0.0343  0.0752 -0.4356
 2856POSM   C4B33516  28.601   8.707  14.843  0.3699  0.3539  0.1705
 2857DOPC   NC333517  26.322  20.273  16.694 -0.1424 -0.0466  0.1023
 2857DOPC   PO433518  25.953  20.378  16.838 -0.1038 -0.2138  0.1015
 2857DOPC   GL133519  25.947  20.748  16.561 -0.0442  0.3988 -0.0382
 2857DOPC   GL233520  25.732  20.898  16.806  0.2710 -0.0967  0.2555
 2857DOPC   C1A33521  26.266  20.698  16.214 -0.1195 -0.1318 -0.1262
 2857DOPC   D2A33522  26.652  20.560  16.047  0.3101  0.1567  0.0971
 2857DOPC   C3A33523  26.553  20.484  15.581  0.0667 -0.2362 -0.1887
 2857DOPC   C4A33524  26.812  20.493  15.275 -0.2669  0.3107  0.0085
 2857DOPC   C1B33525  25.534  20.793  16.392  0.3790  0.2309 -0.0357
 2857DOPC   D2B33526  25.385  20.413  16.058 -0.0932 -0.1443  0.1041
 2857DOPC   C3B33527  25.125  20.402  15.695  0.1688 -0.0095  0.0259
 2857DOPC   C4B33528  25.189  20.223  15.248 -0.0296  0.1757  0.0881
 2858DOPC   NC333529  31.524  15.266  17.119  0.3749  0.2189 -0.1559
 2858DOPC   PO433530  31.843  15.354  16.972  0.4960  0.0485 -0.1561
 2858DOPC   GL133531  31.881  15.430  16.594  0.0048 -0.1795 -0.0921
 2858DOPC   GL233532  32.101  15.546  16.395 -0.1532 -0.2849 -0.2080
 2858DOPC   C1A33533  31.625  15.433  16.216 -0.1174  0.0126 -0.0314
 2858DOPC   D2A33534  31.716  15.294  15.810  0.1497  0.0227 -0.2061
 2858DOPC   C3A33535  31.511  14.836  15.574 -0.0159 -0.0616 -0.1044
 2858DOPC   C4A33536  31.166  14.598  15.375 -0.1612  0.2502  0.0219
 2858DOPC   C1B33537  32.181  15.374  15.941 -0.1492  0.1362 -0.1445
 2858DOPC   D2B33538  32.147  15.232  15.484  0.1033  0.1537 -0.0071
 2858DOPC   C3B33539  31.921  14.870  15.315 -0.2226 -0.0732  0.3158
 2858DOPC   C4B33540  31.939  14.441  15.092  0.3687 -0.1002 -0.2717
 2859DOPE   NH333541  33.186  21.110  16.641  0.0462  0.0327 -0.2455
 2859DOPE   PO433542  32.905  21.264  16.613  0.1465 -0.0182  0.3509
 2859DOPE   GL133543  32.872  21.093  16.211  0.3385  0.2837 -0.1987
 2859DOPE   GL233544  32.716  20.915  16.174  0.0545  0.0809  0.2343
 2859DOPE   C1A33545  33.149  21.235  15.788 -0.2328 -0.0586 -0.0731
 2859DOPE   D2A33546  33.220  21.071  15.345 -0.0986  0.0936 -0.1832
 2859DOPE   C3A33547  33.571  21.252  15.147  0.1140  0.0636 -0.1480
 2859DOPE   C4A33548  33.968  21.408  15.288  0.0965  0.2846  0.0530
 2859DOPE   C1B33549  32.594  21.046  15.774  0.0413  0.0925 -0.0622
 2859DOPE   D2B33550  32.711  21.085  15.351  0.0802  0.0259 -0.1027
 2859DOPE   C3B33551  32.651  20.761  14.980  0.1271 -0.2842  0.0699
 2859DOPE   C4B33552  32.446  20.342  14.969 -0.1479  0.1058  0.1876
 2860DOPE   NH333553  23.007  20.467  15.952 -0.3125 -0.1637 -0.0253
 2860DOPE   PO433554  23.266  20.447  16.128  0.3443 -0.2113  0.0925
 2860DOPE   GL133555  23.506  20.488  15.851  0.0395  0.0104  0.0837
 2860DOPE   GL233556  23.529  20.756  15.673 -0.2327 -0.2697  0.0569
 2860DOPE   C1A33557  23.952  20.466  15.858  0.0362  0.3161  0.3665
 2860DOPE   D2A33558  24.401  20.639  15.785  0.0770 -0.1205 -0.0128
 2860DOPE   C3A33559  24.419  21.107  15.696  0.1314 -0.3035  0.0407
 2860DOPE   C4A33560  24.122  21.357  15.916 -0.0549 -0.2699  0.2152
 2860DOPE   C1B33561  23.677  20.376  15.429 -0.3107  0.2321 -0.0976
 2860DOPE   D2B33562  23.778  20.170  14.992 -0.0533  0.1556  0.2557
 2860DOPE   C3B33563  23.820  20.416  14.604 -0.0684 -0.3486  0.2642
 2860DOPE   C4B33564  23.686  20.650  14.244  0.0679 -0.0291  0.2178
 2861DOPC   NC333565  32.782  22.980  16.822  0.3435 -0.0032 -0.1602
 2861DOPC   PO433566  32.470  23.061  17.013 -0.1474  0.2418  0.2903
 2861DOPC   GL133567  32.406  23.227  16.623  0.1625 -0.5310 -0.2567
 2861DOPC   GL233568  32.517  23.474  16.733  0.2044 -0.1737  0.1513
 2861DOPC   C1A33569  32.714  23.118  16.314  0.1281 -0.0028  0.1026
 2861DOPC   D2A33570  33.005  22.911  15.999 -0.0765 -0.1000  0.0748
 2861DOPC   C3A33571  32.782  22.880  15.559 -0.0607 -0.1147  0.0244
 2861DOPC   C4A33572  32.495  22.599  15.334 -0.2487 -0.1707  0.1335
 2861DOPC   C1B33573  32.556  23.629  16.338  0.0703 -0.3251  0.2343
 2861DOPC   D2B33574  32.509  23.542  15.944 -0.1318  0.2541  0.0513
 2861DOPC   C3B33575  32.149  23.321  15.767  0.0143 -0.0867  0.3883
 2861DOPC   C4B33576  31.930  23.412  15.355  0.0109  0.2700 -0.3053
 2862DOPC   NC333577  34.006  20.849  17.032  0.0813  0.3877 -0.0256
 2862DOPC   PO433578  33.630  20.974  16.908 -0.1766  0.2348  0.2666
 2862DOPC   GL133579  33.744  21.101  16.506  0.4080 -0.3836  0.0309
 2862DOPC   GL233580  33.919  21.277  16.472  0.0959  0.1793 -0.1622
 2862DOPC   C1A33581  33.894  20.862  16.150 -0.3853  0.2724 -0.1066
 2862DOPC   D2A33582  34.103  20.888  15.723 -0.3757 -0.0715  0.1331
 2862DOPC   C3A33583  33.967  20.755  15.312 -0.1592 -0.1527 -0.1934
 2862DOPC   C4A33584  33.920  20.471  14.963  0.1189 -0.0373  0.1740
 2862DOPC   C1B33585  33.749  21.520  16.117 -0.0732  0.0368 -0.1889
 2862DOPC   D2B33586  33.592  21.484  15.754  0.0437  0.2595 -0.2333
 2862DOPC   C3B33587  33.640  21.052  15.657  0.0616 -0.2164 -0.2700
 2862DOPC   C4B33588  33.532  20.591  15.686 -0.0260  0.0103  0.0104
 2863POSM   NC333589  27.736  14.677  15.601  0.0627  0.1100  0.1770
 2863POSM   PO433590  27.633  14.966  15.820 -0.3311 -0.1603 -0.1976
 2863POSM   AM133591  27.314  14.907  15.717 -0.1242  0.0832  0.0510
 2863POSM   AM233592  27.188  14.630  15.610 -0.1605 -0.1893 -0.0398
 2863POSM   T1A33593  26.870  15.047  15.656 -0.0291  0.1377  0.1353
 2863POSM   C2A33594  26.378  15.210  15.689 -0.1059 -0.0300  0.0365
 2863POSM   C3A33595  26.013  14.937  15.651 -0.1661 -0.0162 -0.1752
 2863POSM   C1B33596  26.886  14.611  15.394  0.0497 -0.1849 -0.2604
 2863POSM   D2B33597  26.603  14.385  15.134 -0.3602  0.0920 -0.0696
 2863POSM   C3B33598  26.792  14.001  14.973  0.0623  0.1411  0.1675
 2863POSM   C4B33599  26.862  13.532  14.967  0.0264 -0.1108  0.2376
 2864DOPS   CNO33600  31.595  21.269  16.939 -0.2077 -0.0123 -0.1350
 2864DOPS   PO433601  31.544  21.478  16.634  0.0039  0.0443  0.1997
 2864DOPS   GL133602  31.542  21.625  16.340  0.2028 -0.2644  0.3759
 2864DOPS   GL233603  31.377  21.543  16.151 -0.0788  0.0258  0.1634
 2864DOPS   C1A33604  31.660  21.809  15.902 -0.0505  0.1352 -0.0074
 2864DOPS   D2A33605  32.053  21.751  15.613  0.1337  0.1736 -0.1131
 2864DOPS   C3A33606  32.453  21.976  15.623 -0.0617  0.2646  0.2635
 2864DOPS   C4A33607  32.508  22.393  15.813  0.3038  0.0326  0.0851
 2864DOPS   C1B33608  31.316  21.482  15.700 -0.1478  0.0976 -0.0902
 2864DOPS   D2B33609  31.103  21.250  15.374 -0.0339  0.0716 -0.3395
 2864DOPS   C3B33610  31.309  21.398  14.974 -0.0189  0.0196 -0.0488
 2864DOPS   C4B33611  31.464  21.812  14.883 -0.3378  0.0070  0.1267
 2865DOPC   NC333612  28.050  14.228  16.859 -0.2373  0.0249 -0.2357
 2865DOPC   PO433613  28.194  14.434  16.560  0.1861 -0.1939  0.0658
 2865DOPC   GL133614  28.414  14.278  16.292 -0.3328  0.0746 -0.1584
 2865DOPC   GL233615  28.296  14.210  16.057 -0.0515  0.0168 -0.3309
 2865DOPC   C1A33616  28.790  14.369  15.988  0.1780 -0.2863 -0.0315
 2865DOPC   D2A33617  28.910  14.444  15.535  0.1144 -0.0184  0.3516
 2865DOPC   C3A33618  29.153  14.382  15.102 -0.2554  0.0741 -0.0731
 2865DOPC   C4A33619  29.217  14.515  14.706  0.2111  0.1348  0.2630
 2865DOPC   C1B33620  28.192  14.398  15.699  0.0498  0.0217 -0.0227
 2865DOPC   D2B33621  28.258  14.604  15.272 -0.1493 -0.1521 -0.2037
 2865DOPC   C3B33622  27.781  14.712  15.125  0.0120 -0.0649 -0.0336
 2865DOPC   C4B33623  27.348  14.883  15.153  0.0103 -0.1747 -0.0738
 2866DOPE   NH333624  24.966  17.605  16.931 -0.0248  0.1972  0.0458
 2866DOPE   PO433625  25.122  17.474  16.693 -0.2102 -0.0910  0.2487
 2866DOPE   GL133626  25.129  17.236  16.437  0.1024 -0.1290  0.1034
 2866DOPE   GL233627  25.354  17.057  16.518 -0.1693  0.2177  0.1539
 2866DOPE   C1A33628  25.310  17.032  16.063  0.1535 -0.0904  0.0721
 2866DOPE   D2A33629  25.687  16.755  15.913  0.0023 -0.0643 -0.0181
 2866DOPE   C3A33630  25.916  16.756  15.505 -0.0766 -0.1605 -0.1154
 2866DOPE   C4A33631  26.116  16.932  15.131 -0.2851 -0.1874 -0.0228
 2866DOPE   C1B33632  25.706  17.141  16.302  0.1760 -0.1284 -0.1850
 2866DOPE   D2B33633  25.796  17.245  15.840  0.1439 -0.0046 -0.1285
 2866DOPE   C3B33634  26.067  17.286  15.501 -0.0229 -0.3667 -0.0986
 2866DOPE   C4B33635  26.513  17.225  15.299  0.1635  0.0182 -0.0677
 2867POSM   NC333636  31.947  21.137  16.506 -0.2367 -0.0804  0.1534
 2867POSM   PO433637  31.603  20.917  16.527  0.0009  0.2555  0.2401
 2867POSM   AM133638  31.640  20.912  16.215  0.1010 -0.2314  0.1073
 2867POSM   AM233639  31.611  21.101  16.059 -0.1106 -0.2148  0.1691
 2867POSM   T1A33640  31.589  20.554  15.860 -0.2190  0.1715  0.3889
 2867POSM   C2A33641  31.709  20.399  15.522  0.0403  0.0279  0.0258
 2867POSM   C3A33642  31.984  20.301  15.183 -0.2829  0.0537 -0.1339
 2867POSM   C1B33643  31.760  21.252  15.773  0.0397 -0.0180 -0.1963
 2867POSM   D2B33644  31.692  21.480  15.353 -0.1721  0.1488  0.1041
 2867POSM   C3B33645  31.951  21.601  14.934  0.0747  0.0247 -0.0639
 2867POSM   C4B33646  31.955  21.328  14.514 -0.0987 -0.0897 -0.1038
 2868DOPS   CNO33647  29.452  22.805  17.459 -0.0989  0.1853  0.2623
 2868DOPS   PO433648  29.231  22.657  17.185  0.1409  0.0618  0.1002
 2868DOPS   GL133649  29.283  22.528  16.807 -0.1174  0.0387  0.3670
 2868DOPS   GL233650  29.024  22.419  16.778  0.0657  0.1156  0.2055
 2868DOPS   C1A33651  29.407  22.689  16.380  0.0080 -0.1922  0.2030
 2868DOPS   D2A33652  29.372  22.875  15.945 -0.0780  0.0528  0.2064
 2868DOPS   C3A33653  29.629  22.680  15.604  0.1008 -0.0762 -0.3486
 2868DOPS   C4A33654  29.998  22.460  15.585 -0.1159 -0.0138  0.0963
 2868DOPS   C1B33655  28.916  22.565  16.347  0.2671  0.5610 -0.1269
 2868DOPS   D2B33656  28.812  22.873  15.943  0.0646  0.0403  0.0454
 2868DOPS   C3B33657  28.395  22.843  15.825  0.2212  0.0682  0.1584
 2868DOPS   C4B33658  27.943  22.664  15.775  0.0144 -0.1542 -0.0354
 2869DOPC   NC333659  32.469  14.958  17.179 -0.0224  0.0996 -0.0448
 2869DOPC   PO433660  32.773  14.885  16.968 -0.0602 -0.3066 -0.0100
 2869DOPC   GL133661  32.739  14.623  16.766  0.0136 -0.1013  0.0184
 2869DOPC   GL233662  32.613  14.427  16.938 -0.1403 -0.0424  0.1773
 2869DOPC   C1A33663  32.930  14.261  16.568 -0.0172  0.1917 -0.0165
 2869DOPC   D2A33664  33.130  13.835  16.436  0.2219 -0.2530  0.0268
 2869DOPC   C3A33665  32.838  13.701  16.113 -0.0874 -0.1848  0.0272
 2869DOPC   C4A33666  32.355  13.775  15.951 -0.1222  0.0618  0.0830
 2869DOPC   C1B33667  32.353  14.347  16.623  0.0914 -0.0095 -0.0793
 2869DOPC   D2B33668  32.034  14.069  16.395 -0.0888  0.3493 -0.3093
 2869DOPC   C3B33669  31.894  14.092  15.910 -0.0894 -0.1720  0.2058
 2869DOPC   C4B33670  32.002  14.003  15.439 -0.0915 -0.1854  0.0487
 2870DOPE   NH333671  29.243  16.479  16.822  0.1933 -0.3565 -0.0684
 2870DOPE   PO433672  29.010  16.280  16.907  0.4372  0.1367  0.4164
 2870DOPE   GL133673  28.866  16.260  16.485 -0.0274  0.0706 -0.2048
 2870DOPE   GL233674  28.994  16.470  16.390 -0.2434 -0.0350 -0.3502
 2870DOPE   C1A33675  28.894  16.054  16.051  0.2452 -0.0966 -0.0571
 2870DOPE   D2A33676  28.888  16.120  15.633 -0.1041  0.0744 -0.0099
 2870DOPE   C3A33677  28.701  15.787  15.321  0.3071 -0.1163 -0.0438
 2870DOPE   C4A33678  28.515  15.369  15.196  0.1054 -0.0767  0.1617
 2870DOPE   C1B33679  29.122  16.539  15.933  0.1222  0.0857  0.2110
 2870DOPE   D2B33680  29.211  16.668  15.486 -0.2616 -0.0125 -0.1984
 2870DOPE   C3B33681  29.470  16.785  15.120  0.1620  0.2197 -0.1014
 2870DOPE   C4B33682  29.779  17.105  15.108  0.0284  0.1086  0.1511
 2871DOPE   NH333683  27.501  16.642  16.755 -0.4754  0.3099  0.5843
 2871DOPE   PO433684  27.797  16.666  16.641  0.2834 -0.0584 -0.1242
 2871DOPE   GL133685  28.063  16.531  16.334  0.0712 -0.1373 -0.0889
 2871DOPE   GL233686  27.940  16.772  16.175 -0.2142  0.1023 -0.0072
 2871DOPE   C1A33687  28.137  16.406  15.894 -0.2151 -0.0269  0.0582
 2871DOPE   D2A33688  28.623  16.483  15.774  0.1772  0.0108 -0.1782
 2871DOPE   C3A33689  28.627  16.678  15.340  0.1634 -0.1297 -0.3556
 2871DOPE   C4A33690  28.554  16.833  14.906 -0.2750 -0.0159 -0.2160
 2871DOPE   C1B33691  27.749  16.769  15.774  0.0514  0.0811  0.1329
 2871DOPE   D2B33692  27.317  16.849  15.585 -0.0305  0.1452  0.1813
 2871DOPE   C3B33693  27.252  16.626  15.216  0.1519 -0.1503  0.1288
 2871DOPE   C4B33694  27.392  16.324  14.855 -0.1793 -0.0512  0.1199
 2872DOPC   NC333695  31.236  22.214  17.228 -0.3419 -0.1251  0.5271
 2872DOPC   PO433696  31.088  22.090  16.909  0.0331 -0.0955 -0.0582
 2872DOPC   GL133697  31.377  21.956  16.619 -0.1820  0.1570  0.0139
 2872DOPC   GL233698  31.604  21.995  16.697  0.1323 -0.1109 -0.1401
 2872DOPC   C1A33699  31.254  22.028  16.167 -0.0227 -0.0890  0.1038
 2872DOPC   D2A33700  31.325  22.204  15.749 -0.4389  0.1289 -0.1365
 2872DOPC   C3A33701  30.893  22.245  15.504 -0.0073 -0.2392  0.1313
 2872DOPC   C4A33702  30.449  22.245  15.341 -0.0126  0.1465  0.6116
 2872DOPC   C1B33703  31.679  22.246  16.350  0.0296 -0.4422 -0.1420
 2872DOPC   D2B33704  31.736  22.460  15.969  0.0452  0.2185 -0.3643
 2872DOPC   C3B33705  31.910  22.824  16.114  0.2444 -0.1207 -0.0877
 2872DOPC   C4B33706  32.169  23.198  16.246  0.3955 -0.0535 -0.2012
 2873POSM   NC333707  32.889  18.602  17.041 -0.1096 -0.0541 -0.3076
 2873POSM   PO433708  32.598  18.584  16.764 -0.3246  0.1605  0.1314
 2873POSM   AM133709  32.449  18.565  16.480  0.2078 -0.3506  0.2054
 2873POSM   AM233710  32.228  18.382  16.449 -0.1318  0.2091 -0.3311
 2873POSM   T1A33711  32.392  18.724  15.996 -0.1664  0.2487 -0.0108
 2873POSM   C2A33712  32.355  18.644  15.587  0.1471  0.0768  0.2600
 2873POSM   C3A33713  32.073  18.889  15.310  0.0706 -0.0403  0.0855
 2873POSM   C1B33714  32.208  18.294  16.189 -0.1609  0.1128 -0.3511
 2873POSM   D2B33715  32.353  18.075  15.809  0.0654 -0.0766  0.0400
 2873POSM   C3B33716  32.764  17.894  15.864 -0.1509 -0.1440  0.0075
 2873POSM   C4B33717  33.131  18.120  15.611 -0.0888  0.1973  0.1099
 2874DOPE   NH333718  22.962  21.503  16.291 -0.0184 -0.2214 -0.0020
 2874DOPE   PO433719  22.902  21.196  16.286  0.1683 -0.1433 -0.4259
 2874DOPE   GL133720  22.828  21.278  15.855 -0.2470 -0.1069 -0.0457
 2874DOPE   GL233721  22.618  21.570  15.898  0.1698 -0.0811  0.0369
 2874DOPE   C1A33722  23.248  21.322  15.644 -0.0048 -0.2942 -0.0565
 2874DOPE   D2A33723  23.657  21.223  15.631 -0.1243  0.0517 -0.1219
 2874DOPE   C3A33724  23.995  20.839  15.594  0.5329  0.0167 -0.1442
 2874DOPE   C4A33725  24.133  20.534  15.240 -0.1357  0.0218 -0.0863
 2874DOPE   C1B33726  22.831  21.522  15.425  0.2758  0.1816 -0.5315
 2874DOPE   D2B33727  22.587  21.668  15.030  0.0786 -0.0806 -0.1469
 2874DOPE   C3B33728  22.642  21.404  14.675 -0.1720  0.2440 -0.2568
 2874DOPE   C4B33729  22.637  21.285  14.199  0.1674 -0.1918 -0.3623
 2875DOPS   CNO33730  27.533  12.616  16.282  0.0151  0.2596  0.2086
 2875DOPS   PO433731  27.478  12.797  16.633 -0.1095 -0.0876  0.1223
 2875DOPS   GL133732  27.494  13.070  16.324 -0.2720  0.1034 -0.3448
 2875DOPS   GL233733  27.285  13.270  16.212 -0.2027 -0.2449  0.0675
 2875DOPS   C1A33734  27.253  12.945  15.870  0.0781  0.0548 -0.0191
 2875DOPS   D2A33735  27.398  13.104  15.422  0.2345  0.0604  0.3127
 2875DOPS   C3A33736  27.482  12.836  15.050  0.1517  0.1126  0.0359
 2875DOPS   C4A33737  27.470  12.417  14.832 -0.2073  0.0505  0.0029
 2875DOPS   C1B33738  27.429  13.423  15.801  0.2278 -0.0557 -0.0624
 2875DOPS   D2B33739  27.574  13.680  15.474 -0.0646 -0.0648  0.0395
 2875DOPS   C3B33740  27.502  13.875  15.064  0.2992  0.0908  0.2899
 2875DOPS   C4B33741  27.465  14.175  14.647  0.2137 -0.0110  0.0301
 2876POSM   NC333742  30.985  19.689  16.398 -0.2797  0.1172  0.0569
 2876POSM   PO433743  30.846  19.789  16.766  0.3417  0.1012  0.1225
 2876POSM   AM133744  30.604  19.887  16.530 -0.2977  0.4005 -0.1840
 2876POSM   AM233745  30.621  20.067  16.315 -0.0316 -0.0147 -0.0319
 2876POSM   T1A33746  30.136  19.962  16.305 -0.1031  0.2232 -0.0196
 2876POSM   C2A33747  29.666  19.779  16.383 -0.1741 -0.1652  0.0829
 2876POSM   C3A33748  29.352  19.804  16.021 -0.1905  0.0559 -0.0601
 2876POSM   C1B33749  30.547  19.939  16.013  0.1367  0.0811  0.0448
 2876POSM   D2B33750  30.337  19.966  15.633  0.1400  0.0396 -0.4873
 2876POSM   C3B33751  29.951  20.185  15.587 -0.3755  0.2421 -0.1376
 2876POSM   C4B33752  29.773  20.596  15.761 -0.1061 -0.1585  0.1055
 2877POSM   NC333753  26.634  19.576  16.919 -0.3559  0.1111  0.1984
 2877POSM   PO433754  26.780  19.961  16.900 -0.3419 -0.1987  0.0778
 2877POSM   AM133755  26.984  19.872  16.672 -0.2742  0.1194 -0.4630
 2877POSM   AM233756  26.999  19.630  16.523  0.0009  0.1098 -0.0684
 2877POSM   T1A33757  27.322  19.965  16.288  0.0407 -0.0843 -0.0236
 2877POSM   C2A33758  27.274  19.979  15.837  0.0445  0.0930 -0.1678
 2877POSM   C3A33759  27.199  20.133  15.402 -0.2490  0.2068 -0.2017
 2877POSM   C1B33760  26.948  19.656  16.199  0.1586 -0.0877 -0.0887
 2877POSM   D2B33761  26.900  19.441  15.749  0.2885  0.3054  0.0883
 2877POSM   C3B33762  27.242  19.617  15.480 -0.1336 -0.0679 -0.0240
 2877POSM   C4B33763  27.268  19.730  15.024 -0.2922 -0.0661 -0.1157
 2878DOPC   NC333764  26.256  11.678  16.526  0.0497 -0.2733  0.0954
 2878DOPC   PO433765  25.981  11.711  16.263 -0.0492  0.0712  0.1677
 2878DOPC   GL133766  25.938  11.694  15.869  0.0899 -0.1584  0.3626
 2878DOPC   GL233767  25.854  11.477  15.758  0.0150 -0.1701 -0.1808
 2878DOPC   C1A33768  25.935  11.921  15.416 -0.1016  0.0328 -0.1581
 2878DOPC   D2A33769  25.895  12.382  15.324  0.2125 -0.0438  0.1492
 2878DOPC   C3A33770  25.649  12.598  14.991 -0.1946  0.0778  0.1814
 2878DOPC   C4A33771  25.233  12.472  14.800  0.3418 -0.0587 -0.1767
 2878DOPC   C1B33772  25.802  11.445  15.298  0.0466 -0.1411  0.2084
 2878DOPC   D2B33773  25.659  11.639  14.908 -0.1056  0.2287 -0.3153
 2878DOPC   C3B33774  25.366  11.390  14.667  0.1021  0.0652  0.1499
 2878DOPC   C4B33775  25.378  10.933  14.705  0.0338 -0.0947 -0.2372
 2879DOPS   CNO33776  30.053  16.239  17.630  0.0639 -0.0636 -0.2038
 2879DOPS   PO433777  30.030  16.051  17.276 -0.0297 -0.0904 -0.1539
 2879DOPS   GL133778  30.027  15.913  16.832 -0.1114 -0.4245 -0.5494
 2879DOPS   GL233779  29.923  16.018  16.608  0.0196 -0.0929 -0.1114
 2879DOPS   C1A33780  30.057  15.521  16.583  0.0479  0.0005 -0.0149
 2879DOPS   D2A33781  30.076  15.442  16.143  0.0384 -0.3015 -0.0570
 2879DOPS   C3A33782  29.910  14.992  15.938  0.2121 -0.2637  0.1126
 2879DOPS   C4A33783  29.893  14.570  16.091  0.1623  0.0124  0.1672
 2879DOPS   C1B33784  30.285  16.347  16.490  0.0295 -0.0141  0.2034
 2879DOPS   D2B33785  30.459  16.746  16.296 -0.0288  0.2222  0.0474
 2879DOPS   C3B33786  30.610  17.081  16.074 -0.2817 -0.3170 -0.3321
 2879DOPS   C4B33787  31.074  17.195  16.042 -0.0657  0.1859 -0.3201
 2880DOPE   NH333788  32.474  21.351  17.010  0.1205 -0.3054 -0.4312
 2880DOPE   PO433789  32.512  21.647  17.107  0.0837 -0.5656  0.1228
 2880DOPE   GL133790  32.544  21.785  16.660  0.4749 -0.0710  0.0130
 2880DOPE   GL233791  32.530  21.571  16.478  0.2191 -0.2432  0.0537
 2880DOPE   C1A33792  32.535  22.046  16.264 -0.1445 -0.3038 -0.1777
 2880DOPE   D2A33793  32.921  22.216  16.032 -0.3770 -0.0123  0.0887
 2880DOPE   C3A33794  33.031  22.475  15.698  0.0300 -0.0363 -0.0894
 2880DOPE   C4A33795  33.406  22.789  15.668 -0.2375  0.1381  0.2410
 2880DOPE   C1B33796  32.701  21.494  16.029  0.0835 -0.2004 -0.0839
 2880DOPE   D2B33797  32.780  21.552  15.590  0.1751  0.1194 -0.1108
 2880DOPE   C3B33798  33.231  21.570  15.325 -0.0297  0.2194 -0.1513
 2880DOPE   C4B33799  33.589  21.868  15.372  0.2547  0.1174 -0.0210
 2881POSM   NC333800  32.131  17.271  17.123  0.2501 -0.3009  0.0916
 2881POSM   PO433801  32.184  17.533  16.832 -0.1038 -0.0441 -0.0775
 2881POSM   AM133802  32.268  17.551  16.539 -0.1205 -0.2108  0.3018
 2881POSM   AM233803  32.315  17.778  16.351 -0.2443 -0.1319  0.0147
 2881POSM   T1A33804  32.501  17.367  16.150 -0.2735 -0.4169 -0.0162
 2881POSM   C2A33805  32.527  17.069  15.764  0.0236  0.0384  0.2734
 2881POSM   C3A33806  32.851  17.124  15.376 -0.2544  0.2213 -0.0203
 2881POSM   C1B33807  32.083  17.747  16.127 -0.0274 -0.1928  0.1954
 2881POSM   D2B33808  31.883  17.566  15.784 -0.1229  0.0250 -0.0707
 2881POSM   C3B33809  31.901  17.600  15.343 -0.1724  0.2418 -0.1207
 2881POSM   C4B33810  32.114  17.598  14.918  0.2450  0.0718 -0.1593
 2882POSM   NC333811  33.598  13.210  16.935 -0.0712  0.1242  0.0488
 2882POSM   PO433812  33.261  13.142  17.052  0.0950 -0.0400 -0.3060
 2882POSM   AM133813  33.060  13.176  16.776 -0.0292  0.1710  0.1006
 2882POSM   AM233814  33.185  13.263  16.546  0.0495 -0.0294 -0.0992
 2882POSM   T1A33815  32.838  13.026  16.301 -0.1447  0.0679  0.3387
 2882POSM   C2A33816  32.723  13.282  15.926 -0.0674 -0.0234  0.0871
 2882POSM   C3A33817  32.555  13.533  15.554 -0.2149 -0.0262 -0.3147
 2882POSM   C1B33818  33.243  13.349  16.286  0.0525  0.4273 -0.0191
 2882POSM   D2B33819  33.312  13.681  15.997 -0.3243  0.0689  0.0403
 2882POSM   C3B33820  33.071  13.682  15.569 -0.1909  0.0341  0.0399
 2882POSM   C4B33821  32.776  13.914  15.386  0.2309  0.4034  0.0200
 2883DOPC   NC333822  24.142  19.333  16.582  0.0200  0.0283 -0.2055
 2883DOPC   PO433823  23.924  19.469  16.249  0.0676  0.3625  0.1959
 2883DOPC   GL133824  23.994  19.444  15.887  0.1035  0.0190  0.0495
 2883DOPC   GL233825  24.016  19.757  15.837 -0.2424 -0.3034  0.1289
 2883DOPC   C1A33826  23.874  19.302  15.466  0.3072  0.1235 -0.0977
 2883DOPC   D2A33827  23.821  18.892  15.242 -0.0336  0.0307  0.2263
 2883DOPC   C3A33828  23.800  18.727  14.810  0.0407  0.3411 -0.0251
 2883DOPC   C4A33829  24.063  18.764  14.421 -0.0989  0.2623  0.1371
 2883DOPC   C1B33830  24.309  20.113  15.939 -0.0371 -0.2694 -0.2887
 2883DOPC   D2B33831  24.599  20.435  16.238  0.2540 -0.0190 -0.0665
 2883DOPC   C3B33832  24.917  20.676  16.042 -0.0406  0.0655 -0.3665
 2883DOPC   C4B33833  25.338  20.890  15.933 -0.0604  0.1640 -0.1248
 2884DOPC   NC333834  24.511  14.142  16.335 -0.1344 -0.1714 -0.0684
 2884DOPC   PO433835  24.332  14.019  15.995  0.0092  0.0425  0.0802
 2884DOPC   GL133836  24.311  13.946  15.642  0.1468  0.0997  0.2214
 2884DOPC   GL233837  24.329  13.666  15.591 -0.0537 -0.1230 -0.0368
 2884DOPC   C1A33838  24.015  14.072  15.319  0.2361 -0.5282 -0.2076
 2884DOPC   D2A33839  23.868  14.290  14.884 -0.2560 -0.1085  0.2589
 2884DOPC   C3A33840  23.424  14.400  14.677 -0.0313  0.2033 -0.0178
 2884DOPC   C4A33841  23.016  14.341  14.416 -0.2043 -0.2495 -0.2086
 2884DOPC   C1B33842  24.579  13.685  15.200 -0.2319 -0.0924  0.2034
 2884DOPC   D2B33843  24.902  13.746  14.916  0.0494  0.0911  0.0653
 2884DOPC   C3B33844  24.696  13.612  14.471 -0.0323  0.0365 -0.0416
 2884DOPC   C4B33845  24.546  13.700  14.064 -0.0462  0.0667  0.3343
 2885POSM   NC333846  28.925  12.533  16.963  0.0665 -0.0354 -0.0268
 2885POSM   PO433847  28.961  12.150  17.045  0.1114  0.2747  0.0535
 2885POSM   AM133848  29.070  12.053  16.749 -0.3714 -0.1144  0.0643
 2885POSM   AM233849  29.357  12.008  16.655  0.1604  0.1332  0.1189
 2885POSM   T1A33850  29.037  11.794  16.315 -0.0266 -0.0565 -0.1086
 2885POSM   C2A33851  29.049  11.345  16.174 -0.3680  0.1557 -0.0264
 2885POSM   C3A33852  29.185  10.851  16.211 -0.2209  0.0379  0.1901
 2885POSM   C1B33853  29.354  12.186  16.386  0.2426  0.1568 -0.2127
 2885POSM   D2B33854  29.340  12.573  16.209  0.3012  0.4751  0.2611
 2885POSM   C3B33855  29.366  12.627  15.837 -0.0794 -0.0723 -0.1272
 2885POSM   C4B33856  29.193  12.577  15.478 -0.3406 -0.2942  0.3724
 2886POSM   NC333857  34.391  16.656  16.817  0.1552  0.1062  0.3901
 2886POSM   PO433858  34.045  16.858  16.789 -0.1369 -0.0644  0.1856
 2886POSM   AM133859  33.995  16.690  16.507 -0.1418 -0.0836 -0.1382
 2886POSM   AM233860  33.777  16.749  16.365 -0.0703  0.1300  0.0587
 2886POSM   T1A33861  33.997  16.333  16.128  0.0643  0.1839  0.0217
 2886POSM   C2A33862  33.761  16.081  15.861 -0.2209  0.2962 -0.0669
 2886POSM   C3A33863  33.666  16.251  15.504  0.0222 -0.2697 -0.3321
 2886POSM   C1B33864  33.957  16.944  16.107 -0.0305 -0.0752 -0.0076
 2886POSM   D2B33865  34.089  17.152  15.702  0.0499 -0.0391 -0.0470
 2886POSM   C3B33866  33.756  17.337  15.437 -0.3555  0.0469  0.3609
 2886POSM   C4B33867  33.800  17.683  15.195 -0.0872 -0.2326  0.0976
 2887DOPE   NH333868  33.652  22.402  17.044  0.2882 -0.1258 -0.0634
 2887DOPE   PO433869  33.723  22.725  17.139 -0.0650 -0.0528  0.1774
 2887DOPE   GL133870  33.737  22.726  16.688  0.0100 -0.2204 -0.1735
 2887DOPE   GL233871  33.563  22.553  16.590  0.2086  0.1121  0.3155
 2887DOPE   C1A33872  33.966  22.598  16.259  0.0218 -0.1731 -0.4196
 2887DOPE   D2A33873  34.196  22.372  15.965  0.0161  0.3441  0.2097
 2887DOPE   C3A33874  33.927  22.383  15.575  0.1335  0.0069 -0.1426
 2887DOPE   C4A33875  33.774  22.257  15.174 -0.2686  0.0053  0.1132
 2887DOPE   C1B33876  33.396  22.469  16.135 -0.4484  0.0116 -0.1851
 2887DOPE   D2B33877  33.441  22.233  15.742 -0.0226  0.1653  0.3121
 2887DOPE   C3B33878  33.307  22.325  15.288 -0.1816 -0.2642  0.3464
 2887DOPE   C4B33879  32.968  22.628  15.156 -0.1680  0.0925 -0.1616
 2888DOPC   NC333880  31.184  21.158  16.401  0.0362  0.1090  0.1270
 2888DOPC   PO433881  30.796  21.070  16.451 -0.1320 -0.0544 -0.0781
 2888DOPC   GL133882  30.712  21.064  16.114 -0.0768 -0.0557 -0.0671
 2888DOPC   GL233883  30.917  21.274  15.943  0.2373 -0.3081 -0.1871
 2888DOPC   C1A33884  30.290  21.016  15.885 -0.1221  0.2237  0.0478
 2888DOPC   D2A33885  29.928  21.232  15.817 -0.2810  0.0098  0.0671
 2888DOPC   C3A33886  29.762  21.678  15.780  0.0043  0.2852 -0.1556
 2888DOPC   C4A33887  29.672  22.111  15.635 -0.1199  0.0868 -0.0398
 2888DOPC   C1B33888  30.676  21.296  15.594  0.2010 -0.0778  0.1303
 2888DOPC   D2B33889  30.326  21.122  15.340  0.2687 -0.2833 -0.1828
 2888DOPC   C3B33890  30.293  21.121  14.875  0.2696  0.1450 -0.0690
 2888DOPC   C4B33891  30.150  21.246  14.442  0.1501  0.2366 -0.1497
 2889DOPE   NH333892  30.463  18.601  17.042 -0.0595  0.2464  0.2114
 2889DOPE   PO433893  30.616  18.664  16.742  0.2530  0.2656  0.2231
 2889DOPE   GL133894  30.865  18.545  16.436 -0.0293  0.2767 -0.3715
 2889DOPE   GL233895  30.938  18.321  16.415  0.6138  0.0615  0.1417
 2889DOPE   C1A33896  30.568  18.583  16.097 -0.0005  0.1985  0.1250
 2889DOPE   D2A33897  30.129  18.627  15.984 -0.3113  0.2617 -0.1823
 2889DOPE   C3A33898  30.094  18.802  15.594  0.1870  0.3235  0.3739
 2889DOPE   C4A33899  30.027  18.620  15.173 -0.0674  0.0419 -0.2093
 2889DOPE   C1B33900  30.644  17.967  16.459 -0.2318  0.0157 -0.2746
 2889DOPE   D2B33901  30.530  17.526  16.400  0.0224  0.0861 -0.2001
 2889DOPE   C3B33902  30.650  17.558  16.005  0.0983  0.1207 -0.1468
 2889DOPE   C4B33903  30.906  17.453  15.637 -0.2115  0.1977  0.0627
 2890DOPE   NH333904  33.208  15.220  17.015 -0.0633 -0.4272  0.2380
 2890DOPE   PO433905  33.000  15.309  16.781 -0.1946  0.0709  0.0199
 2890DOPE   GL133906  32.963  14.966  16.464 -0.1232  0.4579 -0.3971
 2890DOPE   GL233907  33.122  14.816  16.631 -0.1491  0.0718 -0.0822
 2890DOPE   C1A33908  32.628  14.666  16.334  0.1201 -0.0097 -0.0048
 2890DOPE   D2A33909  32.307  14.674  16.015  0.2021 -0.1241 -0.2051
 2890DOPE   C3A33910  32.424  14.838  15.605  0.1371  0.2151  0.2828
 2890DOPE   C4A33911  32.457  14.887  15.136 -0.3832 -0.2343  0.0559
 2890DOPE   C1B33912  33.243  14.914  16.187  0.0255  0.1566 -0.2470
 2890DOPE   D2B33913  33.268  14.788  15.752  0.1455 -0.0985  0.1020
 2890DOPE   C3B33914  33.085  15.089  15.391 -0.0098  0.1593  0.1395
 2890DOPE   C4B33915  33.203  15.094  14.952  0.0133  0.1725 -0.2982
 2891DOPE   NH333916  30.511  15.108  17.145 -0.2447  0.2431 -0.0735
 2891DOPE   PO433917  30.357  14.846  17.150  0.2786 -0.1657 -0.0116
 2891DOPE   GL133918  30.306  14.796  16.724  0.0160  0.2077 -0.3477
 2891DOPE   GL233919  30.281  15.068  16.689 -0.1478 -0.2424 -0.2211
 2891DOPE   C1A33920  30.261  14.882  16.250 -0.2313 -0.1225  0.2547
 2891DOPE   D2A33921  30.289  14.716  15.792 -0.2662  0.2334  0.5566
 2891DOPE   C3A33922  29.976  14.609  15.519 -0.0676  0.0460 -0.4073
 2891DOPE   C4A33923  29.577  14.382  15.397 -0.2972  0.2953  0.1316
 2891DOPE   C1B33924  29.860  15.086  16.490 -0.1225 -0.3657 -0.1514
 2891DOPE   D2B33925  29.583  15.268  16.164  0.0060  0.0663  0.0678
 2891DOPE   C3B33926  29.470  15.254  15.724  0.1317 -0.0979 -0.1696
 2891DOPE   C4B33927  29.698  15.144  15.327 -0.1281 -0.1216 -0.1575
 2892DOPS   CNO33928  23.347  16.573  15.782  0.1540 -0.0854 -0.1688
 2892DOPS   PO433929  23.138  16.364  15.557  0.0782 -0.2041 -0.0517
 2892DOPS   GL133930  23.357  16.533  15.242  0.1192  0.0000  0.3659
 2892DOPS   GL233931  23.446  16.771  15.258  0.2771  0.2264 -0.2607
 2892DOPS   C1A33932  23.807  16.468  15.111  0.1122  0.0749  0.2523
 2892DOPS   D2A33933  24.093  16.677  14.806 -0.2885 -0.0305 -0.1522
 2892DOPS   C3A33934  24.424  16.417  14.650 -0.2678 -0.3732 -0.0910
 2892DOPS   C4A33935  24.756  16.183  14.422  0.1104 -0.0555 -0.0157
 2892DOPS   C1B33936  23.539  16.704  14.812 -0.0768  0.0571  0.2068
 2892DOPS   D2B33937  23.757  16.945  14.434 -0.0333 -0.0904  0.4562
 2892DOPS   C3B33938  23.816  16.785  14.031  0.0701  0.1508  0.1381
 2892DOPS   C4B33939  23.911  16.447  13.771  0.2373  0.1423 -0.1689
 2893DOPE   NH333940  29.689  19.524  17.125  0.0411  0.1420 -0.2179
 2893DOPE   PO433941  29.596  19.211  17.155  0.1069  0.1302  0.0070
 2893DOPE   GL133942  29.382  19.184  16.828  0.0552 -0.0258  0.0345
 2893DOPE   GL233943  29.545  19.318  16.613  0.3787 -0.1954  0.0631
 2893DOPE   C1A33944  29.168  18.824  16.584  0.0129  0.2161  0.3243
 2893DOPE   D2A33945  29.147  18.638  16.162 -0.0409 -0.1828  0.2022
 2893DOPE   C3A33946  28.964  18.762  15.723  0.1116  0.0422  0.1154
 2893DOPE   C4A33947  28.638  19.029  15.545  0.1912 -0.0190 -0.2814
 2893DOPE   C1B33948  29.410  19.066  16.203 -0.2919 -0.3248 -0.3472
 2893DOPE   D2B33949  29.494  18.891  15.801  0.3274  0.1036 -0.1836
 2893DOPE   C3B33950  29.233  19.019  15.418  0.1960  0.0783 -0.0601
 2893DOPE   C4B33951  28.918  19.233  15.140 -0.2999 -0.1423 -0.0273
 2894DOPE   NH333952  25.089  17.979  16.597 -0.2518 -0.0489  0.1903
 2894DOPE   PO433953  25.284  18.021  16.858 -0.1747 -0.4763  0.0938
 2894DOPE   GL133954  25.573  18.064  16.520 -0.0928  0.1348 -0.2780
 2894DOPE   GL233955  25.892  17.967  16.554  0.0584 -0.3524  0.1820
 2894DOPE   C1A33956  25.564  18.018  16.106 -0.1267 -0.0980 -0.0076
 2894DOPE   D2A33957  25.734  17.904  15.679 -0.2289  0.2847 -0.1502
 2894DOPE   C3A33958  25.893  18.219  15.398  0.3814 -0.0577 -0.2747
 2894DOPE   C4A33959  26.094  18.500  15.057  0.0063  0.0838  0.1570
 2894DOPE   C1B33960  26.284  17.968  16.283  0.0403 -0.1419 -0.1917
 2894DOPE   D2B33961  26.606  17.776  15.977 -0.3165 -0.1348 -0.2473
 2894DOPE   C3B33962  26.728  17.741  15.538  0.1592  0.1375 -0.0239
 2894DOPE   C4B33963  26.805  17.562  15.124  0.1257  0.1786 -0.0981
 2895POSM   NC333964  25.659  12.100  16.229 -0.0948  0.1938 -0.1360
 2895POSM   PO433965  25.989  12.229  16.358  0.0915 -0.0766  0.0698
 2895POSM   AM133966  26.238  12.114  16.230  0.0224 -0.1012 -0.0511
 2895POSM   AM233967  26.464  12.268  16.193  0.0925  0.1934 -0.1099
 2895POSM   T1A33968  26.467  11.775  15.917  0.1000  0.2520 -0.0778
 2895POSM   C2A33969  26.402  11.593  15.516  0.1592 -0.0375  0.0552
 2895POSM   C3A33970  26.288  11.719  15.079 -0.0891 -0.0893 -0.1216
 2895POSM   C1B33971  26.622  12.238  15.891 -0.3219  0.0416 -0.1190
 2895POSM   D2B33972  26.832  12.369  15.479 -0.0424 -0.3284  0.0106
 2895POSM   C3B33973  27.223  12.615  15.497 -0.1414 -0.0471  0.2549
 2895POSM   C4B33974  27.661  12.702  15.602 -0.0978  0.1799 -0.1496
 2896POSM   NC333975  27.351  15.302  15.994  0.0834  0.0158  0.2528
 2896POSM   PO433976  27.675  15.353  16.179 -0.0411 -0.2300 -0.1181
 2896POSM   AM133977  27.822  15.433  15.900  0.0687  0.0841 -0.0901
 2896POSM   AM233978  27.737  15.434  15.610 -0.0575 -0.3821  0.3987
 2896POSM   T1A33979  27.936  15.934  15.760 -0.0202 -0.1440 -0.2893
 2896POSM   C2A33980  27.809  16.296  15.607 -0.3130  0.1987  0.2530
 2896POSM   C3A33981  28.134  16.527  15.398  0.2616 -0.0089 -0.1643
 2896POSM   C1B33982  27.617  15.266  15.322 -0.1214 -0.2493 -0.0596
 2896POSM   D2B33983  27.655  15.121  14.850 -0.0402  0.2341 -0.1613
 2896POSM   C3B33984  28.069  14.953  14.740  0.2492 -0.0771 -0.0640
 2896POSM   C4B33985  28.183  14.526  14.787  0.0478 -0.0494 -0.1667
 2897DOPC   NC333986  29.079  17.937  17.217  0.0414 -0.2973 -0.2406
 2897DOPC   PO433987  28.999  18.281  16.954  0.0621 -0.3184 -0.2965
 2897DOPC   GL133988  28.903  18.083  16.593 -0.1748  0.0044  0.1367
 2897DOPC   GL233989  28.950  18.350  16.456  0.0305  0.2377 -0.3728
 2897DOPC   C1A33990  28.557  17.910  16.323  0.2685 -0.1810 -0.0248
 2897DOPC   D2A33991  28.592  17.869  15.873 -0.1045  0.1868  0.0455
 2897DOPC   C3A33992  28.484  17.956  15.468  0.1857 -0.1638  0.1298
 2897DOPC   C4A33993  28.463  17.612  15.164 -0.0631 -0.2114  0.0304
 2897DOPC   C1B33994  28.548  18.403  16.205  0.0284  0.0063 -0.1628
 2897DOPC   D2B33995  28.541  18.449  15.727  0.1700  0.5412  0.2909
 2897DOPC   C3B33996  28.172  18.366  15.473 -0.0427  0.0744  0.0150
 2897DOPC   C4B33997  28.139  18.242  15.115  0.1108  0.1415 -0.5915
 2898DOPC   NC333998  27.167  20.670  16.800 -0.1083  0.1085 -0.0487
 2898DOPC   PO433999  27.185  20.301  16.874  0.0772 -0.0110  0.2759
 2898DOPC   GL134000  27.032  20.325  16.492 -0.1571 -0.4534 -0.1106
 2898DOPC   GL234001  27.030  20.519  16.381 -0.0643  0.0324 -0.1204
 2898DOPC   C1A34002  26.807  20.139  16.114 -0.2351  0.1981 -0.0165
 2898DOPC   D2A34003  26.777  19.932  15.673 -0.2598 -0.1379  0.3153
 2898DOPC   C3A34004  26.423  19.998  15.412 -0.2065 -0.2100 -0.1886
 2898DOPC   C4A34005  26.290  19.920  14.978 -0.0080  0.5279 -0.3429
 2898DOPC   C1B34006  27.248  20.447  15.997  0.4497 -0.0116 -0.0071
 2898DOPC   D2B34007  27.520  20.459  15.612  0.0001 -0.1481  0.0807
 2898DOPC   C3B34008  27.416  20.510  15.203  0.1755  0.0921  0.3425
 2898DOPC   C4B34009  27.596  20.534  14.800 -0.1795  0.2159 -0.1168
 2899POSM   NC334010  25.531  21.240  17.120  0.0033  0.1791  0.3351
 2899POSM   PO434011  25.564  21.617  16.961  0.3178 -0.1976  0.3282
 2899POSM   AM134012  25.624  21.494  16.666 -0.2114  0.2547  0.3258
 2899POSM   AM234013  25.519  21.611  16.458  0.0582 -0.2485  0.0329
 2899POSM   T1A34014  25.710  21.210  16.199  0.1259  0.2851 -0.1237
 2899POSM   C2A34015  25.822  20.794  15.986 -0.1162 -0.5562 -0.0210
 2899POSM   C3A34016  25.647  20.518  15.655 -0.1642 -0.0043  0.1895
 2899POSM   C1B34017  25.646  21.645  16.158  0.1542 -0.0152  0.1492
 2899POSM   D2B34018  25.711  21.602  15.730  0.0516 -0.0139  0.2095
 2899POSM   C3B34019  25.822  21.134  15.625 -0.1745 -0.0725  0.0325
 2899POSM   C4B34020  26.083  20.746  15.590  0.3303  0.0878  0.1132
 2900DOPC   NC334021  31.320  14.201  17.360 -0.1710  0.1692  0.0833
 2900DOPC   PO434022  31.564  14.056  17.139 -0.1898 -0.0257  0.1921
 2900DOPC   GL134023  31.557  13.961  16.809  0.0725  0.1484  0.1397
 2900DOPC   GL234024  31.609  14.158  16.598  0.0596  0.3030 -0.1391
 2900DOPC   C1A34025  31.754  13.640  16.473 -0.0167  0.1491  0.1000
 2900DOPC   D2A34026  31.865  13.600  16.027  0.1936  0.0904  0.0536
 2900DOPC   C3A34027  31.741  13.264  15.713  0.0057  0.0083 -0.0152
 2900DOPC   C4A34028  31.507  13.429  15.336  0.0969 -0.0452 -0.3442
 2900DOPC   C1B34029  31.528  14.013  16.167 -0.2119 -0.1930  0.3443
 2900DOPC   D2B34030  31.555  13.780  15.730 -0.0956  0.0548 -0.0920
 2900DOPC   C3B34031  31.346  13.887  15.313 -0.0207 -0.2495  0.1695
 2900DOPC   C4B34032  31.183  14.208  15.073  0.0372 -0.1914 -0.0339
 2901POSM   NC334033  22.478  19.074  15.952 -0.1101  0.1238 -0.0561
 2901POSM   PO434034  22.630  19.364  15.728  0.0669 -0.0073  0.0280
 2901POSM   AM134035  22.857  19.417  15.516 -0.0355  0.2464  0.1993
 2901POSM   AM234036  23.115  19.315  15.459 -0.2295  0.0557  0.1100
 2901POSM   T1A34037  22.937  19.541  15.003 -0.3642 -0.0102  0.5578
 2901POSM   C2A34038  23.087  19.394  14.592 -0.2853 -0.0384  0.0515
 2901POSM   C3A34039  23.151  19.051  14.357 -0.1400 -0.1381  0.1293
 2901POSM   C1B34040  23.350  19.325  15.198  0.0415 -0.0172 -0.1137
 2901POSM   D2B34041  23.569  19.183  14.798  0.0263 -0.1040  0.0620
 2901POSM   C3B34042  23.516  19.400  14.411  0.2004 -0.1669  0.2744
 2901POSM   C4B34043  23.365  19.363  13.965  0.0520 -0.3195 -0.2002
 2902DOPC   NC334044  25.665  15.707  16.779  0.0490 -0.0857 -0.0199
 2902DOPC   PO434045  25.508  15.629  16.434 -0.0708  0.1683  0.0652
 2902DOPC   GL134046  25.716  15.904  16.238  0.1063  0.0840  0.3166
 2902DOPC   GL234047  25.589  15.880  15.964 -0.1746 -0.2836 -0.0183
 2902DOPC   C1A34048  26.094  16.155  16.070  0.0315 -0.0557  0.1699
 2902DOPC   D2A34049  26.191  16.590  15.915 -0.2378 -0.1026  0.3994
 2902DOPC   C3A34050  26.401  16.919  15.665  0.2537  0.0278  0.2734
 2902DOPC   C4A34051  26.549  17.337  15.779  0.1110  0.1328  0.0411
 2902DOPC   C1B34052  25.370  16.276  15.847 -0.1053  0.1011  0.0595
 2902DOPC   D2B34053  25.515  16.481  15.458 -0.2207  0.0274 -0.2259
 2902DOPC   C3B34054  25.821  16.388  15.109 -0.1299  0.1270 -0.4511
 2902DOPC   C4B34055  26.240  16.456  15.029  0.0324  0.3657 -0.1000
 2903POSM   NC334056  24.317  22.472  16.841 -0.0027 -0.0464 -0.1592
 2903POSM   PO434057  24.257  22.189  16.560  0.1138  0.2047  0.1340
 2903POSM   AM134058  24.424  22.220  16.286  0.1312 -0.2616 -0.0745
 2903POSM   AM234059  24.670  22.166  16.110 -0.2202  0.0146  0.3347
 2903POSM   T1A34060  24.408  22.423  15.778  0.0328 -0.0262 -0.0287
 2903POSM   C2A34061  24.486  22.859  15.578 -0.0240 -0.1166  0.0640
 2903POSM   C3A34062  24.376  23.255  15.428 -0.0619  0.0747  0.0561
 2903POSM   C1B34063  24.828  22.027  15.801  0.1815 -0.1668 -0.0026
 2903POSM   D2B34064  24.974  21.769  15.467  0.1659 -0.3738  0.1348
 2903POSM   C3B34065  25.377  21.581  15.373  0.0127  0.0341 -0.0108
 2903POSM   C4B34066  25.647  21.541  15.061 -0.3100 -0.3343 -0.1608
 2904DOPE   NH334067  26.310  17.990  17.225  0.2246 -0.2659 -0.1039
 2904DOPE   PO434068  26.177  17.994  16.985  0.1518  0.0842  0.0894
 2904DOPE   GL134069  26.194  18.218  16.720  0.2856  0.1212 -0.0055
 2904DOPE   GL234070  26.109  18.474  16.731 -0.2439  0.1653 -0.0688
 2904DOPE   C1A34071  26.562  18.442  16.558 -0.0364 -0.0966 -0.0953
 2904DOPE   D2A34072  26.627  18.876  16.363  0.2911 -0.0962 -0.0109
 2904DOPE   C3A34073  26.795  18.983  15.909 -0.0384 -0.0058 -0.1166
 2904DOPE   C4A34074  26.834  19.047  15.481 -0.3507  0.0047  0.1675
 2904DOPE   C1B34075  25.827  18.394  16.320 -0.2528 -0.1381  0.0067
 2904DOPE   D2B34076  25.516  18.499  15.932 -0.0854  0.1764  0.1952
 2904DOPE   C3B34077  25.330  18.188  15.727  0.0061  0.0647 -0.0236
 2904DOPE   C4B34078  25.313  18.092  15.264 -0.1282  0.1174 -0.0250
 2905DOPC   NC334079  33.358  14.045  16.962 -0.1044 -0.0392  0.1457
 2905DOPC   PO434080  33.311  13.647  16.925  0.0452 -0.2110 -0.1530
 2905DOPC   GL134081  32.944  13.759  16.837  0.2711 -0.0504 -0.1765
 2905DOPC   GL234082  32.725  13.943  16.917  0.1833 -0.0121 -0.3388
 2905DOPC   C1A34083  32.726  13.436  16.610  0.0495 -0.1473 -0.0588
 2905DOPC   D2A34084  32.373  13.468  16.323  0.0461 -0.0830 -0.1818
 2905DOPC   C3A34085  32.284  13.137  15.947 -0.1868 -0.0105  0.0648
 2905DOPC   C4A34086  31.933  12.860  15.938  0.2665  0.0668  0.2516
 2905DOPC   C1B34087  32.567  13.915  16.516  0.0159  0.4498 -0.1137
 2905DOPC   D2B34088  32.513  14.211  16.146 -0.0569  0.1182 -0.3123
 2905DOPC   C3B34089  32.311  14.301  15.727  0.1867 -0.1662  0.3772
 2905DOPC   C4B34090  32.366  14.265  15.308  0.1786  0.0355 -0.2650
 2906DOPC   NC334091  28.659  13.350  17.253  0.0694 -0.0281  0.0971
 2906DOPC   PO434092  29.085  13.412  17.326 -0.0804  0.0118 -0.1535
 2906DOPC   GL134093  29.161  13.325  16.978 -0.2632 -0.0319  0.4600
 2906DOPC   GL234094  29.439  13.280  16.967  0.0788  0.0964  0.2007
 2906DOPC   C1A34095  29.149  13.368  16.497 -0.0605 -0.1354  0.0167
 2906DOPC   D2A34096  29.213  13.129  16.164  0.0820 -0.2290  0.0104
 2906DOPC   C3A34097  28.928  12.782  15.997  0.0100 -0.0358 -0.0639
 2906DOPC   C4A34098  28.813  12.440  15.770 -0.1161 -0.0568 -0.4095
 2906DOPC   C1B34099  29.565  13.107  16.499 -0.0158  0.0242 -0.1791
 2906DOPC   D2B34100  29.842  12.835  16.231 -0.1858 -0.0322 -0.4604
 2906DOPC   C3B34101  29.761  12.405  16.045  0.0923 -0.0197  0.0323
 2906DOPC   C4B34102  29.881  12.032  15.914 -0.0476 -0.1539 -0.1854
 2907DOPC   NC334103  27.134  16.281  16.831  0.2804  0.0427 -0.0951
 2907DOPC   PO434104  26.728  16.247  16.744 -0.0444  0.0519 -0.2156
 2907DOPC   GL134105  26.783  16.291  16.367  0.2530 -0.1687  0.1839
 2907DOPC   GL234106  26.587  16.169  16.232  0.0375  0.1200  0.0448
 2907DOPC   C1A34107  26.693  16.716  16.206 -0.1846  0.0159  0.2421
 2907DOPC   D2A34108  26.889  16.908  15.876 -0.0096 -0.1886 -0.2053
 2907DOPC   C3A34109  26.786  16.870  15.366 -0.0052  0.0319 -0.1297
 2907DOPC   C4A34110  26.913  16.994  14.960  0.3104  0.1676  0.3682
 2907DOPC   C1B34111  26.492  15.994  15.817 -0.0535  0.2101 -0.1517
 2907DOPC   D2B34112  26.255  15.827  15.439  0.2973  0.1071 -0.1326
 2907DOPC   C3B34113  25.904  15.829  15.153 -0.0728 -0.0357  0.0035
 2907DOPC   C4B34114  25.608  16.003  14.834 -0.0664  0.1503  0.0440
 2908DOPC   NC334115  33.233  19.700  16.859  0.0545 -0.1730  0.1292
 2908DOPC   PO434116  32.831  19.654  16.924  0.2513 -0.2405  0.1386
 2908DOPC   GL134117  32.848  19.665  16.556 -0.0096  0.2960  0.1694
 2908DOPC   GL234118  32.905  19.426  16.478  0.0661  0.0077  0.0411
 2908DOPC   C1A34119  33.023  19.815  16.162 -0.1087 -0.0137 -0.2992
 2908DOPC   D2A34120  33.312  20.121  16.040  0.1214  0.1701  0.1992
 2908DOPC   C3A34121  33.090  20.357  15.703 -0.1580 -0.0944 -0.2905
 2908DOPC   C4A34122  33.028  20.758  15.623  0.0694 -0.0181 -0.1591
 2908DOPC   C1B34123  32.925  19.372  16.002  0.3980  0.0085 -0.0882
 2908DOPC   D2B34124  33.035  19.328  15.543 -0.2908 -0.0271 -0.2747
 2908DOPC   C3B34125  33.432  19.204  15.314  0.1495  0.1090  0.1147
 2908DOPC   C4B34126  33.555  18.901  14.981  0.1281  0.1314  0.2186
 2909DOPS   CNO34127  28.879  17.511  17.359  0.2515 -0.0503 -0.1051
 2909DOPS   PO434128  29.122  17.483  17.060 -0.0552 -0.1476 -0.3049
 2909DOPS   GL134129  29.200  17.371  16.730 -0.2314  0.1341 -0.1007
 2909DOPS   GL234130  29.072  17.199  16.561  0.2719 -0.1094 -0.0639
 2909DOPS   C1A34131  29.010  17.600  16.297 -0.0710 -0.0835 -0.0286
 2909DOPS   D2A34132  29.088  17.743  15.857 -0.0797  0.0590 -0.1332
 2909DOPS   C3A34133  29.043  17.779  15.393  0.3200  0.1532  0.1220
 2909DOPS   C4A34134  28.906  18.051  15.031 -0.1309 -0.1065 -0.0606
 2909DOPS   C1B34135  28.962  16.921  16.227 -0.1849 -0.1518 -0.0702
 2909DOPS   D2B34136  28.879  16.974  15.710 -0.0595  0.0184 -0.4208
 2909DOPS   C3B34137  29.012  17.086  15.289  0.0180 -0.4506  0.0356
 2909DOPS   C4B34138  28.874  17.371  15.015  0.0466  0.0087  0.0457
 2910DOPC   NC334139  29.280  15.970  17.105 -0.0011 -0.3296 -0.1243
 2910DOPC   PO434140  29.599  16.203  17.012 -0.1250  0.2420  0.1047
 2910DOPC   GL134141  29.483  16.077  16.621  0.1780 -0.2422  0.2634
 2910DOPC   GL234142  29.235  16.019  16.531  0.1179  0.2991 -0.1078
 2910DOPC   C1A34143  29.626  15.792  16.279  0.2820 -0.0450 -0.2825
 2910DOPC   D2A34144  29.737  15.772  15.879  0.0823  0.0560  0.1604
 2910DOPC   C3A34145  29.645  15.663  15.415  0.1044  0.0234 -0.1931
 2910DOPC   C4A34146  29.944  15.585  15.119 -0.0157  0.4022  0.0973
 2910DOPC   C1B34147  29.358  16.198  16.144  0.1298 -0.1116  0.1640
 2910DOPC   D2B34148  29.487  16.169  15.678  0.0884 -0.0435 -0.0704
 2910DOPC   C3B34149  29.696  16.503  15.445  0.0384  0.2973  0.1115
 2910DOPC   C4B34150  29.953  16.886  15.513 -0.0008 -0.4048 -0.0574
 2911DOPS   CNO34151  30.685  19.179  16.560  0.0185  0.1968 -0.1931
 2911DOPS   PO434152  30.415  19.480  16.659 -0.0877  0.1118 -0.2550
 2911DOPS   GL134153  30.386  19.519  16.220  0.1082  0.0117 -0.1816
 2911DOPS   GL234154  30.056  19.456  16.277  0.0103  0.0534 -0.0608
 2911DOPS   C1A34155  30.756  19.487  15.937 -0.1172  0.2947 -0.1304
 2911DOPS   D2A34156  30.748  19.689  15.513 -0.0792 -0.0930  0.1028
 2911DOPS   C3A34157  30.426  19.668  15.180  0.2895  0.0459  0.0326
 2911DOPS   C4A34158  29.970  19.565  15.095  0.1842 -0.0756 -0.0462
 2911DOPS   C1B34159  29.927  19.785  15.916 -0.1039  0.2705 -0.0260
 2911DOPS   D2B34160  29.688  20.155  15.989 -0.1898 -0.1026 -0.0052
 2911DOPS   C3B34161  29.393  20.285  15.715  0.2395  0.1130  0.1122
 2911DOPS   C4B34162  28.926  20.481  15.668  0.1292 -0.2448 -0.3821
 2912POSM   NC334163  33.942  12.320  17.086 -0.1505  0.1463  0.1683
 2912POSM   PO434164  34.300  12.342  17.276 -0.0779  0.0814 -0.0733
 2912POSM   AM134165  34.388  12.256  17.003 -0.0255 -0.1172  0.1916
 2912POSM   AM234166  34.357  12.321  16.700  0.1724 -0.0304 -0.1622
 2912POSM   T1A34167  34.789  11.982  16.790  0.2041 -0.2014  0.2509
 2912POSM   C2A34168  34.952  11.672  16.516 -0.2721  0.3338 -0.0559
 2912POSM   C3A34169  35.097  11.606  16.076 -0.1759 -0.1600  0.4069
 2912POSM   C1B34170  34.438  12.129  16.474 -0.1674  0.1785  0.4274
 2912POSM   D2B34171  34.682  11.878  16.193  0.0892 -0.2143 -0.1445
 2912POSM   C3B34172  34.686  12.061  15.749  0.3466  0.1150  0.1945
 2912POSM   C4B34173  34.822  11.956  15.317  0.1096  0.0053 -0.0140
 2913DOPS   CNO34174  27.633  16.252  16.144  0.1341  0.1341  0.1852
 2913DOPS   PO434175  27.381  16.235  16.406  0.3519  0.1620  0.0696
 2913DOPS   GL134176  27.199  16.419  16.107  0.2269  0.1377 -0.2225
 2913DOPS   GL234177  27.319  16.659  16.037 -0.1860 -0.0137  0.1902
 2913DOPS   C1A34178  26.807  16.349  15.853  0.0229 -0.0182 -0.1456
 2913DOPS   D2A34179  26.583  16.414  15.433  0.0826 -0.0605  0.1338
 2913DOPS   C3A34180  26.179  16.283  15.526  0.0363  0.0759  0.1566
 2913DOPS   C4A34181  25.769  16.068  15.578  0.0258 -0.2805  0.0391
 2913DOPS   C1B34182  27.271  16.377  15.693 -0.0577  0.2933 -0.0465
 2913DOPS   D2B34183  27.169  16.110  15.290 -0.0454 -0.0633  0.2448
 2913DOPS   C3B34184  26.876  16.365  14.971 -0.1938 -0.0015 -0.2159
 2913DOPS   C4B34185  26.567  16.291  14.634 -0.1351  0.0806  0.2813
 2914DOPS   CNO34186  23.513  14.301  16.004  0.1073  0.0692 -0.1144
 2914DOPS   PO434187  23.267  14.413  15.781 -0.4397 -0.4162  0.0470
 2914DOPS   GL134188  23.150  14.089  15.442 -0.0783  0.4552  0.0262
 2914DOPS   GL234189  22.914  14.171  15.383 -0.0178 -0.0580 -0.2236
 2914DOPS   C1A34190  23.516  13.846  15.293  0.0877  0.0952  0.1844
 2914DOPS   D2A34191  23.652  13.843  14.842  0.1309 -0.1055  0.0534
 2914DOPS   C3A34192  23.620  13.863  14.398 -0.1049 -0.2443  0.2773
 2914DOPS   C4A34193  23.516  13.746  13.932 -0.0332  0.0915 -0.1461
 2914DOPS   C1B34194  23.113  13.887  15.009  0.1012 -0.2597  0.2245
 2914DOPS   D2B34195  23.177  13.746  14.579 -0.0842  0.2509 -0.1587
 2914DOPS   C3B34196  22.991  13.888  14.179  0.0706 -0.0455  0.0204
 2914DOPS   C4B34197  22.735  14.010  13.809  0.0420  0.0614  0.0579
 2915DOPE   NH334198  24.607  15.800  16.248  0.0316  0.0324 -0.0572
 2915DOPE   PO434199  24.550  15.463  16.149  0.0244 -0.0874 -0.2598
 2915DOPE   GL134200  24.666  15.599  15.813 -0.0925 -0.0986  0.0216
 2915DOPE   GL234201  24.550  15.839  15.643 -0.1003 -0.2299  0.4242
 2915DOPE   C1A34202  25.006  15.887  15.682  0.0071 -0.1941  0.2038
 2915DOPE   D2A34203  25.296  15.985  15.294 -0.2297 -0.1095 -0.2016
 2915DOPE   C3A34204  25.476  15.591  15.435  0.0996 -0.4074 -0.2727
 2915DOPE   C4A34205  25.841  15.436  15.580 -0.0351 -0.1986  0.2821
 2915DOPE   C1B34206  24.752  16.062  15.332 -0.3274  0.0055  0.0164
 2915DOPE   D2B34207  25.030  16.306  15.041 -0.1282  0.1169  0.4905
 2915DOPE   C3B34208  25.198  16.179  14.576  0.2476 -0.0727  0.1535
 2915DOPE   C4B34209  25.468  15.799  14.369 -0.0681 -0.1376 -0.0032
 2916DOPE   NH334210  31.458  12.324  17.237  0.0232 -0.1767 -0.1498
 2916DOPE   PO434211  31.458  12.007  17.170 -0.2412  0.0335  0.3121
 2916DOPE   GL134212  31.320  12.104  16.761 -0.1799  0.2183 -0.2313
 2916DOPE   GL234213  31.452  12.277  16.663 -0.1780 -0.1060  0.1691
 2916DOPE   C1A34214  31.122  12.266  16.338  0.0369 -0.0390 -0.0307
 2916DOPE   D2A34215  30.992  12.154  15.950  0.0523  0.1154 -0.1859
 2916DOPE   C3A34216  31.228  12.403  15.680 -0.1085 -0.2271 -0.0038
 2916DOPE   C4A34217  31.560  12.729  15.616 -0.0155 -0.1065  0.0530
 2916DOPE   C1B34218  31.775  12.625  16.650  0.1989 -0.0754  0.1565
 2916DOPE   D2B34219  32.092  12.849  16.828  0.0232 -0.2855 -0.1122
 2916DOPE   C3B34220  32.130  13.307  16.770 -0.2037 -0.0204 -0.1982
 2916DOPE   C4B34221  32.231  13.781  16.877  0.0793  0.0300 -0.0780
 2917DOPE   NH334222  30.534  21.972  16.957  0.2005  0.2257  0.1038
 2917DOPE   PO434223  30.459  21.664  16.863  0.0124 -0.0700  0.1534
 2917DOPE   GL134224  30.518  21.776  16.438  0.1134 -0.0640  0.5216
 2917DOPE   GL234225  30.552  21.541  16.363 -0.0489 -0.2689 -0.0478
 2917DOPE   C1A34226  30.635  21.954  16.040 -0.1773  0.1940 -0.3058
 2917DOPE   D2A34227  30.901  21.812  15.696  0.2092 -0.1729  0.0261
 2917DOPE   C3A34228  30.634  21.811  15.340  0.3039  0.1515 -0.1958
 2917DOPE   C4A34229  30.650  22.070  14.954  0.1296  0.1034  0.1185
 2917DOPE   C1B34230  30.421  21.517  15.977  0.0723  0.0543  0.0499
 2917DOPE   D2B34231  30.253  21.576  15.528  0.1347  0.1934  0.2143
 2917DOPE   C3B34232  29.832  21.451  15.318 -0.1101  0.1454 -0.2154
 2917DOPE   C4B34233  29.760  21.266  14.888  0.0283  0.0241  0.1390
 2918DOPC   NC334234  27.484  18.373  17.063  0.1703  0.1418 -0.3351
 2918DOPC   PO434235  27.126  18.318  17.058  0.0117  0.2438 -0.0363
 2918DOPC   GL134236  26.970  18.357  16.752 -0.2108 -0.0984 -0.1271
 2918DOPC   GL234237  27.082  18.559  16.643  0.1894  0.0816 -0.2347
 2918DOPC   C1A34238  26.845  18.068  16.384  0.0235 -0.0546  0.0010
 2918DOPC   D2A34239  27.002  17.620  16.250 -0.1294  0.2764  0.2488
 2918DOPC   C3A34240  27.100  17.515  15.815  0.0845 -0.0939  0.1178
 2918DOPC   C4A34241  27.070  17.266  15.430 -0.4833 -0.0484  0.0624
 2918DOPC   C1B34242  27.180  18.560  16.171 -0.2390  0.2538  0.0654
 2918DOPC   D2B34243  27.178  18.543  15.752 -0.0960  0.4659  0.2370
 2918DOPC   C3B34244  26.721  18.583  15.675  0.0170  0.1629 -0.2453
 2918DOPC   C4B34245  26.389  18.279  15.517 -0.0413  0.1825  0.4034
 2919DOPC   NC334246  34.321  16.127  17.206 -0.0078  0.1809  0.0300
 2919DOPC   PO434247  34.226  16.179  16.856  0.0079  0.1520 -0.0404
 2919DOPC   GL134248  34.171  15.958  16.421 -0.0444 -0.0683 -0.2508
 2919DOPC   GL234249  33.912  15.787  16.284  0.4346  0.2877 -0.0120
 2919DOPC   C1A34250  34.206  15.889  15.925  0.0086  0.4258  0.4084
 2919DOPC   D2A34251  34.526  15.887  15.618 -0.3451  0.3991 -0.0746
 2919DOPC   C3A34252  34.488  15.540  15.335  0.2413 -0.1469  0.1484
 2919DOPC   C4A34253  34.550  15.136  15.095 -0.1400 -0.0394 -0.2118
 2919DOPC   C1B34254  34.276  15.514  16.326 -0.1908  0.2730  0.0124
 2919DOPC   D2B34255  34.406  15.074  16.344 -0.2066 -0.1690 -0.0344
 2919DOPC   C3B34256  34.755  14.987  16.136 -0.0560 -0.3376 -0.2937
 2919DOPC   C4B34257  34.736  14.648  15.842 -0.1170  0.1308  0.0934
 2920POSM   NC334258  25.695  17.771  16.930  0.0195 -0.1071 -0.1124
 2920POSM   PO434259  25.851  17.645  17.286 -0.0922 -0.1735  0.1063
 2920POSM   AM134260  26.044  17.444  17.152  0.0633  0.0532 -0.0147
 2920POSM   AM234261  26.112  17.525  16.858 -0.2370  0.2217  0.0792
 2920POSM   T1A34262  26.277  17.015  16.984 -0.1509  0.2824  0.0245
 2920POSM   C2A34263  26.548  16.901  16.634  0.0731 -0.1615 -0.1284
 2920POSM   C3A34264  26.828  17.199  16.386 -0.3981 -0.3084 -0.0378
 2920POSM   C1B34265  26.281  17.297  16.607 -0.1115 -0.0213 -0.0167
 2920POSM   D2B34266  26.156  17.044  16.197  0.2372 -0.1899 -0.1651
 2920POSM   C3B34267  25.918  16.673  16.343  0.0469  0.2391  0.1726
 2920POSM   C4B34268  25.604  16.372  16.251  0.1232  0.2012 -0.1496
 2921POSM   NC334269  24.618  21.816  16.684  0.0838  0.3123 -0.5363
 2921POSM   PO434270  24.540  21.427  16.661  0.1426  0.1380 -0.0926
 2921POSM   AM134271  24.664  21.465  16.354  0.2958 -0.1519  0.2410
 2921POSM   AM234272  24.639  21.582  16.092 -0.0066  0.0616 -0.1332
 2921POSM   T1A34273  24.797  21.132  16.012  0.1253 -0.0583 -0.0975
 2921POSM   C2A34274  24.855  20.876  15.618 -0.0395  0.0576  0.0626
 2921POSM   C3A34275  24.670  20.647  15.291  0.3613  0.0951  0.1641
 2921POSM   C1B34276  24.667  21.572  15.790  0.2046  0.0699 -0.1255
 2921POSM   D2B34277  24.796  21.309  15.420 -0.0947  0.0624 -0.0531
 2921POSM   C3B34278  25.045  21.390  15.033  0.2601  0.1097  0.1861
 2921POSM   C4B34279  24.768  21.444  14.620  0.1641 -0.0777  0.1330
 2922DOPE   NH334280  25.241  14.824  16.397 -0.0432  0.0114 -0.3109
 2922DOPE   PO434281  25.370  14.545  16.480  0.1086 -0.0664 -0.4418
 2922DOPE   GL134282  25.543  14.554  16.124 -0.2761  0.1555  0.2033
 2922DOPE   GL234283  25.710  14.787  16.163  0.0257 -0.0952  0.0451
 2922DOPE   C1A34284  25.822  14.426  15.786 -0.3077  0.0441  0.1206
 2922DOPE   D2A34285  26.075  14.365  15.371  0.0490 -0.5978  0.5239
 2922DOPE   C3A34286  26.050  14.643  15.005 -0.1001  0.1551 -0.1083
 2922DOPE   C4A34287  26.184  15.049  14.766 -0.1924 -0.1948 -0.1320
 2922DOPE   C1B34288  25.507  14.844  15.776 -0.1602 -0.0490  0.0722
 2922DOPE   D2B34289  25.601  14.946  15.353 -0.0556  0.2161  0.1627
 2922DOPE   C3B34290  25.581  14.895  14.883 -0.2599 -0.1225  0.1596
 2922DOPE   C4B34291  25.787  14.735  14.509  0.1094  0.0041  0.2782
 2923DOPE   NH334292  23.336  14.928  15.831  0.0310  0.0600  0.1196
 2923DOPE   PO434293  23.620  15.040  15.956 -0.1025 -0.1283 -0.1810
 2923DOPE   GL134294  23.795  15.239  15.634 -0.1293  0.1815 -0.0236
 2923DOPE   GL234295  23.639  15.008  15.463 -0.1924 -0.1255 -0.1844
 2923DOPE   C1A34296  24.193  15.457  15.510  0.0590  0.2452 -0.1182
 2923DOPE   D2A34297  24.603  15.439  15.336  0.0347 -0.0037  0.0752
 2923DOPE   C3A34298  24.882  15.637  15.016 -0.0941 -0.1165  0.0882
 2923DOPE   C4A34299  25.049  15.655  14.579 -0.1812  0.1591 -0.2033
 2923DOPE   C1B34300  23.871  15.313  15.158  0.2784  0.0081 -0.1518
 2923DOPE   D2B34301  23.956  15.442  14.696  0.2337 -0.2370  0.3893
 2923DOPE   C3B34302  24.082  15.382  14.271  0.1617  0.2605  0.2308
 2923DOPE   C4B34303  24.169  15.326  13.836  0.1014 -0.2051  0.0187
 2924DOPE   NH334304  29.392  23.306  17.377  0.4748 -0.0536 -0.0554
 2924DOPE   PO434305  29.226  23.355  17.110 -0.0272 -0.1183  0.1027
 2924DOPE   GL134306  29.101  23.264  16.719  0.0670 -0.0228 -0.0283
 2924DOPE   GL234307  29.039  22.975  16.865 -0.2113  0.1524  0.1386
 2924DOPE   C1A34308  29.160  23.134  16.297 -0.2106 -0.1736 -0.0519
 2924DOPE   D2A34309  29.110  23.341  15.911  0.2872  0.1799 -0.0258
 2924DOPE   C3A34310  28.986  23.788  15.995 -0.0493 -0.2350 -0.1572
 2924DOPE   C4A34311  28.993  24.124  16.294  0.1666 -0.3564 -0.3969
 2924DOPE   C1B34312  28.613  22.909  16.753  0.0328  0.5562  0.3271
 2924DOPE   D2B34313  28.315  22.772  16.379  0.1828 -0.0541 -0.1258
 2924DOPE   C3B34314  28.086  23.105  16.169  0.0217 -0.1245 -0.0950
 2924DOPE   C4B34315  28.079  23.507  16.110 -0.0838 -0.0390  0.2076
 2925DOPC   NC334316  23.979  12.972  15.931  0.1222  0.0841 -0.1054
 2925DOPC   PO434317  23.568  12.987  16.021 -0.1165  0.0650 -0.1469
 2925DOPC   GL134318  23.500  13.055  15.543 -0.1071 -0.0872  0.0995
 2925DOPC   GL234319  23.671  12.732  15.559 -0.1958 -0.0128 -0.0222
 2925DOPC   C1A34320  23.347  12.867  15.133 -0.0681 -0.0608  0.0795
 2925DOPC   D2A34321  23.330  12.717  14.717  0.1169  0.2632  0.2811
 2925DOPC   C3A34322  23.427  12.866  14.305 -0.1297  0.3016 -0.1840
 2925DOPC   C4A34323  23.759  12.831  13.986 -0.1010  0.2505  0.0715
 2925DOPC   C1B34324  23.619  12.452  15.268 -0.1165  0.0564 -0.3724
 2925DOPC   D2B34325  23.792  12.206  14.969  0.1385  0.1462  0.1601
 2925DOPC   C3B34326  23.505  11.778  14.984  0.1535 -0.1724 -0.4146
 2925DOPC   C4B34327  23.209  11.462  14.857  0.0904 -0.1123  0.2634
 2926DOPC   NC334328  23.524  17.521  15.808  0.0988  0.1614 -0.3929
 2926DOPC   PO434329  23.339  17.171  15.733 -0.0689 -0.1204 -0.1299
 2926DOPC   GL134330  23.342  17.302  15.316 -0.0564  0.3963  0.0553
 2926DOPC   GL234331  23.416  17.554  15.317 -0.1560 -0.3933  0.0321
 2926DOPC   C1A34332  23.593  17.270  14.946 -0.1192  0.1260 -0.2852
 2926DOPC   D2A34333  24.054  17.182  14.829  0.0812  0.2573  0.1848
 2926DOPC   C3A34334  24.029  17.425  14.460  0.0425 -0.2509 -0.3369
 2926DOPC   C4A34335  24.022  17.766  14.142  0.3762 -0.1172  0.1115
 2926DOPC   C1B34336  23.463  17.772  14.909  0.3479 -0.1117 -0.1082
 2926DOPC   D2B34337  23.583  17.838  14.480 -0.0381  0.0372 -0.1445
 2926DOPC   C3B34338  23.522  17.598  14.071 -0.1395  0.0191  0.0764
 2926DOPC   C4B34339  23.602  17.162  13.850 -0.1576 -0.3136 -0.1653
 2927POSM   NC334340  28.123  13.870  16.353 -0.2319  0.1424  0.0215
 2927POSM   PO434341  27.843  14.140  16.441  0.1542 -0.1404  0.4664
 2927POSM   AM134342  27.778  14.122  16.138  0.0485  0.2478 -0.0581
 2927POSM   AM234343  27.885  13.904  15.932 -0.0129 -0.1353 -0.2898
 2927POSM   T1A34344  27.567  14.166  15.671 -0.0125  0.2700  0.0759
 2927POSM   C2A34345  27.782  14.153  15.297 -0.1987  0.0693  0.4778
 2927POSM   C3A34346  28.035  14.055  14.899 -0.0093 -0.1320 -0.1290
 2927POSM   C1B34347  28.002  13.860  15.597 -0.2098 -0.0465 -0.1882
 2927POSM   D2B34348  28.011  13.654  15.146  0.1589  0.0900 -0.1692
 2927POSM   C3B34349  27.858  13.643  14.729  0.2210 -0.1409  0.3678
 2927POSM   C4B34350  27.874  13.495  14.307 -0.0699  0.0106 -0.2917
 2928DOPC   NC334351  25.387  22.845  17.170 -0.0415 -0.2342 -0.2580
 2928DOPC   PO434352  25.367  22.495  17.049 -0.3675 -0.1157 -0.0862
 2928DOPC   GL134353  25.370  22.722  16.685 -0.3413 -0.0553 -0.2250
 2928DOPC   GL234354  25.291  22.503  16.568 -0.0244 -0.0084  0.0894
 2928DOPC   C1A34355  25.582  22.843  16.245  0.0266  0.1421 -0.0886
 2928DOPC   D2A34356  25.576  22.528  15.862 -0.1173  0.2005  0.1710
 2928DOPC   C3A34357  25.647  22.736  15.470  0.0485  0.2582  0.0805
 2928DOPC   C4A34358  25.894  23.014  15.174 -0.0872  0.0642  0.0981
 2928DOPC   C1B34359  25.626  22.279  16.280  0.1321  0.0262  0.1547
 2928DOPC   D2B34360  26.047  22.095  16.156  0.0594 -0.0324 -0.2745
 2928DOPC   C3B34361  26.190  21.696  15.970  0.0920 -0.3190 -0.2734
 2928DOPC   C4B34362  26.173  21.214  15.977 -0.0266  0.3461 -0.0161
 2929DOPE   NH334363  31.372  13.455  17.188 -0.1159 -0.0312  0.0985
 2929DOPE   PO434364  31.194  13.742  17.161  0.2619 -0.0158 -0.1155
 2929DOPE   GL134365  30.953  13.428  17.030 -0.1665  0.1255  0.1959
 2929DOPE   GL234366  30.883  13.596  16.787 -0.1702 -0.0137 -0.0676
 2929DOPE   C1A34367  30.821  13.135  16.654  0.0543  0.1246 -0.0802
 2929DOPE   D2A34368  30.946  13.171  16.185 -0.0627  0.2456 -0.2418
 2929DOPE   C3A34369  31.335  12.958  15.983 -0.0602 -0.0720 -0.1673
 2929DOPE   C4A34370  31.571  12.600  16.196 -0.2099  0.1720 -0.1575
 2929DOPE   C1B34371  31.232  13.444  16.553 -0.0535  0.1984  0.1432
 2929DOPE   D2B34372  31.384  13.505  16.163 -0.1991  0.1651  0.1555
 2929DOPE   C3B34373  31.222  13.388  15.777 -0.0386  0.1820 -0.1418
 2929DOPE   C4B34374  31.021  13.142  15.428 -0.2900  0.2068  0.0530
 2930DOPC   NC334375  25.375  18.553  17.061  0.0426  0.0289 -0.0095
 2930DOPC   PO434376  25.079  18.539  16.820  0.0247  0.1307  0.4751
 2930DOPC   GL134377  25.278  18.386  16.500 -0.0053 -0.1547 -0.0695
 2930DOPC   GL234378  25.286  18.669  16.344  0.3570 -0.0608  0.0127
 2930DOPC   C1A34379  25.056  18.231  16.127  0.2263  0.3766  0.0784
 2930DOPC   D2A34380  24.606  18.111  16.022 -0.1264 -0.2027 -0.0372
 2930DOPC   C3A34381  24.574  18.184  15.555 -0.2378  0.1633  0.2575
 2930DOPC   C4A34382  24.439  18.148  15.102  0.2600  0.0355 -0.3035
 2930DOPC   C1B34383  25.694  18.896  16.224  0.1738 -0.0930 -0.0675
 2930DOPC   D2B34384  25.801  18.918  15.747  0.1502  0.0217 -0.1869
 2930DOPC   C3B34385  25.570  19.263  15.439  0.2163 -0.1223 -0.1040
 2930DOPC   C4B34386  25.505  19.574  15.070 -0.2018 -0.3451 -0.1859
 2931DOPE   NH334387  23.197  19.712  15.795 -0.0255  0.0736  0.0546
 2931DOPE   PO434388  23.040  19.934  15.923 -0.1501  0.2159  0.3494
 2931DOPE   GL134389  23.203  20.171  15.602  0.0688  0.0056 -0.0330
 2931DOPE   GL234390  23.174  20.436  15.372  0.2062 -0.0653  0.1918
 2931DOPE   C1A34391  23.359  20.000  15.217  0.2018  0.2631  0.1060
 2931DOPE   D2A34392  23.430  19.721  14.831  0.4603 -0.0203  0.4604
 2931DOPE   C3A34393  23.788  19.794  14.542 -0.3435  0.0725  0.3457
 2931DOPE   C4A34394  24.094  19.912  14.209  0.1065  0.0777  0.2161
 2931DOPE   C1B34395  23.459  20.525  15.019  0.0412 -0.1829  0.2108
 2931DOPE   D2B34396  23.797  20.775  15.040 -0.2210  0.3967 -0.1406
 2931DOPE   C3B34397  23.733  21.255  14.997  0.4256 -0.0919  0.1101
 2931DOPE   C4B34398  23.500  21.597  14.792  0.0335 -0.1760  0.2286
 2932DOPE   NH334399  32.483  12.646  17.411  0.4135 -0.2498 -0.1720
 2932DOPE   PO434400  32.514  12.629  17.106  0.3382 -0.0286  0.2547
 2932DOPE   GL134401  32.430  12.311  16.824  0.0054  0.3322  0.0383
 2932DOPE   GL234402  32.330  12.384  16.566 -0.1872 -0.0191 -0.1861
 2932DOPE   C1A34403  32.678  11.957  16.588 -0.1651  0.1504 -0.1130
 2932DOPE   D2A34404  32.873  11.798  16.212  0.0289  0.3454  0.1578
 2932DOPE   C3A34405  32.687  12.026  15.905 -0.0647  0.2602 -0.2563
 2932DOPE   C4A34406  32.419  12.400  15.958 -0.3946  0.0370 -0.3466
 2932DOPE   C1B34407  32.305  12.020  16.227 -0.0369 -0.0193  0.0588
 2932DOPE   D2B34408  32.237  11.884  15.804 -0.3084 -0.0274 -0.2723
 2932DOPE   C3B34409  32.310  12.151  15.432  0.1265  0.0366  0.3007
 2932DOPE   C4B34410  32.570  12.383  15.178 -0.1064  0.0721 -0.1409
 2933DOPC   NC334411  26.259  14.638  16.614 -0.1229  0.0766  0.0012
 2933DOPC   PO434412  26.502  14.661  16.306  0.0273 -0.3954  0.1728
 2933DOPC   GL134413  26.576  14.502  15.928  0.2518 -0.4947 -0.1506
 2933DOPC   GL234414  26.450  14.722  15.753  0.0610 -0.0017  0.0340
 2933DOPC   C1A34415  26.458  14.180  15.586  0.2777  0.1379  0.6763
 2933DOPC   D2A34416  26.367  13.910  15.266  0.0781  0.0725  0.0161
 2933DOPC   C3A34417  26.259  14.145  14.854 -0.2675 -0.1268 -0.4243
 2933DOPC   C4A34418  26.058  14.216  14.435 -0.0305  0.0033 -0.0802
 2933DOPC   C1B34419  26.426  14.892  15.316  0.1352 -0.0139  0.1312
 2933DOPC   D2B34420  26.188  15.266  15.202 -0.0788 -0.0456  0.1163
 2933DOPC   C3B34421  25.767  15.303  15.052  0.1741  0.0337  0.0641
 2933DOPC   C4B34422  25.400  15.489  14.891 -0.0194  0.2306  0.3495
 2934DOPC   NC334423  27.043  15.902  16.433 -0.0740  0.0552  0.1314
 2934DOPC   PO434424  27.323  15.772  16.209  0.0437 -0.3919  0.1884
 2934DOPC   GL134425  27.260  15.918  15.926  0.1605  0.1937 -0.1226
 2934DOPC   GL234426  27.015  15.859  15.800 -0.2488 -0.1066  0.3031
 2934DOPC   C1A34427  27.500  15.889  15.492 -0.2032 -0.1101  0.0311
 2934DOPC   D2A34428  27.709  15.710  15.122 -0.1181 -0.0262 -0.1604
 2934DOPC   C3A34429  27.844  15.962  14.772  0.0091  0.0806 -0.2519
 2934DOPC   C4A34430  27.823  16.343  14.493 -0.0859 -0.0917  0.0366
 2934DOPC   C1B34431  26.757  15.876  15.390 -0.1093  0.2902 -0.1524
 2934DOPC   D2B34432  26.838  15.872  14.938  0.1722  0.1786 -0.3381
 2934DOPC   C3B34433  27.245  15.889  14.731 -0.1393  0.0535  0.0205
 2934DOPC   C4B34434  27.493  15.904  14.369  0.0402  0.2639 -0.1024
 2935DOPC   NC334435  33.678  20.451  16.897  0.2968 -0.1317  0.2343
 2935DOPC   PO434436  34.056  20.304  16.932 -0.0022  0.1910 -0.2127
 2935DOPC   GL134437  34.073  20.217  16.551  0.1579  0.0483  0.1711
 2935DOPC   GL234438  34.370  20.284  16.507  0.0619 -0.0324  0.1775
 2935DOPC   C1A34439  34.182  20.080  16.132 -0.0048 -0.2295  0.0549
 2935DOPC   D2A34440  34.393  19.897  15.791 -0.0198 -0.1481  0.1214
 2935DOPC   C3A34441  34.105  19.730  15.415 -0.2543 -0.2444  0.0382
 2935DOPC   C4A34442  33.885  19.893  15.051  0.1163  0.0030 -0.2656
 2935DOPC   C1B34443  34.501  20.485  16.120  0.1131  0.3085  0.1959
 2935DOPC   D2B34444  34.544  20.445  15.693 -0.0086 -0.2519 -0.0779
 2935DOPC   C3B34445  34.887  20.292  15.438 -0.2597  0.3413 -0.0661
 2935DOPC   C4B34446  35.365  20.332  15.323  0.0078  0.2754 -0.2866
 2936DOPC   NC334447  22.902  13.155  16.038 -0.0413  0.4910 -0.1673
 2936DOPC   PO434448  22.545  12.950  15.994 -0.1882 -0.1123  0.1945
 2936DOPC   GL134449  22.590  12.787  15.651  0.2117 -0.0961 -0.0025
 2936DOPC   GL234450  22.325  12.857  15.521  0.4077 -0.0440 -0.1642
 2936DOPC   C1A34451  22.820  12.897  15.272 -0.0480  0.3266 -0.4681
 2936DOPC   D2A34452  22.883  12.941  14.865  0.1248 -0.1240  0.2225
 2936DOPC   C3A34453  22.693  12.882  14.424 -0.0870  0.1173  0.5140
 2936DOPC   C4A34454  22.898  12.843  14.019  0.2289 -0.1319 -0.1016
 2936DOPC   C1B34455  22.111  12.781  15.082  0.1390 -0.2035  0.0114
 2936DOPC   D2B34456  22.322  12.679  14.681 -0.0178 -0.0303  0.0405
 2936DOPC   C3B34457  22.307  12.236  14.671 -0.0920 -0.0614  0.0970
 2936DOPC   C4B34458  22.419  11.905  14.324 -0.0615 -0.0133 -0.1689
 2937DOPC   NC334459  28.163  15.380  16.356 -0.0167  0.2667  0.3076
 2937DOPC   PO434460  28.306  15.764  16.473  0.0026  0.4190  0.2495
 2937DOPC   GL134461  28.608  15.664  16.230 -0.0421  0.2613 -0.0508
 2937DOPC   GL234462  28.651  15.422  16.265 -0.0481  0.1299 -0.0721
 2937DOPC   C1A34463  28.720  15.646  15.777  0.1846 -0.0605  0.0780
 2937DOPC   D2A34464  29.002  15.326  15.640 -0.0011  0.3845 -0.1187
 2937DOPC   C3A34465  29.293  15.371  15.259 -0.0220  0.2085 -0.2199
 2937DOPC   C4A34466  29.505  15.319  14.847 -0.3024 -0.0358 -0.0785
 2937DOPC   C1B34467  28.581  15.126  15.880  0.0833  0.2976 -0.1447
 2937DOPC   D2B34468  28.587  14.766  15.617  0.1483  0.2277  0.1837
 2937DOPC   C3B34469  28.816  14.962  15.265  0.1404 -0.2836  0.0266
 2937DOPC   C4B34470  29.066  15.108  14.922  0.0997  0.1349  0.0672
 2938DOPE   NH334471  32.468  18.020  16.737 -0.0040  0.1283 -0.1228
 2938DOPE   PO434472  32.795  18.067  16.750  0.0798  0.0204 -0.0103
 2938DOPE   GL134473  32.839  17.976  16.328 -0.5638 -0.0054  0.2758
 2938DOPE   GL234474  32.650  18.193  16.235  0.1486 -0.0669  0.2531
 2938DOPE   C1A34475  33.176  18.206  16.069 -0.0804 -0.0874 -0.0790
 2938DOPE   D2A34476  33.293  18.587  15.812 -0.1627  0.0644 -0.0621
 2938DOPE   C3A34477  33.420  18.544  15.382  0.0661 -0.1932 -0.4419
 2938DOPE   C4A34478  33.562  18.358  15.039 -0.0383 -0.0500 -0.2854
 2938DOPE   C1B34479  32.732  18.384  15.822 -0.0158  0.1196 -0.2697
 2938DOPE   D2B34480  32.634  18.235  15.380  0.5029  0.0709 -0.0897
 2938DOPE   C3B34481  32.188  18.038  15.301  0.2402  0.0084  0.0078
 2938DOPE   C4B34482  31.788  18.039  15.581 -0.0393  0.2587  0.0172
 2939DOPE   NH334483  32.091  18.769  16.691  0.2444 -0.3574 -0.4719
 2939DOPE   PO434484  31.737  18.845  16.662 -0.4320  0.0742 -0.0607
 2939DOPE   GL134485  31.831  18.704  16.321  0.1144 -0.0707 -0.0432
 2939DOPE   GL234486  32.007  18.924  16.248 -0.2529  0.0741  0.0852
 2939DOPE   C1A34487  31.878  18.488  15.929  0.3050 -0.0071 -0.2198
 2939DOPE   D2A34488  31.635  18.474  15.515 -0.1526  0.1400  0.1813
 2939DOPE   C3A34489  31.902  18.476  15.116  0.1966  0.2498  0.2866
 2939DOPE   C4A34490  31.826  18.512  14.689 -0.1389 -0.0722  0.0447
 2939DOPE   C1B34491  31.645  18.967  16.009  0.2102  0.2879 -0.0299
 2939DOPE   D2B34492  31.163  18.892  15.791  0.0694 -0.3545  0.2790
 2939DOPE   C3B34493  31.155  18.764  15.362  0.0751  0.0061 -0.3609
 2939DOPE   C4B34494  30.973  18.760  14.964  0.3481  0.1971  0.1200
 2940POSM   NC334495  27.718  20.248  16.957 -0.1502 -0.1600 -0.0134
 2940POSM   PO434496  28.051  20.095  17.144  0.3961 -0.3805  0.0057
 2940POSM   AM134497  28.028  19.877  16.895  0.1412  0.0042 -0.1720
 2940POSM   AM234498  27.893  19.680  16.737 -0.1821 -0.3131  0.1080
 2940POSM   T1A34499  28.304  19.446  16.795  0.1317 -0.0822  0.2286
 2940POSM   C2A34500  28.750  19.287  16.609  0.2029  0.2729 -0.0612
 2940POSM   C3A34501  29.123  19.472  16.335  0.0673 -0.1441 -0.0600
 2940POSM   C1B34502  27.995  19.560  16.413 -0.5002 -0.0383 -0.0373
 2940POSM   D2B34503  28.345  19.441  16.155 -0.0147  0.1091  0.0144
 2940POSM   C3B34504  28.241  19.377  15.765  0.0497  0.0310 -0.0653
 2940POSM   C4B34505  28.081  19.220  15.384 -0.2038  0.1434  0.0075
 2941DOPC   NC334506  30.147  12.328  17.171  0.5118 -0.0802 -0.3439
 2941DOPC   PO434507  30.556  12.341  17.174  0.0542 -0.2465 -0.3180
 2941DOPC   GL134508  30.733  12.198  16.763 -0.0609 -0.0120 -0.0465
 2941DOPC   GL234509  30.632  11.940  16.895 -0.1128  0.1173 -0.0306
 2941DOPC   C1A34510  30.589  12.141  16.349  0.1592 -0.1309 -0.0090
 2941DOPC   D2A34511  30.417  12.208  15.892  0.2330  0.0111  0.4562
 2941DOPC   C3A34512  30.305  12.105  15.478 -0.3178  0.3811  0.3931
 2941DOPC   C4A34513  29.900  11.942  15.376  0.1760  0.2226 -0.0196
 2941DOPC   C1B34514  30.505  11.682  16.529 -0.0958 -0.0482 -0.1872
 2941DOPC   D2B34515  30.151  11.524  16.371 -0.0634  0.0193  0.0291
 2941DOPC   C3B34516  30.274  11.712  15.941 -0.0310  0.1810  0.0282
 2941DOPC   C4B34517  30.421  11.594  15.537  0.0504  0.1054 -0.0229
 2942POSM   NC334518  26.816  13.073  16.873 -0.2553 -0.0432 -0.0457
 2942POSM   PO434519  26.443  13.203  16.774  0.2159  0.0375 -0.0587
 2942POSM   AM134520  26.578  13.078  16.488  0.2385  0.1780 -0.4015
 2942POSM   AM234521  26.400  13.066  16.277  0.2279  0.0104  0.0582
 2942POSM   T1A34522  26.814  13.191  16.066 -0.2013  0.2075 -0.0947
 2942POSM   C2A34523  26.893  13.364  15.655  0.1164 -0.2463  0.0869
 2942POSM   C3A34524  27.042  13.675  15.470 -0.1132  0.1525 -0.0483
 2942POSM   C1B34525  26.294  12.850  16.034  0.0222 -0.2366  0.0203
 2942POSM   D2B34526  26.346  12.563  15.650  0.2317 -0.0305  0.1287
 2942POSM   C3B34527  26.516  12.561  15.157 -0.0870  0.2660  0.1770
 2942POSM   C4B34528  26.653  12.404  14.728 -0.1210 -0.2210 -0.2729
 2943POSM   NC334529  23.497  22.216  16.561 -0.0691 -0.1850 -0.1459
 2943POSM   PO434530  23.806  22.028  16.379  0.1820 -0.0838 -0.2051
 2943POSM   AM134531  23.859  22.261  16.085 -0.0369  0.0301  0.2450
 2943POSM   AM234532  23.861  22.315  15.797 -0.0941  0.2499 -0.1728
 2943POSM   T1A34533  24.054  22.744  15.925  0.1319  0.0372 -0.0369
 2943POSM   C2A34534  23.898  22.995  15.512 -0.0224 -0.2775 -0.1120
 2943POSM   C3A34535  23.595  23.198  15.228 -0.0156  0.0104  0.2660
 2943POSM   C1B34536  23.864  22.420  15.482  0.0057 -0.0610  0.0937
 2943POSM   D2B34537  23.565  22.697  15.254 -0.2540 -0.3645  0.3294
 2943POSM   C3B34538  23.473  22.736  15.661  0.0054 -0.0230 -0.0888
 2943POSM   C4B34539  23.587  22.618  16.102  0.2060  0.0820  0.1975
 2944DOPS   CNO34540  28.503  18.809  17.459  0.0427  0.1143 -0.2484
 2944DOPS   PO434541  28.398  18.598  17.166 -0.0270 -0.1299  0.0476
 2944DOPS   GL134542  28.289  18.622  16.788  0.0950  0.2501 -0.1718
 2944DOPS   GL234543  28.429  18.380  16.698 -0.0569  0.4194 -0.0166
 2944DOPS   C1A34544  28.141  18.653  16.354  0.2295 -0.0931 -0.1307
 2944DOPS   D2A34545  28.082  18.537  15.930  0.0239  0.2889  0.0793
 2944DOPS   C3A34546  28.056  18.069  15.954 -0.2868  0.1212  0.2467
 2944DOPS   C4A34547  28.107  17.690  16.214  0.3315 -0.2428  0.0301
 2944DOPS   C1B34548  28.073  18.169  16.489 -0.2533 -0.2122  0.1182
 2944DOPS   D2B34549  27.692  18.129  16.231  0.0248  0.0214  0.0295
 2944DOPS   C3B34550  27.591  18.424  15.899 -0.2058  0.2425  0.0639
 2944DOPS   C4B34551  27.557  18.447  15.415 -0.0375 -0.1489 -0.3559
 2945DOPC   NC334552  26.233  19.039  17.352  0.0608  0.2236  0.1553
 2945DOPC   PO434553  26.274  19.401  17.293 -0.2058  0.2546 -0.1499
 2945DOPC   GL134554  26.063  19.366  16.995  0.2373  0.0773  0.1471
 2945DOPC   GL234555  26.257  19.163  16.817 -0.1858 -0.1554  0.3856
 2945DOPC   C1A34556  26.136  19.625  16.608  0.3412  0.0699 -0.0648
 2945DOPC   D2A34557  25.986  20.011  16.371  0.0902 -0.1616  0.1459
 2945DOPC   C3A34558  25.787  19.806  16.034  0.2751  0.0641 -0.0204
 2945DOPC   C4A34559  25.492  19.537  15.792 -0.1655 -0.0031 -0.1068
 2945DOPC   C1B34560  26.141  18.868  16.464  0.2152 -0.7025  0.2033
 2945DOPC   D2B34561  26.259  18.763  16.064  0.0500 -0.2384  0.3544
 2945DOPC   C3B34562  26.366  19.104  15.795  0.0676 -0.1521 -0.1610
 2945DOPC   C4B34563  26.400  19.441  15.473 -0.1863 -0.2687 -0.1775
 2946DOPE   NH334564  26.926  18.811  17.067  0.0008 -0.0228  0.2702
 2946DOPE   PO434565  26.623  18.930  17.096 -0.1450  0.3360 -0.1224
 2946DOPE   GL134566  26.726  19.116  16.732 -0.3791  0.0292 -0.2078
 2946DOPE   GL234567  26.980  19.161  16.706 -0.1658 -0.0729  0.0438
 2946DOPE   C1A34568  26.482  19.349  16.425 -0.0770  0.2591  0.1699
 2946DOPE   D2A34569  26.441  19.562  16.045 -0.1251 -0.1330 -0.0101
 2946DOPE   C3A34570  26.361  19.989  16.025 -0.0142 -0.1063  0.1992
 2946DOPE   C4A34571  25.996  20.196  15.818 -0.1021 -0.0234 -0.0997
 2946DOPE   C1B34572  27.126  19.131  16.258  0.1519 -0.0928  0.1970
 2946DOPE   D2B34573  27.298  19.066  15.829 -0.0539 -0.0942 -0.2363
 2946DOPE   C3B34574  27.651  18.854  15.622  0.1904 -0.0176  0.1807
 2946DOPE   C4B34575  27.924  18.779  15.285 -0.1960 -0.0235  0.0891
 2947DOPE   NH334576  27.495  13.653  16.478 -0.3326  0.0957 -0.0526
 2947DOPE   PO434577  27.775  13.502  16.410 -0.1728  0.0147  0.2630
 2947DOPE   GL134578  27.962  13.498  16.073 -0.1282  0.1762 -0.2611
 2947DOPE   GL234579  28.202  13.510  16.030 -0.1373  0.2291  0.1204
 2947DOPE   C1A34580  27.914  13.351  15.592  0.0726 -0.0538  0.1374
 2947DOPE   D2A34581  27.774  13.196  15.165  0.3963 -0.0262 -0.2306
 2947DOPE   C3A34582  27.384  13.401  15.026  0.0522  0.1091  0.0286
 2947DOPE   C4A34583  27.349  13.585  14.608 -0.2367  0.0417 -0.2910
 2947DOPE   C1B34584  28.439  13.317  15.690 -0.0403 -0.0846  0.0650
 2947DOPE   D2B34585  28.632  12.996  15.413  0.3682  0.0272  0.2909
 2947DOPE   C3B34586  28.522  13.291  15.015  0.1981  0.0498 -0.2316
 2947DOPE   C4B34587  28.276  13.363  14.626 -0.1696 -0.3261 -0.0906
 2948DOPC   NC334588  28.773  15.808  16.634  0.1467 -0.0532 -0.0155
 2948DOPC   PO434589  29.065  15.615  16.773 -0.3078 -0.4964  0.2122
 2948DOPC   GL134590  29.116  15.493  16.504 -0.0569 -0.4345 -0.0972
 2948DOPC   GL234591  29.098  15.568  16.202 -0.2985  0.0809  0.0008
 2948DOPC   C1A34592  29.094  15.097  16.182 -0.1217  0.0838 -0.2573
 2948DOPC   D2A34593  29.042  14.863  15.828 -0.3751 -0.0548 -0.1023
 2948DOPC   C3A34594  29.280  14.898  15.445  0.0536 -0.0075  0.2379
 2948DOPC   C4A34595  29.530  14.831  15.050  0.1374  0.2732  0.1648
 2948DOPC   C1B34596  29.207  15.708  15.787 -0.0847 -0.1193 -0.2295
 2948DOPC   D2B34597  29.203  15.814  15.339  0.2778  0.0616  0.0730
 2948DOPC   C3B34598  29.063  16.229  15.188 -0.0926  0.0387 -0.1443
 2948DOPC   C4B34599  29.031  16.619  14.998  0.0257  0.2220 -0.0504
 2949POSM   NC334600  30.790  20.316  16.698 -0.5255  0.1488 -0.2638
 2949POSM   PO434601  31.085  20.157  16.483  0.2788  0.0727  0.0796
 2949POSM   AM134602  30.998  20.217  16.171  0.4593 -0.0698 -0.1680
 2949POSM   AM234603  31.179  20.274  15.950 -0.1209 -0.1082  0.1942
 2949POSM   T1A34604  30.762  20.261  15.722 -0.0888  0.0692 -0.0579
 2949POSM   C2A34605  30.551  20.365  15.317  0.0468  0.0699 -0.0391
 2949POSM   C3A34606  30.223  20.575  15.027 -0.1980  0.0798  0.1309
 2949POSM   C1B34607  31.218  20.254  15.646  0.0969  0.0592 -0.0335
 2949POSM   D2B34608  30.955  20.061  15.326  0.4565  0.0426 -0.2306
 2949POSM   C3B34609  31.127  20.228  14.895 -0.0943  0.0979  0.1196
 2949POSM   C4B34610  31.430  20.140  14.576 -0.0949 -0.3836 -0.3197
 2950POSM   NC334611  25.381  22.052  16.712 -0.0688 -0.2262  0.0035
 2950POSM   PO434612  25.031  21.971  16.471  0.0984 -0.2982  0.0334
 2950POSM   AM134613  25.173  21.836  16.189 -0.3583 -0.0717 -0.0435
 2950POSM   AM234614  25.132  21.673  15.954 -0.2171  0.2798  0.4446
 2950POSM   T1A34615  25.478  22.023  15.843 -0.1175  0.2014 -0.0690
 2950POSM   C2A34616  25.719  22.110  15.449 -0.2121 -0.0007 -0.1034
 2950POSM   C3A34617  25.953  22.417  15.226  0.1943 -0.0851  0.0768
 2950POSM   C1B34618  25.253  21.399  15.839 -0.1037 -0.5756  0.0482
 2950POSM   D2B34619  25.286  21.091  15.448  0.2608  0.1773  0.2218
 2950POSM   C3B34620  25.129  20.747  15.143 -0.0021  0.1188 -0.2040
 2950POSM   C4B34621  25.402  20.470  14.886 -0.2332  0.3033 -0.2962
 2951DOPC   NC334622  32.127  21.931  16.825  0.1122 -0.1691 -0.2433
 2951DOPC   PO434623  32.059  21.605  16.706  0.2720  0.0425 -0.3192
 2951DOPC   GL134624  32.072  21.577  16.349  0.0045 -0.2555  0.4470
 2951DOPC   GL234625  31.993  21.839  16.268 -0.0273  0.0581 -0.1544
 2951DOPC   C1A34626  32.213  21.299  15.958  0.1665 -0.1471  0.0304
 2951DOPC   D2A34627  32.197  21.199  15.537  0.2565  0.1734 -0.1641
 2951DOPC   C3A34628  32.348  21.583  15.281  0.1149  0.0886 -0.3036
 2951DOPC   C4A34629  32.270  21.961  15.166 -0.0320  0.3093 -0.2572
 2951DOPC   C1B34630  32.071  22.137  15.958  0.0703  0.0754 -0.1134
 2951DOPC   D2B34631  31.979  22.281  15.533  0.1311  0.3107 -0.1828
 2951DOPC   C3B34632  31.657  22.059  15.352  0.2134  0.0232  0.1412
 2951DOPC   C4B34633  31.231  21.935  15.314 -0.0542  0.4701  0.0217
 2952DOPS   CNO34634  27.193  17.596  17.262  0.0390 -0.2071  0.2707
 2952DOPS   PO434635  27.412  17.831  17.058 -0.3856 -0.0031 -0.0885
 2952DOPS   GL134636  27.485  18.036  16.674 -0.1570 -0.1011  0.2098
 2952DOPS   GL234637  27.250  17.910  16.560 -0.0836  0.0717 -0.1031
 2952DOPS   C1A34638  27.626  18.509  16.594 -0.3140  0.0059 -0.0639
 2952DOPS   D2A34639  27.593  18.826  16.234  0.0465  0.1545  0.2377
 2952DOPS   C3A34640  27.964  19.005  15.954 -0.2099  0.0634 -0.0145
 2952DOPS   C4A34641  28.392  18.920  16.007 -0.2265 -0.1519  0.2130
 2952DOPS   C1B34642  27.248  18.024  16.092  0.3803 -0.0790  0.1331
 2952DOPS   D2B34643  26.883  18.128  15.829  0.0957 -0.0133 -0.1172
 2952DOPS   C3B34644  26.500  18.279  16.005 -0.1322  0.0021 -0.1294
 2952DOPS   C4B34645  26.079  18.288  15.902 -0.1198  0.1110 -0.1979
 2953DOPE   NH334646  33.788  16.197  16.560  0.0258  0.1150 -0.1004
 2953DOPE   PO434647  33.478  16.304  16.582 -0.1307 -0.4852 -0.2728
 2953DOPE   GL134648  33.476  16.270  16.211  0.2295  0.5009 -0.5594
 2953DOPE   GL234649  33.517  16.511  16.013  0.0779 -0.0890  0.0750
 2953DOPE   C1A34650  33.166  16.174  15.910 -0.1757 -0.1020 -0.0359
 2953DOPE   D2A34651  33.132  16.125  15.421  0.1119  0.1553 -0.2018
 2953DOPE   C3A34652  33.346  16.470  15.158  0.2927 -0.0242  0.2075
 2953DOPE   C4A34653  33.492  16.910  15.115  0.0417  0.0377 -0.1890
 2953DOPE   C1B34654  33.228  16.540  15.612 -0.2488  0.0370  0.0471
 2953DOPE   D2B34655  32.781  16.578  15.419  0.0309 -0.0064  0.0748
 2953DOPE   C3B34656  32.612  16.826  15.040  0.3479  0.0220  0.0684
 2953DOPE   C4B34657  32.179  17.088  14.890 -0.1310  0.2939 -0.2172
 2954DOPS   CNO34658  28.360  20.493  17.192  0.2486  0.1262  0.0356
 2954DOPS   PO434659  28.046  20.563  17.008  0.0086 -0.2663  0.0960
 2954DOPS   GL134660  27.975  20.381  16.585 -0.2353 -0.2269  0.1836
 2954DOPS   GL234661  28.180  20.137  16.575 -0.2304  0.3926  0.0634
 2954DOPS   C1A34662  28.115  20.519  16.164 -0.0672  0.2534  0.3153
 2954DOPS   D2A34663  28.086  20.580  15.684  0.2594 -0.2848 -0.4010
 2954DOPS   C3A34664  28.493  20.481  15.444  0.1847  0.2268 -0.1265
 2954DOPS   C4A34665  28.639  20.495  15.003  0.3439 -0.1301  0.0559
 2954DOPS   C1B34666  28.287  19.951  16.163  0.1920  0.0485 -0.1960
 2954DOPS   D2B34667  28.131  20.084  15.697  0.1082  0.1026 -0.2811
 2954DOPS   C3B34668  28.137  19.731  15.341 -0.2135  0.0167  0.3107
 2954DOPS   C4B34669  28.486  19.523  15.020 -0.0466 -0.2286 -0.2264
 2955DOPS   CNO34670  24.681  13.653  16.513 -0.1655  0.2269  0.1730
 2955DOPS   PO434671  24.902  13.344  16.399  0.2974 -0.0935  0.1751
 2955DOPS   GL134672  25.118  13.231  16.046 -0.2859 -0.0934 -0.2153
 2955DOPS   GL234673  25.061  13.389  15.809 -0.2454 -0.0015  0.1164
 2955DOPS   C1A34674  25.291  12.831  15.817 -0.0183  0.0126 -0.2367
 2955DOPS   D2A34675  25.099  12.621  15.435 -0.0355 -0.0266  0.0403
 2955DOPS   C3A34676  25.182  12.905  15.093  0.2647 -0.0419 -0.0433
 2955DOPS   C4A34677  25.499  13.084  14.852 -0.0025  0.0636  0.0691
 2955DOPS   C1B34678  25.395  13.178  15.553  0.0718  0.1458  0.1100
 2955DOPS   D2B34679  25.618  12.920  15.374  0.5438 -0.0362  0.3520
 2955DOPS   C3B34680  26.025  12.863  15.300  0.2252 -0.3487  0.2005
 2955DOPS   C4B34681  26.169  12.735  14.876  0.1771  0.1659 -0.0410
 2956POSM   NC334682  24.180  18.651  16.798 -0.1225  0.1007 -0.0123
 2956POSM   PO434683  24.415  18.923  16.628 -0.1122  0.0605  0.1702
 2956POSM   AM134684  24.444  19.030  16.336 -0.2953 -0.1225 -0.1184
 2956POSM   AM234685  24.289  19.117  16.119  0.0750 -0.3622  0.0508
 2956POSM   T1A34686  24.764  19.011  15.922 -0.0050  0.0768 -0.0568
 2956POSM   C2A34687  24.856  19.064  15.464  0.1068  0.0977  0.0741
 2956POSM   C3A34688  25.107  19.329  15.199  0.0989 -0.1426  0.0414
 2956POSM   C1B34689  24.313  19.168  15.772 -0.3113  0.0987 -0.0469
 2956POSM   D2B34690  24.434  19.186  15.298  0.0560 -0.0498  0.0002
 2956POSM   C3B34691  24.116  19.119  14.939  0.0819  0.2044 -0.4998
 2956POSM   C4B34692  24.126  19.298  14.506 -0.0176  0.0265 -0.0399
 2957POSM   NC334693  31.829  17.902  16.563  0.0544  0.2604 -0.3613
 2957POSM   PO434694  31.827  18.268  16.720  0.1582 -0.1494 -0.1272
 2957POSM   AM134695  31.767  18.305  16.382  0.4585 -0.3798 -0.1066
 2957POSM   AM234696  31.677  18.125  16.123 -0.0063 -0.2243  0.1839
 2957POSM   T1A34697  31.394  18.517  16.217  0.1562 -0.1398 -0.3014
 2957POSM   C2A34698  31.071  18.433  15.907  0.2996 -0.0865  0.1219
 2957POSM   C3A34699  30.993  18.286  15.487 -0.0898 -0.0647  0.1919
 2957POSM   C1B34700  31.416  18.042  15.950 -0.0769  0.0457  0.2518
 2957POSM   D2B34701  31.002  17.890  15.796  0.2416 -0.0361 -0.0317
 2957POSM   C3B34702  30.532  18.115  15.845  0.1486  0.1712  0.0233
 2957POSM   C4B34703  30.260  18.180  16.199 -0.3255 -0.2167  0.2921
 2958DOPC   NC334704  26.036  13.476  16.625  0.1115 -0.0919  0.0954
 2958DOPC   PO434705  25.989  13.838  16.480  0.3389  0.0108 -0.2140
 2958DOPC   GL134706  25.745  13.570  16.231 -0.0675 -0.1300  0.6495
 2958DOPC   GL234707  26.009  13.601  16.016 -0.2207  0.0201  0.1679
 2958DOPC   C1A34708  25.482  13.640  15.782 -0.0850 -0.1386  0.3734
 2958DOPC   D2A34709  25.236  13.669  15.418  0.2005  0.1191  0.0308
 2958DOPC   C3A34710  25.411  13.591  14.973 -0.1405 -0.3641 -0.0712
 2958DOPC   C4A34711  25.476  13.462  14.572 -0.3216 -0.1642  0.2106
 2958DOPC   C1B34712  25.988  13.895  15.682  0.0061  0.3382  0.2543
 2958DOPC   D2B34713  25.720  13.968  15.261  0.3137  0.0259 -0.0850
 2958DOPC   C3B34714  25.892  13.821  14.850  0.1618  0.0312  0.0853
 2958DOPC   C4B34715  25.989  13.610  14.518 -0.2297 -0.1208  0.2298
 2959POSM   NC334716  29.095  22.177  17.186 -0.3160 -0.0536  0.0447
 2959POSM   PO434717  28.756  21.973  17.225 -0.0531 -0.0364 -0.1080
 2959POSM   AM134718  28.724  22.035  16.915  0.0017  0.2259 -0.0482
 2959POSM   AM234719  28.693  21.948  16.640 -0.3702  0.1389  0.1816
 2959POSM   T1A34720  28.485  22.397  16.620 -0.1147  0.1101 -0.2586
 2959POSM   C2A34721  28.413  22.405  16.130 -0.0363 -0.0893  0.2650
 2959POSM   C3A34722  28.772  22.368  15.855 -0.2115 -0.0295  0.0223
 2959POSM   C1B34723  28.771  22.034  16.342 -0.0434 -0.2355  0.0880
 2959POSM   D2B34724  28.619  21.922  15.954 -0.1368 -0.0961  0.1817
 2959POSM   C3B34725  28.615  21.859  15.527  0.0552 -0.2193 -0.0943
 2959POSM   C4B34726  28.842  21.930  15.115 -0.1609  0.2050  0.2299
 2960DOPC   NC334727  30.064  17.919  17.065  0.4098 -0.1394  0.0389
 2960DOPC   PO434728  29.795  17.993  16.786 -0.1160  0.1089  0.2342
 2960DOPC   GL134729  29.723  18.035  16.381  0.1933 -0.3247  0.0254
 2960DOPC   GL234730  29.815  17.857  16.166  0.3954  0.1863 -0.0657
 2960DOPC   C1A34731  29.275  18.079  16.174  0.0194  0.4021  0.3368
 2960DOPC   D2A34732  28.933  18.219  15.914  0.1406  0.1849 -0.0836
 2960DOPC   C3A34733  28.957  18.307  15.467 -0.0878 -0.0572  0.0905
 2960DOPC   C4A34734  28.947  18.716  15.197  0.1541  0.0184 -0.0190
 2960DOPC   C1B34735  30.146  17.805  15.819  0.0653  0.1112 -0.1010
 2960DOPC   D2B34736  30.463  17.681  15.560 -0.0967  0.0035  0.0066
 2960DOPC   C3B34737  30.651  17.922  15.152  0.0704 -0.2690 -0.1314
 2960DOPC   C4B34738  30.835  18.288  14.981  0.2091  0.4442  0.0156
 2961POSM   NC334739  30.296  17.231  17.335 -0.0230  0.1000  0.0403
 2961POSM   PO434740  29.999  17.451  17.200  0.0339  0.0087  0.2357
 2961POSM   AM134741  29.903  17.445  16.857  0.0925  0.2986 -0.0415
 2961POSM   AM234742  29.654  17.498  16.750 -0.2669  0.2130 -0.2244
 2961POSM   T1A34743  30.049  17.323  16.360  0.0529 -0.0437 -0.0293
 2961POSM   C2A34744  29.975  17.376  15.945 -0.2520  0.2185 -0.2687
 2961POSM   C3A34745  30.047  17.472  15.432  0.0739  0.1810 -0.0034
 2961POSM   C1B34746  29.554  17.470  16.421 -0.1939  0.2132  0.2052
 2961POSM   D2B34747  29.461  17.441  15.987 -0.1634  0.1572 -0.1803
 2961POSM   C3B34748  29.576  17.786  15.727  0.2617  0.0530  0.0187
 2961POSM   C4B34749  29.471  18.080  15.301  0.0698  0.1938  0.0330
 2962POSM   NC334750  31.025  12.895  17.666  0.2071  0.0128 -0.0690
 2962POSM   PO434751  31.235  12.978  17.341 -0.0747  0.1113  0.1274
 2962POSM   AM134752  31.289  13.015  17.039 -0.2814  0.1151 -0.0194
 2962POSM   AM234753  31.382  12.759  16.898  0.0507  0.1025 -0.2368
 2962POSM   T1A34754  31.643  13.176  16.689  0.1340  0.3522  0.0363
 2962POSM   C2A34755  31.947  13.024  16.386  0.2542 -0.0160 -0.1664
 2962POSM   C3A34756  32.376  12.802  16.293  0.0432 -0.1315 -0.0639
 2962POSM   C1B34757  31.286  12.811  16.615  0.0256 -0.0196  0.0937
 2962POSM   D2B34758  30.888  12.689  16.407 -0.3789 -0.2581  0.1379
 2962POSM   C3B34759  30.876  12.657  15.974  0.1552 -0.2608  0.0361
 2962POSM   C4B34760  30.745  12.452  15.562 -0.1813  0.4273  0.2849
 2963DOPC   NC334761  23.990  14.615  16.021  0.0003 -0.2697  0.4155
 2963DOPC   PO434762  24.091  14.875  15.717  0.2007  0.0281  0.3470
 2963DOPC   GL134763  24.202  14.853  15.288 -0.2568  0.2651 -0.1790
 2963DOPC   GL234764  24.129  14.570  15.274  0.0752  0.0762 -0.2563
 2963DOPC   C1A34765  24.265  15.119  14.937  0.1217  0.0807  0.0607
 2963DOPC   D2A34766  24.608  15.325  14.687 -0.0121  0.0396 -0.0695
 2963DOPC   C3A34767  24.674  15.258  14.231 -0.1242 -0.0598 -0.1244
 2963DOPC   C4A34768  24.799  15.039  13.843 -0.2211 -0.2048 -0.2030
 2963DOPC   C1B34769  24.335  14.626  14.811  0.1322  0.0332 -0.2077
 2963DOPC   D2B34770  24.733  14.664  14.626  0.3353  0.1470 -0.0439
 2963DOPC   C3B34771  25.102  14.673  14.940 -0.2636  0.1619 -0.0994
 2963DOPC   C4B34772  25.091  14.751  15.390 -0.5483  0.1621 -0.1323
 2964DOPE   NH334773  24.603  13.603  15.993 -0.1058  0.1949 -0.2253
 2964DOPE   PO434774  24.853  13.801  16.065  0.0916  0.0514 -0.0066
 2964DOPE   GL134775  24.977  13.984  15.760  0.2737  0.1423  0.0068
 2964DOPE   GL234776  24.785  14.053  15.564 -0.0937 -0.3180  0.2981
 2964DOPE   C1A34777  25.331  14.212  15.555  0.0666 -0.1366 -0.2861
 2964DOPE   D2A34778  25.590  14.449  15.240 -0.3515  0.0220  0.3651
 2964DOPE   C3A34779  25.717  14.254  14.822 -0.2350 -0.3809 -0.1548
 2964DOPE   C4A34780  25.572  13.991  14.453 -0.3929  0.1883 -0.1210
 2964DOPE   C1B34781  24.943  14.208  15.150  0.0306  0.1563 -0.0050
 2964DOPE   D2B34782  25.290  14.049  14.842  0.0894  0.3736  0.0539
 2964DOPE   C3B34783  25.331  14.455  14.534 -0.0028 -0.2615 -0.0948
 2964DOPE   C4B34784  25.430  14.558  14.079  0.2553 -0.0913  0.1504
 2965DOPC   NC334785  22.824  16.031  15.444 -0.1960 -0.0461 -0.1286
 2965DOPC   PO434786  23.062  15.741  15.326  0.1176 -0.0713 -0.1107
 2965DOPC   GL134787  23.257  16.025  15.207 -0.1749  0.0831 -0.0991
 2965DOPC   GL234788  23.527  16.095  15.345  0.0453 -0.2507  0.1983
 2965DOPC   C1A34789  23.384  16.250  14.890 -0.1487  0.1210 -0.0730
 2965DOPC   D2A34790  23.629  16.265  14.492  0.0075 -0.1713  0.0229
 2965DOPC   C3A34791  24.050  16.393  14.215  0.1997  0.0115  0.5615
 2965DOPC   C4A34792  24.447  16.238  14.033  0.1157 -0.1506  0.0881
 2965DOPC   C1B34793  23.953  15.927  15.280  0.0689 -0.1856 -0.0620
 2965DOPC   D2B34794  24.359  15.748  15.063 -0.0701  0.2260 -0.1593
 2965DOPC   C3B34795  24.421  15.763  14.597 -0.0599 -0.0226  0.2614
 2965DOPC   C4B34796  24.450  15.791  14.152  0.0035 -0.0122 -0.2007
 2966POSM   NC334797  32.541  19.329  17.143 -0.1456 -0.2047  0.1522
 2966POSM   PO434798  32.745  19.134  16.887  0.0701  0.2735  0.2747
 2966POSM   AM134799  32.667  19.010  16.617  0.1232 -0.0534 -0.0904
 2966POSM   AM234800  32.483  19.037  16.408 -0.0554  0.1132 -0.1455
 2966POSM   T1A34801  32.901  18.907  16.211  0.1408  0.1223  0.2779
 2966POSM   C2A34802  32.951  18.901  15.758 -0.0678 -0.2343  0.1586
 2966POSM   C3A34803  32.930  18.607  15.397  0.0467 -0.0810  0.0068
 2966POSM   C1B34804  32.471  19.219  16.174 -0.1546 -0.1972  0.0309
 2966POSM   D2B34805  32.536  19.244  15.681  0.1039 -0.1048  0.1735
 2966POSM   C3B34806  32.570  18.958  15.336 -0.0817  0.0922  0.3251
 2966POSM   C4B34807  32.411  18.726  14.997  0.1354 -0.5242 -0.0738
 2967POSM   NC334808  23.437  21.296  16.193  0.3371  0.1879  0.0213
 2967POSM   PO434809  23.748  21.478  16.368  0.2571  0.1341  0.1102
 2967POSM   AM134810  23.805  21.625  16.087 -0.2764 -0.2442 -0.1299
 2967POSM   AM234811  23.648  21.787  15.900 -0.4269 -0.2715 -0.0460
 2967POSM   T1A34812  24.201  21.904  15.864  0.1986 -0.0053  0.1423
 2967POSM   C2A34813  24.413  21.862  15.467  0.1194  0.0095  0.0616
 2967POSM   C3A34814  24.571  21.603  15.150 -0.3350  0.0791 -0.0167
 2967POSM   C1B34815  23.872  21.639  15.606  0.2716  0.0070 -0.0566
 2967POSM   D2B34816  24.105  21.405  15.262 -0.2328  0.2703  0.0496
 2967POSM   C3B34817  24.364  21.100  15.199 -0.2579  0.4120 -0.0975
 2967POSM   C4B34818  24.739  21.001  14.925  0.1196 -0.1178 -0.0135
 2968POSM   NC334819  25.719  17.069  17.214  0.2273  0.0974 -0.0464
 2968POSM   PO434820  25.613  17.304  16.914  0.2850  0.1724 -0.0930
 2968POSM   AM134821  25.672  17.465  16.612  0.1076 -0.0468 -0.3549
 2968POSM   AM234822  25.533  17.614  16.406 -0.1730  0.0530  0.2894
 2968POSM   T1A34823  26.013  17.564  16.229 -0.1861  0.1449  0.1982
 2968POSM   C2A34824  26.149  17.632  15.818  0.0528  0.0656 -0.1608
 2968POSM   C3A34825  26.196  17.784  15.360  0.0211 -0.2635  0.0674
 2968POSM   C1B34826  25.472  17.539  16.055  0.1106  0.2376  0.2723
 2968POSM   D2B34827  25.388  17.529  15.611 -0.0023 -0.3179  0.1955
 2968POSM   C3B34828  25.655  17.566  15.266  0.0804 -0.2494 -0.0882
 2968POSM   C4B34829  25.926  17.338  14.902  0.0399 -0.2887  0.0420
 2969POSM   NC334830  26.412  22.743  17.430 -0.2360  0.1664 -0.2529
 2969POSM   PO434831  26.273  23.124  17.373 -0.0673  0.2369  0.0604
 2969POSM   AM134832  26.205  22.996  17.069  0.2439  0.5200  0.1110
 2969POSM   AM234833  26.329  22.775  16.926 -0.2859 -0.2781  0.5208
 2969POSM   T1A34834  26.080  23.017  16.555 -0.2551  0.2426 -0.2212
 2969POSM   C2A34835  26.154  22.970  16.044 -0.1926 -0.2300 -0.3312
 2969POSM   C3A34836  25.994  22.994  15.642 -0.3284  0.2612  0.0603
 2969POSM   C1B34837  26.465  22.708  16.630 -0.2172  0.1919  0.2153
 2969POSM   D2B34838  26.549  22.680  16.209  0.0942 -0.0839 -0.0771
 2969POSM   C3B34839  26.964  22.732  15.922  0.0564 -0.1688 -0.0120
 2969POSM   C4B34840  27.304  22.597  15.592 -0.0226  0.3329 -0.1537
 2970DOPC   NC334841  34.387  19.304  16.723 -0.4132 -0.0139  0.3255
 2970DOPC   PO434842  34.088  19.227  16.966 -0.3649  0.0773  0.3192
 2970DOPC   GL134843  33.822  19.048  16.565  0.0535 -0.2036  0.5456
 2970DOPC   GL234844  34.038  18.880  16.547 -0.0818  0.2151 -0.0910
 2970DOPC   C1A34845  33.933  19.175  16.112  0.3318 -0.4564 -0.0853
 2970DOPC   D2A34846  34.219  19.427  15.847  0.0217 -0.0921  0.3574
 2970DOPC   C3A34847  34.286  19.284  15.431 -0.0156 -0.0533  0.1385
 2970DOPC   C4A34848  34.310  19.428  15.049  0.0267 -0.2621  0.4000
 2970DOPC   C1B34849  34.093  18.736  16.107  0.0976 -0.1168 -0.2893
 2970DOPC   D2B34850  34.271  18.942  15.768 -0.0145  0.0831  0.0888
 2970DOPC   C3B34851  34.601  18.867  15.507  0.0211 -0.1092 -0.0230
 2970DOPC   C4B34852  34.990  18.765  15.284  0.1679 -0.1590 -0.1404
 2971POSM   NC334853  33.168  18.055  17.041 -0.0424 -0.1139 -0.0148
 2971POSM   PO434854  33.368  18.406  16.958 -0.1544  0.3710 -0.1790
 2971POSM   AM134855  33.348  18.646  16.722  0.1468 -0.2872 -0.2940
 2971POSM   AM234856  33.192  18.836  16.699 -0.0321 -0.1458 -0.0125
 2971POSM   T1A34857  33.530  18.796  16.279 -0.0408 -0.1214  0.0539
 2971POSM   C2A34858  33.420  19.070  15.927  0.2375  0.0875 -0.0749
 2971POSM   C3A34859  33.730  19.343  15.705 -0.1817  0.0938  0.1714
 2971POSM   C1B34860  33.282  19.117  16.602  0.1087 -0.2378  0.4522
 2971POSM   D2B34861  33.388  19.388  16.294  0.1199  0.0800 -0.1703
 2971POSM   C3B34862  33.397  19.582  15.886  0.0227  0.2170  0.1299
 2971POSM   C4B34863  33.574  19.658  15.416 -0.3133  0.0673  0.0844
 2972DOPS   CNO34864  26.988  17.093  17.137 -0.1761  0.1608  0.0928
 2972DOPS   PO434865  27.206  17.026  16.832 -0.0683 -0.1747 -0.0044
 2972DOPS   GL134866  27.327  17.257  16.514 -0.1948 -0.3403 -0.3534
 2972DOPS   GL234867  27.526  17.069  16.409 -0.0567 -0.0892  0.0701
 2972DOPS   C1A34868  27.650  17.534  16.309 -0.4459  0.2620 -0.2227
 2972DOPS   D2A34869  27.703  17.686  15.885 -0.0628 -0.1855  0.1570
 2972DOPS   C3A34870  27.392  17.978  15.643 -0.0604  0.5108  0.5225
 2972DOPS   C4A34871  26.985  18.116  15.385  0.2010 -0.1680  0.2616
 2972DOPS   C1B34872  27.507  17.163  15.945  0.0372  0.3431 -0.1587
 2972DOPS   D2B34873  27.580  17.297  15.474  0.2839 -0.1997  0.2307
 2972DOPS   C3B34874  27.840  16.971  15.269 -0.1991  0.1870 -0.3891
 2972DOPS   C4B34875  27.784  16.626  15.031 -0.2675  0.1984 -0.0451
 2973DOPS   CNO34876  22.559  18.648  15.598 -0.1234 -0.0221  0.0482
 2973DOPS   PO434877  22.879  18.893  15.657 -0.1465  0.1433  0.1230
 2973DOPS   GL134878  23.080  18.799  15.319  0.0119 -0.0880 -0.2974
 2973DOPS   GL234879  22.899  18.556  15.191  0.0807 -0.1198 -0.1675
 2973DOPS   C1A34880  23.438  18.662  15.087 -0.1307  0.0245  0.1518
 2973DOPS   D2A34881  23.498  18.290  14.804  0.1028 -0.0811  0.1909
 2973DOPS   C3A34882  23.804  18.273  14.536 -0.1772 -0.1526  0.2176
 2973DOPS   C4A34883  24.186  18.258  14.215  0.0408 -0.0062 -0.0609
 2973DOPS   C1B34884  22.649  18.628  14.789 -0.0530  0.3703 -0.3381
 2973DOPS   D2B34885  22.761  18.696  14.363  0.0035  0.1586  0.0970
 2973DOPS   C3B34886  23.124  18.524  14.142 -0.2756 -0.2777  0.1827
 2973DOPS   C4B34887  23.453  18.259  14.227 -0.0764 -0.1997 -0.0469
 2974DOPS   CNO34888  27.430  19.817  16.801  0.0268  0.3495  0.0409
 2974DOPS   PO434889  27.361  19.460  16.883 -0.4504 -0.1287  0.1096
 2974DOPS   GL134890  27.488  19.286  16.596 -0.1113  0.3220  0.3252
 2974DOPS   GL234891  27.802  19.134  16.619 -0.1182 -0.1211 -0.0491
 2974DOPS   C1A34892  27.602  19.325  16.143 -0.0708  0.6815  0.0494
 2974DOPS   D2A34893  27.649  19.357  15.689 -0.0402 -0.1355 -0.0343
 2974DOPS   C3A34894  27.710  19.472  15.202  0.3113  0.1262 -0.0912
 2974DOPS   C4A34895  27.969  19.588  14.842  0.2756 -0.3171  0.0766
 2974DOPS   C1B34896  28.248  19.073  16.492  0.2200  0.2358 -0.0134
 2974DOPS   D2B34897  28.669  18.856  16.433 -0.2421 -0.0909  0.1526
 2974DOPS   C3B34898  28.858  19.128  16.126 -0.0199 -0.1659  0.2551
 2974DOPS   C4B34899  29.109  19.299  15.803 -0.0255 -0.1259  0.2911
 2975POSM   NC334900  31.247  15.335  17.619  0.1968  0.5693 -0.0710
 2975POSM   PO434901  31.084  15.352  17.266 -0.2398  0.0468  0.0052
 2975POSM   AM134902  30.894  15.311  16.987 -0.0109 -0.3025  0.2171
 2975POSM   AM234903  30.917  15.209  16.692  0.1173 -0.0164 -0.2990
 2975POSM   T1A34904  30.545  15.534  16.744 -0.1090  0.0100  0.1359
 2975POSM   C2A34905  30.433  15.857  16.432 -0.2947 -0.1769 -0.0700
 2975POSM   C3A34906  30.243  15.949  16.039 -0.1009 -0.0322  0.0546
 2975POSM   C1B34907  30.711  15.171  16.404  0.1214  0.1452  0.3263
 2975POSM   D2B34908  30.754  15.049  15.907  0.1654 -0.1013 -0.3256
 2975POSM   C3B34909  31.053  14.700  15.946  0.1164 -0.1617  0.3236
 2975POSM   C4B34910  31.444  14.424  15.920  0.1300  0.1599  0.1536
 2976DOPE   NH334911  31.505  23.463  17.284 -0.1449  0.1442  0.2332
 2976DOPE   PO434912  31.646  23.242  17.119 -0.1574  0.1850 -0.1838
 2976DOPE   GL134913  31.533  23.123  16.805  0.1061  0.1080 -0.1423
 2976DOPE   GL234914  31.278  23.004  16.597 -0.1207  0.2700 -0.1264
 2976DOPE   C1A34915  31.659  23.204  16.368  0.0432  0.2944  0.0362
 2976DOPE   D2A34916  31.715  23.402  15.917  0.0335 -0.0563  0.4734
 2976DOPE   C3A34917  31.478  23.492  15.534  0.0086  0.0721 -0.0726
 2976DOPE   C4A34918  31.248  23.154  15.359 -0.0967 -0.0358  0.2671
 2976DOPE   C1B34919  31.310  22.823  16.202 -0.1614 -0.4329 -0.2545
 2976DOPE   D2B34920  31.098  22.712  15.798  0.1757 -0.0731  0.2074
 2976DOPE   C3B34921  31.235  22.611  15.357  0.1014  0.3177 -0.0829
 2976DOPE   C4B34922  31.648  22.538  15.206 -0.1345  0.0682  0.1461
 2977POSM   NC334923  28.152  11.547  17.192  0.0750  0.0736 -0.1088
 2977POSM   PO434924  27.839  11.511  16.977 -0.2044 -0.2989 -0.1741
 2977POSM   AM134925  27.728  11.640  16.685  0.2070 -0.0135  0.6527
 2977POSM   AM234926  27.670  11.910  16.534  0.1364  0.4095  0.2993
 2977POSM   T1A34927  27.480  11.578  16.256 -0.0935 -0.0763  0.6042
 2977POSM   C2A34928  27.129  11.790  16.023 -0.3161 -0.1902  0.1187
 2977POSM   C3A34929  26.890  11.875  15.619  0.1033  0.1168 -0.2968
 2977POSM   C1B34930  27.686  12.124  16.273 -0.0457 -0.0628 -0.0029
 2977POSM   D2B34931  27.879  12.283  15.895  0.0490 -0.0165  0.0943
 2977POSM   C3B34932  27.757  12.189  15.416 -0.2012  0.1175  0.0770
 2977POSM   C4B34933  27.638  11.987  15.050 -0.1181  0.0725  0.0939
 2978DOPS   CNO34934  29.992  18.731  17.155 -0.1439  0.2440 -0.0118
 2978DOPS   PO434935  29.978  18.425  16.997  0.2461  0.0194  0.0438
 2978DOPS   GL134936  30.075  18.632  16.654  0.1530 -0.2457  0.0170
 2978DOPS   GL234937  29.931  18.458  16.479 -0.1614 -0.0432 -0.0072
 2978DOPS   C1A34938  29.913  18.932  16.361  0.3055 -0.1783  0.1549
 2978DOPS   D2A34939  29.932  19.116  15.903  0.1005 -0.2418 -0.2449
 2978DOPS   C3A34940  29.618  19.419  15.794  0.4510 -0.1667  0.0186
 2978DOPS   C4A34941  29.561  19.807  15.531  0.1932 -0.3467  0.1671
 2978DOPS   C1B34942  29.608  18.511  16.154 -0.0233 -0.1177  0.1087
 2978DOPS   D2B34943  29.425  18.325  15.735  0.3155 -0.4109 -0.1370
 2978DOPS   C3B34944  29.490  18.603  15.323 -0.1933 -0.5218  0.2477
 2978DOPS   C4B34945  29.573  18.554  14.870  0.0262 -0.4788 -0.0056
 2979POSM   NC334946  32.788  17.068  16.507 -0.0304 -0.1730 -0.1026
 2979POSM   PO434947  32.614  16.752  16.432 -0.0210  0.0262 -0.0831
 2979POSM   AM134948  32.455  16.613  16.188  0.1018 -0.0342 -0.1669
 2979POSM   AM234949  32.623  16.380  16.045  0.1737 -0.0553  0.2039
 2979POSM   T1A34950  32.299  16.605  15.719 -0.3406 -0.0348  0.0626
 2979POSM   C2A34951  32.216  16.622  15.277 -0.0441  0.1422 -0.3549
 2979POSM   C3A34952  31.909  16.614  14.900 -0.1414  0.0360  0.0630
 2979POSM   C1B34953  32.665  16.223  15.744  0.2245  0.0129  0.3347
 2979POSM   D2B34954  32.596  16.054  15.337 -0.0701  0.0834  0.2149
 2979POSM   C3B34955  32.792  15.805  15.061 -0.0466  0.5355 -0.2028
 2979POSM   C4B34956  33.050  15.603  14.715 -0.0241  0.0981 -0.0525
 2980POSM   NC334957  27.929  14.557  16.156  0.1070  0.1638  0.0031
 2980POSM   PO434958  27.956  14.941  16.213  0.0809  0.0051  0.0884
 2980POSM   AM134959  28.129  15.062  15.970 -0.2241  0.0111 -0.3030
 2980POSM   AM234960  28.134  14.943  15.692  0.0346  0.1519  0.0780
 2980POSM   T1A34961  28.204  15.505  15.741 -0.1394  0.2043 -0.1021
 2980POSM   C2A34962  28.166  15.736  15.330 -0.1069  0.1448  0.4594
 2980POSM   C3A34963  27.995  16.149  15.193  0.1703  0.0736 -0.0426
 2980POSM   C1B34964  28.093  15.071  15.395  0.1075  0.2229 -0.0261
 2980POSM   D2B34965  28.021  15.392  15.050  0.0152  0.0447 -0.0666
 2980POSM   C3B34966  28.223  15.672  14.760  0.1370 -0.0733  0.1406
 2980POSM   C4B34967  28.665  15.890  14.742  0.0079 -0.0043  0.1576
 2981POSM   NC334968  24.878  18.986  16.969 -0.1250 -0.2233  0.1330
 2981POSM   PO434969  24.979  19.332  17.097 -0.0493 -0.1335  0.1071
 2981POSM   AM134970  25.068  19.479  16.810 -0.4385 -0.2988 -0.2405
 2981POSM   AM234971  25.245  19.655  16.681 -0.1137 -0.1774  0.2618
 2981POSM   T1A34972  24.930  19.533  16.323  0.0394  0.0446 -0.1912
 2981POSM   C2A34973  24.695  19.525  15.857 -0.0401  0.0855  0.0483
 2981POSM   C3A34974  24.915  19.694  15.474 -0.1748 -0.2152  0.3773
 2981POSM   C1B34975  25.301  19.833  16.357 -0.1557  0.1388 -0.0851
 2981POSM   D2B34976  25.137  19.891  15.927  0.0064  0.1706  0.4672
 2981POSM   C3B34977  24.776  20.112  15.917 -0.3231 -0.0639 -0.0352
 2981POSM   C4B34978  24.592  20.187  15.534  0.3102 -0.2265  0.2320
 2982DOPE   NH334979  34.540  20.084  16.937 -0.2244  0.2129  0.1476
 2982DOPE   PO434980  34.791  20.241  16.936  0.3321 -0.3599 -0.1733
 2982DOPE   GL134981  34.968  20.066  16.643 -0.0438  0.0788 -0.1496
 2982DOPE   GL234982  34.818  19.772  16.631 -0.0604 -0.2490 -0.0187
 2982DOPE   C1A34983  34.771  20.028  16.204  0.0179 -0.2222  0.1442
 2982DOPE   D2A34984  34.900  20.037  15.834  0.1424 -0.0712  0.0534
 2982DOPE   C3A34985  35.023  19.679  15.624  0.2815  0.1269  0.2615
 2982DOPE   C4A34986  35.404  19.404  15.405  0.1418 -0.0630 -0.1735
 2982DOPE   C1B34987  34.703  19.532  16.230  0.3454 -0.0203  0.4368
 2982DOPE   D2B34988  34.662  19.300  15.849 -0.0308 -0.3856  0.1639
 2982DOPE   C3B34989  34.881  19.252  15.427 -0.4033  0.1445  0.0876
 2982DOPE   C4B34990  35.142  19.126  15.032  0.0066 -0.3088 -0.2569
 2983DOPE   NH334991  23.403  18.869  15.623  0.0801 -0.0319  0.2522
 2983DOPE   PO434992  23.287  18.771  15.894  0.0742  0.1124 -0.0803
 2983DOPE   GL134993  23.712  18.649  15.995 -0.1688 -0.0670 -0.1790
 2983DOPE   GL234994  23.882  18.871  15.827  0.1077 -0.2476 -0.1602
 2983DOPE   C1A34995  24.092  18.261  15.940  0.0532 -0.4481  0.1177
 2983DOPE   D2A34996  24.201  17.806  15.793 -0.0318 -0.1783  0.1757
 2983DOPE   C3A34997  24.043  18.083  15.426  0.0495 -0.0871 -0.0217
 2983DOPE   C4A34998  23.948  18.309  15.074 -0.5529  0.0130 -0.2106
 2983DOPE   C1B34999  23.824  18.497  15.554 -0.1718 -0.0387 -0.5699
 2983DOPE   D2B35000  23.477  18.325  15.414 -0.1312  0.3295 -0.0154
 2983DOPE   C3B35001  23.164  18.159  15.168 -0.1037 -0.3077  0.0874
 2983DOPE   C4B35002  22.777  18.187  14.947 -0.0822  0.2527  0.3839
 2984DOPS   CNO35003  33.525  12.640  17.051 -0.0933 -0.1158  0.0855
 2984DOPS   PO435004  33.400  12.288  17.018  0.0121  0.0881 -0.3025
 2984DOPS   GL135005  33.427  12.226  16.659 -0.0702  0.0519 -0.3958
 2984DOPS   GL235006  33.186  12.181  16.550 -0.2514  0.0754  0.0574
 2984DOPS   C1A35007  33.536  11.762  16.534 -0.2979 -0.1922  0.1660
 2984DOPS   D2A35008  33.643  11.306  16.537  0.0195  0.1216 -0.0938
 2984DOPS   C3A35009  33.417  10.966  16.286  0.1778  0.0050 -0.0530
 2984DOPS   C4A35010  33.444  10.747  15.854  0.1021  0.1898  0.4065
 2984DOPS   C1B35011  33.470  12.191  16.195  0.5231  0.1700  0.1529
 2984DOPS   D2B35012  33.686  12.103  15.764  0.0629  0.0687 -0.2352
 2984DOPS   C3B35013  33.382  12.133  15.383 -0.3440  0.1156 -0.1949
 2984DOPS   C4B35014  33.113  12.408  15.066  0.1422 -0.1061 -0.2381
 2985DOPS   CNO35015  22.507  16.493  15.429  0.0987  0.0433  0.1920
 2985DOPS   PO435016  22.391  16.584  15.102  0.0235 -0.0100  0.0910
 2985DOPS   GL135017  22.355  16.228  14.924  0.2841  0.0140 -0.2753
 2985DOPS   GL235018  22.240  16.353  14.631  0.0659  0.0438 -0.0017
 2985DOPS   C1A35019  22.578  16.050  14.473 -0.2435  0.1527  0.4449
 2985DOPS   D2A35020  22.681  16.228  14.030 -0.5808  0.1703  0.0388
 2985DOPS   C3A35021  22.706  15.844  13.841 -0.0994  0.0376 -0.1340
 2985DOPS   C4A35022  22.838  15.424  13.823  0.3396 -0.0424  0.0182
 2985DOPS   C1B35023  22.494  16.686  14.413  0.1076 -0.1278  0.1133
 2985DOPS   D2B35024  22.884  16.668  14.151  0.1057 -0.1857 -0.0596
 2985DOPS   C3B35025  23.145  17.048  14.126 -0.1048 -0.0291  0.1348
 2985DOPS   C4B35026  23.108  17.431  13.865 -0.1991 -0.0619  0.0792
 2986DOPE   NH335027  26.960  21.378  16.502 -0.1952 -0.1273  0.3670
 2986DOPE   PO435028  26.954  21.033  16.504  0.1314 -0.0902 -0.1293
 2986DOPE   GL135029  27.090  21.224  16.063 -0.0635  0.1261 -0.1446
 2986DOPE   GL235030  27.212  20.937  15.973  0.0809 -0.1407 -0.2201
 2986DOPE   C1A35031  26.814  21.430  15.761 -0.1779  0.0243  0.0115
 2986DOPE   D2A35032  26.372  21.394  15.585 -0.4941  0.2565 -0.2381
 2986DOPE   C3A35033  26.165  21.106  15.225 -0.0580 -0.5557  0.0815
 2986DOPE   C4A35034  26.353  20.674  15.138  0.1719  0.1586 -0.3189
 2986DOPE   C1B35035  27.176  20.788  15.531 -0.1297 -0.1647  0.4645
 2986DOPE   D2B35036  27.120  20.913  15.075 -0.0393 -0.0149 -0.0159
 2986DOPE   C3B35037  26.803  20.745  14.773  0.3518 -0.3197 -0.1134
 2986DOPE   C4B35038  26.405  20.657  14.597  0.2301 -0.0976 -0.3134
 2987DOPC   NC335039  28.545  20.963  17.119  0.0795  0.1742  0.2015
 2987DOPC   PO435040  28.271  21.147  16.926  0.0557  0.0250 -0.1570
 2987DOPC   GL135041  28.169  21.297  16.595 -0.2657  0.0782 -0.0627
 2987DOPC   GL235042  28.466  21.195  16.434 -0.0510  0.0403  0.1377
 2987DOPC   C1A35043  27.927  21.148  16.220 -0.1408 -0.0352  0.1123
 2987DOPC   D2A35044  27.578  21.409  16.050 -0.1773  0.1054  0.0247
 2987DOPC   C3A35045  27.606  21.819  15.869 -0.0087  0.1288  0.0034
 2987DOPC   C4A35046  27.230  22.065  15.728 -0.0909 -0.1912  0.1588
 2987DOPC   C1B35047  28.792  21.507  16.348  0.0418  0.0235  0.2687
 2987DOPC   D2B35048  29.086  21.743  16.021  0.1526 -0.0819 -0.1571
 2987DOPC   C3B35049  29.305  21.795  15.602 -0.2369 -0.3633  0.0683
 2987DOPC   C4B35050  29.477  21.855  15.213  0.1012  0.1481  0.3181
 2988DOPE   NH335051  28.413  20.030  17.574  0.1414 -0.2498  0.1267
 2988DOPE   PO435052  28.641  19.987  17.337  0.2755  0.3050  0.3937
 2988DOPE   GL135053  28.465  20.082  16.967 -0.2811 -0.0996 -0.4578
 2988DOPE   GL235054  28.506  19.898  16.849  0.0097  0.3690 -0.3177
 2988DOPE   C1A35055  28.670  20.240  16.542 -0.1749  0.1426  0.0732
 2988DOPE   D2A35056  28.992  20.512  16.471 -0.2223 -0.5091  0.3564
 2988DOPE   C3A35057  29.318  20.565  16.165  0.0497  0.1256 -0.2259
 2988DOPE   C4A35058  29.635  20.892  16.159  0.2040  0.0965  0.1088
 2988DOPE   C1B35059  28.647  19.741  16.429  0.3079  0.0112  0.2488
 2988DOPE   D2B35060  28.829  19.619  15.989 -0.1644  0.2059  0.2845
 2988DOPE   C3B35061  29.070  19.834  15.613  0.1405  0.1486  0.2182
 2988DOPE   C4B35062  29.024  20.125  15.322 -0.0881  0.0471  0.0548
 2989DOPC   NC335063  21.776  15.022  14.909  0.4288  0.1851  0.0570
 2989DOPC   PO435064  21.970  15.336  14.966  0.0599  0.1886 -0.2668
 2989DOPC   GL135065  22.273  15.028  15.066 -0.1942 -0.2135 -0.1725
 2989DOPC   GL235066  22.495  15.174  14.970  0.0530 -0.1175  0.2391
 2989DOPC   C1A35067  22.156  14.613  14.836 -0.2916  0.0597  0.1789
 2989DOPC   D2A35068  22.035  14.266  14.612 -0.3307  0.3481 -0.1772
 2989DOPC   C3A35069  22.176  13.850  14.773  0.0056  0.0182 -0.0385
 2989DOPC   C4A35070  21.900  13.466  14.866  0.0872 -0.1256 -0.3736
 2989DOPC   C1B35071  22.958  15.087  14.907 -0.0074  0.0038  0.0396
 2989DOPC   D2B35072  23.176  14.886  14.576 -0.3340  0.3327 -0.0354
 2989DOPC   C3B35073  23.071  15.116  14.138 -0.0315  0.1212 -0.0301
 2989DOPC   C4B35074  23.300  15.290  13.738  0.1234  0.2266  0.1769
 2990DOPE   NH335075  32.558  16.189  16.483 -0.1429 -0.0427 -0.0856
 2990DOPE   PO435076  32.297  16.061  16.496 -0.0934 -0.0616 -0.2007
 2990DOPE   GL135077  32.100  15.987  16.144 -0.0768 -0.0419 -0.0126
 2990DOPE   GL235078  32.201  16.128  15.957  0.1773  0.1523  0.1409
 2990DOPE   C1A35079  31.862  15.771  15.886  0.0884  0.2580  0.2326
 2990DOPE   D2A35080  31.809  15.656  15.417  0.0681 -0.3815 -0.0110
 2990DOPE   C3A35081  31.632  15.276  15.298 -0.1416  0.2458 -0.2220
 2990DOPE   C4A35082  31.448  14.988  15.042  0.1838  0.2483 -0.0008
 2990DOPE   C1B35083  32.096  16.110  15.474  0.1348  0.0669 -0.0048
 2990DOPE   D2B35084  32.166  16.212  15.057 -0.2632  0.0054  0.0477
 2990DOPE   C3B35085  32.578  16.324  14.948 -0.4795 -0.0939  0.1052
 2990DOPE   C4B35086  32.928  16.586  14.753 -0.0865  0.2472  0.0593
 2991DOPE   NH335087  32.662  20.112  16.904  0.2303 -0.4354  0.1265
 2991DOPE   PO435088  32.555  20.044  16.626  0.2168 -0.3206 -0.0883
 2991DOPE   GL135089  32.516  20.018  16.235  0.0483  0.0631  0.1218
 2991DOPE   GL235090  32.366  19.715  16.228 -0.2018 -0.2473  0.0254
 2991DOPE   C1A35091  32.707  20.020  15.814 -0.0232 -0.1425  0.2354
 2991DOPE   D2A35092  33.107  19.862  15.558 -0.1638 -0.0173 -0.0124
 2991DOPE   C3A35093  33.066  19.657  15.156  0.0655  0.2446 -0.2218
 2991DOPE   C4A35094  33.011  19.494  14.691  0.2044 -0.1477 -0.1042
 2991DOPE   C1B35095  32.326  19.729  15.759  0.3207  0.1306 -0.1659
 2991DOPE   D2B35096  32.594  19.782  15.411  0.0417 -0.0823 -0.0757
 2991DOPE   C3B35097  32.539  19.747  14.924  0.0048 -0.1292 -0.2420
 2991DOPE   C4B35098  32.444  19.504  14.541  0.0189  0.1685  0.0163
 2992DOPC   NC335099  25.049  11.544  16.210 -0.1257 -0.1212  0.3830
 2992DOPC   PO435100  25.055  11.928  16.266 -0.0874 -0.1303  0.0642
 2992DOPC   GL135101  25.270  11.884  15.930  0.0366  0.1529 -0.3153
 2992DOPC   GL235102  25.447  11.683  15.961 -0.1930  0.1040  0.3058
 2992DOPC   C1A35103  25.511  12.133  15.609 -0.1603 -0.1887  0.1277
 2992DOPC   D2A35104  25.387  12.204  15.167 -0.0316 -0.1528  0.2423
 2992DOPC   C3A35105  25.806  12.114  14.971  0.0044 -0.0413  0.3000
 2992DOPC   C4A35106  26.250  12.192  14.993  0.1382 -0.0688  0.2509
 2992DOPC   C1B35107  25.117  11.499  15.723 -0.1435 -0.1658  0.2975
 2992DOPC   D2B35108  24.973  11.403  15.262  0.3580  0.0147 -0.0713
 2992DOPC   C3B35109  25.057  11.685  14.928 -0.3488  0.1385  0.2433
 2992DOPC   C4B35110  25.251  11.934  14.575 -0.0163 -0.1574 -0.0265
 2993DOPC   NC335111  33.378  15.881  16.817  0.1191 -0.2030  0.0248
 2993DOPC   PO435112  33.489  15.546  16.655  0.2328  0.1019 -0.0399
 2993DOPC   GL135113  33.268  15.398  16.344  0.0071  0.1703 -0.3732
 2993DOPC   GL235114  32.968  15.461  16.234 -0.3188 -0.0681  0.0078
 2993DOPC   C1A35115  33.307  15.366  15.892 -0.0271  0.2791 -0.0534
 2993DOPC   D2A35116  33.568  15.162  15.506 -0.0252  0.1707  0.1519
 2993DOPC   C3A35117  33.662  15.320  15.125 -0.0755  0.0862 -0.0290
 2993DOPC   C4A35118  33.737  15.215  14.676  0.0256  0.1807  0.0302
 2993DOPC   C1B35119  32.720  15.276  15.901  0.0057 -0.0454  0.5346
 2993DOPC   D2B35120  32.650  15.309  15.440  0.1536  0.0748  0.1322
 2993DOPC   C3B35121  32.710  15.264  14.934 -0.0181  0.0073  0.1284
 2993DOPC   C4B35122  32.425  15.040  14.623 -0.2154 -0.1710 -0.2819
 2994DOPE   NH335123  29.179  14.415  17.112  0.0037  0.2851 -0.0179
 2994DOPE   PO435124  29.464  14.294  16.981 -0.0356  0.3890 -0.1159
 2994DOPE   GL135125  29.612  14.470  16.662 -0.0824 -0.3373 -0.0498
 2994DOPE   GL235126  29.904  14.573  16.644  0.5718 -0.0854 -0.1489
 2994DOPE   C1A35127  29.506  14.266  16.233  0.2934 -0.2325  0.2087
 2994DOPE   D2A35128  29.568  13.952  15.841 -0.1286 -0.1981  0.1695
 2994DOPE   C3A35129  29.340  13.562  15.649 -0.1542 -0.0494 -0.1270
 2994DOPE   C4A35130  29.190  13.081  15.661  0.1718 -0.3519  0.3289
 2994DOPE   C1B35131  30.274  14.453  16.428  0.3921  0.0545  0.2767
 2994DOPE   D2B35132  30.695  14.592  16.231  0.1794  0.2777  0.1617
 2994DOPE   C3B35133  30.937  14.240  16.071 -0.4508 -0.1082 -0.0624
 2994DOPE   C4B35134  31.112  14.037  15.709  0.1245 -0.0766 -0.0704
 2995DOPE   NH335135  33.719  17.997  16.911  0.0196  0.1335  0.1256
 2995DOPE   PO435136  33.703  17.675  16.882 -0.0134 -0.3663 -0.2505
 2995DOPE   GL135137  33.927  17.566  16.576  0.0297 -0.1418 -0.1541
 2995DOPE   GL235138  34.002  17.876  16.518  0.1255  0.3662 -0.1056
 2995DOPE   C1A35139  33.987  17.523  16.143 -0.0828 -0.2488  0.1918
 2995DOPE   D2A35140  33.944  17.750  15.804  0.0999  0.0431 -0.0912
 2995DOPE   C3A35141  33.556  17.940  15.613  0.0863 -0.0750 -0.1337
 2995DOPE   C4A35142  33.355  17.942  15.194 -0.3015 -0.1306 -0.0180
 2995DOPE   C1B35143  34.260  17.928  16.136 -0.1203  0.0093  0.0549
 2995DOPE   D2B35144  34.421  17.780  15.735 -0.3333 -0.2860 -0.1345
 2995DOPE   C3B35145  34.663  17.911  15.384  0.0020 -0.1993  0.1771
 2995DOPE   C4B35146  34.604  17.751  14.969 -0.2498  0.0493  0.1493
 2996DOPS   CNO35147  24.345  16.172  16.579  0.0919  0.2009 -0.0931
 2996DOPS   PO435148  24.135  16.209  16.235  0.1829  0.1711  0.3013
 2996DOPS   GL135149  24.297  16.519  16.071 -0.2009 -0.0808 -0.3149
 2996DOPS   GL235150  24.057  16.662  15.974  0.0144  0.3989 -0.1772
 2996DOPS   C1A35151  24.570  16.357  15.706  0.2612  0.0305 -0.0380
 2996DOPS   D2A35152  24.910  16.472  15.516 -0.5324  0.0155 -0.1691
 2996DOPS   C3A35153  24.638  16.741  15.280 -0.0086  0.1309  0.0056
 2996DOPS   C4A35154  24.535  17.008  14.957 -0.1723  0.1470 -0.1965
 2996DOPS   C1B35155  24.128  16.385  15.570  0.1455  0.2329  0.3260
 2996DOPS   D2B35156  24.290  16.307  15.122 -0.2637  0.1210 -0.2861
 2996DOPS   C3B35157  24.026  16.077  14.796 -0.1188  0.0002 -0.1314
 2996DOPS   C4B35158  23.961  15.886  14.376 -0.2327  0.1253  0.0110
 2997POSM   NC335159  27.829  21.976  17.192  0.2469 -0.2183  0.1198
 2997POSM   PO435160  27.866  22.381  17.165  0.0951 -0.2508  0.0923
 2997POSM   AM135161  27.797  22.452  16.881 -0.2383 -0.1430  0.0967
 2997POSM   AM235162  27.860  22.290  16.629 -0.3107 -0.1523  0.2295
 2997POSM   T1A35163  27.823  22.685  16.412  0.1000 -0.3164  0.0456
 2997POSM   C2A35164  27.581  22.856  16.010  0.1539  0.2922 -0.0409
 2997POSM   C3A35165  27.331  23.249  15.881 -0.1553  0.1329 -0.2438
 2997POSM   C1B35166  28.058  22.176  16.369 -0.2378  0.0951  0.2330
 2997POSM   D2B35167  28.118  21.989  15.906 -0.0123 -0.0977 -0.2672
 2997POSM   C3B35168  28.322  22.326  15.642  0.0407 -0.2052 -0.2681
 2997POSM   C4B35169  28.404  22.255  15.187  0.0702  0.0221 -0.0872
 2998DOPC   NC335170  22.466  17.321  15.943 -0.1344  0.1504  0.1038
 2998DOPC   PO435171  22.549  17.521  15.633  0.1541 -0.3188  0.0471
 2998DOPC   GL135172  22.475  17.753  15.188 -0.2268  0.0184 -0.1847
 2998DOPC   GL235173  22.560  17.503  14.930  0.1658  0.1941  0.2578
 2998DOPC   C1A35174  22.360  17.944  14.768 -0.1787 -0.1690  0.0635
 2998DOPC   D2A35175  22.449  18.299  14.544 -0.0995  0.0091  0.0802
 2998DOPC   C3A35176  22.460  18.378  14.097  0.2340  0.1719 -0.1404
 2998DOPC   C4A35177  22.764  18.318  13.807 -0.2068 -0.0049 -0.1577
 2998DOPC   C1B35178  22.925  17.711  14.807 -0.1081  0.0322  0.1402
 2998DOPC   D2B35179  23.114  18.091  14.532  0.2610 -0.0310  0.1089
 2998DOPC   C3B35180  23.103  18.517  14.657  0.0299  0.0885  0.1982
 2998DOPC   C4B35181  23.096  18.942  14.839  0.0240 -0.0332  0.1038
 2999DOPC   NC335182  26.555  15.159  16.146  0.0177 -0.1541 -0.1178
 2999DOPC   PO435183  26.879  15.376  16.256 -0.0997 -0.3335  0.1380
 2999DOPC   GL135184  26.908  15.440  15.932 -0.3922 -0.1396 -0.1832
 2999DOPC   GL235185  26.683  15.537  15.786  0.0516  0.1418 -0.3869
 2999DOPC   C1A35186  27.203  15.415  15.572 -0.0912  0.2958  0.1372
 2999DOPC   D2A35187  27.221  15.529  15.119  0.1922  0.1816 -0.0857
 2999DOPC   C3A35188  27.107  15.364  14.715 -0.0758 -0.0539  0.2137
 2999DOPC   C4A35189  27.281  15.456  14.321  0.1213 -0.0775  0.2004
 2999DOPC   C1B35190  26.693  15.378  15.355 -0.0161  0.1142 -0.2793
 2999DOPC   D2B35191  26.884  15.025  15.097  0.1205 -0.1390 -0.2469
 2999DOPC   C3B35192  26.626  14.779  14.803  0.0027 -0.1332 -0.3141
 2999DOPC   C4B35193  26.293  14.671  14.453 -0.0464  0.2307  0.0444
 3000DOPS   CNO35194  26.038  12.819  16.859 -0.0850  0.1592 -0.1896
 3000DOPS   PO435195  25.984  13.011  16.561 -0.0672 -0.1240 -0.0279
 3000DOPS   GL135196  25.877  12.967  16.100  0.3321 -0.1139  0.2260
 3000DOPS   GL235197  25.608  13.089  16.111 -0.2858 -0.0110  0.0365
 3000DOPS   C1A35198  25.891  12.607  15.838 -0.2018  0.1113  0.1670
 3000DOPS   D2A35199  26.055  12.163  15.796 -0.1271 -0.3371 -0.2212
 3000DOPS   C3A35200  26.399  12.118  15.444 -0.2229 -0.4443 -0.2212
 3000DOPS   C4A35201  26.728  12.069  15.145  0.0920 -0.0489 -0.1101
 3000DOPS   C1B35202  25.857  13.265  15.747 -0.0090 -0.0618 -0.1277
 3000DOPS   D2B35203  26.079  13.496  15.379  0.1462  0.0429 -0.3739
 3000DOPS   C3B35204  25.852  13.334  15.060 -0.1177  0.0729  0.1141
 3000DOPS   C4B35205  25.907  13.149  14.628 -0.1960  0.2394 -0.2390
 3001DOPC   NC335206  34.189  23.795  16.898 -0.0092 -0.1033 -0.0889
 3001DOPC   PO435207  33.856  23.762  17.131  0.3540 -0.0750  0.4102
 3001DOPC   GL135208  33.533  23.743  17.017 -0.2109  0.0515 -0.4101
 3001DOPC   GL235209  33.466  23.518  16.883 -0.2105  0.0804  0.2570
 3001DOPC   C1A35210  33.274  23.951  16.667  0.1451  0.0097  0.1433
 3001DOPC   D2A35211  33.249  23.834  16.225  0.0693  0.0942  0.1608
 3001DOPC   C3A35212  33.261  23.927  15.747 -0.2859 -0.2069 -0.1113
 3001DOPC   C4A35213  33.167  24.053  15.299 -0.2925  0.1633  0.4365
 3001DOPC   C1B35214  33.612  23.510  16.412  0.1157  0.0889  0.2011
 3001DOPC   D2B35215  33.715  23.359  16.008  0.1552 -0.1613  0.0208
 3001DOPC   C3B35216  33.500  23.356  15.578 -0.0969 -0.2813  0.1120
 3001DOPC   C4B35217  33.189  23.546  15.245  0.2130 -0.0878  0.2310
 3002POSM   NC335218  31.754  15.872  16.922  0.0046  0.0757 -0.3742
 3002POSM   PO435219  31.824  15.932  16.524 -0.2955 -0.0807 -0.2328
 3002POSM   AM135220  31.562  15.912  16.336 -0.1061 -0.3339  0.1085
 3002POSM   AM235221  31.321  15.994  16.303 -0.1047 -0.0526 -0.2387
 3002POSM   T1A35222  31.306  15.713  15.918  0.4019  0.0537 -0.4024
 3002POSM   C2A35223  31.266  15.630  15.399 -0.3165  0.2033  0.2401
 3002POSM   C3A35224  31.096  15.456  15.053  0.0191  0.3128 -0.0034
 3002POSM   C1B35225  31.254  16.197  16.033 -0.0388  0.3056 -0.1669
 3002POSM   D2B35226  31.075  16.313  15.668 -0.1325  0.0398 -0.0659
 3002POSM   C3B35227  31.332  16.667  15.543 -0.2027  0.0310  0.0839
 3002POSM   C4B35228  31.772  16.639  15.437 -0.2200 -0.0747  0.1952
 3003DOPC   NC335229  28.405  14.102  17.505 -0.0232 -0.0060  0.0284
 3003DOPC   PO435230  28.285  13.898  17.174 -0.2052 -0.1957  0.1261
 3003DOPC   GL135231  28.545  13.674  16.897 -0.2415  0.0506 -0.1391
 3003DOPC   GL235232  28.816  13.580  16.838  0.0787 -0.0470 -0.1743
 3003DOPC   C1A35233  28.368  13.428  16.508 -0.1547  0.1194 -0.1410
 3003DOPC   D2A35234  28.644  13.139  16.235 -0.1122  0.1525 -0.2757
 3003DOPC   C3A35235  28.503  12.740  16.251  0.0898 -0.5657  0.3039
 3003DOPC   C4A35236  28.072  12.591  16.346  0.2603 -0.0181  0.2078
 3003DOPC   C1B35237  28.814  13.147  16.754 -0.0869  0.0834 -0.1194
 3003DOPC   D2B35238  28.968  12.771  16.497 -0.2386  0.1247 -0.0984
 3003DOPC   C3B35239  29.369  12.721  16.701 -0.0695  0.1204  0.0547
 3003DOPC   C4B35240  29.741  12.623  16.935 -0.1197  0.1194  0.0325
 3004DOPC   NC335241  32.585  11.810  17.102 -0.1191  0.0695 -0.2524
 3004DOPC   PO435242  32.393  12.144  17.235 -0.1858  0.3742  0.0478
 3004DOPC   GL135243  32.168  11.962  17.023 -0.1248 -0.2580 -0.2375
 3004DOPC   GL235244  31.908  12.134  16.935  0.0654 -0.1836  0.0331
 3004DOPC   C1A35245  32.159  11.740  16.674  0.0134 -0.1558  0.1472
 3004DOPC   D2A35246  32.087  11.355  16.351  0.4296  0.2185 -0.2999
 3004DOPC   C3A35247  32.090  11.434  15.878  0.1323 -0.0077  0.0075
 3004DOPC   C4A35248  31.761  11.633  15.593  0.4385 -0.0982  0.2952
 3004DOPC   C1B35249  31.860  12.196  16.456  0.0566  0.0571  0.1949
 3004DOPC   D2B35250  31.967  12.308  15.968  0.1101  0.0914  0.0620
 3004DOPC   C3B35251  31.972  12.460  15.552 -0.1261  0.2019 -0.0893
 3004DOPC   C4B35252  31.924  12.451  15.123  0.3637 -0.1474 -0.3010
 3005DOPE   NH335253  29.100  11.098  17.089  0.1196 -0.0024  0.3718
 3005DOPE   PO435254  29.350  11.267  17.122  0.0557 -0.0163 -0.2341
 3005DOPE   GL135255  29.419  11.083  16.717 -0.1505  0.0544  0.0201
 3005DOPE   GL235256  29.530  11.221  16.417 -0.1648  0.0946 -0.1440
 3005DOPE   C1A35257  29.483  10.675  16.516  0.2639 -0.0353  0.1289
 3005DOPE   D2A35258  29.544  10.446  16.111  0.0364 -0.2559 -0.1410
 3005DOPE   C3A35259  29.840  10.730  15.966  0.0407 -0.1220 -0.1561
 3005DOPE   C4A35260  30.215  10.910  15.724  0.0382 -0.3845  0.1543
 3005DOPE   C1B35261  29.503  11.182  15.985  0.0257 -0.1416 -0.0467
 3005DOPE   D2B35262  29.508  11.107  15.541 -0.1431  0.1804  0.0001
 3005DOPE   C3B35263  29.925  11.055  15.308  0.1176 -0.0763  0.3589
 3005DOPE   C4B35264  30.131  11.491  15.174  0.0441 -0.2708  0.2063
 3006POSM   NC335265  33.304  12.579  17.484 -0.0108 -0.0659  0.0152
 3006POSM   PO435266  33.017  12.666  17.214 -0.0931 -0.2652 -0.1806
 3006POSM   AM135267  33.032  12.672  16.885 -0.1857  0.1035  0.4085
 3006POSM   AM235268  33.197  12.737  16.695 -0.2220 -0.1722  0.2384
 3006POSM   T1A35269  32.804  12.477  16.494  0.1152  0.1476 -0.3408
 3006POSM   C2A35270  33.013  12.443  16.062 -0.2555 -0.1764  0.0564
 3006POSM   C3A35271  32.907  12.320  15.558 -0.1044 -0.0757  0.1338
 3006POSM   C1B35272  33.311  12.809  16.368 -0.0693  0.3824 -0.2461
 3006POSM   D2B35273  33.219  12.985  15.957  0.0591  0.0102  0.0599
 3006POSM   C3B35274  32.801  12.798  15.842 -0.2132  0.0749  0.0434
 3006POSM   C4B35275  32.474  12.792  15.529  0.1104  0.1163  0.0516
 3007POSM   NC335276  23.658  19.076  16.213  0.1171  0.4329 -0.2757
 3007POSM   PO435277  23.935  18.888  16.451 -0.1971  0.0185 -0.3993
 3007POSM   AM135278  24.104  18.724  16.220 -0.0468 -0.0855 -0.0219
 3007POSM   AM235279  24.311  18.531  16.288  0.2400 -0.2106 -0.0990
 3007POSM   T1A35280  24.305  18.681  15.769  0.1603 -0.0334  0.1426
 3007POSM   C2A35281  24.346  18.582  15.321 -0.1903 -0.0126 -0.0708
 3007POSM   C3A35282  24.328  18.573  14.840 -0.1728 -0.0989  0.2345
 3007POSM   C1B35283  24.660  18.598  16.138 -0.2161  0.2605 -0.1315
 3007POSM   D2B35284  24.894  18.574  15.741 -0.3646 -0.0637  0.1477
 3007POSM   C3B35285  24.860  18.545  15.321 -0.2567 -0.0571  0.2950
 3007POSM   C4B35286  24.942  18.270  14.931  0.2503 -0.1891 -0.0755
 3008DOPE   NH335287  23.857  13.634  16.133  0.1489 -0.4929 -0.0552
 3008DOPE   PO435288  24.098  13.560  16.018 -0.0702  0.1235 -0.0573
 3008DOPE   GL135289  24.250  13.282  15.779  0.1495 -0.0945 -0.1720
 3008DOPE   GL235290  24.463  13.136  15.854  0.0491  0.2323  0.2667
 3008DOPE   C1A35291  24.426  13.270  15.344 -0.1681 -0.1228  0.1073
 3008DOPE   D2A35292  24.516  13.322  14.899 -0.0970 -0.2590  0.0068
 3008DOPE   C3A35293  24.204  13.375  14.570  0.2527  0.2289  0.1331
 3008DOPE   C4A35294  23.926  13.008  14.457 -0.1356  0.0810  0.2227
 3008DOPE   C1B35295  24.837  13.047  15.623 -0.0142  0.4563 -0.0763
 3008DOPE   D2B35296  24.920  13.341  15.288 -0.0756  0.1726 -0.1671
 3008DOPE   C3B35297  24.980  13.276  14.839 -0.1686 -0.0094  0.3391
 3008DOPE   C4B35298  24.718  13.087  14.483 -0.4628  0.1919 -0.0692
 3009POSM   NC335299  23.439  13.798  15.758  0.3150 -0.0168 -0.0851
 3009POSM   PO435300  23.395  13.431  15.895 -0.0920 -0.0958 -0.0685
 3009POSM   AM135301  23.703  13.397  15.735  0.4277  0.1152  0.0906
 3009POSM   AM235302  23.809  13.565  15.520 -0.0467 -0.2018  0.0171
 3009POSM   T1A35303  23.964  13.096  15.394  0.2035 -0.0385  0.0686
 3009POSM   C2A35304  24.172  12.756  15.138  0.2736 -0.2478  0.1666
 3009POSM   C3A35305  24.343  12.793  14.701  0.1793 -0.1120 -0.1112
 3009POSM   C1B35306  23.980  13.576  15.258  0.0003  0.2172 -0.0412
 3009POSM   D2B35307  24.157  13.806  14.925 -0.1891 -0.3108  0.3499
 3009POSM   C3B35308  24.112  13.899  14.485  0.0105  0.3118 -0.0292
 3009POSM   C4B35309  24.005  13.821  14.051 -0.1545  0.4473  0.3411
 3010DOPE   NH335310  27.390  21.166  17.246 -0.0031 -0.0896  0.0278
 3010DOPE   PO435311  27.302  21.205  16.915  0.0119  0.2103  0.2362
 3010DOPE   GL135312  27.536  21.523  16.804  0.0042  0.0740 -0.1601
 3010DOPE   GL235313  27.404  21.664  16.610  0.2353  0.1683  0.0923
 3010DOPE   C1A35314  27.895  21.687  16.542 -0.0027 -0.1045 -0.1419
 3010DOPE   D2A35315  28.299  21.667  16.268  0.0817  0.3627 -0.1842
 3010DOPE   C3A35316  28.218  21.455  15.882  0.1576  0.0353 -0.2468
 3010DOPE   C4A35317  27.821  21.404  15.610 -0.1490 -0.0115  0.0539
 3010DOPE   C1B35318  27.536  22.026  16.348  0.0445 -0.3320  0.0438
 3010DOPE   D2B35319  27.673  22.389  16.040 -0.2388  0.1162  0.0708
 3010DOPE   C3B35320  27.733  22.205  15.611 -0.1217 -0.0469  0.1852
 3010DOPE   C4B35321  27.558  21.810  15.357 -0.0502 -0.1277  0.0434
 3011POSM   NC335322  23.005  16.913  15.420 -0.1590  0.2632 -0.0846
 3011POSM   PO435323  22.838  17.247  15.291 -0.0461 -0.0228  0.1274
 3011POSM   AM135324  22.992  17.149  14.998 -0.0231 -0.0998 -0.3627
 3011POSM   AM235325  23.043  16.948  14.876 -0.0554 -0.1512  0.2154
 3011POSM   T1A35326  23.210  17.391  14.593  0.3372 -0.0700 -0.0493
 3011POSM   C2A35327  23.047  17.677  14.283 -0.4258 -0.1083  0.2588
 3011POSM   C3A35328  23.186  17.947  13.957  0.0721 -0.0486  0.0745
 3011POSM   C1B35329  23.089  16.841  14.590 -0.2093  0.0844  0.1022
 3011POSM   D2B35330  23.423  16.652  14.310  0.0941 -0.2229  0.0943
 3011POSM   C3B35331  23.176  16.235  14.142  0.3089 -0.1807 -0.0730
 3011POSM   C4B35332  23.148  15.756  14.072 -0.2064  0.0653 -0.0748
 3012DOPS   CNO35333  33.847  13.667  17.086  0.1141  0.3439  0.0718
 3012DOPS   PO435334  33.811  14.007  17.193 -0.0898 -0.0200  0.0027
 3012DOPS   GL135335  33.789  14.010  16.790 -0.3145 -0.0770 -0.1372
 3012DOPS   GL235336  34.065  13.957  16.730  0.0262 -0.3290 -0.0299
 3012DOPS   C1A35337  33.616  13.763  16.435 -0.1555  0.0005  0.1156
 3012DOPS   D2A35338  33.795  13.836  16.017  0.2426 -0.2406 -0.1074
 3012DOPS   C3A35339  33.589  13.544  15.638  0.0720 -0.1338 -0.1431
 3012DOPS   C4A35340  33.228  13.238  15.513 -0.3551 -0.0635 -0.3203
 3012DOPS   C1B35341  34.214  13.676  16.427 -0.0470 -0.0608 -0.2908
 3012DOPS   D2B35342  34.287  13.585  15.957  0.1057 -0.2176 -0.0645
 3012DOPS   C3B35343  34.426  13.170  16.009 -0.0601  0.4112  0.0154
 3012DOPS   C4B35344  34.570  12.832  15.680  0.1429 -0.1875 -0.3186
 3013DOPC   NC335345  28.866  21.250  16.833  0.4443  0.0056 -0.1599
 3013DOPC   PO435346  29.023  20.889  16.824  0.0245 -0.2128  0.3878
 3013DOPC   GL135347  28.870  20.980  16.413  0.1275  0.1086 -0.1160
 3013DOPC   GL235348  29.081  21.092  16.294 -0.0925 -0.2760  0.3457
 3013DOPC   C1A35349  28.587  20.665  16.214 -0.0366  0.1900  0.1097
 3013DOPC   D2A35350  28.519  20.313  15.927  0.0270 -0.1130 -0.0034
 3013DOPC   C3A35351  28.587  19.937  15.687  0.1922  0.1668 -0.1402
 3013DOPC   C4A35352  28.648  19.501  15.529 -0.2152 -0.0350 -0.0220
 3013DOPC   C1B35353  28.885  20.942  15.931  0.2860  0.0087  0.3629
 3013DOPC   D2B35354  28.504  20.857  15.750 -0.2042  0.3036 -0.1757
 3013DOPC   C3B35355  28.391  21.072  15.369 -0.3499  0.1594  0.3972
 3013DOPC   C4B35356  28.126  21.136  14.995 -0.1302  0.1112  0.2334
 3014DOPS   CNO35357  22.630  21.928  16.504 -0.0584  0.2063 -0.1279
 3014DOPS   PO435358  22.908  22.039  16.329 -0.0596 -0.0548  0.1918
 3014DOPS   GL135359  22.997  22.392  16.092  0.2282  0.2630  0.5023
 3014DOPS   GL235360  23.094  22.538  16.352  0.0669 -0.2429 -0.1307
 3014DOPS   C1A35361  23.098  22.473  15.641 -0.0176  0.0521  0.0461
 3014DOPS   D2A35362  23.000  22.251  15.263 -0.4209 -0.0401  0.0098
 3014DOPS   C3A35363  23.104  21.815  15.224 -0.2597  0.0150 -0.3746
 3014DOPS   C4A35364  23.531  21.580  15.294  0.1063 -0.2315 -0.0992
 3014DOPS   C1B35365  23.170  22.914  16.034  0.0044 -0.0133  0.1692
 3014DOPS   D2B35366  23.006  22.977  15.579 -0.1150 -0.3813 -0.2392
 3014DOPS   C3B35367  23.150  22.819  15.078 -0.0184 -0.3625  0.3684
 3014DOPS   C4B35368  23.258  22.426  14.817  0.1721  0.0509 -0.0927
 3015DOPE   NH335369  32.003  20.662  16.757 -0.0992  0.0087 -0.1167
 3015DOPE   PO435370  31.913  20.560  16.485 -0.1512  0.1365  0.3151
 3015DOPE   GL135371  32.107  20.535  16.148 -0.0630  0.1212 -0.2083
 3015DOPE   GL235372  32.193  20.851  16.145 -0.3003  0.0228 -0.0537
 3015DOPE   C1A35373  32.527  20.490  15.934 -0.0353 -0.1487 -0.0553
 3015DOPE   D2A35374  32.870  20.347  16.180  0.0933 -0.1909 -0.0940
 3015DOPE   C3A35375  33.203  20.656  16.092  0.5122  0.2465  0.1008
 3015DOPE   C4A35376  33.471  21.079  16.129 -0.2480  0.0900  0.2345
 3015DOPE   C1B35377  32.085  20.754  15.695 -0.2464  0.0000  0.0725
 3015DOPE   D2B35378  32.205  20.743  15.259 -0.0774  0.1135 -0.1552
 3015DOPE   C3B35379  32.274  21.122  15.008 -0.0589 -0.1268 -0.1661
 3015DOPE   C4B35380  32.409  21.455  14.736  0.2260  0.0410 -0.3164
 3016DOPC   NC335381  23.988  17.765  16.840  0.1501 -0.2018  0.1549
 3016DOPC   PO435382  24.149  17.539  16.573 -0.1940  0.1794 -0.5017
 3016DOPC   GL135383  24.246  17.463  16.141  0.2342  0.2128  0.1806
 3016DOPC   GL235384  24.495  17.523  16.097  0.1204  0.1147  0.0371
 3016DOPC   C1A35385  24.132  17.341  15.727 -0.0515  0.0667  0.2667
 3016DOPC   D2A35386  23.927  17.570  15.397  0.0680  0.3304  0.1744
 3016DOPC   C3A35387  24.003  17.789  14.965  0.2886 -0.1192  0.1797
 3016DOPC   C4A35388  24.202  17.911  14.563  0.2994 -0.0925  0.1482
 3016DOPC   C1B35389  24.581  17.523  15.651 -0.0253 -0.2100  0.1507
 3016DOPC   D2B35390  24.427  17.369  15.276  0.2350 -0.1407 -0.2418
 3016DOPC   C3B35391  24.652  17.552  14.908 -0.3960  0.1983 -0.0212
 3016DOPC   C4B35392  24.709  17.941  14.619  0.0803 -0.0380  0.0779
 3017DOPS   CNO35393  22.890  14.649  15.515 -0.3105  0.0199 -0.1680
 3017DOPS   PO435394  22.605  14.761  15.368  0.0637 -0.1871 -0.1255
 3017DOPS   GL135395  22.619  14.592  15.108 -0.1171  0.2627 -0.1886
 3017DOPS   GL235396  22.889  14.519  14.991  0.0103 -0.0742  0.0459
 3017DOPS   C1A35397  22.575  14.761  14.653  0.0441  0.4045  0.1529
 3017DOPS   D2A35398  22.731  14.697  14.214 -0.2318  0.1726 -0.0824
 3017DOPS   C3A35399  22.467  14.903  13.871  0.3617  0.0836 -0.3578
 3017DOPS   C4A35400  22.067  15.113  13.916  0.1377  0.0423  0.4390
 3017DOPS   C1B35401  22.589  14.236  14.837 -0.3375 -0.2430  0.3093
 3017DOPS   D2B35402  22.495  14.156  14.395 -0.1294 -0.1583  0.3963
 3017DOPS   C3B35403  22.255  14.049  14.078 -0.1422 -0.3417 -0.0219
 3017DOPS   C4B35404  21.860  13.958  13.849  0.1214  0.2746 -0.1497
 3018DOPC   NC335405  26.988  14.556  16.324  0.0069 -0.0656  0.2340
 3018DOPC   PO435406  26.791  14.203  16.319  0.1529 -0.0055  0.1693
 3018DOPC   GL135407  26.776  13.975  15.889 -0.2517 -0.1850  0.2331
 3018DOPC   GL235408  26.926  14.233  15.839  0.3020 -0.0076  0.0120
 3018DOPC   C1A35409  26.459  13.670  15.745 -0.1401 -0.1505  0.2756
 3018DOPC   D2A35410  26.396  13.234  15.735  0.1411  0.0072 -0.3475
 3018DOPC   C3A35411  26.469  13.121  15.281  0.0927  0.0310  0.3461
 3018DOPC   C4A35412  26.369  13.432  14.919 -0.1445  0.0730 -0.1703
 3018DOPC   C1B35413  27.064  14.113  15.446 -0.2064  0.4250 -0.1108
 3018DOPC   D2B35414  27.340  14.380  15.182 -0.0397  0.0441  0.0975
 3018DOPC   C3B35415  27.051  14.504  14.855  0.0768 -0.2374  0.0662
 3018DOPC   C4B35416  27.086  14.860  14.575 -0.1164  0.1733  0.1971
 3019DOPE   NH335417  32.898  20.720  16.593 -0.1029 -0.0725 -0.2086
 3019DOPE   PO435418  33.126  20.639  16.761  0.0389  0.3089 -0.1425
 3019DOPE   GL135419  33.351  20.472  16.573  0.1970  0.3511 -0.0862
 3019DOPE   GL235420  33.529  20.719  16.494 -0.1597  0.0178  0.0339
 3019DOPE   C1A35421  33.541  20.033  16.571  0.1580  0.2313  0.2509
 3019DOPE   D2A35422  33.739  19.766  16.264  0.1877  0.1693 -0.2263
 3019DOPE   C3A35423  33.824  19.857  15.848 -0.2473  0.2832 -0.0174
 3019DOPE   C4A35424  33.609  20.125  15.522 -0.1844  0.1954  0.3047
 3019DOPE   C1B35425  33.757  20.356  16.180 -0.3008 -0.1838  0.0324
 3019DOPE   D2B35426  34.010  20.421  15.770 -0.2374 -0.4233 -0.0793
 3019DOPE   C3B35427  34.162  20.285  15.377 -0.0145  0.3387 -0.3862
 3019DOPE   C4B35428  34.464  20.518  15.135 -0.0089 -0.4608 -0.0560
 3020POSM   NC335429  29.869  20.825  17.390 -0.1704  0.0225 -0.0787
 3020POSM   PO435430  30.116  20.736  17.095  0.0724 -0.0542  0.1065
 3020POSM   AM135431  30.000  20.668  16.764 -0.1195  0.1695 -0.0970
 3020POSM   AM235432  30.071  20.695  16.489  0.3276 -0.0462 -0.0488
 3020POSM   T1A35433  29.670  20.373  16.472 -0.1511 -0.2541 -0.0527
 3020POSM   C2A35434  29.265  20.078  16.402  0.0656  0.1202 -0.1643
 3020POSM   C3A35435  28.951  20.083  16.074 -0.1933 -0.1830  0.1906
 3020POSM   C1B35436  30.056  20.659  16.181  0.0362 -0.1742 -0.0110
 3020POSM   D2B35437  30.267  20.396  15.864  0.2423 -0.3401 -0.1130
 3020POSM   C3B35438  30.201  20.655  15.491  0.1358 -0.2835 -0.0439
 3020POSM   C4B35439  29.838  20.916  15.380 -0.2794 -0.2035 -0.0424
 3021DOPE   NH335440  27.796  21.057  16.880  0.0485  0.0438 -0.1643
 3021DOPE   PO435441  27.603  20.791  16.984 -0.1000  0.1970 -0.2932
 3021DOPE   GL135442  27.654  20.629  16.638  0.1028  0.2451  0.0937
 3021DOPE   GL235443  27.545  20.355  16.505  0.2903 -0.0542  0.0064
 3021DOPE   C1A35444  27.674  20.638  16.160 -0.5418 -0.2068  0.1176
 3021DOPE   D2A35445  27.677  20.948  15.768 -0.2093  0.2611  0.1406
 3021DOPE   C3A35446  27.839  20.865  15.320  0.0835  0.2988  0.0106
 3021DOPE   C4A35447  28.025  20.461  14.980 -0.1492  0.2659  0.0005
 3021DOPE   C1B35448  27.805  20.098  16.281  0.3835 -0.1197 -0.0771
 3021DOPE   D2B35449  27.837  19.806  15.946  0.0972  0.0660  0.1726
 3021DOPE   C3B35450  27.683  19.916  15.536 -0.2724  0.0427  0.2358
 3021DOPE   C4B35451  27.755  19.993  15.091  0.0753 -0.0257  0.3193
 3022POSM   NC335452  31.422  20.522  16.376  0.0309 -0.1358  0.3972
 3022POSM   PO435453  31.085  20.658  16.541  0.2657  0.0025  0.2167
 3022POSM   AM135454  31.031  20.753  16.213  0.3728 -0.1816  0.0707
 3022POSM   AM235455  31.201  20.795  15.986 -0.3645  0.1902  0.0531
 3022POSM   T1A35456  30.725  20.740  15.782 -0.1191  0.2554  0.0687
 3022POSM   C2A35457  30.670  20.837  15.393  0.3194 -0.2107  0.0886
 3022POSM   C3A35458  30.749  21.150  15.064 -0.4279  0.3393  0.1635
 3022POSM   C1B35459  31.355  20.954  15.690  0.0252 -0.2497  0.2179
 3022POSM   D2B35460  31.709  20.937  15.415  0.0559  0.0540 -0.2369
 3022POSM   C3B35461  31.608  20.603  15.055  0.3475  0.1985  0.3241
 3022POSM   C4B35462  31.694  20.566  14.638 -0.2058 -0.0140  0.1709
 3023DOPC   NC335463  31.741  16.429  16.395  0.0681  0.2321  0.1523
 3023DOPC   PO435464  31.515  16.280  16.705 -0.1718 -0.0249  0.1396
 3023DOPC   GL135465  31.220  16.571  16.479  0.0041 -0.0207  0.0309
 3023DOPC   GL235466  30.986  16.674  16.626  0.0207 -0.3239  0.0645
 3023DOPC   C1A35467  31.420  16.728  16.054 -0.1347  0.0967  0.0973
 3023DOPC   D2A35468  31.475  17.118  15.782 -0.2355 -0.4174  0.1252
 3023DOPC   C3A35469  31.184  17.144  15.384 -0.1712 -0.2000  0.1754
 3023DOPC   C4A35470  31.208  17.000  14.936  0.1775  0.2043 -0.0864
 3023DOPC   C1B35471  30.919  16.682  16.152 -0.0940  0.0423  0.2949
 3023DOPC   D2B35472  30.900  16.827  15.718 -0.2066 -0.0883  0.1011
 3023DOPC   C3B35473  30.885  16.730  15.259  0.1558  0.1816 -0.0854
 3023DOPC   C4B35474  30.615  16.407  14.998  0.1144  0.2508  0.2364
 3024DOPE   NH335475  30.420  22.336  17.348  0.0749 -0.0421 -0.2627
 3024DOPE   PO435476  30.732  22.344  17.276 -0.3643  0.3342  0.3433
 3024DOPE   GL135477  30.540  22.468  16.934 -0.3930 -0.2418 -0.0814
 3024DOPE   GL235478  30.701  22.535  16.621 -0.2664  0.2372  0.0041
 3024DOPE   C1A35479  30.368  22.230  16.551  0.1799 -0.0808 -0.1386
 3024DOPE   D2A35480  30.129  22.028  16.195 -0.2214 -0.0944  0.1670
 3024DOPE   C3A35481  30.160  22.018  15.706  0.3195  0.1044  0.0207
 3024DOPE   C4A35482  29.978  21.953  15.301  0.1229  0.0157  0.2217
 3024DOPE   C1B35483  30.840  22.465  16.156 -0.0458 -0.2939  0.1148
 3024DOPE   D2B35484  30.489  22.528  15.811  0.2281 -0.1907 -0.1031
 3024DOPE   C3B35485  30.123  22.545  16.078 -0.0009 -0.2178  0.0674
 3024DOPE   C4B35486  29.721  22.421  16.027 -0.1209  0.2599  0.0279
 3025POSM   NC335487  29.495  11.722  17.293 -0.0450 -0.1795 -0.4822
 3025POSM   PO435488  29.650  12.063  17.148 -0.1502  0.1694  0.1708
 3025POSM   AM135489  29.800  12.067  16.822  0.1034  0.6132 -0.1115
 3025POSM   AM235490  30.052  12.064  16.690 -0.0256  0.0442 -0.0190
 3025POSM   T1A35491  29.732  11.835  16.348 -0.1506  0.3987  0.0331
 3025POSM   C2A35492  29.445  11.688  16.018 -0.2906 -0.0894  0.0858
 3025POSM   C3A35493  29.014  11.642  15.810 -0.0890 -0.2449  0.0157
 3025POSM   C1B35494  30.177  12.371  16.577 -0.0374  0.2064  0.0456
 3025POSM   D2B35495  30.336  12.645  16.241  0.4504 -0.1585 -0.0041
 3025POSM   C3B35496  30.193  12.693  15.801 -0.1235  0.0110 -0.0130
 3025POSM   C4B35497  30.240  12.743  15.368 -0.3509 -0.1327 -0.3135
 3026DOPE   NH335498  33.413  21.822  17.231  0.1659  0.2744 -0.1900
 3026DOPE   PO435499  33.307  22.057  17.025  0.2458 -0.0754  0.0545
 3026DOPE   GL135500  33.462  22.119  16.696 -0.0131  0.4513  0.4289
 3026DOPE   GL235501  33.694  21.952  16.662  0.1073 -0.0396  0.1598
 3026DOPE   C1A35502  33.283  22.007  16.262  0.1902 -0.1438  0.0677
 3026DOPE   D2A35503  33.132  21.749  15.972  0.0853 -0.0516 -0.2082
 3026DOPE   C3A35504  33.034  21.985  15.575  0.2294  0.4229  0.2347
 3026DOPE   C4A35505  32.909  22.011  15.177 -0.0384 -0.0989 -0.1741
 3026DOPE   C1B35506  33.796  22.030  16.266 -0.1440 -0.1828 -0.3081
 3026DOPE   D2B35507  33.894  21.948  15.817 -0.0085  0.0355  0.1794
 3026DOPE   C3B35508  34.162  21.875  15.430 -0.1975 -0.1673 -0.1200
 3026DOPE   C4B35509  34.424  21.579  15.168  0.3012 -0.2183 -0.0371
 3027DOPE   NH335510  23.535  15.532  15.509  0.1431  0.0603 -0.1011
 3027DOPE   PO435511  23.332  15.426  15.699 -0.1617 -0.0907  0.0662
 3027DOPE   GL135512  23.208  15.325  15.271 -0.3811 -0.0337 -0.5418
 3027DOPE   GL235513  23.172  15.040  15.350  0.1389  0.3711  0.1015
 3027DOPE   C1A35514  23.462  15.446  14.921 -0.0258 -0.0478 -0.2923
 3027DOPE   D2A35515  23.540  15.694  14.514  0.0704 -0.0575  0.1559
 3027DOPE   C3A35516  23.133  15.894  14.510 -0.0010 -0.1220  0.0082
 3027DOPE   C4A35517  23.037  16.379  14.592  0.1368  0.4424 -0.0442
 3027DOPE   C1B35518  23.440  14.911  15.027 -0.0941  0.3823  0.1441
 3027DOPE   D2B35519  23.798  14.868  14.739 -0.1824 -0.0375 -0.2657
 3027DOPE   C3B35520  24.112  14.847  14.407  0.2291  0.1414  0.1444
 3027DOPE   C4B35521  24.498  14.760  14.177 -0.0175  0.1761 -0.0379
 3028DOPE   NH335522  32.400  19.519  16.645 -0.2089 -0.0086  0.7119
 3028DOPE   PO435523  32.163  19.284  16.783 -0.1256  0.1267 -0.0297
 3028DOPE   GL135524  32.038  19.367  16.316  0.2712  0.1464 -0.4567
 3028DOPE   GL235525  31.736  19.383  16.293  0.0947  0.2228 -0.5507
 3028DOPE   C1A35526  32.088  19.251  15.878  0.0630  0.0145  0.1400
 3028DOPE   D2A35527  32.038  19.348  15.410 -0.2063 -0.1696  0.0008
 3028DOPE   C3A35528  31.632  19.368  15.207 -0.0562  0.3179  0.1020
 3028DOPE   C4A35529  31.195  19.199  15.118  0.0289 -0.2538 -0.0465
 3028DOPE   C1B35530  31.295  19.287  16.134 -0.1024 -0.0254 -0.1267
 3028DOPE   D2B35531  30.893  19.056  16.167  0.0053 -0.0504  0.1503
 3028DOPE   C3B35532  30.464  19.062  15.893  0.0281  0.1140  0.4626
 3028DOPE   C4B35533  30.229  19.400  15.610 -0.4069  0.0314  0.0815
 3029DOPE   NH335534  24.743  12.885  16.305  0.0215  0.2806 -0.3280
 3029DOPE   PO435535  24.502  12.774  16.179 -0.0915  0.2042  0.0292
 3029DOPE   GL135536  24.288  12.612  15.869  0.1583  0.0441  0.3247
 3029DOPE   GL235537  24.363  12.681  15.583 -0.0108 -0.0712 -0.0543
 3029DOPE   C1A35538  24.005  12.325  15.605 -0.0729 -0.0854 -0.1186
 3029DOPE   D2A35539  23.540  12.167  15.599 -0.1755  0.1270 -0.1955
 3029DOPE   C3A35540  23.245  11.862  15.464 -0.2677 -0.1246  0.0419
 3029DOPE   C4A35541  23.051  11.920  15.047 -0.1286 -0.1366 -0.3159
 3029DOPE   C1B35542  24.664  12.746  15.220 -0.1584 -0.0468 -0.1390
 3029DOPE   D2B35543  24.735  12.470  14.842  0.0525  0.1347  0.1814
 3029DOPE   C3B35544  24.601  12.467  14.416 -0.0192  0.1695  0.0992
 3029DOPE   C4B35545  24.257  12.639  14.178  0.1438 -0.1166 -0.2060
 3030POSM   NC335546  32.057  14.198  17.074 -0.1039 -0.3905  0.0329
 3030POSM   PO435547  32.213  14.495  17.291 -0.1384  0.0918 -0.1434
 3030POSM   AM135548  32.093  14.677  17.009 -0.1361  0.0827  0.2139
 3030POSM   AM235549  31.903  14.858  16.872  0.0926 -0.0422  0.1694
 3030POSM   T1A35550  32.224  14.837  16.526 -0.3338 -0.0400 -0.0757
 3030POSM   C2A35551  31.975  14.982  16.173 -0.1083 -0.1733 -0.3829
 3030POSM   C3A35552  31.551  14.921  16.092 -0.3045  0.0678  0.2698
 3030POSM   C1B35553  31.750  14.754  16.605  0.1173 -0.1088  0.3981
 3030POSM   D2B35554  31.811  14.484  16.205 -0.2862 -0.1469  0.6455
 3030POSM   C3B35555  31.903  14.559  15.742  0.0448 -0.1952  0.1839
 3030POSM   C4B35556  31.588  14.343  15.437  0.1776  0.0945 -0.1238
 3031DOPE   NH335557  31.815  19.845  17.050  0.0487 -0.1992  0.2200
 3031DOPE   PO435558  31.922  19.760  16.753  0.2823  0.0985  0.2031
 3031DOPE   GL135559  31.939  19.794  16.368 -0.3181 -0.0181  0.0543
 3031DOPE   GL235560  32.086  20.098  16.399  0.2245 -0.1669  0.3662
 3031DOPE   C1A35561  31.884  19.677  15.929  0.1848 -0.0079  0.1023
 3031DOPE   D2A35562  31.633  19.382  15.701  0.0769 -0.0990  0.0628
 3031DOPE   C3A35563  31.143  19.333  15.614  0.1426  0.0057  0.2283
 3031DOPE   C4A35564  30.707  19.193  15.476 -0.0725  0.0868 -0.1476
 3031DOPE   C1B35565  32.161  20.092  15.984  0.4335 -0.1761  0.0348
 3031DOPE   D2B35566  32.221  20.309  15.572 -0.0283  0.2316 -0.1824
 3031DOPE   C3B35567  32.636  20.431  15.426  0.0575 -0.1465  0.0498
 3031DOPE   C4B35568  32.975  20.441  15.156 -0.3059 -0.3741  0.1478
 3032DOPE   NH335569  32.577  22.551  17.063 -0.0896  0.3607  0.0568
 3032DOPE   PO435570  32.330  22.402  16.924 -0.2781  0.0660  0.4647
 3032DOPE   GL135571  32.598  22.373  16.668 -0.0941  0.1270 -0.1571
 3032DOPE   GL235572  32.903  22.369  16.621  0.1246  0.1557  0.2313
 3032DOPE   C1A35573  32.664  22.622  16.250  0.0269  0.2275 -0.0241
 3032DOPE   D2A35574  32.480  22.918  15.933  0.3763 -0.0043 -0.0147
 3032DOPE   C3A35575  32.195  22.834  15.598  0.1150  0.0864  0.2339
 3032DOPE   C4A35576  31.967  22.942  15.190  0.0533 -0.0102 -0.1063
 3032DOPE   C1B35577  33.130  22.719  16.453  0.0156 -0.1217  0.0054
 3032DOPE   D2B35578  33.496  23.011  16.286  0.2125 -0.1214  0.3084
 3032DOPE   C3B35579  33.886  23.086  16.496  0.0348 -0.1944  0.1414
 3032DOPE   C4B35580  34.161  23.223  16.836 -0.4210  0.1714  0.1345
 3033POSM   NC335581  30.901  15.802  17.148 -0.2070 -0.0515  0.4186
 3033POSM   PO435582  31.252  16.035  17.009 -0.1700  0.1997  0.0921
 3033POSM   AM135583  31.069  15.970  16.757  0.0353 -0.0421 -0.0007
 3033POSM   AM235584  30.893  16.172  16.726  0.2635  0.0847  0.1727
 3033POSM   T1A35585  30.874  15.688  16.385 -0.0291 -0.1377 -0.0351
 3033POSM   C2A35586  30.595  15.476  16.038  0.0899  0.1838  0.1146
 3033POSM   C3A35587  30.335  15.216  15.835  0.1402 -0.1217  0.1318
 3033POSM   C1B35588  30.809  16.200  16.421 -0.2029  0.0613 -0.1052
 3033POSM   D2B35589  30.665  16.300  16.008  0.0117 -0.3491 -0.0631
 3033POSM   C3B35590  30.749  15.905  15.792  0.1137 -0.0153  0.0407
 3033POSM   C4B35591  30.747  15.471  15.535 -0.2061 -0.4858 -0.1140
 3034DOPC   NC335592  25.250  19.719  17.249 -0.0355 -0.0155  0.2525
 3034DOPC   PO435593  25.491  19.397  17.145 -0.3737  0.1685  0.1991
 3034DOPC   GL135594  25.571  19.323  16.769  0.2387  0.3816 -0.1038
 3034DOPC   GL235595  25.818  19.233  16.622  0.2430 -0.3797 -0.0968
 3034DOPC   C1A35596  25.371  19.248  16.321  0.0116 -0.1452  0.1612
 3034DOPC   D2A35597  25.241  19.033  15.922 -0.0321 -0.3687 -0.0601
 3034DOPC   C3A35598  25.345  18.793  15.536 -0.1738  0.0469 -0.1662
 3034DOPC   C4A35599  25.684  18.664  15.261  0.0575 -0.1227 -0.6300
 3034DOPC   C1B35600  25.957  19.372  16.235 -0.1137  0.1048 -0.3769
 3034DOPC   D2B35601  25.957  19.365  15.772  0.1016  0.0183 -0.1009
 3034DOPC   C3B35602  25.932  19.723  15.513  0.0738 -0.1825 -0.1519
 3034DOPC   C4B35603  25.626  20.049  15.352 -0.1665  0.2051 -0.0330
 3035DOPE   NH335604  24.750  14.407  15.922  0.1376  0.2081  0.0613
 3035DOPE   PO435605  24.526  14.596  16.029 -0.1303  0.0295 -0.0980
 3035DOPE   GL135606  24.434  14.549  15.575  0.5227 -0.1197 -0.1734
 3035DOPE   GL235607  24.651  14.785  15.564  0.1613 -0.1793 -0.1010
 3035DOPE   C1A35608  24.478  14.258  15.225 -0.0206  0.0421 -0.2500
 3035DOPE   D2A35609  24.557  14.072  14.819 -0.0087 -0.2569  0.3446
 3035DOPE   C3A35610  24.857  14.079  14.517  0.2258  0.2690  0.2160
 3035DOPE   C4A35611  25.176  13.772  14.324  0.2754 -0.3529  0.1586
 3035DOPE   C1B35612  24.725  14.957  15.097  0.0105 -0.0044  0.2265
 3035DOPE   D2B35613  25.043  15.133  14.791  0.1518 -0.1181 -0.0205
 3035DOPE   C3B35614  25.202  15.212  15.206  0.2292 -0.1821 -0.2431
 3035DOPE   C4B35615  25.136  15.310  15.709  0.0849 -0.2386  0.3753
 3036DOPC   NC335616  33.585  17.248  16.474  0.0337  0.1324  0.2079
 3036DOPC   PO435617  33.291  16.976  16.325  0.0082  0.2383 -0.0530
 3036DOPC   GL135618  32.950  17.082  16.082 -0.0363 -0.1774  0.2497
 3036DOPC   GL235619  32.985  16.850  15.903  0.0702 -0.0696  0.0973
 3036DOPC   C1A35620  32.888  17.423  15.763 -0.0313 -0.1931  0.0004
 3036DOPC   D2A35621  32.410  17.607  15.714  0.2534  0.4584  0.1398
 3036DOPC   C3A35622  32.371  17.363  15.287 -0.1017 -0.0647  0.2739
 3036DOPC   C4A35623  32.564  17.389  14.846  0.3511  0.2983  0.4852
 3036DOPC   C1B35624  33.339  17.053  15.645 -0.1036  0.2377 -0.1019
 3036DOPC   D2B35625  33.686  16.803  15.552 -0.0475  0.1861 -0.0988
 3036DOPC   C3B35626  33.926  16.646  15.216  0.0320 -0.0980 -0.1873
 3036DOPC   C4B35627  34.131  16.423  14.870 -0.0363 -0.1971  0.0160
 3037POSM   NC335628  24.872  12.056  16.783  0.1782 -0.1324  0.3062
 3037POSM   PO435629  24.584  11.957  16.506  0.1307  0.1490 -0.2887
 3037POSM   AM135630  24.572  11.940  16.140 -0.2033  0.1693 -0.1657
 3037POSM   AM235631  24.677  11.737  15.968  0.0440  0.0563 -0.0559
 3037POSM   T1A35632  24.368  12.014  15.677  0.4850  0.1201 -0.1344
 3037POSM   C2A35633  24.257  12.157  15.190 -0.2395  0.1191  0.0634
 3037POSM   C3A35634  24.291  12.286  14.795  0.2115  0.3871  0.4104
 3037POSM   C1B35635  24.655  11.610  15.633 -0.0273 -0.1135  0.3332
 3037POSM   D2B35636  24.483  11.654  15.229  0.0101  0.1381  0.1885
 3037POSM   C3B35637  24.624  11.409  14.891  0.0953 -0.1780 -0.0680
 3037POSM   C4B35638  24.767  11.397  14.485 -0.1240 -0.1515  0.2782
 3038DOPE   NH335639  30.735  14.493  17.235  0.2526 -0.0520 -0.1371
 3038DOPE   PO435640  30.998  14.469  17.088 -0.1195  0.2895  0.0751
 3038DOPE   GL135641  31.161  14.241  16.824  0.1826  0.0078 -0.1367
 3038DOPE   GL235642  31.184  14.360  16.578 -0.4185  0.2503  0.0549
 3038DOPE   C1A35643  31.152  13.910  16.445 -0.0572 -0.0323  0.0735
 3038DOPE   D2A35644  30.924  13.681  16.134  0.0175 -0.3655  0.2020
 3038DOPE   C3A35645  30.679  13.416  15.784  0.1901 -0.1363  0.0272
 3038DOPE   C4A35646  30.536  13.312  15.319  0.3936  0.0180 -0.1670
 3038DOPE   C1B35647  31.166  14.780  16.411 -0.0019 -0.0970  0.1051
 3038DOPE   D2B35648  31.174  15.227  16.231 -0.0958  0.0755  0.1238
 3038DOPE   C3B35649  31.232  15.192  15.799  0.2022  0.1074 -0.0181
 3038DOPE   C4B35650  31.054  15.078  15.357  0.1122 -0.0283 -0.1795
 3039DOPE   NH335651  32.709  15.652  16.623 -0.0996  0.2440 -0.0117
 3039DOPE   PO435652  32.966  15.860  16.531  0.0787  0.0415 -0.2550
 3039DOPE   GL135653  32.768  15.932  16.202 -0.0308 -0.1867 -0.3400
 3039DOPE   GL235654  32.517  15.750  16.170  0.1091 -0.0440  0.4899
 3039DOPE   C1A35655  32.905  15.765  15.812  0.0217 -0.1642 -0.0763
 3039DOPE   D2A35656  33.050  15.620  15.457 -0.0985  0.3922  0.1515
 3039DOPE   C3A35657  33.516  15.768  15.558  0.1225 -0.1279  0.0526
 3039DOPE   C4A35658  33.997  15.806  15.470  0.0704 -0.4762 -0.3142
 3039DOPE   C1B35659  32.460  15.753  15.705  0.0964  0.1338 -0.2756
 3039DOPE   D2B35660  32.314  15.641  15.238  0.1574  0.0547  0.2123
 3039DOPE   C3B35661  32.085  15.331  15.011  0.0988 -0.1712 -0.2404
 3039DOPE   C4B35662  31.933  14.934  14.838  0.0847  0.0279  0.1315
 3040POSM   NC335663  26.268  12.621  16.491  0.1329  0.1849  0.2939
 3040POSM   PO435664  26.534  12.685  16.787 -0.2822 -0.0867  0.2474
 3040POSM   AM135665  26.710  12.598  16.521 -0.0288 -0.0446  0.1031
 3040POSM   AM235666  26.874  12.398  16.412 -0.3289  0.0570  0.2133
 3040POSM   T1A35667  26.863  12.676  15.984  0.2014  0.1131  0.1130
 3040POSM   C2A35668  26.834  12.909  15.605  0.0398  0.2477  0.0438
 3040POSM   C3A35669  26.974  13.042  15.197 -0.1097  0.0684 -0.0264
 3040POSM   C1B35670  27.094  12.242  16.178 -0.0669  0.0350  0.1825
 3040POSM   D2B35671  27.355  12.258  15.786 -0.1643  0.3516 -0.1575
 3040POSM   C3B35672  27.538  11.881  15.802 -0.2620  0.0973  0.2782
 3040POSM   C4B35673  27.739  11.668  15.470 -0.0408  0.1477  0.0348
 3041DOPS   CNO35674  30.343  13.588  17.524  0.2027  0.1483 -0.1417
 3041DOPS   PO435675  30.304  13.877  17.261  0.0064 -0.2402 -0.0113
 3041DOPS   GL135676  30.206  13.764  16.859 -0.3054  0.5507  0.0785
 3041DOPS   GL235677  30.274  14.008  16.669 -0.2321  0.0747 -0.0621
 3041DOPS   C1A35678  30.418  13.546  16.537  0.0283 -0.1827 -0.4637
 3041DOPS   D2A35679  30.255  13.552  16.040 -0.3190 -0.0124  0.4111
 3041DOPS   C3A35680  30.205  13.198  15.676  0.1010 -0.0472  0.0670
 3041DOPS   C4A35681  30.039  13.172  15.232 -0.1260  0.0277 -0.1381
 3041DOPS   C1B35682  30.568  13.968  16.288 -0.1141 -0.2322 -0.1075
 3041DOPS   D2B35683  30.557  13.974  15.819  0.1898 -0.0319  0.1595
 3041DOPS   C3B35684  30.706  14.384  15.646  0.1513  0.2389 -0.0418
 3041DOPS   C4B35685  30.651  14.790  15.462  0.0116  0.2268  0.1662
 3042DOPC   NC335686  26.598  22.015  16.974  0.1237  0.2938 -0.0724
 3042DOPC   PO435687  26.304  22.279  17.140 -0.1377 -0.0341 -0.0567
 3042DOPC   GL135688  26.135  22.347  16.762  0.3808  0.1546 -0.2305
 3042DOPC   GL235689  25.870  22.593  16.727  0.2888 -0.1690  0.1382
 3042DOPC   C1A35690  26.391  22.228  16.439 -0.1660  0.1331  0.1261
 3042DOPC   D2A35691  26.543  22.227  16.012  0.1717 -0.0199  0.1102
 3042DOPC   C3A35692  26.688  21.859  15.803 -0.1070  0.1597 -0.2060
 3042DOPC   C4A35693  26.888  21.771  15.372  0.0865  0.1857 -0.0613
 3042DOPC   C1B35694  26.042  22.574  16.287 -0.0654 -0.0832 -0.1135
 3042DOPC   D2B35695  26.107  22.489  15.863 -0.1122  0.0777 -0.1952
 3042DOPC   C3B35696  26.491  22.686  15.702  0.0476 -0.1653  0.2105
 3042DOPC   C4B35697  26.828  22.934  15.486  0.2041 -0.0429 -0.0960
 3043POSM   NC335698  27.632  17.424  16.821 -0.1342  0.0639 -0.1592
 3043POSM   PO435699  27.933  17.356  17.146 -0.0795  0.0560 -0.3862
 3043POSM   AM135700  28.139  17.302  16.866  0.2029  0.1650  0.2354
 3043POSM   AM235701  28.095  17.152  16.676  0.1125  0.1522 -0.2629
 3043POSM   T1A35702  28.475  17.415  16.485  0.2769 -0.0048  0.3648
 3043POSM   C2A35703  28.590  17.296  16.019  0.0500  0.0257 -0.3487
 3043POSM   C3A35704  28.666  17.461  15.567 -0.0357 -0.0914 -0.0651
 3043POSM   C1B35705  28.042  17.225  16.371 -0.0807  0.1939  0.1487
 3043POSM   D2B35706  28.091  17.237  15.939  0.1707 -0.3202  0.0019
 3043POSM   C3B35707  28.070  17.417  15.487 -0.3663  0.1565  0.0630
 3043POSM   C4B35708  27.974  17.916  15.449  0.3170  0.2085  0.0563
 3044DOPE   NH335709  29.463  13.722  17.137  0.2903 -0.1931  0.1941
 3044DOPE   PO435710  29.142  13.858  17.084  0.1615 -0.3413 -0.2387
 3044DOPE   GL135711  29.490  13.897  16.724  0.3731 -0.0713  0.0712
 3044DOPE   GL235712  29.256  13.922  16.597  0.2542  0.0880 -0.0218
 3044DOPE   C1A35713  29.839  14.027  16.482  0.0161  0.2349 -0.1129
 3044DOPE   D2A35714  30.005  14.029  16.116  0.1664  0.0254  0.0257
 3044DOPE   C3A35715  29.999  14.069  15.635  0.1863  0.2386 -0.1444
 3044DOPE   C4A35716  29.947  14.145  15.189  0.1231  0.2822  0.2295
 3044DOPE   C1B35717  29.237  13.685  16.148 -0.1786  0.2790  0.1728
 3044DOPE   D2B35718  28.867  13.421  15.921 -0.1497  0.1713 -0.1770
 3044DOPE   C3B35719  28.753  13.694  15.563  0.1993 -0.0637  0.1012
 3044DOPE   C4B35720  29.038  13.871  15.302  0.2865 -0.0618 -0.1621
 3045DOPS   CNO35721  28.145  12.085  17.309  0.3023  0.1564  0.1673
 3045DOPS   PO435722  28.386  12.268  17.123 -0.1234 -0.1659  0.1298
 3045DOPS   GL135723  28.563  12.227  16.770 -0.2987  0.0165 -0.4770
 3045DOPS   GL235724  28.449  12.481  16.685  0.0619 -0.2574 -0.0083
 3045DOPS   C1A35725  28.868  12.225  16.383 -0.1898  0.0569  0.1566
 3045DOPS   D2A35726  29.147  12.147  15.948 -0.1818  0.0522 -0.0026
 3045DOPS   C3A35727  29.498  12.101  15.639  0.0974 -0.1264  0.2952
 3045DOPS   C4A35728  29.829  12.403  15.522  0.0960 -0.1766  0.0953
 3045DOPS   C1B35729  28.329  12.912  16.650 -0.4100  0.2733 -0.3109
 3045DOPS   D2B35730  28.041  13.112  16.322 -0.0459 -0.2258  0.1596
 3045DOPS   C3B35731  28.173  12.977  15.930  0.2504  0.0926  0.1274
 3045DOPS   C4B35732  28.149  12.893  15.482  0.1608 -0.1322  0.3184
 3046DOPS   CNO35733  29.328  21.521  17.249 -0.2097  0.0386  0.0923
 3046DOPS   PO435734  29.152  21.714  16.975 -0.0050 -0.2590  0.1568
 3046DOPS   GL135735  29.170  21.846  16.613 -0.5340  0.0896 -0.5053
 3046DOPS   GL235736  29.296  21.592  16.513 -0.0573  0.1991  0.0244
 3046DOPS   C1A35737  29.264  22.150  16.260 -0.2263  0.0084  0.1995
 3046DOPS   D2A35738  29.261  22.430  15.870 -0.5162 -0.1126  0.0529
 3046DOPS   C3A35739  29.151  22.215  15.484  0.3805  0.1283  0.0987
 3046DOPS   C4A35740  29.061  22.393  15.065  0.1903 -0.2462  0.1013
 3046DOPS   C1B35741  29.467  21.390  16.161  0.1150 -0.3509  0.0554
 3046DOPS   D2B35742  29.441  21.284  15.708 -0.0550  0.1768  0.1531
 3046DOPS   C3B35743  29.439  21.164  15.254 -0.3446 -0.0148  0.0013
 3046DOPS   C4B35744  29.319  21.102  14.797  0.2927  0.3246  0.0419
 3047DOPE   NH335745  34.080  12.050  17.588 -0.2215  0.1153 -0.1283
 3047DOPE   PO435746  34.233  11.813  17.455 -0.4377  0.0751  0.1455
 3047DOPE   GL135747  34.089  11.925  17.034 -0.1862 -0.0480  0.0274
 3047DOPE   GL235748  34.241  11.738  16.833  0.2126 -0.2053  0.0436
 3047DOPE   C1A35749  33.882  12.128  16.614 -0.0181  0.1268  0.0172
 3047DOPE   D2A35750  33.991  12.232  16.197 -0.3081 -0.2863 -0.2877
 3047DOPE   C3A35751  34.192  12.019  15.871  0.2217  0.0288  0.0976
 3047DOPE   C4A35752  34.404  11.740  15.524 -0.0298  0.0388  0.1488
 3047DOPE   C1B35753  34.371  11.409  16.617 -0.0285 -0.1184 -0.1973
 3047DOPE   D2B35754  34.116  11.020  16.389  0.1064 -0.1900  0.0693
 3047DOPE   C3B35755  33.914  11.082  15.990 -0.1474 -0.0522 -0.1960
 3047DOPE   C4B35756  33.508  11.227  15.773 -0.1513  0.0166 -0.0557
 3048DOPC   NC335757  28.822  15.189  16.719 -0.0887 -0.1366 -0.2313
 3048DOPC   PO435758  28.993  14.873  16.927  0.3072 -0.0310  0.2990
 3048DOPC   GL135759  29.204  14.596  16.670  0.0987  0.1117  0.3253
 3048DOPC   GL235760  29.082  14.446  16.488 -0.0699  0.0674 -0.2252
 3048DOPC   C1A35761  29.478  14.747  16.300  0.0914  0.0557  0.2435
 3048DOPC   D2A35762  29.497  14.758  15.822 -0.1394  0.1190 -0.1832
 3048DOPC   C3A35763  29.269  14.373  15.788 -0.2836 -0.2744  0.1810
 3048DOPC   C4A35764  29.027  13.964  15.801 -0.0735  0.1627 -0.1796
 3048DOPC   C1B35765  28.841  13.984  16.355  0.0963 -0.3781 -0.2390
 3048DOPC   D2B35766  28.600  13.804  16.051 -0.0291 -0.3823 -0.0627
 3048DOPC   C3B35767  28.531  14.082  15.696 -0.1040  0.0284 -0.0089
 3048DOPC   C4B35768  28.375  14.034  15.292 -0.1770  0.3156 -0.2151
 3049DOPS   CNO35769  32.851  17.533  16.577 -0.3281  0.3252 -0.1885
 3049DOPS   PO435770  33.147  17.708  16.713 -0.3215  0.1508  0.1067
 3049DOPS   GL135771  33.248  17.689  16.309  0.1513  0.0271 -0.1768
 3049DOPS   GL235772  33.526  17.734  16.360  0.0199 -0.1626  0.0288
 3049DOPS   C1A35773  33.455  17.507  15.922  0.1354  0.0568 -0.1895
 3049DOPS   D2A35774  33.296  17.554  15.458  0.0007  0.3206 -0.4295
 3049DOPS   C3A35775  32.852  17.664  15.364 -0.1432 -0.1710  0.2077
 3049DOPS   C4A35776  32.570  17.837  15.023  0.0271  0.0641  0.0779
 3049DOPS   C1B35777  33.679  18.067  16.130 -0.0567 -0.0612  0.4405
 3049DOPS   D2B35778  33.971  18.297  15.892  0.0232  0.1005 -0.2655
 3049DOPS   C3B35779  33.775  18.706  15.718 -0.1421 -0.0381  0.0045
 3049DOPS   C4B35780  33.879  18.923  15.360  0.0700 -0.4508  0.2724
 3050DOPE   NH335781  26.918  21.558  17.087 -0.0533 -0.2468 -0.1788
 3050DOPE   PO435782  27.047  21.762  16.890  0.0621 -0.1354 -0.3015
 3050DOPE   GL135783  27.023  21.873  16.467 -0.0403 -0.1764 -0.1601
 3050DOPE   GL235784  26.763  21.877  16.410 -0.1798  0.2337 -0.0172
 3050DOPE   C1A35785  27.129  21.668  16.051  0.0614  0.3673 -0.3090
 3050DOPE   D2A35786  27.253  21.503  15.655 -0.1060  0.0481  0.0446
 3050DOPE   C3A35787  27.403  21.170  15.420  0.1929 -0.0772 -0.0623
 3050DOPE   C4A35788  27.581  21.042  14.972 -0.0378 -0.0938  0.4207
 3050DOPE   C1B35789  26.539  21.484  16.224  0.0916  0.0470  0.1186
 3050DOPE   D2B35790  26.652  21.076  16.116 -0.1512 -0.1727 -0.1061
 3050DOPE   C3B35791  26.645  20.926  15.686  0.1404 -0.0919 -0.0272
 3050DOPE   C4B35792  26.733  21.090  15.252  0.1561  0.1030  0.2282
 3051DOPE   NH335793  31.373  20.226  16.900 -0.0156  0.0386 -0.1771
 3051DOPE   PO435794  31.643  20.207  16.750 -0.2355 -0.1936  0.1100
 3051DOPE   GL135795  31.606  20.133  16.351 -0.2749 -0.0142  0.2305
 3051DOPE   GL235796  31.467  19.830  16.274 -0.0194 -0.2235  0.0628
 3051DOPE   C1A35797  31.634  20.105  15.915  0.0364  0.0503 -0.0401
 3051DOPE   D2A35798  31.798  19.880  15.519  0.0938 -0.0851  0.0065
 3051DOPE   C3A35799  32.120  19.790  15.227  0.2241 -0.0225 -0.3105
 3051DOPE   C4A35800  32.066  19.439  14.907  0.0378  0.1323 -0.1133
 3051DOPE   C1B35801  31.203  19.800  15.839  0.0902 -0.1124  0.0511
 3051DOPE   D2B35802  31.331  19.747  15.418  0.0333  0.1294  0.0148
 3051DOPE   C3B35803  31.565  20.100  15.145  0.1438  0.1792 -0.0161
 3051DOPE   C4B35804  31.885  20.021  14.758  0.0106 -0.1181 -0.0672
 3052DOPE   NH335805  29.812  16.552  17.345  0.0505  0.3347 -0.0612
 3052DOPE   PO435806  29.594  16.692  17.180 -0.2379  0.0658  0.0528
 3052DOPE   GL135807  29.641  16.714  16.821  0.0197  0.2773  0.0101
 3052DOPE   GL235808  29.506  16.957  16.740  0.1619 -0.3620  0.1219
 3052DOPE   C1A35809  29.720  16.499  16.367 -0.2591 -0.0159  0.0606
 3052DOPE   D2A35810  29.900  16.265  16.104  0.1956  0.2172  0.1419
 3052DOPE   C3A35811  30.083  16.249  15.681 -0.1337 -0.1644  0.2167
 3052DOPE   C4A35812  30.197  16.349  15.218 -0.1693  0.2092 -0.2445
 3052DOPE   C1B35813  29.562  16.984  16.297 -0.1394  0.5455  0.2803
 3052DOPE   D2B35814  29.550  16.843  15.827 -0.0061 -0.2803 -0.3373
 3052DOPE   C3B35815  29.484  17.185  15.518 -0.0076  0.3081  0.1837
 3052DOPE   C4B35816  29.529  17.575  15.233 -0.0836  0.0468  0.1001
 3053DOPC   NC335817   0.061  23.138  17.259  0.0330 -0.0751 -0.0667
 3053DOPC   PO435818  -0.004  22.823  17.496  0.1017  0.0335 -0.1064
 3053DOPC   GL135819  -0.156  22.617  17.226 -0.0165 -0.1079  0.3049
 3053DOPC   GL235820  -0.346  22.772  17.036 -0.0763  0.2426 -0.1154
 3053DOPC   C1A35821   0.053  22.456  16.869  0.1135 -0.1661  0.2370
 3053DOPC   D2A35822  -0.201  22.275  16.458 -0.1374  0.2146 -0.1778
 3053DOPC   C3A35823   0.064  22.251  16.041 -0.2874 -0.1606 -0.0179
 3053DOPC   C4A35824   0.074  21.981  15.654 -0.1616  0.2450  0.2807
 3053DOPC   C1B35825  -0.271  22.792  16.558  0.1013 -0.0323 -0.4701
 3053DOPC   D2B35826  -0.037  22.787  16.202 -0.1439  0.0555 -0.0544
 3053DOPC   C3B35827  -0.139  22.945  15.761 -0.0540  0.0231  0.3735
 3053DOPC   C4B35828  -0.347  22.878  15.340 -0.1536  0.0179 -0.4626
 3054POSM   NC335829  24.293  17.936  16.354 -0.2085 -0.0529  0.0473
 3054POSM   PO435830  24.603  17.850  16.557  0.2583  0.1732  0.0900
 3054POSM   AM135831  24.782  17.837  16.288  0.1103 -0.2043 -0.4270
 3054POSM   AM235832  25.009  17.672  16.191  0.0511 -0.0578 -0.3018
 3054POSM   T1A35833  24.982  17.820  15.758  0.3199  0.1083 -0.0432
 3054POSM   C2A35834  24.908  17.842  15.283 -0.4349 -0.0443  0.0188
 3054POSM   C3A35835  25.216  17.679  15.022 -0.1833 -0.0202  0.3459
 3054POSM   C1B35836  24.942  17.392  15.990 -0.1322  0.1686 -0.3684
 3054POSM   D2B35837  24.714  17.025  15.758 -0.0085  0.0336  0.2802
 3054POSM   C3B35838  24.313  16.907  15.578  0.1384 -0.1094  0.1517
 3054POSM   C4B35839  23.949  17.031  15.308  0.1177 -0.3248 -0.0996
 3055POSM   NC335840  22.442  21.128  16.107 -0.0376  0.0402 -0.0312
 3055POSM   PO435841  22.051  21.054  16.058 -0.2543 -0.0138 -0.0944
 3055POSM   AM135842  22.032  21.148  15.764 -0.1291 -0.0133  0.0419
 3055POSM   AM235843  22.167  21.081  15.500 -0.0072 -0.2610 -0.0361
 3055POSM   T1A35844  22.231  21.619  15.560  0.0815  0.1183  0.3227
 3055POSM   C2A35845  22.124  21.984  15.262  0.1902  0.0121  0.0502
 3055POSM   C3A35846  22.521  22.178  15.177  0.0420  0.1651  0.1469
 3055POSM   C1B35847  22.471  21.164  15.532 -0.3797 -0.4163  0.3310
 3055POSM   D2B35848  22.920  20.954  15.496 -0.0704  0.0185 -0.1002
 3055POSM   C3B35849  23.272  20.977  15.184  0.1093  0.3388 -0.0174
 3055POSM   C4B35850  23.463  20.911  14.743 -0.0262 -0.1450 -0.0272
 3056DOPC   NC335851  28.369  17.105  17.265 -0.1217 -0.0459  0.0372
 3056DOPC   PO435852  28.345  16.852  16.961 -0.0132 -0.1274 -0.1443
 3056DOPC   GL135853  28.405  16.726  16.536  0.1482 -0.1500  0.1221
 3056DOPC   GL235854  28.543  16.960  16.469 -0.1422  0.0293  0.2689
 3056DOPC   C1A35855  28.443  16.363  16.243  0.1000 -0.0265 -0.0384
 3056DOPC   D2A35856  28.387  16.008  15.995 -0.1451 -0.3281 -0.0403
 3056DOPC   C3A35857  28.391  16.109  15.545 -0.0692  0.1872 -0.0380
 3056DOPC   C4A35858  28.609  16.222  15.153 -0.1294  0.0821 -0.2333
 3056DOPC   C1B35859  28.392  16.888  16.054  0.3049  0.1230 -0.3569
 3056DOPC   D2B35860  28.198  16.890  15.671 -0.0438 -0.2082 -0.0208
 3056DOPC   C3B35861  28.403  17.108  15.302 -0.0543  0.1095  0.2045
 3056DOPC   C4B35862  28.411  17.279  14.803 -0.1542  0.0832  0.3620
 3057DOPC   NC335863  30.410  16.444  17.347 -0.2804  0.0657  0.0866
 3057DOPC   PO435864  30.260  16.763  17.513 -0.0187 -0.2256 -0.1809
 3057DOPC   GL135865  30.224  16.799  17.094 -0.2352  0.2127 -0.3328
 3057DOPC   GL235866  29.980  16.989  16.990 -0.1824 -0.1435  0.0789
 3057DOPC   C1A35867  30.474  17.086  16.757 -0.0833 -0.2084 -0.4293
 3057DOPC   D2A35868  30.851  17.150  16.542  0.2381 -0.0428  0.2813
 3057DOPC   C3A35869  31.016  17.568  16.359  0.1692 -0.0737 -0.0079
 3057DOPC   C4A35870  31.235  17.977  16.459  0.0496  0.1769  0.1049
 3057DOPC   C1B35871  30.076  16.810  16.601  0.1618 -0.0326  0.1629
 3057DOPC   D2B35872  30.068  16.836  16.050 -0.0426 -0.1999  0.2959
 3057DOPC   C3B35873  30.394  16.707  15.762  0.0844  0.2443  0.2631
 3057DOPC   C4B35874  30.571  16.381  15.481  0.2002  0.1793  0.0959
 3058DOPS   CNO35875  23.757  19.976  16.244  0.1955 -0.1095 -0.0279
 3058DOPS   PO435876  23.565  19.982  15.907 -0.1626 -0.1727  0.2294
 3058DOPS   GL135877  23.713  19.945  15.555  0.4238  0.1282  0.1533
 3058DOPS   GL235878  23.621  19.730  15.505  0.1701  0.0872 -0.0988
 3058DOPS   C1A35879  24.109  19.978  15.346 -0.0471 -0.2244 -0.2195
 3058DOPS   D2A35880  24.524  19.852  15.110  0.0824 -0.3040  0.0474
 3058DOPS   C3A35881  24.765  20.243  14.956  0.2128  0.0070 -0.0382
 3058DOPS   C4A35882  24.911  20.560  14.690 -0.1839  0.2845  0.3230
 3058DOPS   C1B35883  23.857  19.642  15.103  0.0468 -0.1665  0.0448
 3058DOPS   D2B35884  24.189  19.733  14.787 -0.1077 -0.2928 -0.0751
 3058DOPS   C3B35885  24.259  20.201  14.880 -0.1097 -0.1128  0.3548
 3058DOPS   C4B35886  24.360  20.652  14.827 -0.6136 -0.1762  0.1211
 3059DOPE   NH335887  29.880  13.296  17.894 -0.3570  0.1132  0.0758
 3059DOPE   PO435888  29.995  13.231  17.620  0.3448 -0.0723 -0.1869
 3059DOPE   GL135889  30.055  13.238  17.261  0.0479 -0.2277 -0.0922
 3059DOPE   GL235890  29.966  13.456  17.101  0.0541 -0.2206 -0.2858
 3059DOPE   C1A35891  30.108  13.119  16.817 -0.1223  0.0561 -0.1477
 3059DOPE   D2A35892  30.034  13.257  16.393  0.2497  0.1694  0.1573
 3059DOPE   C3A35893  30.409  13.098  16.103  0.1480 -0.0385  0.0526
 3059DOPE   C4A35894  30.632  12.923  15.682 -0.2078  0.1410  0.0002
 3059DOPE   C1B35895  29.795  13.578  16.701 -0.4147 -0.2059 -0.1404
 3059DOPE   D2B35896  29.725  13.618  16.194  0.1161 -0.0233  0.1057
 3059DOPE   C3B35897  29.723  13.268  15.933  0.0738  0.0217  0.0162
 3059DOPE   C4B35898  29.759  12.881  15.563  0.1615 -0.0034  0.1837
 3060DOPS   CNO35899  31.792  17.210  16.759 -0.1578 -0.1011 -0.1184
 3060DOPS   PO435900  31.910  17.006  16.415  0.1859 -0.2706 -0.2427
 3060DOPS   GL135901  31.970  17.072  16.042  0.1167 -0.3788  0.0538
 3060DOPS   GL235902  31.972  16.748  15.979  0.0821  0.1292 -0.0903
 3060DOPS   C1A35903  32.048  17.084  15.575 -0.1200 -0.0009  0.1440
 3060DOPS   D2A35904  31.744  17.071  15.159 -0.0388 -0.1292 -0.0465
 3060DOPS   C3A35905  31.540  17.477  15.050  0.0221 -0.0929  0.1536
 3060DOPS   C4A35906  31.658  17.968  14.988 -0.1957 -0.4150  0.1084
 3060DOPS   C1B35907  31.729  16.314  15.891  0.0174 -0.2807 -0.0866
 3060DOPS   D2B35908  31.469  16.083  15.530 -0.3133 -0.1230  0.3205
 3060DOPS   C3B35909  31.644  16.121  15.130 -0.2493 -0.0986  0.1881
 3060DOPS   C4B35910  31.863  15.773  14.882  0.5262  0.3420  0.0749
 3061DOPE   NH335911  33.273  13.575  13.354  0.0387  0.3281 -0.0524
 3061DOPE   PO435912  33.202  13.239  13.334  0.1850 -0.4487  0.0820
 3061DOPE   GL135913  33.470  13.174  13.529 -0.3888 -0.0504 -0.4020
 3061DOPE   GL235914  33.598  13.370  13.658 -0.1017  0.0680 -0.2118
 3061DOPE   C1A35915  33.659  12.912  13.857 -0.1469 -0.0309  0.3279
 3061DOPE   D2A35916  33.957  12.735  14.175  0.2373 -0.2017  0.1721
 3061DOPE   C3A35917  34.352  12.709  14.356  0.2040  0.1723 -0.0683
 3061DOPE   C4A35918  34.560  12.427  14.641 -0.0146  0.0113  0.5959
 3061DOPE   C1B35919  34.046  13.128  13.539 -0.0006 -0.0108  0.0318
 3061DOPE   D2B35920  34.465  13.128  13.316 -0.2365  0.1341 -0.4015
 3061DOPE   C3B35921  34.799  13.179  13.626 -0.1763 -0.0553  0.1427
 3061DOPE   C4B35922  35.215  13.055  13.787  0.0999 -0.0621 -0.3133
 3062DOPS   CNO35923  24.921  15.534  12.774  0.1461 -0.0105 -0.0212
 3062DOPS   PO435924  25.240  15.486  12.993 -0.0377  0.0634  0.2284
 3062DOPS   GL135925  25.183  15.105  12.914  0.2706 -0.1633 -0.3422
 3062DOPS   GL235926  24.891  15.082  13.079 -0.1867 -0.0216 -0.1366
 3062DOPS   C1A35927  25.283  14.880  13.310 -0.1200 -0.0326  0.1001
 3062DOPS   D2A35928  25.468  14.582  13.550 -0.0377  0.0906  0.1885
 3062DOPS   C3A35929  25.542  14.139  13.516  0.2796 -0.0010  0.0458
 3062DOPS   C4A35930  25.789  13.972  13.877 -0.0287  0.0801  0.2775
 3062DOPS   C1B35931  24.672  14.848  13.389  0.1941  0.0700 -0.1102
 3062DOPS   D2B35932  24.331  14.886  13.689  0.0300 -0.0105  0.0310
 3062DOPS   C3B35933  23.953  14.659  13.629 -0.1196 -0.1290  0.5810
 3062DOPS   C4B35934  23.611  14.369  13.670  0.4624  0.0528  0.3109
 3063DOPE   NH335935  32.709  12.713  13.029  0.0699 -0.0234  0.0538
 3063DOPE   PO435936  32.459  12.940  13.114  0.1290  0.2609 -0.2219
 3063DOPE   GL135937  32.399  13.170  13.350 -0.1843 -0.1316 -0.4320
 3063DOPE   GL235938  32.498  13.459  13.347 -0.1999 -0.3294 -0.1170
 3063DOPE   C1A35939  31.986  13.374  13.430  0.1867 -0.1375  0.1299
 3063DOPE   D2A35940  31.728  13.749  13.459  0.1415 -0.0783 -0.1299
 3063DOPE   C3A35941  31.646  14.029  13.830  0.1788  0.1517 -0.1983
 3063DOPE   C4A35942  31.968  14.183  14.078  0.2986  0.2381  0.2228
 3063DOPE   C1B35943  32.275  13.764  13.602  0.1714  0.2580 -0.1579
 3063DOPE   D2B35944  31.987  13.656  14.036 -0.0895 -0.2276  0.0107
 3063DOPE   C3B35945  31.914  13.644  14.489  0.3057  0.2742  0.2683
 3063DOPE   C4B35946  31.913  13.890  14.890  0.1077  0.2435  0.0837
 3064DOPE   NH335947  33.197  12.611  13.335  0.1275  0.1312 -0.0375
 3064DOPE   PO435948  33.158  12.657  13.676  0.0761  0.0420 -0.1088
 3064DOPE   GL135949  32.975  12.769  13.990 -0.1484 -0.0309 -0.0362
 3064DOPE   GL235950  33.106  12.633  14.255  0.0772 -0.2859 -0.2563
 3064DOPE   C1A35951  32.671  13.096  14.176  0.3935 -0.0268  0.1336
 3064DOPE   D2A35952  32.394  13.279  13.858 -0.1777 -0.0666 -0.1027
 3064DOPE   C3A35953  31.984  13.133  13.817  0.1203  0.0673  0.2077
 3064DOPE   C4A35954  31.622  12.827  13.656  0.0507  0.2085  0.3343
 3064DOPE   C1B35955  33.182  13.078  14.400  0.0664  0.0724 -0.2351
 3064DOPE   D2B35956  33.267  13.524  14.583 -0.1627 -0.0144 -0.1438
 3064DOPE   C3B35957  32.869  13.751  14.826  0.0097 -0.1005 -0.2256
 3064DOPE   C4B35958  32.433  13.703  14.876 -0.1071 -0.0246 -0.2893
 3065DOPC   NC335959  33.197  13.169  13.870  0.0615  0.3099  0.2659
 3065DOPC   PO435960  32.906  13.375  13.715  0.0949  0.0854 -0.0010
 3065DOPC   GL135961  32.876  13.596  14.025  0.5401  0.0588 -0.0256
 3065DOPC   GL235962  32.630  13.730  13.959 -0.0189  0.2359 -0.1795
 3065DOPC   C1A35963  32.687  13.549  14.432  0.0501 -0.0878  0.3705
 3065DOPC   D2A35964  32.790  13.180  14.673  0.3138 -0.0227  0.0664
 3065DOPC   C3A35965  32.665  12.753  14.736  0.1549 -0.0711 -0.3721
 3065DOPC   C4A35966  32.707  12.319  14.684 -0.1845  0.0455  0.2612
 3065DOPC   C1B35967  32.494  14.046  14.216  0.1790  0.1952  0.0939
 3065DOPC   D2B35968  32.180  14.112  14.568 -0.0425  0.1191  0.2602
 3065DOPC   C3B35969  31.906  14.504  14.549  0.2261 -0.2719 -0.2126
 3065DOPC   C4B35970  31.551  14.532  14.818 -0.1645  0.0215 -0.1394
 3066DOPC   NC335971  24.876  19.012  13.110  0.0232 -0.1033  0.1655
 3066DOPC   PO435972  25.155  19.059  12.847 -0.2102  0.0292 -0.0044
 3066DOPC   GL135973  25.267  19.345  13.181 -0.0177 -0.2601  0.2490
 3066DOPC   GL235974  25.153  19.230  13.457 -0.3707  0.4150  0.3231
 3066DOPC   C1A35975  25.694  19.541  13.290  0.0512  0.1143 -0.1585
 3066DOPC   D2A35976  25.746  19.964  13.517  0.1761  0.4618  0.1741
 3066DOPC   C3A35977  25.386  20.246  13.410 -0.0472 -0.2844 -0.3656
 3066DOPC   C4A35978  25.028  20.550  13.450 -0.3138 -0.1180 -0.0330
 3066DOPC   C1B35979  25.006  19.397  13.871 -0.1792 -0.3549 -0.0754
 3066DOPC   D2B35980  25.168  19.532  14.276  0.4229 -0.1659  0.2391
 3066DOPC   C3B35981  24.963  19.334  14.686 -0.0401  0.0269  0.2983
 3066DOPC   C4B35982  24.541  19.386  14.825 -0.2881 -0.2016  0.0343
 3067DOPE   NH335983  23.414  18.641  12.588 -0.0299 -0.2604 -0.0255
 3067DOPE   PO435984  23.258  18.943  12.475 -0.2280  0.1739 -0.0564
 3067DOPE   GL135985  23.006  19.231  12.612 -0.2282 -0.0428 -0.1873
 3067DOPE   GL235986  23.173  19.492  12.582 -0.2782  0.3100  0.2169
 3067DOPE   C1A35987  22.921  19.426  13.019 -0.2391  0.1357  0.1653
 3067DOPE   D2A35988  22.649  19.724  13.317  0.0141 -0.1434 -0.0981
 3067DOPE   C3A35989  22.275  19.837  13.187 -0.0672  0.1597  0.0937
 3067DOPE   C4A35990  21.892  20.047  13.090 -0.0588  0.0306 -0.0625
 3067DOPE   C1B35991  23.170  19.867  12.834  0.0362 -0.3908  0.0741
 3067DOPE   D2B35992  23.212  20.005  13.255 -0.0756 -0.1207 -0.0056
 3067DOPE   C3B35993  23.046  20.359  13.394  0.0034  0.1720 -0.2492
 3067DOPE   C4B35994  23.229  20.781  13.486  0.1225 -0.0390 -0.0085
 3068DOPE   NH335995  34.291  20.985  13.599  0.1841  0.1181  0.0365
 3068DOPE   PO435996  34.473  20.996  13.315 -0.0017 -0.0696 -0.0020
 3068DOPE   GL135997  34.724  20.768  13.518 -0.0644  0.1715 -0.2640
 3068DOPE   GL235998  34.837  20.862  13.745 -0.0668 -0.1271 -0.2016
 3068DOPE   C1A35999  34.891  20.362  13.733  0.0428  0.1797 -0.0795
 3068DOPE   D2A36000  35.219  20.343  14.010  0.0106  0.0196 -0.3434
 3068DOPE   C3A36001  35.404  20.470  14.453 -0.2804  0.1089  0.3165
 3068DOPE   C4A36002  35.467  20.639  14.856 -0.1764 -0.1406 -0.2918
 3068DOPE   C1B36003  34.759  20.793  14.181 -0.1927  0.2505  0.0206
 3068DOPE   D2B36004  35.055  20.828  14.511 -0.0028 -0.1191 -0.1276
 3068DOPE   C3B36005  34.929  20.633  14.906 -0.1343 -0.0435  0.0154
 3068DOPE   C4B36006  34.783  20.209  14.985  0.1997 -0.2193 -0.0030
 3069DOPE   NH336007  29.967  17.733  13.819 -0.3098 -0.1302  0.2309
 3069DOPE   PO436008  29.665  17.679  13.713  0.2454  0.3468 -0.1908
 3069DOPE   GL136009  29.639  17.632  14.086  0.4176  0.2451 -0.2819
 3069DOPE   GL236010  29.534  17.367  14.153  0.2448  0.1126  0.0573
 3069DOPE   C1A36011  29.656  17.714  14.526 -0.0860 -0.2171  0.0163
 3069DOPE   D2A36012  29.941  17.521  14.887  0.1229  0.0594  0.1889
 3069DOPE   C3A36013  30.379  17.562  15.042 -0.0208 -0.0292  0.4305
 3069DOPE   C4A36014  30.689  17.257  15.089  0.0561  0.2039  0.1319
 3069DOPE   C1B36015  29.345  16.994  14.340 -0.0594 -0.3618  0.0719
 3069DOPE   D2B36016  29.249  16.553  14.508  0.1555 -0.0330 -0.0214
 3069DOPE   C3B36017  29.473  16.351  14.899  0.3264  0.1884  0.1043
 3069DOPE   C4B36018  29.692  16.077  15.174  0.0165  0.1082 -0.1553
 3070POSM   NC336019  24.302  19.134  12.630 -0.1943  0.1491 -0.1693
 3070POSM   PO436020  24.689  19.217  12.713 -0.2009  0.3014  0.4574
 3070POSM   AM136021  24.709  19.449  12.921  0.1849 -0.1815 -0.0388
 3070POSM   AM236022  24.718  19.479  13.238 -0.4660 -0.3521  0.1436
 3070POSM   T1A36023  24.539  19.892  13.017  0.0004 -0.0896 -0.0672
 3070POSM   C2A36024  24.499  20.169  13.337  0.1270  0.0559  0.0954
 3070POSM   C3A36025  24.620  20.333  13.747 -0.3562 -0.0185  0.3021
 3070POSM   C1B36026  24.618  19.676  13.492 -0.1425 -0.2516  0.0026
 3070POSM   D2B36027  24.239  19.868  13.700  0.3659  0.0483  0.2676
 3070POSM   C3B36028  23.852  19.639  13.569 -0.0878 -0.3234 -0.1498
 3070POSM   C4B36029  23.473  19.600  13.349 -0.2122 -0.0912 -0.1863
 3071DOPE   NH336030  26.573  18.959  13.888 -0.1969 -0.1177 -0.3399
 3071DOPE   PO436031  26.458  18.732  14.050  0.2802  0.0050  0.3903
 3071DOPE   GL136032  26.638  18.654  14.345  0.2025  0.2780  0.0457
 3071DOPE   GL236033  26.830  18.889  14.303 -0.2900 -0.0156 -0.3201
 3071DOPE   C1A36034  26.466  18.838  14.728 -0.1944  0.1007 -0.0616
 3071DOPE   D2A36035  26.428  19.121  15.143  0.0517  0.2615 -0.2022
 3071DOPE   C3A36036  26.715  19.546  15.098  0.0865 -0.1418  0.0508
 3071DOPE   C4A36037  26.833  19.994  15.172  0.1568  0.1108  0.1100
 3071DOPE   C1B36038  26.954  18.730  14.760  0.2085 -0.0586  0.3210
 3071DOPE   D2B36039  27.040  18.590  15.220 -0.2314  0.1191  0.2418
 3071DOPE   C3B36040  26.576  18.595  15.198  0.3420 -0.1567  0.1189
 3071DOPE   C4B36041  26.157  18.696  15.514 -0.0378 -0.4615 -0.2532
 3072POSM   NC336042  29.932  19.066  13.941 -0.2260 -0.1826 -0.1184
 3072POSM   PO436043  30.234  19.201  13.766  0.0441  0.0754 -0.1371
 3072POSM   AM136044  30.347  19.381  14.003 -0.0696 -0.1546 -0.4762
 3072POSM   AM236045  30.580  19.380  14.099 -0.0754 -0.0182 -0.1276
 3072POSM   T1A36046  30.409  19.829  14.200  0.1994 -0.2576  0.0086
 3072POSM   C2A36047  30.163  20.160  14.510  0.0830 -0.1695  0.0256
 3072POSM   C3A36048  30.101  20.112  14.958  0.1577  0.1055 -0.0997
 3072POSM   C1B36049  30.840  19.420  14.319 -0.0242 -0.1012 -0.0691
 3072POSM   D2B36050  31.028  19.297  14.649  0.1813 -0.1624  0.2083
 3072POSM   C3B36051  30.694  19.182  14.981 -0.3822 -0.3275  0.0296
 3072POSM   C4B36052  30.267  19.109  15.122  0.0474 -0.1424 -0.1508
 3073POSM   NC336053  24.047  11.572  12.562  0.0433 -0.0428  0.3695
 3073POSM   PO436054  24.105  11.381  12.906  0.1369 -0.0331  0.3932
 3073POSM   AM136055  23.953  11.619  13.001  0.3738  0.2244  0.1786
 3073POSM   AM236056  23.965  11.717  13.279  0.4216  0.2342  0.2799
 3073POSM   T1A36057  23.626  11.985  13.055  0.2369 -0.0572  0.1703
 3073POSM   C2A36058  23.337  12.165  13.344 -0.0049 -0.2331  0.1209
 3073POSM   C3A36059  23.124  11.888  13.652 -0.2307 -0.0495  0.0505
 3073POSM   C1B36060  23.881  11.897  13.559 -0.2001 -0.2303 -0.0623
 3073POSM   D2B36061  23.775  11.989  14.019 -0.1445 -0.3086 -0.1399
 3073POSM   C3B36062  23.359  12.172  13.976  0.1914  0.2954  0.1337
 3073POSM   C4B36063  23.330  12.602  13.862  0.2975 -0.0811  0.2153
 3074DOPC   NC336064  33.832  22.256  13.185 -0.0506  0.1439 -0.1273
 3074DOPC   PO436065  33.773  21.926  13.377 -0.0135  0.0148  0.6145
 3074DOPC   GL136066  33.731  21.876  13.784 -0.5539  0.0617 -0.1852
 3074DOPC   GL236067  33.468  21.998  13.776 -0.0444  0.0186  0.0198
 3074DOPC   C1A36068  33.855  21.611  14.147 -0.0079  0.1415 -0.1478
 3074DOPC   D2A36069  34.239  21.388  14.259  0.0073 -0.1718 -0.1967
 3074DOPC   C3A36070  34.288  20.939  14.274 -0.2169  0.1800  0.2738
 3074DOPC   C4A36071  34.417  20.673  14.589 -0.3073  0.1460 -0.0466
 3074DOPC   C1B36072  33.132  21.681  13.849  0.1120 -0.1897  0.1048
 3074DOPC   D2B36073  32.676  21.722  13.823  0.0194  0.0604 -0.1420
 3074DOPC   C3B36074  32.262  21.825  13.804 -0.2661 -0.0040 -0.2320
 3074DOPC   C4B36075  31.801  21.657  13.771  0.1234 -0.1584  0.1356
 3075DOPC   NC336076  30.403  20.436  13.663  0.1725 -0.4910  0.2035
 3075DOPC   PO436077  30.542  20.066  13.631  0.1485  0.0003  0.1250
 3075DOPC   GL136078  30.845  20.327  13.810 -0.3397  0.1345  0.2691
 3075DOPC   GL236079  31.088  20.421  13.641 -0.0592  0.2432  0.2042
 3075DOPC   C1A36080  30.982  20.505  14.199  0.3534  0.2842 -0.2678
 3075DOPC   D2A36081  31.126  20.657  14.591 -0.0528 -0.4330 -0.3383
 3075DOPC   C3A36082  31.332  20.948  14.877  0.3363 -0.2184 -0.0071
 3075DOPC   C4A36083  31.780  21.098  14.899  0.0761  0.0929 -0.0974
 3075DOPC   C1B36084  31.454  20.704  13.533  0.4641 -0.1080  0.0753
 3075DOPC   D2B36085  31.761  21.042  13.715 -0.1820 -0.1562  0.1830
 3075DOPC   C3B36086  31.524  21.279  13.971 -0.0159  0.2719  0.0161
 3075DOPC   C4B36087  31.545  21.081  14.447  0.2244 -0.1067  0.3551
 3076DOPC   NC336088  26.217  17.157  13.672 -0.0691 -0.2863  0.2222
 3076DOPC   PO436089  26.265  16.817  13.448 -0.1559 -0.0935  0.1301
 3076DOPC   GL136090  26.546  16.652  13.446  0.2827  0.3713 -0.1477
 3076DOPC   GL236091  26.651  16.651  13.173 -0.0798 -0.1766  0.1201
 3076DOPC   C1A36092  27.027  16.773  13.520  0.1452  0.0536 -0.0409
 3076DOPC   D2A36093  27.341  17.113  13.756  0.1781  0.0404  0.0872
 3076DOPC   C3A36094  27.623  17.043  14.093  0.2657 -0.1821  0.2863
 3076DOPC   C4A36095  27.731  16.867  14.456  0.0436  0.1537  0.0413
 3076DOPC   C1B36096  27.064  16.517  13.055  0.1839  0.1428  0.4397
 3076DOPC   D2B36097  27.385  16.266  12.814 -0.0651 -0.0543 -0.1300
 3076DOPC   C3B36098  27.609  15.975  13.084 -0.1961 -0.2679 -0.0563
 3076DOPC   C4B36099  27.567  15.935  13.557 -0.3204  0.2291 -0.0386
 3077DOPE   NH336100  30.122  12.353  13.366  0.1301 -0.2717  0.0183
 3077DOPE   PO436101  29.853  12.494  13.302 -0.0080  0.2147  0.1830
 3077DOPE   GL136102  29.689  12.342  13.710  0.4605 -0.4377 -0.1234
 3077DOPE   GL236103  29.554  12.618  13.704  0.0549 -0.1247 -0.0464
 3077DOPE   C1A36104  29.408  11.999  13.884 -0.0631  0.2336  0.2213
 3077DOPE   D2A36105  29.506  11.654  14.169 -0.0420 -0.1938  0.0813
 3077DOPE   C3A36106  29.368  11.774  14.609  0.3677 -0.1653 -0.0586
 3077DOPE   C4A36107  29.148  11.743  15.040 -0.5425  0.2452  0.2567
 3077DOPE   C1B36108  29.418  12.461  14.131 -0.1117 -0.2709  0.0006
 3077DOPE   D2B36109  29.408  12.703  14.493 -0.1376  0.1124 -0.2550
 3077DOPE   C3B36110  29.429  13.113  14.668  0.0397  0.0045 -0.2951
 3077DOPE   C4B36111  29.674  13.499  14.552 -0.2886  0.0746 -0.1091
 3078POSM   NC336112  28.999  11.090  13.104 -0.0140  0.2436  0.1172
 3078POSM   PO436113  29.118  11.172  13.473  0.0647 -0.3627 -0.3030
 3078POSM   AM136114  29.167  11.049  13.777 -0.2032 -0.2247  0.0107
 3078POSM   AM236115  29.104  11.118  14.012 -0.0604 -0.0352 -0.0335
 3078POSM   T1A36116  28.994  10.617  14.031  0.3482 -0.0742  0.1407
 3078POSM   C2A36117  28.847  10.410  14.432 -0.0197 -0.1032  0.3920
 3078POSM   C3A36118  28.578  10.083  14.613 -0.0414 -0.1064  0.0375
 3078POSM   C1B36119  29.237  11.220  14.259 -0.2835  0.0758 -0.2241
 3078POSM   D2B36120  29.399  11.166  14.646  0.1648  0.2563 -0.4340
 3078POSM   C3B36121  29.184  11.148  15.054 -0.2952  0.0551 -0.0192
 3078POSM   C4B36122  28.943  11.329  15.396 -0.2162 -0.2231 -0.0612
 3079DOPE   NH336123  24.553  21.546  13.182  0.2645  0.0172  0.0973
 3079DOPE   PO436124  24.838  21.382  13.099 -0.1167 -0.3188 -0.0743
 3079DOPE   GL136125  24.605  21.086  13.325  0.3287  0.2371  0.0141
 3079DOPE   GL236126  24.669  20.832  13.157  0.0795 -0.1163 -0.0408
 3079DOPE   C1A36127  24.565  20.882  13.727 -0.0268  0.1893  0.0286
 3079DOPE   D2A36128  24.253  20.673  13.928 -0.1934  0.0877  0.0022
 3079DOPE   C3A36129  24.177  20.862  14.375  0.1271 -0.0340  0.0038
 3079DOPE   C4A36130  24.179  21.166  14.735  0.0512 -0.3660 -0.1604
 3079DOPE   C1B36131  24.275  20.650  13.366  0.0646  0.0104 -0.1874
 3079DOPE   D2B36132  23.981  20.282  13.426  0.3108 -0.0132 -0.2320
 3079DOPE   C3B36133  23.552  20.271  13.493 -0.2589 -0.0073 -0.3372
 3079DOPE   C4B36134  23.346  19.986  13.766 -0.0896  0.1768  0.2315
 3080DOPC   NC336135  33.266  11.908  14.029 -0.1077 -0.1860  0.1162
 3080DOPC   PO436136  33.018  12.225  13.969 -0.0746  0.0817  0.0713
 3080DOPC   GL136137  32.651  12.310  14.132 -0.5468  0.2115  0.5980
 3080DOPC   GL236138  32.607  12.559  14.252 -0.1734  0.1700 -0.1629
 3080DOPC   C1A36139  32.215  12.154  14.050 -0.0659  0.1279  0.1670
 3080DOPC   D2A36140  31.772  12.082  13.912 -0.3877 -0.0215  0.3861
 3080DOPC   C3A36141  31.823  11.564  13.902 -0.1098 -0.1142 -0.3124
 3080DOPC   C4A36142  31.730  11.238  14.142  0.1384  0.0883  0.0885
 3080DOPC   C1B36143  32.178  12.533  14.504  0.0606  0.0893  0.2919
 3080DOPC   D2B36144  32.146  12.839  14.859  0.1158 -0.0426 -0.4000
 3080DOPC   C3B36145  32.432  13.098  15.161  0.2110  0.2341 -0.1478
 3080DOPC   C4B36146  32.728  13.433  15.161 -0.0398 -0.1060  0.0438
 3081POSM   NC336147  30.489  12.186  13.649 -0.1070 -0.3606  0.0266
 3081POSM   PO436148  30.151  12.159  13.825  0.1307  0.1698 -0.0489
 3081POSM   AM136149  30.388  12.236  14.084  0.2078 -0.4250 -0.1097
 3081POSM   AM236150  30.380  12.379  14.316 -0.1212  0.0383  0.0552
 3081POSM   T1A36151  30.748  12.114  14.431  0.1616 -0.0484 -0.1452
 3081POSM   C2A36152  31.155  11.935  14.577 -0.1092 -0.0551 -0.0111
 3081POSM   C3A36153  31.504  11.664  14.549  0.2714  0.2492  0.0788
 3081POSM   C1B36154  30.293  12.186  14.574  0.1980  0.0929 -0.1951
 3081POSM   D2B36155  30.135  11.850  14.861 -0.3395  0.2487 -0.0765
 3081POSM   C3B36156  29.696  11.964  14.888 -0.1479 -0.1386  0.0672
 3081POSM   C4B36157  29.414  12.153  15.153  0.0590 -0.2752  0.0788
 3082DOPE   NH336158  30.952  16.534  13.810  0.1313  0.1871 -0.1950
 3082DOPE   PO436159  30.686  16.686  13.763 -0.2860  0.0458  0.0370
 3082DOPE   GL136160  30.840  16.946  13.465 -0.2176 -0.1510  0.3491
 3082DOPE   GL236161  30.885  17.114  13.645 -0.0125 -0.1622 -0.1496
 3082DOPE   C1A36162  30.901  17.260  13.087 -0.0177  0.0250  0.0251
 3082DOPE   D2A36163  30.718  17.728  13.193 -0.1979 -0.0805  0.3023
 3082DOPE   C3A36164  30.963  18.038  13.487  0.0551 -0.3370 -0.2108
 3082DOPE   C4A36165  31.201  18.257  13.758 -0.1420  0.0311  0.0160
 3082DOPE   C1B36166  31.124  17.458  13.486 -0.0008 -0.2513  0.0417
 3082DOPE   D2B36167  31.290  17.779  13.772 -0.0772  0.0891 -0.1120
 3082DOPE   C3B36168  31.260  17.873  14.211 -0.0249 -0.2733 -0.2145
 3082DOPE   C4B36169  31.202  17.970  14.677  0.2489 -0.1559 -0.4482
 3083DOPE   NH336170  23.280  15.391  12.571 -0.0111  0.2653  0.0154
 3083DOPE   PO436171  23.057  15.205  12.524 -0.1144  0.1665 -0.2050
 3083DOPE   GL136172  22.882  15.249  12.858  0.2013 -0.1872  0.2493
 3083DOPE   GL236173  22.943  15.503  12.954  0.0823 -0.1009 -0.2788
 3083DOPE   C1A36174  22.428  15.284  12.962  0.1744  0.2167 -0.0322
 3083DOPE   D2A36175  22.102  15.574  13.001  0.0247 -0.1700 -0.1797
 3083DOPE   C3A36176  22.063  15.994  13.160 -0.3261 -0.0358  0.1250
 3083DOPE   C4A36177  22.026  16.338  13.390 -0.0398 -0.1131 -0.0969
 3083DOPE   C1B36178  23.068  15.923  12.904 -0.0170 -0.0543 -0.3130
 3083DOPE   D2B36179  23.354  16.265  13.032 -0.1507  0.3880  0.0917
 3083DOPE   C3B36180  23.345  16.611  13.386 -0.4410  0.0576  0.3155
 3083DOPE   C4B36181  23.375  16.711  13.794  0.0203 -0.0579 -0.2484
 3084DOPC   NC336182  27.349  17.802  13.913  0.0715  0.0886 -0.0795
 3084DOPC   PO436183  27.283  18.172  13.787  0.3943  0.1424 -0.1597
 3084DOPC   GL136184  27.167  18.155  14.206 -0.1785 -0.2010  0.0251
 3084DOPC   GL236185  27.320  18.340  14.356 -0.0243  0.0997 -0.0307
 3084DOPC   C1A36186  26.839  18.300  14.509 -0.1843 -0.2164  0.3098
 3084DOPC   D2A36187  26.413  18.261  14.738  0.0593 -0.1273  0.2821
 3084DOPC   C3A36188  26.052  18.547  14.542  0.1280 -0.1815 -0.0735
 3084DOPC   C4A36189  26.024  19.034  14.500 -0.2814  0.0426  0.1170
 3084DOPC   C1B36190  27.621  18.126  14.645  0.1225  0.1340 -0.0727
 3084DOPC   D2B36191  27.651  18.085  15.080 -0.1006  0.2577 -0.1994
 3084DOPC   C3B36192  27.715  17.585  15.086  0.0148 -0.1911  0.2780
 3084DOPC   C4B36193  27.443  17.189  14.975 -0.0971 -0.2402 -0.3331
 3085DOPE   NH336194  24.032  18.675  12.905 -0.1538  0.0019  0.0275
 3085DOPE   PO436195  24.248  18.855  13.015 -0.0685  0.0821  0.3383
 3085DOPE   GL136196  24.400  19.089  13.247  0.2902 -0.3604 -0.0876
 3085DOPE   GL236197  24.279  19.371  13.122 -0.2288  0.2664  0.3701
 3085DOPE   C1A36198  24.702  19.124  13.589  0.3836 -0.0500 -0.2350
 3085DOPE   D2A36199  24.525  19.180  14.027 -0.0422 -0.2562  0.0999
 3085DOPE   C3A36200  24.596  19.570  14.269  0.1874 -0.3983  0.5122
 3085DOPE   C4A36201  24.644  19.910  14.626  0.1683 -0.0801  0.0837
 3085DOPE   C1B36202  24.235  19.364  13.616 -0.0119  0.0059  0.1044
 3085DOPE   D2B36203  23.997  19.447  14.026 -0.3159  0.1072 -0.1027
 3085DOPE   C3B36204  23.652  19.752  14.061  0.0098  0.1767  0.0392
 3085DOPE   C4B36205  23.255  19.774  14.264 -0.2750 -0.2836 -0.1592
 3086POSM   NC336206  31.443  17.063  13.464  0.1998 -0.3005 -0.0133
 3086POSM   PO436207  31.286  16.880  13.778 -0.0850 -0.2882 -0.0311
 3086POSM   AM136208  31.110  16.970  14.032 -0.2914  0.2416  0.2546
 3086POSM   AM236209  31.080  16.881  14.318 -0.0751 -0.2695  0.4538
 3086POSM   T1A36210  30.712  17.200  14.167  0.2613 -0.0954 -0.1528
 3086POSM   C2A36211  30.531  17.401  14.602 -0.3085 -0.1318 -0.1310
 3086POSM   C3A36212  30.254  17.153  14.856 -0.1814 -0.1695 -0.0916
 3086POSM   C1B36213  31.171  17.195  14.452 -0.1749  0.2156 -0.1079
 3086POSM   D2B36214  31.017  17.493  14.746 -0.0242 -0.3483 -0.2991
 3086POSM   C3B36215  31.195  17.738  15.131 -0.0319  0.2127 -0.4237
 3086POSM   C4B36216  31.433  17.643  15.540  0.2265 -0.0960 -0.1188
 3087DOPC   NC336217  31.160  19.221  13.624 -0.2204 -0.1068  0.0815
 3087DOPC   PO436218  31.240  19.329  13.261 -0.1376 -0.1628 -0.2310
 3087DOPC   GL136219  31.606  19.490  13.347 -0.3334  0.2441  0.1601
 3087DOPC   GL236220  31.540  19.562  13.655 -0.3128 -0.0197  0.1081
 3087DOPC   C1A36221  31.995  19.722  13.269 -0.0958  0.2653  0.4913
 3087DOPC   D2A36222  32.436  19.804  13.372 -0.1914 -0.1197  0.0212
 3087DOPC   C3A36223  32.695  19.428  13.481  0.0706  0.2307 -0.1992
 3087DOPC   C4A36224  32.983  19.069  13.405 -0.0851  0.1227 -0.3486
 3087DOPC   C1B36225  31.771  19.925  13.786  0.2209  0.0645  0.3431
 3087DOPC   D2B36226  31.692  20.285  14.112 -0.1131 -0.1178 -0.0265
 3087DOPC   C3B36227  31.918  20.516  13.799  0.0479 -0.3116  0.1272
 3087DOPC   C4B36228  31.989  20.764  13.456 -0.1399  0.3868 -0.2059
 3088POSM   NC336229  31.839  23.155  13.734 -0.2140 -0.3060  0.0922
 3088POSM   PO436230  31.568  23.254  13.459  0.0455  0.0757 -0.0985
 3088POSM   AM136231  31.346  23.163  13.663 -0.0702 -0.4638  0.0547
 3088POSM   AM236232  31.189  23.276  13.915 -0.3164  0.0917  0.1975
 3088POSM   T1A36233  31.096  22.768  13.794 -0.1853 -0.6546  0.2656
 3088POSM   C2A36234  30.705  22.550  13.669 -0.0176  0.0496  0.1697
 3088POSM   C3A36235  30.391  22.572  13.322  0.1009  0.1916 -0.1632
 3088POSM   C1B36236  31.265  23.115  14.247  0.1341 -0.0064 -0.1455
 3088POSM   D2B36237  31.358  23.032  14.678  0.0198 -0.0755 -0.1231
 3088POSM   C3B36238  31.027  22.898  15.011  0.2533 -0.2081  0.0201
 3088POSM   C4B36239  30.699  22.749  15.381 -0.2707  0.1244  0.0276
 3089DOPE   NH336240  28.847  11.562  13.334  0.0388 -0.0320  0.1082
 3089DOPE   PO436241  28.846  11.556  13.628 -0.0308  0.3487  0.1031
 3089DOPE   GL136242  28.822  11.624  14.047  0.1763  0.1248  0.0288
 3089DOPE   GL236243  28.773  11.469  14.350  0.0670 -0.1664 -0.2650
 3089DOPE   C1A36244  29.030  11.980  14.287  0.0420 -0.3762 -0.1403
 3089DOPE   D2A36245  29.267  12.221  14.683 -0.2638  0.0878 -0.3192
 3089DOPE   C3A36246  29.358  12.596  14.939  0.1287 -0.0436 -0.0275
 3089DOPE   C4A36247  29.400  12.969  15.204  0.1176  0.0186  0.1785
 3089DOPE   C1B36248  28.628  11.029  14.175 -0.1463  0.0184  0.2309
 3089DOPE   D2B36249  28.508  10.592  14.041 -0.2607  0.2138  0.2328
 3089DOPE   C3B36250  28.263  10.277  14.226 -0.1045 -0.0136  0.1008
 3089DOPE   C4B36251  27.816  10.284  14.413  0.2927  0.0839  0.1522
 3090DOPC   NC336252  30.905  15.832  13.768  0.2220 -0.3589  0.0310
 3090DOPC   PO436253  30.905  16.114  13.497 -0.0983  0.3235  0.0278
 3090DOPC   GL136254  31.161  15.781  13.287  0.3346 -0.0485  0.1774
 3090DOPC   GL236255  31.090  15.490  13.425 -0.0592 -0.1489  0.0265
 3090DOPC   C1A36256  31.564  15.595  13.481  0.0696 -0.3286 -0.0116
 3090DOPC   D2A36257  31.746  15.170  13.470  0.1321  0.0336 -0.1194
 3090DOPC   C3A36258  32.132  15.043  13.729  0.1135  0.1670 -0.2191
 3090DOPC   C4A36259  32.625  15.104  13.772 -0.1037 -0.3524  0.1810
 3090DOPC   C1B36260  31.285  15.272  13.799  0.0036 -0.2037 -0.0107
 3090DOPC   D2B36261  31.145  14.991  14.196 -0.0593  0.0933 -0.0792
 3090DOPC   C3B36262  31.251  15.226  14.567 -0.1065  0.0788 -0.3402
 3090DOPC   C4B36263  31.636  15.358  14.665 -0.3483 -0.0779  0.1362
 3091DOPE   NH336264  34.414  11.564  14.168 -0.0933  0.1222  0.0582
 3091DOPE   PO436265  34.232  11.711  13.951  0.0293  0.0162  0.1015
 3091DOPE   GL136266  34.435  12.039  14.187 -0.1890 -0.1099 -0.2131
 3091DOPE   GL236267  34.677  11.936  14.351  0.0353 -0.0911 -0.3560
 3091DOPE   C1A36268  34.660  12.425  14.129 -0.3625  0.2116  0.0403
 3091DOPE   D2A36269  34.756  12.893  14.091  0.2519  0.0328 -0.1190
 3091DOPE   C3A36270  34.763  12.900  14.598 -0.1721 -0.2512  0.2920
 3091DOPE   C4A36271  34.905  12.838  15.020  0.0522 -0.0030  0.1803
 3091DOPE   C1B36272  34.818  11.964  14.801  0.1170 -0.1129  0.1487
 3091DOPE   D2B36273  34.973  12.317  14.977  0.0837 -0.1269  0.0471
 3091DOPE   C3B36274  34.795  12.510  15.414  0.2018 -0.0547 -0.3279
 3091DOPE   C4B36275  34.402  12.390  15.598  0.0666 -0.0987 -0.0362
 3092POSM   NC336276  24.012  15.337  12.360 -0.2679 -0.0697 -0.0024
 3092POSM   PO436277  23.730  15.208  12.686 -0.1464  0.1942  0.3206
 3092POSM   AM136278  23.876  15.161  13.020  0.4860  0.5205  0.0066
 3092POSM   AM236279  23.958  14.925  13.185  0.3819 -0.0080 -0.1821
 3092POSM   T1A36280  23.761  15.169  13.547 -0.0598 -0.2155  0.1206
 3092POSM   C2A36281  23.818  14.968  14.002  0.1377  0.0619  0.1827
 3092POSM   C3A36282  23.611  14.722  14.318  0.1366 -0.0825  0.3527
 3092POSM   C1B36283  24.294  15.123  13.186  0.5107 -0.1042  0.2623
 3092POSM   D2B36284  24.646  15.441  13.372  0.0976 -0.2322  0.1919
 3092POSM   C3B36285  24.696  15.590  13.773  0.2584  0.0762 -0.1350
 3092POSM   C4B36286  24.937  15.856  13.996  0.2154  0.0219 -0.1939
 3093DOPC   NC336287  29.386  19.324  13.558  0.1534  0.0206 -0.0384
 3093DOPC   PO436288  29.633  19.013  13.567 -0.3240  0.0101  0.0896
 3093DOPC   GL136289  29.366  18.914  13.736 -0.2031 -0.0964 -0.0703
 3093DOPC   GL236290  29.529  18.705  13.973 -0.0520  0.1647  0.0799
 3093DOPC   C1A36291  28.961  19.127  13.781  0.0215 -0.2788  0.3182
 3093DOPC   D2A36292  28.654  19.220  14.084  0.5401 -0.0023  0.0197
 3093DOPC   C3A36293  28.367  19.529  14.009  0.0652 -0.0564 -0.0978
 3093DOPC   C4A36294  28.022  19.819  14.209  0.0048 -0.3484 -0.1084
 3093DOPC   C1B36295  29.869  18.590  14.235 -0.2364  0.0779 -0.2702
 3093DOPC   D2B36296  29.971  18.419  14.633 -0.0567 -0.2375  0.2526
 3093DOPC   C3B36297  30.266  18.221  14.934 -0.1331  0.2660 -0.3061
 3093DOPC   C4B36298  30.390  18.266  15.428  0.1259 -0.3435  0.1133
 3094POSM   NC336299  30.373  13.164  13.442 -0.2224 -0.1717  0.0086
 3094POSM   PO436300  30.617  13.420  13.596  0.2652 -0.0928  0.1482
 3094POSM   AM136301  30.529  13.376  13.930 -0.3784  0.2345 -0.1528
 3094POSM   AM236302  30.276  13.276  13.996 -0.1877  0.0815  0.1358
 3094POSM   T1A36303  30.688  13.276  14.408 -0.1728  0.0095  0.1115
 3094POSM   C2A36304  30.707  13.049  14.763  0.0016 -0.1083 -0.2664
 3094POSM   C3A36305  30.737  12.827  15.157 -0.1363  0.0144 -0.2095
 3094POSM   C1B36306  30.101  13.310  14.272 -0.0349 -0.0163 -0.1381
 3094POSM   D2B36307  30.124  13.413  14.729  0.1809  0.1843  0.1661
 3094POSM   C3B36308  29.749  13.517  15.048  0.2940 -0.0721  0.0356
 3094POSM   C4B36309  29.642  13.820  15.402  0.0514  0.0729 -0.1517
 3095POSM   NC336310  25.039  18.463  12.939 -0.1442  0.0798 -0.0310
 3095POSM   PO436311  24.671  18.629  12.839  0.2056 -0.3394  0.2108
 3095POSM   AM136312  24.538  18.341  12.906 -0.1575  0.2141  0.1685
 3095POSM   AM236313  24.290  18.195  12.922 -0.2287 -0.1893 -0.1609
 3095POSM   T1A36314  24.705  17.905  12.787  0.1729 -0.2917  0.2077
 3095POSM   C2A36315  24.645  17.583  12.445  0.0083  0.1810  0.0889
 3095POSM   C3A36316  24.353  17.180  12.359 -0.5889  0.1414 -0.0321
 3095POSM   C1B36317  24.209  18.228  13.246 -0.1550 -0.1336  0.2421
 3095POSM   D2B36318  24.323  18.513  13.650  0.1627  0.1543  0.1305
 3095POSM   C3B36319  24.128  18.904  13.863  0.2252  0.1145  0.2234
 3095POSM   C4B36320  23.722  19.014  14.025  0.0844  0.0038  0.0770
 3096DOPC   NC336321  28.510  14.027  12.681 -0.1937 -0.0764  0.0069
 3096DOPC   PO436322  28.268  13.724  12.659  0.6168  0.0773  0.2272
 3096DOPC   GL136323  28.128  13.888  12.984  0.0305  0.0516 -0.0809
 3096DOPC   GL236324  28.303  13.968  13.170  0.1672 -0.0593  0.0668
 3096DOPC   C1A36325  28.019  13.536  13.244  0.1544  0.5454  0.3747
 3096DOPC   D2A36326  27.672  13.626  13.517  0.0221 -0.0557  0.3309
 3096DOPC   C3A36327  27.820  13.840  13.912 -0.0024 -0.1387  0.0727
 3096DOPC   C4A36328  27.862  14.000  14.381  0.2953  0.0020 -0.3195
 3096DOPC   C1B36329  28.263  13.793  13.609  0.1221 -0.3042 -0.0478
 3096DOPC   D2B36330  28.449  13.589  13.997 -0.3243 -0.0815 -0.1708
 3096DOPC   C3B36331  28.670  13.681  14.378  0.0028  0.1276  0.1524
 3096DOPC   C4B36332  28.582  13.772  14.801  0.0494 -0.0036  0.0115
 3097DOPE   NH336333  25.998  12.636  12.899  0.2296 -0.1686  0.0304
 3097DOPE   PO436334  26.015  12.756  13.161  0.1101 -0.0517 -0.1443
 3097DOPE   GL136335  26.180  13.033  13.258 -0.1318 -0.1246  0.1299
 3097DOPE   GL236336  26.426  13.199  13.153 -0.1788 -0.1204  0.2945
 3097DOPE   C1A36337  26.149  13.481  13.438 -0.0196  0.2053  0.2161
 3097DOPE   D2A36338  26.288  13.892  13.608 -0.1323  0.1289  0.0204
 3097DOPE   C3A36339  26.189  13.818  14.087 -0.2795 -0.4957 -0.0595
 3097DOPE   C4A36340  26.436  13.725  14.453  0.0905  0.2393 -0.0891
 3097DOPE   C1B36341  26.614  13.624  13.126  0.0759 -0.0950  0.3220
 3097DOPE   D2B36342  26.819  13.868  13.465 -0.2317 -0.0072  0.2344
 3097DOPE   C3B36343  26.738  13.702  13.904  0.1659  0.0627 -0.0562
 3097DOPE   C4B36344  26.901  13.823  14.334  0.2775 -0.0630  0.2071
 3098POSM   NC336345  27.036  23.182  13.540  0.2265 -0.1025  0.2052
 3098POSM   PO436346  26.765  23.054  13.819  0.0137 -0.0923 -0.1620
 3098POSM   AM136347  26.665  23.046  14.113  0.0734  0.1094  0.2967
 3098POSM   AM236348  26.441  23.188  14.236 -0.2955 -0.0957 -0.0698
 3098POSM   T1A36349  26.797  23.224  14.533  0.3068  0.2796  0.1121
 3098POSM   C2A36350  26.699  23.065  14.974  0.0114 -0.1053  0.1046
 3098POSM   C3A36351  26.361  22.790  15.127 -0.0614 -0.1134 -0.0295
 3098POSM   C1B36352  26.245  23.483  14.346 -0.2075 -0.2093  0.3851
 3098POSM   D2B36353  26.005  23.872  14.317 -0.3090  0.1267 -0.3936
 3098POSM   C3B36354  26.107  24.139  13.967 -0.2344 -0.0342 -0.3057
 3098POSM   C4B36355  26.514  24.394  13.894 -0.0305  0.1156  0.2507
 3099POSM   NC336356  26.529  12.715  13.409 -0.3164  0.2740  0.0744
 3099POSM   PO436357  26.500  12.585  13.075 -0.0724 -0.1324 -0.0822
 3099POSM   AM136358  26.546  12.843  12.876 -0.2978  0.0031  0.0259
 3099POSM   AM236359  26.393  12.866  12.651 -0.2557 -0.0379  0.1230
 3099POSM   T1A36360  26.807  13.279  12.814 -0.1499  0.3320 -0.2313
 3099POSM   C2A36361  27.079  13.658  12.948 -0.2927 -0.2100  0.2976
 3099POSM   C3A36362  27.266  13.933  13.274  0.0302  0.1215  0.2575
 3099POSM   C1B36363  26.344  13.204  12.693 -0.0508 -0.0038 -0.1911
 3099POSM   D2B36364  26.173  13.546  12.910 -0.0629  0.1794  0.0184
 3099POSM   C3B36365  25.835  13.614  12.611  0.2570  0.0928  0.3061
 3099POSM   C4B36366  25.410  13.827  12.617  0.1679  0.0588  0.0830
 3100DOPS   CNO36367  30.396  18.019  13.624  0.1881  0.0119  0.0337
 3100DOPS   PO436368  30.246  18.230  13.861  0.0723  0.0829  0.0863
 3100DOPS   GL136369  30.352  17.987  14.144  0.2783 -0.1509  0.3470
 3100DOPS   GL236370  30.375  17.699  14.084  0.1465  0.0048  0.2631
 3100DOPS   C1A36371  30.168  17.911  14.573  0.1429  0.2344 -0.0687
 3100DOPS   D2A36372  29.828  17.995  14.879  0.0035 -0.0263 -0.1517
 3100DOPS   C3A36373  29.970  17.991  15.303 -0.1529 -0.1843 -0.3738
 3100DOPS   C4A36374  29.929  18.286  15.663 -0.2891  0.1219 -0.3666
 3100DOPS   C1B36375  30.060  17.482  14.387  0.1879 -0.1136 -0.0383
 3100DOPS   D2B36376  29.708  17.203  14.582  0.1151  0.1063  0.1071
 3100DOPS   C3B36377  29.340  17.359  14.748 -0.0386 -0.0053 -0.0336
 3100DOPS   C4B36378  29.317  17.825  14.859  0.0975 -0.4795  0.1927
 3101DOPC   NC336379  26.110  21.433  13.462 -0.0640 -0.4136 -0.0310
 3101DOPC   PO436380  26.261  21.129  13.267  0.3134  0.0314  0.2158
 3101DOPC   GL136381  26.156  20.983  13.572 -0.0373  0.1972 -0.2019
 3101DOPC   GL236382  26.019  20.769  13.698  0.0890  0.1452  0.1373
 3101DOPC   C1A36383  26.047  21.128  14.068  0.3297  0.1791  0.0355
 3101DOPC   D2A36384  26.230  21.114  14.490 -0.2307  0.1208  0.1938
 3101DOPC   C3A36385  25.932  20.945  14.822  0.1642  0.3256  0.1205
 3101DOPC   C4A36386  25.711  20.838  15.220  0.0045  0.1250 -0.3389
 3101DOPC   C1B36387  25.615  20.531  13.916 -0.0434 -0.1848 -0.2270
 3101DOPC   D2B36388  25.282  20.599  14.250 -0.1405 -0.0112 -0.0982
 3101DOPC   C3B36389  24.958  20.229  14.286 -0.2582 -0.0716  0.1403
 3101DOPC   C4B36390  24.819  19.921  13.969  0.0402 -0.3952 -0.1694
 3102POSM   NC336391  22.963  16.943  12.536 -0.0186  0.0530 -0.0679
 3102POSM   PO436392  23.278  16.869  12.247 -0.2522  0.1299  0.1561
 3102POSM   AM136393  23.488  16.832  12.495  0.1864 -0.2914  0.0408
 3102POSM   AM236394  23.428  16.649  12.694 -0.1593  0.0195 -0.0809
 3102POSM   T1A36395  23.504  17.010  12.995  0.1375  0.1912  0.3576
 3102POSM   C2A36396  23.808  17.343  13.234 -0.2174 -0.0992  0.0211
 3102POSM   C3A36397  23.911  17.456  13.625 -0.2539 -0.0247  0.2759
 3102POSM   C1B36398  23.718  16.593  12.875 -0.0449  0.1468  0.1770
 3102POSM   D2B36399  23.917  16.639  13.289 -0.2887 -0.3552 -0.2346
 3102POSM   C3B36400  24.006  16.987  13.575  0.0642  0.1234 -0.0825
 3102POSM   C4B36401  24.096  17.191  13.962 -0.0333  0.2521 -0.1911
 3103DOPE   NH336402  27.984  15.163  13.068  0.0579  0.0255  0.2545
 3103DOPE   PO436403  28.308  15.149  13.124  0.2507  0.0022  0.0000
 3103DOPE   GL136404  28.573  15.213  13.444 -0.0692  0.0808 -0.1220
 3103DOPE   GL236405  28.623  14.983  13.609  0.0090  0.1109  0.0289
 3103DOPE   C1A36406  28.879  15.541  13.598  0.0820 -0.3669  0.0550
 3103DOPE   D2A36407  29.185  15.588  13.843  0.3308 -0.4058  0.2161
 3103DOPE   C3A36408  29.098  15.759  14.284  0.2375 -0.0088  0.0571
 3103DOPE   C4A36409  29.121  16.072  14.691  0.1980  0.4246 -0.1194
 3103DOPE   C1B36410  28.287  15.065  13.945  0.1115  0.0091 -0.1503
 3103DOPE   D2B36411  28.303  15.281  14.390  0.0891 -0.1165  0.1016
 3103DOPE   C3B36412  28.669  15.374  14.619 -0.0465  0.3204  0.0626
 3103DOPE   C4B36413  28.981  15.543  14.881 -0.1831 -0.0954  0.0180
 3104POSM   NC336414  23.642  19.317  12.523 -0.3015  0.2025 -0.0878
 3104POSM   PO436415  23.848  18.937  12.512 -0.0569  0.0481 -0.1087
 3104POSM   AM136416  23.692  18.960  12.804  0.1235 -0.2117 -0.2674
 3104POSM   AM236417  23.773  19.129  13.013  0.0124  0.1509 -0.6681
 3104POSM   T1A36418  23.251  19.050  13.089  0.0831 -0.2387 -0.0395
 3104POSM   C2A36419  23.003  18.992  13.473 -0.2090 -0.1061 -0.0531
 3104POSM   C3A36420  22.754  18.807  13.809 -0.3622 -0.2748 -0.1116
 3104POSM   C1B36421  23.824  19.408  13.035  0.1468  0.0552 -0.4125
 3104POSM   D2B36422  23.693  19.793  12.831  0.3674 -0.1245  0.2063
 3104POSM   C3B36423  23.598  20.210  13.001  0.4895  0.1583  0.2368
 3104POSM   C4B36424  23.759  20.642  13.038 -0.1583  0.4366  0.2517
 3105POSM   NC336425  26.306  19.159  13.524 -0.1708  0.0136  0.0419
 3105POSM   PO436426  26.249  18.816  13.515 -0.0139 -0.2427  0.1423
 3105POSM   AM136427  26.097  18.824  13.771 -0.2015 -0.0771  0.1285
 3105POSM   AM236428  26.061  19.010  13.975  0.3224  0.2572  0.1099
 3105POSM   T1A36429  25.847  18.532  14.106  0.0770  0.2465  0.3543
 3105POSM   C2A36430  25.680  18.232  14.388 -0.1733 -0.0563  0.0728
 3105POSM   C3A36431  25.462  18.258  14.811 -0.0618  0.1147  0.2107
 3105POSM   C1B36432  25.766  19.101  14.085  0.2742  0.0954 -0.0673
 3105POSM   D2B36433  25.516  19.220  14.485  0.0691 -0.0648 -0.2754
 3105POSM   C3B36434  25.535  19.694  14.515 -0.3481 -0.2644  0.1047
 3105POSM   C4B36435  25.647  20.040  14.852 -0.0772  0.1410  0.1516
 3106POSM   NC336436  25.624  18.330  12.951  0.0285 -0.0718 -0.2266
 3106POSM   PO436437  25.365  18.045  12.848  0.2538 -0.1979 -0.0173
 3106POSM   AM136438  25.379  17.980  13.166 -0.3133 -0.0017  0.2374
 3106POSM   AM236439  25.404  18.152  13.419 -0.1512 -0.2521  0.0863
 3106POSM   T1A36440  25.345  17.709  13.578  0.4445 -0.1925 -0.1125
 3106POSM   C2A36441  25.352  17.510  13.909  0.1311  0.2815 -0.1626
 3106POSM   C3A36442  25.256  17.137  14.213 -0.3287  0.1287 -0.0146
 3106POSM   C1B36443  25.061  18.131  13.491  0.1697  0.3362 -0.0992
 3106POSM   D2B36444  24.628  18.116  13.714  0.2214 -0.2716  0.2790
 3106POSM   C3B36445  24.761  18.296  14.122  0.2454  0.2562 -0.0352
 3106POSM   C4B36446  24.662  18.443  14.501 -0.1735  0.0595  0.2814
 3107DOPS   CNO36447  31.077  16.616  13.293  0.0935 -0.0365  0.1747
 3107DOPS   PO436448  31.408  16.460  13.301 -0.1516  0.0415  0.0548
 3107DOPS   GL136449  31.671  16.127  13.533  0.1871 -0.0744 -0.3143
 3107DOPS   GL236450  31.383  16.060  13.691 -0.1380 -0.2363  0.0249
 3107DOPS   C1A36451  32.104  16.001  13.405 -0.1127  0.3409 -0.0572
 3107DOPS   D2A36452  32.517  15.786  13.438  0.2501 -0.1492 -0.0102
 3107DOPS   C3A36453  32.579  15.615  13.869 -0.0959  0.0210 -0.2019
 3107DOPS   C4A36454  32.729  15.423  14.255  0.2371  0.4257  0.0206
 3107DOPS   C1B36455  31.691  16.058  14.047 -0.1128 -0.1700 -0.0911
 3107DOPS   D2B36456  31.690  15.898  14.442 -0.4319 -0.0190  0.1995
 3107DOPS   C3B36457  31.341  15.736  14.733  0.2215 -0.0348 -0.4254
 3107DOPS   C4B36458  30.915  15.925  14.764 -0.1838  0.0489  0.3504
 3108POSM   NC336459  29.310  11.513  13.722 -0.2577 -0.1982 -0.0268
 3108POSM   PO436460  29.309  11.700  13.391  0.0158  0.0859  0.1142
 3108POSM   AM136461  29.206  11.990  13.472  0.2312 -0.2636 -0.3095
 3108POSM   AM236462  28.952  12.027  13.575  0.1911 -0.1251 -0.0423
 3108POSM   T1A36463  29.180  12.506  13.449 -0.0596  0.2368 -0.0153
 3108POSM   C2A36464  29.277  12.972  13.386  0.2411  0.1704 -0.3034
 3108POSM   C3A36465  29.277  13.416  13.643  0.2949  0.0671  0.1408
 3108POSM   C1B36466  28.904  12.240  13.866  0.0275 -0.1062  0.0462
 3108POSM   D2B36467  28.910  12.622  14.221 -0.0547 -0.2287 -0.2014
 3108POSM   C3B36468  28.875  12.540  14.638 -0.0581 -0.0246  0.1332
 3108POSM   C4B36469  28.890  12.315  15.058  0.0064 -0.0075 -0.3224
 3109DOPE   NH336470  33.887  14.253  13.568  0.0404  0.0190 -0.0450
 3109DOPE   PO436471  33.608  14.424  13.716 -0.2934  0.2289 -0.1650
 3109DOPE   GL136472  33.428  14.718  13.908  0.1071  0.1957 -0.3007
 3109DOPE   GL236473  33.430  14.977  13.816  0.0041  0.1150 -0.2773
 3109DOPE   C1A36474  33.085  14.947  14.130 -0.2990 -0.1677 -0.1090
 3109DOPE   D2A36475  32.934  15.030  14.547 -0.2651  0.0169  0.1175
 3109DOPE   C3A36476  32.891  14.640  14.821 -0.1320 -0.1124  0.1538
 3109DOPE   C4A36477  32.876  14.521  15.248  0.0563 -0.0125 -0.1129
 3109DOPE   C1B36478  33.074  15.101  13.559  0.1595 -0.1474 -0.0390
 3109DOPE   D2B36479  32.772  15.381  13.327  0.0619  0.2924  0.4605
 3109DOPE   C3B36480  32.316  15.337  13.361  0.2403  0.0808  0.0773
 3109DOPE   C4B36481  31.996  15.362  13.095 -0.1027 -0.3108 -0.0277
 3110DOPE   NH336482  34.295  22.215  13.548  0.4799 -0.3542  0.1652
 3110DOPE   PO436483  34.220  21.973  13.733  0.0752  0.0160 -0.0632
 3110DOPE   GL136484  34.254  21.807  14.004 -0.2487  0.0420 -0.0718
 3110DOPE   GL236485  34.541  21.784  14.035 -0.1090 -0.2276  0.4720
 3110DOPE   C1A36486  34.217  21.926  14.451  0.2847  0.0776  0.0218
 3110DOPE   D2A36487  34.485  21.933  14.790  0.0080  0.0058  0.0511
 3110DOPE   C3A36488  34.559  22.048  15.185 -0.0764  0.0669  0.0265
 3110DOPE   C4A36489  34.288  22.425  15.220 -0.0613 -0.0465  0.4290
 3110DOPE   C1B36490  34.715  21.541  14.446 -0.0328 -0.0760 -0.0644
 3110DOPE   D2B36491  34.730  21.135  14.730  0.0314 -0.0941  0.0606
 3110DOPE   C3B36492  34.478  21.002  15.071 -0.5735 -0.0727 -0.1859
 3110DOPE   C4B36493  34.430  21.163  15.516 -0.0330 -0.1775  0.4564
 3111DOPE   NH336494  26.927  18.573  13.967 -0.1330  0.3675  0.1462
 3111DOPE   PO436495  27.219  18.663  14.030  0.3791 -0.0576  0.0319
 3111DOPE   GL136496  27.522  18.593  14.025 -0.0321  0.1890  0.0148
 3111DOPE   GL236497  27.665  18.528  13.822  0.1718 -0.0551  0.0853
 3111DOPE   C1A36498  27.677  18.719  14.457 -0.1795 -0.1019  0.0635
 3111DOPE   D2A36499  27.493  18.562  14.893 -0.0112  0.1210  0.3515
 3111DOPE   C3A36500  27.214  18.180  14.957 -0.3741  0.3091  0.0986
 3111DOPE   C4A36501  27.265  17.727  15.077 -0.1131  0.0441 -0.2607
 3111DOPE   C1B36502  28.047  18.436  13.616 -0.4273 -0.1949 -0.1037
 3111DOPE   D2B36503  28.331  18.229  13.306 -0.0706  0.0450  0.1944
 3111DOPE   C3B36504  28.338  17.719  13.266 -0.0076 -0.0406  0.0351
 3111DOPE   C4B36505  28.093  17.387  13.386 -0.2790  0.1098  0.1642
 3112DOPE   NH336506  23.104  14.085  12.615 -0.3438 -0.3288 -0.0062
 3112DOPE   PO436507  23.203  14.072  12.319 -0.2143  0.1594 -0.3248
 3112DOPE   GL136508  23.571  14.008  12.292  0.0625 -0.2978 -0.0791
 3112DOPE   GL236509  23.577  14.204  12.610  0.1654  0.1550  0.1084
 3112DOPE   C1A36510  23.893  14.248  11.988  0.0097 -0.1225 -0.0100
 3112DOPE   D2A36511  24.240  14.555  12.033 -0.0056 -0.1111  0.0539
 3112DOPE   C3A36512  24.511  14.468  12.493 -0.3617 -0.1679  0.0327
 3112DOPE   C4A36513  24.445  14.272  12.841 -0.2027  0.1542 -0.0633
 3112DOPE   C1B36514  23.751  13.749  12.627  0.2559 -0.0167 -0.2363
 3112DOPE   D2B36515  24.061  13.455  12.800  0.0258 -0.2292  0.1842
 3112DOPE   C3B36516  24.116  13.248  13.198  0.2164  0.2503  0.2475
 3112DOPE   C4B36517  23.866  13.006  13.515  0.4418  0.0669 -0.0260
 3113POSM   NC336518  24.004  14.389  12.418  0.1340  0.0853 -0.1309
 3113POSM   PO436519  23.802  14.637  12.708 -0.1199  0.1072  0.0337
 3113POSM   AM136520  23.960  14.426  12.923 -0.1349 -0.4764 -0.1107
 3113POSM   AM236521  23.845  14.351  13.184  0.2105  0.2661 -0.0172
 3113POSM   T1A36522  24.094  13.926  13.021 -0.2706 -0.3381  0.3811
 3113POSM   C2A36523  24.497  13.715  12.988 -0.1637  0.1957 -0.4480
 3113POSM   C3A36524  24.873  13.952  13.082 -0.1827 -0.1595  0.1364
 3113POSM   C1B36525  24.017  14.175  13.464 -0.1962 -0.2208  0.2339
 3113POSM   D2B36526  24.320  13.858  13.605  0.0001 -0.4650  0.1734
 3113POSM   C3B36527  24.753  14.008  13.610  0.0213 -0.1729 -0.0737
 3113POSM   C4B36528  25.053  14.070  13.916  0.0765  0.1134 -0.0647
 3114DOPC   NC336529  33.739  20.663  13.164 -0.2934  0.0983  0.3167
 3114DOPC   PO436530  34.054  20.550  13.480  0.0398 -0.0375 -0.0250
 3114DOPC   GL136531  33.788  20.543  13.830 -0.1606  0.1671  0.0245
 3114DOPC   GL236532  33.829  20.773  13.977 -0.1146  0.1453 -0.2853
 3114DOPC   C1A36533  33.626  20.309  14.205 -0.0590  0.0073  0.4525
 3114DOPC   D2A36534  33.736  20.173  14.603 -0.0172 -0.1212 -0.0018
 3114DOPC   C3A36535  33.825  19.655  14.537  0.0931  0.1370 -0.5077
 3114DOPC   C4A36536  34.080  19.388  14.313 -0.2134 -0.0165 -0.1818
 3114DOPC   C1B36537  33.461  20.820  14.276  0.1179  0.0517  0.2190
 3114DOPC   D2B36538  32.955  20.862  14.374  0.2177 -0.1716 -0.0504
 3114DOPC   C3B36539  32.866  21.125  14.732 -0.2446 -0.2535 -0.1838
 3114DOPC   C4B36540  32.875  21.513  14.975 -0.3514 -0.0063 -0.1661
 3115DOPC   NC336541  29.003  21.707  13.732 -0.1840  0.0149  0.1233
 3115DOPC   PO436542  28.904  21.308  13.720  0.0540 -0.1634  0.0325
 3115DOPC   GL136543  29.099  21.346  13.981 -0.0567  0.2476 -0.1311
 3115DOPC   GL236544  29.369  21.147  13.985  0.0908  0.1156  0.3539
 3115DOPC   C1A36545  28.959  21.268  14.405 -0.2478 -0.1056  0.0500
 3115DOPC   D2A36546  28.933  21.487  14.841 -0.0615  0.1166 -0.1175
 3115DOPC   C3A36547  28.927  21.473  15.331  0.0005 -0.0267  0.0778
 3115DOPC   C4A36548  28.763  21.463  15.795 -0.0098  0.0212  0.2629
 3115DOPC   C1B36549  29.644  21.114  14.339 -0.1901  0.2709 -0.0207
 3115DOPC   D2B36550  29.882  20.813  14.560 -0.1124 -0.1600  0.1165
 3115DOPC   C3B36551  29.757  20.682  14.936  0.2569 -0.1374  0.2077
 3115DOPC   C4B36552  29.655  20.382  15.260 -0.0003 -0.0947 -0.0607
 3116POSM   NC336553  25.522  16.228  12.641 -0.3107 -0.0066 -0.0320
 3116POSM   PO436554  25.530  16.549  12.847  0.0922  0.3344  0.1933
 3116POSM   AM136555  25.256  16.650  12.986  0.2998  0.0834  0.0140
 3116POSM   AM236556  25.081  16.843  12.885 -0.0721 -0.0207 -0.0560
 3116POSM   T1A36557  24.912  16.721  13.352 -0.1794  0.1655 -0.1004
 3116POSM   C2A36558  24.522  16.953  13.484  0.3438 -0.4244 -0.0606
 3116POSM   C3A36559  24.310  17.282  13.306 -0.2586  0.1225 -0.3697
 3116POSM   C1B36560  24.889  17.079  12.986  0.4044 -0.0772 -0.1001
 3116POSM   D2B36561  24.667  17.464  12.951 -0.2298 -0.0475  0.1293
 3116POSM   C3B36562  24.198  17.383  12.761 -0.0754  0.1303  0.0279
 3116POSM   C4B36563  23.973  16.979  12.604  0.0827 -0.1203  0.1635
 3117POSM   NC336564  30.882  18.641  13.601  0.1526  0.1592 -0.2433
 3117POSM   PO436565  31.132  18.840  13.385  0.0301 -0.1038 -0.2379
 3117POSM   AM136566  31.395  18.673  13.498  0.0628  0.2276  0.1097
 3117POSM   AM236567  31.573  18.638  13.717 -0.0153 -0.4351 -0.1862
 3117POSM   T1A36568  31.709  18.300  13.421 -0.0639  0.0064  0.0625
 3117POSM   C2A36569  31.875  17.994  13.702  0.3240 -0.2110 -0.2399
 3117POSM   C3A36570  31.735  17.737  14.039 -0.3017 -0.0843 -0.0271
 3117POSM   C1B36571  31.439  18.656  14.025  0.0767 -0.0276  0.0946
 3117POSM   D2B36572  31.261  18.816  14.406  0.0517 -0.0187 -0.1395
 3117POSM   C3B36573  31.318  18.494  14.737  0.0963  0.0120  0.3544
 3117POSM   C4B36574  31.323  18.357  15.140 -0.1458  0.0259 -0.0008
 3118DOPS   CNO36575  30.317  13.704  13.281 -0.2764 -0.1868 -0.0400
 3118DOPS   PO436576  30.496  13.976  13.431 -0.0960 -0.1346 -0.1389
 3118DOPS   GL136577  30.705  13.896  13.728  0.2575 -0.1401  0.2410
 3118DOPS   GL236578  30.994  13.774  13.618  0.1042 -0.0684 -0.1945
 3118DOPS   C1A36579  30.862  13.865  14.162 -0.1402  0.0516 -0.0606
 3118DOPS   D2A36580  31.031  13.768  14.569 -0.4247 -0.0542  0.0484
 3118DOPS   C3A36581  30.796  13.929  14.942  0.1216  0.3026 -0.2260
 3118DOPS   C4A36582  30.753  13.800  15.397  0.2592  0.3495  0.0704
 3118DOPS   C1B36583  31.286  13.910  13.315 -0.2747 -0.2060 -0.0390
 3118DOPS   D2B36584  31.538  14.278  13.279 -0.0495  0.0060  0.1592
 3118DOPS   C3B36585  32.010  14.149  13.388  0.0868 -0.0976  0.0582
 3118DOPS   C4B36586  32.331  14.376  13.650 -0.2408  0.1273  0.0866
 3119DOPE   NH336587  30.374  19.627  13.555 -0.1075 -0.0975  0.0203
 3119DOPE   PO436588  30.452  19.538  13.254  0.1528 -0.2942 -0.0723
 3119DOPE   GL136589  30.878  19.555  13.423 -0.1313 -0.0754  0.4152
 3119DOPE   GL236590  30.854  19.824  13.389 -0.0033 -0.1482  0.1748
 3119DOPE   C1A36591  31.037  19.641  13.844 -0.1806 -0.2640  0.0025
 3119DOPE   D2A36592  31.004  19.996  14.136  0.0526  0.2377 -0.1017
 3119DOPE   C3A36593  30.860  19.954  14.599 -0.2966 -0.1351  0.2503
 3119DOPE   C4A36594  30.596  20.058  14.941  0.0386  0.0818  0.2563
 3119DOPE   C1B36595  31.262  19.973  13.555  0.0111 -0.1281 -0.0188
 3119DOPE   D2B36596  31.579  20.279  13.492 -0.0822  0.0994 -0.0329
 3119DOPE   C3B36597  32.052  20.186  13.514 -0.1361 -0.1203  0.4889
 3119DOPE   C4B36598  32.421  20.500  13.501  0.1285  0.2327  0.1590
 3120DOPC   NC336599  30.327  17.247  13.290  0.2911 -0.0244 -0.1539
 3120DOPC   PO436600  30.227  17.607  13.308 -0.3746  0.1416 -0.1589
 3120DOPC   GL136601  29.837  17.330  13.359  0.0974  0.3484  0.0143
 3120DOPC   GL236602  29.929  17.242  13.662 -0.2565  0.2684  0.0354
 3120DOPC   C1A36603  29.752  16.906  13.181  0.0341 -0.1594  0.2264
 3120DOPC   D2A36604  29.708  16.398  13.048  0.0709 -0.1337 -0.0932
 3120DOPC   C3A36605  29.981  15.998  13.139 -0.0821  0.1013 -0.1723
 3120DOPC   C4A36606  30.373  15.833  13.035  0.1078 -0.2914  0.2483
 3120DOPC   C1B36607  29.732  16.846  13.738  0.0702 -0.0831  0.1256
 3120DOPC   D2B36608  29.428  16.604  13.454 -0.1146  0.1900 -0.0978
 3120DOPC   C3B36609  29.151  16.278  13.619 -0.0934  0.1977  0.0717
 3120DOPC   C4B36610  28.809  15.993  13.815  0.2356  0.0242 -0.0944
 3121DOPC   NC336611  27.467  19.811  14.017 -0.0057  0.1343 -0.0650
 3121DOPC   PO436612  27.122  19.924  13.920 -0.2465  0.2372  0.1862
 3121DOPC   GL136613  27.157  20.030  14.309  0.0261  0.2247 -0.3455
 3121DOPC   GL236614  27.010  20.255  14.376 -0.2340 -0.3255  0.0444
 3121DOPC   C1A36615  27.505  19.910  14.601 -0.4868  0.0881  0.3136
 3121DOPC   D2A36616  27.953  20.090  14.640 -0.3456  0.0128  0.2692
 3121DOPC   C3A36617  28.359  20.063  14.803 -0.0976 -0.2272 -0.1852
 3121DOPC   C4A36618  28.570  20.017  15.215  0.0946  0.2881  0.1421
 3121DOPC   C1B36619  26.941  19.845  14.617  0.1610  0.0089 -0.1843
 3121DOPC   D2B36620  26.842  19.359  14.668 -0.0396 -0.1529  0.1001
 3121DOPC   C3B36621  27.029  19.178  15.056  0.1813 -0.0251  0.0869
 3121DOPC   C4B36622  27.457  19.070  15.249  0.1711 -0.2806  0.0455
 3122DOPC   NC336623  27.964  22.792  13.792 -0.3184 -0.1523  0.0673
 3122DOPC   PO436624  27.987  22.521  13.487 -0.1218  0.1533  0.0265
 3122DOPC   GL136625  27.964  22.203  13.756  0.5185  0.1046  0.1901
 3122DOPC   GL236626  27.966  22.161  14.038  0.1645 -0.0320  0.0693
 3122DOPC   C1A36627  27.893  21.760  13.703  0.0401  0.0103  0.0549
 3122DOPC   D2A36628  27.760  21.318  13.809  0.0835 -0.0618  0.0931
 3122DOPC   C3A36629  28.247  21.208  13.925  0.0262 -0.1270 -0.1667
 3122DOPC   C4A36630  28.498  20.974  14.187  0.0407 -0.0572  0.1336
 3122DOPC   C1B36631  27.863  22.040  14.436  0.0936 -0.0472 -0.2671
 3122DOPC   D2B36632  27.694  21.936  14.814  0.3038 -0.3037  0.0186
 3122DOPC   C3B36633  28.040  21.915  15.106 -0.2889 -0.1719 -0.1962
 3122DOPC   C4B36634  28.103  21.769  15.470 -0.2023  0.1105  0.2058
 3123DOPE   NH336635  29.913  13.039  13.762 -0.2104 -0.0113  0.0892
 3123DOPE   PO436636  30.150  12.791  13.650  0.3323  0.0533 -0.0486
 3123DOPE   GL136637  30.257  12.740  13.996  0.0591 -0.2983  0.4900
 3123DOPE   GL236638  29.954  12.559  14.051 -0.1852  0.2008 -0.1961
 3123DOPE   C1A36639  30.363  12.894  14.386  0.2930 -0.1259 -0.0525
 3123DOPE   D2A36640  30.299  12.633  14.800 -0.0772 -0.2141 -0.2924
 3123DOPE   C3A36641  29.890  12.498  14.607  0.0943 -0.3761  0.1623
 3123DOPE   C4A36642  29.746  12.162  14.353  0.1063 -0.0979  0.0509
 3123DOPE   C1B36643  29.861  12.891  14.303  0.2148  0.0324  0.0583
 3123DOPE   D2B36644  29.878  12.988  14.741  0.1654  0.0304  0.2758
 3123DOPE   C3B36645  29.813  12.694  15.072  0.0327  0.0846  0.1618
 3123DOPE   C4B36646  30.087  12.317  15.067  0.4486 -0.4136 -0.0566
 3124DOPC   NC336647  33.977  19.177  13.609 -0.3205 -0.0542  0.1373
 3124DOPC   PO436648  33.735  19.038  13.367  0.0400 -0.2851 -0.1110
 3124DOPC   GL136649  33.572  18.952  13.699  0.0083  0.1626  0.2447
 3124DOPC   GL236650  33.380  18.762  13.675 -0.1407  0.0012  0.2786
 3124DOPC   C1A36651  33.602  18.907  14.129  0.2432 -0.0696  0.0989
 3124DOPC   D2A36652  33.744  19.017  14.507 -0.2134  0.0718 -0.2605
 3124DOPC   C3A36653  34.226  19.020  14.630 -0.1141  0.0241 -0.2604
 3124DOPC   C4A36654  34.559  18.950  14.938 -0.0934  0.4345 -0.0969
 3124DOPC   C1B36655  33.144  19.019  13.934  0.0506 -0.2708  0.1783
 3124DOPC   D2B36656  32.786  18.865  14.202 -0.1295 -0.2316 -0.2836
 3124DOPC   C3B36657  32.699  19.029  14.618 -0.0116  0.2403  0.1244
 3124DOPC   C4B36658  32.480  19.266  14.964  0.0575  0.0797 -0.3215
 3125POSM   NC336659  25.569  15.321  13.312 -0.0544 -0.0366 -0.1681
 3125POSM   PO436660  25.911  15.453  13.133 -0.0821 -0.0048  0.0200
 3125POSM   AM136661  26.078  15.148  13.146  0.0301  0.0789  0.3610
 3125POSM   AM236662  26.299  15.014  13.252 -0.1584  0.1136  0.0862
 3125POSM   T1A36663  26.231  14.696  12.867 -0.0626  0.0354  0.1027
 3125POSM   C2A36664  26.432  14.712  12.465  0.0453  0.2659 -0.2973
 3125POSM   C3A36665  26.256  14.854  12.072 -0.3920 -0.1905  0.0855
 3125POSM   C1B36666  26.512  14.820  13.397  0.1204 -0.0691 -0.1590
 3125POSM   D2B36667  26.869  14.812  13.685  0.1504 -0.1139  0.0323
 3125POSM   C3B36668  26.799  14.885  14.145 -0.0493 -0.2581 -0.0811
 3125POSM   C4B36669  26.661  15.206  14.449 -0.1874  0.0433 -0.2903
 3126DOPS   CNO36670  25.864  12.040  12.719 -0.0391 -0.0970  0.1029
 3126DOPS   PO436671  25.694  11.749  12.902  0.3552  0.2186 -0.0492
 3126DOPS   GL136672  25.810  11.363  12.997 -0.2294  0.0948 -0.0082
 3126DOPS   GL236673  25.802  11.236  13.267  0.0896  0.4365  0.1380
 3126DOPS   C1A36674  25.830  10.932  12.790 -0.0979 -0.0285 -0.1825
 3126DOPS   D2A36675  25.910  10.483  12.709  0.0731  0.4045  0.0690
 3126DOPS   C3A36676  25.994  10.001  12.815  0.3127  0.1812 -0.2228
 3126DOPS   C4A36677  25.809   9.651  13.046 -0.3632 -0.1991  0.0062
 3126DOPS   C1B36678  26.008  10.765  13.267 -0.0031 -0.1029  0.0073
 3126DOPS   D2B36679  25.935  10.313  13.205  0.0839 -0.3114  0.0920
 3126DOPS   C3B36680  26.385  10.100  13.328 -0.1188  0.0073  0.0439
 3126DOPS   C4B36681  26.583   9.885  13.729 -0.0145 -0.0698 -0.1639
 3127DOPE   NH336682  25.580  17.529  13.122 -0.0479 -0.1553  0.0348
 3127DOPE   PO436683  25.675  17.645  12.845  0.1362 -0.6248 -0.0925
 3127DOPE   GL136684  25.357  17.559  12.586  0.0715  0.2926 -0.2871
 3127DOPE   GL236685  25.143  17.559  12.831 -0.2107 -0.0021  0.2697
 3127DOPE   C1A36686  25.160  17.219  12.385 -0.1961  0.0792 -0.2794
 3127DOPE   D2A36687  24.830  16.923  12.424  0.0063  0.0864  0.2735
 3127DOPE   C3A36688  24.725  16.582  12.788 -0.2300  0.2051  0.0556
 3127DOPE   C4A36689  24.431  16.329  13.017  0.0293  0.0161  0.0789
 3127DOPE   C1B36690  24.970  17.701  13.268 -0.3152 -0.1254 -0.0403
 3127DOPE   D2B36691  24.847  17.627  13.687 -0.2654  0.1824 -0.1333
 3127DOPE   C3B36692  24.389  17.686  13.726 -0.2683  0.2950 -0.0857
 3127DOPE   C4B36693  24.114  18.105  13.799  0.0694  0.0290  0.0912
 3128POSM   NC336694  22.688  13.629  12.072  0.1585  0.0269 -0.1758
 3128POSM   PO436695  22.582  13.535  12.436  0.1737  0.1107 -0.0441
 3128POSM   AM136696  22.853  13.537  12.634 -0.0941  0.0190 -0.1563
 3128POSM   AM236697  23.087  13.521  12.570  0.0729 -0.0560  0.0196
 3128POSM   T1A36698  23.031  13.482  13.128 -0.1102  0.2315  0.0119
 3128POSM   C2A36699  23.435  13.374  13.371 -0.0358 -0.1827 -0.1813
 3128POSM   C3A36700  23.864  13.435  13.628 -0.3862 -0.1201 -0.3098
 3128POSM   C1B36701  23.342  13.618  12.799 -0.0910  0.1780  0.2687
 3128POSM   D2B36702  23.669  13.706  13.109  0.0312  0.0572 -0.1426
 3128POSM   C3B36703  23.600  13.897  13.477  0.0947  0.2408  0.2139
 3128POSM   C4B36704  23.249  14.089  13.677 -0.0043 -0.1151 -0.2274
 3129DOPC   NC336705  29.487  17.795  12.922 -0.2714  0.0778  0.0906
 3129DOPC   PO436706  29.461  17.593  13.237  0.0363 -0.2065 -0.0803
 3129DOPC   GL136707  29.350  17.131  13.390 -0.1491 -0.2263 -0.2476
 3129DOPC   GL236708  29.379  17.181  13.621  0.1198 -0.1497  0.0962
 3129DOPC   C1A36709  28.978  16.866  13.525 -0.1221  0.0374 -0.1223
 3129DOPC   D2A36710  28.777  16.563  13.877  0.1616  0.1515  0.4511
 3129DOPC   C3A36711  28.827  16.691  14.294 -0.0695  0.0690  0.2563
 3129DOPC   C4A36712  28.866  17.038  14.632 -0.2357 -0.2010 -0.1335
 3129DOPC   C1B36713  29.063  17.131  13.921  0.1575  0.0534 -0.1801
 3129DOPC   D2B36714  29.031  17.373  14.296  0.1275 -0.0982  0.0113
 3129DOPC   C3B36715  28.737  17.657  14.563  0.0428 -0.0733  0.2507
 3129DOPC   C4B36716  28.483  18.021  14.678 -0.0777 -0.0766 -0.0949
 3130DOPS   CNO36717  26.310  12.122  13.144  0.1435  0.2915  0.1119
 3130DOPS   PO436718  26.186  12.301  13.428  0.2045  0.4540  0.1211
 3130DOPS   GL136719  26.379  12.387  13.736  0.0592 -0.0155  0.2899
 3130DOPS   GL236720  26.506  12.239  13.997 -0.0351 -0.2291  0.2622
 3130DOPS   C1A36721  26.423  12.818  13.883 -0.2468 -0.0755 -0.0893
 3130DOPS   D2A36722  26.383  12.706  14.360 -0.0260  0.1764 -0.1727
 3130DOPS   C3A36723  26.217  12.277  14.482 -0.2338  0.1271  0.0552
 3130DOPS   C4A36724  26.148  11.922  14.213 -0.1971 -0.2368  0.1174
 3130DOPS   C1B36725  26.662  11.910  14.284  0.1800 -0.0400 -0.0580
 3130DOPS   D2B36726  26.733  11.702  14.703 -0.0292  0.3235 -0.0578
 3130DOPS   C3B36727  26.894  11.299  14.710  0.1944  0.0874 -0.0941
 3130DOPS   C4B36728  27.300  11.106  14.844 -0.2534 -0.1320  0.0596
 3131DOPC   NC336729  25.483  15.847  13.115  0.0478  0.1344 -0.1896
 3131DOPC   PO436730  25.174  16.091  12.959 -0.3291 -0.0582 -0.0083
 3131DOPC   GL136731  24.879  15.929  13.190 -0.0067 -0.2005  0.3726
 3131DOPC   GL236732  25.014  15.809  13.390 -0.0359 -0.0360 -0.0547
 3131DOPC   C1A36733  24.715  16.190  13.506  0.0182 -0.0812  0.1900
 3131DOPC   D2A36734  24.388  16.480  13.492  0.1400  0.1045  0.0795
 3131DOPC   C3A36735  24.343  16.719  13.876  0.0603  0.0239  0.1011
 3131DOPC   C4A36736  24.235  16.876  14.314 -0.1885 -0.0934  0.0048
 3131DOPC   C1B36737  25.154  15.426  13.662  0.2119 -0.0878  0.0569
 3131DOPC   D2B36738  25.342  15.038  13.771 -0.3421 -0.0606 -0.1175
 3131DOPC   C3B36739  25.623  15.083  14.150 -0.3110  0.3134  0.1123
 3131DOPC   C4B36740  25.637  15.302  14.550  0.4075 -0.2439 -0.0446
 3132DOPC   NC336741  27.998  15.366  13.614 -0.2837 -0.3192  0.1260
 3132DOPC   PO436742  27.732  15.193  13.459  0.1634 -0.2060  0.0957
 3132DOPC   GL136743  27.450  15.386  13.696  0.0025 -0.3417 -0.0300
 3132DOPC   GL236744  27.262  15.204  13.571  0.3518 -0.3401  0.1782
 3132DOPC   C1A36745  27.685  15.660  13.969  0.0090 -0.1396 -0.0261
 3132DOPC   D2A36746  28.040  15.814  14.298  0.0636 -0.0665 -0.0718
 3132DOPC   C3A36747  28.274  16.139  14.534  0.0485  0.0377  0.2288
 3132DOPC   C4A36748  28.241  16.444  14.880  0.1632  0.1334 -0.0832
 3132DOPC   C1B36749  26.921  15.197  13.326  0.0126  0.0446 -0.2986
 3132DOPC   D2B36750  26.724  15.125  12.944 -0.0249 -0.0293 -0.1865
 3132DOPC   C3B36751  26.773  14.666  12.882 -0.0910 -0.0377 -0.2020
 3132DOPC   C4B36752  26.790  14.146  12.933 -0.0276 -0.0172  0.0467
 3133DOPE   NH336753  29.207  14.191  13.245  0.2321  0.1740 -0.1228
 3133DOPE   PO436754  29.417  13.981  13.140  0.3265  0.0661  0.1025
 3133DOPE   GL136755  29.309  13.885  13.595 -0.4395 -0.1834  0.1122
 3133DOPE   GL236756  29.562  13.958  13.707  0.2799  0.2824 -0.1404
 3133DOPE   C1A36757  29.022  13.982  13.952 -0.4304 -0.1126  0.0719
 3133DOPE   D2A36758  28.858  14.234  14.345 -0.2455  0.0243  0.2889
 3133DOPE   C3A36759  29.053  14.032  14.758 -0.0196  0.2935  0.1476
 3133DOPE   C4A36760  29.479  13.995  14.942 -0.0579 -0.1195 -0.0531
 3133DOPE   C1B36761  29.420  13.743  14.112  0.2143 -0.1710  0.2160
 3133DOPE   D2B36762  29.193  13.576  14.449 -0.1586  0.2531  0.2791
 3133DOPE   C3B36763  29.229  13.534  14.928  0.2140 -0.1624 -0.0752
 3133DOPE   C4B36764  28.989  13.296  15.265 -0.1442  0.1258  0.3750
 3134DOPC   NC336765  24.978  15.015  12.492 -0.1251 -0.3264 -0.0412
 3134DOPC   PO436766  24.640  15.137  12.590 -0.0145 -0.1477  0.0638
 3134DOPC   GL136767  24.552  14.823  12.809  0.0597 -0.2080  0.1398
 3134DOPC   GL236768  24.274  14.805  12.779  0.1862  0.0359  0.1128
 3134DOPC   C1A36769  24.782  14.491  13.057  0.0485 -0.2986  0.0161
 3134DOPC   D2A36770  24.984  14.393  13.360 -0.0742 -0.0726 -0.0474
 3134DOPC   C3A36771  24.914  14.557  13.742  0.3522  0.0675  0.0636
 3134DOPC   C4A36772  24.936  14.486  14.195 -0.1774  0.1305 -0.2483
 3134DOPC   C1B36773  24.324  14.604  13.188 -0.1479  0.0682  0.0416
 3134DOPC   D2B36774  24.479  14.403  13.562  0.1024 -0.1236  0.1002
 3134DOPC   C3B36775  24.295  14.254  13.916 -0.1131  0.1735  0.2114
 3134DOPC   C4B36776  24.437  14.306  14.390 -0.0900  0.0559 -0.0042
 3135DOPC   NC336777  31.772  23.790  13.614 -0.0834 -0.3121  0.0751
 3135DOPC   PO436778  31.599  23.558  13.862 -0.3075 -0.0496 -0.1860
 3135DOPC   GL136779  31.681  23.531  14.221  0.1427  0.3292  0.1081
 3135DOPC   GL236780  31.807  23.311  14.214  0.1563  0.1091 -0.1081
 3135DOPC   C1A36781  31.232  23.576  14.455 -0.3031 -0.0305  0.2929
 3135DOPC   D2A36782  31.045  23.478  14.833 -0.2043 -0.1933 -0.0780
 3135DOPC   C3A36783  30.627  23.278  14.884  0.0370 -0.1327  0.1860
 3135DOPC   C4A36784  30.342  22.955  15.034 -0.2907 -0.1002  0.1401
 3135DOPC   C1B36785  31.911  22.885  14.310 -0.0403 -0.1877  0.0221
 3135DOPC   D2B36786  31.752  22.528  14.594 -0.1800 -0.0565 -0.2696
 3135DOPC   C3B36787  31.410  22.291  14.590 -0.2194  0.0849 -0.1358
 3135DOPC   C4B36788  31.090  21.975  14.566  0.0985 -0.4072  0.1826
 3136POSM   NC336789  28.405  22.058  13.686 -0.1680  0.2118  0.2216
 3136POSM   PO436790  28.781  22.136  13.540  0.0222  0.1554  0.0369
 3136POSM   AM136791  28.794  22.179  13.861  0.1617 -0.0843  0.1303
 3136POSM   AM236792  28.941  22.185  14.087  0.2498  0.0883  0.0130
 3136POSM   T1A36793  28.546  22.084  14.293  0.0213 -0.1683 -0.2333
 3136POSM   C2A36794  28.477  21.894  14.742 -0.0105  0.1794 -0.0549
 3136POSM   C3A36795  28.468  21.587  15.112  0.2022  0.2108  0.1313
 3136POSM   C1B36796  28.898  22.467  14.305 -0.1427  0.2420  0.1107
 3136POSM   D2B36797  29.076  22.675  14.661 -0.4800  0.3986 -0.2417
 3136POSM   C3B36798  28.741  22.781  14.960  0.3452  0.0924 -0.2501
 3136POSM   C4B36799  28.752  22.588  15.399 -0.2853 -0.2251 -0.2235
 3137DOPE   NH336800  28.452  15.384  12.665 -0.0694  0.1861  0.0878
 3137DOPE   PO436801  28.119  15.403  12.645  0.1515  0.2344 -0.3326
 3137DOPE   GL136802  28.119  15.721  12.970 -0.0718 -0.1779  0.2600
 3137DOPE   GL236803  27.990  15.660  13.224  0.0048  0.1204 -0.0514
 3137DOPE   C1A36804  28.098  16.177  13.168 -0.0386  0.2851  0.1285
 3137DOPE   D2A36805  28.045  16.337  13.586  0.2982  0.0328 -0.3347
 3137DOPE   C3A36806  28.302  16.644  13.704 -0.0075 -0.1234  0.0203
 3137DOPE   C4A36807  28.488  16.958  14.012 -0.1939 -0.3122 -0.0273
 3137DOPE   C1B36808  28.037  15.840  13.677 -0.2190  0.1171  0.0754
 3137DOPE   D2B36809  28.324  16.080  13.901  0.1036 -0.0352  0.1827
 3137DOPE   C3B36810  28.313  16.474  14.183 -0.0606 -0.1740  0.0580
 3137DOPE   C4B36811  28.282  16.777  14.503  0.6027 -0.2267 -0.1159
 3138DOPS   CNO36812  27.822  14.817  12.298 -0.1766 -0.1168 -0.2840
 3138DOPS   PO436813  27.911  14.936  12.622 -0.0741 -0.0015 -0.1014
 3138DOPS   GL136814  27.604  15.175  12.746  0.1931  0.2299  0.1102
 3138DOPS   GL236815  27.617  15.464  12.864 -0.3712 -0.1157 -0.1319
 3138DOPS   C1A36816  27.145  15.306  12.858  0.1160 -0.0999 -0.0736
 3138DOPS   D2A36817  26.825  15.577  13.007 -0.1441 -0.1147  0.0669
 3138DOPS   C3A36818  26.964  16.030  12.915 -0.1050 -0.0401 -0.0862
 3138DOPS   C4A36819  26.639  16.321  12.820  0.0890  0.0482 -0.1259
 3138DOPS   C1B36820  27.289  15.616  13.218 -0.2805  0.1745 -0.0848
 3138DOPS   D2B36821  27.032  15.861  13.388 -0.0091  0.1140  0.0212
 3138DOPS   C3B36822  26.641  15.776  13.666  0.0402  0.3238  0.3275
 3138DOPS   C4B36823  26.446  15.569  14.055  0.1143 -0.0436  0.2637
 3139DOPC   NC336824  28.465  22.677  13.536 -0.0336  0.1485  0.3139
 3139DOPC   PO436825  28.375  22.552  13.893  0.2149  0.1373 -0.0129
 3139DOPC   GL136826  28.238  22.469  14.357 -0.0540  0.0380 -0.2837
 3139DOPC   GL236827  27.958  22.591  14.305 -0.3758 -0.0071  0.2178
 3139DOPC   C1A36828  28.121  22.776  14.727  0.2072  0.2480  0.0516
 3139DOPC   D2A36829  28.324  22.764  15.199  0.1649  0.1296 -0.2794
 3139DOPC   C3A36830  28.603  23.032  15.426 -0.0761 -0.2985 -0.1201
 3139DOPC   C4A36831  28.927  23.291  15.154  0.0617 -0.0139 -0.5583
 3139DOPC   C1B36832  27.605  22.512  14.612  0.0679 -0.5131 -0.1098
 3139DOPC   D2B36833  27.173  22.667  14.616 -0.2913  0.0700 -0.6240
 3139DOPC   C3B36834  27.046  22.640  15.074 -0.2223  0.3216 -0.1311
 3139DOPC   C4B36835  26.941  22.270  15.307 -0.0356 -0.0895  0.0588
 3140DOPE   NH336836  23.420  14.915  13.107  0.1242 -0.2937  0.2437
 3140DOPE   PO436837  23.313  15.197  13.031 -0.0215 -0.0795 -0.0074
 3140DOPE   GL136838  23.176  15.303  13.318 -0.1724  0.4521 -0.2423
 3140DOPE   GL236839  22.895  15.224  13.373 -0.1029  0.0523 -0.2089
 3140DOPE   C1A36840  23.100  15.701  13.526  0.0574  0.4404  0.1139
 3140DOPE   D2A36841  22.910  16.061  13.431 -0.1798  0.0084 -0.0156
 3140DOPE   C3A36842  22.479  16.143  13.472  0.0384  0.0609 -0.3582
 3140DOPE   C4A36843  22.190  15.879  13.698  0.0093 -0.0989 -0.2332
 3140DOPE   C1B36844  22.994  14.934  13.663 -0.0578  0.0530  0.2571
 3140DOPE   D2B36845  23.134  14.533  13.896  0.0147  0.0619 -0.0983
 3140DOPE   C3B36846  23.441  14.266  14.136  0.4252  0.1210  0.1192
 3140DOPE   C4B36847  23.935  14.399  14.164  0.2137 -0.4106  0.1454
 3141DOPE   NH336848  29.502  18.529  13.481  0.1217  0.3306 -0.1324
 3141DOPE   PO436849  29.495  18.500  13.153 -0.0162 -0.0021  0.0834
 3141DOPE   GL136850  29.240  18.160  13.308 -0.0345 -0.1044 -0.1837
 3141DOPE   GL236851  29.302  18.042  13.601  0.1574 -0.0745  0.0388
 3141DOPE   C1A36852  28.825  17.958  13.401 -0.1263 -0.3640 -0.1221
 3141DOPE   D2A36853  28.757  17.564  13.623 -0.0976 -0.1899 -0.4007
 3141DOPE   C3A36854  28.317  17.491  13.804 -0.1835  0.1002  0.5542
 3141DOPE   C4A36855  28.215  17.409  14.237 -0.3377  0.0647 -0.2630
 3141DOPE   C1B36856  29.112  17.772  13.963  0.2121  0.2350  0.1861
 3141DOPE   D2B36857  28.650  17.760  14.059 -0.0933  0.2683 -0.2131
 3141DOPE   C3B36858  28.231  17.878  14.268 -0.2312 -0.1232  0.2746
 3141DOPE   C4B36859  28.050  17.838  14.708 -0.0090  0.0577  0.1737
 3142POSM   NC336860  32.555  18.776  13.183  0.0785 -0.1448  0.0215
 3142POSM   PO436861  32.266  19.070  13.131 -0.0324 -0.3044  0.1096
 3142POSM   AM136862  32.232  19.246  13.443  0.1318 -0.1312 -0.1462
 3142POSM   AM236863  32.015  19.329  13.595 -0.3540 -0.1334  0.1451
 3142POSM   T1A36864  32.471  19.202  13.868  0.1017 -0.0918 -0.0692
 3142POSM   C2A36865  32.313  19.097  14.272  0.0248  0.1737  0.1056
 3142POSM   C3A36866  32.108  19.046  14.678  0.1500 -0.1296 -0.2510
 3142POSM   C1B36867  32.138  19.584  13.767  0.0577  0.0227  0.2000
 3142POSM   D2B36868  32.511  19.843  13.938 -0.1020  0.1238 -0.0507
 3142POSM   C3B36869  32.245  20.181  14.037 -0.1692 -0.2620  0.1067
 3142POSM   C4B36870  32.105  20.438  14.360 -0.1599  0.0227 -0.0040
 3143POSM   NC336871  33.252  23.048  13.285  0.5293 -0.0144  0.0024
 3143POSM   PO436872  33.208  22.865  13.646  0.1944 -0.0350 -0.2168
 3143POSM   AM136873  33.091  22.761  13.936  0.0614  0.2786 -0.0174
 3143POSM   AM236874  33.149  22.707  14.177  0.0606  0.0407  0.1018
 3143POSM   T1A36875  32.770  22.445  14.239 -0.0420 -0.0964  0.0627
 3143POSM   C2A36876  32.493  22.081  14.155 -0.0125  0.0577 -0.1217
 3143POSM   C3A36877  32.347  21.684  14.311 -0.1447 -0.0489 -0.1362
 3143POSM   C1B36878  33.180  22.533  14.500 -0.0711  0.1739  0.4866
 3143POSM   D2B36879  33.475  22.224  14.751 -0.1473 -0.0540  0.3028
 3143POSM   C3B36880  33.354  21.790  14.859  0.0721  0.0460 -0.3617
 3143POSM   C4B36881  33.261  21.354  14.638 -0.1149 -0.1396  0.0132
 3144DOPC   NC336882  23.573  15.613  12.914 -0.1367 -0.1271  0.1771
 3144DOPC   PO436883  23.730  15.696  12.533 -0.0812 -0.2132 -0.1119
 3144DOPC   GL136884  24.040  15.534  12.791 -0.1157  0.3310 -0.0191
 3144DOPC   GL236885  24.329  15.445  12.849  0.0128 -0.2773  0.0216
 3144DOPC   C1A36886  24.063  15.565  13.273  0.1151  0.0581  0.0585
 3144DOPC   D2A36887  24.319  15.802  13.543 -0.0627  0.1981  0.2914
 3144DOPC   C3A36888  24.016  15.972  13.805  0.1049  0.0254  0.1016
 3144DOPC   C4A36889  23.614  15.980  13.979  0.1122  0.1149  0.0887
 3144DOPC   C1B36890  24.412  15.845  13.021  0.0773  0.0835  0.1769
 3144DOPC   D2B36891  24.051  15.991  12.888  0.0763 -0.1045 -0.1615
 3144DOPC   C3B36892  23.740  16.027  13.193 -0.2481 -0.1910 -0.1477
 3144DOPC   C4B36893  23.461  16.112  13.514  0.1882  0.3799  0.3874
 3145DOPC   NC336894  27.206  22.701  13.358 -0.1268  0.1132 -0.1203
 3145DOPC   PO436895  27.585  22.824  13.258  0.1423 -0.1263  0.0300
 3145DOPC   GL136896  27.526  22.465  13.569  0.1539  0.1353 -0.1394
 3145DOPC   GL236897  27.592  22.445  13.895  0.0479  0.0414 -0.2050
 3145DOPC   C1A36898  27.463  22.007  13.562  0.2076 -0.1103 -0.0428
 3145DOPC   D2A36899  27.392  21.754  13.956  0.0196 -0.1383  0.0150
 3145DOPC   C3A36900  27.692  21.653  14.244  0.0467 -0.0225  0.2213
 3145DOPC   C4A36901  27.551  21.490  14.678  0.0591  0.1319 -0.1501
 3145DOPC   C1B36902  27.430  22.155  14.257  0.0375 -0.2970  0.2744
 3145DOPC   D2B36903  27.212  22.150  14.662 -0.0545  0.2946  0.0311
 3145DOPC   C3B36904  27.206  21.859  14.976 -0.0855  0.0065 -0.0217
 3145DOPC   C4B36905  27.133  21.427  15.024 -0.1075  0.3681  0.2648
 3146DOPC   NC336906  30.020  19.333  13.178 -0.0583 -0.0351  0.0240
 3146DOPC   PO436907  29.816  19.616  13.351 -0.0690  0.1025  0.2616
 3146DOPC   GL136908  29.855  19.452  13.714  0.0987  0.0375  0.1836
 3146DOPC   GL236909  29.951  19.628  13.883 -0.1404 -0.0572  0.0048
 3146DOPC   C1A36910  29.526  19.471  14.073  0.0507 -0.2004  0.1921
 3146DOPC   D2A36911  29.288  19.077  14.181  0.0424 -0.0497  0.2514
 3146DOPC   C3A36912  29.335  18.670  14.414  0.2240 -0.1341  0.1991
 3146DOPC   C4A36913  29.059  18.479  14.741 -0.1707 -0.1536  0.0523
 3146DOPC   C1B36914  29.947  19.425  14.331 -0.0090  0.0277 -0.0877
 3146DOPC   D2B36915  29.762  19.024  14.486  0.0080 -0.0099  0.0116
 3146DOPC   C3B36916  29.717  19.024  14.916 -0.2230  0.2464 -0.2118
 3146DOPC   C4B36917  29.755  19.193  15.362  0.1092 -0.3145 -0.1056
 3147POSM   NC336918  26.422  15.877  13.004  0.1446 -0.1304 -0.2223
 3147POSM   PO436919  26.096  15.763  12.808 -0.1677 -0.1117 -0.1835
 3147POSM   AM136920  26.136  15.522  12.631  0.0319  0.0423  0.0381
 3147POSM   AM236921  26.076  15.231  12.694  0.0106 -0.0583 -0.0447
 3147POSM   T1A36922  26.528  15.252  12.430 -0.0823  0.0602  0.2807
 3147POSM   C2A36923  26.930  15.419  12.216  0.0975  0.0412 -0.1316
 3147POSM   C3A36924  27.372  15.332  12.368 -0.1772  0.0654 -0.1571
 3147POSM   C1B36925  25.985  14.969  12.465 -0.0481 -0.3650  0.5020
 3147POSM   D2B36926  25.815  14.515  12.372 -0.2578 -0.0508  0.0700
 3147POSM   C3B36927  25.710  14.205  12.701 -0.0509 -0.0994 -0.0102
 3147POSM   C4B36928  25.322  14.153  12.978  0.2519 -0.2686 -0.1078
 3148DOPC   NC336929  25.229  22.674  13.003  0.1626 -0.3173  0.1067
 3148DOPC   PO436930  25.241  22.360  13.232 -0.1683 -0.0364 -0.1314
 3148DOPC   GL136931  25.222  22.228  13.630 -0.1356  0.0382 -0.0003
 3148DOPC   GL236932  25.489  22.049  13.599 -0.0220  0.1720  0.1758
 3148DOPC   C1A36933  25.067  21.819  13.882 -0.0736  0.0447  0.0191
 3148DOPC   D2A36934  25.072  21.412  14.129 -0.2141 -0.0263  0.2431
 3148DOPC   C3A36935  25.307  21.344  14.515  0.0557 -0.1049  0.1822
 3148DOPC   C4A36936  25.449  21.067  14.871  0.0788  0.0670 -0.0000
 3148DOPC   C1B36937  25.437  22.097  14.036  0.1128 -0.1466  0.1325
 3148DOPC   D2B36938  25.385  22.344  14.398 -0.0758 -0.1927 -0.3636
 3148DOPC   C3B36939  25.064  22.308  14.755 -0.0562 -0.1596 -0.2131
 3148DOPC   C4B36940  24.695  22.080  14.941  0.0187  0.1009  0.2445
 3149POSM   NC336941  32.258  16.372  13.067 -0.0041 -0.0546 -0.1705
 3149POSM   PO436942  32.644  16.551  13.063 -0.1637 -0.0677  0.2548
 3149POSM   AM136943  32.791  16.441  13.363 -0.0943  0.0655  0.0151
 3149POSM   AM236944  32.624  16.355  13.573 -0.0296 -0.1415 -0.2111
 3149POSM   T1A36945  33.131  16.268  13.649 -0.2496 -0.0008  0.2197
 3149POSM   C2A36946  33.474  16.353  13.946 -0.1700 -0.1106  0.1946
 3149POSM   C3A36947  33.970  16.406  13.873  0.0315  0.0362  0.0589
 3149POSM   C1B36948  32.669  16.376  13.907  0.0047 -0.1895 -0.0383
 3149POSM   D2B36949  32.752  16.370  14.355  0.0289  0.1891  0.1361
 3149POSM   C3B36950  32.659  15.919  14.521 -0.5477  0.1473 -0.0645
 3149POSM   C4B36951  32.452  15.600  14.704 -0.0830 -0.2637  0.0568
 3150DOPS   CNO36952  30.422  12.736  13.143 -0.0797  0.0687  0.4234
 3150DOPS   PO436953  30.583  12.665  13.481 -0.1238 -0.0080  0.1244
 3150DOPS   GL136954  30.849  12.957  13.373 -0.0410  0.2477 -0.0980
 3150DOPS   GL236955  31.070  12.771  13.625  0.0561  0.1944  0.1824
 3150DOPS   C1A36956  31.235  13.218  13.428 -0.0490  0.1333  0.0718
 3150DOPS   D2A36957  31.534  13.361  13.712 -0.0698  0.1759  0.2574
 3150DOPS   C3A36958  31.625  13.266  14.202  0.0032  0.0601  0.2345
 3150DOPS   C4A36959  31.795  13.136  14.605 -0.1766  0.0594 -0.3389
 3150DOPS   C1B36960  31.205  12.991  13.968 -0.0834  0.0184  0.2323
 3150DOPS   D2B36961  31.153  13.439  14.067  0.2405  0.2528 -0.0411
 3150DOPS   C3B36962  31.379  13.823  14.220  0.1440  0.0363 -0.0808
 3150DOPS   C4B36963  31.499  14.167  14.526 -0.2397 -0.2000  0.3710
 3151DOPC   NC336964  26.577  17.653  12.884  0.3792 -0.0791 -0.1446
 3151DOPC   PO436965  26.850  17.626  13.182 -0.0476 -0.2873  0.2902
 3151DOPC   GL136966  27.082  17.278  13.322  0.2184 -0.0567 -0.1550
 3151DOPC   GL236967  27.029  17.042  13.134 -0.0138  0.1536 -0.2945
 3151DOPC   C1A36968  27.538  17.218  13.315  0.2027 -0.3027 -0.0809
 3151DOPC   D2A36969  27.791  16.866  13.517  0.3032  0.0496 -0.0331
 3151DOPC   C3A36970  27.835  16.624  13.952  0.0757 -0.0101  0.1660
 3151DOPC   C4A36971  27.865  16.138  14.043  0.1400  0.0373  0.1334
 3151DOPC   C1B36972  27.407  16.809  13.001 -0.3739  0.0915 -0.0310
 3151DOPC   D2B36973  27.844  16.906  12.985 -0.3562  0.2083  0.0109
 3151DOPC   C3B36974  27.818  17.387  12.920  0.1229  0.0222  0.0638
 3151DOPC   C4B36975  27.612  17.775  13.081 -0.1414  0.0534  0.0208
 3152DOPS   CNO36976  24.528  22.267  12.890 -0.1030  0.1300 -0.0474
 3152DOPS   PO436977  24.362  22.090  13.222 -0.0475  0.1351 -0.1990
 3152DOPS   GL136978  24.311  22.064  13.642  0.2514  0.3001 -0.0575
 3152DOPS   GL236979  24.511  21.877  13.648 -0.2452  0.1327 -0.1131
 3152DOPS   C1A36980  24.054  21.673  13.733  0.3709  0.1160 -0.0226
 3152DOPS   D2A36981  23.590  21.562  13.815  0.1503 -0.0463 -0.0609
 3152DOPS   C3A36982  23.165  21.507  13.805  0.1240 -0.4056  0.0741
 3152DOPS   C4A36983  22.796  21.696  13.841  0.1250 -0.1830  0.2669
 3152DOPS   C1B36984  24.533  21.670  14.001  0.5547  0.4050 -0.1651
 3152DOPS   D2B36985  24.139  21.480  14.251 -0.3345 -0.0515 -0.1443
 3152DOPS   C3B36986  23.925  21.099  13.943  0.1381  0.2729 -0.2158
 3152DOPS   C4B36987  23.803  20.700  13.683  0.0141  0.1715  0.1639
 3153DOPE   NH336988  27.019  20.435  13.879  0.3239  0.1648  0.3581
 3153DOPE   PO436989  27.072  20.364  13.576  0.3465  0.0302 -0.1096
 3153DOPE   GL136990  27.345  20.618  13.635 -0.0573  0.1203  0.1394
 3153DOPE   GL236991  27.510  20.374  13.759 -0.2744  0.2551 -0.0367
 3153DOPE   C1A36992  27.381  21.043  13.489 -0.4277  0.0689 -0.0886
 3153DOPE   D2A36993  27.341  21.457  13.345 -0.1084  0.0196 -0.2001
 3153DOPE   C3A36994  27.006  21.846  13.395  0.1806  0.2152  0.1669
 3153DOPE   C4A36995  26.701  22.185  13.312 -0.0975  0.0227 -0.1098
 3153DOPE   C1B36996  27.884  20.231  13.675 -0.1092 -0.1022  0.2123
 3153DOPE   D2B36997  28.400  20.259  13.608 -0.0941 -0.3190 -0.1097
 3153DOPE   C3B36998  28.641  19.978  13.879  0.5249  0.3775 -0.2250
 3153DOPE   C4B36999  28.922  19.601  13.795 -0.4841  0.3024  0.1911
 3154DOPE   NH337000  33.536  13.883  13.786 -0.0355  0.0934  0.1000
 3154DOPE   PO437001  33.365  13.688  13.990 -0.1027  0.0007  0.1339
 3154DOPE   GL137002  33.580  13.774  14.299  0.0182 -0.3091  0.1671
 3154DOPE   GL237003  33.502  14.020  14.343 -0.3077 -0.0278  0.0279
 3154DOPE   C1A37004  33.809  13.558  14.664 -0.0198  0.1479 -0.2613
 3154DOPE   D2A37005  33.916  13.845  15.070 -0.0646  0.2260 -0.2231
 3154DOPE   C3A37006  33.808  14.315  15.127  0.1719  0.0781  0.0702
 3154DOPE   C4A37007  33.852  14.665  15.486  0.2409 -0.0713  0.2397
 3154DOPE   C1B37008  33.548  13.937  14.790  0.0762 -0.0823  0.1728
 3154DOPE   D2B37009  33.383  13.650  15.076  0.0601 -0.1216 -0.1907
 3154DOPE   C3B37010  33.629  13.340  15.138  0.1517 -0.3014 -0.1750
 3154DOPE   C4B37011  33.907  12.981  15.120  0.3628 -0.2696 -0.0964
 3155DOPE   NH337012  30.027  14.735  13.596  0.1174 -0.1582 -0.1519
 3155DOPE   PO437013  30.000  14.891  13.328 -0.1709 -0.1966 -0.1465
 3155DOPE   GL137014  30.012  15.269  13.483 -0.1541  0.0074 -0.1234
 3155DOPE   GL237015  30.123  15.330  13.813 -0.2015 -0.3267  0.3787
 3155DOPE   C1A37016  29.792  15.666  13.561 -0.1176  0.1909  0.0508
 3155DOPE   D2A37017  29.576  16.075  13.478  0.0600  0.0658  0.1254
 3155DOPE   C3A37018  29.722  16.343  13.774 -0.0487 -0.1424  0.0046
 3155DOPE   C4A37019  29.841  16.571  14.128  0.3099 -0.0179 -0.2233
 3155DOPE   C1B37020  30.029  15.103  14.152  0.1242  0.4101 -0.0474
 3155DOPE   D2B37021  30.156  14.750  14.432 -0.0108 -0.3427  0.1583
 3155DOPE   C3B37022  30.588  14.635  14.506 -0.4600 -0.0820 -0.4398
 3155DOPE   C4B37023  30.879  14.271  14.631 -0.1710 -0.1957  0.0031
 3156DOPC   NC337024  27.449  12.665  13.339  0.0395 -0.0676 -0.0169
 3156DOPC   PO437025  27.347  12.283  13.146 -0.0671  0.1976 -0.0994
 3156DOPC   GL137026  27.773  12.347  13.255  0.1732  0.3631  0.4596
 3156DOPC   GL237027  27.852  12.437  13.535 -0.0009  0.0089 -0.0517
 3156DOPC   C1A37028  28.182  12.575  13.214 -0.2505 -0.0516 -0.1187
 3156DOPC   D2A37029  28.303  12.813  13.601 -0.0344 -0.1096 -0.1013
 3156DOPC   C3A37030  28.772  12.726  13.716 -0.0924 -0.3172 -0.0389
 3156DOPC   C4A37031  29.177  12.912  13.853 -0.1815 -0.0864  0.2066
 3156DOPC   C1B37032  27.696  12.779  13.788  0.0569 -0.1820  0.0361
 3156DOPC   D2B37033  27.380  13.085  13.827 -0.0243  0.3222  0.1083
 3156DOPC   C3B37034  27.371  13.439  14.081 -0.0295 -0.1253 -0.2684
 3156DOPC   C4B37035  27.399  13.880  14.178  0.1828  0.0376  0.2352
 3157DOPS   CNO37036  34.444  18.803  13.009  0.1056 -0.1474 -0.0190
 3157DOPS   PO437037  34.249  19.079  13.203 -0.3067  0.0788  0.2565
 3157DOPS   GL137038  34.308  18.874  13.563 -0.1129 -0.3816 -0.0174
 3157DOPS   GL237039  34.244  18.567  13.470  0.0524 -0.1289  0.0576
 3157DOPS   C1A37040  34.441  18.617  13.968 -0.0277 -0.0346 -0.2671
 3157DOPS   D2A37041  34.325  18.273  14.260 -0.2198  0.0536 -0.1150
 3157DOPS   C3A37042  34.038  18.509  14.523  0.1574  0.0145 -0.0787
 3157DOPS   C4A37043  33.572  18.512  14.545 -0.1855 -0.3153 -0.0441
 3157DOPS   C1B37044  34.129  18.244  13.766 -0.0448  0.2382 -0.0459
 3157DOPS   D2B37045  34.044  17.869  13.996 -0.0549  0.2506 -0.0378
 3157DOPS   C3B37046  34.222  17.663  14.377 -0.0755  0.0417  0.0736
 3157DOPS   C4B37047  34.096  17.631  14.807 -0.1784 -0.0100  0.1798
 3158DOPS   CNO37048  32.100  23.153  13.274 -0.2423  0.1979  0.1243
 3158DOPS   PO437049  32.208  22.838  13.438 -0.0577  0.1438 -0.0356
 3158DOPS   GL137050  31.930  22.706  13.782  0.1046  0.2593 -0.0740
 3158DOPS   GL237051  31.671  22.673  13.569  0.0145  0.1955  0.2226
 3158DOPS   C1A37052  31.548  22.568  14.004 -0.3374 -0.1280 -0.0684
 3158DOPS   D2A37053  31.099  22.413  14.127  0.1285 -0.1370 -0.3497
 3158DOPS   C3A37054  30.966  22.534  14.588  0.1540 -0.2000 -0.2253
 3158DOPS   C4A37055  31.096  22.334  14.992  0.0326  0.3189 -0.1164
 3158DOPS   C1B37056  31.367  22.300  13.614 -0.2391 -0.2504  0.0966
 3158DOPS   D2B37057  30.966  22.061  13.565  0.2541 -0.0591 -0.0719
 3158DOPS   C3B37058  30.541  22.067  13.742  0.1001 -0.1977 -0.0686
 3158DOPS   C4B37059  30.239  21.745  13.799 -0.1767  0.4948  0.1528
 3159DOPC   NC337060  30.111  21.124  13.117 -0.0985  0.0210 -0.0900
 3159DOPC   PO437061  29.771  21.148  13.349 -0.0505  0.2756 -0.0477
 3159DOPC   GL137062  29.951  21.298  13.574  0.0512 -0.3816 -0.2325
 3159DOPC   GL237063  29.806  21.314  13.880 -0.0588 -0.2161 -0.1429
 3159DOPC   C1A37064  30.388  21.432  13.443  0.0530 -0.1819  0.0260
 3159DOPC   D2A37065  30.771  21.434  13.730  0.0146 -0.2200 -0.1869
 3159DOPC   C3A37066  31.013  21.502  14.112 -0.0760 -0.2247 -0.1428
 3159DOPC   C4A37067  31.347  21.575  14.411  0.1818 -0.1585  0.0789
 3159DOPC   C1B37068  29.852  21.624  14.239 -0.2769 -0.0137 -0.1287
 3159DOPC   D2B37069  30.158  21.949  14.332 -0.3672  0.2425  0.3096
 3159DOPC   C3B37070  30.200  22.130  14.785  0.0428 -0.2339 -0.1808
 3159DOPC   C4B37071  30.065  22.438  15.106 -0.4427 -0.3440 -0.2689
 3160DOPS   CNO37072  25.905  16.224  13.026  0.0585  0.2561  0.1968
 3160DOPS   PO437073  25.956  15.975  13.237 -0.1812 -0.1563 -0.0858
 3160DOPS   GL137074  26.165  15.663  13.454 -0.1606  0.0109  0.1020
 3160DOPS   GL237075  26.372  15.484  13.265  0.3566 -0.1886 -0.2971
 3160DOPS   C1A37076  25.954  15.384  13.776 -0.2696  0.1716  0.0019
 3160DOPS   D2A37077  25.590  15.553  13.952 -0.3009  0.0778  0.0369
 3160DOPS   C3A37078  25.169  15.361  14.164 -0.0420  0.2893  0.1937
 3160DOPS   C4A37079  25.099  14.904  14.315  0.0198 -0.2185  0.3916
 3160DOPS   C1B37080  26.443  15.245  13.712  0.0696  0.4536  0.2050
 3160DOPS   D2B37081  26.853  15.317  13.994 -0.1199  0.2309  0.1349
 3160DOPS   C3B37082  27.143  15.687  13.919  0.0345  0.0373  0.0146
 3160DOPS   C4B37083  27.339  16.096  13.934 -0.3236 -0.1736  0.2801
 3161DOPS   CNO37084  26.746  18.745  13.485 -0.1602 -0.3224  0.0985
 3161DOPS   PO437085  26.588  18.381  13.607  0.4401  0.2861  0.4191
 3161DOPS   GL137086  26.683  18.175  13.981  0.5020  0.2142 -0.0684
 3161DOPS   GL237087  26.469  18.250  14.142  0.1398 -0.2495 -0.2936
 3161DOPS   C1A37088  26.923  17.829  14.215 -0.0017  0.0298 -0.0742
 3161DOPS   D2A37089  27.233  17.786  14.570  0.1979 -0.0699 -0.0917
 3161DOPS   C3A37090  27.612  17.559  14.559 -0.1932 -0.0023 -0.1555
 3161DOPS   C4A37091  27.887  17.238  14.729 -0.1561 -0.4832 -0.0620
 3161DOPS   C1B37092  26.454  17.856  14.436 -0.0989  0.1113  0.0262
 3161DOPS   D2B37093  26.746  17.568  14.624  0.1887 -0.2091 -0.0837
 3161DOPS   C3B37094  26.738  17.134  14.446  0.2441  0.1190  0.1389
 3161DOPS   C4B37095  26.752  16.659  14.434 -0.0503 -0.0171  0.0769
 3162DOPC   NC337096  25.381  21.332  13.037 -0.1147 -0.1862 -0.1085
 3162DOPC   PO437097  25.731  21.290  13.038 -0.1479  0.2627  0.2159
 3162DOPC   GL137098  25.645  20.923  13.042 -0.1392  0.1096  0.1992
 3162DOPC   GL237099  25.896  20.806  13.217  0.1512  0.0201 -0.1912
 3162DOPC   C1A37100  25.177  20.766  13.022  0.1705  0.0240 -0.2417
 3162DOPC   D2A37101  24.883  20.378  13.064  0.1409 -0.0792 -0.1944
 3162DOPC   C3A37102  24.995  19.959  13.188  0.0054  0.2379 -0.1157
 3162DOPC   C4A37103  25.202  19.739  13.569  0.2402  0.0582  0.2161
 3162DOPC   C1B37104  25.561  20.881  13.528 -0.0855 -0.1114 -0.3796
 3162DOPC   D2B37105  25.417  21.106  13.944  0.1360  0.2582 -0.1450
 3162DOPC   C3B37106  25.603  20.990  14.359 -0.1088 -0.0562  0.1254
 3162DOPC   C4B37107  25.779  21.375  14.622 -0.1551  0.0480 -0.0107
 3163DOPE   NH337108  33.738  11.348  13.920 -0.1195 -0.3346  0.1126
 3163DOPE   PO437109  33.474  11.442  14.104  0.1690  0.1429  0.2142
 3163DOPE   GL137110  33.302  11.319  14.406  0.1049  0.0856  0.0492
 3163DOPE   GL237111  33.180  11.657  14.442 -0.2514 -0.2439  0.0606
 3163DOPE   C1A37112  33.274  11.381  14.834  0.3981 -0.0956 -0.1734
 3163DOPE   D2A37113  32.987  11.485  15.211  0.0100  0.0565 -0.1377
 3163DOPE   C3A37114  32.982  11.099  15.472  0.1677  0.1226 -0.1753
 3163DOPE   C4A37115  33.154  10.697  15.473  0.1889  0.0992  0.0602
 3163DOPE   C1B37116  32.844  11.754  14.725 -0.1879  0.1388 -0.3140
 3163DOPE   D2B37117  32.488  11.662  14.911 -0.3898 -0.2336 -0.0919
 3163DOPE   C3B37118  32.040  11.669  14.763 -0.1074 -0.1779 -0.3928
 3163DOPE   C4B37119  31.769  11.262  14.759 -0.0221 -0.0201 -0.0373
 3164DOPE   NH337120  23.542  22.884  13.187  0.1699 -0.2285 -0.0224
 3164DOPE   PO437121  23.864  22.839  13.130 -0.0824 -0.0471  0.2799
 3164DOPE   GL137122  23.794  22.799  13.580  0.0222  0.1229  0.2707
 3164DOPE   GL237123  24.024  22.909  13.658 -0.0321 -0.1073 -0.2842
 3164DOPE   C1A37124  23.826  22.581  13.942  0.0820 -0.0386 -0.1550
 3164DOPE   D2A37125  24.009  22.527  14.398  0.5266 -0.0844 -0.1017
 3164DOPE   C3A37126  24.022  22.980  14.583 -0.0458 -0.0346 -0.0199
 3164DOPE   C4A37127  23.949  23.309  14.883  0.2077 -0.1274  0.1440
 3164DOPE   C1B37128  24.193  22.887  14.099  0.0697 -0.1758  0.1127
 3164DOPE   D2B37129  24.540  22.729  14.363  0.0459 -0.0061  0.2858
 3164DOPE   C3B37130  24.548  22.355  14.572 -0.1029 -0.4407 -0.0238
 3164DOPE   C4B37131  24.148  22.205  14.750 -0.0233 -0.0891 -0.0292
 3165POSM   NC337132  29.286  15.023  12.897  0.2275 -0.0683 -0.0605
 3165POSM   PO437133  29.147  14.628  12.983  0.1225 -0.2751  0.2377
 3165POSM   AM137134  29.144  14.734  13.273  0.1540 -0.0289 -0.0730
 3165POSM   AM237135  29.259  15.007  13.403  0.0824 -0.2935  0.0565
 3165POSM   T1A37136  28.953  14.489  13.663 -0.0597  0.1290  0.0837
 3165POSM   C2A37137  28.676  14.593  14.054 -0.3039  0.1179 -0.1263
 3165POSM   C3A37138  28.292  14.709  14.277 -0.1325 -0.1892  0.2014
 3165POSM   C1B37139  29.136  14.998  13.691 -0.0674 -0.2188 -0.1063
 3165POSM   D2B37140  29.167  14.779  14.144  0.0376 -0.1724  0.1695
 3165POSM   C3B37141  28.850  14.825  14.473  0.3019  0.3347  0.0330
 3165POSM   C4B37142  28.571  14.896  14.828 -0.0586 -0.2025  0.1412
 3166DOPS   CNO37143  33.053  22.606  13.227  0.1513 -0.1983 -0.2111
 3166DOPS   PO437144  33.347  22.366  13.241 -0.1825 -0.0471 -0.0350
 3166DOPS   GL137145  33.069  22.093  13.411 -0.1801 -0.0514 -0.6570
 3166DOPS   GL237146  32.970  22.162  13.711  0.2464  0.4063 -0.0910
 3166DOPS   C1A37147  32.708  21.867  13.260 -0.1924  0.3090 -0.2689
 3166DOPS   D2A37148  32.349  21.594  13.287 -0.2951 -0.2655  0.3796
 3166DOPS   C3A37149  32.064  21.903  13.348  0.0192  0.0874  0.1662
 3166DOPS   C4A37150  31.705  22.244  13.218  0.1411  0.0938 -0.3265
 3166DOPS   C1B37151  33.131  22.155  14.138  0.2640 -0.2686  0.1576
 3166DOPS   D2B37152  32.943  22.054  14.536 -0.3354 -0.2754 -0.1212
 3166DOPS   C3B37153  32.841  21.626  14.476  0.1139 -0.2211 -0.2459
 3166DOPS   C4B37154  32.785  21.281  14.235  0.2450 -0.0939  0.0907
 3167DOPC   NC337155  29.742  13.671  13.330  0.0004  0.2415 -0.1276
 3167DOPC   PO437156  29.987  13.450  13.541 -0.0848  0.0563  0.1729
 3167DOPC   GL137157  29.883  13.619  13.839 -0.2328 -0.7562 -0.3724
 3167DOPC   GL237158  29.761  13.450  13.979 -0.0506 -0.1151 -0.2779
 3167DOPC   C1A37159  29.968  13.790  14.272 -0.1179 -0.1466 -0.0683
 3167DOPC   D2A37160  29.965  13.890  14.736 -0.1792  0.1735  0.0211
 3167DOPC   C3A37161  30.286  13.787  15.104 -0.0873  0.0622  0.1772
 3167DOPC   C4A37162  30.243  13.689  15.558  0.0774  0.1074 -0.2237
 3167DOPC   C1B37163  29.408  13.190  14.139  0.4517  0.1457  0.1738
 3167DOPC   D2B37164  29.035  13.066  14.393  0.2580 -0.3669  0.1602
 3167DOPC   C3B37165  28.850  13.037  14.756  0.2092 -0.0208  0.1730
 3167DOPC   C4B37166  28.946  12.798  15.109  0.0989  0.4006  0.0508
 3168DOPE   NH337167  23.168  14.178  13.131 -0.0178 -0.0961 -0.0741
 3168DOPE   PO437168  23.372  14.429  13.025 -0.0567  0.0069  0.0136
 3168DOPE   GL137169  23.089  14.655  13.275 -0.2677  0.0431 -0.1700
 3168DOPE   GL237170  22.890  14.823  13.107 -0.1718 -0.3136 -0.2526
 3168DOPE   C1A37171  22.733  14.476  13.563 -0.0540 -0.0650 -0.1690
 3168DOPE   D2A37172  22.303  14.219  13.509 -0.0128 -0.0124  0.0577
 3168DOPE   C3A37173  22.316  13.764  13.465 -0.0685  0.1532  0.2205
 3168DOPE   C4A37174  22.317  13.303  13.377 -0.0273  0.1066 -0.0897
 3168DOPE   C1B37175  22.492  14.924  13.371 -0.0569  0.4276  0.3970
 3168DOPE   D2B37176  22.139  14.685  13.569  0.1408 -0.1112 -0.1122
 3168DOPE   C3B37177  22.046  14.496  13.915 -0.0504  0.3337  0.0163
 3168DOPE   C4B37178  22.232  14.631  14.311 -0.2680  0.0894  0.0038
 3169DOPS   CNO37179  28.413  14.882  12.716 -0.0365 -0.0904 -0.0784
 3169DOPS   PO437180  28.627  14.550  12.751 -0.2904 -0.2712 -0.2596
 3169DOPS   GL137181  28.783  14.289  13.060  0.5010  0.1378  0.2484
 3169DOPS   GL237182  28.703  14.470  13.282  0.2139  0.2424 -0.0461
 3169DOPS   C1A37183  28.831  13.802  13.063 -0.2468 -0.0235  0.3095
 3169DOPS   D2A37184  29.113  13.439  13.188 -0.0345  0.1598  0.3668
 3169DOPS   C3A37185  28.803  13.141  13.385 -0.0128  0.0196 -0.0387
 3169DOPS   C4A37186  28.363  13.292  13.538 -0.0394 -0.0900 -0.5283
 3169DOPS   C1B37187  28.665  14.068  13.536 -0.2277 -0.2105  0.0184
 3169DOPS   D2B37188  28.770  13.600  13.588 -0.0304  0.2193 -0.2224
 3169DOPS   C3B37189  28.907  13.410  14.029  0.1895  0.0032  0.0309
 3169DOPS   C4B37190  28.597  13.186  14.200  0.0797 -0.0482  0.1006
 3170DOPS   CNO37191  33.931  21.122  13.197  0.2583  0.0151 -0.0069
 3170DOPS   PO437192  33.762  21.055  13.551  0.1234  0.1202  0.0403
 3170DOPS   GL137193  33.460  20.805  13.580 -0.4296 -0.2032  0.3317
 3170DOPS   GL237194  33.294  21.061  13.684  0.4108  0.0954  0.0206
 3170DOPS   C1A37195  33.246  20.524  13.897  0.1046 -0.2005 -0.1590
 3170DOPS   D2A37196  33.146  20.244  14.211 -0.1622 -0.1025  0.1309
 3170DOPS   C3A37197  33.328  20.410  14.604 -0.1373  0.0745 -0.0564
 3170DOPS   C4A37198  33.416  20.854  14.786 -0.0606  0.0305 -0.1838
 3170DOPS   C1B37199  32.881  20.973  13.834  0.0522 -0.1505  0.1154
 3170DOPS   D2B37200  32.445  20.877  14.030  0.4254  0.1304  0.0457
 3170DOPS   C3B37201  32.403  20.981  14.492 -0.2967 -0.2781 -0.1207
 3170DOPS   C4B37202  32.178  20.700  14.778  0.0886  0.1154  0.1434
 3171DOPE   NH337203  23.992  22.346  12.996  0.1004  0.0859 -0.0022
 3171DOPE   PO437204  23.779  22.157  13.061 -0.3573  0.2362  0.0062
 3171DOPE   GL137205  23.799  22.012  13.398 -0.1411 -0.1612  0.2001
 3171DOPE   GL237206  23.533  21.841  13.355 -0.3205  0.0041  0.1605
 3171DOPE   C1A37207  23.859  22.101  13.830  0.3960  0.0533  0.0508
 3171DOPE   D2A37208  23.779  21.800  14.207  0.1169 -0.3322 -0.0940
 3171DOPE   C3A37209  23.920  21.730  14.639 -0.0896  0.2257  0.1104
 3171DOPE   C4A37210  24.067  21.863  15.051  0.2265  0.0914 -0.0540
 3171DOPE   C1B37211  23.106  21.705  13.333  0.1941 -0.0601 -0.0852
 3171DOPE   D2B37212  22.654  21.568  13.265  0.2211 -0.0049 -0.2723
 3171DOPE   C3B37213  22.431  21.203  13.245 -0.1172  0.1275  0.2264
 3171DOPE   C4B37214  22.179  20.856  13.447 -0.0553  0.1704 -0.0003
 3172DOPE   NH337215  26.881  17.967  13.611  0.1119  0.0342 -0.1538
 3172DOPE   PO437216  27.052  18.074  13.347 -0.2883 -0.1105 -0.1189
 3172DOPE   GL137217  27.455  17.955  13.461  0.4374  0.4154  0.1679
 3172DOPE   GL237218  27.379  17.640  13.467  0.1508 -0.1635 -0.1642
 3172DOPE   C1A37219  27.909  17.936  13.502 -0.0043 -0.1568 -0.2291
 3172DOPE   D2A37220  28.245  17.985  13.815 -0.1019  0.2869 -0.1989
 3172DOPE   C3A37221  28.641  18.256  13.769  0.0064 -0.3233  0.0238
 3172DOPE   C4A37222  28.912  18.496  13.507  0.0481 -0.0562  0.0344
 3172DOPE   C1B37223  27.706  17.465  13.732 -0.2107 -0.1403  0.3579
 3172DOPE   D2B37224  27.793  17.565  14.120  0.1590  0.0537  0.1662
 3172DOPE   C3B37225  27.733  17.984  14.181 -0.1281  0.1678  0.2113
 3172DOPE   C4B37226  27.907  18.386  14.252 -0.0709  0.0871 -0.1239
 3173POSM   NC337227  34.035  12.025  13.531  0.0407 -0.0908 -0.1639
 3173POSM   PO437228  33.810  11.773  13.701  0.0678  0.0581  0.1550
 3173POSM   AM137229  33.787  11.788  14.014 -0.3359  0.1290 -0.0351
 3173POSM   AM237230  33.926  11.723  14.277  0.0050  0.2075 -0.1641
 3173POSM   T1A37231  33.579  12.009  14.424  0.0469  0.5651 -0.0887
 3173POSM   C2A37232  33.633  12.200  14.888 -0.1593 -0.1852  0.0887
 3173POSM   C3A37233  33.633  12.595  15.186  0.1441 -0.1623  0.3522
 3173POSM   C1B37234  33.877  11.656  14.577 -0.4564 -0.1723  0.2579
 3173POSM   D2B37235  33.618  11.676  14.944  0.1639 -0.0241 -0.0445
 3173POSM   C3B37236  33.241  11.891  14.965 -0.1069 -0.1333  0.2162
 3173POSM   C4B37237  33.111  12.144  14.576 -0.0385 -0.0638  0.2914
 3174DOPC   NC337238  30.512  15.289  13.297  0.2625 -0.2045  0.2063
 3174DOPC   PO437239  30.577  15.517  13.576 -0.1084  0.0984  0.0290
 3174DOPC   GL137240  30.420  15.835  13.762 -0.2555  0.0439  0.5416
 3174DOPC   GL237241  30.178  15.884  13.760  0.0992 -0.1636  0.0820
 3174DOPC   C1A37242  30.538  15.880  14.242  0.2838 -0.1331  0.0984
 3174DOPC   D2A37243  30.407  16.134  14.636  0.0167 -0.2168 -0.0209
 3174DOPC   C3A37244  30.129  16.493  14.667  0.1538 -0.1048 -0.1107
 3174DOPC   C4A37245  29.695  16.732  14.640 -0.1076  0.2527  0.4087
 3174DOPC   C1B37246  30.122  15.611  14.193  0.1852 -0.2332  0.0885
 3174DOPC   D2B37247  30.101  15.652  14.657 -0.1058  0.3778 -0.0545
 3174DOPC   C3B37248  29.928  16.020  14.713  0.3129  0.1438  0.0135
 3174DOPC   C4B37249  29.582  16.142  14.507 -0.0796 -0.3313  0.0843
 3175DOPC   NC337250  26.526  17.101  13.080  0.0169 -0.1065  0.2236
 3175DOPC   PO437251  26.359  17.409  13.328 -0.0426  0.0738 -0.1280
 3175DOPC   GL137252  26.675  17.292  13.587  0.0091  0.2449 -0.0295
 3175DOPC   GL237253  26.895  17.449  13.689 -0.1048 -0.2501  0.2234
 3175DOPC   C1A37254  26.855  16.997  13.909  0.0378 -0.1818  0.3280
 3175DOPC   D2A37255  27.179  16.732  14.103  0.0829  0.0623  0.0825
 3175DOPC   C3A37256  27.393  16.520  13.694 -0.3295  0.0759 -0.2778
 3175DOPC   C4A37257  27.569  16.413  13.296  0.0770 -0.1417 -0.0858
 3175DOPC   C1B37258  27.051  17.339  14.150 -0.0442 -0.0120 -0.0053
 3175DOPC   D2B37259  27.206  17.174  14.551  0.1904  0.0219  0.2295
 3175DOPC   C3B37260  27.227  16.720  14.610 -0.0560 -0.0233 -0.0941
 3175DOPC   C4B37261  27.188  16.304  14.419  0.2345  0.0244  0.2052
 3176DOPE   NH337262  32.523  23.217  13.533  0.1732  0.0970  0.1740
 3176DOPE   PO437263  32.704  23.083  13.273  0.3658  0.3838  0.1240
 3176DOPE   GL137264  33.045  23.326  13.519  0.0544 -0.0780  0.0512
 3176DOPE   GL237265  32.931  23.258  13.862 -0.0356  0.1513  0.0518
 3176DOPE   C1A37266  32.851  23.680  13.656  0.0982 -0.0521  0.0913
 3176DOPE   D2A37267  32.714  24.039  13.906  0.0314  0.1599 -0.3361
 3176DOPE   C3A37268  32.830  24.040  14.397  0.5141 -0.0956  0.1210
 3176DOPE   C4A37269  32.966  23.797  14.783  0.0164 -0.0995  0.1764
 3176DOPE   C1B37270  32.940  23.164  14.290  0.0431 -0.0502 -0.0918
 3176DOPE   D2B37271  32.877  22.843  14.657  0.0635  0.1354 -0.0729
 3176DOPE   C3B37272  32.672  22.461  14.729 -0.1762 -0.0033  0.1942
 3176DOPE   C4B37273  32.517  22.062  14.788 -0.0178  0.3345  0.3062
 3177POSM   NC337274  33.462  22.508  13.822 -0.1489  0.3810 -0.1071
 3177POSM   PO437275  33.846  22.358  13.671  0.5347 -0.2711  0.0282
 3177POSM   AM137276  33.943  22.309  13.937 -0.0388 -0.0199  0.0273
 3177POSM   AM237277  34.206  22.316  14.097  0.0815  0.0416 -0.0535
 3177POSM   T1A37278  33.717  22.064  14.324 -0.2387  0.0160 -0.1292
 3177POSM   C2A37279  33.404  21.711  14.345 -0.0153  0.0392  0.2508
 3177POSM   C3A37280  33.357  21.327  14.084  0.1550 -0.2740 -0.0271
 3177POSM   C1B37281  34.328  22.452  14.395 -0.0573 -0.2684  0.0256
 3177POSM   D2B37282  34.520  22.403  14.808  0.0169 -0.0858 -0.1417
 3177POSM   C3B37283  34.691  22.603  15.187  0.1507  0.0113  0.0370
 3177POSM   C4B37284  34.639  22.463  15.559 -0.0808 -0.0256  0.0479
 3178DOPE   NH337285  29.823  18.045  13.310  0.1460  0.0865 -0.0780
 3178DOPE   PO437286  29.828  18.152  13.570  0.3403  0.2235  0.1591
 3178DOPE   GL137287  29.662  18.223  13.902 -0.0380 -0.0058 -0.1121
 3178DOPE   GL237288  29.822  18.047  14.177  0.3624 -0.0706 -0.0330
 3178DOPE   C1A37289  29.204  18.312  14.007 -0.0944 -0.3256 -0.2912
 3178DOPE   D2A37290  28.907  18.658  13.975  0.2721  0.1950 -0.0473
 3178DOPE   C3A37291  28.896  18.884  14.396  0.2819 -0.2081  0.1672
 3178DOPE   C4A37292  28.719  18.980  14.792  0.0680  0.1476  0.0641
 3178DOPE   C1B37293  29.567  18.202  14.470  0.2297  0.2420 -0.1128
 3178DOPE   D2B37294  29.114  18.035  14.483  0.0942  0.3182 -0.1100
 3178DOPE   C3B37295  28.761  18.269  14.303  0.0508  0.0741 -0.6752
 3178DOPE   C4B37296  28.372  18.444  14.124  0.0364 -0.1146 -0.1214
 3179DOPC   NC337297  30.576  16.344  13.183 -0.0304  0.4206 -0.0273
 3179DOPC   PO437298  30.471  16.740  13.277  0.2911  0.2025 -0.0798
 3179DOPC   GL137299  30.288  16.914  13.635 -0.1644 -0.0934  0.2260
 3179DOPC   GL237300  30.210  16.914  13.943 -0.1076  0.0483  0.0434
 3179DOPC   C1A37301  30.437  17.300  13.823  0.0651 -0.0427  0.3263
 3179DOPC   D2A37302  30.714  17.626  13.712 -0.1073 -0.2978 -0.0822
 3179DOPC   C3A37303  30.824  18.025  14.005  0.1141  0.1611 -0.1200
 3179DOPC   C4A37304  31.034  18.361  14.204 -0.0098 -0.2924 -0.0235
 3179DOPC   C1B37305  30.323  16.891  14.415 -0.3825  0.3021  0.2904
 3179DOPC   D2B37306  30.633  16.881  14.761 -0.0254  0.1737 -0.0400
 3179DOPC   C3B37307  30.436  16.857  15.230  0.2059  0.2256 -0.1708
 3179DOPC   C4B37308  30.377  17.140  15.583  0.0357  0.3156  0.1760
 3180DOPS   CNO37309  25.384  11.697  12.530  0.0399  0.0516 -0.1272
 3180DOPS   PO437310  25.061  11.742  12.737 -0.1583 -0.1099  0.2662
 3180DOPS   GL137311  24.832  11.943  12.976 -0.0316  0.1389  0.1544
 3180DOPS   GL237312  24.829  12.070  13.219 -0.3116  0.0304 -0.1428
 3180DOPS   C1A37313  24.645  12.362  12.867 -0.1226  0.4380 -0.0695
 3180DOPS   D2A37314  24.352  12.714  12.682 -0.1701  0.0479 -0.0093
 3180DOPS   C3A37315  23.902  12.936  12.776 -0.1094 -0.1109 -0.1399
 3180DOPS   C4A37316  23.569  13.227  12.956  0.3438  0.1054 -0.1182
 3180DOPS   C1B37317  24.612  12.423  13.444 -0.0765  0.1033 -0.1322
 3180DOPS   D2B37318  24.407  12.731  13.732  0.0502  0.3103  0.0141
 3180DOPS   C3B37319  24.752  12.755  14.066 -0.3686  0.2065 -0.1558
 3180DOPS   C4B37320  25.154  12.847  14.366  0.1298 -0.3192  0.1155
 3181DOPE   NH337321  26.376  20.658  13.280  0.0838 -0.0092 -0.1693
 3181DOPE   PO437322  26.505  20.627  13.571 -0.0310 -0.2725  0.0856
 3181DOPE   GL137323  26.586  20.969  13.703  0.1927  0.0526 -0.1000
 3181DOPE   GL237324  26.896  20.902  13.821 -0.0075  0.2673  0.0723
 3181DOPE   C1A37325  26.633  21.126  14.134  0.0039  0.3096  0.2449
 3181DOPE   D2A37326  26.761  21.233  14.584  0.0767 -0.0451 -0.2084
 3181DOPE   C3A37327  26.527  21.400  14.940  0.3231 -0.0738  0.0131
 3181DOPE   C4A37328  26.286  21.731  15.272  0.1592  0.0455 -0.1065
 3181DOPE   C1B37329  27.333  20.965  13.960 -0.1043  0.1050 -0.1353
 3181DOPE   D2B37330  27.615  21.139  14.339 -0.0604 -0.0265 -0.1459
 3181DOPE   C3B37331  28.108  21.159  14.444 -0.0790  0.1769  0.0768
 3181DOPE   C4B37332  28.484  21.377  14.625  0.4382 -0.1844  0.1058
 3182DOPE   NH337333  25.803  16.723  13.247  0.0769 -0.1243  0.2092
 3182DOPE   PO437334  26.050  16.714  13.000  0.0187  0.2301  0.1122
 3182DOPE   GL137335  26.249  16.403  13.201 -0.0087  0.0824 -0.0644
 3182DOPE   GL237336  26.153  16.348  13.446 -0.1873  0.1119 -0.2696
 3182DOPE   C1A37337  26.659  16.171  13.354  0.1539  0.0259  0.2590
 3182DOPE   D2A37338  26.927  16.259  13.687 -0.0005  0.1698  0.1991
 3182DOPE   C3A37339  26.820  16.059  14.117 -0.0677  0.1590  0.2644
 3182DOPE   C4A37340  26.790  15.673  14.409  0.1964 -0.2296  0.3763
 3182DOPE   C1B37341  26.037  16.084  13.833  0.2651 -0.0377 -0.2908
 3182DOPE   D2B37342  25.905  15.857  14.200  0.0094  0.1770 -0.3071
 3182DOPE   C3B37343  26.027  15.411  14.268 -0.0436 -0.3285 -0.0801
 3182DOPE   C4B37344  26.221  15.019  14.097 -0.5483 -0.3544 -0.2151
 3183DOPS   CNO37345  34.090  22.660  13.365  0.0905 -0.2414  0.0806
 3183DOPS   PO437346  34.307  22.697  13.652 -0.1030 -0.1485 -0.0496
 3183DOPS   GL137347  34.555  22.606  13.935  0.1407 -0.4536  0.0672
 3183DOPS   GL237348  34.676  22.358  13.931  0.0065  0.1115  0.1619
 3183DOPS   C1A37349  34.985  22.677  14.134 -0.0115  0.3069  0.0139
 3183DOPS   D2A37350  35.296  22.826  14.452 -0.1506  0.0394 -0.1059
 3183DOPS   C3A37351  35.625  23.094  14.385  0.2410 -0.1244 -0.1558
 3183DOPS   C4A37352  35.933  23.376  14.538  0.3262 -0.0223 -0.0131
 3183DOPS   C1B37353  34.786  22.179  14.359  0.0054 -0.2405  0.1948
 3183DOPS   D2B37354  35.042  22.163  14.777 -0.2843  0.0704 -0.1379
 3183DOPS   C3B37355  35.353  22.478  14.885 -0.1257 -0.1115 -0.0417
 3183DOPS   C4B37356  35.595  22.847  14.841  0.3287 -0.0005  0.0086
 3184DOPE   NH337357  34.184  14.005  13.970  0.3463 -0.1683 -0.2634
 3184DOPE   PO437358  33.919  14.157  14.028 -0.2140 -0.0385 -0.0320
 3184DOPE   GL137359  33.919  14.208  14.360 -0.0110 -0.2519  0.2003
 3184DOPE   GL237360  33.985  13.997  14.541 -0.0122  0.1142  0.0513
 3184DOPE   C1A37361  33.724  14.446  14.645 -0.1926 -0.1010 -0.1794
 3184DOPE   D2A37362  33.286  14.396  14.842  0.1905 -0.2786 -0.2833
 3184DOPE   C3A37363  33.137  14.111  15.151 -0.2048  0.3171  0.1400
 3184DOPE   C4A37364  33.134  14.236  15.624 -0.3875 -0.2873  0.0625
 3184DOPE   C1B37365  34.265  13.649  14.372  0.0368  0.4291  0.2386
 3184DOPE   D2B37366  34.300  13.177  14.390 -0.3009  0.0601 -0.1686
 3184DOPE   C3B37367  34.310  12.988  14.785  0.0410 -0.2812 -0.0756
 3184DOPE   C4B37368  34.450  12.980  15.266  0.0903  0.0359 -0.0486
 3185DOPS   CNO37369  28.185  11.962  13.110  0.1278  0.0264  0.4389
 3185DOPS   PO437370  27.956  11.889  13.400  0.4270  0.2465 -0.4835
 3185DOPS   GL137371  27.991  11.839  13.785 -0.0552  0.4317 -0.1081
 3185DOPS   GL237372  27.876  11.618  13.840 -0.0717  0.0291  0.1914
 3185DOPS   C1A37373  27.957  12.229  14.077 -0.0550  0.0445 -0.4570
 3185DOPS   D2A37374  28.010  12.533  14.448 -0.1258  0.0665  0.0544
 3185DOPS   C3A37375  27.919  12.957  14.248  0.0918 -0.1739  0.3149
 3185DOPS   C4A37376  28.175  13.177  13.943  0.2608  0.0640  0.0669
 3185DOPS   C1B37377  28.184  11.715  14.225 -0.0022 -0.2502  0.0393
 3185DOPS   D2B37378  28.371  12.113  14.341 -0.3497  0.0543 -0.0857
 3185DOPS   C3B37379  28.425  12.220  14.802 -0.1646 -0.1479 -0.0545
 3185DOPS   C4B37380  28.464  12.265  15.264 -0.1927 -0.2572 -0.0539
 3186DOPS   CNO37381  33.122  11.985  13.291  0.0418  0.0163  0.0609
 3186DOPS   PO437382  33.355  12.100  13.573 -0.0989 -0.1390  0.0949
 3186DOPS   GL137383  33.682  12.231  13.806 -0.2823 -0.4175  0.0194
 3186DOPS   GL237384  33.496  12.429  14.008 -0.1823 -0.0208 -0.3063
 3186DOPS   C1A37385  33.944  12.245  14.189  0.1907  0.1897  0.1040
 3186DOPS   D2A37386  34.108  12.141  14.624 -0.2281  0.2781  0.2932
 3186DOPS   C3A37387  34.316  11.797  14.702  0.1387 -0.0399 -0.1054
 3186DOPS   C4A37388  34.604  11.570  15.059  0.0307 -0.1831 -0.1837
 3186DOPS   C1B37389  33.587  12.537  14.435 -0.0155  0.0583 -0.1455
 3186DOPS   D2B37390  33.954  12.657  14.707  0.0678  0.1671  0.2488
 3186DOPS   C3B37391  34.171  12.576  15.113 -0.1949 -0.0286 -0.0580
 3186DOPS   C4B37392  34.449  12.216  15.133  0.1469 -0.2894  0.2127
 3187DOPC   NC337393  26.938  12.539  12.860 -0.2254 -0.2481 -0.2858
 3187DOPC   PO437394  26.997  12.646  13.225  0.0839 -0.0306 -0.1348
 3187DOPC   GL137395  26.902  13.094  13.233  0.1945 -0.1182 -0.0642
 3187DOPC   GL237396  27.161  13.142  13.146  0.0485  0.2410 -0.2623
 3187DOPC   C1A37397  26.661  13.303  13.613 -0.2390 -0.3048 -0.1281
 3187DOPC   D2A37398  26.379  13.398  13.944  0.1366 -0.0269 -0.0544
 3187DOPC   C3A37399  26.431  13.211  14.367 -0.2496  0.0116 -0.2922
 3187DOPC   C4A37400  26.517  12.975  14.742  0.1693 -0.0704 -0.0053
 3187DOPC   C1B37401  27.135  13.431  13.564  0.2007  0.2023  0.1848
 3187DOPC   D2B37402  27.258  13.859  13.721  0.0792  0.2195 -0.0733
 3187DOPC   C3B37403  26.964  14.187  13.832  0.1473  0.2509 -0.2459
 3187DOPC   C4B37404  26.524  14.229  14.046  0.1497 -0.1935  0.1845
 3188DOPC   NC337405  33.425  18.596  13.225 -0.3119  0.1025 -0.1308
 3188DOPC   PO437406  33.066  18.462  13.009  0.3540 -0.1638 -0.1010
 3188DOPC   GL137407  32.862  18.492  13.420 -0.2801 -0.1525  0.0638
 3188DOPC   GL237408  32.889  18.626  13.615  0.3349 -0.1193  0.0981
 3188DOPC   C1A37409  32.610  18.114  13.526 -0.5011 -0.1090  0.1843
 3188DOPC   D2A37410  32.301  18.036  13.842 -0.0982  0.3587 -0.2460
 3188DOPC   C3A37411  32.292  18.172  14.234 -0.1312  0.3727 -0.1308
 3188DOPC   C4A37412  32.119  18.077  14.656  0.3032 -0.2366 -0.1150
 3188DOPC   C1B37413  32.661  18.424  14.017 -0.0490  0.0922  0.0166
 3188DOPC   D2B37414  32.881  18.380  14.401  0.1281 -0.2820 -0.0334
 3188DOPC   C3B37415  33.088  18.001  14.513 -0.1792 -0.0650 -0.0295
 3188DOPC   C4B37416  32.980  17.650  14.853 -0.1813  0.0913 -0.1487
 3189DOPE   NH337417  29.612  14.639  13.187 -0.0090 -0.0188  0.2901
 3189DOPE   PO437418  29.736  14.375  13.359 -0.0239  0.1544  0.1203
 3189DOPE   GL137419  29.403  14.384  13.583 -0.1843 -0.1260 -0.0795
 3189DOPE   GL237420  29.452  14.634  13.693  0.1597  0.0145 -0.1440
 3189DOPE   C1A37421  29.366  14.292  14.033  0.1347  0.1614  0.0857
 3189DOPE   D2A37422  29.579  14.254  14.472 -0.1672 -0.0758 -0.2380
 3189DOPE   C3A37423  29.809  14.490  14.795 -0.0217  0.2608 -0.3512
 3189DOPE   C4A37424  29.913  14.973  14.788  0.1558  0.0019 -0.0527
 3189DOPE   C1B37425  29.601  15.063  13.781 -0.2937  0.0655  0.4553
 3189DOPE   D2B37426  29.636  15.442  14.052 -0.1271  0.1590 -0.0119
 3189DOPE   C3B37427  29.558  15.632  14.496 -0.0885  0.4443 -0.2180
 3189DOPE   C4B37428  29.450  15.795  14.878  0.2331 -0.1035  0.1398
 3190DOPC   NC337429  34.178  22.804  14.105  0.1781 -0.2085 -0.3972
 3190DOPC   PO437430  33.856  22.789  13.949 -0.0588  0.0352  0.1936
 3190DOPC   GL137431  33.656  22.775  14.315  0.2973 -0.1303  0.0566
 3190DOPC   GL237432  33.835  22.569  14.398 -0.0435  0.1151 -0.1500
 3190DOPC   C1A37433  33.339  22.994  14.565 -0.1143 -0.2307 -0.1141
 3190DOPC   D2A37434  33.005  23.278  14.856 -0.0438  0.0475 -0.3418
 3190DOPC   C3A37435  32.681  23.013  15.066  0.0422  0.1618 -0.0495
 3190DOPC   C4A37436  32.383  23.171  15.332  0.2928  0.1830 -0.0295
 3190DOPC   C1B37437  34.017  22.279  14.724  0.0893 -0.2261  0.1816
 3190DOPC   D2B37438  33.929  21.856  14.887  0.0850  0.1741  0.0987
 3190DOPC   C3B37439  33.753  21.529  14.680  0.0691  0.0558  0.1519
 3190DOPC   C4B37440  33.793  21.171  14.431  0.1309 -0.2662 -0.0797
 3191POSM   NC337441  27.366  14.983  13.137  0.2983  0.1400  0.1961
 3191POSM   PO437442  27.724  14.777  13.144  0.3720 -0.2194  0.3344
 3191POSM   AM137443  27.853  14.772  13.448 -0.1830 -0.2966  0.0948
 3191POSM   AM237444  28.092  14.896  13.515 -0.1357 -0.4136  0.2467
 3191POSM   T1A37445  27.847  14.849  13.974 -0.2867  0.0344 -0.2303
 3191POSM   C2A37446  27.811  15.236  14.247  0.2314 -0.4096  0.0463
 3191POSM   C3A37447  27.781  15.512  14.631 -0.2182 -0.1035 -0.1731
 3191POSM   C1B37448  28.241  14.622  13.674  0.0373  0.1607  0.1688
 3191POSM   D2B37449  28.203  14.270  14.009  0.0494 -0.0527  0.2520
 3191POSM   C3B37450  28.384  14.173  14.495  0.1518 -0.3857  0.3112
 3191POSM   C4B37451  28.646  14.301  14.891  0.2920 -0.0059 -0.0602
 3192DOPC   NC337452  26.157  20.278  13.692 -0.0439 -0.1228 -0.1468
 3192DOPC   PO437453  26.295  20.181  13.356  0.1124  0.1101 -0.0649
 3192DOPC   GL137454  26.320  19.796  13.657 -0.1479 -0.1528 -0.0487
 3192DOPC   GL237455  26.231  19.856  13.943  0.0976  0.0445 -0.0869
 3192DOPC   C1A37456  25.920  19.505  13.735 -0.0064 -0.1576 -0.0669
 3192DOPC   D2A37457  25.533  19.520  13.932  0.0785 -0.1394  0.0627
 3192DOPC   C3A37458  25.385  19.911  14.009  0.1047  0.0133  0.2048
 3192DOPC   C4A37459  25.170  20.327  13.843 -0.2351 -0.0583  0.1884
 3192DOPC   C1B37460  25.831  20.028  14.131  0.2456  0.0257  0.0962
 3192DOPC   D2B37461  25.462  20.145  14.419 -0.0237 -0.1581  0.0064
 3192DOPC   C3B37462  25.182  19.961  14.676 -0.1558  0.1308 -0.1669
 3192DOPC   C4B37463  25.053  19.785  15.007  0.1877  0.0873 -0.3841
 3193DOPC   NC337464  29.776  20.413  13.753 -0.1670  0.2907 -0.2411
 3193DOPC   PO437465  29.650  20.786  13.708 -0.4146  0.0040 -0.0860
 3193DOPC   GL137466  29.810  20.781  14.032  0.4055  0.0973 -0.3161
 3193DOPC   GL237467  30.116  20.684  14.051  0.0780 -0.0890 -0.0450
 3193DOPC   C1A37468  29.568  20.488  14.304 -0.0618 -0.0609 -0.2120
 3193DOPC   D2A37469  29.590  20.244  14.703  0.1878  0.1610 -0.5361
 3193DOPC   C3A37470  29.431  19.962  15.054  0.1467 -0.2445  0.1099
 3193DOPC   C4A37471  29.403  19.475  15.118  0.4587  0.3351 -0.1613
 3193DOPC   C1B37472  30.320  20.670  14.500 -0.0629  0.1359 -0.1812
 3193DOPC   D2B37473  30.660  20.443  14.606 -0.1346 -0.3300  0.0391
 3193DOPC   C3B37474  30.825  20.626  14.996  0.2833  0.0438  0.1540
 3193DOPC   C4B37475  31.163  20.581  15.323  0.2171  0.6137  0.3057
 3194DOPE   NH337476  26.918  20.766  13.299  0.1649  0.1998 -0.1722
 3194DOPE   PO437477  26.712  21.020  13.248 -0.4317  0.0543 -0.2235
 3194DOPE   GL137478  26.657  21.316  13.465 -0.0250 -0.0602 -0.0912
 3194DOPE   GL237479  26.564  21.608  13.518 -0.0697  0.6007 -0.0691
 3194DOPE   C1A37480  27.033  21.474  13.746 -0.1701 -0.0254  0.2908
 3194DOPE   D2A37481  27.140  21.408  14.218 -0.1217  0.2324  0.0322
 3194DOPE   C3A37482  26.928  21.700  14.514  0.0154  0.5154 -0.1006
 3194DOPE   C4A37483  26.747  21.827  14.895 -0.1681 -0.1065 -0.2457
 3194DOPE   C1B37484  26.336  21.504  13.903 -0.0827 -0.3411  0.0592
 3194DOPE   D2B37485  26.506  21.537  14.345 -0.1659 -0.4250  0.2140
 3194DOPE   C3B37486  26.217  21.687  14.709 -0.1651 -0.0846 -0.0017
 3194DOPE   C4B37487  25.980  21.947  14.962 -0.2041  0.1462  0.2351
 3195DOPE   NH337488  25.832  22.477  13.362 -0.2727 -0.2979 -0.1253
 3195DOPE   PO437489  25.582  22.589  13.498 -0.2613  0.0274  0.0093
 3195DOPE   GL137490  25.603  22.459  13.846  0.0658  0.3650 -0.0758
 3195DOPE   GL237491  25.323  22.562  13.972 -0.2205  0.1576  0.2672
 3195DOPE   C1A37492  25.879  22.261  14.149  0.0305  0.0350 -0.2069
 3195DOPE   D2A37493  25.757  22.016  14.560 -0.1220 -0.0206 -0.2655
 3195DOPE   C3A37494  25.550  22.141  15.008 -0.1160  0.5158  0.2409
 3195DOPE   C4A37495  25.220  22.240  15.269  0.1455 -0.0168  0.2661
 3195DOPE   C1B37496  24.964  22.854  13.999 -0.1338  0.0391  0.0114
 3195DOPE   D2B37497  24.649  23.139  14.170 -0.1916  0.0601  0.0377
 3195DOPE   C3B37498  24.409  23.270  14.471  0.2210  0.2062  0.2723
 3195DOPE   C4B37499  24.421  23.150  14.939 -0.3052  0.0643 -0.1799
 3196DOPC   NC337500  23.854  17.724  12.895  0.2821  0.1590  0.0206
 3196DOPC   PO437501  23.578  17.743  12.621  0.3337 -0.0957  0.0148
 3196DOPC   GL137502  23.449  17.970  12.926  0.0295  0.0877 -0.1648
 3196DOPC   GL237503  23.267  18.151  12.825 -0.1585  0.0282 -0.2094
 3196DOPC   C1A37504  23.434  18.075  13.339 -0.1652 -0.0755  0.2878
 3196DOPC   D2A37505  23.261  18.330  13.708  0.4305 -0.0300  0.0611
 3196DOPC   C3A37506  23.435  18.785  13.664 -0.0286 -0.0256  0.2379
 3196DOPC   C4A37507  23.657  19.203  13.535 -0.0449  0.0945 -0.2099
 3196DOPC   C1B37508  22.940  18.233  13.087 -0.2448  0.2457 -0.0062
 3196DOPC   D2B37509  22.481  18.137  13.117  0.1556  0.1352  0.2539
 3196DOPC   C3B37510  22.353  18.084  13.538 -0.0543  0.2762 -0.2260
 3196DOPC   C4B37511  22.173  17.980  13.964 -0.0584  0.2604  0.1514
 3197DOPE   NH337512  32.237  17.111  13.760  0.0511  0.0285 -0.1146
 3197DOPE   PO437513  32.120  17.366  13.618  0.1226  0.0555  0.2644
 3197DOPE   GL137514  32.396  17.539  13.990  0.0457  0.3247 -0.2900
 3197DOPE   GL237515  32.272  17.677  14.221 -0.0724 -0.2471 -0.2600
 3197DOPE   C1A37516  32.772  17.855  14.064 -0.0740  0.0313  0.1019
 3197DOPE   D2A37517  33.128  18.148  13.976 -0.0215 -0.0238  0.0915
 3197DOPE   C3A37518  33.188  18.570  14.103 -0.0511 -0.0920  0.1323
 3197DOPE   C4A37519  33.195  18.833  14.451  0.0359  0.0810  0.3948
 3197DOPE   C1B37520  32.198  17.206  14.360 -0.1114 -0.3578 -0.1560
 3197DOPE   D2B37521  31.951  16.828  14.457 -0.0466  0.1278 -0.0410
 3197DOPE   C3B37522  31.945  16.397  14.438  0.0083  0.2564  0.1161
 3197DOPE   C4B37523  32.221  16.025  14.607  0.1215 -0.1884  0.0850
 3198DOPS   CNO37524  29.192  21.683  13.214  0.0866  0.1518  0.5013
 3198DOPS   PO437525  29.515  21.760  13.384 -0.2308 -0.2599  0.0273
 3198DOPS   GL137526  29.605  21.808  13.776  0.3647  0.2245 -0.2674
 3198DOPS   GL237527  29.814  21.970  13.832  0.1862 -0.1410  0.1195
 3198DOPS   C1A37528  29.370  21.626  14.119 -0.0401 -0.1426 -0.0915
 3198DOPS   D2A37529  29.475  21.571  14.580  0.0247 -0.2572  0.1531
 3198DOPS   C3A37530  29.944  21.668  14.692 -0.1294  0.0068 -0.3448
 3198DOPS   C4A37531  30.303  21.630  14.913 -0.0606 -0.0021 -0.0560
 3198DOPS   C1B37532  30.103  22.273  13.905  0.2325  0.2982  0.3925
 3198DOPS   D2B37533  30.228  22.506  14.283  0.1581 -0.2534 -0.0223
 3198DOPS   C3B37534  30.562  22.216  14.452  0.0571 -0.2497 -0.2874
 3198DOPS   C4B37535  30.820  21.950  14.102  0.0859  0.2873 -0.1149
 3199DOPC   NC337536  27.213  23.133  14.146  0.2415 -0.1372 -0.2334
 3199DOPC   PO437537  27.359  22.958  13.792 -0.0381 -0.0931 -0.2546
 3199DOPC   GL137538  27.073  22.692  13.845  0.5913 -0.1502  0.6735
 3199DOPC   GL237539  27.000  22.644  14.098 -0.1222 -0.1338  0.1460
 3199DOPC   C1A37540  26.942  22.231  13.746  0.1458 -0.1011  0.2644
 3199DOPC   D2A37541  26.791  21.879  14.036 -0.1804  0.0065 -0.2112
 3199DOPC   C3A37542  26.731  22.253  14.312  0.0058  0.2718  0.0811
 3199DOPC   C4A37543  26.809  22.343  14.758  0.0414 -0.0980 -0.2036
 3199DOPC   C1B37544  26.712  22.775  14.478  0.0479 -0.4976  0.0135
 3199DOPC   D2B37545  26.315  22.920  14.626  0.0790  0.0909 -0.1981
 3199DOPC   C3B37546  26.198  23.300  14.869 -0.1020 -0.0251 -0.0457
 3199DOPC   C4B37547  25.916  23.621  14.734  0.1259  0.0057 -0.1154
 3200POSM   NC337548  31.639  18.854  13.146 -0.2271 -0.0566  0.0485
 3200POSM   PO437549  31.615  19.054  13.482 -0.0995 -0.0732  0.0781
 3200POSM   AM137550  31.680  19.082  13.810  0.1164  0.1609 -0.1838
 3200POSM   AM237551  31.902  19.045  13.972  0.3568  0.3490  0.0414
 3200POSM   T1A37552  31.757  19.476  14.185  0.1971  0.0621  0.2676
 3200POSM   C2A37553  31.989  19.852  14.278 -0.3761  0.2813  0.2272
 3200POSM   C3A37554  32.384  19.999  14.487 -0.0102  0.0549 -0.1433
 3200POSM   C1B37555  31.721  19.029  14.286 -0.0705 -0.0771  0.3426
 3200POSM   D2B37556  31.542  19.159  14.689 -0.1671 -0.1595 -0.3503
 3200POSM   C3B37557  31.623  18.865  15.053  0.2675 -0.0464 -0.1427
 3200POSM   C4B37558  31.622  18.946  15.486 -0.2835 -0.0821 -0.1308
 3201DOPC   NC337559  25.686  18.828  13.134  0.1053  0.2098  0.1688
 3201DOPC   PO437560  25.295  18.753  13.267  0.1251  0.1419 -0.0808
 3201DOPC   GL137561  24.992  18.740  13.406 -0.2638  0.1102  0.0514
 3201DOPC   GL237562  24.730  18.487  13.318 -0.3539  0.0650  0.2008
 3201DOPC   C1A37563  24.816  18.741  13.824 -0.0428  0.3101 -0.0761
 3201DOPC   D2A37564  24.476  18.701  14.142  0.1472 -0.4132 -0.2889
 3201DOPC   C3A37565  24.539  18.921  14.576  0.2300  0.2259  0.0175
 3201DOPC   C4A37566  24.695  18.927  14.995 -0.0786  0.1299  0.0516
 3201DOPC   C1B37567  24.621  18.012  13.230  0.1427 -0.0650  0.0942
 3201DOPC   D2B37568  24.267  17.734  13.211 -0.0283 -0.0306 -0.1312
 3201DOPC   C3B37569  23.876  17.869  13.360  0.0448  0.0888  0.0552
 3201DOPC   C4B37570  23.676  17.972  13.763 -0.0031  0.0672  0.0089
 3202POSM   NC337571  27.181  19.427  13.762  0.0958 -0.1851 -0.0899
 3202POSM   PO437572  27.015  19.177  13.985 -0.0896  0.1681 -0.0668
 3202POSM   AM137573  27.186  19.272  14.221 -0.1944  0.1583 -0.4707
 3202POSM   AM237574  27.208  19.566  14.394 -0.2156  0.4642  0.0491
 3202POSM   T1A37575  27.361  19.162  14.662 -0.0565  0.0228 -0.3060
 3202POSM   C2A37576  27.799  19.013  14.800  0.1777 -0.0565 -0.0088
 3202POSM   C3A37577  28.210  19.128  14.818  0.1521 -0.1289  0.1346
 3202POSM   C1B37578  27.596  19.453  14.334 -0.1073 -0.3023 -0.1529
 3202POSM   D2B37579  28.016  19.302  14.428  0.0169  0.1854 -0.0280
 3202POSM   C3B37580  28.410  19.497  14.550 -0.5519 -0.3545  0.2378
 3202POSM   C4B37581  28.562  19.945  14.369  0.1216 -0.0136  0.1336
 3203DOPE   NH337582  26.059  17.751  13.156  0.0446  0.0746 -0.0853
 3203DOPE   PO437583  25.893  17.996  13.212 -0.2514 -0.0061 -0.0263
 3203DOPE   GL137584  25.808  18.029  13.533 -0.0018  0.0994 -0.0842
 3203DOPE   GL237585  25.804  17.740  13.633  0.2013  0.2201 -0.1500
 3203DOPE   C1A37586  25.522  18.003  13.921 -0.0002  0.0808  0.0183
 3203DOPE   D2A37587  25.202  17.977  14.295  0.0872  0.2347 -0.0666
 3203DOPE   C3A37588  24.897  17.772  14.149 -0.1435  0.0301 -0.0291
 3203DOPE   C4A37589  24.528  17.872  14.132 -0.1089  0.0654 -0.0384
 3203DOPE   C1B37590  25.817  17.517  14.039 -0.0272 -0.0899  0.0179
 3203DOPE   D2B37591  25.570  17.462  14.455  0.0767 -0.3334 -0.1044
 3203DOPE   C3B37592  25.649  17.793  14.792  0.4535 -0.0129 -0.1237
 3203DOPE   C4B37593  25.967  18.056  14.766 -0.0521 -0.1190 -0.0753
 3204DOPE   NH337594  31.995  18.764  13.440 -0.1576  0.1746 -0.0020
 3204DOPE   PO437595  32.275  18.657  13.555 -0.1374  0.0603 -0.0867
 3204DOPE   GL137596  32.054  18.507  13.898 -0.2541 -0.1232  0.1852
 3204DOPE   GL237597  32.261  18.636  14.088 -0.1211 -0.1691  0.0323
 3204DOPE   C1A37598  31.844  18.244  14.144 -0.0100  0.1716  0.2481
 3204DOPE   D2A37599  31.634  18.070  14.478  0.1012 -0.3728 -0.2742
 3204DOPE   C3A37600  31.566  17.636  14.551  0.0597 -0.1805  0.0548
 3204DOPE   C4A37601  31.736  17.226  14.655  0.0883  0.0912  0.3039
 3204DOPE   C1B37602  32.442  18.611  14.554  0.2792 -0.2045 -0.2182
 3204DOPE   D2B37603  32.731  18.405  14.886  0.2346  0.0067 -0.0086
 3204DOPE   C3B37604  33.074  18.674  14.915 -0.1376  0.0071 -0.0570
 3204DOPE   C4B37605  32.970  19.089  15.047 -0.0490  0.0440  0.1336
 3205DOPS   CNO37606  29.731  11.459  13.209  0.1380 -0.4770 -0.1799
 3205DOPS   PO437607  29.601  11.228  13.491  0.1689 -0.1427 -0.0025
 3205DOPS   GL137608  29.757  11.420  13.810  0.1943  0.3914 -0.3635
 3205DOPS   GL237609  29.938  11.664  13.884 -0.1817  0.0769  0.0113
 3205DOPS   C1A37610  30.067  11.222  14.152 -0.3595 -0.2502 -0.0417
 3205DOPS   D2A37611  30.315  11.153  14.522 -0.0143 -0.0062 -0.0084
 3205DOPS   C3A37612  30.809  11.063  14.487 -0.1736  0.2768 -0.0790
 3205DOPS   C4A37613  31.239  11.034  14.532 -0.1037 -0.1850  0.0734
 3205DOPS   C1B37614  30.034  11.694  14.337  0.1099 -0.1460 -0.2493
 3205DOPS   D2B37615  29.835  11.411  14.682  0.1822  0.1600 -0.4117
 3205DOPS   C3B37616  29.620  11.460  15.094 -0.0531 -0.1343  0.1501
 3205DOPS   C4B37617  29.479  11.609  15.480 -0.0826  0.1081 -0.0384
 3206DOPE   NH337618  24.690  11.511  13.091 -0.1807 -0.1689 -0.0197
 3206DOPE   PO437619  24.535  11.594  12.758 -0.3627 -0.4301 -0.1256
 3206DOPE   GL137620  24.374  11.846  13.047 -0.0368  0.0242 -0.2981
 3206DOPE   GL237621  24.242  11.975  12.907 -0.1837 -0.2425  0.1500
 3206DOPE   C1A37622  24.442  11.779  13.500 -0.2082  0.1456  0.1111
 3206DOPE   D2A37623  24.298  11.871  13.908 -0.2792 -0.0562 -0.1469
 3206DOPE   C3A37624  24.214  12.123  14.287  0.1203  0.1339 -0.1817
 3206DOPE   C4A37625  23.835  11.989  14.563 -0.3431 -0.5897  0.0570
 3206DOPE   C1B37626  24.114  12.181  13.219  0.2145  0.1161 -0.2093
 3206DOPE   D2B37627  24.084  12.642  13.206 -0.0121  0.2650 -0.2279
 3206DOPE   C3B37628  24.484  12.913  13.152 -0.1194  0.1689 -0.0160
 3206DOPE   C4B37629  24.802  12.890  13.512 -0.1268 -0.0168 -0.0387
 3207DOPE   NH337630  32.817  12.973  13.481  0.2889  0.2920 -0.0381
 3207DOPE   PO437631  32.569  12.841  13.610  0.0022 -0.1897  0.1534
 3207DOPE   GL137632  32.351  12.688  13.904  0.0994 -0.2603  0.5908
 3207DOPE   GL237633  32.132  12.617  13.719 -0.0831 -0.3976  0.0491
 3207DOPE   C1A37634  32.178  12.936  14.248 -0.0273 -0.2930  0.3655
 3207DOPE   D2A37635  32.279  13.217  14.593  0.1273 -0.0882  0.2986
 3207DOPE   C3A37636  32.042  13.364  14.955  0.1486 -0.0787  0.1533
 3207DOPE   C4A37637  32.083  13.473  15.383  0.2470  0.0784 -0.1616
 3207DOPE   C1B37638  31.841  12.540  14.099 -0.1788 -0.1512  0.2543
 3207DOPE   D2B37639  31.753  12.171  14.394  0.0187  0.0638  0.1044
 3207DOPE   C3B37640  31.539  12.143  14.841  0.3316 -0.0783  0.1551
 3207DOPE   C4B37641  31.472  12.393  15.246  0.2388 -0.0811  0.0557
 3208POSM   NC337642  34.538  20.325  13.340 -0.0118  0.2602 -0.1885
 3208POSM   PO437643  34.312  20.106  13.492 -0.2111 -0.0472 -0.1272
 3208POSM   AM137644  34.399  20.250  13.779  0.0379 -0.0385 -0.0397
 3208POSM   AM237645  34.440  20.520  13.850 -0.2285 -0.0225 -0.1045
 3208POSM   T1A37646  34.623  20.237  14.235  0.0753  0.1613 -0.2558
 3208POSM   C2A37647  35.004  20.092  14.555  0.0244  0.1222  0.2525
 3208POSM   C3A37648  35.223  20.216  14.877  0.0403 -0.0306  0.2907
 3208POSM   C1B37649  34.187  20.478  14.154 -0.1191 -0.2527 -0.3439
 3208POSM   D2B37650  33.893  20.681  14.506 -0.1528 -0.2638  0.1945
 3208POSM   C3B37651  34.030  20.968  14.842 -0.0631 -0.0408 -0.0323
 3208POSM   C4B37652  34.228  21.371  14.756 -0.1262 -0.1435 -0.2301
 3209DOPC   NC337653  33.668  20.154  13.618 -0.2112  0.1959  0.0817
 3209DOPC   PO437654  33.873  19.992  13.325 -0.2181  0.1714 -0.1544
 3209DOPC   GL137655  33.772  19.685  13.655  0.1721 -0.0899  0.0500
 3209DOPC   GL237656  33.976  19.800  13.887 -0.0253  0.1021  0.0346
 3209DOPC   C1A37657  33.682  19.422  14.052  0.5685 -0.1162 -0.0074
 3209DOPC   D2A37658  33.301  19.295  14.317  0.0103  0.1027  0.0773
 3209DOPC   C3A37659  33.412  19.313  14.776  0.2852  0.0859 -0.0926
 3209DOPC   C4A37660  33.827  19.419  14.991  0.1659 -0.0293 -0.0447
 3209DOPC   C1B37661  34.039  20.024  14.276  0.1857 -0.2779  0.0573
 3209DOPC   D2B37662  34.214  20.221  14.646  0.1594  0.1987  0.0969
 3209DOPC   C3B37663  34.382  19.936  15.002 -0.2785 -0.0607 -0.2760
 3209DOPC   C4B37664  34.595  19.664  15.350  0.2277 -0.0420 -0.0450
 3210DOPC   NC337665  27.542  12.053  13.593  0.1998 -0.0430  0.0348
 3210DOPC   PO437666  27.231  11.801  13.539  0.0386  0.1500  0.1180
 3210DOPC   GL137667  27.275  11.602  13.940  0.0237 -0.1634  0.0946
 3210DOPC   GL237668  27.450  11.780  14.017  0.1398 -0.0367  0.0776
 3210DOPC   C1A37669  27.172  11.699  14.417 -0.0325  0.1046 -0.1569
 3210DOPC   D2A37670  27.413  11.563  14.774  0.0420 -0.1681 -0.1122
 3210DOPC   C3A37671  27.354  11.622  15.202 -0.1964 -0.2317 -0.1499
 3210DOPC   C4A37672  27.345  11.463  15.627  0.0467 -0.2925  0.1218
 3210DOPC   C1B37673  27.720  11.674  14.422 -0.0737  0.4928 -0.3008
 3210DOPC   D2B37674  27.900  11.539  14.862 -0.3423  0.0353 -0.2283
 3210DOPC   C3B37675  27.623  11.259  15.125 -0.0797 -0.0678  0.0867
 3210DOPC   C4B37676  27.553  10.824  15.152 -0.1572 -0.2084 -0.0656
 3211DOPE   NH337677  26.876  12.062  13.265 -0.0958 -0.1591  0.0336
 3211DOPE   PO437678  26.716  12.276  13.474 -0.1707  0.0312 -0.0986
 3211DOPE   GL137679  26.821  12.604  13.752 -0.0898  0.0962 -0.0560
 3211DOPE   GL237680  26.902  12.890  13.680 -0.2145 -0.0647  0.2435
 3211DOPE   C1A37681  26.894  12.631  14.215 -0.2798 -0.2567 -0.2099
 3211DOPE   D2A37682  27.040  12.200  14.423 -0.2686 -0.0316  0.1532
 3211DOPE   C3A37683  27.191  11.965  14.884 -0.1822 -0.2010  0.2960
 3211DOPE   C4A37684  27.224  12.074  15.332 -0.0842 -0.1751 -0.0988
 3211DOPE   C1B37685  26.907  13.126  14.069  0.1336 -0.1920 -0.1355
 3211DOPE   D2B37686  26.972  13.241  14.522  0.1448 -0.0788 -0.0431
 3211DOPE   C3B37687  27.017  12.776  14.709 -0.0277 -0.1806 -0.0092
 3211DOPE   C4B37688  27.063  12.501  15.083 -0.1345  0.0326 -0.1377
 3212DOPE   NH337689  30.853  14.789  13.738 -0.2456 -0.0343 -0.1797
 3212DOPE   PO437690  30.750  15.001  13.584 -0.2100  0.3434  0.1811
 3212DOPE   GL137691  30.582  15.237  13.931  0.3062 -0.2722 -0.0348
 3212DOPE   GL237692  30.823  15.335  13.997 -0.1598  0.3520  0.0274
 3212DOPE   C1A37693  30.486  15.171  14.375  0.2281 -0.2090 -0.0464
 3212DOPE   D2A37694  30.762  15.144  14.736  0.1876 -0.1360 -0.0169
 3212DOPE   C3A37695  30.586  15.232  15.147  0.0257 -0.2025  0.1499
 3212DOPE   C4A37696  30.211  15.111  15.380  0.0882  0.3178 -0.1951
 3212DOPE   C1B37697  30.919  15.571  14.417 -0.1389 -0.1651  0.0227
 3212DOPE   D2B37698  30.559  15.588  14.737  0.1492  0.0287 -0.1273
 3212DOPE   C3B37699  30.461  15.732  15.136  0.1087  0.1833 -0.0734
 3212DOPE   C4B37700  30.259  15.618  15.516  0.1511  0.0179 -0.1221
 3213POSM   NC337701  28.349  11.472  13.828  0.0736  0.0370 -0.1550
 3213POSM   PO437702  28.321  11.563  13.463 -0.0709  0.1335  0.0884
 3213POSM   AM137703  28.437  11.846  13.519 -0.2924  0.3737 -0.2238
 3213POSM   AM237704  28.434  12.001  13.762 -0.3348 -0.3242  0.2178
 3213POSM   T1A37705  28.589  12.247  13.279  0.1915  0.3410 -0.1136
 3213POSM   C2A37706  28.762  12.652  13.210 -0.2004 -0.1405  0.2332
 3213POSM   C3A37707  29.013  12.892  12.939 -0.3580  0.2827 -0.2086
 3213POSM   C1B37708  28.431  12.367  13.765  0.0943  0.1359 -0.0044
 3213POSM   D2B37709  28.382  12.671  14.099 -0.3435 -0.3897 -0.4494
 3213POSM   C3B37710  28.429  12.806  14.538 -0.2294  0.0650  0.3503
 3213POSM   C4B37711  28.438  12.805  14.990  0.2838 -0.0395 -0.3124
 3214POSM   NC337712  30.105  16.525  13.519  0.0696  0.0788 -0.1411
 3214POSM   PO437713  30.414  16.296  13.622  0.0534 -0.2243  0.0021
 3214POSM   AM137714  30.411  16.351  13.960 -0.1505 -0.0576  0.3473
 3214POSM   AM237715  30.224  16.234  14.198  0.3090  0.0925  0.0066
 3214POSM   T1A37716  30.685  16.414  14.365 -0.3230 -0.3189  0.3184
 3214POSM   C2A37717  31.064  16.482  14.588  0.1080 -0.0563  0.0021
 3214POSM   C3A37718  31.426  16.203  14.695  0.0617 -0.1619 -0.2326
 3214POSM   C1B37719  29.987  16.106  14.140 -0.0611 -0.2469  0.0797
 3214POSM   D2B37720  29.547  15.956  14.033  0.0183  0.1458 -0.1740
 3214POSM   C3B37721  29.216  16.231  14.153  0.1110 -0.2850 -0.2135
 3214POSM   C4B37722  29.325  16.635  13.925 -0.0182  0.2354  0.4531
 3215POSM   NC337723  24.772  22.298  13.330  0.1804  0.0143  0.0358
 3215POSM   PO437724  24.884  21.931  13.281  0.1498  0.1025  0.1148
 3215POSM   AM137725  24.974  21.655  13.424 -0.2502 -0.1143 -0.0013
 3215POSM   AM237726  24.828  21.486  13.611 -0.2843 -0.1451 -0.2283
 3215POSM   T1A37727  25.390  21.409  13.567 -0.3799 -0.3066  0.3188
 3215POSM   C2A37728  25.777  21.494  13.813 -0.3578 -0.0245 -0.1521
 3215POSM   C3A37729  25.978  21.885  13.817  0.1180  0.0413 -0.2462
 3215POSM   C1B37730  24.973  21.208  13.718 -0.1400  0.0192 -0.3573
 3215POSM   D2B37731  24.997  20.792  13.890  0.0212  0.0387 -0.1924
 3215POSM   C3B37732  24.644  20.665  14.211 -0.1439  0.1676 -0.1511
 3215POSM   C4B37733  24.435  20.298  14.417 -0.2709  0.3753  0.0519
 3216POSM   NC337734  33.569  14.343  13.126  0.0389 -0.0105 -0.2421
 3216POSM   PO437735  33.379  14.097  13.382  0.3184  0.0777  0.0845
 3216POSM   AM137736  33.148  14.360  13.391  0.0879 -0.2245 -0.1198
 3216POSM   AM237737  33.143  14.586  13.581 -0.2892 -0.1382 -0.1184
 3216POSM   T1A37738  32.681  14.624  13.313  0.0132  0.2522 -0.0011
 3216POSM   C2A37739  32.314  14.860  13.314 -0.2189  0.2217 -0.0124
 3216POSM   C3A37740  31.862  14.777  13.250  0.0882  0.2497 -0.1333
 3216POSM   C1B37741  32.879  14.661  13.803  0.1125  0.1425 -0.3313
 3216POSM   D2B37742  32.697  14.662  14.249  0.0525  0.0023  0.1617
 3216POSM   C3B37743  32.231  14.614  14.126  0.0761 -0.5200  0.2392
 3216POSM   C4B37744  31.878  14.913  14.079  0.0477  0.1681  0.0906
 3217DOPC   NC337745  26.290  18.295  13.230  0.0953  0.4103 -0.2712
 3217DOPC   PO437746  26.508  17.969  13.284  0.0687  0.0768  0.1988
 3217DOPC   GL137747  26.288  17.867  13.603  0.1888 -0.1843 -0.0396
 3217DOPC   GL237748  26.480  17.716  13.757  0.0161 -0.0873 -0.4598
 3217DOPC   C1A37749  26.120  17.944  14.097  0.1858  0.1607 -0.0367
 3217DOPC   D2A37750  26.018  17.659  14.486 -0.4365 -0.0422  0.3538
 3217DOPC   C3A37751  26.316  17.708  14.872 -0.0243 -0.2916  0.1564
 3217DOPC   C4A37752  26.654  18.006  15.047  0.0005  0.1366  0.2035
 3217DOPC   C1B37753  26.434  17.404  14.048  0.3000  0.0773 -0.1959
 3217DOPC   D2B37754  26.248  16.974  14.111  0.2019  0.1276  0.0680
 3217DOPC   C3B37755  26.549  16.618  13.993  0.1709 -0.0389 -0.0769
 3217DOPC   C4B37756  26.478  16.222  13.830  0.3491 -0.2046  0.0611
 3218DOPC   NC337757  30.655  12.973  13.828  0.2727  0.2946 -0.0271
 3218DOPC   PO437758  30.698  12.597  13.985  0.0152 -0.0275  0.3778
 3218DOPC   GL137759  30.753  12.756  14.283  0.1655  0.0736 -0.2206
 3218DOPC   GL237760  30.988  12.872  14.335 -0.0222 -0.1440 -0.0147
 3218DOPC   C1A37761  30.783  12.536  14.685  0.0643  0.0663 -0.2838
 3218DOPC   D2A37762  31.120  12.533  14.912  0.1831 -0.0991 -0.1646
 3218DOPC   C3A37763  31.155  12.982  14.910 -0.2331 -0.0476 -0.3142
 3218DOPC   C4A37764  31.176  13.285  14.583  0.0501  0.3433  0.1809
 3218DOPC   C1B37765  31.438  12.833  14.413 -0.1888 -0.3088  0.0843
 3218DOPC   D2B37766  31.708  12.640  14.749  0.1924  0.2139 -0.0809
 3218DOPC   C3B37767  31.639  12.900  15.147 -0.1081 -0.0189 -0.0066
 3218DOPC   C4B37768  31.992  12.952  15.435  0.0824 -0.2100 -0.0421
 3219DOPE   NH337769  30.659  19.055  13.363 -0.2455 -0.2103  0.1538
 3219DOPE   PO437770  30.674  19.117  13.667 -0.0284  0.2448 -0.1624
 3219DOPE   GL137771  30.693  18.946  13.989 -0.3273  0.2258  0.3947
 3219DOPE   GL237772  31.038  18.897  13.973  0.3659  0.0025 -0.0838
 3219DOPE   C1A37773  30.737  18.852  14.463  0.4173 -0.4959  0.2689
 3219DOPE   D2A37774  30.461  18.679  14.819 -0.0661  0.0632  0.0563
 3219DOPE   C3A37775  30.538  18.718  15.236 -0.1650  0.0193  0.2697
 3219DOPE   C4A37776  30.686  18.687  15.621 -0.0038 -0.0622  0.0307
 3219DOPE   C1B37777  31.297  19.262  14.133  0.0926  0.0123 -0.2419
 3219DOPE   D2B37778  31.373  19.697  14.376  0.0067 -0.3502 -0.0409
 3219DOPE   C3B37779  31.346  19.689  14.809  0.1639 -0.1097 -0.0611
 3219DOPE   C4B37780  30.973  19.660  15.074  0.0214  0.2106  0.4507
 3220DOPC   NC337781  29.943  18.642  13.659 -0.0011 -0.0285  0.1409
 3220DOPC   PO437782  30.342  18.714  13.679 -0.1502 -0.2526 -0.0015
 3220DOPC   GL137783  30.463  18.583  14.076 -0.1514  0.1269  0.1343
 3220DOPC   GL237784  30.331  18.873  14.221  0.0644 -0.3544  0.1128
 3220DOPC   C1A37785  30.520  18.313  14.451 -0.0944 -0.0664 -0.1099
 3220DOPC   D2A37786  30.715  17.947  14.620  0.0367 -0.2300  0.3199
 3220DOPC   C3A37787  30.857  17.624  14.264 -0.2305  0.0914 -0.1282
 3220DOPC   C4A37788  31.129  17.408  13.992 -0.0930  0.2577  0.2363
 3220DOPC   C1B37789  30.331  19.223  14.565 -0.4398  0.0809 -0.0265
 3220DOPC   D2B37790  30.328  19.652  14.722 -0.0597  0.1728 -0.1899
 3220DOPC   C3B37791  29.884  19.798  14.635 -0.3704 -0.2162 -0.0526
 3220DOPC   C4B37792  29.490  19.538  14.625 -0.2320 -0.1255  0.1473
 3221DOPC   NC337793  33.377  19.367  13.642  0.0237 -0.3737  0.1735
 3221DOPC   PO437794  33.517  19.620  13.305  0.2357 -0.1872  0.0038
 3221DOPC   GL137795  33.322  19.843  13.608 -0.1190  0.3474 -0.1250
 3221DOPC   GL237796  33.469  19.830  13.930  0.2569  0.3214  0.2195
 3221DOPC   C1A37797  32.992  19.620  13.814 -0.1215  0.0222 -0.2693
 3221DOPC   D2A37798  32.756  19.433  14.158  0.1350  0.0803 -0.0546
 3221DOPC   C3A37799  32.815  19.860  14.339  0.2705  0.0071 -0.0898
 3221DOPC   C4A37800  32.906  20.059  14.766 -0.0786  0.3203 -0.0156
 3221DOPC   C1B37801  33.426  19.827  14.323  0.1551  0.1431 -0.0072
 3221DOPC   D2B37802  33.379  19.833  14.805 -0.1064 -0.5099  0.1832
 3221DOPC   C3B37803  33.361  20.141  15.066  0.0433  0.0202  0.1658
 3221DOPC   C4B37804  33.465  20.600  15.184 -0.0818 -0.2366  0.0260
 3222DOPS   CNO37805  32.312  23.863  13.726  0.1772 -0.3391 -0.1083
 3222DOPS   PO437806  32.177  23.525  13.717 -0.2726  0.0530 -0.0572
 3222DOPS   GL137807  32.257  23.344  14.072  0.1802 -0.2777 -0.6094
 3222DOPS   GL237808  32.287  23.060  13.959 -0.0300  0.0016 -0.0471
 3222DOPS   C1A37809  32.139  23.564  14.443 -0.0916  0.0445 -0.2683
 3222DOPS   D2A37810  32.388  23.868  14.729 -0.2041 -0.2683 -0.0224
 3222DOPS   C3A37811  32.502  24.335  14.619  0.3354 -0.1758 -0.2774
 3222DOPS   C4A37812  32.693  24.707  14.582  0.1620 -0.1446  0.0137
 3222DOPS   C1B37813  32.386  23.024  14.423  0.1050  0.3446  0.3029
 3222DOPS   D2B37814  32.285  22.831  14.813 -0.0035  0.0587 -0.0102
 3222DOPS   C3B37815  32.188  22.405  14.951 -0.0370  0.4562 -0.2860
 3222DOPS   C4B37816  31.853  22.120  14.904 -0.0699  0.1123 -0.1657
 3223POSM   NC337817  32.345  17.002  13.104 -0.2122  0.4582 -0.1829
 3223POSM   PO437818  32.453  16.823  13.441 -0.0419  0.1745 -0.0822
 3223POSM   AM137819  32.621  16.762  13.734 -0.2488  0.1388  0.0760
 3223POSM   AM237820  32.923  16.767  13.800 -0.1871  0.4432 -0.0216
 3223POSM   T1A37821  32.625  16.999  14.121  0.0884 -0.0892  0.1368
 3223POSM   C2A37822  32.767  17.432  14.298  0.2060  0.1271 -0.0970
 3223POSM   C3A37823  32.635  17.839  14.573  0.0145 -0.0910  0.0075
 3223POSM   C1B37824  33.088  16.574  14.029  0.2747  0.2555 -0.0925
 3223POSM   D2B37825  33.310  16.464  14.419  0.0612  0.2493 -0.0705
 3223POSM   C3B37826  33.202  16.130  14.751  0.2495  0.0548 -0.0501
 3223POSM   C4B37827  33.361  15.804  15.054  0.3010  0.0380  0.2452
 3224DOPS   CNO37828  30.774  20.345  13.248 -0.0231  0.0790 -0.0652
 3224DOPS   PO437829  30.414  20.446  13.198 -0.1346  0.0735 -0.4469
 3224DOPS   GL137830  30.492  20.869  13.198  0.1110 -0.2971 -0.3717
 3224DOPS   GL237831  30.318  20.888  13.499  0.0618 -0.1831 -0.1555
 3224DOPS   C1A37832  30.803  20.828  13.553  0.2063  0.2510 -0.3305
 3224DOPS   D2A37833  31.046  20.904  13.973  0.0403  0.0818  0.3004
 3224DOPS   C3A37834  31.477  20.730  14.073  0.2226 -0.0488  0.0645
 3224DOPS   C4A37835  31.941  20.886  14.175  0.1273 -0.0379 -0.1604
 3224DOPS   C1B37836  30.295  21.129  13.878  0.1619 -0.1447 -0.0785
 3224DOPS   D2B37837  30.482  21.496  14.121  0.0543  0.1103  0.0903
 3224DOPS   C3B37838  30.708  21.617  14.520 -0.1864  0.1061 -0.0875
 3224DOPS   C4B37839  30.914  21.640  14.968 -0.0189  0.2530  0.0674
 3225POSM   NC337840  25.732  17.117  12.589 -0.1328 -0.2345  0.2012
 3225POSM   PO437841  25.532  17.083  12.933 -0.0680  0.0796 -0.0005
 3225POSM   AM137842  25.373  17.048  13.231  0.0716 -0.2675 -0.0664
 3225POSM   AM237843  25.407  16.962  13.496 -0.2071 -0.1910  0.0127
 3225POSM   T1A37844  24.961  17.189  13.466  0.1499 -0.3446 -0.0180
 3225POSM   C2A37845  24.813  17.076  13.883  0.2829  0.2290  0.1830
 3225POSM   C3A37846  24.544  17.334  14.168 -0.2088 -0.0300 -0.0646
 3225POSM   C1B37847  25.298  16.803  13.788 -0.1443  0.0034  0.1913
 3225POSM   D2B37848  25.300  16.644  14.181 -0.1123  0.1122  0.3961
 3225POSM   C3B37849  25.265  16.684  14.656  0.0057  0.3409 -0.1373
 3225POSM   C4B37850  25.032  16.848  15.037 -0.0373 -0.1262 -0.2411
 3226DOPC   NC337851  26.710  19.977  13.633 -0.2433 -0.5087  0.1052
 3226DOPC   PO437852  26.622  20.125  13.993  0.3434  0.0017  0.0321
 3226DOPC   GL137853  26.638  20.434  14.180 -0.2249 -0.0883 -0.1958
 3226DOPC   GL237854  26.510  20.626  14.060 -0.1652 -0.2143 -0.1554
 3226DOPC   C1A37855  26.967  20.749  14.318  0.3306  0.1588  0.0445
 3226DOPC   D2A37856  27.400  20.576  14.313 -0.1799 -0.0643 -0.2117
 3226DOPC   C3A37857  27.729  20.241  14.187  0.0284  0.0069 -0.1535
 3226DOPC   C4A37858  28.222  20.331  14.140 -0.0482  0.2567  0.1184
 3226DOPC   C1B37859  26.052  20.554  14.172 -0.0702  0.2551  0.1193
 3226DOPC   D2B37860  25.807  20.525  14.583  0.0036 -0.0472  0.0890
 3226DOPC   C3B37861  26.109  20.382  14.838  0.3332  0.2841 -0.2296
 3226DOPC   C4B37862  26.054  20.334  15.282  0.1533  0.0199  0.3641
 3227DOPC   NC337863  31.703  17.285  14.120 -0.1448 -0.0492 -0.2038
 3227DOPC   PO437864  31.789  16.955  13.934 -0.3041  0.1135  0.2822
 3227DOPC   GL137865  31.590  16.705  14.136 -0.3978 -0.1879 -0.0565
 3227DOPC   GL237866  31.362  16.444  14.152  0.0109  0.2327  0.3191
 3227DOPC   C1A37867  31.510  16.716  14.571 -0.0875  0.3880  0.1405
 3227DOPC   D2A37868  31.455  16.571  14.998 -0.2431 -0.2077 -0.0293
 3227DOPC   C3A37869  31.135  16.338  15.145  0.0135 -0.0212 -0.1414
 3227DOPC   C4A37870  30.838  15.981  15.300 -0.3730 -0.1481  0.1845
 3227DOPC   C1B37871  31.199  16.021  14.303 -0.2165 -0.3348  0.2297
 3227DOPC   D2B37872  31.337  15.632  14.137 -0.0024  0.2033 -0.0691
 3227DOPC   C3B37873  31.747  15.595  13.971 -0.0537  0.1476 -0.2757
 3227DOPC   C4B37874  32.054  15.555  13.669 -0.1696  0.0627  0.0260
 3228DOPC   NC337875  25.574  11.663  13.409  0.1722 -0.3924  0.1255
 3228DOPC   PO437876  25.249  11.807  13.217  0.2945 -0.1515  0.0727
 3228DOPC   GL137877  25.340  12.105  13.407  0.2676  0.2034  0.3001
 3228DOPC   GL237878  25.224  12.384  13.326  0.0666  0.2114  0.1631
 3228DOPC   C1A37879  25.009  12.174  13.744  0.1102 -0.0979  0.3508
 3228DOPC   D2A37880  24.582  12.239  13.917 -0.2826 -0.0990 -0.0300
 3228DOPC   C3A37881  24.164  12.315  13.812 -0.0196  0.2196  0.0132
 3228DOPC   C4A37882  23.751  12.410  13.645  0.2271 -0.1562 -0.1676
 3228DOPC   C1B37883  25.175  12.647  13.710  0.6520 -0.0845  0.2443
 3228DOPC   D2B37884  25.164  13.045  13.935  0.2321 -0.0147  0.1386
 3228DOPC   C3B37885  25.563  13.059  14.125  0.0997 -0.0063  0.0697
 3228DOPC   C4B37886  25.991  12.916  14.199  0.1739  0.1522 -0.0408
 3229POSM   NC337887  32.570  22.429  13.461  0.0001  0.1121  0.1319
 3229POSM   PO437888  32.658  22.765  13.718  0.1484  0.2127  0.0348
 3229POSM   AM137889  32.443  22.597  13.920  0.5082  0.0275  0.1072
 3229POSM   AM237890  32.220  22.385  13.860  0.0049 -0.2577 -0.3357
 3229POSM   T1A37891  32.252  22.547  14.375  0.0542 -0.1262 -0.0047
 3229POSM   C2A37892  32.076  22.146  14.483 -0.1431  0.0253 -0.0471
 3229POSM   C3A37893  31.806  21.803  14.432  0.0324  0.4754  0.2029
 3229POSM   C1B37894  31.941  22.270  14.059  0.0535  0.0626  0.0728
 3229POSM   D2B37895  31.500  22.065  14.138  0.0575 -0.0381  0.0366
 3229POSM   C3B37896  31.329  21.845  13.823  0.4000 -0.2023 -0.0742
 3229POSM   C4B37897  31.291  21.418  13.586 -0.1739 -0.1541  0.0465
 3230POSM   NC337898  25.120  15.493  12.179  0.2381  0.0272 -0.0228
 3230POSM   PO437899  25.408  15.315  12.433  0.0972  0.1545  0.0440
 3230POSM   AM137900  25.477  15.064  12.631  0.0914  0.1211 -0.0392
 3230POSM   AM237901  25.666  15.077  12.876 -0.3033  0.1909  0.1385
 3230POSM   T1A37902  25.238  14.669  12.811  0.1730 -0.0198 -0.1223
 3230POSM   C2A37903  25.064  14.308  12.564 -0.1477 -0.3181  0.1406
 3230POSM   C3A37904  24.788  13.898  12.559 -0.1386  0.2052 -0.0692
 3230POSM   C1B37905  25.735  14.750  12.981 -0.1883  0.1381  0.0457
 3230POSM   D2B37906  25.859  14.352  13.161  0.0493  0.1474  0.0583
 3230POSM   C3B37907  26.242  14.084  12.986  0.0215 -0.1113  0.0636
 3230POSM   C4B37908  26.254  14.016  12.554  0.0906  0.1383 -0.1291
 3231DOPE   NH337909  28.769  14.908  13.085 -0.1158  0.1240 -0.0534
 3231DOPE   PO437910  28.868  15.212  13.094 -0.2230 -0.1461 -0.1392
 3231DOPE   GL137911  28.609  15.534  13.081  0.1448 -0.0139  0.2134
 3231DOPE   GL237912  28.455  15.609  13.321  0.0267  0.5383  0.2277
 3231DOPE   C1A37913  28.653  16.023  13.108  0.0725  0.1375 -0.1434
 3231DOPE   D2A37914  28.570  16.293  13.481 -0.2509 -0.0404 -0.2336
 3231DOPE   C3A37915  28.604  16.701  13.270  0.0246 -0.1788  0.0742
 3231DOPE   C4A37916  28.503  17.123  13.503 -0.0358 -0.1120 -0.1694
 3231DOPE   C1B37917  28.428  15.585  13.799 -0.1271  0.0382  0.0479
 3231DOPE   D2B37918  28.592  15.760  14.205 -0.0231  0.0322 -0.1997
 3231DOPE   C3B37919  28.755  16.146  14.317  0.1002  0.0130 -0.1409
 3231DOPE   C4B37920  28.719  16.405  14.680  0.1589  0.1585 -0.2086
 3232DOPS   CNO37921  34.075  14.268  13.082 -0.0752  0.1021  0.0090
 3232DOPS   PO437922  34.037  14.603  13.238 -0.2110 -0.1153  0.2545
 3232DOPS   GL137923  33.739  14.820  13.409 -0.4147 -0.1892  0.0996
 3232DOPS   GL237924  33.539  14.834  13.334 -0.1260  0.0889 -0.0788
 3232DOPS   C1A37925  33.876  15.268  13.514 -0.1668  0.2545 -0.1314
 3232DOPS   D2A37926  33.564  15.619  13.642  0.0918 -0.0277 -0.1130
 3232DOPS   C3A37927  33.483  15.881  13.949  0.2334  0.1214 -0.0827
 3232DOPS   C4A37928  33.455  15.855  14.447 -0.2111 -0.2043  0.1716
 3232DOPS   C1B37929  33.428  15.287  13.286  0.2155  0.0901  0.0285
 3232DOPS   D2B37930  33.251  15.725  13.302 -0.1182 -0.0353  0.0067
 3232DOPS   C3B37931  33.037  15.760  13.726 -0.2539 -0.1317  0.0345
 3232DOPS   C4B37932  33.006  15.986  14.100  0.1423 -0.3555 -0.0658
 3233DOPE   NH337933   0.184  21.699  13.621 -0.0724  0.1035 -0.1336
 3233DOPE   PO437934  -0.005  21.909  13.535  0.2763  0.1989 -0.0300
 3233DOPE   GL137935   0.348  22.169  13.525 -0.0217  0.2252 -0.0545
 3233DOPE   GL237936   0.616  22.074  13.309 -0.1288  0.1314 -0.0742
 3233DOPE   C1A37937   0.539  22.298  13.935  0.1318  0.2018 -0.0572
 3233DOPE   D2A37938   0.900  22.482  14.124 -0.1224 -0.4085 -0.2409
 3233DOPE   C3A37939   1.092  22.442  14.526  0.2619 -0.0933  0.0176
 3233DOPE   C4A37940   1.095  22.160  14.956  0.1249 -0.1139 -0.1275
 3233DOPE   C1B37941   0.724  21.879  13.695  0.1790 -0.1447  0.2300
 3233DOPE   D2B37942   0.411  21.694  14.076 -0.1064  0.1557 -0.0714
 3233DOPE   C3B37943   0.551  21.650  14.504 -0.0012 -0.1047  0.0431
 3233DOPE   C4B37944   0.727  21.850  14.884  0.0322  0.2045 -0.2698
 3234DOPC   NC337945  25.675  15.615  12.740  0.2820  0.1285  0.0147
 3234DOPC   PO437946  25.310  15.776  12.590  0.0209  0.2741  0.1109
 3234DOPC   GL137947  24.958  16.075  12.522  0.2400  0.0316 -0.1325
 3234DOPC   GL237948  24.810  15.873  12.321  0.1854  0.2550 -0.0185
 3234DOPC   C1A37949  24.785  16.398  12.250 -0.0117 -0.1453 -0.0635
 3234DOPC   D2A37950  24.371  16.498  12.134 -0.1942 -0.0961  0.2201
 3234DOPC   C3A37951  23.965  16.797  12.128  0.0026 -0.2399 -0.3489
 3234DOPC   C4A37952  23.896  17.238  12.177 -0.1517 -0.1137  0.4369
 3234DOPC   C1B37953  24.380  15.876  12.425  0.1231 -0.1326 -0.0323
 3234DOPC   D2B37954  23.958  16.102  12.395  0.0223 -0.0878 -0.1702
 3234DOPC   C3B37955  24.176  16.503  12.634 -0.2001 -0.0449  0.0823
 3234DOPC   C4B37956  24.287  16.920  12.952  0.0103  0.3901 -0.0124
 3235DOPC   NC337957  27.739  14.428  12.709  0.0490 -0.2753 -0.1749
 3235DOPC   PO437958  27.421  14.704  12.733  0.1671  0.0376  0.0999
 3235DOPC   GL137959  27.282  14.564  13.072  0.0180  0.1287  0.1748
 3235DOPC   GL237960  27.447  14.361  13.243  0.0129 -0.1148  0.1295
 3235DOPC   C1A37961  26.936  14.405  13.343 -0.2145  0.0793  0.3620
 3235DOPC   D2A37962  26.515  14.343  13.552  0.0726 -0.0633 -0.4145
 3235DOPC   C3A37963  26.201  14.622  13.745 -0.0348 -0.1023 -0.1377
 3235DOPC   C4A37964  25.825  14.874  13.625  0.1740  0.0925 -0.0825
 3235DOPC   C1B37965  27.316  14.597  13.642  0.1732 -0.1481 -0.3038
 3235DOPC   D2B37966  27.368  14.911  14.002 -0.3415  0.3823  0.0026
 3235DOPC   C3B37967  27.537  14.790  14.434  0.0370 -0.0273  0.0742
 3235DOPC   C4B37968  27.868  14.481  14.457 -0.2619  0.1281  0.1340
 3236POSM   NC337969  32.933  17.037  13.285  0.0400  0.2432  0.0939
 3236POSM   PO437970  32.736  17.257  13.526  0.2875 -0.4613 -0.1586
 3236POSM   AM137971  32.947  17.246  13.800  0.0783 -0.3197 -0.1263
 3236POSM   AM237972  33.091  17.470  13.946  0.2776  0.0849  0.0400
 3236POSM   T1A37973  33.163  17.050  14.263 -0.0497 -0.1793 -0.0772
 3236POSM   C2A37974  33.534  16.985  14.560  0.3586  0.0294 -0.2908
 3236POSM   C3A37975  33.626  16.615  14.732  0.0294 -0.0727 -0.1209
 3236POSM   C1B37976  33.236  17.580  14.213 -0.1672 -0.1097 -0.0814
 3236POSM   D2B37977  33.431  17.624  14.581  0.1009  0.0742  0.0374
 3236POSM   C3B37978  33.596  17.354  14.871 -0.0380 -0.1116 -0.0971
 3236POSM   C4B37979  33.979  17.140  15.028 -0.0898 -0.1266 -0.2231
 3237POSM   NC337980  24.678  21.805  12.772 -0.0818 -0.0672  0.1931
 3237POSM   PO437981  24.421  21.472  12.705 -0.0229  0.1199 -0.0975
 3237POSM   AM137982  24.285  21.216  12.884  0.1510 -0.4320  0.1144
 3237POSM   AM237983  24.170  21.101  13.095  0.1767 -0.0609  0.1005
 3237POSM   T1A37984  24.230  20.705  12.803 -0.1533  0.1996  0.2613
 3237POSM   C2A37985  24.132  20.221  12.955 -0.2019 -0.0054  0.0209
 3237POSM   C3A37986  24.052  19.839  13.162  0.0538 -0.0243 -0.2288
 3237POSM   C1B37987  24.119  21.155  13.452  0.1364 -0.4000  0.0268
 3237POSM   D2B37988  24.368  21.308  13.734  0.3392  0.0210  0.0081
 3237POSM   C3B37989  24.631  21.167  14.172  0.1206 -0.0432  0.1880
 3237POSM   C4B37990  24.981  20.987  14.376  0.0960  0.1027 -0.1273
 3238DOPS   CNO37991  30.292  14.598  14.013  0.0437  0.2086 -0.1575
 3238DOPS   PO437992  30.424  14.343  13.772  0.0277 -0.1483 -0.0738
 3238DOPS   GL137993  30.753  14.255  13.981 -0.0923 -0.1985  0.0228
 3238DOPS   GL237994  30.620  14.240  14.230  0.0932  0.2812 -0.2296
 3238DOPS   C1A37995  31.008  14.554  14.231  0.1029  0.2004 -0.1807
 3238DOPS   D2A37996  31.093  14.773  14.672  0.1661  0.0250 -0.2512
 3238DOPS   C3A37997  30.806  14.687  14.990  0.2917  0.2014  0.2109
 3238DOPS   C4A37998  30.298  14.725  15.079  0.0859 -0.1195  0.2180
 3238DOPS   C1B37999  30.459  13.902  14.530  0.0506 -0.0457  0.0033
 3238DOPS   D2B38000  30.619  13.524  14.830  0.0989  0.1560  0.2497
 3238DOPS   C3B38001  31.081  13.473  14.995  0.0964 -0.0399  0.1004
 3238DOPS   C4B38002  31.488  13.626  14.827 -0.2447  0.5686  0.0009
 3239POSM   NC338003  26.778  11.737  13.737  0.1745  0.0005  0.2314
 3239POSM   PO438004  26.456  11.871  13.607  0.2578  0.2178  0.1363
 3239POSM   AM138005  26.196  11.969  13.723 -0.1500 -0.1689  0.0219
 3239POSM   AM238006  25.911  11.924  13.673  0.0617 -0.1235  0.0387
 3239POSM   T1A38007  25.985  12.365  14.005  0.1706 -0.0402 -0.1188
 3239POSM   C2A38008  25.536  12.527  14.039  0.1954  0.3942  0.1312
 3239POSM   C3A38009  25.094  12.406  14.236 -0.0283 -0.0746 -0.0270
 3239POSM   C1B38010  25.576  12.007  13.800 -0.0855 -0.0516 -0.0748
 3239POSM   D2B38011  25.229  11.943  14.099 -0.0252 -0.0203 -0.1846
 3239POSM   C3B38012  25.243  11.485  14.203  0.0165 -0.0402  0.0781
 3239POSM   C4B38013  25.008  11.136  13.981 -0.2976  0.2955  0.0812
 3240DOPE   NH338014  29.322  21.262  13.526  0.3576  0.2647 -0.0550
 3240DOPE   PO438015  29.176  20.955  13.537  0.1458 -0.0725  0.0180
 3240DOPE   GL138016  28.876  20.832  13.753  0.5045  0.1564  0.1526
 3240DOPE   GL238017  28.724  20.729  13.519  0.0673  0.1017  0.1264
 3240DOPE   C1A38018  28.713  20.494  13.955 -0.1823 -0.1859 -0.0780
 3240DOPE   D2A38019  28.636  20.447  14.468 -0.1289  0.2560  0.1623
 3240DOPE   C3A38020  28.862  20.077  14.738 -0.1127  0.2480  0.0842
 3240DOPE   C4A38021  28.960  19.699  15.033  0.0700 -0.2593 -0.0776
 3240DOPE   C1B38022  28.310  20.718  13.752  0.0560 -0.0331 -0.0453
 3240DOPE   D2B38023  27.862  20.739  13.928  0.1248 -0.0545 -0.0654
 3240DOPE   C3B38024  27.896  20.725  14.406  0.1800  0.1878 -0.0930
 3240DOPE   C4B38025  28.298  20.761  14.693  0.2865 -0.0801 -0.1947
 3241DOPE   NH338026  25.349  12.145  12.864 -0.1270  0.2625 -0.0338
 3241DOPE   PO438027  25.552  12.409  12.842  0.0001  0.0109  0.0841
 3241DOPE   GL138028  25.523  12.722  12.990  0.0942 -0.1296 -0.2096
 3241DOPE   GL238029  25.425  12.849  13.263 -0.3309 -0.1035  0.1639
 3241DOPE   C1A38030  25.116  12.992  12.917 -0.1227  0.1155  0.2366
 3241DOPE   D2A38031  25.063  13.446  12.758 -0.3338 -0.3538  0.0051
 3241DOPE   C3A38032  25.329  13.638  13.106 -0.0791 -0.4981  0.0023
 3241DOPE   C4A38033  25.702  13.872  13.119  0.1609 -0.1307  0.2008
 3241DOPE   C1B38034  25.160  13.183  13.363  0.0698 -0.0132  0.5285
 3241DOPE   D2B38035  24.737  13.402  13.270 -0.1390 -0.0036 -0.2148
 3241DOPE   C3B38036  24.495  13.323  13.635  0.0822  0.0774 -0.0366
 3241DOPE   C4B38037  24.370  13.195  14.084  0.0870  0.0019 -0.2477
 3242DOPE   NH338038  25.782  12.152  13.193  0.0046 -0.1664  0.1763
 3242DOPE   PO438039  25.697  12.445  13.334 -0.1102 -0.0298 -0.0908
 3242DOPE   GL138040  25.657  12.685  13.647 -0.3935  0.1978  0.2700
 3242DOPE   GL238041  25.956  12.692  13.671 -0.1199 -0.0785  0.2699
 3242DOPE   C1A38042  25.577  13.134  13.637  0.0001 -0.2879  0.2983
 3242DOPE   D2A38043  25.712  13.576  13.458  0.4133 -0.1659 -0.0519
 3242DOPE   C3A38044  25.722  13.354  13.040  0.0707 -0.1652  0.0583
 3242DOPE   C4A38045  25.809  13.150  12.658 -0.1364  0.3112  0.2972
 3242DOPE   C1B38046  26.050  13.083  13.721 -0.0849  0.0648 -0.0658
 3242DOPE   D2B38047  25.890  13.435  13.994  0.1280  0.4035  0.0564
 3242DOPE   C3B38048  25.446  13.517  13.997  0.0857  0.0689  0.2780
 3242DOPE   C4B38049  24.995  13.556  13.901 -0.0905 -0.0621 -0.1886
 3243DOPS   CNO38050  27.026  12.145  13.899 -0.2312  0.2131  0.1861
 3243DOPS   PO438051  27.197  12.362  13.620  0.0100  0.0932 -0.3537
 3243DOPS   GL138052  27.265  12.563  13.959  0.0171 -0.6170 -0.2973
 3243DOPS   GL238053  27.454  12.287  14.076 -0.1349  0.3675 -0.1255
 3243DOPS   C1A38054  27.320  12.850  14.321 -0.2779 -0.1673 -0.1088
 3243DOPS   D2A38055  27.563  13.115  14.568  0.2633  0.1234 -0.0533
 3243DOPS   C3A38056  27.966  12.907  14.800 -0.0823  0.0431 -0.0771
 3243DOPS   C4A38057  27.925  12.422  15.023  0.4078 -0.1327  0.0755
 3243DOPS   C1B38058  27.550  12.097  14.497 -0.3659  0.1875 -0.0275
 3243DOPS   D2B38059  27.970  12.050  14.703  0.0093  0.1256 -0.0458
 3243DOPS   C3B38060  28.210  11.857  15.077 -0.2655  0.2487  0.0092
 3243DOPS   C4B38061  28.661  11.812  15.180 -0.2224 -0.1063 -0.0696
 3244POSM   NC338062  30.293  13.804  13.866  0.1330 -0.1391  0.0620
 3244POSM   PO438063  30.064  14.006  13.630 -0.2778  0.1790 -0.0942
 3244POSM   AM138064  30.046  14.209  13.898 -0.0374  0.3789 -0.0259
 3244POSM   AM238065  29.821  14.417  13.993  0.2930  0.0035 -0.1058
 3244POSM   T1A38066  30.073  14.267  14.429  0.1156  0.1463  0.0788
 3244POSM   C2A38067  30.362  14.312  14.827  0.0392  0.1907 -0.2120
 3244POSM   C3A38068  30.424  14.262  15.285  0.0692  0.0459 -0.2334
 3244POSM   C1B38069  29.655  14.654  14.205 -0.1243  0.1167  0.1052
 3244POSM   D2B38070  29.534  15.028  14.426  0.2571 -0.2075  0.1595
 3244POSM   C3B38071  29.159  15.295  14.275  0.3184  0.0229  0.2175
 3244POSM   C4B38072  28.741  15.288  14.054 -0.0063  0.1654 -0.1669
 3245POSM   NC338073  31.645  16.536  13.724  0.0183 -0.0412  0.2154
 3245POSM   PO438074  31.932  16.611  13.431 -0.1648  0.3860 -0.2256
 3245POSM   AM138075  32.106  16.407  13.623  0.0379 -0.1165  0.1634
 3245POSM   AM238076  32.204  16.541  13.846  0.4823 -0.2757  0.1298
 3245POSM   T1A38077  32.328  16.039  13.824 -0.0495  0.0499 -0.0736
 3245POSM   C2A38078  32.198  15.755  14.174 -0.1857 -0.3951  0.0011
 3245POSM   C3A38079  32.282  15.303  14.171 -0.1296 -0.1901  0.1079
 3245POSM   C1B38080  32.309  16.572  14.149 -0.3320 -0.0751  0.3181
 3245POSM   D2B38081  32.461  16.686  14.600 -0.3705  0.0420 -0.2507
 3245POSM   C3B38082  32.736  17.015  14.587  0.0480 -0.1173 -0.1394
 3245POSM   C4B38083  33.064  17.057  14.810 -0.1408 -0.0994  0.1256
 3246DOPE   NH338084  30.213  14.404  13.274  0.4293 -0.2274 -0.1477
 3246DOPE   PO438085  30.467  14.665  13.364 -0.0430  0.1663 -0.0939
 3246DOPE   GL138086  30.746  14.323  13.331  0.1710  0.0782 -0.4621
 3246DOPE   GL238087  30.824  14.185  13.084  0.0100  0.0860 -0.3632
 3246DOPE   C1A38088  31.168  14.311  13.577  0.0862 -0.2259 -0.2576
 3246DOPE   D2A38089  31.244  14.216  13.987 -0.0968  0.1529  0.1867
 3246DOPE   C3A38090  31.562  14.507  14.131 -0.0077 -0.0232 -0.1087
 3246DOPE   C4A38091  31.551  14.843  14.455  0.1106  0.0773  0.1815
 3246DOPE   C1B38092  31.153  14.532  13.106 -0.1112  0.1804  0.2922
 3246DOPE   D2B38093  31.217  14.911  13.320  0.0067 -0.1229 -0.0566
 3246DOPE   C3B38094  31.476  14.758  13.657  0.0713 -0.0807  0.1550
 3246DOPE   C4B38095  31.876  14.512  13.704  0.1719 -0.3895  0.0470
 3247DOPS   CNO38096  24.664  22.877  12.839 -0.1623  0.0362 -0.1310
 3247DOPS   PO438097  24.804  22.930  13.176 -0.3120  0.0543 -0.0032
 3247DOPS   GL138098  24.973  22.924  13.507  0.0691 -0.2630 -0.1557
 3247DOPS   GL238099  25.096  22.657  13.566  0.2042  0.2046 -0.1086
 3247DOPS   C1A38100  24.918  23.329  13.760 -0.2588 -0.2117  0.1526
 3247DOPS   D2A38101  24.770  23.645  14.040  0.2454 -0.0604  0.0501
 3247DOPS   C3A38102  24.401  23.759  14.321 -0.1160 -0.0770  0.0546
 3247DOPS   C4A38103  24.251  23.659  14.754  0.3251  0.1599  0.2362
 3247DOPS   C1B38104  24.835  22.372  13.893 -0.0108 -0.0320  0.0781
 3247DOPS   D2B38105  24.727  22.121  14.191  0.1502 -0.0023  0.2413
 3247DOPS   C3B38106  24.958  21.896  14.489  0.1436 -0.1702 -0.1015
 3247DOPS   C4B38107  25.254  21.804  14.800 -0.0510 -0.2450 -0.0906
 3248DOPE   NH338108  30.004  20.201  13.342  0.2835  0.3679  0.0206
 3248DOPE   PO438109  30.052  20.035  13.637  0.6021 -0.3571  0.2649
 3248DOPE   GL138110  30.100  20.201  14.024 -0.0439  0.0230  0.0487
 3248DOPE   GL238111  29.849  20.085  14.112 -0.1389  0.0342  0.1146
 3248DOPE   C1A38112  30.521  20.322  14.187 -0.0201 -0.1206  0.1996
 3248DOPE   D2A38113  30.583  20.777  14.090 -0.2506  0.1257 -0.0479
 3248DOPE   C3A38114  30.695  21.103  14.390 -0.0112 -0.2114  0.0311
 3248DOPE   C4A38115  31.059  21.225  14.580  0.2366 -0.2449  0.2553
 3248DOPE   C1B38116  29.423  19.941  14.250  0.0565  0.1493  0.0244
 3248DOPE   D2B38117  29.014  19.727  14.270 -0.0101 -0.0082  0.0836
 3248DOPE   C3B38118  28.975  19.327  14.587 -0.1680 -0.4077 -0.4092
 3248DOPE   C4B38119  29.258  19.009  14.822  0.2432  0.1041 -0.0477
 3249POSM   NC338120  22.397  13.507  12.951 -0.0604  0.0535 -0.1420
 3249POSM   PO438121  22.577  13.159  12.808 -0.0241 -0.1352 -0.0560
 3249POSM   AM138122  22.730  13.100  13.070 -0.0601 -0.3772 -0.1863
 3249POSM   AM238123  22.634  12.881  13.299 -0.2946  0.0768 -0.0924
 3249POSM   T1A38124  23.068  13.052  13.452  0.0984  0.1716  0.2987
 3249POSM   C2A38125  23.382  13.098  13.804  0.2844 -0.1797  0.1439
 3249POSM   C3A38126  23.326  13.374  14.176  0.0836 -0.2442 -0.2020
 3249POSM   C1B38127  22.348  12.827  13.306 -0.0550 -0.3553 -0.0124
 3249POSM   D2B38128  21.895  12.913  13.138 -0.2043 -0.1571 -0.2389
 3249POSM   C3B38129  21.524  13.146  13.402  0.0276 -0.1122  0.1955
 3249POSM   C4B38130  21.168  13.206  13.739  0.2738  0.3032 -0.2878
 3250POSM   NC338131  24.037  22.407  13.494 -0.0542 -0.2511 -0.4064
 3250POSM   PO438132  24.308  22.635  13.270 -0.0256  0.1029  0.0181
 3250POSM   AM138133  24.407  22.654  13.561 -0.3489 -0.4543 -0.2807
 3250POSM   AM238134  24.543  22.786  13.783 -0.3927 -0.2603  0.0267
 3250POSM   T1A38135  24.314  22.426  13.980  0.2906  0.0661 -0.1551
 3250POSM   C2A38136  24.252  22.111  14.249 -0.0719  0.0620  0.1217
 3250POSM   C3A38137  24.465  21.809  14.554 -0.2788 -0.4432 -0.1773
 3250POSM   C1B38138  24.463  23.152  13.677  0.1432  0.0363 -0.0638
 3250POSM   D2B38139  24.320  23.568  13.717 -0.3125  0.1283  0.1472
 3250POSM   C3B38140  24.462  23.987  13.862 -0.1454 -0.0556 -0.0105
 3250POSM   C4B38141  24.435  24.388  14.150  0.0073 -0.4440  0.1000
 3251DOPC   NC338142  26.769  19.635  14.067  0.1962 -0.0541 -0.0264
 3251DOPC   PO438143  26.653  19.448  13.745  0.1176 -0.3583  0.0607
 3251DOPC   GL138144  26.378  19.348  14.015 -0.2896 -0.0602 -0.0164
 3251DOPC   GL238145  26.497  19.274  14.271 -0.0189 -0.0760  0.0379
 3251DOPC   C1A38146  25.975  19.522  14.233  0.0932 -0.0096 -0.0143
 3251DOPC   D2A38147  25.990  19.697  14.659 -0.2375 -0.3058  0.1675
 3251DOPC   C3A38148  26.034  19.468  15.049  0.0198 -0.1626  0.0782
 3251DOPC   C4A38149  25.994  19.072  15.285  0.0504 -0.1202  0.0200
 3251DOPC   C1B38150  26.428  19.723  14.403 -0.3193 -0.2523  0.1088
 3251DOPC   D2B38151  26.359  20.175  14.457 -0.0691  0.1372  0.2483
 3251DOPC   C3B38152  26.605  20.230  14.808  0.1615  0.0103  0.3246
 3251DOPC   C4B38153  27.063  20.338  14.881 -0.5546  0.2171 -0.1392
 3252POSM   NC338154  23.540  18.170  12.424 -0.3404 -0.0765  0.3964
 3252POSM   PO438155  23.780  18.322  12.728 -0.1988  0.0696 -0.2062
 3252POSM   AM138156  23.647  18.381  13.022  0.0765  0.1943  0.0033
 3252POSM   AM238157  23.555  18.618  13.133 -0.1885 -0.0876 -0.1868
 3252POSM   T1A38158  23.765  18.423  13.521 -0.0029 -0.0325 -0.0471
 3252POSM   C2A38159  23.802  18.513  14.033 -0.0952  0.1605  0.1833
 3252POSM   C3A38160  23.533  18.729  14.343 -0.0059 -0.2444 -0.1234
 3252POSM   C1B38161  23.242  18.551  13.258 -0.0962  0.0866  0.2839
 3252POSM   D2B38162  22.771  18.535  13.386 -0.2510 -0.0490 -0.0994
 3252POSM   C3B38163  22.314  18.664  13.212  0.0314 -0.0578 -0.1307
 3252POSM   C4B38164  22.031  18.944  13.355  0.1181 -0.0524  0.0264
 3253DOPE   NH338165  28.237  14.667  13.129  0.1189  0.2435 -0.2393
 3253DOPE   PO438166  28.201  14.390  12.965 -0.0019  0.0434 -0.0629
 3253DOPE   GL138167  27.920  14.238  13.111 -0.1802 -0.1123  0.1842
 3253DOPE   GL238168  27.925  14.284  13.374  0.3514  0.2016 -0.1924
 3253DOPE   C1A38169  27.665  13.896  13.014 -0.4468 -0.1528 -0.0344
 3253DOPE   D2A38170  27.530  13.426  12.976  0.1313  0.1199 -0.2245
 3253DOPE   C3A38171  27.909  13.118  13.000  0.2341 -0.2610  0.2498
 3253DOPE   C4A38172  28.353  13.073  13.056 -0.1240  0.3630  0.5516
 3253DOPE   C1B38173  27.767  14.369  13.782  0.1273  0.2120 -0.0094
 3253DOPE   D2B38174  27.463  14.405  14.127  0.0250 -0.2457  0.1821
 3253DOPE   C3B38175  27.084  14.331  14.422 -0.1315  0.2609 -0.0626
 3253DOPE   C4B38176  26.650  14.213  14.570 -0.3999  0.1333 -0.1570
 3254DOPS   CNO38177  26.005  17.236  13.061 -0.3187  0.0150 -0.0768
 3254DOPS   PO438178  25.806  17.200  13.421  0.1653  0.0681  0.1220
 3254DOPS   GL138179  25.798  16.849  13.683 -0.3555 -0.0523 -0.2743
 3254DOPS   GL238180  25.713  17.024  13.939  0.2095 -0.2117 -0.1133
 3254DOPS   C1A38181  25.990  16.538  14.000  0.0247 -0.0348  0.5546
 3254DOPS   D2A38182  26.225  16.243  14.244  0.0132  0.2894 -0.1740
 3254DOPS   C3A38183  26.121  16.011  14.648 -0.2709 -0.3395  0.3200
 3254DOPS   C4A38184  26.052  15.569  14.793  0.0813  0.0266  0.1614
 3254DOPS   C1B38185  25.692  16.939  14.359  0.1736  0.0386 -0.1647
 3254DOPS   D2B38186  25.656  16.896  14.845  0.1798 -0.1353  0.1922
 3254DOPS   C3B38187  25.401  17.142  15.199 -0.1346  0.2441  0.0090
 3254DOPS   C4B38188  24.993  17.319  15.360  0.0755 -0.0906 -0.0691
 3255DOPC   NC338189  26.118  18.321  13.691  0.2287 -0.0630 -0.3555
 3255DOPC   PO438190  25.863  18.469  13.404 -0.0880 -0.0738  0.1727
 3255DOPC   GL138191  25.632  18.560  13.589  0.0529 -0.1470  0.0655
 3255DOPC   GL238192  25.646  18.828  13.702 -0.0918 -0.1275  0.1454
 3255DOPC   C1A38193  25.290  18.486  13.881  0.3149  0.0592 -0.1192
 3255DOPC   D2A38194  25.199  18.608  14.284 -0.1040 -0.1041 -0.0474
 3255DOPC   C3A38195  25.563  18.722  14.542  0.2333 -0.2369 -0.0681
 3255DOPC   C4A38196  25.658  19.006  14.894  0.1207 -0.2757 -0.1453
 3255DOPC   C1B38197  25.288  18.984  13.964  0.0925 -0.2359  0.0056
 3255DOPC   D2B38198  24.916  19.011  14.266 -0.1083 -0.2384  0.1988
 3255DOPC   C3B38199  25.081  18.839  14.668 -0.0988  0.1347  0.2469
 3255DOPC   C4B38200  25.172  18.830  15.115  0.0552 -0.1440  0.1032
 3256DOPC   NC338201  33.531  21.528  13.638  0.2062  0.3788  0.0618
 3256DOPC   PO438202  33.638  21.480  13.280 -0.0831 -0.1189  0.0216
 3256DOPC   GL138203  33.324  21.229  13.295 -0.3484  0.1296  0.1628
 3256DOPC   GL238204  33.218  20.900  13.209  0.1217 -0.1620 -0.1441
 3256DOPC   C1A38205  32.880  21.325  13.429 -0.1503  0.0891  0.2373
 3256DOPC   D2A38206  32.476  21.121  13.190 -0.0148  0.0176  0.1282
 3256DOPC   C3A38207  32.269  21.112  13.609 -0.3438  0.0985  0.1353
 3256DOPC   C4A38208  32.173  21.388  13.997 -0.0889  0.1944 -0.2300
 3256DOPC   C1B38209  32.983  20.531  13.403 -0.1158 -0.0792 -0.0328
 3256DOPC   D2B38210  32.947  20.151  13.635 -0.1401  0.1984  0.2122
 3256DOPC   C3B38211  32.740  20.382  13.931 -0.0959 -0.1002 -0.0559
 3256DOPC   C4B38212  32.599  20.437  14.303  0.1054  0.3412  0.1387
 3257DOPC   NC338213  25.199  16.319  13.366 -0.2361 -0.3045 -0.0006
 3257DOPC   PO438214  25.569  16.314  13.402  0.2421  0.1919 -0.0892
 3257DOPC   GL138215  25.615  16.049  13.711 -0.1171 -0.0618 -0.1419
 3257DOPC   GL238216  25.348  16.019  13.735  0.1141 -0.2354  0.0038
 3257DOPC   C1A38217  25.638  16.241  14.120  0.0257 -0.2057  0.3551
 3257DOPC   D2A38218  25.806  16.462  14.508 -0.0854 -0.2630  0.2165
 3257DOPC   C3A38219  26.185  16.707  14.606  0.0377 -0.2822 -0.2439
 3257DOPC   C4A38220  26.402  17.083  14.798 -0.0246  0.0524  0.2259
 3257DOPC   C1B38221  25.004  16.310  13.966 -0.2036  0.0186  0.1828
 3257DOPC   D2B38222  24.721  16.619  14.148  0.2756 -0.1208  0.0963
 3257DOPC   C3B38223  24.812  16.940  14.508 -0.0610  0.5791  0.0435
 3257DOPC   C4B38224  25.029  17.359  14.605 -0.0874  0.1078  0.3283
 3258DOPS   CNO38225  29.509  20.591  13.220  0.0243  0.1001 -0.1208
 3258DOPS   PO438226  29.351  20.304  13.454  0.0363  0.1133  0.1381
 3258DOPS   GL138227  29.158  20.378  13.820 -0.1239  0.0685  0.0642
 3258DOPS   GL238228  29.276  20.584  13.930  0.0753 -0.2325 -0.0390
 3258DOPS   C1A38229  29.070  20.312  14.313  0.0162 -0.0942 -0.1838
 3258DOPS   D2A38230  29.185  20.532  14.721  0.1227 -0.2781  0.0796
 3258DOPS   C3A38231  29.210  20.660  15.178 -0.2436 -0.0960  0.0990
 3258DOPS   C4A38232  29.371  20.793  15.616  0.1935  0.3364 -0.0224
 3258DOPS   C1B38233  28.962  20.832  14.217  0.0459  0.1900  0.0401
 3258DOPS   D2B38234  28.824  20.859  14.667 -0.0553 -0.0687  0.0069
 3258DOPS   C3B38235  28.778  21.029  15.030 -0.3337 -0.0462 -0.2316
 3258DOPS   C4B38236  28.931  20.998  15.453 -0.1077  0.0278  0.2522
 3259POSM   NC338237  25.381  11.362  12.903  0.1273 -0.1068 -0.0114
 3259POSM   PO438238  25.071  11.276  13.111 -0.2878  0.1477  0.0620
 3259POSM   AM138239  25.158  11.285  13.418  0.4448 -0.3253  0.0850
 3259POSM   AM238240  25.094  11.468  13.610 -0.0341 -0.1916  0.3342
 3259POSM   T1A38241  25.546  11.173  13.668  0.2180  0.1872 -0.0638
 3259POSM   C2A38242  25.923  10.923  13.712  0.0684  0.0602 -0.1276
 3259POSM   C3A38243  26.107  10.497  13.678  0.0526  0.1359 -0.2107
 3259POSM   C1B38244  24.851  11.602  13.805 -0.0195  0.0110 -0.4227
 3259POSM   D2B38245  24.718  11.805  14.173 -0.0513  0.1111 -0.1479
 3259POSM   C3B38246  24.714  12.007  14.537 -0.0371 -0.0971  0.3200
 3259POSM   C4B38247  24.712  12.003  14.966 -0.0666  0.0183 -0.1788
 3260POSM   NC338248  28.616  21.327  13.264 -0.2046  0.0738 -0.1472
 3260POSM   PO438249  28.534  21.604  13.527 -0.0088 -0.1322  0.4645
 3260POSM   AM138250  28.540  21.597  13.873  0.0110 -0.2578 -0.3025
 3260POSM   AM238251  28.646  21.459  14.079  0.1886  0.0117  0.4115
 3260POSM   T1A38252  28.245  21.614  14.280 -0.0067 -0.1763  0.3993
 3260POSM   C2A38253  28.053  21.593  14.711 -0.2150  0.0443  0.0798
 3260POSM   C3A38254  27.826  21.461  15.132  0.0507 -0.0059 -0.0949
 3260POSM   C1B38255  28.870  21.718  14.308  0.1205  0.1157 -0.0013
 3260POSM   D2B38256  29.031  21.999  14.663 -0.0786 -0.1782  0.2592
 3260POSM   C3B38257  29.368  22.025  14.403  0.1195  0.2599  0.3573
 3260POSM   C4B38258  29.763  22.236  14.305  0.2824 -0.0855  0.0746
 3261DOPE   NH338259  22.908  17.915  12.208 -0.1062 -0.1470 -0.3750
 3261DOPE   PO438260  23.165  17.912  12.338 -0.1392 -0.0383 -0.0301
 3261DOPE   GL138261  23.122  17.654  12.684  0.1337 -0.2581  0.0017
 3261DOPE   GL238262  23.165  17.404  12.805 -0.2642  0.0601  0.3444
 3261DOPE   C1A38263  22.690  17.737  12.890 -0.2131  0.1094  0.0094
 3261DOPE   D2A38264  22.537  17.706  13.277 -0.2214 -0.0274  0.1382
 3261DOPE   C3A38265  22.724  17.402  13.530 -0.0402 -0.1498  0.3296
 3261DOPE   C4A38266  22.863  17.025  13.723  0.1053  0.4154  0.3100
 3261DOPE   C1B38267  23.034  17.581  13.194  0.0893  0.0467  0.1141
 3261DOPE   D2B38268  22.945  17.901  13.485 -0.1824 -0.2147 -0.0915
 3261DOPE   C3B38269  22.727  17.807  13.946 -0.0733 -0.4016  0.2486
 3261DOPE   C4B38270  22.576  17.915  14.302 -0.3668  0.2529 -0.1161
 3262DOPC   NC338271  28.747  10.958  13.718  0.1813 -0.0625  0.2571
 3262DOPC   PO438272  28.544  11.105  13.427  0.1878 -0.1190  0.0619
 3262DOPC   GL138273  28.253  10.982  13.735 -0.0876 -0.2454 -0.0028
 3262DOPC   GL238274  28.287  10.725  13.619 -0.0061  0.1339 -0.1451
 3262DOPC   C1A38275  28.123  11.166  14.130 -0.4319 -0.2100 -0.2288
 3262DOPC   D2A38276  28.248  11.256  14.600  0.1545 -0.0699  0.1149
 3262DOPC   C3A38277  28.437  11.680  14.652  0.0581 -0.2212 -0.1566
 3262DOPC   C4A38278  28.796  11.908  14.694 -0.4964 -0.1295 -0.1189
 3262DOPC   C1B38279  27.891  10.764  13.855 -0.1614  0.1595  0.0932
 3262DOPC   D2B38280  28.070  10.729  14.307  0.1174  0.3838  0.0669
 3262DOPC   C3B38281  28.427  10.764  14.557 -0.2350 -0.3657  0.2495
 3262DOPC   C4B38282  28.540  10.892  14.981  0.3306  0.1396 -0.0546
 3263POSM   NC338283  32.742  14.160  13.631 -0.2148 -0.0377  0.1839
 3263POSM   PO438284  33.047  13.903  13.682 -0.3107 -0.1406  0.0716
 3263POSM   AM138285  33.062  14.066  13.976  0.0987  0.0610 -0.3690
 3263POSM   AM238286  33.207  14.297  14.060 -0.0988  0.1098  0.0248
 3263POSM   T1A38287  32.979  14.095  14.445 -0.0948  0.0813 -0.3125
 3263POSM   C2A38288  32.642  14.195  14.721 -0.0414  0.1865  0.4362
 3263POSM   C3A38289  32.321  14.525  14.810 -0.2458  0.0316 -0.3096
 3263POSM   C1B38290  33.288  14.507  14.326 -0.1689 -0.2056  0.2351
 3263POSM   D2B38291  33.433  14.833  14.557  0.2944  0.0256 -0.2626
 3263POSM   C3B38292  33.338  15.296  14.405  0.2603  0.3432  0.1755
 3263POSM   C4B38293  33.268  15.418  14.011  0.1471 -0.3831  0.1326
 3264POSM   NC338294  27.285  18.563  13.449  0.0403 -0.2974  0.3735
 3264POSM   PO438295  27.224  18.904  13.593 -0.1747 -0.0733  0.0423
 3264POSM   AM138296  27.477  19.038  13.800 -0.0310  0.1797  0.2890
 3264POSM   AM238297  27.600  19.023  14.042  0.2412 -0.0091 -0.0433
 3264POSM   T1A38298  27.941  19.323  13.825  0.0993  0.1272  0.2112
 3264POSM   C2A38299  28.274  19.094  13.611 -0.4165 -0.0342  0.1892
 3264POSM   C3A38300  28.618  19.301  13.401 -0.0982 -0.0302  0.1772
 3264POSM   C1B38301  27.948  18.947  14.099  0.1055 -0.1152  0.2969
 3264POSM   D2B38302  28.347  18.923  14.325 -0.0397 -0.2638  0.1585
 3264POSM   C3B38303  28.342  18.635  14.700 -0.4125  0.1172 -0.0149
 3264POSM   C4B38304  28.451  18.720  15.176  0.1964  0.0793 -0.0387
 3265DOPC   NC338305  25.155  32.219  16.329  0.0440  0.4117  0.2811
 3265DOPC   PO438306  25.353  31.884  16.233  0.0873  0.2640  0.1479
 3265DOPC   GL138307  25.503  31.762  15.905  0.1076 -0.1310 -0.2549
 3265DOPC   GL238308  25.233  31.646  15.691  0.2642  0.0355  0.2546
 3265DOPC   C1A38309  25.792  31.942  15.602 -0.1037  0.5081  0.2103
 3265DOPC   D2A38310  26.150  31.916  15.294 -0.0481 -0.0637 -0.2471
 3265DOPC   C3A38311  26.076  32.244  15.001  0.1562 -0.0127  0.1306
 3265DOPC   C4A38312  26.179  32.557  14.701  0.2251 -0.0782 -0.0342
 3265DOPC   C1B38313  25.389  31.518  15.298  0.1417 -0.3211  0.1159
 3265DOPC   D2B38314  25.726  31.823  15.065  0.1801  0.0373 -0.3237
 3265DOPC   C3B38315  25.853  31.869  14.639  0.3188 -0.0830 -0.3135
 3265DOPC   C4B38316  25.841  31.916  14.181 -0.0745 -0.1284  0.0175
 3266DOPC   NC338317  33.099  27.249  16.514 -0.1459 -0.0459 -0.0837
 3266DOPC   PO438318  33.355  26.963  16.599 -0.0045  0.1018  0.1229
 3266DOPC   GL138319  33.197  27.029  16.132 -0.2011 -0.0183  0.2259
 3266DOPC   GL238320  33.269  26.686  16.111 -0.1930  0.0697  0.1763
 3266DOPC   C1A38321  33.196  27.276  15.761  0.1815 -0.0591  0.0050
 3266DOPC   D2A38322  33.012  27.076  15.406  0.2123 -0.0126  0.3680
 3266DOPC   C3A38323  32.688  27.368  15.160 -0.2369  0.0540 -0.0572
 3266DOPC   C4A38324  32.568  27.683  14.857 -0.3316 -0.0254 -0.1804
 3266DOPC   C1B38325  33.259  26.597  15.684  0.2389  0.0625  0.0633
 3266DOPC   D2B38326  33.181  26.499  15.222  0.0398 -0.2449 -0.3274
 3266DOPC   C3B38327  33.425  26.661  14.853 -0.0523 -0.2232 -0.2482
 3266DOPC   C4B38328  33.755  26.481  14.571  0.1132 -0.2772  0.1056
 3267DOPE   NH338329  32.145  32.737  16.268 -0.3398  0.0202 -0.1536
 3267DOPE   PO438330  32.328  32.952  16.206  0.3124  0.0917  0.0723
 3267DOPE   GL138331  32.438  32.954  15.731  0.0573  0.1764 -0.2896
 3267DOPE   GL238332  32.164  32.892  15.731  0.0524  0.1013  0.1325
 3267DOPE   C1A38333  32.379  32.875  15.303 -0.0679  0.4384  0.0066
 3267DOPE   D2A38334  32.584  33.128  14.985 -0.2339  0.1732 -0.3820
 3267DOPE   C3A38335  32.590  33.111  14.532  0.1613 -0.0968 -0.2761
 3267DOPE   C4A38336  32.768  33.219  14.125  0.0559  0.2984 -0.2382
 3267DOPE   C1B38337  32.015  33.151  15.405 -0.1370 -0.1890 -0.2150
 3267DOPE   D2B38338  32.038  33.116  14.948 -0.0277 -0.1264 -0.1719
 3267DOPE   C3B38339  32.174  32.757  14.613 -0.0617  0.2541 -0.0868
 3267DOPE   C4B38340  32.070  32.426  14.318  0.2325  0.0127  0.0233
 3268DOPE   NH338341  23.454  31.802  16.691  0.2866  0.1514  0.2673
 3268DOPE   PO438342  23.616  31.907  16.466 -0.0318 -0.0667 -0.0809
 3268DOPE   GL138343  23.705  31.989  16.086  0.3023 -0.1263 -0.1978
 3268DOPE   GL238344  23.946  31.858  16.020 -0.0417 -0.0249  0.3100
 3268DOPE   C1A38345  23.958  32.359  15.873  0.0095  0.0571  0.0542
 3268DOPE   D2A38346  24.408  32.438  15.691  0.0932 -0.0419  0.1260
 3268DOPE   C3A38347  24.559  32.374  15.285 -0.1162  0.1564  0.0024
 3268DOPE   C4A38348  24.458  32.273  14.879  0.2413  0.1931  0.3040
 3268DOPE   C1B38349  23.929  32.002  15.567 -0.0309  0.2702 -0.3739
 3268DOPE   D2B38350  23.888  32.400  15.344 -0.0717 -0.2086 -0.1796
 3268DOPE   C3B38351  23.811  32.449  14.907  0.1019  0.0517  0.3159
 3268DOPE   C4B38352  23.872  32.849  14.624  0.1241  0.0545  0.3221
 3269DOPC   NC338353  32.903  34.347  16.439  0.0462 -0.1119 -0.1020
 3269DOPC   PO438354  32.689  34.541  16.678 -0.0444  0.0753  0.1934
 3269DOPC   GL138355  32.311  34.439  16.525 -0.4049  0.4957  0.0296
 3269DOPC   GL238356  32.116  34.567  16.426  0.0189 -0.3001  0.2873
 3269DOPC   C1A38357  32.459  34.595  16.083  0.2227 -0.0978 -0.0330
 3269DOPC   D2A38358  32.417  34.452  15.606  0.0675 -0.2467 -0.0294
 3269DOPC   C3A38359  32.620  34.649  15.192 -0.1230  0.0746 -0.0803
 3269DOPC   C4A38360  32.827  34.614  14.747 -0.0317  0.3485  0.0171
 3269DOPC   C1B38361  32.018  34.337  16.015 -0.0603 -0.3390 -0.1996
 3269DOPC   D2B38362  31.839  34.247  15.633  0.1021  0.2725  0.1029
 3269DOPC   C3B38363  31.583  34.444  15.287  0.2396 -0.0719 -0.0076
 3269DOPC   C4B38364  31.225  34.591  15.131 -0.1142 -0.1593 -0.0639
 3270DOPC   NC338365  34.140  32.846  16.135  0.4304 -0.0395 -0.2312
 3270DOPC   PO438366  33.783  32.997  16.117  0.1134 -0.1768  0.0221
 3270DOPC   GL138367  33.837  32.980  15.704  0.1827  0.2496 -0.0363
 3270DOPC   GL238368  34.068  32.907  15.571 -0.1492 -0.3049 -0.2680
 3270DOPC   C1A38369  33.522  32.819  15.331  0.1129  0.1898 -0.0020
 3270DOPC   D2A38370  33.580  32.902  14.870 -0.1186 -0.4104  0.1126
 3270DOPC   C3A38371  33.868  32.637  14.625  0.2706  0.0171 -0.1921
 3270DOPC   C4A38372  34.022  32.706  14.215 -0.3271  0.1088  0.0264
 3270DOPC   C1B38373  34.004  32.839  15.085  0.1781  0.0172 -0.0824
 3270DOPC   D2B38374  34.274  32.911  14.762 -0.0130  0.0435 -0.1119
 3270DOPC   C3B38375  34.055  33.159  14.373 -0.1081 -0.1494 -0.1716
 3270DOPC   C4B38376  33.729  33.130  14.073 -0.2075  0.0316 -0.1266
 3271POSM   NC338377  27.762  26.224  17.219  0.0472 -0.0239  0.2106
 3271POSM   PO438378  27.433  26.353  17.069 -0.1182  0.0602  0.0223
 3271POSM   AM138379  27.470  26.144  16.799  0.1013 -0.2590  0.0842
 3271POSM   AM238380  27.544  25.851  16.716 -0.2167  0.3953 -0.1090
 3271POSM   T1A38381  27.136  26.155  16.401 -0.0008 -0.0611  0.0857
 3271POSM   C2A38382  26.805  26.462  16.192  0.2648  0.0251 -0.1384
 3271POSM   C3A38383  26.377  26.611  16.262  0.0144  0.1101 -0.2461
 3271POSM   C1B38384  27.599  25.863  16.402 -0.1374  0.1052 -0.0051
 3271POSM   D2B38385  27.675  25.989  15.949  0.2355  0.0878  0.0795
 3271POSM   C3B38386  27.739  26.017  15.434 -0.0250  0.1581  0.0453
 3271POSM   C4B38387  27.684  26.315  15.123 -0.4388  0.1461 -0.1516
 3272DOPS   CNO38388  30.804  32.625  16.565  0.2150  0.1509 -0.0578
 3272DOPS   PO438389  31.024  32.375  16.445  0.1425  0.1760  0.0835
 3272DOPS   GL138390  31.096  32.203  16.003 -0.0332  0.2019  0.0283
 3272DOPS   GL238391  31.125  31.955  16.155 -0.0368 -0.3266 -0.1853
 3272DOPS   C1A38392  31.227  32.256  15.522 -0.0304  0.2598  0.0186
 3272DOPS   D2A38393  31.399  32.396  15.117  0.1512  0.2190  0.1395
 3272DOPS   C3A38394  31.271  32.320  14.684 -0.3412  0.1201 -0.3776
 3272DOPS   C4A38395  31.302  32.433  14.250 -0.0659 -0.0542 -0.3982
 3272DOPS   C1B38396  31.062  31.792  15.744  0.0764  0.0755 -0.0657
 3272DOPS   D2B38397  30.856  31.974  15.336  0.0088 -0.0585 -0.1932
 3272DOPS   C3B38398  30.546  31.810  15.064 -0.1154 -0.2729 -0.0076
 3272DOPS   C4B38399  30.062  31.749  15.095  0.0205 -0.1662 -0.1156
 3273DOPC   NC338400  29.079  26.072  17.644 -0.1387 -0.1040  0.1210
 3273DOPC   PO438401  29.215  25.909  17.319  0.3265 -0.3728 -0.0343
 3273DOPC   GL138402  29.139  25.881  16.912 -0.3569 -0.0148 -0.1704
 3273DOPC   GL238403  28.903  25.699  16.926  0.1966 -0.0417 -0.3018
 3273DOPC   C1A38404  29.538  25.956  16.717 -0.2638 -0.2833 -0.3683
 3273DOPC   D2A38405  29.778  25.979  16.324  0.0084  0.0897 -0.1399
 3273DOPC   C3A38406  29.589  25.815  15.888  0.2441  0.0253 -0.2984
 3273DOPC   C4A38407  29.262  25.616  15.649  0.2153  0.0177  0.1093
 3273DOPC   C1B38408  28.775  25.603  16.528  0.0781  0.1842 -0.1081
 3273DOPC   D2B38409  28.531  25.866  16.206  0.1936 -0.0517  0.2722
 3273DOPC   C3B38410  28.171  26.144  16.361 -0.1469  0.0828 -0.4455
 3273DOPC   C4B38411  27.774  26.427  16.371 -0.0577  0.1959 -0.0428
 3274DOPE   NH338412  25.470  28.575  17.212 -0.0966 -0.0276  0.1377
 3274DOPE   PO438413  25.682  28.825  17.100 -0.0430 -0.2859 -0.1441
 3274DOPE   GL138414  25.869  28.838  16.826  0.3195  0.2661  0.3242
 3274DOPE   GL238415  26.122  28.993  16.820  0.1050 -0.0188 -0.0041
 3274DOPE   C1A38416  25.938  28.592  16.391 -0.1217  0.0943  0.0145
 3274DOPE   D2A38417  25.848  28.225  16.083 -0.1954  0.1667  0.0273
 3274DOPE   C3A38418  25.935  28.306  15.617 -0.1084 -0.0837  0.1545
 3274DOPE   C4A38419  26.327  28.282  15.346  0.2831 -0.3015  0.0735
 3274DOPE   C1B38420  26.346  28.672  16.598 -0.0984  0.0350 -0.0863
 3274DOPE   D2B38421  26.531  28.772  16.136 -0.5183  0.0043  0.2527
 3274DOPE   C3B38422  26.675  29.039  15.801 -0.1222  0.0963 -0.0804
 3274DOPE   C4B38423  26.634  29.031  15.369  0.0406 -0.1684  0.3051
 3275POSM   NC338424  31.592  32.069  16.085 -0.1812  0.2942  0.2612
 3275POSM   PO438425  31.576  31.944  16.419 -0.0007  0.1835 -0.2470
 3275POSM   AM138426  31.607  31.664  16.285  0.0506  0.3415  0.3682
 3275POSM   AM238427  31.778  31.489  16.137 -0.0402 -0.1760 -0.1282
 3275POSM   T1A38428  31.279  31.382  16.041 -0.3867  0.1363  0.0301
 3275POSM   C2A38429  31.045  31.214  15.664 -0.0586 -0.2168 -0.0173
 3275POSM   C3A38430  30.927  30.875  15.382 -0.0644  0.1343  0.1587
 3275POSM   C1B38431  31.634  31.613  15.810 -0.1959 -0.0096  0.0141
 3275POSM   D2B38432  31.509  31.789  15.411 -0.2028  0.1003  0.1572
 3275POSM   C3B38433  31.368  31.851  14.929 -0.1556 -0.0702  0.0151
 3275POSM   C4B38434  30.980  31.725  14.746 -0.0307  0.3511 -0.3062
 3276DOPS   CNO38435  29.375  34.235  17.228 -0.4402 -0.1784  0.1496
 3276DOPS   PO438436  29.103  34.326  16.947 -0.0082  0.1183 -0.0684
 3276DOPS   GL138437  28.943  34.237  16.502 -0.1332  0.0456  0.2562
 3276DOPS   GL238438  28.690  34.276  16.367 -0.0653 -0.2894  0.0064
 3276DOPS   C1A38439  29.108  34.232  16.021  0.2059  0.1017  0.2272
 3276DOPS   D2A38440  29.354  34.308  15.641  0.2845 -0.0287  0.2396
 3276DOPS   C3A38441  29.239  34.129  15.211  0.0820 -0.0376  0.1051
 3276DOPS   C4A38442  29.400  33.768  14.992  0.3204  0.2857  0.1991
 3276DOPS   C1B38443  28.375  34.216  16.105  0.1496  0.3313 -0.1429
 3276DOPS   D2B38444  28.225  34.289  15.644  0.0026  0.0419 -0.0834
 3276DOPS   C3B38445  28.233  33.985  15.316 -0.1109 -0.0143 -0.0793
 3276DOPS   C4B38446  28.065  33.911  14.920  0.0701  0.2280 -0.2527
 3277DOPC   NC338447  33.643  26.478  16.755  0.1715 -0.2384 -0.1867
 3277DOPC   PO438448  33.913  26.190  16.847 -0.0447  0.1014  0.0511
 3277DOPC   GL138449  34.012  26.156  16.458  0.3242 -0.0909 -0.0165
 3277DOPC   GL238450  33.754  26.303  16.298 -0.2725 -0.3110 -0.0918
 3277DOPC   C1A38451  33.985  25.786  16.171  0.3651  0.0106  0.2722
 3277DOPC   D2A38452  34.173  25.355  16.243  0.1397  0.0518  0.2160
 3277DOPC   C3A38453  34.005  25.227  15.806  0.0780  0.5699 -0.2703
 3277DOPC   C4A38454  33.530  25.174  15.686 -0.0383 -0.1938 -0.2119
 3277DOPC   C1B38455  33.591  26.095  15.903  0.0181  0.0553  0.2418
 3277DOPC   D2B38456  33.300  26.111  15.547  0.0554 -0.1241  0.1029
 3277DOPC   C3B38457  32.926  25.927  15.378 -0.0199 -0.1782 -0.0525
 3277DOPC   C4B38458  32.673  25.685  15.123  0.1656 -0.0743  0.3143
 3278DOPE   NH338459  29.430  27.963  17.231  0.4169 -0.2539  0.5735
 3278DOPE   PO438460  29.542  27.729  17.379 -0.0806 -0.1347 -0.2129
 3278DOPE   GL138461  29.716  27.567  17.111 -0.4422  0.3904  0.1920
 3278DOPE   GL238462  29.756  27.805  16.922  0.1702 -0.4338  0.0634
 3278DOPE   C1A38463  29.707  27.420  16.624 -0.0843 -0.1876  0.0647
 3278DOPE   D2A38464  29.640  27.402  16.189 -0.2787 -0.2547  0.1565
 3278DOPE   C3A38465  29.433  27.118  15.924 -0.1397  0.0273 -0.0944
 3278DOPE   C4A38466  29.408  26.732  15.628 -0.2607  0.0304  0.2077
 3278DOPE   C1B38467  29.345  27.698  16.734 -0.3679  0.0816  0.0070
 3278DOPE   D2B38468  28.905  27.613  16.623  0.0505  0.0188 -0.1600
 3278DOPE   C3B38469  28.680  27.658  16.185  0.1716 -0.4732 -0.2399
 3278DOPE   C4B38470  28.461  27.428  15.804  0.2472 -0.2575 -0.2733
 3279DOPE   NH338471  28.659  27.237  16.822 -0.1489  0.1190  0.0452
 3279DOPE   PO438472  28.441  27.435  16.905 -0.1162  0.1688 -0.1648
 3279DOPE   GL138473  28.448  27.723  16.608 -0.0302  0.2564  0.4420
 3279DOPE   GL238474  28.508  28.014  16.664 -0.3134  0.0678  0.0037
 3279DOPE   C1A38475  28.185  27.755  16.197  0.1928 -0.3505 -0.0457
 3279DOPE   D2A38476  27.999  27.581  15.838  0.2152  0.2394  0.0544
 3279DOPE   C3A38477  28.103  27.702  15.383 -0.4950 -0.1155  0.3194
 3279DOPE   C4A38478  28.270  27.588  14.959 -0.1800 -0.1249 -0.2025
 3279DOPE   C1B38479  28.545  28.155  16.221  0.0816 -0.0161 -0.0944
 3279DOPE   D2B38480  28.439  28.009  15.792  0.0055 -0.1705  0.0520
 3279DOPE   C3B38481  28.366  28.171  15.358  0.1007 -0.0363 -0.4889
 3279DOPE   C4B38482  28.458  28.377  14.924  0.1905  0.4216  0.3387
 3280DOPC   NC338483  31.475  33.783  16.483  0.2788 -0.3822 -0.0370
 3280DOPC   PO438484  31.803  33.654  16.558 -0.0725  0.0427 -0.2711
 3280DOPC   GL138485  31.739  33.642  16.126  0.2685  0.2009  0.0395
 3280DOPC   GL238486  31.634  33.912  15.975 -0.2586  0.0826 -0.1547
 3280DOPC   C1A38487  31.358  33.525  15.882  0.0161 -0.1561  0.1389
 3280DOPC   D2A38488  30.924  33.582  15.808  0.1176  0.1728 -0.1554
 3280DOPC   C3A38489  30.668  33.396  15.506 -0.0721 -0.2526 -0.0334
 3280DOPC   C4A38490  30.240  33.403  15.338 -0.1296  0.1024  0.1684
 3280DOPC   C1B38491  31.300  34.172  16.195 -0.1026 -0.0330 -0.0600
 3280DOPC   D2B38492  31.157  34.598  16.559 -0.1776  0.2638  0.2176
 3280DOPC   C3B38493  31.200  34.969  16.241 -0.0488  0.0034  0.3344
 3280DOPC   C4B38494  31.359  35.214  15.914  0.0744  0.1854 -0.0051
 3281POSM   NC338495  33.258  30.968  16.232 -0.0151  0.0016 -0.0120
 3281POSM   PO438496  33.007  30.800  16.496  0.0109 -0.0426  0.1420
 3281POSM   AM138497  32.949  30.595  16.243 -0.1500  0.4435 -0.1505
 3281POSM   AM238498  32.923  30.288  16.212  0.0469  0.0982 -0.3160
 3281POSM   T1A38499  32.721  30.597  15.796  0.1243  0.0184 -0.2064
 3281POSM   C2A38500  32.310  30.659  15.536  0.0914  0.2766  0.1117
 3281POSM   C3A38501  32.105  30.599  15.096 -0.3346  0.3365 -0.0931
 3281POSM   C1B38502  32.963  30.210  15.919 -0.3694 -0.2033 -0.3931
 3281POSM   D2B38503  33.058  30.032  15.477  0.2457 -0.0053  0.0912
 3281POSM   C3B38504  32.834  30.055  15.062  0.0061 -0.0398 -0.2533
 3281POSM   C4B38505  32.719  30.024  14.606  0.1717 -0.3338  0.1845
 3282DOPE   NH338506  23.803  32.759  16.809 -0.1401  0.2247 -0.1560
 3282DOPE   PO438507  23.496  32.719  16.702 -0.1087 -0.2158  0.0640
 3282DOPE   GL138508  23.490  32.813  16.320  0.1655 -0.1742 -0.1345
 3282DOPE   GL238509  23.402  33.173  16.231 -0.0877  0.1603  0.0755
 3282DOPE   C1A38510  23.818  32.865  15.983  0.4320  0.0612 -0.2557
 3282DOPE   D2A38511  24.110  32.823  15.651  0.0350 -0.0236  0.1198
 3282DOPE   C3A38512  24.144  32.880  15.179 -0.0148 -0.2365 -0.0237
 3282DOPE   C4A38513  24.312  32.721  14.800  0.0045 -0.1755  0.1569
 3282DOPE   C1B38514  23.271  33.015  15.819 -0.0403  0.0414 -0.2044
 3282DOPE   D2B38515  22.889  33.135  15.552 -0.1705 -0.0040  0.0309
 3282DOPE   C3B38516  23.129  33.033  15.155  0.1102  0.2605 -0.0108
 3282DOPE   C4B38517  23.407  32.751  14.843 -0.1188  0.0659 -0.1887
 3283DOPS   CNO38518  28.213  24.863  17.555  0.3891 -0.0043 -0.2208
 3283DOPS   PO438519  28.132  24.580  17.324  0.0813  0.1564 -0.0641
 3283DOPS   GL138520  28.148  24.447  16.910 -0.0741 -0.1356  0.0356
 3283DOPS   GL238521  27.983  24.683  16.813 -0.2454 -0.0357  0.1617
 3283DOPS   C1A38522  28.006  24.036  16.881 -0.2807  0.1306 -0.1885
 3283DOPS   D2A38523  28.101  23.793  16.498 -0.2889  0.0318  0.0650
 3283DOPS   C3A38524  28.084  23.997  16.081  0.2504  0.2291  0.1053
 3283DOPS   C4A38525  28.219  23.758  15.702  0.1856  0.0363  0.2046
 3283DOPS   C1B38526  27.685  24.789  16.451  0.2018 -0.1258  0.3146
 3283DOPS   D2B38527  27.789  24.547  16.009 -0.2972  0.0432  0.1032
 3283DOPS   C3B38528  27.569  24.608  15.647 -0.4213  0.0473 -0.0659
 3283DOPS   C4B38529  27.172  24.782  15.396  0.0530  0.0140 -0.0160
 3284POSM   NC338530  30.245  31.341  17.979  0.0557 -0.1511  0.0836
 3284POSM   PO438531  30.345  31.031  17.764 -0.3474 -0.2191 -0.1768
 3284POSM   AM138532  30.292  30.758  17.548  0.0457  0.3807  0.0628
 3284POSM   AM238533  30.360  30.519  17.408  0.0487 -0.0546 -0.1877
 3284POSM   T1A38534  29.977  30.787  17.211 -0.0091  0.0400 -0.0573
 3284POSM   C2A38535  29.791  30.646  16.779 -0.0306  0.3559  0.1057
 3284POSM   C3A38536  29.923  30.370  16.460 -0.5222  0.1216  0.1579
 3284POSM   C1B38537  30.462  30.635  17.093 -0.1736  0.1455  0.1033
 3284POSM   D2B38538  30.701  30.829  16.744  0.0510  0.1851 -0.0686
 3284POSM   C3B38539  30.510  30.890  16.291  0.1526 -0.2427 -0.3046
 3284POSM   C4B38540  30.313  31.250  16.085  0.0002 -0.0869  0.0247
 3285POSM   NC338541  28.621  30.822  17.702 -0.1996  0.2040 -0.0719
 3285POSM   PO438542  28.420  30.601  17.465  0.2619 -0.0951 -0.0418
 3285POSM   AM138543  28.301  30.868  17.291  0.0003  0.0294 -0.0782
 3285POSM   AM238544  28.348  30.968  17.045 -0.1577 -0.0248  0.1441
 3285POSM   T1A38545  27.936  31.225  17.145  0.1336 -0.1290  0.3234
 3285POSM   C2A38546  27.561  31.297  16.834 -0.1757  0.0072 -0.1689
 3285POSM   C3A38547  27.681  31.487  16.423 -0.1131  0.0004  0.0281
 3285POSM   C1B38548  28.272  30.795  16.797  0.2464 -0.1450 -0.1621
 3285POSM   D2B38549  27.982  30.756  16.456  0.2878  0.1340 -0.1886
 3285POSM   C3B38550  27.523  30.850  16.475 -0.3413 -0.0937 -0.0440
 3285POSM   C4B38551  27.126  31.057  16.438 -0.2515 -0.0543  0.1445
 3286DOPC   NC338552  26.006  23.688  17.232  0.1237 -0.0363 -0.3131
 3286DOPC   PO438553  25.947  24.054  17.201  0.0398 -0.0309  0.0980
 3286DOPC   GL138554  26.064  24.004  16.881 -0.1490 -0.4358 -0.1423
 3286DOPC   GL238555  26.304  23.963  16.795  0.0394 -0.0376  0.0060
 3286DOPC   C1A38556  25.979  23.856  16.453 -0.2266 -0.2148 -0.3170
 3286DOPC   D2A38557  25.713  23.755  16.026 -0.2102  0.0066 -0.0910
 3286DOPC   C3A38558  25.804  23.435  15.676  0.2705 -0.2469 -0.0805
 3286DOPC   C4A38559  26.071  23.490  15.286 -0.2603 -0.1667  0.1015
 3286DOPC   C1B38560  26.594  23.745  16.463  0.2553 -0.0654 -0.0797
 3286DOPC   D2B38561  26.506  23.261  16.457 -0.1603  0.0019  0.1553
 3286DOPC   C3B38562  26.608  23.164  16.033 -0.1373  0.2546 -0.3173
 3286DOPC   C4B38563  26.387  23.288  15.619 -0.2163 -0.1573 -0.2404
 3287DOPS   CNO38564  31.012  27.679  17.333  0.1391  0.3502  0.0972
 3287DOPS   PO438565  31.186  27.947  17.121  0.0167 -0.1749 -0.1776
 3287DOPS   GL138566  31.293  27.744  16.930 -0.3732 -0.1253  0.0597
 3287DOPS   GL238567  31.157  27.609  16.707 -0.1537 -0.0493 -0.1144
 3287DOPS   C1A38568  31.658  27.640  16.717  0.1856  0.0983 -0.1940
 3287DOPS   D2A38569  31.761  27.309  16.426 -0.0466 -0.1231  0.1455
 3287DOPS   C3A38570  31.778  27.370  15.970 -0.1176  0.3984 -0.0296
 3287DOPS   C4A38571  31.725  27.060  15.622  0.2429  0.1964  0.1754
 3287DOPS   C1B38572  31.293  27.564  16.280  0.3588 -0.1568  0.0755
 3287DOPS   D2B38573  31.487  27.939  16.044 -0.3082 -0.1941 -0.0279
 3287DOPS   C3B38574  31.316  27.912  15.580  0.3880  0.0176  0.0925
 3287DOPS   C4B38575  31.331  27.987  15.141  0.1933 -0.0848  0.1521
 3288DOPE   NH338576  32.224  33.616  16.271 -0.2019  0.1050 -0.1417
 3288DOPE   PO438577  32.519  33.501  16.261  0.0073 -0.0441  0.2439
 3288DOPE   GL138578  32.578  33.612  15.876 -0.0747  0.1676 -0.1092
 3288DOPE   GL238579  32.351  33.384  15.801 -0.0178  0.2951 -0.0235
 3288DOPE   C1A38580  32.716  33.924  15.560 -0.0447 -0.0262 -0.2915
 3288DOPE   D2A38581  32.841  34.157  15.188 -0.1968 -0.1024 -0.1018
 3288DOPE   C3A38582  33.169  34.472  15.131 -0.2294 -0.3115  0.2023
 3288DOPE   C4A38583  33.499  34.575  14.762  0.0450  0.1375 -0.2156
 3288DOPE   C1B38584  31.909  33.558  15.743  0.0189 -0.0258 -0.0941
 3288DOPE   D2B38585  31.563  33.666  15.430  0.0193  0.0180 -0.0194
 3288DOPE   C3B38586  31.608  33.412  15.062  0.3146  0.0921  0.2104
 3288DOPE   C4B38587  31.663  33.341  14.642  0.0525  0.0830  0.2644
 3289POSM   NC338588  34.011  29.468  16.136  0.1242  0.0183 -0.0198
 3289POSM   PO438589  33.625  29.504  16.295 -0.2174 -0.2516  0.1011
 3289POSM   AM138590  33.524  29.507  15.954  0.1085 -0.6031 -0.1163
 3289POSM   AM238591  33.481  29.784  15.792 -0.0175  0.1578 -0.0396
 3289POSM   T1A38592  33.284  29.481  15.521 -0.1469  0.2529  0.0427
 3289POSM   C2A38593  32.957  29.464  15.182 -0.2619  0.0446 -0.0680
 3289POSM   C3A38594  32.690  29.574  14.853  0.1056  0.4493  0.1405
 3289POSM   C1B38595  33.513  29.963  15.530  0.2327  0.2271 -0.1118
 3289POSM   D2B38596  33.409  30.125  15.085 -0.1958  0.0769 -0.0676
 3289POSM   C3B38597  33.155  29.767  14.791  0.1402  0.3285 -0.1360
 3289POSM   C4B38598  32.957  29.563  14.458  0.2146  0.3611  0.2176
 3290POSM   NC338599   0.460  24.587  16.968 -0.2259 -0.1538  0.0653
 3290POSM   PO438600   0.724  24.866  16.811 -0.0619 -0.0293  0.2043
 3290POSM   AM138601   0.500  24.744  16.541  0.2393 -0.1871 -0.1537
 3290POSM   AM238602   0.275  24.641  16.443 -0.4323 -0.2070  0.1926
 3290POSM   T1A38603   0.553  24.506  16.087 -0.1013  0.1731  0.1437
 3290POSM   C2A38604   0.678  24.440  15.583 -0.0717 -0.2889  0.0650
 3290POSM   C3A38605   0.548  24.723  15.250 -0.0358 -0.1157  0.1581
 3290POSM   C1B38606   0.064  24.805  16.200  0.0241  0.0715 -0.1568
 3290POSM   D2B38607  -0.280  24.841  15.882 -0.0703 -0.1594 -0.3070
 3290POSM   C3B38608  -0.347  24.413  15.693 -0.0862 -0.0351  0.4547
 3290POSM   C4B38609  -0.575  24.229  15.346  0.2198 -0.1197 -0.1362
 3291DOPC   NC338610  24.942  31.474  16.090 -0.1146  0.1541  0.2537
 3291DOPC   PO438611  24.887  31.765  16.324  0.1583 -0.1596  0.1519
 3291DOPC   GL138612  24.880  31.870  15.888 -0.1649 -0.2370 -0.3900
 3291DOPC   GL238613  24.871  32.128  15.754 -0.2841 -0.1178 -0.0427
 3291DOPC   C1A38614  24.697  31.475  15.652  0.0558  0.4375 -0.0193
 3291DOPC   D2A38615  24.540  31.058  15.521  0.4481  0.1565 -0.4827
 3291DOPC   C3A38616  24.114  30.889  15.512 -0.3486 -0.0896  0.0405
 3291DOPC   C4A38617  23.726  30.702  15.607  0.2441  0.0985 -0.0761
 3291DOPC   C1B38618  25.305  32.098  15.497 -0.0617 -0.0298 -0.0869
 3291DOPC   D2B38619  25.591  32.410  15.357 -0.2759  0.0658  0.0014
 3291DOPC   C3B38620  25.724  32.685  15.009 -0.0761 -0.0966 -0.2332
 3291DOPC   C4B38621  25.864  33.115  15.004  0.0948 -0.1320  0.1385
 3292DOPC   NC338622  24.526  25.830  16.575  0.2471 -0.1156  0.0259
 3292DOPC   PO438623  24.756  25.554  16.424  0.1978  0.1546  0.0678
 3292DOPC   GL138624  24.959  25.454  16.102  0.0172  0.3150  0.1188
 3292DOPC   GL238625  24.846  25.225  16.090 -0.0725 -0.0775  0.1953
 3292DOPC   C1A38626  25.155  25.496  15.715 -0.1569 -0.1018  0.1530
 3292DOPC   D2A38627  25.083  25.365  15.285 -0.0711  0.0113 -0.1343
 3292DOPC   C3A38628  25.164  25.052  14.951 -0.0996  0.2295  0.0716
 3292DOPC   C4A38629  25.138  25.062  14.481  0.0798 -0.1298  0.3115
 3292DOPC   C1B38630  24.685  25.090  15.700  0.2941 -0.5034 -0.0189
 3292DOPC   D2B38631  24.733  24.703  15.456  0.1374  0.0179  0.2005
 3292DOPC   C3B38632  24.765  24.733  15.004  0.0851  0.0301  0.2033
 3292DOPC   C4B38633  24.573  24.721  14.609  0.0986  0.1652  0.3111
 3293POSM   NC338634  29.687  23.583  17.062  0.5165  0.1924  0.2843
 3293POSM   PO438635  29.895  23.336  17.284  0.0791 -0.0067 -0.1711
 3293POSM   AM138636  29.982  23.205  16.986  0.1094  0.0938 -0.1352
 3293POSM   AM238637  30.080  23.329  16.775  0.0670  0.2835  0.0495
 3293POSM   T1A38638  29.739  23.120  16.511 -0.1514 -0.0125  0.1809
 3293POSM   C2A38639  29.835  22.952  16.078  0.0056 -0.2280  0.0600
 3293POSM   C3A38640  30.127  22.946  15.752  0.2617  0.1002  0.2237
 3293POSM   C1B38641  30.004  23.592  16.533 -0.0320  0.2888 -0.1470
 3293POSM   D2B38642  29.886  23.790  16.082  0.1286 -0.1829 -0.4253
 3293POSM   C3B38643  29.938  23.559  15.722  0.1370  0.0353  0.2726
 3293POSM   C4B38644  29.649  23.199  15.662  0.1348  0.3347  0.0008
 3294POSM   NC338645   0.582  28.476  16.346 -0.1572 -0.1535 -0.0489
 3294POSM   PO438646   0.487  28.813  16.525  0.0414 -0.2772  0.0955
 3294POSM   AM138647   0.415  28.874  16.189  0.1160 -0.1609 -0.0134
 3294POSM   AM238648   0.381  28.979  15.941 -0.2879 -0.1106 -0.0105
 3294POSM   T1A38649   0.080  28.592  15.875  0.1786  0.1851 -0.1223
 3294POSM   C2A38650  -0.167  28.260  15.643 -0.1799 -0.2550  0.0292
 3294POSM   C3A38651  -0.361  27.936  15.333 -0.3626 -0.0946 -0.3933
 3294POSM   C1B38652   0.392  28.944  15.589  0.1691 -0.1690  0.0579
 3294POSM   D2B38653   0.404  28.954  15.088  0.2095 -0.0918 -0.0498
 3294POSM   C3B38654   0.846  28.937  14.931  0.3398  0.4228  0.4810
 3294POSM   C4B38655   1.105  29.285  14.612  0.0649  0.0858  0.2296
 3295DOPE   NH338656  33.285  33.298  16.192  0.2265 -0.2676 -0.2005
 3295DOPE   PO438657  33.049  33.495  16.258 -0.0314 -0.4381 -0.4460
 3295DOPE   GL138658  33.011  33.639  15.871 -0.2189 -0.2471 -0.0665
 3295DOPE   GL238659  33.021  33.504  15.586  0.3325 -0.1740 -0.2342
 3295DOPE   C1A38660  33.232  33.956  15.546 -0.4143 -0.0478  0.0250
 3295DOPE   D2A38661  33.532  33.981  15.191  0.2231 -0.0848  0.2512
 3295DOPE   C3A38662  33.152  34.015  14.849  0.3617  0.0442 -0.3283
 3295DOPE   C4A38663  33.158  34.073  14.391 -0.0645  0.1846  0.0548
 3295DOPE   C1B38664  32.975  33.636  15.169 -0.2293  0.2600 -0.3511
 3295DOPE   D2B38665  32.880  33.649  14.675  0.1475 -0.0289  0.1790
 3295DOPE   C3B38666  32.695  34.066  14.509 -0.1619 -0.0592 -0.2934
 3295DOPE   C4B38667  32.682  34.409  14.268 -0.1559 -0.2571  0.2167
 3296DOPC   NC338668  29.829  32.562  17.231  0.0609  0.0796 -0.1119
 3296DOPC   PO438669  29.997  32.873  17.026 -0.5564  0.0750  0.0645
 3296DOPC   GL138670  29.905  32.796  16.703  0.1337 -0.3324  0.0649
 3296DOPC   GL238671  29.987  32.570  16.641  0.4992 -0.0323  0.0183
 3296DOPC   C1A38672  29.564  32.964  16.429 -0.0604  0.1594 -0.0887
 3296DOPC   D2A38673  29.199  33.193  16.436  0.1871  0.2663 -0.3201
 3296DOPC   C3A38674  28.959  32.888  16.077  0.3124 -0.0214 -0.0859
 3296DOPC   C4A38675  28.729  32.643  15.788 -0.0782 -0.2456 -0.0205
 3296DOPC   C1B38676  30.332  32.431  16.370 -0.2619  0.1778 -0.0784
 3296DOPC   D2B38677  30.658  32.594  16.056 -0.1355  0.0678 -0.4611
 3296DOPC   C3B38678  30.785  32.371  15.663  0.1631 -0.2111 -0.1584
 3296DOPC   C4B38679  30.667  32.412  15.198 -0.0237 -0.6303 -0.0639
 3297DOPE   NH338680  30.830  28.838  17.158  0.0100  0.0456 -0.0464
 3297DOPE   PO438681  31.123  28.978  17.091  0.1784  0.1364 -0.1666
 3297DOPE   GL138682  31.278  29.189  16.848  0.4121  0.1201  0.1932
 3297DOPE   GL238683  31.484  29.008  16.762 -0.0298 -0.1081  0.0337
 3297DOPE   C1A38684  31.083  29.277  16.428 -0.3057  0.0497  0.0045
 3297DOPE   D2A38685  31.343  29.495  16.141 -0.3592  0.4997 -0.1790
 3297DOPE   C3A38686  31.317  29.808  15.797  0.1148  0.0206 -0.1898
 3297DOPE   C4A38687  31.044  29.997  15.515 -0.0786 -0.0253 -0.2088
 3297DOPE   C1B38688  31.382  28.851  16.313  0.2421  0.0541 -0.2082
 3297DOPE   D2B38689  31.197  28.634  15.963  0.0017  0.1109 -0.2018
 3297DOPE   C3B38690  30.926  28.717  15.658  0.2278 -0.0148 -0.0789
 3297DOPE   C4B38691  30.575  28.961  15.620  0.0881 -0.0687 -0.1471
 3298DOPE   NH338692  34.388  26.632  16.561  0.0713 -0.2357  0.0485
 3298DOPE   PO438693  34.107  26.593  16.624 -0.1735  0.3449 -0.1359
 3298DOPE   GL138694  34.011  26.737  16.222  0.1829  0.1011 -0.1390
 3298DOPE   GL238695  33.780  26.777  16.221  0.1422 -0.0385 -0.1395
 3298DOPE   C1A38696  33.803  26.543  15.806  0.0840 -0.0273  0.0378
 3298DOPE   D2A38697  33.665  26.553  15.383  0.0990 -0.0368 -0.0533
 3298DOPE   C3A38698  33.606  26.238  15.060 -0.2822  0.0613  0.0327
 3298DOPE   C4A38699  33.247  25.969  14.886 -0.2501 -0.0590  0.3785
 3298DOPE   C1B38700  33.593  27.021  15.899 -0.1645  0.1259 -0.2963
 3298DOPE   D2B38701  33.577  27.237  15.414  0.1881  0.2061 -0.1203
 3298DOPE   C3B38702  33.675  27.077  15.001 -0.0545 -0.4481 -0.0310
 3298DOPE   C4B38703  33.615  27.180  14.541  0.2537  0.1132 -0.2464
 3299DOPE   NH338704  31.137  26.249  17.683  0.2850 -0.1240  0.2095
 3299DOPE   PO438705  30.896  26.386  17.598  0.0271  0.1392 -0.0966
 3299DOPE   GL138706  30.823  26.269  17.173 -0.1505 -0.1088 -0.2299
 3299DOPE   GL238707  30.801  26.032  17.272 -0.1417 -0.0068  0.2471
 3299DOPE   C1A38708  31.125  26.273  16.821 -0.4566  0.0898 -0.1938
 3299DOPE   D2A38709  31.084  26.373  16.359 -0.1640 -0.0510 -0.2987
 3299DOPE   C3A38710  31.384  26.626  16.122  0.3590 -0.0242  0.2184
 3299DOPE   C4A38711  31.397  27.045  16.056 -0.1521 -0.2017  0.1786
 3299DOPE   C1B38712  30.620  26.039  16.800  0.2546 -0.2374  0.0578
 3299DOPE   D2B38713  30.618  26.359  16.489  0.2585  0.1044  0.1630
 3299DOPE   C3B38714  30.686  26.241  16.082 -0.2335  0.3043 -0.1950
 3299DOPE   C4B38715  30.873  26.100  15.669  0.0292 -0.2289 -0.1107
 3300DOPS   CNO38716  24.728  27.976  16.682  0.1925  0.2971 -0.1173
 3300DOPS   PO438717  24.599  28.316  16.642  0.1888 -0.4067  0.1742
 3300DOPS   GL138718  24.647  28.564  16.282  0.2953  0.1977  0.0006
 3300DOPS   GL238719  24.468  28.384  16.096  0.1641 -0.2054  0.2541
 3300DOPS   C1A38720  24.582  28.923  16.029  0.0542 -0.3131  0.1837
 3300DOPS   D2A38721  24.810  29.022  15.591 -0.0717 -0.1705 -0.3470
 3300DOPS   C3A38722  24.958  28.976  15.167  0.3031 -0.1958  0.0395
 3300DOPS   C4A38723  25.039  28.556  14.948  0.0997 -0.0379  0.2158
 3300DOPS   C1B38724  24.581  28.549  15.643  0.2602  0.2454  0.2335
 3300DOPS   D2B38725  24.440  28.863  15.357  0.0932  0.2279 -0.2568
 3300DOPS   C3B38726  24.469  28.836  14.878  0.1870 -0.3977 -0.2899
 3300DOPS   C4B38727  24.343  29.198  14.614  0.0559 -0.2931  0.1174
 3301DOPE   NH338728  29.873  28.800  17.233 -0.3468 -0.1044  0.1639
 3301DOPE   PO438729  30.034  29.058  17.264 -0.1106  0.1706 -0.1459
 3301DOPE   GL138730  29.942  29.044  16.838 -0.0565  0.2510  0.2202
 3301DOPE   GL238731  29.938  28.756  16.683 -0.2765  0.1754  0.1024
 3301DOPE   C1A38732  29.812  29.376  16.537  0.1196  0.2142 -0.0576
 3301DOPE   D2A38733  29.809  29.497  16.088  0.1548 -0.1360  0.1318
 3301DOPE   C3A38734  30.191  29.650  15.867 -0.1088  0.2524  0.0537
 3301DOPE   C4A38735  30.429  29.457  15.492 -0.1022 -0.0103 -0.0493
 3301DOPE   C1B38736  29.747  28.952  16.311  0.4098  0.0590 -0.2492
 3301DOPE   D2B38737  29.422  29.110  16.041 -0.3892 -0.0013  0.1408
 3301DOPE   C3B38738  29.433  29.074  15.571  0.0887 -0.0097 -0.0321
 3301DOPE   C4B38739  29.396  29.029  15.110  0.0885 -0.0225  0.1308
 3302DOPE   NH338740  26.420  29.985  17.196  0.1605 -0.1432 -0.2724
 3302DOPE   PO438741  26.503  30.015  16.856 -0.0734  0.0823  0.0118
 3302DOPE   GL138742  26.639  30.000  16.485 -0.2028 -0.1204 -0.0036
 3302DOPE   GL238743  26.431  29.712  16.398 -0.0533 -0.1647  0.1752
 3302DOPE   C1A38744  26.533  30.086  16.004 -0.0660 -0.3638  0.1893
 3302DOPE   D2A38745  26.389  29.856  15.648  0.2570 -0.1875 -0.1455
 3302DOPE   C3A38746  26.525  29.761  15.242 -0.2137 -0.1657  0.1429
 3302DOPE   C4A38747  26.450  29.722  14.777 -0.0453 -0.1578 -0.0982
 3302DOPE   C1B38748  26.448  29.513  16.044  0.4764  0.2207 -0.1037
 3302DOPE   D2B38749  26.745  29.543  15.693 -0.0427 -0.1537 -0.0112
 3302DOPE   C3B38750  27.119  29.360  15.540  0.0135  0.0696 -0.1498
 3302DOPE   C4B38751  27.478  29.139  15.503 -0.2174 -0.0099 -0.3938
 3303POSM   NC338752  27.122  23.267  17.763  0.2004  0.1157 -0.1666
 3303POSM   PO438753  27.343  23.230  17.465  0.2114 -0.0282  0.0790
 3303POSM   AM138754  27.420  23.158  17.176 -0.3506  0.3512 -0.0871
 3303POSM   AM238755  27.359  23.312  16.906 -0.0148  0.0918 -0.2235
 3303POSM   T1A38756  27.400  22.830  16.746 -0.1514  0.0761 -0.0422
 3303POSM   C2A38757  27.295  22.521  16.390  0.1350  0.0100 -0.0317
 3303POSM   C3A38758  27.062  22.185  16.156  0.1985  0.0485  0.3138
 3303POSM   C1B38759  27.126  23.480  16.709  0.0777  0.1969 -0.2537
 3303POSM   D2B38760  27.013  23.464  16.268 -0.1706  0.0353 -0.4096
 3303POSM   C3B38761  27.186  23.786  15.951  0.2514 -0.1399  0.3053
 3303POSM   C4B38762  27.335  23.745  15.483  0.0223 -0.0118 -0.0588
 3304POSM   NC338763  27.927  26.945  16.444  0.3463  0.0598  0.2415
 3304POSM   PO438764  28.244  26.941  16.728 -0.4193 -0.0621 -0.1171
 3304POSM   AM138765  28.428  26.915  16.495 -0.0490 -0.0769 -0.2310
 3304POSM   AM238766  28.380  26.830  16.245  0.0075 -0.0792  0.2960
 3304POSM   T1A38767  28.831  27.077  16.220 -0.0367  0.2048 -0.1124
 3304POSM   C2A38768  28.952  27.238  15.773  0.0973  0.1166 -0.1521
 3304POSM   C3A38769  29.027  27.204  15.293 -0.2732 -0.0837 -0.2376
 3304POSM   C1B38770  28.168  26.599  16.161 -0.1848 -0.0172  0.0882
 3304POSM   D2B38771  27.958  26.441  15.795 -0.0288  0.0402  0.0282
 3304POSM   C3B38772  28.172  25.986  15.757  0.2657 -0.1999 -0.2057
 3304POSM   C4B38773  28.238  25.601  15.865 -0.0684  0.2078  0.3421
 3305DOPC   NC338774  28.937  29.162  17.217 -0.1116  0.1143  0.3605
 3305DOPC   PO438775  28.932  28.856  16.996  0.1365 -0.0447 -0.1937
 3305DOPC   GL138776  29.099  29.068  16.748  0.2044  0.0135  0.0395
 3305DOPC   GL238777  29.402  29.131  16.608  0.0238 -0.3472 -0.1350
 3305DOPC   C1A38778  28.992  29.033  16.319  0.2157  0.0254  0.2349
 3305DOPC   D2A38779  29.011  28.872  15.913 -0.1401  0.0610  0.0514
 3305DOPC   C3A38780  28.824  29.084  15.501 -0.0836 -0.1648 -0.3773
 3305DOPC   C4A38781  28.923  29.173  14.984 -0.0381  0.0626  0.1667
 3305DOPC   C1B38782  29.347  28.688  16.468  0.0882  0.2210  0.1816
 3305DOPC   D2B38783  29.257  28.454  16.064  0.1858  0.2213  0.1872
 3305DOPC   C3B38784  29.578  28.597  15.798 -0.0242  0.3334 -0.1417
 3305DOPC   C4B38785  29.618  28.651  15.350  0.3421  0.4165 -0.0845
 3306DOPC   NC338786  26.532  32.034  17.477 -0.2111  0.0554 -0.0945
 3306DOPC   PO438787  26.643  31.676  17.343  0.0336 -0.1345  0.1306
 3306DOPC   GL138788  27.039  31.688  17.025 -0.3689  0.1030 -0.2768
 3306DOPC   GL238789  27.360  31.670  17.063 -0.0636 -0.2410 -0.1963
 3306DOPC   C1A38790  27.096  31.527  16.585 -0.1343  0.2675 -0.1922
 3306DOPC   D2A38791  27.247  31.439  16.144  0.2395  0.2058  0.0625
 3306DOPC   C3A38792  27.391  30.972  15.970  0.4569 -0.2268 -0.0283
 3306DOPC   C4A38793  27.541  30.686  15.672 -0.2524  0.0893 -0.0338
 3306DOPC   C1B38794  27.641  31.848  16.733 -0.1369  0.0148 -0.1035
 3306DOPC   D2B38795  27.700  32.063  16.371  0.0335 -0.0102 -0.0123
 3306DOPC   C3B38796  27.938  31.826  16.053  0.1884  0.0945 -0.0280
 3306DOPC   C4B38797  28.321  31.477  16.003  0.0054 -0.0079 -0.2405
 3307POSM   NC338798  26.497  33.107  16.887 -0.1193  0.1854 -0.3306
 3307POSM   PO438799  26.163  33.031  16.708 -0.2230 -0.1144 -0.2890
 3307POSM   AM138800  26.212  32.862  16.404 -0.0377  0.2505 -0.0406
 3307POSM   AM238801  26.201  32.599  16.346  0.2010  0.1274 -0.1629
 3307POSM   T1A38802  26.300  32.925  15.899  0.1106 -0.1367  0.1201
 3307POSM   C2A38803  26.393  33.102  15.456  0.3117  0.0748 -0.0504
 3307POSM   C3A38804  26.323  33.402  15.090 -0.0751  0.3370 -0.1136
 3307POSM   C1B38805  26.396  32.470  16.124  0.0550 -0.1213 -0.0517
 3307POSM   D2B38806  26.536  32.268  15.747 -0.0134 -0.2835  0.1311
 3307POSM   C3B38807  26.469  32.303  15.328  0.0771 -0.2956  0.2876
 3307POSM   C4B38808  26.496  32.089  14.895 -0.1704  0.3175 -0.2580
 3308DOPC   NC338809  33.053  25.631  17.497 -0.0630  0.0334  0.0743
 3308DOPC   PO438810  32.974  25.569  17.100  0.2123  0.0303  0.0667
 3308DOPC   GL138811  32.905  25.591  16.693 -0.0608 -0.1752 -0.0354
 3308DOPC   GL238812  32.971  25.839  16.654 -0.2063  0.0234  0.1755
 3308DOPC   C1A38813  32.778  25.284  16.338 -0.1449 -0.0044  0.2258
 3308DOPC   D2A38814  32.669  25.032  15.987  0.3817 -0.0231  0.1348
 3308DOPC   C3A38815  32.248  25.127  15.878 -0.0070 -0.1744  0.0949
 3308DOPC   C4A38816  31.919  25.423  15.859  0.2756  0.0921  0.1294
 3308DOPC   C1B38817  32.858  25.792  16.181  0.0123 -0.1420 -0.1754
 3308DOPC   D2B38818  32.590  25.951  15.759 -0.0799  0.0750 -0.2542
 3308DOPC   C3B38819  32.116  25.920  15.879 -0.1019 -0.2627 -0.0807
 3308DOPC   C4B38820  31.778  26.164  16.073 -0.2203 -0.0551 -0.1260
 3309POSM   NC338821  23.017  31.029  16.516 -0.1543  0.0389 -0.2704
 3309POSM   PO438822  23.095  31.362  16.644  0.0003  0.1896  0.0645
 3309POSM   AM138823  23.317  31.399  16.384 -0.1515  0.0048 -0.0095
 3309POSM   AM238824  23.554  31.443  16.200  0.3178 -0.0639  0.1522
 3309POSM   T1A38825  23.369  31.112  15.951  0.3482  0.2147  0.3526
 3309POSM   C2A38826  23.259  30.876  15.530  0.0831  0.0264  0.2913
 3309POSM   C3A38827  23.043  30.964  15.132 -0.1328 -0.3311  0.0267
 3309POSM   C1B38828  23.563  31.592  15.846 -0.3383 -0.2762  0.0190
 3309POSM   D2B38829  23.401  31.452  15.430 -0.1470  0.2783  0.1620
 3309POSM   C3B38830  23.613  31.206  15.142 -0.0083  0.2235 -0.2005
 3309POSM   C4B38831  24.099  31.136  15.071  0.1981  0.3080  0.3016
 3310DOPC   NC338832  25.961  28.374  16.889  0.2702 -0.3613 -0.2338
 3310DOPC   PO438833  26.115  28.069  17.076 -0.1105  0.1193 -0.0710
 3310DOPC   GL138834  26.057  27.982  16.735  0.1919  0.1277  0.2585
 3310DOPC   GL238835  25.994  27.745  16.709 -0.0195  0.0813 -0.1084
 3310DOPC   C1A38836  26.299  28.218  16.377  0.1034 -0.0955  0.0375
 3310DOPC   D2A38837  26.336  28.342  15.962  0.0084 -0.1238  0.2920
 3310DOPC   C3A38838  26.800  28.499  15.858 -0.1793 -0.2904  0.1054
 3310DOPC   C4A38839  27.066  28.810  15.590  0.1084 -0.2798 -0.2283
 3310DOPC   C1B38840  26.149  27.754  16.246 -0.1203  0.0265 -0.0365
 3310DOPC   D2B38841  26.136  27.889  15.793 -0.1953  0.1903  0.4101
 3310DOPC   C3B38842  26.177  27.714  15.391 -0.1238  0.0288  0.1625
 3310DOPC   C4B38843  26.006  27.591  14.987  0.1399  0.0577  0.0994
 3311POSM   NC338844  25.027  34.242  16.265  0.0059  0.1478 -0.1672
 3311POSM   PO438845  24.874  33.897  16.148  0.2347 -0.0680  0.0639
 3311POSM   AM138846  24.933  33.935  15.849  0.0614 -0.5205 -0.1235
 3311POSM   AM238847  25.102  33.868  15.632 -0.1863 -0.1582  0.0633
 3311POSM   T1A38848  24.623  33.940  15.452 -0.0480 -0.0259 -0.0680
 3311POSM   C2A38849  24.181  33.890  15.310  0.2448  0.1922  0.1083
 3311POSM   C3A38850  23.822  34.227  15.324  0.0867  0.0230  0.1020
 3311POSM   C1B38851  25.085  33.689  15.360  0.0787 -0.1718 -0.0732
 3311POSM   D2B38852  24.908  33.722  14.912  0.1960 -0.2801  0.3091
 3311POSM   C3B38853  24.762  33.394  14.587  0.1726 -0.1033  0.1460
 3311POSM   C4B38854  24.790  33.120  14.222  0.0207  0.1332 -0.0405
 3312DOPE   NH338855  27.112  30.752  17.402  0.3779  0.2028 -0.0943
 3312DOPE   PO438856  27.151  30.577  17.107  0.2843 -0.1364 -0.1694
 3312DOPE   GL138857  27.142  30.580  16.617 -0.1938 -0.2379  0.0915
 3312DOPE   GL238858  26.867  30.544  16.461 -0.1323 -0.1220 -0.1213
 3312DOPE   C1A38859  27.285  30.507  16.171  0.1527  0.1133 -0.0466
 3312DOPE   D2A38860  27.528  30.233  15.870 -0.0779  0.0136  0.2904
 3312DOPE   C3A38861  27.648  30.260  15.414  0.3877  0.0756 -0.0687
 3312DOPE   C4A38862  27.383  30.239  15.044 -0.1370 -0.1272 -0.1945
 3312DOPE   C1B38863  26.748  30.568  16.000  0.0509  0.1041  0.1722
 3312DOPE   D2B38864  26.572  30.793  15.599 -0.0088 -0.0856  0.5608
 3312DOPE   C3B38865  26.345  30.612  15.237 -0.1718  0.0300  0.0933
 3312DOPE   C4B38866  26.128  30.550  14.756  0.2254 -0.0277 -0.1436
 3313DOPC   NC338867  34.437  25.396  16.661  0.1088 -0.1227 -0.1692
 3313DOPC   PO438868  34.162  25.276  16.942  0.0650 -0.0796  0.2208
 3313DOPC   GL138869  33.895  25.161  16.665 -0.0700  0.3979 -0.1550
 3313DOPC   GL238870  33.782  25.397  16.578 -0.1049 -0.0636  0.1684
 3313DOPC   C1A38871  33.633  24.869  16.420  0.0154  0.0729 -0.0058
 3313DOPC   D2A38872  33.304  24.778  16.056 -0.0867 -0.5055 -0.0583
 3313DOPC   C3A38873  32.955  24.841  16.362 -0.1984 -0.1786  0.1563
 3313DOPC   C4A38874  32.759  24.984  16.743  0.1014  0.0762 -0.0005
 3313DOPC   C1B38875  33.654  25.425  16.101 -0.0210  0.3537  0.1538
 3313DOPC   D2B38876  33.692  25.666  15.637 -0.0348 -0.0191  0.2234
 3313DOPC   C3B38877  33.824  26.040  15.478  0.5004  0.0116  0.2589
 3313DOPC   C4B38878  34.118  26.382  15.443  0.4993  0.0016 -0.2047
 3314DOPC   NC338879  30.636  23.959  17.298  0.1104  0.0743 -0.1894
 3314DOPC   PO438880  30.797  24.304  17.219  0.0358  0.3396  0.0853
 3314DOPC   GL138881  30.633  24.313  16.910  0.3987 -0.3020 -0.0215
 3314DOPC   GL238882  30.558  24.095  16.779  0.2421  0.2953 -0.2542
 3314DOPC   C1A38883  30.702  24.502  16.494  0.0301  0.2055  0.0352
 3314DOPC   D2A38884  30.718  24.543  16.070  0.4253 -0.0770  0.3038
 3314DOPC   C3A38885  30.657  24.608  15.624 -0.1339  0.2751 -0.0207
 3314DOPC   C4A38886  30.413  24.665  15.239 -0.2895 -0.2975  0.3575
 3314DOPC   C1B38887  30.707  24.001  16.368 -0.0955 -0.0546 -0.2344
 3314DOPC   D2B38888  30.849  23.619  16.100 -0.1685 -0.1945  0.0070
 3314DOPC   C3B38889  30.773  23.594  15.667  0.1743 -0.3059 -0.1003
 3314DOPC   C4B38890  30.780  23.708  15.202 -0.0257  0.3004 -0.1002
 3315DOPC   NC338891  27.014  27.728  16.828 -0.2539 -0.1857 -0.1203
 3315DOPC   PO438892  27.123  27.339  16.871 -0.0607  0.2226  0.1294
 3315DOPC   GL138893  27.220  27.424  16.476 -0.3001  0.0439 -0.4221
 3315DOPC   GL238894  27.161  27.275  16.249 -0.0764  0.3274 -0.2055
 3315DOPC   C1A38895  27.204  27.885  16.293 -0.1484  0.0055  0.3171
 3315DOPC   D2A38896  27.146  28.166  15.994  0.0653 -0.0435 -0.1165
 3315DOPC   C3A38897  27.366  28.363  15.585 -0.0632  0.0742  0.0930
 3315DOPC   C4A38898  27.417  28.571  15.167  0.3014 -0.0029 -0.0769
 3315DOPC   C1B38899  27.114  26.914  16.005  0.0189  0.0653 -0.0019
 3315DOPC   D2B38900  26.924  26.572  15.705  0.3464  0.2042 -0.1081
 3315DOPC   C3B38901  26.834  26.925  15.379  0.2656 -0.0550  0.2321
 3315DOPC   C4B38902  26.945  27.212  15.032 -0.3454  0.2937  0.2400
 3316DOPC   NC338903  32.226  31.503  15.890  0.1629 -0.0538 -0.3160
 3316DOPC   PO438904  32.618  31.563  15.981  0.1351  0.0996  0.0088
 3316DOPC   GL138905  32.843  31.845  15.707  0.1674 -0.0429 -0.1316
 3316DOPC   GL238906  32.967  31.738  15.473  0.1424 -0.0446  0.0465
 3316DOPC   C1A38907  32.834  32.155  15.368 -0.1223  0.1251 -0.1605
 3316DOPC   D2A38908  32.902  32.239  14.915 -0.4388  0.1308  0.1126
 3316DOPC   C3A38909  32.510  32.322  14.573  0.1514 -0.0799  0.1421
 3316DOPC   C4A38910  32.477  32.396  14.078  0.2344 -0.0126 -0.0077
 3316DOPC   C1B38911  32.767  31.436  15.130 -0.0705 -0.1331 -0.0040
 3316DOPC   D2B38912  32.683  31.298  14.686  0.0616  0.0453 -0.0474
 3316DOPC   C3B38913  33.068  31.385  14.509  0.0942  0.0492 -0.1837
 3316DOPC   C4B38914  33.334  31.528  14.210 -0.0094 -0.2804 -0.0544
 3317DOPS   CNO38915  29.410  28.294  17.712 -0.1800  0.1247  0.1987
 3317DOPS   PO438916  29.608  28.480  17.454 -0.0403 -0.0673  0.0268
 3317DOPS   GL138917  29.710  28.320  17.081  0.3685 -0.0315  0.0119
 3317DOPS   GL238918  29.979  28.371  17.035  0.1448  0.3200 -0.0331
 3317DOPS   C1A38919  29.486  28.189  16.689 -0.1324  0.2031  0.0853
 3317DOPS   D2A38920  29.541  27.888  16.365 -0.1682  0.0011  0.4479
 3317DOPS   C3A38921  29.583  28.028  15.973 -0.1050 -0.1410 -0.2011
 3317DOPS   C4A38922  29.382  28.188  15.612 -0.0783  0.0865 -0.0542
 3317DOPS   C1B38923  29.950  28.265  16.587 -0.0481 -0.3346 -0.0820
 3317DOPS   D2B38924  29.716  28.475  16.226 -0.1956 -0.0364  0.3732
 3317DOPS   C3B38925  29.961  28.261  15.919 -0.1962  0.2182 -0.1612
 3317DOPS   C4B38926  29.999  28.125  15.517  0.3034  0.1695 -0.0448
 3318DOPC   NC338927  29.900  27.045  17.007 -0.0166  0.0722  0.3322
 3318DOPC   PO438928  30.075  27.036  17.392  0.0180 -0.1125  0.3288
 3318DOPC   GL138929  30.490  26.989  17.250  0.0702 -0.0691 -0.0400
 3318DOPC   GL238930  30.424  27.092  17.048 -0.3291  0.1160  0.1758
 3318DOPC   C1A38931  30.762  26.707  17.033  0.1047 -0.4780 -0.0300
 3318DOPC   D2A38932  31.105  26.834  16.815 -0.0146 -0.0098  0.0216
 3318DOPC   C3A38933  31.159  27.129  16.466  0.2178  0.3675 -0.1989
 3318DOPC   C4A38934  30.948  27.197  16.050 -0.1086  0.3920  0.2314
 3318DOPC   C1B38935  30.147  27.448  16.865  0.0454 -0.0759  0.1998
 3318DOPC   D2B38936  30.095  27.801  16.516  0.1040  0.0920 -0.0108
 3318DOPC   C3B38937  30.024  27.766  16.065  0.1278  0.4230 -0.3981
 3318DOPC   C4B38938  29.942  27.505  15.710  0.0390 -0.0283 -0.1901
 3319DOPS   CNO38939  31.429  30.162  16.871 -0.2561  0.4220 -0.0337
 3319DOPS   PO438940  31.077  30.081  17.015 -0.1773 -0.1071 -0.1383
 3319DOPS   GL138941  30.862  30.191  16.655  0.1266 -0.0124  0.0327
 3319DOPS   GL238942  30.688  30.353  16.831 -0.3697 -0.0739 -0.0291
 3319DOPS   C1A38943  30.703  29.920  16.385  0.0581 -0.1453 -0.0598
 3319DOPS   D2A38944  30.367  29.634  16.433  0.2916  0.0504 -0.2330
 3319DOPS   C3A38945  29.989  29.883  16.264 -0.0542 -0.2020 -0.2436
 3319DOPS   C4A38946  29.765  30.015  15.886  0.0266  0.2935 -0.1005
 3319DOPS   C1B38947  30.281  30.135  16.875 -0.2840  0.0157 -0.1009
 3319DOPS   D2B38948  29.912  29.826  16.760  0.0980 -0.1966 -0.2585
 3319DOPS   C3B38949  29.573  29.943  16.458  0.2267  0.0195 -0.2203
 3319DOPS   C4B38950  29.233  29.972  16.135  0.1976 -0.0119  0.0134
 3320POSM   NC338951   1.132  23.456  17.115 -0.0456 -0.1255  0.0377
 3320POSM   PO438952   1.329  23.182  16.978  0.1011 -0.0437 -0.3445
 3320POSM   AM138953   1.290  23.184  16.639 -0.2387 -0.0037 -0.1411
 3320POSM   AM238954   1.118  23.010  16.544  0.0104 -0.1630  0.0724
 3320POSM   T1A38955   1.315  23.322  16.140 -0.1087 -0.2459 -0.1334
 3320POSM   C2A38956   0.993  23.615  15.855  0.0523 -0.2857 -0.0286
 3320POSM   C3A38957   0.658  23.564  15.521 -0.2506 -0.5622 -0.0021
 3320POSM   C1B38958   0.949  22.874  16.345  0.2024 -0.4383 -0.1025
 3320POSM   D2B38959   0.613  22.852  16.095 -0.0528  0.2425  0.1585
 3320POSM   C3B38960   0.399  22.627  15.753 -0.0118  0.1750 -0.2211
 3320POSM   C4B38961   0.460  22.513  15.313 -0.4460 -0.2708 -0.0414
 3321DOPS   CNO38962  27.812  28.167  17.337 -0.1210 -0.2972  0.0448
 3321DOPS   PO438963  27.834  28.146  16.931  0.0697  0.0800  0.0703
 3321DOPS   GL138964  27.839  28.436  16.602  0.1025  0.1194  0.4144
 3321DOPS   GL238965  28.226  28.395  16.500 -0.1485  0.0770  0.1352
 3321DOPS   C1A38966  27.588  28.293  16.205 -0.0293 -0.2030 -0.0102
 3321DOPS   D2A38967  27.562  27.899  15.943  0.1738 -0.3818 -0.0032
 3321DOPS   C3A38968  27.230  27.884  15.637 -0.0952  0.1855  0.2249
 3321DOPS   C4A38969  27.109  27.527  15.414  0.1931 -0.3032  0.1342
 3321DOPS   C1B38970  28.101  28.369  16.095 -0.0211  0.0025  0.2450
 3321DOPS   D2B38971  27.920  28.180  15.739 -0.0138  0.0880  0.1195
 3321DOPS   C3B38972  27.921  28.294  15.318  0.0299  0.2185  0.2310
 3321DOPS   C4B38973  27.984  28.559  14.935 -0.0884  0.0509  0.0360
 3322DOPS   CNO38974  24.709  26.568  16.348  0.2282  0.0572  0.1540
 3322DOPS   PO438975  24.784  26.205  16.346 -0.0752 -0.2297 -0.0561
 3322DOPS   GL138976  24.690  26.004  16.010  0.1484 -0.1188 -0.1595
 3322DOPS   GL238977  24.505  26.132  15.864  0.0080  0.0223  0.2321
 3322DOPS   C1A38978  24.625  25.659  15.689 -0.3045 -0.0094 -0.0995
 3322DOPS   D2A38979  24.613  25.685  15.227 -0.0364  0.3619 -0.0131
 3322DOPS   C3A38980  24.783  25.442  14.847 -0.4907  0.3293  0.0581
 3322DOPS   C4A38981  25.265  25.478  14.704 -0.0177 -0.1980 -0.1192
 3322DOPS   C1B38982  24.713  26.166  15.403  0.0056 -0.0731 -0.7441
 3322DOPS   D2B38983  24.733  26.172  14.925  0.2877  0.0285  0.0022
 3322DOPS   C3B38984  24.531  25.844  14.662 -0.2463  0.1185 -0.1051
 3322DOPS   C4B38985  24.285  25.704  14.319  0.0864 -0.0885 -0.1402
 3323DOPE   NH338986  26.311  27.497  17.048  0.4426 -0.1862  0.3450
 3323DOPE   PO438987  26.631  27.396  16.988 -0.0284  0.0118  0.0673
 3323DOPE   GL138988  26.496  27.433  16.628  0.2598  0.3844  0.5163
 3323DOPE   GL238989  26.485  27.755  16.655  0.2897 -0.1101  0.3265
 3323DOPE   C1A38990  26.561  27.193  16.246 -0.0744  0.0094 -0.0318
 3323DOPE   D2A38991  26.655  27.002  15.873  0.2620  0.0781 -0.2579
 3323DOPE   C3A38992  26.393  26.695  15.589  0.1264  0.2453  0.0568
 3323DOPE   C4A38993  26.424  26.691  15.130  0.0571  0.1604 -0.0538
 3323DOPE   C1B38994  26.772  27.653  16.319 -0.1030  0.0576  0.2316
 3323DOPE   D2B38995  26.937  27.491  15.898 -0.0973 -0.3312  0.0605
 3323DOPE   C3B38996  26.678  27.402  15.490 -0.0591 -0.1209  0.2331
 3323DOPE   C4B38997  26.396  27.141  15.314  0.3138 -0.1470  0.1595
 3324DOPE   NH338998  32.674  24.232  17.166 -0.0686  0.0177 -0.1792
 3324DOPE   PO438999  32.928  24.430  17.224  0.0063 -0.2084 -0.3152
 3324DOPE   GL139000  32.812  24.522  16.881  0.0681  0.1849  0.2128
 3324DOPE   GL239001  33.115  24.505  16.735 -0.1350 -0.1377  0.1013
 3324DOPE   C1A39002  32.439  24.441  16.650  0.2812  0.4027 -0.0456
 3324DOPE   D2A39003  32.280  24.231  16.288 -0.1589  0.2460  0.1424
 3324DOPE   C3A39004  32.050  24.455  15.925 -0.2146  0.0587  0.0096
 3324DOPE   C4A39005  31.805  24.870  15.814 -0.3266  0.3764 -0.1908
 3324DOPE   C1B39006  33.234  24.953  16.753  0.0738 -0.1449 -0.3652
 3324DOPE   D2B39007  33.301  25.321  16.460 -0.4297 -0.0170  0.2254
 3324DOPE   C3B39008  33.208  25.265  16.039  0.1030  0.3362 -0.2526
 3324DOPE   C4B39009  33.030  25.057  15.692 -0.0442  0.1604  0.0935
 3325DOPE   NH339010  31.233  32.912  16.701  0.1383  0.1574 -0.0831
 3325DOPE   PO439011  31.000  33.090  16.744  0.2174 -0.2132  0.0401
 3325DOPE   GL139012  30.965  33.141  16.343  0.0081  0.1465 -0.2055
 3325DOPE   GL239013  30.728  33.302  16.323  0.2380  0.2660 -0.0046
 3325DOPE   C1A39014  31.226  33.015  16.019 -0.2636 -0.2255 -0.1799
 3325DOPE   D2A39015  31.192  32.684  15.715 -0.1592 -0.1824  0.1376
 3325DOPE   C3A39016  30.831  32.864  15.409 -0.3018 -0.0935  0.1568
 3325DOPE   C4A39017  30.490  32.961  15.161  0.0501 -0.0667  0.0824
 3325DOPE   C1B39018  30.524  33.144  15.919 -0.0886 -0.0041  0.0860
 3325DOPE   D2B39019  30.373  32.770  15.673 -0.1524 -0.0362 -0.2280
 3325DOPE   C3B39020  30.249  32.304  15.779  0.0629 -0.0206 -0.0578
 3325DOPE   C4B39021  30.321  31.946  15.516 -0.1872  0.1388  0.0498
 3326DOPC   NC339022  27.209  29.806  16.937  0.0070 -0.3923 -0.3673
 3326DOPC   PO439023  27.028  30.136  16.856 -0.0614  0.0829 -0.1536
 3326DOPC   GL139024  27.292  30.187  16.457  0.1352 -0.0083 -0.1554
 3326DOPC   GL239025  27.344  29.865  16.475 -0.1750  0.0703 -0.0678
 3326DOPC   C1A39026  27.016  30.089  16.152 -0.4247  0.0940  0.1641
 3326DOPC   D2A39027  27.183  29.833  15.777 -0.1205 -0.3153 -0.0780
 3326DOPC   C3A39028  27.212  29.866  15.332  0.1748  0.2364  0.0094
 3326DOPC   C4A39029  27.295  29.504  14.998 -0.0678 -0.0972  0.0980
 3326DOPC   C1B39030  27.547  29.668  16.087 -0.1669 -0.3349 -0.1392
 3326DOPC   D2B39031  27.603  29.726  15.624  0.2165  0.1245 -0.0539
 3326DOPC   C3B39032  27.997  29.552  15.439  0.3425 -0.0103  0.0405
 3326DOPC   C4B39033  28.354  29.317  15.381 -0.1596  0.2276 -0.1263
 3327DOPC   NC339034  34.554  27.558  16.401 -0.0358  0.0188 -0.2408
 3327DOPC   PO439035  34.573  27.901  16.167  0.0935 -0.0581 -0.0206
 3327DOPC   GL139036  34.691  27.628  15.922 -0.1796  0.3536  0.0665
 3327DOPC   GL239037  34.798  27.329  16.004 -0.3626  0.0275  0.2885
 3327DOPC   C1A39038  34.683  27.674  15.467  0.1433  0.0926  0.1288
 3327DOPC   D2A39039  34.785  27.610  14.979 -0.1814  0.1691  0.0536
 3327DOPC   C3A39040  34.564  27.997  14.774 -0.0656 -0.1849 -0.1483
 3327DOPC   C4A39041  34.337  28.232  14.404 -0.0258 -0.1405  0.3669
 3327DOPC   C1B39042  35.168  27.067  15.973  0.3897  0.0152 -0.0096
 3327DOPC   D2B39043  35.417  26.833  15.681  0.2219 -0.2206 -0.0036
 3327DOPC   C3B39044  35.349  26.540  15.249 -0.3299  0.1569 -0.2148
 3327DOPC   C4B39045  35.302  26.332  14.825  0.0116  0.1813  0.0375
 3328POSM   NC339046  27.289  28.812  16.941 -0.0238  0.0608 -0.0721
 3328POSM   PO439047  27.045  28.577  17.168  0.0084  0.1358  0.2822
 3328POSM   AM139048  26.963  28.522  16.856 -0.1067  0.0514 -0.1431
 3328POSM   AM239049  26.953  28.290  16.694 -0.0300  0.1457 -0.1631
 3328POSM   T1A39050  27.075  28.714  16.426 -0.0959  0.2989 -0.1633
 3328POSM   C2A39051  27.328  28.661  16.025 -0.3396  0.1391  0.2893
 3328POSM   C3A39052  27.723  28.702  15.766  0.0176  0.0851 -0.2027
 3328POSM   C1B39053  26.751  28.182  16.401 -0.2241  0.1247 -0.0065
 3328POSM   D2B39054  26.685  28.005  16.002  0.0107 -0.2531 -0.1042
 3328POSM   C3B39055  26.663  27.928  15.556  0.1155 -0.1541 -0.3469
 3328POSM   C4B39056  26.929  27.905  15.169  0.0279 -0.1330  0.0180
 3329POSM   NC339057  24.999  32.995  16.360  0.1408  0.1403  0.0567
 3329POSM   PO439058  25.340  32.754  16.294  0.0544 -0.1683  0.0340
 3329POSM   AM139059  25.290  32.836  15.980  0.2814  0.0157 -0.1172
 3329POSM   AM239060  25.138  33.052  15.864 -0.0609  0.0400  0.2878
 3329POSM   T1A39061  25.091  32.598  15.640 -0.1895  0.0789 -0.1555
 3329POSM   C2A39062  25.046  32.450  15.253  0.2684  0.2094  0.1438
 3329POSM   C3A39063  24.973  32.331  14.763  0.1864 -0.0735  0.0194
 3329POSM   C1B39064  25.077  33.071  15.537  0.0144  0.0916 -0.0911
 3329POSM   D2B39065  25.023  33.278  15.114 -0.3096 -0.1405 -0.3313
 3329POSM   C3B39066  24.915  32.883  14.837  0.0056  0.1517 -0.0906
 3329POSM   C4B39067  24.721  32.592  14.451  0.0414 -0.0587  0.3761
 3330DOPE   NH339068  25.792  25.671  16.542  0.2428 -0.0844 -0.1220
 3330DOPE   PO439069  25.852  25.882  16.771  0.0303 -0.0125 -0.3098
 3330DOPE   GL139070  26.274  25.938  16.638 -0.1021  0.1117 -0.0579
 3330DOPE   GL239071  26.248  25.740  16.432 -0.0748  0.1582 -0.1759
 3330DOPE   C1A39072  26.398  26.108  16.182 -0.1937  0.1963 -0.0938
 3330DOPE   D2A39073  26.522  26.136  15.738 -0.0963  0.1149  0.0285
 3330DOPE   C3A39074  26.339  26.054  15.302 -0.0332 -0.0850  0.2898
 3330DOPE   C4A39075  25.958  26.033  14.941  0.0868  0.1097  0.2009
 3330DOPE   C1B39076  26.445  25.614  16.054 -0.0190 -0.0604 -0.0497
 3330DOPE   D2B39077  26.758  25.579  15.725  0.0841 -0.0313  0.1059
 3330DOPE   C3B39078  26.529  25.503  15.336 -0.0097  0.2015  0.2672
 3330DOPE   C4B39079  26.550  25.328  14.916 -0.2670 -0.3702 -0.1765
 3331DOPE   NH339080  24.338  27.290  16.894  0.4234 -0.3805 -0.1393
 3331DOPE   PO439081  24.459  27.564  16.782 -0.1537  0.0662  0.0304
 3331DOPE   GL139082  24.749  27.554  16.476  0.2588 -0.3747  0.1311
 3331DOPE   GL239083  24.774  27.257  16.422 -0.0060  0.1996 -0.0371
 3331DOPE   C1A39084  25.187  27.511  16.449 -0.2036  0.3300 -0.0863
 3331DOPE   D2A39085  25.488  27.167  16.324 -0.1274 -0.1707  0.3636
 3331DOPE   C3A39086  25.939  27.255  16.197 -0.1520  0.0326  0.0159
 3331DOPE   C4A39087  26.141  26.930  15.947 -0.0925 -0.2216 -0.0056
 3331DOPE   C1B39088  25.013  27.151  16.112 -0.1092  0.1643 -0.1799
 3331DOPE   D2B39089  25.304  26.789  16.056  0.3555  0.0331  0.4908
 3331DOPE   C3B39090  25.661  27.012  15.822 -0.0309  0.1588  0.1688
 3331DOPE   C4B39091  25.886  26.980  15.388 -0.3204 -0.0584  0.1552
 3332DOPE   NH339092  28.821  34.663  16.718 -0.1049 -0.0293  0.0842
 3332DOPE   PO439093  28.489  34.560  16.786  0.2495  0.0062 -0.0366
 3332DOPE   GL139094  28.368  34.628  16.381  0.3299  0.1752  0.2066
 3332DOPE   GL239095  28.122  34.675  16.430 -0.0795 -0.2600 -0.2431
 3332DOPE   C1A39096  28.371  34.751  15.932 -0.1279 -0.0677  0.3043
 3332DOPE   D2A39097  28.106  34.807  15.532 -0.3004 -0.2442 -0.1975
 3332DOPE   C3A39098  28.291  35.014  15.172 -0.3706 -0.1577 -0.2776
 3332DOPE   C4A39099  28.495  35.249  14.845  0.2806 -0.1948 -0.1382
 3332DOPE   C1B39100  27.928  34.616  15.949  0.1756  0.1197  0.0223
 3332DOPE   D2B39101  27.733  34.415  15.530  0.1188  0.0475  0.2178
 3332DOPE   C3B39102  27.306  34.475  15.392  0.0455 -0.5902  0.0449
 3332DOPE   C4B39103  26.965  34.257  15.533 -0.1220  0.1288 -0.0596
 3333DOPC   NC339104  23.807  24.565  15.836  0.1516  0.0671 -0.0957
 3333DOPC   PO439105  23.516  24.635  16.093 -0.0680 -0.0133 -0.2010
 3333DOPC   GL139106  23.371  24.565  15.671  0.1634  0.1376  0.0674
 3333DOPC   GL239107  23.279  24.355  15.488  0.2139 -0.1721 -0.0426
 3333DOPC   C1A39108  23.619  24.735  15.309 -0.1522 -0.0587 -0.0168
 3333DOPC   D2A39109  23.616  24.766  14.855 -0.3287 -0.0933 -0.0141
 3333DOPC   C3A39110  23.767  25.179  14.735  0.1283  0.0513 -0.1817
 3333DOPC   C4A39111  23.895  25.513  14.460  0.0476 -0.0602 -0.1010
 3333DOPC   C1B39112  23.572  24.317  15.137 -0.2971  0.0956  0.2603
 3333DOPC   D2B39113  23.950  24.386  14.888  0.0813 -0.0992  0.0021
 3333DOPC   C3B39114  23.969  24.617  14.496 -0.0984  0.3429  0.0420
 3333DOPC   C4B39115  24.196  24.920  14.235 -0.0422  0.1646  0.1556
 3334DOPC   NC339116  23.563  28.177  16.523  0.0071 -0.0424 -0.3070
 3334DOPC   PO439117  23.738  28.340  16.830 -0.2686 -0.0722 -0.0008
 3334DOPC   GL139118  23.832  28.540  16.439 -0.2626 -0.1036 -0.2964
 3334DOPC   GL239119  24.074  28.431  16.465  0.0752 -0.1478  0.4299
 3334DOPC   C1A39120  23.974  28.370  16.008 -0.0133  0.1742  0.1569
 3334DOPC   D2A39121  24.084  28.537  15.605  0.4907  0.1417 -0.0308
 3334DOPC   C3A39122  24.218  28.502  15.122  0.3293 -0.0146  0.0609
 3334DOPC   C4A39123  24.418  28.397  14.723  0.3738 -0.3867  0.1302
 3334DOPC   C1B39124  24.139  28.822  16.193  0.0279 -0.1275 -0.0185
 3334DOPC   D2B39125  24.182  29.121  15.816 -0.0382 -0.0511 -0.1144
 3334DOPC   C3B39126  23.835  29.346  15.783  0.0476 -0.1475 -0.2597
 3334DOPC   C4B39127  23.571  29.638  15.640  0.2707 -0.1912 -0.0919
 3335POSM   NC339128  27.519  25.814  17.257  0.3727 -0.2504 -0.0169
 3335POSM   PO439129  27.831  25.727  17.129  0.0181 -0.4410  0.1197
 3335POSM   AM139130  27.956  25.583  16.886  0.0071  0.1846  0.0553
 3335POSM   AM239131  28.039  25.723  16.639  0.2715  0.0897 -0.3671
 3335POSM   T1A39132  27.969  25.150  16.646 -0.2304 -0.1677  0.0286
 3335POSM   C2A39133  28.164  24.813  16.354 -0.0727 -0.2207 -0.1127
 3335POSM   C3A39134  28.464  24.541  16.114 -0.0875  0.3443  0.2372
 3335POSM   C1B39135  28.295  25.501  16.542  0.3649 -0.0612  0.3098
 3335POSM   D2B39136  28.562  25.156  16.382 -0.1777  0.0018  0.0238
 3335POSM   C3B39137  28.565  24.986  15.956 -0.2007 -0.0180 -0.2503
 3335POSM   C4B39138  28.538  24.796  15.587  0.0246 -0.1386  0.0994
 3336DOPC   NC339139  25.191  33.511  15.987 -0.1270 -0.0221 -0.2733
 3336DOPC   PO439140  25.467  33.736  16.211  0.3390 -0.3433  0.4210
 3336DOPC   GL139141  25.537  33.707  15.774 -0.3277 -0.4629 -0.1789
 3336DOPC   GL239142  25.797  33.599  15.886  0.0133  0.2686 -0.1824
 3336DOPC   C1A39143  25.627  33.863  15.303  0.0133 -0.1247  0.0501
 3336DOPC   D2A39144  25.246  34.102  15.072  0.0835  0.1652  0.2648
 3336DOPC   C3A39145  25.271  34.534  15.117 -0.2899 -0.0868 -0.1258
 3336DOPC   C4A39146  25.452  34.905  15.263  0.0637 -0.2134 -0.0108
 3336DOPC   C1B39147  25.994  33.503  15.470  0.5903  0.2249 -0.0643
 3336DOPC   D2B39148  25.943  33.641  15.001  0.0116  0.3354 -0.2104
 3336DOPC   C3B39149  26.172  33.611  14.611 -0.0735 -0.1091  0.3278
 3336DOPC   C4B39150  26.182  33.249  14.277  0.4009 -0.1461  0.1474
 3337DOPE   NH339151  31.017  25.374  17.616 -0.1343 -0.0791  0.4926
 3337DOPE   PO439152  31.056  25.720  17.618 -0.0536  0.1620  0.1773
 3337DOPE   GL139153  31.323  25.677  17.432 -0.0731 -0.3485  0.0718
 3337DOPE   GL239154  31.303  25.959  17.208 -0.3047  0.2805 -0.3161
 3337DOPE   C1A39155  31.415  25.433  17.021 -0.0574 -0.3211 -0.1660
 3337DOPE   D2A39156  31.511  25.483  16.572 -0.0421  0.0879  0.0140
 3337DOPE   C3A39157  31.912  25.381  16.346 -0.1765 -0.2174  0.0391
 3337DOPE   C4A39158  32.326  25.271  16.557  0.3067  0.1761 -0.1546
 3337DOPE   C1B39159  31.673  25.928  16.944 -0.0008  0.0932 -0.2452
 3337DOPE   D2B39160  32.039  25.611  16.972 -0.0372 -0.0190 -0.0002
 3337DOPE   C3B39161  32.394  25.735  16.668 -0.0573 -0.2407 -0.5272
 3337DOPE   C4B39162  32.393  25.601  16.217 -0.1767  0.0137 -0.0228
 3338DOPC   NC339163  26.676  30.873  16.779  0.0874  0.0967 -0.0967
 3338DOPC   PO439164  26.608  30.541  17.010 -0.1873 -0.0821 -0.3101
 3338DOPC   GL139165  26.413  30.463  16.651  0.1640  0.0762 -0.4897
 3338DOPC   GL239166  26.348  30.640  16.508 -0.1531 -0.1023 -0.0804
 3338DOPC   C1A39167  26.150  30.232  16.316 -0.0089  0.2367  0.1141
 3338DOPC   D2A39168  25.967  29.901  16.050  0.0392 -0.2169 -0.0225
 3338DOPC   C3A39169  25.809  29.974  15.648  0.0179  0.0121  0.3784
 3338DOPC   C4A39170  25.492  29.722  15.531 -0.1088 -0.1261  0.1956
 3338DOPC   C1B39171  26.641  30.986  16.308 -0.4169 -0.2034 -0.0158
 3338DOPC   D2B39172  26.937  31.016  15.946  0.2364 -0.2927  0.0316
 3338DOPC   C3B39173  27.042  30.730  15.640 -0.0179  0.2518 -0.1793
 3338DOPC   C4B39174  27.068  30.295  15.691 -0.1239 -0.1704 -0.0877
 3339DOPE   NH339175  22.881  31.763  16.827  0.1388 -0.0931  0.1175
 3339DOPE   PO439176  22.768  32.067  16.734  0.1664 -0.1858 -0.1511
 3339DOPE   GL139177  22.986  32.237  16.418 -0.2695  0.1247  0.2033
 3339DOPE   GL239178  23.263  32.406  16.400  0.1934  0.1702  0.1129
 3339DOPE   C1A39179  23.099  32.081  15.986  0.1572 -0.3005  0.1367
 3339DOPE   D2A39180  23.004  31.864  15.569  0.4423  0.1873  0.3276
 3339DOPE   C3A39181  23.067  32.048  15.193 -0.0708 -0.0640  0.3008
 3339DOPE   C4A39182  23.356  32.155  14.795 -0.1672 -0.1327 -0.3095
 3339DOPE   C1B39183  23.483  32.450  16.015  0.0792  0.1784 -0.1874
 3339DOPE   D2B39184  23.566  32.681  15.607  0.0631 -0.1423 -0.3494
 3339DOPE   C3B39185  23.669  33.026  15.279 -0.0391  0.1572  0.1883
 3339DOPE   C4B39186  23.698  33.298  14.895 -0.1465  0.2762  0.3602
 3340DOPE   NH339187  33.629  24.766  17.607  0.1165 -0.1198  0.2364
 3340DOPE   PO439188  33.837  24.796  17.370  0.3603 -0.1407 -0.0550
 3340DOPE   GL139189  33.914  24.792  16.878 -0.0782  0.0220  0.0517
 3340DOPE   GL239190  33.627  24.659  16.891 -0.0767 -0.2145  0.2697
 3340DOPE   C1A39191  34.009  24.461  16.585 -0.1593 -0.2285 -0.0206
 3340DOPE   D2A39192  33.891  24.192  16.214 -0.2887  0.2569 -0.3400
 3340DOPE   C3A39193  33.709  24.238  15.835  0.0934  0.0854  0.3244
 3340DOPE   C4A39194  33.590  24.242  15.441 -0.1505  0.0201  0.0545
 3340DOPE   C1B39195  33.527  24.417  16.479  0.5449 -0.1669 -0.2649
 3340DOPE   D2B39196  33.193  24.320  16.259  0.0718  0.0247 -0.0910
 3340DOPE   C3B39197  33.181  24.402  15.798  0.0697 -0.3438  0.0177
 3340DOPE   C4B39198  33.391  24.708  15.575  0.0879  0.2708  0.1886
 3341DOPC   NC339199  26.607  26.195  17.103  0.2036  0.1376  0.0941
 3341DOPC   PO439200  26.558  25.824  16.977 -0.0215 -0.3796 -0.2329
 3341DOPC   GL139201  26.737  25.687  16.647  0.0756 -0.2885 -0.1529
 3341DOPC   GL239202  26.728  25.888  16.492  0.4294  0.2142  0.0961
 3341DOPC   C1A39203  27.002  25.494  16.348 -0.1911  0.0830 -0.0359
 3341DOPC   D2A39204  27.316  25.582  16.055  0.0566  0.0566  0.3269
 3341DOPC   C3A39205  27.254  25.629  15.587 -0.1164 -0.1208 -0.3177
 3341DOPC   C4A39206  27.314  25.788  15.149 -0.0268 -0.0885  0.2230
 3341DOPC   C1B39207  26.874  25.912  16.058 -0.4431 -0.0750  0.0045
 3341DOPC   D2B39208  27.054  26.049  15.676 -0.2257 -0.0753  0.3419
 3341DOPC   C3B39209  26.849  25.825  15.327 -0.1223 -0.1026 -0.2128
 3341DOPC   C4B39210  26.940  25.609  14.899  0.0154  0.1953  0.1246
 3342DOPC   NC339211  28.039  27.712  16.819  0.2568  0.0270 -0.3426
 3342DOPC   PO439212  27.976  27.363  16.708 -0.2303 -0.1061  0.0092
 3342DOPC   GL139213  27.924  27.445  16.350 -0.2245 -0.1988  0.0055
 3342DOPC   GL239214  27.655  27.456  16.194 -0.1293  0.1661 -0.1076
 3342DOPC   C1A39215  27.997  27.122  16.022  0.0185  0.0416 -0.0081
 3342DOPC   D2A39216  28.247  26.913  15.648  0.2146 -0.0817 -0.2074
 3342DOPC   C3A39217  28.532  27.230  15.390  0.0494 -0.1313  0.3180
 3342DOPC   C4A39218  28.675  27.611  15.274 -0.2305  0.0258  0.2458
 3342DOPC   C1B39219  27.410  27.350  15.857  0.0953 -0.1056 -0.1221
 3342DOPC   D2B39220  27.315  27.008  15.524  0.2714 -0.0260  0.3159
 3342DOPC   C3B39221  27.417  27.210  15.187  0.2762  0.3254 -0.1062
 3342DOPC   C4B39222  27.728  27.298  14.821 -0.1933 -0.2739  0.2320
 3343DOPC   NC339223  33.553  32.633  15.828 -0.2796  0.0557 -0.0559
 3343DOPC   PO439224  33.812  32.482  16.057 -0.0380 -0.2303  0.1403
 3343DOPC   GL139225  34.037  32.438  15.824  0.1446  0.1797 -0.1123
 3343DOPC   GL239226  34.302  32.497  15.732 -0.2222  0.2188 -0.1216
 3343DOPC   C1A39227  33.879  32.419  15.346 -0.1287 -0.2008  0.2201
 3343DOPC   D2A39228  33.940  32.249  14.939  0.2861 -0.2279 -0.0147
 3343DOPC   C3A39229  33.979  31.859  14.787  0.2591 -0.0065 -0.2361
 3343DOPC   C4A39230  34.034  31.436  14.576 -0.0967 -0.0859 -0.2065
 3343DOPC   C1B39231  34.492  32.687  15.316 -0.1104 -0.0443 -0.1116
 3343DOPC   D2B39232  34.742  32.618  14.929  0.2316 -0.0403  0.1407
 3343DOPC   C3B39233  34.608  32.640  14.485  0.0353 -0.0419  0.1680
 3343DOPC   C4B39234  34.535  32.892  14.064  0.2027 -0.3832 -0.0757
 3344DOPC   NC339235  23.123  24.968  15.610 -0.0848  0.3465  0.3098
 3344DOPC   PO439236  22.910  24.683  15.764 -0.1217 -0.2997  0.1414
 3344DOPC   GL139237  22.879  24.543  15.410 -0.1653  0.4805  0.1493
 3344DOPC   GL239238  22.661  24.564  15.339  0.0071  0.0980 -0.0465
 3344DOPC   C1A39239  23.078  24.338  15.024  0.4356 -0.0496  0.1048
 3344DOPC   D2A39240  23.311  24.395  14.637 -0.0122  0.0353 -0.0720
 3344DOPC   C3A39241  23.400  24.682  14.325  0.0533 -0.1964 -0.0888
 3344DOPC   C4A39242  23.646  25.103  14.264  0.1574  0.3822 -0.2643
 3344DOPC   C1B39243  22.516  24.316  14.992 -0.0528 -0.1901 -0.4322
 3344DOPC   D2B39244  22.756  24.211  14.661 -0.0175 -0.0430 -0.1717
 3344DOPC   C3B39245  22.903  24.521  14.307  0.0625 -0.0147  0.0378
 3344DOPC   C4B39246  22.753  24.708  13.865  0.3567  0.1912 -0.0838
 3345DOPC   NC339247  29.235  26.424  17.058 -0.0080 -0.2627  0.0496
 3345DOPC   PO439248  29.554  26.662  17.077 -0.3343 -0.1502 -0.0484
 3345DOPC   GL139249  29.726  26.498  16.751 -0.1127 -0.1822  0.0439
 3345DOPC   GL239250  29.530  26.398  16.523 -0.0286 -0.0832  0.0215
 3345DOPC   C1A39251  29.970  26.688  16.371  0.4560  0.0394 -0.0587
 3345DOPC   D2A39252  30.396  26.634  16.118  0.0812 -0.0311  0.2238
 3345DOPC   C3A39253  30.507  26.953  15.866 -0.0034 -0.0888 -0.2546
 3345DOPC   C4A39254  30.327  27.208  15.526  0.0127  0.3526 -0.1274
 3345DOPC   C1B39255  29.383  26.260  16.065 -0.1279 -0.1295 -0.0870
 3345DOPC   D2B39256  29.397  26.150  15.583 -0.3389 -0.2412  0.0097
 3345DOPC   C3B39257  29.015  26.385  15.430 -0.4005  0.1421  0.1260
 3345DOPC   C4B39258  28.746  26.741  15.501  0.1217  0.0180  0.3596
 3346DOPE   NH339259  33.848  30.524  16.124 -0.1113  0.1721  0.1083
 3346DOPE   PO439260  33.685  30.772  16.074 -0.0834  0.2036  0.2648
 3346DOPE   GL139261  33.770  30.706  15.685  0.2865  0.0796 -0.0608
 3346DOPE   GL239262  33.877  30.476  15.601  0.0703 -0.2277 -0.1383
 3346DOPE   C1A39263  33.804  30.739  15.210 -0.2685 -0.1290  0.3654
 3346DOPE   D2A39264  33.460  30.832  14.836  0.2451  0.5056 -0.3188
 3346DOPE   C3A39265  33.621  31.101  14.489 -0.2136 -0.0742  0.3919
 3346DOPE   C4A39266  33.978  31.121  14.143  0.0796 -0.0020  0.1790
 3346DOPE   C1B39267  33.462  30.467  15.468 -0.1808  0.0655 -0.0949
 3346DOPE   D2B39268  32.999  30.496  15.351  0.0493  0.0838  0.3066
 3346DOPE   C3B39269  32.602  30.449  15.191 -0.1897 -0.0311  0.0635
 3346DOPE   C4B39270  32.581  30.503  14.735 -0.0626 -0.2097  0.1258
 3347DOPE   NH339271  32.433  29.918  16.624 -0.0342 -0.0661  0.2114
 3347DOPE   PO439272  32.743  29.863  16.522  0.1590  0.1722  0.1675
 3347DOPE   GL139273  32.600  29.945  16.144 -0.3180 -0.1986  0.0759
 3347DOPE   GL239274  32.435  30.178  16.183 -0.0477 -0.2579 -0.0474
 3347DOPE   C1A39275  32.352  29.675  15.908 -0.0444 -0.1231 -0.1336
 3347DOPE   D2A39276  32.258  29.515  15.491 -0.0878  0.2718 -0.1811
 3347DOPE   C3A39277  32.219  29.034  15.482 -0.1291  0.4600  0.3910
 3347DOPE   C4A39278  32.439  28.667  15.317 -0.0590 -0.2487  0.1868
 3347DOPE   C1B39279  32.470  30.178  15.715  0.0586  0.1210  0.2434
 3347DOPE   D2B39280  32.347  29.974  15.287  0.0212 -0.4696  0.0419
 3347DOPE   C3B39281  32.251  30.136  14.855 -0.1174  0.0658  0.0406
 3347DOPE   C4B39282  32.084  30.470  14.623  0.3826  0.0452 -0.1661
 3348POSM   NC339283  28.930  31.541  17.640 -0.0819  0.2759 -0.0579
 3348POSM   PO439284  28.872  31.172  17.574 -0.0779  0.0648 -0.0914
 3348POSM   AM139285  29.129  31.151  17.376 -0.4583  0.1310  0.1190
 3348POSM   AM239286  29.209  31.342  17.173  0.1044  0.0915 -0.1330
 3348POSM   T1A39287  29.255  30.881  16.960  0.1266 -0.0748  0.0405
 3348POSM   C2A39288  29.436  30.808  16.534 -0.1372  0.1155  0.1344
 3348POSM   C3A39289  29.263  30.848  16.111  0.1610  0.3583  0.0271
 3348POSM   C1B39290  29.260  31.416  16.826  0.1315  0.0292  0.0683
 3348POSM   D2B39291  29.377  31.241  16.435 -0.1203 -0.2311  0.0353
 3348POSM   C3B39292  29.346  31.336  16.020 -0.0116 -0.1025  0.2008
 3348POSM   C4B39293  29.163  31.317  15.622 -0.1148 -0.3176  0.0371
 3349DOPC   NC339294  32.111  23.373  17.152  0.3162  0.2343 -0.0212
 3349DOPC   PO439295  31.932  23.756  17.147 -0.0715 -0.1655 -0.3956
 3349DOPC   GL139296  31.754  23.564  16.852 -0.3715 -0.0514  0.0414
 3349DOPC   GL239297  31.434  23.580  16.817  0.1146  0.0533  0.2601
 3349DOPC   C1A39298  32.054  23.580  16.547 -0.1410 -0.3712  0.0489
 3349DOPC   D2A39299  32.059  23.782  16.108 -0.0268 -0.4463  0.2049
 3349DOPC   C3A39300  32.373  23.956  15.800  0.0728  0.2864  0.0819
 3349DOPC   C4A39301  32.644  24.286  15.658  0.0218 -0.0222  0.0758
 3349DOPC   C1B39302  31.058  23.512  16.527  0.1587 -0.0419 -0.0466
 3349DOPC   D2B39303  30.912  23.141  16.268  0.2040 -0.0617  0.0063
 3349DOPC   C3B39304  31.192  23.234  15.861  0.0347  0.0788 -0.0133
 3349DOPC   C4B39305  31.596  22.975  15.767  0.1973 -0.2425 -0.3352
 3350POSM   NC339306  26.950  24.947  17.342 -0.4454  0.0732  0.0426
 3350POSM   PO439307  27.265  24.894  17.107  0.1437 -0.0716 -0.0356
 3350POSM   AM139308  27.267  24.608  16.935  0.0020  0.0116 -0.3081
 3350POSM   AM239309  27.133  24.429  16.786 -0.1606  0.0199 -0.1144
 3350POSM   T1A39310  27.622  24.337  16.705  0.0964 -0.0980  0.0526
 3350POSM   C2A39311  27.922  24.300  16.433 -0.0343  0.1049  0.2046
 3350POSM   C3A39312  28.364  24.270  16.545  0.1715 -0.2356  0.3012
 3350POSM   C1B39313  27.164  24.572  16.489 -0.0014  0.2051 -0.1687
 3350POSM   D2B39314  27.165  24.553  16.027  0.1120  0.0247  0.0922
 3350POSM   C3B39315  27.126  24.229  15.675  0.3613  0.4299  0.0892
 3350POSM   C4B39316  26.878  23.888  15.579  0.0746  0.3095  0.2837
 3351POSM   NC339317  24.651  33.682  16.541 -0.0040  0.2694  0.1640
 3351POSM   PO439318  24.798  33.437  16.253  0.1086 -0.0795  0.3395
 3351POSM   AM139319  24.664  33.481  15.976 -0.1492 -0.0858  0.0270
 3351POSM   AM239320  24.749  33.391  15.719 -0.1751 -0.0624  0.0110
 3351POSM   T1A39321  24.240  33.680  15.769  0.0581 -0.1202 -0.0394
 3351POSM   C2A39322  24.041  34.152  15.756 -0.1119  0.1860 -0.3555
 3351POSM   C3A39323  23.985  34.587  15.690  0.0098  0.1691  0.2349
 3351POSM   C1B39324  24.472  33.281  15.506  0.1930 -0.1544 -0.0135
 3351POSM   D2B39325  24.060  33.378  15.251 -0.2880  0.1207 -0.1030
 3351POSM   C3B39326  23.809  33.720  15.505  0.1217 -0.3524 -0.0905
 3351POSM   C4B39327  23.632  33.821  15.879 -0.0493  0.3030 -0.1270
 3352DOPS   CNO39328  28.502  29.833  17.073 -0.4565 -0.1087 -0.0662
 3352DOPS   PO439329  28.780  29.652  17.279  0.0292  0.1437  0.0091
 3352DOPS   GL139330  28.743  29.478  16.793 -0.0134 -0.1560 -0.0606
 3352DOPS   GL239331  28.674  29.164  16.747  0.1311  0.0591 -0.1365
 3352DOPS   C1A39332  28.766  29.467  16.328  0.1690 -0.1795 -0.0892
 3352DOPS   D2A39333  28.999  29.455  15.917 -0.0401 -0.2542  0.0946
 3352DOPS   C3A39334  29.397  29.611  15.829 -0.3592 -0.0105  0.2000
 3352DOPS   C4A39335  29.772  29.566  15.477 -0.2108  0.0652 -0.2011
 3352DOPS   C1B39336  28.500  28.983  16.438  0.0672 -0.0529 -0.0021
 3352DOPS   D2B39337  28.541  29.147  15.982 -0.2847  0.0351  0.1181
 3352DOPS   C3B39338  28.520  29.569  15.827 -0.0002 -0.3177  0.3756
 3352DOPS   C4B39339  28.814  29.957  15.671 -0.0234 -0.1034  0.0405
 3353DOPC   NC339340  25.606  31.435  16.474  0.1310 -0.2933  0.1500
 3353DOPC   PO439341  25.720  31.779  16.591 -0.0062  0.2162 -0.1994
 3353DOPC   GL139342  25.790  31.883  16.210  0.2858 -0.0224 -0.0463
 3353DOPC   GL239343  25.871  31.608  16.076  0.0836  0.0772  0.2927
 3353DOPC   C1A39344  25.965  32.260  15.954 -0.3699 -0.2357  0.1982
 3353DOPC   D2A39345  25.916  32.572  15.661  0.0720  0.1792  0.0708
 3353DOPC   C3A39346  26.133  32.669  15.265  0.3138  0.1830 -0.3323
 3353DOPC   C4A39347  26.481  32.814  15.081  0.4095 -0.0605 -0.0178
 3353DOPC   C1B39348  26.244  31.859  16.218  0.0773 -0.0325  0.2538
 3353DOPC   D2B39349  26.503  31.593  16.459  0.0839 -0.3735 -0.2109
 3353DOPC   C3B39350  26.772  31.431  16.087 -0.0118  0.1315  0.1270
 3353DOPC   C4B39351  26.981  31.655  15.744  0.2618  0.1968  0.3279
 3354DOPE   NH339352  27.397  30.166  17.294 -0.0201 -0.1766  0.4976
 3354DOPE   PO439353  27.604  29.955  17.238 -0.0049 -0.1609  0.3956
 3354DOPE   GL139354  27.638  30.100  16.785  0.1651 -0.2033 -0.1089
 3354DOPE   GL239355  27.642  30.413  16.725 -0.0557 -0.0918 -0.0077
 3354DOPE   C1A39356  27.725  30.238  16.296 -0.0839 -0.0135  0.0782
 3354DOPE   D2A39357  27.789  30.620  16.039 -0.2454 -0.1224  0.1838
 3354DOPE   C3A39358  28.010  30.555  15.639  0.0495 -0.3326 -0.1034
 3354DOPE   C4A39359  28.377  30.704  15.445 -0.1752 -0.0017  0.2445
 3354DOPE   C1B39360  28.139  30.307  16.677  0.2765  0.0747 -0.1062
 3354DOPE   D2B39361  28.467  30.485  16.457  0.1924  0.1344  0.1717
 3354DOPE   C3B39362  28.308  30.709  16.045  0.0090 -0.0009  0.2957
 3354DOPE   C4B39363  28.460  31.045  15.764  0.1032 -0.0316  0.0127
 3355DOPE   NH339364  29.204  24.349  17.175 -0.0806 -0.1966  0.2027
 3355DOPE   PO439365  29.125  24.645  17.097 -0.3252  0.0083  0.2297
 3355DOPE   GL139366  29.564  24.606  16.949 -0.0577  0.0779 -0.0119
 3355DOPE   GL239367  29.442  24.501  16.706  0.1629 -0.2679  0.2684
 3355DOPE   C1A39368  29.830  24.772  16.564  0.3054 -0.2967  0.3426
 3355DOPE   D2A39369  29.844  24.904  16.130  0.1002 -0.2441  0.0911
 3355DOPE   C3A39370  29.721  24.543  15.811 -0.2400 -0.0466  0.0201
 3355DOPE   C4A39371  30.003  24.449  15.421  0.0862 -0.1161 -0.0928
 3355DOPE   C1B39372  29.454  24.571  16.226  0.0251  0.2895 -0.1282
 3355DOPE   D2B39373  29.239  24.669  15.833 -0.1313  0.0742 -0.2895
 3355DOPE   C3B39374  29.442  24.726  15.447  0.0719 -0.0302 -0.0189
 3355DOPE   C4B39375  29.642  24.830  15.116  0.2246  0.0966 -0.1157
 3356DOPC   NC339376  30.460  26.580  17.396  0.0959 -0.0158  0.2216
 3356DOPC   PO439377  30.334  26.224  17.379  0.1468 -0.0438  0.1425
 3356DOPC   GL139378  30.211  26.331  17.061 -0.1754 -0.2272  0.0905
 3356DOPC   GL239379  30.076  26.578  17.036  0.2845  0.3301  0.2171
 3356DOPC   C1A39380  30.117  26.245  16.608 -0.0556 -0.1835  0.1502
 3356DOPC   D2A39381  30.171  26.224  16.194 -0.3705  0.1250  0.0749
 3356DOPC   C3A39382  30.075  25.942  15.872  0.1249  0.1548  0.3443
 3356DOPC   C4A39383  29.870  25.866  15.472  0.0618 -0.3207 -0.0229
 3356DOPC   C1B39384  30.379  26.761  16.674  0.2334 -0.0073 -0.2432
 3356DOPC   D2B39385  30.295  27.184  16.523 -0.2265  0.0215  0.3147
 3356DOPC   C3B39386  30.096  27.223  16.084  0.2088 -0.5305  0.0518
 3356DOPC   C4B39387  29.955  26.985  15.727  0.1383 -0.1376 -0.1218
 3357POSM   NC339388  31.492  30.913  17.065  0.1262 -0.2643 -0.0079
 3357POSM   PO439389  31.689  30.609  16.928  0.1546 -0.0003 -0.2270
 3357POSM   AM139390  31.493  30.660  16.671 -0.1161 -0.0439  0.1904
 3357POSM   AM239391  31.387  30.897  16.499 -0.3042 -0.1743  0.1919
 3357POSM   T1A39392  31.055  30.555  16.482 -0.1892 -0.0123 -0.0153
 3357POSM   C2A39393  30.695  30.390  16.250  0.0022  0.0869  0.2764
 3357POSM   C3A39394  30.321  30.253  16.144 -0.2866  0.0513 -0.0702
 3357POSM   C1B39395  31.125  30.996  16.316  0.0504  0.1541  0.1518
 3357POSM   D2B39396  30.877  30.850  15.984 -0.1147 -0.1124 -0.3751
 3357POSM   C3B39397  30.577  30.997  15.758  0.0089 -0.0069  0.1341
 3357POSM   C4B39398  30.145  30.945  15.674  0.3140 -0.0510 -0.1950
 3358POSM   NC339399  25.926  33.227  16.262 -0.4112  0.2441  0.1766
 3358POSM   PO439400  25.546  33.211  16.146 -0.0475  0.2206 -0.0876
 3358POSM   AM139401  25.544  33.239  15.823 -0.2192 -0.0704 -0.3122
 3358POSM   AM239402  25.770  33.106  15.701 -0.0446 -0.1196  0.0575
 3358POSM   T1A39403  25.477  33.384  15.373 -0.1164  0.0225  0.2143
 3358POSM   C2A39404  25.390  33.598  14.937  0.1942 -0.1081  0.1507
 3358POSM   C3A39405  25.286  33.558  14.518 -0.0765 -0.0669 -0.1089
 3358POSM   C1B39406  25.633  32.921  15.456  0.0628  0.1768 -0.1970
 3358POSM   D2B39407  25.309  32.840  15.178  0.0705  0.0960  0.2675
 3358POSM   C3B39408  25.414  33.048  14.792 -0.1547  0.0752  0.1684
 3358POSM   C4B39409  25.328  33.121  14.315 -0.1485  0.0391 -0.2001
 3359DOPC   NC339410  31.830  32.478  16.623  0.1462 -0.2982 -0.1765
 3359DOPC   PO439411  31.691  32.841  16.626  0.0981  0.1372  0.0288
 3359DOPC   GL139412  31.735  32.934  16.192 -0.2818  0.1819  0.0166
 3359DOPC   GL239413  31.832  33.151  16.009 -0.1572  0.0606 -0.1907
 3359DOPC   C1A39414  31.742  32.607  15.824 -0.0102  0.1526 -0.1047
 3359DOPC   D2A39415  31.815  32.596  15.356  0.0702 -0.0914 -0.0813
 3359DOPC   C3A39416  31.546  32.890  15.081  0.0008  0.0312  0.0108
 3359DOPC   C4A39417  31.479  32.887  14.627  0.2512  0.2014 -0.1163
 3359DOPC   C1B39418  31.600  33.073  15.631 -0.0580 -0.0779 -0.1381
 3359DOPC   D2B39419  31.186  33.285  15.437  0.2958 -0.2759 -0.0991
 3359DOPC   C3B39420  31.088  33.108  15.014  0.1224 -0.4181  0.0345
 3359DOPC   C4B39421  30.984  32.712  14.743 -0.0393 -0.0998 -0.1156
 3360DOPS   CNO39422  27.042  29.148  17.267  0.0372 -0.0880  0.2682
 3360DOPS   PO439423  27.050  29.290  16.903  0.0061  0.2575  0.2175
 3360DOPS   GL139424  27.285  29.444  16.587 -0.0216  0.1238 -0.0526
 3360DOPS   GL239425  27.407  29.133  16.478  0.1041 -0.1273  0.0802
 3360DOPS   C1A39426  27.712  29.534  16.580 -0.1517 -0.2426  0.0414
 3360DOPS   D2A39427  27.960  29.855  16.449 -0.2084 -0.2510  0.0861
 3360DOPS   C3A39428  28.241  30.148  16.166  0.1428 -0.0579 -0.1189
 3360DOPS   C4A39429  28.709  30.166  16.112  0.0673 -0.1192  0.0948
 3360DOPS   C1B39430  27.596  29.173  16.081  0.2962  0.0620  0.1329
 3360DOPS   D2B39431  27.951  29.245  15.803  0.0516  0.1393 -0.1430
 3360DOPS   C3B39432  27.938  29.059  15.364 -0.2094 -0.0957  0.4701
 3360DOPS   C4B39433  27.990  29.166  14.910  0.2487  0.0365  0.3997
 3361DOPE   NH339434  34.227  28.805  16.607 -0.2642 -0.1929  0.1133
 3361DOPE   PO439435  34.162  28.867  16.292 -0.2868 -0.1382 -0.0714
 3361DOPE   GL139436  34.279  28.784  15.953 -0.2051 -0.2620 -0.1682
 3361DOPE   GL239437  34.094  28.996  15.820 -0.0716 -0.0226  0.0406
 3361DOPE   C1A39438  34.322  28.694  15.471  0.3077 -0.0488 -0.0236
 3361DOPE   D2A39439  34.022  28.770  15.168 -0.4767  0.0956 -0.0926
 3361DOPE   C3A39440  34.111  28.526  14.811  0.1607 -0.1222  0.3013
 3361DOPE   C4A39441  34.095  28.102  14.817 -0.0234 -0.2482  0.0500
 3361DOPE   C1B39442  33.717  29.031  15.563  0.1765  0.1313 -0.0220
 3361DOPE   D2B39443  33.346  28.929  15.358 -0.1625  0.1941 -0.2043
 3361DOPE   C3B39444  32.886  28.973  15.195 -0.2247 -0.0746  0.0397
 3361DOPE   C4B39445  32.557  29.236  15.191  0.0546 -0.0754 -0.0842
 3362DOPS   CNO39446  29.030  31.930  17.268 -0.2400 -0.1061  0.2349
 3362DOPS   PO439447  28.645  31.841  17.378 -0.0140  0.0317  0.1226
 3362DOPS   GL139448  28.762  31.618  17.067  0.2127 -0.1412  0.3657
 3362DOPS   GL239449  28.544  31.405  16.994 -0.1512  0.1334 -0.1234
 3362DOPS   C1A39450  28.602  31.905  16.732 -0.2787 -0.1472  0.3213
 3362DOPS   D2A39451  28.730  31.995  16.309  0.3047 -0.0518 -0.0477
 3362DOPS   C3A39452  28.897  31.767  15.905  0.0043 -0.0809 -0.2287
 3362DOPS   C4A39453  28.632  31.467  15.637  0.4239  0.1842 -0.1535
 3362DOPS   C1B39454  28.860  31.150  16.827  0.0690 -0.0741 -0.0476
 3362DOPS   D2B39455  28.961  30.732  16.580 -0.1021  0.0199 -0.1155
 3362DOPS   C3B39456  28.782  30.696  16.186  0.2136  0.1521  0.0320
 3362DOPS   C4B39457  28.756  30.691  15.787  0.2014  0.1002 -0.2263
 3363DOPS   CNO39458  25.631  24.904  16.786  0.1848  0.4532 -0.3622
 3363DOPS   PO439459  25.407  24.565  16.845  0.2587 -0.0502 -0.0128
 3363DOPS   GL139460  25.510  24.521  16.422  0.2031  0.0947 -0.2185
 3363DOPS   GL239461  25.826  24.560  16.503  0.1359 -0.0192 -0.1249
 3363DOPS   C1A39462  25.354  24.231  16.073  0.1083  0.0168 -0.0416
 3363DOPS   D2A39463  25.205  23.797  16.028  0.1504  0.0433  0.3590
 3363DOPS   C3A39464  24.967  23.737  15.609  0.1433  0.3210 -0.1580
 3363DOPS   C4A39465  24.994  23.668  15.153 -0.0201 -0.1021  0.0038
 3363DOPS   C1B39466  25.849  24.276  16.149  0.1357  0.1079 -0.0760
 3363DOPS   D2B39467  26.045  24.218  15.711  0.1500 -0.1960  0.0033
 3363DOPS   C3B39468  25.767  23.960  15.559  0.0105  0.1392 -0.1947
 3363DOPS   C4B39469  25.484  23.664  15.307  0.1871 -0.0238 -0.0548
 3364POSM   NC339470  25.329  30.704  16.847  0.0246  0.1726 -0.0543
 3364POSM   PO439471  25.494  31.042  16.739  0.0702  0.0945 -0.2037
 3364POSM   AM139472  25.524  30.883  16.421 -0.1362  0.0439  0.2440
 3364POSM   AM239473  25.385  30.732  16.204 -0.3470 -0.0578 -0.0012
 3364POSM   T1A39474  25.787  31.015  16.005  0.0883  0.0501 -0.1635
 3364POSM   C2A39475  26.013  30.918  15.617 -0.2816  0.1192 -0.0481
 3364POSM   C3A39476  26.345  31.107  15.336 -0.0655 -0.1821  0.1146
 3364POSM   C1B39477  25.409  30.743  15.862  0.2462 -0.2486  0.3282
 3364POSM   D2B39478  25.536  30.842  15.463  0.0079 -0.0887 -0.1488
 3364POSM   C3B39479  25.379  30.972  15.018  0.1983 -0.0793  0.1961
 3364POSM   C4B39480  25.295  31.382  14.818 -0.1473 -0.1729 -0.3025
 3365POSM   NC339481  32.913  29.449  16.323 -0.2151  0.0011 -0.1345
 3365POSM   PO439482  32.527  29.356  16.400  0.1571 -0.1286 -0.3285
 3365POSM   AM139483  32.245  29.216  16.294 -0.0164 -0.1325  0.3638
 3365POSM   AM239484  32.113  28.951  16.280  0.0659  0.0168 -0.1926
 3365POSM   T1A39485  31.910  29.385  15.961 -0.1878  0.2571  0.3023
 3365POSM   C2A39486  31.560  29.309  15.589 -0.0038 -0.3826 -0.1508
 3365POSM   C3A39487  31.371  29.087  15.220  0.3094 -0.1206  0.0871
 3365POSM   C1B39488  31.799  28.869  16.076 -0.0325 -0.2641  0.1376
 3365POSM   D2B39489  31.606  28.829  15.679  0.3036  0.3901  0.0485
 3365POSM   C3B39490  31.805  28.728  15.294 -0.1424  0.2294  0.1417
 3365POSM   C4B39491  31.664  28.492  14.964 -0.0819 -0.0815 -0.1217
 3366DOPC   NC339492  26.225  25.023  17.202 -0.2828 -0.1495 -0.0072
 3366DOPC   PO439493  26.136  24.936  16.848 -0.2265  0.2489 -0.0982
 3366DOPC   GL139494  26.213  24.852  16.471  0.0968  0.3385 -0.2369
 3366DOPC   GL239495  26.464  24.685  16.522 -0.1216  0.2448 -0.1294
 3366DOPC   C1A39496  26.163  24.703  16.029  0.1748  0.1871  0.3643
 3366DOPC   D2A39497  25.992  24.785  15.575  0.0293  0.0986 -0.1464
 3366DOPC   C3A39498  26.240  24.462  15.294  0.1072  0.2468  0.3101
 3366DOPC   C4A39499  26.006  24.077  15.057 -0.2184  0.2381  0.1470
 3366DOPC   C1B39500  26.663  24.653  16.135 -0.0403 -0.0650  0.0881
 3366DOPC   D2B39501  26.767  24.778  15.695  0.2137 -0.1123 -0.1149
 3366DOPC   C3B39502  26.458  25.070  15.600 -0.0985 -0.2453 -0.0257
 3366DOPC   C4B39503  26.148  25.148  15.233  0.0153 -0.4273  0.0570
 3367POSM   NC339504  28.294  33.748  16.987 -0.0650 -0.1382  0.0750
 3367POSM   PO439505  28.577  33.515  16.853 -0.3027  0.0834  0.0727
 3367POSM   AM139506  28.629  33.596  16.554  0.2767 -0.6541  0.0067
 3367POSM   AM239507  28.771  33.429  16.392  0.3185  0.3167  0.2173
 3367POSM   T1A39508  28.763  33.848  16.138 -0.2150  0.3857  0.1125
 3367POSM   C2A39509  29.072  33.767  15.758  0.0871 -0.0449 -0.0083
 3367POSM   C3A39510  29.417  33.545  15.538 -0.1021 -0.0064  0.0995
 3367POSM   C1B39511  28.922  33.352  16.039  0.1712 -0.3791  0.0894
 3367POSM   D2B39512  29.125  33.150  15.674  0.0591 -0.1520  0.3809
 3367POSM   C3B39513  29.373  33.158  15.254  0.1349  0.1650 -0.2644
 3367POSM   C4B39514  29.749  33.437  15.037  0.0113 -0.1363  0.2582
 3368DOPC   NC339515  30.331  28.786  17.006 -0.1496  0.1036  0.0837
 3368DOPC   PO439516  30.479  28.450  17.078  0.0060 -0.2264  0.1403
 3368DOPC   GL139517  30.623  28.624  16.671  0.2046 -0.2397  0.0282
 3368DOPC   GL239518  30.813  28.879  16.627  0.2538 -0.0472  0.1464
 3368DOPC   C1A39519  30.437  28.626  16.280  0.1850  0.2035 -0.0334
 3368DOPC   D2A39520  30.086  28.719  15.956 -0.0950  0.1296  0.1062
 3368DOPC   C3A39521  30.155  28.652  15.537  0.1106  0.0469 -0.0301
 3368DOPC   C4A39522  30.338  28.910  15.200  0.0776 -0.0162 -0.2238
 3368DOPC   C1B39523  30.881  28.888  16.190 -0.5261  0.0860 -0.1137
 3368DOPC   D2B39524  31.102  29.146  15.869 -0.4347  0.2483  0.1886
 3368DOPC   C3B39525  31.014  29.406  15.484  0.0177 -0.0063  0.0605
 3368DOPC   C4B39526  31.035  29.587  15.042  0.0950  0.0331 -0.2304
 3369POSM   NC339527  30.709  28.073  17.247 -0.0662 -0.0198 -0.2989
 3369POSM   PO439528  31.012  28.377  17.169 -0.1221  0.0220  0.1357
 3369POSM   AM139529  30.887  28.310  16.878  0.3125 -0.0415 -0.1085
 3369POSM   AM239530  30.731  28.125  16.765 -0.1685 -0.1093  0.2591
 3369POSM   T1A39531  30.893  28.403  16.390 -0.0145  0.1400  0.2247
 3369POSM   C2A39532  30.855  28.289  15.922 -0.1390  0.0015 -0.1090
 3369POSM   C3A39533  30.812  27.968  15.590  0.0330 -0.0590 -0.1411
 3369POSM   C1B39534  30.479  28.135  16.540 -0.0242  0.2028  0.1532
 3369POSM   D2B39535  30.460  28.082  16.114  0.1664  0.2631 -0.1450
 3369POSM   C3B39536  30.426  28.289  15.725  0.1154 -0.0701 -0.2014
 3369POSM   C4B39537  30.657  28.485  15.304  0.0772  0.1270 -0.1083
 3370POSM   NC339538  32.466  25.349  17.002 -0.3862  0.0269  0.1348
 3370POSM   PO439539  32.366  25.370  17.389 -0.2403  0.1483  0.2114
 3370POSM   AM139540  32.194  25.112  17.199 -0.0126 -0.4408 -0.0789
 3370POSM   AM239541  31.927  25.091  17.054 -0.1269  0.0843  0.0540
 3370POSM   T1A39542  32.260  24.833  16.775  0.1124  0.1113  0.3412
 3370POSM   C2A39543  32.384  24.795  16.357  0.0225  0.0242 -0.1218
 3370POSM   C3A39544  32.662  24.522  16.076  0.2335 -0.0935  0.1195
 3370POSM   C1B39545  31.863  25.093  16.734  0.1719  0.2159 -0.2509
 3370POSM   D2B39546  31.834  24.781  16.370  0.0275  0.0404  0.1306
 3370POSM   C3B39547  31.551  24.578  16.111 -0.2540  0.3541 -0.1138
 3370POSM   C4B39548  31.509  24.334  15.663  0.1897  0.2091  0.2769
 3371DOPC   NC339549  25.562  26.299  16.664 -0.1658  0.2750  0.1454
 3371DOPC   PO439550  25.342  26.322  16.358 -0.1890 -0.3300  0.0290
 3371DOPC   GL139551  25.445  26.357  15.956 -0.1359 -0.3617 -0.5526
 3371DOPC   GL239552  25.481  26.101  15.815  0.2895 -0.1554  0.3505
 3371DOPC   C1A39553  25.490  26.551  15.546  0.0403 -0.2113 -0.1107
 3371DOPC   D2A39554  25.402  26.785  15.126 -0.4470 -0.3440 -0.4670
 3371DOPC   C3A39555  25.133  27.157  14.994 -0.0316 -0.0808  0.2052
 3371DOPC   C4A39556  25.107  27.656  15.062  0.1553  0.0419 -0.0022
 3371DOPC   C1B39557  25.182  25.955  15.449 -0.0152  0.1868  0.3760
 3371DOPC   D2B39558  25.153  25.862  15.026 -0.0342  0.2519  0.1050
 3371DOPC   C3B39559  25.006  25.943  14.575  0.0920  0.1604  0.1885
 3371DOPC   C4B39560  24.698  26.044  14.252  0.1292  0.1635 -0.1906
 3372DOPE   NH339561  25.734  24.970  16.283  0.4825 -0.1085 -0.1182
 3372DOPE   PO439562  25.916  25.191  16.453  0.2086 -0.1915 -0.1335
 3372DOPE   GL139563  26.246  25.284  16.352 -0.2880  0.2190 -0.0492
 3372DOPE   GL239564  26.182  25.189  16.059  0.0469 -0.1650 -0.1459
 3372DOPE   C1A39565  26.665  25.212  16.136  0.1590  0.3592 -0.3624
 3372DOPE   D2A39566  27.030  25.156  15.803  0.3374 -0.0972 -0.4202
 3372DOPE   C3A39567  26.986  25.245  15.378  0.1410 -0.0330  0.0939
 3372DOPE   C4A39568  27.180  25.132  15.004 -0.1317 -0.3025 -0.1282
 3372DOPE   C1B39569  26.099  25.456  15.642 -0.0819 -0.0277  0.1724
 3372DOPE   D2B39570  26.008  25.636  15.253  0.0438 -0.2518 -0.2291
 3372DOPE   C3B39571  26.022  25.498  14.907 -0.0495 -0.5191  0.2220
 3372DOPE   C4B39572  26.201  25.536  14.540  0.0182 -0.0422 -0.2250
 3373DOPC   NC339573  23.697  27.464  16.254  0.1381  0.4640 -0.0710
 3373DOPC   PO439574  23.795  27.747  16.550 -0.1690 -0.2762 -0.0006
 3373DOPC   GL139575  24.011  28.013  16.262  0.1228  0.2916  0.5250
 3373DOPC   GL239576  24.300  27.942  16.329  0.1759  0.0923  0.2246
 3373DOPC   C1A39577  24.260  27.959  15.865  0.1216  0.2601  0.5493
 3373DOPC   D2A39578  24.343  27.590  15.661  0.2247 -0.0041 -0.0553
 3373DOPC   C3A39579  24.184  27.558  15.225 -0.0279 -0.0635  0.1416
 3373DOPC   C4A39580  24.172  27.374  14.839  0.0907  0.0495 -0.1814
 3373DOPC   C1B39581  24.714  27.838  16.119 -0.0180  0.2362  0.2820
 3373DOPC   D2B39582  25.158  27.687  15.960 -0.1722 -0.0014  0.2733
 3373DOPC   C3B39583  25.210  27.651  15.525 -0.0344  0.0698  0.2143
 3373DOPC   C4B39584  25.468  27.273  15.367 -0.2014 -0.0090  0.3053
 3374POSM   NC339585  32.713  31.280  16.365 -0.1153  0.2046  0.0773
 3374POSM   PO439586  33.049  31.403  16.163  0.0175  0.2722  0.0590
 3374POSM   AM139587  33.105  31.496  15.834 -0.1291 -0.1200 -0.0277
 3374POSM   AM239588  33.061  31.279  15.646 -0.0754 -0.2126  0.1012
 3374POSM   T1A39589  33.503  31.608  15.547 -0.0458 -0.1542  0.1261
 3374POSM   C2A39590  33.546  31.506  15.111 -0.0354  0.0532 -0.1544
 3374POSM   C3A39591  33.521  31.596  14.659  0.0893  0.2573  0.1158
 3374POSM   C1B39592  32.796  31.119  15.498  0.0288 -0.1714  0.0030
 3374POSM   D2B39593  32.513  30.990  15.158 -0.2594 -0.2541  0.3499
 3374POSM   C3B39594  32.102  31.080  14.838  0.0272  0.2361  0.0306
 3374POSM   C4B39595  32.052  31.269  14.360 -0.2358 -0.0241 -0.2642
 3375POSM   NC339596  24.848  33.240  16.778 -0.0630  0.1357  0.2984
 3375POSM   PO439597  24.604  32.954  16.632 -0.0827 -0.0710  0.2598
 3375POSM   AM139598  24.506  33.057  16.335  0.0631 -0.1902  0.0253
 3375POSM   AM239599  24.577  33.004  16.091 -0.1179  0.1328 -0.0346
 3375POSM   T1A39600  24.177  33.185  15.935 -0.2130  0.2359  0.1379
 3375POSM   C2A39601  23.775  33.268  15.682 -0.0477  0.1605 -0.2949
 3375POSM   C3A39602  23.330  33.350  15.470  0.1496 -0.0300 -0.4640
 3375POSM   C1B39603  24.612  32.880  15.750 -0.0214  0.0392 -0.0882
 3375POSM   D2B39604  24.650  32.857  15.273 -0.0890 -0.0861  0.3564
 3375POSM   C3B39605  24.518  33.209  15.009 -0.4564  0.2497  0.2123
 3375POSM   C4B39606  24.514  33.625  15.094  0.1373 -0.0776 -0.1468
 3376POSM   NC339607  25.979  29.293  17.242 -0.0574 -0.1353 -0.2624
 3376POSM   PO439608  25.868  29.427  16.900 -0.3795 -0.2899  0.2389
 3376POSM   AM139609  26.029  29.373  16.605 -0.2134 -0.1857  0.1691
 3376POSM   AM239610  25.963  29.370  16.315  0.0653  0.0139  0.1755
 3376POSM   T1A39611  26.465  29.190  16.487  0.1376 -0.3160  0.1333
 3376POSM   C2A39612  26.941  29.216  16.335 -0.0396 -0.0677 -0.0230
 3376POSM   C3A39613  27.138  29.149  15.989  0.1661  0.1281  0.0992
 3376POSM   C1B39614  26.098  29.067  16.140  0.2908 -0.1564 -0.0768
 3376POSM   D2B39615  25.994  28.714  15.931  0.1557  0.2663  0.1469
 3376POSM   C3B39616  25.953  28.911  15.519  0.1332 -0.4688 -0.0491
 3376POSM   C4B39617  25.780  29.271  15.362 -0.0821  0.0187  0.1297
 3377POSM   NC339618  25.753  33.966  16.627 -0.0776  0.3628  0.3739
 3377POSM   PO439619  25.959  33.713  16.360  0.1556 -0.0121 -0.1795
 3377POSM   AM139620  26.102  33.810  16.117 -0.0224 -0.2775  0.0148
 3377POSM   AM239621  26.249  34.029  16.068 -0.2429  0.4709 -0.1124
 3377POSM   T1A39622  26.005  34.007  15.675  0.0605 -0.0877  0.1421
 3377POSM   C2A39623  26.083  34.120  15.241  0.2084  0.2187  0.1052
 3377POSM   C3A39624  26.284  34.058  14.796  0.0603  0.2023  0.0393
 3377POSM   C1B39625  26.547  33.919  15.925 -0.2947 -0.2189  0.0165
 3377POSM   D2B39626  26.980  33.816  15.856 -0.1976 -0.2929  0.1501
 3377POSM   C3B39627  27.035  33.522  15.494 -0.1563 -0.2219  0.3097
 3377POSM   C4B39628  26.850  33.181  15.177 -0.1731 -0.0432 -0.2210
 3378DOPC   NC339629   0.074  30.542  15.981  0.5994  0.1219  0.0025
 3378DOPC   PO439630   0.110  30.882  16.152 -0.2260  0.3263 -0.0749
 3378DOPC   GL139631   0.009  30.943  15.733  0.0743  0.3664 -0.3680
 3378DOPC   GL239632   0.211  30.815  15.608  0.1029 -0.1448  0.0583
 3378DOPC   C1A39633   0.093  31.220  15.365 -0.0360  0.1994  0.0142
 3378DOPC   D2A39634  -0.093  31.604  15.209 -0.3592 -0.0834  0.2387
 3378DOPC   C3A39635  -0.439  31.882  15.225  0.0299  0.1182  0.1367
 3378DOPC   C4A39636  -0.878  31.877  15.306 -0.1495 -0.1128  0.0135
 3378DOPC   C1B39637  -0.053  30.543  15.351 -0.0144 -0.2650  0.0936
 3378DOPC   D2B39638  -0.205  30.702  15.009 -0.2727  0.2490  0.1510
 3378DOPC   C3B39639  -0.258  31.177  14.987 -0.2699  0.0676 -0.0424
 3378DOPC   C4B39640  -0.197  31.642  14.749  0.1013 -0.0967  0.0230
 3379POSM   NC339641  34.260  30.954  15.483  0.2608  0.2446 -0.0821
 3379POSM   PO439642  34.128  30.937  15.890 -0.0562 -0.0789  0.0055
 3379POSM   AM139643  33.911  31.120  15.691 -0.0657 -0.0841  0.3044
 3379POSM   AM239644  33.916  31.315  15.442 -0.1190  0.3357 -0.1836
 3379POSM   T1A39645  33.455  31.059  15.433 -0.0271 -0.4942  0.2585
 3379POSM   C2A39646  33.161  31.134  15.105 -0.1893  0.2940 -0.0271
 3379POSM   C3A39647  32.916  30.841  14.844  0.2579 -0.0062  0.2785
 3379POSM   C1B39648  33.962  31.206  15.125  0.3104  0.1954 -0.3875
 3379POSM   D2B39649  34.068  30.943  14.744 -0.1920 -0.1657  0.3756
 3379POSM   C3B39650  34.470  30.994  14.465  0.0694  0.0209  0.0329
 3379POSM   C4B39651  34.852  31.224  14.622  0.0567 -0.2946  0.0980
 3380DOPS   CNO39652  28.254  29.034  17.697 -0.0430 -0.2526 -0.0604
 3380DOPS   PO439653  27.954  29.160  17.460 -0.0303 -0.0577 -0.1690
 3380DOPS   GL139654  27.850  29.351  17.045  0.0545  0.0509  0.2997
 3380DOPS   GL239655  27.739  29.103  16.969 -0.3004 -0.0185  0.1553
 3380DOPS   C1A39656  28.171  29.441  16.731 -0.0988 -0.4025 -0.1561
 3380DOPS   D2A39657  28.161  29.413  16.310  0.0151 -0.2940  0.3803
 3380DOPS   C3A39658  28.016  29.698  15.987 -0.3058 -0.0413 -0.1786
 3380DOPS   C4A39659  28.000  30.089  15.703  0.1160 -0.0434  0.0382
 3380DOPS   C1B39660  27.903  29.050  16.547  0.1693 -0.3407  0.1007
 3380DOPS   D2B39661  28.093  28.857  16.142 -0.1037  0.1549 -0.0121
 3380DOPS   C3B39662  28.195  28.850  15.723 -0.0815 -0.1754  0.0172
 3380DOPS   C4B39663  28.276  28.658  15.330  0.1789  0.1729 -0.0829
 3381DOPS   CNO39664  24.063  30.241  16.205 -0.0208 -0.2250  0.0825
 3381DOPS   PO439665  24.145  30.605  16.270 -0.0545 -0.0173 -0.0804
 3381DOPS   GL139666  24.231  30.627  15.874  0.2398  0.1023  0.1004
 3381DOPS   GL239667  24.124  30.421  15.747 -0.0183 -0.0431 -0.2680
 3381DOPS   C1A39668  24.541  30.536  15.494 -0.1490 -0.0017  0.0825
 3381DOPS   D2A39669  24.785  30.338  15.167  0.3039 -0.3365 -0.0158
 3381DOPS   C3A39670  25.007  29.900  15.242  0.1349  0.3067  0.1930
 3381DOPS   C4A39671  25.183  29.484  15.131  0.2312 -0.3001  0.2661
 3381DOPS   C1B39672  24.183  30.311  15.321  0.0979 -0.0801 -0.0820
 3381DOPS   D2B39673  24.374  29.947  15.059  0.1262 -0.2330 -0.0110
 3381DOPS   C3B39674  24.702  30.099  14.768 -0.0285  0.0808 -0.1178
 3381DOPS   C4B39675  25.025  30.337  14.571 -0.3064 -0.1531 -0.2143
 3382DOPS   CNO39676  29.095  30.644  18.023  0.3165  0.0365  0.0947
 3382DOPS   PO439677  29.017  30.530  17.674 -0.1081  0.0814 -0.0818
 3382DOPS   GL139678  29.067  30.573  17.289  0.1629  0.1837  0.3903
 3382DOPS   GL239679  28.791  30.771  17.222  0.0082  0.3980 -0.1650
 3382DOPS   C1A39680  29.264  30.358  16.876 -0.1460  0.2803 -0.2379
 3382DOPS   D2A39681  29.132  30.327  16.440  0.2126 -0.4080  0.2872
 3382DOPS   C3A39682  29.510  30.365  16.149 -0.0362 -0.1629  0.0008
 3382DOPS   C4A39683  29.904  30.568  15.956 -0.0315 -0.1994  0.1413
 3382DOPS   C1B39684  28.649  30.513  16.895 -0.0798 -0.1844 -0.2969
 3382DOPS   D2B39685  28.860  30.138  16.812  0.0191 -0.1919  0.0153
 3382DOPS   C3B39686  29.084  29.815  16.549  0.0229 -0.2719  0.3338
 3382DOPS   C4B39687  29.349  29.518  16.326 -0.1655 -0.2791  0.1352
 3383POSM   NC339688  31.923  26.806  17.474  0.2253 -0.1242  0.0061
 3383POSM   PO439689  31.641  27.063  17.558 -0.0461 -0.2967 -0.2248
 3383POSM   AM139690  31.658  27.148  17.237 -0.4481  0.3632  0.2185
 3383POSM   AM239691  31.878  27.240  17.069 -0.0996  0.1148 -0.3856
 3383POSM   T1A39692  31.493  27.151  16.790 -0.1446 -0.1111 -0.1236
 3383POSM   C2A39693  31.598  26.890  16.450 -0.1543 -0.0023  0.1271
 3383POSM   C3A39694  31.910  26.903  16.134 -0.4908  0.2234  0.0054
 3383POSM   C1B39695  32.007  26.980  16.868 -0.0754  0.0006 -0.1365
 3383POSM   D2B39696  32.113  26.672  16.537  0.0299 -0.0179 -0.2362
 3383POSM   C3B39697  32.168  26.290  16.833 -0.3406 -0.2063  0.2518
 3383POSM   C4B39698  32.316  25.979  17.082 -0.0052  0.1707  0.4645
 3384DOPE   NH339699  30.331  34.165  16.918  0.0165  0.1447 -0.2076
 3384DOPE   PO439700  30.608  34.018  16.887 -0.1027  0.0306 -0.3068
 3384DOPE   GL139701  30.502  34.244  16.523 -0.3057 -0.2833  0.0939
 3384DOPE   GL239702  30.570  34.007  16.382  0.1439 -0.1643  0.1527
 3384DOPE   C1A39703  30.740  34.483  16.211  0.0274  0.7602 -0.0675
 3384DOPE   D2A39704  30.965  34.754  15.877 -0.0042  0.1118 -0.3993
 3384DOPE   C3A39705  30.944  34.456  15.534  0.1367  0.1419 -0.0115
 3384DOPE   C4A39706  30.531  34.512  15.258  0.0961  0.2446 -0.0673
 3384DOPE   C1B39707  30.375  33.788  16.066 -0.0046 -0.2551 -0.5274
 3384DOPE   D2B39708  30.448  33.787  15.624  0.2177  0.0168 -0.0525
 3384DOPE   C3B39709  30.839  33.888  15.401  0.0094  0.0217  0.0132
 3384DOPE   C4B39710  31.168  34.059  15.149  0.1760  0.0210 -0.0325
 3385POSM   NC339711  28.232  22.793  17.455 -0.1132 -0.1126  0.2322
 3385POSM   PO439712  28.311  23.176  17.351  0.2153  0.0839 -0.2120
 3385POSM   AM139713  28.241  23.209  17.044  0.0834  0.2750 -0.4287
 3385POSM   AM239714  28.308  23.339  16.779  0.1443 -0.1038 -0.0113
 3385POSM   T1A39715  27.856  23.155  16.678 -0.0616 -0.2297 -0.2831
 3385POSM   C2A39716  27.537  23.175  16.401  0.0447  0.0675  0.1689
 3385POSM   C3A39717  27.085  22.963  16.409 -0.0857 -0.0675  0.0514
 3385POSM   C1B39718  28.487  23.335  16.457 -0.2637  0.1655  0.1716
 3385POSM   D2B39719  28.570  23.324  15.997  0.2906 -0.3801 -0.1240
 3385POSM   C3B39720  28.635  23.544  15.635 -0.0564 -0.0872 -0.2971
 3385POSM   C4B39721  28.513  23.619  15.170  0.0764 -0.0280  0.1509
 3386DOPS   CNO39722  30.527  29.453  17.277 -0.1322  0.2387  0.2713
 3386DOPS   PO439723  30.631  29.260  16.956  0.1959 -0.0410  0.0540
 3386DOPS   GL139724  30.560  29.269  16.557  0.0437  0.1182 -0.0195
 3386DOPS   GL239725  30.336  29.131  16.574 -0.4137  0.3378  0.0567
 3386DOPS   C1A39726  30.698  29.458  16.127  0.1207  0.0742 -0.1325
 3386DOPS   D2A39727  30.680  29.900  15.918  0.0736  0.1068 -0.1786
 3386DOPS   C3A39728  30.524  30.099  15.526  0.0393 -0.1804  0.0408
 3386DOPS   C4A39729  30.751  30.212  15.072  0.0977 -0.2047 -0.3557
 3386DOPS   C1B39730  30.203  29.223  16.147  0.1984 -0.3759 -0.2334
 3386DOPS   D2B39731  29.891  29.077  15.795  0.4307 -0.3502 -0.0208
 3386DOPS   C3B39732  29.905  29.080  15.343 -0.1997 -0.3391  0.2469
 3386DOPS   C4B39733  30.001  28.923  14.900 -0.2510 -0.1448 -0.1860
 3387POSM   NC339734  34.162  28.030  16.495  0.0329 -0.0283  0.0740
 3387POSM   PO439735  33.990  28.375  16.589 -0.0643 -0.0447  0.0494
 3387POSM   AM139736  33.844  28.451  16.327 -0.3105  0.3464 -0.1132
 3387POSM   AM239737  33.800  28.421  16.039  0.1544 -0.1990  0.1170
 3387POSM   T1A39738  33.365  28.590  16.114 -0.1179  0.1496 -0.2884
 3387POSM   C2A39739  33.042  28.725  15.807 -0.1065 -0.0340  0.0565
 3387POSM   C3A39740  32.716  28.497  15.715  0.2918 -0.4145  0.0503
 3387POSM   C1B39741  33.932  28.438  15.721 -0.0004 -0.1955  0.0851
 3387POSM   D2B39742  33.977  28.302  15.291 -0.2933 -0.3186 -0.0195
 3387POSM   C3B39743  34.420  28.324  15.114 -0.0462 -0.0876  0.5027
 3387POSM   C4B39744  34.835  28.199  15.137 -0.0360 -0.1469 -0.1458
 3388POSM   NC339745  28.519  25.937  16.784  0.0776 -0.0426 -0.3782
 3388POSM   PO439746  28.760  26.180  16.938  0.3759 -0.2385  0.1500
 3388POSM   AM139747  28.929  26.179  16.605  0.1071  0.0887 -0.1782
 3388POSM   AM239748  28.930  26.323  16.348 -0.2697 -0.0753  0.0459
 3388POSM   T1A39749  29.141  25.887  16.225 -0.1397  0.2144  0.0242
 3388POSM   C2A39750  28.876  25.523  16.055  0.2143 -0.3277  0.4701
 3388POSM   C3A39751  28.892  25.239  15.706  0.0654  0.0522  0.1763
 3388POSM   C1B39752  28.626  26.338  16.221 -0.0428  0.0328 -0.0168
 3388POSM   D2B39753  28.496  26.368  15.740  0.2615  0.0941 -0.3291
 3388POSM   C3B39754  28.195  26.324  15.346  0.0344  0.2768  0.0351
 3388POSM   C4B39755  28.193  26.325  14.879  0.1193  0.0122  0.1555
 3389POSM   NC339756  24.967  30.804  16.468 -0.2106 -0.0404  0.2911
 3389POSM   PO439757  25.110  31.162  16.406 -0.3485 -0.2925 -0.2657
 3389POSM   AM139758  25.258  31.130  16.132 -0.1018 -0.0838  0.1814
 3389POSM   AM239759  25.438  31.300  15.996  0.1226  0.0092 -0.0215
 3389POSM   T1A39760  25.160  31.111  15.599 -0.1515  0.0579 -0.2384
 3389POSM   C2A39761  24.961  31.279  15.210  0.0600  0.0587  0.0305
 3389POSM   C3A39762  24.758  31.308  14.760  0.1358 -0.0706 -0.0219
 3389POSM   C1B39763  25.591  31.309  15.684  0.1679 -0.2111  0.1856
 3389POSM   D2B39764  25.820  31.329  15.247 -0.2029  0.6161  0.0058
 3389POSM   C3B39765  26.107  31.205  14.891 -0.0548 -0.2311 -0.0884
 3389POSM   C4B39766  26.412  30.980  14.625 -0.2127 -0.1776  0.0670
 3390DOPE   NH339767  34.262  31.820  16.185 -0.0457  0.0066 -0.2559
 3390DOPE   PO439768  34.242  31.898  15.887 -0.1059  0.0150 -0.0959
 3390DOPE   GL139769  34.676  31.890  15.576  0.1008 -0.0999 -0.2568
 3390DOPE   GL239770  34.965  31.770  15.452  0.0744  0.0067  0.0489
 3390DOPE   C1A39771  34.651  32.181  15.206 -0.0901 -0.0590 -0.2945
 3390DOPE   D2A39772  34.418  32.230  14.806 -0.0229  0.0097 -0.0301
 3390DOPE   C3A39773  34.667  32.021  14.483 -0.0051  0.0260 -0.3418
 3390DOPE   C4A39774  34.732  32.017  13.986 -0.1242 -0.0552 -0.4925
 3390DOPE   C1B39775  35.023  31.751  15.026  0.0080  0.2045 -0.0838
 3390DOPE   D2B39776  35.070  31.731  14.592  0.4382 -0.0035  0.0885
 3390DOPE   C3B39777  35.215  32.042  14.328  0.0018  0.0892  0.0758
 3390DOPE   C4B39778  35.501  32.331  14.119 -0.0497 -0.0061 -0.1716
 3391DOPE   NH339779  24.373  31.091  16.058 -0.2663 -0.1723  0.1319
 3391DOPE   PO439780  24.690  30.968  16.088  0.2173  0.1895 -0.0581
 3391DOPE   GL139781  24.986  30.745  15.762 -0.5258  0.1307  0.2545
 3391DOPE   GL239782  25.035  30.511  16.017  0.1010  0.0810 -0.1173
 3391DOPE   C1A39783  24.914  30.770  15.301  0.0536 -0.1403  0.1954
 3391DOPE   D2A39784  24.856  30.755  14.803  0.1972 -0.0469  0.1206
 3391DOPE   C3A39785  25.126  30.961  14.570 -0.2202 -0.3672  0.0840
 3391DOPE   C4A39786  25.477  30.962  14.261  0.2082  0.2404 -0.3105
 3391DOPE   C1B39787  24.847  30.231  15.726  0.0336 -0.0706 -0.4108
 3391DOPE   D2B39788  24.549  29.941  15.510  0.0164  0.1319 -0.2817
 3391DOPE   C3B39789  24.650  29.539  15.340  0.0774  0.0317  0.2668
 3391DOPE   C4B39790  24.585  29.540  14.879 -0.0691 -0.0174  0.0970
 3392DOPS   CNO39791   0.999  23.918  16.962  0.1882  0.0281  0.0401
 3392DOPS   PO439792   0.660  23.848  16.851  0.0863  0.1229 -0.0433
 3392DOPS   GL139793   0.296  23.909  16.655 -0.1520 -0.0913  0.0121
 3392DOPS   GL239794   0.230  24.206  16.688  0.0119 -0.0678  0.0025
 3392DOPS   C1A39795  -0.011  23.715  16.402  0.3754  0.0407  0.0151
 3392DOPS   D2A39796  -0.472  23.648  16.349 -0.1169  0.1494  0.2709
 3392DOPS   C3A39797  -0.634  23.716  15.944 -0.1463  0.1805 -0.2640
 3392DOPS   C4A39798  -0.940  23.753  15.605 -0.0170  0.0179 -0.3805
 3392DOPS   C1B39799   0.190  24.114  16.198 -0.1318  0.0705  0.1915
 3392DOPS   D2B39800   0.127  24.201  15.752 -0.2118 -0.1026 -0.2379
 3392DOPS   C3B39801   0.110  23.769  15.479 -0.2084 -0.0866  0.5165
 3392DOPS   C4B39802   0.286  23.513  15.186 -0.1596 -0.1724 -0.0350
 3393DOPS   CNO39803  23.423  27.069  16.560 -0.3497 -0.2550  0.0622
 3393DOPS   PO439804  23.359  27.449  16.610 -0.4518 -0.0971  0.3136
 3393DOPS   GL139805  23.226  27.396  16.204 -0.0153  0.1277 -0.3356
 3393DOPS   GL239806  22.977  27.464  16.068 -0.6205 -0.0346 -0.3877
 3393DOPS   C1A39807  23.446  27.242  15.833  0.2197 -0.1538  0.0044
 3393DOPS   D2A39808  23.314  27.236  15.373  0.1827  0.1898 -0.1424
 3393DOPS   C3A39809  23.311  26.793  15.275 -0.2189  0.3452  0.0373
 3393DOPS   C4A39810  23.313  26.322  15.159 -0.2327  0.1183 -0.0091
 3393DOPS   C1B39811  22.732  27.640  15.659  0.0858 -0.0901  0.1892
 3393DOPS   D2B39812  22.466  27.817  15.331  0.2218  0.0664 -0.1618
 3393DOPS   C3B39813  22.608  27.844  14.903 -0.1679 -0.1738 -0.1167
 3393DOPS   C4B39814  22.875  27.532  14.645 -0.1681  0.4622 -0.1135
 3394DOPE   NH339815  27.425  32.845  16.668  0.0640  0.0264 -0.2121
 3394DOPE   PO439816  27.435  32.663  16.945 -0.0827  0.1372 -0.0228
 3394DOPE   GL139817  27.378  32.389  16.592 -0.5821 -0.1919  0.0799
 3394DOPE   GL239818  27.174  32.098  16.700  0.3798 -0.1793  0.1347
 3394DOPE   C1A39819  27.467  32.485  16.128  0.1998 -0.0516  0.2626
 3394DOPE   D2A39820  27.310  32.510  15.707  0.2217  0.1799 -0.0279
 3394DOPE   C3A39821  27.029  32.182  15.618 -0.2448  0.0209 -0.5166
 3394DOPE   C4A39822  26.788  31.843  15.387  0.2958 -0.0433 -0.2009
 3394DOPE   C1B39823  27.264  31.914  16.234 -0.0405  0.0301  0.2158
 3394DOPE   D2B39824  27.496  32.056  15.858 -0.1588 -0.0259 -0.0579
 3394DOPE   C3B39825  27.810  31.908  15.519 -0.1711 -0.1494  0.0278
 3394DOPE   C4B39826  28.080  31.461  15.550  0.2040  0.0144  0.2690
 3395DOPC   NC339827  27.943  32.383  17.280  0.3345 -0.0752  0.4440
 3395DOPC   PO439828  27.990  32.704  17.043  0.1840  0.1794 -0.1330
 3395DOPC   GL139829  27.901  32.909  16.753 -0.2411 -0.1014 -0.0713
 3395DOPC   GL239830  28.196  33.024  16.686  0.0264 -0.1304 -0.3048
 3395DOPC   C1A39831  27.846  32.893  16.297 -0.1747  0.0435  0.1786
 3395DOPC   D2A39832  27.463  33.010  15.988 -0.1391 -0.2212 -0.2042
 3395DOPC   C3A39833  27.223  33.406  16.110 -0.0180 -0.0982 -0.2377
 3395DOPC   C4A39834  27.285  33.835  16.308  0.0680 -0.0580  0.2745
 3395DOPC   C1B39835  28.418  32.972  16.255  0.3916  0.0353  0.0589
 3395DOPC   D2B39836  28.523  33.125  15.871 -0.0213  0.1720 -0.1817
 3395DOPC   C3B39837  28.567  32.982  15.459  0.0832 -0.1931  0.0915
 3395DOPC   C4B39838  28.267  32.842  15.146 -0.1094  0.1288  0.1759
 3396DOPE   NH339839  29.676  31.406  17.944 -0.1917 -0.1797  0.1191
 3396DOPE   PO439840  29.872  31.542  17.720 -0.1159  0.2108 -0.0543
 3396DOPE   GL139841  29.807  31.602  17.317 -0.2901 -0.0532 -0.2109
 3396DOPE   GL239842  29.726  31.337  17.283  0.2636  0.4314  0.0229
 3396DOPE   C1A39843  29.621  31.770  16.950 -0.2393  0.0826  0.2007
 3396DOPE   D2A39844  29.686  31.717  16.496 -0.2039  0.1227  0.0473
 3396DOPE   C3A39845  30.070  31.496  16.457 -0.1614 -0.1860 -0.3950
 3396DOPE   C4A39846  30.503  31.316  16.537 -0.1769  0.0625  0.2850
 3396DOPE   C1B39847  29.718  31.197  16.814  0.4103  0.3638 -0.1014
 3396DOPE   D2B39848  29.876  31.024  16.408 -0.0577  0.2259 -0.1037
 3396DOPE   C3B39849  29.860  31.318  16.016  0.3772  0.3612  0.2690
 3396DOPE   C4B39850  30.113  31.440  15.648  0.0033  0.0794 -0.0559
 3397DOPC   NC339851  22.489  25.643  15.885  0.1675  0.0829 -0.2170
 3397DOPC   PO439852  22.736  25.806  16.155 -0.0160  0.3108 -0.4330
 3397DOPC   GL139853  22.873  26.020  15.782 -0.0876  0.1917  0.3417
 3397DOPC   GL239854  22.639  26.184  15.733  0.0653 -0.0732  0.1721
 3397DOPC   C1A39855  22.940  25.980  15.318 -0.4129  0.3384  0.0077
 3397DOPC   D2A39856  22.987  25.923  14.835  0.0568  0.0771  0.0710
 3397DOPC   C3A39857  22.633  25.756  14.625 -0.2286 -0.0823 -0.1970
 3397DOPC   C4A39858  22.200  25.742  14.613  0.0463  0.0546 -0.0010
 3397DOPC   C1B39859  22.986  26.456  15.600 -0.0659  0.0559 -0.0499
 3397DOPC   D2B39860  23.472  26.401  15.653  0.0856  0.1989 -0.1804
 3397DOPC   C3B39861  23.819  26.661  15.406 -0.0599  0.1825  0.0369
 3397DOPC   C4B39862  24.117  26.980  15.197 -0.1460 -0.1416 -0.0913
 3398DOPE   NH339863  33.729  27.922  16.684 -0.0258 -0.1261  0.0527
 3398DOPE   PO439864  33.668  27.977  16.371  0.1838  0.2314  0.0127
 3398DOPE   GL139865  33.519  27.924  16.104  0.3358  0.0964  0.4029
 3398DOPE   GL239866  33.440  28.093  15.849  0.1675  0.1451  0.2824
 3398DOPE   C1A39867  33.092  27.719  15.982  0.0001 -0.1011  0.1132
 3398DOPE   D2A39868  32.881  27.598  15.560  0.0314  0.2633  0.0056
 3398DOPE   C3A39869  33.051  27.729  15.140  0.1307 -0.2412 -0.1225
 3398DOPE   C4A39870  33.164  27.804  14.744  0.1137  0.1227 -0.2011
 3398DOPE   C1B39871  33.420  28.474  15.610 -0.0857  0.0252  0.0125
 3398DOPE   D2B39872  33.112  28.479  15.284 -0.0979 -0.3170  0.2446
 3398DOPE   C3B39873  33.035  28.280  14.934  0.0010 -0.0639 -0.1855
 3398DOPE   C4B39874  32.807  28.123  14.584  0.1019  0.0685 -0.0639
 3399DOPE   NH339875  32.523  32.032  16.104  0.0639  0.1513 -0.1944
 3399DOPE   PO439876  32.419  32.006  15.805  0.0157 -0.0627 -0.1289
 3399DOPE   GL139877  32.291  31.910  15.405  0.0059  0.0817 -0.1928
 3399DOPE   GL239878  32.484  31.638  15.482 -0.0126  0.1129  0.0292
 3399DOPE   C1A39879  32.548  31.900  15.040  0.2087 -0.2604 -0.0753
 3399DOPE   D2A39880  32.680  31.788  14.580  0.1257 -0.2102 -0.0490
 3399DOPE   C3A39881  32.549  31.494  14.228 -0.1185  0.2172 -0.3455
 3399DOPE   C4A39882  32.294  31.206  13.924  0.0085  0.1078  0.2992
 3399DOPE   C1B39883  32.273  31.492  15.083 -0.1047 -0.0376 -0.0864
 3399DOPE   D2B39884  31.844  31.578  14.865  0.0932 -0.1615 -0.2001
 3399DOPE   C3B39885  31.659  31.203  14.667  0.0767 -0.1527  0.1016
 3399DOPE   C4B39886  31.321  30.937  14.593 -0.2983  0.1330 -0.3695
 3400DOPC   NC339887  24.945  22.853  16.904  0.0905 -0.1802 -0.3165
 3400DOPC   PO439888  25.167  23.199  16.887 -0.2274 -0.1409 -0.3255
 3400DOPC   GL139889  25.409  23.154  16.577  0.2270  0.0196  0.1235
 3400DOPC   GL239890  25.274  23.388  16.388 -0.0114  0.0175 -0.1891
 3400DOPC   C1A39891  25.738  23.296  16.242  0.0900 -0.0712  0.0835
 3400DOPC   D2A39892  26.166  23.470  16.134  0.0446  0.1492  0.4505
 3400DOPC   C3A39893  26.199  23.735  15.743 -0.2940  0.2938 -0.0016
 3400DOPC   C4A39894  26.378  23.933  15.380 -0.0310  0.1299  0.2204
 3400DOPC   C1B39895  25.357  23.366  15.874  0.2273 -0.0510 -0.1671
 3400DOPC   D2B39896  25.432  23.165  15.450  0.0725  0.0582 -0.0371
 3400DOPC   C3B39897  25.476  23.273  15.028  0.3127 -0.2235 -0.1733
 3400DOPC   C4B39898  25.710  23.112  14.642  0.0306  0.2938 -0.0716
 3401DOPC   NC339899  34.065  27.995  16.030  0.0875  0.0949 -0.3379
 3401DOPC   PO439900  34.105  27.635  16.217  0.2718 -0.0474  0.1313
 3401DOPC   GL139901  34.306  27.443  15.929 -0.4424  0.0165  0.0272
 3401DOPC   GL239902  34.241  27.660  15.722 -0.2488 -0.1018 -0.0171
 3401DOPC   C1A39903  34.522  27.206  15.607 -0.1394  0.0286  0.0121
 3401DOPC   D2A39904  34.587  27.193  15.184 -0.0963  0.1361  0.0915
 3401DOPC   C3A39905  34.506  26.805  14.935  0.0789  0.4103  0.3313
 3401DOPC   C4A39906  34.496  26.644  14.497  0.2874 -0.1468  0.0650
 3401DOPC   C1B39907  34.117  27.451  15.370  0.1611  0.0573 -0.0105
 3401DOPC   D2B39908  34.291  27.581  14.955 -0.0110 -0.0753  0.0445
 3401DOPC   C3B39909  33.916  27.640  14.669  0.1842  0.0767 -0.0141
 3401DOPC   C4B39910  33.525  27.657  14.450 -0.0866 -0.2433  0.0341
 3402DOPE   NH339911  30.347  25.708  17.436 -0.3819  0.0558  0.0544
 3402DOPE   PO439912  30.606  25.519  17.402  0.1972 -0.3583 -0.0292
 3402DOPE   GL139913  30.794  25.585  17.096 -0.0984  0.3153 -0.0807
 3402DOPE   GL239914  30.982  25.352  17.045  0.0403  0.1735  0.3716
 3402DOPE   C1A39915  30.654  25.511  16.660 -0.0249 -0.1980  0.3471
 3402DOPE   D2A39916  30.381  25.730  16.355  0.2132  0.1347 -0.2676
 3402DOPE   C3A39917  30.560  25.717  15.957 -0.1563 -0.1700 -0.0838
 3402DOPE   C4A39918  30.826  25.529  15.659 -0.2228 -0.0266  0.0940
 3402DOPE   C1B39919  31.121  25.715  16.742  0.0481  0.0041  0.3717
 3402DOPE   D2B39920  31.386  25.948  16.445  0.0679  0.4073  0.1129
 3402DOPE   C3B39921  31.607  26.336  16.574  0.0129  0.2427  0.1891
 3402DOPE   C4B39922  31.668  26.637  16.920  0.2871  0.1937 -0.0362
 3403DOPE   NH339923   0.403  30.081  16.189  0.1276 -0.1924 -0.0545
 3403DOPE   PO439924   0.079  30.098  16.159 -0.1139 -0.2417 -0.0216
 3403DOPE   GL139925   0.128  29.876  15.870  0.1533 -0.0771 -0.5332
 3403DOPE   GL239926   0.299  30.019  15.679 -0.0615  0.0126 -0.0480
 3403DOPE   C1A39927   0.127  29.518  15.583 -0.1010  0.0000 -0.0193
 3403DOPE   D2A39928   0.126  29.400  15.143  0.0443  0.0212  0.4767
 3403DOPE   C3A39929  -0.258  29.337  14.864  0.1662  0.1642 -0.2165
 3403DOPE   C4A39930  -0.613  29.033  14.774 -0.2342 -0.0500 -0.0202
 3403DOPE   C1B39931   0.050  29.954  15.259  0.1262 -0.2167  0.0302
 3403DOPE   D2B39932  -0.211  29.999  14.936 -0.0763 -0.2628 -0.0216
 3403DOPE   C3B39933  -0.032  30.064  14.546 -0.2866 -0.2318  0.2867
 3403DOPE   C4B39934   0.227  30.078  14.136 -0.0883  0.0639 -0.0663
 3404DOPS   CNO39935  24.996  28.352  16.992 -0.0068 -0.3938  0.3328
 3404DOPS   PO439936  25.191  28.150  16.789  0.0557  0.0460  0.2594
 3404DOPS   GL139937  25.403  28.215  16.431  0.0103 -0.6259 -0.2614
 3404DOPS   GL239938  25.603  28.048  16.547 -0.1903  0.3277  0.0406
 3404DOPS   C1A39939  25.493  28.532  16.109  0.3089 -0.0120  0.0893
 3404DOPS   D2A39940  25.397  28.530  15.607 -0.5209 -0.0649 -0.1146
 3404DOPS   C3A39941  24.991  28.455  15.418 -0.1928 -0.3107 -0.1966
 3404DOPS   C4A39942  24.684  28.292  15.125  0.0131 -0.1031 -0.0420
 3404DOPS   C1B39943  25.637  27.640  16.322 -0.1724 -0.3537 -0.1273
 3404DOPS   D2B39944  25.622  27.502  15.841  0.0228  0.1140 -0.0445
 3404DOPS   C3B39945  26.054  27.343  15.698  0.0481 -0.0397  0.0082
 3404DOPS   C4B39946  26.420  27.493  15.885  0.0843 -0.2214  0.0703
 3405POSM   NC339947  27.535  34.059  16.864 -0.0265 -0.2175 -0.4264
 3405POSM   PO439948  27.806  34.143  17.102 -0.0666  0.2690 -0.0687
 3405POSM   AM139949  27.916  34.234  16.803  0.1150  0.2611 -0.2357
 3405POSM   AM239950  28.105  34.089  16.678  0.1760  0.1434 -0.1885
 3405POSM   T1A39951  27.839  34.268  16.306  0.1417  0.1943 -0.2343
 3405POSM   C2A39952  27.839  34.066  15.904 -0.1727  0.1212 -0.0748
 3405POSM   C3A39953  27.800  33.902  15.441  0.0634 -0.0056  0.2130
 3405POSM   C1B39954  28.265  33.866  16.425 -0.2044  0.1439  0.2578
 3405POSM   D2B39955  28.334  33.650  16.016  0.1375 -0.1866 -0.0947
 3405POSM   C3B39956  28.598  33.837  15.668  0.0478  0.0144  0.3498
 3405POSM   C4B39957  28.774  34.223  15.432 -0.0143 -0.0738 -0.0312
 3406DOPC   NC339958  22.905  29.174  16.324  0.2441 -0.0228 -0.4004
 3406DOPC   PO439959  22.935  28.743  16.307  0.0666  0.0469 -0.3492
 3406DOPC   GL139960  23.277  28.835  16.104 -0.0143  0.1499  0.0505
 3406DOPC   GL239961  23.479  28.628  16.165  0.0084  0.2251  0.0373
 3406DOPC   C1A39962  23.348  28.928  15.619  0.1303  0.1672 -0.0924
 3406DOPC   D2A39963  23.210  28.870  15.192 -0.0122  0.0781  0.2493
 3406DOPC   C3A39964  23.552  29.032  14.935 -0.1248  0.2844 -0.0068
 3406DOPC   C4A39965  23.971  28.966  14.876 -0.1606 -0.0750 -0.0038
 3406DOPC   C1B39966  23.763  28.798  15.826 -0.0909  0.1917  0.0291
 3406DOPC   D2B39967  23.891  28.946  15.368 -0.1443 -0.3536  0.1899
 3406DOPC   C3B39968  23.733  29.382  15.234 -0.2973 -0.2101 -0.0133
 3406DOPC   C4B39969  23.769  29.849  15.114  0.0686  0.0422 -0.0602
 3407DOPC   NC339970  27.609  27.237  17.038 -0.2422  0.2275  0.1585
 3407DOPC   PO439971  27.533  27.168  16.665  0.1310 -0.1820  0.0701
 3407DOPC   GL139972  27.500  26.958  16.313 -0.0174 -0.1608 -0.1693
 3407DOPC   GL239973  27.330  26.659  16.380 -0.0817 -0.2279 -0.2002
 3407DOPC   C1A39974  27.585  26.797  15.882 -0.0454  0.1500  0.0177
 3407DOPC   D2A39975  27.791  26.768  15.479  0.3000 -0.1234 -0.2275
 3407DOPC   C3A39976  27.825  27.209  15.548  0.0696 -0.1013 -0.1239
 3407DOPC   C4A39977  27.643  27.655  15.452  0.1520 -0.4598  0.0069
 3407DOPC   C1B39978  27.359  26.400  16.002  0.0191 -0.1574 -0.1791
 3407DOPC   D2B39979  27.362  26.370  15.498  0.3012  0.3362  0.0307
 3407DOPC   C3B39980  27.197  26.691  15.103  0.3430 -0.0488  0.1078
 3407DOPC   C4B39981  26.923  26.763  14.803  0.1355  0.1009  0.0419
 3408DOPS   CNO39982  26.526  24.615  17.327 -0.0869 -0.0775 -0.1649
 3408DOPS   PO439983  26.569  24.215  17.381 -0.0684 -0.1841  0.2622
 3408DOPS   GL139984  26.643  24.357  16.982  0.4949  0.0501 -0.0063
 3408DOPS   GL239985  26.336  24.454  16.897 -0.0832  0.2460 -0.0598
 3408DOPS   C1A39986  26.751  24.237  16.540  0.0491  0.0018  0.2533
 3408DOPS   D2A39987  26.811  24.136  16.112 -0.0323 -0.2606 -0.0347
 3408DOPS   C3A39988  26.643  23.720  15.956  0.1686  0.1945 -0.2126
 3408DOPS   C4A39989  26.886  23.409  15.687  0.1942  0.1164 -0.0544
 3408DOPS   C1B39990  26.229  24.279  16.460  0.0251 -0.0056  0.0395
 3408DOPS   D2B39991  26.323  24.094  16.071  0.4030 -0.1953  0.2690
 3408DOPS   C3B39992  26.549  24.270  15.742  0.1244  0.0088 -0.0122
 3408DOPS   C4B39993  26.755  24.389  15.316  0.2745  0.0356 -0.1171
 3409DOPC   NC339994  33.489  34.610  16.647 -0.4443 -0.3219  0.1991
 3409DOPC   PO439995  33.372  34.215  16.681 -0.0906  0.1310  0.1558
 3409DOPC   GL139996  33.506  34.414  16.264  0.0566 -0.0171  0.0494
 3409DOPC   GL239997  33.371  34.610  16.173  0.2816 -0.1300 -0.2318
 3409DOPC   C1A39998  33.608  34.290  15.823  0.1245  0.0597  0.1309
 3409DOPC   D2A39999  33.618  34.414  15.348  0.0219 -0.1037  0.1957
 3409DOPC   C3A40000  33.616  34.857  15.418 -0.2425  0.2051 -0.0239
 3409DOPC   C4A40001  33.569  35.338  15.427 -0.0482  0.0280  0.0896
 3409DOPC   C1B40002  32.938  34.718  15.971 -0.0543  0.2386  0.2974
 3409DOPC   D2B40003  32.611  34.945  15.739 -0.3405  0.1623 -0.2466
 3409DOPC   C3B40004  32.645  35.329  15.501  0.2687  0.1859 -0.0174
 3409DOPC   C4B40005  32.552  35.764  15.403 -0.2248 -0.2256 -0.0796
 3410POSM   NC340006  32.677  27.698  17.237 -0.1087 -0.0372 -0.2935
 3410POSM   PO440007  32.417  27.929  17.050  0.0455 -0.1413 -0.2411
 3410POSM   AM140008  32.503  27.877  16.720  0.1926 -0.2390 -0.0217
 3410POSM   AM240009  32.543  28.023  16.492  0.2174 -0.1412 -0.1889
 3410POSM   T1A40010  32.733  27.544  16.446 -0.1586 -0.1843  0.0273
 3410POSM   C2A40011  32.862  27.291  16.091 -0.1342 -0.1920 -0.0819
 3410POSM   C3A40012  32.869  26.887  15.852  0.1505 -0.0358 -0.0980
 3410POSM   C1B40013  32.537  27.921  16.159 -0.0740 -0.0383  0.2092
 3410POSM   D2B40014  32.467  27.882  15.664 -0.1441  0.4892 -0.1336
 3410POSM   C3B40015  32.229  27.632  15.334 -0.0433 -0.1267 -0.2706
 3410POSM   C4B40016  32.078  27.424  14.958  0.1957  0.1122  0.1831
 3411DOPC   NC340017  30.020  24.365  17.481  0.1212 -0.0815 -0.0445
 3411DOPC   PO440018  30.243  24.230  17.203 -0.0582 -0.0877  0.3690
 3411DOPC   GL140019  30.083  24.129  16.795 -0.2306  0.1184  0.2749
 3411DOPC   GL240020  30.127  24.278  16.612  0.0436  0.1941 -0.1747
 3411DOPC   C1A40021  29.718  23.949  16.644 -0.1734 -0.0788  0.0105
 3411DOPC   D2A40022  29.441  23.985  16.280  0.0193  0.2058  0.2071
 3411DOPC   C3A40023  29.342  24.188  15.845 -0.2641  0.0505 -0.0403
 3411DOPC   C4A40024  29.322  24.209  15.415 -0.1402 -0.0831 -0.1032
 3411DOPC   C1B40025  29.886  24.289  16.256  0.1153 -0.0964  0.1755
 3411DOPC   D2B40026  30.049  24.157  15.846  0.2195  0.2042 -0.2407
 3411DOPC   C3B40027  29.789  24.028  15.492  0.1911  0.2472  0.1940
 3411DOPC   C4B40028  29.526  23.722  15.247  0.1562  0.1339  0.1864
 3412DOPC   NC340029  33.026  23.419  17.589 -0.2511  0.5180  0.1574
 3412DOPC   PO440030  32.895  23.394  17.214 -0.1944 -0.0430  0.2049
 3412DOPC   GL140031  33.022  23.624  16.990  0.1256 -0.3099  0.1231
 3412DOPC   GL240032  32.841  23.839  16.898  0.3541  0.0108  0.0275
 3412DOPC   C1A40033  33.044  23.506  16.527  0.0685  0.3051 -0.1088
 3412DOPC   D2A40034  33.144  23.395  16.082  0.1784 -0.2946 -0.0565
 3412DOPC   C3A40035  33.004  23.287  15.640 -0.1300 -0.0808  0.3826
 3412DOPC   C4A40036  33.236  23.038  15.315 -0.2005 -0.0738 -0.0265
 3412DOPC   C1B40037  32.803  24.052  16.535  0.1538  0.0499  0.1199
 3412DOPC   D2B40038  32.811  23.965  16.049 -0.1370  0.1383  0.1696
 3412DOPC   C3B40039  32.833  23.753  15.585 -0.4719 -0.3045 -0.2825
 3412DOPC   C4B40040  32.742  23.482  15.221 -0.0463  0.1484  0.3648
 3413DOPE   NH340041  29.952  22.870  17.318 -0.1598 -0.0614  0.2560
 3413DOPE   PO440042  30.163  22.682  17.126  0.0137  0.1177 -0.0549
 3413DOPE   GL140043  29.959  22.776  16.773 -0.1097  0.0671  0.0599
 3413DOPE   GL240044  30.223  22.752  16.544  0.3991  0.1203  0.5424
 3413DOPE   C1A40045  29.867  22.353  16.515  0.2591 -0.6227  0.0560
 3413DOPE   D2A40046  29.725  21.865  16.419  0.1318  0.1335 -0.2414
 3413DOPE   C3A40047  30.032  21.511  16.258  0.0776 -0.4175 -0.2919
 3413DOPE   C4A40048  30.191  21.142  16.380 -0.2196 -0.0583 -0.0608
 3413DOPE   C1B40049  30.435  22.907  16.189 -0.1003 -0.0933 -0.4570
 3413DOPE   D2B40050  30.702  23.010  15.784 -0.0412 -0.1545  0.0745
 3413DOPE   C3B40051  30.412  23.248  15.510 -0.1026  0.0937  0.3757
 3413DOPE   C4B40052  30.100  23.404  15.204 -0.2157 -0.0632  0.3800
 3414POSM   NC340053  34.284  24.751  17.107  0.1730  0.2294  0.2373
 3414POSM   PO440054  34.594  24.501  16.928  0.4141 -0.0962  0.1924
 3414POSM   AM140055  34.497  24.643  16.624 -0.0295  0.1550 -0.0499
 3414POSM   AM240056  34.299  24.859  16.624 -0.1422  0.0903  0.1102
 3414POSM   T1A40057  34.379  24.464  16.183 -0.1889  0.1250  0.1491
 3414POSM   C2A40058  34.416  24.019  16.037  0.1765  0.0463  0.3277
 3414POSM   C3A40059  34.513  23.595  15.973  0.0689  0.0703 -0.1791
 3414POSM   C1B40060  34.099  24.884  16.365  0.0630  0.0542  0.1888
 3414POSM   D2B40061  33.900  24.700  15.985 -0.3727 -0.1405  0.1770
 3414POSM   C3B40062  33.913  24.737  15.557  0.0764  0.1237  0.3276
 3414POSM   C4B40063  34.154  24.680  15.118 -0.0763 -0.2568  0.0159
 3415POSM   NC340064  25.190  29.954  16.673 -0.2391 -0.2279  0.0448
 3415POSM   PO440065  25.192  30.317  16.568 -0.1851  0.2568 -0.2284
 3415POSM   AM140066  25.410  30.213  16.308  0.0670  0.1979  0.0307
 3415POSM   AM240067  25.682  30.259  16.280 -0.0765  0.1408 -0.0725
 3415POSM   T1A40068  25.400  30.201  15.801 -0.0175  0.1557 -0.1343
 3415POSM   C2A40069  25.203  30.400  15.434 -0.0499  0.2520 -0.0237
 3415POSM   C3A40070  25.227  30.461  14.998 -0.0539 -0.0696 -0.2706
 3415POSM   C1B40071  25.785  30.427  15.969 -0.1924 -0.1322  0.1389
 3415POSM   D2B40072  25.856  30.471  15.485 -0.1394 -0.1812  0.2439
 3415POSM   C3B40073  25.738  30.549  15.045 -0.0227  0.1711 -0.2085
 3415POSM   C4B40074  25.598  30.563  14.581  0.3243 -0.0560  0.0175
 3416DOPE   NH340075  25.422  25.268  16.581  0.1573 -0.1029 -0.3076
 3416DOPE   PO440076  25.344  25.253  16.269 -0.0256 -0.0745  0.2818
 3416DOPE   GL140077  25.236  24.994  16.030 -0.1749  0.0468 -0.4081
 3416DOPE   GL240078  25.371  24.749  16.054 -0.1470 -0.4842 -0.1152
 3416DOPE   C1A40079  25.157  24.961  15.582 -0.0193  0.1413  0.1156
 3416DOPE   D2A40080  25.243  24.571  15.282 -0.0207  0.2488  0.0399
 3416DOPE   C3A40081  25.277  24.582  14.839  0.2270  0.1462 -0.0034
 3416DOPE   C4A40082  25.038  24.522  14.446  0.1633  0.3601  0.2978
 3416DOPE   C1B40083  25.566  24.585  15.653  0.1125 -0.2773 -0.1502
 3416DOPE   D2B40084  25.755  24.396  15.315 -0.1468  0.1733 -0.0808
 3416DOPE   C3B40085  25.871  24.694  15.045  0.4054  0.0392 -0.1698
 3416DOPE   C4B40086  26.109  24.935  14.724  0.4538  0.0506 -0.0780
 3417POSM   NC340087  23.520  25.738  16.592  0.0389 -0.0852  0.1017
 3417POSM   PO440088  23.800  25.450  16.558 -0.0213  0.7083  0.1387
 3417POSM   AM140089  24.052  25.443  16.304 -0.3514  0.1171  0.3238
 3417POSM   AM240090  24.258  25.612  16.195 -0.3444  0.4756 -0.0835
 3417POSM   T1A40091  24.222  25.143  15.947 -0.0562  0.0973  0.2534
 3417POSM   C2A40092  24.249  24.731  15.682 -0.1350 -0.1025  0.2286
 3417POSM   C3A40093  24.431  24.254  15.706  0.1047 -0.2636  0.3023
 3417POSM   C1B40094  24.186  25.736  15.948 -0.2851  0.1575  0.1154
 3417POSM   D2B40095  24.209  25.895  15.537  0.1023 -0.1038  0.2115
 3417POSM   C3B40096  24.263  25.416  15.480  0.1394  0.0460 -0.0501
 3417POSM   C4B40097  24.432  25.046  15.253  0.1778 -0.1434  0.0703
 3418DOPE   NH340098  28.017  33.084  17.323 -0.0278  0.0325 -0.3624
 3418DOPE   PO440099  28.083  33.315  17.089 -0.0369  0.1080  0.1070
 3418DOPE   GL140100  28.094  33.461  16.720  0.1161  0.1846 -0.0517
 3418DOPE   GL240101  27.881  33.679  16.717  0.1868  0.3188  0.1164
 3418DOPE   C1A40102  28.088  33.369  16.317 -0.0734  0.0191 -0.2291
 3418DOPE   D2A40103  28.004  33.226  15.862  0.0944  0.2429 -0.2453
 3418DOPE   C3A40104  28.161  32.803  15.746 -0.0177  0.1120  0.2173
 3418DOPE   C4A40105  28.320  32.464  15.519  0.0991  0.0401 -0.1588
 3418DOPE   C1B40106  27.741  33.750  16.262  0.0198  0.2598  0.1522
 3418DOPE   D2B40107  27.523  33.713  15.825  0.4500  0.0330  0.2942
 3418DOPE   C3B40108  27.595  33.369  15.522 -0.0272  0.3483  0.2170
 3418DOPE   C4B40109  27.699  32.891  15.565  0.1237  0.0088 -0.1706
 3419POSM   NC340110  22.848  28.398  16.789  0.1805  0.1962  0.1615
 3419POSM   PO440111  23.072  28.265  16.477 -0.0212 -0.2336  0.2299
 3419POSM   AM140112  23.188  28.108  16.204  0.2092  0.1665  0.1097
 3419POSM   AM240113  23.295  27.868  16.223 -0.1775  0.1617 -0.0315
 3419POSM   T1A40114  23.427  28.237  15.776 -0.0944 -0.1110  0.3093
 3419POSM   C2A40115  23.793  28.110  15.583 -0.3222 -0.2269 -0.1198
 3419POSM   C3A40116  24.224  28.073  15.379 -0.1746 -0.1655  0.3507
 3419POSM   C1B40117  23.347  27.744  15.917 -0.2699  0.2378 -0.0709
 3419POSM   D2B40118  23.778  27.632  15.710  0.0446 -0.0986  0.0145
 3419POSM   C3B40119  23.736  27.767  15.253  0.3280  0.0996  0.3679
 3419POSM   C4B40120  23.651  27.995  14.852 -0.2794 -0.1300  0.0547
 3420DOPS   CNO40121   0.060  25.819  16.774 -0.0338  0.1505 -0.0280
 3420DOPS   PO440122   0.222  25.436  16.888  0.0952  0.1104 -0.1380
 3420DOPS   GL140123   0.189  25.505  16.467  0.0073  0.4212 -0.2672
 3420DOPS   GL240124   0.170  25.222  16.422 -0.1849  0.3040 -0.1257
 3420DOPS   C1A40125   0.363  25.805  16.215  0.0184  0.1906  0.0947
 3420DOPS   D2A40126   0.453  25.843  15.778  0.1293  0.1558 -0.0937
 3420DOPS   C3A40127   0.145  25.601  15.467 -0.0298  0.4374 -0.4403
 3420DOPS   C4A40128   0.066  25.314  15.121 -0.1257  0.0879  0.0397
 3420DOPS   C1B40129   0.390  25.368  15.961  0.0399  0.0784 -0.2112
 3420DOPS   D2B40130   0.550  25.189  15.561 -0.1315  0.1605  0.1756
 3420DOPS   C3B40131   0.905  24.875  15.729 -0.0938  0.0607 -0.0782
 3420DOPS   C4B40132   1.176  24.524  15.652  0.0796 -0.3893  0.0546
 3421DOPC   NC340133  28.876  32.728  17.264 -0.0142 -0.1508  0.4690
 3421DOPC   PO440134  28.826  32.377  17.494  0.2102 -0.2644  0.3542
 3421DOPC   GL140135  28.711  32.282  17.115 -0.5363 -0.0198  0.2814
 3421DOPC   GL240136  28.459  32.208  17.115 -0.0277  0.0104 -0.1815
 3421DOPC   C1A40137  28.922  32.333  16.695  0.0090  0.2496  0.4213
 3421DOPC   D2A40138  29.141  31.937  16.708  0.2905  0.0302 -0.1404
 3421DOPC   C3A40139  29.056  31.599  16.357  0.0724 -0.1370 -0.0764
 3421DOPC   C4A40140  28.856  31.284  16.103  0.1385  0.2086 -0.0873
 3421DOPC   C1B40141  28.446  32.381  16.704  0.2127  0.0242 -0.1054
 3421DOPC   D2B40142  28.191  32.484  16.367 -0.1661  0.0489  0.0125
 3421DOPC   C3B40143  27.921  32.360  16.065  0.1399 -0.1613  0.1705
 3421DOPC   C4B40144  27.845  32.418  15.625  0.1603 -0.0528  0.0359
 3422DOPS   CNO40145  24.312  34.425  16.760  0.1846  0.1249 -0.3001
 3422DOPS   PO440146  24.050  34.263  16.589 -0.0008 -0.1703 -0.5481
 3422DOPS   GL140147  23.802  34.344  16.407 -0.0941 -0.2823  0.4354
 3422DOPS   GL240148  23.871  34.498  16.163 -0.1429  0.1956  0.2326
 3422DOPS   C1A40149  23.461  34.123  16.239  0.0004  0.1981  0.1550
 3422DOPS   D2A40150  23.089  34.066  15.965 -0.0529  0.0445 -0.3275
 3422DOPS   C3A40151  23.177  33.800  15.608 -0.1569  0.0545 -0.0730
 3422DOPS   C4A40152  23.426  33.913  15.235  0.0599 -0.1717 -0.1868
 3422DOPS   C1B40153  23.521  34.495  15.830 -0.0453 -0.0400  0.0299
 3422DOPS   D2B40154  23.396  34.436  15.328  0.0427 -0.2035 -0.0210
 3422DOPS   C3B40155  23.456  34.714  14.955 -0.1947  0.0978 -0.1264
 3422DOPS   C4B40156  23.725  35.054  14.740  0.1904  0.1049  0.2078
 3423DOPE   NH340157  32.687  32.656  15.986  0.2245  0.0909 -0.1457
 3423DOPE   PO440158  32.451  32.486  15.990  0.0462 -0.2102  0.1388
 3423DOPE   GL140159  32.529  32.534  15.572  0.1074  0.2481  0.2455
 3423DOPE   GL240160  32.311  32.429  15.513 -0.1474  0.1321  0.1336
 3423DOPE   C1A40161  32.793  32.647  15.210 -0.1551  0.0641  0.0132
 3423DOPE   D2A40162  32.760  32.681  14.767  0.1081 -0.2940  0.1563
 3423DOPE   C3A40163  32.869  32.695  14.320  0.2522  0.0412 -0.0539
 3423DOPE   C4A40164  32.713  32.746  13.885 -0.0421 -0.1516 -0.0331
 3423DOPE   C1B40165  32.288  32.386  15.064 -0.0681  0.0845  0.1639
 3423DOPE   D2B40166  31.880  32.423  14.842 -0.0239 -0.1511  0.2349
 3423DOPE   C3B40167  31.708  32.117  14.511 -0.0013 -0.1786 -0.0110
 3423DOPE   C4B40168  31.513  31.722  14.451 -0.0808 -0.1656 -0.0304
 3424DOPC   NC340169  24.248  28.758  16.775 -0.1139  0.3032 -0.1463
 3424DOPC   PO440170  24.237  29.156  16.795  0.3304  0.2300  0.0256
 3424DOPC   GL140171  24.292  29.418  16.521  0.0489  0.0662  0.0728
 3424DOPC   GL240172  24.377  29.305  16.281 -0.2224 -0.0530  0.0422
 3424DOPC   C1A40173  24.104  29.681  16.193  0.0823 -0.2839 -0.0240
 3424DOPC   D2A40174  24.107  29.818  15.807  0.1422 -0.0631 -0.1492
 3424DOPC   C3A40175  24.217  29.500  15.538 -0.0623 -0.1394 -0.0197
 3424DOPC   C4A40176  24.274  29.257  15.151 -0.2194  0.2410 -0.0899
 3424DOPC   C1B40177  24.612  29.544  15.950  0.2559 -0.1862 -0.0628
 3424DOPC   D2B40178  25.049  29.604  15.758 -0.1873  0.0766  0.1272
 3424DOPC   C3B40179  25.343  29.234  15.631 -0.0040  0.4054  0.0363
 3424DOPC   C4B40180  25.613  29.058  15.925  0.2193  0.1960  0.0045
 3425DOPS   CNO40181  23.857  26.285  16.906 -0.1629  0.2621 -0.0122
 3425DOPS   PO440182  23.737  26.260  16.539 -0.1271 -0.0608  0.0494
 3425DOPS   GL140183  23.526  26.113  16.190 -0.0313  0.1487  0.2277
 3425DOPS   GL240184  23.256  26.007  16.001  0.0990  0.0215 -0.4060
 3425DOPS   C1A40185  23.815  26.052  15.801  0.0019  0.1934  0.0040
 3425DOPS   D2A40186  23.849  26.202  15.346 -0.0642  0.3539 -0.1360
 3425DOPS   C3A40187  23.698  26.248  14.858  0.1799  0.0433 -0.3921
 3425DOPS   C4A40188  23.461  26.358  14.437  0.1710  0.2265  0.3736
 3425DOPS   C1B40189  23.440  25.940  15.551  0.0219 -0.0461 -0.4107
 3425DOPS   D2B40190  23.370  25.765  15.143 -0.0981  0.2000 -0.0979
 3425DOPS   C3B40191  23.550  25.780  14.676 -0.1639 -0.0146 -0.2123
 3425DOPS   C4B40192  23.530  25.907  14.203 -0.0279  0.0676 -0.5178
 3426DOPC   NC340193  26.626  25.182  16.631 -0.2454  0.1771 -0.0535
 3426DOPC   PO440194  26.714  24.909  16.906 -0.0027 -0.0102  0.3410
 3426DOPC   GL140195  27.036  24.948  16.693 -0.1840  0.0564  0.1452
 3426DOPC   GL240196  27.125  25.205  16.770  0.1950  0.1465 -0.2672
 3426DOPC   C1A40197  27.244  25.010  16.267 -0.0846  0.2969 -0.0163
 3426DOPC   D2A40198  27.563  25.119  15.946 -0.0455  0.3970  0.2543
 3426DOPC   C3A40199  27.556  25.178  15.497 -0.0297 -0.2349 -0.1485
 3426DOPC   C4A40200  27.624  25.381  15.022 -0.0210  0.2252  0.2195
 3426DOPC   C1B40201  27.515  25.340  16.538 -0.2575 -0.1527 -0.1673
 3426DOPC   D2B40202  27.851  25.456  16.219  0.0070  0.2186  0.0561
 3426DOPC   C3B40203  28.060  25.137  15.984 -0.1061  0.0301 -0.3223
 3426DOPC   C4B40204  28.080  24.806  15.713  0.4159  0.0580  0.0425
 3427DOPE   NH340205  33.141  31.916  16.046 -0.2330  0.3403 -0.0801
 3427DOPE   PO440206  33.347  32.183  16.051  0.1551 -0.0089 -0.0140
 3427DOPE   GL140207  33.337  32.056  15.648  0.6031 -0.0501 -0.0104
 3427DOPE   GL240208  33.364  32.281  15.524 -0.0489 -0.1109 -0.2791
 3427DOPE   C1A40209  33.324  31.892  15.203  0.1237 -0.0675 -0.0038
 3427DOPE   D2A40210  33.088  31.725  14.869 -0.1023 -0.1833 -0.0320
 3427DOPE   C3A40211  33.162  31.942  14.423 -0.0021  0.0895 -0.1509
 3427DOPE   C4A40212  33.368  32.017  13.999 -0.2289 -0.0392 -0.0269
 3427DOPE   C1B40213  33.425  32.351  15.030  0.1077  0.1651 -0.5387
 3427DOPE   D2B40214  33.353  32.438  14.591  0.1085 -0.0236 -0.0490
 3427DOPE   C3B40215  33.662  32.145  14.402 -0.1122 -0.3915 -0.0280
 3427DOPE   C4B40216  33.784  31.747  14.290 -0.4160  0.0429  0.0657
 3428POSM   NC340217  30.700  31.454  17.488  0.0881 -0.2177 -0.4143
 3428POSM   PO440218  30.710  31.801  17.320  0.2126 -0.1180 -0.0962
 3428POSM   AM140219  30.486  31.801  17.110 -0.0166 -0.0362  0.0717
 3428POSM   AM240220  30.283  31.961  16.998  0.0975  0.3056 -0.1836
 3428POSM   T1A40221  30.212  31.530  16.905  0.1677 -0.0662 -0.2415
 3428POSM   C2A40222  30.189  31.065  16.879 -0.0170  0.1633  0.2547
 3428POSM   C3A40223  30.267  30.598  16.675 -0.1216  0.1701 -0.1200
 3428POSM   C1B40224  30.052  32.020  16.815 -0.2698  0.3159 -0.2330
 3428POSM   D2B40225  29.996  32.090  16.377 -0.1115  0.1536 -0.1051
 3428POSM   C3B40226  29.703  32.459  16.195  0.1521 -0.2183 -0.1324
 3428POSM   C4B40227  29.254  32.500  16.346 -0.0270  0.0068  0.2955
 3429DOPE   NH340228  27.844  31.958  17.734  0.0612  0.2337 -0.0150
 3429DOPE   PO440229  27.569  32.012  17.571  0.0093  0.3617  0.1307
 3429DOPE   GL140230  27.786  31.928  17.128  0.1982 -0.3148  0.2945
 3429DOPE   GL240231  28.125  31.886  17.231  0.0612  0.1322  0.0170
 3429DOPE   C1A40232  28.061  32.107  16.827  0.2440 -0.0128  0.1360
 3429DOPE   D2A40233  28.263  31.970  16.415 -0.0451  0.0820  0.0297
 3429DOPE   C3A40234  28.510  31.497  16.477  0.1750  0.1107  0.1708
 3429DOPE   C4A40235  28.516  31.029  16.406  0.0552 -0.0190 -0.0011
 3429DOPE   C1B40236  28.149  31.631  16.900  0.3735 -0.0256  0.1584
 3429DOPE   D2B40237  28.091  31.234  16.650 -0.3178  0.0810  0.1386
 3429DOPE   C3B40238  28.027  31.159  16.193  0.0757  0.3469 -0.1093
 3429DOPE   C4B40239  27.931  31.066  15.782 -0.1037  0.2603  0.3607
 3430POSM   NC340240  31.164  31.953  16.650 -0.0308 -0.1726 -0.1471
 3430POSM   PO440241  31.098  31.682  16.916 -0.1207 -0.3558 -0.0424
 3430POSM   AM140242  30.910  31.599  16.685 -0.1021 -0.2118  0.1685
 3430POSM   AM240243  30.944  31.533  16.410  0.2228  0.0527 -0.0456
 3430POSM   T1A40244  30.502  31.785  16.494 -0.0703  0.0947  0.1050
 3430POSM   C2A40245  30.343  31.759  16.093  0.0328 -0.2889  0.1354
 3430POSM   C3A40246  29.877  31.839  15.967 -0.1506  0.0601 -0.0251
 3430POSM   C1B40247  30.826  31.459  16.070 -0.0455  0.3182  0.0753
 3430POSM   D2B40248  30.613  31.550  15.661  0.1608  0.0747 -0.0780
 3430POSM   C3B40249  30.896  31.499  15.305  0.3703  0.1719  0.1101
 3430POSM   C4B40250  31.008  31.200  14.993 -0.2106 -0.0228  0.0736
 3431DOPC   NC340251  32.364  28.865  16.686  0.1050 -0.1019 -0.2135
 3431DOPC   PO440252  32.211  28.582  16.918  0.1992  0.0827  0.0118
 3431DOPC   GL140253  32.151  28.396  16.639 -0.0468 -0.0668  0.3215
 3431DOPC   GL240254  32.080  28.092  16.732 -0.2018  0.0874  0.1078
 3431DOPC   C1A40255  32.104  28.424  16.199  0.3592 -0.3437 -0.0299
 3431DOPC   D2A40256  32.208  28.442  15.753 -0.1299 -0.1310 -0.0345
 3431DOPC   C3A40257  32.056  28.172  15.378  0.1273  0.0825 -0.1305
 3431DOPC   C4A40258  31.907  27.933  15.015  0.1364  0.2850  0.0865
 3431DOPC   C1B40259  31.947  27.956  16.297 -0.1963  0.1660 -0.0863
 3431DOPC   D2B40260  32.021  27.791  15.890 -0.2343 -0.1696  0.3358
 3431DOPC   C3B40261  31.786  27.803  15.537 -0.0548  0.2275  0.4617
 3431DOPC   C4B40262  31.548  27.522  15.344 -0.0894  0.2592 -0.1536
 3432DOPE   NH340263  30.663  33.150  17.156 -0.1288  0.1592 -0.0094
 3432DOPE   PO440264  30.519  32.995  16.881  0.0165 -0.0995  0.0445
 3432DOPE   GL140265  30.296  32.995  16.496 -0.5667  0.0360  0.0510
 3432DOPE   GL240266  30.151  33.224  16.514 -0.0047  0.0292  0.2729
 3432DOPE   C1A40267  30.079  32.813  16.139 -0.1208  0.0842  0.0101
 3432DOPE   D2A40268  29.870  32.603  15.763 -0.0850  0.1978 -0.0418
 3432DOPE   C3A40269  30.057  32.477  15.377 -0.3421 -0.0605  0.3407
 3432DOPE   C4A40270  30.229  32.242  15.005  0.0924 -0.0573  0.0881
 3432DOPE   C1B40271  30.045  33.373  16.129  0.0680  0.0883 -0.3030
 3432DOPE   D2B40272  29.863  33.594  15.727 -0.0356 -0.2145 -0.1064
 3432DOPE   C3B40273  29.881  33.788  15.351 -0.0978  0.1638  0.1030
 3432DOPE   C4B40274  29.903  34.246  15.359  0.2631 -0.1582 -0.2334
 3433POSM   NC340275  31.623  24.013  16.874 -0.2948 -0.2705 -0.0432
 3433POSM   PO440276  31.435  23.934  17.234  0.1327  0.0930  0.3099
 3433POSM   AM140277  31.190  23.959  17.022  0.2057 -0.1760 -0.0543
 3433POSM   AM240278  31.069  24.094  16.835  0.0113 -0.3488  0.4039
 3433POSM   T1A40279  30.768  23.666  16.879 -0.3292 -0.0070 -0.0424
 3433POSM   C2A40280  30.527  23.496  16.492 -0.1800  0.0424 -0.4113
 3433POSM   C3A40281  30.276  23.426  16.130 -0.0787  0.5092  0.2143
 3433POSM   C1B40282  31.262  24.025  16.532  0.2836  0.0741  0.3021
 3433POSM   D2B40283  31.455  23.683  16.342  0.1718 -0.1547 -0.2671
 3433POSM   C3B40284  31.365  23.773  15.935 -0.1252  0.2718 -0.1278
 3433POSM   C4B40285  31.169  23.969  15.566  0.0089 -0.1414 -0.3597
 3434DOPE   NH340286  32.772  33.086  16.174 -0.3186  0.0868  0.2942
 3434DOPE   PO440287  32.860  33.111  15.882 -0.1439 -0.1920  0.1244
 3434DOPE   GL140288  32.731  33.186  15.523  0.1400 -0.1393  0.0619
 3434DOPE   GL240289  32.946  33.082  15.309  0.0844  0.1491 -0.0214
 3434DOPE   C1A40290  32.466  33.469  15.375 -0.2323  0.0216  0.1467
 3434DOPE   D2A40291  32.037  33.602  15.229  0.0486 -0.0156 -0.1080
 3434DOPE   C3A40292  31.991  33.755  14.799  0.2348  0.3201  0.1110
 3434DOPE   C4A40293  31.990  34.168  14.532 -0.1359 -0.1200 -0.1357
 3434DOPE   C1B40294  33.100  32.938  14.938  0.0104 -0.2530  0.1089
 3434DOPE   D2B40295  33.072  33.095  14.485 -0.0811 -0.2041  0.2664
 3434DOPE   C3B40296  33.219  33.018  14.000 -0.2940 -0.2377  0.0282
 3434DOPE   C4B40297  33.494  33.089  13.609 -0.0998  0.1271  0.0915
 3435DOPE   NH340298  23.802  26.744  16.736  0.5223  0.1920 -0.2224
 3435DOPE   PO440299  24.147  26.797  16.787  0.2835 -0.1062  0.0177
 3435DOPE   GL140300  24.179  27.002  16.517  0.2617  0.4077  0.1731
 3435DOPE   GL240301  24.409  26.939  16.422  0.0086  0.3056  0.0205
 3435DOPE   C1A40302  23.944  27.019  16.131 -0.1261 -0.2352 -0.3169
 3435DOPE   D2A40303  24.030  27.003  15.719  0.3711 -0.2229 -0.1499
 3435DOPE   C3A40304  23.782  27.208  15.425  0.3123 -0.2014  0.1185
 3435DOPE   C4A40305  23.712  27.225  14.958 -0.2143  0.2170  0.2730
 3435DOPE   C1B40306  24.464  27.265  16.017 -0.2483 -0.2402 -0.2842
 3435DOPE   D2B40307  24.816  27.384  15.717 -0.2832 -0.1143  0.0092
 3435DOPE   C3B40308  25.105  27.024  15.554  0.0462 -0.1434 -0.1028
 3435DOPE   C4B40309  24.982  26.602  15.435 -0.0877 -0.3503 -0.3030
 3436DOPE   NH340310  31.861  30.175  17.114 -0.0343 -0.3004  0.0525
 3436DOPE   PO440311  31.963  29.852  17.040  0.2087  0.1591 -0.1316
 3436DOPE   GL140312  31.895  29.793  16.691  0.3381  0.3866  0.1975
 3436DOPE   GL240313  32.023  29.570  16.551  0.4992 -0.3427  0.2223
 3436DOPE   C1A40314  31.562  29.991  16.377 -0.1731 -0.0508 -0.2487
 3436DOPE   D2A40315  31.156  30.115  16.228 -0.2908 -0.2240 -0.1248
 3436DOPE   C3A40316  31.169  30.466  15.993 -0.0149  0.1509  0.0029
 3436DOPE   C4A40317  31.342  30.756  15.711  0.0449 -0.3624 -0.0005
 3436DOPE   C1B40318  31.993  29.833  16.210  0.3268 -0.0308 -0.2149
 3436DOPE   D2B40319  31.936  29.924  15.765  0.2496  0.0983 -0.4344
 3436DOPE   C3B40320  31.977  30.313  15.578  0.2124  0.3221  0.2029
 3436DOPE   C4B40321  31.812  30.722  15.562  0.1647 -0.0972  0.0022
 3437DOPE   NH340322  24.905  25.080  16.522 -0.1130 -0.0821 -0.2136
 3437DOPE   PO440323  25.116  24.832  16.514 -0.0485  0.1138  0.0555
 3437DOPE   GL140324  24.975  24.575  16.253 -0.1333  0.0740 -0.3731
 3437DOPE   GL240325  24.857  24.690  15.958  0.0446 -0.1295  0.0246
 3437DOPE   C1A40326  24.679  24.195  16.180 -0.1288  0.2568 -0.2767
 3437DOPE   D2A40327  24.617  23.750  15.922 -0.0315  0.0470  0.0409
 3437DOPE   C3A40328  24.198  23.748  15.685 -0.0325  0.0474  0.0081
 3437DOPE   C4A40329  23.980  23.576  15.278 -0.2458  0.2050  0.2503
 3437DOPE   C1B40330  24.961  24.278  15.720  0.3641 -0.1194 -0.1034
 3437DOPE   D2B40331  25.320  24.156  15.538  0.0864 -0.0700  0.1955
 3437DOPE   C3B40332  25.406  24.124  15.081 -0.1716  0.0594  0.1576
 3437DOPE   C4B40333  25.425  23.791  14.795 -0.0496  0.0576  0.1439
 3438POSM   NC340334  33.442  25.582  16.953  0.1909  0.0834 -0.1045
 3438POSM   PO440335  33.491  25.968  16.959  0.2149 -0.0122  0.0522
 3438POSM   AM140336  33.416  25.944  16.642  0.1795  0.2242 -0.2376
 3438POSM   AM240337  33.572  25.871  16.430 -0.2128 -0.0694 -0.0321
 3438POSM   T1A40338  33.250  26.215  16.277  0.1049 -0.0975 -0.0790
 3438POSM   C2A40339  32.990  26.237  15.878 -0.1781  0.1927 -0.0418
 3438POSM   C3A40340  32.773  26.438  15.523  0.2288 -0.4128  0.1127
 3438POSM   C1B40341  33.360  25.768  16.197 -0.1192  0.0535 -0.0092
 3438POSM   D2B40342  33.209  25.707  15.812 -0.1721  0.1591  0.0212
 3438POSM   C3B40343  32.815  25.480  15.773  0.2492  0.2804 -0.2033
 3438POSM   C4B40344  32.371  25.526  15.569 -0.0585 -0.1955  0.2476
 3439DOPE   NH340345  32.042  32.246  16.207 -0.0791  0.0357  0.2152
 3439DOPE   PO440346  32.043  31.947  16.221  0.3257  0.2019 -0.1304
 3439DOPE   GL140347  31.985  31.903  15.831 -0.3696 -0.2802  0.0484
 3439DOPE   GL240348  31.901  32.109  15.646  0.0738  0.0521  0.1035
 3439DOPE   C1A40349  31.986  31.596  15.493 -0.3089 -0.2976  0.3232
 3439DOPE   D2A40350  32.142  31.158  15.524 -0.0481  0.0946  0.0982
 3439DOPE   C3A40351  32.242  30.933  15.931  0.1566 -0.2266 -0.2002
 3439DOPE   C4A40352  32.176  30.511  16.007  0.2846  0.0860  0.0489
 3439DOPE   C1B40353  31.944  32.073  15.150 -0.0802 -0.1266 -0.1437
 3439DOPE   D2B40354  32.155  31.917  14.742 -0.0953 -0.1733 -0.1451
 3439DOPE   C3B40355  32.199  31.863  14.312  0.2016  0.3237  0.1137
 3439DOPE   C4B40356  32.072  32.068  13.896  0.0259 -0.0084  0.0833
 3440DOPE   NH340357  32.303  33.631  16.793  0.4173 -0.0969 -0.0625
 3440DOPE   PO440358  32.270  33.952  16.636  0.1720  0.0370  0.1526
 3440DOPE   GL140359  32.287  34.081  16.233 -0.1363 -0.0084  0.1551
 3440DOPE   GL240360  32.544  34.130  16.199 -0.1795 -0.2671  0.0174
 3440DOPE   C1A40361  32.261  33.930  15.774 -0.3885  0.0801  0.1097
 3440DOPE   D2A40362  32.243  34.070  15.350 -0.2762  0.2892 -0.1633
 3440DOPE   C3A40363  31.857  34.048  15.137  0.2650  0.1162 -0.1501
 3440DOPE   C4A40364  31.529  33.947  14.764  0.0647 -0.0083 -0.1364
 3440DOPE   C1B40365  32.890  34.243  15.938 -0.3997  0.3077 -0.2194
 3440DOPE   D2B40366  33.090  34.416  15.596  0.2299  0.0848 -0.1336
 3440DOPE   C3B40367  33.035  34.861  15.460  0.0455 -0.1771  0.2600
 3440DOPE   C4B40368  32.806  35.036  15.069 -0.3890  0.1831  0.1909
 3441POSM   NC340369  31.922  27.781  17.140  0.1614  0.0595 -0.0062
 3441POSM   PO440370  32.245  27.509  17.240 -0.2814 -0.2700  0.3626
 3441POSM   AM140371  32.250  27.428  16.924 -0.1866  0.4711  0.0402
 3441POSM   AM240372  32.171  27.586  16.732  0.0720  0.0109  0.3283
 3441POSM   T1A40373  32.478  27.076  16.600 -0.5164  0.1506  0.0379
 3441POSM   C2A40374  32.363  26.964  16.185 -0.0530  0.0590  0.0091
 3441POSM   C3A40375  32.263  26.827  15.755  0.0985  0.0884 -0.1871
 3441POSM   C1B40376  32.201  27.456  16.415 -0.0206  0.2380 -0.0573
 3441POSM   D2B40377  32.418  27.444  15.972 -0.0511 -0.1454 -0.2068
 3441POSM   C3B40378  32.148  27.258  15.669  0.2516  0.2280  0.1245
 3441POSM   C4B40379  32.229  27.086  15.260  0.1517  0.2741 -0.1272
 3442DOPC   NC340380  26.062  31.447  16.755 -0.0949  0.3280  0.1907
 3442DOPC   PO440381  26.189  31.090  16.815 -0.1367 -0.1694  0.2917
 3442DOPC   GL140382  25.983  31.047  16.472  0.0742  0.3313 -0.0443
 3442DOPC   GL240383  26.228  31.234  16.284  0.0796  0.1461  0.0986
 3442DOPC   C1A40384  26.219  30.753  16.119  0.1115  0.2365 -0.1313
 3442DOPC   D2A40385  26.222  30.392  15.781  0.1868 -0.3941 -0.0214
 3442DOPC   C3A40386  26.613  30.307  15.535 -0.0165 -0.3672 -0.0012
 3442DOPC   C4A40387  26.945  30.411  15.207 -0.3000  0.2814  0.0590
 3442DOPC   C1B40388  26.440  31.186  15.850  0.2220  0.0398  0.0396
 3442DOPC   D2B40389  26.775  31.206  15.545 -0.0106  0.0110 -0.0261
 3442DOPC   C3B40390  27.276  31.301  15.557  0.0553 -0.1289  0.0134
 3442DOPC   C4B40391  27.653  31.449  15.825  0.3325  0.0293 -0.2763
 3443DOPE   NH340392  25.123  25.882  16.117  0.0496 -0.1455 -0.0249
 3443DOPE   PO440393  25.404  25.807  16.262 -0.1365  0.2078 -0.0377
 3443DOPE   GL140394  25.670  25.638  15.858  0.2614  0.1717 -0.2516
 3443DOPE   GL240395  25.802  25.506  16.071 -0.2788  0.1989 -0.1369
 3443DOPE   C1A40396  25.637  25.262  15.652  0.1304 -0.2273 -0.1118
 3443DOPE   D2A40397  25.562  25.107  15.261  0.0457 -0.0693 -0.0952
 3443DOPE   C3A40398  25.675  25.152  14.826  0.1139  0.1930 -0.1919
 3443DOPE   C4A40399  25.575  24.804  14.505 -0.1667  0.0735  0.1528
 3443DOPE   C1B40400  26.023  25.925  15.868  0.1040 -0.2453 -0.1328
 3443DOPE   D2B40401  26.059  26.378  15.803 -0.2158 -0.0838 -0.1830
 3443DOPE   C3B40402  25.940  26.498  15.353  0.1376  0.1037  0.2271
 3443DOPE   C4B40403  25.928  26.658  14.857 -0.0588 -0.0324  0.0984
 3444DOPC   NC340404   0.023  29.201  16.672 -0.2427 -0.1997 -0.2795
 3444DOPC   PO440405  -0.324  29.295  16.492  0.1491 -0.3838 -0.0620
 3444DOPC   GL140406  -0.254  29.237  16.157  0.2264 -0.2499 -0.1812
 3444DOPC   GL240407   0.023  29.243  16.151  0.1489 -0.1350  0.2629
 3444DOPC   C1A40408  -0.331  29.494  15.741  0.1544 -0.1837 -0.2800
 3444DOPC   D2A40409  -0.372  29.630  15.291 -0.0651  0.2703  0.1648
 3444DOPC   C3A40410  -0.768  29.310  15.153 -0.5726  0.0371 -0.0972
 3444DOPC   C4A40411  -1.060  28.963  14.957  0.1221 -0.0369  0.0073
 3444DOPC   C1B40412  -0.070  29.056  15.714 -0.3195 -0.1547  0.2780
 3444DOPC   D2B40413  -0.295  29.147  15.293  0.1088 -0.2621 -0.0124
 3444DOPC   C3B40414  -0.159  28.857  14.961  0.1373 -0.1357 -0.0041
 3444DOPC   C4B40415   0.066  28.562  14.770  0.1487  0.1754  0.0111
 3445POSM   NC340416  24.559  22.669  16.278 -0.0619  0.4317 -0.1129
 3445POSM   PO440417  24.562  22.844  16.613  0.0917 -0.3306  0.2124
 3445POSM   AM140418  24.825  22.991  16.408  0.2704 -0.2427 -0.1184
 3445POSM   AM240419  25.085  22.930  16.357  0.0812  0.0169 -0.1369
 3445POSM   T1A40420  24.952  23.132  15.924 -0.5327  0.0089  0.2045
 3445POSM   C2A40421  24.919  23.285  15.494  0.2692 -0.2035  0.0061
 3445POSM   C3A40422  24.937  23.138  15.041  0.3344  0.4916  0.0966
 3445POSM   C1B40423  25.079  22.676  16.152 -0.1273  0.0111  0.0082
 3445POSM   D2B40424  25.051  22.482  15.810  0.0966  0.1010  0.4466
 3445POSM   C3B40425  24.750  22.381  15.453  0.0816  0.0097 -0.2098
 3445POSM   C4B40426  24.323  22.325  15.311 -0.2201 -0.2295  0.3953
 3446DOPE   NH340427  33.025  26.528  17.566  0.0589  0.1399 -0.1372
 3446DOPE   PO440428  32.760  26.418  17.412 -0.2080  0.0087  0.0134
 3446DOPE   GL140429  32.744  26.507  16.943 -0.1974 -0.0981  0.4216
 3446DOPE   GL240430  32.877  26.841  16.849  0.0142 -0.2272  0.0030
 3446DOPE   C1A40431  32.641  26.297  16.608  0.0508 -0.1856 -0.1505
 3446DOPE   D2A40432  32.397  26.038  16.312  0.0125  0.0558  0.0548
 3446DOPE   C3A40433  31.965  25.872  16.421  0.0224 -0.0287  0.0705
 3446DOPE   C4A40434  31.607  25.734  16.080  0.0137  0.1121  0.1051
 3446DOPE   C1B40435  32.826  26.703  16.386 -0.1998  0.1793  0.3760
 3446DOPE   D2B40436  32.605  26.476  16.086 -0.1050  0.0035 -0.3486
 3446DOPE   C3B40437  32.174  26.479  16.071 -0.2878 -0.1736 -0.0976
 3446DOPE   C4B40438  31.774  26.542  15.799  0.1432 -0.0529  0.0358
 3447DOPE   NH340439  33.712  27.244  16.343  0.3200  0.1615  0.1120
 3447DOPE   PO440440  33.511  27.508  16.396 -0.1312 -0.0578  0.2177
 3447DOPE   GL140441  33.481  27.511  15.927 -0.0085 -0.2938  0.0848
 3447DOPE   GL240442  33.782  27.553  15.863  0.1209 -0.3558 -0.0474
 3447DOPE   C1A40443  33.354  27.705  15.524 -0.1141  0.0149  0.4607
 3447DOPE   D2A40444  33.397  28.068  15.266 -0.1032  0.2066  0.0935
 3447DOPE   C3A40445  33.589  28.049  14.782  0.1104  0.0889  0.4623
 3447DOPE   C4A40446  33.863  28.127  14.403  0.1542  0.0058 -0.3328
 3447DOPE   C1B40447  33.827  27.906  15.594  0.0237  0.2892  0.3355
 3447DOPE   D2B40448  33.846  27.796  15.159  0.1949  0.2209 -0.0716
 3447DOPE   C3B40449  33.516  27.530  14.983 -0.0037  0.0419  0.1348
 3447DOPE   C4B40450  33.158  27.273  14.971 -0.0183  0.4709  0.0790
 3448POSM   NC340451  27.022  24.412  17.307 -0.2078 -0.0303 -0.0828
 3448POSM   PO440452  27.142  24.050  17.324  0.1498  0.0208  0.0937
 3448POSM   AM140453  27.296  24.013  17.031 -0.0696 -0.0996  0.1947
 3448POSM   AM240454  27.520  23.888  16.975 -0.1359 -0.1283  0.0619
 3448POSM   T1A40455  27.293  24.060  16.504 -0.0683 -0.0940 -0.0913
 3448POSM   C2A40456  27.510  24.213  16.162 -0.2354 -0.0281  0.1032
 3448POSM   C3A40457  27.664  24.105  15.719 -0.1922  0.1875 -0.0603
 3448POSM   C1B40458  27.647  23.718  16.701  0.0126 -0.1308 -0.0162
 3448POSM   D2B40459  27.657  23.648  16.261  0.1398  0.0248  0.0032
 3448POSM   C3B40460  27.677  23.634  15.825 -0.2505 -0.5268  0.0235
 3448POSM   C4B40461  27.807  23.533  15.384  0.2380 -0.2952  0.0739
 3449DOPS   CNO40462  30.959  24.667  17.687  0.0304 -0.0120  0.2642
 3449DOPS   PO440463  31.003  24.866  17.376 -0.1352  0.0431  0.0701
 3449DOPS   GL140464  30.988  24.905  17.005  0.5451 -0.1437 -0.4812
 3449DOPS   GL240465  30.856  24.700  16.874  0.0143  0.0615  0.1929
 3449DOPS   C1A40466  31.275  25.038  16.683 -0.6344  0.2684  0.2665
 3449DOPS   D2A40467  31.390  25.103  16.244 -0.2746 -0.2481 -0.1332
 3449DOPS   C3A40468  31.227  25.353  15.834 -0.0588 -0.0002  0.1232
 3449DOPS   C4A40469  31.240  25.385  15.363  0.0891  0.0917 -0.0039
 3449DOPS   C1B40470  30.731  25.046  16.515  0.0640  0.0269  0.2018
 3449DOPS   D2B40471  30.950  25.389  16.237  0.0781 -0.0115 -0.0179
 3449DOPS   C3B40472  31.084  25.770  16.062  0.1649  0.2360 -0.3271
 3449DOPS   C4B40473  31.335  26.136  15.904 -0.0222 -0.4419  0.2762
 3450DOPC   NC340474  26.581  33.117  16.363  0.0113 -0.2121 -0.3592
 3450DOPC   PO440475  26.349  33.408  16.472  0.3468  0.1383  0.1363
 3450DOPC   GL140476  26.347  33.357  16.043 -0.4218 -0.0988 -0.1967
 3450DOPC   GL240477  26.293  33.491  15.865 -0.0108 -0.1591 -0.0209
 3450DOPC   C1A40478  26.754  33.226  15.779  0.0966 -0.1927  0.2086
 3450DOPC   D2A40479  27.134  33.067  15.635  0.1512 -0.3292  0.2237
 3450DOPC   C3A40480  27.343  33.023  15.195  0.2140 -0.0973  0.0090
 3450DOPC   C4A40481  27.783  33.011  15.089 -0.1128  0.0247  0.1481
 3450DOPC   C1B40482  26.481  33.734  15.439 -0.1407  0.0017  0.1169
 3450DOPC   D2B40483  26.795  33.884  15.171  0.2940 -0.0784  0.0875
 3450DOPC   C3B40484  26.995  34.253  15.008  0.1434 -0.1387 -0.5275
 3450DOPC   C4B40485  27.274  34.608  14.939 -0.1208 -0.0666 -0.0387
 3451POSM   NC340486  29.058  27.648  17.126  0.2306 -0.0120 -0.3030
 3451POSM   PO440487  28.833  27.942  17.101  0.0939 -0.1395 -0.0063
 3451POSM   AM140488  28.931  28.134  16.811  0.0844  0.1993 -0.2132
 3451POSM   AM240489  28.951  28.386  16.650  0.0317 -0.0997 -0.2437
 3451POSM   T1A40490  29.048  28.076  16.301  0.1732  0.4143 -0.2018
 3451POSM   C2A40491  28.923  27.991  15.858  0.0506 -0.0597 -0.2666
 3451POSM   C3A40492  28.873  28.051  15.381  0.1273 -0.0609  0.1259
 3451POSM   C1B40493  28.877  28.534  16.372 -0.0419 -0.1663  0.2672
 3451POSM   D2B40494  28.522  28.624  16.038 -0.0058 -0.3045 -0.3396
 3451POSM   C3B40495  28.701  28.540  15.655 -0.0856  0.1049 -0.1505
 3451POSM   C4B40496  29.032  28.620  15.311 -0.3294 -0.0695 -0.0454
 3452DOPE   NH340497  30.522  25.134  17.071  0.0507  0.1097  0.0523
 3452DOPE   PO440498  30.198  25.188  17.221 -0.0511  0.0459  0.1327
 3452DOPE   GL140499  30.140  25.055  16.761 -0.2476 -0.0070  0.4117
 3452DOPE   GL240500  30.349  24.781  16.641 -0.0501 -0.1951 -0.0092
 3452DOPE   C1A40501  30.201  25.256  16.314  0.0574 -0.1373 -0.0070
 3452DOPE   D2A40502  30.514  25.191  15.958  0.0993 -0.0322  0.0163
 3452DOPE   C3A40503  30.393  25.118  15.513 -0.4536 -0.1239  0.1605
 3452DOPE   C4A40504  30.270  25.119  15.061 -0.0404 -0.3280  0.0001
 3452DOPE   C1B40505  30.238  24.636  16.246 -0.0475  0.0415  0.0974
 3452DOPE   D2B40506  30.155  24.659  15.822  0.2894  0.0854 -0.0038
 3452DOPE   C3B40507  29.883  24.930  15.571 -0.2114 -0.1974  0.2042
 3452DOPE   C4B40508  29.926  25.355  15.318  0.2233 -0.0019  0.1090
 3453DOPS   CNO40509  28.909  23.914  17.151 -0.0784  0.0065 -0.3385
 3453DOPS   PO440510  29.275  23.840  17.265  0.0147  0.0550 -0.2342
 3453DOPS   GL140511  29.283  23.784  16.847  0.1367  0.3234  0.1124
 3453DOPS   GL240512  29.215  24.022  16.785  0.2498  0.3425 -0.1581
 3453DOPS   C1A40513  29.444  23.508  16.523  0.0139  0.1977  0.0300
 3453DOPS   D2A40514  29.584  23.417  16.103  0.0084 -0.2345  0.0670
 3453DOPS   C3A40515  29.396  23.718  15.765  0.0060  0.1020 -0.0287
 3453DOPS   C4A40516  29.080  23.640  15.472 -0.0999 -0.4299 -0.1341
 3453DOPS   C1B40517  28.927  23.704  16.537  0.0295 -0.0702  0.0246
 3453DOPS   D2B40518  28.530  23.826  16.274  0.2893  0.0262 -0.0604
 3453DOPS   C3B40519  28.548  24.068  15.923 -0.2945 -0.0038  0.3241
 3453DOPS   C4B40520  28.810  24.412  15.820  0.1804 -0.0440 -0.2268
 3454DOPS   CNO40521  29.231  33.175  17.528 -0.2860  0.1719  0.0118
 3454DOPS   PO440522  29.362  32.814  17.336 -0.0608  0.0116  0.0197
 3454DOPS   GL140523  29.224  32.831  16.969  0.3094 -0.1606 -0.0027
 3454DOPS   GL240524  29.475  32.618  16.805 -0.0893  0.0021 -0.0507
 3454DOPS   C1A40525  28.943  32.820  16.608  0.0675  0.2219 -0.0320
 3454DOPS   D2A40526  28.698  32.535  16.282  0.1119 -0.1781  0.0174
 3454DOPS   C3A40527  28.400  32.272  15.940 -0.0249 -0.1486 -0.3631
 3454DOPS   C4A40528  28.331  31.906  15.617 -0.3556 -0.3492  0.3435
 3454DOPS   C1B40529  29.564  32.212  16.601 -0.3433  0.0674  0.2033
 3454DOPS   D2B40530  29.442  32.022  16.178 -0.1500  0.3342 -0.0936
 3454DOPS   C3B40531  29.595  32.206  15.806  0.3761  0.1812  0.3238
 3454DOPS   C4B40532  29.746  32.108  15.427 -0.0571 -0.2487 -0.2520
 3455DOPE   NH340533  34.623  24.012  17.143  0.2119 -0.2077  0.1814
 3455DOPE   PO440534  34.747  23.741  17.186  0.1824 -0.4267 -0.2922
 3455DOPE   GL140535  34.842  23.576  16.867  0.0775 -0.0094  0.0613
 3455DOPE   GL240536  34.601  23.496  16.807  0.0558  0.1716 -0.0973
 3455DOPE   C1A40537  35.037  23.335  16.462  0.1360 -0.2951  0.0056
 3455DOPE   D2A40538  35.358  23.351  16.179 -0.1872  0.2961  0.0863
 3455DOPE   C3A40539  35.346  23.173  15.757 -0.1605 -0.0256  0.2475
 3455DOPE   C4A40540  35.459  23.095  15.315  0.0575 -0.1030 -0.0849
 3455DOPE   C1B40541  34.508  23.246  16.371 -0.1391 -0.1927  0.2466
 3455DOPE   D2B40542  34.173  23.064  16.116 -0.1919  0.0890  0.1555
 3455DOPE   C3B40543  34.132  23.287  15.702 -0.0050  0.0280  0.1069
 3455DOPE   C4B40544  34.252  23.750  15.500 -0.0012  0.2433 -0.1364
 3456DOPC   NC340545  29.790  25.230  17.562  0.1681  0.1924 -0.0509
 3456DOPC   PO440546  29.808  25.568  17.382 -0.1073 -0.2088 -0.1193
 3456DOPC   GL140547  29.706  25.619  17.014  0.1398 -0.1382  0.1821
 3456DOPC   GL240548  29.385  25.474  17.044  0.0638 -0.0957  0.2138
 3456DOPC   C1A40549  29.857  25.515  16.581  0.3070  0.0321 -0.0575
 3456DOPC   D2A40550  29.654  25.401  16.188  0.5530  0.4399 -0.1176
 3456DOPC   C3A40551  29.953  25.447  15.816  0.0535  0.0309 -0.4197
 3456DOPC   C4A40552  30.304  25.609  15.531 -0.0662  0.0154  0.1351
 3456DOPC   C1B40553  29.311  25.505  16.534  0.3098  0.1353  0.1165
 3456DOPC   D2B40554  29.203  25.183  16.188  0.2619  0.0683 -0.1147
 3456DOPC   C3B40555  29.447  25.122  15.793 -0.2933  0.2512  0.0870
 3456DOPC   C4B40556  29.468  25.241  15.315  0.2632 -0.5103 -0.1118
 3457DOPS   CNO40557  34.271  29.880  16.131  0.0865  0.1739  0.1113
 3457DOPS   PO440558  33.931  30.026  16.003 -0.2820 -0.1232 -0.1441
 3457DOPS   GL140559  34.047  29.983  15.662  0.1891  0.1265  0.2091
 3457DOPS   GL240560  34.353  29.973  15.667 -0.0923  0.0152  0.0368
 3457DOPS   C1A40561  33.899  29.884  15.260 -0.0193  0.0909 -0.0980
 3457DOPS   D2A40562  33.581  29.627  14.998 -0.0986  0.0465  0.1677
 3457DOPS   C3A40563  33.270  29.307  14.871  0.4070 -0.1206 -0.1498
 3457DOPS   C4A40564  32.873  29.122  14.704  0.0107  0.1843 -0.3416
 3457DOPS   C1B40565  34.249  30.243  15.311  0.1663  0.0163  0.3030
 3457DOPS   D2B40566  34.092  30.320  14.893  0.0111 -0.0732 -0.0473
 3457DOPS   C3B40567  34.096  30.054  14.509 -0.0241  0.1736 -0.1077
 3457DOPS   C4B40568  33.901  29.779  14.225  0.4074  0.2453 -0.0330
 3458DOPE   NH340569  26.926  32.496  16.858 -0.4252  0.0745  0.0197
 3458DOPE   PO440570  26.851  32.781  16.885  0.0395 -0.1117  0.1604
 3458DOPE   GL140571  26.790  32.645  16.430  0.2945 -0.1748 -0.3643
 3458DOPE   GL240572  27.102  32.674  16.361 -0.1784  0.3018 -0.0408
 3458DOPE   C1A40573  26.767  32.765  15.972 -0.1306 -0.0936 -0.2379
 3458DOPE   D2A40574  26.749  32.695  15.521 -0.1615  0.1094 -0.0353
 3458DOPE   C3A40575  27.003  32.683  15.171 -0.1383 -0.0041  0.2924
 3458DOPE   C4A40576  27.318  32.686  14.792 -0.1651  0.3415 -0.2165
 3458DOPE   C1B40577  27.008  32.298  16.113  0.1509 -0.0432  0.1048
 3458DOPE   D2B40578  26.777  31.914  16.145 -0.3397  0.2907 -0.3633
 3458DOPE   C3B40579  26.466  31.806  15.793  0.1120 -0.2839  0.0172
 3458DOPE   C4B40580  26.098  31.529  15.631 -0.1213 -0.0374  0.2889
 3459DOPE   NH340581  32.130  31.232  16.835 -0.0559 -0.0891 -0.0479
 3459DOPE   PO440582  31.820  31.167  16.744  0.2365 -0.0369 -0.0559
 3459DOPE   GL140583  31.798  30.976  16.359  0.0858 -0.2299  0.0805
 3459DOPE   GL240584  31.820  30.670  16.318 -0.2422 -0.0714  0.0302
 3459DOPE   C1A40585  31.725  31.082  15.924 -0.2136 -0.4569 -0.1058
 3459DOPE   D2A40586  31.624  31.227  15.534 -0.2485  0.3251  0.3703
 3459DOPE   C3A40587  31.743  31.001  15.156 -0.1168  0.4822 -0.2682
 3459DOPE   C4A40588  31.678  30.701  14.814  0.0360  0.4752  0.1631
 3459DOPE   C1B40589  31.669  30.327  16.019 -0.0012 -0.3254  0.1557
 3459DOPE   D2B40590  31.462  30.217  15.597 -0.0982 -0.2711  0.0508
 3459DOPE   C3B40591  31.369  30.522  15.271 -0.2048  0.0646  0.3983
 3459DOPE   C4B40592  31.069  30.594  14.960  0.1097  0.0865  0.0304
 3460DOPE   NH340593  30.684  27.295  17.512 -0.2876 -0.1157 -0.2407
 3460DOPE   PO440594  30.530  27.516  17.446 -0.0669 -0.0211 -0.1276
 3460DOPE   GL140595  30.630  27.490  17.055  0.1160  0.0988  0.3806
 3460DOPE   GL240596  30.717  27.645  16.953 -0.2255  0.3087  0.1859
 3460DOPE   C1A40597  30.773  27.168  16.717  0.0431 -0.2330 -0.0101
 3460DOPE   D2A40598  30.768  26.849  16.391 -0.0161 -0.2158  0.1593
 3460DOPE   C3A40599  30.913  26.705  16.010  0.0785  0.1966  0.1254
 3460DOPE   C4A40600  30.855  26.636  15.574  0.1474 -0.1018  0.0406
 3460DOPE   C1B40601  30.563  27.633  16.497 -0.2324 -0.3289  0.1619
 3460DOPE   D2B40602  30.531  27.576  16.016 -0.2400 -0.3612 -0.1625
 3460DOPE   C3B40603  30.747  27.412  15.639  0.1337 -0.0260 -0.1391
 3460DOPE   C4B40604  31.021  27.582  15.346  0.3195  0.0725 -0.3945
 3461DOPC   NC340605  33.603  33.921  16.330 -0.0104  0.4053  0.0410
 3461DOPC   PO440606  33.719  33.539  16.262 -0.0537  0.1194  0.1181
 3461DOPC   GL140607  33.673  33.409  15.913  0.2148  0.5629  0.0144
 3461DOPC   GL240608  33.477  33.604  15.841  0.0099  0.2843  0.1328
 3461DOPC   C1A40609  33.927  33.523  15.536  0.0948 -0.0955 -0.2080
 3461DOPC   D2A40610  34.131  33.740  15.146 -0.2931  0.1862 -0.6724
 3461DOPC   C3A40611  34.357  33.487  14.824  0.3583 -0.2437  0.5449
 3461DOPC   C4A40612  34.554  33.202  14.496 -0.0601 -0.1435 -0.4074
 3461DOPC   C1B40613  33.469  33.514  15.392  0.2869 -0.1943 -0.3240
 3461DOPC   D2B40614  33.408  33.409  14.912  0.1245  0.0037 -0.3026
 3461DOPC   C3B40615  33.612  33.284  14.546 -0.1677  0.1046  0.3123
 3461DOPC   C4B40616  33.511  32.861  14.398  0.0351  0.1533  0.0115
 3462POSM   NC340617  25.528  29.210  16.648  0.2505  0.0035 -0.0879
 3462POSM   PO440618  25.212  29.466  16.749  0.1320  0.3508 -0.0440
 3462POSM   AM140619  25.149  29.556  16.436 -0.4246 -0.0812 -0.1747
 3462POSM   AM240620  24.994  29.381  16.221  0.1058 -0.1757  0.3953
 3462POSM   T1A40621  25.448  29.604  16.017 -0.1724 -0.1394  0.0124
 3462POSM   C2A40622  25.891  29.497  15.826 -0.0495 -0.0005  0.2218
 3462POSM   C3A40623  26.241  29.378  15.570 -0.6087 -0.3112  0.0997
 3462POSM   C1B40624  25.108  29.077  16.129  0.0068  0.1462 -0.1289
 3462POSM   D2B40625  24.968  28.644  16.018  0.3896  0.2642  0.1861
 3462POSM   C3B40626  25.136  28.263  15.908 -0.0975  0.3393 -0.1494
 3462POSM   C4B40627  25.531  28.034  15.690  0.0187 -0.0035  0.0980
 3463POSM   NC340628  23.229  32.936  17.007  0.0613 -0.2713  0.0448
 3463POSM   PO440629  23.170  33.097  16.674  0.1747  0.0365 -0.1721
 3463POSM   AM140630  22.998  32.998  16.425 -0.2456 -0.3948  0.1045
 3463POSM   AM240631  22.999  32.809  16.287 -0.1513  0.0327  0.0794
 3463POSM   T1A40632  22.828  33.200  16.017  0.1023 -0.0163 -0.1135
 3463POSM   C2A40633  22.610  33.634  15.938 -0.0343 -0.1861  0.1004
 3463POSM   C3A40634  22.373  33.968  15.779  0.2524  0.1924  0.1424
 3463POSM   C1B40635  23.043  32.627  15.964 -0.1355  0.2693  0.1748
 3463POSM   D2B40636  23.097  32.459  15.530  0.0189 -0.0602 -0.1845
 3463POSM   C3B40637  23.465  32.193  15.543  0.3642  0.0893 -0.0529
 3463POSM   C4B40638  23.514  31.879  15.237 -0.2494  0.0219  0.3361
 3464DOPC   NC340639  29.110  26.917  17.434 -0.0378 -0.1228  0.3365
 3464DOPC   PO440640  29.068  26.936  17.059 -0.0889  0.2610 -0.0288
 3464DOPC   GL140641  29.288  26.811  16.721  0.1806  0.0518 -0.2896
 3464DOPC   GL240642  29.579  26.936  16.618 -0.2120 -0.1452  0.0834
 3464DOPC   C1A40643  29.255  26.744  16.246  0.0580  0.0541 -0.2978
 3464DOPC   D2A40644  28.978  26.574  15.942 -0.1437 -0.0401  0.1605
 3464DOPC   C3A40645  28.921  26.139  15.836 -0.0563 -0.0068 -0.2939
 3464DOPC   C4A40646  28.673  25.792  15.684  0.0978  0.2582  0.0734
 3464DOPC   C1B40647  29.234  27.227  16.444 -0.1492 -0.1846 -0.0983
 3464DOPC   D2B40648  29.201  27.594  16.149  0.1946 -0.0047 -0.1160
 3464DOPC   C3B40649  29.444  27.631  15.759 -0.0292 -0.0360  0.0103
 3464DOPC   C4B40650  29.630  27.858  15.295  0.2715 -0.0530 -0.1470
 3465DOPC   NC340651  31.467  28.322  17.256 -0.1149 -0.1912  0.0177
 3465DOPC   PO440652  31.737  28.336  16.950  0.0902  0.0431  0.0396
 3465DOPC   GL140653  31.584  28.119  16.632 -0.0439 -0.3405 -0.1861
 3465DOPC   GL240654  31.298  28.117  16.597  0.1731 -0.2184  0.2623
 3465DOPC   C1A40655  31.597  28.359  16.211  0.0548 -0.3401  0.0550
 3465DOPC   D2A40656  31.746  28.328  15.801  0.1190  0.0676 -0.3413
 3465DOPC   C3A40657  31.400  28.387  15.485 -0.0544  0.0081  0.1704
 3465DOPC   C4A40658  31.145  28.446  15.097 -0.0576  0.1506 -0.1530
 3465DOPC   C1B40659  30.960  27.958  16.341 -0.4065  0.2004  0.2061
 3465DOPC   D2B40660  31.029  27.714  15.917 -0.2716  0.1180 -0.1001
 3465DOPC   C3B40661  31.283  27.388  15.768  0.2069  0.2277  0.0645
 3465DOPC   C4B40662  31.242  26.960  15.579  0.0181 -0.2174 -0.0187
 3466DOPS   CNO40663  24.019  31.229  16.984 -0.3804 -0.3252  0.0088
 3466DOPS   PO440664  24.034  31.310  16.631  0.0886 -0.1951 -0.0925
 3466DOPS   GL140665  24.002  31.352  16.166  0.3230  0.0793 -0.0834
 3466DOPS   GL240666  23.865  31.055  16.208  0.2181  0.2819 -0.2370
 3466DOPS   C1A40667  24.193  31.541  15.767  0.1587 -0.1941 -0.2365
 3466DOPS   D2A40668  24.438  31.899  15.566 -0.1707 -0.1877 -0.1059
 3466DOPS   C3A40669  24.834  31.896  15.354  0.0598  0.2416  0.1330
 3466DOPS   C4A40670  25.073  31.906  14.989  0.1930  0.0851 -0.2129
 3466DOPS   C1B40671  23.813  31.220  15.774 -0.2069 -0.0047 -0.0016
 3466DOPS   D2B40672  23.929  31.460  15.395 -0.0412  0.0880 -0.0175
 3466DOPS   C3B40673  24.376  31.488  15.201  0.1004 -0.1982 -0.4026
 3466DOPS   C4B40674  24.567  31.765  14.837 -0.0451  0.2265  0.2366
 3467DOPE   NH340675  31.829  24.217  17.322 -0.4271 -0.0776 -0.1303
 3467DOPE   PO440676  32.165  24.313  17.203  0.2245  0.0218  0.0543
 3467DOPE   GL140677  32.006  24.383  16.790  0.0466  0.0197  0.1602
 3467DOPE   GL240678  31.813  24.554  16.949  0.1281 -0.0860 -0.0913
 3467DOPE   C1A40679  31.817  24.248  16.396  0.2211 -0.0069 -0.1103
 3467DOPE   D2A40680  31.668  24.117  16.063  0.1187 -0.0352  0.1038
 3467DOPE   C3A40681  31.168  24.227  16.024  0.0651 -0.2208  0.0080
 3467DOPE   C4A40682  30.759  24.056  15.819 -0.0545  0.2443 -0.1407
 3467DOPE   C1B40683  31.482  24.521  16.631  0.0258 -0.1771  0.2260
 3467DOPE   D2B40684  31.109  24.602  16.341 -0.0261  0.0500  0.1221
 3467DOPE   C3B40685  31.134  24.783  15.903 -0.1325 -0.1925  0.0595
 3467DOPE   C4B40686  30.918  25.036  15.530  0.1998 -0.0697 -0.1524
 3468DOPS   CNO40687  33.191  27.704  16.707  0.0028  0.0020 -0.1033
 3468DOPS   PO440688  32.966  27.962  16.829  0.2529 -0.0934 -0.1592
 3468DOPS   GL140689  32.946  28.179  16.564 -0.0572  0.2115 -0.4924
 3468DOPS   GL240690  33.179  28.098  16.385  0.1413  0.2112  0.0203
 3468DOPS   C1A40691  32.649  28.499  16.294 -0.3008  0.2512 -0.0971
 3468DOPS   D2A40692  32.557  28.863  16.026  0.0518 -0.0245 -0.1302
 3468DOPS   C3A40693  32.662  29.255  15.719  0.1324  0.2921 -0.2879
 3468DOPS   C4A40694  32.819  29.717  15.793 -0.0610  0.0146  0.1802
 3468DOPS   C1B40695  32.948  28.206  15.988 -0.0499 -0.1576 -0.0737
 3468DOPS   D2B40696  32.952  28.075  15.544  0.0035 -0.0271 -0.1673
 3468DOPS   C3B40697  32.646  28.047  15.257  0.2626  0.1986 -0.1934
 3468DOPS   C4B40698  32.409  28.146  14.854  0.0342  0.3521  0.0362
 3469DOPE   NH340699  33.801  24.374  13.465 -0.4138 -0.1758  0.1137
 3469DOPE   PO440700  33.833  24.135  13.263 -0.0437 -0.2067  0.0529
 3469DOPE   GL140701  34.211  24.250  13.258 -0.5279 -0.0537 -0.0134
 3469DOPE   GL240702  34.212  24.328  12.979 -0.1115  0.3310 -0.0061
 3469DOPE   C1A40703  34.613  23.989  13.228 -0.0635  0.3410  0.0984
 3469DOPE   D2A40704  35.025  24.060  13.423 -0.0160  0.2006  0.3751
 3469DOPE   C3A40705  35.451  24.207  13.220 -0.0590  0.2185  0.0874
 3469DOPE   C4A40706  35.504  24.405  12.826  0.0280  0.1531  0.2699
 3469DOPE   C1B40707  34.496  24.473  12.735  0.0220  0.0959  0.1712
 3469DOPE   D2B40708  34.960  24.656  12.792 -0.0016 -0.1060 -0.0532
 3469DOPE   C3B40709  35.174  24.637  13.242 -0.1219 -0.1574 -0.2037
 3469DOPE   C4B40710  35.018  24.496  13.653  0.0564  0.0356  0.0305
 3470DOPS   CNO40711  25.194  27.049  13.347  0.1874  0.0106  0.0221
 3470DOPS   PO440712  25.204  26.960  13.722  0.0031 -0.1574  0.0045
 3470DOPS   GL140713  25.221  26.951  14.150  0.0260 -0.0934  0.1654
 3470DOPS   GL240714  25.190  27.218  14.206  0.0422 -0.0916 -0.0122
 3470DOPS   C1A40715  25.475  26.545  14.195  0.1124 -0.3784 -0.3207
 3470DOPS   D2A40716  25.720  26.263  14.471  0.4158  0.1990 -0.2478
 3470DOPS   C3A40717  25.578  25.887  14.684  0.0347  0.0229 -0.0791
 3470DOPS   C4A40718  25.568  25.632  15.103 -0.2127 -0.0163  0.3355
 3470DOPS   C1B40719  25.040  27.527  14.535 -0.1685  0.0413 -0.1545
 3470DOPS   D2B40720  24.687  27.461  14.826 -0.0175 -0.2377 -0.1614
 3470DOPS   C3B40721  24.648  27.723  15.267 -0.0763  0.0908  0.1397
 3470DOPS   C4B40722  24.769  28.040  15.595 -0.2131 -0.0443 -0.1972
 3471DOPE   NH340723  33.261  24.689  13.387  0.0785 -0.1094 -0.0956
 3471DOPE   PO440724  33.468  24.844  13.219  0.3675 -0.2506 -0.0295
 3471DOPE   GL140725  33.565  25.203  13.492  0.2509  0.2583  0.4734
 3471DOPE   GL240726  33.636  25.361  13.198  0.1933 -0.3061  0.1995
 3471DOPE   C1A40727  33.155  25.481  13.519  0.1613  0.3527  0.1257
 3471DOPE   D2A40728  32.786  25.375  13.784  0.3397 -0.0770  0.5205
 3471DOPE   C3A40729  32.778  25.676  14.183  0.0470 -0.0858 -0.1231
 3471DOPE   C4A40730  32.861  25.779  14.648  0.4272 -0.0198  0.1109
 3471DOPE   C1B40731  33.627  25.653  13.526 -0.0731 -0.0620  0.0257
 3471DOPE   D2B40732  33.323  25.781  13.885  0.1660 -0.2663  0.0080
 3471DOPE   C3B40733  33.146  25.980  14.188  0.0626  0.0606 -0.4505
 3471DOPE   C4B40734  33.267  26.301  14.531 -0.3484  0.0063  0.0624
 3472DOPE   NH340735  33.727  23.761  13.504  0.3735  0.0266 -0.1695
 3472DOPE   PO440736  33.792  23.955  13.777 -0.1197  0.0674  0.2662
 3472DOPE   GL140737  33.739  24.282  13.923 -0.0174  0.0547 -0.1601
 3472DOPE   GL240738  33.973  24.480  13.932 -0.1296 -0.2411 -0.1533
 3472DOPE   C1A40739  33.674  24.498  14.341 -0.1454 -0.1996  0.2321
 3472DOPE   D2A40740  33.774  24.485  14.827  0.1558  0.2062  0.3663
 3472DOPE   C3A40741  33.735  24.889  15.040 -0.0640  0.0111 -0.0869
 3472DOPE   C4A40742  33.845  25.238  15.304 -0.3927  0.1893  0.2980
 3472DOPE   C1B40743  34.094  24.877  14.205  0.0411  0.1151  0.1696
 3472DOPE   D2B40744  34.202  25.241  14.484  0.0307  0.0407 -0.2092
 3472DOPE   C3B40745  33.885  25.450  14.726  0.1226  0.3665 -0.1949
 3472DOPE   C4B40746  33.650  25.860  14.667 -0.2929 -0.1841 -0.1091
 3473DOPC   NC340747  33.970  24.958  13.670  0.2245 -0.2291  0.1086
 3473DOPC   PO440748  33.626  24.790  13.719  0.3387 -0.0657  0.0789
 3473DOPC   GL140749  33.605  24.929  14.072 -0.2808 -0.4074 -0.0866
 3473DOPC   GL240750  33.700  25.158  14.062  0.0606  0.0050 -0.0119
 3473DOPC   C1A40751  33.735  24.960  14.538  0.0711  0.2778  0.0088
 3473DOPC   D2A40752  34.132  24.757  14.670  0.1572  0.0383 -0.2074
 3473DOPC   C3A40753  34.202  24.385  14.371 -0.1511  0.0389  0.1008
 3473DOPC   C4A40754  34.310  23.971  14.334  0.1058  0.0671  0.0952
 3473DOPC   C1B40755  33.687  25.597  14.117 -0.0814 -0.1169  0.3099
 3473DOPC   D2B40756  33.663  26.040  14.218  0.2393  0.0380  0.0791
 3473DOPC   C3B40757  33.515  26.430  14.083  0.1931  0.0351  0.1474
 3473DOPC   C4B40758  33.246  26.623  13.798 -0.1967  0.1895 -0.4369
 3474DOPC   NC340759  23.870  30.885  13.475 -0.2710  0.1081  0.0271
 3474DOPC   PO440760  23.786  30.999  13.116 -0.3039 -0.4275  0.0392
 3474DOPC   GL140761  24.167  31.000  12.970  0.3298  0.4082 -0.1417
 3474DOPC   GL240762  24.184  30.696  12.987 -0.0927 -0.0946  0.2068
 3474DOPC   C1A40763  24.469  31.085  13.283 -0.1195  0.0575 -0.2345
 3474DOPC   D2A40764  24.712  31.062  13.658  0.4995  0.0857  0.1561
 3474DOPC   C3A40765  24.892  30.830  14.004 -0.0903  0.1571 -0.0867
 3474DOPC   C4A40766  24.598  30.670  14.292 -0.0427  0.1475  0.0270
 3474DOPC   C1B40767  24.552  30.603  13.306 -0.3960  0.2991  0.0370
 3474DOPC   D2B40768  24.614  30.439  13.731 -0.1360 -0.2208  0.0154
 3474DOPC   C3B40769  24.858  30.184  13.948 -0.1435 -0.1978  0.1079
 3474DOPC   C4B40770  25.181  30.042  14.226  0.1851 -0.1926 -0.0877
 3475DOPE   NH340771  22.789  30.567  13.214  0.0884  0.0944 -0.1680
 3475DOPE   PO440772  22.863  30.587  13.528  0.0714 -0.0664 -0.3667
 3475DOPE   GL140773  22.949  30.716  13.880  0.1882  0.0200 -0.1179
 3475DOPE   GL240774  23.077  30.948  13.889  0.0558 -0.0312  0.0863
 3475DOPE   C1A40775  22.608  30.932  14.173 -0.1919  0.1217 -0.0120
 3475DOPE   D2A40776  22.215  30.926  14.399 -0.0585  0.0603 -0.1452
 3475DOPE   C3A40777  22.234  31.268  14.649 -0.1313 -0.3379 -0.2156
 3475DOPE   C4A40778  22.437  31.641  14.814  0.0399  0.1706  0.1092
 3475DOPE   C1B40779  23.218  31.264  14.189 -0.0369 -0.2649 -0.0646
 3475DOPE   D2B40780  23.311  31.306  14.649 -0.0767  0.0094 -0.2020
 3475DOPE   C3B40781  23.495  30.899  14.710  0.1892 -0.0246 -0.0424
 3475DOPE   C4B40782  23.817  30.646  14.528 -0.1557  0.1520 -0.0046
 3476DOPE   NH340783  34.176  34.284  13.005 -0.0017 -0.0432  0.0966
 3476DOPE   PO440784  34.377  34.015  12.958 -0.0277  0.0041  0.1816
 3476DOPE   GL140785  34.282  33.739  13.010  0.0115  0.2280  0.0465
 3476DOPE   GL240786  34.014  33.764  13.142  0.0143 -0.1407 -0.0569
 3476DOPE   C1A40787  34.241  33.286  13.131 -0.1252  0.0026 -0.1963
 3476DOPE   D2A40788  34.442  32.915  13.020 -0.1102 -0.0812  0.0944
 3476DOPE   C3A40789  34.468  32.730  12.588 -0.0804  0.2010 -0.2161
 3476DOPE   C4A40790  34.730  32.503  12.302 -0.1393  0.1322  0.3409
 3476DOPE   C1B40791  33.794  33.435  13.336  0.3362  0.1448 -0.0455
 3476DOPE   D2B40792  33.641  33.120  12.974 -0.0846  0.0235  0.1396
 3476DOPE   C3B40793  33.286  32.829  13.127  0.0835 -0.3237 -0.0924
 3476DOPE   C4B40794  33.096  32.764  13.560  0.1912  0.3230 -0.3342
 3477DOPE   NH340795  30.234  27.386  13.717  0.0526 -0.0810 -0.0235
 3477DOPE   PO440796  30.463  27.507  13.907  0.0621 -0.2683 -0.2005
 3477DOPE   GL140797  30.486  27.792  14.139 -0.1851 -0.2047  0.1545
 3477DOPE   GL240798  30.726  27.697  14.285 -0.1071  0.2049  0.0876
 3477DOPE   C1A40799  30.432  28.267  14.190  0.0080 -0.0684 -0.0902
 3477DOPE   D2A40800  30.326  28.669  14.404 -0.0227 -0.0303 -0.1790
 3477DOPE   C3A40801  30.627  28.921  14.690 -0.1887 -0.0786 -0.1819
 3477DOPE   C4A40802  30.900  28.923  15.134  0.1518 -0.0084  0.3355
 3477DOPE   C1B40803  30.469  27.848  14.625  0.2352  0.1787  0.0709
 3477DOPE   D2B40804  30.165  27.931  14.939  0.0936 -0.0565 -0.1393
 3477DOPE   C3B40805  29.728  27.939  14.777 -0.1680 -0.0835  0.2312
 3477DOPE   C4B40806  29.538  27.960  14.318 -0.0164  0.2396  0.0034
 3478POSM   NC340807  23.429  31.284  13.201  0.2342 -0.0404  0.2260
 3478POSM   PO440808  23.621  31.339  13.502  0.1010  0.0267 -0.2030
 3478POSM   AM140809  23.864  31.414  13.742 -0.0820  0.4434  0.1672
 3478POSM   AM240810  24.128  31.371  13.700 -0.1885 -0.1427 -0.0047
 3478POSM   T1A40811  23.945  31.589  14.180 -0.1467  0.0822 -0.1150
 3478POSM   C2A40812  24.377  31.664  14.380 -0.1088 -0.0705 -0.1043
 3478POSM   C3A40813  24.713  32.058  14.436  0.2623  0.0574 -0.0354
 3478POSM   C1B40814  24.336  31.255  13.923 -0.0890 -0.0033 -0.1796
 3478POSM   D2B40815  24.656  31.197  14.292  0.1588  0.1721 -0.1194
 3478POSM   C3B40816  25.068  31.365  14.173 -0.1400 -0.0139  0.0130
 3478POSM   C4B40817  25.480  31.598  14.096 -0.3171  0.3050 -0.0725
 3479DOPE   NH340818  27.741  30.617  13.914 -0.4651  0.0573 -0.1006
 3479DOPE   PO440819  27.974  30.401  14.086  0.2297  0.2970 -0.4507
 3479DOPE   GL140820  27.870  30.393  14.425 -0.2454  0.0654 -0.7036
 3479DOPE   GL240821  27.607  30.313  14.439  0.2443  0.0652  0.1035
 3479DOPE   C1A40822  27.928  30.175  14.843  0.0123 -0.0993 -0.0101
 3479DOPE   D2A40823  28.090  30.028  15.237 -0.1268  0.0845 -0.2468
 3479DOPE   C3A40824  28.443  29.849  15.373 -0.1205 -0.2332 -0.1122
 3479DOPE   C4A40825  28.785  29.521  15.306 -0.2019 -0.0738 -0.2582
 3479DOPE   C1B40826  27.501  30.619  14.761 -0.1175 -0.0546 -0.0788
 3479DOPE   D2B40827  27.341  30.734  15.137  0.2757 -0.1078 -0.2295
 3479DOPE   C3B40828  26.951  30.977  15.100  0.0015 -0.2928 -0.1464
 3479DOPE   C4B40829  26.641  31.391  15.047 -0.1514  0.2246 -0.1650
 3480POSM   NC340830  29.505  29.896  13.417 -0.3292  0.0150 -0.2172
 3480POSM   PO440831  29.532  30.211  13.632 -0.2974 -0.1190 -0.2388
 3480POSM   AM140832  29.735  30.157  13.876 -0.1070  0.1753 -0.1228
 3480POSM   AM240833  29.980  29.975  13.837 -0.1414 -0.1795 -0.0869
 3480POSM   T1A40834  29.817  30.047  14.350  0.3466  0.1410 -0.3141
 3480POSM   C2A40835  30.053  29.724  14.520  0.0800 -0.2553  0.3197
 3480POSM   C3A40836  30.290  29.332  14.605 -0.1732 -0.4159 -0.1700
 3480POSM   C1B40837  29.955  29.696  13.656 -0.1078 -0.0935 -0.1294
 3480POSM   D2B40838  30.081  29.351  13.379  0.2804 -0.0333  0.0022
 3480POSM   C3B40839  30.200  29.279  13.816 -0.1050  0.0141 -0.0004
 3480POSM   C4B40840  30.476  29.300  14.156 -0.1305 -0.0157 -0.2359
 3481POSM   NC340841  24.054  23.060  12.388 -0.1256 -0.0465 -0.1593
 3481POSM   PO440842  24.317  23.286  12.666  0.2552 -0.0543 -0.0684
 3481POSM   AM140843  24.352  23.571  12.845 -0.2988  0.2711  0.0508
 3481POSM   AM240844  24.407  23.697  13.109 -0.2883  0.2518  0.2650
 3481POSM   T1A40845  24.260  24.064  12.802  0.1428  0.0221 -0.0232
 3481POSM   C2A40846  24.553  24.386  12.924 -0.2502  0.1072 -0.0988
 3481POSM   C3A40847  24.794  24.726  12.777 -0.2485 -0.3020 -0.0932
 3481POSM   C1B40848  24.309  23.938  13.372 -0.2022 -0.2267  0.2000
 3481POSM   D2B40849  24.298  24.299  13.494 -0.3649 -0.2088 -0.0262
 3481POSM   C3B40850  24.559  24.687  13.385  0.0553  0.2673  0.1494
 3481POSM   C4B40851  24.395  25.137  13.449  0.1912  0.1029  0.0561
 3482DOPC   NC340852  32.396  31.287  12.589 -0.0005 -0.1371  0.1719
 3482DOPC   PO440853  32.246  31.440  12.244  0.0901 -0.2967  0.2440
 3482DOPC   GL140854  32.489  31.762  12.369 -0.2687  0.1400  0.0374
 3482DOPC   GL240855  32.240  31.835  12.528  0.3156  0.3835 -0.0288
 3482DOPC   C1A40856  32.690  32.202  12.502  0.0552  0.4727 -0.0639
 3482DOPC   D2A40857  32.621  32.598  12.745  0.0087 -0.3203  0.3738
 3482DOPC   C3A40858  32.700  32.963  12.484 -0.0499 -0.0080  0.0269
 3482DOPC   C4A40859  33.028  33.045  12.185 -0.0475 -0.1756 -0.2180
 3482DOPC   C1B40860  31.894  31.627  12.762 -0.0675  0.0108 -0.2275
 3482DOPC   D2B40861  31.775  31.676  13.224 -0.0109 -0.2456 -0.0316
 3482DOPC   C3B40862  31.972  31.652  13.610  0.0042 -0.3037  0.0996
 3482DOPC   C4B40863  31.865  31.601  14.042  0.2007  0.0012  0.1601
 3483DOPC   NC340864  29.981  31.329  13.947 -0.0203 -0.2445  0.0338
 3483DOPC   PO440865  29.787  31.132  13.704  0.1409  0.2364 -0.2045
 3483DOPC   GL140866  30.160  30.926  13.993 -0.1999  0.4758  0.1038
 3483DOPC   GL240867  30.329  30.840  13.786  0.1562  0.2727  0.2413
 3483DOPC   C1A40868  30.323  30.809  14.396  0.2322  0.0503 -0.2882
 3483DOPC   D2A40869  30.294  30.813  14.903  0.0957  0.0204  0.2324
 3483DOPC   C3A40870  30.471  30.543  15.255  0.1088 -0.2752 -0.3337
 3483DOPC   C4A40871  30.814  30.503  15.652  0.1617  0.2690 -0.0813
 3483DOPC   C1B40872  30.753  31.082  13.649  0.0892  0.0690 -0.0254
 3483DOPC   D2B40873  31.045  31.342  13.856 -0.0575  0.2912 -0.0822
 3483DOPC   C3B40874  31.284  31.692  13.697 -0.3560  0.1704  0.0258
 3483DOPC   C4B40875  31.647  32.001  13.608 -0.0848 -0.4919 -0.1133
 3484DOPC   NC340876  26.637  27.516  13.439  0.1745 -0.1184  0.1320
 3484DOPC   PO440877  26.955  27.739  13.315 -0.1202  0.4670  0.2345
 3484DOPC   GL140878  27.118  27.711  13.720  0.1094 -0.0770  0.1422
 3484DOPC   GL240879  27.222  27.846  13.970  0.1140  0.1114  0.2351
 3484DOPC   C1A40880  27.234  27.285  13.887  0.2390 -0.1747 -0.1251
 3484DOPC   D2A40881  27.183  26.843  13.909 -0.0711 -0.0299 -0.0993
 3484DOPC   C3A40882  27.003  26.538  14.200 -0.1025  0.2987 -0.1633
 3484DOPC   C4A40883  27.147  26.097  14.169 -0.0212 -0.0357 -0.1503
 3484DOPC   C1B40884  27.667  27.643  13.873  0.1021 -0.1167  0.0258
 3484DOPC   D2B40885  27.785  27.251  13.716  0.3408  0.0971 -0.1217
 3484DOPC   C3B40886  27.681  26.796  13.759  0.4498  0.2719  0.1325
 3484DOPC   C4B40887  27.678  26.579  13.404  0.2559  0.1630 -0.0992
 3485DOPE   NH340888  31.371  23.992  13.969  0.1491  0.1806 -0.0459
 3485DOPE   PO440889  31.233  24.254  14.007  0.0783 -0.2188  0.0730
 3485DOPE   GL140890  31.202  24.547  14.213 -0.1977  0.4457  0.3482
 3485DOPE   GL240891  31.322  24.445  14.467 -0.1170  0.0337  0.0406
 3485DOPE   C1A40892  30.862  24.327  14.511 -0.5330  0.1232 -0.1613
 3485DOPE   D2A40893  30.778  23.954  14.692  0.2002  0.0299  0.2395
 3485DOPE   C3A40894  30.404  23.756  14.842  0.0897  0.1026 -0.1713
 3485DOPE   C4A40895  29.914  23.886  14.880 -0.1810  0.1312 -0.2991
 3485DOPE   C1B40896  31.163  24.524  14.847  0.2765 -0.3365 -0.1242
 3485DOPE   D2B40897  30.854  24.409  15.156 -0.2569  0.0813 -0.1234
 3485DOPE   C3B40898  30.541  24.163  15.281 -0.1799  0.1071 -0.1664
 3485DOPE   C4B40899  30.287  23.814  15.486  0.3382  0.1822  0.0476
 3486POSM   NC340900  29.202  22.284  13.327  0.1676  0.1098  0.1522
 3486POSM   PO440901  29.298  22.134  13.680  0.3564  0.1579 -0.0977
 3486POSM   AM140902  29.447  22.362  13.867  0.1086  0.1973 -0.1321
 3486POSM   AM240903  29.544  22.623  13.809 -0.0251 -0.3457 -0.0030
 3486POSM   T1A40904  29.393  22.562  14.303  0.1194 -0.0891 -0.0083
 3486POSM   C2A40905  29.575  22.472  14.757 -0.3709  0.1096  0.0137
 3486POSM   C3A40906  29.546  22.453  15.204  0.0782 -0.0225 -0.1221
 3486POSM   C1B40907  29.829  22.656  13.954  0.1753  0.0804 -0.0418
 3486POSM   D2B40908  29.923  22.893  14.310  0.0041  0.3128 -0.0585
 3486POSM   C3B40909  29.936  22.848  14.805 -0.2337 -0.0290  0.0684
 3486POSM   C4B40910  29.852  22.977  15.252  0.0361 -0.0911 -0.1408
 3487DOPE   NH340911  23.548  31.990  13.364 -0.0841  0.0020 -0.2678
 3487DOPE   PO440912  23.523  32.188  13.103  0.2009 -0.0452 -0.2062
 3487DOPE   GL140913  23.869  32.311  13.421  0.2121 -0.0536 -0.3690
 3487DOPE   GL240914  24.075  32.203  13.552 -0.0057  0.1613 -0.2977
 3487DOPE   C1A40915  23.919  32.634  13.654 -0.0392 -0.0862 -0.1218
 3487DOPE   D2A40916  23.834  32.720  14.119  0.1473  0.4785 -0.0570
 3487DOPE   C3A40917  24.107  32.469  14.394  0.0839  0.0361  0.3126
 3487DOPE   C4A40918  24.139  32.029  14.594  0.0479  0.2218 -0.4405
 3487DOPE   C1B40919  23.883  32.227  13.964  0.3212  0.1012 -0.0936
 3487DOPE   D2B40920  23.636  32.259  14.360 -0.0135 -0.0326 -0.2663
 3487DOPE   C3B40921  23.331  32.562  14.316 -0.0569 -0.1631  0.0303
 3487DOPE   C4B40922  23.005  32.748  14.584  0.2989 -0.0245 -0.1213
 3488DOPC   NC340923  33.471  23.143  14.016  0.0338  0.3405 -0.1969
 3488DOPC   PO440924  33.560  23.322  13.663 -0.2108 -0.1108  0.0632
 3488DOPC   GL140925  33.472  23.615  13.921  0.0132 -0.2183  0.0439
 3488DOPC   GL240926  33.649  23.638  14.132 -0.1765  0.3044 -0.3997
 3488DOPC   C1A40927  33.060  23.673  14.082 -0.1044 -0.2040 -0.1358
 3488DOPC   D2A40928  32.632  23.645  14.159  0.1726  0.0494 -0.0497
 3488DOPC   C3A40929  32.629  23.453  14.588 -0.0677  0.1110 -0.1132
 3488DOPC   C4A40930  32.291  23.349  14.875 -0.1867 -0.1472 -0.0009
 3488DOPC   C1B40931  33.397  23.440  14.399 -0.0506 -0.0723  0.2698
 3488DOPC   D2B40932  33.417  23.647  14.786 -0.2286  0.0462 -0.0840
 3488DOPC   C3B40933  33.413  24.121  14.840 -0.0397 -0.4610  0.3772
 3488DOPC   C4B40934  33.308  24.533  15.077  0.0770 -0.2894  0.3645
 3489POSM   NC340935  32.269  23.958  14.225 -0.0872  0.1603 -0.0691
 3489POSM   PO440936  31.918  24.016  14.037 -0.3987  0.2757  0.3418
 3489POSM   AM140937  31.809  23.924  14.325  0.0585  0.0260  0.0560
 3489POSM   AM240938  31.573  23.996  14.439  0.0132  0.0200 -0.2515
 3489POSM   T1A40939  31.834  23.785  14.794  0.2243 -0.2054  0.1039
 3489POSM   C2A40940  31.770  23.937  15.202  0.0510 -0.2103  0.0243
 3489POSM   C3A40941  31.818  23.840  15.630 -0.5905 -0.0800 -0.1006
 3489POSM   C1B40942  31.379  24.005  14.718 -0.1245  0.0528  0.0959
 3489POSM   D2B40943  31.296  23.794  15.107  0.2886 -0.0747  0.1177
 3489POSM   C3B40944  31.577  23.419  15.000 -0.1375 -0.1715 -0.0335
 3489POSM   C4B40945  31.852  23.113  14.766  0.0425 -0.0056 -0.1972
 3490DOPE   NH340946  31.473  28.310  13.489  0.0341 -0.1953 -0.0737
 3490DOPE   PO440947  31.453  28.564  13.299 -0.0856 -0.0477  0.0923
 3490DOPE   GL140948  31.440  28.856  13.556  0.2758  0.0803  0.2308
 3490DOPE   GL240949  31.479  28.735  13.815 -0.1324 -0.0917 -0.2102
 3490DOPE   C1A40950  31.462  29.267  13.796 -0.3287  0.1805  0.1155
 3490DOPE   D2A40951  31.401  29.772  13.794 -0.0222 -0.1227 -0.0347
 3490DOPE   C3A40952  31.180  29.926  14.144 -0.1394 -0.3102  0.0538
 3490DOPE   C4A40953  30.735  29.917  14.188 -0.0841  0.0214 -0.0750
 3490DOPE   C1B40954  31.766  28.593  14.172  0.3297 -0.0359 -0.1694
 3490DOPE   D2B40955  31.938  28.769  14.559  0.2053  0.4306  0.0719
 3490DOPE   C3B40956  31.551  28.978  14.723  0.0327  0.0223 -0.2440
 3490DOPE   C4B40957  31.194  29.309  14.709 -0.3276 -0.3531 -0.3667
 3491DOPE   NH340958  23.813  26.793  13.173  0.1508  0.1433  0.2342
 3491DOPE   PO440959  23.680  26.745  13.456 -0.0733  0.2552 -0.3483
 3491DOPE   GL140960  23.426  26.905  13.745 -0.0029 -0.2382  0.1235
 3491DOPE   GL240961  23.326  27.221  13.813  0.2568  0.1469 -0.1363
 3491DOPE   C1A40962  23.450  26.915  14.224 -0.0246  0.1675  0.1602
 3491DOPE   D2A40963  23.821  27.210  14.419 -0.1093 -0.0771 -0.0373
 3491DOPE   C3A40964  23.865  27.647  14.562  0.0927 -0.0415  0.1576
 3491DOPE   C4A40965  24.003  28.013  14.404  0.1795  0.2495  0.1296
 3491DOPE   C1B40966  23.469  27.398  14.151 -0.2071  0.1970 -0.0987
 3491DOPE   D2B40967  23.369  27.345  14.598 -0.0757 -0.1969 -0.0954
 3491DOPE   C3B40968  23.142  27.099  14.909 -0.1238  0.0116  0.2769
 3491DOPE   C4B40969  22.827  27.012  15.240  0.2285 -0.1832 -0.1680
 3492DOPC   NC340970  27.913  30.069  13.368 -0.2658 -0.0348  0.0755
 3492DOPC   PO440971  27.637  29.796  13.255 -0.0425  0.3233  0.0306
 3492DOPC   GL140972  27.697  29.696  13.693  0.0584 -0.3176 -0.0023
 3492DOPC   GL240973  27.925  29.505  13.639 -0.2751 -0.2179  0.3168
 3492DOPC   C1A40974  27.906  29.692  14.119 -0.3835  0.1520 -0.1155
 3492DOPC   D2A40975  28.219  29.813  14.486  0.0374  0.2163  0.0165
 3492DOPC   C3A40976  28.029  29.642  14.870 -0.0140  0.2152  0.1809
 3492DOPC   C4A40977  27.681  29.772  15.116 -0.3871  0.2806 -0.2793
 3492DOPC   C1B40978  28.203  29.332  13.971  0.0931  0.2410  0.0612
 3492DOPC   D2B40979  28.605  28.978  14.068  0.2485  0.0359  0.0740
 3492DOPC   C3B40980  28.877  28.913  14.413  0.0563  0.0604 -0.1374
 3492DOPC   C4B40981  28.941  28.653  14.789  0.1562 -0.2395  0.3616
 3493DOPE   NH340982  23.597  30.433  13.515 -0.2175 -0.1108 -0.0258
 3493DOPE   PO440983  23.767  30.449  13.210  0.1068 -0.3231  0.0228
 3493DOPE   GL140984  23.980  30.174  13.410  0.0668  0.2766 -0.0813
 3493DOPE   GL240985  24.061  30.437  13.639  0.1381 -0.3253  0.4022
 3493DOPE   C1A40986  24.431  30.035  13.517  0.0828 -0.1657  0.1098
 3493DOPE   D2A40987  24.828  30.127  13.417  0.0703 -0.2750 -0.1199
 3493DOPE   C3A40988  25.071  29.751  13.408  0.2287  0.0067 -0.1536
 3493DOPE   C4A40989  25.366  29.400  13.466  0.5224  0.0461 -0.2692
 3493DOPE   C1B40990  24.313  30.777  13.858  0.0514 -0.0983  0.0498
 3493DOPE   D2B40991  24.143  30.889  14.283 -0.3053 -0.0289 -0.0849
 3493DOPE   C3B40992  24.347  30.957  14.654 -0.3030  0.0678  0.2590
 3493DOPE   C4B40993  24.415  30.772  15.091  0.0722  0.3137 -0.0847
 3494POSM   NC340994  31.516  27.768  12.955 -0.0823  0.0355  0.0904
 3494POSM   PO440995  31.433  27.839  13.341 -0.0920  0.1006 -0.0123
 3494POSM   AM140996  31.419  27.857  13.659  0.0036  0.2010  0.2535
 3494POSM   AM240997  31.601  27.881  13.863  0.3574 -0.0764  0.0571
 3494POSM   T1A40998  31.236  28.150  14.011  0.0604  0.0084 -0.1046
 3494POSM   C2A40999  31.267  28.483  14.263  0.0185 -0.2357 -0.3225
 3494POSM   C3A41000  31.433  28.920  14.253 -0.0970 -0.2119  0.0268
 3494POSM   C1B41001  31.701  28.031  14.129 -0.3350 -0.0077 -0.0253
 3494POSM   D2B41002  31.721  28.243  14.491  0.0291 -0.2672  0.0443
 3494POSM   C3B41003  31.318  28.173  14.661  0.1005 -0.0684 -0.4013
 3494POSM   C4B41004  30.961  27.818  14.736 -0.3337 -0.0356 -0.1303
 3495DOPC   NC341005  32.703  30.521  13.098 -0.0756  0.1497 -0.1771
 3495DOPC   PO441006  32.330  30.419  13.018 -0.0030 -0.0926 -0.1269
 3495DOPC   GL141007  32.188  30.484  13.365  0.2330 -0.3872 -0.1674
 3495DOPC   GL241008  31.914  30.244  13.357  0.1366  0.1300 -0.1747
 3495DOPC   C1A41009  32.300  30.820  13.665 -0.2406 -0.0792 -0.0083
 3495DOPC   D2A41010  32.058  30.748  14.050  0.0199 -0.1358 -0.1598
 3495DOPC   C3A41011  31.629  30.607  14.335 -0.2684 -0.2615 -0.1726
 3495DOPC   C4A41012  31.536  30.254  14.640 -0.2884 -0.3440 -0.2786
 3495DOPC   C1B41013  31.807  30.560  13.653 -0.1705  0.2485  0.0326
 3495DOPC   D2B41014  31.590  30.831  13.848  0.2373 -0.1106 -0.0875
 3495DOPC   C3B41015  31.338  31.018  13.529 -0.2252 -0.1741 -0.2856
 3495DOPC   C4B41016  31.399  31.384  13.227 -0.1411 -0.2245 -0.0215
 3496POSM   NC341017  30.532  33.875  13.146  0.0609  0.1891 -0.2377
 3496POSM   PO441018  30.668  33.533  13.239 -0.0920 -0.0281 -0.1962
 3496POSM   AM141019  30.619  33.579  13.545 -0.1194 -0.0463  0.1167
 3496POSM   AM241020  30.728  33.632  13.790  0.0606  0.0756 -0.0570
 3496POSM   T1A41021  30.327  33.309  13.840 -0.0630 -0.1947  0.0628
 3496POSM   C2A41022  30.066  32.976  14.078  0.0376 -0.0267 -0.0732
 3496POSM   C3A41023  29.981  32.710  14.467 -0.0868 -0.4789 -0.2795
 3496POSM   C1B41024  30.779  33.642  14.114 -0.0718  0.0353  0.1824
 3496POSM   D2B41025  30.714  33.657  14.540  0.0447 -0.2648  0.2051
 3496POSM   C3B41026  30.787  33.998  14.841  0.0394  0.0207  0.0133
 3496POSM   C4B41027  30.661  34.415  14.581  0.3563  0.0573  0.0202
 3497DOPE   NH341028  28.996  22.589  13.710 -0.2708  0.2102 -0.0976
 3497DOPE   PO441029  28.997  22.792  13.480 -0.0822 -0.0841  0.4162
 3497DOPE   GL141030  29.147  23.012  13.808 -0.1385 -0.1489 -0.2086
 3497DOPE   GL241031  29.151  23.291  13.823  0.0896  0.1095  0.1828
 3497DOPE   C1A41032  29.659  23.114  13.841  0.0377 -0.1854 -0.0417
 3497DOPE   D2A41033  29.885  23.326  14.176 -0.1704  0.1313  0.0727
 3497DOPE   C3A41034  29.704  23.612  14.455 -0.0824 -0.2003  0.3641
 3497DOPE   C4A41035  29.434  23.917  14.708 -0.4197  0.2088 -0.1168
 3497DOPE   C1B41036  29.259  23.186  14.235  0.1660  0.1733 -0.2695
 3497DOPE   D2B41037  29.444  22.990  14.620 -0.0547  0.1604  0.1506
 3497DOPE   C3B41038  29.365  22.867  15.067 -0.0449  0.0713  0.2399
 3497DOPE   C4B41039  29.170  22.835  15.500 -0.0078 -0.2801  0.1094
 3498DOPC   NC341040  31.998  27.708  13.650 -0.4091 -0.1961  0.0477
 3498DOPC   PO441041  31.880  28.011  13.451  0.1479 -0.2761 -0.0718
 3498DOPC   GL141042  31.963  27.761  13.118 -0.2276 -0.4126  0.2292
 3498DOPC   GL241043  32.233  27.740  13.155  0.2122  0.0993 -0.1768
 3498DOPC   C1A41044  31.876  27.284  13.145 -0.0350  0.2635  0.2649
 3498DOPC   D2A41045  31.990  26.837  13.100 -0.2182  0.0564 -0.2139
 3498DOPC   C3A41046  32.025  26.650  13.494  0.3583  0.0566  0.0839
 3498DOPC   C4A41047  32.259  26.718  13.873 -0.4877  0.0474 -0.1864
 3498DOPC   C1B41048  32.455  27.485  13.452  0.4999  0.0082 -0.2850
 3498DOPC   D2B41049  32.392  27.364  13.969 -0.0331 -0.2981  0.0521
 3498DOPC   C3B41050  32.214  27.347  14.454 -0.3676 -0.2251  0.0291
 3498DOPC   C4B41051  32.406  27.135  14.775  0.0379 -0.0519 -0.2012
 3499DOPE   NH341052  34.320  23.062  12.996  0.2099 -0.1147  0.0951
 3499DOPE   PO441053  34.446  22.736  13.044  0.1450 -0.0069  0.0295
 3499DOPE   GL141054  34.777  22.919  12.951 -0.0431 -0.0573  0.0832
 3499DOPE   GL241055  35.018  22.801  13.079 -0.2995  0.0534 -0.2297
 3499DOPE   C1A41056  35.071  23.274  12.981 -0.1825 -0.0653  0.2923
 3499DOPE   D2A41057  35.197  23.595  13.329 -0.0014  0.1412  0.0336
 3499DOPE   C3A41058  35.476  23.836  13.598  0.1113  0.0070  0.1176
 3499DOPE   C4A41059  35.874  24.060  13.465  0.0155 -0.0501  0.2009
 3499DOPE   C1B41060  35.219  23.054  13.425  0.4342  0.0276  0.0732
 3499DOPE   D2B41061  35.094  23.367  13.720  0.1451  0.0500 -0.3473
 3499DOPE   C3B41062  35.116  23.249  14.161 -0.1724 -0.2530  0.1473
 3499DOPE   C4B41063  35.092  23.346  14.618 -0.0686 -0.0468 -0.1610
 3500POSM   NC341064  25.087  27.350  12.943 -0.3156  0.3405 -0.0126
 3500POSM   PO441065  24.920  27.501  13.282 -0.1587  0.1187  0.2220
 3500POSM   AM141066  24.901  27.680  13.579  0.4883 -0.0462  0.2594
 3500POSM   AM241067  24.981  27.915  13.739  0.2227  0.0141 -0.0975
 3500POSM   T1A41068  24.667  27.750  14.024 -0.0946 -0.1342 -0.1963
 3500POSM   C2A41069  24.429  27.807  14.426  0.0742  0.0885 -0.0840
 3500POSM   C3A41070  24.331  27.837  14.866 -0.0316  0.2464  0.2232
 3500POSM   C1B41071  24.777  28.164  13.828  0.0021 -0.0730 -0.0832
 3500POSM   D2B41072  24.407  28.467  13.720 -0.0175  0.0872  0.2537
 3500POSM   C3B41073  24.327  28.843  14.088  0.1469  0.2585 -0.1883
 3500POSM   C4B41074  24.633  28.896  14.424 -0.0037 -0.1112  0.1150
 3501DOPC   NC341075  28.931  29.929  13.711  0.0751  0.2341  0.0899
 3501DOPC   PO441076  29.203  30.062  13.974  0.1280 -0.0404 -0.0926
 3501DOPC   GL141077  29.206  29.933  14.354 -0.2427 -0.2354  0.0491
 3501DOPC   GL241078  29.250  29.693  14.323  0.3225  0.1173  0.2036
 3501DOPC   C1A41079  29.332  30.160  14.726  0.1115  0.5549 -0.2562
 3501DOPC   D2A41080  29.574  30.286  15.118 -0.0904  0.2327  0.0843
 3501DOPC   C3A41081  29.451  30.403  15.528 -0.2289 -0.3296  0.0027
 3501DOPC   C4A41082  29.105  30.325  15.800  0.0474 -0.0794  0.3345
 3501DOPC   C1B41083  29.567  29.693  14.722 -0.2109 -0.1401 -0.0877
 3501DOPC   D2B41084  29.738  29.433  14.958 -0.1323  0.2125  0.2153
 3501DOPC   C3B41085  30.155  29.411  15.077 -0.2345  0.0295 -0.2308
 3501DOPC   C4B41086  30.578  29.356  15.009  0.2726  0.1393 -0.3001
 3502POSM   NC341087  32.371  24.616  13.784 -0.1527 -0.2719  0.0859
 3502POSM   PO441088  32.179  24.405  14.040  0.1930 -0.0176 -0.0737
 3502POSM   AM141089  32.117  24.648  14.266  0.3530  0.2437 -0.0827
 3502POSM   AM241090  31.896  24.801  14.390  0.2350 -0.0202 -0.0938
 3502POSM   T1A41091  32.204  24.732  14.780  0.0285 -0.2070 -0.1365
 3502POSM   C2A41092  32.411  24.683  15.162  0.1508  0.3671 -0.3066
 3502POSM   C3A41093  32.412  24.689  15.652 -0.1629 -0.2310  0.0394
 3502POSM   C1B41094  31.694  24.809  14.611  0.6122 -0.0940 -0.1745
 3502POSM   D2B41095  31.506  24.838  15.051  0.0179 -0.1786 -0.2342
 3502POSM   C3B41096  31.715  25.253  15.227 -0.1607  0.3588 -0.1529
 3502POSM   C4B41097  31.728  25.685  15.456 -0.0220  0.2317  0.3483
 3503POSM   NC341098  23.302  29.678  13.316 -0.0825  0.0418 -0.0708
 3503POSM   PO441099  23.580  29.963  13.295 -0.1843 -0.1552  0.1632
 3503POSM   AM141100  23.602  29.898  13.599  0.2424 -0.1220  0.1722
 3503POSM   AM241101  23.709  30.078  13.773 -0.1951 -0.1277  0.0928
 3503POSM   T1A41102  23.719  29.591  13.914  0.3781 -0.2237 -0.3322
 3503POSM   C2A41103  23.673  29.413  14.361  0.2597  0.0035 -0.0495
 3503POSM   C3A41104  23.932  29.537  14.781 -0.0161  0.2424  0.1769
 3503POSM   C1B41105  24.015  29.987  13.907 -0.0527  0.1123  0.1710
 3503POSM   D2B41106  24.435  29.778  14.022  0.1313 -0.0199  0.1865
 3503POSM   C3B41107  24.860  29.652  13.881 -0.3425  0.1893 -0.2496
 3503POSM   C4B41108  25.339  29.639  13.961 -0.0636 -0.0751  0.1109
 3504DOPC   NC341109  28.658  24.858  13.420  0.1659  0.0215 -0.0424
 3504DOPC   PO441110  28.816  24.835  13.786  0.1940  0.2008 -0.1081
 3504DOPC   GL141111  28.796  25.021  14.142  0.2722 -0.0936  0.1676
 3504DOPC   GL241112  29.048  24.939  14.307 -0.3884 -0.3695  0.3407
 3504DOPC   C1A41113  28.472  24.966  14.401 -0.0255  0.1936  0.2344
 3504DOPC   D2A41114  28.044  24.963  14.211 -0.1493  0.2403  0.4075
 3504DOPC   C3A41115  27.704  25.033  14.507 -0.1526 -0.0383  0.1729
 3504DOPC   C4A41116  27.625  24.899  14.952 -0.0968 -0.0206  0.0315
 3504DOPC   C1B41117  28.830  24.737  14.666 -0.1571 -0.0983 -0.2129
 3504DOPC   D2B41118  28.594  24.597  14.996 -0.1355  0.1266 -0.0560
 3504DOPC   C3B41119  28.540  24.321  15.340  0.2922 -0.0299  0.1678
 3504DOPC   C4B41120  28.838  24.024  15.514 -0.0646  0.0599  0.1348
 3505DOPE   NH341121  26.782  23.990  13.632 -0.1781  0.2161  0.0570
 3505DOPE   PO441122  26.987  23.734  13.527 -0.0122  0.0162  0.1253
 3505DOPE   GL141123  27.211  24.128  13.713  0.0600 -0.1397  0.0898
 3505DOPE   GL241124  27.184  24.236  13.421 -0.4107  0.0683 -0.1357
 3505DOPE   C1A41125  26.990  24.559  13.782  0.0863 -0.0703  0.3548
 3505DOPE   D2A41126  27.156  24.981  13.729 -0.0181  0.0870  0.2342
 3505DOPE   C3A41127  27.037  25.145  14.084 -0.1610 -0.2908 -0.0308
 3505DOPE   C4A41128  26.841  25.305  14.489  0.2208  0.0457 -0.0453
 3505DOPE   C1B41129  27.417  24.593  13.461 -0.0286 -0.1393  0.2263
 3505DOPE   D2B41130  27.688  24.729  13.760 -0.0222  0.0425  0.3261
 3505DOPE   C3B41131  27.402  24.694  14.090  0.1321 -0.0677 -0.1804
 3505DOPE   C4B41132  27.248  24.819  14.523 -0.1695 -0.1986  0.0637
 3506POSM   NC341133  27.290  34.134  13.235 -0.0486 -0.2044 -0.0321
 3506POSM   PO441134  27.135  34.405  13.471  0.0179 -0.1746  0.0918
 3506POSM   AM141135  26.992  34.380  13.704 -0.0579 -0.1702 -0.1987
 3506POSM   AM241136  26.822  34.193  13.805  0.1603  0.0963 -0.3241
 3506POSM   T1A41137  26.831  34.523  14.154 -0.1130 -0.0279  0.0578
 3506POSM   C2A41138  27.078  34.771  14.475  0.0917 -0.0557 -0.2924
 3506POSM   C3A41139  27.040  35.087  14.781  0.3660  0.0789 -0.1567
 3506POSM   C1B41140  26.755  33.951  14.035  0.3396 -0.0723  0.1512
 3506POSM   D2B41141  26.329  33.776  14.137  0.2072  0.0654  0.1653
 3506POSM   C3B41142  26.035  34.006  14.356 -0.0712 -0.0753 -0.0166
 3506POSM   C4B41143  25.689  33.933  14.667  0.0489  0.3271  0.1453
 3507POSM   NC341144  28.243  24.768  13.715 -0.1763  0.1846 -0.0038
 3507POSM   PO441145  28.116  25.058  13.521 -0.2712 -0.2234  0.3613
 3507POSM   AM141146  27.999  25.198  13.786  0.1093 -0.2187 -0.3351
 3507POSM   AM241147  27.697  25.184  13.769 -0.1650 -0.3338 -0.1620
 3507POSM   T1A41148  27.892  25.420  14.185  0.2531 -0.2318  0.0941
 3507POSM   C2A41149  27.694  25.626  14.557  0.1270 -0.1665 -0.1936
 3507POSM   C3A41150  27.485  26.062  14.712 -0.0919  0.1113 -0.0421
 3507POSM   C1B41151  27.460  25.395  13.961 -0.0273  0.0329  0.0349
 3507POSM   D2B41152  27.330  25.357  14.338  0.0213 -0.3853 -0.0621
 3507POSM   C3B41153  27.140  25.718  14.492  0.1182 -0.0440  0.0091
 3507POSM   C4B41154  26.917  26.127  14.591 -0.0566 -0.0662 -0.1354
 3508DOPS   CNO41155  30.356  27.303  13.130  0.1432 -0.0397  0.1335
 3508DOPS   PO441156  30.270  27.640  13.289 -0.1416 -0.2656 -0.0473
 3508DOPS   GL141157  30.125  27.893  13.597  0.0349  0.2803  0.0403
 3508DOPS   GL241158  30.422  28.010  13.596 -0.2569 -0.2462 -0.1097
 3508DOPS   C1A41159  29.998  28.135  13.937  0.2974  0.1580  0.1067
 3508DOPS   D2A41160  29.790  28.470  14.090  0.1195  0.1134 -0.2771
 3508DOPS   C3A41161  29.846  28.813  14.412  0.0950  0.2251 -0.2092
 3508DOPS   C4A41162  29.770  29.233  14.502 -0.1393  0.0301 -0.1671
 3508DOPS   C1B41163  30.534  28.425  13.707  0.0741  0.0684 -0.0867
 3508DOPS   D2B41164  30.559  28.776  13.970 -0.1495 -0.2763 -0.1714
 3508DOPS   C3B41165  30.807  28.655  14.311  0.2724 -0.3987 -0.0580
 3508DOPS   C4B41166  31.113  28.763  14.669  0.0164 -0.0801 -0.2204
 3509DOPC   NC341167  26.207  32.935  13.100 -0.0575  0.1568 -0.0896
 3509DOPC   PO441168  26.101  33.281  13.167 -0.0364  0.0373  0.1631
 3509DOPC   GL141169  25.860  33.115  13.445 -0.0090  0.0779 -0.2902
 3509DOPC   GL241170  25.571  33.028  13.447  0.1133 -0.2795  0.2924
 3509DOPC   C1A41171  25.888  32.721  13.604  0.0963 -0.0499  0.0412
 3509DOPC   D2A41172  25.884  32.423  13.962  0.1918 -0.1203  0.0492
 3509DOPC   C3A41173  26.289  32.277  14.043 -0.1995 -0.4325 -0.2040
 3509DOPC   C4A41174  26.349  32.176  14.447 -0.1953 -0.1007  0.3129
 3509DOPC   C1B41175  25.687  32.749  13.090  0.2475 -0.0939  0.0029
 3509DOPC   D2B41176  25.857  32.365  13.125 -0.3530 -0.1642  0.0728
 3509DOPC   C3B41177  25.781  32.204  13.527 -0.4727 -0.0561  0.2585
 3509DOPC   C4B41178  25.425  32.120  13.901  0.1254 -0.0053  0.1410
 3510POSM   NC341179  22.334  28.901  12.660  0.1731  0.2207  0.0243
 3510POSM   PO441180  22.682  29.059  12.622 -0.1866  0.0796  0.2811
 3510POSM   AM141181  22.889  29.095  12.888  0.1607 -0.2037 -0.4473
 3510POSM   AM241182  22.923  28.910  13.089  0.2107  0.1352  0.0021
 3510POSM   T1A41183  23.360  29.128  13.093 -0.1085  0.4145 -0.0765
 3510POSM   C2A41184  23.655  29.481  13.035 -0.3173  0.0237 -0.0732
 3510POSM   C3A41185  24.074  29.583  13.058  0.0225 -0.2198 -0.0534
 3510POSM   C1B41186  23.169  28.702  13.248 -0.0125 -0.1432 -0.1207
 3510POSM   D2B41187  23.428  28.722  13.652  0.0213  0.3181 -0.2389
 3510POSM   C3B41188  23.699  28.369  13.559 -0.1180  0.1180  0.0396
 3510POSM   C4B41189  24.012  28.082  13.484  0.2085 -0.3243 -0.1023
 3511DOPE   NH341190  29.509  26.199  13.533 -0.3369 -0.1650 -0.0172
 3511DOPE   PO441191  29.687  26.191  13.754 -0.1774  0.1113  0.1661
 3511DOPE   GL141192  29.474  26.330  14.044  0.0345 -0.0398  0.0855
 3511DOPE   GL241193  29.231  26.250  13.993 -0.0497  0.0078 -0.0737
 3511DOPE   C1A41194  29.307  26.374  14.466 -0.0908 -0.1499  0.0283
 3511DOPE   D2A41195  29.304  26.446  14.902 -0.0589  0.1163 -0.0068
 3511DOPE   C3A41196  29.286  26.821  15.164 -0.0847  0.0852 -0.2645
 3511DOPE   C4A41197  29.537  27.180  15.346  0.0648 -0.2319  0.0007
 3511DOPE   C1B41198  28.869  26.480  14.287  0.1513 -0.2052  0.1852
 3511DOPE   D2B41199  28.567  26.552  14.568  0.1373 -0.2052 -0.3004
 3511DOPE   C3B41200  28.728  26.294  14.926  0.1960  0.0959  0.1476
 3511DOPE   C4B41201  28.620  26.066  15.299 -0.0691  0.0146  0.1895
 3512POSM   NC341202  23.420  30.707  13.064  0.1538 -0.2982 -0.0508
 3512POSM   PO441203  23.309  30.831  13.396 -0.0564 -0.1155 -0.0215
 3512POSM   AM141204  23.507  30.862  13.696  0.0040  0.2691 -0.0378
 3512POSM   AM241205  23.575  31.043  13.865  0.1909  0.0680 -0.1668
 3512POSM   T1A41206  23.820  30.622  14.007 -0.0187 -0.1169  0.2790
 3512POSM   C2A41207  24.213  30.356  14.136  0.0614  0.1784  0.1410
 3512POSM   C3A41208  24.578  30.183  14.315  0.0978 -0.2559 -0.1052
 3512POSM   C1B41209  23.728  31.085  14.154 -0.0381 -0.2012  0.0298
 3512POSM   D2B41210  23.892  31.179  14.569 -0.2016 -0.0649  0.0224
 3512POSM   C3B41211  23.994  31.556  14.770  0.1783 -0.3866  0.2045
 3512POSM   C4B41212  23.971  31.943  15.054 -0.1966 -0.2072 -0.0212
 3513POSM   NC341213  26.820  30.569  13.790 -0.1292  0.3928 -0.2513
 3513POSM   PO441214  26.882  30.174  13.772 -0.3429  0.3449 -0.0900
 3513POSM   AM141215  26.643  30.151  14.007  0.0184  0.3060 -0.0114
 3513POSM   AM241216  26.450  30.208  14.235  0.2042 -0.2299  0.1195
 3513POSM   T1A41217  26.738  29.934  14.454  0.0604 -0.1720  0.0352
 3513POSM   C2A41218  26.918  29.603  14.585 -0.2921 -0.0938 -0.3153
 3513POSM   C3A41219  26.811  29.401  14.991 -0.3023  0.1215 -0.1125
 3513POSM   C1B41220  26.487  30.355  14.493  0.0393  0.0096  0.0363
 3513POSM   D2B41221  26.695  30.616  14.821 -0.0840 -0.2977  0.0811
 3513POSM   C3B41222  26.963  30.960  14.645  0.0898  0.1766 -0.0029
 3513POSM   C4B41223  26.726  31.344  14.552  0.1600 -0.0968 -0.2224
 3514POSM   NC341224  25.904  28.653  13.390  0.1046  0.0200 -0.1053
 3514POSM   PO441225  26.162  28.853  13.622  0.1661 -0.1347 -0.0596
 3514POSM   AM141226  26.126  29.122  13.807 -0.3758 -0.0325  0.0202
 3514POSM   AM241227  26.076  29.394  13.731 -0.0463  0.0966  0.2632
 3514POSM   T1A41228  25.962  29.274  14.231 -0.1880  0.1026 -0.1661
 3514POSM   C2A41229  25.902  29.464  14.595 -0.0585  0.0505 -0.0973
 3514POSM   C3A41230  25.580  29.500  14.864  0.1166 -0.1799  0.0093
 3514POSM   C1B41231  25.820  29.578  13.599  0.2955 -0.1918 -0.0568
 3514POSM   D2B41232  25.575  29.877  13.433 -0.0575  0.3592 -0.0960
 3514POSM   C3B41233  25.360  30.148  13.768 -0.0277  0.2611  0.0592
 3514POSM   C4B41234  25.304  30.571  14.035 -0.1095 -0.0455  0.1186
 3515DOPS   CNO41235  31.769  28.221  12.993 -0.2299 -0.2691 -0.4992
 3515DOPS   PO441236  32.180  28.211  12.972  0.1093 -0.1139 -0.1520
 3515DOPS   GL141237  32.339  28.223  13.248 -0.3059  0.0747  0.0735
 3515DOPS   GL241238  32.502  28.496  13.274  0.2450  0.2403 -0.2085
 3515DOPS   C1A41239  32.713  27.915  13.332  0.0422 -0.0933  0.0341
 3515DOPS   D2A41240  33.049  27.990  13.645  0.0159 -0.0619  0.2279
 3515DOPS   C3A41241  33.455  27.862  13.535  0.1610  0.0078 -0.1425
 3515DOPS   C4A41242  33.922  27.795  13.578  0.1850  0.0432 -0.0094
 3515DOPS   C1B41243  32.761  28.390  13.641  0.3210  0.1673  0.3373
 3515DOPS   D2B41244  32.724  28.272  14.086 -0.1240 -0.2137 -0.2007
 3515DOPS   C3B41245  33.071  27.990  14.175  0.4152  0.0207 -0.0098
 3515DOPS   C4B41246  33.495  28.069  14.044 -0.1914 -0.1638  0.1379
 3516POSM   NC341247  29.412  23.243  13.443  0.0533  0.0106 -0.2604
 3516POSM   PO441248  29.220  23.523  13.266  0.1019  0.0487 -0.2269
 3516POSM   AM141249  29.377  23.712  13.542  0.4678  0.0089  0.2448
 3516POSM   AM241250  29.486  23.668  13.782  0.0092  0.0240 -0.1585
 3516POSM   T1A41251  29.638  24.119  13.446  0.1777  0.1505 -0.0185
 3516POSM   C2A41252  29.938  24.494  13.532  0.0812  0.0570  0.0892
 3516POSM   C3A41253  30.088  24.921  13.403  0.0154 -0.0978 -0.2530
 3516POSM   C1B41254  29.840  23.721  13.853 -0.1458  0.0168 -0.2075
 3516POSM   D2B41255  30.252  23.632  14.064  0.1237 -0.1127  0.1170
 3516POSM   C3B41256  30.347  23.989  14.314  0.0690  0.2479 -0.0443
 3516POSM   C4B41257  30.277  24.451  14.390 -0.1489 -0.1096 -0.2914
 3517DOPE   NH341258  34.430  26.102  13.182  0.1520  0.1433 -0.1327
 3517DOPE   PO441259  34.265  26.282  13.330 -0.0538 -0.0353  0.2550
 3517DOPE   GL141260  34.273  26.471  13.605  0.3030 -0.0054 -0.1216
 3517DOPE   GL241261  34.411  26.768  13.552 -0.0883 -0.2593 -0.0872
 3517DOPE   C1A41262  34.118  26.538  14.002  0.0834  0.2291 -0.1871
 3517DOPE   D2A41263  33.993  26.882  14.358 -0.1344  0.3984 -0.0794
 3517DOPE   C3A41264  34.003  27.306  14.194 -0.0746  0.3761  0.1997
 3517DOPE   C4A41265  33.628  27.568  13.949 -0.2007  0.0742  0.0973
 3517DOPE   C1B41266  34.098  27.050  13.716  0.1582 -0.0938  0.1445
 3517DOPE   D2B41267  33.730  27.341  13.557  0.2982  0.1037  0.0114
 3517DOPE   C3B41268  33.326  27.149  13.680 -0.1054  0.0761  0.0614
 3517DOPE   C4B41269  32.945  27.019  13.875 -0.4044 -0.1282 -0.1020
 3518DOPE   NH341270  33.824   0.362  12.940  0.0974  0.0567 -0.0126
 3518DOPE   PO441271  34.024   0.122  12.882 -0.1186  0.1256  0.0613
 3518DOPE   GL141272  33.771  -0.222  12.867 -0.2909  0.0852  0.1014
 3518DOPE   GL241273  33.515  -0.058  12.838 -0.2232 -0.3458 -0.0921
 3518DOPE   C1A41274  33.582  -0.534  13.169  0.2908  0.1535  0.0470
 3518DOPE   D2A41275  33.528  -0.991  13.049  0.0769  0.1199  0.0558
 3518DOPE   C3A41276  33.260  -1.343  13.289  0.3275 -0.2088  0.0425
 3518DOPE   C4A41277  32.969  -1.364  13.661  0.0525  0.1351  0.1792
 3518DOPE   C1B41278  33.449  -0.468  12.668 -0.2547  0.0835 -0.2226
 3518DOPE   D2B41279  33.070  -0.559  12.485  0.2429 -0.2085 -0.3575
 3518DOPE   C3B41280  32.961  -0.294  12.099 -0.0218 -0.1199 -0.1686
 3518DOPE   C4B41281  32.766   0.130  12.122  0.1146  0.2007 -0.3309
 3519DOPE   NH341282  28.253  30.716  13.753 -0.1383  0.0999  0.1038
 3519DOPE   PO441283  28.163  30.457  13.591  0.0709 -0.0077 -0.2947
 3519DOPE   GL141284  28.293  30.161  13.873 -0.0816 -0.4074  0.0743
 3519DOPE   GL241285  28.092  29.967  13.807 -0.0539 -0.0435  0.0976
 3519DOPE   C1A41286  28.447  29.768  14.041 -0.2620  0.0746  0.3699
 3519DOPE   D2A41287  28.756  29.413  14.143  0.0556  0.1385 -0.0297
 3519DOPE   C3A41288  28.569  29.287  14.521 -0.2487  0.0731 -0.0209
 3519DOPE   C4A41289  28.451  29.440  14.925 -0.3958 -0.1242  0.3397
 3519DOPE   C1B41290  28.385  29.666  13.548 -0.0508  0.1666  0.1099
 3519DOPE   D2B41291  28.635  29.322  13.598  0.1214  0.0677 -0.0708
 3519DOPE   C3B41292  29.102  29.320  13.523 -0.1020  0.3429 -0.0581
 3519DOPE   C4B41293  29.397  29.521  13.819 -0.2951 -0.0787 -0.0528
 3520DOPE   NH341294  24.431  27.042  13.259 -0.2238  0.1944 -0.1005
 3520DOPE   PO441295  24.725  27.020  13.127  0.2079  0.1447 -0.3572
 3520DOPE   GL141296  24.732  26.673  13.040 -0.0008  0.2672 -0.2732
 3520DOPE   GL241297  24.623  26.494  13.115 -0.1499 -0.1754 -0.1689
 3520DOPE   C1A41298  25.060  26.369  12.900 -0.2441 -0.2521  0.0448
 3520DOPE   D2A41299  25.355  26.037  13.018 -0.0050 -0.0331  0.3525
 3520DOPE   C3A41300  25.183  25.892  13.419  0.0478 -0.2624 -0.0558
 3520DOPE   C4A41301  24.985  25.947  13.857 -0.0872  0.0020 -0.3062
 3520DOPE   C1B41302  24.580  26.158  12.815 -0.0992  0.1123  0.0251
 3520DOPE   D2B41303  24.490  25.682  12.753  0.0407 -0.0907 -0.0057
 3520DOPE   C3B41304  24.456  25.545  13.213 -0.2285 -0.1897  0.0449
 3520DOPE   C4B41305  24.834  25.486  13.474  0.1447  0.0007 -0.0633
 3521POSM   NC341306  24.395  26.655  13.905  0.0145  0.0412  0.2770
 3521POSM   PO441307  24.259  26.659  13.517 -0.0430  0.0317  0.2392
 3521POSM   AM141308  24.402  26.351  13.515 -0.0385 -0.1134 -0.1328
 3521POSM   AM241309  24.634  26.219  13.642  0.0035 -0.1292  0.1118
 3521POSM   T1A41310  24.379  25.821  13.612  0.1153 -0.2150  0.2929
 3521POSM   C2A41311  24.637  25.620  13.968  0.3962 -0.4342 -0.1862
 3521POSM   C3A41312  24.782  25.414  14.328 -0.0740  0.2715 -0.0841
 3521POSM   C1B41313  24.716  26.069  13.326  0.0946  0.1144 -0.0597
 3521POSM   D2B41314  24.904  25.786  13.011 -0.1285 -0.2612  0.2198
 3521POSM   C3B41315  25.135  25.435  13.052  0.1329 -0.1485  0.2247
 3521POSM   C4B41316  25.600  25.352  13.026  0.2118  0.1597  0.0317
 3522DOPC   NC341317  32.827  31.063  13.042  0.1550  0.0703  0.1013
 3522DOPC   PO441318  33.051  30.849  12.795  0.0368 -0.2291  0.2249
 3522DOPC   GL141319  32.861  31.094  12.540  0.2585  0.1070 -0.1551
 3522DOPC   GL241320  32.752  31.211  12.236 -0.0833  0.0723 -0.0695
 3522DOPC   C1A41321  32.882  31.509  12.740 -0.0012  0.2381 -0.0824
 3522DOPC   D2A41322  32.834  31.876  12.997 -0.1646 -0.0781  0.1950
 3522DOPC   C3A41323  32.557  32.205  13.073  0.1224 -0.0923  0.2861
 3522DOPC   C4A41324  32.161  32.226  12.834  0.2792  0.1080 -0.1939
 3522DOPC   C1B41325  33.002  31.557  12.251 -0.1393  0.3546 -0.0249
 3522DOPC   D2B41326  33.312  31.889  12.334 -0.0297  0.1005 -0.0684
 3522DOPC   C3B41327  33.273  32.225  12.599 -0.0051  0.0678 -0.1313
 3522DOPC   C4B41328  33.234  32.683  12.572  0.0782 -0.4228  0.0488
 3523DOPC   NC341329  28.863  32.428  13.197 -0.3322 -0.0987 -0.2346
 3523DOPC   PO441330  29.128  32.205  13.420 -0.1070  0.0211  0.0005
 3523DOPC   GL141331  29.200  32.348  13.773  0.0980 -0.1407 -0.0442
 3523DOPC   GL241332  29.417  32.294  14.011 -0.0298  0.4234  0.0887
 3523DOPC   C1A41333  29.063  32.573  14.156  0.0025  0.0972 -0.4939
 3523DOPC   D2A41334  29.143  32.769  14.578 -0.0456 -0.1700 -0.1465
 3523DOPC   C3A41335  29.158  32.758  15.052  0.0417  0.0781  0.0299
 3523DOPC   C4A41336  28.784  32.602  15.283 -0.1119 -0.3402 -0.2156
 3523DOPC   C1B41337  29.561  32.451  14.437 -0.1812  0.0375 -0.2004
 3523DOPC   D2B41338  29.633  32.460  14.915  0.0581  0.0481 -0.0847
 3523DOPC   C3B41339  29.524  32.596  15.403  0.0134  0.1676 -0.2805
 3523DOPC   C4B41340  29.383  32.683  15.825  0.3298  0.1418 -0.1209
 3524POSM   NC341341  26.148  28.125  13.486 -0.1004  0.0123 -0.0044
 3524POSM   PO441342  25.767  28.134  13.307 -0.2946 -0.0260  0.1862
 3524POSM   AM141343  25.481  28.340  13.355  0.3584  0.3212 -0.0465
 3524POSM   AM241344  25.450  28.514  13.570  0.3602 -0.0944 -0.2233
 3524POSM   T1A41345  25.024  28.293  13.444 -0.0484  0.0765  0.0858
 3524POSM   C2A41346  24.656  28.334  13.247  0.5139 -0.0981  0.0084
 3524POSM   C3A41347  24.229  28.418  13.174  0.0367 -0.2065 -0.3117
 3524POSM   C1B41348  25.280  28.864  13.603 -0.0687 -0.0070 -0.3107
 3524POSM   D2B41349  24.978  29.206  13.743 -0.0048 -0.1900  0.2485
 3524POSM   C3B41350  25.032  29.173  14.243 -0.1657 -0.2237 -0.0260
 3524POSM   C4B41351  25.024  29.279  14.728 -0.4263  0.2828  0.0367
 3525POSM   NC341352  31.783  29.103  13.270  0.0637  0.0829  0.0652
 3525POSM   PO441353  32.130  29.038  13.405 -0.1419 -0.0394  0.1262
 3525POSM   AM141354  32.022  28.951  13.685  0.6018  0.1987 -0.2324
 3525POSM   AM241355  31.912  29.039  13.931 -0.1622 -0.1042  0.0319
 3525POSM   T1A41356  32.266  28.698  14.035 -0.0226 -0.1565 -0.0517
 3525POSM   C2A41357  32.478  28.573  14.469  0.1148 -0.1805 -0.1083
 3525POSM   C3A41358  32.711  28.637  14.841 -0.0432  0.0955 -0.0849
 3525POSM   C1B41359  31.917  29.203  14.236  0.0451  0.3016 -0.0470
 3525POSM   D2B41360  31.770  29.450  14.590 -0.0506 -0.1343  0.1457
 3525POSM   C3B41361  31.830  29.911  14.821  0.0236  0.0193 -0.3699
 3525POSM   C4B41362  31.734  30.249  15.120  0.1253  0.3224 -0.2184
 3526DOPS   CNO41363  31.687  24.828  13.460 -0.0312 -0.2288 -0.3705
 3526DOPS   PO441364  31.810  24.888  13.822  0.2035 -0.2968 -0.0182
 3526DOPS   GL141365  31.901  25.271  14.002  0.0754 -0.1867 -0.3559
 3526DOPS   GL241366  31.995  25.452  13.771  0.2448 -0.2570  0.0481
 3526DOPS   C1A41367  32.038  25.654  14.230  0.0676  0.2111  0.1292
 3526DOPS   D2A41368  32.370  25.944  14.386 -0.1442 -0.1949  0.1982
 3526DOPS   C3A41369  32.396  26.071  14.796  0.0324 -0.2348  0.0541
 3526DOPS   C4A41370  32.229  26.447  15.037  0.3352 -0.1706 -0.1586
 3526DOPS   C1B41371  32.374  25.706  13.858  0.3022 -0.0563  0.0487
 3526DOPS   D2B41372  32.661  26.113  14.024 -0.1029  0.2659 -0.0195
 3526DOPS   C3B41373  32.782  26.289  14.437  0.2072 -0.3325 -0.0561
 3526DOPS   C4B41374  32.808  26.303  14.882  0.1416  0.0115  0.0114
 3527DOPE   NH341375  29.589  30.673  13.334 -0.0975  0.1339 -0.1286
 3527DOPE   PO441376  29.916  30.722  13.387  0.2103 -0.0861 -0.0884
 3527DOPE   GL141377  30.041  30.385  13.509  0.0562  0.1805  0.0318
 3527DOPE   GL241378  30.202  30.315  13.311 -0.0405 -0.0482  0.0010
 3527DOPE   C1A41379  30.397  30.209  13.726 -0.2180 -0.1094 -0.0329
 3527DOPE   D2A41380  30.661  30.426  14.089 -0.1407  0.0646  0.3060
 3527DOPE   C3A41381  30.630  30.389  14.518  0.2205 -0.0569 -0.2466
 3527DOPE   C4A41382  30.907  30.013  14.609 -0.0182  0.0817  0.1423
 3527DOPE   C1B41383  30.591  30.610  13.387  0.0726  0.0242  0.2554
 3527DOPE   D2B41384  30.945  30.849  13.210  0.0809 -0.1518  0.0527
 3527DOPE   C3B41385  31.372  30.869  13.046  0.1050 -0.4466 -0.3096
 3527DOPE   C4B41386  31.774  31.170  12.971 -0.2597 -0.2899  0.1979
 3528DOPC   NC341387  30.821  27.190  14.029  0.0580  0.0731  0.0638
 3528DOPC   PO441388  30.480  27.019  13.940  0.1004 -0.1932  0.5510
 3528DOPC   GL141389  30.421  27.186  14.308 -0.0041  0.1843  0.3039
 3528DOPC   GL241390  30.257  27.426  14.375 -0.1331  0.0109 -0.0400
 3528DOPC   C1A41391  30.788  27.303  14.535 -0.0837  0.6589  0.0185
 3528DOPC   D2A41392  30.987  27.310  14.910 -0.1146  0.0713  0.0183
 3528DOPC   C3A41393  30.719  27.076  15.200  0.0552 -0.0498 -0.0525
 3528DOPC   C4A41394  30.467  26.735  15.244  0.0227 -0.1937  0.0883
 3528DOPC   C1B41395  29.915  27.439  14.678  0.0801  0.0389 -0.1024
 3528DOPC   D2B41396  29.997  27.080  15.021 -0.0164  0.1184 -0.2150
 3528DOPC   C3B41397  30.076  27.511  15.212  0.0323 -0.1253  0.2119
 3528DOPC   C4B41398  30.378  27.790  15.504 -0.0319 -0.5097 -0.1487
 3529DOPC   NC341399  28.416  31.532  14.205  0.3895  0.0378 -0.2400
 3529DOPC   PO441400  28.484  31.137  14.307  0.0913 -0.1167  0.0756
 3529DOPC   GL141401  28.239  31.020  14.627  0.0440 -0.1555 -0.4766
 3529DOPC   GL241402  28.204  30.705  14.676  0.2453 -0.0112  0.2472
 3529DOPC   C1A41403  27.801  31.002  14.811  0.0529 -0.0478  0.0579
 3529DOPC   D2A41404  27.395  31.130  14.840  0.2374 -0.1981  0.3060
 3529DOPC   C3A41405  27.187  31.436  15.079  0.1026 -0.0738 -0.0327
 3529DOPC   C4A41406  27.328  31.764  15.354 -0.1141  0.2917  0.2242
 3529DOPC   C1B41407  28.363  30.380  14.943 -0.2904 -0.0881  0.1534
 3529DOPC   D2B41408  28.651  29.988  14.949  0.1400  0.1756  0.1088
 3529DOPC   C3B41409  28.982  30.051  15.235 -0.2068 -0.0730 -0.1053
 3529DOPC   C4B41410  29.401  29.925  15.477 -0.2796  0.0175  0.1359
 3530DOPC   NC341411  28.169  31.310  13.478  0.5071 -0.0330  0.1625
 3530DOPC   PO441412  28.417  31.192  13.765 -0.1407  0.0182 -0.0353
 3530DOPC   GL141413  28.492  31.616  13.781  0.2979 -0.6313  0.4259
 3530DOPC   GL241414  28.560  31.655  13.518  0.0066 -0.1407  0.0686
 3530DOPC   C1A41415  28.478  32.029  14.031  0.0675  0.1580  0.1628
 3530DOPC   D2A41416  28.455  32.365  14.374 -0.1273  0.1090  0.1512
 3530DOPC   C3A41417  28.257  32.394  14.731 -0.4713  0.0452  0.0941
 3530DOPC   C4A41418  27.828  32.549  14.895 -0.2580  0.0137 -0.1097
 3530DOPC   C1B41419  28.511  32.135  13.521 -0.2368  0.1358  0.2293
 3530DOPC   D2B41420  28.628  32.449  13.868  0.1273 -0.0631 -0.3806
 3530DOPC   C3B41421  28.337  32.748  14.021  0.0100 -0.3045 -0.3294
 3530DOPC   C4B41422  27.982  32.778  13.767  0.1627  0.1602  0.0750
 3531DOPE   NH341423  31.627  24.440  13.815  0.1166 -0.0878  0.1976
 3531DOPE   PO441424  31.682  24.448  14.154 -0.1527 -0.2376 -0.2930
 3531DOPE   GL141425  31.802  24.345  14.490 -0.3143  0.2638  0.1296
 3531DOPE   GL241426  32.021  24.263  14.581 -0.1721  0.2037 -0.2106
 3531DOPE   C1A41427  31.691  24.402  14.933 -0.1807 -0.1463  0.2514
 3531DOPE   D2A41428  31.333  24.252  15.201 -0.2496  0.2975  0.1658
 3531DOPE   C3A41429  31.208  24.637  15.353  0.1660 -0.3420  0.1358
 3531DOPE   C4A41430  31.431  24.976  15.526 -0.1510 -0.0238  0.0078
 3531DOPE   C1B41431  32.174  24.310  14.990 -0.0209  0.0496 -0.0081
 3531DOPE   D2B41432  32.125  24.246  15.446  0.0060  0.2167 -0.0196
 3531DOPE   C3B41433  31.933  24.719  15.350  0.0497 -0.1102 -0.1854
 3531DOPE   C4B41434  32.159  25.122  15.388  0.3104 -0.2090 -0.1843
 3532DOPC   NC341435  34.205  30.858  13.325  0.1457  0.0183  0.0140
 3532DOPC   PO441436  33.843  30.876  13.270 -0.1943  0.1972  0.1620
 3532DOPC   GL141437  33.863  30.916  13.668 -0.1212 -0.2947  0.2854
 3532DOPC   GL241438  33.798  31.254  13.629 -0.1983  0.0649  0.0982
 3532DOPC   C1A41439  33.584  30.767  14.032  0.1664 -0.1217 -0.1275
 3532DOPC   D2A41440  33.233  30.717  14.356 -0.2234  0.0883  0.0236
 3532DOPC   C3A41441  32.836  30.985  14.350  0.2365  0.2537  0.0627
 3532DOPC   C4A41442  32.417  30.886  14.477 -0.0788  0.1396 -0.0503
 3532DOPC   C1B41443  33.314  31.314  13.679  0.5577 -0.2277  0.0246
 3532DOPC   D2B41444  32.956  31.484  13.877  0.1068  0.0900 -0.0892
 3532DOPC   C3B41445  32.893  31.922  14.035 -0.1756  0.2278 -0.1751
 3532DOPC   C4B41446  32.984  32.348  13.990  0.2760  0.0256 -0.2149
 3533POSM   NC341447  25.552  27.382  13.282  0.0623  0.2007  0.0126
 3533POSM   PO441448  25.752  27.208  13.558 -0.0093  0.0448  0.3567
 3533POSM   AM141449  25.944  27.046  13.760 -0.4079  0.2400 -0.0975
 3533POSM   AM241450  25.894  26.921  14.017  0.3230 -0.0151  0.0741
 3533POSM   T1A41451  26.279  26.636  13.757 -0.0999 -0.0252  0.1431
 3533POSM   C2A41452  26.469  26.376  13.456  0.1535  0.0928  0.2914
 3533POSM   C3A41453  26.612  26.251  13.002 -0.0619 -0.0428 -0.2280
 3533POSM   C1B41454  26.033  26.674  14.242  0.0977  0.1234 -0.1110
 3533POSM   D2B41455  26.349  26.499  14.612 -0.0036 -0.0583 -0.1770
 3533POSM   C3B41456  26.579  26.291  14.968  0.1113  0.0693  0.2136
 3533POSM   C4B41457  26.845  26.371  15.286  0.4036 -0.3689 -0.0631
 3534DOPS   CNO41458  26.676  22.884  13.325 -0.4905  0.1311 -0.0068
 3534DOPS   PO441459  26.363  22.711  13.408 -0.4341 -0.0354  0.0952
 3534DOPS   GL141460  26.471  22.545  13.658 -0.1852  0.0130  0.0074
 3534DOPS   GL241461  26.582  22.626  13.899  0.3054  0.0967  0.4400
 3534DOPS   C1A41462  26.434  22.153  13.934  0.1671 -0.0803  0.1482
 3534DOPS   D2A41463  26.323  21.969  14.298 -0.1218 -0.3215  0.1796
 3534DOPS   C3A41464  25.976  21.655  14.252 -0.0928  0.0040 -0.1847
 3534DOPS   C4A41465  25.518  21.658  14.220  0.0474  0.0770 -0.0328
 3534DOPS   C1B41466  26.348  22.553  14.251 -0.1484 -0.1617 -0.2608
 3534DOPS   D2B41467  26.229  22.307  14.663  0.1078 -0.2207  0.2711
 3534DOPS   C3B41468  26.454  22.216  15.075  0.0061  0.2344 -0.1914
 3534DOPS   C4B41469  26.330  22.208  15.562  0.0867 -0.1155  0.2137
 3535DOPE   NH341470  26.263  29.181  13.258 -0.2278 -0.0170  0.0261
 3535DOPE   PO441471  26.098  28.972  13.093  0.3575  0.1144  0.2164
 3535DOPE   GL141472  25.755  29.067  13.253 -0.1197 -0.0248  0.1015
 3535DOPE   GL241473  25.757  29.110  13.491 -0.3168 -0.0392 -0.1748
 3535DOPE   C1A41474  25.373  28.920  13.130  0.1568  0.1527  0.0740
 3535DOPE   D2A41475  25.009  29.002  12.822 -0.0753 -0.0961  0.0950
 3535DOPE   C3A41476  24.710  29.352  12.821 -0.0498  0.1669  0.0721
 3535DOPE   C4A41477  24.540  29.739  13.031  0.0492 -0.2104  0.1073
 3535DOPE   C1B41478  25.640  29.112  13.959  0.0864 -0.0437  0.0903
 3535DOPE   D2B41479  25.488  29.228  14.432 -0.2371  0.1852  0.0559
 3535DOPE   C3B41480  25.355  29.594  14.426  0.0435 -0.0342 -0.3019
 3535DOPE   C4B41481  24.874  29.700  14.461  0.1453  0.0245  0.0686
 3536POSM   NC341482  24.194  25.973  13.102  0.0273  0.3808  0.0329
 3536POSM   PO441483  23.988  26.320  13.178  0.1293 -0.0243 -0.2285
 3536POSM   AM141484  24.007  26.175  13.462 -0.0417  0.2951 -0.1452
 3536POSM   AM241485  23.882  25.941  13.548 -0.1221 -0.3322 -0.2693
 3536POSM   T1A41486  24.190  26.172  13.913  0.0225  0.2637 -0.0281
 3536POSM   C2A41487  24.395  26.430  14.335  0.0093  0.1710  0.2898
 3536POSM   C3A41488  24.332  26.455  14.755  0.2452  0.0162  0.0940
 3536POSM   C1B41489  23.907  25.708  13.819 -0.0989 -0.1023 -0.1439
 3536POSM   D2B41490  24.136  25.313  13.907  0.2008  0.1532  0.0579
 3536POSM   C3B41491  24.628  25.146  13.875  0.0918  0.1745  0.1083
 3536POSM   C4B41492  24.729  24.812  14.158  0.1907  0.0780 -0.1755
 3537DOPC   NC341493  30.030  26.903  14.376 -0.2128  0.2155  0.0697
 3537DOPC   PO441494  29.986  27.101  14.019  0.2884 -0.0305 -0.2865
 3537DOPC   GL141495  29.863  27.390  14.066  0.2448 -0.1979  0.0454
 3537DOPC   GL241496  29.887  27.661  14.087 -0.1761 -0.1161  0.1024
 3537DOPC   C1A41497  29.567  27.465  14.388  0.2482  0.0915 -0.1240
 3537DOPC   D2A41498  29.186  27.264  14.455  0.3892 -0.3835 -0.1041
 3537DOPC   C3A41499  28.999  27.368  14.855 -0.0892  0.0080 -0.1981
 3537DOPC   C4A41500  29.148  27.664  15.197 -0.0610  0.1667 -0.1029
 3537DOPC   C1B41501  30.036  27.880  14.404 -0.0474 -0.0248  0.1819
 3537DOPC   D2B41502  29.988  28.318  14.525 -0.0453  0.0774  0.0066
 3537DOPC   C3B41503  29.579  28.436  14.658  0.0178  0.2140 -0.0148
 3537DOPC   C4B41504  29.329  28.255  15.041  0.0310  0.1398  0.0521
 3538DOPS   CNO41505  26.274  23.213  13.245  0.2577  0.0497  0.0990
 3538DOPS   PO441506  26.513  23.382  13.470 -0.1657 -0.0593 -0.0051
 3538DOPS   GL141507  26.554  23.549  13.877 -0.0423 -0.1821  0.0055
 3538DOPS   GL241508  26.726  23.539  14.025  0.0123  0.0927 -0.4772
 3538DOPS   C1A41509  26.510  23.969  14.167  0.0446  0.1963  0.1660
 3538DOPS   D2A41510  26.446  24.128  14.575 -0.0687 -0.0408  0.0318
 3538DOPS   C3A41511  26.391  23.742  14.801  0.2338  0.1052 -0.0399
 3538DOPS   C4A41512  26.588  23.490  15.227  0.1435  0.0681  0.2065
 3538DOPS   C1B41513  26.787  23.731  14.469 -0.2003  0.1754  0.0583
 3538DOPS   D2B41514  26.871  23.765  14.946  0.1709 -0.1454  0.0585
 3538DOPS   C3B41515  27.086  23.457  15.219 -0.0581  0.4437 -0.2223
 3538DOPS   C4B41516  27.362  23.154  15.390 -0.1311  0.1932  0.3448
 3539DOPC   NC341517  25.622  27.383  14.005  0.2684 -0.4183  0.2124
 3539DOPC   PO441518  25.323  27.501  13.803 -0.0564 -0.2777 -0.0739
 3539DOPC   GL141519  25.197  27.674  14.100 -0.2543 -0.1781 -0.0592
 3539DOPC   GL241520  25.374  27.786  14.252  0.4919 -0.3193 -0.2864
 3539DOPC   C1A41521  24.982  28.000  14.306  0.2033 -0.0539 -0.1134
 3539DOPC   D2A41522  24.859  28.449  14.296  0.0941 -0.1506  0.1906
 3539DOPC   C3A41523  24.881  28.699  13.896 -0.1620  0.1415  0.2194
 3539DOPC   C4A41524  24.833  28.782  13.420  0.3174 -0.0706  0.0386
 3539DOPC   C1B41525  25.523  27.527  14.633  0.2543  0.1504 -0.2047
 3539DOPC   D2B41526  25.682  27.183  14.924  0.0349  0.1277  0.1617
 3539DOPC   C3B41527  26.152  27.095  14.898  0.1771  0.1856  0.1585
 3539DOPC   C4B41528  26.559  27.101  14.674  0.1063 -0.2463  0.0391
 3540DOPC   NC341529  28.993  26.355  13.144  0.0856 -0.0807  0.1791
 3540DOPC   PO441530  28.982  26.200  13.479 -0.2263 -0.1100 -0.3655
 3540DOPC   GL141531  28.767  26.305  13.792 -0.1387 -0.0359  0.0634
 3540DOPC   GL241532  28.489  26.342  13.658  0.2286 -0.1136 -0.1023
 3540DOPC   C1A41533  28.479  26.161  14.155 -0.0526  0.0975  0.0587
 3540DOPC   D2A41534  28.634  25.998  14.540  0.1515 -0.0827  0.2037
 3540DOPC   C3A41535  28.573  25.720  14.943  0.2371 -0.0205 -0.1309
 3540DOPC   C4A41536  28.938  25.499  15.221 -0.2835  0.0435 -0.0548
 3540DOPC   C1B41537  28.071  26.517  13.787  0.0489  0.0320 -0.2787
 3540DOPC   D2B41538  27.741  26.243  13.756  0.0378 -0.3074  0.2194
 3540DOPC   C3B41539  27.487  26.135  13.372  0.0681  0.2309 -0.0006
 3540DOPC   C4B41540  27.047  26.182  13.244 -0.1246  0.2121  0.3231
 3541DOPE   NH341541  30.013  26.457  13.468 -0.2972  0.0210 -0.0640
 3541DOPE   PO441542  30.237  26.177  13.466  0.1936  0.1201  0.2483
 3541DOPE   GL141543  30.364  26.044  13.833  0.4525 -0.0100  0.2203
 3541DOPE   GL241544  30.155  26.103  13.964 -0.0485 -0.1243  0.0916
 3541DOPE   C1A41545  30.572  25.758  14.128  0.2727 -0.0869 -0.0244
 3541DOPE   D2A41546  30.664  25.663  14.581 -0.0985 -0.1566 -0.1934
 3541DOPE   C3A41547  30.672  25.244  14.721 -0.1416 -0.0970  0.0860
 3541DOPE   C4A41548  30.852  24.930  15.029  0.4103  0.1423  0.1265
 3541DOPE   C1B41549  30.097  25.689  14.107  0.3335  0.4724  0.2217
 3541DOPE   D2B41550  30.168  25.413  14.446  0.0535  0.2628  0.0225
 3541DOPE   C3B41551  30.325  25.005  14.392 -0.0655 -0.1221 -0.3060
 3541DOPE   C4B41552  30.549  24.704  14.743  0.2709 -0.1928 -0.0986
 3542DOPC   NC341553  25.067  26.520  13.353 -0.0425 -0.1730  0.3713
 3542DOPC   PO441554  24.779  26.701  13.580 -0.3365  0.2255 -0.1900
 3542DOPC   GL141555  24.943  26.592  13.861  0.2060  0.1485  0.2742
 3542DOPC   GL241556  24.827  26.560  14.064  0.2319  0.0632  0.0886
 3542DOPC   C1A41557  25.297  26.323  13.804  0.2921  0.0637 -0.0856
 3542DOPC   D2A41558  25.329  26.030  14.195 -0.0239 -0.2142  0.3739
 3542DOPC   C3A41559  25.206  25.621  14.163 -0.1311  0.1112 -0.1226
 3542DOPC   C4A41560  25.103  25.372  13.868  0.1137  0.0880 -0.0448
 3542DOPC   C1B41561  24.883  26.418  14.493 -0.0434 -0.1291  0.2749
 3542DOPC   D2B41562  25.214  26.353  14.812  0.0317 -0.1176 -0.1282
 3542DOPC   C3B41563  25.483  26.217  15.153  0.1355  0.3886 -0.3173
 3542DOPC   C4B41564  25.751  26.049  15.410  0.0086 -0.1781 -0.2818
 3543DOPC   NC341565  30.178  33.906  13.534  0.0418  0.1212  0.0029
 3543DOPC   PO441566  30.469  34.188  13.543 -0.2636 -0.0078 -0.0650
 3543DOPC   GL141567  30.607  34.078  13.829  0.1176 -0.1542 -0.0305
 3543DOPC   GL241568  30.944  34.108  13.856 -0.0699 -0.2190 -0.0257
 3543DOPC   C1A41569  30.510  34.094  14.226 -0.1492  0.0471 -0.0118
 3543DOPC   D2A41570  30.108  34.309  14.414  0.0433 -0.3680  0.0063
 3543DOPC   C3A41571  30.172  34.198  14.873  0.0409 -0.1485 -0.3175
 3543DOPC   C4A41572  30.304  33.876  15.153 -0.0069  0.0736 -0.0841
 3543DOPC   C1B41573  31.012  34.116  14.317 -0.1466 -0.1548  0.0061
 3543DOPC   D2B41574  31.167  34.314  14.697 -0.2682  0.1360 -0.2844
 3543DOPC   C3B41575  31.515  34.520  14.582  0.3306 -0.0565  0.1653
 3543DOPC   C4B41576  31.834  34.525  14.237 -0.2072 -0.1257  0.1402
 3544POSM   NC341577  29.317  34.069  13.571 -0.0627 -0.0956  0.1407
 3544POSM   PO441578  29.154  33.764  13.704 -0.1313  0.1670  0.0662
 3544POSM   AM141579  29.061  33.603  13.961 -0.0344  0.1118  0.1042
 3544POSM   AM241580  28.817  33.590  14.128  0.0012  0.3171 -0.2018
 3544POSM   T1A41581  29.106  33.234  14.241  0.0886  0.1284 -0.0455
 3544POSM   C2A41582  29.168  33.230  14.717  0.0131 -0.0317  0.2503
 3544POSM   C3A41583  28.926  33.339  15.112  0.0748  0.4673 -0.0268
 3544POSM   C1B41584  28.464  33.514  14.143  0.1437 -0.1110 -0.3484
 3544POSM   D2B41585  28.066  33.706  14.308 -0.2560  0.1018  0.0004
 3544POSM   C3B41586  27.864  33.476  14.574 -0.1880 -0.2301  0.1707
 3544POSM   C4B41587  27.639  33.524  15.016  0.0660  0.0311  0.3748
 3545DOPE   NH341588  30.257  26.891  13.514 -0.1932 -0.2930 -0.0360
 3545DOPE   PO441589  29.938  26.947  13.531 -0.2034 -0.2298 -0.1124
 3545DOPE   GL141590  29.613  27.218  13.733  0.0004  0.1744 -0.0136
 3545DOPE   GL241591  29.428  27.137  13.496  0.1226 -0.2784  0.0870
 3545DOPE   C1A41592  29.161  27.147  13.874  0.0096  0.1480  0.0588
 3545DOPE   D2A41593  28.867  27.380  14.104 -0.1474  0.1634  0.0629
 3545DOPE   C3A41594  28.713  27.103  14.430 -0.2024  0.0352 -0.0583
 3545DOPE   C4A41595  28.537  27.183  14.874  0.0675 -0.1018  0.1285
 3545DOPE   C1B41596  28.969  27.293  13.421  0.2208  0.0315  0.1958
 3545DOPE   D2B41597  28.557  27.273  13.686 -0.0956 -0.0211 -0.0915
 3545DOPE   C3B41598  28.285  27.410  14.010 -0.0646  0.0937  0.1130
 3545DOPE   C4B41599  28.246  27.421  14.504 -0.2888  0.3545 -0.1387
 3546DOPS   CNO41600  29.784  26.750  13.104 -0.0421 -0.2472 -0.0383
 3546DOPS   PO441601  29.458  26.649  13.252  0.1111  0.2079  0.1473
 3546DOPS   GL141602  29.115  26.689  13.498  0.1349 -0.2952 -0.2117
 3546DOPS   GL241603  29.001  26.673  13.758  0.2558 -0.0222  0.3045
 3546DOPS   C1A41604  28.666  26.868  13.420 -0.1698  0.1780 -0.2922
 3546DOPS   D2A41605  28.220  26.785  13.308 -0.3102 -0.1238 -0.2627
 3546DOPS   C3A41606  28.170  26.353  13.211  0.3498  0.0129  0.2794
 3546DOPS   C4A41607  28.142  26.034  13.535 -0.1082  0.1540  0.0438
 3546DOPS   C1B41608  28.632  26.867  13.994  0.2656  0.0742 -0.4472
 3546DOPS   D2B41609  28.283  26.891  14.297 -0.0613 -0.0552 -0.0357
 3546DOPS   C3B41610  27.994  26.784  14.653 -0.0321  0.3929 -0.0254
 3546DOPS   C4B41611  27.650  26.808  14.939 -0.2934 -0.0533  0.1994
 3547DOPC   NC341612  28.270  34.216  13.216  0.0104 -0.2097  0.0403
 3547DOPC   PO441613  28.351  34.370  13.619  0.0354  0.5101  0.1707
 3547DOPC   GL141614  28.122  34.552  13.926 -0.2185 -0.2091  0.0178
 3547DOPC   GL241615  27.916  34.517  13.847  0.2446  0.0338 -0.1186
 3547DOPC   C1A41616  27.997  34.640  14.350  0.0868  0.2356 -0.0618
 3547DOPC   D2A41617  27.706  34.859  14.702  0.0062 -0.0399 -0.1898
 3547DOPC   C3A41618  27.851  35.172  15.005 -0.4870  0.0433  0.0759
 3547DOPC   C4A41619  27.841  35.211  15.433 -0.1230 -0.0945 -0.3101
 3547DOPC   C1B41620  27.779  34.204  14.139  0.2681 -0.0554 -0.2438
 3547DOPC   D2B41621  27.658  33.895  14.454 -0.2056  0.1870 -0.3226
 3547DOPC   C3B41622  27.269  33.723  14.571 -0.1520  0.2198  0.1781
 3547DOPC   C4B41623  27.142  33.564  14.945 -0.0646 -0.0123  0.0494
 3548DOPE   NH341624  24.666  27.222  13.660 -0.0734 -0.0660 -0.0152
 3548DOPE   PO441625  24.399  27.102  13.785 -0.1101 -0.1024 -0.0216
 3548DOPE   GL141626  24.695  27.055  14.100  0.0016  0.0817  0.1874
 3548DOPE   GL241627  24.723  27.327  14.180 -0.0160 -0.2902 -0.1177
 3548DOPE   C1A41628  24.760  26.922  14.518  0.0937 -0.0306 -0.2764
 3548DOPE   D2A41629  24.897  26.679  14.929  0.0717 -0.2348 -0.1038
 3548DOPE   C3A41630  24.497  26.547  15.229  0.2464  0.2898  0.3757
 3548DOPE   C4A41631  24.255  26.421  15.568  0.2282 -0.2174  0.0319
 3548DOPE   C1B41632  24.325  27.301  14.390 -0.0836  0.2012 -0.3610
 3548DOPE   D2B41633  24.204  26.925  14.622  0.1648  0.3939 -0.0474
 3548DOPE   C3B41634  24.526  26.997  14.922 -0.0308 -0.0851 -0.0295
 3548DOPE   C4B41635  24.570  27.110  15.384 -0.2299  0.0627  0.0116
 3549DOPE   NH341636  29.823  27.403  13.336  0.2127 -0.0016 -0.0217
 3549DOPE   PO441637  29.773  27.610  13.597  0.1094 -0.2131 -0.3688
 3549DOPE   GL141638  29.401  27.655  13.611  0.1252  0.0580  0.1274
 3549DOPE   GL241639  29.374  27.650  13.925 -0.0161  0.1135 -0.0090
 3549DOPE   C1A41640  28.989  27.789  13.592 -0.0906 -0.0470 -0.4326
 3549DOPE   D2A41641  28.556  27.815  13.738 -0.1171  0.3092  0.1701
 3549DOPE   C3A41642  28.584  27.781  14.150 -0.1211  0.2574  0.0549
 3549DOPE   C4A41643  28.698  27.639  14.583  0.4125 -0.0783  0.0012
 3549DOPE   C1B41644  29.164  28.090  13.923 -0.0100 -0.0502  0.1137
 3549DOPE   D2B41645  28.826  28.390  13.901  0.0554 -0.1391  0.0334
 3549DOPE   C3B41646  28.529  28.360  13.519 -0.0720  0.2362  0.1993
 3549DOPE   C4B41647  28.438  28.690  13.222 -0.0245 -0.0367  0.0548
 3550POSM   NC341648  33.035  30.246  12.823  0.1236 -0.2905  0.2121
 3550POSM   PO441649  32.834  30.017  13.110  0.1299  0.1295  0.0099
 3550POSM   AM141650  32.653  30.096  13.347 -0.2555  0.6640  0.0653
 3550POSM   AM241651  32.375  30.046  13.435 -0.1303 -0.1378  0.2643
 3550POSM   T1A41652  32.627  30.343  13.765 -0.0774 -0.1333  0.1180
 3550POSM   C2A41653  32.738  30.737  13.879 -0.0714 -0.2650 -0.1562
 3550POSM   C3A41654  33.133  30.994  13.980 -0.0339 -0.0771 -0.5357
 3550POSM   C1B41655  32.213  30.011  13.716  0.0508 -0.1001  0.0333
 3550POSM   D2B41656  31.764  30.070  13.758  0.3912 -0.0831 -0.1465
 3550POSM   C3B41657  31.459  30.320  14.009 -0.1338 -0.0070  0.0794
 3550POSM   C4B41658  31.087  30.402  14.338  0.1651  0.2792  0.0721
 3551POSM   NC341659  31.666   0.208  13.105 -0.0293  0.2217  0.3467
 3551POSM   PO441660  31.894  -0.035  13.284 -0.1379  0.1720 -0.3988
 3551POSM   AM141661  32.123  -0.192  13.357 -0.1006 -0.1919  0.3681
 3551POSM   AM241662  32.327  -0.234  13.522  0.0829 -0.0860 -0.1442
 3551POSM   T1A41663  32.369  -0.692  13.233  0.0266  0.0022 -0.2946
 3551POSM   C2A41664  32.370  -1.150  13.315 -0.2323 -0.1794  0.1417
 3551POSM   C3A41665  32.513  -1.603  13.445 -0.0475 -0.0970  0.0122
 3551POSM   C1B41666  32.392  -0.310  13.826  0.2031 -0.1664  0.0065
 3551POSM   D2B41667  32.419  -0.699  14.072  0.1906  0.1301  0.0395
 3551POSM   C3B41668  32.808  -0.958  14.215 -0.1363 -0.2871 -0.2031
 3551POSM   C4B41669  33.280  -1.117  14.222 -0.0220  0.0851 -0.1060
 3552DOPC   NC341670  24.518  27.850  13.370 -0.0305  0.1561 -0.2001
 3552DOPC   PO441671  24.313  27.503  13.347  0.2605 -0.2906 -0.0288
 3552DOPC   GL141672  24.203  27.644  13.683 -0.1405 -0.0401  0.0636
 3552DOPC   GL241673  24.150  27.481  13.938  0.0968  0.2645 -0.0363
 3552DOPC   C1A41674  24.289  28.039  13.899  0.2705  0.0495  0.1674
 3552DOPC   D2A41675  24.381  28.380  14.241  0.0290 -0.1760  0.1110
 3552DOPC   C3A41676  24.069  28.602  14.462  0.0545 -0.1584 -0.1487
 3552DOPC   C4A41677  23.748  28.857  14.434  0.0426 -0.1687  0.2733
 3552DOPC   C1B41678  23.845  27.723  13.995  0.1616 -0.0888  0.2735
 3552DOPC   D2B41679  23.612  28.170  14.067  0.0743  0.2075  0.4359
 3552DOPC   C3B41680  23.857  28.573  13.989  0.3073  0.1195  0.1123
 3552DOPC   C4B41681  24.037  28.787  13.633 -0.0727  0.1169  0.0763
 3553DOPC   NC341682  29.084  34.419  13.246 -0.2405 -0.4142  0.0811
 3553DOPC   PO441683  28.848  34.142  13.413 -0.0449 -0.2397 -0.1092
 3553DOPC   GL141684  28.673  33.859  13.271  0.0343  0.1903 -0.1418
 3553DOPC   GL241685  28.661  33.653  13.573  0.1958 -0.1080  0.3379
 3553DOPC   C1A41686  28.241  33.653  13.370 -0.1963 -0.1586  0.0401
 3553DOPC   D2A41687  27.751  33.606  13.416 -0.2628 -0.0175  0.1129
 3553DOPC   C3A41688  27.451  33.191  13.400  0.0290 -0.0707  0.1880
 3553DOPC   C4A41689  27.448  32.720  13.401  0.0932 -0.0916 -0.0123
 3553DOPC   C1B41690  28.417  33.258  13.583  0.1463  0.0614 -0.1477
 3553DOPC   D2B41691  28.507  32.845  13.549 -0.0976 -0.1431  0.0921
 3553DOPC   C3B41692  28.212  32.571  13.366 -0.2355 -0.0221 -0.1933
 3553DOPC   C4B41693  27.976  32.162  13.400 -0.0706  0.2301 -0.1980
 3554DOPC   NC341694  29.289  31.179  13.334  0.1087 -0.1263 -0.1223
 3554DOPC   PO441695  29.307  31.000  13.661 -0.0767 -0.2648 -0.2018
 3554DOPC   GL141696  29.563  30.836  13.954 -0.0318 -0.0789 -0.4150
 3554DOPC   GL241697  29.796  30.604  13.856  0.2114 -0.2337 -0.1415
 3554DOPC   C1A41698  29.649  30.541  14.289 -0.2411 -0.0542 -0.3697
 3554DOPC   D2A41699  29.819  30.441  14.701  0.0352 -0.0647 -0.0563
 3554DOPC   C3A41700  30.211  30.171  14.765 -0.0255 -0.0638  0.0901
 3554DOPC   C4A41701  30.416  29.774  14.806 -0.1196 -0.0655 -0.1679
 3554DOPC   C1B41702  30.118  30.447  14.122  0.0697 -0.1292 -0.0072
 3554DOPC   D2B41703  30.310  30.085  14.258 -0.1974  0.2101  0.1256
 3554DOPC   C3B41704  30.328  29.745  13.954 -0.1736 -0.0620  0.5493
 3554DOPC   C4B41705  30.448  29.650  13.506  0.1203 -0.0720 -0.2231
 3555POSM   NC341706  25.944  27.767  13.078  0.0126 -0.1315  0.1765
 3555POSM   PO441707  26.034  27.412  13.207  0.2403  0.0734 -0.0599
 3555POSM   AM141708  26.195  27.139  13.300  0.0681  0.0889 -0.1256
 3555POSM   AM241709  26.180  26.835  13.280  0.2835  0.2898  0.0306
 3555POSM   T1A41710  26.649  26.961  13.460  0.0174  0.0490 -0.0421
 3555POSM   C2A41711  26.964  26.583  13.549  0.0088 -0.0747  0.2523
 3555POSM   C3A41712  27.297  26.399  13.756 -0.4997  0.3381  0.0881
 3555POSM   C1B41713  26.034  26.540  13.164 -0.3515 -0.1841 -0.0094
 3555POSM   D2B41714  26.137  26.121  13.049 -0.1107  0.1460  0.2654
 3555POSM   C3B41715  26.157  25.871  13.417 -0.1678  0.1923  0.1132
 3555POSM   C4B41716  26.428  25.607  13.721 -0.1274  0.2315  0.1509
 3556DOPC   NC341717  25.506  33.830  12.688 -0.0202 -0.0430 -0.0373
 3556DOPC   PO441718  25.143  33.908  12.775  0.0597 -0.3980  0.1017
 3556DOPC   GL141719  25.133  33.514  12.839  0.0026 -0.0482 -0.0003
 3556DOPC   GL241720  24.904  33.560  13.065 -0.0493 -0.3279  0.2030
 3556DOPC   C1A41721  25.001  33.046  12.916  0.0249 -0.1360 -0.0913
 3556DOPC   D2A41722  24.870  32.631  13.108  0.0716 -0.0361  0.1618
 3556DOPC   C3A41723  24.870  32.770  13.500 -0.2081 -0.0103 -0.0650
 3556DOPC   C4A41724  24.859  32.716  13.905 -0.2362 -0.1960  0.0512
 3556DOPC   C1B41725  25.085  33.343  13.413  0.0388  0.4981 -0.1565
 3556DOPC   D2B41726  25.249  33.173  13.839  0.2048  0.2256  0.0012
 3556DOPC   C3B41727  25.087  33.532  14.098 -0.0046  0.2484  0.0833
 3556DOPC   C4B41728  25.030  33.921  14.332  0.0886  0.1968 -0.1627
 3557POSM   NC341729   0.778  26.792  12.737 -0.0144 -0.0317 -0.1550
 3557POSM   PO441730   0.397  26.675  12.710 -0.2255  0.0684  0.1018
 3557POSM   AM141731   0.204  26.919  12.842 -0.2170  0.1853 -0.1731
 3557POSM   AM241732   0.146  27.198  12.776  0.2968 -0.1156 -0.1921
 3557POSM   T1A41733  -0.032  27.212  13.206 -0.0102 -0.1717 -0.1433
 3557POSM   C2A41734  -0.461  27.389  13.306 -0.2184 -0.2105  0.4280
 3557POSM   C3A41735  -0.827  27.227  13.025 -0.1832  0.2149  0.0568
 3557POSM   C1B41736  -0.135  27.232  12.673  0.1132 -0.1069  0.0894
 3557POSM   D2B41737  -0.565  27.292  12.463 -0.1512 -0.0819 -0.2350
 3557POSM   C3B41738  -0.744  27.660  12.647 -0.0972 -0.0429 -0.0114
 3557POSM   C4B41739  -1.043  27.726  13.071  0.0013  0.2995  0.2076
 3558DOPS   CNO41740  32.641  24.924  13.536  0.2282  0.0823 -0.1644
 3558DOPS   PO441741  32.264  24.948  13.423  0.1077  0.1062  0.1821
 3558DOPS   GL141742  32.376  25.107  13.838 -0.2688  0.1823 -0.1004
 3558DOPS   GL241743  32.228  25.014  14.082 -0.2403  0.1794 -0.1384
 3558DOPS   C1A41744  32.701  24.976  14.192  0.2554 -0.1350 -0.0575
 3558DOPS   D2A41745  32.924  25.282  14.490 -0.0017  0.2328 -0.3365
 3558DOPS   C3A41746  32.999  25.324  14.973 -0.0306 -0.1522 -0.0660
 3558DOPS   C4A41747  33.293  25.066  15.245  0.0556  0.0257  0.1008
 3558DOPS   C1B41748  32.401  25.356  14.262 -0.3059  0.0681 -0.0593
 3558DOPS   D2B41749  32.311  25.489  14.616 -0.2218 -0.0507  0.2357
 3558DOPS   C3B41750  32.474  25.255  14.937  0.1802  0.0706  0.1934
 3558DOPS   C4B41751  32.641  25.201  15.327 -0.0148  0.1924 -0.1284
 3559DOPC   NC341752  26.786  28.280  13.183 -0.3648 -0.1131  0.0259
 3559DOPC   PO441753  26.933  28.648  13.315 -0.1684  0.1155 -0.0749
 3559DOPC   GL141754  27.135  28.306  13.576 -0.2803  0.3941 -0.0459
 3559DOPC   GL241755  27.192  28.126  13.398 -0.2164  0.0623  0.5011
 3559DOPC   C1A41756  27.557  28.123  13.777  0.0082  0.0852 -0.0216
 3559DOPC   D2A41757  27.611  28.107  14.263 -0.0413  0.1927  0.2982
 3559DOPC   C3A41758  27.676  27.660  14.356  0.0477 -0.3913  0.1000
 3559DOPC   C4A41759  27.721  27.213  14.197 -0.0884 -0.1513  0.2813
 3559DOPC   C1B41760  27.516  28.373  13.158 -0.3183  0.2705  0.2804
 3559DOPC   D2B41761  27.913  28.426  13.049 -0.2312  0.2610 -0.4003
 3559DOPC   C3B41762  27.975  28.868  13.201  0.1142  0.0169  0.0107
 3559DOPC   C4B41763  28.265  29.191  13.328 -0.1415  0.1529  0.1365
 3560DOPS   CNO41764  23.053  34.029  12.748 -0.0903  0.1799  0.1255
 3560DOPS   PO441765  22.945  33.948  13.089 -0.1612  0.2338  0.1121
 3560DOPS   GL141766  23.162  33.722  13.283  0.2053 -0.2416 -0.0558
 3560DOPS   GL241767  23.365  33.594  13.263 -0.3049  0.1509 -0.0773
 3560DOPS   C1A41768  23.279  33.774  13.722 -0.1449 -0.0112 -0.1318
 3560DOPS   D2A41769  23.279  33.525  14.093 -0.3269  0.1324  0.0127
 3560DOPS   C3A41770  22.998  33.181  14.073  0.3496 -0.1683 -0.1953
 3560DOPS   C4A41771  22.545  33.090  13.931 -0.1616 -0.1062 -0.0195
 3560DOPS   C1B41772  23.757  33.489  13.526 -0.2256  0.1696  0.1249
 3560DOPS   D2B41773  24.095  33.143  13.577 -0.1335  0.1476  0.1619
 3560DOPS   C3B41774  24.262  32.992  14.025  0.1693  0.0821  0.0343
 3560DOPS   C4B41775  24.368  33.058  14.421 -0.2343  0.4176  0.3085
 3561DOPE   NH341776  28.035  30.918  14.272 -0.1340 -0.2213  0.1526
 3561DOPE   PO441777  27.964  31.076  14.018 -0.2689  0.1485  0.0005
 3561DOPE   GL141778  27.886  31.459  14.163 -0.2865  0.0299  0.1614
 3561DOPE   GL241779  27.829  31.405  14.443  0.0469  0.2919 -0.1554
 3561DOPE   C1A41780  27.991  31.856  14.297  0.1473 -0.1146 -0.2539
 3561DOPE   D2A41781  27.768  32.196  14.576 -0.0538 -0.0257 -0.0643
 3561DOPE   C3A41782  27.568  32.137  14.922  0.0719  0.0300  0.2120
 3561DOPE   C4A41783  27.460  32.407  15.274  0.0117  0.1709 -0.2274
 3561DOPE   C1B41784  27.620  31.570  14.809 -0.3064  0.1647  0.0645
 3561DOPE   D2B41785  27.696  31.386  15.253  0.1472  0.2119 -0.1009
 3561DOPE   C3B41786  27.883  30.964  15.321  0.3826 -0.1678 -0.1033
 3561DOPE   C4B41787  27.993  30.581  15.156 -0.1428 -0.1184 -0.1543
 3562DOPE   NH341788  34.066  25.401  13.482 -0.0009  0.0387 -0.1171
 3562DOPE   PO441789  34.361  25.215  13.507  0.1252  0.1852  0.0370
 3562DOPE   GL141790  34.417  25.119  13.951  0.2302 -0.2478  0.1254
 3562DOPE   GL241791  34.155  25.323  14.027 -0.2258 -0.1516 -0.0699
 3562DOPE   C1A41792  34.679  25.285  14.263 -0.1842 -0.1871  0.0504
 3562DOPE   D2A41793  34.759  25.496  14.664  0.0069  0.2445  0.2037
 3562DOPE   C3A41794  34.324  25.609  14.903  0.0409  0.0856 -0.0013
 3562DOPE   C4A41795  33.948  25.761  15.126 -0.0732  0.1181 -0.2343
 3562DOPE   C1B41796  34.230  25.706  14.354  0.0867  0.3114  0.1874
 3562DOPE   D2B41797  34.139  26.166  14.388 -0.0451  0.2713  0.3771
 3562DOPE   C3B41798  34.214  26.354  14.825  0.3742 -0.0123 -0.0437
 3562DOPE   C4B41799  34.015  26.634  15.015 -0.0028  0.2791 -0.2083
 3563DOPE   NH341800  30.878  26.687  13.728  0.2008 -0.2785 -0.2761
 3563DOPE   PO441801  30.865  26.711  14.035  0.1952 -0.0221 -0.1643
 3563DOPE   GL141802  30.818  26.586  14.348  0.4671 -0.4115 -0.1260
 3563DOPE   GL241803  30.999  26.783  14.487 -0.1418 -0.2224 -0.0121
 3563DOPE   C1A41804  30.539  26.879  14.639 -0.0575  0.0300  0.1943
 3563DOPE   D2A41805  30.374  27.255  14.810  0.2091 -0.2871 -0.0514
 3563DOPE   C3A41806  30.502  27.583  15.058 -0.2248 -0.1903 -0.0696
 3563DOPE   C4A41807  30.719  28.022  15.141  0.1259 -0.1278  0.0278
 3563DOPE   C1B41808  30.833  26.469  14.786 -0.3051  0.2194 -0.1944
 3563DOPE   D2B41809  30.824  26.251  15.187  0.1133 -0.3669  0.2781
 3563DOPE   C3B41810  30.774  25.848  15.248  0.2198  0.1465 -0.0154
 3563DOPE   C4B41811  30.694  25.395  15.177 -0.0730 -0.0913  0.4163
 3564DOPC   NC341812  28.790  24.086  13.368 -0.1193  0.1979  0.1627
 3564DOPC   PO441813  28.639  24.382  13.631 -0.2795  0.2793 -0.1342
 3564DOPC   GL141814  28.800  24.387  13.962 -0.0145 -0.0711  0.4362
 3564DOPC   GL241815  28.618  24.513  14.145 -0.0260 -0.2926  0.3264
 3564DOPC   C1A41816  29.169  24.490  14.217  0.0734 -0.2984  0.1473
 3564DOPC   D2A41817  29.391  24.628  14.555  0.0477 -0.3020 -0.0496
 3564DOPC   C3A41818  29.179  24.486  14.978 -0.1386 -0.2655 -0.0942
 3564DOPC   C4A41819  28.961  24.578  15.370  0.1577 -0.0235  0.3298
 3564DOPC   C1B41820  28.305  24.526  14.485 -0.1792 -0.2443  0.0268
 3564DOPC   D2B41821  28.101  24.774  14.814 -0.1447 -0.0403 -0.1938
 3564DOPC   C3B41822  28.153  24.661  15.251  0.1819 -0.0084  0.0005
 3564DOPC   C4B41823  28.096  24.310  15.581 -0.1166 -0.4520  0.1150
 3565DOPS   CNO41824  33.569  30.437  13.570  0.0661  0.1365  0.2891
 3565DOPS   PO441825  33.937  30.444  13.509  0.0830 -0.0106 -0.0418
 3565DOPS   GL141826  34.021  30.592  13.886  0.2345 -0.4494  0.1183
 3565DOPS   GL241827  34.289  30.621  13.844  0.2453 -0.1244  0.0210
 3565DOPS   C1A41828  33.855  30.287  14.167  0.4424  0.2486 -0.0446
 3565DOPS   D2A41829  33.508  30.037  13.968 -0.2128 -0.0364 -0.2067
 3565DOPS   C3A41830  33.206  30.106  14.267  0.1850  0.0570  0.0594
 3565DOPS   C4A41831  33.121  30.331  14.664 -0.1745  0.0007  0.3308
 3565DOPS   C1B41832  34.308  31.080  13.749  0.0912 -0.0584 -0.0147
 3565DOPS   D2B41833  34.216  31.492  13.936 -0.1370  0.1902 -0.0460
 3565DOPS   C3B41834  34.250  31.865  14.293 -0.0098 -0.1131  0.2274
 3565DOPS   C4B41835  34.371  32.313  14.248  0.4516 -0.0941 -0.0184
 3566DOPS   CNO41836  30.165  33.426  13.364  0.3207  0.2452  0.0300
 3566DOPS   PO441837  30.266  33.265  13.028  0.1076 -0.2788 -0.0415
 3566DOPS   GL141838  30.599  33.033  13.187 -0.0263 -0.0200 -0.1093
 3566DOPS   GL241839  30.900  33.031  13.184 -0.3341 -0.2026  0.1292
 3566DOPS   C1A41840  30.753  33.105  13.620  0.3110  0.1622 -0.1584
 3566DOPS   D2A41841  31.011  33.260  13.934  0.3476  0.2790  0.0249
 3566DOPS   C3A41842  31.385  33.146  14.156  0.4305 -0.1743 -0.1368
 3566DOPS   C4A41843  31.684  32.831  14.195  0.1750 -0.1771 -0.0088
 3566DOPS   C1B41844  30.745  32.659  13.452 -0.2257  0.1813  0.1588
 3566DOPS   D2B41845  30.615  32.361  13.755  0.0977 -0.0825 -0.0086
 3566DOPS   C3B41846  30.818  32.408  14.157 -0.1867 -0.1157  0.3319
 3566DOPS   C4B41847  30.807  32.193  14.575  0.1741 -0.3055 -0.1664
 3567DOPC   NC341848  29.517  31.998  13.637 -0.1422 -0.2031 -0.2028
 3567DOPC   PO441849  29.593  31.897  13.269  0.0107 -0.2424 -0.0307
 3567DOPC   GL141850  30.011  32.031  13.483 -0.2191 -0.0630 -0.1430
 3567DOPC   GL241851  30.060  32.056  13.773  0.0827 -0.1853 -0.3249
 3567DOPC   C1A41852  30.462  31.958  13.334 -0.0287  0.1408  0.4128
 3567DOPC   D2A41853  30.864  32.131  13.341  0.0550 -0.2154 -0.0134
 3567DOPC   C3A41854  31.170  32.165  13.717  0.0486 -0.0353  0.0564
 3567DOPC   C4A41855  31.467  32.024  14.068  0.1918  0.0547  0.2879
 3567DOPC   C1B41856  30.320  31.865  14.081 -0.1080 -0.2622 -0.0426
 3567DOPC   D2B41857  30.582  31.725  14.411 -0.1409  0.0140 -0.5373
 3567DOPC   C3B41858  30.629  31.265  14.592 -0.1582  0.2278 -0.0515
 3567DOPC   C4B41859  30.768  30.845  14.670  0.0560  0.0310 -0.1433
 3568DOPS   CNO41860  25.829  27.689  13.600 -0.1246 -0.2393 -0.0145
 3568DOPS   PO441861  26.174  27.581  13.639  0.4318  0.0090  0.1758
 3568DOPS   GL141862  26.138  27.423  14.038 -0.1532  0.0420 -0.1408
 3568DOPS   GL241863  26.339  27.232  13.956  0.0487 -0.0787 -0.1100
 3568DOPS   C1A41864  25.886  27.692  14.359  0.0889 -0.0909  0.3193
 3568DOPS   D2A41865  25.671  27.983  14.706  0.0827 -0.0124 -0.1385
 3568DOPS   C3A41866  25.224  28.112  14.684  0.1850 -0.0887 -0.0623
 3568DOPS   C4A41867  24.817  27.939  14.781 -0.0532 -0.0688 -0.0088
 3568DOPS   C1B41868  26.574  26.846  14.146 -0.0087 -0.0950  0.1159
 3568DOPS   D2B41869  26.536  26.381  14.077 -0.2016  0.0933  0.0863
 3568DOPS   C3B41870  26.763  26.112  13.789 -0.1055  0.3707  0.1512
 3568DOPS   C4B41871  26.656  25.841  13.383  0.0872 -0.2686  0.0943
 3569DOPS   CNO41872  27.288  29.949  13.679  0.1764 -0.1323 -0.0422
 3569DOPS   PO441873  27.624  30.155  13.756  0.1487  0.1199  0.0238
 3569DOPS   GL141874  27.484  30.037  14.082 -0.1639  0.0304 -0.0780
 3569DOPS   GL241875  27.238  29.926  14.175  0.4502 -0.0592 -0.0271
 3569DOPS   C1A41876  27.585  29.814  14.494  0.0485 -0.3444  0.1393
 3569DOPS   D2A41877  27.601  29.383  14.650  0.5751 -0.2584 -0.0942
 3569DOPS   C3A41878  27.975  29.305  14.419 -0.1247 -0.1283  0.0617
 3569DOPS   C4A41879  28.083  28.896  14.198 -0.3469 -0.0009 -0.1988
 3569DOPS   C1B41880  27.177  30.114  14.604  0.0540 -0.0490 -0.0953
 3569DOPS   D2B41881  26.902  29.901  14.956  0.0149 -0.1103  0.4108
 3569DOPS   C3B41882  26.537  30.181  14.972  0.1722 -0.0758 -0.0376
 3569DOPS   C4B41883  26.147  30.124  15.225 -0.0028  0.0161  0.1427
 3570DOPC   NC341884  24.058  31.407  13.180 -0.3421  0.3527 -0.0296
 3570DOPC   PO441885  23.988  31.747  13.413 -0.0587  0.0563  0.2158
 3570DOPC   GL141886  24.378  31.675  13.479 -0.3720  0.1565  0.0216
 3570DOPC   GL241887  24.530  31.589  13.284  0.0860 -0.1958  0.0016
 3570DOPC   C1A41888  24.569  31.713  13.880  0.0842  0.3222 -0.1144
 3570DOPC   D2A41889  24.992  31.865  14.073  0.2008 -0.0894 -0.2208
 3570DOPC   C3A41890  25.364  31.989  14.375  0.0159 -0.1915 -0.0270
 3570DOPC   C4A41891  25.495  32.210  14.798  0.0343 -0.1572 -0.1180
 3570DOPC   C1B41892  24.962  31.414  13.193  0.0295 -0.0074 -0.0068
 3570DOPC   D2B41893  25.375  31.566  13.194  0.0775 -0.0518  0.0915
 3570DOPC   C3B41894  25.312  32.006  13.396  0.0025  0.2355 -0.1413
 3570DOPC   C4B41895  25.272  32.453  13.241 -0.0188 -0.0354 -0.0295
 3571DOPE   NH341896  34.026  23.128  13.573  0.0282  0.0116 -0.0940
 3571DOPE   PO441897  34.120  23.389  13.741 -0.3581  0.1669  0.2130
 3571DOPE   GL141898  34.149  23.288  14.086  0.1407 -0.0295 -0.1593
 3571DOPE   GL241899  33.913  23.280  14.232 -0.1966  0.0259 -0.3564
 3571DOPE   C1A41900  34.326  23.161  14.520 -0.0799  0.2971  0.2799
 3571DOPE   D2A41901  34.228  22.803  14.792 -0.1172 -0.0292 -0.0573
 3571DOPE   C3A41902  33.855  22.764  14.986 -0.1993  0.0421  0.0181
 3571DOPE   C4A41903  33.426  22.707  14.958  0.0453  0.0477 -0.0879
 3571DOPE   C1B41904  33.799  23.093  14.649 -0.2464  0.1640  0.0572
 3571DOPE   D2B41905  33.653  23.205  15.039 -0.1986 -0.0074 -0.2196
 3571DOPE   C3B41906  33.821  23.040  15.408  0.2018 -0.1240  0.1039
 3571DOPE   C4B41907  33.884  22.836  15.849  0.4021 -0.1744  0.1501
 3572DOPE   NH341908  23.374   0.237  13.022  0.0229  0.0507 -0.0898
 3572DOPE   PO441909  23.529  -0.036  13.140 -0.0699 -0.0145 -0.1224
 3572DOPE   GL141910  23.717   0.095  13.397  0.1700  0.2961 -0.0712
 3572DOPE   GL241911  23.857  -0.174  13.582 -0.0838  0.1629  0.2780
 3572DOPE   C1A41912  23.873   0.521  13.524  0.1783  0.0041 -0.3944
 3572DOPE   D2A41913  24.028   0.704  13.888  0.1322  0.2380  0.3223
 3572DOPE   C3A41914  24.203   1.119  13.842 -0.0494 -0.0277 -0.0145
 3572DOPE   C4A41915  24.373   1.492  13.712 -0.1748 -0.0868 -0.0920
 3572DOPE   C1B41916  23.774  -0.603  13.754 -0.1336 -0.2505  0.0763
 3572DOPE   D2B41917  23.616  -0.826  14.082  0.2185  0.0630 -0.0173
 3572DOPE   C3B41918  23.887  -0.931  14.400  0.1202 -0.0209  0.2501
 3572DOPE   C4B41919  24.128  -1.196  14.727  0.1211 -0.0235  0.1498
 3573POSM   NC341920  29.270  25.565  13.309 -0.1186  0.2773 -0.0854
 3573POSM   PO441921  29.216  25.744  13.666 -0.2527  0.0047 -0.0100
 3573POSM   AM141922  29.363  25.790  13.960  0.1445 -0.2365 -0.2092
 3573POSM   AM241923  29.630  25.822  14.126  0.2893  0.1206  0.0762
 3573POSM   T1A41924  29.224  25.886  14.410  0.1152 -0.1347 -0.2287
 3573POSM   C2A41925  29.225  25.522  14.766  0.0051 -0.2110  0.0744
 3573POSM   C3A41926  29.277  25.061  14.870 -0.2109  0.0374 -0.2914
 3573POSM   C1B41927  29.699  25.639  14.437  0.1192 -0.0110 -0.1524
 3573POSM   D2B41928  29.867  25.606  14.935  0.4665 -0.0208  0.3198
 3573POSM   C3B41929  29.454  25.721  15.168 -0.1070 -0.0094 -0.0626
 3573POSM   C4B41930  29.132  26.003  15.071  0.1541 -0.0371 -0.0728
 3574DOPS   CNO41931  32.046   0.356  12.862  0.0646  0.2034 -0.2682
 3574DOPS   PO441932  32.044  -0.047  12.815 -0.0217  0.0265 -0.1342
 3574DOPS   GL141933  32.049  -0.385  12.974  0.0859 -0.2188  0.1386
 3574DOPS   GL241934  31.867  -0.531  13.255 -0.1100  0.3342  0.1630
 3574DOPS   C1A41935  31.882  -0.730  12.756 -0.1271  0.1041  0.4779
 3574DOPS   D2A41936  31.801  -1.172  12.704 -0.2557  0.3307 -0.0983
 3574DOPS   C3A41937  32.167  -1.492  12.851  0.1289 -0.3190 -0.0913
 3574DOPS   C4A41938  32.229  -1.955  13.058  0.1957  0.1164 -0.0105
 3574DOPS   C1B41939  31.906  -0.999  13.194  0.1353  0.1147  0.0057
 3574DOPS   D2B41940  31.927  -1.423  13.415  0.0818 -0.1919  0.0529
 3574DOPS   C3B41941  32.103  -1.688  13.760 -0.1198 -0.1195  0.1467
 3574DOPS   C4B41942  32.332  -1.773  14.160 -0.0903 -0.2408 -0.2754
 3575DOPC   NC341943  31.485  25.008  14.129 -0.1314 -0.1115 -0.3058
 3575DOPC   PO441944  31.241  24.820  13.803  0.0767  0.0304  0.1430
 3575DOPC   GL141945  30.918  24.919  14.134 -0.0645  0.0198  0.1501
 3575DOPC   GL241946  30.702  24.712  14.171  0.2722  0.0287  0.0511
 3575DOPC   C1A41947  31.142  24.912  14.525 -0.0564 -0.0089 -0.0973
 3575DOPC   D2A41948  31.223  25.197  14.894 -0.2122  0.1019  0.1123
 3575DOPC   C3A41949  31.063  25.628  14.844  0.3719  0.1269  0.0413
 3575DOPC   C4A41950  30.940  26.031  14.720 -0.3353 -0.0864  0.0673
 3575DOPC   C1B41951  30.600  24.306  14.087  0.1358 -0.0161 -0.1130
 3575DOPC   D2B41952  30.397  24.039  13.771  0.1646 -0.0100  0.2169
 3575DOPC   C3B41953  29.955  24.174  14.007 -0.2988 -0.1640  0.1114
 3575DOPC   C4B41954  29.658  24.519  14.016 -0.3953 -0.3441 -0.0108
 3576DOPE   NH341955  23.999  27.185  13.500 -0.1001 -0.3031  0.1791
 3576DOPE   PO441956  23.841  27.122  13.774  0.0284  0.1467  0.2949
 3576DOPE   GL141957  23.963  26.745  13.847 -0.1909  0.0053  0.1759
 3576DOPE   GL241958  23.985  26.811  14.107  0.0481 -0.1074 -0.0636
 3576DOPE   C1A41959  23.648  26.450  13.995  0.0299  0.3113  0.3360
 3576DOPE   D2A41960  23.311  26.150  13.843 -0.1624  0.0785 -0.0877
 3576DOPE   C3A41961  23.439  25.749  13.647 -0.2561  0.1099  0.2141
 3576DOPE   C4A41962  23.576  25.305  13.731 -0.3125  0.1316  0.0055
 3576DOPE   C1B41963  23.940  26.484  14.406 -0.0882  0.3258  0.0394
 3576DOPE   D2B41964  23.982  26.039  14.375  0.0258 -0.0468  0.3510
 3576DOPE   C3B41965  24.059  25.906  14.751 -0.1794 -0.0149 -0.1534
 3576DOPE   C4B41966  24.241  26.073  15.082  0.3160 -0.1360  0.1230
 3577DOPS   CNO41967  29.356  25.970  13.096 -0.4092 -0.2913  0.1241
 3577DOPS   PO441968  29.696  25.900  13.202 -0.2148 -0.0027 -0.2552
 3577DOPS   GL141969  29.699  25.715  13.543 -0.0949  0.3367 -0.0572
 3577DOPS   GL241970  29.944  25.773  13.597 -0.2375 -0.3107 -0.0679
 3577DOPS   C1A41971  29.818  25.312  13.791  0.1533  0.2822 -0.2042
 3577DOPS   D2A41972  29.847  24.928  14.139  0.3277 -0.0515  0.3799
 3577DOPS   C3A41973  30.179  24.677  13.903 -0.3232  0.1194  0.0233
 3577DOPS   C4A41974  30.500  24.511  13.622  0.1160 -0.2995  0.1283
 3577DOPS   C1B41975  30.194  25.413  13.509 -0.0876 -0.1670  0.2942
 3577DOPS   D2B41976  30.452  25.217  13.843  0.0671 -0.0792 -0.0264
 3577DOPS   C3B41977  30.785  25.319  14.194  0.0755  0.0880  0.1931
 3577DOPS   C4B41978  31.194  25.418  14.384  0.2907 -0.2342  0.1550
 3578DOPS   CNO41979  32.513  30.506  12.552 -0.1591  0.0984  0.3229
 3578DOPS   PO441980  32.505  30.825  12.766 -0.0006  0.1569  0.0031
 3578DOPS   GL141981  32.384  30.917  13.142  0.0910  0.2157 -0.0500
 3578DOPS   GL241982  32.116  30.872  13.099  0.2488  0.1176  0.2324
 3578DOPS   C1A41983  32.192  31.328  13.170  0.0513 -0.2009 -0.0347
 3578DOPS   D2A41984  32.281  31.766  13.053  0.0336 -0.4115 -0.0408
 3578DOPS   C3A41985  32.120  32.126  13.365 -0.1693 -0.0810 -0.1738
 3578DOPS   C4A41986  31.879  32.558  13.386 -0.0703 -0.0187 -0.0334
 3578DOPS   C1B41987  31.857  31.042  13.456  0.0814  0.3179 -0.3436
 3578DOPS   D2B41988  31.652  31.320  13.740  0.0655  0.1775 -0.1127
 3578DOPS   C3B41989  31.487  31.271  14.168  0.0774  0.0962 -0.1125
 3578DOPS   C4B41990  31.114  31.385  14.398  0.0064 -0.1312 -0.0967
 3579DOPE   NH341991  22.623  34.425  12.998  0.1098 -0.0222 -0.2440
 3579DOPE   PO441992  22.645  34.347  13.332 -0.0828  0.0733  0.3222
 3579DOPE   GL141993  22.702  34.146  13.657  0.0396 -0.0347 -0.2396
 3579DOPE   GL241994  22.824  33.896  13.547 -0.0939 -0.1281  0.0401
 3579DOPE   C1A41995  22.975  34.165  13.991  0.3058  0.1519  0.1432
 3579DOPE   D2A41996  23.197  33.931  14.331  0.0306  0.1660  0.0263
 3579DOPE   C3A41997  23.470  33.707  14.657 -0.0956 -0.0512  0.0187
 3579DOPE   C4A41998  23.842  33.787  14.968  0.0505 -0.0735  0.1424
 3579DOPE   C1B41999  22.803  33.647  13.880 -0.0048 -0.2263  0.1251
 3579DOPE   D2B42000  22.802  33.539  14.412 -0.0562 -0.0132  0.0761
 3579DOPE   C3B42001  22.725  33.120  14.659 -0.2103 -0.3564 -0.3335
 3579DOPE   C4B42002  22.427  32.858  14.908 -0.3738  0.1307  0.1980
 3580DOPE   NH342003  27.327  29.492  13.483 -0.1276 -0.1692 -0.1435
 3580DOPE   PO442004  27.110  29.296  13.405  0.2289 -0.0376  0.0840
 3580DOPE   GL142005  27.460  29.019  13.391  0.2477 -0.0818  0.5484
 3580DOPE   GL242006  27.367  28.728  13.596 -0.0551 -0.0477 -0.2167
 3580DOPE   C1A42007  27.861  28.967  13.678  0.1479 -0.1827  0.0282
 3580DOPE   D2A42008  28.332  28.839  13.650 -0.3154 -0.0114 -0.1667
 3580DOPE   C3A42009  28.324  28.485  13.929  0.1395  0.0309  0.0491
 3580DOPE   C4A42010  28.477  28.240  14.314  0.3102 -0.0905  0.1087
 3580DOPE   C1B42011  27.815  28.486  13.559  0.4069  0.1207 -0.2196
 3580DOPE   D2B42012  28.054  28.107  13.705 -0.1591  0.2093  0.2777
 3580DOPE   C3B42013  28.112  27.917  14.118  0.4373 -0.1119  0.3354
 3580DOPE   C4B42014  28.204  27.910  14.557 -0.2471 -0.0244  0.0010
 3581POSM   NC342015   0.037  22.977  13.442 -0.1352  0.0616  0.0252
 3581POSM   PO442016  -0.188  23.307  13.404 -0.1604 -0.3303  0.0072
 3581POSM   AM142017  -0.100  23.316  13.721 -0.0792  0.1055  0.1524
 3581POSM   AM242018  -0.117  23.095  13.913 -0.0315 -0.1776  0.0556
 3581POSM   T1A42019  -0.001  23.553  14.104 -0.0846  0.0531 -0.0421
 3581POSM   C2A42020  -0.067  23.610  14.584  0.2393 -0.2134  0.3655
 3581POSM   C3A42021  -0.244  23.738  14.998  0.3724  0.2679 -0.0270
 3581POSM   C1B42022  -0.024  23.010  14.207  0.0944  0.1351 -0.0636
 3581POSM   D2B42023   0.086  22.782  14.582  0.2764 -0.0951 -0.0020
 3581POSM   C3B42024  -0.068  23.072  14.945  0.0421  0.1363 -0.0391
 3581POSM   C4B42025  -0.183  23.325  15.325  0.0360  0.1282 -0.0675
 3582DOPC   NC342026  30.674  27.492  13.499 -0.0111 -0.2469  0.4569
 3582DOPC   PO442027  30.748  27.102  13.523  0.0354  0.1196  0.1667
 3582DOPC   GL142028  31.153  26.988  13.534 -0.1174  0.0564 -0.2037
 3582DOPC   GL242029  31.296  26.980  13.799  0.1534  0.0996  0.0352
 3582DOPC   C1A42030  31.620  26.979  13.409 -0.0089 -0.0250  0.5616
 3582DOPC   D2A42031  32.006  27.157  13.651 -0.0568  0.0647 -0.1324
 3582DOPC   C3A42032  31.910  27.026  14.100 -0.1756 -0.0144  0.0044
 3582DOPC   C4A42033  31.950  26.976  14.593  0.0216  0.0715  0.1724
 3582DOPC   C1B42034  31.368  27.096  14.261  0.2003  0.1032 -0.0803
 3582DOPC   D2B42035  31.388  26.965  14.727 -0.0658 -0.0469 -0.1343
 3582DOPC   C3B42036  31.255  26.832  15.122 -0.1186 -0.2612  0.0244
 3582DOPC   C4B42037  31.359  26.435  15.341 -0.0715 -0.2409  0.1032
 3583DOPC   NC342038  27.040  29.004  13.884  0.4653 -0.0916  0.5093
 3583DOPC   PO442039  26.853  28.674  13.875 -0.2313 -0.3993  0.1006
 3583DOPC   GL142040  27.187  28.451  13.946 -0.1515 -0.2327 -0.0572
 3583DOPC   GL242041  27.362  28.587  14.100  0.0606 -0.0009  0.1549
 3583DOPC   C1A42042  27.047  28.178  14.258 -0.1022 -0.2217  0.2468
 3583DOPC   D2A42043  27.153  27.840  14.480 -0.1664 -0.2866 -0.1462
 3583DOPC   C3A42044  26.841  27.586  14.677 -0.0769  0.2309  0.4331
 3583DOPC   C4A42045  26.525  27.512  14.996 -0.2614  0.0772  0.2883
 3583DOPC   C1B42046  27.792  28.533  14.071  0.0099 -0.0551 -0.2726
 3583DOPC   D2B42047  28.056  28.470  14.429  0.0794  0.1954  0.2004
 3583DOPC   C3B42048  28.396  28.707  14.558 -0.2427  0.0517 -0.1221
 3583DOPC   C4B42049  28.471  28.938  14.951 -0.2747  0.0398  0.0030
 3584DOPE   NH342050  31.342  34.139  13.574 -0.0677  0.0704 -0.1079
 3584DOPE   PO442051  31.454  34.399  13.459 -0.3262 -0.1708 -0.0041
 3584DOPE   GL142052  31.659  34.645  13.814 -0.3687  0.0274  0.0497
 3584DOPE   GL242053  31.911  34.560  13.786 -0.2064  0.1650  0.1771
 3584DOPE   C1A42054  31.485  34.865  14.230  0.5952 -0.0993 -0.1689
 3584DOPE   D2A42055  31.431  35.277  14.473 -0.1274  0.1780  0.4068
 3584DOPE   C3A42056  31.118  35.257  14.832 -0.0556 -0.1728  0.4163
 3584DOPE   C4A42057  30.978  35.048  15.227  0.3291 -0.1758  0.3028
 3584DOPE   C1B42058  32.002  34.101  13.778 -0.0848 -0.0593 -0.2250
 3584DOPE   D2B42059  32.120  33.669  13.721  0.1708 -0.1350  0.2146
 3584DOPE   C3B42060  32.390  33.476  14.038  0.1084 -0.1076 -0.1309
 3584DOPE   C4B42061  32.364  33.694  14.493  0.0738  0.0312 -0.0477
 3585POSM   NC342062  32.364   0.383  12.439  0.0673 -0.1263 -0.2179
 3585POSM   PO442063  32.665   0.555  12.684  0.1154 -0.1520  0.0053
 3585POSM   AM142064  32.689   0.270  12.800 -0.2308  0.1537  0.1604
 3585POSM   AM242065  32.895   0.082  12.974  0.0812  0.3099  0.2126
 3585POSM   T1A42066  32.694  -0.223  12.596 -0.0686  0.2158  0.2297
 3585POSM   C2A42067  32.613  -0.686  12.684 -0.0142 -0.5491  0.0094
 3585POSM   C3A42068  32.274  -1.003  12.812  0.5208  0.3222 -0.2958
 3585POSM   C1B42069  33.084  -0.224  12.980 -0.0300 -0.1012 -0.0788
 3585POSM   D2B42070  33.077  -0.667  12.986 -0.0395 -0.2168 -0.0221
 3585POSM   C3B42071  33.223  -0.817  13.429  0.0488  0.0369 -0.1642
 3585POSM   C4B42072  33.373  -1.074  13.731  0.1792 -0.1274  0.0679
 3586DOPE   NH342073  29.840  27.983  13.207 -0.2049  0.1200  0.2341
 3586DOPE   PO442074  29.535  27.832  13.163 -0.1993 -0.1483 -0.3222
 3586DOPE   GL142075  29.325  28.143  13.429 -0.1291 -0.4359 -0.2892
 3586DOPE   GL242076  29.565  28.324  13.496 -0.0157 -0.1779 -0.1253
 3586DOPE   C1A42077  28.986  28.444  13.453 -0.0591 -0.1136  0.0269
 3586DOPE   D2A42078  28.999  28.806  13.640 -0.0711  0.0769 -0.0412
 3586DOPE   C3A42079  29.138  29.010  14.013  0.0917 -0.3332  0.2058
 3586DOPE   C4A42080  29.279  29.209  14.409  0.0141  0.2458 -0.0367
 3586DOPE   C1B42081  29.379  28.565  13.868  0.2448 -0.4187  0.1477
 3586DOPE   D2B42082  29.239  28.549  14.296  0.0139 -0.1638  0.0943
 3586DOPE   C3B42083  28.958  28.229  14.471 -0.3214 -0.2731  0.1148
 3586DOPE   C4B42084  28.886  28.011  14.890  0.0096 -0.1740 -0.1161
 3587DOPC   NC342085  30.787  27.853  13.110 -0.1522 -0.1961 -0.1701
 3587DOPC   PO442086  30.955  27.893  13.459  0.0542  0.1221  0.5085
 3587DOPC   GL142087  30.942  28.144  13.728  0.2060  0.1213 -0.0234
 3587DOPC   GL242088  30.813  27.984  13.938  0.3121 -0.2022 -0.0045
 3587DOPC   C1A42089  31.001  28.581  13.876  0.1515  0.0483 -0.0438
 3587DOPC   D2A42090  31.070  29.019  13.954  0.1214 -0.0612  0.0622
 3587DOPC   C3A42091  30.888  29.169  14.319  0.0713  0.3681 -0.0475
 3587DOPC   C4A42092  30.769  29.532  14.564 -0.1028 -0.0831 -0.1377
 3587DOPC   C1B42093  30.907  28.139  14.370 -0.1325 -0.0831 -0.0384
 3587DOPC   D2B42094  30.798  28.343  14.744 -0.0305 -0.0981  0.1464
 3587DOPC   C3B42095  30.392  28.426  14.869  0.1162  0.0736 -0.0619
 3587DOPC   C4B42096  29.966  28.435  15.056  0.0565 -0.2395  0.1358
 3588DOPS   CNO42097  26.350  23.972  12.841 -0.0057 -0.0878  0.1935
 3588DOPS   PO442098  26.138  23.679  12.948  0.1673 -0.0233 -0.2821
 3588DOPS   GL142099  25.897  24.023  12.999  0.0902  0.0540  0.0195
 3588DOPS   GL242100  25.726  24.018  13.268 -0.1996  0.1268 -0.0759
 3588DOPS   C1A42101  25.532  24.046  12.712  0.3618 -0.1166 -0.0395
 3588DOPS   D2A42102  25.171  24.395  12.817  0.0950 -0.0283  0.1503
 3588DOPS   C3A42103  25.029  24.628  13.177  0.2037  0.1553 -0.0718
 3588DOPS   C4A42104  24.851  25.027  13.195 -0.0793 -0.0782 -0.2747
 3588DOPS   C1B42105  25.793  24.278  13.649  0.0403 -0.2271  0.3725
 3588DOPS   D2B42106  25.829  24.522  14.026  0.1765 -0.1339 -0.0312
 3588DOPS   C3B42107  26.262  24.704  14.263  0.0412 -0.1046  0.0699
 3588DOPS   C4B42108  26.539  25.023  13.984  0.0762 -0.1394  0.0317
 3589DOPE   NH342109  27.469  31.125  13.771 -0.1487 -0.0384 -0.0099
 3589DOPE   PO442110  27.666  31.364  13.627 -0.0597  0.0561  0.1644
 3589DOPE   GL142111  27.687  31.685  13.775  0.2411  0.1253 -0.0502
 3589DOPE   GL242112  28.011  31.715  13.830  0.1919 -0.1417 -0.1211
 3589DOPE   C1A42113  27.532  32.113  13.646 -0.1281  0.0037 -0.2362
 3589DOPE   D2A42114  27.085  32.265  13.620 -0.2967 -0.1958  0.0107
 3589DOPE   C3A42115  26.763  32.095  13.942  0.0872  0.0735  0.0647
 3589DOPE   C4A42116  26.523  31.753  14.170  0.1026 -0.0839  0.0067
 3589DOPE   C1B42117  27.947  32.170  13.900  0.2504 -0.4577  0.1118
 3589DOPE   D2B42118  28.003  32.452  14.198 -0.2150  0.1642  0.1593
 3589DOPE   C3B42119  27.655  32.714  14.411  0.3195 -0.1201 -0.1477
 3589DOPE   C4B42120  27.540  33.122  14.671 -0.3285 -0.3136  0.5778
 3590DOPE   NH342121  26.800  28.013  13.741  0.0224  0.0203 -0.1532
 3590DOPE   PO442122  26.515  27.956  13.717 -0.0098  0.1156 -0.0451
 3590DOPE   GL142123  26.495  27.730  13.966 -0.4502  0.2597 -0.2475
 3590DOPE   GL242124  26.733  27.814  14.194  0.0653  0.0978  0.1109
 3590DOPE   C1A42125  26.776  27.338  14.094  0.0907  0.2119  0.0665
 3590DOPE   D2A42126  27.038  27.033  14.349 -0.3176  0.0051  0.0252
 3590DOPE   C3A42127  27.269  27.354  14.567 -0.1876 -0.1043 -0.1891
 3590DOPE   C4A42128  27.276  27.658  14.912 -0.1335 -0.2180 -0.0897
 3590DOPE   C1B42129  26.405  27.574  14.382 -0.0537  0.1938  0.0322
 3590DOPE   D2B42130  26.055  27.194  14.426 -0.4165  0.1108  0.1542
 3590DOPE   C3B42131  25.625  26.974  14.432  0.1435  0.1978  0.0657
 3590DOPE   C4B42132  25.229  26.822  14.620 -0.2512  0.1273 -0.1740
 3591DOPS   CNO42133  33.332   0.464  12.873 -0.3475 -0.3869  0.0003
 3591DOPS   PO442134  33.348   0.270  13.204 -0.1678  0.4039  0.3121
 3591DOPS   GL142135  33.372   0.125  13.584  0.1702  0.1784 -0.0576
 3591DOPS   GL242136  33.245   0.310  13.780 -0.0744  0.0274 -0.0381
 3591DOPS   C1A42137  33.508  -0.312  13.652 -0.4107 -0.0959 -0.2308
 3591DOPS   D2A42138  33.552  -0.573  14.047 -0.0201  0.0405  0.1112
 3591DOPS   C3A42139  33.829  -0.347  14.347  0.0062  0.0954  0.1991
 3591DOPS   C4A42140  34.051  -0.193  14.723 -0.0869  0.0650  0.2853
 3591DOPS   C1B42141  33.646   0.116  13.974  0.1366 -0.0121 -0.2042
 3591DOPS   D2B42142  34.106   0.074  14.057  0.0418 -0.0244 -0.1097
 3591DOPS   C3B42143  34.254  -0.352  13.989  0.0596 -0.1185 -0.0582
 3591DOPS   C4B42144  34.568  -0.692  13.899 -0.0364  0.0836 -0.1640
 3592DOPE   NH342145   0.049  25.689  13.085 -0.1379 -0.1662  0.1799
 3592DOPE   PO442146  -0.137  25.660  13.348 -0.1366  0.2549 -0.2083
 3592DOPE   GL142147  -0.191  25.580  13.770 -0.1889  0.2181 -0.2237
 3592DOPE   GL242148   0.056  25.379  13.802 -0.1684 -0.1410  0.0233
 3592DOPE   C1A42149   0.100  25.792  14.103  0.2355  0.3931  0.0987
 3592DOPE   D2A42150  -0.050  26.019  14.541  0.2074  0.2573 -0.1210
 3592DOPE   C3A42151   0.121  26.345  14.773  0.1552  0.3710 -0.1685
 3592DOPE   C4A42152   0.219  26.418  15.258  0.0433  0.2263  0.3210
 3592DOPE   C1B42153   0.252  24.932  13.920 -0.0616  0.1572  0.1093
 3592DOPE   D2B42154   0.371  24.555  14.159 -0.1773 -0.0312  0.1609
 3592DOPE   C3B42155   0.751  24.759  14.393 -0.1461 -0.1955  0.0935
 3592DOPE   C4B42156   1.153  24.682  14.643  0.2312 -0.1568 -0.1152
 3593DOPS   CNO42157  28.285  23.159  13.425  0.0765  0.0658 -0.3469
 3593DOPS   PO442158  28.379  23.404  13.707  0.0595 -0.0880  0.2385
 3593DOPS   GL142159  28.469  23.433  14.088 -0.0539 -0.0653  0.4414
 3593DOPS   GL242160  28.783  23.411  14.220 -0.1476 -0.0424  0.2534
 3593DOPS   C1A42161  28.432  23.794  14.350 -0.0673  0.2787 -0.2142
 3593DOPS   D2A42162  28.084  24.091  14.426  0.1438 -0.0132 -0.1233
 3593DOPS   C3A42163  27.917  24.270  14.835 -0.0329  0.0728 -0.1224
 3593DOPS   C4A42164  27.676  24.341  15.229 -0.4674 -0.1981 -0.1659
 3593DOPS   C1B42165  29.150  23.627  14.380  0.1083  0.0751  0.0206
 3593DOPS   D2B42166  29.490  23.966  14.229 -0.4037  0.2426 -0.0274
 3593DOPS   C3B42167  29.782  24.219  14.519 -0.0657  0.1593 -0.1041
 3593DOPS   C4B42168  29.654  24.371  14.953  0.1686 -0.1870  0.3323
 3594DOPS   CNO42169  33.761  23.345  13.132  0.0580  0.0609  0.1098
 3594DOPS   PO442170  34.069  23.530  13.247  0.0635  0.3327  0.0095
 3594DOPS   GL142171  34.282  23.753  13.504 -0.0882  0.1832  0.4061
 3594DOPS   GL242172  34.205  23.990  13.604  0.2401  0.0287 -0.4389
 3594DOPS   C1A42173  34.695  23.787  13.677 -0.0436 -0.0606 -0.1252
 3594DOPS   D2A42174  34.990  24.022  13.959 -0.1220 -0.0483  0.1507
 3594DOPS   C3A42175  35.014  23.785  14.357 -0.2202  0.0713  0.1940
 3594DOPS   C4A42176  35.008  23.844  14.790  0.0335  0.2597  0.0827
 3594DOPS   C1B42177  34.487  24.174  13.932  0.1135  0.1205 -0.0928
 3594DOPS   D2B42178  34.714  24.236  14.337 -0.1728  0.1573  0.1847
 3594DOPS   C3B42179  34.579  24.158  14.731 -0.1329  0.2233 -0.2051
 3594DOPS   C4B42180  34.121  24.139  14.849 -0.2069 -0.0613 -0.3207
 3595DOPC   NC342181  28.366  24.218  12.992 -0.1144 -0.0240  0.0388
 3595DOPC   PO442182  28.209  24.487  13.281  0.2301 -0.3097  0.3394
 3595DOPC   GL142183  27.811  24.288  13.338 -0.4536 -0.1003  0.0374
 3595DOPC   GL242184  27.788  24.162  13.588 -0.0932  0.0560 -0.1217
 3595DOPC   C1A42185  27.559  23.916  13.159  0.1963 -0.3105 -0.0242
 3595DOPC   D2A42186  27.386  23.447  13.243 -0.1375  0.2150 -0.1171
 3595DOPC   C3A42187  27.072  23.174  13.058 -0.0003  0.1162 -0.3030
 3595DOPC   C4A42188  26.860  22.909  12.670 -0.2827  0.1097 -0.2493
 3595DOPC   C1B42189  27.582  24.160  14.011  0.1035  0.0194 -0.0048
 3595DOPC   D2B42190  27.442  24.242  14.373  0.0940  0.3342 -0.2087
 3595DOPC   C3B42191  27.207  24.023  14.654  0.0670  0.0297  0.0741
 3595DOPC   C4B42192  27.176  24.108  15.105 -0.1119 -0.2914 -0.1518
 3596DOPC   NC342193  33.315  29.772  13.379  0.3202 -0.1437 -0.0894
 3596DOPC   PO442194  33.357  30.146  13.165 -0.0272 -0.0575 -0.0561
 3596DOPC   GL142195  33.071  30.222  13.484  0.3328  0.0893  0.0814
 3596DOPC   GL242196  32.987  29.964  13.727 -0.0591  0.0101  0.0050
 3596DOPC   C1A42197  33.136  30.449  13.897 -0.1647 -0.2648 -0.2789
 3596DOPC   D2A42198  32.799  30.434  14.296 -0.2050 -0.0173 -0.3060
 3596DOPC   C3A42199  32.363  30.406  14.254 -0.1490 -0.3553 -0.1353
 3596DOPC   C4A42200  31.990  30.147  14.282  0.1982  0.3473 -0.0759
 3596DOPC   C1B42201  32.776  29.933  14.125 -0.0036 -0.5141 -0.0068
 3596DOPC   D2B42202  32.370  29.873  14.198 -0.1987 -0.1734  0.2352
 3596DOPC   C3B42203  32.262  29.638  14.551 -0.1060  0.2353 -0.0370
 3596DOPC   C4B42204  32.218  29.585  14.970 -0.1443 -0.0121 -0.3013
 3597DOPE   NH342205  30.427  26.510  13.833 -0.0554 -0.0420 -0.0719
 3597DOPE   PO442206  30.290  26.593  14.112 -0.1287 -0.0331 -0.0465
 3597DOPE   GL142207  30.137  26.327  14.401 -0.2011  0.0661  0.2424
 3597DOPE   GL242208  29.839  26.293  14.355  0.0658 -0.2705  0.1693
 3597DOPE   C1A42209  30.159  25.912  14.627  0.0393  0.2507  0.2013
 3597DOPE   D2A42210  30.310  25.770  15.010  0.0980 -0.0664  0.2730
 3597DOPE   C3A42211  30.365  26.104  15.309  0.0649 -0.1975  0.2209
 3597DOPE   C4A42212  30.370  26.343  15.702  0.0084  0.1550 -0.0811
 3597DOPE   C1B42213  29.817  26.566  14.730 -0.2711  0.1612 -0.0843
 3597DOPE   D2B42214  29.750  26.682  15.209  0.0781  0.0379  0.1534
 3597DOPE   C3B42215  29.867  26.404  15.514  0.0381 -0.0669 -0.3004
 3597DOPE   C4B42216  29.798  26.511  15.947 -0.1046 -0.1859  0.0512
 3598DOPC   NC342217  32.426  34.441  13.029 -0.1188  0.0909 -0.1275
 3598DOPC   PO442218  32.420  34.818  13.167  0.0013  0.0675  0.0218
 3598DOPC   GL142219  32.731  34.701  13.486  0.0814  0.1638  0.0648
 3598DOPC   GL242220  33.013  34.571  13.413 -0.0328  0.3346 -0.0415
 3598DOPC   C1A42221  32.835  34.764  13.962 -0.5083 -0.2182 -0.1210
 3598DOPC   D2A42222  32.723  34.911  14.355 -0.1039  0.1086 -0.1095
 3598DOPC   C3A42223  32.685  35.266  14.628 -0.0754  0.0361  0.0853
 3598DOPC   C4A42224  32.475  35.535  14.947  0.0027  0.2074 -0.1192
 3598DOPC   C1B42225  32.771  34.213  13.476  0.0703 -0.1699 -0.1236
 3598DOPC   D2B42226  32.725  33.767  13.613  0.1685 -0.3182  0.1346
 3598DOPC   C3B42227  32.782  33.570  13.151 -0.0245 -0.1237 -0.0937
 3598DOPC   C4B42228  32.914  33.578  12.692 -0.0706  0.0596  0.0827
 3599POSM   NC342229  29.338  24.874  13.837  0.2145 -0.1667 -0.0701
 3599POSM   PO442230  29.153  25.211  13.663  0.1765 -0.1350  0.0935
 3599POSM   AM142231  29.147  25.309  13.986  0.2789  0.3605  0.2987
 3599POSM   AM242232  29.343  25.385  14.140 -0.0636  0.0833 -0.0211
 3599POSM   T1A42233  28.930  25.445  14.404  0.0723 -0.1854  0.3081
 3599POSM   C2A42234  28.730  25.253  14.777  0.0883  0.3070 -0.1460
 3599POSM   C3A42235  28.815  25.012  15.160  0.0959  0.1000 -0.0917
 3599POSM   C1B42236  29.460  25.193  14.356 -0.0709  0.0504  0.3145
 3599POSM   D2B42237  29.783  25.101  14.711  0.0458 -0.0459 -0.1766
 3599POSM   C3B42238  30.018  24.731  14.768 -0.1006  0.2613  0.0928
 3599POSM   C4B42239  30.198  24.282  14.858  0.1595  0.0796 -0.2919
 3600DOPC   NC342240  27.680  31.215  13.145 -0.2222  0.1326 -0.4441
 3600DOPC   PO442241  27.397  31.007  13.280  0.2229  0.3200  0.1797
 3600DOPC   GL142242  27.245  31.303  13.222  0.1439 -0.2312  0.2241
 3600DOPC   GL242243  27.276  31.511  13.355 -0.0138  0.1020  0.1418
 3600DOPC   C1A42244  26.783  31.323  13.181  0.0477 -0.4031  0.0854
 3600DOPC   D2A42245  26.474  31.487  13.459 -0.1240  0.0878 -0.3281
 3600DOPC   C3A42246  26.004  31.326  13.337 -0.1959 -0.1134 -0.0030
 3600DOPC   C4A42247  25.682  31.119  13.282 -0.2167  0.0786 -0.4469
 3600DOPC   C1B42248  26.953  31.810  13.430 -0.1600 -0.2349  0.3063
 3600DOPC   D2B42249  26.531  32.006  13.357 -0.2496 -0.0278  0.1642
 3600DOPC   C3B42250  26.110  31.843  13.569 -0.1247  0.0691  0.0530
 3600DOPC   C4B42251  25.719  31.611  13.692  0.2819 -0.0515 -0.1486
 3601DOPC   NC342252  29.397  31.293  14.019  0.0612  0.0314 -0.2669
 3601DOPC   PO442253  29.479  31.511  13.759  0.0727 -0.0081  0.3699
 3601DOPC   GL142254  29.414  31.757  14.045  0.0514  0.0011 -0.1705
 3601DOPC   GL242255  29.681  31.832  14.099  0.1397 -0.0571 -0.2452
 3601DOPC   C1A42256  29.425  31.948  14.468 -0.3503 -0.2858 -0.0492
 3601DOPC   D2A42257  29.663  31.927  14.911 -0.0622  0.2079 -0.2653
 3601DOPC   C3A42258  29.569  31.623  15.229  0.1116 -0.0890 -0.0650
 3601DOPC   C4A42259  29.626  31.568  15.661  0.1000 -0.3125 -0.0053
 3601DOPC   C1B42260  29.618  31.524  14.495 -0.0290  0.0548 -0.1428
 3601DOPC   D2B42261  29.662  31.233  14.853 -0.1155 -0.0664 -0.1542
 3601DOPC   C3B42262  30.002  31.157  15.158  0.0676  0.1787 -0.1655
 3601DOPC   C4B42263  30.477  31.170  15.115 -0.1718  0.1549  0.0847
 3602DOPE   NH342264  26.382  33.876  13.604 -0.0548  0.0772 -0.2051
 3602DOPE   PO442265  26.419  33.772  13.294  0.1520  0.0819 -0.0970
 3602DOPE   GL142266  26.432  33.376  13.441 -0.0077  0.1857 -0.2411
 3602DOPE   GL242267  26.230  33.421  13.721 -0.2324  0.0313 -0.0840
 3602DOPE   C1A42268  26.703  33.027  13.513  0.0811  0.0554  0.1256
 3602DOPE   D2A42269  27.062  32.852  13.772  0.0667 -0.1919 -0.1213
 3602DOPE   C3A42270  27.100  32.585  14.178  0.1598 -0.1607 -0.3366
 3602DOPE   C4A42271  27.027  32.220  14.382  0.0309 -0.3003  0.0251
 3602DOPE   C1B42272  26.260  32.999  13.791  0.2275 -0.0477 -0.0130
 3602DOPE   D2B42273  26.186  32.764  14.191 -0.1218 -0.4006  0.0863
 3602DOPE   C3B42274  26.599  32.611  14.346  0.2952  0.3053  0.2525
 3602DOPE   C4B42275  26.805  32.464  14.751 -0.0088 -0.0407 -0.1167
 3603DOPE   NH342276  25.941  33.744  13.353 -0.3075 -0.0864 -0.1934
 3603DOPE   PO442277  25.817  33.705  13.054  0.0270 -0.0407  0.3628
 3603DOPE   GL142278  25.425  33.719  13.310 -0.1367  0.1114  0.0725
 3603DOPE   GL242279  25.359  33.932  13.184  0.1317 -0.0105 -0.0045
 3603DOPE   C1A42280  25.551  33.528  13.697 -0.0446 -0.0865  0.0492
 3603DOPE   D2A42281  25.714  33.158  13.952 -0.0468 -0.0116  0.2549
 3603DOPE   C3A42282  25.540  32.789  13.993 -0.1576 -0.1858 -0.3766
 3603DOPE   C4A42283  25.305  32.549  13.704 -0.3840  0.0100 -0.2068
 3603DOPE   C1B42284  25.120  34.318  13.435  0.0618  0.1375  0.0737
 3603DOPE   D2B42285  25.107  34.804  13.406  0.1641  0.2169  0.0319
 3603DOPE   C3B42286  24.846  35.028  13.722 -0.4083 -0.1116 -0.1249
 3603DOPE   C4B42287  24.600  34.884  14.142 -0.1407 -0.0547  0.1388
 3604DOPC   NC342288  23.272  29.785  13.946 -0.0752  0.2297 -0.1732
 3604DOPC   PO442289  22.957  29.673  13.701  0.5271  0.0354 -0.0081
 3604DOPC   GL142290  22.957  29.517  14.126 -0.1893  0.2003 -0.0046
 3604DOPC   GL242291  22.870  29.227  14.223  0.0805  0.1831 -0.3053
 3604DOPC   C1A42292  23.087  29.841  14.432  0.3623  0.2387 -0.1190
 3604DOPC   D2A42293  23.493  29.888  14.677 -0.0419 -0.1507 -0.1018
 3604DOPC   C3A42294  23.887  30.182  14.745 -0.1148 -0.1480 -0.1050
 3604DOPC   C4A42295  24.278  30.352  14.730  0.2276  0.0422  0.2989
 3604DOPC   C1B42296  23.316  29.205  14.156 -0.1470  0.0634 -0.0945
 3604DOPC   D2B42297  23.711  29.047  13.969 -0.1774  0.0881 -0.1419
 3604DOPC   C3B42298  24.166  29.356  13.924  0.1987 -0.0996 -0.4606
 3604DOPC   C4B42299  24.562  29.309  14.092 -0.1196 -0.0602  0.0955
 3605DOPE   NH342300  32.846  29.460  13.144  0.2009  0.0754  0.1600
 3605DOPE   PO442301  32.808  29.626  13.427  0.3855  0.1570 -0.1701
 3605DOPE   GL142302  32.970  29.449  13.691 -0.1033  0.0961 -0.0531
 3605DOPE   GL242303  32.887  29.193  13.789 -0.2696 -0.0411 -0.1611
 3605DOPE   C1A42304  33.157  29.623  14.045  0.2126 -0.1124 -0.1098
 3605DOPE   D2A42305  33.448  29.535  14.333 -0.3106 -0.2205 -0.0958
 3605DOPE   C3A42306  33.611  29.926  14.619 -0.0778  0.2133  0.1007
 3605DOPE   C4A42307  33.623  30.403  14.601  0.0056  0.3148 -0.1222
 3605DOPE   C1B42308  33.244  29.106  14.049  0.3496 -0.1778  0.0797
 3605DOPE   D2B42309  33.531  29.063  14.455  0.0821  0.0321  0.3584
 3605DOPE   C3B42310  33.842  29.412  14.591 -0.1687  0.1511  0.0820
 3605DOPE   C4B42311  34.052  29.690  14.858 -0.0258  0.0171 -0.3020
 3606DOPS   CNO42312  29.915  33.695  13.030  0.0630  0.1309  0.3031
 3606DOPS   PO442313  29.649  33.752  13.289  0.1023 -0.0979 -0.2443
 3606DOPS   GL142314  29.780  33.620  13.601  0.3057  0.1579  0.5801
 3606DOPS   GL242315  29.640  33.646  13.817 -0.2522  0.1139 -0.1711
 3606DOPS   C1A42316  29.817  33.163  13.659 -0.1729  0.1351  0.0343
 3606DOPS   D2A42317  30.180  32.923  13.436  0.0351  0.1967  0.1651
 3606DOPS   C3A42318  30.106  32.568  13.673 -0.0541 -0.1091  0.0506
 3606DOPS   C4A42319  30.240  32.443  14.093 -0.0111  0.2645  0.3248
 3606DOPS   C1B42320  29.775  33.388  14.145  0.0716 -0.1342 -0.1363
 3606DOPS   D2B42321  29.914  33.254  14.605  0.1833  0.1015 -0.0045
 3606DOPS   C3B42322  30.337  33.030  14.645  0.0222  0.1089 -0.0013
 3606DOPS   C4B42323  30.467  32.591  14.657  0.1242  0.2632 -0.3783
 3607DOPC   NC342324  27.568   0.027  13.527 -0.0274  0.1046 -0.0663
 3607DOPC   PO442325  27.748  -0.314  13.410 -0.2355  0.0780  0.2114
 3607DOPC   GL142326  27.496  -0.498  13.658 -0.6081 -0.1562 -0.1517
 3607DOPC   GL242327  27.419  -0.292  13.858  0.1278 -0.1331  0.2748
 3607DOPC   C1A42328  27.630  -0.874  13.926 -0.0369  0.0115  0.1038
 3607DOPC   D2A42329  27.573  -1.233  14.189 -0.1253  0.2472  0.0320
 3607DOPC   C3A42330  27.572  -1.653  13.991 -0.4690 -0.0571 -0.2620
 3607DOPC   C4A42331  27.511  -2.074  13.860  0.1198  0.1643  0.1061
 3607DOPC   C1B42332  27.280  -0.559  14.106 -0.0991 -0.1009 -0.1650
 3607DOPC   D2B42333  27.156  -0.432  14.516  0.2118 -0.1033  0.5770
 3607DOPC   C3B42334  26.821  -0.753  14.618 -0.0644 -0.3247  0.1010
 3607DOPC   C4B42335  26.665  -1.207  14.777 -0.2841  0.2439  0.2938
 3608POSM   NC342336  32.359  29.710  12.966  0.2373  0.2044  0.4003
 3608POSM   PO442337  32.307  29.524  13.273  0.1713  0.1678 -0.2168
 3608POSM   AM142338  32.035  29.514  13.460 -0.0730 -0.1192 -0.1152
 3608POSM   AM242339  31.918  29.483  13.722  0.1503  0.2194  0.0883
 3608POSM   T1A42340  31.628  29.792  13.342 -0.2146 -0.0947 -0.2219
 3608POSM   C2A42341  31.225  30.022  13.407 -0.0957  0.0165 -0.3136
 3608POSM   C3A42342  30.898  30.016  13.743  0.6066  0.0948  0.1552
 3608POSM   C1B42343  31.903  29.672  13.998 -0.2278 -0.1187 -0.1360
 3608POSM   D2B42344  31.598  29.846  14.296 -0.1294  0.1789 -0.0571
 3608POSM   C3B42345  31.331  29.763  14.683  0.2136 -0.1631  0.2348
 3608POSM   C4B42346  31.272  30.101  14.977 -0.0350  0.0753  0.2509
 3609DOPC   NC342347  26.829  29.815  13.439  0.1082 -0.1185  0.0857
 3609DOPC   PO442348  26.650  29.501  13.305  0.1523 -0.1270 -0.2161
 3609DOPC   GL142349  26.301  29.699  13.382 -0.1463  0.0277 -0.2177
 3609DOPC   GL242350  26.186  29.665  13.131 -0.0694 -0.4156 -0.2776
 3609DOPC   C1A42351  26.075  30.083  13.276 -0.0912  0.1057 -0.0890
 3609DOPC   D2A42352  25.871  30.395  13.467  0.2619  0.1551 -0.0779
 3609DOPC   C3A42353  25.496  30.633  13.419  0.0680 -0.2929 -0.0132
 3609DOPC   C4A42354  25.027  30.638  13.429 -0.1077 -0.1640  0.0723
 3609DOPC   C1B42355  25.708  29.564  13.084 -0.0346  0.2460 -0.0860
 3609DOPC   D2B42356  25.261  29.479  12.976  0.0499  0.0748 -0.3092
 3609DOPC   C3B42357  25.078  29.894  12.911  0.1921 -0.0382  0.0437
 3609DOPC   C4B42358  25.243  30.252  13.173  0.2299 -0.0148  0.0035
 3610POSM   NC342359  28.400  30.256  14.415 -0.1321  0.3030  0.1572
 3610POSM   PO442360  28.406  30.603  14.239  0.4618  0.0436  0.2286
 3610POSM   AM142361  28.604  30.711  14.479 -0.0792 -0.2129 -0.0272
 3610POSM   AM242362  28.844  30.843  14.560  0.2881  0.2368  0.0768
 3610POSM   T1A42363  28.522  30.811  14.975 -0.0348  0.1120 -0.2562
 3610POSM   C2A42364  28.848  30.962  15.253 -0.2361 -0.4952 -0.1683
 3610POSM   C3A42365  29.197  30.811  15.598  0.0851  0.1921 -0.0959
 3610POSM   C1B42366  28.984  31.058  14.825  0.0479 -0.1023  0.0881
 3610POSM   D2B42367  29.150  31.372  15.098  0.3353  0.2459 -0.2172
 3610POSM   C3B42368  29.503  31.102  15.310 -0.0120  0.2254 -0.3635
 3610POSM   C4B42369  29.647  30.989  15.726 -0.1190  0.2070 -0.1201
 3611DOPE   NH342370  26.697  28.986  13.494  0.1432  0.0009  0.1196
 3611DOPE   PO442371  26.624  29.241  13.695 -0.0323 -0.0937  0.1703
 3611DOPE   GL142372  26.411  29.301  14.069  0.3364 -0.0111  0.3912
 3611DOPE   GL242373  26.667  29.347  14.240 -0.0930  0.1487 -0.0606
 3611DOPE   C1A42374  26.318  29.666  14.311 -0.2891 -0.1642  0.0957
 3611DOPE   D2A42375  26.092  30.019  14.494  0.1993  0.1985 -0.1811
 3611DOPE   C3A42376  25.675  29.975  14.602 -0.1446 -0.0478  0.0718
 3611DOPE   C4A42377  25.235  29.878  14.811  0.0686  0.0862  0.1575
 3611DOPE   C1B42378  26.355  29.286  14.600 -0.1241  0.1677 -0.0984
 3611DOPE   D2B42379  26.121  29.342  15.034 -0.1853 -0.1632  0.2687
 3611DOPE   C3B42380  25.948  29.724  15.089 -0.1238  0.0411 -0.1670
 3611DOPE   C4B42381  25.603  30.078  15.069 -0.1815  0.0659  0.0238
 3612DOPE   NH342382  32.401  29.564  13.783  0.3775  0.1683  0.1407
 3612DOPE   PO442383  32.402  29.268  13.766  0.0680  0.1135 -0.0921
 3612DOPE   GL142384  32.393  29.149  14.079 -0.0978  0.0957  0.2611
 3612DOPE   GL242385  32.516  29.235  14.323 -0.0093 -0.0778 -0.3678
 3612DOPE   C1A42386  32.724  28.844  14.135  0.1138 -0.0034 -0.0419
 3612DOPE   D2A42387  33.140  28.775  14.327  0.0155  0.0562  0.0613
 3612DOPE   C3A42388  33.253  28.711  14.770 -0.0865 -0.3147 -0.1814
 3612DOPE   C4A42389  33.570  28.480  14.988 -0.1326 -0.1694 -0.4247
 3612DOPE   C1B42390  32.266  29.155  14.729  0.0253  0.1460  0.2788
 3612DOPE   D2B42391  31.979  29.074  15.053  0.1366  0.0040  0.2025
 3612DOPE   C3B42392  31.769  29.394  15.111  0.0258 -0.1359  0.0097
 3612DOPE   C4B42393  31.598  29.772  15.337  0.0083  0.1417  0.2211
 3613DOPS   CNO42394  31.233  23.687  13.616  0.1686  0.2210  0.1778
 3613DOPS   PO442395  31.072  24.034  13.552 -0.2385 -0.0314  0.0381
 3613DOPS   GL142396  30.824  23.764  13.804 -0.0422 -0.2056  0.0401
 3613DOPS   GL242397  30.830  23.886  14.036 -0.2287  0.0627 -0.0360
 3613DOPS   C1A42398  30.558  23.392  13.745  0.1005  0.1430 -0.1834
 3613DOPS   D2A42399  30.141  23.194  13.645 -0.0217  0.0710  0.1171
 3613DOPS   C3A42400  30.301  22.832  13.851 -0.1968 -0.3432  0.0441
 3613DOPS   C4A42401  30.696  22.710  14.143  0.0275 -0.2922  0.1821
 3613DOPS   C1B42402  30.819  23.463  14.200 -0.1051 -0.2151 -0.0379
 3613DOPS   D2B42403  30.476  23.183  14.280 -0.3288 -0.0238 -0.3064
 3613DOPS   C3B42404  30.528  22.801  14.605 -0.0355  0.0006  0.0804
 3613DOPS   C4B42405  30.584  22.531  14.965 -0.0391 -0.0883  0.1159
 3614DOPE   NH342406  25.358  23.084  13.467  0.2811 -0.1161  0.0041
 3614DOPE   PO442407  25.331  23.127  13.199  0.2510  0.2046 -0.0763
 3614DOPE   GL142408  25.014  23.352  13.246  0.4105 -0.0463 -0.2237
 3614DOPE   GL242409  24.805  23.397  13.002  0.2798  0.0601  0.0533
 3614DOPE   C1A42410  24.804  23.718  13.535 -0.0012 -0.2195 -0.1211
 3614DOPE   D2A42411  24.792  24.203  13.454  0.3666  0.1103  0.2612
 3614DOPE   C3A42412  24.812  24.493  13.820  0.1109 -0.0105 -0.2481
 3614DOPE   C4A42413  25.034  24.921  13.711 -0.0301  0.2293  0.1518
 3614DOPE   C1B42414  24.914  23.873  13.043 -0.0209 -0.0323 -0.1043
 3614DOPE   D2B42415  25.250  24.164  13.214  0.1297  0.0601 -0.0130
 3614DOPE   C3B42416  25.381  24.572  13.490 -0.1344 -0.3906  0.3441
 3614DOPE   C4B42417  25.629  24.990  13.679  0.0135  0.0738  0.0792
 3615DOPE   NH342418  33.280  23.945  13.548  0.2202  0.0374  0.0960
 3615DOPE   PO442419  33.372  24.224  13.651  0.0578 -0.0347  0.1167
 3615DOPE   GL142420  33.218  24.173  13.959 -0.0836  0.2013  0.1179
 3615DOPE   GL242421  33.256  24.474  14.122  0.2762  0.0094  0.0478
 3615DOPE   C1A42422  33.373  24.005  14.347  0.4389  0.4189 -0.1263
 3615DOPE   D2A42423  33.783  24.031  14.512 -0.1656 -0.0487 -0.0910
 3615DOPE   C3A42424  33.971  23.686  14.647  0.1015  0.1087  0.1031
 3615DOPE   C4A42425  34.111  23.329  14.994  0.0239  0.2065  0.0421
 3615DOPE   C1B42426  33.113  24.461  14.571  0.1219  0.1104  0.1990
 3615DOPE   D2B42427  32.840  24.383  14.969 -0.3453  0.0269  0.0275
 3615DOPE   C3B42428  32.542  24.029  15.138  0.2675 -0.0900  0.0593
 3615DOPE   C4B42429  32.342  23.688  15.436  0.0356  0.2670 -0.1113
 3616POSM   NC342430   0.054  33.622  12.841 -0.2754  0.2881 -0.3050
 3616POSM   PO442431  -0.157  33.774  12.563  0.2052  0.1357  0.1938
 3616POSM   AM142432  -0.427  33.913  12.517 -0.0128  0.0231 -0.0405
 3616POSM   AM242433  -0.706  33.904  12.652 -0.4247  0.0608 -0.3425
 3616POSM   T1A42434  -0.757  34.291  12.381  0.0686 -0.2525  0.3851
 3616POSM   C2A42435  -1.097  34.655  12.369 -0.1227  0.0742  0.0044
 3616POSM   C3A42436  -1.534  34.733  12.449 -0.1038  0.0368  0.2075
 3616POSM   C1B42437  -0.952  33.735  12.567  0.0120  0.3949  0.2686
 3616POSM   D2B42438  -1.238  33.332  12.543  0.1156  0.1200  0.0699
 3616POSM   C3B42439  -1.622  33.115  12.767  0.1564  0.2477  0.2682
 3616POSM   C4B42440  -1.825  33.066  13.083 -0.0255  0.0746 -0.2201
 3617DOPC   NC342441  33.344  31.278  12.521 -0.2645  0.1269 -0.0904
 3617DOPC   PO442442  33.570  31.026  12.774 -0.0461  0.2095  0.1204
 3617DOPC   GL142443  33.847  31.324  12.835 -0.0209 -0.3322 -0.2199
 3617DOPC   GL242444  33.751  31.359  13.149  0.4882  0.0354  0.3710
 3617DOPC   C1A42445  33.710  31.762  12.775  0.2120 -0.0460 -0.3350
 3617DOPC   D2A42446  33.374  31.833  13.093 -0.1264  0.4426 -0.1321
 3617DOPC   C3A42447  33.445  31.776  13.562 -0.1553  0.0565  0.0354
 3617DOPC   C4A42448  33.790  31.753  13.840  0.1972 -0.2353 -0.1970
 3617DOPC   C1B42449  33.911  31.828  13.284 -0.0919  0.2546 -0.0063
 3617DOPC   D2B42450  33.738  32.158  13.466  0.0477  0.1771  0.1285
 3617DOPC   C3B42451  33.271  32.270  13.331  0.1586 -0.1038 -0.0509
 3617DOPC   C4B42452  32.988  32.437  13.022  0.0026 -0.1168  0.2069
 3618DOPC   NC342453  27.894  23.528  13.545  0.2982 -0.2790 -0.0256
 3618DOPC   PO442454  27.740  23.205  13.637 -0.2492  0.1444 -0.1736
 3618DOPC   GL142455  27.869  23.263  13.947  0.2601  0.1581 -0.3736
 3618DOPC   GL242456  27.707  23.101  14.142  0.1013  0.0858 -0.2736
 3618DOPC   C1A42457  28.085  23.386  14.359 -0.1867 -0.2272  0.1107
 3618DOPC   D2A42458  28.492  23.359  14.660 -0.1127  0.0500  0.0860
 3618DOPC   C3A42459  28.796  23.716  14.782  0.2312  0.0890  0.2216
 3618DOPC   C4A42460  29.038  23.959  15.021 -0.1327 -0.1007  0.3046
 3618DOPC   C1B42461  27.643  23.003  14.535  0.0522  0.0290 -0.2476
 3618DOPC   D2B42462  27.656  22.844  15.033 -0.2883  0.2473 -0.1860
 3618DOPC   C3B42463  27.843  23.047  15.392 -0.0180  0.0069 -0.3624
 3618DOPC   C4B42464  28.220  23.317  15.561 -0.0332  0.1851  0.1036
 3619DOPE   NH342465  27.473  23.747  13.692  0.0856  0.1130 -0.0444
 3619DOPE   PO442466  27.338  23.507  13.809 -0.3731 -0.2662  0.0122
 3619DOPE   GL142467  27.199  23.597  14.132  0.1758 -0.5907 -0.1360
 3619DOPE   GL242468  27.114  23.852  14.109 -0.0779 -0.1039 -0.0726
 3619DOPE   C1A42469  27.225  23.521  14.600  0.0356  0.1686 -0.2092
 3619DOPE   D2A42470  27.233  23.157  14.852 -0.4129 -0.0183 -0.0057
 3619DOPE   C3A42471  27.615  23.334  14.953 -0.1051  0.1033  0.2399
 3619DOPE   C4A42472  28.052  23.560  14.949  0.1396  0.0679 -0.0013
 3619DOPE   C1B42473  26.933  24.273  14.204  0.2075 -0.0409 -0.2129
 3619DOPE   D2B42474  26.856  24.682  14.267  0.3848  0.1676  0.0847
 3619DOPE   C3B42475  26.643  24.843  14.674 -0.1550 -0.0598  0.0006
 3619DOPE   C4B42476  26.694  24.961  15.151 -0.0414 -0.0938  0.0544
 3620DOPE   NH342477  31.269  26.077  13.611 -0.1822  0.0591 -0.0216
 3620DOPE   PO442478  31.275  26.411  13.588 -0.1745 -0.0561 -0.3448
 3620DOPE   GL142479  31.267  26.453  13.941  0.0535  0.1240 -0.1510
 3620DOPE   GL242480  31.526  26.541  14.025  0.0739  0.1796 -0.0031
 3620DOPE   C1A42481  31.240  26.298  14.401  0.0800 -0.2462  0.1302
 3620DOPE   D2A42482  31.331  26.359  14.862 -0.3039  0.1175 -0.0128
 3620DOPE   C3A42483  31.237  26.008  15.132 -0.3186  0.0165 -0.1080
 3620DOPE   C4A42484  31.243  25.819  15.559  0.0018 -0.0312 -0.1849
 3620DOPE   C1B42485  31.681  26.553  14.473  0.0625 -0.2364 -0.0140
 3620DOPE   D2B42486  31.757  26.626  14.934  0.3501  0.1469  0.0831
 3620DOPE   C3B42487  31.888  26.664  15.365 -0.1705 -0.4815 -0.3334
 3620DOPE   C4B42488  32.234  26.402  15.531 -0.0889  0.0421 -0.0651
 3621POSM   NC342489  28.829  23.243  13.437  0.3073 -0.0199  0.0030
 3621POSM   PO442490  28.792  23.622  13.520  0.1656  0.0258  0.1388
 3621POSM   AM142491  28.938  23.744  13.786 -0.6335 -0.0819 -0.3256
 3621POSM   AM242492  28.804  23.875  13.982  0.4434  0.0861  0.1155
 3621POSM   T1A42493  29.210  24.125  13.858 -0.2029 -0.3430  0.1798
 3621POSM   C2A42494  29.115  24.510  13.607 -0.0809  0.0108  0.3237
 3621POSM   C3A42495  29.128  24.372  13.158  0.0968 -0.1634 -0.0757
 3621POSM   C1B42496  28.877  24.069  14.288  0.0921 -0.2499  0.0557
 3621POSM   D2B42497  28.763  24.230  14.690  0.3214  0.2664  0.1260
 3621POSM   C3B42498  28.335  23.994  14.830 -0.0816 -0.2010 -0.1832
 3621POSM   C4B42499  28.084  23.997  15.223 -0.2200  0.1141  0.2475
 3622POSM   NC342500  30.983  27.012  13.112  0.1605 -0.0430  0.0991
 3622POSM   PO442501  31.025  27.411  13.173  0.0108 -0.2457 -0.0155
 3622POSM   AM142502  31.156  27.447  13.478 -0.1648  0.1486  0.2131
 3622POSM   AM242503  31.116  27.523  13.759  0.0933 -0.2780 -0.2150
 3622POSM   T1A42504  31.595  27.411  13.783 -0.2444 -0.0973  0.0975
 3622POSM   C2A42505  31.873  27.543  14.179  0.3398 -0.0647 -0.1337
 3622POSM   C3A42506  32.039  27.799  14.548  0.0298 -0.1114 -0.0833
 3622POSM   C1B42507  31.175  27.640  14.048  0.0858  0.1024  0.0353
 3622POSM   D2B42508  31.417  27.703  14.437 -0.0216 -0.2341 -0.0531
 3622POSM   C3B42509  31.667  27.381  14.619  0.2043  0.0718  0.2472
 3622POSM   C4B42510  31.690  27.102  15.067  0.1040 -0.1327 -0.3427
 3623POSM   NC342511  23.983  32.114  13.004  0.1882  0.1880 -0.1445
 3623POSM   PO442512  24.196  31.784  12.876 -0.0682 -0.1390 -0.3322
 3623POSM   AM142513  24.429  31.943  13.048 -0.2015  0.2066  0.0306
 3623POSM   AM242514  24.483  32.196  13.208  0.2894  0.0744 -0.1801
 3623POSM   T1A42515  24.889  31.937  13.071  0.0450  0.2180  0.0909
 3623POSM   C2A42516  25.339  31.973  12.843  0.0314 -0.0571 -0.3442
 3623POSM   C3A42517  25.771  31.876  13.137 -0.0238 -0.1751  0.3028
 3623POSM   C1B42518  24.623  32.131  13.495  0.1245 -0.2065 -0.0449
 3623POSM   D2B42519  24.967  32.244  13.732 -0.0942 -0.4042 -0.0258
 3623POSM   C3B42520  25.097  32.381  14.186 -0.0921 -0.0885  0.0852
 3623POSM   C4B42521  25.305  32.652  14.493 -0.3084  0.0951  0.1284
 3624POSM   NC342522  34.234  26.923  13.034 -0.1086  0.0835 -0.3217
 3624POSM   PO442523  34.071  26.589  12.958 -0.0534 -0.2204  0.0619
 3624POSM   AM142524  33.880  26.533  13.207  0.2119  0.0074 -0.0738
 3624POSM   AM242525  33.812  26.478  13.453  0.1868 -0.1454 -0.0561
 3624POSM   T1A42526  33.461  26.801  13.311 -0.2838 -0.3972 -0.3412
 3624POSM   C2A42527  32.972  26.821  13.433 -0.0960 -0.1337 -0.0465
 3624POSM   C3A42528  32.559  27.023  13.564 -0.1886 -0.2269  0.2394
 3624POSM   C1B42529  33.698  26.681  13.710 -0.2233 -0.0541  0.2420
 3624POSM   D2B42530  33.621  26.925  14.041 -0.4399 -0.1331 -0.3117
 3624POSM   C3B42531  33.218  26.812  14.271 -0.2207 -0.3316 -0.0079
 3624POSM   C4B42532  32.949  26.960  14.608  0.0122 -0.1806 -0.0558
 3625DOPC   NC342533  26.652  29.688  13.911 -0.0608 -0.0828  0.1566
 3625DOPC   PO442534  27.008  29.560  13.906  0.0227  0.1488 -0.1331
 3625DOPC   GL142535  27.149  29.435  14.218  0.2113  0.0938  0.0185
 3625DOPC   GL242536  27.456  29.506  14.135 -0.0861 -0.1367  0.1353
 3625DOPC   C1A42537  27.142  29.000  14.399 -0.1608 -0.1182 -0.0990
 3625DOPC   D2A42538  26.983  28.585  14.564  0.3360 -0.1500  0.3282
 3625DOPC   C3A42539  27.146  28.281  14.882 -0.2625 -0.0126 -0.0136
 3625DOPC   C4A42540  27.392  28.067  15.182 -0.1253 -0.2301 -0.3187
 3625DOPC   C1B42541  27.574  29.058  14.091 -0.0867 -0.1057  0.2592
 3625DOPC   D2B42542  27.650  28.849  14.508  0.1763  0.2209 -0.0272
 3625DOPC   C3B42543  27.593  28.437  14.683  0.1203  0.0863  0.1530
 3625DOPC   C4B42544  27.652  27.975  14.754  0.2588  0.1907  0.0211
 3626DOPC   NC342545  32.739  24.503  14.108  0.4842 -0.1169  0.2438
 3626DOPC   PO442546  32.933  24.534  13.748 -0.0022  0.0735  0.0832
 3626DOPC   GL142547  33.144  24.818  13.861 -0.0489  0.0245 -0.0181
 3626DOPC   GL242548  33.104  25.059  13.702  0.1390 -0.0836  0.1188
 3626DOPC   C1A42549  33.235  24.932  14.285  0.1141  0.0995  0.5027
 3626DOPC   D2A42550  33.220  24.914  14.746  0.0244 -0.0147 -0.1513
 3626DOPC   C3A42551  32.865  24.871  15.023  0.1906 -0.0752  0.2976
 3626DOPC   C4A42552  32.910  24.636  15.384 -0.4723 -0.2269 -0.1370
 3626DOPC   C1B42553  33.198  25.386  14.088 -0.0959  0.1028 -0.0035
 3626DOPC   D2B42554  33.468  25.345  14.450 -0.0431 -0.2621 -0.0796
 3626DOPC   C3B42555  33.436  25.420  14.929 -0.0190  0.0367 -0.2564
 3626DOPC   C4B42556  33.299  25.639  15.272 -0.3407 -0.0783  0.0937
 3627DOPE   NH342557  29.184  30.539  13.842 -0.0925 -0.1117  0.0445
 3627DOPE   PO442558  29.060  30.590  13.556  0.2541  0.1007  0.2432
 3627DOPE   GL142559  29.079  30.252  13.421 -0.2296 -0.1349 -0.0029
 3627DOPE   GL242560  29.323  30.289  13.201  0.1746 -0.2275 -0.1148
 3627DOPE   C1A42561  29.013  29.888  13.146 -0.0026 -0.0277 -0.1372
 3627DOPE   D2A42562  29.215  29.593  12.882 -0.1617 -0.2555 -0.1544
 3627DOPE   C3A42563  29.416  29.311  13.147 -0.0486 -0.5810 -0.5339
 3627DOPE   C4A42564  29.629  29.069  13.495 -0.4694 -0.0325  0.0445
 3627DOPE   C1B42565  29.687  30.292  12.894  0.0342  0.0037  0.3407
 3627DOPE   D2B42566  29.994  30.652  12.904  0.0688  0.2100 -0.1258
 3627DOPE   C3B42567  30.398  30.896  12.949 -0.2873 -0.3141  0.3555
 3627DOPE   C4B42568  30.767  30.897  12.656  0.2819 -0.2452  0.1213
 3628DOPC   NC342569  31.325  28.331  12.718  0.1368 -0.0148 -0.1563
 3628DOPC   PO442570  31.188  28.170  13.075 -0.0712  0.0768  0.2393
 3628DOPC   GL142571  31.005  28.440  13.345 -0.2460 -0.2582  0.0392
 3628DOPC   GL242572  30.741  28.440  13.195  0.3485  0.1925 -0.0626
 3628DOPC   C1A42573  30.908  28.874  13.427 -0.1868  0.1973 -0.3404
 3628DOPC   D2A42574  30.725  29.273  13.699  0.1258 -0.0737 -0.2967
 3628DOPC   C3A42575  31.031  29.511  13.956 -0.0210  0.1164 -0.1352
 3628DOPC   C4A42576  31.361  29.385  14.250  0.2493  0.1693  0.0647
 3628DOPC   C1B42577  30.425  28.756  13.344  0.2444  0.1030 -0.0949
 3628DOPC   D2B42578  30.100  28.805  13.670 -0.0122  0.2415  0.2016
 3628DOPC   C3B42579  29.788  29.089  13.972  0.2836 -0.0220 -0.1081
 3628DOPC   C4B42580  29.822  29.563  14.111 -0.1816  0.0191  0.0605
 3629DOPC   NC342581  33.477  30.634  13.033 -0.0208 -0.1498  0.0342
 3629DOPC   PO442582  33.149  30.623  13.245  0.0307 -0.1147  0.0081
 3629DOPC   GL142583  33.124  31.000  13.444 -0.0398 -0.1719 -0.0188
 3629DOPC   GL242584  33.332  31.135  13.222 -0.1886 -0.0082  0.0463
 3629DOPC   C1A42585  32.674  31.193  13.553 -0.2719 -0.0077  0.1037
 3629DOPC   D2A42586  32.532  31.599  13.518  0.0519 -0.3509  0.0008
 3629DOPC   C3A42587  32.540  31.984  13.717  0.2446  0.1835 -0.0457
 3629DOPC   C4A42588  32.383  32.447  13.599  0.1565  0.1078 -0.2200
 3629DOPC   C1B42589  33.017  31.450  13.247 -0.1743  0.0650 -0.4837
 3629DOPC   D2B42590  32.976  31.887  13.442 -0.1197  0.1745  0.1489
 3629DOPC   C3B42591  32.815  32.281  13.466 -0.0048 -0.0498  0.0844
 3629DOPC   C4B42592  32.678  32.686  13.302  0.0221  0.1333 -0.2854
 3630DOPS   CNO42593  31.111   0.035  13.157 -0.2772 -0.2462  0.0110
 3630DOPS   PO442594  31.301   0.256  13.417 -0.1033 -0.0772  0.1040
 3630DOPS   GL142595  31.261   0.403  13.777  0.0953  0.0372  0.0891
 3630DOPS   GL242596  31.135   0.056  13.836  0.0471 -0.0021  0.0685
 3630DOPS   C1A42597  31.063   0.800  14.059 -0.0576  0.3349  0.4522
 3630DOPS   D2A42598  30.863   1.169  13.784  0.1410  0.0542  0.0118
 3630DOPS   C3A42599  30.444   1.410  13.816 -0.3375 -0.1241  0.1001
 3630DOPS   C4A42600  29.998   1.686  13.702  0.3118  0.0929 -0.0557
 3630DOPS   C1B42601  31.316  -0.298  14.055 -0.0376 -0.2107  0.0307
 3630DOPS   D2B42602  31.591  -0.703  14.050 -0.0598 -0.2006  0.1594
 3630DOPS   C3B42603  31.880  -0.980  14.270  0.3826 -0.2784  0.0387
 3630DOPS   C4B42604  32.066  -1.434  14.391  0.0195  0.1349  0.3049
 3631POSM   NC342605   0.692  27.033  13.491  0.3589  0.3226 -0.1013
 3631POSM   PO442606   0.577  27.029  13.103 -0.5245  0.2310 -0.2023
 3631POSM   AM142607   0.520  27.339  13.079 -0.0528  0.3834 -0.0720
 3631POSM   AM242608   0.483  27.513  13.270 -0.1099  0.2007 -0.1973
 3631POSM   T1A42609   0.176  27.648  12.892 -0.0212  0.0108 -0.1327
 3631POSM   C2A42610  -0.070  28.087  12.860 -0.1992  0.0913  0.1526
 3631POSM   C3A42611  -0.378  28.403  12.770  0.1254  0.3556 -0.3301
 3631POSM   C1B42612   0.248  27.662  13.388  0.0359 -0.4400 -0.0452
 3631POSM   D2B42613  -0.210  27.849  13.410  0.0073 -0.0841 -0.1713
 3631POSM   C3B42614  -0.542  27.982  13.146  0.0549  0.2174  0.0613
 3631POSM   C4B42615  -0.793  28.163  12.788  0.0682  0.1790 -0.0243
 3632DOPS   CNO42616  29.785  31.402  13.249 -0.0142 -0.0249  0.2424
 3632DOPS   PO442617  29.939  31.608  13.527 -0.1532 -0.1207  0.0998
 3632DOPS   GL142618  30.283  31.393  13.568  0.0276 -0.3727 -0.2646
 3632DOPS   GL242619  30.202  31.125  13.411 -0.0333  0.0073  0.0344
 3632DOPS   C1A42620  30.505  31.359  13.940  0.1863 -0.2313  0.3044
 3632DOPS   D2A42621  30.722  31.018  14.169 -0.0826  0.2592  0.0578
 3632DOPS   C3A42622  31.068  30.804  13.970 -0.0147 -0.2948  0.1836
 3632DOPS   C4A42623  31.180  30.533  13.609 -0.0553  0.1608 -0.0201
 3632DOPS   C1B42624  30.602  31.332  13.241 -0.0337  0.0831  0.0917
 3632DOPS   D2B42625  30.880  31.575  13.429  0.3801 -0.3631 -0.3397
 3632DOPS   C3B42626  30.824  31.807  13.828 -0.2799 -0.1232 -0.0162
 3632DOPS   C4B42627  31.006  31.927  14.234 -0.2648  0.1165  0.0202
 3633POSM   NC342628  26.082  27.985  13.986 -0.2310 -0.1473  0.0335
 3633POSM   PO442629  25.877  28.308  13.821 -0.2799  0.1356 -0.2404
 3633POSM   AM142630  25.764  28.548  13.990 -0.1578  0.7042 -0.1069
 3633POSM   AM242631  25.890  28.758  14.130 -0.0257 -0.0370 -0.3156
 3633POSM   T1A42632  25.337  28.790  14.161  0.2573 -0.1403  0.2305
 3633POSM   C2A42633  25.161  28.814  14.578 -0.2336 -0.0583 -0.0118
 3633POSM   C3A42634  25.392  28.998  14.960 -0.0248 -0.1254  0.5003
 3633POSM   C1B42635  25.912  28.725  14.464  0.4219  0.2100 -0.0440
 3633POSM   D2B42636  25.856  28.867  14.887 -0.1526  0.1347  0.1932
 3633POSM   C3B42637  26.236  28.871  15.121  0.1499  0.1691  0.0327
 3633POSM   C4B42638  26.375  28.682  15.571  0.1051 -0.4502  0.1113
 3634DOPC   NC342639  27.179  30.357  13.465  0.0207 -0.3096 -0.1531
 3634DOPC   PO442640  27.353  30.672  13.627 -0.0966  0.3140  0.0917
 3634DOPC   GL142641  27.079  30.934  13.601 -0.0740  0.3497 -0.0381
 3634DOPC   GL242642  26.851  30.877  13.354 -0.2233  0.0395 -0.1807
 3634DOPC   C1A42643  26.939  31.344  13.705  0.2690  0.4994 -0.0720
 3634DOPC   D2A42644  27.223  31.643  13.818  0.2441 -0.1110 -0.1801
 3634DOPC   C3A42645  27.468  31.762  14.183 -0.1046  0.1786  0.0993
 3634DOPC   C4A42646  27.475  32.227  14.142  0.0773  0.0342  0.0420
 3634DOPC   C1B42647  26.503  31.020  13.649 -0.0739 -0.2185 -0.3103
 3634DOPC   D2B42648  26.349  31.321  13.979  0.3437  0.1932  0.2158
 3634DOPC   C3B42649  26.138  31.490  14.325 -0.1885  0.1432  0.0934
 3634DOPC   C4B42650  26.360  31.641  14.712  0.1044 -0.1241 -0.0098
 3635DOPC   NC342651  32.021  28.675  13.075  0.0451 -0.0716 -0.2850
 3635DOPC   PO442652  31.926  28.582  13.443 -0.1518 -0.2106 -0.0208
 3635DOPC   GL142653  32.045  28.403  13.759 -0.1128 -0.1248 -0.4776
 3635DOPC   GL242654  32.270  28.229  13.696  0.0938  0.3450  0.2627
 3635DOPC   C1A42655  32.182  28.207  14.152  0.3207 -0.0581  0.2125
 3635DOPC   D2A42656  32.488  27.900  14.324  0.1582 -0.0238 -0.0980
 3635DOPC   C3A42657  32.762  27.616  14.422 -0.1562 -0.0878  0.1509
 3635DOPC   C4A42658  33.140  27.393  14.186 -0.0087 -0.4921 -0.1091
 3635DOPC   C1B42659  32.517  27.846  13.799 -0.2377  0.0637 -0.1123
 3635DOPC   D2B42660  32.866  27.526  13.801 -0.1431 -0.0076  0.0365
 3635DOPC   C3B42661  33.096  27.464  13.402  0.2443  0.3582  0.3094
 3635DOPC   C4B42662  33.218  27.288  12.995  0.0501 -0.0031  0.2334
 3636DOPC   NC342663  25.804  22.970  13.186 -0.0896  0.2203 -0.0106
 3636DOPC   PO442664  25.768  23.345  13.294 -0.0998 -0.2610  0.2500
 3636DOPC   GL142665  25.637  23.418  13.658  0.0431  0.1028 -0.4296
 3636DOPC   GL242666  25.758  23.781  13.769  0.2329 -0.0141  0.3424
 3636DOPC   C1A42667  25.308  23.689  13.872 -0.2958 -0.0708 -0.2033
 3636DOPC   D2A42668  25.266  24.099  13.771  0.1395  0.1141 -0.0594
 3636DOPC   C3A42669  25.286  24.438  13.994  0.1799  0.0427  0.0557
 3636DOPC   C4A42670  25.338  24.911  14.064  0.0354  0.0867  0.0158
 3636DOPC   C1B42671  25.587  24.097  14.155 -0.1254  0.2664 -0.0365
 3636DOPC   D2B42672  25.490  24.229  14.589  0.0821 -0.1671 -0.1453
 3636DOPC   C3B42673  25.952  24.372  14.644  0.3411 -0.1632 -0.0904
 3636DOPC   C4B42674  26.344  24.487  14.821  0.0385 -0.2468 -0.1378
 3637POSM   NC342675  30.914  34.363  13.403  0.3223  0.0424 -0.4268
 3637POSM   PO442676  30.928  33.957  13.356  0.1645 -0.0177  0.0209
 3637POSM   AM142677  31.089  33.697  13.477  0.1319 -0.0177  0.2373
 3637POSM   AM242678  31.207  33.448  13.426 -0.2796 -0.0669  0.2393
 3637POSM   T1A42679  31.280  33.652  13.942 -0.0045  0.0849  0.2628
 3637POSM   C2A42680  31.298  33.662  14.398 -0.0798  0.0189  0.1157
 3637POSM   C3A42681  31.149  33.626  14.831 -0.1572 -0.3044 -0.0139
 3637POSM   C1B42682  31.248  33.145  13.502  0.2585 -0.0881 -0.1106
 3637POSM   D2B42683  31.119  32.769  13.825 -0.3191 -0.1399 -0.3558
 3637POSM   C3B42684  30.950  32.841  14.262  0.0571  0.0475 -0.1546
 3637POSM   C4B42685  30.893  33.192  14.586 -0.1578  0.0941  0.1641
 3638POSM   NC342686  25.450  26.670  12.779 -0.0521 -0.1223  0.0931
 3638POSM   PO442687  25.566  26.952  13.058 -0.2221 -0.5009  0.1708
 3638POSM   AM142688  25.610  26.741  13.278 -0.1855  0.0795 -0.0572
 3638POSM   AM242689  25.626  26.691  13.555  0.3679  0.0664 -0.1242
 3638POSM   T1A42690  25.587  26.228  13.409 -0.0080 -0.0706 -0.0586
 3638POSM   C2A42691  25.656  25.907  13.694 -0.1059 -0.0445 -0.0049
 3638POSM   C3A42692  25.697  25.527  13.923  0.3820 -0.0526  0.1595
 3638POSM   C1B42693  25.798  26.511  13.776  0.2085  0.1559 -0.3774
 3638POSM   D2B42694  25.965  26.191  14.020 -0.0120  0.0848 -0.0399
 3638POSM   C3B42695  26.148  26.052  14.435  0.0902 -0.0276 -0.0675
 3638POSM   C4B42696  26.483  25.887  14.760 -0.2801 -0.0569  0.2708
 3639DOPE   NH342697  29.586  26.744  13.818  0.2955  0.0609 -0.2033
 3639DOPE   PO442698  29.843  26.628  13.940  0.0746  0.0307  0.1210
 3639DOPE   GL142699  29.596  26.716  14.271 -0.0523  0.4046 -0.2915
 3639DOPE   GL242700  29.333  26.811  14.230  0.0960  0.0082  0.1189
 3639DOPE   C1A42701  29.537  26.989  14.689 -0.1466 -0.1613 -0.1669
 3639DOPE   D2A42702  29.491  27.443  14.921  0.1054 -0.2176 -0.4169
 3639DOPE   C3A42703  29.252  27.728  14.698 -0.4872 -0.2179  0.2800
 3639DOPE   C4A42704  29.060  27.800  14.291  0.0838 -0.1998  0.1925
 3639DOPE   C1B42705  29.025  26.809  14.617 -0.1813  0.0379  0.0602
 3639DOPE   D2B42706  28.790  26.773  15.023 -0.2158  0.0348  0.0129
 3639DOPE   C3B42707  28.382  26.761  15.135 -0.1894 -0.1510  0.0788
 3639DOPE   C4B42708  28.088  27.049  15.076  0.2306 -0.2486  0.0116
 3640DOPS   CNO42709  34.553  26.588  12.739  0.1427 -0.3257  0.1010
 3640DOPS   PO442710  34.634  26.589  13.140 -0.2130  0.2112 -0.3264
 3640DOPS   GL142711  34.876  26.745  13.443 -0.2100 -0.1102 -0.2107
 3640DOPS   GL242712  34.809  26.567  13.690 -0.0613  0.1541  0.1441
 3640DOPS   C1A42713  34.836  27.105  13.692  0.3494 -0.0458 -0.0910
 3640DOPS   D2A42714  35.021  27.297  14.094 -0.1956 -0.0449  0.0214
 3640DOPS   C3A42715  34.849  27.560  14.408  0.2032  0.0394  0.0387
 3640DOPS   C4A42716  34.444  27.722  14.311  0.2764 -0.0723 -0.0969
 3640DOPS   C1B42717  34.599  26.820  14.033 -0.1194 -0.0708  0.0115
 3640DOPS   D2B42718  34.503  27.258  14.057  0.2774  0.1846  0.1267
 3640DOPS   C3B42719  34.524  27.649  13.830  0.3753 -0.2462  0.1384
 3640DOPS   C4B42720  34.659  28.070  13.879  0.1248  0.1277  0.2622
 3641DOPE   NH342721  34.504  34.556  12.811 -0.2577 -0.1193 -0.1519
 3641DOPE   PO442722  34.592  34.564  13.130  0.0598  0.3847 -0.1075
 3641DOPE   GL142723  34.701  34.290  13.392 -0.1154  0.1942  0.2074
 3641DOPE   GL242724  34.444  34.260  13.486  0.1686  0.2291  0.3039
 3641DOPE   C1A42725  34.810  34.382  13.842 -0.1879  0.2003 -0.1985
 3641DOPE   D2A42726  34.719  34.351  14.297  0.2126  0.0931  0.0699
 3641DOPE   C3A42727  34.728  33.867  14.426  0.0973 -0.1979 -0.0368
 3641DOPE   C4A42728  34.942  33.500  14.417 -0.1601  0.1063 -0.1964
 3641DOPE   C1B42729  34.065  33.990  13.551  0.1050 -0.3940  0.1623
 3641DOPE   D2B42730  33.885  33.716  13.913  0.0358 -0.2638 -0.0707
 3641DOPE   C3B42731  33.788  33.760  14.334 -0.0089  0.0750 -0.0505
 3641DOPE   C4B42732  33.729  33.988  14.776  0.2858 -0.0577 -0.3138
 3642DOPC   NC342733  25.380  27.816  13.410 -0.1083 -0.0381  0.0667
 3642DOPC   PO442734  25.457  27.762  13.033 -0.1960 -0.1478  0.1425
 3642DOPC   GL142735  25.208  28.096  13.024  0.1809  0.2361 -0.0760
 3642DOPC   GL242736  24.944  27.949  13.033 -0.2626  0.3025  0.0302
 3642DOPC   C1A42737  25.070  28.525  13.004 -0.0694 -0.1300  0.1001
 3642DOPC   D2A42738  24.648  28.693  12.842  0.2369  0.1722  0.0936
 3642DOPC   C3A42739  24.466  29.048  13.056 -0.1626 -0.2057 -0.1117
 3642DOPC   C4A42740  24.452  29.087  13.548  0.1789  0.1310  0.0929
 3642DOPC   C1B42741  24.595  28.173  12.754  0.3200 -0.0051 -0.2230
 3642DOPC   D2B42742  24.233  28.400  12.602 -0.0394  0.0772  0.1102
 3642DOPC   C3B42743  24.102  28.865  12.701 -0.2161 -0.3028  0.1030
 3642DOPC   C4B42744  24.220  29.289  12.680 -0.2984 -0.3775  0.0658
 3643DOPC   NC342745  28.904  25.865  14.030  0.1223 -0.3502 -0.0581
 3643DOPC   PO442746  28.718  25.858  13.693  0.0679 -0.0548 -0.1203
 3643DOPC   GL142747  28.301  25.663  13.809 -0.1893 -0.1422  0.3634
 3643DOPC   GL242748  28.208  25.547  13.529  0.0330 -0.2364 -0.1329
 3643DOPC   C1A42749  28.043  25.906  14.061 -0.1417 -0.1464 -0.0436
 3643DOPC   D2A42750  27.621  25.867  14.150 -0.0295 -0.0106 -0.1686
 3643DOPC   C3A42751  27.543  26.356  14.243 -0.0392 -0.3262  0.1994
 3643DOPC   C4A42752  27.401  26.702  14.529 -0.3191 -0.0784  0.0052
 3643DOPC   C1B42753  27.724  25.679  13.584 -0.0202  0.0261  0.0106
 3643DOPC   D2B42754  27.262  25.805  13.684 -0.3239  0.1807  0.0456
 3643DOPC   C3B42755  26.895  25.596  13.961 -0.2452 -0.0058  0.1587
 3643DOPC   C4B42756  26.661  25.793  14.313  0.0374  0.0820  0.2894
 3644POSM   NC342757  33.378  28.880  13.212 -0.0577  0.1524  0.3199
 3644POSM   PO442758  33.187  29.183  13.358  0.2233 -0.0060 -0.1149
 3644POSM   AM142759  33.372  29.106  13.647 -0.1838  0.1079  0.3043
 3644POSM   AM242760  33.508  29.329  13.763 -0.3180 -0.1248 -0.0579
 3644POSM   T1A42761  33.590  28.748  13.923  0.0690  0.1338  0.1538
 3644POSM   C2A42762  33.874  28.370  13.960 -0.1157  0.1027 -0.2812
 3644POSM   C3A42763  34.116  27.919  14.039  0.1944 -0.3079  0.4531
 3644POSM   C1B42764  33.771  29.259  13.991  0.2501 -0.0189 -0.2234
 3644POSM   D2B42765  34.162  29.279  14.262 -0.0237 -0.1578 -0.2193
 3644POSM   C3B42766  34.510  29.016  14.206  0.0343  0.2856 -0.1138
 3644POSM   C4B42767  34.945  28.887  14.127 -0.0404  0.0810  0.0736
 3645POSM   NC342768  23.261  33.500  12.797  0.1351  0.1725 -0.1101
 3645POSM   PO442769  23.087  33.155  12.749 -0.0418  0.1139  0.1430
 3645POSM   AM142770  23.233  33.070  13.026 -0.2597  0.2826 -0.0753
 3645POSM   AM242771  23.481  33.155  13.121 -0.0497 -0.1753 -0.1089
 3645POSM   T1A42772  23.423  32.826  13.418  0.1445  0.1487 -0.1095
 3645POSM   C2A42773  23.434  32.479  13.725 -0.0123  0.2633 -0.1207
 3645POSM   C3A42774  23.263  32.157  14.018  0.3041 -0.2682 -0.0986
 3645POSM   C1B42775  23.822  33.070  13.141 -0.0084  0.0913 -0.0493
 3645POSM   D2B42776  24.236  32.832  13.185 -0.0097 -0.2750  0.1460
 3645POSM   C3B42777  24.412  32.614  13.585 -0.0417 -0.1509 -0.1910
 3645POSM   C4B42778  24.398  32.378  13.968  0.0497  0.0108 -0.0221
 3646DOPS   CNO42779  30.953  25.218  13.637  0.1897 -0.0906  0.0720
 3646DOPS   PO442780  31.020  25.584  13.589 -0.0719 -0.5607  0.4507
 3646DOPS   GL142781  31.318  25.667  13.907 -0.2640 -0.0725  0.2932
 3646DOPS   GL242782  31.571  25.555  14.044  0.3223  0.0900  0.0674
 3646DOPS   C1A42783  31.615  26.025  14.141 -0.0044  0.1926 -0.0986
 3646DOPS   D2A42784  31.878  26.076  14.512  0.1210 -0.1009  0.0867
 3646DOPS   C3A42785  31.745  26.091  14.979 -0.0898 -0.0968 -0.1292
 3646DOPS   C4A42786  31.734  26.162  15.505  0.0201  0.0206 -0.1386
 3646DOPS   C1B42787  31.723  25.344  14.489  0.0375 -0.1110  0.0677
 3646DOPS   D2B42788  31.958  25.208  14.836 -0.1670 -0.0380  0.0219
 3646DOPS   C3B42789  32.175  25.609  15.075  0.3457  0.0883 -0.2919
 3646DOPS   C4B42790  32.170  25.951  15.337 -0.1799 -0.2461  0.2443
 3647POSM   NC342791  26.274  23.036  13.808 -0.0050 -0.1844 -0.0324
 3647POSM   PO442792  26.083  23.376  13.737  0.1453  0.0723 -0.1319
 3647POSM   AM142793  25.976  23.326  14.046  0.3707  0.1832  0.1697
 3647POSM   AM242794  25.940  23.083  14.223  0.0335  0.1021  0.0414
 3647POSM   T1A42795  25.630  23.531  14.331 -0.2886 -0.0825 -0.3216
 3647POSM   C2A42796  25.230  23.770  14.344  0.0931 -0.1736 -0.1381
 3647POSM   C3A42797  24.891  24.073  14.250 -0.2260 -0.2056  0.0054
 3647POSM   C1B42798  25.894  22.728  14.346  0.0851  0.0689  0.0387
 3647POSM   D2B42799  25.769  22.475  14.735  0.1657  0.0560 -0.0508
 3647POSM   C3B42800  25.481  22.752  14.937 -0.0256 -0.1494 -0.1827
 3647POSM   C4B42801  25.126  22.735  15.264  0.2385  0.0845 -0.0895
 3648DOPE   NH342802  29.091  31.655  13.392 -0.1160 -0.2387 -0.2205
 3648DOPE   PO442803  29.042  31.802  13.702 -0.0491  0.0731 -0.3404
 3648DOPE   GL142804  28.944  31.977  14.068  0.1400  0.3653  0.0491
 3648DOPE   GL242805  28.872  31.801  14.281  0.2254  0.2114 -0.2185
 3648DOPE   C1A42806  28.953  32.215  14.480 -0.0637 -0.1374  0.0892
 3648DOPE   D2A42807  28.826  32.413  14.813 -0.2583  0.0666  0.3861
 3648DOPE   C3A42808  28.519  32.213  15.089 -0.2442  0.1559  0.0296
 3648DOPE   C4A42809  28.043  32.156  15.205  0.0687  0.2417  0.2251
 3648DOPE   C1B42810  28.515  31.920  14.560  0.3101 -0.3257 -0.2136
 3648DOPE   D2B42811  28.129  31.902  14.778 -0.1856 -0.3249  0.0956
 3648DOPE   C3B42812  28.107  31.448  14.923 -0.1142  0.0140  0.0082
 3648DOPE   C4B42813  28.351  31.186  15.236  0.0326  0.1653  0.0916
 3649DOPE   NH342814  26.657  23.678  13.124 -0.1092  0.2829 -0.0741
 3649DOPE   PO442815  26.838  23.994  13.106 -0.3521 -0.0980  0.5192
 3649DOPE   GL142816  26.694  24.356  13.389 -0.2654 -0.1873  0.0113
 3649DOPE   GL242817  26.534  24.385  13.163  0.2371 -0.0365 -0.2519
 3649DOPE   C1A42818  26.778  24.868  13.423 -0.1547  0.2546  0.0185
 3649DOPE   D2A42819  26.819  25.323  13.545  0.2145  0.2676 -0.0296
 3649DOPE   C3A42820  27.246  25.365  13.295 -0.0797  0.1846 -0.1754
 3649DOPE   C4A42821  27.763  25.416  13.164 -0.2398  0.1018 -0.0208
 3649DOPE   C1B42822  26.323  24.779  13.187  0.2983  0.0910 -0.2152
 3649DOPE   D2B42823  26.377  25.124  13.403  0.0054  0.0244  0.0347
 3649DOPE   C3B42824  25.928  25.376  13.373 -0.0308  0.0528 -0.0332
 3649DOPE   C4B42825  25.447  25.461  13.457  0.3452 -0.1535  0.1314
 3650DOPE   NH342826  26.111  23.763  13.420 -0.2829 -0.0971 -0.1284
 3650DOPE   PO442827  26.359  23.957  13.365  0.1191  0.1053  0.1528
 3650DOPE   GL142828  26.218  24.278  13.520 -0.0572 -0.4476 -0.3175
 3650DOPE   GL242829  26.058  24.371  13.265 -0.0740 -0.1038 -0.0282
 3650DOPE   C1A42830  26.090  24.725  13.643 -0.0252 -0.1026 -0.0037
 3650DOPE   D2A42831  26.081  25.159  13.800  0.0605 -0.0296  0.0283
 3650DOPE   C3A42832  25.934  25.068  14.225  0.1995 -0.1183  0.0431
 3650DOPE   C4A42833  25.578  25.384  14.377  0.1393  0.1484 -0.2197
 3650DOPE   C1B42834  25.752  24.746  13.174  0.0553  0.0447 -0.1931
 3650DOPE   D2B42835  25.385  24.995  13.271  0.0285 -0.1085  0.0752
 3650DOPE   C3B42836  25.227  24.994  12.845  0.0400  0.1912  0.0798
 3650DOPE   C4B42837  24.914  25.249  12.576 -0.1264 -0.3437  0.2136
 3651DOPS   CNO42838  28.346  23.691  13.311 -0.4006 -0.1322 -0.1070
 3651DOPS   PO442839  28.285  24.032  13.489 -0.1661  0.2585 -0.2028
 3651DOPS   GL142840  28.207  24.295  13.754  0.1300 -0.0480 -0.1220
 3651DOPS   GL242841  28.337  24.107  13.991  0.1237  0.2039  0.1221
 3651DOPS   C1A42842  27.983  24.467  14.106 -0.1089  0.1033  0.1747
 3651DOPS   D2A42843  27.798  24.579  14.511 -0.0423 -0.2458 -0.2790
 3651DOPS   C3A42844  27.428  24.460  14.816 -0.0985 -0.3329  0.4437
 3651DOPS   C4A42845  27.008  24.451  14.777 -0.0437 -0.0734 -0.0357
 3651DOPS   C1B42846  28.028  23.793  14.025  0.5476 -0.0238  0.0287
 3651DOPS   D2B42847  27.644  23.675  14.237 -0.1933  0.1402 -0.0001
 3651DOPS   C3B42848  27.686  23.781  14.643 -0.0111 -0.4375  0.0616
 3651DOPS   C4B42849  27.633  23.840  15.050  0.2981 -0.0476  0.1312
 3652POSM   NC342850  30.593  25.861  13.455  0.3663  0.0830  0.0649
 3652POSM   PO442851  30.773  26.223  13.553  0.0736  0.1939  0.0262
 3652POSM   AM142852  30.839  26.132  13.867 -0.0202  0.0352 -0.3649
 3652POSM   AM242853  30.772  26.212  14.103  0.1737  0.0757  0.0329
 3652POSM   T1A42854  31.043  25.848  14.227 -0.3611 -0.0267 -0.1994
 3652POSM   C2A42855  31.424  25.801  14.506 -0.1067 -0.0931 -0.2611
 3652POSM   C3A42856  31.556  25.665  14.944  0.1247  0.0465 -0.0686
 3652POSM   C1B42857  30.600  26.182  14.422  0.2141  0.0042 -0.1063
 3652POSM   D2B42858  30.335  26.383  14.816  0.1104  0.1530 -0.0941
 3652POSM   C3B42859  29.930  26.165  15.035 -0.2567  0.0802  0.1376
 3652POSM   C4B42860  29.614  26.057  14.695 -0.0989  0.3948 -0.2348
 3653POSM   NC342861  32.485  28.831  13.611  0.1350 -0.2498 -0.1335
 3653POSM   PO442862  32.684  28.980  13.323  0.1448  0.2346  0.2503
 3653POSM   AM142863  32.921  28.795  13.467 -0.2623  0.0869  0.1046
 3653POSM   AM242864  33.089  28.751  13.732  0.0464  0.0377  0.1659
 3653POSM   T1A42865  33.340  28.443  13.471 -0.1428 -0.0090  0.1284
 3653POSM   C2A42866  33.783  28.217  13.391  0.0416 -0.0197  0.1039
 3653POSM   C3A42867  34.252  28.381  13.421 -0.0581 -0.0476  0.0783
 3653POSM   C1B42868  33.167  28.465  13.970 -0.0021  0.0481  0.2334
 3653POSM   D2B42869  33.284  28.325  14.445  0.0520  0.0292  0.1000
 3653POSM   C3B42870  33.662  28.601  14.367 -0.0046  0.0943 -0.1619
 3653POSM   C4B42871  34.080  28.766  14.332  0.0333 -0.2106  0.1747
 3654DOPE   NH342872  31.475  25.290  13.587  0.1556 -0.0576  0.0536
 3654DOPE   PO442873  31.557  25.625  13.533 -0.0738  0.1384 -0.2256
 3654DOPE   GL142874  31.746  25.967  13.747  0.5297 -0.0143 -0.0259
 3654DOPE   GL242875  31.881  26.120  13.529 -0.1784  0.1932  0.0631
 3654DOPE   C1A42876  32.044  26.237  14.022  0.0373  0.0546 -0.1518
 3654DOPE   D2A42877  32.256  26.487  14.350 -0.3603  0.4071 -0.0476
 3654DOPE   C3A42878  32.531  26.641  14.682 -0.2212 -0.1037  0.3417
 3654DOPE   C4A42879  32.699  26.826  15.054  0.1865  0.0087  0.0653
 3654DOPE   C1B42880  32.384  26.209  13.588  0.3425  0.0583 -0.0911
 3654DOPE   D2B42881  32.719  26.499  13.680  0.0559 -0.1436 -0.0694
 3654DOPE   C3B42882  32.800  26.611  14.090  0.0354  0.1424 -0.3354
 3654DOPE   C4B42883  32.527  26.927  14.311  0.3852 -0.0465 -0.0230
 3655DOPS   CNO42884  23.904  33.960  12.756 -0.0079 -0.1253 -0.1579
 3655DOPS   PO442885  23.679  33.663  12.909  0.0853 -0.1897 -0.0641
 3655DOPS   GL142886  23.995  33.593  13.136 -0.3621 -0.3874 -0.2451
 3655DOPS   GL242887  24.157  33.412  13.014 -0.2327 -0.0332  0.2404
 3655DOPS   C1A42888  24.413  33.833  13.049  0.0781 -0.4439  0.1446
 3655DOPS   D2A42889  24.727  34.138  13.137  0.0978 -0.0751  0.1188
 3655DOPS   C3A42890  24.650  34.290  13.558 -0.1708  0.0284 -0.3686
 3655DOPS   C4A42891  24.307  34.440  13.828  0.1255 -0.1157 -0.2659
 3655DOPS   C1B42892  24.479  33.302  13.341 -0.1400  0.1706 -0.3930
 3655DOPS   D2B42893  24.706  33.215  13.731 -0.0956  0.0501 -0.1074
 3655DOPS   C3B42894  24.561  33.532  14.028  0.0737 -0.0179 -0.0870
 3655DOPS   C4B42895  24.587  33.968  14.005  0.0862  0.1843  0.1449
 3656DOPE   NH342896  28.762  30.895  13.957  0.2046 -0.0384  0.0206
 3656DOPE   PO442897  29.085  30.923  14.131  0.1910 -0.0993 -0.1128
 3656DOPE   GL142898  29.327  30.939  14.391 -0.1800 -0.3785 -0.0978
 3656DOPE   GL242899  29.301  30.684  14.619 -0.0955  0.2234  0.2469
 3656DOPE   C1A42900  29.792  31.038  14.391  0.2878 -0.0851  0.0885
 3656DOPE   D2A42901  30.117  31.303  14.643  0.3901 -0.1458 -0.1834
 3656DOPE   C3A42902  30.070  31.731  14.460 -0.2614 -0.1248  0.0160
 3656DOPE   C4A42903  30.316  32.153  14.487 -0.0362 -0.1221 -0.4559
 3656DOPE   C1B42904  29.583  30.773  14.919 -0.0604  0.3582 -0.4117
 3656DOPE   D2B42905  29.902  30.670  15.234  0.1137  0.1710  0.4333
 3656DOPE   C3B42906  30.087  30.219  15.295 -0.1158 -0.2619  0.3140
 3656DOPE   C4B42907  29.885  29.886  15.035 -0.1486 -0.1379 -0.1464
 3657POSM   NC342908  23.724  26.493  12.783 -0.4418 -0.1023 -0.0056
 3657POSM   PO442909  23.737  26.110  12.820  0.1216  0.2280  0.1813
 3657POSM   AM142910  23.746  25.926  13.089 -0.1841  0.2583  0.0892
 3657POSM   AM242911  23.561  25.708  13.155 -0.1617 -0.2234 -0.2233
 3657POSM   T1A42912  23.950  25.494  13.306  0.3197 -0.2483 -0.4837
 3657POSM   C2A42913  23.927  25.012  13.446  0.1785 -0.3312  0.2662
 3657POSM   C3A42914  24.261  24.767  13.778  0.1803  0.0069  0.2352
 3657POSM   C1B42915  23.503  25.494  12.895 -0.2074  0.0298  0.1297
 3657POSM   D2B42916  23.353  25.127  12.566 -0.0383  0.0515  0.0374
 3657POSM   C3B42917  23.544  24.691  12.550  0.0072 -0.3451  0.1315
 3657POSM   C4B42918  23.406  24.253  12.449 -0.0439 -0.2436 -0.3667
 3658POSM   NC342919  23.251  34.182  13.449  0.0207 -0.3069  0.0785
 3658POSM   PO442920  23.437  34.125  13.106 -0.5002 -0.3638 -0.0148
 3658POSM   AM142921  23.759  34.175  13.182  0.4380 -0.1182  0.0553
 3658POSM   AM242922  23.974  34.368  13.074  0.0206 -0.0140 -0.1533
 3658POSM   T1A42923  24.158  34.002  13.442  0.2262 -0.0172  0.0279
 3658POSM   C2A42924  24.147  33.665  13.771  0.0753 -0.0695  0.1677
 3658POSM   C3A42925  23.926  33.311  13.978  0.0500  0.0219  0.1096
 3658POSM   C1B42926  24.197  34.560  13.261 -0.0354 -0.1286  0.0849
 3658POSM   D2B42927  24.330  34.902  13.590 -0.0030  0.0909  0.0160
 3658POSM   C3B42928  24.107  34.874  14.005 -0.0483  0.5063  0.0493
 3658POSM   C4B42929  23.695  35.066  14.073  0.1969 -0.2473 -0.2290
 3659DOPC   NC342930  26.935  30.386  14.262  0.1500 -0.1636 -0.0679
 3659DOPC   PO442931  27.227  30.434  14.025 -0.2047 -0.1761  0.0206
 3659DOPC   GL142932  27.162  30.897  14.015  0.1837 -0.0393  0.0945
 3659DOPC   GL242933  27.420  30.864  14.242  0.1868  0.0927 -0.0177
 3659DOPC   C1A42934  26.755  30.974  14.198  0.1462  0.0215 -0.2069
 3659DOPC   D2A42935  26.366  30.764  14.190 -0.1158 -0.1066 -0.5889
 3659DOPC   C3A42936  25.986  31.017  14.277 -0.2786 -0.0401 -0.2098
 3659DOPC   C4A42937  25.683  31.158  14.619 -0.1329 -0.1949 -0.2321
 3659DOPC   C1B42938  27.273  31.324  14.243  0.0203 -0.2472  0.3753
 3659DOPC   D2B42939  27.007  31.683  14.324  0.2169  0.0443 -0.1378
 3659DOPC   C3B42940  27.055  31.809  14.804  0.0644 -0.0589  0.0401
 3659DOPC   C4B42941  27.024  32.179  15.139  0.0449  0.2746  0.1046
 3660POSM   NC342942  23.186  30.296  13.296 -0.2373 -0.0126  0.0356
 3660POSM   PO442943  23.187  30.112  13.606  0.0633 -0.3014 -0.2645
 3660POSM   AM142944  23.257  30.250  13.891  0.0612 -0.0860 -0.0808
 3660POSM   AM242945  23.385  30.515  13.957  0.2251 -0.1450  0.0486
 3660POSM   T1A42946  23.576  30.204  14.281 -0.1897 -0.0658 -0.0017
 3660POSM   C2A42947  23.910  29.874  14.354  0.2968 -0.0947 -0.1403
 3660POSM   C3A42948  24.278  29.658  14.452 -0.2625  0.0770  0.0646
 3660POSM   C1B42949  23.350  30.731  14.234  0.0103  0.1660 -0.1510
 3660POSM   D2B42950  23.004  30.843  14.530 -0.1665  0.1068  0.1149
 3660POSM   C3B42951  22.778  31.190  14.699  0.1033 -0.2544  0.0940
 3660POSM   C4B42952  22.527  31.255  15.105 -0.0287 -0.0185 -0.4793
 3661DOPE   NH342953  28.730  25.426  13.907  0.2171  0.0098 -0.1314
 3661DOPE   PO442954  28.500  25.216  13.829  0.1772  0.0377 -0.2486
 3661DOPE   GL142955  28.340  25.365  14.244 -0.0813  0.4930 -0.0636
 3661DOPE   GL242956  28.440  25.628  14.259 -0.2785  0.0689 -0.0738
 3661DOPE   C1A42957  28.219  25.375  14.671  0.1478  0.0372 -0.0162
 3661DOPE   D2A42958  28.248  25.177  15.067 -0.0444 -0.0088 -0.0812
 3661DOPE   C3A42959  28.000  25.270  15.441  0.0545 -0.0764 -0.1840
 3661DOPE   C4A42960  27.760  25.557  15.721 -0.2797  0.1980  0.0019
 3661DOPE   C1B42961  28.170  25.845  14.563  0.0490 -0.3345 -0.0687
 3661DOPE   D2B42962  27.921  25.865  14.965 -0.0063  0.1073  0.1670
 3661DOPE   C3B42963  28.137  25.723  15.319  0.1098 -0.0038 -0.1117
 3661DOPE   C4B42964  28.462  25.401  15.467  0.3277  0.1639 -0.3442
 3662DOPS   CNO42965  26.464  28.647  13.150  0.0121 -0.1903 -0.0760
 3662DOPS   PO442966  26.480  28.468  13.515 -0.1348  0.3399 -0.2119
 3662DOPS   GL142967  26.290  28.490  13.940  0.1363 -0.0799 -0.2986
 3662DOPS   GL242968  26.349  28.697  14.067  0.0020 -0.0233  0.0164
 3662DOPS   C1A42969  26.536  28.249  14.270 -0.0978  0.0875  0.0483
 3662DOPS   D2A42970  26.730  28.079  14.625  0.0078  0.0111 -0.1140
 3662DOPS   C3A42971  26.353  27.966  14.898  0.0804  0.0257  0.3101
 3662DOPS   C4A42972  25.957  28.080  15.101  0.2495  0.1941  0.0738
 3662DOPS   C1B42973  26.564  28.898  14.446  0.0999  0.2679 -0.0488
 3662DOPS   D2B42974  26.649  28.929  14.844 -0.1381  0.2508  0.0245
 3662DOPS   C3B42975  27.066  28.886  15.086  0.0760  0.1242 -0.0207
 3662DOPS   C4B42976  27.507  29.009  15.024 -0.1818 -0.1704 -0.0792
 3663DOPC   NC342977  26.330  30.642  13.274  0.0082 -0.0275  0.0879
 3663DOPC   PO442978  26.677  30.398  13.304 -0.1308 -0.1079 -0.0057
 3663DOPC   GL142979  26.448  30.313  13.631  0.0073  0.2819  0.3562
 3663DOPC   GL242980  26.305  30.510  13.752 -0.3467 -0.1452  0.0488
 3663DOPC   C1A42981  26.157  29.972  13.847  0.3076  0.0542 -0.2806
 3663DOPC   D2A42982  25.812  29.788  14.138 -0.3094  0.1086 -0.1054
 3663DOPC   C3A42983  25.686  30.222  14.185  0.0389  0.0915 -0.1201
 3663DOPC   C4A42984  25.838  30.623  14.043  0.2296 -0.1300 -0.1319
 3663DOPC   C1B42985  26.032  30.919  13.674 -0.0610 -0.3022  0.1952
 3663DOPC   D2B42986  25.681  31.130  13.831  0.0754 -0.3063 -0.4064
 3663DOPC   C3B42987  25.257  31.128  13.682 -0.3685  0.2389 -0.0162
 3663DOPC   C4B42988  25.081  31.580  13.630 -0.0672 -0.1883  0.1017
 3664DOPC   NC342989  31.512  34.410  12.884  0.0143  0.0825 -0.0664
 3664DOPC   PO442990  31.303  34.157  13.052 -0.1072 -0.0349 -0.0128
 3664DOPC   GL142991  31.478  33.872  13.203 -0.1884 -0.1558 -0.2359
 3664DOPC   GL242992  31.324  33.686  12.956 -0.0793 -0.0311  0.3799
 3664DOPC   C1A42993  31.626  33.659  13.599 -0.1958  0.0023 -0.2614
 3664DOPC   D2A42994  31.740  33.367  13.937  0.1782  0.1026  0.0086
 3664DOPC   C3A42995  31.618  32.923  13.760  0.1698  0.1342  0.2503
 3664DOPC   C4A42996  31.641  32.424  13.836 -0.0123  0.2420 -0.2641
 3664DOPC   C1B42997  31.477  33.282  13.090 -0.1883  0.4441  0.0526
 3664DOPC   D2B42998  31.547  32.855  13.158 -0.0155 -0.0206  0.2233
 3664DOPC   C3B42999  31.432  32.410  13.221  0.2644 -0.0780 -0.0411
 3664DOPC   C4B43000  31.327  31.927  13.248 -0.1363  0.2948  0.1223
 3665DOPC   NC343001  25.223  28.294  13.967  0.1043 -0.1440  0.2601
 3665DOPC   PO443002  25.488  28.037  13.842  0.0368  0.7539 -0.0144
 3665DOPC   GL143003  25.710  28.082  14.238  0.1463  0.2764 -0.1682
 3665DOPC   GL243004  25.568  28.300  14.342  0.2042 -0.3184 -0.2783
 3665DOPC   C1A43005  26.110  28.172  14.518  0.2768 -0.1514 -0.0048
 3665DOPC   D2A43006  26.284  28.559  14.710  0.0672  0.1333 -0.1978
 3665DOPC   C3A43007  26.691  28.473  14.900  0.2045 -0.2723 -0.1546
 3665DOPC   C4A43008  26.829  28.389  15.298 -0.2279 -0.2688  0.2904
 3665DOPC   C1B43009  25.525  28.580  14.704 -0.0066  0.2235 -0.0453
 3665DOPC   D2B43010  25.516  28.540  15.136 -0.2055  0.0587 -0.0700
 3665DOPC   C3B43011  25.373  28.084  15.213 -0.0242  0.2247  0.3038
 3665DOPC   C4B43012  25.605  27.721  15.179 -0.0231  0.0913  0.2552
 3666DOPS   CNO43013  28.936  31.288  13.689  0.0711  0.0136  0.2766
 3666DOPS   PO443014  28.855  31.393  14.049 -0.4609  0.1156  0.3464
 3666DOPS   GL143015  28.958  31.351  14.452 -0.0475 -0.3849 -0.1490
 3666DOPS   GL243016  29.145  31.579  14.625 -0.0010  0.0378  0.1744
 3666DOPS   C1A43017  28.724  31.497  14.861  0.2171  0.1690 -0.2509
 3666DOPS   D2A43018  28.458  31.706  15.153  0.0903  0.0147  0.2780
 3666DOPS   C3A43019  28.812  31.937  15.387  0.2758 -0.2414 -0.1720
 3666DOPS   C4A43020  29.204  31.808  15.572  0.1497 -0.0694  0.0520
 3666DOPS   C1B43021  29.042  31.881  14.915 -0.1890  0.3480 -0.1702
 3666DOPS   D2B43022  29.211  32.256  15.109 -0.1069 -0.2824 -0.0480
 3666DOPS   C3B43023  29.132  32.278  15.537  0.1079 -0.0250 -0.1359
 3666DOPS   C4B43024  29.056  32.278  15.949  0.0444  0.2032 -0.2507
 3667POSM   NC343025  25.987  22.655  13.808  0.2373  0.1775 -0.1073
 3667POSM   PO443026  25.812  22.988  13.684  0.0198  0.1502 -0.0132
 3667POSM   AM143027  25.548  23.005  13.890  0.3688 -0.0109 -0.0110
 3667POSM   AM243028  25.361  23.189  13.964 -0.2809  0.3282  0.2176
 3667POSM   T1A43029  25.377  22.855  14.327 -0.2800 -0.3072 -0.0121
 3667POSM   C2A43030  25.028  22.758  14.581 -0.1069 -0.2302 -0.0070
 3667POSM   C3A43031  24.720  22.685  14.913  0.1615  0.0704  0.0748
 3667POSM   C1B43032  25.156  23.291  14.245 -0.1137  0.0583 -0.1357
 3667POSM   D2B43033  24.868  23.255  14.562 -0.1179  0.1623 -0.0706
 3667POSM   C3B43034  24.847  23.758  14.671 -0.0352  0.2120 -0.2652
 3667POSM   C4B43035  25.021  24.131  14.728  0.3673 -0.0224  0.0619
 3668POSM   NC343036  29.364  33.375  13.296  0.0491  0.1850 -0.0878
 3668POSM   PO443037  28.997  33.316  13.311 -0.1160 -0.1244 -0.2462
 3668POSM   AM143038  28.954  33.276  13.626 -0.3170 -0.1244  0.0840
 3668POSM   AM243039  29.168  33.233  13.782  0.0311 -0.0853 -0.1120
 3668POSM   T1A43040  28.678  33.111  13.963 -0.2249 -0.1032  0.0496
 3668POSM   C2A43041  28.704  32.997  14.415  0.2833  0.2303  0.2238
 3668POSM   C3A43042  28.749  32.915  14.854 -0.0327  0.2209  0.1647
 3668POSM   C1B43043  29.370  33.005  13.750  0.0105 -0.2548 -0.3387
 3668POSM   D2B43044  29.613  32.763  13.982  0.1907  0.2366 -0.5465
 3668POSM   C3B43045  29.541  32.978  14.375  0.1621  0.0561 -0.1195
 3668POSM   C4B43046  29.569  32.986  14.827 -0.0763 -0.2756  0.3684
 3669DOPE   NH343047  22.556  29.598  13.394  0.1512  0.0867  0.0308
 3669DOPE   PO443048  22.823  29.428  13.270 -0.2187 -0.0481  0.0641
 3669DOPE   GL143049  22.811  29.245  13.580  0.3415 -0.4728 -0.0217
 3669DOPE   GL243050  23.167  29.197  13.589  0.2956  0.2302 -0.0329
 3669DOPE   C1A43051  22.949  28.858  13.907  0.0927 -0.1867  0.1151
 3669DOPE   D2A43052  23.238  28.658  14.196  0.3864  0.0996  0.0653
 3669DOPE   C3A43053  23.281  28.284  14.453 -0.1450 -0.0774 -0.3104
 3669DOPE   C4A43054  23.083  28.048  14.815  0.0478 -0.2681 -0.1477
 3669DOPE   C1B43055  23.611  29.248  13.535 -0.0330 -0.0768  0.2546
 3669DOPE   D2B43056  23.951  29.608  13.533  0.1698  0.0670 -0.2395
 3669DOPE   C3B43057  24.422  29.555  13.543  0.0375 -0.1125  0.2143
 3669DOPE   C4B43058  24.799  29.380  13.310  0.1001  0.4201  0.0708
 3670DOPC   NC343059  28.334  23.029  14.072 -0.0130 -0.3978  0.0606
 3670DOPC   PO443060  28.682  23.027  13.863 -0.0194 -0.3620  0.1971
 3670DOPC   GL143061  28.806  22.944  14.278  0.2184 -0.1080  0.1896
 3670DOPC   GL243062  28.647  22.843  14.480  0.3312  0.0346  0.1905
 3670DOPC   C1A43063  28.968  23.166  14.709 -0.1449  0.3242 -0.0196
 3670DOPC   D2A43064  29.260  23.460  14.783 -0.1986 -0.0798  0.0042
 3670DOPC   C3A43065  29.714  23.299  14.880  0.1663 -0.1260 -0.1914
 3670DOPC   C4A43066  30.101  23.338  14.691 -0.1787 -0.1064  0.0626
 3670DOPC   C1B43067  28.556  22.420  14.739 -0.3024 -0.2364 -0.0592
 3670DOPC   D2B43068  28.087  22.305  14.780  0.4324 -0.1900 -0.1049
 3670DOPC   C3B43069  27.856  22.441  15.149 -0.0377 -0.0571  0.1346
 3670DOPC   C4B43070  27.405  22.335  15.170  0.0015 -0.0009 -0.3368
 3671POSM   NC343071  33.923  26.039  12.941  0.4379 -0.2044 -0.5262
 3671POSM   PO443072  34.084  25.716  13.103  0.0900  0.3189 -0.1695
 3671POSM   AM143073  34.070  25.871  13.410 -0.1013 -0.2826  0.0047
 3671POSM   AM243074  34.169  25.871  13.651  0.2545 -0.0263 -0.4034
 3671POSM   T1A43075  33.699  26.100  13.714 -0.1238 -0.0389 -0.0156
 3671POSM   C2A43076  33.273  26.168  13.649 -0.1729  0.0352  0.2621
 3671POSM   C3A43077  32.921  25.924  13.646  0.2040  0.1671  0.0500
 3671POSM   C1B43078  34.311  26.069  13.926 -0.0267 -0.0700  0.0462
 3671POSM   D2B43079  34.638  26.315  14.122  0.0176 -0.2254 -0.0343
 3671POSM   C3B43080  35.043  26.219  14.341 -0.4178  0.0038 -0.1196
 3671POSM   C4B43081  35.259  25.842  14.228  0.2154 -0.0641 -0.2705
 3672POSM   NC343082  28.644  30.382  13.487  0.1972  0.3764 -0.2733
 3672POSM   PO443083  28.701  30.382  13.862 -0.2709 -0.0525 -0.0870
 3672POSM   AM143084  28.768  30.216  14.137  0.1944  0.0115  0.2598
 3672POSM   AM243085  28.981  30.328  14.314 -0.0992  0.0547  0.3291
 3672POSM   T1A43086  28.711  29.861  14.466  0.0578 -0.0230 -0.1187
 3672POSM   C2A43087  28.920  29.585  14.727 -0.2204 -0.2115 -0.0021
 3672POSM   C3A43088  29.266  29.555  15.090 -0.2935  0.4181  0.2122
 3672POSM   C1B43089  28.895  30.353  14.649 -0.0344  0.0183 -0.1505
 3672POSM   D2B43090  29.027  30.540  15.028  0.1832 -0.0558 -0.0355
 3672POSM   C3B43091  28.775  30.423  15.391 -0.0395  0.0450  0.1027
 3672POSM   C4B43092  28.446  30.313  15.691 -0.1301  0.0660 -0.1221
 3673G1FFO Head43093  13.239  19.646  20.146  0.0435 -0.0325 -0.0953
 3673G1FFO Head43094  13.347  19.444  19.934  0.1860  0.2116  0.1186
 3673G1FFO Head43095  13.600  19.489  19.506  0.4291 -0.1490  0.1423
 3673G1FFO Head43096  13.716  19.385  19.776  0.0597 -0.2428 -0.1475
 3673G1FFO link43097  13.583  19.333  19.961  1.0197  0.0606 -0.5942
 3673G1FFO link43098  13.685  19.220  20.202  0.0428  0.0832 -0.2753
 3673G1FFO Tail43099  13.936  19.020  20.187 -0.5341 -0.0878  0.0725
 3673G1FFO Tail43100  14.181  19.247  20.287 -0.2933 -0.2097 -0.2040
 3673G1FFO Tail43101  14.428  19.138  20.332  0.0603 -0.2926  0.0619
 3673G1FFO Tail43102  14.524  18.981  20.150 -0.1425  0.2243 -0.1451
 3673G1FFO Tail43103  14.640  18.861  19.955  0.1079  0.0629  0.3830
 3673G1FFO Tail43104  14.692  18.784  19.732 -0.0842  0.2126  0.0427
 3673G1FFO Tail43105  14.030  19.053  19.853  0.2288 -0.0050 -0.3214
 3673G1FFO Tail43106  14.144  19.268  19.758 -0.0461 -0.0877 -0.0615
 3673G1FFO Tail43107  14.389  19.309  19.807  0.1668  0.3055 -0.1613
 3673G1FFO Tail43108  14.632  19.367  19.817 -0.0426  0.1536  0.0684
 3673G1FFO Tail43109  14.847  19.474  19.834  0.0741 -0.0215 -0.1284
 3674G1FFO Head43110  16.506  18.215  17.861  0.3824  0.0014  0.2237
 3674G1FFO Head43111  16.239  18.061  18.003  0.0543 -0.1073  0.0330
 3674G1FFO Head43112  16.069  18.239  17.617 -0.4290  0.0830  0.3968
 3674G1FFO Head43113  15.915  18.302  17.898  0.0378  0.6975 -0.0723
 3674G1FFO link43114  16.023  18.197  18.102  0.5205 -0.4426 -0.2757
 3674G1FFO link43115  15.951  18.243  18.376 -0.3670  0.1192  0.1508
 3674G1FFO Tail43116  15.663  18.127  18.463  0.0544 -0.1575  0.1427
 3674G1FFO Tail43117  15.601  18.371  18.700  0.0464  0.3041 -0.0463
 3674G1FFO Tail43118  15.734  18.342  18.926  0.0462  0.1184  0.1026
 3674G1FFO Tail43119  15.990  18.277  18.891  0.1340  0.0343  0.0789
 3674G1FFO Tail43120  16.222  18.203  18.838  0.1247 -0.1482  0.0713
 3674G1FFO Tail43121  16.405  18.100  18.736  0.1909  0.0681  0.1153
 3674G1FFO Tail43122  15.759  17.874  18.678  0.1108 -0.1438 -0.3538
 3674G1FFO Tail43123  16.005  17.798  18.696 -0.1367 -0.0455  0.1163
 3674G1FFO Tail43124  16.163  17.811  18.492 -0.2167 -0.3282 -0.1120
 3674G1FFO Tail43125  16.355  17.807  18.324  0.0074 -0.4144  0.0734
 3674G1FFO Tail43126  16.553  17.838  18.203  0.0363  0.1319 -0.0091
 3675G1FFO Head43127  14.296  19.795  23.219  0.3766  0.0989 -0.1364
 3675G1FFO Head43128  14.399  19.925  23.472 -0.0729  0.0044 -0.0374
 3675G1FFO Head43129  14.763  20.212  23.837 -0.1582  0.3306  0.5196
 3675G1FFO Head43130  14.761  20.064  23.592 -0.0901  0.2781  0.0953
 3675G1FFO link43131  14.635  19.858  23.593 -0.1721 -0.0386  0.3110
 3675G1FFO link43132  14.755  19.594  23.575  0.1163  0.3588  0.3928
 3675G1FFO Tail43133  15.083  19.570  23.599  0.0930 -0.3110 -0.0026
 3675G1FFO Tail43134  15.153  19.602  23.267  0.1221 -0.0965 -0.1847
 3675G1FFO Tail43135  15.385  19.517  23.172 -0.2921 -0.3411 -0.5521
 3675G1FFO Tail43136  15.548  19.370  23.332  0.2278  0.1865  0.2241
 3675G1FFO Tail43137  15.729  19.282  23.479  0.1480  0.2544  0.0266
 3675G1FFO Tail43138  15.857  19.180  23.650  0.1001 -0.0751  0.2431
 3675G1FFO Tail43139  15.103  19.229  23.607 -0.2279 -0.1010 -0.2189
 3675G1FFO Tail43140  15.216  19.073  23.415  0.1860 -0.0216  0.0294
 3675G1FFO Tail43141  15.157  19.117  23.165 -0.0555 -0.2038  0.1280
 3675G1FFO Tail43142  15.062  19.142  22.937 -0.0133  0.0005  0.0826
 3675G1FFO Tail43143  14.937  19.202  22.750  0.2418 -0.1544 -0.1239
 3676G1FFO Head43144  13.727  17.820  18.823  0.1989 -0.1801  0.1466
 3676G1FFO Head43145  13.876  18.018  19.030 -0.2636 -0.2480  0.0159
 3676G1FFO Head43146  13.249  18.130  19.413 -0.5058 -0.1474 -0.3161
 3676G1FFO Head43147  13.548  17.988  19.303  0.1514 -0.1575 -0.1448
 3676G1FFO link43148  13.730  18.150  19.229  0.1433  0.3608  0.0057
 3676G1FFO link43149  13.777  18.406  19.310  0.3091 -0.0864  0.3470
 3676G1FFO Tail43150  14.027  18.585  19.185  0.2111  0.0477  0.2934
 3676G1FFO Tail43151  14.306  18.362  19.144  0.2869  0.3647 -0.0169
 3676G1FFO Tail43152  14.287  18.113  19.238 -0.2981  0.2506  0.2591
 3676G1FFO Tail43153  14.399  17.911  19.114 -0.0103 -0.1910  0.1118
 3676G1FFO Tail43154  14.487  17.695  19.022 -0.0199  0.1736 -0.1762
 3676G1FFO Tail43155  14.514  17.479  18.932  0.1900 -0.1240  0.2229
 3676G1FFO Tail43156  14.116  18.767  19.468  0.2097  0.1840  0.2949
 3676G1FFO Tail43157  14.327  18.919  19.467  0.1692  0.2636 -0.4102
 3676G1FFO Tail43158  14.525  18.835  19.331 -0.0196  0.0701 -0.1855
 3676G1FFO Tail43159  14.715  18.709  19.217 -0.0967 -0.0344 -0.1390
 3676G1FFO Tail43160  14.888  18.656  19.078 -0.1325  0.0681 -0.1190
 3677G1FFO Head43161  15.986  20.738  22.235 -0.0467 -0.2264 -0.2104
 3677G1FFO Head43162  16.258  20.782  22.402  0.1422  0.0406 -0.1221
 3677G1FFO Head43163  16.713  21.186  22.516 -0.0132  0.2352  0.3062
 3677G1FFO Head43164  16.686  20.878  22.413  0.1161  0.4084 -0.2325
 3677G1FFO link43165  16.498  20.765  22.266  0.2588  0.0575 -0.1106
 3677G1FFO link43166  16.590  20.588  22.074 -0.0120 -0.0024  0.1891
 3677G1FFO Tail43167  16.909  20.597  21.966 -0.0205  0.3787 -0.0576
 3677G1FFO Tail43168  16.933  20.242  21.913  0.2827 -0.1358  0.1620
 3677G1FFO Tail43169  17.166  20.132  21.879  0.0478 -0.0834  0.4120
 3677G1FFO Tail43170  17.237  20.018  21.658  0.2003  0.0523  0.2002
 3677G1FFO Tail43171  17.324  19.954  21.427 -0.0995  0.0660 -0.0316
 3677G1FFO Tail43172  17.374  19.964  21.201 -0.0297 -0.2476 -0.1297
 3677G1FFO Tail43173  17.148  20.654  22.211  0.3653  0.0261  0.2297
 3677G1FFO Tail43174  17.318  20.453  22.259  0.0877  0.0749 -0.1451
 3677G1FFO Tail43175  17.257  20.273  22.433  0.1654  0.2561 -0.0231
 3677G1FFO Tail43176  17.158  20.131  22.616  0.2111  0.2437  0.0000
 3677G1FFO Tail43177  17.036  19.961  22.741  0.0887  0.0666 -0.0021
 3678G1FFO Head43178  18.654  16.586  24.245  0.2662  0.1238  0.0903
 3678G1FFO Head43179  18.914  16.569  24.108 -0.0341  0.1179  0.0445
 3678G1FFO Head43180  19.373  16.698  24.117  0.2107 -0.0248  0.1859
 3678G1FFO Head43181  19.169  16.695  23.838 -0.1784 -0.4081  0.3035
 3678G1FFO link43182  18.923  16.660  23.877  0.0081 -0.4747 -0.5248
 3678G1FFO link43183  18.728  16.839  23.794  0.3053 -0.0751  0.0558
 3678G1FFO Tail43184  18.808  17.053  23.556 -0.3557 -0.1048 -0.0194
 3678G1FFO Tail43185  18.542  17.028  23.335  0.1311 -0.1770  0.1265
 3678G1FFO Tail43186  18.332  16.884  23.410 -0.1636  0.0553  0.2429
 3678G1FFO Tail43187  18.273  16.862  23.649 -0.1651 -0.1674 -0.1505
 3678G1FFO Tail43188  18.169  16.813  23.875 -0.0156  0.0576  0.0469
 3678G1FFO Tail43189  18.131  16.722  24.087  0.0622 -0.0319  0.0793
 3678G1FFO Tail43190  19.024  16.850  23.363 -0.0071 -0.2114 -0.2895
 3678G1FFO Tail43191  18.946  16.607  23.296  0.3299 -0.0467  0.3197
 3678G1FFO Tail43192  18.732  16.517  23.406  0.0098  0.1081 -0.4768
 3678G1FFO Tail43193  18.509  16.446  23.512 -0.0049 -0.2093  0.0580
 3678G1FFO Tail43194  18.283  16.407  23.542 -0.1812  0.4315 -0.2306
 3679G1FFO Head43195  17.386  17.234  19.984  0.1253  0.0901 -0.1464
 3679G1FFO Head43196  17.107  17.217  19.852 -0.1980 -0.3743  0.1057
 3679G1FFO Head43197  17.168  17.727  19.924 -0.0783 -0.0713  0.3017
 3679G1FFO Head43198  17.185  17.557  19.654 -0.2672 -0.0346  0.4118
 3679G1FFO link43199  17.046  17.354  19.627  0.0942 -0.0022 -0.2094
 3679G1FFO link43200  16.880  17.263  19.424  0.1757 -0.2436  0.0988
 3679G1FFO Tail43201  16.749  17.469  19.200 -0.1821  0.0389  0.0902
 3679G1FFO Tail43202  16.983  17.713  19.212  0.2330  0.0828 -0.0035
 3679G1FFO Tail43203  17.075  17.814  18.996  0.2356 -0.0066 -0.1912
 3679G1FFO Tail43204  17.098  18.068  18.952 -0.1559  0.1007 -0.0239
 3679G1FFO Tail43205  17.098  18.321  18.924  0.0306 -0.1424  0.1205
 3679G1FFO Tail43206  17.080  18.534  18.828  0.2316 -0.0175  0.3861
 3679G1FFO Tail43207  16.496  17.625  19.384 -0.0657 -0.3938 -0.1232
 3679G1FFO Tail43208  16.405  17.868  19.323 -0.3168  0.0155 -0.3109
 3679G1FFO Tail43209  16.159  17.874  19.236  0.0674  0.0402 -0.0758
 3679G1FFO Tail43210  15.927  17.835  19.133  0.0904 -0.0795  0.2874
 3679G1FFO Tail43211  15.695  17.830  19.080  0.1837  0.0184 -0.2621
 3680G1FFO Head43212  14.305  17.081  19.860 -0.1676  0.1713  0.3212
 3680G1FFO Head43213  14.312  17.302  20.050 -0.1218  0.2273 -0.6677
 3680G1FFO Head43214  14.480  17.974  20.113 -0.1048 -0.1854  0.1309
 3680G1FFO Head43215  14.354  17.711  20.063  0.2137  0.1245 -0.0443
 3680G1FFO link43216  14.472  17.507  20.011 -0.5740 -0.5735  0.0592
 3680G1FFO link43217  14.732  17.514  19.867 -0.3565 -0.0365  0.1628
 3680G1FFO Tail43218  14.861  17.234  19.759 -0.3471 -0.0009 -0.0942
 3680G1FFO Tail43219  15.169  17.362  19.663  0.0479 -0.2315  0.0551
 3680G1FFO Tail43220  15.290  17.574  19.756 -0.1414 -0.0994 -0.0566
 3680G1FFO Tail43221  15.309  17.787  19.618 -0.0756 -0.0005  0.0768
 3680G1FFO Tail43222  15.345  18.001  19.493 -0.0111 -0.2095 -0.1512
 3680G1FFO Tail43223  15.459  18.172  19.367  0.0403  0.0519 -0.1220
 3680G1FFO Tail43224  14.711  17.207  19.443 -0.0845  0.2777 -0.2535
 3680G1FFO Tail43225  14.841  17.256  19.220 -0.0044 -0.0743 -0.0734
 3680G1FFO Tail43226  15.094  17.195  19.206 -0.0577  0.0074 -0.1054
 3680G1FFO Tail43227  15.334  17.110  19.218 -0.1681  0.1241  0.1101
 3680G1FFO Tail43228  15.544  17.026  19.163  0.1940 -0.1201 -0.0318
 3681G1FFO Head43229  16.696  19.706  20.965 -0.6050  0.1713 -0.0130
 3681G1FFO Head43230  16.699  19.961  20.836 -0.0714  0.3759  0.5623
 3681G1FFO Head43231  16.881  20.434  20.830 -0.2826 -0.3203  0.0944
 3681G1FFO Head43232  16.907  20.241  20.620 -0.0826 -0.1668  0.0725
 3681G1FFO link43233  16.900  19.980  20.672  0.2340 -0.2011 -0.1349
 3681G1FFO link43234  17.024  19.762  20.543 -0.1507  0.3239  0.1996
 3681G1FFO Tail43235  16.828  19.577  20.353 -0.1399  0.0536  0.3437
 3681G1FFO Tail43236  16.554  19.793  20.417  0.0379 -0.2617 -0.0722
 3681G1FFO Tail43237  16.316  19.711  20.436  0.0762  0.3607  0.0223
 3681G1FFO Tail43238  16.134  19.882  20.360  0.0310  0.1606 -0.0143
 3681G1FFO Tail43239  15.991  20.056  20.236  0.0916  0.1146 -0.1122
 3681G1FFO Tail43240  15.870  20.164  20.072  0.0527 -0.1043  0.1002
 3681G1FFO Tail43241  16.742  19.352  20.602  0.4029 -0.0002 -0.3349
 3681G1FFO Tail43242  16.492  19.266  20.625 -0.0759  0.2136 -0.1594
 3681G1FFO Tail43243  16.457  19.011  20.692 -0.0989 -0.1019  0.1309
 3681G1FFO Tail43244  16.430  18.779  20.790  0.0972  0.0468  0.2237
 3681G1FFO Tail43245  16.350  18.567  20.846  0.0287 -0.0951 -0.0317
 3682G1FFO Head43246  16.070  13.857  22.213 -0.3485 -0.3750 -0.1177
 3682G1FFO Head43247  16.331  13.766  22.333 -0.1820 -0.2286 -0.1673
 3682G1FFO Head43248  16.926  13.634  22.193  0.1641  0.0850  0.4211
 3682G1FFO Head43249  16.763  13.817  22.353 -0.2794 -0.0603 -0.1697
 3682G1FFO link43250  16.538  13.923  22.258 -0.3349 -0.2244 -0.9405
 3682G1FFO link43251  16.529  14.178  22.129  0.2587 -0.2189 -0.0367
 3682G1FFO Tail43252  16.320  14.263  21.879 -0.3542  0.4707 -0.4391
 3682G1FFO Tail43253  16.536  14.207  21.597  0.2531 -0.4313  0.1280
 3682G1FFO Tail43254  16.490  14.263  21.342 -0.0977 -0.3071 -0.2093
 3682G1FFO Tail43255  16.668  14.189  21.165 -0.1620  0.0172  0.0079
 3682G1FFO Tail43256  16.878  14.138  21.020 -0.2332 -0.0267  0.0243
 3682G1FFO Tail43257  17.098  14.140  20.952 -0.4329 -0.3228 -0.0315
 3682G1FFO Tail43258  16.374  14.593  21.883  0.0162 -0.2608 -0.3330
 3682G1FFO Tail43259  16.191  14.771  21.963 -0.0892 -0.5440 -0.1525
 3682G1FFO Tail43260  16.150  14.969  21.800  0.2762  0.2217 -0.2953
 3682G1FFO Tail43261  16.095  15.138  21.616 -0.3939  0.0150  0.0818
 3682G1FFO Tail43262  16.047  15.332  21.502  0.0207 -0.1043 -0.2143
 3683G1FFO Head43263  20.823  17.142  19.615  0.1908 -0.1170 -0.0604
 3683G1FFO Head43264  20.739  16.947  19.866  0.1101 -0.0035  0.2220
 3683G1FFO Head43265  20.830  16.391  19.431 -0.0028  0.1006 -0.2143
 3683G1FFO Head43266  20.688  16.656  19.583 -0.2982  0.0125  0.1015
 3683G1FFO link43267  20.703  16.688  19.833  0.0807 -0.1144  0.0685
 3683G1FFO link43268  20.664  16.508  20.034  0.1553  0.0367 -0.1896
 3683G1FFO Tail43269  20.418  16.292  20.019 -0.2465  0.3037  0.2219
 3683G1FFO Tail43270  20.549  16.019  20.136 -0.1330  0.5037 -0.1278
 3683G1FFO Tail43271  20.796  15.956  20.066 -0.2366  0.0859 -0.0053
 3683G1FFO Tail43272  20.831  15.712  19.970  0.0740  0.0817  0.0851
 3683G1FFO Tail43273  20.827  15.471  19.876 -0.1210 -0.1235  0.0818
 3683G1FFO Tail43274  20.857  15.243  19.849  0.0353  0.1107 -0.3338
 3683G1FFO Tail43275  20.409  16.224  19.672 -0.0227  0.2915  0.3014
 3683G1FFO Tail43276  20.231  16.049  19.570 -0.1504 -0.3217  0.0444
 3683G1FFO Tail43277  20.089  15.938  19.756 -0.0527 -0.0264  0.1513
 3683G1FFO Tail43278  19.971  15.852  19.959 -0.0938 -0.1416  0.1580
 3683G1FFO Tail43279  19.869  15.726  20.122 -0.1222  0.2138  0.1998
 3684G1FFO Head43280  19.399  19.729  20.770  0.1123 -0.3632  0.1190
 3684G1FFO Head43281  19.564  19.478  20.814  0.1906 -0.2597  0.0512
 3684G1FFO Head43282  19.716  19.055  20.784 -0.0072 -0.1392  0.2007
 3684G1FFO Head43283  19.712  19.185  21.041  0.2932  0.1015 -0.1242
 3684G1FFO link43284  19.587  19.396  21.053 -0.0020  0.0903  0.2029
 3684G1FFO link43285  19.433  19.489  21.284  0.0821  0.0156  0.0282
 3684G1FFO Tail43286  19.176  19.317  21.388  0.2971  0.0883  0.1170
 3684G1FFO Tail43287  19.245  19.031  21.219  0.2330  0.1577 -0.0640
 3684G1FFO Tail43288  19.290  19.053  20.959  0.1626 -0.0779 -0.0408
 3684G1FFO Tail43289  19.149  19.231  20.838 -0.0467 -0.1288  0.2674
 3684G1FFO Tail43290  19.025  19.374  20.675  0.1703 -0.0398  0.4052
 3684G1FFO Tail43291  18.891  19.540  20.570  0.1486 -0.1460  0.1718
 3684G1FFO Tail43292  18.933  19.469  21.208 -0.1722 -0.0959 -0.0258
 3684G1FFO Tail43293  18.974  19.701  21.130  0.1812 -0.2748  0.2826
 3684G1FFO Tail43294  18.796  19.790  20.952  0.1268  0.0131  0.2813
 3684G1FFO Tail43295  18.640  19.895  20.777 -0.0814 -0.1122  0.2482
 3684G1FFO Tail43296  18.455  19.970  20.659 -0.0583  0.1328  0.1505
 3685G1FFO Head43297  16.308  20.090  23.962 -0.2655 -0.1830  0.1632
 3685G1FFO Head43298  16.476  20.222  23.714  0.0935 -0.0787 -0.1045
 3685G1FFO Head43299  15.932  20.489  23.826 -0.2824 -0.1478 -0.1668
 3685G1FFO Head43300  16.251  20.559  23.742  0.0726  0.2649 -0.2384
 3685G1FFO link43301  16.347  20.387  23.583  0.3428  0.1263 -0.1278
 3685G1FFO link43302  16.335  20.413  23.302  0.3367  0.3489  0.1280
 3685G1FFO Tail43303  16.125  20.250  23.083 -0.5397  0.0785 -0.3261
 3685G1FFO Tail43304  16.269  19.909  23.057  0.3236  0.2329  0.1860
 3685G1FFO Tail43305  16.275  19.771  22.830 -0.2647 -0.1556 -0.2309
 3685G1FFO Tail43306  16.420  19.846  22.624 -0.1600 -0.0875 -0.0245
 3685G1FFO Tail43307  16.575  19.958  22.454  0.0257 -0.0265 -0.1590
 3685G1FFO Tail43308  16.657  20.081  22.269  0.1183  0.0453  0.3516
 3685G1FFO Tail43309  16.219  20.382  22.772  0.1402  0.3151  0.4508
 3685G1FFO Tail43310  16.074  20.393  22.554 -0.2003  0.4140 -0.0535
 3685G1FFO Tail43311  16.176  20.297  22.337  0.0234 -0.1012  0.0129
 3685G1FFO Tail43312  16.235  20.220  22.105 -0.0202 -0.3874 -0.1682
 3685G1FFO Tail43313  16.295  20.131  21.902  0.1393 -0.1835 -0.0131
 3686G1FFO Head43314  14.582  19.808  22.296  0.3610  0.1841 -0.1489
 3686G1FFO Head43315  14.610  19.940  21.985  0.0311  0.0656  0.2223
 3686G1FFO Head43316  14.305  19.545  21.749 -0.0623 -0.5225  0.1365
 3686G1FFO Head43317  14.616  19.577  21.787  0.0179 -0.3262  0.5762
 3686G1FFO link43318  14.713  19.811  21.768 -0.2627  0.4752 -0.3217
 3686G1FFO link43319  14.786  19.954  21.531 -0.1435  0.1350 -0.1743
 3686G1FFO Tail43320  15.127  20.009  21.502  0.0012 -0.2651  0.2289
 3686G1FFO Tail43321  15.204  20.277  21.702 -0.1570  0.2051  0.2372
 3686G1FFO Tail43322  15.316  20.244  21.944  0.2450  0.2144  0.3964
 3686G1FFO Tail43323  15.223  20.045  22.092  0.0766  0.0164  0.2194
 3686G1FFO Tail43324  15.103  19.846  22.202 -0.0746  0.0439  0.1597
 3686G1FFO Tail43325  14.980  19.704  22.336 -0.2081  0.0949 -0.2540
 3686G1FFO Tail43326  15.146  20.133  21.173  0.1250  0.0028  0.1745
 3686G1FFO Tail43327  15.261  20.040  20.969 -0.0437  0.2174  0.1580
 3686G1FFO Tail43328  15.375  19.809  20.943 -0.2590 -0.2505  0.0558
 3686G1FFO Tail43329  15.517  19.598  20.883 -0.0993  0.0000  0.1019
 3686G1FFO Tail43330  15.600  19.379  20.894  0.3793  0.1163 -0.0005
 3687G1FFO Head43331  16.497  15.227  19.372 -0.1052  0.1006 -0.2163
 3687G1FFO Head43332  16.223  15.152  19.270  0.2742 -0.3522 -0.1178
 3687G1FFO Head43333  16.002  15.798  19.362 -0.3927 -0.0037 -0.0684
 3687G1FFO Head43334  16.143  15.551  19.247  0.3290 -0.3404 -0.2356
 3687G1FFO link43335  16.024  15.325  19.284 -0.0374 -0.6873  0.3847
 3687G1FFO link43336  15.751  15.252  19.278 -0.0678  0.2312 -0.0237
 3687G1FFO Tail43337  15.633  14.974  19.132  0.1479 -0.0665 -0.0356
 3687G1FFO Tail43338  15.795  14.699  19.300  0.1156 -0.1057  0.0423
 3687G1FFO Tail43339  15.998  14.735  19.468 -0.1402 -0.0082  0.1608
 3687G1FFO Tail43340  16.023  14.964  19.601 -0.0792 -0.0297 -0.1485
 3687G1FFO Tail43341  16.036  15.212  19.704  0.2324 -0.0157  0.2076
 3687G1FFO Tail43342  16.096  15.406  19.827 -0.0492  0.1731 -0.1408
 3687G1FFO Tail43343  15.813  14.950  18.830 -0.0337 -0.1571 -0.1042
 3687G1FFO Tail43344  16.021  15.107  18.795 -0.1259 -0.0755  0.0678
 3687G1FFO Tail43345  16.001  15.359  18.826  0.1510 -0.0662 -0.0911
 3687G1FFO Tail43346  15.930  15.602  18.846 -0.0352  0.0677 -0.2015
 3687G1FFO Tail43347  15.910  15.829  18.810 -0.0342 -0.3588 -0.1204
 3688G1FFO Head43348  18.839  14.088  21.222  0.0900  0.0973 -0.0049
 3688G1FFO Head43349  18.553  14.210  21.228 -0.1306 -0.1644  0.5378
 3688G1FFO Head43350  18.996  14.502  21.117 -0.2361 -0.3581 -0.1029
 3688G1FFO Head43351  18.676  14.580  21.182  0.0410  0.2896  0.0783
 3688G1FFO link43352  18.493  14.431  21.074 -0.1656 -0.1842 -0.3297
 3688G1FFO link43353  18.234  14.544  20.997 -0.1913 -0.0902 -0.2881
 3688G1FFO Tail43354  18.178  14.866  21.020 -0.1233  0.1650  0.0722
 3688G1FFO Tail43355  18.242  14.972  20.682 -0.0991 -0.1749 -0.1467
 3688G1FFO Tail43356  18.380  14.809  20.519  0.4010 -0.1432  0.3013
 3688G1FFO Tail43357  18.537  14.627  20.608  0.1802  0.0625 -0.1139
 3688G1FFO Tail43358  18.650  14.417  20.698  0.1220 -0.1208 -0.1968
 3688G1FFO Tail43359  18.747  14.201  20.735  0.2835 -0.2779 -0.0735
 3688G1FFO Tail43360  18.477  14.973  21.145  0.1967 -0.0771  0.5048
 3688G1FFO Tail43361  18.544  15.225  21.208  0.3004  0.0280  0.2671
 3688G1FFO Tail43362  18.512  15.294  21.459  0.0857 -0.0202 -0.3145
 3688G1FFO Tail43363  18.498  15.322  21.719  0.0279 -0.2498  0.1474
 3688G1FFO Tail43364  18.518  15.394  21.943  0.0823 -0.1614 -0.0428
 3689G1FFO Head43365  13.892  14.743  20.065 -0.1080 -0.1489  0.0525
 3689G1FFO Head43366  14.096  14.919  19.978 -0.3377  0.1482  0.1074
 3689G1FFO Head43367  13.734  14.744  19.432 -0.0099  0.1492  0.1057
 3689G1FFO Head43368  13.871  14.984  19.625  0.3195  0.1278 -0.3853
 3689G1FFO link43369  14.111  14.980  19.711  0.2060 -0.4664 -0.1352
 3689G1FFO link43370  14.332  14.983  19.543 -0.1496 -0.0882 -0.0683
 3689G1FFO Tail43371  14.619  14.852  19.636  0.7862  0.0813  0.3746
 3689G1FFO Tail43372  14.813  14.985  19.388 -0.0983 -0.2821  0.1051
 3689G1FFO Tail43373  14.853  15.248  19.348  0.2672  0.2250 -0.0564
 3689G1FFO Tail43374  14.689  15.400  19.490 -0.1020 -0.0047  0.3122
 3689G1FFO Tail43375  14.564  15.567  19.630  0.2202 -0.1236 -0.3716
 3689G1FFO Tail43376  14.491  15.762  19.753 -0.2309  0.1396  0.1110
 3689G1FFO Tail43377  14.578  14.504  19.580  0.3691 -0.2240 -0.1687
 3689G1FFO Tail43378  14.728  14.387  19.405 -0.1244 -0.5374  0.2235
 3689G1FFO Tail43379  14.920  14.229  19.474 -0.0021  0.0454 -0.0338
 3689G1FFO Tail43380  15.100  14.080  19.592  0.0252 -0.0010  0.1629
 3689G1FFO Tail43381  15.204  13.943  19.750 -0.2258 -0.1479 -0.2553
 3690G1FFO Head43382  16.017  16.268  23.819  0.4174 -0.0552 -0.0700
 3690G1FFO Head43383  16.295  16.431  23.850  0.0451  0.0162 -0.0091
 3690G1FFO Head43384  16.446  15.999  24.020  0.1429 -0.3034  0.2576
 3690G1FFO Head43385  16.585  16.157  23.771 -0.0621 -0.0870  0.2222
 3690G1FFO link43386  16.458  16.352  23.662 -0.3660 -0.2195  0.0164
 3690G1FFO link43387  16.405  16.380  23.382 -0.0557 -0.3563  0.0143
 3690G1FFO Tail43388  16.308  16.666  23.221  0.3258  0.3992 -0.0734
 3690G1FFO Tail43389  16.597  16.784  23.109 -0.1123  0.1410 -0.0184
 3690G1FFO Tail43390  16.687  16.752  22.867  0.4827  0.1191  0.1618
 3690G1FFO Tail43391  16.814  16.957  22.755 -0.0201  0.0186 -0.2233
 3690G1FFO Tail43392  16.921  17.152  22.632 -0.0650 -0.3749 -0.1225
 3690G1FFO Tail43393  17.024  17.303  22.466 -0.0289  0.0295 -0.0335
 3690G1FFO Tail43394  16.238  16.874  23.507 -0.0368  0.0849 -0.1415
 3690G1FFO Tail43395  16.349  17.107  23.517 -0.5180  0.0862 -0.2394
 3690G1FFO Tail43396  16.412  17.226  23.285 -0.0378 -0.3203 -0.1277
 3690G1FFO Tail43397  16.513  17.324  23.069  0.4451  0.1968 -0.0317
 3690G1FFO Tail43398  16.646  17.421  22.904  0.1233  0.0217  0.2423
 3691G1FFO Head43399  17.359  19.411  22.653  0.2528  0.1013 -0.1062
 3691G1FFO Head43400  17.172  19.498  22.437 -0.0531  0.2266  0.1731
 3691G1FFO Head43401  17.596  19.210  22.046 -0.2435 -0.0048  0.0800
 3691G1FFO Head43402  17.471  19.470  22.151  0.3833 -0.1458  0.0743
 3691G1FFO link43403  17.218  19.489  22.162  0.1735 -0.1423  0.1607
 3691G1FFO link43404  17.038  19.328  21.995 -0.0195 -0.1155 -0.1511
 3691G1FFO Tail43405  17.060  19.321  21.660 -0.0480  0.1645  0.3925
 3691G1FFO Tail43406  17.401  19.425  21.625 -0.2023  0.2415 -0.2549
 3691G1FFO Tail43407  17.466  19.657  21.754  0.2160 -0.1069  0.4337
 3691G1FFO Tail43408  17.705  19.702  21.829  0.1385 -0.1005 -0.0360
 3691G1FFO Tail43409  17.920  19.754  21.942  0.1223  0.1117  0.1076
 3691G1FFO Tail43410  18.144  19.768  22.007  0.1299 -0.0295  0.2032
 3691G1FFO Tail43411  16.952  19.644  21.586 -0.2857 -0.1774  0.0870
 3691G1FFO Tail43412  16.797  19.694  21.378  0.2227  0.0715 -0.0298
 3691G1FFO Tail43413  16.580  19.831  21.408 -0.1120 -0.0162  0.0417
 3691G1FFO Tail43414  16.364  19.950  21.377 -0.0211 -0.0103 -0.2890
 3691G1FFO Tail43415  16.148  20.005  21.307 -0.1513 -0.3952  0.1993
 3692G1FFO Head43416  16.460  20.301  18.127  0.0825  0.2048  0.1628
 3692G1FFO Head43417  16.461  20.035  18.234  0.0477  0.3300 -0.2673
 3692G1FFO Head43418  16.329  20.273  18.633 -0.1623  0.1999  0.1173
 3692G1FFO Head43419  16.533  20.042  18.649  0.0389  0.0163 -0.0848
 3692G1FFO link43420  16.622  19.946  18.442  0.0283  0.1396  0.5591
 3692G1FFO link43421  16.768  19.707  18.432 -0.3180  0.0531  0.2345
 3692G1FFO Tail43422  16.624  19.425  18.497  0.2914 -0.1267 -0.2561
 3692G1FFO Tail43423  16.407  19.526  18.760  0.0720 -0.1990  0.6014
 3692G1FFO Tail43424  16.514  19.635  18.983 -0.1233 -0.2859  0.2645
 3692G1FFO Tail43425  16.727  19.779  18.957 -0.0595  0.1768  0.3347
 3692G1FFO Tail43426  16.942  19.893  18.879  0.0281  0.2171  0.0866
 3692G1FFO Tail43427  17.157  19.979  18.851 -0.1656 -0.0356 -0.2865
 3692G1FFO Tail43428  16.867  19.273  18.701  0.0231 -0.0305  0.2626
 3692G1FFO Tail43429  16.838  19.013  18.773 -0.0854 -0.0324  0.0679
 3692G1FFO Tail43430  16.956  18.922  18.984  0.2070 -0.0188  0.0336
 3692G1FFO Tail43431  17.090  18.821  19.178 -0.0782  0.0061  0.0539
 3692G1FFO Tail43432  17.257  18.713  19.311 -0.1418  0.0104  0.1443
 3693G1FFO Head43433  21.335  17.361  20.965  0.1313  0.0296  0.3415
 3693G1FFO Head43434  21.380  17.112  21.055 -0.0503 -0.1144  0.0839
 3693G1FFO Head43435  21.873  17.070  21.335 -0.0261 -0.0091  0.0889
 3693G1FFO Head43436  21.592  16.927  21.353 -0.0161 -0.4160 -0.0420
 3693G1FFO link43437  21.391  17.053  21.303  0.1938  0.2312  0.2936
 3693G1FFO link43438  21.187  17.093  21.491  0.0450 -0.1761 -0.1827
 3693G1FFO Tail43439  20.926  17.265  21.427  0.0656  0.3638  0.3136
 3693G1FFO Tail43440  20.843  17.065  21.131 -0.0524 -0.1688  0.2510
 3693G1FFO Tail43441  20.835  16.806  21.157  0.2293  0.0828 -0.1482
 3693G1FFO Tail43442  20.897  16.710  21.395  0.0937 -0.2489  0.2947
 3693G1FFO Tail43443  20.920  16.658  21.639 -0.0958  0.2115 -0.0900
 3693G1FFO Tail43444  20.887  16.567  21.857 -0.0382  0.3166  0.3263
 3693G1FFO Tail43445  21.063  17.551  21.283  0.0576  0.0025 -0.3088
 3693G1FFO Tail43446  20.936  17.648  21.070 -0.0149 -0.0560  0.0812
 3693G1FFO Tail43447  20.865  17.496  20.868  0.0116 -0.1558 -0.1838
 3693G1FFO Tail43448  20.812  17.370  20.656 -0.3718  0.0180  0.1959
 3693G1FFO Tail43449  20.832  17.265  20.453 -0.2292 -0.0580  0.3728
 3694G1FFO Head43450  13.525  17.282  18.075 -0.0897  0.0610 -0.5438
 3694G1FFO Head43451  13.822  17.397  18.094 -0.0800  0.0777  0.4030
 3694G1FFO Head43452  14.234  17.599  17.967  0.3702 -0.1714 -0.0802
 3694G1FFO Head43453  14.089  17.663  18.241 -0.0366  0.3093 -0.1299
 3694G1FFO link43454  13.909  17.479  18.316  0.2102  0.1724  0.0988
 3694G1FFO link43455  13.809  17.418  18.579 -0.2291  0.6207 -0.4553
 3694G1FFO Tail43456  13.963  17.251  18.826  0.0821 -0.3440  0.4338
 3694G1FFO Tail43457  14.009  17.523  19.028  0.0730 -0.0341 -0.4132
 3694G1FFO Tail43458  13.844  17.571  19.247  0.1143 -0.1416  0.1051
 3694G1FFO Tail43459  13.901  17.767  19.406 -0.0829  0.0216  0.1569
 3694G1FFO Tail43460  13.959  17.977  19.535 -0.1416  0.1109 -0.0772
 3694G1FFO Tail43461  14.049  18.181  19.600  0.0120 -0.3221  0.1124
 3694G1FFO Tail43462  14.272  17.211  18.674 -0.1291  0.0840  0.0514
 3694G1FFO Tail43463  14.310  17.311  18.429  0.1412  0.0761 -0.0120
 3694G1FFO Tail43464  14.543  17.409  18.360  0.0267 -0.1450  0.6030
 3694G1FFO Tail43465  14.763  17.524  18.312 -0.3753 -0.0813 -0.0993
 3694G1FFO Tail43466  14.987  17.592  18.314 -0.2214 -0.0803 -0.0689
 3695G1FFO Head43467  14.834  19.441  24.032  0.1718  0.0815 -0.0135
 3695G1FFO Head43468  14.772  19.214  23.848  0.0908  0.2397 -0.2132
 3695G1FFO Head43469  14.333  19.170  24.063 -0.2709 -0.1797 -0.2434
 3695G1FFO Head43470  14.576  18.983  24.104  0.4921 -0.0096 -0.0609
 3695G1FFO link43471  14.758  18.977  23.930  0.3572 -0.2441  0.5243
 3695G1FFO link43472  14.863  18.746  23.797  0.2659 -0.0817 -0.1314
 3695G1FFO Tail43473  14.998  18.752  23.489  0.1203  0.0440 -0.0929
 3695G1FFO Tail43474  14.722  18.905  23.335 -0.0799  0.0234 -0.0208
 3695G1FFO Tail43475  14.689  19.167  23.357 -0.0979 -0.3166 -0.0275
 3695G1FFO Tail43476  14.659  19.323  23.150 -0.1388  0.1250 -0.1269
 3695G1FFO Tail43477  14.596  19.452  22.931 -0.2005 -0.0062 -0.0504
 3695G1FFO Tail43478  14.549  19.507  22.707 -0.0161  0.0109  0.2503
 3695G1FFO Tail43479  14.885  18.432  23.391  0.1501 -0.3129  0.1291
 3695G1FFO Tail43480  15.026  18.273  23.229 -0.0363  0.3012  0.0750
 3695G1FFO Tail43481  14.912  18.059  23.144  0.0102 -0.1181 -0.1518
 3695G1FFO Tail43482  14.813  17.828  23.087  0.1414  0.1828 -0.0779
 3695G1FFO Tail43483  14.780  17.608  23.025 -0.1270  0.0299 -0.1712
 3696G1FFO Head43484  18.557  16.364  17.417  0.0168 -0.1285  0.0330
 3696G1FFO Head43485  18.308  16.298  17.541 -0.0332  0.0253  0.0595
 3696G1FFO Head43486  18.083  16.735  17.602  0.0155 -0.3458 -0.1876
 3696G1FFO Head43487  18.085  16.515  17.820 -0.1285  0.0293 -0.1687
 3696G1FFO link43488  18.237  16.323  17.800 -0.1687  0.2029 -0.1138
 3696G1FFO link43489  18.433  16.251  17.998 -0.2314 -0.5124 -0.1252
 3696G1FFO Tail43490  18.365  16.258  18.315 -0.2952 -0.3034 -0.0153
 3696G1FFO Tail43491  18.031  16.312  18.291  0.1497 -0.1031 -0.0378
 3696G1FFO Tail43492  17.833  16.220  18.427  0.1975  0.0753 -0.1423
 3696G1FFO Tail43493  17.591  16.330  18.427 -0.1128 -0.0855 -0.0360
 3696G1FFO Tail43494  17.375  16.465  18.433 -0.0631 -0.0173 -0.2047
 3696G1FFO Tail43495  17.151  16.527  18.423  0.1078 -0.0379 -0.3892
 3696G1FFO Tail43496  18.553  16.534  18.428 -0.2724  0.3959  0.0881
 3696G1FFO Tail43497  18.792  16.586  18.358 -0.2922 -0.2867  0.0510
 3696G1FFO Tail43498  18.844  16.724  18.145 -0.1673 -0.3107  0.0480
 3696G1FFO Tail43499  18.913  16.841  17.927  0.0361  0.1588 -0.2298
 3696G1FFO Tail43500  19.017  16.919  17.735  0.2116  0.1897  0.0163
 3697G1FFO Head43501  14.852  17.177  21.173 -0.0702  0.0830 -0.1889
 3697G1FFO Head43502  14.775  17.414  20.923  0.4733 -0.1727  0.2268
 3697G1FFO Head43503  14.363  17.199  21.218 -0.1794 -0.0149 -0.0261
 3697G1FFO Head43504  14.387  17.469  21.067 -0.4907  0.0378 -0.1427
 3697G1FFO link43505  14.607  17.578  21.012  0.0007 -0.7719 -0.1544
 3697G1FFO link43506  14.634  17.860  20.946  0.4398  0.3296  0.0442
 3697G1FFO Tail43507  14.526  17.952  20.668 -0.1578  0.2540  0.6617
 3697G1FFO Tail43508  14.508  17.660  20.488  0.0252  0.0636 -0.1959
 3697G1FFO Tail43509  14.750  17.550  20.412  0.2638 -0.1070  0.2102
 3697G1FFO Tail43510  14.739  17.311  20.298 -0.0493  0.0034  0.0916
 3697G1FFO Tail43511  14.756  17.074  20.189 -0.3465 -0.0538 -0.1184
 3697G1FFO Tail43512  14.768  16.904  20.034  0.2192  0.4403 -0.1863
 3697G1FFO Tail43513  14.842  18.089  20.556 -0.2747  0.1711  0.0060
 3697G1FFO Tail43514  15.064  17.972  20.644 -0.4738 -0.0526  0.1960
 3697G1FFO Tail43515  15.079  17.711  20.636  0.0477 -0.3054 -0.1231
 3697G1FFO Tail43516  15.133  17.464  20.639 -0.1771 -0.1341  0.1183
 3697G1FFO Tail43517  15.247  17.260  20.620 -0.2529  0.2091  0.1126
 3698G1FFO Head43518  17.958  18.118  17.837 -0.1216 -0.1845 -0.2459
 3698G1FFO Head43519  18.084  17.962  18.052  0.0526 -0.1181 -0.3375
 3698G1FFO Head43520  17.928  17.671  17.629  0.1321  0.0466  0.3265
 3698G1FFO Head43521  17.867  17.619  17.906 -0.3400  0.4625 -0.2061
 3698G1FFO link43522  18.025  17.695  18.097 -0.2489  0.0337  0.5361
 3698G1FFO link43523  18.136  17.527  18.287  0.0074 -0.1837  0.1301
 3698G1FFO Tail43524  18.423  17.597  18.436  0.1924 -0.1173 -0.2011
 3698G1FFO Tail43525  18.490  17.918  18.363  0.0528  0.1087  0.2171
 3698G1FFO Tail43526  18.451  18.112  18.531  0.0064 -0.3454 -0.3010
 3698G1FFO Tail43527  18.254  18.094  18.713 -0.2892  0.0171  0.1258
 3698G1FFO Tail43528  18.049  18.117  18.858 -0.0602 -0.1251 -0.0231
 3698G1FFO Tail43529  17.913  18.151  19.037  0.2726  0.0373  0.0325
 3698G1FFO Tail43530  18.658  17.418  18.248 -0.1051  0.2147  0.3259
 3698G1FFO Tail43531  18.672  17.152  18.245  0.2702 -0.1232  0.1567
 3698G1FFO Tail43532  18.655  17.020  18.478  0.2036  0.1112  0.1356
 3698G1FFO Tail43533  18.677  16.911  18.715  0.1579  0.0013  0.1125
 3698G1FFO Tail43534  18.651  16.858  18.942  0.0362 -0.3856 -0.2604
 3699G1FFO Head43535  21.122  15.387  22.264 -0.0651 -0.1275 -0.2332
 3699G1FFO Head43536  20.962  15.279  22.066 -0.2151 -0.0090  0.1069
 3699G1FFO Head43537  20.685  15.116  22.429 -0.1123  0.2654  0.2864
 3699G1FFO Head43538  20.576  15.211  22.186 -0.0267  0.0171 -0.5506
 3699G1FFO link43539  20.709  15.366  22.030 -0.2401  0.2866  0.5720
 3699G1FFO link43540  20.643  15.637  21.974 -0.2859 -0.0795  0.0758
 3699G1FFO Tail43541  20.848  15.880  21.867  0.2534 -0.1426  0.1760
 3699G1FFO Tail43542  21.018  15.671  21.626  0.2391 -0.1821 -0.0219
 3699G1FFO Tail43543  20.912  15.481  21.483  0.1319 -0.0292  0.0700
 3699G1FFO Tail43544  20.812  15.261  21.593 -0.0409 -0.0521 -0.0626
 3699G1FFO Tail43545  20.745  15.064  21.730  0.0206  0.0121  0.1066
 3699G1FFO Tail43546  20.717  14.904  21.902 -0.2241 -0.0703 -0.6783
 3699G1FFO Tail43547  21.083  15.865  22.123  0.3928 -0.1311 -0.2712
 3699G1FFO Tail43548  21.199  16.052  22.255  0.0023 -0.0381  0.0837
 3699G1FFO Tail43549  21.099  16.296  22.242 -0.1132  0.1325 -0.1818
 3699G1FFO Tail43550  21.020  16.536  22.274 -0.0526  0.0982  0.0626
 3699G1FFO Tail43551  20.938  16.751  22.221  0.1646 -0.2768  0.1471
 3700G1FFO Head43552  14.661  15.013  18.045  0.2486 -0.0975  0.1906
 3700G1FFO Head43553  14.577  15.062  18.308  0.0427  0.2033  0.0868
 3700G1FFO Head43554  14.900  14.683  18.822  0.1939 -0.0481 -0.1733
 3700G1FFO Head43555  14.652  14.852  18.675  0.1909  0.1229  0.0853
 3700G1FFO link43556  14.738  15.039  18.514  0.2190  0.1270  0.5081
 3700G1FFO link43557  15.019  15.120  18.483 -0.2541  0.0635 -0.0035
 3700G1FFO Tail43558  15.167  15.279  18.225 -0.0774 -0.0535 -0.7553
 3700G1FFO Tail43559  15.510  15.179  18.287  0.5459 -0.0585 -0.1316
 3700G1FFO Tail43560  15.625  15.286  18.494 -0.0126 -0.3974 -0.1651
 3700G1FFO Tail43561  15.477  15.315  18.713 -0.0113 -0.0378  0.2114
 3700G1FFO Tail43562  15.334  15.280  18.917  0.2494 -0.0773  0.2705
 3700G1FFO Tail43563  15.173  15.202  19.069  0.1990 -0.2059  0.1541
 3700G1FFO Tail43564  15.190  15.567  18.382  0.1459  0.1948  0.0794
 3700G1FFO Tail43565  15.043  15.616  18.587 -0.0904 -0.2836  0.2696
 3700G1FFO Tail43566  14.927  15.850  18.614 -0.0989  0.0972  0.0098
 3700G1FFO Tail43567  14.838  16.093  18.617 -0.2334  0.0069 -0.1621
 3700G1FFO Tail43568  14.728  16.300  18.580 -0.0689 -0.0201 -0.3370
 3701G1FFO Head43569  19.673  14.587  18.997 -0.0368  0.1469 -0.0861
 3701G1FFO Head43570  19.677  14.844  19.138  0.4052  0.1304  0.2258
 3701G1FFO Head43571  20.313  14.881  18.962 -0.0997 -0.1546  0.0984
 3701G1FFO Head43572  20.078  14.840  19.136 -0.0247  0.1139  0.3902
 3701G1FFO link43573  19.876  14.990  19.086 -0.0725  0.0994 -0.1936
 3701G1FFO link43574  19.857  15.219  18.930  0.2809  0.0559 -0.0433
 3701G1FFO Tail43575  19.569  15.329  18.804 -0.0697  0.1427  0.0599
 3701G1FFO Tail43576  19.558  15.647  18.923 -0.1012  0.1584  0.1299
 3701G1FFO Tail43577  19.527  15.721  19.168  0.1350  0.3586 -0.1828
 3701G1FFO Tail43578  19.339  15.601  19.310 -0.0596  0.1489  0.0315
 3701G1FFO Tail43579  19.177  15.490  19.473  0.0170  0.1152  0.1807
 3701G1FFO Tail43580  18.996  15.364  19.564 -0.3447 -0.0583  0.0559
 3701G1FFO Tail43581  19.359  15.182  19.039 -0.3514  0.2944  0.4132
 3701G1FFO Tail43582  19.104  15.236  19.074 -0.2538 -0.0353 -0.0081
 3701G1FFO Tail43583  18.953  15.222  18.860 -0.0247 -0.1422 -0.1406
 3701G1FFO Tail43584  18.834  15.198  18.636 -0.1003  0.0007  0.0850
 3701G1FFO Tail43585  18.793  15.198  18.402 -0.0332  0.1405  0.0638
 3702G1FFO Head43586  12.876  15.985  19.151  0.1465  0.0741  0.0688
 3702G1FFO Head43587  13.118  16.164  19.235  0.0206 -0.0585 -0.3745
 3702G1FFO Head43588  13.090  15.983  19.855 -0.3070 -0.0495  0.2093
 3702G1FFO Head43589  13.085  15.948  19.570  0.1889 -0.1687 -0.1577
 3702G1FFO link43590  13.245  16.097  19.455  0.1283  0.5346 -0.4717
 3702G1FFO link43591  13.447  16.249  19.577  0.0126  0.2381 -0.1024
 3702G1FFO Tail43592  13.748  16.253  19.440 -0.2619  0.0248 -0.2168
 3702G1FFO Tail43593  13.757  15.911  19.393  0.2815  0.1282  0.3885
 3702G1FFO Tail43594  13.551  15.766  19.444  0.2430  0.0888 -0.2787
 3702G1FFO Tail43595  13.496  15.727  19.697  0.0036 -0.1148  0.1469
 3702G1FFO Tail43596  13.484  15.706  19.946  0.0666  0.1518 -0.1834
 3702G1FFO Tail43597  13.511  15.721  20.169  0.0536 -0.0847 -0.1303
 3702G1FFO Tail43598  13.936  16.228  19.722 -0.1217  0.1239 -0.0088
 3702G1FFO Tail43599  14.086  16.007  19.769  0.1936  0.2222 -0.1576
 3702G1FFO Tail43600  14.008  15.876  19.982  0.1662  0.0847  0.1836
 3702G1FFO Tail43601  13.961  15.735  20.191 -0.1729 -0.1396 -0.0515
 3702G1FFO Tail43602  13.965  15.635  20.405  0.0327  0.2690  0.0886
 3703G1FFO Head43603  16.626  13.160  18.721  0.0131 -0.1633  0.3294
 3703G1FFO Head43604  16.794  13.387  18.823  0.1771  0.0492 -0.0399
 3703G1FFO Head43605  16.651  13.477  18.298 -0.0525 -0.0189  0.0877
 3703G1FFO Head43606  16.613  13.646  18.550 -0.2994 -0.1462  0.1734
 3703G1FFO link43607  16.766  13.639  18.729 -0.0916 -0.0739 -0.0489
 3703G1FFO link43608  16.882  13.875  18.849  0.0172 -0.1208  0.1069
 3703G1FFO Tail43609  17.117  13.845  19.063 -0.3691  0.0316 -0.2256
 3703G1FFO Tail43610  17.178  13.494  19.009  0.0030 -0.1619 -0.1744
 3703G1FFO Tail43611  17.373  13.359  19.098 -0.0803 -0.2042  0.0803
 3703G1FFO Tail43612  17.341  13.119  19.181  0.2083  0.0529  0.0410
 3703G1FFO Tail43613  17.334  12.902  19.307 -0.3024 -0.1513 -0.0721
 3703G1FFO Tail43614  17.330  12.674  19.379 -0.1148  0.0043  0.1511
 3703G1FFO Tail43615  16.929  13.853  19.353 -0.4116  0.2466 -0.1725
 3703G1FFO Tail43616  17.046  13.785  19.572 -0.1128 -0.2484  0.1455
 3703G1FFO Tail43617  17.216  13.591  19.583  0.0796 -0.0864  0.0221
 3703G1FFO Tail43618  17.350  13.380  19.633 -0.0525 -0.1066 -0.1541
 3703G1FFO Tail43619  17.446  13.195  19.731 -0.0652 -0.0471  0.0792
 3704G1FFO Head43620  16.709  17.557  17.805  0.1001  0.0938  0.0353
 3704G1FFO Head43621  16.795  17.346  17.988  0.2061  0.0085 -0.0506
 3704G1FFO Head43622  16.420  17.158  17.553 -0.1158 -0.0484 -0.4174
 3704G1FFO Head43623  16.662  17.038  17.727  0.1109 -0.2304  0.1875
 3704G1FFO link43624  16.661  17.104  17.973  0.0852  0.0728  0.2345
 3704G1FFO link43625  16.469  17.052  18.188 -0.0353 -0.1382 -0.0200
 3704G1FFO Tail43626  16.551  17.143  18.492  0.2930  0.2379  0.0898
 3704G1FFO Tail43627  16.715  17.455  18.422  0.4037  0.0114  0.3128
 3704G1FFO Tail43628  16.852  17.576  18.607  0.2519  0.2445  0.1022
 3704G1FFO Tail43629  16.969  17.418  18.786  0.1105  0.1573 -0.3022
 3704G1FFO Tail43630  17.105  17.293  18.965 -0.0593 -0.0537  0.1330
 3704G1FFO Tail43631  17.179  17.136  19.119  0.0784  0.0849  0.1255
 3704G1FFO Tail43632  16.827  16.910  18.543  0.0448  0.0921 -0.1536
 3704G1FFO Tail43633  16.759  16.657  18.532 -0.1689 -0.0430  0.0032
 3704G1FFO Tail43634  16.788  16.511  18.749 -0.0991  0.2278  0.1200
 3704G1FFO Tail43635  16.800  16.359  18.951 -0.0064  0.0704 -0.0851
 3704G1FFO Tail43636  16.874  16.198  19.112  0.0860 -0.2847 -0.1679
 3705G1FFO Head43637  15.267  15.869  17.396  0.1730 -0.1783  0.2324
 3705G1FFO Head43638  15.534  15.851  17.570 -0.1358 -0.1418  0.0270
 3705G1FFO Head43639  16.058  15.944  17.466  0.0319 -0.0658  0.0721
 3705G1FFO Head43640  15.883  15.979  17.729  0.4576 -0.0720  0.1604
 3705G1FFO link43641  15.655  16.058  17.689 -0.0325 -0.3648 -0.0196
 3705G1FFO link43642  15.565  16.327  17.670  0.1057 -0.0268 -0.0389
 3705G1FFO Tail43643  15.721  16.594  17.800  0.1672  0.2851  0.1039
 3705G1FFO Tail43644  15.920  16.440  18.053 -0.0345 -0.2148  0.3240
 3705G1FFO Tail43645  15.857  16.183  18.121 -0.1400  0.2896  0.0227
 3705G1FFO Tail43646  16.010  16.022  18.228 -0.0386  0.2564 -0.1665
 3705G1FFO Tail43647  16.166  15.867  18.355 -0.0232 -0.2356 -0.1729
 3705G1FFO Tail43648  16.327  15.795  18.508 -0.1868 -0.1108  0.0346
 3705G1FFO Tail43649  15.462  16.706  17.999  0.3117 -0.1241  0.0383
 3705G1FFO Tail43650  15.473  16.771  18.264 -0.0118  0.1376  0.2179
 3705G1FFO Tail43651  15.620  16.618  18.414  0.1422  0.0608  0.0687
 3705G1FFO Tail43652  15.748  16.443  18.542  0.1752  0.0798 -0.0717
 3705G1FFO Tail43653  15.849  16.237  18.619 -0.1159  0.0729  0.0721
 3706G1FFO Head43654  17.757  18.837  22.535 -0.0560 -0.2068 -0.0370
 3706G1FFO Head43655  17.849  18.864  22.837  0.0659 -0.0357  0.0500
 3706G1FFO Head43656  17.767  18.956  23.362  0.0478 -0.1193  0.2802
 3706G1FFO Head43657  17.721  18.697  23.156  0.3460 -0.1066 -0.3214
 3706G1FFO link43658  17.879  18.640  22.978  0.2509 -0.0392  0.2435
 3706G1FFO link43659  18.132  18.506  23.003 -0.2206  0.3031  0.0859
 3706G1FFO Tail43660  18.287  18.365  22.738  0.1482 -0.0891 -0.0535
 3706G1FFO Tail43661  18.546  18.206  22.920 -0.2009 -0.3152 -0.2022
 3706G1FFO Tail43662  18.781  18.291  22.847 -0.1488  0.2184  0.1537
 3706G1FFO Tail43663  18.810  18.508  22.693  0.2175  0.0628  0.0422
 3706G1FFO Tail43664  18.827  18.738  22.588  0.0505 -0.0207  0.1654
 3706G1FFO Tail43665  18.851  18.971  22.551 -0.0966 -0.0284  0.0731
 3706G1FFO Tail43666  18.066  18.080  22.659 -0.2562 -0.0345 -0.1012
 3706G1FFO Tail43667  18.171  17.841  22.632  0.0555 -0.1370 -0.2673
 3706G1FFO Tail43668  18.406  17.800  22.745  0.0756  0.3535 -0.0251
 3706G1FFO Tail43669  18.613  17.747  22.892  0.1109 -0.1950  0.2631
 3706G1FFO Tail43670  18.761  17.657  23.034 -0.1085 -0.0196 -0.2721
 3707G1FFO Head43671  16.132  12.992  20.514  0.1129  0.0295 -0.1837
 3707G1FFO Head43672  16.117  13.241  20.314  0.1566  0.2204 -0.1003
 3707G1FFO Head43673  15.662  13.137  20.537 -0.0360 -0.3904  0.0083
 3707G1FFO Head43674  15.760  13.418  20.459  0.1671  0.2671 -0.1693
 3707G1FFO link43675  16.010  13.456  20.422  0.0347 -0.0470 -0.2029
 3707G1FFO link43676  16.149  13.702  20.422  0.0919  0.0183 -0.0440
 3707G1FFO Tail43677  16.294  13.826  20.162 -0.4409  0.1975  0.3942
 3707G1FFO Tail43678  16.373  14.137  20.300 -0.2466 -0.3098 -0.0294
 3707G1FFO Tail43679  16.566  14.307  20.205  0.6596  0.3688 -0.0695
 3707G1FFO Tail43680  16.777  14.204  20.091  0.2562 -0.1122 -0.1934
 3707G1FFO Tail43681  16.999  14.125  20.023 -0.0912 -0.0734 -0.1914
 3707G1FFO Tail43682  17.200  14.092  19.904  0.1485  0.2320  0.2102
 3707G1FFO Tail43683  16.005  13.931  19.975 -0.1871 -0.3288 -0.1431
 3707G1FFO Tail43684  15.782  14.015  20.080 -0.1424  0.0947  0.2270
 3707G1FFO Tail43685  15.622  13.863  20.211 -0.1387  0.0793 -0.0268
 3707G1FFO Tail43686  15.456  13.748  20.365 -0.2645  0.0649  0.1098
 3707G1FFO Tail43687  15.297  13.597  20.449  0.0202 -0.1061  0.1728
 3708G1FFO Head43688  21.147  18.811  21.979 -0.3024 -0.0789  0.3264
 3708G1FFO Head43689  20.879  18.733  21.829 -0.2184 -0.2120 -0.3181
 3708G1FFO Head43690  20.756  19.203  21.688 -0.0291 -0.0897  0.1147
 3708G1FFO Head43691  20.585  19.015  21.874  0.0519 -0.0027 -0.4467
 3708G1FFO link43692  20.635  18.782  21.923  0.2221  0.2828  0.3784
 3708G1FFO link43693  20.412  18.595  21.915 -0.2767  0.2221  0.4117
 3708G1FFO Tail43694  20.260  18.535  21.630  0.4724 -0.1870 -0.0478
 3708G1FFO Tail43695  20.146  18.855  21.556  0.1357  0.0250  0.2104
 3708G1FFO Tail43696  20.018  19.012  21.740  0.0222 -0.2811  0.0179
 3708G1FFO Tail43697  20.122  19.016  21.974  0.1351  0.1318 -0.0391
 3708G1FFO Tail43698  20.259  19.038  22.186  0.1230  0.1247  0.1029
 3708G1FFO Tail43699  20.358  18.998  22.396 -0.2065 -0.0934 -0.2368
 3708G1FFO Tail43700  19.969  18.378  21.756  0.4435  0.2347  0.2056
 3708G1FFO Tail43701  19.719  18.469  21.712  0.1634 -0.0243 -0.1966
 3708G1FFO Tail43702  19.675  18.715  21.650 -0.3589  0.0367  0.0190
 3708G1FFO Tail43703  19.621  18.970  21.628  0.0690 -0.2550  0.1589
 3708G1FFO Tail43704  19.591  19.197  21.672  0.0459 -0.2783 -0.0415
 3709G1FFO Head43705  18.964  17.065  24.158  0.1097  0.0575  0.2222
 3709G1FFO Head43706  18.783  17.052  24.434 -0.1207 -0.0618 -0.2552
 3709G1FFO Head43707  18.270  16.865  24.821 -0.0918  0.1742 -0.1531
 3709G1FFO Head43708  18.410  16.822  24.536 -0.5152  0.0684  0.0470
 3709G1FFO link43709  18.514  17.016  24.388 -0.3425 -0.1139 -0.4027
 3709G1FFO link43710  18.371  17.139  24.172  0.2509  0.1396 -0.3212
 3709G1FFO Tail43711  18.460  17.171  23.860 -0.0706 -0.2474 -0.2955
 3709G1FFO Tail43712  18.691  17.425  23.881  0.1743 -0.3006  0.1129
 3709G1FFO Tail43713  18.761  17.521  24.102  0.1441  0.1219  0.0661
 3709G1FFO Tail43714  18.609  17.480  24.316 -0.1127 -0.2238  0.1080
 3709G1FFO Tail43715  18.505  17.466  24.548 -0.1991  0.1740 -0.2791
 3709G1FFO Tail43716  18.358  17.492  24.725  0.1497  0.0168  0.1456
 3709G1FFO Tail43717  18.177  17.364  23.733  0.0305  0.0371  0.1073
 3709G1FFO Tail43718  18.106  17.577  23.875 -0.4057 -0.2015 -0.0374
 3709G1FFO Tail43719  18.297  17.729  23.977 -0.0476  0.0759  0.0689
 3709G1FFO Tail43720  18.431  17.902  24.099 -0.0694  0.0606  0.0487
 3709G1FFO Tail43721  18.593  18.008  24.232  0.3096 -0.1543  0.2252
 3710G1FFO Head43722  13.979  18.063  18.090 -0.0133 -0.0007 -0.3001
 3710G1FFO Head43723  14.147  18.306  18.293  0.0935  0.0770  0.2080
 3710G1FFO Head43724  13.609  18.269  18.343 -0.0945  0.0607 -0.0893
 3710G1FFO Head43725  13.775  18.445  18.267 -0.1001  0.0519  0.2549
 3710G1FFO link43726  13.987  18.511  18.398  0.1917  0.3685  0.1040
 3710G1FFO link43727  14.084  18.773  18.436 -0.0388 -0.0645 -0.0454
 3710G1FFO Tail43728  13.988  19.011  18.649 -0.2826  0.1152  0.2284
 3710G1FFO Tail43729  14.219  18.969  18.919 -0.2518 -0.1767  0.2252
 3710G1FFO Tail43730  14.367  18.752  18.936 -0.0912 -0.2509  0.0554
 3710G1FFO Tail43731  14.454  18.622  18.727 -0.0175 -0.0996  0.0449
 3710G1FFO Tail43732  14.507  18.505  18.507  0.3220 -0.0213 -0.0989
 3710G1FFO Tail43733  14.600  18.427  18.313 -0.4224 -0.1351 -0.0055
 3710G1FFO Tail43734  13.699  18.883  18.801  0.0963  0.0218  0.1575
 3710G1FFO Tail43735  13.665  18.621  18.850  0.1014 -0.2543 -0.2608
 3710G1FFO Tail43736  13.872  18.468  18.801  0.1803  0.1653  0.0259
 3710G1FFO Tail43737  14.037  18.282  18.736 -0.2673 -0.0099  0.0144
 3710G1FFO Tail43738  14.230  18.137  18.714  0.2250 -0.0941  0.2803
 3711G1FFO Head43739  16.717  13.118  20.553  0.2271 -0.0369 -0.1923
 3711G1FFO Head43740  16.834  13.283  20.377 -0.1214 -0.1776  0.1615
 3711G1FFO Head43741  17.013  12.796  20.394  0.2784 -0.1393 -0.0827
 3711G1FFO Head43742  17.079  12.999  20.191 -0.0573  0.2237  0.2384
 3711G1FFO link43743  16.969  13.223  20.176 -0.2333 -0.0390 -0.1036
 3711G1FFO link43744  17.033  13.433  19.998  0.0579  0.2573  0.2670
 3711G1FFO Tail43745  17.250  13.684  20.067  0.5303  0.1920  0.1590
 3711G1FFO Tail43746  17.547  13.512  20.147 -0.0432 -0.1403 -0.0198
 3711G1FFO Tail43747  17.733  13.463  19.966  0.0885 -0.2494 -0.0036
 3711G1FFO Tail43748  17.926  13.648  19.938 -0.1878 -0.0514  0.1371
 3711G1FFO Tail43749  18.144  13.784  19.926 -0.0827 -0.2538  0.2015
 3711G1FFO Tail43750  18.328  13.917  19.853 -0.0735  0.3342 -0.2236
 3711G1FFO Tail43751  17.131  13.717  20.393 -0.2461  0.4753  0.0376
 3711G1FFO Tail43752  17.141  13.523  20.568  0.1962  0.0261  0.1481
 3711G1FFO Tail43753  17.314  13.343  20.527  0.1398 -0.2137  0.1535
 3711G1FFO Tail43754  17.456  13.139  20.462  0.0270  0.1132 -0.1312
 3711G1FFO Tail43755  17.598  12.951  20.463 -0.1505 -0.1184 -0.1486
 3712G1FFO Head43756  19.597  14.017  21.136 -0.1696 -0.1373  0.0283
 3712G1FFO Head43757  19.777  14.176  21.381 -0.1229 -0.5641  0.1222
 3712G1FFO Head43758  19.826  14.723  21.754 -0.3147  0.2025  0.2403
 3712G1FFO Head43759  19.912  14.515  21.545  0.2121 -0.2106 -0.5218
 3712G1FFO link43760  19.747  14.455  21.391  0.3401  0.5235  0.2575
 3712G1FFO link43761  19.493  14.586  21.349 -0.2404  0.1847 -0.0384
 3712G1FFO Tail43762  19.465  14.916  21.398 -0.0283  0.1298  0.4628
 3712G1FFO Tail43763  19.362  14.932  21.728  0.0640  0.3867 -0.1783
 3712G1FFO Tail43764  19.229  14.746  21.847  0.0162  0.0190  0.2032
 3712G1FFO Tail43765  19.327  14.505  21.837  0.0524 -0.0597  0.0335
 3712G1FFO Tail43766  19.441  14.292  21.774  0.0166 -0.0027  0.2037
 3712G1FFO Tail43767  19.495  14.080  21.677 -0.0159 -0.0964 -0.0836
 3712G1FFO Tail43768  19.180  14.949  21.183  0.2636  0.1911 -0.0161
 3712G1FFO Tail43769  18.940  14.982  21.276  0.1333 -0.2381 -0.0859
 3712G1FFO Tail43770  18.874  14.926  21.514  0.2572 -0.1971 -0.0149
 3712G1FFO Tail43771  18.762  14.908  21.742 -0.0027  0.2129  0.0559
 3712G1FFO Tail43772  18.646  14.945  21.945 -0.1052 -0.2755  0.1620
 3713G1FFO Head43773  20.740  14.571  21.355  0.0911  0.2603 -0.0197
 3713G1FFO Head43774  20.561  14.560  21.638 -0.1713 -0.1287  0.0501
 3713G1FFO Head43775  20.386  14.729  22.129 -0.1488  0.1042  0.1024
 3713G1FFO Head43776  20.236  14.626  21.863  0.1834  0.4640 -0.0850
 3713G1FFO link43777  20.350  14.678  21.641  0.4273  0.6126  0.4158
 3713G1FFO link43778  20.265  14.882  21.439 -0.0447  0.3643 -0.1454
 3713G1FFO Tail43779  20.188  15.193  21.495 -0.1625 -0.1233  0.0753
 3713G1FFO Tail43780  20.291  15.228  21.836  0.0300 -0.2947 -0.0702
 3713G1FFO Tail43781  20.132  15.142  22.028 -0.0667  0.3082  0.0567
 3713G1FFO Tail43782  19.884  15.201  22.029 -0.1870 -0.0273 -0.1258
 3713G1FFO Tail43783  19.632  15.258  22.002  0.0952  0.2060 -0.1019
 3713G1FFO Tail43784  19.412  15.319  22.042 -0.2085  0.0963 -0.2393
 3713G1FFO Tail43785  19.848  15.148  21.501  0.0406  0.2034 -0.3401
 3713G1FFO Tail43786  19.687  15.346  21.580  0.0454 -0.0191  0.2620
 3713G1FFO Tail43787  19.440  15.367  21.500  0.1350 -0.1345 -0.0516
 3713G1FFO Tail43788  19.218  15.436  21.387 -0.1721 -0.0567  0.0185
 3713G1FFO Tail43789  19.056  15.522  21.247  0.2653  0.0154  0.0447
 3714G1FFO Head43790  19.236  18.137  23.684 -0.1356 -0.3611  0.2118
 3714G1FFO Head43791  19.330  18.056  23.428  0.0091  0.0035  0.2764
 3714G1FFO Head43792  19.728  17.954  23.798  0.1649 -0.1981 -0.3444
 3714G1FFO Head43793  19.688  18.195  23.579  0.0305  0.0113  0.2515
 3714G1FFO link43794  19.564  18.148  23.354 -0.1190  0.2233  0.1805
 3714G1FFO link43795  19.663  18.108  23.091 -0.0128  0.2350 -0.0916
 3714G1FFO Tail43796  19.637  17.815  22.946 -0.1570  0.1638  0.1846
 3714G1FFO Tail43797  19.636  17.898  22.612 -0.1249  0.2376 -0.2364
 3714G1FFO Tail43798  19.485  17.802  22.417  0.0951  0.2481 -0.1307
 3714G1FFO Tail43799  19.563  17.575  22.320 -0.0969 -0.0281 -0.0118
 3714G1FFO Tail43800  19.631  17.337  22.273  0.2882  0.1441  0.0281
 3714G1FFO Tail43801  19.734  17.128  22.263  0.0534 -0.2669  0.1027
 3714G1FFO Tail43802  19.318  17.720  23.032  0.0184 -0.0114 -0.2921
 3714G1FFO Tail43803  19.120  17.780  22.871  0.1553 -0.3030  0.1459
 3714G1FFO Tail43804  19.167  17.994  22.723 -0.0010  0.0091  0.2251
 3714G1FFO Tail43805  19.167  18.199  22.568  0.2862  0.0357 -0.3083
 3714G1FFO Tail43806  19.197  18.417  22.480  0.1927 -0.1748  0.0729
 3715G1FFO Head43807  17.385  13.326  22.022  0.0848  0.0951 -0.4931
 3715G1FFO Head43808  17.530  13.576  21.873  0.3074  0.1983 -0.0925
 3715G1FFO Head43809  17.373  13.799  22.276 -0.0676  0.2998  0.5876
 3715G1FFO Head43810  17.278  13.874  21.980  0.1514  0.0324 -0.1767
 3715G1FFO link43811  17.394  13.794  21.787 -0.2490  0.2200 -0.0325
 3715G1FFO link43812  17.489  13.968  21.594  0.0037  0.0353  0.1741
 3715G1FFO Tail43813  17.316  14.064  21.333 -0.1336  0.0835 -0.2000
 3715G1FFO Tail43814  17.020  14.060  21.489  0.1575  0.0030  0.1027
 3715G1FFO Tail43815  16.960  14.270  21.643 -0.3970 -0.0145 -0.1361
 3715G1FFO Tail43816  16.992  14.246  21.903  0.1164  0.0765  0.0500
 3715G1FFO Tail43817  17.014  14.202  22.154 -0.1579  0.0475  0.1878
 3715G1FFO Tail43818  17.112  14.158  22.359 -0.1222  0.0326 -0.3965
 3715G1FFO Tail43819  17.338  13.775  21.127 -0.1444  0.2091 -0.1331
 3715G1FFO Tail43820  17.133  13.621  21.050 -0.2544  0.1571 -0.1019
 3715G1FFO Tail43821  16.904  13.635  21.166 -0.1971 -0.1692 -0.2389
 3715G1FFO Tail43822  16.696  13.645  21.310  0.0188  0.1688 -0.0128
 3715G1FFO Tail43823  16.547  13.685  21.478  0.4570 -0.3251  0.0346
 3716G1FFO Head43824  12.731  18.537  20.146 -0.0036  0.0229  0.0737
 3716G1FFO Head43825  12.892  18.276  20.203 -0.2509  0.3717  0.1868
 3716G1FFO Head43826  12.627  17.806  19.803 -0.0069 -0.2104  0.1337
 3716G1FFO Head43827  12.698  18.092  19.900  0.3229 -0.0879 -0.1581
 3716G1FFO link43828  12.910  18.115  20.003  0.0950  0.3030  0.1770
 3716G1FFO link43829  13.159  18.015  19.896  0.2146 -0.3756  0.1077
 3716G1FFO Tail43830  13.448  18.123  20.055  0.2314 -0.0259  0.1657
 3716G1FFO Tail43831  13.603  18.264  19.775 -0.3801  0.2193 -0.1840
 3716G1FFO Tail43832  13.689  18.507  19.757 -0.2869 -0.1566  0.3555
 3716G1FFO Tail43833  13.935  18.535  19.820  0.0328 -0.3895 -0.1601
 3716G1FFO Tail43834  14.158  18.590  19.929 -0.3313 -0.0093  0.0223
 3716G1FFO Tail43835  14.343  18.600  20.071 -0.1510 -0.2218 -0.1970
 3716G1FFO Tail43836  13.609  17.824  20.118  0.0158  0.2903  0.1386
 3716G1FFO Tail43837  13.822  17.765  19.972 -0.1411 -0.4494 -0.2314
 3716G1FFO Tail43838  13.861  17.525  19.863  0.0434  0.0662  0.3087
 3716G1FFO Tail43839  13.867  17.293  19.752  0.0273 -0.0634 -0.2159
 3716G1FFO Tail43840  13.834  17.068  19.711 -0.0940  0.1081  0.1119
 3717G1FFO Head43841  14.936  20.118  22.574 -0.0012  0.2491 -0.3227
 3717G1FFO Head43842  15.285  20.113  22.531  0.1327  0.0944  0.0677
 3717G1FFO Head43843  15.022  20.631  22.502 -0.0800  0.0821 -0.2128
 3717G1FFO Head43844  15.201  20.452  22.325  0.4393  0.0879 -0.3287
 3717G1FFO link43845  15.403  20.313  22.400 -0.1086 -0.2137 -0.1301
 3717G1FFO link43846  15.646  20.316  22.261 -0.0862 -0.0591  0.0648
 3717G1FFO Tail43847  15.814  20.025  22.179 -0.1615 -0.0013 -0.0697
 3717G1FFO Tail43848  15.741  19.983  21.829  0.1793 -0.0011  0.2020
 3717G1FFO Tail43849  15.808  20.197  21.675 -0.4862  0.4340  0.2646
 3717G1FFO Tail43850  15.713  20.420  21.747 -0.2784 -0.0484 -0.0858
 3717G1FFO Tail43851  15.656  20.653  21.836  0.1112  0.0798  0.1656
 3717G1FFO Tail43852  15.555  20.851  21.884 -0.1903 -0.2268  0.2974
 3717G1FFO Tail43853  15.591  19.778  22.310  0.1766 -0.1019  0.1565
 3717G1FFO Tail43854  15.496  19.583  22.163  0.1201  0.0433 -0.0035
 3717G1FFO Tail43855  15.418  19.366  22.275  0.2113 -0.1118  0.0835
 3717G1FFO Tail43856  15.351  19.171  22.425 -0.0418  0.3723  0.1400
 3717G1FFO Tail43857  15.229  18.988  22.531 -0.1877  0.2843  0.1673
 3718G1FFO Head43858  17.388  14.559  23.179 -0.0810  0.0769 -0.2173
 3718G1FFO Head43859  17.366  14.736  22.970 -0.1466 -0.0578 -0.1554
 3718G1FFO Head43860  17.610  14.295  22.480 -0.2117  0.2828 -0.0058
 3718G1FFO Head43861  17.527  14.431  22.756  0.1126  0.4624  0.4171
 3718G1FFO link43862  17.470  14.664  22.731 -0.2267 -0.1873 -0.0647
 3718G1FFO link43863  17.505  14.816  22.486 -0.2052 -0.0867 -0.0258
 3718G1FFO Tail43864  17.654  14.726  22.218  0.1267  0.5491  0.2280
 3718G1FFO Tail43865  17.693  15.029  22.043 -0.3321  0.0173  0.1572
 3718G1FFO Tail43866  17.741  15.240  22.184  0.4686 -0.0084  0.1120
 3718G1FFO Tail43867  17.885  15.195  22.387 -0.0016 -0.0321 -0.0410
 3718G1FFO Tail43868  18.019  15.115  22.587  0.2732 -0.1789  0.1660
 3718G1FFO Tail43869  18.185  15.044  22.725 -0.1834 -0.0722  0.1975
 3718G1FFO Tail43870  17.388  14.594  22.022 -0.2302 -0.0559 -0.0382
 3718G1FFO Tail43871  17.404  14.368  21.888  0.2377 -0.2955  0.0647
 3718G1FFO Tail43872  17.569  14.190  21.986  0.0654 -0.1760 -0.1065
 3718G1FFO Tail43873  17.753  14.020  22.025  0.1303  0.2081 -0.0451
 3718G1FFO Tail43874  17.866  13.815  22.042 -0.1218 -0.0077  0.2544
 3719G1FFO Head43875  20.229  19.320  21.303 -0.1732 -0.3461  0.1086
 3719G1FFO Head43876  20.112  19.104  21.143 -0.3290 -0.1307  0.0660
 3719G1FFO Head43877  20.358  19.516  20.852  0.0989  0.1342 -0.0953
 3719G1FFO Head43878  20.189  19.266  20.762 -0.0664  0.2554  0.0530
 3719G1FFO link43879  20.190  19.045  20.904  0.5089 -0.0649 -0.3405
 3719G1FFO link43880  20.302  18.794  20.842  0.2168 -0.5483  0.0973
 3719G1FFO Tail43881  20.585  18.700  20.965 -0.4577  0.0032 -0.1885
 3719G1FFO Tail43882  20.452  18.402  21.103  0.0932 -0.3558  0.3336
 3719G1FFO Tail43883  20.235  18.404  21.248 -0.0868  0.0832 -0.1566
 3719G1FFO Tail43884  20.041  18.562  21.187 -0.1664 -0.3238 -0.0770
 3719G1FFO Tail43885  19.829  18.695  21.153 -0.2272 -0.0905 -0.2856
 3719G1FFO Tail43886  19.619  18.773  21.100  0.0333  0.0324  0.1724
 3719G1FFO Tail43887  20.582  18.873  21.274 -0.1283  0.4142  0.0758
 3719G1FFO Tail43888  20.619  18.728  21.488  0.0738  0.3260  0.3242
 3719G1FFO Tail43889  20.705  18.486  21.483 -0.0167  0.1058 -0.2625
 3719G1FFO Tail43890  20.796  18.252  21.427  0.1062  0.2074  0.0643
 3719G1FFO Tail43891  20.808  18.021  21.376 -0.0891  0.4557  0.1568
 3720G1FFO Head43892  15.718  14.711  18.181  0.0024  0.0680  0.1502
 3720G1FFO Head43893  15.837  14.689  18.465  0.1664  0.1334 -0.0406
 3720G1FFO Head43894  16.424  14.392  18.242 -0.2168 -0.0382  0.0246
 3720G1FFO Head43895  16.121  14.474  18.304 -0.1897 -0.1279  0.0395
 3720G1FFO link43896  16.055  14.554  18.533 -0.0919 -0.1084 -0.0679
 3720G1FFO link43897  16.247  14.660  18.720 -0.3558 -0.3617  0.4484
 3720G1FFO Tail43898  16.127  14.700  19.011 -0.0336  0.2001 -0.2046
 3720G1FFO Tail43899  16.060  14.361  19.065 -0.2620 -0.1763  0.0373
 3720G1FFO Tail43900  16.127  14.186  18.881  0.2699 -0.2731 -0.0054
 3720G1FFO Tail43901  15.972  14.167  18.658 -0.1319 -0.0720 -0.1232
 3720G1FFO Tail43902  15.862  14.134  18.424 -0.1893 -0.1251 -0.2162
 3720G1FFO Tail43903  15.738  14.153  18.238  0.1102  0.0093 -0.1574
 3720G1FFO Tail43904  16.406  14.686  19.225  0.1936 -0.0992  0.3616
 3720G1FFO Tail43905  16.630  14.794  19.122  0.1359  0.4801 -0.2135
 3720G1FFO Tail43906  16.848  14.647  19.096 -0.0710 -0.0888  0.0501
 3720G1FFO Tail43907  17.025  14.466  19.065  0.0822  0.0711  0.2394
 3720G1FFO Tail43908  17.147  14.293  18.965 -0.0678  0.1981  0.1686
 3721G1FFO Head43909  18.466  15.827  24.455  0.1856 -0.2539 -0.0394
 3721G1FFO Head43910  18.491  16.030  24.275  0.7020  0.1728 -0.0508
 3721G1FFO Head43911  18.764  16.240  24.569  0.2296 -0.0482  0.2322
 3721G1FFO Head43912  18.873  16.091  24.299  0.2318  0.1989  0.0097
 3721G1FFO link43913  18.693  16.055  24.106 -0.3307 -0.1956  0.3143
 3721G1FFO link43914  18.692  16.216  23.876  0.0005  0.2268 -0.1321
 3721G1FFO Tail43915  18.985  16.299  23.716  0.1878  0.4921 -0.0021
 3721G1FFO Tail43916  18.975  16.063  23.470 -0.0320 -0.1588  0.1711
 3721G1FFO Tail43917  19.187  16.018  23.317  0.2618 -0.0416  0.0001
 3721G1FFO Tail43918  19.357  15.820  23.360  0.1640 -0.1766 -0.3894
 3721G1FFO Tail43919  19.508  15.641  23.448 -0.2270 -0.0880  0.0589
 3721G1FFO Tail43920  19.652  15.513  23.583 -0.0817 -0.3355  0.2768
 3721G1FFO Tail43921  19.201  16.150  23.945 -0.3678 -0.0836 -0.0826
 3721G1FFO Tail43922  19.265  16.277  24.161 -0.0084 -0.2326 -0.2553
 3721G1FFO Tail43923  19.507  16.283  24.252  0.1849  0.2062 -0.0510
 3721G1FFO Tail43924  19.751  16.295  24.322 -0.0128 -0.1856 -0.1665
 3721G1FFO Tail43925  19.974  16.252  24.362  0.3332 -0.1921 -0.1962
 3722G1FFO Head43926  16.101  14.078  22.634 -0.1465  0.4817  0.0479
 3722G1FFO Head43927  16.237  14.354  22.713 -0.0627  0.0026 -0.4339
 3722G1FFO Head43928  16.616  14.049  22.762  0.2037  0.2669  0.0438
 3722G1FFO Head43929  16.623  14.301  22.551 -0.0303  0.1763 -0.1430
 3722G1FFO link43930  16.409  14.456  22.545  0.0511  0.0904  0.1646
 3722G1FFO link43931  16.380  14.712  22.415 -0.1907  0.1273  0.2763
 3722G1FFO Tail43932  16.639  14.913  22.396  0.0728 -0.3435  0.0421
 3722G1FFO Tail43933  16.500  15.126  22.154 -0.0838  0.0456  0.2914
 3722G1FFO Tail43934  16.618  15.157  21.915  0.0996 -0.0729  0.1306
 3722G1FFO Tail43935  16.514  15.344  21.765  0.3040  0.0876  0.1647
 3722G1FFO Tail43936  16.435  15.513  21.594 -0.3244  0.0304  0.0334
 3722G1FFO Tail43937  16.389  15.708  21.480 -0.0132 -0.2359  0.1268
 3722G1FFO Tail43938  16.851  14.683  22.229  0.0160 -0.2865  0.2144
 3722G1FFO Tail43939  17.079  14.606  22.315  0.1110  0.0032 -0.4695
 3722G1FFO Tail43940  17.083  14.533  22.563  0.0670  0.1444 -0.1949
 3722G1FFO Tail43941  17.058  14.425  22.790  0.0710 -0.0227 -0.1779
 3722G1FFO Tail43942  17.093  14.316  22.996  0.2627 -0.0103  0.3770
 3723G1FFO Head43943  19.632  16.074  17.449  0.0024 -0.2227  0.2332
 3723G1FFO Head43944  19.443  16.042  17.645  0.2051  0.0333 -0.1591
 3723G1FFO Head43945  19.859  16.001  18.130  0.3555 -0.0031 -0.4136
 3723G1FFO Head43946  19.589  15.996  18.026  0.2659  0.1417 -0.1411
 3723G1FFO link43947  19.473  16.172  17.877  0.2007 -0.1429  0.0361
 3723G1FFO link43948  19.317  16.382  17.989 -0.6725  0.1871  0.1813
 3723G1FFO Tail43949  19.168  16.368  18.291  0.3074 -0.0436  0.2512
 3723G1FFO Tail43950  19.285  16.672  18.421  0.1190 -0.0379 -0.1938
 3723G1FFO Tail43951  19.127  16.871  18.455  0.2114 -0.2103 -0.1858
 3723G1FFO Tail43952  19.168  17.094  18.300  0.3239  0.1681 -0.1677
 3723G1FFO Tail43953  19.159  17.291  18.142  0.2204  0.1096  0.1515
 3723G1FFO Tail43954  19.204  17.472  18.010 -0.0938 -0.2904  0.0977
 3723G1FFO Tail43955  19.340  16.128  18.463 -0.3331  0.2673  0.0591
 3723G1FFO Tail43956  19.292  15.875  18.430 -0.0495  0.2056 -0.0880
 3723G1FFO Tail43957  19.485  15.715  18.436 -0.0552  0.3006 -0.0795
 3723G1FFO Tail43958  19.700  15.591  18.456 -0.0634  0.1429  0.4318
 3723G1FFO Tail43959  19.888  15.468  18.531  0.1939  0.3079  0.0814
 3724G1FFO Head43960  17.458  20.774  20.095  0.0117 -0.0764 -0.2266
 3724G1FFO Head43961  17.472  20.656  20.346  0.0761 -0.3391  0.0212
 3724G1FFO Head43962  17.853  21.044  20.443  0.1607 -0.2798  0.0245
 3724G1FFO Head43963  17.873  20.731  20.479  0.0264  0.2980 -0.1135
 3724G1FFO link43964  17.695  20.560  20.438  0.2767 -0.2411 -0.0442
 3724G1FFO link43965  17.742  20.283  20.391  0.0036  0.0906 -0.1410
 3724G1FFO Tail43966  17.536  20.041  20.499 -0.2350  0.2256  0.4614
 3724G1FFO Tail43967  17.612  19.795  20.253  0.1627 -0.4744 -0.2254
 3724G1FFO Tail43968  17.463  19.577  20.243 -0.2396  0.1129 -0.0254
 3724G1FFO Tail43969  17.389  19.476  20.477  0.2428  0.2457  0.2493
 3724G1FFO Tail43970  17.286  19.338  20.670  0.0873  0.0940 -0.0573
 3724G1FFO Tail43971  17.135  19.234  20.824  0.1151  0.0535 -0.0917
 3724G1FFO Tail43972  17.248  20.167  20.334 -0.0974  0.0466  0.4064
 3724G1FFO Tail43973  17.266  20.280  20.099 -0.4484  0.0602  0.3665
 3724G1FFO Tail43974  17.490  20.255  19.964 -0.1304  0.0513  0.0917
 3724G1FFO Tail43975  17.701  20.198  19.843 -0.1828  0.3384  0.3727
 3724G1FFO Tail43976  17.881  20.079  19.746  0.0625 -0.0198  0.2833
 3725G1FFO Head43977  14.496  13.964  19.453 -0.2294 -0.0847 -0.0228
 3725G1FFO Head43978  14.531  14.073  19.753  0.0986  0.4120  0.3407
 3725G1FFO Head43979  15.049  13.830  20.139 -0.1911  0.0946  0.0317
 3725G1FFO Head43980  14.807  13.883  20.005  0.3497  0.2222 -0.2599
 3725G1FFO link43981  14.784  14.103  19.864  0.1163 -0.1523 -0.1182
 3725G1FFO link43982  14.882  14.350  19.971 -0.0188  0.0419 -0.2041
 3725G1FFO Tail43983  14.950  14.636  19.822 -0.0657  0.1462  0.1055
 3725G1FFO Tail43984  15.220  14.560  19.624 -0.0203  0.2331  0.2534
 3725G1FFO Tail43985  15.428  14.714  19.644  0.1018 -0.1450 -0.0983
 3725G1FFO Tail43986  15.616  14.645  19.812 -0.2109 -0.0125  0.0062
 3725G1FFO Tail43987  15.821  14.560  19.941  0.0097  0.0689  0.1408
 3725G1FFO Tail43988  15.992  14.434  20.023  0.0123  0.3493 -0.2871
 3725G1FFO Tail43989  15.147  14.767  20.087  0.1247  0.0595 -0.1037
 3725G1FFO Tail43990  15.331  14.628  20.198  0.1748  0.1869 -0.1827
 3725G1FFO Tail43991  15.525  14.757  20.314  0.0693  0.0550 -0.0037
 3725G1FFO Tail43992  15.697  14.884  20.441 -0.0386  0.0528  0.0097
 3725G1FFO Tail43993  15.864  15.033  20.508  0.1158  0.3174 -0.2095
 3726G1FFO Head43994  13.460  15.147  21.189  0.2564  0.3282 -0.0590
 3726G1FFO Head43995  13.593  15.201  20.918  0.3369  0.1433 -0.0905
 3726G1FFO Head43996  13.286  15.437  20.438  0.5386 -0.0605  0.0087
 3726G1FFO Head43997  13.565  15.366  20.564 -0.5747  0.1506  0.0016
 3726G1FFO link43998  13.623  15.405  20.803  0.0248 -0.3412  0.0675
 3726G1FFO link43999  13.768  15.635  20.895 -0.1202  0.1559  0.0307
 3726G1FFO Tail44000  14.059  15.709  20.760 -0.2694  0.1180 -0.5043
 3726G1FFO Tail44001  14.186  15.380  20.730  0.3159  0.0168 -0.1858
 3726G1FFO Tail44002  14.047  15.176  20.630  0.0181 -0.2351 -0.1833
 3726G1FFO Tail44003  13.952  15.211  20.394  0.2494  0.1894 -0.3191
 3726G1FFO Tail44004  13.814  15.217  20.176  0.1878 -0.0965  0.2921
 3726G1FFO Tail44005  13.704  15.296  19.983 -0.0246  0.0419  0.2143
 3726G1FFO Tail44006  14.229  15.793  21.064  0.1509  0.1806  0.0666
 3726G1FFO Tail44007  14.481  15.831  21.058 -0.0778  0.1177 -0.0395
 3726G1FFO Tail44008  14.588  16.038  21.169 -0.1733 -0.1634  0.1792
 3726G1FFO Tail44009  14.664  16.241  21.306  0.3092  0.0457  0.2764
 3726G1FFO Tail44010  14.747  16.385  21.474 -0.0259  0.0730  0.1488
 3727G1FFO Head44011  14.250  18.553  22.538  0.0898  0.1060 -0.0395
 3727G1FFO Head44012  14.354  18.331  22.359  0.5457  0.2980 -0.3345
 3727G1FFO Head44013  14.569  18.145  22.727 -0.1845 -0.0747  0.0792
 3727G1FFO Head44014  14.719  18.305  22.485 -0.1009 -0.0316  0.2778
 3727G1FFO link44015  14.603  18.354  22.275  0.1736  0.1885  0.4661
 3727G1FFO link44016  14.700  18.571  22.110 -0.1107 -0.1436  0.4387
 3727G1FFO Tail44017  15.000  18.583  21.997  0.2669 -0.1911  0.2018
 3727G1FFO Tail44018  15.185  18.453  22.266 -0.0417  0.4060  0.0909
 3727G1FFO Tail44019  15.375  18.585  22.392 -0.1881  0.2198  0.2994
 3727G1FFO Tail44020  15.519  18.735  22.239  0.2060 -0.1381 -0.2037
 3727G1FFO Tail44021  15.655  18.905  22.106  0.0956  0.2070 -0.0127
 3727G1FFO Tail44022  15.750  19.086  21.990 -0.4864  0.0617 -0.1716
 3727G1FFO Tail44023  15.083  18.906  22.068  0.1950  0.0870 -0.1153
 3727G1FFO Tail44024  14.949  19.057  22.249  0.0261 -0.0799  0.2251
 3727G1FFO Tail44025  14.692  19.037  22.231 -0.0539  0.1617  0.0219
 3727G1FFO Tail44026  14.445  18.983  22.212  0.2177 -0.1715  0.1754
 3727G1FFO Tail44027  14.231  18.889  22.244  0.0392  0.1610 -0.0036
 3728G1FFO Head44028  16.615  16.481  21.139 -0.1573 -0.0005 -0.0064
 3728G1FFO Head44029  16.793  16.658  20.949  0.0422 -0.0099 -0.0341
 3728G1FFO Head44030  16.506  16.741  20.602  0.0414  0.1350  0.1757
 3728G1FFO Head44031  16.768  16.607  20.547  0.0523 -0.0652  0.3003
 3728G1FFO link44032  16.908  16.541  20.744 -0.2662  0.0398  0.0393
 3728G1FFO link44033  17.127  16.365  20.773 -0.4061  0.2357 -0.4356
 3728G1FFO Tail44034  17.427  16.486  20.709 -0.1089  0.1356 -0.1583
 3728G1FFO Tail44035  17.419  16.514  20.355  0.3076 -0.2853  0.2119
 3728G1FFO Tail44036  17.342  16.751  20.266  0.0477 -0.1025  0.2257
 3728G1FFO Tail44037  17.156  16.879  20.391 -0.0775  0.1019 -0.1741
 3728G1FFO Tail44038  16.984  16.979  20.542 -0.0901 -0.0270  0.1392
 3728G1FFO Tail44039  16.793  17.022  20.661  0.2520 -0.1136 -0.0936
 3728G1FFO Tail44040  17.598  16.195  20.750 -0.4990  0.1049 -0.1803
 3728G1FFO Tail44041  17.832  16.170  20.626  0.1413  0.1447 -0.3790
 3728G1FFO Tail44042  17.862  15.995  20.440 -0.0165  0.0771  0.0027
 3728G1FFO Tail44043  17.849  15.837  20.243 -0.0212  0.3131  0.3546
 3728G1FFO Tail44044  17.918  15.701  20.057  0.1342 -0.0573 -0.2486
 3729G1FFO Head44045  16.425  16.870  24.072  0.0904  0.1582 -0.3563
 3729G1FFO Head44046  16.746  16.953  23.972  0.0562  0.1728 -0.4850
 3729G1FFO Head44047  16.965  17.044  24.562 -0.1747  0.1930 -0.0200
 3729G1FFO Head44048  16.773  17.142  24.344  0.4776 -0.0179  0.0709
 3729G1FFO link44049  16.852  17.172  24.088  0.1721 -0.1868 -0.0288
 3729G1FFO link44050  16.947  17.410  23.986  0.4535 -0.1932  0.5343
 3729G1FFO Tail44051  16.878  17.479  23.678  0.4348 -0.1074 -0.1195
 3729G1FFO Tail44052  16.823  17.139  23.573  0.4295 -0.0672 -0.3081
 3729G1FFO Tail44053  16.913  17.070  23.341 -0.0866  0.0075  0.1245
 3729G1FFO Tail44054  16.992  17.251  23.166  0.0669 -0.0344 -0.0568
 3729G1FFO Tail44055  17.066  17.455  23.034  0.2328 -0.1325  0.0227
 3729G1FFO Tail44056  17.080  17.629  22.877 -0.1813 -0.1147  0.2004
 3729G1FFO Tail44057  17.193  17.484  23.515  0.3771 -0.0744 -0.3777
 3729G1FFO Tail44058  17.375  17.316  23.608 -0.0482 -0.1711 -0.1956
 3729G1FFO Tail44059  17.346  17.219  23.842 -0.3256 -0.1801  0.0010
 3729G1FFO Tail44060  17.354  17.096  24.062 -0.2845 -0.0057  0.1996
 3729G1FFO Tail44061  17.418  16.978  24.254 -0.1646  0.1122 -0.3779
 3730G1FFO Head44062  14.797  14.426  21.794  0.0540  0.1305  0.1692
 3730G1FFO Head44063  14.925  14.530  21.521  0.3258  0.3048  0.2771
 3730G1FFO Head44064  14.557  14.144  21.414  0.1542  0.1395  0.1901
 3730G1FFO Head44065  14.596  14.399  21.315 -0.0245 -0.0080 -0.3602
 3730G1FFO link44066  14.824  14.462  21.288 -0.3977 -0.2241 -0.0808
 3730G1FFO link44067  14.935  14.576  21.058  0.1748 -0.0138  0.0553
 3730G1FFO Tail44068  15.256  14.612  21.024  0.1388 -0.3257  0.0830
 3730G1FFO Tail44069  15.337  14.863  21.254 -0.1285 -0.4123  0.1520
 3730G1FFO Tail44070  15.246  14.853  21.507  0.1382 -0.1025  0.1281
 3730G1FFO Tail44071  15.102  15.066  21.574  0.0092  0.2840  0.0271
 3730G1FFO Tail44072  14.981  15.270  21.683  0.0514  0.2124  0.0348
 3730G1FFO Tail44073  14.937  15.474  21.786  0.2792  0.1289  0.2032
 3730G1FFO Tail44074  15.234  14.780  20.719 -0.2480  0.0216  0.1924
 3730G1FFO Tail44075  15.300  15.034  20.699 -0.0968  0.0800 -0.1501
 3730G1FFO Tail44076  15.492  15.123  20.851 -0.0024  0.0522  0.0862
 3730G1FFO Tail44077  15.706  15.196  20.950 -0.2267 -0.1280  0.1580
 3730G1FFO Tail44078  15.933  15.184  21.022 -0.1113  0.0707  0.0696
 3731G1FFO Head44079  17.538  12.653  21.456  0.1673  0.1105  0.0600
 3731G1FFO Head44080  17.351  12.807  21.268  0.2828  0.4893  0.1613
 3731G1FFO Head44081  17.349  12.337  20.730 -0.1470  0.1150 -0.1689
 3731G1FFO Head44082  17.337  12.473  21.022  0.4900 -0.0487 -0.4298
 3731G1FFO link44083  17.320  12.719  21.025 -0.1800 -0.1340  0.4745
 3731G1FFO link44084  17.228  12.907  20.833 -0.0756  0.3637 -0.0525
 3731G1FFO Tail44085  17.139  13.204  20.950  0.2348  0.0781 -0.1600
 3731G1FFO Tail44086  17.423  13.299  21.107 -0.0279  0.2111 -0.1546
 3731G1FFO Tail44087  17.424  13.299  21.364  0.0383 -0.2232  0.3705
 3731G1FFO Tail44088  17.254  13.451  21.487 -0.4213 -0.2517  0.1866
 3731G1FFO Tail44089  17.096  13.573  21.639 -0.0019 -0.0987  0.1360
 3731G1FFO Tail44090  16.936  13.709  21.741  0.1857  0.0381 -0.2679
 3731G1FFO Tail44091  16.953  13.096  21.246 -0.0521 -0.1260 -0.0969
 3731G1FFO Tail44092  16.705  13.159  21.298  0.3732 -0.2136  0.0421
 3731G1FFO Tail44093  16.537  13.173  21.097  0.1305 -0.3462  0.0502
 3731G1FFO Tail44094  16.374  13.235  20.916 -0.0328 -0.1224 -0.1785
 3731G1FFO Tail44095  16.228  13.344  20.774 -0.1486  0.0192 -0.3662
 3732G1FFO Head44096  17.777  16.225  19.851  0.1727 -0.1089 -0.1233
 3732G1FFO Head44097  18.052  16.244  19.704  0.4160  0.0800 -0.0800
 3732G1FFO Head44098  17.900  15.622  19.551  0.4640 -0.1279  0.3287
 3732G1FFO Head44099  18.132  15.871  19.559  0.1834 -0.0115  0.2751
 3732G1FFO link44100  18.103  16.124  19.472  0.6329 -0.1761  0.5879
 3732G1FFO link44101  18.079  16.216  19.209  0.0997  0.1701 -0.1107
 3732G1FFO Tail44102  18.215  16.514  19.121 -0.2399 -0.0742 -0.4632
 3732G1FFO Tail44103  18.521  16.439  18.984  0.1364  0.0537  0.3129
 3732G1FFO Tail44104  18.557  16.240  18.817 -0.0237 -0.0142  0.0674
 3732G1FFO Tail44105  18.345  16.109  18.734 -0.0278 -0.0628  0.2385
 3732G1FFO Tail44106  18.177  15.952  18.631 -0.1141 -0.2727  0.1160
 3732G1FFO Tail44107  17.992  15.856  18.519  0.3499  0.2646  0.0350
 3732G1FFO Tail44108  18.330  16.662  19.431 -0.1141  0.0405 -0.0634
 3732G1FFO Tail44109  18.152  16.742  19.600  0.0084  0.1547  0.3567
 3732G1FFO Tail44110  17.906  16.685  19.535 -0.0435  0.2309  0.1658
 3732G1FFO Tail44111  17.685  16.612  19.424  0.0943 -0.2127 -0.0889
 3732G1FFO Tail44112  17.479  16.510  19.368 -0.2626 -0.0281  0.3541
 3733G1FFO Head44113  13.081  18.578  20.527 -0.2440 -0.2263  0.2077
 3733G1FFO Head44114  12.919  18.324  20.603  0.1032 -0.1258 -0.2662
 3733G1FFO Head44115  12.734  17.760  20.829 -0.1031  0.2639  0.2102
 3733G1FFO Head44116  12.742  18.049  20.869 -0.0208 -0.1859 -0.0806
 3733G1FFO link44117  12.960  18.188  20.840 -0.2254  0.1200 -0.0076
 3733G1FFO link44118  13.213  18.114  20.931  0.4034  0.1648  0.1620
 3733G1FFO Tail44119  13.356  18.210  21.206 -0.0656 -0.2694  0.2648
 3733G1FFO Tail44120  13.485  18.519  21.087  0.2773  0.2330  0.1527
 3733G1FFO Tail44121  13.712  18.530  20.972  0.0241 -0.5179  0.0686
 3733G1FFO Tail44122  13.900  18.682  21.054  0.2233 -0.1553 -0.0551
 3733G1FFO Tail44123  14.083  18.851  21.094 -0.1234  0.0223 -0.0189
 3733G1FFO Tail44124  14.277  18.975  21.054 -0.0247 -0.1304 -0.0352
 3733G1FFO Tail44125  13.641  18.013  21.244  0.0783 -0.1904  0.0060
 3733G1FFO Tail44126  13.862  18.130  21.329 -0.3340 -0.1584 -0.0626
 3733G1FFO Tail44127  13.843  18.364  21.432 -0.1347  0.0300  0.0573
 3733G1FFO Tail44128  13.794  18.594  21.549  0.2438  0.0145  0.1038
 3733G1FFO Tail44129  13.797  18.832  21.592 -0.1327  0.0682 -0.0045
 3734G1FFO Head44130  16.924  18.818  24.915  0.1425 -0.0345 -0.0320
 3734G1FFO Head44131  17.152  18.909  24.721  0.3131 -0.2151  0.0225
 3734G1FFO Head44132  16.623  19.036  24.559  0.0134  0.1306 -0.0366
 3734G1FFO Head44133  16.896  18.942  24.396  0.1724 -0.0978 -0.0859
 3734G1FFO link44134  17.115  18.993  24.481 -0.5519  0.0156 -0.5530
 3734G1FFO link44135  17.301  19.123  24.324 -0.1344  0.4698  0.1183
 3734G1FFO Tail44136  17.290  19.101  23.986 -0.1820 -0.1422  0.1670
 3734G1FFO Tail44137  16.978  18.937  23.936 -0.3661 -0.0987 -0.1076
 3734G1FFO Tail44138  16.758  19.056  24.005  0.3932 -0.2820 -0.0518
 3734G1FFO Tail44139  16.562  19.060  23.841 -0.1544  0.0012 -0.0743
 3734G1FFO Tail44140  16.378  19.034  23.668 -0.0329  0.2458 -0.0553
 3734G1FFO Tail44141  16.217  18.946  23.521 -0.1331 -0.2574  0.0860
 3734G1FFO Tail44142  17.519  18.853  23.912 -0.0076  0.0081 -0.2005
 3734G1FFO Tail44143  17.761  18.902  23.826 -0.2326  0.2201 -0.2361
 3734G1FFO Tail44144  17.934  18.713  23.878 -0.0383  0.0009  0.1342
 3734G1FFO Tail44145  18.081  18.535  23.961 -0.0520  0.3583 -0.1830
 3734G1FFO Tail44146  18.254  18.419  24.065  0.2337  0.0113 -0.2463
 3735G1FFO Head44147  21.498  17.081  19.615 -0.4678 -0.0082  0.1556
 3735G1FFO Head44148  21.270  17.220  19.807 -0.1640  0.1352  0.1212
 3735G1FFO Head44149  21.330  17.828  19.453 -0.0314  0.0533 -0.0349
 3735G1FFO Head44150  21.259  17.534  19.507  0.7602  0.0060  0.3085
 3735G1FFO link44151  21.158  17.443  19.726  0.0728  0.1171  0.0801
 3735G1FFO link44152  20.945  17.571  19.859 -0.3636  0.2621 -0.2548
 3735G1FFO Tail44153  20.721  17.402  20.030  0.0541  0.2130 -0.0884
 3735G1FFO Tail44154  20.467  17.435  19.816 -0.1397  0.0910 -0.0606
 3735G1FFO Tail44155  20.525  17.580  19.610 -0.2415  0.0799 -0.0903
 3735G1FFO Tail44156  20.378  17.793  19.559 -0.3200  0.1848  0.1203
 3735G1FFO Tail44157  20.252  18.016  19.545 -0.4662  0.1514 -0.1180
 3735G1FFO Tail44158  20.076  18.181  19.525  0.0715  0.1304 -0.2613
 3735G1FFO Tail44159  20.626  17.639  20.264  0.3026 -0.0895 -0.0093
 3735G1FFO Tail44160  20.501  17.847  20.191 -0.0317 -0.0018  0.1913
 3735G1FFO Tail44161  20.562  17.991  19.987 -0.0165 -0.0066  0.2048
 3735G1FFO Tail44162  20.620  18.168  19.807  0.2821  0.1713  0.0375
 3735G1FFO Tail44163  20.690  18.360  19.697 -0.0602  0.0047  0.1663
 3736G1FFO Head44164  18.699  17.750  19.373  0.0126  0.2563  0.1987
 3736G1FFO Head44165  18.867  17.496  19.272  0.1476 -0.0773 -0.2532
 3736G1FFO Head44166  18.989  17.114  19.013 -0.2800  0.2378  0.0154
 3736G1FFO Head44167  19.168  17.203  19.256  0.1156 -0.2758  0.2116
 3736G1FFO link44168  19.099  17.435  19.344  0.0834  0.1862 -0.1086
 3736G1FFO link44169  19.268  17.643  19.443 -0.0658  0.2438 -0.1565
 3736G1FFO Tail44170  19.559  17.556  19.588 -0.0364  0.4884 -0.1594
 3736G1FFO Tail44171  19.450  17.345  19.842  0.2535 -0.1322  0.2752
 3736G1FFO Tail44172  19.194  17.299  19.915  0.0684  0.3659 -0.3085
 3736G1FFO Tail44173  19.021  17.223  19.741 -0.0960 -0.1320 -0.0528
 3736G1FFO Tail44174  18.866  17.112  19.566  0.2030 -0.0387  0.1350
 3736G1FFO Tail44175  18.693  16.992  19.450  0.0852 -0.0798 -0.0669
 3736G1FFO Tail44176  19.648  17.854  19.748 -0.2308 -0.3432  0.4820
 3736G1FFO Tail44177  19.572  18.108  19.692  0.1707 -0.1050 -0.1908
 3736G1FFO Tail44178  19.692  18.320  19.805  0.1509  0.0477 -0.0053
 3736G1FFO Tail44179  19.767  18.510  19.958 -0.2858 -0.0156 -0.0209
 3736G1FFO Tail44180  19.902  18.660  20.077  0.1633 -0.1312 -0.1744
 3737G1FFO Head44181  15.556  19.574  22.730  0.1047  0.2401 -0.0618
 3737G1FFO Head44182  15.875  19.622  22.701 -0.3315 -0.1593 -0.4160
 3737G1FFO Head44183  15.741  20.153  22.750  0.1408  0.3622  0.6669
 3737G1FFO Head44184  15.962  19.986  22.548 -0.2022 -0.2261  0.0702
 3737G1FFO link44185  15.945  19.756  22.480 -0.0816  0.4316 -0.0910
 3737G1FFO link44186  16.087  19.661  22.254 -0.1383  0.1777  0.1927
 3737G1FFO Tail44187  15.967  19.472  22.016 -0.1704  0.1724  0.0435
 3737G1FFO Tail44188  16.208  19.209  22.025 -0.2893 -0.2281  0.2078
 3737G1FFO Tail44189  16.436  19.230  22.166  0.0420  0.3659  0.2394
 3737G1FFO Tail44190  16.611  19.037  22.139 -0.0534 -0.0792  0.3662
 3737G1FFO Tail44191  16.810  18.887  22.081  0.1528 -0.1069 -0.1184
 3737G1FFO Tail44192  16.989  18.736  22.076  0.1559  0.0612 -0.0476
 3737G1FFO Tail44193  16.089  19.675  21.756 -0.0239  0.0286  0.1299
 3737G1FFO Tail44194  16.347  19.742  21.753  0.5610 -0.0927  0.5178
 3737G1FFO Tail44195  16.507  19.656  21.938  0.1964  0.2708 -0.1400
 3737G1FFO Tail44196  16.654  19.602  22.133  0.0387  0.1438  0.2540
 3737G1FFO Tail44197  16.740  19.544  22.347  0.2606 -0.0880 -0.0584
 3738G1FFO Head44198  15.359  19.471  24.072 -0.1527 -0.0786 -0.1057
 3738G1FFO Head44199  15.470  19.277  23.892 -0.0046  0.3165 -0.0940
 3738G1FFO Head44200  15.137  19.020  24.293 -0.1183 -0.0703 -0.1705
 3738G1FFO Head44201  15.170  19.014  24.038  0.2453 -0.0197  0.2456
 3738G1FFO link44202  15.376  19.043  23.898  0.2124  0.3184 -0.0974
 3738G1FFO link44203  15.453  18.821  23.726 -0.2154 -0.1445  0.1237
 3738G1FFO Tail44204  15.756  18.783  23.591  0.1579  0.0781  0.2054
 3738G1FFO Tail44205  15.803  18.455  23.528 -0.0711  0.3448 -0.3296
 3738G1FFO Tail44206  15.941  18.390  23.327 -0.0769 -0.1965 -0.3320
 3738G1FFO Tail44207  16.007  18.144  23.298  0.1929 -0.0179  0.0011
 3738G1FFO Tail44208  16.040  17.896  23.288  0.0972 -0.2527 -0.1235
 3738G1FFO Tail44209  16.113  17.673  23.324 -0.0954 -0.0812  0.2681
 3738G1FFO Tail44210  15.955  18.799  23.883 -0.5517  0.1825 -0.2486
 3738G1FFO Tail44211  16.075  18.582  23.975 -0.3063 -0.0991  0.1191
 3738G1FFO Tail44212  16.243  18.455  23.813  0.3015 -0.0495 -0.1843
 3738G1FFO Tail44213  16.398  18.294  23.686 -0.0410  0.0500 -0.1170
 3738G1FFO Tail44214  16.478  18.128  23.542  0.4605 -0.1227  0.0853
 3739G1FFO Head44215  15.340  17.438  21.790  0.2212  0.0543 -0.1200
 3739G1FFO Head44216  15.492  17.151  21.872  0.2353  0.1009  0.2537
 3739G1FFO Head44217  15.304  17.222  21.307 -0.0325  0.0851  0.2839
 3739G1FFO Head44218  15.266  16.997  21.544  0.0152 -0.1119  0.5003
 3739G1FFO link44219  15.470  16.950  21.693 -0.3867 -0.2613 -0.6450
 3739G1FFO link44220  15.523  16.684  21.780  0.1187  0.0204  0.2744
 3739G1FFO Tail44221  15.552  16.429  21.554 -0.1010 -0.5193 -0.1683
 3739G1FFO Tail44222  15.236  16.322  21.555 -0.2575 -0.0201  0.0141
 3739G1FFO Tail44223  15.122  16.211  21.761  0.5693  0.2172 -0.2084
 3739G1FFO Tail44224  15.262  16.193  21.977  0.0833  0.0539  0.1011
 3739G1FFO Tail44225  15.377  16.204  22.202  0.1785 -0.0335 -0.2833
 3739G1FFO Tail44226  15.530  16.220  22.391  0.2440 -0.1040 -0.2343
 3739G1FFO Tail44227  15.698  16.161  21.747  0.2285 -0.1491  0.0112
 3739G1FFO Tail44228  15.789  15.958  21.611  0.0896 -0.2983  0.0398
 3739G1FFO Tail44229  15.985  15.980  21.446  0.1200 -0.0982 -0.2373
 3739G1FFO Tail44230  16.166  16.043  21.275  0.1361  0.1951 -0.0807
 3739G1FFO Tail44231  16.316  16.169  21.151  0.2663  0.0075 -0.1810
 3740G1FFO Head44232  17.250  17.450  25.042  0.0339 -0.2654  0.1134
 3740G1FFO Head44233  17.401  17.275  24.906  0.3131 -0.1699 -0.2120
 3740G1FFO Head44234  17.861  17.734  24.666 -0.0898  0.1139 -0.3697
 3740G1FFO Head44235  17.747  17.508  24.812  0.4298  0.0851 -0.2608
 3740G1FFO link44236  17.580  17.339  24.710 -0.1663 -0.0025 -0.2431
 3740G1FFO link44237  17.535  17.348  24.421  0.3390  0.2473 -0.4986
 3740G1FFO Tail44238  17.639  17.558  24.199 -0.1856 -0.0422 -0.1041
 3740G1FFO Tail44239  17.348  17.676  24.052 -0.1278 -0.2338 -0.0838
 3740G1FFO Tail44240  17.376  17.821  23.840  0.0261 -0.0997 -0.2806
 3740G1FFO Tail44241  17.566  17.739  23.683  0.1593  0.1056 -0.0095
 3740G1FFO Tail44242  17.742  17.627  23.533 -0.2247 -0.0176  0.1448
 3740G1FFO Tail44243  17.928  17.507  23.446 -0.2641 -0.1172 -0.0888
 3740G1FFO Tail44244  17.767  17.361  23.963  0.2895  0.1465 -0.2205
 3740G1FFO Tail44245  17.907  17.142  24.017  0.3739  0.2904  0.4796
 3740G1FFO Tail44246  17.865  17.022  24.238 -0.0315  0.1486  0.1787
 3740G1FFO Tail44247  17.878  16.885  24.458  0.3361  0.0391  0.1306
 3740G1FFO Tail44248  17.892  16.715  24.624 -0.2165  0.0325 -0.0537
 3741G1FFO Head44249  14.231  15.186  21.322  0.1010  0.0208 -0.2634
 3741G1FFO Head44250  14.055  15.393  21.264  0.2012  0.0127  0.3028
 3741G1FFO Head44251  13.568  15.595  21.368 -0.0975  0.2063  0.0186
 3741G1FFO Head44252  13.849  15.753  21.374  0.1911  0.0328  0.1317
 3741G1FFO link44253  14.051  15.602  21.434  0.5545 -0.0743  0.5080
 3741G1FFO link44254  14.262  15.691  21.612 -0.1458 -0.1800 -0.3284
 3741G1FFO Tail44255  14.370  16.005  21.613  0.3085  0.1247 -0.1804
 3741G1FFO Tail44256  14.698  15.950  21.763  0.1729 -0.1300  0.0074
 3741G1FFO Tail44257  14.881  15.877  21.595 -0.1176  0.3398 -0.0199
 3741G1FFO Tail44258  14.822  15.687  21.436 -0.3485  0.0692  0.1525
 3741G1FFO Tail44259  14.739  15.525  21.260  0.1702 -0.2320 -0.1614
 3741G1FFO Tail44260  14.609  15.375  21.131  0.0379  0.0495 -0.0339
 3741G1FFO Tail44261  14.218  16.122  21.894  0.1983 -0.2280 -0.1336
 3741G1FFO Tail44262  14.106  15.950  22.066  0.1142 -0.1700  0.1481
 3741G1FFO Tail44263  13.986  16.061  22.257  0.2237  0.0899 -0.2123
 3741G1FFO Tail44264  13.877  16.174  22.461  0.0850  0.0624 -0.0679
 3741G1FFO Tail44265  13.815  16.236  22.679 -0.0669 -0.2758 -0.4186
 3742G1FFO Head44266  18.474  19.102  20.119  0.2260 -0.0907  0.0542
 3742G1FFO Head44267  18.154  19.082  20.127 -0.2435 -0.0974 -0.0106
 3742G1FFO Head44268  18.179  18.528  20.557 -0.0341 -0.1271 -0.1942
 3742G1FFO Head44269  18.240  18.741  20.326 -0.0924 -0.0812 -0.0440
 3742G1FFO link44270  18.051  18.885  20.233  0.0426 -0.0611 -0.2246
 3742G1FFO link44271  17.775  18.860  20.295 -0.0391  0.0339 -0.1731
 3742G1FFO Tail44272  17.620  19.151  20.260 -0.0798 -0.2362 -0.0410
 3742G1FFO Tail44273  17.322  19.046  20.098  0.0520 -0.4562  0.1460
 3742G1FFO Tail44274  17.081  19.160  20.113 -0.0191  0.4403 -0.2992
 3742G1FFO Tail44275  17.073  19.417  20.064 -0.0537 -0.1308 -0.3394
 3742G1FFO Tail44276  17.100  19.652  20.006 -0.1754 -0.1002  0.1148
 3742G1FFO Tail44277  17.166  19.874  19.998  0.0506 -0.0418  0.0427
 3742G1FFO Tail44278  17.759  19.270  19.952  0.1342  0.0818  0.2116
 3742G1FFO Tail44279  17.830  19.521  19.937 -0.0048 -0.2044 -0.1725
 3742G1FFO Tail44280  17.999  19.620  19.767 -0.1232  0.1318 -0.0215
 3742G1FFO Tail44281  18.167  19.708  19.593  0.2227 -0.0310  0.1429
 3742G1FFO Tail44282  18.306  19.842  19.464 -0.0121 -0.0238 -0.1407
 3743G1FFO Head44283  16.648  20.296  19.046  0.0748  0.3088  0.1773
 3743G1FFO Head44284  16.807  20.154  19.266  0.3186  0.3169  0.2809
 3743G1FFO Head44285  16.875  20.654  19.298 -0.0754 -0.1038  0.3204
 3743G1FFO Head44286  17.115  20.391  19.319 -0.2771 -0.2638  0.0550
 3743G1FFO link44287  17.058  20.147  19.257  0.2642  0.0139 -0.2093
 3743G1FFO link44288  17.240  19.937  19.326  0.0394  0.3056 -0.1094
 3743G1FFO Tail44289  17.528  19.961  19.464  0.0500 -0.3307  0.2212
 3743G1FFO Tail44290  17.715  19.732  19.249 -0.0416 -0.0242 -0.1210
 3743G1FFO Tail44291  17.686  19.746  18.980 -0.3239  0.0619 -0.3748
 3743G1FFO Tail44292  17.721  19.537  18.838  0.2015  0.1162  0.2216
 3743G1FFO Tail44293  17.761  19.349  18.675  0.0667 -0.0250 -0.2609
 3743G1FFO Tail44294  17.833  19.148  18.579  0.1979  0.4178 -0.0358
 3743G1FFO Tail44295  17.490  19.763  19.731  0.3903  0.3166 -0.3627
 3743G1FFO Tail44296  17.396  19.514  19.722  0.3532 -0.1013 -0.0337
 3743G1FFO Tail44297  17.453  19.383  19.504  0.0928  0.0228 -0.0346
 3743G1FFO Tail44298  17.537  19.236  19.314  0.3193  0.0396 -0.0408
 3743G1FFO Tail44299  17.634  19.148  19.116 -0.3129 -0.1265 -0.0550
 3744G1FFO Head44300  17.885  14.709  18.621  0.0618 -0.0887 -0.0649
 3744G1FFO Head44301  17.574  14.663  18.645  0.3944  0.2153  0.2342
 3744G1FFO Head44302  16.940  14.954  18.697  0.3332 -0.3632 -0.2145
 3744G1FFO Head44303  17.168  14.766  18.689 -0.7401  0.1857 -0.3289
 3744G1FFO link44304  17.411  14.857  18.689 -0.7628  0.1797  0.1820
 3744G1FFO link44305  17.496  15.121  18.758  0.3873  0.3947  0.2541
 3744G1FFO Tail44306  17.678  15.318  18.568 -0.3987 -0.0672 -0.1822
 3744G1FFO Tail44307  17.977  15.254  18.717 -0.0945 -0.0741 -0.3068
 3744G1FFO Tail44308  18.196  15.399  18.708  0.1785 -0.0194  0.0416
 3744G1FFO Tail44309  18.370  15.346  18.886  0.1041 -0.0837  0.0706
 3744G1FFO Tail44310  18.518  15.319  19.086  0.0389 -0.2059 -0.0537
 3744G1FFO Tail44311  18.699  15.303  19.227 -0.1954  0.1923 -0.0796
 3744G1FFO Tail44312  17.625  15.634  18.682 -0.1301 -0.0264  0.0494
 3744G1FFO Tail44313  17.510  15.822  18.524  0.1553 -0.1260  0.0316
 3744G1FFO Tail44314  17.266  15.916  18.577  0.3975 -0.2076 -0.2113
 3744G1FFO Tail44315  17.029  15.994  18.597 -0.0779  0.1592 -0.1711
 3744G1FFO Tail44316  16.792  16.011  18.591 -0.1501  0.0228 -0.0256
 3745G1FFO Head44317  14.578  16.317  23.152  0.0742 -0.2955  0.2465
 3745G1FFO Head44318  14.858  16.414  23.204 -0.1183 -0.1517 -0.0982
 3745G1FFO Head44319  15.150  16.091  23.762  0.0018  0.0708 -0.3026
 3745G1FFO Head44320  14.958  16.168  23.510 -0.1657 -0.2462 -0.0684
 3745G1FFO link44321  15.055  16.232  23.278  0.1687 -0.0953 -0.1255
 3745G1FFO link44322  15.272  16.119  23.142 -0.2375  0.0949  0.0068
 3745G1FFO Tail44323  15.321  16.214  22.833  0.3549 -0.1592  0.2480
 3745G1FFO Tail44324  15.422  15.914  22.691  0.1570  0.1024  0.0474
 3745G1FFO Tail44325  15.649  15.859  22.589  0.0181  0.1108 -0.2945
 3745G1FFO Tail44326  15.862  15.871  22.742  0.1076 -0.0028  0.2577
 3745G1FFO Tail44327  16.069  15.825  22.888  0.0637  0.0677 -0.0851
 3745G1FFO Tail44328  16.232  15.836  23.049  0.0382 -0.2960 -0.0221
 3745G1FFO Tail44329  15.636  16.331  22.853 -0.1501 -0.2043 -0.0717
 3745G1FFO Tail44330  15.727  16.540  22.991  0.1402  0.0828 -0.3035
 3745G1FFO Tail44331  15.708  16.775  22.895 -0.4086  0.0197  0.0787
 3745G1FFO Tail44332  15.654  17.014  22.806  0.0065  0.2834 -0.1445
 3745G1FFO Tail44333  15.649  17.237  22.768  0.3636 -0.0042  0.0273
 3746G1FFO Head44334  15.844  13.129  20.947 -0.0117  0.2072  0.2784
 3746G1FFO Head44335  16.048  13.165  21.175  0.2657  0.1608  0.1690
 3746G1FFO Head44336  16.248  13.404  21.724  0.2991  0.3198 -0.1277
 3746G1FFO Head44337  16.306  13.321  21.439  0.2237  0.0867 -0.2520
 3746G1FFO link44338  16.158  13.403  21.249 -0.3819 -0.1442  0.4981
 3746G1FFO link44339  16.184  13.659  21.104 -0.1701  0.2250  0.3382
 3746G1FFO Tail44340  16.184  13.942  21.265 -0.2271 -0.0815  0.4091
 3746G1FFO Tail44341  15.836  13.978  21.325  0.0665 -0.1072 -0.2821
 3746G1FFO Tail44342  15.686  14.076  21.143  0.0330  0.1366  0.3058
 3746G1FFO Tail44343  15.700  14.326  21.079  0.0812 -0.4404  0.1330
 3746G1FFO Tail44344  15.693  14.556  20.968  0.2550  0.1491 -0.0660
 3746G1FFO Tail44345  15.700  14.735  20.822 -0.0923  0.0102  0.0490
 3746G1FFO Tail44346  16.214  14.158  20.981 -0.3055 -0.1869  0.3933
 3746G1FFO Tail44347  16.378  14.123  20.784 -0.2592  0.2318  0.4425
 3746G1FFO Tail44348  16.507  13.903  20.793 -0.0525  0.1000 -0.2015
 3746G1FFO Tail44349  16.603  13.663  20.790 -0.0718  0.0545  0.1233
 3746G1FFO Tail44350  16.750  13.481  20.791 -0.0246  0.4514  0.2699
 3747G1FFO Head44351  18.112  14.275  19.888  0.0049 -0.0428 -0.3071
 3747G1FFO Head44352  18.177  14.545  19.813  0.2561  0.0908  0.1651
 3747G1FFO Head44353  18.660  14.271  19.726 -0.1506 -0.0775  0.1020
 3747G1FFO Head44354  18.579  14.583  19.746 -0.2749 -0.1217 -0.0558
 3747G1FFO link44355  18.391  14.662  19.900  0.1019 -0.4353 -0.3229
 3747G1FFO link44356  18.383  14.898  20.061 -0.2093 -0.0207 -0.1818
 3747G1FFO Tail44357  18.687  15.025  20.087  0.0640 -0.3237 -0.1807
 3747G1FFO Tail44358  18.657  15.171  20.403  0.1786 -0.4917  0.2365
 3747G1FFO Tail44359  18.838  15.324  20.490  0.0519 -0.0777  0.1274
 3747G1FFO Tail44360  19.087  15.287  20.420 -0.1585 -0.2970 -0.0553
 3747G1FFO Tail44361  19.325  15.219  20.380 -0.1691  0.2999 -0.0507
 3747G1FFO Tail44362  19.547  15.189  20.293  0.1671 -0.1735  0.0139
 3747G1FFO Tail44363  18.660  15.341  19.911 -0.1161 -0.0450  0.2390
 3747G1FFO Tail44364  18.674  15.571  20.046  0.0791 -0.2646  0.2716
 3747G1FFO Tail44365  18.467  15.733  20.057 -0.2654  0.0835 -0.1018
 3747G1FFO Tail44366  18.293  15.921  20.041 -0.1363  0.4256  0.0600
 3747G1FFO Tail44367  18.176  16.118  20.077 -0.2341  0.0036 -0.0829
 3748G1FFO Head44368  15.331  20.015  18.735 -0.2477 -0.0554  0.3987
 3748G1FFO Head44369  15.291  19.788  18.888  0.1237 -0.0670  0.0249
 3748G1FFO Head44370  14.806  19.744  18.986 -0.3068  0.2079  0.1021
 3748G1FFO Head44371  15.019  19.777  19.208  0.0620 -0.1008  0.5676
 3748G1FFO link44372  15.260  19.773  19.154 -0.6613 -0.2257 -0.2260
 3748G1FFO link44373  15.495  19.751  19.317  0.0707  0.0875 -0.0983
 3748G1FFO Tail44374  15.472  19.663  19.634 -0.0979  0.2883 -0.0569
 3748G1FFO Tail44375  15.729  19.421  19.661  0.1042 -0.2113  0.3638
 3748G1FFO Tail44376  15.754  19.253  19.463 -0.4170  0.0739 -0.0007
 3748G1FFO Tail44377  15.537  19.114  19.415 -0.1035  0.0998  0.1285
 3748G1FFO Tail44378  15.320  18.992  19.372 -0.2361  0.1988 -0.0111
 3748G1FFO Tail44379  15.096  18.941  19.356  0.3244  0.0653  0.1834
 3748G1FFO Tail44380  15.209  19.460  19.620 -0.2553  0.0455 -0.3444
 3748G1FFO Tail44381  15.127  19.396  19.383  0.0692  0.2973 -0.2623
 3748G1FFO Tail44382  14.869  19.369  19.311  0.0717 -0.1440 -0.1874
 3748G1FFO Tail44383  14.628  19.312  19.274  0.1971 -0.0907  0.0318
 3748G1FFO Tail44384  14.394  19.279  19.293  0.1163 -0.1172 -0.0578
 3749G1FFO Head44385  18.225  18.774  24.949  0.4525 -0.4538 -0.0056
 3749G1FFO Head44386  18.020  18.713  24.783  0.2456 -0.3994  0.1548
 3749G1FFO Head44387  17.794  18.855  25.288  0.1462 -0.3537 -0.0622
 3749G1FFO Head44388  17.769  18.607  25.105 -0.2743  0.1282  0.3620
 3749G1FFO link44389  17.784  18.630  24.853 -0.0951 -0.0798 -0.0358
 3749G1FFO link44390  17.566  18.717  24.685  0.2321  0.1239 -0.1694
 3749G1FFO Tail44391  17.596  18.777  24.364  0.2861  0.0234 -0.2119
 3749G1FFO Tail44392  17.571  18.448  24.250 -0.3538 -0.0899  0.3575
 3749G1FFO Tail44393  17.526  18.395  23.995  0.1305 -0.0343  0.0049
 3749G1FFO Tail44394  17.687  18.229  23.861 -0.1788 -0.2492  0.3749
 3749G1FFO Tail44395  17.870  18.094  23.755 -0.3399  0.0220  0.0172
 3749G1FFO Tail44396  18.004  17.971  23.602  0.1303  0.1632 -0.1798
 3749G1FFO Tail44397  17.937  18.805  24.352 -0.2488  0.1488 -0.1736
 3749G1FFO Tail44398  18.028  19.012  24.223 -0.0844 -0.4270  0.0029
 3749G1FFO Tail44399  17.854  19.201  24.142 -0.3766  0.2166  0.0486
 3749G1FFO Tail44400  17.697  19.355  24.025  0.0065 -0.0336  0.0361
 3749G1FFO Tail44401  17.511  19.495  23.976  0.0932  0.1507  0.0684
 3750G1FFO Head44402  20.872  15.215  18.904  0.0517 -0.0397  0.0790
 3750G1FFO Head44403  20.573  15.295  18.881 -0.0375  0.4602  0.0965
 3750G1FFO Head44404  20.563  15.866  19.274 -0.0564  0.1170  0.0800
 3750G1FFO Head44405  20.626  15.536  19.226  0.0201 -0.4078 -0.3461
 3750G1FFO link44406  20.458  15.427  19.081  0.3365 -0.0676  0.1749
 3750G1FFO link44407  20.195  15.524  19.078 -0.1042  0.0625  0.0008
 3750G1FFO Tail44408  20.091  15.718  19.329  0.3552  0.1487  0.4220
 3750G1FFO Tail44409  19.816  15.544  19.476 -0.0560 -0.2529  0.0377
 3750G1FFO Tail44410  19.678  15.353  19.374  0.3702 -0.2597  0.2312
 3750G1FFO Tail44411  19.597  15.150  19.513  0.1152  0.0111  0.0778
 3750G1FFO Tail44412  19.517  14.921  19.607  0.1285 -0.1778 -0.3907
 3750G1FFO Tail44413  19.494  14.731  19.735  0.1256  0.2081 -0.2415
 3750G1FFO Tail44414  19.899  15.953  19.169  0.1917  0.3887 -0.3141
 3750G1FFO Tail44415  19.688  16.083  19.268 -0.0700  0.4139  0.1828
 3750G1FFO Tail44416  19.628  16.040  19.516  0.1456  0.0434  0.1466
 3750G1FFO Tail44417  19.531  16.021  19.744  0.4078  0.0850  0.1216
 3750G1FFO Tail44418  19.406  15.976  19.939  0.0860  0.1218  0.2735
 3751G1FFO Head44419  14.537  14.299  20.866 -0.1476 -0.2969 -0.1715
 3751G1FFO Head44420  14.764  14.181  20.713 -0.8474  0.1452  0.0196
 3751G1FFO Head44421  14.494  13.984  20.285  0.4398 -0.5565  0.1671
 3751G1FFO Head44422  14.656  14.287  20.325 -0.0740  0.1756 -0.3590
 3751G1FFO link44423  14.846  14.282  20.481  0.1537  0.0143 -0.1769
 3751G1FFO link44424  15.101  14.275  20.380 -0.0950 -0.5923  0.1732
 3751G1FFO Tail44425  15.353  14.122  20.534  0.0234  0.2523 -0.0573
 3751G1FFO Tail44426  15.254  14.160  20.855 -0.0471 -0.0122  0.1864
 3751G1FFO Tail44427  15.261  13.954  21.021  0.1921  0.2057  0.3403
 3751G1FFO Tail44428  15.314  13.721  20.919  0.1709  0.0626 -0.0794
 3751G1FFO Tail44429  15.359  13.487  20.862 -0.3562  0.1363 -0.0869
 3751G1FFO Tail44430  15.365  13.255  20.832  0.2023  0.5514 -0.0463
 3751G1FFO Tail44431  15.647  14.333  20.521  0.0578 -0.0787 -0.0060
 3751G1FFO Tail44432  15.858  14.246  20.645  0.2286  0.0448 -0.3831
 3751G1FFO Tail44433  15.820  13.995  20.710 -0.0518 -0.0473 -0.1109
 3751G1FFO Tail44434  15.805  13.760  20.792 -0.2748  0.1619 -0.1675
 3751G1FFO Tail44435  15.808  13.561  20.931 -0.1324  0.0244 -0.0021
 3752G1FFO Head44436  18.207  18.432  22.289  0.3550  0.0819 -0.3922
 3752G1FFO Head44437  18.485  18.483  22.333 -0.1177 -0.0812  0.2462
 3752G1FFO Head44438  19.072  18.510  21.988  0.1302  0.2014  0.0952
 3752G1FFO Head44439  18.862  18.469  22.189  0.1168  0.1813 -0.0156
 3752G1FFO link44440  18.649  18.614  22.176  0.0254  0.5661  0.1330
 3752G1FFO link44441  18.638  18.895  22.137  0.1811  0.1094 -0.1728
 3752G1FFO Tail44442  18.578  19.026  21.839  0.1713  0.5977 -0.0650
 3752G1FFO Tail44443  18.429  19.318  21.930 -0.3945  0.1301  0.0004
 3752G1FFO Tail44444  18.486  19.443  22.155 -0.0372  0.2646 -0.0857
 3752G1FFO Tail44445  18.728  19.410  22.258 -0.0712 -0.1191  0.1454
 3752G1FFO Tail44446  18.939  19.396  22.398  0.1617  0.0787  0.0980
 3752G1FFO Tail44447  19.122  19.412  22.545  0.0493  0.2912 -0.2793
 3752G1FFO Tail44448  18.302  18.840  21.772 -0.0740 -0.3614  0.1991
 3752G1FFO Tail44449  18.315  18.652  21.583 -0.2088 -0.1647 -0.1748
 3752G1FFO Tail44450  18.312  18.733  21.331 -0.0839 -0.0535  0.1994
 3752G1FFO Tail44451  18.337  18.771  21.072 -0.1259 -0.0908 -0.1572
 3752G1FFO Tail44452  18.412  18.839  20.853 -0.1801  0.1811 -0.2042
 3753G1FFO Head44453  19.957  19.308  23.600  0.4011  0.1408  0.0269
 3753G1FFO Head44454  20.071  19.033  23.605 -0.0883  0.0868  0.3171
 3753G1FFO Head44455  19.452  18.882  23.826 -0.1560 -0.0780  0.1687
 3753G1FFO Head44456  19.743  18.989  23.795  0.1888 -0.1322  0.3710
 3753G1FFO link44457  19.912  18.845  23.704  0.1897  0.0705  0.0049
 3753G1FFO link44458  19.914  18.570  23.639  0.2680 -0.0858 -0.1413
 3753G1FFO Tail44459  19.900  18.477  23.329  0.0336 -0.2081 -0.2058
 3753G1FFO Tail44460  20.138  18.209  23.338  0.2821 -0.2978 -0.0684
 3753G1FFO Tail44461  20.094  17.987  23.474  0.3402  0.1161 -0.2442
 3753G1FFO Tail44462  19.965  17.798  23.333 -0.0509 -0.1293 -0.1105
 3753G1FFO Tail44463  19.872  17.594  23.205 -0.0914 -0.0606 -0.1355
 3753G1FFO Tail44464  19.766  17.438  23.067  0.1356  0.1234  0.1007
 3753G1FFO Tail44465  20.086  18.729  23.182  0.2915 -0.2744 -0.0688
 3753G1FFO Tail44466  20.288  18.843  23.299 -0.0005  0.0125  0.1897
 3753G1FFO Tail44467  20.393  18.687  23.482 -0.0040  0.0766  0.2696
 3753G1FFO Tail44468  20.514  18.523  23.632  0.2608  0.1700  0.0610
 3753G1FFO Tail44469  20.616  18.420  23.817 -0.2225 -0.2005  0.4232
 3754G1FFO Head44470  19.825  15.399  22.463  0.0025  0.0067 -0.0405
 3754G1FFO Head44471  19.671  15.125  22.554 -0.0073  0.0699 -0.2075
 3754G1FFO Head44472  20.150  14.886  22.547 -0.1106  0.3470  0.1760
 3754G1FFO Head44473  19.945  14.905  22.338 -0.0489 -0.0245 -0.4210
 3754G1FFO link44474  19.706  14.898  22.408  0.0121  0.0499 -0.4738
 3754G1FFO link44475  19.517  14.758  22.248  0.2252  0.4817  0.2987
 3754G1FFO Tail44476  19.202  14.704  22.310  0.0265  0.0418  0.0908
 3754G1FFO Tail44477  19.073  14.988  22.198 -0.0603 -0.2349 -0.1345
 3754G1FFO Tail44478  19.007  15.153  22.382 -0.3993  0.0378  0.0090
 3754G1FFO Tail44479  19.007  15.412  22.321 -0.0082 -0.1977 -0.0633
 3754G1FFO Tail44480  18.979  15.650  22.234  0.0292 -0.1102 -0.0812
 3754G1FFO Tail44481  18.929  15.841  22.105 -0.2870  0.1836  0.0420
 3754G1FFO Tail44482  19.189  14.785  22.668  0.0368 -0.0142 -0.4209
 3754G1FFO Tail44483  19.195  15.028  22.764 -0.3592 -0.0856 -0.0033
 3754G1FFO Tail44484  19.045  15.094  22.969  0.0467  0.1455  0.0438
 3754G1FFO Tail44485  18.870  15.160  23.143  0.0976  0.2709 -0.0154
 3754G1FFO Tail44486  18.724  15.148  23.321 -0.0808  0.0911  0.1513
 3755G1FFO Head44487  18.938  15.674  24.097 -0.0915  0.0453  0.1420
 3755G1FFO Head44488  19.028  15.715  23.831  0.3824  0.0612  0.2911
 3755G1FFO Head44489  18.526  15.286  23.660 -0.0670  0.0899  0.1972
 3755G1FFO Head44490  18.842  15.349  23.763  0.0346 -0.1696  0.5798
 3755G1FFO link44491  18.960  15.536  23.650 -0.3597  0.5461  0.1558
 3755G1FFO link44492  18.940  15.581  23.359  0.4324 -0.3421 -0.0192
 3755G1FFO Tail44493  18.695  15.771  23.206  0.1427  0.2274 -0.3212
 3755G1FFO Tail44494  18.538  15.889  23.501  0.2340  0.3938 -0.0536
 3755G1FFO Tail44495  18.609  15.802  23.739 -0.0494 -0.4076  0.1603
 3755G1FFO Tail44496  18.417  15.708  23.893 -0.1292  0.2879 -0.0853
 3755G1FFO Tail44497  18.231  15.640  24.055  0.0173  0.0964  0.2390
 3755G1FFO Tail44498  18.065  15.662  24.214 -0.4019 -0.0962  0.0324
 3755G1FFO Tail44499  18.473  15.509  23.171 -0.0418  0.0704  0.1503
 3755G1FFO Tail44500  18.430  15.411  22.929  0.3865  0.1118  0.0932
 3755G1FFO Tail44501  18.255  15.529  22.774  0.0152 -0.2762  0.0365
 3755G1FFO Tail44502  18.109  15.658  22.611 -0.0676  0.0943  0.3552
 3755G1FFO Tail44503  17.938  15.746  22.487 -0.0220  0.2969 -0.2615
 3756G1FFO Head44504  18.652  13.602  19.990 -0.2467 -0.1419 -0.2509
 3756G1FFO Head44505  18.542  13.752  20.213 -0.5052 -0.0722 -0.5584
 3756G1FFO Head44506  18.330  13.411  20.784 -0.2050  0.1299  0.0620
 3756G1FFO Head44507  18.455  13.516  20.516 -0.1880 -0.1012  0.4082
 3756G1FFO link44508  18.333  13.652  20.355 -0.1283  0.4679  0.4247
 3756G1FFO link44509  18.082  13.782  20.415  0.3497  0.3167  0.1918
 3756G1FFO Tail44510  18.050  14.099  20.369 -0.0908 -0.2475  0.1187
 3756G1FFO Tail44511  18.385  14.176  20.369  0.2022 -0.2695 -0.3111
 3756G1FFO Tail44512  18.498  14.281  20.156 -0.0021  0.0203  0.0779
 3756G1FFO Tail44513  18.699  14.437  20.192  0.2060 -0.1443 -0.2704
 3756G1FFO Tail44514  18.857  14.632  20.252  0.0269 -0.1768 -0.0936
 3756G1FFO Tail44515  18.968  14.792  20.381 -0.0847  0.2574  0.1248
 3756G1FFO Tail44516  17.941  14.185  20.675 -0.2019 -0.0459 -0.1438
 3756G1FFO Tail44517  18.072  14.137  20.903  0.1467 -0.0426  0.1921
 3756G1FFO Tail44518  18.302  14.015  20.883  0.1948 -0.1415  0.2600
 3756G1FFO Tail44519  18.512  13.872  20.864  0.1856  0.0427  0.1437
 3756G1FFO Tail44520  18.663  13.699  20.898 -0.1291  0.0526 -0.3358
 3757G1FFO Head44521  14.983  17.192  22.791 -0.1822 -0.0132 -0.2790
 3757G1FFO Head44522  14.936  17.458  22.604 -0.5918  0.5144 -0.0695
 3757G1FFO Head44523  15.616  17.692  22.561 -0.2593 -0.2098 -0.1935
 3757G1FFO Head44524  15.340  17.559  22.662 -0.1780 -0.2136  0.2188
 3757G1FFO link44525  15.151  17.553  22.490  0.3351  0.1333  0.3600
 3757G1FFO link44526  15.180  17.610  22.208  0.1570  0.0239 -0.0762
 3757G1FFO Tail44527  15.259  17.910  22.090  0.1950  0.5664 -0.0083
 3757G1FFO Tail44528  15.098  17.879  21.781  0.1373  0.1130 -0.0764
 3757G1FFO Tail44529  15.075  18.107  21.652 -0.1405  0.0461  0.2053
 3757G1FFO Tail44530  15.220  18.318  21.711 -0.0676  0.2659  0.0958
 3757G1FFO Tail44531  15.384  18.505  21.747 -0.0121 -0.3182  0.0498
 3757G1FFO Tail44532  15.499  18.709  21.732 -0.1850  0.1407  0.0183
 3757G1FFO Tail44533  15.591  17.874  21.992 -0.1625  0.2864 -0.1106
 3757G1FFO Tail44534  15.787  17.954  22.145  0.3922 -0.0237  0.0068
 3757G1FFO Tail44535  16.018  17.844  22.150 -0.1040  0.1558  0.0560
 3757G1FFO Tail44536  16.242  17.742  22.110 -0.0764 -0.0039  0.2538
 3757G1FFO Tail44537  16.445  17.630  22.040 -0.1735 -0.2711  0.2234
 3758G1FFO Head44538  15.068  19.946  19.778  0.0424 -0.0872  0.0915
 3758G1FFO Head44539  15.142  19.758  19.998  0.1959 -0.2792  0.0306
 3758G1FFO Head44540  14.631  19.928  20.079  0.1921  0.0521 -0.0323
 3758G1FFO Head44541  14.908  19.974  20.259  0.3347  0.2120 -0.3894
 3758G1FFO link44542  15.091  19.796  20.248  0.1032 -0.4486 -0.1053
 3758G1FFO link44543  15.251  19.690  20.460 -0.0115  0.0704 -0.3182
 3758G1FFO Tail44544  15.418  19.402  20.459 -0.2310 -0.2997 -0.2067
 3758G1FFO Tail44545  15.370  19.268  20.162  0.1524 -0.3054 -0.0335
 3758G1FFO Tail44546  15.344  19.004  20.133  0.5829  0.1170 -0.1652
 3758G1FFO Tail44547  15.157  18.879  20.259 -0.2280  0.3125  0.1376
 3758G1FFO Tail44548  14.954  18.751  20.344  0.0133  0.2249  0.0055
 3758G1FFO Tail44549  14.752  18.634  20.374 -0.1867 -0.1368 -0.1025
 3758G1FFO Tail44550  15.219  19.188  20.678 -0.1455  0.0592 -0.4310
 3758G1FFO Tail44551  15.318  18.991  20.825  0.1308 -0.0968  0.0992
 3758G1FFO Tail44552  15.446  18.804  20.705  0.2301 -0.0620  0.0074
 3758G1FFO Tail44553  15.572  18.646  20.556  0.1124 -0.0308 -0.0719
 3758G1FFO Tail44554  15.680  18.551  20.374  0.1347  0.5198 -0.0542
 3759G1FFO Head44555  17.948  17.642  25.704 -0.3935  0.2729  0.0444
 3759G1FFO Head44556  17.765  17.856  25.609 -0.4162 -0.4009  0.4157
 3759G1FFO Head44557  18.238  17.833  25.310  0.4352 -0.3330  0.4898
 3759G1FFO Head44558  17.948  17.791  25.218  0.0325  0.4761  0.1727
 3759G1FFO link44559  17.738  17.852  25.343 -0.0906  0.5901  0.1392
 3759G1FFO link44560  17.495  17.877  25.221  0.2588 -0.5379  0.0431
 3759G1FFO Tail44561  17.476  17.886  24.902  0.2307 -0.0209  0.2522
 3759G1FFO Tail44562  17.619  18.200  24.863 -0.0682  0.1119  0.0107
 3759G1FFO Tail44563  17.702  18.307  24.643  0.2461 -0.0066 -0.1834
 3759G1FFO Tail44564  17.954  18.336  24.611  0.1599  0.1290 -0.3042
 3759G1FFO Tail44565  18.203  18.367  24.533 -0.1827  0.1122 -0.3812
 3759G1FFO Tail44566  18.437  18.363  24.534  0.1475 -0.0242 -0.0093
 3759G1FFO Tail44567  17.142  18.002  24.834 -0.3001  0.4247 -0.0539
 3759G1FFO Tail44568  17.114  18.251  24.843  0.2185  0.0194  0.1762
 3759G1FFO Tail44569  17.144  18.389  24.621  0.0775  0.1451  0.1868
 3759G1FFO Tail44570  17.143  18.554  24.426  0.1861  0.0918  0.0053
 3759G1FFO Tail44571  17.181  18.666  24.223 -0.0841  0.2847 -0.2220
 3760G1FFO Head44572  17.098  20.197  19.699 -0.2602 -0.0252  0.2332
 3760G1FFO Head44573  16.876  20.054  19.696  0.0979  0.4287 -0.2243
 3760G1FFO Head44574  16.834  20.304  20.129 -0.2157 -0.0609 -0.0655
 3760G1FFO Head44575  16.820  20.044  20.136  0.2062 -0.2976 -0.5915
 3760G1FFO link44576  16.799  19.914  19.914  0.1118  0.2376  0.2968
 3760G1FFO link44577  16.639  19.683  19.909 -0.3169  0.0977  0.1032
 3760G1FFO Tail44578  16.728  19.397  19.791 -0.1015  0.0692  0.5698
 3760G1FFO Tail44579  16.927  19.535  19.543  0.2346 -0.0726 -0.2642
 3760G1FFO Tail44580  16.822  19.718  19.382 -0.3611  0.0970  0.2247
 3760G1FFO Tail44581  16.587  19.823  19.423 -0.0369  0.1186 -0.1458
 3760G1FFO Tail44582  16.375  19.953  19.443  0.1578 -0.1005 -0.0494
 3760G1FFO Tail44583  16.172  20.052  19.403  0.0658 -0.0937  0.0022
 3760G1FFO Tail44584  16.445  19.315  19.589 -0.1456 -0.1096 -0.2760
 3760G1FFO Tail44585  16.223  19.462  19.621 -0.0295  0.0238 -0.0717
 3760G1FFO Tail44586  16.102  19.550  19.408 -0.3303  0.0939 -0.2134
 3760G1FFO Tail44587  15.975  19.598  19.200  0.0255  0.0591 -0.1093
 3760G1FFO Tail44588  15.887  19.699  19.006  0.0278 -0.1029  0.0748
 3761G1FFO Head44589  20.250  16.879  18.995 -0.0327 -0.0411 -0.3823
 3761G1FFO Head44590  20.026  16.789  19.208  0.0329 -0.2022  0.0231
 3761G1FFO Head44591  20.404  16.329  19.200  0.1344  0.1295  0.0326
 3761G1FFO Head44592  20.346  16.567  19.360 -0.2623 -0.3072  0.0664
 3761G1FFO link44593  20.108  16.628  19.398  0.2962 -0.3784 -0.2833
 3761G1FFO link44594  19.926  16.440  19.510 -0.0229 -0.3129 -0.6441
 3761G1FFO Tail44595  19.901  16.370  19.836 -0.0244 -0.5839  0.4558
 3761G1FFO Tail44596  19.579  16.494  19.905  0.1928  0.1052 -0.2546
 3761G1FFO Tail44597  19.521  16.645  20.108 -0.0060  0.0893  0.0679
 3761G1FFO Tail44598  19.726  16.694  20.273 -0.1467 -0.0348 -0.2757
 3761G1FFO Tail44599  19.912  16.781  20.430  0.0102 -0.3032  0.2330
 3761G1FFO Tail44600  20.097  16.898  20.511  0.1977 -0.0541 -0.2104
 3761G1FFO Tail44601  20.112  16.627  19.946  0.1631  0.4733  0.3869
 3761G1FFO Tail44602  20.342  16.694  19.826 -0.0724 -0.0635 -0.2391
 3761G1FFO Tail44603  20.342  16.891  19.653  0.1789 -0.1901  0.1385
 3761G1FFO Tail44604  20.310  17.091  19.503  0.0878 -0.1029  0.3912
 3761G1FFO Tail44605  20.263  17.309  19.422  0.1028  0.1337 -0.1587
 3762G1FFO Head44606  14.637  19.430  18.350 -0.0221  0.1072 -0.1387
 3762G1FFO Head44607  14.798  19.448  18.606  0.1253  0.3679  0.4757
 3762G1FFO Head44608  14.266  19.372  18.662 -0.0666 -0.2822  0.0698
 3762G1FFO Head44609  14.489  19.409  18.851  0.0725 -0.0323  0.0338
 3762G1FFO link44610  14.704  19.314  18.805 -0.0819 -0.2250  0.2096
 3762G1FFO link44611  14.793  19.068  18.886  0.0172  0.0239  0.0768
 3762G1FFO Tail44612  14.874  18.817  18.668  0.5992 -0.3287 -0.1836
 3762G1FFO Tail44613  15.219  18.803  18.708 -0.1974 -0.2303  0.5132
 3762G1FFO Tail44614  15.341  18.888  18.927 -0.1401 -0.0716 -0.2132
 3762G1FFO Tail44615  15.589  18.831  18.964 -0.2274  0.0581  0.0545
 3762G1FFO Tail44616  15.831  18.788  19.039 -0.0286 -0.1626 -0.1942
 3762G1FFO Tail44617  16.013  18.753  19.175  0.2855  0.0014 -0.1156
 3762G1FFO Tail44618  14.888  18.962  18.372  0.0537  0.2062  0.4416
 3762G1FFO Tail44619  15.111  18.959  18.235  0.1193 -0.0920  0.3148
 3762G1FFO Tail44620  15.205  18.730  18.160 -0.0848  0.0677 -0.0618
 3762G1FFO Tail44621  15.339  18.524  18.116  0.0762  0.1556 -0.2235
 3762G1FFO Tail44622  15.501  18.359  18.108  0.2101  0.1902  0.0224
 3763G1FFO Head44623  17.365  16.841  20.922  0.1295  0.0798  0.6967
 3763G1FFO Head44624  17.440  16.634  21.120  0.0670 -0.0125  0.5116
 3763G1FFO Head44625  17.053  16.873  21.299  0.1785  0.2762  0.1229
 3763G1FFO Head44626  17.306  16.882  21.422 -0.0986  0.0067  0.1114
 3763G1FFO link44627  17.471  16.691  21.382  0.0552 -0.3331 -0.4347
 3763G1FFO link44628  17.689  16.620  21.566  0.0137  0.0461  0.0657
 3763G1FFO Tail44629  17.990  16.542  21.462 -0.1670  0.3392 -0.0647
 3763G1FFO Tail44630  17.918  16.359  21.190  0.0048  0.2787  0.2285
 3763G1FFO Tail44631  17.717  16.178  21.171 -0.1523 -0.1059  0.2929
 3763G1FFO Tail44632  17.686  15.979  21.327  0.2747  0.4138 -0.3599
 3763G1FFO Tail44633  17.688  15.802  21.510 -0.0713  0.0794  0.1868
 3763G1FFO Tail44634  17.646  15.670  21.702 -0.0834 -0.0536  0.3001
 3763G1FFO Tail44635  18.073  16.283  21.672  0.4013  0.0715 -0.2074
 3763G1FFO Tail44636  18.029  16.034  21.619  0.2832 -0.0530 -0.0734
 3763G1FFO Tail44637  18.029  15.874  21.815  0.1685  0.2468 -0.0405
 3763G1FFO Tail44638  18.088  15.714  22.000 -0.0679 -0.1442  0.0014
 3763G1FFO Tail44639  18.133  15.525  22.131 -0.4503  0.0690  0.0536
 3764G1FFO Head44640  15.462  16.510  23.728 -0.1883  0.0105  0.0323
 3764G1FFO Head44641  15.346  16.423  23.483 -0.4699 -0.1344 -0.0972
 3764G1FFO Head44642  14.945  16.551  23.705  0.2995  0.3063  0.2896
 3764G1FFO Head44643  15.045  16.697  23.466 -0.6340  0.0522  0.0984
 3764G1FFO link44644  15.229  16.602  23.337  0.4246 -0.3855  0.2328
 3764G1FFO link44645  15.248  16.624  23.049  0.3101  0.2096  0.1011
 3764G1FFO Tail44646  14.998  16.744  22.861 -0.1737 -0.2620 -0.0185
 3764G1FFO Tail44647  14.728  16.818  23.066 -0.1673  0.2720  0.0805
 3764G1FFO Tail44648  14.581  17.026  23.012 -0.0349 -0.1992 -0.0860
 3764G1FFO Tail44649  14.465  17.159  23.208 -0.3262 -0.1744 -0.1710
 3764G1FFO Tail44650  14.325  17.244  23.401  0.4066 -0.1654  0.0981
 3764G1FFO Tail44651  14.170  17.344  23.538  0.3441  0.1756  0.2539
 3764G1FFO Tail44652  14.894  16.449  22.737 -0.1880 -0.1237  0.3115
 3764G1FFO Tail44653  15.032  16.366  22.530  0.0152 -0.3929 -0.1049
 3764G1FFO Tail44654  14.933  16.391  22.295  0.0376  0.4842 -0.1432
 3764G1FFO Tail44655  14.804  16.422  22.083 -0.1139 -0.0703 -0.1388
 3764G1FFO Tail44656  14.717  16.394  21.863 -0.0344 -0.1760 -0.1223
 3765G1FFO Head44657  18.787  15.411  20.940  0.0094  0.0528  0.2321
 3765G1FFO Head44658  18.501  15.362  20.811 -0.0475  0.2645 -0.0463
 3765G1FFO Head44659  18.512  15.812  21.048  0.1468  0.0537 -0.0370
 3765G1FFO Head44660  18.308  15.566  21.112  0.3377 -0.2182  0.0559
 3765G1FFO link44661  18.261  15.393  20.926  0.3434 -0.1134 -0.1674
 3765G1FFO link44662  18.026  15.407  20.777 -0.2417 -0.4365  0.0301
 3765G1FFO Tail44663  18.065  15.579  20.503 -0.0031 -0.3888 -0.1572
 3765G1FFO Tail44664  18.209  15.343  20.296  0.0819  0.2963 -0.1201
 3765G1FFO Tail44665  18.202  15.382  20.039 -0.1742 -0.2430  0.1526
 3765G1FFO Tail44666  17.990  15.299  19.912  0.2077 -0.1120  0.0010
 3765G1FFO Tail44667  17.751  15.259  19.837  0.1806 -0.1049  0.1884
 3765G1FFO Tail44668  17.519  15.294  19.796  0.1853  0.3582  0.1746
 3765G1FFO Tail44669  18.337  15.777  20.584  0.2219  0.1703  0.1048
 3765G1FFO Tail44670  18.405  16.014  20.495  0.3047  0.2499  0.3603
 3765G1FFO Tail44671  18.284  16.224  20.585 -0.1296 -0.0465  0.0848
 3765G1FFO Tail44672  18.197  16.453  20.634  0.2908 -0.0063 -0.0122
 3765G1FFO Tail44673  18.079  16.639  20.715  0.1191  0.2557  0.0740
 3766G1FFO Head44674  19.453  20.210  23.730  0.1660  0.0679 -0.0996
 3766G1FFO Head44675  19.657  20.072  23.554  0.2653 -0.5699  0.3468
 3766G1FFO Head44676  19.849  20.100  22.999  0.1306  0.0749 -0.0252
 3766G1FFO Head44677  19.587  20.096  23.116 -0.0951 -0.0409 -0.5150
 3766G1FFO link44678  19.549  19.984  23.330  0.1262  0.3672  0.0367
 3766G1FFO link44679  19.399  19.746  23.358 -0.2241  0.2266 -0.2997
 3766G1FFO Tail44680  19.170  19.667  23.139 -0.2701 -0.0858  0.2535
 3766G1FFO Tail44681  19.254  19.333  23.089  0.3976  0.2786 -0.2295
 3766G1FFO Tail44682  19.196  19.205  22.871  0.1215 -0.0627 -0.0983
 3766G1FFO Tail44683  19.225  18.945  22.841  0.1719 -0.1831  0.1760
 3766G1FFO Tail44684  19.254  18.685  22.857 -0.2601  0.1248  0.0066
 3766G1FFO Tail44685  19.253  18.452  22.932  0.2599 -0.1054  0.1454
 3766G1FFO Tail44686  19.319  19.820  22.864 -0.0840  0.4612  0.3163
 3766G1FFO Tail44687  19.556  19.743  22.775 -0.2408 -0.0030 -0.0265
 3766G1FFO Tail44688  19.601  19.496  22.714 -0.3367  0.1591 -0.1153
 3766G1FFO Tail44689  19.596  19.260  22.625  0.0640  0.1007  0.2253
 3766G1FFO Tail44690  19.648  19.055  22.542  0.1147  0.1071  0.4633
 3767G1FFO Head44691  18.395  21.343  22.582 -0.1043  0.0346 -0.0164
 3767G1FFO Head44692  18.436  21.126  22.375  0.5478  0.2213 -0.2134
 3767G1FFO Head44693  17.923  21.062  22.570  0.5285 -0.1182  0.0651
 3767G1FFO Head44694  18.149  20.889  22.580  0.2622  0.2232  0.7283
 3767G1FFO link44695  18.302  20.882  22.379 -0.0281 -0.2310  0.2507
 3767G1FFO link44696  18.341  20.682  22.185 -0.0186 -0.1856  0.1881
 3767G1FFO Tail44697  18.360  20.365  22.288 -0.0589 -0.0381  0.4725
 3767G1FFO Tail44698  18.707  20.316  22.237 -0.0985  0.1489 -0.1112
 3767G1FFO Tail44699  18.774  20.277  21.984  0.2192 -0.1052  0.0716
 3767G1FFO Tail44700  18.631  20.394  21.805 -0.0966 -0.2939 -0.2691
 3767G1FFO Tail44701  18.497  20.481  21.599 -0.0161  0.0835 -0.0841
 3767G1FFO Tail44702  18.357  20.487  21.417  0.0626 -0.3406  0.1246
 3767G1FFO Tail44703  18.228  20.227  21.994 -0.0285 -0.0385 -0.1653
 3767G1FFO Tail44704  18.067  20.354  21.830 -0.0649  0.4407  0.1060
 3767G1FFO Tail44705  17.984  20.594  21.888 -0.2346  0.2540  0.1200
 3767G1FFO Tail44706  17.921  20.824  21.962  0.0525  0.1599 -0.1554
 3767G1FFO Tail44707  17.897  21.019  22.084  0.1771 -0.0479  0.0529
 3768G1FFO Head44708  18.912  20.690  21.422 -0.2246  0.0973 -0.0100
 3768G1FFO Head44709  18.828  20.487  21.213  0.1115 -0.0557 -0.0421
 3768G1FFO Head44710  18.380  20.929  21.223 -0.1236 -0.0427 -0.0323
 3768G1FFO Head44711  18.622  20.815  21.076 -0.0173  0.1294  0.1092
 3768G1FFO link44712  18.649  20.555  21.034  0.0546  0.0845 -0.3411
 3768G1FFO link44713  18.474  20.382  20.894 -0.0029  0.8542 -0.1361
 3768G1FFO Tail44714  18.354  20.092  21.037  0.0444 -0.2507 -0.0696
 3768G1FFO Tail44715  18.042  20.184  21.134  0.2935 -0.1886  0.0542
 3768G1FFO Tail44716  17.842  20.069  21.018  0.1396 -0.1587 -0.2242
 3768G1FFO Tail44717  17.641  20.223  20.932 -0.0204  0.0159  0.1007
 3768G1FFO Tail44718  17.466  20.362  20.800  0.2322  0.0565  0.0849
 3768G1FFO Tail44719  17.261  20.431  20.698 -0.0959 -0.3774  0.1329
 3768G1FFO Tail44720  18.572  20.060  21.299  0.0796  0.2013 -0.2047
 3768G1FFO Tail44721  18.643  19.814  21.404 -0.0436 -0.0318 -0.2006
 3768G1FFO Tail44722  18.623  19.793  21.669 -0.1801  0.1652  0.5545
 3768G1FFO Tail44723  18.583  19.821  21.919  0.1827 -0.1191  0.1245
 3768G1FFO Tail44724  18.597  19.898  22.142  0.3818 -0.1905 -0.0816
 3769G1FFO Head44725  13.910  16.159  21.536  0.0057 -0.1685  0.1210
 3769G1FFO Head44726  13.613  16.149  21.564  0.4610 -0.2343 -0.2610
 3769G1FFO Head44727  13.160  16.420  21.928 -0.0201 -0.0245  0.1511
 3769G1FFO Head44728  13.433  16.485  21.732 -0.0218  0.4639 -0.2625
 3769G1FFO link44729  13.468  16.368  21.522 -0.4836  0.2066 -0.1738
 3769G1FFO link44730  13.451  16.497  21.266 -0.0590  0.2486  0.1057
 3769G1FFO Tail44731  13.704  16.648  21.132  0.0591 -0.1189  0.0850
 3769G1FFO Tail44732  13.969  16.410  21.086 -0.1062 -0.0280 -0.2706
 3769G1FFO Tail44733  13.885  16.171  21.011 -0.0879  0.0991  0.0894
 3769G1FFO Tail44734  13.643  16.097  21.064  0.0306  0.2524 -0.0314
 3769G1FFO Tail44735  13.407  16.033  21.146 -0.0438 -0.0375 -0.1194
 3769G1FFO Tail44736  13.225  15.914  21.233  0.3597  0.0348  0.0958
 3769G1FFO Tail44737  13.866  16.781  21.423  0.3905 -0.0367  0.0329
 3769G1FFO Tail44738  13.857  16.660  21.665 -0.3937 -0.1197 -0.0796
 3769G1FFO Tail44739  14.083  16.690  21.810  0.1127  0.1286 -0.0154
 3769G1FFO Tail44740  14.306  16.722  21.924 -0.1187  0.2377  0.1905
 3769G1FFO Tail44741  14.488  16.788  22.051 -0.3992  0.0898 -0.2208
 3770G1FFO Head44742  21.126  17.010  20.607  0.6400 -0.1866 -0.0033
 3770G1FFO Head44743  21.185  16.816  20.842  0.0104  0.2592 -0.3044
 3770G1FFO Head44744  21.032  16.368  20.420 -0.1942 -0.3391 -0.0202
 3770G1FFO Head44745  21.218  16.514  20.602 -0.1710  0.5040  0.2412
 3770G1FFO link44746  21.142  16.548  20.817 -0.1221 -0.1673 -0.6240
 3770G1FFO link44747  20.908  16.413  20.921 -0.0190  0.0370  0.5209
 3770G1FFO Tail44748  20.607  16.520  20.863  0.1653  0.0405 -0.3544
 3770G1FFO Tail44749  20.516  16.360  20.565 -0.0619 -0.0566  0.1204
 3770G1FFO Tail44750  20.347  16.470  20.396 -0.0817 -0.5605 -0.1007
 3770G1FFO Tail44751  20.137  16.334  20.348  0.2363 -0.0159  0.2279
 3770G1FFO Tail44752  19.913  16.235  20.299  0.1393  0.0275  0.2785
 3770G1FFO Tail44753  19.698  16.209  20.217  0.1531 -0.1655 -0.0804
 3770G1FFO Tail44754  20.690  16.809  20.710 -0.1500  0.2767 -0.2153
 3770G1FFO Tail44755  20.744  16.806  20.449  0.4579  0.0697 -0.1326
 3770G1FFO Tail44756  20.594  16.951  20.295 -0.0985  0.1666 -0.2679
 3770G1FFO Tail44757  20.414  17.055  20.153 -0.1285 -0.1270  0.1268
 3770G1FFO Tail44758  20.216  17.104  20.038 -0.1540 -0.2269 -0.2245
 3771G1FFO Head44759  16.166  18.646  24.694 -0.0950 -0.0707 -0.0181
 3771G1FFO Head44760  15.947  18.557  24.488 -0.3779 -0.2851  0.1138
 3771G1FFO Head44761  15.716  18.859  24.808 -0.2220 -0.3185 -0.0831
 3771G1FFO Head44762  15.577  18.646  24.610 -0.1433  0.0137 -0.1921
 3771G1FFO link44763  15.725  18.445  24.576 -0.0208  0.7973  0.0942
 3771G1FFO link44764  15.624  18.177  24.532 -0.4031  0.3448  0.1034
 3771G1FFO Tail44765  15.685  18.016  24.257  0.1634 -0.3037 -0.2933
 3771G1FFO Tail44766  16.041  17.958  24.283  0.0945 -0.3951  0.1811
 3771G1FFO Tail44767  16.173  17.739  24.212  0.2061  0.2619 -0.0484
 3771G1FFO Tail44768  16.286  17.727  23.982  0.0582  0.0440 -0.0428
 3771G1FFO Tail44769  16.398  17.726  23.749 -0.1384 -0.2028  0.2789
 3771G1FFO Tail44770  16.553  17.702  23.570  0.1121  0.1036 -0.0931
 3771G1FFO Tail44771  15.687  18.272  24.007 -0.0599 -0.0675  0.2368
 3771G1FFO Tail44772  15.592  18.519  24.052 -0.0772  0.1727  0.1981
 3771G1FFO Tail44773  15.343  18.534  24.117 -0.1041  0.0612  0.3645
 3771G1FFO Tail44774  15.108  18.570  24.217  0.1702  0.2426  0.0833
 3771G1FFO Tail44775  14.934  18.599  24.367  0.3190  0.0434  0.2942
 3772G1FFO Head44776  20.066  15.718  21.091  0.0835  0.2728 -0.0455
 3772G1FFO Head44777  20.304  15.947  21.043 -0.0277  0.2233  0.1088
 3772G1FFO Head44778  20.446  15.708  21.481  0.2017  0.2644  0.0764
 3772G1FFO Head44779  20.351  15.991  21.464  0.1063  0.3550  0.1978
 3772G1FFO link44780  20.371  16.112  21.250  0.0794 -0.3464 -0.0208
 3772G1FFO link44781  20.394  16.390  21.239 -0.4554 -0.1128 -0.1017
 3772G1FFO Tail44782  20.196  16.631  21.361  0.0366  0.0536  0.0721
 3772G1FFO Tail44783  20.305  16.878  21.151  0.4591 -0.2653  0.1406
 3772G1FFO Tail44784  20.274  16.817  20.901  0.0580  0.1115 -0.2446
 3772G1FFO Tail44785  20.179  16.576  20.844 -0.1570  0.2516  0.0011
 3772G1FFO Tail44786  20.076  16.348  20.814 -0.1698  0.0600 -0.1218
 3772G1FFO Tail44787  19.964  16.149  20.851 -0.2344 -0.0013 -0.0038
 3772G1FFO Tail44788  20.383  16.692  21.646 -0.0757 -0.0016  0.2050
 3772G1FFO Tail44789  20.444  16.937  21.738 -0.2614  0.0881 -0.1194
 3772G1FFO Tail44790  20.476  17.133  21.569 -0.1122 -0.0313 -0.0510
 3772G1FFO Tail44791  20.516  17.349  21.421 -0.1303  0.1534  0.0794
 3772G1FFO Tail44792  20.576  17.556  21.325 -0.0041 -0.1344  0.2493
 3773G1FFO Head44793  17.211  14.884  24.264  0.0290  0.1878  0.2379
 3773G1FFO Head44794  17.489  15.023  24.256  0.1867 -0.2050  0.2205
 3773G1FFO Head44795  17.145  15.279  24.479 -0.4935 -0.1343  0.0227
 3773G1FFO Head44796  17.311  15.376  24.193  0.5169  0.0937 -0.4685
 3773G1FFO link44797  17.516  15.236  24.123  0.0095 -0.0718 -0.1061
 3773G1FFO link44798  17.720  15.387  24.013  0.1536 -0.1501 -0.2336
 3773G1FFO Tail44799  17.655  15.701  23.925  0.1435 -0.2251 -0.1364
 3773G1FFO Tail44800  17.327  15.655  23.818 -0.0454  0.0114 -0.0724
 3773G1FFO Tail44801  17.232  15.488  23.658  0.4208  0.0640 -0.0100
 3773G1FFO Tail44802  17.294  15.237  23.701  0.0893 -0.2350 -0.0190
 3773G1FFO Tail44803  17.359  15.001  23.772  0.0138  0.0327  0.0313
 3773G1FFO Tail44804  17.358  14.773  23.842  0.2170  0.2122  0.0069
 3773G1FFO Tail44805  17.842  15.702  23.652 -0.1004 -0.0506  0.0944
 3773G1FFO Tail44806  18.002  15.902  23.572  0.0847  0.1151 -0.0703
 3773G1FFO Tail44807  18.102  16.042  23.767  0.1342 -0.0680  0.0704
 3773G1FFO Tail44808  18.187  16.180  23.959 -0.2199  0.2273 -0.1251
 3773G1FFO Tail44809  18.268  16.350  24.098  0.0762 -0.2279 -0.0807
 3774G1FFO Head44810  17.804  18.794  21.380  0.0376  0.0557  0.1541
 3774G1FFO Head44811  17.574  18.660  21.247  0.0561 -0.5035 -0.1612
 3774G1FFO Head44812  17.365  19.087  21.319  0.1080  0.1872 -0.0512
 3774G1FFO Head44813  17.428  18.985  21.060  0.0623  0.2348 -0.0640
 3774G1FFO link44814  17.509  18.737  21.002 -0.1191  0.0028 -0.0297
 3774G1FFO link44815  17.411  18.559  20.815  0.3186  0.0915 -0.0039
 3774G1FFO Tail44816  17.594  18.299  20.723  0.0974 -0.1092  0.1370
 3774G1FFO Tail44817  17.894  18.343  20.888 -0.0133 -0.0021 -0.0624
 3774G1FFO Tail44818  17.939  18.573  21.015 -0.1904 -0.1889  0.1310
 3774G1FFO Tail44819  17.883  18.790  20.876 -0.1614  0.0802  0.1800
 3774G1FFO Tail44820  17.813  19.000  20.755 -0.0992 -0.1226  0.1938
 3774G1FFO Tail44821  17.697  19.187  20.690 -0.2511 -0.0482 -0.3085
 3774G1FFO Tail44822  17.690  18.400  20.397  0.3411 -0.0478 -0.1531
 3774G1FFO Tail44823  17.918  18.345  20.292  0.1597  0.0444 -0.0392
 3774G1FFO Tail44824  17.984  18.492  20.077  0.1639  0.2876  0.0780
 3774G1FFO Tail44825  18.043  18.656  19.894  0.2151 -0.1303 -0.0799
 3774G1FFO Tail44826  18.051  18.847  19.749 -0.0905 -0.0022  0.1403
 3775G1FFO Head44827  15.238  17.169  20.160  0.1102 -0.2655  0.1595
 3775G1FFO Head44828  15.163  17.455  20.161 -0.4175 -0.0491 -0.0721
 3775G1FFO Head44829  14.963  17.894  20.137 -0.2902  0.4128 -0.1248
 3775G1FFO Head44830  15.245  17.847  20.197 -0.1714  0.3935 -0.1671
 3775G1FFO link44831  15.359  17.623  20.221 -0.3708 -0.2069  0.1343
 3775G1FFO link44832  15.587  17.570  20.380 -0.0871 -0.1674 -0.5459
 3775G1FFO Tail44833  15.803  17.319  20.338  0.3004 -0.2455 -0.0298
 3775G1FFO Tail44834  15.628  17.069  20.506 -0.0197 -0.3680  0.2377
 3775G1FFO Tail44835  15.505  16.898  20.372 -0.1865  0.2076  0.3820
 3775G1FFO Tail44836  15.631  16.706  20.252  0.1841  0.0599  0.3978
 3775G1FFO Tail44837  15.752  16.554  20.093 -0.0057  0.0902 -0.2291
 3775G1FFO Tail44838  15.924  16.459  19.958 -0.1251  0.1277 -0.1424
 3775G1FFO Tail44839  16.018  17.414  20.609 -0.2527  0.1501  0.0289
 3775G1FFO Tail44840  16.088  17.221  20.785  0.0986 -0.1129  0.1034
 3775G1FFO Tail44841  15.927  17.121  20.965  0.2256  0.2641 -0.4086
 3775G1FFO Tail44842  15.811  17.027  21.176 -0.0042 -0.0586 -0.1052
 3775G1FFO Tail44843  15.691  16.887  21.319  0.0479 -0.1002  0.1294
 3776G1FFO Head44844  21.022  16.643  22.758  0.1457 -0.2842  0.0984
 3776G1FFO Head44845  20.733  16.599  22.627 -0.0020 -0.0234  0.3812
 3776G1FFO Head44846  20.616  17.010  22.989  0.1482 -0.0517  0.2511
 3776G1FFO Head44847  20.469  16.921  22.738 -0.6069  0.1994  0.1349
 3776G1FFO link44848  20.595  16.807  22.537  0.0015 -0.0103 -0.9044
 3776G1FFO link44849  20.484  16.817  22.285 -0.1417  0.0104  0.2560
 3776G1FFO Tail44850  20.452  16.562  22.076 -0.0786  0.0411 -0.0973
 3776G1FFO Tail44851  20.111  16.507  22.103 -0.1258  0.0759 -0.1030
 3776G1FFO Tail44852  20.024  16.310  22.254  0.0817 -0.0009  0.0496
 3776G1FFO Tail44853  19.782  16.224  22.212  0.1251 -0.1560 -0.0695
 3776G1FFO Tail44854  19.535  16.186  22.173  0.1465  0.3958  0.0692
 3776G1FFO Tail44855  19.312  16.107  22.116  0.0921 -0.2668  0.1228
 3776G1FFO Tail44856  20.582  16.310  22.290 -0.1549 -0.4319 -0.1688
 3776G1FFO Tail44857  20.495  16.072  22.276 -0.0459  0.0617  0.2906
 3776G1FFO Tail44858  20.281  16.004  22.397  0.0705 -0.1877 -0.0561
 3776G1FFO Tail44859  20.052  15.927  22.490  0.0570 -0.2825 -0.1802
 3776G1FFO Tail44860  19.837  15.874  22.551  0.0206 -0.1556  0.2540
 3777G1FFO Head44861  19.920  16.386  21.671  0.2592  0.4047  0.2168
 3777G1FFO Head44862  19.659  16.516  21.517  0.1971 -0.2010  0.0462
 3777G1FFO Head44863  19.099  16.134  21.740 -0.1714 -0.2172 -0.0247
 3777G1FFO Head44864  19.395  16.229  21.712 -0.1560 -0.3445  0.0580
 3777G1FFO link44865  19.426  16.473  21.628  0.4861 -0.2826 -0.1769
 3777G1FFO link44866  19.188  16.657  21.596 -0.4597  0.2138 -0.0574
 3777G1FFO Tail44867  19.136  16.916  21.798  0.2042  0.1016 -0.1058
 3777G1FFO Tail44868  18.899  16.745  21.986  0.0596  0.0494 -0.2544
 3777G1FFO Tail44869  18.864  16.484  21.972  0.1635 -0.1652  0.0758
 3777G1FFO Tail44870  18.871  16.340  22.184 -0.1023  0.2067 -0.0634
 3777G1FFO Tail44871  18.857  16.174  22.372 -0.1609  0.0407  0.2699
 3777G1FFO Tail44872  18.894  15.988  22.507  0.1027  0.2354 -0.0606
 3777G1FFO Tail44873  18.973  17.128  21.606  0.1176 -0.2050  0.0136
 3777G1FFO Tail44874  19.093  17.337  21.496 -0.1659 -0.0419 -0.0873
 3777G1FFO Tail44875  18.998  17.578  21.486  0.0504  0.0705  0.0567
 3777G1FFO Tail44876  18.895  17.801  21.437  0.0112  0.2434  0.1059
 3777G1FFO Tail44877  18.824  18.022  21.450  0.1669 -0.1350  0.0480
 3778G1FFO Head44878  17.524  14.009  20.235 -0.0375 -0.2100 -0.0930
 3778G1FFO Head44879  17.703  14.229  20.111  0.1962  0.0767  0.1741
 3778G1FFO Head44880  17.734  14.021  19.717  0.1912  0.1632 -0.2427
 3778G1FFO Head44881  17.552  14.285  19.764 -0.0100 -0.0629  0.2001
 3778G1FFO link44882  17.558  14.402  19.991 -0.0361  0.3314 -0.1133
 3778G1FFO link44883  17.578  14.679  20.024  0.1489  0.0314 -0.3247
 3778G1FFO Tail44884  17.881  14.805  20.087  0.2700 -0.0608 -0.1027
 3778G1FFO Tail44885  18.028  14.572  20.315 -0.2484  0.0711 -0.0590
 3778G1FFO Tail44886  18.024  14.626  20.582 -0.1844 -0.1800 -0.0274
 3778G1FFO Tail44887  17.789  14.647  20.686  0.0011  0.2417 -0.1797
 3778G1FFO Tail44888  17.577  14.640  20.831 -0.0351  0.0668 -0.1595
 3778G1FFO Tail44889  17.404  14.570  20.987  0.0309  0.1522 -0.2319
 3778G1FFO Tail44890  17.793  15.055  20.312  0.1970 -0.0353  0.0155
 3778G1FFO Tail44891  17.658  15.269  20.252 -0.3674 -0.1639 -0.3053
 3778G1FFO Tail44892  17.615  15.434  20.449 -0.1137  0.0953 -0.0552
 3778G1FFO Tail44893  17.565  15.622  20.595  0.1956  0.2591 -0.0274
 3778G1FFO Tail44894  17.501  15.748  20.780  0.3680 -0.0742  0.1238
 3779G1FFO Head44895  13.271  19.395  21.573 -0.0172 -0.0787 -0.1539
 3779G1FFO Head44896  13.379  19.534  21.331  0.1715 -0.2209 -0.2819
 3779G1FFO Head44897  13.103  20.091  21.365  0.1323  0.0480 -0.2456
 3779G1FFO Head44898  13.285  19.916  21.239 -0.2152 -0.1515 -0.0429
 3779G1FFO link44899  13.224  19.678  21.185 -0.4317 -0.0333  0.9264
 3779G1FFO link44900  13.103  19.574  20.941 -0.2655 -0.0071  0.2540
 3779G1FFO Tail44901  13.205  19.678  20.660 -0.1531  0.2229  0.0961
 3779G1FFO Tail44902  13.478  19.452  20.618 -0.0059  0.2924  0.2901
 3779G1FFO Tail44903  13.718  19.494  20.713 -0.2555  0.2052 -0.3818
 3779G1FFO Tail44904  13.732  19.593  20.961  0.0843 -0.0554  0.0135
 3779G1FFO Tail44905  13.770  19.707  21.181  0.0952 -0.0979  0.1284
 3779G1FFO Tail44906  13.857  19.797  21.378  0.2618  0.2303 -0.1400
 3779G1FFO Tail44907  13.413  19.943  20.729 -0.1586 -0.2839  0.1862
 3779G1FFO Tail44908  13.661  19.960  20.641  0.0941 -0.4051 -0.0182
 3779G1FFO Tail44909  13.728  19.852  20.411 -0.3678 -0.1858 -0.0197
 3779G1FFO Tail44910  13.820  19.717  20.217 -0.2844  0.0488 -0.1035
 3779G1FFO Tail44911  13.934  19.556  20.069  0.0819  0.1404  0.1351
 3780G1FFO Head44912  18.288  18.439  17.480 -0.1206  0.1172  0.5246
 3780G1FFO Head44913  18.092  18.653  17.521 -0.0618  0.2697  0.0080
 3780G1FFO Head44914  17.942  18.860  18.100 -0.1364  0.1919  0.0264
 3780G1FFO Head44915  17.987  18.639  17.903  0.1268 -0.1551  0.1005
 3780G1FFO link44916  17.876  18.623  17.672 -0.2309  0.2433  0.0761
 3780G1FFO link44917  17.621  18.497  17.610 -0.2127 -0.1331 -0.2261
 3780G1FFO Tail44918  17.367  18.521  17.803  0.2521 -0.4556 -0.3704
 3780G1FFO Tail44919  17.517  18.611  18.093  0.1149  0.0136 -0.1813
 3780G1FFO Tail44920  17.590  18.420  18.253 -0.2239  0.0694  0.4096
 3780G1FFO Tail44921  17.834  18.348  18.263 -0.2621 -0.0707 -0.0556
 3780G1FFO Tail44922  18.082  18.328  18.274  0.2037  0.0162 -0.0661
 3780G1FFO Tail44923  18.311  18.335  18.240 -0.1086  0.1435  0.1591
 3780G1FFO Tail44924  17.278  18.198  17.893 -0.1010 -0.3258 -0.0306
 3780G1FFO Tail44925  17.490  18.032  17.935 -0.0018  0.0167  0.1861
 3780G1FFO Tail44926  17.572  17.942  18.163 -0.3022 -0.0872  0.1180
 3780G1FFO Tail44927  17.704  17.863  18.361  0.0647 -0.0181  0.0584
 3780G1FFO Tail44928  17.803  17.838  18.571 -0.0781  0.0444 -0.1171
 3781G1FFO Head44929  18.195  16.786  18.193  0.1152  0.1279  0.1829
 3781G1FFO Head44930  18.097  17.063  18.308 -0.1820  0.1061 -0.4872
 3781G1FFO Head44931  17.672  16.833  18.298 -0.1857  0.2830  0.1807
 3781G1FFO Head44932  17.780  16.941  18.550  0.0545 -0.2296  0.1638
 3781G1FFO link44933  18.014  17.045  18.555  0.2657 -0.1928 -0.3455
 3781G1FFO link44934  18.173  17.075  18.789  0.2137  0.3207 -0.0071
 3781G1FFO Tail44935  18.402  17.299  18.811 -0.3248  0.1887  0.2035
 3781G1FFO Tail44936  18.491  17.220  19.153  0.0091  0.0820  0.0618
 3781G1FFO Tail44937  18.409  17.361  19.364  0.2456  0.3518 -0.1258
 3781G1FFO Tail44938  18.198  17.518  19.339 -0.0388  0.3072  0.1124
 3781G1FFO Tail44939  17.989  17.662  19.301 -0.2225  0.0534 -0.2377
 3781G1FFO Tail44940  17.820  17.823  19.322 -0.2617  0.2398 -0.3458
 3781G1FFO Tail44941  18.234  17.584  18.844 -0.0780 -0.1230  0.1288
 3781G1FFO Tail44942  17.979  17.602  18.868 -0.1227 -0.0681  0.0892
 3781G1FFO Tail44943  17.844  17.383  18.904  0.0449  0.0466 -0.0787
 3781G1FFO Tail44944  17.669  17.199  18.923  0.0659  0.2472 -0.1517
 3781G1FFO Tail44945  17.558  17.001  18.991 -0.1123  0.2411  0.0015
 3782G1FFO Head44946  21.204  17.630  22.857 -0.0448 -0.1712 -0.0754
 3782G1FFO Head44947  21.031  17.519  22.651 -0.2231  0.2767 -0.1406
 3782G1FFO Head44948  20.871  17.434  23.144 -0.0918 -0.2505  0.0500
 3782G1FFO Head44949  20.718  17.441  22.891  0.1848 -0.4943  0.0136
 3782G1FFO link44950  20.770  17.561  22.671  0.2472 -0.0250 -0.0204
 3782G1FFO link44951  20.606  17.746  22.542 -0.1848 -0.0531  0.1291
 3782G1FFO Tail44952  20.467  17.680  22.250  0.0759 -0.0412  0.3654
 3782G1FFO Tail44953  20.504  17.975  22.088  0.0783 -0.0435  0.2944
 3782G1FFO Tail44954  20.352  18.076  21.905  0.0635  0.2822  0.2231
 3782G1FFO Tail44955  20.386  18.032  21.647 -0.1848 -0.1580  0.3059
 3782G1FFO Tail44956  20.368  17.991  21.400  0.0181  0.0021  0.2115
 3782G1FFO Tail44957  20.411  17.924  21.176 -0.1299 -0.0879 -0.1971
 3782G1FFO Tail44958  20.139  17.681  22.386  0.5358 -0.2962 -0.0202
 3782G1FFO Tail44959  19.927  17.779  22.256 -0.0021 -0.3863 -0.0615
 3782G1FFO Tail44960  19.940  17.861  22.012  0.2753  0.2067  0.1551
 3782G1FFO Tail44961  19.916  17.909  21.762  0.1459 -0.0144 -0.0932
 3782G1FFO Tail44962  19.838  17.925  21.538  0.0472 -0.3104 -0.2907
 3783G1FFO Head44963  15.397  13.672  18.987  0.0014  0.1937 -0.3366
 3783G1FFO Head44964  15.345  13.837  19.222  0.0502 -0.1503 -0.1282
 3783G1FFO Head44965  15.195  13.340  19.421  0.1795 -0.0836 -0.2978
 3783G1FFO Head44966  15.268  13.605  19.542  0.1707  0.0627 -0.0819
 3783G1FFO link44967  15.443  13.752  19.458  0.3018  0.0552 -0.6621
 3783G1FFO link44968  15.651  13.852  19.630 -0.0020 -0.1303  0.1212
 3783G1FFO Tail44969  15.683  14.170  19.696  0.4994  0.0609 -0.3590
 3783G1FFO Tail44970  15.545  14.284  19.386  0.0349 -0.1648 -0.2126
 3783G1FFO Tail44971  15.657  14.219  19.156  0.3332  0.0126 -0.1284
 3783G1FFO Tail44972  15.774  13.985  19.134  0.2527 -0.1109 -0.0512
 3783G1FFO Tail44973  15.874  13.756  19.084 -0.2692  0.1940 -0.1782
 3783G1FFO Tail44974  15.921  13.533  19.050 -0.2275  0.0283  0.0170
 3783G1FFO Tail44975  16.010  14.250  19.567 -0.1989  0.2242 -0.0114
 3783G1FFO Tail44976  16.217  14.295  19.725 -0.1879  0.2989 -0.3349
 3783G1FFO Tail44977  16.403  14.116  19.752  0.1090 -0.1022  0.1729
 3783G1FFO Tail44978  16.551  13.914  19.763 -0.1503  0.0152 -0.1215
 3783G1FFO Tail44979  16.682  13.739  19.848  0.3086 -0.1012  0.2760
 3784G1FFO Head44980  13.024  17.299  21.294  0.1972 -0.0520  0.0469
 3784G1FFO Head44981  12.943  17.027  21.224 -0.3741 -0.3429  0.4889
 3784G1FFO Head44982  12.815  16.710  21.555  0.3186  0.1867 -0.0697
 3784G1FFO Head44983  13.034  16.654  21.353 -0.1880 -0.3491 -0.1039
 3784G1FFO link44984  13.106  16.818  21.188  0.2237 -0.0466  0.3615
 3784G1FFO link44985  13.276  16.809  20.968  0.0979  0.0170 -0.0414
 3784G1FFO Tail44986  13.362  16.522  20.848 -0.0835  0.3547  0.0104
 3784G1FFO Tail44987  13.680  16.586  20.711  0.5019 -0.2263 -0.0334
 3784G1FFO Tail44988  13.682  16.692  20.464  0.1436  0.1709 -0.2362
 3784G1FFO Tail44989  13.626  16.525  20.276 -0.0450 -0.1536  0.1344
 3784G1FFO Tail44990  13.560  16.336  20.119 -0.0361 -0.0650 -0.1370
 3784G1FFO Tail44991  13.481  16.134  20.033 -0.0017 -0.0767 -0.0226
 3784G1FFO Tail44992  13.183  16.519  20.552 -0.0728 -0.2455 -0.0063
 3784G1FFO Tail44993  12.944  16.610  20.537  0.4142  0.1522  0.1026
 3784G1FFO Tail44994  12.903  16.848  20.636  0.0058  0.0127  0.0230
 3784G1FFO Tail44995  12.901  17.074  20.760 -0.2361  0.1750  0.0408
 3784G1FFO Tail44996  12.844  17.293  20.833 -0.1643 -0.3062 -0.0387
 3785G1FFO Head44997  15.105  14.810  22.100 -0.3826 -0.3216  0.2084
 3785G1FFO Head44998  15.225  15.058  22.240  0.1839  0.0707  0.0101
 3785G1FFO Head44999  14.791  15.261  22.340 -0.1957 -0.1835  0.1481
 3785G1FFO Head45000  15.015  15.382  22.165  0.2227 -0.1547  0.0688
 3785G1FFO link45001  15.228  15.275  22.109 -0.1364  0.4923 -0.2038
 3785G1FFO link45002  15.438  15.353  21.929 -0.1743  0.2938 -0.0901
 3785G1FFO Tail45003  15.663  15.168  21.769 -0.1009  0.7090  0.2994
 3785G1FFO Tail45004  15.564  15.229  21.449  0.2682 -0.1197 -0.0539
 3785G1FFO Tail45005  15.358  15.392  21.428  0.0310  0.2722 -0.0580
 3785G1FFO Tail45006  15.254  15.454  21.192  0.0682  0.0017 -0.3951
 3785G1FFO Tail45007  15.195  15.508  20.949  0.2490 -0.0079 -0.1195
 3785G1FFO Tail45008  15.200  15.611  20.735  0.0673  0.1708 -0.1033
 3785G1FFO Tail45009  15.553  14.854  21.831  0.1323  0.4822 -0.3131
 3785G1FFO Tail45010  15.647  14.633  21.722 -0.1958  0.1087  0.1320
 3785G1FFO Tail45011  15.489  14.501  21.566  0.0467  0.2929  0.2884
 3785G1FFO Tail45012  15.322  14.372  21.414  0.2850  0.2151 -0.2877
 3785G1FFO Tail45013  15.172  14.220  21.307  0.2120 -0.2357 -0.1227
 3786G1FFO Head45014  15.071  18.769  21.439 -0.2717  0.1629  0.0189
 3786G1FFO Head45015  15.263  18.681  21.221 -0.1568 -0.4282 -0.0018
 3786G1FFO Head45016  14.934  18.126  21.188  0.1130  0.0790  0.0189
 3786G1FFO Head45017  15.023  18.367  21.235  0.0080 -0.1289  0.2143
 3786G1FFO link45018  15.218  18.472  21.112  0.8179  0.1511 -0.1321
 3786G1FFO link45019  15.380  18.327  20.934 -0.0403 -0.4028  0.1400
 3786G1FFO Tail45020  15.706  18.407  20.911  0.2292  0.0063 -0.4910
 3786G1FFO Tail45021  15.840  18.186  21.142  0.1577  0.4284  0.5038
 3786G1FFO Tail45022  16.003  18.267  21.336 -0.2501  0.1712 -0.0369
 3786G1FFO Tail45023  16.136  18.493  21.316  0.1480 -0.1804  0.1017
 3786G1FFO Tail45024  16.292  18.685  21.271 -0.0285  0.2905 -0.0377
 3786G1FFO Tail45025  16.442  18.863  21.296  0.0832 -0.0667 -0.3710
 3786G1FFO Tail45026  15.685  18.693  21.106  0.1123  0.4239  0.0884
 3786G1FFO Tail45027  15.728  18.678  21.367  0.2358 -0.1653  0.1764
 3786G1FFO Tail45028  15.861  18.874  21.469 -0.0777  0.0913 -0.0270
 3786G1FFO Tail45029  16.032  19.053  21.540  0.2443 -0.1155 -0.3539
 3786G1FFO Tail45030  16.137  19.261  21.565  0.2361  0.0038 -0.1968
 3787G1FFO Head45031  16.276  14.994  20.638  0.3949  0.2953 -0.2665
 3787G1FFO Head45032  16.434  15.166  20.419 -0.0571 -0.0551  0.1683
 3787G1FFO Head45033  16.762  14.808  20.249  0.0276 -0.0572  0.1099
 3787G1FFO Head45034  16.857  15.112  20.317  0.1976  0.1079 -0.0407
 3787G1FFO link45035  16.686  15.230  20.470  0.1797  0.6868  0.1441
 3787G1FFO link45036  16.759  15.422  20.658 -0.2286 -0.1296 -0.1042
 3787G1FFO Tail45037  16.710  15.406  20.993 -0.3972 -0.2120  0.2757
 3787G1FFO Tail45038  16.464  15.664  21.048 -0.2518 -0.2896  0.1424
 3787G1FFO Tail45039  16.231  15.600  20.951 -0.2153 -0.3954 -0.1491
 3787G1FFO Tail45040  16.018  15.604  21.102  0.2045 -0.1799 -0.0924
 3787G1FFO Tail45041  15.790  15.642  21.211 -0.0720 -0.1043  0.0684
 3787G1FFO Tail45042  15.621  15.682  21.371  0.2990 -0.3408  0.3880
 3787G1FFO Tail45043  17.011  15.565  21.061 -0.1851 -0.0433  0.1733
 3787G1FFO Tail45044  17.242  15.451  20.984 -0.1318  0.0082  0.0487
 3787G1FFO Tail45045  17.225  15.301  20.773 -0.0795  0.0428  0.0171
 3787G1FFO Tail45046  17.249  15.135  20.579  0.4284  0.1635 -0.0923
 3787G1FFO Tail45047  17.298  15.042  20.371 -0.1579 -0.1376 -0.2050
 3788G1FFO Head45048  17.102  17.576  24.571 -0.3780 -0.0331 -0.1277
 3788G1FFO Head45049  16.960  17.738  24.361 -0.0276 -0.2207  0.2381
 3788G1FFO Head45050  16.691  17.943  24.683  0.1310 -0.1595 -0.0887
 3788G1FFO Head45051  16.810  18.111  24.477  0.2633  0.0143  0.0232
 3788G1FFO link45052  16.973  17.995  24.299 -0.2547  0.1031  0.2220
 3788G1FFO link45053  17.184  18.128  24.152 -0.3203 -0.0971 -0.3243
 3788G1FFO Tail45054  17.143  18.219  23.852  0.0034 -0.1520 -0.0947
 3788G1FFO Tail45055  16.858  18.424  23.882 -0.0795  0.1317  0.0790
 3788G1FFO Tail45056  16.795  18.528  24.113 -0.2682 -0.2509 -0.1040
 3788G1FFO Tail45057  16.570  18.658  24.152 -0.1041  0.1507  0.0925
 3788G1FFO Tail45058  16.375  18.817  24.217 -0.0736  0.0093  0.0435
 3788G1FFO Tail45059  16.158  18.903  24.253 -0.1970 -0.0607 -0.0654
 3788G1FFO Tail45060  16.958  17.918  23.752  0.3322 -0.2625  0.3343
 3788G1FFO Tail45061  16.768  17.839  23.926 -0.2865 -0.0002 -0.2075
 3788G1FFO Tail45062  16.639  18.022  24.053  0.1332 -0.1120 -0.1678
 3788G1FFO Tail45063  16.472  18.190  24.145 -0.1262 -0.3253  0.0065
 3788G1FFO Tail45064  16.310  18.303  24.268 -0.2886 -0.1675 -0.3975
 3789G1FFO Head45065  17.139  15.442  18.671  0.0304  0.0058 -0.1228
 3789G1FFO Head45066  16.899  15.571  18.595 -0.2719 -0.0866 -0.0629
 3789G1FFO Head45067  16.558  15.511  18.237  0.2738  0.0529  0.3379
 3789G1FFO Head45068  16.536  15.395  18.505 -0.4674 -0.0323 -0.1146
 3789G1FFO link45069  16.666  15.507  18.678  0.0990 -0.0125  0.4136
 3789G1FFO link45070  16.563  15.584  18.921  0.2450 -0.2859 -0.0970
 3789G1FFO Tail45071  16.626  15.894  19.037  0.5130  0.1048  0.0868
 3789G1FFO Tail45072  16.321  16.022  19.028 -0.2151 -0.1043 -0.5469
 3789G1FFO Tail45073  16.266  16.251  18.934 -0.2576 -0.0175  0.4004
 3789G1FFO Tail45074  16.301  16.299  18.679  0.1591 -0.2872  0.0508
 3789G1FFO Tail45075  16.347  16.366  18.431 -0.2235  0.0364  0.1989
 3789G1FFO Tail45076  16.361  16.365  18.193  0.0325  0.0504  0.0644
 3789G1FFO Tail45077  16.662  15.800  19.358 -0.1406  0.4298 -0.3670
 3789G1FFO Tail45078  16.468  15.794  19.534 -0.1066  0.0020  0.0527
 3789G1FFO Tail45079  16.503  15.686  19.764  0.2008 -0.1701 -0.1334
 3789G1FFO Tail45080  16.551  15.613  20.007  0.1213 -0.0045 -0.2506
 3789G1FFO Tail45081  16.658  15.554  20.205  0.0627  0.3958 -0.0199
 3790G1FFO Head45082  14.851  17.841  17.966  0.1701 -0.0949  0.2063
 3790G1FFO Head45083  14.873  17.993  18.231  0.0315 -0.2227  0.0915
 3790G1FFO Head45084  14.689  18.290  17.866  0.0979 -0.1648 -0.0982
 3790G1FFO Head45085  14.950  18.345  18.017  0.0663 -0.1299 -0.2497
 3790G1FFO link45086  15.008  18.245  18.244 -0.5703  0.0111  0.2875
 3790G1FFO link45087  15.050  18.404  18.479 -0.0723 -0.1285  0.2761
 3790G1FFO Tail45088  14.928  18.306  18.763 -0.0287 -0.2841  0.2300
 3790G1FFO Tail45089  15.201  18.126  18.859 -0.4615 -0.1180  0.3407
 3790G1FFO Tail45090  15.310  17.937  18.713  0.5420  0.1023 -0.2369
 3790G1FFO Tail45091  15.286  17.948  18.454  0.0933  0.1578  0.1600
 3790G1FFO Tail45092  15.309  17.939  18.199 -0.0276 -0.1085  0.2163
 3790G1FFO Tail45093  15.271  17.955  17.971  0.4979  0.0157 -0.0162
 3790G1FFO Tail45094  14.725  18.050  18.669  0.2165  0.1842 -0.1865
 3790G1FFO Tail45095  14.808  17.805  18.653  0.0419  0.2842 -0.0609
 3790G1FFO Tail45096  14.939  17.713  18.855  0.1937  0.0758 -0.1679
 3790G1FFO Tail45097  15.111  17.635  19.023 -0.0064  0.0657  0.0463
 3790G1FFO Tail45098  15.316  17.582  19.128 -0.0723  0.0614  0.1229
 3791G1FFO Head45099  18.219  20.521  23.497 -0.0905  0.0804  0.1876
 3791G1FFO Head45100  18.286  20.241  23.553  0.0016 -0.0214  0.1766
 3791G1FFO Head45101  18.682  20.519  23.256 -0.0562  0.0937 -0.0177
 3791G1FFO Head45102  18.650  20.319  23.452 -0.1214 -0.0831  0.0406
 3791G1FFO link45103  18.491  20.129  23.419  0.3445 -0.1177 -0.2141
 3791G1FFO link45104  18.488  19.989  23.171 -0.0785 -0.0565  0.0370
 3791G1FFO Tail45105  18.639  19.714  23.147 -0.2477 -0.2870 -0.2046
 3791G1FFO Tail45106  18.781  19.759  22.835  0.2910 -0.3497  0.1038
 3791G1FFO Tail45107  18.666  19.679  22.629 -0.1246  0.0245  0.2320
 3791G1FFO Tail45108  18.433  19.765  22.566  0.0498  0.0485  0.0554
 3791G1FFO Tail45109  18.196  19.819  22.480 -0.0238 -0.3450  0.1830
 3791G1FFO Tail45110  17.968  19.820  22.449 -0.5593 -0.0289 -0.1069
 3791G1FFO Tail45111  18.390  19.532  23.032 -0.2806  0.0190 -0.2910
 3791G1FFO Tail45112  18.175  19.618  22.919 -0.5840  0.1468  0.2086
 3791G1FFO Tail45113  18.079  19.838  23.018  0.1914  0.0722 -0.0628
 3791G1FFO Tail45114  18.013  20.040  23.154  0.0343 -0.0878 -0.0833
 3791G1FFO Tail45115  17.915  20.180  23.312 -0.0410  0.1073 -0.0887
 3792G1FFO Head45116  18.363  16.204  23.146  0.1940 -0.2082 -0.0544
 3792G1FFO Head45117  18.299  16.390  22.908  0.1555 -0.0934  0.2817
 3792G1FFO Head45118  17.814  16.147  22.691 -0.1734  0.2956  0.1301
 3792G1FFO Head45119  18.145  16.099  22.648  0.2894  0.0271  0.0763
 3792G1FFO link45120  18.277  16.290  22.665  0.1138  0.2103  0.2436
 3792G1FFO link45121  18.428  16.375  22.440 -0.3904 -0.0285  0.2812
 3792G1FFO Tail45122  18.370  16.673  22.332 -0.1503 -0.1421  0.0676
 3792G1FFO Tail45123  18.427  16.616  22.000  0.3666 -0.1329 -0.2359
 3792G1FFO Tail45124  18.401  16.799  21.820  0.0928  0.0726 -0.3374
 3792G1FFO Tail45125  18.519  16.739  21.597 -0.0753  0.0303  0.1517
 3792G1FFO Tail45126  18.664  16.682  21.395  0.1033  0.0895 -0.1222
 3792G1FFO Tail45127  18.844  16.647  21.245  0.3120  0.0655 -0.1567
 3792G1FFO Tail45128  18.680  16.819  22.408  0.1426 -0.0021  0.1605
 3792G1FFO Tail45129  18.882  16.671  22.479 -0.1400  0.1116  0.1059
 3792G1FFO Tail45130  18.858  16.533  22.703 -0.1677  0.2208 -0.0817
 3792G1FFO Tail45131  18.813  16.366  22.895 -0.3586 -0.1021 -0.2517
 3792G1FFO Tail45132  18.815  16.250  23.106 -0.0193 -0.0708 -0.0079
 3793G1FFO Head45133  13.460  19.200  21.027  0.0978 -0.1578  0.0176
 3793G1FFO Head45134  13.762  19.166  21.124  0.1603  0.1101  0.3520
 3793G1FFO Head45135  13.762  19.594  21.754  0.0892 -0.2380  0.2872
 3793G1FFO Head45136  13.778  19.331  21.530  0.0680 -0.4243 -0.4054
 3793G1FFO link45137  13.876  19.328  21.294  0.3602 -0.1324  0.3375
 3793G1FFO link45138  14.143  19.418  21.221 -0.1050  0.2011  0.0928
 3793G1FFO Tail45139  14.195  19.623  20.973 -0.0162 -0.1112  0.0728
 3793G1FFO Tail45140  14.156  19.428  20.716  0.2097  0.1042 -0.0681
 3793G1FFO Tail45141  14.114  19.166  20.730 -0.0238  0.2675 -0.3882
 3793G1FFO Tail45142  13.870  19.076  20.710 -0.1447 -0.0548  0.0027
 3793G1FFO Tail45143  13.652  18.936  20.680 -0.1147  0.0377 -0.2087
 3793G1FFO Tail45144  13.491  18.763  20.682  0.0003  0.3078  0.0726
 3793G1FFO Tail45145  14.534  19.612  20.976 -0.1183  0.3590  0.3270
 3793G1FFO Tail45146  14.646  19.382  20.897 -0.1587  0.1463  0.0113
 3793G1FFO Tail45147  14.744  19.340  20.646  0.1241 -0.0788  0.0367
 3793G1FFO Tail45148  14.822  19.339  20.404 -0.0404 -0.0341  0.0370
 3793G1FFO Tail45149  14.910  19.289  20.191 -0.1855  0.0309  0.2444
 3794G1FFO Head45150  14.360  18.035  24.249 -0.0233 -0.0567 -0.1184
 3794G1FFO Head45151  14.389  18.112  23.934 -0.0071  0.0450  0.0160
 3794G1FFO Head45152  14.190  17.626  23.958  0.0241  0.1080  0.1052
 3794G1FFO Head45153  14.336  17.771  23.730 -0.4869  0.0054  0.3976
 3794G1FFO link45154  14.495  17.967  23.749 -0.0502 -0.2043 -0.2132
 3794G1FFO link45155  14.732  18.017  23.613 -0.5632  0.1780 -0.3037
 3794G1FFO Tail45156  15.040  17.937  23.733 -0.3799  0.0814  0.0906
 3794G1FFO Tail45157  15.208  18.246  23.714 -0.4354  0.1611 -0.0636
 3794G1FFO Tail45158  15.452  18.246  23.604  0.3176  0.0215 -0.0874
 3794G1FFO Tail45159  15.474  18.126  23.375 -0.1395 -0.0107  0.1237
 3794G1FFO Tail45160  15.465  18.017  23.144  0.3301  0.3153  0.2805
 3794G1FFO Tail45161  15.391  17.952  22.931 -0.1162  0.2896  0.3376
 3794G1FFO Tail45162  15.195  17.765  23.458  0.4534  0.1326  0.1731
 3794G1FFO Tail45163  15.428  17.640  23.477  0.0929 -0.0487  0.0609
 3794G1FFO Tail45164  15.616  17.749  23.625  0.0376 -0.0132  0.1215
 3794G1FFO Tail45165  15.811  17.871  23.724 -0.3038  0.2900 -0.1052
 3794G1FFO Tail45166  15.977  18.037  23.770  0.4298 -0.1699 -0.1834
 3795G1FFO Head45167  16.953  18.216  20.001  0.8024 -0.0670  0.2351
 3795G1FFO Head45168  16.941  18.498  20.063 -0.2764  0.2914  0.1942
 3795G1FFO Head45169  16.710  18.382  20.668 -0.0888  0.2407 -0.2123
 3795G1FFO Head45170  16.712  18.390  20.366  0.3218  0.3298 -0.1514
 3795G1FFO link45171  16.810  18.579  20.266 -0.1051 -0.4281  0.1474
 3795G1FFO link45172  16.701  18.838  20.278 -0.1871 -0.1301 -0.4130
 3795G1FFO Tail45173  16.688  19.057  20.047 -0.1345  0.4173  0.1476
 3795G1FFO Tail45174  16.399  19.214  20.149  0.0956  0.1432 -0.1232
 3795G1FFO Tail45175  16.278  19.404  20.029 -0.0375 -0.0721  0.1147
 3795G1FFO Tail45176  16.042  19.492  20.084 -0.0059  0.0764 -0.0435
 3795G1FFO Tail45177  15.793  19.565  20.125  0.0610  0.2198  0.3424
 3795G1FFO Tail45178  15.573  19.637  20.082 -0.0893  0.0383 -0.5423
 3795G1FFO Tail45179  16.622  18.863  19.784  0.1315 -0.0317 -0.0818
 3795G1FFO Tail45180  16.519  18.630  19.822 -0.1419  0.4194 -0.0828
 3795G1FFO Tail45181  16.340  18.629  20.015 -0.0546 -0.0546 -0.2230
 3795G1FFO Tail45182  16.205  18.633  20.228 -0.1696 -0.0941 -0.0602
 3795G1FFO Tail45183  16.112  18.632  20.439 -0.1837  0.1136 -0.3251
 3796G1FFO Head45184  21.414  18.485  21.193 -0.3147  0.1152 -0.0749
 3796G1FFO Head45185  21.255  18.335  20.970 -0.0883  0.1769 -0.0061
 3796G1FFO Head45186  21.239  18.066  21.466  0.4647 -0.1569  0.1107
 3796G1FFO Head45187  21.196  17.974  21.195 -0.5708  0.0044  0.0132
 3796G1FFO link45188  21.092  18.141  21.038 -0.5513 -0.1401  0.1157
 3796G1FFO link45189  20.828  18.125  20.932 -0.1259  0.2209  0.0245
 3796G1FFO Tail45190  20.754  17.969  20.650 -0.0262  0.0685  0.4237
 3796G1FFO Tail45191  20.603  18.222  20.450 -0.2456  0.1742  0.2434
 3796G1FFO Tail45192  20.374  18.188  20.339  0.0278  0.0094 -0.1608
 3796G1FFO Tail45193  20.307  18.352  20.143  0.0722 -0.5325 -0.0300
 3796G1FFO Tail45194  20.251  18.468  19.916  0.0937 -0.1880  0.0272
 3796G1FFO Tail45195  20.252  18.538  19.694  0.1839 -0.0711 -0.0221
 3796G1FFO Tail45196  20.465  17.794  20.722 -0.1233  0.1459 -0.0918
 3796G1FFO Tail45197  20.258  17.804  20.563  0.4703 -0.3196 -0.1416
 3796G1FFO Tail45198  20.033  17.709  20.641  0.2199  0.2654 -0.2941
 3796G1FFO Tail45199  19.794  17.626  20.705 -0.1545  0.1704  0.0147
 3796G1FFO Tail45200  19.566  17.579  20.716  0.4904 -0.1315  0.2974
 3797G1FFO Head45201  18.800  13.633  21.619  0.0127 -0.2101  0.1776
 3797G1FFO Head45202  18.848  13.657  21.900  0.2216  0.0009 -0.2276
 3797G1FFO Head45203  19.084  13.593  22.318 -0.0684 -0.2852  0.3694
 3797G1FFO Head45204  18.801  13.688  22.297 -0.0791 -0.5810  0.1135
 3797G1FFO link45205  18.673  13.726  22.073 -0.3425 -0.0438 -0.1090
 3797G1FFO link45206  18.394  13.761  22.022 -0.1102 -0.1424 -0.1265
 3797G1FFO Tail45207  18.270  13.767  21.716  0.4838 -0.0947  0.0679
 3797G1FFO Tail45208  18.147  14.098  21.723 -0.3009  0.2095  0.2212
 3797G1FFO Tail45209  18.133  14.250  21.508  0.0611 -0.2430  0.0448
 3797G1FFO Tail45210  17.930  14.231  21.344 -0.0624 -0.1262 -0.0078
 3797G1FFO Tail45211  17.740  14.175  21.190  0.2186  0.2415  0.1799
 3797G1FFO Tail45212  17.579  14.159  21.010  0.0911  0.0410 -0.1224
 3797G1FFO Tail45213  17.971  13.563  21.716  0.2651 -0.3995 -0.3471
 3797G1FFO Tail45214  17.775  13.615  21.552  0.2881 -0.1029  0.1327
 3797G1FFO Tail45215  17.822  13.629  21.299 -0.1896  0.0891  0.0236
 3797G1FFO Tail45216  17.915  13.654  21.060 -0.0101 -0.1405 -0.3311
 3797G1FFO Tail45217  17.955  13.701  20.837  0.2262 -0.1541  0.0156
 3798G1FFO Head45218  19.258  18.006  21.089 -0.1739  0.2567  0.3787
 3798G1FFO Head45219  19.460  17.826  21.211  0.0182  0.2322  0.1539
 3798G1FFO Head45220  19.719  17.424  21.293 -0.1697 -0.0094  0.1032
 3798G1FFO Head45221  19.515  17.556  21.479  0.0501 -0.0679 -0.0915
 3798G1FFO link45222  19.456  17.795  21.462 -0.1531  0.4595  0.3173
 3798G1FFO link45223  19.363  17.957  21.662 -0.0782  0.0006 -0.0491
 3798G1FFO Tail45224  19.407  17.887  21.975  0.3199 -0.2246 -0.1589
 3798G1FFO Tail45225  19.074  17.947  22.084 -0.0957 -0.0582 -0.2368
 3798G1FFO Tail45226  18.892  17.863  21.914 -0.0545 -0.0709 -0.1172
 3798G1FFO Tail45227  18.819  17.610  21.935  0.0623 -0.1600  0.0447
 3798G1FFO Tail45228  18.763  17.374  21.994 -0.0751 -0.2032  0.2326
 3798G1FFO Tail45229  18.647  17.166  22.019 -0.1716 -0.1278 -0.0053
 3798G1FFO Tail45230  19.521  18.212  22.093 -0.1489  0.0182  0.2073
 3798G1FFO Tail45231  19.689  18.231  22.295 -0.0748  0.1606 -0.2862
 3798G1FFO Tail45232  19.653  18.384  22.518  0.2094  0.1078  0.0316
 3798G1FFO Tail45233  19.661  18.516  22.735  0.0220  0.1485 -0.0168
 3798G1FFO Tail45234  19.742  18.659  22.900  0.1028 -0.0719  0.0494
 3799G1FFO Head45235  20.013  19.399  20.039  0.3542 -0.1017  0.0726
 3799G1FFO Head45236  19.697  19.369  20.075 -0.0598 -0.2189  0.1872
 3799G1FFO Head45237  19.480  19.733  20.269 -0.0751  0.2051  0.1282
 3799G1FFO Head45238  19.440  19.437  20.381 -0.0076  0.2125 -0.2654
 3799G1FFO link45239  19.584  19.246  20.271  0.5821  0.0873  0.4469
 3799G1FFO link45240  19.516  18.955  20.260 -0.2941  0.0458  0.2058
 3799G1FFO Tail45241  19.424  18.767  20.516 -0.2066 -0.1040  0.3099
 3799G1FFO Tail45242  19.458  18.470  20.343  0.1018  0.3540  0.0290
 3799G1FFO Tail45243  19.347  18.437  20.106  0.2616 -0.1143  0.2573
 3799G1FFO Tail45244  19.269  18.200  20.041 -0.1675  0.2370 -0.2377
 3799G1FFO Tail45245  19.237  17.955  20.008 -0.1191  0.2311 -0.0505
 3799G1FFO Tail45246  19.155  17.755  19.942  0.3300 -0.0119  0.1354
 3799G1FFO Tail45247  19.084  18.826  20.509  0.0914  0.3445 -0.0263
 3799G1FFO Tail45248  18.929  18.875  20.718 -0.4236  0.1426  0.3234
 3799G1FFO Tail45249  18.871  18.687  20.886  0.0910  0.1797  0.0887
 3799G1FFO Tail45250  18.791  18.528  21.068 -0.2812 -0.1009 -0.0163
 3799G1FFO Tail45251  18.774  18.409  21.268 -0.1037 -0.0588 -0.0482
 3800G1FFO Head45252  15.519  16.855  24.245 -0.4239 -0.0817 -0.2256
 3800G1FFO Head45253  15.588  17.187  24.266  0.1973  0.0949 -0.1331
 3800G1FFO Head45254  15.677  17.623  24.470  0.2394  0.0121  0.0883
 3800G1FFO Head45255  15.761  17.543  24.164  0.3486  0.1311  0.2010
 3800G1FFO link45256  15.661  17.332  24.052  0.2623  0.3584  0.3102
 3800G1FFO link45257  15.566  17.280  23.789  0.3582 -0.4984 -0.0215
 3800G1FFO Tail45258  15.435  17.000  23.682 -0.1039 -0.1719  0.0493
 3800G1FFO Tail45259  15.375  17.091  23.365 -0.0733 -0.2671 -0.3138
 3800G1FFO Tail45260  15.149  17.062  23.260  0.1914  0.0390  0.0409
 3800G1FFO Tail45261  14.958  17.221  23.324  0.1235 -0.2169 -0.2373
 3800G1FFO Tail45262  14.800  17.396  23.416 -0.0225 -0.2285  0.1257
 3800G1FFO Tail45263  14.632  17.536  23.502  0.1412 -0.2521  0.1223
 3800G1FFO Tail45264  15.114  16.998  23.808 -0.0595 -0.0125 -0.1728
 3800G1FFO Tail45265  14.976  17.221  23.784 -0.1417 -0.1862 -0.2488
 3800G1FFO Tail45266  15.100  17.448  23.866 -0.0143 -0.1423  0.3111
 3800G1FFO Tail45267  15.251  17.629  23.972  0.1113  0.2089  0.0993
 3800G1FFO Tail45268  15.402  17.791  24.014 -0.1094 -0.0175 -0.1322
 3801G1FFO Head45269  15.581  15.552  23.902 -0.0073 -0.0170 -0.3240
 3801G1FFO Head45270  15.811  15.279  23.872  0.0899 -0.3773 -0.2564
 3801G1FFO Head45271  16.436  15.384  24.124  0.1809 -0.1876  0.4051
 3801G1FFO Head45272  16.158  15.422  24.083 -0.0794  0.0500  0.0634
 3801G1FFO link45273  16.056  15.325  23.868  0.3370  0.0011  0.4093
 3801G1FFO link45274  16.201  15.226  23.646 -0.0041  0.0691  0.0873
 3801G1FFO Tail45275  16.306  15.423  23.409 -0.5340  0.0079 -0.3706
 3801G1FFO Tail45276  16.146  15.722  23.477  0.2808 -0.2203 -0.0074
 3801G1FFO Tail45277  16.291  15.948  23.489 -0.0749  0.2260  0.1937
 3801G1FFO Tail45278  16.505  15.930  23.346 -0.2524  0.0113 -0.1945
 3801G1FFO Tail45279  16.732  15.928  23.236 -0.1691 -0.0378  0.1803
 3801G1FFO Tail45280  16.914  15.862  23.101  0.1745 -0.3217  0.0855
 3801G1FFO Tail45281  16.103  15.288  23.140 -0.0294  0.0495 -0.2201
 3801G1FFO Tail45282  16.084  15.031  23.073 -0.0193 -0.1024 -0.1605
 3801G1FFO Tail45283  16.299  14.934  22.959 -0.0851  0.1856 -0.1248
 3801G1FFO Tail45284  16.493  14.813  22.860  0.0471 -0.1430 -0.2378
 3801G1FFO Tail45285  16.632  14.641  22.776  0.0951 -0.2514  0.0928
 3802G1FFO Head45286  16.239  19.788  20.898 -0.1558 -0.3337 -0.2631
 3802G1FFO Head45287  15.946  19.801  20.825 -0.0413 -0.1109 -0.3387
 3802G1FFO Head45288  15.610  20.066  20.616  0.0620 -0.0101  0.0288
 3802G1FFO Head45289  15.685  19.808  20.495 -0.0051  0.2483  0.2431
 3802G1FFO link45290  15.860  19.649  20.619 -0.5690  0.1194 -0.1524
 3802G1FFO link45291  15.950  19.388  20.554  0.1363 -0.1314 -0.1959
 3802G1FFO Tail45292  15.736  19.145  20.565 -0.1106  0.3772 -0.2145
 3802G1FFO Tail45293  15.915  18.920  20.745 -0.0029  0.0639  0.1406
 3802G1FFO Tail45294  16.014  18.977  20.978 -0.1823 -0.0592 -0.0969
 3802G1FFO Tail45295  16.018  19.222  21.061  0.1325 -0.2622 -0.0876
 3802G1FFO Tail45296  15.976  19.451  21.161 -0.0022  0.1290 -0.0793
 3802G1FFO Tail45297  15.901  19.674  21.214 -0.1830  0.1307  0.0221
 3802G1FFO Tail45298  15.789  18.985  20.260  0.0650  0.3491 -0.1647
 3802G1FFO Tail45299  15.768  19.098  20.025 -0.3286 -0.2073  0.0287
 3802G1FFO Tail45300  15.933  19.009  19.838 -0.0751  0.1504  0.0915
 3802G1FFO Tail45301  16.124  18.918  19.696 -0.0949  0.3189  0.1019
 3802G1FFO Tail45302  16.257  18.797  19.542  0.0908 -0.0425  0.1736
 3803G1FFO Head45303  13.666  18.085  22.362 -0.0559  0.0612 -0.0977
 3803G1FFO Head45304  13.944  18.295  22.356  0.1738 -0.1712  0.2810
 3803G1FFO Head45305  13.526  18.761  22.346  0.0203  0.2502 -0.0274
 3803G1FFO Head45306  13.812  18.694  22.369 -0.2003 -0.0753  0.4756
 3803G1FFO link45307  13.929  18.525  22.228 -0.0036 -0.1001  0.2124
 3803G1FFO link45308  14.055  18.589  21.981 -0.1635 -0.0204  0.1200
 3803G1FFO Tail45309  14.133  18.342  21.765 -0.2531 -0.3499 -0.1353
 3803G1FFO Tail45310  13.891  18.108  21.870  0.1485 -0.2959 -0.0725
 3803G1FFO Tail45311  13.713  17.993  21.720 -0.0597 -0.1033 -0.1520
 3803G1FFO Tail45312  13.699  17.741  21.726 -0.1605  0.1162  0.0372
 3803G1FFO Tail45313  13.719  17.481  21.714 -0.2634 -0.1813  0.0737
 3803G1FFO Tail45314  13.672  17.257  21.678 -0.1649 -0.1223 -0.1902
 3803G1FFO Tail45315  14.408  18.192  21.926  0.2180 -0.5595 -0.0346
 3803G1FFO Tail45316  14.540  18.000  21.808 -0.0316 -0.2126  0.1776
 3803G1FFO Tail45317  14.486  17.743  21.842  0.0190 -0.2203  0.3630
 3803G1FFO Tail45318  14.465  17.491  21.893 -0.0784  0.0433 -0.3688
 3803G1FFO Tail45319  14.498  17.265  21.934  0.0874  0.2400  0.1366
 3804G1FFO Head45320  18.967  20.118  23.969 -0.1462  0.0322 -0.2238
 3804G1FFO Head45321  18.958  20.113  23.708 -0.0199  0.3248  0.2677
 3804G1FFO Head45322  19.159  20.110  23.246 -0.0578 -0.2214  0.1213
 3804G1FFO Head45323  18.902  19.935  23.340 -0.1917 -0.2675 -0.2616
 3804G1FFO link45324  18.802  19.971  23.574 -0.0469 -0.5382 -0.1307
 3804G1FFO link45325  18.556  19.848  23.659  0.3234 -0.3080  0.2498
 3804G1FFO Tail45326  18.549  19.567  23.820 -0.4637  0.5457  0.9323
 3804G1FFO Tail45327  18.232  19.567  23.945  0.6301 -0.1101 -0.2477
 3804G1FFO Tail45328  18.174  19.651  24.181 -0.3837 -0.3260 -0.0591
 3804G1FFO Tail45329  18.197  19.472  24.380  0.2230 -0.4542  0.2747
 3804G1FFO Tail45330  18.204  19.285  24.539  0.1737  0.0131 -0.0509
 3804G1FFO Tail45331  18.181  19.062  24.631 -0.0318 -0.0354  0.1099
 3804G1FFO Tail45332  18.694  19.691  24.109 -0.2762  0.0529 -0.1515
 3804G1FFO Tail45333  18.606  19.904  24.237  0.1788 -0.1335 -0.0189
 3804G1FFO Tail45334  18.411  20.039  24.128  0.2655 -0.0230  0.3417
 3804G1FFO Tail45335  18.212  20.138  23.995 -0.1367  0.3133  0.0439
 3804G1FFO Tail45336  18.044  20.274  23.905 -0.2657 -0.2604 -0.0562
 3805G1FFO Head45337  14.153  16.721  23.221  0.4374  0.3608 -0.4335
 3805G1FFO Head45338  13.919  16.979  23.253 -0.1566 -0.4176  0.3780
 3805G1FFO Head45339  13.599  17.525  23.186  0.0129 -0.1424  0.1787
 3805G1FFO Head45340  13.817  17.379  23.302 -0.0700  0.0272  0.2062
 3805G1FFO link45341  13.976  17.236  23.162  0.1456  0.4099  0.1380
 3805G1FFO link45342  14.096  17.322  22.909 -0.1502  0.3492  0.2663
 3805G1FFO Tail45343  14.391  17.437  22.839 -0.2331  0.2431  0.1873
 3805G1FFO Tail45344  14.330  17.739  22.952 -0.2920 -0.0620 -0.0739
 3805G1FFO Tail45345  14.352  17.779  23.203 -0.0258 -0.1261 -0.0751
 3805G1FFO Tail45346  14.143  17.738  23.353 -0.1434  0.1350  0.0572
 3805G1FFO Tail45347  13.953  17.727  23.520  0.1856 -0.1523 -0.1484
 3805G1FFO Tail45348  13.808  17.692  23.707 -0.0169 -0.3997 -0.0126
 3805G1FFO Tail45349  14.386  17.473  22.475  0.0076  0.1007 -0.1306
 3805G1FFO Tail45350  14.616  17.494  22.340  0.1146  0.1120 -0.1818
 3805G1FFO Tail45351  14.719  17.728  22.298  0.0623  0.1754  0.0723
 3805G1FFO Tail45352  14.799  17.963  22.226  0.0446 -0.0297 -0.1250
 3805G1FFO Tail45353  14.902  18.149  22.117  0.3081 -0.3073 -0.3384
 3806G1FFO Head45354  16.342  15.675  20.522 -0.1515 -0.0039  0.0166
 3806G1FFO Head45355  16.284  15.950  20.330  0.1061  0.1526  0.5070
 3806G1FFO Head45356  16.821  15.940  20.481 -0.0124 -0.0451 -0.3898
 3806G1FFO Head45357  16.681  15.992  20.242  0.1194  0.2355 -0.5101
 3806G1FFO link45358  16.464  16.136  20.269  0.1750 -0.0309 -0.2270
 3806G1FFO link45359  16.423  16.419  20.214 -0.1436  0.3774 -0.1444
 3806G1FFO Tail45360  16.577  16.567  19.950  0.1044 -0.0906 -0.5501
 3806G1FFO Tail45361  16.642  16.869  20.124  0.0720  0.0942  0.0562
 3806G1FFO Tail45362  16.682  17.095  19.995  0.0061 -0.1357 -0.3930
 3806G1FFO Tail45363  16.559  17.132  19.769 -0.0016 -0.1906 -0.1870
 3806G1FFO Tail45364  16.439  17.111  19.544  0.1893  0.0134  0.2027
 3806G1FFO Tail45365  16.335  17.167  19.338  0.0005 -0.4056 -0.0823
 3806G1FFO Tail45366  16.315  16.669  19.746 -0.1356  0.1956  0.0333
 3806G1FFO Tail45367  16.121  16.819  19.823  0.4131 -0.1838  0.1041
 3806G1FFO Tail45368  16.105  16.898  20.074  0.0206  0.1792  0.0236
 3806G1FFO Tail45369  16.075  16.926  20.325  0.2177  0.0238  0.1178
 3806G1FFO Tail45370  16.033  16.888  20.549  0.0117  0.0447 -0.0326
 3807G1FFO Head45371  19.131  18.229  17.901 -0.1301 -0.2859 -0.1042
 3807G1FFO Head45372  19.179  18.170  18.185 -0.1421  0.1846  0.1027
 3807G1FFO Head45373  18.783  18.525  18.190  0.1340 -0.0151  0.0395
 3807G1FFO Head45374  18.782  18.252  18.263  0.2917 -0.0262 -0.0091
 3807G1FFO link45375  18.991  18.178  18.358  0.1992 -0.1456 -0.2401
 3807G1FFO link45376  19.005  18.023  18.597  0.0160  0.2415  0.1227
 3807G1FFO Tail45377  19.036  18.166  18.894  0.0498 -0.3830  0.4968
 3807G1FFO Tail45378  19.192  17.878  19.049  0.2452  0.0184 -0.1946
 3807G1FFO Tail45379  19.386  17.753  18.925  0.1191 -0.1697 -0.4432
 3807G1FFO Tail45380  19.481  17.542  19.038 -0.3103  0.0326  0.0526
 3807G1FFO Tail45381  19.603  17.357  19.166 -0.0637 -0.1382  0.1567
 3807G1FFO Tail45382  19.694  17.216  19.329  0.1292  0.0141  0.0807
 3807G1FFO Tail45383  18.694  18.112  18.982  0.4210 -0.0073 -0.0129
 3807G1FFO Tail45384  18.600  17.890  18.894  0.2595  0.0730 -0.1153
 3807G1FFO Tail45385  18.758  17.688  18.829  0.2648 -0.1424  0.0285
 3807G1FFO Tail45386  18.862  17.486  18.727  0.1532  0.0720  0.0041
 3807G1FFO Tail45387  19.007  17.335  18.607  0.2093  0.0969 -0.0406
 3808G1FFO Head45388  17.470  15.482  22.475  0.4852  0.2544 -0.0672
 3808G1FFO Head45389  17.322  15.759  22.465  0.1023  0.3156  0.3875
 3808G1FFO Head45390  16.824  16.051  22.234  0.1246  0.0967  0.3565
 3808G1FFO Head45391  17.126  16.061  22.234  0.1702 -0.2625  0.5120
 3808G1FFO link45392  17.260  15.840  22.218  0.2611  0.3690  0.8079
 3808G1FFO link45393  17.222  15.641  22.011 -0.0972 -0.2238  0.0744
 3808G1FFO Tail45394  16.922  15.522  21.951  0.1266  0.0850 -0.1801
 3808G1FFO Tail45395  16.738  15.788  21.827  0.1153 -0.1399  0.1016
 3808G1FFO Tail45396  16.858  16.021  21.779 -0.0857  0.0288  0.1396
 3808G1FFO Tail45397  17.108  16.044  21.778 -0.2060 -0.0083  0.0821
 3808G1FFO Tail45398  17.355  16.106  21.754  0.0257 -0.2625 -0.0045
 3808G1FFO Tail45399  17.548  16.221  21.696  0.0101 -0.2043 -0.0498
 3808G1FFO Tail45400  16.802  15.543  22.277  0.3302 -0.0069 -0.1083
 3808G1FFO Tail45401  16.961  15.505  22.477  0.1673 -0.3557  0.0730
 3808G1FFO Tail45402  16.849  15.486  22.711  0.0708  0.2961 -0.1190
 3808G1FFO Tail45403  16.772  15.417  22.953  0.0648 -0.0486  0.0566
 3808G1FFO Tail45404  16.644  15.358  23.142 -0.3093 -0.1757 -0.2400
 3809G1FFO Head45405  18.614  14.510  23.289 -0.0348  0.0895  0.0903
 3809G1FFO Head45406  18.827  14.685  23.069 -0.0020  0.0287 -0.3040
 3809G1FFO Head45407  19.036  14.340  22.763 -0.0639 -0.1918  0.0984
 3809G1FFO Head45408  18.752  14.496  22.723  0.1274  0.4343  0.0087
 3809G1FFO link45409  18.740  14.726  22.821 -0.1522 -0.3948 -0.2335
 3809G1FFO link45410  18.669  14.981  22.708 -0.2713 -0.1470  0.1436
 3809G1FFO Tail45411  18.617  15.005  22.380  0.3394  0.1320 -0.0045
 3809G1FFO Tail45412  18.463  15.325  22.384 -0.0179  0.0894 -0.3269
 3809G1FFO Tail45413  18.573  15.550  22.426 -0.1276 -0.2947 -0.0119
 3809G1FFO Tail45414  18.521  15.752  22.262 -0.2228  0.0495  0.0553
 3809G1FFO Tail45415  18.495  15.939  22.096 -0.2207  0.1468  0.0868
 3809G1FFO Tail45416  18.467  16.146  21.998 -0.0417 -0.2280 -0.1891
 3809G1FFO Tail45417  18.325  14.801  22.373 -0.0488 -0.1970 -0.1353
 3809G1FFO Tail45418  18.120  14.863  22.222  0.3450 -0.1708  0.1899
 3809G1FFO Tail45419  18.155  14.922  21.973 -0.2393 -0.0855  0.0106
 3809G1FFO Tail45420  18.195  14.921  21.729  0.0371 -0.0176  0.0470
 3809G1FFO Tail45421  18.172  14.936  21.496  0.0039 -0.1248 -0.1383
 3810G1FFO Head45422  13.409  19.076  21.915 -0.0399  0.2554 -0.2167
 3810G1FFO Head45423  13.717  18.988  21.976 -0.5135  0.2391 -0.1843
 3810G1FFO Head45424  14.185  19.394  22.301  0.2546  0.0958  0.0926
 3810G1FFO Head45425  13.919  19.336  22.097  0.3365 -0.2054 -0.3664
 3810G1FFO link45426  13.920  19.155  21.920  0.2860  0.5195  0.3280
 3810G1FFO link45427  14.169  19.072  21.794 -0.3101 -0.2988 -0.2801
 3810G1FFO Tail45428  14.203  19.008  21.470 -0.1069  0.0063 -0.1289
 3810G1FFO Tail45429  14.322  18.678  21.495  0.0713 -0.0344  0.3048
 3810G1FFO Tail45430  14.232  18.496  21.334 -0.2320 -0.1567  0.1201
 3810G1FFO Tail45431  14.303  18.247  21.381 -0.0004 -0.3379 -0.1324
 3810G1FFO Tail45432  14.418  18.018  21.400 -0.0737  0.1743  0.1024
 3810G1FFO Tail45433  14.485  17.794  21.392 -0.1220 -0.1955 -0.0537
 3810G1FFO Tail45434  14.510  19.150  21.397  0.5664  0.2998 -0.0602
 3810G1FFO Tail45435  14.552  19.408  21.368 -0.3978 -0.0346  0.0931
 3810G1FFO Tail45436  14.808  19.493  21.372  0.4341  0.1479 -0.0177
 3810G1FFO Tail45437  15.057  19.532  21.363 -0.0092 -0.1276 -0.2534
 3810G1FFO Tail45438  15.272  19.568  21.296  0.1632 -0.2112  0.0538
 3811G1FFO Head45439  15.869  20.312  18.657  0.2001  0.6930 -0.1895
 3811G1FFO Head45440  15.769  20.029  18.703 -0.0718  0.3593  0.1540
 3811G1FFO Head45441  15.465  19.925  18.056 -0.4982  0.0275  0.2165
 3811G1FFO Head45442  15.659  20.014  18.317 -0.3184 -0.0608  0.2162
 3811G1FFO link45443  15.693  19.864  18.508  0.0911  0.0081 -0.9001
 3811G1FFO link45444  15.610  19.594  18.559 -0.1080  0.0755  0.0439
 3811G1FFO Tail45445  15.783  19.327  18.453 -0.0570 -0.1582 -0.2558
 3811G1FFO Tail45446  15.531  19.097  18.418  0.0431  0.2156  0.2550
 3811G1FFO Tail45447  15.574  18.845  18.449  0.1348 -0.2291  0.0553
 3811G1FFO Tail45448  15.813  18.765  18.522 -0.0683 -0.2931  0.0147
 3811G1FFO Tail45449  16.048  18.730  18.627  0.2100  0.3079 -0.1988
 3811G1FFO Tail45450  16.220  18.671  18.780 -0.0512  0.1227 -0.0454
 3811G1FFO Tail45451  15.960  19.248  18.750 -0.1527  0.0151  0.2418
 3811G1FFO Tail45452  15.842  19.243  18.978  0.2293  0.0881 -0.2371
 3811G1FFO Tail45453  15.586  19.307  18.991  0.4111 -0.0832  0.0591
 3811G1FFO Tail45454  15.335  19.360  18.984  0.1492 -0.0072  0.2261
 3811G1FFO Tail45455  15.112  19.381  18.909  0.1170 -0.1773 -0.0307
 3812G1FFO Head45456  18.187  17.040  22.160  0.3095  0.2502  0.1300
 3812G1FFO Head45457  18.133  17.012  22.440  0.0607 -0.5075  0.0342
 3812G1FFO Head45458  17.652  17.286  22.152  0.1524 -0.1152 -0.5507
 3812G1FFO Head45459  17.734  17.027  22.359  0.0572 -0.2910  0.4002
 3812G1FFO link45460  17.903  17.062  22.546  0.4996 -0.1214  0.4104
 3812G1FFO link45461  17.828  17.050  22.819  0.4775  0.3182  0.0272
 3812G1FFO Tail45462  17.897  17.264  23.038  0.0262  0.3187 -0.5145
 3812G1FFO Tail45463  17.929  17.067  23.341  0.2484  0.4339  0.0480
 3812G1FFO Tail45464  17.788  17.120  23.566 -0.4476  0.1113  0.3555
 3812G1FFO Tail45465  17.688  16.932  23.702  0.2181  0.1749  0.1809
 3812G1FFO Tail45466  17.596  16.757  23.861 -0.0049  0.1083 -0.0813
 3812G1FFO Tail45467  17.459  16.615  23.976  0.0443 -0.1278  0.1242
 3812G1FFO Tail45468  17.592  17.412  23.086 -0.0167  0.4056 -0.0518
 3812G1FFO Tail45469  17.529  17.644  22.982 -0.0455 -0.0217  0.1635
 3812G1FFO Tail45470  17.443  17.827  23.147  0.1428  0.2632  0.1788
 3812G1FFO Tail45471  17.333  17.986  23.313  0.0354 -0.0070  0.1268
 3812G1FFO Tail45472  17.289  18.119  23.502  0.3843 -0.2180  0.0501
 3813G1FFO Head45473  14.073  15.700  18.711 -0.0110 -0.5439  0.0008
 3813G1FFO Head45474  13.955  15.570  18.975 -0.3854 -0.0860  0.2970
 3813G1FFO Head45475  14.061  15.086  19.089 -0.3096  0.2849 -0.3893
 3813G1FFO Head45476  14.095  15.330  19.290  0.2379 -0.0614  0.0659
 3813G1FFO link45477  14.082  15.585  19.206 -0.1892  0.3973 -0.4136
 3813G1FFO link45478  14.227  15.791  19.345 -0.2024 -0.0260 -0.5527
 3813G1FFO Tail45479  14.224  16.103  19.224  0.2409  0.0392 -0.1072
 3813G1FFO Tail45480  14.458  16.058  18.948  0.0374  0.0507 -0.0443
 3813G1FFO Tail45481  14.464  15.845  18.810  0.0952  0.5052  0.1868
 3813G1FFO Tail45482  14.469  15.616  18.933  0.1392 -0.1419 -0.1008
 3813G1FFO Tail45483  14.452  15.382  19.016 -0.2489  0.0425 -0.0189
 3813G1FFO Tail45484  14.474  15.189  19.147 -0.3492  0.2426 -0.0368
 3813G1FFO Tail45485  14.400  16.279  19.442 -0.0884  0.1679 -0.0409
 3813G1FFO Tail45486  14.453  16.204  19.689 -0.0051 -0.0852  0.5625
 3813G1FFO Tail45487  14.711  16.185  19.763  0.2219  0.3131  0.0139
 3813G1FFO Tail45488  14.961  16.178  19.807  0.0205 -0.0143  0.0664
 3813G1FFO Tail45489  15.190  16.241  19.857  0.1570 -0.1384  0.4203
 3814G1FFO Head45490  18.066  13.588  22.921 -0.2553 -0.0542 -0.1136
 3814G1FFO Head45491  18.115  13.869  23.077 -0.1325 -0.2273 -0.1081
 3814G1FFO Head45492  17.895  14.446  23.178  0.0658 -0.1522 -0.3975
 3814G1FFO Head45493  18.149  14.279  23.124 -0.1364  0.2394  0.0096
 3814G1FFO link45494  18.117  14.100  22.957  0.4045  0.3587 -0.2297
 3814G1FFO link45495  18.052  14.125  22.678  0.3570 -0.1769 -0.4947
 3814G1FFO Tail45496  18.226  14.346  22.486  0.4437  0.0408  0.3051
 3814G1FFO Tail45497  18.031  14.368  22.192  0.1993 -0.3572 -0.3054
 3814G1FFO Tail45498  18.142  14.476  21.979 -0.1649  0.1252 -0.0911
 3814G1FFO Tail45499  18.407  14.485  21.990 -0.2199 -0.1584 -0.1995
 3814G1FFO Tail45500  18.649  14.509  22.047 -0.2394 -0.0332  0.1267
 3814G1FFO Tail45501  18.877  14.507  22.021 -0.4859  0.2679  0.3025
 3814G1FFO Tail45502  18.453  14.123  22.360 -0.2950  0.0697  0.0662
 3814G1FFO Tail45503  18.703  14.139  22.439 -0.1449 -0.0431  0.0215
 3814G1FFO Tail45504  18.877  14.125  22.258 -0.0007 -0.2754  0.5206
 3814G1FFO Tail45505  19.013  14.090  22.043 -0.0071  0.0523  0.1750
 3814G1FFO Tail45506  19.079  14.017  21.831 -0.1507 -0.2456  0.1119
 3815G1FFO Head45507  17.122  19.060  19.637 -0.3048 -0.0924 -0.0777
 3815G1FFO Head45508  17.082  18.801  19.800 -0.0422  0.2293 -0.2909
 3815G1FFO Head45509  17.486  18.593  19.978 -0.2254 -0.0806  0.1344
 3815G1FFO Head45510  17.334  18.475  19.737 -0.0692 -0.0388  0.1801
 3815G1FFO link45511  17.113  18.555  19.680 -0.0692  0.0391 -0.3165
 3815G1FFO link45512  16.936  18.409  19.510  0.0100 -0.2145  0.1817
 3815G1FFO Tail45513  16.953  18.095  19.409 -0.1861  0.0416 -0.0830
 3815G1FFO Tail45514  16.778  17.931  19.646 -0.1094  0.0527 -0.0464
 3815G1FFO Tail45515  16.601  18.078  19.756 -0.0066  0.1081  0.4059
 3815G1FFO Tail45516  16.451  18.215  19.591 -0.1012  0.0755  0.2830
 3815G1FFO Tail45517  16.301  18.305  19.409  0.2804 -0.0161  0.2446
 3815G1FFO Tail45518  16.113  18.387  19.294  0.4799 -0.0208  0.0134
 3815G1FFO Tail45519  17.293  17.997  19.445  0.2296 -0.2272 -0.0204
 3815G1FFO Tail45520  17.444  18.093  19.650 -0.0376 -0.0208 -0.0027
 3815G1FFO Tail45521  17.680  18.180  19.612  0.0513 -0.1239 -0.1550
 3815G1FFO Tail45522  17.926  18.232  19.604 -0.2279 -0.1149  0.0804
 3815G1FFO Tail45523  18.130  18.347  19.601  0.1853  0.0870 -0.0025
 3816G1FFO Head45524  16.580  14.420  23.559 -0.1954 -0.1073  0.2427
 3816G1FFO Head45525  16.854  14.491  23.370 -0.2885  0.3316 -0.2514
 3816G1FFO Head45526  16.960  14.672  23.830  0.0364 -0.3310  0.1598
 3816G1FFO Head45527  17.043  14.793  23.549 -0.0247 -0.1946 -0.3631
 3816G1FFO link45528  16.929  14.723  23.340  0.0953 -0.1203  0.4549
 3816G1FFO link45529  16.929  14.877  23.097 -0.2455 -0.0044 -0.3592
 3816G1FFO Tail45530  17.103  15.151  23.075  0.0454 -0.3463  0.1142
 3816G1FFO Tail45531  17.222  15.124  22.765  0.0272  0.0736 -0.3435
 3816G1FFO Tail45532  17.070  15.021  22.579 -0.2038 -0.0375  0.1187
 3816G1FFO Tail45533  17.113  15.101  22.330  0.1609  0.3179  0.0815
 3816G1FFO Tail45534  17.177  15.169  22.101 -0.0152  0.1942 -0.1336
 3816G1FFO Tail45535  17.213  15.175  21.867 -0.1162  0.1570 -0.1269
 3816G1FFO Tail45536  17.355  15.076  23.278  0.2861 -0.0557 -0.0825
 3816G1FFO Tail45537  17.548  15.252  23.324 -0.0552  0.1761 -0.1969
 3816G1FFO Tail45538  17.509  15.510  23.306  0.2611  0.0592  0.1975
 3816G1FFO Tail45539  17.472  15.770  23.328 -0.1635  0.3047 -0.0575
 3816G1FFO Tail45540  17.508  15.998  23.389  0.0669  0.0043 -0.1722
 3817G1FFO Head45541  16.745  19.880  24.577 -0.1598  0.0149  0.2238
 3817G1FFO Head45542  16.707  19.838  24.246 -0.2013 -0.0259 -0.1262
 3817G1FFO Head45543  16.772  20.499  23.985  0.2085  0.4211 -0.0002
 3817G1FFO Head45544  16.790  20.217  24.195 -0.1591 -0.2360  0.2017
 3817G1FFO link45545  16.789  19.995  24.077 -0.2583 -0.0249  0.0923
 3817G1FFO link45546  16.859  19.949  23.794 -0.1536  0.1036  0.0287
 3817G1FFO Tail45547  17.122  20.073  23.630 -0.3247 -0.1659 -0.4872
 3817G1FFO Tail45548  17.106  19.875  23.366  0.0309  0.0112 -0.1129
 3817G1FFO Tail45549  16.937  19.676  23.342 -0.3975  0.0578  0.2400
 3817G1FFO Tail45550  16.686  19.726  23.386 -0.2356  0.0310  0.0037
 3817G1FFO Tail45551  16.453  19.773  23.472 -0.2563  0.0743  0.0562
 3817G1FFO Tail45552  16.240  19.766  23.546  0.2711  0.0237  0.2962
 3817G1FFO Tail45553  17.374  19.866  23.801 -0.1309  0.2458 -0.4243
 3817G1FFO Tail45554  17.581  19.970  23.904  0.4389 -0.1078 -0.0794
 3817G1FFO Tail45555  17.806  19.931  23.778 -0.3187  0.0771  0.2191
 3817G1FFO Tail45556  17.999  19.846  23.634  0.0053 -0.1478 -0.0790
 3817G1FFO Tail45557  18.134  19.745  23.470 -0.1982  0.0256 -0.2395
 3818G1FFO Head45558  18.317  14.900  18.389  0.1024 -0.2073  0.0747
 3818G1FFO Head45559  18.507  14.846  18.577 -0.1301  0.5150 -0.1413
 3818G1FFO Head45560  18.114  14.727  19.057  0.1559 -0.1148 -0.0319
 3818G1FFO Head45561  18.262  14.943  18.923 -0.0939 -0.1676  0.1590
 3818G1FFO link45562  18.486  14.912  18.842 -0.0547 -0.0438 -0.2402
 3818G1FFO link45563  18.694  14.863  19.036  0.0006 -0.1631  0.1205
 3818G1FFO Tail45564  18.624  14.705  19.316  0.3924 -0.0936  0.0024
 3818G1FFO Tail45565  18.614  14.981  19.521  0.0231 -0.1540  0.0453
 3818G1FFO Tail45566  18.407  15.075  19.646 -0.0799 -0.2658  0.3145
 3818G1FFO Tail45567  18.168  14.991  19.596 -0.1067 -0.0190  0.2178
 3818G1FFO Tail45568  17.928  14.917  19.562  0.1154 -0.1187 -0.2068
 3818G1FFO Tail45569  17.698  14.870  19.596 -0.0795  0.0013  0.1921
 3818G1FFO Tail45570  18.940  14.553  19.421  0.1210  0.0968  0.2034
 3818G1FFO Tail45571  19.006  14.558  19.678 -0.4008  0.1367 -0.0402
 3818G1FFO Tail45572  19.055  14.799  19.784  0.0482  0.3337 -0.0756
 3818G1FFO Tail45573  19.133  15.024  19.875  0.1189 -0.2220  0.1242
 3818G1FFO Tail45574  19.138  15.239  19.963 -0.2856 -0.2030  0.1733
 3819G1FFO Head45575  19.001  19.988  20.416 -0.3715  0.1159 -0.1899
 3819G1FFO Head45576  18.712  19.996  20.321  0.5231 -0.2241  0.0977
 3819G1FFO Head45577  18.817  20.412  20.129  0.2700 -0.1646  0.0303
 3819G1FFO Head45578  18.775  20.184  19.959 -0.1071  0.1184 -0.1034
 3819G1FFO link45579  18.655  19.984  20.062 -0.5945 -0.2151 -0.1229
 3819G1FFO link45580  18.480  19.808  19.931  0.0907  0.2668 -0.2540
 3819G1FFO Tail45581  18.285  19.621  20.118 -0.1873  0.1081  0.2438
 3819G1FFO Tail45582  18.070  19.884  20.240 -0.0478  0.3344 -0.1588
 3819G1FFO Tail45583  18.090  19.983  20.490 -0.2895 -0.0454  0.1901
 3819G1FFO Tail45584  17.973  19.849  20.662  0.1632 -0.2550 -0.0773
 3819G1FFO Tail45585  17.839  19.694  20.806  0.0208 -0.2017 -0.0408
 3819G1FFO Tail45586  17.672  19.560  20.911  0.0178 -0.3179  0.1322
 3819G1FFO Tail45587  18.469  19.592  20.395  0.0305  0.1802  0.1626
 3819G1FFO Tail45588  18.380  19.529  20.635 -0.3528 -0.2505 -0.0128
 3819G1FFO Tail45589  18.518  19.378  20.788  0.0497  0.1671  0.0791
 3819G1FFO Tail45590  18.633  19.221  20.957  0.1154 -0.1979  0.0124
 3819G1FFO Tail45591  18.786  19.093  21.082 -0.1297  0.0033 -0.1235
 3820G1FFO Head45592  14.867  15.265  17.553  0.1616 -0.0481  0.1472
 3820G1FFO Head45593  15.003  15.552  17.684 -0.1790  0.1901  0.2737
 3820G1FFO Head45594  14.655  15.566  18.286  0.0187 -0.1962  0.1651
 3820G1FFO Head45595  14.820  15.471  18.020 -0.1855  0.2744  0.2839
 3820G1FFO link45596  14.918  15.645  17.895  0.3904 -0.1112 -0.6661
 3820G1FFO link45597  15.051  15.873  18.017  0.1647 -0.1959 -0.2256
 3820G1FFO Tail45598  15.351  15.985  17.942  0.2041  0.0689  0.1056
 3820G1FFO Tail45599  15.573  15.694  18.039 -0.1555 -0.1953 -0.0628
 3820G1FFO Tail45600  15.735  15.719  18.250  0.2188 -0.1259  0.1671
 3820G1FFO Tail45601  15.619  15.799  18.476 -0.1384  0.0377 -0.1594
 3820G1FFO Tail45602  15.484  15.842  18.688 -0.0060 -0.0070 -0.0730
 3820G1FFO Tail45603  15.310  15.897  18.844  0.1625  0.2289  0.2604
 3820G1FFO Tail45604  15.413  16.188  18.207  0.0455  0.3498 -0.0822
 3820G1FFO Tail45605  15.192  16.283  18.333 -0.0622 -0.0831 -0.2016
 3820G1FFO Tail45606  15.242  16.317  18.591  0.0647 -0.0049 -0.0084
 3820G1FFO Tail45607  15.327  16.353  18.825 -0.1369  0.1980 -0.2224
 3820G1FFO Tail45608  15.368  16.366  19.060 -0.1847 -0.0175  0.2074
 3821G1FFO Head45609  18.692  14.879  23.902  0.4085 -0.3945  0.3428
 3821G1FFO Head45610  18.586  14.807  23.642  0.1271  0.1977  0.2416
 3821G1FFO Head45611  18.182  14.393  23.633 -0.0218  0.1114 -0.2905
 3821G1FFO Head45612  18.204  14.732  23.704  0.0205  0.3186 -0.0188
 3821G1FFO link45613  18.354  14.874  23.555  0.0499  0.2362 -0.0482
 3821G1FFO link45614  18.296  14.876  23.271 -0.3362  0.0861  0.0411
 3821G1FFO Tail45615  18.132  15.117  23.121  0.0244 -0.2968 -0.0933
 3821G1FFO Tail45616  18.047  15.314  23.386  0.0334 -0.3896  0.0449
 3821G1FFO Tail45617  17.882  15.233  23.580 -0.1657  0.0608  0.0556
 3821G1FFO Tail45618  17.819  14.978  23.563  0.0512 -0.0856  0.0160
 3821G1FFO Tail45619  17.723  14.742  23.580 -0.0093  0.0948 -0.0877
 3821G1FFO Tail45620  17.707  14.507  23.581 -0.1003  0.0502 -0.3694
 3821G1FFO Tail45621  17.842  14.950  23.088  0.2288 -0.1678  0.1215
 3821G1FFO Tail45622  17.671  15.057  22.909  0.0438  0.2840 -0.0890
 3821G1FFO Tail45623  17.699  15.311  22.889  0.1103  0.1051 -0.0667
 3821G1FFO Tail45624  17.728  15.557  22.900 -0.3008 -0.1309 -0.1542
 3821G1FFO Tail45625  17.694  15.792  22.901  0.1322 -0.1049  0.0048
 3822G1FFO Head45626  19.015  20.157  21.612  0.2342 -0.3891  0.0562
 3822G1FFO Head45627  19.051  19.854  21.533  0.5899 -0.0428 -0.2207
 3822G1FFO Head45628  19.472  19.886  21.780  0.0431  0.2739  0.0952
 3822G1FFO Head45629  19.318  19.622  21.700 -0.1707  0.2167 -0.2011
 3822G1FFO link45630  19.069  19.627  21.701 -0.1264 -0.6718  0.0561
 3822G1FFO link45631  18.881  19.413  21.741  0.0731 -0.2557  0.0046
 3822G1FFO Tail45632  18.945  19.169  21.943 -0.4869  0.1505 -0.2829
 3822G1FFO Tail45633  19.271  19.240  21.996 -0.3303 -0.0161  0.0531
 3822G1FFO Tail45634  19.394  19.321  22.220  0.1263 -0.2177 -0.1423
 3822G1FFO Tail45635  19.400  19.586  22.251 -0.0521  0.3201  0.2622
 3822G1FFO Tail45636  19.390  19.828  22.324  0.0401 -0.0172  0.0462
 3822G1FFO Tail45637  19.365  20.023  22.440 -0.2736 -0.3881 -0.1504
 3822G1FFO Tail45638  18.991  18.911  21.704  0.2729 -0.1153  0.1839
 3822G1FFO Tail45639  18.797  18.779  21.581  0.2532 -0.0793 -0.0979
 3822G1FFO Tail45640  18.706  18.559  21.699  0.1905 -0.0852  0.2216
 3822G1FFO Tail45641  18.596  18.375  21.830 -0.0211 -0.1715 -0.0914
 3822G1FFO Tail45642  18.565  18.198  21.975  0.4213  0.1039 -0.1089
 3823G1FFO Head45643  15.855  17.828  18.087 -0.1198 -0.0497  0.0851
 3823G1FFO Head45644  15.599  17.667  18.005 -0.0810 -0.0511  0.2710
 3823G1FFO Head45645  15.710  17.397  17.415  0.3250  0.2880  0.2092
 3823G1FFO Head45646  15.784  17.486  17.705  0.0488  0.1102 -0.0973
 3823G1FFO link45647  15.648  17.417  17.895  0.6343  0.2424 -0.1460
 3823G1FFO link45648  15.636  17.178  18.043  0.1429  0.3328  0.2607
 3823G1FFO Tail45649  15.631  17.183  18.362  0.1915  0.1191 -0.1070
 3823G1FFO Tail45650  15.423  17.445  18.458  0.2689  0.1947  0.3706
 3823G1FFO Tail45651  15.384  17.485  18.713 -0.0859  0.1957 -0.0315
 3823G1FFO Tail45652  15.594  17.399  18.838  0.2163  0.1664 -0.1143
 3823G1FFO Tail45653  15.808  17.325  18.963  0.2078 -0.0328 -0.0193
 3823G1FFO Tail45654  16.016  17.232  19.029 -0.0900 -0.0618 -0.3501
 3823G1FFO Tail45655  15.923  17.365  18.462 -0.0890  0.2091 -0.0218
 3823G1FFO Tail45656  16.129  17.267  18.611 -0.3950 -0.0906 -0.1651
 3823G1FFO Tail45657  16.286  17.428  18.758  0.1887  0.0362 -0.0393
 3823G1FFO Tail45658  16.458  17.579  18.866 -0.3343  0.1736  0.0390
 3823G1FFO Tail45659  16.599  17.751  18.930 -0.1063 -0.1836 -0.0048
 3824G1FFO Head45660  20.871  18.286  23.281 -0.4002  0.1272 -0.0213
 3824G1FFO Head45661  20.586  18.380  23.200 -0.1523  0.2057  0.0083
 3824G1FFO Head45662  20.705  17.905  22.972 -0.2299  0.0426 -0.0898
 3824G1FFO Head45663  20.649  18.170  22.836 -0.4398  0.2738 -0.1791
 3824G1FFO link45664  20.488  18.340  22.954  0.3760 -0.2834  0.1881
 3824G1FFO link45665  20.251  18.471  22.834 -0.4762  0.0393 -0.1031
 3824G1FFO Tail45666  20.017  18.278  22.701  0.4561  0.2657 -0.2449
 3824G1FFO Tail45667  20.078  17.989  22.883  0.1508 -0.0075 -0.0506
 3824G1FFO Tail45668  20.278  17.834  22.820 -0.0674 -0.0178 -0.0125
 3824G1FFO Tail45669  20.246  17.589  22.877 -0.2309 -0.2088  0.1124
 3824G1FFO Tail45670  20.258  17.351  22.957  0.1576 -0.1372  0.2021
 3824G1FFO Tail45671  20.202  17.142  23.034 -0.0805 -0.1323 -0.0748
 3824G1FFO Tail45672  20.141  18.196  22.392  0.1583 -0.0474  0.5453
 3824G1FFO Tail45673  20.130  18.336  22.176  0.1437  0.2768  0.0939
 3824G1FFO Tail45674  19.945  18.526  22.173  0.1263  0.1217 -0.0829
 3824G1FFO Tail45675  19.759  18.696  22.158  0.0321 -0.3221 -0.2025
 3824G1FFO Tail45676  19.625  18.895  22.110  0.1647  0.4921 -0.1915
 3825G1FFO Head45677  18.561  18.792  24.572 -0.1456 -0.0200 -0.0770
 3825G1FFO Head45678  18.386  18.766  24.303  0.1999 -0.3492  0.0725
 3825G1FFO Head45679  18.708  18.427  24.131 -0.3051 -0.0730  0.0419
 3825G1FFO Head45680  18.622  18.715  23.997  0.2190  0.0041 -0.2563
 3825G1FFO link45681  18.474  18.876  24.098 -0.0998 -0.4711 -0.3050
 3825G1FFO link45682  18.373  19.115  23.979 -0.3622 -0.0244 -0.4367
 3825G1FFO Tail45683  18.190  19.092  23.716  0.1477  0.3077  0.0762
 3825G1FFO Tail45684  18.342  18.813  23.566 -0.1221  0.1103  0.3989
 3825G1FFO Tail45685  18.588  18.826  23.500 -0.4152 -0.1213 -0.1946
 3825G1FFO Tail45686  18.732  18.982  23.646 -0.0089  0.2481  0.2020
 3825G1FFO Tail45687  18.869  19.123  23.810 -0.0976  0.0752  0.1730
 3825G1FFO Tail45688  18.962  19.294  23.934  0.1489  0.2541 -0.0921
 3825G1FFO Tail45689  18.321  19.317  23.523 -0.2741 -0.3180  0.1509
 3825G1FFO Tail45690  18.526  19.283  23.358 -0.0829 -0.0298  0.1065
 3825G1FFO Tail45691  18.744  19.399  23.430 -0.0050 -0.2376  0.0443
 3825G1FFO Tail45692  18.939  19.540  23.527 -0.2311 -0.2299 -0.1479
 3825G1FFO Tail45693  19.085  19.686  23.658  0.0618  0.1183  0.0140
 3826G1FFO Head45694  15.365  16.227  20.247  0.2357  0.4915  0.0735
 3826G1FFO Head45695  15.099  16.181  20.428 -0.6291  0.0573  0.2988
 3826G1FFO Head45696  14.777  16.598  20.417  0.0833  0.2827  0.2062
 3826G1FFO Head45697  14.716  16.330  20.442 -0.1745 -0.0084 -0.1967
 3826G1FFO link45698  14.860  16.147  20.324  0.1876  0.5002 -0.2797
 3826G1FFO link45699  14.756  15.907  20.210 -0.2121  0.0326  0.1936
 3826G1FFO Tail45700  14.441  15.835  20.195  0.1933  0.2004 -0.0416
 3826G1FFO Tail45701  14.430  15.504  20.285  0.0363 -0.1164  0.4957
 3826G1FFO Tail45702  14.380  15.317  20.099 -0.1146 -0.0844  0.3091
 3826G1FFO Tail45703  14.214  15.375  19.907  0.0039  0.0129 -0.0667
 3826G1FFO Tail45704  14.043  15.443  19.740  0.0506  0.1180  0.1948
 3826G1FFO Tail45705  13.880  15.558  19.616 -0.0335  0.2397  0.1375
 3826G1FFO Tail45706  14.319  15.951  20.514 -0.3392  0.1064  0.0903
 3826G1FFO Tail45707  14.141  16.135  20.538  0.2354  0.0776  0.0754
 3826G1FFO Tail45708  13.889  16.089  20.564  0.2498 -0.0439 -0.1864
 3826G1FFO Tail45709  13.642  16.006  20.586  0.1137  0.2952  0.1222
 3826G1FFO Tail45710  13.458  15.868  20.628 -0.2818  0.2509 -0.0228
 3827G1FFO Head45711  17.189  17.736  21.802 -0.0004  0.2841 -0.2012
 3827G1FFO Head45712  17.372  17.990  21.687 -0.1415  0.4314  0.0670
 3827G1FFO Head45713  17.546  17.602  21.504  0.2806 -0.0218  0.2416
 3827G1FFO Head45714  17.730  17.825  21.656  0.2245  0.4646 -0.3394
 3827G1FFO link45715  17.615  18.015  21.756  0.4140  0.0834 -0.0143
 3827G1FFO link45716  17.719  18.205  21.938  0.0468  0.0727  0.1010
 3827G1FFO Tail45717  17.487  18.387  22.095  0.3366 -0.1879 -0.0926
 3827G1FFO Tail45718  17.233  18.146  22.098 -0.0498 -0.3837  0.0946
 3827G1FFO Tail45719  17.196  17.944  22.246  0.2726 -0.0949  0.2589
 3827G1FFO Tail45720  17.157  17.981  22.496  0.2887  0.1038  0.4602
 3827G1FFO Tail45721  17.084  18.041  22.716  0.2778 -0.1406 -0.1405
 3827G1FFO Tail45722  17.034  18.044  22.954  0.0164 -0.0964  0.2718
 3827G1FFO Tail45723  17.619  18.391  22.431 -0.0273  0.0801 -0.1206
 3827G1FFO Tail45724  17.509  18.234  22.614  0.3773  0.2999  0.0867
 3827G1FFO Tail45725  17.628  18.236  22.844  0.1697 -0.1229  0.1525
 3827G1FFO Tail45726  17.732  18.208  23.077 -0.1519  0.2085 -0.2415
 3827G1FFO Tail45727  17.780  18.143  23.299  0.2314 -0.1427  0.1058
 3828G1FFO Head45728  16.594  15.625  23.707  0.0523 -0.0283  0.2317
 3828G1FFO Head45729  16.857  15.648  23.648 -0.3276 -0.0112  0.3640
 3828G1FFO Head45730  16.925  15.638  24.167 -0.1492  0.1549 -0.3270
 3828G1FFO Head45731  16.885  15.860  23.978 -0.2721 -0.5481 -0.2613
 3828G1FFO link45732  16.988  15.854  23.751 -0.0008 -0.0416  0.0793
 3828G1FFO link45733  17.137  16.056  23.597 -0.0429  0.1417  0.3910
 3828G1FFO Tail45734  17.274  16.308  23.756  0.0025  0.1327 -0.1731
 3828G1FFO Tail45735  17.597  16.193  23.751 -0.1512  0.1002 -0.1871
 3828G1FFO Tail45736  17.811  16.344  23.787  0.2267 -0.1233  0.1970
 3828G1FFO Tail45737  17.874  16.494  23.578 -0.0440  0.1202  0.0463
 3828G1FFO Tail45738  17.972  16.605  23.365  0.1412 -0.0043 -0.0115
 3828G1FFO Tail45739  18.058  16.645  23.153  0.1001 -0.0429  0.0579
 3828G1FFO Tail45740  17.193  16.213  24.090  0.0118  0.0903 -0.0242
 3828G1FFO Tail45741  17.379  16.192  24.269  0.0909 -0.2627  0.1650
 3828G1FFO Tail45742  17.462  15.956  24.334  0.1884 -0.0047  0.1339
 3828G1FFO Tail45743  17.518  15.732  24.421 -0.0808 -0.2822  0.0950
 3828G1FFO Tail45744  17.601  15.516  24.434 -0.1175  0.0864  0.0948
 3829G1FFO Head45745  14.910  16.355  19.056 -0.4709 -0.3750 -0.1186
 3829G1FFO Head45746  14.840  16.345  19.362 -0.1177 -0.0385 -0.0912
 3829G1FFO Head45747  14.594  16.747  19.576  0.0614 -0.0770  0.0358
 3829G1FFO Head45748  14.840  16.593  19.684  0.4667  0.0498  0.0780
 3829G1FFO link45749  14.992  16.458  19.532  0.1272 -0.3400 -0.3057
 3829G1FFO link45750  15.260  16.533  19.464 -0.1082  0.0381 -0.1479
 3829G1FFO Tail45751  15.485  16.568  19.708 -0.0974 -0.1483  0.1018
 3829G1FFO Tail45752  15.505  16.918  19.751  0.3796  0.3697 -0.1481
 3829G1FFO Tail45753  15.680  17.035  19.904  0.1296  0.0719  0.2264
 3829G1FFO Tail45754  15.701  17.304  19.891 -0.0945 -0.1197  0.0803
 3829G1FFO Tail45755  15.733  17.558  19.909 -0.1177 -0.0709 -0.0098
 3829G1FFO Tail45756  15.697  17.795  19.963  0.2444  0.1139 -0.0762
 3829G1FFO Tail45757  15.774  16.529  19.543 -0.3180 -0.3715 -0.1292
 3829G1FFO Tail45758  15.796  16.595  19.283 -0.1939 -0.0031 -0.3044
 3829G1FFO Tail45759  16.037  16.640  19.203 -0.0462  0.3470 -0.1516
 3829G1FFO Tail45760  16.276  16.643  19.154  0.0622 -0.1071 -0.0761
 3829G1FFO Tail45761  16.506  16.668  19.171 -0.0388 -0.0339 -0.2356
 3830G1FFO Head45762  20.469  15.975  23.419  0.3826  0.3080  0.1477
 3830G1FFO Head45763  20.260  16.204  23.441 -0.3449  0.2945 -0.1671
 3830G1FFO Head45764  20.596  16.529  23.831 -0.1554 -0.4252 -0.1942
 3830G1FFO Head45765  20.538  16.412  23.596 -0.6762  0.0206 -0.0159
 3830G1FFO link45766  20.314  16.431  23.492 -0.3052  0.3552  0.1269
 3830G1FFO link45767  20.130  16.643  23.498 -0.3664  0.0957  0.2647
 3830G1FFO Tail45768  19.822  16.545  23.413 -0.1156 -0.4729 -0.1071
 3830G1FFO Tail45769  19.895  16.285  23.201  0.0701 -0.2334 -0.1385
 3830G1FFO Tail45770  19.895  16.039  23.290  0.3678  0.3941  0.4780
 3830G1FFO Tail45771  19.931  15.844  23.120  0.0578 -0.0305  0.0082
 3830G1FFO Tail45772  20.027  15.675  22.956 -0.0363 -0.2063 -0.1337
 3830G1FFO Tail45773  20.150  15.563  22.786 -0.0441 -0.2500 -0.2753
 3830G1FFO Tail45774  19.738  16.784  23.169  0.1729 -0.3225  0.2165
 3830G1FFO Tail45775  19.690  17.043  23.210 -0.1020  0.0690  0.2107
 3830G1FFO Tail45776  19.447  17.129  23.162 -0.3785 -0.0033  0.3280
 3830G1FFO Tail45777  19.219  17.250  23.141  0.0806  0.0469  0.1873
 3830G1FFO Tail45778  19.034  17.367  23.061 -0.1172  0.0376 -0.1041
 3831G1FFO Head45779  17.023  12.191  20.082  0.0281  0.3117 -0.0577
 3831G1FFO Head45780  16.932  12.491  20.007  0.2877  0.1803 -0.0240
 3831G1FFO Head45781  16.486  12.246  19.977 -0.1630  0.0970 -0.2095
 3831G1FFO Head45782  16.554  12.504  19.832  0.1856 -0.2452  0.3074
 3831G1FFO link45783  16.784  12.543  19.775 -0.2038 -0.3616 -0.3146
 3831G1FFO link45784  16.889  12.606  19.513 -0.2342  0.0219 -0.0118
 3831G1FFO Tail45785  16.700  12.682  19.244  0.3913  0.0055 -0.5636
 3831G1FFO Tail45786  16.834  12.987  19.188 -0.1405 -0.0173 -0.1491
 3831G1FFO Tail45787  16.976  13.112  19.370 -0.1715  0.0315 -0.3280
 3831G1FFO Tail45788  16.920  13.077  19.621  0.0301  0.1635  0.1566
 3831G1FFO Tail45789  16.813  13.024  19.847  0.1918 -0.1185  0.2276
 3831G1FFO Tail45790  16.718  12.907  20.034 -0.3802  0.1918 -0.2093
 3831G1FFO Tail45791  16.417  12.786  19.405 -0.1765 -0.0034  0.1790
 3831G1FFO Tail45792  16.410  12.951  19.604  0.1740 -0.2093  0.3886
 3831G1FFO Tail45793  16.334  12.871  19.829 -0.0008 -0.1309 -0.0220
 3831G1FFO Tail45794  16.292  12.780  20.064 -0.1526 -0.2457 -0.2788
 3831G1FFO Tail45795  16.300  12.656  20.272 -0.2465  0.0332  0.1456
 3832G1FFO Head45796  15.200  14.884  22.706  0.1209  0.0348  0.0477
 3832G1FFO Head45797  15.465  14.937  22.613 -0.1816 -0.0908  0.0941
 3832G1FFO Head45798  15.357  14.513  22.992 -0.4976  0.0701  0.4077
 3832G1FFO Head45799  15.477  14.560  22.714  0.1711  0.1815 -0.0750
 3832G1FFO link45800  15.634  14.760  22.661 -0.1563  0.7000 -0.4037
 3832G1FFO link45801  15.916  14.760  22.670  0.2708 -0.1851  0.2968
 3832G1FFO Tail45802  16.081  15.028  22.600  0.3629 -0.6300  0.6259
 3832G1FFO Tail45803  15.871  15.288  22.713  0.2204 -0.0118 -0.1101
 3832G1FFO Tail45804  15.843  15.505  22.582 -0.1254 -0.0406  0.1239
 3832G1FFO Tail45805  16.026  15.552  22.400  0.2843  0.1453  0.5286
 3832G1FFO Tail45806  16.214  15.594  22.238 -0.0186 -0.0851 -0.2432
 3832G1FFO Tail45807  16.373  15.587  22.065 -0.0384  0.1927 -0.0553
 3832G1FFO Tail45808  16.025  15.034  22.255  0.2856 -0.1706 -0.1881
 3832G1FFO Tail45809  15.821  15.175  22.155 -0.1466  0.1135 -0.0340
 3832G1FFO Tail45810  15.636  15.245  22.314 -0.0588 -0.0892 -0.3630
 3832G1FFO Tail45811  15.466  15.358  22.467 -0.0720  0.2016 -0.0204
 3832G1FFO Tail45812  15.270  15.446  22.575 -0.0122  0.0039  0.0828
 3833G1FFO Head45813  21.407  15.319  21.796  0.1330 -0.4643 -0.4711
 3833G1FFO Head45814  21.297  15.093  21.619  0.1714  0.2353  0.4667
 3833G1FFO Head45815  21.469  15.186  20.952 -0.1506 -0.0015 -0.0233
 3833G1FFO Head45816  21.370  15.292  21.244 -0.1131 -0.0296 -0.0007
 3833G1FFO link45817  21.186  15.151  21.368 -0.0164 -0.2918 -0.2432
 3833G1FFO link45818  20.967  15.018  21.240  0.0492  0.4269  0.2665
 3833G1FFO Tail45819  20.764  15.146  21.016  0.1625 -0.0234 -0.1140
 3833G1FFO Tail45820  20.866  15.486  21.028 -0.0058  0.0360  0.1070
 3833G1FFO Tail45821  20.702  15.681  21.018 -0.0840 -0.2197  0.2399
 3833G1FFO Tail45822  20.782  15.898  21.138  0.1259  0.1240 -0.0348
 3833G1FFO Tail45823  20.828  16.091  21.298 -0.2534  0.2322  0.1062
 3833G1FFO Tail45824  20.893  16.239  21.467  0.1856 -0.1882  0.0038
 3833G1FFO Tail45825  20.484  15.209  21.193 -0.5944 -0.1368 -0.0121
 3833G1FFO Tail45826  20.259  15.294  21.060 -0.0741 -0.0352 -0.2056
 3833G1FFO Tail45827  20.086  15.120  21.005  0.0572  0.0314 -0.1654
 3833G1FFO Tail45828  19.865  14.989  20.974  0.0456 -0.0932  0.4131
 3833G1FFO Tail45829  19.684  14.839  20.986  0.0383 -0.2228 -0.4522
 3834G1FFO Head45830  17.478  19.076  18.306  0.2727 -0.0490 -0.0500
 3834G1FFO Head45831  17.297  19.208  18.574 -0.0022 -0.2773 -0.2925
 3834G1FFO Head45832  17.254  19.527  19.022  0.1246 -0.2317 -0.0094
 3834G1FFO Head45833  17.227  19.229  18.987 -0.2072 -0.1266 -0.2611
 3834G1FFO link45834  17.363  19.118  18.819 -0.1498  0.0591 -0.3153
 3834G1FFO link45835  17.446  18.847  18.843 -0.1282 -0.1473 -0.3809
 3834G1FFO Tail45836  17.555  18.673  18.581 -0.1795 -0.5287  0.1138
 3834G1FFO Tail45837  17.585  18.340  18.692 -0.1681 -0.2650 -0.3979
 3834G1FFO Tail45838  17.411  18.166  18.612  0.1441  0.0082  0.0757
 3834G1FFO Tail45839  17.220  18.260  18.463 -0.3818  0.0694  0.3019
 3834G1FFO Tail45840  17.064  18.390  18.301 -0.0990 -0.3725  0.2161
 3834G1FFO Tail45841  16.883  18.501  18.203  0.1872 -0.2100 -0.1623
 3834G1FFO Tail45842  17.905  18.733  18.599 -0.2236  0.1042 -0.0056
 3834G1FFO Tail45843  18.066  18.552  18.711  0.0042 -0.0841  0.0317
 3834G1FFO Tail45844  18.323  18.558  18.652 -0.0768  0.4190 -0.1168
 3834G1FFO Tail45845  18.575  18.521  18.635 -0.0685  0.1083 -0.1589
 3834G1FFO Tail45846  18.785  18.414  18.614  0.2023 -0.3727  0.0186
 3835G1FFO Head45847  17.533  17.392  17.467  0.2798  0.3623 -0.0121
 3835G1FFO Head45848  17.644  17.306  17.718 -0.4310  0.2411 -0.0918
 3835G1FFO Head45849  17.212  17.662  17.734  0.0237 -0.0653  0.2189
 3835G1FFO Head45850  17.324  17.448  17.895 -0.4424  0.0815 -0.3318
 3835G1FFO link45851  17.574  17.416  17.942 -0.1204  0.3896 -0.2754
 3835G1FFO link45852  17.662  17.337  18.211 -0.0965 -0.0667  0.4896
 3835G1FFO Tail45853  17.467  17.282  18.467  0.3657  0.6284  0.0813
 3835G1FFO Tail45854  17.160  17.317  18.316 -0.1283  0.1955  0.0194
 3835G1FFO Tail45855  17.078  17.116  18.176 -0.1177  0.5902  0.2896
 3835G1FFO Tail45856  17.255  16.997  18.032 -0.0088 -0.1774  0.0994
 3835G1FFO Tail45857  17.455  16.900  17.906 -0.1122 -0.0019  0.0736
 3835G1FFO Tail45858  17.631  16.857  17.765  0.3553 -0.1255  0.2258
 3835G1FFO Tail45859  17.450  17.554  18.640 -0.2099 -0.1169 -0.0397
 3835G1FFO Tail45860  17.273  17.743  18.592 -0.1698  0.1485 -0.0957
 3835G1FFO Tail45861  17.175  17.779  18.361 -0.1178 -0.3991 -0.0109
 3835G1FFO Tail45862  17.043  17.840  18.150  0.0497 -0.0950  0.0068
 3835G1FFO Tail45863  16.925  17.941  17.975  0.0389 -0.0039 -0.0352
 3836G1FFO Head45864  15.128  15.686  23.307 -0.0233 -0.1181 -0.1183
 3836G1FFO Head45865  15.221  15.343  23.358 -0.0543  0.0804 -0.0158
 3836G1FFO Head45866  15.331  15.063  23.891  0.2212 -0.1439  0.3243
 3836G1FFO Head45867  15.407  15.069  23.582  0.0384  0.0539 -0.1577
 3836G1FFO link45868  15.452  15.304  23.486  0.3191 -0.0248 -0.5066
 3836G1FFO link45869  15.697  15.429  23.405  0.1762 -0.0148  0.0002
 3836G1FFO Tail45870  15.758  15.588  23.132  0.1541  0.0054 -0.3513
 3836G1FFO Tail45871  15.712  15.918  23.262 -0.2240  0.0062 -0.0432
 3836G1FFO Tail45872  15.922  16.079  23.301 -0.3477  0.2432 -0.0877
 3836G1FFO Tail45873  15.901  16.325  23.357  0.1625  0.1236 -0.1415
 3836G1FFO Tail45874  15.843  16.571  23.380  0.0192 -0.0567  0.1389
 3836G1FFO Tail45875  15.734  16.778  23.419 -0.0894  0.0893 -0.0008
 3836G1FFO Tail45876  15.488  15.509  22.960  0.1170  0.4678  0.0020
 3836G1FFO Tail45877  15.404  15.264  22.933  0.0281 -0.1058 -0.2417
 3836G1FFO Tail45878  15.529  15.084  23.080  0.1478 -0.2052 -0.1356
 3836G1FFO Tail45879  15.678  14.908  23.165 -0.0961  0.2559 -0.0596
 3836G1FFO Tail45880  15.838  14.741  23.183  0.1115 -0.0146  0.1405
 3837G1FFO Head45881  20.753  15.616  22.420  0.3024  0.0785 -0.2481
 3837G1FFO Head45882  20.558  15.643  22.648  0.1725  0.0943 -0.0275
 3837G1FFO Head45883  20.405  15.531  23.281  0.1672 -0.0649  0.1122
 3837G1FFO Head45884  20.491  15.752  23.042  0.2058  0.2237 -0.1365
 3837G1FFO link45885  20.668  15.691  22.881 -0.2523  0.5944 -0.5247
 3837G1FFO link45886  20.952  15.691  22.923 -0.1810 -0.3049 -0.2803
 3837G1FFO Tail45887  21.137  15.943  23.024  0.4137 -0.2344  0.8058
 3837G1FFO Tail45888  20.879  16.114  23.189  0.1587  0.1996 -0.1989
 3837G1FFO Tail45889  20.836  16.371  23.133 -0.0115 -0.3174 -0.0054
 3837G1FFO Tail45890  20.601  16.461  23.127 -0.1579 -0.1181 -0.0569
 3837G1FFO Tail45891  20.363  16.564  23.094 -0.0548 -0.0316 -0.0473
 3837G1FFO Tail45892  20.181  16.684  22.997 -0.3013  0.1767 -0.2121
 3837G1FFO Tail45893  21.098  16.133  22.738 -0.0708  0.0471 -0.5729
 3837G1FFO Tail45894  20.880  16.156  22.612  0.3276 -0.2051  0.0279
 3837G1FFO Tail45895  20.659  16.140  22.744 -0.0847 -0.1648 -0.1004
 3837G1FFO Tail45896  20.422  16.129  22.846  0.0254  0.0535  0.1292
 3837G1FFO Tail45897  20.240  16.134  22.983  0.1785 -0.2408 -0.5146
 3838G1FFO Head45898  18.631  16.872  20.895 -0.0104 -0.0011  0.1310
 3838G1FFO Head45899  18.555  17.020  21.137 -0.3466 -0.0420  0.1241
 3838G1FFO Head45900  18.409  17.187  21.594 -0.2081 -0.0723 -0.2788
 3838G1FFO Head45901  18.548  17.362  21.357 -0.4385 -0.0411  0.0017
 3838G1FFO link45902  18.546  17.264  21.110 -0.4758  0.3435  0.2953
 3838G1FFO link45903  18.561  17.389  20.851 -0.0958  0.1381 -0.3705
 3838G1FFO Tail45904  18.420  17.666  20.764 -0.0229  0.1834  0.2700
 3838G1FFO Tail45905  18.648  17.724  20.519  0.2621  0.1537  0.1246
 3838G1FFO Tail45906  18.891  17.798  20.577 -0.1252  0.0257  0.0412
 3838G1FFO Tail45907  19.032  17.664  20.754 -0.1317 -0.0508 -0.1703
 3838G1FFO Tail45908  19.135  17.521  20.938  0.2270 -0.0751 -0.2080
 3838G1FFO Tail45909  19.277  17.429  21.093  0.1558  0.2446  0.2136
 3838G1FFO Tail45910  18.559  17.868  21.014 -0.0377 -0.0547 -0.1357
 3838G1FFO Tail45911  18.786  18.003  21.009 -0.0203 -0.1910  0.1943
 3838G1FFO Tail45912  18.832  18.146  20.788  0.0420 -0.0444  0.0847
 3838G1FFO Tail45913  18.921  18.288  20.600 -0.1157  0.1496  0.1266
 3838G1FFO Tail45914  19.007  18.365  20.395 -0.0649 -0.1869  0.5061
 3839G1FFO Head45915  16.511  17.487  20.800  0.0422  0.1619  0.0590
 3839G1FFO Head45916  16.777  17.509  20.614 -0.5101  0.2598  0.1230
 3839G1FFO Head45917  17.211  17.278  21.031 -0.1727  0.0983  0.0059
 3839G1FFO Head45918  16.991  17.340  20.919  0.2440  0.0190 -0.0570
 3839G1FFO link45919  17.012  17.491  20.724  0.5658 -0.4911  0.0502
 3839G1FFO link45920  17.252  17.582  20.598 -0.5615  0.0537  0.1703
 3839G1FFO Tail45921  17.346  17.901  20.654 -0.0877  0.1023 -0.2043
 3839G1FFO Tail45922  17.642  17.921  20.487  0.6052 -0.0562 -0.1802
 3839G1FFO Tail45923  17.863  17.822  20.586 -0.1395 -0.2555  0.3884
 3839G1FFO Tail45924  18.071  17.978  20.530 -0.0798 -0.2185  0.1709
 3839G1FFO Tail45925  18.295  18.078  20.455 -0.0227 -0.0306  0.0567
 3839G1FFO Tail45926  18.516  18.151  20.455 -0.0924  0.0460  0.2769
 3839G1FFO Tail45927  17.447  17.839  20.984 -0.3068  0.3413 -0.3243
 3839G1FFO Tail45928  17.424  17.989  21.199  0.0131  0.1873 -0.2350
 3839G1FFO Tail45929  17.634  18.100  21.303 -0.0972 -0.2114  0.0819
 3839G1FFO Tail45930  17.856  18.221  21.359 -0.0032  0.2056  0.1110
 3839G1FFO Tail45931  18.019  18.383  21.409 -0.0821  0.0119 -0.0079
 3840G1FFO Head45932  16.326  17.044  22.068 -0.0817  0.0371 -0.1449
 3840G1FFO Head45933  16.379  16.948  22.390  0.1748  0.3619  0.2509
 3840G1FFO Head45934  16.179  16.796  22.798  0.2106 -0.1227 -0.0922
 3840G1FFO Head45935  16.353  17.066  22.776  0.0515  0.4988 -0.2793
 3840G1FFO link45936  16.471  17.130  22.553 -0.1099  0.3773  0.2669
 3840G1FFO link45937  16.498  17.407  22.485 -0.0773  0.4498  0.0631
 3840G1FFO Tail45938  16.223  17.578  22.518  0.1013  0.1945  0.0781
 3840G1FFO Tail45939  16.201  17.651  22.844 -0.2018  0.0663  0.1794
 3840G1FFO Tail45940  16.316  17.866  22.921 -0.0519 -0.1239  0.1457
 3840G1FFO Tail45941  16.515  17.838  23.078 -0.0886 -0.0039 -0.0034
 3840G1FFO Tail45942  16.751  17.807  23.184 -0.0692 -0.1575 -0.1620
 3840G1FFO Tail45943  16.947  17.849  23.306  0.1869  0.3469 -0.1495
 3840G1FFO Tail45944  15.970  17.347  22.493 -0.3168 -0.6104  0.2623
 3840G1FFO Tail45945  16.025  17.087  22.515  0.1886 -0.0444 -0.1273
 3840G1FFO Tail45946  15.916  16.897  22.372 -0.2248 -0.0200 -0.3715
 3840G1FFO Tail45947  15.851  16.696  22.218 -0.1370  0.1149 -0.2188
 3840G1FFO Tail45948  15.775  16.490  22.131  0.2006 -0.0262 -0.0536
 3841G1FFO Head45949  13.777  16.261  23.262 -0.1337 -0.0037  0.2689
 3841G1FFO Head45950  13.901  16.417  23.074 -0.5056 -0.1791  0.2562
 3841G1FFO Head45951  13.366  16.720  22.740  0.0585  0.1411 -0.0230
 3841G1FFO Head45952  13.540  16.520  22.914  0.0419  0.5337 -0.1131
 3841G1FFO link45953  13.787  16.596  22.937 -0.1698  0.1175 -0.1813
 3841G1FFO link45954  13.902  16.777  22.754 -0.0311 -0.0513  0.1736
 3841G1FFO Tail45955  14.198  16.876  22.765 -0.2885  0.2111  0.0239
 3841G1FFO Tail45956  14.225  17.015  22.434  0.0784  0.1420  0.3599
 3841G1FFO Tail45957  14.032  17.146  22.318  0.0277  0.0020  0.0197
 3841G1FFO Tail45958  14.045  17.176  22.060  0.1782  0.0792 -0.1502
 3841G1FFO Tail45959  14.065  17.158  21.812 -0.3650  0.4303 -0.0254
 3841G1FFO Tail45960  14.147  17.136  21.586  0.1436 -0.2531 -0.2324
 3841G1FFO Tail45961  14.356  16.581  22.762 -0.0054 -0.0806  0.0098
 3841G1FFO Tail45962  14.255  16.359  22.690 -0.3026  0.3488  0.0268
 3841G1FFO Tail45963  14.399  16.196  22.535 -0.1238  0.0827 -0.0017
 3841G1FFO Tail45964  14.547  16.068  22.366 -0.2821 -0.1228 -0.1002
 3841G1FFO Tail45965  14.659  16.017  22.172  0.0909 -0.1693 -0.2929
 3842G1FFO Head45966  17.608  20.685  24.124 -0.0352 -0.0863  0.1645
 3842G1FFO Head45967  17.558  20.567  23.809  0.0962  0.2676  0.0785
 3842G1FFO Head45968  17.060  21.042  23.735  0.5559  0.0902 -0.1803
 3842G1FFO Head45969  17.338  20.901  23.730 -0.2345  0.0140 -0.4207
 3842G1FFO link45970  17.343  20.662  23.679 -0.3553  0.1413  0.0730
 3842G1FFO link45971  17.106  20.498  23.618 -0.0710 -0.1271  0.0591
 3842G1FFO Tail45972  16.957  20.520  23.325  0.3999  0.2949  0.3166
 3842G1FFO Tail45973  16.772  20.242  23.390 -0.1423  0.1288  0.0729
 3842G1FFO Tail45974  16.653  20.113  23.190 -0.0705  0.0442  0.0696
 3842G1FFO Tail45975  16.674  20.228  22.957  0.0561 -0.0402  0.2312
 3842G1FFO Tail45976  16.731  20.345  22.740 -0.0158  0.0005  0.0520
 3842G1FFO Tail45977  16.713  20.456  22.533  0.0112 -0.0875 -0.1940
 3842G1FFO Tail45978  17.183  20.351  23.116 -0.3806 -0.1751 -0.0665
 3842G1FFO Tail45979  17.451  20.358  23.151  0.1963  0.2729  0.1047
 3842G1FFO Tail45980  17.575  20.526  23.296 -0.0424 -0.1322 -0.1921
 3842G1FFO Tail45981  17.695  20.697  23.429 -0.0619 -0.1023  0.1042
 3842G1FFO Tail45982  17.822  20.886  23.506  0.5279  0.0817 -0.0026
 3843G1FFO Head45983  19.011  16.405  19.898 -0.0983  0.0038  0.3359
 3843G1FFO Head45984  18.915  16.711  19.830 -0.3161 -0.0742  0.0296
 3843G1FFO Head45985  19.146  16.879  20.181  0.0379  0.0599 -0.1181
 3843G1FFO Head45986  18.875  16.967  20.132  0.3185 -0.1351 -0.4133
 3843G1FFO link45987  18.744  16.840  19.975 -0.5986 -0.8471  0.5377
 3843G1FFO link45988  18.467  16.890  19.887 -0.2956  0.4505 -0.0807
 3843G1FFO Tail45989  18.378  17.115  19.660 -0.4989 -0.2090  0.1305
 3843G1FFO Tail45990  18.520  17.397  19.794 -0.2638 -0.1885 -0.0328
 3843G1FFO Tail45991  18.485  17.421  20.056 -0.0307 -0.1292 -0.3165
 3843G1FFO Tail45992  18.527  17.219  20.215  0.1614  0.0762  0.0842
 3843G1FFO Tail45993  18.508  17.039  20.388 -0.3055 -0.1187 -0.0467
 3843G1FFO Tail45994  18.447  16.842  20.494  0.1177 -0.0464 -0.2352
 3843G1FFO Tail45995  18.033  17.191  19.737 -0.0987 -0.0198  0.0332
 3843G1FFO Tail45996  17.861  17.277  19.563  0.1623  0.3287 -0.3376
 3843G1FFO Tail45997  17.639  17.131  19.552  0.3588 -0.2101 -0.2502
 3843G1FFO Tail45998  17.398  17.031  19.527  0.2142 -0.1858  0.1949
 3843G1FFO Tail45999  17.221  16.884  19.496 -0.0837 -0.0483  0.4443
 3844G1FFO Head46000  19.843  19.973  22.547 -0.2242  0.0260  0.3642
 3844G1FFO Head46001  19.918  19.699  22.447 -0.1731  0.3484 -0.1512
 3844G1FFO Head46002  20.351  19.822  22.762 -0.5705  0.0488  0.3648
 3844G1FFO Head46003  20.094  19.734  22.788  0.1700  0.0456 -0.0281
 3844G1FFO link46004  20.030  19.557  22.643 -0.1980 -0.2866  0.0804
 3844G1FFO link46005  20.076  19.290  22.644  0.0440  0.1520 -0.2438
 3844G1FFO Tail46006  20.109  19.120  22.926 -0.1091 -0.1427  0.0856
 3844G1FFO Tail46007  19.763  19.167  23.031 -0.1555 -0.2003  0.2579
 3844G1FFO Tail46008  19.702  19.106  23.275  0.0183 -0.0804 -0.2814
 3844G1FFO Tail46009  19.615  18.860  23.332  0.0343 -0.0525  0.0093
 3844G1FFO Tail46010  19.490  18.641  23.373 -0.1211 -0.0914  0.2036
 3844G1FFO Tail46011  19.342  18.459  23.348  0.1770 -0.1729 -0.0176
 3844G1FFO Tail46012  20.282  19.373  23.104  0.1945  0.0470  0.2544
 3844G1FFO Tail46013  20.400  19.323  23.333  0.0408  0.0563  0.0483
 3844G1FFO Tail46014  20.596  19.153  23.324 -0.0768 -0.1475 -0.1988
 3844G1FFO Tail46015  20.769  18.980  23.279  0.1800 -0.0394 -0.0633
 3844G1FFO Tail46016  20.974  18.858  23.257  0.1923 -0.2764 -0.0016
 3845G1FFO Head46017  19.072  19.353  18.956  0.0296  0.2268  0.2289
 3845G1FFO Head46018  18.834  19.255  18.738  0.1558 -0.3768 -0.1261
 3845G1FFO Head46019  18.448  19.854  18.771 -0.0876  0.2700 -0.0104
 3845G1FFO Head46020  18.661  19.644  18.699 -0.0255  0.1089 -0.0701
 3845G1FFO link46021  18.612  19.400  18.696  0.0105 -0.1210  0.3547
 3845G1FFO link46022  18.358  19.272  18.700 -0.2147 -0.0057 -0.0638
 3845G1FFO Tail46023  18.352  18.964  18.805  0.2545  0.4582 -0.1938
 3845G1FFO Tail46024  18.076  18.954  18.989  0.4973  0.1848 -0.0193
 3845G1FFO Tail46025  17.987  18.737  19.117  0.2876  0.1077 -0.1782
 3845G1FFO Tail46026  17.844  18.770  19.338  0.1117  0.0422  0.1305
 3845G1FFO Tail46027  17.682  18.823  19.526 -0.0246 -0.1507  0.1903
 3845G1FFO Tail46028  17.554  18.928  19.697  0.1357 -0.1076  0.0600
 3845G1FFO Tail46029  18.582  19.010  19.059 -0.2680 -0.2021  0.3818
 3845G1FFO Tail46030  18.502  19.066  19.303 -0.0279  0.0493 -0.3329
 3845G1FFO Tail46031  18.488  18.872  19.479 -0.1160 -0.1509 -0.0703
 3845G1FFO Tail46032  18.490  18.728  19.690 -0.1372  0.2670 -0.0437
 3845G1FFO Tail46033  18.464  18.645  19.916  0.0065 -0.1439  0.2510
 3846G1FFO Head46034  16.513  17.928  21.130 -0.1250 -0.1197  0.0941
 3846G1FFO Head46035  16.322  18.131  20.998  0.2036 -0.4398  0.1627
 3846G1FFO Head46036  16.038  17.730  21.213 -0.3356 -0.2128  0.0911
 3846G1FFO Head46037  16.051  17.842  20.867  0.4337 -0.1044  0.4520
 3846G1FFO link46038  16.166  18.055  20.796  0.3893 -0.1881 -0.2209
 3846G1FFO link46039  16.114  18.207  20.569  0.1760  0.1550 -0.2412
 3846G1FFO Tail46040  16.003  18.113  20.272  0.1954 -0.1565 -0.2423
 3846G1FFO Tail46041  15.671  18.106  20.347  0.1796  0.1343  0.3335
 3846G1FFO Tail46042  15.583  18.112  20.586 -0.1298 -0.0334 -0.1043
 3846G1FFO Tail46043  15.619  17.900  20.740  0.1543  0.0265  0.0553
 3846G1FFO Tail46044  15.602  17.672  20.861  0.3311 -0.0762 -0.1117
 3846G1FFO Tail46045  15.635  17.458  20.951 -0.2409 -0.2286  0.0370
 3846G1FFO Tail46046  16.049  17.776  20.280 -0.2180  0.0892 -0.4542
 3846G1FFO Tail46047  16.287  17.705  20.373  0.0858  0.2186 -0.0396
 3846G1FFO Tail46048  16.478  17.635  20.207  0.3453  0.0282  0.1760
 3846G1FFO Tail46049  16.648  17.599  20.019  0.1143  0.0320 -0.0589
 3846G1FFO Tail46050  16.792  17.515  19.847  0.2380  0.0867  0.2262
 3847G1FFO Head46051  17.169  16.283  21.335  0.0848 -0.1927 -0.1656
 3847G1FFO Head46052  16.914  16.343  21.521 -0.0744  0.2830  0.0755
 3847G1FFO Head46053  16.850  16.062  21.046  0.1638 -0.0908 -0.3104
 3847G1FFO Head46054  16.766  16.040  21.348 -0.0168 -0.2714 -0.1357
 3847G1FFO link46055  16.692  16.232  21.468 -0.0784 -0.4260 -0.7048
 3847G1FFO link46056  16.449  16.267  21.604  0.2711 -0.0618 -0.0279
 3847G1FFO Tail46057  16.429  16.183  21.917 -0.0376  0.0005 -0.3633
 3847G1FFO Tail46058  16.166  15.966  21.902 -0.3205  0.3750  0.2441
 3847G1FFO Tail46059  15.986  15.936  22.087 -0.3470 -0.3240 -0.0085
 3847G1FFO Tail46060  15.988  16.095  22.285  0.3831  0.2515 -0.1186
 3847G1FFO Tail46061  15.998  16.270  22.458  0.0471  0.0193 -0.0335
 3847G1FFO Tail46062  15.986  16.477  22.572  0.0012  0.0846 -0.0319
 3847G1FFO Tail46063  16.236  16.455  22.035  0.1033  0.0744  0.1849
 3847G1FFO Tail46064  16.174  16.634  21.857 -0.1326 -0.3945 -0.1666
 3847G1FFO Tail46065  16.068  16.567  21.622  0.1078 -0.0510  0.0458
 3847G1FFO Tail46066  16.018  16.503  21.382  0.0148 -0.2243 -0.0972
 3847G1FFO Tail46067  15.924  16.411  21.185 -0.0062 -0.2073 -0.1836
 3848G1FFO Head46068  14.460  14.952  20.907 -0.0727 -0.0322  0.3892
 3848G1FFO Head46069  14.288  14.745  20.783  0.0698 -0.3278  0.1650
 3848G1FFO Head46070  14.153  14.348  20.519 -0.2675  0.1231  0.2001
 3848G1FFO Head46071  14.122  14.595  20.440  0.0570 -0.3464 -0.0871
 3848G1FFO link46072  14.308  14.756  20.512 -0.0409 -0.3390 -0.5471
 3848G1FFO link46073  14.430  14.954  20.351 -0.2422 -0.1410  0.0800
 3848G1FFO Tail46074  14.751  14.908  20.239  0.2932  0.1171 -0.3463
 3848G1FFO Tail46075  14.907  15.123  20.467 -0.2413  0.2961 -0.0072
 3848G1FFO Tail46076  14.789  15.217  20.676 -0.0336  0.0767 -0.0131
 3848G1FFO Tail46077  14.752  15.475  20.708 -0.1122 -0.1781  0.0111
 3848G1FFO Tail46078  14.746  15.719  20.688  0.1122  0.0196  0.0566
 3848G1FFO Tail46079  14.787  15.943  20.716  0.1878  0.1048 -0.0495
 3848G1FFO Tail46080  14.754  15.088  19.964  0.0925 -0.0498 -0.1815
 3848G1FFO Tail46081  14.947  15.276  19.909  0.3196  0.4913  0.0954
 3848G1FFO Tail46082  15.191  15.192  19.928 -0.1542  0.2354  0.0326
 3848G1FFO Tail46083  15.437  15.110  19.942  0.0459 -0.0721 -0.4153
 3848G1FFO Tail46084  15.669  15.100  19.982 -0.1959  0.0444 -0.0481
 3849G1FFO Head46085  17.106  20.706  22.737 -0.0015  0.4409 -0.3062
 3849G1FFO Head46086  17.410  20.562  22.739  0.2648 -0.0669 -0.1796
 3849G1FFO Head46087  17.713  21.071  23.069  0.2080 -0.0329  0.6161
 3849G1FFO Head46088  17.513  20.890  22.912 -0.3227  0.0070 -0.0132
 3849G1FFO link46089  17.609  20.674  22.815  0.3073 -0.3653 -0.1476
 3849G1FFO link46090  17.881  20.609  22.851 -0.3160  0.3039  0.2058
 3849G1FFO Tail46091  17.987  20.299  22.791  0.3708  0.0270  0.0658
 3849G1FFO Tail46092  18.347  20.363  22.817 -0.1052 -0.0870 -0.0205
 3849G1FFO Tail46093  18.463  20.517  22.636 -0.2033  0.0408  0.0287
 3849G1FFO Tail46094  18.561  20.749  22.700  0.0018  0.1188  0.0400
 3849G1FFO Tail46095  18.652  20.967  22.798  0.0309 -0.2846  0.1269
 3849G1FFO Tail46096  18.762  21.127  22.936 -0.0934 -0.0043  0.3218
 3849G1FFO Tail46097  17.934  20.267  22.449 -0.0404  0.2661  0.0041
 3849G1FFO Tail46098  17.903  20.478  22.296 -0.2966 -0.3733  0.0819
 3849G1FFO Tail46099  17.712  20.652  22.359  0.2011  0.2490 -0.1209
 3849G1FFO Tail46100  17.550  20.834  22.426 -0.0979  0.2946 -0.1089
 3849G1FFO Tail46101  17.451  21.042  22.452  0.1241  0.3659  0.0662
 3850G1FFO Head46102  12.733  17.679  21.318  0.3846  0.0309  0.3349
 3850G1FFO Head46103  13.013  17.854  21.269 -0.3139  0.0149  0.1991
 3850G1FFO Head46104  13.080  18.065  21.740  0.0796  0.2475  0.4449
 3850G1FFO Head46105  13.275  17.963  21.570 -0.3088  0.1122 -0.1891
 3850G1FFO link46106  13.238  17.786  21.416 -0.2499  0.0650  0.4633
 3850G1FFO link46107  13.406  17.561  21.359  0.2329 -0.0163  0.2575
 3850G1FFO Tail46108  13.711  17.587  21.235 -0.2568 -0.3978 -0.2156
 3850G1FFO Tail46109  13.610  17.688  20.915  0.4367  0.3221  0.3272
 3850G1FFO Tail46110  13.759  17.827  20.757 -0.1612 -0.2653  0.2685
 3850G1FFO Tail46111  13.626  18.025  20.628  0.0287  0.0505 -0.1510
 3850G1FFO Tail46112  13.539  18.238  20.524 -0.2366 -0.0213  0.3407
 3850G1FFO Tail46113  13.451  18.403  20.380 -0.1412  0.6007  0.2086
 3850G1FFO Tail46114  13.791  17.230  21.215  0.3238 -0.1294  0.0439
 3850G1FFO Tail46115  13.594  17.063  21.155  0.1558  0.0468 -0.1677
 3850G1FFO Tail46116  13.428  17.015  21.359 -0.0269  0.0689 -0.0954
 3850G1FFO Tail46117  13.283  16.945  21.559 -0.1987 -0.0815 -0.0455
 3850G1FFO Tail46118  13.131  16.957  21.739 -0.1640  0.2375 -0.0994
 3851G1FFO Head46119  20.008  14.716  19.892 -0.2961 -0.4440 -0.2564
 3851G1FFO Head46120  19.835  14.899  20.082  0.3367 -0.2751  0.0134
 3851G1FFO Head46121  20.013  14.676  20.635 -0.1667  0.2306 -0.4066
 3851G1FFO Head46122  19.784  14.867  20.480 -0.2808  0.3258  0.0704
 3851G1FFO link46123  19.677  14.802  20.249 -0.0938  0.7297 -0.1004
 3851G1FFO link46124  19.393  14.768  20.221 -0.2237  0.3058  0.4243
 3851G1FFO Tail46125  19.261  14.477  20.125 -0.1986  0.1546  0.2128
 3851G1FFO Tail46126  19.190  14.318  20.429  0.3949 -0.2771  0.0225
 3851G1FFO Tail46127  19.092  14.456  20.622 -0.1028 -0.4515  0.1074
 3851G1FFO Tail46128  19.203  14.681  20.686 -0.0348 -0.0516 -0.0411
 3851G1FFO Tail46129  19.306  14.914  20.726 -0.0561 -0.0983 -0.0558
 3851G1FFO Tail46130  19.345  15.132  20.800 -0.0583 -0.1378 -0.3726
 3851G1FFO Tail46131  19.555  14.318  20.026 -0.0686 -0.0925 -0.0875
 3851G1FFO Tail46132  19.762  14.331  20.193  0.2178  0.5315 -0.2613
 3851G1FFO Tail46133  19.709  14.372  20.449  0.0988 -0.0522  0.2186
 3851G1FFO Tail46134  19.617  14.395  20.683  0.1591  0.0926  0.1870
 3851G1FFO Tail46135  19.552  14.441  20.902  0.1211 -0.0484  0.2466
 3852G1FFO Head46136  12.800  17.343  20.387 -0.0404  0.0108  0.0793
 3852G1FFO Head46137  13.091  17.323  20.429 -0.1703  0.2941 -0.1875
 3852G1FFO Head46138  12.814  16.894  20.185 -0.3418  0.2557 -0.0894
 3852G1FFO Head46139  13.113  16.938  20.255  0.1891 -0.0219  0.3131
 3852G1FFO link46140  13.198  17.081  20.432  0.3968  0.2931  0.0364
 3852G1FFO link46141  13.422  17.006  20.573  0.0727  0.0035  0.5376
 3852G1FFO Tail46142  13.578  17.223  20.732 -0.0031 -0.1443 -0.0733
 3852G1FFO Tail46143  13.307  17.322  20.942 -0.3924 -0.3334 -0.3773
 3852G1FFO Tail46144  13.179  17.552  20.921  0.0185 -0.1486 -0.0042
 3852G1FFO Tail46145  13.185  17.675  20.688 -0.1958 -0.0050 -0.1933
 3852G1FFO Tail46146  13.200  17.811  20.478 -0.3256 -0.0478 -0.0260
 3852G1FFO Tail46147  13.184  17.973  20.320  0.2994  0.1144  0.4060
 3852G1FFO Tail46148  13.590  17.469  20.473 -0.0655 -0.2512 -0.2762
 3852G1FFO Tail46149  13.781  17.450  20.293  0.1981  0.1324 -0.2452
 3852G1FFO Tail46150  13.907  17.223  20.287  0.1243 -0.0996  0.1579
 3852G1FFO Tail46151  14.054  17.027  20.294 -0.1528  0.0441 -0.0616
 3852G1FFO Tail46152  14.242  16.882  20.291 -0.0397  0.0611 -0.3700
 3853G1FFO Head46153  20.873  17.827  21.783 -0.1104 -0.0731  0.1986
 3853G1FFO Head46154  20.759  17.537  21.747 -0.3410  0.0681 -0.4112
 3853G1FFO Head46155  20.911  17.087  21.928 -0.0630  0.0437  0.2915
 3853G1FFO Head46156  20.654  17.230  22.022  0.2543  0.4085  0.1894
 3853G1FFO link46157  20.562  17.442  21.896 -0.1399  0.2279  0.2441
 3853G1FFO link46158  20.288  17.487  21.835 -0.1961  0.3714  0.2039
 3853G1FFO Tail46159  20.063  17.364  22.041 -0.2318  0.3173  0.1243
 3853G1FFO Tail46160  20.111  17.022  22.020  0.2929  0.0848  0.0474
 3853G1FFO Tail46161  19.999  16.865  21.854 -0.0399  0.1281  0.2856
 3853G1FFO Tail46162  19.747  16.794  21.892 -0.4343 -0.0383 -0.0577
 3853G1FFO Tail46163  19.518  16.699  21.960 -0.5366  0.1155  0.2223
 3853G1FFO Tail46164  19.310  16.648  22.053  0.3254  0.1191 -0.2769
 3853G1FFO Tail46165  19.793  17.381  21.822  0.2772  0.2062  0.1669
 3853G1FFO Tail46166  19.608  17.191  21.837 -0.2812 -0.3258  0.3922
 3853G1FFO Tail46167  19.491  17.118  21.610  0.1102  0.2299 -0.2144
 3853G1FFO Tail46168  19.430  17.034  21.381  0.1377  0.0783  0.0903
 3853G1FFO Tail46169  19.417  16.992  21.143 -0.3906 -0.0077 -0.1902
 3854G1FFO Head46170  19.856  18.686  19.253  0.0307 -0.0808  0.1235
 3854G1FFO Head46171  19.817  18.654  19.546 -0.1030  0.1267  0.1215
 3854G1FFO Head46172  20.139  18.938  19.811  0.2541  0.2358 -0.1206
 3854G1FFO Head46173  19.823  18.999  19.778 -0.0122 -0.0241  0.4094
 3854G1FFO link46174  19.665  18.819  19.670 -0.5129 -0.2686  0.1621
 3854G1FFO link46175  19.380  18.782  19.742 -0.6019 -0.0326 -0.1917
 3854G1FFO Tail46176  19.217  18.517  19.652  0.0026  0.3905  0.0890
 3854G1FFO Tail46177  19.434  18.411  19.384  0.2423  0.1896 -0.1688
 3854G1FFO Tail46178  19.426  18.167  19.263  0.0995  0.0445  0.1664
 3854G1FFO Tail46179  19.642  18.015  19.276  0.1981  0.3548  0.0744
 3854G1FFO Tail46180  19.831  17.837  19.299 -0.0051 -0.1026 -0.1366
 3854G1FFO Tail46181  19.957  17.641  19.341 -0.1087 -0.1977  0.0023
 3854G1FFO Tail46182  18.943  18.678  19.483  0.2523  0.3439 -0.0183
 3854G1FFO Tail46183  18.836  18.613  19.255 -0.0658  0.0674  0.2173
 3854G1FFO Tail46184  18.954  18.701  19.039 -0.3504 -0.2037 -0.0512
 3854G1FFO Tail46185  19.060  18.824  18.850  0.0291  0.0724  0.0044
 3854G1FFO Tail46186  19.160  18.975  18.702  0.0057 -0.0433  0.0924
 3855G1FFO Head46187  13.519  16.373  19.080  0.2537  0.1886  0.2590
 3855G1FFO Head46188  13.649  16.589  18.893  0.0010  0.0906 -0.1161
 3855G1FFO Head46189  13.880  16.124  18.790  0.0469  0.1442 -0.2995
 3855G1FFO Head46190  13.967  16.371  18.974 -0.4124  0.1165  0.3295
 3855G1FFO link46191  13.921  16.600  18.887 -0.4354 -0.2871 -0.2171
 3855G1FFO link46192  14.079  16.837  18.935  0.3062  0.2893 -0.1616
 3855G1FFO Tail46193  14.326  16.876  19.160  0.0750  0.1853  0.1509
 3855G1FFO Tail46194  14.255  17.210  19.246 -0.3335 -0.0576 -0.3357
 3855G1FFO Tail46195  14.257  17.279  19.495  0.0313  0.3650 -0.1904
 3855G1FFO Tail46196  14.321  17.517  19.575 -0.2889  0.1601  0.2428
 3855G1FFO Tail46197  14.380  17.759  19.609  0.2741 -0.0092  0.1373
 3855G1FFO Tail46198  14.397  17.986  19.639  0.1946 -0.0284  0.1656
 3855G1FFO Tail46199  14.608  16.944  18.960 -0.3833 -0.2254  0.0058
 3855G1FFO Tail46200  14.783  16.750  18.884  0.2815  0.0314  0.1719
 3855G1FFO Tail46201  14.890  16.750  18.655 -0.1002  0.1666 -0.0768
 3855G1FFO Tail46202  15.010  16.720  18.425  0.0960  0.0674 -0.4712
 3855G1FFO Tail46203  15.057  16.642  18.206 -0.4638  0.2209  0.1132
 3856G1FFO Head46204  19.689  18.349  24.120  0.6836  0.0277  0.1188
 3856G1FFO Head46205  19.493  18.440  23.866 -0.0580  0.2374 -0.0568
 3856G1FFO Head46206  19.326  18.521  24.410  0.0582  0.0640  0.0861
 3856G1FFO Head46207  19.188  18.409  24.142  0.2526 -0.4568 -0.1162
 3856G1FFO link46208  19.245  18.499  23.904 -0.3464 -0.3096 -0.1178
 3856G1FFO link46209  19.045  18.553  23.709 -0.2037  0.1865 -0.3183
 3856G1FFO Tail46210  18.868  18.314  23.548 -0.1839 -0.1472  0.1033
 3856G1FFO Tail46211  18.861  18.485  23.257  0.4217 -0.0688 -0.0494
 3856G1FFO Tail46212  18.638  18.597  23.137  0.2579 -0.1881 -0.3915
 3856G1FFO Tail46213  18.662  18.837  23.051  0.1499 -0.1477  0.0223
 3856G1FFO Tail46214  18.734  19.068  22.972 -0.0931 -0.0547 -0.0668
 3856G1FFO Tail46215  18.773  19.295  22.931 -0.1064 -0.1029 -0.1637
 3856G1FFO Tail46216  18.547  18.331  23.680  0.0306 -0.0167 -0.0810
 3856G1FFO Tail46217  18.409  18.114  23.729 -0.1731 -0.0141 -0.0750
 3856G1FFO Tail46218  18.442  17.905  23.570 -0.2130  0.1223  0.1100
 3856G1FFO Tail46219  18.448  17.697  23.422  0.1775 -0.2485 -0.1145
 3856G1FFO Tail46220  18.392  17.486  23.317  0.1648 -0.1175  0.3703
 3857G1FFO Head46221  12.733  16.808  19.638  0.2199  0.0026  0.1132
 3857G1FFO Head46222  12.651  16.577  19.888  0.1826 -0.4675 -0.1690
 3857G1FFO Head46223  12.519  16.109  19.890 -0.1178  0.0383 -0.0487
 3857G1FFO Head46224  12.769  16.221  20.023  0.1467  0.4542  0.1680
 3857G1FFO link46225  12.841  16.453  19.999  0.1094 -0.4218  0.4233
 3857G1FFO link46226  13.114  16.548  19.980  0.2960  0.2020 -0.0195
 3857G1FFO Tail46227  13.188  16.821  19.805 -0.0392  0.0752 -0.1603
 3857G1FFO Tail46228  13.220  16.663  19.493  0.1122 -0.0363 -0.0708
 3857G1FFO Tail46229  13.388  16.752  19.318 -0.1187  0.1340 -0.2533
 3857G1FFO Tail46230  13.645  16.762  19.371 -0.2145  0.0399 -0.0682
 3857G1FFO Tail46231  13.899  16.734  19.409 -0.0024 -0.0281  0.0086
 3857G1FFO Tail46232  14.122  16.648  19.410  0.0567  0.1180  0.1847
 3857G1FFO Tail46233  13.511  16.831  19.878  0.2114  0.0094  0.1188
 3857G1FFO Tail46234  13.590  17.025  20.048  0.0424 -0.3593 -0.1006
 3857G1FFO Tail46235  13.450  17.245  20.052 -0.0922  0.1808  0.1010
 3857G1FFO Tail46236  13.289  17.428  20.051  0.2189 -0.2185 -0.0479
 3857G1FFO Tail46237  13.111  17.572  20.032 -0.0271 -0.1429 -0.0571
 3858G1FFO Head46238  16.683  18.400  21.217 -0.1780  0.1200 -0.0338
 3858G1FFO Head46239  16.539  18.350  21.513 -0.1615 -0.0043  0.1319
 3858G1FFO Head46240  16.964  18.230  21.693  0.2194  0.3882  0.1896
 3858G1FFO Head46241  16.802  18.463  21.827  0.4102 -0.0686  0.0980
 3858G1FFO link46242  16.569  18.530  21.697 -0.4723 -0.0634 -0.1052
 3858G1FFO link46243  16.412  18.747  21.763  0.2808  0.0942  0.2578
 3858G1FFO Tail46244  16.172  18.738  21.990  0.0210 -0.4620  0.1333
 3858G1FFO Tail46245  16.334  18.517  22.216  0.3823  0.1802  0.2941
 3858G1FFO Tail46246  16.292  18.262  22.241 -0.1442 -0.1143  0.1602
 3858G1FFO Tail46247  16.434  18.110  22.398  0.3005 -0.3070  0.0498
 3858G1FFO Tail46248  16.557  17.923  22.519  0.1417  0.1410  0.0447
 3858G1FFO Tail46249  16.702  17.783  22.632 -0.3825  0.0909  0.0330
 3858G1FFO Tail46250  15.966  18.508  21.809  0.3027  0.0432 -0.1313
 3858G1FFO Tail46251  16.008  18.256  21.789 -0.0599 -0.1667  0.2982
 3858G1FFO Tail46252  16.250  18.160  21.816  0.1270 -0.0713  0.2764
 3858G1FFO Tail46253  16.488  18.097  21.878 -0.2514  0.0923 -0.0294
 3858G1FFO Tail46254  16.688  17.989  21.932  0.0659 -0.0769 -0.2305
 3859G1FFO Head46255  16.550  20.699  21.232 -0.0523 -0.1237  0.1283
 3859G1FFO Head46256  16.695  20.736  21.536  0.3361  0.2888 -0.3862
 3859G1FFO Head46257  16.885  21.136  21.519  0.1113 -0.3690  0.1549
 3859G1FFO Head46258  17.038  20.906  21.632 -0.1066 -0.2366 -0.0767
 3859G1FFO link46259  16.952  20.677  21.580  0.1191  0.3235  0.4121
 3859G1FFO link46260  17.102  20.442  21.495  0.0490  0.2016 -0.1182
 3859G1FFO Tail46261  17.267  20.416  21.200 -0.2559  0.0526 -0.1785
 3859G1FFO Tail46262  17.575  20.452  21.340  0.0880 -0.2313  0.1352
 3859G1FFO Tail46263  17.704  20.256  21.439  0.0455  0.2701 -0.0464
 3859G1FFO Tail46264  17.681  20.203  21.684 -0.1301 -0.2071  0.1089
 3859G1FFO Tail46265  17.668  20.184  21.940  0.1928  0.0636 -0.2680
 3859G1FFO Tail46266  17.593  20.126  22.159 -0.0737  0.3958  0.2242
 3859G1FFO Tail46267  17.249  20.737  21.097 -0.1216 -0.0165 -0.4773
 3859G1FFO Tail46268  17.415  20.827  20.929 -0.3271 -0.1772 -0.0504
 3859G1FFO Tail46269  17.672  20.769  20.946  0.1464 -0.1484 -0.2109
 3859G1FFO Tail46270  17.905  20.681  20.978 -0.1009 -0.0349 -0.2503
 3859G1FFO Tail46271  18.138  20.661  21.006  0.1161  0.0120  0.1356
 3860G1FFO Head46272  16.132  13.300  18.690 -0.0965  0.1550  0.0320
 3860G1FFO Head46273  15.944  13.127  18.881 -0.0058  0.0066 -0.2365
 3860G1FFO Head46274  15.926  12.916  19.560  0.0642  0.0010 -0.1339
 3860G1FFO Head46275  15.870  12.996  19.275  0.0393  0.0678 -0.1907
 3860G1FFO link46276  15.986  13.186  19.139  0.2778  0.5505  0.2731
 3860G1FFO link46277  16.238  13.269  19.231  0.3325 -0.2608  0.0559
 3860G1FFO Tail46278  16.267  13.338  19.542 -0.4329  0.0084 -0.0524
 3860G1FFO Tail46279  16.122  13.636  19.607 -0.2743  0.1869 -0.4373
 3860G1FFO Tail46280  16.099  13.847  19.473  0.3959 -0.1062  0.2492
 3860G1FFO Tail46281  16.268  13.957  19.312  0.1693  0.3181 -0.0391
 3860G1FFO Tail46282  16.450  14.076  19.197  0.0484 -0.2827  0.1808
 3860G1FFO Tail46283  16.631  14.217  19.147 -0.1334  0.1657 -0.2974
 3860G1FFO Tail46284  16.602  13.464  19.501 -0.0743 -0.3878  0.0673
 3860G1FFO Tail46285  16.671  13.501  19.245 -0.2144 -0.2707  0.0082
 3860G1FFO Tail46286  16.509  13.597  19.071  0.0736  0.0203 -0.2696
 3860G1FFO Tail46287  16.316  13.674  18.921 -0.2130  0.0256 -0.1074
 3860G1FFO Tail46288  16.195  13.757  18.751  0.1409 -0.1867 -0.0474
 3861G1FFO Head46289  18.233  15.357  18.280 -0.1919 -0.0545 -0.1458
 3861G1FFO Head46290  18.477  15.243  18.134 -0.0161 -0.2572 -0.0587
 3861G1FFO Head46291  18.915  15.425  17.607  0.1320 -0.1654  0.3772
 3861G1FFO Head46292  18.701  15.294  17.809 -0.0217  0.3492  0.0890
 3861G1FFO link46293  18.658  15.392  18.032  0.2542 -0.1606 -0.2071
 3861G1FFO link46294  18.720  15.653  18.092  0.1497 -0.1849 -0.0722
 3861G1FFO Tail46295  18.546  15.838  18.308  0.2932  0.0970 -0.1400
 3861G1FFO Tail46296  18.778  16.081  18.383 -0.0693 -0.2404  0.1578
 3861G1FFO Tail46297  18.922  16.103  18.605  0.1495 -0.0164 -0.1188
 3861G1FFO Tail46298  18.978  16.332  18.700  0.1220 -0.1299  0.3185
 3861G1FFO Tail46299  19.025  16.546  18.837 -0.1164 -0.1170 -0.2364
 3861G1FFO Tail46300  19.126  16.692  18.988 -0.1040  0.0311  0.0458
 3861G1FFO Tail46301  18.586  15.648  18.596 -0.1477  0.2328  0.0110
 3861G1FFO Tail46302  18.744  15.683  18.808  0.0338 -0.2391  0.3126
 3861G1FFO Tail46303  18.635  15.812  19.012  0.2509  0.0277  0.2806
 3861G1FFO Tail46304  18.558  15.955  19.209  0.0056 -0.0129 -0.0073
 3861G1FFO Tail46305  18.512  16.026  19.432 -0.1010 -0.2899  0.1300
 3862G1FFO Head46306  19.891  16.459  23.887  0.3041 -0.0125  0.0191
 3862G1FFO Head46307  19.561  16.446  23.809  0.0163  0.1906  0.3151
 3862G1FFO Head46308  19.668  15.952  23.861  0.1177 -0.0307 -0.2784
 3862G1FFO Head46309  19.637  16.087  23.630 -0.2154  0.1511  0.0473
 3862G1FFO link46310  19.490  16.296  23.610  0.1983 -0.1613 -0.0557
 3862G1FFO link46311  19.360  16.404  23.383  0.0234 -0.3312 -0.2347
 3862G1FFO Tail46312  19.492  16.416  23.092 -0.0746 -0.2390  0.2188
 3862G1FFO Tail46313  19.269  16.636  22.917 -0.1958 -0.1219  0.0962
 3862G1FFO Tail46314  19.377  16.836  22.782 -0.1322 -0.4101 -0.2547
 3862G1FFO Tail46315  19.257  16.952  22.588  0.1098 -0.2748  0.1025
 3862G1FFO Tail46316  19.171  17.061  22.372 -0.2670  0.0377 -0.3068
 3862G1FFO Tail46317  19.076  17.111  22.167 -0.0228  0.1374  0.3119
 3862G1FFO Tail46318  19.410  16.114  22.964 -0.4621 -0.1485 -0.5720
 3862G1FFO Tail46319  19.165  16.052  22.916  0.1093  0.0628  0.1664
 3862G1FFO Tail46320  19.088  15.806  22.887  0.0110 -0.2511 -0.0208
 3862G1FFO Tail46321  18.972  15.585  22.831 -0.0910  0.1736  0.2662
 3862G1FFO Tail46322  18.837  15.424  22.740 -0.0991  0.0132  0.2273
 3863G1FFO Head46323  19.782  16.657  21.112  0.0151 -0.0166 -0.1104
 3863G1FFO Head46324  19.746  16.737  20.810 -0.2673  0.0151 -0.0503
 3863G1FFO Head46325  19.120  16.656  20.832 -0.0779  0.2264  0.2185
 3863G1FFO Head46326  19.352  16.703  20.665  0.0125 -0.3579  0.2070
 3863G1FFO link46327  19.525  16.875  20.708  0.5025  0.0295 -0.4937
 3863G1FFO link46328  19.502  17.131  20.606 -0.2262  0.1551  0.0448
 3863G1FFO Tail46329  19.453  17.196  20.293 -0.0422 -0.0235 -0.1590
 3863G1FFO Tail46330  19.782  17.189  20.166 -0.0799  0.3587  0.0238
 3863G1FFO Tail46331  19.976  17.313  20.291  0.2216 -0.0025 -0.0069
 3863G1FFO Tail46332  20.067  17.527  20.173  0.0516 -0.0262 -0.0515
 3863G1FFO Tail46333  20.104  17.759  20.069 -0.0474 -0.1022 -0.3706
 3863G1FFO Tail46334  20.079  17.971  19.966 -0.1469  0.1173 -0.2939
 3863G1FFO Tail46335  19.418  17.546  20.319 -0.3652 -0.0457 -0.0285
 3863G1FFO Tail46336  19.596  17.669  20.189 -0.0662  0.0537  0.2169
 3863G1FFO Tail46337  19.699  17.889  20.277 -0.0992  0.0625 -0.0506
 3863G1FFO Tail46338  19.836  18.096  20.326  0.0031  0.0953 -0.0773
 3863G1FFO Tail46339  19.920  18.317  20.345 -0.3140  0.3502  0.3009
 3864LEFL  Drug46340  15.128  14.349  22.099  0.1362 -0.0371 -0.0219
 3864LEFL  Drug46341  15.418  14.385  22.131  0.1159  0.0805  0.0340
 3864LEFL  Drug46342  15.392  14.566  22.191  0.0473  0.1608 -0.2320
 3864LEFL  Drug46343  15.583  14.703  22.264 -0.1769  0.0712 -0.1293
 3864LEFL  Drug46344  15.810  14.700  22.169 -0.1631 -0.2638  0.1800
 3864LEFL  Drug46345  15.926  14.514  21.963 -0.0927  0.3236 -0.3271
 3864LEFL  Drug46346  15.978  14.580  22.251  0.3145  0.0326 -0.3290
 3864LEFL  Drug46347  16.110  14.383  22.251 -0.2822 -0.3884  0.2280
 3865LEFL  Drug46348  17.115  19.589  23.887  0.3347 -0.0328 -0.0376
 3865LEFL  Drug46349  16.964  19.352  23.805 -0.0151  0.1748 -0.0034
 3865LEFL  Drug46350  16.948  19.419  23.624 -0.2689  0.3563  0.0828
 3865LEFL  Drug46351  16.797  19.277  23.478 -0.3122  0.3990 -0.0081
 3865LEFL  Drug46352  16.811  19.035  23.397 -0.0605 -0.0587 -0.1620
 3865LEFL  Drug46353  16.546  18.928  23.302 -0.2105  0.0457  0.1313
 3865LEFL  Drug46354  16.740  18.866  23.522  0.0926 -0.1392 -0.1831
 3865LEFL  Drug46355  16.624  18.660  23.537  0.1159 -0.1399  0.0093
 3866LEFL  Drug46356  16.089  20.170  20.665  0.0247 -0.0755  0.2898
 3866LEFL  Drug46357  16.107  20.457  20.722 -0.1763  0.0327 -0.1711
 3866LEFL  Drug46358  15.987  20.439  20.872  0.0350  0.1427  0.0139
 3866LEFL  Drug46359  15.770  20.371  20.979 -0.3228 -0.0932 -0.0415
 3866LEFL  Drug46360  15.613  20.185  21.055  0.2577 -0.2069 -0.1968
 3866LEFL  Drug46361  15.808  20.188  21.284 -0.0370  0.1017  0.0563
 3866LEFL  Drug46362  15.558  20.038  21.212  0.2133 -0.1994 -0.2059
 3866LEFL  Drug46363  15.599  19.934  21.421  0.1356  0.1718 -0.0015
 3867LEFL  Drug46364  13.477  18.811  20.313  0.0838  0.2642 -0.1208
 3867LEFL  Drug46365  13.657  18.670  20.130  0.1050 -0.0613  0.1449
 3867LEFL  Drug46366  13.647  18.816  20.003  0.0936 -0.2962 -0.1289
 3867LEFL  Drug46367  13.598  18.904  19.804 -0.3593 -0.4653  0.4747
 3867LEFL  Drug46368  13.677  18.886  19.559  0.3413  0.0367  0.1512
 3867LEFL  Drug46369  13.774  18.897  19.274 -0.5731  0.2606 -0.1704
 3867LEFL  Drug46370  13.807  19.062  19.523  0.2266  0.0663 -0.1341
 3867LEFL  Drug46371  13.944  19.189  19.376  0.0799  0.4307  0.0394
 3868LEFL  Drug46372  15.653  18.314  22.045 -0.0370 -0.0990  0.3733
 3868LEFL  Drug46373  15.920  18.279  22.161  0.0860 -0.0423  0.1109
 3868LEFL  Drug46374  15.911  18.453  22.245  0.1688 -0.0071  0.0470
 3868LEFL  Drug46375  15.824  18.484  22.480 -0.2774  0.1479 -0.1815
 3868LEFL  Drug46376  15.817  18.699  22.618  0.0240 -0.3533 -0.1081
 3868LEFL  Drug46377  15.741  18.988  22.589  0.5301 -0.2062 -0.0241
 3868LEFL  Drug46378  15.626  18.744  22.720  0.2905  0.0410  0.2317
 3868LEFL  Drug46379  15.487  18.897  22.836  0.2210  0.0770  0.1020
 3869LEFL  Drug46380  17.785  13.071  21.275  0.1879  0.5059  0.0410
 3869LEFL  Drug46381  17.956  12.942  21.075 -0.2446 -0.3414  0.1947
 3869LEFL  Drug46382  17.940  13.095  20.958  0.6023 -0.2467  0.1758
 3869LEFL  Drug46383  17.726  13.151  20.832  0.1038  0.2481 -0.1348
 3869LEFL  Drug46384  17.700  13.375  20.732 -0.1309 -0.1172  0.2818
 3869LEFL  Drug46385  17.507  13.583  20.831  0.2128  0.2024  0.2920
 3869LEFL  Drug46386  17.705  13.558  20.606  0.2755 -0.0574  0.3752
 3869LEFL  Drug46387  17.679  13.793  20.587  0.3631 -0.0601  0.2153
 3870LEFL  Drug46388  19.016  19.608  22.047  0.0354 -0.0659  0.3608
 3870LEFL  Drug46389  18.985  19.892  21.979  0.1571 -0.1581 -0.1009
 3870LEFL  Drug46390  18.968  19.938  22.166  0.0446  0.1367 -0.1815
 3870LEFL  Drug46391  18.931  19.912  22.387  0.0836  0.2439  0.3051
 3870LEFL  Drug46392  18.977  20.083  22.563  0.3414  0.0246  0.2181
 3870LEFL  Drug46393  18.689  20.163  22.595  0.3066  0.0460 -0.1245
 3870LEFL  Drug46394  18.933  20.153  22.769 -0.0219 -0.4817  0.3206
 3870LEFL  Drug46395  18.783  20.215  22.942  0.2337 -0.2038  0.4474
 3871LEFL  Drug46396  15.170  17.405  24.308 -0.0153 -0.1099 -0.1271
 3871LEFL  Drug46397  15.040  17.667  24.310  0.1831 -0.0108 -0.0690
 3871LEFL  Drug46398  15.190  17.745  24.403  0.2067 -0.1634  0.0223
 3871LEFL  Drug46399  15.299  17.961  24.381 -0.1329  0.1150  0.3333
 3871LEFL  Drug46400  15.264  18.169  24.243 -0.0708  0.3561  0.1555
 3871LEFL  Drug46401  14.985  18.173  24.355 -0.0226 -0.0603  0.3004
 3871LEFL  Drug46402  15.110  18.170  24.083 -0.1669 -0.1900  0.2346
 3871LEFL  Drug46403  14.896  18.225  23.998 -0.1014  0.0107  0.1971
 3872LEFL  Drug46404  16.059  18.507  19.636  0.1239 -0.1402 -0.3144
 3872LEFL  Drug46405  16.088  18.225  19.708 -0.3390 -0.2254 -0.4465
 3872LEFL  Drug46406  15.983  18.171  19.555 -0.3742  0.0137 -0.5085
 3872LEFL  Drug46407  15.772  18.033  19.579  0.3233  0.2116 -0.3099
 3872LEFL  Drug46408  15.689  17.800  19.499 -0.1958 -0.1751 -0.1684
 3872LEFL  Drug46409  15.666  17.527  19.374  0.3757 -0.2901 -0.0373
 3872LEFL  Drug46410  15.877  17.683  19.520 -0.0250  0.1377  0.0969
 3872LEFL  Drug46411  16.009  17.498  19.452  0.0018  0.1591  0.0917
 3873LEFL  Drug46412  18.014  20.474  21.472 -0.2672  0.0468  0.0729
 3873LEFL  Drug46413  17.996  20.736  21.342 -0.2453 -0.0046 -0.0341
 3873LEFL  Drug46414  17.913  20.812  21.498  0.0243  0.1373  0.0431
 3873LEFL  Drug46415  17.687  20.801  21.587 -0.1821  0.2547 -0.5409
 3873LEFL  Drug46416  17.574  20.936  21.751 -0.1648  0.2702 -0.2389
 3873LEFL  Drug46417  17.408  21.186  21.727  0.3677  0.6540 -0.0362
 3873LEFL  Drug46418  17.458  20.977  21.936 -0.1679  0.3013 -0.2476
 3873LEFL  Drug46419  17.279  21.078  22.054 -0.0020 -0.0680  0.3427
 3874LEFL  Drug46420  14.925  19.813  21.083 -0.2491  0.3203 -0.4083
 3874LEFL  Drug46421  15.033  19.587  20.931  0.3561  0.2895  0.0520
 3874LEFL  Drug46422  14.991  19.674  20.764  0.2647 -0.0913 -0.1293
 3874LEFL  Drug46423  14.803  19.758  20.658  0.0282 -0.0056 -0.2412
 3874LEFL  Drug46424  14.679  19.749  20.444  0.0276  0.0475  0.3164
 3874LEFL  Drug46425  14.511  19.548  20.296  0.0515  0.3385 -0.1144
 3874LEFL  Drug46426  14.465  19.806  20.442  0.0824  0.2537  0.0462
 3874LEFL  Drug46427  14.242  19.753  20.381  0.1814  0.0358 -0.1369
 3875LEFL  Drug46428  17.893  17.683  22.845 -0.4864  0.0316  0.0730
 3875LEFL  Drug46429  18.112  17.643  23.035 -0.2914 -0.0810 -0.1724
 3875LEFL  Drug46430  18.109  17.830  23.084 -0.0530 -0.0526 -0.2612
 3875LEFL  Drug46431  18.177  18.063  23.111  0.2907  0.1159 -0.0176
 3875LEFL  Drug46432  18.239  18.192  23.309 -0.1497 -0.2704 -0.0285
 3875LEFL  Drug46433  18.350  18.468  23.355 -0.3573 -0.1234 -0.3828
 3875LEFL  Drug46434  18.093  18.323  23.413 -0.2080 -0.2790 -0.0978
 3875LEFL  Drug46435  18.016  18.537  23.480  0.0922 -0.1380 -0.1937
 3876LEFL  Drug46436  17.862  15.681  21.082  0.0680 -0.3043 -0.1586
 3876LEFL  Drug46437  17.832  15.825  20.828 -0.0290  0.0676  0.0604
 3876LEFL  Drug46438  18.022  15.859  20.821  0.0110 -0.1799 -0.1087
 3876LEFL  Drug46439  18.107  16.010  20.989 -0.0019 -0.2061  0.1426
 3876LEFL  Drug46440  18.080  15.971  21.225  0.3759  0.2138 -0.0313
 3876LEFL  Drug46441  18.344  15.952  21.368  0.1518 -0.2876  0.3268
 3876LEFL  Drug46442  18.099  15.781  21.338 -0.0017  0.0261 -0.2743
 3876LEFL  Drug46443  18.224  15.638  21.478 -0.0267  0.0791 -0.1974
 3877LEFL  Drug46444  17.232  14.705  19.334 -0.0270 -0.0550  0.1460
 3877LEFL  Drug46445  17.220  14.844  19.077  0.1364 -0.2419  0.0358
 3877LEFL  Drug46446  17.413  14.844  19.064  0.1475 -0.1998  0.1872
 3877LEFL  Drug46447  17.650  14.841  19.071 -0.0020 -0.0635 -0.1963
 3877LEFL  Drug46448  17.819  15.027  19.132  0.1658 -0.4028  0.2768
 3877LEFL  Drug46449  17.784  15.220  19.360 -0.0759  0.0138 -0.1049
 3877LEFL  Drug46450  17.988  15.170  19.146 -0.1026 -0.0339 -0.1187
 3877LEFL  Drug46451  18.084  15.365  19.240 -0.0485 -0.0411 -0.1585
 3878LEFL  Drug46452  13.484  17.083  18.431 -0.4837 -0.4007  0.1271
 3878LEFL  Drug46453  13.410  17.358  18.498 -0.1804 -0.2812 -0.0159
 3878LEFL  Drug46454  13.445  17.326  18.685 -0.3023 -0.2513  0.0134
 3878LEFL  Drug46455  13.437  17.427  18.901 -0.0885  0.1992 -0.4874
 3878LEFL  Drug46456  13.456  17.355  19.135 -0.1604  0.0040  0.3215
 3878LEFL  Drug46457  13.494  17.256  19.417 -0.1186 -0.3451  0.1966
 3878LEFL  Drug46458  13.635  17.224  19.154  0.1656  0.4285  0.2428
 3878LEFL  Drug46459  13.822  17.158  19.284  0.4327  0.0327 -0.3198
 3879LEFL  Drug46460  18.706  20.712  22.318  0.0228 -0.2558 -0.3055
 3879LEFL  Drug46461  18.828  20.956  22.427  0.0298 -0.1714 -0.5015
 3879LEFL  Drug46462  19.000  20.870  22.438 -0.0287 -0.2515 -0.1859
 3879LEFL  Drug46463  19.005  20.658  22.585  0.3336  0.1039 -0.2118
 3879LEFL  Drug46464  19.065  20.431  22.630 -0.2978 -0.3924  0.3616
 3879LEFL  Drug46465  19.158  20.448  22.916  0.1779  0.0727  0.1868
 3879LEFL  Drug46466  19.265  20.338  22.658 -0.0827 -0.0168  0.1164
 3879LEFL  Drug46467  19.468  20.322  22.778 -0.1310 -0.0825  0.1901
 3880LEFL  Drug46468  17.025  13.844  20.751 -0.1970  0.0877 -0.3346
 3880LEFL  Drug46469  17.315  13.841  20.713 -0.1688 -0.2075 -0.1187
 3880LEFL  Drug46470  17.314  14.027  20.662  0.0559 -0.2099 -0.1380
 3880LEFL  Drug46471  17.469  14.241  20.617  0.0858 -0.3283  0.2793
 3880LEFL  Drug46472  17.539  14.387  20.413  0.2168 -0.0728 -0.3457
 3880LEFL  Drug46473  17.460  14.677  20.391 -0.1274 -0.1379 -0.0176
 3880LEFL  Drug46474  17.343  14.412  20.313 -0.2726 -0.2397  0.5273
 3880LEFL  Drug46475  17.169  14.556  20.241  0.2622  0.0556 -0.2385
 3881LEFL  Drug46476  16.011  16.441  20.395  0.2434  0.2635 -0.0644
 3881LEFL  Drug46477  16.129  16.454  20.663  0.0307 -0.0050  0.0442
 3881LEFL  Drug46478  16.002  16.325  20.730 -0.0540 -0.0360 -0.1743
 3881LEFL  Drug46479  15.973  16.085  20.808 -0.2424  0.1347  0.3818
 3881LEFL  Drug46480  15.777  15.970  20.931 -0.0468  0.1357 -0.0743
 3881LEFL  Drug46481  15.507  15.872  21.019  0.3651 -0.6722  0.3447
 3881LEFL  Drug46482  15.707  16.074  21.114 -0.1101 -0.0137 -0.0132
 3881LEFL  Drug46483  15.538  16.120  21.275 -0.2881 -0.3905 -0.0866
 3882LEFL  Drug46484  14.764  15.148  18.886 -0.2602 -0.5496 -0.0588
 3882LEFL  Drug46485  14.796  15.356  18.682  0.1380  0.0143  0.5576
 3882LEFL  Drug46486  14.607  15.350  18.641  0.3039 -0.3257 -0.2437
 3882LEFL  Drug46487  14.364  15.345  18.583 -0.0389 -0.2065 -0.1671
 3882LEFL  Drug46488  14.296  15.125  18.564  0.2031 -0.2276 -0.2596
 3882LEFL  Drug46489  14.346  14.987  18.827  0.4021 -0.1135 -0.2359
 3882LEFL  Drug46490  14.180  14.937  18.582  0.0753 -0.1276 -0.0148
 3882LEFL  Drug46491  14.064  14.772  18.706 -0.1136  0.2407  0.3135
 3883LEFL  Drug46492  19.437  18.566  18.091  0.1188 -0.0361  0.0560
 3883LEFL  Drug46493  19.219  18.737  17.993  0.2174  0.0689  0.0190
 3883LEFL  Drug46494  19.231  18.848  18.150 -0.0012 -0.1519  0.1970
 3883LEFL  Drug46495  19.031  18.924  18.286 -0.2092  0.4167 -0.2448
 3883LEFL  Drug46496  18.911  19.139  18.326  0.1157 -0.5672 -0.3369
 3883LEFL  Drug46497  18.757  18.993  18.540  0.0974 -0.1965 -0.0907
 3883LEFL  Drug46498  18.699  19.105  18.268 -0.2099  0.3579  0.1950
 3883LEFL  Drug46499  18.496  18.988  18.302  0.0830 -0.1827  0.1428
 3884LEFL  Drug46500  15.465  18.350  21.374 -0.3127  0.1270 -0.1559
 3884LEFL  Drug46501  15.709  18.304  21.529 -0.2958  0.3703 -0.1087
 3884LEFL  Drug46502  15.677  18.113  21.530 -0.0066  0.3181 -0.2780
 3884LEFL  Drug46503  15.860  17.947  21.583  0.1511 -0.2118  0.5251
 3884LEFL  Drug46504  16.041  17.859  21.725  0.3771 -0.0437  0.7103
 3884LEFL  Drug46505  16.256  17.691  21.598  0.3529  0.3934  0.0678
 3884LEFL  Drug46506  16.025  17.645  21.784  0.2552 -0.3074 -0.2101
 3884LEFL  Drug46507  16.129  17.435  21.815  0.3134 -0.2416  0.0474
 3885LEFL  Drug46508  16.529  14.556  23.162  0.3315  0.0957 -0.4098
 3885LEFL  Drug46509  16.619  14.794  23.307  0.1378 -0.0279 -0.0809
 3885LEFL  Drug46510  16.437  14.849  23.338  0.0886  0.1811 -0.6760
 3885LEFL  Drug46511  16.258  14.758  23.491 -0.4109  0.0204  0.0161
 3885LEFL  Drug46512  16.078  14.814  23.644  0.1832  0.5091 -0.1185
 3885LEFL  Drug46513  15.861  14.993  23.537 -0.2345  0.0902  0.0069
 3885LEFL  Drug46514  15.933  14.873  23.802  0.2452  0.3466 -0.0000
 3885LEFL  Drug46515  15.704  14.900  23.856  0.1987 -0.3012  0.1743
 3886LEFL  Drug46516  18.882  16.803  20.519  0.3037  0.1650 -0.3535
 3886LEFL  Drug46517  18.846  16.539  20.398  0.2503  0.0618 -0.1159
 3886LEFL  Drug46518  18.657  16.571  20.374  0.2823  0.1364 -0.2752
 3886LEFL  Drug46519  18.511  16.536  20.188 -0.0917 -0.2723  0.1643
 3886LEFL  Drug46520  18.292  16.491  20.105  0.0489 -0.0165  0.2557
 3886LEFL  Drug46521  18.047  16.523  19.933  0.2460 -0.0499 -0.0351
 3886LEFL  Drug46522  18.106  16.491  20.225 -0.0833  0.1483  0.0551
 3886LEFL  Drug46523  17.874  16.455  20.257 -0.0873  0.2329  0.1234
 3887LEFL  Drug46524  18.338  18.785  22.779  0.1900 -0.3338  0.2165
 3887LEFL  Drug46525  18.443  18.888  22.526 -0.0878  0.1384  0.2872
 3887LEFL  Drug46526  18.265  18.899  22.452 -0.1272 -0.2686  0.3077
 3887LEFL  Drug46527  18.169  18.942  22.226  0.4894  0.2047  0.2454
 3887LEFL  Drug46528  18.057  19.152  22.195  0.2769  0.1099  0.0109
 3887LEFL  Drug46529  18.100  19.444  22.254 -0.3854  0.2149  0.0188
 3887LEFL  Drug46530  17.898  19.234  22.327 -0.1428 -0.1445 -0.3221
 3887LEFL  Drug46531  17.787  19.423  22.417 -0.0121 -0.1808 -0.0822
 3888LEFL  Drug46532  18.191  17.173  24.544 -0.5669 -0.0488 -0.0237
 3888LEFL  Drug46533  17.923  17.285  24.579 -0.4987  0.2370 -0.3847
 3888LEFL  Drug46534  17.936  17.379  24.410 -0.2204  0.1278 -0.4275
 3888LEFL  Drug46535  18.100  17.551  24.322 -0.3535 -0.2622 -0.0389
 3888LEFL  Drug46536  18.103  17.805  24.347  0.1434  0.1962  0.0742
 3888LEFL  Drug46537  17.915  17.845  24.116  0.0824  0.0824  0.1037
 3888LEFL  Drug46538  18.079  18.020  24.295  0.2306  0.1625 -0.1080
 3888LEFL  Drug46539  17.927  18.188  24.226 -0.0676 -0.0934 -0.0824
 3889LEFL  Drug46540  17.438  19.868  20.852 -0.0837 -0.0316  0.1112
 3889LEFL  Drug46541  17.226  20.044  20.754 -0.1906 -0.3729 -0.2862
 3889LEFL  Drug46542  17.149  20.056  20.930 -0.1551  0.0304 -0.2927
 3889LEFL  Drug46543  16.973  20.058  21.095  0.1995  0.1454 -0.3000
 3889LEFL  Drug46544  16.798  20.183  21.208 -0.0939  0.1324 -0.0039
 3889LEFL  Drug46545  16.890  20.085  21.477 -0.0752 -0.0044 -0.0598
 3889LEFL  Drug46546  16.708  20.299  21.374  0.3450  0.4117  0.0475
 3889LEFL  Drug46547  16.646  20.328  21.601  0.3140  0.1964  0.0668
 3890LEFL  Drug46548  17.995  20.282  20.721  0.4683  0.0761 -0.0357
 3890LEFL  Drug46549  18.216  20.305  20.530  0.2330 -0.1219 -0.3363
 3890LEFL  Drug46550  18.152  20.477  20.471  0.1100 -0.2229 -0.5029
 3890LEFL  Drug46551  18.338  20.657  20.464  0.0491  0.0382 -0.0784
 3890LEFL  Drug46552  18.576  20.692  20.544  0.2876  0.0927  0.2795
 3890LEFL  Drug46553  18.814  20.663  20.725  0.1605 -0.6485  0.3458
 3890LEFL  Drug46554  18.678  20.496  20.517  0.0123 -0.0059 -0.0862
 3890LEFL  Drug46555  18.819  20.321  20.591 -0.0573  0.0376  0.1531
 3891LEFL  Drug46556  18.152  19.422  18.376 -0.1810  0.3877 -0.3710
 3891LEFL  Drug46557  18.222  19.653  18.543 -0.0047 -0.0250  0.1396
 3891LEFL  Drug46558  18.042  19.720  18.531  0.0648  0.1777  0.2214
 3891LEFL  Drug46559  17.801  19.729  18.434 -0.0807  0.0876  0.2134
 3891LEFL  Drug46560  17.548  19.790  18.449 -0.0736  0.3879 -0.0085
 3891LEFL  Drug46561  17.418  19.548  18.326  0.1800  0.0624  0.3531
 3891LEFL  Drug46562  17.363  19.731  18.557 -0.3673  0.7502 -0.2959
 3891LEFL  Drug46563  17.163  19.607  18.587  0.0469  0.0902 -0.1581
 3892LEFL  Drug46564  19.872  17.472  23.677 -0.1245  0.4810 -0.2555
 3892LEFL  Drug46565  19.707  17.270  23.544 -0.1190  0.2099  0.1407
 3892LEFL  Drug46566  19.832  17.130  23.592 -0.0616  0.3228  0.3258
 3892LEFL  Drug46567  20.037  17.150  23.466 -0.0188  0.1838 -0.0218
 3892LEFL  Drug46568  20.242  17.285  23.463 -0.7219  0.4425  0.1309
 3892LEFL  Drug46569  20.529  17.292  23.373 -0.6016  0.1731  0.4837
 3892LEFL  Drug46570  20.297  17.482  23.375 -0.3474  0.4879  0.4558
 3892LEFL  Drug46571  20.472  17.628  23.311 -0.0008 -0.1250 -0.0551
 3893LEFL  Drug46572  14.274  16.699  23.822  0.4564 -0.3257 -0.2355
 3893LEFL  Drug46573  14.235  16.929  23.645  0.2634  0.0400  0.2700
 3893LEFL  Drug46574  14.321  17.046  23.772 -0.0741 -0.1086  0.6498
 3893LEFL  Drug46575  14.511  17.080  23.888  0.3984 -0.2932 -0.1764
 3893LEFL  Drug46576  14.694  16.925  23.844 -0.1688 -0.5667  0.1879
 3893LEFL  Drug46577  14.688  17.038  23.565 -0.0471 -0.1251  0.3601
 3893LEFL  Drug46578  14.635  16.772  23.694  0.4788 -0.4924 -0.1579
 3893LEFL  Drug46579  14.572  16.697  23.479 -0.2293 -0.3432 -0.0131
 3894LEFL  Drug46580  14.830  17.766  24.049 -0.0230 -0.5855  0.0895
 3894LEFL  Drug46581  14.698  17.570  23.876 -0.1596 -0.3088 -0.1247
 3894LEFL  Drug46582  14.660  17.457  24.027 -0.1876 -0.4741 -0.2539
 3894LEFL  Drug46583  14.579  17.343  24.226 -0.1381  0.1312 -0.3296
 3894LEFL  Drug46584  14.535  17.394  24.485 -0.2100 -0.3163  0.0937
 3894LEFL  Drug46585  14.371  17.641  24.433 -0.5325 -0.5059  0.1939
 3894LEFL  Drug46586  14.660  17.577  24.483 -0.4549 -0.1453  0.2179
 3894LEFL  Drug46587  14.694  17.811  24.467 -0.2705 -0.1607  0.3702
 3895LEFL  Drug46588  21.219  16.849  22.482 -0.4487 -0.2128 -0.0921
 3895LEFL  Drug46589  21.370  16.631  22.357  0.2111  0.0022  0.3067
 3895LEFL  Drug46590  21.466  16.757  22.247 -0.3792  0.0873 -0.1383
 3895LEFL  Drug46591  21.379  16.924  22.087 -0.2072 -0.2723 -0.2699
 3895LEFL  Drug46592  21.232  16.879  21.891  0.5732  0.0744  0.0871
 3895LEFL  Drug46593  21.273  16.584  21.933 -0.5088 -0.1207 -0.0764
 3895LEFL  Drug46594  21.301  16.778  21.706  0.2548 -0.0744  0.0455
 3895LEFL  Drug46595  21.345  16.588  21.571 -0.1262 -0.1075 -0.0366
 3896LEFL  Drug46596  14.329  18.939  23.071 -0.0601  0.0141  0.0078
 3896LEFL  Drug46597  14.282  18.705  23.242 -0.0727 -0.2450 -0.3446
 3896LEFL  Drug46598  14.241  18.596  23.088 -0.2788  0.0409 -0.4968
 3896LEFL  Drug46599  14.412  18.526  22.937  0.0017 -0.1145  0.1669
 3896LEFL  Drug46600  14.618  18.637  22.835  0.2188  0.5059 -0.2462
 3896LEFL  Drug46601  14.729  18.892  22.952  0.1285  0.1840  0.5746
 3896LEFL  Drug46602  14.806  18.602  22.946 -0.0505  0.1399  0.1084
 3896LEFL  Drug46603  15.006  18.682  23.047  0.1426 -0.0323 -0.1325
 3897LEFL  Drug46604  20.064  19.381  22.286  0.2291 -0.0260  0.0853
 3897LEFL  Drug46605  19.840  19.206  22.215  0.0834  0.1457  0.1208
 3897LEFL  Drug46606  19.764  19.343  22.102  0.1294  0.2307  0.1927
 3897LEFL  Drug46607  19.800  19.529  21.971  0.0820 -0.1476 -0.1552
 3897LEFL  Drug46608  19.925  19.729  22.039 -0.4175 -0.3765  0.1033
 3897LEFL  Drug46609  19.867  19.963  21.858  0.0089 -0.4731 -0.1658
 3897LEFL  Drug46610  19.835  19.899  22.150 -0.0842 -0.0701 -0.0855
 3897LEFL  Drug46611  19.690  20.087  22.156  0.0526  0.0330  0.0290
 3898LEFL  Drug46612  14.524  15.889  22.975 -0.3898 -0.3378 -0.2457
 3898LEFL  Drug46613  14.671  15.637  23.011 -0.0255 -0.0918  0.0268
 3898LEFL  Drug46614  14.673  15.607  22.821  0.0123 -0.2963  0.0587
 3898LEFL  Drug46615  14.676  15.621  22.577  0.0198 -0.1395  0.1409
 3898LEFL  Drug46616  14.811  15.793  22.489 -0.2861  0.1837 -0.0558
 3898LEFL  Drug46617  15.046  15.981  22.495  0.1447 -0.3499  0.3760
 3898LEFL  Drug46618  14.944  15.765  22.313 -0.3214  0.2448 -0.0922
 3898LEFL  Drug46619  15.129  15.828  22.180 -0.2915  0.4057  0.0238
 3899LEFL  Drug46620  17.791  15.742  24.866  0.2358 -0.3789  0.1057
 3899LEFL  Drug46621  18.062  15.656  24.796  0.3252  0.0384 -0.0723
 3899LEFL  Drug46622  18.032  15.700  24.611  0.2121  0.1973 -0.0183
 3899LEFL  Drug46623  17.960  15.922  24.504  0.0237  0.6015 -0.3474
 3899LEFL  Drug46624  18.015  16.067  24.306  0.0618 -0.1091 -0.4261
 3899LEFL  Drug46625  17.774  16.083  24.127 -0.0960  0.3455 -0.1808
 3899LEFL  Drug46626  17.931  16.272  24.297 -0.0638 -0.1178  0.3160
 3899LEFL  Drug46627  17.762  16.429  24.243  0.1207 -0.0021  0.0625
 3900LEFL  Drug46628  20.146  15.359  18.214 -0.0093  0.0983 -0.4624
 3900LEFL  Drug46629  20.399  15.415  18.350  0.0596 -0.1549 -0.4842
 3900LEFL  Drug46630  20.354  15.602  18.365  0.2840 -0.0942 -0.5538
 3900LEFL  Drug46631  20.245  15.787  18.466  0.3828 -0.3211 -0.0077
 3900LEFL  Drug46632  20.063  15.820  18.620 -0.1438 -0.3248 -0.3697
 3900LEFL  Drug46633  20.042  16.116  18.573  0.0881 -0.2711 -0.1468
 3900LEFL  Drug46634  19.859  15.896  18.661  0.0386 -0.1028  0.1791
 3900LEFL  Drug46635  19.710  16.066  18.734 -0.1866 -0.2332  0.0321
 3901LEFL  Drug46636  18.538  18.457  20.741  0.2004 -0.2199  0.0896
 3901LEFL  Drug46637  18.431  18.202  20.838  0.0126 -0.1929 -0.0438
 3901LEFL  Drug46638  18.307  18.294  20.954 -0.2109 -0.1599 -0.3022
 3901LEFL  Drug46639  18.332  18.289  21.207 -0.2232  0.0991  0.2004
 3901LEFL  Drug46640  18.341  18.126  21.380 -0.1366  0.4934  0.2769
 3901LEFL  Drug46641  18.137  17.934  21.490 -0.0182  0.1433 -0.1000
 3901LEFL  Drug46642  18.306  18.158  21.597 -0.1989  0.0792  0.3315
 3901LEFL  Drug46643  18.172  18.154  21.792 -0.1665  0.0731  0.3539
 3902LEFL  Drug46644  19.499  15.041  18.355  0.2059 -0.1388  0.0542
 3902LEFL  Drug46645  19.500  14.852  18.579 -0.2761 -0.0428  0.1413
 3902LEFL  Drug46646  19.368  14.958  18.673 -0.1581  0.2303  0.0049
 3902LEFL  Drug46647  19.196  14.840  18.817  0.0200 -0.1271  0.2345
 3902LEFL  Drug46648  19.114  14.737  19.014  0.1660  0.1438 -0.0739
 3902LEFL  Drug46649  19.285  14.700  19.259  0.0499  0.4134  0.0496
 3902LEFL  Drug46650  19.036  14.852  19.187 -0.1863 -0.0374 -0.1067
 3902LEFL  Drug46651  19.083  14.990  19.373  0.0139 -0.2249 -0.0160
 3903LEFL  Drug46652  17.772  20.284  23.647 -0.4012 -0.0571  0.1824
 3903LEFL  Drug46653  17.490  20.246  23.578 -0.3163  0.3041 -0.3960
 3903LEFL  Drug46654  17.537  20.122  23.438 -0.2144 -0.5296  0.3342
 3903LEFL  Drug46655  17.599  19.895  23.337 -0.3891  0.3332 -0.0132
 3903LEFL  Drug46656  17.574  19.695  23.467 -0.2937  0.0670  0.4033
 3903LEFL  Drug46657  17.795  19.559  23.314 -0.3730  0.2763  0.0970
 3903LEFL  Drug46658  17.687  19.552  23.594 -0.0657  0.0745  0.2133
 3903LEFL  Drug46659  17.849  19.381  23.619 -0.0162  0.0479 -0.2537
 3904LEFL  Drug46660  17.878  19.224  19.467 -0.1422 -0.4077  0.1427
 3904LEFL  Drug46661  18.136  19.101  19.403  0.0621  0.0215  0.1216
 3904LEFL  Drug46662  18.230  19.239  19.500 -0.1398  0.3327 -0.1132
 3904LEFL  Drug46663  18.291  19.215  19.737 -0.3217 -0.7357  0.0137
 3904LEFL  Drug46664  18.499  19.357  19.799  0.0037 -0.3019 -0.3171
 3904LEFL  Drug46665  18.765  19.218  19.823  0.2393  0.2278  0.2755
 3904LEFL  Drug46666  18.660  19.465  19.689  0.0968  0.1435  0.2325
 3904LEFL  Drug46667  18.875  19.470  19.590 -0.0130 -0.0989 -0.0271
 3905LEFL  Drug46668  17.836  17.841  22.429 -0.2925  0.3900 -0.3753
 3905LEFL  Drug46669  17.672  17.880  22.668 -0.1141 -0.0418 -0.1776
 3905LEFL  Drug46670  17.515  17.817  22.575 -0.2958  0.6187 -0.3426
 3905LEFL  Drug46671  17.429  17.601  22.510  0.2293  0.0422 -0.3046
 3905LEFL  Drug46672  17.360  17.438  22.681 -0.1886 -0.1512 -0.0455
 3905LEFL  Drug46673  17.565  17.232  22.602  0.0907  0.1275 -0.0569
 3905LEFL  Drug46674  17.357  17.261  22.816  0.2288 -0.0503  0.1034
 3905LEFL  Drug46675  17.375  17.026  22.835 -0.2201 -0.1136 -0.1855
 3906LEFL  Drug46676  17.328  17.547  20.179  0.1401  0.0546  0.2542
 3906LEFL  Drug46677  17.564  17.688  20.078  0.0606 -0.0358 -0.0628
 3906LEFL  Drug46678  17.668  17.525  20.081  0.1350  0.0132  0.2447
 3906LEFL  Drug46679  17.914  17.495  20.075  0.1124  0.6379 -0.1999
 3906LEFL  Drug46680  18.124  17.510  19.951 -0.3428  0.1211  0.0154
 3906LEFL  Drug46681  18.277  17.757  20.030  0.1388 -0.1230 -0.1411
 3906LEFL  Drug46682  18.200  17.620  19.774 -0.1372 -0.1305 -0.0554
 3906LEFL  Drug46683  18.271  17.820  19.668  0.0520 -0.1558  0.0215
 3907LEFL  Drug46684  21.000  18.804  21.116  0.0607  0.0928  0.0810
 3907LEFL  Drug46685  20.947  18.518  21.144 -0.1843  0.1770  0.5269
 3907LEFL  Drug46686  20.882  18.508  20.962  0.0982 -0.1094  0.4369
 3907LEFL  Drug46687  20.881  18.513  20.705 -0.0229  0.2083  0.2116
 3907LEFL  Drug46688  20.981  18.372  20.521 -0.4223 -0.3661 -0.3223
 3907LEFL  Drug46689  21.183  18.164  20.600  0.1959  0.3928  0.1706
 3907LEFL  Drug46690  21.144  18.354  20.372 -0.2096 -0.0462 -0.1352
 3907LEFL  Drug46691  21.287  18.216  20.243  0.0449 -0.1013  0.1994
 3908LEFL  Drug46692  18.157  19.220  20.764  0.2969  0.4404  0.0934
 3908LEFL  Drug46693  18.255  19.201  20.489 -0.6786 -0.4114 -0.2293
 3908LEFL  Drug46694  18.406  19.095  20.547 -0.0814  0.3536 -0.2971
 3908LEFL  Drug46695  18.647  19.101  20.527  0.0035  0.2157  0.1301
 3908LEFL  Drug46696  18.811  19.088  20.334 -0.1431 -0.2428  0.0746
 3908LEFL  Drug46697  19.097  19.147  20.263 -0.2277  0.1639  0.0601
 3908LEFL  Drug46698  18.883  18.961  20.167  0.0347 -0.1538  0.0808
 3908LEFL  Drug46699  19.046  18.885  20.013  0.0834 -0.0371  0.0757
 3909LEFL  Drug46700  21.247  19.010  24.602 -0.0324  0.0778 -0.0975
 3909LEFL  Drug46701  20.988  18.886  24.542  0.0399 -0.1592  0.0711
 3909LEFL  Drug46702  20.910  18.962  24.701  0.0340 -0.1044  0.0422
 3909LEFL  Drug46703  20.706  19.106  24.703  0.1715  0.0581 -0.1850
 3909LEFL  Drug46704  20.510  19.043  24.839 -0.0144  0.4463  0.0753
 3909LEFL  Drug46705  20.323  19.178  25.033  0.1615  0.2275  0.4041
 3909LEFL  Drug46706  20.300  18.977  24.811 -0.0262  0.3986  0.2660
 3909LEFL  Drug46707  20.094  18.911  24.907 -0.0891 -0.0910 -0.1830
 3910LEFL  Drug46708  17.718  20.318  19.366 -0.3634 -0.4289  0.3224
 3910LEFL  Drug46709  18.002  20.287  19.427 -0.2448 -0.0925 -0.0335
 3910LEFL  Drug46710  17.997  20.101  19.376 -0.0528 -0.0639 -0.1633
 3910LEFL  Drug46711  18.036  20.000  19.156 -0.1299  0.0640  0.7627
 3910LEFL  Drug46712  18.178  19.836  19.065 -0.1556  0.0598  0.1160
 3910LEFL  Drug46713  18.123  19.624  18.860  0.0114  0.1326 -0.0059
 3910LEFL  Drug46714  18.139  19.639  19.159 -0.4277  0.0684  0.0252
 3910LEFL  Drug46715  18.045  19.421  19.163 -0.0280 -0.1126 -0.1382
 3911LEFL  Drug46716  13.481  17.311  22.056  0.5167 -0.3770  0.0701
 3911LEFL  Drug46717  13.723  17.383  22.204  0.2121  0.1515  0.3268
 3911LEFL  Drug46718  13.699  17.570  22.160 -0.0421  0.0776  0.1396
 3911LEFL  Drug46719  13.934  17.656  22.091  0.1213 -0.2808  0.1543
 3911LEFL  Drug46720  14.058  17.736  21.886 -0.2242  0.0618 -0.2835
 3911LEFL  Drug46721  14.070  17.845  21.606  0.1245 -0.1617 -0.3588
 3911LEFL  Drug46722  14.097  17.576  21.737  0.0684 -0.0429 -0.1001
 3911LEFL  Drug46723  14.090  17.513  21.509 -0.1884 -0.0111 -0.1024
 3912LEFL  Drug46724  18.363  17.228  17.683 -0.1071  0.4529  0.1667
 3912LEFL  Drug46725  18.413  17.104  17.944 -0.0999 -0.2055 -0.1347
 3912LEFL  Drug46726  18.506  16.957  17.861 -0.6122 -0.3136 -0.5490
 3912LEFL  Drug46727  18.500  16.714  17.860  0.0083  0.0821  0.0520
 3912LEFL  Drug46728  18.639  16.573  17.732  0.3984  0.4543  0.4009
 3912LEFL  Drug46729  18.897  16.515  17.588  0.5322  0.4606  0.6353
 3912LEFL  Drug46730  18.746  16.398  17.819  0.1242  0.2070  0.2476
 3912LEFL  Drug46731  18.930  16.249  17.813  0.0580  0.1248  0.2421
 3913LEFL  Drug46732  14.731  17.047  18.137  0.0629 -0.1128  0.1470
 3913LEFL  Drug46733  14.763  17.074  18.427  0.1250 -0.2537  0.1536
 3913LEFL  Drug46734  14.574  17.046  18.454  0.0530  0.1843  0.1450
 3913LEFL  Drug46735  14.440  16.836  18.493  0.1378 -0.1624  0.3462
 3913LEFL  Drug46736  14.444  16.610  18.583 -0.2020  0.1226  0.1845
 3913LEFL  Drug46737  14.234  16.433  18.705 -0.2979  0.2762  0.2430
 3913LEFL  Drug46738  14.442  16.625  18.804 -0.0644  0.0523  0.1905
 3913LEFL  Drug46739  14.419  16.505  19.008 -0.1804 -0.1000  0.0886
 3914LEFL  Drug46740  14.842  15.424  20.242 -0.1388  0.2304  0.4953
 3914LEFL  Drug46741  14.995  15.589  20.055 -0.1928  0.0019  0.2452
 3914LEFL  Drug46742  15.111  15.648  20.197 -0.1593  0.1873  0.1421
 3914LEFL  Drug46743  15.302  15.801  20.227 -0.3201 -0.1888 -0.0005
 3914LEFL  Drug46744  15.508  15.812  20.108 -0.1153 -0.0719 -0.0012
 3914LEFL  Drug46745  15.778  15.708  20.193 -0.0536 -0.0744 -0.1979
 3914LEFL  Drug46746  15.646  15.976  20.165 -0.0386 -0.0669 -0.1965
 3914LEFL  Drug46747  15.858  16.062  20.226 -0.1026 -0.0474  0.0045
 3915LEFL  Drug46748  20.882  17.970  19.521  0.1244  0.2784  0.0525
 3915LEFL  Drug46749  20.947  17.980  19.807  0.1276 -0.0097  0.0637
 3915LEFL  Drug46750  21.131  18.020  19.767  0.0565  0.3758  0.1020
 3915LEFL  Drug46751  21.266  17.869  19.897 -0.3146 -0.4924  0.0674
 3915LEFL  Drug46752  21.317  17.732  20.092 -0.2992  0.1892  0.3146
 3915LEFL  Drug46753  21.442  17.460  20.059 -0.3581  0.1896  0.0822
 3915LEFL  Drug46754  21.183  17.570  20.163 -0.2823  0.1683  0.2973
 3915LEFL  Drug46755  21.145  17.337  20.187 -0.0718  0.1202  0.1816
 3916LEFL  Drug46756  18.832  17.664  22.329  0.0681 -0.0099  0.2200
 3916LEFL  Drug46757  19.063  17.494  22.270  0.0682  0.1075 -0.1300
 3916LEFL  Drug46758  19.159  17.566  22.421 -0.1262 -0.5658  0.3351
 3916LEFL  Drug46759  19.243  17.467  22.638 -0.0039  0.1057 -0.2147
 3916LEFL  Drug46760  19.472  17.450  22.720  0.0755 -0.0152 -0.0412
 3916LEFL  Drug46761  19.629  17.194  22.733  0.2573  0.0989  0.0280
 3916LEFL  Drug46762  19.689  17.484  22.686  0.0012  0.0780 -0.4498
 3916LEFL  Drug46763  19.911  17.408  22.654 -0.0716 -0.2966 -0.1025
 3917LEFL  Drug46764  19.216  15.311  18.401 -0.0335  0.1215 -0.1855
 3917LEFL  Drug46765  19.038  15.541  18.364 -0.1418  0.0510 -0.1055
 3917LEFL  Drug46766  19.011  15.555  18.554  0.4883  0.4726 -0.0327
 3917LEFL  Drug46767  19.151  15.614  18.749 -0.0795 -0.3600  0.2564
 3917LEFL  Drug46768  19.130  15.752  18.939 -0.0233 -0.0276 -0.2240
 3917LEFL  Drug46769  19.216  16.025  18.847 -0.2429  0.1033 -0.0452
 3917LEFL  Drug46770  19.005  15.912  19.028  0.2006 -0.1477  0.3249
 3917LEFL  Drug46771  18.994  16.137  19.101  0.3612 -0.0197 -0.0355
 3918LEFL  Drug46772  16.519  16.222  22.970 -0.0605 -0.0152 -0.4401
 3918LEFL  Drug46773  16.740  16.410  22.930  0.0039 -0.0190 -0.1120
 3918LEFL  Drug46774  16.774  16.416  23.120 -0.4636  0.2048 -0.0286
 3918LEFL  Drug46775  16.916  16.319  23.303 -0.2102 -0.1813  0.0688
 3918LEFL  Drug46776  16.893  16.400  23.530 -0.1693 -0.0292 -0.2418
 3918LEFL  Drug46777  16.894  16.668  23.393  0.2290  0.1379  0.0795
 3918LEFL  Drug46778  16.746  16.540  23.621 -0.0483  0.0409 -0.1529
 3918LEFL  Drug46779  16.611  16.734  23.602 -0.0677  0.0333 -0.0912
 3919LEFL  Drug46780  17.151  15.672  20.626  0.4433  0.1394 -0.0931
 3919LEFL  Drug46781  17.220  15.955  20.650  0.2324  0.1893 -0.0608
 3919LEFL  Drug46782  17.187  15.951  20.840  0.3702  0.1071 -0.0382
 3919LEFL  Drug46783  17.290  15.968  21.081 -0.7591 -0.3283  0.0143
 3919LEFL  Drug46784  17.295  15.901  21.324 -0.1739  0.0465  0.0464
 3919LEFL  Drug46785  17.041  15.807  21.455 -0.1469 -0.1507 -0.0407
 3919LEFL  Drug46786  17.296  15.682  21.361 -0.0721  0.0261 -0.0749
 3919LEFL  Drug46787  17.223  15.492  21.482  0.1602 -0.1985 -0.2806
 3920LEFL  Drug46788  20.100  15.217  23.167 -0.4470 -0.3130 -0.0122
 3920LEFL  Drug46789  19.957  15.423  23.319 -0.1582  0.0022 -0.1594
 3920LEFL  Drug46790  19.814  15.424  23.189 -0.3941 -0.2501  0.0922
 3920LEFL  Drug46791  19.620  15.279  23.209  0.2708  0.2505  0.2025
 3920LEFL  Drug46792  19.394  15.295  23.074  0.3597 -0.3001  0.1483
 3920LEFL  Drug46793  19.475  15.331  22.786  0.6089  0.1342  0.2676
 3920LEFL  Drug46794  19.436  15.508  23.026  0.4010 -0.2246  0.5032
 3920LEFL  Drug46795  19.546  15.664  22.884 -0.0036  0.0560  0.4921
 3921LEFL  Drug46796  15.929  20.521  19.108 -0.2741 -0.2355 -0.1740
 3921LEFL  Drug46797  16.163  20.404  18.975 -0.1330  0.1482 -0.2691
 3921LEFL  Drug46798  16.134  20.235  19.064  0.2192  0.1175 -0.2071
 3921LEFL  Drug46799  16.145  20.002  18.959 -0.1303  0.5473 -0.2974
 3921LEFL  Drug46800  16.160  19.904  18.736  0.2659 -0.4627  0.1076
 3921LEFL  Drug46801  15.996  19.670  18.643 -0.2361 -0.0418 -0.0898
 3921LEFL  Drug46802  16.179  19.871  18.517  0.1388 -0.2789  0.0678
 3921LEFL  Drug46803  16.095  19.797  18.309 -0.2324 -0.1474  0.1667
 3922LEFL  Drug46804  19.544  17.354  23.852  0.4136 -0.3153 -0.2079
 3922LEFL  Drug46805  19.546  17.123  24.032 -0.2067  0.0223  0.2495
 3922LEFL  Drug46806  19.380  17.180  24.112 -0.3032  0.3752 -0.1800
 3922LEFL  Drug46807  19.324  17.338  24.291  0.3481  0.0096 -0.1116
 3922LEFL  Drug46808  19.212  17.552  24.343 -0.1667  0.1974 -0.2088
 3922LEFL  Drug46809  18.992  17.475  24.533  0.0677  0.2329  0.0804
 3922LEFL  Drug46810  19.053  17.706  24.352 -0.2654  0.0963 -0.2118
 3922LEFL  Drug46811  18.862  17.798  24.459 -0.0245  0.0784  0.2469
 3923LEFL  Drug46812  14.541  16.516  22.366 -0.0269 -0.5534  0.3311
 3923LEFL  Drug46813  14.360  16.420  22.157 -0.0125 -0.2175  0.1613
 3923LEFL  Drug46814  14.208  16.499  22.247  0.0288 -0.0645  0.0965
 3923LEFL  Drug46815  14.000  16.614  22.352 -0.6255 -0.0132 -0.1599
 3923LEFL  Drug46816  13.844  16.798  22.258  0.1445  0.4720 -0.1164
 3923LEFL  Drug46817  13.634  17.011  22.224 -0.7620 -0.3977 -0.2000
 3923LEFL  Drug46818  13.772  16.810  22.049 -0.0748 -0.0446 -0.0801
 3923LEFL  Drug46819  13.621  16.886  21.883 -0.2085  0.2196  0.1598
 3924LEFL  Drug46820  15.051  16.869  19.519  0.0432 -0.1722  0.0196
 3924LEFL  Drug46821  14.864  16.795  19.305  0.0126  0.0863 -0.0454
 3924LEFL  Drug46822  15.010  16.747  19.189 -0.0151 -0.6194  0.1888
 3924LEFL  Drug46823  15.186  16.755  19.021  0.0924  0.0863  0.2220
 3924LEFL  Drug46824  15.418  16.744  18.956 -0.0003 -0.1368 -0.1906
 3924LEFL  Drug46825  15.672  16.583  18.938  0.5177  0.6392 -0.0735
 3924LEFL  Drug46826  15.577  16.852  18.846 -0.2585  0.3799 -0.0718
 3924LEFL  Drug46827  15.790  16.863  18.742 -0.1339  0.1959  0.1585
 3925LEFL  Drug46828  12.639  16.608  21.188 -0.3519  0.2149 -0.1751
 3925LEFL  Drug46829  12.821  16.750  21.007  0.1820  0.0352  0.2075
 3925LEFL  Drug46830  12.914  16.586  20.967 -0.0964 -0.1165  0.1687
 3925LEFL  Drug46831  12.972  16.362  20.927  0.1308 -0.0974  0.2766
 3925LEFL  Drug46832  12.973  16.133  21.022  0.1784 -0.4931  0.3568
 3925LEFL  Drug46833  13.177  16.072  20.810  0.0687  0.1777  0.0449
 3925LEFL  Drug46834  12.928  15.943  20.916  0.1738 -0.2091 -0.1698
 3925LEFL  Drug46835  12.932  15.817  20.716 -0.0013 -0.0713 -0.2612
 3926LEFL  Drug46836  15.063  16.647  21.761 -0.1263  0.1679 -0.5600
 3926LEFL  Drug46837  14.843  16.778  21.904  0.0973  0.1533 -0.1955
 3926LEFL  Drug46838  14.730  16.768  21.747 -0.2124  0.0140  0.0310
 3926LEFL  Drug46839  14.634  16.914  21.577 -0.0937  0.0225 -0.0391
 3926LEFL  Drug46840  14.418  16.880  21.448 -0.0617  0.2632  0.3421
 3926LEFL  Drug46841  14.232  16.762  21.243  0.6095  0.2156 -0.2562
 3926LEFL  Drug46842  14.345  16.679  21.508  0.3274 -0.0568 -0.2183
 3926LEFL  Drug46843  14.274  16.463  21.441 -0.0803 -0.0109  0.0468
 3927W        W46844   2.695   2.767  19.459 -0.0796  0.1912  0.1812
 3928W        W46845   0.465   1.006  16.811  0.3306 -0.0560 -0.2414
 3929W        W46846   1.395   1.322  18.279  0.0671 -0.2653 -0.0727
 3930W        W46847   1.266  34.475  16.522  0.0486 -0.0315 -0.0594
 3931W        W46848   1.276   2.660  19.115  0.2860  0.1822 -0.0591
 3932W        W46849   3.620   2.412  15.644  0.2721  0.3765  0.1982
 3933W        W46850   1.867  34.235  18.617 -0.2188 -0.0541  0.0851
 3934W        W46851   2.374   3.269  18.625 -0.0961  0.0106  0.0279
 3935W        W46852   2.390   2.459  18.093  0.1061 -0.2263 -0.0312
 3936W        W46853   2.415   1.086  15.515  0.1131  0.0609  0.0107
 3937W        W46854   0.239   3.615  20.421 -0.0076 -0.1411 -0.1764
 3938W        W46855  34.024   3.553  19.191  0.0519 -0.4641 -0.1578
 3939W        W46856   0.737  33.035  18.150  0.0823  0.1328  0.1381
 3940W        W46857  32.880  34.073  18.865 -0.1353 -0.0693 -0.2831
 3941W        W46858   3.209   2.656  19.536 -0.1443  0.2084  0.2204
 3942W        W46859   0.921   1.504  17.581 -0.0323  0.0525 -0.0042
 3943W        W46860   2.661   1.983  17.919 -0.2253 -0.0291  0.0146
 3944W        W46861   1.447   0.969  16.363  0.2320  0.4184  0.3480
 3945W        W46862   2.931   3.744  16.328  0.0838 -0.1079 -0.1164
 3946W        W46863  32.035   0.898  20.514  0.2918  0.0572  0.0246
 3947W        W46864   1.851  34.357  19.161  0.0536 -0.2858 -0.1507
 3948W        W46865   1.788   4.725  16.369 -0.0885 -0.3274  0.3340
 3949W        W46866   0.939   1.780  16.618 -0.3092 -0.4989  0.2138
 3950W        W46867   0.807   1.943  17.428 -0.4174 -0.1433  0.1853
 3951W        W46868   0.804   2.149  17.907  0.0387  0.2380  0.3519
 3952W        W46869   2.180   0.843  19.069  0.1370 -0.2085  0.1008
 3953W        W46870   0.435   1.882  18.323  0.0758 -0.2852 -0.2015
 3954W        W46871   2.663   4.527  15.885  0.2564  0.0642 -0.2786
 3955W        W46872   3.411  34.313  18.998  0.1656  0.0538  0.2355
 3956W        W46873   2.324   1.726  17.454 -0.0088  0.1598 -0.1631
 3957W        W46874  34.629   2.797  17.295  0.5723 -0.0444  0.1320
 3958W        W46875  34.469   3.245  17.527 -0.0455  0.1056 -0.2993
 3959W        W46876   1.892   2.309  16.954  0.1295  0.1393 -0.0928
 3960W        W46877   4.799   2.240  16.210  0.0176  0.0507 -0.1043
 3961W        W46878   4.546   3.562  17.227 -0.1873  0.1030  0.2188
 3962W        W46879   1.164   3.853  19.438 -0.2149 -0.1561  0.1579
 3963W        W46880   1.177   2.617  16.618  0.0757 -0.1667  0.2495
 3964W        W46881   3.176   4.649  20.227  0.0861 -0.1135 -0.3105
 3965W        W46882   1.434   4.466  18.693 -0.0635  0.0515 -0.2134
 3966W        W46883   1.103   2.403  17.510 -0.2140  0.2833 -0.0939
 3967W        W46884   2.744   2.804  18.235  0.2971  0.1841  0.0385
 3968W        W46885   1.924   3.475  17.506 -0.0144  0.1413  0.4695
 3969W        W46886   1.516   2.102  17.768 -0.0033 -0.0360  0.1832
 3970W        W46887   0.141   2.085  20.294  0.0192  0.0871 -0.1454
 3971W        W46888   0.647   1.487  16.908  0.4051  0.0586 -0.2035
 3972W        W46889   6.962  34.545  18.133  0.0897  0.4142 -0.1485
 3973W        W46890   1.506   2.670  16.968  0.0310  0.0148  0.0415
 3974W        W46891   2.764   1.388  15.801  0.0585 -0.1194  0.0672
 3975W        W46892   2.392  34.329  15.268  0.0801 -0.1549 -0.0941
 3976W        W46893   4.076   0.446  16.495  0.4740  0.0661 -0.0169
 3977W        W46894   2.104  34.068  17.139  0.3029 -0.0458  0.1260
 3978W        W46895   1.099   3.776  18.542 -0.0358 -0.2310  0.0849
 3979W        W46896   0.010   0.445  20.417  0.2644  0.1977  0.2968
 3980W        W46897   4.638   2.535  18.262  0.4688 -0.1781  0.1464
 3981W        W46898   1.509   2.626  17.880  0.0732 -0.0370 -0.0362
 3982W        W46899   0.030   3.045  19.070 -0.0077 -0.0066 -0.4579
 3983W        W46900   2.904   2.659  17.256 -0.0100 -0.1301 -0.0874
 3984W        W46901   1.422   1.401  17.421  0.1582 -0.3251  0.1441
 3985W        W46902   2.817   4.870  16.308  0.1350  0.0352  0.0321
 3986W        W46903   3.223   3.996  17.196 -0.2810  0.0061  0.2172
 3987W        W46904   3.068   2.832  16.461  0.0253 -0.2780  0.1781
 3988W        W46905   2.015   2.119  17.864  0.1503 -0.0600  0.2500
 3989W        W46906   0.563   4.278  18.298 -0.1435  0.0236  0.0813
 3990W        W46907   1.334   1.855  18.502 -0.0210  0.0529  0.1264
 3991W        W46908   0.673   0.545  16.720 -0.3244 -0.0380 -0.4039
 3992W        W46909   3.139   3.660  18.553 -0.1569 -0.1092  0.0242
 3993W        W46910  34.665   4.950  20.495  0.0292  0.0600 -0.0492
 3994W        W46911   3.682   0.351  18.483  0.1158  0.2274  0.0529
 3995W        W46912   0.653   2.855  19.327  0.0342  0.0142 -0.0265
 3996W        W46913   2.662   1.219  16.723  0.0870  0.2775 -0.4596
 3997W        W46914   3.430   2.048  15.898  0.1933 -0.0069 -0.0230
 3998W        W46915   3.397   2.141  19.207 -0.0378 -0.0667  0.1016
 3999W        W46916   1.730   1.035  19.040  0.2261  0.0502 -0.4481
 4000W        W46917   2.078   0.673  16.195  0.2473  0.2071  0.0185
 4001W        W46918   0.646   0.188  17.945  0.2414 -0.2056  0.3208
 4002W        W46919   5.564   3.918  16.365  0.1066 -0.0051 -0.2170
 4003W        W46920   3.271   1.273  15.396 -0.1866  0.1903 -0.0009
 4004W        W46921   2.426   3.164  18.064  0.4982  0.1291 -0.2956
 4005W        W46922   1.431   2.228  20.347 -0.0258  0.1418  0.0136
 4006W        W46923   2.974   4.018  18.882 -0.1665 -0.2391  0.1147
 4007W        W46924   1.395   3.373  16.159 -0.0250  0.1635 -0.1205
 4008W        W46925   1.956   3.229  18.144  0.0737 -0.0879 -0.1556
 4009W        W46926  33.728   2.747  16.178 -0.0598 -0.1960 -0.1470
 4010W        W46927  34.101   2.564  17.091 -0.2130  0.0496  0.0788
 4011W        W46928   1.329   1.620  17.860 -0.1636 -0.1525 -0.2590
 4012W        W46929   3.913   1.271  16.893 -0.0831  0.0197  0.0411
 4013W        W46930   0.756   0.109  18.480 -0.0629  0.0012  0.0447
 4014W        W46931   3.115  34.184  17.807 -0.1052 -0.1125  0.0004
 4015W        W46932   1.355   2.141  16.594  0.1865 -0.0063  0.1247
 4016W        W46933   3.081   5.670  16.581  0.1644  0.3008  0.2195
 4017W        W46934   3.273   2.205  17.204  0.1632 -0.1280 -0.2406
 4018W        W46935   4.681   4.312  16.284  0.0621 -0.0755 -0.1634
 4019W        W46936   0.540   1.215  18.469  0.0779 -0.2971 -0.0467
 4020W        W46937   0.489  34.503  18.188  0.3061  0.3771 -0.0736
 4021W        W46938  33.405   0.115  19.564 -0.0547 -0.1617  0.2238
 4022W        W46939  34.486   1.649  18.442 -0.3304  0.3761  0.1706
 4023W        W46940   1.977   3.603  18.452 -0.0655  0.1115 -0.1134
 4024W        W46941  33.969  33.744  16.646  0.1286 -0.1011 -0.0736
 4025W        W46942   2.518   1.089  18.747  0.3513 -0.2568  0.0950
 4026W        W46943   2.318   0.961  19.544  0.0014 -0.2241 -0.2498
 4027W        W46944   0.255   2.126  16.032 -0.1855  0.2723  0.1364
 4028W        W46945   2.191   0.443  18.752 -0.0246  0.3378 -0.0862
 4029W        W46946   1.759   3.681  15.809  0.0162  0.0390  0.2616
 4030W        W46947   4.319   4.986  19.734 -0.0478  0.3205 -0.2514
 4031W        W46948   5.558   2.942  18.223  0.0220 -0.1347 -0.0535
 4032W        W46949   1.390  33.676  19.314  0.3031  0.0931  0.1920
 4033W        W46950   0.339   2.400  19.305 -0.0244 -0.0971  0.1926
 4034W        W46951   3.188   2.555  16.881  0.0192  0.1031  0.0838
 4035W        W46952   1.151   3.524  16.608  0.3733  0.2103  0.0349
 4036W        W46953   0.962   0.508  17.090  0.0119  0.1863  0.0223
 4037W        W46954   3.442   2.564  17.576  0.0460 -0.0450 -0.0098
 4038W        W46955   3.753   2.280  16.771  0.0307 -0.0306  0.1668
 4039W        W46956   0.556   1.743  20.229  0.0115 -0.0377 -0.1704
 4040W        W46957   4.588   0.756  18.201 -0.0719  0.1203 -0.2166
 4041W        W46958   0.948   2.113  20.444 -0.2798 -0.0306  0.2320
 4042W        W46959   3.223   3.006  17.390  0.2018 -0.1535  0.2364
 4043W        W46960   0.216  34.490  16.861 -0.0571  0.0571  0.3572
 4044W        W46961   3.330   3.278  18.879 -0.1599 -0.3559  0.0336
 4045W        W46962   0.239   2.450  17.038  0.1265  0.0858  0.0737
 4046W        W46963  33.824   3.490  18.698 -0.1561  0.0105 -0.4060
 4047W        W46964   1.180   3.575  15.727 -0.1685 -0.2936 -0.0756
 4048W        W46965   1.325   0.937  17.293  0.1439  0.2934 -0.0359
 4049W        W46966   0.866   3.282  21.267 -0.0662  0.0884 -0.6143
 4050W        W46967   1.841   2.584  19.926 -0.0853  0.0194 -0.1228
 4051W        W46968   1.361   1.733  16.351  0.2327  0.0475  0.0549
 4052W        W46969   1.648   4.026  18.332 -0.3732  0.0366  0.2870
 4053W        W46970   0.280   0.457  17.039  0.0574  0.2005  0.2930
 4054W        W46971   3.707   2.893  15.702  0.4013  0.2628 -0.3538
 4055W        W46972   2.926   3.138  18.653  0.2008 -0.0530  0.0071
 4056W        W46973   2.585   1.756  16.652 -0.2126  0.2570  0.2349
 4057W        W46974   3.207   1.974  17.772 -0.0011  0.5996  0.0054
 4058W        W46975   3.493  33.672  16.419 -0.0990  0.2797 -0.1119
 4059W        W46976   0.747   1.437  21.158  0.1215 -0.0562 -0.0652
 4060W        W46977   2.348   2.616  16.368 -0.1195  0.0718  0.2432
 4061W        W46978   2.622   3.622  18.334 -0.0214  0.3142  0.2308
 4062W        W46979   1.968   1.120  17.454  0.2629  0.0107 -0.0603
 4063W        W46980   4.343   4.009  16.473 -0.0985  0.1359 -0.0120
 4064W        W46981  34.287   1.302  20.163  0.1066  0.0018 -0.0070
 4065W        W46982   0.764   2.519  21.681  0.2805  0.0439  0.3702
 4066W        W46983   3.160   4.184  18.424  0.1842 -0.0345 -0.2283
 4067W        W46984   1.465  34.079  19.537  0.1822 -0.3433 -0.1045
 4068W        W46985   1.770  34.586  16.094  0.4625  0.1188 -0.0874
 4069W        W46986   1.543   1.322  19.813  0.1701 -0.0835 -0.0858
 4070W        W46987  32.836   3.387  16.991 -0.1088  0.0560  0.1977
 4071W        W46988   1.454   2.424  19.604  0.2798 -0.0715  0.0172
 4072W        W46989   1.743   0.487  18.545  0.1380 -0.0264  0.1525
 4073W        W46990   3.283  33.907  17.295  0.1223  0.0899 -0.1437
 4074W        W46991   2.977   0.422  19.450  0.2701 -0.1094 -0.0263
 4075W        W46992   1.889   1.715  17.127  0.0412 -0.0778 -0.0106
 4076W        W46993   1.763   1.837  18.174  0.0633  0.0126 -0.0786
 4077W        W46994   1.249   1.302  16.677  0.0269  0.1484 -0.4321
 4078W        W46995   1.958   1.307  18.396  0.1055 -0.4474  0.1666
 4079W        W46996   0.111   1.619  19.751 -0.3760  0.0382  0.0454
 4080W        W46997   0.718   3.957  20.567  0.2731  0.0862  0.0712
 4081W        W46998   2.150   4.113  19.205 -0.1456  0.3813  0.1728
 4082W        W46999   2.119   0.848  18.527  0.1090 -0.2155 -0.0931
 4083W        W47000   1.383   0.842  18.679 -0.0465 -0.1105 -0.0072
 4084W        W47001   2.726   0.742  16.457  0.0558  0.1898  0.0046
 4085W        W47002   2.959   4.792  18.226  0.0673  0.0124  0.0136
 4086W        W47003   1.449   1.709  16.897  0.1167 -0.1751 -0.0492
 4087W        W47004   1.010   2.777  17.129  0.3174  0.1620  0.0447
 4088W        W47005   3.692   4.714  19.269  0.2275 -0.0145  0.1711
 4089W        W47006   2.418   4.410  17.483  0.0886 -0.1808 -0.1834
 4090W        W47007   3.057   3.619  19.299 -0.2589  0.0748  0.2821
 4091W        W47008   1.329   1.894  17.346  0.1468  0.2504 -0.2343
 4092W        W47009   5.112  33.868  19.725 -0.2908  0.0370  0.1698
 4093W        W47010   0.500   5.173  18.313  0.1352 -0.3115 -0.0537
 4094W        W47011   0.926   0.983  16.901 -0.5381  0.1763  0.2515
 4095W        W47012  34.557   1.330  16.154  0.0038  0.2886  0.0411
 4096W        W47013   3.404   0.673  15.733 -0.2200 -0.0333 -0.0795
 4097W        W47014   2.590   1.398  16.254 -0.2680 -0.1483 -0.0412
 4098W        W47015  34.188   2.068  20.407 -0.2396 -0.0768  0.1894
 4099W        W47016   0.518   1.835  19.180  0.0296 -0.1622 -0.2336
 4100W        W47017  34.174   1.558  19.711 -0.1674 -0.3248  0.1003
 4101W        W47018   2.182   4.078  18.277 -0.1137  0.0959 -0.1229
 4102W        W47019   3.576  34.474  15.691  0.2003  0.0444  0.0396
 4103W        W47020   2.647   4.088  18.421 -0.0583 -0.4347  0.1142
 4104W        W47021   0.752   3.550  19.679 -0.2675  0.3103 -0.1278
 4105W        W47022   1.350   0.436  17.326 -0.2102 -0.1557  0.0394
 4106W        W47023   1.614   1.817  19.499  0.2579  0.1162 -0.2442
 4107W        W47024   1.716   1.380  16.496  0.0048  0.2206  0.0466
 4108W        W47025   0.253   3.069  16.920  0.1658  0.0800 -0.2128
 4109W        W47026   1.039   3.120  19.220 -0.0645  0.2472 -0.0796
 4110W        W47027   1.027   2.483  15.691  0.1239  0.1670  0.1005
 4111W        W47028   0.100   2.836  17.807  0.0384  0.0681 -0.0060
 4112W        W47029   3.169   0.513  20.017  0.0997 -0.1258  0.0007
 4113W        W47030   2.200   1.666  18.728  0.0808  0.2013 -0.1925
 4114W        W47031   0.382   2.305  18.056 -0.1720 -0.2757 -0.1061
 4115W        W47032  34.184   1.178  18.986 -0.1949  0.3303  0.0215
 4116W        W47033   3.050   2.019  18.726  0.2385 -0.2412  0.0637
 4117W        W47034   3.686   2.707  18.283  0.3223  0.1608 -0.1278
 4118W        W47035   0.297   3.632  19.469  0.2380 -0.4340  0.0593
 4119W        W47036   2.936   2.635  18.722 -0.0941 -0.0973  0.3437
 4120W        W47037   2.187   1.710  18.079  0.1873 -0.2444 -0.2859
 4121W        W47038   4.713   3.671  16.741 -0.0257  0.2367  0.1467
 4122W        W47039   4.865   0.829  18.658  0.2365  0.0563  0.0127
 4123W        W47040   0.857   0.838  16.360  0.3096  0.3992  0.0299
 4124W        W47041   0.633   1.499  19.750  0.0748 -0.0622  0.1956
 4125W        W47042   1.796   0.635  15.775  0.0488  0.3512 -0.0343
 4126W        W47043   0.994  33.556  19.572 -0.4324 -0.3307  0.0693
 4127W        W47044   1.892   4.949  18.000  0.2331  0.0308 -0.0191
 4128W        W47045   2.973   2.358  17.663  0.3565 -0.0094  0.1252
 4129W        W47046   0.317   3.935  20.800  0.3723 -0.1581 -0.0723
 4130W        W47047   2.793   0.187  15.785  0.2496  0.2617 -0.0722
 4131W        W47048   2.551   2.152  16.215 -0.0737 -0.1839  0.0964
 4132W        W47049   1.241   0.645  16.034  0.3670  0.3941  0.1433
 4133W        W47050   4.093   0.679  20.174  0.0717  0.0142  0.1939
 4134W        W47051   1.704   1.253  17.894 -0.1149 -0.0686 -0.0775
 4135W        W47052   1.730   0.072  18.813 -0.2161  0.2580  0.2275
 4136W        W47053   2.414   1.465  19.124 -0.0438 -0.0275  0.1616
 4137W        W47054   4.252   3.279  17.530 -0.0649  0.0699  0.0908
 4138W        W47055   0.340  34.570  18.680 -0.0654  0.2416  0.1003
 4139W        W47056   2.399   5.472  19.623  0.1616 -0.0441 -0.0223
 4140W        W47057   0.795   1.353  20.525 -0.2113 -0.1712  0.4377
 4141W        W47058   2.014  33.200  16.299  0.0042  0.2864 -0.1651
 4142W        W47059   0.628   0.295  16.229  0.1280  0.2080 -0.1094
 4143W        W47060   1.742   2.700  19.286 -0.1119 -0.0494 -0.0557
 4144W        W47061   3.062   1.523  16.582 -0.1298 -0.1548 -0.0266
 4145W        W47062   2.005   3.277  16.376  0.2237  0.2210 -0.2582
 4146W        W47063   2.518   0.862  15.989  0.0162  0.1043  0.3590
 4147W        W47064  34.363   2.400  20.109  0.2298 -0.0430  0.2966
 4148W        W47065   2.704   2.551  16.674  0.3695 -0.4147  0.0777
 4149W        W47066   2.978   1.828  16.155 -0.1936  0.0746 -0.1279
 4150W        W47067   1.509   3.098  18.944  0.0272  0.0487  0.4185
 4151W        W47068   0.990  33.899  17.652  0.0022  0.2426  0.1558
 4152W        W47069   3.988   3.240  19.204  0.2169 -0.0811  0.1377
 4153W        W47070   1.725   1.255  17.014  0.0466 -0.0605 -0.1093
 4154W        W47071   4.210  34.443  18.810  0.0796 -0.0530  0.0855
 4155W        W47072   2.299   0.359  19.816  0.4255 -0.3701  0.2639
 4156W        W47073   3.809   1.821  19.566 -0.0238 -0.0387 -0.0198
 4157W        W47074   1.997  33.688  18.708 -0.0343  0.0356  0.0930
 4158W        W47075   3.803   3.575  17.837  0.2229  0.1097  0.1718
 4159W        W47076   2.962   0.594  18.048  0.0526 -0.2348 -0.1526
 4160W        W47077   3.174   2.710  17.996 -0.0625 -0.1518  0.0555
 4161W        W47078   2.308   1.054  16.435  0.0101 -0.0804  0.0395
 4162W        W47079   2.559   2.305  18.698  0.1400 -0.0938 -0.0754
 4163W        W47080  33.230   4.659  17.595 -0.1598 -0.0849  0.0372
 4164W        W47081   3.275   2.067  19.672  0.1771 -0.0323 -0.0611
 4165W        W47082   1.572   0.413  16.348  0.0026  0.1468  0.1168
 4166W        W47083   1.959   0.636  19.614  0.0710  0.2764 -0.0387
 4167W        W47084   1.313   3.355  17.681 -0.0095 -0.0962 -0.0973
 4168W        W47085   3.593   2.246  18.049  0.1580  0.0110  0.3063
 4169W        W47086   2.038   2.708  17.221  0.1009 -0.0393  0.0423
 4170W        W47087  34.176   1.862  17.713 -0.0839 -0.0906 -0.1444
 4171W        W47088   1.635   3.609  17.988 -0.0115  0.1605  0.1504
 4172W        W47089  34.348  33.378  18.854 -0.2929 -0.1822  0.1106
 4173W        W47090   1.867   1.698  17.669  0.1069 -0.0111 -0.0061
 4174W        W47091   1.375   2.928  19.513  0.0700 -0.0242 -0.1668
 4175W        W47092   3.401   3.189  17.881  0.2748 -0.1029 -0.1199
 4176W        W47093   0.601   1.099  17.811 -0.0828  0.2573 -0.3654
 4177W        W47094   1.066   0.623  19.489 -0.1371  0.0657  0.0384
 4178W        W47095   0.274   1.558  16.056 -0.1733 -0.1518  0.1765
 4179W        W47096  33.606  34.040  17.716 -0.1537  0.1689 -0.1407
 4180W        W47097   2.452   2.347  19.317  0.0423  0.1548  0.0864
 4181W        W47098   1.473   3.095  18.051 -0.0723  0.0752 -0.2351
 4182W        W47099   1.652   4.531  16.811  0.0643  0.1018  0.0790
 4183W        W47100  34.668  34.479  18.181  0.3393  0.1365 -0.4142
 4184W        W47101   0.889   2.525  19.623  0.1390 -0.1317 -0.0265
 4185W        W47102   0.714   3.307  17.682 -0.1823  0.3482  0.1888
 4186W        W47103   1.992   3.060  19.118  0.0104  0.1079  0.0801
 4187W        W47104   1.077   1.160  19.602 -0.2288 -0.1497  0.1159
 4188W        W47105   0.571   3.435  18.253 -0.0864  0.0588  0.0405
 4189W        W47106   5.818   3.445  19.667 -0.1158 -0.3024  0.1481
 4190W        W47107   2.767   3.174  17.308 -0.0972 -0.2257  0.1966
 4191W        W47108   0.938   3.327  18.715  0.0486 -0.0400  0.1031
 4192W        W47109  33.939   0.669  20.146  0.0183  0.1518 -0.0199
 4193W        W47110   2.901   0.910  20.219  0.2544 -0.0369 -0.2029
 4194W        W47111   1.586   1.420  18.720  0.2436  0.1838 -0.1904
 4195W        W47112  34.399   0.110  16.798  0.2543 -0.0667 -0.2600
 4196W        W47113   2.339   1.978  15.318  0.0340 -0.2069 -0.1313
 4197W        W47114   0.598   2.351  20.142 -0.1065 -0.3549  0.0390
 4198W        W47115   0.526   1.105  20.152  0.3463  0.1931  0.2962
 4199W        W47116   1.589   2.912  16.510  0.2639  0.2492 -0.0617
 4200W        W47117   1.541   2.254  18.212 -0.0964  0.0212  0.0179
 4201W        W47118   2.682   3.470  16.847  0.1055 -0.1554 -0.3305
 4202W        W47119   2.164   3.699  16.778 -0.4221 -0.0727 -0.0181
 4203W        W47120   1.543   0.184  15.765  0.0368 -0.1313  0.1354
 4204W        W47121   0.288   3.866  17.824  0.0526  0.3468 -0.1013
 4205W        W47122  32.583   2.183  16.870 -0.1299  0.0398  0.2083
 4206W        W47123   2.768   1.969  15.574 -0.0938 -0.0901 -0.0140
 4207W        W47124   1.499   3.576  17.052 -0.2298  0.0468 -0.1112
 4208W        W47125   4.423   4.385  16.760 -0.1808  0.0001 -0.0756
 4209W        W47126   2.304   0.520  16.590 -0.1015  0.0997  0.1066
 4210W        W47127   5.268   3.269  16.318  0.1162 -0.1283 -0.3541
 4211W        W47128   2.979  33.499  16.471 -0.0886  0.1273 -0.0008
 4212W        W47129   2.700   3.264  19.377 -0.1630  0.1923 -0.0934
 4213W        W47130  34.197   2.373  19.484 -0.1903 -0.2828  0.3220
 4214W        W47131  34.483  32.529  16.644 -0.0934  0.0055 -0.1857
 4215W        W47132   2.984   2.376  20.576  0.0412 -0.0901 -0.3160
 4216W        W47133   4.067   2.665  17.797 -0.1202 -0.1579  0.0173
 4217W        W47134  34.253   4.416  19.305 -0.1396  0.0718  0.1019
 4218W        W47135   2.192   3.600  19.135 -0.0462 -0.2821 -0.2698
 4219W        W47136   0.704   1.286  16.448  0.0531 -0.1790 -0.1451
 4220W        W47137   0.996   3.028  18.308  0.1260  0.0773 -0.0849
 4221W        W47138   4.724  34.577  18.822 -0.2517 -0.1076 -0.2490
 4222W        W47139   3.311   2.086  15.377 -0.0264 -0.0312 -0.2590
 4223W        W47140   1.109   1.269  18.684  0.2632  0.0094  0.0357
 4224W        W47141   2.750   3.540  15.308  0.2696 -0.2847 -0.1680
 4225W        W47142   2.248   3.656  17.998 -0.2786 -0.1020 -0.0576
 4226W        W47143   2.339   4.135  17.054 -0.1521  0.1006  0.0560
 4227W        W47144  33.566   0.463  16.441 -0.0138  0.1164  0.0404
 4228W        W47145   4.132   1.118  16.367 -0.0082  0.1631  0.0982
 4229W        W47146   1.209   1.106  17.813  0.2670 -0.1480  0.5058
 4230W        W47147   4.455   0.149  17.926 -0.0791  0.1155 -0.1842
 4231W        W47148  34.484   2.220  16.896  0.0067  0.0477 -0.0024
 4232W        W47149   1.897   2.926  17.651  0.2427 -0.2402 -0.0237
 4233W        W47150   1.999   2.292  19.465 -0.0531 -0.2031 -0.0446
 4234W        W47151  33.689   0.642  17.856 -0.1561 -0.3284 -0.2264
 4235W        W47152   2.094   2.183  17.381  0.3490  0.0207 -0.3232
 4236W        W47153   4.541   3.923  18.019 -0.2479  0.1145  0.0970
 4237W        W47154   3.367   0.702  16.273 -0.0286  0.3307 -0.2543
 4238W        W47155   2.812   4.448  20.688 -0.1345 -0.0015  0.0911
 4239W        W47156   0.940   1.498  19.180 -0.1432  0.0703 -0.0976
 4240W        W47157   1.893   2.600  18.206  0.0003  0.2607 -0.0676
 4241W        W47158   1.892   2.773  16.130 -0.0891 -0.0180  0.2284
 4242W        W47159   2.579   4.250  17.927  0.0933 -0.2112  0.3731
 4243W        W47160   3.729   4.323  19.633 -0.2461  0.1971  0.0911
 4244W        W47161   0.012   1.287  18.803 -0.1790 -0.0738 -0.0590
 4245W        W47162   1.890   1.895  16.651  0.1103 -0.1554 -0.2985
 4246W        W47163   2.211   0.975  16.921 -0.2021 -0.0492 -0.0591
 4247W        W47164   1.630   2.411  17.403 -0.1257  0.0438 -0.1311
 4248W        W47165   2.043   2.828  16.707 -0.0348 -0.0606 -0.0582
 4249W        W47166   3.292   3.031  18.328 -0.0453 -0.1424 -0.3998
 4250W        W47167  34.275  33.748  18.437  0.0206 -0.3319 -0.0613
 4251W        W47168   2.352   5.287  18.104  0.0008  0.3420 -0.0371
 4252W        W47169   3.192   3.473  17.034 -0.0974  0.2914 -0.1751
 4253W        W47170   0.256   0.231  16.575  0.0818 -0.0450 -0.1403
 4254W        W47171  34.606   2.768  19.788  0.1328 -0.2305  0.2642
 4255W        W47172   1.072   1.477  17.103 -0.0279  0.4766  0.5245
 4256W        W47173   3.623   1.775  17.593 -0.1918 -0.0407  0.0572
 4257W        W47174   3.454   3.969  17.652 -0.0988  0.1500  0.0846
 4258W        W47175   0.111   3.210  15.963 -0.0909  0.3756 -0.1210
 4259W        W47176   1.855  31.917  19.100 -0.0460 -0.0778 -0.1159
 4260W        W47177   3.454   3.921  18.868  0.2352  0.2179  0.3085
 4261W        W47178   0.876   4.110  18.949 -0.0418 -0.3992 -0.1194
 4262W        W47179  33.908   3.693  17.427  0.0199  0.1104  0.1436
 4263W        W47180   2.539   4.287  18.954  0.2309 -0.1531 -0.0962
 4264W        W47181   2.319   1.928  17.027  0.0131 -0.0023  0.2491
 4265W        W47182   1.453   3.844  16.175  0.1000 -0.1552 -0.1879
 4266W        W47183   5.805   2.719  17.473  0.3185  0.0576  0.1189
 4267W        W47184   0.664   0.062  16.924  0.1073  0.0781 -0.2292
 4268W        W47185   2.377   2.499  17.607 -0.2958  0.1864  0.0187
 4269W        W47186   1.027   2.109  19.349  0.2429 -0.0326  0.1229
 4270W        W47187   3.005   1.178  17.122  0.2422 -0.2419 -0.3856
 4271W        W47188   4.395   1.416  17.311  0.1857  0.3113 -0.0876
 4272W        W47189   1.618   3.903  19.323  0.1116  0.1436 -0.0193
 4273W        W47190  33.158   0.872  17.908  0.3156 -0.2466  0.1411
 4274W        W47191   1.132   1.671  15.901  0.1397 -0.2533  0.2395
 4275W        W47192   0.637   2.636  18.417  0.4683 -0.2330 -0.0526
 4276W        W47193   2.077  33.686  17.529 -0.0045  0.2017  0.1937
 4277W        W47194   0.166   0.183  19.607 -0.1047  0.2358 -0.1434
 4278W        W47195   0.606   3.878  17.367 -0.0848  0.0239  0.1219
 4279W        W47196  34.215  34.354  17.162 -0.1632 -0.0580  0.0509
 4280W        W47197   4.176   2.849  15.783 -0.3091  0.3422  0.0690
 4281W        W47198   0.004   2.048  19.034  0.1244  0.0974  0.0426
 4282W        W47199   0.416   0.454  18.682 -0.0592 -0.1276 -0.0532
 4283W        W47200   3.762   2.975  17.533 -0.2168 -0.0573  0.2238
 4284W        W47201   3.317   1.996  16.625 -0.0673 -0.0355  0.1696
 4285W        W47202  34.458   0.694  17.046 -0.4401  0.0215  0.0646
 4286W        W47203   4.273   3.688  20.748 -0.3318 -0.2536  0.2702
 4287W        W47204  34.217   3.122  16.573 -0.2245  0.0780 -0.1671
 4288W        W47205   1.765   2.105  19.909  0.2957 -0.1693  0.0289
 4289W        W47206   2.592   0.128  18.821 -0.0687  0.1928 -0.5433
 4290W        W47207  33.361  34.195  18.315  0.1155  0.1594  0.3142
 4291W        W47208   1.088   0.949  19.099  0.4365  0.0864 -0.0054
 4292W        W47209   2.925   3.340  18.024 -0.1890  0.0752  0.3729
 4293W        W47210   2.410   3.816  15.963  0.1411 -0.0968  0.0504
 4294W        W47211   2.922   4.404  19.248  0.0349  0.1995  0.0383
 4295W        W47212   2.850   2.248  18.311 -0.0461 -0.0542 -0.2010
 4296W        W47213   1.370  33.111  19.269  0.0628 -0.1465 -0.0505
 4297W        W47214   2.733   2.047  17.358 -0.0543  0.2260 -0.0331
 4298W        W47215   0.575   3.773  18.658 -0.0754  0.1542  0.0113
 4299W        W47216   3.351   2.694  16.022  0.0582 -0.0772  0.1668
 4300W        W47217   2.863   1.043  18.390 -0.1577  0.0102 -0.0863
 4301W        W47218   1.020   2.550  18.112 -0.0737 -0.2655 -0.1222
 4302W        W47219   3.028  34.036  18.586 -0.1437  0.1008  0.1367
 4303W        W47220  34.352   2.926  20.250  0.1477 -0.2329 -0.2833
 4304W        W47221   5.496   2.362  17.342 -0.0811 -0.0320 -0.1199
 4305W        W47222   0.582   2.947  17.290 -0.0053  0.2918 -0.0407
 4306W        W47223   1.713   2.477  18.774 -0.1973  0.0405  0.1302
 4307W        W47224   2.301   2.239  16.644 -0.0534  0.0678  0.3059
 4308W        W47225   1.607   0.842  18.207 -0.0382 -0.2722 -0.0892
 4309W        W47226   2.586   0.198  16.791  0.0351  0.0656 -0.1559
 4310W        W47227   2.161   2.746  19.530  0.1123  0.0789  0.2580
 4311W        W47228   3.288   4.629  16.426  0.0704 -0.1236  0.2255
 4312W        W47229   3.892   1.943  18.405  0.0442 -0.2374 -0.2204
 4313W        W47230   1.876   0.865  16.623  0.3437 -0.1469  0.1436
 4314W        W47231   3.607   2.256  16.290 -0.0329  0.3281 -0.1625
 4315W        W47232   1.778   2.585  21.264  0.0760  0.1137 -0.0269
 4316W        W47233   5.278   3.786  19.055 -0.0447  0.0095 -0.1072
 4317W        W47234   2.490   2.433  17.094 -0.2968  0.0158 -0.1531
 4318W        W47235   3.551   1.991  18.765 -0.0165 -0.1447 -0.0450
 4319W        W47236   0.518  33.209  18.961 -0.0877  0.0803 -0.0902
 4320W        W47237   0.689   0.801  15.857 -0.0251 -0.1979 -0.1941
 4321W        W47238   3.196   1.673  17.357  0.2372 -0.0003 -0.1245
 4322W        W47239   2.904   0.570  18.945  0.0372 -0.0969 -0.1246
 4323W        W47240   2.105   1.630  16.285  0.0582  0.0449  0.0620
 4324W        W47241   3.538   0.202  16.404 -0.0569  0.0974 -0.1580
 4325W        W47242   1.008   5.244  20.229  0.0241 -0.2814  0.2521
 4326W        W47243   2.937   3.968  17.626  0.1634  0.0734  0.0112
 4327W        W47244   1.286   1.937  22.120 -0.0482 -0.1596  0.3625
 4328W        W47245   1.115   1.654  19.631 -0.1601 -0.1018 -0.2041
 4329W        W47246   1.306  34.466  20.453  0.0453  0.1493  0.1912
 4330W        W47247   4.707   4.402  19.602  0.0184  0.1042  0.1416
 4331W        W47248   1.306   3.515  21.167  0.2259  0.0303 -0.0285
 4332W        W47249   1.830   4.215  20.737 -0.1536  0.1502 -0.0053
 4333W        W47250   2.577   0.121  23.509 -0.0396  0.0978 -0.3000
 4334W        W47251   3.193   2.001  21.103 -0.0257  0.1414  0.0591
 4335W        W47252   3.402   2.534  22.226  0.1418 -0.0665  0.0223
 4336W        W47253   4.421   1.920  18.083 -0.0639 -0.1999 -0.0790
 4337W        W47254   2.792   1.590  21.722  0.0720  0.3238 -0.0347
 4338W        W47255   2.516   4.982  20.700  0.1474  0.0304 -0.2737
 4339W        W47256   1.112   2.762  21.190 -0.1798 -0.1249 -0.1459
 4340W        W47257  34.147  34.665  21.679 -0.2626  0.1578 -0.0079
 4341W        W47258   0.943   1.614  22.203  0.0143 -0.1531 -0.3782
 4342W        W47259   3.420   2.257  20.693 -0.0035  0.1967  0.0123
 4343W        W47260  34.536   1.472  20.713 -0.0175 -0.0707  0.2603
 4344W        W47261  34.213   0.892  21.542 -0.1232 -0.1162 -0.2291
 4345W        W47262   2.329   3.303  22.254 -0.0499  0.3177  0.1166
 4346W        W47263   3.687  33.902  23.688  0.0312 -0.1282 -0.2006
 4347W        W47264   2.997   0.827  25.020 -0.2304 -0.1034 -0.1820
 4348W        W47265  34.194   0.910  20.636 -0.2284  0.0513 -0.0048
 4349W        W47266   4.251   0.752  21.169  0.2781 -0.3263  0.0211
 4350W        W47267   0.412   0.162  20.726  0.1321  0.0100  0.0798
 4351W        W47268   0.262   2.626  22.897 -0.0547 -0.2840  0.1224
 4352W        W47269   2.544   0.209  22.992 -0.1433  0.0701  0.2291
 4353W        W47270   4.724   3.556  20.418  0.4072  0.0205  0.1036
 4354W        W47271  34.042   3.779  22.802 -0.1609 -0.3763 -0.0653
 4355W        W47272   1.989   2.155  21.486 -0.0162 -0.2043  0.3044
 4356W        W47273   3.141   1.381  23.530  0.0462 -0.0051  0.0808
 4357W        W47274  34.082   2.741  19.824  0.0931 -0.0170 -0.0564
 4358W        W47275   1.358   4.026  18.881 -0.0276  0.0574 -0.1565
 4359W        W47276   1.720   3.411  21.423  0.1368 -0.1907  0.1083
 4360W        W47277   3.227   1.387  20.352  0.0121 -0.0662  0.1309
 4361W        W47278   3.790   3.504  24.300 -0.1139 -0.2796 -0.2362
 4362W        W47279   0.836   3.222  23.316 -0.1882 -0.2603  0.0913
 4363W        W47280   0.960   0.838  20.303  0.3539  0.0465  0.0943
 4364W        W47281   1.324   3.302  22.423  0.2290  0.0354  0.0724
 4365W        W47282   2.329   4.462  22.735 -0.0334 -0.2911  0.0280
 4366W        W47283   3.880   1.173  21.114  0.0182 -0.0400 -0.4895
 4367W        W47284   2.935   2.011  21.539  0.1245  0.1663 -0.0758
 4368W        W47285  33.996   0.823  21.113 -0.1348  0.0580  0.1075
 4369W        W47286   2.439   0.981  20.946 -0.2487  0.3531 -0.1302
 4370W        W47287   1.072   4.459  23.085  0.4041  0.1673 -0.0330
 4371W        W47288   0.688   1.999  21.972  0.0006  0.3952  0.1351
 4372W        W47289   1.953  34.215  24.416 -0.0865 -0.5235 -0.2026
 4373W        W47290  34.124   3.951  19.453  0.0084 -0.2798  0.4272
 4374W        W47291   3.748   2.522  19.568  0.0426 -0.0038 -0.0274
 4375W        W47292   1.889   0.085  19.635 -0.3252  0.0952  0.0384
 4376W        W47293   4.779   0.304  17.375  0.3011 -0.0220 -0.0464
 4377W        W47294   1.596  33.316  22.677  0.3066 -0.1357  0.4573
 4378W        W47295   2.436   1.257  22.466  0.0293 -0.1181  0.1101
 4379W        W47296   3.971   2.800  21.246 -0.0490  0.1044  0.1776
 4380W        W47297   2.069   2.789  22.216  0.0019  0.2266  0.2242
 4381W        W47298   0.229   0.582  19.980 -0.0712  0.3455  0.2074
 4382W        W47299   2.023   2.328  20.325  0.0908 -0.0071  0.0299
 4383W        W47300   2.816   4.247  22.603  0.1697 -0.1122 -0.1439
 4384W        W47301   0.885   2.079  22.503  0.2254 -0.1829  0.0044
 4385W        W47302   3.900   3.982  19.928  0.1119  0.0468  0.2748
 4386W        W47303   2.340   3.617  20.792  0.2690  0.0333 -0.1335
 4387W        W47304   1.849   4.078  18.776 -0.0725 -0.1051 -0.1653
 4388W        W47305   1.398   2.007  20.817  0.1356  0.0562  0.0829
 4389W        W47306  33.592   2.031  23.790 -0.0312  0.2483  0.0287
 4390W        W47307  34.252   1.371  23.721  0.0396 -0.0138 -0.0293
 4391W        W47308   1.160  34.042  20.127 -0.0827  0.2761 -0.1547
 4392W        W47309   3.559   1.154  24.302  0.2063  0.3095  0.1741
 4393W        W47310   1.979   2.386  23.927  0.1288  0.0847  0.2165
 4394W        W47311   3.221   0.743  18.597  0.0803  0.1458  0.0798
 4395W        W47312   0.516   2.268  20.640  0.0769  0.3660  0.2346
 4396W        W47313   3.167   5.192  21.412 -0.0551  0.1249 -0.1851
 4397W        W47314   4.677   2.992  18.555 -0.1526  0.4710  0.1351
 4398W        W47315   3.784   1.161  20.253  0.0597  0.2488  0.0995
 4399W        W47316   3.411  33.486  21.221 -0.0567  0.0095  0.0081
 4400W        W47317   2.265   2.191  19.908  0.0552 -0.1136 -0.2785
 4401W        W47318   1.400   2.780  19.990 -0.3232 -0.1233  0.0520
 4402W        W47319   2.628  34.516  22.581 -0.0097  0.0839 -0.1237
 4403W        W47320   5.013   3.001  20.736 -0.1026 -0.1865 -0.0035
 4404W        W47321   1.222   3.807  22.587 -0.0492 -0.0974 -0.4670
 4405W        W47322   3.610   1.092  23.682 -0.0204  0.2495  0.2696
 4406W        W47323   1.095   2.715  22.711  0.2191  0.0522 -0.2314
 4407W        W47324   1.744   4.376  19.683  0.0445  0.1402 -0.0274
 4408W        W47325   1.543   3.349  20.154 -0.1552  0.0272  0.0640
 4409W        W47326   0.130   0.995  19.813 -0.2023  0.1202 -0.2183
 4410W        W47327   1.472   1.131  23.490 -0.0773  0.0148  0.0697
 4411W        W47328   2.195   3.083  19.963 -0.1966  0.0006 -0.0982
 4412W        W47329   2.176   0.069  19.106 -0.1370  0.0857  0.2503
 4413W        W47330  34.543   0.425  24.111  0.1228  0.1934  0.0315
 4414W        W47331   4.943  34.230  20.041 -0.0162  0.0389  0.4096
 4415W        W47332   0.071   0.704  20.870  0.1650  0.3054  0.0456
 4416W        W47333   3.875   5.046  20.800 -0.0324 -0.0021 -0.2081
 4417W        W47334   2.322  34.223  18.987  0.0247 -0.3498 -0.0984
 4418W        W47335   4.920   4.129  22.018  0.1841  0.1027 -0.2828
 4419W        W47336   1.553  34.642  23.429  0.1078 -0.2569 -0.0962
 4420W        W47337   2.570   0.278  17.747 -0.0200 -0.0637  0.0306
 4421W        W47338   1.928   0.819  21.970 -0.1160 -0.0961  0.1223
 4422W        W47339   0.320   2.963  22.363 -0.0377 -0.1234 -0.1999
 4423W        W47340   4.493   0.775  22.503 -0.0853  0.0276 -0.0241
 4424W        W47341   1.237   1.532  20.550  0.0509  0.1034 -0.0234
 4425W        W47342   1.498   0.433  19.607 -0.1699  0.1397  0.0205
 4426W        W47343   3.014   1.648  20.007  0.0361  0.2811  0.0890
 4427W        W47344  33.719   2.607  21.301 -0.0598 -0.4209 -0.2282
 4428W        W47345   3.445   0.978  21.197 -0.0229 -0.1209 -0.0746
 4429W        W47346   1.633   4.326  21.719 -0.2258  0.2354  0.1074
 4430W        W47347   2.937   3.415  22.137  0.0664 -0.0054  0.0334
 4431W        W47348   3.540   3.032  19.304  0.0029 -0.0142 -0.3453
 4432W        W47349   2.723   0.160  20.137 -0.0390  0.1561 -0.1445
 4433W        W47350   1.310   2.334  21.228 -0.0256 -0.0662 -0.2655
 4434W        W47351   0.424   4.050  19.240  0.1627  0.1885 -0.1532
 4435W        W47352   2.692   2.236  20.152  0.4705  0.1470 -0.0194
 4436W        W47353   1.578   0.211  20.080 -0.1157  0.1265 -0.2244
 4437W        W47354   2.648   3.814  21.418 -0.0268  0.0388  0.1438
 4438W        W47355   2.448   2.653  19.934  0.0210 -0.0389 -0.0288
 4439W        W47356   1.334   1.357  22.440  0.1029  0.1952 -0.1027
 4440W        W47357   2.415   0.827  22.149  0.1660 -0.0272 -0.1157
 4441W        W47358   1.496   2.754  22.464  0.0170  0.0043 -0.3275
 4442W        W47359   2.433   0.602  20.489  0.1581  0.0541  0.0900
 4443W        W47360   1.890   0.186  20.502  0.0716  0.0388  0.0598
 4444W        W47361   2.253   3.550  21.256  0.0526  0.0975  0.0940
 4445W        W47362  33.388   3.297  22.134 -0.2018  0.1383 -0.1428
 4446W        W47363   0.491   0.710  20.459 -0.3088 -0.1036  0.1402
 4447W        W47364   1.621   1.789  22.460 -0.1352 -0.1010  0.0779
 4448W        W47365   3.365   0.874  20.371 -0.1998  0.0416 -0.1594
 4449W        W47366   0.428   1.185  23.762  0.1013  0.0765  0.0224
 4450W        W47367   1.970   1.165  24.725 -0.2543  0.0737  0.1936
 4451W        W47368  33.737   2.112  21.467  0.0579  0.0536 -0.1014
 4452W        W47369   0.865   4.806  22.345 -0.1575 -0.4246  0.0878
 4453W        W47370   2.733   0.590  20.850  0.2185  0.2477  0.2384
 4454W        W47371   4.009   2.616  20.033  0.5270 -0.0229 -0.3409
 4455W        W47372   2.367   2.449  22.020  0.1150  0.1136  0.1434
 4456W        W47373   3.758   1.584  19.182  0.1241 -0.2398  0.2924
 4457W        W47374   3.980   3.075  18.059 -0.1111 -0.0639  0.0986
 4458W        W47375   3.755  32.231  19.791 -0.2964 -0.0549  0.1948
 4459W        W47376  33.948   2.196  21.944 -0.2039  0.1041  0.0607
 4460W        W47377   1.009   3.109  20.763  0.0327 -0.1509 -0.0905
 4461W        W47378   3.021   1.728  23.175  0.1914  0.1366 -0.4418
 4462W        W47379   2.478   0.437  19.325 -0.0833 -0.2139 -0.1340
 4463W        W47380   2.851   3.102  20.656 -0.1007 -0.2362  0.1992
 4464W        W47381   1.913   0.265  23.735  0.1350  0.1813  0.2824
 4465W        W47382   2.155   2.868  24.006 -0.0495 -0.0482 -0.0990
 4466W        W47383   2.566   3.644  19.725  0.1619  0.0428 -0.0922
 4467W        W47384   0.511  34.567  21.488 -0.1049  0.2211  0.4401
 4468W        W47385   2.017   0.872  18.027  0.1026 -0.1074  0.0409
 4469W        W47386   1.564   0.838  20.299  0.1868 -0.2294  0.3980
 4470W        W47387  34.241   2.760  17.678  0.1290 -0.1306 -0.0627
 4471W        W47388   5.122   0.138  21.752  0.1535 -0.0223  0.2891
 4472W        W47389   3.737   2.017  21.483 -0.1557 -0.0530 -0.4236
 4473W        W47390   2.305  34.026  24.841 -0.3498 -0.1024  0.0582
 4474W        W47391   3.775   1.381  22.244  0.3953 -0.0008  0.0099
 4475W        W47392   4.270   1.924  19.385 -0.1798 -0.4886  0.2281
 4476W        W47393   3.585   1.596  20.039 -0.0584 -0.0087 -0.0916
 4477W        W47394   0.645   1.102  19.357  0.0648 -0.1121 -0.0483
 4478W        W47395   4.599   1.438  20.987  0.0556 -0.1091 -0.2702
 4479W        W47396   0.448   2.414  22.069 -0.3589 -0.5047  0.2675
 4480W        W47397   1.823   2.614  23.523 -0.3363 -0.2012  0.2152
 4481W        W47398   2.968   3.141  24.847  0.1108 -0.2401 -0.0655
 4482W        W47399   1.967   3.766  20.506 -0.0926  0.1158  0.2453
 4483W        W47400   2.976   1.422  24.966 -0.0287  0.1486  0.0981
 4484W        W47401   2.190  34.657  18.530  0.1189  0.3565 -0.2561
 4485W        W47402   1.749   4.447  19.113 -0.1460 -0.0267 -0.0503
 4486W        W47403   0.878   3.061  19.708 -0.1413 -0.2116 -0.0774
 4487W        W47404   2.224  33.829  21.219 -0.2423 -0.1152  0.3306
 4488W        W47405   2.099   2.662  21.679  0.0943  0.0195  0.2621
 4489W        W47406  33.778   1.446  19.386 -0.1991  0.3903 -0.3710
 4490W        W47407   3.432   1.965  24.266  0.0024 -0.0181  0.2214
 4491W        W47408   2.224   1.989  20.679  0.0423 -0.2735 -0.0818
 4492W        W47409   3.188   0.309  24.859  0.1608  0.2303 -0.1025
 4493W        W47410   0.187   2.665  20.756 -0.0938  0.0008  0.1951
 4494W        W47411   0.103   2.245  19.829 -0.4464  0.1280  0.2559
 4495W        W47412   2.120   1.406  20.785  0.0740  0.2693 -0.0519
 4496W        W47413   2.127   1.376  25.181 -0.2566 -0.0343 -0.1349
 4497W        W47414   4.576   2.599  20.088 -0.0367 -0.0259  0.1674
 4498W        W47415   2.064   0.437  22.351  0.0994 -0.2666 -0.1081
 4499W        W47416   3.486  32.525  20.919  0.2091  0.1583  0.2086
 4500W        W47417   2.422   2.109  22.429 -0.2282 -0.1200  0.1767
 4501W        W47418   4.169   2.714  22.707 -0.2974  0.4000 -0.2625
 4502W        W47419   2.717  33.186  19.284  0.1921  0.0738 -0.1769
 4503W        W47420   1.657   3.330  22.823  0.1545  0.1121  0.0032
 4504W        W47421   1.469   2.324  23.771  0.3391  0.1769 -0.0829
 4505W        W47422  33.536   1.088  23.237 -0.0081  0.0180  0.1322
 4506W        W47423   3.500   1.564  23.878 -0.1448 -0.1510 -0.2210
 4507W        W47424  33.030   0.890  21.564  0.0173 -0.0568  0.2548
 4508W        W47425  34.529   2.108  21.308 -0.0224  0.2259 -0.4488
 4509W        W47426   1.810   2.286  20.796 -0.3851 -0.2198  0.2551
 4510W        W47427   2.557   1.851  21.242  0.0615 -0.2846 -0.3076
 4511W        W47428   1.193   1.776  22.751  0.1444 -0.0468  0.0613
 4512W        W47429   3.419   1.220  20.769 -0.3173 -0.0184  0.2967
 4513W        W47430   3.780   3.503  20.702  0.1179 -0.1431 -0.1161
 4514W        W47431   3.262   0.345  21.996  0.0195 -0.1321 -0.4176
 4515W        W47432   0.218   1.687  23.067  0.0834  0.1466 -0.0990
 4516W        W47433   1.729   1.840  20.460  0.0674 -0.0914  0.0336
 4517W        W47434   3.600   3.658  20.254  0.3081 -0.0391  0.1233
 4518W        W47435   2.656   1.671  22.288 -0.3523  0.2359  0.1750
 4519W        W47436   0.845   4.287  23.698 -0.0994 -0.0742 -0.2275
 4520W        W47437   3.374   0.663  20.826 -0.1064  0.0113 -0.2157
 4521W        W47438   2.955   3.940  19.664 -0.1494 -0.1550 -0.1687
 4522W        W47439   4.240   2.564  23.298 -0.1116 -0.1456 -0.1573
 4523W        W47440  32.908   3.494  20.994 -0.1719 -0.2722  0.0210
 4524W        W47441   0.601   1.800  21.459  0.1113 -0.0422 -0.2176
 4525W        W47442   0.671   2.760  20.728 -0.0249  0.1707 -0.3637
 4526W        W47443   2.538   0.534  21.323 -0.1402  0.0338  0.1263
 4527W        W47444   0.356   2.095  22.805  0.1124 -0.3137 -0.3233
 4528W        W47445   1.637   3.545  21.956 -0.0072  0.2366  0.2076
 4529W        W47446   1.456   1.556  21.448 -0.3822 -0.0662 -0.3704
 4530W        W47447   2.484  33.485  20.133 -0.3209  0.0537  0.0877
 4531W        W47448   1.699   5.425  20.795  0.0349 -0.1907 -0.1209
 4532W        W47449   0.704   2.251  21.203 -0.2027 -0.1934  0.0574
 4533W        W47450   3.156   2.379  23.543  0.1988 -0.0662  0.2155
 4534W        W47451   3.156  34.534  18.591  0.4065  0.2397 -0.0819
 4535W        W47452   2.962   0.365  23.448 -0.1759  0.0120 -0.0904
 4536W        W47453   3.660  34.256  20.762 -0.1948 -0.1312 -0.1178
 4537W        W47454   2.525   2.929  19.037 -0.1162  0.0992  0.1866
 4538W        W47455   0.675   2.097  23.335  0.1198  0.0244  0.3901
 4539W        W47456   2.006   2.448  23.057 -0.0983  0.0524 -0.5007
 4540W        W47457   2.499   1.955  21.957  0.4221  0.4729  0.0922
 4541W        W47458   2.979  33.438  18.936  0.1024  0.1413  0.0910
 4542W        W47459   1.373  34.552  19.658  0.0036 -0.1431 -0.3479
 4543W        W47460   2.717   1.054  21.714  0.2240  0.2203 -0.0633
 4544W        W47461   0.333   3.106  20.049  0.3040  0.0057  0.1877
 4545W        W47462   2.138   2.600  18.995 -0.1856 -0.2553 -0.1171
 4546W        W47463   2.525  33.660  19.037 -0.2391 -0.0916  0.0094
 4547W        W47464   0.915   0.704  21.436 -0.0206 -0.2121  0.1759
 4548W        W47465   3.465   2.335  21.214  0.0383  0.2780  0.0686
 4549W        W47466   3.397   1.564  19.535  0.1658  0.0520 -0.1269
 4550W        W47467  33.329   2.081  20.599  0.0826 -0.1625  0.0092
 4551W        W47468   2.705   0.546  21.790  0.1964  0.1084 -0.0243
 4552W        W47469   4.024   1.663  20.179 -0.1052 -0.0639 -0.3351
 4553W        W47470   2.719  34.322  20.927  0.1938  0.1607  0.3622
 4554W        W47471   2.963   1.028  20.713  0.2170  0.2921  0.2550
 4555W        W47472   1.633   2.495  22.076 -0.1853  0.0950  0.2882
 4556W        W47473   2.196   1.337  21.931 -0.2361  0.0922 -0.0349
 4557W        W47474   0.977   2.392  23.534 -0.0241 -0.1170 -0.0266
 4558W        W47475   3.115   4.615  23.681 -0.1522  0.3204 -0.1037
 4559W        W47476   1.459   3.941  20.393  0.2145 -0.0220 -0.0499
 4560W        W47477   4.038   2.810  22.204 -0.0926 -0.1074 -0.1166
 4561W        W47478   4.022   0.934  21.609  0.1123 -0.0052  0.0547
 4562W        W47479   2.470   0.921  18.120 -0.0229  0.1936 -0.0076
 4563W        W47480   0.637   0.607  22.459 -0.1470 -0.0951 -0.1465
 4564W        W47481   2.819   2.828  20.221  0.0723 -0.4347 -0.0824
 4565W        W47482   0.148  34.289  19.448 -0.0202 -0.1309  0.1609
 4566W        W47483   3.299   2.138  22.597  0.2373 -0.2292 -0.2406
 4567W        W47484   2.224   4.902  18.931 -0.0624  0.1063  0.0705
 4568W        W47485   3.004   1.509  21.163  0.1678  0.1466  0.3102
 4569W        W47486   0.941   0.633  18.751 -0.2115 -0.0294  0.0304
 4570W        W47487  34.497   2.241  21.782 -0.0258  0.0956 -0.1188
 4571W        W47488   1.837   4.748  23.507 -0.0204 -0.0961  0.2299
 4572W        W47489  34.393   1.138  19.446 -0.3147  0.0078 -0.2967
 4573W        W47490   1.530   2.212  19.146  0.0008  0.2002 -0.1542
 4574W        W47491   2.486   2.303  21.567 -0.2884  0.1092  0.2713
 4575W        W47492   2.991   2.940  25.282 -0.2596  0.0535  0.1920
 4576W        W47493   3.184   0.081  19.750 -0.0016  0.0933  0.0624
 4577W        W47494   2.155   1.743  23.418 -0.0768  0.0323  0.1769
 4578W        W47495   0.043   3.500  20.899  0.1807 -0.0529 -0.0418
 4579W        W47496   3.333   1.605  22.469  0.0515  0.0332  0.0858
 4580W        W47497   1.772   3.059  19.756  0.0974 -0.3939  0.0582
 4581W        W47498  34.288   2.619  23.611  0.0061  0.3999  0.0146
 4582W        W47499   1.350   2.595  21.657 -0.0464  0.1132 -0.0725
 4583W        W47500   3.163   1.227  21.538  0.2983 -0.0390  0.0054
 4584W        W47501   1.272   3.430  19.697 -0.0106 -0.1883  0.1543
 4585W        W47502   3.020   0.438  20.469 -0.1203 -0.1778 -0.0187
 4586W        W47503   3.324   2.341  21.647 -0.3181  0.2192 -0.0688
 4587W        W47504   1.426   2.754  20.750  0.0617 -0.0092 -0.0215
 4588W        W47505   3.509   1.484  21.179  0.1439  0.4516 -0.0446
 4589W        W47506   2.043   0.867  22.580  0.1567 -0.0292  0.1796
 4590W        W47507   2.633   1.505  20.833 -0.1203 -0.1491 -0.0554
 4591W        W47508   2.495   1.313  19.877  0.2336  0.1161 -0.2233
 4592W        W47509   0.812   0.841  24.339 -0.0409 -0.0486 -0.2673
 4593W        W47510   3.377   1.917  23.542  0.0065  0.1441  0.1996
 4594W        W47511   1.547   5.363  19.928 -0.1305  0.1874 -0.0258
 4595W        W47512   1.940   1.302  19.424 -0.2116  0.1126 -0.3324
 4596W        W47513   1.094   2.598  20.401  0.0150  0.0614  0.0472
 4597W        W47514  33.275   2.894  23.552  0.1635  0.1125  0.1534
 4598W        W47515   1.053   1.882  21.227 -0.0412 -0.3745 -0.2176
 4599W        W47516   0.261   3.800  21.856  0.3886  0.0435 -0.0270
 4600W        W47517   3.653   4.508  18.753  0.0371 -0.0763  0.0406
 4601W        W47518   2.881   1.946  19.347 -0.1730  0.1540 -0.2223
 4602W        W47519   2.166   4.321  23.597 -0.1547  0.1830  0.1834
 4603W        W47520   1.439   1.323  19.305  0.0240 -0.2002  0.2001
 4604W        W47521   0.439   1.583  22.404  0.0530 -0.0233 -0.4117
 4605W        W47522  32.544   1.892  19.876  0.0845  0.1129  0.1782
 4606W        W47523   2.232   4.698  19.880  0.1460  0.4460  0.1112
 4607W        W47524   1.993   2.127  21.971 -0.1496 -0.0303  0.0601
 4608W        W47525   3.050   1.731  23.906  0.0204 -0.0919 -0.0868
 4609W        W47526   3.515  34.462  18.039  0.2700  0.2638  0.1260
 4610W        W47527   1.727   2.764  20.386 -0.2045  0.2195 -0.0276
 4611W        W47528   5.158   2.725  19.736  0.0323  0.4097 -0.0132
 4612W        W47529  34.670   3.014  23.654 -0.1124 -0.1509  0.0990
 4613W        W47530   1.035   2.144  21.634 -0.1066 -0.3253  0.0891
 4614W        W47531   1.411   0.524  19.075  0.1217 -0.1578  0.3427
 4615W        W47532   2.652  34.494  23.990  0.1229  0.1029 -0.0173
 4616W        W47533   3.643   1.145  22.686 -0.0394  0.2358  0.2899
 4617W        W47534   2.219   0.449  23.394 -0.2302 -0.0131 -0.1242
 4618W        W47535   2.469   3.675  20.227  0.0963 -0.0702 -0.1365
 4619W        W47536  33.763   1.095  20.417 -0.1608  0.0804 -0.1781
 4620W        W47537   2.426   0.104  20.757 -0.2812  0.0870  0.2382
 4621W        W47538   6.909   1.164  21.335  0.0716  0.2415 -0.0338
 4622W        W47539   1.906   3.068  18.656 -0.0170 -0.0779 -0.2106
 4623W        W47540   3.806   0.529  21.075 -0.1978 -0.0649  0.0278
 4624W        W47541   2.666   5.256  21.139 -0.0713  0.1373  0.1554
 4625W        W47542   0.627   2.815  21.317 -0.1050 -0.0659 -0.1510
 4626W        W47543  34.282   3.658  21.919 -0.0898  0.0027 -0.1173
 4627W        W47544   2.512   1.331  21.304  0.0250  0.1181 -0.0859
 4628W        W47545   3.943   0.916  22.120  0.0362 -0.1426  0.1593
 4629W        W47546   3.922   2.364  20.869  0.1713  0.0052  0.1274
 4630W        W47547   5.445   0.595  21.042  0.2003 -0.1652 -0.2603
 4631W        W47548   1.593   0.910  19.507  0.2566 -0.1538 -0.0545
 4632W        W47549   3.703   0.446  20.490  0.2074  0.0676 -0.2409
 4633W        W47550   1.795   3.175  22.327 -0.1018  0.3353  0.2116
 4634W        W47551   1.855   0.614  21.372 -0.1080 -0.2883 -0.1961
 4635W        W47552   4.442   0.271  21.211  0.0634  0.0106 -0.1048
 4636W        W47553   3.171   1.109  23.981 -0.0472 -0.1712  0.1737
 4637W        W47554   2.595   1.814  19.737 -0.2127 -0.2817 -0.0319
 4638W        W47555   1.723   4.546  22.200  0.4477  0.3169  0.1742
 4639W        W47556   0.324   3.099  20.523  0.0488  0.2071  0.4638
 4640W        W47557   3.074  34.617  19.171  0.3898 -0.1448  0.0662
 4641W        W47558   0.921   1.148  22.045  0.1555 -0.1264 -0.0103
 4642W        W47559   2.489   2.552  23.231  0.3156 -0.0513 -0.0135
 4643W        W47560   2.630   3.139  23.899  0.1519 -0.1071  0.1543
 4644W        W47561   2.214  34.297  20.921  0.2973  0.2501  0.3579
 4645W        W47562   4.659   4.869  18.203  0.1320 -0.2887 -0.5812
 4646W        W47563   2.702   2.180  20.904  0.0458  0.1271  0.0052
 4647W        W47564   0.789   3.713  19.190 -0.0286 -0.0864 -0.2096
 4648W        W47565   2.677   4.569  18.561  0.0571 -0.2750 -0.0601
 4649W        W47566   1.756   1.713  23.785 -0.0793 -0.2384 -0.2635
 4650W        W47567   2.891   0.942  21.230 -0.2185 -0.0726 -0.1293
 4651W        W47568   2.443   2.967  21.836 -0.2686  0.2135  0.1725
 4652W        W47569   3.010   2.548  21.308  0.1603  0.0837 -0.3815
 4653W        W47570   2.201  34.145  18.221  0.1595  0.0167  0.2279
 4654W        W47571   1.009   1.618  21.673  0.2914  0.0274  0.2289
 4655W        W47572  33.717   2.174  20.210  0.0135  0.0193  0.0211
 4656W        W47573   2.890  33.525  20.569  0.1830  0.2403  0.0187
 4657W        W47574   3.643   0.676  21.747 -0.1725  0.2392 -0.0359
 4658W        W47575   1.572   3.813  19.807  0.0287  0.2927 -0.4875
 4659W        W47576   3.215   0.063  25.736 -0.0275  0.5394 -0.2488
 4660W        W47577   2.469   3.507  23.032 -0.1245  0.4577 -0.1298
 4661W        W47578   0.568   2.565  23.246  0.2454 -0.2145 -0.0656
 4662W        W47579  33.628   2.567  19.826  0.0206 -0.0516  0.0628
 4663W        W47580   0.219   1.526  21.150  0.0693 -0.1395  0.1362
 4664W        W47581   1.221   3.993  20.891  0.1014 -0.2518  0.0075
 4665W        W47582   1.127   2.191  19.919  0.1447  0.1346  0.0714
 4666W        W47583   2.507   2.768  21.352 -0.0611 -0.2316 -0.1706
 4667W        W47584   2.019   0.931  20.561  0.0334  0.2064 -0.0211
 4668W        W47585   5.194   3.064  22.239 -0.0628 -0.2169 -0.0603
 4669W        W47586   2.200   1.824  19.435  0.2092  0.0406  0.1105
 4670W        W47587   3.674   1.076  18.539  0.0457  0.1291 -0.1168
 4671W        W47588   3.058  33.942  19.275 -0.0490  0.1090  0.0697
 4672W        W47589   3.017   1.222  19.518  0.0695  0.2096  0.1616
 4673W        W47590   0.378   4.377  19.681  0.0379  0.0013  0.1106
 4674W        W47591  32.823   2.564  21.573  0.1072 -0.0305  0.1907
 4675W        W47592  34.255   2.571  22.492 -0.0411  0.0082 -0.2843
 4676W        W47593   2.157  34.654  24.078 -0.1766  0.0374 -0.2696
 4677W        W47594   1.303   1.700  24.158  0.2354  0.0682 -0.3075
 4678W        W47595   1.432   0.967  22.039 -0.0607  0.0898  0.0818
 4679W        W47596  33.717   1.614  19.857 -0.2341  0.1278  0.2196
 4680W        W47597   4.442   4.126  19.304  0.2999  0.2684 -0.2577
 4681W        W47598   1.339   1.462  21.996 -0.2148  0.3201  0.2484
 4682W        W47599  34.523  34.594  22.471 -0.0041  0.2461 -0.0681
 4683W        W47600   2.955   3.049  21.146  0.0946 -0.0504 -0.1300
 4684W        W47601   3.195   2.402  20.018  0.1379 -0.1421 -0.0106
 4685W        W47602   2.052  34.565  20.055 -0.2686  0.0956  0.2112
 4686W        W47603   3.292   3.084  23.042 -0.0239  0.1582 -0.6254
 4687W        W47604  32.645   2.776  21.062 -0.0832 -0.0122 -0.0026
 4688W        W47605   3.860   0.589  25.574  0.0891  0.3674  0.0206
 4689W        W47606   4.166  34.555  23.764  0.2716  0.1426  0.1640
 4690W        W47607   0.472   0.184  20.206  0.4043 -0.1523 -0.4282
 4691W        W47608   3.205   1.650  20.745 -0.0482 -0.0271  0.1891
 4692W        W47609   0.251   2.521  21.282 -0.2689  0.1676 -0.1492
 4693W        W47610   3.455   2.845  21.436  0.0889  0.0643 -0.0909
 4694W        W47611   2.691   0.607  19.847 -0.1165  0.3189  0.2490
 4695W        W47612   2.532   1.919  23.852  0.1537 -0.1209 -0.1366
 4696W        W47613   1.359  33.138  22.273  0.3438  0.0709  0.0939
 4697W        W47614   4.184   2.764  18.461 -0.2095  0.1981  0.1779
 4698W        W47615   2.071   3.022  22.704  0.1282  0.2547  0.1441
 4699W        W47616   2.326   1.819  20.187 -0.3061 -0.3397  0.3599
 4700W        W47617   3.296  34.342  19.515 -0.1263 -0.0173  0.3348
 4701W        W47618   2.809   2.361  19.693  0.4494  0.2274  0.1277
 4702W        W47619   3.182   1.015  22.533 -0.0313  0.1810 -0.1419
 4703W        W47620   1.740   1.174  21.699  0.1409  0.1349  0.2763
 4704W        W47621   3.647   2.053  23.018 -0.1936  0.0922 -0.2604
 4705W        W47622   1.346   0.543  21.564  0.3129  0.1313  0.0728
 4706W        W47623   2.551   0.240  18.257 -0.0814  0.1539  0.0009
 4707W        W47624   3.051   5.693  22.207 -0.0566  0.1342  0.1024
 4708W        W47625   1.925   1.272  23.357 -0.0027 -0.1238 -0.1551
 4709W        W47626   1.986   1.602  19.865  0.1524  0.0792 -0.2134
 4710W        W47627   2.679   1.373  20.363  0.2178 -0.0411  0.1384
 4711W        W47628   3.419   2.483  23.019 -0.1194 -0.0349 -0.0479
 4712W        W47629   4.095   1.503  23.911 -0.0819 -0.3416 -0.2214
 4713W        W47630   0.932  34.482  20.031  0.2563  0.2295  0.0864
 4714W        W47631   5.957   0.537  21.693 -0.0903  0.1932  0.1823
 4715W        W47632   3.510   4.736  21.422  0.2679 -0.0640  0.1451
 4716W        W47633   2.765   3.457  25.184 -0.2082 -0.1650 -0.0698
 4717W        W47634   2.242   1.715  21.590  0.0597 -0.0933 -0.2028
 4718W        W47635   3.337   1.020  22.042  0.4465 -0.1494 -0.0924
 4719W        W47636   0.759   1.808  22.944  0.0792  0.1552  0.1548
 4720W        W47637   0.165   1.428  20.223 -0.1603  0.4341 -0.0980
 4721W        W47638   1.612   1.357  20.321  0.1608  0.0861 -0.1729
 4722W        W47639   4.194  34.578  22.145 -0.5057  0.2325 -0.1074
 4723W        W47640   0.556   1.224  21.562  0.1359 -0.3993 -0.0646
 4724W        W47641   3.811  33.941  20.092 -0.0350 -0.0073 -0.3783
 4725W        W47642   2.069   4.138  22.423  0.3162  0.1242  0.2252
 4726W        W47643   2.244   2.374  21.069  0.2033 -0.1356 -0.0263
 4727W        W47644  34.253   2.767  27.154  0.1665 -0.0618 -0.0842
 4728W        W47645   2.650   2.775  24.910  0.0185 -0.1284  0.1563
 4729W        W47646   2.873   2.907  21.631 -0.5038  0.2872 -0.2441
 4730W        W47647   4.621   2.611  24.676 -0.1051  0.1242  0.2511
 4731W        W47648   1.984   2.464  25.595  0.0245 -0.3356  0.1339
 4732W        W47649   1.195   2.838  24.328 -0.0026 -0.0660 -0.2681
 4733W        W47650   1.910  33.503  27.105  0.1186  0.0967 -0.0886
 4734W        W47651   1.618   2.063  27.460 -0.1540  0.2200  0.3961
 4735W        W47652   1.807   2.561  27.277  0.3758 -0.0879 -0.1119
 4736W        W47653   1.729   2.097  23.378 -0.2104 -0.2290  0.0213
 4737W        W47654   3.102   2.123  27.233  0.1441  0.1463 -0.2583
 4738W        W47655  34.328   4.949  27.185  0.2618 -0.2865  0.2986
 4739W        W47656   2.085   1.439  26.578 -0.0752  0.3016 -0.2365
 4740W        W47657  33.906   1.347  26.510  0.0754  0.1883 -0.1770
 4741W        W47658   3.295   1.268  25.831 -0.0303 -0.2642 -0.0988
 4742W        W47659   1.616   0.468  22.079 -0.1941 -0.0969  0.2504
 4743W        W47660   0.287   0.837  25.252 -0.0965 -0.3810  0.0981
 4744W        W47661   2.213   0.775  25.790  0.1130  0.2971  0.0689
 4745W        W47662   1.078   2.765  25.798  0.0369  0.4536 -0.1296
 4746W        W47663   2.445   1.080  26.550  0.1982  0.3530 -0.0507
 4747W        W47664   2.137  33.062  27.235  0.0123 -0.1764  0.1794
 4748W        W47665   1.490   2.013  25.548 -0.1641 -0.2951 -0.0347
 4749W        W47666  34.163   0.705  24.484 -0.2676  0.0480  0.2622
 4750W        W47667   1.551   1.576  27.151  0.0882 -0.2559  0.1024
 4751W        W47668   3.953   2.181  27.583 -0.0244  0.0615  0.1933
 4752W        W47669   3.970   0.492  25.020  0.5375  0.1314 -0.1530
 4753W        W47670   4.682   1.822  26.084  0.1277 -0.0283 -0.0789
 4754W        W47671   0.450   2.348  26.734  0.3417 -0.0991 -0.0047
 4755W        W47672   0.417   2.955  25.163 -0.2899  0.3673  0.0448
 4756W        W47673   4.390  34.410  28.445 -0.1000 -0.2639  0.1411
 4757W        W47674   0.667   3.416  25.493 -0.1974  0.0623  0.0570
 4758W        W47675  34.560   4.155  23.985 -0.0930 -0.2262 -0.0764
 4759W        W47676  34.517   3.851  26.022  0.0505 -0.0196  0.0763
 4760W        W47677   2.532   3.139  24.566  0.1203 -0.0059  0.0568
 4761W        W47678   5.170   2.307  25.589 -0.1811  0.0916 -0.0850
 4762W        W47679   1.221   2.286  28.521  0.0165 -0.1424  0.1135
 4763W        W47680   0.114   2.534  23.422 -0.0712  0.1104  0.0877
 4764W        W47681   2.474   3.165  27.807 -0.0867  0.2438 -0.2099
 4765W        W47682   0.287   1.860  26.554 -0.0617 -0.2944 -0.0103
 4766W        W47683   3.788   1.971  28.333  0.2016 -0.0974  0.1844
 4767W        W47684   1.071   2.357  25.493 -0.2745 -0.1309  0.0688
 4768W        W47685  33.926   2.925  24.304 -0.0385  0.3070 -0.0236
 4769W        W47686   1.041   3.470  23.739 -0.1303  0.0250  0.1801
 4770W        W47687   3.793   3.777  27.372  0.0793 -0.2517  0.4874
 4771W        W47688   0.322   3.293  26.035  0.0353 -0.0042 -0.1978
 4772W        W47689   6.886   0.710  27.860 -0.1133  0.2800 -0.1564
 4773W        W47690   1.907   1.858  22.895 -0.1161  0.0012  0.1335
 4774W        W47691   3.001   2.031  22.145 -0.2083 -0.0757  0.0228
 4775W        W47692   3.472   1.594  22.968 -0.1875  0.2064 -0.0242
 4776W        W47693   3.858   2.296  25.237 -0.1073 -0.0115 -0.2165
 4777W        W47694   1.576   1.822  24.693  0.0790  0.1487 -0.2954
 4778W        W47695   0.706   4.206  25.773 -0.3282 -0.0109  0.0950
 4779W        W47696   0.627   0.986  25.700  0.1868  0.0547  0.3003
 4780W        W47697   2.769   0.452  26.725 -0.0370 -0.2566  0.1714
 4781W        W47698   2.654   1.580  23.490 -0.1245  0.0961  0.1407
 4782W        W47699   3.368   0.887  27.127  0.1338 -0.1941  0.3331
 4783W        W47700   0.400   2.163  23.767 -0.0811 -0.0357 -0.2920
 4784W        W47701   1.530   0.168  26.390 -0.0755  0.2670  0.0962
 4785W        W47702   3.642   0.618  24.077  0.0535  0.0551 -0.0059
 4786W        W47703   3.716   0.935  26.621  0.0959  0.0791 -0.0231
 4787W        W47704   2.665   2.072  23.383  0.4086 -0.0030  0.0939
 4788W        W47705   2.221   0.412  21.703  0.0693 -0.0423  0.0451
 4789W        W47706  33.148   2.393  28.580  0.0471  0.4345 -0.2368
 4790W        W47707  34.648   1.686  27.583  0.1521  0.4650  0.2199
 4791W        W47708   1.240   0.216  21.924  0.0753  0.2419  0.0908
 4792W        W47709   5.009   0.400  28.799  0.1401  0.0729  0.2670
 4793W        W47710  34.390   1.221  26.655 -0.3484 -0.1555 -0.1014
 4794W        W47711   3.472   0.525  23.596  0.1417  0.1179 -0.2213
 4795W        W47712   0.931   4.009  22.976 -0.3442  0.1821  0.1305
 4796W        W47713   3.254   2.223  28.290  0.1722  0.0078 -0.0211
 4797W        W47714   3.487   4.285  23.762 -0.1612 -0.0064  0.1562
 4798W        W47715   3.256   0.633  26.695 -0.0736 -0.0131 -0.0699
 4799W        W47716   2.935   0.246  27.636 -0.1484  0.2492 -0.0221
 4800W        W47717   1.809   1.397  22.757 -0.1552 -0.1026 -0.0023
 4801W        W47718   3.529   0.769  25.227  0.2301 -0.2258 -0.2993
 4802W        W47719   3.319   2.194  25.431  0.0169  0.1695 -0.1675
 4803W        W47720   3.172   0.576  24.042 -0.1172 -0.4270 -0.1618
 4804W        W47721   2.565   1.504  26.793  0.1225 -0.2109  0.1063
 4805W        W47722   1.560   3.465  28.376 -0.2272  0.4000 -0.1372
 4806W        W47723   2.594   1.858  27.210  0.1914  0.0259 -0.0848
 4807W        W47724   1.345   3.379  25.314  0.2643 -0.1194 -0.2147
 4808W        W47725  33.974   3.403  24.402 -0.1271 -0.0648  0.4826
 4809W        W47726   0.008   1.266  24.033  0.0198  0.0951 -0.0613
 4810W        W47727   0.715   1.613  24.480  0.0462 -0.0894 -0.0501
 4811W        W47728   2.246   2.496  25.081 -0.1533  0.0481 -0.3313
 4812W        W47729   4.399  34.441  26.219  0.2505 -0.0172  0.1065
 4813W        W47730   2.302   0.070  28.766 -0.1999 -0.0308 -0.0104
 4814W        W47731   3.779   0.423  26.464  0.1484  0.2040  0.2130
 4815W        W47732   1.267   1.575  25.415  0.0907 -0.2214  0.1059
 4816W        W47733   1.267   1.951  25.124  0.0001  0.1719 -0.2768
 4817W        W47734   3.840   1.444  24.961 -0.0760 -0.0892  0.0321
 4818W        W47735   1.744   4.094  23.397  0.3910  0.0498 -0.1467
 4819W        W47736   1.546   0.726  27.457  0.0095  0.2522  0.3413
 4820W        W47737   2.025   0.464  27.121  0.0363 -0.1345  0.2058
 4821W        W47738  34.606   1.320  28.962 -0.0113  0.2548 -0.0751
 4822W        W47739   0.924   0.808  26.143  0.0724 -0.1445 -0.1512
 4823W        W47740   3.864   2.273  26.195  0.1181  0.0831  0.5289
 4824W        W47741  33.822  34.422  24.573  0.0463  0.1252 -0.6074
 4825W        W47742   2.616   0.632  26.251  0.0066  0.1931  0.0535
 4826W        W47743   0.730   0.778  23.355  0.2168 -0.2521 -0.1499
 4827W        W47744   0.760   2.570  24.016  0.1284 -0.1509  0.0280
 4828W        W47745   3.490   1.806  27.390 -0.0626  0.1165  0.0991
 4829W        W47746   4.259   3.778  24.157 -0.0230 -0.1609  0.1113
 4830W        W47747   5.490   3.377  27.387  0.1970  0.0193 -0.3118
 4831W        W47748   1.137   1.444  26.874 -0.1971 -0.0068  0.2757
 4832W        W47749   3.747  33.964  28.683 -0.1789 -0.0871 -0.0039
 4833W        W47750   2.483   1.181  24.748  0.1110  0.1139 -0.2918
 4834W        W47751   0.454   3.786  24.570 -0.2251  0.2868  0.0005
 4835W        W47752   2.106   1.674  24.807  0.0698  0.3503 -0.0150
 4836W        W47753   0.230   0.737  23.632  0.3760  0.0684  0.2132
 4837W        W47754   3.027   4.278  26.243 -0.3168 -0.1173  0.3448
 4838W        W47755   1.747   0.721  23.549  0.2033  0.0682 -0.1052
 4839W        W47756  33.750   1.564  27.338 -0.1480 -0.1555  0.1417
 4840W        W47757   2.926  33.856  26.937  0.0963  0.1616  0.0254
 4841W        W47758   3.294   2.734  28.618 -0.1388 -0.0062  0.1199
 4842W        W47759   3.808   0.529  26.982  0.0125  0.0412 -0.0539
 4843W        W47760   0.310   0.251  22.425 -0.0163 -0.0538  0.0792
 4844W        W47761   1.257   2.845  24.842  0.3329  0.2996  0.2300
 4845W        W47762  34.352   3.459  24.035 -0.2645  0.0044  0.0469
 4846W        W47763  33.629   2.241  25.456 -0.3606 -0.0257 -0.0214
 4847W        W47764   2.018   4.275  25.401 -0.0888 -0.2718  0.0636
 4848W        W47765   3.718   0.849  27.502  0.4694  0.3503  0.0925
 4849W        W47766  33.785   1.929  26.949  0.1961  0.0424  0.1244
 4850W        W47767   3.136   1.703  26.098  0.1587 -0.0034 -0.2360
 4851W        W47768   0.975   1.166  23.590  0.1869  0.0424  0.2616
 4852W        W47769   0.782   1.041  27.104  0.1410 -0.0182 -0.1528
 4853W        W47770   3.363  33.611  25.600 -0.0837 -0.1748 -0.3717
 4854W        W47771   3.279   0.746  24.610 -0.2074 -0.4756  0.1446
 4855W        W47772   2.903   3.062  27.382 -0.1094  0.1216 -0.4268
 4856W        W47773   3.746   2.721  24.876  0.0311  0.2241 -0.0013
 4857W        W47774   2.680   1.122  23.652  0.1383  0.0534  0.1373
 4858W        W47775   2.576   0.918  24.141 -0.0346 -0.1969  0.1363
 4859W        W47776  34.404   2.226  28.261 -0.0570 -0.1228 -0.1130
 4860W        W47777   2.535   2.096  24.833 -0.0666  0.1380  0.0181
 4861W        W47778   2.059   2.936  23.179  0.0622 -0.0222  0.3458
 4862W        W47779   0.521   1.223  23.246 -0.1794 -0.1961 -0.1434
 4863W        W47780   3.522   3.621  24.718 -0.0839  0.3157  0.2232
 4864W        W47781   0.654   1.616  23.508 -0.1995 -0.1245 -0.0696
 4865W        W47782   0.332   1.778  27.234  0.0050  0.0764 -0.1836
 4866W        W47783  34.574   3.430  25.755 -0.0081  0.0501 -0.1156
 4867W        W47784   1.715   1.673  25.183  0.1653 -0.2447  0.0793
 4868W        W47785   1.029   0.968  22.491  0.0753  0.0159 -0.2153
 4869W        W47786   2.837   2.063  26.201 -0.1210 -0.2082  0.0186
 4870W        W47787  33.579   3.018  23.957  0.1649 -0.1975 -0.2590
 4871W        W47788   3.446   3.108  25.693 -0.0284 -0.0416  0.2287
 4872W        W47789   0.973  33.968  28.601  0.4301 -0.1926  0.0824
 4873W        W47790   3.309  32.918  27.714  0.0138  0.0516 -0.1352
 4874W        W47791   2.837   2.903  25.989 -0.0829 -0.0501 -0.2788
 4875W        W47792   3.445   3.063  24.610  0.0822  0.2547 -0.1061
 4876W        W47793   1.331   2.375  26.654  0.0691 -0.0637  0.0824
 4877W        W47794   1.619   1.604  23.200  0.1353  0.0231 -0.1914
 4878W        W47795   2.925  33.529  28.333  0.1355  0.0454  0.0313
 4879W        W47796   0.060   2.843  25.921  0.1097 -0.2717 -0.0381
 4880W        W47797   0.939   4.557  26.021  0.0997  0.0632 -0.0857
 4881W        W47798   1.694   2.831  26.591 -0.1306 -0.0966  0.1391
 4882W        W47799   1.129   2.832  23.763  0.0646 -0.2627 -0.1192
 4883W        W47800   1.451   0.685  26.687 -0.0919 -0.0738  0.1248
 4884W        W47801   2.135   1.906  24.251  0.2281  0.3014  0.4048
 4885W        W47802   0.233   3.457  25.402  0.2265 -0.2070  0.0497
 4886W        W47803   2.011   3.048  24.445 -0.0143  0.2875  0.0073
 4887W        W47804   4.027   0.075  26.079  0.4622  0.1043 -0.0816
 4888W        W47805   1.462   3.138  25.767 -0.1729  0.0245 -0.0983
 4889W        W47806   2.104   3.052  21.320  0.3092  0.1544 -0.1243
 4890W        W47807   2.984   1.665  27.531 -0.1831  0.1758 -0.1105
 4891W        W47808   0.096   1.629  23.639 -0.1344 -0.0031 -0.3186
 4892W        W47809   3.199   0.430  28.047 -0.2730  0.0504  0.2539
 4893W        W47810  33.931   4.489  23.671 -0.3232  0.1426 -0.0797
 4894W        W47811   1.396   0.401  24.859 -0.1123  0.2833 -0.2479
 4895W        W47812  34.635   0.855  24.418 -0.0119  0.1572  0.2106
 4896W        W47813   4.847   0.308  24.588 -0.1051 -0.0913 -0.2526
 4897W        W47814   3.988   0.164  24.120 -0.0428 -0.1566 -0.0942
 4898W        W47815   0.372  33.979  25.098 -0.3143 -0.0426 -0.3918
 4899W        W47816   3.977   1.709  27.391  0.0124 -0.0433 -0.1438
 4900W        W47817  33.906   3.237  26.834  0.2946 -0.1724  0.0277
 4901W        W47818   3.257   0.702  25.661  0.0138 -0.2242  0.1432
 4902W        W47819   3.423   1.207  24.853  0.0829 -0.0189 -0.1839
 4903W        W47820   2.375   2.236  26.513  0.1414  0.0231 -0.3054
 4904W        W47821   2.093   1.867  26.379  0.3130 -0.2650 -0.2391
 4905W        W47822  34.456   1.282  24.673 -0.0155 -0.1442  0.0353
 4906W        W47823   6.069   1.174  24.679  0.1803 -0.0118 -0.1629
 4907W        W47824   2.594   0.619  23.585 -0.1935 -0.0571  0.0217
 4908W        W47825  33.808   2.651  23.704  0.2212 -0.2398  0.0456
 4909W        W47826   2.197   2.003  25.492 -0.1878  0.3039  0.5774
 4910W        W47827   2.190   0.591  23.894 -0.3441  0.1687 -0.2604
 4911W        W47828   0.648   2.805  26.743  0.2129  0.0051  0.0284
 4912W        W47829   2.413   2.976  29.072 -0.0015 -0.1860 -0.0871
 4913W        W47830   2.032   0.985  26.849  0.0930 -0.0278 -0.0038
 4914W        W47831   3.458  34.670  26.134 -0.1391 -0.1380  0.1383
 4915W        W47832   2.251   0.689  24.681 -0.0693  0.1678  0.1630
 4916W        W47833   2.533   1.402  27.449 -0.1967 -0.0478 -0.1665
 4917W        W47834   3.476   1.314  28.821 -0.0994  0.1468 -0.3800
 4918W        W47835   3.067   1.479  28.591 -0.2864 -0.0855  0.2961
 4919W        W47836  33.692   3.267  28.648  0.2281 -0.0556  0.0782
 4920W        W47837   1.847   0.313  26.676 -0.2922  0.1843 -0.1308
 4921W        W47838   3.854   3.239  24.812  0.2028  0.2740 -0.0761
 4922W        W47839   1.647   1.717  26.701 -0.2397  0.0231  0.1457
 4923W        W47840   1.301   2.415  25.079 -0.0095 -0.1180 -0.2528
 4924W        W47841   0.217   2.656  26.376 -0.1315  0.3442 -0.1076
 4925W        W47842   0.839   1.920  25.314 -0.3710  0.2650  0.0075
 4926W        W47843   1.168   1.533  26.382  0.0616  0.0365  0.1301
 4927W        W47844   0.128   4.576  24.129  0.1261  0.0715 -0.2540
 4928W        W47845  32.907   4.747  23.879  0.2626  0.0479  0.0257
 4929W        W47846  34.406   2.063  26.821 -0.0648 -0.2437  0.1533
 4930W        W47847   3.754   2.011  23.877  0.2308  0.3118  0.1512
 4931W        W47848   2.737   3.078  22.990  0.0326 -0.0889 -0.0520
 4932W        W47849   1.145   0.477  24.117 -0.3488 -0.1617 -0.1509
 4933W        W47850   3.825   2.210  27.094 -0.3153  0.0339  0.2111
 4934W        W47851   3.434   1.696  24.752  0.0790  0.0196  0.0057
 4935W        W47852   2.741  34.594  27.337 -0.3130  0.1130  0.0797
 4936W        W47853   2.653  34.622  28.427 -0.0134 -0.1989 -0.0474
 4937W        W47854   1.822   2.122  25.941 -0.0634 -0.2035  0.0831
 4938W        W47855   2.077  34.509  28.199  0.0054  0.1056  0.0871
 4939W        W47856   1.329   2.397  27.298 -0.2405  0.1791  0.2266
 4940W        W47857   0.800   3.435  29.052 -0.3463 -0.1062  0.2429
 4941W        W47858   1.547   1.618  28.136  0.0643  0.1842 -0.0531
 4942W        W47859   1.203   2.374  24.169 -0.0578 -0.0294  0.1352
 4943W        W47860  33.345   1.217  27.342 -0.0821  0.1030  0.0053
 4944W        W47861   2.525   2.732  25.432  0.0940  0.0442  0.0783
 4945W        W47862   0.659   3.024  22.766 -0.4632 -0.1800  0.3464
 4946W        W47863   3.198   3.594  25.095  0.0664  0.3119 -0.4003
 4947W        W47864   2.504   1.537  26.298 -0.0219 -0.1766  0.0970
 4948W        W47865   2.289   2.622  24.620 -0.5675 -0.0190 -0.2841
 4949W        W47866   1.653   2.087  24.156 -0.0583 -0.1965  0.3302
 4950W        W47867   0.918   2.391  26.904  0.0270  0.0048 -0.2744
 4951W        W47868   2.478  34.033  27.254  0.3604  0.0927  0.0966
 4952W        W47869   2.695   1.626  24.643  0.0905  0.1684 -0.0077
 4953W        W47870   2.587   0.221  25.782  0.0276 -0.0304 -0.0581
 4954W        W47871   3.155  34.095  27.344 -0.0555  0.1288  0.0139
 4955W        W47872   2.966   1.094  27.444  0.1992  0.1460 -0.2072
 4956W        W47873   2.341   2.067  26.007  0.0615 -0.1968 -0.1530
 4957W        W47874   0.971   0.953  28.526  0.0825 -0.1498 -0.0265
 4958W        W47875   4.547   2.852  26.353 -0.0084  0.0670  0.3031
 4959W        W47876   3.957   1.528  22.879  0.0984  0.2913 -0.0994
 4960W        W47877   4.176   2.536  27.238  0.1555  0.0891  0.0385
 4961W        W47878   1.741   3.175  24.880 -0.2234 -0.1521  0.0802
 4962W        W47879   2.929   0.404  25.359 -0.0915 -0.0228 -0.2008
 4963W        W47880   1.694   0.799  24.952 -0.1559 -0.1868 -0.3225
 4964W        W47881   2.607   1.550  28.734 -0.0080 -0.1588  0.0360
 4965W        W47882   1.813   1.632  21.832 -0.0071  0.0103  0.0973
 4966W        W47883   2.230   0.711  28.467  0.2263 -0.0837  0.0564
 4967W        W47884   2.446   2.333  24.173 -0.1138  0.1636  0.3296
 4968W        W47885   0.974   3.207  25.014  0.1488  0.1101 -0.4457
 4969W        W47886   3.946   1.464  25.439 -0.0199  0.1084  0.0863
 4970W        W47887   1.922   2.422  26.352  0.1409  0.0313  0.4688
 4971W        W47888   0.202   2.132  27.669  0.2511  0.1326  0.0570
 4972W        W47889  34.411   2.546  21.068  0.0730 -0.3799  0.0385
 4973W        W47890   2.384   1.151  22.946  0.1591  0.3650  0.2498
 4974W        W47891   2.602   2.353  26.957 -0.2413 -0.0224 -0.3638
 4975W        W47892   2.478   3.555  30.393  0.1121  0.0360  0.0300
 4976W        W47893   4.468  34.491  25.729  0.0878 -0.0901  0.2280
 4977W        W47894   2.803   1.964  26.754  0.0026  0.5412  0.1102
 4978W        W47895   0.526   3.380  24.829  0.2490  0.0366  0.1410
 4979W        W47896   2.001  34.031  25.986 -0.1528 -0.2172  0.0418
 4980W        W47897   1.379   4.749  27.544  0.0805  0.2653  0.1461
 4981W        W47898   0.448   1.665  24.087 -0.1842  0.0783  0.1585
 4982W        W47899  34.202   3.567  24.836 -0.1103  0.2997  0.2129
 4983W        W47900   4.397   2.566  26.801  0.1594  0.0452 -0.0895
 4984W        W47901   3.421   2.495  26.992 -0.2163 -0.1410 -0.0809
 4985W        W47902   3.446   2.070  27.825  0.0805  0.1422  0.0010
 4986W        W47903   4.559   0.525  26.405  0.0186 -0.1159  0.1880
 4987W        W47904   3.681   1.806  26.429 -0.0081  0.2124  0.0573
 4988W        W47905   0.798   3.110  24.097 -0.2662 -0.1939  0.3984
 4989W        W47906   3.098   2.595  27.367 -0.1736 -0.0650 -0.1320
 4990W        W47907   3.526   1.383  28.291  0.2520 -0.2194 -0.2423
 4991W        W47908   0.299   1.710  26.073  0.0476 -0.1384  0.0391
 4992W        W47909   1.980   0.701  28.035  0.2188  0.0178 -0.2248
 4993W        W47910   3.324   2.964  28.027  0.3693 -0.0449 -0.0546
 4994W        W47911   2.396   1.183  25.569 -0.1090  0.0670 -0.2831
 4995W        W47912   2.067   0.858  25.348  0.0160  0.1060 -0.1676
 4996W        W47913   1.848   3.420  24.115 -0.2106  0.0936  0.1178
 4997W        W47914   0.746   3.745  29.534 -0.0004 -0.0462 -0.1043
 4998W        W47915   0.692   4.219  26.424  0.3080 -0.2450 -0.2257
 4999W        W47916   0.445   5.113  24.194 -0.1790  0.1247  0.1571
 5000W        W47917   3.315   1.140  23.083 -0.0435  0.2903 -0.0406
 5001W        W47918   2.232   1.602  25.786 -0.1163 -0.0306 -0.0672
 5002W        W47919   1.678   5.949  26.651  0.1993  0.0753 -0.3030
 5003W        W47920   1.444   1.307  24.907  0.2441 -0.0680  0.2802
 5004W        W47921   0.482   4.047  22.845 -0.0945  0.0769 -0.0471
 5005W        W47922   0.440   1.148  24.287  0.2226 -0.0560 -0.1065
 5006W        W47923   3.020   2.329  24.055 -0.0683 -0.1499 -0.2341
 5007W        W47924   1.530   5.092  27.944 -0.2343 -0.0671 -0.1326
 5008W        W47925   2.308   3.881  25.320 -0.0614  0.2530  0.2892
 5009W        W47926   1.892  34.611  23.056  0.2735 -0.1729 -0.0892
 5010W        W47927   3.696   3.166  26.413 -0.5028 -0.0535 -0.1571
 5011W        W47928   4.825   2.994  21.787  0.3583 -0.1922  0.0878
 5012W        W47929   4.369   1.644  29.831  0.1327  0.1286 -0.2621
 5013W        W47930   1.411   2.541  26.178 -0.0524 -0.0416 -0.1534
 5014W        W47931   2.703   0.358  24.039 -0.3922  0.0335 -0.3179
 5015W        W47932  34.574   3.115  26.311 -0.2691 -0.0512  0.0178
 5016W        W47933   3.704  34.143  27.309  0.1053 -0.1786  0.1078
 5017W        W47934  34.659   3.916  25.483 -0.0948 -0.0094 -0.1087
 5018W        W47935   1.920   2.942  25.575  0.2966 -0.1174 -0.0909
 5019W        W47936   1.181   0.457  25.301  0.2366 -0.1578  0.1441
 5020W        W47937   1.103   2.224  25.972  0.1614  0.1013  0.0667
 5021W        W47938   3.360  34.247  25.764 -0.0188 -0.1430 -0.0838
 5022W        W47939   2.932   2.393  19.143 -0.0869 -0.0523  0.3096
 5023W        W47940   2.495   2.785  26.440 -0.3970  0.1364 -0.2762
 5024W        W47941   0.843   2.375  26.413  0.1040 -0.2955  0.0628
 5025W        W47942   0.396   2.211  26.200 -0.1645  0.0189  0.0235
 5026W        W47943   0.960   5.821  27.271 -0.0985 -0.0964 -0.1311
 5027W        W47944   1.782   1.494  24.325 -0.2042 -0.0738  0.2063
 5028W        W47945   4.423   1.303  26.170  0.2647  0.1688 -0.1075
 5029W        W47946   0.768   1.546  27.190  0.0823  0.1009 -0.2350
 5030W        W47947   5.420  33.696  26.888  0.0672 -0.4657 -0.1370
 5031W        W47948   2.303   1.367  24.349  0.1146  0.2247 -0.3559
 5032W        W47949   3.157   3.565  25.619 -0.0474 -0.2121  0.1401
 5033W        W47950   2.150   3.070  26.352  0.1372 -0.2004 -0.1801
 5034W        W47951   0.735   1.149  24.750  0.1240  0.1020 -0.1372
 5035W        W47952   4.464   1.640  26.511 -0.1200  0.3824  0.1181
 5036W        W47953   2.295   2.467  27.848  0.4896 -0.0017 -0.1405
 5037W        W47954   2.078   1.673  22.467  0.0227  0.0585 -0.1347
 5038W        W47955   1.722   2.161  26.891  0.1254 -0.1727  0.0153
 5039W        W47956   0.268   0.222  25.837  0.2162 -0.0930 -0.1813
 5040W        W47957   3.026   2.161  24.629 -0.0130  0.1536  0.1576
 5041W        W47958  34.481  34.498  26.801  0.0572  0.0633  0.0462
 5042W        W47959   0.267   1.181  26.999 -0.0172  0.0833 -0.0219
 5043W        W47960   3.406   3.388  27.540 -0.1014  0.2346  0.1956
 5044W        W47961   0.831   0.208  26.071 -0.1193  0.2856  0.0895
 5045W        W47962   1.796   1.286  22.224  0.0434 -0.1168 -0.1822
 5046W        W47963   5.505   1.536  27.515 -0.3263  0.2377 -0.0868
 5047W        W47964   1.904   3.611  24.669 -0.0723 -0.1898 -0.2858
 5048W        W47965   2.772   1.970  25.660 -0.1123  0.0046  0.1202
 5049W        W47966   2.637   3.383  26.184  0.2703 -0.0694  0.1156
 5050W        W47967   0.003   0.209  27.592 -0.1829  0.0779 -0.3037
 5051W        W47968   1.577   2.067  26.337 -0.1815 -0.0739  0.0183
 5052W        W47969   3.179   2.660  24.853  0.4089  0.0847  0.2143
 5053W        W47970   2.255   0.018  26.638 -0.0225  0.0910  0.1925
 5054W        W47971   2.780   1.465  25.801  0.1042 -0.0961 -0.0612
 5055W        W47972  34.671   2.231  24.224 -0.0489 -0.1386 -0.0134
 5056W        W47973   4.669   0.904  27.566  0.0245  0.2314  0.3089
 5057W        W47974   2.623   0.450  28.660 -0.0715  0.2192  0.3519
 5058W        W47975   1.956   3.448  23.203 -0.1514 -0.0627 -0.2424
 5059W        W47976   4.168  34.348  28.889  0.1670 -0.1268  0.4405
 5060W        W47977   0.711   2.051  24.765 -0.0567  0.1922  0.1200
 5061W        W47978   0.767   1.989  28.531 -0.0671 -0.1470 -0.1087
 5062W        W47979   0.995   1.984  23.833  0.2438  0.0202  0.3464
 5063W        W47980   2.410   3.545  26.700 -0.0858  0.1020 -0.2116
 5064W        W47981   1.115   1.963  24.530 -0.3677  0.0280 -0.3780
 5065W        W47982   3.007   4.095  23.746  0.1585  0.2233  0.3150
 5066W        W47983   2.223   3.008  25.055 -0.1192 -0.0379  0.0402
 5067W        W47984   1.551   2.519  25.687 -0.1786  0.1279 -0.1094
 5068W        W47985   4.729   2.239  24.246  0.0406 -0.0310  0.2239
 5069W        W47986   1.268   1.105  24.016 -0.0106  0.0123 -0.0624
 5070W        W47987   2.459  34.273  24.413  0.0814  0.0401 -0.2237
 5071W        W47988   3.134   0.096  23.873 -0.2469 -0.0832  0.0242
 5072W        W47989   1.412   1.009  26.269  0.1717  0.0019  0.0757
 5073W        W47990   0.849   2.824  25.379  0.1958 -0.1687 -0.0369
 5074W        W47991   0.079   2.608  23.920  0.0007 -0.0751 -0.1675
 5075W        W47992   1.394   2.864  25.357 -0.0480  0.3703  0.0093
 5076W        W47993   2.313  34.307  28.593  0.0864 -0.2234 -0.2593
 5077W        W47994   0.322   1.310  27.442  0.0838  0.0223  0.0478
 5078W        W47995  34.531   2.229  25.442 -0.0802  0.0607 -0.0294
 5079W        W47996   2.112   0.280  25.733  0.1234  0.2599 -0.2257
 5080W        W47997   3.920   4.457  26.380  0.2208  0.2666 -0.0627
 5081W        W47998   1.680   1.516  26.191 -0.3021 -0.0815  0.1429
 5082W        W47999   1.158   1.183  25.869 -0.0508  0.1664 -0.1211
 5083W        W48000   4.517   2.714  24.224 -0.0515 -0.4750  0.1299
 5084W        W48001   3.475   2.648  25.248 -0.0558  0.0180 -0.0067
 5085W        W48002   1.541   1.026  24.468  0.0489  0.0483  0.0314
 5086W        W48003   4.289   1.350  29.345 -0.1510 -0.3314 -0.1429
 5087W        W48004   0.381   3.303  24.345 -0.1912  0.3676 -0.1183
 5088W        W48005   2.323   2.108  28.169  0.1776 -0.2941 -0.0774
 5089W        W48006   1.872   1.217  28.197 -0.1282  0.0178  0.0900
 5090W        W48007   0.185   1.251  25.595 -0.0373  0.0131 -0.0162
 5091W        W48008   1.621   1.151  25.364  0.1993 -0.0043  0.1890
 5092W        W48009   1.807   2.856  26.026  0.2331 -0.1607 -0.0108
 5093W        W48010   1.427   3.219  23.893 -0.1622  0.1297 -0.0235
 5094W        W48011   0.777   1.872  26.349  0.2693 -0.1850  0.3849
 5095W        W48012   1.770   1.087  27.225 -0.0830 -0.1201 -0.2077
 5096W        W48013   2.034   0.813  27.554  0.0667  0.2633  0.0178
 5097W        W48014   3.213   1.726  25.587 -0.1538  0.0795 -0.1590
 5098W        W48015   0.593   2.548  27.949 -0.2363 -0.0991 -0.0422
 5099W        W48016   5.315   1.605  25.425  0.0731  0.0292 -0.0870
 5100W        W48017   4.925  33.986  26.746  0.0674  0.0894  0.3285
 5101W        W48018   2.436   1.652  22.988  0.0684  0.0469 -0.2224
 5102W        W48019   3.086  34.524  28.054  0.1980  0.0012  0.0897
 5103W        W48020  33.549   3.257  27.648 -0.0521  0.0318 -0.0379
 5104W        W48021   3.541   2.402  27.471  0.0541 -0.0596  0.2402
 5105W        W48022   1.160   1.009  25.258  0.1453  0.0068 -0.1322
 5106W        W48023   1.793   2.182  25.135  0.2746 -0.0718 -0.0778
 5107W        W48024   1.701   4.266  23.856  0.4319 -0.4875  0.0797
 5108W        W48025   1.691   2.485  27.740 -0.1311  0.2197  0.2004
 5109W        W48026   2.191   1.394  23.863 -0.0779 -0.1142  0.1002
 5110W        W48027   1.047   0.985  26.637 -0.0786 -0.0647 -0.0337
 5111W        W48028   1.119   2.824  26.499 -0.3056  0.0022  0.1026
 5112W        W48029   2.861   3.117  26.506 -0.0854  0.1821 -0.2183
 5113W        W48030   2.716   2.393  25.875 -0.3034  0.1985 -0.0891
 5114W        W48031   3.750   1.546  23.417 -0.0286  0.1016  0.1161
 5115W        W48032   1.200   1.857  27.477 -0.3646  0.0059 -0.0283
 5116W        W48033   3.448   2.895  27.556 -0.0719  0.0528 -0.1578
 5117W        W48034   2.071   5.917  25.921  0.0293  0.0558 -0.1392
 5118W        W48035   2.772   3.274  25.655  0.1103  0.2182  0.1520
 5119W        W48036   1.166   0.085  25.706  0.1454  0.1135 -0.0460
 5120W        W48037   1.738   1.119  23.911 -0.0133  0.3361  0.3896
 5121W        W48038   0.658   4.139  24.224 -0.2130  0.1384  0.3512
 5122W        W48039   3.010   0.321  26.184 -0.3478  0.0433  0.0156
 5123W        W48040   2.586   0.133  26.276 -0.0993 -0.2830  0.4357
 5124W        W48041   2.627   0.449  24.965  0.2832  0.1082  0.0911
 5125W        W48042   0.993   3.355  26.314  0.3751  0.0358 -0.0865
 5126W        W48043   3.006   1.899  25.183  0.1152 -0.0756 -0.2514
 5127W        W48044   0.420   3.092  29.299 -0.2354  0.0749  0.3139
 5128W        W48045   2.249   0.272  28.282 -0.1978  0.0890 -0.3220
 5129W        W48046   1.476   1.942  29.358 -0.1681 -0.1386 -0.1839
 5130W        W48047   2.538  34.663  27.932  0.2615  0.3934 -0.1345
 5131W        W48048   0.748   2.929  28.780  0.4172  0.3007  0.2370
 5132W        W48049   2.367   2.759  28.609  0.0088 -0.1116 -0.2036
 5133W        W48050   0.771  32.513  29.862 -0.0068 -0.1329 -0.1375
 5134W        W48051   2.479   3.075  30.132 -0.0529  0.0793 -0.0024
 5135W        W48052   1.999   3.108  29.658 -0.0584  0.0009 -0.3430
 5136W        W48053   2.054   1.779  27.367  0.1525  0.1874  0.0356
 5137W        W48054   3.110   0.664  29.784  0.0164  0.0331 -0.0281
 5138W        W48055   0.611   2.468  28.435 -0.0725  0.1729  0.0897
 5139W        W48056   4.415   0.075  30.245  0.0044 -0.2016  0.4015
 5140W        W48057  34.372   0.676  29.872 -0.1271  0.2804 -0.6202
 5141W        W48058   2.440   1.873  29.091 -0.1296  0.4564 -0.1239
 5142W        W48059  34.502   1.715  26.399  0.1946 -0.1277  0.0101
 5143W        W48060   0.414   2.548  30.100  0.2450  0.1970 -0.0965
 5144W        W48061   2.269  34.617  30.651 -0.2918 -0.0945 -0.0840
 5145W        W48062   1.190   4.318  27.270 -0.0077  0.2429 -0.2752
 5146W        W48063   3.414   3.446  31.148  0.0427  0.1872  0.1991
 5147W        W48064   2.587  33.995  30.114 -0.1039 -0.2991 -0.1515
 5148W        W48065   1.167   3.289  27.181  0.2078 -0.1920 -0.1481
 5149W        W48066  34.138   2.206  27.233  0.0756 -0.0444  0.2560
 5150W        W48067   1.504   2.059  28.846 -0.1617 -0.2840 -0.1912
 5151W        W48068   1.956   1.476  30.144  0.0066 -0.0534 -0.1139
 5152W        W48069   3.264   2.220  31.522 -0.1316  0.0182 -0.1088
 5153W        W48070   3.556   0.932  30.363  0.1339 -0.0382 -0.2177
 5154W        W48071   3.091   3.544  30.226  0.0618 -0.3630 -0.2136
 5155W        W48072   0.718   1.620  27.730  0.3171  0.3546 -0.0918
 5156W        W48073   4.695   2.314  31.014 -0.1032  0.0898 -0.1183
 5157W        W48074   1.295   3.144  28.142  0.1762 -0.1409  0.0771
 5158W        W48075  33.008   3.868  28.108 -0.0814  0.1539  0.0874
 5159W        W48076   1.880   4.288  28.582  0.2104 -0.0811 -0.1311
 5160W        W48077   4.369   2.362  30.488 -0.0784  0.0823  0.3037
 5161W        W48078   3.521   0.654  29.475  0.2148 -0.1669  0.3093
 5162W        W48079   1.340   4.586  31.343  0.2537 -0.0253 -0.2031
 5163W        W48080   0.520   0.381  27.734  0.1323 -0.0447  0.0052
 5164W        W48081   3.635   4.313  31.263 -0.1698  0.0477  0.0024
 5165W        W48082  34.440   4.343  29.279 -0.0182  0.3783 -0.1428
 5166W        W48083   2.620   0.257  30.876  0.1487 -0.1784 -0.2361
 5167W        W48084   2.864  34.410  31.584  0.1747  0.0043  0.0510
 5168W        W48085   1.910   4.441  30.718  0.1787 -0.0255 -0.2037
 5169W        W48086   2.630   2.304  28.900 -0.2652 -0.1024  0.1175
 5170W        W48087   1.619   5.235  30.018 -0.0797  0.2506  0.1956
 5171W        W48088  33.167   3.013  30.234 -0.0332 -0.1197 -0.1613
 5172W        W48089   4.523   0.987  30.773  0.1461 -0.0987 -0.2731
 5173W        W48090  34.630   2.807  27.585 -0.1972  0.0104 -0.0244
 5174W        W48091   2.524   2.765  29.679 -0.2578 -0.2336  0.0419
 5175W        W48092   0.665   1.376  26.096 -0.4870 -0.0142  0.0512
 5176W        W48093   3.361   0.335  29.036 -0.1064  0.0971  0.2333
 5177W        W48094   2.784   1.725  29.970 -0.3506  0.1620 -0.0759
 5178W        W48095   0.190   4.959  29.610  0.1304 -0.0694  0.1743
 5179W        W48096   2.640  33.493  29.358  0.0665  0.1538  0.0800
 5180W        W48097   4.547   2.794  31.052 -0.0098  0.1848  0.1540
 5181W        W48098   2.123   2.847  27.544 -0.2692  0.1053  0.0667
 5182W        W48099   3.095   0.660  30.277  0.0082 -0.2742 -0.0425
 5183W        W48100  34.478   3.457  29.961 -0.2154  0.1053  0.0970
 5184W        W48101  34.423   2.340  27.764 -0.0438  0.1214  0.1346
 5185W        W48102   5.075   3.936  26.288 -0.1774  0.1158  0.0605
 5186W        W48103   5.381   4.171  27.416  0.1849  0.5132  0.1133
 5187W        W48104   2.391   4.168  28.338 -0.3241 -0.0619  0.2006
 5188W        W48105   0.993   3.593  28.047 -0.1874 -0.3135  0.2228
 5189W        W48106   1.214   2.563  30.728  0.0908 -0.2581  0.0490
 5190W        W48107   1.041   1.887  29.014  0.0844 -0.1327 -0.0171
 5191W        W48108   1.236   1.192  27.317 -0.0038 -0.1155  0.1328
 5192W        W48109   3.373   0.398  31.449  0.1863 -0.1211 -0.2020
 5193W        W48110   1.720   4.168  31.660 -0.3018  0.1737 -0.1149
 5194W        W48111   4.358   0.760  29.306  0.0496  0.0194  0.1982
 5195W        W48112   2.899   2.201  29.804  0.0255  0.0134  0.3793
 5196W        W48113   4.032   3.982  31.214 -0.1573 -0.0478  0.0921
 5197W        W48114   1.967   2.070  27.819 -0.0759 -0.0663 -0.2412
 5198W        W48115   5.672  34.184  30.216 -0.1940  0.0371  0.0795
 5199W        W48116   4.408  33.330  29.411 -0.1171 -0.4177  0.0017
 5200W        W48117   0.736   1.899  25.833  0.2402  0.2665 -0.0350
 5201W        W48118   2.232   2.198  30.353  0.0359  0.0188 -0.1272
 5202W        W48119   5.159   4.601   0.483 -0.1064  0.0967  0.0137
 5203W        W48120   3.846   2.505  26.627 -0.2777  0.2661 -0.0204
 5204W        W48121   0.046   4.670  27.339  0.0052  0.1252 -0.0349
 5205W        W48122   4.147   2.227  30.927 -0.4257 -0.0468  0.1473
 5206W        W48123   1.130   1.783  30.042  0.2906 -0.0025 -0.2393
 5207W        W48124   0.015   2.931  25.427  0.1179 -0.3278  0.1330
 5208W        W48125   1.310   1.442  28.937 -0.0079 -0.1642 -0.1642
 5209W        W48126   0.735   2.092  27.313  0.0501  0.1334 -0.0876
 5210W        W48127  31.342   1.442  29.928  0.0803 -0.1317 -0.1029
 5211W        W48128   2.708   2.735  27.757 -0.0766  0.0189 -0.2391
 5212W        W48129   3.358   1.245  27.841 -0.1477  0.0610  0.0401
 5213W        W48130   1.462   0.809  28.408  0.0376 -0.2769 -0.0016
 5214W        W48131   4.462  33.722  29.037  0.1203  0.2131 -0.0349
 5215W        W48132   1.776   1.500  28.629  0.0548  0.2631 -0.2963
 5216W        W48133   3.321   5.066  30.661  0.1571  0.2481 -0.1944
 5217W        W48134   5.626   0.345  29.794 -0.2040  0.2877  0.0426
 5218W        W48135   1.786   4.740  29.870  0.0252 -0.1517  0.0824
 5219W        W48136   1.183   0.493  29.839  0.2792 -0.0622 -0.2298
 5220W        W48137   0.723  33.887  28.135 -0.4656  0.2251  0.0503
 5221W        W48138   0.197   4.032  29.280 -0.1729  0.3439 -0.0934
 5222W        W48139   0.995   2.614  29.837  0.3540 -0.1265 -0.0784
 5223W        W48140   2.749   0.817  30.631 -0.1434 -0.4886  0.5236
 5224W        W48141  33.958   0.853  26.572 -0.4597 -0.0276  0.1581
 5225W        W48142   3.209   2.280  28.806  0.0799  0.1650  0.1650
 5226W        W48143   3.363   2.834  29.217  0.0544  0.1091 -0.4940
 5227W        W48144   0.240   2.133  28.702  0.0312  0.0287  0.2130
 5228W        W48145   1.610  34.300  31.464 -0.1140  0.1385 -0.1266
 5229W        W48146   3.743   3.902  29.100  0.0850  0.0470  0.1322
 5230W        W48147   1.426   5.716  30.271 -0.1924  0.0476 -0.0479
 5231W        W48148   3.991   2.444  29.670  0.1805 -0.2636 -0.2975
 5232W        W48149   1.713   1.494  30.791  0.0244  0.3528  0.3606
 5233W        W48150   2.273   1.850  30.030 -0.2469 -0.2050  0.0471
 5234W        W48151   0.515   4.223  28.498 -0.1260  0.3357  0.0923
 5235W        W48152   1.786   3.017  27.843  0.1107 -0.1076  0.2808
 5236W        W48153   1.352  33.158  26.582  0.0865  0.5958  0.0425
 5237W        W48154   1.874   1.899  30.399 -0.0277  0.2766  0.0449
 5238W        W48155   1.778   3.025  28.422  0.2491  0.0658 -0.0945
 5239W        W48156   0.142   2.166  29.779 -0.1620  0.2463  0.1814
 5240W        W48157   3.047   0.470  31.871 -0.1530  0.1401  0.2408
 5241W        W48158   5.849   2.410  28.975  0.0104  0.1077  0.2323
 5242W        W48159   1.200   0.537  28.878 -0.1107  0.0187  0.2820
 5243W        W48160   1.065  34.450  28.419  0.1516  0.0631  0.0083
 5244W        W48161   0.690   5.086  29.914 -0.0056 -0.0696  0.0442
 5245W        W48162   0.165   2.974  28.061  0.2515  0.2125  0.0918
 5246W        W48163   1.024   0.984  29.577  0.1058  0.0944 -0.0027
 5247W        W48164   0.024   3.465  28.383 -0.6694 -0.2199 -0.3403
 5248W        W48165   3.847  33.850  30.070  0.5773  0.2467  0.0887
 5249W        W48166   1.525   1.049  30.662  0.0260 -0.0278 -0.1157
 5250W        W48167   3.156   1.447  29.772  0.0325  0.1397 -0.0864
 5251W        W48168  34.036   1.932  25.344 -0.1317 -0.1383 -0.0614
 5252W        W48169   0.799   1.482  29.720  0.0247 -0.2796 -0.2094
 5253W        W48170   2.998  33.995  29.346  0.4606 -0.0316  0.2221
 5254W        W48171   3.069  33.905  28.003  0.0753 -0.1736  0.0641
 5255W        W48172   2.606   1.931   1.835  0.0292  0.1289  0.0056
 5256W        W48173   3.682   2.456  29.136 -0.1064  0.0206  0.1902
 5257W        W48174   2.407   1.867  27.688  0.0584 -0.1638 -0.0003
 5258W        W48175   1.626   0.532  29.137  0.0072 -0.1696  0.0971
 5259W        W48176   0.996   1.906  31.023  0.1547 -0.0056  0.1159
 5260W        W48177   1.425   4.464  28.512  0.4038  0.0550 -0.0738
 5261W        W48178   3.153   2.484  30.170  0.0637 -0.1952 -0.0053
 5262W        W48179   2.481   0.814  27.057  0.0782 -0.0024  0.1090
 5263W        W48180   4.577   3.873  26.238 -0.0320 -0.0025 -0.2102
 5264W        W48181  34.589   3.095  29.603  0.2211 -0.0464  0.0324
 5265W        W48182   4.014   3.208   0.448 -0.1283  0.1508 -0.1170
 5266W        W48183   4.118   2.322  28.152  0.0443 -0.1633  0.0054
 5267W        W48184   4.848  33.348  29.609 -0.3471  0.2251  0.2618
 5268W        W48185   0.392   0.902  27.776 -0.0153 -0.3481 -0.1117
 5269W        W48186   3.248  33.356  30.135  0.1330 -0.2480  0.0054
 5270W        W48187  34.462   3.968  28.388 -0.1522  0.0994 -0.0029
 5271W        W48188   3.136  34.621  30.320 -0.3426  0.0007  0.2919
 5272W        W48189   3.556  34.635  30.707  0.0641 -0.1319  0.2064
 5273W        W48190   4.201   1.464  30.778  0.1846 -0.2974 -0.0641
 5274W        W48191   4.373   2.252   0.240 -0.2273 -0.0995 -0.0844
 5275W        W48192   2.843   1.969  28.497  0.2387 -0.0348 -0.0527
 5276W        W48193   4.208   2.028  29.198  0.0551 -0.1920  0.3589
 5277W        W48194   0.648   2.520  25.845 -0.1287 -0.1058 -0.2001
 5278W        W48195   2.519   1.186  31.393 -0.2466 -0.1341  0.3378
 5279W        W48196   1.594   2.672  31.006 -0.0045  0.2202  0.1109
 5280W        W48197   0.980   2.907   1.492  0.1078  0.0996 -0.1620
 5281W        W48198   2.359   3.243  30.819 -0.1435 -0.3094 -0.0475
 5282W        W48199   2.898  34.254  29.843 -0.0436  0.1985  0.2733
 5283W        W48200   4.398  33.070  31.180 -0.0966 -0.1393  0.1360
 5284W        W48201   1.434  34.275  28.760 -0.0449 -0.3616  0.3522
 5285W        W48202   2.215   3.755  27.158  0.0080  0.0067  0.0159
 5286W        W48203   0.671   3.177  27.280  0.2373 -0.3197  0.3427
 5287W        W48204   1.115  33.360  29.409 -0.1203  0.0393  0.0344
 5288W        W48205  34.536   2.429  30.184 -0.0672 -0.0854 -0.1251
 5289W        W48206   0.917   3.208  26.768  0.2064  0.0155 -0.2048
 5290W        W48207   1.918   2.574  29.555 -0.0260  0.1556  0.0661
 5291W        W48208   1.079   4.994  28.360 -0.0782  0.0533 -0.1321
 5292W        W48209   2.375  34.520  31.805 -0.1256 -0.3141  0.2569
 5293W        W48210  34.275   3.496  29.381 -0.0526 -0.0571 -0.1795
 5294W        W48211  34.654   2.375  27.251  0.0086 -0.4308  0.0968
 5295W        W48212   0.278   2.455  29.364  0.1892 -0.0143  0.1585
 5296W        W48213   3.743   0.977  28.637  0.1613  0.0318  0.4839
 5297W        W48214   2.979   1.505  27.079 -0.1740 -0.0251 -0.1478
 5298W        W48215   2.103   0.288  27.753  0.1098 -0.0386  0.1175
 5299W        W48216   5.223  34.204  29.532  0.0098 -0.1032  0.0217
 5300W        W48217   1.573   4.332  29.023  0.0731 -0.2090 -0.0347
 5301W        W48218   4.555  34.642  30.687 -0.1247 -0.2530  0.3473
 5302W        W48219   3.809  33.728  27.583 -0.2306 -0.2917  0.1639
 5303W        W48220   4.017   3.070  31.600  0.1511 -0.0811 -0.0402
 5304W        W48221   0.788   3.521  30.062 -0.0285 -0.0437 -0.0527
 5305W        W48222   1.511   0.182  27.598  0.3606  0.0953  0.0682
 5306W        W48223   4.372   0.303  31.445  0.0964  0.0961 -0.2301
 5307W        W48224   1.772  33.243  28.811  0.0347  0.1068 -0.1265
 5308W        W48225   0.502   2.536  27.443  0.0726 -0.1264 -0.2233
 5309W        W48226   1.488   3.735  27.941  0.0340 -0.0583  0.1939
 5310W        W48227   2.195   2.271  28.659  0.2466  0.3177  0.3389
 5311W        W48228  32.958   2.871  28.310  0.2262  0.1427  0.0977
 5312W        W48229   0.886   0.484  30.819 -0.3452  0.0269  0.1939
 5313W        W48230   3.629   1.865  31.728  0.1779 -0.1488  0.1119
 5314W        W48231   3.746   0.372  30.491 -0.0251  0.0543  0.0442
 5315W        W48232   2.498   0.638  27.567  0.1275 -0.0110  0.1341
 5316W        W48233   2.135   2.546  29.105  0.3006  0.4780 -0.0789
 5317W        W48234   2.476   3.227  28.444 -0.1751 -0.0238 -0.3452
 5318W        W48235   1.895  34.181  31.924 -0.2592 -0.1417 -0.0108
 5319W        W48236   1.788   3.012   0.080  0.0907  0.0832  0.0118
 5320W        W48237   3.545  33.098  29.674 -0.0844 -0.1251  0.0335
 5321W        W48238   2.787   4.993  27.752  0.2485  0.2015 -0.0043
 5322W        W48239   3.504  33.619  29.731 -0.2100  0.0471 -0.2365
 5323W        W48240   0.476   0.952  26.596  0.4078 -0.2310 -0.0672
 5324W        W48241   1.697   1.835  29.832 -0.2577  0.2415 -0.1186
 5325W        W48242   1.018   2.320  28.057  0.0177 -0.0960  0.0974
 5326W        W48243   2.633   1.405  29.369 -0.1529  0.0562  0.0177
 5327W        W48244   0.590   2.986  27.714 -0.2136  0.1238  0.0303
 5328W        W48245   1.469   2.657  28.179 -0.2806 -0.0826 -0.2293
 5329W        W48246  34.534   1.612  29.822 -0.2296 -0.1130 -0.2876
 5330W        W48247   2.916  32.349  27.154  0.0733 -0.3570 -0.1807
 5331W        W48248   1.233   1.003  29.133 -0.0062 -0.3410  0.0310
 5332W        W48249   4.848  33.892  31.170 -0.1779 -0.0880  0.2420
 5333W        W48250   4.639  33.462  31.369 -0.0833  0.2295  0.3625
 5334W        W48251   3.439   1.814  28.638  0.0900  0.0921  0.0506
 5335W        W48252   4.596  32.855  29.767 -0.1499  0.1671 -0.1259
 5336W        W48253   2.776   0.181  31.399 -0.2994 -0.0264  0.1481
 5337W        W48254   5.277   3.035  29.507 -0.1675 -0.4884  0.2201
 5338W        W48255   2.185   1.334  30.580  0.4962 -0.1740  0.3123
 5339W        W48256   1.894   3.871  31.259 -0.1707  0.2938  0.3459
 5340W        W48257   0.652   2.906  31.211  0.1097  0.4757 -0.1416
 5341W        W48258   2.004  33.750  28.189  0.0294  0.1302  0.0331
 5342W        W48259   0.694   0.039  28.115  0.1134 -0.1586  0.4727
 5343W        W48260   3.434   2.654  30.561  0.0798 -0.1739  0.0579
 5344W        W48261   1.636   3.942  29.986 -0.2785 -0.5184 -0.1232
 5345W        W48262   2.188   2.884  28.133 -0.2215  0.0935 -0.3574
 5346W        W48263   3.590  34.570  31.244  0.2619 -0.1683 -0.2853
 5347W        W48264  34.129   1.637  30.180  0.0078 -0.2904 -0.0260
 5348W        W48265   3.220  34.480  29.188 -0.1058  0.3346  0.0433
 5349W        W48266   2.792   2.687  29.197 -0.0762 -0.4571  0.3415
 5350W        W48267   2.085   3.980  29.092 -0.0674 -0.3056  0.1138
 5351W        W48268   1.574   0.757  29.646 -0.1836  0.0207  0.0418
 5352W        W48269   2.262   2.241  27.274  0.3276  0.1664 -0.1626
 5353W        W48270   2.354  34.513  29.779  0.1578 -0.1139 -0.3449
 5354W        W48271   2.508   0.445  31.763  0.0275  0.0966  0.2645
 5355W        W48272   3.774  33.717  31.320  0.0477 -0.0884 -0.1116
 5356W        W48273   2.673   1.374  30.351 -0.0535 -0.2354 -0.0032
 5357W        W48274  33.472   0.022  31.085  0.0528  0.1404 -0.0946
 5358W        W48275   2.756   3.983  30.176 -0.1235  0.1584 -0.3837
 5359W        W48276   2.865   0.644  29.180  0.1906 -0.0154  0.0944
 5360W        W48277   3.754   0.032   0.143  0.4146 -0.0220  0.2265
 5361W        W48278   4.013   1.914  30.511  0.1421  0.2696  0.2511
 5362W        W48279   2.643   0.689  29.661  0.0035 -0.1338 -0.2941
 5363W        W48280   0.975   0.102  27.601 -0.0475 -0.4781  0.0659
 5364W        W48281   2.315   2.484  31.042  0.3008  0.2668  0.0821
 5365W        W48282   3.131   0.069  28.604  0.1768  0.0196 -0.3230
 5366W        W48283   3.211   1.265  30.740 -0.0493  0.0650 -0.2874
 5367W        W48284   1.497   3.436  27.562  0.3309 -0.0899 -0.1974
 5368W        W48285   3.471   1.033  29.795  0.2348 -0.1513 -0.2924
 5369W        W48286   0.495   1.149  28.761 -0.3869  0.0139  0.1562
 5370W        W48287   1.334   2.614  31.417 -0.0698 -0.0394  0.2326
 5371W        W48288   1.691   2.613  30.532 -0.2053 -0.2634 -0.2506
 5372W        W48289  34.497   0.882  26.990 -0.0998 -0.0020  0.0443
 5373W        W48290   2.203   1.896  26.879 -0.1699 -0.0112 -0.0095
 5374W        W48291   2.046   2.930  31.045  0.1777 -0.3110 -0.3448
 5375W        W48292   4.912   2.249  30.529  0.0888  0.2214 -0.2316
 5376W        W48293   2.078   1.673  28.070  0.0082 -0.0856 -0.1435
 5377W        W48294   4.608  34.642  29.313 -0.2578 -0.1445 -0.1879
 5378W        W48295   0.584   0.648  27.350 -0.1334  0.4376  0.0906
 5379W        W48296   3.006  33.245  29.703  0.3494 -0.1294  0.1284
 5380W        W48297   0.230   3.721  30.161 -0.0835  0.1339 -0.2170
 5381W        W48298  34.203   2.520  30.986  0.0467  0.2360 -0.3434
 5382W        W48299   2.403   3.662  27.766 -0.2250  0.0435 -0.1831
 5383W        W48300   2.850   1.216   1.049 -0.0295 -0.3876 -0.4673
 5384W        W48301   4.704   1.490  30.643 -0.0558 -0.1050 -0.0827
 5385W        W48302   3.029   1.083  30.050  0.1877  0.1208  0.1118
 5386W        W48303   4.399   0.940  29.811 -0.3957  0.1604 -0.0600
 5387W        W48304   1.527   2.721  29.889 -0.1155 -0.0973 -0.1310
 5388W        W48305   1.597   1.115  27.728  0.0279  0.3377 -0.1842
 5389W        W48306   1.254   2.849  30.345  0.1835  0.1962 -0.1968
 5390W        W48307   3.018   1.837  28.963 -0.1123  0.1411  0.0357
 5391W        W48308   1.120   4.053  29.214 -0.3650 -0.2120 -0.2046
 5392W        W48309  33.980   3.097  30.026 -0.4798  0.1048 -0.2190
 5393W        W48310   3.891   2.461  30.450 -0.0554 -0.0688  0.2169
 5394W        W48311   2.395   1.792  30.547 -0.1028  0.2075 -0.1981
 5395W        W48312   2.853  34.498  30.757  0.2038  0.0811  0.0848
 5396W        W48313   1.420   2.863  27.541 -0.0182  0.0409 -0.3243
 5397W        W48314  33.656   3.849   1.383  0.0943 -0.0670  0.1385
 5398W        W48315   0.777   4.211  31.747  0.0867  0.0401  0.4913
 5399W        W48316   0.590   3.396  28.566 -0.1642  0.0938  0.0522
 5400W        W48317   2.728   1.158  28.398 -0.0082 -0.2900 -0.0036
 5401W        W48318   3.796   2.845  27.086 -0.0461 -0.0310 -0.1706
 5402W        W48319   4.117   2.843  30.718 -0.0480  0.0364 -0.0093
 5403W        W48320  34.642   1.413  28.359  0.0133 -0.3053 -0.1958
 5404W        W48321   1.147   0.919  28.041 -0.1003 -0.2504  0.0991
 5405W        W48322   0.882   2.796  27.340 -0.1919  0.1237  0.0005
 5406W        W48323   5.679   3.808  27.253 -0.2786  0.0639  0.0151
 5407W        W48324   0.916   4.095  29.933 -0.1541  0.0176 -0.1091
 5408W        W48325   3.951   2.856   0.080 -0.2485  0.1343  0.0475
 5409W        W48326   3.415  34.179  27.780  0.0356 -0.0771  0.2142
 5410W        W48327   4.026   1.532  31.357 -0.1236  0.2582  0.3204
 5411W        W48328   3.775   1.408  29.658  0.0071 -0.1190  0.1582
 5412W        W48329   3.084   2.227  30.612 -0.0998 -0.1696 -0.0048
 5413W        W48330   2.347   0.312  29.222 -0.1175 -0.1467  0.3826
 5414W        W48331   3.012   1.382  29.050 -0.0661 -0.3140  0.3376
 5415W        W48332   2.355   0.388  29.929 -0.0551  0.0982  0.2084
 5416W        W48333   3.841  32.181  30.108  0.2633  0.0212 -0.1501
 5417W        W48334  34.556   2.635  29.601 -0.1950  0.4632  0.4043
 5418W        W48335   3.943   2.908  29.430  0.0712 -0.0116  0.0105
 5419W        W48336   0.833   1.495  28.645  0.0136 -0.1749  0.1836
 5420W        W48337   1.792   2.043  28.451  0.1379  0.2660  0.2283
 5421W        W48338   3.799  32.304  30.599 -0.0714  0.0950 -0.3937
 5422W        W48339   0.669   1.923  26.823  0.1530 -0.1633 -0.2836
 5423W        W48340   4.949   1.400  29.138 -0.2104  0.0879 -0.1850
 5424W        W48341   1.042   1.810  28.107 -0.1767  0.1714  0.3075
 5425W        W48342   3.298   4.562  29.661 -0.0570 -0.0320 -0.0827
 5426W        W48343   2.936   4.477  30.053  0.0575 -0.1199 -0.3918
 5427W        W48344   0.820   1.301  28.158  0.0869 -0.1185 -0.2661
 5428W        W48345   5.397   2.544  29.660  0.1600 -0.2170  0.2737
 5429W        W48346   2.036   0.014  30.171 -0.1609 -0.0558 -0.0100
 5430W        W48347   6.728  32.712  30.085  0.2836  0.0176  0.2597
 5431W        W48348   2.077   1.854  31.393  0.1976 -0.3822  0.1025
 5432W        W48349   2.852   0.143  29.049 -0.0796 -0.0365  0.3364
 5433W        W48350   2.729   0.337  30.341 -0.0610 -0.3532  0.1180
 5434W        W48351   1.480   3.072  30.714 -0.0293 -0.1841 -0.1704
 5435W        W48352   2.103   1.541  29.498 -0.4198 -0.4992 -0.2436
 5436W        W48353   4.762   1.609  31.830  0.3234  0.1045 -0.0542
 5437W        W48354   2.893   2.754  26.939 -0.1296 -0.1712  0.3615
 5438W        W48355   3.984   4.640  31.387 -0.0601  0.0429  0.3102
 5439W        W48356   1.499   0.609  27.940  0.1978 -0.0342  0.0854
 5440W        W48357   2.720  34.242  27.721 -0.3747 -0.0610  0.1138
 5441W        W48358   1.352   2.296  29.733 -0.1855  0.0528 -0.3458
 5442W        W48359   2.817   0.140  29.846 -0.0031 -0.3528  0.1052
 5443W        W48360   1.325   4.431  30.837  0.0314 -0.2487 -0.3372
 5444W        W48361   1.607  34.451  28.162  0.0990 -0.0017  0.1188
 5445W        W48362   2.177   2.614  26.800 -0.0166 -0.2018  0.5025
 5446W        W48363   4.442   1.559   0.193  0.0671 -0.1692 -0.1246
 5447W        W48364   2.203   4.441  27.319  0.0145 -0.1770 -0.0640
 5448W        W48365   2.367   1.023  29.429  0.0313 -0.1170 -0.0443
 5449W        W48366   3.395   1.405  29.338 -0.0953 -0.0798  0.1778
 5450W        W48367  33.818   1.457  27.973  0.2223  0.0279  0.0106
 5451W        W48368   1.431   3.954  31.064  0.0246 -0.4634  0.2545
 5452W        W48369   4.744   3.787  29.670  0.0203 -0.2239  0.2683
 5453W        W48370   3.647  33.432  28.429  0.0837  0.3234 -0.1352
 5454W        W48371   2.004   3.314  28.735 -0.1388  0.0109 -0.0456
 5455W        W48372  33.488   4.368  27.469  0.4514 -0.0293  0.1247
 5456W        W48373   2.961   1.087  29.470  0.0354  0.1547  0.3725
 5457W        W48374   2.595  34.537  30.244  0.0841 -0.0484  0.2790
 5458W        W48375   0.585   2.917  26.151 -0.1464 -0.4297  0.3466
 5459W        W48376   3.996   0.218  30.097  0.0308 -0.1320 -0.1109
 5460W        W48377   3.289   3.595   0.052  0.1219 -0.2658  0.0312
 5461W        W48378  33.932   3.934  31.745 -0.2719 -0.2819  0.2798
 5462W        W48379   0.566   0.710  30.398  0.0415  0.1467 -0.3094
 5463W        W48380   2.281   2.328  29.829  0.1470 -0.2189  0.0032
 5464W        W48381   2.429   3.228  29.487  0.1160  0.0794 -0.0302
 5465W        W48382   1.333   2.803  26.965 -0.0361 -0.0360  0.1978
 5466W        W48383   5.056   2.388  30.016 -0.0383  0.1513 -0.3656
 5467W        W48384   2.230   1.791  28.542 -0.1521 -0.1032  0.1695
 5468W        W48385   4.740   1.236  31.103 -0.1769 -0.4822 -0.1069
 5469W        W48386   2.734  33.043  28.418  0.0602 -0.1313 -0.1970
 5470W        W48387   4.768  34.326  28.746 -0.0435 -0.6623  0.1636
 5471W        W48388   2.110  33.043  29.174 -0.1743 -0.1024  0.2231
 5472W        W48389   2.166   3.684  29.514 -0.1553 -0.3184  0.0349
 5473W        W48390   0.669   2.303  29.627 -0.0594 -0.0110 -0.0519
 5474W        W48391  34.660   0.881  26.419 -0.4498  0.1746 -0.1192
 5475W        W48392   1.136   2.322  29.316 -0.0513 -0.4389  0.1324
 5476W        W48393   1.541   0.272  29.591 -0.1163  0.1768 -0.2819
 5477W        W48394   2.471   1.356  29.816 -0.2834  0.1074  0.0646
 5478W        W48395   1.291   1.773  28.566  0.2263 -0.0049  0.2734
 5479W        W48396   0.083   1.915  28.216  0.0709 -0.4177 -0.1001
 5480W        W48397   4.913   1.055  28.172  0.1700 -0.0242  0.3701
 5481W        W48398   1.550  33.527  29.381 -0.0950 -0.0274  0.0802
 5482W        W48399   1.309   1.459  29.407 -0.0637  0.1904 -0.1954
 5483W        W48400   1.661   3.815  28.888 -0.1568  0.1618 -0.0322
 5484W        W48401   2.868   3.511  28.854 -0.1194 -0.1878 -0.0307
 5485W        W48402   2.121  33.877  29.915 -0.1286  0.3180 -0.0679
 5486W        W48403   3.809   2.777   0.642 -0.0972 -0.0465  0.0267
 5487W        W48404  34.190   2.702  28.939  0.1916 -0.1550 -0.0664
 5488W        W48405   3.116   1.165   0.320  0.1770  0.1020  0.0784
 5489W        W48406   1.831   0.119  29.071 -0.1440  0.1299 -0.0075
 5490W        W48407   2.209   0.748  29.034  0.1691 -0.0836 -0.2958
 5491W        W48408   2.147   0.476  30.917 -0.1475  0.3694 -0.1550
 5492W        W48409   3.668   2.405  28.598 -0.0822 -0.2585 -0.1547
 5493W        W48410   2.600   3.902  28.765  0.0725 -0.2573  0.2294
 5494W        W48411   1.495   2.983  29.454 -0.0238 -0.1689 -0.0832
 5495W        W48412  34.382   3.869  29.088  0.0129  0.0246 -0.0701
 5496W        W48413   0.918   0.303  28.477  0.2967 -0.2570  0.2462
 5497W        W48414   1.857   2.887  28.995  0.1901  0.2553  0.1565
 5498W        W48415   2.607   2.341  30.686 -0.0028  0.1479 -0.3092
 5499W        W48416   4.597   2.848  28.590  0.0609  0.2741  0.4068
 5500W        W48417   7.793  32.225  29.133  0.1565 -0.0394 -0.0111
 5501W        W48418   1.677   1.304  29.752 -0.1247 -0.1036  0.2650
 5502W        W48419   1.990  34.017  29.442  0.5564 -0.2547  0.1749
 5503W        W48420   1.629   3.231  30.137 -0.0494 -0.4896  0.2307
 5504W        W48421   3.070   3.997  28.336 -0.0061  0.5543  0.0255
 5505W        W48422   0.991   1.948  29.574  0.2754  0.3072 -0.0972
 5506W        W48423   3.223   0.698  27.590 -0.0009  0.0592  0.0612
 5507W        W48424   4.235   3.183  28.966  0.1050 -0.4408 -0.2185
 5508W        W48425   1.704   1.303   0.082  0.1649  0.1064  0.0817
 5509W        W48426   3.648   0.501  28.619 -0.2180 -0.0297  0.1082
 5510W        W48427   4.799   1.380  29.770  0.2330  0.0707  0.0250
 5511W        W48428   1.755   3.055  27.178 -0.0412  0.0672 -0.2026
 5512W        W48429   4.900   4.545   1.149  0.0118 -0.0658  0.1291
 5513W        W48430   1.321   1.294  28.429 -0.0600 -0.0194 -0.1037
 5514W        W48431   3.203   0.211  29.474  0.2423 -0.0076  0.2319
 5515W        W48432   0.783   2.960  30.684 -0.2787 -0.3786 -0.0667
 5516W        W48433   4.146   6.043   0.543 -0.3560 -0.0111  0.1036
 5517W        W48434   2.959   3.264  27.860  0.1074  0.0518 -0.0240
 5518W        W48435   4.888   1.317  28.641  0.1969  0.1716 -0.1060
 5519W        W48436   1.370  34.452  27.216 -0.1473 -0.4267  0.5166
 5520W        W48437   0.836   3.187  29.587 -0.0944  0.1853 -0.1127
 5521W        W48438   2.583   3.521  29.935 -0.0899  0.0996 -0.1532
 5522W        W48439   2.814  32.829  30.888 -0.0484  0.2035  0.0665
 5523W        W48440   2.116  34.032  31.216  0.0810 -0.0625 -0.0088
 5524W        W48441   1.833  34.160  27.280  0.1887 -0.0343  0.0782
 5525W        W48442   1.448   3.653  30.674  0.0697  0.3073 -0.1135
 5526W        W48443   3.384   0.838  29.040  0.2235 -0.1614 -0.3649
 5527W        W48444   3.377  34.133  30.042  0.1073 -0.0880  0.0978
 5528W        W48445   2.118   0.830  31.336 -0.2741  0.0893  0.1627
 5529W        W48446  34.104   3.085  30.604 -0.1247 -0.1023  0.0749
 5530W        W48447   1.856   3.688  30.374 -0.1853  0.4344  0.2030
 5531W        W48448   3.322   2.726   0.755 -0.3843 -0.0687 -0.1267
 5532W        W48449   0.549   5.348  29.473 -0.2149  0.0529 -0.4421
 5533W        W48450   5.374   2.837   0.770  0.3252 -0.0977  0.0951
 5534W        W48451   3.311   0.010  31.748  0.1891 -0.0615  0.2349
 5535W        W48452   4.368   1.269  31.677  0.3391  0.1993  0.2813
 5536W        W48453   5.118   2.320  31.279 -0.0663  0.1301 -0.4184
 5537W        W48454   0.350   3.126  30.894 -0.1315  0.3318 -0.3227
 5538W        W48455   3.048  33.738  29.849 -0.1106  0.2067 -0.2485
 5539W        W48456   2.108   2.746  30.027  0.5095 -0.1397 -0.0064
 5540W        W48457   2.639   0.845  30.112 -0.1037  0.1308 -0.0617
 5541W        W48458   3.332   2.614  31.232 -0.2203  0.2580  0.0208
 5542W        W48459   2.293   3.264  31.331 -0.0677 -0.1168  0.1607
 5543W        W48460   1.744   1.512  29.193  0.2568 -0.3652  0.0979
 5544W        W48461   4.140   4.711  30.904 -0.0838  0.2398 -0.5981
 5545W        W48462   0.763  34.661  30.788 -0.2937  0.0904  0.3285
 5546W        W48463   1.013   1.179  30.420 -0.2231 -0.0797  0.2882
 5547W        W48464   3.319   0.473   0.837  0.0841  0.1894 -0.0897
 5548W        W48465  34.615   1.972  31.429  0.0204  0.0563 -0.0072
 5549W        W48466   3.553   0.507  31.954  0.1743 -0.3603  0.0903
 5550W        W48467   5.292   1.278  31.889 -0.0945 -0.0614  0.1297
 5551W        W48468   2.182  34.228  30.299 -0.0163 -0.1710  0.2074
 5552W        W48469   1.839   0.483  29.948  0.3475 -0.4806 -0.0304
 5553W        W48470   3.811   0.804  30.880  0.2412  0.1635 -0.0378
 5554W        W48471   0.292   3.893   0.469  0.1368 -0.0211 -0.3924
 5555W        W48472   2.232   2.694  30.575  0.1171 -0.0639  0.1216
 5556W        W48473   0.801   4.569  29.943 -0.2242 -0.1494 -0.3528
 5557W        W48474   0.868   3.528  31.891 -0.4059 -0.1610 -0.2180
 5558W        W48475   1.621   2.242   0.332 -0.0747  0.0211  0.2533
 5559W        W48476   4.612   3.580  31.718  0.0363 -0.1502  0.1296
 5560W        W48477   1.136   2.887  31.078  0.1387 -0.0070 -0.0651
 5561W        W48478   1.716   0.552   0.379  0.0742  0.2297 -0.1421
 5562W        W48479   1.357   1.824  30.626  0.1886 -0.0197 -0.2376
 5563W        W48480   2.084   2.792  31.567 -0.2816 -0.0152  0.1283
 5564W        W48481   0.877   2.379  31.232  0.0790 -0.2478  0.0662
 5565W        W48482   2.714   3.481  31.099  0.0850  0.1525  0.1158
 5566W        W48483   3.880   3.441  31.291 -0.0898 -0.4806  0.1738
 5567W        W48484   5.187   0.072   0.667 -0.0975 -0.1154 -0.1544
 5568W        W48485   2.764   2.113  30.265  0.1732 -0.5828  0.0149
 5569W        W48486   0.929   0.959  31.803  0.0405 -0.2763 -0.0016
 5570W        W48487   2.389   4.109   0.122  0.1316  0.1566 -0.0131
 5571W        W48488   2.241   0.667   0.320 -0.3623  0.3231  0.0120
 5572W        W48489   2.909   3.139  31.430 -0.1258  0.0800  0.4634
 5573W        W48490   1.426   0.505  31.863 -0.0391 -0.1107 -0.3615
 5574W        W48491   1.879   3.427  31.005  0.0114 -0.3213 -0.0260
 5575W        W48492   2.696   3.456  31.719  0.1404  0.1256 -0.1922
 5576W        W48493  33.858   2.167  30.276 -0.0147 -0.1600  0.1377
 5577W        W48494   3.448   3.993  29.571  0.2722  0.1952  0.1946
 5578W        W48495   4.665   0.481  30.919 -0.1552  0.3020 -0.0300
 5579W        W48496   1.979   2.053  31.903  0.3844  0.0164 -0.2025
 5580W        W48497   2.251   3.713   0.320  0.2296 -0.3422  0.0477
 5581W        W48498   2.862   1.756  30.605 -0.2223 -0.1583  0.1805
 5582W        W48499   4.124   2.141  30.050 -0.3530 -0.2322  0.1537
 5583W        W48500   3.660   4.807  31.077  0.0214  0.2753 -0.2945
 5584W        W48501   2.708   2.861   1.918 -0.2015 -0.0816  0.2553
 5585W        W48502   1.762   3.536   0.101  0.0266  0.2131  0.0511
 5586W        W48503   1.388   2.240  30.338  0.3307  0.0305 -0.1380
 5587W        W48504  34.110   1.392   0.058 -0.0531  0.0599  0.1100
 5588W        W48505   3.702   1.334  30.627 -0.0306  0.2323 -0.1924
 5589W        W48506   1.872   1.279   0.732 -0.1264  0.1202  0.1169
 5590W        W48507   1.177   1.284  29.890 -0.1709  0.2384 -0.1931
 5591W        W48508   3.876   4.672   1.750  0.2360 -0.1121  0.0872
 5592W        W48509   4.487   4.051  31.620  0.3955 -0.0178  0.1808
 5593W        W48510   4.892   2.850   0.988  0.0832  0.0491  0.0947
 5594W        W48511   1.291   6.097  18.492  0.0404  0.3583 -0.0055
 5595W        W48512   1.585   3.997  16.759  0.1251  0.1089  0.2894
 5596W        W48513   3.846   5.431  16.245  0.0034 -0.0372 -0.1702
 5597W        W48514   2.884   5.776  16.096 -0.1265  0.4301 -0.4518
 5598W        W48515   1.102   2.275  17.016 -0.2435  0.1748  0.0231
 5599W        W48516   2.787   6.607  16.715 -0.1533  0.1388  0.1573
 5600W        W48517  34.654   0.912  20.357  0.0322  0.1836 -0.2134
 5601W        W48518   3.712   5.746  19.375 -0.0270 -0.0065  0.0213
 5602W        W48519   3.977   7.386  17.315  0.0283 -0.0228 -0.0495
 5603W        W48520   3.336   6.148  16.529 -0.1533  0.0364  0.1521
 5604W        W48521   1.088   3.183  20.242  0.0894  0.0952 -0.2245
 5605W        W48522   0.412   6.593  18.741 -0.1647 -0.1326 -0.2479
 5606W        W48523   1.344   4.928  16.323 -0.0123 -0.1628 -0.2292
 5607W        W48524   1.039   2.915  17.620 -0.2076  0.1394  0.1256
 5608W        W48525   2.308   5.548  20.840  0.0312 -0.1767  0.2644
 5609W        W48526  33.603   6.620  17.715 -0.0057  0.0233 -0.2123
 5610W        W48527   2.348   3.540  17.228  0.0191 -0.0615  0.2945
 5611W        W48528   3.073   3.211  16.078  0.0984 -0.0917  0.1515
 5612W        W48529   2.086   6.964  17.232 -0.0615  0.2064  0.0223
 5613W        W48530   0.773   4.089  19.581 -0.2635  0.0866 -0.0899
 5614W        W48531   1.632   3.466  16.603  0.0829  0.3216  0.1398
 5615W        W48532   1.717   7.616  17.735  0.1262  0.3426  0.1738
 5616W        W48533  33.703   6.013  16.806 -0.0789  0.1116 -0.0588
 5617W        W48534   0.709   5.319  17.036 -0.0668 -0.0624 -0.1693
 5618W        W48535   2.071   4.605  20.401 -0.3888  0.3112  0.1518
 5619W        W48536   3.434   3.843  19.675 -0.0493  0.2753 -0.3247
 5620W        W48537   2.256   5.923  19.445 -0.0950  0.2532 -0.3192
 5621W        W48538   2.126   5.771  17.959 -0.0685  0.2872 -0.2455
 5622W        W48539   1.352   6.463  17.454 -0.1652 -0.2094  0.1090
 5623W        W48540   3.427   6.442  21.533  0.0525 -0.4112 -0.1102
 5624W        W48541  34.442   4.185  17.784 -0.1948 -0.0955  0.1529
 5625W        W48542  33.770   8.124  20.067 -0.0641 -0.1659  0.2343
 5626W        W48543   0.966   6.461  18.690 -0.1104 -0.0164  0.2899
 5627W        W48544   2.813   7.224  17.037 -0.1690  0.0705  0.0367
 5628W        W48545   3.989   6.627  20.380  0.0305 -0.0883 -0.0149
 5629W        W48546   3.106   9.347  22.234  0.2778  0.0778 -0.1014
 5630W        W48547   1.484   5.456  16.119 -0.1252 -0.1344 -0.1327
 5631W        W48548   0.832   7.037  19.802 -0.3079 -0.2493 -0.0840
 5632W        W48549   0.931   8.931  22.408  0.3161 -0.2917  0.3035
 5633W        W48550   4.170   4.813  18.224 -0.0315  0.0595  0.1358
 5634W        W48551   1.540   3.800  17.496  0.4146  0.0159 -0.0425
 5635W        W48552   0.694   7.496  18.154  0.0386  0.1851  0.0713
 5636W        W48553   1.398   5.502  18.079  0.0472  0.3260 -0.2773
 5637W        W48554   2.039   6.978  21.435 -0.3122  0.1664 -0.0067
 5638W        W48555   0.165   5.914  17.631 -0.0490  0.2671  0.2866
 5639W        W48556   4.891   6.039  20.110 -0.2770  0.2429  0.0914
 5640W        W48557  33.946   5.521  16.807 -0.1954  0.1876 -0.1606
 5641W        W48558   4.269   5.630  16.475  0.1028  0.1125  0.0386
 5642W        W48559   1.313   3.102  16.897  0.3245  0.0053  0.0651
 5643W        W48560   3.025   5.236  15.954 -0.1659  0.0389 -0.1111
 5644W        W48561   3.434   5.423  17.701 -0.3595  0.5604 -0.3138
 5645W        W48562  34.587   6.293  18.664 -0.0562  0.4879  0.1975
 5646W        W48563   2.339   3.905  17.545  0.1714 -0.1897  0.1212
 5647W        W48564   2.095   6.675  19.985  0.0172 -0.0240  0.1769
 5648W        W48565   1.513   4.447  17.794  0.0869 -0.1225  0.0194
 5649W        W48566   1.864   5.642  18.373 -0.0445 -0.2104 -0.2385
 5650W        W48567  34.580   6.825  20.201  0.2721 -0.1021  0.1105
 5651W        W48568   2.079   4.556  17.105  0.1875 -0.3331 -0.0157
 5652W        W48569   3.882   5.442  15.649  0.0002 -0.1922 -0.0180
 5653W        W48570   3.535   6.917  17.949 -0.1692 -0.0178 -0.1808
 5654W        W48571   1.734   7.075  16.274 -0.4240 -0.1072 -0.2970
 5655W        W48572   1.363   4.645  17.284 -0.1451 -0.2562  0.0569
 5656W        W48573   0.087   6.959  21.065 -0.0852  0.1472  0.4220
 5657W        W48574  34.038   4.722  18.992  0.1674 -0.2223 -0.0413
 5658W        W48575   0.865   6.273  17.258 -0.3119 -0.0494  0.0526
 5659W        W48576   4.676   5.399  19.462 -0.0965  0.1713 -0.0210
 5660W        W48577  33.685   6.199  20.468 -0.0112  0.1180  0.1990
 5661W        W48578   4.272   5.331  19.060 -0.0070  0.0904 -0.3592
 5662W        W48579   0.975   4.564  17.987 -0.0891 -0.1910  0.2805
 5663W        W48580   4.904   5.735  18.531 -0.1547 -0.2875  0.0765
 5664W        W48581   2.492   4.001  16.545  0.0057  0.3040 -0.0651
 5665W        W48582   2.863   4.417  17.182 -0.2545 -0.0207 -0.0993
 5666W        W48583   4.128   4.319  17.498  0.0625  0.0315  0.1676
 5667W        W48584   1.018   4.004  16.596 -0.3079 -0.2456 -0.0423
 5668W        W48585   1.807   5.846  17.009  0.1414  0.0853  0.1785
 5669W        W48586   1.605   6.057  19.887  0.0272  0.0288  0.0192
 5670W        W48587   2.340   7.609  17.734  0.0374 -0.0473  0.0332
 5671W        W48588  34.217   7.301  20.325 -0.0560 -0.0941  0.1042
 5672W        W48589   2.672   3.561  18.932 -0.0851  0.2539  0.1381
 5673W        W48590   1.231   6.244  19.598  0.1974  0.1727 -0.0894
 5674W        W48591   0.401   6.886  17.789  0.1666  0.0554  0.3042
 5675W        W48592   2.034   5.284  18.690  0.0537  0.0894 -0.2535
 5676W        W48593   0.844   5.485  17.796 -0.0708  0.4785 -0.1211
 5677W        W48594  33.627   4.942  19.180  0.3942 -0.1082  0.0913
 5678W        W48595   1.085   6.118  21.233  0.2852 -0.0698  0.0699
 5679W        W48596   3.959   4.732  17.170  0.2285 -0.1269  0.0780
 5680W        W48597  34.100   2.487  19.018  0.3464  0.0062  0.1001
 5681W        W48598   5.631   3.509  16.658  0.2567  0.1562 -0.0616
 5682W        W48599   2.271   6.576  17.534  0.0391  0.2793  0.1167
 5683W        W48600   3.225   6.626  16.487 -0.1047 -0.4252 -0.0815
 5684W        W48601   3.210   5.142  16.430  0.0414  0.0730 -0.1080
 5685W        W48602   2.766   6.572  17.204  0.2463  0.0025  0.0777
 5686W        W48603  34.636   4.669  17.870 -0.1892 -0.2013 -0.1624
 5687W        W48604   0.342   5.137  17.756  0.0370  0.0142  0.2113
 5688W        W48605   2.155   5.218  20.015 -0.2727  0.0234 -0.2147
 5689W        W48606   0.810   2.265  16.511 -0.3055  0.0248 -0.0445
 5690W        W48607   4.192   5.502  20.792  0.0771 -0.3098  0.0613
 5691W        W48608   0.865   3.072  16.685  0.0277  0.0006  0.2166
 5692W        W48609   1.808   5.800  19.208 -0.1186 -0.0078  0.2496
 5693W        W48610   2.989   3.806  18.080 -0.0611 -0.1643  0.2439
 5694W        W48611   0.069   4.071  16.916 -0.0993  0.0635  0.3402
 5695W        W48612   2.736   5.302  22.423  0.4928 -0.0245  0.2769
 5696W        W48613   2.325   7.871  16.914  0.1792  0.2915 -0.0177
 5697W        W48614   2.961   6.043  19.599  0.1657  0.0634 -0.2273
 5698W        W48615   3.104   6.965  17.542 -0.0528 -0.1731  0.3031
 5699W        W48616   0.224   5.911  20.614  0.3385 -0.2044  0.3368
 5700W        W48617   0.896   6.539  16.822  0.1267 -0.1156  0.1177
 5701W        W48618   2.258   7.900  19.076  0.2953  0.2254  0.0111
 5702W        W48619   4.363   3.411  18.020 -0.2554 -0.1031  0.0087
 5703W        W48620   1.888   3.260  16.947 -0.0053 -0.1120  0.1505
 5704W        W48621   4.648   6.678  18.971 -0.2507  0.1599 -0.0041
 5705W        W48622   1.838   5.923  20.647  0.1307  0.2099 -0.1744
 5706W        W48623   2.376   5.926  20.532  0.0823  0.1478  0.0132
 5707W        W48624   6.872   3.799  19.859  0.1306 -0.0532 -0.0267
 5708W        W48625   4.767   5.648  19.019 -0.1468  0.0401  0.2724
 5709W        W48626   3.107   6.391  18.503 -0.0822  0.2433  0.1161
 5710W        W48627   0.792   3.755  15.957 -0.0163  0.2010 -0.0995
 5711W        W48628   0.826   7.037  17.966  0.1829  0.1933  0.2468
 5712W        W48629   0.499   6.753  17.073  0.0082  0.1252  0.1935
 5713W        W48630   1.817   4.978  16.863  0.1517  0.1323 -0.0633
 5714W        W48631   1.524   6.538  18.778 -0.1849  0.2013  0.2483
 5715W        W48632   2.605   4.815  17.135 -0.1143  0.2533  0.2907
 5716W        W48633   1.002   6.458  20.868 -0.3028 -0.1791 -0.1489
 5717W        W48634   0.863   6.132  21.674  0.6059  0.0718  0.0949
 5718W        W48635  33.372   4.678  17.089 -0.0862 -0.0624  0.4016
 5719W        W48636   0.811   6.649  20.476  0.1829 -0.3034  0.2633
 5720W        W48637   4.538   4.897  18.839 -0.1278 -0.0402  0.3760
 5721W        W48638   2.934   4.030  16.779  0.0404  0.2836 -0.1291
 5722W        W48639   4.551   6.507  18.085 -0.2469 -0.1415  0.1620
 5723W        W48640   2.219   5.484  17.509 -0.2056 -0.3128  0.0376
 5724W        W48641   2.447   3.508  16.362 -0.1055  0.5488  0.0424
 5725W        W48642   1.817   3.169  15.855  0.0059 -0.0660 -0.2323
 5726W        W48643   1.468   5.724  19.560  0.0570  0.0856 -0.0085
 5727W        W48644   1.932   6.250  17.265  0.2973 -0.2367  0.0666
 5728W        W48645   2.764   7.170  18.455 -0.1703 -0.0722  0.1169
 5729W        W48646   3.106   5.313  16.926 -0.2520 -0.0903  0.1446
 5730W        W48647   2.881   6.861  18.786 -0.1176  0.0314 -0.2870
 5731W        W48648   1.566   5.349  19.083  0.0542  0.1973  0.0100
 5732W        W48649   3.243   8.274  21.498  0.1575  0.3720  0.2208
 5733W        W48650   1.499   8.715  17.348  0.0020  0.3074  0.0754
 5734W        W48651   1.712   5.562  21.294 -0.0568  0.2721 -0.1618
 5735W        W48652   0.629   5.067  16.605  0.4663  0.1863 -0.2698
 5736W        W48653   0.607   4.052  16.310 -0.1503 -0.3804  0.1877
 5737W        W48654   0.355   7.899  16.909 -0.1809 -0.1374 -0.1194
 5738W        W48655   1.552   4.955  19.667 -0.2440  0.1688  0.0455
 5739W        W48656   2.508   4.775  18.070  0.4384  0.0489 -0.2736
 5740W        W48657  34.573   4.191  19.607  0.2295 -0.2034 -0.0524
 5741W        W48658   2.713   9.135  22.452 -0.2467  0.0558  0.0533
 5742W        W48659   2.944   5.379  18.357 -0.0033  0.1703  0.3443
 5743W        W48660   4.114   4.796  17.649  0.0344  0.1125 -0.1132
 5744W        W48661   0.330   5.557  16.843 -0.1696  0.0622  0.0773
 5745W        W48662   2.628   3.917  19.249 -0.0438  0.1036 -0.0374
 5746W        W48663   2.389   4.972  19.440 -0.1816  0.4382  0.0781
 5747W        W48664   1.127   7.427  19.959  0.2426 -0.1907  0.1910
 5748W        W48665   2.883   5.300  19.464 -0.1218  0.0684  0.0800
 5749W        W48666   2.276   5.766  17.113  0.1685  0.0510 -0.2097
 5750W        W48667   2.539   6.724  21.287  0.0245 -0.2611  0.0738
 5751W        W48668   1.778   5.407  17.231 -0.1528 -0.1304 -0.1550
 5752W        W48669   1.036   7.527  16.764  0.1841 -0.0997 -0.1503
 5753W        W48670   0.195   6.328  16.218 -0.1382  0.1319 -0.3470
 5754W        W48671   0.400   2.667  19.725  0.1386  0.2766  0.1343
 5755W        W48672   1.701   6.352  19.187  0.2886 -0.1444 -0.1308
 5756W        W48673   1.601   5.940  18.038  0.1511 -0.0456 -0.0447
 5757W        W48674   2.212   6.768  20.826 -0.2281  0.0854  0.0539
 5758W        W48675   1.704   6.277  16.625 -0.2553  0.0882  0.4719
 5759W        W48676   2.893   5.132  20.379  0.1400  0.2233  0.0577
 5760W        W48677   0.512   6.729  20.039 -0.0668 -0.2609 -0.1873
 5761W        W48678   0.820   5.032  17.551  0.2767  0.2717  0.0339
 5762W        W48679   1.199   4.315  16.964  0.1146  0.0269  0.1836
 5763W        W48680   2.641   3.512  17.659  0.0804 -0.0650 -0.1758
 5764W        W48681   3.167   6.636  18.080 -0.1443 -0.0768 -0.0504
 5765W        W48682   1.710   4.860  18.763 -0.3236 -0.0536 -0.0817
 5766W        W48683   3.093   4.987  17.281 -0.0309 -0.0731  0.2272
 5767W        W48684  34.199   6.256  20.480 -0.3654 -0.0962  0.1033
 5768W        W48685   4.935   3.418  18.160  0.2290 -0.1871  0.0525
 5769W        W48686   0.640   3.571  16.621  0.1468  0.2570  0.0277
 5770W        W48687   4.931   7.402  19.432  0.0698 -0.0148 -0.4050
 5771W        W48688   2.018   6.189  20.184 -0.4234  0.4161 -0.1696
 5772W        W48689  34.296   4.794  18.272 -0.1011  0.0398  0.4154
 5773W        W48690   3.443   5.069  21.041  0.1181  0.3448 -0.0997
 5774W        W48691   2.844   4.852  19.585  0.0972  0.1005 -0.0006
 5775W        W48692   0.072   4.836  16.727 -0.0796 -0.4147  0.2118
 5776W        W48693   3.243   8.884  20.841 -0.1334  0.2536  0.0054
 5777W        W48694   1.175   5.219  16.713 -0.1727  0.3363  0.0150
 5778W        W48695   0.681   5.895  17.643 -0.2095  0.2275 -0.4454
 5779W        W48696   0.650   4.277  17.760 -0.0421  0.0992  0.0338
 5780W        W48697   0.687   5.748  20.908  0.0532  0.3142 -0.0249
 5781W        W48698   1.076   3.461  18.082  0.3251 -0.0541  0.0127
 5782W        W48699   1.047   3.809  17.073 -0.0381 -0.0858 -0.1215
 5783W        W48700   4.083   4.859  18.872  0.0419 -0.2302  0.1443
 5784W        W48701   3.113   5.298  19.035  0.1928  0.1086 -0.2399
 5785W        W48702   3.658   5.488  20.823  0.1809 -0.1893 -0.0785
 5786W        W48703  34.106   5.640  21.835  0.1703  0.2570 -0.1234
 5787W        W48704   2.110   2.172  18.432 -0.3447  0.2081 -0.2359
 5788W        W48705   1.739   8.152  17.695 -0.0229  0.0737  0.0003
 5789W        W48706   1.624   7.186  19.166 -0.1098  0.1346  0.1574
 5790W        W48707   1.422   6.793  16.668 -0.0681 -0.1175  0.1103
 5791W        W48708  34.584   2.793  16.668 -0.3921  0.0487  0.1434
 5792W        W48709   2.165   6.258  19.064 -0.2688  0.0668  0.2345
 5793W        W48710   4.332   5.195  18.507  0.2629 -0.0261 -0.0551
 5794W        W48711   1.772   6.048  18.706 -0.0359  0.2491 -0.0509
 5795W        W48712   0.370   6.575  16.626 -0.1242  0.0139  0.3083
 5796W        W48713  34.445   4.947  17.210 -0.1608  0.1385  0.0080
 5797W        W48714   5.192   3.635  16.937 -0.2640  0.0136  0.1642
 5798W        W48715   2.114   6.700  16.441 -0.0371  0.0623 -0.0391
 5799W        W48716   2.319   3.833  18.701  0.2158  0.0443 -0.2686
 5800W        W48717   3.040   6.050  21.415 -0.2494 -0.5989  0.0346
 5801W        W48718   2.637   5.350  16.399  0.0654 -0.0879 -0.2915
 5802W        W48719   5.988   4.258  20.438  0.2371 -0.0623  0.0152
 5803W        W48720   0.567   3.321  19.078  0.2163 -0.0466 -0.1834
 5804W        W48721   1.375   6.616  20.513 -0.1383  0.0865 -0.0638
 5805W        W48722  33.697   3.076  20.013  0.0021 -0.0247  0.1824
 5806W        W48723   2.015   8.429  21.308  0.2089  0.1918  0.3835
 5807W        W48724  34.330   5.672  19.820  0.0395 -0.0300 -0.1797
 5808W        W48725   2.769   3.818  17.209 -0.0128  0.1911  0.1803
 5809W        W48726   0.880   3.321  16.198  0.0756 -0.0353  0.0989
 5810W        W48727   0.400   5.609  17.342 -0.0236  0.0052 -0.0169
 5811W        W48728   4.100   7.649  16.824  0.3167 -0.2902  0.1086
 5812W        W48729   2.409   6.931  16.796  0.1021  0.0126 -0.1151
 5813W        W48730   2.422   5.365  20.395 -0.0830 -0.0904  0.2011
 5814W        W48731   5.585   5.127  17.079 -0.1817 -0.0730  0.3171
 5815W        W48732   3.603   5.149  18.973 -0.2775  0.0076 -0.3853
 5816W        W48733   3.544   5.456  16.668  0.0509  0.4139  0.2731
 5817W        W48734   0.379   4.876  18.894 -0.1897 -0.2325  0.1006
 5818W        W48735   1.013   4.330  18.468  0.0707  0.1581  0.1790
 5819W        W48736   3.176   8.140  16.997 -0.1297 -0.1184  0.1467
 5820W        W48737   2.848   4.358  16.396  0.1248 -0.2287  0.3991
 5821W        W48738   1.431   5.699  20.306 -0.0298  0.1099 -0.2556
 5822W        W48739   3.409   5.317  19.526  0.1832  0.0259 -0.0999
 5823W        W48740  34.389   7.314  21.183 -0.0088  0.0414  0.2045
 5824W        W48741  33.223   2.919  20.127  0.0479  0.1261 -0.0414
 5825W        W48742   3.048   7.109  18.017  0.0225 -0.1253 -0.2952
 5826W        W48743   3.945   3.271  16.030 -0.2351  0.0280 -0.0929
 5827W        W48744   3.469   6.142  20.967  0.0724 -0.1068  0.3969
 5828W        W48745   3.828   4.106  16.313  0.2033  0.0553 -0.2609
 5829W        W48746   3.436   4.609  18.270 -0.0054  0.0405  0.1783
 5830W        W48747   1.685   7.021  18.567  0.1500  0.3442  0.2858
 5831W        W48748   1.400   5.699  21.587 -0.0821 -0.2776 -0.6565
 5832W        W48749   1.198   4.769  16.828  0.0529 -0.1460 -0.1283
 5833W        W48750   0.469   6.121  18.975 -0.4064 -0.2385 -0.1220
 5834W        W48751   2.323   6.018  17.562  0.0308  0.0967 -0.1189
 5835W        W48752   2.891   6.164  20.648 -0.1633  0.2200 -0.1158
 5836W        W48753   2.525   4.464  16.720 -0.0972 -0.0977  0.3062
 5837W        W48754   2.899   4.667  17.658  0.2450  0.1396  0.1200
 5838W        W48755   0.603   5.644  19.191 -0.1449 -0.0100  0.0599
 5839W        W48756   0.445   6.133  16.869  0.0503 -0.0641 -0.1367
 5840W        W48757   1.270   5.640  16.887 -0.0507 -0.2581 -0.1023
 5841W        W48758   2.483   6.338  19.493  0.0722 -0.3653 -0.0556
 5842W        W48759   3.222   5.711  19.315  0.1226 -0.2859 -0.0719
 5843W        W48760   1.756   4.279  16.193  0.2196  0.0639  0.0200
 5844W        W48761   4.696   5.224  20.296 -0.0894  0.1313  0.1382
 5845W        W48762   0.328   6.322  17.318 -0.3029  0.4574  0.2928
 5846W        W48763   3.996   4.066  16.799 -0.3362  0.0790 -0.4481
 5847W        W48764  33.167   6.037  19.924  0.4178 -0.0225  0.0876
 5848W        W48765   1.225   6.510  19.193 -0.3156  0.1120  0.0425
 5849W        W48766   3.129   7.552  19.256  0.0900  0.1074  0.1569
 5850W        W48767   1.322   4.225  19.991  0.3250 -0.1213  0.1771
 5851W        W48768   2.486   6.077  18.654 -0.2113 -0.0822 -0.1610
 5852W        W48769   2.485   4.414  19.503 -0.1881 -0.0385 -0.2651
 5853W        W48770   4.028   4.488  21.670  0.0127 -0.0184 -0.0946
 5854W        W48771   1.492   8.305  20.946  0.1556 -0.1184 -0.1394
 5855W        W48772   2.923   4.857  16.780 -0.1221 -0.1066  0.2602
 5856W        W48773   2.462   6.660  19.012  0.0711  0.1591 -0.4258
 5857W        W48774   2.660   4.712  20.237 -0.3007  0.1950  0.2347
 5858W        W48775  34.039   6.408  18.682 -0.0820 -0.3762  0.0659
 5859W        W48776  33.628   5.340  17.717 -0.0014  0.1835 -0.1597
 5860W        W48777   2.013   7.785  19.479 -0.2224 -0.1793  0.1924
 5861W        W48778   3.145   4.260  17.951 -0.2852 -0.4760  0.3793
 5862W        W48779   1.500   2.977  17.369  0.0970  0.1062  0.2672
 5863W        W48780   1.359   7.906  18.004  0.2165 -0.1624 -0.2151
 5864W        W48781  34.079   7.629  21.481 -0.1388  0.1305 -0.1663
 5865W        W48782   1.358   6.002  18.995  0.2404  0.2344  0.0532
 5866W        W48783   0.784   6.747  16.262  0.0904 -0.2361 -0.3050
 5867W        W48784   1.158   5.903  17.803  0.1613  0.0478 -0.1714
 5868W        W48785   1.665   5.275  16.508 -0.2110  0.0634 -0.0356
 5869W        W48786   2.278   7.081  18.760  0.2527 -0.1964  0.4476
 5870W        W48787   0.276   5.059  17.156  0.1209 -0.0524  0.0558
 5871W        W48788   0.811   7.078  17.418 -0.1943  0.3619 -0.3225
 5872W        W48789  33.863   3.419  16.941 -0.0350 -0.2228 -0.1704
 5873W        W48790   3.644   8.029  16.909  0.0698  0.1519  0.2186
 5874W        W48791   0.977   5.103  18.152  0.4194 -0.0932 -0.0791
 5875W        W48792   2.519   7.489  21.694 -0.0398 -0.1628 -0.0753
 5876W        W48793   2.823   4.041  15.943 -0.0984  0.0346 -0.2936
 5877W        W48794   3.760   4.929  16.448  0.4749  0.1021  0.4660
 5878W        W48795   2.774   4.803  19.035  0.4482 -0.1956 -0.3324
 5879W        W48796   1.078   7.106  19.326  0.0464  0.1552 -0.0598
 5880W        W48797   2.908   5.605  19.877 -0.1144  0.0247 -0.0908
 5881W        W48798   2.096   5.058  17.253 -0.1681 -0.0228 -0.1681
 5882W        W48799   1.435   4.709  18.229 -0.0669  0.0917 -0.1727
 5883W        W48800   4.016   4.612  21.189 -0.1940 -0.1050  0.1488
 5884W        W48801  34.404   7.887  21.142  0.0157 -0.2657  0.1275
 5885W        W48802   2.821   5.739  17.158 -0.2475 -0.1148 -0.1828
 5886W        W48803  34.483   3.563  19.455  0.2304  0.0705  0.2074
 5887W        W48804   0.689   4.707  18.479  0.0261 -0.1736 -0.0238
 5888W        W48805   3.602   4.842  19.764 -0.0407 -0.0845  0.3639
 5889W        W48806   0.887   6.540  18.162 -0.2833  0.0297  0.0624
 5890W        W48807   4.737   6.324  16.714  0.1393 -0.2933 -0.0199
 5891W        W48808   1.188   9.580  17.938 -0.0419 -0.0353  0.1845
 5892W        W48809   1.458   7.756  20.800 -0.3271 -0.0075  0.0319
 5893W        W48810   1.117   8.602  23.148 -0.1788 -0.0197 -0.1011
 5894W        W48811   1.033   3.330  17.260  0.1005  0.1082  0.2519
 5895W        W48812   4.323   5.182  17.912  0.0932 -0.2952  0.1929
 5896W        W48813   0.496   5.609  18.545 -0.0321 -0.3923  0.0752
 5897W        W48814   4.343   4.996  21.063 -0.1414 -0.1325 -0.1486
 5898W        W48815   1.350   6.306  16.974  0.1702  0.0678  0.0614
 5899W        W48816   3.290   4.514  16.953  0.1031 -0.4075  0.0752
 5900W        W48817   2.399   5.653  18.390  0.4183 -0.0558 -0.0371
 5901W        W48818   0.483   4.706  18.001  0.1589 -0.1919 -0.1713
 5902W        W48819   2.131   5.115  16.300  0.0697 -0.1967  0.0345
 5903W        W48820   1.150   5.445  21.200 -0.2374 -0.2098 -0.0869
 5904W        W48821   2.029   4.264  16.671 -0.0692 -0.0790 -0.3340
 5905W        W48822   4.119   6.740  17.926 -0.1140 -0.2131  0.2760
 5906W        W48823  34.216   3.254  18.896 -0.0522 -0.1229 -0.0162
 5907W        W48824   1.997   3.748  16.233 -0.0210  0.0476 -0.0124
 5908W        W48825   3.630   5.421  17.207 -0.0405  0.1223  0.1065
 5909W        W48826   2.584   6.331  20.984 -0.0275 -0.0418  0.0461
 5910W        W48827   3.484   8.208  19.302 -0.2322  0.0080 -0.0809
 5911W        W48828   2.417   2.947  17.060  0.1741  0.5558 -0.0297
 5912W        W48829   3.818   5.052  17.970 -0.1460  0.1148  0.2250
 5913W        W48830   4.749   4.453  18.996 -0.1247  0.2458 -0.0689
 5914W        W48831   2.611   5.766  16.713 -0.3913  0.2863 -0.0553
 5915W        W48832   2.282   4.905  16.703  0.0271  0.3072 -0.1817
 5916W        W48833   0.655   8.605  18.444  0.1226  0.0186  0.1243
 5917W        W48834  33.872   5.730  17.994 -0.0142  0.0086 -0.1315
 5918W        W48835   3.712   5.833  17.933 -0.0759 -0.1344  0.0409
 5919W        W48836   5.627   7.048  18.464  0.0396 -0.2917  0.0788
 5920W        W48837   1.795   5.358  17.754 -0.1628  0.2340  0.3284
 5921W        W48838   0.660   6.912  18.490 -0.1052  0.1290  0.0225
 5922W        W48839  33.338   6.373  16.895 -0.0266 -0.2899  0.1237
 5923W        W48840   3.619   6.368  19.746  0.1806  0.2944  0.0124
 5924W        W48841   4.557   4.641  20.359 -0.1261 -0.1165 -0.0135
 5925W        W48842   1.105   7.491  17.266  0.0327  0.1760  0.0235
 5926W        W48843   4.451   4.509  18.504 -0.2680 -0.1295 -0.1998
 5927W        W48844   2.665   5.690  17.823 -0.0569 -0.0327 -0.0835
 5928W        W48845   1.491   7.277  20.647  0.0353  0.2159  0.2130
 5929W        W48846   2.840   5.164  17.908  0.0113 -0.0481  0.1574
 5930W        W48847   0.990   5.628  18.361  0.0893  0.1984  0.1301
 5931W        W48848   1.311   8.957  19.058  0.0102 -0.2605 -0.3045
 5932W        W48849   1.519   7.216  17.482 -0.0613  0.0047  0.0167
 5933W        W48850   2.908   6.466  19.182  0.0225 -0.0677 -0.0849
 5934W        W48851   4.758   3.555  17.682 -0.1778 -0.0597 -0.1299
 5935W        W48852   2.616   7.916  17.392 -0.0900  0.0778  0.0956
 5936W        W48853   2.338   3.101  17.526  0.0448 -0.1639  0.0383
 5937W        W48854   4.169   3.783  15.976  0.0898 -0.0342  0.1014
 5938W        W48855   2.658   3.387  15.822 -0.2943  0.2780 -0.1186
 5939W        W48856   3.686   4.482  17.709  0.0740  0.1486  0.2013
 5940W        W48857   0.593   3.988  16.864  0.1832 -0.3756 -0.1049
 5941W        W48858   0.217   5.900  16.505 -0.2235 -0.0534 -0.1259
 5942W        W48859   2.364   5.736  20.048 -0.1798 -0.2148 -0.0780
 5943W        W48860   1.099   6.316  22.316 -0.0676  0.0227  0.1468
 5944W        W48861   0.298   5.647  19.576 -0.3918  0.0111  0.0846
 5945W        W48862  33.880   5.657  19.120 -0.0265  0.0553 -0.2515
 5946W        W48863   1.142   4.190  15.994 -0.0939  0.0315 -0.1566
 5947W        W48864   3.258   7.565  17.837 -0.4156  0.1210  0.3113
 5948W        W48865   1.642   2.035  16.110 -0.0355 -0.0462 -0.0478
 5949W        W48866  34.211   2.069  18.176 -0.1408 -0.0679  0.0776
 5950W        W48867   1.979   6.214  16.217 -0.2301  0.0354  0.2256
 5951W        W48868   4.061   6.228  17.147  0.1240  0.2434  0.1848
 5952W        W48869   2.590   3.077  16.576 -0.1449  0.0527  0.2671
 5953W        W48870   1.842   7.335  19.566  0.2421  0.0387 -0.0602
 5954W        W48871  34.373   7.372  16.723  0.0191  0.0097  0.1607
 5955W        W48872   1.247   4.948  18.603  0.2082  0.0705 -0.0177
 5956W        W48873   0.498   4.385  18.806  0.0305 -0.1730  0.1186
 5957W        W48874  33.944   3.620  16.422  0.0526 -0.0461 -0.0856
 5958W        W48875   3.776   3.572  18.732 -0.1764  0.1241  0.0332
 5959W        W48876   2.776   6.589  17.712  0.1040  0.0172  0.0029
 5960W        W48877   3.174   7.702  17.249  0.1413 -0.0347 -0.1905
 5961W        W48878   2.046   7.135  18.221  0.1960 -0.1215 -0.0860
 5962W        W48879   2.579   6.985  17.976 -0.0515 -0.1226  0.0560
 5963W        W48880  33.947   4.073  18.955  0.0827  0.1750 -0.3037
 5964W        W48881   3.588   6.761  17.464  0.0245  0.2146 -0.0719
 5965W        W48882   1.786   7.624  20.424  0.0267  0.0785 -0.0368
 5966W        W48883   4.467   8.279  18.428  0.2508  0.1097 -0.2324
 5967W        W48884   3.679   5.343  19.924 -0.1346  0.1385  0.1440
 5968W        W48885   2.531   5.333  19.115 -0.1089  0.0973  0.1769
 5969W        W48886   2.154   4.471  18.724 -0.2001  0.1855 -0.0506
 5970W        W48887   1.980   4.532  17.747  0.0826 -0.1502 -0.3158
 5971W        W48888   3.895   7.192  17.765 -0.1213 -0.0634  0.1307
 5972W        W48889   1.268   4.061  17.972  0.0097 -0.0046 -0.3147
 5973W        W48890   3.529   4.443  15.571  0.1325 -0.1649 -0.2096
 5974W        W48891   1.246   6.776  18.422 -0.2940  0.0604 -0.1164
 5975W        W48892   0.075   6.381  19.177 -0.1837 -0.3664 -0.2148
 5976W        W48893   0.138   3.601  16.995  0.2390 -0.0191  0.0431
 5977W        W48894   2.123   5.990  21.025 -0.0375  0.2602 -0.2744
 5978W        W48895   1.823   5.869  17.546  0.0788 -0.1157 -0.4662
 5979W        W48896   3.866   6.777  18.807 -0.2967 -0.0730 -0.1189
 5980W        W48897   1.910   3.902  17.128 -0.2877  0.0409 -0.0541
 5981W        W48898   4.277   5.380  15.961 -0.2224  0.1116 -0.0933
 5982W        W48899   3.848   7.451  19.611 -0.0091 -0.1334 -0.0742
 5983W        W48900   2.169   7.250  20.028 -0.0133  0.0963 -0.0208
 5984W        W48901   1.220   7.059  21.443  0.2373 -0.0915  0.2504
 5985W        W48902   3.301   4.855  17.779 -0.1168  0.1796 -0.4220
 5986W        W48903   0.606   3.415  17.161  0.1574 -0.3321  0.0867
 5987W        W48904   2.466   5.017  15.915  0.1294  0.1259 -0.3384
 5988W        W48905   2.206   5.464  16.627 -0.0302 -0.3887 -0.0205
 5989W        W48906   4.673   4.844  19.375 -0.0417 -0.1131  0.0495
 5990W        W48907   0.443   4.679  17.478  0.2766 -0.2597 -0.0524
 5991W        W48908   2.096   2.197  16.106  0.0868 -0.3096 -0.0223
 5992W        W48909   3.575   7.332  18.800  0.2184 -0.3069 -0.2277
 5993W        W48910   3.944   5.944  18.478 -0.0964  0.1124 -0.4491
 5994W        W48911   1.421   9.004  23.276  0.1116 -0.0855  0.0079
 5995W        W48912   3.304   7.976  22.878 -0.1469  0.0686  0.0118
 5996W        W48913   3.478   3.839  21.456  0.0117  0.0161  0.0404
 5997W        W48914   2.317   5.345  21.504  0.0697  0.0620 -0.2350
 5998W        W48915  34.024   4.343  21.880 -0.0926  0.0089 -0.3991
 5999W        W48916   3.279   7.809  21.089  0.3147  0.0927  0.0511
 6000W        W48917   0.534   5.119  22.719 -0.1612 -0.3736  0.1454
 6001W        W48918   2.974   4.895  22.305 -0.1986 -0.1395  0.1807
 6002W        W48919   2.136   7.620  23.243  0.0328  0.1667 -0.0219
 6003W        W48920   0.895   5.647  21.603 -0.2279  0.2225  0.0674
 6004W        W48921   3.589   4.002  23.258 -0.0789  0.4311 -0.0818
 6005W        W48922   2.014   6.489  24.103  0.0036  0.0252 -0.2907
 6006W        W48923   1.865   6.433  20.676  0.1041 -0.5593  0.1907
 6007W        W48924   0.280   4.673  23.218  0.4618  0.5785  0.0544
 6008W        W48925   2.061   6.472  21.210  0.2783  0.2920  0.3301
 6009W        W48926   0.068   4.546  20.014 -0.0776 -0.2196  0.0415
 6010W        W48927   2.419   2.970  20.471 -0.1901  0.4434  0.0833
 6011W        W48928   1.458   5.321  22.624  0.3038 -0.0476 -0.0135
 6012W        W48929   4.204   7.229  20.072 -0.0555 -0.0278  0.1352
 6013W        W48930   4.231   5.221  25.028  0.3619  0.0999  0.1078
 6014W        W48931   2.521   4.295  23.258 -0.0652 -0.0539 -0.0194
 6015W        W48932   1.639   7.238  22.796  0.0008  0.1868 -0.0243
 6016W        W48933   2.233   4.910  18.451 -0.0586 -0.2346 -0.0489
 6017W        W48934   1.330   5.003  22.235  0.2940 -0.0478 -0.2989
 6018W        W48935   2.108   4.633  23.954  0.0881  0.1999 -0.0378
 6019W        W48936   3.122   4.467  22.112  0.1788  0.1249 -0.1019
 6020W        W48937   2.525   7.430  22.183  0.4777  0.0929 -0.0466
 6021W        W48938   2.765   5.947  21.850  0.2174 -0.1787 -0.1833
 6022W        W48939   1.448   7.671  23.949 -0.2002  0.1140 -0.2028
 6023W        W48940   3.224   4.527  22.670  0.0393 -0.2056 -0.1452
 6024W        W48941   2.408   2.473  20.569  0.0975 -0.0609 -0.1998
 6025W        W48942  34.657   7.813  20.655  0.1401 -0.0562  0.1366
 6026W        W48943   0.910   7.157  20.640 -0.0202 -0.2101 -0.0025
 6027W        W48944   2.858   6.445  21.782 -0.1633  0.0217  0.0667
 6028W        W48945   3.616   6.801  24.869  0.1460 -0.0042  0.0420
 6029W        W48946   1.443   9.458  24.704  0.1926  0.1872 -0.3093
 6030W        W48947   0.561   6.216  20.731  0.1528 -0.0960 -0.0607
 6031W        W48948   1.097   9.006  23.825 -0.0961  0.1363 -0.1106
 6032W        W48949   1.179   5.352  23.977  0.2400  0.0791 -0.1851
 6033W        W48950   3.110   4.762  21.721 -0.0262 -0.1852  0.3199
 6034W        W48951   2.117   5.338  22.588 -0.0755 -0.0047 -0.2595
 6035W        W48952   0.174   8.677  23.326 -0.2103  0.1465  0.4446
 6036W        W48953   1.276   4.689  21.310 -0.3304  0.0210 -0.1442
 6037W        W48954   0.608   6.579  24.296 -0.0580  0.2300 -0.1279
 6038W        W48955   1.154   6.656  22.698  0.1283 -0.4087 -0.2567
 6039W        W48956   2.872   3.978  22.039  0.0141  0.2216  0.1562
 6040W        W48957  34.583   6.481  21.439  0.0870  0.0380  0.0761
 6041W        W48958   3.472   5.104  20.391 -0.2404  0.1385  0.2872
 6042W        W48959   1.234   5.055  20.881  0.3171 -0.1129 -0.1145
 6043W        W48960   2.625   6.667  19.899 -0.0458  0.0744  0.3852
 6044W        W48961   1.086   3.437  21.998  0.0389 -0.0394  0.2584
 6045W        W48962   1.845   5.405  24.037 -0.0018 -0.0704 -0.1788
 6046W        W48963   2.138   3.515  22.642 -0.0448 -0.0062 -0.1337
 6047W        W48964   3.345   6.821  23.980 -0.3032  0.2857 -0.0128
 6048W        W48965   2.860   6.668  22.650 -0.0468 -0.1696  0.3854
 6049W        W48966   2.947   4.629  23.045  0.0527  0.0219  0.2862
 6050W        W48967   0.704   6.546  22.543 -0.1150  0.0509 -0.4279
 6051W        W48968   1.417   5.099  21.664 -0.3302 -0.2550  0.1200
 6052W        W48969   4.473   8.476  19.465  0.0937  0.0068  0.1884
 6053W        W48970   1.559   5.999  23.404 -0.0362 -0.1591  0.2358
 6054W        W48971   3.118   7.838  20.114 -0.0667  0.0131 -0.5269
 6055W        W48972   1.925   4.192  20.085  0.0198  0.1063  0.2174
 6056W        W48973   0.436   6.471  23.373 -0.3141 -0.2784  0.1405
 6057W        W48974   1.290   4.684  22.665 -0.2667  0.0748 -0.2493
 6058W        W48975   1.237   4.308  19.363  0.1121 -0.2876 -0.0427
 6059W        W48976   3.309   5.023  23.978  0.0686  0.0149 -0.1296
 6060W        W48977   1.174   6.648  24.154  0.3332 -0.1761 -0.0459
 6061W        W48978   2.221   3.336  19.567  0.1113  0.3002  0.3321
 6062W        W48979   2.583   6.188  24.953 -0.1497  0.2057  0.4103
 6063W        W48980   2.201   6.381  23.185  0.0181  0.1183 -0.2514
 6064W        W48981   2.182   8.123  21.656 -0.1259 -0.2180  0.1876
 6065W        W48982   2.027   2.831  20.906 -0.2064 -0.4067 -0.1076
 6066W        W48983   2.570   4.860  22.664 -0.0688  0.0233 -0.1736
 6067W        W48984   0.990   7.530  21.622 -0.1429 -0.0677  0.2528
 6068W        W48985   2.433   7.854  19.819  0.3108 -0.1003 -0.0565
 6069W        W48986   4.133   6.512  23.960 -0.1846  0.1739  0.1012
 6070W        W48987   5.921   4.689  18.542  0.0682  0.1612 -0.0535
 6071W        W48988   0.514   7.367  22.286 -0.0075  0.1065 -0.1430
 6072W        W48989   0.513   4.278  23.312  0.0173 -0.1325 -0.1139
 6073W        W48990   2.865   7.410  24.321 -0.0602  0.0744  0.0083
 6074W        W48991   0.082   7.757  19.830  0.2472  0.1450  0.1885
 6075W        W48992  34.129   6.256  23.771 -0.2538  0.0320  0.2784
 6076W        W48993  34.236   3.807  21.051 -0.0763  0.1406  0.0277
 6077W        W48994   1.976   3.813  23.766 -0.2489 -0.0170  0.0827
 6078W        W48995   2.356   5.698  23.993  0.0616  0.0481  0.0568
 6079W        W48996   3.632   3.273  19.833  0.4281 -0.1733  0.1405
 6080W        W48997   1.517   3.758  23.014 -0.1349  0.0666  0.1377
 6081W        W48998   3.999   4.926  20.098  0.0951 -0.0743  0.0806
 6082W        W48999   1.377   5.469  22.096  0.1582  0.0906 -0.1544
 6083W        W49000   2.833   7.793  24.011  0.0155 -0.1837  0.0044
 6084W        W49001   1.610   6.509  20.066  0.2907  0.0388  0.2149
 6085W        W49002   2.980   6.985  19.875  0.1736  0.2535 -0.0915
 6086W        W49003   1.853   3.685  21.023 -0.4038 -0.0790  0.3368
 6087W        W49004  34.294   3.115  23.362  0.0196  0.0433 -0.4910
 6088W        W49005   1.264   1.556  23.678  0.0193  0.1985 -0.0322
 6089W        W49006   1.575   2.201  22.905  0.3598 -0.3792 -0.2333
 6090W        W49007   3.680   4.986  24.939  0.1262 -0.0521  0.2479
 6091W        W49008   2.826   4.803  21.175  0.2107  0.0836  0.3307
 6092W        W49009   3.076   5.380  20.776  0.0392 -0.0419 -0.2177
 6093W        W49010   0.708   6.105  23.644  0.0076 -0.0158  0.2025
 6094W        W49011   0.644   6.106  22.281 -0.2674 -0.2333 -0.2461
 6095W        W49012   3.449   5.369  22.513  0.1264  0.0541 -0.1347
 6096W        W49013   4.514   9.697  21.874 -0.1894 -0.1114 -0.0490
 6097W        W49014   3.859   8.252  23.370 -0.2531 -0.0210  0.0363
 6098W        W49015   2.563   8.112  22.153  0.3318 -0.1452 -0.0489
 6099W        W49016   3.540   3.475  22.996  0.2851 -0.1759  0.1384
 6100W        W49017   2.799   3.194  19.883 -0.0353 -0.2097  0.1024
 6101W        W49018   0.246   6.896  22.031 -0.0384  0.0418  0.3517
 6102W        W49019   1.555   8.757  22.792  0.1274 -0.1008 -0.0765
 6103W        W49020   2.629   4.579  21.639  0.0941  0.1094 -0.2911
 6104W        W49021   2.588   8.333  24.013 -0.2814 -0.1960 -0.1187
 6105W        W49022   3.239   5.643  21.192  0.0007  0.1186  0.1088
 6106W        W49023   1.009   5.404  23.404  0.0301 -0.0683 -0.1596
 6107W        W49024   3.049   3.656  21.668  0.2391 -0.0872  0.0112
 6108W        W49025   3.708   4.605  20.684  0.1951  0.0123  0.1113
 6109W        W49026   3.484   6.453  20.559  0.1641  0.2750 -0.1805
 6110W        W49027   0.081   5.054  19.910 -0.0196 -0.1046  0.0542
 6111W        W49028   2.112   8.700  21.756  0.2191 -0.1701  0.2561
 6112W        W49029   0.615   6.773  21.013  0.0933  0.1222 -0.0248
 6113W        W49030   0.944   5.081  21.515  0.2896  0.0320  0.3558
 6114W        W49031   1.534   6.088  22.445 -0.1635  0.1690 -0.1225
 6115W        W49032   2.719   5.424  21.955 -0.4234  0.1304  0.1194
 6116W        W49033   0.790   6.116  25.600  0.1600  0.1060  0.0785
 6117W        W49034   2.871   5.113  23.774  0.3226  0.3110 -0.0131
 6118W        W49035   1.396   5.569  18.707 -0.2071  0.0339  0.1958
 6119W        W49036   0.985   6.795  24.583 -0.3331 -0.0856  0.0825
 6120W        W49037   2.114   5.095  20.903 -0.1866  0.0479 -0.1623
 6121W        W49038   3.228   4.445  19.716 -0.1601  0.2909  0.0478
 6122W        W49039   2.495   5.145  25.539  0.3782  0.2847 -0.0870
 6123W        W49040   4.110   7.369  19.148  0.0512 -0.4005 -0.1912
 6124W        W49041   1.355   4.785  19.142  0.0704  0.1069 -0.0627
 6125W        W49042   3.610   3.573  19.260  0.2605  0.2457 -0.1105
 6126W        W49043   0.102   5.583  24.735 -0.0269 -0.1191 -0.0167
 6127W        W49044   1.665   8.067  21.844 -0.2593 -0.0238 -0.0010
 6128W        W49045   2.373   6.070  23.516  0.2646  0.4617  0.0840
 6129W        W49046   2.099   7.740  21.972  0.0819  0.1703 -0.0719
 6130W        W49047   2.321   6.771  22.817  0.1468 -0.0391 -0.1969
 6131W        W49048   2.346   4.050  21.896  0.1050  0.3253 -0.0540
 6132W        W49049   2.254   6.068  22.030  0.1643  0.1216 -0.1608
 6133W        W49050   2.429   9.442  20.837 -0.0006  0.0832  0.0318
 6134W        W49051   3.404   3.970  22.033  0.0364 -0.3166 -0.2011
 6135W        W49052  34.619   6.019  19.662  0.1982  0.1436  0.1539
 6136W        W49053   2.337   4.878  21.317 -0.3649  0.0096  0.1743
 6137W        W49054   1.625   6.965  21.763  0.2535 -0.0390 -0.1069
 6138W        W49055   3.461   3.499  22.179  0.2418 -0.1173  0.0919
 6139W        W49056   3.992   5.082  23.157 -0.1009 -0.0749 -0.1460
 6140W        W49057   2.429   3.084  23.444 -0.1758  0.3275  0.0908
 6141W        W49058   5.088   6.302  24.679  0.0816  0.3460 -0.1191
 6142W        W49059   3.896   4.404  18.309 -0.0299  0.2508 -0.1133
 6143W        W49060   2.034   6.379  22.474  0.0058  0.1577  0.0711
 6144W        W49061   0.860   6.093  19.293  0.3739  0.1888 -0.3508
 6145W        W49062   2.886   3.386  23.463 -0.2353  0.0582  0.0676
 6146W        W49063   1.580   7.632  25.120  0.2689 -0.1478  0.1547
 6147W        W49064   2.507   6.213  22.741  0.2283  0.2866 -0.0372
 6148W        W49065   2.821   8.101  26.472  0.0176  0.0981  0.1188
 6149W        W49066   1.329   8.115  23.423 -0.0126 -0.2334  0.1576
 6150W        W49067   3.236   5.235  25.103  0.0280 -0.0529  0.1520
 6151W        W49068   1.179   6.978  21.948 -0.2364  0.2624 -0.2257
 6152W        W49069   0.965   5.259  22.511  0.1124  0.1127  0.0692
 6153W        W49070   1.242   4.788  20.006 -0.2007  0.1354 -0.0909
 6154W        W49071   3.999   3.031  19.652 -0.2525 -0.1301 -0.3463
 6155W        W49072   1.661   7.079  23.246 -0.2119  0.1870  0.1134
 6156W        W49073   0.343   7.616  22.714 -0.1955  0.0211 -0.3202
 6157W        W49074   2.656   7.009  24.693 -0.0252  0.0506 -0.0979
 6158W        W49075   1.915   5.633  20.259  0.3450 -0.1506 -0.1922
 6159W        W49076   4.910   4.403  21.628  0.2863  0.1150 -0.1054
 6160W        W49077   0.477   7.221  21.309  0.0708 -0.2807 -0.1635
 6161W        W49078   1.828   5.017  22.069 -0.1147 -0.0646 -0.0649
 6162W        W49079  34.130   6.308  21.672  0.1099  0.0457  0.0814
 6163W        W49080   3.404   4.052  22.576  0.0007 -0.0904  0.2978
 6164W        W49081   1.364   5.904  20.864 -0.3132 -0.0759  0.0289
 6165W        W49082   0.911   4.287  21.146 -0.0114  0.1899 -0.0496
 6166W        W49083   2.086   3.843  19.595  0.1568 -0.2238  0.0771
 6167W        W49084  33.144   6.876  23.049 -0.2938  0.1897  0.2607
 6168W        W49085   2.691   6.450  23.191 -0.0458  0.2394 -0.1511
 6169W        W49086   3.008   6.940  22.174  0.2156 -0.2106 -0.3758
 6170W        W49087   3.021   8.237  24.821 -0.1136 -0.0326  0.0848
 6171W        W49088   1.658   5.788  24.494  0.0728  0.4288 -0.2746
 6172W        W49089   1.728   4.892  20.114  0.1674 -0.3030 -0.2666
 6173W        W49090   3.898   4.673  22.528 -0.1103  0.0808  0.2122
 6174W        W49091   3.045   5.096  22.739 -0.1847  0.0524 -0.2447
 6175W        W49092   0.593   4.838  19.794  0.1171  0.1834  0.0360
 6176W        W49093   2.816   5.870  23.437 -0.3468 -0.1013 -0.0942
 6177W        W49094   1.036   6.063  20.512  0.0961  0.0888 -0.1022
 6178W        W49095   1.033   4.190  21.636  0.1630 -0.0253  0.3524
 6179W        W49096   0.419   5.968  23.207 -0.1686  0.1109 -0.0251
 6180W        W49097   3.786   6.655  24.236  0.0063 -0.4373 -0.1064
 6181W        W49098   1.728   5.600  22.373  0.2402  0.0130  0.4270
 6182W        W49099   0.857   5.265  21.996  0.0430 -0.2431  0.1772
 6183W        W49100   2.109   4.242  21.503  0.0149  0.2745  0.1846
 6184W        W49101   2.496   8.478  21.181 -0.2295 -0.2663 -0.0352
 6185W        W49102   1.291   6.061  25.240  0.3157  0.2506 -0.1289
 6186W        W49103   1.385   4.887  24.460 -0.2055 -0.2839 -0.2426
 6187W        W49104   1.954   3.589  20.013 -0.0662  0.1606  0.1919
 6188W        W49105   2.535  10.858  21.402  0.3738  0.1226 -0.1698
 6189W        W49106   3.276   5.909  23.187  0.1378  0.1144  0.2640
 6190W        W49107   1.219   6.898  20.977  0.1297 -0.0196 -0.0904
 6191W        W49108   0.502   4.818  21.886  0.0217  0.0816  0.1545
 6192W        W49109   1.649   5.111  21.175 -0.1457  0.0392 -0.0608
 6193W        W49110   2.093   5.153  23.691 -0.1700 -0.2111 -0.2866
 6194W        W49111   0.373   7.251  23.441  0.1471 -0.0802  0.1227
 6195W        W49112   1.928   8.027  19.915  0.0703 -0.2958  0.1036
 6196W        W49113   1.345   5.653  23.042 -0.0594 -0.0014  0.3711
 6197W        W49114   3.548   4.283  21.653  0.1748 -0.2627  0.0792
 6198W        W49115   0.182   5.520  20.986  0.1086  0.0069 -0.0968
 6199W        W49116   3.063   4.161  23.063 -0.0990  0.0346 -0.3783
 6200W        W49117   3.782   2.799  23.238  0.0370  0.1009 -0.0094
 6201W        W49118   3.290   4.269  20.732  0.2416 -0.2326  0.2111
 6202W        W49119   2.633   3.941  24.963 -0.0297  0.1144  0.0408
 6203W        W49120   0.936   2.948  21.715 -0.1029 -0.0056  0.0416
 6204W        W49121   1.475   6.395  21.033  0.2438 -0.0284  0.0320
 6205W        W49122   0.789   6.638  23.824  0.0428  0.1261  0.1440
 6206W        W49123   4.147   7.250  23.672  0.0793  0.4622  0.1235
 6207W        W49124   2.199   3.904  23.258 -0.0249  0.0419  0.2930
 6208W        W49125   3.287   5.569  20.228  0.1111  0.2642 -0.2077
 6209W        W49126  34.386   3.695  17.327  0.0114  0.1085 -0.1769
 6210W        W49127   1.125   5.776  23.712  0.1107  0.0037  0.1716
 6211W        W49128   2.163   7.031  23.381 -0.2401 -0.0138 -0.1218
 6212W        W49129   1.938   7.617  20.962  0.1029 -0.0798 -0.3623
 6213W        W49130   3.614   5.384  21.487  0.0250  0.0315  0.1661
 6214W        W49131   1.181   8.083  23.890  0.0434 -0.0788 -0.0586
 6215W        W49132   2.103   5.854  21.559 -0.2185 -0.1163  0.2421
 6216W        W49133   0.064   5.525  21.511  0.0496 -0.0061 -0.3613
 6217W        W49134   1.257   6.498  21.819 -0.1305  0.0067  0.0349
 6218W        W49135   1.386   2.267  22.493  0.3198  0.0264  0.0624
 6219W        W49136   5.114   5.128  22.204 -0.0885  0.2239 -0.0282
 6220W        W49137   2.558   5.546  22.827  0.4699 -0.3382 -0.2562
 6221W        W49138   3.842   5.290  22.125 -0.0189 -0.0696 -0.1860
 6222W        W49139   3.988   4.996  21.516  0.1313  0.0302 -0.1902
 6223W        W49140   2.978   6.546  24.707  0.2312  0.2084 -0.1485
 6224W        W49141   1.371   3.063  23.342 -0.1231 -0.2103  0.2935
 6225W        W49142   4.705   9.188  23.039 -0.0486  0.0637  0.1417
 6226W        W49143   2.640   5.155  19.901  0.2345 -0.1123  0.0212
 6227W        W49144   4.806   3.281  23.408  0.1166  0.2196  0.3271
 6228W        W49145   2.295   8.020  21.140 -0.4042 -0.0854 -0.1149
 6229W        W49146   3.103   3.956  21.140  0.0695 -0.0812 -0.0296
 6230W        W49147   1.101   6.433  23.435 -0.2233  0.2083 -0.3310
 6231W        W49148   2.378   5.444  24.472 -0.4816 -0.0425 -0.2844
 6232W        W49149   0.716   4.554  20.661  0.2746  0.2592  0.3097
 6233W        W49150   4.223   3.186  23.420  0.0841 -0.1536 -0.2583
 6234W        W49151   1.295   7.654  23.125 -0.2423  0.1598 -0.0990
 6235W        W49152   0.596   5.621  22.449 -0.0865 -0.0490  0.1491
 6236W        W49153   1.628   3.404  19.371 -0.0943  0.0019 -0.3186
 6237W        W49154   2.885   3.462  20.288  0.0485 -0.3082  0.0086
 6238W        W49155   0.989   7.778  23.585  0.0363 -0.2772  0.0698
 6239W        W49156   1.641   4.026  21.300  0.0306  0.2508 -0.1197
 6240W        W49157   0.155   6.424  21.003 -0.1383  0.0816 -0.3186
 6241W        W49158   4.523   5.193  23.380  0.0433 -0.0560  0.1965
 6242W        W49159   4.082   6.080  23.696 -0.0664  0.0250  0.0205
 6243W        W49160   0.416   4.808  20.251 -0.1116  0.1195  0.1377
 6244W        W49161   3.886   5.170  22.626 -0.1100 -0.0340  0.1233
 6245W        W49162   0.014   7.377  22.048 -0.1833 -0.1393 -0.0176
 6246W        W49163   2.671   2.719  20.893 -0.1792 -0.2210  0.1672
 6247W        W49164   2.000   6.723  22.142  0.2636 -0.0142  0.1058
 6248W        W49165   1.013   5.045  22.979  0.2676 -0.2064  0.1148
 6249W        W49166   0.490   5.351  21.626  0.0655 -0.2815  0.0328
 6250W        W49167   2.453   3.931  22.807  0.1823 -0.1139  0.0770
 6251W        W49168   2.781   3.503  21.083 -0.3035 -0.0154  0.1052
 6252W        W49169   3.365   6.218  19.274 -0.0035  0.2724  0.1216
 6253W        W49170   3.779   5.296  23.860 -0.1215 -0.1590  0.0402
 6254W        W49171   2.174   6.385  25.749 -0.2405  0.1414 -0.1670
 6255W        W49172   2.196   4.588  21.871  0.1660  0.1842 -0.1281
 6256W        W49173  34.168   8.504  25.481  0.1817 -0.0092 -0.2569
 6257W        W49174   3.274   6.093  21.904 -0.0113  0.0372  0.0367
 6258W        W49175  33.409   6.716  21.407  0.1251  0.0289 -0.2443
 6259W        W49176   0.375   3.655  22.477 -0.0398 -0.2566  0.1386
 6260W        W49177   2.530   5.949  24.405 -0.1243 -0.3201 -0.1247
 6261W        W49178   2.725   5.055  23.108 -0.0727 -0.1893  0.1111
 6262W        W49179   0.862   3.759  21.129  0.0542 -0.2324  0.0554
 6263W        W49180   2.150   7.362  19.117  0.1574  0.1124 -0.1599
 6264W        W49181  33.662   6.314  24.922  0.0223  0.1203  0.1553
 6265W        W49182   1.242   4.596  21.896  0.0647  0.1721 -0.0685
 6266W        W49183   0.908   8.770  20.950 -0.0283 -0.1575 -0.0511
 6267W        W49184   2.502   6.247  21.479  0.0834 -0.2457 -0.2431
 6268W        W49185   2.177   4.751  22.360 -0.5101  0.1563  0.1738
 6269W        W49186   1.747   6.190  23.005 -0.1995  0.1870 -0.0087
 6270W        W49187   1.014   5.920  20.022 -0.3555  0.0032 -0.0025
 6271W        W49188   1.627   6.091  21.402  0.1362  0.0937  0.1251
 6272W        W49189  32.686   5.271  19.518  0.0057 -0.0878 -0.1086
 6273W        W49190   2.455   8.214  20.751 -0.4177  0.1517 -0.1116
 6274W        W49191   2.613   5.883  22.351 -0.0850 -0.2071 -0.1302
 6275W        W49192   4.271   5.471  24.539 -0.2458 -0.2333 -0.0322
 6276W        W49193   1.456   5.164  20.437 -0.0389  0.2027 -0.1128
 6277W        W49194   3.702   4.456  20.151 -0.1207 -0.3574 -0.0267
 6278W        W49195   4.060   5.390  21.232  0.2235  0.2452  0.0964
 6279W        W49196   3.535   6.687  25.734  0.2208 -0.1697 -0.0802
 6280W        W49197   1.433   4.140  24.295  0.3055  0.1647 -0.2431
 6281W        W49198   1.090   6.447  20.132 -0.0968 -0.0255 -0.0802
 6282W        W49199   2.140   4.365  24.464 -0.2288  0.3087 -0.0324
 6283W        W49200   4.441   4.625  22.484  0.0096  0.1296  0.1433
 6284W        W49201   0.712   6.652  25.531  0.2683  0.1005 -0.2171
 6285W        W49202   4.714   7.882  21.515  0.2248  0.1851 -0.2024
 6286W        W49203  32.198   4.839  19.442 -0.1728  0.1754 -0.2951
 6287W        W49204   2.198   6.562  21.690 -0.4171 -0.1148 -0.0364
 6288W        W49205   3.217   3.128  20.097  0.1991 -0.0601 -0.2487
 6289W        W49206   1.712   7.135  22.256  0.2804  0.1273 -0.1926
 6290W        W49207   3.011   7.562  21.447  0.1220  0.1534 -0.1005
 6291W        W49208   0.106   7.648  23.168 -0.0415  0.0121  0.1502
 6292W        W49209   1.084   5.758  22.530 -0.4035 -0.1183  0.1589
 6293W        W49210   2.034   6.032  24.287 -0.1005 -0.1488  0.0148
 6294W        W49211   2.725   3.959  20.822 -0.0031  0.1742  0.0729
 6295W        W49212   2.650   4.338  21.173  0.2142 -0.2876  0.0547
 6296W        W49213   0.901   4.943  24.242  0.1636  0.1572  0.1044
 6297W        W49214   2.831   2.426  22.399  0.1350 -0.0294  0.0288
 6298W        W49215   1.966   3.798  21.632  0.0334  0.0559 -0.0685
 6299W        W49216   2.387   4.154  20.558  0.1150 -0.1744 -0.0383
 6300W        W49217   2.481   7.250  24.100  0.0762 -0.0275 -0.0558
 6301W        W49218   2.618   4.598  23.733  0.1374  0.2500  0.1882
 6302W        W49219   3.211   4.817  19.184 -0.1565 -0.0901 -0.1830
 6303W        W49220   2.972   7.459  24.778 -0.2281  0.0459  0.0559
 6304W        W49221   1.683   6.867  20.877  0.0393  0.5054  0.1604
 6305W        W49222   1.727   4.607  24.248 -0.0468 -0.2203  0.0016
 6306W        W49223   0.037   5.120  21.227 -0.1260  0.1534 -0.1074
 6307W        W49224   1.966   5.303  19.469 -0.0323 -0.0256  0.2362
 6308W        W49225   1.965   5.155  20.454 -0.2856 -0.0125  0.1671
 6309W        W49226   1.363   6.056  21.965  0.0851  0.1453  0.0552
 6310W        W49227   2.867   8.233  22.962 -0.0838 -0.0711 -0.1695
 6311W        W49228   0.597   3.490  22.982  0.0105 -0.0911 -0.2151
 6312W        W49229   4.178   6.354  18.969 -0.0303 -0.1445 -0.1462
 6313W        W49230   3.467   4.871  22.373 -0.0108 -0.4344 -0.4630
 6314W        W49231   2.115   7.572  21.435  0.0183  0.0865 -0.0617
 6315W        W49232   2.254   5.875  23.042  0.2719 -0.0581  0.0613
 6316W        W49233   1.871   7.576  22.429  0.1200 -0.0230  0.1640
 6317W        W49234   0.744   4.438  22.077  0.3291 -0.0691 -0.2889
 6318W        W49235   1.561   8.000  22.316 -0.2331 -0.1540 -0.1883
 6319W        W49236   1.780   6.281  21.849 -0.0406  0.4046 -0.0212
 6320W        W49237   2.475   3.161  21.001 -0.2259  0.2169  0.0822
 6321W        W49238   1.942   7.843  23.840 -0.1029 -0.0588 -0.3102
 6322W        W49239   0.443   8.764  22.297 -0.0872  0.0864  0.2162
 6323W        W49240   4.404   5.787  21.295 -0.0636 -0.2492  0.0320
 6324W        W49241   4.984   5.011  23.179  0.3430  0.4132  0.1423
 6325W        W49242   0.885   8.137  23.017 -0.1315  0.2546  0.0144
 6326W        W49243   3.406   3.149  25.094  0.0090  0.0643 -0.0168
 6327W        W49244   1.844   8.886  22.333  0.2829 -0.1943 -0.0211
 6328W        W49245   1.888   6.117  23.784 -0.0193  0.4669  0.0762
 6329W        W49246   1.066   3.643  20.570 -0.0611 -0.2984  0.1888
 6330W        W49247   1.736   5.275  23.054  0.1398 -0.2049  0.0098
 6331W        W49248   0.440   4.871  21.365 -0.2715  0.1183 -0.1817
 6332W        W49249   1.494   7.566  22.125 -0.2830  0.3207 -0.1145
 6333W        W49250   3.640   7.012  22.840 -0.0737  0.0074  0.1535
 6334W        W49251   0.766   5.106  20.635 -0.0668  0.0101 -0.2620
 6335W        W49252   2.505   8.951  22.022 -0.1562 -0.3146 -0.0762
 6336W        W49253   1.864   5.340  21.701  0.0760  0.3024 -0.0672
 6337W        W49254   3.266   3.450  21.211 -0.2509  0.2185  0.0188
 6338W        W49255   3.479   4.263  19.252  0.0406 -0.1586 -0.0432
 6339W        W49256   1.506   5.332  24.338  0.2618  0.2885 -0.0336
 6340W        W49257   1.837   4.891  19.278  0.0374  0.2495  0.2686
 6341W        W49258  34.459   4.454  20.483  0.1914 -0.2606 -0.1875
 6342W        W49259   1.716   4.917  22.528  0.1596  0.0982 -0.0461
 6343W        W49260   1.236   4.099  23.361 -0.3337 -0.1596  0.0646
 6344W        W49261   0.665   5.665  24.050  0.0805  0.1151  0.3750
 6345W        W49262   3.843   3.878  23.876  0.0289 -0.0996 -0.0653
 6346W        W49263  33.871   4.421  20.346  0.1214 -0.0968 -0.1685
 6347W        W49264   0.855   7.981  20.409  0.0373  0.0691  0.0433
 6348W        W49265   1.201   1.999  23.359  0.0556  0.1407  0.0478
 6349W        W49266   2.233   5.379  23.205  0.0239  0.1780  0.3147
 6350W        W49267  34.593   7.292  20.651  0.2450  0.1241  0.1149
 6351W        W49268   1.354   7.853  21.352  0.2199 -0.1078  0.1506
 6352W        W49269   0.827   4.498  20.091 -0.1316  0.2370 -0.4245
 6353W        W49270   3.780   9.573  23.839 -0.3888  0.3839  0.1425
 6354W        W49271  34.250   5.642  18.794 -0.1471  0.0945 -0.0342
 6355W        W49272   2.043   5.676  23.614 -0.0492  0.1490 -0.0025
 6356W        W49273   1.124   3.629  23.263 -0.0387 -0.0329  0.0824
 6357W        W49274   0.154   3.628  19.930 -0.0391  0.3542 -0.3259
 6358W        W49275   2.145   4.895  22.911  0.2166  0.3040 -0.2846
 6359W        W49276   0.980   7.489  22.153  0.0414 -0.1658  0.1082
 6360W        W49277   0.742   8.834  21.812 -0.1295 -0.1290  0.1375
 6361W        W49278   2.147   6.924  23.912  0.1227 -0.2400  0.0859
 6362W        W49279   3.007   6.722  23.624  0.4496 -0.1593  0.3036
 6363W        W49280  34.618   3.072  24.151  0.1550  0.2089 -0.1696
 6364W        W49281   2.661   7.535  20.144 -0.1167  0.0671 -0.4460
 6365W        W49282   3.017   7.898  24.458  0.0864 -0.3662 -0.1773
 6366W        W49283   3.074   7.417  21.891  0.0084 -0.1810 -0.1742
 6367W        W49284   5.600   6.302  21.733 -0.2935 -0.2505  0.0945
 6368W        W49285   1.808   4.574  21.128  0.0311 -0.0182  0.1650
 6369W        W49286   1.887   3.175  23.595  0.0319  0.1979 -0.2071
 6370W        W49287   1.026   3.909  24.522  0.3061  0.1294 -0.0963
 6371W        W49288   2.447   7.991  23.209 -0.0420 -0.2106  0.2920
 6372W        W49289   1.545   2.141  21.748 -0.0712 -0.1754  0.0103
 6373W        W49290   3.157   5.590  21.716  0.3221  0.2003  0.1225
 6374W        W49291   1.465   6.654  22.248  0.0494  0.1109  0.1021
 6375W        W49292   1.867   3.980  22.833  0.2181  0.2211 -0.4007
 6376W        W49293   0.701   7.110  21.829 -0.1489  0.3498 -0.1019
 6377W        W49294   4.423   4.489  23.364 -0.0069  0.0539 -0.1181
 6378W        W49295   2.711   7.167  22.614 -0.2470  0.0716 -0.0296
 6379W        W49296   2.515   7.509  25.113  0.1117 -0.3220 -0.1642
 6380W        W49297   2.522   3.615  21.883 -0.1387 -0.0991  0.0319
 6381W        W49298   4.680   5.413  20.999 -0.0019 -0.2666  0.0427
 6382W        W49299   3.048   8.198  23.788  0.0977  0.0008  0.2638
 6383W        W49300   2.795   7.236  26.234  0.0061  0.0152  0.3624
 6384W        W49301   3.531   9.053  23.831 -0.0992 -0.1409 -0.3668
 6385W        W49302   3.325   5.178  21.955  0.3961  0.0633 -0.4584
 6386W        W49303   1.016   2.790  23.229  0.2697 -0.2015 -0.3381
 6387W        W49304   0.463   5.791  21.906 -0.1008 -0.0613  0.0848
 6388W        W49305  34.627   3.706  21.438  0.0099  0.0704 -0.0188
 6389W        W49306   2.718   5.684  21.427  0.0043 -0.1283  0.2930
 6390W        W49307   1.378   4.548  23.553  0.3144 -0.0194 -0.1134
 6391W        W49308   0.921   6.653  21.508  0.1104  0.1025  0.2255
 6392W        W49309  33.863   8.523  25.056  0.0410  0.3755 -0.4958
 6393W        W49310   1.790   5.724  22.859  0.3352  0.1595  0.1072
 6394W        W49311   0.970   7.078  29.205 -0.0551 -0.1256  0.0788
 6395W        W49312   0.111   2.574  25.034  0.0930 -0.1993 -0.3275
 6396W        W49313   3.107   3.960  24.513  0.2387  0.0153 -0.0276
 6397W        W49314   4.066   5.625  25.213  0.2632 -0.1887  0.0313
 6398W        W49315   0.823   3.758  24.974  0.0599 -0.3746  0.1545
 6399W        W49316   2.460   6.730  26.844  0.1362  0.1603 -0.3523
 6400W        W49317   2.554   4.055  27.471  0.3144 -0.1392 -0.0786
 6401W        W49318   4.908   5.590  26.819 -0.0517 -0.0036 -0.0763
 6402W        W49319   5.078   8.345  28.401 -0.1282  0.0500 -0.1380
 6403W        W49320   3.213   4.754  25.004  0.0361  0.1547 -0.0174
 6404W        W49321   4.021   5.294  27.858 -0.3729  0.3736 -0.1753
 6405W        W49322   0.222   5.059  26.302 -0.0871 -0.1691 -0.4253
 6406W        W49323   1.990   2.141  24.675 -0.0034  0.1954 -0.0574
 6407W        W49324  33.681   4.729  25.382  0.3035 -0.1145  0.0572
 6408W        W49325   5.111   5.273  25.594  0.2548 -0.2388  0.0539
 6409W        W49326   1.297   3.610  24.239  0.1208 -0.2338  0.0366
 6410W        W49327  33.859   6.147  27.195  0.1699  0.0760  0.1111
 6411W        W49328   1.052   5.178  25.313  0.3126  0.0140 -0.2870
 6412W        W49329   3.541   8.422  26.886 -0.2263 -0.0920 -0.1247
 6413W        W49330   0.748   7.162  26.978 -0.1059 -0.3251 -0.1003
 6414W        W49331   2.318   3.099  25.882 -0.0397 -0.2182  0.0681
 6415W        W49332   2.022   5.034  24.327  0.2180 -0.2786  0.0231
 6416W        W49333   1.645   4.686  23.078 -0.0394 -0.0660  0.1445
 6417W        W49334  33.888   4.684  24.906  0.2252  0.0893 -0.0215
 6418W        W49335   1.107   4.064  27.761  0.0971 -0.1972 -0.2853
 6419W        W49336   5.049   5.750  27.806  0.0607  0.0585 -0.1095
 6420W        W49337   6.012   6.805  26.007 -0.2398 -0.1275  0.0963
 6421W        W49338   2.809   5.429  25.267  0.1665  0.1622  0.2214
 6422W        W49339   1.920   6.452  24.640  0.0983  0.1393 -0.1211
 6423W        W49340   2.900   3.038  28.659 -0.4133  0.0507 -0.1549
 6424W        W49341  34.540   4.941  26.654 -0.1993  0.2195 -0.1841
 6425W        W49342   1.154   5.761  24.361 -0.2965  0.4731 -0.1138
 6426W        W49343   1.837   6.640  25.502 -0.0382 -0.2137  0.2791
 6427W        W49344   4.038   6.608  25.125  0.2754  0.2541 -0.0187
 6428W        W49345   4.347   8.627  27.194 -0.3814 -0.1547  0.1682
 6429W        W49346   2.056   5.451  26.365 -0.3107 -0.0982  0.1563
 6430W        W49347   1.579   6.262  24.247  0.0584 -0.6499  0.0355
 6431W        W49348   1.159   7.699  26.416  0.1449  0.0517 -0.0017
 6432W        W49349   5.329   6.273  26.396 -0.2765 -0.3408  0.1027
 6433W        W49350   2.623   4.315  26.574  0.0712  0.1275  0.0666
 6434W        W49351   1.286   6.028  25.797  0.3141  0.1213 -0.2238
 6435W        W49352   1.914   9.228  23.879  0.2659  0.1838  0.1562
 6436W        W49353   1.425   3.304  26.704  0.0179 -0.2390  0.2825
 6437W        W49354   1.980   6.855  28.226  0.1649  0.2489  0.1861
 6438W        W49355   1.894   7.278  25.282  0.2268 -0.0997 -0.1774
 6439W        W49356   3.915   3.369  27.670 -0.4044 -0.0269 -0.0203
 6440W        W49357   2.090   5.969  24.808 -0.2150 -0.0312 -0.3249
 6441W        W49358   3.107   4.509  25.430  0.3178  0.0098  0.0586
 6442W        W49359   2.397   3.566  23.586 -0.3462  0.3234  0.3473
 6443W        W49360   3.427   4.559  23.293 -0.0706  0.3381  0.2707
 6444W        W49361   0.500   2.991  25.654  0.0693  0.1044  0.3204
 6445W        W49362  33.969   5.477  26.162 -0.0912  0.1729 -0.1254
 6446W        W49363   0.715   5.251  26.175  0.1636  0.0560  0.0772
 6447W        W49364   4.302   7.217  26.000 -0.2835  0.0947  0.2686
 6448W        W49365   3.491   4.989  25.756 -0.2541 -0.3473  0.3354
 6449W        W49366   2.896   3.768  27.867 -0.0972 -0.2353 -0.1820
 6450W        W49367  34.546   6.331  25.321 -0.0035 -0.0585  0.2443
 6451W        W49368  33.944   5.810  27.548 -0.1415  0.3050 -0.0720
 6452W        W49369   4.694   6.986  24.582  0.0609 -0.0748 -0.0960
 6453W        W49370   4.457   6.047  26.073  0.2190  0.0723  0.0270
 6454W        W49371   1.818   6.799  24.998 -0.2033 -0.1353  0.2330
 6455W        W49372   0.896   5.025  24.838 -0.2967 -0.0090  0.0216
 6456W        W49373   1.642   6.338  28.324 -0.0310 -0.0997  0.0159
 6457W        W49374   0.073   6.406  26.931 -0.1961 -0.2348  0.2234
 6458W        W49375  33.343   3.909  23.995  0.1334  0.0476  0.0722
 6459W        W49376   5.508   6.732  27.582 -0.2724  0.0089 -0.1632
 6460W        W49377   0.441   5.606  26.496  0.0722  0.0300  0.1200
 6461W        W49378   0.937   3.222  25.864  0.0854  0.1615 -0.1720
 6462W        W49379   1.308   7.124  27.698  0.2992 -0.1827 -0.0820
 6463W        W49380   5.859   7.593  25.577 -0.0281  0.3258  0.0119
 6464W        W49381   2.627   6.483  25.446  0.3050  0.2701 -0.0015
 6465W        W49382   1.779   2.648  24.864 -0.0313  0.0762  0.1416
 6466W        W49383   2.654   4.345  25.344  0.0816 -0.1432 -0.0401
 6467W        W49384   1.759   5.111  26.032 -0.1011  0.0560  0.1704
 6468W        W49385   1.167   4.186  24.956  0.1933  0.2430  0.1407
 6469W        W49386   5.114   7.854  27.066  0.3709 -0.0206  0.1167
 6470W        W49387   2.877   5.311  24.293 -0.0206  0.1659 -0.0902
 6471W        W49388   1.368   6.502  27.890 -0.2752 -0.0697  0.1488
 6472W        W49389   4.373   5.833  26.920  0.0677  0.0807 -0.0418
 6473W        W49390   2.757   5.547  25.767  0.3067 -0.1721  0.0088
 6474W        W49391   0.790   5.400  24.518  0.3567  0.2258 -0.4336
 6475W        W49392   1.134   4.619  25.553 -0.2082  0.2204  0.1099
 6476W        W49393   0.022   7.353  25.425 -0.0018 -0.0383  0.1621
 6477W        W49394   0.520   5.104  25.352  0.0193  0.3816 -0.0580
 6478W        W49395   1.398   6.020  27.526 -0.0479  0.1483 -0.0047
 6479W        W49396   2.330   3.501  24.062 -0.2998  0.0491 -0.3368
 6480W        W49397   0.270   1.458  27.928  0.0462 -0.3568  0.0266
 6481W        W49398   2.991   3.178  24.266 -0.0622 -0.1641 -0.0231
 6482W        W49399  34.066   4.851  24.445  0.0569 -0.0615 -0.0421
 6483W        W49400   4.414   8.037  24.260 -0.1880  0.2158 -0.1266
 6484W        W49401   2.238   7.144  24.974  0.1572  0.2712  0.0667
 6485W        W49402   1.966   5.126  25.466 -0.3171 -0.2797 -0.0235
 6486W        W49403  32.726   3.576  26.591 -0.3937 -0.1030 -0.0666
 6487W        W49404   2.042   3.971  27.593  0.0094  0.1628 -0.1272
 6488W        W49405   0.966   6.259  28.093  0.2103 -0.5317  0.0081
 6489W        W49406   1.217   4.668  24.930  0.1735  0.0268 -0.1770
 6490W        W49407   4.961   4.852  27.397  0.0986 -0.3186  0.2313
 6491W        W49408   0.215   3.468  23.293 -0.1996  0.1820  0.1200
 6492W        W49409   1.633   4.374  24.723 -0.2979  0.1604  0.2603
 6493W        W49410   2.695   4.308  24.365 -0.2134  0.1453  0.0424
 6494W        W49411  34.239   3.796  26.772 -0.3113  0.1085 -0.0219
 6495W        W49412   1.534   3.376  26.233 -0.2297  0.2203 -0.1128
 6496W        W49413   1.258   4.537  24.063 -0.3315  0.0132 -0.2290
 6497W        W49414   4.579   8.214  25.876  0.1146  0.0479  0.2373
 6498W        W49415   2.155   8.600  25.207  0.0509  0.2141 -0.0188
 6499W        W49416  34.032   4.082  26.166  0.0387  0.1780 -0.0086
 6500W        W49417  34.046   4.952  22.905 -0.1149  0.0039 -0.1347
 6501W        W49418  34.560   5.117  24.998 -0.2191 -0.0692 -0.3681
 6502W        W49419   2.661   4.669  25.677  0.0880  0.0433  0.1703
 6503W        W49420   1.401   4.172  22.863  0.0259  0.1353 -0.1266
 6504W        W49421   2.717   6.184  26.558  0.0979  0.0255  0.0336
 6505W        W49422   2.464   5.125  24.083 -0.0022 -0.1453  0.0649
 6506W        W49423   2.093   5.116  26.738  0.2128 -0.3082  0.1263
 6507W        W49424   2.516   2.773  27.222  0.1369 -0.1156 -0.1646
 6508W        W49425   3.268   4.240  25.793  0.1200 -0.1251  0.1038
 6509W        W49426   4.831   5.439  24.613  0.0623  0.3998 -0.2379
 6510W        W49427   2.542   3.821  22.360  0.2662 -0.1124  0.0983
 6511W        W49428   3.088   7.562  25.916  0.3769 -0.0640  0.0155
 6512W        W49429   0.961   7.318  24.844 -0.0086  0.3273 -0.0647
 6513W        W49430   0.708   4.655  28.321 -0.1690  0.3323  0.2158
 6514W        W49431   1.494   6.951  25.873 -0.2829  0.3332 -0.0834
 6515W        W49432   2.509   4.471  24.894 -0.0379  0.2789  0.3700
 6516W        W49433  33.245   4.520  25.334  0.2344 -0.0045 -0.1729
 6517W        W49434   2.784   5.584  27.330  0.0595 -0.1703 -0.0790
 6518W        W49435   0.679   5.492  25.063  0.1693  0.3758 -0.1673
 6519W        W49436   0.598   7.402  29.162  0.0523  0.0820  0.2940
 6520W        W49437   3.842   1.996  24.740  0.0546  0.1948  0.1495
 6521W        W49438   3.712   4.840  23.666  0.1636 -0.0878 -0.0263
 6522W        W49439   5.273   6.555  26.952 -0.4098  0.2991 -0.0111
 6523W        W49440   5.011   4.661  24.038 -0.0591 -0.0910  0.1482
 6524W        W49441   3.668   4.211  24.940  0.0326 -0.3368  0.0801
 6525W        W49442   2.861   3.550  24.566 -0.1939 -0.0931  0.0925
 6526W        W49443   1.642   6.805  28.581 -0.1275 -0.0588  0.0947
 6527W        W49444   3.589   4.681  25.304  0.2057  0.0697  0.0596
 6528W        W49445   1.909   6.743  25.999  0.0922  0.1795 -0.0153
 6529W        W49446   2.819   5.186  24.795  0.3282  0.0056  0.1982
 6530W        W49447   4.783   4.138  24.110 -0.1223  0.0450  0.1502
 6531W        W49448  34.448   4.994  23.589  0.4208 -0.0210  0.3387
 6532W        W49449   4.998   3.036  26.544 -0.3921 -0.2265 -0.3099
 6533W        W49450   3.392   8.263  25.114  0.2101 -0.1210  0.0867
 6534W        W49451   0.067   3.645  26.371 -0.2722  0.1782 -0.4636
 6535W        W49452   2.473   6.458  24.434 -0.0498  0.1548  0.0989
 6536W        W49453   0.498   3.936  25.355 -0.0435  0.0206 -0.4232
 6537W        W49454  33.459   6.135  24.529 -0.1148  0.5101  0.0627
 6538W        W49455   3.550   5.641  26.180  0.0777  0.0267 -0.2349
 6539W        W49456   2.108   4.559  26.699 -0.1417  0.2152  0.1570
 6540W        W49457   3.143   3.317  26.116  0.2881 -0.0911  0.0350
 6541W        W49458   4.475   5.268  26.818  0.1064 -0.1461  0.0659
 6542W        W49459   4.038   5.595  23.611  0.2090 -0.1710 -0.2515
 6543W        W49460   2.036   5.689  26.832  0.0567 -0.2647  0.0241
 6544W        W49461   1.129   3.970  23.924  0.2688 -0.0894  0.0992
 6545W        W49462   0.812   3.650  27.521 -0.2908 -0.0213  0.0985
 6546W        W49463   1.152   5.872  26.796 -0.0393  0.0971  0.3934
 6547W        W49464  34.034   7.028  25.424 -0.0160  0.2720  0.0176
 6548W        W49465   3.682   6.285  26.973  0.0621 -0.0515  0.0133
 6549W        W49466   3.340   5.431  25.734 -0.2198 -0.0620 -0.0442
 6550W        W49467   0.570   3.670  26.283 -0.0349 -0.1440 -0.0241
 6551W        W49468   2.540   3.691  25.702 -0.2558 -0.0689 -0.2142
 6552W        W49469   1.561   5.269  25.162  0.0418 -0.1101 -0.2675
 6553W        W49470   1.412   5.051  23.420  0.0127  0.1915  0.1480
 6554W        W49471   1.268   3.622  25.751  0.0450 -0.0343 -0.3026
 6555W        W49472   1.202   7.278  26.063  0.0206 -0.3219 -0.1999
 6556W        W49473   2.069   4.757  24.785  0.2564  0.3191  0.1845
 6557W        W49474   2.202   6.249  27.486 -0.0726  0.0472 -0.2702
 6558W        W49475   0.145   5.433  25.929  0.1703  0.0383  0.0291
 6559W        W49476   3.490   4.424  26.839 -0.1625 -0.0002 -0.0527
 6560W        W49477   1.305   5.893  26.319  0.0108 -0.0249 -0.0081
 6561W        W49478   0.908   6.356  25.128  0.0697 -0.0647 -0.2228
 6562W        W49479  33.211   5.816  25.298 -0.0962  0.0106  0.1361
 6563W        W49480   2.351   5.123  25.029 -0.1813  0.1185  0.2884
 6564W        W49481   4.594   5.946  24.569  0.0777  0.1936 -0.2136
 6565W        W49482  34.453   4.191  26.510 -0.0865  0.0232 -0.0556
 6566W        W49483   1.674   3.893  25.538  0.0241  0.0384 -0.2064
 6567W        W49484   1.095   7.480  29.007  0.0020  0.1778  0.2879
 6568W        W49485   3.039   5.044  25.505 -0.0194 -0.0611  0.0679
 6569W        W49486   2.676   3.399  22.572  0.1886 -0.0517 -0.0371
 6570W        W49487   3.261   7.714  27.419  0.1828  0.0230  0.1131
 6571W        W49488   0.610   5.464  28.097 -0.0384  0.2070 -0.4612
 6572W        W49489   1.705   4.747  25.160  0.3798  0.0789  0.2143
 6573W        W49490   5.550   5.457  24.603 -0.0391  0.1754 -0.1511
 6574W        W49491   0.778   3.003  24.635  0.2191 -0.1116  0.3517
 6575W        W49492   1.539   4.986  23.916  0.2682 -0.1951  0.3967
 6576W        W49493   3.600   5.632  25.389 -0.1615 -0.3613  0.0021
 6577W        W49494   2.839   3.697  24.021 -0.0211 -0.0114  0.2940
 6578W        W49495   1.663   5.667  26.009 -0.0169 -0.0333 -0.1278
 6579W        W49496   1.477   3.957  28.368 -0.3083 -0.2401  0.3717
 6580W        W49497   3.482   4.127  28.637 -0.0392  0.0310 -0.1955
 6581W        W49498   3.142   4.082  24.975 -0.0400  0.1056 -0.1313
 6582W        W49499   0.735   4.691  23.405  0.0677 -0.1053  0.1636
 6583W        W49500   1.121   3.900  25.385  0.0733 -0.4634 -0.0300
 6584W        W49501   2.797   5.945  25.324 -0.0337 -0.0755  0.2002
 6585W        W49502   2.228   4.869  27.132 -0.0103 -0.0199  0.0460
 6586W        W49503   3.457   7.352  29.516  0.1388 -0.3799 -0.1960
 6587W        W49504   1.207   1.443  27.754  0.0380  0.3145 -0.0485
 6588W        W49505   5.231   7.428  24.611 -0.2123  0.1796  0.2646
 6589W        W49506   4.875   6.398  26.127  0.0740 -0.1342 -0.2379
 6590W        W49507   1.352   5.090  25.710 -0.0600  0.3168 -0.0153
 6591W        W49508   1.242   6.689  27.433  0.0335  0.0924  0.0509
 6592W        W49509   3.049   7.210  23.393  0.2059 -0.0930  0.0766
 6593W        W49510   2.302   3.324  25.445 -0.3379 -0.2468 -0.1617
 6594W        W49511   2.249   5.000  26.276 -0.2779 -0.0814  0.0283
 6595W        W49512   0.699   5.212  23.803  0.2801 -0.2036  0.1561
 6596W        W49513   0.621   6.394  26.837 -0.0823  0.2550 -0.0785
 6597W        W49514   4.036   3.607  23.128  0.2247  0.0111 -0.1090
 6598W        W49515   2.705   7.734  25.600 -0.1166 -0.0791  0.0341
 6599W        W49516   3.110   4.708  25.905 -0.1261  0.2045  0.1569
 6600W        W49517   2.101   4.158  26.363  0.1075  0.1038 -0.1842
 6601W        W49518   5.346   5.334  25.065 -0.0521  0.1566 -0.0675
 6602W        W49519   3.080   4.199  27.202  0.3933 -0.1643  0.1054
 6603W        W49520   1.217   4.162  25.799  0.1634 -0.0749  0.2246
 6604W        W49521   4.809   5.554  24.153  0.2217  0.3247  0.2521
 6605W        W49522   2.397   5.349  27.032 -0.2010 -0.1822 -0.0970
 6606W        W49523   2.735   6.354  27.486  0.3699  0.0039  0.1974
 6607W        W49524  34.068   7.011  29.369  0.2799  0.3227  0.2977
 6608W        W49525   2.385   3.890  24.467 -0.0791 -0.0511  0.1956
 6609W        W49526   1.049   4.904  23.700 -0.0936 -0.1128  0.1485
 6610W        W49527   2.643   6.977  25.232  0.2063  0.3202  0.2455
 6611W        W49528   3.113   6.860  25.491 -0.2094  0.0835  0.0513
 6612W        W49529   2.338   6.626  23.597 -0.3027 -0.0048  0.0669
 6613W        W49530   3.035   5.467  26.291  0.0898 -0.2189 -0.3174
 6614W        W49531  33.970   6.411  27.953  0.2437 -0.1841  0.0955
 6615W        W49532   4.633   5.097  24.236  0.2252 -0.0363 -0.0326
 6616W        W49533   2.454   5.665  24.931  0.1414  0.3895  0.1338
 6617W        W49534   1.955   4.610  26.171 -0.0586 -0.0198  0.0096
 6618W        W49535   1.510   3.258  28.820 -0.0929  0.1903  0.1067
 6619W        W49536   5.949   4.369  24.092 -0.2367  0.2671 -0.0094
 6620W        W49537   2.269   4.399  25.819 -0.0133  0.0412 -0.2262
 6621W        W49538   1.739   5.786  25.123 -0.1916  0.1242  0.2195
 6622W        W49539   3.315   3.677  28.627 -0.2049 -0.0144  0.3285
 6623W        W49540   2.992   4.916  26.379 -0.4651 -0.1619 -0.1073
 6624W        W49541  34.278   3.105  25.958 -0.0092  0.0387 -0.1424
 6625W        W49542   2.451   8.071  27.866  0.1879  0.0051 -0.1126
 6626W        W49543   3.890   6.369  21.361  0.0800 -0.1034  0.3363
 6627W        W49544   3.445   4.581  26.291 -0.1622 -0.0214  0.2340
 6628W        W49545   4.291   4.069  27.171  0.0880 -0.2325  0.1405
 6629W        W49546   5.454   4.751  23.839  0.1876  0.0575 -0.0038
 6630W        W49547   0.878   5.009  25.769  0.1242 -0.0155  0.3673
 6631W        W49548   3.354   5.975  26.556 -0.1068 -0.1637 -0.1013
 6632W        W49549   1.312   3.523  24.795  0.1120 -0.4380  0.0672
 6633W        W49550   2.463   3.105  26.848  0.1416 -0.0451  0.1009
 6634W        W49551   2.429   7.879  23.688 -0.1474 -0.0115 -0.0398
 6635W        W49552   4.696   5.560  25.937  0.0873  0.0984 -0.0748
 6636W        W49553   3.213   4.957  24.496 -0.2052  0.0616 -0.1014
 6637W        W49554   1.196   4.616  26.520 -0.0817 -0.2192 -0.0888
 6638W        W49555   0.742   7.812  28.865  0.0302  0.0087  0.1635
 6639W        W49556  34.299   5.425  23.266  0.1710 -0.0986  0.1899
 6640W        W49557   0.984   4.419  24.447  0.2279  0.2057  0.0008
 6641W        W49558   2.628   6.152  25.828  0.4511 -0.1296 -0.2301
 6642W        W49559   4.360   6.000  28.458  0.6421  0.2486 -0.2020
 6643W        W49560   3.925   3.164  25.888  0.0181  0.2484  0.0458
 6644W        W49561   2.767   4.542  27.597  0.0231  0.0503 -0.3277
 6645W        W49562   0.915   5.573  26.500 -0.0689  0.1854 -0.1163
 6646W        W49563   2.361   3.473  24.878  0.2052 -0.2112 -0.0778
 6647W        W49564   0.773   5.899  26.026 -0.1375 -0.0146  0.2631
 6648W        W49565  34.393   5.690  25.991  0.0128 -0.0000  0.2835
 6649W        W49566   2.518   5.786  26.783 -0.0121 -0.3184  0.1622
 6650W        W49567   0.800   2.989  28.307 -0.2046 -0.1299  0.2819
 6651W        W49568   4.460   5.663  24.957  0.0510 -0.0781 -0.0399
 6652W        W49569   1.511   5.656  27.071  0.0004 -0.0790 -0.0614
 6653W        W49570   3.892   4.304  25.422  0.2729  0.1132  0.0934
 6654W        W49571   3.093   6.029  27.193  0.1963  0.1576  0.0228
 6655W        W49572   1.069   6.260  27.096  0.4399 -0.3546  0.0600
 6656W        W49573   3.567   6.822  27.615 -0.3315  0.2068  0.0097
 6657W        W49574   4.464   5.865  27.428 -0.1841  0.0117 -0.2822
 6658W        W49575   2.601   5.352  26.462  0.0719 -0.1061  0.2513
 6659W        W49576  33.834   5.096  27.064 -0.0800  0.0433  0.2043
 6660W        W49577   2.725   4.840  28.632 -0.2103 -0.0050  0.0114
 6661W        W49578   2.010   3.411  27.554  0.0038  0.1477 -0.0557
 6662W        W49579   0.610   3.736  23.519  0.1019  0.1909 -0.0363
 6663W        W49580   4.262   5.698  25.678 -0.0306  0.1501  0.1572
 6664W        W49581   0.830   6.095  26.477  0.2444  0.3092  0.2617
 6665W        W49582   1.588   6.264  27.007  0.1415 -0.1343 -0.1122
 6666W        W49583   1.232   7.367  23.566  0.4135 -0.2777  0.5079
 6667W        W49584   3.236   7.845  25.504  0.3107 -0.2107  0.0904
 6668W        W49585   3.544   2.993  24.066 -0.0610  0.3027 -0.1829
 6669W        W49586   4.312   8.336  27.609 -0.0450 -0.0310 -0.1004
 6670W        W49587   3.034   2.816  23.888 -0.0860  0.2141  0.3392
 6671W        W49588   1.353   6.675  26.908  0.0055 -0.3668  0.3437
 6672W        W49589  34.087   7.912  25.580  0.0751  0.1455 -0.0768
 6673W        W49590   2.869   5.696  24.627 -0.0001  0.0174  0.1493
 6674W        W49591  34.608   6.856  26.797  0.0290 -0.0009  0.0703
 6675W        W49592   4.111   6.439  26.009 -0.0177 -0.0597 -0.4456
 6676W        W49593   4.619   4.990  24.750  0.2231  0.0207  0.2958
 6677W        W49594   3.491   3.700  23.611  0.0481  0.3295 -0.4460
 6678W        W49595   5.003   4.449  24.499 -0.1342  0.1705 -0.0856
 6679W        W49596   2.689   5.476  27.940  0.0668  0.0679 -0.1007
 6680W        W49597   2.581   4.676  26.207  0.0156 -0.0490  0.1851
 6681W        W49598   1.550   3.620  23.599 -0.1773  0.1002  0.0609
 6682W        W49599   2.630   5.919  27.641  0.1480 -0.0874 -0.0938
 6683W        W49600   3.486   3.488  28.085 -0.2667  0.0020  0.0267
 6684W        W49601  34.072   6.997  27.117 -0.2299 -0.2651 -0.3023
 6685W        W49602   5.278   6.051  23.231 -0.0654  0.0319  0.1338
 6686W        W49603   0.393   4.997  25.785  0.1083  0.2164 -0.0973
 6687W        W49604   1.091   3.697  26.643  0.1721 -0.3240 -0.3110
 6688W        W49605   1.234   1.921  26.987  0.0931  0.0021 -0.2431
 6689W        W49606   0.566   5.999  25.129  0.0708  0.2946  0.0119
 6690W        W49607   2.191   4.865  25.832 -0.2944  0.3498 -0.0145
 6691W        W49608   2.296   8.129  25.308 -0.0484  0.0535  0.3673
 6692W        W49609   2.204   5.350  25.916  0.1110 -0.1337  0.4006
 6693W        W49610   2.261   7.112  27.554  0.3290 -0.2187  0.2550
 6694W        W49611  33.780   3.487  23.961 -0.0114  0.0955  0.0290
 6695W        W49612   3.257   3.590  24.238 -0.1063  0.0776  0.1697
 6696W        W49613   1.732   4.643  26.993  0.0954  0.1037 -0.0331
 6697W        W49614   3.952   6.044  27.364  0.3249  0.0016 -0.1169
 6698W        W49615   1.959   5.419  24.808 -0.1219  0.0853  0.0672
 6699W        W49616   2.794   4.252  25.833  0.2255  0.1884 -0.0677
 6700W        W49617   5.225   4.833  26.253  0.0940 -0.0417 -0.2724
 6701W        W49618   0.569   5.494  27.122  0.1481 -0.0641  0.0442
 6702W        W49619   2.890   4.835  24.169  0.0446  0.3372  0.2449
 6703W        W49620   6.107   6.926  27.354 -0.2577  0.1261  0.0446
 6704W        W49621   1.664   4.293  26.524 -0.1183 -0.0436 -0.2527
 6705W        W49622   3.183   6.357  26.818  0.0794  0.1208  0.5873
 6706W        W49623   1.490   4.298  25.315 -0.0578  0.1269  0.2157
 6707W        W49624   5.105   5.920  24.347 -0.0023 -0.1317  0.0761
 6708W        W49625   0.578   4.619  23.901 -0.0248  0.1232 -0.0582
 6709W        W49626   0.928   4.876  27.350 -0.1057  0.1965  0.3449
 6710W        W49627   3.891   6.080  28.296  0.1553  0.5816 -0.0598
 6711W        W49628   1.690   4.079  27.027 -0.0452 -0.0423  0.1836
 6712W        W49629   3.380   5.553  24.126  0.2671  0.0853  0.1666
 6713W        W49630   4.652   2.879  25.322 -0.0784  0.0223  0.1860
 6714W        W49631   1.071   8.021  24.398  0.4017  0.2076 -0.0360
 6715W        W49632   2.506   4.842  24.587 -0.1201  0.0318  0.0026
 6716W        W49633   3.894   5.315  26.364  0.1333 -0.2238 -0.0209
 6717W        W49634  33.548   3.998  26.222 -0.2969  0.2190 -0.2202
 6718W        W49635   3.753   8.012  26.993 -0.0727 -0.1932  0.0414
 6719W        W49636   5.880   5.802  26.656  0.1832 -0.1853  0.0679
 6720W        W49637   0.140   2.967  24.715 -0.2716 -0.1741  0.2330
 6721W        W49638   1.195   4.798  26.962 -0.3392  0.1424  0.1327
 6722W        W49639   2.299   6.045  25.417 -0.0434  0.2406 -0.0807
 6723W        W49640   3.888   5.366  25.867 -0.1583  0.0744 -0.2118
 6724W        W49641   4.320   4.210  26.645 -0.3204 -0.2661  0.3923
 6725W        W49642   1.668   6.832  24.243  0.1048 -0.0615  0.1800
 6726W        W49643   4.609   3.323  26.797  0.0678  0.3315 -0.0689
 6727W        W49644   1.740   6.446  27.464 -0.1815  0.2637 -0.1913
 6728W        W49645   1.796   7.345  27.754 -0.2283 -0.2519  0.0814
 6729W        W49646   2.100   4.082  24.880  0.2866  0.4495  0.2833
 6730W        W49647   3.404   5.554  28.785  0.2381 -0.1094  0.2446
 6731W        W49648   2.259   6.577  24.969 -0.0402 -0.0860  0.4733
 6732W        W49649   2.709   6.719  26.442 -0.0124  0.3477  0.0351
 6733W        W49650   4.372   6.080  25.299  0.0820  0.0534  0.1339
 6734W        W49651   2.267   5.566  25.411 -0.0477  0.0146  0.3380
 6735W        W49652   3.607   6.221  26.111  0.1450 -0.0503  0.0110
 6736W        W49653   0.750   4.043  26.994 -0.1636 -0.4257 -0.2326
 6737W        W49654   2.706   2.759  24.270  0.0336 -0.0665 -0.0845
 6738W        W49655   1.509   3.225  24.445 -0.1721 -0.3893  0.0247
 6739W        W49656   1.616   3.749  26.588  0.1127 -0.3904  0.3643
 6740W        W49657   0.042   4.755  24.594 -0.0303 -0.0090  0.1766
 6741W        W49658   1.657   4.280  25.873 -0.0632 -0.1664  0.1932
 6742W        W49659  34.429   5.276  24.543  0.1632  0.0735  0.2369
 6743W        W49660   2.964   1.804  29.461  0.0809  0.2481  0.0780
 6744W        W49661   0.226   3.273  27.099  0.1506  0.0527 -0.0919
 6745W        W49662   0.056   5.566  28.003  0.2294  0.0569  0.1105
 6746W        W49663   0.625   2.510  25.048 -0.1264  0.1392  0.1197
 6747W        W49664   3.270   6.001  24.424  0.0289  0.0673  0.2638
 6748W        W49665   1.772   4.699  25.664  0.0337  0.1409  0.1613
 6749W        W49666   0.250   4.016  26.731 -0.0643 -0.1765  0.2344
 6750W        W49667   5.830   5.290  25.133 -0.0257 -0.2199 -0.2823
 6751W        W49668   3.818   6.136  25.250  0.0278  0.0501 -0.1207
 6752W        W49669   2.281   2.609  26.028  0.0049 -0.3775 -0.0361
 6753W        W49670   4.666   7.894  27.455 -0.2127 -0.0378 -0.1144
 6754W        W49671   0.388   5.548  22.965 -0.1202 -0.0751  0.2884
 6755W        W49672   3.574   6.040  29.295 -0.0595 -0.0402  0.2584
 6756W        W49673   1.681   5.484  28.164  0.0758 -0.1103 -0.1518
 6757W        W49674   0.637   4.645  25.542  0.0473 -0.2002 -0.1701
 6758W        W49675   3.880   4.882  26.118  0.2046  0.1309 -0.3475
 6759W        W49676   1.924   6.283  25.153  0.1348  0.0751  0.0331
 6760W        W49677   4.414   6.836  23.657 -0.3901  0.1795  0.3534
 6761W        W49678   2.682   3.882  26.993  0.2191 -0.1480  0.2600
 6762W        W49679   1.304   4.853  28.804 -0.0761 -0.3044  0.1209
 6763W        W49680  33.938   4.338  27.718  0.0417  0.0334  0.0425
 6764W        W49681   3.672   5.122  24.330 -0.0165 -0.0948  0.1049
 6765W        W49682   0.736   5.053  26.861  0.0885 -0.1697 -0.2525
 6766W        W49683   4.301   8.693  24.927  0.1813 -0.1069  0.0145
 6767W        W49684   3.864   3.071  25.317  0.0541  0.0253  0.0522
 6768W        W49685   2.933   3.918  25.406 -0.1335 -0.0875 -0.1156
 6769W        W49686   0.603   3.624  26.793  0.0214 -0.1988 -0.0898
 6770W        W49687   1.806   6.179  27.906 -0.1054  0.1020  0.0082
 6771W        W49688   4.739   5.400  27.314  0.1238  0.0214 -0.1321
 6772W        W49689   0.022   4.623  26.278 -0.4361 -0.1253  0.1453
 6773W        W49690   2.892   2.403  23.063 -0.1130 -0.1215 -0.1341
 6774W        W49691   2.308   6.998  26.091 -0.0627  0.2272 -0.1547
 6775W        W49692   0.071   6.644  29.150  0.0993 -0.1395 -0.2462
 6776W        W49693   1.946   3.434  25.691  0.0857 -0.2204  0.0170
 6777W        W49694   4.130   6.416  26.872 -0.0465  0.1786 -0.0299
 6778W        W49695   3.106   5.901  26.125 -0.1397  0.1611 -0.2447
 6779W        W49696   3.226   4.682  27.331 -0.2968  0.1065  0.3020
 6780W        W49697   0.793   4.314  25.217  0.1764  0.2499  0.1357
 6781W        W49698   4.623   6.786  22.636  0.0859  0.3098 -0.0911
 6782W        W49699   3.491   9.252  27.110  0.0599  0.0516  0.0267
 6783W        W49700   4.359   6.382  27.582  0.3805  0.0141 -0.0574
 6784W        W49701   4.298   7.416  27.967 -0.4100 -0.1051 -0.1025
 6785W        W49702   2.082   3.945  25.828  0.1024 -0.3945 -0.1083
 6786W        W49703   0.818   3.745  25.817  0.0882  0.0025  0.2048
 6787W        W49704   1.866   3.938  24.274 -0.1254 -0.1681 -0.1387
 6788W        W49705   1.383   6.578  25.205 -0.2507  0.1975 -0.0415
 6789W        W49706   4.760   3.466  26.354  0.1939  0.1228 -0.0567
 6790W        W49707   0.224   4.359  25.595  0.0362 -0.1662 -0.3308
 6791W        W49708   4.214   3.567  24.693 -0.1065  0.0090 -0.0647
 6792W        W49709  34.256   7.479  27.050  0.0950  0.0268 -0.0846
 6793W        W49710   3.857   5.865  26.685  0.1936 -0.0181  0.1461
 6794W        W49711   3.810   6.280   0.045  0.0761  0.1644 -0.2011
 6795W        W49712   0.315   3.756  25.826  0.0597 -0.3076 -0.2619
 6796W        W49713   3.141   2.554  27.879 -0.0986  0.1911  0.1544
 6797W        W49714   4.530   5.498  27.770  0.1170 -0.4268 -0.1346
 6798W        W49715  34.089   4.699  29.439  0.0122  0.0032 -0.1078
 6799W        W49716   2.615   6.424  28.961 -0.0990 -0.1309  0.0167
 6800W        W49717   0.084   5.337  29.116  0.0368 -0.1195  0.2352
 6801W        W49718   3.711   5.152  30.286 -0.1967 -0.1582  0.2796
 6802W        W49719   6.002   7.026  30.091  0.4166 -0.1980 -0.0913
 6803W        W49720   3.357   4.563  28.803  0.0389 -0.3311 -0.0371
 6804W        W49721   1.882   4.624  27.904  0.0760  0.2315  0.1582
 6805W        W49722   0.248   5.532  30.469  0.2397  0.3074 -0.1067
 6806W        W49723   2.527   4.263  29.314 -0.0688 -0.0456  0.1473
 6807W        W49724   0.561   3.356  28.056 -0.0248 -0.1208  0.0347
 6808W        W49725   2.523   7.194  30.894 -0.4278  0.1385  0.1476
 6809W        W49726   0.939   5.339  28.661 -0.1522  0.0799 -0.1686
 6810W        W49727   1.739   4.344  31.171 -0.0325  0.1873  0.1912
 6811W        W49728   2.916   3.775  30.641  0.2297 -0.3551 -0.0120
 6812W        W49729   4.702   8.901  29.766  0.0372 -0.1018 -0.0687
 6813W        W49730   2.382   3.779  31.380  0.0168 -0.1428 -0.1722
 6814W        W49731   1.742   3.981   1.593 -0.0946  0.1082 -0.1722
 6815W        W49732   3.925   6.281  27.817  0.1381 -0.1117 -0.3788
 6816W        W49733   2.149   5.399  28.072  0.1397 -0.1579  0.0529
 6817W        W49734  33.440   3.422  29.023 -0.2075  0.0886  0.0932
 6818W        W49735   1.808   4.358  30.214  0.2680 -0.0817 -0.1444
 6819W        W49736   4.668   6.454  28.494  0.1775 -0.3055  0.0571
 6820W        W49737   3.186   5.047  28.686 -0.0488 -0.0768 -0.0870
 6821W        W49738   3.029   6.538  28.296  0.0895  0.0133  0.0554
 6822W        W49739   2.899   7.446  28.876  0.0198 -0.2252 -0.2398
 6823W        W49740   2.736   4.083  31.665  0.0600  0.0338  0.0752
 6824W        W49741   1.961   6.511  30.610 -0.1229 -0.1943  0.1078
 6825W        W49742   1.395   7.436  28.606  0.0181 -0.0479  0.2522
 6826W        W49743   2.144   6.521  28.701  0.3169 -0.3581  0.2020
 6827W        W49744   2.294   4.372  28.779 -0.2009 -0.0677  0.2613
 6828W        W49745   3.550   6.805   1.272  0.2772  0.0968  0.3550
 6829W        W49746   3.384   6.050  28.298 -0.2877 -0.0754 -0.0381
 6830W        W49747   1.428   7.030  29.012  0.3719 -0.0050 -0.0967
 6831W        W49748   3.288   5.553  29.795 -0.0889 -0.0595 -0.2748
 6832W        W49749   2.563   8.496  29.668 -0.2241  0.0787 -0.2403
 6833W        W49750   1.602   6.089  29.973  0.2542 -0.1963 -0.0666
 6834W        W49751   0.366   4.897  29.052 -0.1836 -0.0787  0.1740
 6835W        W49752   3.068   6.221  27.782 -0.3325 -0.3735 -0.0625
 6836W        W49753   2.540   5.299  30.307 -0.3094  0.0028  0.2444
 6837W        W49754   1.598   7.388  30.468  0.2565 -0.1654 -0.1810
 6838W        W49755   1.654   8.718  28.267  0.3149 -0.0030 -0.0386
 6839W        W49756   4.764   6.973  29.590 -0.0582  0.1535 -0.0346
 6840W        W49757   4.091   8.759  27.729  0.1448 -0.0588  0.0944
 6841W        W49758   1.648   3.828  26.067  0.1280  0.1181 -0.2945
 6842W        W49759   0.775   4.544  26.897  0.0267  0.1195 -0.0538
 6843W        W49760   3.460   5.411  26.664  0.1591  0.1729 -0.0625
 6844W        W49761   2.062   3.435  28.150  0.0093  0.2928 -0.0839
 6845W        W49762   1.756   6.341  29.525  0.0312  0.0166  0.0296
 6846W        W49763   0.707   4.981  30.711 -0.0477  0.2016  0.1202
 6847W        W49764   2.919   5.547  31.219  0.0213  0.4672  0.0254
 6848W        W49765   0.445   6.836  30.979 -0.0069  0.0175 -0.1370
 6849W        W49766   1.031   5.479  29.932 -0.0895 -0.1698 -0.0838
 6850W        W49767   0.963   9.072  29.836  0.2881  0.1379  0.1295
 6851W        W49768  34.277   3.907  30.122 -0.1276  0.0390  0.1540
 6852W        W49769   3.428   8.159  27.342  0.0331  0.3052 -0.0863
 6853W        W49770   2.125   6.319  28.299 -0.0135 -0.0710  0.3525
 6854W        W49771   3.792   4.835  28.861 -0.2504 -0.3180 -0.3274
 6855W        W49772   1.078   5.579  27.682  0.0600 -0.0007 -0.1566
 6856W        W49773   2.063   7.097  30.674  0.0862 -0.2290 -0.3734
 6857W        W49774   1.673   5.717  31.862  0.0766  0.3366 -0.1436
 6858W        W49775  33.768   4.603  28.600  0.3074  0.0674 -0.2079
 6859W        W49776   4.654   7.352  28.282  0.0870  0.1702 -0.4497
 6860W        W49777   2.205   5.821   0.996 -0.1824 -0.0634  0.0383
 6861W        W49778   2.206   3.968  30.127  0.0170  0.1567 -0.1615
 6862W        W49779   1.408   6.652  30.389 -0.1362 -0.1435 -0.2151
 6863W        W49780   4.395   6.664  30.394 -0.1103 -0.1347 -0.0469
 6864W        W49781   4.176   4.930  26.599  0.2757 -0.1560  0.1215
 6865W        W49782   4.621   1.771  29.365 -0.1367  0.0236  0.4141
 6866W        W49783   2.012   4.230  29.714  0.0935 -0.0652  0.2318
 6867W        W49784   2.586   4.909  26.736  0.0746 -0.0529  0.1615
 6868W        W49785   1.455   4.384  27.985 -0.1940  0.1476 -0.1469
 6869W        W49786   2.568   6.986  30.360 -0.0807 -0.0391  0.2167
 6870W        W49787   3.171   4.710  27.838 -0.0377 -0.0098 -0.1081
 6871W        W49788   0.634   7.098  29.855  0.3554 -0.2431 -0.0093
 6872W        W49789   2.614   5.110  29.441 -0.1144  0.0749 -0.0585
 6873W        W49790   4.338   6.932  31.531  0.3560  0.1028  0.0376
 6874W        W49791  33.642   7.821  26.492 -0.2082 -0.2886 -0.0330
 6875W        W49792   0.599   6.961  28.933  0.0595 -0.3603 -0.1605
 6876W        W49793   3.361   7.554  27.898 -0.1851 -0.1636  0.0248
 6877W        W49794   1.003   3.258  27.689  0.0977 -0.0381 -0.1012
 6878W        W49795   3.408   7.846  28.676 -0.3086  0.2113  0.0745
 6879W        W49796   4.057   5.116  28.335 -0.2960  0.0807 -0.2119
 6880W        W49797   1.289   3.513  29.238  0.0293  0.3235 -0.1259
 6881W        W49798   3.761   2.486  30.904  0.0992  0.0092  0.1217
 6882W        W49799   1.046   5.223  29.124  0.2009 -0.0018  0.0140
 6883W        W49800   4.920   6.046  30.155 -0.1280  0.0164  0.0349
 6884W        W49801   3.687   4.925  27.684 -0.2043 -0.0295  0.0336
 6885W        W49802   3.857   5.202  25.398  0.0751  0.1471  0.1257
 6886W        W49803   1.544   6.149  30.535 -0.0560  0.2517  0.0755
 6887W        W49804  34.348   4.338  28.012 -0.3586  0.0696 -0.2496
 6888W        W49805  34.550   6.717  30.419 -0.0333  0.1364  0.3666
 6889W        W49806   0.256   3.022  30.174 -0.2050 -0.2044 -0.0436
 6890W        W49807   3.703   5.881  29.826  0.0155 -0.0451 -0.0504
 6891W        W49808  34.158   5.245  30.287 -0.1020 -0.1480  0.1045
 6892W        W49809   3.635   5.439  28.335  0.0151 -0.0849 -0.1113
 6893W        W49810   0.209   5.193  26.986 -0.0411  0.3510 -0.1570
 6894W        W49811  34.323   5.154  29.626 -0.0455  0.2797  0.0518
 6895W        W49812   4.619   4.077  30.064 -0.2112 -0.0797 -0.0703
 6896W        W49813   3.271   6.847  26.637 -0.0680  0.1342 -0.1340
 6897W        W49814   5.522   6.376   0.031 -0.0030 -0.1780  0.0802
 6898W        W49815   3.892   6.425  28.704  0.1726  0.3890  0.1992
 6899W        W49816   0.828   4.847  28.817 -0.1719  0.1863 -0.3168
 6900W        W49817  33.321   4.366  26.527  0.1036  0.2172 -0.0034
 6901W        W49818  33.668   8.419  29.524  0.0790  0.1544  0.3844
 6902W        W49819   0.730   5.373  30.354 -0.1569 -0.0696 -0.0652
 6903W        W49820   0.914   6.526  29.480  0.0413 -0.2901  0.1571
 6904W        W49821   4.409   6.473  29.328 -0.2550 -0.0897  0.0415
 6905W        W49822   2.340   4.789  27.773  0.1625 -0.4335 -0.5352
 6906W        W49823   1.448   5.555  29.667 -0.0074 -0.0861  0.0604
 6907W        W49824   2.973   1.917  31.211 -0.1814  0.0596  0.0583
 6908W        W49825   4.713   8.784   0.872  0.0947  0.2575 -0.0599
 6909W        W49826   2.916   5.806  28.698  0.2222  0.0791 -0.1327
 6910W        W49827  34.200   4.660  26.331 -0.0874  0.0339  0.0264
 6911W        W49828   0.433   3.422  29.696 -0.0470 -0.0292 -0.0961
 6912W        W49829   1.057   5.485  25.877  0.0875 -0.3671  0.2787
 6913W        W49830  34.012   4.145  28.494  0.1472 -0.0918  0.0302
 6914W        W49831   3.510   6.651  28.426  0.0703  0.1607  0.1329
 6915W        W49832   3.084   4.236  27.878 -0.0596  0.0131  0.0193
 6916W        W49833  34.488   4.596  29.736 -0.2262 -0.3792  0.0445
 6917W        W49834   1.962   5.528  30.300 -0.3383  0.0607  0.1201
 6918W        W49835   1.268   3.794  27.204  0.1635 -0.1085 -0.0943
 6919W        W49836   1.623   6.629  31.411 -0.1902 -0.3611 -0.0231
 6920W        W49837   3.309   3.697  29.161  0.0150 -0.3202  0.1120
 6921W        W49838   4.759   3.504  27.797 -0.1083 -0.1458  0.1693
 6922W        W49839   3.734   6.913  31.259  0.0165 -0.2850 -0.2302
 6923W        W49840   4.732   5.693  28.198 -0.1659  0.1421  0.0420
 6924W        W49841   2.691   2.324  27.478 -0.0349  0.2014 -0.0855
 6925W        W49842   2.134   3.846  28.631  0.3085 -0.0928 -0.1726
 6926W        W49843   2.353   6.314  31.816 -0.2109  0.0998 -0.0113
 6927W        W49844   2.021   5.085  28.490 -0.0203 -0.0277 -0.0742
 6928W        W49845   1.368   6.653  29.382 -0.1676 -0.1453 -0.3795
 6929W        W49846   1.474   5.652  25.531  0.2161 -0.1534  0.0245
 6930W        W49847   4.510   7.293  27.500 -0.3944  0.3435  0.0813
 6931W        W49848   1.869   7.025   0.163  0.0367 -0.3677  0.2839
 6932W        W49849   1.188   4.311   0.782  0.6911 -0.0968 -0.0036
 6933W        W49850   4.274   8.048  27.192 -0.1778  0.4995  0.1253
 6934W        W49851   2.610   4.916  29.964  0.1195 -0.0932 -0.2057
 6935W        W49852   2.438   5.051  28.213  0.0716 -0.1996 -0.0041
 6936W        W49853   2.750   4.566  28.114  0.1059  0.1181 -0.0166
 6937W        W49854   2.692   6.945  28.781  0.0634 -0.0248 -0.1199
 6938W        W49855   2.122   3.420  30.024  0.1784  0.1615 -0.0713
 6939W        W49856   1.982   5.015  30.284 -0.2618 -0.2274 -0.1021
 6940W        W49857   3.613   3.831  31.521  0.2182  0.0645 -0.0569
 6941W        W49858   3.496   5.401   0.045 -0.2655 -0.1184  0.1081
 6942W        W49859   2.760   5.519  29.088  0.1232  0.1510  0.1968
 6943W        W49860   4.053   4.164  28.216 -0.2424 -0.3188  0.1445
 6944W        W49861   3.292   5.228  27.837 -0.3181 -0.3412  0.0977
 6945W        W49862   2.222   3.785  30.826  0.1819  0.2363  0.2634
 6946W        W49863   2.432   6.708  30.812  0.2691 -0.0869  0.1859
 6947W        W49864  34.356   6.978  31.960 -0.1378  0.0169 -0.3634
 6948W        W49865   1.947   5.695  29.828  0.0082 -0.0864 -0.1055
 6949W        W49866   0.642   4.879  29.477  0.1557  0.1695 -0.1998
 6950W        W49867   1.795   3.982  30.741  0.0440 -0.4689  0.0297
 6951W        W49868   1.899   5.035  27.584  0.0616  0.3282 -0.2724
 6952W        W49869   0.855   7.162  27.492  0.0521  0.2773  0.1922
 6953W        W49870   1.202   6.592  28.420 -0.2143  0.2038 -0.1070
 6954W        W49871   0.276   2.705  30.572 -0.2798 -0.1669 -0.2391
 6955W        W49872   3.082   6.553  28.786  0.0530  0.0304  0.0100
 6956W        W49873   2.440   5.868  28.100  0.2162 -0.1576 -0.0574
 6957W        W49874   2.437   8.159  30.942  0.0730 -0.2089  0.4230
 6958W        W49875   1.439   7.377  29.946 -0.0660  0.0134  0.1260
 6959W        W49876   3.187   2.331  29.314  0.1047 -0.2357 -0.2742
 6960W        W49877   1.904   8.123  30.783 -0.0523 -0.0482  0.0442
 6961W        W49878  34.274   3.868  27.572  0.0981  0.1190  0.0338
 6962W        W49879   0.753   6.546  29.911 -0.1480  0.0747 -0.3220
 6963W        W49880   4.517   4.508  28.892  0.1509 -0.1497 -0.0420
 6964W        W49881   4.382   6.985  28.159  0.1455 -0.1344  0.4476
 6965W        W49882  33.963   3.542  29.819 -0.0850 -0.0654  0.1919
 6966W        W49883   0.577   3.851  27.963  0.0053  0.0145 -0.1261
 6967W        W49884   2.427   7.671  31.091  0.1544  0.1440  0.0305
 6968W        W49885   3.954   5.630  29.288  0.0507 -0.3802 -0.1382
 6969W        W49886   1.109   3.896  26.182  0.0380 -0.1745 -0.2184
 6970W        W49887   2.485   7.637  30.529 -0.2124 -0.1774 -0.1056
 6971W        W49888   1.421   5.862  28.538 -0.1233  0.0931  0.0807
 6972W        W49889   0.718   4.121  27.486  0.3693  0.2678  0.1132
 6973W        W49890   2.168   4.639  28.289  0.1000 -0.0431  0.1756
 6974W        W49891   2.407   4.327  27.815 -0.2612 -0.1982  0.2315
 6975W        W49892   1.241   5.089  29.626  0.1166  0.1446 -0.0283
 6976W        W49893   3.068   6.817  30.709 -0.1511  0.2289 -0.1332
 6977W        W49894   1.836   5.934  27.294 -0.3183 -0.1449 -0.0429
 6978W        W49895   2.457   6.713  28.336  0.0746 -0.0674  0.1091
 6979W        W49896   0.683   5.253  31.239  0.1033  0.0172  0.1590
 6980W        W49897   2.822   5.324  28.478  0.3396 -0.2496 -0.0646
 6981W        W49898   0.601   4.329  27.938 -0.0502  0.1738 -0.2399
 6982W        W49899   1.320   5.267  27.391 -0.0812  0.0530 -0.2888
 6983W        W49900   1.250   4.696  29.986 -0.1901  0.0697  0.1428
 6984W        W49901   3.736   4.747  30.575 -0.1276  0.1516  0.3073
 6985W        W49902   2.234   4.226  31.593  0.0055 -0.0679  0.2739
 6986W        W49903  34.299   5.704  31.002 -0.0463 -0.2913 -0.0806
 6987W        W49904  34.487   3.039  28.434 -0.0141 -0.2511  0.2228
 6988W        W49905   2.604   5.775  26.198 -0.0090  0.3280 -0.3941
 6989W        W49906   2.816   5.239   0.589  0.0689 -0.0843 -0.1111
 6990W        W49907   0.273   5.548  27.536  0.1338 -0.2908  0.0818
 6991W        W49908   0.214   6.067  30.463  0.2871 -0.2562  0.1455
 6992W        W49909   0.936   5.616  29.384 -0.2780  0.1366 -0.1052
 6993W        W49910   0.512   4.902  27.943  0.0773 -0.1375  0.1504
 6994W        W49911   1.334   6.783  31.828  0.1349  0.4636  0.2032
 6995W        W49912   1.798   7.278  28.804 -0.0968 -0.0416 -0.0348
 6996W        W49913   2.415   4.426  30.020 -0.0297  0.3470 -0.1143
 6997W        W49914   2.766   2.947  28.183  0.1779  0.0229  0.0096
 6998W        W49915   3.498   5.800  27.092 -0.2269  0.2593  0.1228
 6999W        W49916   2.251   6.290  29.294  0.3273  0.0151  0.1276
 7000W        W49917   1.223   3.140  29.918  0.2424  0.0453 -0.1750
 7001W        W49918   3.660   4.901  27.175 -0.1351 -0.2463 -0.0859
 7002W        W49919   3.385   4.335  30.832 -0.1813 -0.1205 -0.1646
 7003W        W49920   0.774   4.256  29.498  0.1188  0.0617 -0.1115
 7004W        W49921   3.885   5.318  28.928 -0.0595  0.3914 -0.1628
 7005W        W49922  34.291   4.456  30.792  0.1574  0.2306 -0.1248
 7006W        W49923   3.483   6.449  29.047  0.0672 -0.1338  0.0392
 7007W        W49924   1.047   3.355  30.531 -0.1747  0.2907 -0.1642
 7008W        W49925   1.891   5.386  27.219 -0.0127 -0.0634 -0.2280
 7009W        W49926   0.523   4.618  27.497 -0.1292  0.1382  0.1984
 7010W        W49927   2.102   3.559  26.167  0.2670  0.2892  0.1208
 7011W        W49928   3.912   4.213  30.763 -0.0580  0.0422  0.2841
 7012W        W49929   1.152   4.614  29.393  0.2430  0.1340 -0.1228
 7013W        W49930   2.051   4.466  29.252 -0.1502 -0.2389  0.5909
 7014W        W49931   0.678   4.424  30.825  0.1647 -0.0108  0.3821
 7015W        W49932   3.636   4.955  28.176  0.0480  0.0774 -0.1301
 7016W        W49933   1.197   5.345  26.847  0.0664  0.4165  0.1631
 7017W        W49934   0.012   5.513  29.620 -0.0316 -0.1699 -0.3588
 7018W        W49935   0.624   3.098   0.049 -0.3411  0.0293  0.1579
 7019W        W49936   1.244   6.472  29.887 -0.1061  0.3588  0.4191
 7020W        W49937   0.542   4.368  30.341 -0.3628 -0.1008 -0.2746
 7021W        W49938   2.974   5.034  29.132  0.2945 -0.1727  0.2162
 7022W        W49939   1.465   5.430  31.024  0.2651  0.0906 -0.2708
 7023W        W49940   1.104   5.051  30.277  0.3029 -0.0103  0.0021
 7024W        W49941  33.932   4.687  28.164 -0.1681 -0.0377 -0.0832
 7025W        W49942   1.914   7.591  29.688  0.2296  0.0072  0.0544
 7026W        W49943   4.172   3.790  25.403  0.2428 -0.0925  0.1570
 7027W        W49944   3.798   5.914  31.625  0.1076 -0.4479 -0.0788
 7028W        W49945   4.404   2.489  27.705 -0.0764 -0.0566  0.2192
 7029W        W49946   3.030   5.008  28.201  0.2131  0.5215  0.3460
 7030W        W49947   1.170   3.681  29.743 -0.0505 -0.0403 -0.0996
 7031W        W49948   2.236   5.304  29.804  0.1341  0.0293 -0.1778
 7032W        W49949   1.597   5.394  26.494 -0.0936 -0.3739 -0.0651
 7033W        W49950   2.840   5.301  30.771  0.2095  0.2222  0.1880
 7034W        W49951   1.661   5.184  29.033  0.4230  0.0020  0.3076
 7035W        W49952   5.542   6.419  29.603 -0.2431 -0.0599 -0.0898
 7036W        W49953   2.577   3.700  28.316 -0.0010  0.0630 -0.1393
 7037W        W49954  34.360   4.452  28.658  0.1605 -0.0751 -0.2682
 7038W        W49955   0.665   7.785  30.142 -0.1657  0.0246  0.2162
 7039W        W49956   2.250   4.104  26.848 -0.0298  0.2442 -0.0145
 7040W        W49957   0.562   6.385  28.540 -0.2722 -0.1227 -0.1093
 7041W        W49958   2.754   5.402  29.869 -0.0005  0.1927 -0.0683
 7042W        W49959   4.013   7.573  30.781  0.1314  0.1779 -0.2144
 7043W        W49960   2.821   2.042  27.914  0.2735  0.3408 -0.1830
 7044W        W49961   3.195   4.080  29.994 -0.3092 -0.0907 -0.2618
 7045W        W49962   1.372   5.602  29.138 -0.3715  0.0677 -0.2054
 7046W        W49963   2.985   4.327  30.537 -0.0373  0.0310  0.2704
 7047W        W49964   2.511   9.173  28.942 -0.1059 -0.3987 -0.0668
 7048W        W49965   2.858   5.799  30.604 -0.0815 -0.0916  0.0745
 7049W        W49966   0.214   7.236  31.253 -0.0070 -0.0792  0.1320
 7050W        W49967   3.271   3.250  28.905 -0.0255 -0.0108  0.0807
 7051W        W49968   4.311   5.477  28.627 -0.1893 -0.2064  0.0506
 7052W        W49969   0.422   4.011  29.740 -0.0256 -0.0423 -0.1606
 7053W        W49970   3.878   4.746  29.471  0.0722 -0.5114 -0.0747
 7054W        W49971   2.950   7.506  31.786 -0.2192 -0.0842 -0.0624
 7055W        W49972   1.896   6.599  31.862  0.0992 -0.1604 -0.0001
 7056W        W49973   2.094   7.645  29.158 -0.0761 -0.3181 -0.1198
 7057W        W49974   7.629   4.452  29.695  0.0700 -0.2164  0.1099
 7058W        W49975   0.739   6.094  29.286  0.1876  0.1380  0.0225
 7059W        W49976   0.106   4.984  31.574  0.4388  0.1716 -0.0881
 7060W        W49977   5.125   5.987  31.852  0.3685  0.2805 -0.3296
 7061W        W49978   1.870   5.887  29.408  0.0249 -0.2230  0.5138
 7062W        W49979   1.683   4.819  28.316  0.0931 -0.2315  0.1510
 7063W        W49980   0.573   5.836  29.808  0.1912  0.0145  0.0636
 7064W        W49981   0.476   6.513  31.723 -0.1895  0.1747  0.2765
 7065W        W49982   1.273   3.701  30.242 -0.1511  0.0962 -0.2409
 7066W        W49983   0.835   6.653  26.501  0.1319 -0.0573 -0.0145
 7067W        W49984   1.372   5.957  28.034 -0.0591  0.1823  0.0296
 7068W        W49985   1.646   5.584  27.696  0.2378 -0.0023  0.2755
 7069W        W49986   3.371   6.521  29.523  0.1776  0.2426 -0.1025
 7070W        W49987   0.191   2.773  26.990  0.0667 -0.0438  0.2576
 7071W        W49988   0.976   7.935  29.801 -0.0613 -0.1300 -0.2553
 7072W        W49989   0.263   3.377  27.583  0.0526  0.2235  0.2122
 7073W        W49990   2.395   6.687  27.294  0.0923  0.0310  0.0893
 7074W        W49991   1.496   7.575  26.949  0.2316 -0.1760 -0.0597
 7075W        W49992   3.493   6.348  29.992 -0.0090  0.3688  0.0822
 7076W        W49993   4.277   3.717  27.587 -0.1519 -0.1258 -0.1246
 7077W        W49994  34.495   3.881  29.641  0.1429  0.3635  0.0608
 7078W        W49995   3.201   2.674  25.728 -0.3638 -0.2502  0.0962
 7079W        W49996   1.063   8.739  30.583  0.2725  0.1196 -0.0372
 7080W        W49997   4.092   5.599  30.467  0.0413  0.0766  0.2481
 7081W        W49998   1.910   3.280  26.715  0.1915  0.1167 -0.1577
 7082W        W49999   1.923   6.134  31.670  0.1276 -0.0515  0.1848
 7083W        W50000   3.385   3.200  29.602  0.2961 -0.1103 -0.0124
 7084W        W50001   0.604   6.912  31.442  0.0411 -0.0289 -0.5798
 7085W        W50002   3.206   6.989  27.307 -0.0354 -0.2360  0.1161
 7086W        W50003  33.127   4.326  28.342 -0.0127  0.1757 -0.1303
 7087W        W50004   2.351   5.830  29.580 -0.2043  0.1140  0.0488
 7088W        W50005   2.004   3.130  30.482  0.1778 -0.1517  0.0022
 7089W        W50006   0.835   6.714  27.166  0.0131  0.3358  0.1875
 7090W        W50007   2.120   5.082  29.183 -0.2228  0.3253  0.1304
 7091W        W50008   1.783   6.493  30.125 -0.2339 -0.0117 -0.0627
 7092W        W50009   2.260   8.162  29.440 -0.5773 -0.2298  0.0712
 7093W        W50010   0.571   7.730  31.362  0.2401  0.0243  0.0564
 7094W        W50011  33.434   5.061  30.145 -0.2037 -0.2852 -0.0235
 7095W        W50012   3.473   4.962  29.290  0.0522  0.0349 -0.1579
 7096W        W50013   1.011   5.698  30.583 -0.1306  0.0732 -0.1576
 7097W        W50014   3.214   4.040  31.869  0.0949 -0.3741 -0.0468
 7098W        W50015   1.408   5.294  28.573  0.4219 -0.2167 -0.0079
 7099W        W50016   4.477   4.526  27.953 -0.0005  0.1695 -0.0765
 7100W        W50017   3.844   6.379  29.645 -0.0797 -0.1450  0.1866
 7101W        W50018   1.039   5.692  31.063  0.1478 -0.0447  0.1848
 7102W        W50019   2.673   6.718  25.923  0.0004 -0.1329 -0.0175
 7103W        W50020   3.538   6.013   1.039 -0.4526 -0.1573  0.0827
 7104W        W50021   0.644   5.938  27.790 -0.1774  0.1207  0.3341
 7105W        W50022   3.251   6.096  30.815 -0.1114  0.0180  0.0250
 7106W        W50023   1.085   3.351  28.583 -0.1514 -0.5872  0.0659
 7107W        W50024   3.443   5.123  26.267 -0.0257  0.1066 -0.0087
 7108W        W50025   0.316   6.310  29.485  0.2720 -0.2114  0.1086
 7109W        W50026   1.237   6.155  29.370 -0.1805  0.0871  0.2221
 7110W        W50027   2.604   5.932  31.041  0.0037  0.2007  0.1798
 7111W        W50028   0.636   3.944  28.956 -0.1393  0.0100 -0.0802
 7112W        W50029   4.802   4.004  27.399  0.2469 -0.1562  0.0629
 7113W        W50030   1.516   4.950  31.031 -0.2384 -0.0829  0.1690
 7114W        W50031   2.123   5.810  27.737  0.1296  0.1946 -0.0492
 7115W        W50032   1.627   5.112  26.961 -0.0485 -0.0144  0.3313
 7116W        W50033   4.058   6.641  30.013 -0.1063 -0.1784  0.1716
 7117W        W50034   0.297   4.707  29.990  0.3327  0.2381 -0.3507
 7118W        W50035   4.575   5.531  30.576 -0.0108 -0.1146  0.0743
 7119W        W50036   5.762   6.039  30.807  0.1327  0.1577 -0.1138
 7120W        W50037   2.796   4.341  28.615  0.1766 -0.0148 -0.0166
 7121W        W50038  34.409   6.534  28.690  0.1359 -0.3656 -0.0105
 7122W        W50039   0.966   7.735  28.367  0.4611  0.3548 -0.1896
 7123W        W50040   3.705   3.940  30.042  0.2021 -0.0685 -0.0242
 7124W        W50041   1.686   3.994  29.416  0.2105  0.2645  0.2609
 7125W        W50042   3.120   5.731  27.725  0.0422 -0.0038 -0.0157
 7126W        W50043   4.331   3.353  29.465  0.4055 -0.1663  0.2627
 7127W        W50044   2.593   6.729  29.836  0.0385 -0.0331 -0.3011
 7128W        W50045   2.786   7.719  30.081 -0.0757  0.0856  0.1389
 7129W        W50046  33.468   4.199  28.777 -0.2909 -0.0734 -0.0131
 7130W        W50047  33.466   5.182  31.795  0.2034 -0.0283 -0.0316
 7131W        W50048   2.592   5.996  29.105  0.2271 -0.0644  0.1136
 7132W        W50049   3.080   6.739  27.742 -0.0644 -0.2490 -0.3106
 7133W        W50050   3.872   7.786  29.943  0.2120  0.0329 -0.1793
 7134W        W50051   2.397   3.264  27.293 -0.2806  0.1323  0.0737
 7135W        W50052   2.387   3.557  29.002  0.1448 -0.2096 -0.3305
 7136W        W50053   0.398   2.822  29.670  0.0077  0.1393  0.3986
 7137W        W50054   2.894   3.355  26.965 -0.1445 -0.1632 -0.1968
 7138W        W50055   2.910   3.133  29.863 -0.1222  0.1768 -0.0878
 7139W        W50056   0.597   6.083  30.914 -0.0185 -0.2312  0.1410
 7140W        W50057   0.525   6.452  29.083  0.0626 -0.0607  0.0996
 7141W        W50058   0.649   5.893  28.821 -0.2720  0.1775 -0.4929
 7142W        W50059   2.092   6.693  29.679  0.1596  0.3351 -0.2409
 7143W        W50060   1.728   3.533  29.680  0.1798  0.0615 -0.1583
 7144W        W50061   2.506   6.339  30.158 -0.1644  0.1560  0.0403
 7145W        W50062   1.183   5.484  28.157 -0.1920  0.1968 -0.3051
 7146W        W50063   1.245   4.191  26.712  0.3603 -0.1284 -0.0130
 7147W        W50064   2.158   6.630  27.841 -0.1812  0.1184  0.0336
 7148W        W50065  33.960   4.610  27.329 -0.0257 -0.0221 -0.0471
 7149W        W50066   1.655   4.753  29.338  0.1678  0.2305 -0.0197
 7150W        W50067   2.734   4.821  25.178  0.3959  0.0296 -0.0122
 7151W        W50068   4.093   5.614  28.205 -0.3197  0.0286 -0.3316
 7152W        W50069   1.967   4.002  28.106  0.0605  0.0912  0.1143
 7153W        W50070   3.661   7.465  31.238  0.2540 -0.1018  0.0489
 7154W        W50071   3.240   4.944  26.917 -0.1869 -0.4530  0.0717
 7155W        W50072   0.952   4.757  31.084 -0.0187  0.0147  0.1436
 7156W        W50073   1.244   4.927  31.697 -0.2262 -0.1330 -0.3997
 7157W        W50074  33.586   4.206  28.082  0.0966  0.2280  0.2024
 7158W        W50075   1.140   5.200  30.758  0.1996  0.0895  0.1516
 7159W        W50076   3.044   5.410  30.286 -0.0568  0.2210  0.2432
 7160W        W50077   2.323   5.304  27.623 -0.2404  0.0561  0.1643
 7161W        W50078   1.368   8.125  30.098 -0.2821 -0.1655 -0.2050
 7162W        W50079   3.025   6.374  30.416  0.0440 -0.1085 -0.3219
 7163W        W50080   0.522   3.331  30.477 -0.0379  0.1228  0.2227
 7164W        W50081   2.929   5.334  26.889 -0.0165  0.0356  0.0521
 7165W        W50082   2.274   8.589  30.059  0.1709 -0.3441 -0.0708
 7166W        W50083   5.791   6.778  28.354  0.2118 -0.0489  0.0184
 7167W        W50084   3.780   5.281  30.817  0.0376  0.3867  0.0609
 7168W        W50085   0.984   4.301  28.785 -0.1079  0.1457 -0.0069
 7169W        W50086  34.245   3.504  31.539  0.0949  0.2182  0.1657
 7170W        W50087   1.316   5.395  31.885  0.0727  0.0441  0.1020
 7171W        W50088   4.341   7.326  29.768  0.3327  0.0501 -0.1447
 7172W        W50089   1.039   4.233  28.222 -0.1114 -0.1448 -0.0306
 7173W        W50090   3.094   5.186  27.383 -0.1615  0.3625 -0.1523
 7174W        W50091   1.569   4.124  27.576  0.3392 -0.2093 -0.0548
 7175W        W50092  33.492   3.871  29.883 -0.1216  0.0148 -0.0253
 7176W        W50093   2.733   4.913  27.218  0.1504  0.0981  0.1016
 7177W        W50094   3.260   3.906  30.992  0.2930  0.2088 -0.0779
 7178W        W50095   3.128   6.072  29.101  0.2045 -0.1079 -0.1004
 7179W        W50096   3.993   7.019  30.345  0.1601 -0.3397  0.1115
 7180W        W50097   0.158   4.662  28.455 -0.2563  0.2363 -0.4643
 7181W        W50098   4.859   4.926  26.927  0.1801 -0.0260  0.3277
 7182W        W50099   3.127   8.792  30.189 -0.1684  0.0965 -0.1805
 7183W        W50100   5.422   6.592  30.769  0.1366 -0.0194 -0.0710
 7184W        W50101   2.886   8.048  29.584 -0.1971  0.0878  0.0068
 7185W        W50102   1.712   5.676  30.692 -0.0063  0.1011  0.0618
 7186W        W50103   0.579   3.013   0.592  0.2607 -0.3060  0.0588
 7187W        W50104   0.530   5.334  28.934  0.1490  0.1566  0.1095
 7188W        W50105   1.539   4.737  30.512 -0.0785 -0.2678 -0.0033
 7189W        W50106   4.827   5.238  29.659  0.0531  0.1632  0.0278
 7190W        W50107  34.489   4.772  30.388  0.0191 -0.0574 -0.0632
 7191W        W50108   3.089   4.087  28.993  0.2015  0.1374  0.1569
 7192W        W50109   2.217   6.037  28.813  0.1004  0.1167 -0.0882
 7193W        W50110   1.465   6.019  31.077 -0.1374 -0.0664 -0.0686
 7194W        W50111   2.496   4.026  29.740 -0.0891 -0.1086 -0.1236
 7195W        W50112   0.404   3.889  30.791  0.1463  0.0698  0.4166
 7196W        W50113  33.738   4.774  30.955 -0.3138 -0.3529 -0.0489
 7197W        W50114   1.132   7.065   0.205  0.1600 -0.2160  0.0650
 7198W        W50115   3.639   6.461  30.491  0.3174  0.2663 -0.2235
 7199W        W50116   1.222   6.090   1.677 -0.1186 -0.0267  0.1560
 7200W        W50117   3.838   3.596  30.404  0.0424  0.0160  0.1814
 7201W        W50118   1.690   4.247   1.056 -0.0048 -0.0051 -0.0790
 7202W        W50119   3.272   7.130  31.066 -0.0893 -0.2080 -0.1584
 7203W        W50120   4.470   6.368   1.009  0.1077 -0.0245  0.4140
 7204W        W50121   3.154   6.315   0.289  0.1867 -0.0132  0.2459
 7205W        W50122   1.931   5.262  30.899  0.1712  0.0476 -0.0580
 7206W        W50123   1.456   6.646   0.996  0.0499 -0.2181  0.0192
 7207W        W50124   1.434   6.272  31.776  0.0681  0.0472  0.1308
 7208W        W50125   2.703   5.692   0.267 -0.3942 -0.0449  0.2595
 7209W        W50126   2.683   6.941  29.348 -0.0459 -0.0618 -0.1965
 7210W        W50127   3.002   7.657   0.315  0.0382  0.3544 -0.1520
 7211W        W50128   3.782   6.207  31.071  0.2963 -0.1524 -0.0833
 7212W        W50129   2.661   2.910  30.983  0.0426  0.3381 -0.3265
 7213W        W50130   0.275   4.459  29.477 -0.1893  0.0617 -0.1737
 7214W        W50131   2.471   4.773  30.412 -0.2628 -0.0196 -0.1493
 7215W        W50132   2.551   7.751  31.951 -0.0255  0.0817 -0.1135
 7216W        W50133   4.286   4.379   2.660 -0.3088  0.0256 -0.1107
 7217W        W50134   2.254   4.245  31.096 -0.0896 -0.2457  0.1410
 7218W        W50135   2.851   2.451  31.211 -0.0849  0.3390  0.1590
 7219W        W50136  33.826   4.341   0.187  0.2882 -0.0392 -0.0552
 7220W        W50137   0.760   5.481  31.765  0.1085  0.2999  0.1222
 7221W        W50138   0.224   8.542  29.965 -0.1893  0.6506  0.1458
 7222W        W50139   0.624   5.548  30.818  0.0959  0.2171 -0.0674
 7223W        W50140   1.558   5.217   0.699 -0.3793 -0.2869  0.0460
 7224W        W50141   2.915   7.430  29.469  0.2286 -0.1449  0.3645
 7225W        W50142   1.590   5.239  30.522  0.1423 -0.2453 -0.0280
 7226W        W50143   1.223   3.743  31.527 -0.1298 -0.1909 -0.1132
 7227W        W50144   1.331   3.402  31.869  0.2659  0.2764 -0.1173
 7228W        W50145   0.587   5.602   0.969 -0.2566 -0.0625 -0.1748
 7229W        W50146   2.101   5.973   1.509 -0.1250 -0.0670  0.0434
 7230W        W50147   2.273   7.093   1.164 -0.2771 -0.3340 -0.0080
 7231W        W50148   2.268   6.814  29.147  0.0655  0.0051 -0.3564
 7232W        W50149   1.576   4.771   0.985  0.3284 -0.1632  0.0367
 7233W        W50150   2.388   6.512   0.780 -0.0325 -0.0997  0.1263
 7234W        W50151   4.750   7.028  31.818 -0.0788 -0.1783 -0.0962
 7235W        W50152   4.664   6.498  29.762 -0.1713  0.1564  0.0914
 7236W        W50153   1.033   5.871  31.946 -0.0989  0.2843  0.0505
 7237W        W50154   3.301   7.314  30.060 -0.1499 -0.0690  0.4847
 7238W        W50155   0.250   5.272   0.272  0.0669  0.0106  0.3205
 7239W        W50156   0.806   4.114   1.116  0.4263  0.2681 -0.0164
 7240W        W50157   1.957   3.059   0.910 -0.3394  0.0775 -0.1738
 7241W        W50158   1.361   5.677  31.451  0.0400 -0.0318  0.0900
 7242W        W50159   2.769   4.998  31.729  0.1107 -0.2825  0.1963
 7243W        W50160   2.177   5.867   0.043  0.1760 -0.2579 -0.2752
 7244W        W50161   3.085   6.044   1.329 -0.1008 -0.1373  0.1726
 7245W        W50162   3.981   4.275  31.730  0.4803  0.3276 -0.1393
 7246W        W50163   0.584   5.170   0.627  0.0073  0.0902 -0.0882
 7247W        W50164   2.308   5.867  31.512 -0.2915  0.0824 -0.0452
 7248W        W50165   0.884   4.765   0.691  0.1435 -0.2301 -0.0551
 7249W        W50166   2.334   5.449   0.537  0.1459 -0.2686  0.0091
 7250W        W50167   5.155   8.623   0.018 -0.0634  0.3656  0.0997
 7251W        W50168   2.398   6.179  30.631  0.2271 -0.2996  0.0742
 7252W        W50169   2.390   5.748  30.214 -0.2733  0.3142  0.3395
 7253W        W50170   1.501   6.869   0.499 -0.1772 -0.1905 -0.2165
 7254W        W50171   0.986   6.849   1.031 -0.0916  0.1173  0.0757
 7255W        W50172   1.493   5.082   0.241 -0.1888 -0.2040 -0.0086
 7256W        W50173  34.656   6.716   0.618 -0.2391  0.0923  0.0305
 7257W        W50174  33.774   3.872   0.308  0.0360 -0.3449  0.1582
 7258W        W50175   3.385   7.739  29.834 -0.0053  0.1459 -0.1972
 7259W        W50176   4.996   7.099   0.788 -0.2371  0.1113 -0.1721
 7260W        W50177   5.480   7.141  30.102  0.1879  0.1359  0.1522
 7261W        W50178   1.888  10.575  21.043  0.0594  0.0543  0.0969
 7262W        W50179   0.981   5.685  17.300  0.0232 -0.0450  0.1199
 7263W        W50180   0.775   9.114  19.945  0.0325  0.4080 -0.0288
 7264W        W50181   4.712   9.673  18.949  0.0798  0.2259 -0.2015
 7265W        W50182  33.606   8.426  19.766 -0.0230 -0.0352 -0.1671
 7266W        W50183   3.226   9.210  18.992  0.1167  0.0097 -0.0967
 7267W        W50184  34.470   7.314  19.903 -0.0123  0.2855  0.1001
 7268W        W50185   0.126   9.565  18.954 -0.0058  0.1858  0.0845
 7269W        W50186   3.366  10.174  18.905  0.0046  0.4032 -0.1010
 7270W        W50187   2.216   8.136  17.944  0.1314  0.1254 -0.1459
 7271W        W50188   1.128   8.435  19.729 -0.4558 -0.1921  0.1633
 7272W        W50189   2.518   8.833  21.515  0.2136  0.4965 -0.0017
 7273W        W50190   1.407   7.875  16.778 -0.2728  0.2360 -0.2713
 7274W        W50191  34.095   7.626  17.715  0.4020 -0.0860  0.2724
 7275W        W50192   1.879   7.765  18.138 -0.0774 -0.1112  0.1033
 7276W        W50193   0.379   8.977  18.674 -0.0053 -0.0552 -0.0166
 7277W        W50194   1.083   9.724  20.644  0.1595 -0.1143 -0.1253
 7278W        W50195   0.042   8.513  18.494  0.1184  0.0255  0.1297
 7279W        W50196   1.680   9.137  19.423 -0.0728 -0.0035  0.2510
 7280W        W50197   2.246   7.235  21.068 -0.4211 -0.0848  0.2261
 7281W        W50198   2.565   8.345  17.643 -0.1179  0.0454  0.1185
 7282W        W50199   0.936   8.804  18.813 -0.2432  0.1128  0.0155
 7283W        W50200   1.212   8.272  17.187  0.1543 -0.3355 -0.3675
 7284W        W50201  33.163   7.088  17.633 -0.3355 -0.1350 -0.0124
 7285W        W50202  32.778   7.397  18.952  0.0013  0.2348 -0.0533
 7286W        W50203   1.904   8.702  16.616  0.0136  0.0907  0.1383
 7287W        W50204   3.156   9.069  17.205  0.0835  0.0366  0.1380
 7288W        W50205   2.462   9.228  19.488 -0.2385 -0.2014  0.2593
 7289W        W50206   1.711   8.244  17.158  0.0691 -0.1506  0.0750
 7290W        W50207   3.066   7.413  18.753 -0.1703 -0.2514 -0.1704
 7291W        W50208  32.488  10.711  18.221  0.2700 -0.0602  0.0172
 7292W        W50209  34.321   9.228  19.627 -0.0985 -0.0457 -0.0412
 7293W        W50210  34.325   9.948  18.452  0.1669 -0.0657  0.1585
 7294W        W50211   2.225   8.992  19.041  0.0839  0.3507 -0.1295
 7295W        W50212   3.014   9.412  19.441  0.0482 -0.0136 -0.1101
 7296W        W50213  34.088   9.791  19.499  0.0411  0.0668  0.1958
 7297W        W50214   0.585  11.681  18.881 -0.0894 -0.0662 -0.0239
 7298W        W50215   0.953  10.581  20.197  0.3130  0.0328  0.1764
 7299W        W50216   0.234   9.680  17.963  0.1494 -0.0759  0.0546
 7300W        W50217   1.096   9.234  20.857  0.0699  0.0586  0.0596
 7301W        W50218   2.587   8.318  18.269  0.0399 -0.4025  0.1057
 7302W        W50219  34.012  10.644  18.357  0.1631 -0.0566  0.1066
 7303W        W50220  33.882   8.190  18.937  0.1392 -0.0153 -0.2948
 7304W        W50221   0.725  10.382  19.489  0.1308  0.1878 -0.0808
 7305W        W50222  33.669   8.605  18.469 -0.1648 -0.0148 -0.1186
 7306W        W50223   2.827   6.839  19.443 -0.0249 -0.0870  0.0213
 7307W        W50224  33.260   9.958  17.905  0.1028 -0.1669  0.2654
 7308W        W50225   2.859   8.466  16.694 -0.2198  0.4157  0.3125
 7309W        W50226  33.568   8.442  19.311 -0.0070 -0.0583 -0.2685
 7310W        W50227   3.853  10.345  16.319  0.1291 -0.1426 -0.2437
 7311W        W50228   1.726   6.756  17.580 -0.0340  0.1562 -0.0446
 7312W        W50229   1.456   9.978  18.337  0.1031 -0.0139 -0.3731
 7313W        W50230   0.547   6.291  17.922  0.4330 -0.0899 -0.0503
 7314W        W50231   3.374   8.630  17.483  0.0828  0.0034  0.2382
 7315W        W50232   2.230   9.613  18.348 -0.2091 -0.3400 -0.0086
 7316W        W50233   4.061   8.632  19.822 -0.4214 -0.0913  0.2633
 7317W        W50234   1.555   8.507  19.528 -0.0529 -0.2514 -0.2119
 7318W        W50235   0.197   7.194  18.286 -0.1323  0.2031  0.0150
 7319W        W50236   2.533  10.765  18.273 -0.2150  0.2121  0.0724
 7320W        W50237   3.965   9.482  18.315  0.0168  0.2775 -0.2385
 7321W        W50238   1.900  10.074  17.094  0.0229 -0.1795 -0.1206
 7322W        W50239   0.809   8.651  16.630  0.2495  0.0652  0.0714
 7323W        W50240  33.764   8.855  21.013 -0.1478 -0.1523 -0.2759
 7324W        W50241   0.219   7.949  19.384 -0.2002  0.0999 -0.2506
 7325W        W50242  32.816   5.488  18.024  0.1542 -0.2198 -0.0710
 7326W        W50243   3.375  10.753  20.506  0.0393 -0.2010 -0.2543
 7327W        W50244  34.518   8.678  19.601 -0.0005 -0.0372  0.1884
 7328W        W50245   3.655   7.637  19.222  0.0549 -0.1012 -0.1418
 7329W        W50246   0.508   8.781  17.545  0.0260 -0.1161 -0.1225
 7330W        W50247   3.697  10.319  18.193  0.1510  0.2242  0.1249
 7331W        W50248   2.549   9.822  15.965  0.2606 -0.1819  0.2741
 7332W        W50249   2.259   8.022  18.525 -0.2609 -0.4914 -0.0512
 7333W        W50250   2.506   7.533  18.801 -0.1040  0.0517 -0.0281
 7334W        W50251  33.837   9.995  17.169  0.0034  0.0416 -0.3695
 7335W        W50252  34.653   9.521  17.453  0.1240  0.1768  0.0427
 7336W        W50253   5.326   8.249  19.402  0.1073  0.0003  0.0548
 7337W        W50254   2.530   9.418  16.622  0.2125  0.1765 -0.0769
 7338W        W50255  33.642   9.545  20.374  0.0811  0.0758 -0.0414
 7339W        W50256   1.568   8.388  20.022  0.1270 -0.0479  0.0217
 7340W        W50257   2.652   9.453  19.088  0.2478 -0.0342  0.0795
 7341W        W50258   0.137  10.308  18.739  0.1858  0.1460  0.0048
 7342W        W50259  34.426   6.172  17.461 -0.1505  0.1170  0.2988
 7343W        W50260   0.819   9.826  17.645  0.2628  0.1385 -0.0053
 7344W        W50261   2.051   7.247  21.870  0.1876  0.2698 -0.3469
 7345W        W50262  33.502   9.501  18.908 -0.0518  0.0028  0.1948
 7346W        W50263   3.500   5.759  18.874 -0.3381 -0.2763  0.1045
 7347W        W50264  33.887   7.886  21.034 -0.1878  0.0304  0.0485
 7348W        W50265   2.114   7.954  17.348  0.4142 -0.0643 -0.1128
 7349W        W50266   0.357  10.455  17.556  0.0360 -0.3351  0.1384
 7350W        W50267   3.426  10.779  16.951 -0.0776 -0.1127 -0.0063
 7351W        W50268   2.847   9.140  16.417  0.3284 -0.1053  0.2385
 7352W        W50269   1.285  10.658  17.500  0.0517  0.0910 -0.4649
 7353W        W50270   0.045   8.279  19.800  0.0850 -0.0245  0.1090
 7354W        W50271   1.909   7.425  18.620  0.3902 -0.0421  0.0640
 7355W        W50272   3.508   8.740  20.088  0.0872 -0.0261 -0.1329
 7356W        W50273   1.146   7.256  18.347  0.1897  0.0565  0.0333
 7357W        W50274   3.016   9.621  17.754  0.0725  0.1336 -0.2690
 7358W        W50275   0.780   7.875  17.173 -0.1835  0.1308  0.2919
 7359W        W50276   1.355   8.027  19.016  0.0031  0.1731  0.0673
 7360W        W50277  33.244   7.964  18.168  0.3735 -0.1347  0.0376
 7361W        W50278  33.468   8.401  16.551  0.3001 -0.1065 -0.0413
 7362W        W50279   4.107   5.825  18.953  0.2748 -0.0651 -0.0677
 7363W        W50280   0.038  10.195  18.108  0.0643 -0.1323  0.0939
 7364W        W50281   4.225  12.240  18.670 -0.4156 -0.1055 -0.0321
 7365W        W50282   1.873  12.007  18.805  0.2818 -0.0212 -0.2888
 7366W        W50283   1.813   8.681  20.856  0.2982 -0.2003  0.0510
 7367W        W50284   0.155   7.371  16.886 -0.1172  0.0147 -0.0214
 7368W        W50285  33.852  10.147  18.574  0.0063  0.1305  0.0341
 7369W        W50286   3.313   6.869  18.527 -0.0415  0.2247  0.5464
 7370W        W50287   2.584   8.069  16.476  0.0019  0.0278  0.1150
 7371W        W50288   1.012  10.015  18.070 -0.0435  0.0088 -0.0090
 7372W        W50289   1.499   9.105  18.023 -0.2274  0.0574  0.0297
 7373W        W50290   0.692   9.685  19.335  0.3186 -0.0348 -0.0649
 7374W        W50291   3.104   6.159  17.941 -0.1928 -0.0321  0.3315
 7375W        W50292   1.502   7.830  17.286  0.0429  0.1102  0.1165
 7376W        W50293   1.992   9.466  16.434 -0.0768 -0.0370  0.0405
 7377W        W50294   0.948   7.873  17.687 -0.0288 -0.0053 -0.0813
 7378W        W50295  34.156   9.621  17.227  0.1038  0.1901 -0.0827
 7379W        W50296  33.132  10.535  17.451 -0.3154  0.2102  0.0410
 7380W        W50297  34.458   7.954  20.216 -0.1321 -0.0930 -0.3713
 7381W        W50298  34.179  11.043  17.018 -0.0625 -0.1241 -0.1864
 7382W        W50299   3.957   7.603  18.640  0.0566 -0.7057 -0.0831
 7383W        W50300   0.612   7.851  19.907  0.0688 -0.1900 -0.0767
 7384W        W50301   2.107   7.172  17.705  0.1645  0.0426 -0.1649
 7385W        W50302  33.479   9.637  17.320 -0.1846  0.0290  0.0085
 7386W        W50303   0.496  10.122  17.965 -0.0860  0.2573  0.2538
 7387W        W50304   1.652   6.700  17.112 -0.1710 -0.1674 -0.3514
 7388W        W50305   3.318   9.155  16.646  0.0365  0.0867  0.0520
 7389W        W50306   1.819   8.848  21.373 -0.0001  0.4187  0.3171
 7390W        W50307   2.604   9.878  18.015 -0.1799 -0.2190 -0.1145
 7391W        W50308   2.840   7.845  16.873 -0.0343 -0.0417 -0.1258
 7392W        W50309   2.090   8.271  16.851  0.1330 -0.0704  0.0721
 7393W        W50310   1.213  10.371  19.115 -0.0498 -0.1116  0.1050
 7394W        W50311   1.501   9.663  18.738  0.0270  0.0763 -0.2183
 7395W        W50312   2.053   8.613  18.070 -0.0243  0.1055 -0.0873
 7396W        W50313   1.404   8.595  16.805  0.1034 -0.1076 -0.2792
 7397W        W50314   3.915  10.198  17.642  0.0693  0.2661  0.0851
 7398W        W50315   0.300  10.738  19.445 -0.1237  0.3624 -0.0345
 7399W        W50316   3.123  10.005  21.284  0.1487 -0.1830 -0.1804
 7400W        W50317   1.321  11.334  18.211  0.1875  0.2947  0.1328
 7401W        W50318   0.518   8.870  21.335 -0.2008  0.2153 -0.1268
 7402W        W50319   0.442   8.110  17.553  0.1736 -0.0092 -0.0782
 7403W        W50320   1.666   7.502  21.650 -0.2472 -0.1573  0.2592
 7404W        W50321  33.704  10.899  16.794 -0.0554  0.1223 -0.0514
 7405W        W50322   1.727   7.658  19.019  0.0976  0.0723 -0.2187
 7406W        W50323   1.752   8.181  19.273 -0.1246 -0.0515 -0.2384
 7407W        W50324   2.065   8.277  20.359  0.3012  0.0663  0.1706
 7408W        W50325   2.272   8.400  19.055 -0.0949  0.0673 -0.3645
 7409W        W50326   4.023   9.558  16.818 -0.1445  0.1010  0.1205
 7410W        W50327   2.087   8.527  18.590  0.0566  0.1067  0.4889
 7411W        W50328   1.123   6.769  17.143  0.2579 -0.0190  0.0913
 7412W        W50329   1.552   7.815  18.583 -0.1476  0.0232 -0.0869
 7413W        W50330  34.144   8.407  19.774 -0.0803  0.3246 -0.0898
 7414W        W50331   1.059  12.252  20.914  0.1886 -0.4471  0.0056
 7415W        W50332   2.604   8.414  19.869  0.1873 -0.0611  0.0526
 7416W        W50333   1.546   9.426  17.571 -0.0446  0.1581 -0.1427
 7417W        W50334   2.274   7.685  20.429  0.0213 -0.3324 -0.0529
 7418W        W50335   1.442   7.149  17.018 -0.3715  0.1797  0.1692
 7419W        W50336  34.474   9.986  18.946  0.0490  0.0036  0.1340
 7420W        W50337   0.514  10.949  17.527 -0.2034  0.0646 -0.1270
 7421W        W50338   2.619   6.164  20.003 -0.2160 -0.2240 -0.0187
 7422W        W50339   1.668   8.876  20.049 -0.0444 -0.1629 -0.2512
 7423W        W50340  33.314   9.108  17.615 -0.0564  0.0542 -0.0965
 7424W        W50341   2.509   8.653  20.272  0.0836  0.1493 -0.0975
 7425W        W50342   1.240   9.092  17.036 -0.2412  0.0712 -0.5021
 7426W        W50343   2.738   5.590  18.773 -0.0518  0.1238 -0.0973
 7427W        W50344  34.596  10.112  19.527 -0.0426  0.0149  0.0509
 7428W        W50345   1.080   7.745  18.447  0.2592 -0.2473  0.0186
 7429W        W50346  34.265   9.129  17.440  0.1751 -0.1737  0.3518
 7430W        W50347   3.700   6.216  18.931 -0.1656  0.1059  0.3867
 7431W        W50348   4.270  10.394  16.528  0.0480 -0.2385  0.3455
 7432W        W50349  34.044   7.727  18.217 -0.1068 -0.1115  0.0001
 7433W        W50350   1.543   9.077  16.552 -0.0105 -0.2674  0.0982
 7434W        W50351   0.486   9.306  19.598 -0.3629 -0.2193 -0.2413
 7435W        W50352   1.352   7.352  18.782 -0.1104 -0.0909  0.2469
 7436W        W50353   1.137   7.763  16.311 -0.1291  0.2162 -0.2259
 7437W        W50354   3.423  11.215  19.346  0.0787  0.4186  0.2696
 7438W        W50355   1.948   8.747  20.405  0.0693 -0.0278 -0.0147
 7439W        W50356  34.232   7.940  17.294  0.3199  0.0317 -0.1795
 7440W        W50357   2.691   8.277  19.294  0.0519  0.1053  0.0564
 7441W        W50358  34.664   6.898  18.586  0.4174 -0.0556  0.1085
 7442W        W50359   0.450   9.328  17.642 -0.2197 -0.2611  0.1072
 7443W        W50360   1.794   9.240  18.942  0.2006  0.0238 -0.0333
 7444W        W50361  34.391   8.161  18.881 -0.3154  0.0600 -0.5133
 7445W        W50362  32.981   8.705  17.533  0.0417  0.1878 -0.0275
 7446W        W50363  34.607   8.585  19.051  0.2255 -0.2044 -0.1269
 7447W        W50364   2.080   8.620  19.943  0.1451  0.0718 -0.1375
 7448W        W50365   1.081   7.603  19.064  0.6064 -0.3210  0.3991
 7449W        W50366   2.246   6.601  18.093  0.1858  0.2137  0.1663
 7450W        W50367   2.188   6.505  16.901 -0.0450  0.0793  0.0960
 7451W        W50368   4.955  10.697  19.454 -0.2101  0.0967  0.2551
 7452W        W50369   1.642   7.534  19.981 -0.1940  0.1784  0.0246
 7453W        W50370   2.148  10.062  20.982 -0.2739 -0.0883  0.0308
 7454W        W50371  34.555   8.147  22.755  0.1374  0.0245  0.0668
 7455W        W50372   4.347  10.566  17.750  0.3373  0.0740 -0.1131
 7456W        W50373   3.394   7.841  18.797 -0.2279 -0.2390  0.0529
 7457W        W50374   0.933   9.131  18.023 -0.0555 -0.3549  0.1593
 7458W        W50375   0.248   8.483  19.412 -0.0354 -0.2007 -0.1283
 7459W        W50376   2.150   9.166  16.831  0.0738 -0.2188 -0.1841
 7460W        W50377   0.176   7.457  20.237  0.0098 -0.1289 -0.1497
 7461W        W50378  33.732   8.724  18.898 -0.1321  0.1225  0.1083
 7462W        W50379  34.615   9.006  17.804 -0.3229  0.1320 -0.2565
 7463W        W50380   1.540   9.923  20.680  0.0022  0.0132  0.3037
 7464W        W50381   2.674   7.145  19.116  0.0710 -0.0344  0.3955
 7465W        W50382   2.039   9.729  17.392 -0.0831 -0.2887 -0.2779
 7466W        W50383   0.110   6.505  19.765  0.0984 -0.0967 -0.1367
 7467W        W50384   2.906   7.517  19.720 -0.1529  0.2703 -0.0572
 7468W        W50385   1.469  10.849  18.097  0.0653  0.2666  0.1613
 7469W        W50386   3.045   8.704  19.673  0.0809  0.0421  0.0241
 7470W        W50387  34.170   8.634  18.647  0.3091  0.0320 -0.1786
 7471W        W50388   3.942  10.079  16.789  0.0234  0.0583  0.1652
 7472W        W50389   2.627   9.884  21.076 -0.2167  0.2245  0.3514
 7473W        W50390   2.204  12.264  19.103 -0.0350 -0.0494 -0.3266
 7474W        W50391   0.061   8.478  20.290 -0.1014 -0.0726  0.0778
 7475W        W50392  34.621   9.046  20.196  0.2084 -0.1262  0.2085
 7476W        W50393   2.728   7.487  18.012  0.2313 -0.1402  0.1310
 7477W        W50394   1.138   9.538  19.841  0.1603  0.6077 -0.0387
 7478W        W50395   1.792   9.369  18.463  0.1158 -0.1366  0.0585
 7479W        W50396  34.554  10.401  17.663 -0.2872 -0.0809 -0.0086
 7480W        W50397   2.791   9.216  17.521  0.0249  0.0846 -0.1280
 7481W        W50398   1.657   7.027  19.982 -0.0947 -0.1866  0.0644
 7482W        W50399   1.626   8.633  17.889  0.1132  0.0620 -0.0832
 7483W        W50400   1.679   9.891  17.855 -0.1895  0.0163 -0.0250
 7484W        W50401  33.988  10.583  17.169 -0.3455  0.1235  0.1982
 7485W        W50402   0.976   7.855  20.979  0.2144 -0.2187 -0.2268
 7486W        W50403   1.312   9.075  18.521 -0.0346 -0.0357  0.1693
 7487W        W50404   0.795   7.414  18.661  0.1593  0.2561  0.0499
 7488W        W50405   4.621   9.409  20.268 -0.0814  0.1682 -0.0696
 7489W        W50406   4.404   7.816  18.549 -0.0869  0.1862 -0.0997
 7490W        W50407   2.493   8.820  18.181 -0.0449 -0.1929 -0.0310
 7491W        W50408  34.670   8.292  20.848  0.3073 -0.0281 -0.1418
 7492W        W50409   2.583   9.850  18.611 -0.0760 -0.1639  0.3516
 7493W        W50410   4.134   8.357  16.362  0.1255 -0.0494 -0.0473
 7494W        W50411   4.676   8.742  19.838 -0.1676 -0.0990 -0.3274
 7495W        W50412   1.202   8.681  18.194  0.2437  0.0188  0.0070
 7496W        W50413   0.699   9.585  18.153 -0.1737  0.0699  0.2689
 7497W        W50414   0.765   8.377  17.760 -0.2339 -0.0328  0.1826
 7498W        W50415   1.377   9.581  19.409  0.0686 -0.3026 -0.1782
 7499W        W50416   0.854   6.029  18.197  0.0951 -0.0805  0.0102
 7500W        W50417   4.271   8.064  21.751  0.4456 -0.0620  0.3108
 7501W        W50418  34.218  10.254  18.029  0.3524  0.2591 -0.0500
 7502W        W50419   0.652   9.110  17.154 -0.0317 -0.0534 -0.0188
 7503W        W50420   2.208   9.241  17.322  0.0467  0.2581 -0.1678
 7504W        W50421   1.542   7.433  18.174 -0.1311 -0.0613 -0.1535
 7505W        W50422   1.597  11.257  19.190  0.0845  0.1489  0.2389
 7506W        W50423   1.519   7.411  16.580 -0.2354  0.0014  0.0904
 7507W        W50424  33.980   8.788  17.745 -0.1074  0.3660 -0.1005
 7508W        W50425   2.070   9.148  18.069  0.0307 -0.2291 -0.1283
 7509W        W50426   2.493  10.367  19.271  0.0507  0.1445 -0.1745
 7510W        W50427   3.576   6.332  17.898  0.1001  0.1902  0.1475
 7511W        W50428   3.718   7.107  19.239  0.2589  0.0180 -0.1248
 7512W        W50429  32.114   8.847  17.829 -0.1736 -0.0490  0.0290
 7513W        W50430   2.688   5.943  19.182 -0.0567  0.0479  0.1816
 7514W        W50431   2.801   9.552  19.835 -0.1680  0.2187 -0.0128
 7515W        W50432  34.562   6.977  19.483  0.2679 -0.2504 -0.3069
 7516W        W50433   2.929   8.689  17.320  0.0771  0.1998 -0.3457
 7517W        W50434   2.798   7.733  20.596  0.1705  0.1282 -0.2714
 7518W        W50435   1.794   8.658  18.989 -0.2739  0.1756  0.0303
 7519W        W50436   2.180   6.624  18.554  0.0384 -0.1044 -0.2007
 7520W        W50437   4.236   7.025  19.587  0.1038 -0.0849 -0.1128
 7521W        W50438   3.305   9.783  19.244 -0.0037 -0.3842 -0.1683
 7522W        W50439  34.027   9.408  18.457 -0.0424 -0.1454 -0.0635
 7523W        W50440   3.590  10.676  19.522 -0.0091 -0.2086 -0.1347
 7524W        W50441   3.029   9.041  18.209  0.1016 -0.1341  0.1606
 7525W        W50442  33.209   9.328  18.483 -0.1056  0.0879 -0.0581
 7526W        W50443  32.970   7.837  19.328  0.0658  0.2679 -0.3831
 7527W        W50444   3.613   8.665  21.173  0.1781  0.0864  0.0511
 7528W        W50445   3.202   8.853  18.664  0.0744  0.0874 -0.1203
 7529W        W50446   1.502   6.178  20.403  0.1654 -0.1578 -0.1118
 7530W        W50447  34.203  11.464  18.387 -0.0508 -0.1656 -0.0249
 7531W        W50448  33.341  10.275  19.334  0.2368  0.0875  0.0804
 7532W        W50449   0.447  10.774  18.939 -0.0898  0.2752  0.0430
 7533W        W50450  34.586  12.174  17.637  0.2220  0.4001  0.2435
 7534W        W50451   2.181   9.710  16.865 -0.1574 -0.1026 -0.1029
 7535W        W50452   2.242   9.042  18.586 -0.2026  0.2217 -0.1977
 7536W        W50453   2.000   8.772  19.427  0.0547 -0.0062  0.1335
 7537W        W50454   1.600   6.877  18.078  0.1211 -0.1422  0.2849
 7538W        W50455   2.044   9.171  19.857 -0.0462 -0.1749  0.2025
 7539W        W50456  33.674   9.480  16.903  0.2242  0.2185  0.2710
 7540W        W50457   0.949  10.546  18.240 -0.2065  0.1784  0.2397
 7541W        W50458  34.547   9.527  18.277  0.0094 -0.1251  0.1035
 7542W        W50459   3.465   9.454  19.606 -0.1536 -0.0671  0.0179
 7543W        W50460   3.772   8.809  17.766  0.2154  0.0502  0.0880
 7544W        W50461   3.609   8.293  17.733 -0.1249 -0.0072 -0.3830
 7545W        W50462   3.902   8.144  18.661 -0.0010 -0.1014 -0.1898
 7546W        W50463   1.857   9.510  20.318  0.2048  0.1338 -0.2218
 7547W        W50464   1.201   8.225  18.413  0.2203 -0.1146  0.1822
 7548W        W50465   1.232   6.401  16.403 -0.2660 -0.1372 -0.2480
 7549W        W50466   2.080   9.470  19.317  0.2005 -0.4400 -0.0003
 7550W        W50467   2.577   7.032  21.864  0.3148 -0.1293  0.1544
 7551W        W50468  33.998  10.782  19.686  0.0761  0.1058 -0.1460
 7552W        W50469   3.419   9.419  18.517  0.2304  0.3948 -0.0772
 7553W        W50470  33.557   5.952  18.343  0.3184 -0.1353  0.0382
 7554W        W50471   0.577   7.761  19.068 -0.1783  0.1311  0.0812
 7555W        W50472   3.782   8.360  20.128  0.1408 -0.1620 -0.0526
 7556W        W50473   1.033   9.272  17.482  0.2707  0.1662  0.0713
 7557W        W50474   1.857   9.080  17.668  0.1760  0.0436 -0.1666
 7558W        W50475  34.224   8.930  19.198 -0.0643  0.1022 -0.0572
 7559W        W50476   1.122   9.865  19.097  0.0562  0.1362  0.0435
 7560W        W50477   1.133   9.397  18.911  0.0483  0.0538 -0.0470
 7561W        W50478   1.130   7.608  20.459  0.0260  0.0278  0.2603
 7562W        W50479   5.627   8.988  19.019  0.0355  0.4831 -0.0048
 7563W        W50480   0.031   9.043  19.269 -0.3214  0.0194 -0.1151
 7564W        W50481   3.240   7.069  19.116 -0.2424  0.3625 -0.0968
 7565W        W50482   0.254  10.282  19.207 -0.0671  0.4849  0.2489
 7566W        W50483   4.057   8.789  17.334 -0.2172 -0.2025  0.1627
 7567W        W50484   2.106   8.394  22.199 -0.3020  0.0681 -0.0081
 7568W        W50485   1.075   7.988  19.433  0.1941  0.2912  0.0506
 7569W        W50486   2.495   9.705  17.547 -0.0069 -0.0783  0.1734
 7570W        W50487   4.722  10.497  18.976 -0.1495  0.0273 -0.0128
 7571W        W50488   0.545   7.591  17.635  0.0183  0.1403 -0.1666
 7572W        W50489   2.543   8.737  19.497  0.0454 -0.1731 -0.0393
 7573W        W50490   1.925   6.790  18.985 -0.2531  0.4523 -0.1630
 7574W        W50491   2.870   7.383  17.498 -0.1139 -0.3256  0.0396
 7575W        W50492  34.556   9.000  18.744  0.0993  0.0446  0.0072
 7576W        W50493  34.019   9.106  18.805 -0.0326 -0.0538 -0.3798
 7577W        W50494   3.042   8.463  20.198  0.0298 -0.2104  0.0746
 7578W        W50495   0.879   5.218  18.738 -0.2166 -0.0725 -0.0202
 7579W        W50496   3.138   9.649  16.767 -0.1050  0.0288  0.2707
 7580W        W50497   2.272   6.790  19.493 -0.2014  0.0153 -0.0871
 7581W        W50498  33.236  11.047  16.843  0.4286 -0.3228  0.2332
 7582W        W50499   3.107   9.570  17.280  0.0562 -0.3520 -0.4572
 7583W        W50500   1.259  11.037  18.853  0.0668 -0.1250 -0.0758
 7584W        W50501  33.862   8.049  19.473  0.3314 -0.2852  0.1751
 7585W        W50502   2.949   9.588  18.315 -0.2405  0.1023  0.1799
 7586W        W50503   4.032  11.591  18.232 -0.0622 -0.0068  0.2388
 7587W        W50504   1.857   7.427  17.195 -0.2521  0.4031 -0.0989
 7588W        W50505   2.305   7.567  18.227 -0.0340  0.2790 -0.0985
 7589W        W50506  31.361  10.015  18.017 -0.0382 -0.3299 -0.0488
 7590W        W50507   5.698   9.481  19.344  0.1219 -0.3241 -0.1061
 7591W        W50508   3.409   7.716  19.725  0.1703 -0.0110  0.2810
 7592W        W50509   0.624   9.816  18.827 -0.2943 -0.0649 -0.0766
 7593W        W50510   3.062   8.032  19.180  0.1422 -0.2204 -0.2860
 7594W        W50511   2.753   9.181  18.645  0.2055 -0.0836  0.1390
 7595W        W50512   0.174   9.895  19.953  0.3151 -0.2037  0.1002
 7596W        W50513   1.058   8.771  17.633  0.0027  0.3485  0.1429
 7597W        W50514   2.895   8.943  19.099  0.3095  0.4368 -0.1459
 7598W        W50515  33.057   8.377  18.391 -0.0879  0.3025 -0.0020
 7599W        W50516   1.663  10.297  17.494 -0.3637  0.0361 -0.2460
 7600W        W50517   2.311   8.741  20.778  0.2074 -0.2563  0.1836
 7601W        W50518   1.793   8.886  18.371  0.3375 -0.0281  0.0428
 7602W        W50519   1.759  11.115  18.420 -0.1829 -0.0512 -0.0543
 7603W        W50520   0.668   7.108  19.050 -0.0078 -0.0285  0.1288
 7604W        W50521   3.164   6.436  17.503  0.0176 -0.0293  0.2340
 7605W        W50522   1.758   9.091  17.149 -0.3098  0.0886  0.2170
 7606W        W50523   1.869   9.320  21.464  0.1112  0.0937  0.3014
 7607W        W50524  34.500   8.762  17.268 -0.0481 -0.1799 -0.1696
 7608W        W50525   0.552   8.114  16.229  0.2081  0.1572  0.2557
 7609W        W50526   0.087   8.523  17.619  0.2893 -0.1978  0.0938
 7610W        W50527   2.164   5.901  22.568  0.0207 -0.7118 -0.1168
 7611W        W50528  34.127   7.309  19.382 -0.3500 -0.0806 -0.1631
 7612W        W50529  33.057  10.203  18.583  0.0113  0.0280 -0.0916
 7613W        W50530  34.530   5.315  16.882 -0.2601 -0.2078 -0.0534
 7614W        W50531   1.052   9.684  18.482  0.0344 -0.1819  0.1807
 7615W        W50532   1.857   6.826  20.383 -0.1498 -0.3207 -0.1105
 7616W        W50533   0.328   6.607  18.238  0.0090  0.1604 -0.1544
 7617W        W50534   1.061   9.666  17.075 -0.1900 -0.0463 -0.1061
 7618W        W50535   3.217   9.052  17.743  0.2187 -0.2522 -0.2259
 7619W        W50536   0.073   5.796  19.037 -0.4019 -0.1660 -0.1628
 7620W        W50537   2.527   7.598  19.366  0.1959  0.3774  0.5676
 7621W        W50538  33.299   8.310  17.011  0.1162 -0.0665 -0.2803
 7622W        W50539   1.824   8.004  21.270 -0.0728 -0.1280 -0.1618
 7623W        W50540   1.309   7.653  22.543  0.3244 -0.0845 -0.0100
 7624W        W50541   0.169   9.872  18.422 -0.0489  0.1455  0.0103
 7625W        W50542   1.868   8.130  18.812 -0.0222 -0.0520  0.0480
 7626W        W50543   1.458   8.591  18.611 -0.0342 -0.3062 -0.1351
 7627W        W50544   4.833  10.429  17.818  0.1619 -0.2725 -0.0436
 7628W        W50545   0.760   7.501  19.531  0.1418 -0.2857  0.0645
 7629W        W50546   1.233  10.089  21.874  0.3017  0.1964 -0.1062
 7630W        W50547   2.233   8.269  19.540 -0.0960 -0.3287 -0.0810
 7631W        W50548   2.627  10.500  17.029  0.1360 -0.1040  0.1803
 7632W        W50549   1.746   9.474  22.296 -0.0811 -0.1367  0.1353
 7633W        W50550   3.745  11.134  17.044  0.0736 -0.0015  0.2485
 7634W        W50551   5.493   6.800  20.040 -0.0668 -0.0573 -0.2640
 7635W        W50552   2.594   9.322  17.979  0.1869 -0.1549  0.0380
 7636W        W50553  34.099   7.053  20.742  0.0915 -0.0060 -0.1180
 7637W        W50554  34.335   9.474  19.175  0.0501  0.2646 -0.0814
 7638W        W50555   2.756   7.976  17.930  0.1029  0.1510  0.0863
 7639W        W50556  34.613   7.804  18.282  0.1790  0.0903 -0.1487
 7640W        W50557   2.000   8.685  17.135 -0.1135  0.1443 -0.3450
 7641W        W50558   0.457  10.713  18.027  0.0239 -0.0734  0.1028
 7642W        W50559   2.673   8.110  20.317 -0.4313 -0.0676 -0.1308
 7643W        W50560   2.085   8.488  17.607 -0.0909  0.2418 -0.1679
 7644W        W50561   2.313   7.816  22.405  0.0862 -0.0939  0.0846
 7645W        W50562   2.890   8.558  20.755  0.0002  0.1532 -0.1535
 7646W        W50563   1.351   8.794  20.813 -0.1328 -0.3009 -0.2615
 7647W        W50564   1.296   8.335  17.710  0.1470 -0.3099  0.1205
 7648W        W50565   3.172  10.071  17.978  0.1862 -0.0377 -0.1485
 7649W        W50566   1.765   8.228  18.296 -0.3266 -0.1558  0.2931
 7650W        W50567   3.902   9.672  21.200 -0.0719 -0.0321 -0.0923
 7651W        W50568   0.693  10.055  18.404  0.0237  0.2274 -0.1845
 7652W        W50569   2.543   6.991  17.431  0.4347 -0.0972  0.0055
 7653W        W50570  34.168   7.781  19.203 -0.0664 -0.0805 -0.0532
 7654W        W50571   1.750   9.539  16.955  0.0680  0.2541 -0.0496
 7655W        W50572   0.676   8.267  19.327 -0.1213 -0.1077 -0.1626
 7656W        W50573   2.776   7.839  18.431  0.0836 -0.2368  0.3883
 7657W        W50574   0.220   7.410  19.264 -0.0809 -0.1264 -0.0676
 7658W        W50575   1.430   7.862  15.895  0.2535 -0.4299 -0.1409
 7659W        W50576   0.640  10.067  20.268  0.0465  0.2250 -0.1765
 7660W        W50577   1.304   9.223  20.359  0.1123 -0.0665 -0.2752
 7661W        W50578  34.042   9.095  24.420 -0.0100  0.0932 -0.0751
 7662W        W50579  34.434   8.538  23.087 -0.2006  0.2611  0.2017
 7663W        W50580   3.304   6.973  20.710  0.2490  0.0107  0.2317
 7664W        W50581   2.634   9.055  20.012 -0.0234 -0.1236 -0.1844
 7665W        W50582   1.079   6.197  23.936 -0.0881  0.2958 -0.2028
 7666W        W50583   3.435   8.980  19.364  0.0718  0.0890  0.0329
 7667W        W50584   1.171   8.139  25.244 -0.3620 -0.2694  0.0663
 7668W        W50585   2.649  10.216  22.531 -0.1758  0.1473  0.0814
 7669W        W50586   4.604  11.164  24.010  0.1797  0.1462 -0.3311
 7670W        W50587   2.890   8.968  20.461 -0.0909 -0.1689  0.1830
 7671W        W50588   0.021   6.721  23.340  0.1938 -0.1311 -0.3830
 7672W        W50589   3.628   9.504  22.462  0.1503  0.1928 -0.0860
 7673W        W50590   0.617   9.373  21.648  0.0393 -0.2047  0.1780
 7674W        W50591  34.185   7.157  22.599 -0.0255 -0.0417 -0.3156
 7675W        W50592   3.625   9.607  24.758  0.1859  0.0910  0.2170
 7676W        W50593   2.321   9.551  20.068 -0.0416 -0.1661 -0.1111
 7677W        W50594   0.058   8.204  23.386  0.4460  0.0167 -0.1278
 7678W        W50595   0.004   9.690  23.696 -0.2850  0.0930 -0.0697
 7679W        W50596   3.345   9.416  23.573  0.2917 -0.1015  0.1459
 7680W        W50597   1.705   7.524  23.443  0.0433 -0.0103  0.2303
 7681W        W50598   2.428   8.279  26.192  0.1241 -0.0442  0.1756
 7682W        W50599   0.808  11.102  21.527 -0.1847  0.1303  0.0196
 7683W        W50600   0.411   8.844  20.245  0.1384  0.2548 -0.0646
 7684W        W50601   2.405   9.282  23.780  0.0072 -0.0987  0.1322
 7685W        W50602   2.005  10.220  24.387  0.0728  0.2508  0.3568
 7686W        W50603   3.043   7.497  22.394 -0.1186  0.1969  0.0259
 7687W        W50604   1.396   9.038  22.173  0.3412  0.1270  0.1309
 7688W        W50605  34.333   8.318  23.712 -0.1277  0.1001 -0.3195
 7689W        W50606   3.908  10.161  22.431  0.1107 -0.3236 -0.1107
 7690W        W50607   2.934   8.631  22.552  0.1736  0.0882 -0.1743
 7691W        W50608   0.195   9.627  23.092  0.0797 -0.0872 -0.1040
 7692W        W50609   0.255  13.069  21.899 -0.0138 -0.4038 -0.1352
 7693W        W50610   1.109  10.640  21.859  0.4378 -0.1446  0.1747
 7694W        W50611   4.600  10.163  21.655  0.2100 -0.0670  0.0509
 7695W        W50612   4.023  11.287  24.921  0.0782 -0.3298  0.0870
 7696W        W50613   2.879  11.060  22.145 -0.0133 -0.3019 -0.1025
 7697W        W50614  34.332   9.535  20.000  0.1647 -0.0138  0.1390
 7698W        W50615   3.197  11.875  25.656 -0.0556 -0.0022  0.1998
 7699W        W50616   1.448  10.489  25.035  0.2814  0.1254 -0.1281
 7700W        W50617   0.764   8.475  22.566 -0.0700 -0.3463  0.0966
 7701W        W50618  34.215   7.482  22.247 -0.5225  0.2663  0.4186
 7702W        W50619   1.929  10.619  20.103 -0.1488  0.1773  0.0646
 7703W        W50620   3.854   9.818  19.754 -0.3061 -0.2780  0.1542
 7704W        W50621   0.949   8.803  24.975  0.2717 -0.1817 -0.0807
 7705W        W50622   1.127  10.214  20.504  0.0619  0.2458 -0.1306
 7706W        W50623   3.875   8.075  25.106  0.4666  0.3773 -0.1628
 7707W        W50624   1.997   9.576  21.045  0.0479  0.1246  0.2295
 7708W        W50625   3.714   9.033  19.770 -0.1965 -0.0063 -0.0783
 7709W        W50626  34.576  10.277  21.101  0.3164  0.0930 -0.0966
 7710W        W50627   5.429  10.065  19.920 -0.0452  0.1933 -0.1649
 7711W        W50628  34.641   8.989  22.369 -0.0177  0.0089  0.0797
 7712W        W50629   2.892  10.754  21.744 -0.1678 -0.0086 -0.3623
 7713W        W50630   1.867   8.631  23.350 -0.2113 -0.0358  0.1804
 7714W        W50631   2.062   8.668  24.006  0.0478 -0.1815 -0.1327
 7715W        W50632   0.026  10.541  21.817  0.0204  0.2306 -0.2519
 7716W        W50633   1.976   8.457  22.681  0.0348  0.0236 -0.1932
 7717W        W50634   0.205  10.696  23.508  0.2826  0.1681 -0.0811
 7718W        W50635   1.570   9.347  19.872  0.0109  0.1772 -0.3417
 7719W        W50636   3.793   9.545  18.799 -0.5880 -0.0719 -0.0038
 7720W        W50637   3.945  11.596  21.205  0.0074  0.3814 -0.0223
 7721W        W50638   3.577   9.080  20.438 -0.1081  0.5257 -0.3084
 7722W        W50639  34.654   8.586  22.016  0.2903  0.1571 -0.1435
 7723W        W50640   0.212   9.191  23.845  0.0919 -0.1439  0.1613
 7724W        W50641  34.059   9.015  23.712  0.1641  0.1982 -0.0293
 7725W        W50642   1.469   7.970  20.317 -0.1265 -0.4672  0.0224
 7726W        W50643   4.046  10.846  24.560 -0.1685  0.0155 -0.3545
 7727W        W50644   0.955   9.673  23.462  0.0916 -0.3388 -0.2182
 7728W        W50645   5.813   8.168  20.030 -0.0267  0.2692 -0.0670
 7729W        W50646  34.362  10.435  20.517  0.1150  0.1231 -0.0463
 7730W        W50647   5.661  10.189  22.559 -0.1764 -0.0963  0.1109
 7731W        W50648   4.469  10.073  20.918  0.4458  0.1804  0.1444
 7732W        W50649   1.683   7.062  23.724  0.0880  0.0646  0.0500
 7733W        W50650   1.668   8.349  23.829 -0.0013  0.0993 -0.1213
 7734W        W50651   0.685  10.337  18.960  0.2997  0.1432 -0.5356
 7735W        W50652   1.522   8.491  20.462 -0.0542  0.0477  0.2210
 7736W        W50653   3.060  11.654  22.027 -0.1026 -0.1972  0.0059
 7737W        W50654   1.285   8.918  19.711 -0.0940 -0.0810 -0.0744
 7738W        W50655  33.884   8.698  22.374  0.0788  0.2836  0.0171
 7739W        W50656   2.517  11.920  24.850 -0.2776 -0.0938 -0.1616
 7740W        W50657   2.459  11.020  21.891  0.0799  0.1394 -0.1968
 7741W        W50658  33.855   9.359  19.323 -0.0886  0.3178  0.1218
 7742W        W50659  34.437   9.550  22.865 -0.0439  0.4572  0.1442
 7743W        W50660  33.517   9.482  21.177 -0.2093  0.1130  0.1650
 7744W        W50661   1.213   6.876  23.630  0.1985  0.3164  0.0887
 7745W        W50662   0.904  10.648  22.907  0.1141 -0.0188  0.0233
 7746W        W50663   3.306   9.605  22.891 -0.2119  0.0063  0.0618
 7747W        W50664   0.599   6.116  24.124 -0.3660 -0.0384 -0.1377
 7748W        W50665   2.747   7.804  22.779  0.0621 -0.1178 -0.4631
 7749W        W50666   0.599   9.209  20.945  0.1529 -0.0586 -0.0897
 7750W        W50667   3.673  13.119  20.774 -0.1655 -0.1783  0.1541
 7751W        W50668   5.243   6.416  20.360  0.0902  0.1326  0.1814
 7752W        W50669   3.525   9.884  23.500 -0.1027 -0.0648 -0.2306
 7753W        W50670   0.752   6.946  22.305 -0.4882 -0.2105 -0.0146
 7754W        W50671   0.945   7.323  21.116 -0.1436  0.0565  0.0435
 7755W        W50672   0.137   8.040  23.960 -0.1183  0.4380  0.1976
 7756W        W50673   2.804   9.297  22.913 -0.1590 -0.2166  0.0654
 7757W        W50674   4.094   9.347  24.770  0.0886  0.2255 -0.1591
 7758W        W50675  34.268   9.346  21.497  0.2090 -0.0012  0.1415
 7759W        W50676   3.958   8.789  20.771  0.1516  0.0881  0.0627
 7760W        W50677   1.421  10.084  23.116 -0.0693 -0.0221 -0.3629
 7761W        W50678   0.433   8.752  20.806 -0.2839 -0.0457  0.4016
 7762W        W50679   3.603   8.187  24.678  0.4738 -0.2788  0.0216
 7763W        W50680   3.552  11.418  20.835  0.0664  0.0278 -0.2028
 7764W        W50681   4.201  13.899  22.734  0.0722 -0.1759 -0.3403
 7765W        W50682   4.014  12.993  21.081 -0.3299  0.0630  0.2214
 7766W        W50683   2.611   7.945  24.855  0.0882 -0.0998 -0.0439
 7767W        W50684   0.608   7.579  20.634 -0.3050  0.1077  0.3216
 7768W        W50685  33.665   9.123  22.774 -0.1557 -0.0433  0.0194
 7769W        W50686  34.477   9.705  21.263 -0.0494 -0.1406  0.2166
 7770W        W50687   3.417   6.861  20.089  0.2850  0.2450 -0.0293
 7771W        W50688   3.687  13.438  21.997 -0.2781  0.0456  0.1838
 7772W        W50689   2.565   9.624  22.568  0.3150 -0.0982  0.1323
 7773W        W50690  32.695   8.496  23.764 -0.1457 -0.2668 -0.0218
 7774W        W50691   2.327   9.326  24.800  0.4461 -0.1648  0.1166
 7775W        W50692   2.691   9.201  23.395 -0.1219  0.0010  0.0495
 7776W        W50693   2.124   7.185  20.602  0.1716  0.0847  0.0271
 7777W        W50694   0.778   9.097  20.524  0.0277  0.0585  0.3514
 7778W        W50695   4.776   8.948  20.304  0.3886  0.0006  0.0387
 7779W        W50696  33.136   9.032  22.281  0.1783  0.0987  0.1496
 7780W        W50697  33.023   8.015  21.067  0.1681 -0.1269 -0.2862
 7781W        W50698   3.143  10.915  23.232  0.1680 -0.0164 -0.0539
 7782W        W50699   1.997   9.648  23.644 -0.1631 -0.2676 -0.0123
 7783W        W50700  34.228  10.019  23.737 -0.0932 -0.3057 -0.1018
 7784W        W50701   0.369   8.742  24.794  0.0146  0.1689 -0.0472
 7785W        W50702   0.266   7.981  20.298  0.3449 -0.0450  0.0769
 7786W        W50703   0.761   8.806  23.564 -0.1119 -0.0943 -0.2102
 7787W        W50704   2.052   8.060  22.926 -0.2640 -0.1906  0.0608
 7788W        W50705   5.226   7.035  18.719  0.2274 -0.2873 -0.1538
 7789W        W50706   0.418   9.496  25.349 -0.2505  0.1052 -0.0628
 7790W        W50707   5.126   9.680  20.132 -0.0440 -0.1403  0.0869
 7791W        W50708   4.124   9.206  21.054  0.1070  0.3656 -0.2212
 7792W        W50709   3.588   9.958  20.916 -0.2328  0.0802  0.2392
 7793W        W50710  34.420   9.178  24.043  0.1332 -0.1605 -0.0973
 7794W        W50711   1.508   9.883  22.601 -0.0294  0.3520  0.1817
 7795W        W50712   1.708  10.352  23.486 -0.1468  0.1178  0.1714
 7796W        W50713   1.887   9.262  23.275  0.0120 -0.1406  0.1067
 7797W        W50714   4.011  10.617  22.253 -0.0364  0.0903 -0.1427
 7798W        W50715   0.732   9.475  23.043  0.0514  0.1012 -0.1275
 7799W        W50716   3.695  10.113  23.094  0.4315  0.0787 -0.0733
 7800W        W50717   4.273   9.787  23.826 -0.0661 -0.2007 -0.2575
 7801W        W50718   0.759   8.918  24.459  0.1279 -0.1163  0.0910
 7802W        W50719   0.535   7.761  21.271 -0.1178 -0.0451 -0.0578
 7803W        W50720   2.121   7.364  23.726 -0.0681 -0.0655 -0.1122
 7804W        W50721   0.387  10.769  20.146  0.2787  0.2352 -0.0906
 7805W        W50722   2.649   7.543  23.353 -0.0605  0.1035  0.0855
 7806W        W50723   2.691   9.425  21.984 -0.1754 -0.0033 -0.4510
 7807W        W50724   1.374   8.214  24.743  0.0278  0.0097 -0.1686
 7808W        W50725   3.256   8.889  24.273  0.0028  0.1131 -0.1730
 7809W        W50726   1.947   9.178  21.936 -0.3101 -0.0081  0.1021
 7810W        W50727   2.403   9.923  22.957  0.1717  0.1882  0.1090
 7811W        W50728  33.402  10.713  19.532  0.1267 -0.0474 -0.0697
 7812W        W50729   2.152  10.985  23.779 -0.1438  0.1671  0.1565
 7813W        W50730   2.295   9.492  23.114  0.1659 -0.2002 -0.3293
 7814W        W50731  34.611  10.646  22.326  0.0015 -0.0873 -0.0091
 7815W        W50732   2.960  12.444  22.645  0.5693  0.2030 -0.0521
 7816W        W50733   1.932   9.704  21.826  0.0360  0.1304 -0.2266
 7817W        W50734   0.668   9.878  24.465  0.2512 -0.0101 -0.0541
 7818W        W50735   3.608   9.227  21.022 -0.0484  0.0071  0.2514
 7819W        W50736   0.019  11.017  19.862 -0.0634 -0.6059 -0.1391
 7820W        W50737   2.056  10.092  19.464  0.0417  0.2745 -0.1499
 7821W        W50738   1.195   7.068  23.120 -0.0234  0.0135 -0.1471
 7822W        W50739   0.591   8.913  24.022 -0.0828 -0.1795 -0.0775
 7823W        W50740   1.490  11.543  19.602 -0.1121 -0.3388  0.0293
 7824W        W50741   2.633   9.669  24.466 -0.2648  0.3896 -0.2576
 7825W        W50742   0.448  10.372  21.179 -0.2858  0.0273 -0.0169
 7826W        W50743   4.779  10.040  23.648  0.0486  0.1920  0.0866
 7827W        W50744  33.538  11.501  22.132  0.0795  0.0406  0.1684
 7828W        W50745   1.072   7.980  19.949 -0.1207  0.1266 -0.4773
 7829W        W50746   0.412   9.116  23.276 -0.1774  0.2333 -0.1196
 7830W        W50747   2.811   6.781  20.846 -0.1675 -0.0355 -0.2271
 7831W        W50748   4.628   9.586  19.807 -0.3223  0.1071 -0.2970
 7832W        W50749   1.579   6.488  23.816  0.0579 -0.1824 -0.1199
 7833W        W50750   1.723   7.714  22.866 -0.2566  0.0865 -0.2362
 7834W        W50751   0.960   9.239  21.963  0.0011  0.1666  0.3402
 7835W        W50752   3.865  10.149  23.833 -0.1575  0.0080  0.2021
 7836W        W50753   2.553   7.189  19.724 -0.0689  0.0885  0.3078
 7837W        W50754   3.293   9.662  21.751 -0.3652  0.1962  0.0880
 7838W        W50755   1.768   9.841  26.384 -0.1075 -0.0452 -0.0514
 7839W        W50756   3.135   9.994  20.243  0.0993  0.1691 -0.3156
 7840W        W50757   3.003  10.010  23.625  0.0056 -0.0980  0.1055
 7841W        W50758   0.662   8.117  24.086  0.2925 -0.0344  0.3035
 7842W        W50759  33.116  11.369  20.605  0.2015 -0.2064  0.2840
 7843W        W50760   3.075   9.783  22.408  0.1275  0.0214 -0.3127
 7844W        W50761   0.632   9.835  19.827 -0.0123 -0.0517  0.2613
 7845W        W50762   1.554  10.126  19.362 -0.0659 -0.2013 -0.1229
 7846W        W50763   1.475   7.709  24.635 -0.1017  0.1161 -0.0212
 7847W        W50764   2.904  10.580  23.008  0.1134 -0.0544 -0.0697
 7848W        W50765   1.359   9.489  23.146 -0.1065 -0.0900  0.0702
 7849W        W50766   1.701   9.316  22.855  0.0924 -0.1703  0.3407
 7850W        W50767   1.245  10.178  21.373  0.5449  0.1304  0.2791
 7851W        W50768   0.979   9.962  22.376  0.0090 -0.0110 -0.0929
 7852W        W50769   1.795   9.772  23.209  0.1545 -0.2260 -0.0170
 7853W        W50770  34.328  11.711  24.294 -0.3407 -0.0588  0.0025
 7854W        W50771   3.000   8.622  25.170  0.1240  0.0519 -0.1644
 7855W        W50772   3.981  10.315  20.252  0.3859  0.1119 -0.0226
 7856W        W50773  34.638   8.359  24.420 -0.0406 -0.1230 -0.0654
 7857W        W50774  32.494  10.995  19.495 -0.1206  0.0390  0.1082
 7858W        W50775   0.589   8.047  25.102 -0.0667 -0.2148  0.0196
 7859W        W50776   1.299   7.550  19.507 -0.0529  0.0070 -0.1473
 7860W        W50777   1.246   8.595  23.648 -0.1185  0.0333 -0.0359
 7861W        W50778   1.373  10.674  24.066  0.0313 -0.0136 -0.1027
 7862W        W50779  33.635  10.176  21.672 -0.1164 -0.1505  0.0711
 7863W        W50780  33.085   9.444  24.468 -0.1102 -0.1294 -0.0513
 7864W        W50781   3.785   9.591  21.701  0.0448 -0.2264  0.1813
 7865W        W50782   1.674  10.383  22.599 -0.1650 -0.2980  0.2565
 7866W        W50783   2.133  10.179  22.496  0.0506  0.1125  0.2371
 7867W        W50784   4.943  10.469  23.099  0.1527 -0.0605 -0.0411
 7868W        W50785   1.087  10.005  20.020  0.0893  0.2830 -0.2236
 7869W        W50786   3.846   8.541  24.899  0.1634 -0.0201  0.2558
 7870W        W50787   2.833   8.526  22.110  0.0660 -0.1561 -0.1787
 7871W        W50788   3.800   9.299  19.219 -0.1383  0.0135 -0.2001
 7872W        W50789   0.398   8.460  23.713  0.1994  0.0637  0.1625
 7873W        W50790   1.962  10.961  22.338  0.0428 -0.2421  0.2394
 7874W        W50791   1.372   9.124  25.125 -0.0192  0.2813 -0.1311
 7875W        W50792   0.542   7.912  23.278 -0.2794  0.0535  0.0733
 7876W        W50793   2.211   9.123  21.212 -0.0172 -0.0596  0.1987
 7877W        W50794   1.890   9.449  24.491 -0.0477  0.0266  0.1491
 7878W        W50795   4.034   9.650  22.146  0.2015 -0.0382  0.0360
 7879W        W50796   2.550   9.763  23.452 -0.1221 -0.2299  0.2318
 7880W        W50797   2.036   8.940  22.904  0.2485  0.2274  0.3188
 7881W        W50798   2.985   9.097  23.808 -0.2348 -0.0208  0.1627
 7882W        W50799   4.457   9.759  21.347 -0.3419 -0.1471 -0.0665
 7883W        W50800   0.987   8.317  20.750 -0.3034  0.1965  0.0166
 7884W        W50801   1.041   9.637  21.616 -0.0927  0.1748  0.1527
 7885W        W50802   2.156   6.893  24.407 -0.0568  0.0972 -0.1387
 7886W        W50803   3.325   9.106  22.665  0.0119 -0.2460  0.2225
 7887W        W50804   2.282   7.435  22.776  0.3205  0.2378  0.2179
 7888W        W50805   2.071  11.654  22.916  0.1491 -0.2271 -0.0543
 7889W        W50806   2.418  10.732  24.262 -0.2670  0.1610 -0.1528
 7890W        W50807   2.364  11.567  26.938  0.2007  0.2275 -0.0917
 7891W        W50808   0.403   7.020  25.559  0.0027 -0.1997 -0.0218
 7892W        W50809   3.108  10.234  24.679 -0.0262  0.1093  0.2940
 7893W        W50810   4.275   9.682  18.674  0.1676  0.1515 -0.0176
 7894W        W50811   2.799   9.652  25.274 -0.2244  0.0241  0.3059
 7895W        W50812   5.284   9.179  19.428 -0.0479  0.0443 -0.1087
 7896W        W50813   3.829   9.382  20.155 -0.0750  0.1059 -0.2343
 7897W        W50814  33.639   7.107  22.889 -0.0472 -0.0537 -0.1520
 7898W        W50815   2.143  11.539  23.889  0.1624 -0.0292 -0.0572
 7899W        W50816   1.046   8.379  21.717  0.3529  0.1118  0.0392
 7900W        W50817   2.456  10.246  25.872  0.2825  0.0643  0.0510
 7901W        W50818   2.340  10.450  20.321 -0.1131 -0.0203 -0.1330
 7902W        W50819   4.495  11.288  21.716  0.2686  0.2919 -0.3982
 7903W        W50820   2.756   9.434  20.323  0.1428  0.1726 -0.2105
 7904W        W50821  34.165   8.931  25.260 -0.0301  0.1977 -0.0463
 7905W        W50822   0.138   8.292  25.036 -0.0289 -0.3973 -0.2194
 7906W        W50823   0.282   8.881  19.755  0.0032 -0.1897  0.0169
 7907W        W50824   1.551   9.186  21.123  0.1053 -0.0585  0.0913
 7908W        W50825   2.082  11.272  21.994  0.0256 -0.1042  0.1580
 7909W        W50826   4.387  10.298  23.871  0.2195 -0.0816  0.3166
 7910W        W50827   0.981   9.221  21.308  0.1818  0.1931 -0.0731
 7911W        W50828   1.040   7.832  24.854 -0.3123  0.0298  0.1988
 7912W        W50829   0.309   9.396  20.056 -0.0569  0.0421 -0.0653
 7913W        W50830   3.081   6.906  21.682  0.0837  0.1731 -0.0511
 7914W        W50831   1.959  10.084  23.911  0.2236 -0.0753  0.2311
 7915W        W50832   0.805   9.450  22.428 -0.3254 -0.2062  0.1712
 7916W        W50833   1.228  11.519  21.964  0.3037 -0.0476 -0.0779
 7917W        W50834   1.252   9.317  24.196 -0.0155  0.1614 -0.0437
 7918W        W50835   3.498   9.195  21.934  0.0855  0.0112 -0.0940
 7919W        W50836   2.377   8.751  22.490 -0.1676 -0.1130 -0.1450
 7920W        W50837   3.916  10.524  22.788  0.0139  0.0203 -0.4265
 7921W        W50838   2.522  11.798  23.607  0.2204  0.2848 -0.4839
 7922W        W50839   2.820   8.088  20.984  0.0868  0.1501 -0.2106
 7923W        W50840   3.385  10.863  23.697  0.2109  0.0064 -0.0428
 7924W        W50841   3.069   8.668  21.253 -0.0537  0.0622 -0.1686
 7925W        W50842   2.176   9.755  20.544  0.1217  0.0492 -0.1473
 7926W        W50843   2.171  10.088  23.429 -0.0558  0.4441 -0.1947
 7927W        W50844   2.278   6.895  25.577  0.0701  0.1898  0.2888
 7928W        W50845   3.465   9.358  24.287  0.3163  0.1470 -0.1460
 7929W        W50846   0.505   5.836  21.329 -0.0629  0.2715  0.2019
 7930W        W50847   0.654   9.803  22.030  0.0559 -0.1600  0.2565
 7931W        W50848   1.400  11.155  26.233 -0.2540 -0.4023  0.2196
 7932W        W50849   1.459   9.417  23.636  0.3650  0.1512  0.1213
 7933W        W50850   0.566   9.778  20.645 -0.1518 -0.0025  0.0325
 7934W        W50851   1.989  10.734  22.771 -0.4666 -0.0390  0.0151
 7935W        W50852   1.203   8.749  21.365 -0.0194 -0.1249 -0.0913
 7936W        W50853   3.830  11.968  21.918 -0.3163  0.0933  0.2370
 7937W        W50854  34.391   8.156  19.402  0.0398  0.0081 -0.0053
 7938W        W50855   0.042  11.878  23.769  0.1716 -0.0429  0.3195
 7939W        W50856  33.733  10.831  20.099 -0.0690 -0.2143  0.1690
 7940W        W50857   4.456  10.248  19.917 -0.1660  0.2186 -0.0169
 7941W        W50858   0.811  10.291  22.060  0.0216 -0.1553 -0.1576
 7942W        W50859   4.453   7.850  23.121  0.2048 -0.0930 -0.1587
 7943W        W50860   2.357   8.533  23.124  0.0339 -0.0471 -0.1902
 7944W        W50861   3.444  10.380  21.104 -0.2923  0.3661  0.2886
 7945W        W50862   2.995   7.341  20.970 -0.1381 -0.2258  0.1787
 7946W        W50863   0.377  11.961  24.160 -0.1225  0.3679 -0.4488
 7947W        W50864   0.831   7.600  22.647  0.2387  0.5734  0.2712
 7948W        W50865   1.440   6.617  23.149 -0.1795  0.1239  0.1225
 7949W        W50866   0.033   9.596  25.033  0.0507 -0.0271 -0.0032
 7950W        W50867   4.381   7.190  24.977  0.2798 -0.0500  0.2819
 7951W        W50868   1.246   9.997  24.946  0.0834  0.2928  0.2859
 7952W        W50869   3.768  10.395  19.191  0.2379 -0.1434  0.0162
 7953W        W50870  33.750   6.558  23.737 -0.0981 -0.0133 -0.0361
 7954W        W50871  34.587   9.236  23.398 -0.2185  0.0718 -0.0370
 7955W        W50872   2.145   8.344  23.663  0.0272 -0.0405  0.4750
 7956W        W50873   4.350   9.042  20.588  0.2165  0.6460  0.2136
 7957W        W50874   4.827   8.802  22.009  0.1390  0.3197  0.1016
 7958W        W50875   1.554   9.980  19.845 -0.1748  0.0012 -0.2326
 7959W        W50876   2.249  10.204  22.005  0.1410  0.4806  0.3750
 7960W        W50877  34.049  10.021  21.977  0.2658 -0.1382 -0.0739
 7961W        W50878   0.280   6.657  20.567 -0.2848  0.1146  0.2121
 7962W        W50879   3.765  10.266  21.852  0.1782  0.0365  0.0031
 7963W        W50880   2.146   9.871  24.744  0.1028 -0.0808 -0.3171
 7964W        W50881   2.269   8.961  23.320 -0.0058 -0.2605  0.1476
 7965W        W50882   1.798   9.047  24.807  0.2730 -0.2067 -0.0130
 7966W        W50883   2.597   7.573  21.115 -0.0092  0.0288  0.1946
 7967W        W50884   1.073  10.400  23.295  0.1599  0.0179 -0.0643
 7968W        W50885   0.898   9.346  25.284 -0.1285  0.2572 -0.0169
 7969W        W50886   5.026   9.344  20.595 -0.1522 -0.1040  0.0507
 7970W        W50887   4.144  10.980  24.096  0.2730  0.3749  0.1376
 7971W        W50888   3.396   5.925  18.433 -0.0402 -0.3296  0.0780
 7972W        W50889   2.561   8.436  25.592 -0.1456  0.2233 -0.0244
 7973W        W50890  33.353   8.117  24.221 -0.1999  0.0876 -0.0911
 7974W        W50891   1.611   8.682  21.812 -0.2398 -0.0447 -0.1592
 7975W        W50892  33.036   9.987  20.044 -0.0560  0.2529 -0.0117
 7976W        W50893   1.657   9.655  24.138  0.2147  0.4867 -0.2649
 7977W        W50894   5.181   9.348  23.982  0.5056 -0.0909  0.3048
 7978W        W50895   1.196   7.103  22.472  0.0059  0.0120 -0.2061
 7979W        W50896   1.904   9.664  19.771 -0.2059 -0.3189  0.0961
 7980W        W50897   3.674  11.168  21.432  0.0981 -0.1508 -0.1034
 7981W        W50898  33.572  11.106  20.588 -0.0688  0.1295 -0.2676
 7982W        W50899   3.385   8.270  20.953  0.0411 -0.0118  0.2767
 7983W        W50900   4.022  11.442  21.675 -0.0585  0.0741  0.0026
 7984W        W50901   0.278   9.941  21.282 -0.2954  0.2520 -0.1023
 7985W        W50902   2.744  10.746  23.499 -0.3129  0.2297  0.1249
 7986W        W50903   3.254  10.402  20.061 -0.4756  0.1399  0.0295
 7987W        W50904   0.585   7.876  22.226 -0.2992 -0.1195 -0.0392
 7988W        W50905   2.674   6.665  24.001  0.0885  0.1177 -0.0851
 7989W        W50906   0.538   9.787  22.687  0.3672 -0.1770 -0.0005
 7990W        W50907   4.037   9.684  22.788 -0.0015  0.0426  0.3505
 7991W        W50908   3.297   8.621  23.819  0.1093  0.0520 -0.1528
 7992W        W50909   1.278   9.653  22.045 -0.2231  0.0443 -0.4113
 7993W        W50910   2.252   8.685  24.726  0.1796 -0.0030 -0.2926
 7994W        W50911   3.151  11.811  22.676 -0.0244  0.0813 -0.0761
 7995W        W50912   2.610  11.237  23.656 -0.5821 -0.0878 -0.0704
 7996W        W50913   1.527   9.794  21.520  0.0997  0.0685 -0.0335
 7997W        W50914   1.430   8.950  25.873  0.1271 -0.0331  0.1247
 7998W        W50915   0.561  10.482  20.628  0.1671 -0.0100 -0.0683
 7999W        W50916   4.132  11.211  23.295 -0.1112 -0.2078 -0.0079
 8000W        W50917   3.480   7.519  20.656  0.3295 -0.0400 -0.1587
 8001W        W50918   1.647  10.239  21.704 -0.2601 -0.3785 -0.2274
 8002W        W50919   3.772   8.990  22.407  0.1883 -0.2235 -0.1749
 8003W        W50920   1.993   9.145  20.781 -0.1648  0.1216  0.1908
 8004W        W50921   4.627  10.692  21.603 -0.2366  0.1430 -0.0014
 8005W        W50922   0.150   8.583  22.701 -0.1339 -0.3295  0.0889
 8006W        W50923   1.714   8.489  24.519  0.1219  0.4022  0.2453
 8007W        W50924  33.938   8.545  21.803  0.0313  0.1191  0.0830
 8008W        W50925  34.254   7.747  19.739  0.2040 -0.2173  0.0018
 8009W        W50926   0.267  10.069  21.786 -0.0034 -0.0445 -0.1072
 8010W        W50927   3.419   6.232  24.840  0.0801  0.2195  0.1111
 8011W        W50928  33.277   9.125  25.227 -0.3142  0.0234 -0.0522
 8012W        W50929   1.683   9.000  24.330 -0.1272 -0.3001  0.0438
 8013W        W50930  34.358   9.974  20.289  0.1174  0.1070 -0.1454
 8014W        W50931   3.943   9.455  20.614 -0.0239  0.0844  0.0438
 8015W        W50932   1.533   8.075  24.259  0.2509  0.0865  0.2576
 8016W        W50933  34.520   6.185  22.951  0.1009 -0.0343 -0.2758
 8017W        W50934   3.196  10.087  23.205  0.0493  0.2444  0.1262
 8018W        W50935   5.242  12.488  21.408  0.1537  0.4522 -0.4328
 8019W        W50936   1.750   5.761  21.900 -0.3251  0.1227 -0.0901
 8020W        W50937   3.219   9.169  23.193 -0.0414  0.3804 -0.2632
 8021W        W50938  32.181  10.605  19.744  0.4771  0.1917  0.1843
 8022W        W50939   3.562   9.189  26.113 -0.1226 -0.2526  0.0705
 8023W        W50940   1.622   8.066  25.717  0.1017 -0.0026 -0.0883
 8024W        W50941  33.894  10.341  20.286 -0.0379  0.1492 -0.0379
 8025W        W50942   3.322   7.384  24.177 -0.0445 -0.0707  0.1235
 8026W        W50943   3.442   9.934  22.093 -0.2051 -0.4901  0.3589
 8027W        W50944   3.323  10.817  21.438 -0.0156 -0.1710 -0.2231
 8028W        W50945   0.583   9.034  22.791  0.1116 -0.1406 -0.1288
 8029W        W50946   3.142  10.791  24.750 -0.1139 -0.0411  0.0366
 8030W        W50947   0.398   6.886  23.081 -0.0630  0.1198 -0.0009
 8031W        W50948   3.443   9.573  20.699  0.0070 -0.1161  0.1657
 8032W        W50949   1.083  11.668  24.626 -0.0733 -0.2110 -0.2603
 8033W        W50950   1.787  10.885  21.810  0.0277  0.0667 -0.0249
 8034W        W50951   3.743   9.080  22.883  0.0486  0.1798  0.1298
 8035W        W50952   0.997   8.274  21.248 -0.1439  0.0169  0.1975
 8036W        W50953   3.026   8.393  24.230  0.0618  0.1803 -0.0623
 8037W        W50954   2.519  10.198  24.421 -0.3669  0.2195 -0.3989
 8038W        W50955   3.856   8.449  22.318  0.0801  0.1510  0.2064
 8039W        W50956   2.472   8.212  22.615  0.0433 -0.0205 -0.1287
 8040W        W50957   3.541   8.578  20.536 -0.1699  0.0560 -0.3739
 8041W        W50958   2.810   8.446  21.617  0.0791  0.0709 -0.2419
 8042W        W50959   0.464   9.543  23.562  0.1673 -0.3581 -0.1240
 8043W        W50960   1.340   9.168  21.679 -0.3125  0.1456 -0.1097
 8044W        W50961   2.182   9.226  22.428 -0.3553 -0.0589  0.3157
 8045W        W50962   4.099   9.966  21.646 -0.2133  0.0435 -0.0631
 8046W        W50963   3.457  10.368  23.551  0.0106 -0.1990  0.2059
 8047W        W50964  34.491  10.982  21.964 -0.0799  0.1309  0.1344
 8048W        W50965   1.840  10.407  20.546 -0.2968 -0.1776  0.1118
 8049W        W50966   2.270  11.455  23.338 -0.1600 -0.0561 -0.1394
 8050W        W50967   4.002   9.935  27.183 -0.1661  0.0770 -0.1570
 8051W        W50968   1.323   9.598  25.279 -0.1964 -0.1498 -0.3244
 8052W        W50969   3.154  10.267  22.593  0.2251  0.1661 -0.2352
 8053W        W50970   1.553   5.805  23.994 -0.0617  0.0045  0.0130
 8054W        W50971  34.655   9.030  22.884  0.0586  0.1312 -0.1631
 8055W        W50972  34.321  10.812  20.908 -0.1131  0.0305 -0.2398
 8056W        W50973   1.403  10.886  24.596  0.4299  0.1534 -0.0067
 8057W        W50974   1.098   9.047  22.826  0.2782  0.2110 -0.2959
 8058W        W50975   2.721   9.946  22.098  0.0425 -0.0733 -0.6851
 8059W        W50976   1.517  10.856  22.586  0.0784 -0.2104 -0.1875
 8060W        W50977   1.172  10.206  23.756  0.2924 -0.3967 -0.0241
 8061W        W50978   1.990   9.612  26.862 -0.2500 -0.0142 -0.1578
 8062W        W50979   0.908   6.895  25.963  0.0469 -0.1805 -0.1245
 8063W        W50980   3.678   7.022  25.333  0.2025 -0.1436  0.0890
 8064W        W50981   2.077   9.130  25.230  0.2110  0.2025 -0.3334
 8065W        W50982  32.011   7.617  26.534 -0.1606  0.1305  0.3404
 8066W        W50983   3.445  11.339  25.674 -0.4001  0.1204  0.2579
 8067W        W50984  34.586   8.289  27.961  0.2001  0.1512 -0.0916
 8068W        W50985   4.750   9.568  26.173 -0.1910  0.0952  0.0499
 8069W        W50986   4.395   8.254  26.376 -0.1668  0.1695 -0.0712
 8070W        W50987   0.301   9.115  24.379  0.1656  0.0339  0.3276
 8071W        W50988   0.824   8.054  27.887 -0.3225 -0.0542 -0.0203
 8072W        W50989   2.908  11.639  28.058 -0.2841 -0.1446  0.5005
 8073W        W50990   1.460   6.108  24.768  0.1091  0.0663 -0.1756
 8074W        W50991  34.610   7.694  26.726 -0.1699 -0.2183  0.1089
 8075W        W50992   1.444   9.896  27.875 -0.0785  0.2806 -0.0108
 8076W        W50993  33.544   8.906  26.136 -0.1209 -0.0375  0.1619
 8077W        W50994   0.925   8.150  26.054 -0.0321  0.0462 -0.0110
 8078W        W50995   0.324   7.176  25.092  0.3337  0.1815 -0.0778
 8079W        W50996   2.981  10.871  27.198 -0.1138 -0.3106 -0.1560
 8080W        W50997   1.301   6.365  26.538  0.1998 -0.2113  0.1400
 8081W        W50998  33.693   8.262  25.515 -0.0541 -0.2762 -0.1444
 8082W        W50999   2.570   9.287  25.978 -0.0504 -0.0579 -0.3027
 8083W        W51000  33.350   7.689  24.915 -0.0383 -0.1009  0.2246
 8084W        W51001   0.301   6.563  25.248 -0.1176  0.3914  0.0985
 8085W        W51002   2.118  11.337  27.680  0.0485 -0.2732  0.1572
 8086W        W51003   2.912   7.097  26.825  0.0919 -0.0173  0.2984
 8087W        W51004   2.832   9.482  26.389 -0.0765  0.0141  0.2477
 8088W        W51005   2.143   8.940  28.248  0.1428  0.3450 -0.1019
 8089W        W51006   3.082   9.778  28.095  0.0776 -0.1895  0.0649
 8090W        W51007   1.482  10.805  28.232  0.4227  0.3028 -0.1161
 8091W        W51008   1.782  10.609  25.445  0.0012  0.2319 -0.1656
 8092W        W51009  32.662  11.051  26.694 -0.0474 -0.1042 -0.0790
 8093W        W51010   0.880   8.412  24.691 -0.2105  0.0306 -0.1141
 8094W        W51011   2.760   9.945  24.896  0.0107 -0.1010  0.2859
 8095W        W51012   2.555  12.028  27.280 -0.2441  0.0323 -0.1500
 8096W        W51013   3.037   9.272  27.997 -0.2450  0.2108 -0.0822
 8097W        W51014   1.310  12.290  24.960  0.1328 -0.1086  0.1400
 8098W        W51015   3.017  11.285  27.640 -0.0518 -0.2638 -0.2133
 8099W        W51016   2.666  13.111  27.479 -0.3384 -0.2511  0.1368
 8100W        W51017   4.818   6.085  25.738 -0.0430 -0.1969  0.1502
 8101W        W51018   1.761   8.113  25.165 -0.0676  0.3682 -0.1303
 8102W        W51019   2.873  10.565  24.349  0.0574  0.2786  0.0340
 8103W        W51020   2.142  10.265  26.289 -0.3265 -0.0045 -0.0096
 8104W        W51021   1.189   8.838  28.226  0.0247  0.1846 -0.2320
 8105W        W51022  34.170  10.708  25.349  0.1549 -0.0497  0.0217
 8106W        W51023   4.725   9.457  27.559  0.4548 -0.1822 -0.0730
 8107W        W51024   3.606  11.225  23.391 -0.0173  0.1492 -0.0689
 8108W        W51025   3.531  10.264  24.143  0.1020  0.0517 -0.0139
 8109W        W51026   2.870   9.233  24.381  0.0848  0.2166  0.0011
 8110W        W51027   1.195   7.970  26.891 -0.0868  0.0719 -0.0649
 8111W        W51028   2.081   6.216  26.832  0.0534  0.2029 -0.1588
 8112W        W51029   3.032  11.871  27.576 -0.1451 -0.2649  0.0343
 8113W        W51030   1.709   6.140  25.574  0.1723  0.0488 -0.1576
 8114W        W51031   2.541   8.378  27.230  0.0700 -0.1164 -0.1894
 8115W        W51032   0.989  10.149  25.875  0.0933  0.0695 -0.0712
 8116W        W51033   2.949   8.403  26.917  0.0704 -0.3742  0.0783
 8117W        W51034   0.940  10.416  28.253  0.0000 -0.0655  0.1998
 8118W        W51035  34.420   8.734  26.498 -0.1340  0.1263 -0.1097
 8119W        W51036   3.975   9.019  25.119  0.1744  0.1417  0.2080
 8120W        W51037   6.085  11.073  26.737  0.1638 -0.1582 -0.3884
 8121W        W51038   0.942  11.284  25.389 -0.1170  0.1064 -0.0772
 8122W        W51039  33.152   7.697  26.704  0.0600 -0.4947 -0.3655
 8123W        W51040   1.265  10.441  26.865 -0.1585 -0.0047 -0.1258
 8124W        W51041   3.254   7.993  26.881 -0.0217 -0.1088  0.1460
 8125W        W51042   2.780   7.212  25.709  0.0035  0.2815  0.0619
 8126W        W51043   3.379   9.661  28.983  0.0579 -0.0165 -0.3011
 8127W        W51044   1.444  10.388  29.126  0.1764 -0.0803 -0.1528
 8128W        W51045   1.364   8.628  24.165  0.1454 -0.1416  0.0653
 8129W        W51046   0.275   8.085  27.316  0.1208 -0.1271 -0.0560
 8130W        W51047   3.014   9.152  27.364 -0.1641 -0.0206  0.3055
 8131W        W51048   3.324  10.700  24.234 -0.2332  0.0961 -0.0888
 8132W        W51049   3.782   7.072  26.623  0.0456 -0.1865  0.0027
 8133W        W51050   3.037   6.378  25.167 -0.1165 -0.1173 -0.0525
 8134W        W51051   1.576   9.877  23.655 -0.2236  0.1891  0.1458
 8135W        W51052   2.533   9.759  25.782 -0.0369 -0.0751  0.5616
 8136W        W51053   6.823   9.414  27.573 -0.1392  0.3060 -0.1843
 8137W        W51054   4.931   9.510  22.622  0.0471 -0.1097  0.4729
 8138W        W51055  33.611  10.849  26.152  0.0576  0.1466 -0.0957
 8139W        W51056   0.065   6.587  27.473 -0.1229  0.0968  0.0470
 8140W        W51057   0.128  11.289  28.114 -0.1768 -0.2460 -0.0730
 8141W        W51058   0.765  10.902  25.828 -0.3596  0.1613 -0.0154
 8142W        W51059  34.255   8.224  25.947  0.2531 -0.1018  0.0579
 8143W        W51060  34.505  10.214  24.212  0.1704  0.0885 -0.3402
 8144W        W51061  33.674   7.727  26.999 -0.3713 -0.5445  0.0645
 8145W        W51062   2.544  10.508  26.451  0.2652  0.0830 -0.0657
 8146W        W51063   3.212   9.671  25.010  0.0346  0.0881  0.1827
 8147W        W51064   0.255   6.022  26.693 -0.1712 -0.1408  0.1652
 8148W        W51065   2.025   8.338  25.768  0.0120 -0.1282  0.3357
 8149W        W51066   1.708   9.492  26.027 -0.1050 -0.0355 -0.2127
 8150W        W51067   2.096  10.598  23.290  0.0010 -0.4492 -0.2168
 8151W        W51068   2.162   8.181  24.718 -0.0226 -0.0838 -0.1718
 8152W        W51069   4.201  10.113  22.897  0.1192  0.3036  0.0788
 8153W        W51070   0.805   7.438  25.793  0.1497 -0.3466  0.1496
 8154W        W51071  34.145   9.364  28.007 -0.0889  0.0126 -0.0389
 8155W        W51072  34.539   7.426  26.236 -0.0235 -0.0674  0.3165
 8156W        W51073  34.485   7.751  25.800 -0.0749  0.2309  0.0157
 8157W        W51074   4.128   6.927  26.908  0.1246  0.0310  0.1006
 8158W        W51075   1.725   6.645  26.504 -0.0333 -0.1777  0.1331
 8159W        W51076   0.851   9.495  26.716  0.0746  0.0077 -0.3824
 8160W        W51077   1.638   9.977  24.663  0.3189  0.3386  0.0971
 8161W        W51078  34.625  11.975  26.190  0.0774 -0.0308 -0.1552
 8162W        W51079   2.054   9.321  29.300  0.2495  0.0295  0.0274
 8163W        W51080   5.105  10.612  25.982 -0.2527  0.0465  0.1093
 8164W        W51081   4.865  11.139  27.786  0.3435  0.1900 -0.1450
 8165W        W51082   3.710   8.263  25.583 -0.1557  0.3479 -0.0204
 8166W        W51083   2.276   6.314  26.247  0.1925 -0.1542 -0.0341
 8167W        W51084   0.805   9.376  23.897  0.2076 -0.0346  0.0874
 8168W        W51085   1.961   7.512  27.186 -0.2923  0.1286 -0.2990
 8169W        W51086   2.847   8.095  25.335 -0.2943 -0.1283  0.3345
 8170W        W51087   0.561   5.519  25.672 -0.1119  0.1702  0.1410
 8171W        W51088   3.570   8.967  28.735  0.2630  0.0380 -0.0864
 8172W        W51089   2.304   8.231  26.692  0.1445 -0.3819  0.5677
 8173W        W51090   0.517  10.188  25.927  0.0261 -0.1698  0.1022
 8174W        W51091   2.668   7.741  26.123  0.0150 -0.1915 -0.0939
 8175W        W51092   3.792  10.032  27.978  0.0717 -0.1696 -0.1884
 8176W        W51093   1.221   9.174  27.395  0.2414 -0.1462  0.1213
 8177W        W51094   0.945   8.843  25.976  0.0655 -0.0603 -0.1771
 8178W        W51095   5.389  12.356  27.334 -0.1254  0.0860 -0.2708
 8179W        W51096  34.009  10.985  23.766 -0.1454  0.1233 -0.1111
 8180W        W51097   0.473   8.956  25.251 -0.1678  0.1951  0.2190
 8181W        W51098   1.487   9.488  26.958 -0.2193 -0.2149 -0.0962
 8182W        W51099   3.131   9.570  27.106  0.2771  0.1835 -0.0877
 8183W        W51100   1.504   9.256  28.685  0.0258  0.1559  0.0396
 8184W        W51101   0.964   7.577  27.813 -0.2011 -0.0914 -0.1281
 8185W        W51102   1.085   8.885  25.491 -0.1378 -0.0144 -0.0320
 8186W        W51103   0.696   9.921  26.858 -0.2592  0.2766  0.0644
 8187W        W51104   2.350   6.188  23.997 -0.3919 -0.0863  0.2305
 8188W        W51105  34.407   9.859  24.621  0.0433 -0.0132 -0.0388
 8189W        W51106   2.673   9.502  27.280  0.5264 -0.1358 -0.2311
 8190W        W51107   2.858   9.201  26.838  0.0350  0.2944  0.0269
 8191W        W51108   3.178   8.418  25.597 -0.0674 -0.2098  0.1900
 8192W        W51109   1.892   7.273  24.231  0.0002 -0.2242  0.2387
 8193W        W51110  33.766   8.577  25.901  0.3055  0.1073  0.2311
 8194W        W51111   1.718   9.739  25.556  0.0881 -0.3727 -0.2205
 8195W        W51112   2.345   8.533  28.032 -0.0942 -0.3969  0.1325
 8196W        W51113   1.087   7.591  25.306  0.0194  0.1746  0.0179
 8197W        W51114   3.422   9.132  24.744 -0.0670  0.3586  0.0490
 8198W        W51115   1.513   9.596  27.457 -0.2182  0.0718  0.0991
 8199W        W51116   0.630   8.720  28.757 -0.0922 -0.1319 -0.0344
 8200W        W51117   3.734   9.467  27.445  0.0002 -0.1689  0.2809
 8201W        W51118   2.183   7.495  26.119 -0.0582 -0.1925 -0.3981
 8202W        W51119   0.169   9.732  26.098  0.0503 -0.1334  0.0923
 8203W        W51120   0.273   9.629  24.602 -0.3070 -0.0061  0.1418
 8204W        W51121   0.667  10.305  22.646  0.1136  0.0574  0.2522
 8205W        W51122   5.375   7.818  25.643  0.4270  0.2380 -0.0980
 8206W        W51123   3.291   8.555  29.099 -0.3119 -0.1413  0.3022
 8207W        W51124   2.637   9.023  28.130  0.0875 -0.0891 -0.1044
 8208W        W51125   2.307   8.767  29.233 -0.1662 -0.0658  0.2870
 8209W        W51126   2.595   9.169  27.609  0.0625 -0.0429 -0.0602
 8210W        W51127   4.284   8.484  28.114  0.1468 -0.2940 -0.3696
 8211W        W51128   0.431   8.910  26.087  0.0101 -0.2661  0.3338
 8212W        W51129   1.009   6.239  24.576 -0.0288  0.3003 -0.3440
 8213W        W51130  34.106   7.574  28.527  0.0433  0.0033  0.0492
 8214W        W51131   2.250  12.087  26.893  0.0882  0.2628 -0.0076
 8215W        W51132   2.294  10.036  27.861  0.1326 -0.0467 -0.2673
 8216W        W51133   1.627   8.513  26.062 -0.0333 -0.0203 -0.0158
 8217W        W51134   2.392   7.770  26.531 -0.2116  0.2343  0.0052
 8218W        W51135   1.055   6.433  26.072  0.0291  0.0782  0.0236
 8219W        W51136   1.792   9.546  25.100  0.0786  0.2616 -0.0669
 8220W        W51137  34.314   9.985  25.204  0.1765 -0.0386 -0.0333
 8221W        W51138   1.716   7.090  27.333  0.2059  0.0276  0.1436
 8222W        W51139   1.787   9.279  26.514  0.1387  0.1986  0.2217
 8223W        W51140   3.105  11.275  23.629  0.0335 -0.2582  0.2464
 8224W        W51141   3.338   7.838  26.291 -0.2564  0.0545  0.0876
 8225W        W51142  34.387  10.512  24.904 -0.0184  0.0871 -0.1550
 8226W        W51143   4.132   7.415  26.502  0.3264 -0.0476  0.2533
 8227W        W51144   0.692   9.893  26.349  0.0361  0.0036  0.0687
 8228W        W51145   1.777   7.269  24.747 -0.1193 -0.0956  0.0180
 8229W        W51146  32.522   6.475  26.115  0.1168 -0.0819  0.0197
 8230W        W51147   1.660   8.672  25.547 -0.2407  0.1870  0.3284
 8231W        W51148   2.454  11.428  26.343 -0.1004 -0.2149  0.0620
 8232W        W51149   0.259   5.897  26.025 -0.0363 -0.1004 -0.0466
 8233W        W51150   1.455   6.629  24.643 -0.0905 -0.1152  0.1607
 8234W        W51151   0.967  12.713  26.451  0.0169  0.0122 -0.1312
 8235W        W51152   0.736   9.252  27.464 -0.0773  0.1625 -0.0039
 8236W        W51153   3.027  10.487  23.827  0.2226 -0.1152  0.0826
 8237W        W51154   2.997  10.746  29.354 -0.0616 -0.1583  0.1288
 8238W        W51155   1.386   7.969  28.763 -0.0614  0.0013  0.1517
 8239W        W51156  32.876   8.814  26.128  0.0258  0.3539  0.1039
 8240W        W51157   1.857   9.189  27.242  0.3479  0.0423 -0.3082
 8241W        W51158   3.093   7.338  25.279  0.2762  0.4355 -0.1969
 8242W        W51159  33.771  10.334  26.389  0.2192 -0.0835 -0.0391
 8243W        W51160   2.905  10.295  26.833 -0.2022  0.0140 -0.0667
 8244W        W51161  34.205   9.228  26.611 -0.0735 -0.0496  0.1875
 8245W        W51162  34.550  11.156  26.144  0.2462 -0.2201  0.3005
 8246W        W51163   1.716   8.358  28.723  0.1968 -0.0919  0.0619
 8247W        W51164   2.353  10.218  25.031 -0.0561 -0.4945  0.2286
 8248W        W51165   2.040   7.685  24.969 -0.0273 -0.0692 -0.1339
 8249W        W51166  34.256   7.497  25.279  0.3929 -0.0100  0.0309
 8250W        W51167   1.830   8.749  26.869  0.0963 -0.0825 -0.1963
 8251W        W51168   2.265   7.921  25.802 -0.2136  0.2900 -0.4192
 8252W        W51169   0.854   8.103  26.543  0.0943  0.0052 -0.0108
 8253W        W51170  34.509   9.363  28.883 -0.0363  0.0258 -0.2449
 8254W        W51171   2.199   7.129  27.003 -0.0841 -0.1334  0.2497
 8255W        W51172   4.153   9.830  24.922 -0.1495 -0.1923 -0.0755
 8256W        W51173   1.642   8.403  27.690  0.0948 -0.2107 -0.0050
 8257W        W51174   0.781  10.025  23.113  0.1414  0.0261  0.0272
 8258W        W51175  34.129  10.617  26.702 -0.2037 -0.0676  0.2979
 8259W        W51176   0.973   9.570  24.866  0.2992 -0.0311 -0.1685
 8260W        W51177   3.166   6.481  26.231 -0.2250  0.0359  0.2619
 8261W        W51178   0.850  10.534  26.231  0.0254 -0.0227 -0.0881
 8262W        W51179   0.261  10.192  24.591  0.1046 -0.1862  0.0139
 8263W        W51180   1.188   9.973  26.847  0.2104  0.0230  0.1982
 8264W        W51181   2.872   8.786  24.689  0.1469  0.1390  0.2024
 8265W        W51182   2.833  11.030  24.454  0.2063  0.2518  0.3166
 8266W        W51183   0.227   6.465  26.464  0.2794  0.0986  0.0287
 8267W        W51184   4.187   7.918  26.720 -0.2119  0.0141 -0.3075
 8268W        W51185   1.333   8.180  22.845 -0.1028 -0.1815  0.0867
 8269W        W51186   2.940   7.339  27.673 -0.2549  0.0126 -0.3997
 8270W        W51187   0.309   7.746  28.608  0.1851  0.2737 -0.1321
 8271W        W51188   3.019   9.280  25.802 -0.1789 -0.1640  0.0875
 8272W        W51189   0.758   8.597  26.820 -0.0114 -0.0024 -0.0016
 8273W        W51190   2.127   9.624  27.505 -0.0720  0.0640 -0.3374
 8274W        W51191   0.035   7.649  27.282 -0.2750  0.0643 -0.0714
 8275W        W51192   1.728   7.177  26.225 -0.2303 -0.1294 -0.2647
 8276W        W51193   0.070   6.557  24.232 -0.1498 -0.2362  0.0648
 8277W        W51194   4.135   8.964  26.763  0.1956  0.1088 -0.0837
 8278W        W51195   3.652   8.601  26.371 -0.0645  0.0050 -0.3089
 8279W        W51196   2.771   8.800  27.143 -0.1805 -0.0112 -0.0615
 8280W        W51197   0.774   7.145  26.339  0.0009  0.3159 -0.0488
 8281W        W51198  33.998   8.417  27.288  0.2645  0.0538 -0.0550
 8282W        W51199   2.566   8.791  26.001 -0.0574 -0.0536 -0.1979
 8283W        W51200   2.847  10.463  25.003 -0.1165 -0.3131 -0.3142
 8284W        W51201  34.637  10.822  25.165  0.0104 -0.1092 -0.2052
 8285W        W51202  34.132   7.809  26.162  0.2397  0.0016 -0.1021
 8286W        W51203   2.552   9.645  26.797 -0.0689 -0.0338  0.1254
 8287W        W51204   1.344   9.027  26.856  0.2860 -0.1601  0.1349
 8288W        W51205   2.576   6.264  27.015 -0.1266 -0.1439  0.1029
 8289W        W51206   3.137   9.886  26.501 -0.1265  0.3774 -0.0704
 8290W        W51207   0.284   7.615  25.984 -0.1924 -0.0863 -0.2071
 8291W        W51208  33.072   6.191  26.217 -0.0445  0.1783 -0.1643
 8292W        W51209   3.524  10.385  28.220  0.1381  0.1294 -0.0833
 8293W        W51210   1.997   8.070  26.285 -0.0978 -0.2141  0.0329
 8294W        W51211   2.328   7.951  27.314  0.3722  0.2102  0.0752
 8295W        W51212   2.109   8.629  26.325  0.0159  0.0279  0.0160
 8296W        W51213   0.847   9.892  25.329 -0.0606 -0.2417 -0.0308
 8297W        W51214   0.355   8.053  28.151 -0.1711 -0.1073 -0.0301
 8298W        W51215   1.741  10.918  27.678 -0.2288  0.0123  0.0937
 8299W        W51216   0.129   7.454  24.596  0.3112 -0.1844  0.1486
 8300W        W51217   2.241   7.777  28.214 -0.0781  0.0603  0.0120
 8301W        W51218   0.407  11.990  26.547 -0.4042 -0.2776 -0.0339
 8302W        W51219   2.178   9.556  26.423 -0.0989  0.1432 -0.0783
 8303W        W51220   1.303   9.290  26.247 -0.2770 -0.0830  0.1469
 8304W        W51221  34.269   9.076  27.084 -0.1768  0.1403 -0.0643
 8305W        W51222   2.958   9.461  28.752 -0.4147 -0.0403 -0.1619
 8306W        W51223   0.035   9.125  26.282 -0.0307  0.2045 -0.1857
 8307W        W51224   1.146   8.466  26.356  0.3300 -0.0133 -0.2849
 8308W        W51225   4.201  10.419  26.401  0.4089 -0.4466  0.4231
 8309W        W51226   3.336   7.071  28.018  0.2044  0.3399 -0.1341
 8310W        W51227   2.904   8.107  25.921 -0.2579 -0.0960 -0.0808
 8311W        W51228   5.608   7.307  28.249  0.0929 -0.0491 -0.1077
 8312W        W51229   0.552  11.554  25.665 -0.0176 -0.1631 -0.0120
 8313W        W51230   3.258   5.964  25.546  0.2405  0.1370  0.1190
 8314W        W51231   2.672   9.978  27.148  0.0222 -0.1182  0.0658
 8315W        W51232  34.668   7.777  28.276  0.0377  0.1880  0.1009
 8316W        W51233   3.282   9.636  26.050 -0.3047  0.4670 -0.2000
 8317W        W51234   1.402   7.529  28.059  0.1412 -0.1845  0.1899
 8318W        W51235   3.514  10.004  26.998  0.0160  0.0434 -0.0460
 8319W        W51236   1.970   7.231  25.784  0.5678 -0.2047  0.0155
 8320W        W51237   4.855   9.938  29.163 -0.1062 -0.0622  0.0285
 8321W        W51238   3.175   9.601  27.627  0.2480  0.0107 -0.1041
 8322W        W51239   1.691   9.256  25.565 -0.3582  0.1604  0.0582
 8323W        W51240   4.649  12.184  27.234 -0.1960  0.1672 -0.0594
 8324W        W51241   3.089  10.161  27.368  0.1520 -0.2248  0.0312
 8325W        W51242   1.998  11.267  26.303 -0.1000 -0.3228 -0.0636
 8326W        W51243  32.090   8.809  28.757 -0.1844  0.0733  0.0447
 8327W        W51244   0.679   8.376  27.521  0.0470 -0.0051  0.2036
 8328W        W51245   2.126   9.348  25.756 -0.2034  0.2550 -0.2329
 8329W        W51246   1.576   6.341  26.098  0.2540  0.1160 -0.0123
 8330W        W51247   1.846  11.164  23.115  0.0502 -0.0087 -0.1288
 8331W        W51248   1.115  11.542  26.431  0.0160  0.2931 -0.1505
 8332W        W51249  34.318   8.557  26.956 -0.0238 -0.0425  0.0241
 8333W        W51250  33.881  10.501  25.809  0.1173 -0.3591 -0.3263
 8334W        W51251   2.077   9.806  25.994 -0.0920  0.3237 -0.1590
 8335W        W51252   2.151  10.559  26.816  0.1252 -0.2501  0.1171
 8336W        W51253   2.327   9.226  26.921 -0.1915  0.1490  0.0689
 8337W        W51254   0.306   7.076  26.162 -0.0040 -0.0747 -0.1533
 8338W        W51255   1.701  10.316  26.588  0.4099 -0.0842 -0.1286
 8339W        W51256   0.081   8.725  24.073  0.3159 -0.1651  0.1489
 8340W        W51257   3.548  10.986  26.078 -0.1785 -0.3271 -0.1359
 8341W        W51258   0.365  12.152  25.987  0.1003  0.3290 -0.2844
 8342W        W51259   4.090   8.183  29.061 -0.0963  0.2046  0.2065
 8343W        W51260   1.622   8.855  23.757  0.1897  0.2688 -0.0156
 8344W        W51261   3.800  11.206  27.165 -0.0998  0.1757  0.4699
 8345W        W51262   3.965   7.355  25.627 -0.4248 -0.1456  0.3584
 8346W        W51263   4.664  10.069  27.704  0.1017 -0.3429  0.0622
 8347W        W51264   0.892   7.564  26.782 -0.1868  0.1108  0.0394
 8348W        W51265   1.675   4.855  26.498  0.2967 -0.2794  0.0537
 8349W        W51266   0.927   8.919  27.817  0.1644 -0.0144 -0.2154
 8350W        W51267   4.997   7.492  27.393  0.0487  0.2311  0.1770
 8351W        W51268   1.382  11.256  28.175  0.0570 -0.2215  0.0408
 8352W        W51269   3.412  10.570  25.108 -0.1504  0.0364  0.3002
 8353W        W51270   1.297   8.923  24.578  0.0434 -0.1129  0.0173
 8354W        W51271   0.261   8.419  26.673 -0.2751  0.0790  0.2548
 8355W        W51272   3.955   7.428  26.993  0.0066 -0.0938 -0.2527
 8356W        W51273   1.566  11.015  25.098 -0.0627 -0.0510 -0.0560
 8357W        W51274   1.260   6.857  26.299 -0.2625  0.0266 -0.3687
 8358W        W51275   2.712  10.661  25.838  0.0392 -0.0806 -0.0250
 8359W        W51276   1.762  10.541  27.142  0.3127 -0.0582  0.1571
 8360W        W51277   2.213  13.174  25.702  0.0276  0.1321  0.1480
 8361W        W51278  34.001   7.260  24.686  0.2450 -0.3594 -0.0839
 8362W        W51279   2.221   8.809  25.635  0.2864  0.0775 -0.1367
 8363W        W51280   0.535   6.473  25.946  0.1692  0.1738  0.1577
 8364W        W51281   1.663   8.366  26.520  0.2201 -0.1385 -0.0841
 8365W        W51282   0.254   6.131  25.575  0.3922  0.1862 -0.1212
 8366W        W51283   2.471   7.248  26.584  0.0198  0.0189 -0.2288
 8367W        W51284   1.912   8.945  25.994 -0.2169 -0.3368  0.1986
 8368W        W51285   1.741  10.085  25.135 -0.1593  0.1430 -0.0704
 8369W        W51286   2.995   9.985  25.841 -0.1382  0.1982  0.0135
 8370W        W51287   5.088   7.954  28.855 -0.1860  0.0243  0.1891
 8371W        W51288   2.277   9.713  25.180  0.0493  0.1310 -0.1348
 8372W        W51289   3.397  11.028  27.451 -0.0067 -0.1852  0.1315
 8373W        W51290   1.116   7.155  26.672  0.2499  0.2099  0.0723
 8374W        W51291   2.287  10.449  23.766 -0.0998 -0.2349  0.0679
 8375W        W51292   0.329   6.794  27.120  0.0525 -0.0029 -0.3067
 8376W        W51293   1.211   6.578  25.671 -0.1484  0.0910 -0.0343
 8377W        W51294   5.190   9.677  26.987 -0.1967  0.2343 -0.1858
 8378W        W51295   1.441   8.090  26.198 -0.0508 -0.3785  0.3051
 8379W        W51296   2.621  10.267  23.377 -0.1560  0.0375  0.0792
 8380W        W51297   3.260   8.687  27.297 -0.0476  0.3582 -0.0046
 8381W        W51298   2.095  12.880  23.678  0.2395  0.0308  0.2087
 8382W        W51299   3.728  10.360  25.408  0.0363  0.1706 -0.2961
 8383W        W51300   3.563   9.995  27.454  0.1861  0.1150 -0.0102
 8384W        W51301  34.493   8.241  27.466  0.1597  0.0496  0.1265
 8385W        W51302   3.457  10.491  27.262 -0.3858 -0.0414 -0.0780
 8386W        W51303   3.466   9.036  28.155 -0.2568  0.0386  0.0692
 8387W        W51304   1.886   7.705  25.514 -0.1668 -0.3799 -0.0567
 8388W        W51305   0.580   8.534  27.991 -0.0171  0.1690 -0.0480
 8389W        W51306  30.836  13.007  23.478 -0.0739  0.2118 -0.3209
 8390W        W51307   2.444   7.588  26.993  0.1454 -0.1471 -0.0753
 8391W        W51308   4.016   8.446  26.753 -0.2036  0.1110 -0.0046
 8392W        W51309   0.930  11.098  23.902 -0.0542  0.0715 -0.0440
 8393W        W51310   4.651   8.083  26.840  0.0528 -0.2214  0.1699
 8394W        W51311   1.846  11.201  25.458 -0.3360  0.0311 -0.0197
 8395W        W51312  33.256  10.615  28.599  0.1103 -0.1170 -0.0213
 8396W        W51313  33.872   7.738  24.597  0.2330  0.0189  0.0160
 8397W        W51314   3.806   8.599  29.083 -0.1677  0.0289 -0.0231
 8398W        W51315   1.451   8.831  26.388 -0.0945 -0.1519 -0.0172
 8399W        W51316   1.102  11.534  23.819  0.2893  0.0447 -0.0762
 8400W        W51317   4.063   9.180  26.290 -0.2245  0.1063  0.0339
 8401W        W51318   4.141   7.618  25.222 -0.1191  0.2502  0.2951
 8402W        W51319   4.716  10.149  28.250 -0.0960  0.3376  0.3342
 8403W        W51320   2.320   7.450  25.521 -0.0562  0.2021  0.0214
 8404W        W51321   4.840   7.342  24.893 -0.1899  0.0189  0.2581
 8405W        W51322   2.633   8.964  25.117 -0.0652  0.0012 -0.0639
 8406W        W51323   2.688   9.640  27.777  0.1088  0.1629 -0.0929
 8407W        W51324  33.404   8.657  24.907  0.4214 -0.4530  0.0859
 8408W        W51325  33.898   9.876  22.741 -0.1140  0.0012 -0.0475
 8409W        W51326   1.733  10.882  26.699 -0.0035  0.1279  0.0206
 8410W        W51327   3.290   6.440  27.371  0.2068  0.0217 -0.0304
 8411W        W51328   1.285   8.208  27.369 -0.3396  0.0903 -0.0125
 8412W        W51329   0.629   9.971  27.362  0.0425  0.2946 -0.0056
 8413W        W51330  34.612   5.217  25.545 -0.0553  0.1252  0.1127
 8414W        W51331   4.271  11.630  25.235 -0.0732 -0.2631 -0.2937
 8415W        W51332   1.098   7.075  25.536 -0.1906  0.1298 -0.2581
 8416W        W51333  34.645   7.923  26.278 -0.1171  0.0752 -0.0151
 8417W        W51334   3.113   9.176  25.278  0.0868 -0.0547 -0.1206
 8418W        W51335   3.299   9.645  25.489 -0.0702 -0.0257 -0.0269
 8419W        W51336   2.705   5.104  26.000 -0.1017  0.1916 -0.0160
 8420W        W51337   3.101   8.803  27.779  0.3793 -0.0361  0.0322
 8421W        W51338   2.430  12.474  24.755 -0.2307  0.0596 -0.1731
 8422W        W51339   1.961   7.414  26.621  0.4587  0.0146  0.1457
 8423W        W51340   1.420   7.566  27.532 -0.0684 -0.0339  0.1838
 8424W        W51341  34.614   8.725  25.315  0.1296 -0.2651 -0.0683
 8425W        W51342   2.038   7.928  26.911  0.0755 -0.3234 -0.0026
 8426W        W51343   0.764  11.232  24.707 -0.3994 -0.2176  0.0654
 8427W        W51344   5.054  10.825  26.760 -0.3569  0.3901 -0.0117
 8428W        W51345   2.074  10.913  27.262  0.1148  0.0193  0.1887
 8429W        W51346   1.319  12.420  26.709  0.2535  0.2511 -0.0286
 8430W        W51347  34.476   5.965  26.479 -0.0319 -0.2442 -0.0633
 8431W        W51348   3.532  10.845  26.854 -0.0586  0.2531  0.0129
 8432W        W51349   1.916  10.416  28.074  0.2666  0.0747 -0.4258
 8433W        W51350   1.860  10.573  23.994 -0.2509  0.1438  0.1452
 8434W        W51351   2.967   8.539  26.130  0.1567 -0.0808 -0.0151
 8435W        W51352   1.134   9.389  25.729 -0.2703  0.0731  0.0949
 8436W        W51353  32.956   7.429  26.138  0.3356  0.2750 -0.0756
 8437W        W51354   2.380   8.733  26.838  0.1800  0.0142 -0.1631
 8438W        W51355   2.386   8.167  28.880  0.0132  0.3307  0.0945
 8439W        W51356   0.622   4.223  24.804  0.2237 -0.1837 -0.2464
 8440W        W51357   3.445   7.332  24.916 -0.2398  0.0359  0.1113
 8441W        W51358   2.734  11.509  23.154 -0.2517  0.0698 -0.2741
 8442W        W51359   0.048   7.440  27.785  0.3185 -0.0237  0.0700
 8443W        W51360   1.232   8.497  26.909  0.2508 -0.0433 -0.0605
 8444W        W51361   0.528   8.829  27.309  0.0008 -0.2727  0.1368
 8445W        W51362   1.687  10.296  25.998  0.1335 -0.0788 -0.0010
 8446W        W51363   2.089   8.401  27.116 -0.0243 -0.2553 -0.0798
 8447W        W51364   1.202   8.389  25.687 -0.3997 -0.0987  0.0486
 8448W        W51365   3.192   8.813  26.792  0.0668  0.0187  0.0340
 8449W        W51366   4.311  11.969  27.739  0.0312 -0.0289  0.3760
 8450W        W51367   5.002  10.333  26.922 -0.1323 -0.1084  0.0084
 8451W        W51368   2.163  10.195  27.182  0.1641  0.3668  0.0308
 8452W        W51369   3.270   7.326  26.395 -0.3082  0.0503  0.0118
 8453W        W51370  33.407   5.857  26.856  0.0272  0.0319  0.3408
 8454W        W51371   1.211   7.777  25.818 -0.0911 -0.3532  0.1123
 8455W        W51372   2.415   9.065  26.464  0.0502  0.1681 -0.2086
 8456W        W51373   1.789   7.912  27.398 -0.1092 -0.2122 -0.0292
 8457W        W51374   3.575   6.819  26.203  0.1336 -0.0296  0.2098
 8458W        W51375   2.913   6.636  27.102 -0.0569  0.0764 -0.2257
 8459W        W51376   2.002  10.745  26.316 -0.0977  0.0710  0.0355
 8460W        W51377   2.747  11.269  26.766 -0.1682 -0.1113  0.1237
 8461W        W51378   0.668   9.875  30.274 -0.1763 -0.0249  0.1062
 8462W        W51379   2.258   7.621  27.684 -0.0410 -0.0672  0.0014
 8463W        W51380   2.120   8.310  27.619  0.1873  0.0497 -0.0502
 8464W        W51381   5.280   7.079  30.981  0.0489 -0.2005  0.0225
 8465W        W51382   1.997   8.490  29.642 -0.0748  0.1372  0.3369
 8466W        W51383   4.342  11.241  27.764  0.3967  0.2042 -0.0714
 8467W        W51384   1.453   8.495  29.132 -0.1902 -0.0633 -0.0101
 8468W        W51385   3.979   9.592  28.922  0.2314 -0.3204 -0.1825
 8469W        W51386   3.003  13.319  29.138 -0.1587 -0.5349 -0.3762
 8470W        W51387   2.267  11.157  28.546  0.2698 -0.0871 -0.0840
 8471W        W51388   1.663   8.790  29.886  0.1661  0.2601 -0.1918
 8472W        W51389   0.711  11.166  30.669 -0.0456  0.3540 -0.1948
 8473W        W51390   0.315   7.231  27.418 -0.0552  0.0457  0.3322
 8474W        W51391   1.471   7.240  31.880  0.2318  0.1271 -0.1303
 8475W        W51392   2.510   9.319  31.463 -0.1220 -0.0313  0.1270
 8476W        W51393   1.797   9.283  27.776 -0.0746  0.0637  0.1051
 8477W        W51394   3.368   8.146  29.546  0.2225  0.2366 -0.6765
 8478W        W51395   1.182   9.333  29.450  0.1666  0.1838 -0.0861
 8479W        W51396   2.439   9.374  29.956 -0.3510 -0.2203 -0.4309
 8480W        W51397   1.937  10.138  29.844  0.1051 -0.0322 -0.0151
 8481W        W51398   3.035   6.419  29.904  0.0715  0.1336 -0.0554
 8482W        W51399   1.435  10.381  29.922  0.1780  0.1010  0.2452
 8483W        W51400   0.835  10.309  26.645 -0.0990  0.0064 -0.1443
 8484W        W51401   0.717   9.589  29.030 -0.3071 -0.0962 -0.1288
 8485W        W51402   0.055   9.618  29.604  0.0284  0.0865  0.1028
 8486W        W51403   3.716   8.001  30.542  0.3493  0.0982 -0.1076
 8487W        W51404   3.198  11.184  28.214  0.3035  0.0746  0.1513
 8488W        W51405   2.486  10.062  29.804 -0.1027 -0.1314  0.2604
 8489W        W51406   3.417  10.517  28.692  0.2755 -0.0991  0.6689
 8490W        W51407   3.998   9.288  29.337 -0.0863  0.1923 -0.0435
 8491W        W51408   1.834   9.264  29.731  0.2876  0.3577  0.3834
 8492W        W51409  34.463  11.334  29.317 -0.0076  0.2106  0.0228
 8493W        W51410   1.676  11.439  27.838 -0.1003 -0.0950  0.2652
 8494W        W51411   3.035   8.955  28.988  0.4116  0.1062 -0.1146
 8495W        W51412   2.578  10.399  31.533  0.1244 -0.0792  0.2955
 8496W        W51413   1.736  12.432  29.933 -0.1508 -0.0640 -0.4818
 8497W        W51414   1.078   9.841  28.186  0.1061  0.1933  0.2586
 8498W        W51415   2.049  10.540  30.926 -0.1509  0.2848 -0.0422
 8499W        W51416   0.389   9.903  31.247  0.0029  0.3256  0.1713
 8500W        W51417   3.595   9.959  31.618 -0.0259 -0.1448  0.0744
 8501W        W51418   2.772   9.252  29.391 -0.2499 -0.3830 -0.1202
 8502W        W51419   1.819   8.855  29.362  0.1145 -0.2808  0.0061
 8503W        W51420   0.130  10.502  27.955 -0.2309 -0.2143 -0.2165
 8504W        W51421   3.503   6.881  29.932 -0.0927  0.1887 -0.0010
 8505W        W51422   0.357   9.501  30.073  0.3545  0.0500  0.0346
 8506W        W51423   6.423   7.928  29.966  0.2154  0.2549  0.0074
 8507W        W51424   2.067  10.519  27.601 -0.1178  0.0531  0.0355
 8508W        W51425   5.316   8.212  28.017 -0.0625 -0.0298 -0.1107
 8509W        W51426   1.545   8.706  27.281  0.2851 -0.0431 -0.1671
 8510W        W51427   4.104   5.769  27.744  0.0515  0.0961  0.1600
 8511W        W51428   2.562   6.351  28.007 -0.3360  0.2209 -0.1161
 8512W        W51429   0.760  10.408  30.294  0.4148 -0.2361 -0.2591
 8513W        W51430   1.411   9.064  29.124 -0.0194  0.2151  0.0514
 8514W        W51431   3.502  12.192  28.287 -0.0532  0.1395  0.1191
 8515W        W51432   1.967   8.291  28.223 -0.1463 -0.0912 -0.0952
 8516W        W51433   4.001   6.715  29.111 -0.0403 -0.0474  0.1210
 8517W        W51434   0.835  10.693  29.695  0.4349  0.0569 -0.1742
 8518W        W51435   0.976   8.273  28.811 -0.1615  0.0458  0.0715
 8519W        W51436   3.028  10.387  28.252  0.1012 -0.2010  0.3639
 8520W        W51437   1.956  10.382  28.983 -0.0620  0.3255  0.0323
 8521W        W51438   2.269   9.418  27.972  0.1415  0.2369 -0.1728
 8522W        W51439  34.549  10.069  28.672  0.1488 -0.1366  0.1702
 8523W        W51440   1.445   7.757  29.677 -0.2735  0.1747  0.2128
 8524W        W51441  34.017   9.394  30.730 -0.1260  0.0202  0.2167
 8525W        W51442   0.382   7.507  26.517 -0.0091  0.1312  0.2583
 8526W        W51443   4.269  10.207   0.035  0.1297  0.1407  0.4503
 8527W        W51444  34.455  11.741  28.999  0.3161 -0.0327  0.1968
 8528W        W51445   4.785   8.055  29.654 -0.3405  0.4259  0.1685
 8529W        W51446   1.882   9.693  28.115  0.0870  0.2012 -0.1549
 8530W        W51447   2.996  11.227  29.138 -0.1180  0.1408  0.1595
 8531W        W51448   1.854   8.999  28.905 -0.0424  0.3490 -0.1696
 8532W        W51449   5.939   7.872  29.836 -0.1554 -0.3245  0.1500
 8533W        W51450   4.905   5.501  30.192  0.2005 -0.3060  0.0158
 8534W        W51451   1.471   9.012  30.456 -0.1381  0.2180  0.1157
 8535W        W51452   1.703  10.411  28.540  0.1395 -0.0022 -0.0413
 8536W        W51453   5.054  10.639  30.079  0.0303 -0.0998 -0.1001
 8537W        W51454   4.728   7.338  26.262  0.0939 -0.0241  0.0652
 8538W        W51455   1.389  11.979  30.543 -0.0938  0.0375  0.2584
 8539W        W51456   2.216   7.670  30.111  0.0062 -0.3619 -0.0054
 8540W        W51457   1.354  10.786   0.454  0.0320 -0.0707  0.3011
 8541W        W51458   0.483  11.314  27.464  0.0309 -0.1215 -0.2137
 8542W        W51459   0.600   9.081  29.197  0.2471 -0.0970 -0.0378
 8543W        W51460  33.471   8.510  28.598 -0.0019 -0.0030 -0.1355
 8544W        W51461   1.142   6.985  29.768  0.1213  0.0726  0.1028
 8545W        W51462   1.284   8.807  29.540 -0.0760 -0.0594 -0.2339
 8546W        W51463   2.842   7.058  28.085  0.0977 -0.1557 -0.0832
 8547W        W51464   2.835   7.901  31.018  0.0711 -0.0401 -0.2765
 8548W        W51465   3.941   6.880  28.405 -0.0107 -0.0819 -0.1575
 8549W        W51466  34.521   8.882  27.998 -0.0343 -0.1454 -0.0965
 8550W        W51467   3.811  11.555  29.112  0.2709  0.1310 -0.1100
 8551W        W51468   2.881   7.496  27.188 -0.1839  0.0486  0.0280
 8552W        W51469   3.027   8.164  28.884 -0.2809 -0.2441  0.0509
 8553W        W51470   2.457   8.084  29.931 -0.1589  0.0107  0.0152
 8554W        W51471   1.865   7.920  28.845  0.0703 -0.0810 -0.3062
 8555W        W51472   1.118  10.296  29.495 -0.0403 -0.1848 -0.1886
 8556W        W51473   2.819   9.013  31.134 -0.2395 -0.2389 -0.3138
 8557W        W51474   2.949  10.285  29.805 -0.1710 -0.2385 -0.2313
 8558W        W51475  33.334   8.744  30.459  0.2985 -0.0305 -0.0169
 8559W        W51476   3.951   6.085  30.215  0.0844  0.2050  0.0447
 8560W        W51477   1.390   7.050  28.206 -0.3008  0.0707 -0.2579
 8561W        W51478  33.522   9.257  30.170 -0.1780  0.3718  0.1668
 8562W        W51479   5.154   7.446  31.281  0.2586 -0.1076  0.2258
 8563W        W51480   5.055  10.327  29.569 -0.3218 -0.0420 -0.1785
 8564W        W51481   6.079  11.133  30.036  0.1287 -0.1139  0.1907
 8565W        W51482   2.431  11.367  30.348  0.0748  0.1519  0.3500
 8566W        W51483   0.895   9.676  31.104  0.0877 -0.2073 -0.0108
 8567W        W51484  34.405   7.840  27.702 -0.0234 -0.1151 -0.0813
 8568W        W51485   0.073  12.720   0.599  0.1804  0.0795  0.1828
 8569W        W51486   0.268  10.109  28.284  0.0449  0.0558 -0.2585
 8570W        W51487   2.619   7.326  28.463  0.1975  0.0834  0.0254
 8571W        W51488   2.815  11.224  28.568  0.0162 -0.0446 -0.0962
 8572W        W51489   2.821  10.802  28.095 -0.3505 -0.0610  0.0813
 8573W        W51490   0.044  10.404  31.812 -0.1016 -0.0412  0.3228
 8574W        W51491   3.757   8.809   1.165 -0.1639  0.2008 -0.2785
 8575W        W51492   3.781   7.266  29.867 -0.2406  0.1287  0.1184
 8576W        W51493   4.638  10.768  29.680 -0.0091 -0.0893 -0.1223
 8577W        W51494  34.513   7.125  25.841 -0.1383  0.4644  0.0729
 8578W        W51495   3.846   8.247  29.636 -0.1177  0.3105  0.0986
 8579W        W51496   0.880  10.982  28.807 -0.0707 -0.0863 -0.1035
 8580W        W51497   1.215   9.847  29.353 -0.0563  0.0786  0.1133
 8581W        W51498   1.321  11.202  28.667  0.0445 -0.0037 -0.1962
 8582W        W51499   4.215   6.454  28.286 -0.2495  0.2773  0.0258
 8583W        W51500  34.615  10.380  30.324  0.5799  0.1081  0.2605
 8584W        W51501   2.090   7.247  31.155 -0.0586 -0.0178  0.0490
 8585W        W51502   1.636   7.099  26.836  0.0570 -0.2206 -0.2932
 8586W        W51503   0.935  10.157  29.058 -0.1635  0.0348 -0.1443
 8587W        W51504   1.904   7.906  27.855 -0.2487  0.3638 -0.2162
 8588W        W51505   3.853   8.889  27.275  0.0179 -0.0032  0.0382
 8589W        W51506   3.794   9.908  31.139 -0.2773 -0.2640 -0.2433
 8590W        W51507   4.905   9.296  28.829  0.0311 -0.0716  0.0589
 8591W        W51508   4.041   7.064  27.384  0.1442 -0.3263  0.0293
 8592W        W51509   1.336   7.971  27.891  0.2640 -0.2298  0.0544
 8593W        W51510   0.673  10.237  29.803  0.2526 -0.1943  0.0972
 8594W        W51511   4.133   9.182  31.541  0.0524  0.2079  0.0662
 8595W        W51512   3.122   7.294   0.657 -0.1880 -0.1206 -0.1596
 8596W        W51513   1.753   6.851  27.796 -0.2484  0.0118  0.3881
 8597W        W51514   2.242  11.703  28.059 -0.0021 -0.3861  0.0086
 8598W        W51515   1.929   9.574  28.683  0.1903  0.0919  0.0336
 8599W        W51516   3.650  11.280  30.377 -0.2534  0.1976 -0.0092
 8600W        W51517   3.218   7.777  30.335 -0.0774 -0.0638  0.1591
 8601W        W51518   3.206   8.381  30.470 -0.0665 -0.2647 -0.0258
 8602W        W51519   3.107   7.486  28.402  0.1171  0.1132  0.0030
 8603W        W51520   3.449   7.024  30.442  0.0998  0.1133  0.1490
 8604W        W51521  34.653  10.024  27.741 -0.1511 -0.1133 -0.0546
 8605W        W51522   5.138   6.473  29.342 -0.1462 -0.0640  0.1475
 8606W        W51523   2.697   7.804  29.160  0.0962 -0.2286 -0.1143
 8607W        W51524   5.190   7.586  30.126 -0.1555 -0.0095  0.3460
 8608W        W51525   4.729   7.902  30.198 -0.0653 -0.3042  0.4820
 8609W        W51526   3.594   7.360  28.369  0.3980 -0.2113 -0.2558
 8610W        W51527   4.276   8.060  29.884 -0.0121  0.0081  0.0045
 8611W        W51528   1.764   8.611  30.605 -0.0301 -0.0629  0.3565
 8612W        W51529   3.657   5.956  30.615 -0.0685 -0.1378  0.2575
 8613W        W51530   1.614   9.864  31.492  0.2735 -0.2472 -0.2895
 8614W        W51531  33.985  12.961  31.010 -0.0943 -0.0622 -0.0222
 8615W        W51532   3.545   9.163  30.245 -0.1663  0.0901 -0.0014
 8616W        W51533   3.206   8.608  28.592  0.0747  0.0629  0.1002
 8617W        W51534   4.462   7.792  30.600 -0.3454  0.0869  0.0626
 8618W        W51535   2.640   7.797  28.626 -0.0367 -0.3203 -0.1266
 8619W        W51536  33.773   9.088  27.771  0.2016  0.0660 -0.2376
 8620W        W51537   1.244  11.982  29.290  0.1474  0.0406 -0.1347
 8621W        W51538   1.789   8.831  31.573 -0.0811 -0.2789 -0.1597
 8622W        W51539   1.164   9.729  30.402 -0.0006 -0.0110  0.0885
 8623W        W51540   1.229  10.663  25.962 -0.0083 -0.0136  0.1341
 8624W        W51541   2.679   8.506  30.306  0.1607  0.0474  0.3143
 8625W        W51542   1.333  11.159  27.638 -0.3638  0.0429  0.0177
 8626W        W51543   5.525   8.008  28.526  0.0981 -0.0029 -0.1198
 8627W        W51544   0.304  10.352  28.702  0.0759  0.0804 -0.0675
 8628W        W51545   1.253   7.120  27.164  0.1502 -0.1791  0.0199
 8629W        W51546  33.440   6.378  27.229  0.2996  0.2575 -0.0369
 8630W        W51547   2.584   6.267  28.507  0.0849 -0.0138 -0.2781
 8631W        W51548   2.573   8.669  27.606 -0.3128 -0.3007  0.0538
 8632W        W51549   0.712  10.305  31.127 -0.0164 -0.3516  0.1063
 8633W        W51550   3.065   8.591  29.715 -0.0823  0.0904  0.2773
 8634W        W51551   0.127  10.514  29.121 -0.0213 -0.0147  0.1659
 8635W        W51552   3.371   9.513  29.458  0.0600  0.0714 -0.1990
 8636W        W51553   4.064   6.784  27.822 -0.0122  0.0924  0.2173
 8637W        W51554   4.004  10.297  29.306  0.0419 -0.0259  0.2084
 8638W        W51555   1.883  10.965  30.714  0.1337 -0.0532  0.0480
 8639W        W51556   2.289   8.628  30.680  0.1101 -0.1179  0.0381
 8640W        W51557   2.921  10.407  30.333 -0.1651 -0.0088  0.6067
 8641W        W51558   2.919   6.463  29.328 -0.0062 -0.1431  0.0336
 8642W        W51559   0.539  10.154  31.644  0.1188  0.0466  0.0629
 8643W        W51560   1.432  12.110  29.733 -0.0644 -0.5055  0.0026
 8644W        W51561   1.772   8.410  30.152  0.0827  0.4028 -0.3277
 8645W        W51562   0.033  11.222  27.627 -0.0454 -0.0124 -0.0255
 8646W        W51563   5.442   9.569  29.848  0.0815 -0.1956 -0.0179
 8647W        W51564   3.121   8.538  31.226  0.0036 -0.0128  0.2779
 8648W        W51565   4.201   5.279  31.221  0.0832 -0.1983  0.1413
 8649W        W51566   2.302   5.855  27.203  0.0189 -0.0328  0.0243
 8650W        W51567   2.482   9.009  30.399  0.0194 -0.0890 -0.0726
 8651W        W51568   3.727   7.766  29.452 -0.0859  0.1941 -0.3291
 8652W        W51569   3.970   8.771  29.496  0.0029 -0.0296  0.0321
 8653W        W51570  34.018   9.653  31.467  0.2829  0.0851 -0.1589
 8654W        W51571   1.936   8.049  29.877 -0.1927  0.0011 -0.3203
 8655W        W51572   2.016   9.832  29.205 -0.0216 -0.3099 -0.2204
 8656W        W51573   3.998   9.082  30.123 -0.0561  0.1017 -0.2001
 8657W        W51574  34.562   9.196  28.395  0.0739 -0.1186 -0.0363
 8658W        W51575  34.477   9.194  29.975 -0.0775  0.2267 -0.2005
 8659W        W51576   1.596  10.083  29.514 -0.0008  0.3931 -0.0003
 8660W        W51577   1.820  10.915  28.577  0.1280 -0.0052  0.1364
 8661W        W51578   1.386   9.652  29.790 -0.1850  0.0801  0.0875
 8662W        W51579  33.110  10.504  29.950  0.1962 -0.1987 -0.1544
 8663W        W51580   1.613   9.977  28.895 -0.1342  0.3170  0.3405
 8664W        W51581   3.986   8.090  28.419  0.1815 -0.1970  0.1964
 8665W        W51582   5.814  10.023  27.923 -0.0582  0.3817  0.3549
 8666W        W51583   3.201   8.029  27.849 -0.1027 -0.0855 -0.1504
 8667W        W51584   4.726   8.393  31.348  0.1322  0.0504 -0.2768
 8668W        W51585   1.266   9.349  27.873 -0.1206  0.0464  0.0506
 8669W        W51586   4.032   6.163  29.143  0.0691 -0.1002  0.1740
 8670W        W51587   2.746   8.949  29.867 -0.0685 -0.1857 -0.2582
 8671W        W51588   1.907  11.352  28.238  0.0435  0.4130  0.3129
 8672W        W51589   0.110  11.598  31.306 -0.0269  0.0816 -0.0155
 8673W        W51590   3.181   9.267  31.364  0.2802  0.0665  0.0569
 8674W        W51591   0.022   9.964  30.951  0.2140 -0.2934  0.1028
 8675W        W51592   1.617   9.582  29.194 -0.0864  0.1566 -0.1586
 8676W        W51593   2.699   7.654  28.030  0.3523  0.2399 -0.0022
 8677W        W51594   0.943  10.490  31.570  0.1271  0.1342 -0.2623
 8678W        W51595   3.689  10.138  29.750  0.0697  0.3652 -0.2729
 8679W        W51596   2.765  10.625  28.612  0.0779 -0.0382  0.1866
 8680W        W51597   5.135   7.492  28.679  0.2590  0.3512  0.0877
 8681W        W51598   1.368   8.762  28.700  0.1593 -0.0830 -0.0158
 8682W        W51599   1.499  10.455  27.623 -0.2279  0.0479  0.2491
 8683W        W51600   2.402  11.387  28.980 -0.2815  0.0506 -0.1074
 8684W        W51601  34.477   8.752  29.634  0.2114  0.0183  0.0206
 8685W        W51602   3.630   9.067  29.725 -0.1398  0.4036 -0.0262
 8686W        W51603   2.413  10.212  28.368 -0.1903  0.1252  0.0369
 8687W        W51604   2.760   7.951  27.010 -0.0115  0.0062  0.0428
 8688W        W51605   4.310   9.898  29.964  0.0699 -0.1770  0.0382
 8689W        W51606   3.947   7.743  28.011 -0.3131 -0.2241 -0.1179
 8690W        W51607   2.011   8.514  31.096 -0.1785 -0.1541  0.1202
 8691W        W51608   2.010   6.762  31.098 -0.1732  0.3030 -0.0796
 8692W        W51609   2.594  10.438  30.758  0.0922 -0.1312  0.0612
 8693W        W51610   3.104   6.947  25.979 -0.2579  0.0148  0.3320
 8694W        W51611   2.767   7.151  29.920  0.3366  0.0680 -0.4166
 8695W        W51612   6.967   8.133  29.055 -0.4203  0.1667  0.0203
 8696W        W51613   1.969   8.741  27.799 -0.1075 -0.0410 -0.1402
 8697W        W51614   2.179   7.569  28.653  0.0937 -0.2223 -0.3946
 8698W        W51615   4.272   8.702  30.454 -0.0254 -0.1626  0.1015
 8699W        W51616   0.508   6.713  27.620  0.1987  0.4709  0.3598
 8700W        W51617   3.745   7.512  30.412  0.2108  0.0854  0.2937
 8701W        W51618   2.250   8.907  27.336 -0.1481  0.0621 -0.1536
 8702W        W51619   3.231   9.982  29.496 -0.1633  0.1523  0.0064
 8703W        W51620   2.760   7.845  27.520  0.1481  0.2689 -0.1398
 8704W        W51621   2.669   8.733  28.656 -0.1855  0.3786 -0.0059
 8705W        W51622   0.401  10.761  30.485 -0.0814  0.2301  0.0634
 8706W        W51623   0.592   7.652  27.152 -0.2734  0.1572 -0.1129
 8707W        W51624   1.315  10.091  27.345 -0.1457  0.1571  0.2483
 8708W        W51625   2.429   9.270  30.867  0.0961 -0.0364  0.1171
 8709W        W51626   2.667  10.897  30.363  0.3039 -0.0267  0.0687
 8710W        W51627   4.153   6.892  26.356  0.0766 -0.1004  0.3820
 8711W        W51628   3.057   8.841   1.091 -0.0272  0.1923 -0.1403
 8712W        W51629   2.564  12.010  29.579  0.3143 -0.0302 -0.1362
 8713W        W51630   2.824   5.756  29.528 -0.0597 -0.0569 -0.0453
 8714W        W51631   1.540   9.443  30.632 -0.1315 -0.0519  0.0128
 8715W        W51632   1.121  10.717  30.089 -0.1132  0.2213 -0.1491
 8716W        W51633   1.825  10.726  29.468 -0.0883  0.3122 -0.0148
 8717W        W51634   4.666   7.617  28.837 -0.4911  0.1040  0.2008
 8718W        W51635   3.568   6.941  28.848  0.3166 -0.0631 -0.0947
 8719W        W51636   2.056   9.585  30.597  0.0180 -0.2665  0.1610
 8720W        W51637   3.642   7.523  29.044  0.0488 -0.1442  0.1901
 8721W        W51638   3.327   9.685  31.053  0.4492 -0.0671  0.0211
 8722W        W51639  34.479   9.704  30.145  0.0798  0.0341  0.0575
 8723W        W51640   1.766  10.851  29.932  0.2894  0.0266  0.2479
 8724W        W51641   2.783   8.445  27.981 -0.1175  0.2527  0.2336
 8725W        W51642  34.140  10.197  28.392 -0.0074 -0.1611 -0.1626
 8726W        W51643  34.048   8.911  29.847  0.0822  0.3740 -0.2421
 8727W        W51644   3.835  10.250  30.347  0.0210 -0.0665  0.1197
 8728W        W51645   3.723   9.828  29.296  0.0354 -0.0390  0.2376
 8729W        W51646   2.324   7.284  28.079  0.0559 -0.2927 -0.0315
 8730W        W51647   1.405  10.278  28.137  0.3540  0.3616  0.0815
 8731W        W51648  34.542  11.415  30.392  0.2857  0.2316  0.1732
 8732W        W51649  34.603  10.598  28.416  0.1122  0.0706  0.0024
 8733W        W51650   1.208   9.631  28.877 -0.0416 -0.1433  0.1274
 8734W        W51651   4.100   9.919  31.509 -0.0075 -0.0861  0.0594
 8735W        W51652   1.988  10.023  28.439 -0.0457 -0.1386 -0.1891
 8736W        W51653   3.482  10.988  29.176  0.0982 -0.0407 -0.2540
 8737W        W51654   2.166   6.209  29.831 -0.1229  0.2197  0.0525
 8738W        W51655   5.135   8.888  29.986  0.0258 -0.0136 -0.4441
 8739W        W51656  34.080  10.667  28.305 -0.1567  0.1678 -0.2168
 8740W        W51657   5.346   9.079  31.147 -0.0232  0.0410  0.0369
 8741W        W51658   1.292  10.309  30.373  0.0827  0.2634  0.0993
 8742W        W51659   2.469  11.593  29.879  0.2404 -0.0421  0.2857
 8743W        W51660   3.521   9.525  27.973  0.2997  0.0130  0.2414
 8744W        W51661   3.426   8.804  30.602 -0.2511 -0.0719  0.3265
 8745W        W51662   5.395   6.906  28.067  0.0083  0.0171  0.3957
 8746W        W51663   2.107  12.118  31.546 -0.2362 -0.2600  0.0763
 8747W        W51664   2.228   8.951  29.701 -0.1176  0.1248 -0.0736
 8748W        W51665   2.134   5.908  26.421 -0.1736 -0.2789 -0.0065
 8749W        W51666   2.966   7.426  30.661 -0.0066 -0.2334  0.0291
 8750W        W51667   4.656   9.216  31.331 -0.1806 -0.2733 -0.2397
 8751W        W51668   2.163  10.071  30.660  0.0085 -0.2102  0.1669
 8752W        W51669   3.304  13.246  26.536 -0.3106  0.3281  0.1536
 8753W        W51670   0.909   9.537  29.870 -0.1142 -0.2549  0.3531
 8754W        W51671   0.328   9.001  30.046  0.2943  0.0463  0.0548
 8755W        W51672   5.536   8.513  28.401  0.0278  0.1675  0.4086
 8756W        W51673   2.164   8.678  28.710  0.3442  0.1531 -0.2076
 8757W        W51674   1.979   8.373  29.114 -0.0178 -0.0175 -0.1169
 8758W        W51675   2.589  11.933  26.459  0.0113 -0.1378 -0.0807
 8759W        W51676   1.499  10.773  30.442  0.1285  0.0021 -0.1410
 8760W        W51677   1.580   9.940  30.148  0.0016 -0.1484  0.0358
 8761W        W51678   1.233   8.052  29.248 -0.1491 -0.2379  0.0614
 8762W        W51679   4.190   6.862  29.550  0.0694  0.3923  0.1256
 8763W        W51680   0.238   9.273  30.524 -0.2012  0.1168 -0.0931
 8764W        W51681   5.229   5.483  31.498 -0.0833 -0.1197  0.2602
 8765W        W51682   2.808   8.513  29.183 -0.0520  0.2268 -0.1009
 8766W        W51683   4.859   6.918  28.239 -0.0798  0.0694  0.0396
 8767W        W51684   4.644   9.551  31.738 -0.3247 -0.1544  0.1157
 8768W        W51685   0.356   9.161  28.677 -0.2081  0.1884 -0.0042
 8769W        W51686   1.643   7.805  26.558 -0.0450 -0.2597 -0.3010
 8770W        W51687   4.237   9.462  30.367 -0.1723  0.0405  0.0328
 8771W        W51688   0.926   6.791  27.864  0.1370  0.4376 -0.1641
 8772W        W51689   4.440  10.171  30.370  0.3248 -0.1074 -0.3406
 8773W        W51690   1.708   8.079  29.381  0.0285 -0.3799 -0.4064
 8774W        W51691   1.107   9.337  28.333  0.2884  0.0222 -0.1452
 8775W        W51692  33.597   8.350  30.150 -0.1463  0.1550 -0.0483
 8776W        W51693   5.553  10.260  31.300 -0.0760  0.1235  0.0897
 8777W        W51694   3.731  10.084  28.821 -0.1700  0.0085 -0.1543
 8778W        W51695   0.910   6.844  30.285  0.1726  0.1901  0.0865
 8779W        W51696   4.146   7.652  28.966 -0.0642 -0.1371 -0.1999
 8780W        W51697   1.480   8.246  31.089 -0.1575 -0.2500 -0.0024
 8781W        W51698   3.031  10.643  27.662  0.0884 -0.4397  0.1173
 8782W        W51699   2.421   7.671  29.627  0.0456  0.0495  0.2504
 8783W        W51700   2.192  10.726  30.451 -0.2796 -0.1532 -0.1198
 8784W        W51701   1.156   8.589  30.036 -0.0211 -0.0079 -0.0625
 8785W        W51702   4.700  11.381  31.232 -0.2684  0.1225  0.2085
 8786W        W51703   5.023   9.573  30.969 -0.1402  0.2967 -0.3172
 8787W        W51704   3.167   5.621  28.233 -0.0231 -0.4250  0.1965
 8788W        W51705  34.595   7.525  30.789 -0.1044 -0.0373 -0.2274
 8789W        W51706   0.624  10.527  27.895 -0.2125 -0.1130  0.1265
 8790W        W51707   2.006   6.019  30.317  0.0410 -0.1203  0.0835
 8791W        W51708   2.472   7.344  29.035 -0.2406  0.2563 -0.0542
 8792W        W51709   4.377  10.892  28.723  0.0889 -0.0392  0.2842
 8793W        W51710   2.540   8.551   0.126  0.1302 -0.4413 -0.3984
 8794W        W51711   2.385  10.280  30.255  0.0341 -0.4202 -0.4354
 8795W        W51712   1.634  10.082  30.613 -0.1817  0.3725 -0.2346
 8796W        W51713   0.220   9.800  26.723  0.0299 -0.3000  0.0119
 8797W        W51714   2.805   9.773  29.615 -0.2373  0.0011  0.0674
 8798W        W51715   2.018  11.228  29.478 -0.3527 -0.0457  0.1086
 8799W        W51716   1.578  12.355  27.951  0.1267  0.1199 -0.1759
 8800W        W51717   3.941  10.470  28.524  0.1584  0.2774  0.2493
 8801W        W51718   2.491  10.370  28.970  0.4820  0.0496  0.1783
 8802W        W51719   3.965  10.968  27.602  0.1195 -0.0792  0.1342
 8803W        W51720   2.585   6.777  27.750  0.0554 -0.2232  0.0486
 8804W        W51721   4.442   6.011  28.001 -0.2541  0.0090  0.0675
 8805W        W51722   2.793   6.853  31.133  0.0267  0.1454  0.1122
 8806W        W51723   0.656  11.071  29.284 -0.0747 -0.0177 -0.0670
 8807W        W51724  33.772   8.173  28.343 -0.2612 -0.1411  0.1651
 8808W        W51725   1.068  10.799  27.838  0.0297  0.0977  0.3510
 8809W        W51726   0.691  11.902  28.604  0.5089  0.0908  0.1093
 8810W        W51727   1.908   5.893  28.296  0.0788  0.1497  0.3390
 8811W        W51728   1.054  10.615  30.737  0.1762  0.1029  0.1111
 8812W        W51729   0.715   9.408  27.984 -0.1056  0.0895 -0.0025
 8813W        W51730   1.895   7.322  28.315 -0.0361 -0.3284  0.0254
 8814W        W51731   5.173  11.592  27.997  0.1478 -0.1028  0.1489
 8815W        W51732   3.587   8.076  29.107  0.0550 -0.0942 -0.2370
 8816W        W51733   0.549   8.718  29.568  0.2932  0.2015 -0.1759
 8817W        W51734   2.847   9.989  28.561 -0.2247  0.1552 -0.1020
 8818W        W51735   3.368  11.816  27.925 -0.0377  0.0570 -0.2509
 8819W        W51736   3.147   7.003  28.594 -0.1285 -0.0998  0.1578
 8820W        W51737   5.004  11.328   0.016 -0.0515  0.0408  0.1434
 8821W        W51738   0.216   8.616  27.667 -0.0909 -0.0899  0.1566
 8822W        W51739   2.156   6.800  30.217 -0.0709  0.1546  0.0937
 8823W        W51740   3.325   8.113  31.405  0.0816 -0.0363 -0.2461
 8824W        W51741  32.683   8.677  27.321 -0.2148 -0.1740  0.1129
 8825W        W51742   0.117   9.862  27.238 -0.0224  0.2039 -0.0387
 8826W        W51743   1.810  11.935  28.146  0.0290  0.2770  0.0196
 8827W        W51744   2.107  10.933  28.034  0.1565 -0.1657 -0.0129
 8828W        W51745   2.074   9.610  31.483  0.0343 -0.2216 -0.4129
 8829W        W51746   2.122  11.464  30.831  0.1081  0.1046  0.0162
 8830W        W51747   0.525   8.325  30.498 -0.3098  0.0248  0.0545
 8831W        W51748   3.168   9.067  29.643 -0.0902  0.0882 -0.2066
 8832W        W51749   1.910  10.083  31.125 -0.0355  0.0942 -0.1802
 8833W        W51750   5.808   7.490  30.150 -0.2323 -0.2955  0.1141
 8834W        W51751   4.396   5.820  29.189 -0.2058  0.5035 -0.0760
 8835W        W51752   0.724   8.960  28.290 -0.1387 -0.0735 -0.3400
 8836W        W51753   0.954   8.392  29.536  0.2575  0.1408 -0.3273
 8837W        W51754  34.203   9.787  31.049  0.1308  0.1507 -0.0436
 8838W        W51755   2.813  10.789  29.839  0.3600  0.3173  0.2202
 8839W        W51756   3.693   6.945  29.449  0.0807  0.0828  0.0968
 8840W        W51757   3.512   6.445  27.989 -0.0967  0.1370 -0.0625
 8841W        W51758   4.526  10.282  29.439  0.0601 -0.2393  0.2834
 8842W        W51759  32.669   8.725  29.922 -0.2792  0.2112 -0.0486
 8843W        W51760   2.916   6.037  28.203 -0.0110 -0.1940  0.3232
 8844W        W51761   3.549   8.199  30.048 -0.2774  0.2152 -0.2831
 8845W        W51762   4.315   9.733  29.421 -0.0190 -0.2730  0.5406
 8846W        W51763   3.461  10.825  31.555  0.3801  0.3050 -0.0457
 8847W        W51764   0.511   8.202  28.638 -0.2577  0.0586  0.1033
 8848W        W51765   4.246   7.655  28.442 -0.4012  0.1022  0.1030
 8849W        W51766   3.747  10.712  29.583 -0.2057  0.1361 -0.0116
 8850W        W51767   2.915  14.154  30.259  0.0689 -0.0601  0.2308
 8851W        W51768   2.104  10.142  31.588 -0.1763 -0.0619  0.0733
 8852W        W51769   4.449   8.922  29.359 -0.3313  0.3723  0.2339
 8853W        W51770   0.353   6.917  30.499 -0.1827  0.1424 -0.0425
 8854W        W51771  33.919   8.980  29.324  0.1231 -0.0814  0.0313
 8855W        W51772   0.975   8.717  29.146 -0.2475 -0.0766 -0.0923
 8856W        W51773   4.588   8.277  30.547 -0.2501  0.0254  0.1281
 8857W        W51774   1.826   7.064  29.455 -0.2533 -0.4459  0.0258
 8858W        W51775   4.226   7.178  28.681 -0.0018 -0.1193 -0.1265
 8859W        W51776   2.808  12.313  30.345  0.1799 -0.0646  0.1301
 8860W        W51777   2.269  10.682  28.632 -0.0482 -0.2285  0.5850
 8861W        W51778   5.286   7.789   0.118  0.2444  0.1095  0.1288
 8862W        W51779   2.759  12.850   0.538  0.0675  0.0948 -0.2384
 8863W        W51780   1.049  10.009  31.394  0.0401  0.2285  0.1676
 8864W        W51781   1.570  10.142   0.928 -0.0579 -0.0084 -0.0645
 8865W        W51782   2.109   9.113  31.235  0.4684  0.0736  0.1638
 8866W        W51783   0.909  11.338   0.420  0.0307 -0.1112 -0.2130
 8867W        W51784   4.457   8.778  31.483  0.0710 -0.1369  0.0611
 8868W        W51785   2.809   9.567  31.115 -0.2342 -0.0063  0.0826
 8869W        W51786   3.764  10.389  31.356 -0.1847 -0.1160 -0.0144
 8870W        W51787   4.176   8.685   0.329 -0.1562 -0.3328 -0.2690
 8871W        W51788   0.861   8.073   0.480 -0.1741 -0.2501  0.3739
 8872W        W51789   3.182   7.621  31.251 -0.0880  0.0739 -0.0209
 8873W        W51790   4.675   9.911  30.788  0.1517 -0.0559  0.3007
 8874W        W51791   0.186  12.413  30.199 -0.3099  0.0410  0.0303
 8875W        W51792   4.985  10.360   0.122 -0.3112 -0.1622 -0.0624
 8876W        W51793   1.677  11.179  31.611  0.0261 -0.0092 -0.1033
 8877W        W51794   2.430   8.836  31.646 -0.1392 -0.1022 -0.0774
 8878W        W51795   3.235  11.051   0.145  0.1218 -0.1296  0.2315
 8879W        W51796   0.299   8.465  31.662  0.3405 -0.2185 -0.0259
 8880W        W51797   2.023   8.658   0.923 -0.0111 -0.1089 -0.2250
 8881W        W51798   1.419   6.965  30.845 -0.1791  0.1516 -0.0119
 8882W        W51799  34.424  12.092  30.552  0.1731  0.0353 -0.2907
 8883W        W51800   3.428   7.146  31.558  0.0790  0.1790 -0.1374
 8884W        W51801   4.954   7.874  31.204 -0.1871  0.2215 -0.2664
 8885W        W51802   3.912   7.622   0.919 -0.0138 -0.1489 -0.4263
 8886W        W51803   3.421   6.598  30.928 -0.0614  0.3732  0.0483
 8887W        W51804   0.667   8.700  30.218  0.2545 -0.1880 -0.3681
 8888W        W51805   0.435  13.657  30.888  0.1828 -0.0428  0.1247
 8889W        W51806   1.801   8.248  31.485 -0.1193  0.0540  0.1322
 8890W        W51807   2.835   9.883  30.166  0.2899 -0.2481  0.0022
 8891W        W51808   3.139   9.712  31.584  0.0791 -0.1309 -0.2327
 8892W        W51809   0.903   8.473  31.057 -0.2656 -0.2522 -0.2578
 8893W        W51810   3.396  11.238  31.318  0.2080 -0.1869  0.0889
 8894W        W51811   4.034  10.715  31.741 -0.0663  0.1188  0.3610
 8895W        W51812   1.937   7.203  30.026 -0.0655 -0.0988 -0.1878
 8896W        W51813   0.836  11.982   0.274 -0.1233  0.0361  0.1307
 8897W        W51814   0.336  12.089  31.239 -0.1637  0.3203 -0.1444
 8898W        W51815   4.767   7.466  30.394  0.0036 -0.1471  0.0314
 8899W        W51816   5.683  10.038  29.678  0.0064 -0.1638 -0.1207
 8900W        W51817   2.289   9.700  30.998  0.3566  0.0834 -0.1093
 8901W        W51818   4.120   9.524   0.864  0.0120  0.0022  0.0179
 8902W        W51819   2.491   8.636  31.206 -0.0696  0.1496 -0.1424
 8903W        W51820   2.800   8.072  30.511 -0.0152 -0.0076  0.1547
 8904W        W51821   3.196  10.886  30.219 -0.1038  0.2549 -0.1946
 8905W        W51822   2.351   7.472  31.576 -0.1011 -0.1085 -0.0640
 8906W        W51823   3.222   9.205  30.853 -0.1653  0.1763 -0.1581
 8907W        W51824   1.239   9.086  31.624  0.0119 -0.1157  0.1406
 8908W        W51825   2.898   8.937  30.581  0.3443  0.0235  0.1395
 8909W        W51826   3.338  10.158  31.234  0.2904 -0.1053  0.0157
 8910W        W51827  34.667  11.762   2.354 -0.0693 -0.0636  0.0957
 8911W        W51828   1.449  11.637  30.915 -0.3741 -0.4410  0.1889
 8912W        W51829   3.107   7.058  29.117 -0.1645 -0.1281  0.0280
 8913W        W51830   3.686   9.572  30.618  0.0986  0.2619  0.2349
 8914W        W51831   1.725   8.243   0.047 -0.2125  0.2719 -0.2274
 8915W        W51832   3.246  10.350  31.682 -0.0179  0.2062  0.0017
 8916W        W51833   3.842   9.758  30.173  0.1706 -0.1766  0.1038
 8917W        W51834   4.429  11.808  31.543 -0.0553 -0.1205 -0.2464
 8918W        W51835   2.181  11.241  31.713  0.2021 -0.1776  0.0434
 8919W        W51836   3.145   9.645  30.577  0.0327  0.0436  0.2190
 8920W        W51837  34.179  11.261  30.048 -0.1257  0.0140 -0.1023
 8921W        W51838  34.019   8.500  30.590 -0.1577  0.1988  0.0677
 8922W        W51839   0.726   9.180  30.254 -0.2894  0.0658  0.0204
 8923W        W51840  33.817  10.668  30.302  0.0025 -0.0824 -0.0522
 8924W        W51841   0.196   7.948  29.952  0.1927  0.0298  0.0675
 8925W        W51842   4.504  13.658  31.372 -0.3054  0.1156  0.0441
 8926W        W51843   6.243  10.887  30.542 -0.1092  0.0545  0.0157
 8927W        W51844   2.662   9.506  30.456  0.1091 -0.2781  0.0940
 8928W        W51845   1.698  13.462  19.778 -0.2467  0.1236 -0.0835
 8929W        W51846  33.643  11.624  18.384  0.1066  0.3336 -0.2591
 8930W        W51847   3.970  10.738  17.313  0.3588  0.0835  0.3693
 8931W        W51848   3.654  12.576  17.240  0.0698  0.2388 -0.1686
 8932W        W51849  33.857  12.038  18.495  0.0913  0.1432 -0.0783
 8933W        W51850   1.052  14.623  16.527  0.1557  0.2340 -0.7128
 8934W        W51851   0.393  11.196  18.007 -0.1740 -0.0133  0.1190
 8935W        W51852   2.056  14.000  19.571  0.1884 -0.3802  0.1610
 8936W        W51853   3.124  13.501  19.120  0.2165 -0.0569 -0.1366
 8937W        W51854   0.565  12.644  17.238 -0.1780  0.1888  0.1752
 8938W        W51855   0.809  11.904  17.723 -0.0660 -0.1781 -0.1753
 8939W        W51856   0.870  15.844  19.615 -0.3600  0.2031 -0.0125
 8940W        W51857   0.945  12.408  17.504 -0.0768  0.1221  0.0842
 8941W        W51858  34.335  10.447  18.606  0.0233  0.1986 -0.1334
 8942W        W51859   1.830  13.311  20.420 -0.2896  0.2714 -0.0333
 8943W        W51860  34.237  14.519  17.452  0.2245  0.2248 -0.0585
 8944W        W51861   0.905  10.786  19.222 -0.1965 -0.1427  0.1505
 8945W        W51862  34.640  11.718  18.133  0.0317  0.2819  0.2848
 8946W        W51863   2.428  15.099  18.864 -0.2082  0.2415 -0.3863
 8947W        W51864   2.818   9.951  19.150 -0.1073  0.0938 -0.0006
 8948W        W51865   3.026   9.327  20.853 -0.3451  0.0738  0.0737
 8949W        W51866   1.690  13.364  17.595  0.2545  0.3316 -0.0197
 8950W        W51867  33.673  11.324  17.989 -0.1623  0.4267 -0.2604
 8951W        W51868   0.171  11.928  18.736 -0.0968  0.1154  0.3178
 8952W        W51869   0.913  14.929  17.418  0.0446  0.1563 -0.2729
 8953W        W51870   1.006  11.994  19.135  0.1341  0.0203  0.4476
 8954W        W51871   4.991  12.190  17.851  0.2511 -0.0160 -0.0498
 8955W        W51872   2.760  14.633  18.904 -0.2727  0.1473  0.0025
 8956W        W51873   1.769  14.219  19.088 -0.0455 -0.1816 -0.0633
 8957W        W51874   3.691  11.621  19.363  0.1359 -0.0648 -0.2495
 8958W        W51875  34.019  12.248  18.968 -0.0902 -0.1273 -0.2863
 8959W        W51876  31.975  14.349  18.003  0.1996 -0.0360 -0.2096
 8960W        W51877   2.155  13.603  17.710  0.3791 -0.3457  0.0240
 8961W        W51878   0.487  14.658  19.508  0.3492  0.2874  0.2579
 8962W        W51879   3.402  13.312  19.592  0.1754  0.2805  0.3022
 8963W        W51880   1.305  14.889  20.670 -0.5297  0.0171 -0.1100
 8964W        W51881  34.408  12.807  17.363  0.0560  0.0260  0.0676
 8965W        W51882   1.878  14.747  19.966 -0.1020  0.0016  0.0777
 8966W        W51883   0.047  14.451  17.260 -0.2348  0.2713  0.1120
 8967W        W51884   1.684  12.850  17.934  0.0154  0.2916 -0.2276
 8968W        W51885   1.631  12.308  19.107 -0.0442  0.3685 -0.1595
 8969W        W51886  34.013  12.890  17.853  0.2625  0.1116  0.2632
 8970W        W51887   0.764  13.994  19.794 -0.1874  0.0156 -0.0179
 8971W        W51888   2.714  11.956  21.812 -0.1946  0.0554  0.2023
 8972W        W51889  34.290  15.372  19.511  0.1588 -0.0309 -0.0781
 8973W        W51890   5.108  10.745  20.970 -0.0215 -0.2148 -0.0708
 8974W        W51891   0.371  14.944  17.126 -0.0695 -0.2906 -0.0585
 8975W        W51892   4.098  12.660  16.942  0.1919 -0.2968  0.0247
 8976W        W51893   0.388   8.702  18.017 -0.1288 -0.0630 -0.0395
 8977W        W51894   2.863  11.312  17.533  0.2547 -0.0985  0.0047
 8978W        W51895   0.313   9.208  18.139  0.0911 -0.0788 -0.1998
 8979W        W51896   0.908  14.406  19.469  0.3529 -0.0365 -0.0987
 8980W        W51897   0.616   9.213  19.038 -0.0132  0.1976 -0.0732
 8981W        W51898   2.453  13.126  17.940  0.1227  0.0409  0.0369
 8982W        W51899  34.508  13.227  17.095  0.1738 -0.1837 -0.2031
 8983W        W51900   3.198  12.240  17.790 -0.2295  0.0566 -0.3443
 8984W        W51901   0.181  12.747  18.097 -0.1706  0.0268 -0.1707
 8985W        W51902  34.415  12.057  19.126 -0.1507  0.3636 -0.1245
 8986W        W51903   2.794  14.084  19.337  0.3723 -0.0629  0.2189
 8987W        W51904   1.630  13.773  19.363  0.1979 -0.0949 -0.0701
 8988W        W51905   1.868  13.063  18.487  0.0541  0.0560  0.2682
 8989W        W51906  33.903  14.243  19.711 -0.1203  0.0053  0.1189
 8990W        W51907   0.338  15.710  19.378 -0.1085  0.0682 -0.1518
 8991W        W51908   0.782  11.218  18.826  0.1636  0.1475 -0.2021
 8992W        W51909   0.481  10.469  18.482  0.0171 -0.0696 -0.0984
 8993W        W51910   4.734  11.967  19.715 -0.5483 -0.2064 -0.2737
 8994W        W51911  33.094  16.617  19.652  0.3128 -0.0088 -0.0719
 8995W        W51912   6.122  11.875  19.902 -0.1068 -0.0816  0.1318
 8996W        W51913   1.207  14.828  17.810 -0.1579  0.2001  0.0483
 8997W        W51914   2.994  12.383  19.674  0.1519  0.1700 -0.0447
 8998W        W51915   2.029  12.950  17.568  0.2028 -0.1313 -0.2070
 8999W        W51916   2.306  12.072  17.290 -0.1224 -0.1093  0.1548
 9000W        W51917   3.037  11.582  19.461  0.0421 -0.1266 -0.1299
 9001W        W51918   0.743  13.172  17.520  0.1673  0.1341  0.0229
 9002W        W51919   0.105  14.131  17.584  0.1513  0.1294 -0.0426
 9003W        W51920   3.215  11.555  18.952  0.0364 -0.0855 -0.2627
 9004W        W51921   2.747  13.857  16.626  0.3286  0.1026  0.0917
 9005W        W51922   0.514  14.589  18.962  0.1631  0.2870  0.0301
 9006W        W51923   2.416  13.590  19.782  0.2411 -0.2094 -0.1337
 9007W        W51924   0.870  14.234  18.992 -0.1303  0.2166  0.0123
 9008W        W51925   0.859  14.368  18.473  0.0834 -0.0138 -0.1103
 9009W        W51926   0.508  14.496  17.537 -0.0529 -0.1060 -0.0662
 9010W        W51927  33.033  13.549  17.324  0.1112  0.0597  0.1566
 9011W        W51928  34.482  10.666  18.153 -0.1517  0.2774  0.1924
 9012W        W51929   0.159  12.896  19.947  0.1703 -0.0850 -0.3373
 9013W        W51930   1.616  11.785  18.408 -0.0552  0.0833  0.2573
 9014W        W51931   0.506  11.043  18.425  0.0396 -0.1814 -0.1053
 9015W        W51932   2.772  10.348  18.133 -0.3031  0.1080  0.2369
 9016W        W51933   0.820  12.250  18.065 -0.0520  0.4024 -0.2040
 9017W        W51934   2.129  14.592  18.901 -0.1383  0.0935 -0.0475
 9018W        W51935   4.551  12.879  18.137 -0.0603 -0.1041  0.0962
 9019W        W51936   0.773  13.929  17.614 -0.0383 -0.0072 -0.0638
 9020W        W51937   0.290  12.156  20.566  0.1410  0.4018  0.2093
 9021W        W51938   0.773  11.155  20.260  0.3516 -0.1376  0.1825
 9022W        W51939   2.225  11.030  21.082 -0.2394  0.1272 -0.1967
 9023W        W51940  34.318  10.965  18.629  0.1140  0.4224  0.3296
 9024W        W51941   3.377  11.185  21.820  0.1632  0.0184 -0.3173
 9025W        W51942  33.981   9.853  17.656 -0.2679 -0.5142 -0.0655
 9026W        W51943   3.816  12.175  19.461  0.3343 -0.1401  0.0039
 9027W        W51944   0.714  12.777  18.825 -0.0453 -0.3106 -0.0389
 9028W        W51945  34.200  11.296  17.461  0.2577  0.3217 -0.1301
 9029W        W51946   2.183  10.074  19.952  0.2095 -0.3043 -0.2613
 9030W        W51947   0.643  14.158  17.102  0.4229  0.0881  0.3195
 9031W        W51948   3.607  12.560  20.244 -0.2207  0.2617  0.0117
 9032W        W51949   1.057  15.272  18.286  0.0971 -0.0016 -0.2336
 9033W        W51950   0.433  11.019  20.653 -0.0943 -0.0184 -0.2108
 9034W        W51951  34.156  11.525  17.888 -0.1209 -0.3116 -0.1389
 9035W        W51952  34.660  15.137  17.952 -0.0553 -0.2395 -0.2200
 9036W        W51953  34.617  13.894  18.589 -0.3057 -0.0079  0.2719
 9037W        W51954   1.776  10.809  17.336 -0.1824  0.3633  0.2300
 9038W        W51955   3.259  13.302  18.630  0.0441  0.4445  0.0528
 9039W        W51956   1.562  11.815  17.862  0.3622 -0.1921 -0.0339
 9040W        W51957   0.428  13.652  18.999 -0.0324 -0.4798 -0.0123
 9041W        W51958   4.522  11.525  19.933  0.0719  0.2691 -0.3229
 9042W        W51959   3.441  10.268  20.570 -0.0085 -0.0514  0.0605
 9043W        W51960   2.127  12.701  18.233  0.2221 -0.3249 -0.1236
 9044W        W51961   0.596  12.111  17.244  0.1403 -0.0712  0.1944
 9045W        W51962   1.545  14.414  17.266  0.1836  0.1646  0.0455
 9046W        W51963   0.175  14.873  16.644 -0.1724 -0.0993 -0.1968
 9047W        W51964  33.607  11.552  20.724 -0.1318 -0.1925 -0.0007
 9048W        W51965   2.352  12.770  18.833 -0.0381  0.1266 -0.1566
 9049W        W51966   4.530   9.210  18.665 -0.3788 -0.1931 -0.1450
 9050W        W51967   1.691  12.362  20.376 -0.2079 -0.0025 -0.1763
 9051W        W51968   4.069  10.949  21.030 -0.0736 -0.1418  0.0743
 9052W        W51969   0.460  14.164  18.094  0.1930  0.0885 -0.1536
 9053W        W51970   1.213  13.805  19.668 -0.0801 -0.0620 -0.1336
 9054W        W51971   2.186  10.444  17.338 -0.0347  0.1291  0.0652
 9055W        W51972   4.561  11.867  17.831  0.0623  0.1146  0.0366
 9056W        W51973  34.373  13.179  20.031 -0.1106 -0.0080 -0.1525
 9057W        W51974   3.217  12.988  19.154  0.1787 -0.3210 -0.3829
 9058W        W51975   2.433  10.611  16.527  0.0132  0.0898 -0.2251
 9059W        W51976   3.086  10.766  16.523  0.0311 -0.2616 -0.0084
 9060W        W51977   0.925  13.456  20.081  0.1282 -0.1031  0.1845
 9061W        W51978   1.859  11.948  19.406  0.0377 -0.2212  0.4347
 9062W        W51979   1.233  13.134  17.629  0.0495 -0.2273  0.0127
 9063W        W51980   1.700  11.758  16.875  0.1483 -0.0354 -0.2446
 9064W        W51981   1.740  14.457  18.417 -0.0958 -0.1723 -0.1041
 9065W        W51982  34.091  12.222  19.484  0.1414 -0.1415 -0.3911
 9066W        W51983   4.158  13.830  20.704  0.1617  0.0725 -0.0539
 9067W        W51984   1.799  15.173  19.329  0.0219 -0.2703 -0.0945
 9068W        W51985   2.233   9.488  18.838 -0.0496 -0.0244 -0.2182
 9069W        W51986   1.002  10.852  17.865 -0.2564 -0.2636 -0.1941
 9070W        W51987   0.549  12.788  17.747 -0.0277  0.0255 -0.0516
 9071W        W51988   0.828  16.268  18.062  0.0566 -0.0389 -0.1270
 9072W        W51989   3.810  10.967  18.496  0.0203  0.0086  0.0049
 9073W        W51990   3.537  11.052  18.937  0.0380  0.0981  0.0031
 9074W        W51991   2.571  10.377  18.670 -0.2110  0.3736  0.0430
 9075W        W51992   3.535  10.872  21.010 -0.2304  0.0981 -0.0049
 9076W        W51993   2.089  11.128  17.525  0.0595 -0.1181  0.0097
 9077W        W51994   2.856  11.007  18.825  0.1941 -0.0014 -0.2122
 9078W        W51995  34.241  12.003  18.032  0.0916 -0.3542 -0.0028
 9079W        W51996   0.187  12.665  20.526  0.1034  0.0387  0.0305
 9080W        W51997   2.740  13.660  17.896  0.0175 -0.1324 -0.1323
 9081W        W51998  33.609  15.966  18.315  0.1965 -0.0410  0.2031
 9082W        W51999   3.369  14.945  21.080 -0.1325  0.2321 -0.1692
 9083W        W52000   2.361  13.782  16.982  0.1803 -0.1443 -0.1044
 9084W        W52001   2.194  11.267  21.525 -0.0865  0.1563  0.3446
 9085W        W52002   2.514  11.079  17.832 -0.0789  0.2004 -0.3043
 9086W        W52003  34.285  14.036  17.654  0.1162  0.1358  0.0214
 9087W        W52004  32.911  12.759  19.397 -0.1790 -0.1678 -0.0062
 9088W        W52005   1.107  10.173  18.653 -0.0644 -0.0653 -0.0658
 9089W        W52006   1.294  15.398  20.269  0.1635  0.1661 -0.1202
 9090W        W52007  33.979  13.360  19.675 -0.1028  0.1795  0.1004
 9091W        W52008   3.563  12.510  18.537  0.2445  0.0739  0.3549
 9092W        W52009   1.371  14.527  19.270  0.1735  0.1211  0.0228
 9093W        W52010   3.664  11.166  18.069  0.2415 -0.3672  0.2880
 9094W        W52011   0.467  12.533  18.433  0.1515 -0.0480  0.1678
 9095W        W52012   0.117  12.323  17.170  0.0400  0.0474 -0.0279
 9096W        W52013  33.923  12.550  17.525  0.3597  0.0911 -0.1544
 9097W        W52014   1.319  12.354  17.944  0.3296 -0.2824 -0.0954
 9098W        W52015   3.064  12.718  17.398 -0.0125  0.2866 -0.0793
 9099W        W52016  33.973   9.709  18.877 -0.2386 -0.1194  0.2019
 9100W        W52017   2.333  10.557  17.783  0.2509 -0.0181  0.0582
 9101W        W52018  33.763  15.377  17.605  0.0129 -0.1215  0.0561
 9102W        W52019   2.899  13.702  20.274 -0.1084  0.0180 -0.2084
 9103W        W52020   3.264  12.068  18.551  0.2088 -0.0125 -0.0841
 9104W        W52021   2.470  14.279  21.231 -0.1200 -0.0118 -0.3597
 9105W        W52022   0.958  14.890  19.147 -0.1922 -0.1820  0.0847
 9106W        W52023  34.104  11.755  18.832 -0.0466 -0.1555 -0.2890
 9107W        W52024   2.785  12.647  18.601  0.2109 -0.4083  0.3601
 9108W        W52025   1.282  12.030  17.520  0.0286  0.0089  0.0835
 9109W        W52026   1.076  15.753  19.015 -0.1879 -0.1907 -0.1406
 9110W        W52027   2.042  14.853  21.243  0.4019  0.0746 -0.1942
 9111W        W52028   1.206  11.563  18.774  0.1672  0.4579 -0.0655
 9112W        W52029   0.277  11.251  18.836  0.0400 -0.2139  0.1052
 9113W        W52030   2.698  11.020  19.877 -0.0998  0.0345 -0.0840
 9114W        W52031   1.883  15.450  18.838  0.1162  0.1414  0.0878
 9115W        W52032   1.745  10.825  18.841  0.0926 -0.1302  0.1289
 9116W        W52033   0.874  10.705  18.730 -0.0854 -0.1058 -0.2063
 9117W        W52034   0.601  12.999  18.284 -0.1299 -0.0296 -0.0845
 9118W        W52035   3.107  12.432  18.258  0.0044  0.4965  0.1125
 9119W        W52036   3.266   9.563  20.185 -0.2255  0.3451  0.1310
 9120W        W52037   3.305  13.426  21.201 -0.2891  0.1118  0.2348
 9121W        W52038  34.622  11.163  18.292 -0.0346 -0.1377  0.2201
 9122W        W52039   2.872  14.786  17.334  0.1303  0.3384 -0.0333
 9123W        W52040   3.007  12.178  20.888  0.1110  0.0677  0.0030
 9124W        W52041   0.310  13.651  17.525  0.0324 -0.2059 -0.0076
 9125W        W52042   0.680  12.526  20.215  0.1365 -0.0676 -0.0339
 9126W        W52043   0.782  11.421  18.241 -0.2935  0.1172 -0.2074
 9127W        W52044  33.863   9.344  19.897  0.0009 -0.1957 -0.0176
 9128W        W52045   0.957  13.058  19.201 -0.0777 -0.4078  0.2443
 9129W        W52046   0.139  12.672  17.549  0.0111 -0.1589  0.3392
 9130W        W52047  34.312  14.254  18.721 -0.0503 -0.0360  0.3305
 9131W        W52048   3.068  10.402  16.864  0.3693  0.0270 -0.0983
 9132W        W52049   2.050  12.302  16.752  0.2711 -0.1776 -0.0196
 9133W        W52050   2.096  10.970  18.090 -0.0881 -0.2670 -0.2740
 9134W        W52051   3.986  11.165  20.168 -0.0476 -0.0666  0.2685
 9135W        W52052   1.944  12.551  17.259 -0.0340  0.3655 -0.1777
 9136W        W52053   3.671  10.725  20.120  0.3829  0.0246 -0.1750
 9137W        W52054   1.020  10.976  18.361  0.1583 -0.2155  0.0921
 9138W        W52055   0.826  13.794  18.707 -0.1504  0.2861 -0.0808
 9139W        W52056  34.245  12.899  20.809  0.0447  0.1040  0.0984
 9140W        W52057   3.609  13.062  19.955  0.0975 -0.1323 -0.1624
 9141W        W52058   1.292  12.888  19.601  0.0939  0.2444  0.1299
 9142W        W52059   1.161  11.548  17.787 -0.2984 -0.1559 -0.0283
 9143W        W52060   0.622  11.151  16.929 -0.0088  0.1177 -0.2903
 9144W        W52061   1.689  11.123  19.711 -0.2234  0.1524 -0.0488
 9145W        W52062   2.913  14.319  18.040 -0.2651 -0.0732  0.0944
 9146W        W52063   1.422  14.011  18.325 -0.3680  0.0626 -0.0513
 9147W        W52064   5.528  11.578  18.400  0.2940  0.2006  0.3173
 9148W        W52065   1.942  13.270  17.998 -0.0658  0.1658 -0.1281
 9149W        W52066   2.865  12.784  17.969 -0.1987 -0.1338 -0.0928
 9150W        W52067   1.792  11.984  17.329  0.0529 -0.0390  0.1931
 9151W        W52068  34.360  12.012  18.486  0.1211 -0.0502  0.0284
 9152W        W52069   2.334  11.834  18.786 -0.0164  0.0639 -0.3750
 9153W        W52070   0.817  13.866  19.346  0.1037  0.1633  0.0149
 9154W        W52071  34.613  13.346  18.325 -0.1328 -0.1145 -0.2163
 9155W        W52072   0.826  12.551  19.279 -0.2755  0.0225 -0.1100
 9156W        W52073   3.309  11.237  18.537 -0.0499 -0.0340  0.0085
 9157W        W52074  34.390  11.399  20.114 -0.0473  0.1561 -0.1138
 9158W        W52075   2.062  10.092  21.494  0.1925 -0.0848 -0.1833
 9159W        W52076   1.953  13.721  20.733 -0.0001 -0.2451  0.0493
 9160W        W52077   4.874  11.650  16.945 -0.0357 -0.2108 -0.1588
 9161W        W52078   2.675  11.471  18.979 -0.1598  0.0810  0.1196
 9162W        W52079   3.399  12.694  17.829 -0.0560 -0.0712 -0.1876
 9163W        W52080   2.927  10.943  17.133 -0.1059 -0.0211  0.1080
 9164W        W52081   0.378  12.202  17.811  0.0624  0.1472 -0.0881
 9165W        W52082   4.081  13.797  21.608 -0.2044  0.0939  0.1245
 9166W        W52083  33.633  11.857  18.925  0.0590  0.0893  0.0628
 9167W        W52084   4.137  11.456  19.305 -0.1511  0.0439 -0.2177
 9168W        W52085   1.376  14.249  17.812 -0.1394  0.0638 -0.2082
 9169W        W52086   3.595  13.668  19.303  0.0585  0.1254  0.2853
 9170W        W52087   1.365  12.114  18.740 -0.0554  0.2176  0.2458
 9171W        W52088  33.304  10.435  18.870 -0.1621  0.0170  0.2832
 9172W        W52089  34.094  15.811  18.372  0.0565  0.0304  0.0856
 9173W        W52090  34.245  10.822  17.607  0.1381 -0.2827  0.0881
 9174W        W52091   1.064  12.444  17.011  0.0946 -0.0833  0.2830
 9175W        W52092   1.868  12.580  18.703 -0.0542 -0.1829 -0.0850
 9176W        W52093   4.056  12.772  19.262 -0.4337 -0.1605  0.0590
 9177W        W52094   0.977  12.391  18.573  0.0780 -0.3545  0.0583
 9178W        W52095   3.214  11.504  20.490 -0.0790 -0.1904 -0.1338
 9179W        W52096  33.551  13.445  17.461 -0.3448 -0.0192  0.2242
 9180W        W52097   3.503  11.836  18.126 -0.1237  0.4778  0.0392
 9181W        W52098  34.642  12.977  19.349  0.1563  0.1533  0.3163
 9182W        W52099   0.429  13.629  20.057 -0.0831  0.2597 -0.0617
 9183W        W52100   0.403  16.493  19.961 -0.0337  0.1201 -0.0672
 9184W        W52101   3.322  12.482  19.296  0.0838  0.0453 -0.2046
 9185W        W52102   1.290  12.398  19.478  0.0454  0.0593  0.1978
 9186W        W52103   1.330  13.408  17.248 -0.0196  0.2207 -0.2203
 9187W        W52104   5.835  12.257  20.932  0.2590  0.3880 -0.2793
 9188W        W52105   2.163  11.301  20.549 -0.1791  0.0675 -0.1529
 9189W        W52106  34.437  12.212  20.394  0.0204 -0.0816  0.1866
 9190W        W52107   2.894  13.618  19.710 -0.1069 -0.3420  0.2196
 9191W        W52108   1.433  12.559  18.458  0.1501  0.0125 -0.0711
 9192W        W52109   0.770  13.281  18.701  0.4432 -0.0110  0.1506
 9193W        W52110  34.107  10.511  21.311  0.2329  0.3559 -0.1497
 9194W        W52111   4.378  12.844  20.702  0.1563  0.1059 -0.0415
 9195W        W52112   0.027  11.993  19.630  0.0989 -0.0044 -0.0058
 9196W        W52113   1.057  10.014  19.523  0.0908  0.2739  0.1692
 9197W        W52114   3.330  14.740  17.321  0.2691  0.0141  0.1359
 9198W        W52115  33.332  14.191  19.996  0.4837  0.2865 -0.0083
 9199W        W52116   0.087  15.050  18.796 -0.1016  0.0043  0.0219
 9200W        W52117  34.120  13.459  19.102  0.0033 -0.0332 -0.1388
 9201W        W52118   2.034  14.030  18.748  0.1144  0.2455  0.1597
 9202W        W52119   3.780  13.207  17.843 -0.2081  0.2287 -0.0060
 9203W        W52120   2.512  13.863  17.480 -0.0260  0.0119 -0.0359
 9204W        W52121   1.349  11.579  17.250 -0.2837 -0.1607  0.0757
 9205W        W52122   0.593  13.328  19.677 -0.0890  0.0927  0.0557
 9206W        W52123  32.512  12.455  18.605 -0.3531 -0.0288 -0.1250
 9207W        W52124   2.528  13.380  17.522  0.2940 -0.2923 -0.0426
 9208W        W52125  34.491  16.311  18.870  0.1260 -0.2193  0.1559
 9209W        W52126   3.634  12.830  19.507  0.0694  0.0443  0.1120
 9210W        W52127   2.455  11.287  17.190  0.1843 -0.0192 -0.1970
 9211W        W52128   2.391  13.499  18.209 -0.0291  0.1931 -0.0447
 9212W        W52129   3.346  12.192  17.334  0.0292  0.0520 -0.2685
 9213W        W52130   1.987  15.198  19.773  0.0496  0.3500 -0.0080
 9214W        W52131   2.133  11.385  19.014  0.1968 -0.2836  0.3072
 9215W        W52132   0.939  11.234  17.327  0.0718  0.1830  0.0240
 9216W        W52133   2.201  11.896  19.761  0.0910 -0.1479  0.1683
 9217W        W52134   2.866  10.761  17.872 -0.1924 -0.2028  0.0740
 9218W        W52135   0.104  12.410  20.088 -0.1557 -0.2017 -0.2778
 9219W        W52136   2.170  12.938  17.075 -0.1075 -0.0409  0.0105
 9220W        W52137  34.299  12.463  17.965  0.0752 -0.0598 -0.1095
 9221W        W52138  34.382  12.567  19.162  0.2394 -0.1990 -0.0925
 9222W        W52139   1.892   9.935  18.555  0.1638  0.3104  0.1292
 9223W        W52140   1.814  11.515  17.453  0.1296  0.0679  0.3054
 9224W        W52141   0.486  11.980  18.359 -0.1067 -0.0345  0.1539
 9225W        W52142  34.112  14.536  17.955 -0.1031  0.1147  0.0087
 9226W        W52143   0.994  11.463  19.780 -0.2213  0.0845  0.0040
 9227W        W52144  33.982  13.702  17.553 -0.4969  0.0960 -0.1345
 9228W        W52145  31.703  10.601  18.074 -0.0675 -0.0929 -0.1071
 9229W        W52146   4.589  11.559  17.406  0.0697  0.0181 -0.3532
 9230W        W52147   2.448   9.798  19.542  0.2082  0.0237 -0.2453
 9231W        W52148   2.859  10.133  19.810 -0.3652 -0.0814  0.3839
 9232W        W52149   2.134  11.853  18.297 -0.2676 -0.1292  0.0445
 9233W        W52150   2.684  11.982  18.389 -0.3996 -0.1262  0.2492
 9234W        W52151   2.485  11.443  19.583  0.1861 -0.1543  0.2823
 9235W        W52152   1.815   9.836  19.099  0.0474  0.0226  0.1514
 9236W        W52153  34.640  11.059  17.292 -0.3472  0.1995  0.1043
 9237W        W52154   3.953  11.506  19.832 -0.0795  0.1349 -0.2936
 9238W        W52155   2.370  12.709  16.682 -0.0064  0.1088  0.0366
 9239W        W52156   5.122  14.212  19.491 -0.0387  0.0699  0.0540
 9240W        W52157  34.290  10.381  19.170 -0.1461  0.0704  0.2041
 9241W        W52158   1.091  11.930  18.351 -0.1591 -0.0373  0.0155
 9242W        W52159  33.574  13.344  19.262  0.1339  0.0250 -0.3086
 9243W        W52160   1.278  12.673  18.979  0.1217 -0.1251  0.0550
 9244W        W52161   3.676  13.793  20.882  0.1937  0.0283  0.1120
 9245W        W52162  33.082  10.863  18.533  0.0333  0.0514 -0.1464
 9246W        W52163   2.092  14.548  17.360 -0.0808  0.1372 -0.1717
 9247W        W52164   2.462  13.035  18.439 -0.3295 -0.2866  0.2709
 9248W        W52165   1.168  13.509  16.807  0.0755 -0.0060  0.2889
 9249W        W52166   0.801  13.872  18.096 -0.2553  0.2837  0.1634
 9250W        W52167   2.369  15.916  19.433  0.0141 -0.0504  0.0328
 9251W        W52168   1.121  12.995  18.507 -0.1766 -0.3202 -0.1591
 9252W        W52169   2.776  11.949  19.730  0.0190  0.0477  0.0402
 9253W        W52170   4.178  13.316  18.123  0.0474  0.0364 -0.0614
 9254W        W52171   1.413  10.394  17.969  0.4297 -0.0136  0.0366
 9255W        W52172   2.894  11.131  18.266 -0.1107 -0.0304 -0.2070
 9256W        W52173  33.769  14.692  17.689  0.1448  0.0745 -0.3106
 9257W        W52174   2.653  10.162  17.609 -0.0131 -0.0291  0.0241
 9258W        W52175   2.597  12.006  17.776 -0.1460 -0.1086 -0.1661
 9259W        W52176  33.968  15.229  16.750  0.5770 -0.0033 -0.3180
 9260W        W52177   1.825   9.990  20.278 -0.1667  0.2720 -0.1004
 9261W        W52178   0.251  12.603  19.098  0.2567  0.1692  0.0160
 9262W        W52179   0.677  16.388  20.398  0.1448 -0.1740 -0.0170
 9263W        W52180  34.083  13.328  16.780 -0.1981 -0.1071  0.2248
 9264W        W52181   2.622  12.183  18.839 -0.0566  0.1591 -0.0071
 9265W        W52182   1.039  12.761  18.071  0.1013 -0.1415 -0.3060
 9266W        W52183  33.380  13.306  18.183 -0.0037 -0.1475  0.1253
 9267W        W52184   2.270  14.891  19.294  0.0363 -0.1072 -0.1062
 9268W        W52185   2.444  11.572  17.593 -0.1370  0.0491  0.1118
 9269W        W52186   3.468  13.024  17.441 -0.0561 -0.0755 -0.0153
 9270W        W52187   2.515  10.829  17.366 -0.3363  0.2242 -0.3064
 9271W        W52188   3.628  10.362  17.187 -0.1199 -0.0482 -0.5592
 9272W        W52189   0.858  10.351  17.683  0.3795 -0.2473  0.0412
 9273W        W52190   0.999  11.529  19.287  0.0815 -0.1110  0.0607
 9274W        W52191  31.986  12.880  17.623 -0.0442  0.3106 -0.0189
 9275W        W52192   0.272  13.151  17.374  0.3279  0.1051  0.0254
 9276W        W52193   0.048  10.876  17.785 -0.1180  0.3331  0.0166
 9277W        W52194   2.809  11.292  21.657 -0.0403 -0.1761 -0.1391
 9278W        W52195   0.467  10.321  19.931  0.0954 -0.1798 -0.1632
 9279W        W52196  32.726  11.133  20.880 -0.5078  0.1287 -0.0893
 9280W        W52197  34.431   9.794  17.894  0.1940  0.1858  0.0116
 9281W        W52198   2.346  11.851  19.298 -0.2691 -0.1308 -0.1616
 9282W        W52199  33.634  12.112  19.327 -0.0029  0.1483  0.1644
 9283W        W52200  34.303  11.166  19.605 -0.0760 -0.1820  0.0565
 9284W        W52201   2.015  13.948  18.296  0.3844 -0.2631  0.0657
 9285W        W52202   2.442  15.600  18.531 -0.2429  0.0804 -0.3102
 9286W        W52203   0.255  13.330  17.902 -0.0406 -0.0180  0.1424
 9287W        W52204   3.865  14.490  20.394  0.1589 -0.2286 -0.1183
 9288W        W52205  34.503  13.496  17.602 -0.1883  0.0661  0.0569
 9289W        W52206   3.276  10.901  22.552  0.1425 -0.0266 -0.3034
 9290W        W52207   2.076  11.455  17.949 -0.3101 -0.0397  0.2651
 9291W        W52208  32.310  11.227  18.229  0.0217  0.0933  0.0842
 9292W        W52209   2.017  10.957  19.355 -0.2774 -0.0935  0.0644
 9293W        W52210  33.909  13.839  18.811  0.1179  0.0194  0.1345
 9294W        W52211   2.295  15.446  17.920 -0.0464  0.0323  0.1158
 9295W        W52212   2.749  12.648  19.183  0.2244  0.2985  0.1029
 9296W        W52213  33.787  12.985  18.273 -0.1757 -0.1841 -0.1129
 9297W        W52214  34.459  10.657  19.531  0.0378  0.1865 -0.1356
 9298W        W52215   2.053  11.891  17.779  0.0583 -0.1517 -0.4322
 9299W        W52216  34.283  12.632  19.688  0.1649 -0.1161 -0.2284
 9300W        W52217   2.811  14.286  17.471  0.0772 -0.2546 -0.0069
 9301W        W52218   3.226  10.961  19.728 -0.1785 -0.0505 -0.1875
 9302W        W52219   2.801  13.654  18.731  0.1817 -0.5468  0.0685
 9303W        W52220  33.382   9.575  19.933  0.3322 -0.1006  0.2896
 9304W        W52221   1.335  11.193  20.084  0.0089  0.0745  0.0144
 9305W        W52222   3.408  14.295  18.308 -0.0767  0.0969  0.1079
 9306W        W52223   1.964  11.490  19.485 -0.1910 -0.1911 -0.2697
 9307W        W52224   2.988  11.777  18.022 -0.0619  0.0435 -0.2090
 9308W        W52225   1.752  12.212  18.213  0.2687  0.0403  0.0010
 9309W        W52226  33.938  12.920  19.935 -0.1002 -0.0232  0.1696
 9310W        W52227   2.540  12.827  17.483  0.1646 -0.2117 -0.1400
 9311W        W52228   4.289  12.972  21.523 -0.0918 -0.0190  0.2426
 9312W        W52229   2.375  13.199  19.106 -0.2215 -0.0423 -0.1488
 9313W        W52230   2.955  11.984  19.219  0.1186 -0.0767  0.0095
 9314W        W52231   0.049  12.237  18.210  0.0571 -0.2617  0.1242
 9315W        W52232   2.753  13.142  18.812 -0.0168 -0.0278  0.0315
 9316W        W52233   0.546  15.418  20.033 -0.0244 -0.1014  0.3527
 9317W        W52234   4.780  14.071  19.873 -0.2102  0.3088  0.0603
 9318W        W52235   1.860  14.620  19.472 -0.0090  0.1803 -0.1582
 9319W        W52236   2.830  12.287  17.378 -0.0221  0.0929 -0.3090
 9320W        W52237  32.540   9.825  18.847 -0.2441 -0.2567  0.2479
 9321W        W52238  33.508   9.744  18.455 -0.0157 -0.2736 -0.0749
 9322W        W52239   2.316  12.405  17.673 -0.5103  0.2621 -0.0461
 9323W        W52240   1.636  11.239  17.874  0.2077  0.2556  0.1987
 9324W        W52241   1.377  10.639  18.557 -0.0173  0.0298 -0.1933
 9325W        W52242   1.852  10.644  17.816 -0.1358 -0.2249  0.1869
 9326W        W52243   1.649  15.933  20.154  0.0450  0.0515 -0.1917
 9327W        W52244   0.167  13.287  20.341  0.1412  0.4748  0.0851
 9328W        W52245   0.590  13.865  23.341  0.1788 -0.1535  0.2214
 9329W        W52246   1.827  11.539  20.059  0.2503  0.0294 -0.1332
 9330W        W52247   6.127  11.779  18.442 -0.0423  0.2019  0.1015
 9331W        W52248   3.818  12.972  22.285 -0.1813 -0.3658 -0.2848
 9332W        W52249  34.001  11.973  21.000 -0.0119  0.2441 -0.0048
 9333W        W52250   3.428  14.380  22.209 -0.4782 -0.2344 -0.0449
 9334W        W52251   2.191  10.549  21.615  0.1699  0.0533 -0.2273
 9335W        W52252   0.334  10.875  22.593 -0.0203  0.0613  0.0460
 9336W        W52253   3.089  14.037  22.384  0.4382 -0.0843 -0.1100
 9337W        W52254   3.153  13.264  20.025  0.0880  0.2141 -0.2258
 9338W        W52255   3.282  11.729  24.339  0.0473  0.0151 -0.0072
 9339W        W52256   0.331  12.707  24.268 -0.0462 -0.0860  0.2681
 9340W        W52257   0.903  10.555  21.239  0.0742  0.1639  0.0192
 9341W        W52258   0.271   8.203  22.381  0.1415 -0.0235  0.1701
 9342W        W52259   2.116  12.144  20.180 -0.0417 -0.1595 -0.2637
 9343W        W52260   0.493  12.074  21.040 -0.0630 -0.5064 -0.0797
 9344W        W52261  34.248   8.419  21.036  0.1138  0.2177  0.0158
 9345W        W52262   2.363  12.924  20.345 -0.1690 -0.1994 -0.1222
 9346W        W52263  33.728  14.086  22.890  0.0695  0.1543 -0.0616
 9347W        W52264   2.159  12.759  22.108  0.2523  0.2868  0.1885
 9348W        W52265   1.531  10.567  23.053 -0.0807 -0.0955  0.2249
 9349W        W52266   1.981  13.736  20.082  0.2368 -0.1429  0.0070
 9350W        W52267   2.440  13.614  21.180 -0.2233 -0.2441 -0.1852
 9351W        W52268  33.979  14.085  21.260  0.1691 -0.3111  0.0855
 9352W        W52269   0.762  11.941  22.419 -0.0029  0.2086  0.1604
 9353W        W52270   1.283  11.819  22.349  0.1789 -0.1246 -0.1151
 9354W        W52271   5.106  13.008  21.179  0.3268 -0.1426 -0.2252
 9355W        W52272   2.110  14.077  21.949  0.1845  0.0959  0.0552
 9356W        W52273   3.034  13.765  23.430 -0.0023 -0.3691 -0.1330
 9357W        W52274   2.295  12.545  24.041 -0.0572  0.0411  0.0952
 9358W        W52275   0.861  12.044  20.363  0.1850  0.0399  0.1638
 9359W        W52276  34.212  14.412  22.090  0.1968 -0.1625  0.0072
 9360W        W52277   3.460  12.322  21.751 -0.3444 -0.3488 -0.2435
 9361W        W52278   2.387  13.142  19.606 -0.0840  0.0731 -0.4108
 9362W        W52279   2.464  13.597  22.800 -0.2301  0.0610 -0.0207
 9363W        W52280   1.719  13.873  25.119 -0.0443  0.0875  0.1672
 9364W        W52281   0.674  11.182  19.311  0.2087  0.0632 -0.1009
 9365W        W52282   1.942  16.194  24.174 -0.0604  0.1406  0.2480
 9366W        W52283   1.250  12.728  24.082 -0.2306  0.1536  0.1023
 9367W        W52284   0.335  10.971  21.679  0.2335  0.2478 -0.1299
 9368W        W52285   1.848  11.551  21.195  0.1854 -0.1447  0.1555
 9369W        W52286   2.772  13.196  20.483 -0.1425 -0.0859 -0.2353
 9370W        W52287   1.743  14.552  22.252  0.3535  0.3671  0.2741
 9371W        W52288   2.317  12.281  25.234  0.1106 -0.1710 -0.1006
 9372W        W52289   0.258  14.062  21.027 -0.0285 -0.0814 -0.0696
 9373W        W52290   5.709  12.230  24.997 -0.1326 -0.0176 -0.4496
 9374W        W52291   1.316  14.477  19.762  0.2378 -0.1521  0.0640
 9375W        W52292   3.771  13.205  21.450  0.4014 -0.1956  0.0484
 9376W        W52293   1.698  11.108  20.747 -0.0556  0.0779 -0.0833
 9377W        W52294   2.315  11.557  20.963  0.1470 -0.1151 -0.1444
 9378W        W52295   2.306   9.151  20.395  0.1105 -0.0572 -0.0710
 9379W        W52296   1.568  13.041  22.671  0.0988  0.1884 -0.3532
 9380W        W52297   4.051  12.386  21.752  0.2329 -0.1221  0.2432
 9381W        W52298   4.181  13.327  23.709 -0.2371 -0.1956 -0.2210
 9382W        W52299   2.372  11.870  20.587 -0.3003 -0.0030  0.0352
 9383W        W52300   3.393  12.787  22.759 -0.0217 -0.1261  0.0453
 9384W        W52301   0.734  13.962  23.876  0.2078  0.2989 -0.1425
 9385W        W52302   2.383  10.950  20.232 -0.1433  0.0187  0.0621
 9386W        W52303   0.680  16.055  20.771 -0.1892 -0.0777 -0.0312
 9387W        W52304   4.972  15.235  22.449  0.5113 -0.4060  0.2503
 9388W        W52305   4.511  13.183  21.071  0.1339 -0.2198  0.0929
 9389W        W52306   1.565  10.258  18.807  0.0589 -0.2833 -0.0198
 9390W        W52307  34.586  11.326  22.538 -0.0992 -0.0879 -0.0332
 9391W        W52308   0.135  13.500  22.739  0.0060  0.2087  0.2189
 9392W        W52309   0.689  14.068  20.325  0.3173  0.2038  0.1512
 9393W        W52310   3.675  13.413  23.751 -0.2048 -0.2097  0.0401
 9394W        W52311   2.635  15.156  21.651  0.3371 -0.1232 -0.3026
 9395W        W52312   3.526  11.711  21.588  0.2012  0.1616 -0.1000
 9396W        W52313   0.407  11.438  21.615 -0.0312 -0.1514 -0.0909
 9397W        W52314   4.812  14.019  21.305  0.1747 -0.1998 -0.0257
 9398W        W52315   4.620  14.726  20.039 -0.0525  0.2102  0.0383
 9399W        W52316   2.892   9.942  22.867  0.0661 -0.0162 -0.2583
 9400W        W52317   5.385  11.703  23.595 -0.3788  0.2447 -0.0162
 9401W        W52318   2.253  12.672  19.878 -0.0319 -0.2357 -0.0810
 9402W        W52319   1.800  11.664  20.675 -0.0788  0.1105 -0.0397
 9403W        W52320   3.699  13.004  23.226 -0.1444 -0.3201  0.0745
 9404W        W52321   2.342  11.405  18.542 -0.2567  0.3217 -0.0591
 9405W        W52322   0.076  13.265  23.574  0.1993 -0.1798  0.0032
 9406W        W52323   2.691  13.117  21.805  0.2161  0.0361  0.1257
 9407W        W52324   0.329  13.152  23.079 -0.2595 -0.1648 -0.1591
 9408W        W52325   2.514  14.742  21.406  0.0248  0.0022 -0.3201
 9409W        W52326   0.492  12.217  22.093 -0.2124 -0.0248 -0.1857
 9410W        W52327   0.913  14.829  19.660 -0.3114  0.2023 -0.1452
 9411W        W52328   0.663  11.035  23.243 -0.1020 -0.0905  0.2250
 9412W        W52329   1.622  13.071  20.917 -0.1697  0.1898 -0.0981
 9413W        W52330   3.376  12.021  22.187 -0.0294 -0.1455 -0.0766
 9414W        W52331   0.349  10.143  22.263  0.1962 -0.3511 -0.0485
 9415W        W52332   2.782  12.728  22.131 -0.0111 -0.2245  0.1535
 9416W        W52333   0.515  11.556  20.599 -0.0388 -0.2388  0.1829
 9417W        W52334   4.957  14.417  22.271 -0.2394 -0.0988  0.1963
 9418W        W52335   3.721  12.889  21.830 -0.0349  0.2882 -0.1411
 9419W        W52336   2.081  13.459  19.423 -0.0626  0.0246 -0.1271
 9420W        W52337   1.467  10.673  21.445 -0.1173  0.1813  0.4628
 9421W        W52338   3.413  12.286  21.236 -0.0689 -0.0357 -0.1815
 9422W        W52339  34.513  13.670  22.309 -0.0042  0.2634 -0.1667
 9423W        W52340   1.947  10.240  22.992 -0.0250 -0.3678  0.0666
 9424W        W52341   3.154  13.980  24.052  0.2724  0.0670 -0.2354
 9425W        W52342   0.532  12.186  19.405  0.2838  0.0761 -0.1587
 9426W        W52343   2.886  13.543  22.583 -0.0084 -0.0097 -0.1883
 9427W        W52344   5.101  13.289  20.120  0.0592 -0.0802  0.1302
 9428W        W52345   0.553  12.014  22.987 -0.0013 -0.1028  0.2191
 9429W        W52346   3.624  11.024  22.254  0.0355  0.0461  0.0557
 9430W        W52347   2.810  16.869  19.252  0.1186 -0.1459 -0.0118
 9431W        W52348   2.826  12.633  23.520  0.2990  0.2649 -0.1697
 9432W        W52349   2.770  15.211  22.273  0.1807  0.0932 -0.2213
 9433W        W52350   1.531  11.851  21.492 -0.1377  0.2926  0.0933
 9434W        W52351  33.976  11.758  19.314 -0.1825  0.0292  0.2260
 9435W        W52352   0.952  12.351  22.240 -0.3619  0.4569 -0.0482
 9436W        W52353   1.495  12.461  20.827  0.1216  0.1528 -0.2211
 9437W        W52354   3.718   9.513  23.231 -0.2497 -0.2381 -0.0004
 9438W        W52355   2.784  16.570  21.748 -0.2695 -0.1448  0.0336
 9439W        W52356   2.405  12.353  21.914  0.0369  0.1654  0.3853
 9440W        W52357   0.460  13.439  22.319 -0.2897 -0.0949  0.2630
 9441W        W52358   2.705  12.008  22.829 -0.0607 -0.1493  0.0627
 9442W        W52359   3.831  12.513  23.729 -0.4799 -0.0948  0.1164
 9443W        W52360   2.202  13.278  21.878  0.0959 -0.2298  0.1151
 9444W        W52361   1.589  12.564  19.894  0.3191 -0.2809 -0.0273
 9445W        W52362   1.558  14.371  21.760  0.0655 -0.1616  0.2582
 9446W        W52363   1.763  12.773  19.248 -0.1858 -0.1462  0.2943
 9447W        W52364  32.536  11.345  19.858  0.0866 -0.0180  0.0056
 9448W        W52365   2.799  14.144  22.028  0.0356  0.1246 -0.2848
 9449W        W52366   3.853  11.983  22.948  0.0343  0.0151  0.4182
 9450W        W52367  32.926  11.995  24.390 -0.2087 -0.2131  0.0752
 9451W        W52368   1.640  13.903  22.719 -0.0537  0.2128 -0.1132
 9452W        W52369  34.142  12.965  19.380 -0.3385 -0.1653  0.2234
 9453W        W52370  33.879  11.266  23.293 -0.1004 -0.2186 -0.0920
 9454W        W52371   1.783  10.995  21.270 -0.2565 -0.0072  0.0916
 9455W        W52372   4.099  13.508  21.143  0.0389 -0.0430 -0.1270
 9456W        W52373   1.976  12.227  21.693 -0.2626 -0.0562  0.0486
 9457W        W52374   2.119  13.240  20.042 -0.0114  0.0043  0.0684
 9458W        W52375   1.109  11.990  19.681  0.2578  0.0512  0.1560
 9459W        W52376   2.254   9.748  22.211 -0.1031 -0.1439  0.0710
 9460W        W52377  33.117  14.058  26.910 -0.0237 -0.0575  0.1046
 9461W        W52378   1.240  12.269  20.094  0.2670 -0.0668 -0.2073
 9462W        W52379   1.482  12.837  20.522 -0.0597 -0.1477  0.0134
 9463W        W52380   3.710  11.572  20.332  0.3798 -0.0738 -0.1393
 9464W        W52381   4.975  13.126  19.608  0.2649 -0.1407 -0.0053
 9465W        W52382  34.251  11.758  22.872  0.0868  0.1481 -0.2783
 9466W        W52383   1.461  12.283  22.306  0.1159  0.0905 -0.0179
 9467W        W52384   3.067  14.227  20.286  0.2745 -0.1134  0.0723
 9468W        W52385   4.122   9.813  23.347 -0.1091  0.0893  0.0449
 9469W        W52386   2.899  11.470  19.954 -0.1598 -0.0489  0.0567
 9470W        W52387   1.986  12.334  22.278 -0.2965  0.0491  0.2027
 9471W        W52388   1.522  14.107  21.021 -0.2244  0.4281  0.0739
 9472W        W52389   2.217   9.638  24.136 -0.1175  0.0712 -0.0825
 9473W        W52390   2.859  13.526  21.504  0.1442  0.1140  0.0158
 9474W        W52391   3.139  11.969  23.715 -0.1710  0.1758 -0.1669
 9475W        W52392   3.754  12.536  23.102 -0.0053 -0.0171 -0.2874
 9476W        W52393   3.067  13.065  20.913 -0.2706  0.5142  0.2407
 9477W        W52394   1.366  11.922  20.520 -0.0227 -0.1910  0.1882
 9478W        W52395   3.226  10.730  19.195 -0.3825  0.1916 -0.0226
 9479W        W52396   1.480  10.166  24.162 -0.1297  0.1332 -0.0158
 9480W        W52397   1.148  12.733  22.525 -0.1070  0.1896 -0.2590
 9481W        W52398   1.134  14.401  22.993  0.2169  0.1280 -0.1975
 9482W        W52399   3.217  13.117  22.197  0.0388  0.0344 -0.2094
 9483W        W52400   4.191  13.308  20.675 -0.0109  0.0265 -0.3925
 9484W        W52401   1.708  10.861  23.469  0.0812  0.0277  0.2421
 9485W        W52402   2.076  11.750  21.653 -0.1249 -0.1875  0.3365
 9486W        W52403   1.236  14.935  20.060 -0.0715  0.2032  0.0421
 9487W        W52404   3.270  11.993  19.596  0.1082  0.0342 -0.2802
 9488W        W52405   2.417  10.495  22.913 -0.0800 -0.2756 -0.1058
 9489W        W52406  34.554  12.374  23.601  0.0816 -0.3541 -0.4497
 9490W        W52407   0.991  15.344  19.838  0.0885 -0.0310  0.2755
 9491W        W52408   2.408  12.259  21.446 -0.0075 -0.0338  0.2228
 9492W        W52409   1.992  12.243  20.772  0.0830 -0.1673  0.0483
 9493W        W52410   3.196  11.308  24.678  0.0699 -0.1957  0.1871
 9494W        W52411  33.997  12.840  22.193 -0.2117 -0.1607  0.1449
 9495W        W52412   0.126  10.087  20.496 -0.0860  0.0058 -0.0787
 9496W        W52413   2.126  11.976  21.177 -0.2414 -0.0492 -0.1375
 9497W        W52414   1.725  11.937  22.578 -0.3872 -0.2202 -0.0462
 9498W        W52415   4.365  13.971  21.124  0.2681 -0.2129  0.1000
 9499W        W52416   1.984   9.732  22.651  0.1119 -0.1539  0.3447
 9500W        W52417   0.316  11.533  22.925  0.0859  0.2184  0.0459
 9501W        W52418   0.196  14.359  22.613 -0.3666  0.0194  0.2216
 9502W        W52419   1.653  11.635  23.188  0.1006 -0.0030 -0.1156
 9503W        W52420   3.659  13.896  22.208  0.1333  0.0681 -0.1288
 9504W        W52421   2.534  13.922  22.417 -0.1600  0.0473  0.0897
 9505W        W52422   0.619  12.488  20.764 -0.0221 -0.1798  0.0821
 9506W        W52423   1.313  12.380  21.377 -0.1611  0.5074 -0.2003
 9507W        W52424   3.560  14.747  23.622  0.3304 -0.3021 -0.0998
 9508W        W52425   2.537  11.749  21.390 -0.0469 -0.0715 -0.2777
 9509W        W52426  34.332  14.709  22.502 -0.0961  0.0564 -0.2175
 9510W        W52427   0.736  13.407  22.964  0.3688  0.2688 -0.5820
 9511W        W52428   0.505  11.180  19.830  0.3044 -0.0442 -0.0476
 9512W        W52429   2.178  11.839  22.112 -0.1338 -0.1167  0.3480
 9513W        W52430   3.160  11.864  23.243 -0.4351  0.3174  0.2173
 9514W        W52431   2.411  14.427  22.296 -0.2210  0.0426  0.0600
 9515W        W52432   2.542  10.229  20.711 -0.1228  0.1918  0.0904
 9516W        W52433  34.386  12.680  20.198  0.1662  0.1829  0.0432
 9517W        W52434   2.856  11.127  22.804 -0.1331 -0.2534  0.0463
 9518W        W52435   1.407  13.392  22.314  0.0385 -0.0844  0.2870
 9519W        W52436   3.169  11.341  22.436  0.4895 -0.0547  0.1035
 9520W        W52437   0.714  12.775  23.878 -0.1751 -0.4504  0.0745
 9521W        W52438   0.357   9.253  22.099 -0.1583  0.0924  0.2315
 9522W        W52439   3.209  15.833  21.965  0.1989  0.0166  0.0783
 9523W        W52440   4.081  11.903  22.492  0.0599  0.0057 -0.0001
 9524W        W52441  33.739  13.861  20.189 -0.5015  0.1100  0.3515
 9525W        W52442  34.582  11.754  21.425 -0.0673 -0.1930 -0.0118
 9526W        W52443   2.618  10.907  20.792 -0.0612 -0.0526  0.1735
 9527W        W52444   2.780  12.027  22.340  0.1271  0.1163  0.1864
 9528W        W52445   0.640  11.640  22.003 -0.3310 -0.0016 -0.2317
 9529W        W52446   2.294  13.845  19.144  0.5299  0.0198 -0.2764
 9530W        W52447   1.044  12.178  22.709 -0.5014  0.2994  0.0790
 9531W        W52448   2.282  10.786  18.857 -0.1141  0.1411  0.2442
 9532W        W52449   3.665  15.547  20.788  0.1165 -0.4899  0.0411
 9533W        W52450   2.688  11.221  21.153  0.1998  0.2046  0.0900
 9534W        W52451   3.661  11.708  22.616  0.0158  0.3938 -0.1230
 9535W        W52452   2.932  12.771  20.150 -0.0357  0.0773 -0.2110
 9536W        W52453   3.308   9.747  24.017  0.5205  0.0314  0.0277
 9537W        W52454   2.277  12.105  22.600  0.1806  0.2671  0.2856
 9538W        W52455   1.261  14.075  19.235 -0.0363 -0.1113  0.0079
 9539W        W52456   1.902  10.831  24.529 -0.1522  0.0931  0.0646
 9540W        W52457   1.149  14.721  24.553  0.0064 -0.3165 -0.0471
 9541W        W52458   2.291  11.521  24.922  0.2507 -0.0007 -0.0956
 9542W        W52459   2.378  10.544  21.084  0.0767  0.0764  0.0609
 9543W        W52460  33.122  11.901  20.637  0.1798  0.1254  0.0880
 9544W        W52461   0.440  12.356  22.576 -0.1210  0.1068 -0.2090
 9545W        W52462   1.830  13.684  24.022 -0.2452 -0.1454 -0.0928
 9546W        W52463   1.634  14.059  19.873  0.0886 -0.2841  0.0647
 9547W        W52464   3.355  12.491  20.653 -0.0177 -0.2851  0.1948
 9548W        W52465   1.505  12.442  21.812 -0.3576 -0.1915 -0.0749
 9549W        W52466   2.405  13.101  21.349 -0.0811 -0.0434  0.1713
 9550W        W52467   4.538  13.284  19.842 -0.1091  0.0665  0.2571
 9551W        W52468   1.949  12.427  19.549  0.0353 -0.1110 -0.2160
 9552W        W52469   1.195  10.772  23.595 -0.0176  0.1431 -0.1456
 9553W        W52470   1.909  13.004  19.667 -0.0593  0.2849  0.0607
 9554W        W52471   3.577  12.277  22.626 -0.1079 -0.1228 -0.0813
 9555W        W52472   2.329  10.621  22.273  0.2344  0.0453 -0.3995
 9556W        W52473   3.636  11.700  23.349  0.0203  0.0819 -0.0925
 9557W        W52474   0.399  11.628  24.605  0.0393  0.1274 -0.1342
 9558W        W52475  33.863   9.889  23.436 -0.0656 -0.1103  0.0928
 9559W        W52476   2.276  12.727  23.231 -0.4746 -0.0248  0.2015
 9560W        W52477   4.996  12.382  18.303  0.1534  0.0884 -0.0831
 9561W        W52478   2.505  13.069  22.855 -0.0471 -0.1041  0.3832
 9562W        W52479   4.601  13.945  23.056  0.2008  0.0578 -0.1384
 9563W        W52480   4.473  12.914  20.229  0.0810 -0.2029  0.2042
 9564W        W52481  33.738  12.347  22.523 -0.3014 -0.0511 -0.1832
 9565W        W52482   1.796  13.536  21.937  0.1229 -0.0372  0.1939
 9566W        W52483   1.336  11.451  20.923  0.2808 -0.1406  0.0574
 9567W        W52484   4.640  14.054  24.493  0.2703  0.0564  0.0065
 9568W        W52485   0.096  13.379  19.809  0.2167  0.2611 -0.2262
 9569W        W52486   2.975  15.037  22.661 -0.4235  0.0553  0.2123
 9570W        W52487   4.130  13.948  23.258  0.1029 -0.0816 -0.2432
 9571W        W52488   0.696  10.512  23.672  0.4289 -0.4494 -0.1089
 9572W        W52489   0.346  14.423  25.770  0.0525  0.1131 -0.1355
 9573W        W52490   2.699  12.766  19.683  0.0122 -0.0043 -0.2335
 9574W        W52491   2.871  10.498  19.001  0.1511  0.2808 -0.0366
 9575W        W52492   1.384  11.096  23.065 -0.0941 -0.0485  0.1072
 9576W        W52493   2.532  13.816  23.319  0.0773 -0.1263  0.1562
 9577W        W52494   1.739  10.566  19.646  0.2006  0.3401 -0.5064
 9578W        W52495   3.816  11.756  25.635  0.0577  0.0818 -0.1509
 9579W        W52496  34.241  13.757  19.841 -0.1423  0.0598  0.0628
 9580W        W52497   3.184  12.341  20.216  0.1610 -0.1957 -0.0440
 9581W        W52498  34.183  15.928  23.236 -0.6618  0.0291 -0.1906
 9582W        W52499   0.754  11.119  22.766  0.2303 -0.1488  0.0660
 9583W        W52500   0.848  13.697  22.481  0.1379  0.1080 -0.1135
 9584W        W52501   1.382  10.426  20.921 -0.2593 -0.5550  0.0474
 9585W        W52502   4.642  14.738  20.536 -0.2488  0.0424 -0.4117
 9586W        W52503   0.738  13.064  21.648  0.2573 -0.1958 -0.1212
 9587W        W52504   2.470  14.420  21.805  0.0409 -0.0967 -0.1332
 9588W        W52505   0.627  14.899  23.825 -0.1542  0.0729  0.0276
 9589W        W52506   1.509  11.965  21.030 -0.1364 -0.2703  0.1723
 9590W        W52507   2.162  14.200  23.391 -0.3749 -0.2776  0.2265
 9591W        W52508   2.379  12.408  20.525  0.1298 -0.0758 -0.0413
 9592W        W52509   2.079  11.537  22.454  0.1159  0.2864  0.1802
 9593W        W52510   0.468  11.598  23.766 -0.0259  0.0338 -0.0032
 9594W        W52511   1.031  13.014  22.918  0.0923 -0.1391 -0.2316
 9595W        W52512   1.696  11.925  21.969 -0.0804 -0.0129 -0.0291
 9596W        W52513   2.648   9.879  20.205 -0.0335  0.1592 -0.0560
 9597W        W52514   0.091  12.524  19.566  0.0662 -0.0950 -0.0638
 9598W        W52515  34.515  14.748  25.774  0.0113  0.0681 -0.2518
 9599W        W52516   0.288  12.395  23.229  0.2316 -0.1436  0.0773
 9600W        W52517   2.156  12.718  21.618  0.3593 -0.0421 -0.0483
 9601W        W52518   2.813  13.449  20.918 -0.1537  0.1169 -0.1256
 9602W        W52519   2.236  15.045  20.163 -0.0583  0.0381 -0.0321
 9603W        W52520   0.163  11.902  21.865 -0.0797 -0.4467  0.2074
 9604W        W52521   2.818  11.688  20.913  0.2409  0.1264  0.3192
 9605W        W52522  32.507  12.805  22.375  0.0130  0.0349 -0.0754
 9606W        W52523   1.089  12.558  20.501  0.3602 -0.1780 -0.2473
 9607W        W52524   5.053  13.514  18.601 -0.1088 -0.0179  0.1813
 9608W        W52525   1.265  11.624  22.895  0.2751 -0.2805 -0.2446
 9609W        W52526   0.467  12.913  23.484 -0.2490 -0.1662  0.0023
 9610W        W52527   4.508  13.562  21.472  0.1419 -0.0900  0.0939
 9611W        W52528   4.199  13.400  22.902  0.3710  0.0140 -0.0720
 9612W        W52529   4.620  14.820  22.225 -0.0187  0.2279  0.1716
 9613W        W52530   2.584  13.070  23.524  0.1103 -0.1023 -0.1744
 9614W        W52531   0.895  10.717  22.380  0.1024  0.0277  0.1455
 9615W        W52532   2.295  10.643  19.690 -0.0038 -0.2786 -0.0184
 9616W        W52533   2.712  12.295  23.948 -0.1885 -0.1901 -0.2296
 9617W        W52534   3.833  14.459  24.470 -0.2904 -0.0138  0.3908
 9618W        W52535   0.145  14.136  23.395 -0.2322 -0.0199  0.2541
 9619W        W52536   3.774  13.591  19.807  0.1293  0.3483 -0.0860
 9620W        W52537   1.356  10.159  25.451 -0.0043  0.1815  0.0400
 9621W        W52538   1.358  13.215  18.898  0.2552 -0.1003  0.0059
 9622W        W52539   3.122  12.785  21.790  0.2818 -0.0331  0.0705
 9623W        W52540   2.242  12.330  18.521  0.0609 -0.3021 -0.3266
 9624W        W52541   3.719  13.785  22.821 -0.4027  0.2055  0.2588
 9625W        W52542   1.106  16.388  19.338 -0.2464  0.4568  0.0602
 9626W        W52543   1.863  13.209  23.452 -0.3112 -0.0110  0.1512
 9627W        W52544   1.418  13.290  23.757 -0.3692 -0.1282  0.0355
 9628W        W52545  34.328  11.514  21.112  0.2723 -0.0312 -0.3135
 9629W        W52546   3.583  13.708  21.533  0.1160 -0.3718  0.0895
 9630W        W52547   1.299  11.133  21.621 -0.2491 -0.0621  0.1982
 9631W        W52548   4.332  11.750  25.729 -0.0595  0.0029  0.3670
 9632W        W52549   2.630  12.374  20.060  0.2778  0.1766  0.1133
 9633W        W52550   3.282  13.403  20.599 -0.0371 -0.2599 -0.0305
 9634W        W52551   0.436  12.974  22.646 -0.0194 -0.0366 -0.1440
 9635W        W52552   1.691  11.396  21.666 -0.1842  0.0914 -0.1771
 9636W        W52553   3.825  12.596  21.338  0.1558  0.2375  0.1940
 9637W        W52554   2.607  12.485  22.994 -0.0374  0.1322 -0.1614
 9638W        W52555   2.521  12.176  20.990 -0.0593 -0.1239 -0.0672
 9639W        W52556   1.150  14.191  22.054 -0.4049  0.3949 -0.1495
 9640W        W52557   2.473  11.124  22.434  0.1525 -0.0563  0.2879
 9641W        W52558   2.668  11.331  20.526  0.2396  0.0957  0.3250
 9642W        W52559   1.085  12.887  20.115 -0.0298 -0.0580  0.2156
 9643W        W52560   0.415  11.947  23.443  0.2156 -0.0302 -0.1331
 9644W        W52561   2.223  13.933  23.876  0.1356 -0.3451  0.1007
 9645W        W52562   0.432  10.648  22.127  0.0455 -0.0240 -0.2331
 9646W        W52563   2.519  15.935  21.142  0.0710 -0.0255  0.2746
 9647W        W52564   2.457  12.528  22.514  0.0311 -0.0072 -0.1296
 9648W        W52565   0.111  13.030  20.849  0.0230 -0.0973  0.1399
 9649W        W52566   1.962  14.684  22.747  0.0287  0.1826  0.1656
 9650W        W52567   1.222  13.232  20.509 -0.0919 -0.3760  0.0190
 9651W        W52568  33.676  12.036  20.624 -0.0356 -0.3564 -0.0323
 9652W        W52569   2.492  13.924  21.634 -0.0896 -0.3413  0.1027
 9653W        W52570   2.873  13.054  21.365 -0.2455  0.0576  0.0537
 9654W        W52571   2.833  11.932  20.452  0.0093  0.0035  0.0609
 9655W        W52572   2.988  11.020  20.289 -0.1321 -0.0065  0.0364
 9656W        W52573   1.053  13.527  19.097  0.0349  0.1855 -0.0928
 9657W        W52574   5.625  13.817  22.598  0.2374  0.2193 -0.0642
 9658W        W52575   4.324  11.887  21.644  0.1276  0.3469 -0.1879
 9659W        W52576   2.601  12.962  20.892 -0.0347  0.0043 -0.2470
 9660W        W52577   4.614  11.682  23.812 -0.0668  0.0258  0.0146
 9661W        W52578   2.018  12.293  22.986 -0.0050  0.2612  0.1135
 9662W        W52579  34.520  14.246  24.366  0.0809 -0.3841 -0.0350
 9663W        W52580   0.189  14.665  18.508  0.1647  0.0835  0.3503
 9664W        W52581   1.152  11.543  21.351  0.1441  0.1498 -0.1670
 9665W        W52582   3.059  13.955  21.629 -0.3219 -0.1240  0.2760
 9666W        W52583   2.171  10.748  20.697  0.1354  0.0026  0.4429
 9667W        W52584   1.713  13.023  21.802 -0.0913 -0.2345  0.1633
 9668W        W52585   4.386  11.555  22.110 -0.0741 -0.2185  0.1002
 9669W        W52586   3.150  14.753  23.945 -0.2950 -0.0674  0.5532
 9670W        W52587   1.839  11.065  20.286  0.0786  0.0023 -0.3119
 9671W        W52588   3.209  11.298  21.282  0.3946  0.0575 -0.0041
 9672W        W52589   3.695  13.256  22.794  0.0012  0.1426 -0.0186
 9673W        W52590   0.967  10.784  24.318 -0.2578 -0.1964  0.2146
 9674W        W52591   1.161  11.023  19.656  0.0959  0.0873  0.2972
 9675W        W52592   0.598  11.669  19.489  0.1644  0.2876 -0.1485
 9676W        W52593  34.259  12.620  23.184 -0.0518  0.0343 -0.0012
 9677W        W52594   1.511  11.934  24.673  0.0851 -0.1896  0.4184
 9678W        W52595   1.527  12.097  23.056  0.0245 -0.2462 -0.1005
 9679W        W52596   1.667  11.362  22.701 -0.1650  0.0045  0.0105
 9680W        W52597   1.373  10.774  20.433  0.0828 -0.1597 -0.2173
 9681W        W52598   2.259  15.519  22.115  0.2601  0.1514  0.1192
 9682W        W52599   1.777  11.390  23.586  0.1003  0.0658  0.3117
 9683W        W52600   0.097  10.404  22.762 -0.0593  0.0656 -0.0114
 9684W        W52601   2.480  13.877  20.733 -0.1846  0.3514 -0.2063
 9685W        W52602   2.329  13.455  20.530  0.0440 -0.3120  0.2956
 9686W        W52603   4.289  11.936  21.151 -0.1711 -0.2583  0.2244
 9687W        W52604   2.401  13.353  22.416  0.0445 -0.0086 -0.0281
 9688W        W52605  33.921  11.388  20.373  0.2947 -0.1357  0.0065
 9689W        W52606   5.540  13.210  23.801  0.0086 -0.2374  0.1778
 9690W        W52607   0.708  11.622  24.216 -0.1463  0.2744  0.1995
 9691W        W52608  34.577  12.710  21.308  0.0380 -0.1160 -0.1734
 9692W        W52609   1.064  11.977  21.885 -0.2754 -0.0166  0.1588
 9693W        W52610   1.162  12.815  20.913  0.1446  0.0701  0.0533
 9694W        W52611   2.036  14.000  21.112  0.1827  0.3059 -0.0803
 9695W        W52612   2.301  13.395  23.220 -0.1152  0.1444 -0.1477
 9696W        W52613   1.992  12.809  22.676 -0.2070  0.3833 -0.3977
 9697W        W52614   0.538  10.618  24.465 -0.1035 -0.1129  0.1297
 9698W        W52615   2.925  14.382  21.359  0.1448  0.2032 -0.0802
 9699W        W52616   1.770  12.780  23.172 -0.1405 -0.2090  0.1408
 9700W        W52617   3.292  14.335  20.840 -0.0665 -0.0865 -0.1484
 9701W        W52618   3.576  11.478  22.142  0.0166 -0.2216  0.0801
 9702W        W52619   3.290  11.867  20.114 -0.0138  0.0323  0.0131
 9703W        W52620   0.018  11.908  24.660 -0.3346  0.2009 -0.0454
 9704W        W52621  33.937  13.382  23.569  0.2344 -0.2390  0.0875
 9705W        W52622   2.744  13.601  22.004  0.2099 -0.0886  0.3235
 9706W        W52623   1.377  10.966  22.126  0.1332  0.2279  0.1679
 9707W        W52624   0.576  12.106  19.937 -0.0703  0.1877 -0.3564
 9708W        W52625   4.358  14.300  20.603 -0.1541  0.1105 -0.1752
 9709W        W52626   0.811  11.625  22.759 -0.1152  0.0076 -0.0849
 9710W        W52627   4.071  11.534  20.718 -0.0558  0.0085  0.0496
 9711W        W52628   1.924  13.191  22.306  0.0684  0.0780  0.0445
 9712W        W52629   0.970  13.927  22.927  0.1023 -0.0918 -0.2352
 9713W        W52630   2.325  12.634  21.105  0.1661  0.1990  0.2818
 9714W        W52631   2.280  12.749  19.341  0.0582 -0.0641 -0.0387
 9715W        W52632   4.507  14.586  21.764  0.1124  0.0471  0.1594
 9716W        W52633   2.765  15.334  22.982 -0.0364  0.0269 -0.0390
 9717W        W52634   3.147  13.246  22.849 -0.4150 -0.2746  0.0235
 9718W        W52635   1.633  11.438  22.239  0.1091  0.0782 -0.2089
 9719W        W52636   3.154  15.328  21.650  0.2074 -0.2056  0.2129
 9720W        W52637   1.706  10.018  22.184 -0.0030  0.0519 -0.0114
 9721W        W52638   0.615  11.363  22.376  0.0840 -0.0974  0.3851
 9722W        W52639   2.132  13.235  20.908  0.0518  0.0972 -0.2716
 9723W        W52640   1.843  10.501  22.163 -0.2467 -0.1960  0.0609
 9724W        W52641   0.117  11.524  19.804 -0.1045 -0.1003  0.1476
 9725W        W52642   3.423  11.211  20.146 -0.0017 -0.0718 -0.3062
 9726W        W52643   1.028  14.114  23.493  0.0579 -0.1082 -0.2511
 9727W        W52644   2.692  12.636  21.585  0.1996  0.2309 -0.2483
 9728W        W52645   1.063  11.827  25.100  0.2199  0.0620  0.1532
 9729W        W52646   1.166  11.278  22.483  0.1293  0.2486 -0.0048
 9730W        W52647   4.127  12.228  23.405 -0.2736 -0.0087  0.2217
 9731W        W52648   2.327  13.360  24.755 -0.0544  0.2079  0.0244
 9732W        W52649  33.253  10.553  26.598 -0.2269  0.0505  0.2681
 9733W        W52650   2.500  14.745  24.372  0.0476 -0.2723  0.0746
 9734W        W52651   1.854  11.367  26.814  0.1668 -0.0452  0.2435
 9735W        W52652   1.812  13.079  26.062 -0.1060 -0.1900 -0.2463
 9736W        W52653   2.938  14.978  26.034  0.1434  0.1643 -0.1383
 9737W        W52654   0.907  13.403  23.939  0.2132  0.2350  0.2728
 9738W        W52655   2.549  10.992  27.736 -0.0734 -0.0075 -0.2834
 9739W        W52656   0.399  13.526  26.649 -0.2028  0.0623  0.2465
 9740W        W52657   1.273  10.201  26.295 -0.2966  0.2553  0.0887
 9741W        W52658  34.401   9.955  26.030 -0.0545  0.0992  0.1573
 9742W        W52659   2.534  12.549  27.727 -0.2984 -0.0887  0.1027
 9743W        W52660   1.651  11.968  25.190 -0.0238  0.0179 -0.1361
 9744W        W52661   2.343  12.325  23.501 -0.0092 -0.0366  0.1337
 9745W        W52662   4.512  12.239  24.528 -0.0796 -0.0458  0.1598
 9746W        W52663   1.192  13.924  25.799  0.0171  0.0290  0.2743
 9747W        W52664   3.404  11.426  28.848 -0.1641  0.1411  0.1935
 9748W        W52665   1.724  12.493  26.430 -0.5417 -0.1523 -0.0167
 9749W        W52666   3.187  14.054  25.091 -0.2004  0.1264 -0.3614
 9750W        W52667   0.184  11.459  24.151 -0.1613  0.2050  0.0881
 9751W        W52668   0.395  12.913  25.619 -0.0348 -0.0420 -0.3662
 9752W        W52669   0.483  12.339  27.126  0.1928 -0.0996  0.0857
 9753W        W52670   2.881  11.522  27.188 -0.1279  0.0794 -0.3414
 9754W        W52671   4.236  11.782  24.755 -0.1263 -0.4059  0.1056
 9755W        W52672   1.633  13.206  24.547 -0.0139  0.1399 -0.2372
 9756W        W52673   2.690  12.373  25.565  0.4576  0.0656  0.1859
 9757W        W52674   4.328  13.287  27.082 -0.0327  0.0924  0.0352
 9758W        W52675  33.785  11.554  25.023 -0.2481  0.0540  0.0121
 9759W        W52676   0.080  11.717  25.163 -0.0092 -0.0899 -0.1406
 9760W        W52677   0.701  13.848  25.618 -0.1365  0.0899 -0.0363
 9761W        W52678   1.370  13.675  25.422  0.0552 -0.3832 -0.3809
 9762W        W52679   1.543  13.409  26.355  0.0937  0.3454 -0.0518
 9763W        W52680   1.966  14.154  26.928  0.1746  0.0262  0.0735
 9764W        W52681   0.756  12.017  23.786  0.2966  0.1295  0.2908
 9765W        W52682  33.570  14.698  27.498  0.1126 -0.0054 -0.1134
 9766W        W52683   2.690  13.992  25.189 -0.0002 -0.1656  0.2295
 9767W        W52684   2.502  12.137  24.402  0.0166  0.1880 -0.0170
 9768W        W52685   1.340  11.877  23.541 -0.2367  0.1130  0.1308
 9769W        W52686  34.579  14.115  25.711 -0.2647 -0.3221 -0.0625
 9770W        W52687   2.095  11.729  26.516  0.1362  0.1032 -0.0587
 9771W        W52688   2.149  12.218  26.376  0.2380 -0.0559  0.1262
 9772W        W52689   1.869  14.989  25.841 -0.0602  0.1494 -0.1315
 9773W        W52690   4.012  12.166  27.396 -0.0552 -0.0446 -0.0460
 9774W        W52691   0.936  15.625  23.184 -0.0061  0.1024 -0.2591
 9775W        W52692   2.256  13.376  23.741 -0.0127  0.0772  0.0147
 9776W        W52693   1.003  12.902  23.447 -0.0471 -0.1177  0.3816
 9777W        W52694   1.541  11.591  24.101 -0.0478 -0.1821 -0.0272
 9778W        W52695   2.543  10.624  27.400 -0.2091 -0.0126  0.2729
 9779W        W52696   0.875  14.172  26.061 -0.0956 -0.0803  0.1167
 9780W        W52697   1.631  11.186  27.256  0.1962  0.3370  0.0481
 9781W        W52698   2.249  11.794  26.071 -0.0630 -0.2227  0.0056
 9782W        W52699   3.154  11.235  25.168  0.0002  0.2146 -0.0041
 9783W        W52700   2.781  11.091  26.261 -0.1744  0.2241  0.0551
 9784W        W52701   3.122  13.155  26.005 -0.3557 -0.2685 -0.2089
 9785W        W52702   0.970  11.388  25.905  0.2046 -0.0931  0.3671
 9786W        W52703   0.590  13.363  25.525  0.0285  0.2982  0.1673
 9787W        W52704   3.572  13.483  27.572  0.4721  0.1598 -0.0030
 9788W        W52705   2.065  13.837  23.051  0.1105 -0.1723  0.1090
 9789W        W52706   1.594  11.592  26.377  0.1200  0.3429 -0.2037
 9790W        W52707   1.765  12.955  28.565  0.0320  0.1604 -0.2381
 9791W        W52708   0.481  14.143  28.476  0.2494  0.0567  0.1470
 9792W        W52709   1.844  12.637  24.037  0.2586  0.0572 -0.0355
 9793W        W52710   2.492  13.685  27.869  0.1877 -0.2850  0.0552
 9794W        W52711   0.264  13.825  27.879 -0.2871  0.4908 -0.0889
 9795W        W52712   3.970  12.943  25.583  0.1526  0.0839 -0.1302
 9796W        W52713   0.828  12.153  26.796  0.1516  0.0442 -0.2459
 9797W        W52714   3.801  14.553  25.428 -0.0619  0.1614 -0.0606
 9798W        W52715   2.989  12.787  23.058  0.3651  0.0134 -0.0226
 9799W        W52716   5.086  10.672  27.677 -0.1394 -0.2890  0.0159
 9800W        W52717   3.903  10.142  26.076  0.3220  0.0372 -0.4671
 9801W        W52718   0.750  12.382  23.429  0.0197 -0.1317  0.2869
 9802W        W52719   0.157  11.430  23.433  0.1700  0.1582  0.1960
 9803W        W52720   5.351  14.906  26.072 -0.0242 -0.0779  0.2450
 9804W        W52721   2.991  14.699  23.402 -0.0369  0.2661 -0.2803
 9805W        W52722   0.919  12.181  24.667 -0.0063 -0.0014  0.0528
 9806W        W52723   2.170  12.331  27.931  0.4596  0.3473  0.3266
 9807W        W52724   2.975  13.718  29.449 -0.1260 -0.0217  0.0381
 9808W        W52725  34.041  14.286  24.780 -0.0688 -0.1485  0.5731
 9809W        W52726  34.104  13.337  24.381  0.0748  0.3726 -0.1446
 9810W        W52727   0.331  12.269  24.522 -0.1498 -0.0372  0.1654
 9811W        W52728  33.489   9.823  27.428  0.1104 -0.0800  0.1502
 9812W        W52729   2.785  12.833  25.733 -0.0981 -0.3385  0.0987
 9813W        W52730   3.041  11.924  24.781 -0.0183 -0.3322  0.0722
 9814W        W52731   1.389  12.642  25.514  0.1939 -0.2057 -0.1784
 9815W        W52732   2.948   9.000  26.316 -0.3472 -0.0167 -0.2519
 9816W        W52733   0.888  12.090  25.898 -0.0177 -0.1554 -0.3422
 9817W        W52734   1.577  14.918  26.250  0.1052 -0.2549 -0.2784
 9818W        W52735   6.200  14.998  25.566  0.2670 -0.1510 -0.1714
 9819W        W52736   0.349  13.195  24.007 -0.1000  0.0501  0.1848
 9820W        W52737   0.939  12.946  25.595 -0.0762 -0.1329 -0.2558
 9821W        W52738   0.475   9.937  24.987 -0.1235 -0.2421  0.2818
 9822W        W52739   1.120  12.758  25.083  0.0987 -0.1459  0.1515
 9823W        W52740   0.620  12.022  25.455 -0.0341  0.0269  0.1151
 9824W        W52741   4.245  12.507  29.246 -0.2764 -0.1570 -0.0728
 9825W        W52742  34.460   9.336  24.569 -0.0084  0.4298  0.0186
 9826W        W52743   3.547  12.164  25.480 -0.0177  0.2057 -0.1863
 9827W        W52744   3.119  11.323  24.122  0.1033  0.0612 -0.1489
 9828W        W52745   0.085  12.324  26.547  0.0854 -0.0890 -0.0913
 9829W        W52746   3.421  10.223  26.196  0.0418  0.0062  0.1102
 9830W        W52747   0.749  13.582  26.092 -0.4225 -0.5153  0.0246
 9831W        W52748   2.374  14.399  26.428  0.0588 -0.1623 -0.3030
 9832W        W52749   5.030  14.847  27.523  0.0378  0.2264  0.0584
 9833W        W52750   1.770  12.500  26.976  0.1204 -0.1167 -0.1798
 9834W        W52751   0.121  11.053  23.083  0.1859  0.0010 -0.0232
 9835W        W52752  34.377  13.932  26.166  0.2261 -0.2221  0.2898
 9836W        W52753   3.413  13.415  25.650  0.2085 -0.0418 -0.0742
 9837W        W52754   2.436  10.658  25.355  0.1038 -0.0958  0.1037
 9838W        W52755   3.511  15.833  25.959  0.2248  0.0603 -0.0543
 9839W        W52756   2.699  12.644  24.304  0.0337 -0.0273 -0.1217
 9840W        W52757   2.887  13.457  26.497  0.1356  0.0645 -0.0257
 9841W        W52758   3.233  10.199  27.835  0.0175  0.0885 -0.1394
 9842W        W52759   4.324  14.577  26.906 -0.1718 -0.2602 -0.0052
 9843W        W52760   4.058  10.800  25.550 -0.4221  0.1116 -0.1167
 9844W        W52761  33.745  11.216  24.660  0.0612  0.1001  0.1062
 9845W        W52762   2.227  14.843  25.436 -0.1485 -0.2170 -0.1185
 9846W        W52763  33.659  14.665  24.769 -0.1717  0.1630  0.0214
 9847W        W52764  34.132  12.676  26.547 -0.1853  0.0176 -0.0246
 9848W        W52765   0.447  14.418  26.331 -0.4614 -0.1335 -0.0778
 9849W        W52766   2.357   9.361  28.505 -0.1853  0.1567 -0.1253
 9850W        W52767   1.278  13.697  27.999 -0.0990  0.0245 -0.0489
 9851W        W52768   2.601  12.094  27.973  0.2723  0.0455  0.3876
 9852W        W52769   1.497  12.109  25.691 -0.1112 -0.1968  0.0850
 9853W        W52770   0.647  14.542  24.742  0.0994 -0.0120 -0.6114
 9854W        W52771   2.739  12.309  26.904 -0.2008 -0.0422 -0.0182
 9855W        W52772   4.697  11.869  25.170  0.0808 -0.0245  0.0630
 9856W        W52773   1.307  12.041  27.063  0.0543 -0.0621  0.2261
 9857W        W52774   3.741  14.270  25.912  0.4930  0.0272  0.2292
 9858W        W52775   2.569  11.330  24.132  0.0954  0.4446  0.0664
 9859W        W52776   3.211  12.747  24.462  0.2100 -0.1506  0.1585
 9860W        W52777   1.213  12.438  27.294 -0.1523  0.0760 -0.1782
 9861W        W52778   2.147  15.432  25.743 -0.0200  0.0939  0.3689
 9862W        W52779   1.187  11.997  26.506  0.1984 -0.2313  0.1362
 9863W        W52780   1.579  12.514  22.763 -0.1073 -0.1869  0.2677
 9864W        W52781   3.728  14.281  25.012 -0.0574 -0.1955 -0.0165
 9865W        W52782   3.048  12.581  26.134 -0.0696  0.0497  0.1220
 9866W        W52783   2.528  13.780  26.750 -0.0513  0.2819  0.3689
 9867W        W52784   3.423  14.169  25.508  0.0237  0.0927  0.2078
 9868W        W52785   0.886  10.405  25.341  0.0332  0.1005  0.1952
 9869W        W52786   0.089  11.547  25.880  0.1525  0.2256  0.1473
 9870W        W52787   3.136  10.939  25.808  0.3882  0.2494  0.0018
 9871W        W52788   0.335  15.714  24.070 -0.1631 -0.1699  0.0645
 9872W        W52789   2.071  10.564  25.842 -0.0933 -0.0954  0.0275
 9873W        W52790   3.388  10.816  27.956  0.1768  0.0060  0.1051
 9874W        W52791   1.792  11.998  26.113  0.2516 -0.0717  0.0376
 9875W        W52792   4.091  13.456  27.799 -0.0738  0.1255  0.1958
 9876W        W52793   1.670  13.507  23.072 -0.1313 -0.0744 -0.2406
 9877W        W52794   3.084  11.534  26.015 -0.1233  0.2049  0.0365
 9878W        W52795   0.832  12.362  24.186 -0.3928  0.0310  0.0169
 9879W        W52796   1.820  13.214  27.507 -0.0197 -0.0530  0.1037
 9880W        W52797   0.698  14.034  26.502 -0.0745  0.1075 -0.1507
 9881W        W52798   0.736  13.017  26.019 -0.0027 -0.0776  0.0101
 9882W        W52799   3.388  13.770  26.402  0.2802 -0.0574  0.0369
 9883W        W52800   2.500  13.408  25.260  0.0564 -0.2135  0.2864
 9884W        W52801   3.307  11.669  28.414  0.3967 -0.0995  0.1943
 9885W        W52802   2.672  11.048  25.000 -0.0433 -0.1116  0.2938
 9886W        W52803   1.444  13.399  24.909 -0.0736  0.0654 -0.3516
 9887W        W52804   1.592  12.876  25.016  0.3622 -0.2982 -0.2432
 9888W        W52805   0.914  12.059  27.324 -0.1054 -0.0797 -0.1248
 9889W        W52806  34.459  14.166  25.049 -0.0034  0.0087 -0.1351
 9890W        W52807   1.150  13.369  24.404 -0.0520  0.1151  0.0333
 9891W        W52808   1.508  13.492  25.888 -0.0902  0.1827  0.0878
 9892W        W52809   2.119  13.681  25.918  0.2745 -0.2621 -0.2143
 9893W        W52810   4.318   9.582  28.501 -0.0382  0.0349  0.0001
 9894W        W52811   1.213  12.915  24.637  0.2194  0.0900 -0.2478
 9895W        W52812   1.226  10.834  25.449 -0.0847 -0.0846 -0.0544
 9896W        W52813  34.616  13.549  26.432  0.0320 -0.0280  0.1396
 9897W        W52814   1.672  12.136  23.887  0.0553  0.0051 -0.0283
 9898W        W52815   2.806  13.394  23.182  0.2339 -0.2747 -0.2596
 9899W        W52816   2.229  11.927  27.632  0.3000 -0.1548  0.0417
 9900W        W52817   3.014  12.124  26.523 -0.2829 -0.0551 -0.0681
 9901W        W52818  34.628  12.835  26.443 -0.1759  0.0684 -0.1832
 9902W        W52819   2.156  12.648  26.671  0.1203 -0.3394 -0.0509
 9903W        W52820   3.521  10.076  24.865  0.0473 -0.3169  0.0196
 9904W        W52821   2.299  11.653  24.416 -0.2576  0.0016  0.0138
 9905W        W52822   2.128  14.463  27.290 -0.3284 -0.2897  0.3801
 9906W        W52823  32.200  12.174  25.549 -0.1179 -0.2444  0.2898
 9907W        W52824   3.282  11.290  26.923 -0.1032  0.0646 -0.1023
 9908W        W52825   0.032  13.194  26.802  0.0333 -0.0219  0.1142
 9909W        W52826   0.103  12.758  24.891  0.1542 -0.0379  0.1146
 9910W        W52827   3.702  15.450  27.905  0.1414  0.1652 -0.0971
 9911W        W52828  34.169  12.127  24.594 -0.0924 -0.1432  0.2325
 9912W        W52829   0.679  11.731  26.110 -0.0091  0.2032  0.0013
 9913W        W52830   1.362  13.388  26.813 -0.1835 -0.0878  0.2450
 9914W        W52831   2.992  12.793  26.601  0.3231  0.0629 -0.0364
 9915W        W52832   0.996  12.321  25.347  0.4030  0.0224  0.0810
 9916W        W52833   3.443  11.707  25.264  0.2162 -0.2441  0.1673
 9917W        W52834   1.418  11.535  25.366 -0.1552 -0.3378  0.1014
 9918W        W52835   3.227  14.546  25.777  0.1120  0.0086 -0.0332
 9919W        W52836   3.652  11.498  26.681  0.0793  0.2275  0.3283
 9920W        W52837   2.350  12.400  25.949  0.2295  0.1948  0.1012
 9921W        W52838   2.522   9.954  26.308  0.1443  0.2182  0.3358
 9922W        W52839   5.286  14.574  25.509 -0.0501 -0.0804 -0.0892
 9923W        W52840   3.723  13.130  28.008  0.1287  0.2739 -0.5441
 9924W        W52841   0.504  11.857  25.000 -0.1742 -0.1589 -0.3044
 9925W        W52842   0.770  13.093  26.801 -0.0006 -0.0094  0.1668
 9926W        W52843   2.192  12.066  23.993  0.0023  0.0654 -0.3038
 9927W        W52844   3.826  11.441  25.979  0.2679  0.1038 -0.1585
 9928W        W52845   3.172  12.493  25.552  0.0973  0.3448  0.2642
 9929W        W52846   0.636  12.901  25.134  0.1485  0.2042 -0.0197
 9930W        W52847   0.753  14.814  26.360  0.0369  0.0877  0.1119
 9931W        W52848   3.483  11.790  26.189  0.0169  0.0176 -0.1003
 9932W        W52849   1.943  15.119  23.616  0.1716 -0.1670 -0.2585
 9933W        W52850   2.578  11.465  25.891  0.0589  0.0584  0.0293
 9934W        W52851   2.761  10.240  27.790  0.0174  0.0996 -0.0007
 9935W        W52852   2.866  14.371  24.226  0.2400  0.1513 -0.0386
 9936W        W52853   2.630  10.891  29.000  0.5685 -0.2826  0.1688
 9937W        W52854   1.753  10.946  25.936 -0.0064  0.0672 -0.3574
 9938W        W52855   3.459  14.738  26.835  0.0332 -0.3309  0.2030
 9939W        W52856  33.902  10.976  27.614  0.0933  0.2485 -0.1388
 9940W        W52857   2.626  13.772  28.678  0.0951  0.1915 -0.1783
 9941W        W52858   0.540  12.491  28.029 -0.0738 -0.1985  0.2598
 9942W        W52859   2.336  12.939  25.114 -0.1039  0.0806 -0.1322
 9943W        W52860   1.383  11.206  25.724 -0.0348  0.0444  0.0439
 9944W        W52861   2.856  12.103  25.983  0.1037 -0.0574  0.0976
 9945W        W52862   2.690  13.018  26.160  0.2078  0.0280 -0.0786
 9946W        W52863   1.970  13.259  25.098 -0.1587 -0.0663 -0.0550
 9947W        W52864   4.319  13.772  25.323  0.3498  0.1563  0.0228
 9948W        W52865   1.212  11.268  24.899 -0.2780  0.1735  0.1333
 9949W        W52866   2.873  14.179  25.727 -0.1027  0.0039 -0.0753
 9950W        W52867   0.570  13.389  23.432 -0.1705 -0.0514 -0.0573
 9951W        W52868   3.773  12.548  25.846  0.1532 -0.0218  0.2265
 9952W        W52869   0.476  11.264  26.095  0.3759 -0.1910  0.0075
 9953W        W52870   3.683  10.546  25.886  0.0552  0.2372  0.1283
 9954W        W52871   3.361  10.367  26.695 -0.2375  0.0699  0.1281
 9955W        W52872   4.033  12.947  28.343  0.1680  0.0101  0.1369
 9956W        W52873   3.386  12.547  27.474  0.1357 -0.2146  0.2378
 9957W        W52874   2.500  14.202  28.317 -0.0403 -0.0660  0.2511
 9958W        W52875  34.549   9.567  26.480  0.4318  0.3040 -0.0105
 9959W        W52876   0.216  13.714  25.648 -0.0056 -0.0922  0.5448
 9960W        W52877   4.331  12.632  25.401  0.2878  0.0266 -0.0541
 9961W        W52878   4.805  13.276  27.861  0.1561 -0.0534 -0.0804
 9962W        W52879   2.043  10.140  25.594  0.3176 -0.0490  0.0099
 9963W        W52880   2.510  11.601  22.616 -0.2491 -0.1306 -0.0720
 9964W        W52881  33.837   9.055  24.860 -0.1478 -0.2340 -0.1583
 9965W        W52882   2.416  13.372  29.033 -0.0099  0.0123 -0.0469
 9966W        W52883   0.929  10.736  24.871 -0.1282  0.0638  0.0909
 9967W        W52884   4.225  13.520  26.655 -0.1087 -0.0335  0.1847
 9968W        W52885   1.411  13.114  23.270  0.3050  0.0022  0.1528
 9969W        W52886   3.309  14.664  26.288  0.0144 -0.1443  0.2019
 9970W        W52887   2.590  13.894  24.303  0.1513 -0.1784  0.1707
 9971W        W52888  34.353  11.736  27.159  0.0251  0.1113 -0.0589
 9972W        W52889   1.561  13.867  27.030 -0.0073 -0.0877 -0.0926
 9973W        W52890   0.458  10.493  25.015  0.0269  0.0625  0.0661
 9974W        W52891   2.552  11.495  22.102  0.4102 -0.0595 -0.1743
 9975W        W52892   3.026  13.124  25.261 -0.1425  0.2361  0.1309
 9976W        W52893   3.467  13.317  28.752  0.0313 -0.0313 -0.2359
 9977W        W52894   1.772  12.354  23.477 -0.3197 -0.1168 -0.4146
 9978W        W52895   5.629  13.143  27.692 -0.0016 -0.0579  0.1016
 9979W        W52896   0.635  14.312  23.050 -0.0620 -0.1410 -0.2997
 9980W        W52897   2.525  11.121  27.247 -0.4643  0.2426  0.1556
 9981W        W52898   2.710  14.937  25.209  0.1357  0.2373  0.0795
 9982W        W52899   0.010  10.617  24.477  0.0599 -0.1306  0.0280
 9983W        W52900   1.780  13.700  27.739 -0.0386 -0.1844  0.0529
 9984W        W52901   0.961   9.137  28.788  0.1425 -0.0996  0.0788
 9985W        W52902   3.941  12.057  26.567 -0.0357 -0.1915 -0.3401
 9986W        W52903   3.558  12.608  24.152  0.0181 -0.1052  0.2446
 9987W        W52904   4.681  13.369  26.726 -0.0214  0.2036 -0.0133
 9988W        W52905   1.460  12.856  26.628  0.0445 -0.0054  0.2468
 9989W        W52906   2.946  11.420  25.561 -0.0075 -0.3701 -0.1109
 9990W        W52907   2.957  14.010  26.594 -0.0329  0.0026 -0.1082
 9991W        W52908   3.009  12.804  27.257 -0.0120 -0.1227 -0.1357
 9992W        W52909   1.492  14.166  25.522  0.0117 -0.0477 -0.0779
 9993W        W52910  33.048  11.996  27.259 -0.2254  0.0561  0.0256
 9994W        W52911   2.869  13.339  28.092 -0.0368 -0.0889  0.1216
 9995W        W52912   1.706  12.544  25.885  0.3467  0.2164  0.3598
 9996W        W52913  34.499   9.267  25.491  0.0914 -0.2260  0.0404
 9997W        W52914   0.494  13.726  25.192  0.1700 -0.0229 -0.0413
 9998W        W52915   1.368  14.333  27.155  0.0049  0.0244 -0.0202
 9999W        W52916   1.447  13.530  27.367  0.2071  0.1222  0.0420
10000W        W52917   2.472  13.005  24.001  0.2200  0.0978  0.1737
10001W        W52918   2.025  13.291  22.813 -0.2598  0.0395 -0.0447
10002W        W52919   2.195  12.897  24.575  0.3188  0.1439  0.2500
10003W        W52920   3.421  14.186  26.808  0.0298  0.0038 -0.0165
10004W        W52921   2.145  11.660  25.397  0.0774 -0.1774 -0.2942
10005W        W52922   0.683  12.514  25.660  0.1199 -0.0638  0.2794
10006W        W52923  34.368  11.550  25.443  0.1260 -0.2038  0.0299
10007W        W52924   2.897  12.380  24.829 -0.4049  0.0344  0.0747
10008W        W52925   1.345  12.412  24.424  0.1965  0.1614  0.3743
10009W        W52926   1.063  13.211  26.410 -0.2532 -0.1634  0.2479
10010W        W52927   3.169  10.444  25.729 -0.1116  0.2524 -0.3455
10011W        W52928   6.333  14.109  25.883 -0.0619 -0.0323 -0.0727
10012W        W52929   3.873   9.669  25.839  0.1232 -0.1424 -0.1053
10013W        W52930   1.406  14.113  28.935  0.2454 -0.2617 -0.0075
10014W        W52931   2.872  12.109  28.364 -0.0357 -0.1632 -0.3483
10015W        W52932   1.853  12.311  24.870 -0.0656  0.1126  0.0746
10016W        W52933   1.914  13.122  26.577  0.0020  0.2199  0.0981
10017W        W52934   5.475   8.875  27.637  0.3628  0.1425 -0.2686
10018W        W52935  33.926  12.297  27.809 -0.5175  0.3066 -0.1302
10019W        W52936   2.723  13.174  24.383 -0.2847  0.1419 -0.0372
10020W        W52937   0.390  11.054  23.738  0.0465 -0.1709  0.0977
10021W        W52938   3.760  12.595  25.348 -0.1082  0.3590 -0.0624
10022W        W52939   3.685  10.480  27.743  0.0505  0.1782 -0.0707
10023W        W52940   0.685  12.644  24.700  0.1637 -0.2375  0.0165
10024W        W52941   2.228  10.080  26.714 -0.0075 -0.0165 -0.0388
10025W        W52942   2.281  15.341  26.657  0.0451 -0.0689  0.0137
10026W        W52943   1.841  13.554  25.463  0.1496  0.0444 -0.1029
10027W        W52944   3.574  13.102  25.134  0.0293  0.1516  0.2607
10028W        W52945  32.842  10.400  25.934 -0.0397  0.2058  0.4244
10029W        W52946   4.363  11.250  25.763  0.3959  0.0479  0.0445
10030W        W52947   1.815  14.066  27.444 -0.1032 -0.1019 -0.1828
10031W        W52948   4.478  10.240  26.905 -0.1657 -0.1421  0.0541
10032W        W52949   3.519  10.831  25.542  0.2038  0.1758  0.3122
10033W        W52950   1.799  11.499  25.047 -0.0747 -0.1532  0.0112
10034W        W52951   1.292  13.008  26.022  0.1555 -0.2707 -0.0477
10035W        W52952   1.267  12.397  26.124  0.3040  0.0321 -0.1239
10036W        W52953   1.263  10.357  22.304 -0.1606  0.1632  0.4309
10037W        W52954   3.487  11.348  27.848  0.1766 -0.2469 -0.1327
10038W        W52955   2.388  11.986  23.162  0.0915 -0.1484  0.2331
10039W        W52956   3.865  14.737  27.288  0.0414 -0.3642 -0.0408
10040W        W52957  33.732  10.973  25.677  0.2483 -0.0554 -0.1375
10041W        W52958   3.846  11.893  25.094 -0.0833  0.1024  0.0275
10042W        W52959  33.912  11.460  25.487  0.0780 -0.2766 -0.2175
10043W        W52960   1.802  12.079  27.189 -0.1172 -0.0813  0.2630
10044W        W52961   2.768  15.393  26.475 -0.0556  0.0950 -0.1335
10045W        W52962   0.853  10.261  24.695 -0.4413 -0.1150  0.2715
10046W        W52963   2.075  13.734  22.323 -0.2178  0.0634  0.0028
10047W        W52964   3.861  12.572  26.333 -0.0076  0.3995 -0.0436
10048W        W52965   2.521  13.474  26.176 -0.0039 -0.4580 -0.0246
10049W        W52966   4.078  12.440  24.783  0.0871  0.2525  0.1261
10050W        W52967   2.083  13.544  26.462  0.1807  0.1786  0.0290
10051W        W52968  32.998   9.663  26.513 -0.3796  0.0134 -0.0526
10052W        W52969   3.204  14.336  27.239  0.0612 -0.1128  0.1355
10053W        W52970   5.741  13.247  27.205 -0.0914  0.4313  0.0633
10054W        W52971   4.273  10.861  23.620 -0.0421  0.2170  0.5147
10055W        W52972   3.462  12.850  26.234  0.0789  0.2500  0.0397
10056W        W52973  34.120  15.610  24.302  0.1042  0.0919 -0.1613
10057W        W52974   3.718  10.625  26.373  0.0969  0.1741  0.2145
10058W        W52975   1.696  12.075  26.649 -0.2660  0.1406 -0.0585
10059W        W52976  34.493  15.542  23.377 -0.3073  0.0489 -0.1987
10060W        W52977   4.871  10.685  28.101 -0.0329 -0.1662 -0.1624
10061W        W52978   2.062  14.040  26.272 -0.6118 -0.0752 -0.2471
10062W        W52979   1.379  15.066  27.705  0.3546 -0.1656 -0.0235
10063W        W52980   1.991  11.853  24.727  0.0248 -0.2488 -0.1839
10064W        W52981   2.533  13.415  27.075  0.1502 -0.1039  0.1295
10065W        W52982   1.865  11.913  24.273 -0.1386  0.0708 -0.3714
10066W        W52983   2.465  14.384  25.450  0.2502 -0.0642  0.2186
10067W        W52984   3.752  12.300  26.969 -0.1161 -0.2458 -0.0295
10068W        W52985   2.384  10.600  24.718  0.2485  0.2239  0.1129
10069W        W52986   3.405  12.227  26.055 -0.2442 -0.2930  0.0371
10070W        W52987   0.620  11.499  26.561 -0.2705 -0.0772  0.1595
10071W        W52988   2.906  10.271  26.224 -0.1353  0.3862 -0.0549
10072W        W52989   4.760   8.839  27.410 -0.0281 -0.1793 -0.1094
10073W        W52990   2.731  14.662  24.800 -0.0622  0.1455  0.1743
10074W        W52991   2.164  11.042  25.054  0.2792 -0.4064 -0.1933
10075W        W52992   0.776  13.030  24.336 -0.1601  0.3740  0.1129
10076W        W52993   1.338  13.245  27.815 -0.1782 -0.1615  0.0435
10077W        W52994   2.380  11.039  26.666 -0.1220  0.1644  0.0860
10078W        W52995   1.028  10.202  27.774  0.3253  0.1111 -0.3480
10079W        W52996   2.948  12.057  25.260  0.1952 -0.1918  0.0736
10080W        W52997   1.719  11.566  25.875  0.4397 -0.0138 -0.1523
10081W        W52998   3.638  13.013  24.670 -0.3451  0.0219 -0.3354
10082W        W52999   1.968  11.589  27.266  0.2695  0.2600  0.0589
10083W        W53000   1.053  11.224  27.254 -0.4716 -0.0667 -0.1012
10084W        W53001   4.017  14.763  25.894 -0.0118  0.0264 -0.3608
10085W        W53002   1.306  15.776  26.154 -0.1202 -0.0565  0.1803
10086W        W53003   3.585  12.502  24.683 -0.3846  0.0022 -0.0122
10087W        W53004   3.082  13.486  27.327  0.0792 -0.1572 -0.1096
10088W        W53005   1.289  12.631  23.165 -0.1656  0.1524  0.1117
10089W        W53006   2.576  12.555  28.265  0.0072 -0.0151  0.2234
10090W        W53007   3.825  11.767  28.137  0.0950 -0.0742 -0.2381
10091W        W53008  34.510  11.362  23.839  0.4874 -0.0257 -0.2576
10092W        W53009   3.438  11.963  26.675  0.0002 -0.0963 -0.1311
10093W        W53010   1.981  13.652  24.615  0.2013  0.3909 -0.0570
10094W        W53011   1.646  12.765  22.285  0.1425 -0.4393 -0.1399
10095W        W53012   2.120  12.938  29.069 -0.2208  0.1557 -0.2472
10096W        W53013   1.132  14.569  26.289 -0.0753 -0.2965  0.0927
10097W        W53014   0.437  10.055  29.036 -0.2157  0.1274  0.0945
10098W        W53015   3.593  11.023  24.681  0.1301 -0.0626 -0.4230
10099W        W53016   2.753  14.273  28.769  0.5408  0.0157  0.0078
10100W        W53017   5.172  13.347  26.178  0.2002 -0.0994 -0.1417
10101W        W53018   4.163  10.441  27.358 -0.3438 -0.0295  0.1643
10102W        W53019   3.127  12.259  24.348 -0.2572  0.2750  0.1272
10103W        W53020   2.380  11.022  25.972 -0.3123 -0.0064  0.0938
10104W        W53021   1.136  14.374  27.733 -0.0411  0.1268  0.0990
10105W        W53022   3.003  11.958  27.022 -0.1455  0.2769 -0.3785
10106W        W53023   0.092  11.530  26.510 -0.2953  0.2197  0.0136
10107W        W53024   2.796  13.563  24.917 -0.0186  0.1437  0.0509
10108W        W53025   2.365  14.270  24.621  0.2556 -0.1410 -0.0573
10109W        W53026   0.888  11.059  26.330  0.0874  0.2556  0.3294
10110W        W53027   1.818  13.132  24.094  0.0202  0.2514  0.1590
10111W        W53028   2.259  13.479  27.516  0.0721 -0.2570 -0.2490
10112W        W53029   2.216  12.783  26.207  0.1649  0.2513 -0.2160
10113W        W53030   4.281  11.771  27.244  0.1364 -0.3392  0.1574
10114W        W53031   1.277  10.716  26.443 -0.5933 -0.1748  0.0058
10115W        W53032   2.608  11.833  25.533 -0.0813 -0.0548  0.0511
10116W        W53033   3.862  12.630  27.345 -0.0737  0.2638  0.0528
10117W        W53034   3.015  14.458  28.334 -0.0469  0.1468 -0.2120
10118W        W53035   2.307  14.824  26.043 -0.0510  0.0255 -0.1620
10119W        W53036   3.260  11.177  26.420  0.0438 -0.2990  0.1177
10120W        W53037   0.995  11.626  26.955 -0.1240  0.3133 -0.1852
10121W        W53038   0.232  11.110  25.599 -0.0306  0.1907  0.1131
10122W        W53039  34.076  11.171  24.263 -0.0442 -0.0051 -0.0367
10123W        W53040   2.900  12.368  27.400 -0.1445  0.3750 -0.2461
10124W        W53041   2.308  12.715  25.526 -0.1249  0.2229 -0.1687
10125W        W53042   2.614  10.671  26.930  0.2578  0.0737  0.1123
10126W        W53043   0.099  14.461  26.747  0.1240  0.1644  0.1831
10127W        W53044   3.023  13.685  26.030 -0.2856  0.1932  0.0069
10128W        W53045   0.160  14.608  29.627  0.2915 -0.1122  0.1087
10129W        W53046   1.005  12.362  28.280  0.0254 -0.1445  0.0024
10130W        W53047   5.055  11.463  27.457  0.3071  0.1139  0.1309
10131W        W53048   5.052  11.971  29.270 -0.3385 -0.0904  0.3365
10132W        W53049   1.493  11.258  29.535 -0.1299 -0.0364  0.1013
10133W        W53050   4.050  14.897  28.165  0.2245 -0.0813 -0.2142
10134W        W53051   0.262  11.291  31.664 -0.1709  0.0229 -0.1100
10135W        W53052   2.045  14.551  27.794 -0.4067 -0.1220 -0.1480
10136W        W53053   3.990  13.649  30.689 -0.0359  0.4445  0.0600
10137W        W53054   3.158  10.685  26.284  0.0877 -0.2877 -0.0129
10138W        W53055   1.585  12.935  29.191  0.0852  0.0531  0.2412
10139W        W53056   3.608  14.681  30.684  0.0541  0.1155  0.0650
10140W        W53057   3.413  12.073  27.329  0.0557 -0.1225  0.3120
10141W        W53058   0.447  10.313  30.704  0.3063 -0.0919  0.1410
10142W        W53059   2.371  12.884   0.930  0.4008 -0.1797 -0.1090
10143W        W53060   1.256  12.694  27.753  0.0031 -0.0229  0.0407
10144W        W53061   3.323  12.149  30.447 -0.2182  0.0755  0.1888
10145W        W53062   1.585  11.627  28.502  0.1921  0.1844  0.0151
10146W        W53063   0.941  13.655  26.785  0.0610  0.0212  0.2282
10147W        W53064   1.500  12.786  29.694 -0.0784 -0.3474  0.1828
10148W        W53065   1.857  11.507  29.894  0.5204  0.1779 -0.0117
10149W        W53066   2.398  12.366  29.257 -0.3006  0.0196  0.1378
10150W        W53067  33.738  11.714  25.904 -0.0579 -0.1913  0.1232
10151W        W53068  34.049  11.649  28.480  0.0064 -0.3265  0.0992
10152W        W53069   1.898  13.396  29.148 -0.1224 -0.1178  0.6252
10153W        W53070   3.313  11.548  29.939 -0.1421  0.0368  0.1841
10154W        W53071   3.347  11.576  29.378 -0.3179  0.0905 -0.2034
10155W        W53072   2.915  16.002  28.810 -0.2604 -0.0716  0.2025
10156W        W53073   3.445  15.385  29.307  0.0831  0.0984 -0.1526
10157W        W53074   1.727  11.867   0.682 -0.0833  0.0228  0.0269
10158W        W53075   1.319  13.639  29.432  0.0483 -0.0391  0.2123
10159W        W53076  33.851  16.530  28.463  0.0527  0.2128 -0.0438
10160W        W53077   1.140  14.754  28.115  0.0661 -0.0426 -0.0336
10161W        W53078   2.582  12.637  29.925  0.2441  0.0892 -0.0719
10162W        W53079   2.087  13.461  28.631 -0.0382 -0.0190 -0.0924
10163W        W53080   2.127  15.293  30.557 -0.0260  0.1560  0.0756
10164W        W53081   0.756  13.826  28.137 -0.1707  0.0651  0.0968
10165W        W53082   2.768  15.010  31.553  0.1079 -0.1153  0.0774
10166W        W53083   2.407  14.704   0.106  0.1291 -0.2055  0.0408
10167W        W53084   0.689  13.662  28.578  0.2977  0.1786  0.0366
10168W        W53085   3.719  13.850  27.858 -0.0773  0.0133 -0.0849
10169W        W53086   2.073  13.278  27.966  0.1344  0.1762  0.2216
10170W        W53087  34.550  15.184  28.049  0.1606 -0.1363 -0.4685
10171W        W53088   2.841  14.635  31.165  0.2111 -0.0179  0.0144
10172W        W53089   1.313  14.814  27.281 -0.3606 -0.2776  0.1415
10173W        W53090   3.785  11.698  28.638  0.0009  0.1427 -0.3934
10174W        W53091   0.867  13.491  27.778  0.1285  0.2098  0.0445
10175W        W53092   2.950  12.796  27.902 -0.4802  0.4664  0.0465
10176W        W53093   0.567  11.772  27.113  0.1565  0.1142 -0.1376
10177W        W53094   4.885  12.612  27.437 -0.0480  0.0557  0.1310
10178W        W53095   3.375  10.180  30.166  0.2569 -0.1825 -0.1202
10179W        W53096   2.301  13.025  28.538  0.4962 -0.2919  0.2041
10180W        W53097   1.412  13.267  28.881 -0.1339 -0.1645 -0.1165
10181W        W53098   2.957  11.849  30.243  0.1091  0.0841 -0.1337
10182W        W53099   2.575  11.655  28.536 -0.2820 -0.0006  0.4161
10183W        W53100   2.864  12.587  29.397 -0.0579 -0.1764  0.0351
10184W        W53101   1.649  15.773  31.425  0.1904 -0.0013  0.0301
10185W        W53102   0.001  12.340  27.321  0.0134 -0.1395  0.1260
10186W        W53103   3.911  12.424  28.346  0.1000 -0.1882 -0.1207
10187W        W53104   6.586  15.620  29.852 -0.1106 -0.1469 -0.1560
10188W        W53105   3.771  13.769  26.866 -0.1688 -0.0089  0.0103
10189W        W53106  34.427  11.665  27.661  0.3592  0.1277 -0.0156
10190W        W53107   2.004  13.352  31.675  0.2340  0.0915 -0.0108
10191W        W53108   0.062  13.206  29.900 -0.0018  0.1503  0.0430
10192W        W53109   1.277  10.692  28.688 -0.1288  0.3881 -0.3062
10193W        W53110   4.753  14.267  30.010 -0.0427  0.2489 -0.0493
10194W        W53111   0.232  13.135  30.790 -0.0801  0.1118  0.1070
10195W        W53112   3.942  11.410  29.963 -0.1133 -0.0351  0.0611
10196W        W53113   0.977  11.663  30.522 -0.1330  0.0146  0.0610
10197W        W53114   2.468  13.786  30.836  0.2815 -0.1493  0.1162
10198W        W53115   3.518  12.805  26.825 -0.2420 -0.2517 -0.1125
10199W        W53116   4.228  11.755  28.894  0.3846  0.0254 -0.1671
10200W        W53117   4.380  12.292  31.787  0.0436 -0.1683  0.2654
10201W        W53118   2.067  12.775  28.065 -0.3196 -0.1246  0.0442
10202W        W53119   0.933  11.261  27.879 -0.2709  0.0983 -0.2043
10203W        W53120   4.431  13.506   0.135 -0.2187 -0.0519  0.1122
10204W        W53121   3.680  13.136  29.170  0.2071 -0.1449 -0.0239
10205W        W53122   0.993  14.233  29.272  0.1706  0.1132 -0.0154
10206W        W53123   1.944  11.956   0.125 -0.1494 -0.2469 -0.3632
10207W        W53124   4.177  16.287  31.563 -0.0910  0.2534 -0.1694
10208W        W53125   2.075  14.053  25.560  0.2658 -0.0150 -0.0835
10209W        W53126   0.833  13.645  30.302  0.2284  0.2665 -0.0191
10210W        W53127  33.137  14.703  28.779  0.4462  0.3876  0.0508
10211W        W53128   1.686  13.955  31.403  0.0928  0.1984  0.2179
10212W        W53129   0.734  13.151  28.663 -0.0141  0.2730 -0.0541
10213W        W53130   5.689  11.479  28.150  0.0814 -0.0387  0.3093
10214W        W53131  34.075  11.107  30.508  0.0695  0.2080 -0.0470
10215W        W53132   5.414  10.636  28.176 -0.1561  0.0265  0.0801
10216W        W53133   1.408  13.723  30.585  0.1086  0.0144 -0.0791
10217W        W53134   3.924  16.167  29.561  0.1886  0.2854  0.3251
10218W        W53135   6.191  13.129  27.358 -0.0575  0.1074 -0.3331
10219W        W53136   2.537  13.722  30.330 -0.0971 -0.1140  0.0853
10220W        W53137   0.022  10.593  30.764 -0.1105  0.1091  0.0845
10221W        W53138   1.252  10.151  28.627 -0.4501  0.2149 -0.1841
10222W        W53139   3.043  12.569  31.847  0.0259 -0.0757 -0.3070
10223W        W53140  33.888  12.530  30.224  0.1441  0.1408  0.2694
10224W        W53141   4.516  12.853  29.503  0.2429 -0.0800 -0.1041
10225W        W53142   0.194  11.452  27.030 -0.0433  0.0822 -0.1713
10226W        W53143   6.487  12.214  29.088 -0.1245  0.2585  0.1373
10227W        W53144   2.094  12.857  29.954 -0.0325  0.3924  0.1783
10228W        W53145   0.391  12.837  27.159  0.0420 -0.1962 -0.0327
10229W        W53146   1.590  10.410  31.519 -0.0806 -0.0417 -0.1318
10230W        W53147   2.698  15.010  28.673 -0.0958 -0.1910  0.5208
10231W        W53148   3.379  14.157  30.466  0.2973 -0.0578  0.1243
10232W        W53149   2.353  14.204  30.544 -0.0569  0.1788 -0.0096
10233W        W53150   1.391  12.850  31.094 -0.1897  0.0833 -0.0903
10234W        W53151   2.068  12.996  27.060 -0.0498  0.0463  0.2042
10235W        W53152   3.069  15.827  30.694  0.3198  0.5019  0.1314
10236W        W53153   2.499  14.334  29.896  0.1654  0.2184  0.1118
10237W        W53154   1.440  11.622  27.395 -0.1127  0.2591  0.3207
10238W        W53155   5.770  13.949  31.687  0.0690 -0.1620 -0.2428
10239W        W53156   4.003  12.650  28.850 -0.3202  0.0785  0.2226
10240W        W53157   1.863  14.345  28.913  0.3502  0.0592  0.2474
10241W        W53158   2.222  11.781  29.264  0.1369  0.0373  0.3226
10242W        W53159   3.144  14.482  29.454  0.2189 -0.0247 -0.2181
10243W        W53160   5.414  11.270  29.332  0.0358  0.1972 -0.1207
10244W        W53161   1.963  12.633  29.425  0.1744 -0.1023 -0.2547
10245W        W53162   2.419  13.807  29.644  0.0857  0.0649 -0.0234
10246W        W53163   1.042  15.595  27.059 -0.0555  0.0896 -0.0378
10247W        W53164  33.769  13.462  29.029  0.0851  0.1076 -0.0315
10248W        W53165   2.340  15.408  27.503 -0.1742  0.0096 -0.0670
10249W        W53166   3.968  11.199  28.772 -0.3869  0.0196  0.0571
10250W        W53167   2.442  12.172   1.116  0.2772 -0.1698 -0.0880
10251W        W53168   4.297  13.589  30.009 -0.1328  0.0305  0.0838
10252W        W53169   0.873  11.481  28.327  0.0652 -0.1992  0.0217
10253W        W53170   2.228  14.985  31.019  0.0786 -0.0008 -0.0472
10254W        W53171   3.562  11.205  29.714  0.0800  0.4574  0.0011
10255W        W53172   4.724  12.655  28.004  0.2353  0.1698 -0.0742
10256W        W53173   2.831  14.235  30.793 -0.0816  0.0780 -0.2091
10257W        W53174   3.499  13.576  29.182 -0.0752 -0.0205  0.0547
10258W        W53175   3.471  12.569  27.956 -0.3006 -0.1321  0.1243
10259W        W53176   2.437  10.570  27.946  0.0791  0.0804 -0.1232
10260W        W53177   1.006  14.171   0.791 -0.0994 -0.0664  0.1495
10261W        W53178   2.584  15.447  30.834 -0.1399 -0.1723  0.1953
10262W        W53179   2.077  11.646  30.319  0.0764  0.2688 -0.3126
10263W        W53180   3.214  12.289  28.719  0.0213  0.2053  0.0577
10264W        W53181   2.352  14.506  30.992  0.0932  0.1113 -0.0711
10265W        W53182  34.098  13.276  28.288  0.0334 -0.0715 -0.0230
10266W        W53183   1.645  15.383   0.736 -0.2601  0.3046 -0.2704
10267W        W53184   3.798  12.214  29.816 -0.0468 -0.3166 -0.0863
10268W        W53185   2.027  11.937  29.796  0.3321  0.2344  0.0461
10269W        W53186  33.511  11.273  26.844 -0.1207 -0.0413 -0.2573
10270W        W53187   3.299  10.668  29.790  0.1365  0.0689 -0.1871
10271W        W53188   0.221  14.354  27.236  0.1517 -0.1265  0.0617
10272W        W53189   2.065  12.086  28.888 -0.2315 -0.0478 -0.2318
10273W        W53190   4.196  10.953  29.861 -0.1027 -0.2790  0.1111
10274W        W53191   3.275  11.615  30.582 -0.0866 -0.2328 -0.0852
10275W        W53192   5.214  12.654   0.821 -0.1040  0.0434 -0.1667
10276W        W53193   4.635  13.923  29.148 -0.0565 -0.1080  0.0448
10277W        W53194   3.399  11.882  28.938 -0.1790  0.1650  0.0720
10278W        W53195   1.328  10.821  29.662 -0.0697 -0.2980 -0.3500
10279W        W53196   3.662  11.816  30.253  0.3705 -0.0969  0.1315
10280W        W53197  33.426  13.063  31.384  0.1310 -0.2390  0.0368
10281W        W53198   0.345  14.301  27.684  0.0085 -0.1774 -0.0359
10282W        W53199   2.841  13.067  29.534  0.0333  0.1039 -0.0740
10283W        W53200   1.660  11.972  27.627 -0.1849  0.0326 -0.1345
10284W        W53201   2.079  10.630  31.475  0.1100  0.0609 -0.0817
10285W        W53202   0.683  11.458  28.846  0.1160  0.1507  0.0587
10286W        W53203   3.772  16.813  28.981  0.0195  0.2342  0.3175
10287W        W53204   0.787  12.500  27.598 -0.0136 -0.0708  0.1594
10288W        W53205   0.989  11.456  30.970 -0.0228  0.0797  0.1045
10289W        W53206   1.327  14.293  31.454 -0.3562 -0.1348 -0.1784
10290W        W53207   0.451  15.339  26.144 -0.0314 -0.1044  0.1339
10291W        W53208   2.581  12.319  30.871 -0.3698  0.2338 -0.1915
10292W        W53209  34.519  14.188  29.809  0.1767 -0.2264 -0.0464
10293W        W53210   2.708   9.952  30.780 -0.4213 -0.1091  0.1829
10294W        W53211  31.291  16.576  30.427 -0.2194 -0.0748  0.1436
10295W        W53212   1.890  12.366  28.424  0.2570  0.0177 -0.2538
10296W        W53213  34.381  12.368  30.118 -0.2373  0.0955  0.1081
10297W        W53214   4.836  10.994  28.776 -0.2473 -0.2272  0.1341
10298W        W53215   5.396  13.554  29.289  0.0410 -0.0526 -0.0675
10299W        W53216   0.335  12.193  30.655 -0.0784  0.0814  0.3086
10300W        W53217   2.510  11.309  28.168 -0.2090 -0.1130 -0.2031
10301W        W53218   0.610  15.623  28.610  0.0579 -0.0025 -0.0106
10302W        W53219   3.383  13.496  28.115 -0.0684  0.0362  0.3872
10303W        W53220   3.034  12.303  27.892 -0.1838  0.0035  0.0923
10304W        W53221   2.799  14.939   0.230  0.0887 -0.2119 -0.1225
10305W        W53222   0.841  14.186   1.797 -0.0460  0.0089  0.1660
10306W        W53223   0.469  10.506  26.949 -0.1675 -0.0128 -0.1325
10307W        W53224   5.467  12.213  29.644 -0.1818 -0.0108  0.2084
10308W        W53225   4.051  13.516  29.363 -0.1520 -0.1175  0.1683
10309W        W53226   0.646  14.663  27.948  0.2999 -0.2672  0.1905
10310W        W53227   4.252  12.564  29.784  0.3266  0.0648 -0.0977
10311W        W53228  34.667  11.835  28.069 -0.0574  0.0232  0.0293
10312W        W53229   2.468  13.413  28.345  0.1427  0.1351  0.2387
10313W        W53230   1.976  12.480  31.793  0.2496 -0.1939  0.1737
10314W        W53231   2.410  12.510  31.314 -0.1703  0.0085  0.2969
10315W        W53232   2.487  13.022  28.036 -0.2228  0.1696 -0.1505
10316W        W53233   1.196  11.828  28.289 -0.1089  0.0993 -0.2469
10317W        W53234   2.794  12.535  28.736  0.0471  0.0088  0.1941
10318W        W53235   2.275  12.538  28.760  0.0225 -0.0221  0.0724
10319W        W53236   3.452  10.637  30.506 -0.0247 -0.1221 -0.0413
10320W        W53237   1.956  14.359   0.376  0.1656  0.2208 -0.0222
10321W        W53238   1.797  11.021   0.401  0.1497 -0.2409  0.3653
10322W        W53239   3.290  13.126  27.772 -0.1453  0.3081  0.1004
10323W        W53240   4.070  13.107  29.785  0.2850  0.1329  0.0489
10324W        W53241  34.491  14.153  27.020  0.0936  0.1546  0.1412
10325W        W53242  33.556  11.895  27.829 -0.0015  0.0543 -0.4312
10326W        W53243   1.419  12.630  28.662 -0.0627  0.1230 -0.0905
10327W        W53244   1.041  12.415  29.825  0.0588  0.3018 -0.1148
10328W        W53245   1.147  12.856  29.000 -0.3834  0.1035 -0.2192
10329W        W53246   3.101  12.583  28.361 -0.0819  0.1267  0.1255
10330W        W53247   2.750  15.624  30.346  0.0414 -0.1007  0.0133
10331W        W53248   3.211  10.993  28.736  0.0604 -0.2415  0.0184
10332W        W53249   2.222  12.357  29.719 -0.0047  0.2139  0.0471
10333W        W53250   2.886   9.849  29.065  0.1139  0.0987 -0.0665
10334W        W53251   3.783  13.495  29.775  0.0994 -0.2922  0.1218
10335W        W53252   2.336  13.979  27.257  0.1241 -0.0032  0.2697
10336W        W53253   3.424  13.789  31.503 -0.1364 -0.2648 -0.3657
10337W        W53254   2.446  10.714  29.541  0.0517 -0.1495  0.0976
10338W        W53255   5.384  13.650  31.496 -0.0310  0.1407  0.3614
10339W        W53256   0.177  12.810  31.195 -0.1888 -0.0160  0.2036
10340W        W53257   2.182  17.344  29.706 -0.0026  0.3358  0.3131
10341W        W53258   1.076  12.886   0.762  0.2587  0.0505 -0.2747
10342W        W53259   4.162  10.076  27.666  0.0501 -0.0028 -0.1648
10343W        W53260  34.267  10.751  30.031  0.2932 -0.2123  0.1192
10344W        W53261   1.897  13.024   1.075  0.0155 -0.3143  0.3571
10345W        W53262   2.432  13.884  29.120  0.1195 -0.1738 -0.0037
10346W        W53263   0.926  14.844  27.572 -0.2081 -0.0801 -0.1561
10347W        W53264   5.112  12.338  27.906 -0.1810 -0.0281  0.3122
10348W        W53265   1.636  13.692  28.770  0.2652 -0.1794 -0.2236
10349W        W53266   2.641  12.932  29.077 -0.0865  0.0067 -0.2581
10350W        W53267   3.267  14.375  28.989  0.0865  0.1510  0.2296
10351W        W53268   1.067  13.291  28.219  0.2648 -0.0079 -0.1096
10352W        W53269   2.177  10.311  29.453 -0.4666  0.2428  0.0185
10353W        W53270   3.874  14.361  30.310  0.5812  0.1223  0.1570
10354W        W53271   3.831   9.605  29.691  0.1007  0.0485 -0.4242
10355W        W53272   2.245  11.074  29.901  0.1442  0.6009 -0.2262
10356W        W53273   4.371  11.214  29.136  0.0731 -0.2940 -0.1854
10357W        W53274   2.565  11.214  29.471  0.0716  0.1586  0.2380
10358W        W53275  33.654  12.540  30.686 -0.0383  0.1811 -0.2200
10359W        W53276   4.184  13.042  29.242  0.1110  0.0985  0.0618
10360W        W53277   4.448  12.472  27.560 -0.2147 -0.1826  0.1988
10361W        W53278   6.330  12.413  30.220  0.0133 -0.1754  0.3255
10362W        W53279   5.201  10.298  29.053  0.0784  0.2090  0.0540
10363W        W53280  34.658  12.258  28.975  0.0986  0.0063  0.4606
10364W        W53281   0.606  12.143  30.231 -0.0697  0.0337 -0.1806
10365W        W53282   1.076  10.912  31.106  0.1549  0.1387  0.0414
10366W        W53283   1.426  12.852  28.199 -0.0488 -0.3477 -0.1693
10367W        W53284   3.613  12.861  29.958  0.0505  0.1581  0.1694
10368W        W53285   2.958  13.935  28.366 -0.2050 -0.0824 -0.0450
10369W        W53286   1.867  13.238  30.590  0.3210 -0.3590  0.0837
10370W        W53287   4.138  11.418  28.249 -0.0800 -0.1662 -0.1043
10371W        W53288   0.088  12.618  29.317 -0.0047  0.1208 -0.1091
10372W        W53289   3.252  15.236  28.766  0.2033  0.0490 -0.0358
10373W        W53290   1.149  12.176  27.777  0.0758  0.1082 -0.1992
10374W        W53291   0.477  12.642  26.661  0.2989  0.1120  0.0366
10375W        W53292   3.473  13.674  30.467  0.2017  0.1566  0.1908
10376W        W53293   3.806  12.484  31.141 -0.1272  0.0152 -0.1242
10377W        W53294   0.485  10.656  28.374 -0.0471  0.1687  0.1935
10378W        W53295   4.475  13.902  29.642 -0.0531 -0.0339  0.1067
10379W        W53296   2.087  13.774  28.182  0.1445  0.2894  0.2533
10380W        W53297   1.980  12.656  30.442 -0.1276 -0.0986  0.3557
10381W        W53298   1.993  14.181  29.658  0.1655 -0.3313  0.3132
10382W        W53299   2.035  14.350  31.417  0.2833  0.0173 -0.0129
10383W        W53300   0.218  14.898  27.827  0.2436  0.0725  0.2951
10384W        W53301   1.587  11.495  30.461 -0.1291 -0.0851 -0.0409
10385W        W53302   3.961  12.040  29.219  0.0982  0.0654 -0.4390
10386W        W53303   2.351  13.209  30.428 -0.2157 -0.1392  0.0688
10387W        W53304   4.623  10.600  30.295  0.0897  0.2224  0.0782
10388W        W53305   3.017  15.407  31.553 -0.1231 -0.0198  0.0234
10389W        W53306  34.006  11.880  27.503  0.0724 -0.0993  0.1242
10390W        W53307   2.745  16.114  30.366  0.0823 -0.2902  0.0332
10391W        W53308   4.721  12.283  30.949  0.1240 -0.2328  0.1894
10392W        W53309   0.762  13.354  31.778  0.1064  0.1103  0.0772
10393W        W53310  33.172  12.243  30.276 -0.0815  0.0922 -0.1399
10394W        W53311   2.446  12.637  30.431  0.3384  0.0903  0.1398
10395W        W53312   2.798  12.966  28.454  0.1010 -0.0777  0.3281
10396W        W53313   0.861  11.636  27.544 -0.0430 -0.1578 -0.0851
10397W        W53314   2.177  13.405  29.990 -0.3160 -0.0452  0.1377
10398W        W53315   1.069  16.435   0.433 -0.0651 -0.2757  0.0799
10399W        W53316   0.774  13.779  29.433  0.2997 -0.2564  0.2952
10400W        W53317  33.971  16.303  27.419  0.0871  0.0174  0.0395
10401W        W53318   5.676  13.108  29.580  0.0925 -0.5736 -0.1634
10402W        W53319   3.419  13.935  29.467 -0.2293 -0.3419  0.0182
10403W        W53320   4.619  16.069  27.807 -0.0097  0.0111 -0.0305
10404W        W53321   2.178  13.999  28.667 -0.0610 -0.2686 -0.0244
10405W        W53322   1.012  15.869  28.385  0.0770  0.1486  0.1606
10406W        W53323   0.197  12.924  28.196  0.0974  0.1697  0.1176
10407W        W53324   4.674  14.502  27.655 -0.6359  0.0176  0.0433
10408W        W53325   1.694  14.692  28.566 -0.2501 -0.1181 -0.0323
10409W        W53326   3.540  15.895  29.382  0.1016  0.0915  0.1137
10410W        W53327   5.448  10.782  26.263  0.0056 -0.2348 -0.0400
10411W        W53328   3.780  11.754  29.655  0.2682  0.3741 -0.0195
10412W        W53329   5.307  12.873  28.636 -0.0882 -0.4272 -0.2663
10413W        W53330   3.180  16.347  30.652 -0.2475 -0.0616 -0.2993
10414W        W53331   1.321  14.215  30.933 -0.2962 -0.3749  0.4897
10415W        W53332   1.342  13.945  27.506  0.2111  0.2372  0.0625
10416W        W53333   1.737  13.664  30.961 -0.5521  0.1073 -0.4395
10417W        W53334   2.893  11.084  31.072  0.3190 -0.0599 -0.2237
10418W        W53335   3.251  14.949  31.438  0.0365  0.1903 -0.3825
10419W        W53336   3.655  14.393  29.457 -0.3015  0.2703 -0.1412
10420W        W53337  33.807  11.071  26.535 -0.0104  0.0871  0.0852
10421W        W53338   2.124  10.827  29.072 -0.0711  0.0999 -0.1154
10422W        W53339   3.653  11.264  28.321 -0.0135  0.1407 -0.2107
10423W        W53340   2.418  12.532  27.211 -0.0044 -0.0702  0.2629
10424W        W53341   3.423  12.484  29.126  0.2198 -0.1820 -0.0213
10425W        W53342   3.005  14.166  29.780 -0.1264 -0.1468 -0.3130
10426W        W53343   2.741  15.593  29.739 -0.2182  0.2684  0.0834
10427W        W53344   2.161  13.916  30.075  0.1059  0.0163 -0.1677
10428W        W53345  34.346  12.683  31.255  0.1722 -0.0694 -0.2433
10429W        W53346   5.356  10.468  30.396  0.1967 -0.2202 -0.1211
10430W        W53347   0.724  12.930  31.115  0.0207 -0.0488 -0.0641
10431W        W53348   2.642  12.070  28.826  0.1411  0.2732 -0.3620
10432W        W53349   0.154  11.801  27.435  0.1667  0.2319 -0.0243
10433W        W53350   3.060  11.166  29.608  0.0178  0.0127  0.1354
10434W        W53351   3.265  14.405  30.959 -0.0401  0.0073 -0.0108
10435W        W53352   1.843  12.151  29.333 -0.2218 -0.1103 -0.0390
10436W        W53353   2.851  14.672  29.061  0.3383 -0.0860 -0.0844
10437W        W53354   5.584  11.736  29.425  0.0771  0.0514 -0.1787
10438W        W53355   1.853  11.412  29.010  0.1930 -0.0067  0.1747
10439W        W53356   2.457  15.325  31.303 -0.0677  0.0134 -0.2048
10440W        W53357   1.149  11.691  28.811 -0.0757 -0.2650 -0.0188
10441W        W53358   6.188  12.789  28.438  0.0402  0.0213  0.4161
10442W        W53359   1.502  12.143  28.582 -0.0682  0.1023  0.0279
10443W        W53360   3.728  12.207  28.749 -0.1103  0.1924  0.1529
10444W        W53361   4.995  16.046  30.119 -0.1300  0.0449  0.0114
10445W        W53362   0.535  12.974  29.451  0.1529  0.0522  0.2094
10446W        W53363   3.331  13.043  28.289  0.1462 -0.1496 -0.1805
10447W        W53364   4.882  15.170  28.380  0.1751 -0.0041  0.2084
10448W        W53365   1.015  14.032  27.136  0.2798 -0.1254  0.1420
10449W        W53366   3.818  14.071  29.819 -0.1428  0.1098 -0.0952
10450W        W53367   3.456  14.405  29.953 -0.1382  0.1214 -0.0737
10451W        W53368   1.261  11.903  31.939  0.0269 -0.1952  0.0462
10452W        W53369   1.361  14.260  30.405 -0.1115  0.0249  0.0565
10453W        W53370   5.356  16.501  29.643 -0.1026 -0.4363 -0.1485
10454W        W53371   2.580  11.548  27.620 -0.0214  0.0776  0.0581
10455W        W53372   2.932  12.021  30.735  0.1893 -0.0818 -0.0134
10456W        W53373   1.599  13.439  28.351  0.1983 -0.2692  0.1235
10457W        W53374   5.040  13.758  28.889 -0.0312  0.0409  0.1584
10458W        W53375   2.070  11.647  28.623 -0.1581  0.2031 -0.1300
10459W        W53376   2.596  14.361  26.948  0.0453 -0.0232 -0.2781
10460W        W53377   4.211  11.625  29.430  0.0599 -0.0853  0.1159
10461W        W53378   1.428  14.559  29.087  0.2485 -0.0632  0.0511
10462W        W53379   1.226  13.278  31.908  0.0364  0.0443 -0.2966
10463W        W53380   2.969  11.721  28.807  0.1265 -0.0744  0.0166
10464W        W53381   1.479  14.438  29.866 -0.1821 -0.1879  0.0324
10465W        W53382   1.068  12.242  28.807  0.1225 -0.0361 -0.0179
10466W        W53383   2.190  14.469  29.237  0.1164  0.0372  0.1134
10467W        W53384   4.348  14.680  29.135 -0.1667  0.1816  0.0654
10468W        W53385   0.434  12.819  28.967  0.0093  0.0581  0.0912
10469W        W53386   3.282  12.924  29.349  0.1571  0.1276  0.1678
10470W        W53387   1.040  11.234  29.772 -0.1939  0.0090  0.0900
10471W        W53388   4.996  12.405  28.404  0.0687 -0.0408  0.0697
10472W        W53389   3.853  12.176  27.889 -0.1156  0.3077  0.2589
10473W        W53390   1.693  14.569  31.169 -0.2882  0.0299 -0.0379
10474W        W53391   0.578  11.169  26.934  0.1882  0.1797  0.0699
10475W        W53392   1.555  13.009  27.090 -0.2253  0.3007 -0.2342
10476W        W53393   0.400  12.132  29.313 -0.0759  0.0294 -0.1414
10477W        W53394   2.439  12.036  30.076  0.0646 -0.1980 -0.1639
10478W        W53395   1.180  13.250  30.320  0.2582 -0.0384  0.0577
10479W        W53396  34.383  12.914  28.414  0.0862  0.0669 -0.0379
10480W        W53397   0.452  10.940  27.921 -0.0648 -0.1349 -0.0343
10481W        W53398   3.094  13.810  28.935 -0.1130  0.0913 -0.1391
10482W        W53399   0.744  11.569  29.483  0.0548  0.0660  0.0637
10483W        W53400   0.164  11.035  26.706  0.1671 -0.2102  0.2614
10484W        W53401   3.125  12.924  28.818 -0.0105 -0.2145  0.0083
10485W        W53402   2.859  13.562  29.954 -0.1385  0.0687  0.1994
10486W        W53403   2.735  11.686  29.221  0.0292 -0.0997 -0.1172
10487W        W53404   2.590  13.129  30.010 -0.1069  0.3150 -0.2139
10488W        W53405   0.042  12.521  27.970  0.1477  0.1325 -0.0180
10489W        W53406   0.695  13.115  30.239 -0.1563  0.2123  0.2301
10490W        W53407   1.496  15.057  28.225 -0.3056  0.1994 -0.2042
10491W        W53408  34.437  12.149  27.707 -0.1325 -0.0024  0.3708
10492W        W53409   1.176  12.444  30.344  0.1709 -0.0530 -0.3091
10493W        W53410   2.023  13.782  30.517 -0.1733 -0.2361 -0.2846
10494W        W53411   2.007  14.283  28.233 -0.0374 -0.0164 -0.0900
10495W        W53412   2.739  13.329  31.764  0.3171 -0.1611  0.0918
10496W        W53413   1.299  14.800  31.544  0.0382 -0.1393  0.0096
10497W        W53414   1.405   9.214  30.008 -0.0468  0.0256  0.3263
10498W        W53415   2.974  13.448  28.652 -0.0455 -0.0421  0.0708
10499W        W53416   2.379  13.284  29.522 -0.1649  0.3012  0.4914
10500W        W53417   3.984  14.606  29.879  0.2141 -0.0886 -0.0193
10501W        W53418   3.880  12.761  29.473  0.0357 -0.1518  0.0842
10502W        W53419   3.786  13.912  28.823 -0.1880  0.1544 -0.1966
10503W        W53420  33.883  12.140  30.563 -0.1189  0.2467  0.0956
10504W        W53421   2.640  15.800  31.285 -0.1324 -0.1432 -0.3295
10505W        W53422   3.288  12.584  30.234 -0.1164  0.0276 -0.2368
10506W        W53423   0.901  11.259  30.246  0.0550 -0.0142 -0.0033
10507W        W53424   2.327  12.098  28.423  0.1649  0.2978 -0.1429
10508W        W53425   4.473  12.702  28.500  0.1506 -0.1283  0.1354
10509W        W53426   1.114  10.771  29.229 -0.0121  0.0137  0.1404
10510W        W53427   2.593  14.112  31.276  0.0748  0.1330 -0.4619
10511W        W53428   2.117  13.964  31.685  0.1323 -0.0301 -0.3850
10512W        W53429   2.669  14.576  30.285 -0.1511  0.1377  0.0533
10513W        W53430   3.077  11.539  31.615  0.0630  0.1113 -0.3352
10514W        W53431   4.259  11.908  28.360  0.0829 -0.0599 -0.0500
10515W        W53432   6.398  15.815  28.001  0.3197  0.0500 -0.1166
10516W        W53433   4.218  14.377  31.003 -0.1134 -0.1994 -0.0673
10517W        W53434   3.528  15.670   0.833 -0.2277 -0.1086 -0.1907
10518W        W53435   3.044  16.399  31.719  0.1961  0.0271  0.1714
10519W        W53436   2.767  13.378  30.799  0.1594 -0.0091 -0.0607
10520W        W53437   0.270  11.370  29.160 -0.2261  0.2075 -0.1029
10521W        W53438   1.815  12.529  28.952  0.1330  0.1866  0.0420
10522W        W53439   1.652  13.869  26.546 -0.1222 -0.1153  0.1265
10523W        W53440   3.395  13.774  29.960 -0.2654 -0.2816  0.0250
10524W        W53441   2.179  11.595  31.378  0.0864 -0.0720  0.3855
10525W        W53442   4.575  10.766  27.650  0.1079 -0.0974  0.1647
10526W        W53443   1.447  15.244  31.687  0.0091  0.3201  0.1917
10527W        W53444   3.822  12.481  30.221  0.6225 -0.1593 -0.0054
10528W        W53445   2.547  11.834  30.520 -0.3790  0.0528  0.1484
10529W        W53446   3.403  12.816  31.067  0.0372 -0.1036 -0.2723
10530W        W53447   1.802  13.078  31.087 -0.1392 -0.0780  0.2511
10531W        W53448   0.649  14.682  31.097 -0.2146  0.2828  0.1033
10532W        W53449   3.050  14.213  31.414  0.2041  0.1031 -0.0325
10533W        W53450   1.744  15.119  30.748 -0.0794  0.3079 -0.1846
10534W        W53451   3.536  13.367   1.995  0.0751  0.1537  0.1396
10535W        W53452   1.253  13.804  31.167  0.3463  0.3070 -0.0820
10536W        W53453   4.017  12.892  31.094 -0.1240 -0.2755  0.2193
10537W        W53454   5.249  15.824  31.206 -0.0284  0.0415  0.1006
10538W        W53455   3.729  12.853   0.042  0.6403  0.3488 -0.1029
10539W        W53456   1.866  11.887  31.176  0.1171 -0.0142  0.2788
10540W        W53457   1.890  13.918   0.827  0.3246 -0.0285 -0.0393
10541W        W53458   0.970  14.968   0.865 -0.0770  0.1632 -0.2517
10542W        W53459   3.482  12.072  29.444  0.1437 -0.2076  0.0328
10543W        W53460  34.478  14.015  30.341 -0.2035  0.2724  0.0265
10544W        W53461   0.579  15.146  31.917 -0.1117 -0.1836  0.0724
10545W        W53462   3.516  11.780  31.370 -0.0057 -0.3257  0.2571
10546W        W53463   2.906  11.366  30.118  0.0500  0.2973  0.1849
10547W        W53464   1.822  11.877  30.692 -0.1029  0.4762 -0.1946
10548W        W53465   2.394  13.288   0.424  0.0688  0.1991  0.1099
10549W        W53466   2.764  15.469   2.229  0.2810  0.1182  0.0631
10550W        W53467   1.956  11.144  30.270  0.0826 -0.1498 -0.0589
10551W        W53468   2.957  13.777  30.574 -0.0440 -0.3189  0.1373
10552W        W53469   2.326  12.874  30.893  0.3032  0.1078  0.4679
10553W        W53470   3.316  12.025   0.502 -0.0666 -0.2449 -0.0157
10554W        W53471   2.098  14.066  30.990  0.0997  0.1096 -0.1669
10555W        W53472  33.427  15.020  31.731 -0.1015  0.0511 -0.2704
10556W        W53473  34.597  13.592  30.747  0.0386 -0.0046  0.0754
10557W        W53474   1.507  13.394  31.326 -0.0360  0.1178 -0.0826
10558W        W53475   0.040  14.091  30.839 -0.3713 -0.2459 -0.0769
10559W        W53476   0.148  12.891  30.308 -0.0418 -0.1025 -0.0426
10560W        W53477   4.017  12.366   1.175  0.0264  0.1583  0.0827
10561W        W53478   4.505  11.289  29.679 -0.1104 -0.1680  0.0404
10562W        W53479  34.303  11.724  31.379 -0.0335 -0.1462  0.1050
10563W        W53480   1.542  14.148  31.882 -0.2659 -0.3390  0.0418
10564W        W53481   2.456  14.195   1.641 -0.0721  0.1726 -0.3324
10565W        W53482   3.386  16.031  31.047 -0.1539  0.0388  0.0175
10566W        W53483   2.994  12.100  29.294  0.1183 -0.0187  0.2592
10567W        W53484   3.623  11.320  31.729  0.1372 -0.5088 -0.2265
10568W        W53485   2.952  11.781  29.700  0.0067 -0.1077 -0.0177
10569W        W53486   2.939  12.485  31.367  0.0460  0.1230  0.1591
10570W        W53487   1.747  11.289  31.100  0.0228  0.2692 -0.0534
10571W        W53488   3.643  14.924   0.255 -0.2619 -0.1545  0.0939
10572W        W53489   2.696  13.603   0.184  0.1821  0.2824  0.1913
10573W        W53490   3.050  12.509  30.712  0.3047  0.2019  0.0645
10574W        W53491   1.248  10.501  31.946 -0.0409 -0.0476  0.1114
10575W        W53492   3.221  14.636   0.252 -0.0108  0.1156 -0.0359
10576W        W53493   4.227  14.622   2.325 -0.0905 -0.1727  0.1008
10577W        W53494   0.096  14.366   1.016 -0.0137  0.0555  0.0556
10578W        W53495   4.880  14.352   0.023  0.3275  0.3544  0.2334
10579W        W53496   2.961  12.282  29.785  0.1358  0.0588 -0.0707
10580W        W53497   3.897  11.711  31.811 -0.0265 -0.1517  0.1195
10581W        W53498   2.924  15.208  31.104 -0.0442 -0.1065 -0.2749
10582W        W53499   2.694  12.852  31.597 -0.1322  0.2627 -0.2896
10583W        W53500   2.051  12.402  30.871 -0.1109  0.0105 -0.0338
10584W        W53501   2.220  12.182  30.496 -0.0893 -0.2021  0.1814
10585W        W53502   1.628  13.662  31.827 -0.0402  0.0288  0.3156
10586W        W53503   2.546  10.724  31.140 -0.1353 -0.2120 -0.4564
10587W        W53504   2.117  12.959  31.445 -0.0917  0.0197 -0.0632
10588W        W53505   1.248  11.361  31.389  0.0022 -0.0267  0.3854
10589W        W53506   0.513  14.671   1.285 -0.2174  0.0943 -0.0535
10590W        W53507   0.808  14.244  30.371 -0.0385 -0.3921 -0.1536
10591W        W53508   0.897  12.167  31.626 -0.1347  0.0000  0.0539
10592W        W53509   3.878  15.728  30.754  0.0522 -0.0043  0.0650
10593W        W53510   3.792  14.931   1.000  0.0088 -0.0202 -0.2348
10594W        W53511   4.112  13.628  31.659 -0.0123 -0.1982  0.0493
10595W        W53512   2.631  17.535  18.530 -0.0155  0.1327  0.2265
10596W        W53513   1.398  14.968  17.353  0.3386  0.1814 -0.1521
10597W        W53514   1.338  16.195  17.913 -0.0631  0.1739  0.1986
10598W        W53515   3.035  16.978  17.856 -0.2213 -0.1614  0.4006
10599W        W53516  34.351  15.404  17.498 -0.5257  0.3435 -0.0521
10600W        W53517   2.862  17.967  16.492  0.0795  0.3496 -0.1120
10601W        W53518   0.507  14.923  19.960  0.2254 -0.0491 -0.1146
10602W        W53519   2.779  18.944  20.099  0.0002 -0.1018 -0.3284
10603W        W53520   4.087  17.771  20.190 -0.1063 -0.1410 -0.0882
10604W        W53521   1.590  17.463  17.377 -0.1791  0.2824 -0.0086
10605W        W53522   1.201  16.692  19.902 -0.2025 -0.2822  0.0474
10606W        W53523   1.998  17.767  18.556 -0.1187 -0.0048  0.2546
10607W        W53524  33.899  15.807  17.393  0.2018  0.1606  0.1478
10608W        W53525   0.082  15.452  19.691  0.1842  0.0915  0.1791
10609W        W53526   3.780  16.694  18.966 -0.0745  0.0012  0.3181
10610W        W53527   0.540  16.077  18.491  0.1923 -0.2105  0.1131
10611W        W53528  34.583  17.123  18.236  0.1952  0.2191  0.3276
10612W        W53529   0.904  13.306  17.995  0.1679 -0.0361  0.1057
10613W        W53530   0.534  19.095  20.044  0.1883  0.0067  0.1367
10614W        W53531   0.380  14.346  19.822 -0.0399  0.3130  0.2668
10615W        W53532   1.613  13.743  18.889 -0.1661 -0.0163  0.1917
10616W        W53533   4.690  16.393  17.085  0.0525 -0.4522  0.1735
10617W        W53534  33.301  17.564  17.166  0.1580 -0.1000  0.1283
10618W        W53535  34.318  16.332  19.355  0.0383 -0.0765 -0.0561
10619W        W53536  33.751  17.158  18.586 -0.0888 -0.2767 -0.0670
10620W        W53537  34.665  16.157  18.380 -0.0294  0.0389 -0.0914
10621W        W53538   2.115  16.291  19.203 -0.0326 -0.0033  0.1029
10622W        W53539   3.377  17.069  18.201  0.0403 -0.5534 -0.3195
10623W        W53540   2.183  18.655  18.403 -0.3201 -0.2579 -0.1541
10624W        W53541   2.484  14.410  20.333 -0.1285 -0.1759  0.2401
10625W        W53542  33.816  16.223  17.121 -0.0235 -0.2601  0.1073
10626W        W53543  33.866  16.647  18.671  0.1091  0.0784  0.1728
10627W        W53544   0.036  18.617  17.440  0.0415 -0.2781 -0.0983
10628W        W53545   4.274  15.116  16.629  0.1849 -0.2508 -0.1784
10629W        W53546   1.962  16.414  18.776  0.3024 -0.2198 -0.0573
10630W        W53547  34.134  18.537  20.374 -0.1416  0.0051 -0.0717
10631W        W53548   0.291  18.856  17.854 -0.2625  0.0216  0.1364
10632W        W53549   2.379  18.957  20.736  0.1471 -0.0817  0.1707
10633W        W53550   0.644  18.414  18.330 -0.1607  0.1098  0.2146
10634W        W53551   2.886  16.633  18.719  0.0045 -0.2784  0.2834
10635W        W53552   2.175  15.842  18.964 -0.1744 -0.1312 -0.0295
10636W        W53553   0.991  16.936  18.944 -0.2242 -0.1515  0.2043
10637W        W53554  34.485  17.727  17.101  0.2755 -0.2369 -0.1172
10638W        W53555   0.167  18.007  19.046 -0.3494  0.0662 -0.3062
10639W        W53556   1.767  17.284  19.278  0.3072 -0.3676  0.1471
10640W        W53557   5.627  15.479  21.901 -0.1755 -0.1230  0.0057
10641W        W53558   0.699  17.125  18.559  0.1680  0.1800  0.1262
10642W        W53559   2.034  15.894  16.983  0.1765  0.0098  0.1206
10643W        W53560   0.679  15.604  18.510 -0.0225  0.3926  0.2405
10644W        W53561   2.015  15.003  16.629  0.3687  0.2472 -0.0058
10645W        W53562  33.485  14.553  18.512  0.2232  0.0614 -0.3259
10646W        W53563   1.223  17.526  17.705  0.0035 -0.0282 -0.2072
10647W        W53564  34.432  14.790  18.244  0.1870 -0.1186  0.1088
10648W        W53565   3.632  17.523  20.729 -0.2984  0.3243  0.1654
10649W        W53566   1.936  15.285  17.709  0.3051 -0.0333 -0.1346
10650W        W53567   2.162  14.857  17.923  0.1694  0.2174 -0.2466
10651W        W53568   0.832  17.858  18.412 -0.0486 -0.0907  0.0073
10652W        W53569   0.749  18.604  17.824  0.0899  0.2308 -0.0449
10653W        W53570   3.259  17.655  16.752 -0.1811 -0.1259 -0.2630
10654W        W53571   2.187  17.301  17.728  0.0472  0.3026 -0.2496
10655W        W53572   2.612  16.977  16.746 -0.1703 -0.1097 -0.1770
10656W        W53573   1.948  16.937  18.664  0.0485 -0.1693  0.0283
10657W        W53574   0.235  18.295  21.465  0.4444 -0.1904 -0.0249
10658W        W53575   1.552  15.366  21.638 -0.0004  0.0760 -0.0881
10659W        W53576   0.166  14.304  16.775 -0.0007 -0.1716  0.0255
10660W        W53577   3.443  18.108  18.560 -0.0566  0.2201 -0.0425
10661W        W53578  34.544  18.553  20.616  0.4223 -0.5341  0.1569
10662W        W53579   2.487  16.014  17.623  0.0385 -0.1100  0.0937
10663W        W53580   0.884  16.145  17.485  0.2477  0.0505  0.2259
10664W        W53581   3.752  17.899  21.228 -0.0823 -0.1133  0.1450
10665W        W53582   3.128  16.321  17.150 -0.1707 -0.1266 -0.1894
10666W        W53583   3.878  14.752  21.146 -0.2368  0.4278  0.0005
10667W        W53584   3.400  15.735  19.096 -0.0982  0.1739 -0.0897
10668W        W53585   0.017  17.372  17.796 -0.1871  0.1486  0.1085
10669W        W53586   1.145  15.401  17.408 -0.2164 -0.3365  0.3325
10670W        W53587   5.655  17.209  20.010 -0.2242 -0.0443 -0.5606
10671W        W53588   1.523  15.692  18.138  0.2105  0.0596  0.3858
10672W        W53589  32.829  16.946  21.427 -0.0052  0.1113 -0.3518
10673W        W53590   0.956  17.711  21.993 -0.1025 -0.2237  0.1647
10674W        W53591   2.418  17.500  19.882  0.0277 -0.0696 -0.1293
10675W        W53592   0.632  17.480  17.640  0.0602 -0.1709  0.1931
10676W        W53593   0.783  16.797  18.150  0.1135 -0.1383  0.2379
10677W        W53594   0.379  18.316  17.249  0.3159  0.0102  0.0381
10678W        W53595   0.034  16.703  19.131  0.0208  0.0006 -0.0050
10679W        W53596   2.137  17.353  18.908 -0.0030  0.0306 -0.0428
10680W        W53597   1.511  15.102  18.395 -0.3261  0.0404  0.0407
10681W        W53598  33.336  15.086  19.985 -0.1421  0.0713  0.0226
10682W        W53599   2.706  15.228  20.438 -0.0793 -0.2997  0.2359
10683W        W53600   0.107  16.887  17.862  0.0677 -0.1080 -0.1435
10684W        W53601   2.032  18.963  20.439  0.1145 -0.1672 -0.0861
10685W        W53602   3.216  15.699  17.773  0.1542  0.0908 -0.0217
10686W        W53603   3.045  17.859  19.368 -0.0058 -0.0737  0.3671
10687W        W53604   0.022  14.459  19.463 -0.4978  0.2025  0.2098
10688W        W53605  33.021  16.470  16.388  0.0505 -0.0221  0.0331
10689W        W53606   1.444  16.649  18.858 -0.3206  0.1137  0.1977
10690W        W53607   1.002  15.730  17.881  0.2156 -0.0159 -0.1692
10691W        W53608   3.352  16.176  19.447 -0.0733 -0.2576  0.1508
10692W        W53609   0.765  13.287  17.047 -0.0362  0.1147  0.0924
10693W        W53610   3.841  16.563  19.942  0.4510 -0.1453  0.1040
10694W        W53611   1.960  15.433  18.301  0.2746  0.1574 -0.1092
10695W        W53612  34.581  17.190  18.797  0.1205 -0.3409  0.0932
10696W        W53613   3.486  14.748  17.968 -0.1826 -0.0317  0.1543
10697W        W53614   1.781  17.385  16.816 -0.1236  0.1723  0.1539
10698W        W53615   3.799  17.104  20.429  0.1140  0.1994  0.2278
10699W        W53616   3.967  17.026  18.097 -0.1811 -0.1380  0.0305
10700W        W53617  33.378  16.599  21.045  0.3277 -0.2058  0.1671
10701W        W53618   0.288  16.430  18.769 -0.1521 -0.1297  0.3483
10702W        W53619  34.338  20.192  20.278 -0.1106  0.1572 -0.2581
10703W        W53620   1.619  16.182  16.804  0.2179 -0.4078 -0.3130
10704W        W53621   0.995  14.414  17.420 -0.0065  0.0097  0.0969
10705W        W53622   1.410  17.436  18.172 -0.1359  0.0655  0.1134
10706W        W53623   1.899  18.232  17.343  0.0905 -0.1547 -0.1990
10707W        W53624  34.212  17.281  17.935 -0.5764 -0.0442 -0.1166
10708W        W53625   3.272  15.751  18.283  0.0631  0.0552  0.1455
10709W        W53626   3.379  16.541  21.205  0.2777 -0.4258  0.2314
10710W        W53627   0.655  16.229  19.492 -0.1415  0.0070  0.2090
10711W        W53628  33.593  14.426  17.325  0.2542 -0.0639  0.0413
10712W        W53629   2.926  20.013  17.541  0.0657 -0.1455  0.0114
10713W        W53630   1.048  18.642  18.241  0.2149 -0.1215  0.1559
10714W        W53631  33.665  15.541  18.699 -0.4465 -0.0932 -0.2348
10715W        W53632   3.643  17.652  18.431  0.2483  0.2459 -0.0777
10716W        W53633   3.614  16.515  17.377  0.1020  0.0016 -0.0008
10717W        W53634  32.486  16.827  19.641 -0.0508 -0.1731 -0.1614
10718W        W53635   2.664  16.338  19.387 -0.0295 -0.1604  0.0734
10719W        W53636   1.698  17.170  17.823 -0.3144 -0.0430  0.1766
10720W        W53637  34.222  18.258  18.930 -0.1302 -0.0422 -0.0781
10721W        W53638   1.120  15.957  18.301 -0.0521 -0.0321 -0.0912
10722W        W53639   2.467  15.787  17.123  0.0885 -0.0108 -0.0916
10723W        W53640   2.586  17.437  21.951  0.0618 -0.1947 -0.0717
10724W        W53641   2.080  16.782  18.088  0.2207 -0.0184 -0.3100
10725W        W53642   2.692  15.615  17.681 -0.1943  0.0949  0.3507
10726W        W53643   0.915  13.785  17.178 -0.2157  0.0950  0.2646
10727W        W53644  34.251  15.356  21.340 -0.0996  0.0525  0.3679
10728W        W53645   1.534  16.969  16.884 -0.3953 -0.0874 -0.2603
10729W        W53646   0.064  15.860  18.868  0.0248  0.2443  0.0618
10730W        W53647   1.221  14.727  16.983 -0.3909  0.0002 -0.1018
10731W        W53648   3.028  17.252  18.773  0.0521 -0.1369 -0.0077
10732W        W53649  34.474  17.148  19.277  0.1119 -0.0889  0.2650
10733W        W53650  34.581  18.913  21.258 -0.0942 -0.0719  0.0687
10734W        W53651   0.454  17.203  18.068 -0.1681 -0.0527  0.0364
10735W        W53652   1.402  16.234  19.773  0.1164  0.2976  0.4566
10736W        W53653   3.087  17.820  18.791 -0.3030  0.0950 -0.2278
10737W        W53654   1.737  12.359  17.676  0.3120 -0.0034  0.4283
10738W        W53655   1.519  18.821  18.227 -0.2071 -0.0649  0.3215
10739W        W53656   2.711  14.833  19.970  0.1148 -0.0403 -0.1878
10740W        W53657   3.499  15.620  20.306 -0.5700 -0.1121  0.1553
10741W        W53658   0.845  14.528  20.017 -0.1577 -0.1368 -0.5847
10742W        W53659   3.837  15.209  20.120 -0.1012  0.1064  0.1103
10743W        W53660   2.152  16.237  17.336 -0.0472  0.1873  0.0668
10744W        W53661   2.413  16.622  18.987 -0.1907  0.2684 -0.0224
10745W        W53662   0.747  16.582  18.597  0.1552  0.1250 -0.1264
10746W        W53663   1.872  15.979  19.500 -0.1120 -0.1646  0.1585
10747W        W53664  33.831  17.530  19.385  0.2203 -0.2522 -0.0033
10748W        W53665   0.430  17.672  19.754 -0.2238 -0.3045  0.3789
10749W        W53666   3.578  17.677  22.056  0.0394 -0.1201 -0.0609
10750W        W53667   3.858  16.071  17.364  0.2002 -0.0650  0.3836
10751W        W53668   2.126  15.787  19.882  0.1343 -0.0939 -0.1562
10752W        W53669   1.188  13.710  17.765  0.1556  0.0441  0.0671
10753W        W53670   0.272  17.404  18.473 -0.0316  0.2069  0.0360
10754W        W53671   1.080  17.338  17.184  0.0310  0.1332  0.1692
10755W        W53672  34.579  14.956  19.239  0.2550  0.2294 -0.0084
10756W        W53673   2.026  16.869  19.182  0.0173  0.1846  0.1402
10757W        W53674   0.123  18.064  19.537  0.2529  0.3395  0.0509
10758W        W53675   1.260  15.859  20.553 -0.4697  0.2391  0.1523
10759W        W53676   0.925  18.290  17.460 -0.0440  0.2198 -0.0657
10760W        W53677   2.449  14.480  18.393 -0.0106  0.0845 -0.1340
10761W        W53678  34.080  16.879  18.275 -0.1250  0.0827 -0.0615
10762W        W53679  34.277  15.618  17.096 -0.1342  0.0617 -0.3529
10763W        W53680  32.827  16.304  17.337 -0.1728 -0.0589  0.2755
10764W        W53681   0.248  13.693  19.495 -0.1068 -0.1216 -0.0873
10765W        W53682   3.137  16.265  16.632 -0.1741 -0.1336  0.0406
10766W        W53683   0.330  15.015  21.491 -0.0397 -0.0862  0.2342
10767W        W53684   2.250  15.437  19.248  0.2190 -0.1059 -0.1985
10768W        W53685  33.690  18.649  20.169  0.0099  0.1608 -0.0603
10769W        W53686   1.333  16.700  21.594  0.2234  0.0111 -0.0331
10770W        W53687   2.387  14.069  17.935 -0.0638 -0.2140  0.4609
10771W        W53688   1.957  18.116  19.291  0.0249 -0.2250 -0.3132
10772W        W53689   0.754  16.781  20.119  0.0432  0.2132  0.1863
10773W        W53690  34.598  16.491  17.554 -0.2476  0.2274  0.0157
10774W        W53691   3.497  16.064  20.606  0.0523 -0.2677  0.0515
10775W        W53692   0.815  14.872  18.220  0.3381  0.1470  0.1622
10776W        W53693  33.834  16.471  18.091 -0.1285  0.1053  0.2885
10777W        W53694   2.477  16.931  17.851  0.3223 -0.2571  0.0559
10778W        W53695   0.598  17.447  17.181 -0.2352  0.1441  0.2266
10779W        W53696   0.605  19.205  17.755  0.0260  0.2847  0.0871
10780W        W53697   3.457  18.110  19.458  0.0379  0.1938  0.0241
10781W        W53698   3.572  16.376  17.994 -0.0020  0.2448  0.3809
10782W        W53699   1.639  13.755  17.932 -0.0686 -0.0482  0.2999
10783W        W53700   0.901  16.315  19.883  0.3066 -0.1479 -0.0198
10784W        W53701  34.144  16.210  17.651  0.0465 -0.0896 -0.1034
10785W        W53702   4.670  16.117  19.043 -0.0797 -0.1203  0.2515
10786W        W53703   0.538  15.986  19.005 -0.1645  0.2673  0.1026
10787W        W53704   0.363  16.814  19.509 -0.2024 -0.1061  0.0769
10788W        W53705   0.126  15.573  18.309 -0.1725  0.3318  0.0067
10789W        W53706   4.520  17.767  15.621 -0.0110  0.2079  0.0106
10790W        W53707   2.607  15.827  18.131 -0.1656 -0.1580 -0.2872
10791W        W53708   1.112  16.129  16.780  0.0310 -0.0139 -0.0992
10792W        W53709  34.057  16.924  19.456 -0.1770 -0.2289  0.0992
10793W        W53710   0.260  17.781  17.397 -0.2169 -0.0928  0.1728
10794W        W53711   1.154  15.844  20.057  0.0011 -0.1981  0.1609
10795W        W53712   0.597  17.144  19.838 -0.1927 -0.0584 -0.0474
10796W        W53713   0.565  16.711  17.702  0.0383 -0.1032  0.0883
10797W        W53714  34.505  16.795  19.586  0.1097  0.0858 -0.0565
10798W        W53715   1.945  14.082  16.920  0.1044  0.1126  0.0196
10799W        W53716  34.534  16.639  18.535 -0.2337 -0.1556  0.0605
10800W        W53717   1.570  16.667  17.921 -0.2526  0.0431 -0.1450
10801W        W53718   2.673  16.095  21.563 -0.2813  0.0548  0.1467
10802W        W53719   1.033  16.660  17.650  0.0874 -0.1060  0.1537
10803W        W53720   3.190  14.903  19.519  0.1272 -0.2800  0.2046
10804W        W53721  34.595  15.455  19.126 -0.0835 -0.2395  0.1183
10805W        W53722   2.456  18.546  17.706 -0.1230  0.0744  0.2347
10806W        W53723   1.566  16.285  19.206 -0.0646 -0.0829 -0.2848
10807W        W53724   3.733  18.665  21.724 -0.0868  0.1823 -0.1600
10808W        W53725   0.060  15.145  20.257 -0.1890 -0.0645 -0.1013
10809W        W53726  34.213  15.763  19.002 -0.1560 -0.2139 -0.2579
10810W        W53727  33.941  14.467  16.992  0.2271 -0.1491 -0.0882
10811W        W53728   1.633  15.835  19.012 -0.0691  0.1288 -0.0204
10812W        W53729   3.701  15.110  18.679 -0.0431  0.0300  0.1542
10813W        W53730   1.675  17.639  18.944  0.2777  0.2477 -0.1612
10814W        W53731   3.798  15.555  18.432 -0.1389 -0.1953 -0.1556
10815W        W53732   1.531  18.326  18.937 -0.2215 -0.1934  0.0956
10816W        W53733   4.048  17.049  18.560 -0.0020 -0.0623 -0.0622
10817W        W53734   0.420  15.815  17.383 -0.2558  0.1405  0.0904
10818W        W53735   1.357  15.632  18.617 -0.2588 -0.1874  0.2450
10819W        W53736  34.601  14.031  19.670  0.1589  0.0341  0.2136
10820W        W53737   3.388  17.537  19.433 -0.1579  0.0457 -0.2839
10821W        W53738   2.673  17.441  17.934  0.1764 -0.0766  0.2188
10822W        W53739   1.863  16.476  19.588 -0.0246 -0.1587 -0.3607
10823W        W53740   4.718  16.667  20.656  0.1446 -0.2337  0.0701
10824W        W53741   2.340  18.096  18.488 -0.0462  0.0256  0.1755
10825W        W53742  34.573  14.221  20.561  0.4385  0.0478  0.0583
10826W        W53743   3.001  17.245  20.958 -0.0978  0.0080 -0.1516
10827W        W53744   0.855  15.244  17.835  0.0913 -0.0799  0.1335
10828W        W53745   3.807  14.574  18.386  0.2977 -0.0193 -0.0443
10829W        W53746   3.403  16.144  17.612  0.2215  0.1163 -0.2769
10830W        W53747   2.229  15.355  16.922  0.1743  0.1318 -0.3786
10831W        W53748  33.860  15.292  19.902  0.0442 -0.1359  0.2441
10832W        W53749   2.920  15.903  19.444 -0.1335 -0.1337  0.3234
10833W        W53750  34.057  14.761  16.592 -0.1437  0.0939  0.2151
10834W        W53751   1.635  16.905  21.279  0.0389  0.3208  0.2052
10835W        W53752   3.205  18.918  16.209 -0.0409  0.0629  0.2372
10836W        W53753   3.504  17.416  17.226  0.1205 -0.1686 -0.1701
10837W        W53754   2.011  14.896  18.457  0.0879 -0.0384  0.3661
10838W        W53755  33.924  16.434  19.721 -0.1803 -0.0525  0.2418
10839W        W53756  33.223  17.054  19.752  0.5209 -0.0989 -0.0396
10840W        W53757   0.395  16.353  17.397  0.1680  0.0945  0.1349
10841W        W53758   1.749  16.280  17.631  0.0074  0.0341 -0.4898
10842W        W53759   3.260  17.254  19.837  0.0255 -0.0983 -0.4031
10843W        W53760   2.752  16.128  22.057  0.2443  0.2232 -0.0920
10844W        W53761   0.660  14.338  16.636  0.0057 -0.0083  0.4843
10845W        W53762   3.159  15.662  20.731 -0.1895 -0.1226 -0.1011
10846W        W53763   1.537  18.933  17.737 -0.0859 -0.1165  0.0373
10847W        W53764   1.528  15.825  17.612  0.0191  0.0076  0.1552
10848W        W53765   1.584  18.377  18.368 -0.1968  0.2277 -0.2762
10849W        W53766  34.189  16.682  20.691  0.0640 -0.1032  0.3238
10850W        W53767   1.108  19.141  18.384  0.4180  0.2287  0.0608
10851W        W53768   1.795  13.576  18.459 -0.2362  0.1279  0.0443
10852W        W53769   1.317  14.258  18.729 -0.1228 -0.0866 -0.1331
10853W        W53770   1.553  16.906  17.406  0.2280  0.0573 -0.0173
10854W        W53771   3.599  15.688  19.588 -0.0031  0.1054 -0.1549
10855W        W53772   2.377  19.794  20.426 -0.0643  0.0515  0.1198
10856W        W53773  34.244  16.723  19.025 -0.1302  0.1213  0.1531
10857W        W53774   1.523  19.203  18.617 -0.0735 -0.3943 -0.4943
10858W        W53775   4.607  17.163  19.941 -0.1964 -0.2493  0.0109
10859W        W53776   2.010  18.252  18.803 -0.0913 -0.0968  0.1412
10860W        W53777  33.163  16.958  19.194  0.2047  0.1559  0.0448
10861W        W53778   2.384  17.228  19.345 -0.0293  0.0257  0.1508
10862W        W53779   2.511  17.078  17.263  0.1605 -0.1430 -0.0125
10863W        W53780  34.178  14.452  19.355  0.1988  0.0341  0.0533
10864W        W53781   2.073  16.914  16.803 -0.3409 -0.1716 -0.2838
10865W        W53782  34.054  18.201  21.444 -0.0718 -0.1054 -0.1199
10866W        W53783  33.777  15.539  19.216 -0.2348 -0.4101  0.2604
10867W        W53784   2.279  17.655  18.110 -0.0194  0.0106  0.4560
10868W        W53785   2.808  17.913  18.216 -0.0226  0.1854  0.2075
10869W        W53786   1.613  16.955  18.289  0.3675  0.1090  0.4393
10870W        W53787   3.706  19.087  19.617 -0.1464 -0.0001  0.1301
10871W        W53788   1.408  15.330  17.837  0.2336  0.1208  0.1073
10872W        W53789   0.877  17.419  18.205  0.4086 -0.2027 -0.1515
10873W        W53790  33.727  18.589  17.763  0.3239 -0.3282  0.2612
10874W        W53791   2.759  18.232  16.938 -0.0382 -0.2783  0.1304
10875W        W53792  33.966  18.493  19.498 -0.2120  0.0140  0.0919
10876W        W53793   2.278  17.472  20.445  0.1860 -0.1275 -0.2116
10877W        W53794   1.324  14.625  18.213 -0.3122  0.0565 -0.0945
10878W        W53795   4.217  17.441  18.196  0.1302  0.2823 -0.0673
10879W        W53796   3.445  15.784  17.157 -0.4494 -0.0363 -0.0217
10880W        W53797   2.520  16.563  20.756  0.1959 -0.1634 -0.0887
10881W        W53798   0.314  16.482  18.210 -0.0703 -0.0854  0.0253
10882W        W53799   1.974  13.968  17.443  0.0164  0.0221  0.0050
10883W        W53800   1.067  16.269  18.802  0.1716  0.1174  0.1948
10884W        W53801   4.220  17.309  20.231  0.2150  0.1523 -0.0753
10885W        W53802  33.685  19.815  20.500 -0.2623  0.0307  0.0593
10886W        W53803   0.622  17.616  18.831 -0.0806  0.1124 -0.0154
10887W        W53804   1.753  15.455  16.784 -0.0256 -0.0069  0.0078
10888W        W53805  34.490  16.477  18.046 -0.2558 -0.0501  0.1209
10889W        W53806   1.988  12.743  20.736  0.1014 -0.1312  0.0071
10890W        W53807   0.970  17.251  16.634  0.1266 -0.1352 -0.0976
10891W        W53808   3.535  15.883  18.653  0.0271 -0.0946 -0.0870
10892W        W53809   2.710  18.066  17.737  0.0647 -0.1008  0.1926
10893W        W53810   3.422  17.396  17.840 -0.3136  0.2511 -0.1124
10894W        W53811   0.341  18.305  17.755  0.0603  0.3264 -0.1858
10895W        W53812   0.414  14.957  17.663 -0.1157  0.0417  0.2229
10896W        W53813   3.330  16.936  17.307  0.3765  0.0836  0.1111
10897W        W53814   0.373  16.835  20.388 -0.0394  0.2253  0.1617
10898W        W53815   2.857  13.131  19.447  0.3875 -0.2881 -0.0206
10899W        W53816   0.491  15.648  17.904 -0.2748  0.1375 -0.3634
10900W        W53817   2.648  16.459  18.085  0.3585 -0.1637 -0.2974
10901W        W53818  33.674  16.215  17.607 -0.2166 -0.1328  0.2287
10902W        W53819   1.210  17.249  19.351  0.1495  0.0757  0.0056
10903W        W53820   1.348  15.840  17.109 -0.0744  0.0024 -0.0107
10904W        W53821   3.611  17.466  20.148  0.2707  0.0517  0.2836
10905W        W53822   1.808  16.564  17.116  0.0871  0.1139 -0.0594
10906W        W53823   1.984  17.728  20.132  0.2070  0.0241  0.2498
10907W        W53824  34.598  14.537  17.818 -0.2151 -0.2079  0.3368
10908W        W53825   1.413  13.316  18.121  0.1880 -0.1981  0.1362
10909W        W53826  34.444  18.534  19.704  0.0137  0.3907 -0.1691
10910W        W53827   1.300  15.909  19.420  0.0674  0.0903  0.3045
10911W        W53828   3.509  18.386  21.337 -0.1077 -0.1518 -0.0695
10912W        W53829   0.052  15.462  17.135 -0.0106 -0.0208  0.2259
10913W        W53830   3.593  17.837  15.881  0.0994 -0.0483  0.1102
10914W        W53831   1.429  17.152  18.901 -0.4550  0.1882 -0.0556
10915W        W53832   1.981  17.167  17.274 -0.0294  0.1602 -0.3795
10916W        W53833   1.154  14.779  18.705 -0.1587  0.0032  0.2231
10917W        W53834   1.309  16.325  17.268 -0.2201  0.1510 -0.1475
10918W        W53835  34.609  16.598  20.146  0.1825 -0.1019 -0.0786
10919W        W53836   3.147  19.975  20.770 -0.1160 -0.0894 -0.0322
10920W        W53837   3.197  15.947  19.891 -0.3819  0.2088 -0.0169
10921W        W53838   0.719  15.853  20.275 -0.2905  0.1139 -0.1078
10922W        W53839   0.496  15.997  19.886 -0.2509 -0.1368 -0.0831
10923W        W53840   1.484  16.811  19.353  0.1462  0.3414  0.1020
10924W        W53841   2.012  14.237  20.171 -0.1037 -0.5222 -0.2569
10925W        W53842   2.304  16.637  19.486  0.0887  0.1614  0.0341
10926W        W53843   1.174  16.991  18.471 -0.1129  0.0567 -0.1055
10927W        W53844   2.274  14.385  19.334  0.0322  0.3505  0.1954
10928W        W53845   2.904  18.629  19.109  0.2117  0.0486  0.1036
10929W        W53846   1.627  17.380  19.719  0.3046  0.0072 -0.0097
10930W        W53847  34.323  17.351  17.443 -0.0644 -0.0767 -0.0136
10931W        W53848   1.677  16.473  20.183  0.1180 -0.4078  0.0440
10932W        W53849   1.212  17.871  18.080  0.2886  0.3029 -0.3498
10933W        W53850   0.676  17.940  17.238 -0.3119 -0.0188  0.1835
10934W        W53851   2.549  19.280  19.751  0.1866  0.4135 -0.1167
10935W        W53852   0.541  15.487  18.956  0.0963  0.2241  0.0713
10936W        W53853   4.074  17.524  18.750  0.1960 -0.3561 -0.1990
10937W        W53854   0.865  15.173  20.362 -0.2764  0.0279 -0.0050
10938W        W53855   1.528  13.240  19.365 -0.1716 -0.0454 -0.0180
10939W        W53856   4.096  14.820  18.859 -0.0237 -0.0657  0.2263
10940W        W53857   3.846  16.401  20.444 -0.0519 -0.3134 -0.0321
10941W        W53858  33.972  15.191  18.472  0.1542 -0.0739 -0.2595
10942W        W53859  33.717  16.725  17.624 -0.1308  0.0994  0.1442
10943W        W53860  33.733  17.103  18.001 -0.1952 -0.2297  0.2745
10944W        W53861   2.416  16.674  18.471 -0.0620  0.1985 -0.0503
10945W        W53862   1.485  15.517  21.144 -0.1560 -0.3467 -0.2271
10946W        W53863   1.497  16.127  18.577 -0.3157  0.1973  0.1145
10947W        W53864  34.530  15.777  16.677  0.1032  0.0587 -0.1879
10948W        W53865   4.764  18.200  18.350  0.0231 -0.0940  0.0212
10949W        W53866  34.279  14.633  20.351  0.0593 -0.0549  0.0917
10950W        W53867  33.475  15.109  18.521  0.3530 -0.0490  0.0154
10951W        W53868   3.101  18.346  18.161  0.1206 -0.2937  0.0470
10952W        W53869   1.834  18.022  18.183 -0.5058  0.0399 -0.3731
10953W        W53870  34.289  14.852  18.742  0.0858 -0.1916  0.2439
10954W        W53871   2.853  19.449  21.447  0.3682  0.1843  0.5536
10955W        W53872  34.082  16.619  17.207 -0.0850  0.1145  0.0570
10956W        W53873   1.983  16.531  20.552  0.0692  0.0334 -0.2369
10957W        W53874   0.012  14.694  20.644 -0.1759 -0.1730  0.1598
10958W        W53875  33.957  14.930  17.229 -0.3336 -0.0906 -0.0968
10959W        W53876   3.002  16.106  17.951 -0.1250  0.0409  0.1276
10960W        W53877   0.557  16.894  16.455 -0.0489 -0.0691 -0.1418
10961W        W53878   1.871  19.563  18.802  0.0376  0.0139 -0.0922
10962W        W53879   0.310  17.934  18.452 -0.0427  0.1265 -0.0827
10963W        W53880  34.344  18.058  19.902  0.1006 -0.0830  0.0812
10964W        W53881  33.057  16.896  20.678 -0.0809 -0.1089  0.0655
10965W        W53882   3.929  17.004  16.588  0.1937  0.1030 -0.1565
10966W        W53883   2.504  16.853  20.265  0.0301  0.0138  0.0758
10967W        W53884   1.096  17.519  18.659 -0.1848  0.0140 -0.0573
10968W        W53885   1.127  13.344  19.581 -0.3506  0.0977  0.1835
10969W        W53886   0.770  17.058  17.421 -0.0609 -0.0341  0.2230
10970W        W53887   0.370  14.641  18.019  0.1551  0.0801  0.1753
10971W        W53888   2.332  17.183  18.284 -0.0409 -0.0804  0.2006
10972W        W53889   4.300  16.263  20.622  0.0496 -0.0382 -0.0127
10973W        W53890  33.228  13.597  17.798  0.4272  0.1552 -0.3129
10974W        W53891   4.753  15.816  18.128 -0.2455 -0.2976  0.0417
10975W        W53892   1.982  15.799  17.918 -0.0626  0.1316 -0.0686
10976W        W53893  33.852  16.440  19.156  0.3345 -0.0664 -0.0403
10977W        W53894   1.734  14.752  17.584  0.2198  0.1363 -0.1893
10978W        W53895   3.008  16.831  21.348 -0.1079  0.2028  0.2213
10979W        W53896   0.308  16.887  18.451  0.1681 -0.0860  0.0805
10980W        W53897   4.327  18.315  18.628  0.0425 -0.1641  0.1734
10981W        W53898   2.569  15.066  16.686 -0.2868  0.0790  0.0165
10982W        W53899   2.495  15.584  16.609 -0.0293 -0.1719 -0.0142
10983W        W53900   1.439  18.232  20.258 -0.2140  0.1595 -0.4415
10984W        W53901   3.104  18.799  21.277  0.0352 -0.0222  0.0246
10985W        W53902   0.026  16.365  19.704  0.1321  0.0591 -0.1403
10986W        W53903   2.202  16.302  17.910  0.1385  0.0393 -0.0532
10987W        W53904   0.358  13.136  19.115  0.2029  0.2365  0.0100
10988W        W53905   1.220  16.480  18.354  0.1830 -0.1812 -0.0440
10989W        W53906   2.004  15.872  18.430 -0.0980 -0.2702  0.2736
10990W        W53907   1.724  17.376  18.550 -0.1318 -0.0428 -0.1232
10991W        W53908   0.063  14.898  19.696  0.2093 -0.2358  0.0877
10992W        W53909   1.688  15.385  17.293 -0.0818  0.1335 -0.0942
10993W        W53910   0.874  18.955  19.719 -0.3951 -0.1518 -0.0021
10994W        W53911   1.015  15.434  21.228 -0.2268 -0.0809  0.0950
10995W        W53912   1.283  15.986  23.288 -0.3307  0.2864 -0.1229
10996W        W53913   1.788  15.073  20.863  0.0689  0.1744 -0.1428
10997W        W53914   2.920  16.458  20.982  0.1470 -0.0134 -0.0920
10998W        W53915   3.851  16.069  22.572  0.3121 -0.1067 -0.0050
10999W        W53916   2.026  14.223  22.485  0.1757  0.0166 -0.0997
11000W        W53917   3.266  15.412  22.252 -0.0548  0.1134 -0.0445
11001W        W53918   2.534  14.865  22.006  0.1214 -0.1404 -0.1500
11002W        W53919   1.869  16.483  22.674 -0.1868  0.0620 -0.0311
11003W        W53920   3.024  16.622  23.961 -0.2272 -0.1127  0.0213
11004W        W53921   2.178  15.655  20.938 -0.1858 -0.1978 -0.1972
11005W        W53922   0.671  15.666  24.638 -0.1388  0.0977  0.1138
11006W        W53923   1.811  17.363  23.220 -0.2223 -0.0290 -0.0588
11007W        W53924   1.146  13.286  21.092 -0.2125 -0.1134  0.2759
11008W        W53925   0.675  14.760  22.915  0.1228 -0.2419  0.5726
11009W        W53926   1.758  17.396  25.436 -0.1001  0.3151 -0.3572
11010W        W53927   0.320  15.702  22.068 -0.0677  0.1443 -0.0099
11011W        W53928   1.266  13.730  21.213  0.1109 -0.1957  0.1945
11012W        W53929   0.067  14.537  21.107 -0.2516 -0.1898 -0.3660
11013W        W53930   2.418  17.727  22.482  0.0061  0.0865  0.1371
11014W        W53931   3.402  15.864  22.452  0.0890  0.0328 -0.4476
11015W        W53932   1.684  14.682  24.819 -0.3220 -0.0533  0.0665
11016W        W53933   1.593  17.796  19.428 -0.1321  0.0577 -0.2376
11017W        W53934  34.562  14.030  21.911 -0.0791  0.0963  0.2044
11018W        W53935   2.065  14.293  21.526  0.0332  0.3705  0.0754
11019W        W53936   2.069  14.720  23.265 -0.2434 -0.4275  0.1404
11020W        W53937   3.034  14.487  21.822  0.0114  0.2640 -0.1897
11021W        W53938   1.373  14.839  23.076 -0.1907  0.0494  0.2719
11022W        W53939   0.684  17.160  22.573 -0.0519  0.2688 -0.0543
11023W        W53940   2.982  17.738  22.638  0.0467 -0.0993  0.0163
11024W        W53941   4.644  16.705  25.776  0.0099  0.0807 -0.0895
11025W        W53942   0.726  18.136  21.703 -0.0471 -0.2651  0.1667
11026W        W53943   0.883  18.780  20.958 -0.2232 -0.2892 -0.0990
11027W        W53944  34.340  17.788  20.778 -0.3042 -0.0973 -0.1519
11028W        W53945   2.502  15.005  23.474  0.0046 -0.1910  0.1324
11029W        W53946   4.153  16.389  25.067  0.2161  0.0699 -0.3573
11030W        W53947   2.081  18.928  24.937 -0.0256 -0.1893  0.3154
11031W        W53948  33.976  17.514  21.643 -0.1179  0.0579  0.1038
11032W        W53949   2.828  18.073  25.325 -0.1084  0.2229 -0.0564
11033W        W53950   0.950  19.083  23.240 -0.1769 -0.1361 -0.1005
11034W        W53951   0.121  16.985  22.590  0.2020  0.4321 -0.3661
11035W        W53952   2.255  15.969  21.856 -0.1613 -0.0145  0.1218
11036W        W53953  34.304  16.198  20.032  0.1470  0.0148 -0.0722
11037W        W53954   1.360  15.843  21.498  0.1652 -0.0887  0.1953
11038W        W53955   2.283  14.885  23.930 -0.2322  0.0292 -0.2979
11039W        W53956   0.438  16.875  21.296  0.1054  0.0249 -0.0322
11040W        W53957   1.823  14.755  23.978  0.1272 -0.3611 -0.1730
11041W        W53958   1.609  17.396  21.504  0.1405 -0.0651  0.0066
11042W        W53959   3.409  17.545  21.252 -0.4267 -0.0041 -0.0228
11043W        W53960   1.955  17.015  20.291 -0.2726 -0.1672  0.0053
11044W        W53961   3.072  15.998  21.118  0.0836  0.0237  0.1472
11045W        W53962   0.288  14.559  21.588  0.2033  0.0377 -0.2278
11046W        W53963  34.603  18.071  22.119 -0.0011 -0.2300 -0.1907
11047W        W53964   3.567  15.173  22.697  0.1726  0.0605 -0.2769
11048W        W53965   2.345  16.915  24.674 -0.2878  0.0792 -0.1316
11049W        W53966   0.246  15.332  23.621  0.0375  0.0037  0.1886
11050W        W53967   3.641  15.416  23.661 -0.1173 -0.1463 -0.4330
11051W        W53968  34.523  16.865  23.871  0.0877 -0.0603  0.1439
11052W        W53969  34.601  15.048  23.302 -0.0294 -0.1133  0.1056
11053W        W53970   2.971  16.788  20.556  0.1496  0.1521  0.5111
11054W        W53971   1.076  16.267  22.013 -0.1546  0.2267 -0.2164
11055W        W53972   1.295  18.764  19.219  0.0695  0.2289  0.3277
11056W        W53973  34.460  14.870  21.588 -0.1227  0.1793 -0.0671
11057W        W53974   0.803  15.947  23.947 -0.0904 -0.2491  0.2463
11058W        W53975   1.064  15.084  23.612  0.0794  0.0900  0.0021
11059W        W53976   3.163  15.402  19.400  0.3150  0.0605 -0.0051
11060W        W53977   4.609  17.576  23.007 -0.1222 -0.0371 -0.1710
11061W        W53978   0.990  16.538  22.579 -0.2916 -0.0461  0.1791
11062W        W53979   2.680  14.678  23.820 -0.1916  0.2935 -0.0634
11063W        W53980  33.539  16.161  22.448 -0.0660 -0.6214 -0.0330
11064W        W53981   1.923  15.364  21.341 -0.0875  0.1658 -0.1445
11065W        W53982   3.718  18.487  19.197 -0.0618 -0.0614  0.1441
11066W        W53983   1.313  17.183  21.845  0.0984  0.1004 -0.3255
11067W        W53984   2.119  15.015  22.306 -0.2679 -0.3004 -0.3127
11068W        W53985   0.691  17.200  20.525 -0.0509  0.1748 -0.0958
11069W        W53986   0.424  17.561  20.963 -0.1350  0.3279 -0.2297
11070W        W53987   4.610  15.685  24.304  0.0981  0.3934 -0.1167
11071W        W53988   2.748  16.469  19.969  0.3587  0.2883  0.1773
11072W        W53989   1.952  17.285  21.881  0.0798  0.1390  0.0889
11073W        W53990   2.759  15.761  23.689 -0.0891 -0.1011  0.1148
11074W        W53991   2.302  15.150  23.030 -0.0149  0.2320 -0.1457
11075W        W53992   1.147  19.527  21.518 -0.0123  0.3268  0.1360
11076W        W53993   2.019  16.541  21.084  0.1328 -0.2454  0.1280
11077W        W53994  33.417  17.009  22.071 -0.0966  0.2277  0.1107
11078W        W53995   1.633  14.025  20.504  0.2079 -0.0810 -0.3195
11079W        W53996   1.389  13.891  23.214 -0.0883 -0.0878 -0.2207
11080W        W53997   2.735  14.682  19.501 -0.0414 -0.1574  0.0135
11081W        W53998   1.198  14.090  22.558 -0.0434 -0.0614 -0.2054
11082W        W53999   4.042  14.267  21.835  0.0840 -0.0021 -0.1153
11083W        W54000   1.326  14.989  21.173 -0.1334 -0.0473  0.3937
11084W        W54001   2.456  18.542  22.714 -0.1629 -0.0637 -0.0062
11085W        W54002   3.241  14.641  22.738 -0.0103 -0.0222 -0.2146
11086W        W54003   1.827  18.057  19.796  0.0547  0.2643  0.2324
11087W        W54004  33.720  12.915  22.639 -0.0477 -0.3920  0.0545
11088W        W54005   0.197  15.037  21.037 -0.2039 -0.2691 -0.2040
11089W        W54006  34.149  15.314  23.073 -0.0273  0.1570  0.2855
11090W        W54007  33.837  14.882  21.578  0.0809  0.1776 -0.0357
11091W        W54008   2.045  15.179  24.332 -0.0910 -0.2748 -0.0331
11092W        W54009   1.054  14.500  21.071  0.2567 -0.2143  0.1310
11093W        W54010   2.670  15.533  20.810 -0.2097  0.1179 -0.1312
11094W        W54011   1.030  13.734  20.452  0.0961  0.0385 -0.3892
11095W        W54012   0.444  15.243  22.715  0.3534  0.3534  0.0496
11096W        W54013   2.754  13.976  22.851 -0.1017 -0.0838  0.0733
11097W        W54014   1.594  17.397  20.233  0.4022 -0.2139  0.1201
11098W        W54015   3.300  17.211  25.168 -0.2697 -0.0172 -0.0303
11099W        W54016   3.850  15.939  23.758 -0.0395 -0.2395  0.0890
11100W        W54017   1.106  14.143  24.467  0.0313 -0.0957  0.0850
11101W        W54018  33.909  15.861  20.313 -0.1709 -0.2622 -0.0464
11102W        W54019   0.692  18.311  21.029 -0.0472 -0.0715  0.2216
11103W        W54020   2.029  16.167  23.074  0.2475  0.1337 -0.0428
11104W        W54021   2.265  16.975  20.696 -0.2803  0.1385 -0.0956
11105W        W54022   2.548  16.361  23.758 -0.3371  0.2855  0.0634
11106W        W54023   1.060  15.901  21.040  0.4230  0.1932  0.2751
11107W        W54024   0.917  16.878  22.961 -0.0789  0.0054 -0.0053
11108W        W54025   0.129  14.799  23.668 -0.2486 -0.1143 -0.3147
11109W        W54026   1.896  15.581  23.884 -0.1186 -0.3871  0.1216
11110W        W54027   1.425  15.784  22.494 -0.0785  0.1245 -0.1194
11111W        W54028   2.084  14.704  20.481  0.2569 -0.0000  0.1663
11112W        W54029   3.312  17.357  21.778 -0.2951  0.1996 -0.3208
11113W        W54030   1.018  16.782  20.527 -0.2153 -0.3845 -0.0037
11114W        W54031  33.897  16.551  21.058  0.0268 -0.0116  0.2141
11115W        W54032   1.712  15.605  20.651  0.2697 -0.1383  0.4579
11116W        W54033   3.874  15.002  20.643 -0.0951 -0.0965  0.0477
11117W        W54034  34.649  16.060  22.443  0.0093  0.4155  0.1134
11118W        W54035   1.331  14.337  23.750  0.3020 -0.0997 -0.3176
11119W        W54036   0.389  16.997  21.777 -0.1554 -0.1792  0.0180
11120W        W54037   1.351  17.768  25.234 -0.1456 -0.0009 -0.0766
11121W        W54038   0.527  15.236  19.528  0.1421 -0.0942  0.0839
11122W        W54039   2.148  15.182  21.756 -0.4388 -0.0937 -0.2303
11123W        W54040   1.978  16.567  24.564 -0.1334 -0.3196 -0.3519
11124W        W54041   2.007  17.735  21.617  0.0320  0.3603 -0.3134
11125W        W54042   2.070  16.084  21.366  0.0351  0.0488  0.0050
11126W        W54043   4.272  13.294  19.034  0.3307 -0.2340  0.0113
11127W        W54044  33.815  17.171  23.412 -0.4995  0.2989  0.1035
11128W        W54045   2.754  16.749  22.676 -0.3175 -0.0491  0.0936
11129W        W54046   0.822  17.229  22.003 -0.0748 -0.0716 -0.0193
11130W        W54047   2.184  15.222  20.636 -0.0105  0.0142 -0.1696
11131W        W54048   3.325  19.151  20.976  0.2996  0.3672 -0.1792
11132W        W54049   1.312  15.346  22.824 -0.1522 -0.1879  0.1931
11133W        W54050   3.037  15.621  23.274 -0.1555 -0.0256  0.1032
11134W        W54051   1.977  16.314  23.653 -0.0529  0.0498 -0.2811
11135W        W54052   1.923  13.689  23.558  0.0581 -0.2892  0.0329
11136W        W54053   1.165  17.165  19.884 -0.1427  0.1286 -0.0011
11137W        W54054   1.214  15.372  20.777  0.0890 -0.1877  0.1743
11138W        W54055  33.701  16.822  20.728 -0.3616  0.1733  0.3364
11139W        W54056   3.239  13.786  22.878 -0.0287 -0.1205 -0.0728
11140W        W54057   0.703  14.242  22.519  0.0414  0.0208 -0.1851
11141W        W54058   2.030  14.627  24.439 -0.1326  0.0484  0.2801
11142W        W54059   3.447  15.393  23.192 -0.0784 -0.3924 -0.0444
11143W        W54060   3.211  16.036  22.947  0.1349 -0.3579  0.2880
11144W        W54061   2.227  16.524  25.043 -0.0598  0.1162  0.1511
11145W        W54062   1.127  16.303  20.766  0.1593 -0.1034  0.0958
11146W        W54063   3.309  15.334  24.594 -0.1297 -0.1418 -0.1465
11147W        W54064   0.369  15.175  24.619 -0.0182 -0.0070 -0.0563
11148W        W54065   0.962  19.542  23.051 -0.4069 -0.0554 -0.3100
11149W        W54066   4.131  17.197  25.844 -0.1285 -0.0911 -0.3098
11150W        W54067   2.118  14.179  20.636  0.0584 -0.0486 -0.2568
11151W        W54068   0.157  13.640  23.244 -0.3776 -0.3618 -0.1158
11152W        W54069   1.360  13.767  21.898 -0.2980  0.1417 -0.0747
11153W        W54070  34.421  16.300  21.039 -0.0384  0.1656 -0.0706
11154W        W54071   2.546  19.349  20.285 -0.0468  0.0240  0.1712
11155W        W54072   1.117  16.500  23.233  0.2527 -0.2349  0.0191
11156W        W54073   3.365  17.926  21.543  0.0160  0.3123 -0.1194
11157W        W54074  34.508  17.184  20.625 -0.0291  0.1597 -0.1478
11158W        W54075   2.257  16.758  22.564  0.0201 -0.3057  0.2267
11159W        W54076   1.337  15.775  22.015 -0.3053 -0.0729  0.1972
11160W        W54077   2.385  14.276  22.847 -0.0283 -0.1903 -0.1350
11161W        W54078  34.173  16.667  21.463  0.0808 -0.0351 -0.1428
11162W        W54079   1.494  16.690  20.735 -0.0974 -0.1146  0.1062
11163W        W54080  33.472  15.752  19.784  0.2648 -0.2603  0.1899
11164W        W54081   0.975  15.478  21.742  0.0108  0.1238  0.2236
11165W        W54082   5.521  17.253  22.052 -0.2277  0.2643 -0.1905
11166W        W54083   1.065  15.667  24.256 -0.2768 -0.2239  0.2764
11167W        W54084   1.180  14.132  21.434 -0.3309 -0.3237  0.4195
11168W        W54085   1.118  17.324  23.296 -0.1078 -0.0092  0.2942
11169W        W54086   2.147  16.638  24.014 -0.1780 -0.0143  0.2652
11170W        W54087   1.526  13.119  20.039  0.1676  0.2305 -0.0674
11171W        W54088   5.423  15.794  24.994  0.3027  0.1506 -0.1344
11172W        W54089   1.716  16.466  24.960 -0.0370  0.2362  0.2114
11173W        W54090   0.177  14.091  20.157 -0.1394  0.3968 -0.1955
11174W        W54091   2.723  15.846  22.867 -0.1837  0.1574  0.2167
11175W        W54092   3.380  14.021  21.270  0.1483  0.0220 -0.1161
11176W        W54093   3.021  18.531  22.728  0.1377  0.0459  0.0354
11177W        W54094   3.227  17.133  22.235  0.0591  0.1941 -0.0778
11178W        W54095   1.787  17.154  20.803  0.3234  0.0636 -0.0413
11179W        W54096   0.848  14.491  21.573  0.1935  0.1794 -0.0770
11180W        W54097   0.406  16.216  23.765  0.0246 -0.2117  0.2313
11181W        W54098   4.463  16.072  23.854 -0.1256  0.0267  0.0400
11182W        W54099   2.529  14.859  22.530 -0.5832 -0.4165 -0.0358
11183W        W54100   2.398  11.656  20.101  0.1471 -0.1130 -0.2274
11184W        W54101   0.506  15.411  23.206 -0.2069  0.2752  0.2533
11185W        W54102   1.698  15.368  22.170  0.1478  0.1517 -0.0057
11186W        W54103   2.013  16.335  22.220 -0.3076 -0.3380  0.0247
11187W        W54104   1.162  17.803  22.891 -0.0431  0.0964 -0.1100
11188W        W54105   1.757  13.533  21.122 -0.1306 -0.1743  0.0596
11189W        W54106   4.371  16.632  21.047  0.1887 -0.1979 -0.0595
11190W        W54107   1.236  16.835  23.656 -0.0046 -0.0207 -0.1476
11191W        W54108   2.682  17.711  20.611  0.0832  0.0926 -0.2486
11192W        W54109   0.831  16.685  21.680 -0.1777  0.1416  0.0377
11193W        W54110   0.351  15.734  22.575 -0.0029  0.3319  0.2146
11194W        W54111   2.264  14.395  24.054 -0.0156  0.0009  0.1126
11195W        W54112   0.679  18.613  21.861  0.1738 -0.1232  0.0985
11196W        W54113   0.778  16.023  21.713  0.2198  0.0001  0.3312
11197W        W54114   0.808  17.634  22.469  0.4468 -0.4107 -0.2518
11198W        W54115   3.059  16.580  19.581 -0.0065  0.2295 -0.3788
11199W        W54116   1.621  16.219  20.638 -0.2579 -0.2273 -0.0667
11200W        W54117   1.400  12.879  21.482 -0.0562  0.0815 -0.2431
11201W        W54118   3.559  14.607  23.163  0.5077 -0.0573  0.1601
11202W        W54119   2.212  16.479  21.749  0.1286 -0.0770  0.2797
11203W        W54120   4.988  13.922  25.215 -0.1901 -0.0959 -0.0616
11204W        W54121   0.826  16.117  23.397 -0.0590  0.0640  0.1817
11205W        W54122   4.136  17.642  20.734  0.1031  0.1519  0.0189
11206W        W54123   0.182  14.584  23.119  0.1438 -0.0921 -0.2239
11207W        W54124   2.700  18.111  24.872  0.1879  0.2233  0.3673
11208W        W54125   0.070  16.655  22.997 -0.0054  0.1980 -0.4229
11209W        W54126   2.013  15.558  23.375  0.1906  0.0703  0.1171
11210W        W54127   0.807  14.943  21.393  0.0529 -0.0116  0.0283
11211W        W54128   1.909  16.976  22.824 -0.0268 -0.0453 -0.1086
11212W        W54129   4.089  16.707  23.093  0.1639  0.3297  0.0403
11213W        W54130   2.690  15.610  19.031  0.3616 -0.0224 -0.1253
11214W        W54131   5.245  16.195  23.906 -0.1791  0.0058 -0.0949
11215W        W54132   0.878  15.521  22.651  0.4051  0.2214  0.2063
11216W        W54133   1.980  16.766  23.228 -0.0645  0.0791 -0.0103
11217W        W54134   2.153  17.043  21.235 -0.2033 -0.2081 -0.1767
11218W        W54135   0.320  17.081  20.846 -0.3884 -0.2721 -0.0584
11219W        W54136  33.123  14.728  23.464 -0.1757 -0.0639  0.0451
11220W        W54137   2.523  17.240  22.718  0.0323 -0.1965  0.0395
11221W        W54138   3.064  14.873  21.522  0.1392 -0.0145  0.0836
11222W        W54139   1.044  13.571  23.340 -0.1810 -0.0529 -0.5288
11223W        W54140   2.603  17.963  22.022  0.1654 -0.1698 -0.0121
11224W        W54141   2.519  15.710  24.197  0.1622  0.0609 -0.2687
11225W        W54142  34.615  14.213  23.865  0.0617  0.0240  0.1873
11226W        W54143   1.445  16.785  24.634 -0.0735  0.0790 -0.0217
11227W        W54144   4.986  15.416  21.087 -0.0354  0.1745  0.0756
11228W        W54145   4.727  14.916  22.744 -0.0965  0.1441 -0.0371
11229W        W54146   2.886  15.643  21.427  0.0991  0.1081 -0.3139
11230W        W54147   2.493  15.449  20.006  0.3320 -0.0519  0.3179
11231W        W54148   2.601  16.935  21.048 -0.1313  0.5965  0.1708
11232W        W54149   3.073  17.493  24.485 -0.1204 -0.0234 -0.1372
11233W        W54150   2.511  16.532  21.323  0.1536  0.1236  0.0759
11234W        W54151   2.520  14.507  23.388  0.0687 -0.2989 -0.0408
11235W        W54152   2.034  17.605  19.579  0.1077 -0.0355 -0.1663
11236W        W54153   3.844  15.563  22.448  0.4635  0.2923 -0.3103
11237W        W54154   2.450  14.691  20.888  0.2647  0.0366 -0.0139
11238W        W54155   0.453  16.384  21.874 -0.2036  0.1504  0.0993
11239W        W54156   0.040  18.003  23.451  0.1582  0.0976 -0.1765
11240W        W54157   0.072  16.638  20.746 -0.4000 -0.0352 -0.1454
11241W        W54158   2.125  16.142  20.291  0.1177 -0.2336  0.0498
11242W        W54159   2.072  17.435  23.721  0.0006 -0.1440  0.3086
11243W        W54160   2.794  16.482  24.998 -0.2531 -0.0584  0.3614
11244W        W54161   1.930  15.442  22.664 -0.1830  0.1056 -0.3297
11245W        W54162   3.216  15.348  24.123 -0.1352  0.0825  0.4886
11246W        W54163  34.138  15.707  20.834 -0.0128  0.2652 -0.0951
11247W        W54164   1.463  13.412  21.512 -0.0137 -0.0237 -0.1736
11248W        W54165   0.724  17.573  23.121 -0.1437 -0.2909  0.0911
11249W        W54166   0.283  16.860  24.249  0.1239  0.0599 -0.0964
11250W        W54167   0.708  15.507  20.770 -0.0908  0.1549  0.0322
11251W        W54168   0.911  13.210  22.469  0.1159 -0.2742 -0.1115
11252W        W54169   0.727  16.813  22.183  0.0828 -0.1206 -0.3249
11253W        W54170   1.737  16.783  22.288  0.0034  0.0629 -0.0377
11254W        W54171   4.017  14.648  23.424 -0.1305 -0.1268  0.4442
11255W        W54172   1.965  18.097  24.578  0.0987 -0.0264 -0.2491
11256W        W54173  34.596  16.347  21.989 -0.0172 -0.1731  0.4531
11257W        W54174   4.042  16.939  22.316  0.0931 -0.1080  0.0360
11258W        W54175   2.501  16.045  23.267  0.0215 -0.1047  0.1077
11259W        W54176   1.432  17.834  19.972 -0.3151  0.0675  0.1005
11260W        W54177  33.276  13.417  22.690 -0.0699 -0.1739  0.4475
11261W        W54178   4.765  16.184  24.932  0.1184  0.2067 -0.1593
11262W        W54179   2.455  16.041  22.415 -0.0463  0.2493 -0.4164
11263W        W54180  33.844  12.128  21.539 -0.0333 -0.3317  0.0888
11264W        W54181   2.112  18.077  21.244  0.1433 -0.5317  0.1554
11265W        W54182  34.639  16.371  23.942  0.3002 -0.2138  0.1130
11266W        W54183   1.167  12.911  22.066  0.0509 -0.2024  0.1309
11267W        W54184   2.396  18.071  20.320 -0.0587 -0.1027  0.0006
11268W        W54185   2.403  19.992  19.855 -0.1409 -0.2097  0.1197
11269W        W54186   1.579  16.523  23.424  0.2267  0.3312 -0.0149
11270W        W54187   2.269  15.708  22.960 -0.0431 -0.1051  0.1306
11271W        W54188   1.918  15.678  21.687 -0.4328  0.0462 -0.0928
11272W        W54189   0.606  16.658  20.848 -0.1122 -0.0193 -0.3380
11273W        W54190  33.706  16.540  22.092 -0.1329  0.1092 -0.4217
11274W        W54191   0.950  17.649  19.627 -0.1671 -0.3865  0.0632
11275W        W54192   1.257  17.236  20.659 -0.1766  0.2753  0.2000
11276W        W54193   4.096  17.259  21.777 -0.0606 -0.1456  0.0584
11277W        W54194   2.107  16.681  19.955  0.1997  0.2082  0.0816
11278W        W54195   1.494  16.211  22.906 -0.1442 -0.0179 -0.1862
11279W        W54196   4.486  15.114  21.911 -0.0239  0.0204  0.2362
11280W        W54197   4.092  18.737  24.207 -0.1214  0.4025  0.0590
11281W        W54198   1.192  15.722  23.684  0.1925 -0.0606 -0.6238
11282W        W54199   1.178  14.281  20.593 -0.0179  0.4307 -0.1418
11283W        W54200   1.303  16.284  25.937  0.4435 -0.2765  0.3073
11284W        W54201   3.947  12.441  22.241 -0.0834 -0.0922  0.0219
11285W        W54202  33.570  17.386  22.998  0.2698  0.5455 -0.1048
11286W        W54203   3.585  17.075  21.461  0.3403 -0.0156  0.0726
11287W        W54204  33.330  14.987  21.558 -0.0091 -0.2435 -0.2686
11288W        W54205   1.877  12.813  20.229  0.0732 -0.1315  0.0451
11289W        W54206   1.406  13.828  23.736 -0.0295  0.1124  0.2949
11290W        W54207   1.933  18.165  20.450  0.2425 -0.3385  0.1625
11291W        W54208   0.631  15.341  24.258 -0.2100  0.1399  0.0307
11292W        W54209   1.200  15.377  22.318 -0.2461 -0.1969  0.2114
11293W        W54210   0.961  17.531  20.174  0.4429 -0.0527 -0.0205
11294W        W54211   3.642  15.765  22.908 -0.0789 -0.1763 -0.0224
11295W        W54212  33.495  14.200  18.866  0.2697 -0.0488 -0.1042
11296W        W54213   1.480  17.407  22.834  0.0715 -0.0746 -0.3334
11297W        W54214   1.412  15.324  23.951 -0.2621  0.0647  0.2613
11298W        W54215   3.872  14.703  22.610 -0.1126  0.0106  0.1687
11299W        W54216   0.512  15.458  21.639  0.2009  0.0307  0.1422
11300W        W54217   2.862  16.268  22.601 -0.2899 -0.0166 -0.1055
11301W        W54218   1.743  15.939  23.530 -0.0447 -0.3576 -0.1392
11302W        W54219   0.423  15.809  23.454  0.2646 -0.1296 -0.1483
11303W        W54220   2.398  16.172  18.503  0.0918 -0.1284  0.4212
11304W        W54221   4.641  14.661  24.503 -0.0470  0.3028 -0.1422
11305W        W54222   3.565  18.041  20.078 -0.0980  0.1670 -0.2239
11306W        W54223   3.874  20.546  22.822  0.1815 -0.1814 -0.0562
11307W        W54224  33.013  15.311  19.491 -0.3319 -0.0704 -0.2623
11308W        W54225   2.810  13.923  21.114 -0.0309 -0.3254  0.1701
11309W        W54226  33.261  15.423  20.883  0.1215  0.2109 -0.0506
11310W        W54227   1.314  17.692  22.413 -0.0709 -0.3072  0.2155
11311W        W54228   2.260  17.762  24.738 -0.0478 -0.1442  0.1834
11312W        W54229   0.883  13.370  22.003 -0.0150 -0.0891  0.0077
11313W        W54230   5.959  15.317  20.907 -0.0354  0.0514  0.0505
11314W        W54231   4.477  14.238  22.166 -0.2151  0.2418 -0.1606
11315W        W54232   1.961  19.509  20.276  0.1879  0.0799 -0.1186
11316W        W54233   1.795  15.867  22.170  0.0704  0.0368  0.0339
11317W        W54234   3.041  18.482  24.735 -0.1813  0.1304 -0.1913
11318W        W54235   4.119  14.641  22.187  0.2283  0.3693  0.2004
11319W        W54236   3.410  16.221  24.679 -0.0571  0.1560  0.2430
11320W        W54237   2.962  17.716  21.254 -0.0279 -0.1525 -0.3956
11321W        W54238   1.649  14.495  20.657  0.1738  0.0218  0.0830
11322W        W54239   1.877  15.474  20.195 -0.0239 -0.1592 -0.2978
11323W        W54240   0.614  18.176  20.266 -0.1905  0.0994 -0.3289
11324W        W54241   3.935  14.215  22.449 -0.0862 -0.0016 -0.1170
11325W        W54242   1.901  14.105  24.255  0.3886 -0.1959  0.0209
11326W        W54243   2.228  18.425  20.846  0.1250 -0.3002  0.1199
11327W        W54244   3.450  12.918  23.787 -0.1431  0.0437  0.0851
11328W        W54245   2.362  16.494  23.305  0.1100  0.1269 -0.0344
11329W        W54246   1.956  18.602  24.021 -0.0777 -0.2285 -0.0906
11330W        W54247  34.448  16.227  20.523  0.3167  0.1492 -0.0396
11331W        W54248  34.577  17.138  23.076 -0.1186 -0.2013 -0.1525
11332W        W54249   0.574  18.175  19.781  0.0595  0.1851 -0.0526
11333W        W54250   1.166  18.009  21.142 -0.1025 -0.1635 -0.0283
11334W        W54251   1.484  16.959  23.264 -0.0328  0.1199  0.2305
11335W        W54252   0.392  14.999  20.581 -0.0983  0.0911 -0.3555
11336W        W54253   3.007  18.232  21.266 -0.1221  0.0535  0.1897
11337W        W54254   0.862  14.616  22.072  0.3294  0.2201 -0.0155
11338W        W54255   3.339  14.650  20.408 -0.0438 -0.0755  0.0645
11339W        W54256   0.957  12.568  21.794  0.0196  0.2249 -0.0128
11340W        W54257   2.580  17.493  23.593  0.4586 -0.0540  0.2365
11341W        W54258  34.513  15.361  20.827  0.0365  0.1658 -0.2205
11342W        W54259   0.837  17.056  20.993 -0.1761  0.0206 -0.1661
11343W        W54260   1.094  16.308  21.477  0.1506  0.2587  0.0690
11344W        W54261   0.556  13.551  24.280 -0.6233 -0.1137 -0.1018
11345W        W54262   1.529  14.771  23.563  0.3741  0.2174  0.2033
11346W        W54263   1.587  14.938  22.615  0.2141 -0.0867 -0.2093
11347W        W54264  34.129  13.149  21.378 -0.0929  0.3180  0.0039
11348W        W54265   2.859  19.159  20.594  0.2532 -0.1159  0.0446
11349W        W54266   0.692  13.974  21.515 -0.0841  0.0921  0.0610
11350W        W54267  33.809  14.366  20.192 -0.1682  0.1592  0.6592
11351W        W54268   3.762  16.215  23.047  0.2555  0.2507  0.0288
11352W        W54269   2.574  16.547  22.235 -0.0901  0.1661 -0.5360
11353W        W54270   2.784  14.297  20.761 -0.2496 -0.0465  0.1662
11354W        W54271   4.438  17.816  26.488 -0.0746  0.2776  0.0930
11355W        W54272  31.737  17.496  19.380 -0.1459 -0.1952 -0.1488
11356W        W54273   4.072  15.374  22.917 -0.2205  0.0102  0.2332
11357W        W54274   1.201  16.285  23.657  0.2444 -0.0007 -0.0737
11358W        W54275  33.879  14.361  21.696  0.1625  0.0561  0.1250
11359W        W54276   1.224  13.455  22.817 -0.0597  0.2879 -0.2135
11360W        W54277   1.203  16.356  20.289  0.0835  0.4267  0.0940
11361W        W54278   2.025  17.101  19.665 -0.1778  0.1912  0.0152
11362W        W54279   2.193  16.832  22.056  0.1851 -0.0673  0.0832
11363W        W54280   2.074  18.677  24.507  0.1922  0.1864  0.0177
11364W        W54281  34.253  15.777  23.752 -0.0288 -0.0069  0.1029
11365W        W54282   4.139  15.190  21.044  0.4177 -0.0453 -0.0275
11366W        W54283   1.204  17.696  24.736  0.1051  0.1759  0.2083
11367W        W54284   5.293  17.079  22.690  0.2128  0.2287  0.0722
11368W        W54285   3.516  15.761  21.568  0.1652 -0.0917  0.0936
11369W        W54286   1.892  15.991  22.639  0.3969 -0.3014  0.2592
11370W        W54287   1.976  14.467  20.987 -0.2336 -0.0616  0.0002
11371W        W54288   2.271  17.266  22.280  0.0746  0.3868 -0.0067
11372W        W54289   3.236  15.806  24.330 -0.1322 -0.0631 -0.2735
11373W        W54290   1.653  14.008  22.223 -0.0588 -0.1420 -0.0330
11374W        W54291   2.931  14.640  22.245  0.0785 -0.3486  0.1496
11375W        W54292   1.652  16.899  19.889  0.0193 -0.0024 -0.0648
11376W        W54293   1.254  14.577  22.438 -0.0057  0.2391 -0.1238
11377W        W54294   1.584  14.543  21.280  0.2252  0.2984 -0.1101
11378W        W54295   1.813  16.910  24.298 -0.3220 -0.5158  0.1229
11379W        W54296   1.162  17.134  21.392  0.0143 -0.1787 -0.0359
11380W        W54297   4.287  16.016  24.767  0.2979  0.0514  0.2571
11381W        W54298   1.661  15.747  23.051  0.3052 -0.1597 -0.2148
11382W        W54299   3.571  16.151  24.210  0.0365 -0.0790  0.0251
11383W        W54300   3.508  17.412  22.509 -0.1706  0.3434  0.1017
11384W        W54301   3.232  17.882  23.319  0.1980 -0.3891 -0.3015
11385W        W54302   3.777  17.105  22.758 -0.0854 -0.3383 -0.3706
11386W        W54303   3.690  16.194  25.042 -0.1624 -0.1792  0.2850
11387W        W54304  34.373  13.754  24.156 -0.1523 -0.1776  0.1046
11388W        W54305   1.524  16.373  21.191 -0.1051 -0.3145 -0.0700
11389W        W54306  34.171  16.312  18.431  0.0597  0.1760 -0.1588
11390W        W54307   2.815  15.371  24.520  0.0119  0.0297  0.2288
11391W        W54308   0.766  14.612  20.518  0.1396  0.2616  0.0352
11392W        W54309   2.285  15.699  20.428  0.0404 -0.3257 -0.0382
11393W        W54310   3.507  16.880  23.814 -0.1340 -0.2105  0.1656
11394W        W54311   2.069  15.598  24.591  0.1163  0.0216  0.0522
11395W        W54312  33.984  16.143  28.221 -0.2237 -0.0666  0.0404
11396W        W54313   0.147  16.082  24.862 -0.0601 -0.1053  0.0497
11397W        W54314   4.979  13.595  24.518 -0.0389 -0.0346 -0.4236
11398W        W54315   0.826  16.357  26.050  0.0005 -0.1729 -0.2585
11399W        W54316   0.736  16.193  24.679  0.0047 -0.1083 -0.0251
11400W        W54317   2.310  17.620  26.017  0.0991 -0.0845 -0.3572
11401W        W54318   1.863  15.385  28.443 -0.1468 -0.1465  0.2185
11402W        W54319   3.671  16.182  25.598  0.1383 -0.1788 -0.0946
11403W        W54320   3.582  17.248  27.734  0.0383 -0.1534  0.3120
11404W        W54321   3.182  16.755  25.026  0.4145 -0.0272 -0.1600
11405W        W54322   1.959  15.927  27.777 -0.0525 -0.2147  0.0460
11406W        W54323   1.592  18.864  27.223 -0.3844 -0.3907  0.1176
11407W        W54324   1.011  13.293  25.238 -0.0397 -0.0845 -0.1496
11408W        W54325   0.303  13.254  25.030  0.0105  0.0567  0.1245
11409W        W54326   3.509  16.261  27.132  0.2125  0.0587  0.0373
11410W        W54327  34.256  16.138  26.048  0.0557 -0.0295  0.0117
11411W        W54328   3.203  16.074  26.807  0.1655 -0.0672 -0.0151
11412W        W54329   1.514  17.320  24.945  0.2173  0.1412  0.0574
11413W        W54330   0.082  19.111  23.649  0.3916  0.2309  0.0196
11414W        W54331   2.139  15.766  27.003 -0.1751  0.2771  0.0241
11415W        W54332   2.368  15.474  28.545 -0.3991 -0.1602  0.2504
11416W        W54333   3.211  16.959  26.933  0.0812 -0.1302 -0.1717
11417W        W54334  34.379  15.957  25.138 -0.1151  0.1230 -0.0076
11418W        W54335  33.867  15.249  25.192 -0.2068 -0.0401 -0.0288
11419W        W54336  34.624  15.415  24.165 -0.0053 -0.1162 -0.1189
11420W        W54337   2.459  15.250  26.154  0.1370  0.0776  0.1634
11421W        W54338   1.412  17.392  26.740 -0.0375 -0.0928 -0.2442
11422W        W54339  32.383  15.989  24.761 -0.1384  0.0611 -0.2134
11423W        W54340   3.479  16.836  26.266 -0.1032  0.0166 -0.1170
11424W        W54341   1.244  15.040  26.693 -0.1593 -0.0688 -0.1296
11425W        W54342  31.774  17.605  26.032  0.1677 -0.1191 -0.1870
11426W        W54343   1.081  19.909  25.935  0.2014 -0.1098 -0.0168
11427W        W54344   0.156  16.938  26.098  0.0960  0.0612 -0.1365
11428W        W54345   4.126  17.497  26.716 -0.0133 -0.0490  0.3771
11429W        W54346   2.940  19.467  28.124 -0.1125 -0.1379 -0.1609
11430W        W54347   1.214  18.616  27.365 -0.0555 -0.3471  0.0333
11431W        W54348   1.861  18.014  23.869  0.1744 -0.0150 -0.0156
11432W        W54349   5.150  18.180  29.521  0.0974  0.1769  0.2632
11433W        W54350   0.105  17.423  26.085  0.0041  0.1277  0.0203
11434W        W54351  34.010  16.278  25.036  0.2821  0.1033  0.0822
11435W        W54352   1.296  14.980  25.788  0.1316  0.0890 -0.3198
11436W        W54353   0.989  16.591  24.568  0.0138  0.0057  0.0876
11437W        W54354   0.834  15.859  26.129  0.0721  0.0787 -0.1680
11438W        W54355   2.605  16.030  29.296 -0.1071  0.2206 -0.1770
11439W        W54356  33.817  16.764  25.003  0.1764 -0.0214  0.0203
11440W        W54357   3.091  14.650  27.733  0.0487 -0.0786  0.0270
11441W        W54358   1.870  17.713  25.008 -0.0440 -0.3893  0.2815
11442W        W54359   4.106  15.543  24.542  0.0072  0.2119 -0.1173
11443W        W54360   1.093  16.221  24.242  0.0098  0.0574 -0.2001
11444W        W54361   2.369  15.359  23.842  0.0634  0.1710 -0.1836
11445W        W54362  34.641  13.611  25.114  0.1523  0.0759  0.0699
11446W        W54363   0.575  17.231  26.714 -0.3539 -0.1164 -0.2005
11447W        W54364   1.218  14.106  26.697 -0.0503  0.1211 -0.1659
11448W        W54365   2.871  15.936  26.490  0.0496 -0.1853  0.2159
11449W        W54366   3.559  14.969  24.150  0.1111 -0.0360  0.0525
11450W        W54367   0.297  17.763  24.862  0.0437  0.1009  0.0440
11451W        W54368   0.075  16.836  28.375 -0.1765  0.1084  0.2505
11452W        W54369  33.693  14.686  23.681 -0.0517  0.0786  0.2585
11453W        W54370   2.934  17.526  25.989  0.0429  0.2300  0.2453
11454W        W54371   3.388  17.481  26.585  0.0918 -0.0479  0.1097
11455W        W54372   3.985  17.888  25.303  0.0015 -0.3362  0.1440
11456W        W54373  33.918  17.036  24.440 -0.0238  0.1067 -0.3526
11457W        W54374  32.761  17.010  28.738 -0.3753  0.1149 -0.1401
11458W        W54375   1.123  15.131  26.214 -0.1444 -0.0515  0.2064
11459W        W54376   1.467  14.400  24.259 -0.2430  0.1589  0.3629
11460W        W54377   3.130  17.197  27.947  0.3972 -0.1187  0.2231
11461W        W54378   1.437  17.434  27.261  0.0703 -0.0280  0.1956
11462W        W54379   3.851  14.584  23.954 -0.0962  0.3933  0.2019
11463W        W54380   0.085  15.583  25.834 -0.1895  0.1010 -0.0090
11464W        W54381   1.515  18.095  24.834 -0.1371 -0.1162 -0.0175
11465W        W54382   2.349  17.535  23.161  0.2816 -0.2433 -0.0694
11466W        W54383   1.797  14.201  23.783 -0.1173  0.1015  0.3463
11467W        W54384   1.598  14.045  26.038 -0.0277 -0.3540 -0.0172
11468W        W54385   1.870  17.336  24.604 -0.0049  0.1765 -0.3566
11469W        W54386   3.258  16.433  25.915 -0.3540 -0.2617  0.3116
11470W        W54387   1.538  18.227  27.266 -0.0527 -0.0624 -0.3361
11471W        W54388   4.437  15.271  23.243 -0.2194 -0.4453 -0.3117
11472W        W54389   0.380  17.643  26.917 -0.1036 -0.0512 -0.0294
11473W        W54390   1.594  15.722  27.005 -0.1276 -0.3707  0.1634
11474W        W54391   2.078  16.533  27.357  0.0249  0.2347 -0.0392
11475W        W54392   1.419  17.254  24.473 -0.0092  0.0634 -0.1133
11476W        W54393  33.983  17.176  27.996 -0.2986 -0.2016 -0.1753
11477W        W54394  33.926  18.647  24.160 -0.2161 -0.0053 -0.0753
11478W        W54395  33.894  15.838  27.843  0.0696 -0.2407 -0.0869
11479W        W54396   1.202  16.141  26.937 -0.2138 -0.1567  0.1735
11480W        W54397   4.436  15.152  24.458 -0.0505  0.0725 -0.1343
11481W        W54398  34.222  13.661  26.765 -0.1706  0.0115  0.0421
11482W        W54399   2.956  15.354  25.034 -0.1057 -0.3440  0.0593
11483W        W54400  33.045  16.575  24.737  0.2505  0.1103 -0.1167
11484W        W54401   1.476  17.139  26.305  0.1480 -0.0679 -0.1742
11485W        W54402   3.983  15.702  25.053 -0.1109 -0.0232  0.3903
11486W        W54403   2.845  17.048  24.761  0.1422  0.3418 -0.2417
11487W        W54404  34.160  16.687  24.121 -0.3000  0.0392 -0.2543
11488W        W54405   0.447  16.352  25.091  0.1616  0.1337 -0.1534
11489W        W54406   0.708  15.835  26.781  0.0865  0.4682 -0.2457
11490W        W54407  34.344  14.598  26.992 -0.1204 -0.1639 -0.0243
11491W        W54408   3.661  17.069  26.767 -0.0870  0.1607  0.3187
11492W        W54409   0.441  15.325  25.082 -0.2131  0.1566 -0.1255
11493W        W54410   3.559  16.684  24.756 -0.5678  0.1022 -0.0913
11494W        W54411   1.214  15.427  24.769  0.3464  0.0797  0.0448
11495W        W54412  34.489  16.992  24.380  0.3204  0.0573  0.1667
11496W        W54413   2.743  15.713  27.056  0.4472  0.0128  0.1529
11497W        W54414   1.027  18.106  25.008 -0.3178  0.3143 -0.0291
11498W        W54415   3.716  18.903  27.356  0.2335 -0.0704 -0.1873
11499W        W54416   2.494  16.869  26.024  0.3489  0.0921  0.3135
11500W        W54417   0.886  16.467  25.400  0.3470  0.1781  0.2243
11501W        W54418   0.701  15.456  23.766 -0.2007 -0.1687  0.4578
11502W        W54419  34.494  16.498  24.588  0.3027  0.1965 -0.1568
11503W        W54420   1.153  16.817  25.072  0.2023 -0.1919  0.2363
11504W        W54421   0.720  14.819  24.318 -0.3065 -0.4692  0.2303
11505W        W54422   4.751  18.355  24.118  0.4953  0.0165 -0.0260
11506W        W54423   0.951  18.120  26.409  0.3372  0.0627  0.3281
11507W        W54424  33.552  16.632  27.470  0.0830  0.1219 -0.4883
11508W        W54425   3.630  13.824  25.911  0.0605  0.0850 -0.2281
11509W        W54426   4.821  14.739  27.010 -0.0336  0.1338  0.2878
11510W        W54427   2.533  17.646  25.234  0.1015 -0.1585  0.3008
11511W        W54428   0.973  14.301  25.574  0.1233 -0.2415  0.2133
11512W        W54429   2.976  16.506  24.451 -0.2207  0.3349  0.1286
11513W        W54430   0.093  19.573  25.790 -0.0068 -0.2802 -0.1017
11514W        W54431  33.724  15.741  25.220  0.0283  0.0397 -0.0556
11515W        W54432   0.661  16.826  24.872  0.1164 -0.1228  0.2954
11516W        W54433   2.728  15.705  27.555  0.4465 -0.1361 -0.3374
11517W        W54434  34.606  16.831  27.035 -0.1348  0.0076 -0.2417
11518W        W54435   0.428  14.762  27.435  0.0332 -0.3205  0.0490
11519W        W54436  34.110  14.181  24.118 -0.0370 -0.1025 -0.1488
11520W        W54437   1.799  16.069  27.257 -0.0602  0.1065 -0.0975
11521W        W54438   1.508  13.713  24.496  0.1754 -0.0628 -0.0658
11522W        W54439   4.019  13.905  24.922  0.0556 -0.0751  0.1320
11523W        W54440   2.369  15.776  26.468 -0.1325  0.1171  0.0673
11524W        W54441   3.810  17.094  24.198 -0.2023 -0.2010 -0.0498
11525W        W54442   2.866  16.060  24.636 -0.2648  0.0667  0.0858
11526W        W54443   2.192  17.167  24.142  0.0281  0.2651 -0.0452
11527W        W54444   0.615  16.831  26.409 -0.1075  0.2279  0.2944
11528W        W54445   1.224  16.704  25.691  0.1350 -0.0515  0.1790
11529W        W54446   0.754  16.989  25.397  0.1968  0.1739  0.1905
11530W        W54447   2.555  15.690  24.845  0.0294  0.1697 -0.3695
11531W        W54448   2.029  19.252  24.427 -0.0525 -0.3289 -0.0533
11532W        W54449   0.353  15.792  26.354  0.0927 -0.2187  0.0707
11533W        W54450   1.701  16.647  25.918 -0.0875 -0.2930 -0.3731
11534W        W54451   3.543  17.388  27.246 -0.2254  0.0144  0.0172
11535W        W54452   1.046  14.606  26.804 -0.4783  0.0023  0.0319
11536W        W54453   1.256  14.910  24.976 -0.0746 -0.3002  0.2325
11537W        W54454   1.333  14.656  25.390 -0.0665 -0.0106 -0.2446
11538W        W54455   0.777  17.016  24.431 -0.0288 -0.1557 -0.1956
11539W        W54456   3.973  13.989  28.335  0.0501 -0.0737 -0.1139
11540W        W54457  34.648  14.528  25.354 -0.0554  0.1239  0.0300
11541W        W54458   1.940  14.973  27.564  0.0827 -0.2468 -0.1607
11542W        W54459   4.453  16.434  26.852  0.0293  0.2119  0.3440
11543W        W54460   1.959  16.482  25.491 -0.2164 -0.4084  0.0424
11544W        W54461   0.413  17.184  27.163 -0.1850 -0.2344 -0.1492
11545W        W54462   0.650  16.513  24.083  0.2801  0.2405 -0.0131
11546W        W54463   2.867  14.761  27.276 -0.0832 -0.0298 -0.0184
11547W        W54464   0.491  17.946  25.322 -0.0653 -0.0132  0.0912
11548W        W54465  33.585  17.514  25.747 -0.0546  0.2182  0.1716
11549W        W54466   4.689  17.412  26.718 -0.2551  0.0660  0.1696
11550W        W54467   1.116  17.579  27.629  0.0496  0.1274 -0.0521
11551W        W54468   0.969  17.215  28.494 -0.0148 -0.0121  0.2244
11552W        W54469   1.134  15.189  24.323  0.0121 -0.2388 -0.0984
11553W        W54470   1.424  16.688  22.797 -0.2336  0.1130 -0.1432
11554W        W54471   1.008  17.440  24.264  0.1237  0.1453  0.1294
11555W        W54472  34.511  15.182  27.552  0.1526 -0.2480 -0.2438
11556W        W54473   0.620  17.270  26.109  0.0518  0.3510  0.1500
11557W        W54474   1.635  16.538  23.944 -0.0659  0.0531 -0.1213
11558W        W54475   1.615  17.117  25.807  0.2600 -0.2215 -0.0876
11559W        W54476  32.892  18.346  25.944 -0.2015 -0.2590 -0.2519
11560W        W54477   4.171  14.364  26.234 -0.2399  0.0977  0.0012
11561W        W54478  34.055  18.133  25.170  0.2297  0.0321 -0.0835
11562W        W54479  33.404  16.212  21.813  0.0335 -0.1955  0.2237
11563W        W54480  34.221  16.265  23.668 -0.2088 -0.0503  0.0283
11564W        W54481   3.469  13.847  23.593 -0.0410 -0.0291 -0.2416
11565W        W54482   3.240  14.512  24.775 -0.1024  0.0049  0.2100
11566W        W54483  34.510  17.853  25.963 -0.0180  0.1567  0.1047
11567W        W54484   0.929  15.420  25.876 -0.2311 -0.0851 -0.1954
11568W        W54485  33.985  16.915  26.229  0.3204 -0.0920  0.2686
11569W        W54486   1.045  15.910  25.668 -0.0409 -0.1760  0.0632
11570W        W54487   2.247  15.271  25.192 -0.4321 -0.3963  0.0542
11571W        W54488   2.276  17.123  27.290 -0.2445 -0.0682 -0.0819
11572W        W54489   2.460  16.069  27.908  0.0766 -0.0106  0.3138
11573W        W54490  34.342  17.214  22.500 -0.0252 -0.0456  0.2494
11574W        W54491   2.326  16.063  27.417 -0.1529  0.1068 -0.2003
11575W        W54492   1.882  16.932  24.908  0.2784  0.0681 -0.0651
11576W        W54493  34.326  18.849  25.737  0.0814 -0.1954 -0.0735
11577W        W54494   3.766  18.389  26.738 -0.3132 -0.0954 -0.1207
11578W        W54495   1.018  17.872  25.589 -0.1190 -0.1222 -0.1813
11579W        W54496   0.320  16.775  25.283 -0.0556 -0.2918  0.0245
11580W        W54497  32.988  16.461  26.264  0.1662  0.0867 -0.0829
11581W        W54498   3.158  15.534  26.761  0.0742 -0.1917  0.0675
11582W        W54499   3.370  15.343  25.459 -0.1896 -0.0131  0.1638
11583W        W54500   0.042  15.845  23.758 -0.0408  0.2829 -0.1638
11584W        W54501   1.200  13.855  24.995  0.0334 -0.1859 -0.3667
11585W        W54502   2.490  16.413  24.301 -0.0957  0.2605 -0.0594
11586W        W54503   1.526  15.341  25.935  0.3389  0.1269  0.0471
11587W        W54504  34.208  15.896  27.093  0.1442  0.2088  0.0965
11588W        W54505   0.027  12.662  26.911 -0.0019  0.0156 -0.2429
11589W        W54506   3.567  17.943  26.999  0.1636  0.0829  0.0272
11590W        W54507   0.621  17.104  28.072  0.2849 -0.3350  0.1642
11591W        W54508   0.082  16.255  23.382 -0.1870  0.0338 -0.0905
11592W        W54509   0.221  15.071  25.482  0.2667  0.4229 -0.1471
11593W        W54510   0.477  18.555  25.676 -0.4371  0.1926 -0.0087
11594W        W54511   2.210  16.491  25.913  0.1101  0.1973 -0.0698
11595W        W54512   2.264  17.553  26.999 -0.2908 -0.2150 -0.0854
11596W        W54513   1.514  17.813  24.241 -0.1041 -0.0623  0.4907
11597W        W54514  33.658  17.041  28.335 -0.4036  0.0329  0.2695
11598W        W54515   3.840  15.135  24.594 -0.0800  0.2091 -0.1951
11599W        W54516   2.263  15.879  23.717  0.2549 -0.0049 -0.2348
11600W        W54517   0.505  12.399  25.168 -0.1248  0.2006  0.0673
11601W        W54518   3.495  14.284  27.638  0.0739  0.2192  0.0557
11602W        W54519   3.322  17.376  24.054 -0.0680 -0.1310  0.1055
11603W        W54520   1.905  15.734  26.049  0.0489  0.1629  0.1951
11604W        W54521   1.449  16.277  25.438  0.1498 -0.0330 -0.2878
11605W        W54522   3.489  18.447  24.998 -0.0230 -0.2140  0.1154
11606W        W54523   1.320  15.556  26.592  0.0479 -0.1139 -0.0126
11607W        W54524   3.581  18.350  28.762  0.1978 -0.1521 -0.3057
11608W        W54525   2.521  16.727  27.088 -0.3362 -0.3345 -0.0337
11609W        W54526   1.652  14.393  26.443  0.1868 -0.1357 -0.0437
11610W        W54527   0.552  14.310  23.603  0.1007 -0.0070 -0.2211
11611W        W54528   0.766  15.332  26.544  0.4668 -0.2920  0.1788
11612W        W54529   4.095  17.280  24.748  0.2070  0.0387  0.1276
11613W        W54530   1.584  15.528  24.337 -0.0384 -0.0002  0.2838
11614W        W54531   2.917  14.480  25.276  0.1077  0.0901 -0.0442
11615W        W54532  34.339  17.240  26.224 -0.2271 -0.2171 -0.0449
11616W        W54533   3.002  15.947  25.980  0.1588  0.1656  0.0396
11617W        W54534   1.501  18.035  23.494 -0.0183  0.1419 -0.1058
11618W        W54535   1.356  15.859  25.136 -0.1124  0.3455 -0.0945
11619W        W54536   1.518  15.206  28.759  0.1270  0.0059  0.1597
11620W        W54537   4.747  15.200  27.129  0.0155  0.1243  0.0035
11621W        W54538   4.347  13.257  25.556  0.0181 -0.2808  0.0155
11622W        W54539   1.867  15.582  27.426  0.0226 -0.3399 -0.0126
11623W        W54540   2.699  14.733  25.681  0.2396 -0.2302  0.0293
11624W        W54541   2.149  15.491  27.964  0.1025  0.1632  0.1528
11625W        W54542   0.467  13.941  26.958 -0.2537  0.1944  0.2581
11626W        W54543   2.247  17.373  25.579  0.0417  0.1380 -0.0741
11627W        W54544   2.896  15.676  22.411 -0.1203 -0.1455  0.2149
11628W        W54545   2.679  16.228  25.782 -0.2735 -0.2375  0.1534
11629W        W54546   4.495  16.041  25.513 -0.1605 -0.0841  0.0809
11630W        W54547   3.840  15.086  25.395 -0.2063 -0.2506 -0.2629
11631W        W54548  34.430  14.685  24.883 -0.0428  0.0469 -0.0115
11632W        W54549   2.570  15.594  25.425 -0.1951 -0.0383  0.0058
11633W        W54550   0.036  14.708  24.451  0.1907  0.1304 -0.0561
11634W        W54551   4.950  14.219  28.132  0.1245  0.1644 -0.0388
11635W        W54552   0.032  20.069  25.761 -0.2360  0.0725  0.0407
11636W        W54553  33.602  18.338  25.193  0.0824  0.1645 -0.0201
11637W        W54554   0.756  13.865  24.738  0.3380 -0.1740 -0.3416
11638W        W54555   0.691  14.646  25.258  0.1489  0.1826  0.2855
11639W        W54556   0.685  17.716  27.336  0.0344  0.1940  0.2124
11640W        W54557  34.452  14.539  23.421  0.1286 -0.1435 -0.1322
11641W        W54558   3.120  15.042  23.101 -0.1236 -0.0336 -0.0873
11642W        W54559   1.736  14.952  25.339 -0.3165  0.0426 -0.4476
11643W        W54560   3.433  16.775  27.918 -0.0355 -0.2349 -0.0661
11644W        W54561   0.327  13.638  24.708 -0.0182  0.0284  0.0783
11645W        W54562   4.493  15.932  27.373 -0.2934  0.1480  0.3007
11646W        W54563  34.433  18.965  26.311  0.1954 -0.0896 -0.0033
11647W        W54564   2.456  13.145  26.556  0.0145 -0.0916 -0.0992
11648W        W54565  34.146  15.643  25.973  0.4055 -0.0942  0.3600
11649W        W54566  32.627  17.398  26.202  0.0072  0.2630  0.2686
11650W        W54567  32.792  17.476  25.706 -0.0577 -0.2679 -0.0772
11651W        W54568   2.725  16.231  27.021  0.0559 -0.1352 -0.0344
11652W        W54569   3.429  15.618  26.372 -0.1318  0.0246 -0.1175
11653W        W54570   3.367  17.929  25.262  0.3736  0.0422 -0.4609
11654W        W54571   6.007  18.138  26.393 -0.3830  0.2733  0.2111
11655W        W54572   2.880  17.589  26.506 -0.0460  0.2144  0.1791
11656W        W54573  33.687  15.639  23.209 -0.2106  0.2011 -0.1531
11657W        W54574   3.268  18.606  27.599  0.1469 -0.0210 -0.0809
11658W        W54575   2.934  16.099  24.082 -0.1547  0.2497  0.1567
11659W        W54576   1.216  16.333  24.950  0.1535 -0.0126 -0.2805
11660W        W54577  34.587  14.626  27.474  0.1637 -0.3336 -0.0874
11661W        W54578   4.100  15.175  27.163  0.1166 -0.0628  0.5341
11662W        W54579   0.326  16.561  25.718 -0.3602 -0.1241 -0.4658
11663W        W54580   2.683  14.133  23.707 -0.0641  0.1047 -0.0982
11664W        W54581   2.930  17.071  24.234 -0.0712 -0.1770  0.0601
11665W        W54582   0.937  17.004  30.450 -0.0889 -0.0828  0.1707
11666W        W54583  34.278  17.008  26.636 -0.0047  0.2775  0.0043
11667W        W54584   0.238  17.902  22.993  0.3432 -0.0749 -0.0468
11668W        W54585   3.786  18.014  24.850  0.1702 -0.0890 -0.1169
11669W        W54586   2.994  16.558  25.472 -0.1645 -0.2174  0.1874
11670W        W54587   0.137  18.073  24.330 -0.2039 -0.2916 -0.0455
11671W        W54588   1.242  14.821  23.994 -0.0078 -0.0784  0.0446
11672W        W54589  34.380  17.385  25.748  0.0905 -0.6407 -0.0375
11673W        W54590  32.334  17.130  24.434 -0.0118  0.4475  0.1985
11674W        W54591   4.012  16.458  26.587 -0.1838 -0.0799 -0.1695
11675W        W54592  34.251  18.338  26.962 -0.0723 -0.0567 -0.3064
11676W        W54593   4.844  16.022  26.902 -0.0244  0.3685 -0.3230
11677W        W54594   1.088  13.776  24.173  0.2056 -0.0789  0.1283
11678W        W54595   5.310  15.722  25.660 -0.0068  0.2386 -0.0049
11679W        W54596   3.869  13.995  25.428  0.0278  0.1599 -0.5158
11680W        W54597   2.106  16.875  27.781 -0.2558  0.0057 -0.1079
11681W        W54598  34.556  16.836  25.667  0.0806 -0.0994 -0.1289
11682W        W54599   1.641  14.190  24.653 -0.1430  0.2435  0.1542
11683W        W54600   0.977  16.864  26.829 -0.0935 -0.2957 -0.1833
11684W        W54601   3.399  14.832  29.106 -0.0372 -0.1170 -0.1233
11685W        W54602  34.022  17.231  25.278 -0.1645 -0.1258  0.1636
11686W        W54603   2.095  19.315  26.218  0.2260  0.0132 -0.0381
11687W        W54604   0.281  15.070  24.137 -0.0456 -0.0280  0.0375
11688W        W54605   2.560  13.794  25.676  0.1057  0.1753 -0.0257
11689W        W54606   2.873  15.468  25.985  0.1913  0.2703 -0.0296
11690W        W54607   1.117  17.293  25.373 -0.0182 -0.3956  0.0837
11691W        W54608   1.591  14.999  24.377 -0.0920  0.1587  0.0394
11692W        W54609   0.120  18.706  26.038 -0.0823  0.0646  0.0394
11693W        W54610   1.483  17.728  26.295 -0.1478  0.1403  0.0070
11694W        W54611  34.483  18.483  26.558 -0.1467  0.0342  0.2158
11695W        W54612   1.203  15.925  24.633  0.0110 -0.0365 -0.0202
11696W        W54613   3.549  14.968  25.806  0.1260 -0.0958  0.3115
11697W        W54614   0.133  15.629  24.636 -0.1376  0.4360  0.1100
11698W        W54615   3.197  15.793  24.882 -0.1801 -0.0470 -0.0973
11699W        W54616   0.708  17.467  25.626 -0.5244  0.0678 -0.0375
11700W        W54617   4.330  15.218  25.858  0.1769 -0.0879  0.0769
11701W        W54618   1.156  16.759  26.167 -0.0470 -0.2276 -0.1021
11702W        W54619   0.926  15.486  25.103 -0.1465 -0.3829  0.0429
11703W        W54620   2.504  16.166  25.239 -0.1934  0.1604  0.0914
11704W        W54621   4.948  17.546  27.778  0.2828  0.0090  0.2684
11705W        W54622   1.673  15.861  24.750 -0.1994  0.1318 -0.0455
11706W        W54623   2.627  18.072  28.240  0.1103 -0.1551 -0.1744
11707W        W54624  34.456  16.620  26.120  0.4040  0.1963 -0.3385
11708W        W54625   1.810  16.040  25.248  0.0497 -0.1093 -0.0964
11709W        W54626  33.938  16.420  24.530 -0.2486 -0.1293  0.2756
11710W        W54627   1.244  14.406  24.986 -0.3136 -0.0909  0.1414
11711W        W54628   5.636  17.019  27.957  0.3936  0.2279 -0.0621
11712W        W54629   1.039  13.377  25.754 -0.1657  0.0872 -0.2970
11713W        W54630   3.962  16.425  23.966  0.0098  0.1578 -0.1329
11714W        W54631   5.367  15.314  24.907 -0.3562 -0.4416 -0.2492
11715W        W54632   0.081  17.711  23.843  0.2229 -0.2167 -0.1013
11716W        W54633  34.499  18.569  25.157  0.0948  0.0734 -0.0878
11717W        W54634   4.326  18.241  26.206  0.0215 -0.3549 -0.4527
11718W        W54635  33.410  15.340  26.597 -0.0055  0.0840  0.1556
11719W        W54636   1.141  17.054  27.573 -0.3161  0.0471 -0.0937
11720W        W54637   4.303  16.934  26.791  0.1374 -0.0787 -0.2762
11721W        W54638   1.732  15.448  25.111  0.2554  0.1207 -0.1571
11722W        W54639   0.853  14.172  25.115  0.1741  0.1487  0.6015
11723W        W54640  33.487  17.990  24.272  0.2129 -0.0279  0.0625
11724W        W54641   3.700  14.789  27.750 -0.2434 -0.1083 -0.0717
11725W        W54642   3.001  15.001  26.863 -0.0205 -0.0625  0.0983
11726W        W54643   1.670  17.280  23.994 -0.0343  0.4770 -0.0503
11727W        W54644   3.927  16.024  26.221 -0.1078 -0.0324  0.0573
11728W        W54645   2.394  19.022  27.874 -0.1921  0.1056 -0.0245
11729W        W54646   1.712  19.000  27.799 -0.0114  0.0608  0.1824
11730W        W54647  32.407  16.095  24.205  0.1065 -0.1003 -0.3408
11731W        W54648   2.750  18.314  26.622 -0.0277 -0.2143 -0.4635
11732W        W54649   0.066  17.440  24.513  0.0307  0.1066  0.1351
11733W        W54650  34.373  18.407  24.342  0.2169 -0.1036 -0.1793
11734W        W54651   3.564  17.289  26.107  0.1573 -0.1776  0.2376
11735W        W54652  34.049  16.557  25.836 -0.1548  0.1136 -0.1042
11736W        W54653   3.539  18.457  27.195 -0.2300  0.0695 -0.1098
11737W        W54654   0.279  13.911  26.127 -0.1433 -0.0707 -0.1172
11738W        W54655   4.306  13.604  24.569  0.2754  0.1495  0.0799
11739W        W54656   1.003  14.594  23.452  0.2423 -0.2498 -0.4885
11740W        W54657   0.918  17.307  27.069  0.2747 -0.0918 -0.1570
11741W        W54658  32.877  17.686  24.156 -0.2562  0.3459 -0.1176
11742W        W54659   0.827  19.818  25.328 -0.1533 -0.1171 -0.1886
11743W        W54660   0.170  17.019  24.804  0.2336  0.1885  0.1768
11744W        W54661   2.528  17.353  28.455 -0.3026  0.2953  0.3330
11745W        W54662  34.062  15.996  25.520  0.2064  0.5092 -0.0813
11746W        W54663   0.346  16.856  27.643  0.2188  0.0398 -0.2086
11747W        W54664  34.097  14.666  24.434 -0.0698  0.3141  0.0031
11748W        W54665   1.972  18.352  25.518  0.0310  0.0577  0.0712
11749W        W54666  34.190  14.912  26.594 -0.1727  0.3890 -0.1832
11750W        W54667   0.337  14.923  25.939 -0.1044  0.0151 -0.0888
11751W        W54668   0.911  17.542  28.086  0.0985 -0.3949 -0.2697
11752W        W54669   1.540  16.261  24.474  0.0385  0.3236 -0.0030
11753W        W54670   0.881  14.438  23.946  0.1054 -0.2167 -0.0619
11754W        W54671   4.177  18.755  27.619  0.2272 -0.0147 -0.0042
11755W        W54672  33.968  14.433  23.284  0.0405 -0.0552  0.1502
11756W        W54673   0.642  17.610  28.811 -0.1112 -0.0700  0.1993
11757W        W54674   0.345  14.888  26.631  0.3532 -0.1101  0.1897
11758W        W54675  34.369  15.851  21.758  0.0166  0.0643 -0.0847
11759W        W54676   1.128  17.201  25.910  0.0766 -0.2719 -0.0433
11760W        W54677   3.529  15.833  25.296 -0.0140 -0.0741 -0.4503
11761W        W54678   2.856  16.471  26.252  0.2001 -0.2211 -0.2834
11762W        W54679   1.370  18.796  26.650 -0.6416  0.0162  0.0250
11763W        W54680   1.389  16.935  27.117  0.3220 -0.0086 -0.0395
11764W        W54681  34.165  13.789  27.256  0.0372 -0.1508  0.1630
11765W        W54682   2.069  17.081  26.079 -0.0434 -0.0602  0.3049
11766W        W54683   3.080  17.147  27.468 -0.0422 -0.1658 -0.0275
11767W        W54684   3.005  13.742  25.488 -0.3140 -0.2027  0.1309
11768W        W54685   1.575  15.824  25.670 -0.1597  0.0617  0.1431
11769W        W54686   1.801  16.161  25.916 -0.1697 -0.0595  0.1699
11770W        W54687  34.203  15.470  26.492 -0.1935 -0.0855 -0.0394
11771W        W54688   1.892  18.052  27.959 -0.0872 -0.2893 -0.1430
11772W        W54689   5.232  14.984  27.014  0.2303  0.4408  0.0159
11773W        W54690  34.129  13.807  25.011  0.1027 -0.3453  0.0973
11774W        W54691   3.077  15.217  23.629 -0.2051 -0.2564 -0.0662
11775W        W54692   2.530  16.598  25.549 -0.2214 -0.0005 -0.0680
11776W        W54693  33.470  18.659  26.659  0.1706 -0.0986 -0.2809
11777W        W54694   1.762  15.144  23.064 -0.0266 -0.1111  0.0981
11778W        W54695   2.742  16.345  27.515  0.3668  0.0751  0.2522
11779W        W54696   3.073  16.534  26.690 -0.0340 -0.1487  0.2317
11780W        W54697   0.703  18.142  25.884  0.1209 -0.4209  0.1240
11781W        W54698   0.647  14.226  24.406  0.1200 -0.4594 -0.5303
11782W        W54699   5.311  16.666  24.202  0.0225  0.0814  0.2009
11783W        W54700   3.215  17.973  26.662 -0.0023 -0.0454 -0.1131
11784W        W54701   3.367  17.671  28.027  0.0398 -0.1565 -0.2886
11785W        W54702   2.895  19.254  27.130 -0.1919 -0.2281 -0.1407
11786W        W54703   4.800  15.610  25.596 -0.1407  0.0217  0.3740
11787W        W54704   2.576  13.969  26.285  0.0817 -0.0500  0.1511
11788W        W54705   0.851  17.611  25.098  0.1081 -0.1119 -0.0912
11789W        W54706  33.463  16.643  26.318 -0.1191  0.1771  0.0590
11790W        W54707   2.279  16.287  26.782 -0.2208 -0.0859 -0.0417
11791W        W54708   0.826  15.051  24.802  0.1263  0.2891 -0.1493
11792W        W54709   2.880  14.023  24.662  0.1873 -0.2047  0.3366
11793W        W54710   0.930  19.615  26.910 -0.0614 -0.2799  0.1016
11794W        W54711  34.569  17.318  26.992 -0.0255  0.3709 -0.1914
11795W        W54712   1.769  17.161  30.745 -0.0575  0.0796 -0.3098
11796W        W54713  34.373  17.218  28.442  0.1121 -0.1194  0.2941
11797W        W54714   1.984  15.288  26.274  0.1068 -0.1631 -0.2073
11798W        W54715   2.599  16.476  29.531 -0.2194 -0.0841 -0.2770
11799W        W54716  33.699  16.957  29.323 -0.2120 -0.2849  0.1286
11800W        W54717   2.587  18.819  30.152 -0.0507 -0.0042  0.1796
11801W        W54718   0.610  15.768  27.250 -0.1751 -0.1984  0.1604
11802W        W54719   2.366  17.745  29.387 -0.1707 -0.1482  0.2463
11803W        W54720   3.876  18.823  30.866 -0.2059 -0.0123 -0.0483
11804W        W54721  34.530  17.582  27.958 -0.3008  0.0324  0.4323
11805W        W54722   1.447  16.152  29.316 -0.1618 -0.0605 -0.0599
11806W        W54723   1.183  15.524  27.891  0.4607 -0.2484 -0.0810
11807W        W54724   1.796  14.793  27.071  0.1134  0.1229  0.1463
11808W        W54725   1.128  14.671  29.479 -0.3987 -0.2619 -0.0067
11809W        W54726   2.727  14.870  30.695 -0.1502  0.0137  0.0967
11810W        W54727   0.500  16.648  28.163  0.0921 -0.1489 -0.0753
11811W        W54728   2.100  14.984  29.474  0.1450 -0.1879 -0.0934
11812W        W54729   2.079  15.348  29.030  0.3569 -0.3838 -0.0617
11813W        W54730   2.331  18.398  29.512 -0.0464  0.2421 -0.0068
11814W        W54731   2.062  14.617  29.809  0.0151  0.1830 -0.0745
11815W        W54732   1.760  14.878  30.278  0.1904  0.0668 -0.0357
11816W        W54733   4.847  17.288  28.215  0.3024  0.0974  0.1767
11817W        W54734  33.031  16.758  26.697  0.0558 -0.2349 -0.0432
11818W        W54735   0.111  15.935  27.274  0.2616  0.1738 -0.2343
11819W        W54736   0.860  16.951  29.515 -0.1231 -0.0084  0.0592
11820W        W54737   3.137  15.122  29.698 -0.0099 -0.3546 -0.3697
11821W        W54738   3.316  16.894  30.532  0.3069 -0.0279 -0.0941
11822W        W54739   1.995  19.775  29.316  0.1628 -0.1007 -0.1376
11823W        W54740   2.613  17.622  31.035  0.1130 -0.0822  0.2705
11824W        W54741   3.034  16.792   1.508 -0.3718 -0.1867 -0.0064
11825W        W54742   1.398  17.577  28.090 -0.1386 -0.1028 -0.1112
11826W        W54743  34.648  18.658  28.359 -0.2938  0.1589 -0.1305
11827W        W54744   3.111  18.138  27.163 -0.2206  0.2592  0.0846
11828W        W54745   2.927  16.658  27.871 -0.0559  0.2678 -0.3073
11829W        W54746   2.920  16.340   0.257 -0.0233 -0.0201  0.3286
11830W        W54747   0.706  18.480  31.599 -0.0029  0.1251  0.0835
11831W        W54748   2.235  19.404  30.224  0.2530 -0.1533 -0.0898
11832W        W54749   1.177  16.253  28.612 -0.0710  0.0386 -0.1550
11833W        W54750   0.307  16.116  29.656 -0.2624 -0.2231 -0.2192
11834W        W54751   3.307  17.631  28.807 -0.1483  0.2395 -0.0405
11835W        W54752   2.925  15.152  29.169  0.0421  0.0286 -0.2077
11836W        W54753   2.571  19.315  26.222  0.2910 -0.0480 -0.0013
11837W        W54754   1.271  19.632  30.321  0.1245  0.1498 -0.3552
11838W        W54755   2.575  16.500  30.084 -0.1951 -0.2908  0.0576
11839W        W54756  34.241  15.222  29.617 -0.0141  0.0120  0.1934
11840W        W54757   2.994  15.721  29.311 -0.1842  0.1747  0.0874
11841W        W54758   2.024  18.116  27.451 -0.0597 -0.2633  0.0204
11842W        W54759   3.525  16.576  26.713 -0.1758  0.5101  0.2081
11843W        W54760   1.930  13.112  29.535  0.1284 -0.2854 -0.2169
11844W        W54761   4.365  16.287  28.247 -0.1793  0.1000  0.1988
11845W        W54762   3.543  14.877  29.626  0.0551  0.0902  0.4009
11846W        W54763   0.281  17.285  28.899  0.0900 -0.1413 -0.2086
11847W        W54764   3.340  17.921  30.385  0.1321  0.1866 -0.1691
11848W        W54765   4.348  16.768  31.426 -0.1238  0.0306 -0.2203
11849W        W54766   1.691  15.403  27.845  0.2778 -0.0469 -0.2489
11850W        W54767   2.793  16.740  30.482 -0.2177 -0.3857  0.3681
11851W        W54768   0.633  17.799  29.687  0.0102 -0.2225  0.2749
11852W        W54769   1.260  17.157  29.075 -0.1677  0.0733  0.3785
11853W        W54770   3.709  20.044  27.565 -0.1339  0.2343  0.0193
11854W        W54771   2.644  17.451  29.712  0.0890  0.1685  0.1164
11855W        W54772   1.979  20.283  28.057 -0.4372  0.2206 -0.1215
11856W        W54773   2.945  15.976  27.954  0.0860  0.0775  0.0135
11857W        W54774   0.514  15.534  29.545  0.0757 -0.1564 -0.3072
11858W        W54775   1.519  15.018  29.256  0.0228  0.0885 -0.1666
11859W        W54776   1.374  15.297  27.244  0.0576 -0.2019 -0.3688
11860W        W54777   3.382  17.007  31.101  0.2185  0.0893 -0.0730
11861W        W54778  34.291  16.128  30.438 -0.1214 -0.1381 -0.3001
11862W        W54779   3.860  16.636  30.349  0.0977 -0.0306 -0.0467
11863W        W54780   1.199  18.038  28.015  0.3805  0.0747  0.0186
11864W        W54781   3.223  18.109   0.106 -0.1674  0.0331 -0.1192
11865W        W54782   3.065  17.603  27.115 -0.1713 -0.0950  0.2649
11866W        W54783   3.139  14.670  30.477 -0.2908  0.1158  0.0005
11867W        W54784   3.164  15.861  30.209 -0.0798 -0.1204 -0.0342
11868W        W54785   0.040  16.073  27.758  0.2830  0.3289 -0.0679
11869W        W54786   1.945  16.395  28.031 -0.1767 -0.0222 -0.1412
11870W        W54787   1.885  17.870  31.674 -0.0884  0.1020 -0.0356
11871W        W54788   2.033  17.001  25.376 -0.0904 -0.0127 -0.1415
11872W        W54789  34.447  16.855  29.439  0.2014  0.0069 -0.2522
11873W        W54790   1.522  16.161  31.102 -0.0070  0.2468  0.1320
11874W        W54791   2.009  17.309  30.249  0.0699 -0.0701  0.1043
11875W        W54792   2.099  18.244  28.433  0.0682 -0.0458  0.1722
11876W        W54793   4.554  16.769  29.132  0.2763  0.2240  0.0259
11877W        W54794  32.988  17.947  26.231  0.0684  0.1641  0.2274
11878W        W54795  34.194  13.615  28.771  0.0645 -0.0100 -0.0733
11879W        W54796   1.037  16.286  29.133 -0.3582 -0.1295  0.2899
11880W        W54797   1.518  16.347  27.645  0.1897  0.0709  0.0220
11881W        W54798   1.030  14.555   0.513 -0.1043 -0.2678  0.0122
11882W        W54799   4.144  17.133  28.976 -0.3092  0.1041  0.1339
11883W        W54800   2.015  16.362  28.958 -0.1076 -0.1741  0.0137
11884W        W54801   2.383  18.609  26.937 -0.0029 -0.0143  0.2044
11885W        W54802   5.364  17.422  28.068 -0.0181  0.2724 -0.2943
11886W        W54803   3.779  17.427  25.462 -0.0745  0.2409  0.0753
11887W        W54804  33.143  16.152  30.478 -0.0774  0.0626 -0.2897
11888W        W54805   1.280  15.854  28.836 -0.2115 -0.3396 -0.0992
11889W        W54806   0.550  15.524  31.047  0.0313  0.0408 -0.3852
11890W        W54807   1.099  15.401  29.004  0.1641 -0.1047 -0.0299
11891W        W54808   2.554  17.819  30.259  0.0542 -0.1862  0.1294
11892W        W54809   0.575  15.043  28.717  0.2344 -0.1443  0.1302
11893W        W54810   2.259  16.359  28.464 -0.0913  0.1717 -0.0809
11894W        W54811   1.841  16.682  29.293 -0.2427  0.1301 -0.3215
11895W        W54812  34.549  16.336  29.002 -0.0491 -0.2178 -0.1567
11896W        W54813   2.558  15.387  31.831 -0.2084 -0.1908  0.1931
11897W        W54814   3.919  18.652  29.111  0.0175 -0.1181  0.3314
11898W        W54815   4.173  18.507   0.548  0.3616 -0.0483 -0.1652
11899W        W54816   1.876  16.905  28.804  0.3335 -0.0585  0.0250
11900W        W54817   0.166  14.837  28.799 -0.1231  0.1563 -0.1741
11901W        W54818   1.905  13.952  29.197 -0.2419 -0.0677  0.0247
11902W        W54819   1.520  18.008  30.020  0.0522  0.1044 -0.1311
11903W        W54820   1.759  18.243  30.557 -0.2018  0.1673 -0.2026
11904W        W54821   2.025  14.994  28.050 -0.0831  0.0630  0.0219
11905W        W54822   3.933  17.288  29.809  0.2577 -0.0965  0.0330
11906W        W54823   1.882  18.590  29.233  0.3438  0.3076 -0.0453
11907W        W54824  34.467  14.907  30.880  0.0171  0.1229  0.0716
11908W        W54825   2.058  15.178  31.780 -0.1424  0.2482 -0.1616
11909W        W54826   5.014  15.573  30.724  0.2269 -0.0297 -0.0611
11910W        W54827   4.697  15.791   0.319  0.1336 -0.2654 -0.1385
11911W        W54828   0.289  16.205  26.756  0.1762  0.2734  0.3764
11912W        W54829   2.197  17.294  27.987  0.1048 -0.0661  0.1309
11913W        W54830   1.214  19.562  31.199 -0.0930 -0.0064  0.2027
11914W        W54831  33.218  17.785  28.769 -0.0926  0.1432  0.0946
11915W        W54832   2.042  18.768  29.742 -0.1075  0.1427  0.1693
11916W        W54833   4.536  16.760  29.624  0.0966 -0.0130  0.1714
11917W        W54834   1.806  15.449  29.523  0.0845  0.0808  0.0133
11918W        W54835   2.143  15.737  29.844  0.1624 -0.1005 -0.0974
11919W        W54836   1.410  16.962  28.538  0.0466 -0.2899 -0.1252
11920W        W54837  31.764  17.949  28.968  0.1105  0.0275 -0.0542
11921W        W54838   2.982  14.699  29.912 -0.4051 -0.3529 -0.0352
11922W        W54839   5.197  16.894  28.160  0.0116 -0.0673 -0.0331
11923W        W54840   1.915  17.074   0.852  0.0811  0.1464 -0.1515
11924W        W54841   3.549  17.239  28.288 -0.1677  0.1412  0.3173
11925W        W54842   3.386  14.685  28.148 -0.5834  0.4042  0.2204
11926W        W54843   3.563  16.752  28.535  0.3138  0.0788 -0.1448
11927W        W54844  33.868  17.500   0.588  0.0416  0.0784 -0.0679
11928W        W54845   3.734  17.738  27.687  0.2272 -0.2577 -0.3301
11929W        W54846   2.028  17.051  31.217  0.0200 -0.0077 -0.1999
11930W        W54847   1.909  16.755  26.919  0.5391 -0.1271  0.1460
11931W        W54848   1.807  15.774  28.755 -0.1711  0.0080  0.0795
11932W        W54849   1.480  15.959  28.029  0.2634 -0.1954  0.2538
11933W        W54850   3.860  19.038  31.327 -0.2051  0.2539 -0.1075
11934W        W54851   1.783  17.062  29.763  0.2435 -0.0050 -0.1552
11935W        W54852   1.679  15.636  30.870  0.0016  0.0524  0.0996
11936W        W54853  33.785  15.179  26.242  0.2063 -0.0033 -0.2085
11937W        W54854   2.029  15.217  27.107 -0.0570  0.1276 -0.3250
11938W        W54855   0.053  17.116  27.947  0.1629 -0.0594 -0.0875
11939W        W54856   3.620  15.146  30.587  0.1210  0.3013  0.2788
11940W        W54857   4.273  16.780  30.541 -0.1245  0.0225  0.2348
11941W        W54858   1.614  15.521  29.121 -0.3605 -0.1610 -0.1093
11942W        W54859   4.344  17.326   1.451 -0.1700 -0.1688 -0.1666
11943W        W54860   2.755  17.010  29.494 -0.4604  0.3358 -0.2566
11944W        W54861   4.122  18.273  29.945 -0.2396  0.3278  0.2289
11945W        W54862   0.905  15.114  29.405 -0.1490 -0.0010  0.1492
11946W        W54863   2.440  15.379  30.083  0.1560  0.1867  0.2457
11947W        W54864   1.802  17.829  28.567 -0.4241 -0.0750 -0.2284
11948W        W54865   2.292  18.850  31.334 -0.1240  0.0622  0.0325
11949W        W54866   2.538  17.146  31.276 -0.2599  0.1869 -0.1132
11950W        W54867   2.663  15.933  28.358  0.0405  0.0559  0.1301
11951W        W54868   2.508  15.981  30.780 -0.0592  0.3956  0.0782
11952W        W54869   2.995  16.225  29.831  0.3558 -0.0169 -0.2528
11953W        W54870   1.962  17.539  27.444 -0.1948 -0.1139  0.0890
11954W        W54871   0.419  18.845  26.587 -0.1063 -0.1042  0.1570
11955W        W54872   1.449  15.457  30.025 -0.0085  0.0842  0.0653
11956W        W54873   0.723  16.296  28.709  0.3373 -0.2106  0.1085
11957W        W54874   0.731  18.672  27.970  0.0099 -0.1135  0.1616
11958W        W54875   3.671  19.071  29.295  0.0426 -0.1348 -0.1413
11959W        W54876   1.309  16.221  26.445 -0.3061 -0.0743  0.1028
11960W        W54877   3.835  15.257  29.525  0.1206 -0.0070 -0.1731
11961W        W54878   0.914  17.920  30.207 -0.0834  0.0925 -0.2333
11962W        W54879   1.667  15.248  26.711 -0.0989  0.2111 -0.1104
11963W        W54880  34.561  15.499  27.134 -0.1508 -0.1987  0.2558
11964W        W54881   3.869  16.974  28.040  0.1500  0.2357  0.4540
11965W        W54882   2.309  16.613  26.379  0.1175  0.0748 -0.0542
11966W        W54883   2.328  14.918  30.327  0.3011  0.1989  0.1307
11967W        W54884   0.824  15.122  27.977 -0.1708 -0.0237 -0.1498
11968W        W54885  33.250  18.779  29.773  0.3521 -0.2445  0.1780
11969W        W54886   2.397  16.866  30.878  0.4453 -0.2035  0.1147
11970W        W54887   3.063  16.016  27.320  0.1680 -0.1882 -0.1131
11971W        W54888   3.222  17.781  31.052 -0.2559 -0.1700  0.0935
11972W        W54889   1.521  16.441  28.908 -0.0439 -0.0350  0.1731
11973W        W54890   0.845  15.395  27.500  0.1524  0.2020  0.1071
11974W        W54891   4.349  15.255  31.768  0.5121  0.0375 -0.1294
11975W        W54892  34.446  15.813  29.056  0.2870 -0.4646 -0.0991
11976W        W54893   2.287  17.768  28.433 -0.4880 -0.0709 -0.0835
11977W        W54894   2.556  18.286  28.686  0.0599 -0.2045  0.1571
11978W        W54895   2.522  16.082  29.851 -0.0372 -0.0938 -0.3439
11979W        W54896   1.183  17.113  28.082 -0.1570 -0.0250 -0.0129
11980W        W54897   3.797  16.864   0.295 -0.0116 -0.4687 -0.0735
11981W        W54898   3.400  17.398  31.441  0.0099 -0.1983 -0.0535
11982W        W54899   2.765  16.710  29.080  0.0139 -0.2507 -0.2989
11983W        W54900  34.392  15.746  28.051 -0.0058 -0.2724 -0.1457
11984W        W54901   3.748  17.180  29.347  0.0728  0.2177  0.0329
11985W        W54902   2.209  15.654   0.152  0.1375 -0.1480 -0.2216
11986W        W54903   2.960  16.774  30.990  0.3853 -0.0488 -0.1688
11987W        W54904   1.249  17.603  30.261  0.1502 -0.1962  0.0540
11988W        W54905   3.638  15.630  30.247 -0.2788 -0.3374 -0.0319
11989W        W54906   3.928  18.199  29.343 -0.0637  0.2884  0.1548
11990W        W54907   0.958  15.722  29.805 -0.2092  0.0403  0.0753
11991W        W54908   1.625  16.779  27.890 -0.2781  0.1903  0.1327
11992W        W54909   1.129  15.810  29.303  0.1365  0.0064 -0.0656
11993W        W54910   2.459  16.557  28.018  0.5458  0.2695 -0.0616
11994W        W54911   3.145  16.645  29.655  0.0758  0.1710 -0.2375
11995W        W54912  33.596  16.264  29.738  0.3549  0.0956  0.2630
11996W        W54913   0.724  14.983  27.053  0.0457 -0.0738 -0.0295
11997W        W54914   0.661  16.440  31.406  0.2068 -0.4026 -0.4146
11998W        W54915   3.323  15.654  27.612 -0.0307 -0.1145 -0.4017
11999W        W54916   1.882  17.625  28.164  0.0768  0.0609  0.2386
12000W        W54917   2.595  14.570  29.490  0.0409 -0.1178 -0.1626
12001W        W54918   3.744  17.095  30.636 -0.0865  0.1972  0.0362
12002W        W54919   2.609  17.053  27.998 -0.2813  0.3659 -0.1979
12003W        W54920   1.870  15.759   3.078 -0.2518  0.1467 -0.1327
12004W        W54921   2.360  14.725  31.477 -0.0862 -0.0811 -0.1519
12005W        W54922   2.261  18.337  27.820 -0.1516  0.1820 -0.0477
12006W        W54923   0.043  15.231  30.604 -0.0322  0.4155  0.1606
12007W        W54924   2.641  18.172  30.782  0.2562  0.1461  0.0014
12008W        W54925   0.641  14.515  29.481 -0.0510  0.1573 -0.0169
12009W        W54926   2.677  16.851  28.594 -0.2396  0.3341 -0.1434
12010W        W54927   2.671  14.344  27.488 -0.1404 -0.2278  0.0819
12011W        W54928   1.550  14.931  29.744  0.2524  0.2580 -0.1191
12012W        W54929   4.573  17.436  29.048  0.2968 -0.2989  0.0044
12013W        W54930  33.987  17.191  27.098 -0.1367 -0.0915  0.0132
12014W        W54931   3.276  17.123  29.684 -0.0712  0.0781 -0.0407
12015W        W54932   0.314  16.553  28.711  0.2132  0.0334  0.1731
12016W        W54933   3.664  19.073  28.260  0.1012  0.0602  0.0744
12017W        W54934   2.019  14.821  26.472  0.0421 -0.1097  0.0931
12018W        W54935   1.721  17.140  28.190  0.0275 -0.1595  0.1797
12019W        W54936   1.874  14.382  30.226  0.2774  0.1519 -0.1033
12020W        W54937   3.907  16.326  28.538 -0.0517 -0.0268 -0.2954
12021W        W54938   4.062  17.129  30.237 -0.3058 -0.0184  0.0241
12022W        W54939   2.996  13.653  31.266  0.1627 -0.1721  0.3710
12023W        W54940   3.886  16.156  29.068 -0.3097  0.0004  0.0697
12024W        W54941   2.470  19.723  29.233 -0.0370  0.3826  0.2344
12025W        W54942  34.062  16.094  29.610  0.2303 -0.2263  0.1349
12026W        W54943   3.468  16.801  31.854  0.0839 -0.0254 -0.1851
12027W        W54944   3.352  15.372  25.957 -0.0360  0.1903 -0.0878
12028W        W54945   4.074  16.234  30.629  0.1273 -0.0988 -0.2084
12029W        W54946   2.776  18.008  27.718 -0.1962 -0.1516  0.1579
12030W        W54947   4.066  16.693  29.412 -0.0814 -0.0626  0.1653
12031W        W54948   3.229  16.918  29.212  0.2330  0.0674  0.0156
12032W        W54949   2.342  16.439  30.608 -0.0379 -0.1218 -0.0411
12033W        W54950   0.251  16.414  27.269  0.0683  0.2556  0.4356
12034W        W54951   1.097  14.121  29.777  0.0737 -0.1035  0.1718
12035W        W54952   3.022  19.681  29.162  0.0946 -0.3967 -0.2716
12036W        W54953   3.464  16.222  28.794 -0.1992  0.0771 -0.0408
12037W        W54954   2.528  18.295  29.949  0.0505  0.3404  0.1011
12038W        W54955   2.426  14.853  27.522 -0.0139 -0.0200  0.0673
12039W        W54956  33.945  16.128  30.953  0.0757 -0.2096  0.1917
12040W        W54957  34.488  14.642  30.051 -0.4198 -0.0665 -0.1487
12041W        W54958   2.563  15.425  28.985 -0.2394  0.0799  0.1824
12042W        W54959   1.293  18.204  28.751 -0.1133 -0.0853  0.0844
12043W        W54960   3.084  17.386  31.884  0.0827 -0.2185 -0.0436
12044W        W54961   2.092  15.907  28.270  0.1497  0.1574 -0.2729
12045W        W54962   3.044  16.228   1.386  0.0277  0.1320 -0.2400
12046W        W54963   1.612  17.274  27.705 -0.1383 -0.0295  0.1358
12047W        W54964   3.881  15.690  29.768 -0.1315 -0.0128 -0.1376
12048W        W54965   1.252  18.243  31.276 -0.1875  0.1115 -0.0547
12049W        W54966  32.064  16.494  28.331  0.1478 -0.2938  0.1198
12050W        W54967  34.590  15.796  26.761  0.0142  0.2826 -0.0465
12051W        W54968   2.166  15.522   1.841  0.1817 -0.1293 -0.2257
12052W        W54969   3.506  16.013   0.505 -0.0801  0.1152 -0.1522
12053W        W54970   0.481  17.246  29.586 -0.0619 -0.1784 -0.0876
12054W        W54971   5.045  16.791  30.837  0.3010  0.0381  0.1066
12055W        W54972   2.018  17.230  29.269 -0.1949 -0.3965 -0.1356
12056W        W54973   0.790  16.061  29.493  0.3014  0.0599 -0.2441
12057W        W54974   1.721  20.012  30.558 -0.0647  0.0214 -0.3184
12058W        W54975   3.014  17.328  31.118  0.2777 -0.0753 -0.2746
12059W        W54976   1.615  17.487  29.940 -0.1305  0.1280 -0.0066
12060W        W54977   0.929  15.053   0.337  0.2813  0.0040  0.0899
12061W        W54978   2.194  16.785  31.784  0.2456  0.1258  0.0444
12062W        W54979   1.493  18.470  30.949  0.0344 -0.0843 -0.1339
12063W        W54980   3.295  15.089  27.808  0.0888  0.1472  0.1009
12064W        W54981   1.387  17.881  26.815  0.1472 -0.1303 -0.3119
12065W        W54982  33.860  17.196  31.302  0.0724 -0.0806  0.3716
12066W        W54983   1.869  16.649  30.417 -0.4464  0.0627 -0.0365
12067W        W54984   0.214  17.872  28.818  0.1804  0.0956  0.0917
12068W        W54985   2.428  18.658  29.113 -0.0847  0.1811 -0.0001
12069W        W54986   0.805  16.387  26.625  0.3165  0.0529  0.0301
12070W        W54987   2.871  17.806  29.327  0.1414 -0.2033 -0.1037
12071W        W54988   1.869  15.701  26.559  0.0070  0.3988  0.1064
12072W        W54989   2.464  19.215  29.177  0.0770  0.1729 -0.1004
12073W        W54990   0.419  16.739  26.914  0.1131  0.1863  0.0446
12074W        W54991   3.444  15.251  28.282  0.0742  0.1371 -0.0876
12075W        W54992   2.190  19.482  28.880 -0.0824 -0.1063 -0.0574
12076W        W54993   5.091  16.352   0.908 -0.0314  0.1047  0.0861
12077W        W54994   2.235  14.083  27.759  0.1219  0.2749  0.0407
12078W        W54995   3.229  18.271  31.265 -0.6116 -0.0149  0.1521
12079W        W54996   4.754  15.647  28.686  0.0533  0.0128 -0.1159
12080W        W54997   0.960  18.434  30.911 -0.1183 -0.0663  0.1368
12081W        W54998   3.555  17.002  30.120 -0.0189 -0.0827  0.1890
12082W        W54999   2.388  14.918  29.069 -0.0410 -0.2566 -0.0922
12083W        W55000   2.374  18.023   0.368  0.4832 -0.0843  0.1273
12084W        W55001   2.276  12.457   0.280  0.0447 -0.1034 -0.0040
12085W        W55002   1.399  17.360  31.186 -0.1687 -0.3542  0.0403
12086W        W55003   2.143  18.633  28.671  0.1425  0.0805  0.0606
12087W        W55004  34.624  16.202  26.379 -0.3128  0.1894  0.1428
12088W        W55005   2.020  17.352  28.587  0.1774 -0.1025 -0.0116
12089W        W55006   3.517  16.521  29.308 -0.2238 -0.1928 -0.2532
12090W        W55007   1.012  17.222  26.456  0.0925  0.1151 -0.0059
12091W        W55008   3.174  17.428  29.301  0.0211 -0.0803  0.0071
12092W        W55009   2.753  18.530  27.818  0.0677 -0.3186 -0.0146
12093W        W55010   0.063  16.307  28.288  0.1928 -0.0443 -0.4993
12094W        W55011   0.777  16.502  29.781 -0.0912 -0.0535  0.1814
12095W        W55012   0.683  12.680  28.503  0.1045 -0.0730 -0.3629
12096W        W55013   4.540  17.109  28.672  0.0139  0.1508 -0.0538
12097W        W55014   0.228  15.689  30.015  0.2571  0.1963  0.0121
12098W        W55015   4.290  17.149  29.441 -0.2532  0.2805  0.1133
12099W        W55016   1.847  14.859  28.973 -0.1477  0.1447 -0.1979
12100W        W55017   3.349  16.368  27.653 -0.0467  0.3193 -0.1993
12101W        W55018   1.469  17.483  28.674 -0.1849 -0.1307 -0.4019
12102W        W55019   1.782  15.561  31.926  0.0660  0.0745  0.0781
12103W        W55020   2.804  15.134  27.758  0.0209  0.2346 -0.0039
12104W        W55021   4.607  16.319  31.845  0.1336 -0.1594  0.0133
12105W        W55022   3.852  14.428  26.861 -0.1538 -0.0672 -0.0317
12106W        W55023   3.643  17.515  30.196  0.0123 -0.0383  0.1235
12107W        W55024   1.753  16.193  26.777  0.0889  0.3474  0.3245
12108W        W55025   1.592  14.126  27.946  0.0684 -0.0227  0.0182
12109W        W55026  33.451  16.141  27.175 -0.0859 -0.0018 -0.1704
12110W        W55027   3.100  17.341  30.135  0.0853 -0.0749  0.3461
12111W        W55028   2.818  19.553  30.813  0.2174 -0.1422 -0.3903
12112W        W55029   1.464  15.623  28.393 -0.5275  0.0421 -0.1474
12113W        W55030   3.489  18.062  28.392 -0.1731  0.0604 -0.2347
12114W        W55031   3.292  16.378  28.222 -0.1166 -0.3025  0.0445
12115W        W55032   1.969  18.984  25.834 -0.0097 -0.1829  0.0865
12116W        W55033   3.412  17.668  29.778  0.0001  0.2070  0.1349
12117W        W55034   0.841  19.167  29.727  0.0398 -0.1499 -0.1752
12118W        W55035   0.346  14.715  30.644 -0.1150  0.0907 -0.4279
12119W        W55036   5.120  18.733  30.928  0.4473  0.1872 -0.0297
12120W        W55037   4.614  19.416  30.464  0.0853 -0.1812  0.0718
12121W        W55038   2.321  17.100  28.838  0.2606 -0.0670 -0.3298
12122W        W55039   0.395  16.717  29.606 -0.2809 -0.2508  0.5424
12123W        W55040   2.430  19.990  29.806  0.1202  0.0328  0.2523
12124W        W55041   7.079  17.620  29.991 -0.1004 -0.0693 -0.1212
12125W        W55042   3.329  16.015   0.062  0.0439 -0.1807 -0.2717
12126W        W55043   0.920  16.587  27.858 -0.0498  0.0050 -0.1236
12127W        W55044   3.706  15.262   0.605 -0.0166 -0.1768 -0.5307
12128W        W55045   0.525  17.027  28.516 -0.0590 -0.2797  0.3153
12129W        W55046   0.111  17.215  31.683 -0.1317 -0.0760  0.2946
12130W        W55047  34.459  16.486  27.424 -0.0555 -0.3840 -0.1311
12131W        W55048   3.141  16.222  29.347  0.1314  0.4064 -0.0339
12132W        W55049   1.354  16.490  28.184 -0.2823  0.0518 -0.2374
12133W        W55050   2.675  18.246  29.176 -0.0293 -0.1362  0.0717
12134W        W55051   4.494  17.119  29.990  0.1786 -0.2761  0.1667
12135W        W55052   1.605  16.162  30.029 -0.2880 -0.3210  0.4130
12136W        W55053   4.774  18.532  28.197  0.2223 -0.1030  0.3100
12137W        W55054   0.072  14.378  28.601  0.1539  0.0034 -0.1230
12138W        W55055   2.221  15.008  28.584  0.1955  0.2776  0.2152
12139W        W55056   3.670  14.836  28.586 -0.2295 -0.3379  0.3691
12140W        W55057   1.699  18.126  29.188  0.1690  0.1150 -0.2096
12141W        W55058  33.201  16.588  28.048 -0.2414 -0.3675 -0.2252
12142W        W55059  33.180  17.438  27.311 -0.2793  0.2660  0.1232
12143W        W55060   1.526  15.818  29.673  0.0328 -0.0576 -0.2590
12144W        W55061   3.002  15.426   0.800 -0.2798  0.0574 -0.1419
12145W        W55062   0.692  15.872  29.037 -0.0761  0.0899  0.0152
12146W        W55063  34.299  15.400  28.452  0.0061 -0.1909  0.2540
12147W        W55064   2.349  14.802  26.912  0.2095 -0.0396 -0.3430
12148W        W55065   3.498  16.889  27.391 -0.0110  0.0161 -0.0901
12149W        W55066   2.210  16.893  28.326 -0.0677 -0.0120 -0.0084
12150W        W55067   1.218  13.704  30.004 -0.0697 -0.1130 -0.3540
12151W        W55068  34.299  16.284  27.862 -0.0685 -0.2832  0.3233
12152W        W55069   4.730  17.877  29.239 -0.2482  0.2265  0.1042
12153W        W55070   1.709  14.578  29.453 -0.0028  0.1279  0.0274
12154W        W55071   5.052  18.462   0.752 -0.2579 -0.0883  0.0873
12155W        W55072   0.052  16.617  27.891  0.4766  0.1212 -0.0749
12156W        W55073   1.312  15.697  30.486  0.0897 -0.0310  0.0091
12157W        W55074   1.329  15.839  27.443  0.0814 -0.3444  0.0232
12158W        W55075  33.488  14.271  29.014  0.0162 -0.2357 -0.3034
12159W        W55076   2.349  15.497  29.440 -0.3742 -0.4052  0.0672
12160W        W55077   2.477  19.459  28.283 -0.0501  0.0228  0.0343
12161W        W55078   3.596  15.280  26.850  0.1160  0.2569  0.0208
12162W        W55079   2.260  18.311  30.434 -0.3082 -0.0291 -0.0075
12163W        W55080   2.582  15.034  29.778 -0.0050  0.2075 -0.2441
12164W        W55081   1.028  13.731  28.980 -0.1339 -0.0697  0.1886
12165W        W55082   2.624  15.557  28.013 -0.2858  0.0461 -0.1406
12166W        W55083   2.128  15.602  31.053 -0.1293  0.3315 -0.3362
12167W        W55084   4.009  18.112  28.360  0.1163 -0.0915  0.0851
12168W        W55085   3.242  16.523  30.170  0.0141 -0.0546 -0.1623
12169W        W55086   1.240  16.659  29.338 -0.1115 -0.1196  0.1101
12170W        W55087  34.466  14.205   1.768  0.0694 -0.3704  0.0712
12171W        W55088  34.531  16.270  30.837 -0.0800  0.1123  0.3916
12172W        W55089   5.892  16.995  31.316 -0.0052 -0.1095 -0.1650
12173W        W55090   1.649  14.637  28.037 -0.3179 -0.1357  0.0334
12174W        W55091   1.981  15.902  29.260 -0.5102  0.3172 -0.2853
12175W        W55092   3.790  17.905  26.578 -0.0485 -0.1975  0.2567
12176W        W55093   3.462  16.045  29.862 -0.0275 -0.4146 -0.0869
12177W        W55094   3.982  16.261  30.037  0.2916  0.0884  0.1768
12178W        W55095   2.363  16.407  31.129  0.0494  0.2030 -0.0309
12179W        W55096   2.570  18.506  31.125 -0.2030  0.4005 -0.0356
12180W        W55097   3.794  18.425  31.268  0.1262 -0.2166  0.0303
12181W        W55098   2.359  15.898  28.782  0.2864  0.0965 -0.1494
12182W        W55099   3.736  16.024  27.511  0.1553  0.3059  0.1176
12183W        W55100   1.937  20.364  28.603  0.0282  0.0374  0.1320
12184W        W55101   2.835  17.221  30.588 -0.0540  0.0364  0.0075
12185W        W55102   1.674  18.599  28.772 -0.1190  0.1031 -0.1092
12186W        W55103   3.018  17.957  30.011  0.1319  0.0398 -0.0726
12187W        W55104   0.918  13.281  29.797 -0.2160  0.3070  0.0913
12188W        W55105   1.182  16.540  30.277  0.0852 -0.1086 -0.0079
12189W        W55106   0.745  17.183  29.058 -0.0306 -0.0443  0.1234
12190W        W55107   3.650  18.262  30.735 -0.3375  0.2435 -0.0012
12191W        W55108   0.536  16.139  28.202 -0.0820  0.0780 -0.1327
12192W        W55109   4.259  15.828  29.424  0.1579 -0.0308  0.3820
12193W        W55110   1.210  18.127  30.564 -0.1642  0.1921 -0.0180
12194W        W55111   5.056  17.980   0.518  0.1689  0.3091  0.2699
12195W        W55112   1.212  16.232  29.732  0.1969 -0.0259  0.3312
12196W        W55113   2.475  18.461   0.123 -0.1046  0.2758  0.0258
12197W        W55114   0.297  17.005  31.239  0.3891 -0.1551  0.1084
12198W        W55115  34.333  17.880  31.348 -0.1783  0.1498  0.0766
12199W        W55116  34.451  18.744  31.621 -0.0246  0.1842 -0.0713
12200W        W55117  34.180  19.179  31.559 -0.1174  0.0485 -0.0228
12201W        W55118   1.560  16.272  30.493  0.0761 -0.0988  0.2233
12202W        W55119   1.312  14.705  30.217  0.5760 -0.0838 -0.1697
12203W        W55120   0.803  16.627  30.825  0.0987  0.0516  0.3439
12204W        W55121   4.149  19.039   0.834  0.1069 -0.1331 -0.1036
12205W        W55122   1.835  18.123  31.104 -0.1750 -0.1040  0.3194
12206W        W55123   1.050  15.458  31.325 -0.1306  0.0505  0.4715
12207W        W55124   3.766  18.584  30.206  0.0691  0.1337 -0.2857
12208W        W55125   3.915  17.355   0.473  0.2576  0.1277 -0.2228
12209W        W55126   2.854  18.451   0.455 -0.0257  0.0418 -0.1592
12210W        W55127   0.046  17.913   0.224  0.0024 -0.1753  0.1222
12211W        W55128   1.008  15.387  31.800 -0.0518 -0.2767 -0.1830
12212W        W55129   1.952  16.000  30.638  0.0695  0.1700  0.0909
12213W        W55130   1.752  18.787  30.657 -0.0538 -0.2805  0.0903
12214W        W55131   2.695  15.469   0.324 -0.1340  0.0088  0.0354
12215W        W55132   1.916  16.509  31.467 -0.1990 -0.0200  0.0065
12216W        W55133   0.669  16.936  30.010 -0.0556  0.2254  0.0779
12217W        W55134   2.628  17.107  31.864  0.1052 -0.0521 -0.2479
12218W        W55135   3.318  16.116   0.940  0.0791 -0.1165  0.2457
12219W        W55136   1.757  14.195  30.671  0.1001 -0.6360 -0.0471
12220W        W55137   2.536  14.310  31.736 -0.2502 -0.2343 -0.2327
12221W        W55138   1.349  15.777  31.825  0.4251 -0.2061  0.0959
12222W        W55139   0.018  18.857  30.420  0.2091  0.0297 -0.1260
12223W        W55140   1.138  16.238  30.727  0.1695 -0.1535 -0.3548
12224W        W55141   0.322  16.481  30.718  0.0728 -0.1590  0.0780
12225W        W55142   0.309  16.028  28.759 -0.0337 -0.2864 -0.1689
12226W        W55143   1.755  16.553   0.052  0.2331  0.0874 -0.0873
12227W        W55144   3.735  17.271   0.031 -0.0915 -0.1108  0.0160
12228W        W55145   2.996  16.947  31.572  0.2750  0.1583 -0.0198
12229W        W55146   1.967  14.668  30.655 -0.2486 -0.0603  0.1393
12230W        W55147   0.175  16.472  30.059 -0.1617  0.0596 -0.2485
12231W        W55148  34.503  19.190  31.941  0.0186  0.0016  0.2417
12232W        W55149   2.290  16.909  30.359 -0.0150 -0.3242 -0.0229
12233W        W55150   4.589  18.540   0.850 -0.1841 -0.1951 -0.2713
12234W        W55151   3.232  17.818  31.636 -0.2678 -0.1731 -0.2835
12235W        W55152   4.335  16.669   0.338 -0.2243 -0.1974 -0.0139
12236W        W55153   1.920  15.221  31.310 -0.0849 -0.1728  0.3803
12237W        W55154   2.196  13.691  31.329  0.2717  0.1726 -0.0500
12238W        W55155   0.860  18.738  30.540 -0.1722 -0.1572 -0.1427
12239W        W55156   1.316  15.400  29.542 -0.1021  0.2963 -0.0603
12240W        W55157   2.892  19.031   1.120  0.1763  0.0550 -0.0988
12241W        W55158   3.271  16.645   1.078 -0.1736  0.0772 -0.0807
12242W        W55159   2.627  19.036  31.020 -0.1521 -0.0344  0.1559
12243W        W55160   4.530  18.187  31.704  0.0281 -0.0157  0.0706
12244W        W55161  33.810  15.517  30.890  0.2157  0.1653  0.2143
12245W        W55162   2.313  17.391  30.704  0.0642 -0.2875  0.1316
12246W        W55163   4.136  16.671  31.868 -0.1016 -0.1792 -0.0755
12247W        W55164   3.856  15.431   1.158 -0.3567  0.1814 -0.1391
12248W        W55165   2.191  18.202  29.069 -0.2538  0.2969  0.0013
12249W        W55166   1.835  16.242   0.485  0.1343  0.0135  0.0095
12250W        W55167   2.317  17.462  31.620 -0.2756  0.2211  0.1169
12251W        W55168   4.025  18.130  31.586  0.3377 -0.0860 -0.1808
12252W        W55169   2.789  17.538  31.527  0.0280 -0.2187  0.0872
12253W        W55170   1.234  16.694  31.839  0.1423 -0.2107 -0.0978
12254W        W55171   0.302  15.635  31.903  0.1083 -0.2411  0.0717
12255W        W55172   0.139  16.481  31.330 -0.3587  0.1598 -0.2746
12256W        W55173   1.734  15.797   0.433  0.2468  0.1344  0.0313
12257W        W55174  33.410  15.151  30.061  0.0390  0.1406 -0.0337
12258W        W55175   1.279  14.840   0.066 -0.1235 -0.1412 -0.0261
12259W        W55176   2.042  19.204   0.239  0.1358  0.1398 -0.1671
12260W        W55177   5.667  15.071   0.995  0.1974 -0.0408  0.1994
12261W        W55178   4.764  15.620  31.397 -0.2736 -0.3170  0.1135
12262W        W55179  34.599  19.848  18.589  0.1821  0.1633 -0.0460
12263W        W55180   0.929  19.584  17.689  0.2292 -0.2516 -0.1389
12264W        W55181   2.412  18.119  17.331  0.1659 -0.1992  0.1296
12265W        W55182   4.336  19.026  16.096 -0.1116  0.1080 -0.1705
12266W        W55183   1.149  20.373  17.973 -0.2430  0.0186 -0.4623
12267W        W55184   1.874  20.890  19.110  0.3820  0.0098  0.2461
12268W        W55185   0.276  18.105  20.788  0.1023 -0.0324  0.0302
12269W        W55186   5.860  21.378  18.344 -0.2600  0.0018  0.0091
12270W        W55187   3.806  19.568  19.718 -0.0677  0.2519 -0.3240
12271W        W55188   2.545  21.352  17.230 -0.0519 -0.1508  0.0895
12272W        W55189   1.597  17.986  17.647  0.4529 -0.2981  0.0747
12273W        W55190   0.927  22.532  20.034  0.1366  0.2401  0.4398
12274W        W55191   2.361  17.921  16.513  0.0414  0.0919 -0.0430
12275W        W55192  32.639  19.247  18.910  0.4267  0.1556 -0.1776
12276W        W55193   4.093  20.403  18.939 -0.0773 -0.1059  0.1848
12277W        W55194   1.462  19.436  17.605  0.0943  0.0941  0.0989
12278W        W55195   0.379  17.049  18.920 -0.1181  0.2658 -0.1049
12279W        W55196   2.922  19.853  18.636 -0.0840 -0.0501 -0.0039
12280W        W55197   2.172  20.804  20.193  0.0117  0.0547 -0.0539
12281W        W55198   0.226  17.491  19.141 -0.2954 -0.0606  0.0262
12282W        W55199   2.297  19.324  21.500  0.0630  0.2160  0.1103
12283W        W55200   2.846  22.295  17.742 -0.2596 -0.2085 -0.0108
12284W        W55201   0.332  18.899  18.813  0.1398 -0.0415  0.0657
12285W        W55202  34.441  19.215  18.945  0.0638 -0.2230 -0.1235
12286W        W55203   1.092  18.677  20.139  0.0064  0.3061 -0.0938
12287W        W55204   2.499  17.760  19.443 -0.0656  0.4614  0.1842
12288W        W55205   1.948  20.055  19.637  0.1688 -0.1995  0.1325
12289W        W55206   2.549  22.775  19.088 -0.1909 -0.0280 -0.3699
12290W        W55207   0.478  21.867  18.722 -0.1995 -0.0644  0.0151
12291W        W55208   3.480  20.218  19.645  0.1052  0.1044 -0.2293
12292W        W55209   1.754  18.273  16.809 -0.1121  0.1880 -0.2251
12293W        W55210   0.137  22.026  19.621 -0.2385 -0.0012  0.1548
12294W        W55211   2.754  19.802  18.159 -0.0848 -0.1114 -0.0920
12295W        W55212   3.594  20.472  16.834  0.1140  0.4151  0.0474
12296W        W55213   4.281  19.852  17.907  0.0222 -0.0774  0.1897
12297W        W55214   1.619  22.851  19.859  0.0364 -0.0938 -0.0590
12298W        W55215   0.292  20.325  17.426 -0.2498 -0.0341  0.0069
12299W        W55216   2.151  22.861  17.344  0.0682 -0.2196  0.2272
12300W        W55217   0.948  22.041  19.033  0.0584  0.1424 -0.0709
12301W        W55218   3.238  19.520  20.407 -0.1708  0.1591  0.1098
12302W        W55219   1.813  18.746  18.714 -0.2075  0.4241 -0.0095
12303W        W55220   2.370  19.880  17.866 -0.2841 -0.0732 -0.3587
12304W        W55221   2.144  19.568  19.208 -0.0303 -0.4462  0.1038
12305W        W55222   1.665  19.604  19.462  0.1504 -0.2170  0.2071
12306W        W55223   0.770  19.406  18.173 -0.0396 -0.2845 -0.0394
12307W        W55224   2.624  17.948  22.901  0.0723  0.0124 -0.0341
12308W        W55225   3.001  21.586  17.373  0.0538 -0.0241  0.3549
12309W        W55226   2.784  18.856  18.044  0.0975 -0.0562 -0.0435
12310W        W55227   1.208  19.375  17.026 -0.2431 -0.0911  0.0630
12311W        W55228   3.806  18.983  18.913 -0.3949 -0.3338 -0.1631
12312W        W55229   1.939  19.304  18.370 -0.0432  0.0572  0.0277
12313W        W55230   1.331  21.886  18.730 -0.4296 -0.0613 -0.0235
12314W        W55231   1.807  19.099  19.050 -0.0480  0.2868  0.2213
12315W        W55232   3.924  20.038  20.550  0.1665  0.3729 -0.0270
12316W        W55233   1.684  20.667  18.020 -0.2544 -0.0610  0.0072
12317W        W55234   1.283  20.085  18.653 -0.2531 -0.4234 -0.2705
12318W        W55235  33.004  20.801  17.689  0.0855  0.1170 -0.1689
12319W        W55236   1.480  19.325  18.120  0.2942 -0.2840  0.2252
12320W        W55237   4.714  22.364  17.982 -0.0623  0.0411  0.0106
12321W        W55238   2.559  21.972  17.956 -0.1566  0.0716 -0.1570
12322W        W55239   2.808  19.318  17.914 -0.0668 -0.2725 -0.1538
12323W        W55240   3.227  18.734  17.768  0.0710  0.2276 -0.0198
12324W        W55241   0.902  21.884  18.410  0.0939 -0.1375  0.0426
12325W        W55242   1.290  21.740  19.913  0.0850  0.0341  0.1128
12326W        W55243   0.302  17.683  16.347  0.1626 -0.0741  0.1170
12327W        W55244   2.224  18.920  19.966 -0.0978  0.2764  0.1362
12328W        W55245   0.694  20.458  20.030  0.1450 -0.0005 -0.2162
12329W        W55246   3.187  20.093  17.068  0.1026  0.0523 -0.0249
12330W        W55247   3.348  20.169  17.657 -0.0739 -0.0324 -0.2906
12331W        W55248   2.772  19.044  18.894  0.2171  0.3018 -0.2591
12332W        W55249   1.589  20.064  18.074  0.2462 -0.2268  0.0150
12333W        W55250   3.086  17.731  17.685 -0.1740  0.2278 -0.0074
12334W        W55251   1.035  18.176  19.967 -0.0962 -0.1547  0.2197
12335W        W55252   1.345  20.585  17.585  0.0598  0.2763 -0.0384
12336W        W55253   2.470  19.430  17.509 -0.0970  0.0057 -0.0661
12337W        W55254   3.850  23.951  20.298 -0.1266 -0.1662  0.0935
12338W        W55255   3.423  20.532  17.320  0.3922  0.0412  0.1893
12339W        W55256   1.021  20.221  19.038 -0.0651 -0.1693  0.2942
12340W        W55257   2.301  20.238  21.202 -0.1494  0.0722  0.4123
12341W        W55258   1.447  19.806  21.872 -0.0448 -0.1341 -0.2526
12342W        W55259   2.396  21.276  16.772  0.0057 -0.1111 -0.1339
12343W        W55260   0.322  20.148  18.404  0.1513 -0.1880 -0.0963
12344W        W55261  34.271  20.696  20.154 -0.1225  0.1542 -0.2152
12345W        W55262  33.463  18.260  20.754 -0.0433 -0.0411  0.0422
12346W        W55263  33.908  22.934  19.421 -0.3864  0.1921  0.0287
12347W        W55264   0.533  18.394  19.191  0.1171  0.0982 -0.1598
12348W        W55265   0.356  18.812  21.128 -0.2403  0.3689 -0.0470
12349W        W55266   1.204  17.049  17.915 -0.2213  0.2090 -0.0010
12350W        W55267   0.419  20.639  18.087 -0.0826  0.0857 -0.1219
12351W        W55268   7.049  22.211  19.360 -0.1017  0.1692  0.2445
12352W        W55269   3.798  21.679  16.879  0.2307  0.1015  0.2642
12353W        W55270   3.705  21.199  18.216  0.0167 -0.1983 -0.2574
12354W        W55271  34.078  21.049  21.063  0.0637  0.1366  0.0969
12355W        W55272   1.379  18.263  17.319  0.2794  0.0189 -0.0628
12356W        W55273   1.195  17.814  19.054 -0.1201  0.0999 -0.2421
12357W        W55274  33.689  19.665  18.713 -0.1508 -0.1033  0.0038
12358W        W55275   1.105  19.170  20.118  0.0504 -0.2006  0.2609
12359W        W55276   0.952  18.318  16.998  0.2923  0.0489 -0.0695
12360W        W55277   3.820  18.281  16.728 -0.0256 -0.3354  0.0137
12361W        W55278   3.228  19.696  17.944 -0.1259 -0.1201 -0.1721
12362W        W55279  33.861  20.346  18.425  0.0352 -0.1209  0.2179
12363W        W55280   2.690  17.995  19.831 -0.0445  0.0035 -0.0259
12364W        W55281   4.122  23.115  20.074  0.0874 -0.1419 -0.1106
12365W        W55282   4.548  23.452  19.970  0.0971 -0.1909 -0.3054
12366W        W55283   3.047  21.629  20.137 -0.1235  0.1319  0.1587
12367W        W55284   1.407  16.931  20.288 -0.2224  0.0422 -0.2254
12368W        W55285   0.273  19.330  18.136  0.0862  0.1643 -0.3019
12369W        W55286   0.659  22.664  19.653  0.1542 -0.1053  0.3159
12370W        W55287  34.398  19.800  19.071  0.0962  0.3196  0.1339
12371W        W55288   2.029  17.723  17.491 -0.3196  0.2381  0.1093
12372W        W55289   4.748  22.420  18.922  0.0116 -0.2540  0.2395
12373W        W55290   2.815  20.935  16.851  0.2570  0.0861  0.0374
12374W        W55291   1.447  21.004  19.298  0.0004  0.0148 -0.0073
12375W        W55292   2.103  19.604  19.819  0.0638  0.2895  0.0728
12376W        W55293   4.096  20.984  19.479  0.1964  0.2276  0.1969
12377W        W55294   2.898  19.293  19.328 -0.0913  0.0503  0.0679
12378W        W55295   0.023  21.029  19.097  0.3368 -0.0389 -0.4465
12379W        W55296   3.495  20.688  18.840 -0.2806 -0.0762 -0.1553
12380W        W55297   0.228  20.726  17.130 -0.2171  0.0097 -0.2248
12381W        W55298   4.164  21.252  16.909  0.0820  0.1284 -0.1307
12382W        W55299   2.030  23.294  17.511  0.1140  0.0871  0.2494
12383W        W55300   3.751  18.837  17.794 -0.1925  0.2469  0.0667
12384W        W55301   1.955  18.588  19.504 -0.0245  0.4485 -0.2112
12385W        W55302   1.594  19.724  18.443 -0.2296 -0.2376 -0.1669
12386W        W55303   0.682  20.026  17.469  0.1363  0.1676  0.0845
12387W        W55304  34.398  21.329  18.074 -0.1201  0.3327  0.0201
12388W        W55305   4.292  16.751  20.377 -0.0649  0.4045 -0.2454
12389W        W55306   3.934  20.101  16.848  0.0921  0.0055 -0.1708
12390W        W55307   3.291  20.579  19.311  0.2794 -0.1778  0.0554
12391W        W55308   3.035  21.937  18.299  0.1291  0.0665 -0.1578
12392W        W55309   4.149  18.322  17.234  0.2183 -0.0845 -0.0504
12393W        W55310   3.547  18.783  18.262  0.1768 -0.1942  0.2468
12394W        W55311   1.707  21.728  18.423  0.1491 -0.0650  0.2133
12395W        W55312   3.412  22.558  17.762  0.1772 -0.1709 -0.2286
12396W        W55313   2.171  20.750  17.649 -0.2427  0.1713  0.0072
12397W        W55314   2.989  18.838  17.067 -0.3241 -0.2925 -0.1407
12398W        W55315   3.481  19.766  16.875  0.3169 -0.2824 -0.0072
12399W        W55316  34.292  20.454  17.325 -0.0476 -0.1296  0.0054
12400W        W55317   3.445  19.863  18.777  0.0420  0.0396 -0.0723
12401W        W55318   2.199  20.436  18.067  0.1535 -0.0554  0.0396
12402W        W55319   0.517  20.474  18.707  0.1515 -0.0342  0.1115
12403W        W55320   2.140  20.484  17.191 -0.2162  0.0138  0.1835
12404W        W55321   2.458  18.591  18.894  0.3114 -0.1370  0.2310
12405W        W55322  34.389  21.538  17.177 -0.1406 -0.1622  0.3051
12406W        W55323   0.937  18.435  20.575 -0.1862 -0.1174 -0.0386
12407W        W55324   4.261  17.157  17.361  0.1285 -0.3265 -0.0669
12408W        W55325   1.789  20.971  19.902  0.1780  0.0584  0.3090
12409W        W55326   3.248  18.631  20.823  0.1008  0.0757 -0.0018
12410W        W55327   3.632  20.320  18.547 -0.0664 -0.0706  0.2151
12411W        W55328   3.795  19.360  18.121 -0.2534  0.1555 -0.0070
12412W        W55329   0.125  18.874  18.309 -0.3694  0.2666 -0.3865
12413W        W55330   1.545  20.264  20.526 -0.0403  0.1474  0.0920
12414W        W55331   2.556  22.422  20.286 -0.0686  0.0052 -0.2768
12415W        W55332  34.021  21.456  18.432  0.0233 -0.3529 -0.2000
12416W        W55333   3.790  21.155  18.761  0.0823  0.2487  0.1036
12417W        W55334   3.153  19.289  17.547 -0.0156  0.0901  0.1772
12418W        W55335   2.501  17.825  21.473  0.2023 -0.1236  0.1544
12419W        W55336   2.218  18.081  17.819  0.1086 -0.1243 -0.0670
12420W        W55337   2.993  22.520  16.933  0.1000  0.0626  0.1128
12421W        W55338   1.559  21.239  16.331  0.0847  0.1845 -0.0246
12422W        W55339   1.164  18.228  18.513 -0.0923  0.0160 -0.0291
12423W        W55340   1.475  20.937  18.792  0.2107  0.0479 -0.1298
12424W        W55341   1.175  21.180  16.846  0.1585  0.0152  0.1880
12425W        W55342   0.389  20.285  20.437 -0.2256 -0.1531  0.1325
12426W        W55343   0.367  19.670  17.689  0.1150  0.0929 -0.2370
12427W        W55344   3.349  19.153  18.637 -0.1209 -0.0917 -0.3697
12428W        W55345   0.983  20.703  18.738 -0.0491 -0.1627  0.0977
12429W        W55346   1.901  18.751  17.441 -0.2110 -0.2168 -0.2292
12430W        W55347   0.366  20.158  17.882  0.1806 -0.4042 -0.1114
12431W        W55348   2.996  17.318  17.477  0.2394  0.0392  0.1555
12432W        W55349   1.996  22.137  18.050 -0.1467  0.0887 -0.0605
12433W        W55350   0.233  19.303  20.408  0.3034  0.0273 -0.1060
12434W        W55351   1.293  18.698  18.661  0.0122 -0.3782 -0.0859
12435W        W55352  34.448  22.918  18.591  0.0557 -0.2158  0.0585
12436W        W55353   4.413  19.891  18.751 -0.4065  0.1964 -0.2558
12437W        W55354   1.967  19.288  17.628  0.0132 -0.0424 -0.1282
12438W        W55355   4.309  20.512  19.878  0.0155 -0.0261 -0.2023
12439W        W55356   0.088  20.257  18.856 -0.1001  0.1670 -0.0824
12440W        W55357   0.078  19.824  18.093  0.1575 -0.2321  0.0867
12441W        W55358   2.623  20.739  21.901  0.1341  0.0008  0.0856
12442W        W55359   2.585  20.762  19.408 -0.2918  0.4023  0.0356
12443W        W55360   1.573  23.059  17.497 -0.0413  0.1359  0.0103
12444W        W55361   3.333  18.863  19.905 -0.1983 -0.1138 -0.0209
12445W        W55362   2.432  22.141  19.048  0.0402  0.0738  0.3127
12446W        W55363   2.437  20.348  17.607 -0.1840  0.0194 -0.2347
12447W        W55364   1.519  19.256  20.399  0.4409 -0.0491  0.2338
12448W        W55365   2.126  22.045  20.294  0.1833  0.0899  0.1680
12449W        W55366  33.811  18.861  18.498  0.1197  0.2465  0.1913
12450W        W55367  34.252  18.800  19.264  0.1647 -0.1909  0.2812
12451W        W55368   0.841  19.343  19.329  0.1706  0.0250 -0.1122
12452W        W55369   1.237  20.583  19.281 -0.3266  0.1330 -0.2382
12453W        W55370   2.812  17.309  19.587  0.1540 -0.0409  0.1619
12454W        W55371   1.994  20.465  20.535 -0.0559  0.1002  0.3430
12455W        W55372   1.811  16.334  18.223 -0.2961 -0.1005  0.4018
12456W        W55373   3.838  22.174  17.779 -0.2095 -0.1059 -0.0214
12457W        W55374   3.378  19.568  18.397  0.3843 -0.1556 -0.0243
12458W        W55375   1.842  21.366  18.790  0.1679  0.0242  0.0626
12459W        W55376   1.146  19.800  18.120 -0.1898 -0.0060 -0.0519
12460W        W55377   0.421  21.139  18.118 -0.2713 -0.2336 -0.4539
12461W        W55378   0.644  16.570  19.169  0.2593  0.0464 -0.0500
12462W        W55379  34.244  20.669  18.310  0.4720 -0.0175  0.1933
12463W        W55380   1.785  21.705  17.849  0.4455  0.0774 -0.0520
12464W        W55381   0.305  21.669  19.966 -0.1039  0.1558  0.0367
12465W        W55382   2.254  19.412  18.021 -0.0364 -0.3257  0.1299
12466W        W55383   4.250  19.894  17.276  0.1387 -0.3545  0.1071
12467W        W55384   0.913  18.504  19.524  0.2653  0.4855 -0.1016
12468W        W55385   2.759  18.596  20.966 -0.0928  0.0700 -0.1592
12469W        W55386   2.307  20.169  16.791  0.0163 -0.2010 -0.0419
12470W        W55387   1.986  18.461  20.057 -0.2427  0.1068 -0.1277
12471W        W55388  34.299  15.677  19.923 -0.1500  0.0425  0.1978
12472W        W55389   2.642  20.768  17.838 -0.0526  0.0602  0.0934
12473W        W55390   1.095  20.486  21.865  0.0259  0.0845  0.0916
12474W        W55391   3.567  22.140  20.348  0.0428 -0.1525  0.0442
12475W        W55392   2.187  20.448  19.774 -0.0957  0.0920 -0.2994
12476W        W55393   2.310  19.212  18.921  0.0381  0.1193 -0.0217
12477W        W55394   3.341  17.915  18.112 -0.3478 -0.1056 -0.3263
12478W        W55395   1.279  18.405  17.840  0.1236  0.1983  0.2527
12479W        W55396   3.359  20.075  18.187  0.1561  0.2226 -0.0335
12480W        W55397   1.983  21.073  16.583  0.0945  0.1066 -0.0811
12481W        W55398   3.753  20.312  18.036  0.0255  0.0013  0.2009
12482W        W55399   0.137  20.658  19.350 -0.0715 -0.0010  0.1565
12483W        W55400   4.062  20.823  18.009  0.1332 -0.0949 -0.0189
12484W        W55401   2.737  18.975  17.573  0.0205 -0.2745  0.2385
12485W        W55402  33.634  21.506  20.363 -0.0864 -0.4381 -0.0599
12486W        W55403   1.969  19.030  19.513  0.0022 -0.0439 -0.0202
12487W        W55404   2.015  19.853  18.235 -0.2931  0.2541 -0.0792
12488W        W55405   4.007  19.961  19.350 -0.1808 -0.1738  0.0777
12489W        W55406   4.374  18.647  20.169  0.2175  0.1936  0.1896
12490W        W55407   2.900  19.399  18.421 -0.1596  0.0780 -0.2162
12491W        W55408   0.143  19.524  19.859  0.2238  0.0128 -0.1747
12492W        W55409   0.326  18.838  21.585  0.3773  0.0169 -0.3538
12493W        W55410   3.819  21.640  20.586  0.0252  0.1354 -0.3551
12494W        W55411   4.267  19.372  16.985 -0.0738 -0.3309  0.0396
12495W        W55412   3.947  18.141  17.682  0.2447 -0.1533 -0.1092
12496W        W55413   4.162  21.344  18.252  0.0176 -0.2248  0.1093
12497W        W55414   2.422  19.615  18.547 -0.0473 -0.3241 -0.1225
12498W        W55415  33.304  19.922  17.530 -0.0940 -0.1524 -0.2947
12499W        W55416   4.586  19.256  17.363  0.0749  0.0182  0.0591
12500W        W55417   0.228  17.751  16.836 -0.0043 -0.0890 -0.0555
12501W        W55418   2.360  18.261  19.462 -0.1923 -0.0262  0.1281
12502W        W55419   3.055  20.776  18.212  0.0392 -0.1296  0.1734
12503W        W55420   2.864  21.794  19.694  0.0553 -0.0069  0.0505
12504W        W55421   1.794  17.645  17.911  0.1281 -0.0354 -0.0629
12505W        W55422   0.729  19.688  19.008 -0.0185  0.1391 -0.1320
12506W        W55423  34.669  19.006  19.798  0.0652 -0.1062 -0.0749
12507W        W55424  33.807  19.319  18.252 -0.3898 -0.0821 -0.2134
12508W        W55425   3.109  21.061  17.640 -0.1154  0.3525 -0.1995
12509W        W55426   2.695  20.284  19.404 -0.0053  0.3671  0.0602
12510W        W55427   1.033  19.067  18.876  0.0039  0.0269 -0.3234
12511W        W55428   2.234  18.331  16.941  0.1945  0.3558  0.1307
12512W        W55429   4.498  20.168  19.155 -0.1406  0.1373  0.0859
12513W        W55430   2.259  20.929  18.103 -0.0886  0.0904  0.0464
12514W        W55431   1.842  18.481  17.884 -0.0615  0.1082 -0.0366
12515W        W55432   0.354  19.347  19.061 -0.1520 -0.0817  0.1129
12516W        W55433   0.064  19.296  18.544  0.1236  0.1145 -0.1445
12517W        W55434   2.597  22.535  18.200  0.2661 -0.0506 -0.4031
12518W        W55435   2.579  18.528  20.450 -0.1526 -0.1423  0.2813
12519W        W55436   1.748  19.250  19.898 -0.3160 -0.3528  0.0133
12520W        W55437   2.445  18.888  19.429 -0.1336  0.2407 -0.2933
12521W        W55438   2.878  18.344  19.535 -0.0825  0.0651 -0.1518
12522W        W55439   3.916  20.086  19.827 -0.3929  0.1372  0.0056
12523W        W55440   0.134  18.922  19.266  0.1615 -0.0686 -0.1060
12524W        W55441   3.042  22.423  20.042 -0.1858  0.0236 -0.0386
12525W        W55442   2.286  20.565  18.825 -0.4461 -0.0478  0.1567
12526W        W55443   0.221  19.778  18.967 -0.3127 -0.0140 -0.0214
12527W        W55444  33.066  19.108  20.274  0.2860 -0.1558 -0.1204
12528W        W55445  34.124  19.268  19.337 -0.1723 -0.0095  0.1162
12529W        W55446   3.089  19.878  19.534  0.2414 -0.0958  0.0361
12530W        W55447   1.752  20.377  18.424  0.0239 -0.0352  0.0276
12531W        W55448   1.672  21.882  17.269 -0.0507 -0.0343  0.2379
12532W        W55449   1.217  19.879  21.016  0.0247 -0.1401  0.0270
12533W        W55450  31.670  21.820  18.504 -0.0426  0.1444  0.2577
12534W        W55451   0.859  21.384  18.025  0.1714 -0.0295  0.1910
12535W        W55452   2.485  20.828  17.317 -0.2433 -0.0764 -0.0585
12536W        W55453   2.146  20.491  19.281 -0.2969  0.1070 -0.1888
12537W        W55454   1.950  21.225  17.693  0.0347 -0.0400  0.2673
12538W        W55455   1.502  17.863  18.533 -0.2454  0.2262 -0.4915
12539W        W55456   1.432  20.030  19.553 -0.1048  0.0399 -0.1807
12540W        W55457  33.310  22.590  18.587  0.1802  0.2677 -0.1083
12541W        W55458   2.374  21.405  16.195 -0.1977  0.0046 -0.0211
12542W        W55459   0.477  22.104  17.851  0.0663 -0.1662  0.2241
12543W        W55460   4.370  22.109  18.728  0.0544  0.3706  0.0758
12544W        W55461   3.459  18.660  16.809  0.1902  0.1862 -0.0949
12545W        W55462   3.134  19.556  18.984 -0.0635  0.0641  0.1206
12546W        W55463   3.190  21.271  18.137  0.0311  0.3486  0.0621
12547W        W55464   2.228  21.953  20.776  0.1175 -0.1840  0.2822
12548W        W55465  34.638  20.513  20.497 -0.3026  0.1723  0.0663
12549W        W55466   2.333  16.648  17.186  0.1138 -0.0643 -0.1020
12550W        W55467   1.236  20.678  19.782 -0.0975  0.0535  0.0072
12551W        W55468   3.450  16.380  22.615  0.0363  0.2444 -0.2244
12552W        W55469   1.987  22.766  20.509  0.1859  0.3752  0.0172
12553W        W55470   4.699  22.013  17.399  0.2833  0.1746 -0.0291
12554W        W55471  33.894  19.859  19.342 -0.0706  0.2144  0.1908
12555W        W55472   0.882  20.880  17.902 -0.0749 -0.0521 -0.3300
12556W        W55473   2.679  18.075  19.078 -0.1810  0.0332  0.1401
12557W        W55474   1.115  20.331  17.277  0.1544  0.2077 -0.2826
12558W        W55475   1.235  19.533  19.670  0.1007  0.2128 -0.0240
12559W        W55476   3.496  21.676  17.371 -0.3453  0.3204 -0.1696
12560W        W55477   2.168  21.447  18.145 -0.0500 -0.0921 -0.1315
12561W        W55478   2.126  21.264  20.089 -0.0205  0.0540 -0.0300
12562W        W55479  34.134  19.608  18.710 -0.2100 -0.0196  0.0422
12563W        W55480   3.726  19.749  17.863  0.2972 -0.1036  0.2435
12564W        W55481   2.595  19.723  19.490  0.0108  0.0475 -0.0533
12565W        W55482   2.614  18.472  19.963  0.0444 -0.3552  0.1169
12566W        W55483   2.424  20.979  19.009 -0.0888  0.1113 -0.0201
12567W        W55484   3.900  17.417  17.610  0.2248  0.1985  0.2220
12568W        W55485   3.055  20.121  19.117  0.1290  0.1014  0.1997
12569W        W55486   0.751  18.660  18.721 -0.2656 -0.0061 -0.4579
12570W        W55487   1.569  20.355  17.206 -0.0266  0.1225 -0.1937
12571W        W55488   2.476  20.371  20.177  0.0231 -0.1279 -0.1713
12572W        W55489   3.207  21.432  16.719 -0.0212  0.0797  0.1124
12573W        W55490   3.471  22.760  21.602 -0.2314  0.0516 -0.3619
12574W        W55491  34.651  18.375  16.973 -0.3271 -0.0073  0.0207
12575W        W55492   3.865  17.714  17.981  0.2363  0.0394  0.0253
12576W        W55493   0.781  20.455  17.601 -0.1678  0.2176  0.3047
12577W        W55494   1.768  19.709  17.819 -0.4825 -0.0625  0.4258
12578W        W55495   3.805  23.096  21.662  0.0556 -0.0060 -0.1105
12579W        W55496   0.198  19.216  17.487 -0.1192  0.1232  0.1699
12580W        W55497   3.653  21.208  16.724  0.0617 -0.1490  0.2062
12581W        W55498   2.521  21.283  17.726 -0.1131  0.0631 -0.0667
12582W        W55499   2.696  21.229  18.279  0.1323  0.1395  0.1717
12583W        W55500   3.859  19.896  18.318  0.3245 -0.2708  0.0516
12584W        W55501   3.054  22.475  18.458 -0.0600 -0.0563  0.0150
12585W        W55502  31.672  19.779  17.529  0.0333 -0.0558  0.0481
12586W        W55503   1.123  23.195  18.458  0.1746  0.0037 -0.0080
12587W        W55504   2.298  21.642  19.846  0.1457  0.1543 -0.1218
12588W        W55505  33.564  19.510  19.189  0.1294  0.0810 -0.2439
12589W        W55506   3.561  17.766  17.554  0.4018 -0.0557  0.1799
12590W        W55507   3.284  21.138  18.583 -0.0234 -0.2431 -0.4198
12591W        W55508   4.064  19.078  17.358 -0.0791  0.2254  0.0259
12592W        W55509   0.125  20.066  20.052 -0.2511 -0.1173 -0.0631
12593W        W55510   2.616  22.481  18.702  0.0474  0.0384  0.2040
12594W        W55511   3.554  16.632  19.512 -0.0853  0.1078 -0.0955
12595W        W55512   2.618  21.514  18.907  0.2290  0.2824  0.1311
12596W        W55513   0.796  22.815  20.887  0.1795  0.0994 -0.3549
12597W        W55514  33.809  18.405  16.679 -0.1800 -0.1856 -0.0066
12598W        W55515   2.643  19.661  18.979 -0.3037 -0.2214 -0.1387
12599W        W55516   0.900  20.363  19.551  0.2033 -0.1394 -0.2281
12600W        W55517   3.251  19.015  19.111  0.0611  0.0031 -0.0887
12601W        W55518   4.546  22.724  19.954  0.1874 -0.4206  0.0653
12602W        W55519   2.883  20.670  18.966 -0.1538  0.2819 -0.0645
12603W        W55520   4.565  21.105  18.301  0.1590  0.0168 -0.0897
12604W        W55521   0.586  18.596  16.760  0.1199  0.1438  0.2625
12605W        W55522   3.956  20.110  17.638 -0.1547  0.1635  0.0987
12606W        W55523   3.104  17.481  18.216 -0.3325  0.0767  0.0343
12607W        W55524   1.336  19.037  19.620 -0.2262  0.2192 -0.0483
12608W        W55525  33.567  19.971  17.961  0.1550 -0.0570 -0.1931
12609W        W55526   0.122  21.292  17.793  0.1365  0.1328 -0.1400
12610W        W55527   0.668  19.884  18.112  0.2128  0.4938  0.2798
12611W        W55528   2.725  17.048  22.293  0.4121 -0.2725  0.0512
12612W        W55529   0.033  20.071  19.512 -0.0419 -0.0389  0.1094
12613W        W55530   2.110  18.937  17.947 -0.1324  0.0540  0.2083
12614W        W55531   0.587  18.806  17.403 -0.2818  0.0516 -0.1686
12615W        W55532   2.745  21.918  18.717  0.2166 -0.0864 -0.2085
12616W        W55533  34.533  17.593  19.997 -0.0569  0.1864 -0.0603
12617W        W55534  32.484  20.060  18.744 -0.1764 -0.3911 -0.2134
12618W        W55535   3.173  22.971  17.236  0.0910 -0.0226 -0.0355
12619W        W55536   4.709  20.136  17.931  0.1158 -0.2187  0.0367
12620W        W55537   0.439  20.823  17.555 -0.3235 -0.3726  0.3504
12621W        W55538   3.443  20.581  21.962  0.2914  0.0779 -0.2120
12622W        W55539  33.936  20.242  17.768  0.1533  0.3045 -0.0653
12623W        W55540   1.701  19.751  20.611 -0.3682 -0.0214  0.1390
12624W        W55541   1.637  19.750  19.928 -0.0114  0.0933  0.0037
12625W        W55542  33.316  18.860  17.307  0.4612  0.1427  0.0686
12626W        W55543   3.348  20.155  20.193  0.3335  0.1895  0.3254
12627W        W55544   2.615  21.241  19.680  0.0097 -0.0623  0.0240
12628W        W55545   3.448  21.634  18.410  0.2371 -0.0838  0.0109
12629W        W55546   1.060  19.556  18.625  0.1846  0.1266  0.0315
12630W        W55547   0.252  21.397  20.465  0.0610 -0.1649 -0.0403
12631W        W55548  33.937  19.144  18.876  0.2760  0.1055  0.0277
12632W        W55549   5.047  20.847  17.079  0.3665  0.3109  0.0745
12633W        W55550   1.955  20.005  20.245 -0.1287  0.3462 -0.1686
12634W        W55551   3.815  20.905  17.094 -0.3485 -0.1236 -0.1182
12635W        W55552   3.806  16.970  17.198  0.0835  0.0493 -0.2288
12636W        W55553   2.472  20.065  17.220 -0.1685  0.1957  0.1825
12637W        W55554  34.578  17.660  18.689  0.3349  0.1002 -0.1577
12638W        W55555   1.697  22.550  19.445  0.1246 -0.3605  0.0466
12639W        W55556   3.902  19.297  20.916 -0.1098  0.2190  0.1954
12640W        W55557  34.383  18.116  20.434 -0.0594  0.0961 -0.0330
12641W        W55558   3.267  18.193  17.552  0.1714  0.1382  0.1109
12642W        W55559   2.568  18.920  16.771  0.1106  0.1072 -0.0623
12643W        W55560  32.813  19.015  17.416 -0.2256  0.2826  0.1563
12644W        W55561   2.886  18.504  17.457  0.4629 -0.1279  0.0528
12645W        W55562   1.619  20.311  21.020  0.0503  0.0347 -0.0580
12646W        W55563   3.003  20.852  19.592 -0.1732 -0.0079  0.0628
12647W        W55564   3.811  20.504  20.100 -0.1991 -0.1204 -0.0586
12648W        W55565  33.419  20.966  18.367  0.0713 -0.1747 -0.3326
12649W        W55566   3.753  19.144  16.935  0.0372 -0.0547  0.0199
12650W        W55567   1.903  22.199  19.777  0.2436  0.0372 -0.0530
12651W        W55568   2.891  22.994  20.144 -0.0739  0.1627  0.0323
12652W        W55569   4.320  22.302  19.930  0.0303  0.0039 -0.2905
12653W        W55570   3.864  21.410  17.273 -0.2299 -0.1177  0.1690
12654W        W55571   0.174  18.385  18.245 -0.3962  0.3439 -0.2341
12655W        W55572  34.671  20.426  18.144 -0.1757  0.2760 -0.2660
12656W        W55573   2.090  20.104  18.705 -0.1547 -0.2452  0.0922
12657W        W55574   4.393  18.192  17.926 -0.1419 -0.0349 -0.0691
12658W        W55575  33.093  19.012  19.693 -0.0370  0.4220 -0.1100
12659W        W55576   2.057  16.773  17.605  0.2469  0.0443 -0.0619
12660W        W55577   1.698  21.301  16.912 -0.0881  0.0011  0.1016
12661W        W55578   2.167  21.765  18.873 -0.1846 -0.2147 -0.0376
12662W        W55579   0.015  18.798  24.214 -0.1037 -0.1357  0.0690
12663W        W55580   0.146  19.698  20.922  0.2460  0.0062  0.0742
12664W        W55581   3.562  19.832  19.285 -0.2293  0.2667  0.1139
12665W        W55582   4.642  18.801  20.845  0.0856 -0.0077  0.0780
12666W        W55583   1.060  18.092  22.446 -0.0750 -0.0552 -0.0555
12667W        W55584   4.243  19.982  21.969  0.3148 -0.1845 -0.2307
12668W        W55585   1.035  17.783  23.524 -0.1665 -0.1366  0.0191
12669W        W55586   3.633  21.089  21.792 -0.0124 -0.0514 -0.3796
12670W        W55587   4.705  20.126  23.906 -0.1413  0.0122  0.0654
12671W        W55588   0.756  18.886  20.464 -0.0340 -0.1839 -0.0506
12672W        W55589   2.582  19.922  23.384 -0.0479  0.1887  0.2678
12673W        W55590  32.508  20.752  21.547 -0.0116 -0.0720 -0.0308
12674W        W55591   1.363  20.461  24.088  0.1975 -0.1614  0.2694
12675W        W55592  32.921  15.957  21.573 -0.2313  0.1606  0.0236
12676W        W55593   2.707  19.409  22.392  0.1579 -0.2425 -0.1954
12677W        W55594  33.978  18.785  21.895 -0.4298  0.1743  0.0922
12678W        W55595   1.408  21.561  23.451  0.1100 -0.1745  0.0227
12679W        W55596   0.853  20.733  22.175 -0.0633 -0.0447 -0.1927
12680W        W55597   4.749  21.060  19.310 -0.0294  0.1944 -0.0893
12681W        W55598   0.371  20.791  23.888  0.1234  0.0282 -0.0271
12682W        W55599   1.045  19.714  24.527 -0.1528  0.1589 -0.5385
12683W        W55600   3.411  20.883  20.465 -0.3384 -0.0345  0.0196
12684W        W55601  33.011  19.862  19.856  0.1146  0.0827 -0.1885
12685W        W55602  33.478  20.088  20.175  0.0628 -0.1763  0.1514
12686W        W55603  34.575  18.049  25.211 -0.0912 -0.1281  0.0062
12687W        W55604   4.238  17.777  21.888  0.1350  0.6209 -0.0224
12688W        W55605   2.256  20.630  23.212  0.4902 -0.1255 -0.1802
12689W        W55606   1.813  20.978  21.571  0.2280  0.2310  0.2797
12690W        W55607   1.267  20.746  22.853 -0.0638 -0.0994  0.0121
12691W        W55608   2.444  19.078  24.631  0.4832 -0.2006  0.1029
12692W        W55609   0.576  20.272  20.915 -0.1380  0.0920 -0.2069
12693W        W55610   0.100  20.876  20.949 -0.0542 -0.2797  0.0048
12694W        W55611   3.213  21.564  20.624 -0.0459  0.2234 -0.0076
12695W        W55612   4.383  20.669  22.919 -0.0426  0.1584 -0.0802
12696W        W55613   0.385  21.436  23.656 -0.1065  0.0320  0.1249
12697W        W55614   3.821  21.980  22.059 -0.0442  0.3446 -0.3014
12698W        W55615   0.867  20.233  20.491  0.0626 -0.1192  0.3200
12699W        W55616   2.998  20.790  22.291  0.1384  0.2920 -0.0166
12700W        W55617  34.500  20.889  21.929  0.1387  0.0252 -0.2012
12701W        W55618   2.315  19.794  22.214 -0.1571 -0.0222  0.0545
12702W        W55619   2.166  19.312  23.241  0.1886 -0.1347  0.2442
12703W        W55620   2.713  20.522  21.296  0.0330  0.1183 -0.1554
12704W        W55621   2.256  21.144  22.365 -0.1258  0.0802 -0.0365
12705W        W55622   1.278  22.664  22.912  0.0196 -0.2438 -0.1174
12706W        W55623  34.239  21.744  21.907 -0.0758 -0.0275  0.0072
12707W        W55624   2.676  17.984  23.426  0.2525  0.2027 -0.2345
12708W        W55625   0.125  21.447  19.485 -0.0709 -0.1265 -0.0280
12709W        W55626   2.722  20.278  22.159 -0.0520 -0.0811 -0.0685
12710W        W55627   0.610  19.910  20.216 -0.0688  0.6507  0.1129
12711W        W55628   3.113  19.574  21.036  0.0128  0.1899 -0.0578
12712W        W55629  33.148  18.238  21.408  0.1999  0.0313  0.0067
12713W        W55630   0.642  22.739  21.915 -0.3306  0.2224 -0.1546
12714W        W55631   1.088  18.667  22.879  0.3429 -0.0999  0.1248
12715W        W55632   1.704  18.892  23.439  0.1261  0.0491 -0.2906
12716W        W55633   2.350  19.052  22.714  0.0357  0.1552 -0.0517
12717W        W55634   1.602  18.337  24.291 -0.0379 -0.0492 -0.2768
12718W        W55635   2.007  19.980  21.562  0.2434 -0.3655 -0.1312
12719W        W55636   0.450  18.685  23.955 -0.1340 -0.2985 -0.4493
12720W        W55637   3.932  22.111  20.975  0.0578 -0.0937 -0.1674
12721W        W55638   5.216  21.892  21.455  0.2079 -0.0817 -0.2893
12722W        W55639  34.614  19.722  20.431 -0.0014  0.2735 -0.2340
12723W        W55640   0.519  20.122  19.221 -0.1278  0.2384  0.0578
12724W        W55641   1.932  21.630  24.795  0.1290 -0.0771 -0.3377
12725W        W55642  30.902  19.475  24.650  0.2810 -0.3743 -0.0797
12726W        W55643  34.372  17.445  21.206 -0.0177 -0.3189 -0.0269
12727W        W55644   4.373  19.805  23.122  0.0208 -0.0071 -0.1203
12728W        W55645   1.567  19.772  21.419  0.6489 -0.0990 -0.2257
12729W        W55646   3.252  16.528  23.296 -0.0651 -0.1488  0.1240
12730W        W55647   2.068  19.721  21.155  0.0965  0.0322 -0.1476
12731W        W55648   2.642  18.918  23.203 -0.2571 -0.0428 -0.0893
12732W        W55649   1.181  19.690  20.507  0.1168 -0.2259 -0.2927
12733W        W55650   2.499  17.476  21.009  0.3082  0.0177  0.0279
12734W        W55651   2.061  17.855  23.450  0.0028  0.3684 -0.1262
12735W        W55652   0.915  19.851  19.470 -0.2551 -0.0460  0.1646
12736W        W55653   1.426  18.417  19.742 -0.1642  0.1387  0.1142
12737W        W55654   3.890  21.427  22.243 -0.2456  0.0182  0.0070
12738W        W55655   2.912  19.855  20.276 -0.1684 -0.1666 -0.1450
12739W        W55656   1.953  21.628  23.429  0.0234 -0.1860  0.1516
12740W        W55657   0.736  18.956  24.913  0.2980  0.2802 -0.1236
12741W        W55658   1.424  20.716  21.345  0.1658  0.2569 -0.5061
12742W        W55659   0.264  22.780  19.345  0.3624  0.3042 -0.3914
12743W        W55660  33.709  21.887  21.324  0.1706  0.2020  0.1559
12744W        W55661   0.301  20.535  21.298 -0.2943  0.1862  0.3729
12745W        W55662  34.151  19.067  24.005  0.1649  0.0367  0.2266
12746W        W55663  34.198  19.669  22.269  0.0349 -0.0613  0.5829
12747W        W55664   4.336  17.069  21.394  0.1058 -0.1188  0.1355
12748W        W55665  34.260  19.113  22.703 -0.3460 -0.0651 -0.0013
12749W        W55666   2.803  16.689  23.506 -0.0408  0.1321  0.2152
12750W        W55667   0.745  21.546  21.063 -0.0326  0.0686  0.1556
12751W        W55668   3.363  22.624  22.436 -0.0133  0.0673 -0.0920
12752W        W55669   3.417  19.159  21.512  0.1582 -0.0834  0.3463
12753W        W55670   4.751  21.574  23.402  0.1378 -0.2216 -0.3067
12754W        W55671   0.809  19.481  25.006 -0.0108  0.0502 -0.2199
12755W        W55672   1.997  19.672  22.928  0.1992  0.4845  0.0263
12756W        W55673   1.246  18.111  25.964  0.2519  0.1376 -0.0135
12757W        W55674   1.541  18.154  22.225  0.1865  0.2062  0.0108
12758W        W55675   3.636  21.695  23.403 -0.1547  0.0964  0.1877
12759W        W55676  33.837  16.996  22.390 -0.4847 -0.2710 -0.1503
12760W        W55677   2.481  18.433  21.377 -0.1314 -0.1711  0.0603
12761W        W55678   0.255  17.804  21.770 -0.1404 -0.0519  0.0048
12762W        W55679   1.074  20.332  21.344 -0.3410  0.2010 -0.1111
12763W        W55680   3.786  19.309  22.351  0.2417 -0.0302  0.2067
12764W        W55681   3.838  20.550  19.618  0.2858  0.1572  0.1182
12765W        W55682   3.340  20.637  24.122  0.3379  0.1473 -0.1415
12766W        W55683   2.008  20.223  22.839  0.4198 -0.0140 -0.0475
12767W        W55684  33.832  19.675  21.736 -0.3572 -0.1320 -0.0449
12768W        W55685   2.043  17.725  22.169 -0.0093 -0.0138 -0.0244
12769W        W55686   2.983  23.345  21.119  0.2862 -0.0743 -0.0220
12770W        W55687   1.261  21.134  23.708 -0.1587  0.2352 -0.1756
12771W        W55688   0.699  17.748  20.563  0.1119 -0.1492  0.0614
12772W        W55689   5.865  23.904  19.690 -0.3087  0.1353  0.0459
12773W        W55690   2.269  18.863  22.278 -0.0400  0.3531  0.0400
12774W        W55691  33.237  21.182  22.786  0.0591 -0.0025  0.1885
12775W        W55692   2.231  18.249  24.230  0.1965 -0.0392  0.0298
12776W        W55693   2.735  21.943  23.730 -0.0677 -0.4924  0.1072
12777W        W55694   2.550  19.617  23.849 -0.1578  0.1787 -0.0665
12778W        W55695   0.423  18.568  20.605  0.1845 -0.1854  0.1571
12779W        W55696   2.874  18.168  22.398  0.0041 -0.0397  0.1095
12780W        W55697  34.019  22.206  20.958  0.3584  0.0400 -0.3154
12781W        W55698  34.091  19.683  21.315 -0.2298 -0.0556  0.1577
12782W        W55699   3.311  21.590  22.997  0.1870  0.0555  0.1280
12783W        W55700   1.517  16.281  22.402 -0.1430  0.1321 -0.4032
12784W        W55701   0.226  19.875  24.339  0.2724 -0.0350  0.1991
12785W        W55702   3.261  18.910  25.343  0.0036 -0.0014  0.1046
12786W        W55703   0.936  17.570  20.962  0.0929  0.1173 -0.0969
12787W        W55704  34.567  19.960  23.996 -0.0341 -0.2228 -0.0923
12788W        W55705   1.905  19.008  21.971  0.1049 -0.3021 -0.1467
12789W        W55706   4.965  17.118  22.114  0.2289  0.0111  0.1644
12790W        W55707   2.451  20.712  22.357 -0.3217  0.0201  0.0961
12791W        W55708   5.157  22.485  23.391  0.0652 -0.0933 -0.0176
12792W        W55709   4.106  20.760  18.554  0.1195 -0.1611  0.1545
12793W        W55710   3.126  18.099  22.907 -0.1142  0.0353  0.1777
12794W        W55711   1.463  18.910  22.134  0.1375  0.0139 -0.1796
12795W        W55712   2.467  20.673  20.587 -0.2478  0.0947 -0.0993
12796W        W55713   1.593  20.627  21.905 -0.0880  0.3836 -0.0284
12797W        W55714   0.950  20.805  21.448 -0.1611  0.2760 -0.0937
12798W        W55715   3.822  22.959  22.578  0.0057  0.1364 -0.4359
12799W        W55716  33.620  19.991  22.964  0.0016 -0.0838  0.1793
12800W        W55717   3.117  20.189  24.418 -0.1976 -0.1244 -0.1184
12801W        W55718   2.320  20.301  21.756  0.3234  0.0597 -0.0454
12802W        W55719   1.937  18.484  22.081  0.1222  0.3339 -0.3554
12803W        W55720   3.055  20.442  20.528 -0.0927 -0.1950 -0.1671
12804W        W55721   1.315  18.178  23.968 -0.1382 -0.0193  0.0735
12805W        W55722   1.939  20.886  18.596  0.1044 -0.0960 -0.1176
12806W        W55723   2.720  18.556  23.602  0.3449 -0.1047 -0.0179
12807W        W55724   0.120  18.090  22.534 -0.1419 -0.0861 -0.1126
12808W        W55725  34.603  18.230  23.887  0.2393  0.1612  0.0019
12809W        W55726   3.126  19.575  22.728 -0.1479  0.1291 -0.0900
12810W        W55727   1.441  17.561  21.019  0.0872 -0.0144  0.2593
12811W        W55728   1.765  19.421  23.524 -0.3270  0.0707 -0.0373
12812W        W55729  34.667  19.624  22.131 -0.2357 -0.2442 -0.0714
12813W        W55730   2.195  18.888  23.529  0.1190  0.0903 -0.0264
12814W        W55731   0.728  20.964  22.788  0.1221  0.0997  0.2552
12815W        W55732  34.520  21.291  21.274 -0.0249 -0.1072 -0.0467
12816W        W55733   2.577  19.334  25.094  0.0595  0.0266  0.1602
12817W        W55734   3.583  20.187  24.205 -0.1905  0.1591  0.0903
12818W        W55735   2.921  19.657  24.238  0.0004 -0.0281 -0.1482
12819W        W55736   1.963  21.439  20.980 -0.0130  0.2045 -0.3001
12820W        W55737   2.405  22.486  20.856 -0.0256 -0.0137 -0.1619
12821W        W55738   2.362  21.207  20.660 -0.2165 -0.1565  0.0390
12822W        W55739   1.704  17.701  20.587 -0.0440 -0.2496  0.0180
12823W        W55740  34.588  21.006  22.474  0.0191  0.0559 -0.2416
12824W        W55741   1.773  20.694  22.966  0.0902  0.0126  0.0065
12825W        W55742   4.215  20.279  23.148  0.2477 -0.3706  0.0919
12826W        W55743   1.821  20.582  23.455 -0.1964  0.0128 -0.0571
12827W        W55744   2.565  19.117  23.734 -0.2283 -0.0973 -0.1936
12828W        W55745   0.739  20.611  19.175  0.0190  0.1096  0.4441
12829W        W55746   1.315  18.555  22.439  0.0517  0.2484  0.0123
12830W        W55747  34.022  20.245  22.206 -0.1044 -0.0578 -0.4160
12831W        W55748  34.303  19.374  21.782  0.0134 -0.3413 -0.2859
12832W        W55749   2.634  21.705  20.634 -0.2913  0.1159 -0.1703
12833W        W55750   2.056  17.460  22.710  0.0202  0.0593 -0.0562
12834W        W55751   1.015  17.377  23.792 -0.1094  0.2014  0.0277
12835W        W55752   0.367  20.493  23.513  0.2619  0.2986 -0.0510
12836W        W55753   0.229  20.054  21.834 -0.0051 -0.1780  0.2527
12837W        W55754   3.461  18.099  20.857 -0.1515  0.0152 -0.0007
12838W        W55755   0.927  19.856  21.809  0.1334  0.2331  0.1986
12839W        W55756   1.259  20.673  23.537  0.2213 -0.1913 -0.1419
12840W        W55757   3.327  19.753  19.917  0.3962  0.1020  0.1088
12841W        W55758   3.756  18.516  22.200  0.0849  0.0097  0.3533
12842W        W55759   2.998  17.702  23.770 -0.1383  0.0928  0.0903
12843W        W55760   0.140  20.960  21.530  0.2186  0.1794  0.0168
12844W        W55761   2.717  21.732  22.416  0.1050 -0.1980 -0.0445
12845W        W55762   0.667  19.818  20.691 -0.1099 -0.0057 -0.0333
12846W        W55763  32.760  21.153  20.150  0.3773  0.0155  0.1270
12847W        W55764  33.866  19.470  23.905 -0.2520  0.0255 -0.0800
12848W        W55765   1.759  20.115  23.239 -0.0661 -0.2987 -0.0235
12849W        W55766   2.185  18.146  22.382 -0.1103  0.1475  0.1860
12850W        W55767   1.994  19.376  20.805  0.2326  0.0006  0.0311
12851W        W55768   3.566  19.767  23.625  0.1746 -0.1118 -0.1834
12852W        W55769   3.583  17.515  24.472  0.1003 -0.1794  0.1846
12853W        W55770   0.181  19.213  22.445  0.2790 -0.1167  0.0107
12854W        W55771  34.106  21.909  22.692  0.1826  0.0943  0.1242
12855W        W55772   0.777  20.959  20.011 -0.0428  0.4573 -0.0151
12856W        W55773   4.832  21.053  22.613  0.0611  0.1306 -0.1931
12857W        W55774   3.918  20.566  23.431 -0.1800 -0.1433 -0.4615
12858W        W55775  34.360  19.349  20.061  0.3351  0.1606  0.1585
12859W        W55776  34.487  20.442  22.180  0.2901  0.0690 -0.1712
12860W        W55777   2.213  20.299  22.367  0.0561 -0.0149  0.2417
12861W        W55778   2.911  17.512  23.120  0.2634 -0.1375 -0.3094
12862W        W55779  34.546  20.390  21.692  0.0201 -0.0475  0.0030
12863W        W55780   3.826  21.124  21.265  0.2205 -0.2171  0.1414
12864W        W55781   2.239  21.086  21.133  0.0603  0.0223 -0.0370
12865W        W55782   3.079  19.243  21.881  0.0386  0.0076 -0.1538
12866W        W55783   1.585  20.276  19.916  0.0277  0.0738 -0.1348
12867W        W55784   3.268  16.830  22.681  0.0963 -0.1859  0.2286
12868W        W55785   2.844  18.306  21.727 -0.1558 -0.0999  0.0220
12869W        W55786   0.889  18.526  21.422 -0.1548  0.3965 -0.1437
12870W        W55787   1.340  19.187  23.628 -0.0572 -0.0675 -0.2916
12871W        W55788   3.029  17.271  22.685  0.0719  0.0578  0.0630
12872W        W55789   2.876  19.719  21.949  0.0687 -0.1755  0.2438
12873W        W55790   1.306  19.744  23.927  0.2193 -0.0592 -0.1772
12874W        W55791   1.333  21.405  22.217 -0.0740 -0.1624 -0.4346
12875W        W55792   1.389  21.119  23.197  0.0689  0.2267 -0.1160
12876W        W55793   1.303  18.041  21.807  0.3016  0.1325  0.0163
12877W        W55794   0.704  17.256  19.341 -0.3179 -0.2700  0.1390
12878W        W55795   0.904  18.913  23.733 -0.0275 -0.0772 -0.1405
12879W        W55796   1.351  18.569  23.362  0.1744 -0.0360 -0.0926
12880W        W55797   1.590  17.911  21.418 -0.2549 -0.1120 -0.0288
12881W        W55798   1.197  17.905  20.654 -0.1347  0.1450  0.0355
12882W        W55799  34.054  20.256  23.056 -0.0281 -0.0521  0.1032
12883W        W55800   3.170  18.589  22.221  0.2630 -0.1742 -0.0263
12884W        W55801   3.406  19.016  20.493 -0.0840  0.0427 -0.1617
12885W        W55802   0.796  20.725  20.946  0.0860 -0.2892 -0.0184
12886W        W55803   1.288  19.842  23.256  0.1515  0.1536 -0.0360
12887W        W55804   2.869  18.846  24.465  0.0572  0.0346  0.2899
12888W        W55805   1.602  17.656  21.959  0.0652 -0.2373  0.2753
12889W        W55806   1.450  18.682  23.847 -0.2654  0.1691  0.0540
12890W        W55807   2.050  19.320  22.368 -0.1823 -0.0759  0.2067
12891W        W55808   1.626  19.229  24.043 -0.0455 -0.0833  0.1473
12892W        W55809  34.515  17.629  23.147  0.1275 -0.1999  0.2169
12893W        W55810   4.403  20.999  24.673 -0.2527 -0.0540  0.1729
12894W        W55811   3.220  20.646  20.018  0.2066  0.0843 -0.2199
12895W        W55812   2.148  17.940  22.897 -0.0074 -0.0461 -0.1654
12896W        W55813   1.806  18.352  21.632 -0.1679 -0.0261  0.1135
12897W        W55814   2.522  19.265  21.995 -0.0659  0.1363  0.2365
12898W        W55815   0.286  16.803  23.534  0.1155 -0.2076 -0.2364
12899W        W55816   2.199  20.091  24.725  0.2222 -0.1176 -0.2507
12900W        W55817   1.697  20.401  18.893 -0.0743 -0.0720 -0.3001
12901W        W55818   1.554  18.682  24.825  0.0827 -0.1017 -0.1232
12902W        W55819   4.229  22.413  23.195  0.1199 -0.0352 -0.1224
12903W        W55820   3.408  19.780  23.082 -0.0215  0.0799 -0.2512
12904W        W55821   1.775  17.888  22.551  0.0520  0.1284  0.1215
12905W        W55822  34.446  18.982  22.273 -0.1930 -0.0037 -0.0532
12906W        W55823   1.609  22.483  23.842  0.2202 -0.2780 -0.0365
12907W        W55824   1.509  20.797  20.305  0.1124  0.2951 -0.0156
12908W        W55825   2.613  19.458  22.898  0.2609  0.2094 -0.0024
12909W        W55826   1.301  22.190  21.988 -0.3027 -0.0484 -0.3289
12910W        W55827   1.899  20.196  25.378 -0.0194 -0.1382  0.3206
12911W        W55828   1.486  19.439  20.938  0.5798 -0.0553  0.0734
12912W        W55829   3.164  20.253  23.232 -0.1071  0.7418  0.0009
12913W        W55830   1.436  20.740  20.810 -0.2041  0.3032 -0.0542
12914W        W55831   2.498  18.411  23.176  0.0137  0.2390  0.2932
12915W        W55832   3.162  21.657  22.032  0.0417  0.0075 -0.0737
12916W        W55833   1.722  21.100  22.080 -0.0671  0.3043  0.1294
12917W        W55834   2.380  20.780  21.482  0.2991  0.2071  0.1059
12918W        W55835   1.519  18.389  25.209 -0.0761  0.0079  0.0542
12919W        W55836   1.697  18.604  20.572  0.3720  0.0912 -0.4042
12920W        W55837   2.355  19.681  24.532  0.0365 -0.2716  0.0757
12921W        W55838   5.506  18.014  22.453 -0.0302  0.2648  0.2463
12922W        W55839   2.549  18.462  22.176 -0.0355  0.1075 -0.0969
12923W        W55840   2.104  20.705  21.963  0.1661  0.0401 -0.1465
12924W        W55841   1.515  19.452  22.321 -0.1273  0.1653  0.0714
12925W        W55842   3.487  18.924  22.053  0.1069 -0.0524 -0.0703
12926W        W55843   1.010  19.387  21.996  0.0800  0.0585 -0.0790
12927W        W55844  33.903  18.721  23.090  0.0955  0.1782 -0.0171
12928W        W55845   0.176  20.168  22.933 -0.3014  0.0890  0.4974
12929W        W55846   1.192  20.845  24.823  0.1504  0.3092  0.0410
12930W        W55847   0.981  18.945  22.305  0.3890  0.3594  0.2813
12931W        W55848   4.117  21.433  20.248  0.1307  0.2080  0.6644
12932W        W55849   2.231  21.734  23.851 -0.1622  0.1597  0.1433
12933W        W55850   0.254  20.369  22.483  0.1146  0.0915  0.0204
12934W        W55851   1.258  21.239  19.763 -0.2952  0.1438 -0.1009
12935W        W55852   4.571  18.207  20.072  0.0479  0.3094 -0.1699
12936W        W55853   1.723  21.780  20.764  0.1362  0.0174 -0.1898
12937W        W55854   6.808  21.732  22.406  0.1660  0.1424 -0.2070
12938W        W55855   0.246  20.652  21.982 -0.0220  0.0997 -0.0413
12939W        W55856   2.894  22.401  22.384  0.0285  0.3320 -0.1565
12940W        W55857  31.943  21.305  20.923  0.1954 -0.2529  0.0778
12941W        W55858   2.527  23.716  19.458 -0.4780 -0.0195  0.0617
12942W        W55859   2.416  21.594  21.056 -0.2929 -0.2379 -0.1278
12943W        W55860   5.084  18.810  23.108 -0.4610 -0.1585  0.3639
12944W        W55861   0.697  18.890  19.200 -0.2718 -0.1469  0.1299
12945W        W55862   1.473  19.716  22.810 -0.0259 -0.1285  0.2300
12946W        W55863   3.871  16.368  20.959  0.0558 -0.2783  0.2793
12947W        W55864   2.281  20.511  24.422  0.2183 -0.1591  0.2056
12948W        W55865   1.825  19.202  22.859 -0.1884 -0.3049  0.4569
12949W        W55866   2.421  19.754  21.743 -0.2013 -0.0051  0.2041
12950W        W55867   2.672  21.161  21.504 -0.0517 -0.0051 -0.1123
12951W        W55868   3.091  17.627  22.185 -0.1527 -0.0438 -0.1317
12952W        W55869   0.096  21.510  23.200 -0.1293 -0.0450  0.0322
12953W        W55870   2.755  20.260  20.894  0.3207 -0.0366 -0.0058
12954W        W55871   0.522  19.200  20.873  0.1444  0.4361  0.0319
12955W        W55872   3.427  18.055  22.529  0.0251  0.2470  0.0654
12956W        W55873   2.480  17.369  24.517 -0.0305 -0.0925  0.1514
12957W        W55874   1.599  21.322  20.193 -0.1173 -0.0215  0.1042
12958W        W55875   3.222  19.204  22.374 -0.0953 -0.1827 -0.3417
12959W        W55876   3.776  19.877  22.072 -0.1473  0.1745 -0.1484
12960W        W55877   1.597  18.752  22.937 -0.2640 -0.0173  0.6729
12961W        W55878   2.860  21.911  22.951  0.1988  0.2693 -0.2104
12962W        W55879   0.731  19.493  22.600  0.0066 -0.0836 -0.1976
12963W        W55880   3.613  19.560  21.286 -0.0356  0.0992  0.2433
12964W        W55881   2.114  19.755  23.596 -0.2393  0.2465  0.0922
12965W        W55882   4.028  17.955  23.781  0.1127  0.1920  0.0191
12966W        W55883   1.167  18.581  24.225 -0.3429 -0.2530 -0.0266
12967W        W55884   4.858  21.527  20.613  0.4632 -0.1853  0.1592
12968W        W55885   1.264  19.116  24.934  0.1950 -0.3593 -0.1183
12969W        W55886  34.310  19.088  25.293 -0.0664  0.0388 -0.2314
12970W        W55887   2.942  21.033  20.524 -0.3436 -0.2675 -0.0267
12971W        W55888   3.115  16.993  23.231 -0.2043  0.0753 -0.0553
12972W        W55889   1.986  20.672  20.953  0.1893 -0.3457 -0.5949
12973W        W55890   5.594  24.541  22.846  0.2171 -0.1652  0.1764
12974W        W55891   1.592  18.782  20.090  0.1845 -0.0622  0.2778
12975W        W55892   1.487  19.320  21.760  0.1015 -0.0225 -0.1068
12976W        W55893   2.218  18.157  21.751 -0.0710 -0.2558 -0.1213
12977W        W55894   1.166  21.181  22.702  0.2697 -0.0288 -0.0726
12978W        W55895   3.542  20.766  23.172  0.3436 -0.2514 -0.1984
12979W        W55896   1.804  18.853  22.507  0.4235 -0.0818  0.1344
12980W        W55897   4.477  21.444  18.798  0.1711 -0.0073 -0.1468
12981W        W55898   3.252  19.715  21.609 -0.1060 -0.3285  0.1636
12982W        W55899   3.899  22.531  20.172  0.0330  0.1981  0.3058
12983W        W55900   1.907  19.529  21.886 -0.1520 -0.1312 -0.1229
12984W        W55901   2.941  22.570  20.542  0.3229 -0.0077  0.0189
12985W        W55902   0.559  19.296  23.635 -0.5481 -0.0422 -0.0820
12986W        W55903   3.655  19.831  22.552  0.0688 -0.1442  0.2055
12987W        W55904   3.455  20.244  22.787 -0.1540 -0.2317 -0.0068
12988W        W55905   1.064  18.986  21.730 -0.0437 -0.0649 -0.0516
12989W        W55906   1.107  17.652  21.520  0.0447 -0.3978 -0.1010
12990W        W55907   1.671  21.077  21.088 -0.0913  0.2761 -0.0105
12991W        W55908   2.728  17.313  21.439  0.2342  0.0127 -0.0791
12992W        W55909   2.826  20.129  21.620  0.0703 -0.1524  0.2531
12993W        W55910   2.108  21.939  19.391  0.0314 -0.0510 -0.0110
12994W        W55911   2.456  18.742  24.117  0.0966  0.1908  0.0905
12995W        W55912   1.352  19.993  25.376 -0.0996  0.0917  0.1083
12996W        W55913   1.685  21.810  22.199  0.1423 -0.1870 -0.0878
12997W        W55914   0.435  19.201  19.541  0.1352 -0.2160  0.0398
12998W        W55915   1.665  20.070  24.918  0.0149  0.1367  0.2233
12999W        W55916   1.868  20.247  22.011 -0.0916  0.0001  0.0162
13000W        W55917   5.205  21.869  20.671  0.2069 -0.0348 -0.1289
13001W        W55918   3.026  22.064  20.451 -0.0965  0.1587  0.1975
13002W        W55919   1.171  19.217  22.706 -0.1348 -0.1245  0.3575
13003W        W55920   5.795  22.817  20.648  0.1057 -0.0920  0.0266
13004W        W55921   0.653  17.455  21.654 -0.1568  0.0758 -0.2315
13005W        W55922   1.858  16.906  23.673  0.2135  0.0819 -0.0889
13006W        W55923   3.988  16.347  24.580  0.0705  0.1185  0.2129
13007W        W55924   2.189  20.851  22.752 -0.0604 -0.0757  0.2108
13008W        W55925  31.596  18.854  20.799 -0.1450 -0.2175 -0.0668
13009W        W55926   2.583  21.923  20.141 -0.0056  0.1903  0.2809
13010W        W55927   1.169  20.324  20.836 -0.2443  0.1480  0.0675
13011W        W55928   0.723  18.537  22.513  0.0116  0.2158 -0.0299
13012W        W55929   0.415  19.168  24.113 -0.2676 -0.1673  0.2437
13013W        W55930   0.605  19.992  22.590  0.2978 -0.0488  0.1892
13014W        W55931   0.290  18.588  19.609 -0.0316  0.0341  0.0672
13015W        W55932   2.935  21.370  21.080  0.1118 -0.3059 -0.1142
13016W        W55933   2.907  18.989  25.010  0.0412 -0.1480  0.1404
13017W        W55934   0.990  19.397  20.930  0.0523  0.2209 -0.0317
13018W        W55935   3.095  21.113  20.031 -0.2873 -0.2692  0.0331
13019W        W55936   5.021  19.664  22.561 -0.1167  0.0599 -0.0023
13020W        W55937   2.202  17.844  20.744 -0.0675 -0.4312 -0.0680
13021W        W55938   4.356  21.514  24.553  0.0294 -0.1456 -0.0581
13022W        W55939  33.892  20.603  21.304  0.1089 -0.1091  0.2324
13023W        W55940   1.546  19.257  25.374 -0.0791 -0.1874 -0.0283
13024W        W55941   2.963  17.748  21.743  0.0715 -0.1932 -0.1304
13025W        W55942   0.137  19.289  21.754 -0.1711 -0.3106  0.1470
13026W        W55943   2.989  19.051  22.787 -0.2213  0.0217  0.1120
13027W        W55944   3.600  22.348  21.289  0.0122 -0.0534 -0.0978
13028W        W55945   3.134  20.971  21.342 -0.2833  0.1338 -0.1729
13029W        W55946   1.294  20.975  21.803  0.4494  0.0244  0.0179
13030W        W55947   1.761  21.135  23.549  0.0835  0.0943  0.1270
13031W        W55948   0.749  18.584  23.272 -0.0284 -0.3055  0.1520
13032W        W55949   2.649  19.829  21.195  0.4582 -0.2290 -0.0885
13033W        W55950   1.133  20.358  22.340  0.0845 -0.0349  0.1840
13034W        W55951   5.308  20.058  22.828  0.2436 -0.0369  0.0070
13035W        W55952   3.156  18.252  23.730  0.2307 -0.1599  0.0447
13036W        W55953   2.085  18.777  23.080 -0.0914 -0.0536  0.0376
13037W        W55954   0.723  17.962  22.859  0.0660 -0.1001 -0.2404
13038W        W55955   2.541  20.867  24.085  0.2050  0.0828  0.0936
13039W        W55956   3.702  20.188  23.222  0.0987 -0.2616  0.0369
13040W        W55957  34.608  16.867  21.170  0.1070 -0.2494 -0.0911
13041W        W55958  34.573  19.223  20.768  0.1679 -0.1016  0.0772
13042W        W55959   0.774  19.411  20.478  0.1916  0.1417 -0.3018
13043W        W55960   1.811  18.540  21.110  0.0171  0.0052  0.3319
13044W        W55961   1.910  18.340  23.269 -0.0149 -0.1990 -0.2622
13045W        W55962   1.450  19.271  23.141 -0.1843 -0.3760  0.1486
13046W        W55963   2.737  20.245  24.865  0.1975 -0.2271 -0.1001
13047W        W55964   3.990  18.877  24.647 -0.0212 -0.2182  0.1387
13048W        W55965  32.979  19.230  21.825 -0.0132 -0.2599 -0.1059
13049W        W55966   4.793  21.552  21.446  0.0236 -0.0253  0.0062
13050W        W55967   3.064  20.574  21.651 -0.0701 -0.0922 -0.0420
13051W        W55968   2.260  21.281  23.596 -0.2317 -0.0138  0.3209
13052W        W55969   2.135  22.851  21.565  0.2329 -0.1242 -0.2583
13053W        W55970   4.634  21.486  22.819 -0.0693 -0.3664 -0.1604
13054W        W55971  34.462  18.295  21.706  0.1747 -0.0938 -0.0574
13055W        W55972  32.567  20.146  22.406  0.1406 -0.0280  0.2654
13056W        W55973   1.910  21.037  20.585 -0.0163  0.1589  0.0521
13057W        W55974   4.070  17.509  22.275 -0.0548  0.2357  0.2042
13058W        W55975   1.704  19.003  20.917 -0.1468 -0.1656 -0.2983
13059W        W55976   3.056  18.666  20.370  0.0933 -0.3242 -0.0359
13060W        W55977   1.661  20.786  23.887 -0.3150  0.5135 -0.3116
13061W        W55978   3.037  19.781  23.407  0.0773  0.0501  0.3418
13062W        W55979   1.533  21.144  29.923  0.0976  0.2142 -0.2260
13063W        W55980  34.430  20.746  25.218  0.1012 -0.0186  0.0328
13064W        W55981   2.620  17.386  24.043 -0.1842  0.2276 -0.0179
13065W        W55982   4.377  18.689  25.440 -0.0246  0.0728  0.0387
13066W        W55983   0.529  18.131  23.319 -0.1094  0.0728 -0.0876
13067W        W55984   2.847  21.048  24.802  0.3282  0.0382 -0.1209
13068W        W55985   2.177  17.866  25.505 -0.0593 -0.0353  0.1523
13069W        W55986   1.430  20.768  27.367  0.0342  0.0564  0.3520
13070W        W55987   1.705  20.901  25.112  0.0764 -0.1342 -0.2103
13071W        W55988   1.992  18.418  25.029 -0.1103  0.2267  0.1675
13072W        W55989   3.231  20.596  27.221  0.2753  0.0195  0.0225
13073W        W55990   2.488  23.138  26.294 -0.3703  0.1218  0.0161
13074W        W55991   0.271  17.122  25.652 -0.2745  0.0478  0.0963
13075W        W55992  32.329  19.758  25.964 -0.0680  0.1360  0.0198
13076W        W55993   1.956  21.707  27.488 -0.0346 -0.1519 -0.1213
13077W        W55994  34.353  19.592  23.698 -0.1111  0.0416 -0.4072
13078W        W55995   0.626  21.667  28.747  0.2592  0.1586 -0.0945
13079W        W55996   3.057  17.931  25.789  0.0816 -0.0414  0.1070
13080W        W55997   1.388  20.774  26.124  0.0222 -0.0231  0.1970
13081W        W55998   2.554  18.950  25.864  0.0647  0.1234  0.0911
13082W        W55999   3.260  19.335  27.731 -0.0978  0.1986  0.1838
13083W        W56000   2.191  19.769  25.551  0.1829  0.2412  0.4166
13084W        W56001   1.614  21.136  22.585  0.1043  0.0075 -0.0484
13085W        W56002   1.997  21.223  28.619  0.1497 -0.1973 -0.1528
13086W        W56003   1.588  18.523  25.723  0.2237  0.3299 -0.0549
13087W        W56004   1.373  20.354  25.716  0.0541  0.0098  0.0847
13088W        W56005   2.268  22.836  24.740  0.1937 -0.0423 -0.0231
13089W        W56006   0.100  22.526  26.424 -0.2308  0.5059  0.5295
13090W        W56007   0.586  21.741  26.833 -0.1685 -0.1818 -0.1556
13091W        W56008   4.373  20.038  28.772  0.1504 -0.2252 -0.2234
13092W        W56009   0.795  21.809  28.275 -0.1718  0.0275 -0.2194
13093W        W56010   1.585  22.846  25.169  0.0731 -0.2369 -0.0363
13094W        W56011   1.723  21.179  25.819  0.0469  0.1169  0.0829
13095W        W56012   3.001  23.517  25.390  0.2338 -0.2474 -0.1172
13096W        W56013   4.062  21.318  27.587 -0.0612  0.1413  0.2892
13097W        W56014   2.869  21.876  26.847 -0.0777  0.1601 -0.1066
13098W        W56015  33.695  19.054  24.474  0.0952  0.0142 -0.1344
13099W        W56016   1.275  21.055  29.258 -0.2051 -0.1599 -0.3910
13100W        W56017   1.003  20.559  27.273  0.4282 -0.1148 -0.1052
13101W        W56018   0.682  21.334  27.458 -0.2274  0.5846  0.0021
13102W        W56019   2.194  19.753  26.045 -0.1406  0.0661 -0.1935
13103W        W56020   2.725  20.353  25.637  0.2889  0.3460  0.3208
13104W        W56021   0.242  22.097  27.208  0.0957 -0.1386  0.1215
13105W        W56022   1.288  21.109  27.005  0.1125  0.0193  0.0164
13106W        W56023   0.767  21.093  23.716  0.2198 -0.2370 -0.2912
13107W        W56024   4.353  20.245  25.972  0.0512  0.2112  0.1176
13108W        W56025   1.143  21.657  23.020 -0.0055  0.0344 -0.0402
13109W        W56026   4.381  19.459  25.033 -0.1128  0.3540  0.1163
13110W        W56027   0.691  17.935  24.629  0.1970 -0.1023 -0.1789
13111W        W56028   2.522  18.684  24.828  0.3515  0.1784 -0.3838
13112W        W56029   2.752  17.132  25.591  0.0746  0.1315 -0.1091
13113W        W56030  34.432  23.062  25.775 -0.2481  0.0751  0.3714
13114W        W56031   3.748  19.542  25.852 -0.0795  0.0166  0.2154
13115W        W56032   1.761  20.610  26.490 -0.0667  0.2097 -0.1141
13116W        W56033   1.045  22.622  26.461 -0.0900 -0.0918 -0.0803
13117W        W56034   3.577  19.663  26.624 -0.0431  0.1016 -0.3759
13118W        W56035   1.718  21.872  27.087  0.1219  0.4390 -0.1925
13119W        W56036   0.612  21.677  27.790 -0.2041  0.0820 -0.0556
13120W        W56037   2.441  21.352  24.158 -0.1216 -0.1432  0.1570
13121W        W56038   3.290  22.082  26.584  0.0137  0.3548  0.0033
13122W        W56039   0.678  21.611  25.903 -0.1491 -0.1216 -0.0357
13123W        W56040   0.528  19.921  25.707  0.1286  0.0734  0.1172
13124W        W56041   0.988  19.377  27.611  0.0737 -0.3182 -0.2069
13125W        W56042   1.541  18.231  28.334 -0.0017  0.0447 -0.1712
13126W        W56043   2.309  20.052  23.950  0.2235 -0.1044  0.0876
13127W        W56044   3.407  20.115  27.185 -0.2052 -0.0387 -0.0185
13128W        W56045   0.334  21.979  28.238 -0.1969 -0.0854  0.1588
13129W        W56046   1.879  20.292  24.195  0.0297 -0.1569 -0.1310
13130W        W56047   0.940  21.482  27.009  0.1302 -0.3789 -0.0383
13131W        W56048   3.373  19.272  25.690  0.3511 -0.0878 -0.1227
13132W        W56049   2.811  19.360  23.318  0.0537  0.3634  0.2078
13133W        W56050   3.694  15.811  24.660  0.1397  0.1778  0.0097
13134W        W56051   2.062  20.076  27.331 -0.1109 -0.1567  0.1413
13135W        W56052   0.972  19.593  23.539 -0.0778 -0.0964  0.1116
13136W        W56053   0.858  22.259  25.233  0.2100 -0.0734 -0.4233
13137W        W56054   5.196  22.353  26.965 -0.1390 -0.0046  0.1531
13138W        W56055   4.025  17.822  24.437  0.1137  0.1067 -0.0448
13139W        W56056   0.314  21.316  25.503  0.1691  0.0475  0.1589
13140W        W56057   0.399  19.616  27.738 -0.3910  0.0248 -0.1356
13141W        W56058   0.279  21.440  27.978  0.4031 -0.2255  0.1468
13142W        W56059  34.152  23.417  21.892  0.0174  0.2181 -0.0303
13143W        W56060   0.896  21.234  25.454  0.4530 -0.3106  0.0322
13144W        W56061   0.340  21.106  25.978  0.1537 -0.1319  0.0757
13145W        W56062   0.138  19.068  25.570 -0.1194  0.1641 -0.0625
13146W        W56063   1.483  22.179  27.537  0.2946 -0.0458  0.2217
13147W        W56064   4.666  18.952  23.400 -0.0377  0.0413 -0.0914
13148W        W56065   2.459  19.350  27.342 -0.3022 -0.0320  0.1960
13149W        W56066   3.291  17.811  26.183  0.1498 -0.0604 -0.0864
13150W        W56067  34.303  21.479  25.336  0.0414  0.2612 -0.1347
13151W        W56068   3.109  21.440  22.581  0.0737 -0.1046 -0.5083
13152W        W56069   4.361  18.745  24.898 -0.2843  0.3041 -0.0578
13153W        W56070   1.018  20.551  24.475  0.0699 -0.1627 -0.1604
13154W        W56071   0.641  21.756  25.422  0.0898 -0.0233  0.3850
13155W        W56072  34.304  20.041  23.515 -0.3469  0.3017  0.0419
13156W        W56073   1.799  16.998  27.357 -0.0211  0.0216  0.0245
13157W        W56074   2.188  20.258  25.772 -0.0081  0.1210  0.1215
13158W        W56075   3.917  19.741  26.263  0.0433 -0.0121 -0.3136
13159W        W56076   0.685  18.294  24.272 -0.0461 -0.0477  0.3040
13160W        W56077   3.328  19.762  25.931  0.0668  0.0619 -0.0954
13161W        W56078   1.712  20.685  25.642 -0.0793  0.1804 -0.3115
13162W        W56079  32.400  20.935  25.803 -0.3309  0.2579  0.1195
13163W        W56080   3.167  18.294  28.041  0.1579  0.0027  0.0668
13164W        W56081   1.379  20.319  23.055 -0.0353  0.0846  0.0285
13165W        W56082   4.101  20.835  28.265  0.0270  0.1818  0.0533
13166W        W56083   2.575  22.637  25.504  0.2130 -0.0133  0.0951
13167W        W56084   0.770  19.036  26.899 -0.0590 -0.1642 -0.3465
13168W        W56085   0.403  18.861  23.428  0.1272 -0.0398 -0.1855
13169W        W56086   0.147  23.409  25.959  0.3980  0.0971  0.2131
13170W        W56087   2.104  19.116  28.289 -0.0893 -0.0207  0.0416
13171W        W56088   2.059  17.718  24.270  0.2656 -0.0695  0.1327
13172W        W56089   2.190  24.009  24.305 -0.0142 -0.2289 -0.0301
13173W        W56090   0.867  20.267  25.607 -0.2270  0.1952 -0.3613
13174W        W56091   0.844  19.791  27.924  0.0129 -0.1045  0.2919
13175W        W56092   3.073  17.405  28.384  0.1021  0.0680 -0.0130
13176W        W56093   1.322  19.083  25.778  0.1810  0.1075  0.0501
13177W        W56094   1.851  19.454  25.816  0.4473 -0.3251  0.1440
13178W        W56095  33.736  18.132  24.740 -0.0011  0.0671  0.0450
13179W        W56096   3.584  21.817  24.939 -0.1600 -0.2451 -0.0231
13180W        W56097   0.513  21.505  25.037  0.0749  0.0528 -0.2716
13181W        W56098   0.704  19.986  23.637  0.0470 -0.3110  0.0059
13182W        W56099   1.079  21.650  29.187  0.0279  0.2855 -0.0161
13183W        W56100   1.856  18.952  26.702  0.0549 -0.0982  0.1650
13184W        W56101   0.563  17.819  28.336  0.3379 -0.1736 -0.3428
13185W        W56102   2.720  18.771  26.352 -0.1690 -0.0259  0.0323
13186W        W56103   0.001  18.371  24.752  0.1203  0.0543 -0.0194
13187W        W56104   1.761  23.875  29.416  0.2738  0.3928 -0.2468
13188W        W56105   2.841  18.427  25.967  0.3554  0.1159  0.0610
13189W        W56106   3.615  19.786  24.513 -0.1383  0.1968  0.1242
13190W        W56107   3.211  20.100  28.775 -0.2858  0.0790 -0.1647
13191W        W56108   2.906  18.550  25.238  0.2193 -0.2949 -0.0403
13192W        W56109   1.415  18.927  24.446 -0.3240  0.3469 -0.2561
13193W        W56110   1.941  18.386  22.766 -0.4290  0.2018  0.1347
13194W        W56111   0.981  23.090  26.521  0.1850  0.0772 -0.2125
13195W        W56112   1.211  19.234  26.750 -0.3691  0.0549 -0.1256
13196W        W56113   2.421  20.523  28.256 -0.2152  0.1643 -0.0041
13197W        W56114   2.412  17.866  23.908 -0.1811  0.0729  0.1069
13198W        W56115   2.825  21.173  23.502  0.0544  0.1462 -0.1500
13199W        W56116  34.154  20.744  27.002  0.1683  0.2018 -0.1392
13200W        W56117   2.907  20.805  26.880 -0.1035  0.5909  0.1513
13201W        W56118   3.382  21.075  26.936 -0.0893  0.0889 -0.3735
13202W        W56119   1.760  18.569  26.225  0.1090  0.0892 -0.0993
13203W        W56120   1.027  20.007  22.842 -0.2469  0.1370  0.0573
13204W        W56121   1.054  18.573  24.736  0.1503  0.1445  0.2344
13205W        W56122   0.909  23.006  25.823  0.4001 -0.3649  0.1056
13206W        W56123   2.750  19.017  28.203 -0.0933 -0.0476 -0.1072
13207W        W56124   1.412  16.629  26.669  0.0148  0.2858 -0.0107
13208W        W56125   1.144  18.012  27.388 -0.4804 -0.2504  0.1198
13209W        W56126   3.785  19.924  26.982  0.1317 -0.1665 -0.0853
13210W        W56127   2.803  20.025  26.718  0.1649 -0.0784 -0.1011
13211W        W56128   2.025  22.116  27.840  0.1343 -0.3913 -0.0808
13212W        W56129   1.869  20.700  22.412 -0.2585 -0.1479 -0.3818
13213W        W56130   2.846  18.698  28.802 -0.0727  0.3084  0.3935
13214W        W56131   1.076  21.504  27.746  0.0792 -0.0364 -0.3401
13215W        W56132  33.386  23.500  27.183  0.2722 -0.2832 -0.1869
13216W        W56133   2.490  21.878  27.766 -0.0449  0.0120  0.1022
13217W        W56134   1.755  19.710  25.284 -0.3216 -0.0605  0.2116
13218W        W56135   2.856  20.105  27.584 -0.1521  0.3685 -0.3259
13219W        W56136   2.177  19.646  24.984 -0.2135  0.0834 -0.2512
13220W        W56137   2.060  23.278  25.537  0.0042 -0.0179 -0.1912
13221W        W56138   2.938  19.998  23.855  0.1252 -0.1008  0.3037
13222W        W56139   0.410  17.302  25.139  0.0749 -0.2282 -0.0804
13223W        W56140   2.724  20.378  23.401 -0.1582 -0.1070  0.2431
13224W        W56141   0.646  20.235  22.178  0.0247 -0.3897  0.4425
13225W        W56142   2.341  22.003  27.290 -0.0147 -0.1452 -0.1839
13226W        W56143   0.241  20.784  24.731 -0.0739 -0.0566 -0.2144
13227W        W56144   2.200  18.819  26.259 -0.0070  0.1538 -0.1274
13228W        W56145  33.964  19.942  24.543 -0.2102  0.3368  0.0494
13229W        W56146   2.327  18.321  26.268  0.1877 -0.0175 -0.1795
13230W        W56147  34.079  20.011  26.450 -0.2222 -0.3448  0.0392
13231W        W56148   0.640  17.184  23.441 -0.2522  0.0037  0.1456
13232W        W56149   3.650  19.284  25.264 -0.1587 -0.0154 -0.2368
13233W        W56150   0.379  20.656  26.915  0.4631  0.1055 -0.4071
13234W        W56151   0.985  17.701  26.185  0.2474 -0.1102 -0.1062
13235W        W56152   0.578  20.805  27.358 -0.1634 -0.3004 -0.1752
13236W        W56153  34.670  19.928  24.776  0.3911 -0.0734 -0.2800
13237W        W56154   3.181  19.778  24.805 -0.0707  0.2695  0.3546
13238W        W56155   3.934  21.701  28.195 -0.0636  0.0582 -0.2226
13239W        W56156   2.319  19.982  26.908  0.0421 -0.4273  0.5492
13240W        W56157  32.818  19.772  25.861 -0.1365  0.3315 -0.1052
13241W        W56158   3.353  16.156  26.354 -0.0449  0.2632  0.3712
13242W        W56159  34.515  19.019  24.845 -0.0655 -0.3622 -0.3667
13243W        W56160   1.891  21.363  26.290  0.4700 -0.2115 -0.3236
13244W        W56161   1.243  21.780  26.218 -0.1748 -0.2832 -0.0056
13245W        W56162   1.152  18.324  25.531  0.0545  0.3907 -0.0439
13246W        W56163   0.886  22.741  26.940 -0.0473 -0.4239 -0.2072
13247W        W56164   0.667  20.227  27.024 -0.0924 -0.0081  0.0564
13248W        W56165   2.270  20.717  27.787 -0.1830 -0.0281 -0.0995
13249W        W56166   2.118  15.903  25.575 -0.0363 -0.0868  0.3627
13250W        W56167   0.659  18.933  25.387  0.1970 -0.2310 -0.0374
13251W        W56168   1.406  20.933  28.111  0.1549 -0.2645 -0.3818
13252W        W56169   3.613  20.967  27.873 -0.0634 -0.1401 -0.0788
13253W        W56170   2.601  19.850  26.304  0.0819 -0.2991  0.0969
13254W        W56171   0.603  22.299  28.584 -0.1465  0.3008 -0.0421
13255W        W56172   1.908  17.386  26.451  0.0618 -0.1832 -0.1510
13256W        W56173   4.005  20.965  25.000 -0.1700 -0.2907 -0.1056
13257W        W56174   0.495  19.848  26.792 -0.0348  0.1389  0.2981
13258W        W56175   2.103  20.582  23.876  0.0300 -0.1039  0.3052
13259W        W56176  34.468  21.508  27.758 -0.0937 -0.0859  0.2812
13260W        W56177   1.519  20.506  24.650 -0.0814  0.0683 -0.2934
13261W        W56178   0.610  19.381  27.327 -0.0113 -0.0694 -0.0360
13262W        W56179   0.575  18.564  26.186  0.1232  0.0699 -0.0392
13263W        W56180   3.359  20.286  25.743  0.1101 -0.0947 -0.3403
13264W        W56181  33.437  21.753  29.116  0.2305 -0.0935 -0.0318
13265W        W56182   2.913  19.373  24.678  0.0925  0.1604 -0.0713
13266W        W56183   3.013  21.042  24.001 -0.2341  0.0525 -0.1283
13267W        W56184   2.741  17.999  26.192  0.1503  0.0820  0.0000
13268W        W56185   4.649  19.114  28.683 -0.0622  0.1388  0.0490
13269W        W56186   4.397  20.248  24.698  0.0258  0.0398  0.2795
13270W        W56187   2.820  19.034  27.579 -0.1951  0.2842  0.0455
13271W        W56188   0.988  19.297  25.427 -0.1178  0.1720 -0.1383
13272W        W56189   3.335  21.657  25.410 -0.1218 -0.0397  0.1904
13273W        W56190   1.221  18.641  26.197  0.1638 -0.2372  0.1457
13274W        W56191   2.452  23.195  31.814  0.3241 -0.3878 -0.0126
13275W        W56192   0.223  20.970  28.453 -0.0046  0.2110 -0.5372
13276W        W56193   0.993  19.248  24.572 -0.0253  0.1221  0.0295
13277W        W56194  33.964  19.080  24.948 -0.1631  0.0120  0.2529
13278W        W56195   1.324  19.642  25.034 -0.1229 -0.0963  0.0262
13279W        W56196   3.828  18.802  25.503  0.2393 -0.0665 -0.2256
13280W        W56197   0.700  21.835  23.841 -0.0342  0.0466  0.0240
13281W        W56198   1.255  20.105  26.865 -0.1191  0.0263  0.1183
13282W        W56199   2.070  21.605  27.990  0.1567  0.3272 -0.2503
13283W        W56200   0.162  19.222  26.118 -0.0797 -0.3242  0.0119
13284W        W56201   2.680  19.759  24.868 -0.0998  0.3009 -0.1077
13285W        W56202   1.604  21.051  26.570  0.0864  0.0308 -0.2165
13286W        W56203   0.552  18.460  24.698  0.1804 -0.1856  0.1059
13287W        W56204   1.383  21.461  26.686 -0.0393  0.0624  0.1904
13288W        W56205   2.414  17.805  27.385  0.1378 -0.2861  0.1133
13289W        W56206   0.852  19.037  26.258  0.0803 -0.3409 -0.1255
13290W        W56207   1.875  21.435  26.785  0.0804  0.1892 -0.0709
13291W        W56208   3.288  20.557  26.719 -0.6299 -0.2081  0.2099
13292W        W56209   0.886  18.644  26.567  0.2348  0.0176  0.3880
13293W        W56210   3.055  21.460  25.795 -0.5204 -0.2394 -0.1163
13294W        W56211   3.072  18.427  23.242 -0.1891 -0.2754 -0.2971
13295W        W56212   2.320  19.118  26.646 -0.1351  0.2010  0.2772
13296W        W56213   3.657  18.920  26.009  0.0864 -0.0169  0.0467
13297W        W56214   0.919  20.408  23.338  0.1888  0.3842 -0.0738
13298W        W56215   1.377  21.158  27.706 -0.1943  0.0957  0.1066
13299W        W56216   5.059  20.301  25.665 -0.1332  0.0978 -0.1782
13300W        W56217   0.272  19.674  23.867  0.0941  0.3278  0.0166
13301W        W56218   0.399  21.220  26.546 -0.5486  0.1070  0.0201
13302W        W56219   1.980  21.507  24.284 -0.0283  0.1243  0.3249
13303W        W56220   2.031  20.800  26.048 -0.4131 -0.0329 -0.0986
13304W        W56221   2.224  17.335  24.997 -0.1865 -0.4102  0.0789
13305W        W56222  34.389  19.898  27.102 -0.2575 -0.0303 -0.2241
13306W        W56223   0.939  20.629  27.784 -0.0677  0.1527 -0.0214
13307W        W56224   1.848  19.888  26.343  0.0026 -0.0767 -0.1255
13308W        W56225   0.306  20.542  26.026  0.0861  0.0809  0.0459
13309W        W56226   1.131  19.078  27.228  0.1626  0.1409 -0.1310
13310W        W56227   3.337  18.149  29.280  0.1341  0.2494  0.3363
13311W        W56228   1.125  19.316  24.104  0.2793  0.0147 -0.1940
13312W        W56229   3.793  15.812  26.642  0.1922 -0.4067 -0.1974
13313W        W56230   0.708  21.424  24.102  0.2514 -0.1090 -0.2061
13314W        W56231   2.034  19.279  25.308  0.2511 -0.0040 -0.2204
13315W        W56232   1.253  22.168  25.753  0.0286  0.1341 -0.2582
13316W        W56233   1.836  20.497  27.475 -0.2788 -0.0156 -0.2051
13317W        W56234   0.767  19.475  25.832 -0.3185  0.1479 -0.1887
13318W        W56235   3.670  18.138  27.954  0.2473 -0.1235  0.1284
13319W        W56236   3.634  20.824  26.499 -0.1076  0.0328 -0.0669
13320W        W56237   1.081  20.678  25.260  0.1190 -0.1099  0.2062
13321W        W56238   5.396  19.450  25.260  0.3308 -0.1286  0.2314
13322W        W56239   3.042  20.206  26.129  0.0736  0.3559  0.2281
13323W        W56240   0.671  16.845  25.909 -0.0355  0.0883 -0.6727
13324W        W56241   2.478  21.535  26.759  0.0539 -0.0157  0.0355
13325W        W56242   2.397  18.480  25.753  0.0955 -0.0377 -0.2331
13326W        W56243   0.360  20.291  26.572 -0.1174 -0.0625  0.1336
13327W        W56244   0.506  16.300  27.726 -0.1377  0.2638  0.3434
13328W        W56245   2.529  20.785  25.886  0.0728  0.0184 -0.2128
13329W        W56246   2.203  22.560  26.008 -0.1728  0.1332 -0.0546
13330W        W56247   2.382  18.306  25.238 -0.1790  0.1857  0.1521
13331W        W56248   1.103  20.208  25.011 -0.0759 -0.1586  0.3398
13332W        W56249  34.130  20.941  30.049 -0.0938 -0.1065 -0.0530
13333W        W56250   1.184  18.369  26.880  0.1638 -0.0021 -0.0203
13334W        W56251   1.269  22.478  25.365  0.3138 -0.2314  0.0610
13335W        W56252   2.390  20.129  25.216  0.1390  0.1402  0.1939
13336W        W56253   2.135  19.349  23.950  0.1268  0.0606 -0.0190
13337W        W56254   0.531  23.533  24.976 -0.0051 -0.1910 -0.1028
13338W        W56255   2.291  18.314  23.621  0.1044 -0.2689 -0.1104
13339W        W56256  33.702  22.480  26.768  0.0838  0.0136 -0.0592
13340W        W56257   0.706  20.125  24.348 -0.0918 -0.1087  0.1572
13341W        W56258   2.770  21.646  25.250  0.0153  0.0855  0.1254
13342W        W56259   0.856  21.481  26.486  0.1413 -0.1621 -0.1971
13343W        W56260   2.550  20.506  26.793 -0.0543  0.1639 -0.0330
13344W        W56261   3.627  18.907  24.972  0.0015 -0.0777 -0.4313
13345W        W56262   1.119  20.964  26.508  0.0108 -0.0871  0.0757
13346W        W56263   3.688  18.385  24.459 -0.0625  0.1347  0.2117
13347W        W56264   2.058  20.491  26.857 -0.0410 -0.0326  0.0420
13348W        W56265   1.649  17.982  25.595 -0.1263 -0.2678 -0.1210
13349W        W56266   1.158  18.157  24.486  0.0866 -0.2392 -0.0968
13350W        W56267  34.573  17.786  27.336 -0.5092  0.0135  0.3500
13351W        W56268   3.036  17.900  28.312 -0.1912  0.0105  0.0049
13352W        W56269   0.700  20.312  28.144 -0.1284  0.2198 -0.0246
13353W        W56270   1.673  22.415  22.794 -0.0772 -0.2328  0.0637
13354W        W56271   2.813  21.094  26.068 -0.0444 -0.1081  0.4003
13355W        W56272   0.902  20.478  26.652  0.0946 -0.1049 -0.0511
13356W        W56273   5.651  18.359  26.078 -0.1758  0.0016 -0.1263
13357W        W56274   3.154  20.610  24.778 -0.0080  0.3620 -0.1522
13358W        W56275   1.863  17.817  26.930  0.4075 -0.3652  0.0064
13359W        W56276   0.626  20.841  25.635 -0.0003  0.2688  0.1420
13360W        W56277   2.369  22.201  26.403  0.2607 -0.0461  0.0629
13361W        W56278  34.062  22.693  27.053  0.0081  0.3792 -0.0813
13362W        W56279   0.321  18.471  22.944 -0.0443  0.1011 -0.0136
13363W        W56280   4.149  19.299  26.145 -0.1765  0.3075 -0.1375
13364W        W56281   3.390  18.611  28.447 -0.0400  0.3483 -0.1712
13365W        W56282   3.888  18.164  27.470 -0.3111  0.2309 -0.0160
13366W        W56283   0.939  22.364  27.288 -0.3570  0.0382  0.0473
13367W        W56284   2.849  19.153  25.482 -0.2720  0.0953 -0.0458
13368W        W56285   1.241  21.781  27.296 -0.3062  0.0240 -0.1009
13369W        W56286   1.365  20.130  26.286 -0.0114  0.0696 -0.1991
13370W        W56287   1.088  21.812  24.305  0.6138  0.1442 -0.0895
13371W        W56288   2.652  19.545  26.765 -0.2153  0.0963 -0.1772
13372W        W56289   1.853  19.725  24.638  0.3707 -0.1253  0.0337
13373W        W56290   4.436  23.003  26.711  0.0263 -0.0895  0.2045
13374W        W56291  34.232  17.553  24.476 -0.0159 -0.1115 -0.0985
13375W        W56292   0.578  17.691  23.629  0.3505  0.0538  0.2271
13376W        W56293  33.804  20.686  26.032  0.0309  0.2292 -0.1013
13377W        W56294   2.374  20.445  27.299 -0.0671  0.0455  0.0086
13378W        W56295   1.782  20.929  27.036  0.3057 -0.2655 -0.0787
13379W        W56296  33.610  19.620  26.302 -0.0270 -0.2473  0.0796
13380W        W56297   3.812  21.065  24.573 -0.0718  0.0462  0.2745
13381W        W56298   3.413  18.888  23.096 -0.1171 -0.1941 -0.1539
13382W        W56299   0.070  23.498  23.574 -0.0005 -0.2319 -0.0976
13383W        W56300   1.154  21.946  26.688  0.0600  0.2619  0.2650
13384W        W56301   3.363  21.583  26.843 -0.1505 -0.0959 -0.1288
13385W        W56302   1.912  17.962  26.425 -0.4371 -0.1531 -0.0416
13386W        W56303   0.718  22.022  29.193  0.2104 -0.0664  0.2552
13387W        W56304   1.658  21.848  26.585  0.2139 -0.2536 -0.1628
13388W        W56305   1.831  17.582  25.968 -0.1168  0.1353 -0.2174
13389W        W56306   1.621  21.367  27.268  0.1590 -0.0568  0.0476
13390W        W56307   0.638  21.163  24.615 -0.2379 -0.0878  0.2817
13391W        W56308   4.529  16.902  27.517 -0.1178 -0.1801 -0.2361
13392W        W56309   2.550  17.260  26.319  0.4718 -0.1210 -0.1484
13393W        W56310   2.386  21.118  23.114 -0.1380  0.0640 -0.1774
13394W        W56311   2.701  17.282  26.972  0.3200  0.1527 -0.1200
13395W        W56312   0.367  21.281  27.023 -0.0870 -0.1388 -0.2133
13396W        W56313   0.752  22.850  28.189 -0.0074  0.0877 -0.0695
13397W        W56314  33.860  19.076  25.635 -0.1953  0.3944  0.0779
13398W        W56315   1.458  19.659  26.092  0.0350  0.1698 -0.3429
13399W        W56316   2.189  22.795  26.651 -0.1843 -0.1127 -0.0193
13400W        W56317   2.313  22.981  25.223 -0.0744 -0.1165  0.1347
13401W        W56318   3.182  19.382  25.128 -0.0748  0.2168  0.2794
13402W        W56319   0.921  18.679  25.816 -0.0499  0.0482 -0.4306
13403W        W56320   2.286  21.615  25.196  0.0151 -0.3521  0.2429
13404W        W56321   1.382  17.591  25.754 -0.1112  0.0628 -0.0594
13405W        W56322   3.631  17.551  24.978  0.2134  0.0916  0.1929
13406W        W56323   2.259  17.007  26.733 -0.0045 -0.0533 -0.1139
13407W        W56324   1.164  20.182  27.831  0.1621 -0.0399 -0.0012
13408W        W56325  34.211  18.430  23.301 -0.0937  0.0480 -0.0018
13409W        W56326   0.745  19.668  24.007 -0.0153  0.1483  0.2558
13410W        W56327   0.434  19.357  26.800 -0.0622  0.1035  0.2729
13411W        W56328   3.282  19.837  27.726 -0.1298  0.1575  0.2303
13412W        W56329   2.685  20.983  28.045  0.0638 -0.1771  0.1215
13413W        W56330   1.652  21.407  28.329 -0.1494 -0.0953  0.1305
13414W        W56331   0.084  17.737  26.495  0.0447  0.0266  0.2061
13415W        W56332   3.651  20.149  25.355  0.0113 -0.0936  0.1935
13416W        W56333   1.696  20.419  26.059 -0.0444  0.1614 -0.0521
13417W        W56334   2.545  16.912  25.159  0.3682  0.0297  0.1235
13418W        W56335   3.583  20.581  24.534 -0.1268 -0.0619  0.2647
13419W        W56336   0.866  20.008  26.350 -0.1867  0.3106 -0.1534
13420W        W56337   4.222  20.121  26.478  0.2902 -0.0954 -0.3106
13421W        W56338   4.313  21.277  28.029 -0.0811  0.0356  0.2394
13422W        W56339  34.489  20.564  22.697  0.2251 -0.1508  0.1655
13423W        W56340   2.767  20.362  28.585  0.4555 -0.1675 -0.0167
13424W        W56341   0.553  19.001  25.882  0.0556  0.2546 -0.1770
13425W        W56342   1.022  18.193  23.222 -0.1830 -0.0994 -0.3169
13426W        W56343   5.323  20.742  26.045 -0.4545  0.3041  0.3591
13427W        W56344   1.812  19.711  24.152  0.2098 -0.1144 -0.2138
13428W        W56345   1.908  21.340  22.949  0.0532  0.0365 -0.0131
13429W        W56346   2.609  19.818  27.292  0.0874 -0.0332 -0.0293
13430W        W56347   2.450  20.918  27.075 -0.2503  0.0515  0.3630
13431W        W56348  32.318  17.342  26.659  0.3104 -0.6060 -0.0206
13432W        W56349   0.696  21.009  25.096  0.3124 -0.0468  0.1693
13433W        W56350   2.198  22.408  29.169 -0.0966  0.0283  0.0961
13434W        W56351   4.087  19.925  24.873  0.2987  0.2348 -0.2498
13435W        W56352   1.839  19.450  27.991  0.1438  0.0071  0.2303
13436W        W56353   3.179  19.151  24.131  0.0696  0.2216 -0.0723
13437W        W56354   3.253  18.917  28.003 -0.0184  0.1725 -0.1218
13438W        W56355   0.371  22.476  28.099 -0.3048  0.0718 -0.0998
13439W        W56356   2.527  21.216  27.642  0.1254 -0.0664  0.0612
13440W        W56357   1.339  19.597  25.628  0.1576  0.1420  0.1041
13441W        W56358   1.816  17.302  26.950 -0.1916  0.1536  0.3846
13442W        W56359   2.155  21.185  25.468  0.2344  0.3643 -0.0759
13443W        W56360   2.040  21.562  25.843 -0.2394  0.0092  0.0638
13444W        W56361   2.449  19.396  25.727 -0.0824 -0.1391 -0.1666
13445W        W56362   3.765  20.347  26.678 -0.0903 -0.0306  0.0933
13446W        W56363   0.328  20.725  28.022  0.0819  0.1882 -0.2813
13447W        W56364   3.761  22.014  26.889  0.2128  0.1196  0.0525
13448W        W56365   0.134  19.868  25.273  0.1351  0.2360  0.0058
13449W        W56366   6.211  19.641  23.015  0.3962 -0.4215  0.1055
13450W        W56367   0.725  21.043  27.859  0.2862  0.0515 -0.0168
13451W        W56368   2.595  21.460  28.085  0.2160  0.1013 -0.0659
13452W        W56369   1.720  22.457  25.888 -0.0602  0.0291  0.1977
13453W        W56370   3.747  21.703  27.599 -0.0588  0.0765 -0.1486
13454W        W56371  33.840  17.800  26.585 -0.1859 -0.2468  0.1106
13455W        W56372  33.786  20.342  24.781  0.1516 -0.3789  0.0194
13456W        W56373   2.380  21.822  28.415  0.0418  0.0049  0.0983
13457W        W56374   2.829  20.336  27.149 -0.4217 -0.0102  0.2677
13458W        W56375   3.020  18.980  25.969 -0.0366 -0.0284 -0.2448
13459W        W56376   2.484  18.870  25.301  0.1557  0.0454  0.1481
13460W        W56377   3.838  22.182  28.399 -0.0393  0.0961 -0.1584
13461W        W56378   0.283  20.827  25.305  0.0768 -0.1671 -0.1679
13462W        W56379  34.195  19.400  31.152 -0.1118  0.2298 -0.0806
13463W        W56380   0.177  17.695  29.787  0.0943  0.1689 -0.0382
13464W        W56381   2.193  18.170  26.823  0.0331 -0.0484 -0.0090
13465W        W56382   2.823  21.611  29.516  0.2197 -0.2655 -0.0029
13466W        W56383   0.015  18.707  29.296 -0.1259  0.0321  0.0434
13467W        W56384   6.599  22.083  28.388  0.0292 -0.3154 -0.1109
13468W        W56385   0.205  18.924  31.692 -0.0619  0.0729  0.0017
13469W        W56386   3.416  22.475  28.732 -0.1446  0.0272 -0.2410
13470W        W56387   2.604  21.622  31.499 -0.0145  0.0128 -0.1885
13471W        W56388   1.833  21.034  27.680  0.1120  0.1772 -0.0349
13472W        W56389   0.299  19.652  31.530 -0.1411 -0.0797  0.0323
13473W        W56390   0.421  21.932  30.494  0.1112 -0.0825 -0.0189
13474W        W56391   2.324  20.228  29.390 -0.1749  0.2429  0.0617
13475W        W56392  34.050  17.159  29.637 -0.1325 -0.1950  0.1206
13476W        W56393   3.359  20.022  30.440 -0.0239  0.0364 -0.1762
13477W        W56394   1.069  19.758  28.972  0.2578 -0.4201  0.0359
13478W        W56395   0.795  17.647  30.605  0.3853  0.4379 -0.1121
13479W        W56396   1.631  19.068  26.221 -0.0346  0.1903 -0.2677
13480W        W56397   2.254  23.258  30.720 -0.2100 -0.0356  0.2354
13481W        W56398   1.877  19.832  31.071  0.1118 -0.0400 -0.0608
13482W        W56399   2.502  17.605   0.130  0.0215  0.2902 -0.2404
13483W        W56400   0.867  21.064  28.680 -0.2563  0.0612  0.3540
13484W        W56401   2.290  19.719  27.866 -0.1194  0.1912 -0.1799
13485W        W56402   0.995  19.012  29.206  0.0905 -0.2840 -0.4725
13486W        W56403   0.507  20.109  30.568  0.0175 -0.0976 -0.1538
13487W        W56404   1.784  18.896  31.174 -0.1376  0.1408  0.1522
13488W        W56405   2.809  20.139  29.118 -0.0040 -0.1431 -0.0879
13489W        W56406   2.738  21.353  30.117  0.2382 -0.3377 -0.0848
13490W        W56407   5.168  22.329  31.505 -0.3620 -0.0410  0.1883
13491W        W56408   1.477  19.196  30.468 -0.2206 -0.1083  0.3944
13492W        W56409   0.480  20.881  30.131 -0.1006 -0.0211  0.1741
13493W        W56410   1.045  20.092  30.711  0.1234 -0.1155  0.1112
13494W        W56411   1.156  20.955  30.359 -0.1644 -0.1979  0.1536
13495W        W56412   4.253  18.226  28.991  0.1508 -0.4575  0.0032
13496W        W56413   3.229  23.308  30.793 -0.2617  0.0226  0.1021
13497W        W56414   1.106  20.647  29.626 -0.0688 -0.1707 -0.2795
13498W        W56415   2.701  22.980  28.028  0.1517  0.0389 -0.3646
13499W        W56416   1.130  22.532  31.025 -0.2127  0.1346 -0.0778
13500W        W56417  34.403  18.574  30.158  0.1700 -0.1036  0.0284
13501W        W56418   0.246  21.161   0.003 -0.3404 -0.2883  0.2263
13502W        W56419   4.541  20.741  28.634 -0.1242  0.1575  0.0059
13503W        W56420   3.671  22.366  27.299 -0.0713 -0.0873 -0.0410
13504W        W56421   2.932  22.121  29.621 -0.0267  0.1172  0.0245
13505W        W56422   0.760  21.190  29.165  0.0469 -0.1930 -0.1661
13506W        W56423   1.155  22.409  30.091  0.0599  0.0922  0.1320
13507W        W56424   1.769  20.148   0.431  0.0305  0.2587 -0.2846
13508W        W56425   1.125  21.537  28.683  0.3158  0.2668  0.0628
13509W        W56426   0.633  20.883  29.576 -0.1906 -0.0296 -0.0045
13510W        W56427   2.831  20.753  29.900  0.1320  0.4528  0.2199
13511W        W56428   3.565  19.594  30.350 -0.2706  0.0432  0.3572
13512W        W56429   1.979  18.587  27.186  0.1210 -0.1809 -0.2303
13513W        W56430   2.706  20.939  30.963  0.0393 -0.4884  0.0653
13514W        W56431   4.095  20.645  30.600  0.5073  0.1765  0.0792
13515W        W56432   3.542  21.245  29.571  0.1077  0.2474  0.0450
13516W        W56433   2.356  20.854  28.622 -0.2225 -0.1382 -0.0047
13517W        W56434   2.983  20.206  31.862 -0.0156  0.3271  0.0965
13518W        W56435   0.217  21.659  31.919 -0.1948 -0.2854 -0.2089
13519W        W56436  34.194  19.891  27.782  0.1776 -0.1545 -0.2071
13520W        W56437   4.943  22.040  29.077  0.0848 -0.2131  0.0737
13521W        W56438   2.893  19.964  29.590  0.1000  0.0348 -0.0496
13522W        W56439   2.797  23.821  29.133  0.0052  0.1205 -0.1222
13523W        W56440   2.401  18.709  27.501 -0.2406 -0.1876  0.1325
13524W        W56441   1.485  19.995  31.893  0.2785  0.0175  0.0513
13525W        W56442   0.034  18.972  29.872  0.0523  0.4292 -0.3865
13526W        W56443   0.616  18.588  27.018  0.0080 -0.0659 -0.0709
13527W        W56444   1.989  23.305  31.552  0.0265 -0.1008 -0.3561
13528W        W56445   0.897  20.411  30.034  0.0323  0.1219  0.0058
13529W        W56446   3.263  19.824  31.709  0.3524 -0.0394  0.0702
13530W        W56447  33.803  19.950  29.486  0.2007  0.1447 -0.2001
13531W        W56448   3.325  20.224  30.998  0.0642  0.0613  0.0903
13532W        W56449   3.140  20.795  27.906  0.3416 -0.3089  0.0496
13533W        W56450   4.402  17.301  30.542  0.0493  0.0371 -0.2239
13534W        W56451   1.599  19.317  31.000  0.3464  0.1925 -0.0953
13535W        W56452   2.774  19.510  27.681  0.0956 -0.0502 -0.0834
13536W        W56453   2.460  21.371  28.573  0.1947 -0.0595 -0.4544
13537W        W56454   4.385  21.810  30.448  0.0105 -0.0443 -0.2450
13538W        W56455   4.903  19.938  29.242 -0.0435 -0.0202 -0.2477
13539W        W56456   1.283  22.620  30.516 -0.3153 -0.3704  0.1472
13540W        W56457   3.201  19.069  29.490  0.1309 -0.1243 -0.0590
13541W        W56458   3.541  21.161   0.551  0.1287 -0.0001  0.0766
13542W        W56459   2.440  22.316  28.207 -0.0922 -0.0645  0.1081
13543W        W56460   0.426  19.543  30.046  0.3109  0.1663  0.3519
13544W        W56461   2.013  22.277  28.636 -0.1376 -0.0383  0.1233
13545W        W56462  34.607  18.058  30.089  0.1861  0.0729 -0.1235
13546W        W56463  33.833  21.239  30.441  0.0010 -0.1669  0.1487
13547W        W56464   2.806  20.639  27.558 -0.0174  0.1790  0.1440
13548W        W56465   2.113  18.841  30.341 -0.3378  0.0090  0.2033
13549W        W56466   3.807  17.709  28.221 -0.2102  0.1764 -0.1304
13550W        W56467   0.951  20.398  28.700 -0.0076  0.3957 -0.2673
13551W        W56468   2.978  21.898  29.141  0.0798 -0.2106  0.0219
13552W        W56469   2.754  19.860  28.710 -0.0746  0.0425 -0.0131
13553W        W56470   3.713  20.187  28.683 -0.0730  0.4103  0.1048
13554W        W56471   2.060  18.410  31.467 -0.2886  0.0089 -0.2009
13555W        W56472   0.390  18.587  28.782 -0.0214 -0.0526 -0.0398
13556W        W56473   0.103  19.950  28.630 -0.1224  0.0231 -0.1681
13557W        W56474  33.972  17.662  29.842  0.0091  0.0161 -0.1626
13558W        W56475   3.817  19.190   0.011 -0.1719  0.4310 -0.1705
13559W        W56476   1.769  16.685  28.377 -0.1934  0.1238  0.1531
13560W        W56477   2.387  20.737  29.609  0.0105  0.2660  0.0858
13561W        W56478   1.313  18.496  27.924 -0.0503 -0.1823 -0.0830
13562W        W56479   0.227  19.853  29.121  0.4151 -0.1103 -0.1332
13563W        W56480   5.093  18.918  31.797  0.0881 -0.0111  0.0099
13564W        W56481   3.873  21.154  26.842  0.1757  0.3237  0.1985
13565W        W56482   4.195  20.259  29.654  0.0714 -0.3510 -0.0076
13566W        W56483   4.643  20.823  28.084  0.1318 -0.1947  0.0254
13567W        W56484   1.577  19.750  29.808 -0.1262 -0.0089 -0.0879
13568W        W56485   1.600  18.281  29.633  0.2444  0.0136  0.0902
13569W        W56486   1.706  22.539  31.243  0.0634  0.2569 -0.2315
13570W        W56487   1.701  21.002  30.364  0.0068  0.0877 -0.1197
13571W        W56488   1.514  17.438  29.460 -0.0541 -0.1198 -0.0260
13572W        W56489   3.901  22.896  31.495 -0.0465 -0.2314 -0.1885
13573W        W56490   1.376  21.601  30.619  0.0361  0.4887 -0.3407
13574W        W56491   1.178  20.658  31.035  0.1088 -0.2661  0.2235
13575W        W56492   2.152  19.055  30.803  0.0246  0.1065  0.1903
13576W        W56493   4.494  20.250  29.232 -0.0178  0.4361 -0.1047
13577W        W56494   2.868  21.717  28.629 -0.0837  0.0254 -0.2463
13578W        W56495   0.781  18.103  27.015 -0.2115 -0.1780  0.0837
13579W        W56496   2.875  21.890  30.473  0.0416 -0.0374  0.1756
13580W        W56497   3.467  22.355  29.694  0.0404 -0.2561 -0.1117
13581W        W56498   0.665  19.449  29.070  0.3965 -0.0138  0.0514
13582W        W56499   2.092  22.724  29.846 -0.2186  0.0252  0.1474
13583W        W56500   3.900  19.096  30.346 -0.0279 -0.1624 -0.1846
13584W        W56501   0.734  18.426  30.156  0.0459  0.0093 -0.2390
13585W        W56502   2.566  19.712  30.366  0.0309 -0.2156 -0.1557
13586W        W56503   0.569  20.397  29.557  0.4565 -0.0008  0.0559
13587W        W56504  34.515  22.684  30.330 -0.0701 -0.1027  0.2635
13588W        W56505   5.645  20.137  28.341 -0.1472  0.0178 -0.1363
13589W        W56506   3.270  20.153  29.336  0.1397  0.0114  0.3407
13590W        W56507   1.350  19.294  29.923  0.1490  0.0003 -0.2964
13591W        W56508   6.039  21.986  26.594  0.0948  0.1362 -0.0670
13592W        W56509   1.861  19.850  28.772  0.4644 -0.0060 -0.0914
13593W        W56510   2.733  17.540  27.982  0.0423 -0.0906 -0.0441
13594W        W56511   0.388  21.730  30.031  0.0571 -0.0213  0.1145
13595W        W56512   3.377  19.523  29.476  0.2079 -0.0414  0.0311
13596W        W56513   4.175  22.118  30.777  0.1438 -0.4303 -0.2339
13597W        W56514   3.227  19.662  28.570  0.1914 -0.0368  0.0069
13598W        W56515   3.767  22.160  27.854 -0.1095  0.3624 -0.0634
13599W        W56516   0.688  18.955  28.714 -0.2238 -0.1149 -0.3326
13600W        W56517   2.383  21.134  31.456 -0.0993  0.1986  0.0038
13601W        W56518   3.411  21.939  30.334 -0.0917  0.0649  0.0758
13602W        W56519   1.313  18.492  29.235  0.0356 -0.0540 -0.2390
13603W        W56520   1.682  18.884  30.117  0.0354 -0.4582 -0.1950
13604W        W56521   3.246  19.368  29.919 -0.1161 -0.0876 -0.2503
13605W        W56522   0.448  21.873  29.570 -0.0368 -0.0519 -0.0871
13606W        W56523   4.879  20.443  29.460  0.0470  0.1632  0.1023
13607W        W56524   1.537  18.785  29.616  0.5010 -0.2238 -0.1394
13608W        W56525   1.096  16.715  28.827  0.1870 -0.2576  0.0713
13609W        W56526   2.904  20.152  30.094  0.8539 -0.0707 -0.0063
13610W        W56527   3.735  20.644  30.256 -0.1558 -0.0728  0.2272
13611W        W56528   2.199  19.743  31.541 -0.2069  0.1563 -0.3921
13612W        W56529   0.230  21.125  29.411 -0.0379  0.4353 -0.2643
13613W        W56530   3.668  19.871  31.358  0.0897  0.1136  0.0593
13614W        W56531   0.627  21.388  29.613  0.1391  0.2760  0.0426
13615W        W56532   0.659  22.760  31.205 -0.0679 -0.1285 -0.3066
13616W        W56533   4.966  20.912   0.142 -0.0577  0.2463 -0.0379
13617W        W56534   3.239  20.817  29.528 -0.1582 -0.1921 -0.1620
13618W        W56535   1.773  19.611   0.432 -0.2362 -0.0260 -0.1446
13619W        W56536   2.617  19.973  28.199 -0.3397 -0.0824 -0.2540
13620W        W56537   0.062  22.142  29.788  0.3745 -0.1309  0.1793
13621W        W56538   2.650  22.439  27.282  0.2069  0.1074 -0.0149
13622W        W56539   3.029  18.904  29.954  0.1053 -0.0028  0.0380
13623W        W56540   0.927  21.117  30.803  0.2238  0.0936 -0.0026
13624W        W56541   1.690  23.235  28.859 -0.3390  0.1545 -0.0848
13625W        W56542   3.208  21.123  30.882  0.1068  0.0129  0.3398
13626W        W56543   1.655  22.278  29.127  0.1292 -0.2033 -0.0016
13627W        W56544   4.583  18.588  30.211  0.0530  0.0181  0.2983
13628W        W56545  33.472  19.439  27.110  0.0897 -0.0300 -0.1920
13629W        W56546  34.524  21.292  28.285  0.0425  0.0637  0.1740
13630W        W56547  32.742  19.513  29.215 -0.1844  0.1237  0.3439
13631W        W56548   0.983  20.695  29.092 -0.3045 -0.1988 -0.3793
13632W        W56549   3.982  22.489  28.793  0.2126 -0.0223 -0.3091
13633W        W56550  34.671  17.264  29.341 -0.0324 -0.0282  0.1570
13634W        W56551   2.390  20.195  27.754  0.0638 -0.0123  0.1895
13635W        W56552  34.399  21.208  29.665  0.0003  0.2305 -0.1977
13636W        W56553   3.004  19.944  31.216 -0.0990 -0.1662  0.0152
13637W        W56554   3.109  19.083  28.565 -0.1527  0.0730  0.1138
13638W        W56555   4.752  20.878  30.044  0.1902 -0.2761  0.1218
13639W        W56556   1.364  20.488  30.571 -0.1104 -0.5155 -0.2030
13640W        W56557   0.107  21.636  28.650 -0.1289 -0.0737 -0.0570
13641W        W56558   2.338  21.678  29.688  0.0469  0.1094  0.0301
13642W        W56559   0.451  17.578  27.900 -0.0601  0.0364 -0.1132
13643W        W56560   1.495  22.305  28.547 -0.1416 -0.2585 -0.0098
13644W        W56561   3.160  21.383  29.286 -0.0398  0.1420 -0.2155
13645W        W56562   3.280  20.378  28.403  0.1057 -0.0359  0.1948
13646W        W56563   1.311  22.442  29.549  0.2784  0.1481  0.0856
13647W        W56564   2.351  20.216  31.591 -0.0309 -0.0289  0.0032
13648W        W56565   3.408  22.487   0.546 -0.0395 -0.0141 -0.5002
13649W        W56566   1.080  18.309  29.835  0.4074 -0.0706  0.0492
13650W        W56567   1.570  19.359  29.474  0.0196 -0.1114  0.0684
13651W        W56568   0.423  21.415  30.938 -0.3246  0.0979  0.1134
13652W        W56569   3.231  20.545  30.199  0.0410  0.2487 -0.0791
13653W        W56570   0.962  20.575  31.562  0.1355  0.0080  0.2628
13654W        W56571   0.305  22.417  30.779  0.3180  0.0129  0.2164
13655W        W56572   1.912  17.832  29.566  0.1746  0.1604  0.0274
13656W        W56573   3.180  21.324  28.334  0.0290  0.2942  0.0010
13657W        W56574   4.138  19.912  31.631 -0.0931 -0.0306 -0.3880
13658W        W56575  33.958  21.537  27.137 -0.1307  0.1850 -0.0091
13659W        W56576   0.771  19.749  30.341  0.3394 -0.0570  0.0933
13660W        W56577   2.901  21.835  28.141 -0.4520 -0.2002  0.1296
13661W        W56578   1.870  19.518  30.578 -0.1320  0.3022 -0.0368
13662W        W56579   0.541  22.008  31.695  0.0142  0.4232  0.2090
13663W        W56580   1.953  21.999  29.407  0.1593  0.4076  0.0556
13664W        W56581  32.677  21.423  29.033  0.0260  0.0083  0.2013
13665W        W56582   1.748  16.195  28.504 -0.0357 -0.2881  0.1036
13666W        W56583   3.307  20.067  26.715  0.1934 -0.0288 -0.0810
13667W        W56584   1.538  18.935  29.119 -0.2373  0.0489 -0.1543
13668W        W56585   2.614  18.397  31.622 -0.0647  0.0526  0.0994
13669W        W56586   3.456  21.902  28.297  0.1271 -0.2785  0.1947
13670W        W56587   2.555  19.177  31.583 -0.0822  0.2066  0.1843
13671W        W56588   0.354  19.564   0.490 -0.0751 -0.4805 -0.3697
13672W        W56589   3.272  19.856  29.960  0.0977  0.0235  0.3627
13673W        W56590  33.993  18.722  30.374  0.2374 -0.1538 -0.1909
13674W        W56591   1.215  22.013  30.921 -0.3304 -0.0650 -0.1641
13675W        W56592   0.780  19.629  31.384  0.2491  0.0610  0.2790
13676W        W56593   2.329  20.078  28.851  0.1196 -0.0976  0.2000
13677W        W56594   1.801  18.839  25.367  0.2953  0.0806 -0.0147
13678W        W56595   2.529  21.630  29.013  0.0484  0.0305  0.1518
13679W        W56596   1.985  19.063  29.360 -0.0898 -0.4505 -0.0910
13680W        W56597   1.910  20.839  28.928  0.1066  0.0945 -0.1489
13681W        W56598   0.987  19.606  29.934 -0.4706  0.1688  0.4322
13682W        W56599   2.360  21.140  29.063  0.2213 -0.4074 -0.0384
13683W        W56600   3.620  22.111  30.786  0.0595  0.1091  0.0278
13684W        W56601   3.310  22.256  29.212  0.5597 -0.2198 -0.4902
13685W        W56602   2.394  20.928  30.138  0.0956  0.2579  0.1122
13686W        W56603  34.247  18.986  30.717 -0.2339  0.4498 -0.1093
13687W        W56604   0.645  20.447  31.210  0.1666  0.3125 -0.1245
13688W        W56605   6.114  19.911  29.675  0.0384 -0.1868 -0.0993
13689W        W56606   2.749  19.323  30.008 -0.0662  0.0645 -0.2174
13690W        W56607   2.481  18.708  30.662  0.0266  0.2859  0.1449
13691W        W56608   1.975  20.350  30.895  0.0492  0.0338 -0.1619
13692W        W56609   0.071  19.121  30.823 -0.0367 -0.0416  0.1975
13693W        W56610   3.001  21.243  31.768 -0.1154 -0.1639 -0.0152
13694W        W56611   3.040  19.213  26.609 -0.2988  0.0234 -0.0015
13695W        W56612   5.128  18.612  30.391  0.1606  0.0288 -0.0233
13696W        W56613   4.408  20.737  26.244  0.0419  0.1495  0.1062
13697W        W56614   2.418  18.614  28.181 -0.0936 -0.1613  0.2891
13698W        W56615   0.934  18.095  29.354 -0.0529  0.0883  0.2222
13699W        W56616   2.533  21.751  30.942  0.4463  0.1403 -0.3527
13700W        W56617   1.132  18.983  27.881  0.0672 -0.0136 -0.1000
13701W        W56618   2.458  20.599  31.303 -0.0321 -0.4022 -0.1967
13702W        W56619   2.310  22.702  27.796 -0.3353 -0.0975  0.1361
13703W        W56620   3.082  22.289  30.166 -0.4464  0.2120 -0.4097
13704W        W56621   2.885  19.486  29.576  0.1514 -0.0365 -0.0194
13705W        W56622   0.951  17.451  29.460  0.4160  0.1118 -0.3220
13706W        W56623   1.334  20.868  31.920  0.0396 -0.0547  0.3637
13707W        W56624   0.964  17.634  26.699  0.0886 -0.0703 -0.1329
13708W        W56625   2.636  17.381  27.540  0.1219 -0.2977  0.2601
13709W        W56626   1.821  22.804  29.418 -0.2589  0.2747 -0.0775
13710W        W56627   5.016  20.208   1.378 -0.2186  0.1156 -0.0157
13711W        W56628   1.980  19.621  27.538  0.1439  0.0559  0.0920
13712W        W56629   2.962  18.640  30.837  0.1544 -0.1705 -0.0260
13713W        W56630   1.218  23.050  29.571  0.0029 -0.3090  0.0191
13714W        W56631   1.817  17.630  29.072 -0.0803  0.1584 -0.1408
13715W        W56632   2.721  22.217  31.851  0.0734  0.0451 -0.1555
13716W        W56633   0.352  19.960  31.054  0.1082 -0.1951 -0.2967
13717W        W56634   4.000  21.785  31.285  0.2255 -0.1151  0.1060
13718W        W56635   0.784  18.176  28.772  0.4052 -0.0089 -0.0203
13719W        W56636   5.102  18.993  29.229  0.1947 -0.3632 -0.2076
13720W        W56637   1.975  19.839  30.178  0.0119 -0.4336 -0.1960
13721W        W56638   3.397  22.927   0.250 -0.2416 -0.2367  0.2972
13722W        W56639   2.643  22.034  30.065 -0.0607 -0.3809 -0.0154
13723W        W56640   1.824  20.091  31.493 -0.1434  0.2085 -0.2080
13724W        W56641   2.265  21.361  31.012  0.4040  0.0261 -0.1311
13725W        W56642   3.737  19.918  29.577  0.1096 -0.0626  0.0126
13726W        W56643  33.949  20.924  29.470 -0.0900 -0.2534  0.0545
13727W        W56644   0.186  17.373  30.246 -0.2472 -0.2234  0.0505
13728W        W56645   2.426  21.065  30.608 -0.1234 -0.0399 -0.1317
13729W        W56646   2.989  20.787  28.432  0.2185 -0.2303 -0.0203
13730W        W56647   3.281  20.395  29.735 -0.0247 -0.0927  0.0969
13731W        W56648   3.373  23.023  27.571  0.0565 -0.0315  0.1783
13732W        W56649  34.347  22.019  31.088 -0.1264 -0.2006 -0.3683
13733W        W56650  32.711  22.437  27.918  0.0453  0.2613  0.0416
13734W        W56651   2.539  22.013  29.340  0.0484  0.1931 -0.1495
13735W        W56652   2.441  22.119  30.611 -0.2056  0.0188  0.2266
13736W        W56653   1.774  20.078  26.767  0.1999 -0.0224 -0.0837
13737W        W56654   3.684  22.099   0.242  0.1233 -0.1953  0.2540
13738W        W56655   1.377  19.661  28.587 -0.0798  0.1118 -0.0073
13739W        W56656   1.228  24.733  30.577  0.0668 -0.0661 -0.1374
13740W        W56657  33.924  18.551  27.323  0.1621 -0.0723  0.2506
13741W        W56658   3.066  21.490  26.373  0.0765 -0.0219 -0.0094
13742W        W56659   3.341  22.821  30.039 -0.1803 -0.0719 -0.4774
13743W        W56660   3.181  19.846   0.680 -0.0821  0.1488 -0.1418
13744W        W56661   2.952  19.114  29.069 -0.3373 -0.2261  0.1310
13745W        W56662   3.307  18.769  28.961  0.1212  0.2394 -0.0215
13746W        W56663   2.743  17.227  29.039 -0.0820  0.3926  0.1722
13747W        W56664   2.774  21.006  29.336  0.1347 -0.1756 -0.1706
13748W        W56665   0.764  17.928  27.811  0.0542 -0.0535  0.0871
13749W        W56666   4.075  19.792  27.964 -0.0743 -0.0760 -0.1477
13750W        W56667   0.779  19.746  30.871  0.0091  0.0635 -0.1384
13751W        W56668   4.723  18.937   0.337  0.0221 -0.3769 -0.1588
13752W        W56669  33.169  21.130   0.102  0.1070  0.0384  0.0372
13753W        W56670   4.255  21.499  29.062  0.1718 -0.2146 -0.0282
13754W        W56671  34.125  18.102  27.486  0.2231 -0.1369 -0.2825
13755W        W56672   1.951  20.894  29.869  0.1537  0.0444  0.0623
13756W        W56673   2.325  17.954  31.270 -0.1594 -0.0959  0.1206
13757W        W56674   3.074  19.759  27.129 -0.0297 -0.0159  0.1498
13758W        W56675   3.065  21.245  29.758  0.0428 -0.3494 -0.2120
13759W        W56676   0.137  19.322  30.324  0.1563  0.2630 -0.0557
13760W        W56677   1.039  21.567  29.879  0.2374 -0.2080 -0.3707
13761W        W56678   1.699  21.492  30.280  0.0298 -0.1935  0.0140
13762W        W56679  34.473  19.485  26.823 -0.2697 -0.1697 -0.2153
13763W        W56680   3.529  18.890  29.857  0.2787 -0.2019 -0.1665
13764W        W56681   1.175  18.785  30.079  0.0815 -0.1334  0.0922
13765W        W56682   5.782  19.237  30.536  0.0187  0.2198 -0.1485
13766W        W56683  34.331  20.371  27.296 -0.2744 -0.1082  0.1190
13767W        W56684   3.353  19.253  27.161  0.1531  0.0873  0.0902
13768W        W56685   2.056  20.840  30.985 -0.1177 -0.3310 -0.2127
13769W        W56686   1.080  18.037  31.691 -0.1973  0.1247  0.1654
13770W        W56687   3.645  19.990  28.133  0.2094  0.2940 -0.1703
13771W        W56688   5.008  19.497  30.075  0.3481  0.1073  0.0721
13772W        W56689   2.602  22.261  25.936  0.2209 -0.2310  0.0398
13773W        W56690   3.596  21.057  30.575  0.0327  0.0342  0.0587
13774W        W56691  34.131  18.131  30.035  0.1550 -0.0362 -0.0576
13775W        W56692   1.461  20.293  29.757 -0.0779 -0.3003  0.2951
13776W        W56693   0.058  18.359  29.677 -0.0077  0.1593  0.0022
13777W        W56694   2.276  20.157  30.519  0.1039 -0.1688 -0.1810
13778W        W56695   2.321  21.153   1.599  0.2108  0.5283  0.0778
13779W        W56696  33.979  19.382  29.483 -0.0904 -0.1977  0.1279
13780W        W56697   5.186  20.545  27.646  0.1787 -0.1689  0.0467
13781W        W56698   3.436  20.499  29.006 -0.2170 -0.0318  0.2694
13782W        W56699   2.299  24.396  28.074  0.2493  0.2710  0.0851
13783W        W56700   1.350  20.642  30.084  0.0997 -0.0953  0.0915
13784W        W56701   2.861  20.518  29.461 -0.0445 -0.0618  0.1275
13785W        W56702  34.368  19.043  28.934 -0.1178  0.0258  0.0275
13786W        W56703   1.687  22.025  31.087 -0.2554 -0.3058 -0.0886
13787W        W56704   4.338  20.918  30.970  0.0587 -0.0324  0.1426
13788W        W56705   1.619  19.451  28.965 -0.0160 -0.2955 -0.0723
13789W        W56706  33.798  17.933  28.854 -0.0730  0.0372  0.0694
13790W        W56707   2.111  23.332  29.461  0.1248  0.0026  0.1691
13791W        W56708   3.566  19.389  31.479 -0.1061 -0.1271  0.0236
13792W        W56709   2.249  17.880  30.709 -0.1535 -0.3925  0.1560
13793W        W56710  33.930  23.076  31.391 -0.4667  0.2160  0.0498
13794W        W56711   4.220  18.971   0.320  0.2811 -0.0852 -0.2185
13795W        W56712   2.824  20.973   0.810 -0.0591 -0.0436  0.0657
13796W        W56713   0.993  22.152  31.940  0.0528  0.2388 -0.1965
13797W        W56714   1.856  20.262  29.053  0.2021 -0.2758 -0.0828
13798W        W56715   0.117  19.937  30.276  0.1834  0.0559  0.0605
13799W        W56716   1.814  21.554  29.737  0.0405 -0.2327  0.2647
13800W        W56717   4.335  22.016  28.132  0.0532 -0.3020  0.1322
13801W        W56718   3.498  19.520  28.155 -0.0495 -0.4766  0.0040
13802W        W56719   2.509  21.221  29.692  0.3174  0.3134  0.0069
13803W        W56720   5.735  21.154  27.298 -0.1794  0.2618  0.0248
13804W        W56721   1.938  20.068  29.718 -0.0126  0.0799  0.1535
13805W        W56722   2.829  18.712  29.435 -0.1218  0.1200  0.2640
13806W        W56723   3.912  18.616  29.659 -0.1198  0.2850  0.0970
13807W        W56724  33.969  18.745  31.621 -0.0788 -0.2421 -0.0255
13808W        W56725   2.862  21.247  28.901 -0.0018  0.1387 -0.1346
13809W        W56726   3.570  22.402  30.265 -0.1649  0.2466 -0.0532
13810W        W56727   1.029  21.980  29.575  0.0595 -0.2706 -0.1080
13811W        W56728  34.404  16.593  29.884 -0.2345 -0.0041  0.3121
13812W        W56729   2.449  20.547  30.777  0.1763 -0.2285 -0.1319
13813W        W56730  34.401  17.490  29.730  0.2141 -0.2938  0.0683
13814W        W56731  32.302  17.437  27.887 -0.2798  0.1670  0.2386
13815W        W56732   1.715  21.138  29.469 -0.0147  0.0894  0.0922
13816W        W56733   0.460  20.076   0.473 -0.2681 -0.0150 -0.2253
13817W        W56734   2.418  19.000  28.719 -0.1129 -0.0692 -0.0515
13818W        W56735   3.306  20.318  27.840 -0.1932 -0.1716  0.0755
13819W        W56736   4.007  19.849  28.450  0.0504  0.1427  0.3228
13820W        W56737   2.376  22.635  28.695  0.0470  0.0337 -0.4053
13821W        W56738   4.365  20.399  31.936  0.3596  0.0518 -0.0065
13822W        W56739  33.670  20.683  28.117 -0.1684 -0.0629 -0.1704
13823W        W56740   0.722  18.867  31.048 -0.0259  0.1988  0.0360
13824W        W56741   2.918  17.746  30.642  0.1019 -0.0915  0.1780
13825W        W56742   1.006  16.324  27.390 -0.0312  0.0499 -0.0963
13826W        W56743   1.761  17.415  31.504  0.2570  0.0943 -0.0361
13827W        W56744   3.109  22.720  29.583  0.3134 -0.2491  0.1245
13828W        W56745   3.260  24.328  27.029 -0.0718  0.0180  0.1295
13829W        W56746   1.349  18.548  30.471  0.1093 -0.0304  0.0013
13830W        W56747   1.399  20.842  31.401  0.0665  0.2899  0.2066
13831W        W56748   1.143  15.746  30.923 -0.0064  0.2789  0.0136
13832W        W56749   3.064  22.165  28.549 -0.4773  0.1408 -0.3211
13833W        W56750   4.389  22.396  30.412  0.2658 -0.0974 -0.0217
13834W        W56751   2.648  21.580  27.229 -0.0269 -0.1632  0.3352
13835W        W56752   3.606  18.261  29.812 -0.1995  0.3097 -0.1002
13836W        W56753   1.505  20.577  29.188  0.0240  0.3602  0.1518
13837W        W56754   0.671  18.098  30.637 -0.5126 -0.0147 -0.0549
13838W        W56755   0.959  21.054  31.655  0.0257 -0.1237 -0.1446
13839W        W56756   3.373  21.002  30.035  0.2186  0.2635  0.2210
13840W        W56757   1.189  17.638  29.002 -0.0039  0.0545 -0.1633
13841W        W56758   3.281  19.630  30.812  0.1336 -0.0574 -0.2808
13842W        W56759   2.971  21.470  27.820 -0.3473 -0.0418  0.0359
13843W        W56760   1.045  19.458  29.396  0.0518 -0.3725  0.0101
13844W        W56761   1.247  20.044  30.150  0.4029  0.2106  0.0175
13845W        W56762   2.247  19.535   0.529  0.0860 -0.1661  0.1521
13846W        W56763   2.643  20.474  30.361 -0.2352 -0.0268 -0.2961
13847W        W56764   3.028  19.577  30.349 -0.0363 -0.0971  0.1352
13848W        W56765   0.978  21.067  29.922 -0.2725  0.1638  0.1543
13849W        W56766   6.011  19.300  28.139  0.2761 -0.0081  0.1302
13850W        W56767   2.610  22.070  31.366 -0.2274 -0.2797 -0.1997
13851W        W56768   4.654  20.695  31.283  0.2184 -0.2662 -0.0212
13852W        W56769   0.783  22.759  30.737  0.1377  0.0179  0.0272
13853W        W56770   4.837  20.581  30.843  0.0111  0.2118  0.0405
13854W        W56771   0.603  17.995  31.600 -0.1826 -0.1991 -0.4232
13855W        W56772   2.224  22.403  30.217  0.3551  0.0964 -0.0724
13856W        W56773   1.617  19.806  27.235 -0.0345  0.2568 -0.2102
13857W        W56774   3.632  19.243  30.866  0.2738  0.0044  0.0276
13858W        W56775   0.644  17.432  30.077  0.1094 -0.3275  0.0954
13859W        W56776   2.732  19.375  28.720 -0.0984  0.1262 -0.1494
13860W        W56777   2.190  20.708  31.695 -0.0669 -0.1012  0.5717
13861W        W56778   3.341  20.993  28.859 -0.1165 -0.2998 -0.2168
13862W        W56779   3.122  18.919   0.708 -0.0018  0.1568  0.0745
13863W        W56780   3.574  20.582   0.312 -0.0423  0.1052 -0.0314
13864W        W56781   0.103  20.031  31.804  0.0500  0.0453 -0.0869
13865W        W56782  33.695  20.714   1.244 -0.0632 -0.0907 -0.1245
13866W        W56783   3.011  21.751  31.752  0.0680  0.0392  0.2054
13867W        W56784   0.219  21.419  30.454 -0.1678 -0.2177 -0.1083
13868W        W56785   2.783  17.964  31.874 -0.0792  0.0583 -0.2195
13869W        W56786   0.231  20.437  30.931  0.1233 -0.0366  0.2031
13870W        W56787   2.403  20.007   0.967 -0.1757  0.1339  0.0178
13871W        W56788   1.640  22.479  31.913  0.3603  0.0668 -0.2977
13872W        W56789   3.798  21.008   1.077  0.1939  0.1033 -0.1838
13873W        W56790   0.227  15.816  29.261  0.1356  0.1461  0.1885
13874W        W56791   3.787  20.387  31.036 -0.1540 -0.0616 -0.1993
13875W        W56792  34.058  20.416   1.238 -0.2234 -0.0343 -0.0890
13876W        W56793   3.041  21.751  29.958  0.0725  0.1875 -0.1134
13877W        W56794  33.749  21.792   0.239  0.3057  0.3761 -0.1555
13878W        W56795   1.266  19.935   0.385 -0.1001  0.1705  0.1381
13879W        W56796   3.265  21.264   1.877 -0.0895  0.1281  0.0934
13880W        W56797  33.381  17.382  31.269  0.2604 -0.0238  0.0069
13881W        W56798  32.869  17.017   0.027 -0.2826 -0.1210 -0.0905
13882W        W56799  33.973  18.711   0.511 -0.2759  0.2085 -0.3403
13883W        W56800  33.936  20.432  31.898  0.2516  0.1993 -0.1156
13884W        W56801   2.858  18.881   0.074 -0.2153 -0.1180 -0.2092
13885W        W56802   1.573  16.777  31.213  0.3430  0.1021  0.0525
13886W        W56803   1.946  16.570  29.893  0.4098 -0.2015 -0.1062
13887W        W56804   3.736  20.294  29.939 -0.0472  0.2556  0.3058
13888W        W56805   1.944  19.931   0.836  0.0341 -0.2991  0.1789
13889W        W56806  33.908  22.914  31.881  0.4104 -0.1127  0.2072
13890W        W56807   2.324  18.062  31.782  0.0629  0.0617 -0.2782
13891W        W56808   0.313  22.348  31.358 -0.0870 -0.1557 -0.0054
13892W        W56809   1.055  20.014  31.212  0.0967 -0.1540 -0.1924
13893W        W56810   0.424  19.050  29.203 -0.0038  0.2044  0.0403
13894W        W56811   3.401  21.085  31.513  0.0393  0.0694 -0.0424
13895W        W56812   4.296  20.812   0.913 -0.0299 -0.0694  0.1063
13896W        W56813  33.210  20.546  30.510  0.1197 -0.2877  0.2412
13897W        W56814  34.121  20.639  31.475  0.0846 -0.1007  0.3192
13898W        W56815  34.191  22.140   0.262 -0.1548  0.0421 -0.3782
13899W        W56816   2.643  20.491   0.250 -0.3663 -0.2495 -0.2262
13900W        W56817   0.950  19.046   1.252  0.0025  0.2175 -0.0694
13901W        W56818   2.916  20.917  31.413  0.0029  0.0507  0.1528
13902W        W56819   3.080  18.550  31.809  0.1395 -0.2575 -0.1072
13903W        W56820   4.116  20.005  31.134  0.1615  0.2143  0.3177
13904W        W56821  34.612  19.671   0.128  0.1541 -0.1072 -0.1148
13905W        W56822   3.751  21.400  31.556  0.2676  0.2526  0.2684
13906W        W56823   0.612  19.407   1.034  0.1539  0.2578 -0.1770
13907W        W56824   0.829  20.679   0.090 -0.0669  0.0860  0.1851
13908W        W56825   1.512  18.617   0.390  0.0400  0.2880 -0.0215
13909W        W56826  33.379  22.570   2.290  0.1267  0.4391 -0.0286
13910W        W56827   4.548  20.766  30.520  0.2903 -0.0103  0.1753
13911W        W56828   0.966  21.738  31.644 -0.0993 -0.3822 -0.3740
13912W        W56829   0.999  22.970  31.469  0.1773  0.1170 -0.2048
13913W        W56830   2.934  18.815  31.362 -0.2752 -0.0604 -0.0186
13914W        W56831   2.030  17.539  31.089  0.0170 -0.0068  0.2489
13915W        W56832   0.653  21.063  31.234  0.5169  0.0648 -0.2263
13916W        W56833   1.879  20.448   0.839  0.0336  0.1921 -0.1349
13917W        W56834   1.787  20.377  30.188 -0.1663 -0.0565 -0.2234
13918W        W56835   3.873  21.052   1.656 -0.0507  0.0639 -0.3123
13919W        W56836   1.176  21.809   0.311 -0.0223  0.3319  0.3395
13920W        W56837   0.829  21.375  30.279 -0.1589 -0.1587  0.1632
13921W        W56838  34.609  20.028  30.776  0.1035  0.2177  0.0373
13922W        W56839  34.479  19.577  31.618  0.0958 -0.1245 -0.0677
13923W        W56840  33.740  22.880  30.872  0.2839 -0.0190  0.0850
13924W        W56841  34.358  20.645  29.730 -0.0913 -0.0816  0.0392
13925W        W56842  34.202  18.197  30.963  0.0518  0.4572 -0.1307
13926W        W56843   2.973  21.923  31.019  0.0706 -0.0397  0.1195
13927W        W56844   6.163  20.581  31.660 -0.1078  0.1411  0.1238
13928W        W56845   3.942  20.607   1.906  0.1357  0.0429 -0.0754
13929W        W56846   0.032  26.839  20.694  0.2373  0.1395 -0.0135
13930W        W56847   1.100  24.264  18.093  0.2437  0.4172 -0.1822
13931W        W56848   3.004  22.082  16.701  0.0246  0.0757  0.0363
13932W        W56849   2.095  23.722  17.952  0.4695 -0.2079  0.0428
13933W        W56850   0.109  22.553  19.823 -0.1118 -0.0773 -0.0195
13934W        W56851   4.794  24.900  17.787 -0.3851 -0.4998  0.1820
13935W        W56852   1.307  20.698  18.331 -0.1945  0.0267  0.2694
13936W        W56853   3.509  22.643  18.247  0.2576 -0.0043 -0.0566
13937W        W56854   3.308  24.481  19.535  0.1338 -0.1412  0.0542
13938W        W56855   2.956  23.825  16.891 -0.0341 -0.2754 -0.0339
13939W        W56856   1.201  22.504  20.470  0.1093 -0.1877 -0.0191
13940W        W56857   2.163  23.467  18.491  0.1004 -0.0300  0.0056
13941W        W56858   2.099  22.584  18.332 -0.3256  0.0493 -0.2111
13942W        W56859   1.781  19.997  19.101 -0.1858 -0.0963 -0.0741
13943W        W56860   3.025  22.798  18.924  0.4037 -0.2987 -0.1614
13944W        W56861   1.141  26.244  18.836  0.0672 -0.2533 -0.0744
13945W        W56862   1.306  23.760  20.956 -0.1614  0.0189 -0.3033
13946W        W56863   0.670  24.054  17.759  0.1179 -0.0166 -0.0608
13947W        W56864   1.277  24.840  18.177  0.2439  0.2615  0.0767
13948W        W56865   3.516  21.571  18.986  0.3906  0.0846 -0.1224
13949W        W56866   4.263  22.572  20.512  0.0714  0.3094  0.3457
13950W        W56867   4.178  22.655  18.918  0.0676  0.1253 -0.0641
13951W        W56868  34.093  24.247  17.069 -0.1586 -0.1380  0.0080
13952W        W56869   0.759  23.347  20.043  0.0240 -0.3262  0.0276
13953W        W56870   1.901  22.170  18.984 -0.1248 -0.0070 -0.0306
13954W        W56871   2.885  24.327  18.068  0.4641 -0.1300  0.0596
13955W        W56872   1.701  23.033  19.419 -0.2782  0.2810  0.3749
13956W        W56873   1.455  23.958  17.248 -0.2470 -0.2066 -0.1197
13957W        W56874   2.603  24.153  19.664  0.1533 -0.1400  0.0940
13958W        W56875   2.026  23.360  19.695 -0.0882 -0.1820  0.1460
13959W        W56876   1.057  24.020  16.453 -0.0840  0.0595  0.1984
13960W        W56877  33.143  25.362  19.798  0.2173 -0.1317 -0.0263
13961W        W56878   0.544  25.712  17.712 -0.0350  0.1132 -0.0815
13962W        W56879   4.213  23.570  18.336 -0.1157  0.0702  0.2390
13963W        W56880   4.277  25.860  19.654 -0.0658  0.0272  0.1177
13964W        W56881   2.470  25.483  20.273  0.1993  0.2339  0.1638
13965W        W56882   1.343  23.668  16.679  0.0266 -0.4342 -0.1267
13966W        W56883   2.848  25.588  21.300  0.0433 -0.4020 -0.0959
13967W        W56884   3.336  23.111  17.952 -0.2349 -0.1426  0.1805
13968W        W56885  34.517  23.779  20.288 -0.0737  0.2881 -0.1308
13969W        W56886   3.032  22.394  19.534  0.1978 -0.0246  0.0182
13970W        W56887   0.076  24.220  18.174 -0.3369 -0.2257  0.1771
13971W        W56888   3.380  25.988  18.155  0.2278 -0.2076 -0.0195
13972W        W56889   3.407  23.318  21.415 -0.1269  0.1203  0.1928
13973W        W56890  34.016  25.526  19.127 -0.1630 -0.3004  0.4298
13974W        W56891   5.343  22.869  20.449  0.0990  0.0381 -0.1717
13975W        W56892  34.103  25.784  16.636 -0.2296  0.1043 -0.0014
13976W        W56893   3.001  21.707  19.131  0.0338 -0.2194 -0.2394
13977W        W56894   0.739  24.504  19.003  0.0122  0.2785  0.0609
13978W        W56895   2.978  22.086  17.260 -0.0866 -0.0685 -0.2570
13979W        W56896   2.609  22.742  17.164  0.2023  0.1544 -0.0117
13980W        W56897   0.299  26.006  19.462  0.1452 -0.0402 -0.0488
13981W        W56898   0.861  25.122  20.118 -0.0439  0.0655 -0.2675
13982W        W56899   0.736  24.602  20.003  0.1662  0.1760  0.0442
13983W        W56900   2.503  24.429  18.358  0.0385 -0.0539 -0.0321
13984W        W56901   4.753  21.992  20.428  0.2615 -0.0721 -0.0804
13985W        W56902   0.485  25.944  19.923 -0.0111  0.0127 -0.0155
13986W        W56903  34.299  23.827  18.351 -0.0961  0.0628 -0.2232
13987W        W56904   2.682  25.799  16.414  0.0866 -0.0289  0.1148
13988W        W56905   4.625  23.397  18.696  0.1941  0.0688  0.2060
13989W        W56906   2.957  25.196  16.716  0.0249  0.3007  0.0112
13990W        W56907   0.728  23.433  17.822  0.0008  0.0452  0.1084
13991W        W56908   3.122  23.409  20.202  0.1675  0.1311  0.4223
13992W        W56909   2.011  23.288  20.523 -0.0847  0.4533 -0.2909
13993W        W56910   2.311  21.248  18.589  0.3737  0.1297 -0.1009
13994W        W56911   5.545  26.624  21.220 -0.0208  0.1534 -0.3115
13995W        W56912   0.609  25.498  19.020 -0.1028  0.1907  0.1225
13996W        W56913   2.881  21.225  19.245  0.1756  0.3086 -0.0655
13997W        W56914   2.195  24.450  18.833  0.0108 -0.0951  0.0627
13998W        W56915   2.507  24.977  18.425  0.0905  0.4320 -0.2342
13999W        W56916   3.341  24.254  16.175 -0.3789  0.0007 -0.0829
14000W        W56917   4.895  21.443  18.398 -0.2902  0.0886 -0.2277
14001W        W56918   2.745  22.959  18.564 -0.5048 -0.0967  0.1129
14002W        W56919   0.817  25.793  17.304 -0.1015 -0.0655  0.2148
14003W        W56920   2.577  22.291  17.130 -0.2005  0.1496 -0.2629
14004W        W56921   3.551  24.858  18.648 -0.0941 -0.0564  0.0586
14005W        W56922   2.421  23.265  17.829  0.3240  0.2232 -0.1951
14006W        W56923  34.149  25.487  18.616  0.1988 -0.1980  0.0194
14007W        W56924   2.361  23.477  20.105  0.1064  0.0222  0.0000
14008W        W56925   3.939  24.111  19.684  0.0479  0.2637 -0.0773
14009W        W56926   1.230  24.952  16.774 -0.0419  0.1293 -0.2699
14010W        W56927   1.313  21.629  21.793  0.2545 -0.0587 -0.1768
14011W        W56928   1.435  24.136  16.789 -0.1366  0.0366  0.2278
14012W        W56929   0.949  21.579  18.803 -0.0332  0.2651 -0.0654
14013W        W56930   0.293  23.068  17.958  0.0940 -0.2054  0.1531
14014W        W56931   3.461  22.176  17.392  0.1642 -0.2260 -0.1785
14015W        W56932   1.531  22.966  20.392  0.1432 -0.1421  0.1910
14016W        W56933   5.270  23.339  18.305  0.1299 -0.1906  0.1115
14017W        W56934  34.370  24.869  17.578  0.1250 -0.0290 -0.2122
14018W        W56935   4.287  24.729  17.447 -0.1470  0.1591 -0.0806
14019W        W56936   2.960  23.124  17.648 -0.0171  0.5322 -0.0291
14020W        W56937   3.413  25.307  16.956  0.2647  0.1271  0.0731
14021W        W56938   1.078  22.220  19.519 -0.2329 -0.2740 -0.0107
14022W        W56939   1.094  21.194  18.525  0.3828 -0.4017  0.0716
14023W        W56940   1.798  23.586  20.870  0.2823 -0.3386 -0.1285
14024W        W56941   1.236  22.534  17.806  0.1169 -0.0414  0.2988
14025W        W56942   3.334  22.945  21.126 -0.1215 -0.1051 -0.1738
14026W        W56943   0.957  20.880  17.409 -0.2342  0.1516 -0.2352
14027W        W56944   4.657  22.517  17.489  0.1359 -0.1606  0.0806
14028W        W56945   3.472  23.427  17.455 -0.0840 -0.4983  0.1577
14029W        W56946   0.627  23.498  20.574  0.1510 -0.1483  0.0455
14030W        W56947   3.977  22.503  22.281 -0.0834  0.2349 -0.2670
14031W        W56948   2.463  24.035  17.836 -0.0952 -0.1520 -0.0124
14032W        W56949   3.981  25.939  18.425 -0.0555 -0.2118  0.0499
14033W        W56950   1.945  25.907  17.945 -0.3406 -0.1517  0.0314
14034W        W56951   2.791  23.762  19.924 -0.3202  0.1730 -0.1036
14035W        W56952   1.320  22.698  16.828  0.0165  0.0808 -0.1054
14036W        W56953   2.089  24.679  18.418  0.1733  0.3156 -0.1572
14037W        W56954   3.107  24.813  18.202 -0.2508 -0.2638  0.0609
14038W        W56955   2.966  22.345  19.043  0.1794  0.2661  0.0350
14039W        W56956   3.506  24.385  17.409  0.1493 -0.1838  0.0434
14040W        W56957   2.096  24.387  17.937  0.0273 -0.2355 -0.1689
14041W        W56958   1.118  23.263  17.627 -0.2159  0.1585 -0.1193
14042W        W56959   3.329  21.049  19.175  0.0493  0.1733  0.0383
14043W        W56960   3.128  24.168  17.643  0.4198  0.0700  0.1372
14044W        W56961   1.871  23.952  17.537 -0.2685  0.0487 -0.1333
14045W        W56962   1.734  22.310  16.981 -0.0698 -0.1210  0.1847
14046W        W56963   3.298  25.724  19.089 -0.0775  0.0404 -0.4543
14047W        W56964   0.655  25.486  18.534 -0.5486  0.5624 -0.0087
14048W        W56965   0.964  23.666  18.657  0.1434  0.1780  0.0828
14049W        W56966   4.197  22.823  16.411  0.2657 -0.0343  0.0978
14050W        W56967   2.555  22.704  19.791  0.1228  0.1570 -0.0667
14051W        W56968   1.399  23.283  18.957  0.1723 -0.2016  0.0047
14052W        W56969   3.109  23.672  20.655 -0.2354  0.0193  0.0971
14053W        W56970  34.178  23.330  18.194 -0.0159  0.3644  0.1469
14054W        W56971  34.375  25.831  19.000  0.0722 -0.1672 -0.1726
14055W        W56972   2.976  23.459  17.316 -0.2021  0.0879 -0.1510
14056W        W56973   4.514  22.829  17.968  0.0840 -0.0410 -0.2363
14057W        W56974   4.874  24.032  20.762 -0.2781  0.0428 -0.2196
14058W        W56975   3.504  24.923  17.587 -0.0073  0.2908  0.3356
14059W        W56976   2.794  21.649  16.884 -0.1958 -0.0345 -0.0667
14060W        W56977   2.082  20.954  17.066  0.2576 -0.0584  0.0046
14061W        W56978   0.488  24.601  19.404 -0.5118 -0.0757 -0.2589
14062W        W56979   1.485  24.537  17.793 -0.0344  0.0936 -0.1143
14063W        W56980   0.505  25.036  19.038 -0.2047 -0.1698  0.0132
14064W        W56981   1.685  23.473  17.203 -0.0738 -0.1276 -0.3741
14065W        W56982   2.820  23.999  17.348  0.1326  0.1040  0.0441
14066W        W56983   0.070  25.394  18.235  0.1975  0.1183  0.1516
14067W        W56984   4.291  24.234  19.234  0.2863 -0.0101  0.1254
14068W        W56985   3.101  25.115  17.814  0.1277  0.0963  0.1490
14069W        W56986   3.993  23.720  20.782  0.3212 -0.3661  0.1435
14070W        W56987  34.196  22.063  18.701 -0.1593  0.1847  0.3300
14071W        W56988   3.248  23.730  17.839 -0.1041  0.0520 -0.2115
14072W        W56989  34.562  25.208  17.152 -0.0904  0.1073 -0.0435
14073W        W56990   3.861  22.436  18.579  0.2217  0.0215  0.1205
14074W        W56991   2.334  23.173  19.333  0.1066  0.3762  0.2979
14075W        W56992   1.880  23.187  18.070 -0.0084  0.0492 -0.1292
14076W        W56993   4.324  21.614  20.705 -0.0989  0.0278  0.1811
14077W        W56994   3.715  22.987  17.664 -0.1871  0.0915 -0.3193
14078W        W56995   4.292  24.499  19.820  0.2557 -0.0413  0.0139
14079W        W56996   0.648  25.329  16.501  0.1438  0.0528 -0.1871
14080W        W56997   5.534  21.094  21.330  0.0481  0.0387  0.2175
14081W        W56998   1.671  22.863  18.384  0.2367  0.0660  0.1350
14082W        W56999  33.814  25.248  19.584  0.2759  0.0541  0.0664
14083W        W57000  34.134  24.336  19.719 -0.1288 -0.1693 -0.2131
14084W        W57001   2.114  23.330  16.994  0.1820 -0.0684 -0.1171
14085W        W57002   3.950  23.602  19.414  0.0335 -0.0856  0.0123
14086W        W57003   0.687  20.903  18.418 -0.1603  0.0727 -0.0905
14087W        W57004   0.964  26.138  16.626  0.2256  0.0909  0.0592
14088W        W57005   1.132  23.798  17.636 -0.3884 -0.0478  0.0740
14089W        W57006   0.427  24.202  19.717  0.0795 -0.2469  0.2331
14090W        W57007   1.305  25.001  17.353 -0.1504 -0.0074 -0.0695
14091W        W57008   1.575  24.071  17.918 -0.0879 -0.2154  0.5384
14092W        W57009   3.291  23.879  18.758  0.0583  0.1210 -0.0452
14093W        W57010   1.012  24.228  17.455 -0.0409  0.0014 -0.0612
14094W        W57011   2.232  20.986  19.677  0.1910 -0.2323  0.1875
14095W        W57012  34.299  24.239  20.461 -0.0980 -0.3879 -0.0324
14096W        W57013   2.045  24.169  18.469  0.2773 -0.0456 -0.2763
14097W        W57014  34.461  23.717  17.893  0.0511  0.0269 -0.2810
14098W        W57015   3.284  22.069  17.872  0.0406  0.2131  0.0822
14099W        W57016   3.814  25.311  18.499 -0.2046  0.3430 -0.1318
14100W        W57017   1.454  24.146  19.482  0.1199  0.1695  0.1660
14101W        W57018   2.582  22.752  17.695 -0.0652  0.1814 -0.1053
14102W        W57019  34.590  27.863  19.389 -0.2503 -0.1177 -0.0069
14103W        W57020   3.989  23.618  19.938  0.1045 -0.4194 -0.1264
14104W        W57021   3.335  20.910  15.882 -0.1502 -0.0620  0.0627
14105W        W57022   1.813  24.825  17.955  0.1095  0.1071  0.2743
14106W        W57023   0.604  24.344  21.825  0.0728 -0.1484  0.1846
14107W        W57024   0.583  23.898  18.875  0.1482 -0.0367  0.0556
14108W        W57025   4.679  21.268  21.023 -0.1395  0.3836 -0.3131
14109W        W57026  34.621  24.976  19.771 -0.1688  0.0993 -0.2573
14110W        W57027   0.520  24.432  18.123  0.1582 -0.1089  0.0901
14111W        W57028   2.623  24.920  17.648  0.3357  0.1986 -0.1715
14112W        W57029  34.057  27.289  18.915  0.1955  0.4255 -0.2422
14113W        W57030   0.908  25.474  19.400  0.3205 -0.2266 -0.1195
14114W        W57031   0.480  22.381  21.034  0.1194 -0.2410 -0.0877
14115W        W57032   1.837  24.121  20.442 -0.0830 -0.0504 -0.1124
14116W        W57033   1.948  23.745  20.183 -0.2290  0.0543  0.0127
14117W        W57034   1.408  23.029  18.009 -0.0034  0.2471 -0.2508
14118W        W57035   2.749  25.405  17.511 -0.0602  0.1113 -0.2069
14119W        W57036   1.707  23.343  18.548  0.0378  0.0094  0.0327
14120W        W57037   4.047  23.032  19.264  0.0998 -0.2723  0.4130
14121W        W57038  33.071  24.158  21.436 -0.2182 -0.0536  0.2365
14122W        W57039   4.308  24.018  20.060  0.1672  0.0048  0.3309
14123W        W57040   2.943  25.011  17.257  0.2076 -0.3679  0.1833
14124W        W57041   3.625  25.177  19.806  0.0448 -0.1035 -0.3110
14125W        W57042   0.922  23.739  18.152  0.0255  0.0558  0.1229
14126W        W57043   0.756  24.123  19.334 -0.1695 -0.0449 -0.1054
14127W        W57044   1.714  23.132  16.581 -0.1940  0.0162  0.2772
14128W        W57045   2.887  22.881  19.465  0.1232 -0.2665  0.1715
14129W        W57046   0.923  24.643  17.827  0.1684  0.0449 -0.1777
14130W        W57047  33.629  25.146  17.064  0.2487 -0.2255  0.0331
14131W        W57048  34.636  22.980  20.203  0.0627  0.2392 -0.1035
14132W        W57049   3.614  21.638  17.873 -0.1851 -0.4008  0.0136
14133W        W57050   2.017  23.729  16.508  0.0195  0.1815  0.1134
14134W        W57051   0.525  23.683  19.483 -0.2621 -0.2184  0.1723
14135W        W57052   3.725  21.061  20.112 -0.1272 -0.1349 -0.0869
14136W        W57053   3.365  25.852  17.117 -0.0798  0.0513  0.1309
14137W        W57054   0.770  22.876  19.144 -0.1776 -0.0129  0.3239
14138W        W57055   0.600  22.370  19.039 -0.2351  0.0734 -0.1572
14139W        W57056   3.067  22.536  17.424  0.2686 -0.1644 -0.0816
14140W        W57057   2.544  23.819  18.273  0.2478  0.0484 -0.3282
14141W        W57058   3.813  24.405  19.297 -0.1347  0.4159  0.0502
14142W        W57059   0.972  23.865  20.542 -0.1615  0.0045  0.0817
14143W        W57060   0.854  22.929  17.888  0.4433 -0.1134  0.0785
14144W        W57061   0.455  23.352  17.044  0.0446 -0.0462 -0.0771
14145W        W57062   3.780  23.695  18.522  0.1813 -0.0192 -0.1532
14146W        W57063   2.401  24.064  19.112 -0.0766  0.0663 -0.1066
14147W        W57064   2.537  24.893  16.625  0.0288  0.2911  0.2532
14148W        W57065   3.037  23.933  18.301  0.1349 -0.1880  0.0310
14149W        W57066   0.344  24.431  18.635  0.1433  0.4942  0.1461
14150W        W57067   3.732  22.896  18.776  0.2004  0.1331 -0.0651
14151W        W57068   3.402  22.663  20.422  0.0118 -0.1505  0.1308
14152W        W57069   1.721  25.718  17.130 -0.3650 -0.1584 -0.0385
14153W        W57070   1.326  21.373  19.022  0.1111 -0.3731 -0.0367
14154W        W57071   2.930  23.784  19.099  0.1789 -0.4136  0.4408
14155W        W57072   3.230  21.945  18.782  0.3238 -0.1767  0.1601
14156W        W57073   1.867  22.365  20.915  0.0473  0.1984  0.3328
14157W        W57074   3.554  23.066  20.169 -0.0686  0.0836  0.2156
14158W        W57075   1.740  20.575  19.569 -0.3468  0.2714 -0.0427
14159W        W57076  34.621  22.482  20.276  0.0780  0.1542 -0.1452
14160W        W57077   2.848  26.496  20.341  0.2386 -0.0863 -0.1773
14161W        W57078   2.116  22.780  17.832 -0.1342 -0.2710 -0.3346
14162W        W57079   3.961  24.461  20.186  0.2140 -0.2565 -0.0811
14163W        W57080   4.966  23.778  21.187  0.3293  0.0432 -0.2072
14164W        W57081   3.329  23.421  16.980 -0.1584  0.2218 -0.0063
14165W        W57082   0.293  23.319  19.030  0.0112  0.0871  0.3495
14166W        W57083   4.707  24.562  19.565  0.2295  0.0549  0.2998
14167W        W57084   2.300  22.277  17.694 -0.1122  0.0498 -0.2218
14168W        W57085   1.677  21.822  20.276  0.0791 -0.3596 -0.0701
14169W        W57086   2.240  24.636  16.939  0.1717 -0.1035 -0.2240
14170W        W57087   3.393  22.525  18.767  0.2135 -0.1216 -0.0053
14171W        W57088   2.687  22.735  16.583 -0.3303 -0.0727 -0.1355
14172W        W57089   0.832  22.308  18.103 -0.1085 -0.2119  0.0657
14173W        W57090   0.415  25.053  20.020 -0.0679 -0.1524 -0.0517
14174W        W57091  34.454  23.235  17.701  0.0296  0.0004  0.0284
14175W        W57092   2.105  23.900  19.757  0.1754 -0.2792 -0.2405
14176W        W57093  34.426  23.576  18.831 -0.0349 -0.0922  0.3278
14177W        W57094   5.870  22.919  19.621  0.0343  0.1196  0.1595
14178W        W57095   2.945  21.586  17.860  0.0142  0.1977  0.0135
14179W        W57096   1.376  22.352  19.090  0.2162 -0.1323  0.1889
14180W        W57097   3.171  24.290  17.076 -0.1767  0.1589 -0.1108
14181W        W57098   0.865  22.344  18.601  0.1749  0.0922  0.0439
14182W        W57099   1.561  25.744  21.164 -0.1503  0.1395 -0.4427
14183W        W57100   0.090  23.959  18.644 -0.1359  0.3106  0.1367
14184W        W57101   2.357  26.254  19.052 -0.0924 -0.1226  0.2529
14185W        W57102   4.277  23.561  20.381  0.2669 -0.2037  0.1370
14186W        W57103   4.855  22.880  17.179 -0.1073 -0.2498 -0.0949
14187W        W57104   1.700  22.403  18.583  0.1214  0.1583 -0.1905
14188W        W57105   3.023  23.258  19.069  0.1421 -0.0310  0.0690
14189W        W57106   0.872  25.060  18.663 -0.0782  0.0025 -0.1751
14190W        W57107   0.840  25.789  18.149 -0.1054 -0.0401  0.0510
14191W        W57108   1.681  24.316  19.867  0.2271 -0.0336  0.1450
14192W        W57109   3.443  22.156  18.389 -0.1300  0.0066 -0.1409
14193W        W57110   1.588  24.476  18.295 -0.4125  0.1813  0.0026
14194W        W57111   2.559  20.659  18.399 -0.1779 -0.2549 -0.1219
14195W        W57112   3.058  24.647  20.357  0.0657  0.2587 -0.1123
14196W        W57113   1.793  23.775  18.323 -0.1410 -0.0498  0.0328
14197W        W57114   0.441  22.589  18.036  0.0339 -0.3368 -0.2497
14198W        W57115   1.788  24.672  16.111 -0.1506 -0.1607  0.2691
14199W        W57116  34.594  25.019  21.605 -0.1691  0.1593  0.1858
14200W        W57117   1.355  22.178  18.267 -0.1721 -0.1473  0.1479
14201W        W57118   0.880  24.724  17.253  0.1343  0.2631  0.0388
14202W        W57119   2.502  23.632  17.050  0.3751 -0.1796  0.1316
14203W        W57120   2.839  23.109  16.310 -0.1158  0.0892 -0.1840
14204W        W57121   2.430  24.627  19.305  0.1436  0.3419 -0.0481
14205W        W57122   0.617  22.501  17.588 -0.1211  0.1552  0.2083
14206W        W57123   1.895  24.355  19.182  0.1886 -0.0038 -0.0041
14207W        W57124   0.878  23.458  16.634  0.3416 -0.2027  0.4145
14208W        W57125   1.864  24.321  17.110 -0.0467 -0.2180 -0.0437
14209W        W57126   1.025  25.585  17.683 -0.2995  0.0869 -0.0167
14210W        W57127   4.993  23.291  20.698 -0.0038  0.0328  0.0052
14211W        W57128   4.218  21.002  17.369 -0.2470 -0.0991 -0.0048
14212W        W57129   2.116  22.519  20.090  0.3027 -0.0236 -0.1586
14213W        W57130   2.747  23.660  17.790  0.0240  0.0692  0.1477
14214W        W57131   1.964  24.837  21.960 -0.1722  0.0682 -0.1319
14215W        W57132   1.933  23.457  19.125 -0.3254 -0.0788 -0.2189
14216W        W57133   2.092  21.495  17.098 -0.0770  0.0845 -0.2656
14217W        W57134   0.537  24.278  20.737  0.1434 -0.2440  0.3615
14218W        W57135   4.600  21.911  22.529  0.0440 -0.3430 -0.1268
14219W        W57136   0.107  25.523  19.792  0.0227 -0.2749 -0.0411
14220W        W57137   2.299  24.139  17.273 -0.1372  0.0605 -0.1926
14221W        W57138  34.628  24.942  18.014  0.1739 -0.2171 -0.2055
14222W        W57139   0.118  24.010  17.613  0.3769  0.1744 -0.0627
14223W        W57140   2.470  21.635  19.350  0.1438 -0.0587 -0.0142
14224W        W57141   2.112  25.104  16.720 -0.0388 -0.0996  0.0982
14225W        W57142   3.471  24.654  20.002 -0.0994 -0.0550 -0.2899
14226W        W57143   0.457  25.102  17.160 -0.3580  0.1581  0.1818
14227W        W57144   1.739  22.897  18.954 -0.1348  0.3456 -0.0880
14228W        W57145   2.854  24.287  19.163 -0.0749  0.3592  0.2626
14229W        W57146   0.858  22.495  17.160  0.2093  0.1506  0.2548
14230W        W57147   4.248  22.325  17.211  0.5616 -0.2785 -0.1142
14231W        W57148   1.062  24.449  20.403  0.2926 -0.1636  0.2552
14232W        W57149   5.461  21.322  19.202  0.0769  0.2113  0.0461
14233W        W57150   1.059  23.743  19.618  0.0016 -0.1675  0.1579
14234W        W57151   3.467  22.318  19.201 -0.1292  0.0835  0.2523
14235W        W57152   3.708  23.255  18.298  0.1404 -0.0037  0.0429
14236W        W57153   2.145  22.146  18.569  0.1266  0.0476 -0.1767
14237W        W57154   0.747  23.730  17.371  0.0573 -0.2870  0.3376
14238W        W57155   5.317  22.577  21.457 -0.0268 -0.1628  0.1256
14239W        W57156   1.756  22.896  17.080 -0.0430 -0.1207 -0.3059
14240W        W57157   2.059  24.478  20.143  0.2173  0.0170 -0.2346
14241W        W57158   2.200  23.132  18.793  0.0264  0.1640  0.2439
14242W        W57159   1.412  22.256  16.566 -0.1638  0.0037  0.1362
14243W        W57160   0.431  24.122  17.197  0.0259 -0.0250  0.4089
14244W        W57161   1.199  24.069  20.048  0.0313  0.0101 -0.0250
14245W        W57162   3.627  25.523  20.634 -0.1553 -0.3608  0.2504
14246W        W57163   1.646  22.541  17.999 -0.1352  0.2730 -0.0179
14247W        W57164   4.657  25.022  17.303  0.0801 -0.1104 -0.3233
14248W        W57165   4.391  23.185  19.601  0.0322 -0.0150 -0.1268
14249W        W57166   3.106  24.184  16.577  0.2776 -0.1211  0.0013
14250W        W57167   4.896  23.245  19.155  0.0268  0.0302  0.1097
14251W        W57168   0.561  23.985  18.379  0.1091 -0.1155 -0.1679
14252W        W57169   0.750  22.786  18.408 -0.0304  0.0331 -0.5563
14253W        W57170   4.298  25.128  18.980 -0.0243  0.1255 -0.2374
14254W        W57171   3.922  24.616  17.164  0.3240  0.2543 -0.0930
14255W        W57172   2.174  21.732  17.571  0.3005  0.2629  0.0141
14256W        W57173   2.112  22.851  19.680  0.0141 -0.0888  0.1571
14257W        W57174   0.524  27.839  17.889 -0.0657  0.1448  0.2235
14258W        W57175   4.555  20.918  17.821  0.0333  0.1396 -0.2003
14259W        W57176   5.023  21.106  21.454  0.1482  0.0994 -0.3386
14260W        W57177   2.254  24.599  17.468 -0.2881  0.4102 -0.2359
14261W        W57178   2.194  23.793  20.636 -0.0094  0.2647  0.2161
14262W        W57179   0.369  25.129  19.516  0.1049  0.2528  0.2099
14263W        W57180   3.428  24.663  20.737 -0.0473 -0.2086  0.0449
14264W        W57181   0.052  25.293  17.605  0.1205  0.0130 -0.4045
14265W        W57182   1.471  23.719  20.498 -0.2129  0.1533  0.5940
14266W        W57183   2.260  24.960  18.014  0.1089  0.3170 -0.2552
14267W        W57184   2.227  25.569  17.302  0.0409  0.2523 -0.0712
14268W        W57185   4.029  26.022  18.915  0.0816 -0.1058 -0.1416
14269W        W57186   4.008  24.124  16.631 -0.2991  0.0672  0.0732
14270W        W57187   4.086  23.148  17.937  0.3220 -0.2642  0.1881
14271W        W57188   2.957  24.293  20.036  0.0382 -0.1884  0.1434
14272W        W57189   5.751  23.524  18.360  0.1677  0.2383 -0.0669
14273W        W57190   3.957  21.902  17.370  0.1397  0.0367  0.2516
14274W        W57191   2.664  24.635  18.842  0.1366  0.3142 -0.1835
14275W        W57192   1.287  21.759  17.557 -0.1703  0.0602 -0.0617
14276W        W57193   0.127  24.951  16.784  0.0192  0.0659  0.0694
14277W        W57194   2.123  24.362  19.637  0.2201 -0.0796 -0.3949
14278W        W57195   2.650  20.207  18.835  0.2644 -0.0904 -0.1662
14279W        W57196   1.107  23.944  19.045 -0.1743 -0.1077 -0.2592
14280W        W57197   1.301  24.483  19.061 -0.0931  0.0176  0.1517
14281W        W57198   0.990  22.186  17.565 -0.3737 -0.2584 -0.2357
14282W        W57199   2.515  23.256  17.350 -0.0836  0.0449 -0.1301
14283W        W57200   2.524  22.920  20.512 -0.0399  0.0461  0.1033
14284W        W57201   1.342  21.479  18.001 -0.3330 -0.2239 -0.0472
14285W        W57202   4.750  23.730  16.856 -0.0640  0.0648  0.0676
14286W        W57203   4.213  24.171  18.049 -0.0437 -0.2373  0.0483
14287W        W57204   3.261  23.038  18.452 -0.1286 -0.2970  0.1427
14288W        W57205   2.773  25.100  20.173  0.1537  0.2931 -0.0047
14289W        W57206  34.288  22.550  17.674 -0.3242  0.1508 -0.2375
14290W        W57207   2.110  21.592  20.486  0.0485  0.0043  0.0162
14291W        W57208   1.642  23.309  20.071  0.1009  0.0693 -0.0274
14292W        W57209   0.372  22.764  17.142 -0.2358  0.1935  0.0543
14293W        W57210   1.676  23.541  17.724  0.0923 -0.0978 -0.1418
14294W        W57211   1.399  24.437  17.246  0.1691  0.1715  0.0220
14295W        W57212   1.897  25.746  16.277  0.2451  0.0677  0.0789
14296W        W57213   3.321  25.283  18.855 -0.0127 -0.0983  0.0772
14297W        W57214   1.260  24.658  19.889 -0.2033  0.1441 -0.2905
14298W        W57215   0.707  21.330  19.666  0.2091 -0.1165  0.3596
14299W        W57216   3.571  24.368  16.828  0.3173  0.0275 -0.2806
14300W        W57217   1.565  23.765  19.866  0.0829  0.2486  0.0845
14301W        W57218   3.874  25.571  17.049  0.0169 -0.1833 -0.1731
14302W        W57219   3.266  23.519  18.356  0.0159  0.1330  0.0265
14303W        W57220   4.370  23.737  17.314 -0.2161 -0.2431 -0.2482
14304W        W57221   1.382  23.498  18.158 -0.2276 -0.3396 -0.1184
14305W        W57222   3.746  23.199  19.666  0.0007  0.0957 -0.0813
14306W        W57223   4.101  26.421  18.621  0.4055  0.0735 -0.0159
14307W        W57224   1.551  22.171  17.651 -0.0898  0.2059  0.1180
14308W        W57225   2.304  21.769  16.748 -0.1401  0.1516 -0.0967
14309W        W57226   2.306  23.731  17.513  0.0251  0.1837 -0.0420
14310W        W57227   0.441  23.521  18.645 -0.1659 -0.2524 -0.0251
14311W        W57228  34.546  22.843  18.077  0.0967  0.0511 -0.2636
14312W        W57229   2.792  24.026  20.406  0.0719 -0.1615  0.2050
14313W        W57230   3.589  26.167  20.943 -0.1561  0.0518  0.0387
14314W        W57231   4.931  24.876  20.452  0.0954  0.0224 -0.0284
14315W        W57232   2.732  24.557  17.240 -0.0198 -0.0456  0.0465
14316W        W57233   4.793  24.535  19.070  0.3971  0.0509  0.1248
14317W        W57234   3.882  25.883  20.363 -0.1611 -0.3955  0.0070
14318W        W57235   2.168  24.460  20.629  0.0064  0.0531 -0.1625
14319W        W57236   3.452  27.323  17.776 -0.0126 -0.2156  0.0800
14320W        W57237   4.319  21.213  19.843 -0.0907  0.0779 -0.0416
14321W        W57238   2.329  23.021  18.237 -0.5172  0.5929  0.0862
14322W        W57239   3.695  23.570  17.932 -0.0301  0.0704 -0.1683
14323W        W57240   1.858  25.220  17.163  0.0149 -0.2007  0.0067
14324W        W57241   3.266  23.144  19.704 -0.0939 -0.0393  0.0478
14325W        W57242   1.154  23.014  20.059  0.2026 -0.2885 -0.1530
14326W        W57243   4.110  21.284  17.743 -0.2995 -0.1216  0.1517
14327W        W57244   0.957  25.704  20.248 -0.1880 -0.0566 -0.1608
14328W        W57245   2.890  23.228  16.882  0.0330  0.1819 -0.1166
14329W        W57246  33.909  23.553  24.899 -0.0580 -0.3233  0.3150
14330W        W57247   3.123  24.284  21.497  0.1369 -0.0679 -0.0458
14331W        W57248   4.638  23.420  21.512  0.1633  0.1133  0.3980
14332W        W57249   5.872  25.578  20.341 -0.0053 -0.2178  0.0407
14333W        W57250   0.577  23.448  22.442  0.2693  0.0624 -0.0554
14334W        W57251   2.680  23.820  20.866 -0.1368  0.1679 -0.1844
14335W        W57252   1.411  23.637  21.422  0.0861 -0.0407 -0.1636
14336W        W57253   2.756  23.835  21.641  0.2032  0.1773 -0.1534
14337W        W57254   2.454  26.021  24.471 -0.0959 -0.0375  0.2037
14338W        W57255   2.895  23.282  18.154  0.1930  0.0146 -0.0979
14339W        W57256   0.748  20.461  22.625  0.0290 -0.0506  0.2514
14340W        W57257   3.049  24.777  21.645 -0.2993  0.1557  0.1032
14341W        W57258   3.652  20.211  20.981 -0.0909 -0.0586 -0.1474
14342W        W57259   0.338  22.483  21.525 -0.0431 -0.3943 -0.0707
14343W        W57260   2.743  22.681  23.756 -0.1127 -0.1827  0.1323
14344W        W57261   1.072  26.184  20.739  0.0154 -0.0884 -0.0578
14345W        W57262   4.005  23.297  22.098 -0.2290  0.2153 -0.2555
14346W        W57263   2.996  23.487  19.487  0.0737  0.0525  0.1077
14347W        W57264   2.352  25.692  22.347 -0.1443  0.0468  0.0908
14348W        W57265   3.216  20.953  24.473  0.0874 -0.3247  0.1122
14349W        W57266   1.480  21.578  22.638  0.1303  0.0708  0.1038
14350W        W57267   2.533  26.621  21.269  0.1508  0.0445 -0.0082
14351W        W57268   0.971  24.519  19.529 -0.3224 -0.0602  0.1365
14352W        W57269   1.671  23.006  20.872 -0.0997 -0.0748  0.2593
14353W        W57270  34.191  22.080  21.406 -0.0220  0.1803 -0.0012
14354W        W57271   3.647  24.186  21.872 -0.3030  0.0364 -0.1474
14355W        W57272   2.735  22.874  20.969 -0.0926 -0.0922  0.0616
14356W        W57273  34.593  25.449  21.943 -0.1281 -0.1890 -0.3406
14357W        W57274   1.432  25.487  22.078  0.0782  0.3811 -0.0768
14358W        W57275   4.444  23.120  24.474 -0.1343 -0.1406 -0.0340
14359W        W57276   0.209  24.606  21.274 -0.0485 -0.2001 -0.0578
14360W        W57277  33.694  25.417  22.290 -0.0012 -0.2922 -0.2250
14361W        W57278   0.797  24.948  19.660 -0.2115 -0.2819  0.0749
14362W        W57279   4.861  23.988  19.936  0.3148 -0.1340 -0.3144
14363W        W57280   1.829  23.798  23.936 -0.0225  0.0428  0.2233
14364W        W57281   1.675  24.881  23.290 -0.0409 -0.1112  0.1586
14365W        W57282   1.047  25.348  20.557 -0.1601  0.1383 -0.0377
14366W        W57283   2.783  25.943  24.036 -0.0366  0.1944  0.2209
14367W        W57284   1.559  25.284  22.796 -0.0705 -0.1764 -0.0113
14368W        W57285   2.409  22.705  23.402  0.0411 -0.0597 -0.0178
14369W        W57286   4.333  24.035  20.614 -0.3045  0.1283  0.1282
14370W        W57287   4.599  23.612  20.828 -0.0422  0.0056 -0.2144
14371W        W57288   3.162  25.290  22.328 -0.1057  0.1691 -0.2210
14372W        W57289   0.661  22.038  22.762 -0.2518  0.0972  0.4716
14373W        W57290   0.305  22.358  22.007  0.2112 -0.1939  0.0268
14374W        W57291   4.022  22.362  24.193  0.3101  0.1246  0.0989
14375W        W57292   1.169  22.732  21.504  0.0173  0.2525 -0.2069
14376W        W57293   3.551  24.850  21.505 -0.0328  0.2378  0.0448
14377W        W57294   2.557  24.562  20.275  0.1261  0.1186 -0.1199
14378W        W57295   2.721  20.957  20.934 -0.0976  0.2525  0.0801
14379W        W57296   3.900  19.113  23.122  0.1087 -0.0412  0.0500
14380W        W57297  34.309  26.045  21.173  0.3666  0.1001  0.2038
14381W        W57298   2.886  23.353  21.760 -0.0202 -0.0951  0.1028
14382W        W57299   2.752  24.287  21.870  0.1859  0.1005 -0.0451
14383W        W57300   2.532  22.644  21.351  0.1851 -0.3613  0.1546
14384W        W57301   4.328  22.075  21.881  0.3309  0.1859 -0.3331
14385W        W57302   2.118  23.474  24.231 -0.3467  0.0173 -0.0913
14386W        W57303   1.014  23.874  21.730  0.0839 -0.2255  0.1843
14387W        W57304   2.421  25.670  21.607 -0.1117 -0.1601 -0.1089
14388W        W57305   3.327  25.636  21.523 -0.0389 -0.1944 -0.0239
14389W        W57306   3.467  25.501  17.939  0.1880  0.1606 -0.1791
14390W        W57307   1.271  23.153  21.186  0.1104 -0.1881  0.0324
14391W        W57308   0.350  23.106  24.213  0.2237 -0.0405  0.0649
14392W        W57309   1.647  22.991  21.916 -0.1069  0.0208 -0.1876
14393W        W57310   0.853  22.285  21.738 -0.1626 -0.1975 -0.1865
14394W        W57311   3.065  21.682  23.483 -0.0127 -0.2078  0.1876
14395W        W57312   1.515  23.771  22.632  0.0687 -0.0408  0.1174
14396W        W57313   4.961  23.884  21.971 -0.0560  0.1609  0.0536
14397W        W57314   2.122  22.323  21.333 -0.0848  0.1898  0.0852
14398W        W57315   4.361  24.880  22.202  0.0692  0.0160 -0.0581
14399W        W57316   3.877  23.574  21.270 -0.3573 -0.0494 -0.0903
14400W        W57317   4.095  21.602  22.802 -0.1612 -0.1317  0.0061
14401W        W57318   4.383  20.688  23.408 -0.1061  0.0649  0.0762
14402W        W57319   1.374  24.949  20.300 -0.0869 -0.2947 -0.1826
14403W        W57320   4.190  24.372  21.957 -0.2483  0.1827  0.0407
14404W        W57321   5.701  25.013  22.625  0.2841 -0.0263 -0.2628
14405W        W57322   4.242  25.543  18.671 -0.1071  0.1095  0.0533
14406W        W57323   0.189  26.046  21.042 -0.3101 -0.0063 -0.1458
14407W        W57324   2.077  21.052  24.035  0.0211 -0.0852  0.1867
14408W        W57325   4.526  25.598  22.599  0.0461  0.3275  0.0317
14409W        W57326   3.866  25.598  19.569 -0.0796 -0.3911 -0.0973
14410W        W57327  34.479  25.093  22.669 -0.1129 -0.1244  0.0100
14411W        W57328   1.174  23.501  20.222  0.2902 -0.2080  0.0585
14412W        W57329   0.150  22.122  23.142 -0.0135  0.1916 -0.3043
14413W        W57330   0.703  24.790  22.913  0.0581 -0.1516 -0.2759
14414W        W57331   4.235  23.610  22.497 -0.1862  0.1771  0.1704
14415W        W57332   1.514  22.341  24.986  0.0721 -0.3587  0.0679
14416W        W57333   6.051  23.389  21.219  0.1892 -0.1484  0.1423
14417W        W57334   1.359  25.451  21.500 -0.1732 -0.0117 -0.0630
14418W        W57335   3.894  25.742  21.225 -0.0332 -0.2716 -0.0930
14419W        W57336   3.943  24.124  21.092  0.3151 -0.0580  0.1806
14420W        W57337   2.317  24.055  21.593 -0.2454 -0.0478 -0.1297
14421W        W57338   1.107  23.876  23.207 -0.0832  0.2497  0.1814
14422W        W57339   0.239  21.404  20.976 -0.1578  0.2286  0.2945
14423W        W57340   1.680  22.904  22.552  0.1954 -0.1042 -0.1541
14424W        W57341   0.578  22.295  23.179 -0.0870  0.1889  0.1563
14425W        W57342   3.755  23.439  23.881 -0.0261 -0.2177  0.0218
14426W        W57343  33.438  20.486  18.660  0.0663  0.5136 -0.0566
14427W        W57344   2.483  21.866  21.467  0.1920  0.2048  0.1424
14428W        W57345   1.089  21.655  20.489 -0.1591  0.0019 -0.0026
14429W        W57346  33.876  22.882  22.916  0.0804 -0.2865 -0.5481
14430W        W57347   2.799  20.773  23.174 -0.1419 -0.2204 -0.0684
14431W        W57348   0.922  24.894  20.592 -0.2031 -0.2577 -0.0214
14432W        W57349   0.652  25.265  22.621  0.1397  0.1021 -0.0752
14433W        W57350   5.027  25.166  20.915 -0.0066  0.1467 -0.0272
14434W        W57351   1.503  22.372  24.400  0.1982 -0.0492 -0.0041
14435W        W57352   2.492  22.401  21.745  0.3173 -0.1511 -0.2843
14436W        W57353  33.512  26.227  22.941 -0.0450  0.2425  0.3523
14437W        W57354   1.209  26.784  21.701 -0.1971 -0.0770 -0.3448
14438W        W57355   3.307  22.376  20.803  0.0661  0.0820  0.0228
14439W        W57356   2.273  25.527  21.140  0.1356 -0.0896  0.1639
14440W        W57357   3.450  24.435  21.188 -0.0796  0.2856 -0.3355
14441W        W57358   1.368  24.124  22.160  0.0954 -0.0151 -0.0729
14442W        W57359   3.717  22.444  22.918  0.2129  0.0584  0.0126
14443W        W57360   3.227  22.650  23.862  0.0747 -0.1779 -0.0585
14444W        W57361   1.123  22.695  22.011  0.0042  0.2199 -0.0203
14445W        W57362   2.958  22.468  21.137  0.1180 -0.1648 -0.1004
14446W        W57363   5.711  24.837  21.518 -0.0054 -0.1192  0.0705
14447W        W57364   0.666  26.166  21.062 -0.0047 -0.2511 -0.3188
14448W        W57365   0.325  24.756  21.820 -0.2792  0.0486  0.3235
14449W        W57366   1.563  27.051  23.651 -0.0275  0.1951 -0.1289
14450W        W57367   4.762  20.972  24.160  0.1455 -0.0972  0.2286
14451W        W57368  33.054  23.979  24.447 -0.0054  0.1377  0.1346
14452W        W57369   2.996  23.332  23.084 -0.0825 -0.1963 -0.4724
14453W        W57370   2.507  24.787  21.722 -0.0743  0.1890  0.1360
14454W        W57371  34.421  22.777  23.356  0.4561  0.0285  0.1860
14455W        W57372   4.523  21.609  21.879 -0.1690 -0.1128 -0.5256
14456W        W57373   2.409  23.291  20.821 -0.0855  0.1336 -0.0677
14457W        W57374   4.057  25.013  25.670  0.0141  0.1187  0.0614
14458W        W57375   4.549  26.876  21.112  0.1790 -0.1675 -0.0058
14459W        W57376   3.522  23.516  20.920  0.0792  0.2745 -0.0646
14460W        W57377   2.705  22.088  21.118 -0.0530  0.3708  0.0304
14461W        W57378   0.353  25.385  23.454  0.3962 -0.3524 -0.0087
14462W        W57379   4.076  24.001  21.603 -0.0256  0.3052 -0.0564
14463W        W57380   1.736  22.421  23.312  0.2794 -0.0294  0.1172
14464W        W57381   1.217  23.265  20.663 -0.1597 -0.1915  0.2294
14465W        W57382   2.427  27.038  20.954 -0.2035 -0.1933 -0.3051
14466W        W57383   0.586  25.789  23.264  0.0605 -0.1153 -0.1078
14467W        W57384   3.941  22.875  23.154 -0.4809 -0.2266 -0.0606
14468W        W57385   3.503  23.483  23.018 -0.1932 -0.1366 -0.1549
14469W        W57386   2.330  22.603  22.552  0.0458  0.2759  0.1253
14470W        W57387   0.563  24.734  20.948 -0.0833  0.1309 -0.2046
14471W        W57388   4.412  21.878  21.385  0.3316  0.1488  0.2240
14472W        W57389  32.165  25.056  20.708  0.0687 -0.2381 -0.0056
14473W        W57390   3.800  20.819  22.179 -0.0261 -0.1517 -0.1423
14474W        W57391   3.618  22.187  22.477 -0.1037 -0.2628  0.1075
14475W        W57392   1.488  23.263  22.809 -0.0850  0.0063 -0.0970
14476W        W57393   4.336  23.468  23.214 -0.1636  0.1672  0.0473
14477W        W57394   2.976  22.901  21.449  0.0033 -0.0894 -0.0122
14478W        W57395   1.973  24.403  22.896 -0.0699 -0.0651  0.2484
14479W        W57396   1.436  24.548  21.350  0.1911  0.0806 -0.1813
14480W        W57397   3.939  22.444  24.705 -0.0848 -0.0455  0.2953
14481W        W57398   1.872  22.104  23.645 -0.1511  0.0488  0.1529
14482W        W57399   0.203  25.884  23.637  0.0541 -0.1420 -0.1310
14483W        W57400   1.215  24.078  26.412  0.2737 -0.0272 -0.0457
14484W        W57401   3.519  24.005  20.891  0.0807 -0.0241  0.0930
14485W        W57402   2.144  21.512  21.461 -0.1201  0.0084  0.0854
14486W        W57403   0.546  21.812  20.395 -0.1614  0.1321  0.0446
14487W        W57404  34.423  24.522  21.834  0.3797  0.4057  0.2205
14488W        W57405   2.616  21.361  20.174 -0.0817  0.0067 -0.1387
14489W        W57406   3.364  21.417  21.597  0.0489  0.1321 -0.0192
14490W        W57407   2.232  24.442  21.928 -0.0828 -0.0702  0.0780
14491W        W57408   2.711  24.041  18.686  0.0159 -0.2517 -0.2822
14492W        W57409   3.524  23.873  24.032  0.3731 -0.2024 -0.2595
14493W        W57410  33.556  25.458  18.806  0.3734  0.2256 -0.0923
14494W        W57411   4.212  20.826  22.454  0.2576  0.0406 -0.0992
14495W        W57412  34.375  24.175  22.256 -0.0482  0.2022 -0.1670
14496W        W57413   3.450  22.952  22.869 -0.1189  0.3297 -0.1105
14497W        W57414   1.591  24.050  21.689 -0.1661  0.1366 -0.0268
14498W        W57415   4.184  22.180  22.752 -0.2602  0.0472 -0.1101
14499W        W57416   5.018  23.709  22.792 -0.0935 -0.0920  0.0443
14500W        W57417   1.751  21.421  21.741 -0.0282 -0.4171  0.0632
14501W        W57418   2.650  20.821  20.077 -0.3203 -0.0730  0.0190
14502W        W57419   1.056  25.625  22.952 -0.1906 -0.0488 -0.1046
14503W        W57420   0.854  24.568  25.711  0.0249 -0.0117  0.1670
14504W        W57421   0.799  22.245  22.242 -0.0042  0.0610  0.0493
14505W        W57422   3.391  24.731  22.449  0.1582 -0.4121  0.2041
14506W        W57423   0.838  23.114  24.781 -0.1450 -0.1906 -0.3046
14507W        W57424   1.896  25.503  21.651  0.3451 -0.2426  0.1447
14508W        W57425   4.190  22.450  23.707  0.1787  0.1828 -0.3147
14509W        W57426   3.215  23.827  21.779 -0.1605  0.0972 -0.0212
14510W        W57427  33.609  25.928  21.763  0.0935  0.1304 -0.0015
14511W        W57428   1.340  25.311  20.950  0.2237  0.1000 -0.0202
14512W        W57429   1.993  22.710  23.696  0.0805  0.1995 -0.0882
14513W        W57430  34.122  26.099  21.828 -0.2225  0.0057  0.0604
14514W        W57431   1.209  22.092  23.878  0.0483 -0.3188  0.2242
14515W        W57432   5.179  23.600  23.596 -0.1046 -0.0801  0.0860
14516W        W57433   0.387  21.970  21.434 -0.0529 -0.1221 -0.1338
14517W        W57434   2.124  22.860  21.031  0.0120  0.0408  0.2426
14518W        W57435   1.287  23.351  21.845 -0.0342  0.2031  0.0361
14519W        W57436   1.930  23.742  21.417  0.2605 -0.3359 -0.1141
14520W        W57437   3.420  24.694  21.979 -0.0438 -0.1637 -0.0861
14521W        W57438   2.560  23.497  23.198 -0.2289  0.4811 -0.1890
14522W        W57439   0.600  20.977  21.752 -0.0789  0.1337  0.2911
14523W        W57440   4.178  26.916  18.858  0.0194  0.1947 -0.2101
14524W        W57441   3.625  23.453  24.371 -0.1330  0.1639  0.2462
14525W        W57442   1.884  23.974  22.092  0.3431  0.0487  0.2841
14526W        W57443   0.583  26.361  23.285  0.0640 -0.3264 -0.2520
14527W        W57444   1.129  25.458  22.443 -0.1452  0.1902  0.0555
14528W        W57445   3.136  21.891  20.969  0.0015 -0.3429  0.0396
14529W        W57446   2.178  23.996  22.599  0.1751  0.0546  0.0389
14530W        W57447   2.169  27.464  22.946 -0.0488  0.0561 -0.0915
14531W        W57448   0.585  25.746  24.301  0.2402  0.0308  0.1431
14532W        W57449   5.636  21.848  22.091  0.0981 -0.0087  0.0850
14533W        W57450   3.273  24.641  19.042 -0.2278 -0.0529  0.0136
14534W        W57451   3.348  21.142  22.218 -0.2754  0.2713  0.0710
14535W        W57452   2.993  20.397  22.590 -0.1517 -0.0552  0.1226
14536W        W57453   4.686  24.306  20.378 -0.1437  0.0237 -0.0057
14537W        W57454   1.355  20.794  22.330  0.1491 -0.0690 -0.0972
14538W        W57455   3.677  23.692  21.796 -0.0153  0.2213 -0.0429
14539W        W57456   1.801  24.627  20.974 -0.0050 -0.1311  0.0122
14540W        W57457  34.340  24.167  21.444 -0.1887 -0.0785 -0.0579
14541W        W57458   5.592  25.552  22.526  0.1016 -0.0708 -0.0525
14542W        W57459   0.389  23.669  22.837 -0.2280 -0.0709 -0.2125
14543W        W57460   4.799  22.157  21.593 -0.1189 -0.1081 -0.2504
14544W        W57461   0.722  21.645  19.235 -0.2077 -0.0552  0.0120
14545W        W57462   1.847  24.419  22.317 -0.3227  0.0660  0.0749
14546W        W57463   3.868  24.432  23.368 -0.0624 -0.1531  0.2227
14547W        W57464  34.539  22.549  21.597  0.0012 -0.0885  0.1026
14548W        W57465   2.615  23.412  22.698  0.1907  0.1512  0.2064
14549W        W57466   2.251  21.647  22.072 -0.0431 -0.0095 -0.0976
14550W        W57467   4.755  25.023  19.188  0.0751 -0.0918 -0.0185
14551W        W57468   0.867  23.333  21.019  0.2182  0.1395  0.1460
14552W        W57469   1.475  25.729  23.236  0.1219  0.1155  0.0329
14553W        W57470   1.488  20.014  24.486  0.1241  0.0075  0.1324
14554W        W57471   4.829  23.695  20.386  0.2245 -0.1142  0.1128
14555W        W57472   3.429  21.980  21.694  0.0890  0.0706  0.1223
14556W        W57473   3.311  23.665  23.495  0.0641  0.0755 -0.3401
14557W        W57474   3.914  22.008  23.844 -0.0087 -0.0147 -0.2056
14558W        W57475   1.999  22.131  24.108 -0.1219  0.0308 -0.1869
14559W        W57476  34.117  21.093  23.896  0.2519 -0.4724 -0.2375
14560W        W57477   3.279  23.992  22.654  0.2091 -0.0254 -0.2541
14561W        W57478   4.282  24.557  18.875  0.2553  0.2641 -0.1033
14562W        W57479   3.060  21.015  21.824  0.2514  0.1810  0.0122
14563W        W57480   4.361  22.778  24.022  0.2072  0.3857 -0.0558
14564W        W57481   3.489  23.586  19.923  0.2636  0.2234 -0.1606
14565W        W57482   1.156  22.465  22.464 -0.0189 -0.0646 -0.2278
14566W        W57483   2.802  22.322  23.372  0.0794 -0.1337 -0.0709
14567W        W57484   0.156  22.824  21.274 -0.1185  0.0431  0.1735
14568W        W57485   4.249  23.065  23.644 -0.0735 -0.0052 -0.1427
14569W        W57486   3.548  24.004  21.388 -0.0846 -0.1137  0.4746
14570W        W57487   3.499  24.071  23.080  0.1219  0.0874  0.0385
14571W        W57488   3.384  22.936  19.224 -0.0594 -0.0975 -0.0700
14572W        W57489  34.573  22.580  22.296 -0.0958  0.1807 -0.1983
14573W        W57490   0.060  24.407  24.092  0.2449  0.1919 -0.3283
14574W        W57491   0.387  21.878  20.893  0.0318  0.0153 -0.0216
14575W        W57492   1.632  24.086  21.150 -0.2335  0.0736 -0.0308
14576W        W57493   4.332  24.419  21.450 -0.2120 -0.0783  0.2711
14577W        W57494   3.581  23.890  24.603 -0.1446  0.0444 -0.0587
14578W        W57495   3.806  22.730  20.832  0.0982 -0.1304  0.1177
14579W        W57496   4.535  21.134  23.620 -0.4151 -0.1797 -0.1157
14580W        W57497   0.828  24.561  21.431 -0.1442 -0.0748  0.0141
14581W        W57498   2.421  22.168  22.201  0.2566 -0.2263 -0.0200
14582W        W57499   0.793  25.949  23.667  0.0323  0.0355  0.1977
14583W        W57500  33.781  23.337  22.644  0.2925  0.1001 -0.4076
14584W        W57501   0.863  23.803  21.260  0.1229  0.1153  0.3095
14585W        W57502   0.607  23.441  23.875  0.0583 -0.0737 -0.1354
14586W        W57503   3.291  22.080  23.162  0.0210 -0.0300 -0.2015
14587W        W57504   2.147  24.898  22.462 -0.2036  0.1163 -0.1808
14588W        W57505   3.442  23.135  23.348  0.1006 -0.0090 -0.1120
14589W        W57506   1.508  24.186  23.852  0.0228  0.0539  0.0258
14590W        W57507   1.086  24.964  21.613 -0.0692 -0.0678 -0.2522
14591W        W57508   2.113  22.530  23.034 -0.0396  0.0729  0.0705
14592W        W57509   4.836  24.335  21.288  0.1136  0.0620 -0.0975
14593W        W57510   3.149  23.218  22.464 -0.2247  0.2016 -0.3519
14594W        W57511   0.550  24.272  23.883  0.3845  0.0860 -0.1693
14595W        W57512   3.797  21.927  22.958  0.2168 -0.0380 -0.0504
14596W        W57513   2.339  24.969  20.384  0.0249  0.0299  0.2492
14597W        W57514   1.390  22.042  22.518  0.1365 -0.0562  0.0545
14598W        W57515  34.603  25.084  20.358  0.1233  0.1912  0.1555
14599W        W57516   0.641  27.127  22.196  0.0483 -0.1431 -0.0119
14600W        W57517   2.340  22.332  23.723  0.0069  0.0645  0.1615
14601W        W57518   1.927  25.271  19.570  0.0641 -0.2482  0.0243
14602W        W57519   1.396  24.845  20.791  0.0623 -0.0438 -0.0651
14603W        W57520   5.996  22.690  19.237 -0.1541 -0.1971  0.1522
14604W        W57521   2.056  26.255  24.296 -0.3749  0.0235  0.0341
14605W        W57522   1.201  24.132  21.363  0.0355 -0.1755 -0.1044
14606W        W57523  34.588  24.598  22.629 -0.0703  0.1509  0.0538
14607W        W57524  33.193  23.194  21.492  0.0780  0.2296 -0.0762
14608W        W57525   2.364  25.849  20.660 -0.0149  0.2567 -0.2870
14609W        W57526   1.412  27.792  21.102  0.0435 -0.0742 -0.0378
14610W        W57527   2.963  24.624  24.184 -0.2564  0.0443 -0.0447
14611W        W57528   5.569  22.202  19.326  0.0968 -0.1677 -0.1587
14612W        W57529   4.230  22.679  22.705 -0.3523 -0.0034  0.1298
14613W        W57530   4.557  26.296  21.198  0.3600  0.0760  0.0317
14614W        W57531   3.776  23.870  22.686  0.0686  0.1783 -0.1774
14615W        W57532   1.856  23.246  23.806 -0.0627 -0.2031  0.0544
14616W        W57533   2.485  23.188  21.368 -0.0766  0.0157  0.0439
14617W        W57534   1.924  20.504  24.919  0.1213 -0.2749 -0.2407
14618W        W57535   2.255  20.655  25.371 -0.1241  0.0066  0.3739
14619W        W57536   1.781  24.493  25.940  0.0605  0.1993 -0.5407
14620W        W57537   2.849  24.067  22.333 -0.0255 -0.2620 -0.1438
14621W        W57538   1.130  23.090  22.538 -0.3771 -0.1851 -0.1416
14622W        W57539   1.047  24.410  22.957  0.1214  0.4248  0.0151
14623W        W57540   3.764  20.334  22.334 -0.1746 -0.0983  0.0912
14624W        W57541   2.818  25.011  20.651 -0.0006 -0.0673 -0.3122
14625W        W57542   2.660  25.028  21.202  0.0611 -0.1401 -0.0365
14626W        W57543   1.082  27.417  20.869 -0.2069  0.2967 -0.2108
14627W        W57544   1.027  26.491  23.593  0.1198 -0.0542 -0.0720
14628W        W57545   1.903  26.287  23.825 -0.0797 -0.2228  0.0924
14629W        W57546   1.717  22.373  20.361  0.1128 -0.1529  0.1326
14630W        W57547   4.225  22.866  22.042  0.3384 -0.0563 -0.0404
14631W        W57548   0.288  24.412  22.937  0.4010  0.4387  0.1803
14632W        W57549   4.636  20.587  22.458  0.0543 -0.2957  0.0234
14633W        W57550   0.757  22.553  22.840 -0.2088 -0.2225  0.1145
14634W        W57551   3.946  23.352  22.837  0.2209  0.2186  0.0128
14635W        W57552   2.391  23.513  22.248 -0.0544 -0.0130 -0.1608
14636W        W57553   1.739  23.344  22.365 -0.0983  0.1886  0.0906
14637W        W57554   1.811  21.923  21.397  0.2165  0.3065  0.3228
14638W        W57555   1.382  24.557  24.103 -0.0976  0.0041  0.4188
14639W        W57556   2.246  22.474  19.380 -0.1270  0.1390  0.2929
14640W        W57557   2.429  23.993  23.182 -0.3026  0.1623  0.0931
14641W        W57558   1.426  21.393  21.359  0.1540  0.2121 -0.0403
14642W        W57559   3.505  22.398  21.953  0.0938 -0.0742  0.0904
14643W        W57560   0.793  24.447  22.502  0.1034  0.1446 -0.2594
14644W        W57561  34.650  24.418  23.433  0.1398 -0.0214 -0.0028
14645W        W57562   2.281  25.078  25.176  0.1299 -0.1052 -0.1777
14646W        W57563  33.391  22.005  22.096  0.0553 -0.0471 -0.2286
14647W        W57564   2.719  23.521  20.437 -0.1204 -0.1454 -0.1846
14648W        W57565   2.978  21.753  21.400 -0.1992 -0.1604  0.1695
14649W        W57566   1.412  26.535  20.443 -0.1394 -0.1054  0.0692
14650W        W57567   4.799  25.581  21.736 -0.1091 -0.0896 -0.1754
14651W        W57568   1.566  24.636  21.876 -0.1684 -0.0909  0.1136
14652W        W57569  33.580  23.436  21.741  0.2103  0.1168 -0.2405
14653W        W57570   1.428  24.418  23.338 -0.4460  0.0090  0.0184
14654W        W57571   4.512  24.009  22.220  0.1446 -0.1110  0.1231
14655W        W57572   4.198  22.037  20.368  0.1475  0.1421  0.1374
14656W        W57573  34.367  21.835  20.976 -0.0574  0.0221 -0.2393
14657W        W57574  32.925  24.350  20.948 -0.0712 -0.0900  0.3018
14658W        W57575   5.570  24.200  20.633 -0.0229  0.1481 -0.3939
14659W        W57576   4.756  21.158  23.171  0.0096  0.0929  0.1372
14660W        W57577   3.472  24.163  19.913 -0.1282  0.1050 -0.1926
14661W        W57578   5.490  21.470  23.907 -0.4066  0.3384  0.1786
14662W        W57579   1.635  26.238  21.375 -0.0918 -0.2822  0.3345
14663W        W57580   1.838  21.981  22.979  0.4788 -0.0218 -0.0258
14664W        W57581   2.311  24.799  19.873  0.0133  0.1585 -0.2962
14665W        W57582  34.560  21.923  22.350  0.1842  0.0929  0.0138
14666W        W57583   1.891  25.295  22.206  0.2149 -0.0161  0.1159
14667W        W57584  34.341  27.236  21.984  0.3470 -0.2983  0.1117
14668W        W57585   3.702  25.177  22.213  0.3764 -0.1586  0.0924
14669W        W57586   2.603  23.044  22.350 -0.1124  0.4225 -0.1221
14670W        W57587   1.104  24.950  22.598 -0.0525 -0.0644  0.1907
14671W        W57588   3.601  24.319  22.363 -0.2935 -0.1068  0.1500
14672W        W57589   4.354  20.086  20.291 -0.0026 -0.1874 -0.2140
14673W        W57590   4.385  21.154  21.977  0.5264  0.0634  0.1505
14674W        W57591   1.579  22.494  22.265  0.1631  0.2092 -0.0002
14675W        W57592   1.419  24.176  20.715  0.0449  0.0383 -0.1315
14676W        W57593   0.501  24.218  21.296  0.0070 -0.0706 -0.1167
14677W        W57594   2.873  23.616  22.242  0.0409  0.2149 -0.1338
14678W        W57595   0.768  22.346  23.621  0.3903  0.0292  0.2134
14679W        W57596   1.643  24.405  24.958 -0.1254  0.0909 -0.4112
14680W        W57597   0.241  24.503  22.275 -0.0150 -0.1553 -0.0439
14681W        W57598  34.672  22.237  21.201 -0.1670  0.0186 -0.0173
14682W        W57599   5.298  23.730  20.821 -0.0405  0.0274  0.3459
14683W        W57600   2.405  23.098  23.699 -0.3578  0.1454  0.1750
14684W        W57601  34.118  21.226  22.569 -0.2089  0.3258 -0.1281
14685W        W57602   4.495  25.050  20.810  0.0847 -0.5109  0.1769
14686W        W57603   3.452  23.824  22.235  0.0108 -0.0643  0.2104
14687W        W57604   1.210  20.407  20.188 -0.4454  0.0234 -0.0369
14688W        W57605   3.768  24.428  22.881  0.0827  0.1702  0.0075
14689W        W57606   0.707  25.288  20.899 -0.0296 -0.0364 -0.1305
14690W        W57607   2.656  23.905  22.702  0.1390  0.2159  0.1359
14691W        W57608   2.313  21.194  21.871  0.1941 -0.0312 -0.1761
14692W        W57609   1.281  21.861  21.122  0.1390 -0.2058 -0.1821
14693W        W57610   1.834  23.256  21.347  0.1629 -0.1761  0.0732
14694W        W57611   2.407  23.672  21.242 -0.1050  0.0900  0.1734
14695W        W57612   3.883  25.089  20.783  0.1135 -0.1077  0.1646
14696W        W57613   2.487  21.589  23.284 -0.1347 -0.1780  0.2077
14697W        W57614   2.653  24.166  21.193 -0.0702 -0.0523  0.0582
14698W        W57615   2.347  23.537  21.768  0.4006  0.0343  0.2489
14699W        W57616   3.292  25.092  20.224 -0.0670  0.1981 -0.1798
14700W        W57617   2.458  25.518  23.899  0.0834  0.4317 -0.0923
14701W        W57618   5.718  26.459  19.907  0.0694  0.0060  0.2161
14702W        W57619   5.250  21.363  22.617  0.0974  0.2032  0.0291
14703W        W57620   2.360  24.054  20.153  0.2254 -0.3492 -0.2081
14704W        W57621   1.033  21.664  22.498  0.1523  0.0359  0.0277
14705W        W57622   1.112  24.798  23.466 -0.0737 -0.4655  0.1462
14706W        W57623   3.647  23.406  22.456  0.0680  0.1649 -0.0112
14707W        W57624   1.733  22.462  21.794  0.3286 -0.2458 -0.3592
14708W        W57625   4.560  24.011  21.613  0.1698 -0.1475  0.4621
14709W        W57626   2.104  24.872  22.986  0.2013  0.0903 -0.1105
14710W        W57627   1.694  22.747  21.378 -0.3640  0.0340  0.1620
14711W        W57628   1.320  22.699  20.968 -0.0436 -0.1665 -0.3565
14712W        W57629   2.644  22.900  21.838  0.0500 -0.0648  0.3288
14713W        W57630   1.633  24.870  22.412 -0.3381 -0.0784  0.1543
14714W        W57631   3.815  23.364  25.840  0.1888 -0.1073  0.1189
14715W        W57632   2.402  24.000  22.134  0.1820  0.0804 -0.1593
14716W        W57633   3.835  24.463  21.536 -0.2680  0.3466  0.0008
14717W        W57634   3.356  24.248  23.510 -0.3115  0.0240  0.2630
14718W        W57635   3.819  26.120  26.611  0.0709  0.1491  0.1012
14719W        W57636   0.720  25.283  23.136 -0.3492 -0.3371  0.0028
14720W        W57637   2.835  22.812  22.724 -0.0901  0.0138 -0.0112
14721W        W57638  33.187  20.807  21.316  0.0570  0.0256  0.1160
14722W        W57639   3.088  23.834  21.147  0.3602 -0.1459  0.0951
14723W        W57640   3.416  23.301  21.938  0.1750 -0.0396 -0.1416
14724W        W57641   4.259  21.134  23.036 -0.0225 -0.0009  0.2436
14725W        W57642   2.149  23.038  20.128 -0.1003  0.0880 -0.2053
14726W        W57643   3.233  21.407  19.656 -0.0011 -0.2727  0.4185
14727W        W57644   2.953  24.646  21.180  0.0862  0.1177 -0.0043
14728W        W57645   2.983  22.073  21.856 -0.1446  0.0702  0.1348
14729W        W57646   1.261  24.718  27.071 -0.0419 -0.1921 -0.7553
14730W        W57647   1.700  23.521  24.688 -0.0302 -0.0608  0.0744
14731W        W57648   3.568  21.674  22.538 -0.0443  0.0987 -0.3019
14732W        W57649   4.697  23.709  23.790  0.3036  0.2380 -0.1050
14733W        W57650   1.899  22.259  26.370 -0.0924  0.0719 -0.0593
14734W        W57651   4.268  24.611  23.104  0.1443  0.4501 -0.1159
14735W        W57652   1.045  22.059  27.815  0.1007 -0.2057  0.0274
14736W        W57653   1.609  24.900  26.211 -0.0072  0.0807  0.4193
14737W        W57654   3.411  23.256  25.545  0.2807 -0.2187  0.1239
14738W        W57655   4.228  21.774  22.286 -0.3638 -0.1294  0.2603
14739W        W57656   0.144  23.361  27.034 -0.2733  0.1595  0.0751
14740W        W57657   1.179  24.548  26.088  0.2889 -0.0910 -0.0658
14741W        W57658   1.929  18.163  25.981  0.4373 -0.2133 -0.0138
14742W        W57659  34.379  23.628  28.208 -0.1799 -0.0002 -0.1447
14743W        W57660   1.258  23.787  28.134 -0.2797  0.0998 -0.0432
14744W        W57661  32.587  24.339  25.085 -0.0925 -0.1119  0.4229
14745W        W57662  34.212  23.137  27.369 -0.1857 -0.1249  0.1668
14746W        W57663   3.328  22.623  24.895  0.0737 -0.1141  0.0871
14747W        W57664   5.545  24.624  25.514 -0.0861  0.2735  0.1879
14748W        W57665   0.343  22.362  29.424  0.4938  0.2210  0.2528
14749W        W57666   3.029  24.053  29.996 -0.0498 -0.1193  0.0872
14750W        W57667   0.717  25.050  24.871  0.0969  0.0480 -0.0853
14751W        W57668   3.182  25.152  21.351 -0.0070  0.2370  0.0455
14752W        W57669  32.855  22.220  24.650  0.1723 -0.2774  0.0635
14753W        W57670   1.233  23.529  26.576  0.3138  0.0793 -0.1774
14754W        W57671   4.689  22.465  26.808 -0.0374 -0.0299  0.2124
14755W        W57672   3.014  21.916  24.326  0.1607 -0.2158 -0.4497
14756W        W57673   0.578  25.070  25.793  0.1753 -0.2245 -0.0786
14757W        W57674   2.960  24.032  25.367  0.0615  0.1017 -0.2408
14758W        W57675   2.853  22.743  27.647 -0.2705 -0.0511  0.1408
14759W        W57676   1.842  24.092  25.375  0.3311  0.1760 -0.2662
14760W        W57677  34.637  24.511  25.347  0.1146  0.2912  0.0603
14761W        W57678   2.227  25.887  24.019  0.0918  0.3319 -0.0531
14762W        W57679   3.601  21.390  26.419 -0.0320 -0.2376  0.1818
14763W        W57680   3.495  24.727  26.868 -0.0034  0.1057  0.2320
14764W        W57681  34.562  25.060  26.893 -0.2330 -0.1614 -0.3041
14765W        W57682  34.288  23.938  24.853  0.1349  0.0128 -0.0389
14766W        W57683   3.573  24.799  28.299 -0.2058  0.1703  0.0842
14767W        W57684   2.418  24.492  26.114 -0.0532 -0.1842 -0.0715
14768W        W57685   1.719  21.857  26.110  0.2456  0.1367  0.1149
14769W        W57686   2.832  24.446  24.617  0.2327  0.1444 -0.3432
14770W        W57687   1.748  23.587  26.244  0.0481  0.2414  0.0415
14771W        W57688   2.039  22.758  25.522 -0.1419 -0.1219 -0.1452
14772W        W57689  33.910  24.702  28.208  0.0131 -0.2269 -0.2038
14773W        W57690   0.996  23.940  25.745  0.1616  0.4356  0.0008
14774W        W57691   3.222  25.260  27.319  0.0365 -0.0990  0.1079
14775W        W57692   1.075  24.224  23.642  0.2309  0.1040  0.0083
14776W        W57693   1.722  22.937  23.064 -0.1793  0.0887 -0.4710
14777W        W57694   2.902  23.001  24.108 -0.2142  0.4200  0.1732
14778W        W57695   5.090  21.707  25.038 -0.1276  0.1130  0.1174
14779W        W57696   2.617  22.601  25.003  0.0438 -0.1612  0.3527
14780W        W57697   2.737  26.421  25.349  0.1662 -0.1074 -0.2624
14781W        W57698   1.221  23.581  26.100 -0.0918 -0.1792  0.1995
14782W        W57699   2.222  24.728  25.558 -0.0055 -0.2447  0.1293
14783W        W57700   3.019  23.347  24.448 -0.1482 -0.3493 -0.2391
14784W        W57701   1.355  22.271  26.233  0.0405 -0.0815 -0.2259
14785W        W57702   1.753  25.938  25.195  0.0311  0.0872 -0.0232
14786W        W57703  34.263  22.631  25.013 -0.0682  0.1443  0.0429
14787W        W57704   3.514  23.071  24.635 -0.2537  0.3190  0.1044
14788W        W57705   4.450  25.080  21.729  0.3848 -0.0252 -0.1278
14789W        W57706   2.383  22.849  24.130  0.2171 -0.0818 -0.1608
14790W        W57707   0.040  23.992  23.816 -0.1717  0.0258 -0.1054
14791W        W57708   0.063  23.957  28.179 -0.1624  0.0316  0.2018
14792W        W57709  33.807  24.493  27.204 -0.2465 -0.0799  0.0277
14793W        W57710   1.518  20.454  25.216  0.5536  0.1470  0.3567
14794W        W57711   2.820  24.228  26.783  0.0956 -0.1971 -0.2171
14795W        W57712  33.663  23.172  27.588  0.0650 -0.1527  0.0478
14796W        W57713   2.889  19.935  22.935 -0.0055  0.0872 -0.0369
14797W        W57714   1.100  23.502  25.046  0.0495 -0.1715  0.2094
14798W        W57715   1.828  24.247  27.776  0.0561 -0.1277  0.0884
14799W        W57716   2.479  24.451  23.350 -0.2681 -0.1704  0.1133
14800W        W57717   1.739  22.372  25.423  0.0813 -0.2082  0.0513
14801W        W57718   1.778  22.679  24.687 -0.1653 -0.0300  0.1232
14802W        W57719   2.183  24.813  23.493  0.3312 -0.1517 -0.2404
14803W        W57720   3.621  23.039  25.144 -0.1804  0.0424 -0.2529
14804W        W57721   3.423  24.546  26.064 -0.0544 -0.0811 -0.2107
14805W        W57722   2.208  24.113  23.724  0.0677  0.1842 -0.3781
14806W        W57723   1.161  24.666  24.969  0.0038  0.0333 -0.1226
14807W        W57724   1.698  19.984  27.738  0.0772 -0.2576  0.0100
14808W        W57725  34.480  25.884  27.314  0.0739 -0.1849 -0.1434
14809W        W57726   0.692  24.426  23.419 -0.0731  0.1321  0.0367
14810W        W57727  33.434  23.378  25.096  0.2195 -0.0119 -0.2236
14811W        W57728   1.148  23.456  23.957 -0.1769 -0.2463 -0.2064
14812W        W57729  34.602  23.897  26.190 -0.0686  0.1297  0.0945
14813W        W57730   2.048  23.486  28.227 -0.1102 -0.0984 -0.0265
14814W        W57731   2.404  20.712  24.871 -0.0258 -0.2095  0.3813
14815W        W57732   1.677  23.464  26.857 -0.3222  0.1590  0.1468
14816W        W57733   3.203  22.645  24.363 -0.0312 -0.1299  0.0094
14817W        W57734   0.772  23.211  25.305  0.1459  0.1098 -0.1461
14818W        W57735   3.452  25.964  26.908  0.0755 -0.0491  0.1756
14819W        W57736   5.223  21.882  24.555 -0.0179 -0.0122  0.3774
14820W        W57737   3.942  25.594  23.909 -0.1686 -0.0369  0.2606
14821W        W57738   0.610  23.661  26.877  0.2423  0.0688 -0.1896
14822W        W57739   0.721  23.310  26.182 -0.2131  0.2375 -0.0046
14823W        W57740   1.203  22.807  27.341 -0.0069  0.2074 -0.0719
14824W        W57741   1.532  23.075  27.587 -0.3676 -0.1655 -0.2176
14825W        W57742   2.810  20.669  25.173  0.1167  0.1975 -0.0123
14826W        W57743   2.528  23.273  24.391 -0.2639  0.1580 -0.2519
14827W        W57744   2.211  22.235  25.490  0.2339  0.2400  0.2950
14828W        W57745   1.187  22.931  25.396 -0.0534  0.0277 -0.1084
14829W        W57746   1.480  22.991  24.095 -0.0645  0.3449  0.1642
14830W        W57747   0.395  22.445  25.581 -0.3043  0.0230  0.0857
14831W        W57748   3.459  25.156  23.677 -0.0729 -0.1093 -0.1629
14832W        W57749   2.126  24.902  27.993 -0.2414 -0.1044  0.1345
14833W        W57750   3.530  26.969  25.439  0.0514  0.0306  0.3517
14834W        W57751   0.448  24.142  27.433  0.1109 -0.0092 -0.0447
14835W        W57752   1.311  21.137  25.248  0.2104 -0.2824  0.1267
14836W        W57753   0.424  23.812  26.045 -0.1625 -0.1884  0.0406
14837W        W57754   0.305  22.912  26.081 -0.1601  0.0820  0.0619
14838W        W57755   1.917  22.004  25.167  0.3846 -0.0477 -0.1192
14839W        W57756   5.106  26.008  26.731  0.2358 -0.1845 -0.2386
14840W        W57757   1.236  24.347  24.587  0.3798 -0.0807 -0.2705
14841W        W57758  34.062  24.521  27.644 -0.0579 -0.0646 -0.0054
14842W        W57759   2.879  22.040  26.374  0.0535  0.0787 -0.0728
14843W        W57760   3.423  23.020  26.650 -0.0114 -0.0076  0.2462
14844W        W57761   3.180  22.196  25.094 -0.1580  0.3069  0.4067
14845W        W57762   1.674  21.869  25.606  0.3302 -0.0001 -0.2275
14846W        W57763   2.422  25.525  26.435  0.3572 -0.0913 -0.1078
14847W        W57764   1.895  25.353  25.033 -0.3350 -0.0007  0.0384
14848W        W57765  33.946  25.101  25.069  0.2408  0.1005  0.0838
14849W        W57766   1.465  25.306  25.252 -0.1260  0.3108 -0.0608
14850W        W57767   3.152  22.422  22.855 -0.1679 -0.1329  0.1532
14851W        W57768   1.753  23.971  28.185  0.1081 -0.1001 -0.1754
14852W        W57769   4.210  23.739  26.256 -0.0193 -0.2685 -0.0721
14853W        W57770   1.204  22.545  23.421 -0.0319 -0.1134 -0.1067
14854W        W57771   1.267  25.089  27.459  0.1163  0.2568  0.4106
14855W        W57772   1.740  19.999  25.808  0.0386 -0.2176  0.0027
14856W        W57773   2.847  22.906  23.284  0.0961  0.1963  0.4786
14857W        W57774   1.267  24.534  28.436 -0.3068 -0.1296 -0.0676
14858W        W57775   2.970  24.153  23.838  0.5617 -0.1002  0.0788
14859W        W57776   3.753  22.395  23.464 -0.2389  0.1811 -0.0215
14860W        W57777   2.554  20.329  22.963 -0.4475 -0.0250  0.0930
14861W        W57778  34.472  24.090  27.306 -0.1112 -0.0562 -0.2079
14862W        W57779   2.396  23.012  25.785 -0.2120 -0.1564  0.0061
14863W        W57780   1.760  24.885  25.056  0.1284 -0.1622 -0.0070
14864W        W57781   1.324  24.359  25.580 -0.0921 -0.0037  0.5063
14865W        W57782   4.516  25.410  23.502  0.0049 -0.0529 -0.1291
14866W        W57783   1.554  24.430  26.423 -0.2286  0.1527  0.1090
14867W        W57784   1.660  24.787  27.865  0.1005  0.0165 -0.0545
14868W        W57785   3.055  25.145  23.320  0.2582  0.1203 -0.2362
14869W        W57786   1.348  19.695  26.617  0.1548 -0.2133  0.1672
14870W        W57787   1.919  20.853  24.487 -0.0562 -0.1633 -0.0017
14871W        W57788   2.245  23.556  24.715  0.0128 -0.2497  0.0066
14872W        W57789   2.090  26.113  22.666 -0.0590  0.2696 -0.1022
14873W        W57790   2.514  21.598  24.735 -0.0717 -0.0553  0.4392
14874W        W57791   2.891  21.991  27.423 -0.2767 -0.0828 -0.0276
14875W        W57792   2.175  21.089  28.159  0.1666 -0.1553 -0.0523
14876W        W57793   3.197  22.904  28.663  0.0198  0.0480  0.0880
14877W        W57794   5.341  21.277  24.988  0.0948  0.1221 -0.1725
14878W        W57795   2.089  23.860  27.828  0.2283  0.0485  0.0125
14879W        W57796   0.797  24.288  24.311  0.2944  0.3269  0.3256
14880W        W57797   1.154  23.354  29.024  0.1960  0.0200  0.0048
14881W        W57798   2.163  23.240  28.625 -0.1660  0.0385  0.0363
14882W        W57799   0.380  25.316  25.180  0.1691 -0.1614 -0.3356
14883W        W57800   3.507  23.885  26.571  0.0362  0.1210 -0.2113
14884W        W57801   1.937  23.879  25.855  0.0603  0.2622 -0.0770
14885W        W57802   1.822  24.094  29.009 -0.1109 -0.0409 -0.1990
14886W        W57803   0.731  22.558  26.082  0.0289  0.1186  0.0538
14887W        W57804   0.144  26.025  25.714  0.3616 -0.0017  0.0241
14888W        W57805   1.873  24.849  24.251 -0.0750 -0.1320  0.1453
14889W        W57806   2.963  22.745  25.873 -0.1117  0.0142  0.1051
14890W        W57807   0.446  23.747  28.410 -0.1279 -0.1298 -0.1867
14891W        W57808   3.194  24.256  22.026 -0.3083 -0.1220 -0.0324
14892W        W57809   2.472  23.926  28.180  0.1454 -0.0481 -0.0753
14893W        W57810  34.365  26.551  25.196 -0.0359 -0.0972  0.0801
14894W        W57811   2.363  21.276  26.141  0.1808  0.2535  0.0722
14895W        W57812   0.491  24.781  25.356 -0.0575 -0.2289  0.0791
14896W        W57813   2.439  22.961  22.970  0.0414 -0.2871  0.0189
14897W        W57814   2.147  23.078  22.512  0.0190  0.4492  0.0526
14898W        W57815   2.927  22.295  24.677 -0.0625 -0.0417 -0.0657
14899W        W57816   2.253  23.508  25.924 -0.1168 -0.2165  0.1295
14900W        W57817   1.335  21.293  26.203  0.2020 -0.0720 -0.0486
14901W        W57818   0.750  22.107  25.897  0.1654  0.1602  0.0816
14902W        W57819   1.462  22.697  28.247  0.0763  0.0584  0.1469
14903W        W57820   2.626  22.671  26.353  0.0793  0.2595 -0.1350
14904W        W57821   2.811  19.735  25.374  0.1489  0.3305  0.3589
14905W        W57822   0.780  23.948  24.634  0.1197  0.0282 -0.3830
14906W        W57823   2.746  24.773  28.184  0.1282  0.0359  0.2334
14907W        W57824   1.112  22.192  22.975  0.1901 -0.2266  0.1869
14908W        W57825   2.208  20.228  26.457  0.1260  0.0090  0.3974
14909W        W57826   1.243  23.423  24.516 -0.3843  0.0197 -0.0704
14910W        W57827   0.365  24.233  24.611  0.1050  0.1777  0.0072
14911W        W57828   1.277  23.759  27.066  0.0609 -0.1722 -0.2389
14912W        W57829   2.975  24.543  23.127  0.1187  0.0178  0.0842
14913W        W57830   0.793  22.671  25.472 -0.1534 -0.0394 -0.0741
14914W        W57831   1.793  23.694  28.613  0.0632  0.0100 -0.0935
14915W        W57832   2.156  21.334  27.151  0.0942 -0.3083  0.1416
14916W        W57833  33.957  22.734  27.540 -0.1493  0.0630 -0.1608
14917W        W57834   2.347  21.943  22.798 -0.0515 -0.1175  0.0766
14918W        W57835   1.975  24.370  24.081 -0.0971  0.1155  0.2141
14919W        W57836   1.240  22.668  25.882 -0.1503  0.0418  0.0839
14920W        W57837   2.044  23.009  27.392  0.0555  0.0473  0.0694
14921W        W57838   3.239  24.540  27.841  0.0965  0.1578 -0.3103
14922W        W57839   1.682  22.682  26.392 -0.2577  0.0695  0.0505
14923W        W57840   3.491  26.827  23.317  0.2720 -0.0120 -0.3497
14924W        W57841   1.007  24.291  27.393 -0.2111 -0.0352 -0.2243
14925W        W57842   1.913  24.431  27.081  0.1395  0.0301  0.2487
14926W        W57843  34.463  21.661  27.199 -0.1343  0.1594 -0.0225
14927W        W57844  34.010  23.372  25.649 -0.2569  0.2546 -0.0386
14928W        W57845   3.154  23.855  27.041 -0.0813  0.1085  0.1178
14929W        W57846   0.693  24.508  24.887 -0.2782 -0.1550 -0.2607
14930W        W57847   0.046  25.502  24.299  0.0081 -0.2388 -0.0823
14931W        W57848   1.002  24.581  28.892  0.1429 -0.1097 -0.2941
14932W        W57849   2.006  21.638  22.508  0.1003 -0.0600 -0.0681
14933W        W57850   1.819  24.507  23.649 -0.0329 -0.1348 -0.3285
14934W        W57851   1.776  22.391  26.797 -0.4151 -0.0552  0.0802
14935W        W57852   2.472  21.842  25.674  0.2140  0.0224  0.0026
14936W        W57853   3.719  22.717  24.365  0.0501 -0.2773 -0.0990
14937W        W57854   2.922  21.302  26.849  0.2370  0.2975 -0.0502
14938W        W57855   1.651  23.491  27.334 -0.0819 -0.0585 -0.0780
14939W        W57856   3.920  25.279  24.681  0.1034 -0.0879  0.2827
14940W        W57857   0.936  24.035  28.444  0.0571 -0.0700  0.1709
14941W        W57858   3.661  25.746  28.494  0.1186 -0.0115 -0.0413
14942W        W57859   0.196  23.741  27.280 -0.0855 -0.2512 -0.1614
14943W        W57860   2.539  23.789  27.585 -0.0290  0.1981  0.0674
14944W        W57861   0.437  22.250  24.650  0.1553  0.0049  0.1154
14945W        W57862   2.265  23.260  26.958 -0.0982 -0.0773  0.2524
14946W        W57863   1.480  24.091  25.962 -0.2643  0.0645 -0.0017
14947W        W57864   2.143  24.420  25.136  0.3482 -0.1219 -0.2032
14948W        W57865   3.364  21.271  23.396  0.2151  0.1884  0.1078
14949W        W57866  33.549  22.807  25.437  0.2882 -0.1294  0.1447
14950W        W57867   3.533  22.311  24.043  0.0677  0.3226 -0.2631
14951W        W57868   1.628  23.445  24.202  0.3530  0.4454 -0.2903
14952W        W57869   2.265  25.182  24.271 -0.2514 -0.0088  0.0968
14953W        W57870  34.073  21.594  28.108  0.0311 -0.0922 -0.2030
14954W        W57871   3.593  24.772  24.244 -0.1310 -0.1130 -0.0102
14955W        W57872   0.173  20.399  25.029  0.1741  0.0258 -0.0677
14956W        W57873   3.723  22.874  28.766  0.2430 -0.2911 -0.2244
14957W        W57874   3.328  21.504  27.414  0.1436  0.0757 -0.1816
14958W        W57875   2.985  23.307  27.767  0.2711  0.0824 -0.1952
14959W        W57876   0.936  24.045  26.880  0.0913  0.1479 -0.0090
14960W        W57877   3.311  23.563  26.167  0.2643 -0.4011  0.0120
14961W        W57878   3.048  23.860  23.099  0.1132 -0.0181  0.0174
14962W        W57879   2.574  22.995  27.261 -0.0003  0.3093 -0.0535
14963W        W57880   3.473  23.036  24.048 -0.3535  0.1359 -0.0308
14964W        W57881   2.687  22.352  24.261 -0.0234 -0.0681  0.1446
14965W        W57882  34.468  23.501  24.933 -0.3138  0.0326  0.1803
14966W        W57883   2.469  23.909  27.086 -0.1274  0.0517 -0.2342
14967W        W57884   2.177  23.617  23.544 -0.0015 -0.1683  0.2828
14968W        W57885   5.540  21.168  26.846  0.0327  0.3136 -0.2434
14969W        W57886   1.012  23.468  23.461  0.1351  0.2975  0.2612
14970W        W57887   3.056  22.651  26.611 -0.0629  0.0681 -0.1099
14971W        W57888   3.022  23.276  23.593 -0.0165 -0.0684  0.0803
14972W        W57889  34.166  22.656  25.982  0.0009  0.1609 -0.2902
14973W        W57890   0.567  26.202  26.510 -0.0682  0.1242 -0.0308
14974W        W57891   1.146  23.947  24.143 -0.0939  0.1379 -0.3195
14975W        W57892   2.980  24.512  22.647  0.1562 -0.2029 -0.0509
14976W        W57893   1.490  25.694  27.392  0.2599  0.2308 -0.1715
14977W        W57894   2.803  23.117  26.774  0.1431  0.3167  0.3696
14978W        W57895   3.528  21.783  24.390  0.0749 -0.1074 -0.0712
14979W        W57896   3.665  23.456  26.866 -0.0664 -0.3190 -0.0817
14980W        W57897   0.237  23.958  23.332  0.4707 -0.5553  0.3182
14981W        W57898   0.276  21.650  24.115  0.0213 -0.0111 -0.0765
14982W        W57899  33.891  25.982  27.252 -0.0733  0.0142  0.1755
14983W        W57900  32.779  23.448  25.707  0.1826 -0.0335  0.2064
14984W        W57901   1.736  25.368  24.094 -0.4882 -0.0303  0.1281
14985W        W57902   1.860  23.016  27.996 -0.2462 -0.1691  0.0240
14986W        W57903   3.578  22.545  25.315 -0.0061 -0.0766  0.0375
14987W        W57904   2.903  23.184  25.762  0.0612  0.1665  0.5285
14988W        W57905   4.709  22.506  28.878  0.1822  0.4437  0.1630
14989W        W57906   1.659  23.503  25.741  0.1433 -0.1371 -0.0928
14990W        W57907   0.670  23.481  25.730  0.0321  0.0826  0.1321
14991W        W57908   1.486  24.847  29.172 -0.0439 -0.2564  0.0314
14992W        W57909   3.182  24.301  25.011  0.1849  0.0774  0.0989
14993W        W57910   1.936  24.022  24.840 -0.1314  0.0042 -0.0400
14994W        W57911   1.573  21.872  28.772  0.1495  0.2168 -0.1613
14995W        W57912   2.452  24.120  28.900 -0.2095  0.2346  0.1137
14996W        W57913   4.789  23.395  26.601  0.1622 -0.2134  0.1904
14997W        W57914   0.795  21.052  26.092 -0.5147 -0.0799  0.1321
14998W        W57915   2.096  25.200  23.788 -0.0457 -0.1171 -0.2366
14999W        W57916  34.626  23.289  27.642  0.0408 -0.0547  0.0761
15000W        W57917   0.300  23.736  25.506 -0.2075 -0.0798  0.0093
15001W        W57918   2.435  24.108  24.692  0.0276 -0.4669  0.0339
15002W        W57919   1.589  23.978  24.358  0.1860  0.0638  0.1086
15003W        W57920   3.376  24.383  24.013 -0.2232 -0.1904 -0.2138
15004W        W57921   2.089  25.409  27.426 -0.0822  0.1771 -0.0472
15005W        W57922   2.117  23.140  23.315  0.1440 -0.2232 -0.0242
15006W        W57923   0.416  23.903  24.193  0.0792 -0.0675 -0.2333
15007W        W57924   0.494  25.198  24.277 -0.0573  0.4087  0.1007
15008W        W57925   0.710  23.873  23.543  0.0969 -0.0980  0.2798
15009W        W57926   0.992  24.101  25.088  0.0152  0.2159 -0.0784
15010W        W57927   4.157  23.830  25.088 -0.0018 -0.0113 -0.0767
15011W        W57928   4.622  21.486  25.219 -0.0520 -0.1500  0.3384
15012W        W57929   3.876  24.592  25.955  0.2641  0.5162 -0.1849
15013W        W57930   2.394  19.865  22.725  0.0214 -0.0376 -0.5634
15014W        W57931   2.556  23.423  28.263 -0.0454  0.2944  0.1198
15015W        W57932  34.491  23.790  27.726  0.2309  0.0270  0.2321
15016W        W57933   2.767  21.243  22.256  0.1463  0.1259 -0.3722
15017W        W57934   0.399  25.188  29.064 -0.0543 -0.0421  0.2421
15018W        W57935   2.858  20.369  28.064 -0.1378 -0.2201 -0.1189
15019W        W57936   0.538  26.045  29.171 -0.0004 -0.1039 -0.3264
15020W        W57937   2.964  24.705  23.623  0.2661  0.1201 -0.0594
15021W        W57938   1.406  21.888  24.820 -0.2363  0.1960 -0.1021
15022W        W57939   0.912  22.336  28.177 -0.3006  0.1902 -0.0060
15023W        W57940   2.881  20.647  26.300 -0.0279  0.3473  0.1141
15024W        W57941   1.488  23.810  23.559 -0.0858 -0.0195 -0.2352
15025W        W57942   2.657  22.142  25.286  0.1805  0.0176 -0.1168
15026W        W57943   4.646  27.101  24.412 -0.0629  0.0014 -0.2699
15027W        W57944   1.496  24.763  24.594  0.1360  0.1010  0.4564
15028W        W57945   2.704  24.870  25.582 -0.0213  0.0049  0.3170
15029W        W57946  34.050  21.085  25.166 -0.0613  0.1229 -0.0024
15030W        W57947   2.431  21.901  24.255 -0.3539 -0.1760 -0.1170
15031W        W57948   1.738  22.614  27.720 -0.1881 -0.0175 -0.2435
15032W        W57949   4.613  19.113  25.289  0.3349  0.2970 -0.1126
15033W        W57950  34.150  24.859  27.182  0.1785  0.3780  0.0317
15034W        W57951   2.587  22.463  22.920 -0.0907 -0.1844 -0.1211
15035W        W57952   0.593  25.188  26.353  0.0821 -0.1388 -0.1186
15036W        W57953   1.938  23.131  26.043  0.2206 -0.0491 -0.0108
15037W        W57954   3.436  21.733  23.910  0.1521  0.0868 -0.0488
15038W        W57955   2.992  23.095  26.251 -0.1203 -0.1737 -0.0474
15039W        W57956   5.551  22.257  23.127  0.1605  0.0385 -0.1976
15040W        W57957   4.284  24.531  26.855  0.0426 -0.1158  0.1668
15041W        W57958  33.739  21.121  24.384 -0.2326 -0.2978 -0.3062
15042W        W57959   2.188  22.436  24.480 -0.3673 -0.1352  0.2439
15043W        W57960  33.760  24.425  23.667 -0.1522 -0.3209 -0.0944
15044W        W57961   0.857  24.740  29.709 -0.3239  0.2023 -0.0531
15045W        W57962   1.593  23.886  26.619 -0.2484 -0.1165 -0.1888
15046W        W57963   1.343  22.955  24.741 -0.2174  0.0483 -0.1296
15047W        W57964   1.875  25.740  23.723 -0.1903  0.2080  0.0686
15048W        W57965   1.860  22.110  24.670 -0.2498 -0.1604  0.0920
15049W        W57966   1.524  26.564  23.788 -0.0268 -0.0848  0.0850
15050W        W57967   4.414  24.022  23.499  0.2088 -0.3432 -0.1925
15051W        W57968   3.376  25.206  25.943 -0.1335 -0.2506 -0.0457
15052W        W57969  34.060  23.907  25.992  0.0541  0.0525  0.0087
15053W        W57970   3.002  23.769  26.480  0.2908 -0.2419  0.1538
15054W        W57971   3.806  25.585  25.168  0.0592 -0.1307 -0.1581
15055W        W57972   2.885  20.496  23.949  0.3527 -0.1015 -0.0246
15056W        W57973   2.522  23.387  25.465 -0.2955 -0.1117  0.3356
15057W        W57974  34.030  26.072  25.220  0.1592 -0.0184 -0.1805
15058W        W57975   3.878  23.328  23.338 -0.0531  0.0488  0.2370
15059W        W57976   3.068  22.992  27.206  0.3164  0.1056  0.1585
15060W        W57977   2.482  25.751  22.903  0.0255 -0.0143 -0.1491
15061W        W57978   4.296  23.464  26.757  0.2138  0.1321 -0.0533
15062W        W57979   0.476  24.252  28.166  0.1669  0.0969  0.0434
15063W        W57980   0.095  24.082  29.260 -0.1219 -0.1613 -0.0074
15064W        W57981  33.791  21.367  23.513 -0.4406  0.1093  0.3363
15065W        W57982   2.350  24.210  26.674  0.1720 -0.3701  0.4000
15066W        W57983  34.627  24.998  25.741  0.1066 -0.2096 -0.1052
15067W        W57984   2.278  23.845  25.517  0.1699 -0.1090  0.1340
15068W        W57985   4.412  24.407  25.064 -0.1637 -0.1123 -0.2097
15069W        W57986   1.867  22.701  24.171  0.0407  0.1423  0.1046
15070W        W57987   3.379  26.024  26.375  0.0996 -0.0331  0.1637
15071W        W57988   3.176  23.446  26.791  0.0642  0.1332 -0.1683
15072W        W57989   3.428  21.402  24.683 -0.0339 -0.3027 -0.1225
15073W        W57990   3.135  21.959  22.490  0.2535 -0.4144 -0.0075
15074W        W57991   1.002  25.516  27.309  0.0192 -0.0478  0.1238
15075W        W57992   0.586  21.708  24.556 -0.0527 -0.0732  0.1649
15076W        W57993   0.129  23.820  24.756  0.0322 -0.1200 -0.1151
15077W        W57994  34.003  23.434  26.850 -0.1486 -0.0177 -0.1641
15078W        W57995   2.508  23.423  28.981 -0.0235 -0.3711 -0.0910
15079W        W57996   0.268  22.912  26.838 -0.2009 -0.2643 -0.1641
15080W        W57997  34.168  23.786  26.476  0.2981 -0.1577 -0.3538
15081W        W57998   0.440  24.829  23.882  0.0441 -0.4054  0.2218
15082W        W57999   3.043  23.625  23.998 -0.3694 -0.0507  0.0281
15083W        W58000   0.800  22.245  26.818  0.1381  0.0082 -0.2765
15084W        W58001  33.837  23.018  25.089 -0.2251  0.1991  0.0687
15085W        W58002   2.218  25.349  22.705 -0.0292 -0.1629 -0.3627
15086W        W58003   4.684  23.733  25.173 -0.2224  0.0418  0.1050
15087W        W58004   1.938  23.143  24.947  0.2447  0.0139 -0.2240
15088W        W58005   3.974  24.123  25.519 -0.0636  0.0935  0.1408
15089W        W58006   0.777  24.770  22.074  0.2810  0.1192  0.3713
15090W        W58007   1.313  22.293  27.013  0.0283  0.1545 -0.1302
15091W        W58008   2.724  22.508  29.361 -0.0912 -0.1437 -0.1093
15092W        W58009   1.682  21.693  23.870  0.0251 -0.1527  0.0143
15093W        W58010   2.121  22.441  27.397  0.0405 -0.2717  0.0913
15094W        W58011   0.807  24.166  26.119 -0.2359 -0.0910 -0.1374
15095W        W58012   2.474  28.501  25.668  0.0844  0.0610  0.1880
15096W        W58013   0.785  23.749  26.415 -0.1579 -0.1948  0.0062
15097W        W58014   0.597  24.357  26.600 -0.3056  0.0392  0.2359
15098W        W58015   1.326  21.805  28.269  0.2545 -0.2005 -0.0622
15099W        W58016   0.505  24.112  25.084  0.3489 -0.0888  0.3574
15100W        W58017   1.595  23.337  28.324  0.1041  0.1501 -0.2160
15101W        W58018   4.047  23.776  24.142  0.3243  0.2011  0.2709
15102W        W58019   2.631  21.097  26.538 -0.2082  0.2775  0.1645
15103W        W58020   1.144  22.582  23.963  0.3804  0.1093  0.0052
15104W        W58021   0.379  21.597  29.166 -0.1202  0.0109  0.1400
15105W        W58022   0.569  25.025  28.015 -0.2755  0.0760 -0.1493
15106W        W58023   4.021  22.364  26.368 -0.1000 -0.3038  0.0704
15107W        W58024   1.186  23.184  26.959 -0.1625  0.1418  0.1575
15108W        W58025   2.756  20.638  24.450 -0.0622  0.1358  0.1715
15109W        W58026   1.355  23.870  24.802  0.0012  0.0184  0.1461
15110W        W58027   0.298  24.136  26.944  0.2775 -0.0261 -0.0442
15111W        W58028   2.488  20.813  23.605  0.2260 -0.0169  0.0085
15112W        W58029   3.305  23.655  28.499 -0.0180  0.1946  0.0956
15113W        W58030   1.144  23.420  25.595  0.0023  0.2120 -0.1142
15114W        W58031   2.381  23.984  26.024 -0.0739 -0.1535  0.1535
15115W        W58032   3.979  23.127  24.185 -0.0079 -0.2210 -0.0428
15116W        W58033   3.809  23.812  23.482 -0.0338  0.1001  0.0368
15117W        W58034   1.761  25.462  27.007  0.4368 -0.0603 -0.2121
15118W        W58035   3.037  25.970  27.793 -0.1764 -0.1184 -0.1006
15119W        W58036   2.421  25.057  27.497  0.2199  0.1894  0.4832
15120W        W58037   2.745  23.822  25.786  0.3391 -0.0599  0.0860
15121W        W58038   2.084  22.498  25.060 -0.1953 -0.3152  0.3820
15122W        W58039   2.186  21.957  26.834  0.1561  0.1217 -0.2836
15123W        W58040   2.929  22.972  25.283  0.1233 -0.0518 -0.2200
15124W        W58041   0.926  20.471  26.150  0.3315  0.4124 -0.1127
15125W        W58042   0.746  21.915  26.347 -0.2303 -0.3080  0.1243
15126W        W58043   0.180  21.456  24.597  0.3192  0.2844  0.0203
15127W        W58044   1.242  25.107  24.850  0.1445  0.0194 -0.0462
15128W        W58045   0.868  24.760  24.460  0.0934 -0.0602 -0.2533
15129W        W58046   0.735  22.963  31.896  0.1755 -0.1848  0.0666
15130W        W58047   3.642  24.613  28.723  0.0239  0.1257  0.0523
15131W        W58048   6.037  21.601  26.190  0.0365 -0.0816  0.2118
15132W        W58049   4.758  22.228  28.231 -0.0651  0.1931 -0.0673
15133W        W58050   1.779  23.000  30.506  0.0401 -0.1299 -0.0085
15134W        W58051   3.418  25.063  27.758 -0.0218 -0.0604  0.0306
15135W        W58052  33.001  21.670   0.191  0.1377  0.0385 -0.3624
15136W        W58053   4.603  26.818  29.767 -0.2692 -0.1202  0.2326
15137W        W58054   4.079  26.244  28.635  0.2228 -0.3126 -0.0429
15138W        W58055   3.841  24.353  26.851  0.1110  0.3049  0.0368
15139W        W58056   2.051  24.159  30.242  0.1659  0.1060 -0.0711
15140W        W58057   1.873  25.326  30.416 -0.0583  0.1193  0.1064
15141W        W58058   2.694  22.945  29.028  0.2572  0.1470  0.1284
15142W        W58059  34.252  22.960  30.965  0.3506  0.0206  0.1671
15143W        W58060   1.298  23.624  28.630  0.1570  0.1265  0.0381
15144W        W58061  34.587  25.180  29.179 -0.0699  0.1001 -0.0026
15145W        W58062   2.402  23.452  30.296 -0.1934  0.0156 -0.1448
15146W        W58063   2.845  24.455  30.338  0.2349  0.1930 -0.0382
15147W        W58064   3.072  26.574  28.587  0.2210 -0.0249 -0.0308
15148W        W58065   0.828  23.506  30.549  0.0659  0.2691  0.0085
15149W        W58066   0.713  21.755  31.186  0.0467  0.0380  0.0008
15150W        W58067   2.385  24.626  30.239  0.0586  0.0090 -0.1208
15151W        W58068   0.826  22.994  28.741  0.1076 -0.1767  0.0098
15152W        W58069  32.295  23.146  28.614  0.1255  0.0277 -0.2906
15153W        W58070   1.302  24.091  29.200  0.1565  0.0678 -0.2335
15154W        W58071   4.439  21.964  29.239  0.2622  0.1280 -0.2771
15155W        W58072   4.014  23.314  29.639  0.2150 -0.0371  0.0936
15156W        W58073   2.772  26.943  28.823 -0.1289  0.2869 -0.0456
15157W        W58074   1.549  28.136  30.655 -0.0334  0.1822  0.1205
15158W        W58075   2.431  24.793  31.499 -0.0476  0.0068 -0.0327
15159W        W58076  33.701  23.674  30.684 -0.3935  0.0878  0.2249
15160W        W58077  34.517  27.256  29.982 -0.4006  0.0819 -0.1486
15161W        W58078   0.419  26.123  28.648 -0.2643 -0.0425 -0.0580
15162W        W58079   4.471  23.830  29.034 -0.1464  0.0004 -0.0778
15163W        W58080   4.441  23.632  31.503  0.2368 -0.1744  0.0648
15164W        W58081   0.423  23.634  31.120 -0.0605  0.3187  0.2575
15165W        W58082  34.471  25.057  28.269  0.0433  0.1834  0.0139
15166W        W58083   2.853  25.807  30.266 -0.2182 -0.0970  0.0922
15167W        W58084   2.259  25.078  30.003  0.1195 -0.1138 -0.0738
15168W        W58085   4.046  25.178  30.592  0.0833 -0.0608  0.0152
15169W        W58086   2.951  22.799  31.040  0.1183 -0.1736  0.1420
15170W        W58087   0.072  24.253  27.748  0.1821  0.0996  0.0345
15171W        W58088   1.170  23.953  30.577 -0.2037  0.0424 -0.1492
15172W        W58089   1.734  23.857  30.789  0.0199  0.0373 -0.3101
15173W        W58090   0.572  24.294  29.874 -0.2693  0.0691  0.1272
15174W        W58091   4.451  21.913  31.584  0.1005 -0.0925  0.0659
15175W        W58092  34.274  25.335  27.377 -0.0148 -0.0562  0.1898
15176W        W58093   3.200  22.381  27.527 -0.0355 -0.1603  0.0318
15177W        W58094   1.625  24.240  29.821 -0.0357 -0.1877  0.0240
15178W        W58095   2.942  22.574  28.291  0.0121  0.0960 -0.1483
15179W        W58096   1.572  22.712  28.903 -0.1045 -0.0313 -0.0983
15180W        W58097   3.084  25.604  29.158 -0.3836 -0.1764  0.1021
15181W        W58098   2.271  22.634  30.725 -0.0945  0.0936 -0.0474
15182W        W58099   4.505  23.364  30.630  0.3666  0.0394  0.2345
15183W        W58100   2.021  23.922  26.854 -0.1153 -0.1013  0.1598
15184W        W58101  34.378  25.715  30.161 -0.0311 -0.1997 -0.2140
15185W        W58102   2.029  25.100  29.341 -0.0641 -0.1194 -0.1214
15186W        W58103   1.167  22.931  30.079 -0.0702 -0.1159 -0.2316
15187W        W58104   3.911  25.044  27.992  0.0063  0.0228 -0.0681
15188W        W58105   3.651  23.077  30.855 -0.0645 -0.1051  0.0315
15189W        W58106   0.958  25.802  28.135  0.0324 -0.0340  0.0029
15190W        W58107  34.052  21.825  29.216  0.0417  0.0841  0.4887
15191W        W58108   1.465  24.677   0.466  0.0988  0.2948  0.2657
15192W        W58109   2.522  25.098  30.954 -0.1966 -0.0020  0.3146
15193W        W58110   1.743  22.497  30.745 -0.0575 -0.0494 -0.1574
15194W        W58111   4.693  22.999   0.106  0.2135 -0.0190  0.1226
15195W        W58112  34.493  24.765  30.918 -0.1012 -0.2789 -0.0869
15196W        W58113   4.560  22.213  27.286  0.5515  0.0317  0.0598
15197W        W58114   2.291  25.131  28.396 -0.1226 -0.1893  0.0928
15198W        W58115   4.500  23.375  28.854 -0.1534 -0.1719 -0.3411
15199W        W58116   3.952  23.872  26.747  0.0406  0.1521 -0.2462
15200W        W58117   2.190  24.170  31.435 -0.1110 -0.3689 -0.1377
15201W        W58118   3.714  22.001  29.884  0.3555  0.3559 -0.3446
15202W        W58119   0.219  24.186  28.660  0.2136 -0.1630 -0.0632
15203W        W58120   2.990  26.027  28.654 -0.0377 -0.1221  0.1288
15204W        W58121   5.050  25.696  30.328 -0.2434  0.2238  0.0587
15205W        W58122   5.034  23.341  29.679  0.2289  0.0685 -0.0175
15206W        W58123   2.328  25.040  30.477  0.0540  0.0609  0.1112
15207W        W58124   4.355  24.590  31.523 -0.2998  0.1617 -0.2760
15208W        W58125   2.300  23.397  31.207 -0.0324 -0.0280  0.1153
15209W        W58126  33.427  23.592  28.627 -0.2164  0.0583  0.1884
15210W        W58127   1.584  24.355  30.400  0.1164 -0.1347  0.1882
15211W        W58128   1.890  25.053  28.841  0.1822 -0.0510 -0.2048
15212W        W58129  32.524  21.540  31.302  0.3582 -0.0178  0.2491
15213W        W58130   3.074  25.248  31.922 -0.0133 -0.0378  0.2153
15214W        W58131   3.030  21.119  27.364 -0.2724  0.2761  0.2455
15215W        W58132   0.401  23.267  30.672 -0.1767  0.0043 -0.2341
15216W        W58133   4.040  21.585  30.812  0.0100  0.1947 -0.0005
15217W        W58134   0.268  23.157  28.924  0.1567  0.0407 -0.5177
15218W        W58135   4.034  25.959  28.195 -0.1229 -0.1709  0.0725
15219W        W58136   2.822  23.790  28.579 -0.1227  0.1981 -0.0520
15220W        W58137   2.748  23.517  26.150  0.2108  0.1946 -0.1385
15221W        W58138   2.742  23.367  30.963  0.0791 -0.3251  0.0571
15222W        W58139  34.450  22.822  27.759 -0.1074  0.1032  0.2743
15223W        W58140   0.647  21.128   0.778 -0.0678 -0.2761  0.1510
15224W        W58141   1.655  22.528  30.247 -0.1231 -0.1932 -0.3823
15225W        W58142   2.477  21.280   0.568  0.0172  0.2381  0.1490
15226W        W58143   1.846  22.882  28.545  0.2574 -0.2404  0.0250
15227W        W58144   5.371  21.819  28.942  0.0824  0.1376  0.1823
15228W        W58145   3.129  23.653  29.640 -0.0830 -0.0740  0.1958
15229W        W58146   1.039  24.938  30.138  0.0480  0.1279  0.0256
15230W        W58147   0.079  23.320  30.268 -0.1745  0.1095 -0.0251
15231W        W58148   4.035  24.632  28.397  0.0963  0.1827  0.1055
15232W        W58149   3.136  25.843  31.594  0.0185  0.0520  0.2873
15233W        W58150   2.908  25.005  30.353 -0.1573 -0.2835  0.0810
15234W        W58151  34.131  22.543  29.024 -0.2958  0.1637 -0.1325
15235W        W58152   0.407  23.803  27.816 -0.0422 -0.0505 -0.0264
15236W        W58153   0.414  25.160  28.557  0.5337  0.1543 -0.1094
15237W        W58154   2.294  23.612  29.843  0.0605  0.0343 -0.0132
15238W        W58155   3.493  22.028  28.796 -0.0824  0.1168 -0.0930
15239W        W58156   3.785  25.986  30.110  0.2661  0.0946  0.0952
15240W        W58157   2.640  23.955  29.693  0.3249 -0.0228 -0.0386
15241W        W58158   1.905  27.159  29.591  0.3821  0.0075  0.1720
15242W        W58159   2.552  22.599  31.534  0.0619 -0.0409  0.0471
15243W        W58160   4.989  22.362  29.975 -0.2374 -0.0909 -0.2889
15244W        W58161   2.189  22.316  31.199  0.4099 -0.3365  0.0038
15245W        W58162   1.726  23.569  29.798  0.0513  0.0646  0.1340
15246W        W58163   3.495  26.230  29.799 -0.2905  0.7576 -0.1155
15247W        W58164   1.044  26.795  29.039 -0.0483  0.1719 -0.3575
15248W        W58165   1.486  21.801  29.968 -0.4649 -0.3066  0.0539
15249W        W58166   0.499  27.767  30.653  0.1978  0.0342  0.1498
15250W        W58167   5.199  22.142  29.559 -0.0573  0.2931  0.1438
15251W        W58168   0.139  23.736  30.603  0.1082  0.0039 -0.1292
15252W        W58169   0.754  22.212  30.814 -0.0490  0.1051  0.1193
15253W        W58170   1.663  22.622  27.213  0.1063 -0.2666 -0.2194
15254W        W58171   1.412  24.659  29.982 -0.1118 -0.2562 -0.1937
15255W        W58172   3.524  20.981  28.334  0.3927 -0.1093 -0.4552
15256W        W58173   4.837  24.231  26.706 -0.1923 -0.0043  0.2522
15257W        W58174   1.518  24.278  30.875 -0.0088 -0.3770 -0.2020
15258W        W58175   0.866  23.547  27.816 -0.0123  0.1214  0.2496
15259W        W58176   1.581  22.229  28.058  0.1112 -0.1118  0.0416
15260W        W58177   1.790  25.585  29.186  0.0833 -0.3353 -0.1904
15261W        W58178   1.620  23.658  31.565 -0.0824 -0.1402 -0.2897
15262W        W58179   1.491  24.067  28.620  0.0073 -0.2103  0.0048
15263W        W58180   1.747  24.858  30.481 -0.0664  0.1132 -0.2392
15264W        W58181   1.369  22.734  26.838  0.0294 -0.2447  0.2598
15265W        W58182   3.506  25.314  29.694 -0.2888  0.3398  0.3974
15266W        W58183  34.096  22.925  29.573 -0.0536 -0.0245  0.0072
15267W        W58184   3.521  24.946  31.893  0.0806 -0.1254 -0.1918
15268W        W58185   3.816  26.054  29.048  0.2299  0.1625  0.2223
15269W        W58186   0.887  21.649  30.705 -0.0583  0.1819  0.1908
15270W        W58187   1.394  23.074  26.100 -0.1260 -0.0765  0.0488
15271W        W58188   2.034  23.226  29.939  0.3235  0.0068 -0.2125
15272W        W58189  33.256  26.491  27.359  0.0712  0.0217 -0.0704
15273W        W58190   5.579  22.278  30.773 -0.4970  0.0159  0.0637
15274W        W58191   4.755  23.279  30.146  0.2113  0.0170 -0.0589
15275W        W58192   0.808  22.244  31.282 -0.0334 -0.1028 -0.0938
15276W        W58193   3.946  21.878  31.797 -0.4733 -0.0942  0.0772
15277W        W58194   3.618  24.412  29.595  0.0504 -0.2128  0.1352
15278W        W58195   5.525  22.729  31.401  0.1097 -0.5061  0.0740
15279W        W58196  34.556  22.584  28.752  0.1336  0.1611  0.7435
15280W        W58197   3.245  23.621  31.613 -0.1274  0.2134 -0.0597
15281W        W58198  33.363  23.724  29.284  0.4078 -0.1658 -0.1855
15282W        W58199   1.921  25.080  30.923 -0.3821 -0.0161 -0.1468
15283W        W58200   2.725  25.567  31.822  0.1287 -0.1349 -0.1116
15284W        W58201   1.359  23.852  30.163 -0.1184  0.0689  0.0458
15285W        W58202   1.708  23.523   0.621 -0.2334  0.1957  0.0254
15286W        W58203   3.542  23.911  28.089  0.2486 -0.0314  0.0848
15287W        W58204   2.258  25.412  27.919  0.0666 -0.1065  0.3627
15288W        W58205   0.235  21.624  27.435 -0.0246 -0.0783 -0.2792
15289W        W58206   3.918  21.176  30.038  0.0857 -0.1119  0.0951
15290W        W58207   2.659  24.691  30.715 -0.0326  0.2058 -0.0413
15291W        W58208   0.587  22.187  27.671 -0.0202  0.2516  0.3372
15292W        W58209   4.559  24.670  29.472  0.1255 -0.3657 -0.4782
15293W        W58210   2.748  25.279  27.991  0.4694  0.0731  0.2294
15294W        W58211   2.392  22.900  29.421 -0.1786 -0.5832 -0.4250
15295W        W58212   0.567  25.199  30.293 -0.0674 -0.1469 -0.2143
15296W        W58213   0.809  24.341  29.345  0.1338  0.0119  0.1689
15297W        W58214   1.145  22.309  29.103  0.1807  0.1547 -0.0075
15298W        W58215   4.377  22.042  29.975  0.1344  0.2498 -0.1319
15299W        W58216   3.553  24.317  28.350 -0.1644 -0.2630  0.0510
15300W        W58217  34.471  22.309  30.669 -0.1748  0.2512  0.1278
15301W        W58218   3.101  23.213  31.304 -0.2596  0.3004  0.1475
15302W        W58219  32.701  24.623  29.315  0.1138  0.1590  0.3036
15303W        W58220   3.600  23.552  30.549  0.0276  0.1102 -0.2260
15304W        W58221   4.095  21.580  26.159 -0.0669  0.0063  0.0588
15305W        W58222   3.915  23.024  29.159 -0.1100  0.0967 -0.5705
15306W        W58223  33.477  24.470  28.349  0.1642 -0.0396 -0.1195
15307W        W58224   0.753  23.495  28.745  0.1935  0.1366  0.0253
15308W        W58225   3.847  21.934  29.194 -0.1523 -0.1969 -0.0520
15309W        W58226   2.086  21.886  28.898  0.4205  0.0533 -0.1532
15310W        W58227  34.408  25.982  30.630 -0.0471  0.0998  0.1819
15311W        W58228   3.237  22.806  29.112  0.0569  0.0115 -0.0295
15312W        W58229   4.236  23.844  28.611 -0.1211 -0.0608 -0.2853
15313W        W58230   2.371  25.263  28.840 -0.0706 -0.2419 -0.1599
15314W        W58231  33.192  22.588  30.797 -0.2833  0.0215 -0.1534
15315W        W58232   5.573  22.384  31.791  0.2553 -0.2575 -0.0538
15316W        W58233   3.147  24.080  29.468 -0.2400 -0.0638 -0.1202
15317W        W58234   1.574  23.332  29.305  0.2161 -0.0967 -0.0472
15318W        W58235   2.074  24.693  27.512 -0.0430 -0.0008  0.0437
15319W        W58236   4.731  24.794  30.324  0.2592 -0.0149  0.2454
15320W        W58237   4.379  22.971  30.250  0.3149  0.0350  0.3748
15321W        W58238  32.329  26.376   1.716  0.0410  0.2247 -0.2337
15322W        W58239   2.087  22.465  31.742 -0.1536  0.1507 -0.3423
15323W        W58240   4.215  25.813  30.014 -0.3529 -0.1444  0.0667
15324W        W58241   4.229  25.601  31.423  0.1028 -0.0680 -0.2022
15325W        W58242   1.315  24.519  29.536 -0.3420  0.0683  0.0312
15326W        W58243  32.906  25.002  29.524 -0.0639 -0.0272  0.1307
15327W        W58244   2.638  24.333  29.352 -0.0660 -0.0029  0.1428
15328W        W58245   3.260  23.743  30.263 -0.1111  0.1605 -0.2537
15329W        W58246  34.503  24.627  30.375 -0.0308 -0.1756 -0.2405
15330W        W58247  34.212  23.191  28.227  0.0072  0.5200  0.1491
15331W        W58248   2.080  22.865  31.478 -0.0613 -0.0782  0.1074
15332W        W58249   4.885  21.875  27.807  0.0427  0.1354  0.1731
15333W        W58250   1.393  23.856  25.412 -0.2200  0.0082  0.2298
15334W        W58251   3.278  22.378  28.048 -0.0567  0.0710  0.1951
15335W        W58252   1.936  22.904  31.949 -0.0713 -0.0032 -0.1203
15336W        W58253   2.341  23.339  27.813  0.0110 -0.0417 -0.1209
15337W        W58254   1.236  23.392  31.254  0.0224  0.0934  0.2407
15338W        W58255  34.043  22.085  31.520  0.0507 -0.0637  0.1171
15339W        W58256   2.907  22.526  28.849 -0.1914  0.0915 -0.1342
15340W        W58257   0.167  21.947  30.955  0.2558 -0.1836 -0.2428
15341W        W58258   4.459  25.208  31.715  0.0185 -0.2292  0.0348
15342W        W58259  33.025  22.154  30.978  0.5201 -0.0278  0.4151
15343W        W58260   2.703  21.665  26.099 -0.1257 -0.1409 -0.0189
15344W        W58261   1.607  22.922  29.837  0.1205 -0.0342  0.1523
15345W        W58262   2.723  24.865  29.856  0.1232  0.0566 -0.2470
15346W        W58263   4.334  22.893  28.818 -0.2662 -0.4496  0.2597
15347W        W58264   2.578  25.626  28.361 -0.1718 -0.2045  0.0241
15348W        W58265   2.891  23.086   0.042 -0.2912 -0.1292  0.1038
15349W        W58266   0.216  24.905  30.572  0.1959 -0.1142 -0.1437
15350W        W58267   4.644  22.565  31.699  0.0577  0.0749 -0.3414
15351W        W58268   2.973  23.359  28.819 -0.3706 -0.0936 -0.0708
15352W        W58269   0.874  23.852  30.138  0.1226  0.0159 -0.1283
15353W        W58270   1.834  25.449   0.055 -0.0767 -0.1991 -0.3023
15354W        W58271   3.637  22.596  28.273  0.0362  0.0675  0.0935
15355W        W58272   1.088  22.791  29.149  0.0043  0.1489 -0.0258
15356W        W58273   1.258  23.103  30.563 -0.0266  0.0933 -0.0661
15357W        W58274   5.070  24.425  31.318 -0.0558  0.1152  0.3782
15358W        W58275   2.082  24.222  30.975  0.1885  0.2841 -0.2923
15359W        W58276   0.175  22.918  29.967 -0.1367 -0.0494 -0.0052
15360W        W58277   3.569  24.457  31.079  0.0562  0.3530 -0.0580
15361W        W58278   3.005  23.710  28.064  0.0283  0.0329  0.1080
15362W        W58279   5.353  22.103  30.307 -0.2623 -0.1319  0.0939
15363W        W58280   3.400  24.155  28.754 -0.0004 -0.0901  0.1927
15364W        W58281   4.019  23.267  28.717 -0.2715 -0.5139  0.0724
15365W        W58282   1.979  21.298  30.624 -0.0174  0.2144  0.2055
15366W        W58283   4.030  23.421  30.831 -0.1878 -0.1193  0.3344
15367W        W58284   0.616  22.580  29.066  0.1414  0.2434 -0.0089
15368W        W58285   2.025  21.546   0.180 -0.0708 -0.2149  0.1635
15369W        W58286   0.395  24.613  27.680  0.0435 -0.3375 -0.0928
15370W        W58287   2.995  24.703  26.932 -0.1013 -0.1339 -0.0312
15371W        W58288   3.711  22.516  29.239  0.0225 -0.2725  0.1053
15372W        W58289  34.175  22.287  29.510 -0.1831 -0.1571 -0.1875
15373W        W58290   2.305  25.510  30.901  0.1239 -0.4807 -0.0061
15374W        W58291   1.193  24.966  28.047 -0.1853  0.0718  0.2016
15375W        W58292   2.939  24.297  28.949  0.1684  0.2279  0.0631
15376W        W58293   3.931  23.491  28.241 -0.4622 -0.1922  0.2008
15377W        W58294   4.387  22.865  31.393 -0.0795 -0.0791 -0.1936
15378W        W58295   2.749  23.057  30.576 -0.1330  0.0887  0.3427
15379W        W58296   3.453  21.153   0.050 -0.1178  0.1944 -0.1272
15380W        W58297  34.661  22.502  26.937  0.2643  0.0375 -0.1660
15381W        W58298   1.128  21.341   0.052  0.0556  0.2024  0.0733
15382W        W58299   0.386  23.641  29.081  0.0228  0.3245 -0.2231
15383W        W58300  33.667  23.803  31.432  0.2271  0.1239 -0.1357
15384W        W58301   2.776  24.783  28.890 -0.5615 -0.0654 -0.0531
15385W        W58302   1.488  22.962  31.040 -0.1148 -0.2271  0.1413
15386W        W58303   2.534  23.156  29.907 -0.1262 -0.0962 -0.0784
15387W        W58304   3.691  23.589  29.367  0.0249  0.2283 -0.3995
15388W        W58305   3.583  21.378  31.049  0.2543 -0.0578 -0.3358
15389W        W58306   3.969  23.742  31.280 -0.0965 -0.0971 -0.0638
15390W        W58307   2.078  24.171  28.547  0.4189 -0.0286  0.2099
15391W        W58308   6.203  23.297   0.000  0.0069 -0.1427  0.0951
15392W        W58309   4.326  23.177  27.604 -0.2035  0.3886 -0.3065
15393W        W58310   1.246  25.106  28.633 -0.1322 -0.1001  0.0068
15394W        W58311  32.707  20.961  28.783  0.0099  0.0360  0.3533
15395W        W58312   1.330  23.861  31.086  0.0313 -0.0919 -0.1880
15396W        W58313   3.045  22.790  31.577  0.2650 -0.2121  0.0241
15397W        W58314   4.352  22.319  28.540  0.1693  0.1503  0.1322
15398W        W58315   2.605  24.586  27.625  0.1430  0.0613  0.1431
15399W        W58316   1.240  25.027  29.629 -0.4225 -0.0377 -0.1643
15400W        W58317   1.590  23.029  31.605 -0.1964  0.1107  0.0575
15401W        W58318   1.610  24.946  28.345 -0.0440 -0.2667 -0.1748
15402W        W58319   1.983  23.299  26.536  0.0733 -0.0510 -0.1998
15403W        W58320   3.524  23.313  28.838  0.1678  0.0966  0.1610
15404W        W58321   2.143  26.046  29.048 -0.0276 -0.0771 -0.1507
15405W        W58322   3.339  21.857  29.504 -0.2071 -0.2522 -0.0159
15406W        W58323   2.434  25.301  29.584  0.1874 -0.0067 -0.0404
15407W        W58324   0.354  22.971  27.816  0.1723  0.0558  0.0254
15408W        W58325   2.962  26.811  27.358 -0.1974 -0.0781  0.0860
15409W        W58326   0.890  25.357  28.369  0.1226 -0.0515 -0.2891
15410W        W58327   3.738  24.021  30.867 -0.0569  0.4187  0.0526
15411W        W58328   4.533  20.343  27.880  0.0978 -0.1908 -0.3078
15412W        W58329   4.535  22.758  27.886 -0.1629  0.0789 -0.0780
15413W        W58330   4.124  20.700  29.247  0.2534  0.3269 -0.2811
15414W        W58331   3.968  22.616  30.511 -0.0144  0.0363  0.0351
15415W        W58332   1.773  23.359  31.098 -0.2237  0.4872  0.0480
15416W        W58333   2.212  23.530  27.366 -0.0087  0.0839  0.1037
15417W        W58334   0.741  23.072  30.250 -0.3335  0.0550  0.0114
15418W        W58335   3.851  21.651   0.428  0.1446  0.1995 -0.0514
15419W        W58336   2.172  24.193  29.652  0.1127  0.2140 -0.0346
15420W        W58337   3.390  25.030  28.782 -0.2122 -0.1126 -0.0122
15421W        W58338   0.707  23.122  29.245  0.4020  0.0474  0.0489
15422W        W58339   0.863  23.482  29.499 -0.1933  0.0681  0.4352
15423W        W58340   3.363  23.115  31.732 -0.4254  0.2245  0.0056
15424W        W58341   2.756  25.228  29.189 -0.0940  0.2802 -0.1527
15425W        W58342   3.006  23.164  29.776 -0.1576  0.1910 -0.2142
15426W        W58343   2.627  25.946  29.239 -0.0106  0.2566  0.0678
15427W        W58344   3.352  25.860  30.347 -0.0286  0.0761  0.1428
15428W        W58345   1.313  23.715  29.571  0.1297 -0.0403 -0.0413
15429W        W58346  34.085  22.728  28.060  0.2335 -0.0886 -0.2939
15430W        W58347   3.926  22.961  29.940 -0.2619  0.1802 -0.1007
15431W        W58348   2.259  22.879  28.248 -0.0165 -0.2963 -0.0372
15432W        W58349   3.141  25.419  30.154  0.0226  0.0909  0.1134
15433W        W58350   0.824  24.077  27.834  0.0240 -0.1643  0.0490
15434W        W58351   2.817  22.284  27.899  0.1767 -0.2578 -0.2003
15435W        W58352   2.921  24.795  29.378  0.0128 -0.2019 -0.2620
15436W        W58353  33.987  23.518  29.796  0.1253  0.2202  0.1854
15437W        W58354   2.086  22.909  29.031  0.1196 -0.3115 -0.0168
15438W        W58355   3.624  23.377   0.444  0.0607 -0.1772  0.1304
15439W        W58356   3.076  23.245  30.278  0.1369  0.0723  0.0575
15440W        W58357   2.402  26.500  31.096  0.4738 -0.1366  0.0023
15441W        W58358   1.751  21.454  31.189 -0.0147 -0.0339 -0.2842
15442W        W58359   2.305  23.724  28.604 -0.2581 -0.3661  0.0285
15443W        W58360   0.928  24.914  29.266  0.0148 -0.3192 -0.1928
15444W        W58361   2.147  25.667  28.718 -0.3382 -0.0510  0.0890
15445W        W58362   4.250  24.059  31.656 -0.0074  0.0023  0.2255
15446W        W58363   2.428  24.502  31.091 -0.1409 -0.1566  0.2743
15447W        W58364   3.778  23.694  27.715 -0.1839 -0.0972 -0.1441
15448W        W58365   4.325  22.928  30.836 -0.0309  0.0913 -0.0152
15449W        W58366   3.106  24.612  28.541 -0.0566 -0.0750  0.2715
15450W        W58367   2.585  24.383  29.883  0.0763  0.3676  0.1667
15451W        W58368   4.138  25.631  29.193 -0.1333 -0.0182 -0.0134
15452W        W58369   2.140  24.639  30.711 -0.3035 -0.1204 -0.0894
15453W        W58370   4.621  22.851  29.256  0.1232  0.1498  0.1193
15454W        W58371   4.719  23.780  30.008  0.1773 -0.1111  0.0750
15455W        W58372   2.102  21.890  30.086 -0.0933  0.2865 -0.0735
15456W        W58373   3.096  24.492  29.715 -0.0314 -0.0653  0.0290
15457W        W58374  33.314  27.247  28.740 -0.0334  0.2995 -0.2019
15458W        W58375   3.490  22.782  31.316  0.0600  0.1244 -0.1252
15459W        W58376   2.395  23.042   0.353 -0.1263  0.1772  0.1815
15460W        W58377   2.715  25.842  25.462  0.0476 -0.0039  0.0487
15461W        W58378   2.381  21.611  30.494  0.0697  0.2624  0.0528
15462W        W58379   3.799  24.997  30.072 -0.1092  0.2793 -0.0151
15463W        W58380   2.431  24.420   1.020  0.0983  0.1714  0.0289
15464W        W58381  34.360  23.573  27.177 -0.0791 -0.0760  0.0234
15465W        W58382   1.906  24.366   0.753 -0.2532 -0.1214  0.2588
15466W        W58383   1.063  22.535  28.629  0.0440  0.2092 -0.1667
15467W        W58384   3.044  23.258  28.300  0.0493 -0.2562 -0.1579
15468W        W58385   3.789  25.085  29.068  0.1986 -0.0944  0.0482
15469W        W58386  33.801  24.465  31.087 -0.0427  0.0133  0.0966
15470W        W58387   5.025  26.697  28.956 -0.0595  0.1211  0.0826
15471W        W58388   2.712  22.362  30.940  0.0158  0.2766 -0.1424
15472W        W58389   5.288  20.967  30.179 -0.0027  0.1944 -0.0610
15473W        W58390   4.130  22.507  28.073  0.0823 -0.2161 -0.0413
15474W        W58391   3.347  24.148  30.615  0.0782 -0.1209 -0.1284
15475W        W58392  34.121  23.384  29.265  0.0676  0.0049  0.2082
15476W        W58393   1.730  25.437  28.624 -0.2463  0.0845  0.0341
15477W        W58394   3.168  25.683  30.773  0.1441  0.1584  0.1997
15478W        W58395   2.017  24.084  31.935 -0.1388 -0.4025  0.2779
15479W        W58396   0.539  24.442  30.889 -0.2379 -0.2109  0.1092
15480W        W58397   2.150  24.451  29.033 -0.0597  0.1027 -0.0886
15481W        W58398   2.303  22.274  29.681  0.1508 -0.2963  0.3464
15482W        W58399   5.716  26.000  27.520 -0.0162  0.2445  0.4244
15483W        W58400   1.665  22.040  30.339 -0.2266  0.1106 -0.0671
15484W        W58401   1.160  23.482  29.942 -0.3212  0.4163 -0.1672
15485W        W58402   3.888  24.469  30.082  0.2792  0.0957 -0.1123
15486W        W58403   3.733  25.527  28.907  0.1185 -0.1498  0.2526
15487W        W58404   4.039  22.096  27.401  0.2174  0.0742  0.0131
15488W        W58405   4.968  22.975  28.811 -0.1266  0.1778  0.1343
15489W        W58406   3.325  24.592  29.112  0.0206 -0.0844  0.0031
15490W        W58407   2.393  25.604  30.393  0.2222  0.1714 -0.2971
15491W        W58408   2.597  23.991  31.065  0.0303  0.3196  0.2872
15492W        W58409   0.029  23.697  28.708 -0.0874  0.3283  0.0999
15493W        W58410   2.647  23.448  29.508  0.0345  0.3071 -0.0093
15494W        W58411   2.804  27.177  28.333 -0.3112  0.0915 -0.2776
15495W        W58412   3.786  25.190  28.539  0.2647 -0.0664 -0.1344
15496W        W58413   1.066  24.096  29.749 -0.0663  0.1132  0.0236
15497W        W58414   1.065  26.041  30.459  0.1716 -0.1115  0.1444
15498W        W58415  34.387  22.988  29.033  0.3009 -0.2614  0.2069
15499W        W58416   2.929  24.999  27.640  0.0824 -0.3271  0.0063
15500W        W58417   2.142  24.681  28.607  0.1542 -0.1582 -0.2796
15501W        W58418   3.185  23.837  27.596  0.1647 -0.3010 -0.1734
15502W        W58419   5.389  21.163  28.252  0.1965 -0.1225 -0.1565
15503W        W58420   2.642  24.360  28.490  0.2381  0.1656 -0.0059
15504W        W58421   0.692  22.420  30.370  0.3619 -0.0736 -0.0425
15505W        W58422   1.935  24.658  31.250  0.0282  0.1787  0.0854
15506W        W58423   3.191  21.862   0.987 -0.3326  0.1476  0.0718
15507W        W58424   1.962  21.807  30.692  0.1961 -0.1286 -0.0471
15508W        W58425   2.597  22.112  28.798  0.0423  0.0176 -0.1945
15509W        W58426   4.267  23.628  27.829  0.4770 -0.0832 -0.0181
15510W        W58427   1.675  23.544  27.830 -0.0688  0.0024 -0.3683
15511W        W58428   1.233  22.539  27.798  0.0265  0.2323  0.0177
15512W        W58429   4.084  24.620  30.950  0.2272  0.0878  0.1822
15513W        W58430   3.583  25.021  30.963  0.0740 -0.0576 -0.0826
15514W        W58431   3.557  23.547  31.089 -0.0317  0.2096 -0.1418
15515W        W58432   1.987  23.593  29.075 -0.0445 -0.3144 -0.2102
15516W        W58433   4.788  24.634  26.957  0.3952 -0.3804 -0.2541
15517W        W58434   0.437  24.688  29.453 -0.2117  0.0899  0.1187
15518W        W58435   4.654  23.765   1.488  0.0699  0.1612  0.2538
15519W        W58436   1.920  24.588  30.123  0.1356 -0.0951  0.2616
15520W        W58437   4.006  23.815  29.911  0.0109  0.3477  0.0517
15521W        W58438  34.348  19.189  30.318  0.0527  0.1957  0.0729
15522W        W58439   2.502  23.961  30.159 -0.2264  0.1351  0.0093
15523W        W58440   2.452  26.488  30.602 -0.3673  0.0996 -0.2079
15524W        W58441   3.517  22.597  31.811 -0.0751  0.3454 -0.2543
15525W        W58442   3.305  23.238  29.387 -0.3679  0.2212  0.1822
15526W        W58443   3.564  22.883  29.612  0.1620 -0.0331 -0.1608
15527W        W58444   0.204  27.483  30.380 -0.2517  0.0280 -0.0084
15528W        W58445   2.290  23.901  29.280 -0.0416  0.0780 -0.1711
15529W        W58446   3.712  21.528  30.459  0.0644  0.1092 -0.2007
15530W        W58447   3.573  23.955  29.765  0.0460  0.0852 -0.1268
15531W        W58448  34.089  22.427  31.845 -0.0634  0.2171  0.1594
15532W        W58449   1.966  24.986  31.641  0.0195 -0.0886  0.2591
15533W        W58450   1.787  26.447  31.083  0.3087  0.0377 -0.4694
15534W        W58451  34.454  23.751  29.523  0.0388 -0.0573 -0.4414
15535W        W58452   2.461  22.736   0.004  0.2609 -0.0359 -0.0148
15536W        W58453   0.879  24.766  31.023  0.3045  0.3962  0.0042
15537W        W58454   3.003  20.922   0.237 -0.2616 -0.0730  0.0117
15538W        W58455   3.875  23.081  31.955 -0.0091 -0.0836 -0.4117
15539W        W58456   4.881  23.174  31.643 -0.1525 -0.0800  0.3192
15540W        W58457  33.733  23.461  28.980  0.2262  0.0214 -0.0081
15541W        W58458   2.860  24.799  31.181 -0.0720  0.4248  0.0181
15542W        W58459   2.784  23.568  30.034  0.0158 -0.0369  0.1790
15543W        W58460   2.001  22.734   1.333 -0.1545  0.3593 -0.0188
15544W        W58461  33.376  27.075  29.828  0.3401  0.1936 -0.0101
15545W        W58462   0.833  24.115   0.726 -0.0518 -0.0707  0.1708
15546W        W58463   3.696  22.100   0.778  0.0229 -0.1560  0.0234
15547W        W58464   0.153  20.985   0.976 -0.2631  0.1225 -0.0092
15548W        W58465  33.256  24.499  31.344 -0.0010 -0.1781  0.1861
15549W        W58466  33.145  23.590  30.204  0.0139  0.0217  0.1104
15550W        W58467   1.426  27.217   0.527 -0.0912  0.0614  0.1759
15551W        W58468   3.370  21.727  31.360 -0.0302  0.2139 -0.2771
15552W        W58469  34.270  23.696  30.200  0.2344 -0.2802  0.4216
15553W        W58470   3.523  22.581  30.749 -0.2523 -0.0846  0.2033
15554W        W58471   1.812  20.715   0.440 -0.4061  0.0198  0.0566
15555W        W58472   1.429  25.242  30.669  0.2189 -0.5171 -0.2895
15556W        W58473   0.701  24.718  30.466 -0.1078  0.0964  0.0996
15557W        W58474   2.859  25.250  31.430  0.1419  0.4534  0.0192
15558W        W58475   2.739  25.557  31.125 -0.1971 -0.1189  0.3748
15559W        W58476   2.946  24.610  31.651 -0.0476 -0.1881 -0.0307
15560W        W58477   0.298  21.455   0.408 -0.0726  0.0910  0.1528
15561W        W58478   3.734  20.215  31.794 -0.4162  0.2665 -0.1421
15562W        W58479   1.072  21.367   0.626  0.1587  0.2180 -0.0022
15563W        W58480  32.407  20.388   0.174 -0.0074 -0.0717 -0.0908
15564W        W58481   1.573  25.313   0.470 -0.0137  0.0184  0.0309
15565W        W58482   1.339  25.846  31.311  0.1600 -0.2006  0.0090
15566W        W58483   1.802  24.357   0.315  0.2093 -0.0226  0.2300
15567W        W58484   3.091  23.827  30.950 -0.1006  0.0730 -0.1393
15568W        W58485   2.832  21.409  30.675  0.1210  0.2140  0.1951
15569W        W58486   5.137  23.202   0.155 -0.1041  0.2779 -0.3143
15570W        W58487   1.230  24.287   0.400 -0.2119  0.1204 -0.2368
15571W        W58488   0.609  23.330  31.468 -0.0456 -0.0413  0.3213
15572W        W58489   4.664  24.365  30.014 -0.3352 -0.0128 -0.2322
15573W        W58490  33.683  23.364  31.631 -0.2628  0.4489  0.5293
15574W        W58491   0.310  23.355  29.507 -0.3547  0.0314  0.0739
15575W        W58492   1.897  21.049  31.475  0.0703 -0.2518 -0.0189
15576W        W58493   2.024  23.792   1.585  0.0755  0.1507 -0.4748
15577W        W58494   3.841  24.766  31.444  0.0108  0.5148 -0.0058
15578W        W58495  34.496  25.411  31.486 -0.1569  0.0710  0.1111
15579W        W58496   1.386  25.258  31.160  0.1337 -0.1077  0.4693
15580W        W58497   2.825  22.137   0.754  0.1287  0.3698 -0.1052
15581W        W58498   0.039  21.911  31.515 -0.1516 -0.3297 -0.1339
15582W        W58499  33.662  23.269  29.440  0.0729  0.0010  0.4485
15583W        W58500   1.979  23.777  31.233  0.0045  0.0136 -0.4172
15584W        W58501   0.659  23.962  30.670  0.1686 -0.1633 -0.0169
15585W        W58502   4.690  23.826   0.994  0.0992 -0.0109  0.0072
15586W        W58503   2.043  26.537   0.081 -0.1627  0.0819 -0.3258
15587W        W58504   2.037  26.801   0.491  0.2937  0.0087 -0.3260
15588W        W58505  34.315  23.781  30.700  0.0207  0.3265 -0.2974
15589W        W58506  34.538  22.463  31.141 -0.0852  0.0597 -0.1722
15590W        W58507   2.450  24.183  30.632  0.0418  0.0791  0.2663
15591W        W58508   0.955  23.727  31.549  0.1307  0.0282 -0.0538
15592W        W58509  33.568  22.647  30.328 -0.0879  0.0477 -0.4594
15593W        W58510   2.247  25.354   1.260  0.0149  0.0914  0.2113
15594W        W58511   3.361  24.061  31.331  0.0853  0.1153 -0.0104
15595W        W58512   3.598  21.905   1.277  0.0823  0.0204 -0.2095
15596W        W58513   2.660  27.237  18.064  0.1686 -0.1148  0.1765
15597W        W58514   1.117  26.520  16.998  0.2548 -0.2409 -0.1817
15598W        W58515   3.274  26.348  17.194  0.1186  0.1345  0.2038
15599W        W58516   3.973  26.706  17.471  0.1419  0.1657 -0.0329
15600W        W58517   0.147  26.759  19.422 -0.0148  0.1747 -0.2439
15601W        W58518   5.464  27.917  16.452 -0.1468  0.1835 -0.0155
15602W        W58519  34.091  27.284  21.057 -0.0180 -0.1986  0.2632
15603W        W58520   2.219  26.026  16.482 -0.2407 -0.3071  0.1071
15604W        W58521   3.187  28.894  18.428 -0.3828  0.0526 -0.0682
15605W        W58522   1.882  28.569  16.539  0.1566  0.0233  0.3166
15606W        W58523   1.773  24.691  18.786 -0.0285  0.1511  0.0356
15607W        W58524   1.419  28.202  18.446  0.1211  0.0656  0.1620
15608W        W58525   1.470  26.002  18.403  0.2372 -0.3684  0.2390
15609W        W58526  34.514  26.443  19.179  0.2223 -0.0497  0.0119
15610W        W58527   4.894  26.059  18.277 -0.0032  0.3383  0.2206
15611W        W58528   1.580  28.705  18.178  0.0764  0.2217 -0.0850
15612W        W58529  34.621  26.122  18.269  0.2803 -0.0264 -0.0715
15613W        W58530   2.202  27.471  19.539  0.0165  0.0508  0.4351
15614W        W58531   1.099  31.264  18.224  0.1032  0.2737 -0.1192
15615W        W58532   1.818  25.301  21.166 -0.0493  0.0575  0.1730
15616W        W58533   4.401  26.990  20.608 -0.4311 -0.1629  0.0574
15617W        W58534   3.239  28.450  16.759 -0.0540 -0.1561  0.1825
15618W        W58535   0.648  27.162  17.261 -0.2822  0.1332  0.3666
15619W        W58536   0.934  26.416  19.854 -0.1462  0.0501 -0.0800
15620W        W58537   0.851  27.104  18.168 -0.2571 -0.2418  0.3948
15621W        W58538   3.813  26.062  17.229  0.0723 -0.0843 -0.0575
15622W        W58539   3.784  24.972  16.678  0.2488  0.0937 -0.1514
15623W        W58540   1.632  29.501  16.373  0.0146 -0.0840 -0.2177
15624W        W58541   4.230  28.198  18.538 -0.1003  0.0203 -0.1326
15625W        W58542   3.222  27.470  20.078 -0.0216 -0.2954 -0.0193
15626W        W58543  33.668  27.882  17.741 -0.2137  0.0441 -0.0671
15627W        W58544  34.469  30.259  17.299  0.1267  0.2122  0.1322
15628W        W58545   1.233  29.637  17.008  0.2013 -0.3216  0.0389
15629W        W58546   2.600  27.824  16.025 -0.1557  0.0618 -0.2796
15630W        W58547   4.840  28.566  17.562  0.0754 -0.1035  0.0339
15631W        W58548  34.385  29.042  21.029  0.1908 -0.0509 -0.0661
15632W        W58549  34.285  29.270  16.985 -0.0340  0.2345 -0.1133
15633W        W58550   0.983  29.581  20.924  0.2685  0.0364 -0.3221
15634W        W58551   2.778  28.293  19.934 -0.1774  0.0023 -0.1440
15635W        W58552   2.241  24.948  18.878  0.3742 -0.0567  0.2130
15636W        W58553   3.682  27.831  19.206  0.1100 -0.2773 -0.1131
15637W        W58554   2.302  28.930  16.811 -0.1177  0.2476  0.1039
15638W        W58555   1.976  27.972  17.598 -0.1450 -0.0614 -0.3081
15639W        W58556   1.635  27.034  18.375  0.1463 -0.1849  0.0928
15640W        W58557   2.390  26.839  18.732  0.0810  0.0613  0.0578
15641W        W58558   5.596  27.211  21.073 -0.0400 -0.1656  0.2115
15642W        W58559   2.217  29.466  16.655  0.3630  0.0321  0.2038
15643W        W58560   0.967  27.458  17.038  0.2600 -0.1114  0.3325
15644W        W58561   1.501  25.464  16.781  0.2798 -0.2684  0.0425
15645W        W58562   2.888  26.621  15.619 -0.2915  0.4468 -0.0913
15646W        W58563   0.502  24.488  17.511  0.0812  0.0190  0.2344
15647W        W58564   0.801  29.865  16.421  0.1044 -0.1475 -0.0681
15648W        W58565  34.225  24.773  18.834 -0.1264  0.0702  0.3619
15649W        W58566   5.033  27.428  19.771  0.1094 -0.2708 -0.1739
15650W        W58567   2.441  28.061  17.222 -0.0584  0.0453  0.1941
15651W        W58568   4.136  25.469  19.952  0.4768  0.1155  0.0381
15652W        W58569   0.100  28.597  18.100  0.1571 -0.1290  0.6181
15653W        W58570   3.493  26.861  18.263  0.1126 -0.1983 -0.0642
15654W        W58571   3.699  28.572  17.303 -0.3478 -0.0575 -0.0675
15655W        W58572   3.741  26.744  18.790 -0.1927 -0.1464  0.0882
15656W        W58573   1.951  29.291  17.249 -0.0581  0.2473 -0.1418
15657W        W58574   0.684  26.294  17.133  0.0856  0.1114 -0.0362
15658W        W58575   1.927  28.482  18.487  0.0418 -0.0318 -0.5395
15659W        W58576   0.119  27.265  19.074 -0.0133 -0.4692 -0.1909
15660W        W58577   1.378  26.055  16.258 -0.1385  0.2445  0.0128
15661W        W58578   5.289  27.870  19.654  0.0429  0.0014 -0.0447
15662W        W58579   2.588  29.453  20.431 -0.1253  0.3297  0.2085
15663W        W58580   4.510  25.719  18.300  0.0010 -0.0667  0.0189
15664W        W58581   1.845  28.819  17.032 -0.1552  0.1942 -0.2175
15665W        W58582   2.926  27.425  17.704  0.0274  0.3894  0.0963
15666W        W58583   2.782  26.492  18.749 -0.3406  0.0794 -0.1047
15667W        W58584   3.220  25.364  18.332 -0.2163 -0.0677  0.5013
15668W        W58585   7.016  28.489  19.189 -0.0240  0.2089 -0.2479
15669W        W58586   1.512  26.577  18.645  0.0087  0.1450  0.1179
15670W        W58587   2.193  27.182  18.342  0.2919 -0.1525  0.2424
15671W        W58588   5.752  28.797  18.004 -0.2748  0.0570  0.3525
15672W        W58589   2.399  27.645  17.601 -0.0197  0.1092 -0.0238
15673W        W58590   1.878  29.278  17.739 -0.2816 -0.1982 -0.0093
15674W        W58591   2.823  24.697  19.644 -0.0378  0.3472 -0.0510
15675W        W58592   2.383  28.794  19.083 -0.2279  0.0282 -0.1941
15676W        W58593  34.319  28.398  16.195 -0.3529 -0.0507  0.2703
15677W        W58594   0.498  29.221  16.823 -0.3143 -0.1633 -0.2087
15678W        W58595   1.615  28.921  17.474 -0.1351 -0.0344 -0.1311
15679W        W58596   0.298  23.975  22.183 -0.3940 -0.1568  0.0622
15680W        W58597   2.392  28.231  18.221 -0.3185 -0.0365 -0.1907
15681W        W58598   1.994  26.242  16.080  0.0219  0.0493 -0.0731
15682W        W58599   3.516  25.503  20.129 -0.2379 -0.0853  0.4034
15683W        W58600   2.078  26.015  17.282  0.0150  0.0580 -0.0533
15684W        W58601   1.955  26.532  18.923  0.0344 -0.2326 -0.0441
15685W        W58602   3.162  28.455  17.457 -0.1730 -0.0118  0.1790
15686W        W58603   2.515  27.240  16.887  0.3671  0.0071 -0.0256
15687W        W58604   3.757  30.615  16.319  0.0156  0.0321  0.1214
15688W        W58605   1.532  25.520  19.427 -0.2316 -0.3332  0.2237
15689W        W58606   1.924  26.187  18.416 -0.0431  0.1105  0.2296
15690W        W58607   2.650  26.015  22.022 -0.0133 -0.0117  0.1693
15691W        W58608  34.140  26.320  18.855 -0.0506 -0.2182 -0.3525
15692W        W58609   4.131  26.526  19.226 -0.2234 -0.1203  0.2225
15693W        W58610   1.517  25.234  18.030  0.0546 -0.0667 -0.2663
15694W        W58611   3.958  25.031  17.626  0.1849 -0.0453 -0.3533
15695W        W58612   3.083  27.901  16.961 -0.1419  0.2204 -0.2267
15696W        W58613   1.130  27.019  17.759 -0.1491 -0.1076 -0.1469
15697W        W58614   4.656  27.048  18.766 -0.1672  0.0091  0.0356
15698W        W58615   3.251  32.356  17.773 -0.1431 -0.2243 -0.1841
15699W        W58616   2.620  29.807  18.245  0.1078 -0.0604 -0.2340
15700W        W58617   3.519  28.539  16.272  0.1417  0.2393 -0.1016
15701W        W58618   2.862  27.207  20.505  0.0031 -0.0026 -0.2879
15702W        W58619   1.690  26.257  17.141  0.0969  0.1532  0.1420
15703W        W58620   0.622  28.814  18.047 -0.1388 -0.1075  0.0093
15704W        W58621   1.464  28.624  18.679  0.0924 -0.0797 -0.1697
15705W        W58622   1.822  24.688  17.420  0.1057 -0.1685 -0.1242
15706W        W58623   3.997  28.934  16.909  0.4749  0.0882 -0.0430
15707W        W58624   2.716  27.544  16.404 -0.1052 -0.0147 -0.2007
15708W        W58625   0.674  27.229  17.743  0.0389  0.0505 -0.2880
15709W        W58626   0.978  25.735  20.867 -0.0680 -0.1843 -0.2338
15710W        W58627   4.202  29.146  18.868 -0.1449 -0.0338  0.1173
15711W        W58628   3.840  26.995  19.209  0.3134 -0.0626 -0.0955
15712W        W58629   1.596  25.453  17.576 -0.3244  0.0128  0.2431
15713W        W58630   3.936  28.112  16.914 -0.3837 -0.1289  0.0936
15714W        W58631   0.900  29.498  16.725 -0.1592 -0.1142  0.3525
15715W        W58632   1.913  26.995  18.767  0.2519 -0.0433  0.1033
15716W        W58633   0.507  29.693  17.712  0.1373  0.1553  0.1304
15717W        W58634   2.647  25.294  17.999 -0.2761 -0.2626  0.1562
15718W        W58635   1.290  27.485  20.307 -0.0010 -0.1014  0.1482
15719W        W58636   2.494  27.501  20.764 -0.1161  0.1286  0.0718
15720W        W58637  33.546  24.634  18.617  0.0669 -0.0083  0.0785
15721W        W58638   1.160  26.889  19.064 -0.0017 -0.2453 -0.0122
15722W        W58639   4.848  25.411  17.982  0.0314  0.0193 -0.0456
15723W        W58640   3.141  26.491  16.266 -0.0490 -0.1884 -0.0545
15724W        W58641   4.511  27.492  18.959 -0.1698  0.0533 -0.0255
15725W        W58642   4.588  27.807  16.480  0.0313 -0.0988 -0.0898
15726W        W58643   0.212  27.405  16.743  0.2493 -0.1216  0.0157
15727W        W58644   3.324  23.873  17.294 -0.0101  0.1806 -0.1664
15728W        W58645   0.248  28.681  20.382 -0.3477 -0.2871 -0.0951
15729W        W58646   2.982  28.749  17.966 -0.1946  0.1484  0.0354
15730W        W58647   3.558  29.284  16.942 -0.0293  0.0212 -0.0074
15731W        W58648   1.609  26.769  17.081  0.0577 -0.4770  0.0490
15732W        W58649   3.962  28.227  16.439  0.0466  0.2142 -0.3335
15733W        W58650   0.289  29.971  17.157 -0.1336 -0.1581 -0.2313
15734W        W58651   3.018  27.790  22.708  0.0080  0.0808 -0.0362
15735W        W58652   0.880  28.191  17.738  0.0740 -0.0655 -0.1627
15736W        W58653   1.748  24.810  19.922 -0.0267 -0.1402  0.1918
15737W        W58654   0.846  27.978  16.841 -0.4152 -0.1021 -0.5006
15738W        W58655   2.692  25.500  20.787  0.0186  0.3119  0.1370
15739W        W58656  33.879  29.248  16.633 -0.0395  0.1865  0.2425
15740W        W58657   3.250  26.646  18.737 -0.0044  0.0995 -0.0962
15741W        W58658   2.437  27.840  18.976  0.2425  0.1308  0.0142
15742W        W58659   1.769  26.177  20.486 -0.1853  0.5639  0.0831
15743W        W58660   4.868  27.188  19.237 -0.1425  0.1360  0.2719
15744W        W58661   2.904  26.012  17.356  0.2129 -0.1974  0.5940
15745W        W58662   3.022  25.671  20.460 -0.1191 -0.0249 -0.3940
15746W        W58663   0.671  27.507  16.601 -0.1297 -0.0268 -0.1755
15747W        W58664   0.441  26.906  20.391  0.0863  0.1857 -0.1825
15748W        W58665   2.419  25.156  19.351  0.2865  0.0487  0.0225
15749W        W58666   1.219  28.713  17.121 -0.0386  0.1102 -0.3790
15750W        W58667   3.433  28.360  20.321  0.2297  0.1487  0.2877
15751W        W58668   5.072  28.588  18.324  0.2741 -0.0555 -0.1576
15752W        W58669   2.075  26.491  19.400  0.0486  0.0101  0.3225
15753W        W58670   3.379  27.563  16.580  0.0509 -0.1497 -0.0479
15754W        W58671   0.948  29.584  17.576  0.1556  0.0528 -0.1113
15755W        W58672   1.960  26.638  17.368 -0.0944  0.0154 -0.7463
15756W        W58673   1.168  25.373  18.979 -0.0087 -0.0827  0.0714
15757W        W58674   1.583  28.309  17.111 -0.0928  0.1298  0.0602
15758W        W58675   1.954  27.329  17.938 -0.2500  0.2474  0.1082
15759W        W58676   3.372  29.079  19.880 -0.0706  0.3425  0.0463
15760W        W58677   0.502  28.303  18.204 -0.2750 -0.1237  0.1435
15761W        W58678   3.485  24.514  17.968 -0.0318 -0.2281  0.1840
15762W        W58679   0.927  28.982  16.692  0.2874 -0.3493 -0.0723
15763W        W58680   1.363  26.243  17.944  0.2035  0.3582 -0.0132
15764W        W58681   1.275  27.840  17.059 -0.3458 -0.2635 -0.0328
15765W        W58682   0.968  24.190  18.654 -0.2726  0.1288 -0.2470
15766W        W58683   1.417  27.969  17.531  0.0395  0.0456 -0.1019
15767W        W58684   1.024  24.954  19.225 -0.1664  0.1010  0.2337
15768W        W58685   1.752  25.012  18.443  0.0718 -0.1409  0.1838
15769W        W58686   0.316  28.650  18.893  0.0452 -0.1087 -0.2792
15770W        W58687   2.477  27.668  18.481  0.0305  0.1179  0.1138
15771W        W58688   2.477  26.249  15.518  0.0286  0.0675 -0.0720
15772W        W58689   2.016  26.657  18.397 -0.1941  0.0484 -0.2212
15773W        W58690   0.574  27.519  20.678  0.0203  0.4178  0.0060
15774W        W58691   1.242  25.430  18.372  0.1150  0.1379  0.1360
15775W        W58692   4.895  28.111  18.552  0.0904  0.2373 -0.1461
15776W        W58693   2.338  28.336  16.399 -0.0249 -0.0855 -0.3793
15777W        W58694   0.693  29.926  18.366  0.1025  0.2291  0.0115
15778W        W58695   2.837  27.760  19.248  0.2911 -0.0987  0.1287
15779W        W58696   1.816  27.470  17.452  0.0569  0.1509 -0.0242
15780W        W58697   0.132  29.459  17.889 -0.1744  0.0345 -0.0104
15781W        W58698   0.362  26.348  19.053  0.3198 -0.1157 -0.1085
15782W        W58699   2.679  27.040  17.298 -0.0698 -0.2096  0.1340
15783W        W58700   4.783  25.689  17.399 -0.0520 -0.0335 -0.1723
15784W        W58701   1.627  25.981  17.556  0.0106 -0.0228  0.0768
15785W        W58702   3.346  26.845  19.225 -0.5030 -0.2793 -0.1108
15786W        W58703   2.565  27.123  19.551 -0.2524  0.0172  0.1333
15787W        W58704   3.085  25.096  19.779  0.2075 -0.0721 -0.1786
15788W        W58705   1.322  29.310  20.624 -0.0347  0.2163  0.1417
15789W        W58706   3.139  26.172  18.592  0.1946  0.1710  0.0994
15790W        W58707   3.544  30.373  15.877  0.2345 -0.2101 -0.2506
15791W        W58708   2.083  28.300  18.947 -0.3036  0.1779  0.3827
15792W        W58709   0.820  27.764  17.458  0.3966 -0.2140 -0.0540
15793W        W58710   0.217  29.481  17.301 -0.0068  0.1941 -0.4544
15794W        W58711   2.142  27.073  19.185 -0.0941  0.1785 -0.0329
15795W        W58712   3.002  25.664  18.684  0.1442 -0.0117  0.3226
15796W        W58713   2.610  26.383  16.753  0.1789  0.1238  0.0538
15797W        W58714   1.764  29.800  17.376  0.2711  0.0891 -0.0155
15798W        W58715   2.857  28.492  18.379 -0.0594  0.0685  0.0619
15799W        W58716   2.526  25.885  16.945  0.2015  0.1649 -0.1804
15800W        W58717   1.898  28.035  16.275 -0.2868 -0.1116 -0.0667
15801W        W58718   2.518  26.777  18.244 -0.0830 -0.1162  0.0427
15802W        W58719   4.703  26.415  19.786 -0.0033  0.0937 -0.1106
15803W        W58720   1.612  27.314  16.515  0.0215  0.2573  0.0448
15804W        W58721   4.106  27.053  20.215 -0.1284  0.0280  0.1590
15805W        W58722   1.972  24.853  19.294 -0.3477  0.1137  0.3666
15806W        W58723   3.594  26.244  18.790 -0.3115 -0.0898 -0.0178
15807W        W58724   1.180  27.403  19.222  0.2021  0.0027  0.2085
15808W        W58725   2.998  28.757  19.905 -0.2155 -0.0748  0.1606
15809W        W58726   2.437  27.528  22.464  0.1142  0.1824 -0.0719
15810W        W58727   1.287  24.697  18.645  0.2311 -0.1238 -0.0079
15811W        W58728   2.217  24.909  16.241  0.2683 -0.1622  0.0247
15812W        W58729   3.664  26.297  17.681 -0.0032 -0.0111 -0.1313
15813W        W58730   4.110  27.812  18.877 -0.2027  0.0852 -0.0553
15814W        W58731   1.582  28.447  16.165  0.0110 -0.0069 -0.0402
15815W        W58732   3.372  26.119  19.614  0.0883 -0.2953 -0.2106
15816W        W58733   2.085  25.900  18.794 -0.0933  0.1194 -0.0522
15817W        W58734   3.170  28.074  18.510 -0.0212  0.1887  0.0061
15818W        W58735   2.496  25.388  16.816  0.0948  0.0668  0.2880
15819W        W58736   2.416  26.306  17.984  0.0440  0.0322 -0.3272
15820W        W58737   2.305  25.704  19.191 -0.0444 -0.3631  0.0362
15821W        W58738   2.805  27.075  18.548  0.1798  0.1089 -0.2011
15822W        W58739   2.019  25.583  16.749  0.2482  0.2303  0.0392
15823W        W58740   3.574  26.416  19.263 -0.1889 -0.2976 -0.3484
15824W        W58741   3.738  27.164  21.223  0.1566 -0.2365 -0.1703
15825W        W58742   1.833  28.153  18.138 -0.1234  0.2775  0.2043
15826W        W58743   2.329  25.859  19.935 -0.0416 -0.1653  0.2709
15827W        W58744   3.242  28.019  19.029  0.2405  0.1565  0.0187
15828W        W58745   4.740  25.998  17.015 -0.1571 -0.1852 -0.0510
15829W        W58746   5.279  25.614  19.504  0.0791  0.2230  0.2056
15830W        W58747   2.713  27.640  17.215 -0.3004 -0.0819 -0.1322
15831W        W58748   2.138  25.101  17.496  0.0036  0.0589  0.0421
15832W        W58749   1.420  25.759  20.582  0.2975  0.1438 -0.1313
15833W        W58750   2.183  28.512  17.777 -0.1959  0.0203 -0.0012
15834W        W58751   1.020  25.208  18.005 -0.1085  0.2122  0.1011
15835W        W58752   3.285  26.422  17.936  0.2834  0.0655 -0.2887
15836W        W58753   1.173  29.253  16.368  0.0119 -0.0397 -0.1565
15837W        W58754   2.844  28.808  16.919 -0.1308  0.2607  0.0634
15838W        W58755   0.880  24.648  18.399 -0.3078 -0.2627  0.1682
15839W        W58756   0.493  25.732  20.721 -0.1901 -0.2189 -0.1473
15840W        W58757   2.706  27.743  18.079 -0.2247  0.0253  0.2353
15841W        W58758   0.138  24.871  18.807 -0.0705 -0.0404  0.0900
15842W        W58759   2.445  27.828  16.751 -0.0788  0.2990 -0.0375
15843W        W58760   3.573  30.549  16.791  0.0510 -0.0240  0.2368
15844W        W58761   4.080  27.476  19.287  0.2626 -0.2373 -0.1785
15845W        W58762   3.008  27.313  19.613  0.0603 -0.0426  0.0168
15846W        W58763   3.840  28.183  18.167 -0.1750  0.2541  0.2397
15847W        W58764   2.116  28.872  17.428 -0.0670  0.1900  0.2189
15848W        W58765   2.957  24.981  18.634 -0.1516 -0.1822  0.2138
15849W        W58766   2.153  26.672  20.102  0.2131  0.0875 -0.0965
15850W        W58767   2.228  28.926  19.533  0.1150  0.0522 -0.2043
15851W        W58768   0.394  28.440  17.731  0.1577 -0.0099  0.0933
15852W        W58769   4.522  26.188  19.258  0.0231  0.0620 -0.0862
15853W        W58770   4.732  27.400  20.969 -0.0267 -0.0013  0.1780
15854W        W58771   3.967  26.890  18.341  0.3261 -0.0234  0.0389
15855W        W58772   4.595  28.110  18.940  0.3035  0.1671 -0.1282
15856W        W58773   1.994  28.323  19.473  0.1590  0.3343 -0.0775
15857W        W58774   1.482  27.352  16.993 -0.0913 -0.0616 -0.1970
15858W        W58775   1.884  28.979  18.603 -0.4656 -0.0296  0.2821
15859W        W58776   4.013  26.999  17.027 -0.1859 -0.0886  0.1983
15860W        W58777   1.915  30.801  19.701  0.1234 -0.0669 -0.0155
15861W        W58778   0.908  27.933  20.420  0.0579  0.2468  0.1107
15862W        W58779   4.061  26.286  21.178 -0.0034  0.1149  0.0808
15863W        W58780   2.868  26.149  17.874  0.2496 -0.0315 -0.1609
15864W        W58781  34.435  24.391  17.409  0.2009  0.1865  0.0450
15865W        W58782   3.066  29.254  16.938 -0.1811 -0.2904 -0.2370
15866W        W58783   0.461  27.862  21.455 -0.1690 -0.1665 -0.0328
15867W        W58784   1.727  27.137  19.638 -0.0304 -0.0092  0.2108
15868W        W58785   0.598  28.632  17.005 -0.1729  0.1747 -0.1280
15869W        W58786   3.349  28.455  18.239  0.1718  0.1226  0.1711
15870W        W58787   2.465  26.595  15.941 -0.0179  0.0600  0.4248
15871W        W58788   2.713  30.303  19.998 -0.1559 -0.1812 -0.0559
15872W        W58789   3.053  29.963  17.723  0.0453  0.0023  0.1003
15873W        W58790   1.028  25.769  18.644  0.3121  0.0415  0.3501
15874W        W58791   0.029  27.900  16.684 -0.0859  0.1680 -0.2530
15875W        W58792   2.870  26.732  17.013 -0.1677  0.1572  0.4161
15876W        W58793   0.028  28.131  18.044  0.2996  0.0244  0.0924
15877W        W58794   3.399  27.332  20.557  0.1856 -0.1732  0.0887
15878W        W58795   3.221  25.968  16.228 -0.3332 -0.2971 -0.2333
15879W        W58796   3.193  27.203  16.361  0.1441  0.0106 -0.0349
15880W        W58797   4.230  26.418  17.111  0.2574 -0.1661 -0.1063
15881W        W58798   2.569  27.551  20.276 -0.0958  0.2799  0.1600
15882W        W58799   2.515  25.840  17.668 -0.0910 -0.0407 -0.1979
15883W        W58800   1.458  26.710  18.009 -0.0543  0.0216  0.1307
15884W        W58801   2.091  27.997  18.501  0.1730 -0.3002  0.0362
15885W        W58802   5.281  26.920  21.724  0.0719  0.1525  0.1991
15886W        W58803   0.405  29.223  18.979 -0.5877 -0.0693 -0.2110
15887W        W58804   4.234  28.568  16.653 -0.0201  0.1439  0.2785
15888W        W58805   0.885  25.268  16.986 -0.0224  0.0256 -0.0425
15889W        W58806   2.612  25.475  18.446  0.0189 -0.0729 -0.0958
15890W        W58807   6.049  26.770  18.904  0.1829 -0.1816 -0.2866
15891W        W58808   2.238  27.571  17.113  0.1770 -0.0830  0.0537
15892W        W58809   2.885  26.968  19.167 -0.1335  0.2029 -0.2590
15893W        W58810   2.634  30.004  17.254 -0.3403 -0.0073 -0.1303
15894W        W58811   1.614  27.372  20.739  0.0247  0.3842 -0.2301
15895W        W58812   0.223  27.709  18.384 -0.1237  0.2292 -0.2865
15896W        W58813   1.794  25.618  18.336 -0.0838 -0.0897 -0.1998
15897W        W58814   4.053  25.949  16.760 -0.2670  0.3283 -0.4235
15898W        W58815   2.844  26.082  19.031  0.2343 -0.1408  0.1980
15899W        W58816   3.814  24.814  19.028 -0.0764  0.0788  0.0850
15900W        W58817   2.589  26.779  17.745  0.2722  0.1258 -0.3599
15901W        W58818   4.170  27.339  17.435  0.0450 -0.0097  0.1849
15902W        W58819   2.628  25.356  18.950 -0.1490 -0.0147 -0.2510
15903W        W58820   2.386  26.317  18.549 -0.3961  0.2459 -0.1596
15904W        W58821   1.841  27.826  17.166  0.3905  0.0918 -0.0600
15905W        W58822   6.868  27.397  18.483  0.1640 -0.0438 -0.0782
15906W        W58823   0.162  27.130  17.175 -0.2743  0.0296 -0.3760
15907W        W58824   2.049  28.690  20.533 -0.3118 -0.0974 -0.1576
15908W        W58825   0.261  27.463  17.561  0.1719  0.0287  0.3284
15909W        W58826   0.975  26.556  17.889  0.0772 -0.0490  0.0337
15910W        W58827   0.988  27.592  17.909  0.2552 -0.0341 -0.0595
15911W        W58828   2.911  25.446  19.393 -0.0346 -0.1779  0.0769
15912W        W58829   2.555  27.318  18.957 -0.2316  0.1991  0.0980
15913W        W58830  33.329  26.002  18.201 -0.3374  0.1507  0.1449
15914W        W58831   3.692  28.168  15.935  0.2047 -0.0769  0.0632
15915W        W58832   3.526  26.791  17.756 -0.2163 -0.2593 -0.2800
15916W        W58833   2.079  29.749  16.260 -0.2491  0.1126  0.1423
15917W        W58834   3.269  27.559  17.236 -0.1676 -0.1489 -0.2669
15918W        W58835   3.002  28.235  19.486  0.1176 -0.0775 -0.1027
15919W        W58836  34.119  26.329  22.305 -0.2321  0.1271  0.0026
15920W        W58837   5.786  28.088  19.007 -0.2046  0.1123 -0.1892
15921W        W58838   2.180  27.845  18.044  0.0981  0.3387 -0.0700
15922W        W58839   2.129  26.301  16.889  0.0750  0.0535 -0.1518
15923W        W58840   1.751  28.091  20.318  0.1330 -0.0256 -0.2294
15924W        W58841   1.642  30.368  17.389  0.0423 -0.1224 -0.1153
15925W        W58842   2.005  25.430  17.896  0.0713 -0.0315  0.0584
15926W        W58843   2.559  25.865  18.781 -0.1746 -0.1262  0.0751
15927W        W58844   2.567  28.564  17.262  0.0692  0.4634 -0.1064
15928W        W58845   4.486  26.066  18.710 -0.3335 -0.4841 -0.0040
15929W        W58846   0.290  27.272  18.080 -0.1404 -0.4285 -0.2020
15930W        W58847   1.560  28.090  19.698  0.1318 -0.0843 -0.6325
15931W        W58848   3.300  27.131  18.775  0.2856 -0.1952  0.0195
15932W        W58849   2.582  26.078  21.048 -0.0780 -0.2195 -0.0214
15933W        W58850   2.281  25.795  18.347 -0.0642  0.0725 -0.1373
15934W        W58851   2.491  28.927  17.793 -0.0193  0.2809  0.2359
15935W        W58852   2.725  29.295  16.589 -0.2416 -0.2765  0.5595
15936W        W58853   1.638  27.700  17.848 -0.2179 -0.1918 -0.1208
15937W        W58854   4.291  28.663  17.203  0.1663  0.1943 -0.1064
15938W        W58855   3.349  25.604  19.642 -0.6095  0.0178 -0.1779
15939W        W58856   3.374  24.784  17.092  0.0391 -0.1290  0.3994
15940W        W58857   2.207  26.539  16.437 -0.0032 -0.3138 -0.1907
15941W        W58858   0.690  28.217  18.829 -0.1111  0.4052 -0.2349
15942W        W58859   0.317  25.742  17.263 -0.0541  0.0805 -0.1055
15943W        W58860   3.007  26.620  18.301  0.0003 -0.0023  0.2388
15944W        W58861   1.570  24.627  19.500  0.0188  0.0161  0.2057
15945W        W58862   0.066  27.332  20.541  0.0029 -0.0886 -0.0147
15946W        W58863   0.873  27.219  20.079  0.0466 -0.3613  0.0250
15947W        W58864   1.041  27.209  18.602  0.0439 -0.2005  0.0913
15948W        W58865   1.410  25.707  17.961  0.0110 -0.1115  0.3682
15949W        W58866   2.967  27.378  16.855  0.2653  0.0124 -0.1992
15950W        W58867   0.774  25.182  17.537 -0.4298 -0.0500  0.2390
15951W        W58868   0.201  25.408  18.735 -0.2046 -0.1433 -0.1011
15952W        W58869   3.003  26.535  17.545  0.3485 -0.0778  0.3022
15953W        W58870   3.345  28.993  16.071 -0.0296  0.2961  0.1670
15954W        W58871   1.348  23.957  18.328 -0.0063 -0.0892  0.0178
15955W        W58872   3.906  28.750  19.182  0.1684 -0.0353  0.0811
15956W        W58873  33.752  26.523  17.681 -0.0509 -0.1490  0.1120
15957W        W58874   2.456  26.247  19.590  0.0469 -0.2384  0.0265
15958W        W58875   0.853  27.090  20.518 -0.0038  0.0954 -0.0442
15959W        W58876   0.405  25.878  18.363  0.2168  0.1409  0.1060
15960W        W58877   5.217  27.195  18.857 -0.1711 -0.1635 -0.0121
15961W        W58878   3.791  27.270  18.816 -0.0365 -0.0273 -0.2370
15962W        W58879   2.700  28.351  16.807 -0.3167 -0.1185  0.0260
15963W        W58880   1.795  27.662  18.291  0.2694  0.0013  0.0797
15964W        W58881   1.719  27.358  19.176  0.0464 -0.0877  0.1148
15965W        W58882   0.736  27.796  19.969 -0.0674  0.3237 -0.0034
15966W        W58883   3.792  27.301  16.238  0.0498 -0.1424  0.1250
15967W        W58884   1.300  28.075  17.970 -0.2370  0.0078 -0.0657
15968W        W58885   3.209  29.488  17.821  0.0860 -0.0336 -0.3037
15969W        W58886   4.439  26.899  18.311  0.1047 -0.0577 -0.2861
15970W        W58887   1.756  26.813  16.488  0.2734 -0.0872 -0.0786
15971W        W58888  34.600  26.007  20.062  0.0125 -0.0306  0.1937
15972W        W58889   3.203  27.373  19.171  0.3401  0.0610 -0.0412
15973W        W58890   5.521  29.412  18.979 -0.0709  0.1952 -0.0639
15974W        W58891   1.479  23.584  19.311 -0.2100  0.2447 -0.1048
15975W        W58892   1.440  27.276  17.984 -0.2185  0.1001  0.0031
15976W        W58893   2.229  28.457  16.888  0.0845 -0.2044  0.0400
15977W        W58894   0.281  28.194  19.143 -0.2562 -0.1078  0.3418
15978W        W58895   2.588  23.189  19.774 -0.3207  0.0823  0.0134
15979W        W58896   2.128  25.381  18.593  0.1876 -0.2328  0.1030
15980W        W58897   1.991  27.177  16.965  0.1744  0.0692  0.1360
15981W        W58898   2.479  27.985  19.441 -0.0904  0.0339 -0.1569
15982W        W58899   1.612  28.430  17.696  0.1219  0.2281 -0.1697
15983W        W58900   4.165  27.251  16.635 -0.0050 -0.0873 -0.0529
15984W        W58901   2.816  27.122  20.042  0.3415 -0.1999  0.1120
15985W        W58902   4.919  27.687  19.277 -0.2094 -0.0452 -0.2058
15986W        W58903   2.396  28.566  18.627  0.0111  0.1270 -0.0906
15987W        W58904   4.486  26.524  18.885  0.0415 -0.0519  0.1049
15988W        W58905   0.529  26.437  19.530  0.0761 -0.0473 -0.1113
15989W        W58906   1.150  27.019  17.224 -0.2386 -0.1296  0.0787
15990W        W58907   1.028  26.216  17.477 -0.1776 -0.0734 -0.3488
15991W        W58908   4.686  26.181  17.434 -0.0459 -0.3301 -0.2850
15992W        W58909  33.843  26.473  20.127 -0.0489  0.3414  0.0194
15993W        W58910   2.754  26.019  18.350  0.3812  0.1532  0.0876
15994W        W58911   0.954  29.251  17.114  0.0597  0.2849 -0.2809
15995W        W58912   1.523  27.408  18.676  0.0516 -0.1656 -0.0175
15996W        W58913   2.453  27.411  23.312  0.1798  0.1511 -0.1955
15997W        W58914   1.511  24.949  19.074  0.2134 -0.2677  0.2068
15998W        W58915   4.848  25.657  20.791  0.2561 -0.2760  0.1796
15999W        W58916   4.256  27.705  19.916  0.1566  0.0135 -0.1991
16000W        W58917  34.202  29.169  21.988  0.2412  0.1502  0.0180
16001W        W58918   1.683  30.379  19.885 -0.1708  0.2963  0.0837
16002W        W58919   1.573  23.974  23.073  0.3225 -0.0418 -0.2163
16003W        W58920   3.204  29.709  22.735  0.0947  0.0203  0.1359
16004W        W58921   3.282  28.642  21.459  0.1966 -0.0636  0.0031
16005W        W58922   3.976  28.502  20.084  0.1402  0.2248 -0.1200
16006W        W58923   2.103  26.156  23.409 -0.1326 -0.3240 -0.1301
16007W        W58924   1.673  26.737  22.063 -0.2035  0.3111 -0.1839
16008W        W58925   2.024  25.208  20.112  0.0391 -0.1554 -0.2695
16009W        W58926  34.179  25.024  21.877  0.1929  0.2533 -0.0924
16010W        W58927   2.538  28.716  23.039  0.1238 -0.1280  0.0123
16011W        W58928   0.627  25.493  19.837  0.0671  0.0852 -0.1580
16012W        W58929   0.927  27.080  24.463  0.1326 -0.0649  0.1185
16013W        W58930   1.536  24.520  20.282  0.0472  0.0635 -0.3309
16014W        W58931   1.906  28.008  21.213  0.1312  0.4722 -0.1656
16015W        W58932   2.559  24.435  22.372  0.2154  0.2621  0.0295
16016W        W58933   1.908  24.132  23.347  0.1323 -0.0437  0.0748
16017W        W58934   3.002  27.841  21.118  0.1210 -0.1870  0.1675
16018W        W58935   0.925  27.853  19.228  0.2423  0.0991 -0.2733
16019W        W58936  34.497  26.780  22.873 -0.0463 -0.4342  0.3168
16020W        W58937   0.207  25.015  22.952  0.2331 -0.2166 -0.0842
16021W        W58938   5.910  27.583  20.348 -0.1146 -0.0502 -0.3361
16022W        W58939   2.152  27.766  23.641 -0.1904  0.0505  0.2825
16023W        W58940   2.181  27.051  21.425 -0.2843 -0.1754 -0.0189
16024W        W58941   2.013  29.819  21.290  0.1682  0.1656 -0.1989
16025W        W58942   3.543  27.693  20.873  0.1437 -0.1446 -0.3746
16026W        W58943   1.266  26.904  20.125  0.2586  0.2663  0.0137
16027W        W58944  33.550  30.362  22.625 -0.0300 -0.1488  0.1497
16028W        W58945   2.728  27.854  22.163 -0.0039  0.0907  0.3887
16029W        W58946   2.629  29.757  21.747 -0.6163  0.2276 -0.0036
16030W        W58947   3.272  30.659  21.753  0.1264 -0.1850  0.1132
16031W        W58948   2.411  28.267  24.386 -0.0582 -0.1444  0.0590
16032W        W58949   0.888  26.664  20.851 -0.1126  0.0331 -0.0066
16033W        W58950   1.647  27.733  22.929  0.3090  0.0064 -0.0708
16034W        W58951   1.205  28.461  22.828 -0.1750  0.2147  0.1798
16035W        W58952   4.577  27.066  22.828 -0.0588  0.1970 -0.1993
16036W        W58953   2.727  26.489  22.148 -0.1257 -0.0444 -0.2537
16037W        W58954   3.218  26.886  20.370 -0.0598  0.0357 -0.0917
16038W        W58955   2.430  26.206  21.534 -0.0083 -0.1434  0.1022
16039W        W58956   1.032  27.497  22.001 -0.0937 -0.0774  0.1038
16040W        W58957   1.294  28.237  21.789  0.3555 -0.2289 -0.1731
16041W        W58958   3.626  24.772  25.525  0.0647 -0.1529 -0.2525
16042W        W58959   2.044  27.219  20.526 -0.0417  0.1934  0.3676
16043W        W58960   5.277  26.928  20.187  0.2738  0.0163  0.3612
16044W        W58961   0.895  26.580  20.360  0.2160  0.0827 -0.1094
16045W        W58962   2.508  25.338  19.805  0.1613 -0.0470  0.1898
16046W        W58963   0.920  25.695  21.802 -0.1449  0.0956  0.2225
16047W        W58964   2.138  27.501  21.138 -0.0251 -0.4772 -0.0108
16048W        W58965   2.244  26.315  22.172  0.2495 -0.1862 -0.0679
16049W        W58966   3.145  29.069  25.130  0.2902 -0.4023 -0.1379
16050W        W58967   4.337  24.745  20.466  0.1381 -0.1477  0.1240
16051W        W58968   0.356  26.532  21.705  0.0622  0.0128 -0.0262
16052W        W58969   1.209  27.916  22.185 -0.1084 -0.4121 -0.1753
16053W        W58970   1.749  27.059  20.166  0.0725  0.0200 -0.1536
16054W        W58971   3.678  26.908  20.452 -0.1596  0.0367 -0.1569
16055W        W58972   3.876  28.556  21.064  0.3281 -0.0613 -0.0404
16056W        W58973   2.781  28.875  18.770 -0.1241 -0.7269  0.0792
16057W        W58974  34.168  25.403  20.097  0.0048  0.1352  0.1161
16058W        W58975   0.363  27.057  24.592  0.0051  0.1635 -0.0418
16059W        W58976   1.454  27.329  24.066  0.1745  0.1193  0.0370
16060W        W58977   0.447  24.203  20.232 -0.0748  0.3217 -0.0270
16061W        W58978   2.847  26.988  25.160 -0.2769  0.0382  0.2220
16062W        W58979  33.999  27.460  23.435 -0.2570  0.1091  0.1710
16063W        W58980   5.703  25.018  20.527 -0.1080  0.3865  0.1463
16064W        W58981   1.414  27.139  21.218 -0.1057 -0.2547  0.1088
16065W        W58982   2.044  31.059  22.993  0.3675  0.0710 -0.0892
16066W        W58983   4.024  27.230  19.704  0.0380 -0.2358 -0.2830
16067W        W58984   3.475  25.603  22.832  0.1437 -0.0025  0.3143
16068W        W58985   1.527  24.736  22.867  0.0196  0.0118 -0.0204
16069W        W58986   0.505  27.399  21.197 -0.3387  0.0221 -0.0503
16070W        W58987   4.324  27.955  19.387 -0.2897 -0.3006 -0.1615
16071W        W58988   3.739  29.471  21.141  0.1051 -0.1111 -0.2661
16072W        W58989   2.446  28.438  19.570 -0.2196  0.1871 -0.3825
16073W        W58990   0.821  29.203  22.873 -0.2437 -0.1855  0.0194
16074W        W58991   1.191  24.587  22.313  0.0280 -0.2875  0.3974
16075W        W58992   1.672  27.169  22.436 -0.0197  0.2374  0.0645
16076W        W58993   1.611  28.801  20.408 -0.0168  0.0012 -0.0160
16077W        W58994   1.789  27.492  23.346  0.0380  0.2686  0.3585
16078W        W58995   0.605  26.607  21.305  0.1812 -0.2935 -0.1924
16079W        W58996   0.719  25.250  21.923 -0.2657 -0.1014 -0.2198
16080W        W58997   0.783  27.826  20.950  0.0946 -0.0066  0.4424
16081W        W58998   3.467  25.687  22.302 -0.0765 -0.1133 -0.3199
16082W        W58999   0.201  25.445  22.698  0.2686  0.2192  0.0794
16083W        W59000   2.900  25.559  19.978  0.2707  0.0014  0.0438
16084W        W59001   0.514  28.306  21.143  0.0528 -0.1190  0.1928
16085W        W59002   4.941  27.807  21.088  0.0517  0.0687  0.0997
16086W        W59003   3.577  25.325  21.137 -0.2211  0.0957 -0.1974
16087W        W59004   2.307  27.858  21.488  0.1306  0.0067 -0.1944
16088W        W59005   0.804  28.681  23.084  0.1602 -0.4118  0.6222
16089W        W59006  33.631  27.699  22.537 -0.0121  0.0270  0.0344
16090W        W59007   1.562  26.403  24.294 -0.0384  0.1682 -0.0128
16091W        W59008   1.251  25.983  22.657 -0.2402  0.2275 -0.0753
16092W        W59009   3.193  28.306  22.906  0.0092  0.0730  0.0836
16093W        W59010   0.521  26.157  20.391 -0.1322 -0.1129 -0.1709
16094W        W59011   4.524  27.455  19.520 -0.2788 -0.2106 -0.0060
16095W        W59012   2.954  26.352  19.863 -0.0216  0.0700 -0.0277
16096W        W59013   0.602  28.704  19.733 -0.0480 -0.2344 -0.1682
16097W        W59014   3.831  25.150  24.090 -0.0328 -0.1576  0.0563
16098W        W59015   1.494  28.340  21.187  0.0873  0.1111 -0.0882
16099W        W59016   1.382  27.555  23.582  0.0479  0.0552 -0.1565
16100W        W59017   0.586  29.065  20.203  0.2057  0.0923 -0.2704
16101W        W59018   1.179  25.116  23.078 -0.1395 -0.1797  0.1822
16102W        W59019   2.882  25.977  19.542  0.1887 -0.0291 -0.4173
16103W        W59020  34.599  27.367  24.610 -0.0507  0.1231 -0.3047
16104W        W59021   1.464  27.819  21.603 -0.0680  0.2994 -0.0727
16105W        W59022   1.168  26.466  21.281  0.2022  0.1437 -0.1697
16106W        W59023   2.602  29.789  24.618  0.1906 -0.2242  0.3815
16107W        W59024   3.693  27.943  21.864 -0.0467  0.0750  0.1828
16108W        W59025  34.372  28.169  23.692  0.1230 -0.2735  0.1815
16109W        W59026   2.268  25.267  21.916  0.0989  0.0388  0.1528
16110W        W59027   2.408  28.610  23.904 -0.3291  0.2704  0.0466
16111W        W59028   5.237  25.939  21.749 -0.1541  0.1210 -0.3851
16112W        W59029   1.282  26.981  20.789 -0.0165  0.2187 -0.2480
16113W        W59030   3.265  28.041  22.212  0.0449  0.0957  0.1245
16114W        W59031   0.722  30.946  20.827 -0.0183 -0.2751 -0.2606
16115W        W59032   0.323  27.764  20.297  0.1844 -0.0966  0.1200
16116W        W59033   1.655  25.330  20.477 -0.1091 -0.0288  0.5651
16117W        W59034   5.091  25.937  20.421 -0.1536  0.0634  0.0087
16118W        W59035   0.881  29.746  24.698  0.1663 -0.1936 -0.2185
16119W        W59036   3.675  25.921  25.532 -0.1742  0.2160 -0.0317
16120W        W59037  34.280  26.277  20.354  0.0218 -0.1287  0.1126
16121W        W59038   2.339  26.921  22.196  0.3998 -0.0493 -0.1733
16122W        W59039   2.395  24.570  21.210 -0.0601  0.0301 -0.0729
16123W        W59040   5.809  25.690  19.065 -0.0182  0.1779 -0.1379
16124W        W59041   2.351  28.327  21.319 -0.0042  0.0466  0.0017
16125W        W59042   3.148  29.575  21.692  0.3359  0.1268 -0.0354
16126W        W59043   2.724  26.000  20.279  0.2998 -0.1127  0.1279
16127W        W59044   2.146  23.111  21.984  0.0262 -0.1046  0.1922
16128W        W59045  34.334  26.138  24.320  0.2308  0.2404 -0.3093
16129W        W59046   2.894  25.976  21.589 -0.0587 -0.0044  0.0164
16130W        W59047   3.891  24.821  21.863  0.0226  0.1145 -0.0543
16131W        W59048   3.175  25.262  20.864  0.0291 -0.0634  0.1209
16132W        W59049   3.244  28.111  20.735  0.1223 -0.2895  0.1633
16133W        W59050   1.482  30.702  20.564 -0.4098 -0.0484 -0.0308
16134W        W59051   2.471  27.010  23.613  0.0271  0.0513 -0.0538
16135W        W59052   2.845  28.420  23.264  0.1977  0.1214  0.0949
16136W        W59053   1.271  26.824  23.223 -0.1008  0.3168 -0.1353
16137W        W59054   0.498  26.708  19.940  0.1199 -0.1875 -0.0291
16138W        W59055   2.572  24.852  22.655  0.0838 -0.0571 -0.0371
16139W        W59056   0.578  29.095  21.628 -0.1470 -0.1547  0.2878
16140W        W59057   2.726  25.259  22.886  0.0082 -0.1976 -0.3410
16141W        W59058   2.778  22.844  24.552 -0.0088 -0.1577  0.1932
16142W        W59059   2.582  25.055  23.769 -0.4182 -0.2351  0.0497
16143W        W59060   3.265  28.636  22.444 -0.0754 -0.1915 -0.0097
16144W        W59061   1.248  27.008  22.714 -0.2438 -0.1033  0.1205
16145W        W59062   1.883  28.230  22.525 -0.3356  0.2053 -0.1567
16146W        W59063   1.112  26.154  20.261 -0.0317  0.2282  0.0068
16147W        W59064   2.932  26.459  22.712  0.1719  0.0516  0.0666
16148W        W59065   2.872  27.438  24.317 -0.0299  0.3158 -0.0677
16149W        W59066   1.173  28.329  23.298 -0.2549  0.2143  0.2140
16150W        W59067   4.443  27.206  23.912  0.2666 -0.0029 -0.0914
16151W        W59068   3.213  28.382  21.849 -0.2361 -0.0029  0.3491
16152W        W59069   2.693  24.397  25.152 -0.1192  0.2491 -0.2133
16153W        W59070   4.555  24.476  20.864 -0.1070  0.0330 -0.2061
16154W        W59071   1.608  27.638  22.112 -0.0691 -0.1217  0.0627
16155W        W59072   2.239  27.242  19.985  0.1719 -0.4912  0.0978
16156W        W59073  34.546  27.703  22.109  0.2842 -0.1848 -0.3413
16157W        W59074   2.331  29.075  22.354  0.0371 -0.2189  0.3600
16158W        W59075   3.322  27.809  17.654 -0.2008  0.1150 -0.1292
16159W        W59076   0.855  27.372  22.622 -0.0714  0.3560 -0.0000
16160W        W59077  34.484  29.023  22.709 -0.0046  0.1634 -0.4888
16161W        W59078   5.486  26.101  22.570 -0.0701  0.4969  0.3135
16162W        W59079   0.604  28.039  23.122 -0.2430 -0.0843  0.1085
16163W        W59080   2.444  26.885  20.413  0.0216  0.2455  0.1331
16164W        W59081  33.928  28.330  23.347  0.1188  0.1158 -0.1218
16165W        W59082   3.909  24.752  22.447 -0.2856 -0.0666 -0.1940
16166W        W59083   5.899  29.613  19.247 -0.1031 -0.1566 -0.0032
16167W        W59084   0.621  25.718  22.778 -0.0863 -0.0861  0.0668
16168W        W59085   2.032  26.172  20.941 -0.2704  0.0836 -0.2141
16169W        W59086  32.469  28.792  23.685  0.3155 -0.0996 -0.1233
16170W        W59087   3.211  25.793  20.906 -0.2984  0.1855  0.0876
16171W        W59088   1.483  26.057  19.605 -0.2663 -0.0820 -0.0997
16172W        W59089   2.032  30.000  23.460 -0.1856  0.2115  0.0009
16173W        W59090   3.078  28.612  23.646 -0.0821 -0.1925  0.1168
16174W        W59091   1.532  26.617  21.029 -0.1476 -0.3628 -0.0087
16175W        W59092   3.565  27.020  22.829  0.1567 -0.3805 -0.0172
16176W        W59093  34.311  27.846  23.204 -0.0021 -0.1377 -0.0381
16177W        W59094  33.893  28.278  21.902  0.0531  0.4064  0.0068
16178W        W59095   1.194  28.420  22.246 -0.3670 -0.1474 -0.3938
16179W        W59096   1.395  27.887  20.611  0.0084  0.1020 -0.2081
16180W        W59097   0.307  27.933  21.939  0.2142  0.0002  0.1235
16181W        W59098   1.231  26.011  24.495 -0.1353 -0.0681  0.0553
16182W        W59099   4.136  27.717  22.088  0.0678  0.0913  0.0184
16183W        W59100  34.527  26.875  21.568 -0.2760  0.1612  0.2718
16184W        W59101   1.691  26.845  19.245 -0.0508 -0.2900 -0.0724
16185W        W59102  33.928  27.413  22.220 -0.3430 -0.0908 -0.2531
16186W        W59103   2.573  28.755  21.960  0.2200 -0.4054 -0.1920
16187W        W59104   4.621  25.391  22.129  0.4983  0.1362  0.1920
16188W        W59105   2.291  27.010  24.119 -0.2485  0.1230  0.0824
16189W        W59106   0.790  25.481  21.379 -0.1457  0.0560 -0.1415
16190W        W59107   5.466  28.614  19.920  0.1633 -0.1457  0.2449
16191W        W59108   2.951  27.847  23.259  0.0814  0.1529 -0.0742
16192W        W59109   1.816  28.273  21.587 -0.1972  0.0702 -0.0642
16193W        W59110  34.049  27.902  22.378  0.1332 -0.0948  0.0512
16194W        W59111   1.972  28.433  20.039  0.0980 -0.5711  0.0200
16195W        W59112   4.686  25.420  21.282  0.1825 -0.0094  0.3431
16196W        W59113   0.985  27.562  21.408 -0.0369 -0.1519  0.1000
16197W        W59114   0.598  30.506  18.430 -0.0233  0.1038  0.1660
16198W        W59115   1.355  27.522  22.584 -0.1809 -0.1799  0.1877
16199W        W59116   2.936  24.745  22.220  0.2843 -0.1028  0.0813
16200W        W59117   3.300  28.030  21.534  0.1395  0.2252 -0.0119
16201W        W59118   1.207  24.998  22.079 -0.1174  0.2279  0.0438
16202W        W59119   3.034  26.137  25.009  0.2861 -0.1537  0.4040
16203W        W59120   2.613  26.739  19.808 -0.0370  0.3360  0.1547
16204W        W59121   4.428  27.106  24.880 -0.0645  0.2830 -0.1052
16205W        W59122   1.472  26.439  24.822 -0.1111 -0.1986  0.0313
16206W        W59123   2.456  27.910  21.023 -0.5108 -0.0541 -0.1756
16207W        W59124   2.058  26.647  22.989  0.1299  0.4155  0.3817
16208W        W59125   2.928  28.986  26.004  0.1384  0.0599 -0.5522
16209W        W59126  34.667  28.138  26.105  0.0495 -0.0063 -0.1140
16210W        W59127   0.387  23.315  21.442  0.1858  0.1164 -0.3193
16211W        W59128   0.138  24.911  20.802 -0.1196  0.1986 -0.0360
16212W        W59129   0.702  26.165  22.625 -0.0098 -0.0339  0.2214
16213W        W59130   3.380  29.223  22.019  0.5540 -0.0742  0.0701
16214W        W59131   3.785  28.242  20.694 -0.1128  0.1819 -0.1057
16215W        W59132   2.872  28.435  22.167  0.2840 -0.3353  0.2658
16216W        W59133   0.196  27.848  24.378  0.3273 -0.2983 -0.0858
16217W        W59134   1.854  25.759  20.785 -0.0086  0.0541 -0.1329
16218W        W59135   4.916  27.288  20.273  0.0369 -0.0355 -0.0105
16219W        W59136   0.850  28.012  21.845 -0.0491 -0.1454  0.1583
16220W        W59137   3.540  25.231  23.178  0.2486 -0.3698  0.0801
16221W        W59138   4.149  27.495  21.071  0.3419 -0.1739 -0.0820
16222W        W59139   2.651  24.559  20.784  0.1914  0.5044  0.0588
16223W        W59140   2.562  25.858  23.366 -0.0811 -0.3307  0.5869
16224W        W59141   2.554  26.977  23.032 -0.2246  0.1152  0.2436
16225W        W59142   2.047  25.905  21.917  0.0493 -0.2886  0.2016
16226W        W59143   1.712  25.886  24.160  0.1380  0.0395 -0.0148
16227W        W59144   4.552  30.655  22.860 -0.1809 -0.0258  0.1663
16228W        W59145   5.426  27.837  21.151  0.3424 -0.0497 -0.5773
16229W        W59146   4.369  28.162  23.415 -0.1069 -0.4082  0.0096
16230W        W59147   1.905  26.680  22.499 -0.0494 -0.0365 -0.1658
16231W        W59148   1.949  26.187  19.884  0.4053 -0.1096  0.0432
16232W        W59149   2.353  26.443  20.757  0.2057  0.2082 -0.1512
16233W        W59150   0.543  29.596  23.148  0.0530 -0.1539  0.2469
16234W        W59151   3.348  26.789  21.373 -0.3501  0.0843  0.0730
16235W        W59152   2.143  24.288  25.742 -0.0157 -0.0806 -0.3270
16236W        W59153   2.766  27.668  19.826  0.0288  0.1799  0.0667
16237W        W59154   3.225  27.410  22.988 -0.0787  0.2629  0.2397
16238W        W59155   2.405  27.464  21.766  0.0361  0.3059 -0.0652
16239W        W59156   0.110  25.418  20.687  0.1317 -0.2618  0.2789
16240W        W59157   2.069  27.917  23.126 -0.0294 -0.0140  0.3242
16241W        W59158   0.642  28.378  20.662 -0.1001 -0.0472 -0.0332
16242W        W59159   2.129  25.378  20.629 -0.1257 -0.1015  0.0162
16243W        W59160   2.782  29.329  20.858 -0.3887 -0.1021  0.1302
16244W        W59161   2.165  28.945  23.622 -0.0744  0.2979 -0.0260
16245W        W59162   0.266  25.882  22.386 -0.0998  0.0956 -0.1315
16246W        W59163   2.359  26.383  23.855  0.2904  0.1087 -0.1965
16247W        W59164   1.887  27.527  21.583 -0.4565  0.1892  0.0754
16248W        W59165   2.822  23.746  23.529  0.2767 -0.1026 -0.1453
16249W        W59166   1.959  27.645  22.517  0.1105 -0.1468  0.0054
16250W        W59167  32.887  28.772  21.819  0.1369 -0.3475  0.2162
16251W        W59168   0.412  26.541  20.792  0.5287  0.1723 -0.1364
16252W        W59169   3.734  25.892  24.293  0.0648  0.0866  0.3188
16253W        W59170   2.659  27.096  22.493  0.1774  0.1942 -0.3075
16254W        W59171   2.962  26.008  22.898  0.3165 -0.1014  0.2016
16255W        W59172   2.612  25.560  24.340  0.0227  0.4769 -0.3612
16256W        W59173   2.851  27.108  23.937 -0.0452  0.0279  0.0018
16257W        W59174   0.657  28.390  25.112  0.2925 -0.1849 -0.2647
16258W        W59175   1.995  29.497  22.129 -0.3238 -0.2126 -0.2185
16259W        W59176   3.331  28.858  20.302  0.0279  0.1864  0.5405
16260W        W59177   3.065  26.993  22.783  0.0919  0.0873  0.4813
16261W        W59178  33.530  25.753  22.695 -0.1495 -0.0956  0.2961
16262W        W59179   2.204  25.862  24.921  0.1944  0.0436  0.0745
16263W        W59180   2.655  27.417  21.274 -0.1623 -0.1413 -0.1072
16264W        W59181   1.095  25.954  21.346 -0.2106  0.2082  0.1472
16265W        W59182   2.809  28.116  21.607 -0.4548 -0.1230 -0.2809
16266W        W59183   2.088  26.331  24.834  0.2683 -0.0516  0.0606
16267W        W59184  33.487  27.107  21.271  0.0149  0.0977  0.1724
16268W        W59185   1.477  30.989  21.103  0.0505  0.2824  0.2157
16269W        W59186   3.015  28.638  19.171 -0.1370 -0.2346  0.1463
16270W        W59187   5.242  26.733  19.370  0.2944 -0.0492 -0.0819
16271W        W59188   0.350  29.353  22.663 -0.3799  0.1107  0.0842
16272W        W59189   5.044  26.728  18.852 -0.2665 -0.2445 -0.2008
16273W        W59190   1.907  27.043  20.983  0.1325 -0.2939  0.0658
16274W        W59191   1.019  29.098  18.900  0.0530 -0.1258  0.1996
16275W        W59192   2.286  28.339  22.840  0.2204 -0.1449 -0.0999
16276W        W59193  34.056  28.193  21.450 -0.1022  0.0575 -0.3090
16277W        W59194   3.004  26.637  23.203 -0.0097 -0.1224 -0.0001
16278W        W59195   2.057  27.504  18.803 -0.0713 -0.1735 -0.1724
16279W        W59196   2.835  25.645  22.556  0.0343 -0.0400 -0.2738
16280W        W59197   3.153  26.813  19.724  0.0255  0.0834 -0.1124
16281W        W59198   3.004  28.765  22.861 -0.1326 -0.0995 -0.1206
16282W        W59199   2.041  26.613  21.136  0.2301  0.0324  0.1461
16283W        W59200   1.499  25.874  20.063  0.1283 -0.0020 -0.0829
16284W        W59201  34.222  24.239  23.747 -0.2458  0.0320 -0.0512
16285W        W59202   3.403  24.758  23.276 -0.1073 -0.1628 -0.0495
16286W        W59203   0.425  27.670  23.669  0.1434 -0.0978  0.0174
16287W        W59204   1.156  28.927  20.178 -0.3087  0.2244 -0.5879
16288W        W59205   1.729  26.151  22.219  0.0967  0.1415  0.1078
16289W        W59206  34.467  25.584  21.449  0.2795  0.2917  0.2638
16290W        W59207   2.194  27.252  25.071 -0.2167  0.0714  0.1167
16291W        W59208   1.538  26.562  22.817  0.0827  0.0850  0.1164
16292W        W59209   0.267  25.789  21.887 -0.0859  0.0579  0.2589
16293W        W59210   1.465  27.239  21.814  0.0331 -0.3409  0.0325
16294W        W59211  34.249  27.236  22.635 -0.2871 -0.0061 -0.0204
16295W        W59212   1.612  28.326  20.716  0.0774 -0.0754  0.1525
16296W        W59213  34.327  25.889  22.327  0.4537  0.0293  0.0119
16297W        W59214   3.167  27.355  21.082  0.1818 -0.1206  0.1679
16298W        W59215   0.846  26.767  22.556  0.0934 -0.0178  0.0343
16299W        W59216   4.213  25.043  23.710  0.0138 -0.2030  0.0018
16300W        W59217   1.993  25.718  20.261  0.0719 -0.1643  0.1058
16301W        W59218   0.618  24.979  21.361 -0.1515  0.1523  0.2106
16302W        W59219   1.046  26.397  22.958 -0.0479 -0.1079  0.1438
16303W        W59220   1.123  26.434  22.380 -0.1959  0.3851 -0.0145
16304W        W59221   1.899  25.731  19.716 -0.1101 -0.0412 -0.4129
16305W        W59222   2.038  27.617  24.110 -0.3015  0.0460 -0.1859
16306W        W59223   4.223  26.371  19.689  0.1175 -0.0444  0.0929
16307W        W59224   2.613  30.646  22.272 -0.2112 -0.3528  0.0202
16308W        W59225  33.883  23.347  21.393 -0.0090 -0.1500 -0.0645
16309W        W59226   3.580  27.316  19.475  0.2690 -0.0946  0.1722
16310W        W59227   2.042  26.794  23.735  0.2704  0.1594  0.2813
16311W        W59228   2.325  28.231  21.793 -0.0414 -0.0108  0.0955
16312W        W59229   3.305  27.530  24.752  0.2256  0.1127 -0.1042
16313W        W59230   0.011  26.395  19.736 -0.2932  0.1705 -0.3112
16314W        W59231   4.038  28.285  19.054 -0.2564  0.0852 -0.1048
16315W        W59232   3.003  26.912  22.209 -0.3621 -0.0334  0.1665
16316W        W59233   1.661  27.578  19.793  0.1114 -0.1793  0.1841
16317W        W59234   2.881  29.144  23.122 -0.0929  0.2548  0.0338
16318W        W59235   3.970  29.752  22.218 -0.0726  0.1083 -0.2175
16319W        W59236   0.745  26.882  23.133 -0.2521  0.0389  0.3050
16320W        W59237   1.711  27.969  24.898  0.1811  0.1274 -0.2623
16321W        W59238   3.063  28.888  21.838 -0.0445 -0.2838 -0.3019
16322W        W59239   1.526  25.935  21.788  0.1744 -0.3668  0.0073
16323W        W59240  34.075  26.754  21.848  0.2506  0.1083 -0.0897
16324W        W59241  33.520  29.848  21.784 -0.0688  0.6254  0.0383
16325W        W59242   3.346  26.954  20.888  0.0747 -0.1162  0.1572
16326W        W59243   2.995  25.639  22.037  0.0911 -0.3801 -0.4180
16327W        W59244   3.494  28.375  19.190  0.0747 -0.0353  0.1597
16328W        W59245   3.163  23.976  24.389 -0.3540  0.0319 -0.1946
16329W        W59246   0.937  27.077  21.163  0.0551 -0.1183 -0.0891
16330W        W59247   1.281  30.258  22.109  0.1210 -0.1997 -0.0469
16331W        W59248   0.149  28.567  20.889 -0.0801 -0.1146 -0.0329
16332W        W59249   2.162  27.098  22.639  0.2829 -0.0105  0.1246
16333W        W59250   0.795  26.711  22.016  0.4579  0.2003 -0.3700
16334W        W59251   1.179  27.050  22.179  0.0683  0.0680  0.0885
16335W        W59252   1.665  28.648  22.013 -0.0770  0.0164 -0.1485
16336W        W59253   2.210  24.908  20.946 -0.0382 -0.2401  0.1918
16337W        W59254   2.967  29.059  21.357  0.1028 -0.2448 -0.3654
16338W        W59255   1.724  27.066  22.926  0.1687  0.2392 -0.1713
16339W        W59256   2.495  26.705  19.280  0.0715  0.0369  0.1440
16340W        W59257   2.923  26.115  20.678  0.2314 -0.2980  0.0930
16341W        W59258   1.612  28.644  22.472  0.0208 -0.0985  0.0726
16342W        W59259   1.456  29.087  17.936 -0.2036  0.3030 -0.0711
16343W        W59260   1.100  28.648  21.228  0.2150  0.1061 -0.0607
16344W        W59261  32.861  26.577  20.226 -0.2082  0.0848  0.0193
16345W        W59262   4.310  24.928  22.740 -0.2939  0.2475  0.0546
16346W        W59263   2.481  27.466  23.895 -0.0294 -0.2720  0.1742
16347W        W59264  32.702  26.017  21.019 -0.2145 -0.2734  0.0592
16348W        W59265   0.059  26.547  20.273 -0.3021  0.1274 -0.0094
16349W        W59266   4.236  27.869  21.600 -0.2486  0.0511 -0.0358
16350W        W59267  33.956  24.522  21.498 -0.0523  0.4159  0.5020
16351W        W59268   0.085  26.457  23.303  0.2099  0.2147 -0.1418
16352W        W59269   2.675  29.297  21.882  0.0628  0.0144  0.0567
16353W        W59270   3.374  29.295  20.752 -0.1049 -0.0150  0.1487
16354W        W59271   0.875  27.129  21.695  0.3633 -0.2085 -0.5486
16355W        W59272   3.586  30.442  23.410 -0.0866 -0.1039  0.1136
16356W        W59273   0.872  26.960  19.551 -0.1388 -0.1294  0.0441
16357W        W59274   1.089  26.062  23.328 -0.1448  0.1649 -0.1211
16358W        W59275   0.611  24.923  23.427 -0.3081 -0.0441 -0.1128
16359W        W59276  33.888  24.518  20.626 -0.0713  0.1840 -0.2279
16360W        W59277   0.948  26.391  21.738 -0.1686 -0.0832  0.1790
16361W        W59278   2.936  27.649  21.677 -0.2641 -0.2913  0.1220
16362W        W59279   1.984  28.682  21.046  0.0778  0.0850  0.0103
16363W        W59280   1.630  26.072  22.955 -0.2401  0.2043  0.3544
16364W        W59281   2.067  27.090  23.309  0.1302 -0.2445  0.0293
16365W        W59282  32.907  24.483  24.166 -0.1892 -0.1312  0.1621
16366W        W59283   1.976  27.267  21.990 -0.2765  0.1377 -0.0761
16367W        W59284   0.986  27.918  23.637 -0.0468 -0.1225  0.3423
16368W        W59285   1.922  27.543  20.196  0.1280 -0.1118 -0.1163
16369W        W59286   3.479  26.107  22.633  0.3349 -0.0434 -0.0962
16370W        W59287   2.797  25.259  21.741 -0.2474  0.1508  0.0270
16371W        W59288   1.513  23.400  23.264  0.2325 -0.1759 -0.1713
16372W        W59289   1.926  24.555  21.436  0.0698  0.0999  0.0664
16373W        W59290   2.871  30.549  22.700  0.3016 -0.1369 -0.0858
16374W        W59291   2.004  25.887  21.371  0.0126 -0.1409  0.3808
16375W        W59292   3.021  26.403  19.329 -0.2999 -0.1409  0.0377
16376W        W59293   2.886  26.971  21.227  0.0648  0.0143 -0.0746
16377W        W59294  34.638  27.690  23.744  0.2599  0.1005  0.0889
16378W        W59295   0.037  24.427  20.464 -0.1511 -0.1627 -0.0906
16379W        W59296   1.304  29.249  24.873 -0.0797  0.0619 -0.0902
16380W        W59297   0.580  26.173  21.991 -0.0077 -0.1594  0.0137
16381W        W59298   1.716  29.281  22.873  0.2307  0.2431 -0.1771
16382W        W59299   1.382  26.361  21.965 -0.0824 -0.0280  0.1919
16383W        W59300   2.711  27.435  22.923 -0.0371  0.0509  0.1967
16384W        W59301   2.024  29.632  23.075  0.3002  0.2417 -0.1334
16385W        W59302   3.158  28.002  25.039 -0.1573  0.0806 -0.2918
16386W        W59303  34.285  28.582  21.777 -0.0064  0.0288 -0.3421
16387W        W59304   3.103  27.155  21.801 -0.0221 -0.0725  0.0337
16388W        W59305   2.583  24.893  23.217 -0.0024  0.0979 -0.0913
16389W        W59306   0.088  27.193  21.095 -0.0730 -0.1756 -0.0650
16390W        W59307  34.658  26.052  21.522 -0.1771  0.0584 -0.0675
16391W        W59308   2.937  27.420  22.205  0.0952 -0.0905  0.0963
16392W        W59309  33.546  24.866  21.327  0.0052  0.0232 -0.2637
16393W        W59310   3.094  24.229  20.749  0.0009 -0.6935  0.0725
16394W        W59311   1.177  28.035  24.164 -0.0381 -0.2199  0.0182
16395W        W59312   2.114  28.580  22.214  0.1030 -0.1622 -0.0258
16396W        W59313   2.160  27.341  25.646 -0.0205 -0.2033  0.0966
16397W        W59314   1.944  26.858  25.537  0.0338  0.0531 -0.1246
16398W        W59315   2.743  26.924  24.400  0.1995 -0.1258 -0.0487
16399W        W59316   3.592  27.425  25.767  0.1729  0.2332  0.0129
16400W        W59317  33.530  25.661  26.952  0.3036 -0.0914 -0.0874
16401W        W59318   3.758  27.981  26.559 -0.0263 -0.1413  0.2162
16402W        W59319   2.041  26.507  26.408 -0.0614 -0.1418 -0.0638
16403W        W59320   4.765  27.622  27.349 -0.3150 -0.0161  0.4808
16404W        W59321   4.445  27.864  25.628 -0.0599  0.1340  0.4038
16405W        W59322   2.930  27.583  23.684  0.1937  0.4322  0.2605
16406W        W59323   1.290  27.474  25.171 -0.1314  0.1538 -0.2545
16407W        W59324   1.403  29.479  26.914 -0.0934 -0.0952 -0.1565
16408W        W59325   3.576  24.232  25.729 -0.1760 -0.2236 -0.1830
16409W        W59326   0.975  25.513  23.504 -0.0342  0.0677 -0.2006
16410W        W59327   1.669  27.913  28.412  0.1064 -0.4754  0.0484
16411W        W59328   0.289  26.567  24.476 -0.0567  0.2422 -0.2806
16412W        W59329   1.051  25.427  26.499  0.0599 -0.2737  0.0095
16413W        W59330   1.061  27.058  23.648  0.3957 -0.1423  0.0263
16414W        W59331   1.379  27.266  24.691 -0.0741 -0.0571  0.0938
16415W        W59332   3.730  24.958  26.229  0.3103 -0.0822  0.2055
16416W        W59333   2.937  26.228  26.973  0.0412  0.0753 -0.0743
16417W        W59334   1.857  27.276  24.493  0.3209  0.0662 -0.0101
16418W        W59335   1.742  25.658  25.618 -0.4023  0.2081  0.1710
16419W        W59336   0.714  28.244  26.894 -0.0653 -0.0478  0.2883
16420W        W59337   1.532  26.613  26.812  0.3900 -0.2953 -0.0503
16421W        W59338   4.505  26.602  25.582  0.0434  0.0389 -0.2191
16422W        W59339   2.414  28.231  26.639 -0.0272 -0.0956 -0.0115
16423W        W59340   0.907  26.813  25.790  0.1091  0.0492 -0.0544
16424W        W59341   3.822  30.635  25.205 -0.0376  0.3010  0.2552
16425W        W59342   5.014  28.525  28.073  0.1036  0.2239  0.1838
16426W        W59343   0.336  27.259  26.596 -0.2136  0.0518 -0.1616
16427W        W59344   0.371  31.373  26.700  0.0238 -0.0089  0.1813
16428W        W59345   2.228  26.131  25.407 -0.0204  0.3201 -0.5017
16429W        W59346   4.751  27.576  22.750 -0.3019 -0.2040  0.2452
16430W        W59347   3.370  28.678  25.972  0.1885 -0.2840 -0.0764
16431W        W59348   2.116  30.036  27.255 -0.2464  0.1643 -0.0583
16432W        W59349   1.750  29.164  23.407  0.2799  0.2542  0.0028
16433W        W59350   3.266  29.274  26.252  0.0598 -0.1870  0.0437
16434W        W59351   1.394  27.752  27.488  0.1486  0.0461  0.2542
16435W        W59352   2.511  26.905  25.592 -0.0759  0.0138  0.0589
16436W        W59353   0.773  27.865  24.577 -0.0061  0.0016  0.4181
16437W        W59354   2.509  24.565  23.832  0.1292 -0.0706  0.3360
16438W        W59355   0.811  27.809  25.095  0.1078 -0.0415  0.0261
16439W        W59356   1.122  26.440  27.572  0.0837  0.2462  0.2696
16440W        W59357   0.610  26.853  25.053 -0.0876 -0.1391 -0.0480
16441W        W59358   1.358  25.439  28.191 -0.0318  0.0300  0.1590
16442W        W59359   1.629  27.866  23.937 -0.1133 -0.2366 -0.1156
16443W        W59360   2.096  25.006  24.692 -0.1479 -0.1086 -0.0592
16444W        W59361   3.454  25.715  23.428 -0.2559  0.1354  0.0518
16445W        W59362   3.080  28.738  26.418 -0.0326  0.2029  0.0118
16446W        W59363   3.105  27.190  25.648  0.0249 -0.0886  0.1119
16447W        W59364   1.969  28.171  25.320 -0.2337 -0.3858 -0.1326
16448W        W59365   1.362  27.083  25.512 -0.0878 -0.0314 -0.1616
16449W        W59366   2.147  30.372  27.701 -0.2810  0.4865  0.1417
16450W        W59367   1.070  26.499  24.488  0.3047 -0.2871  0.1927
16451W        W59368   3.066  25.764  27.322  0.1733 -0.0567  0.0322
16452W        W59369   0.954  28.182  28.816  0.1017  0.2908 -0.3916
16453W        W59370  34.395  25.609  26.469 -0.1775 -0.0645  0.0173
16454W        W59371   3.291  27.087  24.350  0.2633  0.2478  0.0084
16455W        W59372   3.484  28.772  25.398  0.1361  0.0709 -0.3310
16456W        W59373   1.999  27.294  23.752  0.0351  0.1732  0.5735
16457W        W59374   0.009  27.258  25.094 -0.1449  0.3913 -0.1826
16458W        W59375   0.563  27.256  27.138  0.1542 -0.1772 -0.1458
16459W        W59376  33.713  26.572  26.606 -0.1284 -0.2278 -0.2894
16460W        W59377   1.156  27.699  25.685  0.0010 -0.2422  0.0826
16461W        W59378   4.163  27.989  28.760 -0.1908  0.1996 -0.1375
16462W        W59379  34.135  28.495  26.435  0.2414  0.1632 -0.2676
16463W        W59380   4.714  26.408  25.146 -0.1455  0.0130  0.0481
16464W        W59381   2.245  26.724  25.141 -0.0084 -0.2866 -0.0676
16465W        W59382   2.075  28.602  26.898 -0.0547 -0.4836  0.0202
16466W        W59383   3.292  26.539  23.694  0.1483 -0.0076  0.1315
16467W        W59384   2.928  24.575  26.023  0.0277  0.0162 -0.2153
16468W        W59385   3.163  27.451  26.038 -0.1146 -0.0777 -0.1778
16469W        W59386  34.189  25.631  24.518 -0.2313  0.1430  0.2684
16470W        W59387   2.924  28.335  24.707  0.1167 -0.1949  0.0446
16471W        W59388   3.090  28.949  27.306  0.3070  0.2844  0.3750
16472W        W59389   3.851  28.838  24.488 -0.3121 -0.0258  0.0104
16473W        W59390   0.111  27.038  28.099  0.2181  0.0359  0.1366
16474W        W59391   2.846  25.881  26.485 -0.3403  0.0927  0.0064
16475W        W59392   3.416  28.006  27.499  0.1466  0.1763 -0.1249
16476W        W59393  34.065  28.552  24.732 -0.2851 -0.0798 -0.1042
16477W        W59394   2.473  27.673  27.293 -0.0038 -0.2383  0.2403
16478W        W59395   0.662  26.414  24.922  0.0344 -0.0142 -0.1456
16479W        W59396  32.902  25.749  27.080 -0.1907 -0.0550  0.3390
16480W        W59397   1.192  29.884  26.712 -0.1431  0.1475  0.2346
16481W        W59398   4.367  27.559  23.027  0.4677  0.2573 -0.2399
16482W        W59399   1.147  23.410  27.402 -0.1927 -0.0184  0.0795
16483W        W59400   5.062  27.009  24.732  0.1362  0.0231  0.0621
16484W        W59401   1.671  28.442  25.014 -0.1555  0.0575 -0.0557
16485W        W59402   3.116  28.203  25.585  0.0647 -0.0639  0.1876
16486W        W59403   3.655  26.456  25.532  0.1477  0.2158  0.0905
16487W        W59404   3.440  26.180  24.539  0.0877 -0.0165 -0.0002
16488W        W59405  34.391  26.582  26.229  0.0322 -0.4449  0.2913
16489W        W59406   1.745  26.604  25.996  0.1398  0.1768 -0.0608
16490W        W59407   1.643  24.740  26.772  0.1704  0.1943  0.3061
16491W        W59408  33.782  24.892  26.889 -0.4670  0.2807 -0.5400
16492W        W59409   2.493  27.210  27.453 -0.0809 -0.0658  0.1026
16493W        W59410   1.104  25.042  26.001  0.1907  0.2899 -0.4908
16494W        W59411   3.334  26.910  27.679  0.1508 -0.1177 -0.2437
16495W        W59412   2.727  26.317  25.866  0.0207 -0.2093 -0.0169
16496W        W59413  34.639  27.701  26.420  0.1996 -0.2280 -0.2400
16497W        W59414   3.677  28.392  26.886  0.0931  0.1105  0.0150
16498W        W59415   3.472  29.810  24.772 -0.1577  0.2272  0.1448
16499W        W59416   2.319  29.310  27.920 -0.0394 -0.1325  0.0117
16500W        W59417   2.139  29.897  24.819  0.0941  0.2314 -0.1063
16501W        W59418   2.906  26.943  26.772  0.0175  0.2001  0.1172
16502W        W59419   0.639  27.458  24.359 -0.0000  0.2553  0.0248
16503W        W59420   1.701  29.066  26.775 -0.2594  0.0835  0.2748
16504W        W59421   2.357  27.752  26.526  0.2580 -0.1723  0.1640
16505W        W59422   3.212  24.476  25.513  0.2966  0.0192  0.1924
16506W        W59423   3.610  27.305  27.595  0.1712  0.1787  0.0829
16507W        W59424   1.053  28.526  24.286 -0.4182 -0.1622 -0.1134
16508W        W59425  33.600  28.581  27.285 -0.0857 -0.4325 -0.1177
16509W        W59426   3.933  25.976  27.133  0.3944 -0.3520 -0.2707
16510W        W59427   2.630  28.088  28.105 -0.1951  0.1222 -0.1279
16511W        W59428   2.466  29.031  25.790 -0.1152  0.2322  0.2305
16512W        W59429   0.107  24.915  23.469  0.0465  0.1423  0.0654
16513W        W59430   3.307  30.423  24.772  0.5308  0.1211  0.0472
16514W        W59431   1.187  26.313  26.050  0.3176 -0.1492  0.0771
16515W        W59432   3.501  26.126  25.088  0.1705 -0.0494 -0.0049
16516W        W59433   3.078  27.489  25.249  0.0813 -0.4195 -0.0118
16517W        W59434   3.159  28.505  26.876 -0.0288  0.0457 -0.2741
16518W        W59435   1.100  28.113  27.244 -0.0021  0.2846 -0.0673
16519W        W59436   3.278  26.341  25.940 -0.0411 -0.2807  0.2523
16520W        W59437   1.330  25.843  23.718  0.2001 -0.0736  0.2203
16521W        W59438   1.232  28.313  26.722 -0.0032 -0.0596 -0.0453
16522W        W59439   2.280  23.678  26.433  0.1210 -0.0819 -0.1808
16523W        W59440   1.971  25.692  23.045  0.2002  0.1999 -0.0082
16524W        W59441   0.429  28.336  26.082 -0.1863 -0.1537 -0.1411
16525W        W59442   4.322  26.679  25.077 -0.2303 -0.0828  0.2056
16526W        W59443   3.918  27.295  27.076  0.2967 -0.2043 -0.0285
16527W        W59444   2.041  25.307  23.296  0.0557 -0.0528  0.2649
16528W        W59445  34.553  28.118  28.378 -0.4053 -0.4665 -0.1107
16529W        W59446   0.361  28.858  27.387 -0.0092 -0.0706 -0.2422
16530W        W59447   1.359  29.957  26.184 -0.0113 -0.0774  0.1169
16531W        W59448   3.029  26.075  22.378  0.0706  0.0853 -0.0620
16532W        W59449   3.505  26.691  24.585  0.1061 -0.2402  0.0873
16533W        W59450   2.120  26.918  25.996  0.2968  0.1294 -0.0044
16534W        W59451   2.627  28.647  26.181  0.0619 -0.1135 -0.3285
16535W        W59452   2.988  28.662  25.661  0.1872  0.2262 -0.2659
16536W        W59453   2.452  24.706  24.880  0.1413  0.2612 -0.0999
16537W        W59454   3.150  25.773  24.377  0.0097 -0.2736 -0.0442
16538W        W59455   3.598  26.627  26.486 -0.0466  0.0911  0.0163
16539W        W59456   1.177  28.878  23.402  0.1386  0.0494  0.4591
16540W        W59457   3.276  27.236  28.154  0.0508  0.5395  0.0540
16541W        W59458   3.307  26.631  26.910  0.0378 -0.0162 -0.0341
16542W        W59459   2.106  24.922  26.959  0.0311  0.5041  0.1686
16543W        W59460   1.741  26.273  28.046  0.3052 -0.0274  0.2765
16544W        W59461   2.085  25.643  24.461 -0.1246 -0.0629  0.0997
16545W        W59462   2.275  26.973  26.502  0.2523 -0.1451  0.0614
16546W        W59463   0.952  27.825  22.782 -0.0888  0.2669 -0.0230
16547W        W59464   2.551  26.727  26.126  0.0814 -0.0355  0.1290
16548W        W59465   1.575  25.822  26.293 -0.1448  0.0502 -0.0371
16549W        W59466  34.018  30.571  25.482  0.0668  0.3327  0.0918
16550W        W59467   2.586  28.999  28.277 -0.3331  0.1586  0.3010
16551W        W59468   3.028  28.318  26.037  0.1156 -0.3224 -0.1542
16552W        W59469   2.513  26.944  27.050 -0.0604  0.1345 -0.1339
16553W        W59470   1.480  25.354  25.924  0.1355  0.5574  0.0297
16554W        W59471   0.608  26.337  25.643 -0.2551  0.1054  0.1856
16555W        W59472   2.349  28.115  22.333  0.0627 -0.1844  0.0217
16556W        W59473  34.596  25.507  27.672  0.1182  0.4624 -0.1582
16557W        W59474   0.825  26.001  26.047 -0.0069  0.0860  0.1460
16558W        W59475   1.550  30.170  23.364  0.4002 -0.3008 -0.2003
16559W        W59476   1.498  29.951  25.648  0.0234 -0.1002 -0.0884
16560W        W59477   2.531  27.244  26.071  0.0334  0.2242  0.2612
16561W        W59478   2.901  25.853  25.985  0.6760  0.0915  0.1907
16562W        W59479   0.698  26.514  26.107  0.1226  0.0468 -0.1062
16563W        W59480   1.249  26.828  24.188 -0.0683 -0.3138 -0.1168
16564W        W59481   0.581  24.113  25.643  0.3606  0.2060  0.0356
16565W        W59482   4.305  25.275  25.130 -0.0196  0.1252  0.1269
16566W        W59483   2.575  26.130  22.536  0.2625  0.2543  0.0998
16567W        W59484  34.524  23.468  26.498  0.2369  0.3076 -0.2279
16568W        W59485   2.388  25.765  25.903 -0.0219 -0.2152  0.1172
16569W        W59486   0.447  28.908  28.590 -0.3514 -0.0696  0.5798
16570W        W59487   2.233  27.361  26.834 -0.2525 -0.0085  0.3863
16571W        W59488   4.864  25.936  22.127 -0.0940 -0.4150  0.2884
16572W        W59489   1.783  29.701  27.407  0.1683 -0.0467  0.0280
16573W        W59490  33.873  25.611  26.521 -0.0611 -0.0753  0.0804
16574W        W59491   0.759  26.001  25.338 -0.0369  0.2691  0.0489
16575W        W59492   4.832  28.343  27.573 -0.1643 -0.3022  0.1446
16576W        W59493   3.918  26.363  24.540 -0.3784 -0.1057 -0.2758
16577W        W59494   0.224  26.408  25.128 -0.5352 -0.0277 -0.3364
16578W        W59495   2.602  30.301  25.459  0.1568 -0.0685  0.0164
16579W        W59496   3.996  28.287  27.352  0.2058 -0.0603 -0.3059
16580W        W59497  34.151  28.195  25.082  0.0844 -0.0179 -0.3523
16581W        W59498   0.627  24.545  27.158  0.0363 -0.1739  0.3068
16582W        W59499   4.567  28.590  28.319 -0.0416  0.2957  0.0467
16583W        W59500   2.953  27.027  26.243 -0.0399 -0.0744 -0.1102
16584W        W59501   2.293  26.856  24.627  0.1514 -0.1127  0.2674
16585W        W59502   2.882  25.223  26.724 -0.0422  0.2953  0.0310
16586W        W59503   3.855  28.561  26.042 -0.4907 -0.2487 -0.1932
16587W        W59504   0.433  28.226  28.433  0.1729  0.1486  0.1266
16588W        W59505   0.114  28.241  28.806 -0.0381  0.3140 -0.4722
16589W        W59506   1.592  25.332  27.748 -0.0515  0.0194 -0.1865
16590W        W59507   4.499  29.434  24.938 -0.2429 -0.0303  0.0743
16591W        W59508   1.471  27.366  26.313  0.0110  0.0836  0.1521
16592W        W59509   1.507  28.415  24.554 -0.0636  0.1269 -0.1468
16593W        W59510  34.477  27.111  26.441  0.1979  0.0404 -0.0513
16594W        W59511   0.992  25.613  24.051  0.0130  0.0922  0.4489
16595W        W59512   1.938  25.874  27.162  0.1212 -0.2199 -0.1130
16596W        W59513   1.422  28.574  26.018 -0.2188  0.2159  0.2465
16597W        W59514   0.014  25.535  25.544  0.1637 -0.4470 -0.0125
16598W        W59515   0.299  28.444  27.023  0.3311 -0.1740  0.0617
16599W        W59516   5.747  26.863  24.739  0.1524 -0.2820 -0.2045
16600W        W59517   1.978  27.975  26.344 -0.0359 -0.0544  0.0674
16601W        W59518   1.916  25.144  25.578  0.0104 -0.2156 -0.2279
16602W        W59519   4.129  27.704  28.155 -0.0469 -0.0231  0.1894
16603W        W59520   3.331  28.419  24.054 -0.0948 -0.3558 -0.0244
16604W        W59521   0.754  24.993  27.444 -0.0612 -0.4130 -0.4405
16605W        W59522   1.531  24.470  27.485  0.1052 -0.0767 -0.0491
16606W        W59523   3.244  27.981  24.457 -0.2102  0.0175 -0.0780
16607W        W59524   0.072  25.497  27.152 -0.3460  0.0605 -0.0565
16608W        W59525   1.690  28.997  26.242 -0.1334  0.2699  0.0429
16609W        W59526   3.190  24.942  26.365  0.3123 -0.0539 -0.0103
16610W        W59527   4.019  24.675  25.221 -0.0520 -0.2310 -0.1566
16611W        W59528   2.202  26.483  25.751 -0.1293 -0.0204  0.4670
16612W        W59529   1.670  27.466  25.484 -0.1126 -0.1234 -0.1590
16613W        W59530   5.092  28.012  27.272  0.1328  0.2356 -0.3232
16614W        W59531   1.786  29.342  23.905 -0.0841 -0.1265  0.0731
16615W        W59532   4.992  27.660  26.509  0.1251 -0.2599 -0.0364
16616W        W59533   0.216  26.323  26.151  0.1195  0.1629 -0.0989
16617W        W59534   3.111  27.637  26.565 -0.0244 -0.1412  0.1872
16618W        W59535   1.660  25.209  24.610  0.1017 -0.0315  0.0669
16619W        W59536   1.975  28.277  25.871  0.0192  0.0319 -0.1811
16620W        W59537  34.514  24.611  27.454 -0.3001  0.2337 -0.1954
16621W        W59538   3.355  27.567  27.186 -0.0675 -0.1169  0.4267
16622W        W59539   3.198  25.604  26.667 -0.0334  0.0606  0.1352
16623W        W59540   3.388  26.737  28.230  0.0088 -0.2100  0.0026
16624W        W59541   3.129  28.204  27.824  0.0305 -0.0318  0.0502
16625W        W59542   2.112  27.999  28.213 -0.2065  0.0574  0.0310
16626W        W59543   0.060  24.398  26.561 -0.1535  0.2639 -0.1611
16627W        W59544   3.682  29.617  27.542 -0.1745  0.0935 -0.3061
16628W        W59545   4.123  27.151  22.836  0.0009 -0.2342 -0.1476
16629W        W59546   3.887  25.374  25.979  0.1363  0.3450 -0.0865
16630W        W59547   4.018  28.349  25.163  0.0040 -0.0168  0.3266
16631W        W59548   2.778  25.754  24.806  0.1935  0.0371  0.0229
16632W        W59549   0.310  26.856  25.864  0.1731 -0.2094 -0.1116
16633W        W59550   3.522  26.032  27.419  0.0936  0.1641 -0.3465
16634W        W59551   2.374  24.624  24.325  0.4181 -0.4106  0.1513
16635W        W59552   5.366  27.209  26.512 -0.0298 -0.1311  0.1844
16636W        W59553   2.669  29.405  25.475  0.5278  0.0607 -0.1043
16637W        W59554   1.516  28.792  28.247 -0.1243 -0.0389 -0.2275
16638W        W59555   3.906  28.077  23.625 -0.2972  0.1595 -0.0128
16639W        W59556   1.349  26.585  25.621 -0.0810  0.0656  0.0440
16640W        W59557   1.316  27.757  26.787  0.0984 -0.0532  0.3270
16641W        W59558   1.302  26.149  25.226  0.0704 -0.1348 -0.0130
16642W        W59559   1.404  25.576  24.363 -0.1737 -0.0094 -0.3940
16643W        W59560   2.146  27.647  28.638 -0.1872 -0.0926 -0.1212
16644W        W59561   2.835  28.577  28.145 -0.3690  0.2215 -0.2681
16645W        W59562   1.131  26.211  24.042 -0.0165 -0.2641  0.1581
16646W        W59563   4.299  27.855  27.722 -0.1739 -0.1329  0.0637
16647W        W59564   0.472  28.010  27.301  0.3959  0.2785  0.3343
16648W        W59565   2.425  26.193  26.217 -0.1101  0.3583 -0.0607
16649W        W59566   1.513  28.086  26.246 -0.1244 -0.0577 -0.1157
16650W        W59567  34.166  28.088  26.078 -0.0647  0.3787  0.2722
16651W        W59568   0.433  28.084  26.503  0.4611  0.3618 -0.0147
16652W        W59569   1.239  24.947  26.540  0.1381 -0.0418  0.2650
16653W        W59570   4.031  24.528  27.312  0.0930  0.2125  0.2200
16654W        W59571   2.221  27.713  27.757 -0.3293 -0.0070  0.1627
16655W        W59572   5.315  27.568  27.425  0.1513  0.0652  0.2997
16656W        W59573   1.717  27.367  28.595 -0.3291 -0.0628 -0.2012
16657W        W59574   2.290  27.677  26.053 -0.0744 -0.1947  0.1533
16658W        W59575   2.348  29.522  25.870 -0.0539 -0.0268  0.1581
16659W        W59576   2.910  30.238  26.124 -0.0079  0.0963 -0.1084
16660W        W59577   0.567  27.639  26.833  0.3467  0.1051 -0.3396
16661W        W59578  34.450  26.021  27.907  0.0127  0.1563  0.0471
16662W        W59579   2.702  27.885  26.845 -0.0765  0.2562  0.1514
16663W        W59580   3.487  28.338  26.322  0.1001 -0.2364  0.0285
16664W        W59581   3.228  26.610  25.232 -0.1574  0.2388  0.1072
16665W        W59582   1.769  26.001  24.646  0.1589  0.2134  0.1351
16666W        W59583   1.268  29.610  27.654  0.0294 -0.5010 -0.2415
16667W        W59584   0.115  26.458  26.664 -0.1726 -0.0342  0.2327
16668W        W59585   0.837  29.440  22.406  0.2526 -0.1007  0.0394
16669W        W59586   2.439  28.035  23.952 -0.3950  0.0501  0.3552
16670W        W59587   2.933  25.524  23.657  0.1002  0.0657  0.4246
16671W        W59588   2.391  29.418  26.783 -0.1262  0.0877  0.0290
16672W        W59589   4.131  26.774  24.083 -0.3399  0.0890  0.1393
16673W        W59590   0.493  30.851  26.884  0.0314  0.0082  0.0121
16674W        W59591   0.862  25.819  24.857  0.3151  0.0824 -0.2903
16675W        W59592   3.428  28.799  23.374  0.0825 -0.0254  0.0650
16676W        W59593   1.133  28.679  25.568 -0.2832 -0.1400 -0.2597
16677W        W59594   3.682  28.390  27.806 -0.1994  0.2392  0.3897
16678W        W59595   3.068  25.284  24.806  0.0709  0.0436  0.0605
16679W        W59596   4.240  27.637  26.028  0.1221  0.1623  0.2534
16680W        W59597   4.138  27.335  27.532  0.1359 -0.0349 -0.3551
16681W        W59598   2.237  28.628  27.455  0.0721 -0.2042 -0.2863
16682W        W59599   1.117  28.237  25.253 -0.0372 -0.0413  0.1686
16683W        W59600   2.673  24.340  25.676  0.0454 -0.3829  0.3114
16684W        W59601   1.752  25.067  27.353  0.3318 -0.0226 -0.1197
16685W        W59602   2.520  24.586  27.031  0.0530  0.1164  0.2487
16686W        W59603   1.644  28.586  26.532 -0.0706  0.0657 -0.0504
16687W        W59604   3.021  29.600  25.157 -0.0061  0.2530 -0.1143
16688W        W59605   0.241  26.877  27.341 -0.0597 -0.0295 -0.1958
16689W        W59606   2.075  27.659  25.281 -0.2711  0.2278 -0.0601
16690W        W59607   5.121  25.069  26.996 -0.1831 -0.0797 -0.0746
16691W        W59608   1.669  27.989  23.394 -0.0133  0.2021 -0.4795
16692W        W59609   4.559  26.516  26.880  0.2075 -0.1871 -0.0255
16693W        W59610   2.084  28.858  26.002  0.1857 -0.2058  0.1882
16694W        W59611   0.332  27.792  26.090 -0.0909 -0.1238 -0.0984
16695W        W59612   2.459  28.145  26.129  0.1114  0.2394 -0.4022
16696W        W59613   0.115  25.834  26.281 -0.1010  0.2362  0.2321
16697W        W59614   5.836  26.986  22.738 -0.1802 -0.2760 -0.0682
16698W        W59615   1.225  25.855  25.659 -0.0434  0.2756  0.2327
16699W        W59616   3.814  25.455  27.725 -0.2427 -0.3274  0.1016
16700W        W59617   2.701  24.157  26.303 -0.4331  0.3461 -0.1479
16701W        W59618   2.658  27.836  25.192  0.0812 -0.1211 -0.2060
16702W        W59619   0.935  29.617  25.257 -0.0188  0.5249  0.0130
16703W        W59620   0.750  26.997  26.471 -0.3310  0.1855  0.2163
16704W        W59621   4.633  27.545  24.679 -0.0464 -0.1778 -0.1473
16705W        W59622   3.340  28.007  26.967 -0.1367 -0.1970 -0.0183
16706W        W59623   1.719  26.649  23.322  0.0718 -0.1216 -0.1011
16707W        W59624   0.317  29.497  28.378  0.0568  0.0745 -0.1644
16708W        W59625  34.469  24.437  25.971 -0.0407  0.1290 -0.0660
16709W        W59626   1.823  26.885  24.164  0.0306  0.3729  0.0394
16710W        W59627   0.782  27.458  26.399  0.1036 -0.0204  0.0334
16711W        W59628   3.947  27.608  28.625  0.0426  0.0348 -0.0513
16712W        W59629   1.877  29.241  28.286  0.0799 -0.3891 -0.2632
16713W        W59630   0.294  23.866  26.537  0.2619  0.1927  0.0679
16714W        W59631   4.290  29.138  23.389 -0.1700 -0.0870  0.0870
16715W        W59632   4.202  26.741  26.072 -0.0473  0.1249  0.1290
16716W        W59633   1.307  28.944  24.437  0.0499  0.0119 -0.0856
16717W        W59634   3.678  27.563  26.242  0.0240  0.1422  0.0071
16718W        W59635   2.838  27.779  25.706  0.0123 -0.0642 -0.0204
16719W        W59636  33.777  27.190  26.692  0.1397 -0.1517  0.1152
16720W        W59637   4.219  30.395  26.405  0.0469 -0.2553  0.0308
16721W        W59638   4.500  28.740  25.632  0.1390  0.0340 -0.2077
16722W        W59639   3.748  26.860  27.305 -0.0135 -0.0186  0.0977
16723W        W59640   2.401  25.243  25.654 -0.0757 -0.2775 -0.1414
16724W        W59641   0.425  27.486  24.844 -0.1042 -0.4546 -0.0580
16725W        W59642   3.491  28.295  24.770 -0.2070 -0.1318 -0.4203
16726W        W59643   2.737  24.684  26.522  0.1337 -0.2848  0.2240
16727W        W59644   1.104  27.566  24.324  0.0085  0.0553  0.2141
16728W        W59645   3.341  23.795  25.612 -0.1906  0.0218  0.0122
16729W        W59646   2.935  28.181  26.510 -0.1768  0.0796 -0.2312
16730W        W59647   1.728  30.068  27.742  0.0362  0.0073  0.1590
16731W        W59648  34.137  26.432  24.781  0.2501  0.0588 -0.0456
16732W        W59649   0.816  27.893  26.047  0.0794 -0.0684  0.2038
16733W        W59650   0.223  28.179  25.618 -0.0344  0.0448  0.0728
16734W        W59651   2.642  27.358  25.521 -0.0442 -0.0973  0.1485
16735W        W59652   4.068  28.346  25.645 -0.0190 -0.2389  0.0692
16736W        W59653   2.652  27.900  24.641 -0.1883 -0.0211  0.1970
16737W        W59654   4.253  27.007  26.570  0.1494  0.0813 -0.2383
16738W        W59655   1.964  25.489  26.039  0.2144 -0.1744  0.1598
16739W        W59656   3.031  26.716  25.740  0.0368  0.1255  0.1789
16740W        W59657   3.891  24.175  23.833  0.0714  0.0245  0.2995
16741W        W59658   1.088  26.451  26.565  0.0805 -0.3230  0.1656
16742W        W59659   0.800  27.383  23.897 -0.0813 -0.0755  0.1539
16743W        W59660   2.510  26.517  24.326  0.3168 -0.3024  0.1183
16744W        W59661   0.023  26.889  26.892  0.3204 -0.1907  0.1285
16745W        W59662   2.724  25.469  27.519  0.5617  0.0893 -0.1046
16746W        W59663  34.515  26.967  25.941  0.0741  0.1710  0.3172
16747W        W59664   1.760  27.952  27.813 -0.2015  0.0446  0.1123
16748W        W59665   2.088  24.894  26.021 -0.0886  0.1417  0.1607
16749W        W59666   3.461  27.907  23.136  0.0644 -0.0114  0.1625
16750W        W59667   0.752  24.679  26.307  0.0249 -0.1061  0.1444
16751W        W59668  34.392  26.084  26.078 -0.3987  0.3615  0.2399
16752W        W59669   5.263  26.783  26.347 -0.0730  0.0265  0.1696
16753W        W59670   4.183  27.335  24.351 -0.4696 -0.0213  0.0876
16754W        W59671   3.976  27.118  25.843 -0.1115 -0.0398 -0.1062
16755W        W59672   2.478  27.607  28.248 -0.0674  0.1261  0.0040
16756W        W59673   0.683  25.544  25.630 -0.1065 -0.2356 -0.0528
16757W        W59674   0.857  28.409  28.401 -0.3082 -0.1784 -0.2308
16758W        W59675   2.829  24.223  27.312 -0.0563 -0.0972  0.0847
16759W        W59676   0.262  27.488  22.352 -0.2402  0.1482 -0.1284
16760W        W59677   2.262  25.630  25.354 -0.0467 -0.1360 -0.2796
16761W        W59678   2.882  27.935  24.187  0.0006 -0.3236  0.0486
16762W        W59679   4.564  27.078  26.127 -0.0390 -0.0468  0.1671
16763W        W59680   1.455  28.258  27.548 -0.0911 -0.0521 -0.1850
16764W        W59681   1.807  27.679  25.947 -0.1363 -0.1828 -0.0191
16765W        W59682  33.772  25.265  27.202  0.1041 -0.0688  0.0256
16766W        W59683   3.827  27.065  26.287  0.0958  0.0510 -0.0088
16767W        W59684  34.612  28.826  27.727 -0.3072 -0.0401  0.1700
16768W        W59685   3.907  29.548  24.625  0.0813  0.0300  0.0460
16769W        W59686   3.756  26.476  26.978  0.0076  0.0111 -0.0664
16770W        W59687   3.138  26.124  25.517 -0.0244  0.1673  0.1260
16771W        W59688  34.481  24.601  27.996 -0.1791  0.1208  0.2200
16772W        W59689   0.547  26.805  26.926 -0.2474  0.1293 -0.1746
16773W        W59690   6.081  28.100  27.455  0.5614 -0.0914 -0.0639
16774W        W59691  34.518  23.900  26.821 -0.0659 -0.0859  0.1090
16775W        W59692   4.016  26.743  25.526  0.0931 -0.3063 -0.1052
16776W        W59693   1.494  27.928  25.357 -0.1197  0.2562  0.1484
16777W        W59694   1.343  26.829  26.159  0.1229 -0.2517 -0.1660
16778W        W59695   2.758  25.250  25.202  0.0068  0.3834  0.2220
16779W        W59696   3.626  28.821  26.540  0.0545 -0.1022 -0.0073
16780W        W59697   1.153  28.212  25.799  0.0714 -0.0057  0.0040
16781W        W59698   4.787  27.907  27.765 -0.0645  0.2521 -0.4487
16782W        W59699   1.668  27.106  25.929  0.1334 -0.2379  0.0435
16783W        W59700   6.105  28.376  24.258 -0.1361  0.0077  0.2617
16784W        W59701   3.614  29.264  25.184  0.0932 -0.1965  0.0409
16785W        W59702   6.366  31.027  28.431 -0.1063 -0.2181  0.2984
16786W        W59703   1.364  27.384  27.195 -0.0499 -0.4116  0.3772
16787W        W59704   4.117  28.959  26.705  0.0295 -0.2386  0.0527
16788W        W59705  34.146  25.167  26.655  0.0148  0.1933 -0.1207
16789W        W59706   3.377  27.069  26.500 -0.1134 -0.2055  0.1550
16790W        W59707   2.321  28.147  24.942  0.0167  0.7140  0.2266
16791W        W59708   4.524  27.612  28.594 -0.1427  0.5414 -0.1185
16792W        W59709   2.986  25.384  26.233  0.1857  0.0602 -0.1946
16793W        W59710   1.636  26.169  25.634 -0.0992 -0.2503  0.4157
16794W        W59711   2.088  28.749  25.373 -0.0084  0.2027  0.2350
16795W        W59712   3.748  27.929  25.001 -0.0434 -0.0845 -0.1198
16796W        W59713   3.762  27.428  29.536  0.0655  0.1568  0.5058
16797W        W59714   0.681  25.803  26.871 -0.1523 -0.1177  0.2116
16798W        W59715   2.995  28.279  27.310  0.2186  0.0395 -0.1729
16799W        W59716   5.842  27.460  29.692 -0.3231 -0.0237 -0.0538
16800W        W59717   1.558  25.913  28.282 -0.0188  0.0071 -0.1733
16801W        W59718   1.953  28.322  28.748  0.3919  0.3788  0.3446
16802W        W59719   1.651  24.154  31.348 -0.2091  0.1996  0.1431
16803W        W59720   2.831  26.392  28.968 -0.1302 -0.2267  0.1132
16804W        W59721   2.745  28.323  30.014  0.1007  0.2570 -0.0224
16805W        W59722   1.554  25.304  26.448 -0.1993  0.2388  0.0215
16806W        W59723   2.563  26.999  31.034  0.2549  0.0860 -0.2725
16807W        W59724   3.588  27.783  29.957  0.0157  0.0113  0.0440
16808W        W59725   1.771  27.027  28.024 -0.1933  0.1699  0.4340
16809W        W59726   1.245  25.680  29.874 -0.0388 -0.5201  0.1064
16810W        W59727   4.439  26.645  28.735 -0.2348  0.0516  0.0030
16811W        W59728   1.606  26.625  27.681 -0.1325  0.1255  0.2608
16812W        W59729   0.427  25.104  31.055  0.3834 -0.1704  0.2545
16813W        W59730   0.976  27.748  29.172 -0.0030  0.0244  0.0101
16814W        W59731   2.172  28.763  30.564  0.0472 -0.2999 -0.1213
16815W        W59732   2.028  27.917  30.662 -0.0782  0.0125 -0.0508
16816W        W59733   2.327  25.299  31.434  0.0774  0.1701  0.2866
16817W        W59734  34.169  28.429  28.287 -0.1246  0.3012 -0.0524
16818W        W59735   2.058  25.142  26.458 -0.0515  0.1636  0.3579
16819W        W59736   0.922  26.791  28.103  0.2268  0.2844 -0.1692
16820W        W59737   2.890  28.045  30.421 -0.0640  0.3670  0.0130
16821W        W59738   2.049  25.883  27.760  0.1699  0.2438 -0.1016
16822W        W59739   5.222  27.267  29.613 -0.2782  0.0009  0.0988
16823W        W59740   3.723  29.638  30.641 -0.1380 -0.2090  0.2734
16824W        W59741   0.504  26.568  30.270  0.0857 -0.1911  0.0635
16825W        W59742  34.505  25.096  31.893 -0.1876  0.1368  0.2463
16826W        W59743   0.375  28.164  27.939  0.0205  0.1849  0.0637
16827W        W59744   0.364  28.946  29.077  0.0502 -0.2073  0.1054
16828W        W59745   0.414  27.258  28.523 -0.0690  0.0408 -0.1071
16829W        W59746   5.135  27.627  30.939 -0.4988  0.2236 -0.2300
16830W        W59747   4.246  29.982  30.309 -0.1169 -0.1916 -0.2325
16831W        W59748   1.036  30.009   0.096  0.0682  0.0926  0.2812
16832W        W59749  33.170  31.091  28.487  0.2015 -0.1696 -0.0462
16833W        W59750   4.312  29.488  30.186 -0.0882  0.2743 -0.0068
16834W        W59751   1.717  27.278  31.646 -0.0723  0.0841 -0.1461
16835W        W59752   5.399  27.654  29.197 -0.0664  0.3696  0.0591
16836W        W59753   1.016  27.683  27.786  0.0211  0.2420  0.3366
16837W        W59754   1.020  29.605  28.163  0.1724  0.3100  0.1503
16838W        W59755   1.404  27.152  29.779 -0.1862 -0.0383 -0.1661
16839W        W59756   4.821  29.016  30.825  0.1874 -0.0613  0.0508
16840W        W59757   2.625  30.219  29.875  0.0034  0.0806 -0.0441
16841W        W59758   2.339  22.229   0.178 -0.1391 -0.2248 -0.1364
16842W        W59759  34.662  28.811  26.811 -0.0900 -0.4319 -0.0426
16843W        W59760   3.325  27.096  27.131 -0.1479 -0.0739  0.0857
16844W        W59761   3.898  23.077  27.897  0.1029 -0.2804 -0.4007
16845W        W59762   3.770  26.839  27.879  0.2185 -0.2606  0.0600
16846W        W59763   2.019  26.355  29.957  0.0774  0.3373 -0.0411
16847W        W59764   0.960  28.189  27.860  0.0941 -0.0407 -0.0864
16848W        W59765   2.668  28.091  30.914  0.0394 -0.0139 -0.1333
16849W        W59766   4.399  28.695  30.365  0.0357 -0.0492  0.2875
16850W        W59767   2.745  26.151  28.216 -0.3663 -0.3190 -0.0605
16851W        W59768   4.553  27.604  30.179 -0.3139  0.0277 -0.2596
16852W        W59769   0.763  27.721  30.225 -0.1040  0.1954  0.3460
16853W        W59770   1.035  25.967  29.217  0.2899  0.0693  0.0715
16854W        W59771   4.669  27.794  26.835  0.1475  0.3007  0.0701
16855W        W59772   5.334  26.960  28.544 -0.1580 -0.0420 -0.3544
16856W        W59773   2.437  26.405  27.114 -0.0153  0.1484 -0.1978
16857W        W59774   1.720  26.919  28.840 -0.2365 -0.2726 -0.1512
16858W        W59775  34.254  27.132  30.946 -0.1897  0.0188 -0.0319
16859W        W59776   2.201  25.955  29.593 -0.0245  0.2004  0.0106
16860W        W59777  33.506  25.949  27.769 -0.3151  0.1489  0.2500
16861W        W59778   4.051  27.679  29.864 -0.3225  0.2295 -0.1543
16862W        W59779  34.379  29.008  29.603 -0.1649 -0.0192  0.0645
16863W        W59780   3.535  25.901  27.944  0.1653  0.2534 -0.0562
16864W        W59781   0.985  29.419  29.119 -0.2247 -0.3355  0.1419
16865W        W59782   4.381  26.608  30.218  0.1330  0.2023  0.0739
16866W        W59783   4.488  28.105  27.266  0.0710  0.1784 -0.2355
16867W        W59784   2.258  27.203  27.941 -0.0320  0.1331  0.0973
16868W        W59785   3.589  27.350  30.441  0.4267  0.1861 -0.0402
16869W        W59786   1.051  26.781  27.077  0.3717 -0.1004  0.0333
16870W        W59787   1.566  26.735  30.708 -0.1706  0.0364 -0.1721
16871W        W59788   3.785  28.265  29.051  0.1222  0.0221  0.1858
16872W        W59789   2.484  28.347  28.528 -0.1927  0.1073  0.2341
16873W        W59790   0.681  29.589  27.673  0.2007  0.0004 -0.1055
16874W        W59791   1.783  27.014  30.110  0.1842  0.0063 -0.0078
16875W        W59792   2.995  29.307  31.475  0.0985 -0.0166 -0.1272
16876W        W59793   0.796  30.747  28.682 -0.1886  0.2781 -0.0109
16877W        W59794  34.263  28.378  28.772 -0.2657  0.2003  0.1395
16878W        W59795   1.472  27.569  29.231  0.1346  0.0852  0.1187
16879W        W59796   0.335  25.560  31.333 -0.1068 -0.0656 -0.0314
16880W        W59797   0.773  26.884  29.892  0.1832  0.2134 -0.1665
16881W        W59798   4.953  26.434  27.181  0.0729 -0.1837 -0.3215
16882W        W59799   1.062  25.484   0.459 -0.3483 -0.0347 -0.1294
16883W        W59800   3.079  26.219  30.088 -0.0540 -0.2064  0.0809
16884W        W59801   2.848  27.038  27.828 -0.1365  0.0850  0.0213
16885W        W59802   3.013  28.255  28.474  0.0028  0.1276 -0.0054
16886W        W59803   2.060  26.673  28.376  0.1840  0.2032  0.4280
16887W        W59804   4.306  29.110  27.368  0.0273  0.0314  0.2685
16888W        W59805   1.105  29.023  30.506 -0.1187  0.0339  0.1208
16889W        W59806   1.356  26.378  29.066 -0.2877  0.1070 -0.0855
16890W        W59807   0.376  24.030  31.504 -0.0380 -0.0486 -0.1137
16891W        W59808   1.224  27.135  31.467 -0.1455  0.0479 -0.0564
16892W        W59809   3.823  23.704  28.935  0.0737  0.0371 -0.0608
16893W        W59810   1.461  24.788  25.712 -0.0213 -0.3811 -0.1294
16894W        W59811   2.980  26.573  27.954  0.0621  0.0697  0.1890
16895W        W59812   2.796  25.153  28.539  0.0528 -0.0745  0.1623
16896W        W59813  34.607  28.680  28.619 -0.0732  0.0506 -0.0467
16897W        W59814   3.972  26.045  29.597  0.0144  0.0541  0.2465
16898W        W59815   3.455  27.557  28.581  0.1350  0.1292 -0.1648
16899W        W59816   4.094  28.051  29.508  0.2242  0.1529  0.5599
16900W        W59817   1.971  28.679  30.005 -0.0082 -0.1844 -0.0985
16901W        W59818   1.596  26.706  29.706 -0.3500  0.2004  0.1168
16902W        W59819   2.659  27.365  26.559  0.0759  0.2304 -0.1659
16903W        W59820   1.738  29.026  29.700 -0.1514 -0.2069 -0.2587
16904W        W59821   1.048  30.285  29.030 -0.4969  0.1480 -0.2626
16905W        W59822   0.408  26.146  29.896 -0.2018  0.1502  0.3713
16906W        W59823   4.649  31.169  28.301 -0.1158 -0.0085 -0.0764
16907W        W59824   0.609  27.413  29.048 -0.2555  0.0017  0.1128
16908W        W59825   1.342  26.767  30.173 -0.0124  0.0504 -0.1447
16909W        W59826   2.459  24.811  29.247  0.0234 -0.2085 -0.1671
16910W        W59827   1.795  25.389  31.412  0.3082  0.1109 -0.1478
16911W        W59828   4.278  27.364  29.556  0.4302 -0.2483 -0.0097
16912W        W59829   2.121  26.804  30.759  0.0913 -0.0217 -0.4037
16913W        W59830   2.963  28.124  29.524 -0.1861 -0.0773  0.1124
16914W        W59831   0.806  28.738  27.087 -0.0623  0.0904 -0.3155
16915W        W59832  34.270  26.952  29.710 -0.1352  0.1190 -0.1154
16916W        W59833  34.571  28.050  27.321 -0.2669  0.0435 -0.1448
16917W        W59834   2.646  25.914  30.724  0.2151  0.0107  0.1860
16918W        W59835   0.179  28.705  31.224 -0.1253  0.3286  0.0294
16919W        W59836   2.314  27.492  29.829  0.1434 -0.0709 -0.2054
16920W        W59837   0.568  26.482  27.369 -0.2166  0.0419 -0.0796
16921W        W59838   3.325  29.474  29.323 -0.1370 -0.0410  0.2042
16922W        W59839   1.512  25.957  29.294  0.0663 -0.1148 -0.0283
16923W        W59840   3.996  28.761  27.600  0.2324 -0.1452  0.0273
16924W        W59841   3.193  27.086  29.716  0.0513  0.0107  0.2133
16925W        W59842   4.621  27.202  28.931  0.1608 -0.1278 -0.2406
16926W        W59843   4.202  26.908  27.083 -0.2124 -0.3453  0.0038
16927W        W59844   1.927  26.310  26.927 -0.0942 -0.2670 -0.1333
16928W        W59845   1.240  29.744  29.394 -0.0414 -0.3043 -0.1719
16929W        W59846   1.879  28.489  28.288  0.1366 -0.2362 -0.1155
16930W        W59847   2.750  28.291  28.998 -0.4122  0.1408 -0.2176
16931W        W59848   2.988  26.511  26.296 -0.0678  0.0544 -0.1209
16932W        W59849   4.784  28.198  30.328  0.1058  0.0734  0.2109
16933W        W59850   1.050  26.950  30.694  0.1346  0.0303 -0.0342
16934W        W59851   3.821  28.105  31.778  0.0839  0.2568  0.0229
16935W        W59852   2.366  28.534  28.018 -0.0448  0.0803 -0.2704
16936W        W59853   1.184  29.030  31.029  0.3610 -0.0693 -0.2200
16937W        W59854   0.721  27.899  28.181 -0.0109 -0.1746 -0.2136
16938W        W59855   2.220  25.504  26.892  0.0728  0.0401  0.2071
16939W        W59856   2.357  29.566  27.313 -0.1171 -0.2010  0.0515
16940W        W59857   4.877  24.802  29.819 -0.3264  0.1935 -0.1720
16941W        W59858   1.012  25.414  27.826  0.0288  0.2632  0.0039
16942W        W59859   2.605  26.012  31.893  0.1354 -0.2126 -0.1605
16943W        W59860   2.182  27.354  30.279  0.0350 -0.1847 -0.0500
16944W        W59861   5.196  26.143  27.817 -0.1882 -0.1778 -0.1973
16945W        W59862   3.684  27.827  31.319 -0.0578  0.1395  0.2583
16946W        W59863   1.997  26.807  27.022 -0.2499  0.2019 -0.2524
16947W        W59864   4.506  25.039  30.758 -0.0747 -0.5942  0.0828
16948W        W59865   1.994  28.367  30.891  0.1860 -0.0264  0.0515
16949W        W59866   0.254  30.023  31.319  0.1023  0.1858  0.2392
16950W        W59867   5.966  25.618   1.757 -0.0445 -0.2187  0.1084
16951W        W59868   2.602  28.508  29.475  0.0549 -0.3276  0.0199
16952W        W59869   4.129  25.981  31.813  0.2487 -0.3776  0.4540
16953W        W59870   2.339  26.033  26.815  0.1202  0.1060 -0.5466
16954W        W59871   1.781  26.515  25.234  0.0374  0.1027  0.2993
16955W        W59872   2.039  27.393  26.303 -0.1141 -0.1766  0.2063
16956W        W59873   3.820  24.946  29.557 -0.1143  0.1911  0.0463
16957W        W59874   1.717  28.033  29.759 -0.0280 -0.0931 -0.0812
16958W        W59875   1.656  27.176  26.864  0.0739 -0.0218  0.0218
16959W        W59876   4.898  29.415  31.104  0.0366 -0.2416 -0.2390
16960W        W59877   1.905  30.611  28.406  0.2045  0.1526 -0.2192
16961W        W59878   2.465  26.042  28.619 -0.0149  0.0400  0.1201
16962W        W59879   2.543  31.054  30.547 -0.1381 -0.0526  0.2363
16963W        W59880   1.553  26.325  26.410  0.0903 -0.0561  0.2417
16964W        W59881   1.437  27.679  28.058  0.1672  0.1370 -0.0439
16965W        W59882   4.993  25.859  29.575  0.3167 -0.1274 -0.1416
16966W        W59883   3.031  27.327  27.474  0.0750 -0.1389 -0.1106
16967W        W59884   0.607  25.718  29.576  0.5458 -0.1147  0.2557
16968W        W59885   0.765  27.130  31.084  0.1748  0.0945  0.3781
16969W        W59886   0.940  28.105  31.497  0.2118 -0.1313 -0.0354
16970W        W59887   1.569  26.415  28.474 -0.0314  0.2643  0.1158
16971W        W59888   3.838  25.571  26.784 -0.1155  0.0224  0.2369
16972W        W59889   2.636  26.636  28.386 -0.3789 -0.1461  0.0789
16973W        W59890   1.882  28.050   0.797  0.1496 -0.0796  0.0886
16974W        W59891   1.969  26.063  26.042  0.0767 -0.1099  0.3459
16975W        W59892   4.982  27.374  30.445  0.1826  0.0026 -0.0393
16976W        W59893  34.317  27.430  29.210  0.1002  0.2472  0.1500
16977W        W59894   2.639  29.462  29.437 -0.2016 -0.2336  0.0186
16978W        W59895   2.658  29.289  29.981 -0.1286 -0.1085  0.0603
16979W        W59896   1.306  27.068  27.754  0.4053 -0.0601 -0.1016
16980W        W59897   0.568  28.512  28.875  0.2143  0.1098  0.1085
16981W        W59898   2.178  26.952  31.275  0.0840 -0.0043  0.0987
16982W        W59899   5.025  28.152  30.789  0.1587 -0.0284 -0.0976
16983W        W59900   1.194  26.489  30.544  0.1639 -0.2219  0.0731
16984W        W59901   2.260  26.144  28.105 -0.2417  0.3868 -0.1279
16985W        W59902   1.190  27.857  30.925  0.0530 -0.0481 -0.0720
16986W        W59903   2.502  27.927  29.486 -0.5720  0.2128 -0.2668
16987W        W59904   1.994  26.164  28.532 -0.1690 -0.0847  0.4324
16988W        W59905   2.246  27.389  31.628  0.0431 -0.1143 -0.4020
16989W        W59906   2.873  27.233  29.292  0.0852 -0.1865 -0.0992
16990W        W59907   4.462  28.870  27.824  0.4026 -0.2014  0.1633
16991W        W59908   2.907  28.898  31.775 -0.2199 -0.2756  0.0699
16992W        W59909  33.568  27.881  27.634 -0.1136 -0.0484 -0.3674
16993W        W59910   0.663  26.174  30.763 -0.1897 -0.4772 -0.3683
16994W        W59911   1.121  26.719  29.592  0.0050  0.0216  0.0901
16995W        W59912   3.519  26.712  29.918  0.0573  0.1448 -0.0927
16996W        W59913   4.501  28.395  30.782 -0.1602 -0.1119  0.0801
16997W        W59914   2.111  28.927  29.007 -0.1340 -0.0645 -0.0905
16998W        W59915   1.068  29.868  30.494 -0.1237  0.2595 -0.1683
16999W        W59916   5.005  29.029  27.936  0.1003  0.1325  0.0581
17000W        W59917   2.480  30.064  29.061 -0.0502 -0.0340  0.0629
17001W        W59918   1.703  27.443  27.710  0.1431  0.1383 -0.1189
17002W        W59919   5.865  25.139  30.532 -0.1358 -0.1269  0.2506
17003W        W59920   5.146  29.767  27.226 -0.2575 -0.1912 -0.1494
17004W        W59921   4.944  24.823  30.829 -0.1112  0.0358  0.0374
17005W        W59922   2.210  23.732  30.691 -0.1199  0.4189 -0.0310
17006W        W59923   2.546  29.293  31.183 -0.4349 -0.1465  0.0937
17007W        W59924   0.653  26.403   1.371 -0.0028 -0.1466 -0.1109
17008W        W59925   4.892  28.666   0.200 -0.1893 -0.2387  0.2382
17009W        W59926   1.414  27.799  31.346  0.0201 -0.2027  0.0952
17010W        W59927   3.284  26.070  29.132 -0.1138 -0.1611 -0.0480
17011W        W59928   0.784  25.000  28.779 -0.0421 -0.3283  0.3678
17012W        W59929   1.785  27.859  28.960  0.0617  0.1478 -0.0060
17013W        W59930   3.634  27.797  29.033 -0.0690 -0.0200 -0.0768
17014W        W59931   2.523  28.322  27.139 -0.1483 -0.0878  0.0023
17015W        W59932   1.626  26.195  27.423 -0.0303 -0.1955  0.0073
17016W        W59933   2.948  26.742  30.043  0.2241 -0.0204  0.0472
17017W        W59934   3.993  26.403  29.956  0.0585  0.1598 -0.0237
17018W        W59935   3.794  27.807  27.089 -0.0864  0.1036 -0.1854
17019W        W59936   0.463  27.197  27.729  0.1381  0.2102  0.1436
17020W        W59937   1.916  26.413  30.526 -0.1383 -0.1024  0.0806
17021W        W59938   2.349  26.534  28.929 -0.3370  0.2346 -0.0999
17022W        W59939   3.240  26.219  28.266  0.2618  0.1961 -0.1371
17023W        W59940   2.702  25.588  28.835  0.2851 -0.2675 -0.0620
17024W        W59941   3.129  27.834  30.059  0.0387 -0.1733 -0.0680
17025W        W59942   3.940  28.879  31.227 -0.0513 -0.3152 -0.1190
17026W        W59943   1.248  25.990   0.321 -0.1424  0.2710  0.1509
17027W        W59944   3.157  30.033  31.192  0.2960 -0.2273 -0.3230
17028W        W59945   4.731  26.975  27.082 -0.0326 -0.1127  0.2070
17029W        W59946   4.467  25.924  29.532  0.1509  0.0275  0.1595
17030W        W59947   5.207  26.908  29.998  0.2484 -0.2983  0.1260
17031W        W59948   1.154  28.019  28.376 -0.0286 -0.0521 -0.2109
17032W        W59949   0.769  26.284  28.317  0.3375  0.3955  0.1340
17033W        W59950   1.512  26.134  30.737  0.2506  0.2644  0.2292
17034W        W59951   0.292  25.594  28.802 -0.0274 -0.0406  0.1365
17035W        W59952   1.941  27.383  29.146  0.3794  0.4288  0.1187
17036W        W59953   0.241  27.741  28.564  0.0144  0.3913 -0.0644
17037W        W59954   5.025  28.025  29.313  0.0790  0.3022 -0.0833
17038W        W59955   1.985  27.419  27.265 -0.0452  0.0147 -0.0026
17039W        W59956   0.412  24.842  29.981 -0.0937 -0.1581  0.2624
17040W        W59957   1.414  29.524  30.505 -0.1290  0.0253 -0.2914
17041W        W59958   1.338  26.187  26.983  0.0445  0.0580 -0.2394
17042W        W59959   2.610  24.981  26.073  0.1953 -0.1439 -0.1087
17043W        W59960   3.514  29.046  29.684  0.0586 -0.0143  0.0686
17044W        W59961   4.018  26.925  29.773 -0.4382 -0.1091 -0.0074
17045W        W59962   3.102  24.185  28.241 -0.0009  0.1935  0.1711
17046W        W59963   3.013  26.004  31.131  0.0275  0.1858  0.0575
17047W        W59964   1.752  28.613  27.304  0.1336  0.1149  0.3053
17048W        W59965   2.371  25.936  31.208  0.0417  0.1498 -0.0021
17049W        W59966   2.176  30.376  29.951 -0.0328  0.0119 -0.1045
17050W        W59967   1.579  25.761  30.427  0.0355 -0.0625  0.0486
17051W        W59968   2.050  28.914  28.009  0.1378  0.0380 -0.2137
17052W        W59969   2.716  25.064  27.127 -0.0582 -0.1856 -0.0467
17053W        W59970   2.354  27.516  30.703  0.0667  0.0081  0.1333
17054W        W59971   1.413  27.221  30.482  0.0482 -0.0198 -0.1145
17055W        W59972   4.749  25.796  29.981  0.0804 -0.0398 -0.1074
17056W        W59973   3.895  27.133  30.825 -0.1358  0.0578 -0.1094
17057W        W59974   1.490  27.039  29.287  0.2122 -0.2291  0.0506
17058W        W59975   3.751  30.108  30.438 -0.2814  0.1261 -0.1119
17059W        W59976   5.307  26.468  29.737  0.2532  0.3752 -0.1573
17060W        W59977   2.184  28.355  29.665  0.0510 -0.2819 -0.0072
17061W        W59978  33.938  26.300  30.847 -0.2897  0.2000  0.1871
17062W        W59979   2.827  29.719   0.777 -0.2424  0.1221  0.1969
17063W        W59980   2.521  28.832  29.860  0.2823  0.3120 -0.1278
17064W        W59981   1.948  26.768  29.258 -0.1179  0.1239  0.0054
17065W        W59982   0.296  27.591  28.095 -0.1644 -0.2863  0.2244
17066W        W59983   0.561  29.580  31.157  0.3132 -0.2742 -0.0271
17067W        W59984   1.235  26.702  31.112 -0.1686 -0.0833  0.0550
17068W        W59985  34.314  28.410  29.509 -0.1021 -0.3149  0.1222
17069W        W59986   2.076  28.124  27.443  0.0861  0.0393 -0.1102
17070W        W59987   1.452  28.264  28.770  0.4551 -0.0356 -0.0166
17071W        W59988   3.081  29.673  28.837 -0.3672 -0.0590 -0.0679
17072W        W59989   2.153  27.146  28.454  0.0255  0.3183 -0.1850
17073W        W59990   1.284  27.747  29.677  0.0498 -0.3527  0.0245
17074W        W59991  33.387  26.336  26.956  0.0267  0.1981 -0.0644
17075W        W59992   2.951  29.260  29.085 -0.2476  0.1438  0.4044
17076W        W59993   0.705  28.416  29.359  0.0509  0.5063  0.3262
17077W        W59994   3.574  28.749  30.085  0.0713 -0.1466 -0.0089
17078W        W59995   2.865  25.367  25.733  0.1923 -0.2463  0.0087
17079W        W59996   5.003  28.507  29.117 -0.2088 -0.1436 -0.0238
17080W        W59997   4.071  26.848  29.175  0.1089  0.0182  0.1385
17081W        W59998   2.135  28.293  30.389  0.1022 -0.0556  0.0003
17082W        W59999   4.685  26.512  30.636  0.0413  0.0156  0.0148
17083W        W60000   2.720  25.658  26.950 -0.0012  0.1828 -0.3429
17084W        W60001   2.746  29.267   0.541  0.0126 -0.1187  0.1336
17085W        W60002   5.065  24.024  30.246  0.2782  0.0586 -0.2835
17086W        W60003  34.119  27.771   0.141  0.1186  0.0979  0.0080
17087W        W60004   3.897  27.853  30.344 -0.1235 -0.0379  0.0301
17088W        W60005   1.832  26.422  28.940  0.1890 -0.0329 -0.1103
17089W        W60006   0.795  25.836  28.731  0.1185 -0.2160 -0.0129
17090W        W60007   2.340  26.390  29.389 -0.1322 -0.2187  0.0127
17091W        W60008   0.664  29.916  28.471  0.1445  0.1907 -0.1574
17092W        W60009   3.752  26.464  29.431 -0.1355  0.0705  0.2133
17093W        W60010   0.964  30.121  29.616 -0.0448 -0.1130 -0.1285
17094W        W60011   2.935  28.911  31.203  0.0672  0.1251  0.2506
17095W        W60012   1.900  30.835  30.615 -0.0045 -0.1413  0.2350
17096W        W60013  34.308  24.958  27.704 -0.1534  0.1172 -0.1068
17097W        W60014   5.945  25.969  30.900  0.3488 -0.0992 -0.0007
17098W        W60015   1.900  27.278  30.737 -0.2756  0.3550  0.0043
17099W        W60016   2.962  25.335  29.614 -0.4385  0.1292 -0.1121
17100W        W60017   0.608  25.598  30.593 -0.1343  0.0092  0.1748
17101W        W60018   2.022  25.660  28.268  0.1505 -0.1152 -0.0211
17102W        W60019   1.174  28.539  29.276 -0.0735  0.3419  0.2176
17103W        W60020   1.420  26.667  31.573  0.2060  0.1379  0.1213
17104W        W60021   3.431  26.402  27.837  0.0182  0.1127 -0.0580
17105W        W60022   5.930  26.201  31.886 -0.1970 -0.3443  0.0859
17106W        W60023   3.196  24.654  27.387 -0.1082  0.2270 -0.1439
17107W        W60024   5.992  28.040  31.797  0.1360 -0.1954  0.0586
17108W        W60025   2.683  25.783  29.677 -0.1581  0.1156  0.1775
17109W        W60026   2.392  25.844  27.310 -0.1615  0.0690 -0.2298
17110W        W60027   1.018  25.516  25.992  0.0056  0.4178 -0.0745
17111W        W60028   1.381  27.193  28.258  0.0807  0.2008 -0.1735
17112W        W60029   1.277  27.231  28.906  0.0117 -0.0498 -0.0032
17113W        W60030  34.404  25.560  28.138 -0.1592 -0.3166 -0.2243
17114W        W60031   2.904  28.733  28.583  0.3162 -0.1854 -0.1709
17115W        W60032   4.193  25.271  30.143  0.0387 -0.0989 -0.1422
17116W        W60033   2.954  29.143  29.554 -0.0641 -0.2333 -0.1767
17117W        W60034   5.881  27.944  29.103  0.0614  0.1162 -0.3880
17118W        W60035   2.270  28.476  29.100 -0.1121  0.2359  0.6003
17119W        W60036   2.116  25.558  29.921  0.1052 -0.1864 -0.0246
17120W        W60037   3.118  28.554  30.345  0.0541  0.0688 -0.0069
17121W        W60038   5.399  28.013  31.114 -0.1979  0.1856  0.0602
17122W        W60039   4.812  25.575  26.603  0.0737  0.0957  0.0912
17123W        W60040   1.525  26.231  30.227  0.0669 -0.1085  0.0537
17124W        W60041   1.904  28.196  29.290 -0.1562 -0.0012  0.0386
17125W        W60042   3.150  26.294  30.588  0.0746  0.0330 -0.3591
17126W        W60043   3.124  27.612  30.520  0.1240  0.2179 -0.2491
17127W        W60044   3.776  29.576  28.043  0.2593  0.2140  0.0944
17128W        W60045   5.834  22.683  30.555 -0.0808  0.1011  0.0826
17129W        W60046   3.985  29.159  29.866 -0.0245  0.3797  0.2646
17130W        W60047   2.240  30.138  31.396 -0.0696 -0.1878 -0.0158
17131W        W60048   2.537  26.489  26.620 -0.0735 -0.1227 -0.3516
17132W        W60049   2.515  30.255  30.355 -0.0663  0.1592  0.0021
17133W        W60050  34.591  27.721  29.730  0.3319 -0.1038  0.2983
17134W        W60051   2.879  29.390  28.121 -0.2514  0.2100 -0.0383
17135W        W60052   5.019  30.606  30.531  0.0688 -0.0091 -0.2100
17136W        W60053   2.378  27.267  29.336  0.0310 -0.0894 -0.3291
17137W        W60054   3.350  28.970  28.726  0.1277  0.1056 -0.1938
17138W        W60055   3.162  25.014  28.150 -0.4648 -0.1773 -0.1815
17139W        W60056   6.412  28.173  27.925 -0.1509  0.3603 -0.0056
17140W        W60057   3.326  23.734  29.020  0.0611  0.0140 -0.1540
17141W        W60058   4.465  29.249  31.168  0.1022 -0.0048 -0.0563
17142W        W60059   0.220  24.864  27.250  0.4531  0.0705 -0.1022
17143W        W60060   0.137  25.937  26.872 -0.1670  0.1318  0.3874
17144W        W60061   1.686  26.956  31.141  0.0842  0.1217 -0.4988
17145W        W60062   2.282  25.192  31.933  0.0267  0.0797  0.2668
17146W        W60063   0.319  26.666  29.655  0.1477  0.0487 -0.1389
17147W        W60064   0.200  26.930  30.060 -0.1183 -0.0669  0.3391
17148W        W60065   1.718  24.587  28.856 -0.1134 -0.0392  0.3655
17149W        W60066   1.419  28.069  29.311  0.1974 -0.0222 -0.2883
17150W        W60067   0.234  25.914  30.384  0.0680  0.1174  0.1290
17151W        W60068   0.209  24.762  28.264 -0.0684 -0.3282 -0.1067
17152W        W60069   1.334  27.742  28.753  0.1822 -0.0525 -0.0342
17153W        W60070   5.910  27.539  28.640 -0.1230 -0.2320 -0.3755
17154W        W60071   3.412  26.491  27.377 -0.0394  0.1832  0.0503
17155W        W60072   5.474  27.689  30.456 -0.2275  0.3470 -0.0480
17156W        W60073  33.806  27.382  27.366 -0.0983  0.4784 -0.1252
17157W        W60074   2.324  25.618   0.230 -0.0875 -0.0464 -0.1332
17158W        W60075   2.851  27.099   0.621 -0.0042 -0.0471 -0.1379
17159W        W60076   0.223  25.393  28.189  0.1741 -0.2932  0.4851
17160W        W60077   2.630  27.190  30.213  0.3738  0.0717  0.1317
17161W        W60078   0.554  27.997  29.071 -0.1865 -0.0748  0.0597
17162W        W60079   2.779  26.323  27.453  0.4708 -0.2040  0.1370
17163W        W60080   1.184  28.649  28.712  0.0619  0.0320  0.2287
17164W        W60081   2.168  29.343  29.266  0.2340  0.0489 -0.1104
17165W        W60082   2.246  24.705  29.692 -0.0664  0.3079  0.1987
17166W        W60083   4.120  26.720  28.232 -0.2518  0.1672 -0.1010
17167W        W60084   2.239  27.627   0.151  0.2810  0.0803 -0.2199
17168W        W60085   3.586  26.969  29.326 -0.0226 -0.0263  0.0261
17169W        W60086   2.245  27.041  28.920 -0.1783  0.1797  0.4458
17170W        W60087   4.764  26.122  27.585 -0.1582  0.2084 -0.3842
17171W        W60088   0.174  25.452  31.885  0.2338  0.1528 -0.1802
17172W        W60089   1.658  29.095  31.244  0.3536 -0.1667  0.1876
17173W        W60090   3.741  27.656  30.842 -0.0440 -0.0063 -0.3889
17174W        W60091   0.413  25.330  27.536 -0.1140  0.1823  0.0791
17175W        W60092   2.147  26.664  27.902  0.0934  0.0860  0.1426
17176W        W60093   2.193  26.271  27.528 -0.1345 -0.1015  0.1523
17177W        W60094   1.157  26.152  28.655 -0.2314 -0.1835  0.2098
17178W        W60095   2.535  26.716  27.623  0.1365  0.1159  0.0029
17179W        W60096   2.902  26.252  29.558  0.1605 -0.2940  0.0345
17180W        W60097   1.481  29.495  28.973  0.3167  0.1122 -0.1851
17181W        W60098   4.106  28.635  29.894  0.0333 -0.0383 -0.2739
17182W        W60099   2.024  26.968  27.485 -0.2286  0.2794 -0.2578
17183W        W60100   6.342  27.696  29.943 -0.3757 -0.3989 -0.0749
17184W        W60101   3.567  28.625  30.557  0.2046 -0.1595  0.0289
17185W        W60102   3.918  26.861  30.287 -0.1112 -0.6359  0.1154
17186W        W60103   3.241  29.753  30.748 -0.0495 -0.2588  0.1982
17187W        W60104   4.249  27.604  30.912 -0.1319 -0.2865 -0.0334
17188W        W60105   1.048  24.394  31.327 -0.0775  0.2964 -0.0000
17189W        W60106   1.300  24.248  27.866 -0.2419  0.0482  0.2684
17190W        W60107   0.740  27.669  29.614  0.0684  0.0716 -0.0828
17191W        W60108   2.834  27.778  29.126 -0.0070  0.3009 -0.1406
17192W        W60109   0.406  25.816  27.818 -0.1437 -0.0118 -0.1977
17193W        W60110   1.289  25.946  27.773  0.0267 -0.1677 -0.0462
17194W        W60111   2.991  28.498   0.343  0.0669 -0.0412 -0.2268
17195W        W60112   3.254  27.737  29.506  0.1681  0.1187  0.0013
17196W        W60113   4.970  25.382  31.671  0.2299 -0.2007  0.0485
17197W        W60114   3.157  27.111  30.272 -0.1094 -0.2896 -0.1604
17198W        W60115   1.366  26.308   0.771  0.0748  0.1459  0.0782
17199W        W60116   2.481  29.199  31.787  0.2562 -0.2375  0.1976
17200W        W60117   3.899  31.230  31.345 -0.1123  0.0424 -0.3232
17201W        W60118   2.010  29.451   0.017  0.1768 -0.0071  0.0040
17202W        W60119   5.512  24.900   0.029  0.4910 -0.5378  0.0926
17203W        W60120   3.433  28.133  30.332  0.1886  0.3241  0.0975
17204W        W60121   3.400  26.424  31.408 -0.0689  0.0130  0.0485
17205W        W60122   4.191  29.518   2.286 -0.2419  0.2480  0.1859
17206W        W60123   4.327  28.937  30.837  0.0254  0.2493  0.0370
17207W        W60124   1.299  26.238  29.733 -0.1993  0.1904 -0.1429
17208W        W60125   1.691  27.508  29.935  0.0011  0.2023  0.0157
17209W        W60126   3.810  27.336  31.294  0.2071  0.0857 -0.0550
17210W        W60127   2.381  25.964  30.043  0.1928 -0.0232 -0.1185
17211W        W60128  34.499  29.324  30.515  0.1405 -0.2480 -0.3114
17212W        W60129   2.149  27.941  29.934 -0.3431 -0.2700  0.1537
17213W        W60130   5.011  28.324  31.461  0.3305  0.2176  0.1491
17214W        W60131  34.561  25.259  31.015 -0.1995 -0.0536 -0.0546
17215W        W60132   1.937  28.245  31.888 -0.2339 -0.1053 -0.1843
17216W        W60133   2.314  25.817   0.730 -0.0368  0.5714 -0.2248
17217W        W60134   0.697  28.023   0.036 -0.2613 -0.0942 -0.1363
17218W        W60135   1.686  25.631  30.899  0.1435  0.3635  0.0544
17219W        W60136   3.584  25.754  29.479  0.1392  0.0445  0.1848
17220W        W60137   1.696  25.845  29.746 -0.0286  0.1135 -0.0950
17221W        W60138   2.571  26.485  29.929  0.2177 -0.0512 -0.2068
17222W        W60139   1.170  27.876   0.034 -0.2770 -0.1929  0.0562
17223W        W60140  34.438  27.517  31.817 -0.2209  0.0500 -0.0905
17224W        W60141   0.223  25.861  30.880 -0.1473 -0.0592  0.2019
17225W        W60142   2.091  28.877   0.008 -0.0120  0.1285  0.2404
17226W        W60143   2.533  28.850  31.468  0.1621  0.0682  0.0115
17227W        W60144   3.334  26.778  30.700  0.0489 -0.0383  0.0964
17228W        W60145   4.320  28.638  31.258  0.1773 -0.0292  0.1177
17229W        W60146   3.505  26.054  31.105  0.0888  0.1371  0.1528
17230W        W60147   0.876  25.291  29.804 -0.0168 -0.0621  0.2618
17231W        W60148  34.404  26.518  31.905  0.1471 -0.1627  0.2138
17232W        W60149   1.915  29.625  29.877  0.0508 -0.4348 -0.1478
17233W        W60150   4.487  29.011  29.911 -0.0337  0.0741  0.0978
17234W        W60151   3.724  28.639  31.664 -0.2646  0.0263  0.0694
17235W        W60152   3.230  28.141  31.354  0.3979  0.1101  0.0335
17236W        W60153   3.416  27.234  30.968 -0.3106 -0.0753  0.1956
17237W        W60154   4.664  25.988  30.425 -0.0118 -0.3190 -0.1517
17238W        W60155   2.801  26.840  30.539 -0.0737 -0.1052 -0.1139
17239W        W60156   1.289  29.206  31.591  0.1234  0.0949 -0.1068
17240W        W60157   3.439  25.479  31.694 -0.0296 -0.1575 -0.1259
17241W        W60158   4.320  27.721  31.410  0.0800  0.0668  0.0144
17242W        W60159   2.783  25.421  30.601 -0.0402 -0.0072  0.2547
17243W        W60160   4.713  28.004  31.220 -0.0865 -0.1465 -0.0847
17244W        W60161   4.168  28.120  31.080  0.2946 -0.2500  0.2085
17245W        W60162  33.473  27.637  30.914 -0.2871  0.1178  0.2827
17246W        W60163   3.484  29.079   0.507  0.0500  0.2867  0.2075
17247W        W60164   3.315  24.985  31.377 -0.5345  0.0534  0.5188
17248W        W60165   3.578  26.528   1.652 -0.0929 -0.0867 -0.1362
17249W        W60166   2.689  29.785  30.329 -0.0755  0.1654 -0.1721
17250W        W60167   0.896  25.121  30.702 -0.3327  0.1370 -0.3150
17251W        W60168   2.542  27.004  29.775 -0.0018  0.0748 -0.1054
17252W        W60169   5.793  27.814  30.846 -0.0277 -0.3121 -0.2048
17253W        W60170   0.132  28.902  30.705 -0.0462  0.0985  0.4012
17254W        W60171   4.727  28.015  31.805  0.0993  0.3726 -0.2021
17255W        W60172   1.587  28.674  31.053  0.1705  0.1053 -0.3980
17256W        W60173   1.324  28.676  31.573  0.0904  0.0718  0.0108
17257W        W60174   1.069  28.071  30.498 -0.0389  0.0528 -0.2795
17258W        W60175   1.032  27.603  31.585 -0.2109 -0.1282 -0.2989
17259W        W60176  33.959  25.258  28.969 -0.0202  0.0101 -0.1030
17260W        W60177   4.900  28.624  30.498 -0.0328 -0.1150 -0.0031
17261W        W60178   3.774  28.996   1.540 -0.0118 -0.0087  0.0420
17262W        W60179   4.508  26.201  29.932 -0.0058 -0.0320  0.0894
17263W        W60180   1.549  30.412  18.472 -0.1185 -0.1934 -0.2215
17264W        W60181  33.734  28.401  17.013 -0.2367 -0.0878  0.0172
17265W        W60182   3.896  29.967  15.982 -0.0610 -0.1963  0.0019
17266W        W60183   1.883  30.468  16.833  0.0758 -0.0121 -0.0935
17267W        W60184   0.197  30.405  17.551  0.1198  0.1999 -0.0139
17268W        W60185   4.197  33.902  17.445 -0.1544  0.2254  0.1309
17269W        W60186   0.716  29.065  19.330  0.0613 -0.3275 -0.0329
17270W        W60187   2.520  32.095  16.924  0.0041  0.0821  0.0556
17271W        W60188   1.834  32.116  20.220 -0.1093  0.0867 -0.2036
17272W        W60189   2.067  30.291  16.249  0.1112  0.2879 -0.2053
17273W        W60190   3.277  29.370  19.265  0.4378  0.0807  0.0145
17274W        W60191   2.206  31.961  18.714 -0.1578  0.2552  0.2310
17275W        W60192   1.734  29.293  18.256  0.3673 -0.0850 -0.2092
17276W        W60193  34.374  29.740  18.002  0.0076 -0.0629 -0.1445
17277W        W60194   3.330  29.314  17.378  0.1340  0.0830  0.0096
17278W        W60195  34.582  31.869  18.084 -0.0049  0.1561 -0.2514
17279W        W60196   2.880  30.838  20.149 -0.0045 -0.0531 -0.2984
17280W        W60197   2.653  28.294  19.098 -0.5447  0.0460  0.2380
17281W        W60198   2.239  31.756  18.215 -0.0306  0.0860  0.0786
17282W        W60199   3.085  27.963  20.109 -0.0270  0.1577 -0.0737
17283W        W60200   3.378  28.907  19.421 -0.1855  0.0794 -0.0613
17284W        W60201   2.121  32.864  17.523 -0.2642 -0.1308  0.2379
17285W        W60202   0.004  30.987  16.674 -0.1654  0.4281 -0.0376
17286W        W60203   1.270  30.513  17.123  0.0976  0.1362  0.0157
17287W        W60204   1.019  28.731  20.660  0.0368 -0.1258  0.2258
17288W        W60205   2.182  29.688  18.541  0.0325  0.0847 -0.1595
17289W        W60206   1.904  31.458  17.810  0.0620  0.0203 -0.0687
17290W        W60207   1.941  32.060  17.872 -0.4025 -0.2962 -0.0680
17291W        W60208   2.323  33.230  17.157  0.3297  0.2666  0.0680
17292W        W60209   1.236  30.532  21.084 -0.1756 -0.2359  0.2186
17293W        W60210   1.993  30.953  17.867  0.0930  0.3191 -0.1109
17294W        W60211   1.118   0.150  16.142 -0.0054  0.1834 -0.0381
17295W        W60212   1.730  31.727  17.080  0.0741  0.3653 -0.2156
17296W        W60213   2.723  31.042  17.961  0.0883 -0.0523 -0.5260
17297W        W60214   4.551  32.226  19.295  0.1961 -0.0735  0.1043
17298W        W60215   2.130  32.435  19.269 -0.3113 -0.0763 -0.0060
17299W        W60216   1.827  33.267  17.413 -0.0253 -0.0612  0.1166
17300W        W60217   1.449  32.807  17.329  0.0138 -0.0863  0.0140
17301W        W60218   1.234  31.666  19.377  0.1633  0.2567 -0.0365
17302W        W60219   3.515  30.385  20.348  0.0237  0.2749 -0.3125
17303W        W60220   2.195  31.713  16.786 -0.0238 -0.0471  0.1681
17304W        W60221   3.495  32.856  17.885  0.2867 -0.2790  0.0131
17305W        W60222   3.093  31.175  17.230 -0.1574 -0.1298 -0.2161
17306W        W60223   0.805  31.630  18.145 -0.2053  0.1159 -0.0061
17307W        W60224   1.106  31.513  17.706 -0.0723 -0.0234  0.1713
17308W        W60225   3.689  30.702  19.958  0.2377 -0.0220 -0.1566
17309W        W60226   2.657  32.709  17.411 -0.0753  0.0125 -0.0095
17310W        W60227   4.293  33.282  15.591  0.1034  0.0150 -0.2491
17311W        W60228   3.255  29.324  16.416 -0.0054  0.1794  0.1713
17312W        W60229   3.639  29.714  17.223 -0.0112  0.2972 -0.1664
17313W        W60230   1.600  28.664  19.495  0.3206  0.1660 -0.1205
17314W        W60231   2.730  32.248  17.848  0.2241  0.2143 -0.0172
17315W        W60232   2.680  28.092  18.630 -0.1139  0.0561 -0.1676
17316W        W60233   2.978  32.408  19.104  0.0764 -0.1197 -0.5317
17317W        W60234   3.456  31.669  18.451  0.1627  0.0901  0.2163
17318W        W60235   2.937  29.746  18.765 -0.2472  0.1506  0.0097
17319W        W60236   1.565  31.497  18.904  0.3812  0.0532 -0.0123
17320W        W60237  34.298  28.612  17.221  0.0792  0.1069  0.0641
17321W        W60238   5.274  32.137  15.376  0.1126 -0.1169 -0.1058
17322W        W60239   4.715  32.921  16.731  0.1399  0.2288 -0.1654
17323W        W60240   4.323  33.006  16.014 -0.1304  0.1201  0.1778
17324W        W60241   1.172  32.033  17.731 -0.0706 -0.0655 -0.1103
17325W        W60242   0.212  30.154  18.593 -0.1415 -0.3142 -0.0252
17326W        W60243   1.882  31.573  20.632 -0.1465  0.1033  0.0200
17327W        W60244   3.114  29.688  18.253  0.1879 -0.0966 -0.3907
17328W        W60245   4.576  29.965  19.135 -0.1942  0.0993  0.1045
17329W        W60246   1.523  29.967  18.795  0.4151 -0.1608 -0.1362
17330W        W60247   4.708  30.431  17.820  0.2767 -0.0029 -0.0999
17331W        W60248   0.972  30.008  17.885 -0.1978  0.1538  0.0805
17332W        W60249   2.024  32.710  18.121  0.3453  0.0615  0.1441
17333W        W60250   4.000  29.987  19.185  0.0570  0.0272 -0.0518
17334W        W60251   2.526  31.004  20.424 -0.1268  0.1196 -0.0894
17335W        W60252   4.164  28.910  18.437 -0.0200 -0.1448 -0.1652
17336W        W60253   1.912  31.126  16.000  0.2958  0.1102  0.1876
17337W        W60254   3.460  29.112  18.097 -0.0959 -0.1059 -0.0687
17338W        W60255   3.248  32.541  16.517  0.0909  0.1982 -0.2006
17339W        W60256   3.355  30.835  15.895  0.1946  0.1905 -0.1320
17340W        W60257   1.024  30.843  17.815 -0.0697  0.1685 -0.0870
17341W        W60258   1.917  31.283  19.892  0.1153 -0.1484 -0.0233
17342W        W60259   3.137  30.963  18.716  0.1717 -0.1031  0.3175
17343W        W60260   0.352  32.687  16.747 -0.3504 -0.1836 -0.0718
17344W        W60261   1.704  31.231  18.212 -0.1070  0.1022 -0.2670
17345W        W60262   0.434  33.025  17.732  0.2512 -0.0697  0.2716
17346W        W60263   0.699  29.939  19.323 -0.2304  0.1384 -0.3376
17347W        W60264   3.733  29.177  19.015  0.3105 -0.1517 -0.1031
17348W        W60265   5.604  29.261  17.849 -0.2429  0.1229 -0.0199
17349W        W60266   1.026  29.702  19.652 -0.2693  0.0472 -0.1094
17350W        W60267   4.310  30.775  16.266 -0.2425 -0.1818 -0.1851
17351W        W60268   1.641  32.423  19.284  0.1683  0.1182  0.0540
17352W        W60269   4.080  34.238  18.320  0.0708 -0.0397 -0.1819
17353W        W60270   1.603  30.353  16.472  0.0524  0.0210  0.2370
17354W        W60271   2.928  32.213  15.264 -0.1135 -0.1165  0.0432
17355W        W60272   1.226  29.832  19.219  0.0247 -0.0246 -0.1113
17356W        W60273  34.511  30.941  17.181 -0.0147  0.0038  0.2816
17357W        W60274   3.249  30.548  20.009  0.1861 -0.2740  0.3619
17358W        W60275   1.015  30.466  18.160 -0.0441 -0.0167  0.0724
17359W        W60276   2.710  31.663  19.420 -0.3627  0.1917 -0.1544
17360W        W60277   2.730  30.290  16.829  0.0842  0.0810 -0.1459
17361W        W60278   3.502  30.181  17.291  0.1022  0.1663  0.0032
17362W        W60279   0.921  30.048  18.861 -0.4026 -0.0341 -0.0381
17363W        W60280  34.492  33.079  17.644 -0.0951  0.0938 -0.3597
17364W        W60281   1.593  28.724  21.492  0.0572  0.0167 -0.1787
17365W        W60282   2.338  32.347  18.341 -0.0647 -0.1854 -0.2133
17366W        W60283   4.312  32.256  19.838 -0.1793 -0.0646 -0.0026
17367W        W60284   3.979  32.366  16.564  0.2328  0.0964  0.2867
17368W        W60285   2.348  28.096  20.106 -0.3042 -0.0582 -0.1237
17369W        W60286   1.019  31.060  15.812 -0.0357 -0.0739 -0.3331
17370W        W60287   0.652  34.018  18.046 -0.2260  0.1353 -0.0066
17371W        W60288   3.020  31.461  17.616 -0.0282 -0.2675 -0.1811
17372W        W60289   2.226  30.019  15.878  0.0960 -0.0274 -0.3857
17373W        W60290   4.466  32.548  17.991 -0.0726  0.0461  0.1386
17374W        W60291   2.591  32.846  16.903 -0.0602 -0.1200  0.2056
17375W        W60292   2.520  29.836  17.763 -0.1763 -0.3796 -0.0325
17376W        W60293   3.798  27.722  19.692 -0.0166 -0.0016 -0.3963
17377W        W60294   4.314  30.448  19.369 -0.0204 -0.0472 -0.0914
17378W        W60295   5.794  30.624  17.181 -0.1174  0.1434 -0.1362
17379W        W60296   1.971  29.312  16.016 -0.0824 -0.0042  0.1177
17380W        W60297   3.134  34.413  15.989  0.1974  0.0789 -0.2148
17381W        W60298   0.934  32.235  16.722 -0.1418 -0.1131 -0.3487
17382W        W60299   0.874  31.375  16.551  0.0293 -0.0528 -0.1722
17383W        W60300   1.877  30.653  18.804 -0.1395 -0.0885 -0.1199
17384W        W60301   2.459  30.058  16.412  0.0174  0.0766  0.1658
17385W        W60302  33.521  32.162  19.776 -0.6023  0.3345 -0.3816
17386W        W60303   3.713  29.353  19.468 -0.2470 -0.0634  0.3188
17387W        W60304   1.406  32.124  16.588  0.0971 -0.3537  0.0055
17388W        W60305  33.047  31.718  20.437  0.0148  0.0418  0.2320
17389W        W60306   3.351  28.843  17.086 -0.0475 -0.2371 -0.0981
17390W        W60307   4.041  29.867  16.435 -0.0300 -0.2355  0.2818
17391W        W60308   1.406  32.526  18.761  0.0663 -0.1459  0.2260
17392W        W60309   4.508  29.409  18.556 -0.1168 -0.2444  0.2809
17393W        W60310   2.635  31.295  17.084  0.0981 -0.2225  0.1326
17394W        W60311   2.877  30.956  16.278 -0.1609 -0.0518  0.2277
17395W        W60312   1.220  32.117  19.768 -0.2004  0.3135 -0.1098
17396W        W60313   1.460  30.310  17.990  0.0970  0.0314  0.2564
17397W        W60314   2.222  30.372  19.080 -0.3508  0.2094 -0.4451
17398W        W60315   1.960  30.855  16.427 -0.0959  0.0708  0.1861
17399W        W60316   1.897  32.190  16.830  0.0443  0.0220 -0.0318
17400W        W60317   0.594  32.237  20.491  0.0305 -0.1754  0.2268
17401W        W60318   1.995  27.822  19.233  0.0377  0.0728 -0.1044
17402W        W60319   2.654  31.708  17.316  0.0009 -0.1018  0.0018
17403W        W60320   2.915  27.989  17.484 -0.4364 -0.0640 -0.1810
17404W        W60321   2.531  30.252  15.568  0.0376  0.2745  0.3934
17405W        W60322   2.865  30.903  19.223  0.1748  0.1375 -0.1531
17406W        W60323   0.277  33.908  16.917  0.0783  0.1173 -0.2590
17407W        W60324   4.206  30.761  18.973 -0.1447  0.0406  0.0334
17408W        W60325   2.948  27.680  18.748 -0.1668  0.1111  0.0283
17409W        W60326   1.257  27.258  19.791  0.0063  0.2025  0.0910
17410W        W60327   1.872  29.248  20.813 -0.5048  0.2215 -0.1179
17411W        W60328   3.578  31.140  18.374  0.1501  0.1571 -0.3369
17412W        W60329   0.637  31.147  17.820 -0.4405  0.1452  0.0636
17413W        W60330  34.658  29.560  18.907  0.0215  0.2364 -0.0003
17414W        W60331   3.913  29.522  18.661 -0.3497 -0.2948 -0.3623
17415W        W60332   1.443  29.107  19.762 -0.2990  0.1996 -0.2046
17416W        W60333  34.323  30.666  17.581 -0.1339  0.2230  0.0968
17417W        W60334   3.477  29.962  19.405  0.0616 -0.0506  0.0783
17418W        W60335   2.744  32.043  16.235 -0.0204  0.1787 -0.0008
17419W        W60336   2.698  28.861  19.443 -0.2494 -0.0771  0.1489
17420W        W60337   2.559  29.298  17.082 -0.3615  0.3949 -0.2964
17421W        W60338   2.259  32.409  17.696 -0.1754  0.2678 -0.2234
17422W        W60339   2.092  31.540  15.398 -0.0321 -0.1011  0.3400
17423W        W60340   2.813  29.528  17.405  0.2201  0.3789 -0.0808
17424W        W60341   3.635  31.791  19.430 -0.0511  0.2582  0.1208
17425W        W60342   2.244  32.223  16.433  0.0087 -0.1826  0.2138
17426W        W60343   4.849  31.590  18.626  0.1252  0.0869 -0.1359
17427W        W60344   0.678  32.456  17.091  0.1203 -0.3216  0.0166
17428W        W60345   3.451  27.620  18.735  0.4649 -0.1511  0.4080
17429W        W60346  34.070  34.059  19.685 -0.0367 -0.0253  0.1387
17430W        W60347   1.861  29.977  16.609  0.2851 -0.1311 -0.2156
17431W        W60348   2.003  31.416  16.384 -0.1226  0.2110  0.2409
17432W        W60349   3.169  31.861  15.999 -0.0162  0.0037  0.2891
17433W        W60350   5.360  32.233  16.755 -0.3592  0.3013 -0.3487
17434W        W60351   0.959  29.145  18.185  0.2076 -0.3947 -0.0771
17435W        W60352  33.961  28.255  17.463 -0.1696 -0.0128 -0.2404
17436W        W60353   1.057  31.599  18.912 -0.0038  0.2544 -0.0337
17437W        W60354   2.145  31.065  18.618 -0.0479  0.0062  0.0445
17438W        W60355   3.141  29.838  17.241 -0.1088 -0.0215  0.0302
17439W        W60356   3.357  32.120  17.207 -0.2250 -0.2818  0.2691
17440W        W60357   1.147  30.528  20.088 -0.1898 -0.0261 -0.2439
17441W        W60358   1.197  29.672  16.107  0.0994  0.0559 -0.2587
17442W        W60359   2.948  30.148  18.490  0.2010 -0.1626 -0.5674
17443W        W60360   1.483  30.800  16.725 -0.1360 -0.2164 -0.0192
17444W        W60361   0.735  31.396  17.369 -0.0952  0.0246  0.1646
17445W        W60362   2.309  31.392  19.496 -0.2630 -0.0593  0.1617
17446W        W60363   0.262  30.647  17.977  0.0995 -0.2060  0.0841
17447W        W60364   1.622  31.052  18.710  0.2435 -0.1335 -0.0385
17448W        W60365  34.343  32.203  21.670  0.2664 -0.2851  0.1850
17449W        W60366   3.636  29.680  19.004  0.2617 -0.1362 -0.2618
17450W        W60367   1.908  30.443  17.861  0.0562 -0.2928  0.0137
17451W        W60368   2.234  29.689  17.146  0.0831 -0.5909  0.1625
17452W        W60369   3.526  27.854  20.408  0.4207  0.1058  0.1782
17453W        W60370   2.492  29.618  18.887  0.1881 -0.3634 -0.2785
17454W        W60371   2.495  30.073  18.731 -0.3181 -0.5217  0.0217
17455W        W60372   0.617  32.100  19.753  0.0685  0.0020  0.1385
17456W        W60373   3.171  28.508  18.746  0.0514 -0.0790 -0.0664
17457W        W60374   3.667  32.766  16.510 -0.2761 -0.1783 -0.1081
17458W        W60375   3.394  31.897  18.917 -0.0884  0.2782  0.1887
17459W        W60376   2.354  32.040  15.901 -0.1005  0.1699 -0.0250
17460W        W60377   0.641  31.325  19.054  0.1247 -0.0217 -0.2078
17461W        W60378   2.663  31.097  18.507 -0.0427 -0.0825  0.0702
17462W        W60379   3.137  27.409  18.165  0.1360 -0.1930  0.1149
17463W        W60380   1.585  31.827  17.536 -0.3186 -0.1709  0.0975
17464W        W60381   1.780  32.394  16.400  0.0008  0.1695  0.1582
17465W        W60382   3.648  32.748  19.098 -0.3840  0.1025  0.1005
17466W        W60383   3.740  29.413  16.496  0.0386  0.1535 -0.1642
17467W        W60384   4.978  31.505  16.370 -0.0060 -0.1130 -0.1501
17468W        W60385   2.674  28.917  20.443  0.0613  0.1419 -0.0946
17469W        W60386   5.251  28.469  19.458 -0.0417 -0.2913  0.2256
17470W        W60387   2.367  31.722  16.287 -0.2202  0.0447 -0.1051
17471W        W60388   3.490  28.574  19.835  0.0852  0.0154 -0.0330
17472W        W60389   2.330  29.209  18.536  0.3427  0.0356 -0.2916
17473W        W60390   3.509  32.196  18.473  0.1829  0.3538 -0.2038
17474W        W60391   0.516  30.426  19.525  0.1549  0.0481 -0.1800
17475W        W60392   2.208  31.908  19.449 -0.0696 -0.1473  0.1412
17476W        W60393   1.609  31.265  20.326  0.1862 -0.0598 -0.0292
17477W        W60394   2.367  30.665  18.059  0.0556 -0.2333  0.0572
17478W        W60395   2.801  30.928  15.793  0.0474  0.0468 -0.1558
17479W        W60396   5.201  28.966  19.653  0.0789 -0.0899  0.1219
17480W        W60397   2.874  33.977  15.759  0.1049 -0.1586  0.2595
17481W        W60398   1.913  32.897  17.055 -0.4866  0.1521 -0.6014
17482W        W60399   3.922  29.831  19.641  0.0034 -0.0292  0.1358
17483W        W60400   1.891  30.719  18.299 -0.0681  0.0225  0.5156
17484W        W60401   2.353  30.521  18.507 -0.2708  0.2677 -0.0631
17485W        W60402   2.714   0.660  16.977 -0.0150  0.0498  0.0211
17486W        W60403   2.264  30.130  16.888  0.1461 -0.2506  0.0553
17487W        W60404   1.036  28.557  18.278 -0.0665  0.0483 -0.1000
17488W        W60405   3.007  28.166  17.966 -0.1411 -0.0805  0.0700
17489W        W60406   1.885  31.250  16.905 -0.1498  0.3374  0.0850
17490W        W60407   2.543  27.988  20.536 -0.0255 -0.1759  0.0187
17491W        W60408   3.339  29.550  19.728  0.1686  0.0623  0.1991
17492W        W60409   2.431  30.818  18.924  0.0453 -0.1808 -0.0358
17493W        W60410   0.117  29.414  20.861 -0.1634  0.0680  0.0342
17494W        W60411   2.428  31.529  18.605 -0.2082 -0.0521 -0.0467
17495W        W60412   5.217  31.126  16.674 -0.2261 -0.1526 -0.2730
17496W        W60413   4.240  30.214  16.826  0.0510  0.2004 -0.2471
17497W        W60414   2.738  30.907  17.485  0.2868  0.2768 -0.0582
17498W        W60415   2.369  31.256  17.643 -0.0716 -0.2849 -0.2808
17499W        W60416   1.705  29.728  19.195  0.1279  0.3232  0.1582
17500W        W60417   3.631  30.332  19.050 -0.1695 -0.0105  0.4270
17501W        W60418   0.439  29.701  16.769 -0.2860  0.1399  0.2164
17502W        W60419   3.762  27.878  21.367 -0.1515  0.2118  0.2901
17503W        W60420   1.863  33.120  15.792 -0.2187 -0.2027 -0.0644
17504W        W60421   4.097  31.882  19.006 -0.2711 -0.2608 -0.0836
17505W        W60422   3.097  30.700  16.810 -0.2537 -0.1150  0.0045
17506W        W60423   1.411  31.205  17.859 -0.1284 -0.1970  0.2573
17507W        W60424   1.820  32.749  19.609  0.1558 -0.1813  0.0324
17508W        W60425   0.176  28.256  16.344  0.3944 -0.0972 -0.0492
17509W        W60426   1.546  30.776  17.693  0.1992 -0.3161 -0.1471
17510W        W60427   2.663  31.582  21.099  0.0175 -0.2446  0.3695
17511W        W60428   4.357  31.467  19.224  0.2571  0.2286 -0.2335
17512W        W60429   3.272  30.457  16.374 -0.1978 -0.0184  0.4051
17513W        W60430   3.254  30.153  20.803  0.1184 -0.0762  0.0143
17514W        W60431   1.000  31.767  16.806 -0.3326 -0.2667  0.0230
17515W        W60432   3.657  27.316  18.336  0.0086  0.1394  0.3179
17516W        W60433   0.934  32.547  19.724  0.1510  0.0920 -0.0802
17517W        W60434   1.001  32.560  17.993  0.1166  0.2327 -0.0148
17518W        W60435   1.597   0.749  17.740  0.0949  0.1480 -0.2945
17519W        W60436   2.830  29.345  18.507  0.1742 -0.0212  0.2084
17520W        W60437   2.377  29.418  17.546 -0.2144 -0.1272  0.1855
17521W        W60438   3.782  30.836  17.761 -0.0018 -0.1098 -0.1968
17522W        W60439   4.582  29.871  17.938 -0.2027 -0.1685 -0.1824
17523W        W60440   1.212  30.026  18.360  0.1165 -0.0187 -0.1585
17524W        W60441   1.351  30.815  18.209 -0.0165 -0.1925  0.1101
17525W        W60442   3.954  31.693  17.789 -0.1017  0.0558 -0.0835
17526W        W60443   4.949  32.850  17.262 -0.1301 -0.2327  0.3314
17527W        W60444   2.201  30.924  17.096  0.0572  0.0875  0.0614
17528W        W60445  33.955  29.146  21.246  0.2635 -0.0248  0.0315
17529W        W60446   3.332  30.488  18.632  0.3148  0.0645 -0.1432
17530W        W60447   3.025  31.513  18.677  0.0121  0.1503  0.0976
17531W        W60448   2.884  29.815  16.399  0.0147 -0.0903  0.3214
17532W        W60449   2.135  32.017  17.259 -0.2853 -0.2398 -0.3355
17533W        W60450   0.618  33.564  21.364 -0.0523  0.0414  0.2242
17534W        W60451   0.970  29.957  21.332  0.0406  0.3643 -0.2922
17535W        W60452   1.247  31.591  17.197  0.0751  0.2541  0.2432
17536W        W60453   3.938  31.706  16.587  0.2978 -0.1931  0.0721
17537W        W60454   3.050  32.478  17.080  0.1955 -0.0562  0.0058
17538W        W60455   3.276  34.559  17.463 -0.0456 -0.0575  0.0665
17539W        W60456   3.340  29.688  16.764  0.1478 -0.4371 -0.3116
17540W        W60457   0.843  32.268  18.834 -0.0365  0.1042  0.0533
17541W        W60458  34.397  31.233  16.181  0.1992 -0.0717  0.0775
17542W        W60459   2.737  31.577  16.033 -0.0710 -0.3856 -0.3632
17543W        W60460  34.507  33.482  16.569  0.0679 -0.0222 -0.0477
17544W        W60461   2.613  32.229  17.349 -0.2653 -0.0750 -0.0466
17545W        W60462   3.757  29.432  17.737 -0.2555  0.0628 -0.0879
17546W        W60463   2.745  32.495  16.609  0.1139 -0.3042 -0.3185
17547W        W60464   2.982  31.970  17.523  0.1304  0.3795  0.1405
17548W        W60465   1.041  33.431  19.045 -0.1471 -0.3157 -0.0923
17549W        W60466   2.588  30.415  17.604 -0.2566  0.1204  0.3378
17550W        W60467   2.305  29.488  19.485 -0.0631 -0.3031 -0.0759
17551W        W60468   2.101  32.324  20.584 -0.4647 -0.1160  0.2768
17552W        W60469   4.251  29.813  18.759 -0.0563 -0.1519  0.2470
17553W        W60470   0.204  32.344  19.604 -0.1925  0.2098  0.2111
17554W        W60471   3.902  33.492  17.201 -0.0680 -0.1045 -0.2025
17555W        W60472   1.563  31.183  16.408  0.3213  0.1412 -0.0112
17556W        W60473   2.848  30.618  18.312 -0.2783  0.4135 -0.1603
17557W        W60474   5.003  31.177  18.833  0.0192  0.0619  0.0467
17558W        W60475   2.388  31.914  17.725  0.2154  0.2636 -0.0726
17559W        W60476   2.724  29.263  19.090 -0.2035  0.2270 -0.4207
17560W        W60477  34.651  32.697  17.118 -0.1306  0.3700 -0.1269
17561W        W60478   1.382  32.052  17.128  0.1889 -0.0477  0.0096
17562W        W60479   0.724  31.903  18.529  0.0552  0.0204  0.1879
17563W        W60480   1.503  30.079  16.953 -0.1399  0.4221  0.0987
17564W        W60481   2.647  28.933  18.302  0.2916 -0.0828 -0.0054
17565W        W60482   1.493  28.907  20.931 -0.1688 -0.6998 -0.1367
17566W        W60483   4.055  31.151  18.044  0.1969  0.0457  0.3392
17567W        W60484   0.033  30.065  16.731 -0.2258 -0.2622 -0.2160
17568W        W60485   2.129  30.181  17.443 -0.2100 -0.0786  0.0003
17569W        W60486   2.005  29.894  19.645  0.0473 -0.0139  0.1002
17570W        W60487   1.753  29.534  18.703 -0.1478 -0.1822 -0.1449
17571W        W60488   3.590  31.333  17.436  0.0968 -0.0452  0.0611
17572W        W60489   2.945  29.763  19.240 -0.2682 -0.0994 -0.1276
17573W        W60490   2.032  29.856  17.817 -0.0027 -0.0100 -0.0156
17574W        W60491   0.518  32.592  18.019 -0.0547  0.0990 -0.0257
17575W        W60492   0.625  30.314  20.074 -0.1328 -0.4323  0.1235
17576W        W60493   3.563  28.945  17.593 -0.0974  0.1785  0.2002
17577W        W60494   2.206  32.525  17.014  0.0846  0.0161 -0.0397
17578W        W60495   3.031  29.231  20.192 -0.0508 -0.0326 -0.0456
17579W        W60496   2.579  32.770  17.879  0.0511  0.2371  0.2159
17580W        W60497   1.071  30.905  16.385  0.0885 -0.1883 -0.3141
17581W        W60498   3.400  32.172  15.544  0.0902 -0.1457  0.0185
17582W        W60499   4.776  30.817  18.456  0.0800 -0.0483 -0.4983
17583W        W60500   2.012  32.758  16.055  0.2288  0.0164  0.2404
17584W        W60501   1.762  29.859  18.362  0.1165 -0.1759  0.0990
17585W        W60502   4.786  34.077  16.818 -0.0708 -0.3237  0.2727
17586W        W60503  34.403  28.625  19.678  0.1723  0.0379  0.0110
17587W        W60504   3.446  34.424  16.829 -0.0199 -0.2084 -0.0796
17588W        W60505   4.849  31.139  19.423 -0.1449 -0.1130 -0.0186
17589W        W60506   2.764  30.476  16.386 -0.0984  0.2776 -0.2595
17590W        W60507   0.505  30.189  16.745  0.0089 -0.0458  0.1099
17591W        W60508   1.675  30.828  17.183 -0.0221 -0.0508 -0.0460
17592W        W60509   4.601  29.799  17.045  0.0440  0.0511  0.0353
17593W        W60510   3.848  28.870  21.533 -0.4176 -0.0099 -0.1939
17594W        W60511   2.665  32.708  15.662 -0.0232  0.0013  0.4390
17595W        W60512   2.673  29.380  17.940 -0.1023  0.1683 -0.1943
17596W        W60513   1.068  32.778  18.438 -0.2358 -0.0094 -0.2645
17597W        W60514   1.678  33.017  20.547 -0.1535  0.4084  0.1330
17598W        W60515   1.110  31.314  15.354 -0.1704 -0.1251  0.1448
17599W        W60516   2.799  29.701  16.878  0.5108  0.3661 -0.3854
17600W        W60517   1.677  34.235  17.458  0.1776 -0.2278 -0.0102
17601W        W60518   4.466  32.477  16.230  0.0621  0.6285  0.0088
17602W        W60519   2.664  31.579  17.973  0.2355 -0.2806 -0.0958
17603W        W60520   1.016  30.507  16.694 -0.0590  0.0423 -0.3619
17604W        W60521   3.535  32.042  16.663  0.3751  0.1849  0.4761
17605W        W60522   3.207  30.176  16.887 -0.3957  0.2290  0.1380
17606W        W60523   4.981  28.975  17.221 -0.3704  0.2224 -0.1427
17607W        W60524   3.668  26.837  16.491 -0.1455  0.1050 -0.1730
17608W        W60525   2.225  29.411  18.071 -0.0134 -0.1570 -0.0074
17609W        W60526   0.601  30.891  15.994 -0.1235  0.2922 -0.0909
17610W        W60527   1.180  31.700  15.775 -0.0637  0.1922 -0.1383
17611W        W60528   3.709  31.797  17.189 -0.0179  0.0122 -0.0030
17612W        W60529   1.316  27.929  20.123  0.0009  0.2216  0.0738
17613W        W60530   2.111  32.353  19.776  0.2311  0.0682 -0.1915
17614W        W60531   0.057  30.890  20.270  0.0618  0.2801  0.2651
17615W        W60532   2.246  31.245  18.159 -0.1149  0.1806 -0.2082
17616W        W60533   2.495  33.222  16.585  0.0199 -0.3232 -0.0602
17617W        W60534   1.284  26.674  19.546  0.1958  0.0672  0.0103
17618W        W60535  34.260  30.518  18.676 -0.1209  0.0097  0.1547
17619W        W60536   3.748  34.205  17.561  0.0990  0.0254 -0.2465
17620W        W60537   5.013  33.297  16.110  0.1480 -0.0045 -0.0143
17621W        W60538   2.113  29.316  19.014  0.1617  0.2198  0.1753
17622W        W60539   4.196  29.616  18.200  0.0488 -0.2174  0.1578
17623W        W60540   1.329  31.237  16.846 -0.1790  0.1111 -0.4497
17624W        W60541   1.585  29.617  19.684  0.2942  0.2676  0.2666
17625W        W60542   2.097  27.805  21.977  0.3631 -0.2261 -0.0164
17626W        W60543   1.435  29.284  15.932  0.2218 -0.4157  0.0653
17627W        W60544   2.576  29.883  19.638 -0.0421  0.1383  0.0170
17628W        W60545   3.260   0.225  15.954  0.1587 -0.1602 -0.1580
17629W        W60546   3.291  32.952  16.821 -0.0646 -0.0818  0.1763
17630W        W60547   2.900  29.740  20.022 -0.1317  0.0869  0.0989
17631W        W60548   2.177  30.681  17.514 -0.0565  0.3511 -0.4721
17632W        W60549   1.492  28.531  19.989  0.2463 -0.0206 -0.3127
17633W        W60550   3.057  32.843  17.673 -0.0961 -0.2941  0.3117
17634W        W60551   1.413  30.820  19.122 -0.1084  0.1264  0.1633
17635W        W60552   3.031  30.453  17.265  0.1919  0.1808  0.0925
17636W        W60553   3.266  30.189  18.139  0.1596 -0.2439  0.1891
17637W        W60554   1.960  31.750  15.823  0.0690 -0.2092 -0.1895
17638W        W60555   2.027  27.905  19.774 -0.1422  0.1173  0.1874
17639W        W60556   0.303  31.650  18.349  0.2000  0.1543 -0.0684
17640W        W60557   4.879  28.967  19.255  0.3992  0.2142  0.0955
17641W        W60558  34.453  29.810  17.114 -0.1031  0.1857 -0.2006
17642W        W60559   3.800  28.714  18.152  0.1757  0.0703  0.0650
17643W        W60560   2.953  32.067  18.712 -0.0800  0.2668  0.1414
17644W        W60561   2.359  30.306  19.613  0.2660 -0.0502  0.0110
17645W        W60562   2.907  28.997  17.379  0.0292 -0.1042 -0.1388
17646W        W60563   3.281  29.029  18.897  0.0281  0.2089  0.2341
17647W        W60564   1.957  31.523  18.564 -0.0783  0.1220 -0.2660
17648W        W60565   5.375  31.662  18.691 -0.1363  0.1482  0.2827
17649W        W60566   1.835  32.493  17.320 -0.2532  0.0830  0.1049
17650W        W60567   3.408  30.957  16.426  0.3079  0.2531 -0.3006
17651W        W60568   2.616  31.887  19.000  0.2058 -0.2400 -0.1649
17652W        W60569  34.649  33.039  20.824 -0.2078  0.0690 -0.3380
17653W        W60570   2.486  32.681  19.811  0.2307  0.2465 -0.0543
17654W        W60571   3.506  30.022  18.535  0.1774  0.1574  0.0649
17655W        W60572  34.302  31.164  20.055 -0.1916  0.2681 -0.2838
17656W        W60573   1.038  31.813  16.298  0.0930 -0.1952 -0.0027
17657W        W60574   3.655  32.639  15.628 -0.2059 -0.1101  0.0895
17658W        W60575   4.579  29.078  17.574 -0.1412  0.2194  0.0275
17659W        W60576   1.283  30.015  17.385  0.4497  0.0609 -0.1475
17660W        W60577   1.414  29.836  17.882  0.2262  0.0554  0.0010
17661W        W60578   1.594  33.931  18.950  0.1166  0.0820 -0.0486
17662W        W60579   4.116  29.322  21.545 -0.1004 -0.0271  0.0715
17663W        W60580   2.440  32.152  24.879 -0.2758  0.2812  0.0201
17664W        W60581   1.891  31.074  20.692 -0.0380  0.1412  0.1589
17665W        W60582   4.820  29.884  18.610  0.0747 -0.0196 -0.0120
17666W        W60583   2.669  29.956  20.414 -0.3671  0.0067  0.0475
17667W        W60584   1.856  30.770  20.236  0.1261  0.1030 -0.0968
17668W        W60585   2.788  33.805  21.874  0.1009 -0.0390 -0.0068
17669W        W60586   2.622  30.610  23.597  0.0672 -0.1500 -0.1359
17670W        W60587   3.128  31.654  22.780  0.4448  0.1998  0.1656
17671W        W60588   2.661  34.055  22.341  0.0691 -0.0563  0.0191
17672W        W60589   2.194  29.890  19.191  0.1099  0.0663  0.1203
17673W        W60590   1.304  29.352  23.647  0.3031  0.3666 -0.2521
17674W        W60591   1.549  32.354  24.601 -0.1261 -0.1073 -0.2445
17675W        W60592   1.507  27.769  19.281  0.1887 -0.1255  0.0372
17676W        W60593  34.135  29.467  22.519 -0.1260  0.0162 -0.0793
17677W        W60594   3.435  30.476  21.297  0.1480  0.0451  0.2437
17678W        W60595   3.090  31.775  19.855  0.2257  0.1087 -0.1509
17679W        W60596   1.085  29.408  21.461  0.1734 -0.1495 -0.1469
17680W        W60597   2.360  31.276  20.926 -0.1814 -0.1860 -0.0506
17681W        W60598   3.686  32.054  20.250  0.2204 -0.0028  0.0748
17682W        W60599   1.054  28.518  23.809 -0.2377  0.1743  0.0366
17683W        W60600   1.986  30.394  20.521  0.0071 -0.1278 -0.1325
17684W        W60601   1.771  32.512  21.527  0.0114  0.0607  0.2484
17685W        W60602   1.062  31.373  19.740  0.1618 -0.1111  0.0781
17686W        W60603   1.033  29.351  24.438 -0.0901  0.0436  0.1879
17687W        W60604  34.627  30.905  24.959  0.0879 -0.1241  0.3704
17688W        W60605   2.498  29.199  19.958 -0.0529  0.2224  0.3732
17689W        W60606   3.342  30.876  19.660 -0.0387  0.2769 -0.0247
17690W        W60607   1.235  32.290  22.975 -0.1217 -0.0430  0.2395
17691W        W60608   2.547  32.632  20.716  0.1642  0.0983 -0.1465
17692W        W60609   0.564  29.834  23.754  0.2093 -0.1447  0.1627
17693W        W60610   0.551  31.855  21.578 -0.0496 -0.0715 -0.1987
17694W        W60611  33.782  32.053  23.224 -0.3757  0.1339  0.4004
17695W        W60612   1.985  33.875  19.334 -0.0347 -0.0464  0.0236
17696W        W60613   3.483  32.740  19.605 -0.1281  0.2497  0.2554
17697W        W60614   4.039  31.632  22.977 -0.0899  0.1016  0.2337
17698W        W60615   2.832  30.497  24.634  0.0557 -0.0095  0.0590
17699W        W60616   1.113  31.421  20.252 -0.2647 -0.3081  0.3316
17700W        W60617   1.930  32.623  23.185  0.0097  0.0251 -0.0419
17701W        W60618  34.650  31.997  23.707 -0.3708  0.1799 -0.0724
17702W        W60619   3.116  31.346  21.081 -0.0097  0.1115  0.1393
17703W        W60620   0.309  31.377  21.389 -0.1659 -0.2080 -0.2503
17704W        W60621   1.755  32.004  18.381 -0.1216 -0.2202 -0.0091
17705W        W60622   2.505  30.661  21.335 -0.1827 -0.6015  0.0025
17706W        W60623   2.427  31.105  24.437 -0.0276  0.0811 -0.1716
17707W        W60624   1.036  30.283  22.667  0.2077 -0.1892  0.2900
17708W        W60625   3.696  29.248  24.215 -0.1548 -0.0364  0.0194
17709W        W60626   1.701  31.227  21.560 -0.2228 -0.1692 -0.0654
17710W        W60627   4.127  29.506  19.216  0.1769 -0.1025  0.0222
17711W        W60628   1.286  29.554  20.085 -0.0871 -0.0039  0.0249
17712W        W60629   2.976  30.461  20.465 -0.0243 -0.0997 -0.0395
17713W        W60630   0.607  31.440  21.059  0.0817  0.3153  0.2663
17714W        W60631   2.107  32.650  20.190 -0.3077 -0.5793 -0.1428
17715W        W60632   2.036  29.012  21.915  0.5756 -0.3845 -0.3444
17716W        W60633   1.331  31.417  23.296 -0.1441  0.2476  0.1923
17717W        W60634   2.289  30.739  20.840 -0.1083 -0.1682  0.0468
17718W        W60635   1.303  29.330  23.116  0.0760 -0.3711 -0.3091
17719W        W60636  34.651  32.644  23.349  0.1517 -0.4853  0.1627
17720W        W60637   0.141  29.977  24.572  0.3488 -0.0962 -0.0013
17721W        W60638   4.979  31.523  19.765  0.3333 -0.2401  0.0076
17722W        W60639   2.961  33.004  21.332 -0.1375  0.2625 -0.4812
17723W        W60640   3.269  32.234  19.983  0.2859  0.5145  0.0292
17724W        W60641  34.313  29.582  23.382  0.3553  0.0398 -0.1966
17725W        W60642   1.406  30.195  24.236  0.0538 -0.4126  0.1961
17726W        W60643   0.238  28.673  24.247  0.1432 -0.1250  0.1142
17727W        W60644   1.203  28.372  20.388  0.1533  0.0406 -0.0907
17728W        W60645   2.524  31.088  22.185 -0.3204 -0.0250 -0.0070
17729W        W60646   0.646  33.636  22.950  0.0609 -0.1452 -0.1697
17730W        W60647   2.228  29.464  21.610  0.1994  0.0875  0.2889
17731W        W60648   1.206  29.800  21.760 -0.2360  0.0116  0.1301
17732W        W60649   4.601  32.588  23.943  0.0425 -0.0275  0.0937
17733W        W60650   4.712  30.737  19.138 -0.0568 -0.0041  0.0853
17734W        W60651   2.271  29.435  21.069 -0.2076 -0.0227  0.1635
17735W        W60652   1.722  28.112  22.060  0.0880  0.1863  0.2187
17736W        W60653   1.219  29.543  18.782 -0.0072 -0.2171  0.0351
17737W        W60654   2.456  32.671  21.210  0.0445  0.1775 -0.2273
17738W        W60655   2.307  32.887  23.433 -0.1785 -0.0291  0.0449
17739W        W60656   4.220  29.742  20.067 -0.0939  0.0616  0.0550
17740W        W60657   0.354  31.529  23.556 -0.1385 -0.1661 -0.2535
17741W        W60658   2.042  30.963  22.190 -0.2758 -0.1771  0.1583
17742W        W60659   2.541  31.097  23.903  0.2403 -0.1694 -0.0799
17743W        W60660   0.738  32.823  20.466  0.0876 -0.0438  0.0863
17744W        W60661  33.580  29.374  22.728 -0.6143  0.1388  0.0434
17745W        W60662   1.854  31.911  21.322 -0.0978  0.0087  0.0610
17746W        W60663   0.696  27.838  22.329 -0.1690 -0.4298  0.1988
17747W        W60664   1.310  29.352  22.561 -0.0115  0.2141 -0.3323
17748W        W60665   4.322  30.142  19.760 -0.3340 -0.2220 -0.0310
17749W        W60666  32.596  28.544  23.268  0.4065 -0.2655  0.2260
17750W        W60667   2.148  29.518  23.580  0.5430  0.0933  0.1626
17751W        W60668   0.695  31.592  19.471  0.1428 -0.1945 -0.1904
17752W        W60669   2.512  32.438  18.799 -0.3082 -0.1872  0.0308
17753W        W60670   4.504  29.707  19.556  0.1514 -0.0613 -0.1924
17754W        W60671   2.910  30.547  18.879 -0.0540  0.3713  0.0905
17755W        W60672  34.273  30.032  24.806  0.3259 -0.2302  0.1101
17756W        W60673   0.565  29.388  21.165 -0.1136 -0.0769  0.0246
17757W        W60674   2.219  30.949  23.521 -0.0113  0.3536  0.1055
17758W        W60675   1.016  28.081  21.378  0.0455  0.0624  0.1135
17759W        W60676   0.961  31.431  24.120  0.1078  0.2377  0.0404
17760W        W60677  34.658  28.576  22.837  0.1544 -0.4151  0.0865
17761W        W60678   4.210  30.713  19.832 -0.0238  0.2108  0.1365
17762W        W60679   1.499  31.548  19.915 -0.3335  0.1543 -0.0595
17763W        W60680   1.354  31.853  21.037  0.1338 -0.2225  0.2325
17764W        W60681   2.906  30.046  24.929  0.2152 -0.0449 -0.0758
17765W        W60682   2.545  34.103  19.375  0.0821 -0.1748 -0.4256
17766W        W60683   3.309  33.006  21.013 -0.2511 -0.0964  0.0866
17767W        W60684   4.546  33.281  19.844  0.0206  0.0629  0.2569
17768W        W60685  33.961  28.453  22.414 -0.0958  0.1506 -0.1705
17769W        W60686   0.295  30.627  20.939  0.1337  0.2389 -0.0620
17770W        W60687   0.786  32.075  23.417 -0.1065 -0.0963  0.2023
17771W        W60688   1.451  31.834  20.423  0.0027  0.2877  0.2699
17772W        W60689   1.037  29.104  21.054 -0.1902 -0.1037 -0.0736
17773W        W60690   3.754  32.856  20.621  0.3301 -0.2233 -0.0713
17774W        W60691  33.744  29.872  22.607  0.2373 -0.0688  0.1379
17775W        W60692   0.094  32.520  24.334  0.1651  0.1640  0.2731
17776W        W60693   1.670  30.139  24.650  0.0649  0.1242  0.1909
17777W        W60694   4.299  30.474  20.736  0.1459  0.2833 -0.0480
17778W        W60695   3.442  31.364  19.880 -0.1321 -0.2432 -0.0687
17779W        W60696  34.068  29.985  21.664  0.0750  0.1664  0.1402
17780W        W60697   2.431  32.238  20.178 -0.4272 -0.0630  0.0198
17781W        W60698   0.040  33.499  21.253  0.5188  0.1293  0.2144
17782W        W60699  34.501  32.526  20.720  0.0461  0.3299 -0.6282
17783W        W60700   2.081  32.586  22.006 -0.1547  0.2376  0.0046
17784W        W60701   2.705  29.475  21.320 -0.0181 -0.0216  0.0016
17785W        W60702  33.575  30.709  23.080  0.1051  0.0452 -0.2080
17786W        W60703   2.240  31.465  23.594  0.0458  0.1738  0.3364
17787W        W60704   0.647  28.822  21.036 -0.0133  0.1459 -0.3298
17788W        W60705   1.675  31.005  22.530 -0.0297  0.1374 -0.1286
17789W        W60706   3.760  27.492  20.130 -0.2908  0.0380 -0.0964
17790W        W60707   2.868  28.429  20.479 -0.0377  0.1273 -0.0368
17791W        W60708   1.912  31.821  23.474 -0.1082 -0.1965 -0.1490
17792W        W60709   3.658  33.465  20.213  0.0455  0.2191  0.1924
17793W        W60710   1.911  28.870  19.911 -0.3844 -0.3412 -0.1911
17794W        W60711  33.327  29.436  21.920 -0.0612  0.0288  0.1924
17795W        W60712   1.802  31.952  24.344  0.2491  0.0389 -0.0976
17796W        W60713   3.130  32.201  22.737  0.1207 -0.0023  0.1741
17797W        W60714   2.827  31.041  22.636 -0.0728 -0.1314 -0.0397
17798W        W60715   3.958  32.652  19.753 -0.2561 -0.1881 -0.0246
17799W        W60716   3.292  30.396  19.394 -0.1075 -0.3259 -0.2837
17800W        W60717   0.035  32.181  22.999 -0.1212  0.0616  0.2892
17801W        W60718   1.595  28.994  25.247 -0.3734 -0.3191  0.1165
17802W        W60719   1.209  31.627  22.360  0.3752  0.1095 -0.0089
17803W        W60720   2.964  28.323  21.157 -0.0122 -0.2245 -0.0402
17804W        W60721   2.805  30.910  20.938  0.2358  0.2002 -0.0463
17805W        W60722   1.247  28.934  22.159 -0.0039  0.5070 -0.0357
17806W        W60723   0.217  32.091  20.130  0.1054 -0.0334 -0.0781
17807W        W60724   1.964  30.465  23.331  0.1648 -0.1184 -0.1656
17808W        W60725  34.661  26.993  22.473 -0.3565  0.3952  0.1015
17809W        W60726   3.101  29.198  23.522 -0.1066 -0.0615 -0.0355
17810W        W60727   2.608  30.184  24.334  0.0856 -0.1864  0.0518
17811W        W60728   3.667  30.978  21.115  0.2352 -0.3958 -0.1177
17812W        W60729   2.156  32.313  21.110 -0.1574 -0.0301 -0.2535
17813W        W60730   1.077  32.588  20.725 -0.1866 -0.0011  0.0120
17814W        W60731   3.126  30.916  21.342  0.0752 -0.2399 -0.1568
17815W        W60732   0.854  30.731  23.755  0.1406 -0.2754  0.1006
17816W        W60733   2.200  33.575  22.732  0.0450 -0.1950  0.1133
17817W        W60734   3.958  32.459  20.175  0.0282 -0.4278  0.0915
17818W        W60735   2.912  30.413  21.497 -0.0003 -0.0764  0.0598
17819W        W60736   2.382  27.397  24.572 -0.2015  0.1258 -0.0663
17820W        W60737   0.077  29.769  21.337 -0.1544  0.1687 -0.1455
17821W        W60738   3.048  31.990  19.389  0.1267 -0.2344  0.1785
17822W        W60739   0.484  32.805  18.526  0.2085 -0.0595  0.0699
17823W        W60740   1.885  26.748  20.577 -0.1297 -0.1340  0.1382
17824W        W60741   0.324  28.787  22.513 -0.0387  0.0395  0.1076
17825W        W60742   0.785  32.786  19.061 -0.3305 -0.0594  0.1188
17826W        W60743   1.707  30.386  21.777  0.0317  0.5033 -0.2764
17827W        W60744   1.372  32.189  21.541 -0.1681 -0.0432  0.1356
17828W        W60745   3.268  29.509  21.209  0.3447 -0.0118  0.1416
17829W        W60746   0.488  31.841  22.914 -0.2430 -0.0817 -0.2125
17830W        W60747   1.752  29.898  20.067  0.2359  0.2266  0.1729
17831W        W60748   0.968  31.935  20.750  0.0893 -0.0382  0.0025
17832W        W60749   4.562  29.984  20.906 -0.0776  0.1540  0.0163
17833W        W60750   2.493  32.038  21.931 -0.2982 -0.0813  0.0937
17834W        W60751   1.517  30.443  22.962  0.3012  0.0691  0.2472
17835W        W60752   2.648  30.245  21.936 -0.0913 -0.0395  0.2425
17836W        W60753   0.686  33.098  23.205  0.2636  0.2275  0.1379
17837W        W60754   3.597  30.365  22.372  0.3745 -0.4213  0.1624
17838W        W60755   2.148  30.240  20.032 -0.2043  0.0301 -0.0091
17839W        W60756   2.871  31.421  22.172  0.0889  0.1338 -0.1205
17840W        W60757   0.743  31.514  22.563 -0.0415  0.3275 -0.0846
17841W        W60758   0.823  31.307  21.509  0.1034 -0.2950 -0.1357
17842W        W60759   3.387  29.918  22.247 -0.1140 -0.2547  0.4503
17843W        W60760   2.443  30.663  19.990 -0.0480 -0.1649 -0.1043
17844W        W60761   1.808  32.043  20.828 -0.3002 -0.0358 -0.1258
17845W        W60762   4.352  31.550  21.734 -0.0484 -0.0671 -0.0230
17846W        W60763   0.650  31.631  20.447 -0.1997 -0.0188 -0.0136
17847W        W60764   0.297  30.431  22.366 -0.1012 -0.2199 -0.1152
17848W        W60765   2.979  32.005  23.383 -0.2043 -0.0199  0.2046
17849W        W60766   3.580  31.887  21.685 -0.1621  0.3456 -0.1550
17850W        W60767   1.394  31.330  20.767 -0.2048 -0.1041 -0.1956
17851W        W60768   0.583  29.678  21.564 -0.1431  0.4484 -0.1293
17852W        W60769   2.331  31.075  21.748  0.1555 -0.2348 -0.0163
17853W        W60770   3.766  30.855  20.653 -0.1651 -0.1022 -0.1751
17854W        W60771   3.038  31.156  20.574  0.1401 -0.1687  0.0381
17855W        W60772   2.565  31.870  23.652  0.3094 -0.2519  0.0667
17856W        W60773   2.536  27.896  22.846 -0.1161 -0.1331  0.3371
17857W        W60774   2.859  32.444  20.187 -0.1304 -0.2004 -0.1363
17858W        W60775   1.218  30.659  23.455 -0.0927 -0.2848  0.0553
17859W        W60776  34.460  31.815  20.123 -0.2329  0.0572 -0.0373
17860W        W60777  33.911  29.838  23.593 -0.2092  0.0116 -0.0974
17861W        W60778   1.238  30.430  21.591 -0.0865 -0.1771  0.1520
17862W        W60779   3.316  30.726  20.855 -0.2802  0.2392 -0.0887
17863W        W60780   1.294  32.350  24.215 -0.2623  0.1294 -0.0660
17864W        W60781   1.894  33.247  20.950  0.1806 -0.1250 -0.3926
17865W        W60782   0.743  32.779  22.756 -0.2438 -0.0854  0.1297
17866W        W60783   3.863  29.207  20.599  0.4352  0.1927  0.2404
17867W        W60784   2.880  34.397  21.448 -0.0683  0.2277  0.3971
17868W        W60785   2.076  29.967  22.388  0.1594 -0.1473  0.2743
17869W        W60786   4.799  28.929  23.296 -0.2044  0.0145 -0.0643
17870W        W60787   2.618  31.482  20.519 -0.0365 -0.5161  0.2480
17871W        W60788   2.408  30.168  23.198 -0.1171  0.2451  0.0035
17872W        W60789   1.947  28.724  24.056  0.2970  0.1649 -0.3732
17873W        W60790   2.363  32.919  21.674 -0.0900  0.0251  0.1450
17874W        W60791   0.991  31.262  24.702  0.0043 -0.2621  0.2745
17875W        W60792   4.369  32.341  22.775 -0.0354 -0.0649  0.3515
17876W        W60793   0.892  31.548  23.613 -0.0042  0.2518  0.1862
17877W        W60794   1.435  29.448  22.138  0.0533 -0.2277  0.1746
17878W        W60795   1.067  30.755  22.054  0.3096  0.2553  0.0762
17879W        W60796   2.730  30.778  21.768  0.1974  0.1732 -0.3270
17880W        W60797   1.737  30.469  20.980  0.0913 -0.3972  0.2419
17881W        W60798   3.458  31.323  18.841  0.0185 -0.0277 -0.3012
17882W        W60799   2.616  31.572  21.737 -0.1044  0.0150 -0.0792
17883W        W60800   2.052  28.770  22.737  0.2387 -0.0412 -0.1989
17884W        W60801   3.936  30.290  21.309 -0.0026 -0.0013 -0.1030
17885W        W60802   2.014  30.167  18.673  0.0759 -0.1283 -0.1455
17886W        W60803   2.028  30.357  21.362  0.0737  0.1104  0.0553
17887W        W60804   1.681  29.618  23.417  0.2383 -0.0960  0.4436
17888W        W60805   4.958  30.782  24.480 -0.0074  0.0724  0.1537
17889W        W60806   1.919  30.566  22.721  0.2703 -0.1229 -0.0259
17890W        W60807   1.736  31.581  23.045 -0.0766 -0.1216  0.1193
17891W        W60808   3.413  31.342  21.486 -0.3538  0.2206 -0.4566
17892W        W60809   3.630  31.651  22.641 -0.0471 -0.0783  0.0511
17893W        W60810   0.037  27.908  26.894  0.0475 -0.1330  0.0322
17894W        W60811   3.998   0.096  22.886  0.0003  0.0533  0.1317
17895W        W60812   4.726  30.659  19.635  0.3161  0.2574 -0.3754
17896W        W60813   2.737  31.622  23.191 -0.1449 -0.0008 -0.0120
17897W        W60814   2.492  30.405  20.457  0.2302 -0.0648  0.0894
17898W        W60815   3.187  30.100  21.738 -0.0020  0.0303  0.2345
17899W        W60816   1.525  29.977  21.317  0.3318  0.1329  0.0142
17900W        W60817   2.432  29.725  24.137 -0.3789 -0.2194  0.0378
17901W        W60818   2.372  30.887  19.501 -0.2884 -0.0328 -0.4643
17902W        W60819   1.521  29.137  21.774  0.2950 -0.3440 -0.0785
17903W        W60820   2.283  33.046  20.542 -0.1138  0.0683  0.0194
17904W        W60821   2.976  31.337  20.109 -0.2369 -0.1260 -0.1227
17905W        W60822   3.035  31.711  20.773  0.0261 -0.0313 -0.1866
17906W        W60823  33.143  29.448  24.213  0.0116 -0.0694 -0.1024
17907W        W60824   2.440  33.365  23.144 -0.1110 -0.0872 -0.1288
17908W        W60825   1.061  30.970  20.503 -0.1977 -0.2177 -0.2274
17909W        W60826   1.833  31.428  21.118 -0.0637  0.1389  0.0114
17910W        W60827   2.074  30.961  21.309  0.0801 -0.0348  0.3009
17911W        W60828   3.269  29.972  23.754  0.3703  0.0529 -0.0652
17912W        W60829   1.208  28.677  17.815 -0.3735  0.0569 -0.0289
17913W        W60830   3.069  30.389  22.166  0.0388  0.0287  0.2035
17914W        W60831   0.146  32.230  20.934  0.2793  0.0931 -0.1065
17915W        W60832   1.088  28.827  21.689 -0.2295  0.1799 -0.0814
17916W        W60833   2.033  33.487  21.520 -0.3161 -0.1311  0.0543
17917W        W60834   0.419  32.714  23.256 -0.2964 -0.0124  0.0079
17918W        W60835  34.408  31.328  22.749  0.0919  0.0649  0.1024
17919W        W60836   1.237  31.111  23.696  0.0939  0.0223 -0.3840
17920W        W60837   2.354  30.360  22.682  0.2082 -0.0352  0.3516
17921W        W60838   1.138  29.836  22.379  0.4308 -0.1589  0.1743
17922W        W60839   4.173  30.377  22.344 -0.0061 -0.1234 -0.0024
17923W        W60840   0.865  31.481  23.116 -0.0705  0.2091 -0.3208
17924W        W60841   0.403  30.845  21.404 -0.1082  0.1981  0.2013
17925W        W60842   0.480  30.316  22.853 -0.1452  0.0262 -0.1623
17926W        W60843   2.632  32.192  20.929 -0.3115 -0.2226  0.0677
17927W        W60844   1.002  29.296  21.922 -0.0310 -0.0638  0.0284
17928W        W60845   1.333  31.547  25.232  0.1846  0.2160  0.4511
17929W        W60846   3.874  31.223  22.665  0.1415 -0.0494  0.1143
17930W        W60847   3.041  30.907  22.140  0.2578 -0.0862  0.1839
17931W        W60848   0.762  29.796  22.037 -0.2155 -0.1175 -0.1833
17932W        W60849   0.616  30.876  18.750  0.3754 -0.2596  0.0573
17933W        W60850  34.668  30.661  24.022  0.0451 -0.1618 -0.1261
17934W        W60851  34.596  29.639  22.479  0.1806 -0.4188  0.0608
17935W        W60852   0.494  31.878  20.839  0.1234 -0.1136 -0.0663
17936W        W60853   2.406  32.946  18.349  0.3091  0.2293  0.0700
17937W        W60854   4.317  31.177  20.211 -0.1587 -0.1667  0.1754
17938W        W60855   5.245   0.510  20.104  0.2295  0.0946  0.1525
17939W        W60856   1.939  31.593  21.956 -0.2484  0.0519  0.0018
17940W        W60857  34.516  30.662  22.255  0.1301 -0.0646  0.0070
17941W        W60858   0.231  33.549  20.819  0.1698 -0.0071 -0.1457
17942W        W60859   3.626  33.134  18.488 -0.1477 -0.3907  0.2161
17943W        W60860   0.088  32.022  22.038 -0.2177  0.0584 -0.2438
17944W        W60861   3.983  34.043  25.141  0.3038 -0.0290  0.4452
17945W        W60862   5.477  30.177  20.029  0.1030  0.3788 -0.0665
17946W        W60863   4.380  32.561  21.461  0.2951  0.2454 -0.2289
17947W        W60864   3.006  27.725  20.585 -0.0071 -0.1159 -0.0409
17948W        W60865   2.827  32.868  23.909  0.1745  0.1140 -0.0886
17949W        W60866   2.525  30.134  21.407  0.0092 -0.3045 -0.1370
17950W        W60867   1.648  29.223  20.164  0.3782  0.0272 -0.1355
17951W        W60868   1.386  29.867  23.766 -0.2616  0.1284  0.0434
17952W        W60869   3.217  30.205  22.629  0.3810  0.3994  0.0275
17953W        W60870   0.714  31.031  22.841 -0.0717 -0.0284  0.0742
17954W        W60871   3.692  33.769  22.379  0.1827  0.0602 -0.0028
17955W        W60872  34.021  30.617  21.971 -0.0238 -0.0711  0.2497
17956W        W60873   1.678  31.993  19.568  0.3777  0.0838 -0.2904
17957W        W60874   1.693  30.720  21.455 -0.2927  0.2209 -0.1742
17958W        W60875   0.133  32.101  17.662 -0.0127  0.4693  0.0490
17959W        W60876   1.662  29.926  22.043 -0.0894  0.0793 -0.3039
17960W        W60877   0.952  31.928  22.793  0.0494  0.0983 -0.0757
17961W        W60878   1.580  30.807  22.013 -0.1004 -0.1683 -0.2013
17962W        W60879   2.962  32.546  21.018  0.0982 -0.2654  0.0369
17963W        W60880  32.962  27.283  20.462 -0.1368 -0.3810 -0.0030
17964W        W60881   3.973  32.648  21.207 -0.0501 -0.1204  0.2175
17965W        W60882   1.099  29.123  25.279  0.0706  0.2003 -0.0179
17966W        W60883   1.368  30.407  24.963 -0.3132 -0.1294  0.0673
17967W        W60884   1.286  27.329  23.135  0.0496 -0.2017  0.0680
17968W        W60885   3.875  31.570  20.450  0.1056 -0.1177 -0.0241
17969W        W60886   2.984  31.251  21.717 -0.1382  0.1598 -0.1508
17970W        W60887   0.475  27.113  22.749  0.0470  0.0706  0.1169
17971W        W60888   3.526  28.212  21.123 -0.0854  0.4585 -0.3329
17972W        W60889   2.717  33.110  20.808  0.3563 -0.2957 -0.6728
17973W        W60890   2.363  33.253  21.114 -0.3491  0.3084  0.0058
17974W        W60891   2.230  32.631  23.883 -0.3425 -0.1915  0.2753
17975W        W60892   0.222  28.086  22.389 -0.0977 -0.1545  0.0034
17976W        W60893   3.660  30.260  21.871 -0.0241  0.0771  0.1700
17977W        W60894  34.305  32.210  21.136  0.1170  0.2403 -0.2539
17978W        W60895   2.235  30.222  20.957  0.0444  0.0850  0.2508
17979W        W60896   1.236  30.967  25.462 -0.0191  0.2426  0.0990
17980W        W60897  33.134  28.484  22.365  0.2447  0.2381  0.3321
17981W        W60898   3.788  31.677  19.978  0.1252  0.2428  0.0620
17982W        W60899   2.849  29.958  22.934  0.1474 -0.5825 -0.0456
17983W        W60900   1.799  34.053  21.316 -0.0675  0.0543 -0.1875
17984W        W60901   3.445  30.746  18.114  0.0601  0.3138  0.0325
17985W        W60902   2.988  32.286  20.618  0.0451 -0.0925 -0.2967
17986W        W60903  33.003  28.750  23.362 -0.3733 -0.0222  0.0852
17987W        W60904   3.634  33.482  22.801  0.1560  0.1347 -0.3065
17988W        W60905   3.174  32.025  21.132 -0.0220 -0.0109  0.3881
17989W        W60906   2.769  28.609  21.518  0.0218 -0.3040  0.0788
17990W        W60907  34.187  29.637  21.238 -0.1538  0.3380 -0.1227
17991W        W60908  34.231  31.816  23.357  0.1213  0.2224 -0.0329
17992W        W60909   3.770  30.827  21.594 -0.1571  0.1559 -0.0604
17993W        W60910   3.310  30.749  22.598  0.2104  0.0558  0.1696
17994W        W60911   2.717  30.220  19.227  0.0699  0.0732  0.2306
17995W        W60912   2.018  28.269  23.696  0.1529  0.1404  0.0193
17996W        W60913   3.307  31.583  21.965 -0.0607  0.1324 -0.1079
17997W        W60914   2.485  30.250  24.864 -0.0989  0.0141  0.2622
17998W        W60915  34.136  30.514  21.496 -0.3029 -0.3173  0.0825
17999W        W60916   0.768  30.401  21.133  0.3216  0.0786 -0.0730
18000W        W60917   4.311  32.454  22.059 -0.0915 -0.2632 -0.0444
18001W        W60918   1.641  32.474  21.074  0.0245 -0.0958  0.0684
18002W        W60919   3.334  32.764  21.982 -0.2501 -0.3514 -0.4319
18003W        W60920   0.934  30.821  21.326 -0.3240  0.1589  0.2777
18004W        W60921   3.429  32.314  21.887 -0.4046  0.1808 -0.1067
18005W        W60922   0.359  30.124  21.885 -0.1020  0.0716 -0.2488
18006W        W60923   4.242  28.404  22.435  0.0957  0.1419 -0.0066
18007W        W60924   3.529  27.114  19.968 -0.0492  0.1831  0.2557
18008W        W60925   2.140  29.426  22.646  0.2111  0.1281  0.0487
18009W        W60926   1.673  29.568  21.636 -0.2040 -0.1594  0.2531
18010W        W60927   2.514  31.607  20.057 -0.1605  0.1407  0.3260
18011W        W60928  34.575  31.533  22.293 -0.3807  0.1186  0.2260
18012W        W60929   2.736  28.324  25.182 -0.1327 -0.2563 -0.2932
18013W        W60930  34.094  29.184  23.852  0.1041  0.1820 -0.0960
18014W        W60931   0.989  29.709  23.407  0.0916 -0.1236 -0.2344
18015W        W60932   2.125  28.258  20.752  0.3468  0.1390  0.2058
18016W        W60933   2.042  31.767  19.880 -0.0694  0.0513  0.1325
18017W        W60934   0.858  28.818  22.529 -0.1362 -0.2300 -0.0311
18018W        W60935  33.845  29.599  23.095 -0.1929 -0.4034  0.1841
18019W        W60936   2.592  31.517  22.667 -0.1405  0.2513  0.1627
18020W        W60937   2.781  32.861  18.808 -0.0877  0.0949  0.0300
18021W        W60938   0.164  27.128  21.931  0.0118  0.0563  0.2239
18022W        W60939   4.096  32.567  23.805  0.0492 -0.2078  0.3329
18023W        W60940   0.123  32.765  22.756  0.0598 -0.1020  0.2557
18024W        W60941   1.535  32.102  23.874  0.1205  0.7081 -0.1536
18025W        W60942   1.841  30.056  22.912  0.4131 -0.3563  0.2185
18026W        W60943   0.301  31.653  19.778 -0.0499  0.4027  0.0282
18027W        W60944   1.745  29.120  22.312  0.1054 -0.1844 -0.0463
18028W        W60945   1.571  32.490  20.487  0.0104  0.3540  0.2276
18029W        W60946   4.964  34.259  17.970 -0.1100  0.2758 -0.0401
18030W        W60947   1.059  32.890  23.998 -0.2314  0.0702  0.2856
18031W        W60948   2.172  31.293  22.570  0.1375  0.0199 -0.4299
18032W        W60949   0.888  27.391  24.848 -0.0542 -0.0060  0.0603
18033W        W60950   3.410  30.820  19.115 -0.2719  0.1694  0.2517
18034W        W60951   3.493  31.981  23.095  0.0855 -0.0276  0.0311
18035W        W60952   2.490  31.130  19.970  0.0315 -0.1185  0.1530
18036W        W60953   2.674  31.145  21.379 -0.0253  0.0328  0.2449
18037W        W60954   2.926  31.217  19.635  0.2431  0.2051 -0.0464
18038W        W60955   1.467  28.017  22.593 -0.0147 -0.0651 -0.1620
18039W        W60956   3.237  32.994  23.572  0.0580  0.0766 -0.1428
18040W        W60957   3.976  31.803  22.022 -0.3135  0.0390 -0.3210
18041W        W60958   0.436  27.680  22.798 -0.0354 -0.1938 -0.0796
18042W        W60959   2.963  28.871  20.875 -0.1565 -0.2191 -0.0093
18043W        W60960   3.967  30.228  20.179  0.0053 -0.1223 -0.0383
18044W        W60961   0.543  30.135  23.302  0.0628 -0.0395 -0.0880
18045W        W60962   1.678  31.458  22.399  0.3320 -0.1611 -0.2476
18046W        W60963   2.197  30.580  21.806 -0.0936  0.0919  0.1012
18047W        W60964   3.438  32.343  19.277 -0.2505  0.1758 -0.0802
18048W        W60965   2.414  32.705  22.990  0.0498  0.1662 -0.0632
18049W        W60966   3.097  31.360  19.196  0.1636 -0.0528  0.1538
18050W        W60967   3.009  29.975  21.255  0.0307 -0.2259  0.3555
18051W        W60968   3.457  31.100  21.920 -0.0107 -0.2678  0.0851
18052W        W60969   3.519   0.275  22.824 -0.0555  0.0562  0.0244
18053W        W60970   2.584  32.044  22.883 -0.1217 -0.2634  0.3706
18054W        W60971   4.509  31.315  19.789  0.3614 -0.1400 -0.1497
18055W        W60972   2.101  27.858  24.573  0.0228  0.1008 -0.1123
18056W        W60973   1.499  29.361  21.159  0.2348 -0.2718  0.2330
18057W        W60974   1.536  31.891  22.033 -0.3945 -0.5468 -0.0475
18058W        W60975   3.774  32.142  21.151 -0.0195  0.1874  0.0621
18059W        W60976   1.953  29.043  21.432  0.2904 -0.3369  0.1026
18060W        W60977   1.776  29.974  20.801 -0.0943 -0.2674 -0.1023
18061W        W60978   1.092  31.769  21.745 -0.2311 -0.3431 -0.2535
18062W        W60979   2.889  31.942  22.426  0.1456  0.0947  0.0688
18063W        W60980   3.193  30.928  25.647 -0.1593  0.1060 -0.0166
18064W        W60981  34.596  30.357  22.745  0.0293  0.0154 -0.2584
18065W        W60982   2.672  29.335  24.293 -0.0736 -0.0394 -0.0166
18066W        W60983   2.770  32.385  23.702  0.5719  0.1161 -0.2475
18067W        W60984   0.756  28.726  25.990  0.1363  0.1278 -0.1030
18068W        W60985   2.756  32.758  25.478  0.1897 -0.1933  0.0277
18069W        W60986   2.554  29.534  28.949  0.0631  0.2129  0.0757
18070W        W60987   3.024  32.779  24.350 -0.3658 -0.0830  0.1077
18071W        W60988   3.739  32.258  27.226 -0.0340  0.2586  0.1268
18072W        W60989   3.954  31.278  20.895 -0.0019  0.0351 -0.1381
18073W        W60990   2.698  30.603  26.502  0.0143 -0.0719 -0.1190
18074W        W60991   1.220  32.713  24.907 -0.1769 -0.3703  0.1844
18075W        W60992   1.654  28.921  25.718  0.0891 -0.1709 -0.2239
18076W        W60993  33.816  30.041  28.217  0.3135  0.1347  0.0090
18077W        W60994   1.563  29.069  28.661  0.2543  0.0279  0.0008
18078W        W60995   1.432  29.439  24.192 -0.3202  0.0354  0.0793
18079W        W60996  34.115  30.791  26.342 -0.2509  0.1082  0.3903
18080W        W60997   1.750  29.464  24.801 -0.0537 -0.2000 -0.0603
18081W        W60998   2.761  33.041  25.978 -0.3098 -0.3908 -0.2334
18082W        W60999   1.102  29.061  25.882 -0.2313  0.1065  0.0149
18083W        W61000   3.128  29.205  25.634  0.3210 -0.1698  0.0801
18084W        W61001   2.727  30.680  24.194 -0.0740 -0.0650 -0.0536
18085W        W61002   2.658  28.868  25.344 -0.1186 -0.1716  0.0793
18086W        W61003   0.732  31.203  26.422  0.3520 -0.2056  0.2323
18087W        W61004   0.946  33.243  24.989  0.2539  0.1127  0.0319
18088W        W61005   2.916  29.566  25.967 -0.0716  0.0010 -0.0888
18089W        W61006   1.676  30.723  26.314 -0.3357 -0.3546  0.1647
18090W        W61007   2.802  32.183  26.235 -0.2064 -0.1216 -0.0489
18091W        W61008   3.144  31.428  27.407 -0.3346  0.1444  0.1254
18092W        W61009   3.328  29.989  26.840  0.0569 -0.1945 -0.4605
18093W        W61010   0.002  30.361  24.937  0.0434  0.2636 -0.1483
18094W        W61011   1.480  32.850  24.426  0.0204  0.0961 -0.1739
18095W        W61012   1.880  32.708  25.392 -0.0961 -0.4093  0.1472
18096W        W61013   3.404  31.017  23.413 -0.2727 -0.2275 -0.0813
18097W        W61014   3.462  33.874  26.069  0.0888  0.3607  0.2811
18098W        W61015   2.354  32.391  26.326 -0.0660  0.0486 -0.0766
18099W        W61016   0.460  31.476  25.019  0.0837 -0.2364  0.0256
18100W        W61017   2.769  32.792  26.496 -0.0981 -0.1250  0.0176
18101W        W61018   1.333  30.784  25.964  0.0843  0.0741 -0.1508
18102W        W61019  34.544  32.320  25.330 -0.2298 -0.1200 -0.2164
18103W        W61020   0.865  30.375  25.069  0.0266  0.2013  0.1347
18104W        W61021   1.378  33.361  24.633  0.1248 -0.2449 -0.3601
18105W        W61022   2.761  30.747  26.975 -0.1192  0.1391  0.0421
18106W        W61023   1.784  31.397  27.888  0.1035 -0.2581  0.0917
18107W        W61024   1.209  32.084  25.246  0.1817 -0.2494 -0.0589
18108W        W61025   3.854  30.022  26.574  0.0752  0.2592  0.2552
18109W        W61026   0.038  31.661  23.169  0.3234  0.1627  0.0928
18110W        W61027   3.273  30.735  24.224  0.0236  0.2912 -0.2538
18111W        W61028   1.303  28.918  22.885 -0.1661 -0.3196 -0.4602
18112W        W61029   3.092  31.698  21.476 -0.1423  0.1188  0.2015
18113W        W61030   3.319  29.413  27.248  0.2996  0.2865 -0.3333
18114W        W61031   1.631  32.545  22.796 -0.5014  0.0752 -0.0490
18115W        W61032   2.138  29.835  26.618 -0.0667 -0.2796 -0.0011
18116W        W61033   3.172  30.668  28.484 -0.3539  0.0404 -0.0927
18117W        W61034   1.688  30.768  24.748  0.0218  0.0342  0.0233
18118W        W61035   3.810  31.328  25.715  0.0408  0.3543  0.0482
18119W        W61036   2.002  32.325  25.886 -0.0793 -0.2454 -0.3731
18120W        W61037   0.369  30.224  27.116  0.3364  0.0858 -0.0673
18121W        W61038   3.780  33.053  22.163 -0.2651 -0.2435 -0.0380
18122W        W61039   3.638  31.643  26.334  0.2583  0.1227 -0.2811
18123W        W61040   4.517  31.305  26.501  0.1196 -0.1116 -0.1477
18124W        W61041   0.150  32.522  27.097  0.2898  0.1210 -0.2735
18125W        W61042   2.033  30.289  26.815 -0.0870 -0.1816  0.0382
18126W        W61043   0.586  30.286  28.828  0.1152  0.0938  0.0577
18127W        W61044   0.724  30.429  21.637  0.2223  0.1360 -0.0300
18128W        W61045   3.604  33.248  26.872  0.0653 -0.0642 -0.0974
18129W        W61046   0.679  32.837  27.192  0.0884 -0.2961  0.0152
18130W        W61047   4.353  31.411  25.304 -0.2325  0.0441  0.1471
18131W        W61048   1.031  33.679  25.659  0.0734  0.1918 -0.2215
18132W        W61049   4.597  30.798  26.360  0.0310  0.2471 -0.1649
18133W        W61050   3.401  32.040  23.603  0.1459 -0.1393 -0.1033
18134W        W61051   3.521  29.629  25.512  0.0455 -0.1247 -0.1023
18135W        W61052   4.874  30.675  25.016 -0.0049  0.1463  0.1400
18136W        W61053   2.240  31.582  23.103 -0.0129 -0.1189  0.0225
18137W        W61054   2.268  32.129  23.335 -0.1540 -0.2049  0.0132
18138W        W61055   3.911  32.756  25.546 -0.2119  0.3197 -0.2910
18139W        W61056   3.617  30.266  23.905  0.0648  0.0755  0.0390
18140W        W61057   0.343  32.561  25.411 -0.0697 -0.0742 -0.1012
18141W        W61058   2.494  30.180  26.340 -0.0999  0.0116 -0.3196
18142W        W61059   3.066  31.685  25.476  0.1820  0.2681  0.2284
18143W        W61060   0.467  31.603  24.131  0.1036 -0.2107 -0.1850
18144W        W61061  34.552  32.264  24.816 -0.0912  0.0288 -0.0530
18145W        W61062   1.565  31.170  24.063  0.2204  0.0884  0.2216
18146W        W61063  33.511  31.294  25.726  0.3445  0.1271 -0.1838
18147W        W61064   2.235  33.656  25.179 -0.0413  0.2326  0.0554
18148W        W61065   3.399  28.902  23.952  0.2480  0.0371 -0.2272
18149W        W61066   1.585  28.422  25.522  0.0161 -0.0459  0.0114
18150W        W61067   2.876  30.236  27.123  0.1380 -0.0791  0.1225
18151W        W61068   1.370  31.565  23.874  0.0130 -0.1375  0.1573
18152W        W61069   4.501  32.397  23.501  0.3114  0.1427 -0.0628
18153W        W61070   2.279  30.674  25.386 -0.2873 -0.2332  0.0666
18154W        W61071   5.124  31.031  22.300  0.0679 -0.0796  0.1605
18155W        W61072   1.470  30.435  28.638 -0.0019  0.0555  0.2378
18156W        W61073  33.604  27.033  23.470  0.0454  0.0697  0.1391
18157W        W61074   1.672  31.656  27.286  0.1294 -0.0905  0.0124
18158W        W61075   0.730  30.418  25.776  0.0497 -0.0040 -0.0938
18159W        W61076   3.242  31.980  26.317 -0.1674 -0.1036 -0.0781
18160W        W61077   0.810  29.774  22.792  0.2064  0.1867 -0.1607
18161W        W61078   2.545  30.670  23.101 -0.1816  0.2536  0.2473
18162W        W61079   2.304  30.177  23.898 -0.1875 -0.2933 -0.1730
18163W        W61080  34.277  29.770  22.877 -0.2557 -0.2611  0.3248
18164W        W61081   4.074  30.909  27.145  0.0447  0.0528  0.1332
18165W        W61082   2.927  32.265  24.576 -0.0933 -0.1543 -0.1095
18166W        W61083   4.155  32.451  25.186  0.1012  0.1611  0.2250
18167W        W61084   2.870  31.981  25.118 -0.0238  0.1344 -0.0205
18168W        W61085   0.248  29.189  26.423  0.0549 -0.0057  0.2656
18169W        W61086   0.491  29.846  22.436 -0.1474 -0.1108 -0.2493
18170W        W61087   0.988  34.173  24.254 -0.0617 -0.0764  0.3391
18171W        W61088   3.401  32.127  25.899  0.0953 -0.0806  0.2908
18172W        W61089   0.177  30.242  24.137 -0.0453 -0.2235 -0.0655
18173W        W61090   4.934  34.616  25.963  0.1867  0.1052 -0.2836
18174W        W61091   3.243  31.471  23.501 -0.3519 -0.1237 -0.2868
18175W        W61092   0.751  32.114  26.075  0.1760 -0.1101 -0.0734
18176W        W61093   2.093  29.232  26.340  0.0059  0.0954  0.0045
18177W        W61094   5.286  30.296  22.970 -0.1205 -0.1089  0.1334
18178W        W61095   2.530  30.557  25.965 -0.3265  0.3431  0.0409
18179W        W61096   1.569  30.134  22.518  0.2394  0.2300  0.0090
18180W        W61097   3.371   0.392  27.266  0.1133  0.4562  0.0332
18181W        W61098   0.733  34.166  24.840  0.0157  0.3422  0.3218
18182W        W61099  34.501  29.496  24.813  0.1266  0.0677 -0.2579
18183W        W61100   3.790  33.968  25.582 -0.0657  0.0295 -0.2101
18184W        W61101   3.725  28.750  24.981 -0.0319 -0.0189  0.0710
18185W        W61102   0.841  31.361  26.932  0.1068  0.2961 -0.0819
18186W        W61103   1.652  27.775  27.106  0.2274  0.1878 -0.1642
18187W        W61104   0.767  30.892  25.607  0.1779  0.0281 -0.1568
18188W        W61105  33.720  32.899  27.809 -0.2957  0.0030  0.1221
18189W        W61106   2.917  27.275  24.766  0.2101  0.1369  0.1546
18190W        W61107   3.658  30.370  22.919  0.1335  0.0149 -0.1640
18191W        W61108   2.599  32.089  27.575  0.2101  0.2239  0.1855
18192W        W61109   3.098  32.838  22.371 -0.1458  0.1054 -0.1163
18193W        W61110   1.994  28.531  24.533  0.0515  0.0502 -0.2434
18194W        W61111   4.081  29.104  24.908  0.2131 -0.0871  0.1333
18195W        W61112   1.751  31.900  27.728  0.3289 -0.1063  0.2075
18196W        W61113   3.076  31.368  26.315 -0.0288  0.2903 -0.0558
18197W        W61114   0.900  32.726  25.823  0.1721  0.0108  0.0881
18198W        W61115   2.611  31.156  23.052  0.0516  0.3131  0.0629
18199W        W61116   3.109  32.110  24.101 -0.3375  0.0749  0.3303
18200W        W61117   1.636  31.597  30.303 -0.4469  0.0531  0.1659
18201W        W61118   1.876  29.308  27.680  0.2563  0.0623  0.1765
18202W        W61119   3.858  30.311  26.091  0.1409  0.0386  0.0384
18203W        W61120  34.580  30.629  25.380  0.0805  0.2181 -0.0686
18204W        W61121   0.721  30.589  23.262 -0.0435 -0.0920 -0.0878
18205W        W61122   1.859  28.416  27.811 -0.1384 -0.2345 -0.0287
18206W        W61123  34.543  31.074  23.157 -0.2820 -0.1387 -0.2372
18207W        W61124   2.122  30.297  25.765 -0.0869  0.2730 -0.1073
18208W        W61125   3.199  29.280  24.213  0.0028  0.0926 -0.2652
18209W        W61126   3.239  29.307  27.780 -0.0145  0.3162 -0.0479
18210W        W61127   3.657  30.771  26.848  0.2256 -0.2583  0.4449
18211W        W61128   2.741  31.803  24.658  0.3333  0.2399 -0.3221
18212W        W61129   0.323  29.123  24.533 -0.0837  0.1226 -0.1216
18213W        W61130   2.133  32.281  22.877  0.1633 -0.2624 -0.0583
18214W        W61131   2.538  32.206  25.449  0.2793 -0.1667  0.4937
18215W        W61132   2.224  31.776  27.817 -0.0015  0.3203  0.1228
18216W        W61133   2.886  31.740  26.019 -0.0141  0.1442 -0.2224
18217W        W61134   3.201  30.548  26.907  0.1483  0.0904  0.2544
18218W        W61135   2.835  31.351  27.048 -0.1580 -0.2209  0.1710
18219W        W61136   1.933  27.517  28.152 -0.3062 -0.1285 -0.0987
18220W        W61137   1.983  28.126  24.187  0.3146  0.0548 -0.1281
18221W        W61138   1.563  32.296  25.578 -0.3024 -0.1152 -0.1420
18222W        W61139   1.687  30.330  25.408  0.0357  0.3380 -0.0415
18223W        W61140   1.799  27.617  26.675 -0.2498  0.2550 -0.1368
18224W        W61141   2.247  32.715  25.759  0.0358  0.0293 -0.1128
18225W        W61142   3.054  30.455  25.664  0.2538  0.1873  0.0039
18226W        W61143   2.987  33.390  26.767  0.1884 -0.0765 -0.1417
18227W        W61144   1.255  31.850  24.346 -0.0820  0.0019 -0.1733
18228W        W61145   3.404  29.986  25.926 -0.2352 -0.0455 -0.1705
18229W        W61146   0.442  33.064  25.661 -0.0081 -0.0351 -0.2685
18230W        W61147   1.745  31.386  25.441  0.3429  0.0878  0.0702
18231W        W61148   0.311  29.566  22.035  0.0754 -0.0511  0.1659
18232W        W61149   3.732  30.735  26.324  0.1096  0.2861 -0.1639
18233W        W61150   4.765  32.321  25.391  0.2339  0.0653 -0.0875
18234W        W61151   0.374  30.787  26.445  0.1016 -0.1716  0.1038
18235W        W61152   2.483  29.998  25.826  0.0260  0.1485  0.0555
18236W        W61153  33.696  32.508  25.322 -0.0994  0.0737  0.0963
18237W        W61154   4.633  29.797  25.303 -0.1205  0.1922  0.0816
18238W        W61155   2.824  28.504  24.175  0.1053 -0.1916  0.3705
18239W        W61156   1.256  32.607  26.495 -0.2744 -0.5203 -0.1418
18240W        W61157   1.136  31.765  26.073 -0.2630 -0.0286  0.2087
18241W        W61158   1.321  29.875  22.904 -0.0847  0.1400 -0.3778
18242W        W61159   4.621  29.390  27.875 -0.0145  0.1808  0.4031
18243W        W61160   0.957  30.061  25.551 -0.1896 -0.0817  0.1159
18244W        W61161   0.407  32.172  24.606 -0.1401  0.2350 -0.2241
18245W        W61162   4.015  31.203  26.189 -0.2226 -0.0174 -0.2536
18246W        W61163  34.417  30.171  25.337  0.1246  0.1514  0.0575
18247W        W61164   2.049  32.282  25.259 -0.0399 -0.1259 -0.3221
18248W        W61165   2.036  31.525  26.436 -0.0959  0.1263  0.1541
18249W        W61166   3.726  29.799  27.078  0.1116  0.2781 -0.1836
18250W        W61167   1.210  30.495  25.398  0.0408 -0.2856 -0.1404
18251W        W61168   1.087  30.290  23.745 -0.0439  0.0337  0.1467
18252W        W61169   2.158  28.926  24.885  0.0546  0.2623  0.0326
18253W        W61170   2.610  31.972  24.161  0.0153 -0.0031 -0.2280
18254W        W61171   2.412  31.040  25.918 -0.1448 -0.0896 -0.0337
18255W        W61172   2.611  31.670  25.497  0.0947 -0.1963  0.3942
18256W        W61173   1.771  26.912  26.437 -0.1439 -0.0837 -0.1550
18257W        W61174   3.321  32.037  24.836  0.1298  0.3013 -0.0295
18258W        W61175   2.699  29.690  27.753  0.0656 -0.1325 -0.1140
18259W        W61176   1.879  31.177  24.512 -0.1896  0.4499 -0.0666
18260W        W61177   1.349  30.686  23.993  0.0522  0.1431  0.1530
18261W        W61178   0.904  31.833  25.560 -0.0600 -0.1293  0.0118
18262W        W61179   2.570  31.393  24.888 -0.0613  0.4479 -0.1685
18263W        W61180   0.512  31.219  24.429  0.0574  0.1728 -0.1891
18264W        W61181   0.589  31.156  23.836 -0.0015 -0.1875 -0.0217
18265W        W61182   1.313  32.746  25.400 -0.1537  0.0792  0.1847
18266W        W61183   2.527  28.623  24.771 -0.2937  0.0397  0.2116
18267W        W61184   1.819  30.705  24.238  0.2963  0.0229  0.3009
18268W        W61185   1.381  29.716  24.586 -0.0873  0.0146  0.2373
18269W        W61186   2.927  29.918  25.552  0.1186  0.0743 -0.0646
18270W        W61187   2.073  31.102  24.002 -0.0050 -0.0826 -0.1502
18271W        W61188   4.604  30.817  27.856  0.0896  0.0215  0.0906
18272W        W61189   1.353  30.802  27.127 -0.0048  0.1570  0.0742
18273W        W61190   1.987  30.465  24.961 -0.1300 -0.1761  0.1851
18274W        W61191   1.710  29.587  26.450  0.0513  0.2840  0.1244
18275W        W61192   4.191  32.637  27.098  0.0283  0.0631  0.1647
18276W        W61193   2.685  32.298  26.720  0.1819 -0.1836 -0.0987
18277W        W61194   1.234  31.194  26.246  0.2360 -0.0836  0.0377
18278W        W61195  33.644  28.655  24.445 -0.0968 -0.0372  0.1392
18279W        W61196   1.369  31.555  27.657 -0.1584 -0.3784  0.0904
18280W        W61197   3.413  30.623  25.932  0.0177  0.1314 -0.1926
18281W        W61198   0.524  31.976  23.801  0.0891  0.1967  0.4399
18282W        W61199   3.298  30.803  25.196 -0.1495  0.0540 -0.0591
18283W        W61200   1.331  30.776  28.251  0.1959  0.2269  0.0999
18284W        W61201   2.571  30.859  25.045 -0.0920 -0.0010 -0.2449
18285W        W61202   1.866  29.806  23.890 -0.2394  0.0959  0.2261
18286W        W61203  34.330  30.824  24.599 -0.0786 -0.0537  0.0682
18287W        W61204   1.115  27.258  26.007 -0.1177 -0.1545 -0.0343
18288W        W61205   3.878  29.039  26.183  0.0932 -0.3518  0.1835
18289W        W61206   2.175  27.897  26.973  0.2351 -0.0361 -0.1832
18290W        W61207   4.292  29.218  25.914 -0.1474  0.1775  0.2730
18291W        W61208   2.940  30.209  26.661  0.1064  0.1517  0.1713
18292W        W61209   2.823  30.349  28.182  0.4229  0.1864  0.1291
18293W        W61210  33.741  29.070  27.209 -0.0559  0.5095  0.0817
18294W        W61211   3.448   0.030  27.652 -0.1581 -0.2139  0.0999
18295W        W61212   6.262  30.082  25.665  0.1068 -0.1874 -0.0281
18296W        W61213   3.130  30.752  27.975 -0.1293  0.0330  0.0163
18297W        W61214   3.691  29.105  25.694 -0.3281 -0.2954  0.1966
18298W        W61215   1.871  29.156  24.394 -0.0506  0.0443 -0.0504
18299W        W61216  32.616  30.333  25.087  0.1913  0.4915  0.0746
18300W        W61217   2.408  31.212  25.455 -0.0529  0.2942 -0.4471
18301W        W61218   3.786  28.334  22.762 -0.1587  0.1926  0.0055
18302W        W61219   3.929  30.134  27.487  0.1569 -0.0289  0.2298
18303W        W61220   3.496  31.292  24.302 -0.1806  0.0805 -0.0059
18304W        W61221   1.725  31.921  25.272  0.2301 -0.1512 -0.2001
18305W        W61222   1.826  29.655  24.347  0.1822 -0.2146  0.1509
18306W        W61223   0.124  31.404  26.292 -0.3769 -0.3082  0.1016
18307W        W61224  33.940  34.336  28.995 -0.0915  0.2639 -0.3194
18308W        W61225   0.618  30.040  24.302 -0.0842  0.1934  0.1204
18309W        W61226   1.055  29.818  24.101 -0.1746  0.0561  0.0469
18310W        W61227   1.650  31.187  26.513 -0.2066 -0.1485  0.0439
18311W        W61228   2.119  32.245  27.655  0.0832 -0.0945  0.0080
18312W        W61229  33.718  29.682  25.411  0.1358  0.4078  0.0687
18313W        W61230   4.980  30.758  28.276 -0.0729 -0.3047  0.1872
18314W        W61231  34.652  31.221  24.488 -0.3232 -0.0845 -0.3720
18315W        W61232   2.674  29.251  26.308 -0.1418  0.1558  0.3204
18316W        W61233   0.768  32.791  25.244 -0.0012 -0.1558  0.0235
18317W        W61234  34.671  31.691  26.746  0.1344  0.2019  0.4579
18318W        W61235   2.227  31.727  25.061 -0.0814 -0.0093  0.1206
18319W        W61236   0.729  28.403  25.587 -0.2857 -0.0619  0.0343
18320W        W61237   3.939  29.860  25.627  0.1466  0.0656 -0.0571
18321W        W61238   0.182  30.638  25.871 -0.3655 -0.0469 -0.3036
18322W        W61239   5.456  31.369  26.525 -0.0823  0.1208 -0.1893
18323W        W61240   2.266  30.761  26.714  0.0312 -0.0831  0.1823
18324W        W61241   1.233  31.390  25.665 -0.0447  0.2283  0.1484
18325W        W61242   3.778  32.288  26.337 -0.1064 -0.1690  0.0071
18326W        W61243   0.892  30.910  25.076  0.1676 -0.1494 -0.1893
18327W        W61244   1.801  33.032  26.413 -0.1004  0.0334  0.0499
18328W        W61245  32.985  29.293  27.777  0.1489  0.2531  0.0248
18329W        W61246   1.440  28.242  28.055  0.0470 -0.1665  0.0158
18330W        W61247   1.346  31.356  26.960  0.1258 -0.1470  0.0242
18331W        W61248   0.515  29.098  26.826 -0.0419  0.0657  0.0603
18332W        W61249   2.010  33.126  23.045  0.2182 -0.1742 -0.0728
18333W        W61250   1.955  32.570  27.229  0.0425  0.0132 -0.2986
18334W        W61251   1.929  30.768  25.854  0.0316  0.1224  0.1589
18335W        W61252   0.974  34.006  22.949  0.2490  0.1585  0.1159
18336W        W61253   1.026  33.402  23.704  0.0845 -0.0914 -0.3049
18337W        W61254   2.922  30.509  25.177  0.1753  0.3960 -0.1426
18338W        W61255   4.303  33.471  25.951 -0.1516  0.0061  0.0447
18339W        W61256  34.484  30.393  24.469  0.1448  0.1843  0.2739
18340W        W61257   1.681  33.317  27.494  0.0256 -0.3046 -0.1082
18341W        W61258   0.622  31.059  22.374 -0.0407  0.0312 -0.1282
18342W        W61259   1.940  31.612  23.930 -0.0545  0.1274 -0.3120
18343W        W61260   1.509  31.835  24.830 -0.0164 -0.1540  0.1249
18344W        W61261   4.017  31.363  26.657 -0.2170 -0.0222 -0.2982
18345W        W61262   1.219  29.953  25.078 -0.0510  0.0732 -0.2778
18346W        W61263   5.064  32.138  26.183 -0.2118  0.2302 -0.1472
18347W        W61264   3.615  30.336  25.574  0.1781 -0.0981  0.1474
18348W        W61265   2.679  31.883  27.031  0.1292 -0.1706 -0.1102
18349W        W61266   1.654  30.394  25.950 -0.0071  0.0261 -0.3274
18350W        W61267   1.333  30.645  24.471  0.0395 -0.2141 -0.3514
18351W        W61268   1.937  29.508  26.952  0.0588 -0.1734 -0.1999
18352W        W61269   3.035  27.741  28.252  0.0404 -0.1230  0.0743
18353W        W61270   0.829  32.557  24.636  0.1960  0.2731 -0.0572
18354W        W61271   3.513  31.663  23.945 -0.0632  0.0552 -0.0092
18355W        W61272   2.657  29.278  24.930  0.1035 -0.0445  0.0486
18356W        W61273   1.739  29.880  25.156 -0.0184 -0.0849 -0.1338
18357W        W61274   3.581  28.268  25.802  0.3213 -0.3211  0.2323
18358W        W61275   2.852  31.110  23.505  0.2690 -0.0663  0.2601
18359W        W61276   0.793  30.742  26.150  0.0879 -0.0544  0.2067
18360W        W61277   3.158  33.088  24.716 -0.0479 -0.5075 -0.1920
18361W        W61278   2.010  33.967  26.788 -0.0742  0.1588 -0.1083
18362W        W61279   2.346  32.620  25.174 -0.0738 -0.0393  0.0978
18363W        W61280   0.258  28.799  25.880 -0.0224 -0.0393 -0.0948
18364W        W61281   4.170  32.231  24.163  0.0516 -0.0642 -0.5208
18365W        W61282   1.608  29.983  26.969  0.3748 -0.0658 -0.2180
18366W        W61283   3.172  28.934  28.215  0.0654  0.0858  0.0402
18367W        W61284  34.670  31.359  25.155 -0.0232  0.0173  0.2184
18368W        W61285   2.345  31.065  27.131 -0.2199  0.1387 -0.0628
18369W        W61286   2.110  31.029  26.329  0.3553 -0.0427  0.1097
18370W        W61287   0.824  31.333  25.336  0.0896 -0.1118 -0.0947
18371W        W61288   1.054  30.227  24.616  0.0695 -0.4650 -0.2313
18372W        W61289   4.701  30.777  30.081  0.1327  0.0107  0.1155
18373W        W61290   2.161  30.118  25.277  0.1828 -0.1349 -0.1141
18374W        W61291   4.066  31.609  27.186 -0.2580  0.0037 -0.0628
18375W        W61292   1.711  28.673  23.570 -0.0190  0.2171  0.0649
18376W        W61293   2.767  27.752  26.238 -0.1559 -0.0245  0.4157
18377W        W61294   0.657  29.134  26.203 -0.0943  0.2641 -0.2080
18378W        W61295   2.143  31.029  24.925  0.3471  0.1470  0.0672
18379W        W61296   4.190  31.975  28.180  0.1819 -0.0285 -0.0938
18380W        W61297   2.099  28.519  23.243  0.0639  0.1968  0.0327
18381W        W61298   2.357  30.855  22.633  0.3717 -0.0954  0.0727
18382W        W61299   2.491  30.140  27.902 -0.3337 -0.4936  0.1651
18383W        W61300   2.165  33.034  24.947  0.0049  0.0263 -0.2232
18384W        W61301   4.524  31.003  24.976  0.1145  0.0024 -0.2821
18385W        W61302   4.740  32.863  26.070 -0.2725  0.0152 -0.0392
18386W        W61303   0.908  30.477  24.210 -0.1650  0.2222  0.0964
18387W        W61304   4.333  31.515  28.497  0.1607  0.1160  0.2533
18388W        W61305   4.147  33.149  23.500 -0.0811  0.1087 -0.1089
18389W        W61306   1.756  27.497  24.959 -0.0276  0.1497 -0.2580
18390W        W61307   0.349  30.588  27.770 -0.1361  0.2156 -0.0366
18391W        W61308  33.920  30.776  24.264  0.2283 -0.0444  0.0570
18392W        W61309   4.442  29.842  25.760 -0.0757 -0.1904 -0.0657
18393W        W61310   3.433  29.501  26.741  0.0132  0.0684 -0.2148
18394W        W61311   1.053  32.135  24.715  0.0040 -0.0938  0.4251
18395W        W61312   5.194  29.827  26.442  0.1937  0.1685 -0.2154
18396W        W61313   1.862  33.175  25.468 -0.1927  0.2694  0.0015
18397W        W61314   3.183  32.700  26.075  0.0941 -0.1421 -0.2512
18398W        W61315   0.521  30.409  24.651 -0.2100 -0.1365  0.0846
18399W        W61316   2.501  29.998  26.895  0.0495 -0.0782 -0.0898
18400W        W61317   1.072  33.098  26.129 -0.1085  0.1644  0.4143
18401W        W61318   3.442  33.136  23.146 -0.0353  0.0775 -0.3163
18402W        W61319   3.907  31.275  25.242 -0.0743 -0.0353  0.2366
18403W        W61320   1.355  31.072  24.939 -0.0209 -0.0601  0.1565
18404W        W61321   3.796  32.741  26.053 -0.0258 -0.1374 -0.1740
18405W        W61322   0.404  29.574  26.718 -0.0732 -0.1689  0.0004
18406W        W61323   3.970  30.745  24.173 -0.1396 -0.1312 -0.0254
18407W        W61324   2.895  30.907  26.031  0.1233 -0.1615  0.3114
18408W        W61325   1.687  31.213  26.044  0.0706 -0.3448 -0.1390
18409W        W61326  34.581  30.521  26.332  0.2955 -0.0156  0.2184
18410W        W61327   3.179  30.675  23.122  0.2517 -0.1555 -0.3192
18411W        W61328   0.730  32.104  24.281  0.1396 -0.2647  0.1205
18412W        W61329   2.798  29.332  27.312  0.0964 -0.3341 -0.1239
18413W        W61330   0.240  30.690  27.246 -0.0969 -0.4282  0.0259
18414W        W61331  34.190  31.504  25.425  0.2898  0.0197  0.0603
18415W        W61332   2.113  28.513  26.381  0.1996  0.0728  0.0648
18416W        W61333   2.276  33.526  24.698 -0.1172 -0.1268 -0.2767
18417W        W61334   1.157  28.725  27.447 -0.0837  0.2728 -0.0289
18418W        W61335   2.181  29.442  25.187  0.2028  0.5214  0.4778
18419W        W61336   2.860  31.804  26.554 -0.0799 -0.0646 -0.2576
18420W        W61337   3.096  30.020  24.470  0.0285  0.0204 -0.1449
18421W        W61338   2.222  29.244  24.011  0.0268  0.0391  0.1113
18422W        W61339   5.612  32.073  24.743  0.0386 -0.0315  0.2893
18423W        W61340   1.071  30.990  24.208  0.2379 -0.0686 -0.2014
18424W        W61341   3.262  29.734  28.021  0.3017 -0.2452  0.0742
18425W        W61342   0.819  29.554  26.401 -0.0810 -0.1859  0.0534
18426W        W61343  33.732  27.303  23.878 -0.2385 -0.1322  0.0828
18427W        W61344   1.420  32.637  25.983 -0.3660  0.3631 -0.0660
18428W        W61345   1.579  32.357  25.079  0.1387  0.2478 -0.1488
18429W        W61346   3.138  33.742  24.070 -0.1110  0.0231  0.1069
18430W        W61347   2.183  32.224  26.933  0.2224 -0.3161 -0.1019
18431W        W61348   0.859  33.768  25.151  0.0649 -0.2563 -0.0658
18432W        W61349  34.584  29.993  26.199 -0.5386  0.1915 -0.3336
18433W        W61350   1.951  32.060  24.798 -0.0524 -0.1019 -0.1662
18434W        W61351   2.282  30.640  28.065  0.0623  0.0778  0.1873
18435W        W61352   2.308  30.628  24.597  0.3788  0.1317  0.3328
18436W        W61353   4.423  31.070  24.461 -0.0768  0.0728 -0.2995
18437W        W61354   2.423  28.903  26.693  0.0109  0.2282 -0.0409
18438W        W61355   0.994  30.348  28.487 -0.0331  0.1171 -0.0464
18439W        W61356   2.077  30.412  26.353 -0.0950  0.1776  0.0297
18440W        W61357   4.881  31.093  25.996  0.2753 -0.1517 -0.0247
18441W        W61358   2.093  29.188  25.578  0.1401  0.1854  0.1628
18442W        W61359   2.013  30.115  24.254 -0.1170  0.0901  0.0436
18443W        W61360   3.834  31.854  25.929 -0.2930  0.1846 -0.3676
18444W        W61361   0.474  30.614  25.194 -0.4799 -0.0230 -0.1078
18445W        W61362   2.589  30.011  27.423  0.1049 -0.0325 -0.2087
18446W        W61363   1.197  30.322  25.876  0.0643  0.2152 -0.0677
18447W        W61364   1.860  31.421  24.938  0.1382 -0.3766  0.2740
18448W        W61365   2.642  31.118  26.481  0.3176  0.1828  0.0882
18449W        W61366   1.733  30.895  25.262  0.1835  0.2450  0.2342
18450W        W61367   4.142  30.354  24.509  0.0756  0.3089 -0.1811
18451W        W61368   2.730  33.723  25.061  0.0966  0.1596  0.1670
18452W        W61369   3.875  34.331  28.396 -0.0808 -0.3156  0.0270
18453W        W61370   2.855  32.479  25.056  0.1411 -0.0976  0.2563
18454W        W61371   3.343  32.638  25.637  0.0463 -0.1565 -0.1681
18455W        W61372   1.191  29.175  27.966  0.0382 -0.1600  0.0682
18456W        W61373   3.880  32.135  22.724 -0.0690 -0.1149 -0.2271
18457W        W61374   0.735  31.677  24.544  0.0395  0.0492  0.0324
18458W        W61375   2.971  29.652  23.925 -0.0752  0.1012  0.2770
18459W        W61376   1.771  29.427  25.891 -0.2377  0.3401 -0.4158
18460W        W61377   4.190  29.202  24.440 -0.0115 -0.0163 -0.1888
18461W        W61378   3.259  32.418  23.283  0.0715 -0.4648 -0.1383
18462W        W61379   2.343  29.098  27.471 -0.0092  0.2024 -0.1713
18463W        W61380   5.311  30.646  30.972  0.4541  0.0715 -0.0381
18464W        W61381   2.939  30.189  28.824 -0.0349 -0.2138 -0.3589
18465W        W61382   3.145  29.767  26.352  0.1559  0.0166 -0.2549
18466W        W61383   4.384  31.137  27.513  0.2864  0.1398 -0.1983
18467W        W61384   0.142  28.542  29.823 -0.2228  0.0811 -0.0724
18468W        W61385   4.780  31.947  29.049  0.0651  0.2399  0.0909
18469W        W61386   0.895  28.549  31.178 -0.2032 -0.0640  0.1717
18470W        W61387   4.225  29.722  27.296  0.0451 -0.2464 -0.0389
18471W        W61388   3.262  32.846  29.991 -0.1043 -0.2290  0.2857
18472W        W61389   1.588  31.669  26.336  0.0513 -0.2250  0.0624
18473W        W61390   2.283  29.919  30.579  0.3245 -0.0508  0.0965
18474W        W61391   1.653  32.404  31.111  0.1375 -0.3518  0.2088
18475W        W61392   1.636  28.619  29.092  0.1161  0.2222  0.0860
18476W        W61393   0.337  29.566  31.690  0.0390  0.1754 -0.0048
18477W        W61394   3.195  30.857  30.082 -0.1248 -0.2230 -0.4697
18478W        W61395   1.370  30.353  29.875 -0.2928 -0.0563  0.0404
18479W        W61396   2.034  29.655  28.208  0.1884 -0.1633  0.4123
18480W        W61397   3.018  28.945  30.000 -0.1030  0.1698  0.0871
18481W        W61398   1.151  32.866  29.091  0.1662 -0.0093  0.0454
18482W        W61399   1.859  29.678  30.409 -0.2500 -0.2678 -0.3121
18483W        W61400   3.246  28.327  29.904 -0.0155  0.2891  0.2083
18484W        W61401   4.626  32.263  28.145  0.1258 -0.1846  0.2383
18485W        W61402   1.436  31.205  30.659 -0.1537 -0.0148  0.1725
18486W        W61403   1.442  31.497   0.003 -0.0105  0.0349 -0.0740
18487W        W61404   2.881  31.580  28.732  0.2041 -0.0337 -0.0159
18488W        W61405   3.507  29.872  29.052  0.0175  0.1184  0.2876
18489W        W61406   3.737  31.446  28.461 -0.1614 -0.1275 -0.0021
18490W        W61407   1.991  31.332  28.705  0.0109  0.2903 -0.2707
18491W        W61408   2.702  32.117  28.999 -0.0249  0.1274  0.0814
18492W        W61409   3.485  29.648  31.501 -0.1933 -0.0496 -0.3419
18493W        W61410   1.359  31.373  29.608  0.2486 -0.1286  0.2630
18494W        W61411   2.958  32.524  28.954 -0.1300  0.1570 -0.0796
18495W        W61412   1.701  31.645  28.344  0.0342 -0.2306 -0.1955
18496W        W61413   6.772  31.881  29.271  0.0933  0.3765  0.1034
18497W        W61414   3.790  32.812  30.683  0.0460  0.0566  0.0939
18498W        W61415   1.550  33.129  30.393  0.0328 -0.0532 -0.2175
18499W        W61416   0.600  33.178  27.584 -0.2381 -0.0806  0.1578
18500W        W61417   2.810  33.448  31.374  0.4871 -0.1472 -0.1110
18501W        W61418   2.792  33.052  30.109  0.1334 -0.0390 -0.0749
18502W        W61419   1.810  30.558  29.659  0.0069  0.0069 -0.2138
18503W        W61420   2.572  29.003  28.841  0.2415 -0.0512  0.4136
18504W        W61421   2.380  31.922  26.487  0.1675 -0.4499 -0.0110
18505W        W61422   1.881  31.457  29.402 -0.0338 -0.0910 -0.0509
18506W        W61423   1.011  31.278  31.062 -0.1729  0.1011 -0.3459
18507W        W61424  34.489  31.083  30.200  0.2207  0.1065 -0.0080
18508W        W61425   3.414  30.200  30.784  0.0142  0.2063 -0.2338
18509W        W61426   1.704  31.957  29.253 -0.1981 -0.1904  0.0872
18510W        W61427   3.230  29.854  27.412 -0.1118 -0.0060 -0.0870
18511W        W61428   1.908  31.326  26.904 -0.0450 -0.3055 -0.0949
18512W        W61429   4.201  31.111  28.120 -0.1424 -0.3434 -0.0059
18513W        W61430   2.355  29.367  28.502 -0.0276 -0.1205 -0.1854
18514W        W61431   2.141  31.063  29.285  0.1070  0.0475 -0.0638
18515W        W61432   2.974  31.869  29.918  0.0503  0.2151 -0.0117
18516W        W61433   2.977  33.863  30.735 -0.0713 -0.1919  0.0059
18517W        W61434   1.679  30.987  29.379 -0.0403  0.1221  0.2061
18518W        W61435   3.850  29.700  30.138 -0.1948  0.2185  0.0106
18519W        W61436   1.855  32.563  28.391  0.1939  0.0964 -0.2212
18520W        W61437  34.267  31.931  29.899  0.1852 -0.0771  0.1114
18521W        W61438   3.756  32.612  29.806  0.2254 -0.2813  0.0627
18522W        W61439   5.221  32.571  29.630 -0.0192  0.2087  0.0707
18523W        W61440   3.559  31.166  26.519  0.1204 -0.2615 -0.0564
18524W        W61441   2.259  29.938  30.104  0.3740 -0.2413 -0.0534
18525W        W61442   2.444  31.232  30.056  0.0520  0.1796 -0.0782
18526W        W61443   0.238  31.466  29.464 -0.2242  0.1310  0.0397
18527W        W61444   1.940  29.940  26.143  0.0100  0.0981 -0.0801
18528W        W61445   4.656  31.795  30.674 -0.0746 -0.0396  0.0514
18529W        W61446  34.089  33.914  29.234  0.0894  0.0260 -0.0005
18530W        W61447   5.257  30.831  30.102  0.0424 -0.0771  0.1413
18531W        W61448   2.660  30.430  29.408 -0.0881  0.0027 -0.1610
18532W        W61449   3.594  29.388  28.864 -0.0299 -0.0069  0.2349
18533W        W61450   2.305  33.346  28.474  0.1375 -0.1533 -0.2007
18534W        W61451   2.568  28.057  27.571  0.1769  0.1829  0.3370
18535W        W61452   4.233  30.429  30.022 -0.1903 -0.1900 -0.0744
18536W        W61453   1.675  30.621  27.888 -0.1091  0.0359 -0.0741
18537W        W61454   3.279  33.812  28.502  0.2037  0.0819  0.1334
18538W        W61455   4.519  30.881  30.983 -0.0911 -0.1911  0.0809
18539W        W61456   3.298  30.453  26.365  0.2552 -0.0805  0.0057
18540W        W61457   0.437  31.049  29.336 -0.1744  0.0386  0.1388
18541W        W61458   2.003  30.282  30.426 -0.1407 -0.1107 -0.1669
18542W        W61459   4.180  31.798   0.820 -0.0375 -0.2914  0.0736
18543W        W61460   1.563  32.166  26.111  0.1088 -0.1396  0.2384
18544W        W61461   1.115  31.368  28.725 -0.0462  0.0004  0.0264
18545W        W61462   2.538  31.088  27.909 -0.1248 -0.1537  0.0037
18546W        W61463   1.582  29.085  30.715  0.1576  0.1315 -0.4064
18547W        W61464   3.193  30.857  29.453 -0.3973  0.1963 -0.2250
18548W        W61465   4.118  28.562  28.667 -0.3549  0.3949  0.0378
18549W        W61466   2.310  30.756  29.655 -0.0466 -0.3121 -0.0865
18550W        W61467   2.825  29.765  29.833  0.1646  0.1400 -0.1487
18551W        W61468   1.271  31.951  27.384 -0.0055  0.1923  0.2024
18552W        W61469   5.736  32.564  30.383  0.0622  0.2160 -0.0751
18553W        W61470   3.204  31.309  29.350 -0.0769  0.1311 -0.1594
18554W        W61471   1.553  31.806  25.734  0.0992 -0.4172 -0.1371
18555W        W61472   0.008  31.145  31.576  0.2954  0.1194 -0.4947
18556W        W61473   0.537  30.429  29.760  0.1066  0.1437  0.3386
18557W        W61474   0.727  31.739  31.027  0.0895  0.1192  0.1950
18558W        W61475   1.611  29.078   0.004  0.0155 -0.0809 -0.0471
18559W        W61476   3.669  29.528  29.722 -0.1122  0.2315 -0.0494
18560W        W61477   0.028  29.418  29.180 -0.0278  0.3112 -0.3095
18561W        W61478   4.324  29.404  29.622 -0.0018 -0.1060  0.0146
18562W        W61479   1.919  31.120  29.807 -0.0512 -0.0777  0.1753
18563W        W61480  34.239  31.441  29.942  0.2384 -0.0239 -0.1569
18564W        W61481   3.245  30.635  30.831 -0.0813  0.0993  0.2634
18565W        W61482   4.466  31.964  28.575 -0.1435 -0.0422  0.0303
18566W        W61483   4.170  32.662  31.014  0.2808 -0.1062 -0.1828
18567W        W61484   5.369  33.302  28.144 -0.2544  0.1740 -0.3320
18568W        W61485   0.046  31.895  30.670  0.1263  0.2053 -0.1291
18569W        W61486   1.635  29.842  28.498  0.0599  0.2624 -0.2564
18570W        W61487   1.576  32.746  29.975 -0.4295 -0.0690 -0.1977
18571W        W61488   4.031  30.970  30.875 -0.0309 -0.0573  0.0337
18572W        W61489   2.670  29.725  26.527  0.0091  0.2147  0.2534
18573W        W61490   2.563  31.905  29.467  0.2392 -0.1160 -0.2379
18574W        W61491   3.346  30.735  28.987  0.0570  0.1129  0.1477
18575W        W61492   0.947  30.326  30.817 -0.0203 -0.0019  0.0703
18576W        W61493   4.023  30.095  29.758 -0.5508  0.0082 -0.2176
18577W        W61494   4.661  31.355  30.846 -0.0523 -0.0735 -0.0225
18578W        W61495   4.036  29.019  30.395  0.2657 -0.0624 -0.1875
18579W        W61496   1.179  30.556  29.451 -0.0464 -0.0556 -0.0164
18580W        W61497   5.050  32.439  27.955 -0.2441  0.2424  0.1113
18581W        W61498   1.043  32.268  28.393 -0.0023 -0.2440 -0.0705
18582W        W61499   0.154  31.871  27.909 -0.1164 -0.2756  0.0938
18583W        W61500   2.134  32.193  29.194 -0.0894  0.1418  0.0460
18584W        W61501   4.761  29.676  29.514 -0.0283 -0.0936  0.1157
18585W        W61502   1.876  30.583  31.126 -0.2861  0.2585  0.1910
18586W        W61503   2.744  29.681  30.812  0.1137 -0.0224  0.0773
18587W        W61504   2.983  31.050  28.929  0.0030 -0.1119 -0.2830
18588W        W61505  34.611  32.589  31.864 -0.1515 -0.0104 -0.0710
18589W        W61506   1.527  29.204  27.348  0.0352 -0.2342 -0.0311
18590W        W61507   3.581  29.010  27.494  0.0872 -0.1378 -0.1971
18591W        W61508   2.928  30.641  30.453  0.0454 -0.2277 -0.3681
18592W        W61509   4.441  31.539  30.288  0.1189 -0.0172  0.0388
18593W        W61510   3.111  30.907  26.545 -0.1389 -0.0751  0.0985
18594W        W61511   3.016  29.918  28.378  0.1566 -0.3053 -0.1913
18595W        W61512   1.097  33.185  30.584  0.3562 -0.2899 -0.0334
18596W        W61513   1.192  31.750  28.345 -0.0835  0.1282 -0.1066
18597W        W61514   3.565  30.566  27.766  0.2317 -0.2238  0.2105
18598W        W61515   1.767  30.697  26.770 -0.1447  0.1723  0.1477
18599W        W61516   5.033  33.708  27.228  0.0107  0.0406 -0.3556
18600W        W61517   0.794  32.167  30.712  0.1860 -0.2529 -0.1896
18601W        W61518   3.454  31.169  29.776  0.0209  0.3863 -0.1553
18602W        W61519   2.948  31.315  30.218 -0.0242 -0.0099  0.1249
18603W        W61520   1.707  30.160  31.290 -0.1832  0.1030  0.0377
18604W        W61521   2.436  30.481  27.270  0.0234 -0.2203  0.0257
18605W        W61522   2.077  30.166  28.189  0.2090  0.0592 -0.0350
18606W        W61523   1.479  33.851  26.908  0.2528  0.1366 -0.3024
18607W        W61524   3.185  29.480  29.830  0.2566 -0.1925  0.3904
18608W        W61525   3.787  28.837  28.472 -0.1588  0.2664 -0.1609
18609W        W61526   2.489  27.857  30.236 -0.2541 -0.1437  0.1506
18610W        W61527   3.120  30.162   0.854 -0.0551  0.0375  0.2420
18611W        W61528   1.009  32.859  28.592  0.4767  0.0819  0.0898
18612W        W61529   5.313  28.187  30.393  0.2292  0.4340 -0.2304
18613W        W61530   0.846  29.861  29.019  0.2740  0.2584 -0.1216
18614W        W61531   2.293  29.465  30.236  0.0490  0.0816 -0.1319
18615W        W61532   1.730  29.549  29.456 -0.4126  0.0515  0.2949
18616W        W61533   1.264  33.324  28.962 -0.1077  0.0816 -0.3134
18617W        W61534   3.228  31.811  29.520 -0.1679 -0.0572  0.2213
18618W        W61535   2.837  31.034  27.447  0.0748 -0.3074  0.1995
18619W        W61536   2.806  28.983   1.883  0.1013 -0.2192 -0.0048
18620W        W61537   2.810  29.046  27.757  0.0809  0.0589  0.2900
18621W        W61538   1.123  32.098  26.456  0.0075  0.4148 -0.0480
18622W        W61539   3.178  32.313  28.496  0.2891 -0.1965 -0.1640
18623W        W61540   2.050  28.773  29.488  0.3930  0.1489  0.1154
18624W        W61541   1.177  32.779  30.887  0.1350 -0.1248 -0.1346
18625W        W61542   2.323  32.508  28.235  0.0783 -0.1237  0.0273
18626W        W61543   3.550  32.452  28.872 -0.0079 -0.0049 -0.1676
18627W        W61544   1.362  32.666  28.344  0.0414 -0.0888  0.0858
18628W        W61545   3.741  28.301  29.965 -0.1234  0.0079 -0.3423
18629W        W61546   0.149  34.053  28.677 -0.1599 -0.0175 -0.1434
18630W        W61547   2.041  30.915  27.671  0.0626 -0.2285  0.0080
18631W        W61548   1.135  30.360  30.373  0.1463  0.0893  0.2842
18632W        W61549   3.343  28.869  29.229 -0.0725 -0.1308 -0.1947
18633W        W61550   5.814  31.384  27.624  0.2038  0.2108 -0.0613
18634W        W61551   1.004  30.844  31.416 -0.5231 -0.3904  0.2284
18635W        W61552   3.328  29.989  29.664 -0.0998 -0.3301  0.2853
18636W        W61553   1.377  34.307  30.765 -0.3451  0.3835 -0.0289
18637W        W61554   2.674  28.731  30.363  0.0543 -0.2861  0.0307
18638W        W61555   3.855  28.842  27.139  0.1692 -0.3698 -0.0625
18639W        W61556   3.882  30.196  28.084  0.1875 -0.1582 -0.2458
18640W        W61557   2.747  31.436  30.868  0.3409  0.0247  0.3604
18641W        W61558   2.506  28.980  29.360 -0.3386  0.2610  0.2484
18642W        W61559   4.722  31.146  31.586  0.3488  0.1799 -0.0575
18643W        W61560   3.718  28.632  29.504 -0.0475  0.1686 -0.1357
18644W        W61561   1.326  34.350  27.763 -0.0274  0.2605 -0.3849
18645W        W61562   2.267  31.624  29.128  0.0489 -0.2008  0.0434
18646W        W61563   2.999  30.227  27.728 -0.0398 -0.1077 -0.1732
18647W        W61564   1.179  32.448  28.850  0.3165 -0.0290  0.0451
18648W        W61565   3.121  33.045  31.299  0.2117  0.0931  0.2528
18649W        W61566   5.011  30.995  31.147  0.0912 -0.0255  0.1099
18650W        W61567   2.003  29.874  29.206  0.2407 -0.0594 -0.1636
18651W        W61568   3.112  30.357  29.264 -0.0314  0.3541  0.1316
18652W        W61569   3.259  28.336  29.170 -0.0947  0.4425  0.1360
18653W        W61570   4.437  30.539  30.663 -0.4114  0.1182  0.2059
18654W        W61571   2.771  30.381  31.323 -0.0140  0.2606  0.1410
18655W        W61572   1.794  33.094  29.712 -0.1709  0.2142 -0.1715
18656W        W61573   4.767  29.410  29.933  0.0875  0.1193  0.1371
18657W        W61574   3.205  31.951  28.888  0.0104  0.2536 -0.0186
18658W        W61575   4.746  30.633  31.382 -0.1906 -0.0513  0.2116
18659W        W61576   1.764  32.310  28.829  0.1575  0.0112  0.1211
18660W        W61577  33.597  30.112   0.314 -0.1146  0.0494 -0.1749
18661W        W61578   2.376  34.011  29.058  0.1970  0.0098 -0.2787
18662W        W61579   3.842  28.637   0.332 -0.1930 -0.1123 -0.0947
18663W        W61580   3.002  33.379  30.787  0.2001  0.3143 -0.1251
18664W        W61581   0.697  32.091  29.658 -0.0190  0.2330  0.1751
18665W        W61582   3.054  31.553  31.740 -0.3369  0.0097 -0.0668
18666W        W61583   3.815  27.748  27.665 -0.1993 -0.3832 -0.1989
18667W        W61584   2.284  30.958  28.410  0.0528  0.1130  0.2204
18668W        W61585   2.170  30.411  29.316 -0.0042  0.0029  0.2433
18669W        W61586   4.351  28.986  28.545 -0.1040  0.1461  0.0133
18670W        W61587   4.087  30.643  27.920  0.1459  0.0942  0.2374
18671W        W61588   2.810  30.854  30.983  0.1397  0.0606  0.2141
18672W        W61589   2.571  29.217  30.613 -0.0196  0.2884 -0.0467
18673W        W61590   4.857  31.796  29.644  0.0423 -0.1570  0.1162
18674W        W61591   1.167  29.832  28.640 -0.3496  0.3486 -0.0300
18675W        W61592   0.723  33.271   0.126  0.1782  0.1149  0.2602
18676W        W61593   3.847  32.869   0.029  0.0935 -0.1307  0.1019
18677W        W61594   1.454  31.028  27.753  0.0249 -0.2427  0.0132
18678W        W61595   1.521  30.018  28.998 -0.2224  0.2754 -0.2522
18679W        W61596   2.256  31.882  30.633  0.3210 -0.0112 -0.2196
18680W        W61597   4.048  31.044  28.581  0.2729 -0.1016 -0.3481
18681W        W61598   1.431  30.398  27.432  0.2761 -0.0487  0.4049
18682W        W61599   4.045  29.708  28.873  0.1666  0.0327 -0.1346
18683W        W61600   2.883  31.192  29.727  0.0799  0.0542  0.1581
18684W        W61601   4.423  30.780  28.833  0.0585  0.0531  0.2636
18685W        W61602   2.567  32.136  28.088  0.3373  0.0374  0.1622
18686W        W61603   0.350  32.365  30.066  0.0128 -0.0405 -0.0582
18687W        W61604   2.070  29.333  30.712 -0.1177 -0.3343  0.0769
18688W        W61605   5.159  31.698  28.467 -0.0119 -0.2042  0.0824
18689W        W61606   5.725  29.880  29.854 -0.0139 -0.1337 -0.0262
18690W        W61607   3.513  29.315  30.196  0.3643 -0.1869 -0.3480
18691W        W61608   5.203  31.196  31.745  0.1924 -0.0501 -0.0869
18692W        W61609   1.366  30.007  30.907 -0.0045 -0.2387  0.0025
18693W        W61610   1.243  29.943   0.996  0.2086  0.1389 -0.0885
18694W        W61611   3.053  32.052  30.758  0.2380 -0.2245  0.2936
18695W        W61612   5.602  31.472  28.438 -0.1157 -0.0745  0.2715
18696W        W61613   5.872  30.141  28.637 -0.1567  0.0799 -0.3593
18697W        W61614   2.235  29.869  28.625  0.0803 -0.2627 -0.3507
18698W        W61615   4.691  29.823  28.141 -0.0836  0.1219  0.2323
18699W        W61616   0.504  31.872  31.484 -0.0110  0.1198  0.3671
18700W        W61617   4.361  31.364  31.206  0.1889  0.3049  0.2660
18701W        W61618   1.682  31.106  27.348  0.1879  0.0232 -0.1021
18702W        W61619   4.239  30.820  31.397 -0.1268 -0.0847  0.0262
18703W        W61620   3.344  33.012  29.202 -0.0259 -0.0661  0.0375
18704W        W61621   1.994  31.233  30.323  0.1118  0.1018  0.0355
18705W        W61622   3.510  30.305  28.802  0.3730  0.4547  0.2488
18706W        W61623   0.127  29.007  28.188 -0.2074 -0.0049  0.0026
18707W        W61624   1.206  33.653  30.497  0.2181  0.1168 -0.1991
18708W        W61625  34.632  29.631  26.554  0.0061  0.0840  0.3820
18709W        W61626   0.217  30.083  26.622  0.2544  0.3545 -0.2413
18710W        W61627   3.023  29.410  30.440  0.2577  0.2280  0.0014
18711W        W61628   5.469  29.993  31.543 -0.0982  0.0132  0.2901
18712W        W61629   4.349  29.384  28.256 -0.0395  0.0503  0.1812
18713W        W61630   6.066  28.184  30.088  0.0681  0.0773 -0.3014
18714W        W61631   1.325  31.309  28.125  0.3425  0.0572  0.3219
18715W        W61632   3.090  28.634  29.555  0.1557 -0.1345 -0.1333
18716W        W61633   0.752  33.187  29.009 -0.1433  0.5722  0.0519
18717W        W61634  34.530  33.240  29.157  0.0930  0.1018  0.0874
18718W        W61635   1.855  32.076  30.198  0.2335 -0.0146 -0.1450
18719W        W61636   3.265  27.073  28.750 -0.0261  0.1522  0.2244
18720W        W61637   4.626  29.330  28.748 -0.0318  0.0919 -0.0379
18721W        W61638   2.906  28.734  29.085  0.3327 -0.0703 -0.0936
18722W        W61639   5.350  30.354  28.534 -0.0029  0.1101  0.1880
18723W        W61640   4.298  31.559   0.164  0.0220  0.4948  0.0200
18724W        W61641   2.430  31.640  28.672  0.1110  0.1130  0.3088
18725W        W61642   5.148  31.548  30.296  0.1919  0.0769  0.2831
18726W        W61643   5.195  31.219  28.398 -0.1276  0.0558  0.0081
18727W        W61644   0.164  31.138  31.019 -0.1673  0.1554 -0.2197
18728W        W61645   0.264  31.597  31.031  0.1537 -0.5828  0.1592
18729W        W61646   1.730  32.904  30.966 -0.0561  0.0764 -0.0605
18730W        W61647   3.598  32.087  28.192 -0.2730  0.2453 -0.0851
18731W        W61648   0.462  30.055  27.982  0.1264 -0.3182 -0.1420
18732W        W61649   2.848  33.255  27.906  0.1847  0.0446 -0.5185
18733W        W61650   1.812  33.410  30.055  0.0018 -0.0159 -0.3154
18734W        W61651   0.672  30.868  31.052  0.0952  0.2299  0.0265
18735W        W61652   1.498  32.339  27.587 -0.0358  0.1177  0.2482
18736W        W61653   1.974  30.280  28.772  0.3825  0.3141 -0.2785
18737W        W61654   2.065  31.375  27.484 -0.1959  0.0409  0.0557
18738W        W61655   2.622  32.071  30.244  0.3084  0.2386 -0.4614
18739W        W61656   2.483  31.137  28.931 -0.2850  0.0678  0.1377
18740W        W61657   1.579  33.971  29.075  0.0249  0.0601 -0.0178
18741W        W61658   1.539  32.800  28.803  0.1429  0.1202  0.2942
18742W        W61659   3.405  31.106  27.635 -0.2911  0.0086 -0.1904
18743W        W61660   0.829  32.096  29.027 -0.3185 -0.2933 -0.1199
18744W        W61661   4.257  30.751   0.633  0.1354  0.1537 -0.0688
18745W        W61662   3.928  29.307  28.543 -0.0014 -0.0999  0.0240
18746W        W61663   4.184  29.826  28.329 -0.3834 -0.1006 -0.1546
18747W        W61664   3.233  31.206  28.428  0.1539 -0.0632 -0.0314
18748W        W61665   1.684  32.016   0.242 -0.0575  0.0990  0.2164
18749W        W61666   3.438  30.255  28.300  0.1299 -0.0006 -0.1457
18750W        W61667   0.544  28.744  28.057  0.0337 -0.0778  0.0764
18751W        W61668   2.654  30.761  31.694 -0.3658 -0.1502  0.1451
18752W        W61669   5.069  29.385  30.618  0.2534 -0.2476 -0.2294
18753W        W61670   1.573  32.499  30.600  0.2110  0.2000  0.2756
18754W        W61671   5.658  31.869  27.543 -0.0091  0.1431  0.0577
18755W        W61672   0.517  32.625  30.969 -0.0325 -0.0945  0.0668
18756W        W61673   2.539  29.755  28.288  0.2306 -0.1814  0.2149
18757W        W61674   4.580  28.658  28.888  0.0087  0.2218 -0.0170
18758W        W61675   2.143  31.819  25.602 -0.2992  0.0310  0.0953
18759W        W61676   2.797  31.028  28.401  0.3277  0.2117  0.0812
18760W        W61677   1.951  31.806  26.888 -0.0243  0.0245 -0.0673
18761W        W61678   0.745  32.062  30.192 -0.1514  0.2941 -0.0083
18762W        W61679   0.371  32.147  31.042 -0.1440  0.1470  0.2765
18763W        W61680  34.275  30.170  30.052 -0.3224 -0.1161 -0.3153
18764W        W61681   4.507  30.902  29.597 -0.2515  0.4436 -0.2567
18765W        W61682   2.652  30.947  29.377  0.1732  0.0782  0.2462
18766W        W61683   6.188  29.025  29.627  0.3157  0.2106  0.1612
18767W        W61684   1.312  29.270  29.533  0.0416  0.0085 -0.1837
18768W        W61685   1.951  29.472  28.832  0.1204 -0.2145 -0.0118
18769W        W61686   1.918  31.650  29.890 -0.0956 -0.4243  0.0249
18770W        W61687   0.317  33.182  29.414  0.0532  0.1894 -0.0078
18771W        W61688   3.212  30.977  27.073 -0.3040 -0.1093  0.3240
18772W        W61689   3.788  30.740  31.322  0.4540  0.0472 -0.2290
18773W        W61690   3.457  31.450  28.862  0.1476 -0.0828 -0.3126
18774W        W61691   4.002  32.005   0.411 -0.1724  0.0452  0.0305
18775W        W61692   1.834  30.082  30.809 -0.4130  0.0546 -0.0666
18776W        W61693   2.151  29.791  27.741  0.2867  0.2568 -0.1565
18777W        W61694   0.279  31.456  28.545  0.0785 -0.2582 -0.1147
18778W        W61695   3.074  30.486  29.780 -0.0674  0.2029  0.2535
18779W        W61696   4.640  31.674  31.837  0.0666 -0.1313 -0.0517
18780W        W61697   0.542  30.124  29.354  0.1077 -0.2328 -0.3189
18781W        W61698   5.366  31.997  31.222  0.3420  0.0676 -0.0273
18782W        W61699   4.796  28.177  28.800 -0.3001 -0.0402  0.0998
18783W        W61700   2.007  31.876  26.070  0.0816  0.4063 -0.0002
18784W        W61701   3.358  32.612  27.238 -0.0832 -0.1789 -0.2511
18785W        W61702   4.429  32.363  28.875  0.1788  0.1701  0.1549
18786W        W61703  34.361  31.920  31.042 -0.1684 -0.2279 -0.2485
18787W        W61704   4.752  31.887  30.173  0.1619 -0.5075  0.3415
18788W        W61705   4.785  30.398  29.794  0.1321 -0.2677 -0.3287
18789W        W61706   2.184  28.711  28.561  0.2558 -0.1033 -0.0366
18790W        W61707   0.675  30.437  31.374 -0.1704  0.0641  0.2301
18791W        W61708   2.079  33.858  27.584 -0.0252 -0.0490  0.2124
18792W        W61709   6.704  28.257  30.792  0.0233 -0.0144 -0.2666
18793W        W61710   4.124  27.608  29.100  0.0036 -0.0754 -0.2792
18794W        W61711   3.423  31.283  25.415  0.1560  0.0111  0.0025
18795W        W61712   5.111  29.887  29.896  0.1380  0.3079  0.0369
18796W        W61713   3.512  31.713  29.943 -0.2538  0.0484  0.0273
18797W        W61714   0.526  31.620  29.949 -0.1010  0.0495  0.0818
18798W        W61715   1.567  32.814  27.374  0.1973  0.2575  0.2046
18799W        W61716   1.506  30.476  30.716 -0.2168 -0.0019  0.2815
18800W        W61717   0.899  31.889  27.002 -0.4877 -0.1618 -0.0827
18801W        W61718   3.967  33.531  28.827 -0.1792 -0.0456  0.0452
18802W        W61719   5.828  32.042   0.736  0.0234 -0.2085  0.3399
18803W        W61720   0.984  29.104  28.508  0.3734 -0.1223  0.2119
18804W        W61721   5.177  30.345  29.521 -0.0246  0.1595 -0.0844
18805W        W61722   1.590  30.568  29.130  0.1266 -0.1408  0.0263
18806W        W61723   2.675  27.858  28.629 -0.0664  0.2725 -0.0127
18807W        W61724   1.270  28.863  26.894  0.0388  0.1579 -0.1693
18808W        W61725   2.093  32.378  30.543 -0.2028  0.2442  0.0556
18809W        W61726   2.723  30.748  29.947  0.2770  0.0841 -0.2242
18810W        W61727   1.318  32.019  27.967  0.0350 -0.0614  0.6557
18811W        W61728   1.424  28.879  30.185 -0.2078 -0.0669 -0.0392
18812W        W61729   2.482  28.597  30.944  0.0393  0.1450  0.2538
18813W        W61730   2.165  31.718  31.097 -0.1272  0.2112 -0.2652
18814W        W61731   0.601  31.316  30.728 -0.0062  0.1406 -0.0349
18815W        W61732   0.146  30.724  31.250 -0.0880  0.2671 -0.1222
18816W        W61733   4.415  32.326  30.078 -0.1519 -0.1770  0.0815
18817W        W61734   1.691  30.169  29.422 -0.1208 -0.1096  0.1464
18818W        W61735   0.570  29.950  30.764  0.2437  0.0327 -0.0228
18819W        W61736   3.488  31.968  31.005 -0.1402 -0.0649 -0.0929
18820W        W61737   2.824  32.007  28.503 -0.0420 -0.1415 -0.0620
18821W        W61738   3.606  30.565  29.402 -0.0102 -0.0866 -0.1216
18822W        W61739   5.559  31.644   1.597  0.0569  0.1331  0.0173
18823W        W61740   1.401  30.833  29.779  0.2476 -0.0462  0.1972
18824W        W61741   3.485  30.630  30.396  0.0416  0.1762 -0.2987
18825W        W61742   2.054  30.413   0.425 -0.0878 -0.0914 -0.1841
18826W        W61743   0.704  30.632  29.337  0.1211 -0.1980 -0.3538
18827W        W61744   2.394  30.356  28.523  0.1044  0.1413  0.1024
18828W        W61745   2.382  31.406  29.561  0.0919  0.1720  0.0635
18829W        W61746   4.067  32.976  26.639  0.1709 -0.0076 -0.2949
18830W        W61747   3.931  31.395  28.928 -0.1086 -0.3331  0.3374
18831W        W61748   3.381  32.395  30.334 -0.0650 -0.1781 -0.0961
18832W        W61749  33.551  30.289  29.836  0.0427  0.1049 -0.0923
18833W        W61750   3.123  32.086  28.048  0.0493 -0.1557 -0.1584
18834W        W61751   1.337  30.870  31.061 -0.0469  0.0784  0.0768
18835W        W61752   3.799  29.301  27.135  0.0480  0.4207 -0.2048
18836W        W61753   4.017  28.403  30.421  0.0370 -0.1409  0.1737
18837W        W61754   1.647  32.461  29.549  0.1580 -0.0838 -0.0352
18838W        W61755   1.890  29.126  30.223 -0.2165  0.0622 -0.0674
18839W        W61756   0.590  28.954  30.990  0.1206 -0.1424  0.2970
18840W        W61757   4.152  33.138  30.490  0.0261  0.0976  0.2697
18841W        W61758   0.842  29.052  29.415  0.0057 -0.0444 -0.0529
18842W        W61759   4.375  30.244  28.255 -0.3107  0.1493  0.0916
18843W        W61760   3.446  30.258  27.275 -0.0245 -0.0521 -0.1985
18844W        W61761   0.727  33.566  30.339 -0.0658  0.1537  0.1339
18845W        W61762   4.022  29.251  27.685  0.1966  0.2216 -0.0354
18846W        W61763   3.488  31.066  31.530 -0.1282 -0.4457 -0.0241
18847W        W61764   2.873  29.827  29.239  0.3573 -0.1875  0.1558
18848W        W61765   1.625  32.025  30.723 -0.3929 -0.1810  0.3149
18849W        W61766   1.183  31.720  30.078 -0.0471 -0.1508  0.2999
18850W        W61767   4.850  30.031  29.168 -0.3481 -0.0051 -0.2468
18851W        W61768   4.155  31.575  29.427 -0.0098 -0.0756 -0.1100
18852W        W61769   2.061  32.505  30.076  0.2726  0.0049  0.2443
18853W        W61770   4.007  30.711  30.451  0.1801 -0.1246 -0.0477
18854W        W61771   3.031  31.227  27.961  0.1792  0.0230 -0.2039
18855W        W61772   1.790  27.906  30.245  0.1446  0.0276  0.0503
18856W        W61773   2.129  30.737  28.826 -0.4093 -0.1389  0.1043
18857W        W61774   3.733  30.979  30.113  0.0025  0.0818  0.0909
18858W        W61775   2.218  30.802  30.245  0.2368 -0.2918  0.0686
18859W        W61776   0.535  29.573  29.393  0.1276  0.3949  0.1813
18860W        W61777   2.712  27.525  27.810 -0.5188  0.1153  0.0445
18861W        W61778   3.189  33.486  29.332 -0.0740  0.0644  0.2314
18862W        W61779   3.653  29.790  28.501 -0.0945  0.2100  0.0016
18863W        W61780   4.248  30.929  30.099  0.2140 -0.3087 -0.0987
18864W        W61781   3.339  30.406   0.390  0.0696 -0.1079 -0.0465
18865W        W61782  33.865  30.439  29.399  0.2852  0.0079 -0.1414
18866W        W61783   2.246  33.078  30.099  0.0827 -0.0255 -0.1507
18867W        W61784   1.121  34.053  31.304 -0.0981  0.0931  0.0450
18868W        W61785   1.253  31.470   0.532  0.5039 -0.2065 -0.0090
18869W        W61786   5.392  32.259   0.745  0.1803  0.2066  0.0504
18870W        W61787   2.365  30.570  30.688  0.3205  0.0624 -0.0150
18871W        W61788   2.715  31.281   0.130 -0.1217  0.1602  0.0903
18872W        W61789   5.502  32.300  30.783 -0.2804 -0.0627  0.0618
18873W        W61790   3.464  31.857  31.928 -0.2330  0.1024 -0.2660
18874W        W61791   1.665  29.434   0.368  0.3144 -0.0596  0.1095
18875W        W61792   3.530  31.148   0.104  0.1285  0.2844 -0.0305
18876W        W61793   2.102  32.248   0.024  0.0582  0.2730 -0.2705
18877W        W61794   3.079  31.123  30.658  0.1607 -0.3460  0.0008
18878W        W61795   0.684  33.620  29.453  0.2264 -0.3496  0.0578
18879W        W61796   2.470  31.176  31.248  0.1075 -0.1141 -0.2631
18880W        W61797   3.945  31.714  31.377  0.0661 -0.0124  0.2012
18881W        W61798  34.233  28.329   1.484 -0.0029 -0.0528 -0.3124
18882W        W61799   0.047  28.648   0.237  0.0132  0.1657 -0.1740
18883W        W61800  33.935  26.769  30.968 -0.2027  0.0937  0.0184
18884W        W61801   0.149  32.617  31.340 -0.0373 -0.1539  0.0266
18885W        W61802   4.104  29.378  30.799 -0.0620 -0.0056  0.0213
18886W        W61803   3.259  31.894  30.323  0.0747  0.1043  0.2004
18887W        W61804   2.631  31.409   0.998 -0.1560  0.3538  0.0320
18888W        W61805   0.863  29.904   0.592 -0.3781 -0.0121 -0.0915
18889W        W61806   1.242  34.191  30.162 -0.3718 -0.3711  0.2588
18890W        W61807   0.860  33.234  31.111 -0.0435  0.0295 -0.4079
18891W        W61808   0.189  30.812  30.618  0.3068  0.0872 -0.3318
18892W        W61809   1.616  30.239   0.735  0.0303 -0.4717  0.1627
18893W        W61810   4.033  31.290  30.402  0.2669  0.0991 -0.5041
18894W        W61811   2.721  32.417  30.626  0.2074 -0.2577 -0.2395
18895W        W61812   3.612  32.207  31.502  0.0903 -0.1219  0.2076
18896W        W61813   5.841  29.451  29.672 -0.2378 -0.0011  0.1266
18897W        W61814   1.112  29.039   0.560 -0.1484  0.3304 -0.0548
18898W        W61815   3.226  31.616  30.732 -0.0854 -0.2155 -0.0636
18899W        W61816   1.682  32.975   0.921 -0.0292 -0.0403  0.0964
18900W        W61817   1.418  32.154  31.634 -0.0995 -0.2900 -0.1545
18901W        W61818   2.596  30.921   1.009  0.2364 -0.0127  0.0186
18902W        W61819   3.197  31.284  31.092  0.0383  0.1287  0.0349
18903W        W61820   4.832  29.691  30.338 -0.1297  0.0996 -0.0824
18904W        W61821   2.901  30.127  30.739 -0.2905 -0.1830  0.1157
18905W        W61822   0.813  29.558  30.194 -0.0394  0.1149 -0.1641
18906W        W61823   3.598  33.755  30.815 -0.0909  0.0584  0.3516
18907W        W61824  34.180  31.696  31.759 -0.1262 -0.1115  0.0265
18908W        W61825   1.621  31.872  31.176 -0.0482  0.0181  0.4100
18909W        W61826   2.478  29.430   1.025  0.2635  0.0656  0.0417
18910W        W61827   2.425  33.180  31.796  0.0490 -0.3866 -0.3275
18911W        W61828   3.031  32.361  31.130 -0.1428  0.0374  0.0594
18912W        W61829  34.131  33.317  29.919  0.0644  0.2469 -0.0340
18913W        W61830   3.545  32.451   0.396  0.0870 -0.1877 -0.2350
18914W        W61831   3.068  29.070   0.232  0.0879  0.1921 -0.0685
18915W        W61832   2.324  29.903  29.595 -0.0683 -0.0499  0.1959
18916W        W61833   3.396  32.209  29.803 -0.2623  0.0724  0.0463
18917W        W61834   3.432  27.248   1.104 -0.1838  0.3663  0.1852
18918W        W61835   6.316  32.607  31.812  0.0485 -0.0688  0.0744
18919W        W61836   6.206  33.409   1.626  0.2100 -0.0400 -0.0008
18920W        W61837   0.893  33.816   0.704  0.0332 -0.1791 -0.2225
18921W        W61838   2.906  32.492  30.098 -0.1793  0.3212 -0.0447
18922W        W61839  34.251  32.303  31.321 -0.3766  0.0274 -0.0156
18923W        W61840  33.813  31.081   0.083  0.1000  0.0811  0.0045
18924W        W61841   2.370  30.675  31.289 -0.1200 -0.1606  0.0620
18925W        W61842   1.189  32.141  30.453 -0.1351  0.0296  0.1028
18926W        W61843   0.055  29.126   0.623 -0.1940  0.0774  0.2335
18927W        W61844   5.900  32.551   0.314 -0.3598 -0.0469 -0.4315
18928W        W61845   5.362  31.727   0.611  0.3859  0.2111  0.0878
18929W        W61846   3.257  32.015   1.150 -0.0219  0.1073 -0.0998
18930W        W61847   1.769  34.600  16.671  0.1375  0.0376 -0.0301
18931W        W61848   2.939  32.646  16.114  0.0321 -0.2557  0.0715
18932W        W61849   2.771  33.945  15.247  0.1161  0.0850 -0.0306
18933W        W61850   0.963  34.325  16.859  0.2829  0.1255  0.1134
18934W        W61851  34.672  33.753  18.747 -0.1117 -0.1902 -0.0983
18935W        W61852   2.722   1.461  15.287  0.2489 -0.1888  0.2957
18936W        W61853   1.534  33.176  16.990  0.0856  0.0457  0.0920
18937W        W61854   1.712  32.860  16.535  0.0076 -0.2237  0.2609
18938W        W61855  34.570  32.237  19.192  0.2386 -0.3580 -0.1242
18939W        W61856   3.844   0.100  17.679  0.1266  0.0104  0.0979
18940W        W61857  33.964  33.032  17.906  0.1077  0.3068 -0.2516
18941W        W61858   1.753  34.632  17.176 -0.0022 -0.0681  0.0793
18942W        W61859  34.093  33.563  17.790  0.0279  0.1966  0.2916
18943W        W61860   1.118  34.191  17.294  0.0256  0.0252 -0.3427
18944W        W61861   2.076  31.495  19.062  0.0429  0.1568  0.3843
18945W        W61862  33.353   1.397  16.819  0.2721  0.1491  0.1319
18946W        W61863   0.024  33.815  18.193 -0.1437  0.2500  0.0088
18947W        W61864   2.012   0.295  18.080 -0.2960  0.2817  0.0324
18948W        W61865   3.444  34.184  16.382  0.1938 -0.2876  0.1952
18949W        W61866   3.315   0.954  17.656  0.1220 -0.3072 -0.0893
18950W        W61867   2.663  34.405  18.494  0.4253 -0.0261  0.1829
18951W        W61868  33.406  33.785  18.768  0.1690 -0.0382  0.1227
18952W        W61869   3.008  34.570  16.529 -0.0144  0.1445 -0.0967
18953W        W61870   4.426   0.475  19.405  0.0177 -0.3128 -0.3057
18954W        W61871   3.010   0.360  16.413  0.1694 -0.3747 -0.1054
18955W        W61872   1.278  34.638  17.033  0.2484 -0.3315  0.0069
18956W        W61873   3.057  34.063  16.809 -0.4141 -0.1418  0.1370
18957W        W61874   2.547  33.648  17.246  0.0079  0.1299  0.0835
18958W        W61875   1.202  31.997  18.428  0.0483  0.4507  0.0687
18959W        W61876  34.415   0.127  16.260  0.0805 -0.0694  0.1913
18960W        W61877   2.276  34.152  17.647 -0.0254  0.0455  0.2818
18961W        W61878   1.867   0.438  19.187  0.1225 -0.1418  0.2694
18962W        W61879   0.016  34.201  17.295  0.1190  0.2522  0.3234
18963W        W61880  33.563  33.359  20.471  0.1675  0.2649  0.2483
18964W        W61881   1.543  33.460  20.663 -0.3193  0.0488  0.0980
18965W        W61882   1.981  33.305  16.812  0.3244  0.2675 -0.1231
18966W        W61883   3.473  32.780  16.042  0.2243 -0.0071  0.1478
18967W        W61884   3.894  33.080  18.886 -0.1146 -0.1408 -0.0553
18968W        W61885   2.831  32.562  18.315  0.4786  0.1154  0.2431
18969W        W61886   2.374  33.516  18.305  0.1182  0.0915 -0.3760
18970W        W61887   3.533  34.084  18.353 -0.1097  0.1774  0.1836
18971W        W61888   1.288  32.904  19.740 -0.1286  0.0123  0.0190
18972W        W61889   3.889  33.046  15.716 -0.1846 -0.2243 -0.0112
18973W        W61890  34.489  31.543  18.497  0.1478 -0.0308  0.0515
18974W        W61891   4.671  34.024  17.618  0.0630  0.2349 -0.4057
18975W        W61892   4.343  33.475  16.067  0.2837  0.0916  0.1394
18976W        W61893  33.971  33.083  18.901  0.1607 -0.2007  0.0684
18977W        W61894   0.455  32.106  16.785  0.1573  0.0460  0.0179
18978W        W61895   1.412  32.445  18.276 -0.0850  0.2204  0.0957
18979W        W61896   1.188  32.605  19.253 -0.2393  0.0146  0.1078
18980W        W61897   4.062  33.381  19.242  0.2600  0.0280  0.1185
18981W        W61898  34.009  33.942  17.384  0.1247  0.2173 -0.3466
18982W        W61899   0.785  33.309  17.513  0.3092 -0.1131  0.0046
18983W        W61900   1.513   0.277  17.851  0.3116  0.2089  0.4040
18984W        W61901   3.434  33.241  17.243  0.3434 -0.1912  0.4211
18985W        W61902   0.904  33.679  18.369 -0.0221 -0.4311  0.0590
18986W        W61903  34.398  33.807  17.006 -0.1303 -0.1298  0.0749
18987W        W61904   0.753  33.667  16.718  0.1508 -0.3121  0.1189
18988W        W61905   1.984  33.719  18.028 -0.4685 -0.2457  0.0528
18989W        W61906   0.613  34.068  16.489  0.3535 -0.0722  0.3229
18990W        W61907   2.893  32.989  16.490  0.0502  0.1169 -0.1886
18991W        W61908  34.378  33.356  18.107 -0.3371 -0.0883 -0.0320
18992W        W61909   4.019   1.018  17.272 -0.0242  0.4310 -0.3878
18993W        W61910  34.599  33.611  19.615 -0.2212  0.0444  0.0806
18994W        W61911   3.287  32.621  18.229 -0.2868  0.0367 -0.0193
18995W        W61912  34.516  33.848  17.597  0.2211 -0.0284  0.0083
18996W        W61913   2.435  32.364  15.344  0.2121  0.0732  0.1640
18997W        W61914   2.869  33.143  15.873 -0.2000  0.2156  0.2059
18998W        W61915   2.472  33.938  16.150  0.0917 -0.1470 -0.1702
18999W        W61916   3.874  32.090  15.655  0.1975  0.1331  0.2017
19000W        W61917   2.195  32.737  16.546 -0.1618  0.0282  0.0990
19001W        W61918   2.372  33.705  16.598 -0.1961 -0.1473 -0.0793
19002W        W61919   1.381   0.785  16.806 -0.3977  0.2445 -0.1494
19003W        W61920   0.034  32.353  18.118  0.1415 -0.3484 -0.1287
19004W        W61921   5.009  34.171  17.261  0.0561  0.1406 -0.1870
19005W        W61922   1.920   0.419  17.586  0.0760  0.1431 -0.1159
19006W        W61923   1.040  32.886  17.564 -0.0921 -0.0961 -0.3106
19007W        W61924   3.802  34.604  19.104 -0.2887 -0.0085  0.1047
19008W        W61925   3.472  32.664  17.358 -0.1846  0.2566  0.0468
19009W        W61926   2.725   1.615  17.102 -0.0991  0.0741  0.1445
19010W        W61927  34.169  33.348  16.075 -0.0291 -0.1182 -0.0561
19011W        W61928   4.381  31.003  19.408  0.2294  0.0778 -0.4549
19012W        W61929   3.679  32.896  20.094 -0.1485 -0.1126 -0.0954
19013W        W61930   1.301  34.574  17.551  0.0323  0.4885 -0.2167
19014W        W61931   1.626  33.447  17.816 -0.0545 -0.2184 -0.0699
19015W        W61932   3.907  33.108  16.256  0.1403 -0.0959  0.2031
19016W        W61933   2.005  34.083  16.062  0.0498 -0.1482 -0.2772
19017W        W61934  32.728  33.793  16.567  0.1364  0.4494  0.0819
19018W        W61935   2.270  34.503  16.871 -0.1698 -0.0665 -0.2828
19019W        W61936   0.927  33.725  17.210 -0.1046  0.2992  0.1168
19020W        W61937   0.853  33.211  18.580  0.0760 -0.0767  0.2643
19021W        W61938   2.774  33.931  17.565  0.0536  0.0656  0.0256
19022W        W61939   2.623  33.488  16.140  0.0672  0.1121  0.1208
19023W        W61940   2.296  33.505  19.541 -0.1043 -0.0190 -0.0794
19024W        W61941   0.023  31.676  16.037  0.2959  0.1542  0.3600
19025W        W61942   4.288  34.330  16.762  0.4387 -0.2777 -0.2802
19026W        W61943   1.847   1.651  19.110 -0.1565  0.4537  0.6092
19027W        W61944   0.649  33.192  16.708 -0.1830 -0.1906 -0.2575
19028W        W61945   2.035  33.200  18.534  0.2063  0.0312  0.1123
19029W        W61946   0.884  34.306  18.440 -0.0570  0.1995  0.0814
19030W        W61947   0.646  34.540  16.483 -0.0594 -0.1003  0.1314
19031W        W61948   2.597  34.108  17.071  0.0718 -0.0180 -0.1608
19032W        W61949   1.441  33.754  17.325 -0.0137 -0.0513  0.1249
19033W        W61950   2.721  33.189  18.038 -0.0221 -0.0249 -0.4176
19034W        W61951   2.153   2.127  18.982  0.1948  0.2124  0.0113
19035W        W61952   3.336  33.639  16.907 -0.0444 -0.0425 -0.0396
19036W        W61953   2.853  33.474  15.011 -0.1877 -0.2517  0.2055
19037W        W61954   2.571  31.298  19.019 -0.0362  0.0468  0.1192
19038W        W61955   3.322  33.289  18.045 -0.0762 -0.3469 -0.2218
19039W        W61956   3.040  33.597  15.537 -0.0954  0.1460  0.1643
19040W        W61957   3.800   0.167  21.930  0.0822 -0.1481  0.2899
19041W        W61958   0.631  34.128  17.227  0.0247  0.1821 -0.3066
19042W        W61959   0.670  33.723  20.696 -0.0376  0.2641 -0.0932
19043W        W61960   0.299   1.709  20.658  0.1550 -0.1559  0.1397
19044W        W61961   3.106  31.313  18.179 -0.2863 -0.2465 -0.0274
19045W        W61962   1.715  32.939  17.783 -0.1327  0.3974 -0.2926
19046W        W61963   2.724  34.447  17.517  0.1746  0.2026 -0.1498
19047W        W61964   5.175   0.473  17.629 -0.2106 -0.2313 -0.0235
19048W        W61965   2.694   0.895  19.242  0.2667 -0.1545  0.0391
19049W        W61966   3.259   0.420  17.586  0.0540  0.1897  0.5579
19050W        W61967   1.230  33.042  17.976  0.1195  0.3474  0.2054
19051W        W61968   0.715  33.264  16.218  0.1380 -0.3071  0.1358
19052W        W61969   4.197  33.248  18.513  0.0037 -0.0610 -0.3682
19053W        W61970   3.065  33.155  18.504  0.1731  0.0635  0.0939
19054W        W61971   1.460  33.666  19.816 -0.0281 -0.2307 -0.2823
19055W        W61972   2.231  31.743  20.908  0.0622  0.0080  0.2153
19056W        W61973   3.109  34.345  15.520  0.3292 -0.2318 -0.1010
19057W        W61974   3.532  33.719  17.849  0.1934 -0.0024  0.2904
19058W        W61975   4.977   0.839  16.062  0.1441  0.1238 -0.0757
19059W        W61976   3.005   0.286  18.440  0.0260 -0.2236  0.0287
19060W        W61977  33.798  33.404  17.007  0.1102 -0.0248 -0.2777
19061W        W61978   2.875  33.614  18.466 -0.0807  0.3085 -0.1288
19062W        W61979   2.110   0.292  16.943 -0.0840 -0.0718  0.2150
19063W        W61980   3.367  33.203  19.836 -0.0194 -0.2650  0.0146
19064W        W61981   1.826  31.527  19.465 -0.0488 -0.0691 -0.1408
19065W        W61982   0.554  32.953  17.190 -0.0441  0.0105  0.0400
19066W        W61983  34.480   1.551  17.523  0.2735  0.2629  0.0071
19067W        W61984   1.508  34.173  16.870  0.0582  0.4217 -0.0026
19068W        W61985   1.907  31.869  16.312 -0.1056 -0.2674  0.2811
19069W        W61986   3.379  33.983  15.841  0.2192  0.1535 -0.0592
19070W        W61987   2.978  34.475  17.013 -0.2446 -0.3673 -0.3871
19071W        W61988   0.994  32.263  20.166  0.0214  0.0011  0.1313
19072W        W61989   3.368   0.310  19.064 -0.0463 -0.1614 -0.4933
19073W        W61990   2.477   1.111  17.373 -0.0961  0.0190 -0.2585
19074W        W61991   2.677  31.924  18.356  0.0920 -0.0260 -0.3820
19075W        W61992   1.024   0.608  17.690 -0.0158 -0.0331  0.2451
19076W        W61993   0.940   1.404  18.144  0.1074  0.1179 -0.2551
19077W        W61994   0.538  31.620  16.886 -0.1496 -0.0218 -0.0602
19078W        W61995   2.517   0.375  16.140  0.3022  0.0903  0.2724
19079W        W61996   2.201  32.767  15.600 -0.1019  0.1026  0.2373
19080W        W61997   3.720  33.558  15.980 -0.0237 -0.2455 -0.0900
19081W        W61998   1.608   0.340  16.890  0.0370  0.2843 -0.1218
19082W        W61999   3.298   0.928  18.140  0.0251 -0.1513 -0.3640
19083W        W62000   0.459   0.506  17.583 -0.1415 -0.0697  0.2314
19084W        W62001   1.806  33.289  19.476 -0.1673 -0.4316 -0.0911
19085W        W62002   3.379  33.131  18.955 -0.0918 -0.4001 -0.0073
19086W        W62003  33.915  34.427  17.601  0.0306 -0.0825 -0.0291
19087W        W62004   1.285   1.800  19.033  0.1702  0.0500 -0.0162
19088W        W62005   4.211  33.067  17.425  0.0732 -0.3735  0.0470
19089W        W62006   2.987  33.662  17.998  0.1558  0.1075 -0.0551
19090W        W62007  33.483   1.349  17.574  0.0621 -0.0352 -0.2163
19091W        W62008   5.097  34.555  18.389  0.0642  0.0578  0.0841
19092W        W62009   1.636  32.896  18.512 -0.1290  0.1089  0.1722
19093W        W62010   4.238  32.136  17.831  0.1904 -0.2725 -0.0808
19094W        W62011   0.079  33.354  17.351 -0.0251 -0.1248 -0.0103
19095W        W62012   4.347   0.008  17.426  0.0164 -0.1819  0.0526
19096W        W62013   1.254   0.458  18.265 -0.0801 -0.0923  0.2957
19097W        W62014   2.602  34.265  16.541 -0.0940 -0.2205 -0.0143
19098W        W62015   2.975   1.140  16.314  0.1188  0.1222  0.0867
19099W        W62016   1.765   1.997  18.696  0.1686  0.3343  0.1155
19100W        W62017   0.437  33.761  17.521 -0.1172  0.0412 -0.2288
19101W        W62018   0.515  33.468  17.108 -0.1174  0.3937 -0.0477
19102W        W62019   0.277   1.480  16.613  0.0888 -0.0369 -0.2378
19103W        W62020   2.099   0.176  16.380 -0.3907  0.0201 -0.0250
19104W        W62021   1.504  33.051  16.140  0.4447  0.2468  0.4502
19105W        W62022   3.696  34.031  17.056  0.2772  0.0435  0.0825
19106W        W62023   3.509  34.489  15.208 -0.1759  0.0205 -0.0274
19107W        W62024  33.616   0.201  17.333 -0.0641  0.1882  0.0029
19108W        W62025   2.900  33.412  16.951  0.3727  0.0723  0.1736
19109W        W62026   2.014  34.139  16.627 -0.0838 -0.3761 -0.0140
19110W        W62027   2.895   1.037  17.842 -0.2688 -0.1890  0.1277
19111W        W62028   1.134  33.154  16.571  0.1300  0.0568  0.1614
19112W        W62029   3.268  33.777  22.069  0.0155 -0.2780 -0.0870
19113W        W62030   0.103  33.167  16.865 -0.0450 -0.1261  0.1778
19114W        W62031   1.555  34.124  16.392  0.0980 -0.0766  0.0053
19115W        W62032   4.705  31.082  16.427 -0.0569 -0.0731 -0.4098
19116W        W62033   2.777  32.721  15.156 -0.0843  0.0334 -0.4839
19117W        W62034   2.514  33.268  18.767  0.1300 -0.1043 -0.3512
19118W        W62035  33.903   0.047  16.904  0.0696  0.0828 -0.3220
19119W        W62036   1.922  32.230  22.399 -0.1502  0.1477  0.0334
19120W        W62037   1.113   1.322  20.068 -0.0492 -0.1542 -0.0517
19121W        W62038   0.388  34.046  18.525  0.1837 -0.2866  0.0384
19122W        W62039   1.565  32.446  17.766 -0.1330  0.0959  0.2124
19123W        W62040   2.389   0.721  17.697 -0.1429  0.1293 -0.2815
19124W        W62041  33.570  34.524  18.642  0.1029  0.4364 -0.0900
19125W        W62042   1.763  33.754  16.940 -0.1408 -0.0541  0.1632
19126W        W62043   3.770  33.575  19.735 -0.1277  0.3952  0.2249
19127W        W62044   0.385  32.013  17.259 -0.2358  0.4974 -0.0926
19128W        W62045  34.014  33.249  16.524  0.2972  0.0747 -0.2720
19129W        W62046   3.647   0.565  17.955 -0.2072  0.1177 -0.0512
19130W        W62047   0.601  31.774  17.645  0.2550  0.0669 -0.0320
19131W        W62048   4.468   0.078  16.507 -0.0965  0.0043 -0.2376
19132W        W62049   1.137   0.318  16.668 -0.2629 -0.1824  0.3095
19133W        W62050   1.455  32.002  18.837  0.0782  0.1855  0.0815
19134W        W62051   0.098  31.584  17.301  0.1327  0.0074 -0.0090
19135W        W62052   2.346  34.430  16.127 -0.0859 -0.1131 -0.0617
19136W        W62053   0.728   0.173  19.715 -0.0450 -0.3480  0.4160
19137W        W62054   3.187   0.260  16.895  0.0338  0.0283 -0.0556
19138W        W62055   4.305  34.309  17.777 -0.0600  0.2703  0.0020
19139W        W62056   0.789   1.072  17.363 -0.0864  0.1375 -0.1532
19140W        W62057   3.697   0.430  16.000 -0.2319 -0.1334 -0.2129
19141W        W62058   0.210  32.697  19.119 -0.0701  0.2484  0.2580
19142W        W62059   0.164  34.395  16.361 -0.0322 -0.0609 -0.2316
19143W        W62060  33.555   2.323  18.399  0.2580  0.0019 -0.0400
19144W        W62061   3.961  33.954  17.953 -0.3738  0.1512 -0.2149
19145W        W62062   1.301  33.286  17.489 -0.4714 -0.1223  0.1394
19146W        W62063   3.976  32.644  16.097 -0.0925  0.1636 -0.0687
19147W        W62064   0.137  33.492  19.174  0.1342  0.2382  0.0198
19148W        W62065   2.695  34.068  18.131  0.0102  0.4862 -0.0809
19149W        W62066   1.971   1.061  19.883  0.0095  0.1524  0.3450
19150W        W62067   0.751  34.432  23.028 -0.0968  0.0901  0.0105
19151W        W62068  34.145  31.216  23.396  0.1464  0.0490  0.1446
19152W        W62069   2.881  31.899  20.295 -0.0890  0.2050  0.2001
19153W        W62070   2.779   1.217  23.163 -0.1396  0.1710  0.2128
19154W        W62071   1.171  32.108  19.261  0.2185 -0.0835 -0.2499
19155W        W62072  32.423  33.494  21.780  0.4344  0.0054 -0.0939
19156W        W62073   2.359  34.315  21.402 -0.2093 -0.0015  0.1191
19157W        W62074   1.370  34.494  19.105  0.0881  0.0241  0.0815
19158W        W62075   3.140  33.425  21.621  0.2957 -0.2408  0.1100
19159W        W62076   1.659  33.848  18.392  0.1237  0.0947  0.1010
19160W        W62077   1.713  31.338  23.576 -0.0187 -0.1475  0.2360
19161W        W62078   2.461  34.393  23.152  0.0300 -0.1161  0.0772
19162W        W62079   0.770  32.817  21.010  0.0853 -0.2727  0.0869
19163W        W62080   3.333  33.814  19.762  0.6047  0.2220 -0.0186
19164W        W62081   1.429  33.886  23.065 -0.0190 -0.2939  0.0031
19165W        W62082   1.548  33.614  21.259 -0.3877  0.1704  0.4509
19166W        W62083   4.533   2.459  22.365 -0.0501  0.0316 -0.0021
19167W        W62084   3.823   0.161  22.380  0.4001 -0.1116  0.1742
19168W        W62085   3.295  34.104  23.380  0.2044  0.0774  0.0079
19169W        W62086   4.669   0.341  20.806 -0.1750 -0.1338 -0.0433
19170W        W62087   3.253  33.888  22.916  0.0180 -0.1012  0.0739
19171W        W62088   3.008   1.159  18.888  0.0304  0.2783 -0.0281
19172W        W62089   2.106  33.314  19.062  0.2529 -0.2160 -0.0198
19173W        W62090   2.848  34.593  18.024  0.0502  0.1291  0.0240
19174W        W62091   2.201  32.980  19.421  0.0148 -0.0100  0.0904
19175W        W62092   2.065  33.369  23.470  0.0327 -0.2266 -0.2311
19176W        W62093   0.805   0.791  20.963  0.0745  0.0407 -0.1746
19177W        W62094   3.457  32.640  21.393  0.2189 -0.2168 -0.2183
19178W        W62095  34.589   0.114  22.022 -0.0566 -0.0303  0.0213
19179W        W62096   1.604  33.888  20.402 -0.2756 -0.1370 -0.1693
19180W        W62097   0.116  34.427  23.864 -0.3565  0.0968 -0.1431
19181W        W62098   1.310  33.774  22.609  0.0811  0.2249  0.2636
19182W        W62099   0.212  31.888  19.348 -0.2561 -0.0088  0.0503
19183W        W62100   4.141   0.030  20.875 -0.1254  0.1869  0.2898
19184W        W62101   1.270   0.016  22.408 -0.2311 -0.2152 -0.1509
19185W        W62102   2.499  33.164  22.673  0.0796  0.0372 -0.2902
19186W        W62103   4.567  33.315  19.340  0.2421 -0.1719 -0.2437
19187W        W62104   0.507  33.197  22.726  0.0666 -0.3607 -0.2585
19188W        W62105   0.889  32.601  23.270  0.1493  0.2190 -0.1895
19189W        W62106   4.626  34.302  19.183  0.0261  0.0123 -0.0070
19190W        W62107   3.136  33.397  19.404 -0.1832 -0.0013  0.1929
19191W        W62108   2.456  34.273  21.939 -0.0930  0.0831  0.2132
19192W        W62109   3.366  33.603  18.419 -0.1040 -0.2870 -0.2664
19193W        W62110   2.236  32.848  18.834  0.1453  0.2065  0.1022
19194W        W62111  34.419  33.473  21.752  0.0775 -0.3437  0.3205
19195W        W62112   0.827  34.525  21.862  0.3590  0.1263  0.0500
19196W        W62113   0.690  31.892  22.104 -0.0023 -0.0114  0.1997
19197W        W62114   4.160  33.988  24.109 -0.2144 -0.0177 -0.1132
19198W        W62115   2.818  34.014  20.527 -0.0308  0.2387 -0.0692
19199W        W62116   3.072   0.161  21.559  0.1647  0.0158 -0.2544
19200W        W62117   2.374   0.911  20.117  0.1269  0.1771  0.2904
19201W        W62118   2.590   0.325  22.470 -0.0170  0.3131  0.0074
19202W        W62119   1.525  33.210  23.172  0.1622 -0.0180 -0.0946
19203W        W62120   3.021  32.496  19.650  0.0010  0.0500  0.2051
19204W        W62121   1.944  33.860  20.799  0.0456  0.1681 -0.1918
19205W        W62122   2.761  33.004  25.070 -0.0953  0.0935 -0.0606
19206W        W62123   1.787   0.005  22.212  0.0853  0.1332  0.5116
19207W        W62124   0.325  32.249  19.005 -0.1082 -0.0569 -0.2557
19208W        W62125  34.385  34.377  20.896 -0.1816 -0.0279  0.2758
19209W        W62126   3.552  31.208  19.401  0.1542  0.2177  0.2413
19210W        W62127   1.145  33.828  23.471  0.0804  0.0242  0.0046
19211W        W62128   1.037   0.715  25.690 -0.0941 -0.0893  0.0587
19212W        W62129   2.692  32.056  19.816 -0.0259  0.2126 -0.1985
19213W        W62130   1.068  33.530  23.117 -0.1979 -0.0269  0.0427
19214W        W62131   3.134  32.852  19.300 -0.1288  0.0159  0.0447
19215W        W62132   1.208  33.986  18.171  0.0806 -0.0131 -0.0366
19216W        W62133   1.558  32.449  19.976 -0.4722  0.0398 -0.1780
19217W        W62134   2.179  33.167  19.934 -0.1638  0.0914 -0.2003
19218W        W62135   2.136  31.476  21.478 -0.0427 -0.0930 -0.1886
19219W        W62136   2.010  34.226  19.676  0.1036  0.0105  0.0030
19220W        W62137   2.192   0.483  20.916  0.2029 -0.1870 -0.1899
19221W        W62138   1.953  34.118  23.124 -0.5644  0.0330  0.0098
19222W        W62139   2.451  33.869  23.218 -0.0578  0.0027  0.2524
19223W        W62140   2.153  32.097  23.877  0.3715 -0.0825  0.0821
19224W        W62141   2.676  33.719  22.728  0.0199  0.1157 -0.0050
19225W        W62142   3.673  33.676  19.280  0.1546 -0.0475 -0.0361
19226W        W62143   3.093   0.493  21.204  0.0448 -0.4531  0.1448
19227W        W62144   1.154  33.915  18.749 -0.1559  0.0286  0.0395
19228W        W62145   3.664  32.539  23.004  0.1653 -0.3646  0.0081
19229W        W62146   1.283  31.331  22.842  0.1554  0.0164  0.1381
19230W        W62147   2.832  34.350  19.768 -0.1560  0.2658  0.1507
19231W        W62148   1.988  32.112  21.873 -0.1993 -0.1681 -0.1417
19232W        W62149   4.028  32.667  22.448 -0.1492  0.2269 -0.2894
19233W        W62150   2.371  31.576  22.225  0.0377 -0.2457 -0.3193
19234W        W62151  33.754   1.724  21.862  0.3898 -0.1811 -0.2041
19235W        W62152   2.793  33.437  22.281 -0.3863 -0.2036 -0.2146
19236W        W62153   1.276  30.990  21.687  0.2290  0.1759 -0.1367
19237W        W62154   2.796   0.100  22.020  0.2034  0.3119 -0.0728
19238W        W62155   3.030  33.166  22.811 -0.2283 -0.0593 -0.1194
19239W        W62156   1.833  33.449  20.257  0.1888  0.4110  0.1503
19240W        W62157   2.061   0.396  25.049 -0.4057 -0.0348  0.2510
19241W        W62158   0.921  33.033  19.462  0.1368 -0.0462 -0.1279
19242W        W62159   4.787   2.023  22.291  0.1080  0.0571  0.1557
19243W        W62160   1.733   0.216  21.648 -0.0800 -0.5850  0.0633
19244W        W62161   0.680   0.249  18.989  0.1029  0.1679  0.1300
19245W        W62162   2.979   1.442  22.726 -0.3201  0.3547  0.2392
19246W        W62163   2.333   0.085  22.141 -0.1149  0.1354 -0.1221
19247W        W62164   3.372  30.897  20.342 -0.2787  0.1171 -0.3832
19248W        W62165   2.153   0.050  21.179  0.1230 -0.0646  0.1327
19249W        W62166   2.518  33.579  24.229 -0.1824  0.0019  0.1890
19250W        W62167   3.777  33.478  23.315  0.2329  0.3549  0.1915
19251W        W62168   5.166   3.052  25.151  0.2976  0.0403 -0.0242
19252W        W62169   0.265  31.372  22.690 -0.3135  0.0851  0.3811
19253W        W62170   2.276  33.622  22.206 -0.1268  0.2386  0.2014
19254W        W62171   2.260  31.838  20.393  0.1231  0.2254 -0.1135
19255W        W62172   3.837  34.300  22.405  0.0025  0.0021  0.0290
19256W        W62173   4.038   0.390  21.564  0.0315 -0.0962  0.2308
19257W        W62174   1.942  32.599  24.888 -0.2240 -0.1001  0.0323
19258W        W62175   2.690  34.014  23.989 -0.1278  0.0163 -0.1616
19259W        W62176   0.330  33.045  21.306 -0.1330  0.0206 -0.0369
19260W        W62177   2.059  34.498  23.504 -0.2478 -0.2835  0.1720
19261W        W62178   2.745  33.634  19.686  0.0788  0.2391 -0.0317
19262W        W62179   1.601  32.865  21.902  0.0604 -0.0016 -0.0725
19263W        W62180   1.612   0.051  18.314  0.3294 -0.0964  0.1646
19264W        W62181   4.564  34.199  19.689  0.5187  0.0165 -0.0538
19265W        W62182   1.681  33.544  22.156 -0.2230  0.5125  0.4455
19266W        W62183   2.501  33.382  21.720  0.2033  0.0159  0.0748
19267W        W62184   3.670  32.726  23.568 -0.0856 -0.0376 -0.0987
19268W        W62185   4.772  32.396  21.716  0.1021 -0.2119 -0.1611
19269W        W62186   2.525  34.113  25.329  0.5904  0.0713  0.2098
19270W        W62187   4.109   0.195  20.322  0.1775  0.0383 -0.1364
19271W        W62188   1.186  30.850  22.923  0.2019 -0.3221  0.0204
19272W        W62189   1.845  32.942  23.539  0.1898 -0.0588  0.1108
19273W        W62190   3.995   0.318  18.836  0.0259  0.1255  0.0986
19274W        W62191   4.422  34.301  21.761 -0.2192 -0.0452  0.1773
19275W        W62192   4.719  33.808  19.381  0.0846  0.1782  0.1366
19276W        W62193   2.284  33.513  20.674 -0.1562 -0.1412  0.1572
19277W        W62194   1.702  33.016  20.006  0.1894  0.0122 -0.2253
19278W        W62195   2.743   1.376  24.086 -0.0780  0.1086  0.1083
19279W        W62196   1.044  33.153  20.702 -0.2060 -0.1257  0.2478
19280W        W62197   2.117   0.060  22.655  0.2173  0.0009 -0.2445
19281W        W62198   2.544  34.339  20.251  0.1345  0.0784 -0.0251
19282W        W62199   2.756   0.085  21.150 -0.2010 -0.0191 -0.3362
19283W        W62200   3.284  34.580  21.143 -0.0774 -0.3797 -0.0519
19284W        W62201   2.494  33.902  18.563 -0.2688  0.2664  0.2325
19285W        W62202   1.731  32.944  19.002 -0.0294  0.0029 -0.1323
19286W        W62203   3.629  34.421  22.924 -0.0127 -0.0820  0.3756
19287W        W62204   1.442  32.685  23.232 -0.1758 -0.0907  0.1311
19288W        W62205   1.640  34.163  22.182 -0.2935 -0.2030  0.1184
19289W        W62206   4.023   0.620  22.518 -0.0866 -0.2077 -0.0996
19290W        W62207   2.513   0.051  21.602 -0.0041  0.0282  0.0008
19291W        W62208   3.794   1.575  24.294 -0.2978 -0.1326  0.1085
19292W        W62209   1.835   1.779  20.985 -0.0928  0.1618 -0.0209
19293W        W62210   0.587  34.459  23.724 -0.0722  0.1788 -0.0195
19294W        W62211   3.524  32.503  22.518 -0.1727  0.0406  0.2974
19295W        W62212   2.431  34.026  19.864 -0.1936 -0.2811 -0.0779
19296W        W62213   1.333  33.383  18.416  0.1411 -0.0961 -0.2332
19297W        W62214   3.185  34.345  20.595  0.0563  0.1831  0.0624
19298W        W62215   1.569  33.429  18.875 -0.0098 -0.0550 -0.3474
19299W        W62216   1.172  33.561  22.072  0.2254  0.3601 -0.0703
19300W        W62217   0.734  32.830  21.525 -0.1526  0.1527 -0.0998
19301W        W62218   1.866  32.996  21.384  0.2052 -0.1605 -0.1262
19302W        W62219   3.748  32.172  23.935  0.1637  0.2776  0.2038
19303W        W62220   2.001   0.595  20.212 -0.0214 -0.1248 -0.2489
19304W        W62221   1.741  32.713  22.369 -0.2833  0.0439  0.1557
19305W        W62222   3.167  34.224  22.457  0.2216 -0.0068 -0.1236
19306W        W62223   2.404  34.148  23.657 -0.2493  0.0339 -0.1217
19307W        W62224   1.126  32.164  22.134 -0.1061 -0.1052 -0.1815
19308W        W62225   5.007   0.340  18.818  0.2175  0.5385  0.2915
19309W        W62226   0.554  33.453  23.580 -0.1529 -0.2633 -0.3178
19310W        W62227   4.028  33.902  22.722 -0.1309  0.2579 -0.0625
19311W        W62228   0.624  34.350  22.413 -0.1540  0.4472 -0.0824
19312W        W62229   2.802  32.236  21.423 -0.3409  0.3414 -0.1248
19313W        W62230   0.872  34.123  21.556  0.1319  0.0625  0.0053
19314W        W62231   1.905  32.354  18.809  0.2996 -0.1569 -0.3471
19315W        W62232   4.287   1.072  22.937  0.0564 -0.0206  0.3895
19316W        W62233   0.674  34.466  21.055 -0.0489  0.0068 -0.0555
19317W        W62234   2.326  32.390  21.636  0.0298  0.1084 -0.1641
19318W        W62235   1.582  34.227  20.007 -0.1258 -0.0933  0.1989
19319W        W62236  33.321   1.834  20.141  0.2205 -0.2612  0.2359
19320W        W62237   1.649   0.262  21.033 -0.2546 -0.1967  0.0901
19321W        W62238   1.081  32.968  21.884  0.1634 -0.1386  0.0297
19322W        W62239   4.216   1.267  23.449 -0.0108  0.0444 -0.0590
19323W        W62240   4.213  33.974  22.233 -0.1854 -0.0920  0.2040
19324W        W62241   2.011  33.175  21.974  0.1635  0.0907 -0.0895
19325W        W62242   2.230  32.635  22.522  0.0367  0.0339 -0.2026
19326W        W62243   2.027  34.523  21.741 -0.0745 -0.1042  0.3126
19327W        W62244   3.833   1.082  23.164  0.0900  0.0904  0.0282
19328W        W62245   2.848  34.369  23.565 -0.1491  0.1790 -0.0170
19329W        W62246   3.931  33.463  21.358 -0.1181 -0.3695  0.2228
19330W        W62247   1.027  34.637  21.411  0.1284  0.1060  0.1280
19331W        W62248   2.130  33.978  20.321  0.2124 -0.4809 -0.2399
19332W        W62249   5.451  33.766  20.147  0.2398  0.0258 -0.1431
19333W        W62250   4.508   1.131  21.391 -0.0659  0.0966 -0.1026
19334W        W62251   2.880  33.101  19.780 -0.0922  0.0913  0.4154
19335W        W62252   0.941  34.132  20.747 -0.0019  0.1930  0.0285
19336W        W62253   2.794  34.665  24.814 -0.1680 -0.1786  0.0515
19337W        W62254   1.814  33.925  22.613  0.2771 -0.0720 -0.1025
19338W        W62255   1.651   0.659  20.742 -0.1114  0.1645 -0.4033
19339W        W62256   1.217  32.957  18.850 -0.3987  0.3347 -0.0200
19340W        W62257   2.055  31.798  22.658  0.0536  0.3438  0.1890
19341W        W62258   1.471  32.082  22.592  0.2771  0.0161  0.1070
19342W        W62259   1.044  33.565  20.990 -0.0623  0.1541  0.4895
19343W        W62260   2.661  33.895  21.439 -0.2511  0.1364  0.3925
19344W        W62261   2.940  31.664  23.897 -0.0855  0.2929 -0.0586
19345W        W62262  33.509  32.459  19.268 -0.2616  0.0350  0.1143
19346W        W62263   1.788   0.872  23.058  0.4176  0.0825 -0.2626
19347W        W62264   0.637  32.332  22.965 -0.0298  0.4212 -0.0000
19348W        W62265   1.457  33.900  21.757 -0.2730  0.2345  0.2150
19349W        W62266   1.394   1.748  20.082 -0.2078 -0.0214  0.0035
19350W        W62267   0.733  33.367  24.038 -0.0754  0.2035  0.0259
19351W        W62268   2.057  32.734  20.851  0.1242  0.1853 -0.0874
19352W        W62269   3.204  32.763  20.050 -0.0352 -0.2240  0.0771
19353W        W62270   1.557  33.309  21.690  0.0407  0.3094 -0.2649
19354W        W62271   2.130  34.299  22.388  0.1431 -0.3237  0.5495
19355W        W62272   2.408   0.239  24.496 -0.1698  0.1376 -0.2934
19356W        W62273   1.296  34.376  21.809 -0.0247 -0.2386  0.1084
19357W        W62274   2.379  34.513  17.898  0.0308 -0.1443  0.1609
19358W        W62275   0.768  33.296  21.829 -0.3592 -0.0626  0.0350
19359W        W62276   1.659   1.213  20.779 -0.1560  0.1035 -0.0814
19360W        W62277   1.384   0.275  20.551  0.1318  0.0176  0.1637
19361W        W62278   4.597  34.159  20.454 -0.2011  0.0434 -0.0464
19362W        W62279   2.963  32.561  21.687  0.1155  0.0235  0.3256
19363W        W62280   2.587  32.244  19.388  0.1656  0.2219  0.0337
19364W        W62281   3.955  33.186  26.235  0.2206 -0.0408  0.0059
19365W        W62282   3.268  34.622  23.369 -0.2221 -0.3214 -0.1916
19366W        W62283   2.905  33.559  23.148  0.1954  0.3280  0.1801
19367W        W62284   1.836  32.364  23.602 -0.1160 -0.3799 -0.2530
19368W        W62285   2.787  34.468  25.618 -0.1903  0.1374 -0.1654
19369W        W62286   1.413   0.257  23.783  0.0875 -0.1404 -0.0947
19370W        W62287   0.409   3.185  26.554 -0.0330  0.1345  0.1395
19371W        W62288   2.455  32.027  25.937  0.2524  0.1900  0.3168
19372W        W62289  34.392  34.387  25.982  0.1768  0.4030  0.2398
19373W        W62290   3.078   0.115  27.042  0.1094  0.2577  0.1235
19374W        W62291   0.218  34.583  22.793  0.3290  0.0541 -0.0558
19375W        W62292   1.543  34.340  25.581 -0.0110  0.2524 -0.0103
19376W        W62293   0.258  34.394  23.295 -0.1235  0.0905 -0.2201
19377W        W62294   2.085   1.040  29.896  0.3414  0.0605 -0.0717
19378W        W62295   2.362  33.803  25.669 -0.1288  0.1595  0.2122
19379W        W62296   1.063  34.380  23.474 -0.2057  0.1130 -0.0835
19380W        W62297   1.956   1.164  25.739  0.0978  0.0919  0.0379
19381W        W62298   2.740   0.779  25.730  0.0983  0.0418 -0.2181
19382W        W62299   3.551  32.916  26.502  0.2198 -0.2587  0.0284
19383W        W62300   1.523   0.873  22.557  0.1720  0.0103  0.0228
19384W        W62301   4.944  33.782  28.861 -0.0633  0.0783 -0.2811
19385W        W62302   2.347   1.145  26.069  0.1266  0.0335  0.0120
19386W        W62303   3.221  34.320  26.858  0.2573  0.0833 -0.2258
19387W        W62304   4.657  33.285  28.638  0.3864 -0.1660 -0.3949
19388W        W62305   1.797   0.516  24.581 -0.3396 -0.1051 -0.0821
19389W        W62306   1.643   0.270  22.626  0.2439  0.2507 -0.1024
19390W        W62307   4.388   0.715  25.296 -0.2197 -0.0220 -0.1792
19391W        W62308   1.949  34.107  25.371 -0.2754  0.0815  0.0558
19392W        W62309   1.355   0.516  26.087 -0.0610 -0.1729 -0.2867
19393W        W62310   0.813  33.107  26.642  0.1584 -0.1877  0.2175
19394W        W62311   3.701  33.951  26.584 -0.0529 -0.0505  0.3516
19395W        W62312   0.470   0.563  26.154 -0.0631 -0.1885 -0.1755
19396W        W62313   1.196  34.579  24.677 -0.0173 -0.0897  0.1670
19397W        W62314   1.033  33.741  27.233 -0.3859 -0.1216  0.1468
19398W        W62315   3.124  33.132  26.356 -0.2110  0.1019 -0.1626
19399W        W62316   2.851  30.136  23.440 -0.0171  0.1101 -0.1946
19400W        W62317   3.695   1.054  25.634 -0.2140  0.2866  0.0080
19401W        W62318   4.003  34.395  27.685  0.1695  0.0296 -0.1454
19402W        W62319   4.033   0.029  27.022  0.0112 -0.3746 -0.1095
19403W        W62320   4.047   0.931  23.959  0.2579  0.2912 -0.0665
19404W        W62321   1.618  34.510  26.742  0.2782  0.0736  0.2202
19405W        W62322  33.717  32.757  26.180 -0.2431 -0.0890 -0.0397
19406W        W62323   1.562   0.061  24.330  0.3973 -0.3205 -0.3044
19407W        W62324   2.672  33.679  26.070  0.2154 -0.0438 -0.0788
19408W        W62325   3.986  33.170  27.222  0.1623  0.0592 -0.1995
19409W        W62326   3.072  34.622  25.194 -0.0689  0.2520 -0.1059
19410W        W62327   0.450  31.570  25.550  0.0290  0.1052  0.5304
19411W        W62328   2.071  34.641  26.134  0.0255  0.1686 -0.2999
19412W        W62329   1.808  32.580  26.243 -0.2362 -0.0125 -0.0031
19413W        W62330   0.297  33.369  24.425 -0.1803 -0.2796  0.0238
19414W        W62331   4.253   0.653  26.790  0.0032  0.0755  0.0103
19415W        W62332   0.049   0.185  23.286  0.0653  0.1702  0.1990
19416W        W62333   2.327  33.365  25.917 -0.2627  0.3481  0.0538
19417W        W62334   1.377  33.844  25.273  0.0307 -0.1185  0.1980
19418W        W62335   3.411  33.569  27.911  0.2255 -0.4882 -0.1202
19419W        W62336   2.966   1.032  26.885  0.1301 -0.0418  0.0397
19420W        W62337  33.969  34.570  23.274 -0.0971 -0.3933 -0.0147
19421W        W62338   0.555   0.163  23.385  0.3696  0.0890  0.0919
19422W        W62339   2.178  32.743  26.766 -0.2288  0.0634 -0.0652
19423W        W62340   4.058   1.992  23.443  0.0301 -0.0746  0.0337
19424W        W62341   0.616  32.933  23.711 -0.0106  0.1839 -0.4199
19425W        W62342   1.169  34.517  26.121 -0.0435 -0.0427  0.2441
19426W        W62343   3.512  33.490  26.386  0.2146  0.0744  0.0357
19427W        W62344   2.630  33.744  27.657 -0.1292  0.0335  0.0557
19428W        W62345   2.920  32.160  25.726  0.0509  0.0508 -0.0767
19429W        W62346   2.466  33.621  23.762  0.4414 -0.0171  0.1212
19430W        W62347   4.893  32.715  24.605 -0.2629 -0.0802 -0.0025
19431W        W62348   5.200  32.190  24.549  0.3104 -0.1921  0.0792
19432W        W62349   1.430  33.241  24.051  0.0242 -0.2905 -0.0584
19433W        W62350   2.733  32.393  23.205 -0.0872 -0.2218 -0.1116
19434W        W62351   3.049  34.073  25.334  0.2355 -0.1998  0.2014
19435W        W62352   2.215  32.283  24.444 -0.2495 -0.0050 -0.1448
19436W        W62353   1.544  34.108  23.538 -0.1770 -0.0052 -0.0107
19437W        W62354   2.613  33.140  24.415 -0.1149  0.0762  0.5251
19438W        W62355   3.375  32.949  24.031  0.2004  0.2382  0.0009
19439W        W62356   3.030  32.436  27.605  0.0065  0.0491  0.1766
19440W        W62357   1.546   0.326  27.037  0.0572 -0.1440  0.1040
19441W        W62358   3.517   0.099  28.228  0.2543  0.0956 -0.0471
19442W        W62359   3.784  34.587  25.693 -0.0912  0.0769 -0.2396
19443W        W62360   3.864  33.651  26.060  0.2262 -0.0311 -0.2212
19444W        W62361   2.681   0.882  22.643  0.2112  0.0058  0.0645
19445W        W62362   1.641  34.389  26.192 -0.3292  0.1487  0.1168
19446W        W62363   3.386   2.237  26.442 -0.2963 -0.0584  0.2651
19447W        W62364   1.897  32.979  24.048 -0.1530 -0.3091 -0.0293
19448W        W62365   2.149  32.779  24.441  0.0776 -0.3915  0.0490
19449W        W62366   4.860  33.240  25.461  0.4080 -0.0718  0.3910
19450W        W62367   1.822  34.266  23.917  0.2820 -0.0143  0.0952
19451W        W62368   0.132   0.319  25.317 -0.1532 -0.1163  0.0299
19452W        W62369   2.652  32.463  24.166 -0.2169  0.0185  0.0854
19453W        W62370   0.711  33.428  25.954  0.1598  0.1800  0.1177
19454W        W62371   3.222  32.632  24.779 -0.0268 -0.2222 -0.0815
19455W        W62372   2.891   0.608  27.178  0.0059 -0.1288  0.0587
19456W        W62373   5.556  32.768  23.885  0.1946 -0.0036 -0.0626
19457W        W62374   0.691  34.092  29.350  0.0230  0.0377  0.3028
19458W        W62375   1.558  33.461  23.570  0.0766  0.3300  0.0721
19459W        W62376   6.308  33.365  26.539 -0.0816  0.0305  0.2339
19460W        W62377   1.743  34.633  24.795 -0.0417  0.0854 -0.0559
19461W        W62378   1.621   0.617  24.046 -0.0726  0.0093  0.3626
19462W        W62379   2.271  34.411  27.554  0.1273 -0.0119  0.0988
19463W        W62380   1.437  33.852  25.862 -0.0488 -0.1435  0.2558
19464W        W62381   0.417  32.857  24.611  0.1623 -0.0647 -0.2041
19465W        W62382   3.130  33.498  26.047  0.0354 -0.0609  0.1528
19466W        W62383   2.279   0.578  26.672  0.2381 -0.2320  0.1177
19467W        W62384   3.656  33.133  24.966 -0.3395 -0.0244 -0.2168
19468W        W62385   3.775   1.689  26.910 -0.1089  0.4492  0.1335
19469W        W62386   2.346  34.035  27.992 -0.1597  0.1125 -0.0561
19470W        W62387   2.366  33.136  23.922 -0.0157  0.2029  0.3228
19471W        W62388   2.198  34.422  27.062 -0.2365 -0.1769 -0.1612
19472W        W62389   4.513  33.603  27.326 -0.0499 -0.1092 -0.0866
19473W        W62390   3.284   1.697  21.647 -0.2865  0.2483 -0.1507
19474W        W62391   4.466  34.379  27.869  0.0718  0.1729  0.1305
19475W        W62392   0.930  33.920  26.134 -0.1168  0.0792 -0.1159
19476W        W62393   0.949  34.259  27.445 -0.1441  0.0628 -0.0297
19477W        W62394   0.876   0.123  28.937 -0.0591  0.0173 -0.1748
19478W        W62395   1.052   0.221  23.301 -0.1025  0.0119 -0.1167
19479W        W62396   1.348  34.436  23.880 -0.0647  0.3123  0.0559
19480W        W62397   3.020   1.510  26.556  0.2975  0.0849 -0.1931
19481W        W62398   3.824  34.245  26.050 -0.1541 -0.0814 -0.1804
19482W        W62399   1.274  34.139  26.444 -0.0646  0.0114 -0.0445
19483W        W62400   3.278   1.872  26.719  0.0109  0.2606 -0.2397
19484W        W62401   2.452  32.622  27.217  0.0910  0.2159  0.2080
19485W        W62402   2.682  32.532  25.942  0.0563 -0.2501 -0.2078
19486W        W62403   4.552  34.413  26.727 -0.2032 -0.1901  0.2619
19487W        W62404   2.635  34.334  26.882  0.1431 -0.1682  0.0610
19488W        W62405   0.706  32.840  29.412  0.0327 -0.2764 -0.0050
19489W        W62406   1.949  32.172  26.537  0.1717 -0.4537 -0.1130
19490W        W62407   1.644  34.497  21.388  0.0065 -0.0020 -0.0122
19491W        W62408   3.829  32.678  27.432  0.0618  0.2272  0.2511
19492W        W62409   3.634   1.353  27.404  0.1416  0.0225 -0.2795
19493W        W62410   1.775  33.644  25.554 -0.4086 -0.0276 -0.0920
19494W        W62411  34.127  33.963  26.169  0.1285 -0.0954  0.0956
19495W        W62412   3.071  33.571  27.578  0.0972  0.1519  0.1278
19496W        W62413   1.879  33.197  24.540  0.0643 -0.1948  0.1285
19497W        W62414   3.847  31.956  26.840  0.1551  0.1281  0.1236
19498W        W62415   2.736  34.090  26.422 -0.1919  0.3482  0.0650
19499W        W62416   1.302  34.089  24.819  0.1760  0.3036  0.1796
19500W        W62417   2.283  34.534  24.891 -0.0227  0.1097  0.1958
19501W        W62418   1.168   0.821  24.753 -0.1026  0.0324  0.0529
19502W        W62419   3.215  32.501  23.817 -0.0937  0.0398  0.2576
19503W        W62420   3.887  34.512  26.556  0.0157  0.1259  0.2084
19504W        W62421   2.982  34.008  25.928 -0.2753  0.0925 -0.4503
19505W        W62422   3.529  31.920  24.383  0.3230 -0.3112 -0.0561
19506W        W62423   4.174   0.630  25.987  0.1592 -0.1129  0.0719
19507W        W62424   0.707  34.591  25.669  0.0284  0.1160 -0.0277
19508W        W62425   3.622  33.957  28.140 -0.0383 -0.2412 -0.0409
19509W        W62426   2.511   0.957  25.142  0.2387  0.1029 -0.1741
19510W        W62427   0.623   0.220  26.485  0.1032  0.2433  0.2553
19511W        W62428   2.900  33.831  23.578  0.2158 -0.0035 -0.2512
19512W        W62429   3.782  33.963  23.167  0.1605 -0.0141 -0.0985
19513W        W62430   1.213  33.031  23.504  0.0604 -0.0137 -0.3939
19514W        W62431   4.191  34.021  28.039  0.5814 -0.4808  0.0120
19515W        W62432   4.061  33.525  26.632  0.2889  0.2091  0.0576
19516W        W62433   2.541  34.342  26.064 -0.2055 -0.3794  0.1976
19517W        W62434   2.404   0.491  25.377  0.0237 -0.0387 -0.4030
19518W        W62435   2.262   1.299  28.448  0.0864  0.1465  0.1602
19519W        W62436   4.470  33.197  28.167 -0.0208 -0.0299 -0.0588
19520W        W62437   1.943  33.828  23.624 -0.0019 -0.1218  0.3774
19521W        W62438   0.199  33.912  24.571  0.1156  0.0445  0.0518
19522W        W62439   5.137  33.565  27.764 -0.1021 -0.0425  0.0597
19523W        W62440   1.592   0.861  25.798 -0.0294 -0.0001 -0.3181
19524W        W62441   0.187  30.759  24.537 -0.1388 -0.0271  0.2993
19525W        W62442   3.274  33.252  27.284 -0.0268 -0.0087  0.0456
19526W        W62443   1.211   0.082  28.058  0.2490 -0.1696 -0.3389
19527W        W62444   3.166  33.405  25.200  0.4561  0.2351 -0.2251
19528W        W62445   2.818  33.545  25.544  0.0369 -0.1070  0.0720
19529W        W62446   1.885   0.529  26.166 -0.1150  0.3283 -0.1013
19530W        W62447   3.731  32.501  26.798  0.2333  0.1148 -0.0730
19531W        W62448   1.221   1.094  22.938  0.0817  0.2136  0.3380
19532W        W62449   5.390   1.275  28.557 -0.0537  0.1996  0.4612
19533W        W62450   2.241   0.964  23.602 -0.0372  0.3367  0.0815
19534W        W62451   1.345  33.356  27.053  0.0607 -0.1740  0.1163
19535W        W62452   4.647  34.363  23.436  0.1659  0.0684 -0.2612
19536W        W62453   0.820   0.075  25.066  0.0632  0.1744 -0.0547
19537W        W62454   1.061  34.551  26.627 -0.0346 -0.1544  0.1883
19538W        W62455   1.326  33.393  25.287  0.2887 -0.2586 -0.0782
19539W        W62456   3.404   1.322  26.914  0.0037 -0.3129 -0.1387
19540W        W62457   2.996   0.145  24.398  0.1588 -0.2992  0.1866
19541W        W62458   0.936  33.157  25.518  0.0063 -0.1325 -0.0631
19542W        W62459   4.254  33.625  23.074  0.0785 -0.0272 -0.2081
19543W        W62460   1.258  33.537  26.231  0.1422 -0.0504 -0.0855
19544W        W62461   4.781  30.447  27.543  0.2312 -0.3060  0.1710
19545W        W62462   2.907  34.590  26.569 -0.1933  0.0955  0.0323
19546W        W62463   4.481  31.219  26.996 -0.1474  0.4577 -0.1532
19547W        W62464   1.456   0.044  25.201 -0.2139 -0.0103  0.2158
19548W        W62465   1.836  33.459  24.953 -0.0089 -0.2480  0.3813
19549W        W62466   3.357  33.380  24.352 -0.0741  0.0825  0.0948
19550W        W62467   3.092  31.672  24.385 -0.2298  0.1612 -0.2377
19551W        W62468   2.214  33.680  26.346  0.2635  0.3189  0.0722
19552W        W62469   1.539   0.429  23.221  0.0150 -0.0149  0.2173
19553W        W62470   1.067  33.849  27.756  0.2044 -0.0602 -0.0482
19554W        W62471   1.847  32.964  25.935 -0.2676 -0.0802  0.3078
19555W        W62472   1.729   1.620  25.708 -0.0117 -0.0750 -0.1192
19556W        W62473   1.127  33.629  24.179 -0.4541  0.2190 -0.2077
19557W        W62474  34.529  34.101  25.066  0.2821  0.3829  0.1156
19558W        W62475  33.502  32.629  27.445 -0.2043  0.1172  0.3329
19559W        W62476   2.909  33.332  24.020  0.3129 -0.3157 -0.0047
19560W        W62477   1.346  34.052  28.195 -0.0982  0.1556  0.1481
19561W        W62478   3.520  34.607  27.149 -0.0505  0.0042  0.0029
19562W        W62479   0.425   0.158  21.895 -0.1441 -0.0715  0.2526
19563W        W62480   0.582  34.063  26.506  0.1092  0.0224  0.0410
19564W        W62481   0.526  33.600  25.508 -0.1650 -0.1445  0.3395
19565W        W62482   2.675  33.345  26.401 -0.2978 -0.0610  0.0313
19566W        W62483   4.145  33.646  25.538  0.4051  0.2242  0.0176
19567W        W62484   0.787  32.593  26.279  0.0152  0.0485 -0.1162
19568W        W62485   0.873  33.082  24.541 -0.2405 -0.1705  0.1060
19569W        W62486   3.176  32.893  26.866 -0.2189 -0.2204  0.0757
19570W        W62487   1.905   1.048  26.331  0.1986 -0.1883  0.0679
19571W        W62488   3.249  34.446  24.744  0.3481  0.2936  0.0425
19572W        W62489   3.486  33.104  26.007 -0.2515 -0.0490  0.0076
19573W        W62490   1.776  32.494  24.193  0.1980 -0.0923  0.1309
19574W        W62491   3.864   1.019  26.124  0.1373 -0.0770  0.2103
19575W        W62492   1.888  33.435  26.043 -0.1969  0.0254  0.1813
19576W        W62493   1.829  34.067  24.880 -0.2461 -0.1515 -0.4333
19577W        W62494   2.087   0.927  24.254  0.0523  0.2058  0.0654
19578W        W62495   1.456  33.273  25.829 -0.1044 -0.0223  0.2477
19579W        W62496  34.027  32.342  24.968 -0.1491  0.0197 -0.0814
19580W        W62497   2.220  33.947  24.092  0.2042 -0.1630  0.3527
19581W        W62498   2.196  32.865  28.684 -0.1074  0.2199 -0.1259
19582W        W62499   4.247  33.372  27.702 -0.3311 -0.3202 -0.1447
19583W        W62500   4.239  32.621  28.373  0.0683 -0.1412  0.1299
19584W        W62501   1.466  32.903  27.890  0.2351  0.0929 -0.1884
19585W        W62502   1.908  31.106  31.055  0.1132 -0.0929 -0.1729
19586W        W62503   1.087  33.586  28.229 -0.3936  0.1976  0.8114
19587W        W62504   2.017  31.962  28.246 -0.0472 -0.0869 -0.0300
19588W        W62505   1.747  32.160  27.196  0.0452  0.3757  0.0081
19589W        W62506   0.521  32.158  28.581 -0.2615 -0.0474 -0.0879
19590W        W62507   4.644  33.655  30.421 -0.2563  0.2969  0.1590
19591W        W62508   2.583   1.668  28.230  0.0914 -0.0049 -0.1850
19592W        W62509   0.318  33.627  28.451  0.2445  0.0443 -0.0918
19593W        W62510   1.089  32.610  27.433 -0.2387  0.2156 -0.3145
19594W        W62511   1.949  34.298  28.947  0.3062 -0.0166  0.2050
19595W        W62512   1.196  32.240  30.946  0.3900  0.0519 -0.3436
19596W        W62513   0.317   1.042  26.127  0.0447 -0.3511  0.0358
19597W        W62514  34.478  34.063  27.177 -0.1821  0.1191  0.0915
19598W        W62515   0.566  33.560  30.821  0.1451 -0.0587  0.0394
19599W        W62516   2.489  32.303  29.856  0.0720 -0.3719 -0.0737
19600W        W62517   3.952   0.793  29.625 -0.0441  0.1595 -0.3358
19601W        W62518   3.046  33.772   0.144  0.3423  0.2544  0.0838
19602W        W62519   3.291  32.592  30.770 -0.2447  0.1392 -0.0286
19603W        W62520   4.179  32.883  30.095  0.1797 -0.1570  0.0249
19604W        W62521   4.049  33.886  30.991  0.1725 -0.0805 -0.0848
19605W        W62522   3.307  33.103  28.215 -0.1285 -0.0390  0.1137
19606W        W62523   3.900  33.283  25.719 -0.1697  0.0438 -0.2030
19607W        W62524   5.245  33.016  31.047 -0.1162  0.1864 -0.1489
19608W        W62525   1.869  34.123  28.446  0.3137 -0.0291  0.0637
19609W        W62526   1.731  33.835  30.345 -0.2308  0.0157 -0.1230
19610W        W62527   2.286  34.509  29.272 -0.4422 -0.2613 -0.3465
19611W        W62528   3.889  33.322  30.939  0.0428  0.0111 -0.0462
19612W        W62529   1.362   0.298  28.457  0.3989  0.0568 -0.0019
19613W        W62530   1.041  33.621  26.657  0.3501  0.1684 -0.1276
19614W        W62531   0.889   2.020  30.484  0.0345  0.3573  0.0015
19615W        W62532   1.507   0.556  30.911  0.1357  0.0274  0.0004
19616W        W62533   1.218  32.846  26.996  0.1698 -0.1400 -0.1490
19617W        W62534   4.371  33.906  30.020  0.0321  0.1810 -0.0013
19618W        W62535   3.776  31.778  30.392  0.2530 -0.0054  0.0396
19619W        W62536   2.466  32.733  30.341  0.4073  0.0208 -0.1194
19620W        W62537   4.717  33.269  27.679  0.2206  0.0673  0.2996
19621W        W62538   2.670  32.576  28.545 -0.1704 -0.2716  0.3130
19622W        W62539   2.630   0.512  28.072 -0.1024 -0.1396  0.1506
19623W        W62540   4.604  32.762  27.945 -0.2038 -0.0567  0.0453
19624W        W62541   1.353   0.063  28.936 -0.2290  0.0709  0.0654
19625W        W62542   4.995  31.503  26.304 -0.2889 -0.0705  0.3027
19626W        W62543   4.930   0.359  27.424 -0.2276 -0.0352  0.1201
19627W        W62544   1.972   1.888  28.922  0.0183  0.0991 -0.1466
19628W        W62545   1.194  29.967  27.266 -0.0199 -0.1302 -0.0056
19629W        W62546   1.102  33.663  31.011  0.0379  0.1092  0.1225
19630W        W62547   2.459  33.813  28.650  0.3276  0.1741 -0.2005
19631W        W62548   2.697  32.323   0.085  0.0141 -0.1326 -0.1265
19632W        W62549   0.619  33.786  26.912  0.3081 -0.1292 -0.1621
19633W        W62550   2.014  32.126  29.743 -0.0158  0.1949  0.1305
19634W        W62551   1.854  34.516  27.766 -0.3409 -0.0743 -0.0675
19635W        W62552   3.915  32.361   0.877  0.1260  0.1263  0.2115
19636W        W62553   2.587  33.004  26.894 -0.2280  0.0935  0.0209
19637W        W62554   1.359  33.148  28.462 -0.1370 -0.1485 -0.2438
19638W        W62555   0.832   1.480  25.606 -0.3173 -0.3655  0.0409
19639W        W62556   4.255  31.961  30.417  0.1901  0.0688 -0.0046
19640W        W62557   3.192  32.800  28.562  0.2226 -0.0407 -0.0053
19641W        W62558   0.575  33.455  28.011 -0.0063 -0.1393  0.0714
19642W        W62559   0.140  31.885  28.739 -0.1194 -0.0319  0.1578
19643W        W62560   4.543  31.099  30.494  0.0159  0.2155  0.1674
19644W        W62561  33.856   0.754  30.757  0.3668 -0.1647 -0.0732
19645W        W62562   2.912  33.151  31.767 -0.1102 -0.2068  0.0084
19646W        W62563  33.660  33.841  28.214  0.1789  0.1973  0.4113
19647W        W62564   5.796  33.386  29.364  0.2905 -0.3350  0.4116
19648W        W62565   3.848  32.365  29.260 -0.3515  0.2291  0.1438
19649W        W62566   4.045  33.645  27.111  0.0791  0.2261 -0.0603
19650W        W62567   4.223  30.812  26.617  0.1391 -0.2663 -0.0252
19651W        W62568   1.686  33.007  26.889  0.1874  0.0656  0.0726
19652W        W62569   2.072  32.833  27.695 -0.0268 -0.1049 -0.4975
19653W        W62570   1.519  33.802  27.444  0.0405  0.1633  0.0937
19654W        W62571   1.034  31.268  30.000  0.0262  0.3032  0.1258
19655W        W62572   5.999  32.244  31.874 -0.2560 -0.0633  0.2342
19656W        W62573   4.204  32.487  29.665 -0.2867 -0.2692  0.0456
19657W        W62574   2.799  34.308  28.925  0.1736 -0.0203  0.0008
19658W        W62575   5.930  33.198  30.501  0.3057 -0.3457  0.2498
19659W        W62576   3.122  33.271  28.767 -0.0550 -0.0780  0.1804
19660W        W62577   2.737  34.498  29.447 -0.1504 -0.4476  0.0850
19661W        W62578   1.110   0.678  27.625 -0.0667 -0.0398 -0.0947
19662W        W62579   2.229  32.625  29.565 -0.0066 -0.1183 -0.0882
19663W        W62580   0.476  34.641  29.985  0.3330  0.0039  0.4830
19664W        W62581   2.394  33.008  28.089 -0.0818  0.0687  0.0527
19665W        W62582   1.024  33.768  29.080  0.3677 -0.1558 -0.1152
19666W        W62583   2.738  32.742  29.703 -0.1715  0.1254 -0.2369
19667W        W62584   1.982   0.095  29.596  0.0125 -0.0884 -0.1655
19668W        W62585   0.209   1.264  29.505  0.0608  0.3596  0.0335
19669W        W62586   4.669  32.324  30.509  0.0105 -0.2774  0.1212
19670W        W62587   1.680   0.117  31.093  0.0941 -0.2178 -0.3213
19671W        W62588   2.240  31.877  27.277  0.0160  0.2881 -0.1207
19672W        W62589   4.398  33.483  30.853  0.4012 -0.1955 -0.1224
19673W        W62590   4.039  33.128  28.435 -0.0592 -0.5024  0.0303
19674W        W62591   2.295   0.114   0.272 -0.2948  0.2542 -0.2077
19675W        W62592   2.890  32.819  27.336  0.1324 -0.1760  0.1548
19676W        W62593   3.727  31.464  30.904 -0.5405 -0.4268 -0.0947
19677W        W62594   1.673  32.489  26.829  0.0782 -0.0129  0.3147
19678W        W62595   2.063   1.350  27.689 -0.3253 -0.1976  0.3050
19679W        W62596   0.933  34.048  30.723 -0.0961  0.2611  0.2032
19680W        W62597   2.074  33.486  29.629  0.1053  0.0659  0.0568
19681W        W62598   1.854  33.032  28.251 -0.0081 -0.0814 -0.0597
19682W        W62599   2.528  32.545  29.182 -0.0316 -0.3188  0.0167
19683W        W62600   3.959  32.090  29.621  0.2707 -0.3635 -0.1464
19684W        W62601   2.151  32.226  31.013 -0.3154  0.4061  0.0520
19685W        W62602   2.026   0.561  29.511 -0.3041 -0.0754  0.1924
19686W        W62603   4.031  32.666  28.860 -0.0452 -0.1215 -0.0741
19687W        W62604   5.211  34.246  30.443  0.1502 -0.0534 -0.1077
19688W        W62605   0.924  33.076  27.947 -0.1644  0.3319 -0.1748
19689W        W62606   3.622  30.595  31.947 -0.0197 -0.0023  0.3129
19690W        W62607   2.835  34.103  28.442  0.1242 -0.0415 -0.0526
19691W        W62608   3.331  33.788  30.387  0.3547 -0.0977 -0.0702
19692W        W62609   0.238  32.414  29.607 -0.0357 -0.2444 -0.0447
19693W        W62610   1.173  34.000  29.483 -0.0593 -0.0636 -0.0935
19694W        W62611   0.826   0.314  30.114  0.0979 -0.3453 -0.3456
19695W        W62612   2.469  33.577  28.098  0.2338  0.2545 -0.1827
19696W        W62613   1.423  31.876  26.791  0.2932  0.0188 -0.1280
19697W        W62614   3.123  34.655  31.118 -0.1660  0.0281 -0.0418
19698W        W62615   4.027  33.874  29.179 -0.1214 -0.2591  0.1752
19699W        W62616   2.061  33.845  30.685 -0.0210  0.0051 -0.3286
19700W        W62617   3.735  32.648  28.447  0.1812  0.5152 -0.1629
19701W        W62618   1.150   0.547  29.373  0.1917  0.1127  0.2386
19702W        W62619   2.371  31.502  26.855 -0.2476  0.0245  0.1096
19703W        W62620   2.839  33.633  30.344  0.2350  0.0257 -0.0144
19704W        W62621   3.622  34.547  30.176  0.3109 -0.2319 -0.0344
19705W        W62622   3.267  32.632  29.544  0.1376 -0.0508  0.2615
19706W        W62623  32.622  32.739  31.144  0.3554  0.1341  0.2141
19707W        W62624   4.054   0.169  28.676  0.0083  0.0427  0.0469
19708W        W62625   1.732  34.236  29.927  0.2155  0.0837 -0.1177
19709W        W62626   4.035  33.063  29.623  0.1152  0.1859  0.4038
19710W        W62627   1.756   0.229  28.092 -0.2784 -0.0329  0.0739
19711W        W62628   1.355  33.305  29.853 -0.0634  0.3414  0.3260
19712W        W62629   3.192   0.311  30.614 -0.1170 -0.0778 -0.0200
19713W        W62630   3.446  33.615  28.967  0.3091 -0.0491  0.0730
19714W        W62631   4.611  32.383  31.427 -0.0752  0.1698  0.3342
19715W        W62632   4.915  32.354  30.010 -0.4724  0.1801 -0.1617
19716W        W62633   1.727  34.653  28.563 -0.3192 -0.0381 -0.2297
19717W        W62634   2.874  32.768  28.048 -0.2917 -0.0980 -0.0893
19718W        W62635   3.196  32.019  26.905 -0.1169 -0.1861 -0.0801
19719W        W62636   2.000  31.851  28.831 -0.0767 -0.0908  0.0050
19720W        W62637   5.209  33.484  31.261 -0.2137 -0.1690  0.1303
19721W        W62638   2.738  31.469  29.207  0.0408  0.0569 -0.3704
19722W        W62639   2.537  33.946  29.576  0.1501 -0.0700 -0.3333
19723W        W62640   3.524  34.023  29.298 -0.0239 -0.1960 -0.1411
19724W        W62641   2.892   0.991  31.087 -0.3454 -0.2650  0.0331
19725W        W62642   5.349  33.843  30.110  0.3527 -0.1032  0.2953
19726W        W62643   1.521  33.917  31.048  0.0466 -0.1045 -0.0577
19727W        W62644  31.694  32.647  31.340  0.0486 -0.0031  0.1870
19728W        W62645   2.518  33.012  27.590  0.1435  0.2216  0.0523
19729W        W62646   0.730  32.284  25.274  0.1822  0.2722  0.0134
19730W        W62647   4.211  33.117  28.977  0.3945  0.0664 -0.0427
19731W        W62648   3.320  32.218  29.274  0.0902 -0.1495 -0.4043
19732W        W62649   3.791  31.527  27.565 -0.1958 -0.2229 -0.1437
19733W        W62650   1.843   0.463  28.627  0.0319  0.0177 -0.0923
19734W        W62651   3.714  33.044  28.791  0.2592 -0.2054 -0.1004
19735W        W62652   1.672  34.427  29.359 -0.4647 -0.3737 -0.0417
19736W        W62653   7.059  32.242  29.443  0.1069 -0.1613 -0.0630
19737W        W62654  34.172  33.863  28.028  0.2603 -0.0018  0.0251
19738W        W62655   1.935  33.757  28.740 -0.0170  0.1378 -0.0287
19739W        W62656   6.157  31.439   0.140  0.1782 -0.1346 -0.0118
19740W        W62657   2.321  32.194  28.633  0.1124  0.0548  0.1435
19741W        W62658   1.800  32.457  27.951 -0.1034  0.4010  0.1769
19742W        W62659   2.450   0.261  27.080 -0.1424 -0.0024  0.1426
19743W        W62660   1.023  32.416  29.429 -0.4183  0.1780 -0.3583
19744W        W62661   3.668  32.882  30.223  0.0581  0.0634 -0.2003
19745W        W62662   1.566  33.387  28.019 -0.0864 -0.0811  0.2827
19746W        W62663   4.663  34.285  30.278 -0.0506  0.1020  0.2598
19747W        W62664  34.453  34.533  29.794  0.1743  0.2766  0.0120
19748W        W62665   3.921  31.455  29.920  0.1392  0.1241 -0.0989
19749W        W62666   4.414  34.486  31.457 -0.2073  0.0805  0.0726
19750W        W62667   2.296  33.428  27.481 -0.2298 -0.1721  0.3118
19751W        W62668   0.867  33.445  28.627  0.2300 -0.2550 -0.2739
19752W        W62669   2.550  33.200  28.911 -0.2079  0.0742 -0.1942
19753W        W62670  33.769  34.039  29.600  0.1501 -0.1395 -0.0625
19754W        W62671   2.460  33.147  30.600  0.3465 -0.1797 -0.0640
19755W        W62672   0.592  34.565  29.387 -0.0387 -0.1888  0.0613
19756W        W62673   4.681  32.241  29.549  0.1033  0.0459 -0.0541
19757W        W62674   3.730  33.265  27.690 -0.0499  0.2396  0.1773
19758W        W62675   3.257  31.714  28.332 -0.0115  0.1855  0.4172
19759W        W62676   3.357  31.612  27.814 -0.3638 -0.0388 -0.0415
19760W        W62677   0.835  34.312  29.868  0.1181  0.1029 -0.1582
19761W        W62678   2.344  33.544  30.350  0.0392 -0.2216  0.2477
19762W        W62679   3.785  33.411  29.324 -0.1432  0.0612 -0.2480
19763W        W62680   5.614  31.740  29.182 -0.0053  0.0781 -0.0098
19764W        W62681   1.464  33.622  28.626 -0.2087  0.2241 -0.0462
19765W        W62682   2.176  31.381  28.166 -0.0794 -0.0971 -0.3689
19766W        W62683   5.337  32.056  28.861  0.0875 -0.1270  0.3775
19767W        W62684   5.063  33.747  29.377  0.1145  0.0520 -0.0950
19768W        W62685   2.674   1.479  30.983 -0.0822  0.0772 -0.0212
19769W        W62686   1.135  32.252  25.774  0.0093  0.1251  0.1829
19770W        W62687   3.424  32.665  31.489  0.0244 -0.2081 -0.1305
19771W        W62688   1.855  33.424  31.219 -0.0818 -0.0485  0.2326
19772W        W62689  33.564   0.137  30.013  0.2493 -0.1244 -0.2173
19773W        W62690   0.736  32.333  27.247 -0.1512 -0.1483  0.1180
19774W        W62691   1.151  33.100  27.496  0.2629  0.1292 -0.2700
19775W        W62692   1.646  30.977  28.719 -0.0602  0.0979  0.1496
19776W        W62693   3.815  31.915  29.064 -0.0497 -0.2009 -0.1397
19777W        W62694   0.613   0.882  29.283  0.0417 -0.0159 -0.4215
19778W        W62695   1.703  34.424  30.389 -0.1362 -0.1304 -0.1218
19779W        W62696  33.872  33.170  25.954 -0.0594  0.2083  0.0695
19780W        W62697   4.087  33.679  29.638  0.3147 -0.1142  0.1301
19781W        W62698   3.760  30.536  30.824 -0.1681 -0.3724 -0.1388
19782W        W62699   5.510  31.006  31.435  0.0626 -0.1719  0.0979
19783W        W62700   3.623  31.862  28.623  0.1339  0.0556  0.0559
19784W        W62701   1.198   0.498  31.381 -0.0615  0.0561 -0.0653
19785W        W62702   2.563  32.535  27.744 -0.1651  0.1834  0.0346
19786W        W62703   5.493  32.411  27.660 -0.1250 -0.0111 -0.0983
19787W        W62704   2.187  33.570  29.124 -0.0535 -0.2119 -0.0660
19788W        W62705   2.487  33.608  26.865 -0.1096  0.0763  0.1027
19789W        W62706   3.542  33.797   0.585  0.2879 -0.1314 -0.1940
19790W        W62707   4.237  32.531  30.510  0.2817 -0.1392  0.1715
19791W        W62708   5.446  32.410  29.225 -0.0732 -0.0037 -0.0256
19792W        W62709   0.123  32.853  30.367 -0.0591  0.1257 -0.1587
19793W        W62710   0.615   0.189  27.181  0.0898  0.1678 -0.2982
19794W        W62711   3.289  34.149  28.859  0.1184  0.1794  0.1018
19795W        W62712   3.502  31.357  30.383 -0.2657 -0.0622  0.2108
19796W        W62713   1.551  33.046  29.277 -0.0829  0.1265 -0.0401
19797W        W62714   2.886  32.273  29.572  0.3387 -0.0755 -0.2099
19798W        W62715   4.409  32.189   0.146  0.0771  0.0445  0.0179
19799W        W62716   3.046   1.753  31.687  0.2639  0.2771 -0.0928
19800W        W62717   0.980  34.597  31.615  0.1428 -0.1297 -0.1889
19801W        W62718   2.580   0.607  31.288  0.4547  0.3353  0.0764
19802W        W62719   0.725  32.808  31.459 -0.1395  0.0122  0.1295
19803W        W62720   0.762  34.201  31.845 -0.0133  0.2122 -0.2001
19804W        W62721   2.316  32.726  30.841  0.0318 -0.1334 -0.0851
19805W        W62722   4.059  34.617  30.595 -0.1218  0.0602  0.0684
19806W        W62723   1.365  32.211   1.200  0.0698  0.1923 -0.1592
19807W        W62724  34.159   1.656  28.948  0.0312  0.2585  0.1660
19808W        W62725   2.883  33.220   0.342 -0.2319  0.1600  0.1750
19809W        W62726   4.035  32.474   0.385 -0.3634 -0.0756 -0.1693
19810W        W62727   1.250  32.260  29.920 -0.1329 -0.0108 -0.2655
19811W        W62728   1.947   0.370  31.925 -0.1190  0.0897 -0.0579
19812W        W62729   1.846  34.292  30.876 -0.0419 -0.0583 -0.0072
19813W        W62730   2.660   2.595  30.191  0.0405 -0.2391 -0.0313
19814W        W62731   1.852   0.887  31.840  0.0338 -0.0558  0.3159
19815W        W62732   2.586  32.936  31.316  0.1618  0.0689  0.2088
19816W        W62733   3.391  33.206   0.188 -0.4164 -0.1210  0.0251
19817W        W62734  32.877   0.437   0.128  0.0559  0.0834 -0.2893
19818W        W62735   2.723  32.833   0.121 -0.0646 -0.2868  0.0683
19819W        W62736   4.006  33.921  31.750 -0.1152 -0.0648  0.3673
19820W        W62737   3.597  34.298  31.715  0.0591 -0.2785  0.0493
19821W        W62738   0.735  32.270   0.240 -0.0137 -0.1082  0.2161
19822W        W62739   0.202  33.684  31.257 -0.1309  0.1692  0.0555
19823W        W62740   1.896  34.421   0.840 -0.1787 -0.0832 -0.0584
19824W        W62741   2.520  33.737  31.043  0.3408  0.0994 -0.0876
19825W        W62742   3.452  31.548  31.424  0.0868  0.1877 -0.0093
19826W        W62743   1.460  34.652   0.538 -0.1377  0.0168 -0.0478
19827W        W62744   3.310  33.572  31.214  0.0166  0.0774  0.0489
19828W        W62745   2.573  33.496  29.873  0.1083  0.0646  0.1146
19829W        W62746   1.230  34.234   0.773  0.0709  0.1336 -0.0626
19830W        W62747   0.135   0.917  30.520  0.0588 -0.2156  0.0922
19831W        W62748   4.199   1.115  31.168  0.0241 -0.2588  0.0710
19832W        W62749   6.134   5.932  17.165  0.1751 -0.0203  0.1709
19833W        W62750   4.649   1.443  16.322 -0.0122 -0.1550  0.0506
19834W        W62751   7.691  34.175  14.559 -0.0940  0.0059 -0.0759
19835W        W62752   5.164   1.321  15.986  0.1340 -0.0157  0.0998
19836W        W62753   3.771  33.812  15.546  0.1582  0.3203 -0.1698
19837W        W62754   6.264   2.054  15.742 -0.2346 -0.3031 -0.1925
19838W        W62755   5.684  33.899  16.435  0.3732 -0.1260 -0.1928
19839W        W62756   6.859   4.371  17.121  0.4113 -0.0441 -0.0453
19840W        W62757   6.649   3.076  16.879 -0.0374 -0.2499  0.1678
19841W        W62758   6.393   0.672  15.121 -0.2029  0.2488  0.0217
19842W        W62759   5.061   1.342  18.850 -0.1430  0.2133  0.2472
19843W        W62760   4.557   2.353  17.776  0.1009 -0.0933 -0.1410
19844W        W62761   7.167  34.266  16.802  0.0297 -0.1051  0.1608
19845W        W62762   3.357   0.207  18.092  0.0944 -0.2133 -0.0070
19846W        W62763   3.832   2.388  18.650 -0.4518 -0.3226  0.2444
19847W        W62764   3.583   2.718  16.524 -0.0650  0.2799 -0.0828
19848W        W62765   5.065   0.783  17.237  0.2227  0.1245  0.0932
19849W        W62766   4.284   0.816  16.022 -0.1061  0.1813  0.1805
19850W        W62767   5.819   3.763  17.123 -0.0774  0.0717  0.2188
19851W        W62768   4.183   0.172  16.978 -0.2146 -0.1886  0.0843
19852W        W62769   5.658  34.331  18.622  0.2311  0.0242  0.0998
19853W        W62770   4.804   2.262  15.285 -0.0126 -0.1428 -0.2283
19854W        W62771   2.331   3.080  16.082  0.2328 -0.1594  0.1183
19855W        W62772   3.336   1.847  18.321 -0.0940  0.0935  0.0299
19856W        W62773   6.425   1.814  18.222  0.4365 -0.1055 -0.3809
19857W        W62774   3.854   3.858  17.369  0.2782 -0.0563  0.0587
19858W        W62775   8.625   3.924  17.161  0.0958  0.1516  0.3441
19859W        W62776   5.183   3.897  17.379  0.0996  0.2868  0.1066
19860W        W62777   7.561   3.551  17.334  0.0591  0.2246  0.0683
19861W        W62778   5.356   1.814  18.109  0.1577 -0.2043 -0.2141
19862W        W62779   3.733   2.577  17.174  0.4271  0.0593  0.2074
19863W        W62780   4.695   3.037  20.367 -0.1651  0.5205  0.2290
19864W        W62781   4.964   2.465  15.810  0.4106  0.0394  0.2374
19865W        W62782   8.475   3.449  16.916  0.0490  0.1287 -0.0073
19866W        W62783   5.974   3.402  17.387 -0.1626  0.0249 -0.1114
19867W        W62784   4.985   2.968  19.204  0.1412  0.1367 -0.0652
19868W        W62785   4.740   2.947  15.948 -0.0656 -0.1014 -0.3740
19869W        W62786   5.184   4.750  19.030  0.2690 -0.1098 -0.0140
19870W        W62787   7.268   3.391  19.128 -0.0014  0.0983  0.0204
19871W        W62788   4.932   0.785  16.739 -0.1879 -0.0486 -0.0932
19872W        W62789   6.196   0.646  18.093 -0.0907  0.3779 -0.0346
19873W        W62790   4.290   3.755  17.664  0.1114 -0.2012 -0.2005
19874W        W62791   4.541   1.555  15.639  0.1808  0.3118  0.0002
19875W        W62792   4.126   2.327  17.361 -0.0862  0.0360 -0.1568
19876W        W62793   3.545   3.120  16.236  0.0061 -0.1051 -0.0135
19877W        W62794   7.116   0.485  18.641  0.1440  0.0691  0.0494
19878W        W62795   2.977   3.031  16.874 -0.2291 -0.1780  0.0800
19879W        W62796   5.790  34.594  15.541 -0.3010  0.1155 -0.2831
19880W        W62797   5.720   1.225  18.721  0.1504  0.0884  0.3357
19881W        W62798   6.403   0.186  16.444  0.3876 -0.0369 -0.2083
19882W        W62799   5.266  34.154  16.278  0.0999 -0.2464 -0.2455
19883W        W62800   5.078   3.904  18.476 -0.0954 -0.0545 -0.1996
19884W        W62801   4.318   0.568  17.346 -0.1120 -0.2734 -0.1188
19885W        W62802   7.579   2.621  18.546  0.0693 -0.2577 -0.0366
19886W        W62803   6.549   1.350  18.461  0.1814 -0.5498  0.0435
19887W        W62804   7.787  33.604  16.944 -0.1574 -0.1812 -0.3481
19888W        W62805   5.362   5.027  19.516  0.1271 -0.0162  0.3595
19889W        W62806   3.183   0.909  16.700 -0.0868 -0.0298 -0.2227
19890W        W62807   8.302   2.196  15.687  0.0255  0.1470 -0.0222
19891W        W62808   4.887   1.635  18.479  0.0179 -0.0360 -0.2533
19892W        W62809   4.769   3.367  16.224  0.2551 -0.1508  0.1982
19893W        W62810   4.199  34.391  16.284 -0.1640  0.2612 -0.0305
19894W        W62811   2.500   1.918  18.404 -0.2498 -0.1821 -0.1358
19895W        W62812   4.412   1.345  16.814 -0.3092 -0.2719 -0.0036
19896W        W62813   3.747  34.547  16.165 -0.3524  0.2099 -0.0290
19897W        W62814   6.752   3.035  19.104 -0.0135 -0.0834 -0.3610
19898W        W62815   4.485   4.097  19.882 -0.2967 -0.0462  0.1665
19899W        W62816   6.393   1.686  16.071 -0.3224 -0.0343  0.0968
19900W        W62817   3.566   3.388  15.776  0.2982  0.0724  0.1502
19901W        W62818   6.477   4.151  16.840  0.1889 -0.0136  0.0516
19902W        W62819   7.002   2.192  15.151 -0.2827  0.2878  0.4218
19903W        W62820   6.033  34.272  18.210 -0.0242 -0.0261 -0.0701
19904W        W62821   6.198   1.294  17.247 -0.1351 -0.0170 -0.2089
19905W        W62822   3.945   2.800  15.275  0.1590  0.0449  0.0422
19906W        W62823   3.494   3.018  16.927 -0.2528 -0.1280 -0.0178
19907W        W62824   7.835   3.693  20.144  0.0307 -0.0645 -0.1070
19908W        W62825   6.749   0.385  15.485  0.0125 -0.1236  0.1042
19909W        W62826   6.109   4.254  18.278  0.0516  0.2246  0.0346
19910W        W62827   3.831   1.111  17.789  0.0463 -0.0165 -0.1460
19911W        W62828   4.442   2.306  20.892 -0.1956  0.2054 -0.0304
19912W        W62829   3.399   3.636  16.252 -0.4064  0.1628  0.1733
19913W        W62830   1.164   2.488  18.620 -0.1746 -0.0520 -0.0664
19914W        W62831   4.517   2.743  16.900  0.0756  0.0039  0.0160
19915W        W62832   2.614   0.637  18.532 -0.2189 -0.0175 -0.2114
19916W        W62833   5.985   3.761  18.275 -0.0359  0.0072 -0.2538
19917W        W62834   6.587   0.609  17.688  0.1957 -0.0527  0.1184
19918W        W62835   4.275   2.303  16.844 -0.0187  0.1103 -0.0104
19919W        W62836   8.781  32.748  16.940  0.0332 -0.0955 -0.1869
19920W        W62837   3.464   1.573  16.124  0.0733  0.0195  0.1805
19921W        W62838   8.104   3.564  17.228 -0.1091 -0.0910 -0.3522
19922W        W62839   5.844   0.757  15.651 -0.0193  0.1477 -0.0189
19923W        W62840   7.105   2.207  16.724 -0.3194  0.1338  0.1507
19924W        W62841   2.490   1.410  18.321 -0.0364 -0.2365 -0.0662
19925W        W62842   5.573   0.296  16.788  0.0896 -0.0336  0.1449
19926W        W62843   5.876   0.753  17.678  0.1172 -0.1600 -0.1175
19927W        W62844   2.810   1.552  18.662  0.1874 -0.0356  0.1070
19928W        W62845   5.895   3.011  18.870  0.2794  0.1944  0.2458
19929W        W62846   5.014  32.223  15.829  0.3843 -0.0122 -0.1587
19930W        W62847   5.892   2.077  16.126 -0.2148 -0.0111  0.1725
19931W        W62848   6.397   3.312  16.486 -0.0197  0.1906 -0.1511
19932W        W62849   1.448   2.847  18.515 -0.1307  0.2448 -0.0685
19933W        W62850   6.807  34.132  17.907  0.1963 -0.2359  0.2165
19934W        W62851   7.589   2.613  16.658 -0.3450 -0.2550  0.1204
19935W        W62852   6.696   5.208  20.259 -0.1717  0.1633  0.0087
19936W        W62853   7.727   4.462  16.300 -0.0471 -0.2252 -0.2661
19937W        W62854   5.147  33.829  17.583  0.0107 -0.2428 -0.1124
19938W        W62855   3.871   0.686  14.929 -0.1375 -0.2589  0.0718
19939W        W62856   5.560   3.303  17.100 -0.0086 -0.2265 -0.2940
19940W        W62857   5.455   5.014  18.682  0.2268  0.0168  0.0019
19941W        W62858   5.309  34.660  16.017 -0.1554 -0.1183  0.2859
19942W        W62859   8.484   2.976  16.439  0.1782 -0.1067 -0.1748
19943W        W62860   4.403   2.555  16.418 -0.1119  0.2809  0.1016
19944W        W62861   7.319   3.019  18.813  0.0989  0.0208  0.0499
19945W        W62862   6.060   2.740  18.373  0.3243  0.0075 -0.3076
19946W        W62863   8.256   1.323  17.467  0.1986 -0.0410  0.2878
19947W        W62864   7.142   2.514  17.141 -0.1140  0.3192  0.0700
19948W        W62865   3.144  33.604  16.033 -0.0265  0.0646 -0.1796
19949W        W62866   6.858   2.443  16.397 -0.0833  0.1364  0.0944
19950W        W62867   4.631   2.299  14.725  0.2378  0.1027  0.1215
19951W        W62868   3.663   0.744  16.758 -0.0063  0.0117  0.2802
19952W        W62869   6.715   3.047  18.309  0.1635  0.0557 -0.4982
19953W        W62870   4.129  32.774  19.218  0.2526  0.1173 -0.2873
19954W        W62871   0.212   2.632  20.268  0.1055  0.2471  0.2366
19955W        W62872   5.249   1.691  16.935 -0.1560  0.2374  0.1227
19956W        W62873   3.683   3.378  17.265  0.0363  0.2064  0.1073
19957W        W62874   4.464   3.450  19.424 -0.1285 -0.1652  0.1171
19958W        W62875   8.388  33.547  15.734  0.3403 -0.0473 -0.1064
19959W        W62876   7.176   0.097  14.680 -0.1350 -0.1428 -0.0892
19960W        W62877   6.642   2.534  16.843  0.0143 -0.0855  0.1836
19961W        W62878   5.824   1.455  15.316  0.2543 -0.0072 -0.1981
19962W        W62879   6.714   0.902  14.774  0.0770 -0.0351  0.2032
19963W        W62880   6.081   0.515  16.010  0.0058 -0.2460  0.1432
19964W        W62881   4.038   3.672  18.342 -0.1163  0.1401 -0.1404
19965W        W62882   6.167   2.563  16.657 -0.0552  0.1325  0.0125
19966W        W62883   4.097   1.574  17.759  0.0620  0.0997 -0.1509
19967W        W62884   5.641   1.286  16.138  0.1290  0.0965 -0.2263
19968W        W62885   6.695   1.785  15.093 -0.1573 -0.0295 -0.1941
19969W        W62886   4.563   2.782  17.514 -0.0881 -0.0715 -0.0365
19970W        W62887   7.317   3.130  20.788  0.1448 -0.2013  0.0543
19971W        W62888   6.717   3.765  16.413 -0.0614 -0.2328 -0.3035
19972W        W62889   5.241  33.877  16.714  0.1873 -0.0947 -0.1850
19973W        W62890   5.031   1.828  15.218 -0.0462  0.1462 -0.2709
19974W        W62891   5.392   1.680  17.512  0.1438 -0.0943 -0.3262
19975W        W62892   3.135   3.716  15.758 -0.1776 -0.1462  0.2539
19976W        W62893   4.297   0.314  18.441  0.0237 -0.0468  0.0748
19977W        W62894   5.580   1.897  16.584  0.0437  0.2298  0.1021
19978W        W62895   5.638   1.247  16.708 -0.2708  0.0036 -0.2549
19979W        W62896   6.586   0.830  19.363 -0.2492 -0.0851 -0.2952
19980W        W62897   5.445   0.990  15.196 -0.0551  0.1829  0.2428
19981W        W62898   4.505   1.914  17.529 -0.0731  0.0505 -0.2689
19982W        W62899   3.149   1.677  15.163  0.1489 -0.0627 -0.0692
19983W        W62900   5.043   2.260  18.170  0.3035  0.0642 -0.0043
19984W        W62901   6.005   2.538  18.823  0.0358  0.1645 -0.0583
19985W        W62902   4.961   3.885  19.888  0.2114  0.3695 -0.0455
19986W        W62903   7.624   3.639  16.863 -0.0471 -0.1978  0.0097
19987W        W62904   7.157   2.971  15.717 -0.0799  0.2324  0.1411
19988W        W62905   6.376  33.930  19.031 -0.0602  0.1105 -0.0450
19989W        W62906   5.385   0.569  14.786  0.1260 -0.0504  0.0260
19990W        W62907   5.672   1.370  18.017 -0.1971  0.1678 -0.5602
19991W        W62908   3.974   1.704  14.970 -0.0181  0.0271 -0.2217
19992W        W62909   5.110   0.346  16.959  0.2925 -0.1268 -0.0323
19993W        W62910   4.024   2.722  16.718 -0.1061  0.0510  0.1017
19994W        W62911   5.328   3.560  15.308 -0.1185 -0.0225 -0.3940
19995W        W62912   6.636   2.242  17.369  0.0878  0.0104  0.0111
19996W        W62913   4.383   3.327  15.875 -0.3542  0.2184 -0.0001
19997W        W62914   6.385  33.086  18.802 -0.0785 -0.1257 -0.2719
19998W        W62915   4.361   4.892  16.863  0.3227  0.1017  0.2119
19999W        W62916   3.593   1.177  16.461  0.0457  0.1052 -0.1331
20000W        W62917   4.599   0.441  16.856 -0.2253 -0.0515 -0.0940
20001W        W62918   5.520  34.559  16.464  0.1800 -0.0754 -0.0681
20002W        W62919   6.615   2.190  15.446 -0.0461 -0.4695 -0.3336
20003W        W62920   3.839   0.551  17.408  0.2734  0.1937 -0.2869
20004W        W62921   6.083   0.346  15.422  0.0238 -0.0206 -0.2114
20005W        W62922   5.712   4.105  18.017  0.1567  0.2321 -0.0263
20006W        W62923   5.559   3.133  17.716  0.0899 -0.0442  0.4454
20007W        W62924   7.982  33.260  15.601  0.2149 -0.2058  0.0198
20008W        W62925   6.198   3.788  16.646 -0.2677  0.0753  0.0388
20009W        W62926   4.054   1.822  17.255  0.0492 -0.0329 -0.2919
20010W        W62927   4.042   2.101  16.379  0.2284 -0.0750 -0.2128
20011W        W62928   5.946  34.479  17.511 -0.0829  0.1772  0.0429
20012W        W62929   4.239   0.864  16.840 -0.0508  0.4004  0.0887
20013W        W62930   5.104   2.721  16.910  0.0860 -0.1863 -0.2294
20014W        W62931   6.557   1.984  16.524 -0.0813  0.2741  0.2104
20015W        W62932   5.711   2.764  16.961  0.3555  0.1669 -0.0802
20016W        W62933   5.946   3.435  16.295 -0.1196  0.0179 -0.1137
20017W        W62934   3.269   1.127  19.926 -0.3569 -0.1104  0.1150
20018W        W62935   7.248   2.219  17.955 -0.0954 -0.0858 -0.2223
20019W        W62936   4.133   1.128  18.146  0.0686 -0.0420 -0.0982
20020W        W62937   5.299   1.054  16.433  0.4494  0.2226 -0.2472
20021W        W62938   4.608   1.453  17.751  0.0120 -0.1909  0.0488
20022W        W62939   5.595   2.398  18.172 -0.0544  0.1650  0.2950
20023W        W62940   4.528   2.585  18.794  0.3737  0.0174  0.0410
20024W        W62941   3.739   4.969  18.484  0.0286  0.0953 -0.0149
20025W        W62942   5.057  33.391  19.441 -0.2195  0.0812  0.2396
20026W        W62943   6.833   5.362  16.934  0.3326 -0.1812 -0.1018
20027W        W62944   7.224   3.802  18.442  0.0076  0.2130 -0.0713
20028W        W62945   3.360   4.138  16.513 -0.0495 -0.1545 -0.1925
20029W        W62946   2.317   1.292  17.813  0.2927  0.1303 -0.1556
20030W        W62947   4.931   3.283  15.186  0.0759  0.1054 -0.2685
20031W        W62948   3.709   1.638  16.573  0.1500  0.0196  0.1307
20032W        W62949   5.725   3.007  16.113 -0.1963  0.1599  0.1000
20033W        W62950   4.547   2.051  15.629 -0.2225  0.3452  0.2855
20034W        W62951   5.020   2.503  17.403 -0.1111 -0.1328 -0.2807
20035W        W62952   7.119  34.469  15.578  0.1475 -0.1214  0.0492
20036W        W62953   6.890   3.834  15.971  0.0750  0.1632  0.1924
20037W        W62954   5.333   1.207  17.132 -0.0085  0.0402 -0.1328
20038W        W62955   6.469   0.017  19.026  0.2239  0.1783 -0.0081
20039W        W62956   7.595   0.767  15.902 -0.1872  0.2396 -0.1948
20040W        W62957   5.277   1.989  20.487 -0.0446  0.1097  0.0288
20041W        W62958   5.232  34.411  16.867 -0.0261 -0.0849  0.0992
20042W        W62959   6.027   1.014  16.117 -0.2432  0.0350 -0.2460
20043W        W62960   3.570   3.741  16.907  0.0327 -0.1264 -0.2776
20044W        W62961   7.290   3.217  18.358  0.1016 -0.1095  0.0662
20045W        W62962   4.420   3.033  19.045  0.1634 -0.0680  0.2074
20046W        W62963   5.997   0.603  16.872  0.1181  0.0347 -0.1942
20047W        W62964   4.637   1.154  15.878  0.0692  0.2457 -0.0507
20048W        W62965   4.584   2.930  17.997  0.1159 -0.2635  0.3357
20049W        W62966   7.365   0.906  17.433  0.2390 -0.1132 -0.0113
20050W        W62967   4.377   2.657  15.095 -0.1100 -0.0518  0.0470
20051W        W62968   7.634   1.879  16.242  0.1953 -0.2298 -0.0362
20052W        W62969   4.925   3.223  16.741  0.1444  0.1459  0.1390
20053W        W62970   6.835  34.434  17.475  0.3284  0.0424  0.1402
20054W        W62971   7.234   2.761  18.224  0.0551  0.1795 -0.1334
20055W        W62972   5.799   2.202  17.787  0.1767  0.0547 -0.0961
20056W        W62973   5.731   1.268  17.561 -0.5019 -0.1065 -0.3075
20057W        W62974   5.394   2.856  16.530 -0.0645  0.1891 -0.0117
20058W        W62975   5.048   2.886  15.522  0.2132 -0.0860  0.1626
20059W        W62976   4.178   2.944  17.174  0.0811  0.1017  0.0459
20060W        W62977   2.785   4.358  19.894 -0.0053  0.0337  0.2309
20061W        W62978   6.459   3.363  17.940  0.0149 -0.2817  0.1164
20062W        W62979   3.428  34.307  20.013  0.1536  0.2728  0.1594
20063W        W62980   7.331   3.871  18.937  0.2576  0.5541 -0.4106
20064W        W62981   8.380   2.550  16.713  0.3917 -0.0990  0.1753
20065W        W62982   6.197   1.418  17.892 -0.1796  0.2738  0.2567
20066W        W62983   7.943   0.287  16.277  0.0722 -0.0080  0.0349
20067W        W62984   4.491   2.493  15.923  0.1759  0.1578  0.2380
20068W        W62985   4.551   0.457  18.883  0.0790 -0.3575 -0.0076
20069W        W62986   7.646   2.358  19.427 -0.1388 -0.0089 -0.2149
20070W        W62987   5.164  33.727  15.975 -0.1929  0.2571 -0.0056
20071W        W62988   6.379   2.241  19.000  0.0964 -0.0296  0.1955
20072W        W62989   5.515   4.434  16.492  0.1626 -0.2947 -0.0454
20073W        W62990   6.086   1.971  16.789  0.0703  0.0873  0.1746
20074W        W62991   5.267   1.527  16.443 -0.0320 -0.0512  0.2466
20075W        W62992   2.822   1.439  17.594  0.2290 -0.0400 -0.1072
20076W        W62993   4.233   2.185  19.930 -0.2224 -0.0297 -0.1940
20077W        W62994   3.877   0.687  15.539 -0.2446 -0.3362 -0.2073
20078W        W62995   5.806   2.565  16.282 -0.1806 -0.0034  0.0284
20079W        W62996   5.898   6.105  17.709  0.1074 -0.0654  0.1568
20080W        W62997   6.034   1.130  18.311  0.0585 -0.0907 -0.2970
20081W        W62998   4.580   0.994  16.496  0.2550  0.3103  0.0213
20082W        W62999   7.478   0.167  18.992  0.1820  0.3097 -0.2046
20083W        W63000   5.679   6.044  17.054  0.0828 -0.1331 -0.3444
20084W        W63001   5.598  33.898  15.861  0.1049  0.2087  0.1531
20085W        W63002   4.962   4.580  18.586 -0.0704  0.0791  0.0052
20086W        W63003   3.263   4.443  17.429 -0.1554  0.1236 -0.1409
20087W        W63004   5.135   5.238  16.109  0.1493 -0.2466  0.0814
20088W        W63005   5.575   3.485  18.601 -0.1546  0.0947 -0.0890
20089W        W63006   5.928   1.762  19.074 -0.1099 -0.2322 -0.0434
20090W        W63007   4.187   2.323  18.266  0.0860 -0.3414  0.3090
20091W        W63008   7.545   2.202  17.004  0.0938  0.1614  0.2542
20092W        W63009   6.519   4.471  16.478  0.2486 -0.1052  0.1209
20093W        W63010   4.751   3.132  17.268 -0.0685  0.2328  0.3820
20094W        W63011   4.036   2.082  17.805  0.0506  0.0828  0.3255
20095W        W63012   5.906   1.582  16.455  0.0500  0.0292 -0.2278
20096W        W63013   7.086   0.691  17.850  0.1355 -0.0388 -0.1792
20097W        W63014   5.009   3.048  17.690  0.1831  0.0400 -0.0822
20098W        W63015   5.595   2.347  19.062 -0.2817  0.0245 -0.1035
20099W        W63016   5.481   0.836  16.014  0.0990  0.0726  0.1890
20100W        W63017   6.284   0.788  17.265 -0.0326 -0.1300  0.1949
20101W        W63018   5.989   3.329  15.091 -0.2750 -0.1210 -0.1767
20102W        W63019   3.960   2.678  19.022  0.3664  0.0746  0.1916
20103W        W63020   3.245   3.309  16.601  0.0805  0.3068  0.2311
20104W        W63021   3.946   4.076  17.948  0.0610  0.0815 -0.0414
20105W        W63022   5.261   2.349  16.446  0.2059 -0.0424 -0.1234
20106W        W63023   5.741   1.933  15.563  0.0335  0.0458  0.0605
20107W        W63024   5.322   2.897  17.317 -0.3963  0.0943 -0.3953
20108W        W63025   4.156   1.560  16.342  0.2887  0.0875 -0.0651
20109W        W63026   2.760   2.889  17.742  0.1790 -0.0027  0.2439
20110W        W63027   3.450   2.783  15.232  0.0079  0.1990  0.3385
20111W        W63028   6.370   3.800  17.171 -0.1174 -0.2998  0.5140
20112W        W63029   4.513   4.071  17.125  0.1204 -0.1633 -0.1820
20113W        W63030   7.922   1.597  17.749 -0.0261  0.0760 -0.1526
20114W        W63031   6.647  32.921  15.766 -0.1203  0.0166 -0.2732
20115W        W63032   6.221   2.494  17.585 -0.0281  0.0595 -0.1664
20116W        W63033   7.666  34.591  15.339 -0.2604 -0.0089  0.3979
20117W        W63034   6.424   2.824  18.013 -0.4451  0.0476  0.1950
20118W        W63035   4.149   1.753  16.811 -0.2157  0.0442  0.2292
20119W        W63036   5.457   0.824  16.873  0.2937  0.1293  0.1417
20120W        W63037   5.431   2.650  17.760  0.1338 -0.0919  0.0745
20121W        W63038   8.394  33.129  16.998  0.1217 -0.2204 -0.2861
20122W        W63039   4.654   4.697  20.837 -0.3629 -0.0982 -0.0060
20123W        W63040   8.230   1.345  16.426  0.2167  0.0818  0.3859
20124W        W63041   4.121   1.856  15.499  0.0372  0.2888  0.2725
20125W        W63042   3.644   1.889  17.040 -0.1936  0.0265 -0.0409
20126W        W63043   6.802  32.738  17.219 -0.1797 -0.0661  0.1699
20127W        W63044   6.721   3.126  15.969 -0.2973 -0.2222  0.0968
20128W        W63045   4.687   0.600  17.768  0.0673  0.0505  0.0621
20129W        W63046   5.202   3.424  17.459  0.1762  0.1054  0.1888
20130W        W63047   3.987   0.691  18.336 -0.2700  0.0207  0.0548
20131W        W63048   6.171   3.028  19.433  0.1422  0.1218  0.0500
20132W        W63049   3.217   1.656  15.680 -0.0604 -0.1920  0.1567
20133W        W63050   5.511   2.700  15.600  0.1618  0.1862 -0.0881
20134W        W63051   3.632   3.376  18.256 -0.0305  0.2520 -0.1418
20135W        W63052   6.223   0.836  18.946 -0.3055 -0.2576 -0.2818
20136W        W63053   5.070   0.441  15.835  0.0477  0.2303 -0.1502
20137W        W63054   7.640   0.753  17.821  0.0369 -0.0970  0.2049
20138W        W63055   6.422   3.108  18.727 -0.1641  0.1826 -0.1099
20139W        W63056   3.992   3.532  19.641  0.3684  0.0237 -0.1259
20140W        W63057   4.940   1.817  15.821 -0.2306 -0.0027  0.2629
20141W        W63058   8.476   2.253  16.194  0.0718 -0.3065  0.0385
20142W        W63059   6.852   0.360  16.698 -0.2344  0.0988  0.0979
20143W        W63060   7.601   2.973  19.272 -0.1895  0.0987 -0.4130
20144W        W63061   3.914   3.190  16.627 -0.1302 -0.2311  0.1645
20145W        W63062   6.406   0.676  16.515 -0.0631 -0.1227 -0.1074
20146W        W63063   1.874   4.012  17.812 -0.2116 -0.0441 -0.2746
20147W        W63064   7.362   1.429  16.980 -0.1068 -0.2654 -0.1677
20148W        W63065   7.798   3.809  21.414  0.2884 -0.0502 -0.1446
20149W        W63066   4.507  33.562  15.234  0.0118  0.3123 -0.1526
20150W        W63067   8.188   0.787  14.800  0.3905  0.0221  0.0226
20151W        W63068   5.494   3.269  19.065 -0.3007  0.0250  0.0828
20152W        W63069   5.593   3.545  15.989 -0.2137 -0.0971 -0.2160
20153W        W63070   5.163   1.414  17.916  0.5226 -0.0767 -0.1751
20154W        W63071   8.250   4.209  16.949  0.0046  0.2999 -0.3452
20155W        W63072   4.113   0.494  17.843 -0.1799  0.1393  0.0431
20156W        W63073   5.232   4.268  18.897  0.2375  0.0483  0.2960
20157W        W63074   8.473  34.587  15.639  0.0212 -0.1417 -0.1303
20158W        W63075   5.291   0.099  15.502 -0.1219 -0.3317 -0.4825
20159W        W63076   4.506   1.931  16.549 -0.1218 -0.0552  0.0401
20160W        W63077   5.462   3.536  18.114  0.1945 -0.1170  0.3029
20161W        W63078   7.088   1.070  18.397 -0.2177 -0.1136 -0.2449
20162W        W63079   6.331   0.703  15.625 -0.0000  0.1744 -0.3754
20163W        W63080   5.385   3.253  15.705  0.0863  0.1415 -0.0884
20164W        W63081   6.146   1.884  17.300 -0.0103 -0.0424  0.0167
20165W        W63082   7.558   3.634  18.137 -0.1795  0.1210  0.2856
20166W        W63083   3.936   4.101  19.202 -0.2214  0.1194 -0.3233
20167W        W63084   2.861   2.132  16.877  0.2182 -0.3198 -0.0705
20168W        W63085   4.772  34.492  17.537  0.0946  0.1704 -0.3954
20169W        W63086   4.341   3.498  16.371  0.0374  0.0829 -0.2053
20170W        W63087   6.379   2.079  14.834 -0.1083  0.0357 -0.0960
20171W        W63088   6.345   1.289  16.397  0.2074  0.2320  0.1379
20172W        W63089   3.942   2.696  16.159  0.0324 -0.0434  0.0827
20173W        W63090   7.765   5.181  19.056  0.2543 -0.1494 -0.0675
20174W        W63091   5.924   0.018  17.933  0.0952 -0.0966  0.0576
20175W        W63092   6.585   1.538  15.584  0.1557 -0.1219  0.0781
20176W        W63093   7.323   0.928  15.391 -0.2337 -0.0297  0.3815
20177W        W63094   5.883   0.673  18.663 -0.0701  0.4665  0.0334
20178W        W63095   3.273   1.184  15.893 -0.4419  0.1670 -0.0245
20179W        W63096   4.411   1.897  16.072 -0.0450 -0.3556  0.2367
20180W        W63097   3.121   3.464  17.526 -0.0021  0.0288  0.2666
20181W        W63098   6.130  32.979  16.568 -0.1568  0.2030  0.1298
20182W        W63099   0.739   1.741  18.746 -0.2181  0.1191  0.1860
20183W        W63100   5.062   2.794  18.129 -0.1409 -0.1783  0.0275
20184W        W63101   3.995  34.413  17.194 -0.3687  0.0648 -0.1213
20185W        W63102   7.584   2.587  15.902  0.1727 -0.0733 -0.1093
20186W        W63103   5.640   0.340  15.907  0.1647 -0.0952 -0.0261
20187W        W63104   1.774   0.718  17.144  0.0807 -0.3297 -0.2096
20188W        W63105   6.279   2.459  16.120  0.3082  0.0912  0.2178
20189W        W63106   6.177   2.998  16.053 -0.2059  0.2237 -0.1109
20190W        W63107   5.025   0.014  16.468 -0.1094  0.0510  0.1919
20191W        W63108   8.520   2.618  18.713  0.0185  0.0759  0.1200
20192W        W63109   4.418   1.998  15.125 -0.0082 -0.1380  0.0259
20193W        W63110   6.643   0.869  18.607  0.2658  0.3029 -0.0020
20194W        W63111   4.618   1.279  18.230  0.2739 -0.0835 -0.0008
20195W        W63112   3.420   0.707  15.204 -0.1836 -0.2746  0.1893
20196W        W63113   4.583   0.946  17.196 -0.0382  0.0701  0.0207
20197W        W63114   4.977   1.931  16.570  0.4064  0.0123  0.2133
20198W        W63115   8.133   2.649  16.318 -0.1809  0.2613  0.1288
20199W        W63116   5.673   0.831  18.114  0.0751  0.0578  0.0590
20200W        W63117   6.416   3.902  19.096  0.0409 -0.1975  0.2319
20201W        W63118   4.793  34.606  16.963  0.0567 -0.3862  0.1460
20202W        W63119   5.270   2.111  15.572  0.1296 -0.2521 -0.2405
20203W        W63120   6.156   3.295  16.960  0.0814  0.1758  0.0756
20204W        W63121   9.599   1.804  15.761  0.1475  0.4181  0.1960
20205W        W63122   7.913   2.275  16.070  0.0982 -0.1786  0.2706
20206W        W63123   7.189   0.743  16.812 -0.2539  0.1257 -0.1665
20207W        W63124   4.466  33.542  17.601 -0.0327  0.0169 -0.0357
20208W        W63125   6.742   2.537  18.284  0.0550 -0.2104 -0.0674
20209W        W63126   7.053   4.675  19.147  0.0764  0.0816  0.2782
20210W        W63127   4.062   0.213  15.722  0.0969 -0.1078 -0.0892
20211W        W63128   8.044   0.782  16.617  0.0086 -0.0123  0.0610
20212W        W63129   6.538   3.269  17.373  0.1401  0.1037 -0.1958
20213W        W63130   2.611   1.893  18.967  0.3989  0.0989 -0.1173
20214W        W63131   5.781  34.272  16.881 -0.2548  0.1612 -0.1677
20215W        W63132   6.342   3.528  16.043 -0.2511 -0.1719  0.2116
20216W        W63133   5.909   3.920  15.588 -0.0217 -0.1205  0.2534
20217W        W63134   8.514   1.745  18.510 -0.1291 -0.0297  0.0748
20218W        W63135   5.468   2.354  15.952  0.3953 -0.1259  0.0191
20219W        W63136   6.173   1.153  15.683 -0.0643  0.0631  0.2001
20220W        W63137   3.469   3.931  18.118 -0.0232  0.0370 -0.2421
20221W        W63138   7.153   2.276  18.488  0.3759 -0.0045 -0.1027
20222W        W63139   4.209   4.581  19.410 -0.0528  0.2566 -0.4762
20223W        W63140   7.925   3.757  19.631 -0.1863 -0.3208  0.0932
20224W        W63141   2.987  34.029  16.312 -0.3497  0.0272  0.2359
20225W        W63142   3.879   1.848  15.898 -0.2740  0.1574  0.2358
20226W        W63143   5.213   2.202  16.926  0.1224 -0.2156 -0.1203
20227W        W63144   5.405   0.931  17.618 -0.0310  0.0275 -0.1102
20228W        W63145   3.401   1.341  16.939 -0.2279  0.1210 -0.1754
20229W        W63146   6.662   1.891  17.037  0.1028  0.1638  0.1826
20230W        W63147   6.873   2.531  17.804  0.1908 -0.1900 -0.0722
20231W        W63148   7.301   2.768  17.578  0.0524  0.0463  0.0303
20232W        W63149   5.023   3.784  22.514  0.2933  0.0812 -0.1410
20233W        W63150   3.535   2.814  19.886 -0.1487 -0.2109  0.0125
20234W        W63151   5.891   1.824  18.230 -0.0244 -0.2194  0.0191
20235W        W63152   6.379   4.797  21.019  0.0269  0.0090 -0.2943
20236W        W63153   4.196   1.500  18.491  0.2078  0.1724 -0.0574
20237W        W63154   6.444   2.656  21.850 -0.1215  0.0226 -0.0716
20238W        W63155   3.957  34.430  21.700  0.2028 -0.0204 -0.0941
20239W        W63156   5.665   3.050  22.979 -0.4262 -0.2307 -0.1318
20240W        W63157   6.843   3.407  21.478 -0.4826  0.2285 -0.0915
20241W        W63158   6.037   0.158  18.890  0.3093 -0.0622  0.0919
20242W        W63159   6.453   1.385  20.604  0.1368  0.1316  0.1994
20243W        W63160   4.382   2.433  21.864  0.1339 -0.2092 -0.2034
20244W        W63161   5.769   1.895  20.562 -0.0770 -0.1052  0.1551
20245W        W63162   4.518  34.669  20.518 -0.0026 -0.0065 -0.1989
20246W        W63163   7.704   3.800  23.423  0.0142  0.1362  0.1258
20247W        W63164   3.671   1.933  21.000  0.3102  0.1912 -0.2556
20248W        W63165   5.784   1.027  22.405  0.1642  0.3296  0.1470
20249W        W63166   5.512   2.903  20.538  0.1987  0.4146 -0.2385
20250W        W63167   5.279   5.907  20.371 -0.0590 -0.0605  0.0235
20251W        W63168   4.425   0.785  23.368  0.0198  0.4325 -0.0269
20252W        W63169   6.621   0.108  23.234  0.1959 -0.3181  0.1103
20253W        W63170   3.777   3.027  18.622  0.4112 -0.0843 -0.3143
20254W        W63171   4.023   1.226  18.858  0.0287  0.1093 -0.3279
20255W        W63172   3.811   0.869  20.713 -0.3076 -0.1824  0.0153
20256W        W63173   6.212   1.813  21.411  0.0448  0.4690  0.0122
20257W        W63174   6.807   2.961  22.138 -0.0063  0.1678  0.0559
20258W        W63175   7.881   2.217  21.509  0.2225 -0.2908  0.0820
20259W        W63176   5.183   3.412  21.076 -0.1848 -0.0057 -0.1082
20260W        W63177   4.679   3.477  19.888  0.1727 -0.3143  0.2965
20261W        W63178   7.771  34.432  22.771 -0.0786  0.0408 -0.2281
20262W        W63179   4.795   2.485  19.489  0.0418  0.0344  0.4449
20263W        W63180   3.831   3.711  21.847  0.3306  0.0186  0.1907
20264W        W63181   4.231   1.398  19.328 -0.0010  0.4007 -0.0959
20265W        W63182   6.966   2.568  20.313  0.0464 -0.0047  0.0908
20266W        W63183   5.538   3.298  23.390 -0.1565 -0.0612  0.4701
20267W        W63184   4.766   3.354  22.556 -0.0855 -0.2425  0.0700
20268W        W63185   4.634   1.016  19.391  0.4604 -0.1026 -0.1135
20269W        W63186   5.455   1.784  24.416 -0.1223  0.2259  0.1107
20270W        W63187   3.978   2.287  22.180 -0.0462  0.1481  0.1491
20271W        W63188   5.429   2.945  21.097 -0.1246  0.0525  0.2930
20272W        W63189   8.893   3.944  21.210 -0.1013 -0.2764  0.0748
20273W        W63190   3.194   5.107  19.963  0.1022 -0.3155  0.2295
20274W        W63191   7.306   2.159  21.542  0.1536  0.0760  0.2972
20275W        W63192   5.251   3.372  24.272  0.0998  0.0479  0.0767
20276W        W63193   4.519   1.668  21.469 -0.0465 -0.1309  0.3245
20277W        W63194   6.737   1.004  22.841  0.0047 -0.0197 -0.1098
20278W        W63195   4.234   2.071  18.723 -0.3970 -0.1447  0.5938
20279W        W63196   6.654   1.693  18.784 -0.2818 -0.0933 -0.3661
20280W        W63197   2.915   1.522  18.131  0.0974 -0.3118 -0.0948
20281W        W63198   5.355   2.141  20.016  0.0325  0.0003 -0.0217
20282W        W63199   7.017  33.327  20.444  0.3805 -0.2181 -0.0174
20283W        W63200   5.231   2.773  23.232 -0.2094  0.1177 -0.2472
20284W        W63201   4.667  33.327  22.628 -0.2639 -0.1781  0.3283
20285W        W63202   5.704   2.712  25.008  0.1254 -0.1189  0.2882
20286W        W63203   6.836   2.417  21.639 -0.2215  0.2205  0.1847
20287W        W63204   6.267   1.279  22.316 -0.0603  0.3890 -0.0080
20288W        W63205   3.211   3.232  22.535 -0.0071 -0.2595 -0.1025
20289W        W63206   3.869   1.525  20.696 -0.1535 -0.2020 -0.1712
20290W        W63207   6.311   2.329  18.090 -0.1704  0.3352  0.1714
20291W        W63208   5.301   4.087  21.603 -0.1989  0.3021 -0.1594
20292W        W63209   4.792   3.965  18.859  0.0421  0.0443 -0.0559
20293W        W63210   5.060   1.242  20.823  0.1973 -0.1206 -0.1843
20294W        W63211   5.484   4.486  21.328  0.1117 -0.0871 -0.1993
20295W        W63212   3.675   3.259  23.420 -0.0886  0.0205  0.2179
20296W        W63213   4.853   0.299  20.354  0.0963  0.0718  0.1942
20297W        W63214   5.333   2.437  23.611 -0.0513 -0.0594  0.1857
20298W        W63215   4.352   1.629  23.109 -0.3220  0.4049 -0.1078
20299W        W63216   8.600   1.108  18.573  0.0794 -0.0921 -0.3551
20300W        W63217   6.276   0.606  19.744 -0.2750 -0.1509 -0.3703
20301W        W63218   6.602   3.407  20.014  0.1624  0.2925 -0.0263
20302W        W63219   6.665   1.827  19.303  0.2936  0.0135  0.2095
20303W        W63220   7.700   1.981  20.140  0.0873 -0.0049 -0.0869
20304W        W63221   6.494   0.995  21.834 -0.0554 -0.4109 -0.2108
20305W        W63222   4.204   1.668  18.924 -0.0185  0.1153 -0.0988
20306W        W63223   5.625   2.517  19.784  0.1886 -0.0794  0.1980
20307W        W63224   6.712   2.443  22.250 -0.1238 -0.2237  0.2592
20308W        W63225   8.248   0.939  19.287  0.0976 -0.3225  0.2303
20309W        W63226   4.746   2.570  20.576  0.3036 -0.0660 -0.0698
20310W        W63227   5.043   1.614  22.393  0.1387 -0.0326  0.1831
20311W        W63228   5.737   1.761  23.890  0.0657  0.0220  0.1767
20312W        W63229   5.401   3.157  19.623 -0.2423  0.1608 -0.1501
20313W        W63230   2.809   1.941  22.703  0.0737  0.2271  0.0096
20314W        W63231   3.035   2.950  19.118 -0.1057 -0.0370 -0.1525
20315W        W63232   3.617   0.061  23.766  0.2664  0.1211  0.2686
20316W        W63233   7.810   3.279  23.308  0.2418  0.0940  0.0673
20317W        W63234   4.796   0.876  19.892  0.0480 -0.1217  0.0575
20318W        W63235   3.595   0.126  20.845 -0.1538  0.3887  0.2134
20319W        W63236   6.564  34.580  21.274  0.0156  0.0480  0.3307
20320W        W63237   3.464   2.743  18.939 -0.0915  0.3545 -0.0709
20321W        W63238   7.021   3.935  21.267 -0.1028  0.0620 -0.2919
20322W        W63239   7.053   1.413  20.708  0.1941 -0.1025 -0.0907
20323W        W63240   5.618   3.933  20.351  0.1823  0.0985  0.2255
20324W        W63241   4.109   1.348  21.867 -0.4108 -0.4093 -0.0850
20325W        W63242   5.246   1.710  20.910  0.0073  0.1553 -0.0838
20326W        W63243   5.126   0.448  23.835 -0.1257 -0.2060  0.1779
20327W        W63244   4.576  34.299  22.274 -0.0757 -0.3471  0.0159
20328W        W63245   5.461   0.990  20.673 -0.1148  0.0276 -0.0514
20329W        W63246   3.952  34.436  19.957 -0.1368  0.0147  0.3722
20330W        W63247   6.006   1.010  21.890 -0.2042  0.0545  0.0264
20331W        W63248   4.223   2.623  20.490 -0.0304  0.0756  0.0923
20332W        W63249   3.271   1.339  18.476 -0.0873 -0.1081 -0.0492
20333W        W63250   4.928   2.024  22.744 -0.1444  0.2158  0.0863
20334W        W63251   6.236   3.883  21.205 -0.2770  0.3541 -0.1001
20335W        W63252   9.626   3.927  23.032 -0.3703 -0.0269  0.0036
20336W        W63253   6.341   3.386  21.319  0.1930  0.2498 -0.1250
20337W        W63254   5.018   1.724  20.033 -0.1432 -0.0805  0.1668
20338W        W63255   3.309   2.385  18.501 -0.0747 -0.0103 -0.0478
20339W        W63256   4.505   2.635  21.378  0.2040  0.0470 -0.2047
20340W        W63257   5.432   1.501  20.441 -0.1071 -0.1288  0.2675
20341W        W63258   5.233   2.311  19.383  0.2633  0.0708  0.1599
20342W        W63259   5.724   4.359  21.787 -0.1081  0.1961 -0.2929
20343W        W63260   3.767   1.523  18.123  0.1579 -0.0439  0.2688
20344W        W63261   4.838   0.355  22.523 -0.2241 -0.1037  0.1825
20345W        W63262   5.674  34.643  21.607 -0.1557  0.1370 -0.1746
20346W        W63263   7.982   2.258  22.813  0.1537  0.1005  0.0352
20347W        W63264   6.410   2.902  21.414 -0.0592 -0.1002  0.2582
20348W        W63265   4.660   2.109  18.544  0.3937  0.3077 -0.1923
20349W        W63266   5.131   5.300  21.256 -0.1790 -0.2137  0.1295
20350W        W63267   4.683   3.450  20.940 -0.0174 -0.0384  0.0391
20351W        W63268   3.479   1.228  18.958 -0.2178 -0.1554  0.0858
20352W        W63269   6.029   4.231  19.067  0.0735  0.0521 -0.3777
20353W        W63270   6.773   1.467  22.047 -0.1561 -0.1089 -0.2574
20354W        W63271   4.208   2.215  22.918 -0.1235  0.0055  0.0728
20355W        W63272   5.100  34.054  24.450  0.1938  0.1910 -0.3391
20356W        W63273   3.866   0.343  19.323 -0.2658  0.1744  0.3019
20357W        W63274   2.211   2.246  23.470 -0.3402  0.1112 -0.1131
20358W        W63275   7.793   2.479  20.219  0.3517  0.4383  0.0602
20359W        W63276   6.153   1.586  18.583 -0.1381  0.2991  0.0388
20360W        W63277   4.458   3.343  22.983  0.1450 -0.1270  0.0451
20361W        W63278   5.166   2.063  18.646 -0.1516 -0.1743 -0.4282
20362W        W63279   5.605   1.397  19.219  0.2721 -0.3174  0.5396
20363W        W63280   4.778  34.654  19.685  0.1416  0.1805  0.0062
20364W        W63281   4.604   3.009  22.194  0.1937 -0.1594 -0.2628
20365W        W63282   3.919   3.603  21.245  0.0492  0.0057  0.2610
20366W        W63283   5.221   3.363  21.609  0.2216  0.1370 -0.0575
20367W        W63284   3.898   2.115  19.105 -0.2275 -0.0872 -0.5213
20368W        W63285   7.550   0.988  19.958  0.1185  0.2174 -0.1654
20369W        W63286   4.767   0.848  23.724  0.2068 -0.1200 -0.0324
20370W        W63287   6.268   2.173  22.109 -0.1154 -0.1682  0.4254
20371W        W63288   6.075   2.695  20.252  0.0536  0.0185 -0.0951
20372W        W63289   5.457   1.253  19.892  0.0360 -0.0937  0.0257
20373W        W63290   4.291   1.181  19.838  0.3275  0.2827 -0.2978
20374W        W63291   4.818   1.914  20.939 -0.3509 -0.3517 -0.2883
20375W        W63292   3.163   3.166  19.588 -0.2028 -0.1918  0.2489
20376W        W63293   7.321   1.072  20.909  0.0736  0.0314 -0.0172
20377W        W63294   6.132  33.832  23.339  0.0823  0.0759  0.4971
20378W        W63295   5.204   1.179  23.117  0.1392 -0.3964 -0.0342
20379W        W63296   6.703   1.981  22.307  0.2948  0.2071  0.1448
20380W        W63297   6.663   2.853  19.534 -0.0344  0.0455 -0.3310
20381W        W63298   6.266   2.603  20.962  0.0227 -0.3219 -0.0834
20382W        W63299   6.288   0.406  19.310 -0.2941  0.1918 -0.3640
20383W        W63300   5.493   0.816  21.957  0.1819  0.1270 -0.0430
20384W        W63301   4.243   1.833  20.964 -0.1278 -0.0586 -0.0385
20385W        W63302   3.352   3.261  20.656  0.0557 -0.0884 -0.4572
20386W        W63303   6.280   5.191  21.988 -0.0589 -0.0200  0.1609
20387W        W63304   5.081   0.682  20.616 -0.3883  0.2599  0.1875
20388W        W63305   6.874   0.923  23.293 -0.0499 -0.0045 -0.0090
20389W        W63306   6.781   2.452  19.159 -0.1742 -0.0616 -0.0081
20390W        W63307   4.221   3.244  18.546 -0.1528  0.0560  0.4555
20391W        W63308   3.991   1.607  21.339 -0.1429 -0.1499  0.0240
20392W        W63309   2.323  34.065  22.803 -0.3255  0.0681  0.2501
20393W        W63310   7.144   3.262  19.594  0.3917  0.2711  0.2893
20394W        W63311   4.664   4.071  20.358  0.2419 -0.1548  0.1799
20395W        W63312   4.714   3.892  22.929  0.0563 -0.0927 -0.1258
20396W        W63313   3.702   1.000  19.314  0.0365  0.0441 -0.1100
20397W        W63314   8.553   0.322  22.995 -0.0237  0.0964 -0.0016
20398W        W63315   4.474   1.684  19.870  0.0510  0.1134 -0.1709
20399W        W63316   3.964   0.042  18.142 -0.2343 -0.1799 -0.1235
20400W        W63317   3.327   1.468  17.882 -0.2406 -0.1825 -0.1673
20401W        W63318   7.026   0.190  21.089 -0.0151  0.0537  0.3167
20402W        W63319   7.199   2.776  19.458  0.1586 -0.0693  0.0627
20403W        W63320   4.211  34.078  20.932  0.0008 -0.0258  0.1549
20404W        W63321   6.594   2.281  20.661  0.0354  0.0785  0.3429
20405W        W63322   2.671   3.313  21.501 -0.2831 -0.0756 -0.2429
20406W        W63323   4.920   1.879  21.714  0.0852 -0.1542 -0.0408
20407W        W63324   7.219   0.470  19.772  0.2159 -0.0366 -0.1639
20408W        W63325   5.856   3.330  20.408  0.0537 -0.2117  0.0517
20409W        W63326   5.577   0.488  23.517  0.1427  0.2553  0.1479
20410W        W63327   4.683   1.783  18.923  0.0745 -0.1557  0.2949
20411W        W63328   6.465   0.390  21.820 -0.0612  0.1768  0.2404
20412W        W63329   4.816   3.525  21.555 -0.0092 -0.6468  0.1778
20413W        W63330   4.450   0.983  22.015  0.0107  0.1340 -0.2629
20414W        W63331   4.819   4.903  21.222  0.1356  0.0825  0.1792
20415W        W63332   6.721   2.612  21.160  0.2595  0.1330 -0.1882
20416W        W63333   4.310   1.053  20.696  0.0581  0.0346 -0.1889
20417W        W63334   5.428   0.439  23.061  0.0330 -0.2913  0.1193
20418W        W63335   5.944   1.452  22.747 -0.1156 -0.1195  0.0806
20419W        W63336   4.592   1.227  20.291  0.3022  0.1366 -0.3126
20420W        W63337   4.903   1.880  17.947 -0.3343 -0.0645  0.0207
20421W        W63338   6.520   1.454  21.576  0.0123 -0.2325 -0.2569
20422W        W63339   6.784   3.180  22.900  0.1320 -0.0204  0.2879
20423W        W63340   4.486   1.666  22.061 -0.0797  0.1886 -0.0496
20424W        W63341   5.694   0.874  24.389  0.2281  0.0402 -0.2699
20425W        W63342   5.295  34.566  22.259 -0.2810 -0.1167 -0.1548
20426W        W63343   8.412   3.594  19.562 -0.2081 -0.1214  0.1805
20427W        W63344   6.744   2.252  22.833 -0.1190 -0.1495  0.1381
20428W        W63345   4.697   1.547  19.356 -0.1175 -0.0403  0.1776
20429W        W63346   3.281   1.999  20.265  0.0172 -0.1084 -0.0975
20430W        W63347   4.259   4.529  19.899  0.0249  0.2186 -0.1749
20431W        W63348   5.237   0.177  20.744  0.2096  0.0642  0.2135
20432W        W63349   4.723   2.153  23.723  0.2530  0.0885 -0.0035
20433W        W63350   5.563   2.627  18.647 -0.1844 -0.4826  0.0764
20434W        W63351   3.439   2.812  23.590 -0.2565 -0.0333  0.3196
20435W        W63352   7.213  34.500  21.430 -0.0222  0.0504 -0.3709
20436W        W63353   5.440   2.516  21.364 -0.3056 -0.2263 -0.0827
20437W        W63354   4.504   1.281  18.872  0.0806  0.0970 -0.2424
20438W        W63355   5.793  34.258  23.089  0.1070 -0.1438  0.1054
20439W        W63356   6.687   1.919  19.794 -0.0236  0.3442 -0.1339
20440W        W63357   6.238  34.035  22.854 -0.0669 -0.3945 -0.1677
20441W        W63358   3.524   2.069  21.973  0.1070  0.0884 -0.0081
20442W        W63359   6.622   3.400  22.438 -0.1487  0.1064  0.2417
20443W        W63360   4.079   1.174  24.396 -0.0184 -0.2685  0.1019
20444W        W63361   4.510   4.582  23.927 -0.1129 -0.1831 -0.0631
20445W        W63362   6.464   1.872  23.470  0.1415  0.0942  0.0747
20446W        W63363   4.797   2.222  19.057 -0.0146  0.2290 -0.1840
20447W        W63364   5.919  34.019  20.010 -0.1115  0.1584  0.1099
20448W        W63365   4.485   1.720  23.595  0.0461 -0.0259  0.1085
20449W        W63366   6.299   5.603  21.528 -0.0714  0.0801 -0.3259
20450W        W63367   4.305   2.607  19.382 -0.1995 -0.0583  0.1037
20451W        W63368   6.310   2.286  21.499 -0.0848  0.0891  0.1073
20452W        W63369   5.397   1.357  22.681 -0.1222 -0.4736  0.1729
20453W        W63370   6.685   1.568  20.227  0.1220  0.1268  0.1346
20454W        W63371   5.423   2.805  21.801  0.0612  0.1612 -0.0644
20455W        W63372   5.998   2.326  19.458  0.0258 -0.0640 -0.1196
20456W        W63373   3.095   0.223  22.466  0.0405 -0.1796 -0.0936
20457W        W63374   4.992   1.418  21.300  0.0664  0.0066 -0.0213
20458W        W63375   6.878   1.348  19.331  0.0763  0.2040 -0.2245
20459W        W63376   6.350   2.393  22.562  0.1507 -0.1362 -0.1935
20460W        W63377   4.806   2.546  23.439 -0.0603  0.2041  0.0592
20461W        W63378   5.729   1.609  21.796 -0.0489  0.1166 -0.0600
20462W        W63379   4.389   0.207  24.374 -0.1363 -0.1142 -0.1668
20463W        W63380   5.503   4.811  22.094 -0.3912  0.0685 -0.0355
20464W        W63381   7.658   1.495  20.046 -0.1459  0.1782  0.0563
20465W        W63382   6.141   1.820  22.493  0.1913 -0.0772 -0.0178
20466W        W63383   7.712   1.480  19.441  0.0806 -0.0269  0.0122
20467W        W63384   4.618   2.297  17.196  0.0390 -0.1473 -0.2289
20468W        W63385   4.883   1.618  20.495  0.0393 -0.1745  0.1782
20469W        W63386   8.868   3.170  21.996  0.0489 -0.0357 -0.0947
20470W        W63387   4.909   3.938  19.360  0.1658 -0.3629  0.0413
20471W        W63388   4.731   0.865  20.982  0.2176  0.2834  0.3839
20472W        W63389   7.188   4.024  19.438  0.0666  0.1212 -0.1592
20473W        W63390   6.178   2.766  22.283 -0.3160 -0.0758  0.0647
20474W        W63391   5.132   1.127  20.315 -0.3554  0.2070 -0.1547
20475W        W63392   3.627   0.701  18.909 -0.2556  0.1958  0.0728
20476W        W63393   1.408   2.505  23.313 -0.2160  0.5790 -0.1712
20477W        W63394   5.531   0.181  18.753 -0.1925 -0.3531 -0.1820
20478W        W63395   6.160   3.026  17.617 -0.2397  0.3786  0.3598
20479W        W63396   6.953   2.709  20.750  0.0704  0.1883  0.2025
20480W        W63397   6.781   1.050  24.440  0.1031  0.0510 -0.3219
20481W        W63398   6.295   1.211  19.689 -0.1675 -0.0114 -0.0371
20482W        W63399   5.585   0.194  22.028  0.1042 -0.0952  0.2519
20483W        W63400   2.864   2.398  21.882 -0.0580  0.1560 -0.1745
20484W        W63401   5.590   0.371  19.772  0.1709  0.0513 -0.0273
20485W        W63402   4.409   4.875  22.935 -0.3948 -0.0342  0.0701
20486W        W63403   2.995   3.755  22.458  0.4514 -0.0817  0.2069
20487W        W63404   3.729   2.167  20.039 -0.3566  0.0858 -0.4119
20488W        W63405   5.823   1.376  20.713 -0.0573 -0.2095  0.1294
20489W        W63406   5.385   1.752  21.446  0.2751 -0.1087 -0.0876
20490W        W63407   3.816   2.365  22.661  0.2946 -0.1414  0.2835
20491W        W63408   7.714  34.573  23.240 -0.3335  0.0048 -0.0861
20492W        W63409   5.806   4.105  21.356  0.0788  0.0027  0.0785
20493W        W63410   5.531   1.281  21.152  0.0467 -0.2307  0.3119
20494W        W63411   4.569   2.888  23.131  0.1149 -0.1819 -0.1437
20495W        W63412   9.520   1.955  22.694 -0.1718 -0.1462 -0.1152
20496W        W63413   6.682   0.645  21.501 -0.0731 -0.1197  0.1819
20497W        W63414   5.388   1.818  22.781  0.1051  0.3299  0.2809
20498W        W63415   6.130  34.632  23.290  0.1308 -0.2479 -0.2927
20499W        W63416   7.522   3.148  21.550 -0.1436 -0.2472  0.0369
20500W        W63417   4.978   0.664  19.234  0.1626 -0.1117  0.0923
20501W        W63418   5.623   2.404  20.311  0.1150 -0.0862 -0.0877
20502W        W63419   3.937   2.650  23.776  0.4049  0.2397 -0.0057
20503W        W63420   3.060   2.756  22.701  0.2047  0.0780  0.1207
20504W        W63421   4.279   3.683  18.945 -0.0697  0.0745  0.0176
20505W        W63422   7.066   2.262  19.449  0.0189 -0.0612  0.1542
20506W        W63423   6.372   2.669  19.188  0.4415 -0.3156 -0.0012
20507W        W63424   5.419   3.666  22.895  0.3714  0.3111 -0.1404
20508W        W63425   4.453  34.528  20.059 -0.0910 -0.2245 -0.2494
20509W        W63426   3.718   2.536  20.438  0.0280 -0.2046  0.0482
20510W        W63427   4.036   4.001  21.503  0.1035  0.0049  0.0404
20511W        W63428   6.843   3.919  18.762  0.0480 -0.3408 -0.2092
20512W        W63429   3.139   1.633  19.059 -0.0792 -0.2718 -0.3479
20513W        W63430   5.390   3.846  23.520 -0.1488 -0.2399 -0.0052
20514W        W63431   6.885   2.086  20.241 -0.2525 -0.0977  0.0062
20515W        W63432   8.523   1.790  21.921  0.0692  0.0713  0.3481
20516W        W63433   6.783   0.753  19.952  0.2524  0.1391  0.2091
20517W        W63434   6.015   4.903  22.303 -0.0680  0.0250  0.5351
20518W        W63435   4.186   2.006  21.715  0.0630 -0.0116 -0.0136
20519W        W63436   6.417   0.909  20.883  0.0889  0.0261  0.2466
20520W        W63437   4.689   1.276  23.329 -0.1654  0.1989 -0.1058
20521W        W63438   7.968   1.808  22.041 -0.0829 -0.0166  0.1902
20522W        W63439   4.304   4.138  22.904 -0.0758 -0.1598 -0.1412
20523W        W63440   8.423   3.397  21.808  0.2561 -0.2007  0.0600
20524W        W63441   3.671   0.786  19.901 -0.0627 -0.1104 -0.2661
20525W        W63442   5.762   2.099  21.508  0.0380  0.1582  0.0846
20526W        W63443   6.816  33.434  22.805 -0.0303 -0.1459  0.2091
20527W        W63444   4.594   3.000  19.692  0.1857 -0.0577 -0.0479
20528W        W63445   5.881   0.850  20.977  0.0971  0.1597  0.1516
20529W        W63446   4.305   3.366  21.718  0.3098  0.2866  0.2388
20530W        W63447   3.333   3.276  21.746 -0.0171 -0.0475  0.2306
20531W        W63448   3.921   3.153  22.896 -0.1037 -0.1031 -0.2831
20532W        W63449   3.863  34.053  18.882  0.2778  0.1494 -0.1156
20533W        W63450   5.575   0.081  20.248 -0.0215  0.2060 -0.1457
20534W        W63451   4.868   1.291  21.888 -0.0380 -0.1186  0.0608
20535W        W63452   8.257   0.926  20.987 -0.0511  0.3276  0.3574
20536W        W63453   3.865   1.366  19.671  0.0163 -0.2870 -0.1762
20537W        W63454   6.583   1.986  21.791  0.0518  0.0849  0.3196
20538W        W63455   4.876   3.980  21.319  0.0512 -0.0985 -0.3320
20539W        W63456   4.887   1.222  25.026 -0.2213 -0.0578  0.0084
20540W        W63457   3.085   4.514  18.809 -0.3750 -0.1087  0.1200
20541W        W63458   6.718   0.999  22.304 -0.1471  0.1622 -0.0134
20542W        W63459   6.020   2.220  21.093  0.3059 -0.1003 -0.0092
20543W        W63460   5.660   4.046  23.145  0.2238 -0.1350 -0.0701
20544W        W63461   4.848   2.554  21.069 -0.1789  0.0761  0.0617
20545W        W63462   4.829   2.022  19.550  0.0650 -0.0552  0.0033
20546W        W63463   2.685   1.874  20.486 -0.2818  0.2970 -0.1836
20547W        W63464   5.116   2.673  20.255  0.3660 -0.0714 -0.1021
20548W        W63465   5.251   2.965  23.687  0.1546  0.2603 -0.3051
20549W        W63466   4.105   0.247  19.717 -0.1399  0.1077 -0.0767
20550W        W63467   8.557   1.538  17.831  0.2469  0.6463 -0.1179
20551W        W63468   8.011   1.874  19.215 -0.3285  0.1869  0.0463
20552W        W63469   5.021   3.123  20.023  0.2757  0.2490 -0.0126
20553W        W63470   6.993   4.075  20.568 -0.1297  0.2328  0.2195
20554W        W63471   5.969   3.692  23.017  0.1638  0.1108 -0.2934
20555W        W63472   5.819   1.690  21.137  0.2215 -0.0585 -0.2807
20556W        W63473   5.170   3.683  21.980  0.1365 -0.2220  0.0705
20557W        W63474   7.254   2.600  21.189 -0.2143  0.0410 -0.0055
20558W        W63475   4.905  34.537  22.602  0.0327  0.1331  0.1827
20559W        W63476   4.953   0.944  22.261  0.0064 -0.2222 -0.0629
20560W        W63477   2.365   4.091  19.943  0.1954  0.1209  0.4621
20561W        W63478   7.608   1.917  19.643  0.0064 -0.2285 -0.1465
20562W        W63479   5.272   1.694  21.959  0.1462  0.1171  0.2629
20563W        W63480   3.323   4.101  20.081 -0.0084  0.1224 -0.0407
20564W        W63481   7.766  33.999  19.549  0.1048 -0.3956 -0.1033
20565W        W63482   5.333   2.230  21.761 -0.0611 -0.2409  0.1681
20566W        W63483   5.242   1.828  23.873 -0.1307  0.1701 -0.2251
20567W        W63484   5.021   2.530  18.675 -0.0768 -0.0233 -0.2370
20568W        W63485   2.873   1.215  22.184  0.0880  0.0343 -0.0927
20569W        W63486   6.594   2.888  20.010  0.0270 -0.1580  0.1777
20570W        W63487   5.028   4.301  20.593  0.0950 -0.1048  0.0904
20571W        W63488   5.608   5.128  21.405 -0.0959  0.0876  0.0070
20572W        W63489   5.644   2.103  18.590 -0.0351  0.1299 -0.0541
20573W        W63490   5.861   3.615  22.579  0.3108  0.0794 -0.2973
20574W        W63491   2.920   0.649  22.234 -0.4703 -0.1297  0.3817
20575W        W63492   6.969   0.914  19.021 -0.0334 -0.0014  0.0090
20576W        W63493   7.119   0.454  19.221 -0.0936 -0.1833  0.0300
20577W        W63494   5.409   0.902  23.860 -0.1590 -0.2458  0.2817
20578W        W63495   4.933   1.460  17.270  0.0040 -0.0068 -0.5456
20579W        W63496   6.173   3.166  19.915 -0.1576 -0.0537  0.0578
20580W        W63497   3.724   3.378  22.539 -0.0653 -0.0766  0.1149
20581W        W63498   4.164  34.039  23.485 -0.0209  0.1141 -0.2716
20582W        W63499   3.692   2.336  23.427  0.1737 -0.2809 -0.0963
20583W        W63500   3.828   1.997  20.506 -0.1582  0.2381 -0.1124
20584W        W63501   4.392   2.159  20.432  0.1486 -0.0192  0.0873
20585W        W63502   8.377   3.747  20.438  0.0793 -0.0371  0.0299
20586W        W63503   5.081   1.803  19.200 -0.2549 -0.0682 -0.1672
20587W        W63504   3.513   0.364  21.384  0.0674 -0.2429  0.1073
20588W        W63505   7.249   3.400  20.121  0.2592 -0.2152  0.1415
20589W        W63506   7.341   2.254  20.413 -0.1327  0.0896 -0.1333
20590W        W63507   5.402   0.467  21.556  0.2309  0.1109 -0.1748
20591W        W63508   6.836   2.642  25.541  0.0409 -0.0896  0.0569
20592W        W63509   3.935   4.092  18.652 -0.2010  0.0321 -0.1280
20593W        W63510   4.535   1.982  24.692  0.1997  0.3388  0.2100
20594W        W63511   3.979   1.816  22.134 -0.1402 -0.2504 -0.0583
20595W        W63512   3.604   1.311  17.375 -0.0704 -0.3123  0.0350
20596W        W63513   5.676   1.693  22.343  0.0431  0.1563 -0.2352
20597W        W63514   3.081   3.559  19.896 -0.1441  0.2837 -0.4286
20598W        W63515   6.077   3.674  20.121  0.0535 -0.0281  0.1429
20599W        W63516   5.968   3.036  21.940  0.1074 -0.0560  0.1983
20600W        W63517   6.342   1.591  24.112  0.0001 -0.0265  0.0394
20601W        W63518   3.276  33.934  20.892  0.2562 -0.0058 -0.0487
20602W        W63519   7.456   2.632  20.758 -0.0990  0.0058 -0.2142
20603W        W63520   6.105   3.566  21.704 -0.0155  0.2422  0.0211
20604W        W63521   8.906   3.295  18.805 -0.0086 -0.3668  0.1246
20605W        W63522   7.182  33.971  22.034 -0.0812 -0.1925 -0.1131
20606W        W63523   8.044   2.726  21.555  0.0721  0.0193  0.0246
20607W        W63524   4.165   1.171  22.424 -0.0397 -0.2603  0.0494
20608W        W63525   6.126   3.431  22.181  0.0554 -0.0666 -0.0498
20609W        W63526   7.710   3.791  22.942 -0.0046  0.1135 -0.1834
20610W        W63527   3.644   0.284  20.041  0.1472 -0.0011  0.0071
20611W        W63528   6.078   2.305  20.550  0.0968 -0.0578 -0.1187
20612W        W63529   5.016   2.594  21.556  0.1806  0.3674  0.0032
20613W        W63530   3.640   1.353  21.679 -0.3068 -0.2097 -0.2840
20614W        W63531   5.484   1.652  18.760 -0.1594 -0.2381  0.1015
20615W        W63532   5.980   1.333  21.511 -0.0605 -0.3239  0.1721
20616W        W63533   7.373   3.456  21.155 -0.1820  0.1501  0.0786
20617W        W63534   6.878   0.459  23.011  0.2441  0.2069 -0.0117
20618W        W63535   6.151   2.665  19.736 -0.0996 -0.0271 -0.1511
20619W        W63536   6.975   1.922  20.722  0.0304  0.1987 -0.4445
20620W        W63537   4.149   4.246  24.194 -0.1437 -0.2931  0.0030
20621W        W63538   6.340   4.027  23.211 -0.1737  0.0780 -0.3716
20622W        W63539   4.354   4.015  23.763  0.1069  0.1194  0.4157
20623W        W63540   5.101   2.177  21.280 -0.2426  0.0330  0.0921
20624W        W63541   5.088  33.763  23.904  0.0149 -0.0509  0.0944
20625W        W63542   4.359   1.719  22.588 -0.4517  0.2218 -0.0515
20626W        W63543   7.012   2.058  18.935 -0.4322  0.0624  0.1783
20627W        W63544   4.872   1.003  22.761 -0.2679 -0.0391 -0.0675
20628W        W63545   4.201   3.272  20.024  0.1054 -0.3853 -0.0599
20629W        W63546   6.725  33.942  19.573 -0.3681 -0.1042 -0.1342
20630W        W63547   3.784   3.178  21.484 -0.1380 -0.1424  0.1141
20631W        W63548   6.548   3.866  20.829  0.1037 -0.2996  0.3692
20632W        W63549   3.520   2.726  26.137  0.2433  0.0606  0.4125
20633W        W63550   4.740   0.336  25.509  0.0116 -0.0532  0.0256
20634W        W63551   4.661   0.157  23.624  0.1142 -0.1459 -0.0003
20635W        W63552   6.884   3.559  25.384  0.1291 -0.3337 -0.1055
20636W        W63553   4.543  33.963  24.378 -0.2304  0.0895  0.0011
20637W        W63554   6.543   2.321  26.167 -0.2467  0.0294  0.2727
20638W        W63555   3.623  34.566  28.768  0.2871 -0.1361  0.0028
20639W        W63556   5.751   4.151  24.636 -0.1594  0.1250  0.0818
20640W        W63557   6.786   3.483  26.570  0.2031  0.4287  0.0403
20641W        W63558   4.409   2.499  23.785 -0.0685 -0.0302  0.0522
20642W        W63559   5.904  33.523  26.806 -0.0268  0.0340 -0.1670
20643W        W63560   5.432   4.335  26.061  0.1999 -0.0077  0.0907
20644W        W63561   5.040   1.614  23.377 -0.0561  0.0480  0.2081
20645W        W63562   3.294  34.172  26.427  0.1448 -0.0957  0.3112
20646W        W63563   6.206   1.812  25.557 -0.2741 -0.1286  0.0881
20647W        W63564   4.188   1.826  25.042  0.2320 -0.3121  0.2085
20648W        W63565   6.737   1.016  26.457 -0.2357 -0.4132  0.4705
20649W        W63566   5.495   1.602  26.512 -0.0062 -0.0666 -0.2143
20650W        W63567   5.976   1.623  26.024 -0.0817  0.3311  0.1404
20651W        W63568   5.094  34.509  26.758 -0.0545 -0.0921  0.1286
20652W        W63569   5.999   0.325  25.140 -0.1582  0.2138  0.1794
20653W        W63570   5.030   2.582  26.018 -0.0614 -0.0751 -0.1139
20654W        W63571   3.506   3.009  22.140  0.1185 -0.2007  0.0964
20655W        W63572   3.273   2.677  24.360 -0.1209  0.0358 -0.0953
20656W        W63573   5.344   2.245  26.432  0.2226  0.0711  0.0838
20657W        W63574   7.190   1.202  24.757  0.1191  0.1793 -0.0937
20658W        W63575   6.049  33.870  24.382 -0.3014 -0.0588  0.0913
20659W        W63576   5.309   1.363  24.691  0.1828 -0.0942 -0.4255
20660W        W63577   7.908   2.367  26.450 -0.2211 -0.1562 -0.0626
20661W        W63578   5.802   1.428  24.323  0.0384 -0.1793  0.2529
20662W        W63579   4.480   1.580  24.211 -0.2695  0.5085 -0.2296
20663W        W63580   1.578   3.922  24.905  0.0260  0.0005 -0.0607
20664W        W63581   4.984   2.649  23.941  0.1031 -0.1194  0.2206
20665W        W63582   5.313   2.061  22.314  0.0838 -0.1082  0.2081
20666W        W63583   4.382   4.352  25.413  0.1585  0.2828 -0.0289
20667W        W63584   3.963   4.132  27.682 -0.1303  0.0674 -0.1963
20668W        W63585   4.673   3.191  24.834 -0.3967  0.0967  0.1515
20669W        W63586   5.249   1.701  28.726 -0.0777 -0.0899  0.0447
20670W        W63587   5.147   1.993  26.038 -0.0293  0.0549 -0.0643
20671W        W63588   4.172   2.004  25.535  0.0530 -0.3345 -0.0706
20672W        W63589   5.229   1.145  25.416 -0.0518 -0.3751  0.0663
20673W        W63590   4.574   4.018  22.397 -0.0356  0.0974 -0.0434
20674W        W63591   3.508   2.477  23.992 -0.0216 -0.0767 -0.1666
20675W        W63592   4.224   2.689  29.998  0.1270  0.1130 -0.0208
20676W        W63593   3.652   3.520  25.492  0.0803 -0.2560 -0.1020
20677W        W63594   7.092   1.681  24.683 -0.0381 -0.1831 -0.1298
20678W        W63595   4.375   1.511  24.727 -0.0688 -0.0743 -0.1095
20679W        W63596   8.503   1.130  22.983 -0.2806 -0.2121  0.2666
20680W        W63597   4.567  34.003  23.814  0.1460 -0.0176  0.0621
20681W        W63598   5.661   0.902  21.461 -0.0632  0.4494  0.0789
20682W        W63599   3.840  33.067  23.959 -0.2248  0.0338  0.3094
20683W        W63600   4.064   2.879  24.511 -0.0606  0.4504  0.2389
20684W        W63601   3.852   0.285  27.428  0.2659 -0.2746 -0.0757
20685W        W63602   5.312   1.685  27.035  0.0036 -0.0368 -0.0094
20686W        W63603   4.267   0.458  23.834  0.1183 -0.1586  0.2393
20687W        W63604   4.807   0.739  25.094 -0.2170  0.0380 -0.2442
20688W        W63605   4.271   4.039  24.951 -0.3166  0.0036 -0.0708
20689W        W63606   3.622   1.827  25.218  0.1137 -0.0775 -0.2743
20690W        W63607   6.069   3.350  24.449 -0.0093  0.2402 -0.2097
20691W        W63608   8.611   4.261  22.990  0.1191  0.0437  0.0487
20692W        W63609   5.008   3.723  23.257  0.0422  0.2607  0.0569
20693W        W63610   4.128   2.082  26.714  0.1059  0.0950 -0.2305
20694W        W63611   5.347   0.756  28.162  0.3010 -0.2050 -0.0544
20695W        W63612   3.099   0.655  28.701  0.2452  0.0715 -0.0127
20696W        W63613   5.378  34.228  23.413 -0.1189 -0.2474  0.2230
20697W        W63614   8.535   4.342  28.994  0.1374 -0.0936 -0.0424
20698W        W63615   5.177   2.384  27.353 -0.2824  0.1236 -0.0481
20699W        W63616   7.804  34.330  23.645  0.1254  0.3603 -0.1119
20700W        W63617   5.385   1.068  26.329 -0.1187  0.1831  0.3635
20701W        W63618   5.769   2.532  26.539  0.3816  0.1334 -0.1084
20702W        W63619   6.105   1.030  23.248 -0.3155  0.2135  0.2749
20703W        W63620   5.528  34.582  23.908 -0.0812  0.0118  0.0075
20704W        W63621   6.660  34.438  27.344 -0.0965 -0.2507  0.1537
20705W        W63622   3.440   1.350  25.325 -0.0903  0.1372  0.0633
20706W        W63623   4.111   2.461  24.209 -0.0100  0.0186 -0.1797
20707W        W63624   7.944   2.250  26.949 -0.0037 -0.1082 -0.0612
20708W        W63625   6.733   0.468  23.533 -0.0596  0.1390 -0.1402
20709W        W63626   3.422   2.205  24.920 -0.0714 -0.1436  0.1309
20710W        W63627   4.246   1.534  26.918 -0.2285 -0.0651  0.2942
20711W        W63628   2.521   3.953  26.234 -0.3583  0.2421  0.3018
20712W        W63629   4.161   2.978  23.994 -0.0547 -0.1380 -0.1958
20713W        W63630   3.694   4.502  25.881 -0.0226  0.0572  0.1853
20714W        W63631   3.682   2.405  25.694 -0.1176 -0.3644 -0.0662
20715W        W63632   2.143  33.248  26.708 -0.1087  0.2414  0.3094
20716W        W63633   5.664   1.992  25.628 -0.2144  0.2464 -0.5234
20717W        W63634   6.181  34.447  25.196  0.1428 -0.1913  0.0301
20718W        W63635   4.283   0.162  27.697 -0.2529  0.0888 -0.1670
20719W        W63636   7.085  33.558  24.480  0.4254  0.1900 -0.0297
20720W        W63637   3.893   3.712  25.051  0.0303 -0.3490  0.3095
20721W        W63638   5.662   3.606  24.458  0.2345  0.0892  0.0364
20722W        W63639   6.235   1.676  22.006  0.2469  0.2411 -0.2332
20723W        W63640   7.009   3.978  21.822  0.1089  0.2185  0.1693
20724W        W63641   4.792   0.094  26.474  0.1130  0.2015 -0.0989
20725W        W63642   4.858  34.265  26.321 -0.6193  0.4251 -0.1838
20726W        W63643   3.402   0.028  26.619 -0.1106  0.0238 -0.0780
20727W        W63644   3.306   2.978  27.073 -0.0575 -0.0866  0.0026
20728W        W63645   5.137   3.663  25.188 -0.2012  0.0615 -0.0633
20729W        W63646   4.592   2.036  23.251 -0.3569 -0.1076  0.2067
20730W        W63647   6.093   0.123  25.587  0.1616 -0.1108 -0.1852
20731W        W63648   4.667   0.793  25.965  0.1508  0.1017 -0.0849
20732W        W63649   3.973   1.007  25.172  0.2247  0.0336  0.1595
20733W        W63650   7.065   0.270  28.108  0.0189 -0.0357  0.2845
20734W        W63651   5.556   2.282  25.177  0.1373 -0.3572  0.1686
20735W        W63652   6.969   2.595  26.017  0.0656 -0.1155  0.0828
20736W        W63653   7.359   3.470  25.863  0.2543 -0.0037  0.2741
20737W        W63654   5.267  34.183  27.036 -0.0962  0.1888  0.0067
20738W        W63655   3.776   0.851  24.677  0.0430  0.0049  0.2545
20739W        W63656   3.568   4.102  26.315  0.0196 -0.0397  0.0684
20740W        W63657   5.667   3.274  25.264 -0.0329 -0.1645  0.1196
20741W        W63658   3.541   0.695  23.118 -0.3574 -0.3825 -0.1584
20742W        W63659   7.579   3.938  27.282  0.0509  0.0701 -0.1101
20743W        W63660   4.935   0.072  24.074  0.0094 -0.3439 -0.0133
20744W        W63661   5.361   2.622  26.866 -0.0191  0.2906 -0.1316
20745W        W63662   5.244   0.744  24.316  0.0349 -0.0521 -0.2623
20746W        W63663   6.175   1.998  27.431  0.1487 -0.3443  0.0508
20747W        W63664   5.242   0.690  25.525  0.2060 -0.4363  0.2669
20748W        W63665   2.611   0.715  23.107  0.2910  0.1729 -0.1097
20749W        W63666   6.927   3.818  24.454 -0.1076 -0.0653  0.0334
20750W        W63667   2.778   1.905  24.262 -0.1211  0.0043 -0.1832
20751W        W63668   4.897   2.725  26.964  0.1456 -0.3202 -0.1477
20752W        W63669   5.223   3.812  24.559  0.2234  0.1078 -0.1348
20753W        W63670   5.263  34.289  24.973 -0.0528 -0.2693  0.2421
20754W        W63671   2.875   3.648  26.488 -0.3733 -0.0241 -0.0397
20755W        W63672   6.934   1.927  26.813  0.0588 -0.3541  0.2499
20756W        W63673   6.230   0.382  23.622 -0.0637 -0.2919  0.1123
20757W        W63674   4.389   2.419  26.237 -0.0543 -0.0322  0.3215
20758W        W63675   6.284  33.536  22.921  0.0471  0.0911 -0.1392
20759W        W63676   5.861   0.337  21.063 -0.0977  0.0145 -0.2551
20760W        W63677   6.601   2.158  27.204  0.1994 -0.1088 -0.0595
20761W        W63678   5.777   0.604  22.671  0.2652  0.2171 -0.0652
20762W        W63679   7.018  34.479  24.728  0.0583 -0.0402  0.1695
20763W        W63680   4.977  34.325  23.084 -0.2454 -0.0198 -0.0757
20764W        W63681   4.953   2.678  28.304 -0.0594 -0.0880  0.1025
20765W        W63682   6.625   0.568  24.095  0.3318  0.3501 -0.1275
20766W        W63683   5.312   2.853  27.315  0.2897  0.0555 -0.1584
20767W        W63684   5.415  34.397  25.839 -0.2097 -0.1382  0.3630
20768W        W63685   6.422   3.399  25.754 -0.1096 -0.1626  0.0201
20769W        W63686   4.148   2.718  25.498 -0.0598 -0.1106  0.2997
20770W        W63687   6.506   1.646  27.276 -0.1576  0.2452  0.2087
20771W        W63688   5.976   3.420  27.562  0.1853  0.2430  0.0094
20772W        W63689   4.287  34.042  25.881 -0.0435 -0.0432 -0.1985
20773W        W63690   5.012   2.428  22.494 -0.0113  0.0698  0.3231
20774W        W63691   5.700  33.407  25.763  0.2854  0.4294 -0.2723
20775W        W63692   3.567   2.837  22.664  0.0027 -0.1673  0.0901
20776W        W63693   7.322   0.460  26.365  0.0481  0.0810 -0.2447
20777W        W63694   4.829   0.554  27.949  0.1387 -0.0909  0.1361
20778W        W63695   6.079   0.567  28.333  0.1223  0.0643 -0.0003
20779W        W63696   7.440   2.512  26.742  0.0752 -0.0333 -0.2230
20780W        W63697   5.995  34.662  23.859  0.1124 -0.1581  0.2079
20781W        W63698   7.436   2.623  26.283  0.4171  0.0071  0.2443
20782W        W63699   5.091   0.820  27.192 -0.1621  0.2605 -0.0591
20783W        W63700   4.791  33.957  28.425 -0.1858  0.1543 -0.2259
20784W        W63701   4.684  34.129  27.140  0.3647  0.1908  0.0738
20785W        W63702   5.179   3.524  26.602 -0.0688 -0.0003 -0.0029
20786W        W63703   5.680   2.515  27.320  0.2549 -0.1531 -0.0304
20787W        W63704   4.367   1.557  25.704 -0.1579  0.2160  0.1972
20788W        W63705   5.685   0.974  25.785  0.1060  0.0905  0.1699
20789W        W63706   4.909   1.463  22.845 -0.1105 -0.0238 -0.0712
20790W        W63707   3.679   2.384  24.508 -0.2594 -0.0751  0.2419
20791W        W63708   5.475   1.929  23.467 -0.1041 -0.2182 -0.3084
20792W        W63709   4.264   0.560  27.334 -0.3368 -0.2458 -0.2669
20793W        W63710   4.775   2.036  25.628 -0.3302  0.0139 -0.0034
20794W        W63711   6.571   2.277  25.202 -0.0523  0.1369  0.2919
20795W        W63712   5.791   3.491  26.796 -0.0634 -0.0247 -0.0593
20796W        W63713   2.521   2.560  23.725  0.1654  0.0345  0.1348
20797W        W63714   5.689   0.706  26.455 -0.0893  0.0230  0.3880
20798W        W63715   1.409   4.727  26.070 -0.0946  0.1301  0.2719
20799W        W63716   2.874   1.196  26.196  0.2564 -0.2398 -0.2540
20800W        W63717   2.621   1.566  25.243  0.2213  0.1097 -0.2604
20801W        W63718   6.703   1.060  25.539  0.0408 -0.0150 -0.1653
20802W        W63719   6.241   2.859  22.888 -0.3227  0.1427 -0.2368
20803W        W63720   5.484   1.194  27.174  0.0585 -0.1666  0.0897
20804W        W63721   6.223  33.438  28.039  0.0323 -0.0130  0.2715
20805W        W63722   3.039   2.512  26.269 -0.1146 -0.1021 -0.3872
20806W        W63723   6.046   1.857  24.370  0.1500  0.0541 -0.0659
20807W        W63724   6.296  34.190  23.853 -0.0088  0.3680 -0.0332
20808W        W63725   5.322   4.657  27.702 -0.0500  0.0782  0.1200
20809W        W63726   5.254   1.924  27.888  0.1081 -0.1646  0.0776
20810W        W63727   2.939   1.116  25.417  0.4084  0.1642  0.3832
20811W        W63728   5.516   0.466  25.082  0.1916 -0.1209  0.0208
20812W        W63729   4.591  33.327  25.076  0.0403 -0.0166  0.0324
20813W        W63730   4.876   5.230  25.075 -0.0607 -0.0627  0.0302
20814W        W63731   4.533   4.455  24.908 -0.0955 -0.0719  0.3228
20815W        W63732   4.332   0.988  24.852  0.0679  0.1657  0.2019
20816W        W63733   5.058   2.806  25.604  0.6781 -0.1219  0.1013
20817W        W63734   6.237   0.986  29.260  0.2617  0.2882 -0.0145
20818W        W63735   6.543   2.319  26.729 -0.3312 -0.0372 -0.2033
20819W        W63736   7.311   0.269  24.362  0.3367  0.2158  0.0892
20820W        W63737   4.429   1.081  27.096  0.1759  0.1289  0.0712
20821W        W63738   5.410   0.293  24.576 -0.1091 -0.0670  0.0842
20822W        W63739   5.541   2.049  27.462  0.4316 -0.0336  0.0172
20823W        W63740   6.310   0.801  24.447  0.3716 -0.1558  0.0401
20824W        W63741   5.545   2.812  29.092 -0.0651 -0.3149  0.2058
20825W        W63742   5.457  33.890  27.503 -0.0098 -0.0458  0.0921
20826W        W63743   7.150   3.055  23.926 -0.0253 -0.0120 -0.2459
20827W        W63744   5.196   3.794  28.970 -0.2428 -0.0641 -0.2180
20828W        W63745   4.628   3.691  24.984  0.0735  0.1947 -0.1078
20829W        W63746   4.024   0.110  28.123 -0.2279 -0.1503 -0.0656
20830W        W63747   4.825   2.472  26.519  0.4499  0.1225 -0.0188
20831W        W63748   4.292  34.282  24.885 -0.1511  0.1167 -0.1973
20832W        W63749   4.806   1.553  25.369 -0.3577  0.0507  0.2381
20833W        W63750   4.402   1.245  25.284 -0.0696 -0.1284  0.2631
20834W        W63751   3.677   2.521  28.083  0.2265  0.0594 -0.0166
20835W        W63752   5.322   1.204  21.677  0.0917  0.3321 -0.1130
20836W        W63753   4.890   1.423  23.805 -0.2610 -0.1430  0.3674
20837W        W63754   6.438  34.625  24.752 -0.0205 -0.0088 -0.0096
20838W        W63755   8.808   0.906  27.572  0.0905 -0.3329 -0.0346
20839W        W63756   7.607   2.770  22.335 -0.0343 -0.0111  0.0829
20840W        W63757   6.527   0.531  25.785  0.0913  0.1089  0.2132
20841W        W63758   4.757  34.408  29.767 -0.0238  0.0128  0.0475
20842W        W63759   5.844   2.634  24.032  0.1732 -0.4569 -0.0058
20843W        W63760   4.805   0.900  26.763 -0.0228 -0.1471  0.0018
20844W        W63761   3.957   1.913  29.588  0.1040 -0.0239 -0.2103
20845W        W63762   4.891   1.571  27.729 -0.4117 -0.1139  0.0369
20846W        W63763   5.313  34.094  25.423 -0.0980 -0.2269  0.0821
20847W        W63764   6.350   0.311  22.676  0.3013 -0.2093 -0.1178
20848W        W63765   4.341   1.095  26.572 -0.1214  0.1598 -0.0588
20849W        W63766   7.097   4.181  27.244 -0.0208 -0.0471  0.1739
20850W        W63767   3.747   0.453  26.003 -0.2609  0.0157  0.1026
20851W        W63768   5.048   0.549  23.353 -0.1070 -0.2156 -0.1252
20852W        W63769   3.696   3.665  26.657  0.0517 -0.1032 -0.2369
20853W        W63770   7.426   0.952  23.304 -0.0059 -0.2658 -0.2360
20854W        W63771   7.976   0.733  23.598 -0.0870  0.1233  0.2273
20855W        W63772   4.824   1.425  25.874  0.1027  0.1576 -0.4404
20856W        W63773   4.927  33.497  28.196 -0.0672  0.3997 -0.2448
20857W        W63774   7.230   3.479  26.737  0.1198 -0.1347 -0.0325
20858W        W63775   6.050  32.490  26.926 -0.0589  0.1198  0.4262
20859W        W63776   6.223   0.859  25.468  0.1816 -0.2232 -0.0093
20860W        W63777   5.667  34.025  24.698  0.0787  0.1804 -0.2353
20861W        W63778   4.719   2.271  27.164  0.2441 -0.1490  0.0020
20862W        W63779   5.767   1.020  28.276  0.2330 -0.1759 -0.1757
20863W        W63780   5.322   4.029  26.859 -0.0122  0.4255 -0.0039
20864W        W63781   6.469  34.284  24.372 -0.1249 -0.3545 -0.0698
20865W        W63782   6.922   0.283  25.046  0.3749 -0.1092 -0.0050
20866W        W63783   5.877   0.207  24.486  0.2167 -0.1210 -0.2774
20867W        W63784   6.452   0.699  23.088 -0.2109  0.2813  0.1548
20868W        W63785   4.740   0.987  25.539  0.0411 -0.0272 -0.2146
20869W        W63786   6.413   1.461  26.795  0.0088  0.0797 -0.0283
20870W        W63787   6.039   0.477  23.158  0.0281 -0.0121 -0.0983
20871W        W63788   7.606  34.587  24.555 -0.1303  0.2779 -0.0663
20872W        W63789   5.111   3.406  24.778  0.0695 -0.0411  0.0281
20873W        W63790   6.809   1.777  24.276 -0.1869 -0.0473  0.2242
20874W        W63791   4.666   0.534  24.088 -0.5582  0.0890 -0.1507
20875W        W63792   4.204   1.941  26.142  0.2980 -0.1417  0.1013
20876W        W63793   2.738   2.475  28.308 -0.2970  0.1614  0.0849
20877W        W63794   3.506   0.616  22.435  0.0713  0.3528  0.1293
20878W        W63795   5.851   3.671  23.549 -0.0862 -0.2652 -0.3025
20879W        W63796   5.693   1.148  26.735 -0.3009 -0.0309 -0.4738
20880W        W63797   6.514   4.357  27.393 -0.0397 -0.0382 -0.0212
20881W        W63798   4.607  33.509  24.020  0.0934 -0.2102 -0.1409
20882W        W63799   7.392   0.041  26.838 -0.0347 -0.1099 -0.1598
20883W        W63800   1.944   3.503  25.200 -0.0907  0.0447  0.1262
20884W        W63801   6.309  34.036  24.781 -0.0152 -0.1496 -0.1770
20885W        W63802   5.577   3.175  24.792 -0.0259  0.0230 -0.0549
20886W        W63803   3.719   1.927  25.800  0.1854 -0.3515 -0.2451
20887W        W63804   5.603   2.192  24.603 -0.1118  0.0957  0.2720
20888W        W63805   4.940   0.197  25.046 -0.0350  0.1006 -0.0886
20889W        W63806   6.361   1.860  25.073  0.1753  0.0062  0.3460
20890W        W63807   5.178   1.290  26.780  0.0402 -0.2291  0.0985
20891W        W63808   7.567   2.031  27.482 -0.1724  0.4307 -0.0545
20892W        W63809   5.120   2.196  28.354  0.1023 -0.0437 -0.1388
20893W        W63810   4.972   0.423  26.880 -0.1394  0.0202  0.0755
20894W        W63811   5.906   3.249  28.151  0.3130  0.3433  0.1178
20895W        W63812   5.439   1.820  24.915 -0.3067  0.2263  0.3293
20896W        W63813   5.842   1.855  25.204  0.0689 -0.1862  0.2134
20897W        W63814   6.046   1.415  27.582 -0.2385 -0.1697 -0.0414
20898W        W63815   5.102   0.821  28.589  0.0772 -0.1404  0.1696
20899W        W63816   4.856  34.566  27.196  0.0997  0.3074 -0.2738
20900W        W63817   2.870   2.871  23.439  0.0263  0.2422  0.0034
20901W        W63818   5.648   3.263  23.968 -0.0745 -0.4363  0.3379
20902W        W63819   3.688   2.981  31.180  0.1597 -0.1435  0.0354
20903W        W63820   4.289   1.595  27.916  0.1157  0.1065 -0.0547
20904W        W63821   4.463   3.493  23.778  0.2185 -0.0271 -0.0483
20905W        W63822   5.447   1.436  23.644 -0.2633 -0.2138 -0.0336
20906W        W63823   5.506   2.517  22.250  0.1779  0.0411 -0.0649
20907W        W63824   4.281   3.719  25.845 -0.0762  0.0135  0.3825
20908W        W63825   3.747   1.883  22.569 -0.3589  0.1202  0.1459
20909W        W63826   5.759   4.154  23.712  0.0224  0.0878  0.2915
20910W        W63827   2.774   0.668  24.539  0.0214 -0.0991 -0.2774
20911W        W63828   6.596   3.890  25.569 -0.2702 -0.2553  0.3386
20912W        W63829   4.419   3.217  24.387 -0.1444 -0.1173  0.0773
20913W        W63830   6.942   2.498  26.984 -0.1326  0.1956  0.1789
20914W        W63831   6.608  33.333  23.368 -0.0086  0.0228  0.0755
20915W        W63832   7.525   3.164  25.490 -0.4099  0.0708  0.0653
20916W        W63833   5.578  34.281  21.956 -0.0905  0.2267  0.0118
20917W        W63834   7.929   3.672  27.077  0.3130  0.1621 -0.2929
20918W        W63835   6.435   1.385  26.260  0.0810 -0.0710 -0.1125
20919W        W63836   4.623   1.324  22.415  0.0480 -0.0432 -0.3946
20920W        W63837   5.777   0.668  27.904 -0.2883  0.0121  0.1361
20921W        W63838   6.856   1.526  26.514  0.0577  0.3749  0.0372
20922W        W63839   2.963   4.120  29.552  0.4499 -0.3285 -0.1417
20923W        W63840   6.103   3.383  23.852 -0.2516  0.0027 -0.1027
20924W        W63841   3.147   1.523  24.344  0.1035  0.0196 -0.0316
20925W        W63842   5.037   0.621  26.437 -0.0260  0.0022 -0.3244
20926W        W63843   8.047  34.503  26.249 -0.2006 -0.2047  0.2763
20927W        W63844   4.627   2.155  21.342  0.0729 -0.0256  0.2473
20928W        W63845   6.212   0.002  26.057 -0.1801  0.1015  0.0807
20929W        W63846   4.486   2.267  25.253 -0.0110  0.0638 -0.2000
20930W        W63847   3.251   2.203  25.929 -0.0383  0.0813  0.0933
20931W        W63848   5.440   3.088  26.850 -0.0607  0.1345 -0.1329
20932W        W63849   4.564  34.641  23.045  0.2789  0.0662  0.2512
20933W        W63850   8.278   0.738  22.787  0.2567 -0.0468 -0.5616
20934W        W63851   4.462   1.094  27.988  0.0401  0.0316  0.2104
20935W        W63852   7.778  34.263  24.150  0.0095  0.1809  0.1732
20936W        W63853   3.980   1.382  26.460  0.3548 -0.2956  0.1064
20937W        W63854   6.590   1.426  25.178  0.0055  0.0433 -0.0497
20938W        W63855   4.187   2.973  26.676 -0.0655  0.2082  0.1693
20939W        W63856   3.309   3.320  26.649  0.0198 -0.3307 -0.1638
20940W        W63857   5.621   0.025  23.321  0.1115  0.3520  0.1469
20941W        W63858   6.062   2.218  24.846  0.1581 -0.0281 -0.0460
20942W        W63859   5.924   0.824  23.768  0.5246 -0.2024 -0.1417
20943W        W63860   5.882   3.705  26.198  0.2951 -0.3432  0.0126
20944W        W63861   4.185   0.214  25.616  0.0888 -0.0544  0.2931
20945W        W63862   4.795  34.076  24.923  0.0818  0.0877 -0.1814
20946W        W63863   3.039   3.658  23.002 -0.1463 -0.0753  0.3334
20947W        W63864   4.180   1.159  27.523 -0.0467 -0.0682  0.2518
20948W        W63865   6.445   2.577  27.392 -0.2678 -0.0655 -0.2816
20949W        W63866   3.914   1.481  25.970  0.0413  0.3852 -0.0208
20950W        W63867   5.822   1.965  22.922  0.1935  0.3161  0.3186
20951W        W63868   5.946   1.617  24.800 -0.0543  0.0540  0.2801
20952W        W63869   6.032   3.034  25.464  0.1437 -0.1094  0.1751
20953W        W63870   5.686  34.568  25.372 -0.1214  0.0125 -0.1878
20954W        W63871   6.619   3.805  27.192  0.1307  0.0050  0.0706
20955W        W63872   3.916   1.023  27.056  0.2925  0.0258  0.1045
20956W        W63873   4.880   1.155  26.296  0.2504 -0.4560  0.4164
20957W        W63874   8.013   3.200  26.778 -0.0470 -0.2730 -0.0426
20958W        W63875   7.206  33.248  23.021 -0.4441 -0.0291  0.0925
20959W        W63876   5.908   0.159  26.888  0.2945 -0.1924  0.2046
20960W        W63877   2.870   2.439  25.189 -0.0503 -0.0818  0.1799
20961W        W63878   6.406   0.458  24.764  0.2256  0.3497 -0.0713
20962W        W63879   7.220   1.554  25.343  0.0717  0.0146 -0.0897
20963W        W63880   5.886   4.093  25.225  0.2294  0.3911  0.0300
20964W        W63881   9.170  33.992  28.586 -0.2248 -0.0677 -0.0974
20965W        W63882   4.989   3.163  27.136  0.3817  0.0179 -0.1080
20966W        W63883   3.276   3.697  27.136 -0.1885 -0.1021  0.2005
20967W        W63884   5.113   2.142  24.676 -0.1706 -0.3121 -0.1054
20968W        W63885   6.460   2.259  25.675  0.0914  0.1576  0.1631
20969W        W63886   5.042   1.801  26.500  0.0417 -0.1850 -0.0886
20970W        W63887   4.594   2.513  25.691  0.0598 -0.1933  0.2174
20971W        W63888   7.305   2.527  25.533 -0.2141  0.0007  0.0103
20972W        W63889   6.187   1.118  24.150  0.1741 -0.2412  0.1925
20973W        W63890   7.924   1.619  24.882 -0.0166 -0.0238  0.2813
20974W        W63891   4.150   0.665  27.881 -0.0039  0.1159 -0.2655
20975W        W63892   6.959   0.802  23.770  0.1959 -0.1150 -0.1423
20976W        W63893   5.350   0.744  22.514  0.0438 -0.1432 -0.2109
20977W        W63894   5.100   2.003  25.236  0.0137  0.2966 -0.0700
20978W        W63895   5.169   0.918  21.315 -0.0070  0.2117 -0.2138
20979W        W63896   1.865   2.489  24.375 -0.0720 -0.0002  0.1838
20980W        W63897   4.284   1.987  27.153  0.1939  0.1779  0.1218
20981W        W63898   4.872  34.397  28.232 -0.1855  0.0174 -0.1996
20982W        W63899   3.816   0.572  29.075 -0.1779  0.0636 -0.0131
20983W        W63900   4.698   1.765  26.922 -0.1647 -0.2026 -0.3608
20984W        W63901   5.302  33.739  24.865  0.1743 -0.1053  0.2581
20985W        W63902   5.716   4.039  25.829 -0.3251  0.0695 -0.2158
20986W        W63903   4.352  34.498  27.330 -0.1777 -0.2431 -0.0833
20987W        W63904   4.265   0.158  26.509  0.0816  0.1955 -0.1757
20988W        W63905   4.238   1.063  25.723 -0.0256 -0.0589  0.0413
20989W        W63906   6.624   3.097  25.374 -0.2333 -0.3911  0.1106
20990W        W63907   6.691  33.180  24.396  0.0475  0.1982  0.0892
20991W        W63908   6.842   3.239  28.510  0.0313 -0.0369 -0.0232
20992W        W63909   5.073   3.282  22.959 -0.0068 -0.0356  0.0070
20993W        W63910   6.488   1.868  26.482  0.0592  0.0848  0.0019
20994W        W63911   4.554  32.069  27.676  0.1767  0.3502  0.0232
20995W        W63912   4.181   0.682  24.464 -0.0866  0.2154  0.3076
20996W        W63913   5.422   0.594  26.004  0.5030  0.2904 -0.1003
20997W        W63914   4.681   3.840  25.461  0.1174  0.2520  0.2302
20998W        W63915   5.545   2.932  25.895 -0.0138 -0.0044 -0.1239
20999W        W63916   4.960   1.344  27.240 -0.1110 -0.0985  0.1105
21000W        W63917   4.986   3.410  29.928 -0.0634  0.2200 -0.0459
21001W        W63918   2.837   1.329  27.889 -0.0739 -0.0386 -0.3428
21002W        W63919   7.797   2.207  24.979 -0.1399 -0.1541  0.2606
21003W        W63920   5.856   1.698  27.140  0.2753 -0.1265  0.2945
21004W        W63921   5.183   1.291  24.152  0.1101  0.0878  0.0567
21005W        W63922   7.781   3.068  23.745  0.2175  0.1487 -0.4528
21006W        W63923   5.193  34.559  24.469  0.0468 -0.2825 -0.4212
21007W        W63924   6.491  33.951  27.630 -0.1437 -0.0903  0.3242
21008W        W63925   5.582   3.700  25.514 -0.0891  0.0285 -0.3213
21009W        W63926   6.015   2.619  26.096  0.0957 -0.1218  0.1480
21010W        W63927   4.952   0.409  25.969 -0.0577  0.1712 -0.1477
21011W        W63928   7.268  34.042  24.800  0.3891  0.0012 -0.0052
21012W        W63929   4.261   1.983  23.945 -0.0838  0.0395 -0.3464
21013W        W63930   3.766   0.962  28.110 -0.0216  0.1727  0.2563
21014W        W63931   5.591   0.958  23.419  0.1640  0.1655 -0.0340
21015W        W63932   5.830   0.665  26.968  0.0698 -0.3691  0.1330
21016W        W63933   5.558   2.693  25.474 -0.1413 -0.2766 -0.0202
21017W        W63934   5.767   1.467  25.540  0.0951 -0.1387 -0.2125
21018W        W63935   4.791   0.821  24.553  0.2468 -0.2514  0.0820
21019W        W63936   6.476   1.838  25.991  0.0505 -0.2149 -0.0781
21020W        W63937   6.934   2.214  28.771  0.1497  0.0030 -0.1229
21021W        W63938   5.394   3.087  28.101 -0.0224 -0.0215 -0.2574
21022W        W63939   4.276   3.269  25.121  0.2847 -0.0744  0.2126
21023W        W63940   4.164   1.889  24.412 -0.2973 -0.1403 -0.1257
21024W        W63941   2.180   1.402  27.102 -0.3924 -0.0514  0.2522
21025W        W63942   4.456   0.383  24.886 -0.1606  0.0363  0.2510
21026W        W63943   5.624   1.291  25.067  0.1109 -0.0034 -0.1969
21027W        W63944   6.972   0.649  24.692 -0.0679  0.0836  0.0032
21028W        W63945   4.950  34.082  25.774 -0.1462 -0.0915 -0.0310
21029W        W63946   6.901   0.566  22.517 -0.4062  0.2126 -0.3005
21030W        W63947   5.765   2.261  28.046 -0.0918  0.2709  0.2268
21031W        W63948   5.443   1.426  25.954  0.0289  0.4545 -0.2373
21032W        W63949   5.157   3.461  30.369 -0.2543 -0.2147 -0.1549
21033W        W63950   5.438   1.389  29.106 -0.0007  0.1160 -0.0475
21034W        W63951   7.328   1.607  26.335 -0.2153  0.0094 -0.1580
21035W        W63952   6.432   3.100  27.429 -0.0867  0.0580  0.2461
21036W        W63953   4.353   0.368  29.621  0.2023  0.1223  0.0525
21037W        W63954   8.480   3.529  29.386 -0.1482 -0.0258 -0.1404
21038W        W63955   5.656  32.895  30.765 -0.2258 -0.1452  0.0578
21039W        W63956   5.397   2.344  29.202  0.1047  0.0083  0.0205
21040W        W63957   6.814   3.560  30.322 -0.2336  0.2889  0.0660
21041W        W63958   3.878   1.608  29.183 -0.2717  0.3757  0.1446
21042W        W63959   7.324   0.445  27.655  0.1580  0.0565  0.0375
21043W        W63960   4.086   3.212  29.960 -0.4037 -0.3222  0.0244
21044W        W63961   5.594   1.470  28.137  0.2313 -0.0661  0.0940
21045W        W63962   4.111  34.383  30.092 -0.1624  0.0413  0.2265
21046W        W63963   8.250  34.525  27.736 -0.0122  0.2064  0.0015
21047W        W63964   2.189   1.260  29.012 -0.0893  0.1491 -0.3212
21048W        W63965   5.709   0.561  29.254 -0.0925  0.0623 -0.0886
21049W        W63966   7.831  34.180  28.399  0.0447  0.0125  0.0753
21050W        W63967   6.229   3.657  27.918  0.2036 -0.0625  0.1447
21051W        W63968   6.984   1.412   0.078  0.0713 -0.1776 -0.4383
21052W        W63969   6.761   0.955  29.329  0.0724 -0.2742 -0.0612
21053W        W63970   6.008   3.543  29.550 -0.2997  0.1089  0.1922
21054W        W63971   4.603   0.709  28.384  0.1079 -0.0336  0.1082
21055W        W63972   4.391   1.644  28.833  0.0389  0.0128  0.0392
21056W        W63973   5.474   1.906  29.934  0.4017  0.3690  0.0870
21057W        W63974   8.465   2.714  28.783 -0.1148  0.0721 -0.1164
21058W        W63975   6.417   2.235  28.842 -0.4270 -0.1173  0.2047
21059W        W63976   5.881   4.411  30.206  0.1926 -0.0167  0.4302
21060W        W63977   3.527   3.418  30.000  0.1733  0.1343 -0.4151
21061W        W63978   6.413  34.469  30.991  0.0221  0.1192  0.1395
21062W        W63979   4.764   0.901  28.928 -0.0527  0.1700  0.0050
21063W        W63980   2.796   4.660  29.607 -0.0924  0.0951 -0.1959
21064W        W63981   3.922   1.080  30.043  0.1168  0.1864  0.1077
21065W        W63982   6.040   2.142  28.531  0.1933 -0.1880 -0.1475
21066W        W63983   8.274   2.946  30.155  0.1869 -0.0965  0.1655
21067W        W63984   1.807   2.272  30.033  0.1543  0.0079 -0.1722
21068W        W63985   6.087   1.607  28.244 -0.0277 -0.1673  0.0457
21069W        W63986   6.117   3.521  30.243  0.1407 -0.1207  0.3257
21070W        W63987   4.459   1.744  31.303  0.0054 -0.0562  0.0629
21071W        W63988   7.603   0.715  28.749 -0.0672  0.0357 -0.0818
21072W        W63989   5.425   1.386  29.994  0.2024 -0.3014  0.0655
21073W        W63990   5.140   3.022  31.828  0.0521  0.2686  0.0082
21074W        W63991   6.715   1.910  29.266  0.0044 -0.1894  0.0842
21075W        W63992   6.480   1.408  30.565  0.2476  0.2744  0.2210
21076W        W63993   6.167   2.887  31.016  0.0877  0.1458 -0.0529
21077W        W63994   7.044  32.759  29.487 -0.0392  0.1085  0.0152
21078W        W63995   6.202   1.983  26.923  0.0842  0.2111 -0.1226
21079W        W63996   6.916   0.233  25.694  0.0260 -0.1315  0.1840
21080W        W63997   5.710   1.140  27.773 -0.1009 -0.1160 -0.0499
21081W        W63998   7.186   1.932  27.772 -0.0415 -0.3530 -0.2287
21082W        W63999   6.349  33.868  26.734 -0.0368  0.1756  0.2669
21083W        W64000   4.490   2.184  29.602  0.1626 -0.1313  0.0170
21084W        W64001   7.040  34.491  30.132  0.0900  0.2624  0.0555
21085W        W64002   7.346   3.549   0.581 -0.2018  0.2004  0.2431
21086W        W64003   4.888  33.287  29.134  0.0273 -0.2692  0.0057
21087W        W64004   5.602   1.024  30.800 -0.3364 -0.0073  0.0634
21088W        W64005   4.282   3.660  29.940 -0.2554  0.0882 -0.2990
21089W        W64006   4.806   0.484  29.299  0.0330 -0.0577 -0.1897
21090W        W64007   9.134   3.905  28.260  0.2889  0.3108 -0.1569
21091W        W64008   5.824   3.738  28.241  0.0061  0.1050 -0.3042
21092W        W64009   6.965   2.980  26.669 -0.2838  0.0112 -0.1499
21093W        W64010   5.229  34.188  28.554 -0.0259 -0.2574 -0.1355
21094W        W64011   5.370  33.508  29.744 -0.1862 -0.0842  0.0983
21095W        W64012   3.831   0.147  31.591  0.0588 -0.1019 -0.0094
21096W        W64013   5.792   0.318  27.430  0.3445 -0.0442 -0.0033
21097W        W64014   8.750   3.204  29.908 -0.3442  0.2570 -0.1020
21098W        W64015   4.367   2.251  31.387  0.0680  0.0417  0.0747
21099W        W64016   7.733   0.706  27.876 -0.2341  0.2850 -0.2418
21100W        W64017   5.767   1.031  29.373 -0.0304 -0.0181  0.0191
21101W        W64018   7.547   2.577  29.633 -0.0184 -0.2372  0.3162
21102W        W64019   5.970   1.613  26.632 -0.0964 -0.0978 -0.2303
21103W        W64020   7.624   1.137  28.428 -0.3894  0.2679  0.1645
21104W        W64021   6.794   0.149  29.072 -0.3935  0.2638  0.1680
21105W        W64022   4.549   2.382  28.327  0.0719  0.0613 -0.0911
21106W        W64023   5.539   1.905  29.114  0.6615  0.2953  0.3201
21107W        W64024   7.259   4.118  29.894  0.2609 -0.0123 -0.1092
21108W        W64025   8.504   1.132  28.904  0.3889  0.0815  0.1574
21109W        W64026   4.062   4.266  29.263 -0.0483 -0.0532  0.3038
21110W        W64027   5.472   2.188  30.368 -0.0116  0.0356 -0.1967
21111W        W64028   5.893   2.633  30.582 -0.0109 -0.3602  0.1535
21112W        W64029   2.771   3.574  27.425 -0.1018 -0.0539 -0.1337
21113W        W64030   3.495   1.908  29.121 -0.2939 -0.2256 -0.1125
21114W        W64031   2.456   2.298  29.379 -0.0699  0.1388 -0.1153
21115W        W64032   5.967  34.237  30.874 -0.2213  0.1595 -0.2148
21116W        W64033   5.168   2.978  30.017 -0.2165  0.0506  0.0527
21117W        W64034   7.090  34.321  27.058  0.1955  0.2559 -0.0256
21118W        W64035   5.790  34.205  29.653  0.2407 -0.1782  0.1643
21119W        W64036   8.832  33.880  29.488  0.3112 -0.2933  0.3302
21120W        W64037   5.044   1.868  27.408  0.0024 -0.1073 -0.0474
21121W        W64038   6.976   2.636  29.149 -0.1633  0.2666 -0.3199
21122W        W64039   6.559   2.859  26.943 -0.0128  0.0600 -0.3436
21123W        W64040   5.896   3.071  28.635 -0.1607 -0.0311  0.0630
21124W        W64041   6.218   2.510   0.368  0.0467 -0.0908 -0.1648
21125W        W64042   3.864  34.200  29.678 -0.0681 -0.1586 -0.3420
21126W        W64043   3.878  33.352  29.998 -0.1108  0.0440 -0.4346
21127W        W64044   7.959  33.030  30.273  0.0995 -0.0198  0.0005
21128W        W64045   7.878   1.586   0.495 -0.1809  0.2359 -0.1271
21129W        W64046   5.192  33.967  28.093  0.0556  0.1401 -0.0030
21130W        W64047   6.924  34.482  27.980 -0.0715 -0.3547 -0.1369
21131W        W64048   4.892   0.079  27.845  0.0870 -0.0819  0.2218
21132W        W64049   3.185   1.705  28.133  0.0447 -0.0212  0.1095
21133W        W64050   7.858   0.183  30.007 -0.2474 -0.2161  0.2022
21134W        W64051   4.280   2.805  28.157 -0.1298  0.3567 -0.1453
21135W        W64052   8.322   2.884  30.769 -0.0117  0.1632 -0.0384
21136W        W64053   5.896   1.110  30.250  0.1786 -0.0327 -0.0422
21137W        W64054   5.649  33.755  30.481  0.1465 -0.2793 -0.0277
21138W        W64055   3.373  34.480  29.675 -0.1838 -0.0131  0.2356
21139W        W64056   5.203   1.725   0.161  0.0830  0.2378 -0.4148
21140W        W64057   4.816   2.646  31.451 -0.1906 -0.2143 -0.0578
21141W        W64058   6.149   0.183  27.910  0.1513  0.1533 -0.3554
21142W        W64059   8.579   5.294  30.728 -0.0714  0.2542 -0.1080
21143W        W64060   6.394   0.590  27.716 -0.0786  0.0741  0.0309
21144W        W64061   2.607   1.045  28.876  0.2754 -0.0607  0.0112
21145W        W64062   6.891  33.887  31.702 -0.0031 -0.0495 -0.0013
21146W        W64063   6.256   0.898  30.583 -0.0620  0.2464  0.1548
21147W        W64064   6.566   0.718  29.699  0.0362 -0.0960  0.2676
21148W        W64065   3.570  32.124  27.643  0.1235  0.2018 -0.2541
21149W        W64066   4.412   2.782  29.509 -0.1073  0.0361 -0.0948
21150W        W64067   4.698   4.857  26.370 -0.0081 -0.1321  0.1342
21151W        W64068   4.510   1.938  30.772  0.2743  0.1470 -0.1012
21152W        W64069   5.820   1.822  27.820 -0.0272  0.0112  0.2791
21153W        W64070   8.046   1.515  28.857 -0.2490  0.2201 -0.0776
21154W        W64071   4.296   0.678  30.198  0.1211  0.1110 -0.2478
21155W        W64072   7.711   1.808  30.137  0.2332 -0.2236  0.1285
21156W        W64073   5.117   1.529  28.219 -0.1535 -0.0570 -0.1182
21157W        W64074   5.152   0.552  30.531 -0.1046 -0.1147  0.0040
21158W        W64075   6.503   0.848  28.334 -0.3005 -0.0268  0.1840
21159W        W64076   8.329  34.335  26.811  0.0222 -0.0596 -0.2345
21160W        W64077   5.876   2.689  29.472 -0.0771 -0.0127  0.3498
21161W        W64078   7.292   4.752  29.216  0.0191 -0.1513  0.3093
21162W        W64079   6.349   2.715  26.486  0.0561 -0.0730  0.1073
21163W        W64080   6.938   1.218  28.013  0.1789  0.2932 -0.3545
21164W        W64081   3.789   1.071  29.271 -0.0102 -0.0609 -0.0380
21165W        W64082   6.133   1.783  29.557  0.0584  0.3417  0.2420
21166W        W64083   6.312   1.325  31.585  0.3194  0.2273  0.0797
21167W        W64084   6.692   2.030  24.718  0.0559  0.1506  0.1036
21168W        W64085   8.514   3.833  30.027 -0.1471  0.2498  0.2191
21169W        W64086   4.619   4.498   0.697  0.0584  0.0103  0.0382
21170W        W64087   6.363   4.132  30.994  0.2754 -0.0978  0.0477
21171W        W64088   4.928   2.700  29.628 -0.0802  0.0909 -0.1057
21172W        W64089   7.313  33.544  27.910 -0.1779 -0.2211  0.0996
21173W        W64090   4.995   0.889  29.957  0.0083 -0.2941 -0.1297
21174W        W64091   7.066   0.622  28.390  0.0108  0.0172 -0.0299
21175W        W64092   4.196   2.596  28.635  0.2051  0.2461  0.1665
21176W        W64093   7.903   1.264  30.540  0.2106 -0.0498  0.1161
21177W        W64094   6.575  34.382  28.892 -0.1012  0.1709  0.3809
21178W        W64095   6.701  33.974  29.562 -0.2271  0.2553 -0.0299
21179W        W64096   6.933   0.783  31.603  0.1023 -0.1486  0.1894
21180W        W64097   7.360   0.941  28.098 -0.2208  0.0921  0.0175
21181W        W64098   7.167   2.310  30.410  0.0767 -0.1278 -0.1182
21182W        W64099   5.080   0.109  29.586 -0.3952  0.0017 -0.0186
21183W        W64100   5.993   0.012  30.571  0.3013  0.2484  0.0573
21184W        W64101   6.027   2.322  31.066 -0.0308 -0.2473  0.0075
21185W        W64102   5.575   3.259  31.431 -0.2896 -0.0789 -0.1352
21186W        W64103   6.596   2.868  29.448  0.1168  0.0721  0.1499
21187W        W64104   6.479   3.246  30.494  0.0830  0.1660 -0.2194
21188W        W64105   5.652   1.841  31.884 -0.3372 -0.2330  0.2694
21189W        W64106   6.158  32.950  29.401  0.1485  0.1120 -0.0403
21190W        W64107   5.023   2.041  29.065 -0.1080 -0.1879  0.1798
21191W        W64108   5.023   2.168  29.548  0.0027  0.2379  0.1799
21192W        W64109   6.661   0.011  30.555  0.1080  0.3024  0.0002
21193W        W64110   5.532   1.908  28.346  0.1116 -0.1024 -0.0272
21194W        W64111   3.583   4.422  29.249  0.2312  0.1110 -0.2806
21195W        W64112   6.815   1.285  31.452 -0.1462 -0.0956 -0.0585
21196W        W64113   3.582   4.396  27.851  0.3482  0.1488  0.0356
21197W        W64114   8.160   1.209  28.432  0.2594 -0.0322 -0.3192
21198W        W64115   3.219   5.047  31.620 -0.0701  0.1128  0.1007
21199W        W64116   4.836   0.973  29.482 -0.0299  0.2653 -0.0982
21200W        W64117   2.379   1.059  27.998 -0.0926 -0.4837  0.4908
21201W        W64118   8.809  34.127  30.301 -0.1227 -0.2439 -0.0692
21202W        W64119   7.890   2.742  27.857  0.0411  0.0511 -0.1298
21203W        W64120   7.053  33.260  30.607  0.0960 -0.0979  0.1523
21204W        W64121   8.218  33.532  29.987  0.2021 -0.0371  0.1917
21205W        W64122   3.686   2.852  29.839  0.3945  0.0058  0.1586
21206W        W64123   5.292   3.349  29.052  0.2121 -0.0210  0.2370
21207W        W64124   7.804   0.315  26.302 -0.2953 -0.1309 -0.1095
21208W        W64125   6.349   2.875  30.164  0.1578 -0.2069 -0.1372
21209W        W64126   4.385   3.681  31.253  0.0066  0.4159  0.0133
21210W        W64127   3.366  32.555  28.122 -0.2513  0.0789  0.0124
21211W        W64128   7.165   3.105  31.683  0.2575  0.2646 -0.0667
21212W        W64129   6.511   0.570  29.098  0.0806  0.1369 -0.2076
21213W        W64130   3.403   1.973  29.630  0.1053  0.1915 -0.1011
21214W        W64131   6.180   3.714  30.711 -0.2673 -0.0641  0.1546
21215W        W64132   4.534   2.170  28.849 -0.1296 -0.1108 -0.3411
21216W        W64133   5.727   3.169  29.383  0.1128  0.1085  0.0806
21217W        W64134   5.187  32.408  31.340  0.0261 -0.2520  0.1907
21218W        W64135   7.461   0.879  30.638 -0.3130  0.1366 -0.0289
21219W        W64136   3.648   0.639  29.981 -0.0854  0.0569  0.1594
21220W        W64137   5.068   0.109  30.721 -0.0036  0.2678  0.1857
21221W        W64138   7.158   1.587  29.339  0.0498  0.2233  0.3885
21222W        W64139   6.980   2.707  30.823  0.1286  0.0848 -0.0182
21223W        W64140   6.926   0.132  28.549 -0.0064  0.0496 -0.2083
21224W        W64141   5.732   2.104  29.495 -0.0919  0.2159 -0.0357
21225W        W64142   5.025   1.370  30.249 -0.1031 -0.2358  0.0218
21226W        W64143  10.057   4.094  29.185  0.1359 -0.0913 -0.0767
21227W        W64144   5.815   1.862  30.728 -0.0541  0.2227  0.0892
21228W        W64145   5.100   0.296  28.282  0.1488  0.2907  0.0340
21229W        W64146   3.701   1.760  30.035 -0.3461  0.2926  0.0088
21230W        W64147   6.382   1.686  27.824 -0.0530 -0.2294 -0.1484
21231W        W64148   5.326   0.984  30.337 -0.0447  0.1994 -0.1054
21232W        W64149   5.837   3.911  30.271 -0.1108  0.2471 -0.1194
21233W        W64150   3.981   1.991  28.785  0.2501 -0.2910  0.3420
21234W        W64151   3.645   2.296  30.039  0.6296  0.1314  0.0186
21235W        W64152   6.394   0.139  26.653 -0.0393 -0.4495 -0.2306
21236W        W64153   6.815   1.766  28.115  0.0598 -0.0780 -0.1399
21237W        W64154   6.020   1.216  29.758 -0.2978 -0.2799 -0.0987
21238W        W64155   7.714  34.632  29.584  0.0459 -0.0846  0.1310
21239W        W64156   7.993   3.145  27.267  0.1076 -0.0415 -0.0052
21240W        W64157   7.351   1.715   0.022  0.2723  0.1657 -0.1789
21241W        W64158   3.079   2.088   0.958 -0.0360  0.2649 -0.1884
21242W        W64159   6.645   1.631  31.200  0.1657 -0.3833  0.2144
21243W        W64160   4.867   1.126  31.677  0.0138  0.2457  0.4746
21244W        W64161   5.301   4.596  30.221  0.1795  0.1170 -0.0827
21245W        W64162   5.745   1.363  31.648 -0.0722  0.0322  0.0947
21246W        W64163   5.762  33.909  28.535 -0.0385  0.1848  0.1424
21247W        W64164   3.333  34.273  28.369 -0.1663 -0.2812  0.3471
21248W        W64165   6.028   1.964   0.288 -0.1303 -0.2877  0.2690
21249W        W64166   5.536   1.958  31.142  0.5145 -0.1979  0.0794
21250W        W64167   4.789   1.827  28.556 -0.0740 -0.2810 -0.1205
21251W        W64168   6.227   1.130  28.627  0.1172 -0.0364 -0.2122
21252W        W64169   6.242   3.929  29.757  0.2156  0.1153 -0.3033
21253W        W64170   5.080   2.643  28.853 -0.2444 -0.1087  0.0439
21254W        W64171   6.094   1.193  25.170 -0.1172  0.0294  0.1232
21255W        W64172   4.515   1.275  30.193  0.0755  0.1217  0.0939
21256W        W64173   4.543   0.087  28.812  0.4665 -0.0888  0.1923
21257W        W64174   6.961   1.265  30.283 -0.0895  0.2624  0.0367
21258W        W64175   6.501   1.429  29.399  0.1076  0.0374  0.3494
21259W        W64176   4.869   1.840  29.921 -0.2383  0.1156 -0.0012
21260W        W64177   6.944   0.546  28.894  0.1201 -0.3209  0.2001
21261W        W64178   6.225   1.898  30.536  0.0233  0.0353  0.0347
21262W        W64179   4.679   0.537  31.842 -0.2045  0.4311  0.1790
21263W        W64180   7.106   5.588  31.943 -0.0547 -0.2304  0.1217
21264W        W64181   6.916   1.382  26.050 -0.0632  0.0685  0.1331
21265W        W64182   7.852  33.832  29.808 -0.3157  0.1685 -0.0908
21266W        W64183   8.783   1.796  27.969 -0.1535  0.2605 -0.1016
21267W        W64184   6.075   1.172  27.076  0.3476 -0.2401 -0.0100
21268W        W64185   4.697   0.476  30.428  0.3488 -0.1233  0.2019
21269W        W64186   7.471   2.991   0.622 -0.1047 -0.3500 -0.1687
21270W        W64187   5.330  34.524  28.131  0.0745  0.2331  0.2192
21271W        W64188   7.221   1.071  29.077  0.4759  0.0013 -0.3191
21272W        W64189   6.208   2.560  28.158  0.1895 -0.0851 -0.1716
21273W        W64190   7.325   1.946  28.979 -0.0577 -0.0945 -0.1215
21274W        W64191   7.329   1.642  26.843  0.2438  0.2574  0.1437
21275W        W64192   5.973   0.719  30.980 -0.0292 -0.0010 -0.0172
21276W        W64193   4.553   5.192  30.913  0.3750  0.0353 -0.2905
21277W        W64194   5.669  34.425  28.494 -0.0049  0.0467  0.2690
21278W        W64195   4.525   1.542  27.345  0.0208 -0.1620  0.0029
21279W        W64196   5.518   4.151  29.124  0.1401  0.0489  0.1825
21280W        W64197   7.201   1.028   0.630  0.1211  0.0333 -0.2049
21281W        W64198   4.849  32.838  29.334  0.6111 -0.0225 -0.0768
21282W        W64199   7.941   0.726  30.294 -0.1894  0.0237  0.0906
21283W        W64200   4.729   1.932  28.099 -0.0636  0.1390  0.1280
21284W        W64201   8.498   2.160  26.992  0.0291  0.1478  0.2249
21285W        W64202   5.072   3.517  31.568 -0.0312 -0.1396  0.2052
21286W        W64203   4.509   1.782  30.329  0.0957 -0.0206 -0.0283
21287W        W64204   5.234   3.100  30.907 -0.0813 -0.3318  0.3780
21288W        W64205   6.956   0.468  30.569 -0.2527  0.2322 -0.0003
21289W        W64206   5.720   0.951  28.826 -0.4720  0.0619 -0.0121
21290W        W64207   7.163   0.802  29.836  0.0986 -0.1117  0.0865
21291W        W64208   6.371   2.220   0.023 -0.0683  0.0218 -0.0967
21292W        W64209   6.134   0.410  31.411 -0.1368 -0.1101  0.1249
21293W        W64210   6.388   0.454  30.343  0.3652  0.1346  0.1440
21294W        W64211   6.488   1.226  31.024  0.1433 -0.1888 -0.2034
21295W        W64212   6.920   2.707  28.235  0.0523  0.3450  0.1080
21296W        W64213   5.935   4.135  30.682 -0.4247  0.1172  0.3604
21297W        W64214   3.569   2.147  30.534 -0.2001  0.0488 -0.1632
21298W        W64215   3.835   1.813  30.960 -0.0557  0.1642  0.1589
21299W        W64216   7.679   1.734  29.287  0.0277  0.1342 -0.3396
21300W        W64217   6.131   0.550  29.452  0.0214  0.0723  0.2168
21301W        W64218   5.952   2.079  29.970  0.0126  0.0886  0.0532
21302W        W64219   4.201   5.126  30.533 -0.0195 -0.3120  0.1545
21303W        W64220   5.493   3.803  31.421  0.2427  0.2255 -0.0596
21304W        W64221   4.193   2.546  29.172  0.1534  0.1485  0.0716
21305W        W64222   6.929   1.679  28.735 -0.3277 -0.0860 -0.2333
21306W        W64223   6.858   1.468  27.623  0.3480  0.3371  0.0307
21307W        W64224   4.742   3.528  29.091 -0.1912 -0.1693 -0.0354
21308W        W64225   5.549  33.133  28.777 -0.1045 -0.0246  0.0183
21309W        W64226   4.689   3.605  30.250 -0.1859 -0.4583 -0.0845
21310W        W64227   4.769   2.470  29.233  0.0440  0.2718 -0.0285
21311W        W64228   7.025   2.335  27.920 -0.0745 -0.2674 -0.1939
21312W        W64229   4.305   3.753  28.552  0.2996 -0.1544 -0.2601
21313W        W64230   7.512   2.717  30.568  0.2374 -0.0963 -0.1258
21314W        W64231   6.069  34.351  26.753 -0.0154  0.1213 -0.0805
21315W        W64232   8.656   2.282  30.886 -0.0502 -0.0232 -0.3304
21316W        W64233   9.024   0.151  26.202 -0.2361 -0.1083  0.3077
21317W        W64234   4.355   4.273  29.673 -0.2717 -0.0207  0.0958
21318W        W64235   3.274   1.938  30.093  0.0148 -0.1172  0.1429
21319W        W64236   6.744   0.695  27.338 -0.1209  0.4041 -0.1101
21320W        W64237   6.841   1.233  29.757 -0.1762  0.3168 -0.0127
21321W        W64238   8.395   2.089  31.896 -0.0035  0.0552  0.0582
21322W        W64239   2.798   6.363  30.866  0.2547  0.0875  0.0829
21323W        W64240   7.608   3.407  28.560  0.1489  0.1122 -0.1391
21324W        W64241   5.324   0.270  29.139 -0.1280 -0.3539  0.0712
21325W        W64242   3.177   1.009  28.277 -0.3354 -0.3671 -0.4295
21326W        W64243  10.364  32.894  28.915  0.1971 -0.2807  0.1721
21327W        W64244   7.108   0.949  26.823  0.1292  0.1382  0.0747
21328W        W64245   5.814   0.673  30.393  0.1297  0.1193 -0.2232
21329W        W64246   5.999   4.139  29.365 -0.1948  0.0829  0.1888
21330W        W64247   5.695   3.513  30.021  0.1180 -0.1610  0.0158
21331W        W64248   4.203   3.753  29.077 -0.0414  0.0351  0.4877
21332W        W64249   4.565  33.837  29.550  0.3067  0.2055  0.0522
21333W        W64250   8.004   2.672  30.387  0.2419  0.0870  0.0541
21334W        W64251   5.465   1.491  30.468 -0.1961  0.1571 -0.2071
21335W        W64252   6.403   0.308  30.897 -0.2092 -0.2325  0.2012
21336W        W64253   4.095   1.011  30.481  0.2912  0.4052  0.1038
21337W        W64254   7.078   1.155  28.477  0.2006 -0.2250 -0.2918
21338W        W64255   5.025   2.063   0.681  0.1659 -0.1244 -0.2652
21339W        W64256   7.127  34.625  30.599 -0.2264 -0.0396  0.0149
21340W        W64257   6.229   0.977  26.592 -0.0337 -0.1468 -0.1897
21341W        W64258   6.539   0.353  28.145 -0.5824  0.0442 -0.2453
21342W        W64259   6.156   1.165  27.986 -0.3514  0.3346 -0.1223
21343W        W64260   6.350   3.388  31.750 -0.0168 -0.3806 -0.0502
21344W        W64261   5.841  33.687  30.929 -0.0809  0.0240 -0.3285
21345W        W64262   6.497   1.097  27.538 -0.1405  0.2065 -0.2239
21346W        W64263   5.284   1.194  29.597 -0.0316 -0.0970  0.0333
21347W        W64264   4.453   2.017  27.658 -0.0872  0.5234  0.0554
21348W        W64265   7.578   3.916  31.193 -0.0539 -0.3739  0.1447
21349W        W64266   5.174   1.641  30.812 -0.0774 -0.4219  0.0115
21350W        W64267   6.990   2.398  26.513  0.2714 -0.0218 -0.0028
21351W        W64268   8.892   1.241  27.933 -0.1944 -0.1285  0.1658
21352W        W64269   6.335   2.543  29.760  0.0371 -0.1736 -0.1181
21353W        W64270   8.826   2.638  29.071 -0.0904  0.1725  0.1088
21354W        W64271   7.542   3.992  29.536 -0.1348 -0.0092  0.1389
21355W        W64272   3.128   1.296  31.467  0.0454 -0.1728 -0.1092
21356W        W64273   8.655   3.921   0.179 -0.0188  0.0462 -0.0789
21357W        W64274   7.152   3.673  28.898  0.0978  0.1231 -0.0854
21358W        W64275   7.457  34.302  29.211  0.1463 -0.2903 -0.0691
21359W        W64276   3.850  34.464  29.245  0.3207 -0.4174  0.0426
21360W        W64277   4.662   2.992  25.910 -0.1525 -0.2929 -0.2239
21361W        W64278   5.389   2.996  28.608  0.2672 -0.1424  0.1936
21362W        W64279   7.933   1.758  30.684  0.0091 -0.2496 -0.0972
21363W        W64280   4.710   3.616  24.340  0.3383 -0.3200  0.1969
21364W        W64281   6.782   1.018  30.741 -0.2230 -0.0361 -0.0074
21365W        W64282   7.498   3.418  29.216  0.1476 -0.0724  0.2749
21366W        W64283   3.154   3.649  29.717 -0.0212  0.0945  0.0844
21367W        W64284   5.155   1.136  27.707  0.3275  0.0764 -0.3288
21368W        W64285   5.212   1.714  29.469  0.1616 -0.1038 -0.2907
21369W        W64286   5.869   1.620  30.182  0.4425 -0.3253 -0.2669
21370W        W64287   4.658   3.502  27.268  0.0743 -0.0410  0.1142
21371W        W64288   8.915   3.422  31.282 -0.1007  0.2991  0.1461
21372W        W64289   6.555  34.525  28.382 -0.1575  0.0760  0.2500
21373W        W64290   8.017   3.965  29.776 -0.0134 -0.2056  0.0049
21374W        W64291   6.475   0.401  28.594  0.1090  0.0023 -0.1673
21375W        W64292   9.411   1.129  28.522  0.0515 -0.1073  0.1304
21376W        W64293   7.803   0.296  26.833  0.2724 -0.2376  0.0675
21377W        W64294   5.224   4.555  29.283  0.1095  0.1599  0.1678
21378W        W64295   3.739   1.664  27.919 -0.0197 -0.1331  0.1699
21379W        W64296   4.328   1.092  28.917  0.0734 -0.0711 -0.0804
21380W        W64297   4.750   2.176  31.747 -0.2812 -0.2294 -0.3074
21381W        W64298   6.004   1.114  31.216 -0.2075  0.2395 -0.0687
21382W        W64299   4.076   1.480  30.292 -0.1526  0.0857 -0.0154
21383W        W64300   3.158   2.731  29.702  0.0138 -0.0518 -0.2171
21384W        W64301   3.989   1.517  28.561  0.2443 -0.2349  0.2772
21385W        W64302   8.002   1.144  27.933 -0.0243 -0.3522 -0.0306
21386W        W64303   4.829   0.941  30.424 -0.2527 -0.0847  0.2122
21387W        W64304   5.217   0.431  30.042  0.2386  0.0167  0.0282
21388W        W64305   6.002   1.435  29.144  0.1301  0.0217  0.2350
21389W        W64306   6.461   3.521  28.302 -0.0452  0.4325 -0.2550
21390W        W64307   5.074  34.542  29.132 -0.1728  0.3227 -0.0296
21391W        W64308   9.392   3.674  30.762 -0.0506 -0.1130 -0.0080
21392W        W64309   3.365   3.876  27.666  0.0346  0.3363 -0.1087
21393W        W64310   5.029   2.665  30.833  0.0683 -0.0251  0.1722
21394W        W64311   6.918  33.182  30.151  0.4225 -0.0759 -0.1489
21395W        W64312   5.057  32.966  28.400  0.1199  0.5715 -0.1521
21396W        W64313   7.624   3.083  31.458 -0.2229 -0.1215 -0.1968
21397W        W64314   6.553   2.131  29.956 -0.1973 -0.3282 -0.2560
21398W        W64315   8.591   3.315  28.281 -0.3665  0.3403 -0.0005
21399W        W64316   6.359   2.019   0.622 -0.0986 -0.1168 -0.2726
21400W        W64317   4.290   3.253   0.008 -0.0063 -0.0831 -0.1256
21401W        W64318   3.553  33.821  31.935 -0.4046 -0.0920 -0.1140
21402W        W64319   4.844   3.003  29.062 -0.1427 -0.1973  0.1749
21403W        W64320   5.325   2.521  31.728 -0.1575 -0.2536  0.3687
21404W        W64321   9.159   1.541  28.279  0.0566  0.3349  0.1206
21405W        W64322   7.318   0.625   0.242 -0.0458  0.1993  0.0518
21406W        W64323   6.538   1.372  28.264 -0.2151 -0.1998  0.0572
21407W        W64324   6.403  32.318   0.311  0.1606  0.2865 -0.0481
21408W        W64325   4.053   3.045  28.523 -0.1324  0.4244  0.4395
21409W        W64326   7.655   2.406  30.111  0.1565  0.1277 -0.0858
21410W        W64327   5.710  33.240  31.140 -0.0298 -0.0661  0.2494
21411W        W64328   7.880   1.113  27.158  0.2984 -0.0227 -0.3079
21412W        W64329   5.267   2.641  27.858 -0.0129 -0.1587 -0.2029
21413W        W64330   4.131   0.569  28.361 -0.0701  0.1189  0.0424
21414W        W64331   6.453   1.822  28.516 -0.0139 -0.2726  0.1555
21415W        W64332   5.774   1.569  28.714 -0.1826  0.1012  0.0036
21416W        W64333   6.218   2.304  29.329 -0.2998  0.0063 -0.2182
21417W        W64334   6.835   3.356  31.368 -0.0505  0.3124 -0.0157
21418W        W64335   6.605   2.310  28.404 -0.0745 -0.2368 -0.2215
21419W        W64336   7.655   2.311  29.188 -0.0661 -0.3409  0.1431
21420W        W64337   4.852   4.522  30.342  0.2767 -0.0429  0.0153
21421W        W64338   5.545   4.049  30.931 -0.1382 -0.0680 -0.2401
21422W        W64339   4.052   3.848  29.569 -0.0465  0.1694 -0.1442
21423W        W64340   6.024   0.875  31.736 -0.1425 -0.3826 -0.0475
21424W        W64341   4.689  33.191  30.494 -0.0517 -0.1438  0.2290
21425W        W64342   4.524   0.240  28.265 -0.2316 -0.1110 -0.1148
21426W        W64343   5.526   3.089  30.409 -0.2100  0.1073  0.1040
21427W        W64344   6.519   2.747  30.623 -0.0076 -0.2797  0.3527
21428W        W64345   4.351  34.262  29.536  0.0844  0.1011 -0.3355
21429W        W64346   5.246   0.934  29.128 -0.4589  0.0262 -0.2608
21430W        W64347   2.468   4.741  29.091 -0.0752 -0.0158 -0.2127
21431W        W64348   8.394   1.115  30.218 -0.1335  0.3945  0.1303
21432W        W64349   7.951  33.745  30.839 -0.2098 -0.1069  0.1553
21433W        W64350   5.378   1.021  31.328 -0.1086 -0.2148  0.3243
21434W        W64351   2.932   2.470   0.040  0.0089  0.0742 -0.4163
21435W        W64352   3.760   4.346  29.729 -0.6037 -0.0036 -0.0289
21436W        W64353   5.579   4.121   0.573  0.0842 -0.0681 -0.1739
21437W        W64354   4.517   3.308   0.602  0.0838  0.2315 -0.1236
21438W        W64355   6.511   1.009   0.008 -0.1563 -0.0453 -0.1746
21439W        W64356   6.611  34.148  30.253 -0.1175  0.2266 -0.1842
21440W        W64357   6.743   1.360   1.286 -0.0213 -0.0287 -0.0716
21441W        W64358   5.410   2.267  28.730 -0.1812 -0.0321 -0.0106
21442W        W64359   2.728   3.690  29.419 -0.0217 -0.1633 -0.0928
21443W        W64360   6.619  33.004  30.573 -0.2662 -0.1055  0.0315
21444W        W64361   6.695   3.607  30.827 -0.1262 -0.0648  0.0578
21445W        W64362   5.819   2.299  31.911  0.0043  0.0819 -0.0788
21446W        W64363   8.072   3.279  31.658 -0.3645  0.1755 -0.3581
21447W        W64364   2.449   4.202  30.579 -0.0901  0.0896  0.1808
21448W        W64365   7.137   2.608   0.402  0.3478  0.0135 -0.2557
21449W        W64366   6.265   2.353  30.338  0.0017  0.1211  0.1338
21450W        W64367   3.653  33.112  31.425  0.2234  0.5819  0.1005
21451W        W64368   3.054   0.510  31.093 -0.2047 -0.0623  0.0125
21452W        W64369   4.507  32.645   0.269 -0.2493  0.1149 -0.0051
21453W        W64370   5.719   1.209   1.275  0.1134 -0.1227 -0.2437
21454W        W64371   8.301   0.507  30.014  0.2299 -0.1677 -0.0618
21455W        W64372   6.423   1.600  29.906 -0.0235  0.1435 -0.0171
21456W        W64373   6.822   0.088  31.050 -0.1208  0.1621  0.2527
21457W        W64374   7.463  34.030  29.990 -0.0041  0.3161 -0.1347
21458W        W64375   6.893  34.255   0.039 -0.3836  0.1117  0.1514
21459W        W64376   2.278   4.751  29.587  0.1947  0.0114 -0.0953
21460W        W64377   4.065   0.064  31.114 -0.0049  0.1681  0.1932
21461W        W64378   3.846  34.312  30.916  0.1664  0.2484 -0.1341
21462W        W64379   5.204   2.031  31.707 -0.0839  0.2061  0.3464
21463W        W64380   5.110   1.839  30.358  0.2472  0.0166  0.0026
21464W        W64381   6.096   1.616  31.136  0.0114 -0.2819 -0.0542
21465W        W64382   7.649  34.221  30.582 -0.0061 -0.2820 -0.0215
21466W        W64383   4.147  33.402  31.389  0.2724 -0.1961 -0.0014
21467W        W64384   6.447   1.662   0.266  0.0784 -0.0615 -0.1759
21468W        W64385   9.428   1.881  31.588 -0.0066 -0.0193  0.1439
21469W        W64386   7.113   3.249  30.743 -0.2905 -0.2351  0.0150
21470W        W64387   5.871   2.053  31.516 -0.0872 -0.0549 -0.0656
21471W        W64388   6.071   1.544   0.554  0.0458  0.0110 -0.1920
21472W        W64389   7.744   2.081  31.085  0.0858  0.0730  0.0138
21473W        W64390   6.683   1.065   0.914 -0.0612 -0.2098 -0.1746
21474W        W64391   4.912   0.002   1.066  0.3362 -0.5473 -0.0210
21475W        W64392   5.272   2.678  30.389 -0.1693  0.1301 -0.1117
21476W        W64393   4.936   0.115  31.757  0.0015 -0.1391  0.1131
21477W        W64394   7.347   2.092   0.447  0.0583 -0.1119 -0.0172
21478W        W64395   7.985   1.240  31.553  0.2394  0.0093  0.0584
21479W        W64396   6.597   4.837  30.842  0.0108 -0.2971  0.2878
21480W        W64397   7.316   2.788  30.119  0.2595  0.1723 -0.1391
21481W        W64398   3.704   3.760  30.873  0.0465 -0.0626  0.4170
21482W        W64399   6.849   2.342   0.836  0.0259 -0.1102 -0.0228
21483W        W64400   6.718  34.603  31.578  0.1077 -0.2813  0.2480
21484W        W64401   7.200  34.292  31.533 -0.3888  0.0255 -0.0303
21485W        W64402   5.743   4.881  29.996  0.2230 -0.0502  0.1985
21486W        W64403   6.852   0.021   0.765  0.3736  0.1893  0.1048
21487W        W64404   6.461   1.134  30.138  0.1111 -0.0797  0.2466
21488W        W64405   9.003   2.384  30.363  0.0860  0.2197 -0.5915
21489W        W64406   4.712   2.693  30.361  0.3089  0.1811 -0.1749
21490W        W64407   4.483   4.835   1.079 -0.0590 -0.1866 -0.3017
21491W        W64408   4.591   2.318  30.058 -0.2974 -0.3835 -0.0704
21492W        W64409   3.301   0.763  30.772 -0.1596 -0.2187  0.1683
21493W        W64410   5.847   0.712   1.323 -0.1033  0.1068  0.2521
21494W        W64411   5.575   1.432  31.020 -0.0606  0.0280 -0.4299
21495W        W64412   5.014   0.217   1.499 -0.0748 -0.3156  0.0551
21496W        W64413   5.737   2.642  31.332 -0.0751  0.4355  0.0571
21497W        W64414   7.532   2.170  31.925  0.0481 -0.0572  0.4021
21498W        W64415   7.043   1.485   0.933 -0.2765  0.0086  0.0813
21499W        W64416   4.046   6.914  17.429 -0.1077  0.0964  0.1331
21500W        W64417   5.289   5.460  17.517  0.1495  0.0050 -0.1587
21501W        W64418   7.989   1.455  15.324  0.0411  0.0817 -0.2002
21502W        W64419   7.186   6.402  18.262 -0.0793  0.0276 -0.1509
21503W        W64420   4.230   5.091  16.424  0.0671 -0.0342 -0.0905
21504W        W64421   7.139   5.180  16.390  0.1083 -0.0985  0.0232
21505W        W64422   4.230   3.245  20.542  0.0629 -0.1393  0.1041
21506W        W64423   5.411   7.919  18.990  0.0761 -0.0144 -0.0494
21507W        W64424   6.852   7.019  19.522 -0.1811  0.1962 -0.0762
21508W        W64425   6.567   6.863  16.856  0.1225  0.0092 -0.0599
21509W        W64426   5.719   4.025  18.630 -0.2236 -0.1075  0.1116
21510W        W64427   4.880   6.392  19.346 -0.0282 -0.0272 -0.3590
21511W        W64428   3.927   5.433  18.676  0.1538 -0.4108  0.1057
21512W        W64429   3.685   4.310  17.207 -0.0257 -0.1830 -0.0148
21513W        W64430   4.474   6.277  17.636 -0.1097 -0.1592  0.2770
21514W        W64431   4.156   5.899  17.791 -0.0122  0.1609  0.1474
21515W        W64432   6.049   3.232  18.300 -0.0787 -0.2292  0.1402
21516W        W64433   3.249   5.921  17.494 -0.0537  0.0867  0.0278
21517W        W64434   6.701   7.063  18.039 -0.0438  0.0279  0.2279
21518W        W64435   6.550   3.112  20.819 -0.3207 -0.0845  0.0993
21519W        W64436   5.628   4.411  20.861  0.1271  0.2204  0.0060
21520W        W64437   6.530   7.389  15.676  0.1930  0.1905  0.1219
21521W        W64438   2.662   5.078  18.617  0.4844 -0.2868  0.0613
21522W        W64439   3.941   5.428  17.699 -0.0343 -0.1885  0.2931
21523W        W64440   3.371   5.400  18.600  0.1142 -0.0528 -0.1787
21524W        W64441   6.213   3.637  18.695  0.1308  0.0051 -0.1737
21525W        W64442   7.704   5.484  16.892 -0.0717 -0.1612 -0.0032
21526W        W64443   7.028   6.268  20.014  0.0919  0.0871  0.0015
21527W        W64444   5.919   7.374  16.435  0.2599  0.1661 -0.4767
21528W        W64445   6.334   5.197  18.848  0.1321  0.2292  0.1666
21529W        W64446   1.767   6.466  18.310 -0.0720  0.1960  0.0275
21530W        W64447   0.732   8.016  18.161  0.1419  0.2061  0.0095
21531W        W64448   5.404   7.686  17.392 -0.0453 -0.0481  0.2035
21532W        W64449   7.214   6.171  17.086 -0.0814  0.0502 -0.1419
21533W        W64450   5.857   7.121  20.152 -0.4631  0.2503  0.0930
21534W        W64451   5.198   8.507  16.720  0.2176  0.0012 -0.2427
21535W        W64452   2.375   7.428  17.265 -0.1128 -0.1009 -0.1649
21536W        W64453   4.718   5.631  19.945 -0.0194 -0.0277 -0.0965
21537W        W64454   4.376   7.486  19.539 -0.2521  0.3039  0.0339
21538W        W64455   6.440   4.601  18.439 -0.1574 -0.0731 -0.0867
21539W        W64456   5.259   6.792  17.642 -0.1185  0.1468  0.0546
21540W        W64457   3.514   6.462  16.937 -0.2409 -0.1656  0.1104
21541W        W64458   5.889   5.593  19.100 -0.0644  0.4026 -0.0275
21542W        W64459   6.617   6.463  19.784 -0.0855  0.4503 -0.2698
21543W        W64460   4.426   7.087  18.135  0.3157  0.1074  0.2033
21544W        W64461   6.661   4.141  19.441 -0.1979 -0.0087  0.3253
21545W        W64462   4.964   7.769  17.157 -0.0919  0.0893  0.0414
21546W        W64463   7.867   6.870  15.932 -0.0199  0.1193 -0.0068
21547W        W64464   5.850   4.875  16.148 -0.1344  0.2762  0.2871
21548W        W64465   7.589   5.867  16.496  0.0193  0.1377 -0.1896
21549W        W64466   4.394   4.397  17.943  0.0468  0.2085 -0.0951
21550W        W64467   6.579   8.225  18.003  0.4387  0.0106  0.0048
21551W        W64468   5.174   3.895  17.941 -0.1227  0.1442  0.1283
21552W        W64469   4.750   6.887  18.511  0.0875 -0.3231  0.1732
21553W        W64470   6.320   6.051  16.344  0.0470  0.4695 -0.2008
21554W        W64471   4.731   5.542  16.167  0.0972 -0.1839  0.1684
21555W        W64472   3.793   6.928  19.792 -0.1010 -0.0842  0.3137
21556W        W64473   4.953   5.938  19.566  0.2938  0.0977  0.0534
21557W        W64474   6.777   6.989  15.845 -0.0129 -0.1775  0.2091
21558W        W64475   5.590   5.965  19.446 -0.1209 -0.1185 -0.0686
21559W        W64476   7.227   7.247  17.012  0.1383  0.0160  0.0202
21560W        W64477   5.498   4.982  17.832 -0.0582 -0.2869  0.1460
21561W        W64478   3.654   8.041  21.433  0.0405 -0.0655  0.1970
21562W        W64479   5.053   4.426  21.092  0.3010 -0.2438 -0.1573
21563W        W64480   5.111   3.720  16.440 -0.0970 -0.0383  0.1451
21564W        W64481   4.656   6.440  19.816  0.3563 -0.0748  0.1319
21565W        W64482   2.488   6.936  20.279  0.0068  0.0098  0.1993
21566W        W64483   6.778   5.771  17.717  0.7195  0.2753  0.3230
21567W        W64484   5.081   6.549  18.898  0.3827  0.2625  0.2098
21568W        W64485   5.968   5.638  18.205 -0.0754 -0.3167  0.0101
21569W        W64486   6.462   6.114  15.887 -0.0966 -0.1293 -0.1251
21570W        W64487   6.893   4.872  17.204 -0.1619  0.1055  0.3960
21571W        W64488   5.035   1.974  17.362 -0.1494 -0.3793 -0.0999
21572W        W64489   5.908   4.215  16.689  0.2177 -0.2300 -0.1508
21573W        W64490   5.408   6.331  18.039 -0.0468  0.0623 -0.1186
21574W        W64491   4.310   5.700  20.316  0.1654  0.0973 -0.2054
21575W        W64492   8.064   4.807  16.309  0.0611  0.0576 -0.1342
21576W        W64493   7.420   7.943  17.970 -0.0991 -0.0171  0.1288
21577W        W64494   2.996   7.349  20.444 -0.0427  0.0950 -0.1957
21578W        W64495   7.125   5.145  19.326 -0.2099  0.2288 -0.2961
21579W        W64496   4.230   7.129  16.804 -0.0435 -0.2976  0.0023
21580W        W64497   4.769   6.110  18.874  0.0429  0.0097 -0.0889
21581W        W64498   2.921   7.060  16.484 -0.0222 -0.3897 -0.0960
21582W        W64499   6.002   4.889  17.133 -0.0746  0.0516  0.1862
21583W        W64500   4.842   6.924  17.899  0.3441 -0.1189  0.1248
21584W        W64501   5.982   3.896  16.073 -0.1321 -0.0632 -0.0354
21585W        W64502   5.551   6.509  18.610 -0.1103  0.3277  0.1106
21586W        W64503   8.462   4.365  17.931 -0.1981 -0.0790  0.0784
21587W        W64504   3.977   5.662  16.931  0.0682 -0.2714 -0.2416
21588W        W64505   7.058   6.606  16.791 -0.1058  0.1318  0.1074
21589W        W64506   8.133   4.265  15.980 -0.1805 -0.0343  0.2165
21590W        W64507   6.805   6.803  16.342  0.1922  0.0525  0.1671
21591W        W64508   3.907   6.636  19.318  0.3031  0.0378  0.0392
21592W        W64509   4.744   4.158  17.637  0.3851  0.1865  0.0727
21593W        W64510   5.308   5.678  19.918  0.0201  0.0458  0.0313
21594W        W64511   2.251   5.693  18.918  0.0904  0.0195 -0.1875
21595W        W64512   6.441   4.654  17.515  0.2194 -0.2061  0.0034
21596W        W64513   3.720   4.491  16.725 -0.2312 -0.1780  0.1471
21597W        W64514   5.338   5.780  16.291  0.2841 -0.0668  0.1297
21598W        W64515   6.153   5.649  17.715  0.0858  0.5493  0.0226
21599W        W64516   4.882   6.425  15.675  0.1387 -0.0766 -0.1067
21600W        W64517   8.067   4.847  17.455 -0.2677  0.3048 -0.1656
21601W        W64518   6.263   7.331  18.162  0.0761  0.1337  0.3553
21602W        W64519   6.310   7.890  20.364 -0.0041  0.0123 -0.1733
21603W        W64520   9.461   5.424  20.638 -0.2029 -0.0523 -0.0515
21604W        W64521   6.550   4.444  19.014 -0.1769  0.0883  0.1568
21605W        W64522   4.259   4.257  16.004 -0.2038 -0.1725 -0.2901
21606W        W64523   4.032   8.403  19.180  0.1855 -0.1146 -0.1377
21607W        W64524   4.760   5.915  17.080  0.3079  0.0180 -0.2959
21608W        W64525   4.347   6.023  16.831  0.4211 -0.0537 -0.0806
21609W        W64526   6.268   8.087  16.569 -0.1041  0.2954 -0.1136
21610W        W64527   5.645   4.525  17.087  0.0161  0.2957  0.0158
21611W        W64528   4.193   6.693  18.421 -0.1350  0.0797 -0.0721
21612W        W64529   7.710   3.096  18.098  0.1800 -0.1795  0.2232
21613W        W64530   6.169   7.180  18.898 -0.1543 -0.1299  0.0039
21614W        W64531   6.078   4.334  17.214 -0.1256 -0.1293 -0.2179
21615W        W64532   3.708   4.529  16.077  0.0215  0.0060  0.0809
21616W        W64533   7.621   7.438  16.802  0.0028  0.0896  0.1270
21617W        W64534   5.357   7.579  18.541  0.2450 -0.0260  0.3927
21618W        W64535   1.938   6.263  19.601  0.1444  0.0543 -0.0034
21619W        W64536   6.230   7.232  17.205  0.2267  0.0229  0.0048
21620W        W64537   9.421   2.165  16.100 -0.1771  0.1057  0.3927
21621W        W64538   2.727   7.169  21.365  0.1508  0.0373  0.2684
21622W        W64539   7.014   4.488  16.603  0.0748  0.4094 -0.3830
21623W        W64540   4.887   5.931  17.593 -0.0144  0.1287  0.0609
21624W        W64541   3.300   6.967  21.219 -0.0663 -0.0531  0.1124
21625W        W64542   7.791   3.902  16.327  0.0975  0.0417 -0.2403
21626W        W64543   5.943   4.442  15.719 -0.1644 -0.1893 -0.1585
21627W        W64544   6.622   6.088  20.228  0.1096  0.2599 -0.0445
21628W        W64545   6.688   7.371  17.062  0.0148 -0.0811 -0.0955
21629W        W64546   6.633   5.243  15.986 -0.2143 -0.4402  0.1413
21630W        W64547   5.357   4.857  16.379 -0.1056  0.0852 -0.0103
21631W        W64548   3.099   6.043  18.856 -0.3431 -0.0963 -0.1260
21632W        W64549   5.412   5.935  17.776 -0.0685  0.3800  0.0659
21633W        W64550   8.148   6.427  18.564  0.4660 -0.1701  0.3873
21634W        W64551   4.864   5.613  16.650 -0.0557  0.1658 -0.0639
21635W        W64552   7.235   6.192  16.515  0.0649 -0.1011  0.2654
21636W        W64553   4.348   6.020  19.768 -0.0178 -0.2996 -0.1252
21637W        W64554   6.860   5.564  19.533 -0.0857 -0.2698 -0.0620
21638W        W64555   6.550   5.134  17.622 -0.0011  0.0801  0.0567
21639W        W64556   5.905   2.720  17.939 -0.1744  0.1058  0.0016
21640W        W64557   5.006   6.820  17.154 -0.2269  0.0020 -0.2470
21641W        W64558   7.707   3.906  17.663 -0.1763  0.1108 -0.0427
21642W        W64559   3.147   7.513  16.754  0.0474 -0.1604  0.1996
21643W        W64560   6.886   5.789  17.122  0.0871  0.0994 -0.2357
21644W        W64561   5.753   5.090  18.239  0.5693  0.3433 -0.1492
21645W        W64562   6.627   3.583  18.372  0.1077 -0.1409  0.0566
21646W        W64563   6.892   4.472  17.575 -0.0507 -0.0879 -0.0369
21647W        W64564   6.805   5.897  16.674  0.0841  0.1256 -0.0852
21648W        W64565   6.747   6.212  18.475 -0.3841  0.1134 -0.0113
21649W        W64566   5.545   6.756  17.223  0.0426 -0.3765 -0.0364
21650W        W64567   5.423   4.132  19.832 -0.0229  0.0709  0.3580
21651W        W64568   5.087   5.654  17.999  0.1142  0.1196 -0.0934
21652W        W64569   6.696   7.977  18.513 -0.0441  0.0066  0.4144
21653W        W64570   5.469   7.365  20.376 -0.1377  0.0787  0.4218
21654W        W64571   5.874   4.351  16.218 -0.0026 -0.0175  0.4330
21655W        W64572   5.951   3.418  17.883 -0.2270  0.1343 -0.2831
21656W        W64573   7.264   5.646  16.865 -0.2859 -0.0262 -0.0099
21657W        W64574   4.946   6.373  17.872  0.0359 -0.0400 -0.1124
21658W        W64575   4.191   6.174  15.632 -0.0163 -0.1277  0.3691
21659W        W64576   7.603   2.703  17.163 -0.0864 -0.0745  0.0089
21660W        W64577   6.286   6.445  17.896 -0.1100  0.0219  0.0546
21661W        W64578   4.256   5.094  15.508 -0.1046  0.1896 -0.1494
21662W        W64579   6.273   6.371  18.487  0.0752  0.0784 -0.1737
21663W        W64580   3.708   7.705  18.148 -0.3219  0.3219  0.3439
21664W        W64581   7.261   6.676  17.250 -0.3863  0.0160  0.3973
21665W        W64582   6.567   8.734  17.426 -0.1723  0.2364  0.1327
21666W        W64583   4.598   6.199  15.340 -0.1272 -0.1184 -0.0801
21667W        W64584   3.994   5.189  16.819  0.2448  0.0029 -0.0043
21668W        W64585   9.313   1.076  16.131 -0.3443 -0.1313  0.0802
21669W        W64586   8.536   6.857  17.058 -0.0905  0.2623 -0.3063
21670W        W64587   4.505   6.000  19.284  0.1262  0.0383 -0.2898
21671W        W64588   4.685   5.197  17.426 -0.2415  0.0174 -0.2491
21672W        W64589   4.485   6.795  20.223 -0.2578 -0.1461 -0.0463
21673W        W64590   5.727   2.346  16.707 -0.1783 -0.0026  0.1503
21674W        W64591   6.643   5.491  16.487 -0.0792 -0.2433  0.0232
21675W        W64592   5.704   5.077  19.128 -0.1387  0.1053  0.1362
21676W        W64593   6.118   6.024  20.202 -0.0044 -0.3018  0.0426
21677W        W64594   3.263   4.252  16.038  0.1964 -0.1711  0.1793
21678W        W64595   7.613   4.984  16.547  0.2339 -0.1057 -0.3688
21679W        W64596   6.237   5.663  16.715  0.2236 -0.4432 -0.1202
21680W        W64597   5.044   5.487  17.129  0.2872  0.2265 -0.0182
21681W        W64598   4.831   5.684  20.555  0.2760  0.2701  0.0527
21682W        W64599   3.597   6.261  17.385 -0.1290  0.0832  0.0844
21683W        W64600   3.173   6.872  16.957  0.0067 -0.0306  0.1110
21684W        W64601   3.850   5.799  20.477 -0.0413 -0.0519 -0.1610
21685W        W64602   5.597   7.563  19.828 -0.1106  0.0199  0.0188
21686W        W64603   6.114   3.872  17.554  0.2002  0.0648  0.0594
21687W        W64604   4.309   3.008  16.331  0.2327 -0.1045 -0.2134
21688W        W64605   5.397   5.651  18.854  0.0074 -0.0874 -0.0120
21689W        W64606   7.913   6.142  20.072 -0.0396  0.0613  0.1681
21690W        W64607   6.715   5.421  19.127  0.0011 -0.1923 -0.1032
21691W        W64608   8.276   5.003  20.845 -0.1427  0.1301  0.2748
21692W        W64609   7.326   4.798  17.332 -0.1934  0.0757 -0.1880
21693W        W64610   8.539   6.743  17.893  0.0274  0.2867  0.1881
21694W        W64611   6.337   3.914  17.967 -0.1359 -0.1328  0.0370
21695W        W64612   3.087   6.188  17.022  0.1888 -0.0628  0.1147
21696W        W64613   2.585   5.314  16.923  0.0771 -0.0479 -0.1154
21697W        W64614   4.715   4.981  16.014  0.1296 -0.3233 -0.1971
21698W        W64615   6.229   4.888  17.913 -0.0888 -0.1114 -0.1031
21699W        W64616   4.102   6.318  18.099 -0.2139 -0.1361 -0.0252
21700W        W64617   4.866   7.246  17.498 -0.1896  0.2248 -0.5796
21701W        W64618   3.654   6.728  20.982  0.1133 -0.0101 -0.2956
21702W        W64619   6.090   4.669  16.624 -0.3406 -0.1033 -0.0321
21703W        W64620   7.310   6.925  16.554  0.4158  0.0900 -0.2822
21704W        W64621   3.664   5.471  18.225 -0.1329 -0.1772  0.0210
21705W        W64622   8.752   4.409  16.973  0.0122 -0.0232  0.1787
21706W        W64623   5.589   5.887  18.364  0.1039  0.0343  0.0120
21707W        W64624   7.823   3.808  18.782  0.0680 -0.1037  0.1472
21708W        W64625   5.885   3.008  16.618  0.0222  0.1229 -0.0027
21709W        W64626   5.690   5.700  17.406 -0.2244  0.0099  0.1498
21710W        W64627   4.623   4.677  17.425  0.0276 -0.0444 -0.1136
21711W        W64628   5.427   8.118  20.951  0.1140  0.2283  0.1751
21712W        W64629   3.730   7.023  20.454 -0.4055 -0.0325  0.1574
21713W        W64630   5.608   5.482  17.896  0.0715  0.1322  0.0417
21714W        W64631   4.845   4.495  16.995 -0.1709 -0.2213 -0.0846
21715W        W64632   4.180   5.243  17.287  0.0959  0.1536  0.1405
21716W        W64633   6.468   5.535  17.331  0.0340  0.1774 -0.2729
21717W        W64634   5.708   7.690  17.829  0.1842  0.0610 -0.0401
21718W        W64635   8.626   7.163  18.217  0.2953  0.0824  0.0781
21719W        W64636   4.243   6.914  19.098  0.0500  0.1024  0.3088
21720W        W64637   6.687   3.553  16.870 -0.3897 -0.2048  0.3569
21721W        W64638   4.538   7.019  17.141 -0.1287  0.1366 -0.0373
21722W        W64639   3.820   5.842  17.414 -0.0267 -0.0370  0.0349
21723W        W64640   3.696   4.048  20.530 -0.0726  0.4242 -0.0549
21724W        W64641   4.418   6.200  18.528 -0.0240 -0.0437 -0.1091
21725W        W64642   5.796   4.675  17.568 -0.0002 -0.1469 -0.0021
21726W        W64643   6.923   2.767  18.725  0.1356  0.1170  0.1642
21727W        W64644   6.796   5.029  19.771 -0.0438 -0.1180  0.0505
21728W        W64645   5.446   4.506  18.475 -0.0469  0.0935 -0.0534
21729W        W64646   4.274   5.446  19.873  0.1339 -0.1172 -0.3940
21730W        W64647   7.454   6.293  20.793 -0.1252  0.1057 -0.0121
21731W        W64648   7.589   3.069  16.042  0.0046 -0.1842  0.3433
21732W        W64649   7.641   2.926  15.564 -0.2335  0.2265 -0.1142
21733W        W64650   6.359   5.701  19.019  0.2676 -0.0498  0.2547
21734W        W64651   4.278   6.309  16.411  0.0173 -0.1233  0.0642
21735W        W64652   5.177   4.920  18.206 -0.3191 -0.0537 -0.0718
21736W        W64653   4.146   5.574  18.144 -0.0069  0.0044 -0.1288
21737W        W64654   4.912   4.724  16.455  0.0791  0.3514  0.2373
21738W        W64655   4.937   3.346  19.429 -0.0756 -0.0547 -0.0270
21739W        W64656   5.237   8.176  17.944 -0.2256 -0.1284 -0.0787
21740W        W64657   9.165   5.622  18.746  0.0052  0.1952 -0.1186
21741W        W64658   7.746   3.382  16.374  0.1205  0.1037 -0.2866
21742W        W64659   4.912   5.202  17.874  0.1381  0.0197  0.1602
21743W        W64660   5.292   8.883  20.672  0.0715  0.1632  0.2737
21744W        W64661   4.770   5.995  16.342 -0.1719 -0.2154  0.0666
21745W        W64662   4.853   8.278  17.003  0.0548 -0.2163 -0.0340
21746W        W64663   5.726   7.979  19.558 -0.1304 -0.1200  0.0511
21747W        W64664   7.738   5.114  19.958 -0.2146  0.3003 -0.3577
21748W        W64665   5.537   4.085  15.930 -0.1601 -0.0497  0.1184
21749W        W64666   7.442   4.390  17.578  0.0700  0.2933  0.0839
21750W        W64667   2.806   6.144  17.502  0.0810  0.0413  0.0385
21751W        W64668   5.336   5.467  18.429  0.2048  0.0847  0.1211
21752W        W64669   3.832   8.053  19.695 -0.0277  0.1313  0.1952
21753W        W64670   4.100   8.068  18.169  0.0014  0.0162  0.2953
21754W        W64671   4.646   5.489  18.184  0.2490 -0.0805 -0.4567
21755W        W64672   6.962   4.528  19.655  0.0160  0.4204  0.1382
21756W        W64673   7.199   6.103  18.679  0.1909  0.2907  0.1824
21757W        W64674   4.157   6.566  19.788 -0.3269 -0.0573 -0.2505
21758W        W64675   9.051   4.726  17.263  0.1283 -0.3920 -0.1474
21759W        W64676   7.240   6.908  19.263  0.0663  0.3567 -0.1994
21760W        W64677   3.514   4.984  16.944 -0.0899  0.0138  0.0978
21761W        W64678   5.714   4.561  19.509 -0.3820 -0.0802  0.1368
21762W        W64679   5.599   5.600  16.772 -0.0113 -0.2738  0.0286
21763W        W64680   5.873   6.253  18.221  0.0206  0.0793  0.2547
21764W        W64681   3.660   6.180  20.185  0.1362  0.0365  0.0170
21765W        W64682   6.278   5.243  19.308  0.1340  0.2933  0.3530
21766W        W64683   5.774   5.100  16.611  0.0484  0.5264  0.3740
21767W        W64684   4.159   4.582  16.387  0.2918 -0.4067  0.1434
21768W        W64685   6.829   6.648  17.722  0.0196  0.1517  0.1654
21769W        W64686   3.988   7.572  20.443  0.0380 -0.0008  0.1343
21770W        W64687   3.970   6.166  19.353  0.0121 -0.1209 -0.1621
21771W        W64688   5.711   8.179  18.720  0.1115 -0.0177  0.1848
21772W        W64689   5.629   6.789  16.447 -0.0258  0.2243  0.0796
21773W        W64690   5.788   6.431  16.783 -0.4866  0.5138 -0.2237
21774W        W64691   8.127   7.891  19.421 -0.0247 -0.0542  0.1782
21775W        W64692   5.146   4.261  16.173 -0.2342  0.0668  0.1735
21776W        W64693   4.889   4.658  17.817  0.3887  0.1751  0.0340
21777W        W64694   3.487   5.869  16.943  0.1117 -0.0168  0.0720
21778W        W64695   5.867   6.598  17.623 -0.1530 -0.0099  0.1002
21779W        W64696   3.616   7.797  17.567 -0.0652 -0.1036 -0.0750
21780W        W64697   7.264   5.826  22.631 -0.0979 -0.0013  0.0502
21781W        W64698   5.315   4.358  17.864 -0.2893 -0.3886 -0.0063
21782W        W64699   6.588   8.176  17.504 -0.1161 -0.0168  0.0122
21783W        W64700   7.322   4.719  16.220  0.0794  0.3151 -0.3061
21784W        W64701   4.764   6.588  21.088  0.2759 -0.1370  0.0153
21785W        W64702   5.929   3.933  19.492 -0.1073 -0.0687 -0.2596
21786W        W64703   7.774   5.989  16.940  0.1238  0.1275  0.4377
21787W        W64704   4.430   5.729  18.612  0.2075 -0.3838 -0.1755
21788W        W64705   6.724   1.486  17.933  0.1303  0.2351  0.0878
21789W        W64706   4.596   7.601  20.218  0.2075  0.2270  0.2163
21790W        W64707   6.967   6.220  17.483 -0.3841 -0.1372  0.1481
21791W        W64708   5.168   5.995  16.739  0.3395  0.0495 -0.1018
21792W        W64709   5.025   5.205  19.830 -0.2095  0.1236  0.1142
21793W        W64710   6.488   4.178  17.471 -0.0129  0.0424 -0.1692
21794W        W64711   4.758   5.970  15.767 -0.0253  0.0563 -0.2476
21795W        W64712   5.928   5.228  17.608 -0.0214  0.5083  0.1170
21796W        W64713   6.166   8.098  17.156  0.3307  0.0720  0.2069
21797W        W64714   3.343   6.605  18.952  0.1336 -0.1116 -0.2478
21798W        W64715   4.143   7.687  17.675  0.1969  0.2026  0.1478
21799W        W64716   4.992   4.124  16.722 -0.1630  0.1355 -0.0378
21800W        W64717   7.850   5.532  15.660 -0.2974  0.0379 -0.1715
21801W        W64718   5.443   6.352  17.485 -0.2191  0.1859  0.0291
21802W        W64719   7.057   3.539  17.952  0.3935  0.1341 -0.1302
21803W        W64720   3.946   7.332  16.406  0.1317 -0.0601 -0.0855
21804W        W64721   7.260   5.036  16.893  0.4704  0.0505 -0.1227
21805W        W64722   5.264   5.258  16.680  0.4070 -0.1246 -0.1889
21806W        W64723   6.828   5.802  18.792 -0.1400 -0.1598 -0.2599
21807W        W64724   6.791   4.914  18.784 -0.0228  0.0643  0.1316
21808W        W64725   4.776   6.080  20.982  0.4642  0.1575  0.1079
21809W        W64726   7.177   4.833  15.771 -0.1505 -0.0011  0.2183
21810W        W64727   3.497   8.231  18.227  0.1110 -0.1621  0.1262
21811W        W64728   4.895   2.712  16.418  0.2538  0.0097 -0.1508
21812W        W64729   5.629   5.363  16.235  0.0729  0.1745  0.0913
21813W        W64730   2.581   6.173  16.998 -0.3224  0.5007  0.1057
21814W        W64731   5.684   4.564  18.946  0.0668 -0.1674 -0.2561
21815W        W64732   5.606   6.576  19.138  0.0076  0.1168 -0.0560
21816W        W64733   3.875   3.635  16.394 -0.1211 -0.1232  0.1260
21817W        W64734   5.982   5.744  16.036 -0.0551 -0.1566 -0.1491
21818W        W64735   5.457   4.084  16.899  0.0714 -0.2644  0.0503
21819W        W64736   6.434   7.465  18.606  0.1252 -0.0223  0.4004
21820W        W64737   5.113   6.173  16.031  0.0290 -0.4164  0.0547
21821W        W64738   4.383   7.220  17.610  0.2867 -0.1157 -0.0763
21822W        W64739   6.286   5.031  18.370  0.2545 -0.1376  0.1571
21823W        W64740   5.667   6.122  18.891 -0.0277 -0.2007 -0.3694
21824W        W64741   7.141   7.077  17.668 -0.0548 -0.1805  0.2375
21825W        W64742   4.912   4.311  18.172  0.1741  0.2224  0.1180
21826W        W64743   4.329   5.784  17.337  0.3512  0.5781  0.0389
21827W        W64744   4.490   7.586  17.276  0.0789 -0.2918 -0.0928
21828W        W64745   6.462   4.656  16.956 -0.0686  0.0634 -0.1290
21829W        W64746   7.608   4.138  18.544  0.2219  0.0877  0.1298
21830W        W64747   3.482   7.134  16.645  0.1858 -0.0516 -0.0928
21831W        W64748   6.430   2.608  18.631  0.1487 -0.0493  0.0742
21832W        W64749   3.214   7.771  18.288 -0.2319  0.3457 -0.2087
21833W        W64750   4.731   7.737  19.797 -0.2348 -0.0595  0.1671
21834W        W64751   3.682   5.011  17.460 -0.0985 -0.2011  0.1761
21835W        W64752   6.717   6.019  19.637  0.0474 -0.0768  0.3839
21836W        W64753   6.101   6.960  17.874  0.0145 -0.0138 -0.0285
21837W        W64754   5.009   8.443  18.353  0.0483 -0.5853  0.3969
21838W        W64755   5.612   7.031  19.611 -0.0318 -0.1419  0.1567
21839W        W64756   5.847   5.953  16.574 -0.0079 -0.3745 -0.0743
21840W        W64757   5.167   6.976  19.270  0.1113  0.0649 -0.0481
21841W        W64758   2.875   5.889  18.376  0.2617 -0.1010  0.0081
21842W        W64759   6.237   2.932  15.125 -0.4809  0.0424 -0.2092
21843W        W64760   6.969   4.012  16.792  0.1583  0.5112 -0.0114
21844W        W64761   5.238   6.745  18.248 -0.3266  0.1281 -0.0848
21845W        W64762   4.390   5.626  15.528  0.2187 -0.0707 -0.0981
21846W        W64763   4.754   5.367  15.717 -0.4359 -0.0454 -0.0282
21847W        W64764   5.178   4.972  17.432  0.3741 -0.1401  0.1952
21848W        W64765   7.801   1.114  19.077  0.0670  0.1482 -0.0693
21849W        W64766   4.400   6.492  19.370  0.1423  0.0916 -0.1459
21850W        W64767   2.698   5.323  17.419  0.1292  0.1509 -0.2015
21851W        W64768   5.264   2.849  16.034  0.0591  0.1588 -0.1437
21852W        W64769   5.557   8.464  18.271  0.0135 -0.0077  0.1488
21853W        W64770   5.192   4.477  17.407  0.2613  0.2415 -0.1861
21854W        W64771   3.353   5.100  18.195 -0.0379 -0.3652 -0.1863
21855W        W64772   7.735   6.618  17.422 -0.1631 -0.0826  0.3005
21856W        W64773   6.754   6.299  16.324  0.0780  0.0980  0.1302
21857W        W64774   4.834   5.033  16.971  0.1482  0.0583  0.0483
21858W        W64775   7.767   5.055  20.720  0.1328 -0.0078 -0.2121
21859W        W64776   2.154   6.016  16.741 -0.2633  0.0935 -0.2875
21860W        W64777   4.846   5.209  18.534  0.2836  0.1951 -0.1884
21861W        W64778   5.260   6.114  18.605  0.1714 -0.0382  0.1274
21862W        W64779   4.509   4.591  15.741  0.1513  0.2738 -0.1546
21863W        W64780   7.272   3.880  20.200 -0.0501 -0.0206  0.1940
21864W        W64781   7.066   6.477  19.571  0.3392 -0.2801 -0.0673
21865W        W64782   5.250   5.948  17.213 -0.2063 -0.1218  0.0467
21866W        W64783   6.020   5.860  18.618  0.2435  0.0812  0.1194
21867W        W64784   5.705   6.507  19.688  0.4644  0.0975  0.0063
21868W        W64785   4.271   4.351  18.923 -0.0310 -0.1597  0.1098
21869W        W64786   7.743   7.120  16.367 -0.2711 -0.1295  0.0806
21870W        W64787   6.808   3.658  20.361 -0.3337  0.0373 -0.0182
21871W        W64788   8.396   6.462  16.705  0.4320  0.0059 -0.0257
21872W        W64789   9.252   4.528  17.742 -0.0182 -0.1531 -0.0527
21873W        W64790   6.968   5.395  17.969 -0.1505  0.1649  0.0083
21874W        W64791   4.107   4.250  20.334 -0.0382 -0.2806 -0.1619
21875W        W64792   5.188   5.586  19.370  0.0674 -0.0675  0.2109
21876W        W64793   6.921   6.171  19.130  0.2323 -0.1766 -0.1911
21877W        W64794   4.408   3.234  16.851  0.1963 -0.2066  0.1734
21878W        W64795   6.888   3.857  17.239  0.2392 -0.0825 -0.0515
21879W        W64796   4.944   6.367  17.368 -0.3519 -0.2293 -0.2349
21880W        W64797   3.147   4.986  18.658 -0.2557  0.0035  0.0898
21881W        W64798   5.228   4.734  16.836 -0.3666  0.0681  0.0345
21882W        W64799   6.310   5.972  18.093 -0.1712 -0.3025  0.1368
21883W        W64800   5.714   7.928  18.278 -0.0213  0.0684 -0.4305
21884W        W64801   6.313   3.582  19.575 -0.1563 -0.1104 -0.1143
21885W        W64802   6.147   5.304  16.301 -0.0583  0.1250  0.2238
21886W        W64803   7.192   3.491  16.970  0.0485 -0.1074 -0.1994
21887W        W64804   6.167   7.970  18.645 -0.2426  0.1046 -0.0803
21888W        W64805   6.855   7.257  20.870 -0.3170 -0.1219 -0.2484
21889W        W64806   4.770   6.245  20.535 -0.0880 -0.1471  0.0417
21890W        W64807   5.873   4.976  19.690 -0.0981  0.2113  0.0403
21891W        W64808   4.456   5.401  16.897  0.1195  0.3863  0.0327
21892W        W64809   4.718   5.181  16.513  0.1030  0.0109 -0.2031
21893W        W64810   4.537   6.444  17.130 -0.3861  0.0760 -0.0497
21894W        W64811   8.679   4.183  20.368  0.3951  0.0552  0.1546
21895W        W64812   2.696   6.658  18.317  0.1999  0.4415  0.0286
21896W        W64813   7.289   1.428  16.396  0.3239 -0.1060  0.1916
21897W        W64814   5.285   7.695  18.064  0.2384  0.1486 -0.1663
21898W        W64815   7.043   6.833  19.951  0.1109  0.1882 -0.1923
21899W        W64816   3.993   8.093  23.936  0.2730  0.0667  0.1796
21900W        W64817   5.935   4.735  20.594 -0.2616 -0.0059  0.0241
21901W        W64818   6.856   3.651  19.289 -0.1099 -0.0104 -0.3187
21902W        W64819   6.504   2.778  20.498 -0.0290  0.0522  0.0085
21903W        W64820   3.573   3.860  20.976  0.2774 -0.1453  0.1233
21904W        W64821   4.485   6.426  21.498 -0.4463  0.1086 -0.0324
21905W        W64822   4.134   2.844  21.722  0.0438  0.1435  0.3133
21906W        W64823   5.865   6.548  24.422  0.2840  0.1418 -0.3408
21907W        W64824   7.984   5.419  21.817  0.0131 -0.1884  0.1413
21908W        W64825   6.400   3.999  19.821 -0.0435 -0.1029  0.0147
21909W        W64826   6.044   4.191  22.791 -0.0338  0.0584  0.3141
21910W        W64827   3.740   8.488  22.904  0.5508 -0.2278  0.1121
21911W        W64828   6.377   3.364  19.141  0.0273 -0.2997  0.0679
21912W        W64829   3.145   4.470  21.239  0.0976  0.1833 -0.0044
21913W        W64830   6.010   3.968  22.207 -0.2688 -0.1502  0.5990
21914W        W64831   4.178   4.502  20.731  0.0882 -0.1694 -0.1280
21915W        W64832   4.956   4.267  22.575  0.1892 -0.0334 -0.0487
21916W        W64833   7.267   4.764  21.392 -0.0358 -0.3390 -0.2970
21917W        W64834   5.847   7.662  20.340 -0.0961 -0.0889  0.2459
21918W        W64835   5.356   5.707  23.673 -0.2817 -0.1295  0.0968
21919W        W64836   5.665   2.830  23.475 -0.0316  0.2143  0.2172
21920W        W64837   5.005   8.305  21.413 -0.0281  0.0412 -0.1563
21921W        W64838   3.108   6.493  21.139  0.1615 -0.0191 -0.0495
21922W        W64839   4.476   4.328  21.327  0.2476 -0.0439  0.0837
21923W        W64840   5.431   4.147  22.173  0.1880  0.2242  0.0239
21924W        W64841   5.388   3.486  22.443 -0.1521 -0.1594  0.1354
21925W        W64842   5.946   4.152  19.917 -0.2733 -0.1920 -0.0984
21926W        W64843   4.158   7.164  22.727 -0.2820  0.1214  0.3264
21927W        W64844   3.916   5.875  21.092  0.4970  0.3981  0.0120
21928W        W64845   5.319   5.634  22.344  0.0052  0.0217 -0.0515
21929W        W64846   4.138   6.032  21.642 -0.1733  0.0361 -0.0770
21930W        W64847   3.402   9.159  21.464  0.0493 -0.0150 -0.0793
21931W        W64848   3.937   7.565  22.486 -0.0103 -0.0401  0.0867
21932W        W64849   6.756   5.744  21.348  0.0740  0.1297 -0.0987
21933W        W64850   5.430   6.871  20.546  0.2004 -0.1093 -0.1214
21934W        W64851   4.772   7.457  23.854  0.1923 -0.0069  0.2544
21935W        W64852   4.995   9.266  19.853  0.1578 -0.0177 -0.1885
21936W        W64853   4.684   9.268  21.774  0.0062  0.3049  0.0738
21937W        W64854   4.844   8.360  23.733  0.2941 -0.2227 -0.2403
21938W        W64855   4.944   6.677  21.574 -0.0141 -0.0625 -0.0564
21939W        W64856   5.651   2.998  20.034  0.1797  0.0438 -0.2905
21940W        W64857   5.941   7.402  19.468 -0.0688  0.1670 -0.2134
21941W        W64858   5.942   5.940  21.338  0.1625  0.0291 -0.0025
21942W        W64859   7.629   5.856  23.513 -0.0412  0.1478  0.0608
21943W        W64860   2.232   7.073  22.410 -0.0144  0.2130 -0.0057
21944W        W64861   5.603   3.334  21.932  0.1177 -0.1786  0.2673
21945W        W64862   3.086   6.198  20.216  0.2654  0.2056  0.3489
21946W        W64863   6.424   3.995  20.353 -0.1844  0.0243  0.0741
21947W        W64864   5.613   3.683  17.650  0.1862 -0.2413 -0.0369
21948W        W64865   5.710   2.762  19.336 -0.0330 -0.0313 -0.2546
21949W        W64866   3.815   3.833  22.311 -0.1520 -0.0861  0.1274
21950W        W64867   4.557   9.687  22.887  0.2536 -0.1069 -0.1489
21951W        W64868   3.881   3.063  20.832  0.0526 -0.0768 -0.0580
21952W        W64869   8.645   4.728  21.774  0.0057 -0.0944  0.0615
21953W        W64870   6.180   3.448  20.856  0.0001  0.0554 -0.0203
21954W        W64871   5.024   5.138  20.705  0.3206  0.1246  0.1968
21955W        W64872   4.984   7.060  22.410 -0.1088  0.0615  0.1221
21956W        W64873   3.069   6.499  19.766 -0.0506 -0.0278  0.0554
21957W        W64874   7.470   6.320  19.827  0.3270  0.2466 -0.3156
21958W        W64875   5.231   6.875  23.286 -0.0227  0.0861  0.2847
21959W        W64876   6.121   5.140  20.271 -0.2521 -0.5791 -0.1022
21960W        W64877   5.017   3.802  20.783  0.2037  0.1463 -0.1847
21961W        W64878   4.311   5.233  23.897 -0.1468 -0.2061  0.2429
21962W        W64879   2.700   5.080  21.600  0.0174 -0.1768  0.3601
21963W        W64880   6.404   4.116  18.645  0.1613  0.2015 -0.0374
21964W        W64881   7.917   5.785  22.746  0.2272 -0.2455  0.0167
21965W        W64882   3.565   7.912  22.412 -0.1288 -0.0389 -0.0456
21966W        W64883   9.124   6.564  23.086 -0.2738 -0.1058 -0.0880
21967W        W64884   3.502   7.523  22.715  0.3338 -0.3222 -0.0483
21968W        W64885   5.822   5.427  22.215  0.0511 -0.2514  0.0712
21969W        W64886   7.474   4.176  18.054  0.2897  0.1941  0.1439
21970W        W64887   4.554   4.085  20.929  0.0733  0.1085  0.1214
21971W        W64888   6.653   4.182  22.105  0.2027  0.1166  0.3056
21972W        W64889   5.876   5.365  18.670  0.1273  0.3543 -0.3262
21973W        W64890   4.368   7.561  21.704 -0.0907  0.0686 -0.1965
21974W        W64891   7.535   6.646  24.450 -0.2605  0.0615 -0.2141
21975W        W64892   7.613   4.937  17.742 -0.3255  0.2384 -0.3006
21976W        W64893   3.087   7.391  22.918 -0.0248  0.0590  0.1474
21977W        W64894   4.731   3.480  22.085 -0.0432  0.0365  0.1258
21978W        W64895   6.427   6.710  21.770  0.0693  0.1390 -0.3519
21979W        W64896   3.565   7.123  21.809  0.3330 -0.1492  0.1664
21980W        W64897   2.277   4.505  20.863 -0.2486 -0.1827 -0.1225
21981W        W64898   5.208   6.085  19.145  0.2252  0.1734 -0.2004
21982W        W64899   4.312   3.180  21.249  0.0586  0.2727 -0.3339
21983W        W64900   5.139   5.781  22.888 -0.1547  0.1801  0.0869
21984W        W64901   5.227   6.265  21.318 -0.0669 -0.0435  0.0229
21985W        W64902   3.679   4.411  22.888 -0.2267 -0.0163 -0.0068
21986W        W64903   6.196   2.376  23.045 -0.2468  0.0895 -0.0208
21987W        W64904   2.861   6.328  22.297  0.4675 -0.0698  0.0468
21988W        W64905   7.294   8.751  20.082 -0.0690  0.1571  0.0283
21989W        W64906   6.763   5.315  18.524 -0.1605  0.0378  0.1753
21990W        W64907   7.709   4.359  21.160  0.0544  0.2494  0.1113
21991W        W64908   2.716   5.772  20.949 -0.1309 -0.0691 -0.0363
21992W        W64909   5.948   3.097  21.213 -0.1896  0.3533 -0.0749
21993W        W64910   5.497   4.536  24.335  0.2756  0.4877 -0.3021
21994W        W64911   6.137   5.097  21.430 -0.1121  0.0844  0.0199
21995W        W64912   8.087   6.037  23.771 -0.1333 -0.0163  0.1881
21996W        W64913   4.097   4.114  21.051 -0.0250  0.2751 -0.3897
21997W        W64914   5.890   4.823  21.107  0.0465 -0.0100 -0.1551
21998W        W64915   3.889   6.315  20.758 -0.0327  0.0503  0.3987
21999W        W64916   4.134   7.861  21.338 -0.0408  0.1185 -0.0459
22000W        W64917   5.498   6.503  23.103  0.2703 -0.0507 -0.4277
22001W        W64918   3.381   7.865  21.804 -0.2634 -0.0622  0.4828
22002W        W64919   9.305   6.809  22.328 -0.3160 -0.0145  0.1419
22003W        W64920   5.489   6.911  21.621 -0.2230 -0.0355  0.1473
22004W        W64921   6.061   4.406  23.356 -0.0609 -0.1120  0.1130
22005W        W64922   5.182   4.491  19.487 -0.2681 -0.1546  0.2984
22006W        W64923   4.274   9.293  22.019  0.1062  0.0443 -0.2640
22007W        W64924   2.483   6.636  22.214 -0.4616  0.0006  0.1015
22008W        W64925   5.506   2.104  21.003 -0.0215 -0.0805 -0.1746
22009W        W64926   4.845   9.209  23.640 -0.1890 -0.2108 -0.1733
22010W        W64927   4.759   5.508  22.346  0.0368  0.1731  0.3057
22011W        W64928   2.580   7.087  23.623 -0.1115  0.0786  0.4998
22012W        W64929   6.860   3.714  22.828  0.1899  0.4249  0.0251
22013W        W64930   9.221   5.885  21.386 -0.0154 -0.2364 -0.1271
22014W        W64931   3.813   6.836  21.503  0.2327 -0.0423  0.0872
22015W        W64932   2.819   5.712  20.434 -0.1015 -0.1183 -0.3761
22016W        W64933   6.063   5.924  21.858 -0.2729  0.3939 -0.1393
22017W        W64934   3.666   6.690  21.957 -0.3036 -0.0008 -0.2122
22018W        W64935   3.323   6.582  22.406  0.0260  0.1122 -0.0774
22019W        W64936   3.979   8.501  21.650 -0.0915 -0.1840  0.2308
22020W        W64937   4.250   3.752  20.268 -0.0201 -0.1241  0.0895
22021W        W64938   3.177   4.979  23.351 -0.2950 -0.0375 -0.1240
22022W        W64939   6.806   6.018  22.403 -0.3473  0.2165  0.2384
22023W        W64940   3.322   2.767  20.957 -0.1238 -0.0121 -0.2657
22024W        W64941   5.936   4.750  23.793 -0.0992  0.1543  0.1783
22025W        W64942   6.616   4.414  20.679  0.1195 -0.2401  0.0180
22026W        W64943   6.153   6.267  19.778  0.1972 -0.0019  0.0150
22027W        W64944   5.048   4.543  22.170  0.1538  0.0151  0.0354
22028W        W64945   7.225   5.318  19.953 -0.0746 -0.0981  0.1900
22029W        W64946   4.397   4.030  18.486 -0.0208 -0.3056 -0.1934
22030W        W64947   7.536   4.137  20.520  0.1559  0.2544 -0.2866
22031W        W64948   3.264   8.633  22.917 -0.1379  0.0390 -0.1394
22032W        W64949   5.596   6.091  19.957  0.3649 -0.1484 -0.0766
22033W        W64950   4.897   5.994  22.272 -0.0598 -0.0718  0.2409
22034W        W64951   4.903   6.749  20.603 -0.1001 -0.3446  0.1684
22035W        W64952   6.456   6.174  18.943  0.1235  0.0132 -0.3221
22036W        W64953   3.737   5.831  22.973  0.2909 -0.0785  0.3381
22037W        W64954   6.169   7.121  22.080  0.1225  0.1669 -0.2877
22038W        W64955   4.224   7.975  20.808 -0.2162 -0.1657  0.1445
22039W        W64956   4.667   2.437  22.910 -0.1111  0.0006  0.0177
22040W        W64957   4.697   7.174  19.932 -0.0642  0.0332  0.3215
22041W        W64958   4.760   2.843  22.619 -0.0949 -0.1759  0.0679
22042W        W64959   4.357   8.770  19.065  0.1343  0.0991 -0.0633
22043W        W64960   6.425   2.917  24.432 -0.0886 -0.0337 -0.0470
22044W        W64961   5.719   6.139  20.538  0.2092  0.1224  0.0967
22045W        W64962   4.487   3.732  23.356 -0.2876 -0.0870 -0.0132
22046W        W64963   6.953   3.579  23.889  0.0477 -0.1512 -0.1568
22047W        W64964   6.655   4.895  21.729 -0.2501 -0.0403  0.3200
22048W        W64965   6.396   5.656  22.176  0.2042 -0.0884 -0.3633
22049W        W64966   4.852   6.412  18.450 -0.2054  0.3083 -0.0587
22050W        W64967   5.878   5.315  23.539  0.5399 -0.0591  0.4617
22051W        W64968   3.467   5.397  23.043 -0.1455 -0.1116  0.0273
22052W        W64969   4.552   6.365  22.953 -0.4719 -0.1465 -0.2403
22053W        W64970   6.666   6.980  22.188  0.0534 -0.2071  0.0510
22054W        W64971   6.437   4.857  20.499 -0.1376  0.0409  0.1370
22055W        W64972   5.832   6.269  25.822 -0.1593  0.3014  0.2190
22056W        W64973   5.525   4.120  19.290  0.4575 -0.0076 -0.2635
22057W        W64974   5.401   4.720  19.942 -0.0964 -0.2135 -0.0265
22058W        W64975   7.326   5.726  19.087 -0.1922 -0.0249 -0.0137
22059W        W64976   4.941   3.069  21.295 -0.3563 -0.0162  0.1074
22060W        W64977   3.263   7.091  22.534 -0.4259  0.0947 -0.0414
22061W        W64978   4.367   6.302  20.197 -0.0287  0.0368  0.0203
22062W        W64979   3.707   4.775  21.928 -0.2484  0.1526 -0.0222
22063W        W64980   3.203   5.517  23.557 -0.2544 -0.0286 -0.1395
22064W        W64981   6.205   4.541  21.469  0.1288  0.2104 -0.0126
22065W        W64982   1.888   6.632  23.484 -0.2821  0.0419 -0.0310
22066W        W64983   4.194   5.671  19.440  0.1531  0.4721 -0.2734
22067W        W64984   2.279   5.535  22.162 -0.0309 -0.0343  0.1570
22068W        W64985   6.896   3.519  20.902 -0.1815  0.4601  0.0216
22069W        W64986   7.095   6.074  21.068 -0.2438  0.0261 -0.2749
22070W        W64987   3.931   3.378  23.837  0.0857  0.0740 -0.3670
22071W        W64988   5.244   3.365  20.556 -0.0721 -0.0825 -0.0951
22072W        W64989   3.016   7.934  23.364 -0.0719 -0.1688 -0.2732
22073W        W64990   5.889   6.687  21.952 -0.2497  0.2234  0.3530
22074W        W64991   7.653   5.671  20.292 -0.1147 -0.0099  0.0549
22075W        W64992   4.154   6.764  21.193 -0.3428  0.2585 -0.0269
22076W        W64993   4.080   4.087  23.365 -0.2124  0.1718  0.2949
22077W        W64994   2.450   6.484  20.489  0.3071 -0.1359  0.1500
22078W        W64995   7.522   5.212  24.715  0.1231  0.0760 -0.1299
22079W        W64996   5.525   4.515  23.269  0.1503 -0.6420 -0.0423
22080W        W64997   3.568   7.859  23.274  0.2410 -0.0927  0.3879
22081W        W64998   4.818   7.126  23.501  0.3224 -0.0177  0.6368
22082W        W64999   5.106   5.211  19.011  0.1645  0.0738 -0.2014
22083W        W65000   3.276   6.047  23.678 -0.2798 -0.0938  0.0220
22084W        W65001   6.306   5.227  25.097 -0.0857 -0.0980  0.0653
22085W        W65002   6.111   5.867  20.863  0.1370 -0.0024 -0.1529
22086W        W65003   4.895   5.276  21.728  0.1640  0.1616  0.2014
22087W        W65004   5.618   5.088  20.492 -0.1993 -0.0901 -0.4478
22088W        W65005   4.397   5.191  22.545  0.1683 -0.0988  0.2420
22089W        W65006   5.286   6.217  22.100  0.0741 -0.0272 -0.4009
22090W        W65007   6.675   4.687  25.034  0.2682 -0.1360  0.3196
22091W        W65008   5.014   6.393  22.759  0.1047 -0.1852  0.2510
22092W        W65009   4.780   2.133  20.129  0.1361  0.0135  0.1860
22093W        W65010   7.460   7.015  22.686 -0.0699 -0.3073  0.2215
22094W        W65011   6.264   6.191  23.034 -0.1211  0.0795  0.1799
22095W        W65012   4.940   6.745  20.123  0.0669 -0.1326 -0.0979
22096W        W65013   4.211   4.875  23.577 -0.0768 -0.2144  0.1316
22097W        W65014   4.426   8.149  18.909 -0.1835 -0.1396  0.0531
22098W        W65015   6.571   4.072  25.109 -0.0940  0.2069  0.1366
22099W        W65016   3.115   6.852  23.012 -0.0269 -0.1196 -0.1074
22100W        W65017   3.354   5.853  20.609 -0.2568 -0.0731  0.1764
22101W        W65018   3.345   8.348  23.369 -0.0677 -0.0127  0.0192
22102W        W65019   5.612   4.159  17.442 -0.1421 -0.2957  0.2207
22103W        W65020   5.373   4.883  20.979  0.2538  0.0239  0.0133
22104W        W65021   5.164   3.920  20.356  0.0179 -0.0948  0.0564
22105W        W65022   7.391   3.648  22.631 -0.5345  0.0084 -0.2984
22106W        W65023   6.128   2.168  18.525  0.2362 -0.3411  0.3518
22107W        W65024   7.088   4.467  23.352 -0.2573  0.1166  0.0030
22108W        W65025   5.820   3.903  20.805  0.1521 -0.0057  0.1482
22109W        W65026   8.225   5.932  21.846  0.1624  0.0219  0.2220
22110W        W65027   3.546   4.911  22.860 -0.0249  0.1287  0.0871
22111W        W65028   6.074   7.204  24.016 -0.0188 -0.1185 -0.1109
22112W        W65029   3.821   3.958  22.798 -0.2998  0.0452  0.1525
22113W        W65030   5.053   4.775  20.304 -0.0966 -0.3626 -0.1132
22114W        W65031   6.742   6.418  22.071  0.0075 -0.2187  0.0792
22115W        W65032   5.056   7.106  21.311  0.2618 -0.4859 -0.0457
22116W        W65033   6.012   6.517  22.690  0.3375  0.1270  0.1544
22117W        W65034   6.133   6.867  19.842 -0.0642  0.3536 -0.0739
22118W        W65035   5.642   3.643  21.378 -0.0809  0.0093  0.1665
22119W        W65036   4.552   4.013  21.739 -0.4749 -0.0401  0.0465
22120W        W65037   6.435   6.104  21.353  0.2021 -0.0480  0.0540
22121W        W65038   4.584   6.989  21.525 -0.0440 -0.2691  0.0748
22122W        W65039   2.634   7.084  23.085  0.2606 -0.0034 -0.1619
22123W        W65040   3.295   3.269  23.720 -0.2195  0.0223  0.0631
22124W        W65041   5.843   6.623  20.688 -0.0490  0.5861 -0.0200
22125W        W65042   4.468   4.813  21.558 -0.0768 -0.0912  0.3352
22126W        W65043   6.999   6.118  22.904  0.1566  0.2717 -0.0643
22127W        W65044   4.478   5.292  21.468  0.0185 -0.1186  0.0264
22128W        W65045   6.016   5.785  25.003  0.1962  0.0701  0.0792
22129W        W65046   3.143   4.410  24.161 -0.0883  0.1332  0.0597
22130W        W65047   7.416   6.497  21.801  0.2974  0.5039 -0.0761
22131W        W65048   9.139   2.849  17.347  0.0741 -0.0403  0.1000
22132W        W65049   7.005   2.716  23.538 -0.1213 -0.2212  0.0150
22133W        W65050   9.670   4.473  20.264 -0.0040  0.3817 -0.0681
22134W        W65051   6.080   5.169  20.841 -0.3375 -0.2335 -0.2826
22135W        W65052   2.297   2.563  22.651  0.2074  0.4170 -0.0628
22136W        W65053   6.954   4.363  26.386  0.1227  0.0218 -0.0593
22137W        W65054   3.876   5.175  19.451 -0.2821 -0.0804  0.3016
22138W        W65055   5.012   6.495  24.249  0.4911 -0.1773 -0.0586
22139W        W65056   5.292   6.238  20.812 -0.2907 -0.0341  0.4038
22140W        W65057   4.668   5.920  22.759  0.1156 -0.1263 -0.1350
22141W        W65058   5.869   5.529  20.577 -0.1500 -0.2150  0.1479
22142W        W65059   2.377   5.070  22.017  0.0153  0.0397 -0.3809
22143W        W65060   2.559   8.446  25.032  0.0701  0.1637 -0.1958
22144W        W65061   4.167   7.002  21.818  0.3278 -0.1129 -0.0468
22145W        W65062   6.352   3.241  20.368  0.0250 -0.1309 -0.1168
22146W        W65063   6.884   3.739  23.352  0.0315 -0.2139 -0.0548
22147W        W65064   7.612   6.608  22.327  0.2841 -0.0181 -0.2694
22148W        W65065   4.410   3.714  21.335 -0.1701  0.3404  0.3039
22149W        W65066   6.398   4.170  24.286  0.2179 -0.0571 -0.0353
22150W        W65067   3.869   8.102  22.009  0.4712  0.1195  0.1997
22151W        W65068   3.785   6.193  21.909  0.2167 -0.0741  0.1083
22152W        W65069   4.085   6.114  22.769  0.0035 -0.4793 -0.1790
22153W        W65070   3.005   8.104  22.468  0.1041 -0.2292 -0.2233
22154W        W65071   4.266   5.980  23.216 -0.1473  0.1008 -0.2734
22155W        W65072   6.029   2.957  20.720  0.1016 -0.0155  0.1042
22156W        W65073   5.592   5.095  22.561 -0.0196  0.1368 -0.0339
22157W        W65074   4.244   6.219  21.079  0.3027  0.0811 -0.0432
22158W        W65075   6.204   4.115  21.779 -0.1835 -0.0405 -0.1888
22159W        W65076   3.777   6.132  24.258  0.0981 -0.0522 -0.0763
22160W        W65077   3.977   4.428  23.714 -0.1480 -0.1382  0.1120
22161W        W65078   3.253   6.447  23.267 -0.1369 -0.0857  0.1548
22162W        W65079   8.833   5.683  21.827  0.1361  0.0106  0.1100
22163W        W65080   4.005   5.555  21.642  0.0737  0.2058 -0.0038
22164W        W65081   4.239   3.159  22.502  0.3246  0.2301 -0.0014
22165W        W65082   5.066   4.636  23.520 -0.2290  0.3474  0.3055
22166W        W65083   8.325   6.221  21.385 -0.1189 -0.1087 -0.1184
22167W        W65084   5.673   3.316  20.855  0.1055 -0.0684  0.1455
22168W        W65085   6.784   7.504  19.911 -0.1793 -0.0947 -0.3951
22169W        W65086   2.787   6.305  23.695  0.0614 -0.2256 -0.2042
22170W        W65087   5.171   4.862  21.705 -0.1268  0.1513 -0.2037
22171W        W65088   3.421   8.385  22.525 -0.4150 -0.3061  0.2843
22172W        W65089   4.136   6.963  20.725 -0.0414  0.0611  0.0057
22173W        W65090   3.402   5.852  19.788  0.0491  0.1844 -0.2939
22174W        W65091   4.183   8.787  22.782  0.0158  0.2045 -0.2701
22175W        W65092   5.625   5.852  20.942 -0.0773  0.3345  0.0456
22176W        W65093   4.232   8.264  22.601  0.1600 -0.1268 -0.1728
22177W        W65094   2.575   7.231  20.697  0.0084 -0.0624  0.2574
22178W        W65095   4.470   7.976  22.186 -0.0301  0.1837 -0.0392
22179W        W65096   3.913   8.924  21.950 -0.2291  0.0789  0.0024
22180W        W65097   6.607   6.538  24.627 -0.1229 -0.0326  0.0785
22181W        W65098   6.286   4.422  19.494 -0.2887 -0.0532 -0.0309
22182W        W65099   6.680   5.200  21.311 -0.1284  0.0847 -0.1452
22183W        W65100   5.169   5.712  20.888 -0.4369  0.2211  0.1150
22184W        W65101   5.903   7.409  22.462  0.0724 -0.3351 -0.0694
22185W        W65102   3.741   6.169  23.321  0.0227 -0.3414  0.1190
22186W        W65103   6.718   0.490  18.955  0.2470  0.0124  0.0706
22187W        W65104   5.376   5.170  23.583  0.0175 -0.3072  0.0081
22188W        W65105   6.985   2.634  24.495  0.1088 -0.0625 -0.0966
22189W        W65106   5.201   8.935  23.072 -0.1977  0.0921 -0.0004
22190W        W65107   6.316   7.370  20.189  0.3625 -0.0604  0.3260
22191W        W65108   3.897   5.679  22.526  0.1171 -0.1996 -0.2158
22192W        W65109   4.872   6.152  21.748 -0.1040  0.2622 -0.2568
22193W        W65110   6.916   4.194  23.008 -0.3541  0.1279  0.1239
22194W        W65111   5.241   7.881  19.730  0.4908 -0.3523  0.2454
22195W        W65112   5.891   4.671  20.092  0.4162 -0.5247 -0.1635
22196W        W65113   4.413   8.547  20.235  0.1184  0.0415  0.0328
22197W        W65114   3.823   7.614  24.115  0.1131  0.2239 -0.2739
22198W        W65115   6.020   5.860  23.469  0.0422  0.0102 -0.3368
22199W        W65116   5.407   4.586  22.742  0.2255 -0.1902  0.2469
22200W        W65117   9.595   4.899  20.564 -0.1225  0.2415  0.0174
22201W        W65118   3.864   5.828  19.920  0.0124 -0.1239  0.0486
22202W        W65119   7.659   4.229  23.673  0.0055 -0.1193 -0.0380
22203W        W65120   5.020   4.364  20.043 -0.1230 -0.2390  0.2568
22204W        W65121   4.291   5.048  20.518 -0.0719  0.0479  0.5004
22205W        W65122   4.768   5.985  23.229 -0.0976 -0.1702 -0.2449
22206W        W65123   2.716   3.873  23.359  0.1223 -0.2009  0.0544
22207W        W65124   4.553   6.007  18.066  0.0315 -0.0352 -0.0283
22208W        W65125   8.698   6.291  24.330 -0.1891 -0.0338 -0.0673
22209W        W65126   7.021   5.524  21.007 -0.2854 -0.1782  0.1473
22210W        W65127   7.365   5.985  24.933 -0.1437 -0.2521  0.2220
22211W        W65128   3.256   3.773  20.588 -0.0300  0.1310 -0.0016
22212W        W65129   5.834   3.698  19.097  0.0551 -0.1414 -0.0305
22213W        W65130   4.066   7.376  21.324  0.3305  0.1101 -0.0255
22214W        W65131   4.247   6.715  22.320  0.1971 -0.1044  0.2412
22215W        W65132  10.063   5.312  21.285 -0.1671 -0.0348  0.1847
22216W        W65133   3.900   3.242  22.037 -0.1184  0.0517 -0.2397
22217W        W65134   6.620   6.245  20.856 -0.0821 -0.0946 -0.0192
22218W        W65135   4.656   4.927  22.051 -0.0725  0.2260 -0.1969
22219W        W65136   4.507   7.955  19.424  0.2735 -0.0174  0.1030
22220W        W65137   6.750   5.421  21.855 -0.0936 -0.1724  0.1584
22221W        W65138   7.457   7.120  21.916  0.1789  0.0819  0.0594
22222W        W65139   3.565   5.949  21.460  0.3393  0.0237  0.0288
22223W        W65140   7.230   6.260  22.300 -0.2036 -0.1705  0.1040
22224W        W65141   6.987   7.233  22.532  0.2384 -0.0034  0.1384
22225W        W65142   6.352   5.600  20.381  0.1123  0.0503 -0.0447
22226W        W65143   4.177   4.795  22.087  0.1240 -0.2002 -0.1985
22227W        W65144   4.390   8.518  20.733  0.1346  0.0567  0.2167
22228W        W65145   6.755   4.905  23.461  0.2974 -0.1444 -0.0027
22229W        W65146   6.569   6.498  23.306 -0.0649  0.0587  0.0700
22230W        W65147   5.663   8.739  20.085  0.2631 -0.2672  0.0416
22231W        W65148   6.597   2.491  23.273  0.2389 -0.0287  0.4039
22232W        W65149   4.297   5.246  21.923 -0.2073 -0.2060  0.0222
22233W        W65150   3.031   8.747  23.421 -0.0530  0.2857  0.0783
22234W        W65151   4.339   8.968  19.544 -0.0761  0.1110 -0.1416
22235W        W65152   5.635   5.601  22.712  0.3077  0.0473 -0.2988
22236W        W65153   4.334   5.982  20.710 -0.1707  0.1476  0.2339
22237W        W65154   5.073   7.521  20.089 -0.2337  0.1800 -0.0240
22238W        W65155   7.660   7.451  21.453 -0.1462 -0.2028  0.1978
22239W        W65156   5.836   4.383  22.394 -0.0679 -0.0449 -0.1327
22240W        W65157   8.662   7.412  20.307  0.1527 -0.1703 -0.0624
22241W        W65158   5.366   3.995  21.109  0.0986  0.1939 -0.5950
22242W        W65159   6.362   5.421  19.852  0.3263  0.1624 -0.3551
22243W        W65160   5.321   3.714  19.531 -0.2933  0.4304  0.1814
22244W        W65161   2.996   4.468  24.683 -0.0879 -0.0466  0.1761
22245W        W65162   1.903   8.109  20.805  0.3414  0.2286 -0.2932
22246W        W65163   5.997   6.233  19.233  0.0016  0.3590  0.1688
22247W        W65164   4.906   4.148  23.452 -0.2741  0.3145  0.0473
22248W        W65165   4.945   2.972  24.346 -0.2696  0.0929 -0.0642
22249W        W65166   5.382   2.823  24.223  0.1013 -0.0264  0.1633
22250W        W65167   4.162   7.438  20.853  0.1884 -0.2118 -0.1199
22251W        W65168   4.777   4.530  22.948  0.3966  0.2255  0.1002
22252W        W65169   8.904   6.170  23.259  0.2213 -0.3888 -0.0220
22253W        W65170   3.756   3.042  20.316  0.1535 -0.2167 -0.2931
22254W        W65171   3.781   2.544  21.823 -0.0231 -0.1175 -0.0603
22255W        W65172   5.390   5.361  21.830 -0.0041  0.0260 -0.1313
22256W        W65173   3.751   8.060  20.672  0.2462  0.0853  0.2286
22257W        W65174   6.473   2.360  20.181 -0.4650 -0.1229  0.0047
22258W        W65175   9.833   5.813  22.217  0.1111  0.2247  0.1220
22259W        W65176   3.491   5.971  22.414  0.1994  0.2256 -0.1402
22260W        W65177   4.836   4.888  22.611  0.0152  0.0691 -0.0585
22261W        W65178   4.089   4.100  22.013  0.0098 -0.1463  0.1444
22262W        W65179   3.086   4.834  20.716 -0.0769 -0.0683  0.1289
22263W        W65180   6.160   5.353  22.572 -0.1965  0.1342 -0.0897
22264W        W65181   5.059   8.452  22.767  0.2364 -0.0086 -0.1397
22265W        W65182   7.702   7.174  19.297 -0.1125  0.0903  0.1695
22266W        W65183   4.675   5.465  22.914  0.2853  0.0734  0.1668
22267W        W65184   3.537   7.308  23.730 -0.1670 -0.0307 -0.1508
22268W        W65185   2.779   2.960  22.355  0.0314  0.3064  0.2092
22269W        W65186   8.984   5.519  20.382  0.1690 -0.4554 -0.1538
22270W        W65187   2.962   7.181  23.910  0.3875 -0.1129  0.1184
22271W        W65188   6.671   6.636  18.268 -0.2376  0.2570 -0.0495
22272W        W65189   7.489   5.383  22.316 -0.3650 -0.0143  0.0090
22273W        W65190   8.691   6.741  20.898 -0.0392  0.1655 -0.1735
22274W        W65191   4.201   3.602  22.172  0.1515  0.0875  0.2924
22275W        W65192   4.282   5.735  22.204  0.2108 -0.1249  0.1892
22276W        W65193   8.655   6.655  22.901 -0.1300 -0.0966 -0.0412
22277W        W65194   2.842   4.033  20.311 -0.1925 -0.1757 -0.0061
22278W        W65195   5.525   5.332  20.920  0.1116 -0.1979  0.0073
22279W        W65196   3.573   5.668  21.908  0.2623 -0.0638  0.1449
22280W        W65197   3.624   4.325  21.111  0.0547  0.3337 -0.0543
22281W        W65198   5.502   4.496  20.431  0.3040 -0.0923  0.1302
22282W        W65199   6.882   5.367  24.353  0.2976  0.2545  0.1225
22283W        W65200   4.508   4.468  21.957 -0.0881  0.0803  0.0032
22284W        W65201   6.273   6.660  22.221  0.2062 -0.0178 -0.1036
22285W        W65202   5.278   5.422  20.354  0.2107  0.0610 -0.2392
22286W        W65203   6.722   6.611  20.282 -0.0262 -0.1250 -0.2428
22287W        W65204   6.590   6.009  21.826  0.1792 -0.0548  0.4518
22288W        W65205   5.587   6.210  22.698 -0.2326 -0.1975 -0.3653
22289W        W65206   4.466   6.265  22.485 -0.4834 -0.0313 -0.0512
22290W        W65207   5.984   5.933  22.538 -0.1869 -0.0132  0.2588
22291W        W65208   4.269   3.679  22.682 -0.0372  0.2111 -0.0966
22292W        W65209   5.531   5.238  19.962  0.1600 -0.2619 -0.0142
22293W        W65210   3.592   4.395  22.243 -0.0165 -0.2683 -0.1545
22294W        W65211   6.700   4.217  23.533  0.0361 -0.1544  0.0301
22295W        W65212   5.255   2.443  20.698 -0.1549  0.0479  0.0159
22296W        W65213   5.475   3.476  20.127 -0.1301  0.2957  0.1914
22297W        W65214   3.970   7.887  24.528  0.0557 -0.2699  0.0016
22298W        W65215   4.511   2.852  20.890 -0.0608  0.0695  0.0616
22299W        W65216   5.293   6.029  28.158 -0.2652 -0.3932 -0.1519
22300W        W65217   6.371   4.446  23.829  0.3318 -0.1964  0.1670
22301W        W65218   5.505   4.975  23.135 -0.1244 -0.0396 -0.2200
22302W        W65219   8.091   6.844  24.761 -0.0007  0.1204 -0.2861
22303W        W65220   4.325   5.109  26.092 -0.4345 -0.1807 -0.0037
22304W        W65221   5.804   6.032  23.083  0.0162  0.2444 -0.4782
22305W        W65222   4.305   4.622  26.185  0.2639 -0.1331 -0.0700
22306W        W65223   4.572   6.307  27.134 -0.0086 -0.1105  0.2329
22307W        W65224   8.131   5.766  27.908  0.2486 -0.1483 -0.2626
22308W        W65225   5.511   5.543  23.233  0.1654 -0.1206  0.3020
22309W        W65226   6.145   4.824  26.001  0.3149 -0.0640  0.2479
22310W        W65227   6.579   5.332  25.619  0.0554  0.1787 -0.2841
22311W        W65228   5.167   4.031  25.646 -0.1814  0.1225 -0.1846
22312W        W65229   2.948   3.780  25.996  0.2176  0.0539 -0.0104
22313W        W65230   8.101   4.516  26.538 -0.0440  0.0261  0.1497
22314W        W65231   4.541   4.098  24.545  0.2750 -0.4781  0.0181
22315W        W65232   5.383   4.092  25.206 -0.2256 -0.0328 -0.1155
22316W        W65233   3.540   4.608  24.649  0.1906 -0.2362 -0.0169
22317W        W65234   6.423   7.564  26.474 -0.1705  0.0877  0.0791
22318W        W65235   4.050   4.731  25.623 -0.0511  0.0990 -0.3362
22319W        W65236   7.263   2.805  27.867  0.2121 -0.2513  0.1093
22320W        W65237   6.081   6.395  23.409 -0.1305  0.0512 -0.1866
22321W        W65238   4.128   2.285  21.319  0.1570 -0.0965 -0.1314
22322W        W65239   3.984   5.865  26.216 -0.0224  0.1148 -0.0174
22323W        W65240   5.465   7.082  27.244  0.0594  0.2283  0.3127
22324W        W65241   6.484   3.501  25.115  0.3841 -0.0626 -0.5249
22325W        W65242   5.685   6.903  23.999 -0.1029  0.1838  0.0024
22326W        W65243   6.221   8.201  25.428 -0.2175  0.0615  0.1287
22327W        W65244   6.599   7.238  26.055 -0.0726 -0.3554 -0.0020
22328W        W65245   6.037   2.493  27.684 -0.0115  0.0622  0.0536
22329W        W65246   3.815   6.541  26.557  0.1377  0.2024 -0.0365
22330W        W65247   4.927   7.801  24.784  0.0956  0.2691  0.4978
22331W        W65248   4.719   7.417  24.342  0.0588  0.0291 -0.1684
22332W        W65249   8.859   7.096  24.447 -0.1240 -0.2745  0.1534
22333W        W65250   7.869   5.994  26.224  0.1003  0.0949  0.4187
22334W        W65251   5.153   9.220  27.298 -0.0276  0.1523 -0.0306
22335W        W65252   4.776   8.352  27.276 -0.0324 -0.1246 -0.2094
22336W        W65253   6.710   3.893  28.140  0.6208 -0.0731 -0.2590
22337W        W65254   6.430   5.621  26.564 -0.2740  0.1869 -0.2859
22338W        W65255   5.757   5.812  25.448 -0.2712  0.0855 -0.0200
22339W        W65256   6.181   6.149  24.286 -0.0616 -0.1052 -0.0036
22340W        W65257   4.845   6.635  23.652 -0.4639 -0.3292  0.2656
22341W        W65258   3.992   6.446  25.562  0.0103 -0.1724  0.0340
22342W        W65259   5.411   7.460  26.848 -0.0971  0.0382 -0.0654
22343W        W65260   4.285   8.656  25.802 -0.3506  0.1334  0.0809
22344W        W65261   7.960   3.791  28.478  0.0464  0.1097 -0.3265
22345W        W65262   6.526   5.841  22.801 -0.0539 -0.0307 -0.1564
22346W        W65263   5.460   5.662  24.133 -0.1510  0.3205  0.1394
22347W        W65264   2.995   5.825  22.718 -0.3129  0.2579 -0.1465
22348W        W65265   6.295   5.718  23.993 -0.2216 -0.0184  0.1637
22349W        W65266   3.674   3.963  25.810 -0.3930  0.1237  0.0491
22350W        W65267   4.430   7.708  24.742 -0.2058  0.1453  0.2744
22351W        W65268   3.802   5.634  24.353 -0.0274 -0.0486 -0.0042
22352W        W65269   7.662   4.633  28.030  0.2346 -0.1914 -0.0395
22353W        W65270   5.823   6.750  25.016 -0.0573  0.2790 -0.3461
22354W        W65271   4.857   5.088  23.733 -0.1112 -0.1260 -0.1091
22355W        W65272   5.195   5.703  25.823 -0.0621 -0.0516 -0.0863
22356W        W65273   3.759   5.469  24.893 -0.1735  0.0064  0.0654
22357W        W65274   7.847   6.290  24.816  0.0332  0.2386  0.1055
22358W        W65275   6.557   5.691  25.245 -0.0007 -0.1636  0.2334
22359W        W65276   4.880   7.427  21.627  0.5042  0.4076  0.3158
22360W        W65277   4.854   5.083  25.969 -0.3245  0.3259 -0.2027
22361W        W65278   3.680   5.402  27.436  0.1070 -0.0616 -0.1535
22362W        W65279   5.361   5.791  26.842  0.0044 -0.0953  0.2325
22363W        W65280   4.527   4.597  24.461  0.1169 -0.0701  0.0485
22364W        W65281   6.329   5.457  27.641 -0.2222 -0.0548  0.2698
22365W        W65282   4.341   9.166  27.593  0.3304 -0.1957 -0.2388
22366W        W65283   7.101   3.279  22.428 -0.2495  0.1673  0.3385
22367W        W65284   4.175   8.095  25.588 -0.1372 -0.1646  0.0358
22368W        W65285   5.591   5.851  21.951  0.3699 -0.1566  0.0286
22369W        W65286   5.911   5.188  23.000 -0.1063 -0.0401  0.2385
22370W        W65287   7.429   3.950  25.830 -0.1780 -0.1507  0.2181
22371W        W65288   5.732   5.923  27.151  0.0690 -0.1822  0.3326
22372W        W65289   6.358   5.521  23.547  0.1071  0.0041 -0.0338
22373W        W65290   4.621   7.801  26.374 -0.1291 -0.2048 -0.1075
22374W        W65291   8.203   7.560  27.203  0.0049  0.4196  0.1782
22375W        W65292   8.120   6.101  23.147  0.0161  0.4275  0.1570
22376W        W65293   4.430   7.555  27.118  0.1746  0.3243  0.0587
22377W        W65294   5.388   3.568  26.025  0.0234  0.0109  0.0756
22378W        W65295   5.637   4.826  25.778  0.1916  0.0223 -0.1015
22379W        W65296   5.287   4.209  23.881 -0.0839  0.0195  0.1069
22380W        W65297   4.651   6.859  27.702 -0.0688  0.0570 -0.1718
22381W        W65298   3.339   5.435  24.626 -0.0862  0.0244 -0.0450
22382W        W65299   3.657   3.539  26.054 -0.1793 -0.0397 -0.3118
22383W        W65300   4.517   8.597  26.759 -0.2932  0.1636 -0.0155
22384W        W65301   6.322   5.130  23.835  0.2622  0.1881  0.0564
22385W        W65302   4.511   1.456  28.337  0.0219 -0.0130 -0.1561
22386W        W65303   6.895   3.568  25.902 -0.6206 -0.1283 -0.0077
22387W        W65304   4.248   5.776  24.034  0.0561 -0.1144  0.1413
22388W        W65305   7.499   6.423  25.297  0.2701  0.0223 -0.0202
22389W        W65306   7.352   4.195  22.631 -0.2133  0.3585 -0.2152
22390W        W65307   6.850   6.286  23.663  0.0324  0.0349  0.0967
22391W        W65308   4.268   2.739  24.986 -0.0863 -0.2822  0.4622
22392W        W65309   4.305   3.303  25.607  0.1997  0.1106  0.0902
22393W        W65310   5.457   5.797  26.356  0.1803  0.3000  0.3128
22394W        W65311   4.647   4.169  25.805 -0.0002  0.1502  0.1854
22395W        W65312   4.813   3.873  26.735 -0.1099 -0.2551  0.1326
22396W        W65313   6.833   4.641  23.887  0.0067 -0.2470 -0.1188
22397W        W65314   6.542   2.978  23.472 -0.1338 -0.4080  0.0871
22398W        W65315   5.511   5.944  24.980 -0.5170  0.1267  0.1384
22399W        W65316   3.974   6.880  25.799  0.0439 -0.2937 -0.0708
22400W        W65317   8.243   3.893  27.500  0.2629  0.0682 -0.0670
22401W        W65318   6.088   5.675  23.000 -0.3691  0.4797  0.2889
22402W        W65319   8.222   7.063  27.334 -0.0382  0.0292  0.1700
22403W        W65320   6.765   7.017  25.458 -0.2188  0.0460 -0.0726
22404W        W65321   5.943   2.999  26.713  0.2157  0.0131  0.0529
22405W        W65322   3.528   4.121  24.252 -0.0975 -0.1505 -0.1784
22406W        W65323   3.771   7.339  26.126 -0.1841 -0.0587  0.0878
22407W        W65324   4.629   7.095  22.064 -0.2331  0.0404  0.0518
22408W        W65325   4.526   4.738  25.755  0.0313  0.1097  0.0802
22409W        W65326   6.246   5.939  25.746  0.2066  0.3147 -0.1487
22410W        W65327   6.204   4.902  23.306 -0.1563  0.0222 -0.2641
22411W        W65328   6.772   8.504  26.766  0.2422 -0.0693  0.1023
22412W        W65329   7.451   2.889  25.924 -0.1535  0.0995 -0.0419
22413W        W65330   3.896   7.181  24.915  0.1450  0.0090 -0.1277
22414W        W65331   5.268   6.704  20.990 -0.2001  0.0597  0.0537
22415W        W65332   2.432   3.974  23.890 -0.2037  0.5478 -0.2123
22416W        W65333   6.335   8.554  25.734  0.1250  0.0898 -0.3139
22417W        W65334   5.067   7.097  25.314  0.1361  0.1459 -0.0680
22418W        W65335   4.322   5.198  25.618 -0.5343  0.1271 -0.1593
22419W        W65336   6.080   6.579  26.468  0.0568  0.0437 -0.1522
22420W        W65337   8.034   4.200  27.023 -0.4238  0.1148 -0.1541
22421W        W65338   5.988   5.293  28.642 -0.1267  0.1432  0.0828
22422W        W65339   6.840   3.180  28.004 -0.2334 -0.2990 -0.1590
22423W        W65340   6.684   4.898  24.293 -0.0894 -0.0171 -0.0313
22424W        W65341   5.291   7.858  26.543  0.0152  0.2007 -0.0152
22425W        W65342   7.373   3.442  23.099 -0.0633  0.3541  0.0680
22426W        W65343   7.359   3.332  24.360  0.0708 -0.0507 -0.1642
22427W        W65344   6.313   4.915  28.484 -0.2073 -0.4748 -0.0809
22428W        W65345   6.248   3.958  23.795 -0.2302 -0.2460 -0.0800
22429W        W65346   6.574   5.962  23.421 -0.3620  0.1856 -0.1790
22430W        W65347   5.670   5.935  24.499  0.0867  0.2334 -0.1689
22431W        W65348   5.163   6.494  27.852  0.0473  0.1456 -0.1118
22432W        W65349   5.196   5.190  24.068  0.2214  0.5182  0.2915
22433W        W65350   5.813   6.286  25.299 -0.1051  0.3896 -0.0681
22434W        W65351   5.232   3.441  23.760 -0.1338 -0.0489 -0.2887
22435W        W65352   7.535   6.543  22.819 -0.1404 -0.0948 -0.1174
22436W        W65353   3.776   7.904  27.577  0.0864 -0.1172 -0.0016
22437W        W65354   5.584   5.006  27.460  0.0189 -0.1067 -0.3062
22438W        W65355   7.174   6.476  24.125  0.0195  0.2188 -0.1787
22439W        W65356   4.088   4.694  25.112  0.0611  0.0516  0.2768
22440W        W65357   6.101   3.077  26.262  0.0192  0.0828  0.0342
22441W        W65358   5.756   2.723  24.517 -0.1263 -0.2266 -0.0684
22442W        W65359   4.070   6.531  23.437  0.0133 -0.1600 -0.3245
22443W        W65360   6.806   4.473  24.566  0.0380  0.2667 -0.0994
22444W        W65361   7.532   4.564  27.089  0.0285 -0.4046  0.0581
22445W        W65362   5.511   2.424  25.959  0.0127 -0.0420 -0.1160
22446W        W65363   7.447   7.163  26.727  0.3649  0.0475 -0.2257
22447W        W65364   7.967   4.959  23.101 -0.0250  0.0090 -0.1635
22448W        W65365   6.653   7.593  24.883 -0.0189 -0.0509 -0.0896
22449W        W65366   4.625   6.215  24.041 -0.1225 -0.3436 -0.1343
22450W        W65367   4.729   4.326  26.388 -0.0654 -0.2965  0.2019
22451W        W65368   5.779   6.171  26.306 -0.1270 -0.0138 -0.0264
22452W        W65369   5.065   8.711  26.603  0.2346  0.0349  0.0498
22453W        W65370   5.652   6.713  26.589 -0.0160  0.2005 -0.2851
22454W        W65371   7.111   4.046  25.394 -0.1422  0.0460 -0.4080
22455W        W65372   6.281   5.029  27.916 -0.0433 -0.0674 -0.0913
22456W        W65373   5.447   4.931  24.706 -0.3940  0.1907 -0.0971
22457W        W65374   5.161   8.798  24.358  0.0935  0.1769 -0.1550
22458W        W65375   5.536   6.640  26.064  0.0746 -0.1640 -0.2468
22459W        W65376   5.253   2.695  24.760  0.1009  0.0026  0.1067
22460W        W65377   4.915   6.155  26.716 -0.0056 -0.1204  0.1469
22461W        W65378   5.205   5.300  22.860 -0.0035 -0.1328  0.1716
22462W        W65379   5.003   4.477  25.853 -0.1345 -0.3646  0.0966
22463W        W65380   7.024   6.877  24.378  0.1872 -0.0082 -0.3193
22464W        W65381   6.818   1.650  25.656  0.0707  0.1935  0.3741
22465W        W65382   3.267   8.829  25.880  0.1000 -0.0847 -0.2698
22466W        W65383   3.036   4.203  21.626 -0.2240 -0.0328  0.1850
22467W        W65384   5.077   6.579  25.693 -0.2550 -0.1804 -0.0098
22468W        W65385   6.635   3.259  23.808  0.1827 -0.0430 -0.1071
22469W        W65386   7.225   5.707  23.134 -0.0985 -0.3124  0.0244
22470W        W65387   3.665   4.878  26.665  0.1999 -0.0427 -0.0331
22471W        W65388   6.107   4.884  24.358 -0.0053 -0.0654 -0.1357
22472W        W65389   5.973   7.946  24.766 -0.1737 -0.1710  0.0463
22473W        W65390   6.500   4.979  24.697 -0.1091  0.0851  0.0619
22474W        W65391   6.663   4.765  26.378  0.0264  0.0740 -0.1268
22475W        W65392   6.333   4.186  26.370  0.0549  0.0044  0.1508
22476W        W65393   4.414   6.195  28.865 -0.0179  0.1930 -0.2505
22477W        W65394   4.973   5.540  23.347  0.2540  0.2610 -0.1813
22478W        W65395   9.005   4.454  26.136 -0.0793 -0.1280 -0.2735
22479W        W65396   5.522   3.824  24.043 -0.1398  0.0799  0.0318
22480W        W65397   3.540   7.629  24.545  0.1137 -0.1419  0.0496
22481W        W65398   5.655   7.119  26.327  0.1290  0.2773 -0.0167
22482W        W65399   6.165   5.732  26.227  0.0934  0.3325 -0.1245
22483W        W65400   4.035   8.285  26.032  0.0429 -0.1544 -0.2316
22484W        W65401   4.942   4.376  27.150  0.2482  0.0162 -0.2083
22485W        W65402   7.569   5.460  25.417 -0.1516 -0.1927 -0.0302
22486W        W65403   6.041   3.635  25.311  0.0303  0.2317  0.1812
22487W        W65404   3.426   4.045  25.361 -0.0515 -0.0401 -0.0325
22488W        W65405   3.623   6.835  27.062 -0.0173  0.3306 -0.2079
22489W        W65406   6.227   4.552  25.205 -0.0186  0.0737 -0.4560
22490W        W65407   7.023   5.567  26.271  0.3952 -0.1713 -0.3274
22491W        W65408   6.457   6.103  28.928  0.2751 -0.0633 -0.1018
22492W        W65409   5.911   3.330  25.813  0.1048 -0.1063  0.5396
22493W        W65410   8.205   6.596  23.333 -0.1274  0.1552  0.0468
22494W        W65411   5.866   4.819  28.432 -0.3415 -0.0909  0.1887
22495W        W65412   5.993   3.885  24.197 -0.0204 -0.0707  0.3296
22496W        W65413   4.913   5.862  26.307  0.0831  0.1562  0.2603
22497W        W65414   3.156   6.977  24.488  0.3171 -0.2116  0.1010
22498W        W65415   5.661   2.011  26.196 -0.1764  0.0368  0.2602
22499W        W65416   5.012   5.231  27.693 -0.1412 -0.1947 -0.1804
22500W        W65417   5.008   6.144  23.675  0.0079  0.0473 -0.2294
22501W        W65418   5.401   8.438  25.358  0.0381 -0.2350 -0.0925
22502W        W65419   6.766   3.127  26.206  0.0606  0.1475  0.0579
22503W        W65420   4.736   6.577  22.181  0.2640 -0.1961 -0.1462
22504W        W65421   5.064   4.796  25.506 -0.3262  0.1655 -0.3418
22505W        W65422   8.147   3.937  25.133 -0.2007 -0.3557  0.0406
22506W        W65423   6.964   7.244  24.012  0.1630  0.0462  0.0746
22507W        W65424   7.023   4.559  28.794 -0.1317  0.1712 -0.2070
22508W        W65425   6.010   2.280  25.391 -0.4415 -0.2050  0.0188
22509W        W65426   6.006   4.850  24.876  0.1073  0.0963  0.0118
22510W        W65427   2.629   4.460  27.106  0.2944  0.2662 -0.1448
22511W        W65428   6.104   5.253  29.670  0.0202  0.0944 -0.0561
22512W        W65429   5.725   2.993  27.729  0.2413  0.3544  0.2894
22513W        W65430   6.731   2.781  23.969  0.3899  0.2716  0.0814
22514W        W65431   5.197   2.206  24.168  0.3442  0.2588 -0.1071
22515W        W65432   5.919   4.060  27.771 -0.3440 -0.2183  0.3083
22516W        W65433   6.903   6.380  26.228  0.0126 -0.0104 -0.1428
22517W        W65434   3.247   7.813  24.998 -0.1526  0.3210 -0.0991
22518W        W65435   7.080   7.006  23.005  0.1617 -0.0846  0.2152
22519W        W65436   6.138   4.664  26.503  0.5755 -0.1216  0.1963
22520W        W65437   7.885   5.131  24.255 -0.0397  0.1522  0.1039
22521W        W65438   5.237   6.014  25.454  0.3577 -0.2931 -0.0996
22522W        W65439   4.608   8.244  24.766  0.0762  0.2983 -0.0128
22523W        W65440   3.012   4.545  26.743  0.2810  0.0418 -0.0541
22524W        W65441   7.443   6.888  23.922 -0.2402 -0.3379 -0.0643
22525W        W65442   7.120   3.641  27.287 -0.0457  0.2028  0.2772
22526W        W65443   4.986   4.403  25.295  0.0591  0.0831  0.1093
22527W        W65444   8.426   3.720  28.526 -0.2450 -0.0256 -0.0099
22528W        W65445   6.195   4.606  27.690  0.0298 -0.3872 -0.1899
22529W        W65446   4.199   3.353  27.063  0.0462 -0.1636  0.0392
22530W        W65447   6.726   6.753  23.936 -0.1537 -0.0806  0.1033
22531W        W65448   6.198   5.769  24.562  0.3615 -0.1502 -0.2520
22532W        W65449   9.170   4.234  25.237 -0.0906 -0.2157 -0.0422
22533W        W65450   6.792   4.009  26.742 -0.1465  0.2557  0.1140
22534W        W65451   7.223   3.844  26.356  0.2059  0.0918  0.4268
22535W        W65452   5.041   5.751  24.896  0.1503  0.0969 -0.0104
22536W        W65453   7.830   3.960  24.135 -0.0624 -0.0291 -0.1113
22537W        W65454   4.139   2.374  24.744 -0.0488  0.0417 -0.3436
22538W        W65455   7.656   3.243  28.023 -0.1648  0.0747  0.3419
22539W        W65456   5.213   6.747  22.053  0.0102 -0.1064 -0.1913
22540W        W65457   4.056   5.911  24.794  0.0921 -0.3948  0.2340
22541W        W65458   7.207   4.545  25.575  0.4110  0.0159 -0.1552
22542W        W65459   3.923   3.980  24.588 -0.0112  0.0503  0.0524
22543W        W65460   4.835   8.718  25.785  0.0204 -0.3730  0.1242
22544W        W65461   4.563   5.746  23.656  0.3094  0.2188  0.2429
22545W        W65462   5.031   6.816  24.903  0.2879  0.1373  0.0564
22546W        W65463   7.235   6.737  26.227 -0.1611 -0.0802  0.1513
22547W        W65464   8.816   6.122  27.728 -0.0227  0.3097 -0.0043
22548W        W65465   5.619   5.048  24.228 -0.1915 -0.1851 -0.1457
22549W        W65466   7.405   6.336  29.391  0.1264 -0.0756  0.1468
22550W        W65467   5.352   6.423  25.115  0.2149 -0.1422 -0.0604
22551W        W65468   7.588   5.015  26.886  0.0864  0.0124 -0.0909
22552W        W65469   5.213   6.994  25.955 -0.1330 -0.2607 -0.2465
22553W        W65470   4.922   4.091  24.914 -0.1819  0.2667  0.0483
22554W        W65471   4.845   6.219  25.146 -0.1127 -0.3485 -0.0473
22555W        W65472   7.309   3.160  28.828 -0.2820 -0.1497  0.0582
22556W        W65473   7.021   5.761  25.238 -0.1300  0.0565  0.2540
22557W        W65474   5.423   6.642  24.629 -0.1710  0.0972 -0.0423
22558W        W65475   6.909   4.204  25.901  0.1522  0.0905  0.0603
22559W        W65476   7.714   6.563  26.249  0.1731  0.2782  0.2095
22560W        W65477   5.629   6.231  26.774 -0.2063  0.1727  0.1138
22561W        W65478   7.374   4.881  27.431 -0.1578 -0.1600 -0.0110
22562W        W65479   8.138   5.075  23.796  0.2755 -0.0021  0.2599
22563W        W65480   4.893   6.190  27.577 -0.0558  0.0892  0.0565
22564W        W65481   5.682   5.416  27.100  0.0856  0.1464 -0.0820
22565W        W65482   4.328   4.631  28.388  0.0236 -0.1096  0.0317
22566W        W65483   9.213   6.632  24.425  0.0355 -0.3172  0.1643
22567W        W65484   1.477   2.338  24.576  0.3585 -0.1474  0.0540
22568W        W65485   4.128   4.219  22.478 -0.1223  0.2047  0.0052
22569W        W65486   3.748   7.270  27.800 -0.3863 -0.0337  0.2201
22570W        W65487   5.840   4.726  27.980  0.2606  0.2677  0.0358
22571W        W65488   4.520   6.670  24.236  0.1703 -0.3702 -0.0930
22572W        W65489   7.212   6.114  23.383  0.0210  0.0222  0.5546
22573W        W65490   3.778   6.402  22.480  0.2371  0.1552 -0.0380
22574W        W65491   7.776   7.818  25.226  0.1471 -0.3398 -0.0084
22575W        W65492   5.184   4.141  22.997  0.2235  0.1030 -0.1454
22576W        W65493   3.687   7.677  26.593 -0.1985 -0.2818 -0.2074
22577W        W65494   3.751   7.686  21.016  0.0149 -0.0595  0.2324
22578W        W65495   6.599   6.490  25.691 -0.2105 -0.2952  0.3608
22579W        W65496   6.056   7.457  26.043 -0.0295 -0.2448  0.3261
22580W        W65497   8.550   4.881  27.164  0.3678  0.2594 -0.5557
22581W        W65498   5.516   4.455  24.933 -0.1492  0.1877  0.1522
22582W        W65499   9.260   5.712  26.568 -0.0066  0.0186  0.2301
22583W        W65500   6.812   5.215  25.210  0.0822 -0.0865  0.0006
22584W        W65501   6.144   5.501  26.993 -0.3252  0.2929 -0.1848
22585W        W65502   4.026   4.588  26.903  0.2072  0.2462 -0.0276
22586W        W65503   4.834   3.782  23.764 -0.0958 -0.0254 -0.0070
22587W        W65504   5.104   3.700  27.147 -0.0785 -0.1784  0.0765
22588W        W65505   6.751   3.314  27.083  0.0273  0.2329  0.1207
22589W        W65506   5.722   6.648  27.121 -0.1931  0.3618 -0.1861
22590W        W65507   7.929   6.920  21.953  0.0254  0.2589 -0.4615
22591W        W65508   4.829   5.632  25.366  0.1085  0.2362 -0.2806
22592W        W65509   5.025   4.786  24.958 -0.0634 -0.0786  0.3531
22593W        W65510   5.687   4.033  26.490 -0.0897  0.1826  0.0979
22594W        W65511   4.580   7.103  20.943  0.1833  0.1151 -0.2698
22595W        W65512   6.026   4.503  25.608 -0.1760  0.2527  0.0141
22596W        W65513   5.161   6.752  26.477  0.0973  0.0871 -0.1309
22597W        W65514   5.665   6.413  28.008 -0.0899  0.2776 -0.0937
22598W        W65515   8.130   4.762  28.223  0.0990  0.2807  0.1830
22599W        W65516   2.547   5.420  23.632  0.2905 -0.1189 -0.1437
22600W        W65517   7.088   5.056  25.589  0.0439  0.2646 -0.0584
22601W        W65518   5.763   5.961  27.724  0.2834 -0.0136 -0.0953
22602W        W65519   7.078   5.019  28.785 -0.0524 -0.2582 -0.0289
22603W        W65520   5.298   6.186  25.933  0.2528  0.1618  0.1957
22604W        W65521   6.850   4.697  25.913  0.2124  0.3088 -0.2953
22605W        W65522   7.014   7.211  26.276 -0.0446 -0.4355  0.0877
22606W        W65523   2.215   4.705  25.269  0.4227 -0.3433 -0.1880
22607W        W65524   4.517   6.319  23.535 -0.1075 -0.1156  0.0099
22608W        W65525   6.824   7.707  26.174 -0.2101  0.2458 -0.0520
22609W        W65526   4.173   5.497  22.936 -0.1159  0.0974  0.2858
22610W        W65527   6.783   6.307  27.289 -0.3557 -0.2810  0.0081
22611W        W65528   4.165   3.348  26.298 -0.0150 -0.1371 -0.1002
22612W        W65529   6.383   5.283  24.285 -0.3176 -0.1357 -0.0228
22613W        W65530   5.653   5.304  25.608  0.0231 -0.1215 -0.1762
22614W        W65531   6.683   5.180  26.052 -0.2142  0.1487  0.1227
22615W        W65532   7.673   6.295  25.811 -0.0011  0.2675 -0.0590
22616W        W65533   4.964   1.737  24.306 -0.0926  0.0059  0.1612
22617W        W65534   6.643   5.775  24.337  0.0651 -0.1150  0.0869
22618W        W65535   6.110   3.863  26.781  0.2001  0.1392 -0.1318
22619W        W65536   2.904   6.255  24.183  0.1400 -0.2713 -0.3303
22620W        W65537   7.014   5.517  25.722 -0.0603 -0.1443 -0.3861
22621W        W65538   7.922   7.320  26.891  0.0446  0.0868  0.0184
22622W        W65539   3.988   3.866  26.286  0.1540 -0.1247 -0.1756
22623W        W65540   8.259   6.156  25.664  0.0180  0.0678 -0.3666
22624W        W65541   8.851   6.317  28.212  0.3085 -0.0834  0.2414
22625W        W65542   4.922   1.670  24.804  0.1771 -0.3546  0.0575
22626W        W65543   6.202   3.869  24.875  0.0691 -0.5005 -0.1866
22627W        W65544   3.170   5.768  24.998  0.3286 -0.2131 -0.4912
22628W        W65545   7.134   2.953  25.216 -0.0347 -0.2863 -0.1028
22629W        W65546   6.345   3.192  27.893  0.1519  0.1771  0.3386
22630W        W65547   5.713   7.019  22.911  0.0872  0.0713  0.0010
22631W        W65548   8.259   4.040  26.606 -0.1260  0.0790  0.0491
22632W        W65549   4.863   7.319  25.756  0.1307 -0.1630  0.3072
22633W        W65550   5.979   6.346  27.568  0.3203 -0.1618 -0.1357
22634W        W65551   3.924   4.592  23.201 -0.2149 -0.0641  0.2422
22635W        W65552   7.357   5.918  25.611 -0.1201 -0.3837 -0.2090
22636W        W65553   4.984   6.401  23.249  0.0749 -0.0550 -0.1797
22637W        W65554   5.842   6.238  22.178 -0.2387 -0.0148 -0.1299
22638W        W65555   7.288   6.872  25.286 -0.1784  0.0822  0.1758
22639W        W65556   4.475   6.505  25.672 -0.1586 -0.0752  0.4042
22640W        W65557   7.540   7.135  26.210  0.0303  0.0822 -0.1853
22641W        W65558   4.093   4.461  24.646 -0.1606  0.2599 -0.1012
22642W        W65559   6.223   3.864  25.875  0.1124 -0.0923 -0.2071
22643W        W65560   5.891   5.942  23.953  0.2291 -0.4589 -0.0748
22644W        W65561   6.433   4.397  25.910 -0.1684 -0.1597  0.2015
22645W        W65562   4.068   4.763  24.079  0.0466  0.1225 -0.4081
22646W        W65563   4.659   7.378  22.592  0.2247  0.1701  0.0240
22647W        W65564   4.419   7.697  25.706 -0.1556  0.1399  0.1150
22648W        W65565   4.136   4.243  25.900  0.0127  0.2644 -0.2969
22649W        W65566   5.203   5.266  27.213 -0.2379 -0.0003  0.0977
22650W        W65567   4.521   5.589  26.433  0.2244 -0.2766  0.0104
22651W        W65568   4.149   4.966  24.587 -0.0895  0.0228  0.0528
22652W        W65569   7.083   6.914  23.515  0.2730  0.1311 -0.0621
22653W        W65570   3.921   3.545  28.276  0.0228 -0.0717 -0.0098
22654W        W65571   4.767   3.354  25.322 -0.2832  0.0365 -0.1902
22655W        W65572   7.832   4.658  26.145  0.0854  0.0920  0.1835
22656W        W65573   7.502   5.628  26.295  0.1518  0.0969  0.3781
22657W        W65574   5.613   3.718  24.942  0.0738  0.0525 -0.0722
22658W        W65575   8.694   5.648  27.808  0.0263  0.1812  0.2416
22659W        W65576   3.607   4.598  24.120 -0.0591  0.0363  0.1968
22660W        W65577   6.353   4.979  26.876 -0.2712  0.0537  0.0910
22661W        W65578   4.269   3.720  26.687  0.0014 -0.0043 -0.0748
22662W        W65579   2.983   5.466  23.106 -0.0264  0.0513 -0.1852
22663W        W65580   5.775   7.152  25.721  0.1941 -0.1286 -0.1129
22664W        W65581   6.070   6.235  24.802  0.2175 -0.1205 -0.1996
22665W        W65582   5.661   6.794  22.452 -0.2336 -0.1709  0.2415
22666W        W65583   6.121   7.088  26.434  0.0656  0.2850 -0.2597
22667W        W65584   6.700   7.602  26.939  0.1243  0.2085  0.3034
22668W        W65585   3.343   2.816  26.595 -0.1690  0.1970 -0.1537
22669W        W65586   5.628   6.129  23.594  0.0805 -0.0548 -0.1945
22670W        W65587   6.223   7.810  26.863  0.0077  0.3358 -0.0729
22671W        W65588   4.232   7.407  22.166  0.1807  0.2625  0.0879
22672W        W65589   8.255   3.743  26.140  0.1852 -0.1635  0.0793
22673W        W65590   6.368   7.101  25.133 -0.1583  0.1582  0.0086
22674W        W65591   3.668   3.355  27.051 -0.0690  0.2504 -0.2094
22675W        W65592   6.395   3.499  26.229  0.1605  0.3812 -0.1181
22676W        W65593   6.640   5.466  24.797  0.1012  0.0342  0.1469
22677W        W65594   5.562   4.053  22.678 -0.1947 -0.0424  0.1888
22678W        W65595   6.375   3.211  26.664  0.1200 -0.2893 -0.1067
22679W        W65596   5.386   6.245  24.074 -0.0032 -0.0235 -0.2141
22680W        W65597   4.555   4.843  25.296 -0.0534  0.0319 -0.3819
22681W        W65598   5.466   4.416  25.544  0.0304  0.1230 -0.3126
22682W        W65599   6.264   3.445  27.124  0.0140 -0.0490  0.1558
22683W        W65600   6.588   5.457  27.166  0.0119  0.2822 -0.0209
22684W        W65601   6.606   5.680  25.956  0.2019  0.1031  0.1319
22685W        W65602   5.046   4.952  24.484  0.1223  0.0410 -0.2256
22686W        W65603   7.720   5.400  23.111  0.3611 -0.0569 -0.1014
22687W        W65604   6.900   7.519  27.840 -0.2063 -0.0917 -0.0573
22688W        W65605   6.361   7.249  26.981  0.3139 -0.1597  0.1093
22689W        W65606   6.805   5.706  27.989  0.1823  0.1864 -0.0642
22690W        W65607   7.092   6.403  25.704 -0.0075  0.1970  0.0177
22691W        W65608   4.806   3.195  23.952  0.2834 -0.0128 -0.2705
22692W        W65609   4.950   2.540  25.186  0.0539 -0.1251 -0.1313
22693W        W65610   5.893   7.919  26.261  0.2176 -0.0010 -0.1470
22694W        W65611   7.305   3.845  27.698 -0.2531  0.1697 -0.2484
22695W        W65612   4.029   2.818  26.199 -0.0376  0.0665 -0.0880
22696W        W65613   5.944   4.712  22.938  0.1024  0.2187  0.0562
22697W        W65614   6.651   6.778  27.092 -0.3201  0.4110  0.2017
22698W        W65615   5.205   3.321  25.576 -0.2219 -0.0935  0.0185
22699W        W65616   7.648   5.732  29.838 -0.1877 -0.1688  0.0245
22700W        W65617   6.038   5.138  27.331  0.0055  0.4488 -0.0453
22701W        W65618   7.797   3.984  27.744  0.0646  0.0016  0.2129
22702W        W65619   6.502   4.945  27.414  0.0472 -0.1067  0.1351
22703W        W65620   6.286   5.961  27.461 -0.4831  0.0222  0.1157
22704W        W65621   5.829   4.024  28.730  0.0350  0.0424 -0.0166
22705W        W65622   3.828   5.268   0.389  0.3297  0.0764  0.0682
22706W        W65623   6.325   5.543  28.953  0.1523 -0.1385  0.3163
22707W        W65624   7.243   5.732  29.368  0.0355  0.0439  0.0127
22708W        W65625   7.245   5.191  29.557 -0.2071  0.1359  0.3657
22709W        W65626   5.882   3.430   0.556  0.1203  0.1630  0.1038
22710W        W65627   6.902   5.900  29.657  0.0504 -0.2434 -0.1027
22711W        W65628   4.752   2.861  27.643  0.1447  0.0347 -0.1078
22712W        W65629   4.499   3.335  28.455 -0.0524 -0.0217 -0.1328
22713W        W65630   9.388   5.294  29.946 -0.0930  0.0842 -0.1032
22714W        W65631   4.926   5.991  29.229 -0.1103 -0.1283  0.1577
22715W        W65632   4.558   4.103  30.619  0.1158 -0.1270 -0.2425
22716W        W65633   3.565   3.998  28.155  0.3354  0.0152  0.5848
22717W        W65634   5.205   5.343  28.996  0.1554  0.0483  0.1298
22718W        W65635   2.803   4.776   0.325 -0.1109 -0.3249 -0.1994
22719W        W65636   4.401   2.681  31.747  0.1854 -0.0282  0.0236
22720W        W65637   4.580   6.773  26.071  0.2189 -0.0665  0.3464
22721W        W65638   5.270   5.134  26.716  0.0783  0.2001  0.3580
22722W        W65639   4.292   3.286  28.020  0.0677 -0.2902 -0.2667
22723W        W65640   4.468   5.096  31.727 -0.0393 -0.0833 -0.0606
22724W        W65641   6.551   4.388  28.704  0.1101 -0.2814  0.0217
22725W        W65642   5.447   5.056  27.920  0.1037 -0.0755  0.0662
22726W        W65643   5.055   4.087  29.377  0.1535 -0.2494 -0.3044
22727W        W65644   7.270   5.652  27.808  0.0776 -0.0068 -0.2503
22728W        W65645   8.028   3.203  31.124  0.1129 -0.2156 -0.2842
22729W        W65646   3.932   5.784  28.720  0.0980 -0.0112 -0.2272
22730W        W65647   2.930   4.828  30.430  0.0167  0.3510 -0.1174
22731W        W65648   5.927   8.220  28.275  0.0842  0.2991 -0.1764
22732W        W65649   7.828   3.489  27.582  0.0782 -0.0274  0.0580
22733W        W65650   8.852   7.289  29.619 -0.0094 -0.0390  0.0902
22734W        W65651   7.038   8.525  29.404 -0.3389  0.0401  0.3094
22735W        W65652   4.996   7.166  27.025  0.0438  0.2325 -0.1775
22736W        W65653   6.013   7.351  31.063  0.1702  0.2376 -0.2081
22737W        W65654   7.559   5.364  29.195 -0.1235 -0.3626 -0.1187
22738W        W65655   6.979   6.296  29.113 -0.3051  0.0973 -0.1666
22739W        W65656   5.533   3.467  28.645  0.0021  0.0010 -0.0113
22740W        W65657   6.597   6.983  28.810 -0.0536 -0.3228 -0.0629
22741W        W65658   6.940   5.183  27.471 -0.0986  0.1502 -0.0283
22742W        W65659   6.393   3.632  29.279 -0.0869 -0.1710  0.1121
22743W        W65660   5.514   5.577  28.035 -0.2236  0.0897  0.1387
22744W        W65661   6.794   4.533  29.761  0.0169  0.0020 -0.1077
22745W        W65662   5.930   7.494  27.158  0.1473  0.1577 -0.0808
22746W        W65663   5.830   5.357  26.481  0.0242  0.0682 -0.3291
22747W        W65664   6.274   4.492  28.217  0.0653  0.0316 -0.0220
22748W        W65665   8.538   4.201  27.711 -0.1152  0.3544 -0.0655
22749W        W65666   5.849   5.286  30.245 -0.0791 -0.0438  0.1739
22750W        W65667   6.611   6.277  29.413  0.1182 -0.2835  0.1004
22751W        W65668   4.813   4.882   0.196  0.0460 -0.2124  0.1099
22752W        W65669   7.259   6.355  31.038  0.5008  0.1099 -0.1233
22753W        W65670   5.028   4.364  28.840 -0.1526 -0.3514 -0.2993
22754W        W65671   6.824   2.545  30.114 -0.0579  0.1327  0.0220
22755W        W65672   6.634   5.852  31.495  0.0686 -0.1212  0.0214
22756W        W65673   3.070   3.375  28.335  0.3377  0.1076 -0.0281
22757W        W65674   9.072   5.328  27.701 -0.1231 -0.0126 -0.2305
22758W        W65675   8.890   7.012  28.727 -0.0466  0.2843  0.0562
22759W        W65676   5.860   4.252  28.263  0.4285  0.1436  0.0081
22760W        W65677   6.286   6.380  30.651 -0.0223  0.1604  0.4435
22761W        W65678   2.436   5.242  28.808  0.3798 -0.0188  0.2315
22762W        W65679   3.225   5.422  29.327 -0.2793 -0.0783 -0.3116
22763W        W65680   5.083   3.179  26.060  0.1114  0.2165 -0.3922
22764W        W65681  10.673   7.733  30.062 -0.0474  0.1918 -0.2178
22765W        W65682   5.763   8.674  27.961 -0.4484  0.1490 -0.2696
22766W        W65683   5.664   2.952  30.957  0.0493 -0.0639  0.1204
22767W        W65684   4.743   5.757  29.691  0.0440  0.2445  0.2007
22768W        W65685   6.795   3.059  29.884 -0.1950 -0.1339  0.1401
22769W        W65686   5.369   5.213  26.052  0.1532  0.1562  0.1822
22770W        W65687   6.239   3.977  28.419 -0.2198  0.1355  0.2118
22771W        W65688   7.376   4.100  28.551 -0.0590  0.1565  0.0474
22772W        W65689   4.393   3.190  27.571 -0.0806  0.1625 -0.0368
22773W        W65690   5.457   5.288  28.542 -0.0030  0.0547  0.0933
22774W        W65691   7.005   7.601  30.652 -0.0056  0.2547 -0.2548
22775W        W65692   6.636   4.720  27.863  0.1229  0.2043  0.0419
22776W        W65693   6.311   5.853  29.395 -0.1853 -0.0580 -0.1282
22777W        W65694   6.443   4.889  29.702  0.0851 -0.2182 -0.2999
22778W        W65695   5.210   8.414  29.809 -0.1352  0.2284  0.0479
22779W        W65696   6.695   5.970  26.344 -0.0698  0.3153 -0.2950
22780W        W65697   3.893   5.351  26.909  0.2283 -0.1176  0.0665
22781W        W65698   5.769   4.574  29.187  0.3520 -0.0113  0.0160
22782W        W65699   5.274   2.894  31.324  0.2840  0.0471  0.3351
22783W        W65700   2.794   5.970  29.986 -0.2345 -0.5706 -0.3799
22784W        W65701   6.896   4.382  28.225 -0.0975 -0.2390 -0.0584
22785W        W65702   1.870   4.726  28.796  0.1934  0.0039  0.1639
22786W        W65703   6.791   3.960  29.139 -0.0480  0.0803 -0.0162
22787W        W65704   4.349   4.958  28.756  0.1205  0.0555 -0.3061
22788W        W65705   7.688   8.358  28.562  0.0980  0.0419 -0.0078
22789W        W65706   5.739   4.897  26.259  0.1503  0.0569  0.1031
22790W        W65707   6.578   6.093  27.791 -0.2320  0.1119 -0.1098
22791W        W65708   4.528   4.641  26.781  0.0760  0.2393  0.0557
22792W        W65709   5.166   3.489  28.258  0.3478  0.0137 -0.1592
22793W        W65710   3.660   4.027   1.118 -0.0589  0.1900  0.0893
22794W        W65711   3.737   5.350  29.655  0.2578 -0.3513  0.0852
22795W        W65712   6.318   3.494  31.209 -0.1594 -0.1544  0.3037
22796W        W65713   3.832   4.051  26.923 -0.0002  0.0061  0.0877
22797W        W65714   8.962   3.887  27.703  0.0030 -0.1162 -0.1019
22798W        W65715   4.274   3.269  30.443 -0.3151 -0.0527  0.1258
22799W        W65716   3.618   5.688  27.907 -0.1334  0.1479 -0.3400
22800W        W65717   5.979   4.227   0.240  0.0828 -0.2176  0.1296
22801W        W65718   6.553   6.508  26.666  0.0011 -0.2675 -0.1697
22802W        W65719   9.073   5.652  31.678  0.0876  0.0415 -0.4690
22803W        W65720   7.312   6.709  27.667  0.1003 -0.1860  0.0910
22804W        W65721   2.315   5.626  30.713 -0.0728 -0.2717  0.2006
22805W        W65722   3.163   4.013  26.730 -0.0302 -0.3172  0.2698
22806W        W65723   5.068   5.204  28.211 -0.0138  0.0095 -0.0460
22807W        W65724   6.153   6.540  30.150 -0.1875  0.1046 -0.1832
22808W        W65725   5.690   2.703  28.293 -0.1053 -0.2488 -0.0775
22809W        W65726   7.643   7.609  28.933  0.1366 -0.0929 -0.1204
22810W        W65727   4.913   3.878  28.110 -0.1594 -0.0636 -0.0963
22811W        W65728   4.117   6.372  30.647 -0.2268  0.2071  0.0404
22812W        W65729   6.561   6.031  30.448  0.3664  0.0010 -0.1033
22813W        W65730   3.537   4.899  29.921 -0.0589  0.1842  0.1485
22814W        W65731   4.439   4.542  27.299  0.1006  0.0447  0.0775
22815W        W65732   4.021   4.648  27.966 -0.0914 -0.1826  0.0930
22816W        W65733   7.969   6.033  28.273 -0.1980  0.0859  0.1053
22817W        W65734   4.233   6.985  25.397  0.3330  0.0571 -0.0746
22818W        W65735   4.761   6.682  26.852 -0.1581 -0.0279 -0.1635
22819W        W65736   5.462   5.643  31.016 -0.2277  0.1090  0.0050
22820W        W65737   5.586   3.625  30.604  0.1826 -0.0381 -0.1444
22821W        W65738   5.622   3.740   0.071 -0.4231 -0.0698 -0.0470
22822W        W65739   6.976   6.278  31.438  0.0899 -0.0122  0.0864
22823W        W65740   3.822   3.027  28.087  0.0217 -0.1520 -0.3604
22824W        W65741   5.199   6.433  31.529 -0.1075 -0.0103 -0.0693
22825W        W65742   7.173   4.280  29.430 -0.2122  0.1373  0.3852
22826W        W65743   6.027   5.305  25.979  0.1825 -0.0969 -0.0691
22827W        W65744   6.579   6.731  30.382  0.3919 -0.0991 -0.0190
22828W        W65745   6.884   2.827  27.376  0.0022 -0.0118 -0.1641
22829W        W65746   4.548   4.190  28.495  0.1077  0.2468  0.2540
22830W        W65747   6.654   2.723  27.828  0.2889  0.0048 -0.1670
22831W        W65748   5.652   7.206  29.596  0.3439 -0.4672 -0.0490
22832W        W65749   6.035   5.179  29.208 -0.0775  0.1321 -0.2652
22833W        W65750   5.773   6.457  30.505  0.0105 -0.0335 -0.0744
22834W        W65751   4.277   1.942  28.387  0.0891 -0.1477 -0.2352
22835W        W65752   7.132   5.977  28.238  0.0329  0.1242 -0.2064
22836W        W65753   6.564   7.820  29.101  0.0972  0.0498 -0.2475
22837W        W65754   6.273   5.688   0.375 -0.2268 -0.0195 -0.1685
22838W        W65755   8.550   4.624  28.039 -0.2491 -0.1597  0.1233
22839W        W65756   5.957   3.204  30.612  0.0501 -0.1519 -0.2699
22840W        W65757   5.336   2.744  26.367  0.0303 -0.1217  0.0916
22841W        W65758   6.941   4.277  27.707 -0.0365  0.1413  0.2583
22842W        W65759   3.724   4.509  28.444  0.1229 -0.1073 -0.2517
22843W        W65760   8.203   5.007  31.612 -0.1143 -0.1046 -0.0506
22844W        W65761   5.845   4.094  31.682 -0.1128 -0.1793  0.0388
22845W        W65762   4.783   1.943   0.273  0.2342 -0.1922  0.0793
22846W        W65763   7.182   3.730  30.870  0.1039 -0.3307 -0.0504
22847W        W65764   7.630   4.984  28.858  0.0919 -0.1117 -0.4347
22848W        W65765   6.202   5.777  28.001 -0.1753 -0.1822 -0.2982
22849W        W65766   5.384   4.678  27.107 -0.1039  0.0217  0.0849
22850W        W65767   6.095   4.628  30.735  0.1853 -0.0068 -0.0130
22851W        W65768   4.311   5.477  29.529 -0.0985  0.2040 -0.0784
22852W        W65769   5.298   5.801  28.956 -0.3592 -0.1185 -0.1700
22853W        W65770   8.349   4.275  31.191 -0.1168 -0.2121 -0.0193
22854W        W65771   7.753   4.941  29.542  0.1441  0.2740  0.0380
22855W        W65772   5.034   4.309  29.874  0.3757  0.1104 -0.1451
22856W        W65773   6.779   4.878  28.391 -0.0385 -0.1436 -0.0399
22857W        W65774   6.074   4.489  28.759  0.0369 -0.0156  0.0935
22858W        W65775   4.400   3.814  28.077 -0.0031  0.0557  0.0929
22859W        W65776   4.973   4.010  30.407 -0.2376 -0.0593  0.0069
22860W        W65777   6.937   8.395  28.020  0.3491 -0.2169 -0.0012
22861W        W65778   6.107   6.278  27.042  0.2125  0.0307 -0.3170
22862W        W65779   7.694   6.617  30.703 -0.3010  0.0823 -0.0135
22863W        W65780   3.596   7.329  27.326  0.1774  0.1931  0.0449
22864W        W65781   6.733   2.694  28.681 -0.5316  0.0749  0.2710
22865W        W65782   4.146   5.375  27.401 -0.3061  0.1230 -0.1623
22866W        W65783   4.941   3.255  28.675 -0.0284  0.0549 -0.6528
22867W        W65784   3.549   3.182  28.498  0.0039  0.2646 -0.0282
22868W        W65785   7.334   4.221  28.062 -0.0507  0.0638 -0.1935
22869W        W65786   7.083   7.006  29.963 -0.1598 -0.5743  0.3821
22870W        W65787   4.074   5.412  30.014 -0.1064  0.1401  0.4500
22871W        W65788   6.282   2.702  29.128 -0.4043 -0.0011  0.1344
22872W        W65789   6.223   7.991  29.440  0.4046  0.1600  0.0719
22873W        W65790   2.915   4.500  29.125 -0.0250  0.1544 -0.2832
22874W        W65791   6.433   2.966  28.376  0.0886  0.2938 -0.1216
22875W        W65792   5.457   4.191  30.485 -0.1418 -0.3260 -0.0358
22876W        W65793   6.528   7.542  29.526  0.1555  0.0284 -0.3568
22877W        W65794   4.865   3.632  25.907 -0.1394 -0.4373  0.2241
22878W        W65795   7.508   4.504   0.503  0.1329 -0.2774 -0.1794
22879W        W65796   4.105   4.197  28.771  0.0970 -0.0721  0.1339
22880W        W65797   5.606   5.478  29.211  0.3336 -0.0674  0.1118
22881W        W65798   5.562   4.952  29.406  0.0605 -0.0939 -0.1748
22882W        W65799   4.581   5.171  28.126 -0.0980 -0.0231  0.3181
22883W        W65800   4.418   5.832  30.073  0.0861 -0.1396  0.4275
22884W        W65801   4.951   5.036  31.592  0.1761 -0.0389  0.2927
22885W        W65802   5.357   5.726  29.974 -0.2291 -0.2254 -0.1519
22886W        W65803   6.627   3.673  28.789  0.0424 -0.0508  0.1966
22887W        W65804   4.769   3.091  28.115 -0.1199 -0.0170 -0.5812
22888W        W65805   4.651   4.679  30.856 -0.2659 -0.0729 -0.0723
22889W        W65806   6.851   4.261  30.196  0.1333  0.3600  0.0193
22890W        W65807   7.774   4.608  28.612  0.1814 -0.0202 -0.0235
22891W        W65808   6.351   7.204  30.416  0.0570 -0.1518 -0.0803
22892W        W65809   4.704   5.412  29.180 -0.0295 -0.0616 -0.0410
22893W        W65810   7.133   6.887  28.472  0.1530 -0.0398  0.2268
22894W        W65811   5.206   6.765  29.753  0.2061 -0.0111  0.0589
22895W        W65812   5.328   4.743  28.321  0.3805 -0.0537  0.2832
22896W        W65813   4.797   5.247  28.648 -0.1136  0.0075 -0.0822
22897W        W65814   4.442   5.136  29.952  0.4298 -0.1652  0.0030
22898W        W65815   5.313   5.424  30.558 -0.1303 -0.3793 -0.1684
22899W        W65816   3.243   4.509  28.296 -0.0350 -0.1253 -0.0679
22900W        W65817   6.337   4.296  26.925 -0.0089 -0.0275 -0.1229
22901W        W65818   3.327   5.569  30.661  0.0302  0.3479 -0.0085
22902W        W65819   8.780   4.114  28.597 -0.1097 -0.3708 -0.2895
22903W        W65820   6.549   5.054  28.960  0.2687 -0.1520  0.2910
22904W        W65821   5.749   4.935  30.541 -0.1954  0.3393 -0.1219
22905W        W65822   6.619   4.184   0.092 -0.1470  0.0214  0.0979
22906W        W65823   5.806   4.245  26.945  0.0117  0.1927 -0.1984
22907W        W65824   6.359   4.362  29.970 -0.2180 -0.1928  0.2527
22908W        W65825   4.764   4.783  29.944  0.0362  0.0708 -0.1036
22909W        W65826   5.461   5.296  29.766  0.0933  0.1410  0.1477
22910W        W65827   2.050   4.788  31.006  0.1841 -0.3377  0.1640
22911W        W65828   6.334   7.926  30.794 -0.1037  0.2548  0.0869
22912W        W65829   1.356   5.640   0.371 -0.1900 -0.1850  0.2541
22913W        W65830   6.216   3.978  27.374  0.1171 -0.0760 -0.1186
22914W        W65831   5.916   2.997  27.275 -0.0443  0.3680 -0.0304
22915W        W65832   5.529   4.400  29.670  0.1013  0.0417 -0.0949
22916W        W65833   8.621   6.288  30.626  0.2789 -0.3050 -0.1347
22917W        W65834   4.949   5.322  26.382  0.0425 -0.0021  0.0658
22918W        W65835   7.537   3.471  29.767  0.1789  0.0269 -0.2891
22919W        W65836   5.146   7.287  29.593 -0.0187 -0.4978 -0.1073
22920W        W65837   7.406   5.979  28.968 -0.0953  0.0553  0.1886
22921W        W65838   7.623   5.588  28.256 -0.1432 -0.1330  0.2103
22922W        W65839   6.008   8.028  30.381  0.2214 -0.2055 -0.0567
22923W        W65840   5.058   5.794   1.204 -0.0699  0.1348 -0.0184
22924W        W65841   5.514   4.444  28.702  0.1171  0.2408  0.1127
22925W        W65842   7.556   4.378  29.046 -0.1685  0.0425  0.1096
22926W        W65843   4.441   4.321  31.157  0.0810  0.0201 -0.0667
22927W        W65844   8.968   4.760   0.712  0.1579  0.0817  0.0991
22928W        W65845   4.257   7.132   0.085  0.0497  0.3469 -0.1302
22929W        W65846   4.357   6.198  31.086  0.2693 -0.0493 -0.0313
22930W        W65847   6.185   6.819  28.586 -0.0138  0.0716 -0.0508
22931W        W65848   7.196   4.804  26.624  0.0933  0.3823 -0.2138
22932W        W65849   6.788   3.987  29.722 -0.1839 -0.2992  0.0023
22933W        W65850   7.469   5.703  30.301 -0.1603  0.0592 -0.1724
22934W        W65851   5.499   4.889  25.268 -0.0674 -0.0260 -0.1431
22935W        W65852   3.271   2.968  30.938  0.0222  0.1388  0.1384
22936W        W65853   7.763   4.372  30.993 -0.1160 -0.0168 -0.0494
22937W        W65854   4.864   2.387  27.866 -0.0624 -0.2157 -0.0616
22938W        W65855   5.655   3.896  29.618  0.0280  0.0421 -0.3456
22939W        W65856   4.817   4.940  29.169  0.1690 -0.2213 -0.0248
22940W        W65857   5.791   5.501  27.597 -0.0122 -0.1866 -0.2260
22941W        W65858   8.156   5.116  28.637 -0.0401  0.3023 -0.2488
22942W        W65859   3.817   3.450  29.286 -0.0584 -0.1279  0.0068
22943W        W65860   4.990   7.880  30.631  0.0980  0.1626  0.0753
22944W        W65861   3.582   4.229  27.412  0.0789  0.2145 -0.3508
22945W        W65862   6.238   4.712  29.139  0.2153 -0.3124  0.1179
22946W        W65863   6.111   6.337  29.332 -0.0751  0.3108  0.1358
22947W        W65864   8.781   5.566  31.189  0.0086  0.1149  0.2814
22948W        W65865   9.429   2.848  27.385  0.0540  0.1808 -0.1579
22949W        W65866   7.268   3.076  29.653  0.2166  0.0471  0.0785
22950W        W65867   4.779   4.752  28.478  0.0372 -0.1494  0.0979
22951W        W65868   5.611   6.671  30.050  0.0280 -0.1473 -0.0502
22952W        W65869   6.378   7.348  29.103  0.3580 -0.3341 -0.1299
22953W        W65870   2.276   5.627  29.082 -0.2622  0.2422 -0.1471
22954W        W65871   4.256   5.073  29.215 -0.0889 -0.4100 -0.3738
22955W        W65872   4.623   3.024  29.908 -0.1718 -0.1347  0.3464
22956W        W65873   7.066   2.644  29.670 -0.0638  0.0326 -0.1071
22957W        W65874   4.451   4.946  27.669 -0.1351  0.1317  0.2177
22958W        W65875   6.329   6.052  31.856  0.3622 -0.0100  0.0419
22959W        W65876   6.592   5.657   0.031  0.0380 -0.0382 -0.2018
22960W        W65877   4.350   6.729  28.784 -0.0783 -0.0559 -0.0215
22961W        W65878   7.508   5.508  30.850  0.1226 -0.0846 -0.2494
22962W        W65879   8.538   4.608  31.517  0.2085 -0.1756 -0.0694
22963W        W65880   5.239   5.071  30.173  0.1981  0.0071  0.0719
22964W        W65881   4.221   3.891  30.359 -0.3214 -0.1468 -0.0391
22965W        W65882   5.529   3.821   1.019  0.1001  0.0629 -0.2054
22966W        W65883   6.454   6.604  29.053  0.1307 -0.2042  0.0657
22967W        W65884   5.177   3.734  27.660  0.1660  0.0004  0.2806
22968W        W65885   7.500   5.738  26.862  0.0527  0.2431 -0.3539
22969W        W65886   4.152   9.460  30.856  0.1487 -0.1499 -0.1097
22970W        W65887   5.364   6.167  30.388 -0.0371 -0.0241 -0.1820
22971W        W65888   3.515   6.004  27.578  0.0370  0.2234 -0.1753
22972W        W65889   5.445   4.165  27.917 -0.2027  0.2959 -0.0112
22973W        W65890   5.213   4.813  28.816  0.2384 -0.4934 -0.1757
22974W        W65891   5.670   5.738  28.642 -0.0101  0.1172 -0.2112
22975W        W65892   5.147   3.214  27.691  0.0241  0.2382 -0.0070
22976W        W65893   5.130   5.605  29.415  0.1691 -0.0128  0.0792
22977W        W65894   6.695   7.929  25.304  0.1286  0.1671 -0.1825
22978W        W65895   6.211   6.157  29.770 -0.2584  0.1151 -0.1623
22979W        W65896   4.210   5.986  29.673  0.1631  0.2042  0.1956
22980W        W65897   9.244   4.375  30.296 -0.3492  0.1647 -0.1846
22981W        W65898   5.577   3.196  26.358 -0.1996 -0.1429  0.1820
22982W        W65899   7.295   5.541  28.741 -0.1498 -0.0466 -0.0885
22983W        W65900   7.132   3.729  29.398 -0.2165  0.2808 -0.2570
22984W        W65901   5.023   6.622  30.215 -0.0738  0.0095  0.2290
22985W        W65902   4.588   5.750  31.004 -0.0491  0.0103 -0.1858
22986W        W65903   5.577   3.526  27.877  0.2555 -0.2824 -0.1564
22987W        W65904   4.698   5.656  31.811  0.1493  0.2018  0.3076
22988W        W65905   7.001   2.628  31.417  0.3650 -0.6693  0.0575
22989W        W65906   4.985   7.113  30.099  0.0374 -0.0056 -0.5187
22990W        W65907   6.465   7.180  27.859  0.2728  0.1818  0.0429
22991W        W65908   3.202   3.000  30.230  0.2365  0.0743 -0.2207
22992W        W65909   4.834   3.631  30.769  0.0308 -0.1543 -0.1225
22993W        W65910   7.735   2.765  30.988 -0.4463  0.1967  0.1517
22994W        W65911   4.943   5.953  27.191  0.0954 -0.1292 -0.0797
22995W        W65912   6.696   4.545  29.157 -0.1643 -0.0358  0.2832
22996W        W65913   5.844   6.556  28.901  0.0728 -0.1589 -0.1845
22997W        W65914   6.406   6.702  29.715  0.4175 -0.4277  0.1509
22998W        W65915   7.391   8.254  28.188  0.4716  0.1943  0.1512
22999W        W65916   3.977   4.570  27.453 -0.0191 -0.0663  0.3813
23000W        W65917   5.932   3.590  31.579  0.0524  0.1270 -0.0221
23001W        W65918   2.967   3.157  29.294  0.0898  0.3132 -0.0849
23002W        W65919   6.403   3.955  30.252 -0.0443  0.1785 -0.2098
23003W        W65920   4.729   4.456  29.334 -0.1749  0.1632  0.1087
23004W        W65921   8.660   5.421  29.348 -0.2270  0.4294  0.0368
23005W        W65922   8.077   6.317  30.577  0.1883 -0.1739 -0.0863
23006W        W65923   4.861   4.314  27.765 -0.1234  0.3829 -0.0579
23007W        W65924   7.153   5.485  29.938  0.1193  0.0872  0.0386
23008W        W65925   8.542   6.033  31.309  0.2091  0.1726 -0.2426
23009W        W65926   5.924   4.371  26.119 -0.2510 -0.0917 -0.1892
23010W        W65927   7.976   7.331  29.826 -0.1148 -0.0227  0.0882
23011W        W65928   5.372   3.968  28.465  0.1026  0.0480  0.0161
23012W        W65929   6.483   3.175  28.835  0.2677 -0.2380 -0.0700
23013W        W65930   4.181   4.920  27.181 -0.0052  0.0166 -0.1092
23014W        W65931   5.632   4.624   0.630  0.0653 -0.0295  0.0768
23015W        W65932   7.297   6.838  30.473 -0.0225 -0.1545  0.0218
23016W        W65933   1.699   3.589  27.036 -0.2616 -0.2509 -0.1708
23017W        W65934   8.160   5.094  26.537 -0.2536 -0.0448 -0.0865
23018W        W65935   7.267   3.282  30.182 -0.2625 -0.0897 -0.2866
23019W        W65936   3.960   6.569  27.387 -0.1309  0.1930 -0.3594
23020W        W65937   5.070   4.318  28.274  0.0233  0.0267  0.3747
23021W        W65938   7.092   4.693  30.694  0.0562 -0.2393  0.0816
23022W        W65939   5.311   1.602  31.467 -0.3015 -0.1973 -0.0370
23023W        W65940   6.536   7.526  28.639  0.1070 -0.1510  0.0073
23024W        W65941   6.933   4.970  31.234  0.1499  0.0091  0.1188
23025W        W65942   6.999   5.370  29.124 -0.6057  0.0184 -0.0182
23026W        W65943   3.121   5.033  29.717 -0.0474  0.0083 -0.0053
23027W        W65944   3.193   6.050  29.656  0.0752  0.1309 -0.1746
23028W        W65945   5.793   6.000  29.534  0.1888 -0.0255  0.0228
23029W        W65946   5.669   4.295   1.038 -0.3920 -0.1216  0.1477
23030W        W65947   4.486   6.867  27.264  0.1509  0.0929  0.1779
23031W        W65948   8.253   2.393   0.521 -0.1375  0.0605  0.1979
23032W        W65949   3.682   5.664  31.195 -0.0485  0.1546 -0.1726
23033W        W65950   6.082   8.078  31.717  0.2965 -0.4031 -0.1134
23034W        W65951   4.817   3.731  28.545  0.1595 -0.1331 -0.0455
23035W        W65952   7.970   6.653  30.246  0.0840  0.0671  0.2585
23036W        W65953   5.209   5.675  28.455 -0.1500 -0.4838 -0.0998
23037W        W65954   5.831   6.415  31.164  0.2418 -0.1699 -0.4934
23038W        W65955   6.320   5.422  28.308  0.0433 -0.2523 -0.0193
23039W        W65956   9.338   4.338  28.565  0.1038  0.0288 -0.2761
23040W        W65957   6.700   6.466  28.622  0.0917  0.0624 -0.2142
23041W        W65958   4.514   2.965  27.153  0.2043  0.1611  0.2243
23042W        W65959   8.556   5.130  28.336 -0.1652  0.0269 -0.0961
23043W        W65960   5.227   3.607  29.486  0.3497 -0.2803  0.0395
23044W        W65961   5.420   4.287   0.101 -0.2984 -0.1360  0.1981
23045W        W65962   5.685   4.925  28.858 -0.2360  0.1729 -0.0445
23046W        W65963   5.842   4.894  26.851 -0.0829 -0.0997 -0.0083
23047W        W65964   5.027   5.868  30.614 -0.1201  0.0108 -0.2259
23048W        W65965   5.660   3.020  29.904  0.3753  0.1328 -0.0640
23049W        W65966   5.528   6.242  29.110  0.1105  0.1388 -0.0149
23050W        W65967   4.072   4.283  30.119 -0.1886 -0.0330 -0.0255
23051W        W65968   4.023   2.865  27.654  0.2592  0.5010  0.0649
23052W        W65969   5.818   4.506  27.364  0.0643  0.2009 -0.2586
23053W        W65970   2.739   5.050  31.238 -0.4516  0.3567  0.0894
23054W        W65971   1.942   2.464  28.200  0.1269  0.0358 -0.1457
23055W        W65972   5.609   4.514  26.553 -0.0505 -0.3020 -0.3527
23056W        W65973   6.726   5.223  28.039 -0.1950  0.0100  0.2387
23057W        W65974   4.932   4.773  27.988  0.1330 -0.1426 -0.5444
23058W        W65975   8.905   5.943  30.075  0.3137 -0.2579  0.1276
23059W        W65976   5.133   4.492  26.633 -0.1626 -0.2415  0.3968
23060W        W65977   4.708   5.409  31.355  0.2113  0.1192  0.0241
23061W        W65978   4.925   4.278  30.884  0.0919 -0.0772 -0.1463
23062W        W65979   3.844   3.533  28.766  0.0576  0.0116  0.0449
23063W        W65980   6.484   4.225  29.442  0.3941 -0.1889 -0.1183
23064W        W65981   8.945   7.954  26.632  0.0818 -0.1259 -0.0486
23065W        W65982  10.246   4.937  27.031  0.0102  0.0271 -0.2570
23066W        W65983   5.178   4.791  29.743  0.2243 -0.1262 -0.2234
23067W        W65984   7.383   7.854  30.954 -0.1663  0.4883  0.0975
23068W        W65985   3.514   4.485  30.176  0.1152  0.2849 -0.0478
23069W        W65986   8.305   4.976  29.537  0.0628  0.3222 -0.1363
23070W        W65987   4.819   4.370  31.460  0.0151 -0.4444 -0.1256
23071W        W65988   7.974   4.226  29.381  0.0318 -0.1025 -0.0522
23072W        W65989   7.214   3.912  30.341  0.3597  0.1953 -0.1477
23073W        W65990   5.989   4.615  29.613 -0.0550  0.2678  0.1839
23074W        W65991   4.998   5.338  30.983  0.1759 -0.1000 -0.0529
23075W        W65992   3.982   5.358  31.791 -0.1297 -0.0856 -0.1990
23076W        W65993   8.230   5.658  29.156 -0.1791  0.3217  0.1467
23077W        W65994   4.643   4.014  28.969 -0.2342 -0.1723  0.2571
23078W        W65995   4.799   3.250  29.477  0.2154 -0.1686 -0.0989
23079W        W65996   5.363   5.698  27.428  0.0531 -0.0818  0.1930
23080W        W65997   4.374   4.768  29.617 -0.0672  0.0938 -0.4735
23081W        W65998   7.623   3.824  28.884 -0.0791  0.1844 -0.1361
23082W        W65999   4.043   4.790  30.106 -0.0987 -0.0750 -0.1218
23083W        W66000   5.904   6.736  29.663 -0.3915  0.1570 -0.2284
23084W        W66001   8.474   5.028  31.193  0.1878  0.0978  0.0765
23085W        W66002   6.145   2.202  26.415  0.1940 -0.0565 -0.0237
23086W        W66003   6.822   4.958  29.382 -0.0241  0.2606 -0.3511
23087W        W66004   7.016   7.014  27.952  0.1761  0.0611 -0.0302
23088W        W66005   9.791   6.172  31.014 -0.0128 -0.0425 -0.1882
23089W        W66006   5.502   6.243  28.611 -0.1281  0.1140  0.0238
23090W        W66007   6.506   3.509  29.852 -0.2469 -0.1315 -0.1155
23091W        W66008   5.337   3.891  30.056 -0.0160 -0.1055 -0.0686
23092W        W66009   4.937   6.419  30.657 -0.0631  0.0284 -0.0078
23093W        W66010   5.941   6.078  28.938 -0.0170  0.1991 -0.0582
23094W        W66011   8.572   3.559  30.440 -0.0500  0.0061 -0.2621
23095W        W66012   6.301   4.063  28.939  0.1428  0.1483 -0.1606
23096W        W66013   5.132   2.119  26.871 -0.1038  0.0803  0.0766
23097W        W66014   6.855   7.168  30.485  0.0774  0.1768 -0.1673
23098W        W66015   7.793   5.315  30.372  0.0679  0.1840  0.0762
23099W        W66016   7.067   4.613   0.208  0.0650 -0.0932  0.1490
23100W        W66017   6.463   5.071  31.267  0.1172 -0.1042 -0.2481
23101W        W66018   3.210   6.064  31.326 -0.0073  0.0574  0.1060
23102W        W66019   4.341   7.149  30.724 -0.2449 -0.1703 -0.1502
23103W        W66020   6.214   6.785  31.122 -0.2428  0.0743  0.2711
23104W        W66021   5.631   6.167  29.978 -0.2873  0.2398  0.3708
23105W        W66022   7.302   4.240  30.889  0.0382  0.1077 -0.0294
23106W        W66023   3.850   4.450   0.265  0.0786  0.0834  0.0281
23107W        W66024   8.179   6.795  30.805  0.0822  0.1388 -0.0706
23108W        W66025   7.890   7.123  31.096 -0.3688 -0.2903  0.1211
23109W        W66026   6.830   5.116  29.908 -0.1263  0.0016 -0.0026
23110W        W66027   4.358   4.561  30.475  0.2091  0.2405 -0.0003
23111W        W66028   8.702   5.725   0.256 -0.2356  0.1005  0.2533
23112W        W66029   6.999   6.556  29.575  0.1771  0.0563 -0.1166
23113W        W66030   7.603   4.458  31.490 -0.3061  0.0601  0.0438
23114W        W66031   4.384   7.615  31.808 -0.0673 -0.0687 -0.0442
23115W        W66032   5.989   4.974  31.026 -0.0573  0.0447 -0.0168
23116W        W66033   7.707   4.952  31.622  0.2994  0.0613  0.1103
23117W        W66034   3.355   3.256  31.670 -0.3718 -0.1285  0.0464
23118W        W66035   4.412   3.931   0.665 -0.2261  0.3683  0.1604
23119W        W66036   5.043   5.913   0.688  0.0507  0.0568 -0.1891
23120W        W66037   5.522   8.204  31.866  0.0702  0.0742 -0.0154
23121W        W66038   7.985   4.604   0.344  0.0757  0.0171  0.0243
23122W        W66039   6.240   5.144  30.583  0.0499 -0.2162 -0.1623
23123W        W66040   5.124   4.844  30.672  0.1438  0.0071 -0.0271
23124W        W66041   8.291   5.537  31.318  0.2549 -0.1476  0.1343
23125W        W66042   5.144   6.100  29.682  0.0393  0.2448  0.1343
23126W        W66043   3.743   7.481   1.437  0.0148  0.0496  0.1453
23127W        W66044   5.334   4.831  31.937 -0.0144 -0.2365  0.1270
23128W        W66045   6.228   4.815  30.210  0.0112 -0.0550 -0.0439
23129W        W66046   6.412   5.735  29.947  0.0220 -0.0121 -0.1961
23130W        W66047   4.303   5.723  31.414 -0.0282 -0.0997  0.2563
23131W        W66048   8.944   5.095  31.058 -0.2797 -0.1022  0.3233
23132W        W66049   5.678   3.688  29.137  0.1195  0.0731 -0.0400
23133W        W66050   4.319   4.322   1.139 -0.4134  0.1565  0.0698
23134W        W66051   5.880   9.283  27.730  0.2087 -0.0678 -0.0676
23135W        W66052   5.845   5.637  29.843 -0.1788  0.1432  0.0848
23136W        W66053   8.005   5.963   0.141  0.2249  0.1301 -0.1976
23137W        W66054   6.435   5.313   0.626 -0.0295 -0.0036 -0.0183
23138W        W66055   4.744   5.046  30.390  0.1133  0.0008  0.3137
23139W        W66056   8.507   3.512  31.562 -0.0911 -0.0447 -0.1848
23140W        W66057   4.556   6.119  30.656  0.1344  0.1804  0.1223
23141W        W66058   4.218   3.580  30.796 -0.1640  0.0955 -0.0710
23142W        W66059   5.401   4.530  31.570 -0.3011 -0.1548 -0.0655
23143W        W66060   1.988   4.788  31.904  0.0401 -0.0397 -0.2466
23144W        W66061   5.247   7.441   0.511 -0.0933  0.0940  0.0808
23145W        W66062   5.104   5.364   0.011  0.0090 -0.1133 -0.0172
23146W        W66063   5.819   5.453  30.757  0.0060  0.3343  0.0995
23147W        W66064   7.139   6.851  31.521  0.0440  0.1269  0.2173
23148W        W66065   6.637   6.788  31.460  0.1637  0.1112 -0.0325
23149W        W66066   7.476   6.060  30.634 -0.1332 -0.2967  0.0624
23150W        W66067   7.147   3.740  31.486  0.0208  0.0125  0.0910
23151W        W66068   2.400   5.084  30.815  0.0311 -0.1135  0.1505
23152W        W66069   6.586   5.422  29.436 -0.0639 -0.0593  0.0802
23153W        W66070   5.259   3.572  31.069  0.0386 -0.0202 -0.2552
23154W        W66071   4.400   4.206   0.220  0.2445  0.3698  0.2205
23155W        W66072   9.964   5.142  30.598 -0.1136 -0.1285 -0.0212
23156W        W66073   4.607   6.593  31.387 -0.2536  0.2633  0.3317
23157W        W66074   4.912   6.956  30.589 -0.3158 -0.0653 -0.1522
23158W        W66075   5.525   7.612  30.966  0.1018 -0.0923  0.1688
23159W        W66076   1.313   4.244  29.684  0.3053 -0.0028  0.1128
23160W        W66077   5.686   5.234  31.834 -0.4146  0.2234 -0.1009
23161W        W66078   4.048   5.822  30.939  0.0945  0.2683  0.1728
23162W        W66079   3.214   4.881   0.542  0.1602 -0.1022 -0.0950
23163W        W66080   6.800   6.597  31.060 -0.1379 -0.2909  0.1826
23164W        W66081   9.101   5.080   1.427 -0.2613 -0.3746  0.1147
23165W        W66082   8.594   6.984   0.448  0.1283  0.1463  0.0361
23166W        W66083   4.423  10.647  19.403  0.0940 -0.1143 -0.1679
23167W        W66084   6.023   6.921  16.716 -0.1967  0.2903  0.1643
23168W        W66085   7.117   9.283  16.929  0.3035  0.0525  0.1091
23169W        W66086   7.180   9.973  15.834  0.4040 -0.3796 -0.2024
23170W        W66087   4.960   9.182  18.299  0.0715 -0.2432  0.0416
23171W        W66088   5.932  10.953  16.176 -0.2187  0.3632 -0.0892
23172W        W66089   2.873   8.011  19.675 -0.0046  0.2298  0.0362
23173W        W66090   6.450  10.925  16.910 -0.0325 -0.0925 -0.0234
23174W        W66091   9.182   9.624  17.334  0.0337 -0.0851  0.2858
23175W        W66092   6.722  10.607  17.173  0.3941  0.0673  0.2193
23176W        W66093   6.121   9.125  18.661  0.4756  0.1328  0.1024
23177W        W66094   6.280   9.604  17.387 -0.5688 -0.0622  0.1449
23178W        W66095   4.146   7.963  17.190 -0.3174 -0.1381 -0.0002
23179W        W66096   2.615   6.160  18.055  0.1162  0.2172 -0.0416
23180W        W66097   6.046  10.728  18.494  0.0924  0.1495  0.2695
23181W        W66098   3.974   9.846  17.227  0.1962  0.1349 -0.0587
23182W        W66099   6.763   9.847  19.607 -0.2248  0.0358 -0.4205
23183W        W66100   3.978   6.435  17.607  0.0789  0.0928  0.1483
23184W        W66101   5.502  10.094  17.698 -0.1200 -0.0730 -0.1084
23185W        W66102   4.387   6.561  20.717  0.1334  0.1365 -0.1462
23186W        W66103   5.260   8.811  19.765 -0.0473 -0.2284  0.0247
23187W        W66104   5.645  10.985  18.287  0.1298  0.0205 -0.0656
23188W        W66105   4.245   7.882  16.415 -0.4581  0.2296 -0.1867
23189W        W66106   4.153   9.408  19.625  0.2622  0.3080 -0.3140
23190W        W66107   3.034   9.987  20.777  0.0508  0.1999  0.2968
23191W        W66108   6.801   7.630  18.957  0.3673  0.1066 -0.0893
23192W        W66109   7.438   8.947  18.775 -0.2847 -0.1484 -0.3497
23193W        W66110   5.730  11.788  18.808 -0.1973  0.1441  0.0816
23194W        W66111   6.976  11.407  17.437 -0.0196  0.0098 -0.1123
23195W        W66112   7.507   6.880  19.725 -0.0778  0.0394  0.0099
23196W        W66113   5.620   8.725  17.676 -0.0863 -0.1727 -0.1189
23197W        W66114   3.717  12.069  17.610 -0.0414 -0.0044 -0.0502
23198W        W66115   5.132   8.215  17.408  0.0214 -0.0773 -0.0714
23199W        W66116   8.540  11.916  18.173  0.0721  0.1793 -0.0390
23200W        W66117   6.800  10.306  18.360 -0.1560  0.1322  0.1790
23201W        W66118   3.992  11.356  18.858 -0.2412 -0.0982 -0.0402
23202W        W66119   5.817   8.177  16.769  0.1884 -0.2313 -0.0463
23203W        W66120   7.856  11.259  18.867  0.2467  0.0691 -0.0529
23204W        W66121   8.036  11.602  18.510 -0.1661  0.0827 -0.3372
23205W        W66122   6.286   9.599  17.928  0.1417  0.0597 -0.0146
23206W        W66123   5.234   9.632  17.493  0.2425 -0.0309  0.0613
23207W        W66124   4.254  10.721  18.433 -0.2008 -0.2230 -0.4684
23208W        W66125   5.292   8.080  18.441 -0.3599  0.2681 -0.1253
23209W        W66126   5.601  11.597  19.786  0.0851  0.1475 -0.2915
23210W        W66127   3.196   8.576  19.217 -0.1089 -0.2568  0.2273
23211W        W66128   5.258   8.385  18.810 -0.0857 -0.0705  0.1416
23212W        W66129   4.955  10.272  17.152  0.0811  0.0351 -0.4507
23213W        W66130   6.771   8.220  16.572  0.2784 -0.0892  0.1217
23214W        W66131   5.981   7.687  17.248  0.0988  0.3975 -0.1114
23215W        W66132   5.989   9.219  17.463 -0.1201  0.2412 -0.1784
23216W        W66133   5.352   7.222  17.186  0.2933 -0.1942 -0.3876
23217W        W66134   5.276  10.103  18.636 -0.1768  0.1805 -0.3082
23218W        W66135   5.104   7.500  18.941 -0.1739  0.0211 -0.3045
23219W        W66136   7.308   9.151  19.867 -0.2529  0.0054  0.3665
23220W        W66137   7.006  10.141  16.982  0.2589  0.2072 -0.1353
23221W        W66138   6.999   8.603  16.216  0.0656 -0.1240  0.5145
23222W        W66139   4.059   9.168  17.766  0.1282 -0.1508  0.0725
23223W        W66140   1.488   8.002  19.710 -0.1524  0.4125  0.2328
23224W        W66141   7.160  11.695  18.467 -0.1255 -0.1650  0.0502
23225W        W66142   4.779  11.861  18.703 -0.0534 -0.0168 -0.1216
23226W        W66143   6.602  10.810  16.063  0.1351  0.0467  0.0017
23227W        W66144   4.315   8.508  17.006 -0.2561 -0.1562  0.0627
23228W        W66145   3.306   9.884  19.811 -0.2988  0.1617 -0.0150
23229W        W66146   3.668  10.238  19.844 -0.0925 -0.1184  0.1040
23230W        W66147   4.239   6.667  16.806  0.0829 -0.1324  0.0854
23231W        W66148   9.624   8.005  18.631  0.1964 -0.1533 -0.2155
23232W        W66149   2.973  10.505  20.592  0.0985  0.2228  0.2174
23233W        W66150   7.328   9.287  17.836 -0.3890  0.1569 -0.4164
23234W        W66151   4.494  10.324  18.275  0.3560 -0.0579  0.3606
23235W        W66152   7.182   9.689  18.150 -0.1815  0.2290  0.0749
23236W        W66153   6.303  10.191  17.252  0.0544 -0.1991 -0.0884
23237W        W66154   8.391   7.558  17.593  0.0664  0.3407 -0.0531
23238W        W66155   6.843   8.506  18.927  0.2024  0.0920  0.2539
23239W        W66156   2.893   9.652  16.314  0.2123 -0.4667  0.3170
23240W        W66157   2.423   8.841  17.625  0.0300 -0.0310 -0.0118
23241W        W66158   7.973  11.095  20.248 -0.0396  0.0872 -0.2994
23242W        W66159   6.469   9.870  16.893  0.1057 -0.1197 -0.0100
23243W        W66160   4.594  11.353  17.956  0.1586 -0.0746  0.0011
23244W        W66161   5.640   9.676  20.212 -0.3529 -0.2367  0.3851
23245W        W66162   6.774   9.379  21.054  0.0925 -0.0975 -0.1159
23246W        W66163   4.494  10.119  17.412  0.0037  0.1062  0.1862
23247W        W66164   2.621   8.603  18.700 -0.0885  0.0449 -0.0456
23248W        W66165   2.982   8.596  17.925  0.0745 -0.0819  0.1945
23249W        W66166   3.406   6.709  19.428  0.0709 -0.0009 -0.0799
23250W        W66167   6.727   8.435  19.434 -0.0755  0.1391  0.3256
23251W        W66168   6.393   6.768  17.476  0.2262 -0.0443  0.3818
23252W        W66169   4.589   5.584  17.717  0.0599  0.1081  0.0322
23253W        W66170   7.692   6.739  18.395 -0.1207 -0.2307  0.1651
23254W        W66171   2.139  10.077  17.750  0.5105  0.0357  0.2850
23255W        W66172   6.298  11.005  18.896 -0.1379  0.3257  0.1655
23256W        W66173   6.834   6.953  17.280  0.1267 -0.0947  0.0744
23257W        W66174   8.562   9.145  16.971  0.1927  0.0032  0.0020
23258W        W66175   3.362   8.237  19.869  0.1924  0.2418 -0.1280
23259W        W66176   4.361  10.105  19.037 -0.3449  0.1905  0.0034
23260W        W66177   4.803   4.817  19.863 -0.0700  0.1314 -0.2289
23261W        W66178   2.068   6.100  18.303 -0.1713  0.1194 -0.1910
23262W        W66179   7.053   8.234  18.236 -0.1886  0.0950  0.1081
23263W        W66180   4.488   7.938  17.886  0.2222 -0.2989 -0.2191
23264W        W66181   6.755   9.582  17.160 -0.2025  0.1305  0.0306
23265W        W66182   3.405   8.734  18.182  0.4019  0.3063  0.1368
23266W        W66183   3.566   9.637  16.999 -0.0166  0.0918  0.1128
23267W        W66184   7.547   8.192  19.322  0.2859  0.1187  0.0416
23268W        W66185   5.628   9.519  17.752  0.0120 -0.0130 -0.2743
23269W        W66186   8.444   9.668  21.784 -0.0896  0.1449  0.1928
23270W        W66187   4.427  11.166  17.096  0.0659 -0.0955  0.0268
23271W        W66188   6.867   8.371  19.918 -0.1164 -0.0368 -0.1225
23272W        W66189   4.841   7.316  16.909 -0.0631 -0.1829 -0.1092
23273W        W66190   3.289  10.680  18.144 -0.1528  0.0267 -0.0197
23274W        W66191   5.152   9.581  18.545 -0.3031 -0.1570 -0.0104
23275W        W66192   4.732   9.058  17.798  0.1230  0.2628  0.2007
23276W        W66193   6.480  11.378  18.362 -0.0332  0.4226  0.4470
23277W        W66194   4.726   8.558  18.790 -0.3428  0.0121 -0.0578
23278W        W66195   4.723   9.390  19.336 -0.3620 -0.2540 -0.6167
23279W        W66196   6.056   6.690  18.896  0.0189 -0.1427  0.0800
23280W        W66197   7.000  10.710  18.684  0.0476 -0.1283  0.2107
23281W        W66198   1.757  11.494  18.730  0.1411  0.2424  0.2745
23282W        W66199   4.600   8.109  17.448  0.0151  0.0818  0.2077
23283W        W66200   9.503  11.768  15.761  0.3890  0.0018 -0.1133
23284W        W66201   2.679   9.509  17.081  0.1731  0.2750 -0.0724
23285W        W66202   4.297   8.723  17.823  0.2521  0.0659  0.2118
23286W        W66203   4.926  10.554  18.558 -0.0117 -0.4272  0.2238
23287W        W66204   7.577   7.081  17.421 -0.1086 -0.2480  0.0715
23288W        W66205   3.584   9.964  18.496 -0.0874 -0.1054 -0.0118
23289W        W66206   6.372   7.333  20.693 -0.0366 -0.2460  0.1934
23290W        W66207   4.625  10.599  17.401 -0.3360  0.2123 -0.2999
23291W        W66208   6.892  10.466  20.040  0.0850 -0.2805 -0.0187
23292W        W66209   6.723   7.575  18.184 -0.3324  0.1663  0.0128
23293W        W66210   8.212   8.583  16.170  0.2062  0.0897 -0.2003
23294W        W66211   7.529   9.783  20.476  0.0358  0.0380 -0.1110
23295W        W66212   6.986  10.620  17.572  0.1741 -0.1617  0.0688
23296W        W66213   5.500   9.120  16.690  0.5624 -0.0833  0.1411
23297W        W66214   5.751   7.842  16.436  0.1350 -0.0728 -0.0688
23298W        W66215   4.644  10.976  18.672  0.3609  0.3373  0.0158
23299W        W66216   6.758   8.897  16.956 -0.0533 -0.0084 -0.2779
23300W        W66217   5.109  11.631  19.652 -0.2286  0.0252  0.0999
23301W        W66218   4.525   6.757  17.555  0.1262 -0.2593 -0.0786
23302W        W66219   6.669   9.979  15.973  0.1338  0.2224 -0.0825
23303W        W66220   4.218  10.769  20.369  0.0960 -0.0002 -0.1973
23304W        W66221   4.363  12.457  21.365  0.0205  0.0793 -0.3222
23305W        W66222   5.866  10.421  17.670 -0.3170  0.0271 -0.0701
23306W        W66223   4.704   8.488  17.945  0.0505  0.0838 -0.2458
23307W        W66224   5.647   8.665  16.511 -0.1059 -0.0500  0.3687
23308W        W66225   6.856   7.159  19.042 -0.0053 -0.2311 -0.2116
23309W        W66226   2.657  11.131  16.559 -0.2085 -0.0402  0.0398
23310W        W66227   7.979   7.796  17.718 -0.1610 -0.4713  0.0092
23311W        W66228   6.154   6.964  18.450  0.0698 -0.0701 -0.2504
23312W        W66229   6.125   8.745  19.359 -0.2131 -0.1011  0.3142
23313W        W66230   7.116  10.044  20.445  0.3634  0.0447 -0.4627
23314W        W66231   7.539   6.429  16.781 -0.1586 -0.3294  0.2115
23315W        W66232   8.065   8.295  19.110  0.2614 -0.0748  0.0041
23316W        W66233   5.316   8.825  18.607  0.3549 -0.1002  0.0166
23317W        W66234   4.696   7.407  18.517 -0.2153 -0.0625 -0.0395
23318W        W66235   6.277   8.553  17.814 -0.1535  0.1362  0.0029
23319W        W66236   4.583  11.113  19.256 -0.0882  0.2973  0.3408
23320W        W66237   6.895  10.836  19.629 -0.0696  0.1239  0.0078
23321W        W66238   6.622   8.936  16.003 -0.3718 -0.0850  0.1450
23322W        W66239   8.250  10.337  20.078  0.1776 -0.3824  0.1321
23323W        W66240   4.183   7.506  18.215 -0.0374  0.1509  0.2750
23324W        W66241   4.259   8.838  16.532 -0.1863  0.0741  0.0507
23325W        W66242   3.683   9.501  16.476 -0.2024  0.0494 -0.0557
23326W        W66243   6.121   6.524  17.160  0.0200  0.0550 -0.3012
23327W        W66244   4.986  10.929  19.029 -0.1567  0.3198 -0.0122
23328W        W66245   5.028   8.774  16.366 -0.0058  0.0339  0.0576
23329W        W66246   5.163   9.750  19.594  0.0022  0.0103 -0.0380
23330W        W66247   4.751  10.124  18.709  0.6441  0.0317 -0.1570
23331W        W66248   6.788   5.644  20.071 -0.1239 -0.0658 -0.2345
23332W        W66249   5.793  10.277  18.937 -0.2017  0.1775  0.0994
23333W        W66250   4.141   8.251  17.617 -0.1501 -0.0269  0.1336
23334W        W66251   4.138   9.946  18.155 -0.3112 -0.1034 -0.1168
23335W        W66252   5.783   7.151  17.534 -0.2389  0.3676 -0.1443
23336W        W66253   7.850   8.654  16.449 -0.0996 -0.0341 -0.2039
23337W        W66254   5.088   8.725  17.652 -0.2075  0.1019 -0.0171
23338W        W66255   7.190   8.248  18.735 -0.1647 -0.1365  0.0616
23339W        W66256   3.651   9.881  20.228 -0.2866  0.2372 -0.4538
23340W        W66257   5.716   7.573  18.991 -0.1745  0.1139 -0.3316
23341W        W66258   7.340   9.204  18.335 -0.0476  0.1646 -0.2246
23342W        W66259   7.259   8.639  19.174 -0.0910 -0.2299 -0.0299
23343W        W66260   6.960  10.040  20.956 -0.2729  0.0825  0.1919
23344W        W66261   4.055   9.325  17.273 -0.0007  0.1485 -0.0692
23345W        W66262   5.516   9.969  19.221 -0.1438  0.1903 -0.3310
23346W        W66263   5.223   9.186  17.751  0.1762  0.2075  0.1226
23347W        W66264   1.851  10.441  18.251  0.0258  0.2332  0.0709
23348W        W66265   6.898  12.808  20.427 -0.0460  0.0101  0.1273
23349W        W66266   3.283   8.696  16.807 -0.1768  0.1213 -0.1802
23350W        W66267   3.893   8.520  18.181  0.0414  0.1575 -0.3551
23351W        W66268   6.412   8.816  18.981 -0.1606 -0.0415 -0.3471
23352W        W66269   8.264   9.265  18.812  0.0263 -0.2833  0.0484
23353W        W66270   6.711   6.485  17.149  0.0246  0.3572  0.2191
23354W        W66271   5.033   8.677  17.191  0.0719  0.2785  0.2154
23355W        W66272   6.036   8.584  17.340 -0.0653 -0.1926 -0.2504
23356W        W66273   6.892   9.771  19.131 -0.1448  0.1299  0.0744
23357W        W66274   5.753   9.232  20.514  0.0969 -0.0225  0.4248
23358W        W66275   5.480   9.422  19.830 -0.0069 -0.2099 -0.1958
23359W        W66276   5.060   7.213  18.266 -0.1292 -0.2612  0.1424
23360W        W66277   7.065   9.661  16.672  0.0586 -0.2104 -0.2428
23361W        W66278   6.526  10.488  18.750 -0.2334 -0.3113 -0.1632
23362W        W66279   3.662   7.515  16.918 -0.0591 -0.2868 -0.0564
23363W        W66280   3.438   9.945  17.509 -0.3556 -0.0175 -0.2158
23364W        W66281   4.985   9.106  18.906  0.3284  0.1689  0.0922
23365W        W66282   5.662   6.775  18.058 -0.0197 -0.2541 -0.0289
23366W        W66283   6.129   9.379  16.864  0.1748  0.1505  0.0111
23367W        W66284   4.664   9.765  18.388  0.3508  0.2260  0.3255
23368W        W66285   2.276  10.142  18.280 -0.0823 -0.1452  0.0811
23369W        W66286   7.320   7.442  16.382  0.1149 -0.1010  0.0726
23370W        W66287   5.583   8.502  17.100  0.3733 -0.0012  0.1001
23371W        W66288   7.980   8.152  17.240  0.3437 -0.1954 -0.0628
23372W        W66289   8.047   8.217  18.572 -0.1061  0.0540 -0.1622
23373W        W66290   7.197   9.447  18.847  0.2619  0.2798  0.1535
23374W        W66291   5.859   5.655  20.011  0.0130  0.1977 -0.4161
23375W        W66292   2.687   8.079  18.853 -0.1123  0.0657 -0.1693
23376W        W66293   5.714   9.522  17.112  0.0310  0.0334 -0.1752
23377W        W66294   3.616   6.429  18.501 -0.3358 -0.2062  0.3592
23378W        W66295   5.743  11.638  21.692  0.0518  0.0248  0.0916
23379W        W66296   5.810   8.174  20.607 -0.0557 -0.1237 -0.0484
23380W        W66297   7.576   7.918  17.448  0.2135  0.0684  0.0028
23381W        W66298   3.800   6.917  17.005  0.0722 -0.1810 -0.0201
23382W        W66299   5.703  10.401  18.131  0.0812  0.0098  0.0343
23383W        W66300   7.552   8.201  18.378 -0.0284  0.1488  0.0590
23384W        W66301   5.299   9.952  15.862 -0.0738  0.1648  0.2340
23385W        W66302   7.537   5.537  19.667 -0.1251 -0.1057 -0.0166
23386W        W66303   4.144   8.974  18.239 -0.1364 -0.1117  0.1091
23387W        W66304   7.224   9.542  17.335  0.1510 -0.0518 -0.2009
23388W        W66305   5.383   9.042  17.219 -0.0627 -0.0596  0.0505
23389W        W66306   5.358  10.004  17.224 -0.1230 -0.1556  0.0048
23390W        W66307   5.254   8.730  19.273  0.0588 -0.0508  0.2193
23391W        W66308   6.383  10.136  17.717 -0.1678  0.1091  0.0965
23392W        W66309   7.115   7.712  18.586 -0.2281 -0.1089 -0.0492
23393W        W66310   8.163  10.751  17.020  0.5806  0.0251  0.1944
23394W        W66311   5.771   8.994  19.577  0.0424 -0.1871 -0.2419
23395W        W66312   6.309  10.154  19.639 -0.2295  0.1041  0.2816
23396W        W66313   2.934   6.658  20.280  0.1115  0.1743 -0.0731
23397W        W66314   6.279  10.415  20.137 -0.0693 -0.0621 -0.1561
23398W        W66315   8.745   7.100  16.092 -0.0654  0.0135  0.0420
23399W        W66316   7.193   7.452  18.014 -0.1760 -0.2294  0.0993
23400W        W66317   8.233   8.749  18.781  0.0798  0.3434  0.1089
23401W        W66318   7.267   7.518  19.077 -0.0802  0.1861 -0.1544
23402W        W66319   4.592   9.945  17.920 -0.0706  0.1291 -0.2785
23403W        W66320   4.105   8.601  18.670  0.1808 -0.0864  0.3048
23404W        W66321   4.620   8.629  17.481 -0.0759  0.2977  0.1509
23405W        W66322   5.780   4.619  18.088  0.2191 -0.7078  0.1929
23406W        W66323   5.682  10.653  16.487  0.1070 -0.0348 -0.0675
23407W        W66324   3.579   9.307  17.537  0.3471 -0.0114  0.0175
23408W        W66325   4.932   7.760  17.676  0.2110  0.0222  0.2272
23409W        W66326   4.728   7.158  18.992  0.1246  0.1289 -0.0856
23410W        W66327   6.931  11.053  20.131  0.1978  0.1456  0.1282
23411W        W66328   3.684   7.785  16.400 -0.1639  0.1690 -0.0170
23412W        W66329   5.294   7.316  17.710 -0.1757  0.1740 -0.0326
23413W        W66330   6.105   9.236  19.171  0.3748  0.1865  0.2265
23414W        W66331   6.872  10.247  18.975 -0.4416 -0.0851 -0.0014
23415W        W66332   5.755   7.245  16.949  0.1335 -0.1105  0.1583
23416W        W66333   7.298   7.341  19.552 -0.2732  0.0336 -0.3660
23417W        W66334   2.875  11.564  18.496 -0.0788 -0.2689 -0.0820
23418W        W66335   7.473   6.194  17.539  0.1973  0.1456 -0.0713
23419W        W66336   3.725  10.490  18.690  0.2823  0.1080 -0.1328
23420W        W66337   3.037  10.055  18.520  0.0038  0.0469  0.2274
23421W        W66338   4.644   9.532  17.597 -0.2601  0.3502 -0.1235
23422W        W66339   7.855   8.956  18.407  0.0562 -0.1308 -0.1631
23423W        W66340   4.872   7.920  18.215 -0.1318  0.0354 -0.4036
23424W        W66341   6.885   9.313  18.224  0.0572  0.2168  0.3765
23425W        W66342   6.481   9.075  19.608 -0.1387  0.2380 -0.2559
23426W        W66343   6.966   9.628  20.105 -0.2090 -0.2640 -0.0922
23427W        W66344   4.361   9.128  20.008  0.1578 -0.0877  0.0392
23428W        W66345   6.188   8.692  19.861 -0.1006  0.5031 -0.0004
23429W        W66346   7.730   8.499  18.797  0.0985  0.0902  0.1610
23430W        W66347   5.379  10.345  16.782  0.2186  0.2661  0.0431
23431W        W66348   3.351   7.234  19.618 -0.0803  0.1164 -0.2781
23432W        W66349   7.245  10.118  18.505  0.0114  0.2091 -0.4418
23433W        W66350   6.386   8.863  18.258  0.2808  0.2057 -0.0316
23434W        W66351   5.263   7.005  16.787  0.1506 -0.0686  0.0327
23435W        W66352   4.458   9.077  17.108  0.3174  0.0723 -0.0152
23436W        W66353   5.894  10.650  20.360  0.1079 -0.1544 -0.1619
23437W        W66354   4.300   7.168  18.651  0.0866 -0.2087  0.0809
23438W        W66355   5.006  12.701  19.357 -0.1137 -0.1405  0.2113
23439W        W66356   5.744  10.258  17.119 -0.0967  0.3268 -0.0272
23440W        W66357   6.989   8.506  17.354  0.0587  0.2699  0.3857
23441W        W66358   6.339  11.405  17.215 -0.1986  0.2834 -0.0513
23442W        W66359   4.898   7.952  18.744 -0.1012  0.1178 -0.2219
23443W        W66360   5.795  10.356  19.934  0.0739 -0.3893  0.1010
23444W        W66361   3.210  11.141  17.796  0.0039  0.0221  0.3273
23445W        W66362   6.340  10.517  15.795  0.0983  0.0316  0.1316
23446W        W66363   5.359  10.500  17.348  0.0107 -0.0512 -0.0797
23447W        W66364   8.657  10.807  17.983  0.2615  0.1418 -0.3416
23448W        W66365   6.791   6.216  17.971  0.0922 -0.1308 -0.0666
23449W        W66366   5.771   8.253  17.888 -0.2663  0.2074 -0.0435
23450W        W66367   6.195   7.583  16.840  0.0946 -0.1519  0.0745
23451W        W66368   5.323  10.077  20.403  0.0195  0.2684  0.3152
23452W        W66369   6.723   8.991  18.655 -0.0561 -0.2092  0.4139
23453W        W66370   5.018   7.115  16.346  0.0084  0.2712  0.1992
23454W        W66371   5.978   9.234  19.949  0.0167 -0.1683  0.2057
23455W        W66372   7.317   6.463  19.114 -0.0847  0.1993  0.1154
23456W        W66373   6.609  10.602  17.863  0.4355 -0.2908 -0.2722
23457W        W66374   6.676   9.906  16.473  0.0329  0.0143 -0.2295
23458W        W66375   5.806   8.922  17.036  0.2133  0.1833  0.4271
23459W        W66376   6.090   9.640  18.750  0.0677  0.0494  0.1447
23460W        W66377   8.057   7.124  17.655 -0.2452 -0.0127  0.2218
23461W        W66378   4.399   9.616  17.121  0.0629 -0.0108 -0.1055
23462W        W66379   6.210   7.819  18.101 -0.5236  0.1140  0.2583
23463W        W66380   6.400  10.023  18.597  0.0240  0.1752  0.1969
23464W        W66381   5.337  10.499  19.092  0.0811 -0.1692  0.1255
23465W        W66382   6.402  11.244  20.399  0.0892 -0.0936  0.4415
23466W        W66383   1.865   7.795  16.748 -0.5569 -0.0554  0.2279
23467W        W66384   8.190   9.049  17.292 -0.2541  0.0422 -0.1074
23468W        W66385   4.150  10.231  19.462  0.3083 -0.2858  0.0458
23469W        W66386   8.235   7.011  18.519 -0.0511  0.1379  0.0410
23470W        W66387   3.680   9.000  18.512  0.2223  0.0125 -0.0049
23471W        W66388   6.566   8.444  17.004  0.0916  0.2654 -0.1246
23472W        W66389   7.035  11.542  20.189  0.2838 -0.0044 -0.0462
23473W        W66390   5.341  12.105  18.678 -0.2179 -0.0687 -0.1441
23474W        W66391   5.855   9.600  18.332  0.0705 -0.1936  0.1191
23475W        W66392   7.339   9.234  19.328 -0.1743  0.4333 -0.1078
23476W        W66393   5.922  10.214  16.595  0.0607 -0.1953 -0.0233
23477W        W66394   6.881  10.331  19.547  0.2529 -0.0866 -0.1259
23478W        W66395   4.527   7.916  16.905 -0.2466  0.4065 -0.0984
23479W        W66396   6.894   7.226  16.625  0.2766  0.0309  0.2193
23480W        W66397   6.104   7.992  17.635  0.0307 -0.1824  0.2409
23481W        W66398   6.189   8.433  20.443 -0.0927  0.1894 -0.2541
23482W        W66399   5.746  12.551  21.375  0.1080  0.0647  0.1461
23483W        W66400   3.499   7.271  17.458  0.1984 -0.0571  0.4670
23484W        W66401   8.007   9.769  17.293  0.1383 -0.0486  0.0686
23485W        W66402   7.259  10.003  17.626 -0.0601  0.2456  0.1198
23486W        W66403   5.523  10.880  16.998  0.2209 -0.1064 -0.2043
23487W        W66404   5.244   9.538  16.955  0.1357 -0.1047  0.0449
23488W        W66405   5.409  11.184  17.430  0.0653 -0.2752  0.1857
23489W        W66406   3.789   7.017  18.361 -0.2608 -0.2058 -0.0915
23490W        W66407   7.415  11.064  18.110 -0.3552 -0.0311 -0.2318
23491W        W66408  10.415   9.397  17.063  0.0220 -0.0003 -0.0972
23492W        W66409   5.806   8.711  18.650 -0.0537 -0.0070  0.0237
23493W        W66410   6.131   7.471  17.715  0.1273  0.1613 -0.1109
23494W        W66411   4.065   9.674  17.713  0.0622  0.2102  0.1764
23495W        W66412   8.002   6.377  15.957 -0.3699  0.3024  0.0254
23496W        W66413   4.071   7.860  19.192 -0.0796 -0.0087  0.0037
23497W        W66414   4.937   9.187  17.280 -0.0299 -0.2279 -0.1375
23498W        W66415   6.407   7.020  19.256 -0.0781  0.1920  0.0471
23499W        W66416   7.489  10.344  20.251  0.1709 -0.1973 -0.3479
23500W        W66417   5.474  11.199  18.990  0.2599 -0.1566  0.0116
23501W        W66418   4.569   8.297  16.619 -0.1139  0.1171  0.1858
23502W        W66419   5.916   7.541  18.477  0.0321 -0.1349  0.2245
23503W        W66420   5.615   9.282  18.634 -0.2817 -0.1012 -0.0211
23504W        W66421   5.017  10.769  17.027  0.0649  0.1577  0.4597
23505W        W66422   7.426  11.060  18.651 -0.0902  0.0633  0.1570
23506W        W66423   6.517   8.002  19.009 -0.4688  0.0449 -0.0161
23507W        W66424   7.895  10.759  18.584 -0.1636  0.0351  0.0823
23508W        W66425   6.540   6.840  18.796  0.2818 -0.0182  0.1924
23509W        W66426   8.267   6.256  17.982 -0.5237  0.2097 -0.3854
23510W        W66427   6.402   6.400  16.708 -0.1694  0.1821 -0.0008
23511W        W66428   4.474  11.534  20.441  0.1684 -0.3489 -0.0559
23512W        W66429   2.210  10.910  16.937 -0.2760  0.2567 -0.2943
23513W        W66430   4.264  10.394  17.074 -0.3362  0.0985  0.0416
23514W        W66431   3.076   8.202  18.566  0.2873  0.1167  0.4546
23515W        W66432   3.955   5.361  20.365  0.1200 -0.2239 -0.0659
23516W        W66433   4.663   7.503  18.036 -0.0030  0.1900 -0.0922
23517W        W66434   4.398  11.064  20.691  0.3638 -0.2176 -0.1855
23518W        W66435   3.142   8.120  17.507 -0.2593 -0.1693  0.0058
23519W        W66436   7.571   9.098  15.709  0.3090  0.3329  0.1110
23520W        W66437   3.273   7.468  16.269 -0.0394  0.0869  0.0538
23521W        W66438   2.545   8.373  17.105  0.1816 -0.1278 -0.0500
23522W        W66439   5.922  10.421  16.089  0.2703  0.0521  0.1221
23523W        W66440   6.443  11.088  17.873 -0.1737  0.0756 -0.2790
23524W        W66441   6.457   7.658  17.380 -0.5973 -0.0873  0.1341
23525W        W66442   7.204   9.815  21.420  0.0644  0.0223 -0.2326
23526W        W66443   3.349  11.277  17.296  0.3179 -0.1847  0.0974
23527W        W66444   6.509   9.474  18.492  0.1981 -0.0336 -0.0585
23528W        W66445   4.156   7.718  19.946 -0.0741 -0.1620 -0.0847
23529W        W66446   3.730   8.427  17.212 -0.0077  0.0970 -0.2289
23530W        W66447   5.972   6.788  19.386 -0.1332 -0.3531  0.2218
23531W        W66448   6.929   9.065  17.409 -0.2909 -0.0018 -0.0536
23532W        W66449   6.295  13.079  17.042  0.3427 -0.0139  0.5128
23533W        W66450   5.179  11.036  18.522 -0.2176  0.0201  0.0540
23534W        W66451   7.773  12.117  20.428  0.1048 -0.1055  0.1990
23535W        W66452   1.702   6.776  19.477 -0.1963  0.4317 -0.0508
23536W        W66453   5.942   9.951  17.485 -0.1032  0.3507 -0.3542
23537W        W66454   5.236   9.569  19.059  0.1135  0.0149  0.2301
23538W        W66455   8.491   9.438  15.643 -0.2524 -0.0030  0.3225
23539W        W66456   8.223   8.973  17.910 -0.0807 -0.1544 -0.0981
23540W        W66457   6.434   9.166  17.205 -0.3485 -0.1640 -0.2450
23541W        W66458   3.691   7.211  20.960  0.1923  0.0547 -0.3552
23542W        W66459   3.896   8.991  21.475  0.0594 -0.0866  0.2936
23543W        W66460   6.598   8.485  18.469 -0.1074  0.1343  0.1345
23544W        W66461   6.928   7.234  18.571  0.2999 -0.0440 -0.0308
23545W        W66462   7.469   5.515  17.805 -0.4199  0.0235  0.0511
23546W        W66463   6.605   9.751  20.509 -0.2517  0.4130 -0.2745
23547W        W66464   3.522   9.288  18.068 -0.1639  0.1553  0.1730
23548W        W66465   5.451   7.435  16.515  0.0890 -0.3587 -0.1297
23549W        W66466   5.217  10.279  19.531 -0.2246 -0.0257  0.0460
23550W        W66467   4.974   9.551  17.944 -0.1516  0.0611  0.2013
23551W        W66468   6.074   8.359  18.347  0.2240  0.0288  0.2530
23552W        W66469   3.817   8.596  16.751 -0.0081  0.0425  0.2547
23553W        W66470   7.153   8.752  16.697  0.0971 -0.3811 -0.1312
23554W        W66471   6.258   9.929  22.293  0.2809  0.2068 -0.0270
23555W        W66472   6.755  11.297  18.802 -0.0747  0.0076 -0.2384
23556W        W66473   7.573  11.058  17.526  0.3377 -0.1216 -0.0435
23557W        W66474   7.226   7.540  17.466 -0.1448 -0.2209 -0.1186
23558W        W66475   3.673   7.408  20.109 -0.1089  0.2177 -0.1301
23559W        W66476   3.372   7.305  18.324 -0.0785  0.0014 -0.2992
23560W        W66477   3.077  10.081  17.227 -0.0159  0.2303  0.1477
23561W        W66478   6.903   7.584  19.410  0.2216  0.1188 -0.0325
23562W        W66479   5.377   8.904  18.124  0.3196 -0.0742  0.0175
23563W        W66480   4.953   7.803  16.637  0.2353  0.1174 -0.2731
23564W        W66481   5.849  10.101  18.424  0.1577 -0.3795 -0.0940
23565W        W66482   6.471  10.797  18.345 -0.1260 -0.0156  0.1258
23566W        W66483   4.033   7.714  23.514  0.0628 -0.2306 -0.0813
23567W        W66484   6.783   7.983  20.285  0.2574  0.0618 -0.4315
23568W        W66485   7.171   6.920  18.157 -0.1976  0.2003 -0.3636
23569W        W66486   5.721   6.374  21.123 -0.3368  0.1256  0.0761
23570W        W66487   4.236   9.695  20.233 -0.2133 -0.1548  0.2475
23571W        W66488   6.469   9.538  19.971  0.0331 -0.1316  0.1487
23572W        W66489   4.929   9.639  22.120 -0.1773 -0.0597  0.1616
23573W        W66490   6.215   8.909  22.044 -0.2096 -0.0715 -0.0019
23574W        W66491   5.838  11.699  22.677 -0.0580 -0.1961  0.0727
23575W        W66492   7.850  10.633  20.398 -0.1287 -0.1800  0.0352
23576W        W66493   3.587   6.847  23.320 -0.1308  0.2520 -0.0593
23577W        W66494   4.593  12.945  22.974 -0.1728  0.2236 -0.2487
23578W        W66495   2.889   9.168  21.409 -0.4080  0.1102 -0.0508
23579W        W66496   3.373   8.313  22.044 -0.0865 -0.0813 -0.3223
23580W        W66497   5.247  10.528  22.601  0.1011  0.1286 -0.0995
23581W        W66498   5.276  10.628  21.380 -0.3870  0.1432 -0.0246
23582W        W66499   5.765   8.702  20.607 -0.0250 -0.1374  0.1979
23583W        W66500   7.085   8.302  22.211 -0.0975  0.0942  0.1896
23584W        W66501   4.881  11.252  22.104 -0.0642  0.4026 -0.0678
23585W        W66502   3.858   6.391  24.687 -0.0507  0.0868 -0.1077
23586W        W66503   4.361   7.761  22.617 -0.0183 -0.2269  0.0254
23587W        W66504   6.277  10.999  19.390 -0.1103 -0.0143 -0.1372
23588W        W66505   3.698   8.811  18.976 -0.0651 -0.0427 -0.0872
23589W        W66506   0.586   8.609  23.092 -0.2790 -0.1417  0.0425
23590W        W66507   2.719  10.449  22.079  0.0358 -0.1145 -0.0726
23591W        W66508   7.636   7.729  22.035 -0.1511  0.1533  0.2026
23592W        W66509   5.299   7.955  22.886  0.0960  0.1683  0.1856
23593W        W66510   6.039  10.726  21.371  0.0271 -0.3112 -0.0019
23594W        W66511   7.180   8.632  21.682 -0.1156 -0.2837  0.0800
23595W        W66512   5.522   7.830  23.359  0.0622 -0.0617  0.1677
23596W        W66513   5.458  10.468  20.722 -0.3674  0.1995 -0.1785
23597W        W66514   4.437  10.496  22.462  0.1274  0.4641  0.2315
23598W        W66515   5.659  10.829  21.005  0.3242  0.0330  0.3258
23599W        W66516   5.784   8.804  21.109 -0.2606  0.5948 -0.4273
23600W        W66517   5.769   9.920  24.545 -0.2777 -0.1324 -0.0328
23601W        W66518   4.403  10.686  24.889  0.2567 -0.4318  0.0628
23602W        W66519   4.702  10.255  19.452  0.0193  0.3032  0.0608
23603W        W66520   3.559  10.495  22.459  0.3927  0.0355 -0.4708
23604W        W66521   5.052  10.475  23.739  0.3743  0.1215 -0.0217
23605W        W66522   3.522   7.983  24.248 -0.0097 -0.0004 -0.0851
23606W        W66523   3.999   9.981  20.634  0.0278 -0.2636 -0.1131
23607W        W66524   3.229  10.266  19.419  0.0415  0.0022 -0.2857
23608W        W66525   3.645  10.058  21.409  0.2009  0.2335  0.3540
23609W        W66526   5.088   9.973  23.170  0.0167  0.1436  0.1624
23610W        W66527   5.000  10.659  24.405 -0.0107 -0.1863  0.0440
23611W        W66528   8.431   8.335  23.081  0.0605  0.0007  0.2421
23612W        W66529   4.811   9.828  20.494  0.1016 -0.2346  0.0608
23613W        W66530   6.211   8.920  20.269  0.0977 -0.1765  0.0115
23614W        W66531   4.528   9.334  18.148  0.1965  0.1374 -0.0568
23615W        W66532   7.278   7.664  21.644 -0.3000  0.2651  0.1285
23616W        W66533   4.645   7.619  20.771  0.0507  0.2530 -0.2364
23617W        W66534   4.543  11.019  24.471  0.0880 -0.3575 -0.0380
23618W        W66535   4.472   7.977  23.737 -0.0025 -0.1423 -0.1010
23619W        W66536   6.374  10.226  23.299 -0.0517 -0.2263 -0.0396
23620W        W66537   5.284   7.939  21.491 -0.0640 -0.1797  0.2386
23621W        W66538   6.510   7.471  21.174 -0.0362 -0.2037  0.1654
23622W        W66539   5.628   9.719  23.522 -0.0651 -0.1422  0.1840
23623W        W66540   4.842   8.872  21.449  0.2234  0.1730 -0.1374
23624W        W66541   9.089   7.505  18.207 -0.0492  0.0093 -0.5437
23625W        W66542   8.220  10.352  22.573 -0.1354 -0.0821 -0.2992
23626W        W66543   6.616  10.006  20.103  0.1027  0.3957  0.0171
23627W        W66544   4.314   9.348  19.117 -0.0392  0.0836  0.0628
23628W        W66545   3.274  11.414  23.009 -0.1918 -0.2408  0.0768
23629W        W66546   3.553   9.984  22.663 -0.0352  0.1076 -0.2193
23630W        W66547   4.859   8.330  19.187 -0.0897  0.0249 -0.4100
23631W        W66548   6.266   8.880  23.083 -0.0234 -0.2377  0.3953
23632W        W66549   6.045   9.755  23.740 -0.0737 -0.0192  0.0418
23633W        W66550   6.560   7.387  22.433 -0.2862 -0.1241  0.0370
23634W        W66551   5.185   8.549  22.231  0.2002 -0.1689  0.1069
23635W        W66552   7.595   8.115  22.356  0.2152  0.3354  0.1313
23636W        W66553   6.915   8.752  17.986  0.2753 -0.2366  0.3690
23637W        W66554   5.492   8.251  21.974  0.4392  0.3190  0.0340
23638W        W66555   8.172   8.195  22.651 -0.0028 -0.2865  0.4342
23639W        W66556   2.947  10.645  21.127  0.0050 -0.0453 -0.2205
23640W        W66557   5.270   9.102  20.256  0.1778  0.0977 -0.0066
23641W        W66558   6.893   9.000  23.916  0.3767 -0.0716 -0.0421
23642W        W66559   5.927   8.182  21.108 -0.3204 -0.2067  0.0052
23643W        W66560   3.405  10.464  22.967 -0.0639 -0.1008 -0.0107
23644W        W66561   5.465   7.233  22.509  0.0715 -0.3085 -0.2210
23645W        W66562   4.381  10.565  23.000  0.3140 -0.0450  0.2727
23646W        W66563   5.340  10.509  23.356 -0.0678  0.2473  0.1731
23647W        W66564   2.547   8.733  23.662 -0.2458  0.1724  0.0820
23648W        W66565   6.173   9.453  20.340  0.1968 -0.1046  0.2127
23649W        W66566   3.614   6.410  23.813  0.1702 -0.1186 -0.2588
23650W        W66567   3.759  11.558  24.315  0.1630  0.0678  0.2603
23651W        W66568   7.742   7.722  18.310  0.1061  0.2613 -0.3247
23652W        W66569   2.301   7.438  24.552 -0.1477 -0.0598  0.0349
23653W        W66570   4.935   7.848  19.207  0.0327  0.1641  0.1472
23654W        W66571   4.214  11.060  22.026  0.0618 -0.4104 -0.1974
23655W        W66572   7.189  11.965  22.996 -0.1967  0.4471  0.0717
23656W        W66573   7.702   9.089  22.735  0.0080 -0.1094 -0.2357
23657W        W66574   7.673  11.045  21.657 -0.0289 -0.2215 -0.1824
23658W        W66575   0.890   8.538  24.027  0.3143 -0.0395  0.3024
23659W        W66576   5.107   9.451  23.044  0.0258  0.2497 -0.2375
23660W        W66577   3.417   8.204  25.991  0.0979  0.1472 -0.3143
23661W        W66578   2.390   7.796  24.163 -0.0491  0.1322 -0.4521
23662W        W66579   8.009   9.974  23.088 -0.2041 -0.0246  0.0125
23663W        W66580   3.165   9.117  19.948 -0.0528 -0.0840 -0.3999
23664W        W66581   6.513   8.108  21.808 -0.0526  0.0954 -0.1158
23665W        W66582   4.944  10.334  20.653  0.1045  0.1507 -0.2114
23666W        W66583   3.205  10.192  21.719  0.1407  0.2086 -0.0203
23667W        W66584   6.132   6.871  23.627  0.1014 -0.2590 -0.3130
23668W        W66585   6.594  11.917  21.418  0.0733  0.3082  0.1353
23669W        W66586   7.196   9.639  22.964 -0.2204 -0.2033 -0.1540
23670W        W66587   6.404  11.093  22.070 -0.1178 -0.1357  0.1745
23671W        W66588   3.584   7.927  23.774 -0.1426 -0.0613  0.2259
23672W        W66589   1.808   8.026  23.353  0.2447 -0.3156  0.2504
23673W        W66590   5.438  11.057  23.537 -0.0722  0.2276 -0.2133
23674W        W66591   5.372   9.935  21.834 -0.0516 -0.1138  0.0219
23675W        W66592   6.147   9.916  20.031 -0.1293 -0.1364  0.0658
23676W        W66593   6.680  12.398  21.714  0.0050  0.1409  0.0866
23677W        W66594   5.090   7.679  21.147 -0.0098  0.1654  0.4741
23678W        W66595   4.634  10.850  22.123 -0.0422 -0.1352  0.0778
23679W        W66596   4.098   6.544  21.777 -0.1656  0.0937  0.3112
23680W        W66597   7.331  10.243  21.729  0.1280  0.1737  0.0027
23681W        W66598   7.024   9.038  20.819  0.0180  0.1121  0.1193
23682W        W66599   4.929   7.223  20.486  0.1486 -0.1554 -0.1026
23683W        W66600   6.271   9.776  21.774 -0.0972 -0.0478 -0.2371
23684W        W66601   2.641  10.285  21.557  0.0431  0.1917  0.0724
23685W        W66602   4.467   9.521  20.832  0.2589  0.1058 -0.0202
23686W        W66603   5.222  10.020  22.331  0.1025  0.0323 -0.2273
23687W        W66604   5.212   7.245  20.870  0.1332 -0.2051  0.1101
23688W        W66605   2.545   9.991  23.889  0.0642  0.0149  0.6459
23689W        W66606   4.827   8.696  23.339  0.3330  0.1389 -0.0400
23690W        W66607   3.456   8.359  18.820  0.2472 -0.0494 -0.0984
23691W        W66608   5.289   8.456  23.225  0.1158  0.1808  0.2353
23692W        W66609   4.608   8.036  20.487  0.2635  0.0022 -0.2556
23693W        W66610   5.749   8.467  19.671 -0.2730 -0.3757 -0.0912
23694W        W66611   5.773   9.924  23.101  0.1934  0.2521 -0.1207
23695W        W66612   6.813  10.300  21.513  0.1814  0.1928 -0.0920
23696W        W66613   4.543   7.593  18.999 -0.1558 -0.2097 -0.1773
23697W        W66614   3.145   8.121  20.566 -0.2072  0.0588 -0.2399
23698W        W66615   3.005  10.078  24.176 -0.0346  0.1536  0.0104
23699W        W66616   5.460  12.190  20.618  0.0674  0.0423 -0.0582
23700W        W66617   5.219   9.129  22.192  0.1527  0.2248  0.2508
23701W        W66618   3.958   9.804  19.199 -0.0436 -0.1075  0.2123
23702W        W66619   7.419  10.582  18.422 -0.2265 -0.1472 -0.1492
23703W        W66620   4.966  11.106  21.520  0.0464  0.3112  0.0536
23704W        W66621   5.585   9.367  25.019 -0.0733  0.1109  0.3025
23705W        W66622   4.354   8.888  21.724  0.0530  0.2246  0.0715
23706W        W66623   3.842   6.879  23.745  0.1073  0.0040 -0.1074
23707W        W66624   5.139  10.999  20.045  0.1606  0.1426  0.2589
23708W        W66625   3.502   7.466  22.192  0.0923 -0.0015 -0.0693
23709W        W66626   5.586   9.789  18.790 -0.2965  0.0375 -0.0633
23710W        W66627   7.853   7.916  21.613  0.1559 -0.2651  0.0113
23711W        W66628   4.319   7.600  24.058  0.2224  0.0236  0.1326
23712W        W66629   6.717   7.662  21.712  0.0266 -0.0777 -0.1326
23713W        W66630   6.505   7.891  24.454  0.1351  0.0305  0.1414
23714W        W66631   6.714   7.988  21.263  0.2241  0.1165 -0.0318
23715W        W66632   4.812  10.144  22.660 -0.1609  0.1669 -0.2812
23716W        W66633   4.052  10.574  19.822  0.0070 -0.2443  0.3832
23717W        W66634   5.677   7.027  21.107  0.1431 -0.1880  0.0052
23718W        W66635   2.333   9.080  24.257  0.0716 -0.0281  0.2599
23719W        W66636   2.905  12.936  22.573 -0.0323 -0.2700 -0.0257
23720W        W66637   6.217   8.414  22.082  0.2576  0.1768  0.2406
23721W        W66638   6.279   7.928  20.871 -0.1845 -0.0681  0.0544
23722W        W66639   5.257   6.868  22.794 -0.1439 -0.0264 -0.0671
23723W        W66640   3.458   8.689  21.712  0.1233  0.2457  0.1050
23724W        W66641   6.084  10.590  21.921 -0.1795 -0.3940  0.0849
23725W        W66642   5.550   9.759  21.254 -0.0282 -0.2363  0.1579
23726W        W66643   4.963   8.919  22.634  0.0307  0.1007 -0.0284
23727W        W66644   5.542  11.341  24.009  0.2920  0.0961  0.3026
23728W        W66645   4.464   9.801  19.395  0.0224  0.1184 -0.0581
23729W        W66646   5.535   7.434  23.722 -0.0590 -0.2257  0.3340
23730W        W66647   4.372  10.407  21.271 -0.1504  0.2962  0.1450
23731W        W66648   6.098   6.349  21.616 -0.0330  0.1363  0.0635
23732W        W66649   6.541   9.726  21.315  0.1724  0.3848 -0.2151
23733W        W66650   6.360   7.536  19.183 -0.1978 -0.2462 -0.1442
23734W        W66651   4.964  10.335  20.043 -0.1991  0.4057 -0.0498
23735W        W66652   7.107   6.740  20.522 -0.2867 -0.2836 -0.2318
23736W        W66653   6.889  10.567  20.873 -0.3177  0.1646  0.0020
23737W        W66654   4.285   8.873  22.329 -0.0411  0.1185  0.0758
23738W        W66655   5.360   7.420  21.550  0.3973 -0.0339 -0.0226
23739W        W66656   5.057  10.785  21.903 -0.0754 -0.4511  0.0940
23740W        W66657   3.994   8.327  21.175  0.1720  0.2058  0.0190
23741W        W66658   5.704   7.037  18.984 -0.0928  0.1017 -0.0820
23742W        W66659   6.071   9.011  22.667 -0.0613  0.0431  0.2237
23743W        W66660   4.387  11.985  23.002  0.1833  0.0880  0.0613
23744W        W66661   2.672   8.941  21.023 -0.2180 -0.1753 -0.0156
23745W        W66662   5.364   9.237  22.632  0.0121  0.1510  0.0624
23746W        W66663   2.677   7.965  21.454 -0.1394  0.0050  0.0532
23747W        W66664   4.483  11.456  21.132  0.2479  0.0026 -0.2535
23748W        W66665   5.851  10.256  23.511  0.1458 -0.0971 -0.0695
23749W        W66666   2.812   9.852  21.637  0.1183  0.1321  0.2105
23750W        W66667   5.247  11.992  21.563  0.0262 -0.0787  0.2486
23751W        W66668   4.156   6.857  24.612 -0.2969  0.3780  0.0100
23752W        W66669   5.907   7.290  21.535 -0.2535  0.1197 -0.1203
23753W        W66670   3.400   9.638  21.280  0.0800 -0.0133  0.1744
23754W        W66671   4.713   9.346  21.296  0.0880 -0.2631  0.1848
23755W        W66672   4.903   8.140  23.308 -0.1150  0.2505 -0.0294
23756W        W66673   5.867  10.421  22.972 -0.2704  0.2788  0.1785
23757W        W66674   6.744  10.221  22.462 -0.0195 -0.1230 -0.2481
23758W        W66675   5.125   8.794  23.777  0.1658 -0.0855 -0.0519
23759W        W66676   4.582   5.668  21.763  0.0493 -0.1448 -0.2833
23760W        W66677   6.516   9.522  19.002  0.0170 -0.1695  0.2249
23761W        W66678   9.057   6.974  22.775  0.1543 -0.1961 -0.1439
23762W        W66679   6.633   9.254  20.535  0.5251 -0.2169  0.1252
23763W        W66680   2.697   8.328  23.444 -0.0811  0.1941 -0.1441
23764W        W66681   4.829   8.499  20.486 -0.0727 -0.0933 -0.0439
23765W        W66682   4.795   6.979  24.032 -0.1216  0.1598  0.0906
23766W        W66683   5.936   9.178  24.235  0.1832  0.3670  0.0208
23767W        W66684   5.744   8.631  22.144 -0.1264 -0.0084 -0.0029
23768W        W66685   5.075  12.442  22.494  0.1029  0.3990 -0.0988
23769W        W66686   8.251   7.560  19.955 -0.2712 -0.0267 -0.1969
23770W        W66687   7.752   8.840  17.874 -0.0009  0.1781  0.2412
23771W        W66688   6.754   6.526  21.217 -0.2148 -0.2612  0.1822
23772W        W66689   6.137   7.001  22.537 -0.2252  0.1540 -0.2314
23773W        W66690   7.309   8.212  20.140 -0.0318  0.0087  0.1952
23774W        W66691   3.801   7.044  22.338 -0.1591  0.1832 -0.1863
23775W        W66692   4.232   9.295  23.147  0.0554 -0.3677  0.0517
23776W        W66693   6.372   8.899  21.280 -0.0924 -0.1976 -0.1198
23777W        W66694   2.797   8.782  22.985 -0.5056  0.1528 -0.0264
23778W        W66695   5.719  11.846  25.355  0.1591 -0.1763 -0.1263
23779W        W66696   4.678   9.743  24.753  0.2783  0.0520  0.0036
23780W        W66697   6.706   7.726  20.754  0.2118 -0.0085 -0.2240
23781W        W66698   5.373   7.864  20.441 -0.4824 -0.0296  0.0280
23782W        W66699   5.615  10.194  21.523  0.0091 -0.1562  0.1740
23783W        W66700   7.067   8.716  23.112 -0.0452 -0.1314 -0.0228
23784W        W66701   5.064  10.252  21.604  0.1878 -0.0765  0.0593
23785W        W66702   6.322   8.322  21.387 -0.0440  0.1739 -0.1314
23786W        W66703   3.967   9.424  24.288  0.0661 -0.0523  0.0772
23787W        W66704   3.895   7.581  21.778  0.1306  0.0725  0.1871
23788W        W66705   3.125   9.650  18.812  0.1629 -0.0632  0.0859
23789W        W66706   4.866   8.255  19.690  0.1776 -0.1742 -0.0007
23790W        W66707   3.729   6.483  22.955  0.1019  0.0298 -0.1678
23791W        W66708   6.272  10.806  22.640  0.0625 -0.2387 -0.1146
23792W        W66709   4.714   7.557  22.106 -0.1125  0.2485 -0.0347
23793W        W66710   6.951   7.773  22.520 -0.2222 -0.2371 -0.2100
23794W        W66711   6.474   8.679  22.639  0.0738  0.0211 -0.0493
23795W        W66712   5.522   7.741  21.918  0.0009 -0.1669 -0.0422
23796W        W66713   2.885  10.937  23.986  0.0311 -0.1260 -0.0655
23797W        W66714   6.948  11.533  22.813  0.2853 -0.2199  0.1049
23798W        W66715   6.335   8.415  23.270  0.4137  0.2977 -0.1106
23799W        W66716   8.048   7.084  23.478  0.1209  0.0970 -0.0683
23800W        W66717   7.306   8.382  19.686  0.0286  0.2815 -0.1124
23801W        W66718   5.760   8.418  19.186 -0.2689 -0.0408  0.1811
23802W        W66719   4.072   8.043  20.303 -0.0376 -0.2215 -0.0724
23803W        W66720   6.881   6.866  24.961 -0.0379 -0.0306  0.0674
23804W        W66721   4.396   8.164  19.895  0.6848 -0.3739  0.2264
23805W        W66722   5.166   7.288  22.033  0.0112 -0.1901  0.0005
23806W        W66723   5.021  10.063  19.133  0.0439  0.0533  0.0668
23807W        W66724   5.298   8.381  20.419  0.0300 -0.2797  0.0975
23808W        W66725   8.155   6.871  19.328 -0.1067  0.0569 -0.0599
23809W        W66726   2.886   7.851  21.925 -0.0610  0.0668 -0.1747
23810W        W66727   5.722  10.872  22.763 -0.0374 -0.3511 -0.1293
23811W        W66728   4.717   6.856  19.534  0.0912  0.0708 -0.0740
23812W        W66729   6.267  10.248  21.456 -0.0232 -0.2829  0.0714
23813W        W66730   4.315   8.433  22.100  0.0915  0.1798  0.0482
23814W        W66731   5.759   7.492  24.829  0.1162 -0.1699  0.1233
23815W        W66732   6.109   5.797  19.555 -0.0933  0.2006  0.3152
23816W        W66733   8.170   6.011  22.388 -0.0258  0.0279  0.2402
23817W        W66734   3.822  11.061  20.627  0.0939  0.2023  0.1390
23818W        W66735   4.275  10.209  22.071 -0.0266 -0.1045 -0.0008
23819W        W66736   3.609  10.504  24.605 -0.0371 -0.3023  0.0955
23820W        W66737   4.443   9.890  22.415  0.2254  0.0332  0.0678
23821W        W66738   6.496  10.590  21.179  0.2007  0.4777  0.0550
23822W        W66739   6.218   6.443  21.043 -0.2125  0.2317 -0.1779
23823W        W66740   6.972   7.899  23.140 -0.1351 -0.1213 -0.0143
23824W        W66741   6.050   9.595  25.096  0.2079 -0.0892 -0.0414
23825W        W66742   6.212   6.858  23.007  0.1090  0.1776 -0.1274
23826W        W66743   4.866  11.044  25.696  0.2317  0.4756  0.2918
23827W        W66744   4.668   9.250  22.274 -0.4082 -0.1125  0.0345
23828W        W66745   5.129  11.040  24.185  0.0605  0.1315 -0.0974
23829W        W66746   7.356   7.917  22.780  0.3635  0.1857  0.0904
23830W        W66747   4.601  10.927  21.159  0.2277 -0.0543 -0.1706
23831W        W66748   1.918   7.749  24.340 -0.1608  0.2489  0.3464
23832W        W66749   5.508   8.799  22.562  0.1848 -0.0205 -0.1276
23833W        W66750   6.156   9.266  21.716 -0.0433  0.0549 -0.1341
23834W        W66751   3.620   8.560  19.617  0.1352  0.1450  0.1274
23835W        W66752   7.437  10.267  20.740 -0.2472  0.1119 -0.3691
23836W        W66753   4.288  11.690  23.372  0.1179  0.0827  0.0014
23837W        W66754   3.021   9.612  23.293 -0.0516 -0.2713  0.0513
23838W        W66755   4.566  11.473  22.935  0.3738 -0.0739  0.1423
23839W        W66756   8.025  10.100  21.699  0.1935 -0.2839 -0.1138
23840W        W66757   5.026   7.929  20.719  0.0344 -0.0878  0.0088
23841W        W66758   5.268  11.088  22.332  0.0823  0.1219 -0.3338
23842W        W66759   5.817  10.204  20.965 -0.1768  0.3253 -0.1536
23843W        W66760   3.800  12.072  20.865  0.5209 -0.3349 -0.0764
23844W        W66761   3.754  10.827  21.790 -0.0342 -0.1274 -0.1896
23845W        W66762   6.619  10.753  20.466  0.2770 -0.0933  0.4981
23846W        W66763   4.213   9.352  21.554  0.0682  0.1344  0.0462
23847W        W66764   6.293  10.669  23.137 -0.2235  0.3163  0.3207
23848W        W66765   6.051   7.762  19.870 -0.0182  0.2004  0.0834
23849W        W66766   7.164   9.539  21.884  0.2478 -0.0616 -0.2902
23850W        W66767   7.420   6.330  21.328  0.0553  0.0686  0.0316
23851W        W66768   5.361   7.296  23.206 -0.1211  0.0857 -0.0991
23852W        W66769   4.041  10.415  23.426  0.3211  0.3574  0.1427
23853W        W66770   5.296   8.804  21.187 -0.0858 -0.1802 -0.0227
23854W        W66771   3.752   9.905  24.363 -0.0053  0.0559 -0.0737
23855W        W66772   7.787   6.168  21.607  0.1186 -0.0582 -0.3025
23856W        W66773   4.393  11.819  24.283 -0.1745 -0.1997 -0.0739
23857W        W66774   7.931   8.614  21.900 -0.5110 -0.2858  0.3465
23858W        W66775   4.995   9.727  21.596  0.0211  0.1376  0.0091
23859W        W66776   4.811  10.334  22.162  0.2771 -0.0262  0.2687
23860W        W66777   7.729   6.180  22.525 -0.0267  0.0240 -0.2295
23861W        W66778   5.884   9.282  21.128  0.0794 -0.0309 -0.0702
23862W        W66779   5.433   8.777  24.932  0.0429 -0.0621 -0.0958
23863W        W66780   7.150  11.367  21.166 -0.1566  0.0850 -0.2614
23864W        W66781   4.074  11.364  22.410  0.2019  0.4333  0.1572
23865W        W66782   4.835  10.823  22.596  0.1086  0.1728  0.0100
23866W        W66783   3.964   8.883  20.252  0.1005  0.0793  0.2651
23867W        W66784   7.254   7.676  21.084 -0.4024 -0.0247  0.1082
23868W        W66785   4.591  10.094  23.159 -0.3695 -0.1784  0.2863
23869W        W66786   8.729   7.608  22.506  0.1271 -0.0107 -0.1222
23870W        W66787   6.213   9.019  20.796  0.1278 -0.1393 -0.1289
23871W        W66788   5.998   8.656  21.683  0.3905  0.0180  0.4198
23872W        W66789   5.011  10.113  24.621  0.1241 -0.1422 -0.2219
23873W        W66790   3.202   9.782  24.517  0.1286  0.1925 -0.0870
23874W        W66791   6.202  10.498  20.792 -0.1477  0.0633  0.2197
23875W        W66792   6.323   9.565  20.883  0.1970 -0.0583 -0.2331
23876W        W66793   6.679   8.811  20.139 -0.3218  0.0203  0.1777
23877W        W66794   7.210  11.742  22.451 -0.0757  0.4090 -0.1038
23878W        W66795   3.305   8.809  22.213 -0.4266  0.3309  0.0476
23879W        W66796   4.558  11.081  20.161  0.0676 -0.0420 -0.3628
23880W        W66797   4.837  10.417  21.166  0.1316 -0.1166  0.1897
23881W        W66798   4.791   7.994  22.782  0.1167  0.0199 -0.0587
23882W        W66799   6.610   9.317  24.247  0.3029  0.1664 -0.0018
23883W        W66800   3.613   7.871  20.165  0.5869 -0.3223  0.4668
23884W        W66801   6.911   9.367  19.615 -0.0925  0.0901 -0.0525
23885W        W66802   6.082   6.833  21.383 -0.2048 -0.1022  0.2749
23886W        W66803   5.760  10.775  22.247 -0.0363 -0.0205  0.0069
23887W        W66804   7.155   9.119  20.340 -0.0704  0.3986 -0.1215
23888W        W66805   6.379  11.022  20.859  0.2253 -0.3655  0.0488
23889W        W66806   4.291   6.309  24.412 -0.0760  0.2134 -0.1749
23890W        W66807   7.261  11.844  21.962 -0.1250 -0.1625  0.2116
23891W        W66808   8.912  11.360  21.088  0.1220 -0.2051 -0.2172
23892W        W66809   3.317   6.213  22.805  0.1754 -0.0378 -0.1621
23893W        W66810   5.294   9.312  21.155 -0.2052 -0.1457  0.0796
23894W        W66811   3.699  10.787  23.231 -0.1372  0.1433 -0.0679
23895W        W66812   5.782   7.825  21.469  0.1759 -0.2559  0.1132
23896W        W66813   6.405   7.820  22.164 -0.0782  0.0713  0.0022
23897W        W66814   6.623   8.745  20.642 -0.1333 -0.0736  0.2443
23898W        W66815   6.960   7.374  21.419  0.0759 -0.0308 -0.0286
23899W        W66816   5.137   9.668  23.576 -0.0569  0.0675  0.1404
23900W        W66817   4.655  10.689  23.993 -0.1675 -0.2193  0.1364
23901W        W66818   4.798   8.906  19.339  0.0159  0.1616  0.0415
23902W        W66819   4.405   9.061  24.492  0.1144 -0.1391  0.0181
23903W        W66820   6.534   7.926  22.906 -0.3952 -0.0667 -0.1495
23904W        W66821   4.295  11.086  19.721 -0.0484  0.0421  0.0298
23905W        W66822   6.153  10.012  20.641 -0.1414 -0.0873 -0.3395
23906W        W66823   5.398  10.503  22.116 -0.0692  0.2461 -0.1969
23907W        W66824   6.897  11.119  22.482 -0.0930  0.0734 -0.0345
23908W        W66825   7.771   8.603  20.077 -0.2246  0.0091  0.0125
23909W        W66826   5.732   7.512  22.944 -0.0080 -0.1639 -0.1058
23910W        W66827   3.568   7.421  21.411 -0.1646  0.0008  0.3159
23911W        W66828   6.600   9.666  22.560  0.1732 -0.2824  0.1408
23912W        W66829   4.089   9.123  18.744  0.1610  0.2569 -0.3310
23913W        W66830   4.933   9.813  21.113 -0.0224 -0.1885 -0.1892
23914W        W66831   4.699   8.379  22.344  0.1490  0.3643  0.0230
23915W        W66832   5.093   7.557  22.463 -0.0517 -0.0599  0.1143
23916W        W66833   4.041   8.947  24.067  0.0504 -0.0790 -0.0651
23917W        W66834   4.981   8.434  20.964 -0.1197  0.2097  0.2201
23918W        W66835   4.790   8.884  20.829 -0.4219 -0.1518  0.1811
23919W        W66836   9.156   9.324  21.120 -0.1859  0.1806  0.0388
23920W        W66837   3.304  10.731  22.016  0.2379  0.3434 -0.0495
23921W        W66838   5.540   7.798  22.416 -0.0103 -0.0300  0.2636
23922W        W66839   7.305   9.660  19.662 -0.1257 -0.1811  0.0028
23923W        W66840   5.843   9.840  19.644  0.2031  0.0150 -0.1174
23924W        W66841   4.332   8.806  21.273  0.1923 -0.0467 -0.0369
23925W        W66842   6.866   8.280  23.903 -0.1648 -0.0212  0.3954
23926W        W66843   5.523  10.696  19.641 -0.2125 -0.0955  0.1670
23927W        W66844   4.520  10.455  24.417  0.0101  0.2349 -0.0461
23928W        W66845   5.677   6.849  23.423  0.0169  0.1581 -0.2323
23929W        W66846   3.167   5.699  18.041 -0.0894  0.0541 -0.2910
23930W        W66847   6.696   8.554  21.619 -0.0509  0.3900 -0.1911
23931W        W66848   5.800   9.648  21.650 -0.2629  0.1689 -0.0264
23932W        W66849   6.941  11.066  20.634 -0.0090 -0.1001 -0.1742
23933W        W66850   4.901  10.237  24.154 -0.1588 -0.1375  0.1427
23934W        W66851   4.573  11.452  24.789 -0.0773  0.0064 -0.2273
23935W        W66852   3.581   8.836  23.394  0.1497 -0.0766  0.0333
23936W        W66853   8.069   8.210  21.307  0.1166  0.0643  0.0256
23937W        W66854   6.138   9.502  25.876  0.1105 -0.3751  0.0823
23938W        W66855   8.257   9.367  20.083 -0.1756  0.5773  0.0103
23939W        W66856   7.290   5.724  21.402  0.0725 -0.0350 -0.0377
23940W        W66857   5.388   8.343  19.907  0.2062 -0.3724  0.1266
23941W        W66858   4.668   8.025  21.036  0.0335 -0.1257 -0.2458
23942W        W66859   4.505   8.369  22.959  0.0505 -0.3272  0.0699
23943W        W66860   6.272   7.748  21.483  0.2390 -0.0433 -0.0095
23944W        W66861   4.480   8.333  21.363  0.5319  0.3242  0.1200
23945W        W66862   6.281   6.423  20.494  0.0334  0.1580  0.2825
23946W        W66863   7.180  10.654  20.428 -0.1579  0.1986 -0.2466
23947W        W66864   5.265  10.188  21.082 -0.0604  0.0270  0.2644
23948W        W66865   7.983   9.946  18.097 -0.2759 -0.0648  0.0345
23949W        W66866   5.983   7.610  21.932 -0.0244 -0.1594 -0.0675
23950W        W66867   7.066   9.015  22.073 -0.0212 -0.0165  0.0242
23951W        W66868   6.667   7.027  23.269 -0.1281  0.1308  0.2529
23952W        W66869   5.686   9.005  21.604  0.0650  0.1216  0.0840
23953W        W66870   7.293   9.298  21.125  0.0579  0.3369 -0.1561
23954W        W66871   4.171  10.982  21.521 -0.0026 -0.4392 -0.3391
23955W        W66872   5.353   9.732  22.732 -0.1049  0.1447 -0.0528
23956W        W66873   5.869  10.960  24.282  0.3526  0.1923 -0.1561
23957W        W66874   5.591  11.563  22.194 -0.4665 -0.0181 -0.1422
23958W        W66875   3.057   9.001  21.860  0.1736  0.0081  0.2746
23959W        W66876   5.663   7.673  20.849  0.2108 -0.0049 -0.0725
23960W        W66877   5.234   9.268  21.681 -0.0342 -0.1128 -0.0115
23961W        W66878   6.189   8.551  20.965  0.0562 -0.2842  0.0377
23962W        W66879   4.275   9.358  22.566 -0.1950  0.0579  0.2792
23963W        W66880   4.563   7.471  21.242 -0.0759  0.0584 -0.0845
23964W        W66881   5.944  11.214  24.663 -0.1046 -0.1991 -0.1662
23965W        W66882   4.948   8.007  20.180  0.0380 -0.0529 -0.1080
23966W        W66883   5.149   7.307  28.087  0.4163  0.1367  0.1493
23967W        W66884   3.312   6.491  24.360  0.0177 -0.0896  0.0222
23968W        W66885   8.358   5.946  26.279  0.3554  0.0334 -0.0835
23969W        W66886   6.277   7.399  22.867 -0.3554  0.0290 -0.0178
23970W        W66887   3.957   7.541  23.048  0.1125  0.1540 -0.0570
23971W        W66888   6.807  10.207  23.563  0.0184 -0.4954  0.1194
23972W        W66889   6.032   6.651  25.539  0.1230 -0.0437  0.0919
23973W        W66890   7.890   8.606  25.419  0.3114 -0.0202  0.0870
23974W        W66891   7.968  11.559  25.144  0.2439 -0.3999 -0.1026
23975W        W66892   6.193  10.048  24.832 -0.0821 -0.1589 -0.1724
23976W        W66893   5.015   9.019  26.193 -0.1594 -0.0952 -0.0169
23977W        W66894   5.572  12.957  26.321  0.1264  0.0545 -0.1893
23978W        W66895   5.377   6.527  23.641 -0.1243 -0.0957  0.0326
23979W        W66896   4.896   9.718  28.199 -0.2425 -0.0642 -0.1235
23980W        W66897   6.092   9.097  26.272 -0.0510 -0.0010  0.3942
23981W        W66898   2.708   8.583  26.519  0.0757 -0.1987  0.0043
23982W        W66899   4.546   7.120  26.799  0.3626  0.0061  0.5159
23983W        W66900   4.636   6.779  23.195  0.1429  0.0222 -0.0931
23984W        W66901   6.957  10.589  26.917  0.3993  0.0468  0.0440
23985W        W66902   5.168   9.613  27.741  0.1239  0.2380  0.2311
23986W        W66903   6.246   9.276  25.405  0.0819  0.5333  0.0759
23987W        W66904   7.537   9.178  25.280  0.2518 -0.0565  0.2338
23988W        W66905   3.786   7.841  25.823 -0.0599 -0.0827  0.3450
23989W        W66906   1.485   8.852  27.795 -0.1552 -0.1357 -0.3528
23990W        W66907   4.626   8.423  25.411  0.1846 -0.1673  0.1512
23991W        W66908   9.219   6.657  25.808 -0.0792 -0.0567 -0.1742
23992W        W66909   6.585   7.093  24.403  0.1840 -0.1178  0.0620
23993W        W66910   5.961  12.641  25.101  0.0205  0.0422 -0.2842
23994W        W66911   5.507   9.576  25.890  0.0162 -0.2171 -0.2045
23995W        W66912   7.498   6.554  26.804  0.1981  0.1590 -0.5713
23996W        W66913   3.891   8.380  27.319  0.1959 -0.1229 -0.0444
23997W        W66914   4.667   9.883  27.233 -0.0603 -0.1583  0.0272
23998W        W66915   5.378  10.105  23.661  0.1299 -0.1789 -0.1192
23999W        W66916   6.295   8.693  25.124  0.2220 -0.1369  0.0198
24000W        W66917   7.690   9.525  26.733 -0.1636 -0.1192  0.2683
24001W        W66918   7.360  10.943  27.990  0.1547  0.3025 -0.1324
24002W        W66919   5.317   9.689  24.757 -0.1116  0.2137  0.2101
24003W        W66920   7.183   9.176  28.366 -0.0421  0.2666  0.1479
24004W        W66921   5.175   9.174  26.796 -0.0667 -0.2948  0.3061
24005W        W66922   5.195   6.981  24.342 -0.2346 -0.0749 -0.2014
24006W        W66923   4.810   9.213  25.568  0.2692  0.1142 -0.0257
24007W        W66924   6.490  10.710  24.166  0.1513  0.1830  0.1583
24008W        W66925   5.787   7.003  24.523 -0.2414 -0.2820 -0.2845
24009W        W66926   6.140   9.357  26.776 -0.1332 -0.2875  0.1668
24010W        W66927   5.789  10.484  26.385  0.1053  0.0445  0.2118
24011W        W66928   8.998   8.207  26.191 -0.1525  0.0804 -0.0650
24012W        W66929   4.966   8.789  25.268  0.0900 -0.2343 -0.4440
24013W        W66930   3.987   6.973  23.164 -0.0511  0.2260 -0.2577
24014W        W66931   5.595   8.710  23.516  0.0460  0.1132 -0.2481
24015W        W66932   5.388   9.268  23.433 -0.0364 -0.2555 -0.0878
24016W        W66933   7.643   7.269  25.300 -0.1831  0.2326  0.1817
24017W        W66934   5.993  10.867  27.237  0.1391 -0.1917 -0.1642
24018W        W66935   5.101   8.318  26.866 -0.0056  0.0875  0.1762
24019W        W66936   7.638   9.997  26.831 -0.1616 -0.2022  0.0186
24020W        W66937   4.593   9.601  23.385 -0.0854 -0.0674  0.0846
24021W        W66938   5.869   8.670  25.478  0.2573 -0.1194  0.1480
24022W        W66939   6.977  10.811  26.484 -0.2713 -0.0809 -0.2871
24023W        W66940   3.520   7.314  23.201  0.0099 -0.2381  0.0882
24024W        W66941   7.366  10.752  24.590 -0.0866 -0.0498  0.0519
24025W        W66942   6.396  11.021  25.020  0.1505  0.0319  0.1789
24026W        W66943   3.634  11.118  25.160 -0.4169 -0.0366  0.0150
24027W        W66944   5.177   7.564  24.097  0.2643  0.0516  0.1821
24028W        W66945   5.640   9.087  29.775  0.1321 -0.0797  0.3474
24029W        W66946   4.998   7.740  26.028  0.0560  0.0387  0.1467
24030W        W66947   4.475   8.003  25.206 -0.0505  0.1367 -0.2019
24031W        W66948   7.956  10.573  28.415 -0.3251  0.2314  0.1915
24032W        W66949   3.805   8.620  28.201 -0.3748  0.3292  0.0898
24033W        W66950   6.940   7.529  24.457 -0.0125  0.1070  0.1604
24034W        W66951   3.482   8.840  25.326 -0.0788 -0.3711 -0.2570
24035W        W66952   8.526   9.072  24.908 -0.0879 -0.2130 -0.1173
24036W        W66953   4.582   9.715  25.269  0.2691 -0.0892  0.1142
24037W        W66954   6.728   8.413  25.210  0.1371  0.0960 -0.1347
24038W        W66955   7.735   7.394  27.384 -0.0145 -0.0884 -0.2367
24039W        W66956   2.839   8.885  25.583 -0.2970  0.2419  0.1647
24040W        W66957   4.978   8.169  25.183  0.1914 -0.0807 -0.0886
24041W        W66958   8.848   7.746  25.178  0.0997  0.0506 -0.1592
24042W        W66959   7.646   6.353  24.050 -0.1872 -0.0558 -0.2742
24043W        W66960   5.881  10.311  27.266  0.0223 -0.0354 -0.1313
24044W        W66961   5.819   8.143  25.778 -0.0677  0.1097 -0.0217
24045W        W66962   5.842   9.913  25.723  0.0286 -0.1425 -0.0529
24046W        W66963   5.490   9.746  27.354 -0.1589 -0.1815  0.0067
24047W        W66964   3.391   9.461  28.407  0.2154  0.2761 -0.0563
24048W        W66965   3.609   7.570  25.273  0.0807 -0.0501  0.4519
24049W        W66966   5.685   8.245  27.648 -0.0398  0.1677  0.1611
24050W        W66967   6.520   8.960  26.681 -0.0668  0.0497 -0.2474
24051W        W66968   5.639   8.352  22.497 -0.1388 -0.2200  0.0165
24052W        W66969   5.574   8.770  26.792 -0.0539 -0.1634 -0.2741
24053W        W66970   7.523   7.261  24.221  0.0651  0.1653  0.2128
24054W        W66971   3.196  10.093  25.232  0.0242 -0.1681 -0.1798
24055W        W66972   6.103   8.958  23.649 -0.1075  0.2688 -0.1927
24056W        W66973   7.645   7.276  23.343 -0.2456 -0.0860 -0.0751
24057W        W66974   6.865   8.352  23.344 -0.2720 -0.2973  0.4814
24058W        W66975   1.697   7.633  26.065  0.0259 -0.1366  0.0850
24059W        W66976   4.164   7.794  26.127 -0.0321 -0.1494 -0.2306
24060W        W66977   4.973   6.594  27.346 -0.1396 -0.3689 -0.0659
24061W        W66978   4.072   7.415  24.533  0.4578  0.3837 -0.1789
24062W        W66979   7.107   7.894  23.667  0.1403 -0.0469 -0.3305
24063W        W66980   4.470   6.449  24.885 -0.1050  0.2709  0.0991
24064W        W66981   7.024   8.630  25.605  0.1889 -0.0792 -0.2700
24065W        W66982   4.440   7.338  23.245 -0.1302 -0.0009 -0.1239
24066W        W66983   2.758  10.243  25.454  0.2373 -0.0686  0.1418
24067W        W66984   7.888   6.906  27.668 -0.2246 -0.1326 -0.1397
24068W        W66985   7.849  11.079  23.922  0.1041 -0.1790 -0.2381
24069W        W66986   7.220  11.257  25.469 -0.1986  0.0340 -0.1003
24070W        W66987   8.667  11.164  27.354 -0.3041  0.4729  0.3514
24071W        W66988   5.395  10.680  27.291 -0.0147 -0.4401  0.3028
24072W        W66989   3.179   7.620  23.696 -0.3386  0.2712  0.0163
24073W        W66990   4.502  12.684  27.064  0.1374  0.0247 -0.4807
24074W        W66991   4.160   8.662  26.313  0.1854 -0.0595  0.0695
24075W        W66992   5.079   8.384  24.724  0.2581  0.0446  0.1296
24076W        W66993   6.788  10.658  25.138  0.0015 -0.2068  0.2094
24077W        W66994   3.483  10.072  25.706  0.1790 -0.2000  0.1663
24078W        W66995   5.461   8.182  27.134  0.1031 -0.0937 -0.0650
24079W        W66996   5.078   8.192  25.687  0.0802 -0.0623 -0.4385
24080W        W66997   7.200   9.353  26.523 -0.3293  0.0515  0.1828
24081W        W66998   6.325   8.178  26.196 -0.0040 -0.3658 -0.0809
24082W        W66999   2.811   9.553  23.974 -0.1726  0.0720  0.0901
24083W        W67000   7.602  11.305  24.651 -0.2189 -0.1137  0.0322
24084W        W67001   5.129  10.034  26.064 -0.1653  0.0034  0.0118
24085W        W67002   3.936   9.260  27.925  0.1242 -0.0753  0.1053
24086W        W67003   5.706  11.427  25.663 -0.2711  0.2078  0.2052
24087W        W67004   6.964   6.934  25.887 -0.2632  0.3533  0.0360
24088W        W67005   3.578   8.548  27.694  0.2894 -0.0266  0.1916
24089W        W67006   5.834   8.299  26.809 -0.1217 -0.1219  0.1577
24090W        W67007   2.906   5.741  23.945 -0.0350 -0.0533  0.0527
24091W        W67008   4.203   9.614  27.496  0.0228  0.2417 -0.2867
24092W        W67009   5.642   7.853  23.910 -0.2293  0.0064  0.0023
24093W        W67010   8.344   7.135  23.059 -0.2783  0.0451  0.2619
24094W        W67011   6.642  10.391  26.519 -0.0018  0.0156  0.1844
24095W        W67012   7.945   8.217  23.305  0.2276  0.1464 -0.0268
24096W        W67013   5.894   8.004  22.223 -0.1393 -0.1567  0.0562
24097W        W67014   4.380   6.254  22.008 -0.0358 -0.2841 -0.0718
24098W        W67015   4.424   8.441  29.556 -0.2808 -0.0442  0.1778
24099W        W67016   5.721   9.674  26.826  0.1723  0.0570 -0.0343
24100W        W67017   5.809   9.008  25.817 -0.0441 -0.0183 -0.0196
24101W        W67018   2.742   8.794  24.129  0.4009  0.1177 -0.1011
24102W        W67019   5.808  10.832  25.003 -0.0309  0.0052  0.0027
24103W        W67020   4.563   9.110  26.012  0.1061 -0.3107 -0.0704
24104W        W67021   5.628   7.354  24.216  0.1885  0.1603 -0.1043
24105W        W67022   5.134  10.102  25.112 -0.0300  0.1479 -0.1334
24106W        W67023   6.259   6.757  24.189 -0.0185 -0.1761  0.0257
24107W        W67024   4.735   8.371  21.839 -0.0840 -0.1936  0.0306
24108W        W67025   5.224   7.030  23.835 -0.0885 -0.1702  0.0156
24109W        W67026   5.060   9.965  26.585 -0.2967  0.0325  0.1693
24110W        W67027   8.316   8.084  27.162 -0.1507 -0.0186  0.0115
24111W        W67028   7.695   9.125  27.620  0.0909  0.1695  0.1046
24112W        W67029   8.913   5.755  27.343  0.3481 -0.2086 -0.0088
24113W        W67030   7.756   8.487  26.357  0.0871  0.0175 -0.4414
24114W        W67031   3.927   7.997  22.880  0.0188  0.0314  0.2619
24115W        W67032   5.933  10.124  26.640  0.3549  0.0136 -0.1529
24116W        W67033   3.341   9.434  26.554  0.1356 -0.4485  0.0901
24117W        W67034   6.253   7.354  24.746  0.2372 -0.3011  0.2242
24118W        W67035   6.899   9.996  26.676  0.2215 -0.2071 -0.0243
24119W        W67036   5.645  11.906  27.014 -0.3170  0.1980 -0.1621
24120W        W67037   8.156   9.609  26.887  0.3267  0.1889 -0.2199
24121W        W67038   6.330   9.880  25.677 -0.3410 -0.2814  0.2290
24122W        W67039   6.951   7.403  28.376 -0.0731 -0.0523  0.0294
24123W        W67040   5.882   7.251  25.266 -0.0706 -0.0367  0.0881
24124W        W67041   4.911   9.728  25.734 -0.4510  0.3767 -0.0217
24125W        W67042   5.276   8.766  21.743  0.3551 -0.2063  0.2251
24126W        W67043   5.443   8.124  26.071 -0.2697 -0.0724 -0.0858
24127W        W67044   5.395  11.134  25.911 -0.2467 -0.0176  0.1482
24128W        W67045   4.364   8.827  23.677 -0.1830 -0.0511 -0.3270
24129W        W67046   6.954   8.169  24.399  0.1719 -0.3686 -0.0952
24130W        W67047   5.559  10.365  25.956 -0.0752 -0.1032 -0.1303
24131W        W67048   8.077   7.558  26.234  0.0829  0.1957  0.0050
24132W        W67049   4.098   8.598  28.583  0.1318 -0.0489  0.0201
24133W        W67050   4.535   9.214  25.042 -0.1407  0.1675 -0.1848
24134W        W67051   2.544   9.246  25.481  0.1382 -0.3219 -0.0573
24135W        W67052   5.111   8.059  22.370 -0.0917 -0.0048  0.2126
24136W        W67053   6.084   8.385  22.571  0.1551  0.1402 -0.1311
24137W        W67054   3.897   8.607  23.728  0.0698 -0.0237  0.0312
24138W        W67055   5.505   8.891  26.262  0.3167 -0.1351  0.2021
24139W        W67056   4.359   9.433  26.658  0.1344  0.1757 -0.0056
24140W        W67057   7.855   7.949  22.932 -0.2780  0.0925  0.2582
24141W        W67058   6.862   5.579  23.441  0.2668  0.1528 -0.2105
24142W        W67059   5.508  10.075  27.008  0.1493  0.0976  0.1881
24143W        W67060   4.817  10.239  28.739 -0.0242  0.2155  0.0487
24144W        W67061   3.408   7.257  25.669 -0.1276  0.1041  0.4742
24145W        W67062   8.300  10.947  26.872 -0.1077 -0.2340  0.3665
24146W        W67063   4.364   8.459  24.010 -0.0824  0.3873 -0.0850
24147W        W67064   4.068  10.924  26.051 -0.0907  0.2659  0.0736
24148W        W67065   6.951  10.417  25.679  0.0668  0.0755  0.1701
24149W        W67066   4.544  10.138  24.988 -0.0898  0.1908  0.0075
24150W        W67067   3.603   8.476  24.188  0.1797 -0.4582  0.0997
24151W        W67068   3.763   8.152  26.454 -0.2073  0.0227  0.2516
24152W        W67069   6.659   9.424  25.724  0.2809  0.0882 -0.1156
24153W        W67070   6.193   8.102  24.050  0.1669 -0.0765 -0.0961
24154W        W67071   4.252   7.103  24.132 -0.2693 -0.0589  0.1112
24155W        W67072   5.713   7.943  25.277  0.2034  0.3580 -0.0046
24156W        W67073   7.471   9.499  24.928  0.0138 -0.0715  0.1359
24157W        W67074   6.042   8.825  28.493 -0.0861  0.0917 -0.1114
24158W        W67075   5.199  10.142  28.455  0.0908 -0.2167 -0.0859
24159W        W67076   6.564   6.042  26.946  0.2427 -0.1972 -0.0429
24160W        W67077   7.037  11.588  25.083  0.1939 -0.3027 -0.2112
24161W        W67078   5.909   9.642  26.333 -0.3485 -0.0678  0.0603
24162W        W67079   3.930   8.948  24.565 -0.1293  0.1675  0.3164
24163W        W67080   2.524   9.760  28.263 -0.0701 -0.1040 -0.0498
24164W        W67081   5.072   7.753  23.643  0.0954 -0.1607 -0.1711
24165W        W67082   7.311   6.065  26.095 -0.1420  0.2012 -0.2799
24166W        W67083   6.955  11.038  27.188  0.2583 -0.2186  0.0107
24167W        W67084   6.197  10.505  25.113 -0.1990  0.1322  0.3092
24168W        W67085   3.842  10.705  23.789  0.3007  0.1620  0.1483
24169W        W67086   8.574   7.646  24.502 -0.0491 -0.2181 -0.3470
24170W        W67087   4.049  10.453  24.275 -0.1170 -0.0605 -0.2372
24171W        W67088   5.482   7.808  24.370 -0.3636 -0.1140  0.0068
24172W        W67089   6.575   6.966  26.567  0.0387 -0.1086 -0.4487
24173W        W67090   5.956   8.115  23.575 -0.2928 -0.1368  0.0760
24174W        W67091   7.095   7.364  25.236  0.2185 -0.3349 -0.0877
24175W        W67092   5.555   6.758  25.403 -0.3722  0.1906  0.3178
24176W        W67093   6.458   9.229  23.383  0.0173 -0.0428 -0.0398
24177W        W67094   5.964   9.499  30.009  0.0170  0.1781  0.0490
24178W        W67095   6.933  10.471  27.372 -0.1045  0.1927  0.0822
24179W        W67096   5.715   8.562  27.269  0.1529 -0.0533 -0.0609
24180W        W67097   6.801   8.957  24.993 -0.3890 -0.1874 -0.1514
24181W        W67098   3.674   5.872  23.820  0.1483 -0.0322  0.0641
24182W        W67099   6.685   9.493  26.715 -0.0495  0.0971 -0.1118
24183W        W67100   6.634   8.907  25.439  0.1851  0.1108 -0.0861
24184W        W67101   4.864  10.515  24.945 -0.0520 -0.0399  0.3150
24185W        W67102   7.476   6.133  26.557  0.0974 -0.0222  0.3872
24186W        W67103   4.058   9.118  25.804  0.0815  0.2214 -0.0634
24187W        W67104   6.960   8.972  24.454 -0.4821 -0.0316 -0.3852
24188W        W67105   4.592  10.541  23.471 -0.0456  0.2067 -0.0691
24189W        W67106   5.229   8.746  28.100 -0.0655 -0.2702 -0.0464
24190W        W67107   4.884   7.545  26.714  0.1634 -0.1138  0.1593
24191W        W67108   6.206   6.837  24.711 -0.2636  0.0241 -0.0345
24192W        W67109   8.842   7.041  26.006 -0.2902 -0.0541  0.2435
24193W        W67110   7.157  10.259  25.272  0.0809  0.3982 -0.1061
24194W        W67111   6.547   9.719  26.072  0.0673  0.3683  0.0140
24195W        W67112   6.014   6.775  27.841 -0.1674 -0.3096  0.1019
24196W        W67113   3.939   8.223  27.869 -0.0301 -0.0433  0.0290
24197W        W67114   7.342  11.125  25.933 -0.1545 -0.3119  0.4342
24198W        W67115   6.527   7.256  23.847 -0.1997 -0.0020 -0.2039
24199W        W67116   7.522   9.413  25.681 -0.0343  0.0205  0.0325
24200W        W67117   6.081   7.550  23.682 -0.1015 -0.1286  0.2436
24201W        W67118   5.538  10.032  26.364 -0.2852  0.0694  0.0075
24202W        W67119   2.915   7.594  26.604 -0.1711  0.1879 -0.0843
24203W        W67120   6.436   7.866  27.326  0.1105 -0.0200 -0.0682
24204W        W67121   4.738   8.802  24.806  0.1750 -0.2772  0.2711
24205W        W67122   8.330   7.415  27.709  0.0631 -0.1757 -0.0383
24206W        W67123   6.038  11.407  24.068 -0.2723  0.3727  0.0031
24207W        W67124   4.440   9.535  25.789 -0.2887 -0.0487  0.1742
24208W        W67125   8.363   5.693  24.532  0.1434  0.1361 -0.1435
24209W        W67126   3.106   6.377  25.714  0.0223 -0.1750  0.0535
24210W        W67127   6.462  10.988  28.585 -0.0618 -0.1606 -0.0298
24211W        W67128   4.868   7.130  22.943 -0.0761 -0.1669 -0.0544
24212W        W67129   3.944   9.143  23.537 -0.0026  0.0892  0.1608
24213W        W67130   7.463   9.827  25.378 -0.0259 -0.2138  0.2040
24214W        W67131   8.123   9.040  29.046  0.1364 -0.3759  0.2028
24215W        W67132   6.699   6.305  24.161  0.1712 -0.0966 -0.0627
24216W        W67133   8.270   7.700  25.351 -0.3156  0.2090  0.1269
24217W        W67134   4.623   8.651  26.205 -0.2359  0.1101  0.0649
24218W        W67135   5.429   8.399  26.486 -0.0709  0.3624  0.2494
24219W        W67136   5.636  10.533  26.839  0.3816 -0.4313 -0.0492
24220W        W67137   2.996   8.032  28.343 -0.1420  0.1527 -0.1043
24221W        W67138   7.625  12.797  25.996 -0.2892 -0.1756  0.0606
24222W        W67139   6.289   7.092  25.701  0.2060 -0.0075  0.0500
24223W        W67140   6.464   9.783  25.224 -0.0088  0.0319  0.4058
24224W        W67141   4.390   8.918  25.393 -0.4941 -0.2558  0.1665
24225W        W67142   8.901   7.440  26.824 -0.2495  0.2354  0.0422
24226W        W67143   6.433   9.664  24.650 -0.0340 -0.1500  0.1669
24227W        W67144   3.590   9.223  25.635  0.3309  0.3773  0.1389
24228W        W67145   6.210   8.554  26.559 -0.2020  0.2219  0.2508
24229W        W67146   6.993   9.480  23.962 -0.2975 -0.1212 -0.0147
24230W        W67147   5.463   9.233  24.559  0.2974  0.1875  0.0364
24231W        W67148   3.776   9.512  26.821  0.1571  0.0425  0.1443
24232W        W67149   4.839   8.817  28.992 -0.5168  0.2062  0.2049
24233W        W67150   7.228   9.922  23.994  0.1148 -0.0654  0.0272
24234W        W67151   4.902   7.971  24.186 -0.0666 -0.1466 -0.1459
24235W        W67152   4.332   9.311  23.802 -0.1226  0.0163 -0.0535
24236W        W67153   4.329   8.993  28.116 -0.1308  0.0356  0.1197
24237W        W67154   4.246   7.739  27.606  0.1025  0.0684 -0.0866
24238W        W67155   2.466  11.307  25.391  0.1345  0.1642 -0.0334
24239W        W67156   7.083   9.584  26.078 -0.0785 -0.0695  0.3226
24240W        W67157   6.005   9.400  23.397  0.2750 -0.1187 -0.2735
24241W        W67158   8.143  10.533  27.087 -0.0188  0.1046  0.0259
24242W        W67159   6.050   7.784  23.217 -0.0647  0.1055 -0.0227
24243W        W67160   3.331   8.560  28.090 -0.0616  0.1784 -0.1014
24244W        W67161   4.008  10.310  24.791 -0.1537 -0.1449  0.0815
24245W        W67162   6.691  10.518  22.866  0.2638 -0.5307 -0.1115
24246W        W67163   3.754   8.703  25.867  0.1533 -0.1521  0.1774
24247W        W67164   6.275   9.634  28.141 -0.0487  0.1661 -0.0050
24248W        W67165   6.870   5.751  23.916 -0.1592  0.0400  0.1365
24249W        W67166   9.206   7.991  23.929  0.1955  0.0439 -0.0748
24250W        W67167   8.320   6.426  24.608  0.1109 -0.0247  0.1053
24251W        W67168   6.160  10.640  28.764  0.1501 -0.0648  0.0500
24252W        W67169   5.210   7.845  27.658 -0.2424  0.2160  0.1778
24253W        W67170   3.334   8.600  24.718 -0.2701  0.1035 -0.0164
24254W        W67171   3.844   9.729  28.409  0.0555  0.3653 -0.0231
24255W        W67172   8.583   5.892  28.216 -0.0482  0.1863 -0.0575
24256W        W67173   4.670   8.012  29.187 -0.1175 -0.2795  0.1476
24257W        W67174   5.485  11.384  22.680 -0.2100 -0.1480  0.1991
24258W        W67175   2.095   8.234  24.208 -0.0554  0.0379  0.0878
24259W        W67176   6.387   6.121  25.289  0.0908 -0.3306 -0.0762
24260W        W67177   6.633   8.606  26.160  0.0313  0.0252 -0.0275
24261W        W67178   4.047   8.684  23.258  0.0967  0.4000 -0.2056
24262W        W67179   7.474   8.311  25.397 -0.2594 -0.3579 -0.1282
24263W        W67180   5.062   9.303  24.935  0.1539  0.1617  0.0988
24264W        W67181   4.744  10.142  25.500  0.2002 -0.2820  0.1832
24265W        W67182   7.728  10.334  27.296  0.1415  0.0649 -0.0903
24266W        W67183   5.341   7.345  25.618 -0.2355 -0.1154 -0.0344
24267W        W67184   6.761   7.732  24.070  0.0538 -0.0270  0.1653
24268W        W67185   3.228   8.331  26.469 -0.0795  0.0948 -0.1329
24269W        W67186   8.780   6.889  27.169  0.1720  0.4799  0.0120
24270W        W67187   5.487   8.990  25.395  0.1280  0.1545 -0.2225
24271W        W67188   5.839   8.470  26.213  0.1896 -0.2037 -0.1075
24272W        W67189   6.436   9.326  24.964 -0.1818 -0.0419 -0.0380
24273W        W67190   5.220   9.440  28.475 -0.0975 -0.0649 -0.0850
24274W        W67191   5.036  11.037  24.704  0.0614  0.0179 -0.3369
24275W        W67192   9.044   8.040  27.566  0.0847  0.0009 -0.3062
24276W        W67193   5.749   9.372  22.986 -0.0171 -0.0431  0.2258
24277W        W67194   8.181  10.321  26.185 -0.1809  0.1364 -0.0145
24278W        W67195   4.668   8.979  24.081 -0.0571 -0.2200 -0.1066
24279W        W67196   6.089   7.891  22.658  0.0939  0.1351  0.0527
24280W        W67197   4.941   8.179  26.417  0.3223 -0.0428  0.2510
24281W        W67198   6.053   7.427  27.778  0.0833 -0.3691  0.0437
24282W        W67199   7.280   9.097  25.957 -0.1742  0.0167  0.2649
24283W        W67200   4.147   8.486  24.483 -0.0847  0.0099 -0.0053
24284W        W67201   5.254   8.301  24.263 -0.1609  0.1996 -0.0392
24285W        W67202   9.616   8.717  26.393  0.3990 -0.2382  0.0901
24286W        W67203   4.690   9.063  26.579  0.1858 -0.0064  0.0412
24287W        W67204   6.465   8.988  24.619  0.3034  0.1914  0.1164
24288W        W67205   6.024  11.087  25.476 -0.0563  0.0657  0.0624
24289W        W67206   3.669   7.088  24.454  0.0720 -0.2636  0.0520
24290W        W67207   8.308  11.511  25.514 -0.0634 -0.1015  0.2369
24291W        W67208   5.950   8.776  24.531 -0.1845  0.0625  0.0934
24292W        W67209   7.885   6.793  25.842  0.2658  0.3607  0.0048
24293W        W67210   4.357   8.283  23.376 -0.1690  0.2310 -0.1854
24294W        W67211   2.723  11.525  24.600  0.0262  0.3103 -0.2088
24295W        W67212   7.293   7.742  24.102  0.0319 -0.3259  0.1689
24296W        W67213   6.633   8.002  26.641  0.1615  0.0803  0.4480
24297W        W67214   5.817  11.679  24.516 -0.1323  0.0120 -0.2080
24298W        W67215   7.105   6.660  27.103  0.1217  0.2095 -0.3695
24299W        W67216   8.024  10.676  25.601 -0.1386  0.2310  0.1391
24300W        W67217   6.463   9.923  26.526  0.1423  0.0868 -0.0904
24301W        W67218   2.717   7.042  27.319  0.2512  0.1366 -0.2520
24302W        W67219   5.924   9.525  27.285  0.0794  0.0049 -0.3069
24303W        W67220   4.704  10.305  26.048  0.1018  0.0880 -0.1635
24304W        W67221   5.364  11.079  25.056  0.0311  0.0561 -0.2928
24305W        W67222   7.915   9.053  23.200 -0.1502 -0.0601 -0.0239
24306W        W67223   5.402   7.562  25.118  0.0307  0.0542 -0.0585
24307W        W67224   7.398   9.983  25.835  0.0877  0.0545 -0.0069
24308W        W67225   5.816   9.485  25.491 -0.2852  0.2001  0.2235
24309W        W67226   7.857   7.445  25.759  0.0693 -0.2967  0.3097
24310W        W67227   5.801   7.581  26.597 -0.1420 -0.1356  0.1104
24311W        W67228   7.545   7.836  25.679 -0.0174  0.1954  0.1738
24312W        W67229   2.868   9.352  24.862 -0.1783  0.2477 -0.3764
24313W        W67230   3.740   9.838  25.225 -0.0806 -0.0852 -0.2885
24314W        W67231   4.025   8.551  25.333  0.1301  0.0618  0.1938
24315W        W67232   4.793   8.193  27.906 -0.1202 -0.0880  0.2678
24316W        W67233   3.932   9.207  28.434  0.1640 -0.1729 -0.0628
24317W        W67234   5.301   9.172  25.801  0.0416 -0.0485  0.0363
24318W        W67235   5.015   7.870  21.904 -0.1857  0.0545  0.2255
24319W        W67236   5.608   9.862  25.166  0.3247  0.2416 -0.0199
24320W        W67237   3.373   7.340  26.893 -0.1237 -0.1547  0.0580
24321W        W67238   3.180   6.926  25.010  0.0296 -0.2321  0.2335
24322W        W67239   6.614   8.503  24.247  0.2885 -0.1202  0.4254
24323W        W67240   5.941  10.420  24.342  0.1242  0.0317 -0.1016
24324W        W67241   4.899   7.559  23.087  0.2156  0.1400  0.0369
24325W        W67242   7.147   9.692  27.956 -0.1776  0.2367 -0.0030
24326W        W67243   4.893   9.229  24.488 -0.3081  0.0427 -0.1840
24327W        W67244   4.398   8.093  28.679  0.0675  0.0734 -0.1423
24328W        W67245   6.231   9.783  26.992 -0.5921 -0.2632 -0.1258
24329W        W67246   2.598   8.298  24.525  0.0109 -0.1402 -0.0205
24330W        W67247   6.111   8.871  26.988 -0.2491 -0.2858  0.0536
24331W        W67248   6.064  10.070  26.166 -0.0441  0.2752 -0.0468
24332W        W67249   8.204  11.133  25.062  0.3800  0.0883 -0.1097
24333W        W67250   6.305   9.049  25.824 -0.0757  0.0248  0.0844
24334W        W67251   5.444  12.013  27.739 -0.0708 -0.0230  0.1766
24335W        W67252   5.474   8.660  25.805  0.1729 -0.1735 -0.1365
24336W        W67253   6.492  10.294  25.958 -0.1909  0.1568  0.0184
24337W        W67254   5.320   9.484  29.244 -0.1094 -0.4091  0.0804
24338W        W67255   6.285   9.755  23.275 -0.4670  0.1966  0.0486
24339W        W67256   7.642   8.405  25.868 -0.0052 -0.0405  0.1619
24340W        W67257   7.025   9.830  25.059  0.0037  0.1113 -0.1373
24341W        W67258   5.438   9.279  27.960 -0.0622  0.1465 -0.2574
24342W        W67259   6.513  10.156  26.984  0.0545  0.3687 -0.3238
24343W        W67260   9.029   9.067  24.795  0.4280 -0.2190 -0.3819
24344W        W67261   5.545   7.577  26.103 -0.0241  0.0241 -0.0749
24345W        W67262   5.451   7.071  24.929  0.1014  0.4605 -0.0801
24346W        W67263   6.564   8.210  22.430 -0.1596  0.0461 -0.1885
24347W        W67264   4.946   7.698  25.446 -0.2454 -0.0653 -0.1780
24348W        W67265   5.381   8.055  24.892 -0.3539 -0.0899 -0.2063
24349W        W67266   6.302   8.314  26.998 -0.5563  0.0111 -0.1073
24350W        W67267   6.298   8.898  24.108  0.1333 -0.2426  0.2089
24351W        W67268   5.664   9.233  26.604  0.0095  0.1370  0.2712
24352W        W67269   4.783   8.463  24.350 -0.3097 -0.2535 -0.0481
24353W        W67270   5.597   8.837  24.076  0.2646  0.0296 -0.1991
24354W        W67271   7.689   9.289  24.523 -0.2140  0.2330 -0.1329
24355W        W67272   6.884  10.739  28.792  0.3203 -0.2541  0.2932
24356W        W67273   8.213  10.906  27.475  0.0655 -0.1061 -0.1549
24357W        W67274   8.014   9.472  25.848 -0.1546 -0.0567 -0.2693
24358W        W67275   3.497   6.548  25.296  0.3507  0.2911  0.0270
24359W        W67276   4.175  10.311  25.256  0.1632 -0.0353  0.1019
24360W        W67277   6.909  10.083  26.143 -0.0817 -0.2666  0.2198
24361W        W67278   6.723   8.146  25.823 -0.2138  0.0263  0.1103
24362W        W67279   4.153   6.663  22.782  0.0526  0.3353 -0.1940
24363W        W67280   5.678   7.134  22.077  0.2777  0.1655  0.1724
24364W        W67281   4.986  11.009  26.297  0.0095  0.0614 -0.0403
24365W        W67282   5.607  10.308  25.402 -0.2500 -0.1136 -0.1551
24366W        W67283   4.338  10.382  31.482  0.0922  0.1692  0.1236
24367W        W67284   5.063   7.735  29.340 -0.0407  0.1766 -0.3409
24368W        W67285   6.550   8.699  27.232  0.3174  0.3456  0.1988
24369W        W67286   5.527   9.043  28.492 -0.2134  0.2177  0.0605
24370W        W67287   4.466   7.030  29.151 -0.1704  0.0274  0.0411
24371W        W67288   6.685   9.772  27.223  0.0981 -0.0731 -0.0479
24372W        W67289   4.478   7.105  30.198  0.1447  0.1818 -0.1445
24373W        W67290   6.311   9.551  29.631  0.2962 -0.0830 -0.0572
24374W        W67291   8.160  12.323  30.341 -0.2220  0.1636  0.2734
24375W        W67292   6.266  10.107  28.764 -0.1667  0.1639 -0.2194
24376W        W67293   6.992   7.387  29.588 -0.1451 -0.1523 -0.1727
24377W        W67294   5.517  10.447  29.422 -0.1222  0.0201 -0.0941
24378W        W67295   4.421   7.962  28.113 -0.0849 -0.0688  0.2571
24379W        W67296   3.511   6.003  28.758  0.0408  0.1214  0.0082
24380W        W67297   7.538   7.245  28.464 -0.0525 -0.0879 -0.0912
24381W        W67298   3.511   9.066  29.245 -0.3279  0.1419 -0.0591
24382W        W67299   6.958   7.885  28.177  0.1448  0.1461 -0.3941
24383W        W67300   6.471   7.696  28.134 -0.1606 -0.2043 -0.0861
24384W        W67301   6.254  10.626  29.398 -0.0784  0.0787 -0.0081
24385W        W67302   7.509   6.390  30.302  0.1595 -0.3718 -0.1322
24386W        W67303   6.829   5.562  30.351 -0.1161 -0.0643  0.5508
24387W        W67304   4.709  10.526  26.540  0.2922 -0.0257  0.1095
24388W        W67305   4.650   9.247  27.099  0.0690  0.0992 -0.0728
24389W        W67306   4.096   7.639  31.356 -0.0163  0.0999 -0.0153
24390W        W67307   3.647   8.666  30.191  0.1024 -0.0078  0.1927
24391W        W67308   6.306   8.633  27.979  0.0244 -0.0930  0.1205
24392W        W67309   7.522   9.490  28.273  0.3366 -0.3311  0.2463
24393W        W67310   5.812  11.463  29.107  0.0353 -0.2562  0.0630
24394W        W67311   7.488   9.803  30.922  0.2535 -0.1001  0.2711
24395W        W67312   6.662   8.483  27.637  0.0843 -0.0778 -0.0608
24396W        W67313   3.258   9.693  29.950 -0.0103 -0.5061  0.5465
24397W        W67314   5.343  11.116  27.703  0.4266 -0.0395 -0.1458
24398W        W67315   6.310  10.176  28.063  0.1718  0.1246  0.0526
24399W        W67316   7.618   9.645  27.782 -0.1680  0.2038  0.2055
24400W        W67317   4.752   9.791  29.646 -0.0711  0.0337  0.1996
24401W        W67318   4.755  11.904  31.896 -0.0021  0.0414 -0.0157
24402W        W67319   5.862   7.975  30.940 -0.0562 -0.0801 -0.0066
24403W        W67320   6.486  13.204  28.312 -0.4752 -0.2898  0.0717
24404W        W67321   4.918  11.489   1.783  0.2044  0.3873 -0.0634
24405W        W67322   5.428   8.582  29.320 -0.0987 -0.2575  0.0167
24406W        W67323   5.518   9.811  28.235 -0.3722 -0.0006 -0.2016
24407W        W67324   5.917  11.304  27.550 -0.5766  0.1391  0.0368
24408W        W67325   6.029   8.505  30.290 -0.1881  0.1682 -0.0824
24409W        W67326   6.593   8.032   0.176 -0.0577 -0.0913 -0.2591
24410W        W67327   5.726  10.181  30.210  0.0522 -0.2153 -0.0501
24411W        W67328   6.549   7.081  29.964  0.1009  0.2805  0.0731
24412W        W67329   5.330   8.432  28.855 -0.1247 -0.0593 -0.1221
24413W        W67330   6.901   8.213  26.269  0.0873  0.2525  0.3216
24414W        W67331   6.411   6.534  27.571 -0.1417 -0.1056  0.0185
24415W        W67332   7.319   7.316  25.711 -0.1242 -0.3658  0.2213
24416W        W67333   5.889   5.290  28.097  0.3350 -0.3029 -0.1511
24417W        W67334   6.562  10.486  28.447 -0.1789  0.1861  0.0977
24418W        W67335   5.551   6.794  29.233  0.0184 -0.2700  0.0013
24419W        W67336   5.460   9.360  30.715  0.1296 -0.0857 -0.0698
24420W        W67337   5.129  10.138  27.903  0.0096 -0.1044 -0.0935
24421W        W67338   5.832   9.539  29.528 -0.3898  0.1246  0.0680
24422W        W67339   5.031  11.487  29.576  0.1090  0.2129  0.0595
24423W        W67340   4.710   8.388  30.075 -0.0831 -0.3046  0.1399
24424W        W67341   8.174  10.101  28.490  0.1111 -0.4133  0.1153
24425W        W67342   7.683  12.300  29.228 -0.0488  0.2082  0.1382
24426W        W67343   8.289   9.847  26.050  0.0083  0.0013  0.1551
24427W        W67344   5.237   7.027  28.541  0.1750 -0.3147 -0.3089
24428W        W67345   4.035   9.920  30.625 -0.1637 -0.0595  0.1065
24429W        W67346   6.200  10.436  30.253 -0.1026 -0.1594  0.3423
24430W        W67347   4.782   7.663  27.899 -0.0075 -0.0769 -0.1423
24431W        W67348   6.950   8.678  31.179  0.0360 -0.1175  0.2056
24432W        W67349   4.838  11.079  29.300 -0.0153 -0.1148  0.0078
24433W        W67350   7.578   7.003  28.037 -0.0661  0.2418 -0.2327
24434W        W67351   4.466   9.087  28.579 -0.3007  0.0656 -0.1051
24435W        W67352   8.280  10.021  29.894  0.0543 -0.0467 -0.2212
24436W        W67353   8.423   9.515  27.287 -0.1593 -0.1108 -0.0083
24437W        W67354   8.853   7.577  28.595 -0.0011 -0.1916  0.2009
24438W        W67355   5.557   7.920  29.045 -0.1667  0.0331 -0.0995
24439W        W67356   6.444   8.085  24.926 -0.0439 -0.3599  0.1022
24440W        W67357   4.853   7.875  28.448  0.1313  0.2321  0.2900
24441W        W67358   7.533   9.491  29.520 -0.1567 -0.0321 -0.4003
24442W        W67359   7.276   9.357  27.373  0.0682 -0.2684 -0.1057
24443W        W67360   4.866  10.228   0.851 -0.3467 -0.1983 -0.1824
24444W        W67361   7.786   7.279   0.353  0.0368  0.2605 -0.3445
24445W        W67362   4.476  10.952  30.629  0.0900  0.2015 -0.1450
24446W        W67363   6.393  10.587  27.337  0.0730  0.2351 -0.2946
24447W        W67364   2.727  10.301  29.387 -0.2301  0.0673 -0.1107
24448W        W67365   6.535   8.212  28.159  0.0627 -0.0743 -0.1444
24449W        W67366   7.285   7.689  29.334 -0.1662 -0.3508 -0.3609
24450W        W67367   4.562  10.475  30.774  0.0123  0.3188  0.0131
24451W        W67368   8.052  10.035  27.089 -0.1008  0.0984 -0.2673
24452W        W67369   5.552   7.748  30.478  0.0653 -0.0049  0.0055
24453W        W67370   7.076   6.785  29.047  0.0258 -0.2825 -0.0856
24454W        W67371   4.533   9.047  30.199 -0.0409  0.0545 -0.1075
24455W        W67372   7.675  11.507  27.644 -0.1098  0.1476 -0.1012
24456W        W67373   7.388   9.929  26.365 -0.1036  0.0078 -0.0639
24457W        W67374   8.208  11.068  26.356 -0.1030  0.3062 -0.2171
24458W        W67375   4.824   9.309  29.335  0.0290 -0.2944 -0.4041
24459W        W67376   5.719   7.185  30.580 -0.2152  0.0066  0.0780
24460W        W67377   7.936   6.691  31.544  0.0317  0.1480 -0.3281
24461W        W67378   5.661   7.020  28.765 -0.0672 -0.0114  0.1868
24462W        W67379   7.827   8.709  31.520  0.0896  0.1797  0.0304
24463W        W67380   5.635   7.215  27.721 -0.2995 -0.0084 -0.3048
24464W        W67381   8.244   8.524  29.146  0.0573  0.1442  0.1349
24465W        W67382   4.757   8.724  27.917 -0.0529 -0.0908 -0.2104
24466W        W67383   4.784   5.718  28.780 -0.1388 -0.0798 -0.1569
24467W        W67384   7.916   7.578  31.041 -0.0196 -0.0127  0.0113
24468W        W67385   5.531  11.167  27.185  0.0824  0.3627  0.0877
24469W        W67386   6.710   9.502  28.976 -0.2565  0.0766  0.2548
24470W        W67387   5.814   9.331  28.858  0.1368 -0.2612 -0.3783
24471W        W67388   4.747   7.067  28.749 -0.2099 -0.1081 -0.3049
24472W        W67389   5.424   6.321  27.356 -0.2882  0.1964  0.0719
24473W        W67390   4.491  11.379  28.633 -0.1653 -0.1972  0.0860
24474W        W67391   4.272  10.538  27.970  0.1314  0.4091 -0.1690
24475W        W67392   5.472   7.375  29.101  0.1643 -0.0340 -0.0451
24476W        W67393   6.659  13.181  30.097  0.0125  0.1988 -0.2614
24477W        W67394   5.640  10.622  27.690 -0.0542  0.2999 -0.1074
24478W        W67395   4.374   8.606  28.963  0.0527 -0.1016 -0.0221
24479W        W67396   7.946   8.670  29.981  0.0242 -0.0732  0.1621
24480W        W67397   5.634   8.300  30.619 -0.2585  0.0772  0.1114
24481W        W67398   5.851   8.767  30.627  0.1193  0.0955 -0.0379
24482W        W67399   3.477   9.130  27.621 -0.0796  0.3158 -0.1085
24483W        W67400   6.060  11.646  29.629 -0.0375 -0.0122  0.2524
24484W        W67401   4.259   9.891  28.117  0.1146  0.1705 -0.0520
24485W        W67402   2.369   9.831  28.794 -0.0742 -0.2083  0.1928
24486W        W67403   6.163   9.694  29.104 -0.0023 -0.1869 -0.1120
24487W        W67404   7.476   7.221  29.144  0.1863  0.2918 -0.0293
24488W        W67405   3.000  11.048  31.648 -0.0334  0.1461 -0.0487
24489W        W67406   7.866   8.551  30.487  0.0711  0.2495  0.0226
24490W        W67407   5.838   5.997  28.252  0.1773  0.1617 -0.0003
24491W        W67408   5.355  12.330   1.207  0.2438  0.1413  0.1768
24492W        W67409   7.311   6.114  29.870  0.0744 -0.0033  0.3134
24493W        W67410   8.059   5.920  28.769 -0.1841  0.0316 -0.1439
24494W        W67411   5.886   9.432  31.892 -0.3129 -0.1359  0.0337
24495W        W67412   6.652   6.975  29.359 -0.0207  0.0569 -0.0796
24496W        W67413   6.328   6.301  26.087 -0.1923 -0.0198 -0.0129
24497W        W67414   7.609   6.013  27.961  0.1621 -0.0886  0.5101
24498W        W67415   5.342  10.982  30.113  0.0452 -0.0210  0.0156
24499W        W67416   6.385   9.217  30.871  0.2298 -0.1210  0.2690
24500W        W67417   6.104  12.756  30.783  0.0078 -0.2494 -0.0041
24501W        W67418   6.549   7.464  25.480  0.0050 -0.0951  0.0127
24502W        W67419   7.270  10.228  27.061  0.1192 -0.4582  0.1384
24503W        W67420   2.301   7.145  29.662 -0.1515  0.0381  0.1652
24504W        W67421   7.771   7.837   0.900  0.0079  0.1113  0.0925
24505W        W67422   5.827  10.946  29.176  0.1169 -0.1708 -0.1482
24506W        W67423   6.166  10.088  29.480  0.2510  0.0944 -0.2189
24507W        W67424   4.802   8.371  28.864 -0.1970  0.1309  0.1816
24508W        W67425   6.761   5.832  29.190  0.0001 -0.1421  0.0566
24509W        W67426   3.589   8.292  28.692  0.0019 -0.3077  0.2488
24510W        W67427   8.788   9.367  28.792 -0.3118  0.1526  0.0454
24511W        W67428   6.720   7.993  27.712 -0.1868  0.0491 -0.0806
24512W        W67429   5.578   7.236  31.371 -0.2615  0.1018  0.3414
24513W        W67430   6.647   8.395  29.863 -0.1494 -0.0280 -0.2499
24514W        W67431   7.006   7.742  27.327 -0.3392  0.0942  0.0370
24515W        W67432   6.156   8.062  27.866 -0.3475  0.1017  0.2763
24516W        W67433   4.815   9.216  28.264  0.1555 -0.3178  0.2650
24517W        W67434   4.766   6.600  29.055 -0.1130  0.0137 -0.0036
24518W        W67435   4.612   7.462  29.312  0.1025 -0.0122 -0.2813
24519W        W67436   4.074  11.990  30.113 -0.0070 -0.3362 -0.3343
24520W        W67437   8.690   8.568   0.374 -0.2343  0.0077  0.1301
24521W        W67438   5.666  10.122  28.688 -0.0855  0.4549 -0.0200
24522W        W67439   6.335   8.713  29.012 -0.0934  0.1376  0.2175
24523W        W67440   5.097   8.485  27.673 -0.1960 -0.1002  0.2535
24524W        W67441   6.318  11.752  26.876 -0.0657 -0.2212 -0.1914
24525W        W67442   4.790  10.603  29.113  0.2203  0.1122 -0.0532
24526W        W67443   5.258   6.638  28.839  0.3323 -0.2668 -0.1461
24527W        W67444   7.386  10.012  30.387  0.1475 -0.2023 -0.0574
24528W        W67445   6.508   9.001  27.611  0.2411 -0.0046  0.0733
24529W        W67446   8.279  11.628  29.819 -0.1786 -0.3208  0.1130
24530W        W67447   4.184  11.168  30.311  0.0047 -0.1918  0.3363
24531W        W67448   6.054   6.061  30.281 -0.2810  0.0002  0.1076
24532W        W67449   4.593  11.060  28.214  0.0067  0.2833  0.1421
24533W        W67450   5.822   7.145  26.815 -0.0465  0.1508 -0.0554
24534W        W67451   5.221   7.768  28.216 -0.1918 -0.3273  0.0817
24535W        W67452   7.457   8.149  29.207 -0.1296  0.0111 -0.2240
24536W        W67453   6.483   9.231  29.937 -0.0392  0.0421 -0.0120
24537W        W67454   4.185   8.625  29.945  0.1046 -0.1585 -0.1636
24538W        W67455   6.945   6.239  26.680  0.0029 -0.1680  0.0628
24539W        W67456   4.206  10.433  29.937 -0.2337 -0.0124 -0.1282
24540W        W67457   4.100   8.251  30.323 -0.4389  0.3361  0.2533
24541W        W67458   7.264   7.273  27.557  0.1956 -0.0686 -0.0366
24542W        W67459   6.981   8.885  27.515  0.0741 -0.1743 -0.0155
24543W        W67460   4.687  10.078  31.690 -0.2395 -0.1485  0.1625
24544W        W67461   6.186   5.826  28.550 -0.0887  0.0396  0.0609
24545W        W67462   7.742   8.626  28.984 -0.1581  0.0359  0.3590
24546W        W67463   5.886   9.331  28.316 -0.1756  0.0722 -0.1243
24547W        W67464   2.174  10.593  29.954  0.1096 -0.1326  0.2652
24548W        W67465   6.878  12.204  30.098 -0.0419 -0.0462 -0.1745
24549W        W67466   5.735   8.787  28.926  0.0685 -0.0298 -0.0500
24550W        W67467   5.295   8.935  28.951 -0.0384 -0.0709 -0.2600
24551W        W67468   7.771   8.276   0.497  0.3666 -0.0605  0.0205
24552W        W67469   5.016  10.368  30.944 -0.0498  0.0809 -0.1178
24553W        W67470   7.573  10.687  31.062  0.0040  0.2365 -0.1414
24554W        W67471   6.096   7.170  28.203 -0.1681 -0.3152  0.0579
24555W        W67472   6.075   7.298  28.678  0.2497 -0.2367  0.0213
24556W        W67473   7.155   9.055  29.484 -0.1318  0.2580 -0.1690
24557W        W67474   5.632   8.083  29.497  0.1123 -0.2823 -0.0253
24558W        W67475   4.402  10.337   0.794 -0.2865  0.0898  0.1369
24559W        W67476   7.042   6.541  30.098  0.1088 -0.0842 -0.1436
24560W        W67477   9.080  11.696  27.155 -0.0133 -0.0287  0.0076
24561W        W67478   7.765   7.772  29.992  0.0994 -0.0019 -0.3573
24562W        W67479   6.643   9.200  30.429  0.2523  0.1168 -0.1619
24563W        W67480   4.644  11.685  27.605  0.0277 -0.0258  0.3339
24564W        W67481   4.771   7.553  29.793 -0.0947  0.0013  0.0062
24565W        W67482   5.824   8.290  28.787  0.1446  0.1920 -0.0993
24566W        W67483   2.843  11.325  30.638 -0.0429 -0.0763 -0.1275
24567W        W67484   4.128   9.870  26.657  0.2053  0.0318  0.1227
24568W        W67485   4.027  10.934  28.237  0.0976  0.0906  0.1964
24569W        W67486   6.275   7.847  25.768  0.4929 -0.3117  0.1210
24570W        W67487   6.947  12.057  26.976 -0.1650  0.1044 -0.0823
24571W        W67488   6.251   7.465  29.986 -0.0779 -0.0276  0.0997
24572W        W67489   7.878   9.660  29.821 -0.0042 -0.1143  0.1081
24573W        W67490   8.174   8.507  25.930 -0.1159  0.2861  0.1719
24574W        W67491   7.227   6.458  31.825  0.0635 -0.3292  0.0394
24575W        W67492   6.107   9.212  30.514  0.1395 -0.1203  0.3374
24576W        W67493   6.298  12.527  29.461 -0.1128  0.0925 -0.1635
24577W        W67494   4.047   7.308  29.355  0.1629  0.0559  0.2675
24578W        W67495   6.808  10.529  30.823 -0.0994 -0.1241  0.1934
24579W        W67496   4.246  10.172  31.017  0.1235  0.0404 -0.0880
24580W        W67497   6.092   6.312  28.559  0.1959  0.3209 -0.1770
24581W        W67498   2.968   8.303  27.492  0.1122  0.1693 -0.0797
24582W        W67499   5.931  10.343  29.147  0.0389 -0.1289  0.0691
24583W        W67500   7.160   9.246  30.658 -0.0562  0.0718  0.1272
24584W        W67501   6.229  10.665  28.142 -0.1112 -0.3677 -0.0398
24585W        W67502   7.011   8.749  30.586  0.3312 -0.0706 -0.0149
24586W        W67503   4.436   9.335  29.800 -0.0153  0.1645 -0.0055
24587W        W67504   5.927  10.335  28.346 -0.1544 -0.1946 -0.0916
24588W        W67505   6.142  10.420  27.693  0.1527 -0.2671 -0.1446
24589W        W67506   3.066  10.321  28.975 -0.0245  0.2852  0.2189
24590W        W67507   6.038   5.874  31.387 -0.1365  0.1598 -0.0550
24591W        W67508   6.627   9.711  30.069 -0.0128 -0.0061 -0.1845
24592W        W67509   6.869   6.494  28.008  0.2128 -0.0280  0.0765
24593W        W67510   6.968   9.114  29.977 -0.0476  0.0852 -0.0712
24594W        W67511   5.109   8.208  29.298  0.0639  0.0016  0.0302
24595W        W67512   5.716   8.678  31.131 -0.3178 -0.1942  0.0755
24596W        W67513   4.440   8.547  30.962 -0.2260  0.0594 -0.0020
24597W        W67514   7.907   9.086  30.341 -0.1947  0.0894  0.2640
24598W        W67515   7.933   7.814  27.595 -0.2604 -0.0444 -0.0976
24599W        W67516   7.587   6.807  28.747  0.0548 -0.0789  0.2123
24600W        W67517   6.231   6.350  28.061  0.3480  0.0606 -0.3194
24601W        W67518   7.464   7.358  29.667 -0.0695 -0.1670  0.3114
24602W        W67519   5.653   7.560  28.677 -0.1114  0.0679 -0.1002
24603W        W67520   8.617   9.339  30.635  0.2032 -0.1995  0.1743
24604W        W67521   4.437   9.406  29.023 -0.2683  0.0311  0.1634
24605W        W67522   6.444   6.366  31.323  0.0377  0.5454  0.0193
24606W        W67523   4.234   9.664  26.213 -0.0240 -0.0897  0.2101
24607W        W67524   6.550  10.400  29.013  0.0241  0.0752 -0.1173
24608W        W67525   5.052   8.889  28.542 -0.1779  0.3055  0.1929
24609W        W67526   5.002   6.123  28.670 -0.0902 -0.3196  0.0664
24610W        W67527   4.631  10.590   0.371  0.0991  0.0251 -0.3493
24611W        W67528   5.521   7.620  27.352  0.2397 -0.0638 -0.0379
24612W        W67529   4.760   9.752  28.678  0.0225  0.1480  0.0641
24613W        W67530   6.257  10.528  30.903  0.0212 -0.0200  0.3108
24614W        W67531   4.723   9.676  30.158  0.1123 -0.1057 -0.0460
24615W        W67532   4.689   6.462  27.999  0.1052  0.0233 -0.0649
24616W        W67533   7.650   9.495  30.552 -0.1776  0.3335 -0.2272
24617W        W67534   6.210  10.934  27.708 -0.1205  0.1705 -0.0282
24618W        W67535   7.147   8.358  27.602 -0.2660 -0.0242 -0.1045
24619W        W67536   5.732  14.027  30.109 -0.2854  0.2509  0.2085
24620W        W67537   4.330  10.482  28.956  0.2780  0.2011  0.1993
24621W        W67538   6.499  11.582  30.948 -0.1613  0.2606  0.0734
24622W        W67539   5.992   8.448  29.306 -0.1107 -0.0599 -0.4850
24623W        W67540   7.519   9.061  29.796  0.1322 -0.0843  0.1249
24624W        W67541   6.595  10.223  29.702 -0.0563 -0.3100  0.2226
24625W        W67542   7.676   9.006  30.785 -0.0773 -0.0197  0.0664
24626W        W67543   6.060  10.026  31.211 -0.0641 -0.2012 -0.0916
24627W        W67544   5.366   8.084  30.970  0.1422  0.2696  0.0061
24628W        W67545   4.206  11.162  30.976  0.1645 -0.1149  0.0341
24629W        W67546   6.021   8.872  27.531 -0.0742  0.2070  0.0341
24630W        W67547   3.509   8.616  29.555 -0.1484  0.2413 -0.0989
24631W        W67548   4.637   9.385  30.672  0.2993  0.0134 -0.3361
24632W        W67549   5.504   8.631  30.201 -0.0474  0.0687 -0.1854
24633W        W67550   6.379   8.762  30.601 -0.0019 -0.3025  0.0903
24634W        W67551   6.788   6.018  25.592 -0.3807 -0.1110  0.0783
24635W        W67552   4.221  10.097  28.563 -0.0224  0.2987  0.0687
24636W        W67553   6.608  10.196   0.059  0.0210  0.2884 -0.1565
24637W        W67554   5.745   8.573  29.731 -0.1093  0.3579 -0.0530
24638W        W67555   5.607   9.175  27.126 -0.1147 -0.1684  0.1187
24639W        W67556   6.063   7.787  28.911 -0.0971  0.0132  0.4650
24640W        W67557   7.089   9.053  28.834 -0.0417  0.2443 -0.1792
24641W        W67558   6.546   8.373  29.364 -0.1273 -0.2110  0.1647
24642W        W67559   5.191   6.535  28.348 -0.0718 -0.0745  0.2601
24643W        W67560   5.678   9.833  29.155 -0.3005 -0.2434 -0.0523
24644W        W67561   3.026   9.075  28.483  0.0815  0.4815  0.3494
24645W        W67562   6.165   8.846  29.601  0.2264  0.1634  0.1037
24646W        W67563   6.381  10.786  29.865 -0.0011  0.0564 -0.2310
24647W        W67564   6.218   8.763  31.141  0.1830  0.0475  0.1526
24648W        W67565   7.756   7.805  27.159  0.1985  0.3730  0.0964
24649W        W67566   7.248  10.384  29.105 -0.0583  0.1032 -0.0953
24650W        W67567   7.617   8.206  26.772  0.1570  0.1471 -0.2327
24651W        W67568   6.092  11.355  30.679  0.1331 -0.1802  0.0104
24652W        W67569   2.789   9.371  31.853 -0.1254  0.2389  0.0297
24653W        W67570   6.122   5.512  25.471  0.1298 -0.4300 -0.2359
24654W        W67571   5.996   8.966  30.082  0.0636  0.0907  0.2385
24655W        W67572   6.733   4.849  30.352  0.1064  0.1920  0.2351
24656W        W67573   4.719  10.298  29.937  0.0979  0.2065 -0.0154
24657W        W67574   6.924  12.552  29.073 -0.1557  0.0038 -0.5111
24658W        W67575   5.861   7.597  29.349 -0.0553  0.0517  0.3610
24659W        W67576   6.627   9.776  27.830 -0.2565 -0.1448  0.0906
24660W        W67577   9.276   5.252  31.890 -0.7159  0.1501 -0.0770
24661W        W67578   5.220   7.288  26.423  0.4435  0.0774 -0.1514
24662W        W67579   4.699   8.542  31.871 -0.1622 -0.4318 -0.0324
24663W        W67580   4.947  11.101  30.927  0.0810 -0.1978  0.0538
24664W        W67581   5.168  12.033  28.736 -0.1904 -0.2773 -0.0976
24665W        W67582   6.720  12.961  29.235  0.0075  0.2841 -0.0888
24666W        W67583   2.477   8.279  28.435 -0.3144  0.2512 -0.0814
24667W        W67584   7.895   8.190  29.531  0.3022 -0.1233 -0.0901
24668W        W67585   6.132  10.001  29.967 -0.0290  0.0276  0.0647
24669W        W67586   8.444   7.191  28.609  0.0870  0.2057 -0.0066
24670W        W67587   5.111   7.036  27.585  0.1342  0.2035  0.2737
24671W        W67588   6.278   5.142  26.403 -0.0128  0.0727 -0.2490
24672W        W67589   8.209   8.107  31.265  0.0795 -0.2214 -0.2288
24673W        W67590   5.140   9.923  31.321 -0.0927  0.1860  0.0232
24674W        W67591   6.696   7.351  27.441  0.1274  0.3295 -0.1350
24675W        W67592   6.350   9.660  31.742  0.1619  0.0451  0.1260
24676W        W67593   5.144   8.730  27.122 -0.1868  0.0243  0.1496
24677W        W67594   6.639  11.202  29.937  0.5034  0.2546  0.2389
24678W        W67595   4.894   8.619  29.447 -0.1618 -0.1272 -0.1548
24679W        W67596   7.534   6.951  27.238 -0.2290 -0.2796 -0.1052
24680W        W67597   5.482   7.652  29.687  0.0324  0.2516 -0.1961
24681W        W67598   5.884  10.572  30.598 -0.1545  0.1290  0.0005
24682W        W67599   5.450  10.483  29.915  0.1841 -0.1946 -0.1770
24683W        W67600   5.895   8.013  27.241  0.4493 -0.4551 -0.2629
24684W        W67601   7.600  10.414  28.778 -0.0038  0.0029 -0.0434
24685W        W67602   7.123   9.692  29.787  0.1451 -0.1636  0.1538
24686W        W67603   4.843   9.553  26.708 -0.4808 -0.1101  0.0086
24687W        W67604   7.433   9.104  26.964  0.0492 -0.0776 -0.1739
24688W        W67605   6.620  11.480  28.306  0.1289 -0.0256 -0.0201
24689W        W67606   4.845  11.710  27.019  0.2749  0.0944  0.2569
24690W        W67607   8.236   9.894  30.637  0.3670  0.0701 -0.1125
24691W        W67608   7.819  11.473  30.303 -0.0705 -0.2021  0.2440
24692W        W67609   6.618   6.930  28.259  0.3096 -0.0884 -0.1439
24693W        W67610   5.200   9.020  29.504 -0.4342 -0.2761  0.0053
24694W        W67611   5.226  10.836  29.624  0.0218  0.1516 -0.0555
24695W        W67612   7.519   9.469  30.042  0.0525  0.2931 -0.2249
24696W        W67613   6.756   7.572  29.977  0.1160 -0.0847 -0.0420
24697W        W67614   6.555  11.951  24.985 -0.0013 -0.3083 -0.0509
24698W        W67615   7.654   8.245  29.978  0.0406 -0.1511  0.1870
24699W        W67616   5.816  10.743  30.124  0.2880 -0.0823  0.2417
24700W        W67617   5.764  10.840  29.645 -0.2732  0.0647  0.0333
24701W        W67618   3.633   9.048  26.612 -0.2039 -0.2771  0.1199
24702W        W67619   5.701   9.184  31.508 -0.0824 -0.0119  0.0445
24703W        W67620   5.622  10.626  28.679  0.1280 -0.0692 -0.2119
24704W        W67621   6.595  11.592  29.624  0.1670  0.0273  0.2265
24705W        W67622   7.319  12.042  28.314 -0.1010  0.2623 -0.4012
24706W        W67623   6.998   7.727  28.787 -0.0729 -0.2533 -0.1584
24707W        W67624   6.824   9.985  28.889 -0.6548 -0.0139 -0.1657
24708W        W67625   5.655   7.752  27.841  0.0475  0.2457  0.0537
24709W        W67626   8.717   6.519  28.766  0.2038  0.0744  0.1230
24710W        W67627   7.169   6.271  27.612 -0.0014  0.1634 -0.2068
24711W        W67628   5.230   9.891  29.499  0.1296  0.2980 -0.2104
24712W        W67629   4.245   7.865  29.455 -0.2007 -0.1333  0.1018
24713W        W67630   4.052   9.043  28.925  0.3075  0.0647 -0.0012
24714W        W67631   4.307  12.389  28.054  0.3045 -0.2793  0.2681
24715W        W67632   5.801   6.533   0.465 -0.0683 -0.0326 -0.1389
24716W        W67633   5.486   9.844  31.653 -0.1654  0.0021  0.0189
24717W        W67634   5.065   7.068  29.139 -0.1422 -0.1875 -0.1841
24718W        W67635   5.128   8.516  26.112  0.1056 -0.3899  0.0441
24719W        W67636   8.728   9.684  26.925  0.3312 -0.0648 -0.2570
24720W        W67637   6.395   8.499  28.535  0.1241 -0.1020 -0.3448
24721W        W67638   3.510   8.062  28.225  0.1537 -0.1454 -0.3007
24722W        W67639   6.777   8.860  28.019  0.0081  0.0909  0.1879
24723W        W67640   6.857   8.182  27.147 -0.1384  0.0025 -0.0565
24724W        W67641   6.166   6.766  26.888 -0.0196  0.3367  0.2604
24725W        W67642   9.049   8.838  30.724  0.1682 -0.1336 -0.3868
24726W        W67643   6.229   7.156  29.555  0.2187 -0.1164  0.0664
24727W        W67644   4.452   9.997   2.036  0.1819  0.0426  0.2732
24728W        W67645   6.123   8.341  30.769 -0.1650  0.3575 -0.1660
24729W        W67646   3.807   5.896  25.749 -0.0713 -0.0170 -0.2702
24730W        W67647   6.363   9.213  28.698 -0.0953 -0.2293 -0.0579
24731W        W67648   5.106  10.631  28.577  0.0452  0.0376 -0.1951
24732W        W67649   8.352   9.963  26.614 -0.0452 -0.0444 -0.1584
24733W        W67650   5.476  10.831  30.809 -0.2628  0.1873 -0.0821
24734W        W67651   6.026   9.595  30.866  0.1848  0.2136  0.2481
24735W        W67652   5.045   6.596  31.120  0.0308  0.2375  0.1021
24736W        W67653   5.019   9.110  27.811 -0.0563 -0.0870  0.1163
24737W        W67654   5.255  10.846  31.257  0.3683  0.1023  0.2080
24738W        W67655   4.487   9.469  28.011 -0.0324  0.0582  0.1011
24739W        W67656   7.420   8.510  30.971  0.0924 -0.2270  0.1335
24740W        W67657   5.995   7.700  28.271 -0.0614 -0.0275 -0.2626
24741W        W67658   4.220   8.369  31.446 -0.0166  0.2050  0.0819
24742W        W67659   5.778  11.072  30.474  0.2862  0.0437 -0.0473
24743W        W67660   6.137  10.117  30.719 -0.1016 -0.0351 -0.0550
24744W        W67661   6.996   7.185  27.066  0.1712  0.1862 -0.2453
24745W        W67662   7.222   7.723  29.900  0.1254 -0.0656  0.2575
24746W        W67663   6.641  11.055  30.801 -0.1173 -0.0790 -0.0082
24747W        W67664   2.885  10.025  31.284 -0.0258  0.0915  0.0844
24748W        W67665   7.388   8.745  27.924  0.0588  0.1678  0.1371
24749W        W67666   5.543   9.715  31.058 -0.4166 -0.2263 -0.0060
24750W        W67667   8.028  10.980  30.341 -0.2421  0.0226  0.4049
24751W        W67668   7.609   8.949   0.043 -0.2532  0.0101 -0.0625
24752W        W67669   4.694  11.327  26.620  0.2070  0.2050  0.1234
24753W        W67670   7.219   8.503  26.614 -0.3085  0.1500 -0.3348
24754W        W67671   7.911   9.986  30.244 -0.1848 -0.2175 -0.0173
24755W        W67672   6.909   9.313  31.251  0.0862  0.3997  0.3427
24756W        W67673   5.201  10.016  30.008 -0.1759  0.2012  0.1269
24757W        W67674   7.064  10.045  29.427  0.5452 -0.1494 -0.1145
24758W        W67675   5.550   8.107  30.113  0.0749  0.1498 -0.0700
24759W        W67676   6.097   6.952  29.042  0.1413 -0.3759  0.0160
24760W        W67677   5.248   9.828  30.585  0.3104 -0.0317  0.1412
24761W        W67678   6.823   7.914  29.604  0.2235 -0.1501 -0.0613
24762W        W67679   3.029   8.242  30.019  0.0611  0.1291  0.2074
24763W        W67680   7.606   6.439  27.360  0.1372 -0.3008 -0.2328
24764W        W67681   6.700  12.483   0.825 -0.0512 -0.3005  0.0217
24765W        W67682   7.261   8.573  28.945 -0.1914 -0.0063  0.2461
24766W        W67683   7.426   6.864  29.568  0.0510 -0.0746  0.0236
24767W        W67684   6.621  10.145  30.419  0.2893  0.0515  0.1308
24768W        W67685   6.446   8.786  30.116 -0.2838 -0.0524 -0.2322
24769W        W67686   4.418  11.614  30.045  0.0049 -0.0353 -0.1230
24770W        W67687   6.616   9.129   0.225 -0.0011 -0.1184  0.0724
24771W        W67688   6.623  10.157  31.135  0.1214 -0.2379 -0.1574
24772W        W67689   8.367   8.957  30.368 -0.1366 -0.2479  0.0774
24773W        W67690   6.604   9.835  29.324 -0.1185  0.1978 -0.2061
24774W        W67691   8.620   7.811  30.312 -0.1102 -0.1419  0.0406
24775W        W67692   7.203  10.346  31.162 -0.2269  0.1969  0.0531
24776W        W67693   5.716  11.190  31.147  0.1878  0.1248  0.1989
24777W        W67694   8.167   7.070   0.070 -0.3645 -0.0440  0.1991
24778W        W67695   8.416  10.688  31.127 -0.0990 -0.1514  0.2326
24779W        W67696   5.617   9.118  29.296  0.2030  0.1014 -0.1419
24780W        W67697   7.584   6.923  30.048  0.1746  0.2488 -0.0322
24781W        W67698   5.826  10.658  31.067 -0.1528  0.1689  0.0700
24782W        W67699   3.762  10.406  30.865 -0.0766  0.1882 -0.1757
24783W        W67700   7.536  11.039  31.489 -0.0452  0.1250  0.2719
24784W        W67701   3.359   8.139   0.508  0.1542 -0.0746 -0.0547
24785W        W67702   5.529  10.200  30.771 -0.0380 -0.1641  0.0257
24786W        W67703   4.258   9.692  31.942 -0.4170  0.2199 -0.1440
24787W        W67704   7.274  10.012  31.497 -0.2319 -0.1435 -0.4309
24788W        W67705   8.271   7.849  31.691  0.0977  0.0435 -0.0608
24789W        W67706   7.087   8.191  31.203 -0.0406 -0.1815  0.0220
24790W        W67707   7.372   7.935  30.366  0.0590  0.1300 -0.1625
24791W        W67708   4.964   8.885  31.469 -0.3717  0.1695  0.0659
24792W        W67709   5.647   8.279  31.377 -0.2129 -0.0926  0.0637
24793W        W67710   4.961  10.192  30.420 -0.0277  0.1851 -0.1276
24794W        W67711   5.740   9.692  30.440 -0.1315 -0.3471  0.0791
24795W        W67712   4.857   8.977  30.924 -0.0815 -0.0406 -0.2865
24796W        W67713   4.637   9.793   0.677 -0.1822 -0.1665 -0.1467
24797W        W67714   5.052   9.791  31.876  0.1355 -0.1538  0.0813
24798W        W67715   7.645  10.170  31.209 -0.0303 -0.0488  0.2523
24799W        W67716   7.001   8.756   0.120  0.1842 -0.1595  0.2666
24800W        W67717   3.456   7.588  30.810  0.1164  0.3756 -0.1543
24801W        W67718   3.488  10.013  30.748  0.0909 -0.2535 -0.1011
24802W        W67719   4.694   9.995   0.266 -0.2604  0.1508  0.0989
24803W        W67720   5.619   9.672   0.386 -0.1462  0.0987 -0.1250
24804W        W67721   6.609   8.353  30.401 -0.2091  0.1974  0.0501
24805W        W67722   4.607   8.175   1.557  0.0782  0.0414  0.1364
24806W        W67723   7.363   8.980  31.197 -0.1387 -0.2645 -0.0186
24807W        W67724   7.444   8.933  30.299 -0.0251  0.1947 -0.0661
24808W        W67725   4.711   7.513  30.953 -0.2252  0.0576  0.0803
24809W        W67726   5.721  10.126   0.668  0.3374  0.1679  0.1697
24810W        W67727   4.191   8.076  31.906  0.3461  0.0514  0.1031
24811W        W67728   6.515   9.628  31.259  0.3249  0.0304 -0.0062
24812W        W67729   5.807   8.692   0.723  0.0828 -0.0869 -0.0057
24813W        W67730   5.747   7.757  31.910 -0.3367  0.0003  0.0645
24814W        W67731   7.706  10.248  31.943 -0.0829  0.0621  0.1087
24815W        W67732   4.471  12.019  30.522  0.2557  0.1646 -0.1080
24816W        W67733   8.178  12.099  30.820  0.0443  0.0140  0.0706
24817W        W67734   7.609   7.694  31.447  0.3677  0.1256  0.0906
24818W        W67735   7.002  10.147  30.083  0.2195  0.0561  0.1944
24819W        W67736   5.848   9.126  30.997 -0.3182 -0.0101  0.3217
24820W        W67737   7.819   8.496   0.054  0.0027  0.1504  0.0590
24821W        W67738   6.604   8.016  28.631  0.0735 -0.3298 -0.1143
24822W        W67739   8.040   8.900   1.267 -0.1969  0.2435  0.2617
24823W        W67740   6.634  13.374   1.542 -0.1178  0.0040  0.0855
24824W        W67741   6.774   9.407  29.500 -0.1242  0.0441 -0.2264
24825W        W67742   5.316   9.042   0.339  0.2374  0.0124  0.1816
24826W        W67743   3.788   8.965   0.623  0.1224  0.1432  0.0706
24827W        W67744   5.252  12.063  31.184  0.2335  0.1145  0.0995
24828W        W67745   2.616  11.573  30.991  0.1947 -0.0172 -0.0057
24829W        W67746   4.526   8.262   0.412 -0.0608 -0.0037  0.0146
24830W        W67747   7.069  10.831  31.295 -0.1917 -0.2074  0.1083
24831W        W67748   5.557   9.200  30.261 -0.5546  0.2871  0.1562
24832W        W67749   9.197  10.097  30.800  0.1120  0.0125 -0.0246
24833W        W67750   3.506  12.415  19.769 -0.0140  0.3382  0.1065
24834W        W67751   2.689  11.756  17.175  0.1219  0.2337 -0.1312
24835W        W67752   7.832  11.497  17.634 -0.0972  0.2019  0.1588
24836W        W67753   7.392  16.277  18.950  0.2791  0.0790  0.0792
24837W        W67754   5.866  11.279  17.617  0.0661  0.0173 -0.0894
24838W        W67755   5.225  14.926  17.384 -0.1174  0.2046 -0.1073
24839W        W67756   4.650  11.412  18.910 -0.0795  0.1926  0.3432
24840W        W67757   4.509  13.134  18.580  0.0472 -0.1524 -0.0072
24841W        W67758   6.877  14.155  20.590 -0.1529 -0.0152 -0.1918
24842W        W67759   7.142  13.078  16.603 -0.0387  0.1486  0.0296
24843W        W67760   6.649  12.916  19.796  0.2661  0.0728  0.0784
24844W        W67761   4.120  15.234  17.116 -0.3601 -0.2834  0.0875
24845W        W67762   4.624   8.811  18.329  0.3033  0.3543 -0.0494
24846W        W67763   3.988  10.169  21.099 -0.2391 -0.0212  0.0048
24847W        W67764   6.530  11.492  17.661 -0.2180 -0.0226  0.1256
24848W        W67765   4.013  13.411  16.927  0.2639  0.1789  0.3900
24849W        W67766   2.965  10.514  17.417 -0.0064 -0.3491  0.1598
24850W        W67767   6.802  10.830  16.527 -0.4806 -0.0285 -0.0171
24851W        W67768   4.534  15.152  19.590 -0.0288  0.2421  0.1064
24852W        W67769   7.184  12.260  16.535  0.0386 -0.2109  0.0283
24853W        W67770   6.455  10.242  21.896  0.0891  0.0214  0.0926
24854W        W67771   3.738  14.296  16.797 -0.0138 -0.3533  0.0111
24855W        W67772   3.950  13.011  17.253 -0.2770 -0.3778 -0.2494
24856W        W67773   3.594  12.336  18.088  0.0431  0.1433 -0.0364
24857W        W67774   5.869  11.266  18.699 -0.1492  0.2213 -0.0128
24858W        W67775   7.044  13.474  17.388 -0.0110  0.0223 -0.0947
24859W        W67776   6.719  13.432  16.724 -0.1631  0.2853 -0.2018
24860W        W67777   5.973  14.500  18.392 -0.1577 -0.0061  0.0947
24861W        W67778   3.889  14.753  19.418 -0.1948 -0.0374 -0.1514
24862W        W67779   6.334  11.783  18.015  0.0141  0.1197  0.0886
24863W        W67780   4.555  12.584  18.539 -0.4409  0.1700  0.2175
24864W        W67781   3.877  13.949  20.167 -0.2395 -0.0182 -0.0352
24865W        W67782   4.975  13.697  18.018 -0.2390  0.0024  0.2432
24866W        W67783   8.380  13.777  17.844 -0.4025  0.3290  0.2630
24867W        W67784   5.815  13.596  19.981 -0.0256 -0.1387  0.1802
24868W        W67785   6.348  15.100  19.072 -0.1674  0.1037  0.2707
24869W        W67786   4.047  14.017  17.573 -0.0432 -0.2180 -0.2310
24870W        W67787   6.436  13.687  18.780 -0.3967 -0.1192  0.1825
24871W        W67788   5.309  13.252  17.728 -0.2116  0.0166 -0.0861
24872W        W67789   5.480  11.733  19.297  0.1114 -0.1016 -0.1253
24873W        W67790   5.360  13.071  18.351 -0.3571 -0.1241  0.1153
24874W        W67791   5.446  14.251  17.566 -0.0123 -0.1424 -0.2345
24875W        W67792   4.411  14.386  17.759 -0.0549 -0.2603 -0.0004
24876W        W67793   7.176  14.244  19.942  0.2713  0.0648  0.0841
24877W        W67794   4.745  12.421  17.012  0.0534 -0.0377  0.1759
24878W        W67795   6.693  11.298  19.301 -0.0994  0.0173  0.1134
24879W        W67796   3.493  13.907  18.050 -0.3290  0.0499  0.2424
24880W        W67797   6.137  11.773  16.917  0.0789 -0.0408  0.1045
24881W        W67798   4.902  12.990  17.689  0.0609 -0.1834  0.1996
24882W        W67799   5.918  12.014  18.069 -0.2633  0.0018 -0.5194
24883W        W67800   5.973   9.874  16.934  0.0329 -0.0314  0.0105
24884W        W67801   5.059  14.683  17.860 -0.2880  0.0679  0.2211
24885W        W67802   4.360  12.303  19.819 -0.0941  0.0103 -0.1395
24886W        W67803   5.667  13.588  19.298  0.2987 -0.0193  0.2158
24887W        W67804   6.190  13.461  16.533 -0.2374  0.1989 -0.1774
24888W        W67805   6.146  12.615  18.923  0.0029 -0.1578 -0.0407
24889W        W67806   5.303  14.651  20.312  0.0941  0.0927 -0.0634
24890W        W67807   3.488  11.567  17.731  0.0800  0.2320 -0.1786
24891W        W67808   5.777  13.851  17.509  0.0094 -0.2608 -0.1860
24892W        W67809   8.020  14.221  17.926  0.0840 -0.0246 -0.1570
24893W        W67810   5.624  14.689  17.438  0.1226 -0.1994  0.1174
24894W        W67811   4.473  11.041  17.555 -0.0191 -0.0764  0.0488
24895W        W67812   2.912  12.624  21.154  0.4235 -0.0418 -0.0041
24896W        W67813   3.442  10.413  17.767  0.2521 -0.1140 -0.0342
24897W        W67814   5.146  11.429  16.466  0.0778 -0.0089  0.1719
24898W        W67815   6.596  14.907  20.179 -0.0113  0.0747  0.1052
24899W        W67816   2.261  13.544  18.723  0.0230  0.0345  0.1922
24900W        W67817   6.729  12.705  17.403  0.3338 -0.2291 -0.3901
24901W        W67818   3.745  13.513  18.251 -0.2590 -0.2104 -0.0021
24902W        W67819   7.154  15.295  19.575  0.2279  0.1212  0.0146
24903W        W67820   5.548  13.670  16.699  0.0218 -0.0401  0.3777
24904W        W67821   6.035  11.428  18.061  0.0140 -0.0839  0.0479
24905W        W67822   7.250  10.027  19.377  0.2600  0.2070 -0.0698
24906W        W67823   6.205  12.144  16.125 -0.0537  0.0035  0.0189
24907W        W67824   4.369  11.885  17.056  0.0351 -0.0898 -0.0874
24908W        W67825   7.222  14.709  18.303 -0.1530 -0.1140  0.1084
24909W        W67826   7.045  11.806  16.303 -0.1486 -0.0948 -0.3191
24910W        W67827   1.912  13.197  19.013  0.1185  0.3024 -0.4347
24911W        W67828   4.202  10.535  18.953 -0.0891 -0.0693 -0.2148
24912W        W67829   3.485  14.520  21.345  0.1364 -0.2082 -0.0364
24913W        W67830   2.552  14.637  17.689 -0.0339  0.0810  0.1304
24914W        W67831   1.260  13.590  18.547 -0.0257 -0.2097 -0.0827
24915W        W67832   2.566  13.965  18.452  0.1353  0.1445  0.0315
24916W        W67833   1.922  10.495  19.198 -0.2127  0.4306 -0.0094
24917W        W67834   2.381  14.260  17.166 -0.0007  0.1455  0.2841
24918W        W67835   6.311  10.640  17.459 -0.0098 -0.0506  0.0559
24919W        W67836   4.730  11.797  20.817 -0.0569  0.0004  0.1235
24920W        W67837   6.975  11.054  17.837  0.0892  0.0105 -0.0878
24921W        W67838   3.095  13.952  17.655 -0.3775 -0.2290 -0.0174
24922W        W67839   7.595  14.151  17.631  0.0976 -0.1242  0.1980
24923W        W67840   7.026  12.131  15.858 -0.0677  0.2362 -0.2486
24924W        W67841   7.538  13.337  17.595 -0.1668 -0.1187 -0.0025
24925W        W67842   3.476  12.012  19.018  0.2176  0.0965  0.0351
24926W        W67843   4.087  12.181  17.972  0.1601 -0.0158 -0.5097
24927W        W67844   3.192  10.660  18.631  0.0147  0.3627 -0.3106
24928W        W67845   4.031  13.070  19.729 -0.0009 -0.1856 -0.1179
24929W        W67846   7.259  12.464  19.382 -0.1282 -0.1431 -0.1355
24930W        W67847   1.472  11.795  19.140  0.0543 -0.2495 -0.1109
24931W        W67848   7.637  12.687  17.079  0.1150  0.0050  0.2412
24932W        W67849   4.937  12.570  17.469 -0.3006  0.0641 -0.2422
24933W        W67850   2.946  15.659  20.266 -0.3865 -0.3843  0.0284
24934W        W67851   6.730  10.849  19.095 -0.2730 -0.1152 -0.3317
24935W        W67852   6.587  13.659  16.255  0.2999  0.3433 -0.2801
24936W        W67853   6.055  14.020  18.483 -0.0465  0.1101  0.0949
24937W        W67854   6.675  14.997  17.911  0.1477  0.2753  0.1156
24938W        W67855   6.650  13.332  18.989 -0.2218  0.0250 -0.0632
24939W        W67856   5.599  11.644  16.140 -0.1743 -0.1279  0.2609
24940W        W67857   3.123  14.929  19.047 -0.0367 -0.0302  0.2702
24941W        W67858   3.810  14.285  17.967  0.1195  0.3161  0.0942
24942W        W67859   4.757  12.007  17.341  0.1037 -0.1145 -0.2893
24943W        W67860   7.882  12.983  18.463  0.0225 -0.0142  0.2075
24944W        W67861   6.141  15.184  18.229  0.0165 -0.2124  0.1641
24945W        W67862   6.575  12.197  17.598 -0.3452 -0.1207 -0.1320
24946W        W67863   7.696  10.880  19.115  0.0601 -0.0430  0.0543
24947W        W67864   8.899  14.421  17.833  0.0406 -0.2285 -0.0109
24948W        W67865   6.257  13.196  18.671 -0.3248  0.0268 -0.4772
24949W        W67866   3.071  11.740  17.518  0.0459 -0.1988  0.1010
24950W        W67867   5.077  15.640  17.748 -0.0021 -0.1315 -0.0425
24951W        W67868   4.415  13.955  18.603 -0.3327  0.2406 -0.2115
24952W        W67869   4.608  13.585  18.362 -0.0411 -0.1123  0.1196
24953W        W67870   3.596  13.832  17.578  0.0383 -0.2801  0.1945
24954W        W67871   7.954  13.526  18.347 -0.0595  0.1137 -0.0084
24955W        W67872   5.076  12.329  20.288  0.3775  0.0074 -0.2794
24956W        W67873   6.401  12.708  20.412 -0.1868 -0.2989  0.2341
24957W        W67874   4.342  13.750  17.204 -0.4139  0.1522  0.0017
24958W        W67875   6.435  14.084  17.159 -0.1317  0.3438  0.2092
24959W        W67876   4.330  11.240  18.407  0.1100  0.2484  0.3044
24960W        W67877   6.288  11.277  16.311  0.2426 -0.0375  0.0204
24961W        W67878   6.214  13.757  19.661 -0.0068  0.0863 -0.3030
24962W        W67879   6.079  13.457  17.237 -0.3920 -0.2135 -0.0409
24963W        W67880   6.895  10.216  17.873  0.1701  0.2190  0.1677
24964W        W67881   5.026   9.959  16.745  0.1824 -0.0551 -0.1673
24965W        W67882   3.949  14.321  20.879  0.2095  0.0447  0.0414
24966W        W67883   3.883  12.694  17.674  0.0934 -0.1391  0.3332
24967W        W67884   6.058  12.703  18.448  0.0048 -0.3029  0.0604
24968W        W67885   6.077  11.709  16.374 -0.1389 -0.2147 -0.1917
24969W        W67886   8.249  13.802  16.372  0.1369 -0.0731 -0.1381
24970W        W67887   4.708  13.801  20.787  0.1598 -0.0467 -0.0053
24971W        W67888   3.346  13.029  18.131  0.3264  0.0516  0.2801
24972W        W67889   7.705  14.789  18.558  0.0969 -0.1294 -0.1122
24973W        W67890   5.853  10.787  19.134 -0.0951  0.0065  0.0109
24974W        W67891   4.989  10.038  17.617 -0.1768  0.1859  0.0250
24975W        W67892   6.322  12.154  18.833  0.2382  0.0207 -0.0382
24976W        W67893   3.016  13.158  17.639  0.2650 -0.3298 -0.0226
24977W        W67894   6.745  12.331  20.657 -0.0005 -0.0278 -0.0559
24978W        W67895   2.154  11.194  19.875  0.1766 -0.3372  0.0938
24979W        W67896   3.762  12.403  18.987  0.1766 -0.1281  0.2119
24980W        W67897   8.122  13.552  20.296 -0.0630  0.0019  0.2062
24981W        W67898   7.867  13.818  18.811 -0.0038 -0.0563  0.0654
24982W        W67899   5.372  12.102  18.152 -0.1820  0.1233  0.1586
24983W        W67900   3.852  11.184  17.528 -0.2038  0.1857 -0.2108
24984W        W67901   5.984  12.362  20.410 -0.0723 -0.1878  0.0103
24985W        W67902   4.954  11.816  18.189 -0.1450 -0.0371 -0.4258
24986W        W67903   2.583  12.372  18.126 -0.0103  0.0383  0.0131
24987W        W67904   5.310  15.231  18.190  0.0834 -0.2512 -0.1526
24988W        W67905   5.781  12.245  18.545  0.0430 -0.2086 -0.1201
24989W        W67906   5.888  11.147  20.601 -0.5574  0.2935 -0.0599
24990W        W67907   3.373  10.803  17.430  0.1375  0.3562 -0.1012
24991W        W67908   3.814  13.843  17.100  0.0057  0.4354 -0.0974
24992W        W67909   3.758  14.588  17.507 -0.0435  0.1948  0.1112
24993W        W67910   5.043  10.134  18.141  0.0265 -0.0178 -0.0136
24994W        W67911   5.425  13.512  18.189 -0.1066 -0.0937 -0.2372
24995W        W67912   6.537  13.556  17.126 -0.0431  0.0879  0.4244
24996W        W67913   6.716  12.483  20.049  0.2288 -0.1039 -0.0898
24997W        W67914   2.845  14.853  18.150  0.4656  0.1426  0.1509
24998W        W67915   7.038  10.729  18.164  0.4161  0.0820 -0.0843
24999W        W67916   3.235  12.835  18.569  0.1904 -0.1008 -0.1933
25000W        W67917   5.709  12.489  17.322  0.1132  0.5113 -0.1284
25001W        W67918   3.584  14.709  19.036  0.1746 -0.0677 -0.1946
25002W        W67919   5.488  10.888  17.779 -0.0760 -0.0543  0.0464
25003W        W67920   7.922  13.907  16.717  0.1226  0.2762  0.0625
25004W        W67921   5.413  14.723  19.604  0.2131  0.0169 -0.0682
25005W        W67922   7.187  11.782  17.098 -0.3380  0.1230  0.1232
25006W        W67923   6.562  12.659  18.430 -0.1087 -0.2585  0.1168
25007W        W67924   6.244  13.957  17.638  0.1103  0.2037 -0.3875
25008W        W67925   7.352  10.394  17.242  0.0360 -0.1604 -0.0637
25009W        W67926   6.544  13.183  21.193 -0.0219 -0.1898  0.2468
25010W        W67927   2.788  10.557  20.111 -0.0936  0.1606 -0.1965
25011W        W67928   4.325  11.388  16.603  0.1719  0.0245 -0.0797
25012W        W67929   6.915  14.388  18.662 -0.1104 -0.3246 -0.2621
25013W        W67930   4.236  12.127  17.491  0.0213 -0.0974 -0.0901
25014W        W67931   2.889  13.247  18.282 -0.2304 -0.2198 -0.1709
25015W        W67932   6.307  13.419  17.771 -0.0083 -0.3289 -0.0418
25016W        W67933   4.702  10.790  18.157 -0.0061 -0.1220 -0.0425
25017W        W67934   2.633  15.101  17.785 -0.2713 -0.0594 -0.2989
25018W        W67935   4.765  11.900  20.341  0.0336 -0.0978  0.0837
25019W        W67936   7.113  12.689  19.830  0.0377  0.1194  0.0033
25020W        W67937   4.108  11.106  17.970 -0.1570  0.1691 -0.0110
25021W        W67938   4.816  13.759  17.532 -0.0010  0.0042 -0.2832
25022W        W67939   5.582  12.408  17.839 -0.2957  0.1165  0.0513
25023W        W67940   7.038  13.047  18.257  0.3309 -0.2744 -0.1043
25024W        W67941   6.811  13.046  17.015  0.2883 -0.1261  0.4521
25025W        W67942   5.045  15.097  20.473 -0.0792  0.3445 -0.0276
25026W        W67943   6.602   9.378  16.726  0.1190  0.1934  0.1268
25027W        W67944   6.283  14.890  16.760  0.2205  0.0463  0.1115
25028W        W67945   6.608  14.034  19.854 -0.3398  0.2711  0.0742
25029W        W67946   5.017  11.481  17.693 -0.0962 -0.3233 -0.2263
25030W        W67947   4.480  12.778  19.532  0.1604 -0.2782 -0.0260
25031W        W67948   3.686  12.179  16.937  0.1120 -0.3487 -0.2007
25032W        W67949   7.066  13.035  17.703  0.1879  0.0281  0.2231
25033W        W67950   3.522  14.332  18.790 -0.1685  0.0948  0.0321
25034W        W67951   4.063  14.341  17.159 -0.0314 -0.0300 -0.0104
25035W        W67952   2.503  12.318  19.526  0.1798 -0.0412 -0.1678
25036W        W67953   7.363  11.730  19.851  0.0140  0.1361  0.2031
25037W        W67954   5.859  12.110  19.569  0.0551 -0.0415 -0.0703
25038W        W67955   5.895  12.990  17.325  0.1344 -0.0100 -0.1273
25039W        W67956   6.887   9.780  18.632  0.0741 -0.3147  0.3263
25040W        W67957   6.307  12.115  16.622  0.0733 -0.0459 -0.2234
25041W        W67958   5.882  11.367  19.200 -0.2306  0.1677  0.3506
25042W        W67959   3.569   9.797  18.015  0.0951  0.0499  0.0947
25043W        W67960   5.590  15.320  17.750  0.1819  0.1287  0.2196
25044W        W67961   3.107  12.378  18.861 -0.1312  0.0031  0.0490
25045W        W67962   6.139  13.908  19.088  0.2823 -0.0906  0.1153
25046W        W67963   4.566  14.400  19.567  0.1361 -0.1274  0.2329
25047W        W67964   6.196  10.393  18.114  0.2491  0.4141  0.0098
25048W        W67965   4.879   9.790  17.199  0.2704 -0.3112 -0.0572
25049W        W67966   4.127  13.544  17.577 -0.2280  0.0822  0.2976
25050W        W67967   5.364  13.846  17.798 -0.2066  0.1116 -0.2180
25051W        W67968   3.052  14.695  17.775  0.1146  0.0950 -0.4273
25052W        W67969   8.382  12.912  17.467  0.2903 -0.2387  0.0298
25053W        W67970   5.249  13.678  17.340 -0.1408 -0.2368 -0.0556
25054W        W67971   7.186  13.479  16.837  0.0006  0.1164  0.0586
25055W        W67972   5.471  13.319  18.830 -0.2675  0.1469 -0.2370
25056W        W67973   4.270  14.785  17.420 -0.1404 -0.2175 -0.1325
25057W        W67974   4.438  11.929  18.302 -0.1981 -0.0199 -0.1414
25058W        W67975   5.397  13.915  18.729  0.0729  0.1753 -0.0414
25059W        W67976   4.881  11.192  17.245  0.1276 -0.1185  0.1126
25060W        W67977   4.969  11.928  19.239 -0.4866 -0.1451  0.1523
25061W        W67978   5.826  12.249  19.014  0.0129 -0.3434  0.0620
25062W        W67979   5.910  13.536  18.788 -0.3517  0.1397 -0.0459
25063W        W67980   2.842  12.571  20.611  0.2329  0.5078  0.1686
25064W        W67981   6.424  13.623  18.275 -0.2030  0.2020 -0.1258
25065W        W67982   7.388  10.532  17.835  0.0200 -0.0627 -0.2693
25066W        W67983   7.012  13.479  19.406  0.2128 -0.1375 -0.1268
25067W        W67984   6.208  10.650  16.441 -0.3486  0.0024  0.3730
25068W        W67985   7.764  12.273  16.596 -0.1995  0.0773  0.1409
25069W        W67986   6.653  11.802  18.616 -0.0319 -0.4249 -0.0191
25070W        W67987   7.499  12.598  20.543 -0.2423 -0.2235 -0.1162
25071W        W67988   2.527  11.608  18.096 -0.0640 -0.0164  0.1837
25072W        W67989   7.597  12.209  19.894  0.2734  0.2502 -0.1923
25073W        W67990   5.441  16.428  19.984  0.3644  0.1706 -0.0221
25074W        W67991   6.323  15.268  17.721  0.4073 -0.0207  0.0278
25075W        W67992   5.299  12.208  17.436 -0.2740 -0.2749 -0.0655
25076W        W67993   5.027  12.827  18.575  0.1452  0.0242 -0.1278
25077W        W67994   5.491  13.574  20.362 -0.1494 -0.0780 -0.1380
25078W        W67995   5.247  11.697  17.271 -0.1223 -0.1809  0.0061
25079W        W67996   5.738  12.016  17.142  0.1212  0.0476  0.0330
25080W        W67997   4.881  12.404  20.785  0.2614 -0.1854 -0.1411
25081W        W67998   8.249  14.007  21.355  0.1638 -0.0541  0.0519
25082W        W67999   6.001  10.660  16.930 -0.2841 -0.1517 -0.0118
25083W        W68000   6.919  12.960  19.236  0.0117 -0.0549  0.0292
25084W        W68001   4.121  13.805  18.171 -0.3748 -0.2073  0.1480
25085W        W68002   6.674  11.758  17.250 -0.3031 -0.0522  0.0015
25086W        W68003   4.610  13.416  17.846 -0.0736 -0.0809 -0.2004
25087W        W68004   5.863  12.733  20.011  0.0204  0.0627 -0.1390
25088W        W68005   3.863  12.580  20.826 -0.0820 -0.0220  0.0489
25089W        W68006   4.045  11.618  17.731  0.0038  0.2180 -0.0550
25090W        W68007   6.802  13.920  18.480  0.1810 -0.2802 -0.2495
25091W        W68008   4.731  13.902  19.294 -0.1179 -0.2218 -0.0431
25092W        W68009   6.092  13.677  20.659 -0.1838 -0.0136 -0.0709
25093W        W68010   5.472  12.964  19.308  0.0000 -0.1992 -0.0422
25094W        W68011   4.194  13.504  19.527 -0.1666 -0.1568 -0.1696
25095W        W68012   3.050  13.789  18.275  0.1873 -0.1661 -0.0434
25096W        W68013   5.683  12.854  18.758  0.1132 -0.0314  0.0571
25097W        W68014   3.994  14.324  16.239  0.0430 -0.2149  0.1953
25098W        W68015   3.809  14.156  21.342 -0.1898  0.3740  0.2551
25099W        W68016   5.429  10.527  20.191 -0.3672 -0.0210 -0.0626
25100W        W68017   5.497  12.597  18.324  0.2760 -0.0631  0.2202
25101W        W68018   5.269  11.346  16.924 -0.3638  0.1366 -0.1023
25102W        W68019   5.994  13.804  16.890 -0.1890 -0.0144  0.0825
25103W        W68020   3.557  14.313  20.018  0.3495  0.0803  0.1566
25104W        W68021   3.855  12.054  18.452  0.3491  0.0362  0.2133
25105W        W68022   2.426  14.251  16.681  0.0239  0.0257 -0.1019
25106W        W68023   7.630  14.550  17.946  0.0156  0.0342  0.1310
25107W        W68024   5.197  14.049  16.757 -0.1526  0.2504 -0.2457
25108W        W68025   5.195  14.237  18.123  0.1736 -0.3511  0.2976
25109W        W68026   5.466   9.927  18.223 -0.0689  0.0489 -0.1559
25110W        W68027   3.165  14.069  19.681  0.0631 -0.1847 -0.0228
25111W        W68028   1.400  15.373  19.155 -0.1142 -0.3341 -0.1621
25112W        W68029   6.219  14.772  17.605  0.1451 -0.3184  0.1372
25113W        W68030   2.851  14.156  17.018 -0.0588 -0.1885  0.0432
25114W        W68031   7.354  14.846  18.867  0.2853 -0.3526  0.0289
25115W        W68032   6.612  13.174  17.487 -0.1320 -0.3153 -0.1192
25116W        W68033   8.217  12.403  17.436  0.0695  0.0345 -0.0854
25117W        W68034   7.116  10.634  16.842 -0.4778 -0.3673 -0.0055
25118W        W68035   4.251  14.308  18.252  0.2697  0.1092  0.0743
25119W        W68036   2.635  13.591  19.296  0.0531  0.4375  0.1103
25120W        W68037   4.779  11.150  16.725 -0.1320  0.0175  0.3201
25121W        W68038   4.606  12.847  19.040  0.1909 -0.1366  0.1880
25122W        W68039   7.742  12.650  19.729 -0.1543 -0.2387  0.4778
25123W        W68040   2.386  15.183  21.090 -0.0232 -0.3969 -0.0495
25124W        W68041   7.147  14.334  17.745  0.1438  0.0249  0.2987
25125W        W68042   4.046  11.573  17.231 -0.0125  0.1857 -0.1437
25126W        W68043   3.812  10.750  17.902 -0.0313 -0.0888 -0.4735
25127W        W68044   7.894  11.813  19.974  0.0455 -0.3740 -0.0819
25128W        W68045   5.658  14.096  17.075  0.1271 -0.3066  0.0625
25129W        W68046   6.076  12.496  16.984  0.0336 -0.3378 -0.1715
25130W        W68047   5.623  13.987  18.275 -0.1206 -0.0227 -0.0210
25131W        W68048   6.344  14.730  18.122 -0.0570  0.0791  0.1500
25132W        W68049   4.561  14.163  17.341  0.0540  0.3091  0.0086
25133W        W68050   5.190  11.511  18.754 -0.0133 -0.2131  0.1654
25134W        W68051   8.171  12.097  19.221  0.1282  0.0900  0.1612
25135W        W68052   3.348  14.342  17.710 -0.1045 -0.0611  0.1875
25136W        W68053   7.850  10.574  18.113  0.2424  0.0012  0.0659
25137W        W68054   4.361  12.644  17.456 -0.0274  0.3792 -0.0009
25138W        W68055   7.453  11.982  16.133 -0.1402  0.2539 -0.1306
25139W        W68056   4.491  11.910  19.096  0.0671 -0.2199  0.1117
25140W        W68057   4.122  12.603  18.287  0.1478  0.0414 -0.0306
25141W        W68058   5.659  12.908  17.935 -0.0775  0.1211 -0.0068
25142W        W68059   7.943  14.137  20.363 -0.1824 -0.3479  0.0956
25143W        W68060   6.111  11.709  17.518  0.0822 -0.3660 -0.0661
25144W        W68061   7.070  14.753  19.790 -0.3328  0.2892  0.1729
25145W        W68062   3.181  12.885  19.709 -0.2281 -0.0492  0.4105
25146W        W68063   5.736  11.494  17.121  0.3545  0.0231 -0.0839
25147W        W68064   3.807  11.638  16.748  0.0433 -0.1338 -0.1884
25148W        W68065   6.073  11.873  19.176 -0.0602  0.4676  0.0303
25149W        W68066   4.280  13.925  19.760 -0.1881 -0.2386 -0.1117
25150W        W68067   3.793  11.058  19.748 -0.0842 -0.2484 -0.0909
25151W        W68068   7.157  14.361  16.919 -0.1864 -0.0812 -0.1957
25152W        W68069   6.839  13.424  18.511 -0.0464 -0.0313  0.1680
25153W        W68070   4.242  14.053  16.728 -0.1803  0.2951 -0.1623
25154W        W68071   5.962  12.171  17.615  0.1881 -0.1771  0.1258
25155W        W68072   6.893  14.341  17.301  0.0566  0.0343  0.1170
25156W        W68073   2.076  10.356  18.733  0.2130  0.2795  0.0477
25157W        W68074   5.787  13.303  20.813  0.0862  0.2845  0.0553
25158W        W68075   7.549  13.480  19.437  0.0348 -0.2069  0.1093
25159W        W68076   5.051  11.132  18.006 -0.1505 -0.2053 -0.0561
25160W        W68077   4.805  11.428  18.421  0.0528 -0.1177 -0.3467
25161W        W68078   4.169  13.875  19.173 -0.2181  0.1342 -0.1494
25162W        W68079   7.568  11.386  19.324  0.2071  0.0938 -0.1751
25163W        W68080   4.259  11.740  18.699 -0.3412 -0.2497  0.2877
25164W        W68081   4.740  14.019  16.887  0.2183  0.3705 -0.1894
25165W        W68082   7.215  10.402  21.232  0.0225  0.3006 -0.3342
25166W        W68083   5.642  14.433  18.737 -0.0241  0.0456  0.0699
25167W        W68084   4.089  15.838  20.890  0.3071  0.1462 -0.1531
25168W        W68085   3.664  13.032  16.819  0.0261  0.0401  0.3844
25169W        W68086   2.663  13.205  20.031  0.2345 -0.0069 -0.1836
25170W        W68087   5.181  12.746  18.002 -0.2429  0.1917 -0.4301
25171W        W68088   4.724  14.409  18.145 -0.0164  0.1298 -0.0477
25172W        W68089   8.184  14.856  18.720  0.3411 -0.2983  0.0841
25173W        W68090   5.428  12.796  17.529 -0.0267  0.3721  0.1122
25174W        W68091   5.870  12.619  19.388  0.2320  0.0695  0.0881
25175W        W68092   5.511  10.513  18.594  0.0236  0.0627 -0.0292
25176W        W68093   6.039  11.251  16.739  0.0618 -0.0645 -0.0672
25177W        W68094   7.911   9.855  16.289 -0.2820 -0.0915  0.0394
25178W        W68095   4.959  11.448  20.063 -0.3521 -0.3008  0.1064
25179W        W68096   3.296  13.475  17.912  0.1875 -0.3050 -0.0937
25180W        W68097   6.279  12.316  19.308 -0.0377  0.0101  0.0463
25181W        W68098   5.008  15.410  17.069 -0.1659  0.4278  0.0340
25182W        W68099   6.565  11.154  19.824 -0.3210 -0.2761  0.0408
25183W        W68100   5.452  12.281  19.353 -0.3816 -0.2849 -0.0003
25184W        W68101   4.246  13.053  17.710 -0.0290 -0.2830  0.0700
25185W        W68102   3.615  11.659  18.675 -0.6372 -0.2152  0.1495
25186W        W68103   5.993  14.336  17.384  0.1869 -0.4334 -0.0435
25187W        W68104   4.553  12.409  17.979 -0.0589  0.0309 -0.1881
25188W        W68105   4.987  11.346  21.096  0.0852  0.0168  0.1047
25189W        W68106   8.256  14.738  17.747  0.3182  0.3093 -0.2107
25190W        W68107   5.323  15.295  15.934  0.3412  0.0541  0.3870
25191W        W68108   4.648  13.615  18.896  0.2124  0.0320 -0.3234
25192W        W68109   6.346  14.201  18.090  0.6642 -0.1301 -0.0865
25193W        W68110   2.829  13.631  17.114 -0.0295  0.0441 -0.1954
25194W        W68111   4.424  12.371  19.260  0.2065 -0.2899  0.2202
25195W        W68112   4.238  12.756  22.001  0.2118 -0.0942 -0.2591
25196W        W68113   2.509  10.880  19.276  0.0671 -0.0727 -0.1244
25197W        W68114   4.005  10.907  19.334 -0.1374 -0.3186  0.0070
25198W        W68115   4.035  14.280  18.732  0.1651  0.0586  0.1013
25199W        W68116   6.398  14.554  17.143 -0.1844 -0.0296  0.1058
25200W        W68117   4.653  13.370  19.343  0.0433 -0.4257 -0.0607
25201W        W68118   4.547  13.960  18.003  0.2365 -0.0696 -0.0527
25202W        W68119   4.820  12.452  19.783 -0.1245  0.2675  0.0687
25203W        W68120   6.188  12.544  17.496  0.4004  0.1705 -0.2151
25204W        W68121   5.103  14.671  20.776  0.1772  0.4978 -0.0765
25205W        W68122   7.590  13.599  16.460  0.1173  0.1613 -0.1700
25206W        W68123   7.758  11.372  19.808 -0.0592 -0.2053 -0.1405
25207W        W68124   5.675  12.755  16.914  0.3166  0.1739 -0.0507
25208W        W68125   3.346  11.817  21.084 -0.1642 -0.2553  0.2756
25209W        W68126   3.835  10.674  21.318  0.0991  0.1164 -0.0933
25210W        W68127   5.973  13.260  18.310  0.1622  0.1175  0.0867
25211W        W68128   1.439  10.774  19.292  0.2801  0.1876  0.1214
25212W        W68129   8.019  10.988  17.815  0.0418 -0.1166  0.0110
25213W        W68130   6.021  16.100  18.564  0.2969  0.3923  0.0079
25214W        W68131   4.305  14.603  16.707  0.2591 -0.0263 -0.0314
25215W        W68132   6.696  14.097  18.981 -0.1972  0.1697  0.1590
25216W        W68133   5.041  11.374  19.241  0.2475  0.3668  0.0786
25217W        W68134   5.050  13.105  18.977 -0.1147 -0.0423  0.0268
25218W        W68135   6.003  13.799  18.056 -0.1815 -0.4120  0.0646
25219W        W68136   5.456  11.382  17.942  0.0442 -0.0019 -0.4168
25220W        W68137   7.025  13.457  16.323 -0.1940  0.1342  0.0667
25221W        W68138   6.107  14.396  18.947  0.0461  0.0190 -0.0541
25222W        W68139   4.252  14.780  18.394  0.1066 -0.2198  0.0732
25223W        W68140   3.983  12.624  19.909  0.3182 -0.1149 -0.1115
25224W        W68141   8.848  13.543  19.529 -0.1065  0.5935 -0.0318
25225W        W68142   4.066  10.136  18.591  0.0373  0.2737 -0.0669
25226W        W68143   5.052  10.835  17.579 -0.1375  0.0708 -0.1677
25227W        W68144   5.589  11.831  17.694  0.2481 -0.0130 -0.1179
25228W        W68145   6.349  12.145  17.196  0.0100  0.0250  0.1166
25229W        W68146   4.826  10.699  20.358 -0.3709 -0.0156 -0.1578
25230W        W68147   6.016  10.967  17.263 -0.0370  0.3895  0.1435
25231W        W68148   4.860  12.882  20.546  0.1653 -0.0301 -0.0789
25232W        W68149   5.128  15.628  18.496 -0.0306  0.1701  0.0766
25233W        W68150   5.216  13.567  25.641  0.1172 -0.2555 -0.1701
25234W        W68151   5.871  12.765  20.754 -0.1017 -0.2447  0.0252
25235W        W68152   8.300  12.035  20.173  0.3486 -0.2277  0.0042
25236W        W68153   5.836  13.558  21.725 -0.0019 -0.1910  0.0778
25237W        W68154   5.364  11.283  21.839  0.0615 -0.3061  0.1288
25238W        W68155   6.421  11.980  20.933 -0.0065  0.1398  0.1578
25239W        W68156   4.231  10.361  25.761  0.4179  0.0025 -0.0950
25240W        W68157   5.380  13.914  21.519 -0.2435  0.4518  0.2108
25241W        W68158   7.278  15.797  23.273  0.3089 -0.0256 -0.0957
25242W        W68159   4.587  12.395  20.310  0.2559  0.2987  0.1915
25243W        W68160   4.515  12.687  22.563  0.1120 -0.2044  0.0222
25244W        W68161   6.938  13.781  23.948  0.0402  0.0797  0.3056
25245W        W68162   6.304  10.473  19.250 -0.0176 -0.1815 -0.1551
25246W        W68163   4.911  11.921  24.136  0.1634 -0.0644  0.0744
25247W        W68164   7.478  11.832  26.011  0.0585  0.1253  0.0758
25248W        W68165   2.953  12.202  21.384  0.0601 -0.0851 -0.0753
25249W        W68166   4.768  12.616  23.474  0.0205 -0.6303  0.0815
25250W        W68167   6.505  13.909  22.874 -0.0818  0.0564 -0.2354
25251W        W68168   4.694  14.871  23.539  0.1624 -0.1874  0.1631
25252W        W68169   3.617  11.085  24.149 -0.2091 -0.0901 -0.1236
25253W        W68170   6.732   9.045  22.962  0.0149  0.1301 -0.2327
25254W        W68171   5.075  13.455  20.621  0.0971 -0.3111 -0.2853
25255W        W68172   2.923  11.141  19.338  0.0973 -0.0879 -0.0199
25256W        W68173   5.017  11.275  22.756  0.0628  0.0590 -0.0079
25257W        W68174   4.849  14.371  23.466  0.2005  0.0747 -0.1414
25258W        W68175   6.887  10.450  22.015 -0.0995 -0.1374 -0.2183
25259W        W68176   5.263  12.147  23.228  0.0199 -0.0926  0.1502
25260W        W68177   3.625  14.060  23.179  0.2957 -0.1248  0.0471
25261W        W68178   5.955  13.063  19.097  0.2199  0.0293  0.3837
25262W        W68179   6.030  12.440  22.614 -0.2139  0.0195  0.0733
25263W        W68180   4.923  13.740  20.255  0.0328 -0.2971  0.0805
25264W        W68181   3.173  14.992  20.101 -0.2074 -0.2486 -0.0889
25265W        W68182   4.922  13.598  19.705 -0.0517  0.3036 -0.3065
25266W        W68183   7.152  16.821  23.594 -0.1635  0.2786 -0.0589
25267W        W68184   7.418  12.793  23.517  0.4224  0.0459 -0.3717
25268W        W68185   6.089  12.635  24.380  0.0978 -0.0384 -0.0564
25269W        W68186   3.044  16.149  20.374 -0.0064 -0.0869 -0.0626
25270W        W68187   6.565  16.840  21.981  0.0215 -0.3605 -0.1076
25271W        W68188   5.300  13.874  19.857 -0.0327  0.0036  0.2361
25272W        W68189   5.006  12.198  23.740 -0.0205 -0.2847  0.0103
25273W        W68190   5.164  12.390  21.896  0.0738  0.0053 -0.1737
25274W        W68191   3.695  13.456  18.820  0.1259  0.2290  0.1189
25275W        W68192   5.020  13.505  21.268 -0.3657  0.2547 -0.0063
25276W        W68193   4.732  13.424  22.965  0.1197 -0.0128  0.5570
25277W        W68194   4.886  13.515  22.454 -0.3089 -0.0431  0.0278
25278W        W68195   7.287   8.758  25.177 -0.1759 -0.0638  0.0175
25279W        W68196   4.878  13.044  22.502  0.0162 -0.0382  0.0085
25280W        W68197   7.594  12.451  21.991 -0.0170 -0.0947 -0.0885
25281W        W68198   6.385  13.257  20.691  0.2443 -0.2151  0.0932
25282W        W68199   6.041  11.381  20.165 -0.0338 -0.2922  0.0001
25283W        W68200   5.571   9.650  22.204  0.3134  0.1407  0.1277
25284W        W68201   4.898  15.611  23.279  0.3356  0.4383  0.1241
25285W        W68202   5.165  12.835  22.175 -0.0728 -0.3856  0.1838
25286W        W68203   7.366  12.530  25.275  0.1619  0.0225  0.0269
25287W        W68204   4.783  12.144  21.239 -0.0080  0.0197  0.1342
25288W        W68205   5.746  11.830  23.974 -0.0275  0.0331 -0.2102
25289W        W68206   5.984  14.342  23.600 -0.2996  0.1669 -0.1501
25290W        W68207   5.237  15.516  22.944  0.1573  0.0137 -0.2690
25291W        W68208   7.712  13.932  18.350 -0.2453  0.5829  0.0576
25292W        W68209   3.797  12.130  20.329 -0.1522 -0.0991 -0.2191
25293W        W68210   3.458  14.478  19.540  0.0593 -0.0895  0.2706
25294W        W68211   3.345  12.964  20.384  0.3259 -0.2117 -0.0651
25295W        W68212   3.566  12.160  23.415  0.0943  0.1755  0.1019
25296W        W68213   5.913  11.724  23.181  0.0342 -0.2113  0.1533
25297W        W68214   5.199  11.692  20.673  0.0578  0.2849 -0.0650
25298W        W68215   6.521  11.609  23.811 -0.0768 -0.0584 -0.0244
25299W        W68216   5.207  14.684  23.096  0.1805 -0.0537 -0.0866
25300W        W68217   5.248  12.097  19.785  0.1287 -0.3371  0.1059
25301W        W68218   6.089  11.649  22.185 -0.1892  0.0588 -0.1015
25302W        W68219   6.637  11.227  23.445 -0.3569  0.1026 -0.2220
25303W        W68220   7.197  13.691  20.518  0.0580  0.3490  0.5330
25304W        W68221   9.062  11.980  23.156 -0.1818 -0.1403 -0.0322
25305W        W68222   6.821  10.701  24.650  0.3300  0.0125 -0.0288
25306W        W68223   5.105  15.279  21.980 -0.1429 -0.0071  0.0430
25307W        W68224   5.492  12.615  20.340  0.1619  0.2651 -0.2382
25308W        W68225   7.673  16.029  21.762  0.0637  0.0375 -0.1697
25309W        W68226   5.611  12.180  20.120  0.0758 -0.0727  0.1552
25310W        W68227   4.783  13.455  23.719 -0.0099  0.0415 -0.1917
25311W        W68228   4.776  12.579  21.623  0.0692  0.0395 -0.2065
25312W        W68229   6.659  13.502  22.651 -0.0980  0.0447  0.0059
25313W        W68230   5.477  14.938  21.736  0.1194  0.0319  0.1199
25314W        W68231   5.558  14.672  21.048 -0.0130  0.1964  0.3424
25315W        W68232   3.378  12.802  21.305 -0.0454 -0.0593  0.0042
25316W        W68233   3.253  12.447  23.820 -0.2189  0.2856 -0.1560
25317W        W68234   5.758  13.051  24.232  0.0885  0.2393 -0.5148
25318W        W68235   6.262  11.917  22.597 -0.0107  0.2171  0.1893
25319W        W68236   5.468  10.298  24.494  0.0134  0.2853 -0.0060
25320W        W68237   4.314  12.008  20.528  0.4925  0.0811  0.1087
25321W        W68238   5.437  14.309  20.719  0.0614  0.0391  0.2141
25322W        W68239   6.832  14.944  21.762  0.1785 -0.1147 -0.0721
25323W        W68240   7.381  11.871  21.049  0.1436 -0.3132 -0.0709
25324W        W68241   7.037  15.870  21.181  0.3263 -0.0359  0.0951
25325W        W68242   5.384  12.564  22.985 -0.0531 -0.1237  0.3249
25326W        W68243   5.250  11.820  20.166  0.0799  0.4737  0.1054
25327W        W68244   4.338  10.898  26.503 -0.1003 -0.0562  0.0043
25328W        W68245   4.610  11.743  22.505  0.0975 -0.0552 -0.3106
25329W        W68246   7.707  11.723  26.485 -0.0343  0.0913  0.0059
25330W        W68247   5.044  11.679  21.923 -0.1389  0.1671  0.0320
25331W        W68248   6.484  10.707  21.679 -0.1152 -0.1519 -0.1343
25332W        W68249   4.659  12.999  22.038  0.1392  0.0594 -0.3776
25333W        W68250   4.265  14.384  21.327  0.1434 -0.0567  0.0033
25334W        W68251   8.674   9.603  22.571  0.1144 -0.0346 -0.1309
25335W        W68252   4.391  12.384  20.880 -0.1465  0.2282 -0.0713
25336W        W68253   6.492  15.763  22.367 -0.1878  0.0484 -0.1502
25337W        W68254   6.276  12.665  23.041  0.4891  0.1970  0.0092
25338W        W68255   2.827  11.609  25.116  0.3903  0.2022  0.0298
25339W        W68256   4.641  11.577  19.440  0.1112 -0.0371 -0.2576
25340W        W68257   6.286  14.192  22.014 -0.1888  0.1194  0.1537
25341W        W68258   6.288  14.671  21.732 -0.1470 -0.0090 -0.0200
25342W        W68259   4.566  11.239  22.469  0.1693  0.0129  0.0467
25343W        W68260   6.555  15.321  18.545  0.1497 -0.1554 -0.0650
25344W        W68261   6.858  13.382  20.698  0.1653 -0.1150  0.1470
25345W        W68262   4.602  13.468  22.013 -0.1521  0.1049 -0.3198
25346W        W68263   6.069  12.189  24.106  0.0398 -0.4024  0.2369
25347W        W68264   8.340  12.794  23.917  0.0425  0.1466  0.0171
25348W        W68265   8.115  13.224  21.766  0.3496  0.0473  0.1996
25349W        W68266   3.111  11.056  20.812 -0.2080 -0.2027  0.1973
25350W        W68267   6.413  14.303  20.869 -0.0166  0.1152 -0.1518
25351W        W68268   3.314  12.585  22.256  0.5176 -0.1527  0.0339
25352W        W68269   3.290  13.246  21.702 -0.2172  0.1073  0.1681
25353W        W68270   5.579  13.064  21.203 -0.1585  0.0100 -0.0465
25354W        W68271   7.621   9.392  21.489  0.3015  0.3453 -0.2767
25355W        W68272   2.843  14.429  22.660  0.3458  0.1534  0.0995
25356W        W68273   5.450  13.128  25.813  0.0100  0.3911 -0.0803
25357W        W68274   5.522  11.330  20.870 -0.1339  0.0958  0.0025
25358W        W68275   4.089  12.940  22.872  0.0773  0.2923  0.2177
25359W        W68276   5.895  11.118  21.821  0.1082 -0.1819 -0.1866
25360W        W68277   7.885  12.619  20.228 -0.2572 -0.3887 -0.1434
25361W        W68278   4.623  13.357  24.171 -0.0290  0.2237 -0.3346
25362W        W68279   6.746  14.693  20.632  0.1006  0.1288 -0.1064
25363W        W68280   4.935  12.312  18.837  0.0916 -0.1678 -0.0717
25364W        W68281   6.267  10.892  20.110 -0.2408  0.2543  0.0971
25365W        W68282   2.729  15.117  24.054  0.0515  0.3496 -0.4165
25366W        W68283   6.804  15.455  22.020 -0.0754 -0.0479 -0.1291
25367W        W68284   7.294  13.705  24.341  0.2094 -0.0193  0.1469
25368W        W68285   4.242  11.940  19.522 -0.1513  0.0246  0.1101
25369W        W68286   7.589  13.922  19.641 -0.2976  0.0458 -0.0116
25370W        W68287   4.935  14.234  21.757 -0.0069 -0.1945  0.3294
25371W        W68288   4.975  13.901  24.150  0.0248 -0.0301  0.0046
25372W        W68289   6.417  13.795  21.762  0.0272  0.2244  0.0457
25373W        W68290   5.756  10.304  24.900  0.0700 -0.1348  0.0009
25374W        W68291   4.099  12.505  20.382 -0.1492 -0.1630  0.0783
25375W        W68292   5.730  10.079  24.025 -0.1896 -0.2582  0.0621
25376W        W68293   2.509  14.197  18.905 -0.0753 -0.1562  0.0564
25377W        W68294   5.644  13.087  25.032  0.0345 -0.1828  0.2440
25378W        W68295   5.698   9.142  22.262 -0.1194  0.0878  0.2413
25379W        W68296   4.700  11.486  25.473 -0.2457 -0.1691 -0.0070
25380W        W68297   8.536  11.279  22.857 -0.0858  0.3651 -0.4200
25381W        W68298   5.384  13.032  20.596  0.3812 -0.0759  0.1667
25382W        W68299   4.957  12.054  22.205 -0.1377 -0.1061 -0.4473
25383W        W68300   3.765  12.947  18.384  0.1883 -0.0789 -0.0014
25384W        W68301   6.411  10.243  24.433  0.0154 -0.1328  0.2325
25385W        W68302   5.377  13.413  22.449  0.4909 -0.1207 -0.1732
25386W        W68303   4.963  11.852  22.847  0.1526  0.0924  0.4111
25387W        W68304   7.785  13.101  24.770  0.1371  0.1559 -0.1307
25388W        W68305   4.697  12.731  21.106 -0.0973 -0.4630  0.1817
25389W        W68306   5.853  13.819  25.658 -0.2166  0.0507  0.0226
25390W        W68307   6.902   9.964  21.965 -0.3930  0.0303 -0.3360
25391W        W68308   7.112  15.819  19.123 -0.1198 -0.2264 -0.1081
25392W        W68309   3.457  15.248  19.768  0.0671  0.1540 -0.1195
25393W        W68310   4.951  10.957  23.697  0.1589 -0.2140  0.1495
25394W        W68311   6.530  13.776  21.276  0.1650  0.1153  0.1121
25395W        W68312   4.922  14.214  17.692 -0.0196  0.0129 -0.1531
25396W        W68313   5.435  13.711  21.988  0.1687  0.1142 -0.1428
25397W        W68314   1.792  14.884  21.666  0.1561  0.0215  0.1868
25398W        W68315   5.528  12.443  22.296 -0.4227 -0.0140  0.0207
25399W        W68316   3.378  14.906  22.343 -0.2868 -0.1918 -0.4318
25400W        W68317   4.467  10.289  20.423 -0.3099  0.0525  0.3390
25401W        W68318   3.391  11.954  20.599  0.0920  0.0602 -0.0423
25402W        W68319   6.682  12.381  21.207  0.0786 -0.0986 -0.1177
25403W        W68320   8.340  13.320  20.783 -0.0034  0.1902  0.0060
25404W        W68321   4.777  11.874  24.644  0.1740  0.1821  0.0688
25405W        W68322   6.238  10.281  23.852  0.0699  0.0773 -0.1185
25406W        W68323   5.437  12.890  22.613 -0.3449  0.1083 -0.1143
25407W        W68324   4.179  11.391  24.435 -0.4776 -0.0882  0.0074
25408W        W68325   4.984  12.833  20.034 -0.0084  0.1340  0.0591
25409W        W68326   8.468  14.917  23.505 -0.1847 -0.0781  0.2989
25410W        W68327   6.924  12.164  25.278 -0.1723  0.2914 -0.2266
25411W        W68328   2.753  10.721  22.598 -0.3048 -0.3872 -0.2364
25412W        W68329   6.012  12.548  21.832 -0.4283  0.0314 -0.0186
25413W        W68330   5.974  14.230  22.540  0.2491  0.1054  0.3683
25414W        W68331   5.190  13.637  22.875 -0.1730 -0.1998  0.0189
25415W        W68332   6.119  13.181  23.887 -0.2109  0.1180 -0.0848
25416W        W68333   3.982  11.925  19.065  0.1490 -0.2106 -0.3025
25417W        W68334   3.611  15.422  21.931 -0.0943  0.2843 -0.0277
25418W        W68335   6.534  12.901  23.517  0.3307 -0.1134  0.0351
25419W        W68336   6.888  11.481  22.166  0.1968 -0.0196  0.1202
25420W        W68337   5.242  10.866  22.965 -0.5831  0.2139  0.2483
25421W        W68338   5.148  11.607  22.414  0.2596  0.2129 -0.3855
25422W        W68339   5.821  11.423  23.599  0.0716 -0.3913 -0.0929
25423W        W68340   7.231  14.862  23.351 -0.1877 -0.0108  0.2701
25424W        W68341   4.020  14.710  21.700  0.1088 -0.0964  0.2288
25425W        W68342   5.688  14.461  23.953 -0.0357  0.1546  0.0288
25426W        W68343   4.173  10.543  21.733 -0.0807  0.0879  0.1449
25427W        W68344   7.720  15.540  21.851  0.0113  0.0777  0.0079
25428W        W68345   5.278  11.653  25.322 -0.0478  0.0769  0.0836
25429W        W68346   5.354  13.382  21.577 -0.0141  0.2473  0.0006
25430W        W68347   4.271  14.724  20.906 -0.1702  0.2339  0.0663
25431W        W68348   4.924  13.745  21.722  0.0125 -0.0707  0.1214
25432W        W68349   4.473  12.909  23.853 -0.0272  0.4581 -0.0648
25433W        W68350   6.006  13.595  23.590 -0.3645 -0.1309  0.1683
25434W        W68351   4.490  14.290  19.070 -0.1447 -0.4328 -0.1037
25435W        W68352   4.380  12.535  23.116 -0.2547  0.1754  0.2139
25436W        W68353   6.383  11.151  21.361 -0.0614 -0.2173  0.1328
25437W        W68354   6.360  12.866  19.306 -0.0342 -0.4648  0.1921
25438W        W68355   5.354  11.123  19.577 -0.3938 -0.0599  0.1222
25439W        W68356   7.510   9.822  22.270 -0.2613  0.1079  0.3500
25440W        W68357   5.871  13.089  19.618 -0.0843  0.1158  0.0939
25441W        W68358   6.119  11.605  25.413  0.0880 -0.4312 -0.0495
25442W        W68359   4.075  12.371  22.726 -0.0041  0.1340  0.2337
25443W        W68360   5.968  13.207  20.318  0.1055 -0.2531 -0.2824
25444W        W68361   3.168  12.311  23.092  0.1373  0.1529  0.1794
25445W        W68362   7.591  15.586  23.602  0.0273  0.0401 -0.2732
25446W        W68363   3.113  13.143  23.470 -0.1800 -0.1902 -0.2765
25447W        W68364   5.424  11.566  21.280 -0.0938 -0.1387  0.0184
25448W        W68365   6.316  11.480  21.733 -0.1012  0.0211  0.0705
25449W        W68366   5.130  13.027  23.549  0.1763 -0.1093 -0.1359
25450W        W68367   7.790  13.188  23.281  0.0120 -0.1416 -0.0780
25451W        W68368   4.940  14.260  20.449 -0.1899  0.1093  0.2801
25452W        W68369   7.444  12.755  21.308  0.0785  0.2304  0.1934
25453W        W68370   5.368  12.701  24.207  0.0166  0.1575  0.1303
25454W        W68371   5.646  11.819  20.907 -0.1021  0.0735 -0.0038
25455W        W68372   4.615  13.365  20.477  0.0673 -0.0840 -0.4749
25456W        W68373   4.758  12.085  21.737 -0.1521  0.1531 -0.1014
25457W        W68374   5.053  11.489  24.933  0.1393  0.0459  0.0714
25458W        W68375   7.019  13.840  22.761 -0.0816  0.3496 -0.1963
25459W        W68376   4.819  11.168  19.705 -0.0004  0.1455  0.1916
25460W        W68377   5.259  14.231  23.701 -0.3330  0.0671 -0.2678
25461W        W68378   5.895  13.566  24.791  0.0544 -0.2908  0.0503
25462W        W68379   5.088  11.285  23.308 -0.0242 -0.0013  0.0403
25463W        W68380   3.522  13.183  24.214  0.3522 -0.0986  0.3428
25464W        W68381   5.358  14.238  21.982 -0.0783  0.0920  0.2440
25465W        W68382   9.029  11.807  19.522  0.2543  0.0295 -0.1500
25466W        W68383   6.979  10.624  23.751  0.0145 -0.3129 -0.0834
25467W        W68384   7.756  13.508  22.858  0.0514  0.1732  0.1188
25468W        W68385   5.896   9.961  17.982 -0.0691 -0.1292 -0.0282
25469W        W68386   6.089  10.380  22.385 -0.3518  0.0283 -0.2089
25470W        W68387   6.332  11.792  24.366  0.4577  0.1418  0.0889
25471W        W68388   4.638  10.735  19.871  0.3452  0.1009  0.0720
25472W        W68389   6.539  10.637  22.277  0.2503 -0.0801 -0.2617
25473W        W68390   3.610  12.871  18.934 -0.2931  0.2212 -0.1282
25474W        W68391   7.591  14.745  22.469  0.3758 -0.0504 -0.2572
25475W        W68392   6.642  12.825  20.931  0.2449  0.1110  0.0693
25476W        W68393   3.005  12.332  21.945 -0.1975  0.2602 -0.1898
25477W        W68394   4.900  14.933  24.116  0.1109 -0.1380 -0.0156
25478W        W68395   3.447  11.506  19.783  0.4929  0.3518 -0.0012
25479W        W68396   4.884  14.668  19.011 -0.1403 -0.2915  0.1571
25480W        W68397   7.331  14.223  21.845  0.2606  0.2224  0.1149
25481W        W68398   6.191  12.504  23.571  0.0806 -0.0239  0.1305
25482W        W68399   7.288  13.709  18.557  0.2488 -0.1819 -0.1946
25483W        W68400   9.026  10.948  22.956  0.1764  0.0062  0.1336
25484W        W68401   3.102  13.869  20.697  0.2859 -0.3003 -0.5166
25485W        W68402   6.836  10.311  24.222  0.2441  0.0220 -0.1538
25486W        W68403   5.031  13.939  22.199  0.2357  0.0221  0.0524
25487W        W68404   3.545  13.675  24.136  0.0176 -0.0849 -0.2161
25488W        W68405   5.840  14.434  21.953 -0.0562 -0.0008 -0.4319
25489W        W68406   4.571  11.278  23.494 -0.0726 -0.2035 -0.0179
25490W        W68407   6.890  10.693  23.273 -0.0476 -0.0590 -0.0860
25491W        W68408   7.161  12.862  22.712  0.0558  0.0781 -0.0673
25492W        W68409   5.682  11.210  23.157 -0.0613  0.3209  0.0604
25493W        W68410   6.736  11.992  22.412  0.2028 -0.0779 -0.1324
25494W        W68411   3.377  13.528  22.457 -0.0530  0.0938 -0.2224
25495W        W68412   7.086  14.409  22.267 -0.1707  0.0735 -0.1088
25496W        W68413   5.831  12.548  23.231  0.3041  0.0407 -0.0547
25497W        W68414   6.725  12.628  22.419 -0.3208  0.3542 -0.0541
25498W        W68415   3.910  10.700  25.085  0.1333 -0.0483 -0.1673
25499W        W68416   5.319  11.556  26.905 -0.0509 -0.0821  0.3052
25500W        W68417   6.436  12.733  21.471  0.1856  0.1479  0.2258
25501W        W68418   4.753  10.925  23.121  0.1766 -0.0973  0.0919
25502W        W68419   6.200  13.432  19.284 -0.2442 -0.0151 -0.1451
25503W        W68420   6.178  11.907  23.622  0.3218  0.1714  0.5591
25504W        W68421   4.532  12.677  24.287  0.0139  0.2047  0.1004
25505W        W68422   3.969  14.343  22.944  0.0912 -0.1047  0.3430
25506W        W68423   5.816  13.973  19.561  0.0986  0.0828 -0.1383
25507W        W68424   5.567  12.023  21.949  0.2505 -0.1182  0.1489
25508W        W68425   7.341  14.641  20.222 -0.0413 -0.0486  0.0221
25509W        W68426   4.074  11.550  22.892  0.1435 -0.2117 -0.0487
25510W        W68427   6.646  13.030  23.018  0.0456  0.2495  0.2567
25511W        W68428   5.035  14.484  19.922  0.1512  0.1026  0.0684
25512W        W68429   7.414  14.200  20.457  0.2721 -0.1002  0.0664
25513W        W68430   5.160  13.872  20.987  0.1107 -0.3707 -0.3504
25514W        W68431   7.365  13.435  23.422  0.1710  0.1578  0.3453
25515W        W68432   6.236  12.488  19.833 -0.2919 -0.0613  0.1293
25516W        W68433   5.620  13.561  21.212  0.1288  0.0006 -0.0062
25517W        W68434   6.059   9.835  21.207 -0.0456 -0.0209  0.0443
25518W        W68435   7.450  13.864  23.017  0.0399  0.0109  0.0182
25519W        W68436   4.832  13.146  21.561  0.2476  0.2953  0.1224
25520W        W68437   5.440  11.367  20.300  0.1026  0.2381 -0.2668
25521W        W68438   3.980  13.438  24.192  0.0176  0.1208  0.0190
25522W        W68439   6.664   9.874  24.074  0.1578 -0.0654  0.0793
25523W        W68440   2.863  15.228  21.152 -0.1546 -0.1623  0.0171
25524W        W68441   7.552  14.629  21.549 -0.1547 -0.2713  0.0124
25525W        W68442   3.818  10.506  20.782 -0.5347  0.0245  0.1787
25526W        W68443   4.194  11.021  22.798  0.0274  0.3464  0.2569
25527W        W68444   7.826  10.417  23.498 -0.2610  0.0539 -0.0719
25528W        W68445   4.896  13.229  18.203  0.1702 -0.0524 -0.0080
25529W        W68446   5.658  10.650  21.682  0.4328  0.1573  0.1289
25530W        W68447   6.363  12.883  22.028  0.3218 -0.0460 -0.0766
25531W        W68448   5.206  14.808  22.282  0.0240 -0.1560 -0.1417
25532W        W68449   6.621  14.651  22.137  0.0235 -0.2286 -0.1002
25533W        W68450   4.475  10.578  20.808  0.1142  0.1634  0.2280
25534W        W68451   7.431  13.739  22.530 -0.0256 -0.0865 -0.0352
25535W        W68452   5.685  13.687  24.017  0.3314  0.0582  0.0901
25536W        W68453   8.234  11.760  24.191  0.1933 -0.0645 -0.1206
25537W        W68454   5.314  12.581  18.993 -0.0512  0.1037  0.0301
25538W        W68455   6.422  13.267  21.724  0.0884 -0.1225  0.1721
25539W        W68456   6.317  12.471  20.824 -0.1984  0.1650 -0.0307
25540W        W68457   5.725  12.237  24.443 -0.2484 -0.0145  0.1537
25541W        W68458   5.326  10.951  20.560 -0.1384 -0.0027  0.1252
25542W        W68459   9.905  12.419  25.540  0.1960  0.0472 -0.1809
25543W        W68460   5.222  10.675  18.131 -0.1682 -0.0788 -0.0489
25544W        W68461   7.429  14.222  22.683 -0.0023  0.0932  0.1093
25545W        W68462   4.931  11.205  20.503  0.4442  0.1199  0.3814
25546W        W68463   4.413  13.884  20.276 -0.4355  0.0653  0.2274
25547W        W68464   3.969  13.518  22.406 -0.2297 -0.2705 -0.1915
25548W        W68465   7.677  10.573  22.412  0.0699 -0.1402 -0.1898
25549W        W68466   6.994  13.188  24.891  0.1531  0.1343  0.1891
25550W        W68467   3.453  13.463  23.284 -0.1612 -0.3293  0.2127
25551W        W68468   5.676  14.187  21.182  0.1097 -0.2157  0.1558
25552W        W68469   7.919  12.104  23.867  0.1251  0.1343 -0.1519
25553W        W68470   6.087  14.643  21.004  0.2267  0.0971 -0.2179
25554W        W68471   5.364  12.683  19.740 -0.1295 -0.3234  0.2552
25555W        W68472   6.209  15.030  21.345 -0.1007  0.1745 -0.1945
25556W        W68473   5.214   9.877  24.066 -0.2415 -0.0226  0.1038
25557W        W68474   6.895  13.423  24.343  0.3087  0.2737  0.0350
25558W        W68475   8.345  13.555  23.479 -0.0299 -0.1893  0.0634
25559W        W68476   6.020  10.728  19.677  0.1588  0.1607 -0.0715
25560W        W68477   4.343  12.156  22.102 -0.1844 -0.0247  0.2047
25561W        W68478   1.856  12.969  21.311  0.0318 -0.2619 -0.3422
25562W        W68479   5.701  12.105  23.020 -0.2717 -0.1517  0.2298
25563W        W68480   8.246   9.508  23.163 -0.2840 -0.1459  0.1913
25564W        W68481   6.370  14.140  20.377  0.1690  0.1757 -0.0707
25565W        W68482   5.304  12.556  23.592 -0.0683  0.1169  0.0708
25566W        W68483   7.905  13.470  25.003 -0.0656 -0.3848 -0.1398
25567W        W68484   5.864  14.667  22.766 -0.0416  0.1928  0.1888
25568W        W68485   6.124  14.191  19.915  0.2022 -0.0687 -0.1648
25569W        W68486   5.565  13.555  23.390 -0.2463 -0.0391  0.0569
25570W        W68487   4.487  14.098  21.699  0.1798  0.2556 -0.1182
25571W        W68488   5.659  13.863  20.769 -0.0285 -0.2367 -0.0726
25572W        W68489   6.173  14.199  23.027 -0.1975  0.0438  0.0427
25573W        W68490   5.644  10.996  20.093 -0.0251  0.0852  0.1145
25574W        W68491   7.181  15.231  20.543 -0.1893 -0.0048 -0.0604
25575W        W68492   6.217  12.260  21.303  0.4079  0.0291 -0.1682
25576W        W68493   6.735  11.593  20.616 -0.2665  0.1405  0.2126
25577W        W68494   6.127  12.925  21.123 -0.2309  0.0940 -0.2759
25578W        W68495   4.870  12.391  22.975  0.0994 -0.1645 -0.1168
25579W        W68496   4.942  11.789  23.416  0.1926  0.1168 -0.2126
25580W        W68497   4.343  15.276  20.152 -0.0938 -0.0013 -0.1017
25581W        W68498   6.281  13.661  20.189  0.1386  0.0289  0.1423
25582W        W68499   5.742  11.380  25.121 -0.0449 -0.0417  0.3021
25583W        W68500   5.362  11.927  24.394  0.2190 -0.1904  0.1053
25584W        W68501   5.187  15.337  21.480 -0.1148  0.2930 -0.2655
25585W        W68502   5.310   9.750  20.790 -0.3236  0.0845 -0.2955
25586W        W68503   7.299  14.287  23.178  0.0306 -0.2560 -0.1380
25587W        W68504   3.263  13.693  21.969  0.0258 -0.0555  0.0983
25588W        W68505   3.700  11.212  22.715 -0.1621  0.1262  0.0882
25589W        W68506   9.247  13.057  20.946  0.2313 -0.0926 -0.0626
25590W        W68507   7.253  15.865  18.661  0.4206 -0.2508 -0.0870
25591W        W68508   7.030  10.692  22.461  0.2518  0.1618 -0.1208
25592W        W68509   8.390  13.271  24.078 -0.0595  0.1167 -0.1400
25593W        W68510   4.170  13.428  20.163 -0.2889 -0.3214 -0.1797
25594W        W68511   3.611  11.612  24.740 -0.2236 -0.0529  0.1480
25595W        W68512   4.311   9.996  24.483 -0.4310  0.1332  0.1481
25596W        W68513   4.769  11.652  21.480 -0.1157  0.2126  0.1137
25597W        W68514   5.371  11.647  23.071  0.3547  0.0351 -0.3512
25598W        W68515   5.308  14.545  19.149 -0.0852 -0.4407  0.1179
25599W        W68516   4.916  14.850  18.354 -0.0706  0.0955 -0.1783
25600W        W68517   4.946  13.689  23.322  0.0672  0.2265  0.0465
25601W        W68518   5.781  14.952  23.703 -0.0713  0.1088 -0.0593
25602W        W68519   3.974  11.811  23.829 -0.3710 -0.1296  0.0930
25603W        W68520   3.712  11.950  19.894  0.2305 -0.0897  0.2998
25604W        W68521   6.884  13.123  25.572 -0.0854  0.5175 -0.0109
25605W        W68522   6.300  13.483  22.154  0.0312 -0.4045  0.1527
25606W        W68523   6.163  11.340  22.913  0.0193  0.0105 -0.1191
25607W        W68524   5.842  14.006  20.297  0.0252  0.0977 -0.0260
25608W        W68525   3.460  11.632  23.855 -0.1276  0.0467  0.1752
25609W        W68526   4.216  13.869  22.163  0.0668  0.2582  0.0965
25610W        W68527   8.084  11.889  22.428  0.0139  0.1560  0.0309
25611W        W68528   4.548  12.202  22.625  0.0395 -0.1688  0.2856
25612W        W68529   5.972  11.284  21.087 -0.5347 -0.1059 -0.2090
25613W        W68530   7.767  15.170  18.951 -0.1732 -0.1489 -0.0131
25614W        W68531   5.564  13.144  22.078  0.0165  0.1732 -0.5002
25615W        W68532   6.890  10.967  22.027  0.2405  0.1414  0.0040
25616W        W68533   5.408  11.990  22.630 -0.1002 -0.0753  0.1806
25617W        W68534   7.617  14.096  23.533  0.0538  0.0983 -0.0232
25618W        W68535   6.947  11.684  23.517 -0.0848 -0.2537 -0.1188
25619W        W68536   5.236  12.067  21.068  0.2890 -0.1037  0.0831
25620W        W68537   6.998  13.713  21.095  0.0246 -0.5195 -0.2380
25621W        W68538   6.132  13.760  22.585 -0.2536  0.2973 -0.5189
25622W        W68539   7.500  12.118  22.366  0.0472 -0.0684  0.2931
25623W        W68540   4.416  13.826  24.080 -0.2461  0.2725 -0.0354
25624W        W68541   6.885  13.079  21.881  0.3502  0.2175 -0.0334
25625W        W68542   5.866  12.075  22.310 -0.0805 -0.2816 -0.4157
25626W        W68543   3.894  12.032  21.427  0.1083  0.1382  0.0233
25627W        W68544   4.170  11.827  20.134  0.1176 -0.1788  0.0821
25628W        W68545   7.503  13.241  22.498  0.1795 -0.1571 -0.1600
25629W        W68546   5.682  13.352  22.905  0.5189 -0.0251  0.0898
25630W        W68547   5.784   9.710  20.746  0.0425  0.2587 -0.0366
25631W        W68548   4.230  14.908  22.930 -0.1037  0.0197 -0.0539
25632W        W68549   7.896  12.392  22.947 -0.4039  0.1221  0.2313
25633W        W68550   3.829  14.155  27.302 -0.1965 -0.1197  0.1691
25634W        W68551   6.563  12.277  25.791 -0.3218  0.0739 -0.1725
25635W        W68552   7.207  13.366  22.944  0.1015  0.2638 -0.0024
25636W        W68553   5.661  13.439  25.477  0.1027  0.0626 -0.0379
25637W        W68554   4.469  10.750  26.991  0.3079  0.1388 -0.1116
25638W        W68555   9.059  13.145  25.959 -0.1921  0.1433  0.1437
25639W        W68556   5.386  11.978  28.289  0.2276 -0.1456  0.3185
25640W        W68557   7.350  14.614  27.136 -0.0492  0.3732 -0.0539
25641W        W68558   7.581  14.157  26.672  0.0149 -0.2095  0.3044
25642W        W68559   6.057  13.466  24.295  0.0949 -0.0100 -0.2732
25643W        W68560   3.584   9.324  25.180  0.0173  0.0024 -0.2622
25644W        W68561   6.803  14.541  28.108 -0.2971  0.1791 -0.2416
25645W        W68562   5.767   8.167  22.956 -0.1367 -0.0132 -0.1082
25646W        W68563   5.789  11.040  27.944 -0.2574  0.0513 -0.1968
25647W        W68564   7.105  12.337  27.447 -0.0550  0.1064  0.1738
25648W        W68565   4.249  13.261  26.144  0.0518 -0.0075 -0.1254
25649W        W68566   6.547  12.421  27.657 -0.2835 -0.2341  0.2788
25650W        W68567   4.361  11.898  26.301  0.2363  0.1541  0.1636
25651W        W68568   5.428  14.045  24.200  0.1348 -0.1857  0.0856
25652W        W68569   6.796   8.985  25.916  0.0741 -0.1368  0.1209
25653W        W68570   9.166  10.747  27.973  0.1717 -0.0982 -0.4989
25654W        W68571   5.639  14.417  24.465  0.0326 -0.0229  0.0412
25655W        W68572   4.772   9.622  23.906  0.1993  0.1041 -0.1556
25656W        W68573   7.314  14.893  25.141 -0.1153 -0.0562 -0.1605
25657W        W68574   5.797  12.783  25.929  0.2754  0.4337  0.0316
25658W        W68575   6.526  10.816  26.887 -0.0733  0.2730 -0.1650
25659W        W68576   7.974  12.972  26.507  0.0255  0.1760  0.1480
25660W        W68577   5.872  14.095  26.108  0.0460 -0.2738 -0.0993
25661W        W68578   6.250  12.627  27.025  0.2510 -0.0090 -0.0740
25662W        W68579   6.891  11.937  27.649  0.0362  0.2436  0.2777
25663W        W68580   4.046  12.905  25.057  0.1763  0.0355  0.2246
25664W        W68581   4.500  15.359  26.369 -0.0391  0.0899  0.1236
25665W        W68582   5.289  13.124  24.577 -0.0135 -0.0718 -0.0776
25666W        W68583   5.563  15.854  26.631 -0.1891  0.1850 -0.1244
25667W        W68584   7.574  15.890  26.278 -0.1057  0.1899 -0.1402
25668W        W68585   2.814  14.252  27.927  0.0676  0.3984 -0.0056
25669W        W68586   1.982  11.920  23.471 -0.2269 -0.0028 -0.1246
25670W        W68587   6.802  14.439  26.217 -0.2928 -0.0130  0.3473
25671W        W68588   4.688  14.308  25.491  0.0997  0.0542 -0.0211
25672W        W68589   8.309  11.931  27.154 -0.1260  0.0108 -0.2037
25673W        W68590   5.645  12.855  25.477 -0.2094 -0.1399 -0.0023
25674W        W68591   6.320  12.855  22.550 -0.1506  0.0257 -0.0571
25675W        W68592   5.408  14.111  26.410  0.0750 -0.0059  0.1578
25676W        W68593   5.575  14.611  28.786  0.3021 -0.0100 -0.0647
25677W        W68594   5.070  12.733  24.863 -0.4436 -0.0604  0.1495
25678W        W68595   7.803  10.562  27.727 -0.0643 -0.1416 -0.0743
25679W        W68596   5.556  14.523  23.465 -0.1690  0.3902 -0.0427
25680W        W68597   6.605  11.517  25.956  0.3183  0.1265  0.0035
25681W        W68598   5.881  10.813  25.947  0.1345 -0.1641  0.0121
25682W        W68599   5.788  10.740  23.378 -0.2426 -0.2394 -0.1424
25683W        W68600   6.620  10.223  24.963 -0.1964  0.1248 -0.0493
25684W        W68601   5.242  13.565  27.073 -0.2760 -0.1415  0.0654
25685W        W68602   5.257  10.424  26.521  0.0448  0.2020  0.2095
25686W        W68603  10.163  14.839  26.278  0.1632  0.1120 -0.1649
25687W        W68604   6.334  14.586  27.269 -0.4040 -0.0049 -0.1328
25688W        W68605   6.476  13.721  26.766 -0.2714 -0.1443 -0.1662
25689W        W68606   4.278  14.779  25.393 -0.1982 -0.0155  0.1898
25690W        W68607   5.058  12.793  26.180 -0.3109  0.1258  0.1648
25691W        W68608   6.570  11.852  25.564  0.3035 -0.1353  0.3344
25692W        W68609   7.294  14.316  26.185 -0.0850 -0.3555  0.2913
25693W        W68610   5.296  14.839  23.708  0.0564  0.1857  0.1380
25694W        W68611   5.463  11.785  24.897 -0.1104 -0.2846 -0.0870
25695W        W68612   4.673  13.756  27.104  0.0945 -0.2957  0.2585
25696W        W68613   5.615  13.094  28.215  0.0608 -0.0826  0.0209
25697W        W68614   4.185  11.387  23.807  0.0610 -0.2321  0.0088
25698W        W68615   6.262  14.447  26.251 -0.0193 -0.2545  0.1263
25699W        W68616   4.244  13.047  24.545 -0.0507 -0.1187  0.0123
25700W        W68617   8.256   8.631  25.046  0.1114 -0.2887  0.2060
25701W        W68618   4.592  11.282  27.342 -0.1134  0.1635 -0.3435
25702W        W68619   8.438  13.504  27.254 -0.0745  0.1814  0.0798
25703W        W68620   7.766  13.255  25.714 -0.0794  0.0378 -0.1886
25704W        W68621   7.910  10.004  25.814 -0.0268  0.0154  0.0925
25705W        W68622   6.673  12.573  26.160  0.2123 -0.0055  0.2113
25706W        W68623   3.345  12.637  23.381 -0.0114 -0.1064  0.4074
25707W        W68624   7.136  14.089  25.267  0.0187 -0.1190 -0.0613
25708W        W68625   5.808  15.796  25.970 -0.0882 -0.0255  0.1292
25709W        W68626   7.801  11.504  24.227  0.0614  0.0672  0.2523
25710W        W68627   5.724  14.375  25.362  0.1038 -0.0310 -0.1085
25711W        W68628   4.640  13.592  26.249  0.5674 -0.0043 -0.1130
25712W        W68629   6.430  15.656  26.580  0.1863 -0.1031 -0.0270
25713W        W68630   4.978  14.747  25.013 -0.1366  0.0823 -0.1636
25714W        W68631   5.697  14.896  25.659  0.0853 -0.0046 -0.2403
25715W        W68632   4.600  12.808  24.884  0.0221 -0.1167 -0.1524
25716W        W68633   4.545  10.777  26.022  0.4306  0.0711 -0.0496
25717W        W68634   6.063  13.943  27.526  0.0770 -0.1322  0.1184
25718W        W68635   6.071  10.057  25.329 -0.2559  0.0392 -0.0246
25719W        W68636   2.628  12.884  26.927 -0.1257  0.1906 -0.1389
25720W        W68637   6.967  11.951  24.598 -0.0908  0.1184  0.1163
25721W        W68638   2.927  15.241  25.528  0.1871 -0.0842  0.3502
25722W        W68639   7.925  13.534  26.617  0.1657  0.1051  0.2836
25723W        W68640   7.815  10.913  24.798 -0.0682 -0.0662  0.1886
25724W        W68641   9.066  13.634  24.995  0.0294 -0.0784 -0.1605
25725W        W68642   4.017  13.733  27.418 -0.1993  0.2663 -0.3028
25726W        W68643   4.334  12.205  25.112  0.0525 -0.0921  0.1803
25727W        W68644   5.058  11.990  27.409  0.3127 -0.1766  0.1794
25728W        W68645   3.027  10.866  26.707  0.3521  0.1680 -0.2098
25729W        W68646   8.114  12.490  26.440  0.0206  0.0763 -0.1554
25730W        W68647   3.946  11.328  25.482 -0.0320  0.0311  0.0459
25731W        W68648   6.018  14.052  26.776 -0.2400 -0.1449  0.4520
25732W        W68649   7.721  11.186  26.823  0.0671 -0.1928  0.0014
25733W        W68650   4.303  12.500  26.533 -0.0488 -0.2179 -0.2896
25734W        W68651   7.881  10.978  28.801  0.3791  0.4215 -0.0408
25735W        W68652   6.746  13.948  24.382  0.2049 -0.0779  0.0681
25736W        W68653   7.409  13.894  27.467  0.0766 -0.0898  0.0321
25737W        W68654   7.392  14.385  24.927  0.1494  0.1776  0.0593
25738W        W68655   5.658  12.348  26.212  0.0548  0.0466 -0.1157
25739W        W68656   5.367  12.559  25.175  0.0276  0.1912 -0.1535
25740W        W68657   2.822  12.163  23.414  0.1365 -0.2003  0.2541
25741W        W68658   5.174  12.656  25.641 -0.1440 -0.2466  0.0520
25742W        W68659   7.361  13.704  26.497  0.1889 -0.1524 -0.0344
25743W        W68660   8.898  13.369  25.427 -0.2742 -0.3535  0.0455
25744W        W68661   4.966  12.418  24.413  0.1053  0.0700 -0.1366
25745W        W68662   3.452  12.925  25.632  0.0779  0.0247  0.2421
25746W        W68663   6.737  10.760  26.089  0.3468  0.2095 -0.1150
25747W        W68664   7.468  12.027  26.923 -0.0729 -0.1657  0.4008
25748W        W68665   6.152  10.505  26.815 -0.0547  0.1726 -0.0703
25749W        W68666   5.614   9.570  24.170  0.0899 -0.4641 -0.1376
25750W        W68667   7.070  14.523  25.800 -0.5015 -0.1552  0.1877
25751W        W68668   7.507  13.690  23.811 -0.0010 -0.2818  0.2795
25752W        W68669   3.047  13.003  24.008 -0.1177  0.0500  0.1236
25753W        W68670   6.127  13.979  23.962  0.3143  0.1121  0.3165
25754W        W68671   6.411  11.109  24.481 -0.1507  0.0781  0.0031
25755W        W68672   4.584  14.184  31.255  0.3099  0.0686  0.1265
25756W        W68673   7.568  12.440  27.897  0.0227 -0.2295  0.0192
25757W        W68674   5.046  11.433  23.901 -0.0749 -0.2872  0.0523
25758W        W68675   4.964  13.711  27.549 -0.0429 -0.3502  0.0217
25759W        W68676   5.248  11.631  25.845  0.2494  0.2528 -0.0732
25760W        W68677   8.142  14.102  23.432 -0.2346  0.3854 -0.0558
25761W        W68678   7.537  13.260  26.849  0.0867 -0.2990 -0.1092
25762W        W68679   8.347  14.157  24.169 -0.0860  0.2301  0.0981
25763W        W68680   6.121  12.467  26.116  0.1933 -0.0738  0.1884
25764W        W68681   5.506  10.771  24.609  0.1559  0.0110 -0.2535
25765W        W68682   3.846  14.360  28.047  0.0439 -0.1097  0.1611
25766W        W68683   7.452  13.090  25.218  0.1616  0.0378  0.0628
25767W        W68684   7.079  13.680  28.262 -0.0174  0.2517  0.1373
25768W        W68685   4.664  12.224  25.626  0.0498 -0.2432  0.1802
25769W        W68686   6.836  13.967  25.994 -0.1421  0.1334 -0.2585
25770W        W68687   3.182  13.715  26.872  0.5012  0.1003  0.3476
25771W        W68688   7.211  14.346  27.603  0.4374  0.2996 -0.1720
25772W        W68689   6.104  13.592  26.037 -0.0163  0.3047  0.0542
25773W        W68690   6.162  11.100  23.355 -0.1266  0.0534 -0.2215
25774W        W68691   6.124  11.631  25.979  0.3458 -0.1191 -0.0230
25775W        W68692   5.134  10.464  25.516  0.0201 -0.1270  0.0691
25776W        W68693   3.619  13.537  24.625 -0.0033  0.0033 -0.0516
25777W        W68694   6.466  10.857  25.638  0.0409  0.2135  0.1014
25778W        W68695  10.424  12.531  25.488 -0.0582  0.1632 -0.0052
25779W        W68696   6.085  11.888  28.996 -0.2156  0.3961  0.0494
25780W        W68697   7.832  12.622  26.868  0.0678 -0.0239 -0.3337
25781W        W68698   6.497  13.593  23.992  0.1022  0.1743 -0.0937
25782W        W68699   6.538  12.994  27.866 -0.3816  0.1803 -0.1301
25783W        W68700   3.579  12.092  24.092  0.0219 -0.0872 -0.3881
25784W        W68701   6.537  11.336  25.404  0.2963 -0.1683  0.0794
25785W        W68702   4.905  17.009  26.462 -0.1037  0.0556  0.0980
25786W        W68703   4.535  14.775  28.372 -0.1601  0.1782  0.0489
25787W        W68704   9.201  14.060  24.908  0.1768 -0.0427  0.2686
25788W        W68705   6.192  13.838  25.093 -0.0509 -0.1693  0.0976
25789W        W68706   6.275  11.539  26.441 -0.1652 -0.1568  0.3823
25790W        W68707   3.692   9.807  26.394 -0.2270 -0.0184 -0.1778
25791W        W68708   4.752  14.341  24.017  0.0117  0.1000 -0.0310
25792W        W68709   6.096  13.360  25.201  0.0570  0.0909  0.0560
25793W        W68710   5.493  11.072  26.688  0.0781 -0.1291  0.0760
25794W        W68711   6.893  13.386  27.364  0.0911 -0.0917 -0.4004
25795W        W68712   5.547  14.879  24.220  0.2700  0.3444  0.0944
25796W        W68713   7.902  11.922  27.508  0.0796 -0.4337 -0.1493
25797W        W68714   6.029  15.196  23.296  0.0790  0.1819 -0.2371
25798W        W68715   7.745   8.880  25.989 -0.0846 -0.0912  0.0774
25799W        W68716   3.996  12.671  24.372  0.0639  0.4085 -0.0507
25800W        W68717   4.795  11.961  26.006 -0.0769 -0.1551 -0.0381
25801W        W68718   3.878  10.369  26.879 -0.2792  0.0312 -0.1335
25802W        W68719   6.470  12.266  26.734 -0.1784 -0.1353  0.2044
25803W        W68720   8.960  12.200  24.121  0.0219  0.1345 -0.1132
25804W        W68721   3.840  13.574  26.268  0.0017  0.0784  0.5197
25805W        W68722   7.271  10.401  26.516  0.0206  0.3661 -0.0966
25806W        W68723   3.777  14.128  26.490 -0.0873 -0.1224 -0.2022
25807W        W68724   7.207  11.965  26.508  0.0289 -0.0685 -0.0965
25808W        W68725   7.669   9.610  22.733 -0.1877 -0.3348 -0.0619
25809W        W68726   9.195  10.498  26.979  0.5292 -0.0619 -0.1791
25810W        W68727   4.074  11.527  26.439  0.0910  0.3618 -0.1734
25811W        W68728   4.887  10.944  25.181  0.0414  0.1961  0.1230
25812W        W68729   8.595  11.688  27.450  0.3151 -0.0288  0.4287
25813W        W68730   4.719  12.417  26.242 -0.1293 -0.1424  0.1695
25814W        W68731   2.800  13.307  25.687 -0.1077 -0.0073  0.0542
25815W        W68732   6.794  16.222  25.229 -0.1882  0.0062 -0.2729
25816W        W68733   5.492  12.251  23.965  0.1160 -0.2127  0.3698
25817W        W68734   4.576  12.366  23.841 -0.2905  0.3193 -0.1551
25818W        W68735   2.147  12.841  27.582 -0.1975 -0.1945 -0.0300
25819W        W68736   8.429  12.966  26.356 -0.0488 -0.0831 -0.0170
25820W        W68737   5.661  12.410  26.909  0.0033  0.0635 -0.0935
25821W        W68738   4.225   9.917  25.575 -0.1044  0.0858  0.0337
25822W        W68739   4.782  13.089  27.150 -0.1529 -0.0548 -0.0010
25823W        W68740   7.159  12.589  26.147 -0.0808  0.0767 -0.1800
25824W        W68741   7.671  11.258  26.345 -0.0758 -0.0539 -0.0827
25825W        W68742   4.872  15.163  29.917  0.3167 -0.0597 -0.1225
25826W        W68743   6.887  11.061  25.723 -0.3746 -0.0929  0.2508
25827W        W68744   4.749  14.099  26.677  0.2225  0.0705  0.1714
25828W        W68745   7.082  11.563  26.196 -0.2177  0.0468 -0.0162
25829W        W68746   3.235  12.751  24.958 -0.3569  0.0038  0.4023
25830W        W68747   3.535  12.717  28.626 -0.1069 -0.1042  0.1590
25831W        W68748   4.771  12.713  26.671 -0.0073 -0.0539 -0.0940
25832W        W68749   7.234   9.710  26.969 -0.2160 -0.1082 -0.0079
25833W        W68750   4.744  12.964  25.328 -0.0478  0.2295  0.1321
25834W        W68751   3.747  12.034  24.633  0.0636 -0.0169 -0.0721
25835W        W68752   4.317  12.734  26.101  0.2040 -0.1296  0.1236
25836W        W68753   7.769  12.639  24.377  0.1126 -0.2724 -0.2254
25837W        W68754   4.638  12.163  23.384 -0.0924 -0.1652  0.0011
25838W        W68755   7.324  12.829  26.660  0.0818  0.0740 -0.3739
25839W        W68756   7.631  12.401  27.390 -0.1324  0.1442  0.0567
25840W        W68757   6.631  12.315  22.872 -0.1070  0.0171  0.1492
25841W        W68758   6.116   9.949  27.532 -0.0261  0.0806  0.2932
25842W        W68759   5.040  13.898  26.023 -0.1652 -0.0673 -0.1138
25843W        W68760   6.197  15.719  25.660 -0.0426 -0.0942 -0.0391
25844W        W68761   3.874  12.047  26.071 -0.1967  0.2461 -0.0807
25845W        W68762   7.904  17.343  28.364  0.0024  0.0805  0.0879
25846W        W68763   5.422  14.440  28.261  0.2312  0.1230  0.0889
25847W        W68764   6.037  10.339  25.695 -0.0190  0.0573 -0.0492
25848W        W68765   6.164  14.196  25.404 -0.0831  0.1103  0.1622
25849W        W68766   5.062  14.797  29.065 -0.0823 -0.5999 -0.0201
25850W        W68767   6.421  11.981  26.191  0.0931 -0.2150  0.2078
25851W        W68768   6.176  14.402  24.179 -0.0199  0.0172 -0.0250
25852W        W68769   6.619  11.464  24.762 -0.1811 -0.1290  0.1456
25853W        W68770   4.654  13.738  25.754  0.0530  0.2310 -0.1523
25854W        W68771   7.269  11.015  26.800 -0.1346  0.0324 -0.1468
25855W        W68772   6.470  13.002  24.937 -0.1430  0.0105 -0.1428
25856W        W68773   6.490  12.498  25.262  0.2068 -0.0299  0.1759
25857W        W68774   5.174  12.136  26.937  0.2513 -0.0514 -0.1517
25858W        W68775   6.672  14.096  25.454  0.1651 -0.3639  0.2114
25859W        W68776   5.489  10.795  25.546  0.0552  0.1512  0.0645
25860W        W68777   7.369  10.725  27.269 -0.0305  0.2492 -0.0082
25861W        W68778   7.248  10.544  27.768  0.4493 -0.4030 -0.0910
25862W        W68779   6.229  11.383  27.960  0.2081 -0.1106 -0.2704
25863W        W68780   4.709  12.076  28.084  0.0396 -0.0193  0.2530
25864W        W68781   8.471  13.615  26.639 -0.1209  0.2664 -0.0365
25865W        W68782   8.068  11.534  22.796 -0.0572  0.4354  0.0175
25866W        W68783   7.872   9.558  25.314 -0.0418  0.5284 -0.0266
25867W        W68784   8.374  12.736  25.508 -0.3743 -0.0080 -0.1161
25868W        W68785   5.578  12.877  26.774  0.1473 -0.4964  0.0705
25869W        W68786   5.352  14.424  25.024 -0.0196  0.1082  0.0558
25870W        W68787   6.269  14.591  26.722  0.4649  0.0539 -0.0019
25871W        W68788   5.439  11.970  26.456  0.3356  0.0474 -0.0072
25872W        W68789   7.913  12.735  29.136 -0.2964 -0.1646  0.2926
25873W        W68790   6.514  14.970  25.155 -0.2329 -0.0586 -0.3612
25874W        W68791   5.718  13.880  25.187 -0.0719 -0.0408  0.0870
25875W        W68792   5.350  10.549  25.046  0.0040 -0.2485  0.1607
25876W        W68793   3.754  13.200  25.981  0.0238  0.3138 -0.0338
25877W        W68794   3.030  13.173  26.941  0.2632  0.1102  0.1876
25878W        W68795   4.105   9.466  25.295 -0.0430  0.2235  0.3009
25879W        W68796   6.353  14.164  24.610 -0.2325 -0.0258 -0.2240
25880W        W68797   5.357  16.573  26.969  0.2317 -0.0712 -0.1887
25881W        W68798   7.609  11.778  24.724  0.1974 -0.1592 -0.1586
25882W        W68799   6.166  10.739  24.660  0.3241 -0.0655 -0.0124
25883W        W68800   7.768  11.124  27.318  0.0880 -0.0456 -0.1044
25884W        W68801   4.120  12.237  24.081  0.0059 -0.1236 -0.1619
25885W        W68802   5.381  11.489  26.288  0.2768  0.0672  0.0979
25886W        W68803   4.321  12.272  25.975  0.0125  0.2964 -0.4617
25887W        W68804   4.315  13.016  26.617  0.1070  0.0153 -0.0340
25888W        W68805   6.408  13.072  25.461 -0.0361  0.2199  0.1131
25889W        W68806   7.677  10.652  26.920  0.0629 -0.2409 -0.1582
25890W        W68807   6.127  12.147  25.271 -0.1422  0.1397  0.4408
25891W        W68808   6.059  13.073  26.722 -0.2020 -0.4351 -0.1181
25892W        W68809   7.655  11.399  28.971  0.0286  0.2818  0.0042
25893W        W68810   6.011  15.425  27.641  0.1704  0.3828  0.0619
25894W        W68811   4.415  13.139  28.123  0.0581  0.0300  0.0659
25895W        W68812   5.914  15.139  25.040 -0.1530  0.0094 -0.2777
25896W        W68813   7.780  13.478  24.332 -0.2404 -0.2522  0.2372
25897W        W68814   4.620  10.624  25.494  0.4664  0.0908 -0.3536
25898W        W68815   5.225  12.218  24.796  0.0343 -0.1006 -0.2449
25899W        W68816   5.791  11.640  26.582  0.2172  0.0086 -0.1874
25900W        W68817   4.234  12.268  26.979 -0.0841  0.1078 -0.4118
25901W        W68818   4.585   9.970  26.460  0.2192 -0.0356 -0.0987
25902W        W68819   6.133  12.249  24.778  0.1389  0.0854 -0.2810
25903W        W68820   4.783  15.377  29.171  0.0041  0.3762 -0.1045
25904W        W68821   4.347  13.660  28.286  0.2874  0.0512 -0.1093
25905W        W68822   5.423  14.081  25.649 -0.0335  0.0698 -0.1099
25906W        W68823   6.998  12.135  24.029 -0.0389  0.1786 -0.1188
25907W        W68824   7.859  12.133  26.196 -0.1960  0.2194 -0.1299
25908W        W68825   2.865  14.162  29.227  0.3508 -0.2732  0.0243
25909W        W68826   5.997  10.771  23.852  0.1661 -0.4367 -0.2425
25910W        W68827   5.115  13.319  24.124  0.3460 -0.0403  0.2788
25911W        W68828   2.791  11.827  24.128  0.1074  0.0582  0.2368
25912W        W68829   8.104  15.932  25.558  0.3543  0.3643 -0.0036
25913W        W68830   5.215  15.035  25.622 -0.2564 -0.1934 -0.0788
25914W        W68831   5.282  14.025  27.354  0.0809 -0.0150 -0.3290
25915W        W68832   7.546  10.014  23.130  0.2362 -0.2426 -0.1793
25916W        W68833   7.837  12.733  25.555  0.0857  0.0865 -0.2698
25917W        W68834   7.488  10.608  25.092 -0.1723 -0.1906  0.0650
25918W        W68835   7.073  15.614  27.476 -0.1458  0.2578  0.2292
25919W        W68836   5.326   9.994  25.632  0.3109  0.0492 -0.1424
25920W        W68837   5.224   9.526  25.382 -0.3594 -0.1865 -0.1279
25921W        W68838   3.860  11.788  27.013 -0.1698 -0.2102 -0.1364
25922W        W68839   8.492  12.216  28.062 -0.3200 -0.0921 -0.1600
25923W        W68840   4.010  12.745  27.846  0.2205  0.1054 -0.2217
25924W        W68841   7.890  14.256  26.242  0.2424  0.2096 -0.0861
25925W        W68842   5.005  11.001  27.240  0.0047  0.2794 -0.2978
25926W        W68843   5.167  12.124  25.346  0.1261  0.0740  0.1227
25927W        W68844   6.914  10.967  27.680 -0.0129  0.0119 -0.1738
25928W        W68845   4.935  13.252  24.922  0.1235 -0.0526 -0.0796
25929W        W68846   7.690  10.367  26.156 -0.0532  0.3869 -0.1617
25930W        W68847   5.054  14.551  25.941  0.0082  0.1321 -0.2194
25931W        W68848   6.406  13.687  25.594 -0.1662 -0.0625  0.1281
25932W        W68849   4.177  14.976  26.339  0.4872 -0.1012  0.1568
25933W        W68850   3.372  12.198  25.037 -0.2204  0.0398  0.0936
25934W        W68851   6.605  12.629  24.585  0.1274  0.1870 -0.1621
25935W        W68852   5.116  13.677  26.541 -0.1913 -0.1492  0.0231
25936W        W68853   9.127  11.077  27.548 -0.1227 -0.0834 -0.3076
25937W        W68854   7.916  12.120  26.754  0.1130 -0.2126 -0.0350
25938W        W68855   6.722  11.424  24.244 -0.2067  0.3307 -0.0007
25939W        W68856   5.504  13.619  27.527 -0.0650 -0.0384 -0.0287
25940W        W68857   3.455  13.783  28.514  0.0444  0.1015  0.1371
25941W        W68858   5.943  14.041  24.440  0.0813  0.1925  0.0838
25942W        W68859   6.739  11.818  26.511 -0.0601 -0.1993 -0.0520
25943W        W68860   5.394  11.388  24.540  0.0554 -0.0718  0.0027
25944W        W68861   4.071  16.076  27.818  0.5564  0.1000  0.1241
25945W        W68862   4.773  11.456  26.016  0.0593 -0.0079 -0.0418
25946W        W68863   8.102  10.466  23.940  0.0010 -0.0837 -0.2153
25947W        W68864   4.102  12.169  25.540 -0.1349  0.0488 -0.0556
25948W        W68865   7.503  11.416  25.090 -0.1520  0.1567 -0.2691
25949W        W68866   6.666  14.303  27.663  0.4495 -0.0223 -0.1082
25950W        W68867   4.174  11.401  26.877 -0.0825  0.0558  0.1483
25951W        W68868   7.473  12.079  24.268  0.1088 -0.0070  0.2086
25952W        W68869   9.607  12.005  28.388 -0.2965 -0.1952 -0.0243
25953W        W68870   4.148  13.249  21.941  0.3445 -0.0487  0.1437
25954W        W68871   6.813  12.557  23.275 -0.1098  0.1353  0.1495
25955W        W68872   7.602  13.829  24.733  0.2328 -0.0209  0.0104
25956W        W68873   5.914  11.492  27.047 -0.2664  0.1624 -0.0338
25957W        W68874   6.866  15.165  27.752 -0.1177 -0.0508  0.1023
25958W        W68875   8.863  13.423  27.682  0.1826  0.0644 -0.0458
25959W        W68876   4.380  11.128  25.254 -0.2858  0.1270 -0.0555
25960W        W68877   4.749  14.593  26.538  0.0724 -0.1660 -0.2019
25961W        W68878   4.446  15.034  26.783 -0.4352 -0.0043 -0.1684
25962W        W68879   8.379  11.910  26.553  0.3461  0.0628 -0.0778
25963W        W68880   6.753  13.465  25.915 -0.2653  0.2342  0.0792
25964W        W68881   5.571  12.682  24.675 -0.2952 -0.0875  0.5532
25965W        W68882   5.202   9.518  26.333 -0.4575  0.2967 -0.2947
25966W        W68883   6.389  13.618  27.355 -0.0752 -0.0524 -0.0094
25967W        W68884   5.024  15.729  26.520 -0.2400  0.0405  0.0710
25968W        W68885   3.028  13.617  24.392 -0.1378 -0.1788  0.0549
25969W        W68886   4.682  14.192  26.195 -0.2166 -0.0092 -0.0133
25970W        W68887   6.048  13.142  26.248  0.0787  0.4549 -0.1831
25971W        W68888   5.083  14.260  24.487  0.2282  0.2113  0.2554
25972W        W68889   8.500  15.627  25.525 -0.0031  0.2987  0.0092
25973W        W68890   8.251   8.230  25.428  0.0264  0.4126 -0.1042
25974W        W68891   6.813  12.746  26.874  0.1391  0.0645  0.0158
25975W        W68892   7.881  11.970  25.589  0.2635 -0.0782 -0.0385
25976W        W68893   7.212  10.792  25.446  0.0084  0.3007  0.0112
25977W        W68894   7.146  10.313  24.729 -0.0479 -0.1192  0.1493
25978W        W68895   4.820  14.241  27.201  0.2877 -0.2280 -0.0453
25979W        W68896   6.167  12.655  25.641  0.3062  0.1086 -0.2993
25980W        W68897   4.784  14.243  24.923  0.0185 -0.1567 -0.3308
25981W        W68898   3.926  13.390  24.945 -0.4086  0.0462  0.2388
25982W        W68899   3.999  12.752  26.910  0.1658 -0.3066  0.0107
25983W        W68900   7.000  12.413  26.578  0.2339  0.1871 -0.1752
25984W        W68901   3.420  13.058  27.284  0.1946  0.2945 -0.3178
25985W        W68902   3.376  12.436  26.485 -0.0492  0.1702 -0.3883
25986W        W68903   6.970  12.815  25.200  0.2268  0.1482 -0.0468
25987W        W68904   3.047  11.609  26.586 -0.0882 -0.3053  0.2559
25988W        W68905   3.871  11.088  26.531  0.0487  0.0786 -0.0403
25989W        W68906   7.291  12.836  25.624 -0.1611 -0.1427 -0.0167
25990W        W68907   4.385  13.267  25.055 -0.1040 -0.0331  0.1941
25991W        W68908   4.803  12.463  25.180 -0.1894  0.0217 -0.2666
25992W        W68909   8.590  11.845  24.519  0.2791 -0.2139  0.0535
25993W        W68910   4.188  12.876  23.390  0.5203  0.1499 -0.2377
25994W        W68911   5.099  13.078  26.668 -0.2295  0.3049 -0.2314
25995W        W68912   5.182  12.285  25.973 -0.1271 -0.1806 -0.3260
25996W        W68913   2.975  10.764  25.365  0.2003  0.0167  0.2603
25997W        W68914   6.268  10.756  26.362  0.1350  0.1610  0.2320
25998W        W68915   8.775  13.923  26.164  0.4121  0.2470 -0.0841
25999W        W68916   6.086  13.085  23.339  0.1353  0.2033  0.0085
26000W        W68917   7.275  11.535  26.768 -0.1616 -0.0387 -0.0255
26001W        W68918   5.297  15.953  29.696  0.2300  0.0312 -0.0886
26002W        W68919   5.137  10.085  27.369 -0.1716  0.0792  0.2748
26003W        W68920   7.004  13.693  25.546  0.3384  0.0019  0.0744
26004W        W68921   7.237  16.484  25.884  0.1634 -0.0379 -0.1376
26005W        W68922   8.686  13.417  24.873  0.0242  0.2202 -0.0007
26006W        W68923   7.242  10.612  26.027  0.1002  0.2493  0.2591
26007W        W68924   6.055  14.683  25.130  0.1892 -0.1951 -0.2053
26008W        W68925   5.531  12.274  25.623  0.0429  0.0801  0.0970
26009W        W68926   4.466  12.984  27.567 -0.0798 -0.2064 -0.2184
26010W        W68927   6.414  12.976  25.918 -0.1162 -0.0800 -0.0059
26011W        W68928   6.587   9.294  26.253 -0.1019 -0.1447  0.0946
26012W        W68929   4.879  11.424  24.429 -0.0507  0.0563 -0.2444
26013W        W68930   8.103  14.754  24.715 -0.3037  0.2430 -0.0106
26014W        W68931   6.600  13.530  27.997 -0.0421 -0.1921 -0.1367
26015W        W68932   6.910  12.099  26.100  0.0650 -0.0639 -0.1736
26016W        W68933   7.405  11.923  27.466  0.2531 -0.5444 -0.0099
26017W        W68934   6.927  14.262  24.834  0.0699 -0.3670  0.1229
26018W        W68935   9.123  13.544  26.277  0.1273  0.1059 -0.1983
26019W        W68936   6.028  12.037  26.481 -0.0630  0.0235  0.1961
26020W        W68937   9.378  13.212  25.474  0.4362 -0.4300 -0.0660
26021W        W68938   6.272  15.410  26.184 -0.0783  0.0615  0.0662
26022W        W68939   6.492  15.066  27.427 -0.0202  0.1435  0.0502
26023W        W68940   5.525  13.983  24.743  0.0152 -0.1968 -0.1461
26024W        W68941   7.163  11.780  25.581  0.0217 -0.1729 -0.0722
26025W        W68942   3.243  12.400  26.989  0.0790  0.0879  0.2314
26026W        W68943   4.765  12.160  26.652  0.1882 -0.0674 -0.1632
26027W        W68944   6.012  12.538  26.588 -0.0648 -0.0259 -0.0453
26028W        W68945   7.312  11.358  27.292 -0.3400 -0.0741  0.2250
26029W        W68946   5.251  12.411  26.557 -0.0377  0.0931  0.2089
26030W        W68947   6.948  12.370  24.836  0.0720  0.0501 -0.3065
26031W        W68948   4.223  14.254  25.704 -0.1268  0.2380 -0.0034
26032W        W68949   6.255  11.133  25.988  0.0079 -0.0653  0.4962
26033W        W68950   8.651  12.785  29.882 -0.2228 -0.0288 -0.0609
26034W        W68951   5.102  11.972  29.907 -0.1552  0.1160  0.0863
26035W        W68952   7.229  11.355  27.820 -0.0973  0.0737  0.1027
26036W        W68953   5.103  14.212  28.704 -0.1516 -0.0745  0.2769
26037W        W68954   6.160  11.834  28.307 -0.0908  0.1099 -0.3705
26038W        W68955   5.740  15.118  28.639 -0.0599 -0.4903 -0.3731
26039W        W68956   5.312  10.834  29.016  0.0223  0.0152  0.2898
26040W        W68957   7.063  13.482  31.126 -0.1150  0.0156  0.0052
26041W        W68958   5.969  13.696  29.082  0.2927  0.0666 -0.2641
26042W        W68959   5.755  12.720  27.267  0.3793 -0.2010  0.2697
26043W        W68960   4.696  11.833  29.608  0.3307 -0.0586 -0.1275
26044W        W68961   4.487  14.357  28.100  0.1596 -0.4355  0.2164
26045W        W68962   7.402  11.704  29.265 -0.1440 -0.0512 -0.1063
26046W        W68963   4.681  11.897  28.657  0.1534 -0.3606  0.0783
26047W        W68964   7.642  14.098  29.596  0.2387 -0.1817 -0.0867
26048W        W68965   5.039  13.611  30.711 -0.1143 -0.1442 -0.5260
26049W        W68966   5.910  13.654  31.271 -0.0735 -0.0930  0.0058
26050W        W68967   6.145  13.330  29.424 -0.3079 -0.1290 -0.0841
26051W        W68968   5.817  14.731  30.569  0.2733  0.1262  0.1227
26052W        W68969   5.561  11.720  31.413 -0.4085  0.0929 -0.0473
26053W        W68970   6.163  11.656  30.139  0.1915  0.1982 -0.0413
26054W        W68971   5.448  14.764  27.787 -0.0258 -0.5458  0.2972
26055W        W68972   4.413  11.812  26.764  0.0198 -0.0955 -0.1351
26056W        W68973   5.672  11.548  30.288  0.2379  0.0148  0.1735
26057W        W68974   4.492  10.971   0.069 -0.1696 -0.1444 -0.0345
26058W        W68975   7.943  12.647  29.689 -0.1217  0.0440  0.0955
26059W        W68976   6.025  13.366  28.364 -0.2689  0.2103  0.2106
26060W        W68977   5.152  15.316  27.376 -0.4023 -0.1273  0.2540
26061W        W68978   5.034  16.261  27.360 -0.0614 -0.0331  0.2414
26062W        W68979   8.035  12.973  28.712 -0.1176  0.1500 -0.2506
26063W        W68980   4.314  12.455  30.256  0.3336 -0.3501  0.0496
26064W        W68981   6.110  13.304  27.809  0.1430 -0.2609  0.2766
26065W        W68982   5.371  13.967  28.039 -0.0415  0.2143  0.0111
26066W        W68983   7.710  14.736  28.087 -0.0464 -0.0837  0.3175
26067W        W68984   6.737  12.508  30.496 -0.1487  0.0747 -0.0899
26068W        W68985   5.515  13.922  30.822  0.0732  0.1413  0.1264
26069W        W68986   5.836  12.663  29.831  0.0470  0.0469  0.1023
26070W        W68987   6.121  14.925  29.918 -0.0190  0.0090 -0.1630
26071W        W68988   3.724  14.673  31.239  0.1297 -0.0316 -0.0564
26072W        W68989   5.525  12.905  30.899  0.1130 -0.2704 -0.1684
26073W        W68990   6.627  12.922  28.697 -0.1260  0.0162  0.3269
26074W        W68991   5.786  13.649  28.001  0.1198 -0.0352  0.3112
26075W        W68992   7.078  12.593  29.598  0.1691  0.1744 -0.0520
26076W        W68993   3.186  13.793  27.741  0.4785 -0.1803  0.0234
26077W        W68994   5.297  14.120  29.970 -0.1906 -0.1456 -0.1454
26078W        W68995   8.104  12.278   0.735  0.2005 -0.1614  0.1436
26079W        W68996   4.891  13.240  25.770 -0.3461  0.1429  0.0652
26080W        W68997   7.143  13.072  27.055 -0.1490 -0.0295 -0.3887
26081W        W68998   6.595  11.045  28.037 -0.2911 -0.1356  0.1617
26082W        W68999   8.952  11.738  29.126 -0.1387 -0.1291  0.1996
26083W        W69000   6.565  12.548  31.008 -0.1037 -0.0944 -0.0757
26084W        W69001   5.409  13.063  29.085  0.0039  0.0534  0.1057
26085W        W69002   4.797  12.379  29.038 -0.1082 -0.0005  0.1105
26086W        W69003   8.035  12.774  30.197  0.0154 -0.1943  0.3735
26087W        W69004   6.228  13.810  28.641  0.2069  0.0030 -0.1199
26088W        W69005   4.959  11.655  31.540 -0.2577 -0.0040 -0.0085
26089W        W69006   3.765  13.227  30.851 -0.1295 -0.0572 -0.0884
26090W        W69007   3.343  11.166  30.710  0.1896 -0.0384  0.0687
26091W        W69008   5.799  14.017  28.337  0.4420 -0.0063 -0.1995
26092W        W69009   7.965  13.215  30.550  0.0146 -0.3590  0.2605
26093W        W69010   7.224  14.111  27.014 -0.1198 -0.0165  0.0455
26094W        W69011   7.425  12.609  28.946 -0.1644 -0.1918  0.2385
26095W        W69012   4.363  14.408  29.552  0.0951  0.1498 -0.0726
26096W        W69013   5.291  14.478  29.543  0.2598  0.3576  0.0640
26097W        W69014   5.478  11.596  27.421  0.1683 -0.4168  0.2112
26098W        W69015   9.465  12.477  31.622 -0.0464  0.2050  0.1811
26099W        W69016   3.359  14.119  28.102  0.2149 -0.3341 -0.0320
26100W        W69017   7.679  13.137  29.984  0.0821 -0.1904  0.1433
26101W        W69018   5.508  12.091  29.101 -0.1142 -0.4324  0.1813
26102W        W69019   5.755  14.512  29.297 -0.0052  0.1459 -0.3516
26103W        W69020   6.122  12.693  27.593  0.2025  0.1738  0.1086
26104W        W69021   7.072  13.622  26.930 -0.0233  0.0172 -0.1574
26105W        W69022   7.287  10.406  29.677  0.0974  0.1559  0.1867
26106W        W69023   6.509  12.051  27.252 -0.1137  0.2632 -0.0835
26107W        W69024   4.711  15.595  28.122  0.3825  0.2601 -0.1622
26108W        W69025   7.220  14.573  31.095 -0.3160  0.0685  0.3649
26109W        W69026   8.111  11.505  26.774 -0.0534  0.1081  0.0468
26110W        W69027   5.891  15.132  28.115 -0.1182 -0.0755  0.1937
26111W        W69028   7.876  12.854  30.994  0.1486 -0.0656 -0.2655
26112W        W69029   6.843  16.101  31.014 -0.1803 -0.0315 -0.1328
26113W        W69030   3.102  15.372  27.256  0.0450 -0.1027  0.1128
26114W        W69031   4.402  13.076  30.657  0.0064  0.4623  0.0762
26115W        W69032   5.184  15.120  29.444 -0.0112  0.2329 -0.1495
26116W        W69033   3.397  12.514  29.673  0.1012 -0.1711 -0.1996
26117W        W69034   6.002  14.336  31.355  0.1205  0.0838  0.0033
26118W        W69035   7.040  11.249  28.308  0.1196 -0.0871  0.1226
26119W        W69036   4.596  13.384  29.065 -0.3189 -0.0636  0.0620
26120W        W69037   7.151  10.863  29.400  0.0960  0.1340  0.2872
26121W        W69038   5.776  12.163  28.092 -0.0185 -0.1587  0.0861
26122W        W69039   6.101  14.622  28.922  0.0101  0.1554  0.1666
26123W        W69040   7.693  13.021  28.335  0.1793 -0.0453 -0.1437
26124W        W69041   7.167  14.779  28.454  0.2397 -0.1534 -0.1324
26125W        W69042   3.880  13.807  30.265 -0.0011  0.1521 -0.0921
26126W        W69043   6.539  10.146  27.511 -0.0874 -0.0934 -0.0940
26127W        W69044   5.277  11.285  31.553  0.0883 -0.0928 -0.4261
26128W        W69045   3.877  10.693  28.971 -0.0868  0.0181 -0.0411
26129W        W69046   5.745  13.594  29.665 -0.1931  0.1328  0.0781
26130W        W69047   5.099  12.626  27.008 -0.0967 -0.0089  0.1172
26131W        W69048   6.981  11.332  31.189 -0.0179 -0.4266  0.2090
26132W        W69049   5.753  12.671  29.327  0.3184 -0.2597 -0.2349
26133W        W69050   5.437  12.532  28.223  0.0891 -0.0585  0.2652
26134W        W69051   9.347  10.839  31.499  0.0545 -0.3101 -0.0702
26135W        W69052   7.935  15.922  26.680  0.2618  0.0521 -0.0344
26136W        W69053   6.942  14.839  30.332 -0.1554 -0.3132 -0.2972
26137W        W69054   8.636  15.951  29.431 -0.0281 -0.1140 -0.3449
26138W        W69055   3.347  10.028  28.538 -0.2851 -0.0072 -0.3764
26139W        W69056   4.977  11.464  28.640 -0.2348 -0.2017 -0.1296
26140W        W69057   4.911  13.524  29.417 -0.0128 -0.2221  0.1510
26141W        W69058   6.650  14.173  29.720 -0.3818 -0.0656 -0.2769
26142W        W69059   4.622   8.618  28.498  0.0195  0.0718  0.0693
26143W        W69060   8.297  15.138  30.372  0.0522  0.1236  0.5529
26144W        W69061   6.020  14.904  27.046 -0.1123  0.1217 -0.0039
26145W        W69062   5.689  15.534  30.393 -0.1329  0.0434  0.0186
26146W        W69063   7.380  11.459  30.513 -0.1561 -0.2499 -0.2004
26147W        W69064   7.196  12.047  31.388  0.0198  0.2343 -0.0407
26148W        W69065   5.413  13.287  30.498  0.0511 -0.2155  0.2741
26149W        W69066   6.489  11.100  27.347  0.0435  0.1205  0.1266
26150W        W69067   6.224  13.962  27.992  0.0539 -0.0962  0.1719
26151W        W69068   5.064  13.817  28.396  0.1777  0.0986 -0.1935
26152W        W69069   6.970  13.212  28.178 -0.0267 -0.2889  0.1372
26153W        W69070   5.242  14.827  29.956  0.1500 -0.2043  0.1647
26154W        W69071   7.155  13.518  27.794  0.1073 -0.1211  0.3447
26155W        W69072   3.189  13.013  29.892 -0.0613 -0.1140  0.1631
26156W        W69073   6.423  11.997   0.176  0.5642  0.2739  0.1441
26157W        W69074   5.006  13.004  28.277  0.0504 -0.0962 -0.0340
26158W        W69075   4.867  13.658  29.896 -0.0589  0.0875 -0.1089
26159W        W69076   6.489  11.420  30.450  0.0774  0.3265 -0.0560
26160W        W69077   6.727   9.414  28.297  0.4384  0.1583  0.0240
26161W        W69078   5.846  12.224  30.549  0.1519 -0.3802 -0.0354
26162W        W69079   6.103  14.029  30.490 -0.2543 -0.1317  0.0731
26163W        W69080   6.680  11.219  26.354  0.0239  0.1917  0.1476
26164W        W69081   6.553  12.416  28.630 -0.0479  0.0532 -0.1773
26165W        W69082   5.767  12.472  31.068  0.2064 -0.0628  0.4132
26166W        W69083   7.122  14.377  30.570  0.1605  0.0555 -0.1187
26167W        W69084   5.736  11.979  30.980 -0.4716  0.1631 -0.0216
26168W        W69085   6.713  11.426  27.722 -0.0640 -0.0917  0.2840
26169W        W69086   7.243  14.771  28.960 -0.0140 -0.2559 -0.5786
26170W        W69087   4.706  14.747  29.816 -0.0185 -0.0257  0.2557
26171W        W69088   6.648  13.890  30.687  0.4346 -0.0008  0.2663
26172W        W69089   5.921  12.867   0.130  0.1742  0.0095  0.0504
26173W        W69090   7.203  11.661  28.664 -0.3374  0.2268  0.0511
26174W        W69091   7.884  12.104  28.398 -0.0475  0.3505  0.0242
26175W        W69092   5.255  11.454  29.993  0.1264  0.0804 -0.0106
26176W        W69093   4.054  14.022  29.302  0.0164 -0.1516 -0.0168
26177W        W69094   5.995  10.435  29.755  0.0462  0.2949  0.0652
26178W        W69095   7.552  12.223  29.729 -0.0144 -0.0994 -0.2422
26179W        W69096   4.973  13.048  29.377 -0.1788  0.0257  0.1170
26180W        W69097   5.960  10.675   0.568 -0.1924  0.1825  0.2641
26181W        W69098   7.184  12.945  28.628  0.0150  0.1339 -0.2671
26182W        W69099   7.685  12.364  30.201  0.0939 -0.2319 -0.1920
26183W        W69100   6.043  12.067  25.789  0.0618 -0.2116  0.5171
26184W        W69101   6.639  11.619  31.412 -0.2267 -0.1431  0.0748
26185W        W69102   4.533  12.007  29.182  0.1434 -0.2108  0.2194
26186W        W69103   5.729  14.494  29.898 -0.1774  0.1683  0.3584
26187W        W69104   6.364  12.992  31.146  0.3554 -0.1288  0.1199
26188W        W69105   7.776  12.886  27.384  0.0444 -0.1331  0.0142
26189W        W69106   5.313  12.241   0.608 -0.1843 -0.2349 -0.1061
26190W        W69107   6.125  11.440  28.666 -0.1665  0.0313  0.2414
26191W        W69108   4.128  14.621  27.715  0.0495  0.0289 -0.1740
26192W        W69109   5.191  15.566  28.386 -0.1619 -0.1351 -0.3135
26193W        W69110   5.932  12.158  30.013 -0.0866 -0.5300 -0.0029
26194W        W69111   3.678  14.447   0.197  0.0232  0.3162  0.0307
26195W        W69112   6.384  14.118  27.139  0.0428  0.0066 -0.0528
26196W        W69113   5.470  14.453  30.324 -0.1583 -0.2034  0.0987
26197W        W69114   3.614  14.374  28.514 -0.2624  0.1871  0.0201
26198W        W69115   7.693  11.691  29.687  0.2037 -0.2245 -0.1486
26199W        W69116   5.169  12.854  30.334 -0.0774  0.1679  0.1983
26200W        W69117   5.820  11.274  26.244  0.2173  0.0560  0.1299
26201W        W69118   4.648  13.949  28.622 -0.0713 -0.0320  0.3169
26202W        W69119   6.279   9.769  30.389 -0.0309  0.2251 -0.3028
26203W        W69120   6.462  13.041  29.630  0.0871 -0.1281 -0.1002
26204W        W69121   4.649  14.500  28.792 -0.0484  0.1895 -0.0738
26205W        W69122   5.446  11.225  28.746  0.1943 -0.1382  0.2204
26206W        W69123   4.085  15.416  31.108  0.0835  0.0134 -0.0328
26207W        W69124   5.506  13.159  31.929 -0.1945 -0.0508  0.1867
26208W        W69125   6.530  11.910  28.669 -0.0540  0.0463 -0.1608
26209W        W69126   8.102  11.566  30.717  0.1611  0.0721  0.1195
26210W        W69127   6.022  13.637   0.279  0.1244 -0.0571  0.1901
26211W        W69128   5.716  13.302  28.773  0.0227 -0.0998 -0.0324
26212W        W69129  10.196  11.125  29.063 -0.1167 -0.3336  0.0991
26213W        W69130   4.936  11.728  26.448 -0.0665  0.0564  0.1860
26214W        W69131   3.131  13.357  30.358 -0.0515 -0.1911 -0.1795
26215W        W69132   7.596  13.439  30.355  0.2790 -0.0483  0.1720
26216W        W69133   6.257  12.331  28.127 -0.0044  0.0158  0.1204
26217W        W69134   6.212  13.238  28.833 -0.0325  0.2578 -0.1533
26218W        W69135   5.277  11.627  29.013  0.0432 -0.2423  0.0257
26219W        W69136   4.258  14.204  30.559 -0.2973 -0.0607 -0.3317
26220W        W69137   4.574  12.091  30.024 -0.0344 -0.3431 -0.0532
26221W        W69138   5.911  11.735  27.736 -0.3910 -0.1867 -0.1795
26222W        W69139   8.450  13.604  30.503 -0.1836 -0.2809  0.0053
26223W        W69140   5.976  12.376  29.028  0.1629 -0.2101  0.2096
26224W        W69141   4.496  12.913  31.173  0.2052  0.0011  0.1462
26225W        W69142   3.219  13.462   0.638  0.0759 -0.0870  0.3077
26226W        W69143   6.428  11.569  29.104  0.1000  0.3277  0.2531
26227W        W69144   8.280  13.426  28.524 -0.0769  0.0312  0.3009
26228W        W69145   6.245  13.996  31.071 -0.0000 -0.0091 -0.0379
26229W        W69146   5.915  13.669  27.074  0.0818 -0.0273 -0.0682
26230W        W69147   4.212  14.922  29.570  0.0673  0.0933  0.0821
26231W        W69148   4.787  13.411  28.460 -0.0703  0.1107 -0.1981
26232W        W69149   5.260  11.234  30.539 -0.0865 -0.0663 -0.2474
26233W        W69150   7.607  13.041  28.857 -0.0609 -0.0477  0.2646
26234W        W69151   5.799  15.013  29.561  0.0866 -0.0893  0.0590
26235W        W69152   4.976  13.768  31.147 -0.0945  0.1600  0.5356
26236W        W69153   5.285   9.845  28.839  0.1162 -0.2481 -0.1822
26237W        W69154   5.677  11.830  26.038 -0.0884  0.1290 -0.3386
26238W        W69155   8.029  12.034  29.458  0.0991 -0.0909 -0.2471
26239W        W69156  10.531   9.633  30.483 -0.3304  0.0219  0.2335
26240W        W69157   8.240  13.634  29.475 -0.0937  0.0104 -0.1684
26241W        W69158   5.636  12.001   0.946  0.1734  0.1302  0.0426
26242W        W69159   4.479  13.051  30.172 -0.1851 -0.1032 -0.2295
26243W        W69160   6.301  13.863  29.397 -0.0246  0.0015 -0.0906
26244W        W69161   6.925  10.745  29.828  0.1449  0.2426  0.0196
26245W        W69162   7.128  12.970  30.307 -0.0976 -0.3226  0.1711
26246W        W69163   5.281  12.570  29.075  0.0922  0.3600  0.2888
26247W        W69164   6.679  11.303  26.872 -0.0755 -0.1357 -0.1606
26248W        W69165   4.157   9.317  27.141  0.1166 -0.2119 -0.2394
26249W        W69166   5.318  11.851  30.657  0.0832 -0.0233  0.0323
26250W        W69167   5.434  12.341  30.146  0.1102 -0.1056  0.0290
26251W        W69168   5.158  14.343  27.713  0.3403  0.2378  0.1013
26252W        W69169   6.954  13.058  29.658 -0.2322  0.0706  0.0233
26253W        W69170   7.068  12.425  28.575  0.0647  0.0051 -0.0287
26254W        W69171   9.900  13.082  27.387  0.0838  0.1477 -0.0054
26255W        W69172   7.868  12.406  28.734  0.1805 -0.0388 -0.1455
26256W        W69173   5.771  12.717  30.418 -0.2004 -0.3007  0.1690
26257W        W69174   6.097  11.687  31.226 -0.0195 -0.0311  0.0392
26258W        W69175   6.057  15.129  29.028 -0.1387  0.0415  0.0145
26259W        W69176   7.244  13.072  29.271 -0.1850 -0.1452  0.1112
26260W        W69177   5.515  11.535  31.927 -0.0286 -0.0020  0.1693
26261W        W69178   7.590  12.831  30.446 -0.1304  0.3201  0.2900
26262W        W69179   4.700  15.558  30.129 -0.1675 -0.2291 -0.1015
26263W        W69180   5.933  13.349   0.838  0.2351 -0.1451 -0.1496
26264W        W69181   6.672  13.871  30.139 -0.0884 -0.0048  0.2855
26265W        W69182   8.447  13.228  25.613 -0.0096  0.0932 -0.2999
26266W        W69183   9.097  12.490  30.239  0.2552 -0.0205 -0.1950
26267W        W69184   5.073  14.714  28.518  0.0868  0.0244  0.1868
26268W        W69185   5.558  14.982  29.121 -0.0049  0.0769 -0.1663
26269W        W69186   3.945  11.125  29.405 -0.2300 -0.1136 -0.1186
26270W        W69187   8.842  11.776  29.946  0.0135 -0.0398 -0.2158
26271W        W69188   5.159  12.987  27.668  0.1844  0.0074 -0.2368
26272W        W69189   8.363  12.223  28.577 -0.0289  0.4723 -0.2058
26273W        W69190   5.571  13.562  26.056 -0.1999  0.4299  0.0246
26274W        W69191   6.572  14.306  30.314  0.2429 -0.3825 -0.0371
26275W        W69192   5.594  11.825  29.932  0.0321  0.2415 -0.0189
26276W        W69193   7.166  11.207  28.941  0.0351  0.3461  0.1103
26277W        W69194   3.897  15.619  29.166  0.0390 -0.0915 -0.2654
26278W        W69195   3.940  13.101  27.499  0.0436  0.0341  0.0191
26279W        W69196   7.237  14.310  28.164  0.0710 -0.1475 -0.0612
26280W        W69197   7.064  14.146  31.386  0.2824 -0.0377  0.1778
26281W        W69198   7.013  11.521   0.188  0.4441  0.3045  0.1635
26282W        W69199   6.861  11.559  27.272 -0.0394 -0.0433  0.0642
26283W        W69200   6.914  11.578  30.734  0.1431  0.0350  0.0265
26284W        W69201   4.297  14.200  28.830  0.0206  0.0079 -0.3242
26285W        W69202   8.344  11.135  27.918  0.2285 -0.1915 -0.0266
26286W        W69203   2.885  15.492  28.555 -0.0692 -0.1613  0.0757
26287W        W69204   4.966  13.999  29.501  0.2059 -0.1629  0.1665
26288W        W69205   4.695  14.973  29.360 -0.0604  0.3324 -0.3123
26289W        W69206   5.664  11.301  29.794  0.1672 -0.0474 -0.0111
26290W        W69207   8.795  10.867  28.288  0.0462 -0.3168  0.4512
26291W        W69208   7.498  13.098  30.837  0.1759  0.1850 -0.3629
26292W        W69209   9.189  11.109  30.475 -0.3719  0.4340  0.3472
26293W        W69210   8.438  13.048  30.459  0.1105 -0.3650 -0.1472
26294W        W69211   5.906  12.096  31.484  0.0113  0.0208  0.1514
26295W        W69212   6.535  11.491   0.163  0.0748  0.0924  0.1508
26296W        W69213   6.929  10.713  28.245 -0.0643 -0.1273 -0.1213
26297W        W69214   5.654  12.507  27.728 -0.2463  0.0145 -0.0739
26298W        W69215   8.035  12.357  31.218  0.1251  0.0631  0.1892
26299W        W69216   7.091  12.492   1.155  0.1684 -0.3572  0.0583
26300W        W69217   5.570  15.449  29.731 -0.0064  0.1532 -0.2443
26301W        W69218   4.721  10.365  27.341 -0.1375  0.3151 -0.0443
26302W        W69219   6.215  15.847  27.364 -0.0365  0.0932  0.0584
26303W        W69220   5.621  14.451  31.737 -0.0207 -0.2978 -0.2258
26304W        W69221   4.404  16.039  28.939  0.1556  0.0450 -0.1301
26305W        W69222   3.847  14.425  28.959 -0.0061 -0.0511  0.0544
26306W        W69223   5.521  13.812  28.770 -0.1123  0.0560  0.1453
26307W        W69224   6.634  13.538  29.701 -0.0908  0.0251 -0.2296
26308W        W69225   6.554  15.606  31.183 -0.2392 -0.0716 -0.2400
26309W        W69226   6.217  12.811  29.104 -0.1908  0.2074 -0.3841
26310W        W69227   4.789  11.527  29.097  0.6785 -0.0730 -0.1340
26311W        W69228   4.794  13.792  27.972 -0.0177 -0.2630 -0.1937
26312W        W69229   6.548  14.945  29.006 -0.1066  0.2024 -0.2309
26313W        W69230   3.304  15.306  30.208 -0.0220  0.1047  0.0732
26314W        W69231   8.480  12.051  31.247  0.1469 -0.0307  0.0032
26315W        W69232   8.584  12.619  27.686  0.0455 -0.2092  0.0259
26316W        W69233   7.812  13.242  29.403 -0.0459  0.0259 -0.0744
26317W        W69234   6.989  10.233  28.046 -0.0985  0.1987 -0.1583
26318W        W69235   7.572  12.212  31.074 -0.0728  0.0003  0.2270
26319W        W69236   5.775  11.925   0.025 -0.0154  0.4124 -0.0932
26320W        W69237   7.325  12.530  27.043  0.1423  0.1779  0.0003
26321W        W69238   7.766  14.043  28.887  0.2225 -0.2096 -0.0808
26322W        W69239  10.236  10.516  30.300  0.2093 -0.0376 -0.1214
26323W        W69240   3.893  15.205  30.040  0.1122 -0.0754 -0.0425
26324W        W69241   6.637  16.256  27.897 -0.2444 -0.0366 -0.3511
26325W        W69242   6.121  12.243  28.590  0.1675 -0.2020  0.2507
26326W        W69243   4.678  12.335  29.549  0.0908  0.0154 -0.1103
26327W        W69244   7.016  11.329  29.567 -0.1773  0.1668  0.2728
26328W        W69245   5.580  14.733  27.280 -0.0254  0.3383  0.2657
26329W        W69246   8.243  12.237  29.039 -0.0558  0.1363  0.3195
26330W        W69247   5.258  15.225  30.417 -0.1263  0.2258  0.0324
26331W        W69248   5.038  12.257   0.134  0.0350 -0.0753  0.2610
26332W        W69249   6.204  12.887  30.166 -0.1981 -0.0590 -0.1848
26333W        W69250   6.298  11.651  27.416  0.1101  0.1057  0.1041
26334W        W69251   5.898  12.129  29.456  0.0240  0.3431 -0.1028
26335W        W69252   5.287  10.848  31.903 -0.0265 -0.1623 -0.0775
26336W        W69253   7.776  11.914  30.563  0.0308 -0.0810 -0.1117
26337W        W69254   6.900  13.026  30.916  0.1144  0.1378  0.2082
26338W        W69255   8.320  12.008  26.061  0.0844  0.0733 -0.2323
26339W        W69256   5.562  13.040  30.102  0.0809 -0.1831  0.0813
26340W        W69257   4.251  12.071  29.657 -0.2172  0.1341  0.2451
26341W        W69258   5.727  11.893  28.638  0.0167 -0.0528 -0.3419
26342W        W69259   9.263  12.967  31.662  0.1029  0.0963  0.2438
26343W        W69260   7.040  10.035  27.571  0.0361  0.2880  0.3106
26344W        W69261   7.291  12.893   1.518 -0.1445 -0.1271 -0.2943
26345W        W69262   4.645  11.553  28.072 -0.1019  0.2467  0.1291
26346W        W69263   7.720  11.618  27.090 -0.0025  0.3675 -0.1361
26347W        W69264   4.214  13.657  28.910  0.0433 -0.1027  0.2170
26348W        W69265   6.647  10.652  30.313  0.1583 -0.1391  0.1208
26349W        W69266   5.383  12.666   1.590 -0.2975 -0.0599  0.0384
26350W        W69267   4.814  11.101  30.235  0.1962  0.0272  0.0892
26351W        W69268   5.806  14.058  29.478  0.0658 -0.0559 -0.2346
26352W        W69269   6.697  11.943  30.502 -0.0804 -0.0920  0.0433
26353W        W69270   4.308  15.832  28.420  0.0948  0.0506  0.4643
26354W        W69271   7.003  14.252  28.650 -0.2039 -0.0329  0.0447
26355W        W69272   6.359  14.887  27.933  0.1890  0.3027  0.3484
26356W        W69273   4.332  12.279  28.738  0.0913 -0.5567  0.2946
26357W        W69274   5.979  13.194  30.580  0.1160  0.2498 -0.0099
26358W        W69275   7.237  12.633  30.721 -0.1341 -0.0878  0.0757
26359W        W69276   5.185  11.098  28.247 -0.4292  0.0200 -0.1578
26360W        W69277   4.309  13.232  28.677 -0.1477  0.2597 -0.0790
26361W        W69278   5.265  13.472  27.970  0.0876  0.3500  0.1054
26362W        W69279   7.525   9.998  29.845  0.0007 -0.0077 -0.2005
26363W        W69280  10.113  11.234  29.605  0.2575  0.0260 -0.1379
26364W        W69281   6.544  15.513  27.632  0.2075 -0.2742  0.2890
26365W        W69282   7.441  11.907  30.124 -0.1229  0.2016 -0.5340
26366W        W69283   7.676  12.681  31.420  0.0168 -0.0194  0.1874
26367W        W69284   4.017  13.859  31.180 -0.1757  0.0687  0.1603
26368W        W69285   5.589  12.397  28.679 -0.1225  0.0414 -0.1880
26369W        W69286   4.568  12.763  28.956 -0.2305 -0.2740 -0.1656
26370W        W69287   4.676  15.010  28.816 -0.2909 -0.0834 -0.0679
26371W        W69288   4.207  15.582  28.008  0.2335 -0.1398 -0.2247
26372W        W69289   6.555  14.614  29.935 -0.0071  0.1709  0.3493
26373W        W69290   7.488  12.806  29.585 -0.3407  0.0398 -0.2914
26374W        W69291   7.920  13.939  31.043  0.1918 -0.3910  0.2253
26375W        W69292   7.108  13.410  30.032 -0.2775 -0.1095  0.0688
26376W        W69293   7.481  11.531  28.242  0.1918 -0.6048  0.0771
26377W        W69294   5.903   9.728  28.593 -0.2987 -0.0194 -0.0263
26378W        W69295   6.176  13.348  29.989  0.0804  0.0913  0.0138
26379W        W69296   4.500  13.530  27.527  0.0468  0.1184 -0.0971
26380W        W69297   6.694  12.097  28.233  0.0984  0.0047  0.0002
26381W        W69298   4.834  13.311  30.435 -0.1212 -0.2408 -0.1162
26382W        W69299   6.004  11.223  31.601  0.2742 -0.2093  0.0388
26383W        W69300   4.465  13.404  29.578 -0.2209  0.0858 -0.1745
26384W        W69301   3.934  13.266  30.222 -0.0759  0.1082 -0.0877
26385W        W69302   3.380  11.541  27.356 -0.1958  0.0288 -0.2743
26386W        W69303   8.393  16.394  27.579  0.1867  0.1387 -0.1114
26387W        W69304   3.737  10.770  30.151 -0.1495  0.1149  0.2583
26388W        W69305   3.471  10.397  29.261  0.2433  0.0344 -0.0188
26389W        W69306   6.540  15.447  30.602  0.3246 -0.3295 -0.0684
26390W        W69307   7.525  14.898  29.769 -0.1658 -0.0308 -0.0426
26391W        W69308   4.428  10.523  28.432  0.2684  0.0477 -0.0658
26392W        W69309   8.680  13.050  31.317 -0.3568 -0.0571 -0.0013
26393W        W69310   4.071  14.459  28.460 -0.1269  0.5048  0.1597
26394W        W69311   6.667  12.997   0.622  0.1116  0.3270 -0.0932
26395W        W69312   6.140  11.864  30.598  0.0481  0.0822  0.4411
26396W        W69313   3.812  11.687  27.604  0.0684 -0.0255 -0.2111
26397W        W69314   6.794  12.013  31.107  0.4914 -0.0374 -0.0539
26398W        W69315   6.983  16.640  27.049 -0.0555  0.0014 -0.1107
26399W        W69316   5.949  14.834  27.619  0.0301 -0.2195 -0.1085
26400W        W69317   8.006  14.223   0.592 -0.1024  0.0431 -0.0550
26401W        W69318   4.843  12.318  31.540  0.1688  0.0727  0.1227
26402W        W69319   4.972  12.139  30.347  0.0785  0.0059 -0.2058
26403W        W69320   6.172  14.407  27.701 -0.2243  0.1967  0.3379
26404W        W69321   6.001  13.013  31.582 -0.1332  0.0251  0.0626
26405W        W69322   6.739  14.906  25.808  0.0755  0.3010 -0.0564
26406W        W69323   7.490  10.872  29.776  0.0535  0.0347 -0.0325
26407W        W69324   6.390  11.961  27.816 -0.3208 -0.0088  0.2535
26408W        W69325   6.219  11.230  29.493  0.0571 -0.2165 -0.1228
26409W        W69326   4.761  16.527  31.140  0.0197  0.0942 -0.3594
26410W        W69327   9.680  13.170  27.914 -0.2284 -0.0131 -0.0258
26411W        W69328   6.267  11.105  28.999 -0.0599  0.0355 -0.1827
26412W        W69329   5.309  12.781  29.701  0.2319 -0.0757  0.1070
26413W        W69330   4.951  14.756  28.000 -0.0010  0.0231  0.1585
26414W        W69331   6.930  11.702  29.251  0.0905  0.0594  0.0898
26415W        W69332   6.747  12.600  28.125  0.0282 -0.1526  0.0473
26416W        W69333   3.763  14.166  30.773  0.0237  0.0549  0.2293
26417W        W69334   6.096  14.494  30.240 -0.0522 -0.0680  0.1646
26418W        W69335   8.489  11.786  28.760  0.1059  0.1867 -0.1190
26419W        W69336   5.031  13.262  28.892  0.3441  0.1576  0.2997
26420W        W69337   6.217  15.696  28.674 -0.0885 -0.1391  0.0456
26421W        W69338   6.925  15.766  28.004  0.2537  0.0801 -0.1275
26422W        W69339   9.161  14.098   0.962 -0.0197  0.1417 -0.0217
26423W        W69340   5.208  14.821  30.656 -0.1767 -0.0755  0.2813
26424W        W69341   7.327  11.718  31.016  0.4907  0.0226 -0.1700
26425W        W69342   4.271  10.756  29.335  0.0264 -0.0255 -0.0036
26426W        W69343   4.893  14.598  30.335  0.1563 -0.1702  0.1234
26427W        W69344   5.404  14.120  29.158  0.1887  0.2429 -0.1376
26428W        W69345   8.014  12.227  27.903 -0.2022  0.0616 -0.0541
26429W        W69346   4.428   9.940  28.972 -0.2127 -0.1589 -0.1196
26430W        W69347   6.340   9.468  27.564 -0.0761  0.2473  0.3022
26431W        W69348   6.240  13.832  31.654  0.0779  0.1950  0.1276
26432W        W69349   8.170  12.060  31.655 -0.1533  0.2188  0.4461
26433W        W69350   7.339   9.918  28.375  0.2423 -0.1462  0.2258
26434W        W69351   6.923  11.994   0.332 -0.0174  0.0782  0.1803
26435W        W69352   7.007  11.201  31.694 -0.4038 -0.1876  0.2386
26436W        W69353   4.331  14.351   0.655 -0.0103  0.1313 -0.1982
26437W        W69354   4.580  15.280   1.750 -0.3282 -0.1273  0.0405
26438W        W69355   4.675  16.983   0.251  0.2182 -0.0490  0.0375
26439W        W69356   9.479  11.714  28.981 -0.2434  0.0902 -0.0808
26440W        W69357   6.388  10.990   0.554  0.2924 -0.3443 -0.0520
26441W        W69358   6.704   9.639   0.143 -0.2492  0.2339 -0.1633
26442W        W69359   9.076  13.142  29.641  0.1199  0.2487  0.0571
26443W        W69360   9.317  13.107   0.168  0.1637 -0.1025 -0.3485
26444W        W69361   4.052  11.480  31.331 -0.2115 -0.0398  0.1796
26445W        W69362   7.138  12.808   0.777  0.0340 -0.0224  0.3999
26446W        W69363   5.508  13.614   0.066 -0.0316  0.2787 -0.2263
26447W        W69364   6.692  12.699  29.921  0.1488  0.1479  0.0740
26448W        W69365   4.147  14.925   0.171 -0.0054  0.2268  0.2803
26449W        W69366   3.502  13.763  30.944 -0.4471 -0.0713  0.2494
26450W        W69367   7.409  12.205   0.267 -0.3328 -0.3793  0.0435
26451W        W69368   3.818   9.840   0.099  0.1661  0.0441  0.0049
26452W        W69369   5.080  11.267   0.887 -0.1907 -0.2929  0.1096
26453W        W69370   4.490   9.718  31.205  0.0784 -0.2022 -0.0366
26454W        W69371   3.787  14.362   2.363 -0.3953 -0.2157  0.1009
26455W        W69372   7.510  10.988  30.324  0.4385  0.1777  0.0544
26456W        W69373   6.000  12.109   0.474 -0.2506 -0.1029 -0.1819
26457W        W69374   8.022   9.496  31.564 -0.0494  0.0716  0.1196
26458W        W69375   4.937  11.631  30.381  0.2410 -0.3921  0.0927
26459W        W69376   4.735  10.708  31.228  0.2951  0.0038  0.1033
26460W        W69377   4.551  14.258   2.046  0.0085 -0.0226 -0.0934
26461W        W69378   6.807  13.186  31.397 -0.0603  0.0205  0.0873
26462W        W69379   3.438  12.961  30.570 -0.0243  0.2599 -0.2660
26463W        W69380   5.833  15.644  31.247 -0.0178 -0.1337  0.3069
26464W        W69381   6.186  15.267  31.260  0.3187  0.0786 -0.0589
26465W        W69382   9.261  12.640  31.229  0.3015 -0.5060 -0.2435
26466W        W69383   6.502  11.130  31.601 -0.2391 -0.0336  0.2946
26467W        W69384   4.935  12.511  29.999  0.1117  0.1035  0.0217
26468W        W69385   3.687  11.968  30.859 -0.0298 -0.1751  0.0828
26469W        W69386   5.230  13.668  30.265  0.1961 -0.3254 -0.3521
26470W        W69387   5.208  12.798   0.290  0.1041  0.2702  0.0063
26471W        W69388   7.585  12.729   1.005 -0.0324 -0.1854  0.1211
26472W        W69389   4.548  14.502  31.621  0.0267  0.1351  0.0205
26473W        W69390   6.101  10.399   0.102  0.0055 -0.1747 -0.0605
26474W        W69391   8.707  11.833  31.688  0.1410  0.0395 -0.0004
26475W        W69392   4.240  11.773   0.672  0.0358  0.2922  0.0020
26476W        W69393   4.976  13.825   0.379 -0.1869 -0.1190 -0.0150
26477W        W69394   5.331  12.617  31.782  0.1968 -0.2865  0.3590
26478W        W69395   5.902  11.209   0.583 -0.0865  0.0127  0.3922
26479W        W69396   7.403  11.338  29.939  0.0025 -0.1816  0.1696
26480W        W69397   4.592  12.296   0.373  0.2843 -0.0713  0.1207
26481W        W69398   6.957  12.600   0.312  0.1477  0.0439 -0.0653
26482W        W69399   4.244  11.965  30.975  0.1320 -0.2991  0.2116
26483W        W69400   8.380  13.330  30.943 -0.0181  0.0634  0.0143
26484W        W69401   8.058  11.188  31.698  0.0409  0.2004 -0.1259
26485W        W69402   4.179  13.352  31.135  0.2844  0.2286  0.1770
26486W        W69403   4.906  13.338  31.414  0.2200  0.0264  0.0537
26487W        W69404   6.064   9.631   0.700  0.2070  0.4198  0.0364
26488W        W69405   6.460  12.963  30.529  0.0820  0.1552 -0.1403
26489W        W69406   7.122  12.338  31.828  0.0988 -0.2401 -0.0187
26490W        W69407   7.241  13.384  31.706 -0.1094 -0.1042  0.1859
26491W        W69408   4.500  14.751  30.692 -0.1090  0.1515 -0.0395
26492W        W69409   5.638  11.503  30.769  0.2988  0.3491 -0.2317
26493W        W69410   4.690  11.014   1.659  0.0995  0.0009 -0.0616
26494W        W69411   3.400  15.557  29.788 -0.1269  0.2546 -0.0990
26495W        W69412   4.855  11.751  30.909 -0.0034 -0.0616 -0.0758
26496W        W69413   4.747  12.633  30.538 -0.0929 -0.0090 -0.1638
26497W        W69414   5.084  14.211  31.468 -0.0289  0.4045 -0.0286
26498W        W69415   8.296  12.557   0.278 -0.3556 -0.3652  0.0963
26499W        W69416   8.952  13.087   1.297  0.3471 -0.5017 -0.0088
26500W        W69417   6.111  17.529  20.055  0.3037 -0.0546  0.0327
26501W        W69418   3.729  16.062  20.023  0.1622 -0.1646  0.2297
26502W        W69419   4.799  14.501  16.977  0.1617 -0.0587 -0.0448
26503W        W69420   5.653  16.109  17.152 -0.1048  0.0067  0.3394
26504W        W69421   3.673  15.309  18.000  0.1161  0.0966 -0.1509
26505W        W69422   6.942  17.467  18.107  0.2445 -0.1233 -0.2806
26506W        W69423   3.701  15.049  17.534 -0.0110  0.3566 -0.0179
26507W        W69424   6.601  17.479  20.870 -0.3758 -0.1638 -0.0661
26508W        W69425   5.781  17.444  18.669  0.0825 -0.1149 -0.3116
26509W        W69426   4.135  13.469  18.578  0.1787 -0.0328  0.2464
26510W        W69427   5.648  14.134  19.137  0.1453  0.1031  0.3816
26511W        W69428   7.027  16.828  20.200 -0.2354  0.0572 -0.1983
26512W        W69429   5.860  13.189  16.833 -0.1525 -0.0543  0.1872
26513W        W69430   2.450  15.139  18.337  0.0462  0.2717 -0.2405
26514W        W69431   5.310  17.136  17.844 -0.1785  0.2189  0.2067
26515W        W69432   4.105  16.475  18.631  0.1567 -0.3081  0.0337
26516W        W69433   4.432  15.872  20.318 -0.4270  0.0531 -0.1069
26517W        W69434   4.286  16.063  16.844  0.4855  0.0317  0.1327
26518W        W69435   5.735  17.681  17.260 -0.0037  0.1311  0.1818
26519W        W69436   5.065  16.655  23.185  0.0335 -0.3790 -0.1534
26520W        W69437   5.531  13.079  20.111 -0.0278  0.0156  0.2687
26521W        W69438   4.921  17.581  18.499  0.1633 -0.3758 -0.0818
26522W        W69439   4.208  15.738  17.308  0.2895 -0.3572 -0.0757
26523W        W69440   3.089  15.295  17.329  0.0977 -0.0672  0.2033
26524W        W69441   2.634  16.166  18.950 -0.4420  0.0909 -0.1416
26525W        W69442   7.253  14.128  18.190 -0.2129 -0.4861  0.1363
26526W        W69443   4.539  17.254  18.679  0.0327 -0.0703  0.3466
26527W        W69444   6.629  18.557  17.597  0.2588 -0.2417  0.0115
26528W        W69445   5.472  19.468  17.956 -0.0595 -0.3128 -0.1350
26529W        W69446   6.268  16.056  21.425 -0.2006 -0.0851  0.1999
26530W        W69447   4.454  16.177  18.030 -0.2226  0.2370 -0.3510
26531W        W69448   3.286  17.780  20.370 -0.1650 -0.2810  0.0563
26532W        W69449   5.335  17.970  17.430  0.1405  0.0263 -0.2328
26533W        W69450   6.783  16.198  16.611  0.0472  0.0343  0.0715
26534W        W69451   7.711  18.704  19.719  0.0950 -0.2168 -0.3727
26535W        W69452   5.211  19.039  20.632  0.1281 -0.0123  0.3514
26536W        W69453   4.614  18.140  17.068  0.0269  0.0407 -0.0514
26537W        W69454   5.144  19.862  19.884  0.0960 -0.0987 -0.4538
26538W        W69455   4.862  17.886  20.391 -0.0985 -0.0159  0.0412
26539W        W69456   4.855  16.942  19.570 -0.0114 -0.0390  0.1447
26540W        W69457   4.804  17.321  17.101  0.0552  0.1647  0.1530
26541W        W69458   5.424  16.761  15.940  0.0849  0.0486  0.1412
26542W        W69459   5.205  17.268  18.972 -0.3735  0.0063  0.0961
26543W        W69460   2.385  15.581  21.529  0.3476  0.3400 -0.0227
26544W        W69461   4.382  16.727  19.818  0.0766 -0.1014 -0.3154
26545W        W69462   5.874  15.311  19.065 -0.1585  0.4709  0.1545
26546W        W69463   4.690  18.197  18.945  0.1410 -0.0348  0.3705
26547W        W69464   5.967  14.915  16.322 -0.1691  0.1934 -0.1528
26548W        W69465   5.889  15.162  17.342  0.0843  0.1061  0.0518
26549W        W69466   5.912  15.747  16.634 -0.1069  0.3480 -0.0562
26550W        W69467   5.026  15.136  17.776 -0.1864 -0.1574 -0.1860
26551W        W69468   4.044  18.573  18.141  0.1768 -0.5067  0.0611
26552W        W69469   4.988  14.155  18.995 -0.1766 -0.0270 -0.1803
26553W        W69470   6.581  17.156  17.724 -0.3513  0.3492  0.1870
26554W        W69471   3.688  13.481  20.385 -0.1445  0.0418 -0.2446
26555W        W69472   4.830  15.555  20.313  0.0068  0.1574 -0.1520
26556W        W69473   5.560  20.124  20.148  0.0608  0.0795 -0.0237
26557W        W69474   2.849  16.755  17.259 -0.1759  0.4038 -0.0839
26558W        W69475   5.142  17.768  15.854  0.1493  0.0668 -0.2605
26559W        W69476   7.485  20.010  18.620 -0.1040  0.1161 -0.3062
26560W        W69477   5.681  17.556  16.257  0.0018  0.1768 -0.3622
26561W        W69478   3.861  18.510  18.635 -0.0965 -0.2018  0.0296
26562W        W69479   4.495  18.338  21.136 -0.0590 -0.2976 -0.1753
26563W        W69480   5.776  17.053  20.489 -0.1309 -0.0306 -0.0495
26564W        W69481   2.577  15.264  17.256 -0.1342 -0.1649  0.0577
26565W        W69482   5.462  15.440  18.791 -0.2604 -0.0473  0.3788
26566W        W69483   6.039  18.375  19.230 -0.2107  0.0142  0.1216
26567W        W69484   5.067  17.569  18.004 -0.0887  0.0292 -0.2691
26568W        W69485   4.496  19.103  18.361 -0.2109  0.0991  0.1727
26569W        W69486   6.715  16.610  18.039 -0.0172 -0.0535 -0.1745
26570W        W69487   5.743  16.462  16.826 -0.1618 -0.1108  0.0749
26571W        W69488   7.046  15.416  18.603  0.3693 -0.1782 -0.2109
26572W        W69489   4.692  15.749  18.723  0.0274 -0.2041  0.0088
26573W        W69490   3.794  15.839  16.030 -0.0712  0.2083 -0.2434
26574W        W69491   3.938  15.984  16.473  0.2235  0.0634 -0.1415
26575W        W69492   7.102  18.226  18.518 -0.0450  0.2132  0.1042
26576W        W69493   5.557  16.064  16.544 -0.1404  0.2415 -0.0345
26577W        W69494   3.451  16.641  20.565 -0.0365 -0.3160 -0.0349
26578W        W69495   5.377  14.883  18.745 -0.0235 -0.3052  0.1075
26579W        W69496   6.596  17.082  18.814  0.0374  0.0628 -0.0192
26580W        W69497   2.707  17.535  19.058  0.0074  0.0168 -0.1059
26581W        W69498   4.345  18.873  18.780 -0.1008  0.2421 -0.2697
26582W        W69499   5.186  17.994  18.304  0.1050 -0.0400  0.2402
26583W        W69500   3.830  13.229  19.311  0.0037 -0.3169  0.0103
26584W        W69501   3.710  16.153  19.018  0.0406 -0.2511  0.1514
26585W        W69502   6.159  17.248  17.951 -0.0245 -0.0129 -0.0302
26586W        W69503   2.408  13.892  20.243  0.1116  0.0261 -0.0845
26587W        W69504   5.784  17.140  18.309 -0.1819 -0.0741 -0.0378
26588W        W69505   3.319  15.211  18.334 -0.2220 -0.2233  0.2688
26589W        W69506   7.851  20.224  18.399 -0.1032 -0.2359  0.0251
26590W        W69507   6.744  14.822  17.406 -0.0076 -0.2375  0.0285
26591W        W69508   5.339  16.081  17.593 -0.0623 -0.3730 -0.0257
26592W        W69509   6.000  15.826  20.995  0.0390  0.0263  0.1649
26593W        W69510   3.280  14.786  18.526 -0.0471 -0.2222 -0.1992
26594W        W69511   4.715  14.368  20.968  0.1211  0.0170 -0.2988
26595W        W69512   4.099  14.284  19.452  0.0798 -0.0293 -0.1865
26596W        W69513   5.485  15.988  18.473 -0.3204  0.0405 -0.1995
26597W        W69514   3.529  14.563  16.443 -0.4472  0.0387 -0.0857
26598W        W69515   5.008  15.194  18.764 -0.2276  0.2010 -0.3309
26599W        W69516   5.933  15.797  19.339 -0.2648 -0.1540 -0.0369
26600W        W69517   4.101  16.538  18.136 -0.0260  0.0877  0.5536
26601W        W69518   6.253  14.871  18.622  0.0004 -0.3391  0.1616
26602W        W69519   5.955  18.458  19.734 -0.2808  0.0215  0.3134
26603W        W69520   7.411  17.898  19.626  0.1322 -0.2482 -0.3166
26604W        W69521   7.418  18.968  17.636  0.1523  0.2588 -0.2403
26605W        W69522   3.342  15.224  20.554 -0.1190  0.0640 -0.1040
26606W        W69523   2.352  14.684  16.956 -0.2930  0.0522  0.2811
26607W        W69524   4.726  17.299  17.662  0.3352  0.0177  0.0832
26608W        W69525   3.119  16.544  18.188  0.1936 -0.1647 -0.2326
26609W        W69526   3.797  15.537  17.563  0.1455 -0.1966  0.1599
26610W        W69527   5.883  22.175  18.861  0.1869  0.0902 -0.0793
26611W        W69528   5.251  17.794  19.296  0.4897  0.2454  0.1796
26612W        W69529   3.196  18.416  19.968  0.0470 -0.0519 -0.1427
26613W        W69530   4.211  15.340  18.721 -0.1505  0.0107 -0.0590
26614W        W69531   5.366  16.429  18.454 -0.2675 -0.3051 -0.0010
26615W        W69532   5.629  16.107  21.214  0.0123  0.0544  0.0678
26616W        W69533   2.868  15.404  18.180 -0.0050 -0.0248  0.0287
26617W        W69534   7.324  18.444  16.437  0.5893 -0.0079 -0.0693
26618W        W69535   3.940  17.873  16.269  0.1334  0.1205  0.0756
26619W        W69536   4.907  16.834  17.795  0.0685 -0.0966  0.1158
26620W        W69537   6.050  16.334  19.060  0.0833 -0.0250  0.3041
26621W        W69538   4.626  14.397  18.633 -0.2319 -0.1672  0.0566
26622W        W69539   3.289  17.095  19.219 -0.0470 -0.2656  0.2924
26623W        W69540   5.104  15.611  19.802  0.3853  0.4028  0.0374
26624W        W69541   4.353  15.707  17.763  0.2799  0.1472 -0.0844
26625W        W69542   3.769  17.139  19.405  0.1267 -0.0214 -0.1413
26626W        W69543   5.186  15.874  17.127  0.1664 -0.0633  0.1687
26627W        W69544   4.509  14.817  17.933  0.3420 -0.2847  0.1274
26628W        W69545   5.709  15.542  20.553 -0.1117 -0.3458 -0.1550
26629W        W69546   4.778  17.192  18.194  0.1470  0.1026 -0.0811
26630W        W69547   5.186  15.753  15.881 -0.2213  0.0113  0.2630
26631W        W69548   5.622  15.681  16.194  0.0721  0.0975  0.1235
26632W        W69549   2.592  18.044  21.039  0.0413 -0.1791 -0.1772
26633W        W69550   6.723  17.166  19.955 -0.0335 -0.1075 -0.2990
26634W        W69551   4.726  17.010  19.079  0.0436 -0.0701  0.0025
26635W        W69552   3.643  17.319  18.866  0.1534  0.1324 -0.0027
26636W        W69553   6.959  17.535  16.539 -0.2029  0.0783  0.0400
26637W        W69554   3.263  15.371  18.798  0.0202  0.0776 -0.1820
26638W        W69555   6.283  15.817  19.759 -0.1044  0.0327  0.0751
26639W        W69556   7.753  20.059  19.410 -0.2737  0.1269 -0.2304
26640W        W69557   4.142  14.376  19.914  0.1496  0.3123  0.2286
26641W        W69558   5.510  15.078  16.984 -0.1956 -0.0033 -0.1108
26642W        W69559   4.643  15.401  17.451 -0.0290 -0.0108  0.0027
26643W        W69560   3.268  19.170  18.022 -0.0372  0.0092 -0.1891
26644W        W69561   4.939  14.781  19.518 -0.0739 -0.2318 -0.0944
26645W        W69562   4.574  15.204  20.648 -0.1199 -0.3714 -0.1061
26646W        W69563   2.683  15.175  19.391 -0.0376  0.2533  0.0785
26647W        W69564   5.811  14.874  17.881  0.1637  0.1344 -0.1971
26648W        W69565   5.175  16.173  19.051  0.0410  0.0369  0.1149
26649W        W69566   4.201  14.832  20.306  0.1654 -0.0781 -0.2081
26650W        W69567   3.705  15.540  16.427  0.1975 -0.3025  0.0689
26651W        W69568   3.320  16.401  19.971 -0.0545  0.3771  0.0820
26652W        W69569   3.730  15.118  16.622  0.2426  0.0437  0.2025
26653W        W69570   5.248  17.029  20.720  0.2934 -0.0791  0.0505
26654W        W69571   5.427  16.834  19.660 -0.0529 -0.0808  0.1085
26655W        W69572   5.856  15.068  19.498 -0.0155 -0.0508 -0.0145
26656W        W69573   2.874  17.512  20.123  0.1057  0.2566  0.1119
26657W        W69574   4.411  17.453  19.115  0.0144 -0.1082 -0.4560
26658W        W69575   5.183  17.590  16.346 -0.2068 -0.0069  0.0032
26659W        W69576   3.496  16.904  16.354  0.2063  0.2806 -0.0797
26660W        W69577   4.188  14.821  19.786 -0.1098  0.2100 -0.0016
26661W        W69578   2.543  17.080  18.788 -0.0585 -0.0278 -0.3584
26662W        W69579   3.928  17.088  15.602 -0.1942  0.2729  0.1000
26663W        W69580   4.595  16.575  19.306  0.4081  0.1185  0.1937
26664W        W69581   2.806  16.979  18.306  0.0808  0.0791  0.0702
26665W        W69582   5.798  13.413  17.724  0.2580  0.3655 -0.5029
26666W        W69583   3.882  18.045  18.807 -0.4266  0.1023 -0.0785
26667W        W69584   4.008  16.145  17.815 -0.1453 -0.0211  0.0944
26668W        W69585   2.929  15.730  18.616  0.2608 -0.0367  0.1667
26669W        W69586   6.756  15.654  16.482  0.2061 -0.1977 -0.0425
26670W        W69587   5.438  15.466  17.339 -0.0628  0.1001 -0.0308
26671W        W69588   2.628  14.172  19.854  0.0406  0.1192 -0.0185
26672W        W69589   4.094  12.745  18.743  0.0705 -0.2165  0.0100
26673W        W69590   3.955  16.067  18.344 -0.1285  0.0784  0.0568
26674W        W69591   4.590  15.391  19.074 -0.0117  0.1417  0.2599
26675W        W69592   5.522  14.751  16.215  0.4041  0.2339  0.1917
26676W        W69593   7.209  17.315  20.044 -0.2136  0.1789  0.1379
26677W        W69594   5.856  14.898  20.644  0.3353 -0.0403  0.0811
26678W        W69595   2.072  15.044  17.316 -0.2008 -0.3421 -0.0561
26679W        W69596   6.877  15.316  17.520  0.0451  0.0744  0.1874
26680W        W69597   4.149  15.433  20.577 -0.4267  0.0736  0.0673
26681W        W69598   3.735  17.788  16.736 -0.1151 -0.0853  0.0278
26682W        W69599   5.822  16.345  17.602  0.2700  0.1436  0.4521
26683W        W69600   3.192  16.563  17.648  0.0118 -0.0990  0.0588
26684W        W69601   4.988  18.021  17.845 -0.0316  0.2387  0.3462
26685W        W69602   4.793  14.552  21.416 -0.1971  0.1849  0.3652
26686W        W69603   5.476  15.553  21.112  0.2203 -0.2505  0.1065
26687W        W69604   3.975  15.262  19.648  0.3389  0.2624 -0.2548
26688W        W69605   3.222  15.211  17.837 -0.0357  0.1821 -0.1603
26689W        W69606   4.986  17.043  18.606 -0.1925  0.1959 -0.1830
26690W        W69607   4.183  15.852  18.776  0.1070 -0.0171 -0.1425
26691W        W69608   4.870  14.003  18.429  0.0395 -0.1832  0.1568
26692W        W69609   4.632  15.582  22.256  0.0982  0.0351  0.1307
26693W        W69610   5.181  15.988  18.092  0.1663 -0.2419 -0.0531
26694W        W69611   6.361  19.196  19.306 -0.0727 -0.0700  0.0833
26695W        W69612   6.647  17.211  19.383  0.1940  0.0115  0.1673
26696W        W69613   4.802  18.697  18.656 -0.1142  0.3176 -0.2340
26697W        W69614   3.226  16.583  19.109 -0.2283 -0.3794  0.0886
26698W        W69615   4.405  16.941  16.351  0.2696 -0.2877 -0.1591
26699W        W69616   3.689  14.162  19.189 -0.0361  0.1250  0.1466
26700W        W69617   2.494  16.973  19.777  0.3319  0.0446 -0.0950
26701W        W69618   5.719  17.419  16.769 -0.0780  0.0526 -0.0649
26702W        W69619   4.140  15.635  19.409  0.0868  0.0457  0.1624
26703W        W69620   6.386  15.403  16.825  0.0987 -0.1124  0.2433
26704W        W69621   5.948  16.894  17.025 -0.1213  0.0813 -0.2279
26705W        W69622   5.370  16.235  16.031  0.3878  0.2339  0.0757
26706W        W69623   7.372  16.625  19.300  0.0283 -0.1013 -0.0590
26707W        W69624   4.868  16.106  15.994  0.1336  0.0795  0.1570
26708W        W69625   6.543  16.347  18.973 -0.1406  0.2155 -0.0351
26709W        W69626   2.892  16.190  18.510 -0.2006  0.1176 -0.2754
26710W        W69627   5.212  16.717  19.244 -0.3166  0.1353  0.0634
26711W        W69628   3.442  16.362  18.590 -0.0264  0.2858  0.1774
26712W        W69629   5.841  18.736  20.111 -0.3164  0.2213  0.1300
26713W        W69630   3.836  14.263  23.576 -0.1132 -0.1678 -0.4615
26714W        W69631   5.738  14.990  18.492  0.1232 -0.2099  0.0877
26715W        W69632   3.534  15.272  17.095  0.4111  0.1806 -0.1298
26716W        W69633   5.535  18.517  19.361  0.0391  0.1687  0.0702
26717W        W69634   5.635  15.888  18.952 -0.2727  0.0629 -0.1788
26718W        W69635   5.045  17.847  17.021  0.2313  0.2312 -0.0544
26719W        W69636   5.745  16.627  18.253 -0.1091 -0.1634  0.0308
26720W        W69637   3.464  16.880  20.093  0.3385  0.2312  0.1869
26721W        W69638   3.118  16.062  18.979 -0.1127  0.1448 -0.1438
26722W        W69639   5.081  17.035  16.380 -0.1934 -0.2391  0.1198
26723W        W69640   3.678  16.690  18.340 -0.1089 -0.1047  0.2873
26724W        W69641   3.548  14.067  20.485  0.2326  0.4964  0.0565
26725W        W69642   7.729  17.907  17.238  0.0147 -0.4008  0.1375
26726W        W69643   8.003  14.460  17.428 -0.1930  0.2649  0.5608
26727W        W69644   6.070  14.838  19.929 -0.0737  0.0786 -0.0714
26728W        W69645   4.758  14.780  17.453 -0.3222  0.0260  0.1119
26729W        W69646   3.165  17.725  20.834  0.0977  0.0145 -0.0921
26730W        W69647   4.098  15.714  19.919  0.0734 -0.1805 -0.1359
26731W        W69648   7.636  18.910  18.298 -0.0202  0.2622  0.1735
26732W        W69649   6.454  16.516  16.393  0.1311 -0.3643  0.2519
26733W        W69650   6.850  14.433  19.501 -0.0722  0.2351 -0.3155
26734W        W69651   5.909  14.697  17.043  0.1690 -0.1791 -0.1916
26735W        W69652   5.059  14.132  17.243  0.0726 -0.0363  0.1482
26736W        W69653   2.308  16.226  19.787  0.1244 -0.2248  0.2068
26737W        W69654   5.811  14.583  19.397 -0.1820 -0.2619 -0.0506
26738W        W69655   3.485  16.060  16.352  0.0749  0.0871  0.2672
26739W        W69656   5.364  14.170  20.230 -0.5433  0.0415  0.1048
26740W        W69657   5.777  18.749  17.489 -0.1514  0.1130 -0.0677
26741W        W69658   4.737  15.769  19.472 -0.0527  0.0825  0.2863
26742W        W69659   4.717  15.858  17.449 -0.2280 -0.1005  0.1771
26743W        W69660   3.672  15.795  17.999  0.1253 -0.1420 -0.0983
26744W        W69661   5.246  17.414  20.351 -0.1176  0.0517 -0.1716
26745W        W69662   3.905  15.702  16.903  0.0033  0.2818  0.1130
26746W        W69663   5.064  16.136  16.437 -0.0339 -0.0282  0.0472
26747W        W69664   6.243  17.277  19.079 -0.1968 -0.0358  0.0762
26748W        W69665   5.938  15.975  20.559  0.0226  0.0301 -0.1368
26749W        W69666   5.646  14.698  16.639 -0.0782  0.0412 -0.2369
26750W        W69667   5.410  15.134  20.883  0.3879  0.3973 -0.1813
26751W        W69668   3.543  17.158  16.806 -0.0939  0.2563 -0.0418
26752W        W69669   4.632  15.030  17.009 -0.1885 -0.0894 -0.1358
26753W        W69670   4.854  16.464  18.250 -0.2157 -0.2574 -0.1292
26754W        W69671   3.436  16.981  20.932 -0.1085  0.1519 -0.0737
26755W        W69672   4.669  17.829  16.639 -0.1388  0.3659  0.1595
26756W        W69673   5.176  14.308  21.172  0.1162  0.0010  0.0598
26757W        W69674   5.689  16.112  18.012  0.0040  0.0431  0.0164
26758W        W69675   5.258  17.298  19.499  0.3039  0.2120 -0.1181
26759W        W69676   5.493  15.547  19.378  0.0546 -0.1312  0.2814
26760W        W69677   4.819  15.165  19.969 -0.2285 -0.0084 -0.2371
26761W        W69678   4.666  14.439  16.409 -0.0265  0.0565  0.0509
26762W        W69679   7.013  17.109  18.455 -0.1253 -0.0483 -0.2790
26763W        W69680   8.398  16.078  16.881 -0.1648 -0.0998  0.0643
26764W        W69681   4.501  16.570  17.766 -0.0338 -0.1793  0.0657
26765W        W69682   2.690  15.868  19.922  0.4012 -0.0957  0.1353
26766W        W69683   5.156  14.901  21.301 -0.3107  0.1084  0.3613
26767W        W69684   5.734  18.468  18.634 -0.1201  0.2189  0.0829
26768W        W69685   3.713  15.131  16.097  0.2521 -0.1507  0.1338
26769W        W69686   3.949  16.794  16.111 -0.0457  0.0592 -0.0175
26770W        W69687   4.201  18.596  22.318 -0.4913 -0.1748  0.0270
26771W        W69688   3.948  15.911  20.433  0.2953 -0.0968  0.2470
26772W        W69689   2.991  17.280  16.918 -0.2048  0.0017  0.1000
26773W        W69690   4.973  18.255  16.621 -0.2239 -0.1375 -0.1251
26774W        W69691   6.259  18.007  17.196  0.2208  0.0693 -0.3296
26775W        W69692   6.172  16.249  17.954 -0.1255  0.0763 -0.0302
26776W        W69693   4.587  15.597  17.012 -0.0370 -0.0636  0.1058
26777W        W69694   3.555  16.842  17.775 -0.4517  0.3047 -0.3657
26778W        W69695   2.933  17.888  17.250 -0.1167 -0.0181 -0.1404
26779W        W69696   6.143  17.354  17.040  0.0895  0.1720  0.2237
26780W        W69697   4.400  17.832  18.595  0.2215 -0.0894 -0.3803
26781W        W69698   5.730  16.250  19.422  0.2050  0.0025  0.1907
26782W        W69699   6.099  14.318  16.832  0.0274  0.1916 -0.0967
26783W        W69700   6.987  15.753  18.267 -0.0082 -0.1162  0.0337
26784W        W69701   5.901  15.572  18.548  0.3983  0.0004  0.2745
26785W        W69702   6.128  17.678  17.634 -0.0486  0.2577 -0.0998
26786W        W69703   5.098  16.535  17.336 -0.4518  0.5961  0.3539
26787W        W69704   4.670  15.343  18.418 -0.1150 -0.0583 -0.2265
26788W        W69705   6.164  16.303  20.860  0.0323  0.1169  0.2289
26789W        W69706   8.165  16.614  16.862 -0.1693  0.0282  0.1797
26790W        W69707   4.985  16.149  18.594  0.0372 -0.0329  0.2206
26791W        W69708   6.178  19.011  16.886  0.0950  0.2770  0.1563
26792W        W69709   1.021  15.298  18.805 -0.1538 -0.1223  0.0495
26793W        W69710   4.159  15.164  19.218  0.3888 -0.0078  0.1969
26794W        W69711   7.676  14.320  19.980  0.0170  0.1644 -0.0084
26795W        W69712   4.786  17.318  16.623  0.3270 -0.0308 -0.0023
26796W        W69713   3.720  14.045  19.695 -0.1231  0.2226  0.0824
26797W        W69714   4.001  18.731  15.444 -0.2317  0.1273  0.1127
26798W        W69715   4.165  18.456  19.049 -0.0126  0.1852 -0.0281
26799W        W69716   4.187  17.016  19.035  0.4915  0.1574 -0.1543
26800W        W69717   1.616  14.668  18.837 -0.2235  0.3891 -0.2778
26801W        W69718   5.926  15.293  16.893 -0.0426 -0.1658  0.0630
26802W        W69719   4.633  15.669  20.805  0.1552 -0.0784 -0.2909
26803W        W69720   6.520  14.404  17.649  0.3830 -0.0520  0.0422
26804W        W69721   4.398  16.214  19.632  0.0668  0.0661  0.0516
26805W        W69722   4.889  16.260  17.765  0.0443  0.0404  0.2222
26806W        W69723   4.188  16.181  19.145  0.0690 -0.0721 -0.1466
26807W        W69724   4.617  15.307  17.938  0.2499 -0.2248 -0.2155
26808W        W69725   5.361  17.335  18.518  0.2216 -0.0006  0.3988
26809W        W69726   8.236  17.371  17.800  0.0162 -0.0581  0.0791
26810W        W69727   5.579  15.219  16.433  0.1328 -0.0779 -0.1300
26811W        W69728   5.828  17.968  20.711 -0.2255  0.1037  0.1219
26812W        W69729   3.268  13.900  18.784  0.0336 -0.1328 -0.1673
26813W        W69730   4.732  15.679  16.236 -0.1653 -0.0725 -0.1147
26814W        W69731   4.312  15.739  18.292  0.3843 -0.1073 -0.0873
26815W        W69732   4.521  16.759  18.450 -0.0752 -0.0220 -0.0763
26816W        W69733   3.944  17.527  19.264 -0.0946  0.2991  0.0164
26817W        W69734   3.620  15.187  19.273 -0.2181 -0.0011 -0.0180
26818W        W69735   6.535  18.625  16.988  0.0906  0.1220 -0.0819
26819W        W69736   5.846  14.843  18.987  0.1476 -0.0207  0.0027
26820W        W69737   4.385  18.206  15.418 -0.1447 -0.1438 -0.0265
26821W        W69738   5.821  15.800  17.627  0.2179  0.1572  0.0327
26822W        W69739   5.646  20.564  18.888  0.1738  0.1258 -0.1186
26823W        W69740   3.064  14.526  19.901 -0.0443 -0.0719  0.0338
26824W        W69741   6.979  18.056  16.648  0.4154 -0.0093 -0.4340
26825W        W69742   8.570  18.067  20.182 -0.2848  0.2491 -0.1136
26826W        W69743   4.005  14.744  17.914  0.1390 -0.0592  0.0036
26827W        W69744   3.643  14.762  19.888 -0.0676 -0.1459 -0.1961
26828W        W69745   4.656  16.840  17.361 -0.1188 -0.3625 -0.1919
26829W        W69746   6.735  16.679  18.586 -0.3166 -0.0128  0.2922
26830W        W69747   6.327  14.224  19.427 -0.0989  0.2463  0.1325
26831W        W69748   4.699  16.461  16.582  0.2470  0.1702 -0.0241
26832W        W69749   7.078  14.809  19.287  0.0525  0.0295 -0.1852
26833W        W69750   5.911  18.955  19.383  0.1475 -0.0868 -0.1499
26834W        W69751   5.265  19.343  19.631 -0.2921  0.0460  0.0112
26835W        W69752   3.977  16.549  16.996 -0.2424 -0.2785  0.1464
26836W        W69753   4.282  17.145  20.798  0.0875 -0.0418 -0.1561
26837W        W69754   5.316  17.771  18.735 -0.2000  0.1527  0.0287
26838W        W69755   5.377  16.480  17.875  0.3334 -0.0243  0.2031
26839W        W69756   6.472  17.540  17.299 -0.1780 -0.2580  0.1058
26840W        W69757   3.643  16.123  16.890  0.1240 -0.0310 -0.2854
26841W        W69758   7.629  16.689  18.021  0.1985 -0.0890  0.0807
26842W        W69759   3.146  14.369  19.126 -0.1138  0.1705  0.1317
26843W        W69760   5.231  16.827  18.227 -0.1734  0.0377 -0.2092
26844W        W69761   4.183  15.198  17.674  0.2851 -0.1593  0.1409
26845W        W69762   6.986  17.346  18.967  0.0613 -0.1156  0.2967
26846W        W69763   2.184  15.563  17.405 -0.0739  0.0697  0.2234
26847W        W69764   2.945  15.846  17.322 -0.1513  0.0541 -0.0649
26848W        W69765   4.302  15.807  15.913  0.0167  0.0862  0.2254
26849W        W69766   3.374  13.786  20.119 -0.2891 -0.1935 -0.0759
26850W        W69767   4.161  15.225  18.242  0.1765  0.1745 -0.1886
26851W        W69768   4.372  14.747  19.267 -0.1392 -0.1566 -0.0516
26852W        W69769   2.979  14.280  18.595  0.1792 -0.1173 -0.1656
26853W        W69770   7.058  16.079  17.442 -0.1225 -0.0217 -0.0869
26854W        W69771   3.742  13.978  18.495  0.0364 -0.3851  0.2569
26855W        W69772   2.946  15.311  19.820  0.0798  0.2088  0.0683
26856W        W69773   6.603  17.665  19.084 -0.0511  0.5790 -0.2003
26857W        W69774   6.068  16.772  16.579 -0.2355  0.1804  0.1212
26858W        W69775   5.187  14.461  16.501  0.1959  0.2782  0.0832
26859W        W69776   8.507  16.568  20.086  0.2656  0.1634 -0.1261
26860W        W69777   3.568  17.263  15.959  0.1390 -0.1248 -0.0207
26861W        W69778   7.089  16.406  19.758  0.3311 -0.1418  0.1059
26862W        W69779   5.165  14.469  18.607  0.0052  0.2342  0.3161
26863W        W69780   3.796  14.744  17.024 -0.0611  0.0315 -0.1403
26864W        W69781   5.223  16.557  20.846 -0.2880  0.1069  0.0541
26865W        W69782   6.195  16.576  19.677  0.0994 -0.3838  0.1063
26866W        W69783   7.214  20.437  18.036 -0.3562 -0.1733 -0.1095
26867W        W69784   5.638  18.177  19.041  0.0774 -0.1122  0.0573
26868W        W69785   4.614  17.687  19.961 -0.4863  0.2589 -0.1633
26869W        W69786   3.947  12.987  20.329 -0.1121 -0.3545 -0.1444
26870W        W69787   5.485  16.956  16.785  0.4637 -0.1903  0.1288
26871W        W69788   4.404  17.948  19.227 -0.3037 -0.1268 -0.0806
26872W        W69789   7.618  18.931  16.173 -0.1696  0.0048  0.0583
26873W        W69790   6.738  15.449  19.100  0.2306  0.1233 -0.0161
26874W        W69791   4.813  17.995  19.592  0.0418 -0.0740  0.1751
26875W        W69792   3.511  14.714  21.862  0.0215 -0.3671  0.2978
26876W        W69793   5.199  17.265  21.227 -0.0846  0.1346 -0.0831
26877W        W69794   5.454  16.876  18.721  0.3094  0.0487  0.1841
26878W        W69795   4.548  14.964  18.754 -0.3179  0.2099 -0.0802
26879W        W69796   5.997  16.850  20.049  0.2385 -0.0960  0.2814
26880W        W69797   5.930  19.157  17.823  0.0823 -0.0127  0.2074
26881W        W69798   4.187  16.243  20.119  0.2375 -0.0200  0.1345
26882W        W69799   5.161  15.640  16.425 -0.0601 -0.1137  0.0052
26883W        W69800   4.587  16.590  21.498  0.0175 -0.0520 -0.1762
26884W        W69801   6.162  18.003  18.716  0.0127  0.1849 -0.2200
26885W        W69802   5.927  14.289  20.690  0.0376  0.2729 -0.2255
26886W        W69803   5.083  18.904  17.461  0.4310  0.0338 -0.5463
26887W        W69804   6.714  18.507  16.555  0.1575  0.0039  0.0390
26888W        W69805   6.343  17.141  20.425  0.0720 -0.1057 -0.0063
26889W        W69806   8.195  16.980  19.267  0.1085  0.1364 -0.0222
26890W        W69807   2.612  16.511  17.618 -0.1669 -0.0829  0.1814
26891W        W69808   7.345  15.654  17.323  0.0321  0.2297  0.0853
26892W        W69809   2.289  14.704  19.735  0.1039 -0.1392  0.0051
26893W        W69810   4.292  16.264  17.361 -0.2157  0.0252  0.2528
26894W        W69811   5.019  17.393  19.906  0.4378  0.1000  0.0893
26895W        W69812   5.485  15.558  16.822 -0.0746 -0.0404  0.2132
26896W        W69813   1.487  13.644  20.180  0.1366 -0.2354 -0.0065
26897W        W69814   7.195  14.858  17.710  0.0715 -0.1516 -0.1948
26898W        W69815   4.643  18.670  19.153  0.1703 -0.1274 -0.0630
26899W        W69816   6.049  17.419  20.759  0.3163  0.3833 -0.2801
26900W        W69817   5.014  15.447  25.191  0.1368  0.1124 -0.0107
26901W        W69818   3.671  15.068  21.466 -0.1001 -0.2652  0.1754
26902W        W69819   6.311  17.802  22.018 -0.0854  0.4816  0.3128
26903W        W69820   6.609  16.126  19.926 -0.1977  0.0002 -0.2377
26904W        W69821   5.420  14.489  21.521  0.3806  0.0469 -0.0435
26905W        W69822   6.504  15.941  21.004  0.5447  0.0356  0.7335
26906W        W69823   4.827  13.035  24.505  0.0509 -0.2491  0.0234
26907W        W69824   6.586  17.966  23.215 -0.0769  0.2610 -0.2735
26908W        W69825   5.836  16.864  23.825  0.4366  0.0245 -0.0764
26909W        W69826   4.674  16.127  22.453  0.0157  0.0647  0.0672
26910W        W69827   4.442  16.871  21.893 -0.1769  0.1825  0.0159
26911W        W69828   3.972  18.924  22.626  0.0860  0.0370  0.0477
26912W        W69829   4.564  15.644  19.904  0.0206 -0.0987  0.0706
26913W        W69830   4.691  13.940  23.699  0.0001  0.1409  0.1101
26914W        W69831   6.978  13.222  22.355  0.0485  0.1482  0.0587
26915W        W69832   4.331  15.616  21.834  0.1091 -0.1247 -0.1574
26916W        W69833   5.283  14.208  22.707  0.2416  0.1124  0.0928
26917W        W69834   5.931  13.306  22.424  0.1154  0.5663  0.0200
26918W        W69835   5.990  18.059  20.095 -0.2186  0.0944 -0.3318
26919W        W69836   6.510  13.101  24.372  0.2494  0.0201 -0.3316
26920W        W69837   6.491  14.658  24.670  0.1002  0.1251 -0.0015
26921W        W69838   8.399  16.691  21.287 -0.5004 -0.1136  0.0034
26922W        W69839   3.161  16.237  21.576  0.0612  0.2686 -0.1609
26923W        W69840   5.524  15.793  23.186 -0.1366  0.0300  0.0399
26924W        W69841   3.791  14.831  24.967 -0.0531 -0.0476  0.0548
26925W        W69842   6.527  15.520  23.260  0.1500  0.0132  0.3157
26926W        W69843   5.890  13.876  22.078 -0.0433  0.2274  0.1448
26927W        W69844   4.148  17.486  23.564  0.1186  0.2016 -0.2755
26928W        W69845   4.728  15.577  22.775  0.1397  0.1884 -0.0226
26929W        W69846   6.223  15.869  23.638 -0.0576  0.2021  0.0263
26930W        W69847   4.803  16.557  22.021  0.0669 -0.1539 -0.1449
26931W        W69848   3.557  17.390  23.102  0.0816 -0.1876  0.0473
26932W        W69849   4.298  16.221  22.842 -0.3510  0.0956  0.1057
26933W        W69850   6.974  15.745  20.366 -0.0540 -0.3013 -0.0772
26934W        W69851   5.656  16.314  22.431  0.0238 -0.0633 -0.0805
26935W        W69852   6.022  19.343  24.446 -0.1040  0.0304  0.1187
26936W        W69853   5.052  18.294  19.229  0.0524  0.1872  0.1917
26937W        W69854   4.144  17.568  26.177 -0.0663  0.0995 -0.0011
26938W        W69855   3.063  14.915  24.385  0.0001 -0.1042  0.0681
26939W        W69856   4.938  15.179  23.116 -0.1896 -0.0127  0.0368
26940W        W69857   6.575  15.699  23.938 -0.3003  0.0104 -0.1112
26941W        W69858   4.212  17.949  19.780 -0.2850  0.3426  0.0210
26942W        W69859   6.506  17.396  21.752 -0.2507 -0.0885  0.1895
26943W        W69860   4.336  18.226  22.842  0.2102  0.0105 -0.1647
26944W        W69861   4.849  16.981  21.604 -0.3093  0.0373  0.2775
26945W        W69862   7.541  16.065  24.943  0.0369  0.0446  0.0708
26946W        W69863   5.371  18.747  20.195  0.0420  0.2188 -0.1215
26947W        W69864   5.776  14.482  20.241  0.1158 -0.4080  0.0935
26948W        W69865   6.182  16.689  20.544 -0.0104 -0.0293 -0.0447
26949W        W69866   6.656  18.013  20.638  0.0066 -0.0207  0.0872
26950W        W69867   6.507  14.490  23.423 -0.0622  0.0173  0.0274
26951W        W69868   4.555  16.581  23.064 -0.3131  0.2052  0.1951
26952W        W69869   4.281  15.716  22.614  0.2412  0.1337  0.2032
26953W        W69870   3.720  15.889  22.052 -0.2083  0.4350  0.0238
26954W        W69871   4.529  17.556  20.523 -0.2043 -0.1919  0.0796
26955W        W69872   6.975  13.091  23.479 -0.3226 -0.3399  0.2494
26956W        W69873   5.466  16.908  23.144  0.0607 -0.1007 -0.2592
26957W        W69874   6.022  17.554  21.668  0.1384 -0.1091  0.1075
26958W        W69875   6.981  17.835  18.796 -0.2349  0.2414  0.2450
26959W        W69876   6.507  17.615  22.457 -0.0050 -0.2201  0.2023
26960W        W69877   6.282  19.487  20.485 -0.0454 -0.2197 -0.3055
26961W        W69878   3.885  15.025  22.240  0.4685 -0.0936 -0.2749
26962W        W69879   4.714  14.016  22.541  0.1900  0.0501 -0.0123
26963W        W69880   4.470  15.626  23.627  0.0800  0.1702  0.1531
26964W        W69881   4.696  16.234  20.992  0.2421 -0.2448  0.0754
26965W        W69882   7.278  15.238  24.449 -0.0701 -0.1709 -0.1883
26966W        W69883   4.615  17.289  24.848  0.0987 -0.2678  0.1136
26967W        W69884   7.388  15.402  21.011 -0.2070  0.0633  0.0156
26968W        W69885   6.386  16.075  21.970 -0.0694  0.0768  0.0214
26969W        W69886   6.774  17.238  22.683 -0.0993  0.0088 -0.1024
26970W        W69887   8.377  16.921  20.413 -0.0278 -0.0352  0.0137
26971W        W69888   6.987  13.894  21.602 -0.3695  0.5085  0.0918
26972W        W69889   6.403  14.569  22.896  0.0249  0.0431  0.2585
26973W        W69890   5.102  16.962  20.096 -0.1990 -0.0707 -0.1032
26974W        W69891   6.280  17.372  21.296  0.4503 -0.0400 -0.1706
26975W        W69892   8.232  18.196  21.379 -0.3339 -0.3769 -0.1453
26976W        W69893   7.210  15.264  21.862 -0.3248  0.1965 -0.2031
26977W        W69894   5.019  17.333  23.245  0.3844 -0.1250  0.2549
26978W        W69895   7.699  15.026  26.107 -0.3215 -0.1492  0.1943
26979W        W69896   5.850  17.652  24.597  0.5406  0.5548 -0.0885
26980W        W69897   3.626  19.434  21.867  0.0676 -0.2792 -0.3232
26981W        W69898   1.370  15.385  23.337 -0.3160 -0.1186  0.2012
26982W        W69899   4.064  15.182  21.675 -0.0565 -0.0800 -0.1848
26983W        W69900   2.744  15.596  21.928 -0.1722 -0.1642  0.0392
26984W        W69901   3.108  14.294  23.111 -0.4176  0.2416  0.0496
26985W        W69902   7.961  15.926  20.640 -0.0579  0.3091 -0.2019
26986W        W69903   5.188  14.134  23.178  0.0393  0.3667 -0.0968
26987W        W69904   7.741  15.086  23.561  0.1978 -0.0443  0.1655
26988W        W69905   3.529  16.603  24.248  0.2651 -0.1302  0.0254
26989W        W69906   6.349  16.524  21.685  0.1251  0.1154  0.2133
26990W        W69907   7.480  17.581  20.460 -0.3880 -0.1258 -0.3975
26991W        W69908   6.470  16.084  20.522  0.0300  0.0546 -0.2152
26992W        W69909   4.374  16.488  24.321 -0.0157 -0.2044 -0.0241
26993W        W69910   3.308  15.473  21.143  0.3179  0.1761 -0.0554
26994W        W69911   6.081  14.693  23.279  0.0609 -0.3082 -0.1562
26995W        W69912   4.818  16.146  22.928 -0.0578  0.5515 -0.1479
26996W        W69913   6.448  16.066  22.915 -0.1901 -0.3201  0.1971
26997W        W69914   2.925  14.670  21.006  0.2691 -0.1898 -0.0567
26998W        W69915   5.724  15.016  22.367  0.0109  0.1175 -0.1718
26999W        W69916   5.323  16.624  22.801  0.2695  0.0984 -0.1203
27000W        W69917   3.849  18.122  21.760 -0.2334 -0.2835 -0.0566
27001W        W69918   8.672  15.663  22.720 -0.1595 -0.1205  0.0499
27002W        W69919   6.890  20.514  19.497  0.3322 -0.0879 -0.0443
27003W        W69920   5.987  17.303  24.225 -0.1003 -0.0995 -0.0200
27004W        W69921   7.019  18.332  20.814  0.0802  0.0688 -0.1314
27005W        W69922   4.333  15.188  22.506  0.1340 -0.2549 -0.0433
27006W        W69923   5.332  16.398  21.861  0.1894 -0.0347  0.1249
27007W        W69924   3.293  16.741  21.759 -0.1702 -0.0878 -0.2881
27008W        W69925   6.022  16.469  21.288 -0.1352 -0.0673 -0.0790
27009W        W69926   6.382  15.042  20.812  0.0547  0.1166  0.1627
27010W        W69927   5.883  16.756  23.371 -0.3145  0.3125 -0.2073
27011W        W69928   5.147  16.500  21.321  0.2953 -0.1511  0.2087
27012W        W69929   3.359  15.810  23.829  0.1118 -0.1748  0.0144
27013W        W69930   6.167  12.164  23.187 -0.1710  0.1653  0.0547
27014W        W69931   8.131  13.691  23.923  0.2756  0.0504 -0.0463
27015W        W69932   4.860  16.014  20.585  0.1704 -0.0224  0.0702
27016W        W69933   4.630  16.401  20.241 -0.0542 -0.1363 -0.0784
27017W        W69934   6.076  16.964  21.567  0.0667  0.1178 -0.2364
27018W        W69935   2.151  20.059  20.807  0.0343 -0.0640  0.1227
27019W        W69936   3.039  16.672  22.225 -0.3724 -0.3728  0.0300
27020W        W69937   6.000  16.143  22.725  0.0435 -0.0267  0.1265
27021W        W69938   7.951  15.866  23.627 -0.0252 -0.2596 -0.3727
27022W        W69939   6.236  15.510  25.213 -0.0274  0.0763  0.0640
27023W        W69940   4.630  16.124  23.406  0.1366 -0.3247  0.1941
27024W        W69941   5.456  15.842  21.614  0.0163 -0.0338 -0.0554
27025W        W69942   4.819  14.376  22.826  0.0867  0.0222 -0.3814
27026W        W69943   5.858  14.675  21.458  0.2958  0.1818  0.2896
27027W        W69944   7.512  18.049  20.751  0.0311  0.1478 -0.0388
27028W        W69945   3.512  15.917  23.379  0.1825  0.3005 -0.0529
27029W        W69946   7.932  15.469  20.854  0.0001  0.3003 -0.0561
27030W        W69947   5.940  15.047  21.886 -0.1223 -0.0380 -0.1377
27031W        W69948   6.747  13.717  20.295  0.1593  0.1072 -0.1603
27032W        W69949   4.753  16.227  24.288  0.4451  0.0529  0.1798
27033W        W69950   6.931  16.185  20.752  0.1195  0.3466 -0.0307
27034W        W69951   3.713  17.198  23.525  0.0151  0.1940 -0.2076
27035W        W69952   6.436  15.439  21.166  0.1023 -0.1300  0.1330
27036W        W69953   7.162  19.647  21.340  0.1851  0.1518 -0.0582
27037W        W69954   2.520  15.506  23.372 -0.0816  0.1262  0.0359
27038W        W69955   5.555  18.518  22.256  0.0211 -0.2415  0.1327
27039W        W69956   5.735  18.018  21.549  0.4762 -0.2100 -0.1565
27040W        W69957   6.388  15.103  22.289  0.2370  0.2050 -0.2733
27041W        W69958   5.748  16.436  20.410 -0.0147 -0.0373 -0.1019
27042W        W69959   6.076  13.433  21.306  0.0204  0.1509 -0.0451
27043W        W69960   3.325  18.645  19.446  0.1066  0.1234  0.1928
27044W        W69961   6.921  14.328  22.765  0.1883 -0.0673  0.1834
27045W        W69962   6.299  14.806  23.818  0.2514  0.4373  0.0523
27046W        W69963   4.126  15.173  23.607 -0.1817 -0.4248  0.0820
27047W        W69964   7.686  15.280  25.002  0.1696  0.1003  0.1499
27048W        W69965   6.471  14.574  19.800 -0.1523  0.0294  0.0375
27049W        W69966   5.419  15.883  22.132  0.1519 -0.1308 -0.3849
27050W        W69967   4.912  16.889  21.144  0.2626  0.0046  0.1319
27051W        W69968   4.427  14.687  23.969  0.0752  0.0707 -0.3232
27052W        W69969   5.408  16.293  25.219 -0.1074 -0.0430  0.0364
27053W        W69970   3.470  14.065  24.584  0.0829  0.3376  0.2001
27054W        W69971   4.163  15.964  22.190 -0.2038  0.0430  0.0208
27055W        W69972   5.757  17.018  22.475  0.3872 -0.2057  0.0441
27056W        W69973   5.819  14.615  26.336 -0.1831 -0.1319  0.0175
27057W        W69974   3.870  15.475  21.299  0.0891  0.3192 -0.2664
27058W        W69975   2.924  17.084  21.834 -0.0310  0.2140  0.1494
27059W        W69976   5.283  16.793  22.277  0.1805 -0.0543 -0.1350
27060W        W69977   2.688  13.540  23.979 -0.2519  0.0184  0.1297
27061W        W69978   5.913  16.775  22.081 -0.0224  0.1652  0.1992
27062W        W69979   3.922  16.670  21.357  0.2384  0.2861 -0.0289
27063W        W69980   6.277  15.118  22.852 -0.1872  0.0199  0.2083
27064W        W69981   4.203  18.563  19.684  0.1621 -0.2895 -0.3330
27065W        W69982   6.376  13.995  23.472  0.3350 -0.0533  0.0774
27066W        W69983   2.593  16.817  24.070 -0.1687  0.1997  0.1414
27067W        W69984   5.554  14.308  19.812  0.2872 -0.1444  0.2539
27068W        W69985   3.913  17.076  19.889  0.2516 -0.1215 -0.1056
27069W        W69986   6.071  15.500  22.496  0.2039 -0.0135 -0.0715
27070W        W69987   6.134  15.163  20.364 -0.2410 -0.1139 -0.0325
27071W        W69988   1.642  14.350  23.326 -0.0600 -0.1355 -0.0289
27072W        W69989   3.923  15.632  23.315 -0.0127  0.0125 -0.1020
27073W        W69990   3.801  16.335  22.165 -0.3897  0.0511  0.0241
27074W        W69991   5.440  15.321  23.947  0.0987 -0.1009 -0.0634
27075W        W69992   5.697  15.080  20.146  0.0458 -0.2450 -0.1455
27076W        W69993   6.814  16.801  22.453  0.1851  0.3208  0.3109
27077W        W69994   3.976  16.803  23.604 -0.3056 -0.0502 -0.1556
27078W        W69995   2.816  16.418  23.084 -0.0520 -0.0357 -0.0362
27079W        W69996   6.379  17.437  23.038 -0.1707 -0.0756 -0.2318
27080W        W69997   6.130  14.627  22.275  0.1661  0.2204 -0.3942
27081W        W69998   2.419  16.947  23.626  0.0538 -0.3333 -0.1968
27082W        W69999   5.018  18.323  22.793  0.1740 -0.0117  0.0686
27083W        W70000   5.343  15.995  20.252  0.1427 -0.2891  0.2212
27084W        W70001   4.655  18.560  21.578 -0.0630  0.1259  0.2004
27085W        W70002   4.114  15.526  23.971  0.3172  0.0515 -0.0618
27086W        W70003   5.924  17.149  23.044  0.0549  0.0994  0.0424
27087W        W70004   6.670  14.831  22.603 -0.0773  0.0797  0.1132
27088W        W70005   5.045  13.321  22.040 -0.1042  0.0020  0.1951
27089W        W70006   6.307  16.861  21.051  0.1142 -0.0920  0.1708
27090W        W70007   6.339  17.632  23.711  0.1796  0.2470  0.4417
27091W        W70008   6.312  16.745  23.711 -0.0252  0.3950  0.1083
27092W        W70009   2.682  17.866  24.393 -0.2463 -0.3011  0.0363
27093W        W70010   5.893  14.074  21.627  0.0230  0.0150  0.1165
27094W        W70011   5.736  17.582  20.392  0.0946 -0.0856  0.0009
27095W        W70012   4.796  16.980  22.919  0.3067 -0.2264 -0.0682
27096W        W70013   5.564  18.777  20.912 -0.1550  0.1011 -0.0400
27097W        W70014   2.382  16.369  22.784 -0.0391  0.2710 -0.4300
27098W        W70015   3.916  16.572  22.661  0.1488  0.0573 -0.0126
27099W        W70016   4.379  15.802  23.120  0.0187  0.1113 -0.3208
27100W        W70017   5.261  16.198  23.331 -0.1025 -0.2906  0.2168
27101W        W70018   3.292  16.299  22.118 -0.1439  0.2043  0.1057
27102W        W70019   3.589  18.421  20.349 -0.0683  0.2268 -0.1932
27103W        W70020   5.893  12.793  22.274  0.0554 -0.1536 -0.0315
27104W        W70021   5.819  17.221  19.549 -0.0734  0.2921  0.0174
27105W        W70022   5.559  14.479  22.364  0.1868 -0.0624  0.1721
27106W        W70023   7.810  13.705  23.351 -0.0266  0.1302  0.1154
27107W        W70024   6.282  15.627  20.634  0.0185 -0.0225  0.0981
27108W        W70025   5.635  14.870  23.135  0.0989  0.2795 -0.1014
27109W        W70026   5.479  15.393  25.966 -0.1120 -0.2022 -0.2704
27110W        W70027   7.242  16.275  21.752 -0.0851 -0.2583  0.1516
27111W        W70028   4.643  13.745  24.872  0.0629  0.3785  0.0901
27112W        W70029   7.657  18.155  24.098 -0.0464  0.1790 -0.0802
27113W        W70030   4.811  15.205  24.806  0.1388 -0.1578 -0.1359
27114W        W70031   6.734  15.547  19.711  0.0466 -0.2190 -0.0180
27115W        W70032   3.572  15.935  21.113 -0.2176  0.1344  0.0647
27116W        W70033   5.667  16.314  24.151  0.0154 -0.1941  0.0211
27117W        W70034   7.546  18.810  21.226 -0.1421  0.1529 -0.0681
27118W        W70035   5.967  19.245  20.074 -0.1435  0.0616 -0.0183
27119W        W70036   8.422  14.923  20.129 -0.1359 -0.0741 -0.2484
27120W        W70037   4.444  14.472  23.174 -0.2916  0.3295  0.1086
27121W        W70038   5.660  15.929  19.788  0.0972  0.0870 -0.0242
27122W        W70039   4.641  15.314  21.400 -0.1672 -0.1690  0.0717
27123W        W70040   5.495  15.544  20.098 -0.2560 -0.2984  0.2094
27124W        W70041   4.186  14.291  24.195 -0.1047  0.1881 -0.0007
27125W        W70042   6.818  17.063  20.656 -0.2047 -0.5252 -0.2948
27126W        W70043   5.340  14.978  22.718  0.5499 -0.2592  0.1794
27127W        W70044   6.849  14.957  23.695  0.1542  0.0965 -0.0919
27128W        W70045   6.305  17.007  22.588 -0.1930  0.2044  0.1130
27129W        W70046   5.211  14.527  24.071 -0.1714 -0.0569  0.0826
27130W        W70047   5.359  13.545  25.021 -0.0709 -0.0181  0.2204
27131W        W70048   7.657  17.666  23.338  0.0591 -0.0969 -0.2017
27132W        W70049   8.349  15.984  20.085  0.1676 -0.1539 -0.1882
27133W        W70050   7.027  15.340  23.294 -0.1426 -0.0562  0.0248
27134W        W70051   6.782  16.400  22.115  0.0068 -0.0721  0.3982
27135W        W70052   6.949  15.937  22.019 -0.0374 -0.1022 -0.0761
27136W        W70053   5.365  16.116  22.822  0.1608 -0.0820 -0.0301
27137W        W70054   5.633  15.801  22.626 -0.2669  0.3584  0.4203
27138W        W70055   6.966  15.006  22.252  0.2274 -0.1827  0.3976
27139W        W70056   6.898  14.413  24.231  0.2496  0.2376 -0.4498
27140W        W70057   5.020  16.532  19.772 -0.1939  0.0185  0.0283
27141W        W70058   5.755  17.119  21.113 -0.0735  0.0439  0.1901
27142W        W70059   7.332  17.125  20.804  0.2161 -0.0479 -0.2359
27143W        W70060   2.673  14.794  23.007  0.0528  0.2077  0.2602
27144W        W70061   7.132  18.077  24.798 -0.0661  0.2626 -0.1319
27145W        W70062   4.316  14.902  21.352 -0.0135  0.1501 -0.3306
27146W        W70063   5.238  16.052  19.577  0.2169 -0.0800  0.1326
27147W        W70064   4.921  16.483  23.640  0.1984 -0.0089 -0.1180
27148W        W70065   5.686  15.995  24.520 -0.0879  0.3080  0.1801
27149W        W70066   6.310  14.757  19.393 -0.2314 -0.3654  0.0268
27150W        W70067   5.430  15.275  23.348 -0.1453 -0.0674  0.1379
27151W        W70068   3.682  18.837  21.173  0.0254  0.0133 -0.2717
27152W        W70069   5.684  16.406  23.126  0.0404  0.2459 -0.0281
27153W        W70070   4.713  17.895  22.691 -0.0562  0.5247 -0.2390
27154W        W70071   4.442  16.789  24.921  0.1277  0.2823 -0.3806
27155W        W70072   3.789  17.982  20.507  0.1190 -0.0951  0.0017
27156W        W70073   5.120  15.782  22.517 -0.0173  0.4223 -0.3524
27157W        W70074   5.594  16.679  21.358 -0.6770 -0.1398 -0.1267
27158W        W70075   6.739  18.005  22.224  0.3396  0.0381  0.0227
27159W        W70076   9.453  15.232  24.349  0.0206 -0.2254 -0.3471
27160W        W70077   6.785  15.879  23.489 -0.1970 -0.1625  0.1946
27161W        W70078   3.696  16.371  23.552  0.3292 -0.3390  0.1169
27162W        W70079   4.749  16.990  23.524 -0.2227 -0.0842 -0.1226
27163W        W70080   7.636  16.333  20.768  0.1951 -0.1668  0.2335
27164W        W70081   4.145  16.355  21.776 -0.0536  0.1421 -0.1037
27165W        W70082   3.277  14.801  25.251 -0.0392  0.2267 -0.2938
27166W        W70083   5.867  17.701  23.388  0.1700  0.0466  0.1531
27167W        W70084   5.368  15.197  19.728 -0.0527  0.1243  0.0262
27168W        W70085   4.239  16.166  21.251 -0.0460  0.3719  0.0747
27169W        W70086   6.213  17.196  18.552  0.2369  0.2089  0.1233
27170W        W70087   3.102  16.877  25.884  0.1487  0.1250 -0.1195
27171W        W70088   3.803  15.063  23.210  0.4593 -0.0314  0.2084
27172W        W70089   3.841  18.863  20.691 -0.1476 -0.0945  0.4067
27173W        W70090   6.228  17.526  19.471  0.0120 -0.1422  0.0522
27174W        W70091   6.653  18.471  20.468  0.0061  0.1859 -0.0244
27175W        W70092   2.889  19.869  22.435  0.0905  0.1263 -0.0689
27176W        W70093   6.401  15.198  21.725 -0.1284  0.1328 -0.0652
27177W        W70094   3.564  16.739  22.268  0.1669 -0.4257 -0.1085
27178W        W70095   2.959  16.919  20.040  0.2312 -0.0908  0.0377
27179W        W70096   7.300  17.743  21.461 -0.1187 -0.2163 -0.0306
27180W        W70097   4.687  18.456  19.615  0.1274 -0.1595 -0.1600
27181W        W70098   6.526  17.231  25.084 -0.0905  0.2412 -0.0159
27182W        W70099   5.670  17.168  19.086  0.0154  0.0379 -0.0824
27183W        W70100   7.038  17.191  21.751 -0.0263  0.0224 -0.2767
27184W        W70101   6.836  14.187  21.085  0.0287  0.0892  0.0312
27185W        W70102   4.231  18.248  24.114  0.1132  0.0782 -0.1314
27186W        W70103   6.091  15.594  22.969 -0.1096 -0.1311 -0.1274
27187W        W70104   5.418  13.332  19.697  0.1614 -0.1806  0.0773
27188W        W70105   4.149  16.135  23.387  0.0889  0.2844  0.1346
27189W        W70106   7.644  15.050  24.055 -0.0250  0.0683  0.0101
27190W        W70107   3.940  16.809  20.806  0.0180  0.2219  0.1898
27191W        W70108   6.885  18.105  19.583 -0.0927 -0.1722  0.0513
27192W        W70109   2.169  16.128  20.800 -0.2797 -0.3405 -0.0270
27193W        W70110   4.580  16.032  21.631  0.0679 -0.2860  0.2412
27194W        W70111   7.991  15.437  23.915 -0.2852  0.2282 -0.1451
27195W        W70112   4.779  17.494  19.464  0.2439 -0.1292 -0.0669
27196W        W70113   6.276  16.383  23.350 -0.0823 -0.1345 -0.0019
27197W        W70114   7.119  17.635  22.035 -0.0620  0.4185  0.3077
27198W        W70115   6.382  15.236  24.264  0.1759  0.1126  0.0526
27199W        W70116   6.709  18.479  22.582  0.1936  0.1694  0.1496
27200W        W70117   2.808  14.764  20.445 -0.3086 -0.0788  0.1232
27201W        W70118   7.572  15.616  20.503 -0.1670  0.1029 -0.0371
27202W        W70119   2.134  14.837  24.919  0.0050 -0.0043  0.6744
27203W        W70120   7.006  16.348  23.654 -0.0999 -0.0627  0.2063
27204W        W70121   4.280  16.514  22.221  0.2901 -0.0365  0.1006
27205W        W70122   6.077  13.925  21.082  0.2410  0.3046 -0.0187
27206W        W70123   6.864  16.215  22.607 -0.0471 -0.2936 -0.1973
27207W        W70124   4.872  16.662  22.496 -0.0133  0.0836  0.1496
27208W        W70125   7.289  17.240  21.272 -0.0707 -0.2446  0.2477
27209W        W70126   9.453  15.336  22.817 -0.0945  0.2357 -0.5207
27210W        W70127   4.874  16.062  19.997  0.1768 -0.2608 -0.0622
27211W        W70128   3.593  17.828  22.945  0.2457  0.0515  0.1495
27212W        W70129   4.376  13.204  22.446  0.0942 -0.1983 -0.3253
27213W        W70130   3.874  16.147  19.557 -0.0682  0.1003 -0.2874
27214W        W70131   5.875  16.425  21.761 -0.3427 -0.3920 -0.0662
27215W        W70132   6.884  15.783  22.986  0.2019 -0.0271 -0.1491
27216W        W70133   6.812  16.809  23.943 -0.0719 -0.1500  0.3150
27217W        W70134   2.713  17.176  20.581  0.3346 -0.4636  0.2022
27218W        W70135   5.624  17.278  21.546  0.0220  0.0611  0.2695
27219W        W70136   5.946  16.671  22.845 -0.1447  0.1109  0.1243
27220W        W70137   4.846  18.744  20.379  0.0803  0.2063 -0.0967
27221W        W70138   6.496  18.422  19.607  0.2418 -0.0537  0.0062
27222W        W70139   6.947  18.042  22.859 -0.0540 -0.0197 -0.0373
27223W        W70140   5.218  13.664  23.723 -0.0529  0.1316 -0.0859
27224W        W70141   5.902  18.231  21.148 -0.1038  0.2532  0.0954
27225W        W70142   6.994  15.665  22.484  0.0884  0.1065 -0.2228
27226W        W70143   2.869  15.127  18.628 -0.0304 -0.1380  0.2089
27227W        W70144   4.827  15.614  21.787 -0.0808 -0.0739 -0.0838
27228W        W70145   4.252  18.844  21.553  0.0877 -0.0322  0.1185
27229W        W70146   8.393  14.476  23.774 -0.1020 -0.1327 -0.1245
27230W        W70147   4.968  15.292  23.747 -0.1294 -0.1400  0.3400
27231W        W70148   4.143  18.036  21.047 -0.0790  0.0019  0.2248
27232W        W70149   7.847  15.950  24.201  0.0978  0.2642 -0.4232
27233W        W70150   5.189  16.911  23.695  0.0990  0.2046  0.1347
27234W        W70151   5.022  17.408  23.777  0.1814  0.1395  0.2832
27235W        W70152   5.407  16.073  20.743 -0.0136  0.1811 -0.1798
27236W        W70153   4.518  16.970  24.476  0.0170 -0.0940 -0.0927
27237W        W70154   6.656  16.557  20.729  0.0838  0.1441  0.3380
27238W        W70155   3.830  18.390  20.962  0.0752 -0.2311 -0.2894
27239W        W70156   5.238  18.186  23.217 -0.0414 -0.2239  0.2110
27240W        W70157   6.559  14.671  21.178 -0.0913  0.0163  0.1267
27241W        W70158   6.996  16.844  21.111  0.0379 -0.1579 -0.1438
27242W        W70159   6.965  15.095  20.961  0.1610  0.1297 -0.0733
27243W        W70160   6.025  16.192  20.076  0.0277  0.1992 -0.2888
27244W        W70161   5.157  13.514  19.234  0.2883 -0.0315  0.2369
27245W        W70162   4.418  16.531  23.626 -0.2392  0.4804 -0.0534
27246W        W70163   4.620  19.129  21.838  0.0896 -0.1344 -0.0786
27247W        W70164   4.212  17.407  19.715  0.0164  0.1667 -0.1539
27248W        W70165   3.671  16.269  21.621 -0.0727  0.0565 -0.2440
27249W        W70166   7.896  14.256  24.603  0.1064 -0.2509 -0.0191
27250W        W70167   5.922  13.769  23.083 -0.1202  0.0382 -0.1587
27251W        W70168   5.087  15.887  21.148  0.1166  0.0402 -0.1329
27252W        W70169   4.735  14.888  21.065 -0.0449  0.0983  0.2340
27253W        W70170   6.782  19.004  19.522  0.0610  0.0709 -0.1359
27254W        W70171   4.643  13.113  23.432 -0.1051 -0.2104 -0.2639
27255W        W70172   3.507  14.169  21.775  0.2802  0.0505  0.3949
27256W        W70173   5.396  18.256  20.996 -0.0291  0.2121 -0.1235
27257W        W70174   5.808  17.704  21.166 -0.0959 -0.0609 -0.1258
27258W        W70175   6.772  14.229  21.914 -0.0190 -0.2436 -0.0065
27259W        W70176   6.747  17.134  24.623  0.0516  0.1894  0.2388
27260W        W70177   3.192  17.254  20.449 -0.0536 -0.0850  0.1640
27261W        W70178   7.455  15.578  25.889 -0.1748 -0.1780  0.0992
27262W        W70179   3.162  13.505  23.820 -0.1718 -0.2621 -0.1154
27263W        W70180   2.717  16.029  20.677 -0.1155 -0.1726 -0.0273
27264W        W70181   4.026  15.903  21.609  0.0198 -0.2238 -0.3123
27265W        W70182   6.026  15.672  20.176 -0.1311 -0.2393  0.1243
27266W        W70183   8.838  19.775  19.162 -0.2297 -0.0502 -0.1346
27267W        W70184   6.263  16.584  24.158 -0.0480 -0.0975  0.0879
27268W        W70185   4.051  14.964  24.180  0.0219  0.1709 -0.0059
27269W        W70186   4.449  13.564  23.383  0.1348  0.1065 -0.0778
27270W        W70187   6.894  14.457  21.528 -0.1367 -0.1233  0.1559
27271W        W70188   5.477  17.476  20.840 -0.2243 -0.0569 -0.0373
27272W        W70189   7.985  16.645  21.048  0.0124  0.2526  0.1616
27273W        W70190   5.216  15.592  20.663  0.2194  0.3346  0.0007
27274W        W70191   5.213  17.683  21.746  0.4276  0.1670 -0.2026
27275W        W70192   5.577  13.022  23.325  0.5048  0.3186 -0.2705
27276W        W70193   4.028  16.845  24.537 -0.3692  0.1421 -0.2218
27277W        W70194   7.113  16.373  21.266 -0.0282  0.0429  0.1138
27278W        W70195   3.496  14.238  22.678  0.0752  0.3434  0.2996
27279W        W70196   6.517  15.698  20.169  0.2580  0.0029  0.2804
27280W        W70197   4.198  18.459  21.862 -0.1546  0.4350  0.1123
27281W        W70198   3.841  16.760  21.839 -0.2763 -0.1206 -0.3434
27282W        W70199   4.367  15.668  21.259  0.0906 -0.0467 -0.2087
27283W        W70200   5.798  15.762  24.045 -0.2485 -0.2580 -0.0893
27284W        W70201   4.903  18.530  23.490 -0.2533  0.0872 -0.0497
27285W        W70202   6.608  16.975  21.467 -0.1878 -0.0852 -0.1725
27286W        W70203   5.025  14.786  21.791 -0.2788  0.2389 -0.2039
27287W        W70204   6.674  15.057  19.617  0.0132  0.2571 -0.0337
27288W        W70205   5.045  17.101  24.374 -0.1573 -0.1639  0.4391
27289W        W70206   6.412  17.411  24.454  0.1059  0.0791  0.0012
27290W        W70207   3.477  17.799  23.892 -0.1372 -0.2127  0.3313
27291W        W70208   7.353  17.101  19.245 -0.1095  0.1397  0.1048
27292W        W70209   3.679  14.121  24.023 -0.0006 -0.0671  0.4986
27293W        W70210   5.131  16.451  20.383  0.4003 -0.2398 -0.2896
27294W        W70211   5.455  15.407  22.376  0.2349 -0.0040 -0.1843
27295W        W70212   6.119  15.566  21.971  0.1072  0.2122  0.2510
27296W        W70213   4.396  14.499  22.593  0.0659 -0.0448 -0.2301
27297W        W70214   6.281  15.437  19.461 -0.1448  0.2066  0.2692
27298W        W70215   4.403  17.128  23.215  0.0119  0.0643  0.1834
27299W        W70216   7.224  17.192  22.338 -0.1684  0.0998 -0.0976
27300W        W70217   7.883  14.963  25.637  0.0101 -0.4769 -0.2091
27301W        W70218   3.834  15.428  25.730 -0.1073  0.1536 -0.0469
27302W        W70219   7.336  14.257  23.930 -0.1393 -0.0604  0.0165
27303W        W70220   6.008  16.389  23.781  0.0563  0.1261 -0.1592
27304W        W70221   4.709  13.121  26.284 -0.0524 -0.1710  0.3881
27305W        W70222   6.879  17.747  26.297  0.1197 -0.0236 -0.0912
27306W        W70223   4.245  14.291  24.705 -0.2903 -0.0799  0.2850
27307W        W70224   7.116  17.407  25.985 -0.1178  0.1369  0.0163
27308W        W70225   8.887  16.281  26.738  0.2158 -0.2450  0.0554
27309W        W70226   6.244  15.377  27.119  0.2847 -0.2807  0.2934
27310W        W70227   2.270  13.465  24.259 -0.0419 -0.0253  0.0021
27311W        W70228   4.678  17.759  27.326 -0.2042 -0.0392 -0.2062
27312W        W70229   6.590  14.235  23.914 -0.3346  0.1999  0.1185
27313W        W70230   2.764  12.697  25.208  0.0028 -0.0883 -0.2504
27314W        W70231   6.605  15.743  25.965  0.0156  0.1203  0.1251
27315W        W70232   5.276  17.538  24.496 -0.0663  0.2264 -0.3346
27316W        W70233   3.181  16.194  25.185 -0.0500 -0.1728  0.1870
27317W        W70234   6.708  16.636  24.414  0.0762  0.0761 -0.2184
27318W        W70235   7.350  17.817  25.207 -0.1318  0.0605  0.1302
27319W        W70236   3.808  15.909  28.256  0.3959  0.0568 -0.1185
27320W        W70237   5.053  15.329  27.849 -0.2453 -0.2280  0.3888
27321W        W70238   6.389  17.730  24.936  0.1677 -0.1814 -0.1621
27322W        W70239   3.008  17.540  25.431  0.3362 -0.1947 -0.4425
27323W        W70240   5.944  16.529  25.301  0.2968 -0.1312 -0.1095
27324W        W70241   3.764  16.443  26.074  0.1947 -0.4033 -0.2008
27325W        W70242   7.873  17.784  23.815  0.1955 -0.0294 -0.0289
27326W        W70243   8.110  16.392  25.801 -0.2074  0.2689  0.0972
27327W        W70244   4.939  17.921  23.883  0.0845 -0.2307  0.0888
27328W        W70245   4.989  17.817  26.560  0.1349 -0.0398  0.1044
27329W        W70246   8.015  15.918  26.022  0.1667  0.0132  0.3331
27330W        W70247   2.721  14.832  26.469  0.1929  0.1316 -0.3108
27331W        W70248   0.786  18.455  25.243  0.0281  0.0898  0.1873
27332W        W70249   4.690  17.981  26.111  0.1510 -0.0128  0.1488
27333W        W70250   8.548  14.710  27.588  0.1946  0.1391 -0.0610
27334W        W70251   7.596  17.744  28.109 -0.1988 -0.0280 -0.0089
27335W        W70252   5.142  17.675  29.334 -0.0003  0.2236  0.0458
27336W        W70253   5.143  18.287  26.042  0.0196  0.0839  0.0644
27337W        W70254   6.603  18.754  27.810  0.2653 -0.2008 -0.1617
27338W        W70255   5.367  16.552  27.852 -0.2195 -0.0023 -0.3448
27339W        W70256   5.222  14.806  26.536  0.3399  0.1288 -0.0343
27340W        W70257   4.572  16.506  25.334 -0.0760  0.1381  0.1100
27341W        W70258   5.952  18.136  24.794 -0.2812  0.1847 -0.0695
27342W        W70259   4.270  17.459  25.245  0.0530 -0.3062 -0.0361
27343W        W70260   5.387  17.824  27.730  0.1623  0.2223  0.0911
27344W        W70261   4.563  18.636  27.108  0.2434  0.1284  0.3217
27345W        W70262   6.891  14.770  27.421 -0.0953 -0.1531 -0.0496
27346W        W70263   1.573  17.553  23.600 -0.0900  0.1611 -0.3189
27347W        W70264   6.508  14.988  23.306  0.2591  0.0857  0.0598
27348W        W70265   6.217  16.047  24.082  0.0235 -0.2089  0.1931
27349W        W70266   7.792  14.802  25.156 -0.2065  0.2464  0.2203
27350W        W70267   2.633  12.455  26.412  0.0045  0.1334 -0.1161
27351W        W70268   4.438  17.786  24.017 -0.0228  0.1563  0.0575
27352W        W70269   4.046  15.888  25.664 -0.3744  0.2326 -0.1438
27353W        W70270   8.255  13.814  26.166  0.0333  0.2091 -0.0342
27354W        W70271   5.172  14.758  24.534 -0.1887 -0.0394  0.1909
27355W        W70272   8.364  14.218  25.933 -0.4267 -0.2313  0.0964
27356W        W70273   4.418  17.341  27.156  0.0106  0.1221 -0.2602
27357W        W70274   3.332  14.927  27.279 -0.0218 -0.0683 -0.1519
27358W        W70275   7.161  20.000  23.268  0.0422 -0.0023 -0.2883
27359W        W70276   7.998  18.356  25.148  0.1616 -0.1298  0.1571
27360W        W70277   6.915  18.810  24.393  0.1970 -0.0738  0.1804
27361W        W70278   4.684  14.826  25.653 -0.3169 -0.2567 -0.0893
27362W        W70279   5.349  15.458  26.938  0.0217 -0.0999  0.3228
27363W        W70280   4.080  15.404  26.625  0.0173 -0.0244 -0.2418
27364W        W70281   4.197  14.271  25.202  0.1284  0.0519  0.2231
27365W        W70282   7.882  16.766  28.663 -0.0191 -0.1076  0.1320
27366W        W70283   3.153  17.654  27.582 -0.0989  0.1303 -0.2308
27367W        W70284   6.920  16.316  24.769 -0.0815 -0.0533 -0.3385
27368W        W70285   6.058  15.983  26.524  0.2063 -0.2418  0.2763
27369W        W70286   5.332  15.825  26.166 -0.0792 -0.1021  0.0867
27370W        W70287   4.073  15.947  24.210 -0.1973 -0.2655  0.2550
27371W        W70288   6.795  15.159  24.657 -0.3895  0.0805 -0.1895
27372W        W70289   8.387  13.691  24.444  0.1619 -0.1463  0.1699
27373W        W70290   5.171  16.120  24.624 -0.1144 -0.1618 -0.1753
27374W        W70291   4.740  18.347  24.697 -0.0499  0.4100  0.0796
27375W        W70292   8.031  15.656  24.577  0.0707  0.0359  0.0011
27376W        W70293   7.587  16.608  25.510 -0.0144  0.0113 -0.0821
27377W        W70294   4.590  17.972  24.436  0.2779 -0.3559 -0.2792
27378W        W70295   4.896  16.023  25.892 -0.0152  0.1540  0.1975
27379W        W70296   8.388  15.458  28.222 -0.2989 -0.1556  0.0065
27380W        W70297   3.587  16.847  23.170  0.0294 -0.2040 -0.1472
27381W        W70298   5.642  19.008  26.349  0.1409  0.1796 -0.1009
27382W        W70299   5.814  17.507  23.830  0.0333  0.3139 -0.3194
27383W        W70300   2.015  14.321  24.987 -0.0374 -0.3480 -0.0201
27384W        W70301   6.401  16.622  27.116  0.1539 -0.1427  0.1095
27385W        W70302   7.908  15.733  25.100 -0.0797  0.0642 -0.0458
27386W        W70303   3.408  13.884  27.281 -0.1669 -0.1983  0.1579
27387W        W70304   8.208  13.239  24.598  0.0290  0.2652  0.1273
27388W        W70305   3.922  13.929  24.437 -0.1156  0.1529 -0.0514
27389W        W70306   6.283  17.585  25.453 -0.1201 -0.2232  0.2777
27390W        W70307   9.554  15.046  24.798  0.2841 -0.1825  0.2592
27391W        W70308   7.637  18.050  24.880  0.0823 -0.2893 -0.0459
27392W        W70309   1.561  16.851  25.380 -0.2093 -0.3624  0.4287
27393W        W70310   5.473  14.956  25.227 -0.1579 -0.3303 -0.1479
27394W        W70311   5.235  14.390  26.911  0.2098  0.3501  0.1523
27395W        W70312   3.796  14.657  26.383 -0.0278 -0.3950 -0.2506
27396W        W70313   7.992  15.594  27.138 -0.1696 -0.2551  0.0188
27397W        W70314   3.234  14.300  23.589  0.1230 -0.1999 -0.1417
27398W        W70315   7.815  13.990  25.230  0.3820 -0.2425  0.0702
27399W        W70316   6.231  18.094  23.522  0.1014 -0.2612 -0.0974
27400W        W70317   6.995  15.436  25.553 -0.0587  0.1377 -0.1607
27401W        W70318   8.345  14.957  26.365  0.1753 -0.1641  0.1443
27402W        W70319   8.509  16.428  25.512 -0.0077 -0.2062  0.2746
27403W        W70320   5.079  17.413  25.676  0.2509  0.1599 -0.3280
27404W        W70321   7.663  16.530  24.730 -0.0294  0.2345 -0.0520
27405W        W70322   3.046  15.767  25.528 -0.1440 -0.2707 -0.0696
27406W        W70323   7.094  13.921  23.515  0.1193  0.1531  0.1307
27407W        W70324   2.786  18.845  26.820 -0.1111  0.0774  0.1969
27408W        W70325   5.238  17.101  26.906  0.0220  0.3339  0.3219
27409W        W70326   7.586  14.598  25.922 -0.2267 -0.1184  0.2403
27410W        W70327   4.588  18.028  26.926 -0.3035  0.0058  0.1507
27411W        W70328   5.470  16.760  25.117  0.0303 -0.2459 -0.0101
27412W        W70329   4.388  18.223  27.395 -0.0041  0.1452 -0.0137
27413W        W70330   6.853  16.890  25.939 -0.0367 -0.0996 -0.1970
27414W        W70331   8.593  15.750  24.238 -0.2627  0.0829  0.1821
27415W        W70332   6.396  17.890  25.913  0.1173 -0.1052  0.1290
27416W        W70333   5.696  13.959  23.620 -0.1534 -0.1284  0.1988
27417W        W70334   5.839  16.774  24.296  0.0885 -0.2916  0.2990
27418W        W70335   4.125  16.436  25.597  0.1963  0.3554 -0.3294
27419W        W70336   5.031  16.018  25.295 -0.0873 -0.4665 -0.2961
27420W        W70337   5.891  16.384  25.793 -0.1659  0.1179  0.0092
27421W        W70338   6.609  15.622  24.465  0.0768  0.1943  0.0248
27422W        W70339   4.075  15.720  27.033 -0.1356  0.0817  0.0598
27423W        W70340   5.594  16.349  27.395 -0.0683 -0.0482  0.0523
27424W        W70341   6.522  14.374  25.086  0.2003  0.2148  0.3016
27425W        W70342   4.986  17.792  28.183 -0.0086 -0.0607 -0.1241
27426W        W70343   6.295  15.289  24.758  0.0506 -0.3627 -0.0948
27427W        W70344   6.686  16.697  23.395  0.1142  0.2826  0.2192
27428W        W70345   7.108  16.286  28.147 -0.2030 -0.0953 -0.1526
27429W        W70346   7.816  16.865  25.060 -0.0195 -0.0234 -0.1896
27430W        W70347   6.078  14.877  24.472  0.0503 -0.0235 -0.4359
27431W        W70348   6.810  15.764  24.950 -0.1021  0.3005  0.0269
27432W        W70349   3.077  16.875  28.290  0.0655  0.3811  0.0531
27433W        W70350   5.581  17.263  25.073 -0.3765 -0.0719  0.0459
27434W        W70351   5.940  15.291  24.045  0.3804  0.2162 -0.0994
27435W        W70352   4.266  15.430  25.455 -0.1575 -0.6286  0.1213
27436W        W70353   9.079  16.144  24.527 -0.0976 -0.0446  0.1920
27437W        W70354   5.463  17.828  28.393 -0.0771  0.0348  0.2018
27438W        W70355   5.858  16.020  27.695 -0.1950  0.0072 -0.2709
27439W        W70356   5.157  16.249  22.359  0.1236 -0.2492  0.0675
27440W        W70357   6.478  13.160  26.931  0.1013  0.0983 -0.1329
27441W        W70358   4.790  16.814  24.040 -0.0101 -0.3870  0.1241
27442W        W70359   5.696  15.000  26.704  0.2709  0.1908  0.2905
27443W        W70360   2.590  17.040  23.187 -0.2908  0.3845  0.1117
27444W        W70361   8.643  15.470  24.653  0.0819 -0.3157  0.2200
27445W        W70362   3.709  13.306  26.956 -0.1450  0.0620 -0.0640
27446W        W70363   4.518  15.443  27.538  0.2282  0.3114  0.1757
27447W        W70364   9.534  15.817  29.113  0.0345 -0.0370  0.4401
27448W        W70365   6.936  14.444  23.639  0.0342 -0.1339  0.1059
27449W        W70366   6.248  16.009  25.268 -0.1389  0.0519  0.0231
27450W        W70367   5.886  15.567  24.847  0.3873 -0.0420 -0.2052
27451W        W70368   5.816  16.005  25.486  0.0819 -0.0297 -0.1492
27452W        W70369   4.484  17.438  27.666  0.0628 -0.0807 -0.0994
27453W        W70370   5.025  16.477  25.598 -0.2007 -0.0120 -0.0311
27454W        W70371   9.648  16.409  27.825 -0.1989  0.1076 -0.0793
27455W        W70372   4.302  17.348  22.670 -0.1864  0.1722  0.4341
27456W        W70373   4.130  16.743  29.935  0.0849 -0.2210  0.0970
27457W        W70374   3.948  12.953  23.910  0.0158  0.0434  0.0341
27458W        W70375   3.888  17.527  24.051 -0.1650 -0.0622  0.2195
27459W        W70376   6.393  18.056  24.521  0.0242 -0.1474 -0.1569
27460W        W70377   4.388  14.311  23.657  0.1375 -0.0190 -0.3105
27461W        W70378   4.884  18.810  25.654  0.1493  0.1609 -0.0515
27462W        W70379   5.343  15.718  24.288 -0.2930  0.2637  0.0854
27463W        W70380   6.673  17.240  26.351 -0.1601  0.3428  0.0189
27464W        W70381   3.353  17.259  25.669  0.1556 -0.0862  0.3224
27465W        W70382   7.983  16.750  29.151 -0.0470  0.2642  0.2984
27466W        W70383   3.051  17.615  24.926 -0.1592 -0.0716 -0.0726
27467W        W70384   4.613  15.752  25.093 -0.3013 -0.1142 -0.1142
27468W        W70385   3.082  17.122  26.351  0.0592 -0.0067  0.0206
27469W        W70386   7.578  14.798  24.627  0.0511 -0.0328  0.2300
27470W        W70387   7.440  17.663  24.715  0.3510 -0.1392  0.0448
27471W        W70388   3.723  15.169  26.280  0.0143  0.0757 -0.0687
27472W        W70389   5.883  16.855  24.855 -0.1216 -0.2513  0.1197
27473W        W70390   4.324  15.886  26.551 -0.0625 -0.0897  0.3939
27474W        W70391   6.335  16.774  25.142 -0.0980 -0.2811 -0.2348
27475W        W70392   5.685  14.259  22.989 -0.4141 -0.0331  0.0008
27476W        W70393   7.610  15.487  26.768  0.0137 -0.5812 -0.4416
27477W        W70394   7.602  16.149  30.187 -0.0011  0.2240 -0.1085
27478W        W70395   3.564  15.443  25.014  0.3374 -0.2728  0.2466
27479W        W70396   7.773  15.255  24.502  0.0003 -0.2476  0.3846
27480W        W70397   4.184  17.769  25.717  0.0033  0.1792 -0.0136
27481W        W70398   4.252  16.864  24.054 -0.1931 -0.0974 -0.0278
27482W        W70399   6.460  17.415  25.892 -0.1135 -0.1399  0.0644
27483W        W70400   7.392  14.259  24.446  0.1068  0.0878  0.0417
27484W        W70401   5.399  15.338  26.438  0.1914  0.1194 -0.4031
27485W        W70402   3.833  16.550  27.518  0.2705 -0.0256 -0.0969
27486W        W70403   7.905  14.273  25.676  0.0159 -0.0115 -0.3770
27487W        W70404   5.969  14.252  24.875 -0.2595 -0.0070  0.0589
27488W        W70405   3.121  13.201  24.732  0.0307  0.0759 -0.2231
27489W        W70406   6.763  16.943  27.410  0.0134  0.0656 -0.0028
27490W        W70407   4.502  18.761  23.863 -0.0270 -0.1632  0.3397
27491W        W70408   5.005  15.778  27.462 -0.3992  0.5357 -0.4652
27492W        W70409   4.852  17.223  27.347 -0.3970 -0.3941  0.2683
27493W        W70410   5.674  14.331  27.754  0.2094 -0.1265  0.0768
27494W        W70411   7.608  17.282  23.865  0.1003 -0.3633  0.3914
27495W        W70412   7.540  15.885  27.124 -0.0386  0.1074 -0.0413
27496W        W70413   3.713  15.529  24.207  0.0656  0.2056  0.4559
27497W        W70414   4.979  15.627  24.674 -0.1310 -0.2731 -0.1601
27498W        W70415   6.023  18.349  24.152  0.1002  0.1238  0.0316
27499W        W70416   4.123  13.696  25.784 -0.2814 -0.1028  0.0264
27500W        W70417   4.515  18.034  28.322 -0.1502  0.4381 -0.2630
27501W        W70418   4.393  14.772  24.901 -0.1299  0.0687  0.1424
27502W        W70419   4.051  15.646  27.553 -0.1225  0.2006 -0.1684
27503W        W70420   6.608  13.433  25.173  0.1726 -0.2056 -0.2407
27504W        W70421   5.835  15.544  23.524  0.2937 -0.1033  0.0213
27505W        W70422   5.689  15.288  24.504  0.1033 -0.1068  0.2012
27506W        W70423   7.964  15.450  26.328  0.2627  0.3368 -0.2966
27507W        W70424   9.597  14.916  25.274 -0.1400 -0.3780 -0.0624
27508W        W70425   6.304  16.042  29.354 -0.2856 -0.2465 -0.0327
27509W        W70426   4.020  15.524  26.165 -0.2882  0.1052 -0.0733
27510W        W70427   8.022  18.273  24.496  0.3803 -0.2097 -0.0790
27511W        W70428   3.701  15.280  28.876 -0.4722  0.2737 -0.0546
27512W        W70429   4.310  19.291  27.827 -0.1576 -0.1438  0.1121
27513W        W70430   5.128  16.061  27.882 -0.2442 -0.1168  0.3603
27514W        W70431   5.531  13.515  24.457  0.2027 -0.0405 -0.0720
27515W        W70432   3.453  13.628  25.171 -0.1066 -0.2321 -0.1405
27516W        W70433   6.122  17.184  26.166 -0.1444  0.1116 -0.2730
27517W        W70434   5.112  16.943  25.479 -0.0744  0.2440  0.2690
27518W        W70435   7.311  17.873  26.403 -0.0981  0.0817 -0.0459
27519W        W70436   8.092  13.741  25.669 -0.0544 -0.0535 -0.2200
27520W        W70437   4.430  14.840  27.350 -0.5132  0.0335 -0.1140
27521W        W70438   7.659  17.402  25.074 -0.3045  0.0697 -0.0498
27522W        W70439   6.318  16.834  24.590 -0.2807 -0.1690  0.0885
27523W        W70440   4.246  16.735  26.032  0.1634 -0.0613  0.3363
27524W        W70441   2.812  13.978  27.141  0.1685  0.3542  0.1708
27525W        W70442   8.382  15.700  25.045 -0.0252  0.3897 -0.0848
27526W        W70443   8.632  16.005  24.698  0.3419  0.2034  0.1074
27527W        W70444   6.045  16.335  24.489 -0.2772 -0.3397 -0.0705
27528W        W70445   7.298  17.968  24.339 -0.1170  0.0528  0.0867
27529W        W70446   5.408  16.168  25.820 -0.1008  0.0736 -0.0783
27530W        W70447   4.240  14.064  27.760 -0.1542 -0.1446  0.0622
27531W        W70448   4.717  17.200  25.318  0.0716 -0.2574 -0.0223
27532W        W70449   7.501  13.523  25.358 -0.1354  0.2130 -0.0546
27533W        W70450   6.908  15.380  26.027 -0.1223  0.2145 -0.0752
27534W        W70451   9.438  15.532  25.879  0.1715 -0.5148 -0.1207
27535W        W70452   5.643  18.058  24.385  0.0073 -0.1512 -0.1916
27536W        W70453   5.570  13.363  26.717  0.1277 -0.3127 -0.3635
27537W        W70454   6.894  16.450  27.510 -0.1768 -0.0874 -0.1060
27538W        W70455   4.740  13.508  25.316 -0.3684  0.0523  0.1223
27539W        W70456   6.537  15.315  25.666 -0.3254  0.3225  0.1427
27540W        W70457   4.597  18.152  23.679  0.1383 -0.2019  0.3954
27541W        W70458   8.118  17.002  26.740 -0.2891 -0.0926  0.3140
27542W        W70459   8.909  15.478  25.101  0.1364  0.0887 -0.1473
27543W        W70460   2.204  16.126  24.753 -0.3610 -0.0149  0.2122
27544W        W70461   5.415  17.749  25.957  0.2061 -0.1274 -0.2030
27545W        W70462   5.706  14.791  24.755 -0.0546  0.4237 -0.4161
27546W        W70463   5.921  16.747  26.346  0.5819  0.0130 -0.1897
27547W        W70464   5.646  15.411  25.374  0.1468  0.2519  0.1545
27548W        W70465   6.731  15.852  28.465 -0.0430  0.0923  0.1683
27549W        W70466   6.611  14.297  26.671  0.4471  0.1336 -0.2142
27550W        W70467   8.734  14.933  28.017  0.2727  0.1432  0.1162
27551W        W70468   5.085  18.074  27.321  0.0715 -0.1805  0.0745
27552W        W70469   6.097  16.267  28.091 -0.0893  0.4163 -0.0472
27553W        W70470   4.775  16.837  26.969  0.0094  0.4229 -0.1418
27554W        W70471   3.992  17.090  27.487 -0.0293 -0.0728 -0.0182
27555W        W70472   3.921  18.027  26.109 -0.0903  0.4471 -0.1760
27556W        W70473   6.225  16.498  26.627  0.0784  0.1464  0.2424
27557W        W70474   5.910  15.319  25.757 -0.0590 -0.1518  0.2044
27558W        W70475   7.253  15.741  25.212  0.3137 -0.0750  0.1230
27559W        W70476  10.018  15.255  25.893  0.0004  0.1563 -0.0413
27560W        W70477   6.439  16.497  25.579 -0.2232 -0.2276  0.1108
27561W        W70478   7.331  16.993  25.746 -0.3117 -0.0156  0.2093
27562W        W70479   6.372  16.617  26.116  0.0175 -0.1976 -0.0848
27563W        W70480   9.393  15.423  25.212  0.1092 -0.1967 -0.2818
27564W        W70481   4.841  17.593  24.274 -0.2715  0.3161 -0.1628
27565W        W70482   3.418  18.063  27.538 -0.0297  0.1132  0.0018
27566W        W70483   7.128  14.450  26.665  0.3708 -0.2829  0.3001
27567W        W70484   5.533  17.692  25.465 -0.0033  0.3540  0.3851
27568W        W70485   5.517  14.456  25.978  0.0853 -0.0122 -0.4214
27569W        W70486   5.960  17.116  25.372 -0.0727 -0.2816  0.2348
27570W        W70487   5.482  19.167  28.157  0.1275  0.0855  0.0478
27571W        W70488   2.868  14.447  26.171 -0.4030 -0.0985 -0.0424
27572W        W70489   6.119  17.238  23.521 -0.0540  0.0464  0.0823
27573W        W70490   7.022  17.486  26.680  0.1233  0.0410 -0.1528
27574W        W70491   5.352  17.746  23.542  0.2194  0.0850  0.1294
27575W        W70492   4.935  17.451  26.200  0.2520 -0.1732  0.1332
27576W        W70493   4.550  14.625  26.110  0.2191 -0.1325 -0.3143
27577W        W70494   4.809  17.819  25.635  0.2453 -0.1939  0.1933
27578W        W70495   3.922  16.998  26.337  0.2771 -0.0317  0.2558
27579W        W70496   5.827  18.207  23.255 -0.0198  0.1229 -0.1489
27580W        W70497   5.859  17.986  25.761  0.0084  0.2266  0.2923
27581W        W70498   7.756  16.793  27.105  0.0268  0.1442 -0.2797
27582W        W70499   7.222  15.339  22.850  0.2861  0.1532  0.2503
27583W        W70500   7.477  14.073  25.816 -0.2091  0.0096  0.0816
27584W        W70501   9.448  15.884  25.430 -0.2894  0.1197 -0.1547
27585W        W70502   5.935  17.616  26.836 -0.0421 -0.2186 -0.1062
27586W        W70503   5.881  15.664  27.025 -0.0163 -0.0586  0.0351
27587W        W70504   4.642  15.167  25.289  0.0896  0.0264  0.0557
27588W        W70505   5.878  15.444  26.560  0.0900  0.1402 -0.1376
27589W        W70506   6.952  15.155  28.782 -0.1033  0.1182 -0.1643
27590W        W70507   6.044  18.100  27.332  0.2786 -0.0300  0.0874
27591W        W70508   6.530  16.257  23.787  0.0010 -0.1802  0.0330
27592W        W70509   4.513  15.214  23.946  0.3053  0.2242  0.2735
27593W        W70510   5.810  16.226  24.970  0.0557 -0.0681  0.2096
27594W        W70511   8.216  14.531  26.561  0.1269  0.1325  0.0201
27595W        W70512   6.587  15.695  21.654  0.2711  0.0062  0.1158
27596W        W70513   7.546  15.650  24.675  0.1192  0.2398 -0.2973
27597W        W70514   4.017  19.738  25.386 -0.2465  0.0959 -0.2488
27598W        W70515   5.930  17.676  25.127 -0.0358 -0.1490  0.0728
27599W        W70516   6.906  17.248  25.468  0.3744  0.1200 -0.0729
27600W        W70517   4.027  13.791  23.748  0.2889 -0.1354  0.0131
27601W        W70518  10.105  15.773  25.804  0.1915  0.1903 -0.0243
27602W        W70519   5.561  16.727  25.567  0.2042 -0.3982 -0.0902
27603W        W70520   7.143  16.089  25.578 -0.1880 -0.2278 -0.2812
27604W        W70521   4.369  16.283  25.999 -0.0724  0.1819  0.0053
27605W        W70522   7.273  13.645  25.961  0.1961  0.2184  0.1169
27606W        W70523   5.119  17.579  27.079 -0.1815  0.1352 -0.0209
27607W        W70524   2.481  15.130  24.770 -0.0799  0.1785  0.2611
27608W        W70525   5.713  15.308  22.875 -0.0664  0.3149  0.0031
27609W        W70526   6.349  16.078  26.937  0.1237 -0.0607  0.0419
27610W        W70527   5.131  17.490  25.194 -0.2414  0.0694  0.1664
27611W        W70528   8.017  17.532  26.921  0.1197 -0.1868  0.0795
27612W        W70529   1.907  14.535  26.000  0.0480 -0.2976  0.2308
27613W        W70530   7.406  14.983  26.709  0.2534 -0.1212 -0.1279
27614W        W70531   5.419  16.602  26.071 -0.1587 -0.0378 -0.2479
27615W        W70532   4.849  15.027  26.184 -0.1892  0.2643 -0.4091
27616W        W70533   7.877  17.437  27.800  0.1059 -0.1198 -0.0513
27617W        W70534   1.866  14.526  25.505 -0.3361  0.0459 -0.0524
27618W        W70535   8.143  17.638  23.289 -0.2827  0.0895  0.0588
27619W        W70536   6.947  16.296  26.661  0.0039 -0.0636  0.2293
27620W        W70537   4.395  16.834  22.674  0.1610 -0.3330 -0.1215
27621W        W70538   7.982  16.219  24.606  0.2110 -0.1802 -0.0122
27622W        W70539   6.782  19.597  26.188 -0.1021 -0.0080  0.0169
27623W        W70540   2.649  12.919  24.771 -0.1006  0.2782  0.1461
27624W        W70541   6.720  17.555  27.151  0.0629  0.1191  0.1704
27625W        W70542   9.075  16.733  27.947  0.1501 -0.3737  0.0231
27626W        W70543   5.212  13.111  25.351  0.3636  0.0162  0.1551
27627W        W70544   4.857  15.232  26.657  0.3396  0.1508 -0.1147
27628W        W70545   3.861  16.692  27.057 -0.2337  0.1293 -0.1860
27629W        W70546   8.881  16.155  26.239 -0.0603 -0.3360  0.1235
27630W        W70547   7.840  16.340  26.300  0.1360 -0.1349  0.2717
27631W        W70548   5.823  18.147  23.750  0.2953  0.0471 -0.2145
27632W        W70549   5.518  15.781  27.391  0.0627 -0.1155  0.1518
27633W        W70550   7.946  16.159  27.162 -0.1251 -0.1717 -0.1547
27634W        W70551   7.294  18.230  26.895  0.2608 -0.2055 -0.0501
27635W        W70552   6.695  14.832  26.896  0.1567  0.4064  0.1702
27636W        W70553   6.275  16.119  25.959 -0.2249 -0.1445  0.2168
27637W        W70554   5.439  16.524  24.654  0.2030 -0.0213 -0.2202
27638W        W70555   6.254  18.863  25.885 -0.0867  0.3056 -0.0064
27639W        W70556   6.267  17.010  26.646  0.0941  0.2798  0.2553
27640W        W70557   6.982  16.693  25.488 -0.1207 -0.0569  0.2182
27641W        W70558   7.224  16.606  24.556  0.3231  0.3714  0.1433
27642W        W70559   4.543  15.571  26.898 -0.4146  0.0589  0.0542
27643W        W70560   6.399  13.539  24.642 -0.2066  0.0940  0.1520
27644W        W70561   3.415  14.451  24.220 -0.0439  0.0169  0.3329
27645W        W70562   3.757  16.878  25.790  0.0206  0.1101 -0.0275
27646W        W70563   3.925  13.484  23.312 -0.0534  0.0624  0.1640
27647W        W70564   5.488  17.170  24.112 -0.0795  0.1572 -0.2150
27648W        W70565   5.295  16.235  26.419 -0.2960  0.2641 -0.0545
27649W        W70566   6.788  14.370  27.143 -0.0542 -0.0912  0.3348
27650W        W70567   5.987  14.471  25.786  0.1238 -0.0444 -0.1693
27651W        W70568   5.113  17.151  24.850  0.2407 -0.2304 -0.3701
27652W        W70569   3.792  13.121  26.520  0.0984 -0.1798 -0.0371
27653W        W70570   7.088  15.882  24.572  0.0549  0.1057  0.1608
27654W        W70571   3.286  14.177  26.095  0.1238  0.4684 -0.0051
27655W        W70572   4.100  15.117  27.699  0.3595  0.0661 -0.0245
27656W        W70573   6.823  18.305  25.202  0.0099  0.1289  0.0522
27657W        W70574   8.133  17.726  27.415 -0.1487  0.2667 -0.3908
27658W        W70575   4.684  12.759  25.764  0.3753  0.0391 -0.0724
27659W        W70576   8.340  15.887  27.434  0.1346  0.0745  0.3305
27660W        W70577   5.982  16.879  25.806  0.1248 -0.1851 -0.1751
27661W        W70578   4.988  15.484  26.043  0.0321  0.1996  0.0625
27662W        W70579   5.845  15.069  26.191 -0.0662 -0.2441  0.1551
27663W        W70580   4.288  14.320  27.352 -0.0416 -0.1167  0.2822
27664W        W70581   7.245  14.878  26.254  0.1974  0.0995  0.2027
27665W        W70582   6.433  17.028  24.159  0.1231 -0.4453  0.2690
27666W        W70583   4.871  15.854  23.877  0.3030 -0.1346 -0.0915
27667W        W70584   6.895  18.562  26.866 -0.1031  0.1252  0.0501
27668W        W70585   7.401  16.464  27.305  0.0765  0.0508  0.0767
27669W        W70586   2.442  15.832  25.954 -0.1677 -0.6484  0.0598
27670W        W70587   7.391  16.533  24.092  0.0334 -0.2420  0.2345
27671W        W70588   6.855  17.586  28.162  0.3767 -0.3871  0.0707
27672W        W70589   7.080  16.580  22.880  0.0665  0.0446 -0.1089
27673W        W70590   8.233  14.634  25.583  0.1875 -0.0955  0.2418
27674W        W70591   6.422  17.018  25.591 -0.0778  0.3491 -0.3444
27675W        W70592   2.518  15.099  28.172  0.0316  0.2009  0.4334
27676W        W70593   4.857  16.512  27.879  0.0894 -0.2364 -0.0517
27677W        W70594   7.556  16.287  26.813  0.1500 -0.0981  0.1999
27678W        W70595   3.832  13.503  25.422 -0.2583  0.1194  0.1221
27679W        W70596   6.528  16.188  24.437  0.0713  0.0046 -0.2662
27680W        W70597   6.277  15.900  24.767 -0.1192 -0.0689  0.5106
27681W        W70598   4.451  15.701  26.016 -0.0069 -0.0005 -0.0360
27682W        W70599   4.210  15.260  24.954 -0.0134  0.1112  0.2169
27683W        W70600   7.372  16.009  27.679 -0.0045  0.2006  0.0990
27684W        W70601   4.294  16.908  25.440 -0.1282 -0.0782  0.1836
27685W        W70602   7.065  16.655  28.551  0.2120 -0.0153 -0.0866
27686W        W70603   6.292  15.160  26.615 -0.0928  0.0774 -0.1430
27687W        W70604  10.157  16.225  25.697  0.0194 -0.0272  0.1867
27688W        W70605   5.115  16.966  25.975  0.0150  0.0270  0.0602
27689W        W70606   6.107  17.229  27.065 -0.2257  0.0283  0.0404
27690W        W70607   4.073  17.428  27.907  0.1152  0.1300  0.0605
27691W        W70608   8.126  16.390  26.775 -0.2738  0.0002  0.0535
27692W        W70609   4.283  13.996  26.917  0.3022 -0.1005 -0.0031
27693W        W70610   6.400  16.333  24.920  0.1378  0.1980 -0.0067
27694W        W70611   5.748  16.217  26.233  0.0024 -0.2636 -0.1698
27695W        W70612   7.369  16.044  23.918 -0.1343 -0.2478  0.0059
27696W        W70613   3.911  14.902  26.797  0.2803 -0.0594 -0.0582
27697W        W70614   6.444  14.564  25.553  0.0392  0.1102  0.1487
27698W        W70615   4.688  16.113  26.360 -0.2740 -0.1181 -0.2005
27699W        W70616   6.288  14.930  26.034  0.0787  0.1295 -0.3108
27700W        W70617   5.876  18.124  30.457  0.0577  0.0342  0.0097
27701W        W70618   4.687  17.687  28.620 -0.0695 -0.1213 -0.1002
27702W        W70619   7.881  15.895  27.659 -0.2184 -0.0557  0.2781
27703W        W70620   7.843  16.505  27.554  0.0257 -0.4587  0.0365
27704W        W70621   4.299  15.246  29.179  0.1422  0.0896  0.1774
27705W        W70622   3.373  18.613  29.513  0.2686  0.3336 -0.3424
27706W        W70623   4.009  14.851  30.495  0.1439 -0.2408 -0.3904
27707W        W70624   6.378  16.375  28.925 -0.0865  0.2296 -0.1289
27708W        W70625   6.326  16.008  29.909 -0.0777 -0.1009  0.3233
27709W        W70626   6.619  15.961  28.932  0.2337 -0.0222 -0.0712
27710W        W70627   6.628  15.263  31.602 -0.2025  0.0175 -0.2072
27711W        W70628   6.466  17.332  30.092  0.0237  0.2150 -0.3849
27712W        W70629   4.693  16.788  28.260 -0.0139  0.0151 -0.1609
27713W        W70630   3.581  14.834  31.722  0.0880  0.2303 -0.6763
27714W        W70631   5.662  15.447  29.228 -0.1207  0.0591 -0.0281
27715W        W70632   2.566  16.824  27.564 -0.3352 -0.1923 -0.2519
27716W        W70633   4.982  15.586  29.676  0.1008  0.1304 -0.0976
27717W        W70634   6.141  13.818  29.926 -0.0464  0.0454  0.0792
27718W        W70635   6.777  19.228  27.764  0.0787  0.1348  0.1024
27719W        W70636   5.704  15.112  30.087 -0.0317 -0.0885 -0.1607
27720W        W70637   9.109  14.100  31.642  0.0438  0.2330  0.3815
27721W        W70638   8.491  16.797  29.730  0.0147  0.2977 -0.0315
27722W        W70639   3.216  15.171  26.452  0.3569 -0.0662  0.1449
27723W        W70640   4.846  16.342  29.698  0.0613  0.0952  0.2185
27724W        W70641   3.794  16.451  28.040  0.0661  0.0005  0.4133
27725W        W70642   6.528  16.622  29.420 -0.2422 -0.0114  0.1549
27726W        W70643   7.649  15.379  28.268 -0.0574  0.0243 -0.1044
27727W        W70644   7.042  19.105  26.972 -0.0319 -0.0903 -0.1895
27728W        W70645   7.462  17.403  30.253  0.0451 -0.2131 -0.1010
27729W        W70646   5.763  14.334  30.932  0.3776  0.0089 -0.0443
27730W        W70647   2.277  17.684  28.911  0.0149  0.1253  0.3886
27731W        W70648   2.504  19.072  29.633  0.2107  0.0290  0.1838
27732W        W70649   6.146  18.131  29.001 -0.1978  0.0890 -0.0734
27733W        W70650   8.773  16.880  28.478 -0.0955  0.0333 -0.1257
27734W        W70651   6.296  16.034   0.165 -0.0026  0.0570  0.0534
27735W        W70652   5.610  17.590  29.452 -0.0442  0.0255 -0.2947
27736W        W70653   3.734  20.405  29.421 -0.0214 -0.1811 -0.5130
27737W        W70654   6.304  17.415  28.196  0.0653 -0.0143 -0.1381
27738W        W70655   5.066  17.260   2.914 -0.1495  0.0001 -0.2025
27739W        W70656   6.354  17.036  31.015  0.0583 -0.0280 -0.0511
27740W        W70657   5.433  18.900  30.062 -0.1285  0.1659  0.0236
27741W        W70658   4.658  18.540  27.667  0.1259  0.1774  0.2074
27742W        W70659   5.817  16.814  27.006  0.1069 -0.0716  0.3739
27743W        W70660   3.529  15.905   1.997 -0.1172 -0.0324  0.0466
27744W        W70661   2.807  17.998  31.347 -0.2509 -0.3238  0.0573
27745W        W70662   7.593  14.272  31.296  0.3046 -0.2367 -0.0208
27746W        W70663   4.294  18.396  28.007  0.4078  0.0238  0.0875
27747W        W70664   6.524  16.111  26.447 -0.3694 -0.1922  0.3657
27748W        W70665   5.672  15.218  27.206  0.0945  0.2706  0.2391
27749W        W70666   7.816  18.080  27.704 -0.0194  0.2218 -0.1587
27750W        W70667   5.465  16.194  29.244 -0.1499 -0.4650 -0.0171
27751W        W70668   7.272  17.512  28.447 -0.2721  0.2676  0.2089
27752W        W70669   6.183  16.317  30.500  0.0658 -0.2795  0.0044
27753W        W70670   6.685  16.039  30.213 -0.0681  0.1477  0.1185
27754W        W70671   3.028  16.646  27.279  0.0257  0.0138 -0.1914
27755W        W70672   6.088  15.250  30.382  0.2840 -0.0773  0.1775
27756W        W70673   4.534  16.993  30.943 -0.0939  0.3472  0.1846
27757W        W70674   4.174  17.686  30.230 -0.3765  0.1549 -0.2765
27758W        W70675   5.322  16.039  27.024 -0.2396  0.3239  0.0590
27759W        W70676   8.440  17.504  28.461 -0.0078 -0.3119 -0.0454
27760W        W70677   6.984  17.121  28.321 -0.1046 -0.0899  0.0932
27761W        W70678   5.091  17.248  29.096 -0.1683  0.0689 -0.2267
27762W        W70679   4.781  17.406  31.213 -0.2099 -0.1261  0.1693
27763W        W70680   2.169  16.289  29.513 -0.1104  0.0707  0.2690
27764W        W70681   5.539  13.952  26.861 -0.0487 -0.1373 -0.1540
27765W        W70682   9.086  16.557  31.877  0.1788  0.2846 -0.0528
27766W        W70683   2.864  17.313   0.488  0.3832 -0.3153  0.2091
27767W        W70684   6.980  16.751  27.909 -0.0213  0.0145 -0.2564
27768W        W70685   5.277  18.895  27.790 -0.1901 -0.0678  0.2096
27769W        W70686   8.030  16.147  29.927 -0.2009  0.0252  0.0161
27770W        W70687   6.677  17.024  26.973 -0.0256  0.0313  0.2805
27771W        W70688   4.966  16.707  29.407 -0.1413 -0.0412 -0.0502
27772W        W70689   6.898  13.436  30.590 -0.0953 -0.0561  0.1468
27773W        W70690   6.759  15.816  26.908  0.0303 -0.0851 -0.0909
27774W        W70691   4.128  16.215  27.200 -0.2082 -0.0178 -0.0475
27775W        W70692   7.910  18.992  30.115 -0.2211 -0.3680  0.0115
27776W        W70693   7.692  16.272  28.953 -0.0013 -0.0819 -0.0435
27777W        W70694   5.572  18.819  31.725  0.0228  0.0529  0.0650
27778W        W70695   5.072  16.197  30.869  0.1182 -0.2257  0.1088
27779W        W70696   4.816  17.185  29.543  0.3189  0.0425 -0.3923
27780W        W70697   6.247  17.079  28.600 -0.1910 -0.2753 -0.4120
27781W        W70698   1.585  17.781  30.844 -0.3220 -0.0682 -0.1194
27782W        W70699   2.333  17.842  27.881  0.0060 -0.3559  0.0579
27783W        W70700   5.204  12.613  31.211  0.1668  0.0473  0.1862
27784W        W70701   4.783  18.901  30.577 -0.0628  0.0116  0.0832
27785W        W70702   8.222  15.743  29.184  0.0010  0.2732 -0.0207
27786W        W70703   4.353  15.123  30.038 -0.3163 -0.3543 -0.0163
27787W        W70704   9.184  15.001  30.710 -0.1167  0.0705 -0.1716
27788W        W70705   5.000  16.734  27.408  0.1768  0.0412  0.0234
27789W        W70706   8.084  18.788  29.237 -0.0674 -0.3880 -0.1297
27790W        W70707   9.098  15.946  28.612 -0.0629 -0.4693  0.0906
27791W        W70708   6.530  17.591  27.636 -0.3023 -0.1649 -0.0516
27792W        W70709   3.189  15.970  31.497 -0.3331 -0.2199 -0.0115
27793W        W70710   4.379  16.312  29.311  0.1779 -0.2039 -0.0655
27794W        W70711   3.347  14.970  30.946  0.3858  0.1826 -0.3562
27795W        W70712   4.520  15.416  29.564 -0.2187  0.0542  0.1914
27796W        W70713   6.240  15.074  30.819  0.0151 -0.2994 -0.0619
27797W        W70714   5.364  15.013  28.238 -0.3984 -0.2985  0.0294
27798W        W70715   8.657  15.410  28.642  0.2621 -0.0264  0.1621
27799W        W70716   5.679  16.669  28.277 -0.0897 -0.1354 -0.0948
27800W        W70717   2.766  17.823  28.670  0.2590 -0.3559 -0.1110
27801W        W70718   7.226  15.072  31.254  0.1459 -0.0641  0.0831
27802W        W70719   8.081  15.151  28.595 -0.1623  0.0294 -0.0772
27803W        W70720   5.972  17.536  31.057 -0.2960  0.0365  0.1795
27804W        W70721   9.040  16.325  30.023 -0.0971  0.1120  0.0818
27805W        W70722   5.650  17.713  28.891 -0.2936 -0.1229 -0.0623
27806W        W70723   4.301  16.521  31.013  0.0719 -0.0968  0.2102
27807W        W70724   4.234  18.596  31.394  0.0289 -0.0057 -0.1651
27808W        W70725   3.837  18.100  30.317 -0.1605  0.1864  0.1250
27809W        W70726   4.974  16.886  28.692  0.0041  0.0605  0.2986
27810W        W70727   9.683  17.837  28.148 -0.1342 -0.0530 -0.2757
27811W        W70728   8.084  17.962  29.218  0.1030 -0.2669 -0.0751
27812W        W70729   5.543  17.377  30.013  0.3033 -0.1069 -0.1518
27813W        W70730   6.424  14.883  30.348  0.2321  0.3281  0.1348
27814W        W70731   6.134  15.349  29.476 -0.3123 -0.3415  0.2159
27815W        W70732   7.260  16.477  31.003 -0.0214 -0.0423 -0.2950
27816W        W70733   2.522  14.621  28.001 -0.0206 -0.0569 -0.3470
27817W        W70734   5.833  17.595  27.990 -0.2895  0.0615  0.0885
27818W        W70735   3.872  18.651  28.330 -0.1548 -0.0429  0.4203
27819W        W70736   5.001  19.053  28.253 -0.2122  0.0806 -0.1337
27820W        W70737   7.004  17.438  27.569 -0.1193  0.0307 -0.2022
27821W        W70738   6.726  15.980  27.531  0.0290 -0.0712  0.1065
27822W        W70739   4.393  17.587  29.747  0.1818 -0.1429  0.1945
27823W        W70740   6.038  14.979   2.364 -0.0117 -0.3153 -0.0364
27824W        W70741   6.151  16.924  28.130 -0.0551 -0.0247 -0.0310
27825W        W70742   4.467  18.600  30.884 -0.2429  0.0781  0.2623
27826W        W70743   5.681  16.705  29.274 -0.0298  0.2185 -0.0950
27827W        W70744   7.223  15.337  24.960 -0.0444 -0.1062  0.1591
27828W        W70745   4.343  17.639  31.839 -0.0334 -0.1562 -0.3031
27829W        W70746   7.887  16.737  28.123  0.4156  0.1085  0.0989
27830W        W70747   6.664  13.882  24.983  0.0641 -0.2766  0.1155
27831W        W70748   6.596  16.834  28.344 -0.0694 -0.2797  0.2562
27832W        W70749   6.479  15.728   0.551  0.0915 -0.4578  0.0542
27833W        W70750   5.558  16.871  27.460 -0.2803  0.2095  0.0893
27834W        W70751   6.687  16.848  28.841  0.0285 -0.0194  0.3924
27835W        W70752   5.629  17.252  27.144  0.4011  0.1676 -0.2542
27836W        W70753  10.384  16.206  29.324 -0.1033 -0.3762 -0.2719
27837W        W70754   5.827  15.927  30.079 -0.2958  0.0091 -0.1911
27838W        W70755   6.443  15.523  29.100 -0.0139 -0.2466  0.1528
27839W        W70756   7.548  18.259  28.069  0.0845 -0.0304  0.0634
27840W        W70757   4.744  15.935  29.409  0.0080 -0.0662 -0.1167
27841W        W70758   6.093  16.623  29.548  0.1997 -0.1916  0.0874
27842W        W70759   5.877  14.646  28.072 -0.0207 -0.2059  0.1992
27843W        W70760   4.561  16.615  26.406 -0.0623  0.1117  0.0331
27844W        W70761   6.014  15.479  29.965 -0.3415  0.0293  0.0158
27845W        W70762   7.372  15.650  28.828 -0.0030  0.0583 -0.0151
27846W        W70763   4.294  15.835  31.252 -0.1174  0.0855  0.0220
27847W        W70764   8.427  15.074   0.127 -0.2238 -0.3635 -0.1721
27848W        W70765   6.934  16.261  29.554  0.0803 -0.3108 -0.1569
27849W        W70766   6.697  16.349  28.472 -0.2565  0.0909  0.1146
27850W        W70767   4.594  16.418  27.455 -0.2000 -0.0966  0.2999
27851W        W70768   6.752  15.234   0.144 -0.3723 -0.0514 -0.1641
27852W        W70769   2.305  15.815  30.349 -0.0422  0.2531 -0.0114
27853W        W70770   2.335  16.759  29.269  0.2054 -0.0796 -0.3491
27854W        W70771   5.839  16.083  30.726 -0.0826 -0.2292 -0.0663
27855W        W70772   8.058  17.753  29.750  0.1196  0.0251 -0.0146
27856W        W70773   5.239  13.356  29.758 -0.0762 -0.0634 -0.2053
27857W        W70774   6.299  14.374  28.194 -0.1246  0.3620 -0.0486
27858W        W70775   4.971  18.203  30.047  0.2525  0.0369  0.0230
27859W        W70776   4.653  18.006  27.820  0.0514  0.2271 -0.0940
27860W        W70777   3.575  14.817  30.189 -0.0462  0.0338  0.0926
27861W        W70778   6.399  18.249  28.605  0.0550 -0.2547 -0.1591
27862W        W70779   4.918  17.003  27.793 -0.1394 -0.1603 -0.2037
27863W        W70780   8.156  17.211  28.808  0.1634 -0.2636  0.1122
27864W        W70781   8.114  16.640  31.454 -0.0271 -0.1216  0.2595
27865W        W70782   3.916  15.336  28.389  0.1232  0.0254 -0.0924
27866W        W70783   4.114  17.306  28.407 -0.1435 -0.0924 -0.0893
27867W        W70784   5.293  15.644  30.147 -0.0674 -0.0487  0.1010
27868W        W70785   3.104  15.480  28.030 -0.1906 -0.0155 -0.1375
27869W        W70786   8.255  13.124  29.173 -0.0932 -0.2180  0.0898
27870W        W70787   7.599  17.001  29.285  0.1355  0.0158 -0.3919
27871W        W70788   4.433  14.058  31.750 -0.2992  0.0860  0.0643
27872W        W70789   5.937  17.136  29.438 -0.0210 -0.0368  0.1356
27873W        W70790   3.170  18.214  30.775 -0.0293  0.2575  0.0092
27874W        W70791   5.333  18.131  30.489 -0.1780  0.3112 -0.2399
27875W        W70792   4.958  16.478  26.121 -0.0078 -0.2287 -0.0239
27876W        W70793   6.950  15.718  30.623  0.1136 -0.0316  0.0158
27877W        W70794   6.211  16.865  30.524  0.2068  0.2011  0.1150
27878W        W70795   5.683  18.089  28.042 -0.2047 -0.1182 -0.0730
27879W        W70796   6.525  14.144  28.786  0.1799  0.2357  0.5435
27880W        W70797   4.697  16.432  28.695  0.0382  0.1314  0.1877
27881W        W70798   5.333  17.168  29.647 -0.2578  0.2991 -0.2113
27882W        W70799   6.401  16.384  30.965  0.2258  0.0137  0.0681
27883W        W70800   5.502  16.959  28.656 -0.0719  0.2659 -0.1397
27884W        W70801   4.140  18.872  30.005 -0.1638 -0.3108  0.0803
27885W        W70802   4.415  14.585  30.224  0.3046  0.0198 -0.2366
27886W        W70803   7.448  13.601  30.828 -0.3137  0.2058  0.4652
27887W        W70804   5.114  14.119  30.481 -0.0177 -0.1466 -0.1405
27888W        W70805   4.295  14.157  30.037 -0.4626 -0.2812  0.3779
27889W        W70806   6.729  14.900  26.368 -0.1186  0.0668  0.1765
27890W        W70807   6.917  16.866  29.302 -0.4997  0.1024 -0.0505
27891W        W70808   5.690  15.659  28.746  0.0175 -0.0176 -0.1134
27892W        W70809   4.235  17.180  31.946 -0.1734 -0.1194 -0.3103
27893W        W70810   6.520  13.603  29.025  0.1342  0.1100  0.0158
27894W        W70811   9.295  17.163  27.777  0.0662  0.0049  0.0625
27895W        W70812   6.054  15.505  30.814 -0.1101  0.1406  0.3244
27896W        W70813   4.415  17.091  27.997  0.1579  0.1313 -0.1060
27897W        W70814   3.792  15.278  31.809 -0.2480 -0.1496 -0.0859
27898W        W70815   6.209  17.665  27.274  0.1504 -0.2231  0.1669
27899W        W70816   7.553  17.129  29.819 -0.1395  0.0468 -0.0193
27900W        W70817   3.739  17.890  31.161  0.1688  0.1111  0.0055
27901W        W70818   6.384  17.747  28.712  0.0976 -0.2766 -0.0089
27902W        W70819   4.283  17.953  30.614 -0.0023 -0.0166 -0.0602
27903W        W70820   7.554  17.178  28.788  0.1804 -0.1877 -0.0977
27904W        W70821   7.171  16.093  28.670  0.4235 -0.2784  0.0328
27905W        W70822   4.793  14.391  29.277 -0.5202  0.2001  0.1502
27906W        W70823   8.659  14.410  30.433 -0.1515 -0.4041 -0.0518
27907W        W70824   5.944  16.690  27.623  0.1681 -0.2285 -0.2772
27908W        W70825   7.224  14.419   0.822  0.3295 -0.1278 -0.0172
27909W        W70826   5.954  14.776  31.512 -0.1128  0.0228  0.1724
27910W        W70827   6.643  18.040  28.998 -0.1660 -0.2032  0.1538
27911W        W70828   4.698  14.321  30.798 -0.1618 -0.2149  0.3407
27912W        W70829   6.544  18.754  30.333  0.2072  0.0308 -0.3315
27913W        W70830   4.969  14.773   0.402  0.0427 -0.0358 -0.0017
27914W        W70831   4.962  16.075  28.969 -0.2235  0.3236 -0.1854
27915W        W70832   4.493  15.153  27.952  0.2437 -0.0229 -0.1447
27916W        W70833   6.904  15.506  30.181 -0.0088  0.0424 -0.1987
27917W        W70834   7.849  15.430  28.905 -0.0385  0.0022  0.1849
27918W        W70835   7.430  18.059  28.521 -0.0075 -0.3293  0.1192
27919W        W70836   6.601  15.167  29.957 -0.0480  0.1491  0.2386
27920W        W70837   5.124  17.792  28.828  0.0106  0.0183 -0.0068
27921W        W70838   9.273  15.668  28.203 -0.0103  0.1028 -0.1050
27922W        W70839   5.108  16.456  28.376 -0.0693 -0.0105  0.2481
27923W        W70840   5.100  19.465  28.488 -0.1261  0.1460  0.1546
27924W        W70841   5.315  14.065  31.922  0.0362  0.1217  0.0781
27925W        W70842   6.287  16.906  29.892  0.0515  0.0186 -0.0067
27926W        W70843   5.900  15.982  29.075 -0.0651 -0.2067 -0.0627
27927W        W70844   6.200  15.792  30.337 -0.1658 -0.2910  0.1162
27928W        W70845   6.194  16.585  28.477 -0.1188  0.2403  0.3776
27929W        W70846   6.103  17.375  28.964  0.2582  0.1480 -0.2037
27930W        W70847   4.482  16.030  29.863  0.0705  0.0991  0.0803
27931W        W70848   5.770  18.766  29.685 -0.0464 -0.2005 -0.0504
27932W        W70849   8.158  17.140  27.251 -0.2155  0.0692  0.0317
27933W        W70850   8.043  14.488  28.661 -0.2274 -0.0357  0.1549
27934W        W70851   7.541  13.514  28.149 -0.2520 -0.1448  0.1805
27935W        W70852   7.786  16.241  28.024  0.1024  0.0381  0.3445
27936W        W70853   3.082  16.554  28.711 -0.1120  0.0180  0.1005
27937W        W70854   7.063  15.484  31.066 -0.0363  0.2232 -0.0141
27938W        W70855   4.272  13.928  26.430 -0.1608 -0.2732  0.1925
27939W        W70856   7.260  14.461  29.612 -0.3213  0.1118 -0.2536
27940W        W70857   8.814  17.191  27.822 -0.1179  0.1712 -0.2002
27941W        W70858   8.008  16.406  30.376  0.0754  0.2280 -0.0630
27942W        W70859   5.736  14.483  26.809  0.2001  0.1968 -0.0653
27943W        W70860   5.557  16.135  28.191  0.0177 -0.0200 -0.1754
27944W        W70861   3.571  16.111  30.440 -0.0432 -0.0023  0.2069
27945W        W70862   4.806  16.092  28.367 -0.3136 -0.0360  0.2710
27946W        W70863   3.269  17.067  28.761 -0.0290 -0.2207  0.3836
27947W        W70864   5.567  15.700  30.823  0.2662  0.1235  0.1611
27948W        W70865   5.281  14.401  30.887 -0.4769 -0.1440  0.4616
27949W        W70866   7.361  16.353  26.326  0.1917 -0.0851 -0.1771
27950W        W70867   8.778  14.039   0.176 -0.1831  0.1775  0.1703
27951W        W70868   2.077  17.987  30.050  0.1690  0.0880 -0.0425
27952W        W70869   3.339  15.703  28.979  0.2206  0.0460 -0.1042
27953W        W70870   4.595  18.894  29.589 -0.4076 -0.2181 -0.1352
27954W        W70871   3.259  16.469  31.274 -0.2874  0.2301 -0.5378
27955W        W70872   6.178  16.850  29.087  0.1617 -0.1235  0.1182
27956W        W70873   6.644  15.199  29.455 -0.1590 -0.1111 -0.0628
27957W        W70874   6.880  16.386  29.070 -0.1211  0.2541 -0.0874
27958W        W70875   8.346  15.559  31.180 -0.1554 -0.2144  0.0820
27959W        W70876   8.119  15.199  30.946  0.0908 -0.1745 -0.2122
27960W        W70877   7.802  17.018  31.516 -0.2311 -0.2116  0.1610
27961W        W70878   7.883  17.451  29.163  0.1142  0.3342 -0.0712
27962W        W70879   6.295  17.838  31.341  0.0731 -0.1131  0.0882
27963W        W70880   8.401  17.297  29.676  0.3157  0.1044  0.1424
27964W        W70881   4.688  18.196  28.818 -0.1056  0.1118 -0.1589
27965W        W70882   5.606  16.100   0.858  0.3570 -0.0747 -0.3202
27966W        W70883   5.942  15.787  29.582 -0.1105  0.1069 -0.0878
27967W        W70884   7.990  16.586  29.633  0.4707 -0.0409 -0.0792
27968W        W70885   3.704  15.294  27.368  0.2190 -0.0143  0.0530
27969W        W70886   6.794  16.769  26.462 -0.0004  0.0548 -0.0091
27970W        W70887   5.458  16.833  31.533 -0.3118 -0.1975  0.0421
27971W        W70888   4.504  15.543  30.764 -0.0262 -0.1303 -0.3509
27972W        W70889   3.920  17.834  29.760 -0.2133  0.0142  0.0747
27973W        W70890   8.784  17.245  28.849  0.3136 -0.1224  0.1924
27974W        W70891   6.954  16.909  31.075 -0.0247 -0.0359 -0.2254
27975W        W70892   7.106  17.482  31.041 -0.3291 -0.3928 -0.3502
27976W        W70893   5.514  15.259  27.680 -0.0149 -0.1306 -0.0525
27977W        W70894   3.119  18.256  28.688 -0.0616 -0.0616  0.0230
27978W        W70895   4.455  17.612  28.176 -0.1254 -0.1134  0.2400
27979W        W70896   8.548  14.938  28.830  0.0481  0.0190 -0.1623
27980W        W70897   2.355  16.857  29.819 -0.1798 -0.1904  0.1837
27981W        W70898   7.669  16.402  31.259 -0.2578 -0.0695  0.0736
27982W        W70899   5.998  16.320  27.131  0.5662 -0.0038  0.3507
27983W        W70900   8.452  17.752  30.846 -0.2684 -0.2176 -0.0833
27984W        W70901   9.173  14.679  28.143 -0.1597  0.0823 -0.1649
27985W        W70902   5.456  17.368  30.891  0.0373  0.0097 -0.0049
27986W        W70903   3.459  15.975  27.949  0.0966  0.0625  0.0026
27987W        W70904   6.961  15.200  26.707 -0.0543 -0.1810 -0.4125
27988W        W70905   4.713  14.932  31.923  0.1552 -0.1679  0.3593
27989W        W70906   6.593  14.263  31.633  0.2546 -0.0256  0.5599
27990W        W70907   3.879  19.403   1.042 -0.2730 -0.0614  0.1193
27991W        W70908   6.246  19.145  27.689 -0.1767  0.0007 -0.0141
27992W        W70909   3.327  15.738  28.455 -0.0655 -0.0978  0.4421
27993W        W70910   7.111  16.696  30.571 -0.1907  0.2196 -0.1588
27994W        W70911   8.238  14.563   1.471  0.0774  0.0831 -0.1590
27995W        W70912   6.542  18.280  27.783 -0.1311  0.0456 -0.0073
27996W        W70913   4.215  15.575  28.785  0.1971  0.1228 -0.3444
27997W        W70914   5.683  18.222  27.010  0.0354  0.1418 -0.0496
27998W        W70915   2.976  18.245  29.638  0.0020 -0.0125  0.0643
27999W        W70916   5.243  16.597  28.982 -0.0193 -0.2383  0.2170
28000W        W70917   4.130  14.927  28.743  0.0923  0.0053 -0.1413
28001W        W70918  10.080  14.986  28.671  0.3437 -0.0181 -0.1028
28002W        W70919   5.614  15.009  31.763 -0.0520 -0.0859  0.1713
28003W        W70920   9.086  14.675  31.681  0.2458 -0.1048 -0.1666
28004W        W70921   6.157  14.795  28.458  0.0988 -0.3260 -0.1849
28005W        W70922   7.346  15.394  26.345  0.2036  0.0238 -0.0525
28006W        W70923   4.731  17.567  30.249 -0.1790  0.0453 -0.4349
28007W        W70924   4.084  14.790  31.646  0.0159  0.0419  0.3604
28008W        W70925   5.239  17.393  28.531 -0.1386 -0.2815 -0.0894
28009W        W70926   7.786  14.395   0.220  0.1200  0.2623 -0.1805
28010W        W70927   7.736  18.220  29.698 -0.0113  0.2438 -0.0724
28011W        W70928   6.011  16.470  30.034  0.0566  0.2221  0.1676
28012W        W70929   4.265  16.574  27.881 -0.2185 -0.2262 -0.2416
28013W        W70930   7.049  15.438  29.656 -0.1678 -0.0768  0.3691
28014W        W70931   6.163  17.934  27.799  0.1683 -0.1313  0.1251
28015W        W70932   6.288  15.631  31.611  0.1524 -0.2585  0.0209
28016W        W70933   7.255  17.667  31.517  0.0755  0.2397 -0.0643
28017W        W70934   3.190  14.749  28.682  0.1030  0.0027  0.0049
28018W        W70935   9.231  16.735  28.760  0.1176  0.3719  0.1292
28019W        W70936   3.863  14.898  29.160 -0.0864 -0.0836  0.6710
28020W        W70937   5.219  18.729  27.052  0.1243 -0.1162  0.2714
28021W        W70938   8.968  17.599  29.409 -0.3025 -0.2283  0.0138
28022W        W70939   6.203  18.435  29.577  0.0806 -0.1115  0.0271
28023W        W70940   5.382  16.033  30.479 -0.0712 -0.1219  0.1490
28024W        W70941   5.603  17.227  29.083  0.1158 -0.2620  0.0322
28025W        W70942   7.507  17.518  29.502  0.0083 -0.3351  0.1999
28026W        W70943   5.521  15.597  28.020 -0.2506  0.1083  0.4103
28027W        W70944   4.203  16.579  28.885  0.0413  0.0615 -0.0051
28028W        W70945   4.005  19.401  28.227  0.0089 -0.0724 -0.2225
28029W        W70946   7.128  15.078  29.317  0.1044 -0.0661  0.0654
28030W        W70947   8.555  12.585  31.175 -0.0270  0.0254 -0.2837
28031W        W70948   5.540  17.735  27.255 -0.1592  0.1392 -0.0066
28032W        W70949   9.038  14.597   0.346 -0.0036  0.1184  0.1443
28033W        W70950   5.457  18.389  29.919 -0.1732  0.1772 -0.1846
28034W        W70951   6.000  17.145  30.191 -0.1177 -0.0023 -0.0444
28035W        W70952   4.207  16.769  28.389  0.1922  0.0760  0.1130
28036W        W70953   4.946  16.785  29.929  0.1186  0.0378  0.0171
28037W        W70954   6.663  18.416  28.218  0.2095  0.2419  0.1372
28038W        W70955   6.066  18.566  27.109  0.0558 -0.2384  0.0100
28039W        W70956   5.792  18.126  29.640 -0.3126 -0.0594  0.0166
28040W        W70957   6.814  14.728  29.540  0.1161  0.1964  0.3190
28041W        W70958   9.282  17.057  28.271 -0.1339  0.0916  0.0749
28042W        W70959   8.052  13.616  28.981  0.2040  0.2048  0.3394
28043W        W70960   7.399  15.816  28.221 -0.1336  0.0437  0.3053
28044W        W70961   7.592  15.035  28.608  0.1627  0.1391 -0.0247
28045W        W70962   6.806  14.733  30.794  0.2047 -0.0973 -0.1806
28046W        W70963   4.429  17.149  26.367  0.2075  0.0815 -0.1503
28047W        W70964   4.924  16.441  26.691 -0.2535 -0.0151  0.0371
28048W        W70965   6.036  17.901  28.348  0.2470  0.1579  0.1607
28049W        W70966   9.203  13.784  30.531  0.0774 -0.1470  0.0499
28050W        W70967   6.580  17.608  29.684 -0.0102 -0.1706 -0.1644
28051W        W70968   2.877  16.911  30.003 -0.2043  0.0163  0.2327
28052W        W70969   2.802  16.390  28.338 -0.0114 -0.2308 -0.1611
28053W        W70970   6.275  18.019  26.788 -0.0304  0.1170 -0.1089
28054W        W70971   5.930  14.171  28.887  0.2590 -0.1595  0.0627
28055W        W70972   4.405  15.288  28.415 -0.0380 -0.0692  0.0331
28056W        W70973   9.313  17.565  28.203  0.0899 -0.0014 -0.2591
28057W        W70974   6.618  17.635  30.900  0.0128  0.0742 -0.0199
28058W        W70975   3.875  13.492  28.329 -0.1571 -0.0935 -0.0963
28059W        W70976   8.487  17.635  30.061  0.2977  0.1861 -0.1310
28060W        W70977   3.755  17.396  28.831 -0.4283 -0.0779 -0.1457
28061W        W70978   6.265  14.471  30.784 -0.1342 -0.0668 -0.1649
28062W        W70979   7.157  15.032  31.926  0.2046 -0.2315  0.3482
28063W        W70980   3.309  13.415  29.618  0.0481  0.1779 -0.1604
28064W        W70981   5.732  16.847  29.802  0.1220  0.1366 -0.1270
28065W        W70982   7.996  17.104  29.544  0.0546 -0.3081  0.0843
28066W        W70983   5.689  19.847  29.893  0.3679 -0.1592  0.0646
28067W        W70984   4.453  14.789  31.257 -0.0497  0.1860 -0.1493
28068W        W70985   4.684  19.087  30.100 -0.0466  0.2391  0.0240
28069W        W70986   3.245  13.296  30.960  0.0813 -0.0933 -0.1196
28070W        W70987   7.529  17.686  28.872  0.0247  0.0904  0.1852
28071W        W70988   6.449  16.735  27.797  0.0932  0.1687 -0.1634
28072W        W70989   9.389  18.286  27.949  0.2821  0.2134 -0.0523
28073W        W70990   7.607  15.364  29.978 -0.0853  0.0170 -0.2058
28074W        W70991   8.219  15.674  28.682 -0.1466 -0.1343  0.2032
28075W        W70992   3.688  15.173  31.333  0.4272 -0.0383  0.4092
28076W        W70993   5.492  16.448  30.711 -0.0143 -0.1221  0.0488
28077W        W70994   6.781  15.833  29.463 -0.3012  0.2433  0.1007
28078W        W70995   6.230  16.096  28.494 -0.1703  0.0435 -0.3872
28079W        W70996   6.637  14.693  28.562  0.0039 -0.0519  0.2101
28080W        W70997   8.433  16.302  29.722 -0.0875 -0.1643  0.2242
28081W        W70998   4.736  16.951  30.379 -0.0996 -0.3353 -0.2747
28082W        W70999   5.212  15.688  29.212  0.0941  0.0387  0.1016
28083W        W71000   4.881  16.120  31.465 -0.0995 -0.1363  0.1561
28084W        W71001   6.412  17.114  29.447  0.1895  0.4220  0.1201
28085W        W71002   6.974  16.422  30.100 -0.0989 -0.1382 -0.0002
28086W        W71003   5.895  16.432  28.846  0.1333 -0.2255 -0.1356
28087W        W71004   7.694  16.991  27.726 -0.4888  0.2634  0.1806
28088W        W71005   7.026  18.370  29.314 -0.1242  0.1135  0.1493
28089W        W71006   8.197  16.878  30.524 -0.1243 -0.0540  0.1231
28090W        W71007   5.540  18.109  29.153  0.2517 -0.0806 -0.2890
28091W        W71008  10.088  15.744  29.230 -0.0579  0.0223 -0.0663
28092W        W71009   4.735  15.181  31.003 -0.0448  0.1803  0.0552
28093W        W71010   3.737  15.805  28.724  0.2016 -0.0939  0.1337
28094W        W71011   5.398  16.202  28.783  0.2791  0.3925 -0.2589
28095W        W71012  10.296  14.652  28.977 -0.1852  0.2511  0.3209
28096W        W71013   2.991  14.975  28.282  0.1332  0.1440  0.0325
28097W        W71014   7.747  14.732  27.477  0.1885  0.0108  0.1044
28098W        W71015   5.732  17.845  30.125 -0.2093  0.0805  0.0757
28099W        W71016   5.742  16.215  29.632 -0.0496  0.2372 -0.3796
28100W        W71017   6.326  14.367   1.569 -0.0683  0.3250 -0.3499
28101W        W71018   5.693  16.692  30.360 -0.1932  0.1535  0.1227
28102W        W71019   3.879  16.470   1.687  0.0953 -0.4057  0.2970
28103W        W71020   4.611  17.085  31.674 -0.4282  0.1364  0.2983
28104W        W71021   5.725  17.573  30.595  0.2864 -0.0012  0.1686
28105W        W71022   5.220  17.624   0.139 -0.0094  0.1035  0.1738
28106W        W71023   8.707  15.587   0.119  0.1124 -0.2735 -0.2784
28107W        W71024   5.130  17.080  31.224 -0.0587 -0.0473 -0.0314
28108W        W71025   7.201  16.049   0.100  0.0871 -0.2042  0.1250
28109W        W71026   9.111  18.579   0.547  0.0543 -0.1696  0.2860
28110W        W71027   7.069  17.261  29.554  0.2928 -0.0490  0.1893
28111W        W71028   7.427  13.756  31.364 -0.1269  0.1533 -0.1723
28112W        W71029   7.251  16.576  29.641 -0.3044 -0.1691  0.2024
28113W        W71030   3.677  16.547  29.785  0.4299 -0.3640 -0.0982
28114W        W71031   6.485  15.933  30.721 -0.4459 -0.1032 -0.1675
28115W        W71032   4.417  19.467   0.482 -0.3584 -0.2294 -0.0258
28116W        W71033   5.707  17.089   0.992 -0.2248  0.0989 -0.0138
28117W        W71034   9.150  15.863  30.209  0.2093  0.1279  0.2393
28118W        W71035   6.443  14.656  31.233 -0.1459 -0.4201 -0.1882
28119W        W71036   5.660  15.590   1.311  0.1138  0.2584  0.3053
28120W        W71037   3.498  15.581  31.600 -0.3764 -0.3543 -0.1537
28121W        W71038   3.335  17.403  30.787  0.2633 -0.0150  0.0042
28122W        W71039   7.501  14.874   1.600  0.1091 -0.0792  0.0046
28123W        W71040   7.511  15.507   2.274  0.0437  0.3883  0.5108
28124W        W71041   7.946  13.807  31.576  0.3559 -0.3732  0.4059
28125W        W71042   7.525  14.104  31.814  0.3110 -0.1692 -0.3377
28126W        W71043   4.493  15.995  30.434 -0.0954  0.1040  0.2271
28127W        W71044   4.728  17.879   0.095  0.2302  0.2738  0.0343
28128W        W71045   5.055  17.272  30.017  0.0248 -0.1346  0.1406
28129W        W71046   5.017  16.043   0.057  0.0063  0.1107  0.0174
28130W        W71047   6.767  15.745  31.938 -0.0130  0.0765 -0.0426
28131W        W71048   8.647  14.580   0.028 -0.1919  0.0369 -0.1049
28132W        W71049   8.453  16.047  31.935  0.0533 -0.2933  0.1017
28133W        W71050   7.332  13.069  31.268 -0.0903 -0.0180 -0.0584
28134W        W71051   2.674  16.594  31.443 -0.2661 -0.1898  0.1572
28135W        W71052   4.489  16.447  30.178 -0.2182  0.4426 -0.2497
28136W        W71053   5.234  17.652  31.177  0.0567 -0.0868  0.1602
28137W        W71054   6.991  16.163  31.474 -0.1742  0.1959  0.1512
28138W        W71055   7.162  15.701  31.547  0.2991  0.0266  0.0958
28139W        W71056   6.397  14.944   0.356 -0.0932  0.2266  0.4359
28140W        W71057   7.503  13.677   0.597 -0.1551  0.1020 -0.0086
28141W        W71058   4.341  16.071   0.799 -0.2893  0.0463 -0.2451
28142W        W71059   3.102  15.322  30.636  0.1801 -0.1658 -0.1986
28143W        W71060   4.728  18.353  31.261  0.1042  0.1299  0.3531
28144W        W71061   7.014  14.350   0.002 -0.3844  0.2617  0.2786
28145W        W71062   5.950  15.376   1.728  0.4379  0.2604  0.1024
28146W        W71063   5.120  14.716  31.615  0.3202 -0.4093  0.1871
28147W        W71064   5.596  17.356  31.407  0.2281 -0.0358  0.0526
28148W        W71065   9.563  16.881  30.521 -0.1247  0.2463 -0.2484
28149W        W71066   1.514  17.993   0.562 -0.1595 -0.2836 -0.2461
28150W        W71067   5.482  16.262   0.309  0.0770  0.1699  0.2746
28151W        W71068   5.785  14.475   1.584 -0.1627  0.1323 -0.2087
28152W        W71069   4.687  16.412  30.644  0.0669  0.0623  0.3047
28153W        W71070   4.038  15.648  31.628 -0.1658  0.1512 -0.0714
28154W        W71071   8.198  14.766  31.324  0.1709  0.0949  0.0419
28155W        W71072   6.684  16.432  30.595  0.1024  0.2923  0.0116
28156W        W71073  10.479  16.509  30.897  0.0534  0.2676  0.3796
28157W        W71074   6.700  17.458  31.377  0.0469 -0.0030 -0.1229
28158W        W71075   5.525  16.842  31.000 -0.0037 -0.2070  0.0203
28159W        W71076   4.058  14.892  30.963 -0.1556 -0.0010 -0.3852
28160W        W71077   6.243  14.995   0.887  0.2462  0.1133 -0.1686
28161W        W71078   4.372  17.482   0.331  0.1082  0.0027 -0.0228
28162W        W71079   5.396  17.517   0.716 -0.2908  0.4479 -0.3026
28163W        W71080   3.499  15.480  30.982  0.2506  0.0145 -0.0414
28164W        W71081   6.784  16.187   0.316  0.1330  0.0709  0.2680
28165W        W71082   5.529  16.376  31.728  0.2458  0.3206 -0.0989
28166W        W71083   8.323  13.946  31.785 -0.5094  0.2500  0.2681
28167W        W71084   5.529  21.197  19.888  0.3109 -0.1315  0.1666
28168W        W71085   5.090  18.406  17.164  0.0736  0.2338  0.0310
28169W        W71086   7.974  19.302  16.480 -0.2803  0.0830 -0.1499
28170W        W71087   5.565  18.926  16.406  0.0141 -0.1697  0.0892
28171W        W71088   4.796  19.093  18.995 -0.3078 -0.2146  0.2593
28172W        W71089   8.132  21.785  16.447 -0.3035 -0.0133  0.1279
28173W        W71090   6.519  19.342  20.051 -0.0039  0.2537 -0.1614
28174W        W71091   7.413  23.272  20.263 -0.0659 -0.1024  0.1295
28175W        W71092   6.885  20.419  21.023 -0.2940  0.1125 -0.0592
28176W        W71093   4.758  20.111  16.778 -0.1549 -0.2195 -0.1687
28177W        W71094   5.159  19.533  18.308  0.1141 -0.1882  0.3134
28178W        W71095   3.525  21.464  20.228 -0.1331  0.1594 -0.0174
28179W        W71096   5.174  18.255  18.724  0.3624  0.0625  0.1652
28180W        W71097   2.578  18.392  18.212  0.0373 -0.0106  0.0789
28181W        W71098   4.887  20.937  18.647  0.0808 -0.1902 -0.1858
28182W        W71099   4.307  17.387  16.515  0.1276 -0.0227  0.0232
28183W        W71100   4.590  21.110  20.594  0.7258  0.1504  0.1846
28184W        W71101   4.608  18.479  16.243 -0.0682 -0.1197 -0.2594
28185W        W71102   5.658  21.849  17.618  0.1514 -0.1427  0.0470
28186W        W71103   3.743  17.431  16.364  0.1872  0.0877 -0.0900
28187W        W71104   5.512  19.753  19.342 -0.0434 -0.2783 -0.2672
28188W        W71105   4.539  21.460  17.916 -0.0136  0.0713 -0.0150
28189W        W71106   4.165  19.765  16.145 -0.0039  0.2746  0.2138
28190W        W71107   4.232  18.647  17.682  0.0248 -0.0256 -0.1804
28191W        W71108   5.520  19.185  17.402 -0.3154 -0.1420  0.0293
28192W        W71109   5.673  19.733  19.875  0.1195  0.2463  0.1704
28193W        W71110   6.960  21.569  17.911  0.0559 -0.2720  0.0642
28194W        W71111   7.231  21.171  17.808 -0.0532  0.2382 -0.1474
28195W        W71112   5.372  21.121  17.569 -0.1441 -0.4387  0.1197
28196W        W71113   6.145  20.578  19.669 -0.1034 -0.0482  0.0742
28197W        W71114   3.040  20.345  18.580  0.1472 -0.1011  0.0094
28198W        W71115   4.930  21.835  18.908 -0.0804 -0.3607 -0.2239
28199W        W71116   2.492  20.155  18.363  0.0084  0.0305 -0.3375
28200W        W71117   6.365  22.147  16.858 -0.0252 -0.0546 -0.2062
28201W        W71118   8.044  24.038  18.715  0.0021 -0.0403  0.0087
28202W        W71119   5.750  25.945  19.487 -0.0448  0.3496 -0.1171
28203W        W71120   4.121  18.790  16.956  0.2230  0.2092  0.2545
28204W        W71121   5.707  22.549  21.049 -0.0738  0.2145  0.0187
28205W        W71122   5.981  21.649  20.090 -0.0497 -0.2563 -0.2603
28206W        W71123   3.972  19.708  21.600 -0.0120  0.0573  0.0064
28207W        W71124   5.425  21.047  18.555  0.0253 -0.1985  0.0910
28208W        W71125   5.496  20.589  17.291 -0.0451 -0.1711 -0.0061
28209W        W71126   7.354  21.350  16.984  0.3286 -0.1092 -0.0380
28210W        W71127   4.898  20.521  19.167  0.1361  0.0606  0.1120
28211W        W71128   3.044  22.739  17.997  0.1025  0.3355 -0.1076
28212W        W71129   7.771  18.612  18.709  0.0681 -0.2026  0.3401
28213W        W71130   4.818  20.104  17.269 -0.1529 -0.1360  0.0057
28214W        W71131   6.232  20.110  18.302  0.1781  0.0534 -0.2203
28215W        W71132   5.830  18.962  15.955  0.0796 -0.2648 -0.1767
28216W        W71133   6.188  18.680  17.937  0.0484  0.1112  0.0358
28217W        W71134   4.301  17.778  17.624  0.0347  0.1569  0.0792
28218W        W71135   5.407  21.624  20.250 -0.2423 -0.0692 -0.0526
28219W        W71136   4.419  20.937  18.877  0.0887  0.1669  0.0745
28220W        W71137   6.120  20.391  18.704  0.0264 -0.0056  0.1325
28221W        W71138   5.292  22.016  18.172  0.1041  0.0714  0.1587
28222W        W71139   5.842  19.367  19.051  0.0029  0.0720 -0.1366
28223W        W71140   6.071  23.674  20.100 -0.0389  0.2642 -0.1420
28224W        W71141   5.406  18.073  16.334 -0.1198  0.1153 -0.3591
28225W        W71142   4.869  19.710  16.559 -0.3521  0.0359 -0.3933
28226W        W71143   7.044  21.460  17.399 -0.0787 -0.0837 -0.1331
28227W        W71144   5.750  21.096  16.528 -0.0447 -0.2819 -0.0886
28228W        W71145   3.721  21.995  18.844  0.2883  0.0215 -0.2477
28229W        W71146   3.938  22.778  21.316 -0.3048 -0.0708  0.2074
28230W        W71147   3.460  20.653  17.846  0.0726  0.3233  0.0417
28231W        W71148   6.135  19.603  16.907 -0.2108  0.1384 -0.0744
28232W        W71149   7.206  20.745  21.280 -0.1490  0.0614 -0.0685
28233W        W71150   2.713  21.532  21.859 -0.1020 -0.3497  0.0800
28234W        W71151   5.393  19.151  19.162  0.1480  0.0485  0.0388
28235W        W71152   6.675  19.360  17.024  0.2845  0.0450  0.0643
28236W        W71153   5.103  20.518  18.633 -0.2394  0.1592  0.3348
28237W        W71154   5.027  21.310  17.929  0.2054  0.0189  0.0891
28238W        W71155   4.672  18.852  17.842 -0.4060  0.1240 -0.1503
28239W        W71156   7.741  19.190  19.150 -0.1487  0.0303 -0.1855
28240W        W71157   3.764  22.645  19.381 -0.1550 -0.0939 -0.1556
28241W        W71158   4.750  19.246  16.908  0.0599  0.2580 -0.1287
28242W        W71159   7.865  21.685  19.538 -0.1063 -0.1012 -0.0763
28243W        W71160   6.730  19.796  17.343 -0.1881 -0.1203  0.2292
28244W        W71161   4.075  20.831  21.669 -0.0467 -0.1013 -0.0436
28245W        W71162   3.511  19.313  20.042  0.2601  0.0419 -0.2846
28246W        W71163   3.459  21.768  19.436 -0.0993  0.1676  0.0140
28247W        W71164   3.978  20.794  16.631 -0.1209  0.0256 -0.3528
28248W        W71165   3.686  18.554  19.715  0.2062  0.2328 -0.0409
28249W        W71166   3.287  20.928  16.835 -0.1777 -0.0038  0.2036
28250W        W71167   3.985  18.979  18.448 -0.3910 -0.1294  0.1399
28251W        W71168   5.139  21.197  19.588 -0.0120  0.0333  0.2183
28252W        W71169   6.926  18.469  16.084  0.1721  0.0250 -0.2836
28253W        W71170   5.203  18.533  20.643 -0.0965  0.0323 -0.1077
28254W        W71171   7.378  19.565  18.456  0.3233 -0.0280 -0.1144
28255W        W71172   4.850  21.211  17.487 -0.0714 -0.2840 -0.1973
28256W        W71173   7.522  22.560  17.691 -0.1082  0.0690  0.1858
28257W        W71174   6.390  19.239  18.061  0.0793  0.1548 -0.0124
28258W        W71175   7.550  22.457  16.707  0.0542  0.3950  0.1018
28259W        W71176   3.932  19.879  18.832  0.0261  0.1101 -0.0437
28260W        W71177   5.058  18.330  20.237  0.1899  0.1975  0.0916
28261W        W71178   4.392  20.102  19.659  0.2592  0.2707  0.1087
28262W        W71179   3.437  18.650  18.806  0.2324  0.0042  0.1121
28263W        W71180   8.627  18.667  20.128 -0.0126  0.0671 -0.1015
28264W        W71181   3.290  19.358  17.052 -0.0348  0.2923 -0.0156
28265W        W71182   5.563  20.097  17.150  0.1241  0.4502  0.0433
28266W        W71183   3.936  18.679  15.967  0.2576 -0.3682 -0.0538
28267W        W71184   5.735  22.439  19.735 -0.0282 -0.0324 -0.0211
28268W        W71185   7.236  17.792  17.532 -0.3541 -0.0462 -0.1426
28269W        W71186   5.883  21.284  17.428  0.0060  0.1748  0.0132
28270W        W71187   7.127  21.102  20.340  0.3291 -0.3230 -0.2848
28271W        W71188   6.338  22.933  17.076 -0.3347 -0.2825  0.1322
28272W        W71189   4.237  19.543  18.418 -0.2348 -0.0733 -0.1783
28273W        W71190   5.035  16.846  16.895  0.1703  0.1264 -0.2486
28274W        W71191   2.983  18.796  18.521 -0.5143 -0.3017  0.1500
28275W        W71192   4.546  21.898  19.288 -0.1474 -0.0294 -0.1993
28276W        W71193   4.096  18.572  16.404  0.0554  0.0972  0.4332
28277W        W71194   5.881  23.149  17.239 -0.0363 -0.0640 -0.1939
28278W        W71195   6.100  20.489  17.198 -0.0278  0.1182 -0.5491
28279W        W71196   4.138  20.271  18.364  0.2164  0.0818 -0.0835
28280W        W71197   5.685  18.968  18.802 -0.1407  0.1469 -0.0397
28281W        W71198   4.891  22.109  18.442  0.0041 -0.2596 -0.1683
28282W        W71199   5.190  21.574  17.461 -0.0333 -0.3998  0.2868
28283W        W71200   2.525  17.593  17.409 -0.2026 -0.1382 -0.0811
28284W        W71201   5.272  20.857  19.043  0.1603  0.1599  0.1998
28285W        W71202   2.950  20.311  17.958  0.0078 -0.0578  0.0371
28286W        W71203   3.926  19.613  16.694  0.0783 -0.0118  0.0796
28287W        W71204   6.546  20.601  17.045 -0.2883 -0.4109  0.1366
28288W        W71205   5.253  20.226  17.524  0.0901  0.0282  0.0876
28289W        W71206   4.169  20.906  20.201 -0.1237 -0.3649 -0.2128
28290W        W71207   5.230  20.365  20.961 -0.2096 -0.1895 -0.1532
28291W        W71208   3.516  18.918  17.299 -0.0860 -0.0038 -0.2455
28292W        W71209   2.334  20.008  19.205  0.0380 -0.0409  0.1050
28293W        W71210   5.404  18.931  17.855  0.0748 -0.0787 -0.0045
28294W        W71211   5.672  17.439  17.706  0.0018  0.2025 -0.4567
28295W        W71212   5.525  21.971  21.067 -0.3673  0.1974  0.1733
28296W        W71213   6.199  20.032  17.803 -0.0129  0.0400  0.0522
28297W        W71214   6.913  19.330  16.186  0.2087 -0.0842 -0.1877
28298W        W71215   4.941  18.572  15.809 -0.3732  0.0255 -0.1987
28299W        W71216   4.274  21.414  19.282  0.1825  0.0560  0.2378
28300W        W71217   6.961  20.240  17.212 -0.0301  0.0074 -0.1139
28301W        W71218   6.338  21.571  17.262  0.1350  0.1607  0.3238
28302W        W71219   4.200  17.911  16.804 -0.0052 -0.2027  0.1566
28303W        W71220   6.555  20.674  16.543  0.0562  0.1693  0.2852
28304W        W71221   4.243  22.223  18.233  0.0583 -0.0718  0.1494
28305W        W71222   6.891  21.724  20.883  0.0498 -0.0093  0.0678
28306W        W71223   5.295  21.617  18.648  0.0237 -0.0645  0.0630
28307W        W71224   3.931  18.094  19.382  0.0093  0.0315  0.1212
28308W        W71225   4.422  21.549  17.465 -0.5225  0.0848  0.0159
28309W        W71226   4.783  17.803  17.446  0.0577 -0.2192  0.0389
28310W        W71227   4.644  23.798  17.707  0.0655  0.2398  0.0082
28311W        W71228   5.130  20.375  18.157  0.6205 -0.1630 -0.2564
28312W        W71229   5.007  18.968  18.197 -0.1851 -0.0273 -0.3336
28313W        W71230   3.040  19.289  19.906 -0.0241  0.1628  0.0839
28314W        W71231   7.013  21.013  19.489  0.2998  0.1021 -0.0380
28315W        W71232   4.734  19.743  17.573 -0.2065  0.1079 -0.3335
28316W        W71233   6.160  19.867  16.433  0.0566 -0.3936 -0.1720
28317W        W71234   6.008  19.290  17.260 -0.0180 -0.1421  0.3025
28318W        W71235   6.463  18.680  19.204 -0.0689 -0.0073 -0.0534
28319W        W71236   3.801  20.799  19.158 -0.0655  0.0026  0.0130
28320W        W71237   3.235  23.907  20.216 -0.0874  0.0349 -0.1689
28321W        W71238   5.200  20.295  20.439  0.1239 -0.2528  0.1879
28322W        W71239   8.122  19.521  16.973  0.0838 -0.1969 -0.2264
28323W        W71240   4.536  20.571  20.352 -0.0486  0.2407 -0.3218
28324W        W71241   5.321  19.708  17.492 -0.2687 -0.1200  0.1339
28325W        W71242   4.253  23.804  18.918  0.4160 -0.2737  0.3330
28326W        W71243   4.295  20.389  16.627 -0.2776  0.1670  0.1628
28327W        W71244   6.181  18.220  18.225 -0.2757 -0.2657 -0.0288
28328W        W71245   4.982  20.065  19.401  0.1410 -0.1998 -0.0996
28329W        W71246   5.204  19.394  16.754 -0.2105 -0.1080 -0.1389
28330W        W71247   5.197  19.695  20.395 -0.0537  0.0153  0.0827
28331W        W71248   4.302  20.406  17.837 -0.1627 -0.1910 -0.3659
28332W        W71249   7.735  19.282  18.662  0.3806 -0.1025 -0.0927
28333W        W71250   4.883  23.136  19.710 -0.2463  0.1483  0.0464
28334W        W71251   3.157  20.458  16.651  0.1349  0.1353  0.2590
28335W        W71252   3.435  17.939  17.104  0.1240  0.1378 -0.0587
28336W        W71253   7.086  19.350  18.084  0.0567  0.3547  0.0765
28337W        W71254   5.635  19.544  18.431  0.3448  0.2191  0.1601
28338W        W71255   3.966  17.391  16.975  0.0297 -0.0275 -0.3376
28339W        W71256   5.194  16.350  16.849 -0.1621  0.0671 -0.4458
28340W        W71257   4.638  22.307  19.587 -0.0232 -0.2028  0.1815
28341W        W71258   6.133  19.849  18.719 -0.0363  0.0550  0.0711
28342W        W71259   7.640  19.291  16.872 -0.0527  0.0064 -0.1009
28343W        W71260   6.773  21.016  18.538  0.0541 -0.0944 -0.0181
28344W        W71261   6.944  20.905  19.049 -0.5913  0.1101  0.1746
28345W        W71262   4.443  18.480  16.746  0.0115 -0.2058 -0.0422
28346W        W71263   6.661  19.652  17.951  0.0991 -0.0350  0.2117
28347W        W71264   4.281  19.376  18.971  0.3124 -0.1334  0.3313
28348W        W71265   6.339  21.235  18.422  0.3283  0.0230  0.2167
28349W        W71266   7.327  21.068  18.712 -0.0514  0.1012  0.0667
28350W        W71267   5.045  19.399  17.245  0.0031  0.1409 -0.3531
28351W        W71268   3.811  21.833  20.008  0.0257 -0.0859 -0.1600
28352W        W71269   7.490  22.131  20.593  0.0559 -0.0956  0.0099
28353W        W71270   7.996  20.975  20.625 -0.1205  0.1669  0.0434
28354W        W71271   4.599  17.752  18.145 -0.0342 -0.3629  0.0745
28355W        W71272   5.165  19.859  16.975  0.0424 -0.0096 -0.1366
28356W        W71273   4.822  17.705  18.978 -0.1477  0.0422 -0.0463
28357W        W71274   6.066  21.075  19.693  0.1812  0.1345 -0.0838
28358W        W71275   4.575  20.437  18.730  0.1048 -0.2232  0.3170
28359W        W71276   4.901  23.020  18.224  0.2386  0.2959  0.0824
28360W        W71277   5.167  17.492  17.433 -0.2088  0.1218 -0.1157
28361W        W71278   9.092  22.077  15.929  0.1729  0.1785 -0.0018
28362W        W71279   7.164  21.329  18.283  0.2417  0.2578  0.0897
28363W        W71280   3.350  19.725  17.443 -0.3150 -0.0474  0.0738
28364W        W71281  33.856  22.089  21.754  0.1401 -0.0871  0.0319
28365W        W71282   4.393  22.834  21.036 -0.1123  0.1073  0.0842
28366W        W71283   4.197  19.054  17.972  0.1050 -0.1497  0.1802
28367W        W71284   4.253  19.609  20.037  0.0247  0.0513 -0.2379
28368W        W71285   6.505  20.030  16.928 -0.0750 -0.2305 -0.0638
28369W        W71286   4.428  20.621  19.393 -0.4096  0.2170 -0.0137
28370W        W71287   6.509  18.046  16.738 -0.1487 -0.0352  0.4034
28371W        W71288   5.776  20.316  17.617 -0.2042 -0.2266  0.2532
28372W        W71289   5.512  17.891  16.817 -0.1680 -0.0583 -0.2716
28373W        W71290   6.266  18.988  18.806  0.1079  0.1970  0.2867
28374W        W71291   5.303  18.602  18.427  0.1195 -0.0441  0.2010
28375W        W71292   6.042  21.312  19.253  0.0644  0.3476 -0.0347
28376W        W71293   3.777  19.443  18.626  0.0857 -0.2443 -0.5450
28377W        W71294   8.450  19.658  20.030  0.2144  0.0054 -0.1286
28378W        W71295   2.954  18.181  20.752  0.0429 -0.1389 -0.0333
28379W        W71296   6.696  22.177  21.716 -0.1060 -0.2308 -0.1443
28380W        W71297   4.026  18.277  20.115 -0.0654 -0.1026  0.1326
28381W        W71298   4.455  17.723  16.137  0.1934 -0.0720  0.0908
28382W        W71299   3.681  18.468  17.472  0.1336  0.1327  0.2093
28383W        W71300   6.110  18.716  20.821  0.1379  0.1466 -0.0880
28384W        W71301   7.811  21.375  19.074 -0.0116  0.2794 -0.3284
28385W        W71302   4.465  21.732  18.341  0.0143  0.1502 -0.0893
28386W        W71303   6.917  19.239  18.555  0.2528 -0.3026 -0.2535
28387W        W71304   4.151  20.442  17.185 -0.3811  0.4228 -0.3672
28388W        W71305   6.080  17.768  16.717  0.1981 -0.0446  0.2554
28389W        W71306   5.869  17.982  16.021  0.0915  0.1154 -0.1104
28390W        W71307   5.484  20.584  17.877  0.1364 -0.2113  0.1551
28391W        W71308   3.332  19.404  19.482 -0.0730 -0.1379  0.0300
28392W        W71309   6.719  20.154  18.424 -0.0133  0.2739 -0.0234
28393W        W71310   5.733  18.046  18.374  0.2213 -0.0343  0.5227
28394W        W71311   5.574  18.050  19.559 -0.1508 -0.2762 -0.0543
28395W        W71312   5.104  21.161  20.188  0.0827  0.2285  0.0002
28396W        W71313   5.375  20.319  19.733  0.0667  0.2314  0.1319
28397W        W71314   4.066  18.476  20.530  0.0575 -0.1719  0.0687
28398W        W71315   5.618  20.568  18.359  0.0037  0.1699  0.0243
28399W        W71316   6.242  18.594  16.608 -0.1241 -0.0642  0.1544
28400W        W71317   6.693  21.187  17.668  0.3911  0.0603  0.2498
28401W        W71318   7.201  20.511  16.647 -0.0608 -0.2567 -0.0996
28402W        W71319   6.281  19.136  15.813  0.2901 -0.2501 -0.1144
28403W        W71320   3.596  20.749  18.349  0.0754  0.2348 -0.1030
28404W        W71321   5.385  20.916  21.843 -0.0219  0.2472 -0.0524
28405W        W71322   5.370  18.880  15.938  0.2256  0.1541  0.1864
28406W        W71323   5.463  19.706  18.868  0.2408  0.1574 -0.1011
28407W        W71324   4.837  21.327  16.438 -0.0340  0.0537 -0.4986
28408W        W71325   7.416  21.009  19.226 -0.2922  0.0616  0.0858
28409W        W71326   5.398  18.471  16.699  0.2936 -0.3684 -0.0315
28410W        W71327   4.079  16.642  19.392  0.3743 -0.1066  0.0344
28411W        W71328   3.651  21.087  17.614  0.1159 -0.2137 -0.1239
28412W        W71329   5.981  19.617  18.024 -0.0633  0.0187  0.0312
28413W        W71330   4.385  19.065  16.591  0.0557 -0.0753  0.0070
28414W        W71331   7.479  21.978  19.120  0.1973  0.0511 -0.0548
28415W        W71332   7.124  20.223  21.906 -0.1590  0.0662 -0.1955
28416W        W71333   4.845  18.770  16.697  0.2759  0.2063 -0.0687
28417W        W71334   6.263  18.941  19.750 -0.0783  0.1797  0.0354
28418W        W71335   4.592  20.667  17.392 -0.0040 -0.1593  0.1252
28419W        W71336   7.133  21.372  21.237 -0.2634  0.0965  0.0301
28420W        W71337   5.015  22.287  21.152 -0.1345  0.0146  0.0873
28421W        W71338   3.346  21.174  17.243 -0.1028  0.0741 -0.1039
28422W        W71339   6.108  22.228  18.317 -0.0287 -0.0812 -0.2412
28423W        W71340   6.506  20.633  18.225 -0.0474  0.2796 -0.0376
28424W        W71341   6.564  20.019  18.867 -0.5540  0.0420  0.1034
28425W        W71342   6.183  21.537  18.770 -0.1152 -0.1684  0.3286
28426W        W71343   7.339  21.706  18.635 -0.2853 -0.1631 -0.1912
28427W        W71344   6.160  21.479  20.664 -0.2488  0.2486 -0.3992
28428W        W71345   4.692  20.948  19.967 -0.0630 -0.0854 -0.0403
28429W        W71346   4.917  22.468  20.285  0.3010 -0.0836 -0.1522
28430W        W71347   7.433  20.886  18.172  0.1926 -0.2411  0.2329
28431W        W71348   3.975  21.810  19.328 -0.0208  0.0363  0.2291
28432W        W71349   4.141  19.098  19.827 -0.2196  0.3388 -0.4395
28433W        W71350   4.308  19.002  20.531 -0.1174  0.1441 -0.1555
28434W        W71351   5.563  19.578  17.099 -0.1649  0.1228 -0.0530
28435W        W71352   5.599  17.221  17.248  0.1561 -0.0728  0.2867
28436W        W71353   5.140  20.832  18.174  0.0230  0.3238  0.2265
28437W        W71354   3.157  22.834  21.986 -0.1380 -0.0624 -0.1042
28438W        W71355   2.944  18.911  19.614  0.1526 -0.2651 -0.2848
28439W        W71356   4.557  22.795  19.378 -0.1018  0.1633  0.0711
28440W        W71357   4.999  19.284  17.776  0.1687  0.2259  0.0754
28441W        W71358   7.241  22.156  16.364 -0.6143 -0.1233 -0.0983
28442W        W71359   7.072  22.081  18.078  0.0034  0.2461  0.0531
28443W        W71360   4.437  17.672  17.147 -0.0573  0.2350  0.0415
28444W        W71361   4.544  20.948  21.410 -0.1897 -0.0516 -0.0176
28445W        W71362   1.856  20.285  17.612  0.2230 -0.0385  0.4247
28446W        W71363   7.363  20.502  17.564 -0.4157  0.1883 -0.1338
28447W        W71364   5.785  21.887  18.168  0.0047 -0.2722 -0.0022
28448W        W71365   5.708  20.394  19.391  0.2377  0.0452  0.2203
28449W        W71366   7.098  18.500  16.989 -0.0922 -0.0538 -0.3435
28450W        W71367   7.799  20.882  17.512 -0.2175 -0.0162 -0.1701
28451W        W71368   8.966  18.602  17.317 -0.1420  0.0439  0.0154
28452W        W71369   4.839  20.145  20.124 -0.0616 -0.3478 -0.1438
28453W        W71370   3.822  19.599  17.249  0.1297  0.1087  0.1998
28454W        W71371   4.388  16.911  16.861  0.0857 -0.2533  0.0050
28455W        W71372   5.091  20.728  17.631  0.0831 -0.2241  0.1091
28456W        W71373   3.838  15.591  18.974  0.1400 -0.0341 -0.1766
28457W        W71374   4.064  20.624  21.151 -0.2477 -0.3627  0.0350
28458W        W71375   5.983  20.523  18.032 -0.2464  0.0746 -0.0703
28459W        W71376   2.905  20.500  17.503 -0.3154 -0.0791  0.3646
28460W        W71377   3.654  20.060  17.260  0.0263 -0.0507  0.1318
28461W        W71378   7.033  17.925  18.052 -0.1272 -0.0622 -0.1978
28462W        W71379   5.209  21.390  17.015  0.1035 -0.1387 -0.3150
28463W        W71380   5.977  18.891  18.357 -0.0773 -0.2610  0.0545
28464W        W71381   7.995  22.131  19.637 -0.0649  0.0389 -0.2311
28465W        W71382   4.565  22.242  20.844  0.2224  0.0861 -0.2937
28466W        W71383   6.912  21.356  19.970 -0.0589  0.1743 -0.2330
28467W        W71384   5.455  22.883  18.396 -0.3134 -0.0431 -0.1748
28468W        W71385   5.116  18.495  16.233  0.2865  0.1367  0.0073
28469W        W71386   5.666  17.658  19.793 -0.1524  0.0965  0.1200
28470W        W71387   8.178  19.452  19.164 -0.0173 -0.1035 -0.0197
28471W        W71388   4.758  18.395  17.522  0.0372  0.1938 -0.1091
28472W        W71389   4.675  20.622  18.264 -0.1790 -0.1323  0.0150
28473W        W71390   5.056  19.577  19.035  0.0130 -0.1121  0.0553
28474W        W71391   3.861  18.793  20.104  0.0792 -0.1354 -0.0925
28475W        W71392   5.489  19.350  16.157  0.0014 -0.0896 -0.2650
28476W        W71393   8.325  21.395  19.203 -0.0666  0.2024  0.3836
28477W        W71394   5.947  18.297  16.895 -0.4886 -0.4565  0.0185
28478W        W71395   6.139  25.478  19.941 -0.1238  0.2291  0.0082
28479W        W71396   4.680  19.512  18.062  0.1408  0.0842  0.1677
28480W        W71397   7.198  19.674  17.712 -0.0752 -0.1466  0.3895
28481W        W71398   5.007  22.637  19.724  0.1198 -0.1307 -0.0054
28482W        W71399   3.907  19.256  20.273  0.0725  0.0649 -0.0681
28483W        W71400   7.441  23.133  19.393 -0.1051  0.0976  0.0190
28484W        W71401   3.909  17.840  17.223 -0.1417  0.1779 -0.0076
28485W        W71402   6.640  19.636  16.599  0.0585  0.1984 -0.2105
28486W        W71403   7.675  20.140  17.046 -0.0773 -0.1370 -0.1356
28487W        W71404   5.121  22.206  16.702  0.0611  0.0400  0.3814
28488W        W71405   6.708  22.139  17.227  0.0694  0.2303 -0.0635
28489W        W71406   6.673  20.342  17.926 -0.0282  0.2009  0.2202
28490W        W71407   3.623  18.320  17.995 -0.0689  0.1695  0.0018
28491W        W71408   6.087  21.687  19.574  0.0894  0.1042 -0.1785
28492W        W71409   8.307  22.413  18.423 -0.3486  0.1555  0.0830
28493W        W71410   5.580  18.428  17.192  0.0910  0.0723  0.0377
28494W        W71411   3.941  20.638  17.594  0.0370 -0.0822  0.0364
28495W        W71412   4.185  19.499  17.603  0.2470 -0.0540 -0.2421
28496W        W71413   6.048  19.366  18.570  0.1219  0.1457 -0.0469
28497W        W71414   7.333  21.387  19.545  0.0784 -0.1217 -0.1550
28498W        W71415   4.459  20.130  16.178  0.0725  0.0161  0.1948
28499W        W71416   5.350  20.071  18.532  0.2457  0.0392  0.2955
28500W        W71417   4.374  22.947  21.523 -0.1733  0.1370  0.3728
28501W        W71418   5.468  19.477  20.739 -0.1356  0.0675 -0.2666
28502W        W71419   4.647  18.792  17.216  0.2173  0.1493  0.0750
28503W        W71420   3.751  19.731  20.209  0.1914 -0.0673  0.0334
28504W        W71421   5.605  22.353  18.044  0.1793  0.2465 -0.0794
28505W        W71422   5.700  20.495  16.801 -0.1808  0.1277 -0.1394
28506W        W71423   6.581  21.764  17.651  0.0971  0.1432 -0.0664
28507W        W71424   6.255  18.475  18.780  0.0603 -0.0018  0.0849
28508W        W71425   7.631  21.273  20.407 -0.1575  0.2802 -0.0082
28509W        W71426   4.541  18.596  18.203 -0.2373  0.2738 -0.4412
28510W        W71427   7.367  19.937  19.095 -0.1543  0.1077 -0.2016
28511W        W71428   5.260  18.699  18.958  0.0190  0.0372 -0.1852
28512W        W71429   4.006  21.593  18.786  0.0701 -0.1936 -0.1740
28513W        W71430   3.516  18.616  15.659 -0.2407 -0.2798 -0.0303
28514W        W71431   5.074  19.793  17.911 -0.1063 -0.0355  0.2952
28515W        W71432   2.216  17.825  19.034 -0.0584  0.0707 -0.1745
28516W        W71433   5.848  20.113  19.013 -0.0645 -0.2321  0.1305
28517W        W71434   4.238  19.557  19.488  0.2695 -0.1600 -0.0203
28518W        W71435   5.510  21.511  17.974 -0.2892  0.2031  0.1113
28519W        W71436   4.470  16.191  18.528  0.1482  0.1972  0.0638
28520W        W71437   6.219  19.913  17.312 -0.2509  0.3127  0.2458
28521W        W71438   3.781  17.704  19.712 -0.2181 -0.2450 -0.1575
28522W        W71439   3.251  18.224  19.031 -0.0803 -0.2964  0.1057
28523W        W71440   6.073  20.545  16.380 -0.0187 -0.2430 -0.3024
28524W        W71441   6.244  23.452  17.049  0.0152 -0.3031  0.0071
28525W        W71442   3.956  18.069  18.310 -0.2234 -0.1358 -0.0543
28526W        W71443   7.361  22.598  20.713  0.0569  0.0201  0.3100
28527W        W71444   2.350  19.612  16.999 -0.2297 -0.0831 -0.0165
28528W        W71445   4.780  20.443  19.694 -0.1165  0.1473 -0.2819
28529W        W71446   5.778  19.827  21.266 -0.0521 -0.1131 -0.2168
28530W        W71447   5.290  18.436  17.621  0.0866 -0.0030 -0.2008
28531W        W71448   4.887  19.958  18.351 -0.2479  0.2987  0.1681
28532W        W71449   6.966  20.594  18.454  0.4102 -0.0582  0.1228
28533W        W71450   6.865  22.372  16.701 -0.1912  0.2610 -0.5086
28534W        W71451   6.936  22.087  18.586 -0.1506  0.0760 -0.1236
28535W        W71452   4.844  21.929  19.867 -0.1924  0.2494 -0.0562
28536W        W71453   3.148  17.843  19.833 -0.0960 -0.0192  0.1614
28537W        W71454   8.315  21.107  18.409  0.0225  0.2279 -0.0858
28538W        W71455   5.063  20.022  21.548 -0.0772  0.2991  0.0531
28539W        W71456   5.826  19.654  17.520 -0.2554  0.0985  0.0497
28540W        W71457   8.367  17.746  18.191  0.1838  0.0929  0.1415
28541W        W71458   5.313  18.874  17.000  0.3236  0.0430  0.0536
28542W        W71459   2.898  18.148  20.253  0.1297  0.0990  0.1690
28543W        W71460   4.643  19.718  19.235 -0.1658 -0.0867 -0.2999
28544W        W71461   7.849  20.433  20.473 -0.3040 -0.5090 -0.0250
28545W        W71462   3.324  16.866  18.659 -0.3437  0.1641  0.0668
28546W        W71463   6.720  17.961  16.229 -0.1652 -0.1212  0.1746
28547W        W71464   6.480  21.381  19.529  0.1819 -0.4565 -0.0932
28548W        W71465   3.855  19.455  19.207 -0.0079 -0.2847  0.4330
28549W        W71466   4.400  18.604  15.736  0.2242 -0.2919  0.1235
28550W        W71467   4.653  21.446  20.178 -0.3038 -0.3638  0.1287
28551W        W71468   4.760  21.544  19.567  0.3381  0.0926  0.1437
28552W        W71469   5.450  20.839  20.923 -0.1174 -0.2396 -0.2052
28553W        W71470   3.634  19.303  17.645 -0.0962 -0.2981 -0.1016
28554W        W71471   6.768  18.968  17.885 -0.0791  0.0681  0.1226
28555W        W71472   5.770  22.269  20.654  0.1004 -0.0247 -0.1167
28556W        W71473   7.431  22.200  18.633  0.2224  0.1908 -0.0105
28557W        W71474   6.000  20.850  18.430  0.2105 -0.1738 -0.1664
28558W        W71475   6.269  23.097  18.072 -0.1844  0.0261 -0.1049
28559W        W71476   4.671  19.680  19.734 -0.1542  0.1331 -0.0472
28560W        W71477   4.631  19.728  17.004  0.0818  0.0135  0.0904
28561W        W71478   5.209  19.233  18.724  0.1209 -0.0977 -0.1445
28562W        W71479   6.606  20.509  18.809 -0.0703  0.0408  0.1144
28563W        W71480   4.001  16.653  17.633  0.1020 -0.3733 -0.1540
28564W        W71481   4.852  16.620  18.870 -0.0656  0.2098 -0.2524
28565W        W71482   7.511  21.034  20.946 -0.4017 -0.2339  0.0354
28566W        W71483   5.329  20.247  19.054  0.0924 -0.0272  0.0557
28567W        W71484   4.183  21.500  23.297  0.0531  0.1855 -0.1142
28568W        W71485   4.514  19.854  20.907  0.2434  0.3072 -0.2977
28569W        W71486   5.991  20.082  19.608  0.0253 -0.1420  0.1994
28570W        W71487   7.387  20.443  20.136  0.2130  0.0604 -0.1318
28571W        W71488   3.423  21.199  20.923 -0.1101 -0.3787 -0.0970
28572W        W71489   5.037  20.266  22.444  0.0169 -0.0238 -0.2670
28573W        W71490   5.210  15.236  24.372  0.3710 -0.1985  0.1362
28574W        W71491   7.453  21.124  21.656  0.0224 -0.0647 -0.3516
28575W        W71492   6.727  20.989  22.775  0.0803 -0.0528 -0.1764
28576W        W71493   6.597  21.366  21.206 -0.2203  0.0893  0.3747
28577W        W71494   5.441  19.059  22.426  0.2205 -0.1921 -0.0660
28578W        W71495   2.413  21.438  22.704  0.0334  0.2903 -0.1311
28579W        W71496   5.812  16.691  20.870 -0.0328 -0.0992 -0.1125
28580W        W71497   4.552  17.077  22.327  0.2539  0.0183  0.2124
28581W        W71498   7.118  19.051  21.297  0.0874 -0.0036 -0.0047
28582W        W71499   2.157  18.895  21.224  0.1964 -0.0312  0.1431
28583W        W71500   5.096  19.870  23.842 -0.2622  0.1376 -0.1060
28584W        W71501   4.587  17.599  22.243  0.0687  0.1000  0.0205
28585W        W71502   5.722  19.899  23.067  0.2788  0.1508  0.0435
28586W        W71503   3.311  17.434  23.509 -0.2772  0.0683 -0.1203
28587W        W71504   7.136  17.914  23.451  0.0661 -0.2061 -0.1798
28588W        W71505   5.078  19.862  22.105 -0.0375 -0.3290  0.4444
28589W        W71506   2.732  19.663  20.723 -0.0706  0.3171  0.1047
28590W        W71507   5.553  17.255  23.449  0.1145 -0.0724 -0.0007
28591W        W71508   3.013  19.471  23.767  0.1180  0.1922 -0.1003
28592W        W71509   5.479  17.417  22.981 -0.0861 -0.0518 -0.1947
28593W        W71510   7.410  19.986  22.285 -0.0733  0.0460 -0.1989
28594W        W71511   6.040  22.040  21.819  0.2671  0.0470 -0.1820
28595W        W71512   5.789  20.641  22.148 -0.0018  0.0772  0.0337
28596W        W71513   7.731  19.467  23.720  0.5073  0.0940  0.0143
28597W        W71514   3.979  19.928  22.889  0.1061 -0.0074  0.2519
28598W        W71515   4.784  22.680  20.789 -0.0443 -0.3056  0.0109
28599W        W71516   5.097  21.793  22.754  0.1134 -0.0089  0.0164
28600W        W71517   4.747  19.250  20.615  0.0236  0.0442  0.1464
28601W        W71518   3.072  18.881  23.612 -0.1903 -0.0017  0.0238
28602W        W71519   4.651  20.237  23.317 -0.1066  0.2408  0.0604
28603W        W71520   3.508  20.212  21.623  0.0102  0.1724 -0.2424
28604W        W71521   5.318  22.942  24.363 -0.2408 -0.0774 -0.1448
28605W        W71522   5.008  21.255  23.684 -0.2022  0.2130 -0.3754
28606W        W71523   6.049  18.443  22.664  0.1037  0.1373 -0.0391
28607W        W71524   6.636  19.202  22.774 -0.0200 -0.1186 -0.3053
28608W        W71525   4.537  18.933  19.616 -0.0418  0.0308  0.3592
28609W        W71526   7.045  20.788  22.344  0.1066 -0.2534 -0.0324
28610W        W71527   5.899  20.982  23.745  0.0808 -0.3854  0.1454
28611W        W71528   5.440  18.621  23.436  0.1594  0.4154 -0.1083
28612W        W71529   7.634  18.808  22.575  0.0967  0.0927 -0.2544
28613W        W71530   3.889  22.270  19.705  0.2632 -0.0125  0.0991
28614W        W71531   6.823  20.009  22.430  0.1497 -0.3648 -0.1038
28615W        W71532   4.884  19.360  23.189 -0.3524 -0.1893  0.0100
28616W        W71533   5.513  19.616  22.296  0.1005  0.0946 -0.1205
28617W        W71534   5.109  19.276  21.111 -0.0914 -0.0860  0.0096
28618W        W71535   6.118  21.027  22.164  0.0101  0.1168  0.0600
28619W        W71536   5.974  15.898  22.272 -0.0584 -0.2454  0.0046
28620W        W71537   7.182  20.466  25.252  0.1676 -0.1038  0.0937
28621W        W71538   5.138  21.159  20.743 -0.3225 -0.0301  0.2765
28622W        W71539   4.980  18.158  22.304  0.0387  0.2010 -0.1055
28623W        W71540   3.680  20.778  20.889  0.3498  0.1364  0.0756
28624W        W71541   4.371  19.154  22.333  0.2307 -0.1756  0.0324
28625W        W71542   7.373  21.583  20.094  0.3496  0.3577 -0.1276
28626W        W71543   8.662  19.676  22.554 -0.0228 -0.0036 -0.1745
28627W        W71544   4.667  22.329  22.854 -0.1305 -0.1652  0.3087
28628W        W71545   5.135  17.788  20.792  0.1150 -0.0368  0.2089
28629W        W71546   3.668  18.392  23.965  0.0618  0.0813 -0.0670
28630W        W71547   3.870  19.606  23.294  0.1551  0.1178  0.3517
28631W        W71548   3.531  17.794  19.014  0.2216  0.0333  0.1794
28632W        W71549   8.420  19.192  24.282 -0.0654  0.1680 -0.0023
28633W        W71550   2.086  22.088  21.785 -0.0370 -0.1878  0.1000
28634W        W71551   6.563  18.045  20.164  0.0130 -0.0755  0.1088
28635W        W71552   3.446  19.291  23.670  0.1048  0.0942  0.0662
28636W        W71553   7.155  19.441  23.317  0.0562 -0.1657 -0.0137
28637W        W71554   6.901  18.960  19.024  0.0654 -0.3650 -0.2164
28638W        W71555   7.026  17.544  19.477 -0.0985 -0.1337 -0.1813
28639W        W71556   7.962  17.979  22.935 -0.2491 -0.0960  0.0198
28640W        W71557   4.005  20.176  21.414  0.2708  0.1161  0.1379
28641W        W71558   3.665  18.461  23.431  0.1700 -0.0997  0.3350
28642W        W71559   7.635  22.168  23.688  0.0691 -0.0377 -0.1732
28643W        W71560   6.163  23.268  22.350  0.0234  0.0213  0.0167
28644W        W71561   3.919  19.377  23.806  0.0906  0.1196 -0.1144
28645W        W71562   6.036  19.392  23.894  0.1396 -0.2802  0.2562
28646W        W71563   4.078  19.458  22.798  0.0318  0.2684 -0.1951
28647W        W71564   5.209  22.125  20.180 -0.0742  0.0865  0.1863
28648W        W71565   4.159  19.417  21.967 -0.1191  0.0702 -0.1795
28649W        W71566   4.443  19.965  21.406 -0.2044  0.0137 -0.1361
28650W        W71567   3.918  19.164  21.463  0.0510  0.0547  0.0800
28651W        W71568   5.567  18.374  22.796 -0.1594 -0.0189 -0.1005
28652W        W71569   6.855  19.801  19.940 -0.0229 -0.2131 -0.2603
28653W        W71570   3.241  18.621  21.720  0.0622 -0.1920  0.0032
28654W        W71571   5.857  19.161  21.127  0.1319  0.0257 -0.1567
28655W        W71572   4.740  20.235  21.913  0.4194 -0.1347 -0.0531
28656W        W71573   7.449  22.777  20.241  0.1582  0.4465 -0.0499
28657W        W71574   7.358  18.956  20.729 -0.0202  0.3913  0.0982
28658W        W71575   4.778  20.349  21.211  0.2407  0.0658  0.2282
28659W        W71576   4.018  18.427  21.397 -0.2832 -0.2461  0.0453
28660W        W71577   4.598  18.655  22.060  0.3128 -0.2143 -0.2766
28661W        W71578   5.311  19.032  24.396  0.1136  0.0136  0.0188
28662W        W71579   4.754  18.079  23.207 -0.2166  0.0812 -0.0146
28663W        W71580   8.007  19.973  24.584 -0.0217 -0.2761 -0.2207
28664W        W71581   4.741  17.126  20.425 -0.0569  0.2113 -0.0435
28665W        W71582   5.338  17.883  21.325  0.1732 -0.0250  0.1200
28666W        W71583   2.426  19.322  21.048 -0.0934 -0.2646  0.1003
28667W        W71584   3.265  19.326  23.165  0.1880 -0.0705 -0.1503
28668W        W71585   6.498  18.525  24.348  0.0890 -0.0991  0.0284
28669W        W71586   6.957  20.956  20.836  0.1771 -0.0083 -0.0600
28670W        W71587   7.324  23.506  21.617  0.1715  0.1120 -0.0942
28671W        W71588   5.582  23.247  20.872  0.0257  0.3526 -0.2138
28672W        W71589   5.798  18.986  23.531 -0.0478  0.2542  0.0057
28673W        W71590   1.543  18.850  21.637 -0.1265  0.0765 -0.0555
28674W        W71591   5.147  19.851  25.491  0.0927  0.1298 -0.1699
28675W        W71592   5.931  19.310  22.142 -0.1533 -0.0836 -0.2635
28676W        W71593   4.040  20.618  20.571  0.1763 -0.1557  0.0019
28677W        W71594   7.303  23.261  22.568  0.1037  0.4433 -0.0419
28678W        W71595   6.328  19.140  20.912  0.2373 -0.1621  0.2888
28679W        W71596   4.233  20.188  23.619  0.2535  0.1035 -0.0214
28680W        W71597   4.346  18.089  21.540 -0.0481  0.1035  0.0696
28681W        W71598   5.712  19.688  20.370  0.0757 -0.2727 -0.4132
28682W        W71599   6.008  18.724  21.363  0.2094 -0.0675  0.0014
28683W        W71600   4.922  18.727  19.912 -0.1250  0.2505 -0.3414
28684W        W71601   6.611  19.611  20.861 -0.0164  0.0150 -0.2236
28685W        W71602   6.078  21.437  21.231 -0.0743  0.0878 -0.1183
28686W        W71603   4.038  19.843  21.040  0.3886  0.0653 -0.2094
28687W        W71604   6.337  20.622  20.607 -0.0840  0.2095  0.0546
28688W        W71605   5.862  16.774  19.269 -0.2609 -0.1455 -0.1475
28689W        W71606   4.433  20.605  23.894  0.1138  0.0935  0.3768
28690W        W71607   5.332  16.935  21.714 -0.1193 -0.0003  0.1450
28691W        W71608   3.862  21.398  19.794  0.0478  0.3848 -0.0294
28692W        W71609   5.854  22.081  23.966  0.3169 -0.0302  0.0452
28693W        W71610   5.729  18.474  20.554 -0.1782  0.4236 -0.2284
28694W        W71611   7.570  17.360  21.953 -0.0721  0.0011  0.1006
28695W        W71612   6.383  18.472  24.984  0.1021  0.2679 -0.1530
28696W        W71613   5.505  20.278  21.376  0.0565 -0.0862 -0.0815
28697W        W71614   6.969  20.783  19.940  0.1484  0.2813  0.2143
28698W        W71615   5.732  20.985  18.010  0.1084  0.1473  0.3191
28699W        W71616   4.196  18.453  23.547  0.2053  0.2020  0.4559
28700W        W71617   6.435  20.613  21.115 -0.0122 -0.1911 -0.0634
28701W        W71618   5.111  18.503  21.958  0.0568 -0.1982  0.1560
28702W        W71619   5.782  21.071  18.893  0.2396  0.3815  0.3894
28703W        W71620   5.582  19.954  20.856  0.0995  0.2952 -0.4575
28704W        W71621   4.848  21.123  24.948  0.1941  0.1889  0.0734
28705W        W71622   6.967  21.952  26.208  0.0414  0.2687 -0.0963
28706W        W71623   6.473  20.733  22.454  0.1771  0.0609  0.1761
28707W        W71624   5.494  16.536  23.622 -0.0445 -0.0173 -0.1940
28708W        W71625   4.409  19.355  21.008 -0.3141  0.0179  0.1756
28709W        W71626   4.826  17.614  21.410  0.0974  0.3041 -0.1773
28710W        W71627   3.566  23.547  20.405 -0.2773  0.0881 -0.1384
28711W        W71628   7.209  18.203  23.924 -0.2285  0.1514  0.1596
28712W        W71629   5.732  17.766  21.991 -0.0031 -0.0198  0.0843
28713W        W71630   6.046  17.308  24.844  0.2351 -0.0950 -0.0927
28714W        W71631   7.681  21.418  24.249 -0.3135 -0.3571 -0.0849
28715W        W71632   7.870  21.934  20.933 -0.1092 -0.0940  0.1723
28716W        W71633   6.928  19.519  24.253  0.2327  0.3042  0.1389
28717W        W71634   4.361  19.420  21.497  0.1066 -0.1120  0.0042
28718W        W71635   5.323  18.815  24.850  0.4699  0.0872 -0.0378
28719W        W71636   5.635  18.638  23.919 -0.2221  0.0126  0.4662
28720W        W71637   3.184  20.760  23.530 -0.0743 -0.1532  0.0057
28721W        W71638   5.677  21.042  24.183 -0.2840  0.0822 -0.3522
28722W        W71639   6.513  22.048  20.782 -0.2822 -0.0281 -0.1148
28723W        W71640   5.356  18.229  23.842 -0.1836  0.0139 -0.0497
28724W        W71641   5.185  20.722  19.533  0.0909 -0.1952 -0.1218
28725W        W71642   4.509  20.665  20.840 -0.0829 -0.2732  0.0534
28726W        W71643   6.541  18.822  21.394 -0.0316 -0.0648 -0.1183
28727W        W71644   6.046  17.598  22.685 -0.2261 -0.2426 -0.0068
28728W        W71645   5.778  21.112  24.929 -0.0712  0.2273 -0.0631
28729W        W71646   5.431  21.441  21.690  0.0816 -0.0692  0.2695
28730W        W71647   6.389  19.686  22.163  0.1195 -0.1330  0.1381
28731W        W71648   6.025  22.128  21.035 -0.0555 -0.1919  0.3019
28732W        W71649   5.906  18.884  22.528 -0.0946 -0.2322 -0.0156
28733W        W71650   3.166  20.693  20.921 -0.1203 -0.0920 -0.2718
28734W        W71651   4.093  21.756  17.911  0.1514  0.2373 -0.1013
28735W        W71652   4.055  18.936  21.964  0.0944 -0.2004 -0.0420
28736W        W71653   4.711  19.129  21.329 -0.0989 -0.1990 -0.3080
28737W        W71654   6.728  19.867  21.302  0.0473  0.1774 -0.0980
28738W        W71655   3.864  18.030  22.294  0.0797 -0.0873 -0.1083
28739W        W71656   4.917  16.014  21.999  0.1051  0.0296  0.1523
28740W        W71657   4.869  19.892  23.019 -0.1399 -0.0083  0.0269
28741W        W71658   7.268  19.289  22.843 -0.1012  0.0152  0.0351
28742W        W71659   6.532  19.593  19.577 -0.2566 -0.3583  0.0898
28743W        W71660   6.800  17.518  21.384 -0.2419  0.4194 -0.1980
28744W        W71661   6.056  20.044  22.137  0.2308 -0.1734  0.3059
28745W        W71662   3.585  19.652  20.763 -0.1011 -0.4734 -0.1203
28746W        W71663   6.263  18.950  20.409  0.0794 -0.4413  0.2209
28747W        W71664   5.059  18.687  21.174 -0.0452  0.0596 -0.1153
28748W        W71665   4.261  21.386  21.447  0.0178 -0.0595  0.3440
28749W        W71666   6.286  21.647  22.391  0.2816  0.2156  0.0069
28750W        W71667   4.254  20.265  20.884  0.1677  0.1271  0.2999
28751W        W71668   4.070  18.936  23.587  0.1763  0.1817  0.1476
28752W        W71669   2.655  18.380  24.459  0.0337 -0.0169  0.1337
28753W        W71670   8.605  21.296  23.873  0.3402 -0.1242 -0.0081
28754W        W71671   4.772  17.320  20.955  0.1100  0.3420 -0.0385
28755W        W71672   5.558  18.313  19.996 -0.1389 -0.0702 -0.0254
28756W        W71673   5.426  18.021  20.462 -0.1103  0.0146  0.2646
28757W        W71674   7.639  21.890  24.104 -0.1560  0.2479  0.0348
28758W        W71675   5.549  19.130  23.974 -0.4123 -0.1620 -0.2178
28759W        W71676   3.807  21.034  22.617  0.0108 -0.3382  0.0756
28760W        W71677   5.372  18.110  21.954 -0.3286 -0.3659  0.1227
28761W        W71678   7.246  19.823  20.412  0.2182 -0.1339  0.0152
28762W        W71679   8.206  18.614  23.368  0.3840 -0.1208  0.3092
28763W        W71680   3.206  20.087  22.037  0.2261  0.0772  0.0322
28764W        W71681   3.418  19.334  24.675  0.2386 -0.0987  0.1258
28765W        W71682   4.502  19.047  22.909 -0.0126 -0.0791 -0.2056
28766W        W71683   5.544  17.510  22.495 -0.1884 -0.2894 -0.0362
28767W        W71684   4.628  19.539  22.749  0.0679  0.3841 -0.0622
28768W        W71685   4.934  20.803  21.021  0.1504  0.1226 -0.0534
28769W        W71686   2.247  20.254  23.499 -0.1300  0.1900 -0.1308
28770W        W71687   7.462  17.279  18.755 -0.1500  0.0202 -0.0985
28771W        W71688   6.483  20.336  19.285  0.0499 -0.1437 -0.0612
28772W        W71689   4.387  18.076  22.316 -0.0345 -0.1070  0.0767
28773W        W71690   6.415  18.775  22.278 -0.1036  0.1474 -0.1535
28774W        W71691   6.051  20.020  20.555 -0.0868  0.0214  0.0986
28775W        W71692   5.101  17.752  22.901  0.3481 -0.0491  0.0113
28776W        W71693   3.738  17.709  23.455 -0.0615  0.0631 -0.0501
28777W        W71694   5.812  21.229  20.347  0.2271 -0.1431 -0.2008
28778W        W71695   4.131  19.575  24.409  0.0329 -0.2547 -0.0309
28779W        W71696   4.297  19.354  23.304  0.2419  0.3649  0.0840
28780W        W71697   3.611  19.293  22.789  0.1528  0.0522  0.0983
28781W        W71698   4.611  17.400  21.767  0.0156  0.3275 -0.0581
28782W        W71699   5.052  18.786  19.418 -0.3541 -0.0727 -0.0299
28783W        W71700   7.022  21.285  21.999 -0.0322  0.0290  0.1325
28784W        W71701   5.911  23.079  23.172  0.0266  0.3143  0.2021
28785W        W71702   4.992  20.729  20.492  0.0311  0.2708 -0.1604
28786W        W71703   5.975  18.719  22.048  0.1398  0.0815  0.0190
28787W        W71704   4.542  20.130  22.768  0.0561 -0.2075  0.0697
28788W        W71705   6.242  19.598  21.271 -0.0648 -0.0064  0.1759
28789W        W71706   5.176  20.663  20.030 -0.1047  0.3262  0.1152
28790W        W71707   5.296  19.629  23.361 -0.2183 -0.5420  0.0572
28791W        W71708   4.629  18.575  23.043  0.2015 -0.0419 -0.3985
28792W        W71709   5.440  19.035  21.919 -0.0081  0.1311 -0.1344
28793W        W71710   5.371  19.496  22.923 -0.0101 -0.0913 -0.0976
28794W        W71711   6.172  19.161  21.556  0.4211 -0.1427  0.0499
28795W        W71712   6.880  18.250  24.320  0.2336  0.1432 -0.0498
28796W        W71713   6.734  18.275  23.593  0.0853  0.0926  0.2435
28797W        W71714   3.752  17.060  25.090 -0.0219  0.0208 -0.1136
28798W        W71715   7.413  21.083  19.934  0.1226  0.0223  0.1328
28799W        W71716   6.773  18.552  18.767 -0.0289 -0.2484  0.0399
28800W        W71717   7.633  16.556  22.047 -0.3078 -0.2271 -0.2397
28801W        W71718   4.717  19.705  20.240 -0.1182 -0.0700  0.0648
28802W        W71719   7.152  20.168  21.355 -0.1131  0.1553 -0.1088
28803W        W71720   2.739  18.841  22.430  0.5012 -0.1028  0.1499
28804W        W71721   6.179  20.102  23.191  0.1069  0.0963  0.0896
28805W        W71722   4.348  18.049  20.579 -0.0751  0.1198 -0.0468
28806W        W71723   6.357  19.065  23.699  0.1141  0.0697 -0.2231
28807W        W71724   6.653  21.376  20.616  0.2539 -0.0154  0.2981
28808W        W71725   6.320  20.139  21.366  0.1658  0.0771  0.3236
28809W        W71726   6.477  21.300  21.730  0.1268 -0.1172  0.1374
28810W        W71727   4.030  17.492  23.042 -0.1344  0.3168  0.1141
28811W        W71728   6.639  21.194  24.729 -0.1283 -0.0587  0.2014
28812W        W71729   4.414  17.089  19.461  0.0230 -0.2017  0.0817
28813W        W71730   4.955  18.826  22.325  0.2684 -0.0946 -0.0169
28814W        W71731   5.833  18.671  23.103 -0.2256  0.0566 -0.1689
28815W        W71732   6.866  18.920  21.904  0.1426 -0.2627  0.0237
28816W        W71733   5.199  18.361  19.696  0.0326  0.0174  0.2562
28817W        W71734   7.355  19.320  24.064  0.0065  0.1260  0.2388
28818W        W71735   4.593  20.728  21.940  0.1012 -0.1031 -0.2540
28819W        W71736   3.879  17.256  21.098  0.0305  0.1122  0.2805
28820W        W71737   6.645  21.280  22.346  0.0971  0.0477 -0.1393
28821W        W71738   3.666  20.767  23.769  0.1276  0.0177 -0.0856
28822W        W71739   7.171  20.148  22.758 -0.2452  0.4322  0.4276
28823W        W71740   2.596  18.991  21.386 -0.4831 -0.2723  0.0288
28824W        W71741   6.678  20.406  22.130 -0.1009  0.1344  0.1074
28825W        W71742   5.166  20.148  23.309  0.1437  0.0116  0.1775
28826W        W71743   8.287  20.502  24.307 -0.1087  0.3110  0.2131
28827W        W71744   6.406  21.196  24.122  0.0624  0.0158  0.3232
28828W        W71745   2.767  18.805  21.845 -0.3020 -0.2553 -0.4405
28829W        W71746   6.230  21.177  22.633  0.4627 -0.0000 -0.2827
28830W        W71747   7.847  20.931  21.802 -0.0059  0.0512  0.0397
28831W        W71748   4.187  18.881  21.043 -0.0110  0.0817 -0.3015
28832W        W71749   3.947  20.188  24.503 -0.0240  0.2200  0.1378
28833W        W71750   5.394  20.546  22.608 -0.1380  0.1577  0.2402
28834W        W71751   8.120  21.574  23.029 -0.0113  0.1417 -0.0783
28835W        W71752   1.856  19.831  22.385  0.4436  0.0987  0.0994
28836W        W71753   6.138  21.989  20.416  0.3312 -0.0320  0.1283
28837W        W71754   4.290  21.071  24.140  0.2642 -0.0491  0.2488
28838W        W71755   3.472  18.792  22.564  0.0362  0.1677 -0.0972
28839W        W71756   3.789  21.578  21.638 -0.1560  0.0585  0.0514
28840W        W71757   6.022  20.975  21.132  0.0605  0.1633 -0.0338
28841W        W71758   5.414  19.007  21.378 -0.0498 -0.0077 -0.2258
28842W        W71759   5.385  23.167  23.928 -0.1712  0.0814  0.1713
28843W        W71760   4.058  18.940  19.316 -0.0913  0.2629  0.1179
28844W        W71761   4.617  19.909  22.315 -0.1976 -0.1051  0.1396
28845W        W71762   4.974  22.054  23.189 -0.3927  0.0667  0.1382
28846W        W71763   7.013  22.631  17.944  0.1472  0.2658 -0.0037
28847W        W71764   5.282  20.339  21.904 -0.1651 -0.0594 -0.0242
28848W        W71765   6.501  20.427  23.428 -0.1666 -0.5042 -0.3036
28849W        W71766   4.698  19.482  18.688 -0.0281 -0.1947 -0.3063
28850W        W71767   7.860  19.798  22.184  0.1115 -0.3961 -0.2069
28851W        W71768   5.780  19.100  20.598 -0.2389  0.0284  0.4642
28852W        W71769   7.754  20.140  22.781 -0.4438  0.0272  0.5196
28853W        W71770   3.283  19.666  22.202 -0.5673 -0.1687 -0.0407
28854W        W71771   6.257  19.755  20.054  0.0364 -0.4450  0.1158
28855W        W71772   6.226  18.590  23.642  0.0995  0.0183  0.0383
28856W        W71773   7.430  16.810  21.667  0.0625 -0.0411  0.1227
28857W        W71774   5.378  21.895  24.068 -0.1552  0.0663 -0.2371
28858W        W71775   8.192  22.168  21.347  0.0622  0.0246 -0.1148
28859W        W71776   4.537  18.721  24.414 -0.0402 -0.1524  0.3293
28860W        W71777   4.978  19.160  22.724 -0.0332  0.0344 -0.0241
28861W        W71778   6.811  17.728  23.766 -0.4431  0.1306 -0.3797
28862W        W71779   4.155  23.462  21.650  0.2457 -0.0389  0.2382
28863W        W71780   6.287  18.385  23.104 -0.1813  0.1466 -0.2390
28864W        W71781   5.551  19.820  21.843 -0.0685 -0.0723 -0.1024
28865W        W71782   5.937  19.573  20.890 -0.3106  0.2698  0.1827
28866W        W71783   4.708  23.048  21.983 -0.2581  0.1951  0.0695
28867W        W71784   4.782  18.100  21.840 -0.1468  0.0540 -0.2334
28868W        W71785   6.493  20.095  20.334 -0.0318 -0.1430  0.0231
28869W        W71786   4.295  20.237  22.376  0.1451 -0.0243 -0.0162
28870W        W71787   6.796  18.473  23.093 -0.0552  0.2411  0.0237
28871W        W71788   4.611  17.811  20.952  0.1605 -0.3307 -0.2055
28872W        W71789   7.492  18.340  20.156 -0.1857 -0.0399 -0.1136
28873W        W71790   7.510  18.924  20.234 -0.0704 -0.0767 -0.4613
28874W        W71791   2.874  21.390  23.048 -0.0320 -0.0061  0.2027
28875W        W71792   5.224  18.327  21.512  0.2200 -0.0259 -0.0925
28876W        W71793   7.861  21.237  24.853  0.2614 -0.0800 -0.1193
28877W        W71794   4.168  19.593  20.638 -0.1814 -0.1550  0.0756
28878W        W71795   8.370  21.608  23.473 -0.2057  0.0924  0.3891
28879W        W71796   3.188  20.147  21.245 -0.0225  0.1153  0.3891
28880W        W71797   5.666  20.708  19.863 -0.0817 -0.0199 -0.0412
28881W        W71798   3.572  20.430  20.530 -0.0507  0.0838  0.0966
28882W        W71799   5.616  18.992  25.283 -0.2053  0.0779 -0.2843
28883W        W71800   8.010  23.426  24.353  0.0075 -0.1177  0.0711
28884W        W71801   4.248  17.558  21.236  0.0219  0.1100  0.3933
28885W        W71802   8.721  19.415  20.413  0.0020 -0.2337 -0.1288
28886W        W71803   8.040  21.333  21.579  0.0834  0.1524 -0.1777
28887W        W71804   5.153  22.170  17.717  0.0094 -0.2645  0.0922
28888W        W71805   5.772  20.427  20.527  0.0895  0.0992  0.1717
28889W        W71806   6.046  19.701  21.760 -0.2178 -0.1633  0.0871
28890W        W71807   3.868  19.867  23.982  0.0209 -0.0368  0.0080
28891W        W71808   5.527  20.574  23.529  0.2252  0.1236 -0.3761
28892W        W71809   8.013  20.439  23.906 -0.1365 -0.1445 -0.1575
28893W        W71810   4.809  19.635  21.293  0.1289 -0.0347 -0.0776
28894W        W71811   5.561  18.603  21.708  0.0459  0.1705 -0.1503
28895W        W71812   5.117  21.754  21.910  0.2187 -0.3784  0.0950
28896W        W71813   6.358  18.523  21.720  0.3188 -0.4438 -0.3745
28897W        W71814   6.309  19.017  24.734 -0.3037  0.1700  0.0237
28898W        W71815   6.022  20.834  20.154 -0.3033  0.0374  0.3317
28899W        W71816   7.084  18.676  25.910 -0.3474  0.0443 -0.1094
28900W        W71817   5.856  20.499  21.056 -0.0550 -0.0568 -0.0536
28901W        W71818   3.542  21.182  24.114  0.2594 -0.2406 -0.0191
28902W        W71819   3.884  21.148  20.608  0.2028  0.1560 -0.0918
28903W        W71820   6.784  18.601  23.954 -0.0260 -0.2495 -0.1220
28904W        W71821   4.023  20.408  21.876  0.0836 -0.2681 -0.1354
28905W        W71822   6.033  22.035  23.150 -0.2033 -0.0069 -0.0106
28906W        W71823   8.935  22.635  21.310 -0.3513 -0.0098  0.3938
28907W        W71824   5.576  17.909  22.970 -0.2302  0.2277  0.0907
28908W        W71825   6.269  20.887  21.543  0.1472  0.3278 -0.0884
28909W        W71826   4.317  17.922  23.256 -0.0202  0.3347 -0.1307
28910W        W71827   8.210  19.447  20.489  0.0017 -0.0347 -0.3212
28911W        W71828   7.345  19.012  18.745  0.0618 -0.0032 -0.1778
28912W        W71829   5.135  17.682  22.343 -0.2169  0.1987  0.1111
28913W        W71830   4.217  21.105  20.965  0.0883 -0.0763 -0.0758
28914W        W71831   5.313  19.702  21.200  0.0264 -0.4538 -0.1446
28915W        W71832   4.163  19.703  22.385  0.3105 -0.1154  0.2314
28916W        W71833   2.965  16.144  23.451 -0.0971 -0.2596  0.1848
28917W        W71834   5.219  19.137  23.600 -0.2294  0.0892 -0.3083
28918W        W71835   3.916  18.124  23.151  0.0678  0.0673 -0.2802
28919W        W71836   3.889  18.369  22.639  0.0640  0.0370  0.1432
28920W        W71837   7.619  21.109  22.703 -0.0188 -0.0035  0.0859
28921W        W71838   5.508  19.082  23.122  0.3953  0.0233  0.0220
28922W        W71839   4.613  18.488  22.523 -0.2960  0.1861  0.2044
28923W        W71840   5.622  21.272  20.801 -0.0167  0.0621  0.1555
28924W        W71841   6.284  23.129  20.779 -0.3132  0.1104 -0.0489
28925W        W71842   5.466  19.333  20.142 -0.3032  0.1039 -0.2134
28926W        W71843   8.288  22.272  22.577  0.2840 -0.4742  0.1972
28927W        W71844   5.055  19.292  22.105  0.0150 -0.1152 -0.0035
28928W        W71845   6.109  19.119  23.127 -0.1576  0.0115 -0.1002
28929W        W71846   4.222  19.236  25.614  0.3372  0.0461  0.2131
28930W        W71847   2.900  20.168  19.895  0.1186  0.1390 -0.1964
28931W        W71848   6.504  18.831  23.241 -0.0200  0.1262  0.2725
28932W        W71849   5.759  19.447  23.304  0.0386 -0.2233  0.1911
28933W        W71850   4.939  21.129  21.963 -0.2352  0.0897  0.2232
28934W        W71851   5.576  20.088  22.310 -0.1787  0.0435  0.1948
28935W        W71852   5.462  21.180  23.471  0.3877 -0.0782 -0.1309
28936W        W71853   1.675  17.868  23.029  0.0638  0.0271 -0.3799
28937W        W71854   7.378  20.646  19.618  0.2132  0.4008  0.0564
28938W        W71855   6.433  19.218  21.950  0.2795  0.1130  0.0285
28939W        W71856   7.404  19.580  21.954  0.1919  0.0555 -0.0200
28940W        W71857   6.367  18.283  22.149 -0.1454 -0.0940 -0.2256
28941W        W71858   6.505  19.684  22.628  0.2661 -0.0069  0.3022
28942W        W71859   4.042  17.872  22.697 -0.1279 -0.1612 -0.0791
28943W        W71860   6.242  19.679  23.512  0.1329  0.1027 -0.0275
28944W        W71861   5.824  20.021  23.516  0.0670  0.2142 -0.1594
28945W        W71862   3.146  15.569  22.791  0.1664 -0.0424  0.1282
28946W        W71863   3.767  17.538  21.591  0.0635 -0.1235  0.0394
28947W        W71864   5.927  20.219  21.648 -0.0151  0.0068  0.0074
28948W        W71865   4.327  19.734  23.809 -0.0034  0.0984 -0.0047
28949W        W71866   5.707  19.392  21.570 -0.1509 -0.1698 -0.0586
28950W        W71867   6.939  18.772  23.490 -0.0332  0.0408  0.0096
28951W        W71868   6.714  21.278  23.634  0.2833  0.2818 -0.1352
28952W        W71869   8.591  20.860  24.379 -0.1610 -0.0894  0.3362
28953W        W71870   4.770  18.275  20.659 -0.0084  0.0484 -0.1312
28954W        W71871   5.656  22.239  21.444 -0.2152  0.0592  0.3305
28955W        W71872   5.600  19.608  23.746 -0.1135 -0.1252 -0.0574
28956W        W71873   7.374  22.192  22.930 -0.1600  0.2454  0.1426
28957W        W71874   6.897  19.471  22.375  0.4051  0.1407  0.1439
28958W        W71875   7.071  20.687  21.798 -0.3071  0.2993 -0.1196
28959W        W71876   3.671  17.185  22.076 -0.1230 -0.0836  0.1736
28960W        W71877   5.969  21.558  22.875  0.0035 -0.0719 -0.0169
28961W        W71878   4.690  19.604  21.932  0.2193 -0.1359  0.0080
28962W        W71879   6.889  19.629  22.963 -0.2419 -0.2318  0.0851
28963W        W71880   2.952  17.122  23.734 -0.0495 -0.1192  0.1393
28964W        W71881   6.522  20.882  19.774 -0.1406 -0.2497 -0.1888
28965W        W71882   5.212  21.735  23.576  0.1265  0.1946  0.0667
28966W        W71883   4.051  18.627  23.027  0.0495  0.1091  0.0746
28967W        W71884   4.614  19.118  26.934 -0.0401 -0.0346 -0.0825
28968W        W71885   4.241  18.253  25.588 -0.1010  0.0358 -0.0407
28969W        W71886   8.001  20.467  24.729 -0.2370  0.2582 -0.0173
28970W        W71887   6.283  19.549  24.858  0.1217  0.0831 -0.0983
28971W        W71888   2.240  19.684  26.542  0.0418 -0.1985 -0.1455
28972W        W71889   7.638  22.501  24.195 -0.3687 -0.0200 -0.1118
28973W        W71890   4.308  17.821  24.893 -0.0332  0.3433  0.1478
28974W        W71891   7.483  21.828  26.345  0.1738  0.0574  0.1136
28975W        W71892   6.219  20.859  27.002  0.0887 -0.0134 -0.2746
28976W        W71893   6.666  20.134  22.946  0.3741  0.1615  0.3637
28977W        W71894   5.304  19.181  25.663  0.0621 -0.1137 -0.1749
28978W        W71895   4.478  22.636  26.339  0.0921 -0.1009 -0.3146
28979W        W71896   5.800  17.633  26.280  0.0354  0.1333  0.0867
28980W        W71897   4.846  17.753  24.765  0.0700 -0.1307 -0.5554
28981W        W71898   6.872  20.921  26.296 -0.1302  0.0305  0.2904
28982W        W71899   4.352  19.228  24.091  0.3149 -0.1678  0.3823
28983W        W71900   4.924  19.517  26.140 -0.0994  0.1215 -0.3839
28984W        W71901   3.807  18.533  26.252 -0.1359  0.3570  0.1464
28985W        W71902   6.177  23.646  25.149  0.0926  0.1396 -0.1892
28986W        W71903   5.572  17.127  24.584  0.1985 -0.0618 -0.1781
28987W        W71904   4.903  18.985  27.341  0.2180 -0.4562  0.0292
28988W        W71905   5.675  20.125  24.877  0.2562 -0.0439  0.1442
28989W        W71906   3.390  19.733  24.090  0.3928  0.2070 -0.0550
28990W        W71907   2.157  21.040  26.689 -0.1146  0.1879  0.2715
28991W        W71908   5.174  21.018  24.593 -0.0460  0.0597 -0.1155
28992W        W71909   4.696  18.561  26.071  0.0451  0.0676  0.2141
28993W        W71910   5.786  20.337  26.918 -0.1416  0.3263 -0.1237
28994W        W71911   7.272  22.151  25.482  0.2307 -0.0140  0.0508
28995W        W71912   5.170  21.598  26.797  0.1079 -0.0720 -0.2459
28996W        W71913   6.947  18.255  25.667 -0.3098  0.2819  0.1089
28997W        W71914   3.305  20.608  25.357  0.0608 -0.0716 -0.1970
28998W        W71915   2.609  21.342  25.662 -0.1776 -0.0588 -0.1177
28999W        W71916   5.113  19.032  25.235  0.1871 -0.0878  0.1906
29000W        W71917   5.600  20.097  25.393  0.0509 -0.0103  0.1676
29001W        W71918   6.275  19.559  26.821 -0.0136  0.0144  0.4054
29002W        W71919   3.489  21.441  27.951 -0.0974  0.1592 -0.0758
29003W        W71920   4.779  19.779  23.481  0.2822  0.4620  0.0769
29004W        W71921   4.603  21.438  26.846  0.0067 -0.2335  0.1206
29005W        W71922   4.616  20.418  25.448  0.3619  0.1432 -0.3590
29006W        W71923   3.323  19.281  26.240 -0.0292  0.1001  0.2511
29007W        W71924   4.766  18.340  25.633  0.1208 -0.0249 -0.0965
29008W        W71925   6.879  20.735  23.657 -0.3378 -0.0718 -0.0651
29009W        W71926   6.239  21.239  25.035  0.1067 -0.4026 -0.0665
29010W        W71927   5.271  18.075  25.559 -0.1655  0.0671 -0.2584
29011W        W71928   3.974  21.497  24.898  0.0749  0.0531 -0.1505
29012W        W71929   8.036  19.851  27.844  0.1401  0.2619 -0.0963
29013W        W71930   6.381  20.884  23.602  0.3914 -0.0399 -0.2501
29014W        W71931   5.549  20.114  23.884 -0.1717 -0.0203 -0.4162
29015W        W71932   4.352  19.190  24.588 -0.2079 -0.0862 -0.0566
29016W        W71933   7.051  20.863  25.498  0.1231  0.2266  0.1336
29017W        W71934   3.476  18.830  24.470  0.0193  0.1058  0.0965
29018W        W71935   5.309  20.818  25.039 -0.3717 -0.2142  0.2851
29019W        W71936   4.066  18.091  26.984 -0.1990 -0.0212  0.2414
29020W        W71937   5.813  19.852  26.097 -0.1316  0.2673  0.4565
29021W        W71938   5.722  19.695  24.664 -0.2505 -0.0296  0.1441
29022W        W71939   6.136  20.118  25.170  0.1942  0.2150 -0.0811
29023W        W71940   4.942  20.710  27.126 -0.4104  0.1298  0.3958
29024W        W71941   4.513  19.904  25.524 -0.0098  0.2138  0.1075
29025W        W71942   6.073  22.589  23.085  0.3268 -0.0832  0.0871
29026W        W71943   4.838  20.574  24.957  0.2355  0.1507  0.1300
29027W        W71944   5.330  22.142  25.263  0.1114 -0.0184 -0.0240
29028W        W71945   3.647  17.759  25.811  0.0043 -0.5111  0.0481
29029W        W71946   3.525  20.048  26.303 -0.0622 -0.1158  0.1358
29030W        W71947   3.088  19.952  28.230  0.2360 -0.4288  0.0612
29031W        W71948   4.342  17.379  24.312  0.0551 -0.0802  0.0607
29032W        W71949   8.003  19.375  26.765 -0.1122 -0.0054  0.1036
29033W        W71950   6.588  20.322  26.139  0.1290 -0.0195  0.2864
29034W        W71951   7.810  17.919  25.384 -0.0312 -0.1050  0.0833
29035W        W71952   3.730  19.118  26.475  0.4126  0.3195  0.3363
29036W        W71953   7.579  20.281  26.698  0.0567 -0.2720  0.1068
29037W        W71954   7.317  17.105  24.729 -0.1667  0.1869 -0.2616
29038W        W71955   6.581  18.008  27.254 -0.0485  0.2687  0.0726
29039W        W71956   7.299  19.596  26.828 -0.3483 -0.2431  0.1189
29040W        W71957   4.880  20.437  22.919 -0.0073  0.1176  0.2795
29041W        W71958   6.942  20.254  23.639  0.2722 -0.0898  0.2324
29042W        W71959   7.996  21.665  26.305  0.2067  0.1591  0.0562
29043W        W71960   7.535  19.755  24.165 -0.1028  0.4458 -0.0231
29044W        W71961   5.660  21.646  26.503  0.2440 -0.2964 -0.0127
29045W        W71962   7.408  19.055  25.472  0.0160 -0.1114 -0.2147
29046W        W71963   6.084  18.548  27.635  0.1822  0.0448  0.0416
29047W        W71964   2.845  21.524  23.939 -0.0392 -0.1290  0.1427
29048W        W71965   4.333  20.525  25.075  0.0759 -0.1166 -0.2115
29049W        W71966   4.199  18.341  24.620 -0.0885  0.2641  0.2334
29050W        W71967   3.321  18.280  26.100 -0.0403  0.0645 -0.0853
29051W        W71968   5.150  20.579  26.648 -0.1239 -0.2814  0.1735
29052W        W71969   7.947  17.181  23.377  0.3421 -0.3215  0.0982
29053W        W71970   3.624  19.601  27.399 -0.1601 -0.2684  0.1743
29054W        W71971   8.461  16.737  27.027  0.0903  0.2888 -0.3937
29055W        W71972   6.211  21.483  24.595 -0.0304  0.0309  0.0736
29056W        W71973   6.734  22.456  24.932  0.0713  0.0860  0.4259
29057W        W71974   8.630  19.571  24.070 -0.1631 -0.1666  0.6107
29058W        W71975   5.738  21.322  25.364 -0.0818 -0.0890 -0.1528
29059W        W71976   2.867  18.536  28.344 -0.1076 -0.2624  0.1278
29060W        W71977   4.098  19.075  25.166  0.0280 -0.1679 -0.1855
29061W        W71978   4.301  19.657  25.886  0.2154 -0.0773  0.0302
29062W        W71979   4.122  18.656  25.885 -0.0821  0.1178  0.1206
29063W        W71980   7.979  18.681  26.085  0.0427 -0.0815  0.0404
29064W        W71981   2.518  18.012  25.785 -0.1512  0.1703  0.2263
29065W        W71982   7.007  18.751  25.389  0.1780 -0.4011  0.0975
29066W        W71983   6.270  20.379  27.214  0.1378 -0.1035  0.1816
29067W        W71984   5.476  20.221  26.463 -0.2507  0.2959  0.0479
29068W        W71985   7.988  17.578  26.337  0.1651 -0.1954  0.0641
29069W        W71986   5.129  22.618  23.900 -0.1441 -0.0704 -0.0009
29070W        W71987   7.808  21.550  25.842  0.0190  0.0595  0.3669
29071W        W71988   6.061  20.444  25.654 -0.2389 -0.0963 -0.2242
29072W        W71989   5.774  19.005  25.816 -0.1122  0.2597 -0.0341
29073W        W71990   5.724  16.351  26.678  0.1216  0.2438 -0.1421
29074W        W71991   2.149  22.056  25.972  0.2527  0.0315  0.4090
29075W        W71992   4.895  22.165  25.063  0.1229  0.2972  0.1206
29076W        W71993   3.197  18.372  25.577  0.0732 -0.0623 -0.1609
29077W        W71994   7.940  21.634  26.784  0.0704 -0.1282  0.2448
29078W        W71995   5.458  19.441  26.106 -0.1861  0.3714 -0.0612
29079W        W71996   4.751  21.859  26.516  0.2038 -0.2186 -0.1351
29080W        W71997   7.246  19.460  24.694  0.3866 -0.0316 -0.2507
29081W        W71998   7.860  20.847  25.908  0.3014 -0.0312  0.0623
29082W        W71999   6.116  20.625  27.740  0.0168 -0.0514 -0.0945
29083W        W72000   3.788  16.648  25.291  0.1364  0.2809 -0.0005
29084W        W72001   7.123  22.652  26.758  0.1133 -0.2955  0.0245
29085W        W72002   6.743  22.286  26.668  0.0901 -0.1878  0.0102
29086W        W72003   4.771  19.476  25.636  0.1846 -0.0967  0.1272
29087W        W72004   6.165  23.274  26.437 -0.0937  0.0611  0.0181
29088W        W72005   7.679  19.232  26.027  0.0564  0.0157  0.0630
29089W        W72006   3.689  20.545  27.476 -0.2703  0.2696 -0.0029
29090W        W72007   4.222  19.506  27.151  0.0723 -0.1400  0.0160
29091W        W72008   2.566  19.280  24.245 -0.1521 -0.3290 -0.0680
29092W        W72009   5.105  19.941  28.281  0.1882  0.1857 -0.0035
29093W        W72010   5.513  17.199  25.581 -0.2193  0.1459 -0.1720
29094W        W72011   7.945  18.800  25.340 -0.0241  0.0081  0.1245
29095W        W72012   5.855  19.937  26.595  0.2026 -0.1326 -0.0536
29096W        W72013   5.222  20.347  25.186  0.2591 -0.1239 -0.0959
29097W        W72014   5.295  20.420  24.678 -0.3030 -0.0862 -0.0311
29098W        W72015   5.613  18.114  25.192 -0.0790  0.0560 -0.1722
29099W        W72016   4.592  21.110  27.256  0.1693  0.1807  0.2782
29100W        W72017   3.473  20.303  23.714  0.1619 -0.0469  0.0449
29101W        W72018   7.092  19.910  25.007  0.1513 -0.2174 -0.3602
29102W        W72019   4.513  19.765  24.654 -0.0422  0.1234 -0.1103
29103W        W72020   7.990  22.137  26.617  0.0712  0.0422 -0.1557
29104W        W72021   4.667  21.695  28.230 -0.1284 -0.0540 -0.1127
29105W        W72022   7.339  18.782  26.754  0.1046 -0.3312 -0.0928
29106W        W72023   4.832  21.925  25.488 -0.0107 -0.0886 -0.2920
29107W        W72024   5.993  19.152  27.162 -0.1759  0.2521 -0.0279
29108W        W72025   5.939  18.254  21.946  0.4145  0.0420 -0.2919
29109W        W72026   4.575  17.266  23.896 -0.2221  0.0904  0.0796
29110W        W72027   4.990  21.256  25.423 -0.0372  0.1828  0.0475
29111W        W72028   7.968  17.478  25.544 -0.0081  0.0590 -0.0210
29112W        W72029   5.513  17.993  26.521  0.0393  0.1992  0.0693
29113W        W72030   4.701  18.953  27.864  0.2170 -0.0687 -0.1583
29114W        W72031   8.762  20.370  25.900  0.1415 -0.0842  0.0256
29115W        W72032   6.830  22.021  25.202  0.0739 -0.0620  0.1361
29116W        W72033   6.759  19.921  26.551 -0.1753 -0.0344  0.1885
29117W        W72034   5.638  20.749  24.614 -0.1722  0.0882  0.1149
29118W        W72035   5.415  18.624  25.722  0.3102 -0.1331 -0.1734
29119W        W72036   5.664  18.575  27.931 -0.1436  0.0944 -0.0646
29120W        W72037   3.799  21.174  25.777  0.0224  0.1095 -0.1679
29121W        W72038   6.704  19.953  27.520 -0.0403  0.1168 -0.0504
29122W        W72039   6.807  20.341  24.892  0.0988 -0.2014 -0.0987
29123W        W72040   6.832  18.456  28.757 -0.2911  0.1983 -0.0760
29124W        W72041   6.405  18.179  23.968  0.1502 -0.1348 -0.0915
29125W        W72042   3.770  20.795  25.371 -0.0078 -0.3705 -0.3087
29126W        W72043   4.067  20.652  24.628 -0.5326 -0.0976 -0.1909
29127W        W72044   4.826  18.574  25.182  0.1099  0.0582 -0.0774
29128W        W72045   7.374  21.202  25.139  0.2516 -0.3400  0.2915
29129W        W72046   5.090  20.572  24.262  0.1500 -0.0445  0.0951
29130W        W72047   5.791  20.577  27.407  0.0658 -0.2946  0.2813
29131W        W72048   5.063  20.728  23.391 -0.2141 -0.0756  0.0412
29132W        W72049   6.447  17.457  26.793  0.0241 -0.1339 -0.1692
29133W        W72050   2.245  21.723  26.355 -0.3230  0.1990  0.0843
29134W        W72051   5.878  19.726  25.149 -0.0905  0.3705 -0.2003
29135W        W72052   4.009  18.495  25.114  0.1874  0.1691  0.1642
29136W        W72053   7.683  19.495  25.592 -0.0209  0.2636  0.2287
29137W        W72054   6.500  19.059  24.190  0.5636 -0.1713  0.2076
29138W        W72055   5.361  17.771  24.094 -0.2644 -0.0290  0.0956
29139W        W72056   6.056  18.563  24.575 -0.0108  0.0698 -0.1368
29140W        W72057   3.315  20.591  26.154 -0.0371 -0.0281 -0.3899
29141W        W72058   6.591  19.964  25.136  0.1317  0.2593 -0.2370
29142W        W72059   7.366  17.405  24.288  0.2139  0.1363  0.2995
29143W        W72060   7.675  21.176  26.274  0.1306 -0.2531  0.0258
29144W        W72061   3.742  19.155  27.807 -0.2352 -0.1930 -0.0696
29145W        W72062   3.275  18.033  24.736  0.0581  0.0563  0.1683
29146W        W72063   5.325  18.600  26.537 -0.2290  0.0871 -0.0249
29147W        W72064   3.654  19.331  24.257  0.0202  0.1763 -0.0785
29148W        W72065   2.659  20.166  24.319  0.1293  0.0904 -0.0487
29149W        W72066   5.748  22.918  27.562  0.2415 -0.0586 -0.2037
29150W        W72067   3.395  20.203  24.883  0.1307 -0.0173 -0.0511
29151W        W72068   4.324  20.029  24.212  0.0057  0.0112  0.0622
29152W        W72069   4.898  21.510  25.836 -0.1312 -0.3891  0.0740
29153W        W72070   6.005  19.916  27.136  0.0169 -0.0874 -0.0927
29154W        W72071   4.960  18.077  25.139 -0.0811 -0.1505  0.1408
29155W        W72072   6.168  19.289  22.644  0.2096  0.0050  0.0581
29156W        W72073   7.262  19.551  25.278  0.1955  0.0514  0.1143
29157W        W72074   7.394  20.928  28.195  0.1052 -0.0230 -0.0441
29158W        W72075   5.742  19.463  25.655 -0.0520 -0.1066 -0.0707
29159W        W72076   6.529  18.723  26.243 -0.2209  0.0918 -0.0158
29160W        W72077   6.899  17.910  27.664 -0.0340 -0.1004  0.3712
29161W        W72078   7.858  22.817  25.116 -0.2112  0.0567 -0.0372
29162W        W72079   4.501  20.459  26.823 -0.1605  0.1911  0.0041
29163W        W72080   3.928  19.993  25.835  0.2293  0.1058  0.2287
29164W        W72081   5.255  20.903  23.892  0.1225  0.0722 -0.0270
29165W        W72082   5.250  19.535  24.215  0.0076 -0.0382 -0.1653
29166W        W72083   5.298  18.482  25.276 -0.2738  0.0216 -0.0307
29167W        W72084   3.915  20.486  26.198 -0.0903 -0.0291 -0.0671
29168W        W72085   5.966  21.441  24.161 -0.3293  0.0450  0.0053
29169W        W72086   4.749  20.863  26.574 -0.4657  0.1551 -0.0244
29170W        W72087   3.497  18.392  22.944 -0.1117 -0.1802  0.1241
29171W        W72088   6.304  23.138  25.928  0.0990 -0.0987  0.1767
29172W        W72089   4.574  19.084  25.952  0.0900  0.0254  0.2265
29173W        W72090   8.875  18.014  26.929  0.2783 -0.1488  0.0169
29174W        W72091   6.612  19.319  23.296  0.0351  0.3430  0.0241
29175W        W72092   7.586  19.227  26.540  0.3224 -0.0147  0.1736
29176W        W72093   4.042  18.594  27.121 -0.1064  0.0295  0.0525
29177W        W72094   6.065  20.313  26.185 -0.1650 -0.2503 -0.2143
29178W        W72095   3.166  18.515  26.785 -0.3263  0.0608  0.2088
29179W        W72096   6.993  20.840  27.748  0.0505 -0.4181 -0.1382
29180W        W72097   4.096  20.351  27.191 -0.3009 -0.0546 -0.0401
29181W        W72098   6.190  18.362  25.947  0.2301 -0.1494  0.1142
29182W        W72099   2.772  18.240  24.009 -0.2556  0.0772  0.0531
29183W        W72100   6.510  20.782  25.877  0.3893 -0.1744  0.1327
29184W        W72101   5.236  19.711  27.342 -0.0031 -0.0269  0.2083
29185W        W72102   3.897  19.408  24.811 -0.3520 -0.1690  0.0031
29186W        W72103   6.671  19.671  25.557  0.1360 -0.1230  0.0152
29187W        W72104   3.111  20.129  25.281  0.1121 -0.2810  0.0524
29188W        W72105   6.317  17.632  26.377  0.0685  0.2307  0.3374
29189W        W72106   5.580  20.533  24.116 -0.1686 -0.1314 -0.0856
29190W        W72107   4.101  20.697  26.725  0.1699 -0.1613 -0.1026
29191W        W72108   4.621  17.224  25.838 -0.2202 -0.2563 -0.1481
29192W        W72109   6.167  20.906  25.487  0.0948 -0.0063  0.1339
29193W        W72110   7.675  16.752  26.560  0.3051 -0.1377  0.1032
29194W        W72111   4.856  18.307  26.488 -0.6275  0.1269 -0.1819
29195W        W72112   6.165  18.953  26.750 -0.2362 -0.2358  0.0639
29196W        W72113   5.162  18.881  26.146 -0.3068 -0.0015  0.2192
29197W        W72114   3.279  21.898  27.733 -0.3063  0.0628 -0.1116
29198W        W72115   4.073  22.675  25.161  0.0043  0.1435 -0.0304
29199W        W72116   8.442  18.297  24.813 -0.0419 -0.3408 -0.0571
29200W        W72117   9.305  18.751  25.080 -0.3231 -0.0325  0.0928
29201W        W72118   6.670  19.483  23.762  0.1368  0.0038  0.0668
29202W        W72119   6.736  17.851  25.505 -0.2041  0.2708  0.2235
29203W        W72120   5.406  17.796  24.885 -0.3524  0.1209  0.0337
29204W        W72121   5.710  19.283  28.561  0.0082 -0.0168 -0.0678
29205W        W72122   3.157  17.940  24.291 -0.1612  0.2226 -0.0340
29206W        W72123   6.539  18.557  25.542  0.0010  0.0239 -0.0017
29207W        W72124   5.736  22.075  26.206 -0.0305 -0.0505  0.3089
29208W        W72125   6.703  19.866  24.646  0.0366 -0.1772 -0.1866
29209W        W72126   7.355  18.274  25.378 -0.2493 -0.2411  0.0698
29210W        W72127   3.116  19.712  26.395 -0.0244 -0.1225 -0.0307
29211W        W72128   3.320  18.813  26.397 -0.1261  0.1221 -0.0258
29212W        W72129   4.823  16.612  24.598 -0.2511 -0.0583  0.0634
29213W        W72130   3.630  19.767  25.026 -0.2465 -0.1392  0.1332
29214W        W72131   6.433  20.713  24.942 -0.1072  0.3127 -0.2685
29215W        W72132   9.567  20.870  27.315  0.5526 -0.3273 -0.0532
29216W        W72133   3.413  19.741  25.446 -0.1041 -0.1787 -0.0702
29217W        W72134   7.599  18.681  25.743 -0.2156  0.1217 -0.2058
29218W        W72135   6.002  20.816  26.059 -0.0264 -0.1583  0.3556
29219W        W72136   5.953  17.403  25.775 -0.2459  0.0453  0.0606
29220W        W72137   4.653  21.436  26.282  0.5326 -0.0717 -0.0263
29221W        W72138   5.175  20.796  25.567  0.0928 -0.1313  0.0135
29222W        W72139   5.137  23.461  26.176  0.3329  0.1220 -0.1290
29223W        W72140   5.373  17.528  26.636  0.0039  0.1116  0.2404
29224W        W72141   7.009  18.593  24.851  0.1216 -0.0544  0.0415
29225W        W72142   5.134  20.199  27.257  0.3306  0.2199 -0.0398
29226W        W72143   5.858  19.385  26.600 -0.1625  0.1074  0.2958
29227W        W72144   5.587  20.326  25.978  0.2334 -0.0566 -0.0905
29228W        W72145   6.686  20.518  25.353  0.2301  0.0198 -0.1391
29229W        W72146   6.301  20.671  26.402 -0.0168  0.0290 -0.0288
29230W        W72147   6.732  22.860  24.600 -0.0085 -0.1217 -0.2910
29231W        W72148   4.532  20.574  24.382 -0.1303  0.1406  0.1004
29232W        W72149   2.563  20.322  26.128 -0.0343  0.0790  0.0751
29233W        W72150   5.049  19.357  27.032  0.0631 -0.2056  0.1601
29234W        W72151   8.293  20.622  25.651 -0.1624 -0.2032 -0.1748
29235W        W72152   4.319  18.419  26.723 -0.1939 -0.3053  0.3137
29236W        W72153   4.817  19.139  24.340 -0.0082 -0.2579 -0.3486
29237W        W72154   4.352  21.171  26.530  0.0203  0.0395 -0.1245
29238W        W72155   3.709  20.680  27.033 -0.0743 -0.4073 -0.0287
29239W        W72156   6.212  22.652  24.901 -0.1905 -0.0675 -0.1524
29240W        W72157   6.688  21.591  24.326 -0.0624 -0.1821 -0.0828
29241W        W72158   5.102  18.114  24.358  0.2925  0.2371 -0.1454
29242W        W72159   5.930  23.359  26.955 -0.0701  0.1891  0.0549
29243W        W72160   3.220  18.590  24.109 -0.2015  0.1289 -0.0311
29244W        W72161   4.733  20.559  25.892  0.0229  0.1392  0.1116
29245W        W72162   4.563  21.447  24.096  0.1107 -0.0925 -0.1492
29246W        W72163   8.233  21.073  26.221 -0.2415 -0.1856 -0.0759
29247W        W72164   3.685  21.080  27.323 -0.0559  0.1063 -0.2734
29248W        W72165   7.548  22.077  26.858  0.6072 -0.1587 -0.2860
29249W        W72166   5.955  19.844  24.157  0.2384  0.0787  0.2235
29250W        W72167   7.982  19.893  25.394  0.1325 -0.0410 -0.2053
29251W        W72168   6.548  18.147  26.371 -0.0786 -0.5720 -0.0561
29252W        W72169   6.745  20.390  26.634 -0.1920 -0.0390  0.2446
29253W        W72170   5.764  20.247  24.425 -0.0828  0.1155  0.3413
29254W        W72171   4.626  17.652  23.535 -0.3080  0.2189 -0.0347
29255W        W72172   4.182  19.075  28.590 -0.0400  0.0108  0.2455
29256W        W72173   8.617  19.303  25.769  0.0333 -0.0827 -0.0589
29257W        W72174   3.136  21.019  26.508  0.1504  0.1950 -0.0735
29258W        W72175   7.154  22.046  23.908  0.0327  0.2317  0.2060
29259W        W72176   4.678  19.712  24.189 -0.0607 -0.1980 -0.0742
29260W        W72177   6.347  18.492  26.694 -0.2753 -0.1692 -0.0262
29261W        W72178   7.629  17.325  27.211  0.1974  0.3125 -0.0586
29262W        W72179   5.251  19.837  24.844 -0.3920 -0.0032  0.1475
29263W        W72180   4.829  20.146  24.420  0.0268 -0.1500  0.0132
29264W        W72181   5.886  21.768  25.770 -0.2583  0.2402 -0.1305
29265W        W72182   4.718  19.611  26.748 -0.1218  0.2758 -0.0044
29266W        W72183   3.142  22.288  26.032 -0.0848 -0.0066 -0.0448
29267W        W72184   2.371  17.831  26.516 -0.1973 -0.1717 -0.1032
29268W        W72185   8.324  20.079  25.016  0.1785  0.3919 -0.0490
29269W        W72186   5.184  18.215  26.856 -0.0361 -0.1969  0.0362
29270W        W72187   6.050  18.611  26.311  0.3474 -0.0173  0.3401
29271W        W72188   2.627  18.332  27.280  0.1988 -0.1559  0.2225
29272W        W72189   7.668  19.725  26.514 -0.0262  0.0888 -0.1234
29273W        W72190   5.920  19.222  24.952 -0.1755  0.1207 -0.1495
29274W        W72191   5.844  18.495  25.568  0.3667 -0.2578  0.0671
29275W        W72192   6.425  19.596  24.281  0.0878  0.0925  0.0246
29276W        W72193  10.087  19.933  26.598  0.2858 -0.1015 -0.0651
29277W        W72194   7.394  19.069  22.046 -0.1409  0.0254 -0.0392
29278W        W72195   4.686  20.319  26.379  0.0215  0.1684 -0.3809
29279W        W72196   1.845  16.816  26.448 -0.3375  0.1921 -0.2359
29280W        W72197   6.043  18.882  24.158 -0.1320 -0.0679  0.2345
29281W        W72198   2.726  17.903  26.973 -0.2588 -0.2108 -0.2871
29282W        W72199   6.279  21.828  24.108  0.3116  0.2176 -0.1620
29283W        W72200   6.770  20.470  29.002  0.1162 -0.1256  0.0932
29284W        W72201   5.078  18.617  24.428 -0.4177 -0.0736 -0.1374
29285W        W72202   7.492  20.361  23.175  0.3579 -0.0314 -0.2734
29286W        W72203   5.558  18.532  24.360  0.1975 -0.0737 -0.2454
29287W        W72204   5.135  20.412  23.800 -0.0399 -0.1841 -0.1758
29288W        W72205   6.238  22.335  24.083 -0.0419 -0.1568 -0.0850
29289W        W72206   8.355  21.035  27.699 -0.1998  0.2512  0.2273
29290W        W72207   4.365  20.004  26.936 -0.0046 -0.3915  0.1141
29291W        W72208   6.907  20.561  25.812  0.0937 -0.0920  0.1889
29292W        W72209   6.025  19.881  25.634 -0.0369  0.3481 -0.2080
29293W        W72210   3.433  17.075  24.513 -0.3605 -0.0405 -0.0778
29294W        W72211   4.417  19.117  27.377 -0.1295 -0.0498  0.1427
29295W        W72212   3.389  21.088  26.046 -0.0379 -0.2780  0.0339
29296W        W72213   8.622  20.916  25.902  0.1096  0.3371 -0.0784
29297W        W72214   7.868  20.287  25.730 -0.0136  0.1333  0.0711
29298W        W72215   3.663  21.312  25.289  0.1737  0.0473 -0.1755
29299W        W72216   6.329  16.288  27.492  0.0745  0.0254 -0.1791
29300W        W72217   2.671  19.907  25.819 -0.2925  0.3207  0.0946
29301W        W72218   6.945  20.109  25.484 -0.2102  0.3089  0.2132
29302W        W72219   5.350  19.296  24.809  0.1440 -0.1259  0.1158
29303W        W72220   5.171  20.427  28.181 -0.1575  0.1875  0.1945
29304W        W72221   5.461  22.860  26.909  0.3009  0.0192 -0.0301
29305W        W72222   5.916  22.251  25.670 -0.0339 -0.0353 -0.0450
29306W        W72223   5.916  21.287  25.814  0.1589  0.2385 -0.1463
29307W        W72224   6.024  20.717  24.143 -0.1452  0.0202  0.1534
29308W        W72225   7.228  21.114  24.612 -0.1003  0.1629  0.2456
29309W        W72226   7.227  17.877  25.775 -0.0316  0.0857  0.2342
29310W        W72227   7.414  17.218  23.394  0.3285  0.0107  0.0049
29311W        W72228  10.089  16.843  26.587  0.0300 -0.2512  0.2201
29312W        W72229   5.434  19.700  26.534 -0.3100  0.0056 -0.1965
29313W        W72230   1.749  19.312  24.869 -0.2417  0.0581 -0.2860
29314W        W72231   4.830  20.113  25.043  0.3133  0.1279 -0.0311
29315W        W72232   3.730  18.278  25.541  0.1507 -0.0134 -0.1574
29316W        W72233   6.906  19.237  25.453  0.2035  0.1778 -0.0127
29317W        W72234   3.499  15.746  27.111  0.1627  0.3382 -0.1658
29318W        W72235   4.967  19.522  24.595 -0.1489 -0.0497  0.2368
29319W        W72236   3.551  22.083  25.537 -0.2039 -0.0267 -0.1022
29320W        W72237   6.268  21.478  25.535 -0.0633  0.0755  0.4060
29321W        W72238   6.164  18.110  25.312  0.2197 -0.1488  0.1033
29322W        W72239   3.640  18.908  23.939  0.3025 -0.1761  0.3448
29323W        W72240   5.289  19.953  26.025  0.1865  0.1888  0.1293
29324W        W72241   6.093  20.983  24.597  0.0503 -0.3739  0.0066
29325W        W72242   2.907  19.474  25.944  0.1165  0.0111 -0.0715
29326W        W72243   6.967  23.188  26.803 -0.0481  0.2020 -0.0306
29327W        W72244   3.088  21.735  24.877 -0.0104  0.1754 -0.1073
29328W        W72245   5.418  19.981  26.922 -0.0819  0.0944 -0.0054
29329W        W72246   4.574  19.240  26.426  0.1376  0.0472  0.0593
29330W        W72247   3.218  18.153  22.019  0.0076  0.3031  0.0012
29331W        W72248   6.861  18.013  26.817  0.4067  0.2209  0.1296
29332W        W72249   6.105  21.369  26.627  0.1112  0.1810  0.0128
29333W        W72250   5.982  22.517  26.253  0.4154  0.0371 -0.1191
29334W        W72251   6.596  21.069  25.377  0.1012 -0.0560 -0.1589
29335W        W72252   6.524  20.796  27.413  0.0907  0.1525 -0.0089
29336W        W72253   4.226  18.782  26.366  0.0292 -0.2943  0.0624
29337W        W72254   5.748  18.959  24.586 -0.1160  0.0574 -0.2910
29338W        W72255   6.835  22.413  26.061 -0.2600 -0.0573 -0.0613
29339W        W72256   8.750  20.498  23.987  0.1148 -0.2188  0.1981
29340W        W72257   8.437  18.879  25.506  0.0990 -0.2159 -0.2596
29341W        W72258   5.297  18.296  24.758  0.0129  0.0859  0.0771
29342W        W72259   5.282  19.044  28.682 -0.0440  0.2753 -0.0978
29343W        W72260   4.890  21.019  26.104  0.0953  0.0248  0.0831
29344W        W72261   6.921  20.015  25.998 -0.1654 -0.0042  0.2898
29345W        W72262   4.454  18.268  25.107  0.2903  0.1997 -0.0734
29346W        W72263   5.759  18.550  24.966 -0.1316  0.0478  0.0478
29347W        W72264   6.346  19.332  25.331  0.3009  0.0719  0.1204
29348W        W72265   4.583  20.935  25.496 -0.0975  0.0787  0.4853
29349W        W72266   5.134  18.777  23.957  0.2253  0.4365 -0.2623
29350W        W72267   7.710  20.263  26.242 -0.2797 -0.0143  0.0263
29351W        W72268   4.822  18.950  24.828  0.0271  0.0841  0.1053
29352W        W72269   6.851  19.465  26.647 -0.4574  0.1001 -0.2139
29353W        W72270   6.633  18.958  25.088  0.2472 -0.0897 -0.0169
29354W        W72271   6.154  19.977  24.707 -0.0242  0.3403  0.2702
29355W        W72272   5.358  21.246  25.858  0.0488 -0.0120 -0.0247
29356W        W72273   8.409  20.036  29.288 -0.2705  0.0666 -0.0187
29357W        W72274   7.054  21.301  26.936  0.3301  0.0599 -0.3944
29358W        W72275   6.090  20.488  24.649 -0.0552 -0.1776  0.0737
29359W        W72276   2.727  16.863  26.640  0.2584  0.2946 -0.1476
29360W        W72277   4.781  20.002  25.913 -0.2500  0.2127 -0.0974
29361W        W72278   4.855  20.115  26.898 -0.0886 -0.0321 -0.1918
29362W        W72279   5.787  20.628  25.075  0.2464  0.2090 -0.1090
29363W        W72280   5.115  19.224  26.500  0.0817 -0.3727 -0.2117
29364W        W72281   7.489  17.457  25.521  0.1450 -0.1534  0.0549
29365W        W72282   5.910  22.803  25.847  0.0403 -0.0443  0.2019
29366W        W72283   7.570  20.657  25.543  0.0780 -0.1913 -0.0769
29367W        W72284   5.699  22.142  31.343  0.1018 -0.2886 -0.1008
29368W        W72285   6.156  18.639  28.800  0.0510  0.0583 -0.1011
29369W        W72286   8.432  18.889  26.455 -0.3357 -0.1459  0.0604
29370W        W72287   7.614  20.077  27.904  0.7048  0.0379  0.0606
29371W        W72288   4.113  20.454  28.778  0.0475 -0.2550  0.2444
29372W        W72289   6.401  19.752  30.068  0.2236  0.3374 -0.0046
29373W        W72290   4.200  18.996  31.750 -0.3076 -0.0801  0.4474
29374W        W72291   6.889  20.451  29.728 -0.1743  0.1386  0.1632
29375W        W72292   9.018  22.286  29.904 -0.1391  0.1857  0.3489
29376W        W72293   5.664  19.551  27.026 -0.0938  0.1794 -0.2187
29377W        W72294   6.709  17.041  30.618  0.2673 -0.3586 -0.2262
29378W        W72295   4.345  21.213  29.823  0.1335 -0.0478 -0.0868
29379W        W72296   5.335  18.510  28.927 -0.2003  0.0791 -0.5500
29380W        W72297   4.166  18.170  31.060  0.1321 -0.5233 -0.0406
29381W        W72298   6.343  19.624  30.695  0.3252  0.2079  0.0316
29382W        W72299   2.930  20.677  28.987 -0.0233 -0.2501 -0.0804
29383W        W72300   6.392  19.162  31.222  0.0325 -0.1815 -0.0749
29384W        W72301   3.878  19.429  28.747 -0.3113 -0.2567 -0.1762
29385W        W72302   5.178  21.687  28.172 -0.2115 -0.0026  0.0830
29386W        W72303   4.646  18.711  31.845  0.3400 -0.0800  0.1243
29387W        W72304   4.164  17.665  30.976  0.2797  0.1168 -0.2608
29388W        W72305   6.391  20.555  29.585  0.0581  0.1609  0.3670
29389W        W72306   7.120  17.880  27.222 -0.1591 -0.0950  0.1281
29390W        W72307   3.955  20.067  29.126 -0.0155  0.0258  0.0682
29391W        W72308   5.012  19.998  30.155  0.0803 -0.1066  0.1016
29392W        W72309   6.501  19.141  28.988 -0.0090 -0.2958  0.1085
29393W        W72310   9.103  18.912  28.892  0.0417  0.1751  0.0314
29394W        W72311   6.308  20.725  28.233  0.0626 -0.0351  0.0446
29395W        W72312   6.020  20.572  28.632 -0.1277 -0.0934  0.1060
29396W        W72313   7.320  19.895  28.289  0.0869 -0.1194  0.3304
29397W        W72314   2.581  19.202  30.453  0.2883  0.1956 -0.2659
29398W        W72315   4.727  19.896  29.667 -0.1732 -0.0011 -0.2078
29399W        W72316   4.745  19.334  29.112 -0.0424  0.1082  0.5252
29400W        W72317   8.094  17.806  28.015  0.2390  0.3405  0.3438
29401W        W72318   9.133  21.300  28.737  0.0396 -0.0668 -0.3347
29402W        W72319   6.277  21.623  28.552 -0.0000  0.0288  0.3407
29403W        W72320   3.518  18.841  26.891 -0.1442  0.0905  0.1495
29404W        W72321   4.501  21.376  30.735  0.0946  0.0809  0.1191
29405W        W72322   4.734  21.430  31.824 -0.0940  0.3115 -0.1828
29406W        W72323   5.154  20.558  31.328  0.0861 -0.2239  0.2579
29407W        W72324   5.501  19.741  28.687  0.0284 -0.2136  0.0125
29408W        W72325   6.009  21.063  29.305  0.0244  0.0733 -0.3118
29409W        W72326   6.002  21.080  28.752  0.1364 -0.1278  0.0119
29410W        W72327   5.372  20.797  30.854 -0.0189  0.3978 -0.2029
29411W        W72328   4.671  20.369  29.931 -0.0290 -0.2508 -0.2257
29412W        W72329   4.716  18.851  31.365  0.1235  0.2601 -0.2283
29413W        W72330   4.054  20.352  27.716 -0.0169 -0.0943  0.1568
29414W        W72331   7.447  18.340  27.475 -0.2403 -0.2614 -0.2232
29415W        W72332   5.608  18.724  27.362 -0.3059  0.2497 -0.1617
29416W        W72333   7.099  20.364  28.642  0.1300  0.0469 -0.2568
29417W        W72334   6.661  18.134  29.573  0.2320 -0.1820  0.2035
29418W        W72335   4.288  21.645  27.225  0.2033 -0.0044  0.0144
29419W        W72336   5.541  19.382  29.914  0.0149  0.1497 -0.0612
29420W        W72337   6.884  21.870  30.501 -0.0483  0.2513 -0.0749
29421W        W72338   4.276  18.988  30.584 -0.1817  0.0945  0.1297
29422W        W72339   7.009  17.804  29.419 -0.2300  0.3368  0.0535
29423W        W72340   5.452  21.112  28.733 -0.3208 -0.4261 -0.2831
29424W        W72341   4.538  18.017  30.129 -0.2447 -0.0623 -0.1394
29425W        W72342   6.782  20.862  26.804 -0.1032 -0.1352  0.0741
29426W        W72343   6.570  20.081  29.498  0.0174 -0.5663 -0.0931
29427W        W72344   6.861  21.849  28.755  0.0566  0.2727  0.0836
29428W        W72345   4.178  17.781  28.711 -0.2329  0.2225 -0.1942
29429W        W72346   3.310  20.681  31.164  0.0167 -0.0357 -0.2746
29430W        W72347   3.437  19.093  30.290  0.0391 -0.0445 -0.1161
29431W        W72348   6.949  18.871  27.422  0.2129 -0.0864 -0.1417
29432W        W72349   8.332  20.434  30.560 -0.3928  0.1489  0.0306
29433W        W72350   4.739  20.064  31.032 -0.2277 -0.0073 -0.0688
29434W        W72351   5.125  19.119  29.738  0.0920 -0.0687 -0.1720
29435W        W72352   4.842  21.130  28.851 -0.2782  0.0473  0.0826
29436W        W72353   8.727  20.120  29.696 -0.1562  0.1329 -0.0170
29437W        W72354   6.735  17.173  27.871  0.1728  0.7439 -0.0483
29438W        W72355   8.066  16.166  29.390  0.3581 -0.0513  0.0364
29439W        W72356   4.294  20.002  30.646  0.0126  0.2216  0.1331
29440W        W72357   5.148  18.203  27.950 -0.0608  0.0509 -0.1231
29441W        W72358   6.310  19.298  29.854 -0.2429 -0.0433  0.0356
29442W        W72359   7.170  20.769  29.213  0.3284  0.0459  0.0941
29443W        W72360   6.223  20.121  27.685  0.1169  0.0299 -0.4471
29444W        W72361   4.474  20.738  29.599 -0.2814 -0.1488  0.2862
29445W        W72362   6.485  17.800   1.035  0.2183 -0.3043 -0.1434
29446W        W72363   6.373  21.543  29.640  0.1602  0.1579  0.4799
29447W        W72364   4.414  21.379  28.608 -0.0031 -0.2297  0.4502
29448W        W72365   4.377  18.735  28.947 -0.1663  0.0665  0.1959
29449W        W72366   4.151  20.899  27.784 -0.3079 -0.0887 -0.2594
29450W        W72367   4.567  17.865  31.222  0.1482 -0.1487  0.1972
29451W        W72368   4.215  21.024  28.883 -0.0841 -0.0268  0.1003
29452W        W72369   7.312  19.152  27.941  0.0425  0.2263 -0.1799
29453W        W72370   3.031  19.282  31.224 -0.2232  0.0777 -0.3095
29454W        W72371   6.909  16.865  29.821 -0.1116  0.3976 -0.0124
29455W        W72372   4.215  20.270  28.251 -0.0165 -0.0724  0.0835
29456W        W72373   6.083  20.296  28.191 -0.0494 -0.1573  0.1888
29457W        W72374   6.528  17.944  28.201  0.2519  0.0045  0.0155
29458W        W72375   7.526  20.090  29.560 -0.0180 -0.0744  0.0328
29459W        W72376   4.202  19.729  29.685 -0.2336  0.1880 -0.2142
29460W        W72377   4.253  19.411  30.087 -0.1260  0.0609  0.0519
29461W        W72378   5.957  20.817  30.704  0.0309  0.0780 -0.1619
29462W        W72379   4.134  19.185  29.625 -0.2315 -0.3301  0.3613
29463W        W72380   7.397  18.942  30.021  0.2025  0.0168  0.0749
29464W        W72381   4.177  17.911  27.900 -0.2328 -0.6442  0.2045
29465W        W72382   7.152  19.347  28.762  0.2943  0.0739  0.0639
29466W        W72383   3.719  18.627  27.817 -0.0119 -0.0000 -0.1603
29467W        W72384   4.174  20.809  27.211 -0.3531  0.0535  0.2852
29468W        W72385   8.664  19.137  31.813 -0.3535  0.0960 -0.0444
29469W        W72386   6.737  21.682  27.156  0.3525 -0.1859 -0.4851
29470W        W72387   6.803  21.284  31.131  0.0278  0.0398 -0.0692
29471W        W72388   5.877  21.622  27.495  0.1701 -0.2303 -0.0639
29472W        W72389   5.500  20.137  30.405  0.3659  0.1141  0.0751
29473W        W72390   4.204  18.948  26.826 -0.1653 -0.1563 -0.1342
29474W        W72391   3.923  21.635  29.599 -0.0584  0.0007 -0.4443
29475W        W72392   4.754  21.600  28.961 -0.3033  0.3960 -0.1166
29476W        W72393   5.805  19.683  27.529 -0.0848 -0.1536 -0.1155
29477W        W72394  10.071  20.335  28.562  0.1488 -0.3520  0.2403
29478W        W72395   6.365  19.268  26.340 -0.2733 -0.0697  0.1630
29479W        W72396   4.096  19.821   0.747 -0.0625  0.3301  0.0287
29480W        W72397   5.986  18.195   0.228 -0.0942  0.2228 -0.0506
29481W        W72398   8.588  19.911  28.800  0.0290 -0.0866  0.1341
29482W        W72399   7.016  19.956  29.621 -0.0819 -0.0380 -0.4118
29483W        W72400   3.392  19.299  28.910 -0.1590  0.0689  0.1834
29484W        W72401   8.244  22.664  28.481 -0.2065 -0.1220 -0.0427
29485W        W72402   4.030  22.454  30.020 -0.0051  0.1236  0.3932
29486W        W72403   3.873  19.553  29.243  0.2956 -0.0350 -0.3248
29487W        W72404   5.115  21.470  30.376  0.2623  0.1602 -0.1814
29488W        W72405   7.771  18.844  28.858 -0.0030 -0.0573 -0.2148
29489W        W72406   3.111  19.125  30.684  0.0120  0.2397 -0.0521
29490W        W72407   6.901  19.167   1.275  0.2360  0.0911  0.0216
29491W        W72408   5.813  19.020  28.994  0.4208  0.2422  0.0206
29492W        W72409   4.074  21.616  30.101 -0.0000  0.0543 -0.2539
29493W        W72410   7.897  19.261  28.523 -0.1405 -0.1802  0.0155
29494W        W72411   5.518  18.259  27.488 -0.0719 -0.1313 -0.0049
29495W        W72412   5.575  20.732  28.402  0.1352  0.0121  0.0591
29496W        W72413   7.817  18.173  30.216 -0.1160 -0.0469  0.1690
29497W        W72414   5.440  19.470  27.774 -0.2126  0.1410 -0.0643
29498W        W72415   5.064  18.544  27.469  0.3340  0.1336  0.2776
29499W        W72416   4.968  20.974  31.630  0.0173  0.1881  0.0808
29500W        W72417   5.964  19.739  28.453 -0.5537  0.0023 -0.0373
29501W        W72418   5.779  21.375  29.694  0.2148  0.0577  0.1568
29502W        W72419   5.755  19.024  27.704  0.1417  0.0052  0.1728
29503W        W72420   8.887  20.940  28.429  0.0377  0.1589  0.2608
29504W        W72421   3.542  19.856  29.040  0.1778 -0.5146  0.0077
29505W        W72422   6.824  21.304  31.745 -0.0534 -0.1689 -0.1304
29506W        W72423   7.422  21.554  29.710 -0.0469 -0.1586 -0.0311
29507W        W72424   4.680  18.291  29.662 -0.1034  0.0865  0.0880
29508W        W72425   4.322  18.496  28.554 -0.0807 -0.1598  0.2612
29509W        W72426   4.257  19.304  29.073 -0.1808  0.0993  0.0325
29510W        W72427   6.179  21.707  27.951 -0.0926  0.1046  0.2261
29511W        W72428   9.611  19.255  31.891  0.1542 -0.1851 -0.1252
29512W        W72429   8.828  17.342  28.269 -0.1533 -0.0421 -0.2091
29513W        W72430   5.921  19.382  29.572  0.1904  0.1070  0.1657
29514W        W72431   5.540  18.814  31.153  0.0699  0.0875  0.1047
29515W        W72432   8.228  18.990  31.519  0.1774 -0.1744  0.1092
29516W        W72433   6.800  19.546  29.759  0.0896 -0.1730  0.0800
29517W        W72434   4.188  19.555  26.659 -0.0322  0.2309  0.2090
29518W        W72435   6.001  18.289  30.973 -0.3559  0.3656  0.2448
29519W        W72436   6.170  20.776  31.233 -0.4395 -0.1711 -0.0896
29520W        W72437   4.038  22.302  29.521  0.1738 -0.1733 -0.1382
29521W        W72438   7.284  20.281  29.986  0.1289 -0.0142  0.1083
29522W        W72439   7.086  20.292  27.621 -0.1369 -0.2144 -0.0150
29523W        W72440   4.349  18.500  29.413 -0.1842 -0.3348  0.1795
29524W        W72441   6.180  19.133  28.570 -0.0249  0.0503 -0.1071
29525W        W72442   3.554  21.516  29.997  0.1047 -0.1768 -0.1372
29526W        W72443   5.919  19.835  27.993  0.0377 -0.0816  0.0649
29527W        W72444   3.665  17.718  29.325 -0.2085 -0.0334 -0.2868
29528W        W72445   6.267  20.445  29.054  0.1584  0.2797 -0.0813
29529W        W72446   5.413  20.138  27.881  0.0752 -0.0328 -0.0561
29530W        W72447   7.162  20.276  29.248 -0.2464  0.0473  0.1617
29531W        W72448   3.872  21.757  28.667  0.3648 -0.0330 -0.0661
29532W        W72449   7.015  19.387  28.271  0.0597  0.0606  0.1732
29533W        W72450   5.140  21.513  28.603  0.1769 -0.1149 -0.0272
29534W        W72451   5.448  17.334  27.590  0.1532  0.1758  0.1264
29535W        W72452   3.911  21.280  28.510 -0.3041 -0.1936 -0.1313
29536W        W72453   5.548  19.118  29.388 -0.0028  0.0810 -0.2056
29537W        W72454   7.401  18.317  26.064 -0.0989 -0.0599  0.0990
29538W        W72455   3.697  19.840  30.860  0.0948 -0.0957 -0.1745
29539W        W72456   6.161  18.347  28.105 -0.3766 -0.1869  0.2157
29540W        W72457   5.137  20.708  29.007  0.2016  0.2300  0.1926
29541W        W72458   6.837  20.377  30.342 -0.2315 -0.1465 -0.0073
29542W        W72459   6.735  19.137  25.893  0.1563 -0.0002 -0.1121
29543W        W72460   7.553  20.361  28.351  0.0441 -0.2014 -0.1867
29544W        W72461   5.262  20.316   0.070  0.1491 -0.0048  0.3428
29545W        W72462   5.550  19.745  29.362 -0.0795 -0.0883 -0.1382
29546W        W72463   6.809  19.576  27.205  0.0053 -0.4393  0.2526
29547W        W72464   5.160  19.303  30.563 -0.0175  0.3174  0.2406
29548W        W72465   5.119  20.597  30.444  0.3688  0.2600 -0.1908
29549W        W72466   5.408  20.552  29.430  0.0294 -0.1619  0.0185
29550W        W72467   5.487  19.635  30.383 -0.1091 -0.1484  0.0185
29551W        W72468   5.857  22.208  27.856 -0.0774 -0.1566  0.1641
29552W        W72469   5.155  19.585  29.592 -0.1940 -0.2777 -0.1722
29553W        W72470   9.046  18.526  31.115 -0.0135 -0.0658 -0.2230
29554W        W72471   6.973  18.869  29.087  0.0654 -0.0453  0.0572
29555W        W72472   4.037  16.967  31.079  0.1273  0.0604  0.1234
29556W        W72473   6.063  20.603  30.088 -0.2248 -0.2326  0.1499
29557W        W72474   7.179  21.068  31.390  0.1452  0.1056  0.2010
29558W        W72475   6.661  18.235  30.365 -0.2047 -0.1617 -0.1524
29559W        W72476   6.221  22.524  28.000 -0.0047 -0.0095  0.0773
29560W        W72477   5.082  18.214  28.487 -0.0146  0.0455  0.1513
29561W        W72478   9.404  20.990  29.173 -0.3064 -0.3228 -0.0869
29562W        W72479   6.362  20.450   0.189 -0.1530  0.1575  0.3231
29563W        W72480   6.200  18.975  29.393  0.0714 -0.5544 -0.1578
29564W        W72481   4.396  19.744  29.169  0.0772  0.1147  0.1145
29565W        W72482   5.023  18.656  29.862 -0.2528  0.3117 -0.0327
29566W        W72483   4.148  18.440  30.497  0.2653 -0.0314 -0.1360
29567W        W72484   4.513  19.855  30.170  0.0127  0.1480 -0.0006
29568W        W72485   6.549  21.164  28.517 -0.3053 -0.1871 -0.0959
29569W        W72486   3.117  22.271  30.680  0.1468 -0.1335  0.2602
29570W        W72487   7.158  17.469  29.096 -0.1591  0.1753 -0.1598
29571W        W72488   6.874  19.971  28.060 -0.0919  0.1149 -0.0427
29572W        W72489   5.921  19.488  28.996  0.2000 -0.2745  0.0182
29573W        W72490   9.026  20.073  31.271  0.0536 -0.1315 -0.2350
29574W        W72491   6.313  19.584  27.346  0.1998  0.0485  0.0495
29575W        W72492   6.691  15.140  31.072  0.0120  0.0663  0.1048
29576W        W72493   4.849  18.510  29.256  0.1010  0.1407  0.1239
29577W        W72494   8.092  20.687  27.930 -0.1220 -0.0281  0.0191
29578W        W72495   3.789  18.685  31.794 -0.3131  0.0947  0.0733
29579W        W72496   5.252  19.814  31.856  0.0404 -0.1438  0.1420
29580W        W72497   6.250  19.933  29.160  0.0184 -0.0824  0.4447
29581W        W72498   6.377  19.885  28.286  0.0477 -0.0723  0.0850
29582W        W72499   3.865  19.205  26.994  0.0709 -0.0257 -0.1863
29583W        W72500   5.347  20.155  29.120 -0.1159 -0.2868 -0.0746
29584W        W72501   9.314  22.005  30.861 -0.0398 -0.0392  0.3084
29585W        W72502   6.871  19.935  30.138  0.0659 -0.1134 -0.1360
29586W        W72503   5.989  18.898   0.656  0.3799  0.1391 -0.2448
29587W        W72504   5.930  20.139  28.815  0.0312  0.3330 -0.4796
29588W        W72505   7.696  18.587  28.408 -0.1030 -0.3817 -0.0052
29589W        W72506   6.414  21.208  26.189 -0.0809 -0.0434  0.0355
29590W        W72507   5.287  21.306  29.826 -0.0031  0.1064  0.3980
29591W        W72508   4.499  20.165  31.470 -0.2239 -0.1663 -0.0398
29592W        W72509   6.837  19.744  30.580  0.2425  0.1809 -0.0713
29593W        W72510   4.911  18.673  28.689  0.1651 -0.0825 -0.0399
29594W        W72511   6.845  17.493  30.417  0.1420  0.0148  0.0316
29595W        W72512   6.323  20.020  31.025  0.1292 -0.1996  0.1314
29596W        W72513   5.969  19.468  30.111  0.2762  0.1715  0.1606
29597W        W72514   3.831  20.233  30.513  0.0376  0.1530 -0.2060
29598W        W72515   7.681  22.331  30.764 -0.1266  0.0897  0.0208
29599W        W72516   7.862  21.092  27.860  0.3590  0.2529 -0.0264
29600W        W72517   7.511  19.848  31.112 -0.1065 -0.1032  0.0857
29601W        W72518   6.479  18.474  29.150  0.1780 -0.1116 -0.3483
29602W        W72519   5.678  20.549  27.940 -0.1230 -0.1570  0.0663
29603W        W72520   3.765  19.446  29.816 -0.1152  0.1158 -0.0612
29604W        W72521   7.064  20.825  29.964 -0.0963 -0.0904  0.1253
29605W        W72522   5.751  18.695  26.778 -0.0441  0.0366  0.1631
29606W        W72523   5.214  18.504   1.247 -0.3214  0.0515  0.2471
29607W        W72524   6.380  19.857  26.224  0.1624  0.1411  0.0418
29608W        W72525   6.893  21.649  29.671 -0.1802 -0.0236  0.0359
29609W        W72526   5.308  18.651  28.325 -0.1708 -0.1425  0.1055
29610W        W72527   2.864  18.487  30.399 -0.0382  0.1994  0.2071
29611W        W72528   3.196  22.808  30.464  0.2698 -0.0358 -0.2657
29612W        W72529   4.018  17.602  27.298 -0.1556  0.1553  0.1199
29613W        W72530   5.019  19.842  28.813  0.0481 -0.0261 -0.2091
29614W        W72531   7.262  21.629  29.239  0.1605  0.2032 -0.0266
29615W        W72532   7.964  19.939  31.400 -0.0584 -0.1450  0.2573
29616W        W72533   6.652  17.843  30.100 -0.0094 -0.0399 -0.0306
29617W        W72534   7.128  18.105  30.233 -0.1803 -0.0057 -0.0092
29618W        W72535   4.538  19.271  28.225  0.1782 -0.0750 -0.3430
29619W        W72536   5.761  18.208  28.624 -0.0467  0.3552 -0.2249
29620W        W72537   5.680  22.085  29.828 -0.2251  0.1244 -0.1863
29621W        W72538   3.641  20.914  29.214  0.0971  0.0662  0.0284
29622W        W72539   4.373  21.970  26.262  0.0457  0.1206 -0.1684
29623W        W72540   7.051  18.031  28.100  0.0948  0.1038  0.0970
29624W        W72541   7.165  19.556  31.343  0.0219 -0.0091 -0.0959
29625W        W72542   6.535  20.790  30.007 -0.3675  0.1591 -0.1171
29626W        W72543   7.366  18.650  30.970 -0.1726 -0.0867  0.1510
29627W        W72544   6.566  19.320  30.285 -0.1617  0.1383  0.1873
29628W        W72545   5.707  18.552  30.288  0.2557 -0.0135  0.0449
29629W        W72546   6.446  20.069  30.515  0.1778 -0.4219 -0.1316
29630W        W72547   8.898  20.423  28.704 -0.1750 -0.0342  0.0716
29631W        W72548   5.537  19.657  28.192  0.0970 -0.2770 -0.0657
29632W        W72549   4.559  19.290  31.498  0.1453  0.4681  0.0492
29633W        W72550   5.551  18.374  31.851 -0.1528  0.0686  0.2160
29634W        W72551   7.014  20.909  28.665  0.3156  0.0814  0.1713
29635W        W72552   6.943  18.336  27.429 -0.1499  0.0101 -0.1982
29636W        W72553   4.542  19.780  26.336 -0.3798 -0.1682  0.2894
29637W        W72554   5.814  21.106  30.211  0.4503 -0.0211  0.1878
29638W        W72555   2.946  20.577  30.766 -0.0397  0.1910 -0.3917
29639W        W72556   7.345  21.208  28.942 -0.0372 -0.0971  0.2655
29640W        W72557   7.293  19.319  27.400 -0.0588 -0.0935 -0.0700
29641W        W72558   4.639  20.719  27.581 -0.2688  0.2165 -0.0278
29642W        W72559   7.527  21.865  30.649  0.0437 -0.1674 -0.2257
29643W        W72560   5.765  17.186  26.641 -0.1384  0.0569  0.2007
29644W        W72561   5.475  21.046  29.370 -0.0767 -0.2447  0.0162
29645W        W72562   5.844  21.937  28.914  0.2250  0.0994  0.2845
29646W        W72563   4.585  20.253  27.380 -0.1221  0.0852  0.0682
29647W        W72564   6.556  20.908  29.122  0.1949 -0.0235 -0.4424
29648W        W72565   7.267  20.030  30.424 -0.1517 -0.0211  0.0483
29649W        W72566   8.564  16.895  25.761 -0.3367 -0.0198 -0.2003
29650W        W72567   6.623  20.493  27.792 -0.1209  0.4528 -0.0709
29651W        W72568   7.199  19.281  25.845  0.3381  0.1695  0.1230
29652W        W72569   7.097  19.467  30.167 -0.0494 -0.3098  0.2309
29653W        W72570   5.282  20.325  28.632  0.0178 -0.0938  0.3279
29654W        W72571   5.501  19.224  27.354 -0.0535 -0.1033 -0.1121
29655W        W72572   8.146  17.530  31.185  0.0960  0.2495 -0.2235
29656W        W72573   8.170  18.480  30.269  0.3168  0.1081 -0.0561
29657W        W72574   3.948  22.055  30.349 -0.1616  0.5897 -0.2449
29658W        W72575   7.822  21.050  28.903 -0.1462 -0.0485  0.0694
29659W        W72576   2.294  19.550  29.667 -0.0893  0.1203  0.2468
29660W        W72577   3.911  19.890  30.114 -0.0013 -0.3306 -0.0225
29661W        W72578   7.679  16.257  30.757  0.3958  0.0898 -0.1742
29662W        W72579   4.692  19.755  27.214 -0.2528 -0.0146 -0.1139
29663W        W72580   4.328  17.993  29.443 -0.2755  0.0287  0.3253
29664W        W72581   5.728  21.407  29.072 -0.0350  0.0806  0.0100
29665W        W72582   5.049  20.788  28.486  0.5031  0.1336 -0.0567
29666W        W72583   3.201  21.455  30.388  0.4914 -0.0861 -0.1971
29667W        W72584   5.885  18.530  29.253  0.1713  0.0644 -0.2171
29668W        W72585   7.541  20.253  28.929  0.1446 -0.2488  0.1018
29669W        W72586   4.487  19.618  31.004 -0.0821 -0.1628  0.0208
29670W        W72587   7.450  18.285  30.666 -0.2979 -0.0651 -0.0349
29671W        W72588   5.289  20.069  29.714 -0.1756 -0.0670  0.1615
29672W        W72589   6.868  18.925  28.150  0.0610  0.4210 -0.0533
29673W        W72590   7.894  19.927  29.191 -0.3144 -0.2069 -0.0900
29674W        W72591   4.684  19.400  29.627 -0.0139 -0.0622  0.3102
29675W        W72592   4.547  19.587  28.733  0.0699  0.3213 -0.1628
29676W        W72593   7.289  20.980  30.887  0.1851  0.0041  0.1041
29677W        W72594   5.476  19.131  26.850  0.0617  0.0203  0.3348
29678W        W72595   7.622  20.174   0.358  0.0465 -0.2927  0.1479
29679W        W72596   3.869  17.081  31.539  0.1303 -0.0664 -0.1693
29680W        W72597   5.795  18.796  28.359 -0.1977 -0.1379 -0.2233
29681W        W72598   4.228  18.909  28.121 -0.0272 -0.0692 -0.1190
29682W        W72599   6.512  18.582  30.812  0.2348 -0.1090  0.1469
29683W        W72600   7.939  19.868   0.592  0.1155  0.1081 -0.0361
29684W        W72601   2.393  20.636  29.089  0.2678  0.0276 -0.1117
29685W        W72602   8.631  17.718  26.059  0.1493 -0.1064 -0.0501
29686W        W72603  11.956  19.743  28.184 -0.1062  0.1989 -0.0508
29687W        W72604   6.285  20.132  26.641  0.1298 -0.2216  0.0886
29688W        W72605   9.458  19.647  30.006  0.3487 -0.0177  0.1939
29689W        W72606   8.366  20.668  28.366  0.0452 -0.2725 -0.0439
29690W        W72607   6.245  17.956  29.842  0.1502  0.2475  0.1094
29691W        W72608   8.568  19.238  30.671  0.1207  0.0575  0.1225
29692W        W72609   9.261  21.112  30.385  0.0626 -0.0935  0.3181
29693W        W72610   6.697  18.939  28.612 -0.0953  0.2849  0.1189
29694W        W72611   3.246  18.463  30.091 -0.0356  0.0807  0.1040
29695W        W72612   4.265  20.778  30.067 -0.0602 -0.1842 -0.1410
29696W        W72613   8.118  19.567  30.758  0.1327  0.0640 -0.1613
29697W        W72614   7.343  20.325  30.866 -0.1432  0.1345  0.1974
29698W        W72615   7.503  21.475  26.662  0.0721  0.0838 -0.1220
29699W        W72616   7.271  17.122  31.421 -0.0382  0.0675 -0.2577
29700W        W72617   5.659  20.759  29.014 -0.0998 -0.2991  0.1300
29701W        W72618   7.361  19.255   0.988  0.0071  0.1818  0.2228
29702W        W72619   4.546  19.849  28.179  0.3946  0.5241  0.0810
29703W        W72620   6.822  21.015  30.348  0.1329  0.3249  0.0917
29704W        W72621   6.854  19.771  28.537  0.3561  0.0768 -0.2251
29705W        W72622   4.644  21.345  27.671  0.0035  0.1899 -0.0852
29706W        W72623   7.410  22.154  27.980  0.1999  0.2686 -0.0002
29707W        W72624   6.410  19.573  28.746  0.1382  0.0347  0.0291
29708W        W72625   7.378  19.597  29.263  0.1835 -0.0309 -0.0100
29709W        W72626   6.415  18.788  29.885 -0.0128  0.0023  0.4068
29710W        W72627   7.483  19.449  28.357 -0.0873 -0.1575 -0.0696
29711W        W72628   6.180  18.475  30.171 -0.2334  0.0117 -0.0907
29712W        W72629   7.437  21.040  30.376 -0.1550 -0.0200 -0.1512
29713W        W72630   2.993  18.745  27.224  0.1319  0.0667  0.2351
29714W        W72631   4.992  19.553  27.955 -0.1902 -0.2837  0.0149
29715W        W72632   3.702  18.902  28.754  0.0638  0.1191 -0.0931
29716W        W72633   5.849  17.445  28.521 -0.3148 -0.0905 -0.1397
29717W        W72634   5.584  19.361  31.823  0.2297 -0.2342  0.0189
29718W        W72635   4.448  19.832  27.657 -0.1379 -0.0894  0.5229
29719W        W72636   3.734  17.947  28.895  0.2773 -0.3223  0.0874
29720W        W72637   7.132  21.365  28.388  0.0582 -0.2354 -0.0077
29721W        W72638   4.141  17.656  29.164 -0.3252  0.0673  0.0615
29722W        W72639   1.879  18.435  30.061  0.1075  0.2099 -0.1546
29723W        W72640   7.883  20.854  28.341 -0.4493 -0.4326 -0.2438
29724W        W72641   7.395  22.696  28.090  0.1610 -0.0361  0.0209
29725W        W72642   6.714  17.389  28.673 -0.2312 -0.0226  0.1396
29726W        W72643   7.000  22.220  31.246  0.2680 -0.4122 -0.5827
29727W        W72644   4.771  18.794  26.575 -0.0729  0.0412 -0.2875
29728W        W72645   5.619  20.849  29.801  0.1292  0.0235  0.0688
29729W        W72646   5.870  17.090  30.732 -0.1968  0.1264 -0.1708
29730W        W72647   4.971  19.981  27.687  0.0761 -0.0510  0.0806
29731W        W72648   6.400  19.725  31.564  0.1520 -0.0240  0.0363
29732W        W72649   6.904  21.397  28.899 -0.0204 -0.1744  0.1690
29733W        W72650   6.670  20.323  28.371  0.0906  0.0464 -0.1462
29734W        W72651   7.513  20.660  31.517 -0.2096 -0.2085 -0.1226
29735W        W72652   6.533  20.108  28.772  0.1072 -0.0613 -0.3231
29736W        W72653   5.355  17.811  29.808  0.1912  0.2480 -0.1853
29737W        W72654   5.476  21.228  30.555 -0.0931 -0.2339 -0.3123
29738W        W72655   4.818  21.929  30.231 -0.0404 -0.0108  0.0966
29739W        W72656   6.486  20.156  25.634 -0.2198  0.2423 -0.5102
29740W        W72657   7.146  18.532  28.352  0.1839 -0.1081  0.0583
29741W        W72658   6.788  20.812  28.250 -0.2179  0.3264  0.1391
29742W        W72659   2.557  16.689   0.216  0.0476 -0.1091 -0.2045
29743W        W72660   3.760  20.807  29.723  0.0670 -0.0576 -0.2833
29744W        W72661   8.078  18.812  30.626  0.0458 -0.1245  0.0170
29745W        W72662   5.333  18.619  29.467 -0.4496  0.1619 -0.2042
29746W        W72663   6.552  19.105  27.197 -0.3511 -0.3246  0.2602
29747W        W72664   5.621  20.719  26.452 -0.1014  0.2328  0.0749
29748W        W72665   3.792  20.819  28.752  0.0313 -0.2512 -0.0409
29749W        W72666   4.221  20.316  30.219 -0.1600  0.4733  0.0802
29750W        W72667   5.719  18.427   1.315 -0.1136 -0.0280  0.3245
29751W        W72668   5.350  22.340  28.871 -0.1668 -0.1190 -0.4618
29752W        W72669   6.827  20.246  30.900  0.1939  0.2168  0.0143
29753W        W72670   6.322  19.628  27.826 -0.0110 -0.2943 -0.1050
29754W        W72671   7.482  20.044  25.348 -0.1221 -0.0024  0.4562
29755W        W72672   7.029  21.348  30.651  0.0256  0.0959  0.2063
29756W        W72673   6.760  20.865  29.578  0.0323 -0.0262  0.2293
29757W        W72674   5.233  20.511  29.963 -0.1500 -0.1617  0.0837
29758W        W72675   7.955  19.304  29.245 -0.1543 -0.0873  0.3856
29759W        W72676   3.423  18.692  30.620 -0.1820 -0.2909  0.2375
29760W        W72677   5.278  19.408  28.960 -0.0646  0.0175 -0.1583
29761W        W72678   4.877  21.209  28.317  0.0822  0.4920  0.1147
29762W        W72679   7.407  19.113  29.111  0.0749 -0.2544 -0.2208
29763W        W72680   4.976  18.295  31.846 -0.1351 -0.0659 -0.1725
29764W        W72681   7.483  18.827  27.350 -0.0980 -0.1404  0.1665
29765W        W72682   6.549  22.054  29.587  0.1411  0.2634 -0.0074
29766W        W72683   5.150  21.344  29.179  0.2194 -0.2003 -0.2456
29767W        W72684   8.682  19.612  31.632 -0.0495 -0.1567 -0.0844
29768W        W72685   5.485  19.291  30.978  0.0198  0.1688 -0.1408
29769W        W72686   5.875  19.965  31.225 -0.2079  0.0257 -0.1273
29770W        W72687   4.116  22.154   0.482 -0.1775 -0.4041  0.1513
29771W        W72688   4.972  19.770  30.640 -0.0855 -0.1692  0.3906
29772W        W72689   5.499  21.728  30.540  0.0776  0.3182 -0.4173
29773W        W72690   4.630  18.396   0.344  0.1256 -0.2716 -0.0120
29774W        W72691   6.838  17.920  31.387 -0.0249 -0.0313 -0.0401
29775W        W72692   8.515  18.305   0.200 -0.2428  0.5146  0.0260
29776W        W72693   5.226  20.085  31.336  0.0959 -0.0902  0.0202
29777W        W72694   5.671  20.608  30.396  0.1809 -0.0501  0.0618
29778W        W72695   5.779  17.952  31.337 -0.1853  0.3568 -0.0557
29779W        W72696   6.799  19.882  31.303  0.3859  0.0074  0.3158
29780W        W72697   5.984  20.109  30.204 -0.1451 -0.1182 -0.0098
29781W        W72698   7.769  19.993  30.762  0.1462  0.0288 -0.0533
29782W        W72699   5.182  21.784  31.722  0.1192 -0.0376  0.2198
29783W        W72700   3.776  20.498  28.098  0.1459 -0.1358 -0.3181
29784W        W72701   8.801  20.663  29.863  0.4958  0.1369 -0.0232
29785W        W72702   1.561  17.001  30.264 -0.0488 -0.0512  0.1432
29786W        W72703   5.908  19.229  31.468  0.0674  0.3174 -0.3400
29787W        W72704   6.451  16.525   0.002 -0.1151 -0.0056  0.1225
29788W        W72705   5.611  22.224  29.304  0.2938 -0.1069  0.0163
29789W        W72706   7.697  17.826  31.347 -0.3000 -0.1464  0.3318
29790W        W72707   6.342  20.964  30.419  0.1765 -0.0458  0.1969
29791W        W72708   5.661  16.657   0.631  0.3897 -0.1911  0.0788
29792W        W72709   5.267  17.615  30.512  0.0032  0.1770  0.0340
29793W        W72710   5.178  19.221   0.229 -0.1012 -0.0764  0.0468
29794W        W72711   3.798  20.873  31.003  0.0135 -0.0420  0.1340
29795W        W72712   4.784  19.988   0.089  0.1380 -0.0829  0.2065
29796W        W72713   5.020  21.024  31.124  0.0990  0.0745 -0.0369
29797W        W72714   7.266  22.173   0.180  0.0433 -0.2015  0.0613
29798W        W72715   6.277  17.637   0.521 -0.0989  0.4031  0.1666
29799W        W72716   6.497  20.695  28.650  0.0064  0.2392 -0.1337
29800W        W72717   7.615  19.570  27.844  0.2795 -0.1551  0.0687
29801W        W72718   1.638  18.990   0.119 -0.0771  0.0422  0.1044
29802W        W72719   3.388  21.518  28.786 -0.1941 -0.2502  0.0093
29803W        W72720   6.585  21.711  31.425 -0.1710  0.2410  0.1292
29804W        W72721   4.059  21.299  31.171  0.3419 -0.3004  0.5196
29805W        W72722   5.671  19.037   3.216  0.3904  0.1016 -0.0546
29806W        W72723   3.997  19.505  31.077 -0.0166  0.0812 -0.2040
29807W        W72724   8.139  18.057  31.236 -0.0889  0.0349 -0.3034
29808W        W72725   6.040  18.761  30.572  0.2196 -0.0083  0.2522
29809W        W72726   5.463  19.613  31.393  0.0671  0.1341 -0.2085
29810W        W72727   7.422  20.711  28.768  0.0377 -0.1802 -0.0743
29811W        W72728   4.352  19.120  31.089  0.4105  0.1799  0.0401
29812W        W72729   5.883  19.827  30.611  0.0369  0.0585 -0.1408
29813W        W72730   7.216  18.185  29.737  0.1616 -0.3336  0.2902
29814W        W72731   6.861  21.945   0.489 -0.4346  0.1636 -0.5049
29815W        W72732   7.454  19.612  30.613 -0.0388  0.3796 -0.1772
29816W        W72733   4.369  20.363  30.965 -0.1083 -0.4669  0.2205
29817W        W72734   6.381  21.907   1.560  0.0968  0.2438 -0.0834
29818W        W72735   7.942  17.857  30.901  0.3137 -0.0482  0.0618
29819W        W72736   6.175  16.546  31.474 -0.3219  0.0747  0.1297
29820W        W72737   3.867  20.688  31.883 -0.0827 -0.0764 -0.1749
29821W        W72738   5.710  18.453  31.395  0.0321  0.2483 -0.2114
29822W        W72739   7.252  18.074  31.075  0.3086 -0.0999 -0.0362
29823W        W72740   6.909  19.393  29.264 -0.1239  0.2253  0.0777
29824W        W72741   7.338  21.933  31.653  0.1799  0.2868 -0.2494
29825W        W72742   5.948  22.380  28.899  0.1732 -0.0057  0.0229
29826W        W72743   4.060  19.396  31.532  0.0105  0.1703  0.1187
29827W        W72744   2.673  20.560  31.754 -0.1201 -0.0965  0.1101
29828W        W72745   5.841  20.156  29.351 -0.0049 -0.0213 -0.0650
29829W        W72746   5.184  19.099  31.304  0.1763 -0.0740 -0.0089
29830W        W72747   3.396  18.809  31.122  0.1642  0.0587  0.0170
29831W        W72748   7.651  21.976   1.020 -0.0088 -0.0562  0.2013
29832W        W72749   7.322  18.204  31.518  0.0277  0.0706  0.1356
29833W        W72750   7.290  19.322  31.886 -0.0034 -0.0952  0.0545
29834W        W72751   5.239  25.681  18.430  0.0771  0.1747 -0.0923
29835W        W72752   6.562  23.619  17.454  0.1355 -0.0695  0.0771
29836W        W72753   6.816  21.298  16.542  0.0827  0.0075 -0.2072
29837W        W72754   7.479  23.017  17.483  0.2107 -0.1034  0.0490
29838W        W72755   3.983  22.686  16.857  0.2327  0.1089 -0.0614
29839W        W72756   4.011  26.512  17.991 -0.1669  0.2848 -0.1700
29840W        W72757   4.419  20.430  21.600 -0.1106  0.1633  0.0221
29841W        W72758   6.111  27.243  19.068 -0.1543 -0.1025  0.0092
29842W        W72759   5.042  25.221  17.505  0.2430  0.2256 -0.1358
29843W        W72760   3.972  24.476  17.740 -0.1077  0.1052 -0.2627
29844W        W72761   6.267  23.212  17.527 -0.4230  0.1348  0.0160
29845W        W72762   4.251  24.718  19.344 -0.3423 -0.2098 -0.1927
29846W        W72763   4.706  21.280  16.958  0.1062 -0.2174  0.0586
29847W        W72764   2.498  22.164  19.617 -0.0725 -0.0452 -0.0549
29848W        W72765   7.136  24.714  18.290  0.0594 -0.1197 -0.0874
29849W        W72766   3.868  23.178  20.538  0.1465  0.1415  0.0759
29850W        W72767   6.787  24.218  18.575  0.0976  0.1286 -0.0267
29851W        W72768   5.490  20.806  20.384  0.2677  0.1929 -0.1270
29852W        W72769   4.762  25.531  18.646 -0.1029 -0.0021  0.1912
29853W        W72770   6.558  22.233  20.159  0.0881 -0.0070  0.2163
29854W        W72771   6.057  22.470  20.235 -0.2919  0.0131 -0.2998
29855W        W72772   5.000  24.814  16.838  0.0615 -0.5127  0.1619
29856W        W72773   3.347  21.855  16.933 -0.0208  0.1938 -0.1462
29857W        W72774   5.045  22.797  19.177 -0.0617  0.1346 -0.1515
29858W        W72775   5.289  22.187  19.707  0.1932  0.3186 -0.0499
29859W        W72776   7.670  22.218  17.253  0.3931 -0.1176  0.1197
29860W        W72777   5.343  24.665  18.368 -0.2018 -0.0655 -0.2808
29861W        W72778   4.295  25.714  19.162  0.0829 -0.1794 -0.2318
29862W        W72779   6.336  26.154  18.333  0.0198 -0.0702 -0.0457
29863W        W72780   7.148  25.147  18.715 -0.0520 -0.1604  0.1359
29864W        W72781   3.671  23.100  17.150 -0.1211  0.0469  0.1834
29865W        W72782   3.558  25.769  18.615 -0.0528 -0.0301  0.1263
29866W        W72783   4.704  23.810  19.165 -0.2881 -0.2119  0.2490
29867W        W72784   5.026  25.188  18.473  0.0564  0.0223 -0.1176
29868W        W72785   6.811  25.616  17.436  0.0105  0.2598  0.0132
29869W        W72786   6.758  25.342  17.960  0.0011  0.0376  0.1260
29870W        W72787   2.962  24.735  16.842  0.0923 -0.2592 -0.0148
29871W        W72788   4.606  25.046  19.727 -0.1715  0.1076  0.1764
29872W        W72789   6.213  25.936  19.243 -0.0115 -0.1144 -0.0106
29873W        W72790   6.677  23.185  19.759  0.1492 -0.0951 -0.0885
29874W        W72791   6.700  23.254  17.829 -0.1203 -0.1302  0.1753
29875W        W72792   4.846  24.769  18.264 -0.0213  0.1555 -0.0331
29876W        W72793   5.809  24.790  19.372  0.2326  0.2946 -0.0291
29877W        W72794   6.240  24.705  20.531  0.2827 -0.0240  0.2679
29878W        W72795   5.343  23.070  19.979  0.1453  0.1198 -0.2066
29879W        W72796   6.566  21.743  20.344  0.2028  0.0407  0.1935
29880W        W72797   5.138  26.170  17.168 -0.0010  0.1147  0.0277
29881W        W72798   6.406  24.594  16.415  0.1155  0.1588  0.1173
29882W        W72799   6.257  22.430  17.302  0.2383 -0.2718 -0.0976
29883W        W72800   8.097  22.272  16.734 -0.0918  0.1749 -0.1350
29884W        W72801   5.010  23.385  17.840 -0.0222  0.0627  0.1012
29885W        W72802   4.317  26.842  19.833 -0.2543  0.2960  0.1117
29886W        W72803   6.336  21.812  19.165  0.0786 -0.1514  0.0220
29887W        W72804   4.102  24.178  18.570  0.0825  0.2156  0.2259
29888W        W72805   4.657  23.911  18.607 -0.0499  0.1186  0.2076
29889W        W72806   5.841  23.475  19.385  0.0668 -0.1335 -0.1015
29890W        W72807   3.904  26.045  19.385 -0.2886  0.1271 -0.1038
29891W        W72808   4.916  23.610  19.550 -0.0753  0.0434  0.1973
29892W        W72809   8.176  26.098  15.844  0.2724  0.2069  0.0678
29893W        W72810   7.084  23.634  17.036 -0.0683 -0.3259  0.0819
29894W        W72811   2.859  26.752  20.784  0.2374  0.0172 -0.0983
29895W        W72812   4.486  22.762  16.875 -0.0978 -0.2985 -0.2681
29896W        W72813   4.111  24.881  18.517  0.0087  0.1992  0.0221
29897W        W72814   5.336  24.691  20.351  0.1790  0.3015 -0.0666
29898W        W72815   5.579  22.814  18.950 -0.1195 -0.1599 -0.2319
29899W        W72816   5.383  26.099  18.227 -0.2425  0.0540 -0.3109
29900W        W72817   5.180  24.074  20.319 -0.0598  0.1066  0.0623
29901W        W72818   9.839  21.517  17.470  0.1150 -0.0646  0.1408
29902W        W72819   5.348  24.757  17.572  0.3859 -0.0776 -0.2249
29903W        W72820   7.568  24.876  18.476  0.2169 -0.0989 -0.1233
29904W        W72821   7.878  23.228  16.453 -0.1394  0.0142 -0.3548
29905W        W72822   7.528  21.802  18.196  0.1814  0.2381 -0.1048
29906W        W72823   7.332  21.891  19.615  0.5386 -0.1427 -0.0281
29907W        W72824   3.106  24.650  17.590  0.0154  0.2087 -0.2206
29908W        W72825   4.174  23.721  17.832  0.0743 -0.2774  0.1070
29909W        W72826   8.158  26.005  17.214  0.0901 -0.1619  0.0363
29910W        W72827   7.624  22.751  16.217 -0.2997  0.2439  0.0777
29911W        W72828   3.327  25.890  17.636 -0.0466  0.0976  0.0854
29912W        W72829   5.934  23.124  18.571  0.2031  0.0587  0.3055
29913W        W72830   7.206  25.611  20.839 -0.0207 -0.2270  0.1364
29914W        W72831   3.023  26.128  16.645 -0.0770  0.1552 -0.0616
29915W        W72832   2.859  23.502  18.660 -0.0898 -0.1744  0.1024
29916W        W72833   3.700  23.981  17.622  0.0421 -0.2079  0.0844
29917W        W72834   5.126  22.540  18.591  0.0511  0.1042 -0.3080
29918W        W72835   5.160  24.370  17.122  0.1472  0.0949 -0.0948
29919W        W72836   7.515  23.017  16.707 -0.0752  0.0315 -0.1080
29920W        W72837   3.734  23.906  18.989  0.0661 -0.3043 -0.0874
29921W        W72838   8.042  24.124  16.758  0.1150  0.1100 -0.0199
29922W        W72839   4.151  22.635  17.674 -0.0800  0.0070  0.3706
29923W        W72840   6.312  25.574  16.621  0.0117 -0.1432  0.2364
29924W        W72841   6.484  22.734  17.630  0.1087 -0.1241 -0.0630
29925W        W72842   5.877  24.760  17.411 -0.0241  0.2785  0.1344
29926W        W72843   1.241  21.710  19.385 -0.2954 -0.1118 -0.0299
29927W        W72844   4.347  23.094  18.369  0.0377  0.0510  0.0500
29928W        W72845   4.992  22.926  17.652  0.0473 -0.0080 -0.0412
29929W        W72846   5.544  23.362  18.905  0.2873  0.0715  0.0560
29930W        W72847   5.907  25.468  17.988 -0.0761  0.2090  0.1032
29931W        W72848   3.779  22.177  16.995 -0.2155 -0.0705  0.0406
29932W        W72849   6.136  25.124  16.356  0.1670  0.2505 -0.0444
29933W        W72850   4.806  23.991  17.303  0.3428  0.1266  0.1988
29934W        W72851   5.528  23.857  18.679 -0.3374 -0.1514  0.0580
29935W        W72852   7.063  22.341  20.272 -0.0926 -0.2054 -0.3033
29936W        W72853   4.515  25.119  18.288  0.2739 -0.2183  0.4032
29937W        W72854   6.913  25.571  16.895  0.0076 -0.1699 -0.0074
29938W        W72855   5.183  24.049  17.671 -0.0944 -0.4678  0.2393
29939W        W72856   3.635  25.034  18.086 -0.2369  0.1738 -0.0643
29940W        W72857   3.803  22.572  17.314 -0.3326  0.2278  0.1139
29941W        W72858   4.636  24.916  16.062  0.0904  0.0754  0.2323
29942W        W72859   4.397  25.218  17.745  0.0556 -0.0323  0.2231
29943W        W72860   5.545  25.258  18.263  0.1211  0.2116 -0.0044
29944W        W72861   6.402  26.013  17.204 -0.2730 -0.1959 -0.1180
29945W        W72862   4.153  24.572  16.749  0.0962 -0.0651  0.2629
29946W        W72863   5.702  22.074  20.112  0.1148  0.0513 -0.2766
29947W        W72864   6.305  19.502  17.622 -0.4277  0.0301  0.1240
29948W        W72865   7.131  23.604  17.916  0.1577 -0.0386 -0.3972
29949W        W72866   5.563  25.219  17.571  0.2154 -0.0287 -0.0270
29950W        W72867   5.223  21.954  17.090  0.0494  0.1605  0.3408
29951W        W72868   6.035  25.411  15.959 -0.0606 -0.0546 -0.0167
29952W        W72869   5.322  27.130  17.279 -0.1976  0.0159  0.1911
29953W        W72870   4.271  21.861  16.989 -0.2609 -0.0690  0.1064
29954W        W72871   5.303  25.792  17.493 -0.1559 -0.0581 -0.2788
29955W        W72872   6.125  23.267  19.029  0.0437  0.0990  0.0731
29956W        W72873   4.305  25.590  21.604  0.3020 -0.1109  0.1057
29957W        W72874   5.904  25.500  18.491 -0.1735  0.1230 -0.1051
29958W        W72875   3.883  21.883  18.368  0.0698 -0.0361  0.0589
29959W        W72876   6.167  23.228  19.964  0.1887 -0.0727  0.2279
29960W        W72877   5.619  21.781  19.744  0.1138  0.3537  0.1400
29961W        W72878   7.949  22.782  16.665 -0.1461 -0.2839 -0.1213
29962W        W72879   5.463  23.939  21.954 -0.0188 -0.1037 -0.0992
29963W        W72880   7.176  24.607  16.995 -0.1351 -0.2183  0.0377
29964W        W72881   6.424  21.632  16.783  0.2574 -0.1782  0.2949
29965W        W72882   6.002  20.072  16.835  0.0238  0.0415 -0.2525
29966W        W72883   3.662  22.852  22.092 -0.2133 -0.0322  0.1252
29967W        W72884   6.156  25.497  19.427  0.0372 -0.1410  0.1525
29968W        W72885   6.157  24.747  18.984  0.3084 -0.0914  0.0946
29969W        W72886   6.031  21.998  17.302  0.3754  0.0937 -0.0347
29970W        W72887   8.112  24.702  16.778  0.1876 -0.1405 -0.0729
29971W        W72888   5.281  22.353  20.707 -0.1836  0.0556  0.2716
29972W        W72889   7.487  25.997  20.340 -0.0356  0.4124 -0.3229
29973W        W72890   5.663  24.825  18.882 -0.1538 -0.0948 -0.0686
29974W        W72891   4.100  22.755  19.738 -0.0634 -0.2165 -0.2456
29975W        W72892   4.028  24.192  17.367  0.2182 -0.0452 -0.1073
29976W        W72893   6.309  21.670  18.205 -0.2386 -0.0924  0.0767
29977W        W72894   3.751  25.512  16.380 -0.0451  0.0741 -0.0623
29978W        W72895   9.140  22.450  18.184 -0.1054 -0.0558 -0.0800
29979W        W72896   7.084  23.397  18.534 -0.1835  0.0752  0.1696
29980W        W72897   6.476  21.765  19.809  0.1932 -0.1883 -0.1781
29981W        W72898   7.979  24.383  19.742 -0.3904 -0.0103 -0.3847
29982W        W72899   6.496  25.108  16.743  0.0909 -0.0839  0.0045
29983W        W72900   5.096  24.032  18.916  0.2168  0.1925  0.4897
29984W        W72901   4.007  22.659  18.161  0.2467 -0.1195 -0.1966
29985W        W72902   6.317  23.099  19.450 -0.4167  0.3577 -0.1414
29986W        W72903   5.104  23.533  18.806  0.0028 -0.0263 -0.5168
29987W        W72904   4.807  26.815  20.231  0.0346  0.3792  0.1315
29988W        W72905   6.675  25.799  20.118  0.2271  0.2037  0.2424
29989W        W72906   8.001  23.626  16.879  0.2401  0.0533 -0.0046
29990W        W72907   7.210  23.749  21.200 -0.0315 -0.0356  0.0690
29991W        W72908   7.631  21.331  17.494 -0.0672  0.0442 -0.2373
29992W        W72909   4.165  25.797  16.248 -0.0741 -0.0701 -0.0134
29993W        W72910   4.246  23.720  16.790  0.1370 -0.0692 -0.0786
29994W        W72911   6.831  25.052  18.362 -0.0188 -0.1628  0.0004
29995W        W72912   5.614  24.146  20.072 -0.1046  0.1072 -0.2093
29996W        W72913   4.630  24.672  16.543 -0.1764  0.0870 -0.0857
29997W        W72914   8.860  24.304  18.252 -0.0220 -0.0271  0.0252
29998W        W72915   5.092  23.458  20.027  0.1407 -0.2895 -0.1003
29999W        W72916   5.786  21.755  18.658 -0.0703  0.0284  0.1010
30000W        W72917   3.861  26.143  19.868  0.1215 -0.1578 -0.1601
30001W        W72918   4.869  21.857  17.962 -0.1093  0.1737  0.0520
30002W        W72919   3.494  23.864  16.834 -0.2098  0.1041  0.1663
30003W        W72920   8.217  22.458  16.298  0.0347 -0.1529 -0.0182
30004W        W72921   7.419  24.837  16.496  0.0995 -0.0303  0.2005
30005W        W72922   5.791  22.896  20.142  0.0853 -0.2319  0.1002
30006W        W72923   6.705  21.556  18.567 -0.0053 -0.1151  0.3977
30007W        W72924   3.425  23.610  19.282 -0.0170 -0.1046  0.1205
30008W        W72925   5.756  23.873  19.132 -0.0804 -0.1893  0.1713
30009W        W72926   7.024  23.291  16.648  0.2010 -0.2492  0.2488
30010W        W72927   7.706  25.952  17.966 -0.0421 -0.1282 -0.0185
30011W        W72928   5.215  24.708  19.325  0.0465  0.2451 -0.1049
30012W        W72929   3.426  22.662  19.879  0.0624 -0.2524 -0.0071
30013W        W72930   7.373  22.467  19.840  0.0927  0.1119  0.0105
30014W        W72931   6.389  23.603  19.689  0.0823  0.2051  0.1721
30015W        W72932   4.227  22.883  17.266 -0.1139 -0.1241  0.1459
30016W        W72933   5.942  25.157  16.890  0.1591  0.3075 -0.0222
30017W        W72934   6.141  22.128  17.813 -0.0885 -0.1336 -0.0431
30018W        W72935   4.517  23.235  17.644  0.2189 -0.0809  0.3411
30019W        W72936   4.382  23.770  19.545 -0.1166  0.1913  0.0391
30020W        W72937   7.444  24.300  18.213  0.0794 -0.1200 -0.1848
30021W        W72938   6.487  23.067  18.542  0.0822 -0.3317 -0.1620
30022W        W72939   5.861  23.361  20.452  0.0234  0.0637 -0.1730
30023W        W72940   5.728  25.343  19.627  0.0524 -0.0971  0.0505
30024W        W72941   6.479  23.203  16.715  0.1280 -0.0827 -0.1710
30025W        W72942   6.915  25.877  21.220  0.0687 -0.1623 -0.1710
30026W        W72943   5.871  23.839  20.891 -0.0226  0.4383 -0.2118
30027W        W72944   5.434  22.718  19.503  0.0788  0.1099  0.4350
30028W        W72945   7.333  25.469  16.678  0.0771 -0.0106 -0.0589
30029W        W72946   6.797  23.860  19.804 -0.3319 -0.2788 -0.0782
30030W        W72947   5.260  24.366  19.821 -0.0865 -0.0709  0.1532
30031W        W72948   3.880  24.555  18.289  0.1647  0.0070  0.2473
30032W        W72949   5.883  23.397  16.695 -0.0109 -0.3829  0.0354
30033W        W72950   8.296  23.491  21.326 -0.1626  0.0770  0.1819
30034W        W72951   6.337  23.756  19.243  0.1458  0.1754 -0.0412
30035W        W72952   4.956  24.383  18.582 -0.0032  0.3034 -0.1689
30036W        W72953   5.356  23.828  19.788  0.0799  0.1188  0.1088
30037W        W72954   6.693  22.292  17.720  0.0552  0.1933  0.1731
30038W        W72955   4.752  24.198  17.973 -0.3025 -0.2017 -0.2859
30039W        W72956   5.827  23.256  17.776  0.1053  0.2337  0.1001
30040W        W72957   7.108  22.426  21.999  0.2636  0.2662  0.3954
30041W        W72958   6.660  24.567  16.863  0.5817  0.0023  0.2478
30042W        W72959   4.509  22.540  22.332 -0.3106 -0.2370 -0.3041
30043W        W72960   5.481  23.657  20.263 -0.1255 -0.0639  0.1933
30044W        W72961   6.025  24.284  17.414 -0.0762  0.1315  0.1562
30045W        W72962   4.779  21.837  21.019 -0.1401  0.1502 -0.0103
30046W        W72963   5.213  26.559  19.909 -0.2664  0.2230 -0.0211
30047W        W72964   6.608  24.086  20.968 -0.1604  0.2774 -0.0784
30048W        W72965   5.518  23.033  16.863  0.1042  0.2888 -0.0479
30049W        W72966   4.390  21.584  16.527  0.1351  0.2276  0.3886
30050W        W72967   6.136  22.468  21.439 -0.0160 -0.0448 -0.2886
30051W        W72968   6.805  24.758  18.828 -0.5028  0.0719 -0.2966
30052W        W72969   5.969  26.702  16.620 -0.1670  0.0721  0.2137
30053W        W72970   8.691  22.524  17.064 -0.0441 -0.1677 -0.3943
30054W        W72971   6.332  23.838  18.784 -0.0061 -0.2841  0.1909
30055W        W72972   5.625  23.882  17.454 -0.1448  0.0203  0.1072
30056W        W72973   4.426  24.218  17.605  0.4431  0.1453 -0.0657
30057W        W72974   6.261  23.545  18.427  0.1443 -0.1225 -0.2524
30058W        W72975   5.204  21.505  21.130  0.1132  0.0237  0.2068
30059W        W72976   6.320  24.433  18.563 -0.0422 -0.0819  0.2388
30060W        W72977   5.598  22.389  18.527  0.1070  0.0096 -0.1031
30061W        W72978   7.004  22.654  21.037 -0.0154  0.0213 -0.1620
30062W        W72979   6.533  24.195  17.467 -0.0079 -0.1572  0.2596
30063W        W72980   5.023  24.151  19.400  0.1536  0.1310 -0.2452
30064W        W72981   5.352  25.958  19.170 -0.3411  0.0846 -0.1444
30065W        W72982   5.874  25.961  18.225  0.0624 -0.2163 -0.0817
30066W        W72983   7.580  22.738  17.117 -0.0142 -0.3770  0.2369
30067W        W72984   8.430  25.286  19.425  0.4086 -0.0001 -0.0163
30068W        W72985   7.070  23.379  17.498 -0.0883 -0.2518 -0.0551
30069W        W72986   6.558  22.207  19.590  0.0711 -0.0246  0.0270
30070W        W72987   3.505  20.964  19.655  0.3272 -0.3409 -0.0419
30071W        W72988   6.855  21.705  21.582  0.2391 -0.1277  0.0269
30072W        W72989   4.748  22.360  16.984 -0.0594 -0.0334 -0.4235
30073W        W72990   6.034  23.647  17.473 -0.1181  0.0072 -0.2319
30074W        W72991   4.839  23.510  17.343  0.4248 -0.0179 -0.1155
30075W        W72992   5.997  23.938  17.071 -0.0661 -0.1240  0.0019
30076W        W72993   6.226  23.799  16.661 -0.0437  0.0903 -0.2452
30077W        W72994   4.378  23.427  19.156 -0.2911 -0.1941  0.0298
30078W        W72995   4.021  23.283  18.778  0.1075  0.3231  0.1385
30079W        W72996   5.621  21.695  17.059  0.2354  0.1137 -0.1215
30080W        W72997   4.009  23.330  17.463  0.2156 -0.2212  0.1678
30081W        W72998   5.743  24.898  17.945  0.1339 -0.0868  0.0731
30082W        W72999   6.667  24.251  19.552 -0.0048 -0.2885 -0.1176
30083W        W73000   5.377  23.187  19.429 -0.0223 -0.0759 -0.2850
30084W        W73001   7.373  23.393  20.722  0.2649 -0.0145  0.1927
30085W        W73002   4.449  24.481  18.410  0.0970 -0.3084 -0.0349
30086W        W73003   6.348  20.960  18.823 -0.1074 -0.3587  0.1800
30087W        W73004   2.878  24.952  19.186  0.1182  0.0283  0.2368
30088W        W73005   3.759  25.308  19.093  0.1276  0.0413 -0.1235
30089W        W73006   5.020  23.850  18.292  0.1298 -0.0088  0.1937
30090W        W73007   5.622  23.812  17.957  0.0067  0.2048 -0.1929
30091W        W73008   6.693  23.504  18.222 -0.1457 -0.1380  0.5369
30092W        W73009   6.226  24.114  17.879 -0.1516  0.0199 -0.0855
30093W        W73010   8.478  25.349  18.608  0.2719 -0.0223 -0.1783
30094W        W73011   5.065  25.397  19.064 -0.1479 -0.1025 -0.0621
30095W        W73012   6.476  23.966  18.302  0.1804 -0.1967 -0.0346
30096W        W73013   7.532  25.937  19.840 -0.0794 -0.0266 -0.2212
30097W        W73014   6.061  24.555  18.116 -0.4924 -0.0521  0.2349
30098W        W73015   7.263  25.054  17.471 -0.1962  0.3142 -0.2578
30099W        W73016   3.079  23.137  20.690  0.1348  0.2189  0.1200
30100W        W73017   6.192  24.158  19.423  0.1739  0.1188  0.1707
30101W        W73018   6.889  24.865  17.808  0.1226  0.2544  0.0383
30102W        W73019   5.663  21.017  17.091  0.0305  0.0390 -0.1475
30103W        W73020   5.928  25.985  16.221 -0.2716  0.2896  0.0265
30104W        W73021   4.730  24.664  20.049 -0.0808 -0.1977 -0.0140
30105W        W73022   5.102  22.332  19.261  0.2257 -0.0894 -0.0284
30106W        W73023   3.164  26.983  17.396  0.0026 -0.0680  0.0933
30107W        W73024   3.573  25.017  16.167 -0.2837  0.2682 -0.1003
30108W        W73025   4.854  24.474  17.477 -0.0693 -0.1843  0.3745
30109W        W73026   6.449  27.093  20.010 -0.1803  0.2610 -0.1102
30110W        W73027   3.845  23.711  17.198 -0.2177 -0.2307 -0.3357
30111W        W73028   5.028  25.373  20.410 -0.1546  0.0008  0.1671
30112W        W73029   2.426  25.014  17.145  0.1220 -0.1277 -0.2876
30113W        W73030   6.168  26.535  17.020 -0.3059  0.0523 -0.6430
30114W        W73031   3.844  24.718  19.689  0.1346 -0.0609  0.0933
30115W        W73032   6.357  26.656  18.464 -0.0787 -0.0388 -0.0049
30116W        W73033   4.746  21.792  16.929 -0.2011 -0.3408  0.0401
30117W        W73034   7.770  23.003  18.105  0.1167  0.2153 -0.3692
30118W        W73035   9.141  22.110  17.860  0.2549  0.0156 -0.0326
30119W        W73036   8.072  25.000  17.147  0.0973 -0.2857 -0.0203
30120W        W73037   7.138  25.630  20.159  0.1011  0.0709 -0.3916
30121W        W73038   5.399  22.990  17.378  0.0470  0.2397 -0.2736
30122W        W73039   5.398  22.612  20.064  0.0590  0.0913  0.3291
30123W        W73040   8.237  20.992  22.110  0.2592 -0.3199  0.0608
30124W        W73041   4.529  25.205  20.299 -0.1560 -0.0885  0.3106
30125W        W73042   7.598  24.743  17.185 -0.0937 -0.2180  0.1328
30126W        W73043   5.466  22.624  17.666  0.1207 -0.0422  0.1575
30127W        W73044   5.240  23.280  21.259 -0.0102 -0.1206 -0.0555
30128W        W73045   6.492  22.908  19.006  0.3737 -0.0109  0.0297
30129W        W73046   3.335  25.395  17.439  0.0978 -0.1056 -0.0009
30130W        W73047   5.445  23.013  17.935  0.0529 -0.0141 -0.3982
30131W        W73048   4.153  26.213  17.567 -0.1118 -0.0616  0.1759
30132W        W73049   5.373  24.415  18.857 -0.1377 -0.1599  0.0767
30133W        W73050   4.217  27.303  18.526  0.1054 -0.4050  0.1842
30134W        W73051   4.570  23.272  17.000  0.0430 -0.3951  0.1750
30135W        W73052   9.625  22.569  18.438  0.0102 -0.1214  0.1108
30136W        W73053   5.316  23.699  19.272  0.0369  0.0329 -0.3125
30137W        W73054   8.101  24.706  18.358 -0.0024 -0.1733 -0.2722
30138W        W73055   6.073  22.650  18.729 -0.2046  0.3330 -0.1278
30139W        W73056   5.423  23.460  17.595  0.0566 -0.2937 -0.0362
30140W        W73057   6.205  23.610  17.945  0.1549 -0.1131  0.0172
30141W        W73058   6.087  20.648  19.173 -0.1982 -0.1303 -0.0079
30142W        W73059   7.750  24.442  17.558  0.2252 -0.2834 -0.0363
30143W        W73060   7.229  24.436  17.464 -0.1962  0.0310  0.2798
30144W        W73061   7.839  23.151  17.044  0.0257 -0.0957 -0.0351
30145W        W73062   7.676  26.758  18.435 -0.0999  0.4568 -0.0693
30146W        W73063   6.073  21.636  17.787  0.0869  0.0194  0.0540
30147W        W73064   6.645  23.427  18.872  0.1029 -0.1392  0.2879
30148W        W73065   1.885  23.925  19.366 -0.0972 -0.0094 -0.3992
30149W        W73066   5.860  24.328  18.992 -0.0818  0.2633 -0.1495
30150W        W73067   5.344  26.557  17.684 -0.2589  0.1791 -0.1440
30151W        W73068   5.171  22.594  18.077 -0.0106 -0.0413  0.1016
30152W        W73069   8.847  24.217  16.360 -0.0792 -0.2524 -0.1518
30153W        W73070   7.717  23.619  17.869  0.2943 -0.0487  0.4360
30154W        W73071   5.112  24.694  16.320  0.0498  0.3453 -0.2199
30155W        W73072   5.656  24.347  17.848 -0.1344  0.2429 -0.2645
30156W        W73073   5.614  24.598  20.836  0.0719  0.3696  0.1148
30157W        W73074   4.388  21.293  22.455  0.0246 -0.1650 -0.0233
30158W        W73075   6.342  25.697  20.543  0.0337  0.0221 -0.0417
30159W        W73076   8.679  25.511  16.792  0.0813 -0.3472  0.0966
30160W        W73077   5.913  20.803  17.581 -0.1630 -0.1267 -0.2650
30161W        W73078   6.495  23.814  20.384  0.3595  0.1680  0.1634
30162W        W73079   4.214  25.344  17.292 -0.2252 -0.0985 -0.2944
30163W        W73080   7.667  22.096  17.779 -0.2166 -0.1119 -0.5315
30164W        W73081   4.288  26.075  20.130  0.1442  0.0393  0.0150
30165W        W73082   4.883  26.724  17.489 -0.1924  0.3071  0.2806
30166W        W73083   5.667  23.020  21.353  0.0052 -0.1309 -0.1527
30167W        W73084   7.605  25.412  20.546  0.2139  0.3102  0.4530
30168W        W73085   3.329  25.135  19.339 -0.3535 -0.0974 -0.0366
30169W        W73086   4.677  23.479  18.173  0.2461 -0.0786  0.0275
30170W        W73087   5.286  26.105  19.860  0.0212 -0.4685 -0.1770
30171W        W73088   5.073  26.184  18.762 -0.0011 -0.0736  0.0507
30172W        W73089   4.079  23.249  16.970 -0.0038  0.1619  0.1703
30173W        W73090   7.827  23.071  18.855  0.1711  0.0475  0.2757
30174W        W73091   5.951  22.491  16.831  0.2849 -0.1787 -0.0658
30175W        W73092   8.488  26.429  16.555 -0.0622  0.0715  0.5284
30176W        W73093   4.545  22.588  18.460 -0.0019  0.0544  0.3103
30177W        W73094   7.832  25.042  18.111 -0.1049  0.1942 -0.0324
30178W        W73095   5.920  22.732  18.224 -0.2774  0.0061 -0.2980
30179W        W73096   6.374  23.659  20.810 -0.0428 -0.2027 -0.0740
30180W        W73097   5.391  22.085  18.870  0.2569  0.2959 -0.1682
30181W        W73098   5.113  23.376  16.973 -0.1082  0.0929 -0.0224
30182W        W73099   4.910  24.226  16.617 -0.0349  0.1017  0.1194
30183W        W73100   6.190  22.516  20.687  0.2249 -0.3545 -0.1501
30184W        W73101   6.296  22.626  19.741 -0.1238 -0.1394 -0.1020
30185W        W73102   4.883  22.992  20.204  0.1115  0.0760 -0.1709
30186W        W73103   4.633  22.912  18.802 -0.2377  0.0038  0.2648
30187W        W73104   6.271  24.823  17.097 -0.0940  0.0557 -0.1724
30188W        W73105   3.816  21.282  19.275  0.0980 -0.1088  0.0571
30189W        W73106   4.132  22.259  19.192 -0.1825  0.0331  0.1934
30190W        W73107   6.239  24.334  16.946  0.0141 -0.4005 -0.0771
30191W        W73108   6.467  25.465  17.189 -0.0934  0.0109  0.0903
30192W        W73109   4.969  21.353  18.916  0.2011 -0.0942 -0.0195
30193W        W73110   7.246  23.730  18.915  0.0266 -0.0202 -0.0390
30194W        W73111   5.101  24.490  17.957  0.3461 -0.0366  0.1589
30195W        W73112   5.185  21.765  19.427  0.0476  0.0544  0.0815
30196W        W73113   7.862  22.647  18.423  0.4386 -0.0554 -0.0424
30197W        W73114   5.632  23.532  17.091  0.2523  0.1875 -0.0900
30198W        W73115   6.522  22.618  18.142 -0.1598  0.0178  0.1036
30199W        W73116   4.294  25.038  16.874  0.0388  0.1522 -0.0954
30200W        W73117   7.199  25.250  16.241  0.3837 -0.0960  0.1560
30201W        W73118   3.850  25.524  17.557  0.1910  0.2151  0.2053
30202W        W73119   6.245  25.082  19.728  0.0942  0.4509 -0.1758
30203W        W73120   4.798  22.678  21.341 -0.0381  0.3724 -0.0747
30204W        W73121   7.576  23.931  16.673 -0.0133 -0.0139  0.0423
30205W        W73122   4.784  26.307  20.258  0.1715  0.3093  0.3909
30206W        W73123   7.589  24.427  16.761 -0.1080  0.0400 -0.2305
30207W        W73124   7.094  24.285  19.867 -0.0171  0.1181 -0.0128
30208W        W73125   6.506  25.134  17.591  0.3462  0.1818  0.1510
30209W        W73126   3.430  20.726  22.511 -0.3649 -0.4858  0.0977
30210W        W73127   6.649  24.837  20.343 -0.0921  0.2290 -0.1212
30211W        W73128   8.201  25.459  18.065 -0.1524 -0.0206 -0.0264
30212W        W73129   6.740  22.638  19.388  0.3641  0.3620  0.1914
30213W        W73130   8.570  22.095  16.676  0.1516  0.1380 -0.1871
30214W        W73131   6.041  25.207  17.421 -0.1467 -0.2304  0.0613
30215W        W73132   5.074  23.051  18.704 -0.0629 -0.2449  0.1834
30216W        W73133   4.359  22.157  17.728 -0.0891  0.1353 -0.0984
30217W        W73134   5.754  21.750  20.619  0.0081 -0.0366 -0.0323
30218W        W73135   5.540  24.277  19.378 -0.0249 -0.0590 -0.0035
30219W        W73136   6.572  24.503  18.097 -0.2031 -0.3419  0.3006
30220W        W73137   5.539  22.695  16.476 -0.0812  0.1721 -0.1439
30221W        W73138   8.314  22.944  17.166  0.4327  0.2155  0.0474
30222W        W73139   5.741  27.359  18.005 -0.0249  0.4526 -0.0146
30223W        W73140   6.455  27.110  19.437 -0.1353  0.2555 -0.2969
30224W        W73141   6.803  27.205  18.062 -0.0377  0.0989 -0.1164
30225W        W73142   7.041  24.111  16.830  0.0328 -0.2931 -0.1155
30226W        W73143   4.709  19.147  20.052 -0.2931  0.0064  0.3268
30227W        W73144   6.834  22.587  19.878  0.0532  0.3927  0.2327
30228W        W73145   5.980  24.056  18.311 -0.1483  0.0402  0.0672
30229W        W73146   7.218  24.200  20.720 -0.0061  0.0747 -0.0001
30230W        W73147   5.814  24.451  18.508 -0.3821 -0.2495  0.0175
30231W        W73148   7.182  22.421  17.305  0.0842 -0.0364  0.0986
30232W        W73149   5.083  25.446  16.997  0.0392  0.2793 -0.1232
30233W        W73150   7.009  22.473  18.932  0.0361  0.1312 -0.2004
30234W        W73151   4.468  24.038  24.683 -0.1535  0.2419  0.1694
30235W        W73152   4.450  23.856  22.823 -0.0346 -0.0864  0.1442
30236W        W73153   7.751  23.289  21.627 -0.2454 -0.0397  0.0743
30237W        W73154   7.579  24.205  21.092 -0.0434 -0.0031 -0.1419
30238W        W73155   5.008  24.633  20.879  0.0043  0.4997  0.0119
30239W        W73156   5.669  26.639  20.381 -0.1915  0.0371 -0.2642
30240W        W73157   3.790  20.462  24.992 -0.1549  0.0215 -0.3992
30241W        W73158   8.146  25.419  18.983 -0.0939  0.0858  0.1909
30242W        W73159   9.118  26.728  22.760 -0.1061  0.0333  0.0233
30243W        W73160   7.540  26.214  19.027 -0.3328 -0.0753 -0.3616
30244W        W73161   5.140  24.542  24.238  0.1488 -0.1351  0.0211
30245W        W73162   6.067  23.581  24.135 -0.2137 -0.3297  0.0186
30246W        W73163   6.749  25.548  19.284  0.1308  0.1213 -0.3847
30247W        W73164   5.481  20.985  22.397  0.1237 -0.3162  0.0151
30248W        W73165   5.263  23.113  22.210 -0.1667 -0.1757 -0.4120
30249W        W73166   5.581  25.387  23.536 -0.0729 -0.0438  0.1515
30250W        W73167   6.611  24.931  22.412 -0.0531  0.0210  0.3269
30251W        W73168   6.650  20.910  22.008 -0.1586 -0.0511 -0.2004
30252W        W73169   4.346  25.135  23.165  0.1305  0.0126 -0.2569
30253W        W73170   6.319  22.167  22.210  0.2546  0.1450 -0.1404
30254W        W73171   6.301  23.793  22.694 -0.0386 -0.0334  0.2888
30255W        W73172   5.836  25.853  20.742  0.1918 -0.3135 -0.1012
30256W        W73173   4.113  25.452  18.146 -0.1649  0.3944 -0.0373
30257W        W73174   5.528  21.756  22.549 -0.2980 -0.1810 -0.1538
30258W        W73175   5.113  23.303  23.174  0.2080  0.1967  0.3747
30259W        W73176   6.622  22.977  21.117  0.1953 -0.3082 -0.0547
30260W        W73177   7.497  25.653  18.331  0.1511 -0.0561 -0.0752
30261W        W73178   4.672  26.650  21.512 -0.0356  0.4204 -0.0754
30262W        W73179   4.151  25.276  22.384 -0.4402  0.1062 -0.0037
30263W        W73180   6.065  22.798  23.786 -0.0392  0.2760  0.1274
30264W        W73181   4.105  24.153  22.556  0.0360  0.0346  0.1833
30265W        W73182   3.777  24.891  20.393 -0.3378 -0.0113  0.0268
30266W        W73183   6.845  23.897  21.444 -0.1072 -0.0105  0.1562
30267W        W73184   8.002  25.024  19.282 -0.2145  0.0802  0.2040
30268W        W73185   5.339  27.131  23.514 -0.0214 -0.1485 -0.1222
30269W        W73186   4.267  25.037  24.349 -0.2401 -0.0041 -0.0460
30270W        W73187   2.861  26.567  21.683  0.0577 -0.2257  0.1551
30271W        W73188   5.862  25.322  22.977  0.1588 -0.0338  0.1340
30272W        W73189   3.763  23.571  25.331  0.4493  0.0081  0.0047
30273W        W73190   6.006  25.035  23.437  0.0861 -0.3813 -0.0610
30274W        W73191   6.131  25.774  21.135  0.1165 -0.0770 -0.2809
30275W        W73192   5.717  25.337  21.547  0.1557 -0.2259  0.1964
30276W        W73193   4.643  27.048  21.914 -0.0627 -0.1224  0.1537
30277W        W73194   4.705  25.890  23.449 -0.1197 -0.0749  0.3692
30278W        W73195   5.228  24.590  23.332  0.0726 -0.1052 -0.1945
30279W        W73196   8.258  22.543  23.591  0.1742 -0.2404  0.2835
30280W        W73197   4.858  25.906  21.226  0.1267  0.0384  0.3487
30281W        W73198   6.997  22.205  20.764 -0.2385  0.3279  0.1341
30282W        W73199   4.443  23.082  20.514  0.2422 -0.2316  0.1323
30283W        W73200   7.360  23.799  20.472  0.2134 -0.3750 -0.0694
30284W        W73201   5.408  21.400  22.163  0.0218 -0.2130 -0.1255
30285W        W73202   6.007  24.048  23.527 -0.0767  0.2324  0.3127
30286W        W73203   6.765  22.236  23.665  0.0540 -0.1384  0.3516
30287W        W73204   6.715  26.058  23.190 -0.0684  0.2652 -0.1769
30288W        W73205   5.822  21.693  23.580 -0.0496 -0.0336  0.1140
30289W        W73206   7.901  25.393  19.653 -0.2304 -0.1209  0.1796
30290W        W73207   7.074  25.655  22.461  0.0800 -0.0338  0.0504
30291W        W73208   6.398  21.285  20.161 -0.3582  0.4121  0.1674
30292W        W73209   7.764  24.172  22.227 -0.3603 -0.1639 -0.0273
30293W        W73210   8.348  26.447  20.768  0.1041  0.1621  0.0190
30294W        W73211   6.161  26.463  21.776 -0.1832  0.2701  0.1642
30295W        W73212   5.297  23.491  21.870 -0.1166 -0.0538  0.1233
30296W        W73213   3.732  21.294  23.083  0.0053 -0.0191 -0.0222
30297W        W73214   5.497  22.206  23.675 -0.1940  0.3296 -0.0563
30298W        W73215   4.299  22.416  21.289  0.3096 -0.5019 -0.0562
30299W        W73216   6.235  25.678  22.900  0.1732  0.0175  0.0891
30300W        W73217   4.283  26.862  22.405 -0.2290  0.1193 -0.2768
30301W        W73218   6.990  23.886  22.004  0.0820 -0.4173  0.1227
30302W        W73219   5.542  23.314  24.823  0.0628  0.0520  0.0029
30303W        W73220   6.036  25.967  20.112  0.0161  0.1068 -0.0463
30304W        W73221   5.850  24.932  19.985 -0.0482 -0.0970  0.1058
30305W        W73222   8.250  24.440  20.421  0.2447  0.1978  0.0278
30306W        W73223   7.653  21.515  21.285  0.0158 -0.1888 -0.1849
30307W        W73224   6.176  25.326  21.310  0.0364 -0.0276  0.1274
30308W        W73225   6.704  23.328  20.555 -0.1462  0.3461 -0.1989
30309W        W73226   7.152  24.769  22.458 -0.1808  0.2390  0.3383
30310W        W73227   7.372  24.726  18.934  0.1411 -0.2396  0.2222
30311W        W73228   3.387  25.709  24.825  0.1724  0.0289 -0.0532
30312W        W73229   5.479  21.411  24.531 -0.2664 -0.1752  0.3497
30313W        W73230   6.685  24.773  22.959 -0.3857 -0.2635 -0.0227
30314W        W73231   3.739  26.748  19.647 -0.2675  0.2839 -0.2977
30315W        W73232   4.028  23.889  22.100 -0.0248  0.0515 -0.0044
30316W        W73233   5.482  25.114  21.098 -0.3069  0.0326  0.3456
30317W        W73234   4.864  19.299  23.867 -0.1902 -0.2508 -0.1586
30318W        W73235   5.118  26.353  21.087  0.1561  0.0521  0.1186
30319W        W73236   7.520  25.137  19.948  0.2963 -0.0976 -0.0491
30320W        W73237   6.414  21.605  23.273  0.0468 -0.0044  0.2242
30321W        W73238   8.037  19.730  22.676 -0.1019 -0.0753  0.1977
30322W        W73239   4.206  25.311  21.108  0.1126 -0.1580  0.1210
30323W        W73240   7.540  26.521  20.295  0.1851 -0.2462  0.3180
30324W        W73241   7.517  24.433  19.958  0.1399 -0.1049 -0.1005
30325W        W73242   8.927  25.389  19.668  0.0688  0.2629 -0.0893
30326W        W73243   5.838  21.876  24.403  0.1061 -0.1065 -0.0947
30327W        W73244   4.871  22.114  22.093 -0.1546 -0.0742 -0.1349
30328W        W73245   4.847  22.615  24.805 -0.1768  0.1720 -0.0393
30329W        W73246   4.533  22.562  21.813  0.2611 -0.2928  0.0573
30330W        W73247   6.652  24.453  22.419  0.0710  0.1834  0.0396
30331W        W73248   4.312  21.770  19.739 -0.3119 -0.1568  0.0490
30332W        W73249   5.564  26.073  20.342 -0.1594 -0.1478 -0.1979
30333W        W73250   6.063  23.656  22.062  0.2115  0.2675  0.0270
30334W        W73251   4.724  24.187  23.032 -0.1231 -0.3621  0.1489
30335W        W73252   6.494  24.934  21.451  0.0979 -0.1119 -0.0001
30336W        W73253   6.143  25.082  21.781  0.1412 -0.0321  0.0195
30337W        W73254   6.870  27.566  22.046 -0.1843 -0.0652 -0.2357
30338W        W73255   6.875  26.477  20.840  0.2432  0.1467 -0.3615
30339W        W73256   6.285  22.809  24.325  0.0798  0.0978 -0.4415
30340W        W73257   3.604  20.698  21.453 -0.2171 -0.1603 -0.0750
30341W        W73258   5.499  25.421  18.774  0.1928 -0.0353  0.1713
30342W        W73259   5.987  27.049  22.303 -0.0903  0.2560  0.1790
30343W        W73260   5.031  25.114  21.514  0.2271  0.1812  0.0924
30344W        W73261   7.077  26.332  21.409 -0.0409 -0.0983  0.1233
30345W        W73262   5.319  22.145  22.386  0.0604  0.2772 -0.2665
30346W        W73263   5.152  23.772  24.059  0.0629  0.2700  0.1986
30347W        W73264   6.001  23.559  23.063 -0.0660 -0.5541  0.2994
30348W        W73265   6.341  26.077  22.053  0.3415  0.0562  0.0525
30349W        W73266   6.403  24.002  21.759  0.0313  0.0178 -0.0238
30350W        W73267   3.304  22.006  19.861 -0.3294 -0.1864  0.1331
30351W        W73268   6.400  26.174  20.851  0.0078  0.2159  0.3135
30352W        W73269   5.357  24.181  18.337 -0.2282  0.0428 -0.0470
30353W        W73270   5.260  20.933  22.923  0.0084  0.1069  0.0944
30354W        W73271   4.924  24.989  22.043 -0.1977 -0.0765  0.2335
30355W        W73272   6.892  23.569  22.602  0.1246  0.3469 -0.0486
30356W        W73273   5.344  23.532  25.695 -0.0295 -0.0103 -0.2146
30357W        W73274   6.840  22.511  25.431 -0.2306 -0.0365  0.0220
30358W        W73275   5.820  23.207  22.698  0.1151  0.1273 -0.0217
30359W        W73276   5.587  24.896  23.180  0.0698 -0.0719 -0.0510
30360W        W73277   8.684  22.470  22.860 -0.1272  0.1169  0.0511
30361W        W73278   7.229  24.241  18.830  0.2388 -0.0001 -0.0930
30362W        W73279   7.069  25.013  25.183 -0.3353  0.0991  0.1560
30363W        W73280   7.175  26.112  18.107 -0.3271 -0.4034  0.3627
30364W        W73281   5.384  24.844  19.800  0.3032 -0.2955  0.2233
30365W        W73282   5.334  22.230  21.863 -0.0503  0.1027  0.0858
30366W        W73283   2.022  23.641  25.141 -0.0851 -0.4312 -0.1994
30367W        W73284   7.161  25.815  21.613 -0.3153  0.2689  0.0483
30368W        W73285   4.414  23.048  22.464 -0.0395 -0.1538  0.1414
30369W        W73286   7.362  21.860  21.051  0.3132  0.1371  0.1842
30370W        W73287   7.703  25.960  21.588  0.2107  0.4384  0.0030
30371W        W73288   4.738  21.842  24.316  0.0634  0.0796 -0.1473
30372W        W73289   6.160  27.360  22.661  0.0326  0.1177 -0.2108
30373W        W73290   6.778  26.129  21.799  0.0811  0.0602  0.0552
30374W        W73291   6.741  21.775  23.714 -0.2462  0.1049 -0.4156
30375W        W73292   5.241  22.875  21.008 -0.2821 -0.1579  0.0259
30376W        W73293   4.945  20.604  21.614  0.0671 -0.1437  0.0518
30377W        W73294   3.503  23.378  18.823  0.1219 -0.1681 -0.0289
30378W        W73295   6.997  22.946  22.003 -0.1202  0.0610  0.0067
30379W        W73296   5.576  22.723  23.648  0.1440  0.0439  0.3022
30380W        W73297   7.175  23.443  23.953 -0.3272 -0.0853 -0.1009
30381W        W73298   6.263  21.921  23.602 -0.2268 -0.0354 -0.0622
30382W        W73299   6.489  24.380  19.069 -0.0633 -0.5418 -0.0392
30383W        W73300   5.972  24.395  22.402 -0.0810 -0.3163 -0.3046
30384W        W73301   3.919  22.058  21.544  0.1361 -0.1508 -0.4945
30385W        W73302   8.322  23.170  24.102 -0.1195  0.1368 -0.0445
30386W        W73303   5.255  23.201  22.665 -0.0434 -0.1129  0.1564
30387W        W73304   5.796  27.009  23.918 -0.0936 -0.3415  0.0241
30388W        W73305   6.820  26.587  22.540  0.0727  0.2790 -0.1616
30389W        W73306   5.937  24.124  22.028  0.2601 -0.2923 -0.0386
30390W        W73307   5.435  24.303  22.320 -0.2514 -0.2799 -0.1882
30391W        W73308   6.243  22.672  22.068  0.0140  0.3809 -0.0379
30392W        W73309   3.668  24.384  18.741 -0.0117 -0.0483  0.0476
30393W        W73310   7.936  25.205  20.310 -0.0908  0.1607  0.2194
30394W        W73311   5.948  20.672  23.256  0.1015  0.0365  0.3853
30395W        W73312   7.016  26.725  21.746 -0.4906  0.1378 -0.0043
30396W        W73313   4.964  26.923  19.749 -0.1107  0.0821 -0.0229
30397W        W73314   5.180  22.955  23.526 -0.0010 -0.0495 -0.0220
30398W        W73315   5.262  26.530  18.443  0.0639  0.1835 -0.0840
30399W        W73316   6.323  22.973  22.823  0.1669  0.0729 -0.2556
30400W        W73317   3.970  24.631  20.895 -0.4502 -0.1015  0.0482
30401W        W73318   5.315  24.542  21.367  0.1278  0.0965  0.2427
30402W        W73319   3.805  23.158  21.052 -0.3335 -0.0338  0.0885
30403W        W73320   7.042  24.732  21.323 -0.0929  0.1893  0.2323
30404W        W73321   7.252  25.183  18.070  0.1109  0.4905 -0.2694
30405W        W73322   5.806  20.690  21.524  0.2110 -0.0881  0.1400
30406W        W73323   5.535  21.733  23.111 -0.2150 -0.0907  0.2017
30407W        W73324   2.583  25.221  22.326  0.2755 -0.0999  0.3472
30408W        W73325   4.233  23.328  25.098 -0.0903 -0.0890  0.1707
30409W        W73326   6.861  23.034  22.707 -0.0386 -0.2892 -0.1758
30410W        W73327   7.380  23.628  22.904 -0.1334  0.0228  0.3885
30411W        W73328   6.654  23.609  24.051 -0.3667  0.0543 -0.4011
30412W        W73329   4.489  23.472  22.068  0.2068  0.0095  0.0236
30413W        W73330   6.878  23.319  24.382  0.2078 -0.0979  0.1438
30414W        W73331   6.478  23.438  22.980  0.0319 -0.3498 -0.1491
30415W        W73332   4.171  24.952  19.985 -0.0717  0.3041  0.0250
30416W        W73333   7.410  25.725  22.112 -0.1984  0.0841  0.3087
30417W        W73334   6.984  23.330  21.068  0.2836 -0.1456  0.1960
30418W        W73335   3.423  27.413  21.535  0.1539  0.0664  0.2162
30419W        W73336   3.968  21.434  24.277  0.0870 -0.3721 -0.0823
30420W        W73337   6.952  25.183  22.742 -0.0736 -0.0438 -0.0517
30421W        W73338   5.598  24.468  24.018  0.1751  0.0188 -0.1453
30422W        W73339   5.810  20.779  22.687 -0.1572 -0.1158  0.0587
30423W        W73340   7.218  23.771  23.415 -0.2560  0.0517 -0.0498
30424W        W73341   5.217  25.038  23.491 -0.1766  0.0934 -0.1575
30425W        W73342   6.729  23.526  21.778 -0.5008 -0.0550 -0.3159
30426W        W73343   5.837  24.565  23.567  0.1411 -0.0919  0.1385
30427W        W73344   5.352  22.641  22.307 -0.1084  0.0382  0.0297
30428W        W73345   8.906  26.689  21.316  0.1279  0.3354 -0.0920
30429W        W73346   6.183  24.584  23.181 -0.0627  0.1379  0.3279
30430W        W73347   6.694  25.320  18.815  0.0717  0.0349 -0.0248
30431W        W73348   4.196  23.612  23.672 -0.0041  0.2156 -0.1597
30432W        W73349   5.193  25.439  22.006  0.0699  0.0928  0.1393
30433W        W73350   6.180  24.278  20.883  0.0476 -0.3149 -0.3219
30434W        W73351   5.233  25.918  23.289 -0.4674  0.2618  0.2107
30435W        W73352   5.012  25.137  19.987  0.3663 -0.3667  0.0616
30436W        W73353   4.957  26.247  22.560  0.1276 -0.0046  0.2881
30437W        W73354   8.006  20.501  23.430 -0.2881  0.0003 -0.0781
30438W        W73355   8.346  25.033  20.468 -0.1979  0.1040  0.1689
30439W        W73356   6.866  21.437  23.204  0.1278  0.4096  0.0101
30440W        W73357   7.040  21.868  22.030 -0.0083 -0.0021  0.1607
30441W        W73358   7.192  24.790  19.817 -0.1703 -0.2925  0.0796
30442W        W73359   6.213  21.372  23.668 -0.1933  0.2124  0.1095
30443W        W73360   3.952  20.460  24.040 -0.0796  0.0268  0.0806
30444W        W73361   8.354  26.034  20.215  0.0752 -0.1571  0.0177
30445W        W73362   5.134  21.436  23.082 -0.4678 -0.1152 -0.3272
30446W        W73363   4.619  27.665  23.513 -0.3556  0.1173  0.4908
30447W        W73364   3.264  21.065  22.887 -0.0963 -0.0465 -0.0254
30448W        W73365   6.157  22.855  21.182  0.0663 -0.1329  0.1345
30449W        W73366   4.902  23.463  22.389  0.4371  0.2770 -0.0248
30450W        W73367   5.806  22.348  22.195 -0.0584  0.0496 -0.0351
30451W        W73368   6.891  25.189  23.283  0.1368 -0.2506 -0.2283
30452W        W73369   6.519  25.071  20.877  0.1203 -0.0211 -0.0512
30453W        W73370   6.919  23.762  20.741 -0.0347 -0.1708 -0.3635
30454W        W73371   3.930  24.743  24.677 -0.1414 -0.0920 -0.0715
30455W        W73372   8.770  24.945  21.200 -0.1442 -0.1661  0.1870
30456W        W73373   7.689  25.571  20.097  0.0363  0.2003 -0.1007
30457W        W73374   5.358  24.019  21.474 -0.0583 -0.0729 -0.5398
30458W        W73375   4.845  23.383  24.342 -0.0128  0.2460  0.1564
30459W        W73376   8.013  25.846  19.873  0.0608  0.3711 -0.5178
30460W        W73377   7.071  23.404  22.170  0.0871 -0.0072  0.0795
30461W        W73378   6.644  22.763  22.367 -0.0215  0.5162 -0.2757
30462W        W73379   5.182  22.485  22.794  0.0252 -0.0642 -0.0398
30463W        W73380   5.532  22.397  24.161 -0.0887  0.1281  0.3059
30464W        W73381   3.227  22.179  23.660 -0.2646 -0.1208 -0.0319
30465W        W73382   5.781  27.506  21.432  0.2451 -0.0437  0.3037
30466W        W73383   7.948  23.377  20.769 -0.0152 -0.0065  0.1544
30467W        W73384   7.500  23.180  22.030 -0.0981 -0.1998  0.2139
30468W        W73385   8.106  25.690  20.432 -0.1694  0.0247  0.1406
30469W        W73386   5.048  20.709  22.193  0.0618 -0.0045 -0.2018
30470W        W73387   6.329  22.447  22.610 -0.0073  0.0749 -0.1113
30471W        W73388   8.523  26.501  23.683  0.1227 -0.2310 -0.0842
30472W        W73389   6.668  22.559  20.554 -0.0504  0.2235  0.1132
30473W        W73390   6.605  22.649  23.988 -0.2546 -0.1191 -0.3859
30474W        W73391   5.965  25.369  20.778 -0.0300 -0.0791 -0.1109
30475W        W73392   7.278  27.257  20.531  0.2757 -0.1640 -0.0302
30476W        W73393   7.231  22.033  22.466  0.1935 -0.0864  0.2129
30477W        W73394   5.003  22.609  21.886  0.1857 -0.4027  0.0257
30478W        W73395   3.758  26.716  25.065 -0.0256 -0.0151  0.1605
30479W        W73396   3.643  20.316  19.163 -0.4086 -0.2319  0.0131
30480W        W73397   4.330  27.206  21.492 -0.1018  0.0810 -0.0725
30481W        W73398   6.794  25.928  20.747 -0.0295 -0.2628  0.1247
30482W        W73399   4.845  24.197  23.943 -0.2449 -0.1099  0.2714
30483W        W73400   4.935  24.066  22.496 -0.2056 -0.0784  0.1452
30484W        W73401   9.105  23.641  23.991 -0.1197  0.2629 -0.1601
30485W        W73402   6.480  24.392  21.281 -0.0742  0.0635  0.1366
30486W        W73403   6.961  24.023  20.297  0.1673 -0.2718 -0.1362
30487W        W73404   5.717  25.187  22.141 -0.1427 -0.1590 -0.2161
30488W        W73405   6.039  22.023  22.659 -0.0869 -0.0445  0.0572
30489W        W73406   5.634  26.848  18.695 -0.0016  0.1702  0.1237
30490W        W73407   6.509  21.765  21.946 -0.1225  0.1263  0.0477
30491W        W73408   8.162  24.377  20.891 -0.1433  0.1979 -0.3201
30492W        W73409   6.109  24.832  21.077  0.0175 -0.0751 -0.0274
30493W        W73410   8.405  22.947  22.282  0.0543  0.4961 -0.0234
30494W        W73411   7.455  26.257  22.576 -0.0580  0.1261  0.0930
30495W        W73412   5.724  23.434  21.619 -0.1925  0.1330  0.1101
30496W        W73413   6.152  26.952  21.826  0.0260  0.0452  0.2181
30497W        W73414   6.906  23.043  23.933 -0.2005  0.1077 -0.0251
30498W        W73415   5.119  25.342  22.566  0.1073  0.4306 -0.1943
30499W        W73416   5.404  23.064  26.080  0.2359 -0.0032 -0.0045
30500W        W73417   5.601  25.389  24.143 -0.0573  0.1837  0.0606
30501W        W73418   6.042  26.829  20.160 -0.4544  0.0311  0.0734
30502W        W73419   4.836  21.460  22.351  0.0677 -0.0755  0.2051
30503W        W73420   6.556  25.309  20.174  0.0149 -0.0164 -0.2204
30504W        W73421   3.939  25.385  22.888 -0.3874  0.0326 -0.1131
30505W        W73422   5.950  22.375  23.587 -0.2203 -0.1473  0.0313
30506W        W73423   5.532  27.912  21.761 -0.0148 -0.2829 -0.1632
30507W        W73424   8.319  25.371  19.900 -0.0061  0.0671 -0.0059
30508W        W73425   6.294  24.551  21.930  0.1050  0.0604  0.2743
30509W        W73426   5.847  25.871  21.685  0.1156 -0.0379  0.2546
30510W        W73427   4.615  24.589  21.794 -0.2114  0.1279  0.0568
30511W        W73428   3.059  25.261  24.220  0.2008  0.2303 -0.1591
30512W        W73429   5.832  24.550  20.331  0.3250 -0.4877  0.3461
30513W        W73430   5.820  24.426  19.715  0.0658 -0.0035 -0.0912
30514W        W73431   5.074  26.854  21.154 -0.0030 -0.1201 -0.0097
30515W        W73432   7.710  25.450  21.704  0.0225 -0.1062  0.1377
30516W        W73433   4.805  23.096  21.128 -0.0460  0.1640 -0.0140
30517W        W73434   7.258  25.534  23.020  0.0814 -0.1347 -0.0509
30518W        W73435   6.916  22.986  20.208  0.4013 -0.1005 -0.1939
30519W        W73436   7.606  24.307  22.736 -0.2795  0.1140  0.2065
30520W        W73437   4.564  22.315  23.993  0.1705 -0.0199  0.1794
30521W        W73438   6.689  24.864  19.857  0.2842  0.1209  0.1876
30522W        W73439   4.500  22.898  24.960 -0.0010 -0.0151  0.0637
30523W        W73440   7.788  22.238  24.549 -0.2763 -0.0591 -0.0545
30524W        W73441   4.202  26.096  22.793 -0.1949 -0.0080 -0.3350
30525W        W73442   9.986  24.595  19.941  0.0283 -0.1279  0.0274
30526W        W73443   3.986  22.483  21.746 -0.1393 -0.1684  0.0836
30527W        W73444   5.720  25.850  23.044 -0.1189  0.0531 -0.1098
30528W        W73445   6.437  23.582  24.503 -0.0358  0.4699  0.2013
30529W        W73446   6.529  26.524  19.945  0.0739 -0.0054  0.0493
30530W        W73447   7.922  22.810  21.753 -0.0238 -0.0234 -0.0770
30531W        W73448   6.958  25.563  18.385  0.0784  0.0389 -0.1326
30532W        W73449   5.250  25.532  21.349  0.0014  0.1529 -0.2375
30533W        W73450   6.246  26.483  22.331 -0.2059 -0.0361  0.3892
30534W        W73451   4.277  23.335  21.064 -0.0667  0.0508  0.0035
30535W        W73452   8.488  20.772  21.041 -0.0369  0.3197 -0.2125
30536W        W73453   5.796  23.913  22.459 -0.2036 -0.1489 -0.1615
30537W        W73454   4.884  22.925  22.447 -0.5215  0.2558  0.2498
30538W        W73455   4.420  22.903  23.101  0.0336 -0.0474 -0.1270
30539W        W73456   8.640  24.134  21.692 -0.3125 -0.1593  0.0190
30540W        W73457   4.003  25.745  22.501  0.1400  0.0293 -0.3508
30541W        W73458   6.244  21.126  23.148 -0.1278 -0.0239 -0.0138
30542W        W73459   6.039  21.554  21.936  0.2845 -0.0834  0.0358
30543W        W73460   8.162  26.074  21.923  0.2172 -0.1405  0.2627
30544W        W73461   6.913  22.245  22.858  0.2989 -0.1756  0.2258
30545W        W73462   7.283  26.840  23.325  0.1673 -0.3339 -0.2828
30546W        W73463   6.715  24.570  20.856  0.1665  0.0794  0.0773
30547W        W73464   6.419  21.028  20.855 -0.0347 -0.1931  0.2824
30548W        W73465   3.912  21.477  23.769 -0.0267 -0.1273  0.2493
30549W        W73466   6.349  22.956  25.485 -0.0326 -0.1358 -0.0214
30550W        W73467   7.371  25.450  21.331  0.0583  0.0755  0.1652
30551W        W73468   3.320  22.553  23.298  0.1325  0.0948  0.0193
30552W        W73469   8.138  24.682  17.711  0.0294 -0.1440  0.4121
30553W        W73470   6.940  21.936  23.241 -0.2020  0.2332 -0.1118
30554W        W73471   3.949  25.640  21.998  0.0605  0.1967 -0.3579
30555W        W73472   7.244  25.978  18.616  0.1994  0.0050 -0.0389
30556W        W73473   6.567  25.535  21.011  0.1430  0.1323 -0.1694
30557W        W73474   4.528  21.900  23.071  0.2968 -0.1211 -0.1259
30558W        W73475   7.530  26.777  21.667 -0.0151  0.0127 -0.0332
30559W        W73476   6.576  25.229  22.011 -0.2615  0.2451 -0.0023
30560W        W73477   6.022  19.726  22.497  0.0903 -0.1546  0.2402
30561W        W73478   6.147  25.179  20.375  0.0034  0.1364  0.2182
30562W        W73479   5.375  25.417  23.076 -0.2308  0.4100  0.3606
30563W        W73480   5.614  26.473  21.648  0.3085  0.0609 -0.0909
30564W        W73481   6.567  23.563  23.540 -0.0481 -0.3601 -0.1572
30565W        W73482   5.933  26.252  21.210 -0.1126  0.1707 -0.2017
30566W        W73483   6.346  21.992  25.601 -0.0208  0.0536 -0.2392
30567W        W73484   6.844  25.581  23.725 -0.3133 -0.5034  0.0663
30568W        W73485   4.525  25.802  23.914  0.2493  0.1534  0.3806
30569W        W73486   6.306  24.074  19.912 -0.0061 -0.1214  0.1040
30570W        W73487   4.129  26.380  23.751  0.1588  0.0075 -0.1418
30571W        W73488   7.877  24.794  20.708 -0.2067  0.1765  0.0404
30572W        W73489   6.444  26.286  18.816 -0.0699 -0.0712 -0.1394
30573W        W73490   8.916  25.736  22.517 -0.0827  0.1086 -0.0583
30574W        W73491   5.747  24.218  21.189 -0.0655 -0.0863  0.0299
30575W        W73492   8.052  26.178  22.788 -0.0043 -0.0964  0.2211
30576W        W73493   6.362  24.078  22.308 -0.0311  0.4134 -0.3021
30577W        W73494   5.005  19.789  20.835  0.0109  0.0108 -0.4086
30578W        W73495   8.328  22.235  20.856  0.0570  0.0375 -0.2138
30579W        W73496   3.462  22.261  24.559 -0.0175  0.1927  0.0919
30580W        W73497   4.107  24.927  21.386  0.0644  0.4750  0.0862
30581W        W73498   5.726  23.396  19.852 -0.0411  0.0175  0.2946
30582W        W73499   4.589  24.817  24.054  0.0801 -0.0074  0.2110
30583W        W73500   5.744  21.192  26.263  0.3766 -0.1336 -0.2371
30584W        W73501   2.398  21.046  24.531 -0.0275  0.2936 -0.0622
30585W        W73502   4.729  24.739  23.104  0.2397 -0.3586 -0.3854
30586W        W73503   7.163  23.417  19.763 -0.1039 -0.1378  0.0356
30587W        W73504   6.485  25.632  18.474 -0.1631  0.0094 -0.1164
30588W        W73505   5.704  22.435  22.662  0.3439 -0.0479  0.2206
30589W        W73506   5.831  23.886  21.550 -0.1062 -0.0386 -0.0680
30590W        W73507   7.325  25.500  19.621 -0.0073 -0.2302 -0.2208
30591W        W73508   6.314  24.664  19.451  0.1582  0.0065  0.2046
30592W        W73509   4.325  23.813  21.201 -0.3459 -0.0560  0.2559
30593W        W73510   7.632  25.704  22.602 -0.1223 -0.0715 -0.0342
30594W        W73511   6.244  24.627  20.010 -0.0059  0.1571 -0.0060
30595W        W73512   6.263  23.542  21.665  0.2482 -0.1816  0.1392
30596W        W73513   5.519  23.529  22.936  0.2975 -0.1223 -0.1498
30597W        W73514   4.019  21.664  21.161 -0.0458  0.0934  0.2877
30598W        W73515   5.153  23.050  21.706  0.1130  0.0321  0.2841
30599W        W73516   5.151  24.492  21.840 -0.3260 -0.0515 -0.0310
30600W        W73517   6.148  26.219  19.665 -0.0699  0.0398 -0.2163
30601W        W73518   5.970  23.444  24.678 -0.1251  0.0628  0.0102
30602W        W73519   6.126  25.521  22.011 -0.3546 -0.1690  0.1518
30603W        W73520   3.950  21.066  23.470  0.1805 -0.1133  0.2833
30604W        W73521   6.536  24.317  20.312  0.0387  0.1960 -0.1958
30605W        W73522   4.488  25.289  24.012  0.1437 -0.3190  0.2388
30606W        W73523   6.419  25.648  17.772  0.2742  0.0721  0.0533
30607W        W73524   9.388  22.164  21.581  0.1429  0.1218 -0.0560
30608W        W73525   5.891  22.830  22.367  0.1537 -0.2324  0.0962
30609W        W73526   5.046  21.467  24.196 -0.0392 -0.1444  0.2282
30610W        W73527   4.285  24.532  23.606 -0.0209 -0.1979 -0.0046
30611W        W73528   7.811  26.599  22.587  0.1064  0.1297  0.2817
30612W        W73529   4.125  21.987  23.397 -0.2277  0.0160  0.0057
30613W        W73530   7.091  24.534  20.363  0.2045 -0.3504 -0.1144
30614W        W73531   4.632  26.742  23.220 -0.1500 -0.2177 -0.0534
30615W        W73532   4.681  23.247  23.478  0.0055 -0.2259 -0.2086
30616W        W73533   6.568  23.463  21.278  0.4910  0.1061 -0.3719
30617W        W73534   4.080  23.072  25.555 -0.1120  0.0897  0.1635
30618W        W73535   5.077  25.526  23.516  0.1488  0.1597 -0.0435
30619W        W73536   5.982  25.614  23.913  0.1944 -0.3140 -0.0057
30620W        W73537   6.081  24.131  20.377 -0.2868 -0.1006  0.2124
30621W        W73538   6.018  24.090  22.981  0.0886 -0.2129 -0.0935
30622W        W73539   5.771  26.471  24.404  0.0960 -0.1317 -0.0101
30623W        W73540   6.410  25.138  25.118  0.0193  0.2089 -0.0457
30624W        W73541   5.036  27.156  22.721  0.0755  0.0052  0.0375
30625W        W73542   6.826  25.427  20.541 -0.0543 -0.1022  0.4826
30626W        W73543   6.437  23.070  23.342  0.0827 -0.2000 -0.0578
30627W        W73544   5.266  24.217  21.029 -0.1417  0.0341 -0.1309
30628W        W73545   5.589  23.772  23.367 -0.0020  0.0775 -0.1446
30629W        W73546   6.772  24.408  21.763 -0.1317 -0.0164  0.3147
30630W        W73547   5.756  22.622  21.789  0.1383  0.1792  0.1295
30631W        W73548   6.589  23.591  22.222  0.2235 -0.0584 -0.4403
30632W        W73549   6.892  25.042  23.782 -0.0609 -0.2594 -0.0109
30633W        W73550   4.942  24.658  25.026 -0.0246  0.1409  0.1662
30634W        W73551   3.574  25.381  25.555 -0.0290  0.1258  0.0752
30635W        W73552   4.579  22.240  24.563 -0.1205 -0.1268 -0.4506
30636W        W73553   5.535  23.281  23.473 -0.1140 -0.1764  0.1788
30637W        W73554   7.909  23.082  24.722  0.2342  0.0732 -0.0920
30638W        W73555   2.875  21.439  24.419 -0.0169 -0.0917  0.1670
30639W        W73556   6.155  26.050  24.455  0.1482  0.0036 -0.0114
30640W        W73557   5.612  21.766  24.861  0.1406 -0.2688 -0.0402
30641W        W73558   6.372  23.621  26.018  0.1143 -0.0861 -0.0499
30642W        W73559   6.344  26.012  26.314 -0.2150 -0.1521 -0.1849
30643W        W73560   6.872  24.514  24.641 -0.0354  0.1065  0.2199
30644W        W73561   7.057  23.912  27.629  0.0279  0.0041  0.1355
30645W        W73562   6.183  25.503  25.287 -0.0231 -0.1636 -0.0380
30646W        W73563   7.196  21.068  23.453 -0.1413 -0.0692  0.1126
30647W        W73564   2.361  22.382  26.876  0.0849  0.3600  0.0226
30648W        W73565   6.829  23.615  26.978  0.0736  0.0272  0.0797
30649W        W73566   4.810  22.764  24.290  0.0401  0.1796  0.1653
30650W        W73567   4.359  24.163  27.741 -0.2168 -0.2190  0.0072
30651W        W73568   4.878  25.499  24.336  0.1099  0.0303  0.2270
30652W        W73569   6.966  25.455  25.432 -0.0992  0.1366  0.1470
30653W        W73570   5.634  22.399  26.602  0.1346  0.0690 -0.0945
30654W        W73571   6.517  21.774  26.540 -0.3783 -0.0478 -0.0181
30655W        W73572   4.088  26.250  25.762 -0.0192  0.1857 -0.2537
30656W        W73573   4.933  24.544  22.327  0.1665  0.0111 -0.3451
30657W        W73574   3.513  23.096  26.181  0.1025 -0.0271  0.0441
30658W        W73575   3.689  20.665  25.851  0.0076 -0.1009 -0.0493
30659W        W73576   7.578  22.203  27.469  0.1944  0.0260  0.0473
30660W        W73577   6.852  24.444  27.228 -0.3564 -0.0775 -0.0197
30661W        W73578   5.834  25.661  24.906 -0.0734 -0.0927  0.0146
30662W        W73579   5.389  25.786  24.963  0.0101  0.1100 -0.1696
30663W        W73580   8.469  23.226  27.213 -0.0089  0.2622 -0.4248
30664W        W73581   3.165  24.399  26.498 -0.1797 -0.1116 -0.3098
30665W        W73582   2.772  24.977  24.518 -0.2373 -0.2488 -0.0373
30666W        W73583   3.914  24.247  24.815  0.1773 -0.1510  0.1177
30667W        W73584   7.171  24.107  24.714 -0.0193 -0.0094 -0.0815
30668W        W73585   7.666  24.836  27.703  0.0802 -0.1680 -0.1829
30669W        W73586   3.758  26.378  28.226  0.1072  0.0927 -0.1605
30670W        W73587   5.101  25.786  22.669 -0.1429  0.1461 -0.0429
30671W        W73588   6.498  23.340  27.883 -0.0082  0.0094 -0.0615
30672W        W73589   6.675  26.906  27.954  0.2667  0.2966  0.3941
30673W        W73590   5.264  23.284  27.751  0.1956 -0.1067 -0.1356
30674W        W73591   5.823  22.271  25.105  0.2726  0.2301  0.0606
30675W        W73592   6.056  22.625  26.731 -0.0441  0.0827  0.2377
30676W        W73593   5.545  25.100  25.609  0.1044  0.2577  0.1989
30677W        W73594   6.106  24.613  26.356 -0.2554  0.1640 -0.0471
30678W        W73595   2.036  24.592  26.430  0.2154  0.1928 -0.1663
30679W        W73596   8.939  21.743  27.193 -0.1971  0.1725  0.0275
30680W        W73597   4.886  25.795  25.834 -0.0712 -0.0952 -0.1244
30681W        W73598   6.839  22.021  25.715  0.0320 -0.0194  0.1563
30682W        W73599   5.465  22.264  24.751  0.1257  0.1988  0.1670
30683W        W73600   7.882  22.084  22.856 -0.0488 -0.0973  0.0101
30684W        W73601   3.748  21.898  26.409  0.0585 -0.0916 -0.1290
30685W        W73602   4.766  25.418  26.133  0.0093  0.0714 -0.2512
30686W        W73603   4.120  23.522  24.577 -0.1314 -0.2572  0.0734
30687W        W73604   7.314  22.299  26.445 -0.0033 -0.2247  0.1555
30688W        W73605   5.075  26.169  24.620  0.1378 -0.0346 -0.0669
30689W        W73606   7.010  24.341  25.142 -0.1971  0.0984 -0.0070
30690W        W73607   3.816  23.855  25.988 -0.3930 -0.1189  0.0768
30691W        W73608   3.698  21.677  25.816  0.2550  0.1890  0.1579
30692W        W73609   6.177  26.080  23.188 -0.2495 -0.0147 -0.0533
30693W        W73610   6.953  24.865  24.299 -0.1888 -0.2055 -0.2632
30694W        W73611   4.156  27.869  25.240 -0.0430  0.0128 -0.3007
30695W        W73612   3.071  22.383  25.519 -0.1900  0.0764 -0.0859
30696W        W73613   2.846  23.488  27.285  0.0979 -0.0356 -0.1871
30697W        W73614   2.360  20.698  26.373  0.2078 -0.0457 -0.3048
30698W        W73615   4.210  20.719  25.815 -0.2968 -0.1244  0.3432
30699W        W73616   5.757  24.572  27.582  0.1419 -0.0629  0.0258
30700W        W73617   5.195  22.644  26.563  0.1617 -0.2086 -0.2238
30701W        W73618   6.293  22.228  25.210  0.1186 -0.2040  0.2085
30702W        W73619   4.175  25.435  27.260  0.1713  0.0784 -0.0524
30703W        W73620   5.371  24.237  26.903 -0.0393 -0.1339 -0.1477
30704W        W73621   7.021  27.111  23.725  0.1301 -0.1232 -0.1713
30705W        W73622   6.959  22.430  28.042 -0.2393 -0.0393  0.1135
30706W        W73623   4.326  21.803  25.779  0.0808 -0.1655  0.1454
30707W        W73624   2.644  24.186  24.197  0.2640 -0.1475  0.0769
30708W        W73625   5.378  26.177  24.198  0.5174 -0.2298 -0.2247
30709W        W73626   5.956  24.401  25.750  0.0086 -0.0354  0.0479
30710W        W73627   5.711  23.306  22.140 -0.3935 -0.4376  0.0080
30711W        W73628   5.013  22.964  25.613 -0.3998  0.0292 -0.1360
30712W        W73629   5.512  22.531  26.041 -0.0539 -0.0499 -0.3213
30713W        W73630   6.506  25.028  27.140  0.0353 -0.1089  0.2558
30714W        W73631   3.713  23.463  24.878 -0.0759  0.2293 -0.0653
30715W        W73632   4.296  24.535  25.585  0.1429  0.1349  0.1579
30716W        W73633   3.285  24.839  24.621  0.0232  0.0267  0.0914
30717W        W73634   2.379  22.118  24.755 -0.1924 -0.2229  0.3095
30718W        W73635   4.947  23.018  26.887 -0.0764  0.0857 -0.1186
30719W        W73636   8.571  23.859  24.098  0.0297  0.0160  0.2671
30720W        W73637   4.189  22.553  27.504  0.1045 -0.5196 -0.0361
30721W        W73638   7.177  20.572  26.735  0.0691 -0.1889 -0.1495
30722W        W73639   5.342  24.113  23.691 -0.2249  0.0305  0.0606
30723W        W73640   6.073  26.284  23.633  0.1349  0.0471  0.0274
30724W        W73641   8.029  23.639  26.450 -0.0019 -0.1169  0.2097
30725W        W73642   6.007  25.925  22.563  0.0756 -0.1221  0.0825
30726W        W73643   4.082  24.639  26.435  0.2095  0.2954 -0.1037
30727W        W73644   4.646  22.727  23.546 -0.1405 -0.1956  0.2288
30728W        W73645   4.904  22.006  26.954  0.1198 -0.1152 -0.1569
30729W        W73646   3.635  23.913  27.127 -0.0719  0.1406 -0.2982
30730W        W73647   7.434  22.547  27.184  0.2473 -0.1696  0.1773
30731W        W73648   3.338  21.073  25.539  0.3055  0.2668 -0.1169
30732W        W73649   4.946  24.084  24.435 -0.0343 -0.2704 -0.0397
30733W        W73650   4.572  23.399  25.914 -0.0572  0.1126  0.1414
30734W        W73651   4.435  21.835  23.702 -0.2442 -0.5417 -0.2020
30735W        W73652   5.439  20.697  27.101  0.3797 -0.0626 -0.0059
30736W        W73653   4.414  26.152  25.396  0.2196 -0.2317  0.1382
30737W        W73654   7.059  25.454  26.366  0.2233 -0.1101 -0.2127
30738W        W73655   6.546  26.911  26.656  0.0116 -0.0203  0.3382
30739W        W73656   5.787  23.270  27.864 -0.2833 -0.0448  0.1682
30740W        W73657   3.866  22.788  23.815  0.1052  0.4256  0.0493
30741W        W73658   3.966  28.259  24.675 -0.2321  0.3145 -0.2078
30742W        W73659   6.733  27.040  24.426  0.2037 -0.1715 -0.1484
30743W        W73660   7.165  24.368  24.237 -0.0320 -0.0849  0.0064
30744W        W73661   6.915  26.054  23.686 -0.0817 -0.0731  0.4120
30745W        W73662   4.587  24.901  25.340 -0.1174  0.1118 -0.1347
30746W        W73663   4.182  22.580  25.660 -0.0914  0.3336  0.0575
30747W        W73664   5.633  22.474  28.495  0.4047  0.3720 -0.1707
30748W        W73665   7.938  22.312  27.133  0.0934  0.0403  0.3142
30749W        W73666   6.845  25.836  25.971 -0.0519  0.1861  0.0079
30750W        W73667   5.062  22.317  24.345 -0.2224  0.0583 -0.3703
30751W        W73668   5.294  25.130  26.566  0.1935 -0.1603 -0.0449
30752W        W73669   5.097  26.195  26.098 -0.0833  0.0220  0.1110
30753W        W73670   2.532  23.578  23.885  0.1041 -0.2270 -0.1215
30754W        W73671   4.559  23.810  24.267  0.1564  0.1897  0.0138
30755W        W73672   7.762  22.905  28.366 -0.1780 -0.0128  0.0164
30756W        W73673   2.268  24.247  27.438 -0.2598  0.1271  0.0552
30757W        W73674   6.235  23.851  26.497  0.3677 -0.0520 -0.0020
30758W        W73675   4.451  22.372  25.022  0.0086  0.0179 -0.0731
30759W        W73676   3.744  23.289  27.448  0.0875 -0.0643  0.1095
30760W        W73677   6.405  24.743  27.689 -0.1579  0.0697  0.2066
30761W        W73678   5.461  22.839  23.124  0.3549 -0.2780  0.2143
30762W        W73679   5.426  21.520  27.286  0.1321  0.5064 -0.0528
30763W        W73680   7.482  24.610  23.282 -0.0532  0.0827 -0.0421
30764W        W73681   7.194  22.568  23.858  0.2129  0.0223  0.2900
30765W        W73682   8.478  23.259  22.635  0.1277  0.3069  0.0348
30766W        W73683   4.454  25.297  25.734  0.0195  0.0520 -0.0871
30767W        W73684   5.586  24.402  26.156 -0.0811 -0.0962 -0.2802
30768W        W73685   5.769  24.145  26.566  0.2484  0.1049  0.1609
30769W        W73686   6.326  22.124  26.177  0.1180  0.0816 -0.3505
30770W        W73687   5.860  22.902  24.606 -0.2958 -0.1033 -0.0380
30771W        W73688   5.073  24.989  25.405  0.1221 -0.0573  0.0317
30772W        W73689   6.119  22.197  27.046 -0.0575 -0.1789 -0.1158
30773W        W73690   5.589  24.682  26.655  0.3395  0.2532  0.0237
30774W        W73691   4.485  25.069  26.829 -0.0152 -0.0768  0.2305
30775W        W73692   7.203  22.314  23.448  0.0024  0.2980  0.4079
30776W        W73693   5.869  23.110  24.110 -0.3415  0.0102  0.0320
30777W        W73694   5.391  25.022  21.806  0.2938  0.2279 -0.1858
30778W        W73695   6.430  22.686  26.207  0.0711 -0.0753 -0.1426
30779W        W73696   3.476  20.956  24.905  0.0100 -0.1059  0.4403
30780W        W73697   6.882  21.455  26.460  0.1637 -0.1919 -0.0492
30781W        W73698   9.148  22.898  26.526  0.2014  0.0326  0.4397
30782W        W73699   6.397  25.851  23.721 -0.0289  0.1825  0.0356
30783W        W73700   7.070  23.901  24.268  0.2212  0.2974  0.1831
30784W        W73701   5.092  22.655  25.208 -0.0042  0.0863  0.0499
30785W        W73702   4.988  22.471  26.135  0.0560 -0.0175  0.2853
30786W        W73703   5.851  23.789  27.426  0.0545 -0.1827 -0.2501
30787W        W73704   5.705  23.611  25.225  0.1862  0.0470 -0.1742
30788W        W73705   5.601  23.793  26.932 -0.1836  0.1673 -0.2117
30789W        W73706   4.937  24.123  25.029  0.2219 -0.0103  0.0073
30790W        W73707   6.272  21.739  26.978  0.0408 -0.0021 -0.0674
30791W        W73708   6.624  23.507  26.461  0.2091 -0.1852  0.3333
30792W        W73709   4.385  25.779  25.071  0.2081  0.1987  0.1093
30793W        W73710   6.785  26.878  23.370  0.3429  0.1529  0.1134
30794W        W73711   4.763  23.837  26.331  0.2713  0.4835 -0.1578
30795W        W73712   6.244  23.716  26.981 -0.2749 -0.1677 -0.2543
30796W        W73713   3.880  24.271  24.289 -0.3795 -0.1013  0.3183
30797W        W73714   8.184  24.270  26.410 -0.3594 -0.2100 -0.2267
30798W        W73715   3.571  24.626  24.989 -0.0764 -0.0097  0.2448
30799W        W73716   8.553  20.659  26.332  0.0098  0.0635  0.0167
30800W        W73717   4.300  25.305  26.332 -0.1624  0.0068 -0.4169
30801W        W73718   5.155  23.684  24.661  0.0129  0.1616 -0.1417
30802W        W73719   3.937  22.772  26.069  0.0108 -0.0311  0.1841
30803W        W73720   6.549  21.344  26.840 -0.0810 -0.0240  0.1720
30804W        W73721   5.235  24.408  24.741  0.2717 -0.2947 -0.0281
30805W        W73722   5.218  22.151  26.456  0.2785  0.2409 -0.0614
30806W        W73723   7.077  21.850  26.664 -0.3324 -0.0113 -0.4242
30807W        W73724   4.826  24.879  25.799  0.1661  0.1360 -0.1016
30808W        W73725   6.673  23.085  26.276  0.1366 -0.0051  0.2122
30809W        W73726   7.797  24.282  24.586 -0.1347 -0.4514 -0.0822
30810W        W73727   6.657  24.674  26.810 -0.1802  0.1254 -0.0216
30811W        W73728   5.068  22.556  28.483  0.1699  0.4798 -0.0366
30812W        W73729   2.698  21.063  22.724  0.3424  0.3120  0.3459
30813W        W73730   7.598  23.559  26.179  0.0920 -0.1298 -0.3014
30814W        W73731   3.020  23.744  24.826  0.1998  0.2399 -0.2826
30815W        W73732   3.927  24.116  27.537  0.0084  0.2673  0.1015
30816W        W73733   4.639  23.349  27.122 -0.1156 -0.0162 -0.1356
30817W        W73734   4.624  22.237  23.506 -0.0999 -0.0735 -0.1983
30818W        W73735   5.004  24.631  23.793  0.0146  0.0824  0.1365
30819W        W73736   7.259  23.052  27.237  0.0332 -0.0298 -0.2441
30820W        W73737   7.905  23.279  27.482 -0.3202 -0.0055 -0.0411
30821W        W73738   4.370  22.081  25.396  0.0245  0.1775  0.0239
30822W        W73739   2.634  23.738  25.135 -0.0249  0.0392 -0.1902
30823W        W73740   5.776  22.917  26.452  0.0718 -0.3143  0.1610
30824W        W73741   7.940  24.719  24.887  0.1052 -0.2167  0.1226
30825W        W73742   5.810  23.562  26.530 -0.0365  0.1585  0.1603
30826W        W73743   3.983  24.349  30.578 -0.1873 -0.2966  0.0786
30827W        W73744   5.449  22.097  25.784  0.1818  0.3567 -0.3520
30828W        W73745   5.486  27.352  24.023 -0.2492  0.0824  0.0628
30829W        W73746   4.365  23.211  28.118 -0.0103  0.1658  0.0047
30830W        W73747   4.306  22.675  24.531 -0.2921 -0.0204  0.0240
30831W        W73748   3.968  23.039  24.749 -0.2223 -0.1831  0.1458
30832W        W73749   5.932  22.690  25.389  0.1705  0.0518  0.0802
30833W        W73750   5.788  24.598  27.100  0.4410  0.1960  0.0303
30834W        W73751   5.955  23.933  26.117 -0.1647  0.0244  0.1934
30835W        W73752   5.882  25.667  24.395 -0.0651 -0.0370  0.1012
30836W        W73753   1.785  23.986  27.301  0.1381 -0.1212  0.0743
30837W        W73754   7.938  21.802  23.678  0.0278 -0.3203 -0.2319
30838W        W73755   5.166  24.915  22.833 -0.0537  0.2422  0.0010
30839W        W73756   4.533  22.298  25.805  0.0830  0.2771  0.0900
30840W        W73757   9.774  23.923  26.672 -0.4113  0.1993 -0.0291
30841W        W73758   4.587  23.198  25.410 -0.0203 -0.1622 -0.1172
30842W        W73759   4.175  22.548  26.860 -0.1988  0.1037 -0.0948
30843W        W73760   5.004  19.957  26.456 -0.2203  0.2331  0.0652
30844W        W73761   6.479  24.870  24.053 -0.0195  0.1000 -0.1027
30845W        W73762   2.639  23.587  26.809 -0.0530 -0.1283  0.0129
30846W        W73763   7.371  24.569  26.868 -0.0661 -0.0919 -0.3514
30847W        W73764   3.578  22.896  27.094  0.0399 -0.0399 -0.0870
30848W        W73765   5.510  24.918  23.863  0.1000  0.0700  0.0226
30849W        W73766   4.916  19.562  25.129 -0.1644  0.0001 -0.1378
30850W        W73767   5.847  24.032  24.057 -0.1535 -0.0977 -0.2212
30851W        W73768   6.598  25.587  23.330 -0.3109  0.1216  0.1060
30852W        W73769   5.123  24.396  22.810  0.1494  0.0643  0.1995
30853W        W73770   7.583  24.245  25.103 -0.1517 -0.2262 -0.0913
30854W        W73771   3.442  22.547  26.325  0.2039  0.0386 -0.0478
30855W        W73772   5.841  23.423  26.019 -0.1888  0.1449 -0.1123
30856W        W73773   6.083  24.775  25.016  0.1378  0.1340 -0.2999
30857W        W73774   5.161  23.034  24.801 -0.0397  0.0448  0.3116
30858W        W73775   4.942  21.954  26.003  0.1266  0.0535  0.0204
30859W        W73776   6.399  25.700  24.219 -0.1542  0.0105 -0.1457
30860W        W73777   5.988  21.704  25.198  0.3921  0.3269  0.2162
30861W        W73778   6.132  22.917  27.218  0.0763 -0.0780 -0.0179
30862W        W73779   7.475  21.127  25.656 -0.1820  0.0653 -0.4115
30863W        W73780   4.512  22.793  27.200 -0.3223  0.3358  0.0212
30864W        W73781   4.660  23.820  26.945 -0.2790 -0.3332  0.3499
30865W        W73782   6.503  25.240  25.633 -0.0408 -0.2304  0.1198
30866W        W73783   4.092  25.689  25.634 -0.0651  0.1638 -0.1990
30867W        W73784   7.262  21.654  25.814 -0.2027 -0.1427 -0.0638
30868W        W73785   6.821  24.376  25.654 -0.0064 -0.1969 -0.1479
30869W        W73786   6.368  24.008  23.856  0.0511 -0.0300  0.1516
30870W        W73787   3.615  22.471  26.805  0.0583  0.2228  0.0889
30871W        W73788   5.550  23.418  27.405 -0.0807 -0.1827 -0.0529
30872W        W73789   6.890  22.798  23.518  0.1298  0.1380  0.1618
30873W        W73790   5.208  22.022  27.337  0.0454 -0.0775  0.0625
30874W        W73791   4.619  25.975  24.426  0.1832 -0.0575 -0.2577
30875W        W73792   4.668  24.555  24.500  0.1518 -0.0015 -0.0061
30876W        W73793   6.001  24.173  27.048 -0.3363 -0.0638 -0.1041
30877W        W73794   2.358  22.079  23.276 -0.2099  0.1332 -0.1463
30878W        W73795   4.817  25.364  28.023  0.0027 -0.0018  0.2768
30879W        W73796   5.909  22.384  24.528  0.1226  0.0609  0.1174
30880W        W73797   6.539  24.914  23.396 -0.2992 -0.0885 -0.0306
30881W        W73798   6.501  24.838  24.518 -0.1061 -0.4614 -0.0814
30882W        W73799   8.059  24.159  27.651 -0.1849 -0.0020  0.1618
30883W        W73800   5.536  22.732  25.011  0.1644  0.1101 -0.5237
30884W        W73801   7.872  21.823  27.215  0.1138 -0.0074  0.1225
30885W        W73802   3.949  25.075  26.774 -0.2043 -0.0838  0.2307
30886W        W73803   3.363  21.850  26.113  0.2406  0.1980  0.0157
30887W        W73804   6.207  25.447  26.724  0.3363  0.1636  0.2629
30888W        W73805   1.613  23.369  25.266  0.1628 -0.1714  0.0732
30889W        W73806   5.088  23.951  25.464 -0.4299 -0.0354 -0.0357
30890W        W73807   5.382  21.728  26.098 -0.0040  0.0361  0.4246
30891W        W73808   6.778  23.913  26.092  0.2050 -0.1008  0.3217
30892W        W73809   7.668  24.230  26.640 -0.1214 -0.0583 -0.1400
30893W        W73810   8.478  21.065  28.187  0.0894 -0.3627 -0.0114
30894W        W73811   7.894  23.491  26.956  0.0332  0.0622  0.0600
30895W        W73812   5.004  22.413  25.638  0.3856  0.2110  0.2910
30896W        W73813   5.299  23.806  27.754 -0.2426 -0.0931 -0.0461
30897W        W73814   5.347  23.111  25.285 -0.2328 -0.1397 -0.0028
30898W        W73815   4.874  22.958  26.325 -0.0118  0.3039 -0.0252
30899W        W73816   4.317  24.589  27.924  0.2303  0.1102 -0.0053
30900W        W73817   6.059  22.066  28.486  0.0339 -0.3362 -0.4024
30901W        W73818   5.178  24.420  25.843  0.0989 -0.2181  0.0566
30902W        W73819   4.814  21.512  24.681 -0.0630 -0.1253  0.0972
30903W        W73820   4.879  23.081  23.881 -0.0036  0.0005  0.1425
30904W        W73821   3.495  25.418  28.157  0.1307 -0.0976  0.0027
30905W        W73822   5.327  22.361  28.096 -0.1707  0.1046 -0.0571
30906W        W73823   4.559  25.028  27.293  0.2417  0.0162 -0.0271
30907W        W73824   5.545  23.610  24.371  0.2183 -0.1418 -0.0106
30908W        W73825   4.811  24.356  23.493  0.1967 -0.2402  0.1493
30909W        W73826   7.028  26.112  24.843 -0.2768  0.0736  0.0669
30910W        W73827   3.248  23.312  24.967 -0.0536 -0.0587 -0.3349
30911W        W73828   5.187  25.967  27.329 -0.0444 -0.3197  0.0772
30912W        W73829   4.768  23.730  23.218 -0.1054  0.2593  0.1479
30913W        W73830   5.621  26.315  23.316  0.1863 -0.1716 -0.2336
30914W        W73831   2.015  24.476  24.631  0.2409  0.0683 -0.2679
30915W        W73832   7.339  24.949  27.319  0.0712 -0.0310 -0.0535
30916W        W73833   5.721  23.643  23.784 -0.2473 -0.1167 -0.1705
30917W        W73834   7.114  22.950  25.356  0.0123  0.3617  0.1682
30918W        W73835   6.636  23.364  25.396 -0.1309 -0.2195 -0.0859
30919W        W73836   8.027  22.845  27.726  0.1291 -0.1372  0.1951
30920W        W73837   6.151  23.372  27.508  0.1313  0.3208  0.2853
30921W        W73838   4.762  23.309  24.916 -0.2834  0.0542 -0.1224
30922W        W73839   5.671  23.318  28.378 -0.0094  0.1058 -0.2561
30923W        W73840   7.258  22.147  24.942  0.2748  0.1569 -0.1894
30924W        W73841   4.255  26.359  27.884  0.0155  0.2448  0.0981
30925W        W73842   8.626  26.199  21.080 -0.1812  0.0249 -0.2940
30926W        W73843   2.043  22.632  22.133 -0.0965  0.0113 -0.0406
30927W        W73844   3.221  24.048  26.083 -0.1760 -0.2523  0.0806
30928W        W73845   8.214  21.707  28.802  0.0139  0.1092  0.1822
30929W        W73846   6.385  24.414  24.774  0.0823 -0.1207 -0.1787
30930W        W73847   7.602  22.581  26.154 -0.1044  0.2072  0.2719
30931W        W73848   4.767  25.388  25.337  0.2305 -0.4926 -0.0547
30932W        W73849   7.469  23.473  26.687  0.2841  0.2131 -0.1953
30933W        W73850   6.393  24.457  25.396 -0.1507 -0.0432 -0.4200
30934W        W73851   2.940  21.924  25.718  0.0892  0.3634  0.3440
30935W        W73852   8.311  24.423  25.099  0.2398  0.0268  0.1654
30936W        W73853   4.976  22.346  27.575  0.0685  0.0407 -0.0151
30937W        W73854   8.708  20.804  27.364  0.0654 -0.1711 -0.1342
30938W        W73855   4.530  22.847  25.892  0.0791  0.0483 -0.1094
30939W        W73856   6.753  22.914  25.785 -0.1809  0.3040 -0.5450
30940W        W73857   5.031  24.058  27.223 -0.0750  0.1223  0.2701
30941W        W73858   3.933  22.874  26.549  0.2196  0.1996  0.0395
30942W        W73859   6.646  25.644  25.060  0.0966  0.3117 -0.2104
30943W        W73860   8.188  23.067  26.788 -0.1884  0.1290 -0.0819
30944W        W73861   7.789  22.281  25.037 -0.1006  0.0645 -0.1787
30945W        W73862   5.842  24.816  25.987 -0.0613  0.0550 -0.1626
30946W        W73863   3.983  21.743  25.389 -0.1062  0.0253 -0.3327
30947W        W73864   5.219  23.595  25.127  0.0114 -0.0229 -0.1363
30948W        W73865   4.754  23.902  25.860  0.0323 -0.0325 -0.0158
30949W        W73866   5.438  24.903  24.401 -0.2060 -0.1684  0.1323
30950W        W73867   7.063  24.860  26.496  0.2165  0.1661  0.1492
30951W        W73868   4.135  20.304  25.445 -0.2919 -0.0708  0.0487
30952W        W73869   7.843  26.071  22.345 -0.2622  0.0976  0.2606
30953W        W73870   8.294  21.916  26.962 -0.2110  0.0205  0.3414
30954W        W73871   4.664  26.280  23.928 -0.1361  0.0394  0.2386
30955W        W73872   6.646  24.041  24.559 -0.1502  0.2744  0.1821
30956W        W73873   6.519  26.627  25.166  0.3184 -0.2342  0.0820
30957W        W73874   5.150  23.779  26.631 -0.0892 -0.0386  0.0996
30958W        W73875   7.816  25.839  26.740 -0.2048 -0.0492 -0.4807
30959W        W73876   7.193  25.328  23.993  0.2687  0.0029 -0.0664
30960W        W73877   7.676  22.404  25.533 -0.2004  0.1429  0.0763
30961W        W73878   3.982  21.940  24.592  0.0890  0.0193  0.2430
30962W        W73879   5.586  26.520  26.731  0.1051  0.1868  0.2569
30963W        W73880   7.849  22.400  27.909 -0.4457 -0.2062 -0.0360
30964W        W73881   6.316  24.519  27.218  0.0029  0.0203 -0.0464
30965W        W73882   5.888  26.638  20.849  0.0776  0.0137 -0.0157
30966W        W73883   7.394  21.060  27.670 -0.2638 -0.0748 -0.2917
30967W        W73884   5.756  25.165  25.155  0.0328 -0.0088 -0.2039
30968W        W73885   5.284  25.232  27.821  0.0598  0.1612 -0.2668
30969W        W73886   4.089  23.994  23.082  0.1579  0.1164 -0.1381
30970W        W73887   6.355  24.314  26.716 -0.0480  0.1769  0.1952
30971W        W73888   3.732  25.073  27.213  0.0664  0.0528 -0.2079
30972W        W73889   5.419  24.030  22.766 -0.2632  0.1759  0.0336
30973W        W73890   7.739  24.842  25.937 -0.0444  0.2263 -0.2118
30974W        W73891   6.002  25.369  25.784 -0.3840 -0.1367  0.0477
30975W        W73892   7.574  23.732  24.234 -0.1611 -0.1472 -0.0017
30976W        W73893   3.926  22.069  25.995  0.3225  0.0330  0.0605
30977W        W73894   7.878  21.393  25.329  0.1102  0.0728 -0.1006
30978W        W73895   8.245  21.888  25.350 -0.2859 -0.0597 -0.2855
30979W        W73896   5.119  24.202  26.291 -0.0435 -0.2465  0.2004
30980W        W73897   4.695  23.322  22.898  0.0331 -0.2607  0.0036
30981W        W73898   4.927  22.035  23.869  0.2720  0.2978  0.1526
30982W        W73899   5.246  25.295  24.616 -0.1110  0.1725 -0.2897
30983W        W73900   4.386  21.202  25.888  0.2423  0.1561  0.0153
30984W        W73901   3.803  23.492  26.422  0.2389 -0.0997  0.1422
30985W        W73902   6.156  21.945  24.784  0.4283 -0.2115 -0.0603
30986W        W73903   4.198  21.270  25.388  0.1084 -0.0203 -0.1308
30987W        W73904   6.882  24.550  23.775  0.1568 -0.3611 -0.2205
30988W        W73905   3.137  22.462  27.030  0.1679  0.0034  0.2767
30989W        W73906   3.557  22.583  25.807  0.0341 -0.1140  0.1194
30990W        W73907   5.328  25.755  24.464  0.1185 -0.2122 -0.1410
30991W        W73908   8.657  26.279  25.096 -0.1162 -0.0721 -0.0078
30992W        W73909   5.391  21.670  25.545 -0.1619 -0.0517 -0.0064
30993W        W73910   6.719  23.996  26.601  0.0179 -0.0170 -0.0771
30994W        W73911   5.139  24.020  23.224  0.2117 -0.0474 -0.0475
30995W        W73912   5.441  24.142  24.355 -0.0812  0.2908  0.2424
30996W        W73913   5.522  21.996  26.899 -0.0893  0.0537  0.0340
30997W        W73914   4.544  21.877  24.925  0.1134 -0.0242  0.0003
30998W        W73915   7.706  23.529  23.812  0.1297 -0.0509  0.1067
30999W        W73916   5.459  26.012  26.371 -0.0698 -0.2259 -0.1423
31000W        W73917   5.292  25.316  25.153 -0.0406  0.0931  0.1545
31001W        W73918   4.773  23.967  28.625 -0.1951  0.0605  0.0489
31002W        W73919   5.797  23.941  27.896 -0.1576 -0.0450  0.0706
31003W        W73920   4.354  22.068  26.782  0.1642 -0.2615 -0.0730
31004W        W73921   5.544  23.650  21.193  0.1362 -0.0683 -0.1222
31005W        W73922   4.610  25.651  27.497  0.2068 -0.0848  0.0275
31006W        W73923   7.456  27.304  23.427  0.0512 -0.2998 -0.1147
31007W        W73924   9.223  21.064  26.526  0.0416 -0.2509  0.1853
31008W        W73925   4.447  23.360  24.005  0.3532  0.1573  0.3306
31009W        W73926   4.105  21.557  26.724  0.3076  0.1241 -0.2485
31010W        W73927   4.837  24.934  26.285 -0.4225 -0.1616 -0.1057
31011W        W73928   6.125  23.420  25.565  0.2514 -0.1489  0.1046
31012W        W73929   3.058  20.730  25.809  0.0373  0.0174  0.1232
31013W        W73930   7.939  22.193  26.070 -0.0688  0.1277  0.1400
31014W        W73931   4.223  24.197  26.010  0.3527 -0.1394 -0.2507
31015W        W73932   4.611  22.678  25.390 -0.2753 -0.1515 -0.0511
31016W        W73933   7.891  21.185  26.771  0.0051  0.0413 -0.3050
31017W        W73934   5.514  23.884  26.053  0.0536  0.1023 -0.2015
31018W        W73935   6.281  24.033  25.589 -0.2113  0.0622 -0.2849
31019W        W73936   7.681  22.578  26.717 -0.1578  0.1527 -0.2930
31020W        W73937   3.947  22.151  25.097 -0.1714 -0.1097 -0.2778
31021W        W73938   5.422  24.221  25.200 -0.0615 -0.1028 -0.1245
31022W        W73939   5.641  26.581  25.134 -0.0321 -0.0842  0.1017
31023W        W73940   6.721  25.173  27.897  0.0746  0.2029  0.0145
31024W        W73941   4.461  25.733  28.015  0.2783  0.3881 -0.0821
31025W        W73942   6.641  24.719  25.044  0.2524  0.1894 -0.1014
31026W        W73943   3.987  21.099  26.237  0.0663  0.0079 -0.0811
31027W        W73944   2.622  23.308  24.915 -0.2417  0.0694 -0.0120
31028W        W73945   3.383  23.771  25.122  0.1588 -0.4758  0.0026
31029W        W73946   7.310  21.693  27.092  0.1348 -0.1447 -0.1889
31030W        W73947   3.189  21.279  25.135  0.1335 -0.2602 -0.1015
31031W        W73948   6.652  22.902  25.105  0.0413 -0.2944 -0.2377
31032W        W73949   5.539  25.740  27.895 -0.2537  0.4589 -0.2422
31033W        W73950   4.662  24.421  25.948  0.2911 -0.3423  0.1295
31034W        W73951   5.367  25.031  29.922 -0.0982  0.0563 -0.1103
31035W        W73952   5.147  21.419  27.736 -0.0783  0.0771 -0.2300
31036W        W73953   7.289  20.806  26.005 -0.1045  0.2377 -0.0069
31037W        W73954   8.813  23.957  26.872 -0.3635 -0.0474 -0.0510
31038W        W73955   4.640  23.958  28.073  0.3230 -0.2361 -0.2030
31039W        W73956   8.262  23.536  27.746  0.0995  0.1008 -0.2415
31040W        W73957   5.480  22.448  27.520 -0.3155 -0.1962  0.1641
31041W        W73958   7.220  26.671  29.365  0.1626 -0.3138 -0.3300
31042W        W73959   9.323  25.758  29.112  0.0314  0.2190 -0.0682
31043W        W73960   7.098  22.146  27.545  0.1328 -0.1191  0.0221
31044W        W73961   6.611  21.721  30.076  0.0481 -0.1347  0.3162
31045W        W73962   4.284  26.726  30.817  0.0525  0.0307  0.0564
31046W        W73963   6.394  22.054  28.870  0.2540 -0.0612 -0.0735
31047W        W73964   4.526  22.589  29.891 -0.1325  0.0332  0.2868
31048W        W73965   7.959  22.395  29.818 -0.0885 -0.0926  0.1091
31049W        W73966   4.956  23.051  28.239  0.4053 -0.0186  0.0945
31050W        W73967   5.406  21.694  29.502  0.0218 -0.1005 -0.0263
31051W        W73968   7.665  20.679  29.216  0.0368 -0.0595 -0.0288
31052W        W73969   3.843  24.437  27.959 -0.0815 -0.2789  0.0250
31053W        W73970   7.155  21.939  30.017  0.0085 -0.0152  0.0268
31054W        W73971   6.556  23.728  30.339 -0.1860 -0.0162  0.0411
31055W        W73972   7.647  23.915  29.039  0.1418  0.1865 -0.0098
31056W        W73973   3.440  23.388  27.932 -0.0383  0.0675  0.3226
31057W        W73974   4.184  22.808  29.505 -0.0952  0.1139 -0.0784
31058W        W73975   5.242  23.118  30.097 -0.0058 -0.0828 -0.1572
31059W        W73976   7.805  21.995  28.928 -0.2335  0.1485 -0.1392
31060W        W73977   7.225  22.992  31.337  0.0726  0.3472 -0.0617
31061W        W73978   5.075  25.644  27.744  0.1930  0.0365 -0.2330
31062W        W73979   5.885  22.677  29.380 -0.1488  0.0384 -0.1141
31063W        W73980   6.579  22.408  31.352  0.2196 -0.0664  0.0830
31064W        W73981   4.935  25.304  27.385  0.2374  0.1043 -0.3351
31065W        W73982   4.917  25.229  30.070 -0.0273  0.0777  0.0064
31066W        W73983   8.394  25.551  27.653  0.1771  0.2016  0.1338
31067W        W73984   7.521  23.194  28.695  0.1434 -0.0307 -0.0338
31068W        W73985   7.440  21.949  31.185  0.1144  0.4234 -0.1778
31069W        W73986   5.538  25.605  30.844 -0.1985  0.2416  0.1566
31070W        W73987   7.277  22.706  28.764 -0.0178  0.0672 -0.4569
31071W        W73988   6.043  24.529  31.842  0.0435  0.1217  0.1015
31072W        W73989   4.944  23.795  29.492  0.0089 -0.0115  0.1345
31073W        W73990   6.107  22.524  29.863 -0.3192 -0.3883 -0.1574
31074W        W73991   6.140  22.235  29.333 -0.4023 -0.5272  0.1638
31075W        W73992   4.331  26.363  27.289 -0.3560  0.2448 -0.1440
31076W        W73993   3.237  22.880  27.986  0.1642  0.1570  0.2079
31077W        W73994   5.433  22.515   0.294  0.3721 -0.0609 -0.0984
31078W        W73995   4.556  22.799  28.390 -0.2591  0.2290  0.2432
31079W        W73996   7.046  21.982   1.295  0.1056  0.1408  0.0755
31080W        W73997   4.153  24.953  27.571 -0.1807 -0.2651 -0.0487
31081W        W73998   7.471  23.207  24.485  0.2798  0.1481 -0.0353
31082W        W73999   4.253  24.125  30.205  0.0868 -0.2126  0.1471
31083W        W74000   8.301  21.934  27.994 -0.0002 -0.4327 -0.2881
31084W        W74001   7.678  22.299  28.419  0.1511  0.0419 -0.0165
31085W        W74002   6.387  24.483  29.103 -0.1575 -0.4374  0.0175
31086W        W74003   4.877  21.603  27.297  0.0131 -0.1094 -0.2650
31087W        W74004   8.353  23.523  30.780  0.0339 -0.1189 -0.3925
31088W        W74005   7.782  21.518  29.051  0.1602  0.0423  0.0735
31089W        W74006   6.634  22.410  29.909  0.1377  0.3173 -0.0516
31090W        W74007   3.612  24.119  29.183  0.3370 -0.3685  0.0765
31091W        W74008   4.076  23.171  27.101  0.1640  0.3085  0.1213
31092W        W74009   7.082  25.575  27.845 -0.5405 -0.1042  0.0946
31093W        W74010   6.312  22.489  28.528 -0.1135  0.1662  0.0539
31094W        W74011   4.322  24.133  27.165  0.2123  0.1053 -0.0299
31095W        W74012   3.211  25.510  27.733 -0.0221  0.4013 -0.3591
31096W        W74013   6.067  24.019  31.743  0.0060 -0.2617 -0.1202
31097W        W74014   4.839  21.719  30.766 -0.0322 -0.0451  0.1109
31098W        W74015   4.227  23.218  26.280 -0.1538  0.0312  0.0372
31099W        W74016   6.159  23.101   0.485 -0.1677 -0.1420  0.0814
31100W        W74017   4.355  26.102  31.391  0.2984  0.1711  0.0818
31101W        W74018   7.010  22.387  30.315  0.0776 -0.0849  0.1454
31102W        W74019   4.588  20.745  29.101  0.0872 -0.2119 -0.2769
31103W        W74020   5.730  23.113  29.209 -0.0145 -0.3885 -0.3695
31104W        W74021   6.736  23.311  28.359  0.1729 -0.3686  0.0239
31105W        W74022   6.800  22.951  31.574 -0.2016  0.3564 -0.0913
31106W        W74023   6.192  21.569  29.012  0.0274 -0.0433  0.1255
31107W        W74024   4.058  23.987  28.131  0.1109 -0.2820 -0.0103
31108W        W74025   6.883  22.477  29.449  0.0635  0.0390 -0.5724
31109W        W74026   8.980  22.506   0.622 -0.0839  0.0866  0.0833
31110W        W74027   7.404  23.281  28.214 -0.0761 -0.0617  0.2265
31111W        W74028   5.466  24.931  29.451 -0.1042  0.0959  0.0441
31112W        W74029   6.645  22.280  30.863  0.0372 -0.0351  0.0221
31113W        W74030   4.981  24.389  30.560 -0.2665 -0.2364  0.0349
31114W        W74031   6.711  26.171  27.771  0.1116 -0.3205  0.1864
31115W        W74032   4.441  21.614  29.559 -0.0500 -0.1802 -0.2507
31116W        W74033   4.680  24.500  28.734  0.1243 -0.0571  0.2077
31117W        W74034   4.301  22.233   0.046 -0.0002 -0.2485 -0.1252
31118W        W74035   4.169  24.467  29.700 -0.3594 -0.2048 -0.1511
31119W        W74036   7.535  21.562  30.260 -0.0238  0.2559 -0.2883
31120W        W74037   4.922  21.080  30.639 -0.1662  0.0460  0.0323
31121W        W74038   7.468  20.320  27.194 -0.1348 -0.1043  0.1641
31122W        W74039   4.405  24.084  26.603  0.2189  0.0397  0.1409
31123W        W74040   6.642  21.240  29.933  0.2069 -0.1552 -0.1610
31124W        W74041   8.447  21.710  29.418 -0.2520 -0.1757 -0.2290
31125W        W74042   6.846  24.833  27.493 -0.2795 -0.0239 -0.2213
31126W        W74043   4.887  25.107  29.353 -0.2705  0.2305  0.3207
31127W        W74044   5.261  24.500   0.407  0.5545 -0.0088 -0.2390
31128W        W74045   4.730  22.405   0.847 -0.4111 -0.0526  0.2109
31129W        W74046   4.926  22.771  31.332  0.2752  0.1616  0.1070
31130W        W74047   6.219  22.143  31.194  0.1721  0.1738  0.2331
31131W        W74048   4.747  20.343  28.393  0.1284 -0.2186 -0.3633
31132W        W74049   7.606  23.222  29.603 -0.0231 -0.0287  0.0099
31133W        W74050   7.699  21.341  30.704  0.3865 -0.3864  0.1551
31134W        W74051   1.950  24.108  26.246 -0.2831 -0.0642  0.0347
31135W        W74052   7.832  20.849   1.050  0.0999 -0.1317 -0.2915
31136W        W74053   6.208  22.936  27.715 -0.0587 -0.1620 -0.3391
31137W        W74054   5.929  24.850  28.342  0.0403  0.1140 -0.0054
31138W        W74055   7.754  24.402  28.790 -0.1128  0.1024 -0.0852
31139W        W74056   2.791  23.561   0.022  0.2723  0.0024  0.1481
31140W        W74057   5.216  22.808  27.838 -0.2375 -0.1472 -0.0259
31141W        W74058   4.609  27.183  28.392  0.3062  0.2330  0.2097
31142W        W74059   7.352  23.460  27.722 -0.2268 -0.1082  0.1846
31143W        W74060   4.825  21.346  29.815  0.1310 -0.0126 -0.0499
31144W        W74061   5.984  22.863  28.754 -0.0844 -0.2472  0.4087
31145W        W74062   7.112  21.181  29.461  0.1613 -0.3086  0.3501
31146W        W74063   5.282  24.054  28.745  0.7390 -0.1716  0.1060
31147W        W74064   6.869  21.788  31.009 -0.0730 -0.2663  0.0739
31148W        W74065   7.217  23.918  31.141 -0.2280  0.2167 -0.3145
31149W        W74066   8.090  20.397  29.169  0.2334  0.3499  0.1513
31150W        W74067   5.765  22.580  27.144  0.0402  0.1094  0.4169
31151W        W74068   6.424  24.429  28.189  0.0184  0.0378 -0.0564
31152W        W74069   4.166  23.441  29.208 -0.2305 -0.0757 -0.1018
31153W        W74070   4.065  22.871  28.392  0.1836  0.0002  0.1234
31154W        W74071   5.319  24.230  28.008  0.0362 -0.3153  0.3239
31155W        W74072   9.074  20.077  27.922  0.0325 -0.5053  0.3352
31156W        W74073   4.611  24.568  31.053 -0.1870 -0.0301  0.1559
31157W        W74074   6.122  22.709   0.110  0.1346  0.0443  0.0647
31158W        W74075   4.387  21.746  27.756  0.0397 -0.0803 -0.2519
31159W        W74076   5.450  24.478  29.576 -0.1698 -0.4152 -0.2224
31160W        W74077   6.610  21.590  28.191 -0.1585  0.4255  0.1941
31161W        W74078   9.150  22.196  27.343  0.2995  0.2248  0.1382
31162W        W74079   7.158  23.656  28.544  0.1121 -0.3696 -0.0850
31163W        W74080   5.483  22.607  30.089  0.2528  0.3139  0.0215
31164W        W74081   6.291  21.916  27.433  0.1967  0.1534  0.2667
31165W        W74082   5.940  21.189  28.276  0.1460 -0.1944  0.2577
31166W        W74083   5.543  24.334  29.093 -0.1348 -0.2114 -0.2198
31167W        W74084   6.787  22.871  29.156  0.2120 -0.1577 -0.0131
31168W        W74085   6.818  23.698  29.391  0.0041 -0.4786  0.0093
31169W        W74086   5.109  20.884  27.982  0.0179 -0.0552 -0.1140
31170W        W74087   8.959  24.859  27.617 -0.0180  0.0530 -0.1272
31171W        W74088   3.707  23.028  30.352  0.1272 -0.1096 -0.1108
31172W        W74089   6.790  23.801   0.466  0.2487  0.0656 -0.0827
31173W        W74090   7.342  23.557  27.204  0.1310 -0.0894  0.3647
31174W        W74091   7.353  20.583  29.631 -0.2150  0.0287  0.0361
31175W        W74092   5.224  21.051  27.406 -0.0873  0.3948  0.0115
31176W        W74093   5.678  21.532  27.973 -0.1232  0.2199  0.1056
31177W        W74094   4.920  26.738  28.456 -0.0925  0.0716 -0.1257
31178W        W74095   7.243  19.879  28.797  0.1742 -0.0212 -0.0900
31179W        W74096   8.381  20.491  29.590  0.0966 -0.2265  0.2010
31180W        W74097   8.990  22.235  30.468  0.0221 -0.0124  0.0977
31181W        W74098   6.219  23.224  30.799 -0.1242  0.1238 -0.3004
31182W        W74099   7.604  21.304  28.533  0.1586 -0.1005 -0.0128
31183W        W74100   7.714  22.063   0.033 -0.0029  0.0652  0.2151
31184W        W74101   6.657  22.550  27.631 -0.1422  0.0998  0.0116
31185W        W74102   6.439  22.745  29.516  0.0373 -0.2224 -0.3234
31186W        W74103   8.006  19.691  30.117  0.0686 -0.1827  0.0749
31187W        W74104   2.858  27.340  30.863  0.1690  0.0499 -0.0197
31188W        W74105   8.041  24.220  31.507 -0.1620 -0.1067  0.0932
31189W        W74106   7.106  23.748  29.815 -0.0077 -0.2049 -0.0771
31190W        W74107   5.686  21.623  30.074 -0.0162 -0.0585  0.0838
31191W        W74108   4.538  22.289  27.794  0.0907 -0.2834  0.1310
31192W        W74109   4.241  26.872  27.653  0.0614  0.3300  0.1218
31193W        W74110   6.606  22.060  27.889  0.0166 -0.1001  0.3883
31194W        W74111   5.833  21.410  31.841 -0.0829 -0.0295 -0.1946
31195W        W74112   6.188  25.001  28.752  0.1260  0.0391 -0.3041
31196W        W74113   5.195  24.744  27.692 -0.2108  0.2110  0.1332
31197W        W74114   5.255  23.685  29.918 -0.3485 -0.2274  0.0415
31198W        W74115   4.752  23.459  27.954  0.0434 -0.0664 -0.1117
31199W        W74116   5.778  21.084  31.071 -0.0171 -0.2994  0.0831
31200W        W74117   4.727  23.187  31.069  0.1220 -0.0153  0.2538
31201W        W74118   6.010  23.134  25.175 -0.3593  0.2677 -0.0732
31202W        W74119   3.794  21.581  27.127  0.0479 -0.0949 -0.2343
31203W        W74120   8.230  21.623  27.513 -0.0290 -0.1348 -0.0836
31204W        W74121   7.152  23.327  26.284 -0.0307  0.1495 -0.3765
31205W        W74122   4.024  21.280   0.095  0.1225  0.0570  0.1117
31206W        W74123   5.325  21.926  31.192  0.0559 -0.2173 -0.1436
31207W        W74124   4.824  26.352  29.576 -0.0791 -0.1109 -0.0015
31208W        W74125   6.721  25.120  29.901 -0.2244 -0.0042  0.1109
31209W        W74126   5.031  21.154  26.939  0.1004 -0.1435  0.0132
31210W        W74127   4.990  24.948  28.290 -0.2505 -0.3262 -0.0150
31211W        W74128   6.406  22.566  29.048  0.1664  0.0093 -0.0506
31212W        W74129   5.363  23.217  26.595  0.0542 -0.1853  0.0686
31213W        W74130   8.001  20.784  31.588 -0.1329  0.1546 -0.0254
31214W        W74131   7.164  22.279  28.506 -0.0240 -0.1462  0.2875
31215W        W74132   4.646  25.475  27.040 -0.1420 -0.1286  0.0345
31216W        W74133   6.855  24.018  30.806 -0.1357 -0.2366 -0.1417
31217W        W74134   5.065  22.018  28.543 -0.2916  0.1198  0.0710
31218W        W74135   4.068  23.992  29.369 -0.5018 -0.1911 -0.0348
31219W        W74136   6.171  21.950  29.888  0.0160  0.1029  0.2447
31220W        W74137   6.434  23.813  27.841 -0.0103 -0.3451 -0.4643
31221W        W74138   6.677  23.250  30.589  0.0897  0.0177 -0.1435
31222W        W74139   5.447  21.938  27.791 -0.2410 -0.0764  0.0444
31223W        W74140   4.963  22.196  30.620  0.4780 -0.1176 -0.1926
31224W        W74141   6.513  23.791  29.843 -0.1372  0.1306  0.2428
31225W        W74142   5.059  24.240  29.704  0.0312  0.5141  0.4976
31226W        W74143   6.231  22.822  31.444  0.1617  0.0248  0.0478
31227W        W74144   6.067  21.160  27.637  0.1999 -0.0734  0.2826
31228W        W74145   8.527  24.143  29.048 -0.2168 -0.2118 -0.1650
31229W        W74146   5.552  22.954  29.690  0.0198 -0.0537  0.3489
31230W        W74147   5.246  21.801  29.948 -0.1385 -0.0042 -0.0801
31231W        W74148   2.862  24.185  27.826  0.2484  0.2619  0.2239
31232W        W74149   5.166  22.805  27.334  0.1210  0.1214 -0.3495
31233W        W74150   6.393  20.549  30.753 -0.0782 -0.0323  0.4289
31234W        W74151   5.124  23.556  30.381  0.1265 -0.2360 -0.0920
31235W        W74152   3.317  23.453  27.297 -0.4245  0.1055 -0.1554
31236W        W74153   6.035  24.487  31.350 -0.3264  0.2617 -0.1438
31237W        W74154   7.917  23.339  28.068  0.1230  0.1957  0.0155
31238W        W74155   5.133  24.616  26.561 -0.4881  0.0083 -0.0971
31239W        W74156   6.516  20.968  27.821 -0.0069  0.2125  0.1909
31240W        W74157   8.799  20.643  27.997 -0.1397 -0.0451  0.1510
31241W        W74158   6.533  23.308  29.569 -0.1462 -0.0398 -0.0567
31242W        W74159   6.985  19.808  31.739 -0.2095 -0.0771  0.3898
31243W        W74160   6.334  22.611  30.307  0.0072 -0.1978  0.2169
31244W        W74161   7.067  24.360  26.420  0.1401 -0.1401 -0.2371
31245W        W74162   3.328  21.691  30.815  0.0903  0.0452  0.0950
31246W        W74163   6.611  24.362   0.379 -0.3309  0.1833  0.2148
31247W        W74164   5.382  23.187  31.642  0.0518 -0.0201  0.0764
31248W        W74165   7.791  22.488  29.333  0.2066  0.0346 -0.1247
31249W        W74166   3.689  22.662  27.736 -0.0021  0.2094  0.2818
31250W        W74167   4.831  22.645  30.895  0.1967 -0.0205 -0.1703
31251W        W74168   5.493  23.472  29.531  0.3690 -0.3218  0.1126
31252W        W74169   4.436  24.347  29.129 -0.1451 -0.0239  0.0877
31253W        W74170   6.415  22.074  30.350 -0.2803 -0.0800 -0.2667
31254W        W74171   3.750  23.356  31.482  0.0370  0.1256 -0.1826
31255W        W74172   8.910  24.321  27.215 -0.1082 -0.2312 -0.1869
31256W        W74173   6.883  23.467  27.483  0.0486  0.0743  0.2600
31257W        W74174   4.670  27.187  27.568 -0.0014  0.1401  0.2053
31258W        W74175   4.157  23.283  31.271  0.1116  0.1316 -0.0793
31259W        W74176   6.294  23.124  29.110  0.2559 -0.1908 -0.0725
31260W        W74177   5.652  21.976  28.241 -0.2207 -0.0020  0.1152
31261W        W74178   6.202  21.408  30.111  0.1253 -0.0328 -0.1533
31262W        W74179   8.457  20.427  28.861 -0.2593 -0.0027  0.0555
31263W        W74180   6.322  24.098  30.740  0.1667  0.1322  0.1157
31264W        W74181   1.996  22.548   0.355 -0.1904 -0.2826  0.1166
31265W        W74182   6.605  26.635  31.047 -0.0978 -0.0390 -0.1839
31266W        W74183   7.763  20.826  27.438 -0.2498  0.1512  0.0669
31267W        W74184   7.900  20.548  28.713  0.3825  0.0260 -0.1092
31268W        W74185   8.908  23.779  29.314 -0.0556 -0.0583 -0.2957
31269W        W74186   6.609  22.794  26.674 -0.2103 -0.0782 -0.2509
31270W        W74187   3.774  21.410  29.062  0.0736  0.0765 -0.3515
31271W        W74188   6.298  22.865   1.482  0.1032  0.3086  0.0994
31272W        W74189   6.397  21.295  27.285 -0.1835 -0.0520 -0.3809
31273W        W74190   7.387  22.525   0.757  0.3848  0.0445  0.3245
31274W        W74191   5.813  25.081  26.490  0.0500 -0.1645 -0.2171
31275W        W74192   5.576  23.734  30.346  0.1107  0.1588  0.0263
31276W        W74193   7.582  21.128  29.392  0.1456 -0.3130 -0.2347
31277W        W74194   4.646  21.204  29.279 -0.3869 -0.0350  0.1059
31278W        W74195   5.255  22.462  31.057  0.2025 -0.2234  0.0378
31279W        W74196   3.291  21.974  27.118  0.0669  0.3333 -0.4202
31280W        W74197   7.103  22.188  27.037  0.0916 -0.2030  0.0009
31281W        W74198   5.012  23.692  28.927 -0.1973 -0.1175 -0.2127
31282W        W74199   7.218  24.379  30.754 -0.0543 -0.1360 -0.1594
31283W        W74200   6.610  21.550  27.624  0.2244  0.3842 -0.0700
31284W        W74201   7.661  23.369  31.897  0.3740  0.1263  0.1315
31285W        W74202   3.559  23.065  28.331 -0.0498 -0.1109 -0.0328
31286W        W74203   4.539  21.357  30.242  0.2498 -0.6368  0.0329
31287W        W74204   4.474  25.375  29.722 -0.1829  0.0220 -0.1279
31288W        W74205   3.406  24.421  30.159 -0.0819 -0.2131 -0.2404
31289W        W74206   4.478  24.834  28.346  0.1354 -0.0407 -0.0001
31290W        W74207   5.920  21.828  29.410 -0.0728 -0.0535 -0.2939
31291W        W74208   7.515  22.289  29.697  0.3518  0.1549  0.2077
31292W        W74209   6.078  23.576  28.104  0.1703  0.1017  0.1509
31293W        W74210   7.330  21.485  31.016  0.0636 -0.2365  0.0519
31294W        W74211   6.691  24.469  30.623 -0.3201  0.2874  0.0237
31295W        W74212   4.788  23.060  27.562  0.1088 -0.0390  0.2440
31296W        W74213   8.293  25.077  31.602 -0.1862  0.0255  0.1471
31297W        W74214   7.198  23.600  29.028  0.2376  0.0336  0.0424
31298W        W74215   4.170  25.880  27.579  0.2380 -0.0470 -0.3909
31299W        W74216   2.248  22.960   0.933 -0.0917 -0.0074 -0.0064
31300W        W74217   6.174  23.484  31.194  0.0559  0.0504  0.0443
31301W        W74218   7.026  22.877  28.349  0.2122  0.1643  0.1355
31302W        W74219   7.002  21.896  28.225 -0.1280  0.1167  0.2582
31303W        W74220   5.450  22.721  25.578  0.0276 -0.0245  0.1056
31304W        W74221   5.097  22.209   0.571  0.2459 -0.0267 -0.0743
31305W        W74222   2.799  23.801  30.570  0.2684 -0.2285  0.1500
31306W        W74223   3.777  25.243  31.471  0.2988  0.0211  0.0843
31307W        W74224   6.122  22.427  27.497  0.2065  0.1006 -0.1705
31308W        W74225   5.125  23.574  27.081 -0.1508  0.2681  0.1624
31309W        W74226   6.660  24.444   0.954 -0.1455  0.2694  0.2236
31310W        W74227   6.650  21.680  29.201 -0.0931  0.0997 -0.1234
31311W        W74228   5.045  24.652  29.345  0.0064 -0.1405  0.0044
31312W        W74229   4.564  26.543  26.347  0.0904 -0.1262  0.0320
31313W        W74230   7.083  22.938  30.307 -0.2148 -0.2602 -0.3866
31314W        W74231   4.676  24.944  27.797 -0.2830 -0.1277 -0.0209
31315W        W74232   7.186  24.533  29.641 -0.3853  0.0366 -0.2672
31316W        W74233   8.240  21.386  27.059 -0.2473  0.2676 -0.2386
31317W        W74234   7.506  23.730  29.496  0.0609  0.4124  0.0357
31318W        W74235   8.636  21.527  27.849 -0.0999 -0.0475 -0.1146
31319W        W74236   6.806  23.346  30.013 -0.0076 -0.1454 -0.0114
31320W        W74237   6.422  22.572  27.066 -0.0216 -0.0056  0.3150
31321W        W74238   5.226  21.175  26.448 -0.0111 -0.2278 -0.2417
31322W        W74239   6.476  24.305  31.683  0.1386 -0.2021  0.2982
31323W        W74240   8.125  19.991  31.871  0.2388 -0.1639  0.1214
31324W        W74241   3.770  25.781  31.400 -0.0112  0.0615  0.1517
31325W        W74242   8.247  21.442  30.613  0.4560 -0.0747 -0.0491
31326W        W74243   2.753  22.553  29.888  0.0639 -0.2701 -0.2386
31327W        W74244   5.253  24.524  30.083 -0.1814 -0.0675  0.0846
31328W        W74245   8.410  23.170  28.346 -0.0465 -0.3647 -0.4644
31329W        W74246   5.796  25.393  28.798  0.1927 -0.3124 -0.0021
31330W        W74247   8.824  19.680  29.920 -0.1594  0.3357  0.0690
31331W        W74248   5.292  24.859  26.072  0.0721 -0.1128  0.1770
31332W        W74249   4.653  25.543  29.153  0.2062  0.2040 -0.0100
31333W        W74250   5.478  25.040  27.403 -0.0104 -0.1183  0.0355
31334W        W74251   7.365  21.746  28.743 -0.2907  0.0084  0.0472
31335W        W74252   8.529  22.434  30.582 -0.0700 -0.0642  0.0497
31336W        W74253   6.074  21.744  30.441  0.1093  0.2003  0.0486
31337W        W74254   7.086  22.430  31.718  0.3709  0.0711 -0.1062
31338W        W74255   6.855  22.306  29.038  0.0291 -0.0932  0.3326
31339W        W74256   7.136  23.280  29.589 -0.2430  0.0183  0.2641
31340W        W74257   6.461  24.080  28.895 -0.1952 -0.3363  0.1594
31341W        W74258   4.123  22.440  31.601  0.2798  0.3925 -0.1031
31342W        W74259   6.885  21.114  27.344 -0.0375 -0.3342 -0.0432
31343W        W74260   7.955  22.192  31.261  0.0638 -0.1142 -0.2058
31344W        W74261   6.144  24.390  24.265  0.2302  0.2634 -0.0509
31345W        W74262   6.951  23.901   0.982 -0.0123 -0.0142 -0.0980
31346W        W74263   5.401  22.907  28.315  0.3827  0.0642 -0.0646
31347W        W74264   8.744  22.077  29.038  0.3669  0.2816 -0.2515
31348W        W74265   4.959  22.858  29.782  0.2014  0.2051  0.0555
31349W        W74266   5.924  22.172  30.243  0.2581  0.1952 -0.0520
31350W        W74267   6.685  25.083  28.799 -0.0840 -0.4532 -0.1553
31351W        W74268   2.337  22.908  30.271  0.0758  0.2354  0.0796
31352W        W74269   6.762  25.095  26.115 -0.0232  0.0439  0.0732
31353W        W74270   5.435  22.872  28.804 -0.0674 -0.0887 -0.0065
31354W        W74271   3.760  24.231  26.324  0.1866  0.3047  0.0615
31355W        W74272   8.215  23.693  27.235  0.2160 -0.1911 -0.0769
31356W        W74273   6.040  23.860  30.175 -0.0777 -0.0024 -0.0125
31357W        W74274   4.219  22.739   0.026  0.0567  0.2777 -0.0930
31358W        W74275   6.800  24.084  28.465  0.0073  0.3467 -0.2387
31359W        W74276   8.921  26.094  29.254  0.0017 -0.0733  0.1905
31360W        W74277   5.621  20.980  27.772 -0.0486 -0.0989  0.0861
31361W        W74278   4.844  22.775  30.309  0.0014 -0.0764  0.1152
31362W        W74279   4.503  25.478  28.428 -0.0719  0.1494  0.5314
31363W        W74280   8.729  20.987  29.463 -0.0060 -0.4023  0.0651
31364W        W74281   7.536  21.077  29.876  0.1881 -0.3746  0.1796
31365W        W74282   5.721  23.938  25.615  0.2234 -0.1056  0.0663
31366W        W74283   8.760  20.393   1.020 -0.0573 -0.0136  0.2284
31367W        W74284   5.658  25.896  31.417 -0.3364 -0.0878  0.0790
31368W        W74285   7.478  24.398  31.179 -0.0292  0.3909 -0.1494
31369W        W74286   4.145  23.642  27.229 -0.0644 -0.4171  0.0937
31370W        W74287   7.316  22.603  29.318 -0.0572  0.0742 -0.0260
31371W        W74288   8.230  22.787  27.294  0.3506 -0.1373  0.1128
31372W        W74289   6.301  25.350  28.074  0.1698  0.0299 -0.1878
31373W        W74290   4.811  24.537  28.059  0.2292 -0.0448  0.0778
31374W        W74291   5.697  21.575  28.567  0.0568 -0.4008  0.0946
31375W        W74292   7.103  22.701  29.786  0.0352 -0.2830 -0.0163
31376W        W74293   4.680  22.258  29.503 -0.0985 -0.1865  0.1489
31377W        W74294   9.040  21.396  28.255  0.0095  0.2188 -0.1284
31378W        W74295   8.635  23.415  26.748  0.0255 -0.0080 -0.0097
31379W        W74296   5.177  23.059  29.322 -0.2709 -0.0244 -0.3284
31380W        W74297   3.473  24.242  27.464  0.0148  0.1384 -0.0030
31381W        W74298   6.152  24.872  26.827 -0.0331 -0.0597  0.0054
31382W        W74299   5.722  23.618  31.076 -0.2310  0.2466 -0.1026
31383W        W74300   7.167  23.251  31.797 -0.0501  0.2016  0.0166
31384W        W74301   6.012  23.690  30.638 -0.0262 -0.1703  0.1556
31385W        W74302   4.229  24.765  30.297 -0.3004  0.0942 -0.1015
31386W        W74303   4.803  19.451  27.533  0.1496  0.0183 -0.0199
31387W        W74304   8.315  23.850  26.788 -0.0202  0.0057  0.2894
31388W        W74305   4.401  21.859  28.691 -0.0397  0.2176  0.1936
31389W        W74306   5.763  22.083  27.360  0.1594  0.0465 -0.3510
31390W        W74307   4.539  24.166  29.550 -0.1616 -0.0324 -0.0698
31391W        W74308   7.119  24.077  28.860 -0.2180  0.0913  0.0925
31392W        W74309   5.365  23.399  28.793 -0.0571 -0.2646 -0.3962
31393W        W74310   4.994  25.387  28.720 -0.1700 -0.1826  0.0723
31394W        W74311   5.303  24.619  27.216 -0.2567  0.0116  0.3735
31395W        W74312   6.586  22.606  31.834 -0.0628  0.0704  0.1596
31396W        W74313   8.451  20.129  30.083  0.3318  0.3897 -0.2094
31397W        W74314   4.320  22.503  29.147 -0.0019 -0.3566  0.0052
31398W        W74315   7.772  22.568  28.853 -0.2473  0.1535  0.0627
31399W        W74316   4.828  23.429  28.479  0.2337 -0.0800  0.0572
31400W        W74317   7.238  24.507  28.597  0.0904 -0.2323  0.0395
31401W        W74318   4.849  24.246  27.671 -0.0338 -0.1652 -0.4539
31402W        W74319   5.641  23.231   0.305 -0.2131 -0.2412 -0.1316
31403W        W74320   4.803  20.355  28.853 -0.1579 -0.1720 -0.2549
31404W        W74321   6.112  23.066  29.712 -0.2202 -0.1960 -0.2660
31405W        W74322   6.720  24.695  30.174  0.3361  0.2813 -0.4344
31406W        W74323   6.461  23.235  26.903  0.2814 -0.0667 -0.0511
31407W        W74324   9.643  19.734  30.499  0.0261 -0.0574 -0.1602
31408W        W74325   6.940  22.604  27.217 -0.1175  0.1485 -0.0023
31409W        W74326   5.656  22.221   0.721 -0.0802 -0.2265 -0.0428
31410W        W74327   6.450  24.186  30.243 -0.1136 -0.1657 -0.2348
31411W        W74328   5.747  24.170  30.465 -0.4009  0.1747 -0.0927
31412W        W74329   4.620  23.777  27.506  0.1483  0.0831 -0.0236
31413W        W74330   8.289  21.287  29.205 -0.0516 -0.3059  0.1296
31414W        W74331   4.240  26.328  29.097 -0.1024 -0.2769  0.0509
31415W        W74332   5.101  20.897  29.672  0.0244  0.2206  0.1941
31416W        W74333   8.374  23.196  29.219  0.1466 -0.2108 -0.2189
31417W        W74334   7.096  23.468  30.515 -0.1825 -0.1465  0.1232
31418W        W74335   6.181  24.539  28.649 -0.2227 -0.0377 -0.0675
31419W        W74336   7.120  22.061  29.485 -0.1530  0.0258 -0.0234
31420W        W74337   5.809  21.637  27.003  0.1567 -0.3566 -0.1761
31421W        W74338   6.623  22.974  27.320 -0.0817  0.0986  0.1319
31422W        W74339   5.679  24.761  30.242  0.0077 -0.0374 -0.0767
31423W        W74340   7.384  24.111  29.906 -0.2750 -0.0055 -0.0464
31424W        W74341   4.319  24.158  30.924  0.1211  0.2770 -0.1747
31425W        W74342   6.343  21.127  30.882  0.1395 -0.1670 -0.4883
31426W        W74343   3.969  24.205  28.768 -0.2082  0.1298  0.1004
31427W        W74344   6.038  23.610  29.665  0.2150  0.0683 -0.3155
31428W        W74345   6.130  24.067  28.460 -0.1509 -0.2955 -0.1533
31429W        W74346   8.455  24.807  28.364 -0.1153  0.0381  0.0763
31430W        W74347   5.755  22.654  28.062 -0.2230 -0.2065 -0.4143
31431W        W74348   6.931  21.286  27.924 -0.0424 -0.3701 -0.0786
31432W        W74349   5.612  26.419  30.667  0.3710  0.1051 -0.2439
31433W        W74350   6.670  22.188  27.261  0.2165 -0.0263 -0.0217
31434W        W74351   7.636  23.062   0.788 -0.3050 -0.0380 -0.0939
31435W        W74352   6.482  23.648  30.853  0.0070  0.0093  0.0205
31436W        W74353   4.969  23.160  30.664 -0.1685  0.1225 -0.0696
31437W        W74354   5.853  23.251  31.589 -0.0698 -0.1206  0.1036
31438W        W74355   3.953  26.497  31.878  0.2448 -0.1541  0.0019
31439W        W74356   4.258  23.180   0.347  0.3668  0.0047  0.3902
31440W        W74357   6.115  22.394  31.678  0.1256  0.0756  0.3852
31441W        W74358   6.113  23.987  31.199  0.2942 -0.1375 -0.2520
31442W        W74359   5.004  22.807   0.482  0.0567  0.0353  0.1421
31443W        W74360   9.286  23.030  31.002  0.2339 -0.2820 -0.0122
31444W        W74361   5.919  24.760  30.852 -0.1980  0.0309 -0.3621
31445W        W74362   3.949  22.577  31.056 -0.2791 -0.3619 -0.0355
31446W        W74363   7.429  22.679   0.279 -0.2399 -0.3580 -0.0443
31447W        W74364   5.595  22.859   0.026 -0.0455 -0.0650 -0.1612
31448W        W74365   6.916  23.978  31.558 -0.1903 -0.0054 -0.1290
31449W        W74366   4.643  23.863  30.501  0.0828  0.1395  0.0741
31450W        W74367   5.894  22.268   0.189 -0.0015 -0.1484  0.3842
31451W        W74368   7.971  24.727  31.482 -0.0958 -0.3186 -0.0815
31452W        W74369   5.257  20.281  30.840  0.3294 -0.0271  0.1074
31453W        W74370   6.709  23.433   0.118  0.0316 -0.3018  0.1544
31454W        W74371   5.369  22.868  30.599  0.3722  0.2295 -0.2228
31455W        W74372   4.394  26.881   3.464  0.2476  0.3562 -0.1748
31456W        W74373   8.304  21.689  31.910  0.1423 -0.4559  0.2620
31457W        W74374   5.030  22.572  29.324 -0.2341  0.0113  0.0108
31458W        W74375   6.728  22.733  30.585  0.0521  0.3277  0.1609
31459W        W74376   5.912  20.626  29.455 -0.0258  0.2834 -0.0083
31460W        W74377   5.828  23.195  30.558 -0.1072  0.2622  0.1992
31461W        W74378   3.734  24.783  30.490 -0.1595 -0.0789  0.0153
31462W        W74379   6.708  23.428  31.434  0.1563 -0.1661 -0.0980
31463W        W74380   4.428  20.979  31.804  0.1144  0.1350 -0.2972
31464W        W74381   7.705  23.780  31.257 -0.2305  0.1638 -0.0600
31465W        W74382   3.838  22.755   0.399 -0.0500 -0.1592  0.2561
31466W        W74383   6.576  22.899  29.974 -0.0875  0.0082  0.4539
31467W        W74384   4.986  21.502  31.349  0.2822 -0.0671  0.3547
31468W        W74385   5.498  23.297   1.732 -0.1445  0.3226 -0.1292
31469W        W74386   7.108  23.398   0.997  0.0283  0.0417  0.4847
31470W        W74387   7.179  24.818  31.206  0.2300 -0.0892 -0.0054
31471W        W74388   5.791  23.098  31.124  0.0173 -0.0154  0.0712
31472W        W74389   6.316  23.049   0.960  0.0080  0.0406  0.2980
31473W        W74390   4.395  23.682  29.583 -0.1276  0.0035 -0.1073
31474W        W74391   6.228  23.235  30.245  0.0625 -0.0259 -0.2035
31475W        W74392   6.396  24.552  31.010  0.1674  0.2875  0.0126
31476W        W74393   5.962  21.362  30.663 -0.1340 -0.0385 -0.1357
31477W        W74394   5.733  25.094   2.537  0.0267 -0.1866  0.2397
31478W        W74395   4.907  21.717  29.533 -0.0873 -0.2672  0.0298
31479W        W74396   4.427  23.716  31.034 -0.0360 -0.3063  0.0381
31480W        W74397   7.729  20.319  31.189 -0.1298  0.1657  0.2568
31481W        W74398   6.080  22.178  30.722  0.2670 -0.0787  0.2349
31482W        W74399   8.459  24.541  31.516  0.2059 -0.0174 -0.1497
31483W        W74400   4.643  22.525   0.274  0.1403  0.0417 -0.1334
31484W        W74401   7.026  24.246   0.625 -0.2537 -0.0372  0.3092
31485W        W74402   8.184  22.227  31.771 -0.1562  0.1133 -0.0407
31486W        W74403   6.831  22.011  31.701  0.1594 -0.1166  0.2443
31487W        W74404   5.926  22.627   0.585  0.1705  0.1337 -0.1237
31488W        W74405   5.166  22.389   1.154 -0.1121 -0.3374 -0.2147
31489W        W74406   6.670  21.375   0.286  0.4030 -0.1901  0.0399
31490W        W74407   8.595  23.033  31.928 -0.0030 -0.2634  0.2802
31491W        W74408   3.170  25.838  29.789  0.0200  0.2278  0.0436
31492W        W74409   5.344  23.917  31.182  0.1388 -0.1656  0.1411
31493W        W74410   4.895  23.623  30.854 -0.0121 -0.2197 -0.0468
31494W        W74411   5.168  23.634   1.509  0.0187  0.0185  0.2988
31495W        W74412   3.871  22.577   0.880  0.0081 -0.1898 -0.1901
31496W        W74413   6.312  23.624   0.499 -0.2942  0.1471 -0.0236
31497W        W74414   4.427  20.898   0.376  0.1785  0.1294  0.0669
31498W        W74415   5.257  23.976  30.712 -0.0423  0.0277 -0.0202
31499W        W74416   6.995  26.203  30.675 -0.1980 -0.0871  0.1718
31500W        W74417   6.681  22.713   1.875  0.1489  0.0821  0.2149
31501W        W74418   4.913  28.552  18.936  0.3551  0.0005 -0.0489
31502W        W74419   4.272  27.453  18.005 -0.1013 -0.0939 -0.1033
31503W        W74420   7.098  26.493  17.298 -0.6453 -0.0967  0.2255
31504W        W74421   9.083  26.847  17.849 -0.1268  0.2881 -0.0778
31505W        W74422   4.755  26.257  15.638 -0.2353 -0.0904  0.1699
31506W        W74423   7.243  28.840  16.190 -0.0495 -0.1355  0.3124
31507W        W74424   4.195  24.815  18.042  0.1957 -0.1148 -0.1838
31508W        W74425   7.952  27.862  19.556  0.1367  0.1651 -0.2296
31509W        W74426   6.457  30.488  19.395 -0.0549  0.0359 -0.3656
31510W        W74427   5.548  29.024  16.942  0.1295  0.0364  0.2188
31511W        W74428   4.955  26.599  18.022 -0.0305  0.0617 -0.0272
31512W        W74429   6.849  28.092  20.039 -0.1210 -0.0808  0.0818
31513W        W74430   4.987  26.121  17.803  0.4084 -0.1184  0.0773
31514W        W74431   2.970  25.675  17.976 -0.0064 -0.1158 -0.0951
31515W        W74432   8.422  26.443  17.115 -0.1071 -0.5876  0.1174
31516W        W74433   3.885  27.708  17.313  0.1434 -0.1873  0.0490
31517W        W74434   5.695  26.253  16.641  0.1689 -0.0756  0.2646
31518W        W74435   6.948  26.762  16.771  0.1726 -0.0258 -0.2112
31519W        W74436   5.497  28.331  16.895 -0.2293 -0.2418  0.1812
31520W        W74437   8.331  28.351  17.383 -0.0730  0.2539 -0.0251
31521W        W74438   5.612  25.694  19.921 -0.0384 -0.0197  0.2695
31522W        W74439   4.654  29.802  16.153 -0.4986  0.1598 -0.3265
31523W        W74440   3.341  27.073  16.875  0.0879 -0.2487 -0.0054
31524W        W74441   5.190  28.640  20.322 -0.3108  0.1826  0.6194
31525W        W74442   5.818  27.371  17.032  0.0745  0.0891 -0.1234
31526W        W74443   4.405  25.771  17.788 -0.0485 -0.1135  0.0847
31527W        W74444   6.756  24.621  17.394  0.0266  0.0264 -0.1577
31528W        W74445   5.716  30.063  18.813 -0.0700  0.1490  0.0917
31529W        W74446   6.108  29.087  17.800 -0.0918  0.1345  0.1267
31530W        W74447   6.416  28.093  19.085  0.1371 -0.0626 -0.0557
31531W        W74448   5.181  29.509  17.381 -0.1005 -0.2063  0.1962
31532W        W74449   4.068  28.724  17.640 -0.1587 -0.0619  0.0954
31533W        W74450   4.265  28.644  15.624 -0.2945 -0.1939 -0.0864
31534W        W74451   6.744  27.946  16.295 -0.0055 -0.2129 -0.0336
31535W        W74452   8.146  28.884  19.136 -0.0996 -0.1377  0.0885
31536W        W74453   5.474  27.867  20.573 -0.3210 -0.0667 -0.2666
31537W        W74454   4.935  28.592  16.009 -0.2242  0.0962 -0.1088
31538W        W74455   5.956  29.136  19.291  0.1893  0.0732  0.1537
31539W        W74456   6.228  29.372  18.930 -0.2560  0.0587  0.2495
31540W        W74457   6.188  28.651  18.356  0.4329 -0.0336 -0.0664
31541W        W74458   5.517  27.514  17.433 -0.0831  0.0081  0.0172
31542W        W74459   6.949  29.111  18.333 -0.2235 -0.0456 -0.1130
31543W        W74460   5.223  26.480  16.307  0.0321  0.2917 -0.1523
31544W        W74461   5.643  28.596  18.491 -0.2534  0.1751 -0.5192
31545W        W74462   3.979  27.724  16.521  0.0514  0.0526 -0.0277
31546W        W74463   7.243  26.446  19.882 -0.0269  0.2712  0.1492
31547W        W74464   5.341  28.593  17.265  0.1150 -0.0265  0.2632
31548W        W74465   5.946  26.755  15.785 -0.0570 -0.1863  0.0616
31549W        W74466   5.082  25.701  16.471  0.0481  0.2001  0.0226
31550W        W74467   5.665  26.109  17.687  0.2334  0.0581  0.0047
31551W        W74468   4.177  25.470  16.646 -0.1541 -0.0900 -0.1666
31552W        W74469   4.824  29.378  16.893  0.3021  0.0996 -0.0663
31553W        W74470   8.882  25.903  17.652 -0.0933 -0.2210  0.1838
31554W        W74471   6.470  27.651  19.298 -0.2643 -0.0328 -0.0208
31555W        W74472   6.023  25.783  16.945  0.0580  0.1804 -0.0642
31556W        W74473   7.782  27.501  17.665 -0.0380  0.0268  0.3376
31557W        W74474   4.808  28.342  18.027  0.4235  0.0069 -0.1325
31558W        W74475   3.325  24.144  19.161 -0.0722 -0.1140  0.4619
31559W        W74476   6.310  28.043  16.609  0.0500 -0.3036 -0.1121
31560W        W74477   6.016  29.572  16.104 -0.2781 -0.1838 -0.0140
31561W        W74478   6.520  29.084  15.680 -0.2686 -0.0714  0.3648
31562W        W74479   3.539  26.002  16.636  0.0757 -0.3519  0.1401
31563W        W74480   3.483  26.575  20.003  0.1668  0.0643  0.1829
31564W        W74481   4.760  26.669  19.314 -0.1998  0.1222 -0.3175
31565W        W74482   6.864  28.228  17.292 -0.1943 -0.1228  0.1752
31566W        W74483   7.333  28.370  16.545 -0.2433 -0.3503 -0.1830
31567W        W74484   3.694  28.635  18.680 -0.2794  0.0606 -0.1027
31568W        W74485   8.986  24.989  18.839  0.0503  0.2011 -0.1047
31569W        W74486   6.066  28.466  18.880 -0.2704  0.0134 -0.0700
31570W        W74487   6.749  30.401  18.151  0.2488  0.0045 -0.1519
31571W        W74488   8.409  28.329  17.854 -0.0773 -0.0816 -0.3010
31572W        W74489   6.675  25.917  18.065  0.2240  0.2121  0.1652
31573W        W74490   8.797  26.969  19.959 -0.0008 -0.0244  0.0737
31574W        W74491   5.509  27.418  16.401  0.0310 -0.0822  0.0818
31575W        W74492   6.437  27.536  16.342  0.0873 -0.0135  0.2082
31576W        W74493   9.190  27.534  17.070 -0.0115  0.3804  0.2798
31577W        W74494   8.257  27.119  15.895  0.1990 -0.2383  0.2447
31578W        W74495   6.122  29.561  17.615 -0.0370 -0.0158  0.1664
31579W        W74496   4.779  28.183  19.399 -0.1155 -0.0177  0.0614
31580W        W74497   5.888  28.114  20.461  0.0571 -0.0634  0.2385
31581W        W74498   4.239  29.304  16.141  0.3023 -0.1607 -0.2743
31582W        W74499   2.335  26.774  17.018 -0.2194  0.2153  0.1899
31583W        W74500   2.208  27.122  17.376 -0.2708  0.1763 -0.0218
31584W        W74501   4.867  28.028  17.654  0.0848  0.1910 -0.1431
31585W        W74502   4.382  29.309  17.161 -0.1404  0.1332 -0.0119
31586W        W74503   6.506  26.229  20.362 -0.0550  0.1039  0.2428
31587W        W74504   5.568  25.959  18.688 -0.4012 -0.0693  0.1927
31588W        W74505   6.266  26.100  17.830  0.2250  0.2016 -0.0440
31589W        W74506   4.471  28.202  16.819  0.1754  0.2652  0.1265
31590W        W74507   7.352  29.267  15.930 -0.2692 -0.1124  0.0215
31591W        W74508   6.807  27.722  16.716  0.0749  0.0774 -0.0473
31592W        W74509   5.849  30.437  15.320 -0.2080 -0.0419 -0.1631
31593W        W74510   5.167  28.099  19.045  0.1244  0.0958 -0.1524
31594W        W74511   5.426  27.101  16.804 -0.0941  0.0127  0.2168
31595W        W74512   5.910  24.924  18.460 -0.1574  0.0108 -0.0463
31596W        W74513   4.328  26.978  19.333  0.0496  0.1680  0.0680
31597W        W74514   7.610  28.554  17.759  0.2364  0.0308  0.1417
31598W        W74515   5.889  26.499  17.464  0.3022 -0.0354 -0.0222
31599W        W74516   7.796  25.066  16.687 -0.4091 -0.1524 -0.3328
31600W        W74517   6.241  27.000  16.226  0.0563  0.0438  0.1940
31601W        W74518   2.640  26.263  16.294 -0.1026 -0.2478  0.1504
31602W        W74519   7.200  27.014  18.704 -0.0873  0.0429 -0.1828
31603W        W74520   4.777  29.123  16.434 -0.1413 -0.0457  0.0988
31604W        W74521   6.879  28.006  18.210  0.0329  0.0873 -0.1052
31605W        W74522   6.289  31.054  16.053 -0.0068  0.1207  0.0699
31606W        W74523   5.781  28.434  21.587  0.0709  0.1834  0.0948
31607W        W74524   5.078  25.371  16.005 -0.0782  0.1708  0.2151
31608W        W74525   4.263  30.251  18.169  0.0825 -0.1722 -0.0996
31609W        W74526   5.457  28.257  16.077  0.1777  0.1703  0.1580
31610W        W74527   4.366  26.981  17.792  0.1145 -0.0883 -0.4381
31611W        W74528   7.355  28.213  17.509 -0.0194 -0.0166 -0.0924
31612W        W74529   6.790  27.304  16.103  0.1712  0.2561 -0.0135
31613W        W74530   4.874  30.336  20.007  0.0187  0.1795  0.1393
31614W        W74531   6.737  25.895  18.770  0.1322 -0.1774 -0.2745
31615W        W74532   6.896  28.950  17.854 -0.0672 -0.0173  0.0233
31616W        W74533   7.393  26.490  16.707  0.0074 -0.2086  0.0794
31617W        W74534   3.559  24.017  18.122 -0.0971  0.1714  0.0562
31618W        W74535   5.009  29.709  19.065 -0.2579 -0.3196 -0.0255
31619W        W74536   5.467  28.317  17.742 -0.2910  0.3958  0.2434
31620W        W74537   1.266  25.554  17.191  0.2621 -0.1490 -0.1537
31621W        W74538   5.051  29.330  17.817 -0.0613  0.1891  0.1700
31622W        W74539   8.221  25.443  17.015  0.0789 -0.5911 -0.1181
31623W        W74540   4.393  28.244  19.859  0.0849 -0.0118  0.1077
31624W        W74541   4.955  27.577  18.679 -0.2117  0.2341 -0.2805
31625W        W74542   4.338  27.777  17.601  0.2420  0.1903  0.0560
31626W        W74543   7.102  27.875  18.687 -0.0687  0.4530 -0.2392
31627W        W74544   7.756  26.165  16.415 -0.3827 -0.3709 -0.4723
31628W        W74545   7.212  25.952  16.775  0.2580  0.2326  0.2305
31629W        W74546   6.812  26.812  18.468 -0.0327  0.1161 -0.1791
31630W        W74547   7.136  26.972  17.570 -0.0147  0.0548  0.2561
31631W        W74548   4.947  26.997  16.924 -0.1114 -0.2485 -0.0195
31632W        W74549   5.519  25.778  16.775  0.1013  0.3204  0.1064
31633W        W74550   5.219  27.697  20.170 -0.1645 -0.1077 -0.1446
31634W        W74551   6.009  28.784  16.704  0.0195 -0.0489 -0.2833
31635W        W74552   5.911  29.129  18.341 -0.1260 -0.0688  0.2980
31636W        W74553   4.592  25.421  16.145  0.0710 -0.0094 -0.1767
31637W        W74554   5.545  29.775  17.600 -0.0658 -0.1534  0.2964
31638W        W74555   4.741  27.890  19.803 -0.1464 -0.6468  0.1942
31639W        W74556   5.663  28.172  19.462  0.0087 -0.0100 -0.1659
31640W        W74557   5.967  28.733  16.216  0.1010  0.2982  0.1198
31641W        W74558   6.357  25.013  18.633 -0.2354  0.0324 -0.2623
31642W        W74559   5.991  27.234  16.591  0.2795 -0.2151 -0.2916
31643W        W74560   5.458  27.704  16.945  0.0619  0.0016 -0.1419
31644W        W74561   4.059  29.571  16.883  0.1254 -0.3522 -0.0752
31645W        W74562   7.095  26.506  17.801 -0.2855  0.0230  0.0269
31646W        W74563   5.540  26.361  19.442  0.1977 -0.4650 -0.2310
31647W        W74564   5.894  26.318  19.106  0.1465 -0.2730 -0.2929
31648W        W74565   7.066  27.813  19.704  0.0735  0.1051 -0.2882
31649W        W74566   5.832  28.237  18.107  0.1950 -0.0691  0.0091
31650W        W74567   8.616  27.104  17.180 -0.2413 -0.0306 -0.2068
31651W        W74568   3.633  27.751  16.152  0.1863 -0.0962 -0.3426
31652W        W74569   6.628  26.535  18.039  0.1076 -0.0091 -0.0939
31653W        W74570   5.432  28.097  18.604  0.7052 -0.1271 -0.0568
31654W        W74571   4.210  28.398  21.500 -0.0838  0.0612  0.0589
31655W        W74572   6.472  28.529  17.893  0.1299 -0.0610 -0.2450
31656W        W74573   8.616  27.271  16.241  0.2548 -0.2061 -0.2108
31657W        W74574   5.955  27.760  19.440  0.0391 -0.5842  0.0345
31658W        W74575   4.617  25.451  16.830 -0.1550  0.0294  0.0773
31659W        W74576   5.354  31.056  16.088 -0.0689 -0.1401 -0.1521
31660W        W74577   5.939  28.663  17.517  0.0361  0.0411 -0.0371
31661W        W74578   5.920  26.445  18.517  0.2371 -0.2420  0.2825
31662W        W74579   4.645  27.152  16.524 -0.0008 -0.2217  0.1932
31663W        W74580   5.894  27.954  16.851  0.2440  0.2857  0.1042
31664W        W74581   6.562  27.833  18.643  0.3113 -0.2956 -0.1285
31665W        W74582   3.542  29.916  16.399  0.2480 -0.2542  0.1242
31666W        W74583   7.923  26.632  19.059 -0.2438  0.0454 -0.1945
31667W        W74584   4.304  27.971  18.074  0.1303  0.2332  0.3871
31668W        W74585   5.242  25.026  17.988 -0.0137 -0.3665  0.0693
31669W        W74586   3.752  26.529  17.078 -0.1733  0.1269 -0.2216
31670W        W74587   6.977  27.227  16.570 -0.1160 -0.3579 -0.2218
31671W        W74588   8.559  27.950  16.757 -0.0446 -0.3419 -0.1293
31672W        W74589   5.943  27.298  19.580 -0.1306 -0.4252  0.0429
31673W        W74590   3.650  26.425  18.363 -0.0691  0.0080  0.1017
31674W        W74591   3.278  27.745  19.559  0.1749 -0.1492  0.0572
31675W        W74592   6.858  28.908  18.764  0.0277  0.2208  0.3013
31676W        W74593   5.593  24.534  16.162 -0.2032  0.1472 -0.3470
31677W        W74594   6.615  26.409  16.967 -0.2820 -0.2606 -0.1150
31678W        W74595   6.678  27.972  21.059 -0.2945  0.0601 -0.0256
31679W        W74596   4.604  25.842  16.424  0.1385 -0.0050 -0.1446
31680W        W74597   6.331  27.159  17.938 -0.2078 -0.0023  0.0525
31681W        W74598   4.203  28.473  18.039  0.1886  0.0200  0.3438
31682W        W74599   3.481  28.077  17.209  0.3003  0.1470 -0.0480
31683W        W74600   7.822  27.007  17.437  0.2510 -0.0269  0.3094
31684W        W74601   4.731  27.376  17.472  0.0021 -0.4012 -0.0197
31685W        W74602   4.422  28.308  17.616 -0.0808  0.0262 -0.0177
31686W        W74603   4.147  29.351  19.740  0.2979  0.0233 -0.1063
31687W        W74604   7.466  29.786  16.599 -0.0849 -0.1486  0.0917
31688W        W74605   5.931  27.732  16.361 -0.1581 -0.2144  0.0097
31689W        W74606   5.112  27.570  17.732  0.3199 -0.1555  0.0985
31690W        W74607   4.805  27.189  17.889 -0.2577 -0.3857  0.0084
31691W        W74608   6.432  29.247  17.420  0.2467  0.1014 -0.1374
31692W        W74609   5.382  26.511  16.930  0.0337  0.1314  0.0829
31693W        W74610   6.454  28.492  19.887 -0.1766 -0.3137  0.2047
31694W        W74611   4.603  25.525  19.879 -0.0615 -0.0784 -0.0785
31695W        W74612   7.054  29.339  16.295  0.2519 -0.1673  0.2198
31696W        W74613   6.167  26.883  17.465 -0.3537 -0.0080  0.1910
31697W        W74614   5.735  26.906  17.737  0.2908  0.0301 -0.2368
31698W        W74615   4.861  25.870  19.134  0.0519  0.0013  0.1161
31699W        W74616   1.456  29.395  17.421  0.1105  0.2382 -0.1172
31700W        W74617   4.707  26.463  18.461 -0.0837 -0.2268 -0.0646
31701W        W74618   6.609  27.670  17.984 -0.0432 -0.1494  0.1496
31702W        W74619   4.810  30.282  18.330  0.0348 -0.1482  0.2423
31703W        W74620   6.994  27.868  19.171 -0.0798 -0.2628 -0.1692
31704W        W74621   4.826  26.528  17.016 -0.1237  0.1230 -0.0390
31705W        W74622   6.020  28.987  15.784  0.0749 -0.0558  0.0437
31706W        W74623   5.701  26.087  17.123 -0.1981 -0.3735  0.0296
31707W        W74624   7.221  26.520  18.618  0.0742 -0.1639 -0.2951
31708W        W74625   4.835  26.694  16.544  0.1013  0.2786 -0.3967
31709W        W74626   6.289  25.559  18.909 -0.1453  0.2907 -0.0501
31710W        W74627   4.206  26.007  20.690  0.0107 -0.1673  0.4520
31711W        W74628   8.340  27.612  15.984 -0.0508  0.2376  0.0450
31712W        W74629   4.822  25.872  19.641 -0.1603 -0.3232  0.1639
31713W        W74630   5.659  30.538  18.919  0.2395 -0.2566  0.3423
31714W        W74631   5.454  26.495  18.984 -0.0292 -0.2659  0.0293
31715W        W74632   7.934  27.418  17.085  0.0656  0.1247 -0.0326
31716W        W74633   4.706  26.346  16.131  0.0618 -0.1397  0.1314
31717W        W74634   7.435  27.394  16.851  0.0540  0.2944  0.0777
31718W        W74635   6.870  28.618  17.001 -0.0065 -0.0305 -0.0476
31719W        W74636   4.332  27.708  16.931 -0.3375  0.0097 -0.2424
31720W        W74637   6.552  27.794  17.263 -0.2028  0.2051  0.2115
31721W        W74638   4.536  28.578  18.435  0.2996  0.3056 -0.0572
31722W        W74639   8.297  26.823  17.485 -0.2384 -0.2680 -0.2146
31723W        W74640   6.479  26.928  15.780  0.0558 -0.0179 -0.1146
31724W        W74641   4.709  28.524  16.512  0.0380  0.3875 -0.0133
31725W        W74642   5.081  25.157  19.525 -0.1456  0.2167  0.2892
31726W        W74643   6.658  29.848  18.135 -0.1413 -0.1736  0.1990
31727W        W74644   6.171  26.665  17.907 -0.1624  0.0618  0.0423
31728W        W74645   7.626  27.912  17.122 -0.1715  0.0431  0.2370
31729W        W74646   8.438  25.825  17.823 -0.0359 -0.2530  0.0674
31730W        W74647   4.887  27.800  18.146 -0.1791  0.2011 -0.1552
31731W        W74648   5.700  27.153  20.131  0.2771 -0.1259  0.2718
31732W        W74649   6.464  29.016  16.966 -0.1548 -0.0365  0.0620
31733W        W74650   8.313  27.410  16.607  0.0097 -0.1255  0.0609
31734W        W74651   7.399  26.868  17.067  0.0119  0.2016 -0.1870
31735W        W74652   7.824  27.729  16.711  0.0519 -0.0013 -0.0535
31736W        W74653   7.196  26.828  18.158  0.0729 -0.1666  0.2220
31737W        W74654   5.945  27.307  17.583 -0.1348 -0.0242 -0.2135
31738W        W74655   7.929  28.605  20.377 -0.1408 -0.0349 -0.0593
31739W        W74656   5.103  26.159  16.677 -0.0346 -0.0987  0.1365
31740W        W74657   4.500  27.292  20.004 -0.2621  0.1356 -0.0639
31741W        W74658   6.523  29.861  17.690 -0.0230  0.2924 -0.2796
31742W        W74659   5.845  28.276  16.416 -0.1573  0.0321  0.2959
31743W        W74660   4.534  27.259  17.026 -0.0090 -0.0507 -0.0657
31744W        W74661   4.024  26.482  16.628 -0.0086  0.1168  0.2775
31745W        W74662   4.259  28.378  20.485  0.0737  0.2072  0.3610
31746W        W74663   5.028  27.569  17.175  0.1638 -0.1365  0.1624
31747W        W74664   5.292  28.164  18.167 -0.3414 -0.0837 -0.0878
31748W        W74665   9.106  27.989  17.166  0.2753 -0.1451  0.0744
31749W        W74666   7.197  27.320  19.896  0.4678 -0.1597 -0.0238
31750W        W74667   5.996  25.742  17.478  0.0856 -0.1694  0.0606
31751W        W74668   7.164  25.957  19.252  0.2144 -0.0464  0.4062
31752W        W74669   3.387  26.472  16.704 -0.1388  0.0741  0.2713
31753W        W74670   6.855  24.699  19.347  0.2204 -0.2971 -0.0400
31754W        W74671   3.326  29.391  18.604 -0.0404  0.3046 -0.2720
31755W        W74672   6.436  27.919  19.770 -0.0330  0.2518  0.0598
31756W        W74673   5.122  28.758  16.760  0.2790 -0.2633  0.2358
31757W        W74674   5.454  25.222  20.167  0.1541 -0.2241 -0.1105
31758W        W74675   8.714  27.148  17.666 -0.1486 -0.0442  0.0921
31759W        W74676   4.337  28.648  18.914  0.2037 -0.2054 -0.0091
31760W        W74677   7.104  25.589  18.877  0.3651  0.3312 -0.1395
31761W        W74678   5.893  29.020  18.798  0.2273 -0.2699 -0.0308
31762W        W74679   5.537  27.828  17.856 -0.2006 -0.2533 -0.1166
31763W        W74680   6.954  28.667  20.284 -0.1001 -0.1051  0.0380
31764W        W74681   7.578  30.590  17.620  0.4193  0.1760 -0.1800
31765W        W74682   6.436  28.575  19.364  0.1642 -0.3187  0.1172
31766W        W74683   5.108  28.297  19.928  0.1710 -0.1433  0.4135
31767W        W74684   4.541  27.959  20.309  0.1988 -0.1672  0.3493
31768W        W74685   6.829  26.109  17.641  0.0633  0.0247 -0.1469
31769W        W74686   4.499  26.326  16.588  0.1632  0.1110  0.2530
31770W        W74687   5.976  28.138  17.666 -0.0561 -0.2753 -0.0786
31771W        W74688   2.541  28.516  20.900  0.0443 -0.2045  0.0375
31772W        W74689   3.523  28.079  16.547 -0.0408 -0.0108 -0.1384
31773W        W74690   4.294  29.152  16.601 -0.0320  0.2933  0.0400
31774W        W74691   6.701  27.678  15.801  0.0080 -0.3780 -0.0343
31775W        W74692   7.675  27.913  16.254 -0.1658 -0.0171 -0.3697
31776W        W74693   7.057  28.526  19.795  0.0749  0.1537 -0.1184
31777W        W74694   5.638  24.358  17.097 -0.0870  0.0454  0.0472
31778W        W74695   3.963  28.139  17.541  0.0767 -0.0924 -0.2410
31779W        W74696   4.024  28.533  16.063 -0.0132  0.3218 -0.2161
31780W        W74697   5.858  28.455  15.872  0.2519 -0.0704 -0.0757
31781W        W74698   4.920  29.085  18.323  0.3942 -0.3042  0.1369
31782W        W74699   7.945  28.315  18.167 -0.1557 -0.2325  0.2404
31783W        W74700   6.771  24.814  16.155  0.1900 -0.1054 -0.0748
31784W        W74701   7.544  26.702  17.679  0.1534  0.0218 -0.1748
31785W        W74702   7.906  26.341  17.568  0.1297 -0.0331 -0.1409
31786W        W74703   6.002  30.669  19.266  0.0625  0.0624  0.2269
31787W        W74704   6.788  27.285  17.037 -0.0950 -0.0937  0.0265
31788W        W74705   5.402  25.047  17.100 -0.0739 -0.2346  0.1574
31789W        W74706   7.004  27.963  17.742  0.0477  0.0707  0.3416
31790W        W74707   8.387  24.383  18.160  0.3626 -0.0402  0.1371
31791W        W74708   2.349  29.004  20.772 -0.0362 -0.1313  0.0336
31792W        W74709   7.718  29.268  16.355 -0.3227  0.4073  0.0621
31793W        W74710   4.604  28.890  16.840 -0.1352  0.0097  0.0581
31794W        W74711   4.427  25.792  21.072  0.1663  0.1350 -0.1484
31795W        W74712   6.917  26.404  18.966 -0.0026  0.0968  0.1947
31796W        W74713   7.400  27.340  17.346 -0.1750  0.0377  0.0552
31797W        W74714   7.481  27.666  19.364  0.1056  0.0630  0.0626
31798W        W74715   4.938  29.380  16.046  0.1222 -0.2109 -0.2706
31799W        W74716   6.392  27.348  17.406  0.0384 -0.3997  0.0964
31800W        W74717   6.492  28.097  17.655  0.1296 -0.3371 -0.3111
31801W        W74718   4.241  25.563  15.785 -0.1602  0.0051  0.1288
31802W        W74719   8.354  25.919  16.740  0.2381  0.0967 -0.3822
31803W        W74720   4.654  25.471  19.388 -0.1599 -0.0891  0.0256
31804W        W74721   8.005  28.507  18.706  0.1806  0.0078 -0.1045
31805W        W74722   5.459  25.153  19.210 -0.1366  0.2491 -0.0076
31806W        W74723  10.731  26.226  17.008 -0.4531  0.1817 -0.3104
31807W        W74724   6.655  26.859  17.697 -0.0778  0.0705  0.0420
31808W        W74725   3.854  27.749  17.856 -0.1818 -0.2986 -0.0693
31809W        W74726   6.652  26.864  17.190  0.0463 -0.0347 -0.1460
31810W        W74727   8.232  27.255  17.944 -0.0169 -0.2527  0.0177
31811W        W74728   6.510  26.596  16.487 -0.0081 -0.0455 -0.0782
31812W        W74729   5.772  29.909  19.698  0.1573  0.0312 -0.0185
31813W        W74730   4.301  25.848  17.242  0.1260 -0.1273 -0.2050
31814W        W74731   6.429  25.756  16.175  0.0448  0.1979  0.0293
31815W        W74732   4.502  27.781  18.590 -0.4042 -0.0904  0.1113
31816W        W74733   7.306  28.270  18.214 -0.2444 -0.0969 -0.0703
31817W        W74734   6.356  27.551  16.843  0.3306 -0.2683 -0.0423
31818W        W74735   3.721  27.210  17.335  0.4504  0.1350 -0.2855
31819W        W74736   7.712  28.729  16.065 -0.0057 -0.3024  0.0063
31820W        W74737   8.149  29.219  16.092 -0.2153 -0.0697 -0.1418
31821W        W74738   6.135  29.313  16.563 -0.0901  0.1343 -0.0973
31822W        W74739   9.071  26.349  16.377 -0.2539  0.0618  0.1645
31823W        W74740   6.405  31.339  17.031 -0.0445  0.2176  0.1959
31824W        W74741   5.286  27.383  18.352 -0.2602 -0.0369 -0.0155
31825W        W74742   7.839  28.842  18.082 -0.0646 -0.0263 -0.3774
31826W        W74743   6.761  30.030  19.430 -0.1765 -0.0989 -0.1839
31827W        W74744   6.422  25.131  19.207 -0.1902 -0.1307  0.2050
31828W        W74745   3.837  25.886  17.915 -0.1087  0.1173 -0.1237
31829W        W74746   4.428  26.820  16.797 -0.1226  0.0073 -0.1496
31830W        W74747   8.055  25.833  18.368  0.2029 -0.3465  0.0786
31831W        W74748   4.962  27.979  16.794 -0.0822 -0.0555 -0.1915
31832W        W74749   5.545  28.691  16.521  0.0643 -0.0275 -0.0375
31833W        W74750   5.951  25.194  19.002  0.0446  0.5638  0.0190
31834W        W74751   8.256  27.846  17.531 -0.1141 -0.0682 -0.2439
31835W        W74752   7.249  28.750  18.120  0.2736  0.2901  0.1721
31836W        W74753   5.424  27.274  15.921 -0.1004  0.0629  0.1710
31837W        W74754   6.382  27.143  18.524  0.2237  0.0711 -0.1426
31838W        W74755   2.485  28.118  17.736 -0.1056 -0.1876 -0.0387
31839W        W74756   6.405  30.224  16.472 -0.0322 -0.2928  0.0282
31840W        W74757   6.217  29.647  17.128 -0.1348 -0.0622 -0.2243
31841W        W74758   6.932  26.043  17.166  0.2965  0.3394  0.0064
31842W        W74759   7.680  29.687  18.453 -0.0311 -0.2320  0.0050
31843W        W74760   7.294  27.327  17.907 -0.0915 -0.1587  0.0447
31844W        W74761   5.653  25.518  17.194  0.2143 -0.1491 -0.0093
31845W        W74762   6.443  26.439  17.464  0.0246 -0.3402 -0.1202
31846W        W74763   3.999  27.738  18.365  0.1451  0.0104 -0.0936
31847W        W74764   2.423  26.391  17.437 -0.2213 -0.0100  0.0540
31848W        W74765   4.764  28.580  15.518  0.0017  0.1880  0.1113
31849W        W74766   7.562  29.224  18.285 -0.2187  0.4812 -0.3462
31850W        W74767   5.567  26.262  20.852 -0.1097 -0.1523 -0.1656
31851W        W74768   5.959  26.821  19.651 -0.0500  0.2152 -0.0991
31852W        W74769   3.905  27.078  17.886 -0.2782 -0.0113 -0.1425
31853W        W74770   3.135  24.475  18.591  0.2821 -0.2264 -0.2382
31854W        W74771   7.051  28.861  16.610 -0.0018  0.3979 -0.5051
31855W        W74772   3.665  25.945  21.682 -0.1877  0.0097  0.3775
31856W        W74773   3.789  25.059  17.155 -0.1452  0.0451  0.0197
31857W        W74774   7.344  26.913  16.437  0.1404  0.3428 -0.2259
31858W        W74775   6.059  29.847  16.697 -0.2125 -0.1063 -0.0782
31859W        W74776   6.560  26.843  18.897 -0.0257  0.0518  0.0176
31860W        W74777   7.568  26.855  19.691 -0.0190 -0.3024  0.2506
31861W        W74778   4.694  27.957  17.182  0.1028  0.1319 -0.0080
31862W        W74779   6.542  28.372  18.638 -0.2461 -0.1372 -0.1172
31863W        W74780   6.814  28.540  18.268 -0.0411  0.1151 -0.1272
31864W        W74781   2.929  25.615  17.047  0.1917  0.0852  0.1192
31865W        W74782   5.953  28.363  17.138 -0.1963 -0.2423 -0.1384
31866W        W74783   6.758  29.315  19.012  0.2077 -0.1202 -0.0033
31867W        W74784   4.444  29.570  16.545  0.2151 -0.0341 -0.3551
31868W        W74785   6.214  27.054  17.026 -0.0304 -0.3702  0.0385
31869W        W74786   7.399  28.973  18.741  0.1260  0.1348 -0.0359
31870W        W74787   6.441  25.812  19.683 -0.1105  0.1722 -0.1438
31871W        W74788   7.908  26.674  15.721 -0.1611 -0.1455 -0.1300
31872W        W74789   6.321  28.128  18.148 -0.1193 -0.0786  0.0986
31873W        W74790   8.312  28.109  15.961  0.2815  0.0932 -0.0732
31874W        W74791   6.962  26.952  19.197  0.1745  0.1551 -0.0673
31875W        W74792   4.659  27.776  15.990  0.1415 -0.0883 -0.1539
31876W        W74793   5.444  26.873  20.767 -0.0819 -0.2224 -0.2208
31877W        W74794   5.810  28.677  19.545 -0.0142  0.2098 -0.1811
31878W        W74795   7.381  28.786  16.973  0.1932  0.2652 -0.2154
31879W        W74796   4.613  24.846  18.706  0.0503 -0.0842 -0.2202
31880W        W74797   5.837  25.522  16.517  0.1436  0.1319 -0.0382
31881W        W74798   5.252  27.011  16.352 -0.1204  0.2578 -0.1690
31882W        W74799   6.408  28.636  17.423 -0.4031  0.2725 -0.0617
31883W        W74800   3.478  27.806  18.187  0.1174 -0.2933  0.4977
31884W        W74801   7.023  27.693  20.250  0.2378 -0.2096 -0.2255
31885W        W74802   4.987  29.386  18.702 -0.3401 -0.0555 -0.1749
31886W        W74803   6.917  28.455  17.733 -0.0661  0.0857  0.1605
31887W        W74804   5.228  28.819  17.767 -0.0294 -0.0231 -0.1839
31888W        W74805   7.554  26.522  16.117 -0.0851 -0.0058  0.0402
31889W        W74806   6.975  30.126  18.500 -0.3393 -0.2016 -0.0693
31890W        W74807   9.440  30.776  19.466  0.2676  0.1804 -0.1495
31891W        W74808   4.867  30.180  19.540  0.2282 -0.1808  0.0638
31892W        W74809   7.670  28.039  20.332 -0.2309 -0.1069 -0.0841
31893W        W74810   3.102  23.995  19.609  0.2049 -0.1447 -0.2899
31894W        W74811   3.755  27.395  16.865 -0.2285 -0.0149  0.1381
31895W        W74812   5.180  28.126  17.250  0.0348 -0.1894  0.2096
31896W        W74813   8.848  25.960  16.620  0.2683 -0.0337 -0.0229
31897W        W74814   6.461  29.047  18.492  0.1858  0.1652 -0.0472
31898W        W74815   7.788  28.351  16.692 -0.0562 -0.0089 -0.3577
31899W        W74816   3.873  28.859  19.681  0.1483 -0.1741  0.4186
31900W        W74817   5.664  28.041  17.321 -0.1579  0.1831  0.0644
31901W        W74818   5.405  28.282  23.521  0.0069 -0.1033  0.1054
31902W        W74819   6.281  26.574  19.322  0.2829 -0.1664 -0.0405
31903W        W74820   8.018  27.703  20.074 -0.0317 -0.4826 -0.3617
31904W        W74821   7.539  28.904  21.143  0.1588  0.2265 -0.3641
31905W        W74822   4.236  26.545  20.212  0.0047 -0.0909  0.2091
31906W        W74823   8.563  26.897  21.592 -0.1517  0.0945 -0.1122
31907W        W74824   2.540  25.329  23.367  0.1437 -0.2185 -0.0547
31908W        W74825   5.229  28.250  20.813 -0.0572 -0.0547  0.0261
31909W        W74826   6.125  28.250  19.503  0.2068  0.0745  0.0923
31910W        W74827   7.159  29.935  20.718  0.1875  0.2086  0.2310
31911W        W74828   3.713  26.974  21.672  0.5489 -0.0290 -0.0124
31912W        W74829   4.614  27.614  21.387  0.2013  0.0842  0.1213
31913W        W74830   6.226  27.858  20.712 -0.1205  0.0814  0.1320
31914W        W74831   5.315  24.893  22.359 -0.1890 -0.1569 -0.0784
31915W        W74832   7.998  29.646  21.664 -0.2975 -0.3321  0.1530
31916W        W74833   4.401  28.933  22.934 -0.4576  0.0760 -0.3361
31917W        W74834   2.818  26.568  23.780  0.1430  0.2630  0.0250
31918W        W74835   6.445  26.924  22.568 -0.0543 -0.1885 -0.0867
31919W        W74836   7.337  31.241  20.607  0.0306  0.0510 -0.0821
31920W        W74837   4.517  24.452  22.619  0.0942 -0.1533 -0.0283
31921W        W74838   4.294  26.649  21.893  0.0275 -0.3069 -0.2054
31922W        W74839   6.002  28.445  20.054  0.0454  0.2546 -0.0708
31923W        W74840   3.438  26.061  20.474  0.0899  0.1094 -0.0891
31924W        W74841   1.938  26.337  21.757 -0.1394 -0.3207  0.1078
31925W        W74842   3.476  27.507  23.501 -0.1653 -0.1840 -0.1956
31926W        W74843   6.674  27.116  21.761  0.2641  0.0241 -0.2488
31927W        W74844   7.502  27.892  22.092  0.4140 -0.0465 -0.2655
31928W        W74845   5.293  29.555  22.321 -0.0953 -0.2011  0.2739
31929W        W74846   6.227  29.386  21.593 -0.3773  0.2213 -0.1003
31930W        W74847   7.395  26.261  21.808 -0.2885 -0.0445 -0.2106
31931W        W74848   4.079  27.731  22.596 -0.1993 -0.1447  0.2535
31932W        W74849   2.570  29.827  20.932 -0.4137 -0.0545 -0.0406
31933W        W74850   4.539  29.461  21.276  0.3118 -0.0572 -0.1732
31934W        W74851   7.577  29.231  21.488  0.0104 -0.1038  0.1392
31935W        W74852   6.690  30.064  22.207 -0.0453 -0.0245 -0.1238
31936W        W74853   5.129  29.451  22.829  0.0928 -0.1086  0.1188
31937W        W74854   4.959  28.958  21.749  0.1467 -0.0227 -0.2307
31938W        W74855   5.606  31.044  20.952  0.1599  0.3418  0.1174
31939W        W74856   3.331  29.119  22.498 -0.1046  0.0083 -0.0352
31940W        W74857   4.391  27.380  22.383 -0.2757  0.1729  0.3721
31941W        W74858   7.417  27.742  20.729 -0.0375  0.0650 -0.0796
31942W        W74859   4.643  29.392  19.119 -0.0457  0.2931  0.0192
31943W        W74860   7.325  28.212  19.484  0.1961  0.2130  0.0128
31944W        W74861   4.641  26.753  24.089  0.0444 -0.0202 -0.1646
31945W        W74862   3.849  28.126  22.309 -0.2682 -0.2067  0.3225
31946W        W74863   8.380  26.949  24.911 -0.0982 -0.0854  0.0008
31947W        W74864   6.360  28.096  20.233 -0.1339  0.1320  0.0760
31948W        W74865   8.190  26.979  20.861 -0.0033 -0.4411 -0.0854
31949W        W74866   7.362  27.314  21.005  0.0797  0.2880  0.0998
31950W        W74867   5.473  26.859  18.172  0.0442  0.1425 -0.1285
31951W        W74868   3.873  24.950  23.293 -0.3631 -0.4005 -0.1053
31952W        W74869   3.918  28.946  23.873 -0.3446  0.1254  0.1089
31953W        W74870   5.256  25.898  20.898  0.0609 -0.1790  0.0960
31954W        W74871   6.268  30.646  22.960  0.1179 -0.0645  0.2163
31955W        W74872   6.396  26.734  20.911  0.1201  0.0714 -0.1547
31956W        W74873   8.467  26.382  21.597  0.0756  0.0216  0.4323
31957W        W74874   3.708  28.496  23.750  0.0800  0.1066  0.0048
31958W        W74875   2.439  25.396  24.826  0.1098 -0.1840  0.0086
31959W        W74876   8.249  26.635  21.239  0.1779  0.0983 -0.0847
31960W        W74877   7.525  28.444  20.100 -0.0081 -0.4074 -0.2820
31961W        W74878   5.896  30.446  19.722 -0.1390 -0.1429  0.2428
31962W        W74879   5.650  28.482  22.194  0.1203 -0.0319 -0.1733
31963W        W74880   5.588  25.832  22.100 -0.0753  0.3246  0.1902
31964W        W74881   4.988  26.696  22.941 -0.0944  0.0456 -0.0738
31965W        W74882   5.843  27.351  18.566 -0.2207 -0.0841  0.0944
31966W        W74883   7.129  30.524  21.546  0.1595 -0.3760 -0.0626
31967W        W74884   2.921  28.095  23.720 -0.1853 -0.1185  0.0427
31968W        W74885   8.091  28.171  22.028  0.1321 -0.0582 -0.0023
31969W        W74886   5.353  27.076  22.263  0.0510 -0.0493 -0.1378
31970W        W74887   4.849  28.357  22.149 -0.0422 -0.1603 -0.0115
31971W        W74888   5.460  27.323  20.566 -0.0599  0.2379  0.5009
31972W        W74889   5.472  25.482  20.610  0.1764  0.0621 -0.0784
31973W        W74890   5.445  27.755  22.891  0.3430  0.4024 -0.1122
31974W        W74891   4.217  26.064  21.601  0.2680 -0.0122  0.0255
31975W        W74892   5.162  29.114  22.418  0.0124 -0.0065  0.3015
31976W        W74893   6.357  30.147  22.774  0.1563  0.2573  0.0464
31977W        W74894   7.651  27.685  18.786  0.2330 -0.0527  0.1744
31978W        W74895   4.600  30.661  22.117 -0.1164 -0.0542  0.0556
31979W        W74896   3.770  27.198  23.287 -0.1539 -0.3379 -0.2524
31980W        W74897   5.362  28.927  22.856 -0.2637 -0.0644 -0.1046
31981W        W74898   5.702  28.152  20.918  0.0459 -0.2613  0.0958
31982W        W74899   2.648  29.539  22.474  0.0469  0.3228 -0.0398
31983W        W74900   5.643  27.014  19.221 -0.1869  0.1558 -0.0718
31984W        W74901   5.783  25.888  23.556  0.2494  0.0094  0.2380
31985W        W74902   5.993  27.211  23.364  0.0009  0.0120  0.0998
31986W        W74903   7.892  28.121  17.651 -0.0080 -0.0596 -0.3232
31987W        W74904   1.458  24.288  22.665  0.3460 -0.0878 -0.3037
31988W        W74905   9.029  26.475  20.804 -0.0242 -0.1961 -0.1908
31989W        W74906   4.697  27.332  18.346  0.0657 -0.0684 -0.3416
31990W        W74907   5.779  29.447  22.493 -0.1599  0.0295 -0.0929
31991W        W74908   8.678  26.235  18.013  0.0624 -0.0233  0.0760
31992W        W74909   7.474  29.512  20.514  0.2350  0.1741 -0.0202
31993W        W74910   3.802  25.892  23.041  0.2862 -0.0023  0.0839
31994W        W74911   6.905  27.511  20.748 -0.0318 -0.0772 -0.2402
31995W        W74912   3.016  24.783  25.047  0.0804 -0.0023  0.3012
31996W        W74913   3.008  26.390  21.090  0.1419  0.0236 -0.1753
31997W        W74914   4.703  28.307  20.664 -0.0942 -0.1320  0.2368
31998W        W74915   6.040  24.433  21.558  0.2404  0.1165 -0.1758
31999W        W74916   5.790  26.259  22.173 -0.0658  0.1201 -0.0386
32000W        W74917   6.678  27.898  21.567 -0.3143  0.0071 -0.1212
32001W        W74918   3.866  26.486  21.716  0.1344 -0.0535 -0.3138
32002W        W74919   7.773  27.189  21.980  0.1918 -0.1244  0.3275
32003W        W74920   5.066  28.045  21.497 -0.0342  0.1631  0.2358
32004W        W74921   6.085  30.815  20.904 -0.1335  0.1698 -0.0792
32005W        W74922   5.883  28.910  22.903  0.2031  0.1756 -0.4689
32006W        W74923   2.480  26.286  22.978 -0.2278 -0.2758  0.0651
32007W        W74924   5.063  26.264  19.453 -0.1970 -0.1589 -0.0533
32008W        W74925   3.900  30.755  22.102  0.2515  0.0123 -0.1452
32009W        W74926   5.637  28.516  20.428 -0.0511  0.0200  0.1898
32010W        W74927   5.939  27.104  20.659  0.3351 -0.1298  0.2140
32011W        W74928   6.759  29.450  21.676 -0.0976  0.1036  0.1927
32012W        W74929   6.371  29.545  20.845 -0.0525  0.0532  0.0402
32013W        W74930   3.355  26.642  22.447  0.1194  0.1567  0.1382
32014W        W74931   3.106  25.010  22.853 -0.1466 -0.2201 -0.1088
32015W        W74932   8.078  28.160  23.509 -0.0512  0.0283  0.1724
32016W        W74933   5.989  27.439  21.930 -0.3631  0.1456 -0.3108
32017W        W74934   3.208  25.912  20.016  0.2148 -0.0154 -0.1134
32018W        W74935   5.973  30.419  20.570  0.1990 -0.1627 -0.1107
32019W        W74936   3.747  28.753  22.411 -0.1924  0.1368  0.0260
32020W        W74937   2.552  24.404  22.854  0.1356 -0.1380 -0.3405
32021W        W74938   5.519  27.447  21.893  0.1539 -0.0931 -0.3067
32022W        W74939   7.307  26.216  20.840  0.2989  0.0044  0.1266
32023W        W74940   4.132  26.776  23.128  0.0492 -0.0412 -0.0856
32024W        W74941   3.323  26.097  21.969 -0.1135 -0.0233 -0.0916
32025W        W74942   2.622  27.022  21.657 -0.2024 -0.4090 -0.1320
32026W        W74943   4.122  27.534  24.870 -0.2702 -0.1395  0.0126
32027W        W74944   3.902  26.511  22.712 -0.2511 -0.2477  0.1214
32028W        W74945   7.368  26.802  20.721 -0.2169  0.2076 -0.2319
32029W        W74946   4.820  28.391  24.020 -0.0200  0.0039 -0.1258
32030W        W74947   7.023  28.038  21.959 -0.1797  0.2439 -0.3009
32031W        W74948   4.690  28.007  21.770  0.1676  0.1098  0.1864
32032W        W74949   7.643  28.109  18.540 -0.0161 -0.0424 -0.4550
32033W        W74950   4.355  27.703  23.907  0.1999  0.1222 -0.0096
32034W        W74951   6.411  28.768  20.279  0.1441  0.0676 -0.1428
32035W        W74952   4.344  28.854  21.505  0.0352 -0.0322  0.2767
32036W        W74953   4.146  25.502  20.601 -0.0093  0.2810 -0.2184
32037W        W74954   6.241  29.986  19.757 -0.3950  0.0264 -0.1737
32038W        W74955   4.284  28.433  23.007  0.3071 -0.1952  0.3415
32039W        W74956   3.906  27.241  22.372 -0.1097 -0.2005 -0.1121
32040W        W74957   6.384  31.308  21.685 -0.1287  0.3316  0.1408
32041W        W74958   4.408  26.305  23.218 -0.1495 -0.1218  0.0540
32042W        W74959   3.324  26.140  21.369  0.3149  0.2429  0.2477
32043W        W74960   4.740  24.960  22.482 -0.0517 -0.2652  0.1493
32044W        W74961   4.996  26.917  18.406  0.0798 -0.0438  0.0269
32045W        W74962   4.934  28.509  21.061 -0.0747  0.1397 -0.1735
32046W        W74963   3.623  26.493  24.082 -0.1320 -0.0302 -0.0933
32047W        W74964   4.423  24.867  24.821  0.2544 -0.1739 -0.2314
32048W        W74965   6.159  28.278  26.078  0.1336  0.0190  0.1776
32049W        W74966   8.586  28.317  22.231 -0.3041 -0.0753 -0.1328
32050W        W74967   4.595  28.115  21.241  0.1582  0.1014  0.0630
32051W        W74968   5.329  27.403  19.380  0.1122 -0.2370 -0.2823
32052W        W74969   7.016  26.457  23.159  0.0193 -0.1808  0.0032
32053W        W74970   3.531  27.537  21.984 -0.0245  0.0006  0.1662
32054W        W74971   1.674  30.319  23.850 -0.0962 -0.3300  0.1422
32055W        W74972   5.519  29.990  21.391 -0.1286 -0.0370 -0.2961
32056W        W74973   5.840  28.027  21.343 -0.0770  0.1861  0.1213
32057W        W74974   4.404  27.252  23.383  0.0397  0.0695  0.1667
32058W        W74975   6.513  26.315  21.338  0.1716  0.2189 -0.0504
32059W        W74976   5.751  29.595  21.765  0.1631 -0.0592 -0.2934
32060W        W74977   7.215  28.089  20.999 -0.2068  0.0701 -0.1495
32061W        W74978   4.639  24.822  21.265  0.3962 -0.3628 -0.0520
32062W        W74979   5.224  30.808  20.813  0.2525 -0.1358  0.0167
32063W        W74980   7.020  29.957  19.007  0.1437  0.2530  0.2127
32064W        W74981   2.593  26.357  24.838 -0.0932 -0.0814  0.0361
32065W        W74982   7.151  28.203  21.532 -0.5209 -0.0998 -0.1350
32066W        W74983   7.293  26.564  22.297  0.2292 -0.0756 -0.2546
32067W        W74984   5.009  27.634  20.625  0.1304 -0.0151 -0.1400
32068W        W74985   3.831  26.350  20.451 -0.2201  0.0282  0.4103
32069W        W74986   3.961  27.169  20.760  0.3292 -0.0943  0.2036
32070W        W74987   6.974  26.071  20.341  0.0997  0.0092  0.3436
32071W        W74988   5.646  28.962  22.323  0.0463  0.2404 -0.2410
32072W        W74989   4.762  26.602  20.781 -0.3813  0.0896 -0.1095
32073W        W74990   4.868  25.269  23.095  0.0786  0.0929 -0.2187
32074W        W74991   2.672  30.064  22.403  0.1850  0.1283  0.2132
32075W        W74992   5.804  27.842  22.218 -0.1340  0.2542  0.1468
32076W        W74993   7.269  27.601  21.718 -0.0036  0.4051  0.0591
32077W        W74994   5.242  28.867  21.341  0.2336 -0.0737  0.0337
32078W        W74995   4.015  27.231  23.725  0.0038  0.1109 -0.0463
32079W        W74996   4.694  26.086  21.676  0.3341 -0.0608 -0.2749
32080W        W74997   7.708  29.488  22.173 -0.6109 -0.2678 -0.1979
32081W        W74998   4.132  27.100  21.930  0.3041 -0.0499 -0.1039
32082W        W74999   3.993  28.018  20.219  0.0452 -0.1532  0.0082
32083W        W75000   5.614  29.171  21.428 -0.0005  0.2497  0.1038
32084W        W75001   4.505  27.541  21.874 -0.0663  0.0467  0.2896
32085W        W75002   4.515  29.639  20.431 -0.0292  0.2482 -0.1425
32086W        W75003   3.416  25.725  25.904 -0.0356 -0.0555  0.0451
32087W        W75004   6.011  26.279  20.509  0.3432 -0.0056  0.2581
32088W        W75005   4.344  26.280  22.362 -0.0472 -0.1654 -0.0317
32089W        W75006   6.150  27.185  21.243 -0.0405  0.1049  0.1293
32090W        W75007   5.298  26.432  22.148  0.1058  0.2060  0.1135
32091W        W75008   5.188  28.600  22.465  0.1460  0.0462  0.0652
32092W        W75009   5.106  27.922  22.054 -0.0409 -0.1530  0.1457
32093W        W75010   1.676  28.765  23.106 -0.0288  0.2556  0.2388
32094W        W75011   5.694  26.765  23.543  0.2703  0.1416 -0.1077
32095W        W75012   8.646  29.826  18.338 -0.2014  0.1004 -0.0545
32096W        W75013   6.724  27.977  23.157  0.2817  0.1626 -0.0072
32097W        W75014   6.555  30.226  18.968  0.1728  0.0829  0.0578
32098W        W75015   3.680  26.016  23.819  0.1315 -0.1911  0.0224
32099W        W75016   5.386  28.712  20.929 -0.2331  0.2227 -0.1489
32100W        W75017   6.425  27.859  22.031 -0.1645 -0.0502 -0.0414
32101W        W75018   4.806  27.169  21.463  0.0373 -0.1586 -0.1547
32102W        W75019   4.277  28.869  20.296  0.1908 -0.1171 -0.3543
32103W        W75020   4.370  29.664  21.918  0.4064 -0.2578  0.1449
32104W        W75021   7.167  25.196  19.204 -0.2639 -0.0152 -0.0647
32105W        W75022   7.257  29.347  19.649 -0.0540  0.1246  0.1391
32106W        W75023   2.396  26.602  22.628 -0.2434  0.1402  0.2559
32107W        W75024   7.031  27.696  22.866 -0.2566 -0.2548  0.1943
32108W        W75025   6.521  26.801  20.416  0.2518  0.0912  0.0502
32109W        W75026   6.587  26.597  21.949  0.0958 -0.1689  0.0053
32110W        W75027   3.003  26.135  23.577  0.2752 -0.1264  0.1714
32111W        W75028   5.782  27.660  20.895  0.0710  0.0730  0.0295
32112W        W75029   3.518  27.003  22.129 -0.0695  0.1116  0.3523
32113W        W75030   5.502  30.042  21.961 -0.0174 -0.0368  0.1024
32114W        W75031   3.393  28.094  23.566 -0.0728  0.3409 -0.1456
32115W        W75032   4.564  26.553  22.758 -0.2432 -0.0909 -0.0648
32116W        W75033   4.184  25.180  19.481 -0.0105 -0.0889  0.2578
32117W        W75034   4.453  28.037  22.751 -0.1237 -0.0625 -0.1304
32118W        W75035   4.517  27.877  20.794 -0.1292 -0.4651 -0.0393
32119W        W75036   6.216  27.692  21.179 -0.2748  0.1033 -0.1321
32120W        W75037   5.711  25.571  21.130 -0.0435  0.3166 -0.0510
32121W        W75038   3.765  26.696  21.053 -0.1761  0.0722  0.1166
32122W        W75039   7.396  28.739  21.627 -0.3572  0.2431  0.0218
32123W        W75040   6.866  28.425  20.756  0.0139 -0.1548  0.0240
32124W        W75041   3.929  27.470  21.694 -0.1193  0.0278  0.3657
32125W        W75042   4.344  25.901  22.046 -0.1233 -0.0100 -0.0413
32126W        W75043   5.947  27.925  19.916  0.0599  0.0016  0.0800
32127W        W75044   5.501  26.745  23.052 -0.0379 -0.2432 -0.3945
32128W        W75045   6.395  27.777  22.647  0.0728  0.0270 -0.0405
32129W        W75046   7.781  26.461  22.134  0.2114 -0.0095  0.1385
32130W        W75047   2.311  26.636  21.788 -0.0414  0.0307  0.0010
32131W        W75048   4.227  25.628  24.332 -0.3282  0.1688 -0.0487
32132W        W75049   6.721  30.898  22.070 -0.1687 -0.1976  0.1833
32133W        W75050   6.922  27.038  20.877 -0.1241  0.0667  0.0300
32134W        W75051   6.670  28.964  21.592  0.0352  0.1016  0.1555
32135W        W75052   7.757  26.839  21.185 -0.0026 -0.1579 -0.1626
32136W        W75053   6.151  27.726  18.882  0.0695  0.2951 -0.1514
32137W        W75054   4.851  27.381  22.239 -0.0924 -0.1130 -0.0074
32138W        W75055   7.518  27.697  23.035  0.2239 -0.0301 -0.0931
32139W        W75056   4.346  26.185  18.231 -0.0312 -0.2144 -0.0183
32140W        W75057   6.919  26.341  24.156 -0.1039 -0.0183  0.0846
32141W        W75058   5.307  29.776  20.190 -0.0235 -0.0398 -0.1741
32142W        W75059   6.272  28.228  21.177  0.1021 -0.3053  0.0684
32143W        W75060   6.664  27.384  21.200 -0.0082  0.0186  0.2128
32144W        W75061   4.336  25.659  23.064  0.3707  0.3166  0.0118
32145W        W75062   4.116  29.605  22.985  0.0429 -0.0435 -0.2661
32146W        W75063   4.475  26.891  17.273  0.1638 -0.0154 -0.3364
32147W        W75064   5.462  26.981  19.718  0.0337 -0.3343 -0.2621
32148W        W75065   7.549  27.251  21.498  0.0271  0.0419 -0.4777
32149W        W75066   6.492  29.839  21.361  0.0227 -0.0322 -0.1213
32150W        W75067   5.471  26.040  21.310  0.1974 -0.0998 -0.1206
32151W        W75068   6.795  25.667  22.003  0.1773 -0.0961  0.0073
32152W        W75069   5.515  28.087  20.091  0.0632  0.0297 -0.0126
32153W        W75070   6.534  26.530  23.030 -0.1212  0.0400 -0.3205
32154W        W75071   5.425  28.110  22.410 -0.0263 -0.7860  0.0926
32155W        W75072   2.162  29.105  23.125 -0.0168 -0.2155 -0.1698
32156W        W75073   4.815  26.823  22.368 -0.3583 -0.1394 -0.0493
32157W        W75074   7.822  26.594  20.810 -0.0554  0.1451  0.0992
32158W        W75075   5.219  26.432  20.533 -0.2419 -0.0083  0.0346
32159W        W75076   5.672  27.423  22.560 -0.1340  0.2693 -0.3916
32160W        W75077   6.739  27.458  25.200  0.0270  0.2317 -0.3317
32161W        W75078   5.104  29.460  21.328 -0.4063 -0.3423 -0.3718
32162W        W75079   4.957  27.063  20.700  0.3234 -0.0572  0.2847
32163W        W75080   5.821  28.734  21.176  0.0874 -0.2942  0.2889
32164W        W75081   6.422  27.389  22.220  0.1542  0.2254 -0.0565
32165W        W75082   3.345  27.408  22.468 -0.0535  0.0840 -0.0681
32166W        W75083   4.096  27.674  23.420 -0.1428  0.0467 -0.2695
32167W        W75084   6.248  27.775  23.579  0.3462 -0.3683  0.1156
32168W        W75085   8.294  27.837  20.970 -0.0068 -0.0363  0.0860
32169W        W75086   3.868  26.108  22.231 -0.0214  0.1644 -0.4431
32170W        W75087   6.538  26.818  21.366  0.3363 -0.1345  0.1342
32171W        W75088   3.140  28.554  25.113 -0.1295 -0.4651 -0.1032
32172W        W75089   3.317  27.672  24.011  0.1871 -0.0064  0.1425
32173W        W75090   3.481  29.516  20.288  0.3843 -0.0559  0.2749
32174W        W75091   6.036  29.721  21.313 -0.3711  0.2419 -0.2209
32175W        W75092   6.392  28.369  20.664  0.2159 -0.0504 -0.1736
32176W        W75093   7.567  31.132  21.109  0.2263 -0.1032  0.0640
32177W        W75094   6.420  27.309  20.762  0.2849 -0.0740 -0.1402
32178W        W75095   4.849  29.477  21.797  0.2562 -0.0118 -0.3777
32179W        W75096   3.831  28.710  20.545 -0.1090 -0.1059 -0.0417
32180W        W75097   6.783  30.721  20.141  0.1934 -0.3238 -0.0679
32181W        W75098   5.974  28.647  20.726  0.0951 -0.1557  0.2842
32182W        W75099   6.321  28.932  23.314  0.1322  0.3667 -0.0083
32183W        W75100   6.258  25.100  18.061 -0.2949  0.0020 -0.1835
32184W        W75101   7.956  29.122  21.198 -0.2131 -0.0097 -0.0595
32185W        W75102   8.899  24.510  20.946  0.1886  0.0400 -0.1456
32186W        W75103   7.881  29.061  20.734  0.0122  0.3105  0.4834
32187W        W75104   4.236  26.556  20.777 -0.1185  0.2327  0.0905
32188W        W75105   5.237  27.049  17.738  0.0632  0.1586 -0.0561
32189W        W75106   4.904  26.313  23.344 -0.3540 -0.0742 -0.0670
32190W        W75107   6.352  27.455  21.618 -0.0172  0.0791 -0.0616
32191W        W75108   2.608  29.376  23.712 -0.1748  0.0240 -0.4852
32192W        W75109   5.842  30.087  21.011  0.4494 -0.2790  0.0039
32193W        W75110   4.516  27.457  20.529  0.0421 -0.0751 -0.0344
32194W        W75111   6.841  27.160  20.271 -0.1996 -0.0163  0.0285
32195W        W75112   7.598  26.404  23.043  0.1918  0.0227  0.1172
32196W        W75113   5.744  26.964  21.555  0.0569 -0.0099  0.1532
32197W        W75114   5.887  26.494  22.712  0.4436 -0.0160  0.0665
32198W        W75115   4.674  28.545  20.178  0.3420 -0.2034 -0.3264
32199W        W75116   5.432  30.426  21.604 -0.0382 -0.2210 -0.3156
32200W        W75117   4.190  29.672  23.494 -0.2129 -0.0503  0.3329
32201W        W75118   5.700  27.542  19.029  0.1451  0.1175 -0.1773
32202W        W75119   7.946  28.095  21.160 -0.1185 -0.0887  0.0841
32203W        W75120   3.919  26.357  23.240  0.2203 -0.0242 -0.0851
32204W        W75121   5.105  26.444  21.608  0.1160  0.0489 -0.0387
32205W        W75122   4.171  28.208  21.983 -0.2655 -0.1708 -0.2108
32206W        W75123   7.063  26.665  20.363 -0.1101 -0.1919  0.0089
32207W        W75124   2.891  28.942  22.359 -0.4843 -0.2768  0.2163
32208W        W75125   2.949  27.149  23.366  0.0490  0.1556 -0.0814
32209W        W75126   6.237  27.612  18.313 -0.0559  0.0205 -0.1545
32210W        W75127   5.411  28.374  21.249  0.2114  0.0538 -0.2581
32211W        W75128   8.776  26.200  20.386 -0.2141  0.0466  0.2413
32212W        W75129   7.142  30.905  18.839  0.0441 -0.1214  0.0991
32213W        W75130   3.265  26.508  20.674 -0.3070  0.4168  0.0795
32214W        W75131   6.428  28.287  17.027 -0.0148  0.3822  0.1029
32215W        W75132   3.862  26.663  22.201  0.1123  0.1087 -0.3480
32216W        W75133   5.013  27.995  23.615 -0.1458  0.1793 -0.0974
32217W        W75134   7.785  28.106  21.656 -0.0327 -0.0981  0.0610
32218W        W75135   3.285  25.146  21.889 -0.1180  0.0949  0.1257
32219W        W75136   6.929  27.412  19.454  0.2497 -0.0635 -0.0482
32220W        W75137   9.249  26.298  20.417  0.1270  0.2440  0.5861
32221W        W75138   5.360  30.405  20.575  0.1379 -0.0639 -0.2082
32222W        W75139   6.185  29.100  20.667 -0.2822 -0.0345  0.0176
32223W        W75140   6.132  28.998  22.515  0.2496 -0.0068  0.0539
32224W        W75141   5.038  28.077  20.392  0.1242  0.0069  0.1646
32225W        W75142   5.540  29.592  21.084 -0.0787 -0.0727 -0.3094
32226W        W75143   8.785  30.022  22.917  0.0845  0.2107  0.0353
32227W        W75144   3.846  25.293  21.571  0.0811  0.1248  0.1848
32228W        W75145   3.549  28.708  21.947  0.0495 -0.2219  0.0133
32229W        W75146   3.784  29.857  23.713  0.1084  0.1742 -0.0842
32230W        W75147   6.916  26.958  22.195 -0.2976 -0.0852  0.0685
32231W        W75148   6.212  28.080  23.198 -0.3807  0.0459 -0.0536
32232W        W75149   4.464  29.284  20.094 -0.1388  0.2178 -0.2287
32233W        W75150   8.120  25.635  22.904 -0.0108 -0.0231 -0.0160
32234W        W75151   6.168  28.898  21.601 -0.2453  0.1778  0.0107
32235W        W75152   4.595  29.422  22.833  0.3297 -0.0169 -0.1075
32236W        W75153   2.260  26.177  20.306 -0.0241 -0.1071 -0.1840
32237W        W75154   3.432  25.543  24.017 -0.0362 -0.0576  0.0016
32238W        W75155   4.712  26.121  20.697  0.1859  0.1371 -0.1090
32239W        W75156   4.492  29.167  20.608 -0.1280  0.1988 -0.0376
32240W        W75157   6.938  30.071  21.642  0.0297  0.2064 -0.3642
32241W        W75158   6.364  28.762  21.110 -0.1073  0.0477  0.0107
32242W        W75159   6.369  29.692  22.445 -0.0530 -0.0162 -0.1509
32243W        W75160   3.393  26.554  22.900 -0.0838  0.0446  0.0183
32244W        W75161   7.396  24.881  22.052 -0.1660  0.0091 -0.1494
32245W        W75162   7.572  26.362  19.549  0.0334 -0.1077 -0.2534
32246W        W75163   5.220  27.392  21.353  0.0663 -0.2498 -0.1723
32247W        W75164   4.069  27.761  20.666 -0.0387  0.1165 -0.2219
32248W        W75165   3.363  28.609  20.718  0.1395 -0.1061 -0.1758
32249W        W75166   4.011  27.997  23.065 -0.0523 -0.4041  0.0109
32250W        W75167   5.294  26.316  22.986 -0.0230 -0.1446 -0.1769
32251W        W75168   2.740  28.252  22.618  0.0041 -0.0338  0.3479
32252W        W75169   3.797  27.156  24.183  0.3240  0.1515 -0.1078
32253W        W75170   5.026  27.539  21.813  0.0023 -0.1631  0.4023
32254W        W75171   5.373  29.046  20.496 -0.2680 -0.0960  0.2602
32255W        W75172   3.361  26.561  21.842  0.0986 -0.1958 -0.0590
32256W        W75173   1.694  26.835  21.501  0.0168  0.0508  0.0751
32257W        W75174   6.039  30.461  21.406  0.1314 -0.4862 -0.0807
32258W        W75175   7.538  27.004  20.181  0.2397 -0.3456 -0.0660
32259W        W75176   8.023  27.245  20.245  0.0465 -0.1107  0.2100
32260W        W75177   9.554  28.749  22.771 -0.0488  0.3016  0.1360
32261W        W75178   5.112  25.654  20.021  0.0053  0.2291 -0.1257
32262W        W75179   7.398  28.917  23.286 -0.0947  0.1370 -0.0988
32263W        W75180   4.559  27.927  22.290  0.0147 -0.0829 -0.1330
32264W        W75181   4.558  25.690  20.372 -0.1774 -0.1835  0.4143
32265W        W75182   6.473  27.297  23.537  0.1776  0.2052 -0.4361
32266W        W75183   5.445  28.461  19.026  0.1874  0.0436  0.0287
32267W        W75184   8.630  30.176  20.087 -0.0224  0.1010 -0.3413
32268W        W75185   6.720  28.386  21.415 -0.2734 -0.3511  0.0017
32269W        W75186   4.154  26.732  21.378 -0.0704  0.3122 -0.1664
32270W        W75187   3.046  25.558  23.101  0.0650 -0.0807 -0.0361
32271W        W75188   7.736  27.143  20.680  0.2903 -0.1101  0.0078
32272W        W75189   3.725  28.353  21.589  0.1987  0.5172 -0.1981
32273W        W75190   7.617  30.029  20.463  0.0061 -0.0350 -0.0578
32274W        W75191   7.970  26.358  19.927 -0.1794  0.2765 -0.1309
32275W        W75192   8.447  28.298  18.900  0.1167  0.1085 -0.0999
32276W        W75193   1.621  27.024  25.087 -0.0408 -0.0091  0.1233
32277W        W75194   2.470  28.152  23.385  0.2811 -0.1050 -0.4225
32278W        W75195   5.714  28.086  23.235  0.0185  0.0116  0.1716
32279W        W75196   2.166  25.043  21.458  0.1322  0.2266 -0.2594
32280W        W75197   4.783  26.456  22.010  0.0734  0.1157 -0.1204
32281W        W75198   5.592  29.446  19.591 -0.1948  0.1111  0.0572
32282W        W75199   0.567  25.874  21.488 -0.0755 -0.0121  0.1425
32283W        W75200   5.459  26.703  22.560  0.1321 -0.0967 -0.1984
32284W        W75201   5.097  26.622  24.316  0.1630 -0.0382 -0.0131
32285W        W75202   4.385  28.537  19.385  0.0807 -0.1173 -0.4240
32286W        W75203   3.982  25.406  23.395  0.0992 -0.2143 -0.0729
32287W        W75204   6.230  29.689  20.221 -0.1234  0.2687  0.2168
32288W        W75205   8.467  27.494  19.377  0.2661  0.0794 -0.0169
32289W        W75206   8.405  31.457  20.492 -0.0961  0.0239  0.1592
32290W        W75207   5.295  28.711  23.320 -0.0190 -0.0024  0.4481
32291W        W75208   7.014  28.826  22.311  0.2267 -0.3875  0.1156
32292W        W75209   7.163  28.317  22.355  0.4193  0.2884  0.1986
32293W        W75210   3.677  24.966  22.806  0.0178 -0.2071 -0.1262
32294W        W75211   5.685  26.747  22.080  0.0750  0.1783  0.2583
32295W        W75212   4.083  28.092  21.105  0.1014  0.2228 -0.1158
32296W        W75213   7.911  26.435  21.648 -0.1430  0.0641 -0.0293
32297W        W75214   6.058  26.683  21.333 -0.0230 -0.2165 -0.0102
32298W        W75215   8.043  24.931  19.750  0.2213  0.4037 -0.1680
32299W        W75216   3.993  30.617  23.197  0.0388 -0.0580  0.1998
32300W        W75217   8.027  27.541  21.578  0.2375  0.1493  0.2011
32301W        W75218   6.349  27.053  26.207  0.1728 -0.1551  0.3013
32302W        W75219   4.893  24.996  24.426  0.2895  0.1305 -0.1155
32303W        W75220   5.975  28.054  22.777  0.2237 -0.2396 -0.1652
32304W        W75221   6.984  28.610  24.549  0.2799 -0.0818 -0.0947
32305W        W75222   3.464  24.396  24.549 -0.1645  0.0824  0.0173
32306W        W75223   5.372  29.910  23.495  0.0282  0.0940 -0.0890
32307W        W75224   3.681  24.741  27.568  0.3097  0.0882  0.2007
32308W        W75225   6.970  29.260  24.401  0.0127  0.4572 -0.0007
32309W        W75226   5.328  27.784  25.923  0.0939  0.1592  0.1440
32310W        W75227   6.527  28.371  21.953 -0.0475 -0.1128  0.2594
32311W        W75228   5.900  26.160  26.555 -0.0536 -0.1978  0.0030
32312W        W75229   4.633  28.928  25.085  0.0822 -0.2494 -0.0373
32313W        W75230   4.205  26.846  24.559 -0.0253 -0.0050 -0.1616
32314W        W75231   2.574  25.848  27.809  0.0139  0.0723  0.0301
32315W        W75232   6.742  28.138  27.551 -0.1043  0.2877 -0.0582
32316W        W75233   2.926  26.194  24.477 -0.0355  0.1078 -0.0213
32317W        W75234   4.312  26.045  26.719 -0.0357 -0.1519 -0.2562
32318W        W75235   5.072  27.028  23.968  0.0515 -0.1132 -0.0417
32319W        W75236   5.648  28.449  22.866 -0.1908  0.0643  0.0784
32320W        W75237   5.541  25.940  26.971  0.3068  0.1479  0.0669
32321W        W75238   6.468  26.219  27.258 -0.1989  0.0968 -0.1999
32322W        W75239   5.465  27.277  23.036  0.1359 -0.1523 -0.2361
32323W        W75240   3.515  25.144  25.007  0.0111  0.0834  0.3359
32324W        W75241   4.822  26.991  26.535  0.2381  0.2851 -0.3023
32325W        W75242   5.972  28.247  26.937 -0.3193 -0.1862 -0.1133
32326W        W75243   5.826  26.035  24.079  0.1008  0.4397  0.1032
32327W        W75244   6.625  28.388  24.147 -0.0947 -0.0342 -0.1644
32328W        W75245   8.218  28.237  23.980  0.0836  0.1360 -0.0195
32329W        W75246   8.047  28.394  24.879 -0.0549 -0.0207  0.1267
32330W        W75247   6.018  27.460  25.772  0.0401 -0.1872 -0.0944
32331W        W75248   4.453  30.268  25.982  0.0719 -0.1255 -0.0562
32332W        W75249   4.417  28.041  24.804  0.2296  0.3749 -0.0510
32333W        W75250   3.296  27.789  25.558 -0.3342  0.2262  0.1399
32334W        W75251   6.748  26.881  25.907 -0.1505 -0.0074  0.1549
32335W        W75252   6.655  28.380  25.957 -0.2321 -0.0774  0.2370
32336W        W75253   4.849  29.450  26.737 -0.0829  0.0266 -0.3225
32337W        W75254   6.541  29.133  24.713  0.0824  0.0454  0.0255
32338W        W75255   5.470  29.349  25.414 -0.0611  0.0131  0.1371
32339W        W75256   4.869  28.458  27.060 -0.0923  0.0886 -0.0528
32340W        W75257   5.926  25.710  26.282  0.0372 -0.2439 -0.2178
32341W        W75258   5.454  24.831  24.903  0.1466 -0.0922 -0.0330
32342W        W75259   8.221  27.392  25.814 -0.0947  0.0424 -0.0325
32343W        W75260   5.492  28.107  26.297  0.0632 -0.1593 -0.2830
32344W        W75261   5.160  28.496  28.595 -0.1464  0.0462  0.0820
32345W        W75262   2.716  28.553  27.627 -0.1418  0.3630  0.1796
32346W        W75263   6.786  25.976  26.919  0.1335  0.1375 -0.0005
32347W        W75264   4.767  27.973  23.115  0.3167 -0.2051 -0.3244
32348W        W75265   7.924  29.503  23.243  0.1976  0.3362 -0.0531
32349W        W75266   7.364  27.898  22.598 -0.0662  0.0096 -0.2071
32350W        W75267   5.597  27.500  26.193  0.0100 -0.3461  0.1505
32351W        W75268   5.990  24.807  24.417 -0.0288 -0.2921 -0.0620
32352W        W75269   5.134  28.386  24.496  0.0014 -0.0897 -0.2125
32353W        W75270   5.509  27.270  24.689  0.0582 -0.0381  0.0782
32354W        W75271   6.640  29.265  23.532 -0.1209 -0.2187 -0.0752
32355W        W75272   6.678  28.769  23.617 -0.2070  0.0190 -0.1053
32356W        W75273   6.636  26.140  25.179  0.1163  0.0647 -0.3891
32357W        W75274   6.146  29.418  27.705  0.0527 -0.1702 -0.1674
32358W        W75275   4.071  27.112  25.197 -0.0673  0.1210  0.0284
32359W        W75276   4.567  32.914  23.541  0.1541 -0.1758  0.0400
32360W        W75277   7.081  30.861  22.449  0.3668 -0.1944  0.0384
32361W        W75278   4.602  29.282  24.021  0.0058 -0.2375 -0.2736
32362W        W75279   4.413  26.816  23.636  0.0741  0.0098 -0.0233
32363W        W75280   5.410  27.568  28.615  0.1737 -0.1174  0.3523
32364W        W75281   5.748  26.788  27.113  0.2791  0.3008  0.1207
32365W        W75282   4.153  26.068  24.122 -0.1617 -0.1543 -0.0905
32366W        W75283   7.234  27.297  25.254  0.1005  0.2004 -0.2044
32367W        W75284   4.347  28.362  27.782 -0.1770  0.1122  0.2688
32368W        W75285   6.211  28.315  24.910  0.1190 -0.1995  0.2985
32369W        W75286   7.368  29.001  25.633 -0.1098 -0.0752  0.0375
32370W        W75287   7.842  27.820  26.810  0.1461  0.0553 -0.1015
32371W        W75288   7.231  29.640  21.838  0.0594  0.4333  0.1247
32372W        W75289   6.846  27.922  24.116 -0.2692 -0.1374 -0.1002
32373W        W75290   8.271  26.499  26.801 -0.3661  0.3708  0.0094
32374W        W75291   4.100  24.656  24.058 -0.0106  0.1782 -0.0428
32375W        W75292   3.756  27.602  24.527 -0.2840  0.3239 -0.0397
32376W        W75293   6.497  28.275  27.117 -0.2346 -0.0898 -0.0493
32377W        W75294   6.537  29.065  24.135  0.1694 -0.3597 -0.0883
32378W        W75295   6.003  29.650  27.182  0.1370  0.4918  0.3774
32379W        W75296   4.631  26.602  27.574  0.1599  0.4348 -0.2667
32380W        W75297   7.323  27.127  27.967 -0.1716 -0.0048  0.1726
32381W        W75298   6.901  30.438  21.982  0.1558  0.1856  0.2130
32382W        W75299   5.838  29.216  26.780  0.1145  0.1024  0.5129
32383W        W75300   4.456  27.099  25.625  0.2460 -0.0578 -0.0019
32384W        W75301   3.768  26.044  26.066  0.4183  0.0701  0.0006
32385W        W75302   5.021  29.508  25.502  0.3924  0.0371 -0.0532
32386W        W75303   5.706  26.105  25.232  0.0746 -0.2452 -0.0928
32387W        W75304   5.450  26.433  27.251 -0.1061 -0.0867  0.0540
32388W        W75305   6.088  25.894  25.626  0.0642 -0.2055  0.1938
32389W        W75306   3.333  27.160  23.846 -0.1708  0.2852 -0.3670
32390W        W75307   7.312  29.747  25.023 -0.0382 -0.0793 -0.0220
32391W        W75308   9.307  27.691  24.415 -0.1001  0.0818 -0.1008
32392W        W75309   4.968  28.058  22.581 -0.4359  0.2072  0.1264
32393W        W75310   5.290  28.524  29.548 -0.0885  0.0906  0.3708
32394W        W75311   4.895  27.159  23.248 -0.1129 -0.0513  0.1123
32395W        W75312   4.463  27.363  26.991 -0.0477  0.0731  0.1707
32396W        W75313   4.323  25.544  26.735 -0.0173 -0.0841  0.4874
32397W        W75314   6.943  29.329  25.573  0.0893 -0.0282 -0.2981
32398W        W75315   4.354  24.861  26.028 -0.1526 -0.2596  0.0699
32399W        W75316   6.717  27.582  24.495 -0.0390  0.1743  0.0171
32400W        W75317   5.943  27.494  24.781  0.0111  0.2253 -0.1451
32401W        W75318   4.952  28.063  26.245 -0.0322  0.0425  0.1667
32402W        W75319   6.006  24.907  25.500 -0.1985 -0.0957  0.0968
32403W        W75320   6.138  29.837  23.233 -0.3606  0.0430 -0.2545
32404W        W75321   7.832  28.672  25.779  0.0649 -0.1175  0.0965
32405W        W75322   5.827  30.495  24.885 -0.1957 -0.1136  0.2111
32406W        W75323   5.612  27.032  26.066 -0.2602  0.2091 -0.2189
32407W        W75324   3.975  25.813  24.736  0.2290 -0.1318  0.1659
32408W        W75325   3.552  27.428  26.738  0.1549  0.1508 -0.4089
32409W        W75326   5.395  28.547  25.146 -0.0103  0.1512 -0.1174
32410W        W75327   3.798  26.760  23.687 -0.1397 -0.2405 -0.2195
32411W        W75328   6.999  28.859  25.035  0.1587  0.1870  0.1154
32412W        W75329   3.524  27.907  22.604  0.0188  0.2374 -0.1849
32413W        W75330   5.268  25.799  25.468 -0.1075 -0.2161 -0.4957
32414W        W75331   5.981  25.098  23.933  0.1120  0.1472 -0.0341
32415W        W75332   6.855  27.034  24.916  0.0010 -0.0950  0.2074
32416W        W75333   6.377  27.741  25.429  0.1449 -0.2626  0.0956
32417W        W75334   3.619  24.216  25.205  0.0646 -0.0225  0.3628
32418W        W75335   7.874  28.839  27.120  0.1447 -0.0106  0.1974
32419W        W75336   5.749  27.669  24.281  0.0835 -0.1740 -0.1621
32420W        W75337   4.093  27.599  26.623 -0.0246 -0.1878 -0.1525
32421W        W75338   4.984  28.521  25.417  0.1057 -0.0276  0.3153
32422W        W75339   6.275  25.571  24.724 -0.0836  0.0548 -0.1104
32423W        W75340   3.410  29.044  26.889  0.2368  0.2954 -0.0884
32424W        W75341   6.612  25.623  26.483  0.0991 -0.0975 -0.3146
32425W        W75342   4.801  25.887  25.330 -0.0424  0.0935  0.1405
32426W        W75343   6.797  28.539  27.862  0.0427  0.1207 -0.1034
32427W        W75344   5.430  28.274  25.642 -0.1522  0.1593  0.1773
32428W        W75345   8.382  27.366  23.347 -0.2764  0.0008  0.2406
32429W        W75346   6.140  26.339  25.407  0.2200  0.1992 -0.0018
32430W        W75347   6.059  26.601  24.060  0.0268  0.2827  0.2058
32431W        W75348   6.224  27.559  24.389 -0.0795 -0.3086  0.0584
32432W        W75349   6.099  28.717  22.086 -0.2437 -0.0282  0.4310
32433W        W75350   5.111  27.184  25.905  0.0701 -0.1118  0.2474
32434W        W75351   5.376  29.005  23.803  0.2619  0.0097 -0.0524
32435W        W75352   6.471  28.781  25.073 -0.1535  0.3091 -0.1251
32436W        W75353   5.020  27.531  23.823 -0.1693  0.0288 -0.1269
32437W        W75354   6.830  29.633  24.750 -0.3544  0.2010 -0.1162
32438W        W75355   5.480  29.002  27.881 -0.1748 -0.0388 -0.0970
32439W        W75356   6.501  26.523  26.230 -0.0911  0.0356  0.4457
32440W        W75357   7.611  29.263  23.644 -0.3027  0.0596  0.3446
32441W        W75358   6.269  23.079  24.700  0.0158  0.1647  0.0851
32442W        W75359   4.773  28.859  22.304  0.1946 -0.2411 -0.1444
32443W        W75360   4.386  26.426  24.335 -0.1705 -0.0776 -0.0731
32444W        W75361   3.309  28.711  24.489 -0.2074 -0.0476 -0.1739
32445W        W75362   7.154  25.627  26.848 -0.0046  0.0156 -0.0220
32446W        W75363   6.655  26.464  24.683 -0.0180 -0.0860 -0.3176
32447W        W75364   5.988  28.016  24.584 -0.1831 -0.1040  0.0127
32448W        W75365   9.142  28.036  26.680  0.2080  0.0315 -0.0128
32449W        W75366   5.898  28.567  23.331 -0.1022 -0.0259  0.3307
32450W        W75367   5.398  27.799  24.679 -0.0642 -0.1775  0.1275
32451W        W75368   3.096  26.630  24.230  0.0300  0.0678  0.1066
32452W        W75369   8.124  26.634  26.180  0.2044  0.3307  0.0981
32453W        W75370   4.534  26.837  28.078  0.0256 -0.1182  0.1208
32454W        W75371   4.155  28.142  26.825  0.0878 -0.0184  0.1649
32455W        W75372   6.281  29.998  24.123 -0.2431  0.0903  0.0367
32456W        W75373   6.077  26.594  23.224  0.3052 -0.0873  0.0037
32457W        W75374   5.899  25.465  27.622  0.0481  0.1879  0.3640
32458W        W75375   4.874  24.438  25.472  0.0118  0.1628 -0.1483
32459W        W75376   3.594  29.684  23.192  0.2013  0.0700 -0.0941
32460W        W75377   4.327  28.176  23.921  0.0441  0.0338  0.2600
32461W        W75378   5.595  27.756  26.689  0.3266 -0.1342 -0.2187
32462W        W75379   5.823  27.003  26.665 -0.0492 -0.0473  0.1954
32463W        W75380   4.681  28.477  22.617  0.0333 -0.0208  0.1119
32464W        W75381   6.904  27.642  26.743 -0.1438 -0.1737 -0.0397
32465W        W75382   4.387  29.359  26.399 -0.0770 -0.0990  0.1215
32466W        W75383   5.933  24.233  25.187  0.1915 -0.0109 -0.2677
32467W        W75384   2.933  29.718  27.006 -0.1286  0.2393 -0.0610
32468W        W75385   4.941  27.950  24.726 -0.2350  0.0551  0.1758
32469W        W75386   4.596  28.889  26.907  0.0814 -0.1877  0.1576
32470W        W75387   7.236  27.132  21.903 -0.1145  0.0791  0.0655
32471W        W75388   7.501  27.920  24.772 -0.1899 -0.2559  0.0858
32472W        W75389   5.986  28.050  26.506 -0.0626  0.2030 -0.2878
32473W        W75390   4.961  26.457  26.612 -0.0754  0.0813  0.2520
32474W        W75391   4.002  28.468  26.498 -0.1244 -0.1828  0.0072
32475W        W75392   6.539  27.452  25.914 -0.1237  0.3583  0.4313
32476W        W75393   8.261  27.751  23.713  0.3521  0.3755 -0.1813
32477W        W75394   6.504  29.094  27.170 -0.0134 -0.3782  0.0215
32478W        W75395   5.988  28.477  28.298  0.3958 -0.0740  0.2399
32479W        W75396   3.627  24.688  23.735 -0.0566 -0.0200 -0.0643
32480W        W75397   8.600  25.740  26.223  0.0399  0.1147 -0.2900
32481W        W75398   5.633  25.125  26.945  0.2601  0.1939 -0.2438
32482W        W75399   5.602  28.223  24.225  0.0374  0.1207  0.2052
32483W        W75400   5.094  28.298  26.644 -0.4796  0.0680  0.0704
32484W        W75401   5.561  27.616  23.528 -0.1478  0.1363 -0.0692
32485W        W75402   3.909  29.516  26.639  0.1295 -0.1922 -0.0373
32486W        W75403   5.985  26.180  27.133 -0.0811  0.1406 -0.0437
32487W        W75404   6.904  28.509  26.416 -0.1523  0.3756 -0.2028
32488W        W75405   5.169  25.673  26.216 -0.0748 -0.3559  0.3950
32489W        W75406   5.213  26.159  23.708  0.1878 -0.2098  0.1530
32490W        W75407   5.838  25.212  24.668  0.1870  0.1060 -0.0215
32491W        W75408   6.468  28.689  24.487  0.0326 -0.1670  0.0476
32492W        W75409   6.957  26.146  29.126  0.1330 -0.2426 -0.2451
32493W        W75410   6.525  26.176  28.710  0.2192  0.2273  0.1407
32494W        W75411   6.956  26.015  26.431  0.1595 -0.0086 -0.2070
32495W        W75412   8.942  29.209  23.994 -0.2065 -0.3113 -0.1189
32496W        W75413   7.813  26.336  26.920  0.0730  0.2277  0.0279
32497W        W75414   3.045  26.644  24.745  0.1394 -0.1155 -0.1305
32498W        W75415   3.828  27.876  25.617  0.0876 -0.1674  0.2782
32499W        W75416   5.830  28.567  27.338  0.1650 -0.0444 -0.1544
32500W        W75417   6.904  26.378  26.011 -0.0512  0.2985  0.2617
32501W        W75418   2.283  27.904  29.043 -0.0745 -0.1010 -0.1270
32502W        W75419   6.692  27.492  23.987 -0.1119 -0.1939 -0.2922
32503W        W75420   2.896  29.277  28.574 -0.0076 -0.2207  0.0569
32504W        W75421   7.700  27.771  23.508 -0.1452  0.2437  0.0010
32505W        W75422   7.121  29.090  21.360  0.1263 -0.1351  0.0551
32506W        W75423   4.528  24.585  27.417 -0.0389 -0.5303 -0.1095
32507W        W75424   8.576  26.831  27.461 -0.2044 -0.2211  0.1139
32508W        W75425   8.359  27.157  24.395  0.1217  0.0740  0.0118
32509W        W75426   8.220  27.106  26.493  0.1982 -0.0877 -0.1989
32510W        W75427   4.110  26.556  26.662 -0.2694  0.0070 -0.0804
32511W        W75428   7.171  28.040  23.356  0.0422  0.1405 -0.1725
32512W        W75429   4.871  28.007  25.193  0.0384  0.2754 -0.0468
32513W        W75430   6.814  27.827  25.741 -0.1142 -0.1081 -0.2335
32514W        W75431   3.260  27.666  27.779  0.0629  0.2658 -0.1713
32515W        W75432   4.200  25.942  23.488 -0.1534 -0.1774 -0.0757
32516W        W75433   5.000  25.199  23.919  0.1377  0.0295 -0.2503
32517W        W75434   5.992  28.668  25.263  0.0857  0.2284 -0.0512
32518W        W75435   7.711  29.305  26.448  0.0517  0.4313  0.3165
32519W        W75436   4.485  29.160  21.958  0.1042  0.5155  0.1939
32520W        W75437   5.960  27.486  23.868  0.0652 -0.0696 -0.1735
32521W        W75438   6.350  27.854  25.923  0.1805  0.0187  0.1953
32522W        W75439   8.257  28.186  22.541  0.1632 -0.2074  0.0287
32523W        W75440   5.782  28.024  23.786 -0.4112  0.4357  0.0259
32524W        W75441   3.380  27.123  25.013 -0.0194  0.0402  0.1094
32525W        W75442   5.108  25.371  25.730 -0.0383  0.0658 -0.0538
32526W        W75443   7.716  28.421  22.430 -0.1970  0.3864 -0.1615
32527W        W75444   5.971  28.129  25.538 -0.3540 -0.2335 -0.2655
32528W        W75445   5.533  26.434  26.142 -0.0120 -0.0035  0.0648
32529W        W75446   4.940  26.338  25.598 -0.2198 -0.1530 -0.0193
32530W        W75447   5.579  27.312  27.061 -0.1672  0.2428 -0.2296
32531W        W75448   2.890  27.389  26.981 -0.0133  0.4223  0.0633
32532W        W75449   6.315  30.353  26.554  0.1321  0.0079  0.0346
32533W        W75450   7.187  27.692  23.779 -0.3685  0.0573 -0.0655
32534W        W75451   7.293  27.643  25.681 -0.3933 -0.2449  0.2474
32535W        W75452   6.777  27.989  25.134  0.1420  0.0249  0.2166
32536W        W75453   6.189  26.844  23.647  0.0744  0.1783 -0.3447
32537W        W75454   5.592  28.304  24.762 -0.2689  0.1414  0.2276
32538W        W75455   8.027  27.333  28.623  0.2187  0.0699  0.1390
32539W        W75456   4.669  24.908  23.571 -0.1458  0.0664 -0.2159
32540W        W75457   6.287  25.931  26.833 -0.0731 -0.1593  0.0310
32541W        W75458   3.982  28.481  24.149 -0.2978  0.0669  0.2797
32542W        W75459   3.716  28.076  24.325  0.0183  0.0716  0.0350
32543W        W75460   4.865  25.137  24.892 -0.0979 -0.0981  0.1867
32544W        W75461   4.610  28.348  24.474 -0.1879  0.0368 -0.0077
32545W        W75462   4.652  29.821  26.341  0.0287  0.1484  0.2055
32546W        W75463   4.686  26.665  24.692 -0.2479  0.0387  0.0243
32547W        W75464   4.570  27.515  25.272 -0.1437 -0.1634  0.1753
32548W        W75465   5.745  28.516  26.044 -0.3513 -0.1237  0.2022
32549W        W75466   6.774  28.697  27.347  0.2126  0.1527  0.0034
32550W        W75467   5.460  26.223  25.712 -0.0461  0.3061  0.2732
32551W        W75468   7.002  26.333  27.351  0.0317 -0.0649 -0.1149
32552W        W75469   4.874  28.510  24.900  0.2940 -0.1512  0.5814
32553W        W75470   3.766  26.942  26.802  0.3544  0.1323 -0.1086
32554W        W75471   5.199  29.471  26.080 -0.1595 -0.1177 -0.3702
32555W        W75472   5.153  26.600  27.697 -0.0023 -0.4494  0.1380
32556W        W75473   5.926  28.751  27.861 -0.2290  0.0259 -0.1189
32557W        W75474   5.148  26.686  25.273 -0.0384  0.1267  0.0898
32558W        W75475   8.579  28.332  23.530 -0.3298  0.1771  0.0021
32559W        W75476   5.383  28.463  27.091  0.0696 -0.1721 -0.0104
32560W        W75477   5.634  26.099  24.705  0.2362 -0.1677  0.0676
32561W        W75478   7.403  26.053  26.117  0.2039  0.1616  0.1465
32562W        W75479   4.525  27.440  26.415 -0.0713  0.3561 -0.1379
32563W        W75480   4.544  28.429  26.632 -0.0565 -0.1486 -0.3176
32564W        W75481   6.222  28.918  23.814  0.1600  0.0156  0.0533
32565W        W75482   4.769  29.065  26.081 -0.1090 -0.1689 -0.4628
32566W        W75483   4.836  26.451  28.046 -0.2291  0.0320  0.1424
32567W        W75484   6.616  27.558  28.055 -0.1165  0.0279 -0.0449
32568W        W75485   3.822  27.164  24.723  0.1254 -0.0352  0.1425
32569W        W75486   4.003  26.127  25.154  0.0800 -0.1374 -0.0280
32570W        W75487   3.944  29.938  24.273 -0.2335 -0.0489 -0.0971
32571W        W75488   3.166  28.674  27.769  0.1614 -0.0964  0.0833
32572W        W75489   5.045  27.330  26.951 -0.2150 -0.0962 -0.0096
32573W        W75490   2.846  28.969  24.042 -0.0128 -0.2194 -0.0392
32574W        W75491   6.229  28.428  23.668  0.2574  0.0986  0.0913
32575W        W75492   4.521  28.285  25.357 -0.2113  0.0342 -0.3413
32576W        W75493   6.726  28.416  24.918  0.0840 -0.1102  0.0006
32577W        W75494   4.474  25.436  24.695 -0.1398 -0.2147 -0.2135
32578W        W75495   5.031  31.537  25.784 -0.1522  0.3229 -0.0535
32579W        W75496   2.586  29.119  22.764  0.3083  0.2402 -0.1918
32580W        W75497   6.564  28.247  22.768  0.5915 -0.0128 -0.1592
32581W        W75498   4.979  28.789  26.520 -0.2077 -0.4309 -0.0158
32582W        W75499   4.412  28.007  26.399 -0.0723  0.2719  0.1561
32583W        W75500   7.562  26.998  22.387  0.1183  0.0499  0.3096
32584W        W75501   6.973  28.603  22.733  0.0520  0.0289 -0.0027
32585W        W75502   6.956  26.621  26.444  0.0398 -0.1509 -0.1158
32586W        W75503   7.649  28.598  27.753 -0.1177 -0.0483 -0.0764
32587W        W75504   5.888  27.208  27.428 -0.3263 -0.2322 -0.3307
32588W        W75505   4.323  24.237  24.073 -0.1259 -0.1378 -0.2205
32589W        W75506   4.201  27.192  28.731  0.0212  0.1085  0.2064
32590W        W75507   5.906  27.029  25.584 -0.0843 -0.3546 -0.1502
32591W        W75508   6.183  28.053  28.549  0.1757 -0.1368 -0.0435
32592W        W75509   7.740  30.565  25.047 -0.0754  0.0252 -0.0793
32593W        W75510   4.690  26.067  22.971  0.1332  0.3094  0.3780
32594W        W75511   7.552  27.500  22.358  0.3175  0.1934 -0.2940
32595W        W75512   6.707  25.831  27.382  0.5821  0.0683  0.0680
32596W        W75513   6.136  28.300  22.354  0.1011  0.0092 -0.0294
32597W        W75514   4.472  24.094  25.479 -0.0501  0.2250 -0.1144
32598W        W75515   4.820  31.178  25.388 -0.0719  0.0382 -0.0380
32599W        W75516   4.681  29.178  24.553 -0.2100  0.1069  0.3559
32600W        W75517   8.088  27.645  29.052  0.0979  0.1312 -0.0749
32601W        W75518   3.479  25.304  24.480 -0.1765 -0.3235  0.2339
32602W        W75519   7.145  25.446  25.872  0.0062  0.0512  0.1565
32603W        W75520   5.849  27.913  26.016 -0.1141  0.1136  0.0636
32604W        W75521   6.421  23.100  23.868  0.3026 -0.1156 -0.3915
32605W        W75522   5.347  26.550  24.714  0.1801  0.1541  0.0631
32606W        W75523   7.725  26.912  23.065  0.0597  0.1853 -0.3639
32607W        W75524   5.886  27.437  25.297  0.0689  0.0136 -0.0464
32608W        W75525   5.992  27.929  29.646 -0.0825  0.1644 -0.1863
32609W        W75526   6.564  28.463  23.264 -0.0229 -0.1327  0.2117
32610W        W75527   8.160  28.074  27.128  0.0585  0.0832 -0.3504
32611W        W75528   6.173  28.525  22.886 -0.2446 -0.0112 -0.1900
32612W        W75529   7.229  28.018  28.442 -0.2129 -0.3171  0.3048
32613W        W75530   4.341  26.230  24.796 -0.4260 -0.1399  0.3083
32614W        W75531   3.272  26.139  24.003 -0.2667  0.1448 -0.2863
32615W        W75532   4.850  27.101  25.294 -0.0273 -0.0602  0.1241
32616W        W75533   4.900  26.744  25.933  0.3335  0.1020 -0.0924
32617W        W75534   6.641  25.499  26.993 -0.2342 -0.1262 -0.2805
32618W        W75535   5.038  27.538  25.060 -0.2087  0.1972 -0.1187
32619W        W75536   6.336  29.790  21.895 -0.0363  0.4223  0.3786
32620W        W75537   9.060  27.909  26.078  0.2679  0.0342 -0.0106
32621W        W75538   5.134  31.772  24.744 -0.2398  0.3726 -0.0691
32622W        W75539   5.217  27.631  22.448 -0.1701  0.1588 -0.2217
32623W        W75540   6.976  29.237  27.468 -0.1764  0.2193  0.5110
32624W        W75541   4.674  26.030  26.391 -0.1230  0.0846  0.1193
32625W        W75542   6.126  29.218  26.231 -0.0210 -0.2424  0.0776
32626W        W75543   8.007  29.284  25.137  0.1912  0.3499  0.1190
32627W        W75544   6.087  25.557  23.372  0.0342 -0.1108 -0.1470
32628W        W75545   5.353  28.020  25.178 -0.0211 -0.0376  0.0674
32629W        W75546   4.406  28.782  24.141  0.1497  0.1320 -0.0941
32630W        W75547   5.490  26.921  24.314  0.1003  0.2532 -0.2328
32631W        W75548   4.226  23.629  25.601 -0.0427  0.1554  0.0780
32632W        W75549   5.374  29.277  21.927 -0.1035  0.2470  0.1240
32633W        W75550   6.028  25.018  27.340 -0.0333 -0.0036 -0.1172
32634W        W75551   5.113  29.009  27.109 -0.0441  0.1658 -0.1715
32635W        W75552   6.976  28.360  29.127 -0.2306  0.1896 -0.0875
32636W        W75553   5.115  27.400  24.388  0.0639 -0.2869  0.2837
32637W        W75554   5.817  26.287  28.563 -0.2093 -0.0865 -0.2102
32638W        W75555   6.037  26.410  24.844  0.3375 -0.1133 -0.0470
32639W        W75556   6.358  30.167  23.658  0.1771 -0.1374  0.0047
32640W        W75557   6.495  28.368  25.412 -0.2946 -0.0036 -0.1325
32641W        W75558   4.237  27.708  27.275  0.1774  0.0161 -0.0721
32642W        W75559   8.684  28.706  23.262  0.0135 -0.0907 -0.3231
32643W        W75560   4.587  26.205  25.911 -0.2379 -0.1336 -0.0894
32644W        W75561   5.031  25.715  23.926  0.0038 -0.1082 -0.0051
32645W        W75562   4.977  26.771  23.553 -0.1112 -0.0512  0.3014
32646W        W75563   5.000  27.663  25.528  0.2489  0.1641 -0.2067
32647W        W75564   3.443  26.938  25.947 -0.2164 -0.1240  0.1590
32648W        W75565   4.159  27.858  24.361 -0.3592  0.2206  0.1363
32649W        W75566   5.823  29.046  23.425 -0.0535 -0.2383  0.0903
32650W        W75567   5.507  25.592  26.633 -0.0484 -0.0659 -0.0088
32651W        W75568   3.226  25.585  25.288  0.1319 -0.3202  0.0951
32652W        W75569   6.701  27.934  26.265 -0.2724  0.0922 -0.0312
32653W        W75570   4.226  26.253  26.255 -0.0777 -0.0367 -0.1153
32654W        W75571   9.799  28.502  23.379 -0.1513  0.0002  0.1687
32655W        W75572   4.066  25.784  26.366 -0.0031  0.1139  0.2133
32656W        W75573   5.175  25.559  26.974  0.1475  0.0152  0.3613
32657W        W75574   5.152  27.667  23.266 -0.2670 -0.1684  0.2047
32658W        W75575   5.805  29.315  24.655  0.0412  0.2739  0.1639
32659W        W75576   5.707  25.586  25.371 -0.1981 -0.0049  0.1860
32660W        W75577   8.648  29.561  29.922  0.1949  0.3195 -0.0195
32661W        W75578   4.827  27.593  25.982 -0.1371  0.0623 -0.1783
32662W        W75579   5.237  25.450  28.306  0.2089 -0.3834 -0.1118
32663W        W75580   5.294  28.623  26.191 -0.1724 -0.0495  0.1009
32664W        W75581   3.360  26.194  23.228 -0.0822  0.0153  0.1682
32665W        W75582   6.605  26.429  23.545 -0.0185 -0.0222  0.1068
32666W        W75583   6.922  29.791  24.218 -0.1285  0.0699 -0.3974
32667W        W75584   6.405  30.446  21.859 -0.1398  0.1379 -0.0512
32668W        W75585   5.692  29.327  25.852  0.1015 -0.2988 -0.0978
32669W        W75586   6.309  28.549  27.609  0.2116  0.2017 -0.4244
32670W        W75587   2.380  28.053  25.543  0.0514 -0.1460 -0.0578
32671W        W75588   5.850  31.219  21.864 -0.1795  0.1182 -0.0431
32672W        W75589   5.611  27.763  25.497  0.1390  0.3219  0.1479
32673W        W75590   6.530  28.649  22.499 -0.1246 -0.2330 -0.1348
32674W        W75591   7.921  28.027  24.389 -0.0270 -0.3944 -0.1648
32675W        W75592   5.012  28.857  24.234  0.1750 -0.0229 -0.2978
32676W        W75593   6.092  25.871  27.936 -0.0920  0.0087 -0.3260
32677W        W75594   4.903  30.245  26.243 -0.0064  0.1191  0.0399
32678W        W75595   7.019  28.051  24.541  0.1187 -0.0470  0.0175
32679W        W75596   4.545  24.531  26.401  0.1009 -0.0714 -0.2782
32680W        W75597   6.944  25.177  21.076 -0.0747 -0.2032 -0.0980
32681W        W75598   6.001  28.912  24.262  0.3430 -0.2869  0.3044
32682W        W75599   5.233  27.018  27.368 -0.1191  0.0464  0.2350
32683W        W75600   6.477  27.579  23.108  0.0151 -0.0551 -0.2591
32684W        W75601   6.080  27.529  26.264  0.2417 -0.4542  0.1331
32685W        W75602   5.488  27.295  25.613  0.3743  0.1662 -0.0404
32686W        W75603   7.023  27.575  26.148 -0.0533  0.3497 -0.0465
32687W        W75604   6.362  27.959  24.046  0.1350 -0.2086 -0.1328
32688W        W75605   7.441  27.807  24.304 -0.0685 -0.2314 -0.2037
32689W        W75606   5.632  29.585  26.374  0.0820  0.1921  0.1592
32690W        W75607   7.169  29.062  26.535  0.0622 -0.1110  0.0413
32691W        W75608   7.208  29.312  26.035  0.0633 -0.0158  0.0484
32692W        W75609   5.247  26.253  25.222  0.1229  0.2255  0.3023
32693W        W75610   3.482  25.227  26.842 -0.0174  0.0215  0.2862
32694W        W75611   5.278  28.531  23.940 -0.1586 -0.2414  0.2358
32695W        W75612   5.550  26.932  27.857  0.2489  0.0116 -0.4549
32696W        W75613   5.610  25.741  25.859 -0.0229 -0.0537 -0.0175
32697W        W75614   5.462  27.056  25.151  0.3096 -0.1261 -0.2439
32698W        W75615   4.402  25.740  25.977 -0.2561  0.1045 -0.0288
32699W        W75616   4.623  30.704  25.778 -0.0920 -0.0694 -0.1706
32700W        W75617   4.325  28.593  24.853  0.2298 -0.0659  0.0420
32701W        W75618   5.620  27.903   0.124  0.2269  0.2603  0.2853
32702W        W75619   5.341  26.477  28.213 -0.0601 -0.0121  0.6499
32703W        W75620   8.065  27.024  27.458 -0.0661 -0.2650  0.1060
32704W        W75621   7.327  27.150  27.164  0.3064  0.1341  0.0500
32705W        W75622   4.338  25.313  27.824 -0.1107 -0.3049 -0.0498
32706W        W75623   6.141  30.136  28.234  0.0538 -0.0755  0.0068
32707W        W75624   4.113  25.770  28.673 -0.0013  0.0083  0.0735
32708W        W75625   8.378  28.080  30.389 -0.2406 -0.0192  0.0319
32709W        W75626   8.190  30.437  30.022 -0.1327  0.1654 -0.0442
32710W        W75627   5.807  26.547  25.699  0.1838 -0.1626 -0.2887
32711W        W75628   5.928  28.026  31.299 -0.0308  0.3091  0.0014
32712W        W75629   5.236  29.862  29.405 -0.1634 -0.0023  0.0979
32713W        W75630   5.444  25.555  27.395  0.1927  0.1771 -0.0651
32714W        W75631   4.224  23.448  30.228  0.2819  0.1479  0.2683
32715W        W75632   7.732  26.755  29.323 -0.2351  0.2656 -0.1546
32716W        W75633   5.951  25.949  29.840  0.2379  0.0413  0.2266
32717W        W75634   5.295  25.685  29.933 -0.0175 -0.1351 -0.2112
32718W        W75635   5.582  27.758  28.181 -0.1060 -0.0652  0.1071
32719W        W75636   5.220  28.028  27.889  0.0449  0.1606 -0.1334
32720W        W75637   5.226  26.583  31.016 -0.0119 -0.0336 -0.2395
32721W        W75638   7.985  25.406   0.242 -0.0425 -0.0772 -0.0656
32722W        W75639   4.720  27.325  29.370 -0.2270  0.0202 -0.5526
32723W        W75640   4.494  28.064  28.338 -0.2799  0.0042 -0.0714
32724W        W75641   4.838  24.131  30.920 -0.2207  0.0661  0.0766
32725W        W75642   5.024  27.075  30.916 -0.3319 -0.1304 -0.1512
32726W        W75643   5.150  24.854  28.841 -0.0972 -0.2290 -0.1450
32727W        W75644   5.240  26.323  29.283 -0.1721  0.0305 -0.1992
32728W        W75645   6.623  28.270  29.920 -0.0777  0.0557  0.2840
32729W        W75646   6.456  27.295  28.826  0.2768  0.0365 -0.1186
32730W        W75647   5.500  25.415  30.351  0.0518 -0.6679  0.2689
32731W        W75648   4.568  25.450  30.367 -0.0375  0.2936  0.0235
32732W        W75649   4.675  30.289  30.238 -0.0497  0.1942  0.2174
32733W        W75650   5.234  30.636  27.843 -0.0817 -0.0896  0.1596
32734W        W75651   7.926  26.847  28.856 -0.0796 -0.2210  0.1445
32735W        W75652   6.353  25.443  29.091 -0.3195 -0.0412  0.0581
32736W        W75653   6.610  28.924   0.651 -0.1190 -0.1755 -0.2661
32737W        W75654   5.477  26.535  28.858 -0.1887 -0.1628 -0.0901
32738W        W75655   4.740  29.204  29.402  0.2526 -0.0596  0.1905
32739W        W75656   6.125  27.845   0.368  0.2822 -0.1491 -0.0048
32740W        W75657   5.689  26.518  31.198  0.1284 -0.1893 -0.1490
32741W        W75658   6.380  25.472  28.578  0.2878  0.1521 -0.3089
32742W        W75659   6.747  27.744  27.273  0.1856 -0.0280  0.1746
32743W        W75660   6.768  26.239  28.258 -0.0227 -0.0295  0.4347
32744W        W75661   5.854  26.816  30.811 -0.1553  0.1348  0.0742
32745W        W75662   5.623  30.004  28.218  0.0796 -0.0244 -0.0884
32746W        W75663   7.734  24.540  30.530  0.2652  0.1803 -0.0398
32747W        W75664   2.958  29.261  26.796 -0.4587 -0.0307 -0.1855
32748W        W75665   7.376  26.610  27.074  0.0419 -0.2192 -0.1158
32749W        W75666   5.348  26.723  25.713 -0.2343  0.0929  0.2166
32750W        W75667   7.031  25.021  26.989  0.3056  0.2977 -0.0661
32751W        W75668   6.912  23.600  28.028  0.2840 -0.0980 -0.2345
32752W        W75669   5.748  28.445  29.827 -0.0479 -0.0331  0.0382
32753W        W75670   5.942  28.423  29.209 -0.4293  0.1842 -0.0240
32754W        W75671   7.138  25.948  28.215 -0.2201 -0.0474  0.0915
32755W        W75672   5.180  24.501  28.488 -0.0095 -0.0365 -0.2871
32756W        W75673   5.753  26.200  29.206 -0.3218 -0.2591  0.0907
32757W        W75674   4.265  29.077  31.647  0.3530 -0.0039  0.4169
32758W        W75675   7.692  27.883  29.194 -0.0010 -0.2350  0.2297
32759W        W75676   7.624  28.442  28.393 -0.0382  0.2426  0.2195
32760W        W75677   8.082  29.828  30.473  0.1468  0.0900  0.1822
32761W        W75678   5.136  27.962  28.412  0.3638 -0.2389 -0.0836
32762W        W75679   7.983  26.376  29.469  0.0773 -0.1711  0.3717
32763W        W75680   3.777  27.015  31.929 -0.2065  0.2084 -0.2784
32764W        W75681   4.678  27.125  31.437 -0.0388  0.2175 -0.1127
32765W        W75682   3.644  25.456  26.391  0.1333  0.2885  0.2871
32766W        W75683   9.331  26.935  31.009  0.0664 -0.0978 -0.1694
32767W        W75684   4.620  30.481  31.848  0.3121  0.3291  0.0988
32768W        W75685   6.430  27.078  27.498 -0.0176 -0.2101  0.1369
32769W        W75686   3.598  28.117  29.537 -0.0101  0.1169  0.1223
32770W        W75687   6.470  26.008  29.167 -0.1002 -0.3125 -0.0559
32771W        W75688   6.575  28.955  26.315  0.0668  0.2175 -0.0385
32772W        W75689   5.916  24.043  28.898 -0.0075 -0.0866  0.0158
32773W        W75690   5.856  26.690  28.254 -0.2779 -0.2764  0.0142
32774W        W75691   3.586  27.981  28.095  0.0786 -0.0027  0.0562
32775W        W75692   4.613  27.501  27.974  0.2035  0.1082  0.2268
32776W        W75693   8.202  26.465  30.526  0.0759 -0.0303  0.1867
32777W        W75694   9.023  27.503  27.903 -0.0649 -0.0256 -0.2067
32778W        W75695   5.675  28.538  30.351 -0.0548  0.0324 -0.1537
32779W        W75696   5.159  25.868  31.526 -0.1275 -0.1159 -0.1521
32780W        W75697   6.325  28.339  31.479  0.1550  0.1360 -0.0608
32781W        W75698   4.623  27.783  29.180 -0.0427 -0.0813  0.2966
32782W        W75699   4.778  27.751  29.727 -0.1427 -0.0249 -0.0493
32783W        W75700   4.012  25.494  28.186  0.1024  0.1876 -0.1015
32784W        W75701   3.304  25.105  29.294  0.1128 -0.0727 -0.1846
32785W        W75702   7.251  28.481  28.101  0.4533  0.0940 -0.3316
32786W        W75703   5.776  23.372  30.036 -0.0964 -0.2595  0.1778
32787W        W75704   4.618  24.192  31.343  0.0566  0.3241 -0.0612
32788W        W75705   7.685  24.351  28.003  0.1181  0.4048 -0.0228
32789W        W75706   4.474  29.726  29.125 -0.0587 -0.0030  0.2588
32790W        W75707   7.373  29.811  28.598  0.0027  0.1477  0.1557
32791W        W75708   7.191  25.989  28.724 -0.0167 -0.0371  0.3571
32792W        W75709   6.946  27.258  28.411  0.0365  0.1562  0.2991
32793W        W75710   3.771  26.354  30.762  0.0787 -0.1197  0.1378
32794W        W75711   4.488  26.187  28.399  0.0804  0.2878  0.1339
32795W        W75712   5.520  24.078  29.992 -0.0021  0.0398 -0.0368
32796W        W75713   3.998  25.463  29.660  0.2776 -0.1585  0.1435
32797W        W75714   7.759  25.851  31.603 -0.0950 -0.3300 -0.3464
32798W        W75715   3.992  25.423  30.994 -0.5696 -0.1304 -0.0517
32799W        W75716   6.204  26.295  27.658 -0.1674  0.0011  0.1879
32800W        W75717   7.003  26.763  28.288  0.1501  0.1146 -0.1311
32801W        W75718   4.975  26.897  29.450  0.1329  0.1134 -0.2214
32802W        W75719   7.196  25.291  30.859 -0.1720  0.1333  0.0332
32803W        W75720   7.227  28.317  27.629  0.0008  0.0395  0.1018
32804W        W75721   7.804  28.264  29.972 -0.1314 -0.2174 -0.0480
32805W        W75722   8.381  28.535  29.230 -0.0051 -0.0431  0.0155
32806W        W75723   5.421  24.526  30.626 -0.3625 -0.1458 -0.2748
32807W        W75724   5.509  25.061  28.523 -0.3026 -0.0638  0.1260
32808W        W75725   3.249  27.947  28.727  0.1559  0.0524  0.3121
32809W        W75726   5.032  28.160  29.867 -0.1695 -0.0524  0.0071
32810W        W75727   5.142  27.256  29.012  0.0914  0.1182  0.0148
32811W        W75728   8.221  29.379  30.902 -0.1746  0.1172  0.2927
32812W        W75729   7.212  25.545  28.534 -0.3621  0.1725 -0.2452
32813W        W75730   5.584  29.009  31.870 -0.0029 -0.1291  0.1400
32814W        W75731   8.147  23.128  30.464  0.2072  0.1860  0.2983
32815W        W75732   7.418  26.369  28.472 -0.3125  0.0546 -0.3374
32816W        W75733   7.278  25.711  29.241  0.0162  0.1383  0.0550
32817W        W75734   4.386  24.253  28.369  0.0402  0.0909 -0.0060
32818W        W75735   6.745  29.711  29.772 -0.0150 -0.1826 -0.0323
32819W        W75736   5.547  28.118  29.458 -0.1639  0.1855  0.3701
32820W        W75737   4.702  26.187  29.143 -0.2211  0.0417  0.3143
32821W        W75738   6.464  25.933  29.685  0.0756 -0.3054 -0.1082
32822W        W75739   6.629  23.431  28.931 -0.1461 -0.2560  0.3208
32823W        W75740   5.488  27.486   0.314 -0.1808 -0.0729 -0.0251
32824W        W75741   7.952  25.404  31.684 -0.0756 -0.1418  0.0091
32825W        W75742   5.818  26.586  27.563 -0.0221 -0.0266 -0.3423
32826W        W75743   5.215  28.191   0.061  0.0650 -0.1587 -0.1631
32827W        W75744   5.109  23.830  28.289  0.1137 -0.0443 -0.0012
32828W        W75745   7.040  26.049  25.498 -0.0449 -0.3583  0.2285
32829W        W75746   7.118  25.010  29.514 -0.4813  0.1470 -0.0232
32830W        W75747   9.544  26.625  29.442 -0.1679 -0.0304 -0.0391
32831W        W75748   7.351  26.384  26.607  0.1406 -0.0368 -0.1642
32832W        W75749   5.581  25.302  26.085  0.2069 -0.3728 -0.2899
32833W        W75750   4.218  27.596   0.002  0.3346  0.0713  0.1931
32834W        W75751   7.300  27.409  26.690  0.0055 -0.0767 -0.1282
32835W        W75752   7.048  26.808  27.428 -0.1519 -0.1290 -0.1379
32836W        W75753   6.294  26.707  25.753  0.1855  0.0697 -0.2403
32837W        W75754   9.456  30.611  28.749  0.2742  0.0594 -0.0134
32838W        W75755   4.849  26.236  31.296 -0.1698  0.3167 -0.0119
32839W        W75756   7.905  26.404  31.817  0.0102  0.1968  0.0006
32840W        W75757   8.201  27.182  29.208 -0.1792  0.0694 -0.0930
32841W        W75758   4.242  24.748  28.827 -0.0710  0.2313  0.0475
32842W        W75759   5.823  28.144  27.953  0.1689  0.1001  0.1294
32843W        W75760   6.862  24.684  28.023  0.1006  0.1187  0.0489
32844W        W75761   4.796  28.834  27.435 -0.0369  0.1372 -0.2749
32845W        W75762   6.780  22.551  28.612  0.0580  0.3630 -0.0994
32846W        W75763   6.120  26.436  28.959 -0.1498 -0.0941 -0.1567
32847W        W75764   5.847  24.348  29.811 -0.1964  0.2762 -0.1928
32848W        W75765   5.908  25.395  30.090  0.2184 -0.2145  0.1412
32849W        W75766   6.912  26.666  26.960 -0.1044 -0.1375 -0.0671
32850W        W75767   7.194  27.632  28.118 -0.2994  0.0982  0.1737
32851W        W75768   5.154  26.830  26.877  0.0660 -0.0659 -0.1469
32852W        W75769   6.319  24.828  30.501  0.3966 -0.0364  0.4566
32853W        W75770   6.426  27.331   0.291  0.3212  0.2907  0.1295
32854W        W75771   5.906  27.252  31.112 -0.0993 -0.1826  0.0102
32855W        W75772   7.148  27.519  30.381 -0.0848 -0.1316  0.0824
32856W        W75773   8.680  28.605  30.008 -0.2294 -0.0042 -0.2194
32857W        W75774   6.076  25.820  29.370  0.1497 -0.1648  0.2006
32858W        W75775   6.216  25.236  26.243  0.0781  0.0028 -0.3667
32859W        W75776   4.104  28.751  28.101 -0.0208  0.0793  0.1787
32860W        W75777   6.564  25.693  27.840  0.1250  0.0991  0.1061
32861W        W75778   4.184  25.265  28.811 -0.0553 -0.0914  0.0974
32862W        W75779   6.086  26.749  31.291  0.2018  0.2521  0.4853
32863W        W75780   5.463  28.629  29.041  0.1749  0.1666  0.2232
32864W        W75781   7.133  25.927  29.872 -0.5462 -0.0817 -0.2478
32865W        W75782   5.038  27.789  30.193 -0.1850 -0.2144  0.1566
32866W        W75783   8.192  22.744  29.593 -0.1409  0.0314  0.1741
32867W        W75784   4.728  28.630  30.030 -0.1603 -0.0510  0.0787
32868W        W75785   3.170  25.095  25.503 -0.0119  0.1367 -0.0041
32869W        W75786   6.100  27.543  31.479 -0.1885 -0.3281 -0.0089
32870W        W75787   5.291  25.249  29.103 -0.0332 -0.1066  0.1549
32871W        W75788   7.309  25.850  27.510 -0.0650  0.1358 -0.2620
32872W        W75789   7.726  26.405  30.331  0.0983 -0.0709  0.0470
32873W        W75790   5.764  24.707  28.826 -0.1966 -0.2893 -0.4886
32874W        W75791   5.020  29.519  28.994 -0.1370 -0.2833 -0.0856
32875W        W75792   6.856  26.684  30.580  0.0205 -0.1923 -0.2986
32876W        W75793   7.788  24.012  27.161  0.0357  0.1593  0.2628
32877W        W75794   7.579  27.217  28.970 -0.2115 -0.3750 -0.4165
32878W        W75795   5.479  28.091  31.588 -0.1334 -0.1796 -0.0849
32879W        W75796   6.040  25.958  28.867  0.1183 -0.0802  0.1642
32880W        W75797   5.798  23.610  29.166  0.0426 -0.1493  0.0131
32881W        W75798   3.900  24.583  29.222 -0.1121 -0.1446  0.1021
32882W        W75799   6.129  28.419  30.525 -0.0060 -0.0548 -0.0466
32883W        W75800   7.373  28.773  29.763  0.0380  0.3824 -0.1473
32884W        W75801   5.065  27.052  28.055 -0.3105  0.1897 -0.2213
32885W        W75802   6.334  28.131  29.289  0.2931 -0.2735  0.0367
32886W        W75803   5.072  27.673   0.039 -0.1463  0.1644 -0.0095
32887W        W75804   9.411  29.403  30.458 -0.0323 -0.0775  0.2462
32888W        W75805   6.227  26.130  31.476  0.1292  0.3416  0.2520
32889W        W75806   4.559  28.194  29.725  0.0044 -0.0479  0.0757
32890W        W75807   3.042  25.720  28.208 -0.1963 -0.1850 -0.1999
32891W        W75808   6.752  27.020  29.239  0.0642  0.1715 -0.1188
32892W        W75809   5.491  26.808  29.312 -0.1860 -0.4175 -0.1951
32893W        W75810   6.881  28.904  30.803  0.3098 -0.0305 -0.0167
32894W        W75811   4.740  23.304  29.275  0.1300  0.0186  0.1100
32895W        W75812   7.396  30.391  30.225  0.1081 -0.1215 -0.1715
32896W        W75813   5.803  25.276  31.133  0.0219  0.0906  0.2899
32897W        W75814   3.902  26.431  27.568  0.0378  0.1308  0.0486
32898W        W75815   1.142  26.680  28.579  0.0432 -0.0896  0.1864
32899W        W75816   4.984  27.493  28.341 -0.0769  0.1514 -0.0497
32900W        W75817   6.319  23.733  29.264  0.1022 -0.0182  0.0011
32901W        W75818   6.060  27.724  30.389  0.2724 -0.1410 -0.0923
32902W        W75819   5.583  28.070  27.527  0.4876 -0.0491 -0.3395
32903W        W75820   3.432  29.347  28.394 -0.3405 -0.0617  0.1415
32904W        W75821   6.467  24.947  28.320  0.0890 -0.1152 -0.0329
32905W        W75822   6.071  27.739  28.170 -0.1689 -0.3578 -0.1463
32906W        W75823   5.839  25.757  28.450  0.0774  0.1288  0.3426
32907W        W75824   8.492  24.635  29.514  0.0241  0.0007 -0.7014
32908W        W75825   6.217  25.812  27.432 -0.0438  0.1159  0.1378
32909W        W75826   7.794  25.092   1.251 -0.0409 -0.1068  0.1265
32910W        W75827   3.150  25.444  28.642 -0.2982 -0.1163 -0.1204
32911W        W75828   6.668  28.072  28.795  0.4134 -0.1012 -0.0424
32912W        W75829   3.563  26.235  28.672 -0.0799  0.0993 -0.0426
32913W        W75830   7.270  27.755  29.548 -0.0848  0.2104 -0.0526
32914W        W75831   5.194  25.421  29.557 -0.2240 -0.3436  0.2488
32915W        W75832   6.462  26.186  25.821  0.1372  0.0407  0.0821
32916W        W75833   6.216  26.657  27.273 -0.0640 -0.0452 -0.0978
32917W        W75834   6.784  27.409  29.546 -0.0072  0.1550  0.1836
32918W        W75835   8.063  27.687  30.186  0.0008 -0.0611  0.1250
32919W        W75836   5.819  27.661  27.755  0.3069  0.1760  0.2212
32920W        W75837   7.404  27.590  28.624 -0.2164 -0.2157  0.2917
32921W        W75838   4.563  28.332  29.241 -0.2064 -0.1534  0.0066
32922W        W75839   7.199  27.842  27.608  0.1171  0.0587 -0.1208
32923W        W75840   5.716  27.269  28.240 -0.0718 -0.2082 -0.2864
32924W        W75841   6.329  26.949  30.707  0.1953  0.2461  0.2845
32925W        W75842   6.537  25.662   0.494  0.3770  0.0635  0.2714
32926W        W75843   8.193  27.728  28.385 -0.1434  0.0505  0.2043
32927W        W75844   5.039  26.238  28.660  0.0097  0.0231 -0.1411
32928W        W75845   4.297  24.919  29.817 -0.2824 -0.2308  0.1067
32929W        W75846   6.008  26.107  30.366 -0.3583  0.0339  0.4041
32930W        W75847   5.843  24.901  29.769  0.0777 -0.1120 -0.1223
32931W        W75848   4.659  25.852  28.735 -0.0441 -0.0655  0.0036
32932W        W75849   9.204  29.264  31.862 -0.0101 -0.0782  0.0743
32933W        W75850   9.481  27.436  27.617 -0.1860 -0.2787 -0.3576
32934W        W75851   7.343  26.111  30.353 -0.0813  0.1423  0.1501
32935W        W75852   7.077  27.328  28.873  0.0771  0.0493 -0.1737
32936W        W75853   7.384  26.905  26.686 -0.2888  0.0124 -0.2568
32937W        W75854   5.667  24.289  28.469 -0.0860 -0.1441 -0.1418
32938W        W75855   7.384  26.224  29.499 -0.2742 -0.0316 -0.1000
32939W        W75856   5.935  26.171  26.052  0.0992  0.0359  0.2098
32940W        W75857   5.412  23.407  30.760  0.0041 -0.1448  0.0359
32941W        W75858   6.185  27.343  27.889  0.0026 -0.2121 -0.0600
32942W        W75859   6.534  26.769  29.603  0.1287 -0.2665 -0.0380
32943W        W75860   4.914  24.177  29.143 -0.0734  0.1624  0.1400
32944W        W75861   4.253  26.518  29.571  0.0097  0.1473  0.1211
32945W        W75862   3.778  29.250  29.325 -0.0003  0.1091 -0.1181
32946W        W75863   5.730  26.216  28.027  0.1312 -0.2260 -0.0194
32947W        W75864   5.352  28.110  28.927  0.1367 -0.0002  0.0407
32948W        W75865   6.823  25.668  29.522  0.1160  0.2307  0.0133
32949W        W75866   8.251  28.919   0.190 -0.0154 -0.3070 -0.0024
32950W        W75867   6.095  26.894  25.123  0.1255 -0.2753 -0.1048
32951W        W75868   5.719  25.472  29.678  0.2849  0.1769 -0.1956
32952W        W75869   5.397  25.976  28.286  0.2190 -0.0427  0.1786
32953W        W75870   5.366  23.924  29.275  0.1882 -0.3434  0.1356
32954W        W75871   4.247  28.934  29.462 -0.0398  0.2135 -0.3079
32955W        W75872   5.406  27.395  30.051  0.1762  0.1037 -0.2338
32956W        W75873   3.799  28.863  28.997 -0.0664  0.1165 -0.2132
32957W        W75874   4.652  25.066  28.908  0.0687 -0.1650 -0.4219
32958W        W75875   7.567  27.458  27.605 -0.2993  0.2842  0.0346
32959W        W75876   4.914  25.830  28.262  0.0656  0.1026 -0.1720
32960W        W75877   8.283  25.977  29.565 -0.1365  0.4394  0.4390
32961W        W75878   6.777  27.732  30.832  0.2502 -0.3620 -0.2651
32962W        W75879   6.128  26.783  29.873 -0.0369  0.4071 -0.1570
32963W        W75880   8.313  27.510  29.598  0.0408 -0.1891  0.0498
32964W        W75881   8.053  28.084  28.862 -0.1361 -0.0197 -0.0393
32965W        W75882   7.137  28.130  29.949  0.2823 -0.0472  0.0355
32966W        W75883   7.358  26.908  31.610 -0.2205 -0.2182  0.0253
32967W        W75884   7.622  26.230   1.721  0.2400 -0.0266 -0.4385
32968W        W75885   8.623  28.257  29.686  0.3129  0.1135  0.6987
32969W        W75886   3.595  25.589  27.255  0.2704 -0.0623  0.0136
32970W        W75887   6.376  27.244  24.815  0.2406  0.1185  0.1221
32971W        W75888   4.678  28.255   0.327 -0.0658  0.2314 -0.0640
32972W        W75889   4.766  29.197  31.548  0.0765  0.1519  0.3038
32973W        W75890   3.689  27.291  29.011  0.0101 -0.0624  0.1458
32974W        W75891   7.775  26.888  27.054  0.0230 -0.0782  0.0394
32975W        W75892   5.996  26.658  26.135 -0.2536 -0.1937 -0.4190
32976W        W75893   7.830  29.538  29.546  0.2453  0.0123 -0.3817
32977W        W75894   7.282  26.840  28.840  0.1005 -0.2746  0.1660
32978W        W75895   3.653  27.217  29.992 -0.0940 -0.0292  0.3712
32979W        W75896   4.000  28.263  28.168 -0.2928 -0.1195 -0.1386
32980W        W75897   6.272  27.722  28.894 -0.0051  0.0219  0.0296
32981W        W75898   5.099  29.010  29.106 -0.2649 -0.0589  0.0941
32982W        W75899   9.164  28.707  31.841 -0.1029  0.2225  0.0557
32983W        W75900   7.869  26.547  27.824  0.2666 -0.0900 -0.1661
32984W        W75901   5.930  24.556  29.286 -0.4396  0.0569 -0.0023
32985W        W75902   7.565  25.422  27.631 -0.3452 -0.1738 -0.3779
32986W        W75903   6.310  27.196  31.710  0.2229 -0.2065  0.0686
32987W        W75904   5.285  27.745  29.664 -0.1382  0.1893  0.3823
32988W        W75905   5.674  25.284  28.107 -0.1728 -0.0251  0.1275
32989W        W75906   3.367  27.911  31.840  0.0418  0.1464 -0.2392
32990W        W75907   5.970  24.942  27.867 -0.1564  0.3486  0.2970
32991W        W75908   5.810  28.730  30.842  0.0039 -0.1597  0.1665
32992W        W75909   7.547  26.956  27.553  0.0473 -0.2046  0.0792
32993W        W75910   5.237  26.879  30.503  0.0178  0.0799 -0.2782
32994W        W75911   5.122  26.118  30.073 -0.1799 -0.0426  0.0400
32995W        W75912   9.969  25.092  29.363  0.1242  0.2607  0.1016
32996W        W75913   5.831  27.729  27.223  0.0523  0.1057 -0.3520
32997W        W75914   6.281  26.296  28.168 -0.1109  0.0442  0.3136
32998W        W75915   7.694  30.498  29.840  0.0134 -0.1248 -0.1857
32999W        W75916   5.636  29.354  29.032 -0.2335  0.1217  0.4215
33000W        W75917   6.871  27.169  30.723  0.2525  0.3496 -0.1277
33001W        W75918   3.735  27.170  28.515  0.0290 -0.1267 -0.1855
33002W        W75919   7.541  26.424  27.483 -0.1276 -0.0497 -0.0249
33003W        W75920   6.057  26.660  30.370  0.3565  0.0005 -0.0063
33004W        W75921   5.901  25.081  29.204 -0.1183 -0.1556  0.1109
33005W        W75922   4.317  27.091  30.088 -0.1258 -0.3667 -0.1518
33006W        W75923   7.012  26.941  29.739 -0.1233  0.0158  0.1493
33007W        W75924   6.750  24.710   0.036  0.0193  0.0735  0.2499
33008W        W75925   4.842  27.273  29.927  0.4849  0.1656  0.0143
33009W        W75926   8.011  28.280  28.020  0.1989 -0.2767 -0.1745
33010W        W75927   5.922  24.009  29.418 -0.2869  0.0896 -0.0568
33011W        W75928   6.200  27.061  26.980  0.1740  0.2082 -0.2298
33012W        W75929   7.666  28.670  30.598 -0.2875 -0.0961 -0.3840
33013W        W75930   3.714  28.090  28.615  0.0858 -0.0867  0.0976
33014W        W75931   7.152  24.104  26.951  0.0208  0.1653 -0.0069
33015W        W75932   5.474  25.880  28.763 -0.1060 -0.2708 -0.2075
33016W        W75933   5.513  24.760  28.077  0.1053  0.1635 -0.2592
33017W        W75934   8.692  28.467  31.942  0.4268 -0.1204 -0.1499
33018W        W75935   6.526  22.959  28.711 -0.1392 -0.0108 -0.0013
33019W        W75936   7.920  28.275  29.412  0.2220  0.0334  0.3562
33020W        W75937   7.843  27.819  29.664 -0.0445  0.0989  0.2716
33021W        W75938   7.010  28.578  30.143 -0.1265 -0.0827 -0.0114
33022W        W75939   7.378  25.195  26.594  0.0315 -0.1886 -0.0188
33023W        W75940   6.547  30.013  29.178 -0.0500 -0.2382 -0.2023
33024W        W75941   5.844  26.420  29.669 -0.1778  0.2497 -0.0493
33025W        W75942   7.983  29.318  30.233  0.2358 -0.0657 -0.1325
33026W        W75943   8.121  29.190  29.786  0.1828 -0.1698  0.3436
33027W        W75944   5.865  25.569  27.089  0.0497 -0.2726 -0.0622
33028W        W75945   5.149  26.280  30.540  0.1493  0.1265  0.0085
33029W        W75946   3.409  28.480  28.729 -0.0752  0.0371  0.0941
33030W        W75947   6.628  26.511  29.116  0.0593  0.2802  0.1016
33031W        W75948   6.241  25.023  31.135 -0.0770 -0.0151  0.0512
33032W        W75949   5.100  30.202  24.552  0.3458  0.3924  0.0627
33033W        W75950   7.059  23.967  30.329  0.1072  0.3174  0.0417
33034W        W75951   6.294  28.855  30.799 -0.0270  0.1491  0.1828
33035W        W75952   6.323  31.542  31.626 -0.0789  0.3520 -0.0534
33036W        W75953   3.841  26.701  28.648  0.0998 -0.2569  0.0503
33037W        W75954   6.253  27.527  30.970  0.0395 -0.1106 -0.0017
33038W        W75955   6.840  29.349  28.375  0.4899  0.0438  0.4992
33039W        W75956   6.549  28.854  29.312 -0.3838  0.1822 -0.1164
33040W        W75957   8.269  29.469  29.343  0.1669 -0.0561  0.0811
33041W        W75958   6.467  25.344  27.499 -0.0209 -0.1352 -0.0972
33042W        W75959   8.942  27.048  30.747 -0.3345 -0.1930 -0.4751
33043W        W75960   6.683  24.216  27.783  0.1318  0.1439  0.0543
33044W        W75961   8.501  26.424  27.676  0.3747  0.2770 -0.1693
33045W        W75962   8.812  25.062  28.628  0.1082 -0.1477  0.0643
33046W        W75963   5.531  26.953  31.270  0.1024 -0.1742  0.4005
33047W        W75964   3.486  26.602  29.009 -0.1656 -0.0064  0.0337
33048W        W75965   6.036  27.344  29.127  0.0352  0.0805  0.1544
33049W        W75966   5.627  27.228  28.860  0.1415  0.2161 -0.4232
33050W        W75967   6.741  25.532  30.854  0.0454 -0.2838 -0.0291
33051W        W75968   4.894  26.333  31.846  0.0497  0.0901  0.0626
33052W        W75969   4.177  27.208  28.067 -0.0070  0.1291  0.2667
33053W        W75970   4.669  25.998  27.098  0.1954 -0.1640 -0.0381
33054W        W75971   8.521  29.527  28.275  0.3004 -0.0016 -0.0322
33055W        W75972   5.442  25.064  30.843 -0.2350  0.0666 -0.4045
33056W        W75973   4.954  27.713  28.828 -0.1060 -0.0052 -0.2139
33057W        W75974   6.552  28.902  28.556  0.1083 -0.1325  0.0472
33058W        W75975   8.760  28.457  30.653  0.0200  0.2091 -0.1414
33059W        W75976   5.116  25.784  29.118 -0.3020  0.3503  0.0966
33060W        W75977   9.952  28.238   0.082 -0.0902  0.0692  0.2134
33061W        W75978   5.476  28.837  28.362 -0.0170 -0.0468  0.1904
33062W        W75979   5.147  27.269  31.350  0.1375  0.2211 -0.0891
33063W        W75980   4.706  26.792  31.931  0.1612 -0.1660  0.0801
33064W        W75981   3.096  26.828  29.147  0.1954 -0.1728 -0.2056
33065W        W75982   6.445  25.872  28.353 -0.0711 -0.2964  0.2111
33066W        W75983   6.783  26.923  28.695 -0.3756  0.0355  0.1423
33067W        W75984   8.569  28.398  28.775 -0.1747  0.1287  0.2067
33068W        W75985   6.556  26.729  30.162  0.3342 -0.1468 -0.0550
33069W        W75986   4.725  28.717  31.646  0.2752  0.1320 -0.1042
33070W        W75987   4.266  25.040  29.269  0.0064  0.0253 -0.4246
33071W        W75988   5.485  25.959  29.537  0.1652 -0.3474 -0.0632
33072W        W75989   7.020  27.016  30.222 -0.0373  0.0461  0.2267
33073W        W75990   8.239  27.305  28.157  0.3634  0.0668  0.2046
33074W        W75991   8.916  27.029  28.987 -0.2012 -0.0219  0.1072
33075W        W75992   6.993  26.443  28.712 -0.0661  0.2711 -0.2963
33076W        W75993   4.640  23.489   0.123 -0.2145 -0.0817 -0.2957
33077W        W75994   5.623  27.640   1.205 -0.1367 -0.0835 -0.0263
33078W        W75995   6.951  29.848  28.908 -0.3247  0.0877 -0.0498
33079W        W75996   5.940  25.615  30.526  0.0710  0.0242 -0.1946
33080W        W75997   7.538  26.339  28.999  0.0790 -0.2046 -0.3378
33081W        W75998   6.560  27.489  26.426 -0.0026 -0.1129  0.0024
33082W        W75999   1.983  27.702  29.511  0.2366 -0.1669  0.1022
33083W        W76000   6.620  25.917  24.595  0.0075  0.3496  0.0200
33084W        W76001   5.053  26.781  31.583  0.0259  0.1945 -0.4427
33085W        W76002   8.489  26.935  30.472 -0.1230  0.3167 -0.0510
33086W        W76003   7.013  26.303  31.239  0.1340 -0.0476  0.1195
33087W        W76004   6.206  26.757  27.865  0.0108 -0.2541  0.0934
33088W        W76005   9.341  27.710  27.123  0.0096  0.2387  0.1436
33089W        W76006   7.828  30.215  27.870  0.0473 -0.0943 -0.1810
33090W        W76007   8.127  30.282   0.039  0.0519 -0.2576  0.1101
33091W        W76008   6.605  28.798  29.888  0.1299  0.4710 -0.1445
33092W        W76009   7.356  27.103  30.629  0.1915 -0.1827 -0.2728
33093W        W76010   5.516  25.977  30.416 -0.0603  0.0558  0.2803
33094W        W76011   5.890  27.340  30.623 -0.2116  0.2612 -0.0250
33095W        W76012   6.988  27.279  27.519  0.0911 -0.0580  0.1678
33096W        W76013   6.239  26.401  30.756  0.2312  0.0764  0.1275
33097W        W76014   5.727  23.825  28.355  0.3713  0.2537 -0.1101
33098W        W76015   6.348  25.674  25.994  0.3063 -0.0132  0.0050
33099W        W76016   6.731  29.682  31.271 -0.1323 -0.0810  0.1684
33100W        W76017   8.509  29.947  30.259 -0.0388 -0.0897 -0.0912
33101W        W76018   6.442  25.540  30.163 -0.0875  0.0098 -0.2078
33102W        W76019   6.487  27.475  30.507 -0.2037  0.2538  0.1137
33103W        W76020   4.510  27.170  30.748 -0.1823 -0.2737 -0.0622
33104W        W76021   6.545  25.833   0.025 -0.0119 -0.0750  0.2593
33105W        W76022   5.173  29.704   0.155  0.0005 -0.1823  0.0807
33106W        W76023   7.360  28.286   0.300 -0.1488 -0.1040 -0.2600
33107W        W76024   6.765  25.153  30.430  0.2655 -0.0448  0.2394
33108W        W76025   6.825  26.282  30.182 -0.2729  0.1510 -0.1580
33109W        W76026   6.337  25.357  29.717  0.4443  0.0132 -0.0676
33110W        W76027   7.329  27.555  30.903  0.3621 -0.2244  0.3108
33111W        W76028   5.114  28.006   0.569 -0.2889 -0.1699 -0.1433
33112W        W76029   5.762  25.215   0.434 -0.1794  0.3428 -0.2310
33113W        W76030   7.906  28.548   0.933 -0.0563  0.1336  0.3786
33114W        W76031   6.872  25.845   0.797  0.0539 -0.1364 -0.2161
33115W        W76032   7.507  25.816  30.692  0.1657  0.0173  0.3527
33116W        W76033   4.054  29.158   1.958  0.0768 -0.2862 -0.1644
33117W        W76034   6.554  26.418   0.720  0.0107  0.2391 -0.0705
33118W        W76035   8.867  29.545   0.212 -0.2195 -0.2104 -0.2310
33119W        W76036   3.474  24.495  31.671  0.0725  0.3343  0.3136
33120W        W76037   6.253  25.253   0.641  0.0847  0.1614 -0.1819
33121W        W76038   6.310  25.697  31.045 -0.0494  0.2137 -0.0667
33122W        W76039   6.469  26.331  31.944 -0.1349  0.0069 -0.0954
33123W        W76040   7.278  25.879  31.499  0.2109 -0.1178 -0.1597
33124W        W76041   8.029  25.955   0.157  0.1376 -0.2513 -0.0370
33125W        W76042   4.120  26.225  30.404  0.1327 -0.1521 -0.0027
33126W        W76043   6.372  25.270  30.717  0.1963 -0.3024  0.1527
33127W        W76044   6.645  25.344  31.303 -0.0529  0.1911  0.2605
33128W        W76045   4.241  29.262  29.063 -0.0446 -0.1487  0.1096
33129W        W76046   8.062  27.510  31.945 -0.3306  0.2758 -0.3120
33130W        W76047   7.087  26.062  31.939 -0.0176  0.0500  0.1442
33131W        W76048   6.883  27.593   2.198 -0.3072 -0.2513 -0.1359
33132W        W76049   5.337  26.100  31.009  0.0940  0.1188  0.4281
33133W        W76050   7.186  28.569  31.216  0.1647  0.2098  0.2605
33134W        W76051   7.813  25.838   0.591  0.3941  0.0013 -0.1499
33135W        W76052   5.068  23.627  31.844 -0.2135  0.2396  0.1423
33136W        W76053   6.824  27.372   2.852 -0.3145  0.0472 -0.1262
33137W        W76054   5.201  29.414  31.594 -0.1770 -0.2906  0.0471
33138W        W76055   7.561  26.019   2.240  0.0874  0.0128 -0.1932
33139W        W76056   5.366  26.315  31.541 -0.2306 -0.2587 -0.0530
33140W        W76057   6.985  26.334   0.465 -0.1456 -0.0497 -0.1024
33141W        W76058   9.055  29.885   0.591  0.2296 -0.1109  0.0457
33142W        W76059   6.195  27.194   1.651 -0.1979 -0.1822  0.1280
33143W        W76060   4.474  24.423  30.533  0.1866 -0.2474 -0.0175
33144W        W76061   6.430  27.015   0.660 -0.0103 -0.1001  0.1511
33145W        W76062   6.394  24.932  29.243  0.1675 -0.1148 -0.3610
33146W        W76063   4.231  27.095  31.159 -0.2496  0.1810 -0.1543
33147W        W76064   6.774  25.285   0.690 -0.0920 -0.1225 -0.2029
33148W        W76065   6.698  26.059  31.527 -0.1526 -0.0728 -0.2330
33149W        W76066   7.780  27.651  31.427 -0.0997  0.0904 -0.2669
33150W        W76067   5.013  27.757   1.530 -0.1298 -0.1295  0.3108
33151W        W76068   6.939  28.176   0.561  0.1062 -0.3524  0.1381
33152W        W76069  10.324  26.404   0.540  0.0976  0.1764 -0.2475
33153W        W76070   5.267  23.443  31.252  0.0210 -0.1555  0.0909
33154W        W76071   7.168  24.853  30.608 -0.0931  0.2591  0.1282
33155W        W76072   4.195  28.095  30.042 -0.2043  0.1321  0.4215
33156W        W76073   7.315  26.642  30.459  0.0699  0.0100  0.2369
33157W        W76074   8.527  28.072   2.204  0.2515  0.0062  0.1724
33158W        W76075   4.918  29.395   0.562  0.1419 -0.0485  0.2337
33159W        W76076   8.041  28.618  30.949  0.2461 -0.1638  0.2367
33160W        W76077   3.346  29.333  31.888 -0.1686 -0.2530  0.1547
33161W        W76078   4.547  26.063  30.906 -0.3092 -0.2396 -0.1132
33162W        W76079   6.310  29.216   2.425  0.2644  0.1107 -0.0289
33163W        W76080   5.653  28.305  30.812 -0.1987  0.2222  0.0966
33164W        W76081   4.631  25.878  31.830 -0.0045 -0.1979 -0.2267
33165W        W76082   5.811  28.526  31.462 -0.3685 -0.1576  0.1611
33166W        W76083   9.272  24.441  31.082  0.0014  0.1831  0.0971
33167W        W76084   7.611  27.804   0.912  0.3313 -0.1938  0.0544
33168W        W76085   3.817  30.322  19.605 -0.1199  0.1704  0.0130
33169W        W76086   5.981  30.169  19.322  0.1612  0.0302 -0.1364
33170W        W76087   8.330  29.834  15.797  0.0947  0.0494 -0.0584
33171W        W76088   6.353  29.907  16.000  0.0573 -0.0582 -0.0601
33172W        W76089   4.425  30.716  17.147  0.0386 -0.0114  0.0598
33173W        W76090   4.651  31.907  17.043  0.2469  0.0040 -0.0290
33174W        W76091   6.403  30.286  17.846 -0.4154  0.0440 -0.2317
33175W        W76092   5.474  32.461  16.144  0.0646  0.0012 -0.0052
33176W        W76093   7.332  31.736  17.576 -0.2349 -0.0059 -0.0056
33177W        W76094   4.862  30.797  15.594 -0.2533  0.1566  0.0493
33178W        W76095   5.507  30.382  19.360 -0.1679 -0.0710 -0.1051
33179W        W76096   4.216  30.950  18.496 -0.1122 -0.2338 -0.0378
33180W        W76097   5.005  27.503  16.618 -0.2871 -0.4179  0.2748
33181W        W76098   6.199  30.936  17.327 -0.1430 -0.2160 -0.0278
33182W        W76099   6.132  30.074  17.381 -0.0617 -0.0361  0.2221
33183W        W76100   3.606  31.084  15.511  0.0826 -0.0319  0.0380
33184W        W76101   3.502  32.276  16.058  0.0811  0.2668  0.2259
33185W        W76102   6.895  28.397  16.204  0.1582 -0.3721  0.2019
33186W        W76103   6.258  31.133  16.611 -0.1829  0.1668 -0.1042
33187W        W76104   4.394  29.033  19.345 -0.1674 -0.2926  0.1028
33188W        W76105   7.054  30.329  20.340 -0.1497  0.0081 -0.1558
33189W        W76106   7.584  32.029  16.489 -0.0006  0.0289  0.2078
33190W        W76107   2.456  30.506  17.144  0.1275 -0.2792 -0.0589
33191W        W76108   5.639  30.639  18.406  0.1630  0.1601  0.0849
33192W        W76109   4.852  32.651  18.262 -0.2773  0.0709 -0.0078
33193W        W76110   7.659  30.043  17.602 -0.2098 -0.0188  0.2089
33194W        W76111   5.935  32.244  15.862 -0.1109  0.0038 -0.1955
33195W        W76112   5.017  32.748  17.766 -0.0161 -0.3269  0.0757
33196W        W76113   5.277  32.427  19.028 -0.0405  0.0107  0.0318
33197W        W76114   7.775  29.302  19.958 -0.1921 -0.1003  0.0754
33198W        W76115   2.403  32.486  16.004 -0.1943 -0.3111  0.1143
33199W        W76116   6.282  33.197  15.480 -0.2780  0.0929  0.1843
33200W        W76117   2.619  33.209  17.539  0.2069  0.0107  0.1934
33201W        W76118   5.712  32.596  16.603  0.1816  0.0266  0.4063
33202W        W76119   8.622  32.967  18.329 -0.3001 -0.0152  0.2661
33203W        W76120   5.608  33.827  18.744 -0.2793 -0.0261 -0.0166
33204W        W76121   4.948  31.655  17.547  0.3828 -0.1122 -0.1127
33205W        W76122   6.688  31.243  21.306 -0.2287 -0.1582  0.2677
33206W        W76123   4.580  32.017  20.188  0.0725 -0.1799 -0.1782
33207W        W76124   5.710  31.437  19.750  0.1853  0.1190  0.0130
33208W        W76125   6.768  28.907  16.132 -0.5155 -0.1046 -0.0078
33209W        W76126   4.057  30.672  15.387 -0.0510 -0.0883  0.3053
33210W        W76127   4.150  29.892  17.282  0.1593  0.2516  0.0537
33211W        W76128   3.787  32.252  18.919  0.0337 -0.0059 -0.0706
33212W        W76129   3.116  30.554  17.845  0.2481  0.1353 -0.0925
33213W        W76130   7.531  27.907  19.848 -0.1023  0.2600  0.1172
33214W        W76131   4.907  31.226  15.957 -0.3684  0.0722 -0.2165
33215W        W76132   5.355  30.114  15.991 -0.0641 -0.0878 -0.3530
33216W        W76133   5.278  30.787  17.655 -0.0071 -0.0617 -0.0801
33217W        W76134   7.649  29.746  15.493  0.1556  0.2050  0.0179
33218W        W76135   6.457  28.591  16.626  0.2156  0.1117 -0.1202
33219W        W76136   4.265  31.892  17.380 -0.2220 -0.1517  0.0308
33220W        W76137   5.926  30.031  17.906  0.2584  0.1376  0.2433
33221W        W76138   6.791  32.233  16.946 -0.0569  0.1221  0.1027
33222W        W76139   6.409  30.757  15.242 -0.2156 -0.1660 -0.2769
33223W        W76140   7.915  30.375  18.901  0.0985  0.3250 -0.3506
33224W        W76141   4.852  33.647  18.100 -0.0949  0.1413  0.1662
33225W        W76142   4.090  31.258  17.497  0.0783 -0.3991  0.2266
33226W        W76143   6.287  31.999  16.095 -0.0870  0.0016 -0.1329
33227W        W76144   6.325   1.553  16.874  0.1677 -0.4174 -0.1302
33228W        W76145   7.899  33.125  16.733 -0.0751 -0.2153  0.0497
33229W        W76146   3.924  29.183  17.328  0.0149  0.3124  0.1666
33230W        W76147   4.748  29.831  19.981  0.0016  0.3224  0.1260
33231W        W76148   4.275  33.646  19.636 -0.0808 -0.1686  0.1346
33232W        W76149   5.439  29.108  17.427  0.4003  0.1703  0.4231
33233W        W76150   5.555  31.445  18.266 -0.3002  0.0239  0.0088
33234W        W76151   3.649  33.281  16.699 -0.2047 -0.0040 -0.3385
33235W        W76152   6.434  32.065  16.596 -0.3236  0.1073 -0.1066
33236W        W76153   3.018  31.196  16.715 -0.1928 -0.2048  0.0818
33237W        W76154   7.793  31.774  17.079  0.3603 -0.1084  0.2881
33238W        W76155   6.797  31.383  14.562 -0.2476  0.1778 -0.1405
33239W        W76156   6.877  29.506  17.635 -0.0430 -0.4351 -0.0743
33240W        W76157   6.404  29.535  18.403  0.0255 -0.2177 -0.0018
33241W        W76158   6.461  30.520  16.899 -0.1090 -0.2011  0.2791
33242W        W76159   5.229  29.691  15.679  0.0245  0.0534 -0.0982
33243W        W76160   5.765  31.491  19.128  0.3674  0.1897  0.2791
33244W        W76161   8.777  31.507  15.550  0.1415 -0.1307 -0.1762
33245W        W76162   4.406  33.589  19.001 -0.0342 -0.0138  0.2298
33246W        W76163   2.920  29.329  19.656 -0.2080 -0.1007 -0.0177
33247W        W76164   6.155  33.510  17.402 -0.3537  0.1040  0.0351
33248W        W76165   5.480  31.720  16.592  0.0379  0.1440  0.3280
33249W        W76166   4.150  32.397  17.232 -0.1324 -0.0647 -0.1099
33250W        W76167   4.753  31.969  16.195 -0.1527 -0.3639  0.2167
33251W        W76168   5.053  31.995  18.888  0.2229 -0.1166  0.1329
33252W        W76169   7.662  32.287  17.284  0.2743  0.3502  0.0752
33253W        W76170   7.926  30.916  17.852 -0.1352  0.0962 -0.2619
33254W        W76171   5.269  31.852  18.063  0.0403  0.0960 -0.0586
33255W        W76172   7.874  28.662  19.748  0.0625  0.2359  0.1853
33256W        W76173   5.294  28.920  18.757  0.2476 -0.0232 -0.0488
33257W        W76174   4.922  31.537  18.019  0.0118 -0.1046 -0.0579
33258W        W76175   5.259  29.240  16.587  0.2174  0.0676  0.0048
33259W        W76176   7.195  30.836  15.571  0.4116 -0.2095  0.3114
33260W        W76177   2.753  30.234  18.065 -0.2699  0.1269 -0.0968
33261W        W76178   2.672  31.602  16.661 -0.0739  0.2278 -0.3674
33262W        W76179   4.880  28.963  20.097  0.2019 -0.0396  0.0713
33263W        W76180   4.730  29.255  19.642  0.0979  0.2321 -0.0519
33264W        W76181   7.977  29.744  19.158 -0.3310 -0.3413 -0.0708
33265W        W76182   4.666  28.968  18.706  0.1406 -0.3660 -0.4422
33266W        W76183   5.140  32.324  18.001  0.1283 -0.2701  0.2644
33267W        W76184   7.258  30.424  17.950  0.0729 -0.1637  0.1010
33268W        W76185   4.406  31.151  16.910  0.0488 -0.0065  0.0020
33269W        W76186   7.334  29.667  19.237  0.1560 -0.0282  0.1608
33270W        W76187   4.553  31.473  17.280  0.1576 -0.2151  0.1634
33271W        W76188   6.832  33.767  19.065  0.3276  0.1548  0.2625
33272W        W76189   4.577  31.230  18.160 -0.2975  0.1708  0.1639
33273W        W76190   3.492  28.979  21.119  0.0440  0.1705  0.0948
33274W        W76191   2.999  32.009  16.727 -0.1569 -0.1590 -0.0484
33275W        W76192   4.503  31.614  15.878 -0.2764 -0.1636 -0.0162
33276W        W76193   4.892  30.977  17.931 -0.0826  0.2625  0.3736
33277W        W76194   4.621  28.790  17.991  0.4229 -0.0151 -0.2799
33278W        W76195   5.785  33.252  15.259 -0.0268 -0.1904 -0.1051
33279W        W76196   6.161  30.662  16.558 -0.0097 -0.1825 -0.1060
33280W        W76197   3.765  30.169  18.157 -0.3104 -0.0306 -0.0406
33281W        W76198   6.297  32.352  17.078 -0.0262 -0.3578 -0.0058
33282W        W76199   8.347  31.194  18.268 -0.1287  0.0511 -0.2280
33283W        W76200   4.478  31.561  17.809  0.0177 -0.0849  0.1193
33284W        W76201   3.564  28.388  17.748 -0.1139  0.0472 -0.1604
33285W        W76202   6.850  33.700  16.768 -0.3085 -0.3501  0.0046
33286W        W76203   3.128  32.574  15.601  0.0633  0.0047  0.1208
33287W        W76204   4.110  32.034  16.930 -0.3207  0.0809 -0.0169
33288W        W76205   4.449  31.597  16.712 -0.0317  0.1866 -0.0388
33289W        W76206   6.519  30.001  16.916  0.0227  0.0310  0.1588
33290W        W76207   3.881  32.598  18.582  0.0257 -0.1483  0.1705
33291W        W76208   7.754  30.666  19.716  0.1780  0.2850 -0.1503
33292W        W76209   2.331  30.569  16.660 -0.1460 -0.3618 -0.0613
33293W        W76210   5.766  32.524  20.229 -0.1281  0.0005 -0.0101
33294W        W76211   4.721  29.997  16.589  0.0163  0.2929 -0.3838
33295W        W76212   7.629  28.789  16.585  0.0597  0.2594  0.0737
33296W        W76213   7.906  32.063  18.582 -0.0672 -0.1173  0.0729
33297W        W76214   6.956  29.876  16.206 -0.2727  0.2286 -0.0307
33298W        W76215   5.813  30.354  15.814 -0.0789 -0.1714  0.3186
33299W        W76216   5.443  29.699  18.066 -0.1446  0.1198 -0.1722
33300W        W76217   3.745  30.384  20.810 -0.1340  0.6589  0.0285
33301W        W76218   5.674  31.281  16.460 -0.0810  0.1408  0.0333
33302W        W76219   6.883  33.182  17.471 -0.1076  0.1979 -0.2914
33303W        W76220   5.545  30.512  16.210  0.3346 -0.1797 -0.0182
33304W        W76221   6.589  30.744  15.791 -0.0571  0.2062  0.2949
33305W        W76222   4.004  33.596  16.428  0.1404 -0.0123 -0.1086
33306W        W76223   7.443  33.155  17.720  0.0542  0.0740 -0.4630
33307W        W76224   4.014  31.416  17.001  0.1371  0.0757 -0.1482
33308W        W76225   6.111  29.451  19.733  0.0802 -0.1941 -0.0401
33309W        W76226   5.430  31.182  15.135 -0.0032 -0.2716  0.0446
33310W        W76227   3.870  28.258  19.554  0.1454  0.2544 -0.0218
33311W        W76228   5.201  32.962  16.490  0.1437 -0.1262  0.2174
33312W        W76229   6.068  30.623  17.645  0.0239 -0.3188 -0.1861
33313W        W76230   6.829  28.943  19.339 -0.3136 -0.0025 -0.1663
33314W        W76231   5.947  29.540  18.062  0.0006 -0.1759 -0.2035
33315W        W76232   8.173  30.002  20.535  0.2922 -0.1726 -0.1837
33316W        W76233   6.498  29.686  16.502 -0.0570 -0.0607 -0.0438
33317W        W76234   6.959  29.816  16.780  0.2300  0.0322  0.0055
33318W        W76235   3.182  30.041  16.064 -0.0968  0.4916  0.0085
33319W        W76236   6.565  29.458  19.861  0.0152 -0.1727 -0.0601
33320W        W76237   4.014  32.124  18.481 -0.2949 -0.3743  0.1937
33321W        W76238   3.464  31.050  16.966  0.0898  0.0902 -0.0024
33322W        W76239   8.765  33.269  16.041 -0.2891  0.1864  0.0808
33323W        W76240   3.724  30.021  16.883 -0.1063  0.0878  0.1496
33324W        W76241   5.694  29.135  20.888  0.1588 -0.2732  0.0951
33325W        W76242   5.289  31.262  17.791 -0.2092  0.2097 -0.2231
33326W        W76243   4.281  31.287  16.176  0.0713 -0.0405  0.3317
33327W        W76244   3.925  30.912  17.220 -0.0511 -0.0258 -0.3692
33328W        W76245   3.703  28.537  16.741 -0.2252  0.1709  0.1661
33329W        W76246   5.658  30.930  17.982 -0.2993  0.1181 -0.2539
33330W        W76247   3.645  31.330  16.101  0.0490  0.0455  0.0084
33331W        W76248   5.520  31.966  19.174 -0.3169  0.2638 -0.0324
33332W        W76249   6.611  33.395  15.936 -0.1641  0.2112  0.0506
33333W        W76250   6.812  29.501  19.447  0.0793  0.2220 -0.3262
33334W        W76251   4.600  33.201  17.120  0.0267  0.1821  0.0222
33335W        W76252   4.518  31.021  17.612  0.0327  0.1723  0.0997
33336W        W76253   4.829  30.877  16.921 -0.1867 -0.0030 -0.1933
33337W        W76254   4.837  30.340  17.068  0.2530  0.4578  0.1205
33338W        W76255   5.219  29.860  16.897  0.1205 -0.0009 -0.0260
33339W        W76256   4.414  30.474  18.594  0.2493 -0.0169  0.1771
33340W        W76257   6.072  27.712  17.848 -0.1309 -0.0000 -0.3316
33341W        W76258   3.961  33.024  18.057 -0.1747 -0.0462 -0.1123
33342W        W76259   5.870  31.871  19.502 -0.0529 -0.1208  0.0746
33343W        W76260   7.398  30.293  15.507 -0.0603 -0.0151 -0.1335
33344W        W76261   4.971  31.972  18.406  0.2762  0.1737 -0.1368
33345W        W76262   6.393  33.075  18.302 -0.2846 -0.1271 -0.2475
33346W        W76263   4.900  30.044  15.774  0.2970  0.3693 -0.2092
33347W        W76264   6.615  29.800  18.771  0.1983  0.0258  0.0718
33348W        W76265   4.810  31.612  19.213  0.0854  0.1096 -0.1273
33349W        W76266   4.951  31.959  16.653 -0.0862  0.0129  0.0152
33350W        W76267   8.258  31.989  17.458  0.1813  0.0251 -0.0884
33351W        W76268   3.467  31.834  17.638  0.0910  0.2642 -0.0564
33352W        W76269   4.914  31.463  16.916 -0.0145  0.2095  0.1576
33353W        W76270   6.399  30.832  20.540 -0.0020 -0.2620  0.1161
33354W        W76271   8.679  29.564  19.570 -0.1481  0.1027  0.2822
33355W        W76272   5.463  32.404  17.223  0.4141 -0.2272 -0.0323
33356W        W76273   5.090  32.328  17.542  0.0743  0.3314 -0.1831
33357W        W76274   4.592  30.139  17.435  0.0101 -0.0433  0.1631
33358W        W76275   5.266  30.911  17.158 -0.1947  0.0234  0.0306
33359W        W76276   6.378  29.754  19.288  0.1362 -0.0675 -0.0254
33360W        W76277   4.557  34.507  18.311 -0.1467 -0.4888  0.3995
33361W        W76278   6.420  28.900  18.976 -0.2421  0.1097 -0.2232
33362W        W76279   7.332  32.994  14.762  0.1392 -0.2093 -0.1464
33363W        W76280   7.137  29.193  20.513  0.1756  0.2053 -0.0900
33364W        W76281   5.865  33.127  17.441  0.0420  0.0464  0.1805
33365W        W76282   5.208  30.669  18.684  0.3028 -0.3493  0.0579
33366W        W76283   6.670  31.982  15.738 -0.1307 -0.1321 -0.0165
33367W        W76284   5.273  29.851  19.673 -0.2861  0.0330 -0.0472
33368W        W76285   3.736  32.432  16.975 -0.2186  0.1979 -0.5123
33369W        W76286   4.607  32.431  15.306  0.0223 -0.0292 -0.0797
33370W        W76287   5.093  32.191  19.422 -0.5386 -0.1165  0.1054
33371W        W76288   8.685  29.463  15.850 -0.0820 -0.2531  0.4512
33372W        W76289   6.077  31.696  15.760  0.0213  0.0467  0.0324
33373W        W76290   6.639  32.738  18.056  0.3482  0.1691 -0.4492
33374W        W76291   8.674  30.193  17.961 -0.0938 -0.1329 -0.0597
33375W        W76292   6.716  31.062  16.773  0.0302  0.1257 -0.1785
33376W        W76293   4.570  30.482  21.216 -0.0765  0.0823 -0.2814
33377W        W76294   6.733  27.489  19.879 -0.1009 -0.3002 -0.0937
33378W        W76295   6.742  31.042  17.366 -0.2104  0.2345  0.2089
33379W        W76296   4.077  30.729  16.725  0.4019 -0.0726  0.2740
33380W        W76297   4.999  31.647  20.560 -0.0020  0.2707  0.1525
33381W        W76298   4.293  32.162  21.691  0.0010  0.0197 -0.1337
33382W        W76299   5.095  30.034  17.434  0.0632 -0.2703  0.0727
33383W        W76300   4.341  29.987  15.807  0.1012 -0.0644  0.1632
33384W        W76301   5.456  31.537  17.444  0.1444 -0.0333 -0.0248
33385W        W76302   7.011  31.428  16.426 -0.2387  0.3912 -0.0568
33386W        W76303   4.420  32.149  15.807  0.2505  0.1457  0.3225
33387W        W76304   7.737  30.430  17.137 -0.1715  0.1586 -0.0986
33388W        W76305   4.034  31.693  16.012  0.0402  0.0486  0.5192
33389W        W76306   5.874  31.496  14.750  0.0685 -0.2601  0.3372
33390W        W76307   5.862  31.236  15.917  0.1577  0.1737 -0.1192
33391W        W76308   3.946  31.167  19.008  0.0637 -0.2903  0.2062
33392W        W76309   3.885  31.556  18.577  0.4900  0.2279  0.0111
33393W        W76310   5.826  33.231  18.851 -0.0050 -0.1414 -0.6068
33394W        W76311   4.319  30.762  18.035  0.0343  0.0391 -0.0224
33395W        W76312   6.058  31.214  17.803 -0.0190  0.0801  0.0937
33396W        W76313   5.914  31.360  20.801  0.0091 -0.1422 -0.2139
33397W        W76314   5.178  30.722  19.238  0.2345  0.2018  0.1651
33398W        W76315   3.828  29.136  20.117 -0.2430 -0.0621  0.3242
33399W        W76316   5.434  33.478  19.156  0.0719 -0.2055  0.0923
33400W        W76317   8.169  30.257  17.146 -0.1029  0.1136 -0.0813
33401W        W76318   6.967  30.641  17.558  0.0572  0.3452 -0.1166
33402W        W76319   6.710  30.289  16.068  0.0322  0.1956 -0.0567
33403W        W76320   5.650  29.618  16.488 -0.0406  0.0713 -0.1792
33404W        W76321   3.653  30.393  17.709 -0.0757  0.0526  0.3482
33405W        W76322   9.089  29.039  19.809 -0.0702 -0.1566 -0.1397
33406W        W76323   3.187  31.315  15.860  0.1879 -0.0291 -0.0213
33407W        W76324   6.677  29.988  20.887 -0.1470 -0.0869  0.2313
33408W        W76325   5.853  31.127  15.375  0.0677 -0.0058 -0.1063
33409W        W76326   5.240  31.221  15.595  0.1976  0.0169 -0.0719
33410W        W76327   5.843  30.256  16.757  0.0359 -0.4412 -0.1188
33411W        W76328   4.282  29.446  17.672  0.4522 -0.2954  0.0057
33412W        W76329   3.770  32.565  18.108 -0.0659  0.0206  0.2348
33413W        W76330   3.809  31.155  16.573 -0.1743 -0.2965  0.2256
33414W        W76331   6.103  31.515  16.266  0.3710  0.0844  0.1308
33415W        W76332   7.336  31.260  18.533  0.1619  0.0699  0.2626
33416W        W76333   7.564  29.977  18.949 -0.1775  0.1337 -0.0282
33417W        W76334   5.893  30.870  16.245  0.1909 -0.1536  0.0788
33418W        W76335   6.705  30.639  18.750 -0.1899  0.0037 -0.0829
33419W        W76336   2.860  32.204  15.797  0.2642 -0.2259  0.0369
33420W        W76337   6.883  28.188  16.764  0.0110 -0.3228  0.1921
33421W        W76338   5.365  32.840  18.169  0.5348 -0.0764 -0.0971
33422W        W76339   3.971  31.156  19.719  0.0047 -0.3734 -0.1144
33423W        W76340   3.790  32.952  17.113 -0.1559  0.1615  0.0959
33424W        W76341   5.192  30.723  20.270  0.0463  0.2249 -0.1715
33425W        W76342   5.726  29.154  16.307 -0.3630  0.2353  0.0463
33426W        W76343   5.896  31.675  18.501 -0.3920  0.2839 -0.0621
33427W        W76344   6.518  30.816  17.795  0.1675  0.1857  0.1232
33428W        W76345   3.889  30.626  18.297  0.0646  0.1889  0.2317
33429W        W76346   5.617  31.334  16.947 -0.0191  0.1702 -0.2748
33430W        W76347   6.199  31.702  19.109  0.2150  0.0993 -0.0309
33431W        W76348   7.283  33.258  16.796 -0.1099 -0.2904 -0.2680
33432W        W76349   3.127  31.825  18.059 -0.0085 -0.0271  0.0360
33433W        W76350   3.554  31.688  21.163  0.3981  0.1911 -0.2739
33434W        W76351   6.408  31.414  18.482  0.1933 -0.0817 -0.0979
33435W        W76352   7.367  31.464  18.029  0.0528 -0.0886 -0.0719
33436W        W76353   5.062  30.010  17.966  0.0900  0.1436  0.1779
33437W        W76354   4.842  32.341  17.105 -0.1623 -0.1520 -0.0467
33438W        W76355   5.483  33.429  18.026  0.0651  0.3338 -0.1277
33439W        W76356   4.185  29.038  17.996  0.0171 -0.0094  0.0913
33440W        W76357   5.661  32.922  16.247 -0.1660 -0.0929  0.1023
33441W        W76358   8.452  31.726  14.321 -0.3001  0.0035  0.0534
33442W        W76359   7.446  29.831  16.026 -0.2931  0.0624 -0.0588
33443W        W76360   4.942  33.192  17.985 -0.0464  0.2576  0.2109
33444W        W76361   3.467  31.521  16.712  0.2852 -0.1152  0.2993
33445W        W76362   4.789  33.186  15.635 -0.1554 -0.0928 -0.3430
33446W        W76363   3.926  30.443  17.162  0.0828  0.0462 -0.0438
33447W        W76364   6.355  31.223  15.569  0.1113  0.0234 -0.0413
33448W        W76365   3.775  32.200  17.468 -0.2847  0.2098  0.0494
33449W        W76366   6.643  31.281  17.994 -0.1341 -0.0286  0.0313
33450W        W76367   6.234  29.504  15.648  0.1119  0.0366 -0.3526
33451W        W76368   5.409  30.242  15.513  0.0517 -0.2900  0.3667
33452W        W76369   6.918  31.706  17.814 -0.0085  0.1738  0.1081
33453W        W76370   5.638  32.767  18.606 -0.0603 -0.1498 -0.0991
33454W        W76371   4.510  31.172  18.885  0.0745  0.1187  0.0651
33455W        W76372   5.952  30.993  16.943  0.1736  0.2228 -0.0057
33456W        W76373   3.880  32.368  20.655  0.0839 -0.0692 -0.3745
33457W        W76374   6.464  27.592  20.354 -0.1570 -0.2557 -0.3077
33458W        W76375   2.159  33.255  17.858 -0.1459 -0.1970 -0.0587
33459W        W76376   5.997  31.556  16.722 -0.1687  0.1211 -0.1413
33460W        W76377   5.032  29.569  18.265  0.1853  0.1418 -0.3375
33461W        W76378   5.022  30.292  16.274 -0.3427 -0.0350  0.1357
33462W        W76379   6.115  29.841  18.761 -0.4153  0.0431  0.0578
33463W        W76380   5.469  31.540  16.082  0.2547  0.0569 -0.0552
33464W        W76381   7.266  29.390  16.930  0.0283 -0.2321 -0.0725
33465W        W76382   5.667  30.335  17.593 -0.1794  0.1280  0.0044
33466W        W76383   3.673  29.646  18.220  0.0826 -0.2553  0.0987
33467W        W76384   5.486  32.619  17.734 -0.0918 -0.4688  0.0592
33468W        W76385   2.662  30.885  16.883 -0.0677 -0.0254 -0.2621
33469W        W76386   5.554  29.503  17.016  0.1034 -0.1435 -0.2566
33470W        W76387   5.493  31.067  20.103 -0.2231  0.0026  0.0336
33471W        W76388   7.406  28.197  18.982  0.3343  0.3033 -0.2235
33472W        W76389   5.914  30.174  18.384 -0.2092  0.2666 -0.0974
33473W        W76390   5.970  30.097  16.229  0.1698 -0.0969  0.0080
33474W        W76391   4.523  33.032  18.174 -0.4461 -0.0677 -0.5270
33475W        W76392   5.790  31.607  17.810 -0.2530  0.0751 -0.0164
33476W        W76393   4.432  30.980  15.836 -0.1947 -0.3494  0.0465
33477W        W76394   8.521  30.755  20.264  0.0024  0.0680 -0.1380
33478W        W76395   5.047  31.706  15.771  0.1128  0.1330 -0.1325
33479W        W76396   5.617  33.765  17.609 -0.2514  0.4175 -0.0477
33480W        W76397   3.943  30.216  18.639 -0.3606  0.0200 -0.0185
33481W        W76398   5.301  28.475  15.658 -0.1241  0.1875  0.2450
33482W        W76399   3.679  31.994  18.097 -0.1515  0.2242 -0.0576
33483W        W76400   5.515  31.088  18.662 -0.2247 -0.2198 -0.1818
33484W        W76401   5.792  33.622  20.455  0.2400 -0.4732 -0.0793
33485W        W76402   4.569  30.561  16.666 -0.2661  0.0283  0.1976
33486W        W76403   6.254  32.121  15.482 -0.1593  0.1750  0.2304
33487W        W76404   6.121  31.281  19.390  0.0364  0.0253 -0.0668
33488W        W76405   4.173  30.315  16.295  0.1635  0.1955  0.0970
33489W        W76406   6.373  30.347  15.578 -0.0375  0.0260 -0.0000
33490W        W76407   6.471  32.437  15.882 -0.0098 -0.3293 -0.3374
33491W        W76408   5.095  29.684  16.401 -0.0310 -0.5133  0.0499
33492W        W76409   6.945  32.448  15.929  0.0802  0.2152 -0.1302
33493W        W76410   7.582  32.864  18.485  0.0701  0.2568 -0.4895
33494W        W76411   5.226  30.578  15.850 -0.0324  0.1481  0.0358
33495W        W76412   3.114  31.631  17.036 -0.1026  0.1115 -0.2020
33496W        W76413   3.112  31.570  16.381 -0.0819 -0.2192 -0.1466
33497W        W76414   8.097  29.858  18.688  0.1348 -0.2015 -0.2980
33498W        W76415   7.438  32.810  21.120  0.0597  0.0623 -0.2317
33499W        W76416   4.052  31.262  15.708  0.2945 -0.2147  0.1705
33500W        W76417   5.466  28.931  19.263  0.1329  0.0809  0.0641
33501W        W76418   4.469  32.743  17.127  0.0959  0.2019 -0.1268
33502W        W76419   4.159  33.529  20.088 -0.1373 -0.2338  0.0253
33503W        W76420   4.562  31.645  15.031 -0.0710  0.0404  0.3532
33504W        W76421   5.174  31.115  18.336 -0.0420  0.1558 -0.1726
33505W        W76422   5.355  33.203  18.524 -0.6069  0.0454 -0.0408
33506W        W76423   6.683  32.439  16.417  0.4530 -0.1427  0.1165
33507W        W76424   6.797  33.160  16.808 -0.1352  0.2471 -0.0556
33508W        W76425   3.262  30.997  17.707  0.1666 -0.3979  0.2215
33509W        W76426   6.964  33.480  16.284 -0.0133  0.3045  0.3183
33510W        W76427   4.873  30.684  17.398  0.4329  0.0406 -0.0553
33511W        W76428   6.570  30.385  17.355 -0.2947  0.2675  0.0411
33512W        W76429   5.409  29.108  18.257  0.0471  0.1890 -0.2980
33513W        W76430   5.822  30.917  19.704  0.0138  0.2830 -0.2628
33514W        W76431   5.343  30.435  17.175 -0.1600 -0.2835  0.0553
33515W        W76432   5.986  32.177  16.788 -0.0099  0.2139  0.4468
33516W        W76433   6.643  29.185  16.549 -0.1422  0.0650  0.1251
33517W        W76434   5.259  31.378  19.177  0.0331 -0.1987 -0.1295
33518W        W76435   4.987  31.037  19.965 -0.2802  0.1794 -0.1142
33519W        W76436   3.206  30.105  18.948 -0.2845  0.0817 -0.2912
33520W        W76437   5.161  30.542  16.667  0.2077  0.0102 -0.0786
33521W        W76438   8.126  30.801  15.304 -0.4360  0.1659 -0.0306
33522W        W76439   5.712  29.075  19.836  0.4649  0.0177 -0.2354
33523W        W76440   3.688  29.079  18.528 -0.1927  0.0822  0.0004
33524W        W76441   5.273  30.169  18.516 -0.2419 -0.1338 -0.2289
33525W        W76442   8.416  33.115  15.371  0.0540 -0.1600  0.1486
33526W        W76443   5.185  28.968  15.716  0.2019  0.0763 -0.1070
33527W        W76444   6.015  31.905  17.477 -0.1192 -0.0330  0.0926
33528W        W76445   3.017  31.185  15.448 -0.3594  0.0048  0.2587
33529W        W76446   5.544  32.003  21.090  0.3004 -0.1754  0.1146
33530W        W76447   5.312  31.200  20.564  0.1847 -0.5223 -0.1364
33531W        W76448   3.627  29.906  17.675  0.0201  0.0277  0.1239
33532W        W76449   6.375  30.448  19.910 -0.0239 -0.2384  0.2435
33533W        W76450   6.476  33.496  17.029  0.2961 -0.0005 -0.1538
33534W        W76451   7.026  31.808  15.458 -0.0531  0.1466  0.0894
33535W        W76452   6.992  30.474  19.246  0.2301  0.2975 -0.1945
33536W        W76453   3.829  33.485  18.232  0.0649 -0.3694 -0.3420
33537W        W76454   4.109  30.032  17.722 -0.6258  0.0852 -0.1344
33538W        W76455   6.928  30.572  17.010  0.4770  0.0350 -0.0920
33539W        W76456   3.400  33.496  20.665  0.1676  0.0409 -0.2491
33540W        W76457   8.105  31.332  15.249  0.1776 -0.2269 -0.2099
33541W        W76458   6.356  30.873  18.453 -0.2254  0.1346 -0.0227
33542W        W76459   5.513  30.805  15.546 -0.1011 -0.4125  0.3814
33543W        W76460   4.852  28.643  19.703  0.2033 -0.2631 -0.3918
33544W        W76461   3.748  33.540  18.828 -0.1617 -0.1953 -0.0676
33545W        W76462   5.976  33.344  19.485  0.0146  0.1825  0.0342
33546W        W76463   4.864  28.448  17.043  0.1577 -0.1946  0.2318
33547W        W76464   5.686  30.032  17.141  0.2602 -0.2622  0.2050
33548W        W76465   6.825  31.280  15.651 -0.1565  0.0847 -0.1834
33549W        W76466   3.457  30.672  17.284 -0.1041  0.2403 -0.0963
33550W        W76467   4.718  29.577  17.521  0.1639  0.2171 -0.0297
33551W        W76468   6.641  31.220  19.075  0.1338 -0.2246  0.2638
33552W        W76469   5.869  33.158  18.381 -0.0128 -0.3224 -0.0793
33553W        W76470   7.928  31.269  18.512  0.4647 -0.0325 -0.3568
33554W        W76471   4.869  30.735  16.157 -0.0371 -0.2713  0.2735
33555W        W76472   6.471  32.918  16.219  0.2234 -0.1387  0.1550
33556W        W76473   8.054  33.231  16.097 -0.0811 -0.0344 -0.0108
33557W        W76474   6.157  32.543  18.336  0.3448  0.0864 -0.1747
33558W        W76475   5.188  32.427  18.538  0.0659 -0.1986 -0.1242
33559W        W76476   5.507  30.245  18.093 -0.0575 -0.0342 -0.1949
33560W        W76477   4.582  29.345  18.027  0.2310 -0.1325 -0.0063
33561W        W76478   4.198  30.548  17.596 -0.0590  0.1475  0.1768
33562W        W76479   5.460  32.903  17.277 -0.0023 -0.0169 -0.0241
33563W        W76480   6.053  30.628  18.147  0.1888  0.0957  0.1474
33564W        W76481   5.708  29.597  18.506  0.2724  0.1696  0.0533
33565W        W76482   6.529  29.413  16.060  0.2000  0.1292  0.0390
33566W        W76483   6.241  33.501  18.541  0.0367  0.0187  0.5918
33567W        W76484   5.956  31.453  17.261  0.1072  0.3290 -0.2072
33568W        W76485   4.658  33.888  22.591 -0.2735  0.1153  0.1534
33569W        W76486   2.675  28.904  23.525 -0.0790 -0.0571 -0.2351
33570W        W76487   6.729  30.066  19.971 -0.0005 -0.0065 -0.0871
33571W        W76488   6.975  32.433  20.072 -0.0845  0.2158 -0.0235
33572W        W76489   3.710  29.628  21.839 -0.1304  0.2228 -0.0083
33573W        W76490   5.057  32.911  20.514  0.1421  0.0754  0.2604
33574W        W76491   4.732  29.513  25.931  0.0223  0.2289 -0.2852
33575W        W76492   5.644  30.842  20.537 -0.3042  0.1317  0.2163
33576W        W76493   7.085  32.375  23.152  0.1664 -0.1306  0.0800
33577W        W76494   3.752  30.764  18.724 -0.0234 -0.0129 -0.1944
33578W        W76495   5.659  32.050  21.801  0.0274  0.2332 -0.2244
33579W        W76496   3.380  31.966  22.317  0.1202  0.0187  0.0242
33580W        W76497   4.994  29.385  20.380 -0.2801  0.2069 -0.1748
33581W        W76498   4.073  30.740  21.106 -0.0262  0.1172  0.0431
33582W        W76499   6.933  30.962  19.376  0.0033  0.0250  0.0818
33583W        W76500   5.058  30.275  19.042 -0.3038 -0.0407 -0.0527
33584W        W76501   4.839  30.746  23.818  0.0274  0.1927  0.0547
33585W        W76502   5.832  31.886  20.505 -0.0265  0.1992  0.0971
33586W        W76503   5.920  33.699  19.135 -0.3285  0.1546  0.0627
33587W        W76504   3.912  30.686  22.638 -0.1030 -0.1322 -0.5483
33588W        W76505   3.675  29.517  22.532 -0.1302 -0.1323 -0.1706
33589W        W76506   3.577  33.178  19.398 -0.3903  0.0752 -0.0460
33590W        W76507   5.178  30.629  18.165 -0.0921 -0.0042  0.0174
33591W        W76508   3.025  31.969  21.889 -0.1188  0.2497  0.0089
33592W        W76509   4.667  31.839  23.509  0.1518 -0.1790  0.0330
33593W        W76510   8.023  31.174  23.397 -0.3257 -0.1727 -0.2651
33594W        W76511   8.053  30.755  19.261  0.3163  0.3519  0.1762
33595W        W76512   6.261  31.849  20.812 -0.1642 -0.1605  0.0850
33596W        W76513   5.884  31.919  22.244  0.4129  0.0723  0.1793
33597W        W76514   6.710  31.618  20.924 -0.0899  0.0757  0.0796
33598W        W76515   4.678  31.189  22.130  0.3220  0.3255  0.0502
33599W        W76516   3.841  33.688  20.947 -0.3331  0.0105  0.0420
33600W        W76517   5.829  31.830  20.009 -0.1357 -0.1360 -0.1271
33601W        W76518   6.134   0.223  20.600 -0.2932  0.2083  0.0066
33602W        W76519   5.697  33.550  23.522  0.0208  0.1927  0.0984
33603W        W76520   5.805  33.765  22.941  0.1967  0.0005  0.1575
33604W        W76521   5.140  29.359  19.387 -0.1756 -0.1198  0.1508
33605W        W76522   6.660  32.796  21.746 -0.4360 -0.0162 -0.0606
33606W        W76523   4.634  32.974  21.718 -0.0588  0.0989 -0.1977
33607W        W76524   3.556  31.429  23.087  0.0806  0.1811  0.0777
33608W        W76525   7.528  32.314  20.156 -0.0605  0.0115  0.2397
33609W        W76526   4.579  33.547  18.533 -0.1651  0.1031 -0.3526
33610W        W76527   6.783  31.077  20.719 -0.3286  0.1022 -0.1033
33611W        W76528   2.429  31.531  24.067 -0.1570 -0.0705 -0.3028
33612W        W76529   5.251  32.529  20.093 -0.1210 -0.0401  0.1228
33613W        W76530   7.151  29.037  23.670 -0.0237 -0.1126  0.2669
33614W        W76531   3.284  33.829  20.353 -0.0573 -0.0983  0.0306
33615W        W76532   4.825  31.080  20.615  0.1327  0.2724  0.1358
33616W        W76533   4.305  30.980  20.696 -0.2556 -0.0373  0.1375
33617W        W76534   7.710  29.835  19.559  0.2514  0.0237  0.0835
33618W        W76535   6.594  29.319  21.243 -0.1135 -0.1655 -0.0148
33619W        W76536   3.043  34.225  21.850  0.0350  0.2004  0.0307
33620W        W76537   5.063  29.936  21.676 -0.1295  0.2918 -0.0147
33621W        W76538   8.614  33.264  19.173  0.2122 -0.0140  0.1692
33622W        W76539   4.588  33.163  20.521  0.0200  0.4110 -0.0816
33623W        W76540   5.356  31.654  20.177 -0.0057  0.1155  0.4071
33624W        W76541   4.395  32.965  21.186  0.0136 -0.1159 -0.0564
33625W        W76542   4.590  32.039  20.716  0.0084  0.2013 -0.1627
33626W        W76543   7.180  32.085  19.113  0.0603  0.0387  0.1402
33627W        W76544   6.733  34.059  20.309 -0.2363 -0.0158 -0.2096
33628W        W76545   6.294  32.029  18.451 -0.0484  0.0335 -0.0109
33629W        W76546   5.214  30.577  19.740  0.3245 -0.1384  0.1137
33630W        W76547   4.462  30.536  24.143 -0.3112 -0.0223  0.2002
33631W        W76548   4.453  30.993  21.524 -0.2903  0.0535  0.0401
33632W        W76549   6.763  28.223  19.516  0.0384  0.0968 -0.0088
33633W        W76550   6.879  31.467  23.492  0.2981  0.1446  0.1954
33634W        W76551   2.164  31.622  24.519 -0.0586  0.1178 -0.1003
33635W        W76552   7.664  28.798  19.108 -0.1079 -0.0596  0.2033
33636W        W76553   5.458  32.625  21.370 -0.2258  0.0092 -0.1377
33637W        W76554   9.587  33.334  21.576 -0.0316  0.0748 -0.0136
33638W        W76555   6.001  33.132  20.751 -0.2341 -0.0625 -0.0774
33639W        W76556   6.593  30.489  22.444 -0.0496 -0.0105  0.1599
33640W        W76557   8.169  30.057  19.730 -0.1941 -0.0015 -0.1721
33641W        W76558   5.449  33.101  17.707  0.1067 -0.2871  0.1515
33642W        W76559   4.756  31.387  21.377  0.0065  0.1550  0.0767
33643W        W76560   7.741  33.085  21.391  0.1627  0.1661 -0.0695
33644W        W76561   8.095  30.880  18.784  0.3600  0.1232  0.2492
33645W        W76562   5.297  32.496  22.330 -0.0821 -0.1885 -0.0863
33646W        W76563   2.492  29.544  23.210  0.1730  0.2942  0.2989
33647W        W76564   5.509  31.688  24.450  0.0889  0.0851 -0.0138
33648W        W76565   4.436  31.714  18.376  0.1584  0.4396  0.5132
33649W        W76566   3.932  33.515  21.999 -0.1242  0.0033  0.3805
33650W        W76567   2.358  29.721  20.046  0.3267  0.1068 -0.1673
33651W        W76568   2.508  29.845  23.602  0.4666 -0.2606 -0.0391
33652W        W76569   4.360   0.273  22.563 -0.0514 -0.1083 -0.0673
33653W        W76570   7.698  30.518  20.336 -0.4473 -0.0716  0.0185
33654W        W76571   5.000  29.851  23.162  0.0782 -0.1300  0.0638
33655W        W76572   9.373  29.246  21.106  0.1604 -0.0310  0.2370
33656W        W76573   3.709  34.072  22.012 -0.0963 -0.1736  0.0396
33657W        W76574   7.393  30.986  19.566 -0.1262 -0.2392 -0.2234
33658W        W76575   7.998  30.809  18.308 -0.1205  0.1851 -0.1063
33659W        W76576   6.875  31.161  18.408  0.1024 -0.2520  0.3208
33660W        W76577   3.726  31.237  23.893 -0.1194 -0.1979 -0.2320
33661W        W76578   4.715  28.491  21.507 -0.5339 -0.0108  0.0352
33662W        W76579   3.853  27.677  23.980  0.4429  0.0198  0.1932
33663W        W76580   3.515  33.033  22.613 -0.2395  0.2361 -0.3523
33664W        W76581   6.091  32.961  21.855 -0.0315 -0.0178  0.4748
33665W        W76582   3.607  29.787  20.766  0.3057  0.1877 -0.3006
33666W        W76583   7.119  30.847  20.968  0.1237  0.2057  0.2388
33667W        W76584   4.539  31.779  22.828 -0.1707  0.2286 -0.0486
33668W        W76585   3.049  30.022  19.654 -0.0387  0.1797  0.2731
33669W        W76586   6.158  30.195  22.238  0.0636 -0.2262 -0.1644
33670W        W76587   4.772  31.440  20.182  0.0483 -0.5104 -0.4506
33671W        W76588   6.321  33.513  22.030  0.0270  0.2996  0.2956
33672W        W76589   6.383  34.093  19.919  0.1139 -0.3053 -0.0543
33673W        W76590   4.183  30.201  23.783  0.1814 -0.1095  0.2536
33674W        W76591   4.951  29.956  20.446 -0.1030  0.0255  0.1434
33675W        W76592   5.387  32.946  24.420 -0.2712  0.1798 -0.0124
33676W        W76593   5.641  31.028  22.366 -0.1480 -0.0591 -0.3436
33677W        W76594   2.150  29.192  20.340 -0.0465  0.2491  0.2128
33678W        W76595   6.459  32.806  20.765  0.0165 -0.0405  0.0061
33679W        W76596   6.180  32.191  19.314 -0.3700 -0.1575 -0.2542
33680W        W76597   4.389  33.714  21.296  0.1189 -0.1786 -0.0818
33681W        W76598   5.477  31.412  22.104  0.0716 -0.1031 -0.3197
33682W        W76599   4.927  32.949  19.807 -0.0532 -0.1393  0.1725
33683W        W76600   5.617  30.509  21.081 -0.2013 -0.0451 -0.1257
33684W        W76601   3.173  30.027  20.272 -0.1887 -0.2136  0.0766
33685W        W76602   4.087  30.699  20.338  0.1796  0.1958  0.0123
33686W        W76603   4.129  31.765  19.599  0.0028  0.2316  0.2637
33687W        W76604   4.447  32.846  22.635  0.1480 -0.0755 -0.1460
33688W        W76605   4.152  32.008  20.467 -0.0023 -0.0952  0.1465
33689W        W76606   6.604  29.302  20.473 -0.1793  0.1919  0.1255
33690W        W76607   4.213  31.486  24.847 -0.2047 -0.0687  0.1512
33691W        W76608   5.828  31.392  21.305  0.1012 -0.1797  0.0182
33692W        W76609   3.936  29.635  20.420 -0.3661 -0.0071  0.0947
33693W        W76610   4.239  30.509  21.746  0.2939  0.0892  0.0623
33694W        W76611   9.113  29.544  20.668  0.3247 -0.0776 -0.5221
33695W        W76612   7.072  29.808  19.761 -0.2087 -0.0824 -0.2599
33696W        W76613   4.438  31.578  20.511 -0.2688 -0.0207  0.0774
33697W        W76614   8.549  31.770  20.191 -0.1423  0.1987 -0.0873
33698W        W76615   4.569  30.015  21.492  0.2697  0.3936  0.3901
33699W        W76616   6.145  31.144  18.867 -0.4489  0.1022  0.3413
33700W        W76617   2.893  33.524  21.103 -0.0642  0.1864 -0.1014
33701W        W76618   7.318  33.418  19.157  0.0942  0.3176  0.2186
33702W        W76619   5.115  32.598  20.929 -0.2165 -0.2248 -0.0082
33703W        W76620   4.683  30.942  21.070  0.2546  0.2598 -0.2968
33704W        W76621   7.426  32.570  19.316 -0.1752 -0.0607  0.1263
33705W        W76622   4.229  32.864  20.164 -0.1036 -0.1895  0.2898
33706W        W76623   5.479  31.254  22.848 -0.3037 -0.0374 -0.0380
33707W        W76624   6.259  33.830  20.323 -0.1111  0.1250 -0.0517
33708W        W76625   5.351  29.826  24.794  0.1390  0.2690 -0.2754
33709W        W76626   4.239  32.834  20.722 -0.0199  0.2804 -0.1090
33710W        W76627   5.673  30.032  20.548  0.0846 -0.2036  0.1641
33711W        W76628   3.485  31.942  20.726 -0.0554 -0.0026  0.0817
33712W        W76629   5.749  29.627  20.141 -0.0218 -0.1007  0.0740
33713W        W76630   5.054  31.605  22.972 -0.0768 -0.1518  0.0708
33714W        W76631   5.064  28.377  23.028  0.1888 -0.0308 -0.2302
33715W        W76632   6.848  30.510  24.672 -0.1295 -0.2648 -0.0411
33716W        W76633   5.709  30.590  20.154 -0.2149  0.1795  0.3062
33717W        W76634   4.044  31.349  21.373  0.0218  0.0520  0.0047
33718W        W76635   4.620  31.907  19.685  0.1628 -0.3647  0.2465
33719W        W76636   4.837  32.463  22.618  0.2013  0.1109 -0.1903
33720W        W76637   4.119  32.676  23.296  0.1814  0.1242  0.1206
33721W        W76638   6.021  33.951  17.228 -0.3113  0.0256  0.0321
33722W        W76639   8.871  31.114  22.952  0.1541  0.0552 -0.0215
33723W        W76640   4.036  31.747  20.899 -0.0002 -0.1667  0.1806
33724W        W76641   6.162  29.319  23.008  0.0218  0.0062  0.1500
33725W        W76642   3.769  29.956  22.655  0.0035  0.2633  0.1710
33726W        W76643   5.391  31.813  19.666  0.2077  0.1058 -0.1476
33727W        W76644   4.533  31.918  18.808  0.2380 -0.0965 -0.3027
33728W        W76645   4.454  28.558  21.001  0.1133 -0.2833  0.4533
33729W        W76646   5.174  29.235  20.917 -0.3345  0.2259 -0.0485
33730W        W76647   5.363  32.940  18.941  0.0955 -0.1057 -0.0301
33731W        W76648   5.884  32.522  21.596  0.2497 -0.0048  0.1688
33732W        W76649   4.773  32.143  22.183  0.5269 -0.2493  0.0982
33733W        W76650   6.824  30.457  20.811 -0.0718 -0.2573 -0.0525
33734W        W76651   4.782  32.162  23.058 -0.1021 -0.1108 -0.0778
33735W        W76652   4.434  31.356  21.006  0.1896  0.2665  0.1169
33736W        W76653   5.109  31.737  21.275 -0.1999  0.3260  0.3547
33737W        W76654   8.167  27.900  18.028  0.0876 -0.0904 -0.1357
33738W        W76655   7.869  30.286  19.376  0.1061  0.0454 -0.0812
33739W        W76656   4.663  30.292  22.493  0.2150  0.1674  0.2917
33740W        W76657   4.972  29.738  23.782  0.0048 -0.1651 -0.1339
33741W        W76658   3.827  32.364  21.608 -0.0201 -0.0839 -0.1593
33742W        W76659   4.785  32.309  21.220  0.0253  0.2123  0.1599
33743W        W76660   6.442  30.140  18.448 -0.1846 -0.0069 -0.0426
33744W        W76661   7.065  32.492  21.988  0.1085  0.0811  0.0442
33745W        W76662   5.423  32.070  24.109  0.1785 -0.1650  0.1718
33746W        W76663   2.763  30.316  20.956 -0.4385  0.1447 -0.3056
33747W        W76664   5.506  30.757  22.871  0.2842  0.1258  0.1248
33748W        W76665   5.225  29.197  23.287 -0.0449 -0.0924 -0.1267
33749W        W76666   3.199  33.889  21.433 -0.2424  0.0898  0.2216
33750W        W76667   4.909  32.349  20.445  0.0426  0.2371 -0.4908
33751W        W76668   4.780  32.446  18.792 -0.3925 -0.1837 -0.0338
33752W        W76669   4.785  33.113  22.212  0.1558  0.0180  0.0807
33753W        W76670   4.538  30.601  24.669  0.1660  0.1591 -0.0011
33754W        W76671   7.121  31.024  21.430 -0.0547  0.0162  0.1972
33755W        W76672   4.851  28.482  23.514 -0.0885  0.1017  0.0611
33756W        W76673   4.216  29.441  20.874  0.0137  0.0062  0.0264
33757W        W76674   4.930  28.805  20.688 -0.4463 -0.1755  0.0059
33758W        W76675   3.928  30.061  23.229 -0.2745  0.1492 -0.0566
33759W        W76676   3.900  29.181  22.058  0.1228 -0.2566 -0.1575
33760W        W76677   5.402  32.979  23.004 -0.1745  0.2069 -0.2750
33761W        W76678   5.237  28.509  21.807 -0.2068 -0.0517  0.0050
33762W        W76679   8.123  30.961  19.741 -0.1806  0.0592  0.1367
33763W        W76680   7.845  32.072  22.334 -0.3139 -0.0299 -0.1088
33764W        W76681   4.056  28.691  21.956  0.5248  0.3912 -0.0558
33765W        W76682   2.739  32.598  22.647 -0.0033 -0.1429  0.1117
33766W        W76683   5.316  31.239  21.378  0.0766 -0.0296  0.0671
33767W        W76684   5.007  30.295  24.038  0.1030  0.1209  0.1288
33768W        W76685   4.862   0.015  21.377  0.0629 -0.0248  0.0701
33769W        W76686   2.631  32.739  19.330 -0.1647 -0.1714 -0.0055
33770W        W76687   4.131  33.503  23.860  0.0176 -0.2153  0.2398
33771W        W76688   8.400  28.048  19.401  0.2072 -0.1201  0.3395
33772W        W76689   6.211  33.048  19.889  0.1646 -0.2161 -0.2397
33773W        W76690   4.434  29.820  22.388  0.1262  0.1908  0.0131
33774W        W76691   7.845  29.149  21.860 -0.2279 -0.0936  0.0005
33775W        W76692   6.548  31.209  20.195 -0.3175 -0.1345  0.1094
33776W        W76693   4.784  30.152  23.548  0.0933 -0.2302  0.0446
33777W        W76694   4.509  28.648  21.936 -0.0109 -0.0847 -0.0850
33778W        W76695   5.855  29.107  20.321  0.0547 -0.2550 -0.0189
33779W        W76696   3.948  28.790  23.354  0.2778  0.1557  0.2954
33780W        W76697   6.205  32.816  25.165 -0.0801  0.4143 -0.2104
33781W        W76698   3.704  30.669  24.553  0.2281  0.0309  0.0053
33782W        W76699   6.387  31.266  20.907 -0.1304  0.3911 -0.0036
33783W        W76700   4.074  29.021  21.085 -0.2639 -0.2744 -0.0673
33784W        W76701   5.159  31.882  23.419 -0.1397  0.2455 -0.0901
33785W        W76702   8.300  31.882  22.198 -0.3245  0.1094  0.3269
33786W        W76703   4.587  30.675  20.274 -0.0291 -0.1521  0.3328
33787W        W76704   7.508  30.977  23.279 -0.3126  0.3532 -0.2319
33788W        W76705   3.811  31.427  21.774 -0.0441 -0.0535  0.1086
33789W        W76706   8.074  31.097  20.297 -0.1378  0.0706  0.0710
33790W        W76707   4.088  33.122  19.725  0.2216 -0.2428 -0.0686
33791W        W76708   5.035  31.335  20.977 -0.2170  0.0205 -0.2250
33792W        W76709   3.698  28.313  23.271 -0.1223 -0.0918  0.0523
33793W        W76710   7.330  30.628  20.032 -0.1831  0.2896 -0.2082
33794W        W76711   5.024  31.435  21.882  0.1805  0.3319 -0.1616
33795W        W76712   5.791  30.277  22.769  0.1549 -0.2065 -0.1893
33796W        W76713   4.201  30.275  22.823 -0.1881  0.0896 -0.0621
33797W        W76714   3.578  32.947  24.517 -0.0361 -0.1718 -0.2038
33798W        W76715   3.614  28.782  22.891 -0.3540 -0.0455  0.2993
33799W        W76716   6.114  33.876  19.560 -0.3112  0.0381  0.1620
33800W        W76717   9.409  30.930  20.167  0.1881 -0.1588  0.1288
33801W        W76718   7.363  30.767  21.995  0.1419  0.1829 -0.0234
33802W        W76719   7.524  31.427  21.558  0.2230 -0.2376  0.1065
33803W        W76720   5.347  31.063  19.609 -0.2783 -0.1498 -0.3125
33804W        W76721   4.153  31.132  21.939  0.0779 -0.3336  0.0213
33805W        W76722   7.275  32.489  23.705 -0.0058 -0.1389  0.2732
33806W        W76723   3.445  28.107  19.846  0.5086 -0.5585  0.4247
33807W        W76724   4.320  28.640  23.685  0.3117  0.0994 -0.1791
33808W        W76725   4.520  32.235  18.341 -0.0994 -0.0294  0.0557
33809W        W76726   6.459  30.934  19.739 -0.2674 -0.2468  0.1765
33810W        W76727   6.928  29.463  20.821  0.2810  0.0260  0.1289
33811W        W76728   3.533  30.006  21.272  0.0297 -0.2382 -0.0881
33812W        W76729   6.170  32.423  22.161  0.0631  0.3148  0.2135
33813W        W76730   3.745  28.106  18.700  0.1405  0.2057 -0.0039
33814W        W76731   6.122  30.461  18.790  0.1172 -0.3086  0.3765
33815W        W76732   6.016  30.082  21.723  0.2030  0.2459 -0.0714
33816W        W76733   8.204  31.668  25.388  0.1609 -0.0662 -0.1020
33817W        W76734   6.783  29.841  20.414  0.2178 -0.1257  0.4292
33818W        W76735   5.107  30.758  21.277  0.1386 -0.0778 -0.1845
33819W        W76736   4.026  32.323  19.349  0.2114 -0.1282 -0.0729
33820W        W76737   5.157  29.410  19.882 -0.2107  0.3751  0.1834
33821W        W76738   4.751  33.407  21.352 -0.1280  0.2430  0.0231
33822W        W76739   4.315  30.997  22.419 -0.0633  0.1114 -0.0637
33823W        W76740   2.910  33.058  21.873  0.0896  0.0841  0.1861
33824W        W76741   4.141  29.797  21.278  0.0407  0.1981 -0.2802
33825W        W76742   5.468  31.611  21.660 -0.0421  0.4690  0.2397
33826W        W76743   4.734  29.516  20.848 -0.0626  0.1299  0.0049
33827W        W76744   7.036  32.297  20.547 -0.1400  0.1034 -0.1276
33828W        W76745   7.293  31.776  26.159  0.1535 -0.0576 -0.0843
33829W        W76746   4.456  29.972  23.148  0.1661 -0.0343 -0.0429
33830W        W76747   6.841  31.461  22.953  0.1628  0.2368 -0.0666
33831W        W76748   6.614  32.300  22.320 -0.1629  0.3188  0.2340
33832W        W76749   5.129  33.489  22.707  0.0300 -0.0099  0.0325
33833W        W76750   2.250  29.450  24.626 -0.3227  0.1701  0.2529
33834W        W76751   6.556  31.380  22.124  0.1165 -0.1045  0.2661
33835W        W76752   6.019  32.137  22.779  0.0886 -0.4444  0.0145
33836W        W76753   4.388  28.797  19.834 -0.3291 -0.0383  0.2116
33837W        W76754   5.259  32.697  19.491 -0.1084 -0.1687 -0.2948
33838W        W76755   2.547  32.643  24.681 -0.5536  0.1176  0.1723
33839W        W76756   2.369  31.930  21.373 -0.1750 -0.2510 -0.1155
33840W        W76757   6.262  32.062  20.173  0.2542  0.0458  0.2636
33841W        W76758   7.667  31.335  19.902  0.2359 -0.1093 -0.1345
33842W        W76759   5.196  33.153  21.387 -0.1327  0.1128  0.1479
33843W        W76760   5.375  33.338  20.539 -0.2075  0.2729  0.2768
33844W        W76761   4.054  29.998  21.745 -0.0937 -0.0822  0.1335
33845W        W76762   3.719  34.093  21.300 -0.0106  0.1192 -0.1778
33846W        W76763   3.983  33.810  20.521 -0.3727  0.2225 -0.1038
33847W        W76764   5.674  31.012  19.189  0.0553  0.0528 -0.1593
33848W        W76765   6.277   1.658  19.949  0.2016 -0.0543 -0.0038
33849W        W76766   5.377  33.145  23.509 -0.1534 -0.2642 -0.0520
33850W        W76767   6.302  30.347  21.022  0.0436  0.1590  0.0153
33851W        W76768   6.557  32.416  20.349  0.2241  0.3667  0.0006
33852W        W76769   7.484  29.739  20.002  0.2183  0.1397 -0.2293
33853W        W76770   7.532  32.564  24.640 -0.3591 -0.0932  0.0249
33854W        W76771   5.242  33.933  21.895 -0.1630  0.0262 -0.3515
33855W        W76772   4.855  30.443  20.726  0.4012  0.1293 -0.2116
33856W        W76773   5.500  30.115  23.967 -0.0273 -0.2087 -0.0561
33857W        W76774   7.930  30.876  23.041 -0.2704 -0.1139 -0.1231
33858W        W76775   3.906  31.562  23.500  0.2758  0.0610  0.0921
33859W        W76776   6.009  33.276  16.971  0.1982  0.1150 -0.1899
33860W        W76777   5.406  29.561  20.625 -0.0406  0.1867  0.0693
33861W        W76778   4.490  30.155  20.351  0.1816 -0.1353  0.1036
33862W        W76779   7.474  30.617  21.192  0.1251 -0.2485 -0.0467
33863W        W76780   5.387  32.090  20.429 -0.0234  0.3072 -0.0477
33864W        W76781   6.136  32.310  20.600  0.0174  0.0867 -0.0866
33865W        W76782   5.713  32.764  19.794 -0.0591  0.0874  0.0064
33866W        W76783   4.453  33.641  20.495 -0.0036 -0.1817 -0.0563
33867W        W76784   4.911  34.336  21.858 -0.1258  0.4033  0.3356
33868W        W76785   2.467  28.944  21.287  0.0381  0.1478 -0.1851
33869W        W76786   7.742  31.753  23.526  0.3838 -0.0254 -0.0297
33870W        W76787   3.815  32.301  22.117  0.2596 -0.0262 -0.2456
33871W        W76788   7.575  30.983  20.265  0.0193  0.0421 -0.0906
33872W        W76789   4.941  31.917  21.713 -0.2572  0.1627 -0.1817
33873W        W76790   7.915  28.368  19.366 -0.5719  0.3470  0.0812
33874W        W76791   5.096  30.368  22.138  0.0986 -0.1921  0.0845
33875W        W76792   5.066  31.531  22.402  0.1495 -0.1027 -0.1467
33876W        W76793   3.266  32.660  18.779  0.2092  0.2754  0.0599
33877W        W76794   6.491  30.998  22.513 -0.0434 -0.1158  0.1504
33878W        W76795   4.917  29.827  22.175 -0.1682  0.0235 -0.0010
33879W        W76796   6.377  31.854  22.235  0.1354  0.0348 -0.0540
33880W        W76797   4.621  30.140  21.975 -0.1753  0.1060  0.0085
33881W        W76798   6.428  29.200  19.400  0.1822 -0.3127 -0.4236
33882W        W76799   4.204  31.972  23.656 -0.1095  0.1361  0.1216
33883W        W76800   5.688  30.140  24.566 -0.0671 -0.1662 -0.0364
33884W        W76801   6.540  32.313  20.858 -0.0532 -0.1118 -0.0765
33885W        W76802   4.715  29.012  21.131  0.0113 -0.1303 -0.1178
33886W        W76803   7.442  30.888  18.065  0.2289 -0.0440 -0.1776
33887W        W76804   5.463  31.568  20.887 -0.0690 -0.0674 -0.0427
33888W        W76805   4.893  33.344  18.944  0.1219 -0.1728 -0.0578
33889W        W76806   6.077  30.604  22.485  0.0643  0.1094  0.1658
33890W        W76807   5.907  34.005  20.830 -0.1122 -0.1004  0.1709
33891W        W76808   3.092  31.227  23.041 -0.0318  0.0996 -0.0824
33892W        W76809   7.316  31.921  22.273  0.4074 -0.0863  0.0462
33893W        W76810   8.690  32.293  21.450  0.1705  0.0610 -0.1827
33894W        W76811   6.166  28.966  19.824 -0.0499 -0.3131 -0.2017
33895W        W76812   3.528  29.252  21.562  0.0277  0.3524  0.2624
33896W        W76813   3.246  33.544  22.533  0.2804  0.0211 -0.2584
33897W        W76814   6.682  31.394  19.579 -0.3521  0.1509 -0.1493
33898W        W76815   5.415  30.893  21.882 -0.0519 -0.1999  0.3001
33899W        W76816   5.738  32.448  19.349  0.0824 -0.0064  0.1169
33900W        W76817   7.333  31.438  23.351  0.2859  0.1107 -0.1829
33901W        W76818   5.294  32.369  21.778  0.1277  0.1036  0.0628
33902W        W76819   6.036  31.659  21.759 -0.0559 -0.0047  0.1129
33903W        W76820   3.508  31.355  20.778  0.0948 -0.0448  0.0894
33904W        W76821   6.515  31.022  23.604  0.0031 -0.0344  0.0540
33905W        W76822   6.198  31.368  19.906  0.2778 -0.0974 -0.1335
33906W        W76823   5.383  33.010  20.092 -0.1570 -0.0166 -0.0198
33907W        W76824   8.907  31.394  20.406  0.4127 -0.0356  0.0637
33908W        W76825   4.878  30.419  21.674 -0.0112  0.1665  0.2039
33909W        W76826   6.295  31.603  20.375 -0.2458  0.1961  0.0026
33910W        W76827   4.787  30.276  23.006 -0.0793  0.2323  0.0142
33911W        W76828   6.814  28.918  20.816 -0.0042 -0.1264  0.3561
33912W        W76829   5.913  29.526  20.674 -0.1862 -0.0820  0.1147
33913W        W76830   5.720  30.676  23.741 -0.2034 -0.0189  0.2181
33914W        W76831   6.846  29.992  17.249 -0.3005 -0.1064 -0.0462
33915W        W76832   3.813  31.171  20.187 -0.0629 -0.2346  0.0420
33916W        W76833   4.599  31.686  22.177 -0.1125  0.3628 -0.5099
33917W        W76834   4.630  31.876  21.233  0.2618 -0.3229 -0.1636
33918W        W76835   4.715  29.370  22.341 -0.3338 -0.0616  0.0613
33919W        W76836   4.653  32.678  20.836  0.3469  0.3750  0.2506
33920W        W76837   3.523  30.088  19.894  0.2707  0.0177  0.0234
33921W        W76838   7.555  30.636  19.204  0.0716  0.0307  0.4025
33922W        W76839   3.093  29.716  20.615  0.3557 -0.0138  0.0783
33923W        W76840   4.065  29.957  20.772  0.0324  0.0367 -0.0181
33924W        W76841   5.999  32.133  21.198 -0.0979  0.1529 -0.0594
33925W        W76842   5.970  31.141  18.286  0.2659 -0.2185  0.1392
33926W        W76843   5.419  29.909  19.193 -0.2902  0.2145 -0.1668
33927W        W76844   5.560  33.835  26.112 -0.0485  0.3021  0.0728
33928W        W76845   4.804  32.408  19.800  0.2997  0.1866 -0.2058
33929W        W76846   5.598  31.607  22.512  0.0398 -0.0802 -0.0883
33930W        W76847   3.111  30.615  23.669  0.1174 -0.3176  0.0964
33931W        W76848   5.720  27.764  18.310  0.1211  0.0800 -0.3396
33932W        W76849   4.279  32.041  22.391 -0.0593  0.2133 -0.1669
33933W        W76850   6.410  33.785  18.101  0.1426 -0.3088  0.0212
33934W        W76851   4.267  32.404  18.929 -0.1134 -0.0057 -0.0278
33935W        W76852   4.601  30.969  23.278  0.2371 -0.2599  0.0937
33936W        W76853   5.129  32.895  21.749  0.1222  0.3834  0.1175
33937W        W76854   4.264  28.898  22.490 -0.0158 -0.0189  0.1145
33938W        W76855   6.882  31.524  20.459  0.2380  0.2054 -0.3104
33939W        W76856   5.691  34.106  22.570  0.2281 -0.0992 -0.1467
33940W        W76857   6.770  32.182  18.685  0.0067 -0.2093 -0.1322
33941W        W76858   7.661  31.142  22.574  0.3660  0.1306  0.2134
33942W        W76859   6.256  31.606  21.248 -0.2104  0.0202 -0.2732
33943W        W76860   4.067  29.454  23.959  0.2010 -0.0771 -0.0168
33944W        W76861   4.629  31.276  22.767 -0.0819  0.2222  0.0934
33945W        W76862   7.142  31.155  20.019  0.0607 -0.1990 -0.1398
33946W        W76863   2.169  28.645  21.641 -0.2311 -0.1021  0.0019
33947W        W76864   7.595  29.044  20.332 -0.2751 -0.0901  0.1055
33948W        W76865   4.939  30.923  21.736  0.1961 -0.1609  0.2417
33949W        W76866   3.032  29.551  22.191 -0.2396  0.3793 -0.2508
33950W        W76867   4.714  32.776  20.198  0.1059  0.0344  0.0923
33951W        W76868   4.428  31.424  23.285  0.3125 -0.0459  0.1169
33952W        W76869   7.472  32.214  20.906 -0.3825 -0.1517 -0.4500
33953W        W76870   5.734  32.625  22.061 -0.2602 -0.0145  0.0763
33954W        W76871   4.589  32.670  23.114  0.4001 -0.1225  0.0409
33955W        W76872   8.408  31.830  18.964  0.1001 -0.0116  0.0284
33956W        W76873   6.026  32.644  22.806 -0.1337  0.1071  0.1802
33957W        W76874   5.605  31.272  23.671 -0.2030  0.2808  0.1561
33958W        W76875   5.275  32.489  22.865 -0.2284  0.1154 -0.0561
33959W        W76876   5.072  32.025  20.897 -0.0490 -0.0437  0.1457
33960W        W76877   4.655  29.506  23.327  0.2383 -0.0571 -0.3768
33961W        W76878   3.869  30.762  19.365 -0.3685 -0.0910 -0.1797
33962W        W76879   4.950  30.188  21.217 -0.0340 -0.2542 -0.1147
33963W        W76880   5.382  30.923  23.330 -0.0848  0.2522 -0.0171
33964W        W76881   4.284  32.344  21.016  0.1110  0.0198  0.2380
33965W        W76882   5.338  30.048  20.938 -0.2771  0.2550 -0.2274
33966W        W76883   5.014  30.572  22.618  0.0951  0.0907 -0.0660
33967W        W76884   5.473  33.316  19.722 -0.1830  0.1720  0.1794
33968W        W76885   5.175  32.187  25.173 -0.0192  0.0479 -0.0221
33969W        W76886   5.530  28.718  24.381 -0.1796  0.1345  0.3052
33970W        W76887   5.001  29.966  22.662  0.0226 -0.0028 -0.0664
33971W        W76888   9.653  31.667  24.178 -0.1259  0.0161 -0.1589
33972W        W76889   4.542  29.864  23.927 -0.0689  0.1502 -0.2169
33973W        W76890   7.011  30.977  23.656 -0.1014  0.0118 -0.0499
33974W        W76891   6.307  27.462  27.229 -0.0807 -0.0877  0.0249
33975W        W76892   6.248  32.192  25.950 -0.0368 -0.1769  0.0103
33976W        W76893   8.741  32.855  27.057  0.1164  0.0252  0.2052
33977W        W76894   5.324  31.564  23.919 -0.1205 -0.1827 -0.0478
33978W        W76895   6.563  29.866  25.201  0.0641 -0.1849  0.0217
33979W        W76896   6.243  30.006  27.360  0.0770  0.1621 -0.2519
33980W        W76897   7.194  30.142  24.399 -0.0927  0.0475 -0.0335
33981W        W76898   4.366  28.592  27.309  0.2967 -0.1552  0.1265
33982W        W76899   6.340  29.309  28.316  0.0305  0.1101  0.1502
33983W        W76900   3.302  31.255  22.479 -0.2062  0.0443  0.0321
33984W        W76901   5.562  29.188  24.232 -0.1682  0.0429  0.2126
33985W        W76902   6.451  29.542  24.345  0.1556  0.1302  0.0576
33986W        W76903   6.000  33.106  26.137 -0.1824  0.0602  0.0777
33987W        W76904   5.982  28.757  26.420  0.2079  0.1695  0.1117
33988W        W76905   5.252  27.519  27.884 -0.3406  0.1165 -0.1632
33989W        W76906   4.597  32.759  25.540  0.1455 -0.0329  0.0753
33990W        W76907   3.483  29.436  23.757  0.1175 -0.1450 -0.0588
33991W        W76908   4.118  29.867  26.172  0.0928  0.0717  0.0866
33992W        W76909   4.275  29.759  27.839  0.0993 -0.2356  0.1608
33993W        W76910   8.012  30.351  26.196 -0.2177 -0.3402  0.0508
33994W        W76911   6.952  31.892  27.052  0.1034  0.0986 -0.2719
33995W        W76912   5.564  31.553  24.986  0.0121  0.1061 -0.0432
33996W        W76913   4.872  31.882  27.068  0.0164 -0.0148 -0.1409
33997W        W76914   6.119  28.778  26.953 -0.3289 -0.3435 -0.0693
33998W        W76915   3.506  29.277  24.691 -0.2770  0.0090  0.3892
33999W        W76916   3.697  33.626  25.236 -0.3193  0.1002 -0.0836
34000W        W76917   3.980  31.722  24.108 -0.1109  0.1752 -0.0651
34001W        W76918   7.651  32.990  24.896 -0.0347  0.0524 -0.0288
34002W        W76919   9.056  33.185  26.193 -0.1127 -0.4724  0.0837
34003W        W76920   4.863  33.358  26.887  0.2159 -0.1181  0.0699
34004W        W76921   5.637  32.499  24.430 -0.2102  0.4195  0.1167
34005W        W76922   6.001  33.742  27.628 -0.0149  0.0912  0.0593
34006W        W76923   5.923  31.618  26.517  0.5580  0.3048 -0.2875
34007W        W76924   7.439  30.432  26.643 -0.1397 -0.0673  0.0135
34008W        W76925   5.436  30.451  25.366  0.0989  0.0762  0.0117
34009W        W76926   6.310  32.308  24.218  0.1585  0.3460  0.2482
34010W        W76927   6.691  31.035  24.059 -0.1363 -0.1345 -0.1215
34011W        W76928   5.033  32.082  27.467  0.0263  0.2968 -0.0822
34012W        W76929   5.808  31.662  22.964 -0.1235 -0.0162  0.0396
34013W        W76930   7.488  28.226  28.843 -0.5111  0.1462 -0.2867
34014W        W76931   2.935  32.907  23.206  0.0917 -0.3091  0.0041
34015W        W76932   6.258  31.876  23.733 -0.0088 -0.2030  0.2154
34016W        W76933   4.202  31.547  22.478 -0.0266 -0.0384  0.1519
34017W        W76934   7.105  28.489  23.472 -0.2648  0.4545 -0.2297
34018W        W76935   4.754  29.703  24.606  0.0476  0.0059 -0.0199
34019W        W76936   4.352  33.264  26.945  0.2511  0.1641 -0.1437
34020W        W76937   6.238  29.549  24.923  0.0304 -0.1218  0.0400
34021W        W76938   7.699  30.891  24.177 -0.1709 -0.0018 -0.0711
34022W        W76939   5.167  32.551  24.194  0.2524 -0.1675 -0.0654
34023W        W76940   5.701  28.890  25.562  0.1119  0.1285 -0.2006
34024W        W76941   5.434  31.191  26.049  0.1644 -0.0697 -0.2514
34025W        W76942   3.160  31.521  24.916  0.2026  0.3712 -0.1112
34026W        W76943   5.840  32.363  25.116 -0.3021  0.2183  0.1321
34027W        W76944   8.505  32.748  25.650  0.2133  0.1640  0.2558
34028W        W76945   4.889  31.373  24.018 -0.1895 -0.1781 -0.1456
34029W        W76946   4.869  31.408  24.530 -0.0472  0.2327  0.1900
34030W        W76947   3.962  30.392  26.939  0.2186 -0.1150 -0.0041
34031W        W76948   4.386  30.710  28.358  0.1453  0.2636 -0.1232
34032W        W76949   3.513  28.203  25.320 -0.2656  0.3399 -0.2778
34033W        W76950   7.517  30.255  28.395  0.0618  0.1445  0.0543
34034W        W76951   5.625  31.956  25.323 -0.1362 -0.1370  0.2097
34035W        W76952   7.572  31.228  23.769 -0.0539  0.2420 -0.0224
34036W        W76953   4.110  31.814  26.414  0.0929  0.1145 -0.2557
34037W        W76954   8.648  33.047  26.516  0.3985  0.1830  0.1752
34038W        W76955   4.944  30.654  23.298  0.0310  0.2301 -0.2188
34039W        W76956   7.037  29.514  23.704  0.1237  0.2001 -0.0628
34040W        W76957   8.060  29.618  25.541  0.0934  0.2675  0.1932
34041W        W76958   4.337  33.003  24.024  0.1420  0.2113  0.1647
34042W        W76959   5.680  33.500  20.915 -0.0761  0.2312 -0.1085
34043W        W76960   6.976  31.525  27.812  0.0020 -0.0384  0.0370
34044W        W76961   5.955  30.328  24.044  0.1562 -0.0360  0.1872
34045W        W76962   6.401  31.985  26.462 -0.2700  0.0663  0.2916
34046W        W76963   6.126  29.601  25.422  0.2129  0.1080  0.0925
34047W        W76964   4.316  31.593  27.889  0.2263  0.3109  0.0287
34048W        W76965   4.483  33.208  23.128  0.3689  0.0762  0.0486
34049W        W76966   5.862  32.762  24.758 -0.2351  0.0446  0.0726
34050W        W76967   4.720  32.296  24.405  0.0094 -0.1162 -0.1470
34051W        W76968   3.381  28.490  28.197 -0.0210  0.0246 -0.1274
34052W        W76969   5.758  31.984  25.846 -0.1355 -0.0201  0.1799
34053W        W76970   7.110  29.927  23.314  0.1633 -0.3064 -0.0820
34054W        W76971   2.644  28.823  27.204 -0.0318  0.3127  0.2829
34055W        W76972   5.664  29.331  22.928 -0.1375 -0.1632  0.2086
34056W        W76973   4.371  31.924  25.044 -0.0528  0.2008  0.2025
34057W        W76974   5.697  33.629  28.005  0.1760 -0.3140 -0.2720
34058W        W76975   6.165  30.611  23.431 -0.2594 -0.2148  0.1574
34059W        W76976   7.218  33.327  22.295  0.1704  0.1383 -0.1195
34060W        W76977   4.368  30.220  27.751  0.1312 -0.1657 -0.1405
34061W        W76978   5.452  29.845  22.924 -0.0546  0.1763 -0.1307
34062W        W76979   4.412  28.798  26.366 -0.2081  0.1442 -0.2853
34063W        W76980   5.198  29.405  24.531  0.2115  0.4532  0.1750
34064W        W76981   7.559  28.921  26.133  0.0057  0.0799 -0.0725
34065W        W76982   3.286  30.125  23.198  0.0209 -0.1315  0.1265
34066W        W76983   6.880  31.765  25.590  0.0805  0.0827 -0.0597
34067W        W76984   6.307  31.195  24.345 -0.0047 -0.0051 -0.0046
34068W        W76985   3.485  31.042  24.806  0.3569 -0.1112  0.0638
34069W        W76986   5.481  30.792  28.241  0.1947  0.0958 -0.1606
34070W        W76987   6.394  31.609  22.794  0.2584 -0.0561 -0.1591
34071W        W76988   8.417  32.133  24.082 -0.0831 -0.0324 -0.0935
34072W        W76989   5.953  30.848  24.347  0.1357 -0.1087  0.0574
34073W        W76990   5.237  29.683  28.010  0.4024  0.1831 -0.0789
34074W        W76991   3.010  29.483  24.618  0.0343  0.1163 -0.0210
34075W        W76992   4.865  33.721  25.259  0.2569 -0.0468  0.1729
34076W        W76993   8.273  30.095  25.476  0.1043 -0.0648  0.2169
34077W        W76994   3.436  29.768  24.165 -0.0618 -0.0295  0.0194
34078W        W76995   7.430  31.534  25.249  0.0192  0.2937  0.3936
34079W        W76996   4.823  28.536  26.109  0.0490 -0.3078 -0.1096
34080W        W76997   4.158  30.778  25.965 -0.0155 -0.2828  0.2300
34081W        W76998   7.898  30.433  25.544  0.0044  0.0954  0.0078
34082W        W76999   9.985  31.305  27.044 -0.1534  0.2837 -0.2341
34083W        W77000   6.826  32.299  26.743 -0.0675  0.0449  0.0876
34084W        W77001   3.935  29.140  22.920  0.1808 -0.0368  0.0047
34085W        W77002   5.711  29.635  25.014  0.2453 -0.0656 -0.0814
34086W        W77003   5.078  32.754  23.736 -0.3303 -0.1091 -0.1096
34087W        W77004   2.688  30.656  27.718 -0.3687  0.5147 -0.0399
34088W        W77005   5.505  30.897  26.575 -0.1731 -0.3372  0.1571
34089W        W77006   7.106  31.491  23.972 -0.3688 -0.0178  0.0735
34090W        W77007   3.781  30.786  25.652 -0.2408  0.0909  0.0600
34091W        W77008   5.639  28.446  26.632 -0.1557  0.3220 -0.1515
34092W        W77009   2.526  29.782  25.164 -0.0328  0.0968 -0.4587
34093W        W77010   4.279  30.428  25.045 -0.3268  0.3075 -0.4541
34094W        W77011   7.267  28.256  22.931  0.0268 -0.2391 -0.6346
34095W        W77012   7.339  31.960  25.715  0.2746  0.3380 -0.0083
34096W        W77013   7.295  31.436  26.651 -0.0408 -0.3004 -0.1688
34097W        W77014   7.577  33.751  24.288  0.0685  0.0834  0.4054
34098W        W77015   5.412  30.747  24.933 -0.0817  0.0673 -0.0197
34099W        W77016   5.451  30.014  22.428  0.2203  0.1829 -0.1805
34100W        W77017   2.830  31.300  25.724 -0.2359  0.1128  0.0027
34101W        W77018   3.756  30.205  24.921  0.1206  0.0135  0.2603
34102W        W77019   6.181  30.441  27.676 -0.2115  0.1690 -0.3194
34103W        W77020   4.410  32.757  24.422  0.3126  0.0563  0.1026
34104W        W77021   8.015  30.708  26.586 -0.1249 -0.0529 -0.1293
34105W        W77022   5.353  31.624  27.048  0.4100  0.2791 -0.0791
34106W        W77023   6.550  30.821  27.733  0.0911 -0.0855  0.0314
34107W        W77024   5.924  29.832  23.929  0.1526  0.0473  0.2883
34108W        W77025   6.071  29.646  25.913  0.3196  0.0355  0.1903
34109W        W77026   3.597  30.955  22.963 -0.1391  0.0690  0.2512
34110W        W77027   5.008  29.481  25.022  0.0597 -0.0430  0.2063
34111W        W77028   2.825  33.276  23.513 -0.2349  0.0225  0.4031
34112W        W77029   7.735  31.573  26.185 -0.2487 -0.1261  0.1125
34113W        W77030   6.534  29.299  25.249 -0.0290 -0.2692 -0.0482
34114W        W77031   6.671  29.741  25.653 -0.0524 -0.1083  0.5833
34115W        W77032   6.451  31.493  27.787 -0.0129 -0.2735  0.1871
34116W        W77033   5.300  30.445  23.611 -0.3143 -0.1786  0.0517
34117W        W77034   7.035  30.293  25.941  0.2369 -0.1796 -0.0419
34118W        W77035   3.358  29.207  23.012 -0.0878  0.1537 -0.0649
34119W        W77036   5.644  29.055  26.278  0.2822 -0.1111 -0.0050
34120W        W77037   3.677  31.281  27.141  0.0918 -0.1996  0.1184
34121W        W77038   4.900  30.992  26.673 -0.2020 -0.0582  0.0766
34122W        W77039   8.968  30.498  26.597  0.0059  0.2555  0.0651
34123W        W77040   6.377  31.924  24.694 -0.0642  0.1992  0.2924
34124W        W77041   6.103  30.906  27.392 -0.2690  0.0662 -0.0928
34125W        W77042   2.531  28.650  22.540  0.1794  0.2304  0.1806
34126W        W77043   5.489  33.468  21.991  0.2319 -0.1453  0.1471
34127W        W77044   4.504  31.782  24.534 -0.5003 -0.1639  0.1942
34128W        W77045   6.689  28.797  25.554 -0.1088  0.0517 -0.0872
34129W        W77046   6.632  31.733  27.431  0.0900  0.6576  0.0430
34130W        W77047   4.034  33.337  22.497 -0.2236  0.1258 -0.0256
34131W        W77048   8.603  29.419  25.091 -0.1230  0.0240 -0.1078
34132W        W77049   4.557  33.247  24.514 -0.0092  0.2639  0.1300
34133W        W77050   7.502  28.482  27.254  0.2524  0.0880  0.0893
34134W        W77051   4.064  31.757  25.467  0.2759  0.1954  0.0058
34135W        W77052   5.204  28.953  24.722 -0.1147  0.5352 -0.0277
34136W        W77053   3.282  30.043  25.213 -0.3280 -0.0535  0.1010
34137W        W77054   8.470  29.196  23.819  0.0431 -0.2456  0.0377
34138W        W77055   6.874  31.332  22.498 -0.2837 -0.0558  0.1293
34139W        W77056   4.427  31.222  25.786  0.1609  0.1383  0.7695
34140W        W77057   6.053  30.058  24.978  0.1895  0.0465  0.2975
34141W        W77058   3.741  32.384  24.658  0.1595  0.2158 -0.0674
34142W        W77059   6.941  30.068  24.889 -0.3401 -0.1033  0.4289
34143W        W77060   7.564  30.126  24.750 -0.0181 -0.0989  0.0942
34144W        W77061   6.300  31.050  25.938 -0.0258  0.0167 -0.1319
34145W        W77062   5.215  30.582  27.323  0.1482  0.1493  0.0236
34146W        W77063   2.378  29.837  22.817 -0.0129 -0.2181  0.2903
34147W        W77064   7.546  32.239  23.345 -0.1429  0.0428 -0.1138
34148W        W77065   4.567  29.277  25.445  0.3264  0.0035 -0.2826
34149W        W77066   4.963  32.793  25.171  0.0519 -0.0510 -0.0269
34150W        W77067   5.875  30.989  26.192 -0.0302 -0.1095 -0.2232
34151W        W77068   5.031  32.500  23.305  0.0308  0.2025 -0.3207
34152W        W77069   3.677  31.527  24.833 -0.0249 -0.0143 -0.1841
34153W        W77070   5.400  31.129  27.495 -0.3919 -0.2857 -0.0746
34154W        W77071   7.744  30.991  25.549 -0.0314  0.1524  0.0562
34155W        W77072   6.157  30.350  24.515  0.0675 -0.0352 -0.0898
34156W        W77073   6.000  31.562  24.616  0.0376  0.0573  0.0014
34157W        W77074   4.672  30.353  25.417  0.1261 -0.0271 -0.1572
34158W        W77075   8.678  32.574  26.589  0.1794  0.1732 -0.2169
34159W        W77076   6.115  30.530  26.072  0.2188 -0.4872  0.2295
34160W        W77077   4.525   0.238  26.975  0.3125 -0.0558 -0.1065
34161W        W77078   7.858  28.610  23.744  0.0266  0.1118 -0.1301
34162W        W77079   5.075  33.547  26.450  0.1060 -0.0355 -0.2360
34163W        W77080   6.552  32.827  27.461  0.0779 -0.1077  0.3636
34164W        W77081   3.812  32.207  23.376  0.2803  0.0904  0.0071
34165W        W77082   6.310  30.657  23.876 -0.2839 -0.1496  0.0023
34166W        W77083   5.188  31.620  25.276 -0.2764 -0.0570  0.0274
34167W        W77084   6.429  29.738  26.363  0.0327 -0.0317 -0.2465
34168W        W77085   5.128  31.173  24.973 -0.0439  0.2219 -0.0388
34169W        W77086   5.711  32.420  23.098  0.0170 -0.1378  0.1222
34170W        W77087   3.867  31.667  28.071 -0.2000  0.1936 -0.5600
34171W        W77088   4.434  30.456  23.325  0.3391 -0.1331 -0.0768
34172W        W77089   6.781  32.585  24.645  0.1608  0.1219 -0.1488
34173W        W77090   5.995  29.827  22.778  0.1327  0.0948  0.1083
34174W        W77091   9.050  29.495  25.283  0.1093 -0.2577  0.0935
34175W        W77092   7.823  30.088  24.271  0.0574  0.3854 -0.2312
34176W        W77093   6.436  28.380  26.503 -0.0482 -0.1275 -0.0256
34177W        W77094   4.745  30.164  24.901  0.0540 -0.2725 -0.1243
34178W        W77095   7.215  32.134  24.135  0.0389 -0.1025  0.0598
34179W        W77096   3.655  27.507  25.289 -0.1239  0.0950  0.1768
34180W        W77097   7.787  32.048  28.111 -0.2410  0.0549  0.3931
34181W        W77098   6.448  29.046  27.658  0.0788  0.1138  0.0904
34182W        W77099   5.087  29.809  24.258 -0.1814  0.1647 -0.1735
34183W        W77100   4.614  30.143  24.398 -0.0304  0.3165  0.0199
34184W        W77101   5.851  31.002  28.446 -0.0289  0.1230 -0.3911
34185W        W77102   7.145  32.311  26.130  0.0773 -0.3161 -0.1139
34186W        W77103   5.188  32.605  26.316  0.0818 -0.0609  0.2489
34187W        W77104   6.999  29.813  26.821 -0.0273  0.0144 -0.1802
34188W        W77105   5.662  30.509  26.228  0.1989  0.2034  0.2206
34189W        W77106   5.483  30.674  24.433 -0.0555 -0.2205  0.2034
34190W        W77107   4.956  32.219  23.729 -0.1112 -0.0353 -0.1713
34191W        W77108   3.850  32.054  25.036  0.1173 -0.0517 -0.1013
34192W        W77109   5.581  29.698  26.878  0.0056 -0.0756 -0.0733
34193W        W77110   6.206  30.521  27.106  0.1927  0.0331 -0.0026
34194W        W77111   6.055  31.473  23.422  0.0528 -0.0344  0.0307
34195W        W77112   7.728  27.526  28.233 -0.1189  0.4670 -0.0295
34196W        W77113   7.483  30.169  23.611  0.0880 -0.0943  0.1461
34197W        W77114   5.087  30.837  25.622 -0.0548  0.0383 -0.2927
34198W        W77115   3.292  27.892  26.169 -0.3710  0.1078  0.0547
34199W        W77116   7.466  31.261  27.692 -0.2676  0.1412  0.2274
34200W        W77117   6.853  29.464  22.602  0.0073 -0.0641 -0.0309
34201W        W77118   7.688  31.530  25.724  0.1275 -0.2162  0.6144
34202W        W77119   8.880  30.350  26.141 -0.2049  0.0103 -0.0487
34203W        W77120   6.439  30.681  24.359 -0.2488 -0.2094 -0.0735
34204W        W77121   2.713  30.786  25.506  0.1714 -0.2426  0.0150
34205W        W77122   7.361  29.983  27.535  0.0208  0.1176 -0.0634
34206W        W77123   4.012  30.973  24.870 -0.2797 -0.0196  0.0411
34207W        W77124   6.027  26.775  29.279  0.0120  0.0870  0.1566
34208W        W77125   4.737  32.666  22.142  0.0164 -0.0487  0.0468
34209W        W77126   7.238  30.022  26.455 -0.2587 -0.2676  0.1758
34210W        W77127   5.600  29.033  25.029  0.0984 -0.2378  0.0387
34211W        W77128   4.123  27.471  25.540 -0.1315 -0.0751  0.0706
34212W        W77129   6.168  31.912  27.416 -0.2106  0.1951  0.2583
34213W        W77130   4.343  31.446  24.029 -0.1953 -0.2463 -0.1089
34214W        W77131   6.307  32.346  23.666  0.0046  0.0030  0.0523
34215W        W77132   6.986  31.576  28.419 -0.0045  0.1284 -0.1506
34216W        W77133   5.293  31.088  26.969 -0.1188 -0.1845  0.0818
34217W        W77134   5.997  29.220  22.060 -0.1451  0.3020 -0.3016
34218W        W77135   7.258  29.558  26.409 -0.2687 -0.0615 -0.3175
34219W        W77136   5.704  31.084  24.722  0.0427 -0.0785  0.3159
34220W        W77137   7.363  29.673  24.461  0.0914 -0.1144 -0.1055
34221W        W77138   5.617  33.250  24.968 -0.0222 -0.1315  0.1488
34222W        W77139   2.303  31.520  25.967  0.1460  0.2637 -0.3104
34223W        W77140   5.694  32.836  25.262 -0.1288 -0.1102  0.1662
34224W        W77141   5.453  30.088  26.076  0.2368  0.0485 -0.1156
34225W        W77142   5.882  32.014  24.333  0.0062 -0.0805 -0.1056
34226W        W77143   7.176  33.539  27.166  0.1500 -0.0101 -0.2166
34227W        W77144   6.591  30.672  26.825 -0.3049  0.2086 -0.3842
34228W        W77145   6.799  30.641  27.265  0.1193  0.0314 -0.0117
34229W        W77146   4.437  31.082  23.707  0.1088  0.4080  0.3246
34230W        W77147   6.008  32.759  27.399  0.0711  0.0536 -0.2498
34231W        W77148   7.297  31.336  22.153  0.0068  0.2416 -0.1517
34232W        W77149   5.788  30.213  25.773  0.0028 -0.1212  0.2295
34233W        W77150   4.320  29.865  26.748 -0.0348  0.1623 -0.0784
34234W        W77151   6.491  30.186  26.074  0.1654  0.0401 -0.2595
34235W        W77152   7.385  30.537  25.512 -0.0109 -0.1113  0.2337
34236W        W77153   2.994  29.659  23.395  0.2333 -0.0129  0.0692
34237W        W77154   5.593  32.219  22.564  0.0443 -0.3497  0.3048
34238W        W77155   4.024  32.988  27.967  0.0399 -0.0185  0.1167
34239W        W77156   4.106  30.369  25.595 -0.1960  0.3612  0.0584
34240W        W77157   4.858  33.280  23.626  0.0097 -0.1353 -0.4745
34241W        W77158   6.699  31.074  24.743 -0.3602 -0.3337 -0.0338
34242W        W77159   6.770  29.413  26.556 -0.2157  0.2151 -0.0176
34243W        W77160   5.839  34.116  25.192 -0.2033 -0.1824 -0.0209
34244W        W77161   5.414  32.009  22.998 -0.1399 -0.0198  0.0926
34245W        W77162   5.383  32.593  24.892 -0.0731  0.0075  0.2908
34246W        W77163   3.491  31.129  26.041 -0.0717 -0.0540  0.1508
34247W        W77164   7.014  33.208  25.577 -0.1071 -0.1349  0.0000
34248W        W77165   4.707  31.817  26.080 -0.1612  0.1062 -0.1416
34249W        W77166   7.396  32.231  27.134 -0.1166  0.1904 -0.1527
34250W        W77167   4.187  29.395  22.578  0.3131  0.2272  0.3753
34251W        W77168   9.016  31.349  25.362 -0.1810 -0.1101 -0.0957
34252W        W77169   8.461  29.063  23.023  0.3640 -0.2904 -0.0125
34253W        W77170   8.047  32.840  25.165 -0.3451 -0.2418  0.0316
34254W        W77171   5.955  30.557  25.368  0.2712 -0.1636  0.0735
34255W        W77172   4.982  31.828  24.239  0.0909 -0.0636  0.0425
34256W        W77173   5.357  30.291  24.948 -0.4709 -0.0103 -0.0193
34257W        W77174   7.502  28.038  27.984 -0.1819 -0.0687 -0.0625
34258W        W77175   3.172  32.402  26.541  0.2141  0.2382  0.0137
34259W        W77176   5.522  31.573  25.682 -0.2187 -0.1663 -0.2884
34260W        W77177   3.729  31.409  22.212  0.0528 -0.1183  0.1159
34261W        W77178   6.208  30.908  24.761  0.1059  0.1930  0.0210
34262W        W77179   7.420  28.731  22.836  0.0453  0.1221 -0.1881
34263W        W77180   5.335  33.215  23.972  0.1752  0.4857  0.1331
34264W        W77181   8.051  30.036  22.991 -0.0190 -0.0877 -0.0006
34265W        W77182   5.528  32.358  25.571  0.2613 -0.1105  0.1207
34266W        W77183   5.158  30.150  27.544 -0.2491 -0.2603 -0.6401
34267W        W77184   3.774  32.224  25.559  0.1610  0.0051 -0.2055
34268W        W77185   4.381  29.628  24.347  0.0732 -0.0073 -0.0519
34269W        W77186   6.725  31.512  24.497  0.1901 -0.1000  0.0989
34270W        W77187   5.541  30.757  25.821 -0.0735 -0.0354 -0.1600
34271W        W77188   9.284  28.975  23.569 -0.1128  0.0272  0.1564
34272W        W77189   4.226  30.887  25.387  0.0108 -0.0341 -0.1405
34273W        W77190   5.762  28.591  23.929  0.2616  0.0588 -0.3941
34274W        W77191   5.684  30.775  27.085  0.0367 -0.0385  0.0310
34275W        W77192   4.014  28.855  25.396 -0.1627  0.1116 -0.1004
34276W        W77193   5.718  31.296  24.215  0.3864 -0.2152  0.0998
34277W        W77194   7.559  29.941  29.556 -0.0740  0.1720 -0.1644
34278W        W77195   6.165  31.037  21.355 -0.1406  0.1589 -0.2950
34279W        W77196   6.458  32.258  27.076 -0.2969  0.0266  0.0629
34280W        W77197   3.922  29.688  25.097  0.3630  0.2992  0.2094
34281W        W77198   5.582  29.673  24.324  0.1256 -0.1388 -0.3287
34282W        W77199   2.984  30.992  24.687  0.0461  0.1236  0.1142
34283W        W77200   5.956  30.727  26.630 -0.2865  0.0715 -0.1986
34284W        W77201   6.078  29.128  25.071 -0.2961  0.0266 -0.0075
34285W        W77202   3.777  29.259  23.372  0.0723 -0.1798  0.1715
34286W        W77203   4.908  31.336  23.510  0.1397  0.0123  0.0010
34287W        W77204   8.176  28.943  26.070  0.3518  0.0895 -0.3398
34288W        W77205   4.910  33.656  22.223  0.0214  0.0565  0.1195
34289W        W77206   6.384  31.772  25.748  0.0036  0.2515 -0.0214
34290W        W77207   6.643  30.675  26.033 -0.4328  0.1708 -0.1409
34291W        W77208   2.674  30.565  28.937 -0.0334  0.0179 -0.1091
34292W        W77209   8.267  32.718  27.364 -0.1981 -0.2357 -0.4078
34293W        W77210   8.667  31.894  26.070  0.1135 -0.1295 -0.1142
34294W        W77211   4.662  27.810  24.235  0.3552  0.0219  0.0866
34295W        W77212   6.411  30.450  24.961  0.0806  0.2278 -0.1750
34296W        W77213   3.517  33.126  25.453 -0.0009 -0.2340  0.1952
34297W        W77214   7.352  30.581  24.561 -0.2150  0.0484 -0.3176
34298W        W77215   5.617  29.926  27.420  0.0232 -0.1432 -0.1979
34299W        W77216   7.179  32.824  25.098  0.2634 -0.0331  0.1510
34300W        W77217   8.227  29.460  28.767  0.1905  0.0290  0.1432
34301W        W77218   5.908  31.056  25.662  0.0021 -0.2682  0.1673
34302W        W77219   5.416   0.357  27.146  0.1795  0.0259  0.1426
34303W        W77220   4.200  30.944  22.920 -0.0711  0.0234  0.0932
34304W        W77221   6.014  31.968  26.847 -0.0706  0.1254 -0.1067
34305W        W77222   5.510  31.067  25.326  0.0818 -0.2910 -0.4583
34306W        W77223   6.286  32.441  24.716  0.0857  0.1684 -0.0366
34307W        W77224   6.810  31.899  23.967  0.0297  0.0474  0.1023
34308W        W77225   7.139  31.402  24.727  0.0767 -0.0736  0.1344
34309W        W77226   6.446  33.315  25.943 -0.3153  0.0436  0.0589
34310W        W77227   7.331  29.850  25.964  0.1853  0.0758 -0.1571
34311W        W77228   7.707  29.239  24.564  0.2881  0.4683 -0.0901
34312W        W77229   4.843  29.005  22.754  0.1162  0.3360  0.1000
34313W        W77230   7.149  30.948  26.908  0.3609  0.0102  0.0790
34314W        W77231   3.181  32.687  22.868 -0.0905 -0.2961  0.0794
34315W        W77232   3.231  31.195  23.894  0.0569 -0.0020  0.1795
34316W        W77233   4.595  31.937  23.996  0.0466 -0.4567  0.0068
34317W        W77234   6.926  29.992  27.359 -0.0240  0.1418 -0.1465
34318W        W77235   4.876  30.286  27.107  0.0301  0.0874 -0.1971
34319W        W77236   3.540  30.206  24.377  0.2648  0.1645 -0.0539
34320W        W77237   7.306  28.487  25.897 -0.2076  0.1966 -0.1220
34321W        W77238   6.675  30.559  23.556 -0.1261 -0.3115  0.3036
34322W        W77239   5.490  29.734  25.693 -0.2594  0.2211 -0.0298
34323W        W77240   3.726  26.559  26.035 -0.2503  0.0455 -0.1294
34324W        W77241   5.267  30.991  23.911  0.0904 -0.3453 -0.0740
34325W        W77242   5.991  31.204  25.145  0.0044 -0.1614  0.2600
34326W        W77243   6.559  31.489  23.843  0.3532  0.2253 -0.2320
34327W        W77244   7.470  32.706  26.022 -0.0628  0.2311 -0.3174
34328W        W77245   3.589  30.720  23.833 -0.2372  0.1810 -0.1675
34329W        W77246   5.112  29.057  25.215  0.1888  0.2319 -0.0982
34330W        W77247   6.376  27.813  26.779 -0.1308 -0.1949  0.4116
34331W        W77248   1.178  31.062  22.429 -0.1222  0.0116 -0.1811
34332W        W77249   6.510  30.012  24.675  0.1184  0.3418  0.1991
34333W        W77250   3.990  31.099  23.340 -0.0481 -0.0522  0.2575
34334W        W77251   6.279  33.042  24.697 -0.4447 -0.1062 -0.1540
34335W        W77252   4.774  31.965  26.530  0.0443 -0.0565  0.4718
34336W        W77253   6.679  33.716  26.397  0.0452  0.0485 -0.1803
34337W        W77254   2.956  27.810  27.335  0.3308  0.1076  0.0065
34338W        W77255   6.101  31.226  23.862  0.0558 -0.2258  0.3253
34339W        W77256   2.545  31.473  27.417 -0.2430  0.0071 -0.3930
34340W        W77257   7.066  32.167  25.278 -0.1707 -0.3475  0.3912
34341W        W77258   9.896  30.333  25.027  0.1791  0.2106  0.0196
34342W        W77259   5.954  31.606  25.484  0.0409 -0.4039  0.0683
34343W        W77260   5.001  29.921  25.849 -0.3675 -0.1255  0.0428
34344W        W77261   4.771  31.460  27.853  0.2100 -0.0596  0.4317
34345W        W77262   7.368  30.954  25.211  0.1235 -0.0258  0.0962
34346W        W77263   4.746  31.839  25.405  0.1809  0.1901  0.0255
34347W        W77264   7.261  31.912  23.634 -0.0068  0.0362 -0.1805
34348W        W77265   4.383  32.071  25.647  0.3126  0.0573  0.1917
34349W        W77266   3.794  29.485  25.962  0.0280 -0.1755 -0.2174
34350W        W77267   5.108  29.302  24.072 -0.1883 -0.0392  0.1337
34351W        W77268   6.862  31.077  26.537  0.0515 -0.0738  0.0348
34352W        W77269   6.730  31.281  26.109  0.1875 -0.0810 -0.1468
34353W        W77270   7.513  30.788  28.362  0.3138  0.1202  0.0059
34354W        W77271   4.070  30.654  23.688 -0.2394 -0.0945 -0.0244
34355W        W77272   7.711  32.643  23.584  0.0992 -0.0317  0.4734
34356W        W77273   5.905   0.253  26.389 -0.0139 -0.0832 -0.2965
34357W        W77274   8.501  30.667  26.891 -0.0161  0.1800  0.3962
34358W        W77275   8.139  33.123  26.390 -0.0317  0.0665  0.2118
34359W        W77276   6.497  29.282  25.889 -0.1721 -0.0829 -0.0773
34360W        W77277   4.381  28.382  26.085  0.0977 -0.0052 -0.0056
34361W        W77278   2.901  31.276  25.211  0.0110 -0.3297 -0.2707
34362W        W77279   6.912  30.753  25.065 -0.2250 -0.0039 -0.1416
34363W        W77280   8.216  31.209  25.620  0.1927 -0.1435 -0.0911
34364W        W77281   4.265  32.291  24.656  0.0157  0.0455  0.1169
34365W        W77282   7.195  30.587  23.383  0.0741  0.0158 -0.3303
34366W        W77283   4.483  33.307  26.457  0.0192 -0.0472 -0.0634
34367W        W77284   6.866  30.322  25.404  0.0199  0.4940  0.0488
34368W        W77285   6.875  31.871  31.647  0.0687  0.0663  0.2528
34369W        W77286   5.473  28.486  27.849 -0.0075  0.3119  0.4041
34370W        W77287   8.500  29.056  29.444 -0.0411  0.0440  0.3106
34371W        W77288   7.106  30.586  28.232 -0.1332 -0.1945  0.2596
34372W        W77289   4.315  29.369  26.915 -0.0737  0.0601  0.2176
34373W        W77290   9.262  33.344  28.862 -0.2756 -0.1302  0.0991
34374W        W77291   6.642  28.617  31.104  0.0052  0.3257 -0.0530
34375W        W77292   7.276  31.997  29.911 -0.3854  0.1529  0.3078
34376W        W77293   6.533  33.558   0.686  0.0713 -0.0738 -0.2048
34377W        W77294   6.293  30.465  28.597  0.0228 -0.1318 -0.0754
34378W        W77295   6.462  31.090  28.959 -0.0585  0.1552  0.1387
34379W        W77296   6.380  30.082  31.414 -0.2801  0.1576 -0.0377
34380W        W77297   6.322  27.148  28.358 -0.1353 -0.0169 -0.1806
34381W        W77298   4.877  28.539  31.055 -0.0215  0.0252 -0.0490
34382W        W77299   5.225  28.686  31.686  0.1698  0.1077 -0.1295
34383W        W77300   5.928  32.057  31.040 -0.0780  0.1673  0.2645
34384W        W77301   4.896  29.806  31.693  0.0049  0.0938  0.0485
34385W        W77302   4.271  29.903  24.700  0.0199 -0.0939 -0.2598
34386W        W77303   6.047  32.746  29.881 -0.3278  0.2079  0.0639
34387W        W77304   6.023  29.226  30.993 -0.2056  0.0096  0.0162
34388W        W77305   6.529  28.042  31.836 -0.0846 -0.5129 -0.0636
34389W        W77306   5.468  31.750  28.034 -0.1065 -0.1202 -0.0628
34390W        W77307   6.357  29.910  29.603 -0.0878 -0.2179  0.0223
34391W        W77308   3.607  30.967  28.657  0.3164 -0.2858  0.3122
34392W        W77309   6.183  30.624  28.139 -0.1383  0.0849 -0.2679
34393W        W77310   7.414  29.925  30.392 -0.0391  0.0614 -0.0542
34394W        W77311   8.466  30.798  30.220  0.0833 -0.1075 -0.0876
34395W        W77312   7.994  31.149  29.761  0.0107 -0.0967  0.1878
34396W        W77313   5.645  30.600   0.804 -0.1989 -0.0186  0.0003
34397W        W77314   7.217  29.529  30.103  0.1952  0.2311  0.1274
34398W        W77315   4.116  30.516  29.435 -0.5605  0.0471 -0.2675
34399W        W77316   6.572  32.467  29.543  0.1302  0.1558 -0.2694
34400W        W77317   5.184  30.713  26.232 -0.1786 -0.0219 -0.2568
34401W        W77318   5.734  30.899  27.726  0.0150 -0.1749 -0.0587
34402W        W77319   6.239  30.107  30.879  0.0189  0.0319  0.0271
34403W        W77320   6.714  32.193  31.296 -0.1498 -0.2807  0.4384
34404W        W77321   4.241  31.652  25.954 -0.0286  0.2694  0.0065
34405W        W77322   5.410   0.252   0.015 -0.0696  0.0987 -0.3088
34406W        W77323   5.769  31.772  31.636 -0.0672 -0.5608  0.0377
34407W        W77324   6.286  31.578  29.034  0.1257  0.2299 -0.1335
34408W        W77325   5.867  29.727  29.224 -0.1909 -0.0031  0.0167
34409W        W77326   6.633  32.829  26.980 -0.2053 -0.1373  0.1094
34410W        W77327   7.216  32.005  28.997  0.0541 -0.2655  0.1518
34411W        W77328   5.422  29.886   0.952 -0.1797  0.3468 -0.0021
34412W        W77329   4.250  31.849  29.943 -0.0149 -0.0715 -0.1471
34413W        W77330   7.627  27.552  30.465  0.0141  0.2715 -0.3725
34414W        W77331   4.389  31.721  26.822 -0.2102 -0.2175  0.1431
34415W        W77332   6.047  29.776  26.687 -0.1616  0.0559  0.0748
34416W        W77333   3.928  28.073  26.098 -0.0868  0.2417  0.2024
34417W        W77334   5.930  29.924  27.779 -0.2121 -0.0892  0.2882
34418W        W77335   6.184  28.413  31.012 -0.0414  0.0749  0.0676
34419W        W77336   7.976  32.694  30.707  0.2041 -0.1982  0.3648
34420W        W77337   5.275  28.747  27.508  0.2711  0.0168  0.1104
34421W        W77338   6.823  31.144  30.789 -0.1177  0.2801 -0.1837
34422W        W77339   7.385  29.733  29.105  0.2335  0.1422  0.1347
34423W        W77340   6.737  30.847  30.412  0.3295  0.1440 -0.1646
34424W        W77341   4.723  32.752  30.262  0.1152 -0.0314 -0.0359
34425W        W77342   3.898  30.602  28.786 -0.1160  0.2363 -0.0653
34426W        W77343   9.021  31.451  28.103  0.0204 -0.2462 -0.0105
34427W        W77344   6.759  32.121  29.837 -0.0606  0.1433  0.0341
34428W        W77345   7.047  33.836  27.525  0.0636 -0.0468  0.1959
34429W        W77346   5.242  31.504  29.451 -0.0684  0.4016 -0.0149
34430W        W77347   6.898  31.392   0.621  0.0140 -0.1029  0.1725
34431W        W77348   5.132  30.571  29.016 -0.0519  0.1795  0.0118
34432W        W77349   5.784  30.440  27.438 -0.0650  0.1515  0.1423
34433W        W77350   7.623  29.728  31.420 -0.2128 -0.4265  0.2057
34434W        W77351   6.144  32.463   0.769 -0.1278  0.1522  0.0138
34435W        W77352   7.558  29.040  29.336 -0.3159  0.1501  0.5230
34436W        W77353   5.383  32.246  28.300 -0.2310  0.1484  0.0214
34437W        W77354   7.762  31.515  31.085  0.2386  0.0673  0.0378
34438W        W77355   6.778  31.497  28.873  0.1568  0.1262  0.0827
34439W        W77356   6.833  29.473  29.230 -0.2804 -0.3659  0.1257
34440W        W77357   6.527  26.767  31.567  0.0496  0.4045 -0.0001
34441W        W77358   4.762  29.861  27.638  0.0487  0.0068  0.0779
34442W        W77359   5.570  30.821  28.808  0.0326 -0.0043  0.0136
34443W        W77360   9.290  32.167  28.976 -0.1111 -0.2639  0.0424
34444W        W77361   8.778  31.010  28.117 -0.1651 -0.0107 -0.1878
34445W        W77362   6.281  32.688  28.314  0.0159  0.0364 -0.1544
34446W        W77363   5.092  30.268  31.544 -0.1152  0.3298  0.1034
34447W        W77364   5.784  31.285  28.993 -0.2146 -0.0623 -0.2633
34448W        W77365   4.157  32.430  25.831  0.4656 -0.0297 -0.0575
34449W        W77366   3.909  31.011  27.664  0.3138  0.1356 -0.3546
34450W        W77367   3.576  30.759  27.317 -0.1203 -0.0389  0.1008
34451W        W77368   5.217  28.599  30.081  0.0951  0.1035  0.0015
34452W        W77369   5.333  29.389  29.950 -0.1637  0.1983  0.0183
34453W        W77370   7.656  29.456  28.527 -0.0264 -0.0321 -0.3330
34454W        W77371   4.557  29.494  30.733  0.1800 -0.2124  0.0516
34455W        W77372   8.175  30.453  28.582 -0.2478 -0.6073 -0.0718
34456W        W77373   6.106  31.634  30.514  0.1070  0.2744 -0.0435
34457W        W77374   7.269  32.078  28.468  0.0055  0.0738  0.2584
34458W        W77375   6.969  28.541  29.599 -0.0965 -0.0206 -0.0380
34459W        W77376   5.728  31.961  28.563  0.0665  0.1201  0.1727
34460W        W77377   4.728  29.076  30.336  0.0309 -0.0021  0.2554
34461W        W77378   6.048  29.676  28.173 -0.0778  0.0745  0.3913
34462W        W77379   3.434  29.335  31.103  0.0972  0.0608 -0.1030
34463W        W77380   6.113  27.259  30.160  0.1652 -0.1586  0.2186
34464W        W77381   6.608  29.253  29.684 -0.2247  0.2974 -0.1587
34465W        W77382   6.413  28.840  28.100  0.1481 -0.1405  0.1212
34466W        W77383   6.025  30.234  29.260  0.0226  0.2073 -0.0318
34467W        W77384   5.285  29.181  28.674  0.1599  0.1343 -0.2548
34468W        W77385   4.277  32.110  29.254  0.0066  0.0830 -0.0985
34469W        W77386   7.460  27.252  31.281 -0.0757  0.1767  0.0550
34470W        W77387   6.746  30.765  28.604  0.0940  0.1140 -0.0055
34471W        W77388   7.075  31.940   0.694 -0.3803 -0.1467  0.0489
34472W        W77389   7.118  31.175  28.643 -0.1917  0.0071  0.2786
34473W        W77390   5.087  31.141  30.617 -0.0963  0.3069  0.2161
34474W        W77391   5.678  30.019  25.332  0.0100  0.1616  0.2612
34475W        W77392   4.493  31.407  29.791  0.0808 -0.2488  0.0794
34476W        W77393   5.754  32.721  28.996  0.1983 -0.1181  0.2004
34477W        W77394   5.155  29.338  27.544  0.0703  0.2404  0.0141
34478W        W77395   7.138  34.120  30.534 -0.0045 -0.2753  0.0043
34479W        W77396   5.890  32.072  30.493  0.0545 -0.0869 -0.2013
34480W        W77397   6.443  31.783  31.159 -0.1073 -0.1054 -0.0949
34481W        W77398   7.486  28.757   1.157 -0.0881  0.2993 -0.0413
34482W        W77399   7.637  31.759  29.137 -0.0034 -0.1367  0.1225
34483W        W77400   6.184  31.373  27.332 -0.0475 -0.1035 -0.4072
34484W        W77401   6.032  26.904  28.684  0.1019  0.1339 -0.1011
34485W        W77402   6.095  32.472  30.776  0.1768 -0.0481  0.2463
34486W        W77403   5.205  30.568  26.751  0.2305  0.1737  0.0397
34487W        W77404   3.927  31.009  29.669  0.1762  0.0133 -0.1075
34488W        W77405   5.250  31.948  30.007 -0.1704  0.1345 -0.0097
34489W        W77406   7.221  29.525  29.574 -0.0247 -0.0449 -0.0043
34490W        W77407   5.076  28.916  31.303  0.0055 -0.0627 -0.0428
34491W        W77408   6.317  27.211  29.668  0.4284 -0.3113 -0.0160
34492W        W77409   5.718  30.414  27.974 -0.0089 -0.2077 -0.0538
34493W        W77410   6.886  32.303  30.442 -0.3188  0.0905  0.0151
34494W        W77411   6.395  28.519  28.799  0.0308 -0.1197 -0.0624
34495W        W77412   6.659  28.766  26.857  0.1502  0.1734 -0.0952
34496W        W77413   6.120  29.934   0.308  0.0743  0.2546  0.0052
34497W        W77414   6.121  31.440  28.596  0.2408 -0.1346 -0.1471
34498W        W77415   5.558  29.258  27.196 -0.2524  0.1565 -0.0188
34499W        W77416   6.901  29.032  27.947  0.2429  0.4090  0.5020
34500W        W77417   5.874  31.222  30.704 -0.0513 -0.3886  0.0673
34501W        W77418   6.995  32.031  27.567  0.1499  0.0082 -0.3030
34502W        W77419   6.475  30.468  31.091  0.1013 -0.1817 -0.1398
34503W        W77420   6.839  27.689  28.594 -0.0702 -0.1872  0.3161
34504W        W77421   7.406  31.238  26.177  0.3058 -0.1463 -0.0161
34505W        W77422   5.247  29.403  29.495 -0.2004  0.0510 -0.0674
34506W        W77423   7.511  31.132  31.745  0.0128  0.2724  0.1945
34507W        W77424   7.761  31.894  28.666  0.1343  0.0498  0.0382
34508W        W77425   6.558  30.151  29.999 -0.0207 -0.2122 -0.0395
34509W        W77426   6.582  30.173  27.024  0.4008 -0.2801 -0.0441
34510W        W77427   5.782  28.262  28.705  0.2474  0.1050  0.1899
34511W        W77428   3.561  31.798  27.196 -0.5687  0.1675  0.0647
34512W        W77429   6.433  26.662  28.495 -0.0667 -0.3567  0.0490
34513W        W77430   6.189  29.434  30.536 -0.0934 -0.1216 -0.0074
34514W        W77431   6.986  28.971  31.382 -0.1082  0.3493 -0.0424
34515W        W77432   7.172  27.677  31.464  0.0971  0.0081  0.0086
34516W        W77433   6.297  29.638  30.001  0.1293 -0.0806 -0.2151
34517W        W77434   5.789  29.532  30.194 -0.3114  0.3006 -0.2802
34518W        W77435   4.726  29.389  27.242  0.0929 -0.1433  0.3823
34519W        W77436   6.333  29.471  29.321  0.1927 -0.0696  0.3239
34520W        W77437   5.430  31.395  29.904 -0.0600 -0.0961  0.1052
34521W        W77438   2.385  33.108  29.576 -0.2862  0.0534  0.0544
34522W        W77439   4.719  30.984   0.647  0.1487 -0.1320  0.2938
34523W        W77440   6.488  31.628  28.317 -0.0654 -0.1264 -0.0641
34524W        W77441   6.342  29.963   0.846 -0.0787  0.1779 -0.1311
34525W        W77442   6.567  29.567  27.488  0.0905  0.1882  0.0020
34526W        W77443   5.565  31.266  28.025  0.0700  0.1372  0.2944
34527W        W77444   3.989  30.147  28.601 -0.1015  0.1405 -0.1839
34528W        W77445   6.217  29.203  30.097  0.1459 -0.1400  0.3331
34529W        W77446   6.948  31.827  30.760 -0.2837  0.0370 -0.0491
34530W        W77447   4.631  30.255  26.676  0.2356 -0.2139 -0.2806
34531W        W77448   6.527  31.202  29.925  0.2802  0.0689  0.0237
34532W        W77449   4.049  32.001  27.628  0.1490 -0.1890 -0.1614
34533W        W77450   8.563  27.871  31.296 -0.2347  0.0505 -0.0269
34534W        W77451   3.811  32.880  29.240 -0.0431  0.0119 -0.3052
34535W        W77452   3.462  28.543  27.400 -0.0586  0.3831  0.0091
34536W        W77453   2.871  31.696  27.776  0.1095 -0.1839 -0.0161
34537W        W77454   7.362  28.903  30.231 -0.0980  0.2873  0.2871
34538W        W77455   7.738  29.399  29.001 -0.1683  0.1751  0.1715
34539W        W77456   4.876  29.914  31.196  0.2420 -0.1879  0.0389
34540W        W77457   6.138  29.079  28.988  0.0257 -0.0190 -0.2631
34541W        W77458   4.924  32.050  31.017 -0.0132  0.0227  0.0439
34542W        W77459   6.186  28.798  31.299  0.0246 -0.0433  0.3534
34543W        W77460   7.039  29.671  27.755 -0.0124  0.0882 -0.0601
34544W        W77461   7.739  30.559  31.618 -0.0306 -0.0437  0.0337
34545W        W77462   5.237  31.163   0.315 -0.0401 -0.3267 -0.2929
34546W        W77463   3.521  30.076  27.777  0.0475 -0.0632 -0.2676
34547W        W77464   7.940  29.065  30.640 -0.1900 -0.3372 -0.3343
34548W        W77465   6.323  29.934  28.757  0.0496  0.2528 -0.0482
34549W        W77466   4.918  31.546  31.276 -0.0889 -0.2869  0.0337
34550W        W77467   7.502  31.545  29.922 -0.2051 -0.0410 -0.0490
34551W        W77468   5.038  29.007  29.810  0.0449  0.5482 -0.0487
34552W        W77469   5.227  31.566  28.926 -0.2686  0.1031  0.1882
34553W        W77470   4.154  29.983  31.931 -0.3377  0.0038  0.1585
34554W        W77471   8.254  29.974  31.062 -0.0839  0.0117  0.4337
34555W        W77472   6.495  29.416  28.824 -0.2657  0.5617 -0.0874
34556W        W77473   5.755  30.427  30.280  0.0777  0.2715 -0.0813
34557W        W77474   6.625  30.380  28.201  0.0080 -0.1530  0.1352
34558W        W77475   6.946  30.971  29.107 -0.0508 -0.1437  0.0571
34559W        W77476   5.508  29.801  28.713 -0.1486  0.1158  0.3189
34560W        W77477   6.732  31.723   1.004  0.1361  0.2063  0.1418
34561W        W77478   5.681  29.536  31.471 -0.0911 -0.4555 -0.0981
34562W        W77479   7.249  32.620  27.593  0.1393 -0.1700 -0.3607
34563W        W77480   5.328  28.791  30.767  0.0926 -0.1561 -0.1600
34564W        W77481   6.205  30.384  30.352  0.4315  0.0709 -0.0025
34565W        W77482   2.367  31.723  30.058 -0.3437 -0.2552 -0.0111
34566W        W77483   5.795  33.937  27.113 -0.2886 -0.0937 -0.0422
34567W        W77484   7.059  29.016  29.408  0.2317 -0.0339  0.0961
34568W        W77485   2.731  31.523  28.248 -0.0415  0.1719  0.2539
34569W        W77486   6.668  31.184  27.477  0.2344 -0.3349  0.1770
34570W        W77487   6.650  31.543  30.532  0.0603 -0.2848  0.2176
34571W        W77488   8.306  29.193  27.893  0.0707 -0.0404  0.1992
34572W        W77489   6.224  32.746  28.923 -0.0657  0.0976  0.1191
34573W        W77490   5.676  29.494  27.676 -0.2445  0.1711 -0.0368
34574W        W77491   8.785  30.535  30.506 -0.1852  0.1904 -0.1201
34575W        W77492   6.019  29.102  27.299  0.2026  0.6143  0.4060
34576W        W77493   7.582  28.300  30.936  0.2754 -0.1544 -0.3511
34577W        W77494   7.819  29.725  30.982  0.1234 -0.2421 -0.1199
34578W        W77495   6.017  31.739  28.123  0.1269 -0.1970 -0.0639
34579W        W77496   4.007  29.718  29.378 -0.2456 -0.2886  0.3062
34580W        W77497   7.654  30.989   0.357  0.0333  0.0018  0.2524
34581W        W77498   5.639  31.689  30.310  0.0012  0.0825 -0.0262
34582W        W77499   5.551  30.144  26.551  0.0909  0.0250  0.2569
34583W        W77500   6.574  29.787  28.352  0.1059  0.0978  0.0544
34584W        W77501   3.738  30.636  28.302 -0.0260 -0.1706 -0.4219
34585W        W77502   7.683  33.403  29.935  0.2896  0.2475 -0.0823
34586W        W77503   6.205  30.625  29.543 -0.3532  0.1704  0.0206
34587W        W77504   7.011  30.039  28.172  0.2255 -0.1259 -0.4116
34588W        W77505   5.564  27.986  29.981 -0.2585  0.0469 -0.1114
34589W        W77506   6.973  30.406  29.139 -0.4226 -0.1173 -0.1242
34590W        W77507   7.401  31.733  27.885  0.0439  0.1112  0.0007
34591W        W77508   4.843  31.003  29.222 -0.3294 -0.0629 -0.3140
34592W        W77509   5.711  29.597  30.686 -0.0881  0.1301 -0.2006
34593W        W77510   6.979  30.848  29.972  0.0606 -0.1654  0.3656
34594W        W77511   6.418  29.933  27.833 -0.1046  0.2308  0.1152
34595W        W77512   6.038  28.745  31.806  0.0155  0.0178  0.0775
34596W        W77513   7.404  27.951  30.576  0.1364  0.0453  0.0683
34597W        W77514   5.622  30.293  31.890  0.1036  0.0855 -0.0340
34598W        W77515   4.413  29.590  31.604  0.1600  0.0208 -0.0460
34599W        W77516   9.438  34.304  31.880 -0.0870 -0.0131  0.0924
34600W        W77517   8.801  29.337  24.478 -0.2439  0.3324  0.0335
34601W        W77518   9.152  30.353  30.238  0.0437 -0.1751 -0.2322
34602W        W77519   7.889  31.148  29.086  0.0112  0.0750  0.1404
34603W        W77520   5.368  30.175  27.006  0.1416 -0.2893  0.1627
34604W        W77521   5.571  30.540  29.820 -0.1708  0.2553  0.0049
34605W        W77522   6.221  30.271  31.867  0.0243  0.0615 -0.1994
34606W        W77523   6.300  27.644  29.379  0.1682 -0.0402 -0.1097
34607W        W77524   5.757  29.021  29.924 -0.2106  0.3530  0.0982
34608W        W77525   5.806  31.487  29.614 -0.1693 -0.0753 -0.1845
34609W        W77526   7.133  31.401  30.538 -0.3238  0.2056  0.0132
34610W        W77527   6.773  30.383  30.495  0.1704 -0.1425 -0.3514
34611W        W77528   5.588  28.979  29.382 -0.3193 -0.2847 -0.2590
34612W        W77529   5.157  32.003  30.535  0.0664 -0.0256  0.0906
34613W        W77530   5.077  29.910  28.455  0.0804  0.0718  0.1398
34614W        W77531   4.763  30.400  28.649  0.1028 -0.2710 -0.0806
34615W        W77532   7.249  30.912  30.417 -0.2153 -0.0346  0.1285
34616W        W77533   6.041  30.411  31.286 -0.5105 -0.2598 -0.3687
34617W        W77534   6.317  26.370  29.485  0.2201  0.0128 -0.0780
34618W        W77535   6.315  27.981  30.862  0.2011  0.0461 -0.1296
34619W        W77536   5.755  30.669  29.303 -0.2003 -0.1435 -0.0304
34620W        W77537   7.252  30.724  29.546 -0.1238 -0.0645 -0.3262
34621W        W77538   4.420  31.232  28.958 -0.0187 -0.1590  0.0715
34622W        W77539   5.545  31.200  30.311  0.1650 -0.1153 -0.0508
34623W        W77540   5.221  30.287  30.208 -0.1659 -0.0349 -0.0054
34624W        W77541   5.753  29.119  30.569 -0.0305  0.2293  0.0472
34625W        W77542   7.626  31.212  28.690 -0.0947 -0.1753  0.2134
34626W        W77543   6.272  31.559  29.611  0.0560  0.2397  0.0488
34627W        W77544   6.733  30.522   0.033  0.1925 -0.1293  0.0217
34628W        W77545   7.200  30.303  30.822 -0.0621 -0.0005  0.0575
34629W        W77546   5.553  29.472  28.347 -0.1558  0.1344 -0.1846
34630W        W77547   7.989  31.674  29.944 -0.3143 -0.0321  0.0069
34631W        W77548   8.800  31.510  27.369  0.1427  0.0485 -0.1753
34632W        W77549   5.464  31.483  31.308 -0.1331 -0.0415 -0.0126
34633W        W77550   3.579  30.373  29.950 -0.1347  0.2167  0.3161
34634W        W77551   6.145  28.713  30.127 -0.0807 -0.2230  0.0057
34635W        W77552   6.785  31.620  29.736  0.1086  0.1493  0.3271
34636W        W77553   6.832  26.313  29.601  0.1818 -0.3006  0.1618
34637W        W77554   6.400  31.428  26.487 -0.1167  0.1270  0.1852
34638W        W77555   6.804  32.151   1.433  0.1123 -0.0157 -0.0848
34639W        W77556   5.181  29.906  30.713  0.1279 -0.0016  0.1478
34640W        W77557   5.080  31.555  27.494 -0.1157 -0.1618  0.3725
34641W        W77558   6.721  31.154  28.144  0.0006 -0.1494 -0.1881
34642W        W77559   8.396  31.179  28.876  0.2650  0.1238  0.1329
34643W        W77560   7.017  31.790  30.266  0.0134 -0.0258 -0.1107
34644W        W77561   4.414  30.183  27.232 -0.2122  0.1280  0.1079
34645W        W77562   4.860  30.905  27.301  0.0515  0.0301  0.1291
34646W        W77563   3.354  31.579  25.865  0.1799 -0.0260  0.1645
34647W        W77564   5.186  32.548  27.248 -0.4928 -0.1099  0.1053
34648W        W77565   4.760  31.563  28.733  0.1292 -0.0091 -0.0700
34649W        W77566   7.934  31.310  30.327 -0.0305  0.0057 -0.0236
34650W        W77567   7.143  31.112  27.387  0.0705 -0.1097 -0.2111
34651W        W77568   9.704  30.578  30.769 -0.0323 -0.0239 -0.0055
34652W        W77569   7.659  31.920  29.596 -0.0689  0.0599  0.0533
34653W        W77570   6.761  32.393  28.377  0.0328 -0.0016  0.1456
34654W        W77571   7.044  29.118  29.950 -0.1845  0.1603 -0.1137
34655W        W77572   7.129  28.905  28.356  0.2145 -0.2948  0.2295
34656W        W77573   5.644  31.534   0.099 -0.1963  0.1606 -0.0960
34657W        W77574   7.431  28.360  30.277  0.2335  0.0828  0.0024
34658W        W77575   5.691  32.280  31.473  0.3668  0.4282 -0.0460
34659W        W77576   8.000  31.506  27.062 -0.0357 -0.0392 -0.1168
34660W        W77577   3.623  31.133  28.096 -0.0098 -0.0450  0.0760
34661W        W77578   6.042  30.776  28.858 -0.0580  0.1359 -0.3988
34662W        W77579   7.503  29.428  30.513  0.0903  0.2875 -0.0394
34663W        W77580   4.363  32.144  26.177 -0.0826 -0.1847  0.0967
34664W        W77581   6.688  28.127  31.229 -0.0451  0.2076  0.2079
34665W        W77582   7.840  31.561  27.791  0.1009 -0.1676 -0.3631
34666W        W77583   4.906  31.251  29.982  0.0368 -0.0086 -0.0273
34667W        W77584   6.609  32.329  28.965  0.0294 -0.2639 -0.3984
34668W        W77585   4.912  28.907  28.457 -0.2194 -0.1320 -0.0682
34669W        W77586   6.753  31.941  28.664  0.1309 -0.0920  0.1496
34670W        W77587   5.315  30.188  31.122 -0.1922  0.2448 -0.0096
34671W        W77588   7.002  29.228  30.449 -0.1460  0.4251  0.0929
34672W        W77589   5.928  29.957  30.481  0.0702  0.0233  0.1949
34673W        W77590   7.604  31.315  29.448 -0.0135 -0.0492 -0.1721
34674W        W77591   8.904  31.388  30.078 -0.2991 -0.2265  0.0148
34675W        W77592   7.022  29.965  29.426  0.1100 -0.0385  0.1074
34676W        W77593   5.767  31.207  26.889 -0.0604  0.1881  0.1056
34677W        W77594   9.068  31.772  31.342  0.0351  0.1251 -0.0393
34678W        W77595   6.663  31.330  29.345  0.0654  0.3647 -0.1239
34679W        W77596   6.192  32.011  31.486 -0.0145  0.0141 -0.0175
34680W        W77597   6.015  28.907  28.540  0.0560  0.0753 -0.2623
34681W        W77598   5.886  30.223  26.924  0.0342  0.0035  0.1578
34682W        W77599   4.352  30.276  28.930  0.2246  0.0393 -0.2358
34683W        W77600   6.607  29.469  30.785  0.0832  0.1881 -0.0948
34684W        W77601   7.183  31.730  29.475  0.0436  0.2290  0.2251
34685W        W77602   3.650  28.955  27.998 -0.0974  0.0704  0.0162
34686W        W77603   6.300  32.171  28.213  0.4130 -0.1516 -0.3792
34687W        W77604   6.612  30.352  29.517  0.1368 -0.2187 -0.0101
34688W        W77605   6.491  33.558  29.381  0.3137  0.0545  0.1687
34689W        W77606   8.481  31.168  29.370  0.2376 -0.1143  0.2804
34690W        W77607   6.081  31.242  28.072 -0.0144  0.3427 -0.1187
34691W        W77608   4.885  30.959  28.736 -0.3449  0.2648 -0.1060
34692W        W77609   7.235  31.366  29.138  0.1752  0.0810  0.3700
34693W        W77610  10.305  31.912  28.537  0.0915 -0.1567  0.1295
34694W        W77611   5.918  29.175  28.123 -0.0834 -0.1778 -0.0261
34695W        W77612   4.659  30.579  29.209 -0.0299 -0.0319  0.1107
34696W        W77613   5.683  32.125  29.528  0.0268  0.0622  0.1390
34697W        W77614   9.283  31.485  29.563 -0.2923  0.0989 -0.1004
34698W        W77615   6.897  28.187  30.367  0.0331  0.1653 -0.1459
34699W        W77616   6.891  33.161  27.228  0.0989 -0.3394 -0.3029
34700W        W77617   7.943  28.771  30.104  0.1781  0.1766 -0.2892
34701W        W77618   5.154  31.611   0.094 -0.2695 -0.0058 -0.1107
34702W        W77619   4.930  32.490   0.526  0.1631 -0.2544  0.1473
34703W        W77620   4.697  31.444  29.316 -0.1047  0.0671 -0.1508
34704W        W77621   5.764  29.972  31.126 -0.0484 -0.0274 -0.1537
34705W        W77622   5.053  30.833  29.630  0.0086  0.2839  0.0712
34706W        W77623   6.280  31.073  26.916 -0.0007  0.1327 -0.1543
34707W        W77624   9.407  32.259  28.181  0.0719 -0.0618 -0.2206
34708W        W77625   5.562  30.319  28.995 -0.1744  0.0124  0.0842
34709W        W77626   9.930  32.568  28.927  0.3557 -0.0132 -0.1195
34710W        W77627   7.735  27.963  28.486  0.2440 -0.0651 -0.2875
34711W        W77628   6.838  24.693  29.096  0.0502 -0.4137 -0.2150
34712W        W77629   6.787  27.698  29.089 -0.2800  0.0554 -0.1568
34713W        W77630   5.736  31.003  29.680 -0.1183 -0.1686  0.0454
34714W        W77631   4.231  30.610  27.484 -0.0387  0.0608  0.0777
34715W        W77632   4.502  29.961  29.891 -0.0787  0.1703  0.2855
34716W        W77633   5.399  31.089  29.269  0.0157  0.2706 -0.1206
34717W        W77634   5.562  28.496  31.933 -0.0164  0.1208 -0.0336
34718W        W77635   5.545  30.796  30.585  0.0656 -0.0310  0.0154
34719W        W77636   5.469  31.148  30.949 -0.0281 -0.3125 -0.0657
34720W        W77637   4.579  29.831  28.658  0.0024 -0.0459  0.0622
34721W        W77638   4.361  31.710  28.997 -0.0727  0.0187  0.2651
34722W        W77639   6.839  27.757  30.049  0.1747 -0.1045 -0.0352
34723W        W77640   3.668  27.513  28.081 -0.1791  0.1247  0.2328
34724W        W77641   8.067  32.171  30.524  0.1029 -0.4473  0.1956
34725W        W77642   7.447  31.825  30.811 -0.1103  0.0570 -0.0100
34726W        W77643   5.250  29.229  26.532 -0.0574 -0.3333 -0.1194
34727W        W77644   6.918  30.379  31.378 -0.1583  0.1649 -0.1309
34728W        W77645   3.912  30.181  29.145 -0.0961  0.0588  0.0586
34729W        W77646   6.251  28.489  29.645 -0.0752  0.0027  0.0286
34730W        W77647   6.803  27.531  31.855  0.0053  0.1319  0.1152
34731W        W77648   4.698  29.836  27.088  0.0866  0.0019  0.0038
34732W        W77649   7.484  31.019  29.933  0.1488 -0.1851  0.3597
34733W        W77650   6.675  30.819  29.580  0.1594 -0.1094 -0.1321
34734W        W77651   5.272  31.821  26.634 -0.0235 -0.0923 -0.0014
34735W        W77652   5.571  30.478  31.390 -0.2814  0.0581  0.0305
34736W        W77653   5.590  32.626  31.157 -0.0929 -0.1597  0.3532
34737W        W77654   4.672  28.696  29.549 -0.0114  0.0026 -0.0418
34738W        W77655   6.318  29.275  26.694  0.0241  0.4451 -0.0705
34739W        W77656   6.115  30.795  30.735 -0.1674  0.0074  0.3083
34740W        W77657   7.298  29.361  28.174  0.0778  0.0596 -0.1588
34741W        W77658   6.957  29.952  30.173 -0.0171  0.0885  0.2972
34742W        W77659   6.501  30.505  29.013 -0.1151  0.0230 -0.2033
34743W        W77660   6.461  28.000  30.434  0.1217 -0.0505 -0.1328
34744W        W77661   6.488  29.896  30.450  0.2800  0.0314 -0.0734
34745W        W77662   8.344  32.638  30.391  0.0348  0.0607 -0.3337
34746W        W77663   5.484  28.272  28.321 -0.1306  0.2000  0.0521
34747W        W77664   6.798  28.029  29.488  0.3381  0.0638 -0.2764
34748W        W77665   7.426  30.905  29.064  0.1523  0.1207 -0.1948
34749W        W77666   5.899  30.607   0.268  0.2101 -0.2022  0.0063
34750W        W77667   7.241  30.358  27.840 -0.1933  0.0594  0.3312
34751W        W77668   5.984  31.368  30.039  0.0624 -0.1096  0.2981
34752W        W77669   5.916  30.884  30.289  0.2022  0.1769  0.1822
34753W        W77670   7.410  32.166  30.418  0.2500  0.2211 -0.2545
34754W        W77671   4.862  30.336  28.073  0.1051  0.3843 -0.3598
34755W        W77672   8.359  30.208  27.874 -0.0164 -0.0706  0.2306
34756W        W77673   8.410  32.381   0.515  0.0714  0.2134 -0.2884
34757W        W77674   6.331  32.944   0.224 -0.0370 -0.0364 -0.0394
34758W        W77675   7.232  31.800  31.293 -0.0516 -0.1066  0.1361
34759W        W77676   6.051  30.239  29.840 -0.3976  0.2067 -0.0755
34760W        W77677   3.246  27.443  29.082 -0.4485  0.3281 -0.0061
34761W        W77678   4.393  30.131  29.417 -0.1546  0.2988  0.2502
34762W        W77679   4.946  29.413  28.374 -0.0137 -0.0381 -0.3698
34763W        W77680   7.049  29.116  31.846 -0.0979  0.1087  0.0942
34764W        W77681   6.535  31.964  27.849 -0.2199  0.1638  0.0021
34765W        W77682   7.922  29.129  27.556 -0.1549  0.0105  0.1340
34766W        W77683   6.219  32.278  29.786  0.0998 -0.0903 -0.3811
34767W        W77684   7.130  31.170  29.542  0.3180 -0.1059  0.1352
34768W        W77685   6.741  30.038  30.915  0.1334 -0.1338 -0.0846
34769W        W77686   6.225  30.937   0.036  0.0412 -0.0375  0.2491
34770W        W77687   5.105  31.689   1.180 -0.0791 -0.3336 -0.2372
34771W        W77688   6.073  30.870   0.666  0.3672 -0.1338 -0.0930
34772W        W77689   8.473  31.892   2.928  0.0074 -0.2798  0.1802
34773W        W77690   3.686  30.318   0.751  0.1838 -0.3903  0.1424
34774W        W77691   7.239  28.580  31.807 -0.3596  0.0858 -0.0814
34775W        W77692   5.894  30.755  31.666  0.0199 -0.1721  0.0629
34776W        W77693   7.387  28.663   0.582  0.0150 -0.1183 -0.0872
34777W        W77694   5.898  30.861  31.145  0.2966 -0.1641  0.1019
34778W        W77695   8.015  31.884  31.892  0.2261 -0.2150  0.0666
34779W        W77696   6.198  29.153   0.225  0.0003  0.0072 -0.3054
34780W        W77697   4.991  32.873   0.155 -0.3736 -0.0610  0.0577
34781W        W77698   5.127  33.050   1.713  0.1351 -0.1084  0.0170
34782W        W77699   7.853  30.196  31.281  0.1723 -0.1615 -0.1414
34783W        W77700   5.517  32.853  30.010 -0.0704  0.0892  0.1165
34784W        W77701   4.089  31.116   0.319 -0.0602 -0.3068  0.0519
34785W        W77702   6.949  32.607   1.453  0.0057 -0.2183 -0.0928
34786W        W77703   7.168  28.496  30.677  0.2193  0.0359 -0.1360
34787W        W77704   2.630  31.967  30.910  0.1326 -0.0234  0.1041
34788W        W77705   5.390  29.545  31.043  0.1201  0.0053  0.0860
34789W        W77706   4.309  31.852   2.134 -0.2662 -0.0556 -0.1098
34790W        W77707   7.805  28.148   1.205 -0.0614 -0.0699 -0.1184
34791W        W77708   5.746  29.470   0.002  0.3067 -0.0153 -0.1407
34792W        W77709   5.426  30.575   0.360  0.0619  0.0352 -0.0014
34793W        W77710   6.768  28.531   0.914 -0.3278 -0.1719 -0.0813
34794W        W77711   5.506  30.016   0.385 -0.2600  0.4477  0.0427
34795W        W77712   3.286  32.011   0.521 -0.1202 -0.0079  0.1072
34796W        W77713   5.640  31.650  30.856  0.1678 -0.1327 -0.1681
34797W        W77714   5.982  30.301   0.658  0.2006 -0.1369 -0.2018
34798W        W77715   5.825  33.233  31.615 -0.2110 -0.1261  0.1792
34799W        W77716   5.423  29.852  30.312 -0.0384 -0.3639  0.0839
34800W        W77717   7.737  31.468   0.638  0.0833  0.0795 -0.3298
34801W        W77718   7.069  30.369  29.786  0.2588  0.1013 -0.4615
34802W        W77719   3.933  28.551  30.875 -0.2454  0.0730 -0.0100
34803W        W77720   5.162  31.588  30.823  0.1843 -0.0296 -0.2328
34804W        W77721   6.739  31.348   0.152  0.1065  0.2269 -0.0108
34805W        W77722   6.401  31.116   1.070 -0.1220  0.1247  0.5113
34806W        W77723   8.638  29.914  30.708  0.2865  0.0606  0.0005
34807W        W77724   6.024  29.198  31.598  0.2725 -0.2580 -0.1318
34808W        W77725   6.699  29.501  30.195  0.0885 -0.1146 -0.1170
34809W        W77726   8.586  27.442  30.465 -0.1035 -0.1326 -0.1759
34810W        W77727   4.135  30.037  30.791  0.0097  0.1484 -0.0845
34811W        W77728   4.065  33.630  30.490  0.3889 -0.4279 -0.1940
34812W        W77729   4.665  29.985  30.691 -0.2884  0.1693  0.0737
34813W        W77730   5.786  29.784   1.986 -0.0603 -0.0160 -0.0581
34814W        W77731   7.154  28.073  30.998 -0.1795 -0.0993  0.3307
34815W        W77732   6.105  32.936   1.753 -0.0949 -0.1458  0.0693
34816W        W77733   5.581  32.161   0.246 -0.0174  0.0877 -0.1976
34817W        W77734   6.814  30.900  31.193  0.0337 -0.0148 -0.2259
34818W        W77735   5.663  28.958   0.375  0.0854 -0.2987  0.0574
34819W        W77736   6.754  28.504  31.637 -0.0258  0.2366 -0.0649
34820W        W77737   4.546  30.107  31.563  0.1142  0.2581  0.2840
34821W        W77738   5.968  31.534  31.219 -0.0945  0.0392 -0.0461
34822W        W77739   3.514  31.231   0.612 -0.3036  0.0022 -0.1558
34823W        W77740   6.596  31.086  31.690 -0.2501  0.2656 -0.2646
34824W        W77741   8.341  30.430   0.919  0.3180 -0.0978 -0.2208
34825W        W77742   5.154  32.822   0.823  0.0819 -0.0786 -0.1831
34826W        W77743   5.354  31.994  31.725  0.1506  0.0285 -0.1696
34827W        W77744   4.784  31.241   0.148 -0.1976  0.0257 -0.1025
34828W        W77745   3.542  30.990  30.974  0.2885 -0.3510 -0.0961
34829W        W77746   3.492  32.873   1.420 -0.0864 -0.0472  0.1959
34830W        W77747   3.652  31.544  29.454  0.1300  0.0174  0.4154
34831W        W77748   3.884  29.498  31.744 -0.1079  0.0472 -0.0813
34832W        W77749   6.451  33.012  31.528 -0.0972 -0.2037 -0.0509
34833W        W77750   6.492  31.132   0.493 -0.2058 -0.0994 -0.1655
34834W        W77751  10.799  31.476   1.567 -0.1716 -0.0984  0.3995
34835W        W77752   4.945  31.192  17.394  0.0087  0.1009 -0.0425
34836W        W77753   5.603  33.087  14.650 -0.0120 -0.1868  0.2777
34837W        W77754   5.349   1.631  15.594 -0.0393 -0.0030 -0.1452
34838W        W77755   3.862  34.033  16.077  0.1049 -0.2271 -0.0149
34839W        W77756   3.756  33.298  17.652  0.1852  0.0236  0.1131
34840W        W77757   7.723   0.546  15.441  0.1319  0.2618  0.0588
34841W        W77758   6.163  34.209  15.764 -0.2155 -0.0451 -0.1248
34842W        W77759   4.416  32.905  15.265 -0.0037 -0.1601 -0.1174
34843W        W77760   3.596  31.382  17.961 -0.0992  0.0038 -0.2213
34844W        W77761   6.346   1.094  16.841 -0.0384  0.1209  0.0096
34845W        W77762   4.753   2.353  16.713 -0.1864 -0.1688 -0.1723
34846W        W77763   5.590  33.145  16.727  0.5220  0.0846 -0.1075
34847W        W77764   4.890  33.887  15.303  0.1238  0.3452 -0.0736
34848W        W77765   5.829  32.966  17.981 -0.3527 -0.2761 -0.2973
34849W        W77766   5.762  34.237  19.558 -0.0666 -0.1685  0.0058
34850W        W77767   3.916   0.027  15.318 -0.1808 -0.1985 -0.0693
34851W        W77768   2.310   2.763  18.537  0.3053  0.0380  0.1126
34852W        W77769   6.609  32.142  15.134  0.0608 -0.4134  0.0877
34853W        W77770   6.936   0.699  17.362 -0.0056  0.2587  0.2024
34854W        W77771   4.896   1.071  17.644 -0.0183 -0.0226 -0.0468
34855W        W77772   5.780  33.793  18.235  0.0515 -0.0817 -0.0994
34856W        W77773   5.689  34.380  16.014 -0.0144 -0.1499 -0.1580
34857W        W77774   6.846  34.595  15.149 -0.0937 -0.1102 -0.1680
34858W        W77775   6.851  33.245  19.035 -0.0407  0.2425 -0.1966
34859W        W77776   4.684  33.729  15.841 -0.0764 -0.0426  0.0895
34860W        W77777   6.520   0.940  16.077 -0.1790  0.2343 -0.1280
34861W        W77778   5.529  31.961  15.814 -0.3358  0.1390  0.4656
34862W        W77779   4.983  32.810  15.384 -0.2234 -0.0694  0.1189
34863W        W77780   4.173  33.142  16.898  0.1444  0.0358  0.0085
34864W        W77781   5.842  33.952  15.452  0.3947  0.0740  0.1905
34865W        W77782   6.235  33.942  16.760  0.0322 -0.0583 -0.0728
34866W        W77783   4.646  32.707  15.814  0.0345  0.0546  0.0075
34867W        W77784   4.958  33.313  15.111  0.3059 -0.0207 -0.0998
34868W        W77785   4.690   1.847  17.008  0.0031  0.0339  0.0068
34869W        W77786   4.291  33.469  18.039  0.2142  0.1247 -0.1303
34870W        W77787   3.765  31.880  15.167 -0.0801  0.1287 -0.2684
34871W        W77788   7.452  34.073  15.474  0.2904 -0.4266  0.0049
34872W        W77789   6.002   0.237  17.240 -0.1520 -0.1254  0.0700
34873W        W77790   6.401  34.067  17.513 -0.0443 -0.2224 -0.3205
34874W        W77791   6.085  34.042  14.936  0.2892 -0.6039 -0.2983
34875W        W77792   6.461   2.315  19.578 -0.2249 -0.0647  0.0673
34876W        W77793   5.832   0.943  17.199  0.0669 -0.4098 -0.0305
34877W        W77794   6.357  31.838  17.085 -0.0715 -0.0371  0.1550
34878W        W77795   2.816  34.278  18.954 -0.3422  0.2081 -0.2487
34879W        W77796   7.619  32.400  15.772  0.0173 -0.0800 -0.0909
34880W        W77797   7.303  34.287  15.062  0.0520  0.0816  0.0887
34881W        W77798   4.783  34.297  16.295  0.0243 -0.2215  0.0202
34882W        W77799   4.234   0.421  15.294 -0.0279  0.1340  0.2979
34883W        W77800   4.381  32.743  18.525 -0.2109 -0.2412 -0.0620
34884W        W77801   6.073  33.811  15.998  0.0193 -0.1109 -0.1994
34885W        W77802   5.314   0.442  16.380 -0.0062  0.3603 -0.1458
34886W        W77803   2.984  33.037  17.208 -0.0192  0.0249  0.0167
34887W        W77804   6.487  33.382  16.492  0.3278  0.4164  0.0076
34888W        W77805   5.592  32.969  15.732  0.0020 -0.1988 -0.2924
34889W        W77806   8.201  33.926  17.300 -0.0370  0.0125 -0.0977
34890W        W77807   4.067  34.316  20.432  0.1317 -0.1091 -0.0130
34891W        W77808   5.149   0.022  17.326 -0.1924 -0.1276  0.1330
34892W        W77809   5.642  32.524  15.105 -0.0766 -0.1613  0.2510
34893W        W77810   5.556  33.407  17.263 -0.1086  0.0061 -0.0133
34894W        W77811   4.496  34.275  17.185 -0.0216  0.1491  0.1230
34895W        W77812   4.270  34.503  15.016  0.1137  0.0156  0.1843
34896W        W77813   3.702   1.033  16.020  0.3181 -0.1989 -0.0418
34897W        W77814   7.726  33.295  15.073  0.1793 -0.0187 -0.2494
34898W        W77815   4.390   0.987  17.675  0.0107 -0.0386 -0.1169
34899W        W77816   6.464  34.454  17.795  0.0654 -0.0927 -0.1965
34900W        W77817   3.780   1.096  15.210 -0.0910 -0.2684  0.0193
34901W        W77818   5.865   0.288  16.370  0.2040  0.0157  0.2811
34902W        W77819   6.726  32.694  14.219  0.0413  0.3232  0.1086
34903W        W77820   5.233  34.361  14.557  0.1788  0.0146 -0.4457
34904W        W77821   5.806  32.046  15.368  0.1266 -0.1757 -0.0318
34905W        W77822   6.137  33.279  16.060  0.0967  0.4087  0.0702
34906W        W77823   4.375   0.828  18.621  0.2649  0.1225 -0.1847
34907W        W77824   4.439   0.022  15.467  0.1396 -0.1624 -0.0551
34908W        W77825   5.215  31.828  17.134 -0.1316 -0.0010 -0.1999
34909W        W77826   5.616  33.418  15.973 -0.0862  0.0976 -0.0572
34910W        W77827   6.854   1.510  16.207  0.1299  0.2027 -0.0162
34911W        W77828   5.040  32.000  19.989 -0.1088 -0.4447  0.1594
34912W        W77829   5.904  34.527  19.949 -0.0203  0.1407  0.0825
34913W        W77830   5.155  32.757  15.933  0.1198  0.2928 -0.4026
34914W        W77831   7.456   0.376  17.419  0.0859 -0.1112  0.3286
34915W        W77832   4.548   0.472  15.733 -0.0864 -0.0709  0.1336
34916W        W77833   7.028  34.116  18.433 -0.1397  0.0301 -0.0925
34917W        W77834   6.782   0.542  18.238 -0.2463  0.3277  0.1077
34918W        W77835   5.661  31.524  15.599 -0.0701 -0.1638 -0.0202
34919W        W77836   5.267  32.698  16.866 -0.1257  0.1613  0.4561
34920W        W77837   9.179  32.309  20.449 -0.1172 -0.4919 -0.0738
34921W        W77838   4.953  34.197  15.806  0.0929  0.0664  0.1884
34922W        W77839   4.673  33.765  17.190 -0.1921 -0.2551  0.2248
34923W        W77840   7.349  33.773  14.985  0.1652 -0.0472  0.0017
34924W        W77841   2.321   0.590  17.252 -0.1392  0.2599 -0.2511
34925W        W77842   4.275  33.781  16.888  0.1337 -0.0084 -0.3967
34926W        W77843   6.774   1.103  17.544  0.3271 -0.1014 -0.0698
34927W        W77844   6.103  32.408  16.329  0.0180 -0.1983 -0.0131
34928W        W77845   6.131   0.361  17.690  0.2136 -0.0520 -0.1211
34929W        W77846   3.348  33.487  15.171  0.0972 -0.1146  0.2854
34930W        W77847   7.002   0.204  17.307 -0.3017 -0.2012  0.0432
34931W        W77848   5.381  33.043  15.105  0.1811 -0.4444 -0.0679
34932W        W77849   4.615   0.512  16.298 -0.3818  0.0089 -0.3808
34933W        W77850   4.311  33.993  20.123  0.0775  0.1027 -0.1942
34934W        W77851   5.539  34.449  18.133  0.3934 -0.1407  0.1538
34935W        W77852   3.369  33.203  16.206 -0.1435 -0.0578  0.1364
34936W        W77853   5.781   1.545  17.096  0.2851  0.2093 -0.1173
34937W        W77854   2.931  33.937  20.042 -0.0966 -0.3940 -0.1924
34938W        W77855   5.589  30.762  16.654 -0.4982 -0.1545  0.0054
34939W        W77856   5.817   0.652  19.193  0.3238  0.3525  0.1823
34940W        W77857   5.974  33.531  15.635 -0.1685  0.0729 -0.1810
34941W        W77858   6.547  31.561  16.550  0.0056  0.2708 -0.0187
34942W        W77859   6.531  34.320  16.630  0.3323 -0.0356 -0.0159
34943W        W77860   8.256  33.582  16.840  0.4806  0.2667  0.0298
34944W        W77861   6.502  34.174  15.344 -0.0524  0.2164 -0.1755
34945W        W77862   4.086  33.760  18.553  0.0302 -0.0729  0.0338
34946W        W77863   4.442  33.010  18.916  0.3673 -0.1392  0.1433
34947W        W77864   3.908  34.052  16.620 -0.3138  0.0196  0.1987
34948W        W77865   6.579   1.257  18.993 -0.2311  0.0006 -0.3893
34949W        W77866   7.006  32.883  15.404  0.0891  0.0374 -0.0694
34950W        W77867   4.160  32.532  15.522 -0.1527  0.2945  0.3808
34951W        W77868   3.648   0.075  17.156  0.2977 -0.3561 -0.1418
34952W        W77869   7.231  34.557  18.629  0.2968  0.2772  0.1256
34953W        W77870   2.846   0.718  17.461 -0.1778 -0.1062 -0.1873
34954W        W77871   5.573   1.172  15.623 -0.0816 -0.0647 -0.3042
34955W        W77872   4.252  33.982  19.223  0.4267  0.0334 -0.1258
34956W        W77873   4.960   1.279  16.792  0.3515  0.1782  0.1059
34957W        W77874   8.002  32.964  17.713  0.1877 -0.3200  0.0684
34958W        W77875   5.110  33.321  17.376 -0.0679  0.1599  0.0236
34959W        W77876   6.057  34.372  16.432  0.0113 -0.1484  0.6051
34960W        W77877   4.544  34.018  18.134  0.2292 -0.4061  0.0061
34961W        W77878   7.175  34.283  14.516  0.4761  0.4683  0.2877
34962W        W77879   6.693  34.117  17.021 -0.2642  0.0002 -0.0941
34963W        W77880   6.461  33.848  16.362  0.1980  0.4864  0.1718
34964W        W77881   5.532   0.537  15.390 -0.0362 -0.0525  0.0665
34965W        W77882   4.408  33.907  16.354 -0.0329  0.1638  0.1829
34966W        W77883   4.983   0.055  19.256  0.0590  0.0319 -0.0274
34967W        W77884   4.225  33.813  15.706 -0.3296 -0.0422  0.0493
34968W        W77885   7.144  31.419  19.347  0.0034 -0.0220 -0.1148
34969W        W77886   4.497  34.153  15.411 -0.0507  0.3104 -0.0076
34970W        W77887   4.872  33.690  16.451 -0.0516 -0.2572  0.1367
34971W        W77888   4.303   0.881  15.029 -0.2231 -0.2250 -0.0676
34972W        W77889   4.857   0.008  15.783  0.1323 -0.1252  0.2338
34973W        W77890   5.538  32.454  15.597  0.1283  0.1620  0.3350
34974W        W77891   7.263  33.875  19.335  0.2522  0.1739  0.3495
34975W        W77892   3.903  32.756  17.605  0.0134 -0.0050 -0.1375
34976W        W77893   7.109  33.531  17.722  0.1819 -0.2224  0.3150
34977W        W77894   7.929  33.547  17.481  0.2061  0.0799 -0.1283
34978W        W77895   4.085   3.585  16.954 -0.2762  0.0959  0.0487
34979W        W77896   7.722  34.483  16.961 -0.1834 -0.0555  0.3378
34980W        W77897   2.608  34.389  15.703 -0.0177 -0.0557  0.0388
34981W        W77898   3.204   0.845  19.236 -0.0054 -0.1428 -0.1314
34982W        W77899   5.695  31.860  17.047  0.0121 -0.1679  0.0669
34983W        W77900   5.356  33.499  16.431  0.1240  0.0938 -0.2450
34984W        W77901   7.499  32.013  15.361  0.1085  0.3233 -0.1712
34985W        W77902   8.169  33.943  18.678 -0.2268 -0.2356 -0.0188
34986W        W77903   7.147  32.106  15.005  0.0720  0.0773  0.0039
34987W        W77904   5.700  33.655  16.867 -0.0684  0.2074  0.3024
34988W        W77905   4.714  31.925  15.445  0.1402 -0.1516  0.1396
34989W        W77906   5.588  34.530  19.148 -0.1060  0.0709  0.0455
34990W        W77907   7.259  31.653  19.872 -0.0240 -0.0291 -0.2482
34991W        W77908   4.453   0.036  16.039 -0.1104  0.1751  0.1411
34992W        W77909   5.786  31.948  16.264  0.3538 -0.0558 -0.0868
34993W        W77910   7.546  33.727  17.829 -0.0148 -0.0962 -0.3355
34994W        W77911   7.262   0.262  15.433  0.0782  0.4175 -0.2069
34995W        W77912   3.365   0.725  17.162  0.1283 -0.2012 -0.1435
34996W        W77913   6.446   0.014  15.604 -0.0207  0.0649 -0.2977
34997W        W77914   6.406  33.727  15.542  0.1397  0.0904 -0.0010
34998W        W77915   7.799  34.149  15.023 -0.0151  0.0572 -0.0746
34999W        W77916   5.270  33.348  15.610  0.0165  0.2370  0.2263
35000W        W77917   6.572  34.431  16.001  0.0290  0.1723 -0.1764
35001W        W77918   2.963   0.659  15.965 -0.3181 -0.0412 -0.3463
35002W        W77919   6.678  34.658  14.695  0.0319 -0.2470  0.0698
35003W        W77920   7.890  34.453  18.555  0.0564 -0.1463  0.0406
35004W        W77921   6.981  33.564  14.052 -0.0660 -0.2531  0.1147
35005W        W77922   6.194  32.233  17.790 -0.3247  0.0353  0.3690
35006W        W77923   5.254  33.973  14.834  0.1370 -0.0503 -0.2755
35007W        W77924   5.493   1.791  16.033 -0.0469  0.0986  0.0202
35008W        W77925   5.010  33.395  16.813 -0.1255 -0.2255 -0.0214
35009W        W77926   4.968  32.470  16.481 -0.3614  0.0765  0.0498
35010W        W77927   7.904  32.668  17.073  0.0245  0.1853 -0.2689
35011W        W77928   8.285  32.435  15.781 -0.2413 -0.3436 -0.2413
35012W        W77929   2.218   0.070  17.347 -0.4182  0.0422  0.1016
35013W        W77930   5.141  32.505  15.023  0.0148 -0.1758 -0.1639
35014W        W77931   6.399   0.289  16.941  0.1604  0.1380  0.3449
35015W        W77932   7.601  34.081  16.169 -0.0202 -0.2441  0.0400
35016W        W77933   6.688  34.236  18.842 -0.2980  0.1649  0.0040
35017W        W77934   6.980  32.795  19.182 -0.4042  0.1222  0.1576
35018W        W77935   5.394  34.298  15.596  0.0688  0.2337 -0.3587
35019W        W77936   7.011  32.440  18.181 -0.0800 -0.0693 -0.3418
35020W        W77937   6.740  31.981  16.236 -0.2479  0.0116  0.0551
35021W        W77938   6.492  32.642  15.387 -0.0869  0.2075 -0.0694
35022W        W77939   6.015   0.062  16.778  0.0439 -0.1650  0.3382
35023W        W77940   4.229  32.814  16.507  0.1484  0.1093  0.1854
35024W        W77941   5.536  34.016  19.193 -0.1707  0.1111  0.2888
35025W        W77942   3.366  33.839  18.860  0.2398  0.2381  0.0387
35026W        W77943   3.695  34.526  18.629  0.2638 -0.0975  0.0002
35027W        W77944   4.478  34.162  15.934  0.0895 -0.0779  0.1910
35028W        W77945   5.524   0.148  17.665 -0.1680  0.3404  0.0598
35029W        W77946   3.560  31.806  16.254  0.2458  0.1915  0.1998
35030W        W77947   4.306  31.975  16.376 -0.0201 -0.0167 -0.1108
35031W        W77948   5.527   0.552  17.334  0.1902  0.1701  0.2023
35032W        W77949   3.067  33.463  20.092  0.1440 -0.1185  0.0677
35033W        W77950   5.265  31.985  16.251 -0.0513 -0.2833  0.0207
35034W        W77951   6.070  33.474  17.907 -0.0436  0.0436 -0.1884
35035W        W77952   4.474  32.447  16.739  0.0222  0.0566 -0.2090
35036W        W77953   7.113  32.947  18.169 -0.0412  0.0416 -0.2740
35037W        W77954   5.764   0.775  16.479  0.1268 -0.1407  0.1763
35038W        W77955   5.516  34.067  17.211 -0.0318 -0.1691 -0.0060
35039W        W77956   4.801  32.057  17.795  0.1730  0.1239 -0.2549
35040W        W77957   6.639  32.074  19.135 -0.0535  0.0293  0.0647
35041W        W77958   3.879  34.626  16.669  0.1447 -0.0247  0.0950
35042W        W77959   4.658  33.099  17.597 -0.1345 -0.4245 -0.0025
35043W        W77960   4.895   3.441  18.904 -0.0745  0.0503  0.1044
35044W        W77961   6.670   0.736  16.928  0.0663  0.3835  0.0479
35045W        W77962   7.474   0.414  15.007  0.1891 -0.1298  0.1025
35046W        W77963   6.912  33.610  17.262 -0.0768 -0.1491 -0.0186
35047W        W77964   4.505  33.364  16.535  0.1765 -0.1763 -0.1764
35048W        W77965   6.090  34.649  15.979  0.1622  0.1646  0.1020
35049W        W77966   7.598   0.984  16.929 -0.6040  0.1479  0.1616
35050W        W77967   4.877  32.936  18.649  0.1257 -0.0229 -0.0538
35051W        W77968   7.397  32.931  15.887 -0.2137 -0.0737 -0.2780
35052W        W77969   5.869   1.514  19.614  0.4002  0.0376 -0.2232
35053W        W77970   6.620  32.525  19.430 -0.1542 -0.0898 -0.1685
35054W        W77971   7.063  33.701  21.060 -0.1820  0.1647 -0.0523
35055W        W77972   4.368  32.435  20.466 -0.1470  0.3401 -0.0454
35056W        W77973   4.249  32.076  23.178  0.1070 -0.3710  0.3776
35057W        W77974   5.863   1.743  17.656  0.1608  0.2294 -0.2370
35058W        W77975   5.377   0.114  21.241  0.0314  0.1194  0.0438
35059W        W77976   5.462  34.215  19.961 -0.1147  0.1739  0.3910
35060W        W77977   3.043  32.411  22.198 -0.0619 -0.2738  0.0533
35061W        W77978   6.447  33.795  21.663  0.1174  0.0079 -0.2898
35062W        W77979   3.804  34.626  21.289  0.0018 -0.1278  0.1024
35063W        W77980   5.288  34.323  21.480  0.1808 -0.1228  0.0546
35064W        W77981   4.502  34.022  18.755  0.2469  0.0399  0.3399
35065W        W77982   4.470  33.498  22.223 -0.0133 -0.2795  0.3041
35066W        W77983   5.401  33.858  21.028  0.1875  0.0698  0.2211
35067W        W77984   3.752   1.557  18.678 -0.0245  0.1535 -0.0208
35068W        W77985   3.913   0.737  23.506 -0.0800 -0.0757  0.1033
35069W        W77986   4.889   2.497  21.988  0.1391  0.0471  0.1055
35070W        W77987   4.302   0.306  23.338 -0.0757 -0.2791  0.1475
35071W        W77988   8.519  33.882  20.989 -0.1228  0.1176 -0.2051
35072W        W77989   4.222   0.516  20.729 -0.0000  0.1356 -0.3193
35073W        W77990   6.223  34.176  22.369 -0.0997 -0.2472 -0.0500
35074W        W77991   4.938   0.498  21.267  0.0644 -0.0756 -0.0287
35075W        W77992   8.014  33.453  22.737  0.0190  0.1006 -0.5135
35076W        W77993   5.463   0.387  18.079  0.2159 -0.1214 -0.1508
35077W        W77994   5.174  33.631  18.501 -0.2343 -0.0830 -0.0741
35078W        W77995   6.618   0.351  20.677  0.0986  0.0197 -0.0809
35079W        W77996   5.059  34.468  20.457  0.3657 -0.0259 -0.2394
35080W        W77997   5.029   0.786  21.759 -0.2498 -0.1607 -0.3877
35081W        W77998   5.169   1.176  18.406  0.2802 -0.2516 -0.4083
35082W        W77999   6.899  33.575  21.539 -0.2162 -0.0809  0.0623
35083W        W78000   3.192   0.011  20.215 -0.0071  0.2044  0.3097
35084W        W78001   4.887   0.374  18.333 -0.0230  0.1222 -0.3279
35085W        W78002   4.644   0.534  23.038 -0.0937  0.2151  0.0367
35086W        W78003   3.717  34.329  24.044  0.0829 -0.4468 -0.1502
35087W        W78004   5.358  34.258  17.627 -0.2405  0.0791  0.0781
35088W        W78005   4.580   0.749  20.445 -0.0323 -0.0192 -0.0666
35089W        W78006   6.612  31.674  19.996  0.0961 -0.4408  0.1591
35090W        W78007   6.864  32.456  21.309 -0.0737 -0.2017 -0.1678
35091W        W78008   6.831   1.325  19.837  0.1165  0.1309 -0.0016
35092W        W78009   5.348   0.796  19.576  0.0620  0.0137 -0.0460
35093W        W78010   4.384   0.082  21.733  0.0813 -0.2148  0.0661
35094W        W78011   7.140  33.881  20.016  0.0424  0.0425  0.0284
35095W        W78012   4.049  32.912  21.643 -0.1234  0.1511  0.0504
35096W        W78013   6.520  34.534  21.818 -0.1110 -0.0399  0.0507
35097W        W78014   8.030   0.043  18.991  0.0826 -0.2189  0.1880
35098W        W78015   4.815  34.488  20.913 -0.1229  0.1111 -0.2602
35099W        W78016   4.538   0.647  21.595  0.1686 -0.1497 -0.2996
35100W        W78017   5.326  33.431  24.463  0.1385 -0.0120  0.3158
35101W        W78018   4.372  33.398  20.954  0.1325 -0.3628 -0.0368
35102W        W78019   5.881  33.272  22.180  0.0072 -0.2004 -0.1986
35103W        W78020   3.312  33.130  20.316  0.2608 -0.1352  0.0580
35104W        W78021   5.008  33.391  21.785 -0.0237  0.1653 -0.1927
35105W        W78022   6.180   1.808  20.822  0.1365 -0.1492  0.0109
35106W        W78023   6.838  32.525  22.725  0.2898 -0.0635 -0.1923
35107W        W78024   4.905  32.964  24.162  0.1317 -0.3112  0.1128
35108W        W78025   4.877  33.542  20.722  0.0618 -0.0663 -0.0719
35109W        W78026   8.269   0.582  17.125 -0.1740  0.2327 -0.2543
35110W        W78027   5.025  31.956  22.603  0.0741 -0.2196  0.3612
35111W        W78028   5.151   0.441  22.145  0.2568 -0.1229 -0.1775
35112W        W78029   2.728  32.986  20.231 -0.0120 -0.0466  0.1467
35113W        W78030   5.370  34.592  19.592  0.4278 -0.4123 -0.0741
35114W        W78031   8.474  33.758  20.020  0.1550  0.0416  0.4767
35115W        W78032   3.016  34.313  24.333 -0.3409 -0.1564 -0.1858
35116W        W78033   3.037   0.012  22.921 -0.2462  0.1322  0.1001
35117W        W78034   3.713  34.634  19.591  0.0966 -0.0519  0.1272
35118W        W78035   6.196  34.513  18.579  0.0004  0.0536  0.1912
35119W        W78036   6.602  33.866  18.537  0.1579  0.1713 -0.1110
35120W        W78037   6.857  34.305  19.883 -0.0710 -0.1858  0.1018
35121W        W78038   5.898  31.333  20.274  0.0693  0.0134  0.2076
35122W        W78039   5.995  34.023  17.758  0.2143 -0.0310  0.0136
35123W        W78040   3.471  34.537  22.143 -0.0477 -0.2963  0.0148
35124W        W78041   4.349   0.085  19.185  0.1322 -0.0922  0.2706
35125W        W78042   6.730  33.246  17.974 -0.1040 -0.0849 -0.5625
35126W        W78043   6.072   0.040  21.966 -0.1685  0.0429  0.1900
35127W        W78044   5.765  34.359  21.192 -0.0831 -0.2473 -0.1500
35128W        W78045   4.719  33.765  19.972 -0.0190  0.2917 -0.1808
35129W        W78046   5.113  34.650  23.438 -0.1154 -0.3622 -0.0642
35130W        W78047   4.976  33.909  18.963  0.2871 -0.0098 -0.2172
35131W        W78048   6.928  34.167  21.151  0.0356  0.0161  0.1017
35132W        W78049   4.924  34.077  18.482 -0.2100 -0.2282  0.0407
35133W        W78050   5.082  33.785  21.412  0.0479 -0.1900 -0.2446
35134W        W78051   4.988  34.312  23.825 -0.1810  0.0582 -0.1302
35135W        W78052   5.021   0.093  17.919 -0.1193  0.1401 -0.1744
35136W        W78053   3.437  34.398  21.628  0.1284  0.2323  0.1612
35137W        W78054   7.938  32.033  21.155 -0.0071 -0.2213  0.2341
35138W        W78055   4.699   0.536  22.067 -0.0135 -0.0023  0.1144
35139W        W78056   5.308   0.663  18.508 -0.0176 -0.1926  0.0287
35140W        W78057   6.249  32.759  20.323 -0.0900 -0.2593 -0.0116
35141W        W78058   3.998  32.801  24.830 -0.2547 -0.0611 -0.0689
35142W        W78059   6.358  34.498  22.817  0.1832  0.1452  0.1650
35143W        W78060   5.372   0.245  22.568 -0.3746 -0.1043 -0.2252
35144W        W78061   8.132   0.461  20.181  0.0660  0.0093 -0.0197
35145W        W78062   5.091  33.275  25.047 -0.4109  0.2675 -0.0417
35146W        W78063   4.550  32.742  19.504 -0.1340  0.1960 -0.2658
35147W        W78064   4.969  32.912  22.738 -0.1876 -0.0462  0.1686
35148W        W78065   5.077  34.206  19.408 -0.1356  0.1012  0.0905
35149W        W78066   4.194  34.452  19.507 -0.2468 -0.1606  0.0736
35150W        W78067   4.761  33.588  23.040 -0.0194  0.1566 -0.0485
35151W        W78068   7.109  34.362  20.399  0.0206  0.0941 -0.0727
35152W        W78069   5.524  34.116  20.469 -0.0122  0.0200  0.0596
35153W        W78070   6.424  34.040  20.707 -0.5184 -0.1359  0.0731
35154W        W78071   6.649   1.611  21.042 -0.2619 -0.0842  0.2033
35155W        W78072   6.115  30.904  20.133 -0.0457  0.2006  0.1624
35156W        W78073   5.679  33.962  21.527  0.0011  0.2675  0.0172
35157W        W78074   6.825  34.537  20.758 -0.1578 -0.0082 -0.2648
35158W        W78075   6.956  31.626  18.898 -0.1220  0.0061  0.1269
35159W        W78076   5.566  33.474  21.381  0.2445 -0.2354 -0.1134
35160W        W78077   6.047  33.683  22.527 -0.1926 -0.3629  0.2072
35161W        W78078   6.814   2.063  18.105  0.1560  0.1060  0.0317
35162W        W78079   4.502  33.597  23.523 -0.0086  0.4126  0.1785
35163W        W78080   3.496  33.383  23.832 -0.0427  0.0156  0.1031
35164W        W78081   3.323  33.582  23.418 -0.0030 -0.0869  0.0369
35165W        W78082   3.461   0.012  24.269  0.0447  0.0968  0.1267
35166W        W78083   6.059  34.016  18.629 -0.1967  0.1015  0.1884
35167W        W78084   6.299  33.024  17.755 -0.1703 -0.0609  0.1803
35168W        W78085   5.932   2.629  21.430 -0.1634  0.2718  0.1447
35169W        W78086   6.257  34.518  20.860  0.3066 -0.0147 -0.0130
35170W        W78087   4.115   0.736  19.660 -0.2643 -0.1096 -0.2052
35171W        W78088   5.410   0.382  19.282  0.1132 -0.0887 -0.0941
35172W        W78089   5.291  31.956  22.160  0.2146 -0.0764  0.0409
35173W        W78090   5.342  33.990  18.090  0.5547 -0.1093  0.0017
35174W        W78091   8.024  33.740  19.897  0.3116  0.0272 -0.2361
35175W        W78092   4.910  32.974  19.228 -0.1460 -0.2002 -0.0392
35176W        W78093   6.787  34.201  22.882 -0.2498 -0.2024 -0.0473
35177W        W78094   2.385  32.158  22.421  0.0598  0.1397  0.3419
35178W        W78095   7.634   0.446  20.083  0.1941 -0.2535  0.2789
35179W        W78096   5.671  32.419  20.737  0.4194  0.1847 -0.2654
35180W        W78097   6.061   0.726  20.454 -0.1163  0.0112  0.0834
35181W        W78098   4.559   0.417  19.949  0.1595 -0.0398  0.1006
35182W        W78099   4.086  33.882  21.716  0.1450 -0.2866 -0.0646
35183W        W78100   5.436  34.097  24.086  0.0957  0.2071  0.3492
35184W        W78101   6.364  33.457  19.198 -0.0490  0.2856  0.1669
35185W        W78102   5.857  33.222  22.721  0.1727 -0.4490 -0.0353
35186W        W78103   5.013   0.418  19.680 -0.0366 -0.0707  0.1891
35187W        W78104   4.307  33.402  21.706  0.0486  0.4173 -0.1968
35188W        W78105   3.136  33.434  17.547 -0.0332  0.1844 -0.3144
35189W        W78106   5.252   3.141  18.580 -0.0868 -0.2537 -0.0936
35190W        W78107   4.834  33.933  20.959  0.2774  0.1143  0.0364
35191W        W78108   6.818  32.240  25.796  0.2146  0.0762 -0.0716
35192W        W78109   5.548  32.959  20.887 -0.0585  0.2693  0.1615
35193W        W78110   6.443  33.323  22.473  0.3167 -0.2121 -0.1508
35194W        W78111   5.764   0.821  20.048  0.2969  0.2283 -0.0853
35195W        W78112   4.642  33.841  21.795 -0.0620  0.0799 -0.0271
35196W        W78113   6.600  34.079  22.022  0.1519 -0.0360 -0.0513
35197W        W78114   4.729  34.143  21.391 -0.1741 -0.3326  0.1991
35198W        W78115   3.290  33.247  22.094 -0.2177  0.3505  0.2043
35199W        W78116   5.739  34.649  20.768 -0.1076  0.0312  0.1488
35200W        W78117   5.119   0.032  20.029 -0.0748 -0.1226  0.0097
35201W        W78118   6.387  32.436  18.955  0.1664 -0.2846 -0.2301
35202W        W78119   8.609   0.904  19.625  0.1574 -0.0956 -0.0682
35203W        W78120   5.970  32.765  19.014  0.2477 -0.0934  0.0575
35204W        W78121   5.123   1.221  19.339 -0.2245  0.0295 -0.4254
35205W        W78122   4.058  31.859  21.404  0.0152  0.2550 -0.1735
35206W        W78123   5.557  33.590  22.473 -0.1554  0.1610  0.0636
35207W        W78124   6.061  33.744  23.857 -0.0025  0.0479  0.0011
35208W        W78125   5.171  34.370  18.860 -0.3258  0.0043 -0.1573
35209W        W78126   5.081  33.392  20.055 -0.1127 -0.1855  0.3286
35210W        W78127   5.606  33.028  21.764 -0.4350  0.1052  0.0878
35211W        W78128   5.810  32.959  21.340  0.1315 -0.0279  0.0971
35212W        W78129   2.487  33.661  17.848 -0.0252 -0.2739 -0.0774
35213W        W78130   6.021  33.632  21.260  0.3636 -0.1523  0.3838
35214W        W78131   4.142  34.485  23.265 -0.1308 -0.2003  0.1738
35215W        W78132   5.478  32.310  23.509 -0.0509 -0.0378  0.1830
35216W        W78133   5.540  32.272  19.747 -0.2186  0.0327 -0.1266
35217W        W78134   6.827  33.586  22.058  0.1693  0.0663 -0.0549
35218W        W78135   5.044   0.183  22.998  0.2077  0.1207 -0.1090
35219W        W78136   2.878   0.222  17.321  0.0958 -0.0528  0.3617
35220W        W78137   7.119   1.214  22.575 -0.0864  0.1762  0.3995
35221W        W78138   5.356   1.666  19.642 -0.2083  0.1158 -0.1369
35222W        W78139   5.604  32.123  18.498  0.2945 -0.3385  0.1483
35223W        W78140   6.622  32.156  19.768  0.1734 -0.2220  0.0854
35224W        W78141   5.978  34.335  20.439  0.0994 -0.1265 -0.2609
35225W        W78142   4.062   0.594  23.012  0.0090 -0.3366 -0.0762
35226W        W78143   3.045  32.801  20.543  0.0740 -0.1065 -0.0293
35227W        W78144   8.321  33.500  23.716 -0.0709 -0.3583 -0.0909
35228W        W78145   9.110  34.088  17.350 -0.0642  0.1071 -0.3095
35229W        W78146   3.092   0.865  23.455  0.1449  0.1820 -0.3217
35230W        W78147   3.468  32.463  20.363 -0.0740  0.0575 -0.1906
35231W        W78148   4.388   1.650  20.511 -0.3894 -0.2281  0.3111
35232W        W78149   6.244  33.176  21.186  0.2749 -0.0195 -0.3914
35233W        W78150   6.246  34.178  21.250  0.1921 -0.1955 -0.0187
35234W        W78151   6.367  34.259  23.334 -0.0163 -0.0839  0.0558
35235W        W78152   7.240   0.312  18.186  0.1106  0.1748  0.0655
35236W        W78153   5.050  33.949  20.438  0.2159  0.2241  0.1119
35237W        W78154   8.115   1.184  22.664  0.0305  0.0613  0.0075
35238W        W78155   5.673  33.748  19.630  0.4821 -0.4290 -0.0804
35239W        W78156   5.957  33.499  19.993  0.3917  0.0187 -0.1126
35240W        W78157   3.755  34.153  19.368 -0.1154  0.0570 -0.0103
35241W        W78158   5.310  33.114  22.310  0.2125  0.0071  0.1941
35242W        W78159   3.425  34.005  24.428  0.0961 -0.2673 -0.2153
35243W        W78160   3.660  34.565  20.407  0.2008 -0.0988  0.0708
35244W        W78161   4.085  33.284  20.537 -0.0338 -0.0293  0.1656
35245W        W78162   3.689  33.570  24.690  0.1232  0.0865  0.2815
35246W        W78163   4.280  31.653  20.029  0.2448  0.2640  0.0503
35247W        W78164   5.644   0.493  20.466 -0.2026 -0.3266 -0.2650
35248W        W78165   6.706  33.125  19.897 -0.0131  0.0746  0.1006
35249W        W78166   4.731   0.048  22.072  0.3034 -0.0099  0.0890
35250W        W78167   3.905  33.119  21.013 -0.2589 -0.1380 -0.3781
35251W        W78168   5.963   0.340  20.038 -0.3200  0.0828 -0.0961
35252W        W78169   3.599  33.694  21.709  0.0286  0.0324 -0.2228
35253W        W78170   7.481  33.499  22.678  0.0329  0.1068  0.0619
35254W        W78171   4.940   1.332  19.792 -0.1254 -0.1355  0.1254
35255W        W78172   4.366  33.777  24.899  0.2914  0.5912 -0.0444
35256W        W78173   4.365  34.477  21.304  0.1724  0.0241  0.1027
35257W        W78174   7.788  31.275  19.438  0.0149  0.3573 -0.1572
35258W        W78175   3.097   0.594  22.833  0.0161 -0.2039  0.1166
35259W        W78176   6.386   0.178  18.154  0.0685  0.1706 -0.0087
35260W        W78177   5.840  34.175  23.658 -0.0082  0.1587 -0.0403
35261W        W78178   5.405   0.957  18.991  0.2099  0.0243 -0.0046
35262W        W78179   5.644   2.053  19.543  0.3914 -0.0657 -0.2184
35263W        W78180   2.798  34.167  22.882 -0.0793  0.0134  0.2380
35264W        W78181   3.444   0.524  19.550  0.2118 -0.0027 -0.1941
35265W        W78182   4.163   0.732  19.099 -0.2340  0.1661  0.2563
35266W        W78183   5.736   1.018  22.950  0.4356 -0.4189  0.0324
35267W        W78184   3.729  34.411  24.630  0.2160  0.3037  0.2448
35268W        W78185   7.320  34.288  19.715  0.3669 -0.3410  0.0553
35269W        W78186   4.098  33.331  24.904 -0.4049  0.0473 -0.0746
35270W        W78187   4.916  33.956  23.465  0.3183  0.2086  0.2259
35271W        W78188   6.745  33.765  24.925 -0.0335 -0.2528 -0.1102
35272W        W78189   4.922  34.466  25.441  0.1979 -0.2025 -0.3322
35273W        W78190   4.324  32.939  27.499 -0.2113  0.1773 -0.0318
35274W        W78191   4.979  32.993  23.280 -0.0954 -0.3390 -0.0671
35275W        W78192   5.525  32.343  26.109  0.0175 -0.1289  0.2577
35276W        W78193   5.277  31.210  24.420  0.1264  0.1199 -0.0385
35277W        W78194   4.702  31.498  24.991  0.0930 -0.2247 -0.0898
35278W        W78195   6.349   0.487  26.275  0.2702 -0.2613  0.0338
35279W        W78196   3.714   0.453  27.898 -0.2776  0.3821 -0.3257
35280W        W78197   4.712  32.519  27.482  0.1672 -0.1105  0.2077
35281W        W78198   3.523  33.992  24.973 -0.1045 -0.1433  0.0871
35282W        W78199   3.096  33.162  25.658 -0.0556 -0.1742 -0.1337
35283W        W78200   5.772  34.469  27.177 -0.1356 -0.3188 -0.0238
35284W        W78201   4.541  34.637  25.198  0.3373  0.1870 -0.0930
35285W        W78202   4.648  33.844  26.204  0.1925  0.4694 -0.1149
35286W        W78203   5.322  34.043  26.507  0.3440 -0.1606 -0.0054
35287W        W78204   7.381  34.139  23.368 -0.2572  0.1953  0.1791
35288W        W78205   6.394   0.940  26.039 -0.4859  0.3348 -0.1246
35289W        W78206   6.792  34.077  25.513  0.3757 -0.0134  0.1376
35290W        W78207   5.333   0.769  26.779  0.0892  0.0415  0.1767
35291W        W78208   5.779  33.945  26.508  0.0947 -0.2659 -0.0893
35292W        W78209   6.950  32.452  27.250  0.2743  0.1407  0.0843
35293W        W78210   6.164  33.290  23.478  0.4725 -0.2680 -0.0233
35294W        W78211   6.140  32.867  22.393 -0.2771 -0.2555  0.0434
35295W        W78212   7.369  33.560  25.716  0.1616 -0.0607  0.0890
35296W        W78213   4.467  32.852  24.974  0.0895 -0.1021  0.2979
35297W        W78214   5.879  32.293  27.304  0.1584  0.1489 -0.0662
35298W        W78215   5.331  33.088  25.439  0.2440 -0.2712  0.1023
35299W        W78216   4.043  33.567  28.106  0.0189 -0.1488  0.0056
35300W        W78217   4.514   0.200  26.042  0.0362 -0.0433 -0.0239
35301W        W78218   3.540  34.376  25.272  0.0736  0.1863  0.1480
35302W        W78219   5.671   0.231  28.212  0.1951  0.3532 -0.2295
35303W        W78220   3.761   0.195  29.643  0.0185  0.1315 -0.1889
35304W        W78221   6.537  31.823  23.212 -0.2005  0.0944  0.0564
35305W        W78222   7.936  33.502  27.743  0.0425  0.0443 -0.4031
35306W        W78223   6.390  34.386  25.723 -0.0871 -0.0284 -0.0112
35307W        W78224   6.099  33.674  26.149  0.0231 -0.0992  0.1525
35308W        W78225   6.811  34.148  23.412 -0.2047 -0.1949  0.1265
35309W        W78226   6.530   0.066  25.370 -0.3449 -0.3191  0.1449
35310W        W78227   3.734  34.371  23.484 -0.3116  0.0667  0.1717
35311W        W78228   6.528  32.927  26.418  0.4362 -0.0027 -0.1374
35312W        W78229   5.117   0.977  25.918 -0.2835 -0.0657  0.2214
35313W        W78230   5.609  32.732  26.925 -0.0460 -0.1582  0.2231
35314W        W78231   7.506  33.238  24.308 -0.5476  0.2512 -0.1632
35315W        W78232   2.792  33.332  27.254  0.1515  0.1825 -0.2345
35316W        W78233   4.489  34.096  25.387  0.2618  0.0896  0.0034
35317W        W78234   4.715  32.337  26.984  0.0278 -0.1852 -0.0887
35318W        W78235   2.893  31.230  24.254 -0.0482 -0.0656  0.2224
35319W        W78236   7.204  33.973  25.268 -0.0400  0.1760 -0.2950
35320W        W78237   3.420  32.491  24.289 -0.1129 -0.1425 -0.1594
35321W        W78238   7.568  32.923  25.435  0.2139  0.0273 -0.3382
35322W        W78239   4.527   1.053  24.153 -0.3021 -0.1557 -0.0797
35323W        W78240   7.546  32.953  28.719 -0.0958 -0.0736 -0.0657
35324W        W78241   4.022  34.125  26.894 -0.1054 -0.0218 -0.3663
35325W        W78242   2.851  33.843  24.465 -0.4664 -0.0692 -0.2277
35326W        W78243   5.828  34.576  22.361  0.0973 -0.0090 -0.0579
35327W        W78244   6.391  31.707  26.982  0.1565  0.3210  0.2018
35328W        W78245   7.117  32.992  24.614 -0.0121  0.0630  0.1208
35329W        W78246   3.264  34.189  23.891 -0.1788  0.0150 -0.1706
35330W        W78247   3.462   1.367  26.318  0.0935 -0.3250 -0.1128
35331W        W78248   8.859  33.058  25.592  0.0025 -0.2661  0.1542
35332W        W78249   4.355   0.601  28.800 -0.2055  0.0616  0.1494
35333W        W78250   5.783  34.370  26.219  0.0992 -0.0119  0.0422
35334W        W78251   5.803  33.152  27.087  0.1138  0.0083  0.1713
35335W        W78252   6.395  31.328  25.473 -0.1996 -0.0545 -0.4911
35336W        W78253   7.987  33.370  25.083 -0.0153  0.2681 -0.0403
35337W        W78254   5.581   0.396  24.054  0.1731 -0.2428 -0.0518
35338W        W78255   6.529  32.296  25.299 -0.2206  0.2030 -0.1048
35339W        W78256   5.646  32.865  25.875  0.1334  0.1077  0.2388
35340W        W78257   5.172  30.382  25.810  0.0009  0.0455 -0.0380
35341W        W78258   5.380  34.513  22.860 -0.1024  0.3965  0.0743
35342W        W78259   6.004  31.867  24.996  0.0158  0.3219  0.2386
35343W        W78260   7.429  32.648  26.773 -0.0085 -0.1372 -0.0815
35344W        W78261   5.999  33.006  26.664  0.3248  0.3098 -0.1193
35345W        W78262   6.177  34.214  28.618  0.0171  0.1904  0.1557
35346W        W78263   8.307   0.398  29.038 -0.2771  0.1011 -0.1750
35347W        W78264   3.791   0.158  23.313 -0.0856 -0.0544  0.0608
35348W        W78265   6.269  34.166  26.233  0.1163  0.1337 -0.0490
35349W        W78266   4.892  33.101  20.951 -0.1296 -0.0229  0.0341
35350W        W78267   6.295  33.151  27.081 -0.0773 -0.1234 -0.2866
35351W        W78268   5.680   0.446  25.595 -0.0419  0.0209 -0.0875
35352W        W78269   5.834  32.265  23.913 -0.0980  0.1028  0.3475
35353W        W78270   5.153  32.055  25.660  0.0642  0.0619 -0.1335
35354W        W78271   9.902   1.069  26.692 -0.0430 -0.0718  0.1263
35355W        W78272   4.297  33.060  22.092 -0.1712  0.2618 -0.0341
35356W        W78273   4.647  34.493  24.603 -0.0970 -0.2867  0.2498
35357W        W78274   8.179  34.308  24.442  0.4722  0.0241  0.4010
35358W        W78275   5.197  33.025  26.041 -0.0255  0.0708  0.2956
35359W        W78276   6.101  32.093  25.490  0.3504 -0.1108  0.0204
35360W        W78277   7.152   0.534  27.089 -0.1398  0.2477  0.1711
35361W        W78278   5.637  31.872  23.566 -0.0213  0.1601 -0.1256
35362W        W78279   7.493   0.435  28.269  0.1301 -0.2969  0.2362
35363W        W78280   4.481  34.043  23.029 -0.1203  0.0774  0.1541
35364W        W78281   6.306  33.920  25.264  0.0561 -0.0842 -0.2897
35365W        W78282   5.133  33.589  25.675  0.1607  0.1344 -0.1532
35366W        W78283   4.068   0.076  24.730 -0.3082 -0.2098 -0.1312
35367W        W78284   3.110  31.959  27.442 -0.3243  0.4387 -0.0404
35368W        W78285   5.629  33.416  26.418 -0.0614  0.1784  0.0592
35369W        W78286   3.578  31.759  25.350 -0.1123  0.2992  0.1756
35370W        W78287   5.931  31.506  26.009  0.1311 -0.0136  0.3015
35371W        W78288   5.416   0.343  27.825  0.1546 -0.1003 -0.3899
35372W        W78289   6.553  31.775  25.249 -0.0322 -0.0292  0.0466
35373W        W78290   8.389  34.181  27.419  0.0209 -0.3337  0.1790
35374W        W78291   7.413  34.278  27.413 -0.1312 -0.2461  0.0489
35375W        W78292   6.980  32.776  25.933  0.1826 -0.1843 -0.3352
35376W        W78293   5.114  32.797  26.806  0.3696 -0.0258  0.4655
35377W        W78294   6.396  34.024  28.140 -0.0671  0.4728 -0.3116
35378W        W78295   5.342   1.268  22.167 -0.1634 -0.1429  0.0549
35379W        W78296   7.265  31.644  27.377  0.0432 -0.1493  0.1395
35380W        W78297   6.006  32.627  26.322  0.0610  0.1778  0.1793
35381W        W78298   5.433  31.692  26.157 -0.1448 -0.2244  0.0437
35382W        W78299   5.621  33.878  29.337 -0.0285  0.2114  0.2292
35383W        W78300   4.575  34.401  24.086 -0.3533 -0.4228  0.0239
35384W        W78301   4.312  34.369  22.675 -0.0407 -0.3002  0.4110
35385W        W78302   5.457   0.268  26.652  0.1704 -0.1879  0.0195
35386W        W78303   8.706  31.220  24.564  0.4361 -0.0615  0.2320
35387W        W78304   5.547   0.750  27.455  0.2247  0.1566  0.1774
35388W        W78305   5.979  32.863  24.223 -0.1651  0.1893 -0.3466
35389W        W78306   5.622  32.347  26.582  0.3789 -0.0115 -0.2316
35390W        W78307   6.768  31.378  26.981 -0.3813  0.2687  0.1899
35391W        W78308   7.595  33.130  26.408 -0.2711  0.0298  0.1009
35392W        W78309   6.778   2.681  25.036  0.0201 -0.2712  0.1210
35393W        W78310   4.229   1.023  28.470  0.1099  0.0389  0.2318
35394W        W78311   4.293  33.898  28.547  0.0842 -0.2875  0.2010
35395W        W78312   7.097  33.789  22.485 -0.0529  0.0998 -0.2099
35396W        W78313   7.218  34.011  25.817 -0.1826  0.2894 -0.1990
35397W        W78314   8.098  33.688  24.651 -0.0082 -0.0428 -0.3233
35398W        W78315   4.014  33.015  22.909 -0.1437  0.0399  0.1219
35399W        W78316   4.447  33.811  26.796  0.1877 -0.0463 -0.0857
35400W        W78317   5.237  34.663  28.670  0.3063  0.3167  0.1917
35401W        W78318   3.994  33.148  24.444  0.1897  0.0057 -0.1684
35402W        W78319   7.259  34.307  26.550  0.1049 -0.1353 -0.1565
35403W        W78320   5.860  34.173  25.720 -0.1576  0.0713 -0.0219
35404W        W78321   2.234  34.451  25.674 -0.1397  0.0941  0.0512
35405W        W78322   3.695   0.397  24.512 -0.1201  0.1186  0.0938
35406W        W78323   3.993  31.863  24.569  0.0906  0.3541  0.0319
35407W        W78324   8.114  33.019  25.606 -0.1577  0.1950 -0.1070
35408W        W78325   6.999  32.688  26.489 -0.0441  0.0434 -0.0251
35409W        W78326   6.370  30.939  26.451  0.1209 -0.0321  0.0635
35410W        W78327   6.647  32.358  26.252  0.1148 -0.0564  0.0449
35411W        W78328   8.434   0.969  25.388  0.2177 -0.0272 -0.0739
35412W        W78329   5.652   0.134  26.033 -0.0529  0.2015 -0.0098
35413W        W78330   8.307  32.807  26.842 -0.0716  0.2332  0.0617
35414W        W78331   3.477   0.265  25.374 -0.0889  0.0490  0.1064
35415W        W78332   3.473  33.717  27.180 -0.0093 -0.0687 -0.2816
35416W        W78333   3.590  32.530  25.082 -0.0769 -0.0674  0.0737
35417W        W78334   5.105  34.143  22.353  0.2570  0.2441 -0.2322
35418W        W78335   5.811  31.714  23.992  0.1066 -0.0697  0.1616
35419W        W78336   6.686  34.633  26.161 -0.3413  0.0577  0.3428
35420W        W78337   8.073  31.812  24.169  0.0987  0.2125  0.1461
35421W        W78338   5.587  32.926  26.392 -0.0387  0.2206  0.0235
35422W        W78339   6.037  32.037  23.335  0.2203  0.0087 -0.2228
35423W        W78340   4.783  32.960  27.180 -0.0734  0.1489  0.0836
35424W        W78341   7.974  33.212  27.316  0.0310  0.1724 -0.3168
35425W        W78342   3.190  33.714  24.777  0.0560 -0.2848 -0.0264
35426W        W78343   5.096  32.619  25.642 -0.1994  0.0552 -0.0853
35427W        W78344   7.584  33.730  27.508  0.1694 -0.1068 -0.3273
35428W        W78345   5.255   0.219  25.558 -0.2271  0.1283 -0.1133
35429W        W78346   3.258  32.203  25.362 -0.2128 -0.1168  0.0754
35430W        W78347   6.773   1.638  23.160  0.0363 -0.1051 -0.2055
35431W        W78348   4.163  33.982  26.390  0.0388 -0.0046 -0.2856
35432W        W78349   7.734  33.548  27.036 -0.2422 -0.1520  0.0120
35433W        W78350   4.023  34.524  25.211 -0.2199  0.1682  0.0851
35434W        W78351   6.826  34.036  24.540  0.1360  0.0842  0.2709
35435W        W78352   2.878  34.178  24.881 -0.0706  0.1494  0.1550
35436W        W78353   4.232   0.445  22.075  0.2768  0.1088  0.3128
35437W        W78354   6.323   0.552  26.972  0.2104  0.1776  0.0408
35438W        W78355   6.234   0.877  21.351 -0.0453 -0.1890 -0.0499
35439W        W78356   4.250  33.115  25.384 -0.1042  0.1796  0.0783
35440W        W78357   5.325  33.975  22.829  0.4007  0.1409 -0.0760
35441W        W78358   3.378   0.814  26.159  0.1018  0.1443  0.0908
35442W        W78359   4.519  32.782  26.748  0.0581 -0.0280 -0.0790
35443W        W78360   4.005  31.303  24.430  0.0146  0.1390 -0.3858
35444W        W78361   5.382  33.197  26.762 -0.0754  0.2048  0.0054
35445W        W78362   7.378   0.163  24.933  0.1304  0.0158 -0.0864
35446W        W78363   4.804  33.373  26.055 -0.2496  0.0482  0.0730
35447W        W78364   3.935  32.654  24.307 -0.0752 -0.1245 -0.1389
35448W        W78365   5.235  33.154  27.216 -0.1592  0.1497  0.1110
35449W        W78366   6.352  33.388  25.069 -0.1869  0.0914  0.0208
35450W        W78367   7.135   0.048  27.399 -0.1614  0.0937  0.0810
35451W        W78368   7.887  32.444  26.976 -0.1716 -0.4962  0.0560
35452W        W78369   5.458  32.128  27.011  0.0268 -0.0729 -0.1329
35453W        W78370   4.647  33.707  25.720  0.0980  0.1895 -0.0216
35454W        W78371   8.095  33.014  24.560  0.1986  0.2111  0.1706
35455W        W78372   4.925  31.448  26.859  0.3251 -0.0415 -0.0178
35456W        W78373   6.786   0.612  26.670 -0.0862  0.1721  0.1226
35457W        W78374   4.197  34.416  24.351 -0.1223  0.2307 -0.0931
35458W        W78375   6.724  33.538  28.056 -0.0747  0.2024 -0.0596
35459W        W78376   3.094  33.762  26.444  0.1049 -0.1458  0.3411
35460W        W78377   3.655   0.081  24.963  0.0368 -0.2364 -0.1513
35461W        W78378   6.012  33.252  25.388 -0.2833 -0.0091 -0.3598
35462W        W78379   4.271  32.950  25.864 -0.4007 -0.0740 -0.1063
35463W        W78380   2.410  33.202  25.383  0.0533  0.1832 -0.2070
35464W        W78381   3.968  33.974  24.576 -0.3490  0.0039  0.2854
35465W        W78382   5.478   0.476  28.628 -0.0072 -0.1277  0.1583
35466W        W78383   6.455  33.868  25.867 -0.1616  0.1470  0.1748
35467W        W78384   3.611  33.167  21.554  0.2225 -0.1803 -0.2322
35468W        W78385   5.748  34.624  27.805  0.0535  0.0695  0.0218
35469W        W78386   4.487  30.610  27.002 -0.0383  0.5345  0.4201
35470W        W78387   8.117  34.019  26.518  0.0537  0.0916  0.1377
35471W        W78388   5.488  33.610  25.315  0.1161 -0.2080  0.3060
35472W        W78389   5.182  32.880  28.957  0.0932 -0.1355 -0.2780
35473W        W78390   4.832  33.571  24.695  0.0160 -0.0993 -0.0125
35474W        W78391   6.655  32.907  25.023 -0.1339  0.1021  0.3537
35475W        W78392   3.001  34.467  26.083 -0.0936  0.1939  0.1167
35476W        W78393   6.024  34.399  24.707 -0.1445 -0.3322 -0.0193
35477W        W78394   7.945  34.102  27.550 -0.1545  0.0992  0.3402
35478W        W78395   3.758  33.683  24.157 -0.2569  0.3589 -0.0035
35479W        W78396   6.523  33.779  23.647  0.3378  0.2586  0.0290
35480W        W78397   4.695  32.378  25.910  0.1043  0.1136  0.2939
35481W        W78398   4.781   1.325  24.489 -0.3521 -0.0590  0.0628
35482W        W78399   5.313  34.658  26.309  0.2799 -0.0609 -0.0976
35483W        W78400   7.850  34.390  26.736  0.0353  0.0037  0.0284
35484W        W78401   4.590  33.770  27.912 -0.1183  0.1807  0.1962
35485W        W78402   4.752  32.293  24.899  0.0640 -0.0491 -0.2507
35486W        W78403   5.911  32.073  26.322 -0.0356  0.0863 -0.4703
35487W        W78404   6.964   0.068  26.599  0.2220 -0.2626  0.0836
35488W        W78405   7.030  34.295  28.399  0.2809  0.0352 -0.2815
35489W        W78406   2.861  32.971  29.301  0.2706 -0.3635 -0.3065
35490W        W78407   6.328  32.459  31.298  0.0451  0.0144 -0.0177
35491W        W78408   6.607   1.029  27.007  0.3237  0.0059 -0.0882
35492W        W78409   6.471  32.017  30.711  0.0771  0.2417 -0.0207
35493W        W78410   5.940  32.675  27.966  0.0978 -0.2631  0.0456
35494W        W78411   3.629  31.092  29.239  0.0330  0.0948  0.1602
35495W        W78412   6.255   0.203  29.790  0.3124 -0.2490 -0.0209
35496W        W78413   4.879  34.092  27.600  0.0526 -0.1540  0.1119
35497W        W78414   7.523  32.875  29.851 -0.0270 -0.3227 -0.0198
35498W        W78415   6.091  32.460  29.333 -0.2557  0.1538 -0.1045
35499W        W78416   6.848  33.875   0.924 -0.5220 -0.0180  0.3034
35500W        W78417   6.321  33.413  30.769 -0.3419 -0.3363  0.1629
35501W        W78418   4.258  34.015  27.461  0.0013 -0.2224 -0.0844
35502W        W78419   5.357  33.477  29.030 -0.0586  0.2449 -0.2028
35503W        W78420   5.305  34.429  29.993  0.3357 -0.1544  0.3466
35504W        W78421   7.349  33.108  26.931  0.2724 -0.0531  0.0878
35505W        W78422   5.917  34.321  29.092 -0.2666  0.0013 -0.2509
35506W        W78423   6.608   0.012   0.334  0.1911 -0.0272  0.1144
35507W        W78424   5.418  32.773  28.108  0.0301  0.1146  0.0400
35508W        W78425   7.782  32.128  30.043 -0.0428 -0.0712  0.0850
35509W        W78426   9.099  31.482   0.705 -0.2332  0.1420  0.1576
35510W        W78427   7.309   1.012  26.250 -0.0607  0.1540  0.1208
35511W        W78428   6.199  33.655  27.186 -0.1013  0.0429  0.3505
35512W        W78429   6.722  34.304  26.674 -0.1481 -0.0567 -0.1293
35513W        W78430   5.217  31.990  29.349  0.0205  0.1138  0.2578
35514W        W78431   7.779  33.349  30.641  0.2690  0.0575 -0.0988
35515W        W78432   4.793  34.152  29.234  0.0727  0.1730 -0.1024
35516W        W78433   6.652  32.524  30.884 -0.0147 -0.0393 -0.2585
35517W        W78434   4.753  32.590  28.463  0.2327 -0.0260 -0.0249
35518W        W78435   5.281  33.083  29.448  0.0896  0.1167 -0.2018
35519W        W78436   4.849  33.683  31.757 -0.1752 -0.1722  0.2092
35520W        W78437   5.071  32.529  30.813  0.3267  0.1987  0.2956
35521W        W78438   3.107  30.629  27.444  0.2808  0.2528 -0.3536
35522W        W78439   7.064  32.594  28.978 -0.1745 -0.1020 -0.1937
35523W        W78440   8.308  32.254  30.025  0.1873  0.2987  0.0171
35524W        W78441   6.773  33.690  29.008 -0.2058 -0.0224 -0.0865
35525W        W78442   5.711   0.896  25.322 -0.0701  0.1100  0.2413
35526W        W78443   6.579   0.238  29.474 -0.1381  0.2738  0.0010
35527W        W78444   6.154  34.129  30.391  0.0058  0.0872 -0.1054
35528W        W78445   8.557  32.381  27.587  0.2758  0.2092 -0.2436
35529W        W78446   4.604  32.807  30.800 -0.1604  0.2506 -0.4548
35530W        W78447   8.096  33.502  29.367 -0.2584 -0.3001  0.3041
35531W        W78448   8.353  34.669  27.152 -0.3218  0.3080 -0.0336
35532W        W78449   4.976  32.423  28.945  0.1468 -0.1757 -0.1316
35533W        W78450   4.050  30.925  29.171 -0.1059  0.3053  0.0133
35534W        W78451   7.241  31.304   0.237 -0.2910 -0.1484  0.1070
35535W        W78452   6.419  32.316  30.265 -0.1558  0.1167 -0.2495
35536W        W78453   7.745  32.654  31.139  0.0120  0.1139  0.1770
35537W        W78454   6.995  31.966  28.085  0.4637  0.0803  0.0604
35538W        W78455   7.433  34.126  28.659  0.0845  0.2447 -0.1367
35539W        W78456   5.706  34.105  27.988  0.1820  0.0004  0.0221
35540W        W78457   7.937  33.234   0.259  0.0404 -0.1043 -0.1514
35541W        W78458   6.316  33.665  29.897  0.1133  0.0791 -0.0157
35542W        W78459   6.157  31.960  29.407  0.1605  0.0203  0.0930
35543W        W78460   6.125  33.290  27.569  0.0650 -0.4011  0.0601
35544W        W78461   7.658  34.394   0.980  0.1985  0.0207  0.0619
35545W        W78462   6.975  33.907  30.018 -0.3376  0.1481 -0.0926
35546W        W78463   4.550  31.666  27.431 -0.0057  0.0950 -0.0694
35547W        W78464   7.687  33.849  28.068 -0.2032 -0.4075 -0.2829
35548W        W78465   6.324  33.931  29.018 -0.1833 -0.0995 -0.0486
35549W        W78466   5.218  33.946  31.489 -0.0642 -0.0036  0.1570
35550W        W78467   8.521  34.494  30.391  0.0244  0.1257 -0.0154
35551W        W78468   6.670  33.443  26.910  0.0773  0.0166 -0.0354
35552W        W78469   7.876  33.555  26.572  0.3651 -0.4093 -0.0657
35553W        W78470   7.854  33.000  26.902 -0.2493  0.3146  0.0583
35554W        W78471   6.266   0.112  27.357 -0.2397 -0.2507  0.0589
35555W        W78472   6.073   0.076  28.484 -0.0698  0.1727 -0.2371
35556W        W78473   6.631  32.835  29.209 -0.0936  0.0868  0.1037
35557W        W78474   7.165  32.203  30.963  0.0341 -0.0874  0.0913
35558W        W78475   7.250  33.664  28.970 -0.1881 -0.4218  0.1572
35559W        W78476   6.663  33.635  30.299  0.1469 -0.0215  0.1057
35560W        W78477   8.471  34.332  29.919  0.1482 -0.0979 -0.0311
35561W        W78478   5.618  32.349  29.981 -0.0780 -0.0418  0.1273
35562W        W78479   6.087  34.332   0.538 -0.2254  0.1994  0.2981
35563W        W78480   7.856  33.831  30.356  0.3681  0.0995 -0.0594
35564W        W78481   5.927  32.128  27.812 -0.0618 -0.0503 -0.2537
35565W        W78482   8.288  33.982  28.577 -0.1786 -0.0469 -0.1327
35566W        W78483   4.248  32.221  26.686 -0.1405 -0.0396  0.0810
35567W        W78484   7.229  33.853  31.257 -0.3020  0.1988  0.0315
35568W        W78485   6.370  33.224  30.147  0.1063 -0.0206 -0.1375
35569W        W78486   5.345  34.587  27.433  0.0883 -0.0130 -0.0881
35570W        W78487   4.697  32.836  28.862  0.0329  0.0680 -0.0757
35571W        W78488   8.022  31.704  30.691 -0.0241  0.2991  0.2794
35572W        W78489   5.812  33.619  28.946  0.3166 -0.0325  0.0097
35573W        W78490   2.915  33.703  28.888 -0.0866 -0.1431  0.0310
35574W        W78491   8.508  32.182  28.633 -0.0711 -0.2466  0.0713
35575W        W78492   4.869  33.444  30.887  0.2845  0.1249 -0.0411
35576W        W78493   6.646  33.921  28.587 -0.0165  0.0020 -0.0985
35577W        W78494   6.604  33.023  29.727 -0.1126 -0.2275 -0.1125
35578W        W78495   6.881  33.971  27.999  0.4418 -0.1163 -0.0695
35579W        W78496   6.253   0.151  29.050 -0.0105 -0.0311 -0.1853
35580W        W78497   5.027  32.881  27.641 -0.2446 -0.0610  0.1579
35581W        W78498   9.920  34.571  30.875 -0.3019 -0.1617  0.0990
35582W        W78499   4.333  32.101  27.227 -0.1118 -0.2238 -0.1486
35583W        W78500   4.249  32.466  27.603 -0.0375 -0.1501  0.2562
35584W        W78501   7.370  32.139  31.890  0.0842  0.2354  0.0826
35585W        W78502   5.532  32.927  27.525  0.0172  0.2533 -0.0766
35586W        W78503   4.899  33.085  26.471  0.0547 -0.2546  0.0990
35587W        W78504   6.271  34.180  29.910  0.0160 -0.0884  0.1659
35588W        W78505   5.142  32.982  30.579  0.3275 -0.0066  0.3606
35589W        W78506   6.451  31.797  30.149  0.0023  0.0285 -0.0482
35590W        W78507   7.096  34.309  31.025 -0.0497  0.1993  0.2258
35591W        W78508   6.716   1.010  28.841 -0.1423  0.2537 -0.0609
35592W        W78509   6.673  30.346  27.644 -0.3330 -0.1905  0.0904
35593W        W78510   7.712  33.231  29.472 -0.2033  0.0208  0.2933
35594W        W78511   7.380  32.983  31.339  0.1971  0.1644  0.1546
35595W        W78512   6.197  33.670  28.527 -0.5584  0.0156  0.0097
35596W        W78513   8.457  31.569  31.501 -0.1125  0.0264 -0.1018
35597W        W78514   4.342  32.696  29.247  0.1375 -0.1032 -0.0498
35598W        W78515   6.872  33.668  30.809  0.0598  0.0044 -0.0265
35599W        W78516   5.111  33.772  30.538  0.1326 -0.0207 -0.0749
35600W        W78517   7.496  33.176  27.541 -0.1871 -0.0467  0.1370
35601W        W78518   4.246  32.657  26.294 -0.0733  0.1958  0.1057
35602W        W78519   5.883  34.576  29.980  0.1458  0.3161  0.0077
35603W        W78520   6.893  33.028  27.737  0.4603 -0.0106  0.0511
35604W        W78521   4.731   0.352  29.962 -0.1236 -0.0486  0.1591
35605W        W78522   7.279  33.607  30.227  0.1664 -0.0756 -0.0898
35606W        W78523   6.767  33.447  29.790  0.1945 -0.3663  0.0975
35607W        W78524   5.937   0.082  29.417  0.1866 -0.1704  0.2939
35608W        W78525   6.397  31.338  30.906 -0.2362 -0.1607 -0.0418
35609W        W78526   7.411  33.977   0.144 -0.1286  0.2406 -0.0884
35610W        W78527   9.216  34.031  30.773 -0.1381 -0.1535 -0.0736
35611W        W78528   4.470  31.872  31.293  0.2982 -0.4233 -0.1061
35612W        W78529   6.682  32.508  27.918 -0.1765  0.3126  0.2200
35613W        W78530   6.759  32.356  31.794  0.2258  0.2212  0.2147
35614W        W78531   5.568  33.461  27.374 -0.1536  0.2823  0.0565
35615W        W78532   5.996  34.258  27.578  0.0758  0.1235  0.0660
35616W        W78533   4.451  33.327  30.009 -0.0227 -0.1816  0.0165
35617W        W78534   7.130  32.452  30.018  0.0174  0.0366  0.0259
35618W        W78535   4.739  32.439  26.429 -0.0091 -0.0328  0.1194
35619W        W78536   8.459  32.561  29.591 -0.1693 -0.4604 -0.0379
35620W        W78537   6.081  33.225  28.895  0.0677  0.0615 -0.2391
35621W        W78538   6.066  34.425  28.140  0.3715 -0.2177  0.1355
35622W        W78539   3.348  31.555  26.752  0.1246 -0.0374 -0.0103
35623W        W78540   6.053   0.612  28.897  0.3992 -0.0194  0.1007
35624W        W78541   7.771  32.632  28.284  0.3643  0.0010 -0.2219
35625W        W78542   8.243   1.961  31.017  0.2161  0.0061  0.2875
35626W        W78543   5.233  32.449  30.351 -0.0362 -0.2611  0.0493
35627W        W78544   7.113  32.811  30.481  0.0761 -0.0545  0.1742
35628W        W78545   7.444  31.634  31.701  0.3727 -0.0808  0.0417
35629W        W78546   6.741   0.235  27.036 -0.0525 -0.1294  0.2979
35630W        W78547  10.112  33.595  30.704  0.1829 -0.3671  0.0185
35631W        W78548   6.878  33.245  29.324 -0.2155  0.1492 -0.0601
35632W        W78549   4.192  34.105  30.511  0.2450 -0.2013 -0.0465
35633W        W78550   6.720  33.427  28.533 -0.2109 -0.0959  0.2034
35634W        W78551   5.580  34.441  26.703 -0.1116  0.0434  0.2522
35635W        W78552   6.893  31.738  26.525  0.0873  0.0294  0.0270
35636W        W78553   8.358  33.914  29.082  0.1690 -0.4830  0.0564
35637W        W78554   7.668  32.794  27.281  0.3357 -0.0221  0.1874
35638W        W78555   5.279  34.103  29.028  0.2583 -0.1281 -0.0217
35639W        W78556   6.797  34.118  26.146  0.1193 -0.0901  0.3488
35640W        W78557   6.675  31.250   1.610  0.2105  0.0389  0.2563
35641W        W78558   7.424  33.190   0.043 -0.1676  0.1096 -0.1203
35642W        W78559   5.136  32.281  26.689  0.3515 -0.0504  0.1070
35643W        W78560   5.511  34.517  29.326  0.1409 -0.2337 -0.0093
35644W        W78561   8.448  34.412  31.055 -0.0172  0.4567  0.0883
35645W        W78562   6.291  33.147  28.433  0.2460 -0.2060 -0.1000
35646W        W78563   5.001  31.981  28.052 -0.3868  0.0814 -0.0623
35647W        W78564   8.113  33.072  29.714  0.0983 -0.0911  0.0165
35648W        W78565   5.595   0.548  31.335  0.0509 -0.0306  0.4210
35649W        W78566   7.666  33.491  31.118  0.2417 -0.3428 -0.2494
35650W        W78567   4.962   0.040  30.245 -0.1073  0.2293 -0.1419
35651W        W78568   8.800  31.806  28.389 -0.3441 -0.0002  0.1075
35652W        W78569   5.400  33.540  31.762 -0.1096 -0.2789  0.3264
35653W        W78570   6.017   0.892  27.512  0.0541  0.3667  0.0730
35654W        W78571   8.316  33.993  30.194 -0.1152 -0.1504  0.2023
35655W        W78572   5.883   1.151  26.226 -0.0292  0.1057 -0.1953
35656W        W78573   5.419  32.515  28.738  0.1245 -0.1372 -0.3244
35657W        W78574   6.352  32.961  27.916 -0.2298 -0.0574  0.0683
35658W        W78575   5.749   0.089  28.911  0.2452 -0.2001 -0.0536
35659W        W78576   7.382   0.343  30.889  0.1762 -0.1947  0.3032
35660W        W78577   5.289  33.676  28.528 -0.1613 -0.0997  0.1089
35661W        W78578   7.431   0.523  30.297 -0.0482  0.2756 -0.3780
35662W        W78579   7.359  34.650  27.862  0.1714  0.1182 -0.0759
35663W        W78580   5.694  32.743  29.550  0.0305  0.0070  0.0851
35664W        W78581   7.159  33.762  28.398 -0.1116  0.1753 -0.0446
35665W        W78582   5.927  32.394  28.570  0.2021  0.1005 -0.0015
35666W        W78583   7.335   1.475  28.097 -0.0829 -0.0114 -0.2176
35667W        W78584   7.301  31.693   1.089  0.0295 -0.2166  0.1188
35668W        W78585   7.841  30.206  30.255  0.0985 -0.3464  0.3218
35669W        W78586   5.830  33.148  27.965  0.0842 -0.2260  0.2137
35670W        W78587   5.880  31.917  29.982  0.0576  0.0383  0.1381
35671W        W78588   9.038  32.245  28.536 -0.0807  0.2747  0.1355
35672W        W78589  10.290  31.076  27.739  0.3999  0.1976  0.1896
35673W        W78590   5.825   0.937   0.361 -0.2893  0.0319 -0.4203
35674W        W78591   3.909  32.466  27.991  0.0812  0.1996 -0.0554
35675W        W78592   7.668  30.912  31.238  0.1183  0.1487 -0.0798
35676W        W78593   4.465  32.245  30.949  0.1881  0.1717 -0.2231
35677W        W78594   5.832  33.796  29.971  0.1593  0.2397  0.1621
35678W        W78595   5.769  32.850  28.464 -0.1203  0.2630  0.1661
35679W        W78596   6.212  32.803  30.352  0.1554 -0.1398 -0.2142
35680W        W78597   4.888  32.028  31.575  0.3979 -0.1330 -0.0226
35681W        W78598   5.827  31.622  27.118  0.0917  0.0968  0.0204
35682W        W78599   7.722  33.605  31.947 -0.2196 -0.0528 -0.1817
35683W        W78600   4.642  33.974   0.444  0.0880  0.1317  0.1824
35684W        W78601   4.010  32.232  28.610 -0.0882 -0.2659  0.1372
35685W        W78602   6.558  33.255  28.969 -0.2726  0.1546  0.0719
35686W        W78603   5.886  32.173  29.003  0.1666 -0.4309  0.0913
35687W        W78604   8.278  32.560  29.028 -0.3056 -0.1713  0.0110
35688W        W78605   7.270  33.760  29.580 -0.2145  0.0428 -0.1452
35689W        W78606   2.938  34.168  30.339 -0.1803 -0.1267  0.1125
35690W        W78607   6.108  33.897  29.477 -0.3458 -0.1176  0.2497
35691W        W78608   8.375  32.784  27.840  0.0514 -0.1426 -0.1328
35692W        W78609   6.243  31.099  31.368 -0.3159  0.0426  0.0211
35693W        W78610   5.880  33.255  29.826  0.1373 -0.0789  0.1345
35694W        W78611   6.968  34.640  29.451 -0.3426 -0.0324 -0.1443
35695W        W78612   6.300  34.201  27.178 -0.0560 -0.0150 -0.0431
35696W        W78613   7.687  33.722  28.538  0.1540 -0.0634  0.1799
35697W        W78614   5.404  33.074   0.005 -0.2648 -0.5399  0.2103
35698W        W78615   4.198   0.201  29.195 -0.3714  0.0603  0.3889
35699W        W78616   4.932  32.165  28.527 -0.0704 -0.3707 -0.0444
35700W        W78617   6.168  32.921  30.935  0.0178  0.0751  0.1072
35701W        W78618   5.815  33.377  28.400 -0.0333  0.2941 -0.0741
35702W        W78619   6.316  32.372  27.597 -0.0353 -0.2126  0.0608
35703W        W78620   5.002  33.222  31.708 -0.0126 -0.1252  0.1197
35704W        W78621   4.871  32.502  31.805  0.4488 -0.1694 -0.1025
35705W        W78622   4.809  34.452   1.916 -0.1049 -0.2450 -0.0045
35706W        W78623   6.601  33.419  31.773 -0.0236  0.0480  0.2177
35707W        W78624   5.668  33.726  31.416 -0.0385  0.0192  0.2290
35708W        W78625   6.698  34.469  29.804  0.0993 -0.0420 -0.0222
35709W        W78626   6.322  31.114  30.397 -0.1698  0.0114 -0.1892
35710W        W78627   6.644   1.681  31.742  0.0587 -0.0544  0.1109
35711W        W78628   2.971  32.402   0.496 -0.1232 -0.0859 -0.1177
35712W        W78629   3.918  34.330   0.952 -0.1907  0.2883 -0.0623
35713W        W78630   5.968  32.821  31.361 -0.0189  0.3812  0.2810
35714W        W78631   9.123   1.037  30.092 -0.0367  0.0057 -0.1851
35715W        W78632   7.281  33.493   1.486  0.3046  0.1917  0.1077
35716W        W78633   7.841   0.600   0.153  0.1102 -0.0114  0.0494
35717W        W78634   6.705  34.181  31.354 -0.1233 -0.1642  0.1665
35718W        W78635   6.152  33.603  30.366  0.2281 -0.2918  0.3267
35719W        W78636   6.092  33.948  31.275 -0.1112 -0.0261 -0.0189
35720W        W78637   5.046  32.944  29.946  0.0332 -0.1870 -0.2429
35721W        W78638   4.714  33.352   0.141 -0.0010 -0.2488 -0.1148
35722W        W78639   5.289  31.269   1.514 -0.0879  0.3156 -0.0873
35723W        W78640   7.240   1.044  31.089 -0.0486  0.1075 -0.5079
35724W        W78641   7.224   0.213  31.393  0.1723 -0.0504  0.1361
35725W        W78642   6.256  33.435   0.238 -0.0343 -0.2045  0.0603
35726W        W78643   6.392  32.928   2.243  0.2429  0.2836 -0.1642
35727W        W78644   5.050  32.097   0.294  0.0254 -0.1757 -0.1400
35728W        W78645   5.544  33.327  30.209  0.0596 -0.0146 -0.2073
35729W        W78646   5.723  32.604   1.607 -0.2260 -0.0665 -0.0338
35730W        W78647   7.844  33.370   0.765 -0.0655 -0.2125  0.0736
35731W        W78648   4.759  33.495   0.625  0.2028 -0.0737  0.4139
35732W        W78649   6.663  33.092  31.056 -0.0341 -0.1584 -0.4601
35733W        W78650   6.902   0.630   1.370  0.2691  0.3908  0.1233
35734W        W78651   3.709  34.174  30.477 -0.0100 -0.0265  0.0207
35735W        W78652   2.264  33.213  31.080 -0.3718  0.1159  0.1098
35736W        W78653   7.241  33.925   0.663  0.0852 -0.2473 -0.1040
35737W        W78654   7.808   2.646  19.010 -0.2822 -0.0528  0.2728
35738W        W78655   7.676   0.402  16.675 -0.1069  0.1423 -0.1472
35739W        W78656   9.815   1.461  14.341 -0.1977 -0.1929 -0.1578
35740W        W78657  11.615   1.586  16.205 -0.0783  0.2029 -0.2150
35741W        W78658   5.932   0.266  18.409  0.0265  0.0309 -0.0235
35742W        W78659  10.244   2.672  16.194 -0.1962 -0.3465  0.1227
35743W        W78660   7.969   0.980  16.131  0.1130  0.4098  0.0992
35744W        W78661   9.422   2.710  17.730  0.0728  0.1454  0.0391
35745W        W78662  10.738   2.885  16.415  0.0778 -0.1699  0.3536
35746W        W78663   9.980  34.043  14.714  0.3231 -0.1010  0.1229
35747W        W78664   9.785  34.023  17.905  0.0497  0.1018 -0.1611
35748W        W78665   7.392   1.853  18.627 -0.0574 -0.0291  0.2027
35749W        W78666   8.364  34.433  14.313  0.1283 -0.0332  0.1157
35750W        W78667   6.004  32.553  17.456  0.1099  0.1008  0.1319
35751W        W78668  10.171   2.049  16.561 -0.3916 -0.0855  0.0034
35752W        W78669  10.062   3.753  15.439 -0.3881  0.0829  0.0953
35753W        W78670   7.779   0.135  17.652 -0.3745 -0.2069 -0.3285
35754W        W78671   8.821  33.995  15.046  0.1552 -0.1542 -0.0244
35755W        W78672   9.273   3.911  17.542 -0.1710  0.0576  0.1848
35756W        W78673   8.127   1.886  18.166 -0.1109 -0.1861  0.1263
35757W        W78674   8.326  33.749  19.402  0.3240 -0.1657  0.3158
35758W        W78675   8.213   2.456  15.236 -0.1659  0.1130 -0.1387
35759W        W78676   8.737   0.175  16.020  0.3090 -0.0507 -0.0323
35760W        W78677   7.458   1.752  17.508 -0.4197  0.0467 -0.2029
35761W        W78678   9.984   0.965  16.004  0.1411 -0.1308  0.0741
35762W        W78679   9.880  34.448  15.871  0.2111  0.1344 -0.0830
35763W        W78680   8.871   2.283  14.252 -0.0225 -0.4180 -0.0071
35764W        W78681  10.642   3.817  16.092  0.2935  0.3002 -0.0311
35765W        W78682  10.479   1.239  15.833  0.0753  0.3437 -0.0973
35766W        W78683  11.758  34.673  18.293 -0.0718 -0.0795 -0.1473
35767W        W78684   7.241   1.133  15.979 -0.1386 -0.2917  0.2193
35768W        W78685   6.924   3.241  16.480 -0.2092  0.1628 -0.1982
35769W        W78686   8.427   2.008  16.617 -0.0848 -0.2400  0.2369
35770W        W78687  11.126   1.662  16.182 -0.2621 -0.1793 -0.0124
35771W        W78688  11.610   2.771  18.807 -0.0214  0.0222 -0.0096
35772W        W78689   7.344   3.233  17.816  0.0099  0.1601 -0.0456
35773W        W78690   7.765   2.387  15.426 -0.0550 -0.1963  0.2123
35774W        W78691  10.020   4.906  18.423  0.1709  0.1431  0.3289
35775W        W78692   7.679   1.594  18.273  0.0816 -0.0688  0.1483
35776W        W78693   8.864   1.406  18.311 -0.0038  0.1178  0.0254
35777W        W78694  10.309   2.182  16.025 -0.0500 -0.2327  0.0028
35778W        W78695   9.221   3.404  16.086  0.2300 -0.0812 -0.2726
35779W        W78696   9.852   1.604  16.538 -0.1645  0.0900  0.1341
35780W        W78697   8.544   1.449  19.807 -0.0593 -0.1549 -0.1407
35781W        W78698   8.338   0.009  17.112 -0.1827  0.2341  0.1877
35782W        W78699  10.451   0.402  17.811  0.1554  0.1300  0.0495
35783W        W78700   8.289   2.147  14.877 -0.2034  0.0098 -0.3124
35784W        W78701  10.534   0.011  14.995  0.1420 -0.0355 -0.0446
35785W        W78702   7.483  34.589  14.270  0.2510  0.3346  0.0888
35786W        W78703   9.251   0.996  15.081 -0.0029  0.0678 -0.2649
35787W        W78704   8.765  33.333  15.079 -0.3409  0.0092 -0.0710
35788W        W78705   7.551   0.752  18.422  0.2347  0.0438  0.2418
35789W        W78706   9.092   0.892  16.548 -0.0269 -0.5142 -0.0547
35790W        W78707  10.652   1.466  17.556 -0.1589 -0.1519 -0.0102
35791W        W78708   6.701   2.105  16.020 -0.1910  0.1572 -0.2251
35792W        W78709   8.738  34.284  17.972 -0.2381 -0.3687 -0.1517
35793W        W78710   6.704   1.003  18.093 -0.0647 -0.0204 -0.1143
35794W        W78711   7.708   1.407  16.107  0.1302  0.0040 -0.1597
35795W        W78712  11.044   1.752  15.569  0.3215  0.2090 -0.0922
35796W        W78713  11.135   2.555  16.214  0.0546  0.0410  0.0913
35797W        W78714  10.890   2.687  14.671  0.0094  0.0708  0.0582
35798W        W78715   9.373   1.213  15.635 -0.1312  0.0708  0.1524
35799W        W78716   7.127   1.909  17.119 -0.2608 -0.2921  0.0763
35800W        W78717   6.937   0.062  19.017 -0.1102  0.1095 -0.1762
35801W        W78718   7.679  33.382  14.535 -0.1013 -0.0193 -0.1624
35802W        W78719   9.928   0.205  20.510 -0.2052  0.2622 -0.2327
35803W        W78720   8.757   4.675  18.714 -0.2229  0.2991  0.1218
35804W        W78721   8.370  32.882  17.439 -0.1433 -0.1051  0.0697
35805W        W78722   6.951   1.617  16.664 -0.0289  0.0987  0.1691
35806W        W78723   7.982   2.889  18.476 -0.0485 -0.0142  0.1014
35807W        W78724  10.304   1.364  15.198 -0.2271 -0.3195 -0.0895
35808W        W78725   8.806   1.103  14.794  0.0038  0.0599 -0.1780
35809W        W78726   9.349  34.443  18.847  0.0796 -0.2363 -0.1426
35810W        W78727   9.370   2.344  15.668 -0.3523 -0.0510  0.2824
35811W        W78728   7.975   1.281  14.838 -0.1427  0.0997 -0.0227
35812W        W78729   9.482   1.703  16.913 -0.1361  0.1287 -0.1383
35813W        W78730  11.291   1.085  16.208 -0.2244  0.2104 -0.1153
35814W        W78731   7.129   1.384  15.515 -0.1384  0.2084 -0.0266
35815W        W78732   8.660   1.007  17.060 -0.0563  0.0712 -0.0793
35816W        W78733   9.128   3.058  17.874 -0.3281 -0.0683 -0.0038
35817W        W78734   7.409   2.434  14.937 -0.1317 -0.0856  0.0404
35818W        W78735   4.616   3.555  18.536  0.0104  0.3341 -0.0199
35819W        W78736   8.144  34.461  15.303 -0.1276 -0.1011  0.1078
35820W        W78737   6.369   0.407  18.586 -0.0005 -0.0321  0.3639
35821W        W78738   8.086   3.756  16.721  0.4805 -0.2876 -0.1579
35822W        W78739  10.036  32.604  16.695  0.0576 -0.0421  0.0347
35823W        W78740   7.916   0.830  17.387 -0.2641 -0.1673 -0.0953
35824W        W78741  10.736  34.036  15.925 -0.0579  0.1459 -0.1730
35825W        W78742   9.391   2.993  15.194 -0.1001  0.0795  0.1620
35826W        W78743   8.638   3.019  17.824  0.0825  0.1622 -0.2026
35827W        W78744  10.946   0.581  14.733  0.2394  0.0007  0.0264
35828W        W78745   9.871   3.093  17.207  0.5153  0.1574 -0.1711
35829W        W78746   8.552   0.984  18.038  0.4659  0.1375  0.0368
35830W        W78747   9.017  34.073  15.660 -0.0697  0.1267  0.1743
35831W        W78748   9.339  34.344  16.007 -0.0670 -0.1331  0.1181
35832W        W78749   6.931   0.713  16.335 -0.0547 -0.0090 -0.0997
35833W        W78750   9.003   0.323  19.959 -0.1042 -0.1503  0.0115
35834W        W78751   8.461   0.109  14.959  0.0927  0.1450  0.0103
35835W        W78752   7.956   0.387  14.878 -0.3753 -0.0686 -0.1976
35836W        W78753   8.503   2.931  17.025  0.0982  0.2660 -0.3681
35837W        W78754   5.262   2.168  17.743 -0.0850  0.1083  0.1405
35838W        W78755  11.147   1.996  18.327 -0.0220  0.0542  0.2535
35839W        W78756   9.417   2.805  16.878 -0.0083  0.0854 -0.0463
35840W        W78757  10.398   2.659  18.908 -0.1183  0.0031 -0.1312
35841W        W78758  10.117   3.531  17.449 -0.2494  0.0524  0.0610
35842W        W78759   8.175   0.195  18.356  0.1426 -0.0156 -0.1358
35843W        W78760   7.542   0.413  14.518 -0.0818 -0.2618  0.1284
35844W        W78761   8.020   2.465  17.078 -0.1836 -0.3198 -0.2836
35845W        W78762   9.215   1.507  14.981  0.1648  0.0600 -0.2042
35846W        W78763   8.982   0.807  14.416 -0.1423 -0.0190  0.1323
35847W        W78764  10.557   2.477  18.234  0.1481  0.1603  0.1066
35848W        W78765   6.680   1.038  15.542  0.4481 -0.0761 -0.1100
35849W        W78766   7.124   2.717  16.684 -0.1611  0.1409 -0.0244
35850W        W78767  11.351  33.513  18.515 -0.1633 -0.1142 -0.2953
35851W        W78768  10.793   1.128  19.247 -0.1839 -0.1278  0.2397
35852W        W78769   8.318   0.379  16.676 -0.0371 -0.3658 -0.0686
35853W        W78770   6.932  34.577  16.356  0.4632 -0.0610  0.2448
35854W        W78771  10.127   2.733  18.153 -0.4199 -0.1176  0.0195
35855W        W78772   8.915   1.860  17.005  0.0585  0.0933  0.1334
35856W        W78773   7.589   0.193  15.787 -0.0011  0.3481 -0.0576
35857W        W78774  11.205   2.763  17.192  0.1223  0.0462 -0.3586
35858W        W78775   9.757   1.069  16.545  0.0826  0.1283  0.2163
35859W        W78776   7.070   1.455  18.889  0.0150 -0.2739  0.0686
35860W        W78777   9.230   0.234  18.610  0.3206  0.1021  0.1712
35861W        W78778   8.497   1.191  15.582  0.2308  0.1777  0.0730
35862W        W78779   6.304   2.826  17.097 -0.0859  0.1706  0.0026
35863W        W78780   9.135  33.493  16.368  0.0811 -0.0190 -0.0238
35864W        W78781  11.328  33.785  15.335  0.0495  0.0667 -0.1462
35865W        W78782  10.193   0.092  18.144 -0.3015  0.2125 -0.3009
35866W        W78783   9.716   2.690  15.517 -0.1341  0.0350 -0.1119
35867W        W78784   9.644  33.018  15.337  0.3235 -0.1672  0.2234
35868W        W78785  11.419   0.834  16.707 -0.0454 -0.2416 -0.3333
35869W        W78786   7.297   4.848  19.763 -0.2389 -0.0258 -0.0538
35870W        W78787   8.872   3.024  16.169  0.2431  0.0657 -0.4193
35871W        W78788   9.814  34.318  16.928 -0.2212  0.1951  0.0883
35872W        W78789   9.466   0.213  14.692  0.0700  0.2107  0.1236
35873W        W78790  11.859   4.126  14.843 -0.0266  0.1037 -0.1007
35874W        W78791   6.964   1.944  17.644  0.0513 -0.0292 -0.1469
35875W        W78792  10.232   5.069  17.906  0.3992  0.2765  0.2108
35876W        W78793  10.045   3.820  16.989  0.1023  0.1718  0.0845
35877W        W78794   8.595   0.793  18.955  0.0401 -0.1665  0.2234
35878W        W78795   8.138  34.426  14.751 -0.1553  0.1257 -0.0204
35879W        W78796   9.236   0.222  16.742 -0.1109  0.0483  0.1963
35880W        W78797   6.710   2.781  17.348  0.2596 -0.2819 -0.0511
35881W        W78798   9.500   0.958  16.981 -0.2545 -0.1739  0.3989
35882W        W78799  10.384   0.632  17.328  0.2802 -0.1176 -0.2373
35883W        W78800   9.580  34.227  20.869 -0.1707  0.2907  0.1332
35884W        W78801  11.810   1.147  18.376 -0.3129  0.0251 -0.1598
35885W        W78802  10.783   0.214  16.185  0.1905 -0.0807  0.0578
35886W        W78803   9.714   1.692  17.385 -0.2447 -0.1135  0.3488
35887W        W78804   7.801   0.907  15.151  0.0132  0.0219 -0.2142
35888W        W78805  11.137  32.527  17.739 -0.0893 -0.0666 -0.0741
35889W        W78806   9.228   2.563  18.211  0.0128 -0.0440 -0.1528
35890W        W78807   7.085   3.468  17.441 -0.3511  0.0784  0.1101
35891W        W78808   9.571   1.675  18.610 -0.3103  0.2783 -0.0655
35892W        W78809   9.437   1.416  17.781 -0.0971  0.0475  0.0871
35893W        W78810   8.148  34.539  16.579  0.0855 -0.3303 -0.1145
35894W        W78811   9.765  34.516  14.968  0.1496 -0.1615 -0.1785
35895W        W78812  10.516   2.207  15.558 -0.1678  0.1200  0.1738
35896W        W78813   9.876   1.916  16.186 -0.0966 -0.3618  0.2502
35897W        W78814   8.885   0.733  16.113  0.1118 -0.2751 -0.3268
35898W        W78815   9.819   2.923  16.536  0.3300 -0.1649  0.1978
35899W        W78816   8.552   0.915  16.562  0.1090  0.0792 -0.0471
35900W        W78817   9.872   2.032  18.912 -0.0745  0.1675  0.0030
35901W        W78818   6.570   2.814  16.389 -0.2928 -0.0084 -0.2874
35902W        W78819  11.627  33.373  16.683  0.1057  0.3077  0.3339
35903W        W78820   8.030   2.430  17.579 -0.0688  0.0034  0.1429
35904W        W78821   7.726   1.332  16.649  0.1719 -0.1587  0.0235
35905W        W78822   8.102   0.212  15.633 -0.1875  0.0995  0.1859
35906W        W78823   9.012  34.593  15.650 -0.0794 -0.0618 -0.0295
35907W        W78824  10.312   1.035  16.418  0.0369 -0.1394  0.2161
35908W        W78825   7.661  34.077  16.714  0.1946 -0.2840  0.2644
35909W        W78826   9.757   0.496  17.014 -0.4085 -0.3199 -0.1733
35910W        W78827   7.131   1.444  17.374 -0.2225  0.0262 -0.1171
35911W        W78828   8.130   0.465  17.831 -0.0927  0.2708  0.0529
35912W        W78829   9.571  34.037  16.571  0.0391  0.0178 -0.2665
35913W        W78830   9.735   2.422  18.410 -0.0568  0.0532  0.0040
35914W        W78831   9.673   2.493  19.030  0.0797  0.1054 -0.4972
35915W        W78832   7.975  34.020  17.739  0.0537  0.1839  0.0761
35916W        W78833  10.603   0.607  16.461  0.0999  0.1425 -0.0160
35917W        W78834   6.867   3.989  18.158  0.2152  0.1423  0.0610
35918W        W78835   7.421   3.177  16.651  0.0454  0.1770 -0.3131
35919W        W78836   7.741   3.141  17.011 -0.1503  0.1946  0.0431
35920W        W78837   9.501   1.284  14.682  0.1328 -0.1497 -0.1345
35921W        W78838   7.695   2.187  18.336  0.1111  0.0318 -0.1479
35922W        W78839   7.468   1.858  16.672  0.2394  0.2551  0.3025
35923W        W78840  10.354   0.396  20.233 -0.1037 -0.0811 -0.0769
35924W        W78841   7.106   1.939  16.289 -0.0244  0.2773 -0.0606
35925W        W78842   9.739   1.640  15.221  0.0925  0.0262  0.1604
35926W        W78843   9.338   1.319  18.284 -0.0170 -0.2546  0.2214
35927W        W78844   9.105   4.970  17.996 -0.2363 -0.2770 -0.0517
35928W        W78845   7.358   0.012  20.023  0.1451  0.0247  0.1194
35929W        W78846   7.734   5.894  21.175  0.2514 -0.0842 -0.1065
35930W        W78847   9.461   0.633  17.371 -0.1656 -0.2572 -0.2816
35931W        W78848  11.069   3.541  14.815 -0.1288 -0.0441 -0.0243
35932W        W78849   8.181   2.995  18.960  0.1247  0.0083  0.4319
35933W        W78850   7.411   2.331  16.288 -0.3352  0.3320 -0.1193
35934W        W78851   7.325   3.642  16.491 -0.2120 -0.0798  0.2101
35935W        W78852   8.198   3.087  17.357 -0.3709  0.1953 -0.4927
35936W        W78853   8.765  34.513  17.399 -0.0325  0.3093  0.0126
35937W        W78854   7.488   2.110  15.793 -0.1907  0.0376 -0.1647
35938W        W78855   8.090   2.419  18.133 -0.0353  0.1585 -0.0531
35939W        W78856   6.019   2.309  17.174  0.2400 -0.1879  0.2598
35940W        W78857  11.014   1.314  15.791 -0.0699  0.3306  0.2110
35941W        W78858  11.016   1.965  14.595 -0.1571 -0.1309  0.2394
35942W        W78859  10.252   0.077  15.860 -0.0912  0.1036  0.0224
35943W        W78860  10.182   0.186  17.199  0.1989  0.1489  0.3250
35944W        W78861  11.208   0.843  15.818 -0.1627  0.3350 -0.0724
35945W        W78862   8.023  34.425  17.401 -0.4493 -0.3956  0.1407
35946W        W78863   9.197  32.995  16.157 -0.5211  0.1914 -0.2735
35947W        W78864  11.806   1.954  15.244  0.2115 -0.0892  0.0289
35948W        W78865   7.775   0.273  18.643 -0.3115 -0.0374  0.1138
35949W        W78866   8.870   3.816  18.957  0.2258 -0.0700  0.0049
35950W        W78867   9.274  34.202  17.851 -0.1296  0.0496 -0.0517
35951W        W78868   8.318  34.186  16.883 -0.2860 -0.2556  0.2950
35952W        W78869   8.159   0.772  15.732  0.0130 -0.0611  0.0321
35953W        W78870   7.225   3.034  17.199  0.0949 -0.1744 -0.1128
35954W        W78871  10.015   2.907  18.632  0.1328 -0.0066  0.0408
35955W        W78872   9.312   2.490  16.478  0.1876 -0.0137  0.2566
35956W        W78873  10.666  34.029  16.933 -0.0368  0.2158 -0.1390
35957W        W78874   7.946   2.015  17.280  0.2904 -0.0126  0.4644
35958W        W78875  10.672   1.377  16.272 -0.3536 -0.2316  0.4462
35959W        W78876   8.788   2.263  15.593  0.2069  0.1491 -0.1443
35960W        W78877   6.197   1.901  19.498 -0.2339  0.0417 -0.1532
35961W        W78878   6.605   2.148  18.580  0.3478  0.0733 -0.1128
35962W        W78879  11.407   2.091  16.195  0.0852  0.2621 -0.0197
35963W        W78880   8.186   1.431  15.928 -0.2005 -0.0996 -0.2658
35964W        W78881  10.444  34.116  17.399 -0.1788 -0.0681 -0.1227
35965W        W78882   9.014   0.716  17.630  0.0906 -0.0726  0.1728
35966W        W78883   8.715   1.924  20.038  0.2391 -0.1027  0.1125
35967W        W78884   7.287   1.417  19.723  0.1245  0.4356 -0.0859
35968W        W78885  10.702   3.075  16.895 -0.0597  0.0154 -0.2658
35969W        W78886  11.777   0.049  15.423  0.2120 -0.0880 -0.2989
35970W        W78887  10.454  33.592  16.755 -0.1762  0.1585  0.2371
35971W        W78888   9.836   1.352  17.047 -0.2635 -0.1384 -0.2706
35972W        W78889   9.377   0.239  15.225  0.2598  0.2585 -0.0885
35973W        W78890   5.635   1.986  17.107  0.0997  0.2043 -0.5247
35974W        W78891   9.451   0.772  21.569  0.1256  0.2519  0.0036
35975W        W78892   8.304  33.607  15.206  0.3398 -0.1128 -0.4269
35976W        W78893   9.898   0.112  19.188 -0.0378 -0.0175  0.1732
35977W        W78894   9.876   3.465  16.694 -0.0172 -0.2183  0.1684
35978W        W78895   8.519   1.836  15.908  0.1832  0.0475 -0.3453
35979W        W78896  10.160  34.507  14.643 -0.1646 -0.3080  0.4100
35980W        W78897   6.607   1.567  17.399  0.3006 -0.1370 -0.0693
35981W        W78898   7.852   4.573  18.739 -0.0597  0.0733  0.1093
35982W        W78899   7.664  34.621  14.821 -0.1686  0.3312 -0.2109
35983W        W78900  10.507   2.273  17.248 -0.2841  0.0674 -0.0093
35984W        W78901   8.122   2.880  17.866 -0.1354  0.3600  0.0105
35985W        W78902   9.892   0.939  19.974 -0.3001 -0.2003  0.0050
35986W        W78903   9.833  33.828  13.942 -0.2564  0.0256  0.2544
35987W        W78904  10.833   1.104  18.632 -0.0252  0.1909  0.4784
35988W        W78905   6.752   4.987  16.611  0.2660 -0.1964  0.1647
35989W        W78906   8.677  34.416  15.214  0.0747  0.0069 -0.1318
35990W        W78907   8.575   2.546  20.163  0.1030  0.1414 -0.0645
35991W        W78908   7.698   2.036  17.845  0.0006 -0.2427  0.1036
35992W        W78909   9.077   0.614  16.999 -0.2456  0.3324 -0.3058
35993W        W78910   7.979  34.514  17.988  0.0099 -0.2523  0.0659
35994W        W78911  10.059   0.609  15.195 -0.0998 -0.1260  0.0635
35995W        W78912   9.562   2.056  16.610 -0.0460  0.0233  0.0414
35996W        W78913  11.419   2.415  18.396 -0.1152  0.0842 -0.2515
35997W        W78914   9.347   4.259  18.257  0.0411  0.0393 -0.0157
35998W        W78915   8.031   1.094  17.880 -0.0495  0.0213 -0.1683
35999W        W78916   9.905   5.607  19.793 -0.1055 -0.1319 -0.0739
36000W        W78917  10.362   2.444  17.749 -0.0290 -0.1820  0.0486
36001W        W78918   8.909   1.405  15.782 -0.0011 -0.0627 -0.0325
36002W        W78919   8.231   3.144  19.475 -0.0932 -0.1765  0.0089
36003W        W78920   8.102   2.787  19.988 -0.0187  0.2893  0.0752
36004W        W78921   9.581   2.177  17.140 -0.1478  0.1618 -0.1678
36005W        W78922   7.752   1.201  15.681  0.0493 -0.0533 -0.1550
36006W        W78923   8.859   1.358  15.288  0.1744  0.3062 -0.2537
36007W        W78924   7.472   1.243  18.612 -0.3369 -0.1090  0.0084
36008W        W78925   8.421   3.244  18.582  0.1223 -0.1738  0.3219
36009W        W78926   9.846   2.447  16.329  0.1645 -0.0221  0.4047
36010W        W78927   9.163   2.332  14.690  0.2437  0.2077  0.2658
36011W        W78928   8.661   2.034  15.158  0.0887 -0.1594  0.0607
36012W        W78929   8.643   4.257  19.016  0.2544 -0.1403 -0.0329
36013W        W78930   9.863   0.163  15.378 -0.3123 -0.1131  0.0751
36014W        W78931   5.916   1.582  15.824 -0.2010  0.3022 -0.0167
36015W        W78932   6.389   3.083  15.576  0.2128  0.0147  0.4954
36016W        W78933   9.192   2.008  15.110  0.1345  0.2147  0.1680
36017W        W78934  10.172   2.701  17.218 -0.0795 -0.1681  0.3983
36018W        W78935   8.846   2.088  18.830 -0.1002 -0.2588 -0.1676
36019W        W78936   9.382   3.307  18.230  0.3698 -0.0147 -0.2650
36020W        W78937  11.644   1.586  17.610 -0.2490 -0.0903  0.1669
36021W        W78938  11.268   0.215  15.383  0.0328  0.0713 -0.1652
36022W        W78939   7.864   3.998  17.180  0.4504 -0.1310 -0.0999
36023W        W78940   9.884   1.299  17.631  0.2338  0.0160 -0.0979
36024W        W78941   8.238  33.981  14.455  0.0265  0.2266  0.1760
36025W        W78942   7.898   2.197  16.622  0.2737 -0.0132  0.2087
36026W        W78943  10.679  33.139  17.074 -0.0628 -0.1534 -0.1652
36027W        W78944   8.514   2.895  21.583 -0.0214  0.3284  0.1225
36028W        W78945   9.819   3.505  15.748 -0.0101 -0.1614  0.4108
36029W        W78946   8.595   0.531  14.661 -0.1539  0.0620  0.1095
36030W        W78947   8.705   1.443  17.292  0.2781  0.3410 -0.2759
36031W        W78948  11.732   0.604  15.489 -0.4638  0.1317 -0.1130
36032W        W78949   8.638   2.503  14.846  0.0622 -0.2274  0.0244
36033W        W78950   9.188   2.315  16.905  0.4163 -0.1253  0.1447
36034W        W78951   9.423   3.536  17.813 -0.3299 -0.3653 -0.0772
36035W        W78952   8.709   1.567  16.308 -0.0222  0.2377  0.5682
36036W        W78953   8.896  34.534  16.445 -0.1368 -0.1458  0.0315
36037W        W78954   7.203  33.952  17.435 -0.0012 -0.2616 -0.2105
36038W        W78955  12.171   0.209  17.358 -0.2954 -0.0073  0.0934
36039W        W78956   8.269   1.940  17.646  0.1446  0.1919 -0.1574
36040W        W78957  11.484   0.334  16.743 -0.1153 -0.1231 -0.1932
36041W        W78958   9.882   0.087  16.715 -0.1108 -0.1595  0.1030
36042W        W78959   9.106   0.564  14.832  0.1310  0.0770 -0.1785
36043W        W78960   7.026   1.647  18.419 -0.0960 -0.0728  0.0752
36044W        W78961   6.567  34.327  18.304  0.0086 -0.0539  0.1042
36045W        W78962   6.870   1.118  16.621 -0.2199  0.2017  0.0090
36046W        W78963   8.902   0.086  17.837  0.3436 -0.1649  0.1214
36047W        W78964  10.620   1.773  15.858 -0.0071 -0.3163  0.3194
36048W        W78965   9.526   2.846  18.598 -0.0192 -0.1035  0.2381
36049W        W78966   8.837   2.265  16.559  0.1044 -0.0536 -0.5763
36050W        W78967  10.442  33.971  15.468  0.2193  0.0658 -0.0956
36051W        W78968   7.441   0.720  18.950 -0.3391  0.0752  0.2162
36052W        W78969   9.459  33.229  17.963 -0.0746 -0.0320 -0.4035
36053W        W78970   8.967   2.862  20.660  0.3004  0.1120  0.0591
36054W        W78971   8.213   1.242  16.909 -0.1677  0.2513 -0.2263
36055W        W78972  10.262   1.276  14.407  0.1006  0.0101 -0.0230
36056W        W78973  10.992   0.558  17.303  0.0604  0.1112  0.1218
36057W        W78974   8.862   3.052  15.140 -0.0404  0.0048  0.0401
36058W        W78975  10.739   0.228  18.761 -0.0215  0.1111 -0.1188
36059W        W78976   8.935   2.573  17.796 -0.0422  0.2103 -0.1696
36060W        W78977   5.798   1.040  19.562 -0.1767  0.1703  0.1462
36061W        W78978  10.278   4.792  19.489 -0.2055 -0.4379  0.0050
36062W        W78979  10.006   1.866  17.792  0.2231 -0.3471 -0.3397
36063W        W78980  10.348   1.585  16.737 -0.0532 -0.0823  0.5271
36064W        W78981   7.484   2.306  17.499 -0.0166  0.3207 -0.1735
36065W        W78982   8.559   2.696  16.009 -0.1169 -0.0962 -0.1177
36066W        W78983  11.141   0.052  19.619  0.0887 -0.0983  0.1817
36067W        W78984   9.759  33.204  19.564  0.2737 -0.0729 -0.0270
36068W        W78985   7.284   2.492  15.455 -0.0296  0.1962 -0.1256
36069W        W78986  10.739   1.361  15.389  0.5708  0.0127  0.2366
36070W        W78987   9.559   0.528  20.562  0.2203  0.5757  0.0414
36071W        W78988   7.501   4.662  20.760 -0.0698  0.0568  0.0510
36072W        W78989   7.969   1.853  15.775 -0.1028 -0.2148  0.2101
36073W        W78990   6.759   0.092  18.535  0.1010 -0.1451 -0.3136
36074W        W78991   8.701   3.247  17.367 -0.2192  0.2782 -0.3240
36075W        W78992   7.736   3.000  17.516  0.0090  0.0590 -0.0805
36076W        W78993  12.020   3.105  17.191 -0.0605 -0.0400 -0.3368
36077W        W78994  10.698   1.840  15.228 -0.0069 -0.0545  0.2004
36078W        W78995   8.457   1.962  17.145  0.2525  0.3881 -0.1497
36079W        W78996   6.451   0.179  17.386 -0.4307 -0.3755 -0.0452
36080W        W78997   8.934   0.950  15.569 -0.0603  0.1997 -0.4006
36081W        W78998   9.710  33.512  15.549 -0.0612 -0.1402 -0.3060
36082W        W78999   7.811   1.463  17.158 -0.2203 -0.0347 -0.0486
36083W        W79000   8.615   0.524  15.660 -0.0942 -0.3354 -0.2920
36084W        W79001   8.676   0.715  15.170  0.0843  0.1135 -0.1988
36085W        W79002   8.385   0.505  16.174 -0.3617  0.1949  0.0650
36086W        W79003   8.542  33.688  18.912  0.2119 -0.4495 -0.1209
36087W        W79004   6.796   1.323  17.054 -0.0414  0.0902  0.0247
36088W        W79005   7.899   0.249  17.071  0.1455 -0.0506 -0.2391
36089W        W79006   7.020   0.718  15.828 -0.0168 -0.3059  0.0730
36090W        W79007   8.445   1.658  15.402 -0.3472 -0.1475  0.1552
36091W        W79008   7.409   0.420  16.187 -0.1408 -0.0322  0.3170
36092W        W79009   7.169  34.014  15.912 -0.1516 -0.1663 -0.1129
36093W        W79010  10.223   1.482  16.181 -0.0885 -0.2460  0.2174
36094W        W79011  10.264   2.620  15.648 -0.0150  0.0367 -0.1239
36095W        W79012  10.792  34.491  17.236  0.0160 -0.0481  0.3423
36096W        W79013  10.123   1.693  18.574  0.1210 -0.1391  0.1114
36097W        W79014   7.195   1.631  15.100 -0.1364 -0.0817  0.0560
36098W        W79015   7.131   1.205  17.936 -0.1639  0.0881 -0.2988
36099W        W79016   8.541  34.623  19.265  0.1441 -0.0730  0.1150
36100W        W79017   7.997  32.156  15.482 -0.1678  0.2950 -0.1342
36101W        W79018   9.643   0.062  17.162  0.1983 -0.1294 -0.4724
36102W        W79019   9.108   2.759  15.564 -0.1193 -0.0699 -0.0371
36103W        W79020   9.873   2.622  14.805 -0.1413  0.3529  0.2919
36104W        W79021   7.300   2.511  19.030 -0.0086  0.1032 -0.0989
36105W        W79022   9.833   4.097  17.423  0.0421  0.0549  0.0431
36106W        W79023   6.074   2.104  19.943  0.0951 -0.2320 -0.0311
36107W        W79024  11.010   1.733  17.952 -0.0931  0.3360 -0.0795
36108W        W79025   7.663   1.624  18.968  0.0965 -0.0279  0.1180
36109W        W79026  11.095   0.837  15.237  0.2133 -0.1153  0.2366
36110W        W79027  11.229   0.880  19.057 -0.0457  0.4431 -0.2106
36111W        W79028  11.908   1.878  15.856  0.2428  0.0992 -0.0187
36112W        W79029   5.921   0.084  19.493  0.1618  0.1860 -0.0576
36113W        W79030   8.039   4.548  18.180  0.2623 -0.1102  0.2070
36114W        W79031  10.689   1.583  18.714 -0.1335  0.2207  0.1401
36115W        W79032  10.088   0.945  16.887  0.1802  0.0168 -0.1085
36116W        W79033   9.783   0.173  16.184 -0.0994 -0.3456  0.2024
36117W        W79034  10.229   3.055  16.825 -0.3360 -0.2470 -0.0104
36118W        W79035   6.725   0.163  17.811 -0.3574 -0.0859 -0.1578
36119W        W79036   8.411   1.169  15.086 -0.3149  0.0242  0.1822
36120W        W79037   9.430   0.640  16.012  0.1588 -0.3742 -0.0925
36121W        W79038   7.240   0.123  16.907 -0.0792 -0.2732 -0.4035
36122W        W79039   9.190   0.197  17.274  0.2868 -0.1470 -0.1634
36123W        W79040  11.040   2.101  16.559  0.0206 -0.2175  0.1592
36124W        W79041  10.109   2.077  14.815 -0.1441 -0.0602  0.1887
36125W        W79042   9.113   4.213  18.706 -0.0004 -0.0034  0.0224
36126W        W79043  10.848   3.631  19.081  0.1538  0.0959 -0.0269
36127W        W79044   7.862   3.502  19.169  0.2492 -0.1918 -0.2031
36128W        W79045  10.199   0.931  15.558  0.0950  0.4506 -0.1309
36129W        W79046   9.573   0.671  15.405  0.1079  0.2143  0.0465
36130W        W79047   7.016   1.884  15.609  0.1520 -0.1078 -0.1207
36131W        W79048  10.775   0.734  15.590 -0.1029  0.0918  0.1274
36132W        W79049   9.535   0.614  16.558  0.0281 -0.2065 -0.1567
36133W        W79050   9.122   2.157  17.936  0.0836 -0.1098 -0.0226
36134W        W79051   8.267   0.528  15.281  0.0197 -0.1218  0.2316
36135W        W79052   9.159   2.318  17.449  0.2411 -0.0731 -0.1232
36136W        W79053   9.329   1.375  16.564  0.1006  0.1390  0.0850
36137W        W79054   6.683   5.038  22.278  0.0665 -0.0678 -0.0942
36138W        W79055   9.460   1.700  19.614 -0.1128 -0.0591  0.0542
36139W        W79056   8.900   4.150  17.963  0.1318  0.2211 -0.0533
36140W        W79057   9.666   2.015  23.258  0.0502 -0.2628 -0.2847
36141W        W79058   5.705   2.604  20.897 -0.1631 -0.0926  0.0883
36142W        W79059  10.850   2.616  21.362  0.0272 -0.0317  0.1767
36143W        W79060   7.194  32.275  24.777  0.2895 -0.2691 -0.2264
36144W        W79061   9.349   4.736  19.939 -0.0403 -0.1861  0.0505
36145W        W79062  12.407   1.866  21.329  0.4808 -0.2814 -0.1920
36146W        W79063   9.871   3.613  18.796  0.0331 -0.2936 -0.2700
36147W        W79064   8.479   0.428  19.799  0.0761  0.2149  0.1239
36148W        W79065   7.308   3.621  20.641 -0.0883 -0.0436  0.0866
36149W        W79066   7.581  34.315  17.682  0.1485 -0.2787 -0.0049
36150W        W79067   7.144  33.753  23.024 -0.0265  0.0162 -0.0249
36151W        W79068  10.679   1.171  22.757  0.0378 -0.0449 -0.0525
36152W        W79069   8.785   1.981  21.429  0.0318 -0.0867  0.0961
36153W        W79070   8.141   0.579  22.298  0.3359  0.1616 -0.1331
36154W        W79071   8.231   1.129  20.024  0.0280  0.2263 -0.1747
36155W        W79072  10.198   2.695  20.671  0.0427  0.2910 -0.0344
36156W        W79073   8.113   3.083  22.417  0.1132 -0.3441  0.2126
36157W        W79074   8.923   0.552  21.456  0.1450 -0.0611 -0.0479
36158W        W79075   8.969   1.609  20.570 -0.3003 -0.1630 -0.0412
36159W        W79076   7.534  34.570  16.455  0.1445  0.2065 -0.0593
36160W        W79077   7.769   0.705  22.688  0.0034  0.0692 -0.3708
36161W        W79078   9.637   2.026  20.064 -0.1576 -0.1688  0.1695
36162W        W79079   7.671   0.277  22.260 -0.0131 -0.5689 -0.1344
36163W        W79080  10.818   0.844  21.673  0.1365 -0.0877 -0.0056
36164W        W79081   8.661   3.040  19.710 -0.2895  0.2354 -0.1462
36165W        W79082   8.700   3.502  20.059  0.0906  0.1137 -0.1385
36166W        W79083   7.955   1.833  18.615 -0.3554  0.0200 -0.3927
36167W        W79084   9.217   2.125  19.711  0.1609  0.1466 -0.0797
36168W        W79085   9.082   3.073  21.585 -0.1539  0.2065  0.3612
36169W        W79086   9.802   2.693  19.935 -0.2024 -0.3287  0.0544
36170W        W79087  10.991   0.356  20.041 -0.1091 -0.2814 -0.2164
36171W        W79088  11.166   2.150  21.135 -0.1591  0.1642  0.0357
36172W        W79089   7.210   2.554  24.043  0.3175  0.1413  0.0878
36173W        W79090   5.639   1.741  20.079 -0.4504  0.2908 -0.1316
36174W        W79091   9.387   2.508  23.743 -0.0480  0.2098 -0.0141
36175W        W79092  10.060   3.950  22.564 -0.0181 -0.0138 -0.0656
36176W        W79093   6.727   0.837  20.481 -0.4917  0.1055  0.0035
36177W        W79094   8.312   2.209  22.168  0.4574 -0.2595 -0.1004
36178W        W79095   6.854   3.354  18.777  0.3098  0.2986 -0.0355
36179W        W79096   7.854   2.224  20.669 -0.2456  0.1125 -0.0146
36180W        W79097   8.265   5.082  22.266  0.2720  0.0768  0.0082
36181W        W79098   8.659   0.880  21.797  0.0526 -0.0929  0.2624
36182W        W79099  11.676   0.919  23.779 -0.1308  0.0452 -0.3428
36183W        W79100   6.857   3.122  20.348 -0.2031 -0.1493  0.3511
36184W        W79101   9.810   0.534  19.437  0.2473  0.0447 -0.2251
36185W        W79102   9.579   2.113  19.288  0.0336 -0.2077  0.1856
36186W        W79103   9.396  33.735  19.935  0.0685 -0.0544  0.1363
36187W        W79104   7.371   0.724  22.384 -0.0039 -0.0167 -0.3024
36188W        W79105   9.279   2.943  20.041  0.3612 -0.4462  0.1489
36189W        W79106   8.660  34.643  19.743  0.1542  0.1086  0.0229
36190W        W79107   9.427   1.376  21.723 -0.2663  0.2974 -0.0033
36191W        W79108   9.120   1.839  18.459 -0.0651  0.5869 -0.0455
36192W        W79109  10.227   0.580  19.789  0.0183 -0.2852  0.1806
36193W        W79110   7.233   1.280  24.243  0.0407  0.1193 -0.1781
36194W        W79111   7.320   2.415  19.921  0.1773  0.0406 -0.0935
36195W        W79112   9.488   4.018  19.106  0.1790  0.4609 -0.0463
36196W        W79113  11.547   2.506  21.373  0.0434  0.1656 -0.1096
36197W        W79114   8.012   2.180  19.709 -0.0836 -0.1792  0.0384
36198W        W79115   7.802   0.817  20.381 -0.2652  0.1387 -0.1615
36199W        W79116   9.727   4.565  24.202 -0.2901 -0.0201 -0.3236
36200W        W79117   8.187   1.167  20.550  0.3871 -0.0299 -0.2957
36201W        W79118   8.172   2.288  18.604 -0.0073  0.1891 -0.0778
36202W        W79119   9.491   1.214  21.245  0.0301 -0.1707  0.3025
36203W        W79120   6.246   2.909  23.952  0.0666 -0.0127 -0.1013
36204W        W79121   9.379   0.235  19.108 -0.2769  0.0348  0.1860
36205W        W79122   8.604   0.277  20.394  0.2015 -0.0761  0.2153
36206W        W79123   9.524   1.710  22.262 -0.0774 -0.0275 -0.0406
36207W        W79124   9.858   3.398  18.184 -0.1907  0.2721  0.0877
36208W        W79125  10.614   1.114  22.059 -0.1197 -0.0992 -0.1984
36209W        W79126  10.995   0.754  20.631  0.4117 -0.0282 -0.2190
36210W        W79127   8.208   2.190  20.265  0.0847 -0.2604  0.1134
36211W        W79128   8.495   1.779  19.139 -0.0391  0.2612  0.0717
36212W        W79129  11.688   2.768  24.270 -0.2606  0.0644  0.1070
36213W        W79130  11.324   0.157  18.496 -0.0285 -0.0213 -0.2632
36214W        W79131   9.670   3.395  21.766  0.0008 -0.0892  0.0047
36215W        W79132   8.325   1.365  21.219 -0.1880  0.3115 -0.1965
36216W        W79133   9.989   2.818  22.602  0.1934 -0.2499 -0.1016
36217W        W79134   8.872   2.925  21.163  0.0171  0.0963 -0.2944
36218W        W79135   8.389   2.354  21.662 -0.1689 -0.2494  0.3959
36219W        W79136   8.193   2.902  21.009 -0.2496 -0.0297 -0.2551
36220W        W79137   8.067   0.294  23.336  0.2553  0.3390  0.0545
36221W        W79138   7.185   5.070  22.055 -0.3373  0.1959  0.2802
36222W        W79139  11.945  33.473  17.957  0.0189  0.1919 -0.1340
36223W        W79140   7.664   0.352  23.678  0.0096 -0.0389  0.2007
36224W        W79141   9.881   0.428  21.683  0.0497 -0.5416  0.3916
36225W        W79142   7.715   3.158  20.301  0.0426 -0.1938  0.0310
36226W        W79143   9.186   2.459  19.189  0.1363 -0.0869  0.2237
36227W        W79144   9.485   1.191  18.768  0.2597  0.1190  0.1174
36228W        W79145   7.387   3.965  20.986 -0.4796 -0.0355 -0.1273
36229W        W79146   8.150   1.801  21.488  0.0173 -0.0040  0.1637
36230W        W79147   7.930   2.444  21.089  0.3004  0.2026  0.2071
36231W        W79148   7.691  33.901  22.945 -0.0545  0.0846 -0.5554
36232W        W79149   6.126   0.055  21.370 -0.1989  0.2426  0.3209
36233W        W79150  10.336   0.608  21.281  0.4230  0.0371  0.0130
36234W        W79151   6.744  34.412  19.367 -0.1264 -0.2006  0.3274
36235W        W79152   8.247   0.014  20.065  0.0410  0.2961  0.0391
36236W        W79153   9.615   0.152  20.978 -0.3596 -0.2561  0.3183
36237W        W79154  10.194   2.804  21.201 -0.3953 -0.2547  0.1921
36238W        W79155  11.181   0.871  22.781  0.4896  0.4374  0.0587
36239W        W79156   9.659   2.897  18.137 -0.1831 -0.3869  0.0482
36240W        W79157  11.983   3.315  21.662 -0.1419  0.1962 -0.0169
36241W        W79158  11.007   1.179  23.224 -0.4532 -0.2251 -0.3381
36242W        W79159   6.392  32.605  21.345  0.3029 -0.0826 -0.4350
36243W        W79160   7.587   1.158  18.069 -0.0954 -0.1514 -0.0951
36244W        W79161   6.474   3.753  22.050  0.1314  0.2320  0.2094
36245W        W79162   7.943   3.361  22.816  0.2092  0.2041 -0.3980
36246W        W79163   7.994   2.687  19.489  0.1584  0.3214 -0.0632
36247W        W79164   9.532   3.045  19.580 -0.2273 -0.1003 -0.0324
36248W        W79165   9.160   1.860  19.176 -0.4308  0.2667 -0.2424
36249W        W79166   9.078   2.695  22.182 -0.2406 -0.1613 -0.0422
36250W        W79167   9.287  32.965  21.389  0.1369  0.3065  0.2941
36251W        W79168   9.911   1.520  22.498 -0.0271 -0.1476  0.1019
36252W        W79169   9.307   1.571  20.950  0.0927  0.1060  0.1023
36253W        W79170   8.781   0.031  16.877  0.0325  0.1030 -0.4103
36254W        W79171  10.866   4.656  21.443  0.0263 -0.1612 -0.2056
36255W        W79172   8.119   4.514  20.831 -0.0982  0.2662 -0.3200
36256W        W79173   6.102   1.261  19.206  0.1819 -0.0548  0.0874
36257W        W79174   9.072   4.180  21.855  0.0284 -0.1378  0.0898
36258W        W79175   9.890   0.773  21.318 -0.0448 -0.1862 -0.0773
36259W        W79176   7.211   0.796  22.879 -0.2252  0.0395  0.1013
36260W        W79177  10.110   2.001  21.671 -0.1513 -0.0993 -0.1935
36261W        W79178   7.249   1.728  19.287  0.1422 -0.1157 -0.2632
36262W        W79179   5.978   1.862  23.449 -0.3096  0.0210 -0.1499
36263W        W79180  10.096  33.386  20.336 -0.2377  0.0378 -0.0440
36264W        W79181  11.001  33.505  20.526 -0.0039 -0.3595 -0.0347
36265W        W79182   7.489   2.108  21.024 -0.4722  0.0915  0.1541
36266W        W79183  11.330   2.771  20.509  0.0050 -0.0206 -0.1239
36267W        W79184   9.117   1.835  15.584  0.0846 -0.0407  0.1001
36268W        W79185   7.554  34.023  18.518  0.1228  0.1087 -0.2204
36269W        W79186   7.754   2.981  21.940 -0.0256  0.2400 -0.1545
36270W        W79187   7.922   1.885  21.011 -0.1526  0.1607 -0.1667
36271W        W79188   8.913   2.563  21.507  0.0836  0.2785  0.1869
36272W        W79189   8.422   0.333  18.833 -0.0314  0.3676  0.2148
36273W        W79190  12.395   2.164  20.272  0.1402 -0.2156 -0.1709
36274W        W79191   8.393   1.927  19.613 -0.1653  0.0868  0.1241
36275W        W79192   9.280   2.143  21.658 -0.0085 -0.0941  0.1476
36276W        W79193  11.129   1.046  23.689 -0.2052  0.1857  0.2808
36277W        W79194   9.449   0.207  21.497  0.0925 -0.0877 -0.1529
36278W        W79195   9.644   2.624  17.268  0.4068 -0.3630  0.2106
36279W        W79196   8.752   0.603  18.460 -0.0125 -0.0121 -0.3907
36280W        W79197   7.375   3.683  22.152  0.0365 -0.1180  0.1630
36281W        W79198   8.390  33.995  21.442 -0.3425  0.0603 -0.1166
36282W        W79199   9.137   0.306  20.799  0.2415 -0.1202 -0.4928
36283W        W79200   7.282   1.315  22.066 -0.3231  0.0905  0.0981
36284W        W79201   9.993   1.876  22.185 -0.0906 -0.0615 -0.1991
36285W        W79202  10.319   0.380  19.216  0.0887  0.2592 -0.1802
36286W        W79203   8.692   3.914  22.527  0.1039  0.1967 -0.0455
36287W        W79204   8.818   2.348  18.405 -0.1811 -0.3302 -0.0325
36288W        W79205   9.705   0.628  22.116 -0.0174 -0.2196 -0.1104
36289W        W79206   6.197   0.892  22.694  0.0449  0.1484  0.2165
36290W        W79207   7.247   3.133  21.974 -0.0774 -0.1652  0.0247
36291W        W79208  10.197   3.312  22.579 -0.1170 -0.0369  0.2670
36292W        W79209   8.658   2.874  22.455 -0.0554  0.0430  0.1198
36293W        W79210   8.050   0.835  21.829  0.1395  0.0438 -0.2314
36294W        W79211   7.325   1.175  19.239  0.2007 -0.0773 -0.0270
36295W        W79212   8.611   4.881  21.275 -0.0075 -0.1150 -0.0704
36296W        W79213   7.789   3.712  20.596  0.0195  0.0509 -0.2648
36297W        W79214   9.142  34.472  19.881  0.1500 -0.2281  0.0508
36298W        W79215   8.928   3.079  19.251 -0.0897 -0.1042 -0.0298
36299W        W79216   7.356   4.342  18.873  0.3162 -0.2737 -0.1633
36300W        W79217   9.241   2.814  24.155 -0.0881  0.0745 -0.0831
36301W        W79218   9.415   4.379  19.572 -0.1033  0.2867  0.0915
36302W        W79219  11.131   0.121  23.197  0.0652 -0.2876  0.3158
36303W        W79220   6.954   1.074  21.817 -0.1662  0.1988  0.2184
36304W        W79221   8.843   1.973  17.521 -0.1765  0.1091  0.2119
36305W        W79222   6.591   3.874  21.538  0.0178  0.0492 -0.1058
36306W        W79223   9.823  34.485  17.935 -0.4193 -0.2086  0.1287
36307W        W79224   9.196   4.607  19.024 -0.0015 -0.2257  0.0918
36308W        W79225   7.142  34.436  21.915 -0.2091 -0.2359  0.1953
36309W        W79226   9.736   2.686  20.457 -0.3795  0.0651  0.1189
36310W        W79227   6.633   4.249  21.176  0.1335 -0.0463  0.0217
36311W        W79228   7.656  34.621  21.788  0.1171 -0.0700 -0.2114
36312W        W79229   8.849   1.582  18.857  0.0254 -0.0730  0.1237
36313W        W79230  10.150   2.214  23.292 -0.1127 -0.0354  0.0366
36314W        W79231   7.434   4.736  22.410  0.3044  0.0051 -0.0264
36315W        W79232   8.035   0.716  18.799  0.1884  0.0717  0.0731
36316W        W79233   9.589   1.635  23.582  0.1796  0.3579  0.0061
36317W        W79234   8.356   0.379  20.934 -0.2303  0.2017  0.2002
36318W        W79235   5.684   3.789  21.926  0.0149 -0.1757 -0.0027
36319W        W79236   9.052   3.392  20.538  0.0723  0.1539  0.3371
36320W        W79237   8.671   1.265  19.230  0.0798 -0.1559  0.1344
36321W        W79238   9.228   3.418  19.850  0.3654  0.0722  0.0862
36322W        W79239   7.877   1.232  23.575 -0.1867 -0.2230  0.0708
36323W        W79240  10.504   1.950  21.989  0.0116 -0.0192  0.0251
36324W        W79241  10.042   1.744  19.574 -0.1914 -0.2457  0.3360
36325W        W79242   8.328   2.167  20.944  0.0397 -0.1522 -0.1050
36326W        W79243   9.410   0.198  20.255  0.0667 -0.0023  0.3208
36327W        W79244  12.141   0.861  22.921  0.2340 -0.0260 -0.4646
36328W        W79245   8.208   1.432  19.433 -0.3014  0.2305  0.1192
36329W        W79246   7.891   4.417  21.642 -0.4821 -0.2064  0.1190
36330W        W79247  11.104  32.662  22.755  0.1271  0.1234 -0.3028
36331W        W79248  10.514   2.199  19.570 -0.1490 -0.0377 -0.0880
36332W        W79249  10.071   1.277  20.375 -0.0661 -0.1114  0.2221
36333W        W79250   6.928   0.110  22.235 -0.0554  0.4854 -0.1197
36334W        W79251   6.501   3.245  21.828 -0.4026  0.0197 -0.1249
36335W        W79252   9.920   2.717  17.674 -0.1773 -0.1500  0.1073
36336W        W79253   9.048   0.296  22.392 -0.1188  0.0113  0.1489
36337W        W79254   7.151   2.242  22.436  0.1466 -0.0213  0.0253
36338W        W79255   9.520   2.556  19.547 -0.0673 -0.1853 -0.2174
36339W        W79256   7.538   1.818  20.664 -0.1904 -0.3697  0.2071
36340W        W79257   9.141  34.538  19.369  0.1345 -0.0513 -0.0764
36341W        W79258   9.184   1.638  17.350  0.0659 -0.0190 -0.0155
36342W        W79259   8.111   1.683  19.936 -0.0532 -0.1216  0.2933
36343W        W79260  12.497  33.707  22.636 -0.0131  0.3721 -0.0359
36344W        W79261   9.839   1.528  19.107 -0.2507 -0.0723 -0.2173
36345W        W79262  10.447   0.641  20.686  0.0062 -0.1678 -0.3558
36346W        W79263   7.069   2.018  21.939  0.1100 -0.4515 -0.2216
36347W        W79264  11.158   1.793  20.676  0.1107 -0.0622 -0.1287
36348W        W79265   7.167   1.532  21.638  0.1060  0.0722  0.0079
36349W        W79266  10.827   4.764  23.246 -0.1526 -0.1522  0.0383
36350W        W79267   8.684   1.174  20.618 -0.3180 -0.2760 -0.1636
36351W        W79268   8.794   0.773  20.884  0.2265 -0.0642  0.0352
36352W        W79269   7.700   2.597  17.941  0.0999 -0.1554 -0.0526
36353W        W79270   7.399   0.226  22.855 -0.2765  0.0268 -0.1071
36354W        W79271  11.509   2.639  20.061  0.1566  0.0173 -0.1032
36355W        W79272   9.539   1.459  20.484 -0.0080  0.1522  0.0943
36356W        W79273  12.204   0.083  21.757  0.0141 -0.0474 -0.1976
36357W        W79274   8.758   1.482  21.531 -0.1484 -0.1032 -0.0231
36358W        W79275   6.456   1.119  20.174  0.2680 -0.1460 -0.4258
36359W        W79276   9.823   3.237  19.127 -0.0410 -0.1252  0.1095
36360W        W79277   9.888   1.584  20.014  0.2927  0.0281 -0.2624
36361W        W79278   7.334   2.831  24.787  0.1015 -0.0513  0.1445
36362W        W79279   9.480   0.605  21.039  0.0402  0.2395 -0.0896
36363W        W79280   7.518  34.025  22.420  0.0469 -0.1940 -0.3327
36364W        W79281   9.022  33.262  21.087 -0.3138  0.3503 -0.3034
36365W        W79282   8.868  34.530  22.517 -0.2567  0.1074  0.3017
36366W        W79283   7.552   1.290  20.518 -0.1332  0.1039  0.1055
36367W        W79284   6.605  33.800  22.559 -0.3533 -0.3620 -0.1510
36368W        W79285   9.968   2.427  21.476 -0.2400 -0.1980 -0.1149
36369W        W79286   9.366   0.683  18.523 -0.1072 -0.2051 -0.1959
36370W        W79287  10.316  33.094  21.478  0.0433 -0.0425  0.0103
36371W        W79288   9.667  34.315  19.923 -0.1619 -0.0818 -0.0071
36372W        W79289   9.744   0.232  18.740 -0.4569  0.1040  0.4420
36373W        W79290   7.306   4.261  22.163  0.1208  0.0927  0.1522
36374W        W79291   9.520   0.314  22.556  0.2223  0.0288 -0.0981
36375W        W79292   7.528   0.699  19.448 -0.3138  0.2203 -0.0428
36376W        W79293   9.723  34.391  22.888 -0.2956 -0.1541 -0.3268
36377W        W79294   8.908   2.383  20.913 -0.0133 -0.2140  0.1809
36378W        W79295   9.019  34.547  22.051  0.0452 -0.0976  0.3770
36379W        W79296   7.738   0.494  21.670 -0.0499 -0.2102  0.2481
36380W        W79297   6.377   0.413  21.138 -0.2410 -0.1047 -0.0946
36381W        W79298   7.633   1.228  22.787  0.1095  0.1980 -0.0230
36382W        W79299   5.146   0.786  18.033 -0.0805  0.2131  0.1632
36383W        W79300   8.136   0.031  19.495  0.0417  0.0668 -0.1507
36384W        W79301   9.001   1.240  19.703 -0.5197  0.3767 -0.1573
36385W        W79302  12.773   1.632  23.582  0.3311 -0.0745  0.1669
36386W        W79303   7.905   1.073  19.607  0.1776 -0.1925  0.0881
36387W        W79304   8.550   2.759  23.945  0.1574  0.0573  0.3212
36388W        W79305   9.018   3.423  21.061 -0.1015  0.2343  0.2789
36389W        W79306  10.076  34.227  18.345  0.0978  0.0029  0.2117
36390W        W79307   8.018   3.333  21.468  0.2783 -0.1937 -0.1660
36391W        W79308   6.946   3.095  21.121  0.0034 -0.2217 -0.0674
36392W        W79309  10.090   2.286  19.260 -0.1680 -0.1872  0.0324
36393W        W79310  10.515   0.282  22.448 -0.1538 -0.1754 -0.0810
36394W        W79311   9.269   1.003  20.742  0.0216 -0.1183  0.0423
36395W        W79312   8.214  34.643  20.568  0.0437  0.4774 -0.3016
36396W        W79313  12.161   1.520  22.281  0.1286 -0.3190  0.3342
36397W        W79314   8.487   2.130  22.884 -0.0587 -0.1044  0.0443
36398W        W79315   7.768   0.931  20.885  0.0273 -0.2697 -0.0991
36399W        W79316   7.086   1.147  20.240  0.0143 -0.0146 -0.1486
36400W        W79317   9.391  34.526  22.383 -0.0858 -0.0066 -0.2086
36401W        W79318   8.750   1.688  21.051  0.1025 -0.2772  0.2337
36402W        W79319   8.802  33.812  22.034 -0.2466 -0.2565 -0.0307
36403W        W79320   8.752   2.396  22.449  0.0147 -0.0674  0.3713
36404W        W79321   7.500   1.168  21.419  0.1163  0.0330 -0.0824
36405W        W79322   7.816  33.558  22.249 -0.3125  0.5737 -0.1295
36406W        W79323   8.599   2.087  17.981  0.0142  0.0403  0.1909
36407W        W79324   7.835   4.291  22.738  0.0723  0.1009 -0.3151
36408W        W79325   8.027   0.220  22.640 -0.3616 -0.2344  0.1796
36409W        W79326   8.257   4.596  21.333  0.0014  0.0876 -0.1672
36410W        W79327   9.977   1.996  20.494 -0.1455 -0.0982  0.2046
36411W        W79328   9.461  33.580  21.172  0.2388 -0.2033 -0.1364
36412W        W79329   9.779   2.975  20.836 -0.0504  0.1654 -0.1093
36413W        W79330   8.188   1.374  18.833 -0.1901  0.0560 -0.0586
36414W        W79331   9.083   3.552  21.707  0.1588  0.0575 -0.2044
36415W        W79332   7.822   3.299  18.694  0.0169  0.0561 -0.0952
36416W        W79333  10.317   0.943  17.797  0.2495 -0.0560  0.1756
36417W        W79334   8.240   4.923  19.071 -0.1263  0.1996  0.1075
36418W        W79335   8.002   0.537  19.725 -0.1926  0.0214 -0.1457
36419W        W79336  11.025   0.478  16.791 -0.3768 -0.1633 -0.0303
36420W        W79337  11.354   1.312  20.750  0.1672 -0.4209 -0.3099
36421W        W79338  11.447   0.789  20.881 -0.0380  0.2041 -0.1608
36422W        W79339   7.320   4.207  21.514  0.0572 -0.2328 -0.1100
36423W        W79340   8.189   3.227  20.500  0.0527  0.2963  0.0404
36424W        W79341   7.924   1.074  18.509  0.4454  0.3858  0.0745
36425W        W79342   9.449   2.491  21.362  0.1970 -0.1666 -0.0801
36426W        W79343  12.128   0.205  23.088 -0.0227  0.1730  0.1845
36427W        W79344   7.489   4.158  23.179  0.0942  0.1583  0.0746
36428W        W79345  10.276   1.887  20.124  0.1540 -0.1975  0.1148
36429W        W79346   6.237   1.344  21.068 -0.2761 -0.0880 -0.0034
36430W        W79347   8.569   3.044  20.237 -0.0204 -0.0227 -0.1795
36431W        W79348  10.363  32.147  21.208 -0.0380 -0.0192 -0.1383
36432W        W79349   8.453   2.761  18.188 -0.0931  0.1356  0.0998
36433W        W79350   8.437   1.565  20.351 -0.0317  0.2033  0.2049
36434W        W79351   8.807   2.159  19.349  0.0136 -0.1322  0.0290
36435W        W79352   6.286   4.580  22.065 -0.2239  0.1497  0.1443
36436W        W79353   5.300   2.875  22.731  0.1391  0.0349 -0.2122
36437W        W79354   7.215   2.594  21.991 -0.0019  0.2163 -0.0486
36438W        W79355  11.337   1.209  19.394 -0.0571 -0.3461 -0.2814
36439W        W79356   7.158   1.314  23.127 -0.2253 -0.3027  0.0040
36440W        W79357   9.132   0.492  21.917  0.1566 -0.0846  0.0219
36441W        W79358   9.370   3.102  21.133  0.1381 -0.2102 -0.3329
36442W        W79359  11.306  34.410  20.032 -0.0799  0.1566 -0.2385
36443W        W79360   8.890   1.754  19.556 -0.0722 -0.0777  0.2480
36444W        W79361   7.948   1.629  20.535  0.3583 -0.2385 -0.0844
36445W        W79362   9.419   2.000  20.695  0.1133  0.2861 -0.0326
36446W        W79363   8.592   2.624  22.010 -0.0807  0.2042 -0.3104
36447W        W79364   8.233   1.359  18.269  0.0434  0.0474 -0.3778
36448W        W79365   9.496   2.707  21.904 -0.5496  0.0594  0.1338
36449W        W79366   6.949   0.739  21.020 -0.1332 -0.2957  0.1425
36450W        W79367   8.369   3.490  17.684 -0.1220  0.1020  0.1369
36451W        W79368   8.986   1.222  21.069  0.0172  0.3159 -0.1964
36452W        W79369   9.484   1.219  19.900 -0.3432  0.2384  0.1241
36453W        W79370   8.835   2.161  21.857  0.2687 -0.1642 -0.1070
36454W        W79371   7.060   0.919  19.595 -0.0348 -0.0780  0.3275
36455W        W79372   9.179   1.337  19.280  0.0719 -0.0550  0.1105
36456W        W79373  10.493  34.662  21.207 -0.1638 -0.2774  0.1320
36457W        W79374  10.550   4.861  18.582  0.1014 -0.1227 -0.0565
36458W        W79375  10.980   2.288  19.833  0.2142  0.0467  0.0598
36459W        W79376   9.731   2.006  21.305  0.0143  0.2383 -0.0094
36460W        W79377   7.217   0.395  23.424 -0.1117  0.1508 -0.0013
36461W        W79378   9.846   1.467  21.468  0.2785 -0.1801  0.1364
36462W        W79379  10.683   0.376  21.014 -0.3579 -0.1142 -0.0997
36463W        W79380   7.847   0.458  19.195 -0.1529  0.0157  0.1019
36464W        W79381   7.517   0.899  21.837  0.0164 -0.1759  0.2304
36465W        W79382   7.030   2.904  21.600 -0.3771  0.2196  0.0092
36466W        W79383  13.010  33.968  22.841 -0.1200  0.4490 -0.1078
36467W        W79384   9.631   1.154  22.256  0.0301 -0.0156  0.0688
36468W        W79385   8.931   4.558  19.519 -0.1516  0.0556 -0.1005
36469W        W79386  10.936  33.911  23.320  0.3651  0.0346  0.2599
36470W        W79387   9.152   3.965  22.791 -0.0821 -0.1559  0.2389
36471W        W79388   8.166   3.108  24.805  0.1423  0.0069 -0.0353
36472W        W79389   7.667   2.870  21.112 -0.0522 -0.0353  0.1634
36473W        W79390   7.638   2.320  21.986 -0.0751 -0.1387  0.0561
36474W        W79391  11.079   3.121  20.761 -0.0276 -0.0506  0.0192
36475W        W79392   9.125   4.026  20.746 -0.1310  0.0142  0.2278
36476W        W79393  11.088   4.084  20.245 -0.0857 -0.4141 -0.4662
36477W        W79394   9.202   1.659  20.099 -0.1840 -0.1771  0.0250
36478W        W79395  10.317   1.369  19.956 -0.2862  0.2907  0.2824
36479W        W79396   7.447   0.465  20.943  0.1571  0.0209  0.2287
36480W        W79397   8.746   0.441  17.322  0.0436  0.2422 -0.0473
36481W        W79398   8.417  34.490  18.637  0.1152 -0.0662  0.1320
36482W        W79399   9.066   0.666  20.462  0.2184 -0.4100 -0.1257
36483W        W79400   9.049   0.961  18.238  0.1526  0.0836  0.1144
36484W        W79401   9.479   3.799  19.558 -0.2176 -0.0362  0.4157
36485W        W79402   7.630   3.266  22.404 -0.1349  0.0343 -0.0665
36486W        W79403  10.837  33.694  21.148 -0.1162 -0.2202  0.0719
36487W        W79404   7.867   2.770  22.753 -0.1567  0.1330  0.0658
36488W        W79405   6.333   1.924  20.377 -0.2063 -0.1555 -0.1421
36489W        W79406   8.962   0.814  19.300 -0.1990  0.1144 -0.0375
36490W        W79407  10.393   3.403  20.101 -0.0932  0.0384  0.0539
36491W        W79408   8.344   0.705  20.554 -0.0065 -0.3639 -0.0264
36492W        W79409   7.572   2.815  19.775 -0.2455 -0.3344 -0.0705
36493W        W79410   8.970   0.475  18.936  0.0971  0.0141  0.1364
36494W        W79411  11.533   3.856  20.363  0.1172  0.0496 -0.2433
36495W        W79412   8.376  34.437  21.061  0.1873  0.3600  0.2777
36496W        W79413   8.913   2.529  23.713  0.5188  0.0216 -0.1145
36497W        W79414   9.555   3.451  20.855 -0.2220  0.2546  0.1593
36498W        W79415   9.542   0.135  21.980 -0.0740  0.0205  0.0816
36499W        W79416   7.705   1.527  22.348  0.0172  0.0969 -0.3668
36500W        W79417   7.353  34.439  17.259 -0.2798 -0.0548  0.3468
36501W        W79418   8.361   1.351  21.810 -0.0692 -0.1324  0.0602
36502W        W79419   8.340   1.659  20.805 -0.0213  0.2646 -0.1830
36503W        W79420  11.800   4.205  18.247 -0.0193  0.1791  0.1155
36504W        W79421   5.825   2.303  23.640  0.3282  0.1608 -0.3187
36505W        W79422   7.920   4.767  22.542 -0.1756  0.2043  0.0787
36506W        W79423   6.810   0.077  22.709  0.0296 -0.1847 -0.3063
36507W        W79424   9.210   2.107  21.133 -0.0400 -0.0879 -0.3701
36508W        W79425   9.311   2.382  23.114 -0.1102  0.0862 -0.2795
36509W        W79426   9.887   4.394  18.282 -0.6116 -0.1185  0.0867
36510W        W79427   9.538   0.944  20.366 -0.0462 -0.2849  0.0029
36511W        W79428   8.727   0.708  20.111  0.1960 -0.2286 -0.0707
36512W        W79429   5.958  32.732  23.637 -0.0639  0.1231  0.1045
36513W        W79430   5.993   2.516  21.924  0.1784 -0.0228  0.1542
36514W        W79431  10.862   1.337  21.598 -0.0141 -0.1645 -0.0654
36515W        W79432   8.332   0.534  21.443  0.2625  0.1560 -0.2214
36516W        W79433   8.410   0.071  17.894  0.1512 -0.0153  0.1150
36517W        W79434   8.706   3.703  20.782 -0.0680  0.1020 -0.2682
36518W        W79435   7.766   1.425  21.015 -0.0863 -0.3406 -0.0097
36519W        W79436   9.155   0.505  18.044 -0.0324 -0.1914  0.2790
36520W        W79437   9.632   1.824  21.775  0.4632 -0.1306 -0.0190
36521W        W79438  10.079   4.382  19.966  0.1036  0.0336  0.1778
36522W        W79439  10.812   0.113  21.651 -0.1481 -0.1165  0.0779
36523W        W79440   7.725   3.487  21.881  0.0691  0.0140 -0.0599
36524W        W79441  10.334   0.861  19.324 -0.2290  0.0980  0.0125
36525W        W79442   9.437   3.386  23.318  0.1400 -0.1648 -0.0236
36526W        W79443  10.132   2.582  24.731 -0.2326  0.0443 -0.1637
36527W        W79444   8.258   3.619  20.973 -0.1418  0.1527 -0.0687
36528W        W79445  10.496   0.692  22.786 -0.2512  0.0826  0.1909
36529W        W79446   7.915   0.551  21.096 -0.1965 -0.1423  0.2402
36530W        W79447   8.460   2.529  20.615  0.0064  0.1569 -0.1371
36531W        W79448   9.595   1.963  18.256  0.0284  0.0342  0.4447
36532W        W79449  10.162   1.115  22.724  0.2187  0.3288 -0.1755
36533W        W79450   6.616  34.550  23.676 -0.0871  0.2594  0.0842
36534W        W79451   8.951   1.157  17.793  0.1878 -0.0039  0.4243
36535W        W79452   8.751   3.429  22.369  0.2386 -0.4542  0.0889
36536W        W79453  11.255   2.572  22.838  0.2317  0.1759 -0.0385
36537W        W79454   8.909   1.796  25.724 -0.0437 -0.3015 -0.1657
36538W        W79455   7.497   2.492  22.800  0.0472 -0.4258  0.2736
36539W        W79456  10.898   0.029  24.347 -0.0433 -0.1302 -0.0809
36540W        W79457   7.395   3.010  23.286 -0.0984 -0.1185 -0.0137
36541W        W79458   5.303   0.872  24.853 -0.0262 -0.2935  0.1165
36542W        W79459  10.487   1.953  23.648 -0.2549 -0.3609 -0.2225
36543W        W79460   8.674  34.617  27.518  0.1834 -0.1519  0.0664
36544W        W79461  11.120   4.000  25.859 -0.2320 -0.0393  0.0781
36545W        W79462   9.928   1.479  25.649 -0.0295 -0.3283  0.1442
36546W        W79463   8.390   3.924  21.327  0.5207 -0.2044  0.2263
36547W        W79464   7.956   2.487  27.381  0.0441  0.1832 -0.0460
36548W        W79465   9.153   2.057  26.586 -0.1330  0.4067 -0.0827
36549W        W79466   8.326   1.539  23.258 -0.0561  0.0339 -0.2335
36550W        W79467   7.061   1.068  27.448  0.1909  0.0817  0.1741
36551W        W79468   7.321   3.018  22.811 -0.0300  0.1423  0.0882
36552W        W79469   6.534   2.203  24.271  0.0713  0.0556  0.0306
36553W        W79470   6.947   1.806  27.341  0.0988 -0.0679  0.0275
36554W        W79471   8.188  33.895  25.481  0.0121  0.2687 -0.0456
36555W        W79472   8.730   4.276  24.342  0.0251 -0.0763  0.1090
36556W        W79473   8.339  34.144  25.999  0.3006 -0.1235 -0.0338
36557W        W79474   9.436  34.066  27.727  0.0343 -0.0473 -0.0022
36558W        W79475   8.817   2.432  25.449 -0.0630 -0.2514  0.1188
36559W        W79476   6.752   1.226  23.938 -0.0844  0.1238  0.1003
36560W        W79477   7.523   2.677  23.635  0.1093  0.3012 -0.0208
36561W        W79478   6.559   0.955  24.903  0.2326  0.0225  0.1866
36562W        W79479   9.480   0.281  24.031 -0.1379 -0.0401 -0.0414
36563W        W79480  11.401   0.566  25.425  0.1873  0.3216 -0.1485
36564W        W79481   8.566   3.274  23.906  0.1769  0.1100  0.2505
36565W        W79482   8.580   1.735  24.195  0.0041  0.1258 -0.1625
36566W        W79483  10.325   2.315  26.720 -0.1388  0.1433 -0.0300
36567W        W79484   7.699   3.188  24.683 -0.1749  0.1906 -0.0771
36568W        W79485   7.407   2.246  25.967 -0.2137 -0.1031  0.2040
36569W        W79486   9.754   1.905  25.333  0.2076  0.4037  0.0941
36570W        W79487  11.246   2.517  24.321 -0.1545  0.2681  0.1199
36571W        W79488   9.490   1.629  24.124 -0.2584 -0.1160 -0.0690
36572W        W79489   9.724   4.330  27.757 -0.2904  0.0106 -0.0597
36573W        W79490   6.968   2.675  22.976 -0.2319 -0.0173 -0.4320
36574W        W79491   8.865   4.373  27.221  0.2629  0.4108 -0.2090
36575W        W79492   9.758   2.461  27.587  0.1299 -0.1249  0.0138
36576W        W79493   8.519   0.974  26.086 -0.1745 -0.0650 -0.3723
36577W        W79494   9.083   1.788  23.860 -0.0047 -0.1435 -0.1169
36578W        W79495   8.169   3.360  23.668  0.0891 -0.1302 -0.0258
36579W        W79496   8.240   0.878  24.037 -0.1928 -0.1533 -0.0094
36580W        W79497   8.873   2.701  27.355  0.1588 -0.0282 -0.2065
36581W        W79498   7.904   2.475  25.502 -0.1986  0.0617 -0.0396
36582W        W79499  10.317   2.069  30.772  0.1687  0.2903 -0.1008
36583W        W79500   9.681   3.060  22.330 -0.0280 -0.0533  0.0416
36584W        W79501   7.636   2.015  23.072  0.0144  0.1991  0.1826
36585W        W79502  10.676   1.050  21.242  0.0746 -0.1171 -0.1241
36586W        W79503  10.105   0.013  24.006  0.0594 -0.3182 -0.0905
36587W        W79504   9.748   0.991  23.064  0.3375  0.0814  0.2481
36588W        W79505   8.263   4.447  25.963 -0.2794 -0.1895  0.2512
36589W        W79506   7.451   0.565  25.858  0.3142 -0.1170 -0.1891
36590W        W79507  10.928   0.725  25.612  0.0639  0.1184 -0.0433
36591W        W79508  11.851   2.506  23.845  0.1694 -0.0073 -0.0805
36592W        W79509   9.404   1.125  24.354 -0.0775 -0.1939 -0.1248
36593W        W79510   7.835   3.486  25.078  0.1465  0.2580 -0.1475
36594W        W79511   6.392   0.901  23.672  0.0247 -0.3476  0.2102
36595W        W79512   9.801   3.058  23.302  0.1623  0.0055 -0.1394
36596W        W79513  10.404   1.580  22.328  0.0216 -0.1607 -0.2929
36597W        W79514   8.150   3.894  22.673 -0.0593  0.1653  0.0761
36598W        W79515   8.461   2.992  25.663 -0.2252 -0.2311 -0.1912
36599W        W79516   8.703   3.519  28.868  0.4176  0.0462 -0.3075
36600W        W79517   7.465   1.833  24.949 -0.2942 -0.0708  0.2376
36601W        W79518   8.513   1.621  22.787  0.1676 -0.2504 -0.3520
36602W        W79519   9.260   3.511  26.183  0.2486  0.1592 -0.1346
36603W        W79520   6.471   2.933  25.837 -0.3429 -0.0798  0.0375
36604W        W79521   9.536   0.466  26.034 -0.1445 -0.1273 -0.1022
36605W        W79522   8.143   2.582  24.880 -0.0692  0.1323 -0.0416
36606W        W79523  10.435   2.738  26.468 -0.0061 -0.1435 -0.1104
36607W        W79524   8.439   3.495  22.784  0.0320  0.0215  0.0237
36608W        W79525  10.675  33.605  25.350  0.1512  0.0206  0.0784
36609W        W79526   8.592   1.986  26.457  0.1276 -0.2265  0.1004
36610W        W79527  10.969   3.023  22.864 -0.0901  0.3486 -0.1509
36611W        W79528   6.987   3.092  25.758 -0.0182 -0.0873 -0.0758
36612W        W79529  11.329   0.858  25.902  0.1994 -0.0078  0.1361
36613W        W79530   9.785   1.552  23.061 -0.0976 -0.2492  0.0694
36614W        W79531   8.721   3.351  25.249 -0.0378  0.2259  0.0555
36615W        W79532   8.819   1.097  25.682 -0.1164  0.0668 -0.0712
36616W        W79533   9.664   4.124  26.213 -0.2014  0.2827  0.2578
36617W        W79534   8.179   3.741  23.148 -0.2230  0.1464  0.0743
36618W        W79535   7.393   3.588  25.249  0.3266 -0.5600  0.0167
36619W        W79536   9.464   3.097  20.497  0.2687  0.0316 -0.1034
36620W        W79537   6.911   0.887  25.985 -0.0968 -0.0256  0.0562
36621W        W79538   8.416   2.763  26.141 -0.2186 -0.0331  0.0356
36622W        W79539   9.487  34.025  24.052 -0.0989 -0.1119  0.0869
36623W        W79540   6.380  34.331  29.347 -0.0010  0.0991 -0.1317
36624W        W79541  10.711   0.908  26.016 -0.0254  0.0065 -0.4863
36625W        W79542   6.878   1.622  22.680  0.2597  0.0072  0.0962
36626W        W79543   9.893   3.079  25.163  0.0206  0.3983  0.1185
36627W        W79544   9.300   1.982  24.933  0.0868 -0.0270  0.0070
36628W        W79545   7.648   2.215  24.070  0.1437  0.1365  0.2656
36629W        W79546   6.999   2.024  25.139 -0.2696 -0.4448 -0.0199
36630W        W79547   7.165   3.323  26.285 -0.3271 -0.2371  0.0209
36631W        W79548   7.216   1.165  25.692  0.1748 -0.2195  0.1911
36632W        W79549   5.940   0.720  24.849  0.1665 -0.3551  0.0032
36633W        W79550   9.588   2.315  26.263  0.4012 -0.2121 -0.1488
36634W        W79551   5.679  33.580  24.116  0.2629  0.0007  0.0009
36635W        W79552  10.811   1.654  24.715  0.1211 -0.0705 -0.0822
36636W        W79553   8.082   1.294  26.744  0.1335 -0.1525  0.3071
36637W        W79554   6.161   1.971  23.871 -0.0682  0.1091  0.0010
36638W        W79555  10.085   2.295  29.613 -0.0751  0.1112 -0.0306
36639W        W79556  10.615   2.091  21.456  0.1666 -0.0003  0.0639
36640W        W79557   9.973   1.449  26.196 -0.2217  0.0002 -0.2704
36641W        W79558   9.856   1.353  24.399  0.0848 -0.1513  0.1793
36642W        W79559   8.448   0.480  26.894 -0.0601 -0.0685  0.1502
36643W        W79560   7.886   1.775  23.620 -0.1045  0.1521 -0.1513
36644W        W79561   8.536   2.190  24.480  0.0403 -0.0233  0.3318
36645W        W79562   9.077   4.420  24.736 -0.2229 -0.0230  0.1166
36646W        W79563   7.206   0.379  23.923 -0.0911 -0.1844  0.0311
36647W        W79564  11.027   2.726  23.319  0.2830 -0.0875  0.1127
36648W        W79565   7.751   2.233  23.568  0.1882  0.0365  0.2573
36649W        W79566   7.287   3.996  26.834 -0.1759 -0.1428  0.2620
36650W        W79567  10.834   0.184  24.829  0.0684 -0.0284 -0.0509
36651W        W79568   9.191   1.409  26.132  0.0610 -0.0228 -0.1107
36652W        W79569   7.636   0.514  23.187  0.0430 -0.2280  0.2635
36653W        W79570   8.038  33.929  22.507  0.4699 -0.0835 -0.0150
36654W        W79571   8.767   4.243  25.775 -0.0107 -0.2355 -0.5685
36655W        W79572   8.954   3.385  23.281 -0.1765  0.2938  0.1875
36656W        W79573   5.395   2.296  22.715  0.0658  0.1421 -0.0219
36657W        W79574   8.317   2.975  22.889 -0.0596 -0.0023 -0.0859
36658W        W79575   9.194  33.560  23.941 -0.0450 -0.0203 -0.2137
36659W        W79576   7.562   1.330  25.068  0.0722  0.1027 -0.2472
36660W        W79577   8.219   3.213  26.259 -0.2077 -0.0755  0.1022
36661W        W79578   6.764   2.322  23.751 -0.3109 -0.1218  0.0062
36662W        W79579   9.580   2.374  25.602  0.3752  0.2831  0.0026
36663W        W79580   8.718  34.462  22.973 -0.4483  0.3506  0.1859
36664W        W79581  11.446   0.405  26.956 -0.0644  0.1406 -0.3011
36665W        W79582  10.421   0.577  25.559 -0.0394  0.0282 -0.1883
36666W        W79583   9.130   3.639  23.789 -0.0713 -0.0157 -0.2017
36667W        W79584   9.182   0.975  22.030 -0.3624 -0.1808 -0.2962
36668W        W79585   9.051   1.054  21.511 -0.1898  0.4475 -0.1391
36669W        W79586   8.093   4.355  27.848 -0.0185 -0.0299  0.0136
36670W        W79587   8.997   1.531  24.983  0.0659  0.1266  0.2690
36671W        W79588   8.265   1.924  26.095 -0.1972 -0.1063 -0.0059
36672W        W79589   8.985   1.129  22.989  0.1388 -0.2587 -0.0459
36673W        W79590  11.787   0.459  23.359 -0.0465 -0.1234 -0.0681
36674W        W79591   7.959   2.828  26.393 -0.0848 -0.0488  0.1036
36675W        W79592  12.189   1.744  25.393 -0.0009  0.1188  0.0948
36676W        W79593  10.039   2.178  23.841 -0.0326 -0.2812  0.0116
36677W        W79594   6.369   0.049  24.177 -0.1504 -0.0447  0.0850
36678W        W79595   8.810   1.300  21.994  0.3305  0.0779 -0.1143
36679W        W79596   9.256   0.068  22.907  0.1565 -0.2942  0.0468
36680W        W79597   5.805   2.627  22.726  0.1939  0.1510 -0.1508
36681W        W79598  11.296   0.742  24.983  0.2466 -0.1305  0.4187
36682W        W79599   9.987   0.352  26.484  0.1592 -0.0549  0.1748
36683W        W79600  10.717   0.378  25.922  0.1807  0.2370 -0.1715
36684W        W79601   9.567   1.268  26.402 -0.0278 -0.3638  0.0297
36685W        W79602   9.249   1.269  23.837 -0.2815 -0.2437 -0.0412
36686W        W79603   7.921   2.378  25.984 -0.3039 -0.1815  0.1500
36687W        W79604   9.254   1.684  21.414 -0.1321 -0.1578  0.0336
36688W        W79605   8.108  34.619  25.716  0.0612 -0.2212 -0.0279
36689W        W79606   9.785   1.993  27.368  0.3147 -0.0421  0.1017
36690W        W79607  10.238   3.573  26.425 -0.0580 -0.1128 -0.3851
36691W        W79608   9.932   0.587  27.043  0.2640  0.1062  0.1478
36692W        W79609   9.985   0.294  25.246  0.0323  0.2260  0.0373
36693W        W79610  10.283   1.290  26.999  0.1322  0.1552 -0.0270
36694W        W79611   8.108   0.148  22.056  0.2554 -0.0137  0.0950
36695W        W79612   5.860   2.248  22.481 -0.1169 -0.0258 -0.2558
36696W        W79613   8.474   3.311  23.289  0.0968  0.0332 -0.1630
36697W        W79614   8.826   0.597  25.977 -0.2685 -0.0854  0.0086
36698W        W79615   9.562   3.406  25.555  0.2145  0.0629  0.1266
36699W        W79616   8.739   2.916  23.387  0.4304  0.0998  0.0498
36700W        W79617  10.637   1.213  27.351  0.1314 -0.0537  0.0996
36701W        W79618   8.187   1.956  22.521 -0.0600  0.1282  0.0481
36702W        W79619   7.408   0.651  25.091 -0.0737  0.1966 -0.1405
36703W        W79620   5.125   2.225  23.180  0.0697 -0.0885 -0.2237
36704W        W79621   6.522   1.322  23.400 -0.1221 -0.2798 -0.0098
36705W        W79622   6.250   1.306  25.660  0.3594 -0.0655  0.0620
36706W        W79623   8.998   1.966  24.570  0.4028  0.2854 -0.0303
36707W        W79624   9.317   2.190  22.168 -0.0690 -0.2520 -0.0996
36708W        W79625   8.280   0.160  25.318  0.2607  0.2724  0.1911
36709W        W79626   8.310   1.760  25.131 -0.0165 -0.0733  0.1464
36710W        W79627   7.538   3.730  28.171  0.0764  0.1208  0.0955
36711W        W79628   8.597   1.683  24.685 -0.0865 -0.0876 -0.1856
36712W        W79629  10.547  34.337  21.606  0.1793  0.0326  0.0441
36713W        W79630   8.255   2.585  24.411 -0.1809 -0.0901  0.1595
36714W        W79631   9.291   0.614  25.224 -0.3168 -0.0184  0.0468
36715W        W79632   7.280  34.542  23.664 -0.0163  0.0536 -0.1231
36716W        W79633   8.470   1.957  25.555  0.2271  0.2501 -0.2329
36717W        W79634   8.888   2.406  26.896  0.2745  0.0345  0.1152
36718W        W79635   6.722   3.901  26.257  0.1767  0.2679  0.0128
36719W        W79636   8.860   0.962  26.919  0.1598 -0.0800  0.0510
36720W        W79637   8.298   2.557  23.116  0.3255  0.0552  0.2332
36721W        W79638   8.852   2.675  22.983 -0.2311 -0.0909  0.1119
36722W        W79639   7.777   1.625  27.152 -0.2115 -0.1007  0.0023
36723W        W79640   9.036   1.854  26.192 -0.1247 -0.1435  0.1007
36724W        W79641   9.016   1.491  24.308 -0.0307  0.1352 -0.1784
36725W        W79642   5.872  34.339  24.259 -0.0993 -0.1757 -0.0017
36726W        W79643   8.113   2.035  24.100 -0.1044  0.0974 -0.2534
36727W        W79644  10.366   1.510  24.897  0.2684 -0.2934  0.1211
36728W        W79645   8.242   1.474  27.180 -0.4788 -0.1705  0.0855
36729W        W79646   6.951   1.917  26.188  0.1440  0.0431  0.1836
36730W        W79647   9.639  34.321  26.517 -0.1878 -0.1090 -0.2021
36731W        W79648  11.800   3.670  24.428  0.1950 -0.0594 -0.0146
36732W        W79649   7.188   2.090  22.908  0.0410  0.0345  0.0940
36733W        W79650   9.189   3.026  22.502 -0.0691 -0.3598  0.1906
36734W        W79651   7.282   1.740  25.832  0.0099 -0.1594 -0.0508
36735W        W79652   6.573   1.507  24.699  0.0902 -0.2474 -0.2983
36736W        W79653   9.261   0.889  26.214 -0.1434 -0.0154  0.0370
36737W        W79654   6.735   4.650  26.839  0.2157  0.0843 -0.1941
36738W        W79655   6.629   2.776  22.600  0.3405  0.0848  0.0969
36739W        W79656   7.731   1.773  26.142  0.0734 -0.0802  0.1007
36740W        W79657   9.552  34.494  23.723 -0.3731 -0.0245  0.0634
36741W        W79658   6.399   4.798  22.664 -0.1103 -0.0143  0.3650
36742W        W79659   7.843   0.930  26.396  0.1716  0.5623 -0.0854
36743W        W79660  11.264  34.532  26.940 -0.1880  0.0616 -0.2669
36744W        W79661   8.240   2.878  23.545 -0.1234  0.0260 -0.3238
36745W        W79662  10.954   0.901  27.801 -0.1077 -0.3840  0.0666
36746W        W79663   8.897  33.575  26.635  0.0005 -0.1074  0.1402
36747W        W79664  11.356   3.345  25.006 -0.0924 -0.3153 -0.2684
36748W        W79665   8.150   1.612  25.728  0.4034 -0.0184 -0.2656
36749W        W79666  10.218   3.571  27.036 -0.1406  0.2016 -0.0678
36750W        W79667   7.709   1.539  25.473  0.4357 -0.1501  0.2291
36751W        W79668  11.101   0.916  24.401  0.0002  0.0124 -0.0631
36752W        W79669   8.433   1.101  24.430  0.0343 -0.0530 -0.1382
36753W        W79670   8.528   2.956  26.660  0.3847 -0.1800 -0.3392
36754W        W79671  11.630   1.026  24.791 -0.1206 -0.1498 -0.2862
36755W        W79672   6.835   3.225  24.331  0.1275 -0.1578 -0.0700
36756W        W79673   9.351   0.738  23.707 -0.4844 -0.3047  0.2329
36757W        W79674   7.991   2.848  25.833  0.0076 -0.0772 -0.1527
36758W        W79675   9.176   2.931  24.676 -0.0797  0.1285 -0.1249
36759W        W79676   5.671   2.369  23.155 -0.2391  0.0783  0.0806
36760W        W79677   9.295   2.671  26.103  0.3611  0.0181 -0.1126
36761W        W79678   7.973  34.009  27.018 -0.0522  0.1495 -0.0959
36762W        W79679  10.464   4.364  25.074 -0.1871  0.0428 -0.0316
36763W        W79680   8.737   0.679  23.861 -0.1445  0.0165  0.1568
36764W        W79681   7.248   2.094  23.764 -0.1010 -0.2853  0.0613
36765W        W79682  10.323   0.847  27.211 -0.0541 -0.0905  0.4270
36766W        W79683   7.379   1.294  23.732 -0.0425  0.2853  0.0047
36767W        W79684   7.534   0.690  26.758  0.3177  0.1798 -0.1574
36768W        W79685   9.964   1.783  24.712  0.2977 -0.1378 -0.0361
36769W        W79686   9.515   2.887  22.877  0.0178 -0.0503  0.2064
36770W        W79687  10.195   0.221  24.729 -0.1817  0.1372 -0.0945
36771W        W79688   9.279   1.615  23.205  0.1051 -0.0784 -0.0239
36772W        W79689  10.240   2.659  23.104 -0.1608 -0.1062 -0.1874
36773W        W79690   6.416   1.913  22.912  0.0818 -0.2458 -0.1457
36774W        W79691  10.596   2.688  26.980  0.2020 -0.4422 -0.2583
36775W        W79692   8.838   3.191  22.841  0.3698  0.0971 -0.2493
36776W        W79693   9.975  34.572  26.201 -0.0538  0.2717  0.1235
36777W        W79694   8.594   3.689  23.575 -0.1704 -0.1639 -0.1148
36778W        W79695   7.787   1.976  24.493  0.1497  0.3330  0.0749
36779W        W79696   8.188  34.586  22.985 -0.0373 -0.0912  0.0009
36780W        W79697   6.659  33.567  25.450 -0.4166 -0.2073 -0.1220
36781W        W79698   8.386   2.424  26.553  0.1925 -0.0274  0.0353
36782W        W79699   6.581  33.783  23.157  0.0334 -0.0272 -0.1228
36783W        W79700   6.147   2.690  23.502 -0.0223  0.1381 -0.0552
36784W        W79701   8.737   2.228  25.956  0.1083  0.5048  0.0041
36785W        W79702  11.624   1.508  28.033 -0.3661 -0.1491  0.0184
36786W        W79703   8.633   2.188  24.003 -0.0271 -0.0024 -0.0337
36787W        W79704   9.309  34.369  25.627  0.1122 -0.1930 -0.1364
36788W        W79705   6.612   4.290  22.628  0.0174  0.4908  0.1301
36789W        W79706   8.338   0.510  26.207 -0.1295 -0.2010 -0.0173
36790W        W79707   8.852   2.471  26.368 -0.2861  0.1436  0.0580
36791W        W79708   5.716   2.175  26.921 -0.1829  0.0584 -0.5237
36792W        W79709   8.813   4.045  23.857 -0.1489  0.0754  0.2666
36793W        W79710   8.540  33.944  24.553  0.1488  0.1156  0.0178
36794W        W79711   8.946   1.052  24.619  0.1620  0.0244  0.0325
36795W        W79712   8.483   1.248  24.935 -0.1231  0.1010 -0.0080
36796W        W79713  10.675  34.434  24.723 -0.1503 -0.2486 -0.0074
36797W        W79714  10.460   0.500  25.073  0.0057  0.1205  0.0623
36798W        W79715   9.555   1.510  25.222  0.0851  0.0872 -0.3567
36799W        W79716   9.429   1.468  24.742  0.1650  0.0665  0.0400
36800W        W79717  10.774   0.716  24.037 -0.0573  0.2880  0.1855
36801W        W79718   6.907   2.082  23.344  0.1140 -0.1868 -0.0321
36802W        W79719   7.327   2.382  25.035  0.0770 -0.0917 -0.1153
36803W        W79720  10.680   0.785  26.492 -0.1316 -0.2918  0.0762
36804W        W79721   7.603   2.916  24.185 -0.0451  0.1395  0.0298
36805W        W79722   5.678   1.486  23.193  0.0048  0.2005  0.0642
36806W        W79723   6.424   1.416  22.826  0.0962  0.0735  0.1769
36807W        W79724   8.700   3.005  27.868  0.1357  0.5300  0.1594
36808W        W79725   9.458   0.866  24.864 -0.1218 -0.0695 -0.3056
36809W        W79726   7.725   3.277  26.301 -0.0343 -0.2372  0.2325
36810W        W79727  10.382   1.543  22.834  0.0564 -0.0493 -0.3638
36811W        W79728   9.314   0.826  22.574 -0.0383  0.1274  0.1849
36812W        W79729  10.495   5.630  26.224  0.0054  0.0226 -0.0247
36813W        W79730   8.737   0.683  22.250 -0.2266 -0.0789 -0.1465
36814W        W79731   7.531   4.695  24.785 -0.1105  0.1797  0.0088
36815W        W79732   5.659   2.206  24.113 -0.1820  0.0732 -0.0562
36816W        W79733   7.759   2.550  24.552 -0.3432  0.0854 -0.2100
36817W        W79734   8.239   3.514  25.424 -0.0746 -0.0231  0.2542
36818W        W79735  10.046   1.389  28.053  0.1265 -0.1709  0.0807
36819W        W79736   9.747   0.722  24.015  0.1108  0.0477  0.2423
36820W        W79737   9.203   2.212  24.146  0.0182  0.0572  0.0324
36821W        W79738  11.598   0.083  24.223  0.0090 -0.0165  0.0380
36822W        W79739   8.911   3.479  27.153  0.1984  0.0124 -0.0762
36823W        W79740   8.030   0.865  25.862 -0.2445  0.4356 -0.0767
36824W        W79741   7.650   1.734  21.447 -0.1706 -0.0318  0.0025
36825W        W79742   7.356   2.072  27.010  0.1638  0.1807 -0.1013
36826W        W79743  10.463   0.063  25.468  0.1019 -0.0877 -0.0732
36827W        W79744   7.391   2.517  27.450 -0.2101  0.1811 -0.0001
36828W        W79745  11.027   1.999  22.168 -0.2566  0.1310 -0.1382
36829W        W79746   5.971   1.340  23.659 -0.0002 -0.1884 -0.2819
36830W        W79747   7.310   1.905  24.246  0.0223  0.1031 -0.2721
36831W        W79748  10.274  34.499  25.052 -0.1084  0.1910 -0.0390
36832W        W79749   7.626   4.045  21.844  0.0282  0.0339 -0.0916
36833W        W79750   8.657   0.131  25.708  0.1724  0.0668 -0.1226
36834W        W79751   9.792   4.102  23.717  0.1081 -0.1279  0.2534
36835W        W79752   7.325   3.812  24.154  0.0631  0.3642  0.0780
36836W        W79753   7.870   2.751  26.964  0.1925 -0.1413  0.0757
36837W        W79754   7.714   1.081  24.183 -0.2546 -0.1866  0.1639
36838W        W79755  10.795   1.422  25.152 -0.2110  0.0332  0.0647
36839W        W79756   8.394  33.352  25.411 -0.1860 -0.0181 -0.1974
36840W        W79757   8.609   1.400  26.826 -0.0427 -0.2958 -0.2931
36841W        W79758   8.688   1.246  24.007  0.2213 -0.1416  0.0514
36842W        W79759  10.091   1.731  23.456  0.0173  0.0849 -0.3506
36843W        W79760   7.798   0.153  25.162 -0.0416  0.0399  0.2508
36844W        W79761   7.723   1.512  23.206 -0.0522 -0.1594  0.0065
36845W        W79762   8.088   3.574  22.267 -0.2255  0.2224 -0.3068
36846W        W79763  10.980   1.241  25.811 -0.1810 -0.2861  0.1742
36847W        W79764   7.494   1.795  21.895  0.5711 -0.1425 -0.2435
36848W        W79765   9.546   1.821  26.306 -0.0231  0.5062  0.0975
36849W        W79766   7.828   1.327  21.773 -0.0326  0.0310 -0.0280
36850W        W79767   6.526   3.572  24.625 -0.0720  0.2533 -0.0092
36851W        W79768  10.027   2.026  26.446 -0.0217 -0.0177  0.0030
36852W        W79769   8.272   1.782  26.798  0.0818  0.1921 -0.2304
36853W        W79770   8.431   3.571  27.047  0.0874 -0.0357  0.2230
36854W        W79771   6.095   2.369  24.350 -0.0532  0.1063  0.0587
36855W        W79772   9.739   2.227  24.834  0.0691  0.0325  0.2830
36856W        W79773   9.243   1.975  25.424 -0.0490  0.0807 -0.0390
36857W        W79774   6.458   3.630  24.117 -0.2625 -0.2419  0.2683
36858W        W79775   6.969   1.562  23.622  0.1688 -0.2272 -0.0566
36859W        W79776   8.422   2.408  23.625 -0.2741 -0.0151  0.0971
36860W        W79777   7.932  33.058  27.954  0.2171 -0.2946 -0.2390
36861W        W79778   8.217   2.070  24.764  0.2176  0.1557  0.0175
36862W        W79779  10.649   2.520  25.537 -0.1444  0.0198  0.3718
36863W        W79780   7.816  33.746  23.788  0.1494  0.0608 -0.0744
36864W        W79781   7.268   2.386  23.291  0.0714  0.2400 -0.1632
36865W        W79782   6.734   3.162  24.854  0.1059 -0.1073  0.0906
36866W        W79783   9.699   0.312  24.831  0.0672  0.1138 -0.0868
36867W        W79784   9.874   0.298  24.348 -0.1690 -0.4195 -0.0336
36868W        W79785   8.261   2.530  22.531  0.1250 -0.2662  0.1061
36869W        W79786   8.594   1.355  28.244 -0.2108  0.2297 -0.3512
36870W        W79787  10.140   2.908  26.873 -0.0371 -0.0465  0.1297
36871W        W79788   7.369   2.095  26.500 -0.0431 -0.1778 -0.0079
36872W        W79789   8.638   0.942  21.314  0.0849 -0.2497  0.1036
36873W        W79790  11.460   1.012  26.470  0.0485 -0.2756  0.0570
36874W        W79791   7.651   2.769  25.154 -0.4721 -0.2461 -0.0065
36875W        W79792   6.289   2.679  24.893  0.1488  0.0184  0.2619
36876W        W79793  10.593   2.469  23.401 -0.1594  0.2057  0.0069
36877W        W79794   6.983   3.225  23.429 -0.0629 -0.1090 -0.1513
36878W        W79795  11.467   2.202  24.745  0.0372 -0.0821 -0.1769
36879W        W79796   8.486  34.352  25.458  0.0467  0.1011  0.0061
36880W        W79797   9.811   1.010  21.778 -0.1071  0.1374  0.0356
36881W        W79798   9.581   0.089  25.476 -0.0763  0.0145  0.0703
36882W        W79799   8.133   1.325  26.200  0.2331  0.0566 -0.4112
36883W        W79800   6.822  34.096  23.970 -0.1313 -0.1089 -0.0968
36884W        W79801   6.480   3.443  23.247  0.1910  0.0175  0.2203
36885W        W79802   6.974   2.148  25.679 -0.1787 -0.0199  0.0872
36886W        W79803   9.948  33.760  28.838 -0.4269  0.1123  0.1499
36887W        W79804   8.645   1.499  26.159  0.0835  0.1375  0.2428
36888W        W79805   7.993   2.003  25.426  0.1304 -0.1609  0.1779
36889W        W79806   7.168   1.711  22.322 -0.1387 -0.0585  0.1428
36890W        W79807  10.947   2.148  23.461  0.2850 -0.2105  0.0786
36891W        W79808   7.035  34.551  25.304  0.0288  0.3771  0.1521
36892W        W79809   5.696   0.047  24.898 -0.0377 -0.0168 -0.0897
36893W        W79810  10.671   2.052  25.251 -0.0100 -0.3664  0.0416
36894W        W79811  10.370   1.635  24.439  0.0615 -0.2004 -0.1828
36895W        W79812   8.391   0.733  23.316 -0.1529  0.0835  0.0977
36896W        W79813  10.297   1.531  26.541 -0.1967  0.1421 -0.2297
36897W        W79814   8.513   2.583  21.138  0.1886  0.1151  0.0291
36898W        W79815   8.631   0.748  24.857 -0.1788  0.0350 -0.0701
36899W        W79816   9.451   0.568  28.391 -0.0482 -0.0352  0.0454
36900W        W79817   5.892   0.512  22.179  0.0190 -0.0794  0.0211
36901W        W79818   9.235   1.556  26.673 -0.0618 -0.2846  0.0079
36902W        W79819   8.823   2.601  24.326  0.1662 -0.1964  0.0662
36903W        W79820  10.537   2.873  22.693 -0.1540 -0.4341 -0.1738
36904W        W79821  12.094   0.784  25.640  0.0530 -0.0638 -0.1353
36905W        W79822   8.342   3.834  29.032  0.3530  0.0816 -0.2672
36906W        W79823   7.800  34.085  24.710 -0.3155 -0.1133  0.4565
36907W        W79824  10.406   3.035  22.183  0.0342  0.1718  0.0395
36908W        W79825   9.404   2.568  26.648 -0.1496  0.0811  0.2966
36909W        W79826  11.129   3.227  23.286  0.1187 -0.1366 -0.4407
36910W        W79827   9.566   1.034  25.348 -0.2819  0.3350  0.2679
36911W        W79828   7.986   2.603  23.986 -0.0341 -0.4240 -0.1578
36912W        W79829   7.650   1.110  27.623 -0.3382  0.0466  0.0479
36913W        W79830   7.371   1.554  27.456  0.0594  0.0092 -0.1860
36914W        W79831  11.413   1.709  27.601 -0.1302  0.0013  0.2299
36915W        W79832   7.842   0.543  24.109  0.2220 -0.0757  0.0636
36916W        W79833   8.050   3.052  25.347  0.2319 -0.0885 -0.0280
36917W        W79834   9.246   2.397  22.631  0.2020  0.0267 -0.1952
36918W        W79835   8.052   1.267  25.260 -0.0113 -0.0284  0.1241
36919W        W79836   8.164   1.617  24.405 -0.0623  0.0980  0.1003
36920W        W79837   8.009   1.234  24.615 -0.0681  0.2808 -0.0615
36921W        W79838   9.158   1.433  25.522 -0.0281 -0.1668  0.0734
36922W        W79839  11.006   1.211  26.394 -0.1008  0.0281  0.0464
36923W        W79840   9.188   2.061  23.474 -0.3280 -0.4212 -0.0688
36924W        W79841   9.485   1.344  22.738 -0.0212  0.0360  0.3257
36925W        W79842  10.724   1.041  26.888 -0.0311 -0.2768  0.1491
36926W        W79843   9.364   1.833  27.159  0.0633 -0.0867  0.4400
36927W        W79844   7.971   3.512  28.911 -0.1935 -0.0632  0.1274
36928W        W79845   8.806   2.473  24.873 -0.0924  0.1712 -0.1740
36929W        W79846   9.184  34.304  26.124  0.0279 -0.3437 -0.1748
36930W        W79847   6.027   3.169  23.390 -0.1505  0.1220 -0.1184
36931W        W79848   8.391   3.586  24.925 -0.2749  0.0636  0.3820
36932W        W79849  10.869   2.090  27.355 -0.1154 -0.0812  0.0214
36933W        W79850   7.760   1.648  24.086 -0.0555  0.3213 -0.2341
36934W        W79851   9.157   1.381  22.334  0.1857 -0.0029 -0.0662
36935W        W79852  10.904   2.932  26.441 -0.0407 -0.3974 -0.0635
36936W        W79853   8.387   0.840  26.544  0.4219  0.0776  0.0315
36937W        W79854   9.261   2.942  29.922 -0.2132  0.0198 -0.1656
36938W        W79855   9.223   1.705  27.703 -0.1307 -0.0458 -0.2774
36939W        W79856  10.185   1.861  26.914 -0.2491 -0.2777  0.2031
36940W        W79857  11.932   2.575  28.081 -0.0058  0.3846  0.2518
36941W        W79858   8.686   0.066  28.052 -0.1633  0.0809 -0.0894
36942W        W79859  11.208   3.437  29.192  0.1257 -0.0759 -0.4459
36943W        W79860   7.100   0.533  29.382  0.1647  0.1265  0.3273
36944W        W79861  10.193   3.611  28.963 -0.1853 -0.0704 -0.1299
36945W        W79862  11.273   3.995  30.525  0.1414  0.1976 -0.1304
36946W        W79863   9.616   3.722  27.008  0.0189  0.2021  0.0189
36947W        W79864   8.274   1.085  30.944  0.1244  0.1373 -0.1244
36948W        W79865   7.723   3.745  30.130 -0.0182  0.1206 -0.0845
36949W        W79866   8.040   0.428  27.301  0.1184  0.2758  0.1125
36950W        W79867   9.074  34.005  28.063 -0.2604  0.0363  0.3449
36951W        W79868   9.624   3.120  31.905  0.0945 -0.0307 -0.1025
36952W        W79869   7.571   2.999  27.513  0.0989  0.2458  0.0598
36953W        W79870  10.479   0.443  29.916  0.1383 -0.1946 -0.1160
36954W        W79871   8.327   2.325  28.411 -0.3506 -0.1792 -0.3890
36955W        W79872  10.871   3.108  29.350  0.2204  0.1892  0.0955
36956W        W79873   7.599   1.656  31.543  0.1440  0.0978 -0.3070
36957W        W79874   9.022   0.199  31.020 -0.3169  0.3627  0.1735
36958W        W79875  12.099   2.429  27.202 -0.3211 -0.0744 -0.3575
36959W        W79876   9.032   3.164  27.510 -0.1346  0.0362 -0.2445
36960W        W79877   9.291  34.417  28.801 -0.3665  0.0211  0.1000
36961W        W79878   6.103   0.704  29.942  0.0562 -0.2912 -0.0053
36962W        W79879  10.119   1.009  30.397  0.0860 -0.1089  0.0893
36963W        W79880  10.100   1.812  29.350 -0.2730 -0.1467  0.3620
36964W        W79881  10.243   2.717  28.250  0.1497  0.2658 -0.1735
36965W        W79882   8.837   3.008  28.687 -0.1655  0.2120 -0.0382
36966W        W79883   9.995   1.798  30.206 -0.1174 -0.3476  0.3051
36967W        W79884   6.062   1.944  29.015  0.0399  0.1639 -0.0036
36968W        W79885   6.212   3.041  29.699  0.2840  0.2292 -0.1584
36969W        W79886  10.126   2.330  28.596 -0.2746  0.1562  0.0571
36970W        W79887  12.233   2.695  27.658 -0.5415  0.3478 -0.0410
36971W        W79888  10.986   3.400  29.709 -0.3770  0.0144 -0.0508
36972W        W79889   7.844   2.167   0.413 -0.1072 -0.2805  0.0722
36973W        W79890   8.290   2.332  30.061  0.0893  0.4998  0.1883
36974W        W79891   9.556   2.125  29.523  0.0426 -0.0433 -0.2606
36975W        W79892   7.389   2.176  31.449 -0.0833  0.0286 -0.0964
36976W        W79893   9.044   3.429  28.501  0.0110  0.0099  0.0006
36977W        W79894   8.098   2.224  27.834 -0.0065  0.2203  0.0407
36978W        W79895  10.867   2.464  29.088  0.0831 -0.1282  0.0326
36979W        W79896   8.743   2.281  28.726  0.0604 -0.0766 -0.0138
36980W        W79897   6.852   3.301  29.044  0.0376 -0.0609  0.2183
36981W        W79898   9.670   2.526  28.675  0.3462 -0.1017 -0.0119
36982W        W79899  11.950   0.578  31.753 -0.0641 -0.2312 -0.3582
36983W        W79900   8.670   2.615  29.558  0.0111 -0.1762 -0.0371
36984W        W79901   9.622   1.067  25.891  0.0825  0.1212  0.2110
36985W        W79902   7.550   0.895  24.617 -0.3571  0.1839  0.2533
36986W        W79903  10.502   1.895  29.870  0.1090  0.0208 -0.2710
36987W        W79904   7.450   0.152  29.195 -0.0924 -0.0079  0.3203
36988W        W79905   9.323   3.930  29.402  0.0382  0.0646 -0.3749
36989W        W79906   9.949   0.295  29.788  0.1403 -0.0662 -0.0965
36990W        W79907  10.468   3.476  29.965 -0.0302 -0.0509 -0.1490
36991W        W79908   7.751   1.809  26.671  0.2596 -0.0845  0.0910
36992W        W79909  10.706   0.155  31.492 -0.1983 -0.1091 -0.1278
36993W        W79910   8.367   3.027  29.641  0.0451  0.0158  0.1061
36994W        W79911   8.769   0.609  27.977 -0.0599  0.1458 -0.0695
36995W        W79912   9.671   2.873  26.923  0.1277 -0.3659  0.1419
36996W        W79913   9.735   3.073  29.026  0.0805 -0.1116  0.0441
36997W        W79914  11.399   3.569  27.839  0.1331  0.0466  0.1172
36998W        W79915   7.604   0.153  27.329 -0.0336 -0.2887 -0.1005
36999W        W79916   7.098   2.783   0.906  0.1881  0.1334 -0.0757
37000W        W79917   5.365   0.094  31.223 -0.0078 -0.1235 -0.1929
37001W        W79918   8.271   1.775  28.239  0.1964 -0.1914 -0.2758
37002W        W79919  11.367   3.039  29.579  0.0156 -0.2151 -0.2020
37003W        W79920   8.035   3.344  30.458 -0.0003 -0.2872  0.3122
37004W        W79921   9.735  34.046  29.477 -0.1446 -0.1526  0.2981
37005W        W79922  10.401   2.917  27.787  0.0711  0.2236  0.0486
37006W        W79923   9.304   2.804  29.033 -0.0656 -0.0135 -0.0532
37007W        W79924   9.938   2.566  25.258  0.1207  0.1025  0.3794
37008W        W79925   9.580   1.376  27.960  0.0370  0.1402  0.1362
37009W        W79926  10.975   0.504  30.414  0.0005 -0.1088  0.0656
37010W        W79927   7.565   1.493  24.540  0.1337 -0.0443  0.0224
37011W        W79928   7.503   3.068  26.663 -0.1001 -0.2680  0.0441
37012W        W79929  11.622   3.192  29.169 -0.0482 -0.3162 -0.0538
37013W        W79930  10.278   0.717  26.700 -0.0449 -0.1894 -0.0801
37014W        W79931   7.752   2.912  28.416  0.1905  0.0798 -0.0032
37015W        W79932   8.578   2.049  30.383 -0.0548 -0.1139  0.0872
37016W        W79933  10.684   3.802  30.329 -0.1612 -0.2064 -0.1459
37017W        W79934   9.572   4.094  28.975  0.0638  0.1058  0.2395
37018W        W79935   6.010   1.375  30.717 -0.0250  0.0173 -0.0624
37019W        W79936   8.715   1.854  28.434 -0.1710  0.4188  0.0628
37020W        W79937   8.202  33.523  28.769  0.0330 -0.0759  0.1973
37021W        W79938   8.758   2.700  28.284 -0.0884  0.0554  0.0050
37022W        W79939   9.331   2.299  29.030 -0.1850 -0.0187 -0.1755
37023W        W79940   7.743  34.536  28.796 -0.0127  0.1734  0.2073
37024W        W79941  11.184  32.792  29.137  0.1431  0.0994  0.2242
37025W        W79942   7.778   3.150  30.113 -0.2048 -0.1398  0.0126
37026W        W79943  10.101   3.416  29.512  0.1160 -0.3802  0.0875
37027W        W79944   8.963   0.984  28.331  0.1545 -0.2893  0.0435
37028W        W79945  11.287   3.198  26.349  0.0756  0.0017  0.2117
37029W        W79946   7.329   2.553  28.834  0.1311  0.0362  0.2546
37030W        W79947   7.436  34.597  28.366 -0.1533 -0.1757  0.0480
37031W        W79948   9.097  34.612  29.193 -0.0053 -0.0423 -0.1917
37032W        W79949   8.060   0.466  29.637  0.0285  0.1562 -0.2257
37033W        W79950  10.722   2.966   0.629 -0.1537 -0.0305 -0.4381
37034W        W79951   8.410   1.022  27.189  0.0686  0.1173  0.0500
37035W        W79952  10.463   1.608  29.056  0.0811  0.1170 -0.2085
37036W        W79953   9.010   3.048  29.448 -0.0607  0.0174 -0.0167
37037W        W79954   5.666   1.536  29.602 -0.3385  0.1600 -0.2767
37038W        W79955  10.907  33.864  31.023  0.0847 -0.2393 -0.1508
37039W        W79956   8.326   3.193  28.705 -0.2389 -0.1849 -0.1148
37040W        W79957  11.168   3.825  29.515  0.3311 -0.1275  0.0724
37041W        W79958  11.596   3.321  27.479  0.3047  0.2705 -0.0041
37042W        W79959   6.661   2.262  30.682  0.0664  0.1540 -0.1788
37043W        W79960   8.867  34.665  28.689  0.0913  0.0961 -0.3123
37044W        W79961   8.349   1.924  28.790  0.4527  0.0008  0.0629
37045W        W79962   8.458   2.963  29.165  0.0980 -0.1823  0.0365
37046W        W79963   7.366   1.443  29.922  0.2596  0.0762 -0.2509
37047W        W79964  11.958   2.990  30.719  0.2727 -0.0154 -0.0083
37048W        W79965   9.387   2.409  27.138 -0.0524 -0.0301 -0.0800
37049W        W79966   8.924   4.209  29.510  0.0072  0.0086 -0.1761
37050W        W79967   9.653   0.713  30.323  0.2537  0.0896 -0.1499
37051W        W79968  11.882   0.318  29.949 -0.1529  0.0938 -0.0165
37052W        W79969   9.983   2.294  29.090  0.2660  0.0842 -0.1755
37053W        W79970   7.325  34.165  27.945 -0.2588 -0.2029  0.1886
37054W        W79971  11.167   4.176  28.021 -0.3319  0.0237  0.1837
37055W        W79972   9.859   3.461  27.837 -0.0964 -0.0643 -0.0016
37056W        W79973   7.824   1.666  28.385 -0.0478 -0.1155 -0.0655
37057W        W79974  11.124   4.258  28.545 -0.2664 -0.1720 -0.0283
37058W        W79975   8.142   0.750  28.790  0.1117 -0.0308  0.3459
37059W        W79976   4.877   1.294   0.281 -0.1826  0.0356  0.2148
37060W        W79977   9.877   2.198  31.609 -0.0955 -0.1550 -0.0301
37061W        W79978   6.974   1.055  25.170  0.0529  0.0630  0.0251
37062W        W79979   7.370   2.366  30.972 -0.0678 -0.3952  0.0136
37063W        W79980   9.894  34.312  28.666  0.3625 -0.0967 -0.0901
37064W        W79981  11.451   0.313  28.208 -0.2271  0.0685  0.0603
37065W        W79982   8.149   1.729  30.268  0.1235 -0.0406 -0.0464
37066W        W79983  10.841   3.271  28.218  0.0634 -0.0841 -0.1173
37067W        W79984   9.897   2.579  26.595  0.0617  0.0846  0.0110
37068W        W79985   8.956   0.518  27.065 -0.0337  0.1274  0.0013
37069W        W79986   6.949   1.968   0.100  0.1459 -0.0406  0.2375
37070W        W79987   9.297   3.267  26.783 -0.0164 -0.2207  0.0078
37071W        W79988   8.043   2.735  29.331  0.0234 -0.1938  0.1953
37072W        W79989   9.065   2.256  28.223 -0.0280 -0.2988 -0.2435
37073W        W79990  11.252   2.844  29.148 -0.2208 -0.0610 -0.1540
37074W        W79991   8.978   2.195  29.451 -0.0027  0.0153  0.0975
37075W        W79992  10.718   2.333   0.345  0.0848 -0.2717 -0.1055
37076W        W79993  11.835   4.161   0.897 -0.4075 -0.2618  0.0796
37077W        W79994   8.419   0.684  30.565  0.2426  0.3564  0.1658
37078W        W79995   8.346   2.710  27.669  0.0109 -0.0396  0.0092
37079W        W79996   9.239   0.204  28.091  0.3053  0.3539 -0.1209
37080W        W79997  11.250   4.368  27.236 -0.2879 -0.2800  0.2953
37081W        W79998  12.686  34.437  29.046 -0.3317 -0.1166 -0.2237
37082W        W79999   9.284   0.480  29.254 -0.0903  0.0269 -0.2229
37083W        W80000   9.414   1.535  28.848  0.2587 -0.0535 -0.0097
37084W        W80001  10.694   3.024   0.009 -0.1277  0.4198 -0.0345
37085W        W80002   9.673   1.887  29.099 -0.1753 -0.0828  0.1539
37086W        W80003   8.857   1.382  29.266 -0.3693  0.0386 -0.0786
37087W        W80004   7.552   2.352  27.896 -0.1289 -0.1623  0.2005
37088W        W80005  10.581   0.989  30.956  0.1015  0.0371 -0.2631
37089W        W80006   6.938   1.480  30.846 -0.3233  0.0491 -0.2686
37090W        W80007   7.213   3.017  31.157  0.1105  0.0805  0.0441
37091W        W80008  11.443   3.427  30.640 -0.0691 -0.2480 -0.0257
37092W        W80009  10.934   3.792  28.540  0.0864 -0.1699  0.3148
37093W        W80010   9.650   0.207  31.198 -0.0434 -0.2625 -0.1022
37094W        W80011   7.883   1.331  30.012  0.0605  0.2287  0.0683
37095W        W80012   8.783   4.654  27.607 -0.2344 -0.1413 -0.0696
37096W        W80013   6.637   2.115  27.658 -0.0073 -0.0079 -0.1221
37097W        W80014   8.348   1.745  27.730  0.0645 -0.1887 -0.0104
37098W        W80015  11.217   1.865  28.027 -0.0783  0.1470  0.0934
37099W        W80016   7.224   3.304  27.738 -0.4951  0.1576 -0.1788
37100W        W80017  11.720   2.765  29.969  0.0202  0.3015  0.0906
37101W        W80018   6.428   1.503  28.872  0.3074 -0.1640  0.2245
37102W        W80019   9.633   1.436  29.363 -0.0698 -0.2355  0.0382
37103W        W80020   7.901   3.683  29.355 -0.3876  0.1091 -0.2960
37104W        W80021   8.619  34.285  28.375 -0.2757 -0.2772  0.1097
37105W        W80022   6.947   1.414  26.977 -0.0138 -0.1968 -0.0469
37106W        W80023  11.317   0.831  29.165 -0.2658 -0.1129 -0.2428
37107W        W80024   8.406   3.561  26.552 -0.1828  0.0884  0.0500
37108W        W80025   7.740   1.421  31.125  0.0404  0.0258  0.1056
37109W        W80026  10.367   2.650  28.907  0.3898  0.1885 -0.1113
37110W        W80027   6.922   2.975  30.376  0.0071  0.1157  0.0749
37111W        W80028   8.760   2.228  29.891  0.1258 -0.2264  0.1157
37112W        W80029   8.644  34.182  27.847 -0.0406 -0.3300 -0.1219
37113W        W80030  10.020   2.901  28.659 -0.0698  0.0217  0.1240
37114W        W80031   6.085   1.721  31.794 -0.0222 -0.1943 -0.0359
37115W        W80032   7.628   1.308  25.959  0.2543  0.0003 -0.0450
37116W        W80033  10.621   0.694  29.134  0.0085 -0.1070  0.0313
37117W        W80034   8.724   0.872  29.234  0.3836  0.2465 -0.1506
37118W        W80035   8.078   2.352  28.865  0.2969  0.0724 -0.0081
37119W        W80036   8.486   4.648  28.588  0.1859  0.0213 -0.2628
37120W        W80037   7.840   1.607  27.710  0.1624 -0.0883 -0.1586
37121W        W80038   7.537   1.070  30.187  0.0310 -0.0960 -0.4927
37122W        W80039   9.008   1.547  31.327 -0.0221 -0.0951 -0.0772
37123W        W80040  10.077  34.614  29.280  0.3713  0.0174 -0.1919
37124W        W80041   8.211   1.855  29.286  0.1301 -0.1989  0.0311
37125W        W80042   9.927  34.228  27.596 -0.3015  0.1309  0.1300
37126W        W80043   9.166   1.467  30.623 -0.3052  0.2661 -0.2656
37127W        W80044  10.569   1.547  30.897  0.1540  0.0423  0.0882
37128W        W80045   9.575  33.729  29.987  0.0113 -0.0281  0.2593
37129W        W80046   9.366   1.044   0.581  0.0223 -0.0674 -0.0474
37130W        W80047   8.542   0.487  29.568  0.2214  0.1362  0.2418
37131W        W80048  11.693   4.759  27.342  0.1460  0.1220 -0.3151
37132W        W80049   8.706   2.713  31.148  0.0040 -0.1399  0.0226
37133W        W80050   9.086   2.906  30.421  0.0296  0.0554  0.2943
37134W        W80051   8.052   0.998  29.683  0.4752 -0.1770  0.2369
37135W        W80052   7.831   2.360  28.305  0.0920 -0.1746  0.2007
37136W        W80053  10.809   0.364  29.540 -0.1026  0.0275 -0.1866
37137W        W80054   8.407   1.447  29.835 -0.0519  0.2216 -0.0788
37138W        W80055  10.764   4.320  27.303  0.3048  0.0897  0.2806
37139W        W80056   7.500   2.943  29.214  0.2658 -0.3730  0.0780
37140W        W80057  10.062   1.851  28.740  0.0992 -0.1296  0.2755
37141W        W80058  10.017   3.064  26.358  0.2147  0.0869  0.0246
37142W        W80059   9.609   1.744  30.518  0.0013  0.2186  0.2890
37143W        W80060  11.003   2.181  30.494  0.1696 -0.0527  0.1313
37144W        W80061   8.983   2.189  27.357 -0.0027 -0.3253 -0.0716
37145W        W80062   8.842  34.610   0.303  0.2440 -0.1206 -0.0989
37146W        W80063   7.677   0.702  29.870 -0.0753 -0.0976 -0.1239
37147W        W80064  10.913   3.721  27.963  0.0845 -0.1097  0.0302
37148W        W80065   6.716   1.800  30.325  0.1547  0.0233 -0.1644
37149W        W80066   9.966   3.737  31.160  0.5349 -0.0262 -0.0551
37150W        W80067   5.960   0.429  31.959 -0.1597  0.0035 -0.1818
37151W        W80068  10.341   1.432  30.004 -0.2992  0.3245 -0.1459
37152W        W80069   9.528  33.019  26.343 -0.3643 -0.1236  0.1182
37153W        W80070   8.919   1.409  28.734  0.0509  0.0283 -0.0329
37154W        W80071  10.084   1.907  28.251 -0.1720 -0.2189 -0.2226
37155W        W80072  10.244   2.008  27.392 -0.1500 -0.1351 -0.0066
37156W        W80073   9.903   1.784  27.812 -0.0285 -0.0599 -0.1108
37157W        W80074   8.272   1.366  29.322 -0.1716  0.2699 -0.0541
37158W        W80075  10.328   1.478  28.495 -0.4877 -0.0810  0.2354
37159W        W80076   7.548   1.249  26.612  0.0110 -0.0540 -0.2315
37160W        W80077   7.871   2.963  28.890  0.0497  0.1038 -0.1366
37161W        W80078  10.274  34.132  29.584 -0.3672 -0.0229  0.0980
37162W        W80079  10.771   3.898  29.873 -0.1619 -0.4065 -0.4129
37163W        W80080   9.859   1.316  30.142 -0.0410 -0.6168  0.2280
37164W        W80081  13.083  33.319  30.594 -0.1362  0.0406  0.2815
37165W        W80082   9.587   3.170  30.235  0.1086 -0.0783 -0.0878
37166W        W80083   9.923   1.749  30.877 -0.1736  0.0860 -0.2850
37167W        W80084   8.862  34.479  30.730 -0.5984 -0.2099 -0.1224
37168W        W80085  12.921   2.651  31.769 -0.0848  0.0490  0.0856
37169W        W80086  11.227   1.396  28.294 -0.0909  0.2429  0.1611
37170W        W80087  12.204   0.908  31.065 -0.1636  0.0732 -0.0420
37171W        W80088  11.345   2.061  27.301  0.1576 -0.1608 -0.5246
37172W        W80089   8.104   1.976  27.334 -0.0340 -0.1720 -0.0156
37173W        W80090   5.480   0.093  30.338 -0.2514 -0.0493 -0.0689
37174W        W80091  11.005   1.160  31.472 -0.2925 -0.1471  0.3854
37175W        W80092   8.920   0.619  26.488 -0.0007 -0.2031 -0.3579
37176W        W80093  12.133   0.884  30.235  0.1606  0.0911 -0.3127
37177W        W80094   9.461   3.534  28.224  0.3266 -0.2231  0.1673
37178W        W80095  10.728   1.640  28.224  0.0302 -0.3378 -0.3185
37179W        W80096  11.620   2.679  27.616  0.0228 -0.0227 -0.4639
37180W        W80097   7.377   0.306  29.722  0.2516 -0.1524  0.0204
37181W        W80098   8.008   3.746  31.788 -0.1239 -0.0125  0.0283
37182W        W80099   8.059   0.748  26.922  0.0014 -0.2205  0.3708
37183W        W80100   9.822   3.822  26.564 -0.3139  0.0385  0.1727
37184W        W80101   9.773   1.535  31.367 -0.0954  0.3470  0.0107
37185W        W80102  10.927   2.448  30.061 -0.0297  0.0910  0.1992
37186W        W80103   9.357   1.091  26.793 -0.1112  0.0159  0.0746
37187W        W80104   9.473   0.558  29.795  0.1630 -0.2458 -0.3396
37188W        W80105   7.084   3.630  28.285  0.2747  0.0488  0.0135
37189W        W80106   8.234   0.837  29.289  0.1061  0.2024  0.0494
37190W        W80107   8.455   4.495  29.440 -0.1428  0.2841 -0.0826
37191W        W80108   6.497   2.522  31.067 -0.2705 -0.0488 -0.0795
37192W        W80109   9.857   3.224  27.280 -0.0147 -0.2427 -0.1210
37193W        W80110   9.590   0.075  30.096  0.2904  0.3793 -0.1858
37194W        W80111  10.903   1.356  29.237  0.1244 -0.0125 -0.0132
37195W        W80112   9.688   2.615  29.254 -0.1682 -0.0733  0.0027
37196W        W80113   8.564   2.211  28.010 -0.1582  0.0346 -0.3661
37197W        W80114   7.888   2.245  31.490  0.0186  0.2414 -0.0890
37198W        W80115   9.544  33.650  28.531  0.1076  0.0845  0.1241
37199W        W80116  10.213   3.004  30.657  0.0500 -0.1743  0.1673
37200W        W80117  10.075   2.790  31.110 -0.0485  0.1165 -0.0945
37201W        W80118   9.497   3.448  29.778  0.1305  0.0174 -0.2264
37202W        W80119   6.586   0.428  31.577 -0.0345  0.2551  0.2849
37203W        W80120  12.117   2.835   0.737  0.2326  0.1510  0.1566
37204W        W80121  10.043   0.774  29.910  0.2139  0.1109  0.1015
37205W        W80122   9.680  34.422  29.113 -0.0119  0.0966  0.1827
37206W        W80123  10.827   2.499  26.074  0.0202 -0.3252 -0.1861
37207W        W80124   8.418   3.042  31.355  0.0202 -0.0718  0.1440
37208W        W80125   8.163   1.896  29.816  0.1583  0.1515 -0.0577
37209W        W80126   9.049   3.571  29.697  0.0939  0.2042  0.0436
37210W        W80127  10.568   3.279  26.213 -0.0924 -0.0167  0.0612
37211W        W80128   9.834   2.057  25.855 -0.5117  0.1798  0.0021
37212W        W80129  10.816   3.344  30.255 -0.0615  0.2700  0.0108
37213W        W80130   8.918   1.804  26.939  0.1419  0.1923  0.3335
37214W        W80131   8.459   4.009  29.511  0.1547  0.0665  0.0318
37215W        W80132   6.219   2.653  28.648 -0.0259  0.3483 -0.1982
37216W        W80133   9.496   0.396  27.138  0.1307 -0.0108 -0.0380
37217W        W80134  10.316   4.529  29.952  0.0475 -0.2211 -0.0874
37218W        W80135   9.221   1.913  29.834  0.0463 -0.4444  0.0720
37219W        W80136  10.774   2.045  27.846 -0.3222  0.0508 -0.3829
37220W        W80137  10.876  34.094  30.310 -0.1246  0.0596  0.0537
37221W        W80138   9.516   1.947  28.117 -0.4065 -0.1274 -0.0251
37222W        W80139  10.359   2.618  29.865  0.1796 -0.0970 -0.1220
37223W        W80140   9.186   2.664  28.547 -0.2668 -0.0519  0.0686
37224W        W80141   8.566   0.479  27.477 -0.2868  0.0144  0.0470
37225W        W80142   8.527   1.441  30.538  0.1533 -0.1675  0.2203
37226W        W80143   7.647   1.164   0.492  0.0677  0.2461  0.3065
37227W        W80144   7.269   4.789  29.783  0.2092  0.2019  0.2568
37228W        W80145  10.178   3.215  28.135 -0.4782  0.1193 -0.0235
37229W        W80146   6.843   0.388  26.207  0.0585 -0.5780 -0.0300
37230W        W80147   6.814   0.753  30.214 -0.1568 -0.0663 -0.0381
37231W        W80148  13.093  32.729  31.535 -0.0785  0.0080  0.2416
37232W        W80149   9.460   3.177  27.843  0.2079 -0.0719  0.0395
37233W        W80150   9.115   1.936  30.371  0.0277 -0.1268 -0.0940
37234W        W80151  10.424   3.713  27.941 -0.0748  0.1629  0.0384
37235W        W80152   8.500   2.283  29.194  0.1637  0.0456 -0.0770
37236W        W80153   9.067   5.608  29.114 -0.1899  0.1740  0.0247
37237W        W80154   8.301   0.047  29.662 -0.1559 -0.3684 -0.2690
37238W        W80155  13.117   1.307  29.313  0.1284 -0.0456 -0.1773
37239W        W80156   9.185   1.069   0.084  0.0949  0.2154 -0.3394
37240W        W80157  10.328   0.957  29.447 -0.1546  0.0660  0.2359
37241W        W80158   8.060   2.290  29.522  0.0161 -0.0484  0.1767
37242W        W80159  11.127   0.734  28.228 -0.1641 -0.0013 -0.3969
37243W        W80160   9.113   2.555  30.885 -0.1690 -0.2993  0.4251
37244W        W80161   7.273   1.286  31.650  0.0481  0.1356 -0.1871
37245W        W80162   7.419   1.168  27.116 -0.0167 -0.2343 -0.0985
37246W        W80163   9.182   1.021  29.374 -0.2100  0.1495 -0.1384
37247W        W80164   8.468   1.236  27.643 -0.0462 -0.0998  0.1327
37248W        W80165  10.032   3.813  30.542  0.1896  0.1018 -0.0554
37249W        W80166   7.843   0.574  29.203  0.2037 -0.0363 -0.2140
37250W        W80167  11.528   1.285  29.244 -0.2617  0.0160  0.2912
37251W        W80168   8.511   3.103  27.227 -0.0034 -0.0196 -0.1481
37252W        W80169   7.594   2.033  29.711  0.1685  0.0965 -0.1812
37253W        W80170  10.108   6.027  30.674  0.1369 -0.0961  0.0120
37254W        W80171   5.981   0.661  26.018 -0.0976  0.2474 -0.3629
37255W        W80172  10.936   2.476  26.600 -0.0994  0.4332  0.0305
37256W        W80173  11.428   1.907  30.259 -0.0834 -0.0586 -0.1855
37257W        W80174   8.619   4.852  29.121 -0.3706 -0.0123  0.1932
37258W        W80175  10.826   2.936  28.834  0.0561  0.1758  0.2311
37259W        W80176  10.873   2.723  31.062  0.1496 -0.3333 -0.0125
37260W        W80177   9.148   1.955  28.648 -0.0017  0.1206  0.1404
37261W        W80178   9.993   2.695  30.285  0.0434  0.0161  0.1286
37262W        W80179  12.110   3.181  31.194  0.0838 -0.0734 -0.2135
37263W        W80180   9.558   0.617  26.590 -0.0330  0.0657 -0.2591
37264W        W80181   9.214   2.412  29.941 -0.2596 -0.1909  0.4709
37265W        W80182   7.537   3.475  30.519 -0.4495  0.0626 -0.3415
37266W        W80183   9.628   0.176  29.434  0.0546 -0.0507  0.2713
37267W        W80184  10.389   0.044  30.961 -0.3306 -0.2033 -0.1922
37268W        W80185   7.687   3.631  26.646 -0.0513  0.1249 -0.1084
37269W        W80186   9.841   1.805   2.403 -0.0242 -0.2603  0.1906
37270W        W80187   7.849   3.148  29.507 -0.1006  0.2414 -0.1598
37271W        W80188   9.253   3.350  31.672 -0.0254 -0.4481  0.1383
37272W        W80189   6.689   2.356  29.500  0.1841  0.1055  0.3374
37273W        W80190   8.116   1.809   0.913  0.2155  0.0496 -0.0810
37274W        W80191   9.424   3.201  28.632  0.0231 -0.0572  0.3440
37275W        W80192   9.344   2.613  27.952 -0.2040  0.2447 -0.1945
37276W        W80193  10.754   4.122  29.423  0.0462 -0.0584  0.2554
37277W        W80194   8.164   0.781  27.647  0.0451  0.2672 -0.1002
37278W        W80195  11.957   4.491  28.247 -0.0205  0.1262 -0.1256
37279W        W80196   7.941   0.726  28.343 -0.0668 -0.3662 -0.1208
37280W        W80197   9.725  33.561  27.530 -0.1140 -0.0315  0.0242
37281W        W80198   9.275   1.225  27.607 -0.0553 -0.1398  0.3723
37282W        W80199   5.077   0.994  30.813  0.0681  0.0959 -0.2025
37283W        W80200   6.055   2.137  25.933 -0.0065 -0.1408 -0.0672
37284W        W80201   9.035   2.864  26.937 -0.1467  0.0135 -0.2833
37285W        W80202   7.095   3.643  29.878  0.1210 -0.1585 -0.4081
37286W        W80203   9.957   0.680   0.308  0.2154  0.1389 -0.0007
37287W        W80204   8.787   1.200  30.946 -0.0868  0.0167  0.0860
37288W        W80205   7.589   1.478  28.878  0.1410 -0.0966 -0.2425
37289W        W80206   6.924   1.766  29.764 -0.1742 -0.1469 -0.1778
37290W        W80207  12.003   3.210  25.753  0.0107 -0.1201  0.0676
37291W        W80208   9.149  34.417  28.314  0.2319 -0.0852  0.0621
37292W        W80209   7.823   1.966  28.784 -0.2372  0.1647  0.1594
37293W        W80210  10.617   2.483  27.537 -0.0961  0.1479 -0.2100
37294W        W80211  11.540   2.000  28.900 -0.1040 -0.0752 -0.2835
37295W        W80212   9.643   1.542  28.407 -0.0682 -0.0471  0.1295
37296W        W80213  10.649   2.480   0.850 -0.3832  0.0500  0.0588
37297W        W80214   6.603   0.565  25.294  0.0615  0.3025  0.0848
37298W        W80215  10.082   3.340  30.298  0.0273  0.0993 -0.1914
37299W        W80216   8.684   1.715  30.955 -0.1929  0.1134  0.1992
37300W        W80217   8.444  32.078  25.037  0.1116 -0.2056  0.0340
37301W        W80218   9.108   1.398  29.748  0.1125  0.0227 -0.2287
37302W        W80219   9.392   2.209  27.681  0.0496 -0.0315 -0.1878
37303W        W80220  11.039   2.817  28.364 -0.3087 -0.0837 -0.0283
37304W        W80221   6.678   3.097  30.966 -0.0532  0.2346 -0.0983
37305W        W80222  10.144   2.941   0.142 -0.0816  0.1916  0.0889
37306W        W80223   7.705   0.438  31.329 -0.1488  0.1213 -0.2656
37307W        W80224   9.668   0.922  27.682 -0.2954 -0.3522 -0.2143
37308W        W80225   8.133   2.485  31.051  0.0077 -0.2030 -0.4508
37309W        W80226  12.422   3.850  27.675 -0.1829  0.0299 -0.0592
37310W        W80227  10.821   1.123  28.329 -0.0514 -0.1296 -0.1179
37311W        W80228   9.024   3.440  27.949  0.1050 -0.0537 -0.0591
37312W        W80229   9.714   2.664  29.753  0.0303 -0.0057 -0.1454
37313W        W80230   7.645   2.964  31.924 -0.2721  0.1584 -0.0542
37314W        W80231   9.565   3.028  29.491 -0.0328  0.0657 -0.0617
37315W        W80232   8.626   0.752  28.623 -0.0845  0.1750  0.1273
37316W        W80233  10.902   2.274  29.567 -0.4593 -0.2976 -0.2686
37317W        W80234  10.017   0.750  24.924 -0.3639 -0.1006 -0.3284
37318W        W80235   8.844   3.051  30.839 -0.0800 -0.1245 -0.0414
37319W        W80236  10.052   1.319  29.166  0.0004 -0.1271 -0.4256
37320W        W80237  10.804   5.085  27.753  0.3263 -0.1911  0.3539
37321W        W80238   9.638   2.020  28.593  0.1208 -0.0796  0.1503
37322W        W80239   9.316   1.525  30.180  0.0577  0.0225  0.2971
37323W        W80240   9.749   1.531  27.010 -0.2636  0.0815  0.1578
37324W        W80241  11.509   1.807  28.430  0.1785 -0.2852 -0.0369
37325W        W80242   9.958   2.403  30.753 -0.0218  0.0905  0.2385
37326W        W80243  10.486   3.979  31.014  0.0376 -0.1515 -0.0761
37327W        W80244   9.757   5.379   0.111  0.0955 -0.3005 -0.0653
37328W        W80245  11.019   1.897  28.541  0.1687  0.0082 -0.1402
37329W        W80246   8.278  32.789  28.571 -0.1159 -0.0062 -0.0811
37330W        W80247   7.276   2.244  28.359 -0.0513 -0.0613 -0.4413
37331W        W80248  10.195   2.186  27.848  0.0614  0.0445 -0.1669
37332W        W80249  10.965   1.940  29.101 -0.1373  0.2659  0.0064
37333W        W80250   8.526   2.604  30.440  0.1495  0.1860  0.1059
37334W        W80251   7.313   1.755  28.482 -0.1244  0.0842  0.0073
37335W        W80252   9.437   2.241  30.604 -0.1186  0.0537  0.2966
37336W        W80253  10.444   3.487  30.695 -0.3930 -0.0143 -0.3502
37337W        W80254  10.454   1.131  28.902 -0.1266  0.0073  0.1707
37338W        W80255  11.317   2.876   1.191  0.0928  0.1122  0.0463
37339W        W80256   8.740   0.696  30.960  0.0104  0.1804  0.1791
37340W        W80257   8.752   1.800  29.580 -0.1682  0.1839  0.0736
37341W        W80258  10.516   1.535   0.636  0.0685  0.2711 -0.3371
37342W        W80259   7.969   1.896   0.008  0.1199 -0.1616  0.0605
37343W        W80260   8.629   0.070  29.277 -0.2405 -0.0630 -0.2577
37344W        W80261   7.003   2.040  31.099 -0.2277 -0.1592  0.0807
37345W        W80262   9.520   0.460   0.454 -0.0963 -0.6173  0.0707
37346W        W80263  12.349   2.634   2.522 -0.2174 -0.1726 -0.1888
37347W        W80264  12.032   3.648   1.159 -0.2670 -0.0223 -0.2655
37348W        W80265   9.683   0.386  30.686  0.0083 -0.0740  0.3265
37349W        W80266   9.468   2.658  30.287  0.0838  0.0256 -0.2722
37350W        W80267   8.759   1.330  31.779 -0.0601  0.1112 -0.0483
37351W        W80268  10.678   2.004   0.951 -0.1327  0.0603  0.0140
37352W        W80269   9.700   2.660   0.203  0.0537  0.0283  0.0841
37353W        W80270   7.065   1.790  31.515  0.0471 -0.1138 -0.1278
37354W        W80271  10.661   3.065  30.859  0.2882 -0.0965 -0.0586
37355W        W80272   8.566  34.228   0.086 -0.3253 -0.3440 -0.1116
37356W        W80273   8.742   0.447   1.143 -0.3109  0.1511 -0.0330
37357W        W80274   7.434   0.356  31.800 -0.5573  0.0201  0.1287
37358W        W80275   8.491   4.077  31.667  0.0159 -0.2077  0.0885
37359W        W80276  10.332  33.613   1.670 -0.2014 -0.1142  0.1197
37360W        W80277  10.469   0.746   0.237  0.2240 -0.2359  0.2664
37361W        W80278   9.174   0.400  30.170 -0.1103  0.1704 -0.0859
37362W        W80279   8.757   1.159   1.574 -0.1414  0.1479 -0.3130
37363W        W80280   8.030  34.411  30.152  0.1911  0.1480 -0.1258
37364W        W80281   7.580   3.486  31.759 -0.0352 -0.1747 -0.2954
37365W        W80282   9.657   1.377   0.031 -0.1436 -0.0707 -0.2288
37366W        W80283   9.602   1.434   1.542  0.1304  0.1513  0.0714
37367W        W80284   8.753   1.614  30.097 -0.0081  0.2532 -0.1355
37368W        W80285   9.971   1.420   1.042  0.0531  0.3306  0.1061
37369W        W80286  10.764  34.373  31.198  0.0570  0.1854  0.1891
37370W        W80287  10.652   1.304   0.230  0.1576 -0.2569  0.0169
37371W        W80288   7.825   0.897  31.176 -0.0386  0.0736  0.0768
37372W        W80289   9.963   3.556   1.622 -0.1011  0.0830  0.1420
37373W        W80290   8.169   2.230  30.589 -0.2339 -0.1463 -0.0650
37374W        W80291  10.422   4.250  30.472  0.1173  0.2906 -0.1007
37375W        W80292   9.655   0.161   2.400 -0.1919  0.2827 -0.4142
37376W        W80293   9.601   2.735  30.768  0.1463 -0.0255  0.2412
37377W        W80294  11.035   1.270  30.892 -0.4697  0.3138  0.5004
37378W        W80295  11.365   2.005   1.503  0.0252  0.1152  0.2331
37379W        W80296   8.050   0.153  31.101 -0.1604 -0.0747  0.0108
37380W        W80297  11.116   3.478   1.175  0.3069 -0.1428  0.1267
37381W        W80298  10.497   1.636   1.187 -0.1756  0.2375  0.1416
37382W        W80299   9.289   1.000  30.863  0.0273  0.3785  0.1922
37383W        W80300   9.322  33.687   2.157 -0.2516 -0.1075 -0.2251
37384W        W80301  10.331   3.233  31.688  0.0251 -0.0638  0.0325
37385W        W80302  11.059   2.474   2.168 -0.0429 -0.2268 -0.1100
37386W        W80303   8.188   4.333  30.698 -0.0021  0.1527  0.2041
37387W        W80304  10.335   3.693   0.944  0.3228 -0.4454 -0.2892
37388W        W80305   9.248   0.629  31.183  0.1834  0.0260  0.0510
37389W        W80306   9.842  34.593   0.177 -0.2131 -0.0942 -0.0567
37390W        W80307   9.828   0.856   0.738 -0.3794 -0.1698  0.0323
37391W        W80308   9.111   1.948  30.873  0.3169 -0.2158  0.0827
37392W        W80309   8.803   2.714  30.041  0.3095  0.0399  0.2590
37393W        W80310  10.689   1.282  30.468  0.1370  0.1559  0.0679
37394W        W80311   8.477   2.152   0.985 -0.0722 -0.0680 -0.0281
37395W        W80312  10.473   2.938  30.241  0.0312 -0.0878 -0.0746
37396W        W80313   9.434   1.587   0.633 -0.2173 -0.1161 -0.0801
37397W        W80314   7.392   0.912   3.817 -0.1846  0.0569 -0.1152
37398W        W80315   7.210   1.175   1.380 -0.1347  0.1018  0.0064
37399W        W80316   7.859   4.269  30.126 -0.0705  0.4142  0.2626
37400W        W80317   8.579  34.213  31.559  0.0466  0.0623 -0.4329
37401W        W80318  11.477   1.321  31.784 -0.4339  0.1296  0.1109
37402W        W80319   9.835   3.561  31.604  0.0914  0.0492 -0.0088
37403W        W80320  11.052   1.566  30.324 -0.3555  0.0411 -0.2611
37404W        W80321   8.569   5.625  18.463  0.2693 -0.0964 -0.2257
37405W        W80322   7.235   5.775  17.435  0.1037 -0.3199 -0.2295
37406W        W80323  11.261   4.286  15.419  0.0249 -0.1605  0.0895
37407W        W80324   9.980   4.949  16.937 -0.1334  0.1320  0.2097
37408W        W80325   9.478   5.239  19.811 -0.2379 -0.4123  0.0486
37409W        W80326  11.011   6.448  17.163  0.1875 -0.1627  0.1545
37410W        W80327   7.727   2.160  18.912 -0.0370  0.0202  0.0460
37411W        W80328   9.126   6.423  18.695  0.1540 -0.1953  0.2446
37412W        W80329  10.997   5.911  18.426  0.0290 -0.2922 -0.0394
37413W        W80330   8.868   6.138  15.802  0.1221  0.0714  0.2728
37414W        W80331   8.206   3.878  19.198  0.0988  0.0563 -0.0660
37415W        W80332   8.519   6.762  19.826  0.0239 -0.2000  0.0325
37416W        W80333  10.544   3.263  17.411 -0.0857 -0.1045 -0.1240
37417W        W80334   8.266   3.972  17.496  0.0109 -0.2406 -0.3909
37418W        W80335  10.034   4.474  17.762 -0.0027 -0.1907 -0.4391
37419W        W80336   7.122   5.401  15.925  0.2104  0.0688  0.1776
37420W        W80337   8.896   5.131  18.451  0.3494  0.3626 -0.1474
37421W        W80338   8.471   4.871  18.043 -0.1783 -0.2349  0.3071
37422W        W80339   9.003   3.841  16.220  0.0758  0.1209  0.0278
37423W        W80340   6.891   3.097  17.764 -0.3528  0.0026  0.1239
37424W        W80341  10.208   5.550  18.834 -0.0576  0.1373  0.3589
37425W        W80342   7.942   5.883  16.113 -0.1816  0.2835  0.0593
37426W        W80343   6.846   4.797  16.174  0.0796  0.0825  0.0299
37427W        W80344   7.594   4.122  16.710 -0.0853  0.1261 -0.2967
37428W        W80345   8.177   4.340  19.053 -0.1430 -0.2461  0.2015
37429W        W80346  10.219   4.574  16.697 -0.3201  0.0811  0.3367
37430W        W80347  10.409   4.388  19.170  0.0277  0.0176 -0.3064
37431W        W80348   9.506   7.442  16.584 -0.0348  0.1147 -0.1069
37432W        W80349   8.454   9.519  17.312  0.3160 -0.1218  0.0195
37433W        W80350  10.513   5.629  20.959 -0.0346  0.0616  0.0474
37434W        W80351   7.673   6.923  17.939 -0.0263 -0.0635  0.2251
37435W        W80352   7.990   7.081  19.805 -0.0468 -0.1219  0.1026
37436W        W80353   8.271   5.835  16.921 -0.1104  0.0579 -0.1710
37437W        W80354  11.940   5.290  16.288  0.0644  0.2307 -0.2705
37438W        W80355   8.717   5.900  17.967 -0.0643 -0.1216  0.0242
37439W        W80356   8.644   6.205  18.408 -0.2170 -0.2045  0.1990
37440W        W80357   8.727   8.680  18.096  0.1277  0.0206 -0.1315
37441W        W80358   9.258   7.017  18.621  0.0282  0.0503  0.0745
37442W        W80359   8.821   4.555  20.058  0.1530  0.1318  0.2143
37443W        W80360  12.317   4.289  17.972 -0.0639  0.2733  0.1009
37444W        W80361   9.428   5.684  19.486 -0.1932 -0.0885 -0.1917
37445W        W80362   7.969   6.162  17.467  0.0014  0.0973 -0.2865
37446W        W80363   9.023   5.316  16.496  0.1861 -0.2695  0.0112
37447W        W80364   6.889   4.464  21.515 -0.1048  0.1347  0.0862
37448W        W80365   7.729   4.144  19.978  0.0491 -0.1036 -0.3617
37449W        W80366  11.588   5.687  17.892 -0.1366 -0.1436 -0.4894
37450W        W80367   9.128   8.146  17.068 -0.0462 -0.0164  0.2561
37451W        W80368   9.117   5.524  16.935 -0.2493 -0.2759 -0.3486
37452W        W80369   8.221   3.076  16.033  0.1158 -0.0193 -0.0572
37453W        W80370   9.280   3.079  16.503  0.0735  0.1500 -0.1959
37454W        W80371   8.019   1.994  15.297  0.0248 -0.3413 -0.0042
37455W        W80372   9.828   8.737  18.255 -0.2749 -0.2225 -0.0406
37456W        W80373   7.337   6.619  17.725 -0.3074 -0.2029  0.0770
37457W        W80374   9.277   7.078  17.580  0.0660 -0.2469  0.0627
37458W        W80375  10.633   4.269  16.332 -0.0343 -0.0392  0.0485
37459W        W80376  12.181   5.056  18.680  0.3516 -0.4538  0.0034
37460W        W80377   7.210   5.386  18.721 -0.1258 -0.2326  0.2252
37461W        W80378   6.452   5.406  18.080 -0.1213  0.2509 -0.2163
37462W        W80379   9.641   5.053  16.118 -0.1585 -0.1007 -0.1695
37463W        W80380  11.230   5.988  17.051 -0.1580 -0.0583 -0.1046
37464W        W80381   9.590   5.575  16.058 -0.1146  0.1958 -0.2302
37465W        W80382   7.453   4.908  18.770  0.3904 -0.1160 -0.1950
37466W        W80383   7.075   4.973  17.725 -0.0262 -0.3960  0.1004
37467W        W80384   7.514   6.193  20.324  0.0737  0.0907  0.0528
37468W        W80385   9.299   4.165  15.802  0.2953  0.2736  0.3011
37469W        W80386  12.189   5.858  18.060 -0.1885 -0.2299 -0.2038
37470W        W80387   6.853   7.237  20.395 -0.2591 -0.0031 -0.0533
37471W        W80388  10.995   4.673  17.873 -0.1359 -0.3625  0.0803
37472W        W80389   8.125   5.914  18.394 -0.3243  0.0853 -0.2340
37473W        W80390  12.345   7.122  17.407 -0.0271  0.0010 -0.1757
37474W        W80391  10.142   4.510  15.552 -0.2556  0.2299 -0.0004
37475W        W80392  10.178   2.380  15.211 -0.1573 -0.0386  0.0232
37476W        W80393  12.116   2.884  18.686 -0.3630 -0.0463 -0.1554
37477W        W80394   9.342   4.261  16.306  0.2850  0.0830  0.2795
37478W        W80395   8.013   5.662  16.588  0.1753 -0.1037 -0.0791
37479W        W80396  11.831   6.067  17.525 -0.0536  0.3116 -0.0688
37480W        W80397  10.598   5.624  15.895  0.0860 -0.0916  0.0799
37481W        W80398   9.678   7.656  19.049 -0.2983  0.3338  0.0278
37482W        W80399   9.043   5.036  19.709 -0.0988 -0.0086 -0.0473
37483W        W80400   8.746   5.875  20.057  0.3117  0.1267  0.4334
37484W        W80401   8.234   8.018  18.047  0.1292 -0.0254  0.0218
37485W        W80402   7.607   5.386  16.116  0.0159 -0.2691 -0.0954
37486W        W80403   8.064   6.843  16.645  0.0119  0.2354 -0.0417
37487W        W80404   7.147   2.889  16.212  0.0177  0.1592 -0.2270
37488W        W80405   9.152   5.098  18.864 -0.2704 -0.0309  0.0054
37489W        W80406  10.985   2.257  15.418 -0.2129 -0.4451 -0.0773
37490W        W80407   7.545   4.466  19.625 -0.1404 -0.2086  0.0679
37491W        W80408  10.655   2.377  16.423  0.0143 -0.0018 -0.0772
37492W        W80409   7.703   6.415  17.988 -0.0841 -0.1205 -0.0047
37493W        W80410  10.065   7.110  18.386  0.1011  0.0016 -0.3386
37494W        W80411  10.572   3.583  16.931 -0.0868 -0.0190  0.0365
37495W        W80412   7.777   5.924  17.874 -0.2007 -0.3439  0.0489
37496W        W80413   7.323   4.455  20.148 -0.2160 -0.1372 -0.2399
37497W        W80414   8.065   3.134  16.662 -0.2448 -0.1050  0.1174
37498W        W80415   7.757   3.311  19.698 -0.2634  0.0589 -0.3054
37499W        W80416   8.306   5.279  18.285  0.1236 -0.0966 -0.0012
37500W        W80417  10.267   5.313  18.390 -0.3511  0.2998  0.4619
37501W        W80418  10.977   2.117  15.927  0.0302  0.0904 -0.3659
37502W        W80419  10.773   2.585  16.849  0.0806  0.0124  0.5920
37503W        W80420   8.511   3.853  18.044 -0.0576 -0.5744 -0.1657
37504W        W80421   9.454   6.110  18.527 -0.2500  0.0424 -0.1443
37505W        W80422  10.350   2.878  20.114 -0.0133 -0.0688  0.2609
37506W        W80423   9.138   7.031  16.358 -0.0091  0.0973  0.1411
37507W        W80424   9.676   6.283  17.509 -0.1354 -0.0216 -0.0195
37508W        W80425   8.706   6.091  16.730 -0.3661  0.2281 -0.2279
37509W        W80426   7.987   5.609  19.951 -0.0194  0.1046 -0.2088
37510W        W80427   7.994   4.028  18.038 -0.4216 -0.2731  0.0680
37511W        W80428   7.088   8.012  17.274 -0.1858  0.0130 -0.0841
37512W        W80429   9.996   5.445  16.637  0.1115  0.0002  0.1471
37513W        W80430  11.060   3.695  17.056 -0.3246  0.2999 -0.2312
37514W        W80431  11.413   4.535  16.935 -0.1205 -0.1611  0.1218
37515W        W80432   8.414   5.218  17.581 -0.0636 -0.1826  0.0827
37516W        W80433   6.549   4.363  17.998  0.5523  0.1458  0.0522
37517W        W80434  10.948   2.485  18.578 -0.3210 -0.0225  0.1149
37518W        W80435  10.773   5.921  19.730  0.3167 -0.1785  0.0977
37519W        W80436  12.118   6.449  17.466 -0.1145 -0.2332 -0.1220
37520W        W80437   7.537   3.458  15.474 -0.2074 -0.1292 -0.3099
37521W        W80438   8.955   7.340  16.738  0.0121 -0.2505  0.1478
37522W        W80439   5.737   7.261  18.053  0.5475 -0.0116 -0.2270
37523W        W80440   6.943   5.355  17.413  0.0271  0.2984 -0.0834
37524W        W80441  10.649   4.959  18.105  0.3901 -0.1966 -0.0570
37525W        W80442   9.465   3.356  16.990  0.0052  0.0506  0.0630
37526W        W80443   8.702   6.307  17.595 -0.1635  0.0330 -0.1115
37527W        W80444  10.433   5.630  19.996  0.3250 -0.2412 -0.2702
37528W        W80445   8.078   2.711  15.692  0.0113  0.0157 -0.2285
37529W        W80446   8.785   5.084  22.062  0.0949  0.0240  0.0430
37530W        W80447   9.524   2.738  16.108 -0.1358 -0.0142 -0.1309
37531W        W80448  10.678   2.752  17.292 -0.3290  0.1924  0.0573
37532W        W80449   9.470   5.000  17.656 -0.0591  0.6203 -0.1986
37533W        W80450   8.916   5.920  17.231 -0.0688  0.1785 -0.1329
37534W        W80451  10.957   3.909  16.532 -0.3183 -0.4618  0.0433
37535W        W80452   9.359   3.599  16.475 -0.0473 -0.0395 -0.2253
37536W        W80453   7.729   4.637  19.182  0.0982 -0.3683 -0.0637
37537W        W80454   9.818   5.293  18.165  0.2032 -0.3558 -0.0449
37538W        W80455   8.448   4.573  16.591  0.2304  0.0491 -0.0809
37539W        W80456  10.626   2.751  15.312  0.2498 -0.2607 -0.3972
37540W        W80457  10.550   8.181  17.360 -0.1039 -0.4369  0.3613
37541W        W80458   7.090   4.617  20.542 -0.2407 -0.0091 -0.0470
37542W        W80459   9.091   6.442  20.115  0.0737  0.0360 -0.1757
37543W        W80460  10.733   6.314  18.178  0.0218 -0.0764 -0.0277
37544W        W80461   8.242   2.284  19.213 -0.0822 -0.0862 -0.1040
37545W        W80462   8.543   3.928  16.237  0.1923 -0.3741  0.2291
37546W        W80463  10.607   4.730  16.318 -0.0436 -0.0080 -0.0884
37547W        W80464   6.636   7.943  17.009 -0.0749  0.2910  0.3134
37548W        W80465  12.268   3.464  18.642 -0.3572 -0.0805 -0.1318
37549W        W80466  10.991   2.906  17.699  0.0134 -0.3103  0.5283
37550W        W80467   8.776   6.291  19.718 -0.0179  0.0164  0.0341
37551W        W80468  12.045   5.310  19.946 -0.1494  0.1071  0.0388
37552W        W80469   9.065   6.366  18.115  0.1578 -0.4091  0.0940
37553W        W80470   9.843   5.176  19.462 -0.0497  0.1615  0.4949
37554W        W80471   9.273   4.642  16.671 -0.0816  0.2800 -0.0141
37555W        W80472   8.432   4.669  20.421  0.2695  0.1018  0.2008
37556W        W80473   8.626   4.603  20.890 -0.2360  0.0135 -0.0202
37557W        W80474   6.428   6.520  19.319 -0.0869  0.0370  0.2804
37558W        W80475  10.131   6.072  19.004 -0.0621 -0.2602 -0.2585
37559W        W80476  10.591   6.546  17.321 -0.2031 -0.1219  0.0956
37560W        W80477   8.411   2.457  19.689  0.2409 -0.1979 -0.1275
37561W        W80478   9.869   2.339  15.836  0.2389  0.1282 -0.1386
37562W        W80479   8.408   8.258  15.883 -0.2396 -0.1166 -0.1348
37563W        W80480   8.133   5.422  17.193  0.0455 -0.1571 -0.1709
37564W        W80481   8.847   3.823  15.743  0.0891  0.1395 -0.1514
37565W        W80482   8.107   6.743  18.132 -0.0084  0.0605  0.1406
37566W        W80483   9.210   6.998  15.867  0.0681 -0.2032  0.0699
37567W        W80484   8.499   5.437  19.944  0.2130  0.1154 -0.3087
37568W        W80485   7.931   5.315  17.648  0.2258  0.1282 -0.1039
37569W        W80486   9.726   4.590  16.515  0.1427 -0.0728 -0.1559
37570W        W80487   7.662   6.118  18.510 -0.0214  0.0867  0.2292
37571W        W80488   7.781   5.000  17.054  0.1720  0.2954  0.0518
37572W        W80489   7.242   4.162  16.285 -0.0246  0.0788  0.0321
37573W        W80490   8.802   4.301  17.487 -0.1476  0.2349  0.1799
37574W        W80491   9.690   4.512  15.943 -0.1087  0.2498 -0.1501
37575W        W80492   8.874   3.454  18.011 -0.0059  0.0024 -0.1212
37576W        W80493   9.663   3.170  17.668 -0.0288 -0.1738 -0.0602
37577W        W80494   7.903   6.432  20.515  0.2463 -0.1386 -0.0657
37578W        W80495  10.283   3.379  19.286 -0.1966  0.1920  0.0179
37579W        W80496  10.373   2.718  14.871 -0.0214  0.1023 -0.0537
37580W        W80497   8.117   6.486  19.072 -0.0253  0.0369  0.1906
37581W        W80498   8.235   6.321  19.607  0.2513 -0.0534 -0.1182
37582W        W80499   9.550   3.810  16.060  0.1165  0.1789  0.0459
37583W        W80500  11.769   5.188  17.479 -0.0122  0.2482  0.0061
37584W        W80501   8.257   5.625  17.902 -0.3392 -0.2455  0.0377
37585W        W80502   9.264   6.043  19.867  0.1241  0.1161 -0.1072
37586W        W80503   7.790   6.548  19.468 -0.2623  0.1793 -0.0182
37587W        W80504   7.407   5.644  18.274  0.0283 -0.2059 -0.2286
37588W        W80505   6.092   4.361  17.767  0.0671  0.0555 -0.3330
37589W        W80506   7.122   4.875  18.374 -0.3000 -0.0046  0.1094
37590W        W80507  11.150   5.928  16.560 -0.1011  0.1791 -0.0555
37591W        W80508   8.069   3.585  15.992  0.2166  0.0631  0.0227
37592W        W80509   8.378   3.490  16.427 -0.0717 -0.2266  0.0675
37593W        W80510   9.358   4.347  17.293 -0.2706  0.0108 -0.0349
37594W        W80511   9.640   4.743  17.300  0.0110 -0.0031  0.1969
37595W        W80512   9.684   5.772  17.769  0.1389  0.2266  0.2259
37596W        W80513   7.369   5.795  20.730 -0.1783 -0.0458 -0.0587
37597W        W80514   9.144   1.874  16.542  0.3197  0.0077 -0.1681
37598W        W80515  11.316   7.198  16.457 -0.0617  0.2641 -0.2251
37599W        W80516  10.700   3.452  18.649  0.0367 -0.1093  0.1890
37600W        W80517   7.363   4.086  17.150  0.0972  0.1150 -0.1998
37601W        W80518   7.459   4.628  16.811 -0.0846  0.2138 -0.2230
37602W        W80519   8.121   5.355  16.182 -0.0964  0.1849  0.0124
37603W        W80520   8.952   4.155  19.814 -0.0311 -0.0716 -0.0450
37604W        W80521   8.328   5.597  19.141  0.0358  0.5686 -0.0339
37605W        W80522   9.167   5.864  16.540  0.1839  0.0247 -0.1463
37606W        W80523   7.943   6.377  21.097  0.1512 -0.0245  0.2451
37607W        W80524  10.045   2.232  17.422 -0.1945  0.2418 -0.4016
37608W        W80525   9.652   3.609  17.395  0.1704  0.1905  0.4072
37609W        W80526   9.589   3.837  16.886 -0.1531  0.0561 -0.2935
37610W        W80527  10.604   4.066  17.057  0.0231  0.3602  0.0219
37611W        W80528   9.376   5.141  18.444  0.2901  0.0738  0.2734
37612W        W80529  10.626   4.110  18.651 -0.1297  0.0077 -0.0617
37613W        W80530   9.998   5.708  19.356 -0.2963  0.0489  0.1179
37614W        W80531   9.046   5.896  18.341 -0.3153 -0.0765 -0.1460
37615W        W80532   7.256   5.994  17.958  0.2937 -0.1338 -0.1385
37616W        W80533   8.205   6.901  20.722 -0.1586  0.1269 -0.1104
37617W        W80534   8.528   5.591  22.551 -0.0210  0.1208  0.0481
37618W        W80535   8.492   3.412  19.079  0.0022 -0.1901 -0.1099
37619W        W80536   8.136   4.208  16.484 -0.0580 -0.2133 -0.3772
37620W        W80537   6.823   5.798  18.220 -0.0272  0.1602 -0.2588
37621W        W80538  11.288   4.895  15.695 -0.3659  0.0359 -0.5569
37622W        W80539   9.752   5.393  17.069 -0.2061  0.1372 -0.0628
37623W        W80540   9.284   3.504  19.167  0.0090  0.2001 -0.2693
37624W        W80541   8.099   5.468  18.706  0.0852  0.2138 -0.0628
37625W        W80542  10.319   5.832  16.809 -0.1498  0.4133 -0.1110
37626W        W80543  10.112   6.491  17.282  0.0627  0.2735  0.1497
37627W        W80544   8.734   5.842  18.916  0.2633  0.0417  0.0335
37628W        W80545   8.145   3.671  18.420  0.0106 -0.0350 -0.2354
37629W        W80546  12.292   5.420  16.693  0.0020  0.2467 -0.2436
37630W        W80547  11.079   4.196  17.096 -0.3420 -0.0454  0.1713
37631W        W80548   8.287   3.287  18.091 -0.0087  0.1511 -0.3887
37632W        W80549   9.617   4.790  18.097  0.0484  0.0197 -0.1830
37633W        W80550   7.733   4.480  17.209 -0.0410  0.2279 -0.1423
37634W        W80551   7.027   4.464  18.053 -0.0464  0.1050 -0.0774
37635W        W80552   9.210   7.715  19.258  0.0102  0.1148  0.2040
37636W        W80553   9.234   4.143  16.803 -0.1690 -0.3093  0.0122
37637W        W80554  10.911   4.485  18.902 -0.0103 -0.1795  0.0348
37638W        W80555  11.179   5.739  16.078  0.0410  0.0155 -0.2350
37639W        W80556  10.495   4.806  17.098  0.0477 -0.1663 -0.0146
37640W        W80557   8.531   4.831  17.161 -0.0366 -0.1685  0.0622
37641W        W80558   8.333   4.430  19.979 -0.0032 -0.2098 -0.0883
37642W        W80559   7.315   2.901  15.105  0.3482  0.0453  0.0349
37643W        W80560  10.773   5.661  16.344  0.0991  0.3303  0.0845
37644W        W80561   8.448   6.252  17.156  0.2077 -0.0690  0.0623
37645W        W80562  12.722   5.543  16.439  0.1255 -0.0033  0.1219
37646W        W80563  10.326   3.516  15.827 -0.0431  0.0385  0.1130
37647W        W80564   7.745   5.697  17.458  0.0464  0.3602 -0.2226
37648W        W80565   8.098   5.234  21.266  0.0575  0.2606 -0.1057
37649W        W80566   7.530   5.176  18.275 -0.0306  0.1158 -0.0045
37650W        W80567   9.921   5.882  16.380 -0.0518  0.3960 -0.0029
37651W        W80568   8.562   8.275  16.343  0.2776  0.2141  0.1336
37652W        W80569   9.569   6.254  18.047  0.0297  0.1569 -0.1413
37653W        W80570  10.007   3.697  16.226  0.2665  0.1210 -0.1433
37654W        W80571  10.706   2.693  20.524 -0.1375  0.3018  0.1934
37655W        W80572   9.019   8.447  17.477  0.0661 -0.0536  0.0984
37656W        W80573   8.629   2.691  19.242  0.1754 -0.1197  0.1421
37657W        W80574   6.840   6.657  19.155  0.1080  0.3963  0.0283
37658W        W80575   7.030   8.156  21.637  0.0459 -0.0299  0.1379
37659W        W80576   9.067   5.208  17.446 -0.2319  0.0979  0.1840
37660W        W80577   9.648   4.144  17.891 -0.0226 -0.1094  0.3056
37661W        W80578  10.042   4.102  18.756 -0.0216  0.0344  0.2401
37662W        W80579   8.208   5.992  18.891  0.0637  0.2115 -0.1661
37663W        W80580  10.524   4.909  19.098  0.1389 -0.1014  0.1508
37664W        W80581  10.534   7.617  19.030  0.0712 -0.0182  0.0839
37665W        W80582   6.432   6.209  17.504  0.0841 -0.1343  0.0689
37666W        W80583  11.232   7.564  17.924 -0.2807  0.0174  0.0798
37667W        W80584  10.276   2.566  16.734 -0.2600 -0.1024 -0.0104
37668W        W80585   6.658   4.872  19.320 -0.2235  0.3107  0.0374
37669W        W80586   7.956   4.016  20.946  0.3085  0.0370 -0.0726
37670W        W80587   8.992   6.749  19.696 -0.3802 -0.1212  0.3833
37671W        W80588  10.636   5.206  16.499  0.2234 -0.0501 -0.2541
37672W        W80589   9.114   3.780  17.113  0.1655 -0.0503 -0.1040
37673W        W80590  10.758   4.471  16.829 -0.0331  0.2804 -0.5651
37674W        W80591   5.876   6.468  20.166  0.2693  0.3177  0.0398
37675W        W80592   7.228   1.713  18.000 -0.2153 -0.1058 -0.1606
37676W        W80593   8.529   8.657  16.715  0.0416 -0.0611 -0.2594
37677W        W80594  10.470   4.459  15.886  0.5912  0.0581  0.0792
37678W        W80595  10.445   6.063  17.264 -0.3305 -0.0336 -0.2843
37679W        W80596   8.822   6.779  17.449  0.0080  0.0759  0.0474
37680W        W80597   9.005   3.252  15.614  0.2107 -0.1146  0.0627
37681W        W80598   8.501   5.064  16.352  0.2103  0.2914 -0.0337
37682W        W80599   6.586   8.669  16.508  0.1101 -0.1339 -0.1789
37683W        W80600   9.363   6.113  17.128  0.0713 -0.0601 -0.0982
37684W        W80601   8.363   7.846  17.222 -0.2532  0.1864 -0.2165
37685W        W80602  10.604   5.424  19.603 -0.0900  0.3487 -0.1294
37686W        W80603  11.441   3.758  15.665  0.1292  0.1875 -0.2139
37687W        W80604  11.676   5.640  17.250 -0.2326 -0.0536  0.2052
37688W        W80605  10.597   3.757  15.431 -0.0001  0.2225 -0.2642
37689W        W80606  10.929   7.968  17.708 -0.1623  0.1970 -0.1413
37690W        W80607   9.329   5.395  17.879 -0.0247  0.0126  0.1453
37691W        W80608   8.023   3.210  15.545 -0.1896 -0.0061  0.2183
37692W        W80609   6.883   4.226  20.089 -0.1964 -0.1699  0.2337
37693W        W80610  10.665   2.258  19.075 -0.0301 -0.1677  0.1195
37694W        W80611   7.137   5.226  21.498 -0.0093  0.2879 -0.0452
37695W        W80612  11.985   7.644  18.130 -0.2400 -0.3777 -0.1183
37696W        W80613   6.015   5.377  17.116 -0.2580  0.1881 -0.0764
37697W        W80614   7.188   3.911  17.667  0.2955 -0.0266 -0.4928
37698W        W80615  10.365   5.382  16.999 -0.2983 -0.2387  0.0019
37699W        W80616   8.370   5.977  16.353  0.3657  0.1746  0.2143
37700W        W80617   8.703   4.190  18.435 -0.0473  0.1046 -0.1188
37701W        W80618   9.245   6.415  16.691 -0.1072 -0.0316  0.3380
37702W        W80619   8.006   7.815  16.826 -0.1435 -0.1787 -0.2363
37703W        W80620   8.152   7.383  19.471  0.1032  0.0309  0.0913
37704W        W80621   6.255   5.160  16.751 -0.2298 -0.2016 -0.1001
37705W        W80622  11.754   4.139  17.758  0.1687 -0.2819  0.1463
37706W        W80623   7.976   5.539  22.304 -0.0396 -0.2416 -0.1111
37707W        W80624  11.793   2.153  17.495  0.0691  0.2131 -0.3398
37708W        W80625   8.170   5.193  16.738  0.2098 -0.1018 -0.0953
37709W        W80626  10.544   6.575  16.779  0.0253  0.0404  0.1252
37710W        W80627  10.358   4.608  18.197 -0.1372  0.1378  0.0216
37711W        W80628   9.232   4.228  20.303  0.1846  0.3962  0.0144
37712W        W80629   9.703   3.422  15.275  0.0338  0.1440 -0.1868
37713W        W80630   9.588   7.276  19.983  0.0894 -0.1118 -0.1316
37714W        W80631   8.663   3.417  15.969  0.3167  0.1414  0.1954
37715W        W80632  11.640   6.167  18.057 -0.0273 -0.2698 -0.2644
37716W        W80633   8.001   1.783  16.786 -0.0973  0.1407  0.2522
37717W        W80634   8.693   4.742  15.678  0.0524  0.2908 -0.0487
37718W        W80635   8.753   4.763  17.663  0.1382 -0.1236 -0.2858
37719W        W80636   8.091   4.192  18.520 -0.1234  0.0108 -0.1805
37720W        W80637   9.640   4.639  21.130  0.2749 -0.0117  0.2590
37721W        W80638   8.128   1.856  16.244 -0.0900 -0.1918 -0.2343
37722W        W80639   9.160   4.612  15.942 -0.0019  0.0679  0.1622
37723W        W80640   8.604   5.211  18.825 -0.0167 -0.3608 -0.2848
37724W        W80641   8.397   5.866  17.422  0.1833 -0.0776 -0.2689
37725W        W80642  10.128   4.297  16.252 -0.0714 -0.2006 -0.2416
37726W        W80643   8.565   7.122  19.391 -0.1827  0.0392 -0.0761
37727W        W80644   8.988   2.509  16.085  0.0685  0.0816  0.0116
37728W        W80645   9.209   6.045  19.115 -0.1571 -0.1351 -0.0554
37729W        W80646  10.479   6.245  18.640  0.0257  0.1521  0.1604
37730W        W80647   8.414   3.846  18.772 -0.1436 -0.1506  0.0471
37731W        W80648   8.893   5.860  19.491 -0.0173 -0.1248  0.0136
37732W        W80649   8.033   7.005  17.126 -0.2719 -0.3052  0.1180
37733W        W80650  11.058   2.794  19.036 -0.2151 -0.0425 -0.0783
37734W        W80651   8.827   4.610  18.169 -0.1254 -0.0055  0.3441
37735W        W80652   8.545   5.552  16.511  0.0765 -0.0961  0.0195
37736W        W80653   9.439   0.904  17.900  0.0679  0.0716 -0.1273
37737W        W80654   8.130   5.275  19.577  0.0554  0.1153  0.2380
37738W        W80655   7.266   5.112  20.818 -0.2350  0.1521  0.0241
37739W        W80656   7.907   4.411  17.682 -0.0657 -0.0672 -0.0816
37740W        W80657   9.492   3.289  18.744 -0.1027 -0.4302 -0.1877
37741W        W80658   8.854   7.726  17.122 -0.0987 -0.1458  0.1391
37742W        W80659  10.632   6.975  17.175  0.4146  0.1135  0.1697
37743W        W80660  11.571   6.332  16.270  0.2099 -0.2954 -0.0628
37744W        W80661   9.804   4.068  16.534 -0.1133  0.1523 -0.2074
37745W        W80662  11.155   5.423  16.501  0.1084 -0.0418  0.0412
37746W        W80663   8.374   4.354  15.495 -0.4160  0.0440 -0.1106
37747W        W80664   9.235   3.334  17.400  0.1501  0.0859  0.2779
37748W        W80665   9.950   3.782  17.846  0.1583 -0.0562  0.2180
37749W        W80666   8.621   6.405  18.829 -0.2904  0.1196  0.0381
37750W        W80667   7.454   5.325  17.307  0.0632 -0.0092  0.1883
37751W        W80668   7.544   6.506  15.807 -0.2142 -0.1876 -0.2296
37752W        W80669   7.914   5.027  18.564  0.1912  0.0190 -0.1004
37753W        W80670   9.253   4.695  18.501 -0.0838 -0.0637  0.2678
37754W        W80671   8.964   3.714  19.520  0.1580 -0.0806  0.1072
37755W        W80672   6.812   4.720  20.140 -0.3396 -0.1289  0.0755
37756W        W80673   8.940   2.010  16.045 -0.0135  0.2745  0.0940
37757W        W80674  10.210   6.388  16.079 -0.0346  0.1876  0.1676
37758W        W80675   7.288   1.641  15.921 -0.0136 -0.0218  0.0285
37759W        W80676   7.285   3.868  15.587  0.2183 -0.1365 -0.2854
37760W        W80677   8.735   5.097  16.815 -0.0090  0.2381  0.0522
37761W        W80678  10.992   7.157  18.134 -0.0856  0.0799 -0.1740
37762W        W80679   8.825   3.682  17.586 -0.3012 -0.1723  0.1287
37763W        W80680   9.762   6.108  20.115 -0.0536  0.2616 -0.3667
37764W        W80681   6.719   4.883  18.083 -0.1507 -0.1940 -0.2032
37765W        W80682  12.046   3.618  22.212  0.0520 -0.1319  0.0012
37766W        W80683   7.984   5.035  18.052 -0.0867  0.1783  0.1975
37767W        W80684   8.884   2.731  16.676  0.2438 -0.1415 -0.2002
37768W        W80685   8.781   3.680  18.450 -0.1041 -0.1599 -0.0364
37769W        W80686   9.315   6.594  16.178 -0.0292 -0.0619 -0.1510
37770W        W80687   9.801   7.637  16.108 -0.2841 -0.1396 -0.0873
37771W        W80688   9.418   5.671  17.352  0.0888  0.0485  0.1685
37772W        W80689   8.028   5.490  20.836 -0.1264 -0.3174  0.0228
37773W        W80690   5.620   5.467  19.522  0.0844  0.2823  0.0496
37774W        W80691  11.157   4.861  16.254 -0.0059 -0.2874  0.3252
37775W        W80692   7.637   5.603  18.698  0.0994  0.2510  0.0562
37776W        W80693  11.518   4.551  16.028  0.0891  0.1769  0.1075
37777W        W80694  10.383   3.818  19.034 -0.3716  0.1234 -0.0690
37778W        W80695  10.929   3.966  15.739 -0.0968 -0.0964 -0.0546
37779W        W80696   7.519   4.640  18.319  0.2706 -0.0442 -0.0422
37780W        W80697   5.179   7.110  19.760  0.0607  0.3348  0.1978
37781W        W80698   8.585   6.617  19.370  0.0482  0.0106  0.2445
37782W        W80699   8.898   2.970  18.378  0.5388 -0.0436  0.2387
37783W        W80700  11.856   3.633  14.771  0.3193 -0.1651 -0.0016
37784W        W80701   8.710   4.879  19.199  0.0052  0.1215  0.4265
37785W        W80702   6.439   5.668  18.459  0.0837  0.0209 -0.0385
37786W        W80703   8.850   4.299  16.472 -0.4732 -0.0149  0.0529
37787W        W80704  10.485   6.034  16.382  0.4533 -0.0759  0.0076
37788W        W80705   9.951   7.227  16.477 -0.0870 -0.0434 -0.2048
37789W        W80706  10.609   5.428  18.038 -0.1544 -0.2559  0.0586
37790W        W80707   7.954   4.588  16.772  0.1369  0.1307  0.2141
37791W        W80708   9.499   5.485  16.547 -0.0713 -0.0802  0.0161
37792W        W80709   9.240   6.153  20.966  0.1802 -0.1283  0.4096
37793W        W80710   9.463   6.415  20.515 -0.0016 -0.0077 -0.0415
37794W        W80711   7.688   7.944  18.805 -0.0326 -0.0883  0.0188
37795W        W80712  10.252   2.216  18.678  0.1053  0.1452  0.0177
37796W        W80713   6.698   3.735  17.699  0.0728 -0.0895 -0.0828
37797W        W80714   8.793   3.823  16.692 -0.4314 -0.0505  0.0257
37798W        W80715   9.407   5.084  16.793  0.0530 -0.1190  0.1898
37799W        W80716   8.902   3.365  16.523  0.0437  0.1566  0.2900
37800W        W80717  11.157   3.248  18.901 -0.0957 -0.0423 -0.3144
37801W        W80718   9.308   1.645  16.102 -0.3195 -0.1970 -0.0003
37802W        W80719   9.371   4.915  19.364 -0.0597 -0.1772  0.1358
37803W        W80720  12.660   4.052  19.545  0.0298  0.2024  0.0448
37804W        W80721   9.241   5.340  22.224  0.1565 -0.3252 -0.1531
37805W        W80722   9.913   5.437  20.243 -0.2563  0.0062  0.0155
37806W        W80723   9.678   5.829  18.922 -0.1044 -0.0315  0.1157
37807W        W80724  11.590   6.083  19.953  0.0069  0.0458 -0.0872
37808W        W80725   8.528   5.285  21.598 -0.0819 -0.0183  0.3448
37809W        W80726   9.197   4.924  20.922  0.2265  0.0001  0.1315
37810W        W80727   6.837   2.457  19.853  0.1276 -0.0435  0.0140
37811W        W80728   9.331   5.622  23.157 -0.0563 -0.3324 -0.1015
37812W        W80729   9.283   6.904  23.969  0.0818  0.1506  0.2129
37813W        W80730   9.187   6.894  20.425  0.1485 -0.0467 -0.2429
37814W        W80731  11.035   2.918  21.806  0.0313 -0.0133 -0.1858
37815W        W80732  10.476   6.544  22.766  0.0992  0.0954  0.1794
37816W        W80733   9.862   3.349  21.241  0.4188  0.1231 -0.0807
37817W        W80734   6.555   6.335  22.646  0.0966  0.1837 -0.2852
37818W        W80735  10.686   3.464  20.899 -0.0369 -0.1819  0.5135
37819W        W80736   7.752   4.848  21.198  0.2435 -0.1836 -0.0228
37820W        W80737   6.856   5.543  22.344 -0.0691  0.1087 -0.1994
37821W        W80738   7.863   4.596  20.218 -0.0663  0.1980 -0.0341
37822W        W80739   9.481   7.209  20.892  0.0077  0.1171  0.1986
37823W        W80740   9.690   4.405  23.344 -0.1066  0.3065  0.0569
37824W        W80741   9.423   3.862  24.113 -0.2284 -0.2822  0.2929
37825W        W80742   9.614   4.024  20.004  0.1729 -0.0313  0.1838
37826W        W80743   7.400   3.690  19.724  0.1654 -0.0548  0.0317
37827W        W80744   7.215   4.888  23.725  0.0462 -0.1651  0.0871
37828W        W80745  10.604   3.361  22.945  0.0577 -0.2353  0.0798
37829W        W80746   9.521   5.349  19.097 -0.1346  0.1683 -0.0852
37830W        W80747  10.400   1.690  20.571  0.1047  0.0396  0.0255
37831W        W80748   7.076   8.186  20.847 -0.3239 -0.0084  0.1082
37832W        W80749   9.248   6.473  21.340  0.1175 -0.3575 -0.2629
37833W        W80750  11.588   4.864  24.011  0.2615  0.1354  0.0146
37834W        W80751   5.923   5.470  21.180  0.0301 -0.1315  0.0158
37835W        W80752   6.932   6.919  21.593 -0.0428 -0.1796 -0.1713
37836W        W80753   7.574   6.756  20.666 -0.0984 -0.0245  0.0338
37837W        W80754  10.395   4.723  22.238 -0.2963 -0.2951 -0.0033
37838W        W80755  11.208   6.129  23.672 -0.2014  0.0038  0.0426
37839W        W80756  10.073   6.859  22.877 -0.1534  0.1455 -0.0510
37840W        W80757   5.221   6.425  19.750  0.1811 -0.0244 -0.1954
37841W        W80758   9.660   6.440  24.198  0.0478  0.0129 -0.1267
37842W        W80759  10.296   6.665  21.665 -0.0869  0.1956 -0.0681
37843W        W80760  10.146   2.343  22.181 -0.2042  0.1386  0.1249
37844W        W80761  10.682   5.980  20.505  0.1490  0.2738 -0.1732
37845W        W80762   7.824   5.973  20.691 -0.0960 -0.1852 -0.0507
37846W        W80763   9.943   6.269  22.461  0.0878  0.1684  0.0470
37847W        W80764   9.656   4.768  22.980 -0.2703  0.0807 -0.1300
37848W        W80765  10.638   5.392  21.849  0.0230 -0.1808 -0.2339
37849W        W80766  11.944   3.802  23.341  0.1883  0.3501  0.1220
37850W        W80767   7.246   5.833  19.970  0.0992 -0.1447  0.1232
37851W        W80768  11.324   4.820  18.782  0.0249 -0.0807 -0.0312
37852W        W80769  11.031   2.630  18.098 -0.0681 -0.1874  0.0196
37853W        W80770   9.287   3.753  18.567  0.1427 -0.3425  0.0019
37854W        W80771   9.974   3.718  20.893 -0.4382 -0.1802 -0.2280
37855W        W80772   7.670   5.981  22.094  0.2303 -0.0025 -0.3537
37856W        W80773   9.954   4.331  22.203 -0.0606  0.0139 -0.0846
37857W        W80774  10.867   4.609  22.289 -0.4572 -0.4619 -0.1153
37858W        W80775   9.790   4.143  20.583  0.0715 -0.0613 -0.1467
37859W        W80776   9.382   4.681  23.630  0.0009 -0.2330 -0.1318
37860W        W80777   6.802   5.767  20.662  0.0739 -0.0172 -0.0785
37861W        W80778   6.185   4.328  20.892 -0.2524 -0.3660 -0.3624
37862W        W80779  10.365   4.201  20.788 -0.1056 -0.3492  0.2321
37863W        W80780  10.280   7.119  20.290  0.1577 -0.0526 -0.0612
37864W        W80781  10.624   4.827  20.501  0.0929 -0.3285 -0.1933
37865W        W80782   7.430   5.569  21.862 -0.0596 -0.2855 -0.1340
37866W        W80783   8.043   5.248  22.723  0.2420 -0.1952 -0.2318
37867W        W80784   8.034   5.522  23.502 -0.2582 -0.0093 -0.0747
37868W        W80785   7.867   3.441  17.789  0.0401  0.1795 -0.1820
37869W        W80786  11.792   5.785  23.858  0.1448  0.3431 -0.3691
37870W        W80787   8.379   6.906  23.846  0.0034  0.1494 -0.1451
37871W        W80788  12.677   3.401  18.912  0.1876 -0.3893 -0.1666
37872W        W80789   9.337   5.748  21.966  0.0035 -0.1803 -0.0680
37873W        W80790   9.076   7.033  21.315 -0.0015  0.0605  0.1659
37874W        W80791  10.178   3.170  17.777 -0.2391  0.0506  0.3939
37875W        W80792   8.079   2.587  22.041 -0.3794 -0.0465  0.3184
37876W        W80793  10.692   3.359  22.444  0.3178 -0.5454 -0.2588
37877W        W80794   7.687   9.661  19.994  0.0283 -0.1541 -0.3197
37878W        W80795   9.535   5.753  20.997  0.1773 -0.1802 -0.1491
37879W        W80796  11.289   6.637  21.441 -0.0343  0.1698  0.1617
37880W        W80797  10.652   4.047  20.018  0.0727  0.1424 -0.1528
37881W        W80798   8.579   6.075  22.730  0.0526  0.0691 -0.1064
37882W        W80799   8.480   5.946  23.473  0.0983  0.1794  0.0710
37883W        W80800  10.560   4.476  24.556 -0.2198  0.0360 -0.2210
37884W        W80801   7.485   7.897  19.743 -0.1999 -0.1713 -0.0844
37885W        W80802   7.020   6.152  21.597 -0.1353 -0.0892  0.3699
37886W        W80803   9.825   4.984  20.096 -0.2430 -0.4114 -0.1290
37887W        W80804   6.970   3.955  22.422 -0.1221  0.0209  0.0315
37888W        W80805  10.021   4.993  22.778  0.1550 -0.1315  0.1675
37889W        W80806  11.844   3.520  18.284  0.2155 -0.2247 -0.0781
37890W        W80807   8.471   5.866  24.105 -0.1245 -0.2220 -0.0772
37891W        W80808   9.400   2.484  20.188 -0.0360 -0.2201  0.0618
37892W        W80809   7.211   6.682  21.040  0.0068  0.0704  0.0125
37893W        W80810  11.147   5.975  20.178  0.2298 -0.3972 -0.0523
37894W        W80811  12.397   4.513  18.909 -0.1076 -0.0074 -0.0527
37895W        W80812  10.099   4.730  20.484  0.0000 -0.1025  0.2800
37896W        W80813   8.764   6.611  24.721 -0.1227 -0.0324  0.1236
37897W        W80814   6.869   4.791  21.083  0.1264  0.1443  0.0615
37898W        W80815   9.298   4.408  22.975  0.0621  0.0828 -0.3308
37899W        W80816   9.438   3.530  21.345 -0.2498 -0.1454 -0.3301
37900W        W80817  10.493   5.360  22.679  0.0343 -0.1646 -0.1497
37901W        W80818   7.388   4.963  20.291 -0.1115 -0.4052  0.1890
37902W        W80819  10.650   3.462  19.586  0.0639  0.2120 -0.2286
37903W        W80820   8.712   5.966  20.546 -0.0267 -0.1501  0.1881
37904W        W80821   6.187   6.895  20.417 -0.0553  0.3611 -0.0873
37905W        W80822  12.009   4.177  20.732  0.0888  0.0055 -0.1938
37906W        W80823   8.261   7.080  20.194 -0.2340  0.0574 -0.0882
37907W        W80824  10.235   7.937  22.844  0.1939 -0.2349  0.2130
37908W        W80825   9.819   7.086  20.470  0.0579  0.1522 -0.1772
37909W        W80826   8.105   6.448  22.210  0.0672  0.0366  0.3715
37910W        W80827   9.080   3.778  20.129 -0.1271  0.3329  0.0121
37911W        W80828   9.181   5.418  21.205 -0.3579  0.1984  0.2302
37912W        W80829   9.546   4.505  21.925 -0.0516  0.0588  0.1687
37913W        W80830   8.205   3.270  20.000  0.0439 -0.0401  0.2238
37914W        W80831   9.407   6.843  21.757 -0.0143 -0.0063 -0.0939
37915W        W80832  11.552   5.793  22.339 -0.1079 -0.1069  0.0000
37916W        W80833  10.310   5.658  22.273 -0.2389 -0.0746 -0.2712
37917W        W80834   9.094   3.809  22.254 -0.1766 -0.0323  0.0078
37918W        W80835  10.159   5.236  21.755  0.0908 -0.1188  0.2800
37919W        W80836  10.176   5.206  19.839  0.1867  0.0528  0.3509
37920W        W80837   9.456   5.641  20.164  0.0240 -0.0973 -0.1316
37921W        W80838  10.761   5.512  20.557  0.2359 -0.1865 -0.0893
37922W        W80839   4.452   7.197  20.490  0.0466 -0.0444  0.0517
37923W        W80840   4.959   5.757  21.401  0.0931 -0.1956  0.1720
37924W        W80841   8.701   8.044  19.444 -0.0237 -0.2895  0.0109
37925W        W80842  11.625   3.928  20.902  0.1326 -0.0135 -0.1353
37926W        W80843   8.225   6.004  24.927  0.0139  0.1693 -0.2015
37927W        W80844  12.255   4.615  23.502  0.4952  0.1016  0.0334
37928W        W80845   6.935   3.545  21.978  0.0525  0.1712  0.3175
37929W        W80846   8.308   6.687  21.260 -0.1638 -0.5143  0.0509
37930W        W80847   9.933   4.192  21.074 -0.0396 -0.1612  0.0518
37931W        W80848  10.887   4.492  19.950 -0.4204  0.1799  0.0196
37932W        W80849   9.167   6.100  22.765  0.3635 -0.2936 -0.0371
37933W        W80850  11.137   4.571  21.007  0.2808  0.0430 -0.0859
37934W        W80851  10.510   4.414  20.312  0.5383 -0.0462  0.0864
37935W        W80852  10.240   3.248  18.793  0.1559 -0.1365 -0.2963
37936W        W80853   8.081   6.068  24.393  0.4515 -0.0736  0.1339
37937W        W80854   8.763   5.061  20.178 -0.1033  0.2302 -0.2179
37938W        W80855  10.422   3.796  21.118  0.0721  0.1260  0.0005
37939W        W80856  10.106   5.069  18.888 -0.0210  0.0127 -0.1400
37940W        W80857  10.828   7.744  18.537  0.4621 -0.5192  0.1829
37941W        W80858   8.765   6.345  21.609 -0.2000  0.0453 -0.0629
37942W        W80859   9.717   5.042  23.898  0.0750  0.0128 -0.0482
37943W        W80860  10.184   8.212  19.521 -0.2038  0.0836 -0.1020
37944W        W80861   7.316   3.654  21.629  0.1156 -0.0546  0.2314
37945W        W80862   8.339   4.435  17.426  0.1042 -0.0582 -0.1817
37946W        W80863   9.966   2.743  21.984 -0.1445  0.1601  0.0753
37947W        W80864   7.580   5.337  21.212  0.2305 -0.1080  0.0309
37948W        W80865   7.545   2.670  21.608  0.3071  0.0338  0.0725
37949W        W80866   6.883   0.623  22.034  0.2830 -0.1983 -0.1815
37950W        W80867   8.302   4.297  24.705  0.3787 -0.2208 -0.2543
37951W        W80868  10.122   4.105  23.066  0.4002  0.2043  0.1127
37952W        W80869  10.388   3.755  20.532  0.2963  0.0421  0.0983
37953W        W80870  11.965   4.898  20.203  0.4268 -0.0894 -0.0810
37954W        W80871   8.217   5.878  20.344 -0.0728 -0.2205 -0.1451
37955W        W80872   9.239   3.492  22.734 -0.1437 -0.0092 -0.1354
37956W        W80873   7.543   6.075  23.008 -0.1167  0.0097  0.2983
37957W        W80874   7.892   6.679  23.729  0.1522 -0.1031 -0.3281
37958W        W80875  10.624   5.122  21.238  0.1953  0.0037 -0.0379
37959W        W80876  10.693   5.038  23.692 -0.1453  0.1160  0.2496
37960W        W80877  10.542   3.869  22.748 -0.4744 -0.2105 -0.0689
37961W        W80878  10.051   2.822  19.253  0.0588  0.2383 -0.1832
37962W        W80879   8.808   7.851  18.465  0.1476 -0.0561  0.1938
37963W        W80880  10.255   6.124  21.460  0.0249 -0.0004  0.1411
37964W        W80881   8.627   3.225  20.837  0.0683  0.0643  0.1976
37965W        W80882  11.249   3.981  22.058  0.1287  0.0171  0.0152
37966W        W80883  10.322   6.657  18.417  0.2577 -0.0033  0.0336
37967W        W80884  10.415   3.671  22.252  0.0679 -0.0525  0.1599
37968W        W80885   6.009   7.975  19.076 -0.1119 -0.1480 -0.2940
37969W        W80886  11.626   2.929  20.952  0.2507 -0.0112  0.0485
37970W        W80887   6.454   7.218  21.645 -0.0119  0.3317  0.0838
37971W        W80888  10.950   4.448  20.567 -0.2240  0.1989 -0.1692
37972W        W80889   7.020   5.838  21.955 -0.0726  0.1766  0.1083
37973W        W80890   9.531   4.264  21.471  0.0332  0.2989  0.0272
37974W        W80891  10.472   6.225  22.364 -0.0966 -0.0463 -0.1803
37975W        W80892   6.547   4.547  23.122  0.3359  0.1428  0.0285
37976W        W80893   9.168   4.334  21.139 -0.1644  0.2197  0.0800
37977W        W80894  10.668   4.653  20.946  0.1411  0.0067 -0.0054
37978W        W80895  11.166   3.502  22.202 -0.1545 -0.0556  0.0636
37979W        W80896  11.236   4.185  18.571  0.0354 -0.2760  0.3337
37980W        W80897  11.996   4.913  22.523  0.3139 -0.0512  0.2248
37981W        W80898   9.729   6.086  23.747  0.0926  0.1343  0.3063
37982W        W80899   5.433   5.701  21.406 -0.1916 -0.1477  0.2351
37983W        W80900   8.221   4.558  22.956  0.0194  0.1477  0.0746
37984W        W80901   6.835   5.010  22.984  0.2315 -0.0087  0.2171
37985W        W80902   7.061   6.681  18.702  0.1360  0.0977  0.0618
37986W        W80903   9.501   6.230  23.272  0.0345 -0.0600 -0.1409
37987W        W80904   9.974   3.299  20.556  0.1774  0.3554 -0.0143
37988W        W80905   8.637   6.142  22.050  0.3013 -0.2685 -0.0596
37989W        W80906   5.716   2.991  22.368 -0.2337  0.2451  0.0046
37990W        W80907   9.766   2.874  23.866  0.2061  0.0966 -0.2543
37991W        W80908  10.245   3.141  21.694 -0.0395 -0.0685 -0.1139
37992W        W80909   8.346   4.879  18.556  0.4156  0.2052  0.1292
37993W        W80910  10.325   3.639  21.730 -0.0158  0.3573 -0.4696
37994W        W80911   9.535   3.665  20.428  0.3569  0.0050 -0.1709
37995W        W80912  10.985   2.300  20.548 -0.0275  0.0782  0.0979
37996W        W80913   7.052   6.592  22.631  0.3274 -0.1292  0.1781
37997W        W80914  10.287   2.315  22.703 -0.1415  0.1926 -0.2247
37998W        W80915  10.841   7.185  18.856  0.0634 -0.1639 -0.0760
37999W        W80916  10.501   5.562  23.784  0.2524  0.0527  0.1215
38000W        W80917   7.179   5.475  20.407 -0.0177 -0.1960 -0.1821
38001W        W80918   7.806   5.658  24.976  0.2586 -0.1738 -0.1275
38002W        W80919   8.413   7.944  20.268 -0.1182 -0.0866 -0.2862
38003W        W80920  10.015   3.314  22.152  0.1365 -0.0396 -0.1258
38004W        W80921   8.238   5.664  21.396 -0.2008 -0.1473  0.3442
38005W        W80922   9.249   7.640  19.766  0.0730  0.2891  0.1629
38006W        W80923  10.002   5.338  23.080  0.1394 -0.0038 -0.0618
38007W        W80924  11.929   3.515  20.100 -0.0011 -0.0453  0.1744
38008W        W80925   9.781   5.937  20.645  0.0359  0.0247 -0.1306
38009W        W80926   9.955   3.822  22.034 -0.0354 -0.0388  0.2622
38010W        W80927  10.190   3.800  23.831  0.3002  0.3022 -0.0946
38011W        W80928  11.148   6.002  18.866  0.1962 -0.0746 -0.2882
38012W        W80929  11.599   3.610  21.927  0.1250  0.3877  0.1433
38013W        W80930   9.495   3.936  21.042  0.0319 -0.1655  0.1023
38014W        W80931   9.733   5.372  21.996 -0.0710  0.1119  0.1541
38015W        W80932   6.896   5.533  22.848 -0.0211  0.0547 -0.0449
38016W        W80933  10.384   4.967  23.290 -0.1113 -0.2070  0.1594
38017W        W80934   6.965   3.782  24.963 -0.1577  0.1319 -0.1643
38018W        W80935   8.564   4.876  19.747  0.1051  0.2084 -0.0614
38019W        W80936   6.982   4.326  18.564 -0.0893 -0.0846 -0.2309
38020W        W80937  10.753   4.884  19.635  0.0974 -0.0653  0.1564
38021W        W80938  10.010   4.257  19.488 -0.1656 -0.0517 -0.0657
38022W        W80939  10.453   4.841  20.022 -0.0547  0.0375 -0.0761
38023W        W80940   8.672   3.814  21.823  0.1737 -0.1033 -0.2935
38024W        W80941   7.132   5.171  22.581  0.0852 -0.1410  0.0158
38025W        W80942  11.991   2.729  21.335 -0.0752  0.1025  0.0266
38026W        W80943   9.004   5.489  19.861 -0.0699 -0.2601 -0.3547
38027W        W80944   9.294   5.141  20.239 -0.3134  0.0064  0.0128
38028W        W80945  10.429   2.666  21.779 -0.0799 -0.1461 -0.2600
38029W        W80946  10.307   5.665  20.551 -0.2337 -0.0082  0.2277
38030W        W80947   9.067   5.353  19.320 -0.0805 -0.1298  0.1013
38031W        W80948  11.482   3.893  23.143  0.1650 -0.4176 -0.2843
38032W        W80949  10.873   3.860  23.140  0.1440  0.1987  0.1492
38033W        W80950   7.351   3.461  23.628 -0.2305 -0.0665  0.0075
38034W        W80951   6.161   3.300  22.759  0.0198 -0.1177 -0.3896
38035W        W80952   9.865   7.403  26.510 -0.2600  0.0974 -0.1474
38036W        W80953  10.694   3.981  19.470 -0.0002 -0.1306  0.0222
38037W        W80954   8.319   3.991  22.178 -0.0162 -0.1937  0.1319
38038W        W80955  11.533   4.661  20.133 -0.1272  0.0633 -0.4831
38039W        W80956  10.448   4.398  19.695  0.2475 -0.5041 -0.1627
38040W        W80957   6.380   3.826  22.539  0.1260  0.3692 -0.2825
38041W        W80958  11.096   4.421  24.473 -0.1879  0.0203 -0.1957
38042W        W80959   6.360   4.459  20.179  0.2165  0.0920 -0.1118
38043W        W80960  10.345   3.687  23.378  0.0265 -0.2201  0.0580
38044W        W80961   8.748   6.198  21.023  0.3085 -0.1351  0.1896
38045W        W80962  10.697   5.788  18.833 -0.2882  0.2301  0.2943
38046W        W80963   9.716   3.224  20.044  0.0861  0.1695  0.0955
38047W        W80964   8.646   3.373  21.388  0.2767  0.0744 -0.0907
38048W        W80965   9.431   5.233  22.841  0.1441  0.1774 -0.2107
38049W        W80966   9.056   4.143  19.295  0.1907 -0.1699 -0.0842
38050W        W80967   9.210   5.991  20.459  0.0749 -0.2040  0.1846
38051W        W80968  10.759   5.155  22.288  0.1024 -0.1622 -0.0172
38052W        W80969  12.084   4.915  23.907 -0.1220 -0.1525  0.0109
38053W        W80970   9.054   2.680  18.765 -0.1363 -0.0819 -0.1141
38054W        W80971  11.384   3.815  22.538  0.0409 -0.0211  0.0356
38055W        W80972   8.427   4.126  20.891  0.1814  0.2879 -0.0437
38056W        W80973   9.821   2.917  21.494 -0.0764  0.1094  0.1501
38057W        W80974  10.141   5.803  23.105  0.1825 -0.0268 -0.2814
38058W        W80975   9.681   6.601  22.126  0.1338 -0.2974  0.1582
38059W        W80976   9.974   5.785  21.237 -0.0414  0.3004  0.0170
38060W        W80977   9.062   1.160  20.286  0.1149 -0.0728  0.1632
38061W        W80978  12.455   2.402  21.216  0.1257  0.3251 -0.1464
38062W        W80979  11.022   5.865  22.714  0.2280  0.2175  0.2730
38063W        W80980  10.428   4.259  21.280 -0.2050  0.2110 -0.3497
38064W        W80981  10.592   5.973  24.004  0.0015 -0.0854  0.1219
38065W        W80982   8.770   4.397  21.411 -0.2800  0.0957 -0.0041
38066W        W80983  10.296   4.026  24.588  0.2063 -0.2526 -0.2612
38067W        W80984  11.128   6.330  19.845  0.0092  0.0794  0.0320
38068W        W80985   8.948   6.703  21.949 -0.2049 -0.1461 -0.1091
38069W        W80986   7.118   4.564  25.104 -0.1942  0.0810  0.0602
38070W        W80987  10.820   5.663  22.259 -0.2245  0.4505 -0.2240
38071W        W80988  11.077   5.157  21.466 -0.0406 -0.3264  0.3132
38072W        W80989   8.490   4.792  22.558  0.1178 -0.0618 -0.1256
38073W        W80990  10.393   5.142  20.786  0.1153 -0.0504 -0.0679
38074W        W80991   7.327   6.491  23.652  0.1691 -0.2458 -0.3571
38075W        W80992   8.152   6.479  22.818 -0.2133 -0.0891  0.0506
38076W        W80993   7.840   8.227  20.406 -0.3002  0.2836 -0.2409
38077W        W80994   7.447   6.656  20.190  0.1402  0.4406 -0.2674
38078W        W80995   8.395   5.814  19.619 -0.0032  0.4073  0.1181
38079W        W80996   9.556   8.175  20.495  0.1242  0.0598  0.0591
38080W        W80997   9.599   4.894  18.867  0.0260  0.0663 -0.3390
38081W        W80998   7.441   6.872  21.472  0.0210  0.1547  0.2630
38082W        W80999   5.107   5.739  21.900  0.0961 -0.2501 -0.0216
38083W        W81000   9.486   3.884  21.816  0.0686  0.1539 -0.2785
38084W        W81001   6.599   6.980  21.224  0.1607 -0.1870  0.0354
38085W        W81002  11.008   5.183  20.889  0.3194 -0.4175  0.4324
38086W        W81003   8.046   4.153  20.409  0.2026  0.4509  0.0312
38087W        W81004  10.514   3.143  20.530  0.2594  0.0719 -0.1583
38088W        W81005  12.257   3.154  19.768  0.3849  0.0871  0.2025
38089W        W81006   8.179   7.509  20.447 -0.0153  0.1340  0.0486
38090W        W81007   8.357   5.553  23.025  0.0088 -0.0979 -0.2309
38091W        W81008   9.889   4.633  19.190  0.1050 -0.1652  0.0103
38092W        W81009   7.574   5.029  22.751 -0.1106  0.0129 -0.1069
38093W        W81010   9.549   2.062  23.847 -0.0528  0.3131  0.0983
38094W        W81011   9.627   6.734  23.226  0.2938 -0.0253 -0.0623
38095W        W81012   8.866   7.738  20.026  0.0864  0.0751 -0.0077
38096W        W81013   7.860   3.322  20.977  0.0386 -0.1931 -0.1989
38097W        W81014   9.423   5.117  23.292  0.2545  0.1167  0.0973
38098W        W81015  11.483   3.104  22.008 -0.2460 -0.0448  0.0728
38099W        W81016  10.213   6.127  20.832 -0.2175  0.1278 -0.0219
38100W        W81017   9.883   3.540  19.719 -0.1221 -0.2289 -0.0449
38101W        W81018   9.409   4.406  20.732 -0.1371 -0.1662  0.0907
38102W        W81019   9.196   5.347  21.675  0.3777 -0.0068  0.1950
38103W        W81020   9.631   5.481  23.733  0.1432  0.1702 -0.0024
38104W        W81021   8.002   5.295  20.354  0.1037  0.3631 -0.0780
38105W        W81022  13.404   3.827  20.251  0.1468 -0.0957 -0.0581
38106W        W81023   9.566   3.703  22.465  0.0563  0.1016 -0.0491
38107W        W81024  11.642   2.614  21.908 -0.0090  0.1040 -0.0885
38108W        W81025   8.436   5.517  22.089 -0.0476 -0.1623  0.0630
38109W        W81026   9.334   2.537  20.702  0.2217  0.0809 -0.0207
38110W        W81027   8.969   5.217  22.574  0.2445 -0.2177 -0.1984
38111W        W81028   8.976   5.806  22.314 -0.0148  0.1956  0.0838
38112W        W81029   9.794   4.684  19.693  0.0834  0.0810  0.2023
38113W        W81030  10.752   4.306  22.710  0.1040 -0.0716  0.1986
38114W        W81031  11.328   3.420  18.380 -0.1067 -0.1048  0.0388
38115W        W81032  11.348   5.775  24.224 -0.4499  0.1932 -0.1208
38116W        W81033   8.375   4.319  22.558 -0.1866  0.0073  0.1354
38117W        W81034   8.002   4.703  19.700  0.0955  0.3261 -0.4024
38118W        W81035   7.605   5.101  21.662  0.2225  0.1134 -0.0161
38119W        W81036   7.295   5.082  23.163 -0.2645  0.1818 -0.0074
38120W        W81037  11.797   6.311  23.533  0.0567 -0.2322  0.3206
38121W        W81038   5.859   5.466  21.736 -0.0725 -0.0474  0.1988
38122W        W81039   9.168   7.367  20.472  0.0924  0.3028  0.0991
38123W        W81040   9.829   2.390  20.866  0.2026 -0.3290  0.0398
38124W        W81041   7.373   7.209  20.565 -0.0237  0.0027 -0.0212
38125W        W81042  10.986   5.591  21.164  0.1179 -0.1026  0.3933
38126W        W81043   9.379   7.727  21.311 -0.1626 -0.1519 -0.0626
38127W        W81044   7.134   4.369  21.020 -0.1580  0.1975  0.0181
38128W        W81045  12.805   5.499  24.156  0.1080 -0.1036 -0.3174
38129W        W81046  10.424   5.911  22.716  0.1816  0.3249 -0.1347
38130W        W81047   8.561   4.065  19.571  0.0664  0.0130 -0.0311
38131W        W81048   5.931   5.370  24.035  0.1723 -0.0408 -0.0485
38132W        W81049   7.054   6.266  20.532 -0.1336  0.1552  0.2025
38133W        W81050  10.688   1.962  20.901 -0.4564  0.2060 -0.0376
38134W        W81051   8.765   2.293  23.272 -0.1239 -0.2819 -0.0380
38135W        W81052   8.077   6.651  20.087 -0.5018 -0.1697  0.2743
38136W        W81053   9.305   2.471  25.146 -0.1806 -0.1349  0.0335
38137W        W81054   9.405   5.724  22.560 -0.0492 -0.2835 -0.0383
38138W        W81055   9.612   6.567  23.744 -0.0696  0.0086  0.1241
38139W        W81056   6.478   5.562  20.976  0.0645  0.0513  0.2446
38140W        W81057  10.757   4.689  24.053 -0.1498 -0.2154 -0.0797
38141W        W81058   8.529   6.901  18.943 -0.2287  0.1092 -0.3044
38142W        W81059  10.907   4.157  21.179  0.2347  0.1669  0.2933
38143W        W81060   9.938   7.281  22.704  0.1014 -0.0477  0.0984
38144W        W81061   9.626   4.403  18.765 -0.0626 -0.1868 -0.0762
38145W        W81062  11.093   5.297  19.620 -0.1605  0.0995 -0.2220
38146W        W81063   8.403   4.305  21.710  0.0195  0.1444 -0.1133
38147W        W81064  11.296   4.808  19.597  0.1486 -0.0851  0.0349
38148W        W81065   8.970   2.237  20.433 -0.3308 -0.3447  0.1133
38149W        W81066   7.206   3.977  23.665 -0.0465  0.3076  0.0712
38150W        W81067   6.761   5.151  20.742 -0.0743  0.2028 -0.1568
38151W        W81068   8.837   5.639  23.320 -0.0960  0.1799  0.3025
38152W        W81069   9.076   5.220  24.500 -0.2794  0.1646 -0.0752
38153W        W81070   9.122   3.147  23.746  0.0945  0.1353  0.4881
38154W        W81071   8.267   4.603  22.100 -0.1548  0.0960  0.1770
38155W        W81072   9.007   4.498  22.570 -0.0851 -0.0300  0.0300
38156W        W81073   6.960   4.580  22.003  0.0334 -0.1269  0.0903
38157W        W81074   9.998   4.281  21.705  0.1361  0.0561 -0.1924
38158W        W81075   8.170   3.848  21.747 -0.1470 -0.0732  0.0344
38159W        W81076   5.928   4.816  21.765  0.3930 -0.1331  0.1776
38160W        W81077  10.281   4.722  21.274 -0.0466  0.1037 -0.1622
38161W        W81078   9.603   6.590  20.070  0.1315  0.4078  0.1277
38162W        W81079   7.634   4.084  19.282  0.0728  0.2651 -0.2278
38163W        W81080  11.826   5.316  21.204  0.0620  0.1197  0.0472
38164W        W81081   6.594   7.034  20.000  0.0828 -0.1584 -0.1858
38165W        W81082  11.203   2.496  22.206 -0.0764 -0.3459  0.5280
38166W        W81083   6.912   4.669  22.560  0.2717  0.1259 -0.2039
38167W        W81084   7.856   5.513  18.231  0.0729  0.0165 -0.1145
38168W        W81085  11.296   4.345  22.441 -0.1321  0.0268 -0.4083
38169W        W81086  10.959   6.383  20.589 -0.1999 -0.2361  0.2071
38170W        W81087  10.766   7.065  17.676  0.3550 -0.0431  0.0333
38171W        W81088   7.751   6.351  23.343  0.0886 -0.2241 -0.0487
38172W        W81089   7.804   4.968  22.072 -0.3541 -0.1016 -0.2171
38173W        W81090   5.728   2.090  22.022 -0.2995 -0.0743  0.1557
38174W        W81091   9.934   3.832  19.225  0.0563  0.1459 -0.0267
38175W        W81092   9.680   6.048  21.717 -0.1517 -0.1106  0.2676
38176W        W81093  12.672   4.892  18.818 -0.0431 -0.0483  0.3359
38177W        W81094  11.077   3.560  21.218 -0.1029  0.1527 -0.0543
38178W        W81095   9.988   3.774  20.182 -0.0382 -0.2752  0.1442
38179W        W81096   7.671   5.185  23.562  0.2139 -0.2006 -0.2381
38180W        W81097  11.905   4.421  23.231  0.2634 -0.1920 -0.2054
38181W        W81098  12.220   5.227  22.195  0.1397 -0.0534 -0.0374
38182W        W81099   8.111   4.912  21.712  0.1618 -0.2596 -0.0659
38183W        W81100  10.375   2.634  19.660  0.0226  0.0817  0.0689
38184W        W81101   9.844   6.526  19.167  0.4145 -0.1023  0.2511
38185W        W81102   7.864   6.903  23.029 -0.2944  0.1766  0.3841
38186W        W81103  10.240   3.939  19.752 -0.3210  0.3149  0.0030
38187W        W81104  10.880   5.206  22.975  0.0569  0.1633 -0.1510
38188W        W81105   9.923   7.031  21.769 -0.3336 -0.1993 -0.1257
38189W        W81106   9.068   4.711  20.482  0.1029  0.1780 -0.2686
38190W        W81107   8.346   3.893  19.988  0.0473 -0.1736  0.2350
38191W        W81108   9.464   5.628  18.313 -0.1747  0.0630 -0.2068
38192W        W81109   9.803   7.247  21.318  0.0065  0.1622 -0.3884
38193W        W81110  11.004   5.632  23.873 -0.2032  0.1008 -0.1186
38194W        W81111   9.789   5.756  23.389  0.0417 -0.1644  0.0129
38195W        W81112  10.681   6.916  20.545  0.0121 -0.0837  0.1960
38196W        W81113   7.780   3.895  22.367  0.0264  0.0521  0.0295
38197W        W81114   9.596   5.134  21.143 -0.0550 -0.1618 -0.2157
38198W        W81115  11.170   5.301  21.945 -0.1701  0.3691 -0.5743
38199W        W81116  10.608   2.481  22.280 -0.0566 -0.1337  0.0107
38200W        W81117   9.709   4.319  22.660  0.1511 -0.0020 -0.2998
38201W        W81118   7.087   2.942  19.932 -0.1689 -0.0324 -0.2405
38202W        W81119  10.244   7.419  23.080  0.0039  0.1716 -0.1612
38203W        W81120   9.741   4.977  21.687 -0.1176  0.1622  0.1686
38204W        W81121   8.327   5.514  26.657  0.0856 -0.1170 -0.2070
38205W        W81122   8.539   5.275  26.262 -0.1294 -0.2411  0.1013
38206W        W81123  10.004   4.164  24.188 -0.1369  0.1826 -0.1055
38207W        W81124  11.618   3.601  21.439 -0.0992 -0.0801 -0.0778
38208W        W81125   6.481   5.339  23.101 -0.0519 -0.1620  0.1657
38209W        W81126  11.094   5.088  23.982  0.0996  0.0952  0.0120
38210W        W81127   6.327   2.656  25.437  0.2346 -0.1332  0.0027
38211W        W81128  10.360   6.263  26.750  0.2849  0.0578  0.0511
38212W        W81129  11.475   6.062  24.660 -0.0636  0.1358  0.1695
38213W        W81130  10.254   5.133  23.886  0.0493 -0.5822  0.0294
38214W        W81131   8.285   2.879  28.276 -0.0118 -0.1298 -0.0040
38215W        W81132   8.953   4.812  26.893 -0.0076  0.1571  0.3572
38216W        W81133   9.751   3.352  22.779 -0.2734  0.0620 -0.1672
38217W        W81134   9.249   2.164  25.892  0.2544 -0.0123 -0.1831
38218W        W81135   8.948   4.408  26.591  0.3176 -0.1815  0.2149
38219W        W81136   8.840   5.001  23.567  0.0563  0.3262 -0.1638
38220W        W81137  10.810   4.709  25.007  0.0588  0.2041 -0.0294
38221W        W81138  10.762   3.887  23.779 -0.0093  0.1385  0.3617
38222W        W81139   8.465   8.332  24.591 -0.2013  0.2005 -0.1127
38223W        W81140   9.311   3.591  27.496 -0.0940 -0.0378 -0.1540
38224W        W81141   9.535   5.635  27.859  0.2423 -0.0860 -0.0715
38225W        W81142   9.152   8.272  25.240 -0.2702  0.1187 -0.2956
38226W        W81143   9.162   3.944  23.275 -0.1768  0.1450 -0.0983
38227W        W81144   7.352   5.025  25.177 -0.3670 -0.2173 -0.0961
38228W        W81145   7.757   3.835  25.433 -0.0837 -0.0588  0.0969
38229W        W81146   9.303   3.313  25.057  0.0775 -0.2417 -0.1458
38230W        W81147  11.954   2.859  22.219 -0.4614 -0.1062 -0.2261
38231W        W81148   8.744   5.643  26.510  0.2189 -0.1487 -0.2782
38232W        W81149   9.600   6.238  25.627 -0.1108 -0.2163 -0.1429
38233W        W81150  11.778   5.322  27.622 -0.1445 -0.2249 -0.1105
38234W        W81151   8.939   4.475  23.376  0.1874  0.4723  0.0725
38235W        W81152   6.942   6.287  25.178  0.5482  0.1153  0.0843
38236W        W81153   8.897   6.160  26.346 -0.1371  0.1679 -0.1319
38237W        W81154  10.483   4.269  25.826  0.0378  0.0193 -0.0621
38238W        W81155  10.501   5.238  26.662 -0.1530 -0.1890 -0.0722
38239W        W81156   9.056   8.075  28.085 -0.0967 -0.3061  0.2797
38240W        W81157   9.235   5.890  23.608 -0.1357 -0.1958 -0.2767
38241W        W81158   8.677   7.292  28.110  0.1571 -0.0258 -0.0024
38242W        W81159   8.426   6.230  28.480 -0.0228 -0.0191 -0.3558
38243W        W81160  11.998   2.241  25.436  0.1958  0.1420  0.2742
38244W        W81161  10.462   2.090  24.645 -0.3145 -0.0292  0.1517
38245W        W81162   9.029   6.779  25.327  0.0347 -0.2452  0.1101
38246W        W81163   8.246   5.439  24.147 -0.2652 -0.0808  0.4179
38247W        W81164   9.031   5.567  29.706  0.0591 -0.1871 -0.1362
38248W        W81165   6.780   5.218  26.557  0.0786  0.0408 -0.1271
38249W        W81166   9.951   2.354  27.103 -0.3159 -0.0413 -0.3791
38250W        W81167  10.066   5.751  23.961  0.0385 -0.3811  0.0799
38251W        W81168  10.764   2.491  22.961 -0.0701 -0.2016 -0.2463
38252W        W81169   7.840   4.370  22.159  0.1191  0.4118  0.0566
38253W        W81170   9.134   5.385  23.662  0.1994 -0.0103 -0.0968
38254W        W81171   7.636   4.236  26.271 -0.0483 -0.1284  0.0690
38255W        W81172   7.542   4.090  25.050  0.1472  0.0742  0.3490
38256W        W81173   8.170   3.800  28.021 -0.0506  0.0613 -0.3301
38257W        W81174   9.094   6.589  26.274  0.1288 -0.2233  0.0513
38258W        W81175   9.380   4.217  22.338  0.1992 -0.1384 -0.0463
38259W        W81176   9.576   5.014  25.240  0.0027  0.0966  0.1532
38260W        W81177   9.623   6.945  27.382  0.0006 -0.1948  0.4453
38261W        W81178   9.233   4.964  24.121  0.2429  0.2804 -0.0891
38262W        W81179  11.349   4.380  23.970  0.0229  0.1509  0.0799
38263W        W81180  10.922   4.109  24.165  0.0797 -0.1712 -0.2965
38264W        W81181  11.233   8.068  24.315  0.0833 -0.4368  0.1877
38265W        W81182   8.093   3.814  23.735  0.0576  0.0823  0.2274
38266W        W81183   9.775   4.730  26.347  0.2250 -0.0150 -0.0903
38267W        W81184   7.275   2.943  27.118  0.0937  0.1026 -0.0300
38268W        W81185   9.733   2.297  21.883 -0.2750 -0.1180 -0.1629
38269W        W81186  10.846   4.832  26.447 -0.0995  0.1141 -0.1984
38270W        W81187   8.646   7.353  24.892 -0.0523  0.0661  0.1245
38271W        W81188  10.250   2.765  24.215 -0.0217  0.2801 -0.0115
38272W        W81189   9.990   3.736  24.884 -0.0122  0.2451 -0.0371
38273W        W81190  12.429   5.519  26.101  0.1495 -0.1513 -0.1800
38274W        W81191  10.170   6.260  24.163  0.1977  0.0139  0.0709
38275W        W81192   9.536   3.040  26.427  0.4930 -0.2471 -0.2797
38276W        W81193   9.673   2.017  26.771  0.1522 -0.1254 -0.0742
38277W        W81194   9.814   5.423  22.564 -0.2048 -0.3842  0.0932
38278W        W81195   8.469   4.175  23.573  0.1009 -0.2224  0.3146
38279W        W81196   9.431   5.668  24.702  0.1640 -0.4306 -0.1593
38280W        W81197  12.912   4.983  24.010  0.2524 -0.0586  0.4277
38281W        W81198   9.127   6.125  24.489  0.2363  0.1819 -0.4725
38282W        W81199   9.754   2.736  25.979  0.1378 -0.0454 -0.3242
38283W        W81200  10.151   7.622  28.464 -0.0756  0.4706 -0.1145
38284W        W81201   8.563   6.561  26.345 -0.0466  0.1754  0.0056
38285W        W81202   7.015   5.115  26.980 -0.0798  0.2185 -0.1165
38286W        W81203   6.991   6.094  24.568  0.0648  0.0107  0.1344
38287W        W81204   8.067   3.344  28.264 -0.0947 -0.1846  0.1584
38288W        W81205   9.195   3.989  27.134  0.1097  0.1966 -0.0799
38289W        W81206  11.373   3.160  24.406 -0.2758  0.1368 -0.0087
38290W        W81207   7.193   3.311  24.824  0.0784 -0.2273 -0.4463
38291W        W81208   9.571   4.324  24.940  0.0074 -0.1706  0.2250
38292W        W81209   8.576   5.470  23.713  0.1209  0.0890 -0.1568
38293W        W81210  10.555   6.310  24.834 -0.2385 -0.0864  0.1415
38294W        W81211  11.814   4.229  24.223  0.1494  0.3158 -0.1525
38295W        W81212  10.977   6.366  22.735  0.0270 -0.1196 -0.1814
38296W        W81213   8.766   3.713  26.216  0.1795  0.1974 -0.1383
38297W        W81214  10.196   3.120  23.023 -0.0455 -0.1233  0.2553
38298W        W81215   8.407   5.894  27.460  0.5747  0.0691 -0.2605
38299W        W81216   8.579   4.203  26.262 -0.2570  0.1599 -0.0249
38300W        W81217  10.551   2.901  24.595  0.0255 -0.0606  0.0264
38301W        W81218   7.143   2.729  22.474 -0.0368  0.0567 -0.0609
38302W        W81219   9.026   2.886  25.218  0.0059 -0.1258  0.0729
38303W        W81220   9.028   3.483  24.665  0.2128 -0.2497 -0.2825
38304W        W81221   8.890   5.317  25.883 -0.3995 -0.1255  0.1491
38305W        W81222  11.637   2.501  27.020 -0.0720 -0.3185  0.1202
38306W        W81223  11.888   7.322  24.256  0.3799  0.3534  0.3408
38307W        W81224  10.853   6.260  26.937  0.3289 -0.3778 -0.2677
38308W        W81225  11.159   6.307  24.185  0.0452  0.0414 -0.2152
38309W        W81226   7.813   4.203  28.277 -0.1979  0.3956 -0.3100
38310W        W81227   8.503   3.325  24.466 -0.0798  0.0454 -0.1991
38311W        W81228  10.493   6.511  26.213 -0.0713  0.0163  0.0460
38312W        W81229   7.724   6.097  27.048  0.0530  0.0999 -0.1474
38313W        W81230   8.364   4.059  24.078  0.1932  0.0558 -0.2100
38314W        W81231  11.965   5.827  23.390 -0.2344 -0.1839  0.0218
38315W        W81232   7.937   5.217  25.738 -0.1089  0.0117  0.0140
38316W        W81233   8.024   4.159  28.840 -0.0194 -0.2911  0.4214
38317W        W81234   9.526   1.654  25.776  0.1619 -0.2118  0.2326
38318W        W81235  10.252   3.412  24.531  0.0572 -0.3194  0.0461
38319W        W81236  11.042   4.148  24.978  0.0316  0.1077  0.2181
38320W        W81237   8.797   3.616  24.149 -0.0108 -0.0576 -0.0564
38321W        W81238   9.673   5.582  25.215 -0.2994 -0.3237  0.3020
38322W        W81239   6.997   5.728  26.941 -0.2575 -0.0753 -0.0775
38323W        W81240   7.312   6.030  23.877 -0.2631 -0.2275  0.1505
38324W        W81241  10.049   5.209  25.361  0.0141  0.3027 -0.0571
38325W        W81242  10.133   3.453  25.348 -0.0727 -0.1287  0.2228
38326W        W81243   9.780   4.992  28.637  0.2799  0.2830 -0.0607
38327W        W81244   9.354   4.215  25.766 -0.0625 -0.0849  0.0151
38328W        W81245   6.352   6.137  22.257 -0.1002  0.0606  0.0370
38329W        W81246   7.330   5.315  26.638  0.1246  0.1036  0.2021
38330W        W81247   8.235   3.973  25.679 -0.0193 -0.1584 -0.1255
38331W        W81248   9.272   4.706  21.469  0.2738 -0.2125  0.1643
38332W        W81249   9.906   3.925  28.170  0.0269 -0.0443 -0.0100
38333W        W81250  10.014   4.110  25.232  0.2957  0.1060 -0.5129
38334W        W81251   9.805   3.603  23.449  0.2045 -0.1196  0.2710
38335W        W81252   7.766   3.494  24.023 -0.0397 -0.0462  0.2464
38336W        W81253   8.001   5.698  27.201 -0.1182 -0.1480  0.1865
38337W        W81254   9.193   5.344  25.046 -0.3336 -0.1006  0.1841
38338W        W81255   7.790   4.170  24.658  0.0358 -0.0616 -0.0668
38339W        W81256   9.198   4.392  24.118 -0.0250  0.0472 -0.0203
38340W        W81257  10.272   6.846  25.886  0.0195  0.0938  0.0864
38341W        W81258   7.163   5.072  26.142 -0.2124 -0.4618  0.0639
38342W        W81259   8.827   5.843  25.976 -0.2225 -0.2715 -0.0603
38343W        W81260  10.140   5.397  23.513  0.1036  0.1942 -0.0365
38344W        W81261   8.755   3.180  26.130 -0.2750 -0.2170 -0.3824
38345W        W81262   8.728   3.779  23.075 -0.0440 -0.1140 -0.0122
38346W        W81263   9.958   4.343  25.874  0.2649 -0.2783  0.0151
38347W        W81264   6.562   6.043  24.782  0.1011  0.0675  0.0025
38348W        W81265  10.589   2.462  24.961  0.0836  0.1672 -0.0945
38349W        W81266  10.990   3.117  24.733 -0.2276 -0.2348  0.1459
38350W        W81267  11.935   5.090  26.893 -0.1272 -0.1772 -0.0257
38351W        W81268  11.672   4.657  26.876  0.2027  0.0744  0.0796
38352W        W81269  11.592   3.382  23.433  0.0052 -0.1124  0.1475
38353W        W81270   9.501   6.051  25.193  0.0687  0.3999 -0.1856
38354W        W81271   7.957   3.621  24.543  0.0943  0.0113  0.0051
38355W        W81272   9.436   3.974  27.886  0.0126 -0.0998  0.2256
38356W        W81273   7.986   5.217  24.791  0.0630 -0.3051  0.1754
38357W        W81274   8.003   5.874  26.693  0.2217 -0.1831  0.0334
38358W        W81275  11.185   6.004  26.634  0.0753 -0.1168  0.0427
38359W        W81276  13.432   3.726  23.068  0.0707 -0.3117 -0.1105
38360W        W81277   9.805   5.190  27.194  0.2408 -0.1479 -0.2443
38361W        W81278   8.036   4.705  24.786 -0.4643  0.0130 -0.1181
38362W        W81279   8.841   6.643  23.996 -0.1452 -0.0623 -0.2481
38363W        W81280   8.722   4.451  25.111 -0.3086  0.2108 -0.3544
38364W        W81281   9.784   3.841  25.750 -0.0702  0.0071 -0.0579
38365W        W81282  12.110   4.537  26.939 -0.0384  0.0133  0.1143
38366W        W81283   8.719   4.417  22.178 -0.2607 -0.0759  0.0327
38367W        W81284   9.609   5.477  26.850 -0.0399  0.1024  0.3054
38368W        W81285   7.328   6.589  24.901  0.3248  0.4912  0.0576
38369W        W81286  11.851   4.381  26.213  0.2239 -0.1845  0.1781
38370W        W81287   8.472   5.161  25.647 -0.1922 -0.1550  0.2535
38371W        W81288   7.302   4.311  24.006  0.0671  0.0525  0.4447
38372W        W81289  10.078   4.718  21.837  0.0796 -0.2527 -0.2475
38373W        W81290   9.655   3.487  23.859 -0.0118  0.3637 -0.4383
38374W        W81291  11.486   4.278  23.455 -0.1967 -0.0421 -0.1284
38375W        W81292   8.774   4.843  25.971  0.0951  0.0130  0.1756
38376W        W81293   9.799   4.469  28.228  0.0100 -0.2356 -0.1521
38377W        W81294   7.332   4.620  26.106  0.0584 -0.1920  0.1109
38378W        W81295   9.889   5.104  26.635  0.0117 -0.1931 -0.0407
38379W        W81296   9.275   2.848  23.344 -0.3015 -0.1899 -0.1305
38380W        W81297   9.294   5.637  26.046 -0.0600  0.1068 -0.1129
38381W        W81298   8.744   3.928  26.709 -0.1034  0.2028  0.1592
38382W        W81299   7.168   5.494  24.835  0.1524 -0.2182 -0.0869
38383W        W81300   7.582   4.885  25.700 -0.2508  0.0303  0.1646
38384W        W81301   8.232   3.547  24.162 -0.1620 -0.2286  0.0504
38385W        W81302   7.650   5.102  26.315  0.2245 -0.1187 -0.3605
38386W        W81303   9.905   6.477  26.611  0.2304  0.4264 -0.2825
38387W        W81304  10.176   5.429  24.951 -0.0751  0.0592  0.3920
38388W        W81305   5.845   6.467  23.902  0.1810  0.2465  0.3275
38389W        W81306   9.657   5.208  27.655 -0.0040  0.2861  0.1800
38390W        W81307  11.564   4.496  27.761  0.0304 -0.0936  0.2642
38391W        W81308   8.401   4.986  25.124 -0.2428  0.1170 -0.3026
38392W        W81309   8.076   3.086  24.254  0.3887  0.2952  0.1439
38393W        W81310   8.508   4.432  26.809  0.0541  0.2036 -0.1249
38394W        W81311  10.414   5.606  25.367  0.3303 -0.1344 -0.0115
38395W        W81312  10.008   4.333  26.500  0.0542 -0.0743  0.0959
38396W        W81313   7.054   6.842  26.663 -0.3497 -0.0142 -0.0003
38397W        W81314   8.480   2.750  25.253 -0.1223  0.0578  0.1139
38398W        W81315  10.435   7.608  25.561 -0.0360 -0.0655  0.0585
38399W        W81316   9.276   5.158  28.706  0.1454  0.1223 -0.1925
38400W        W81317   9.538   5.939  24.257 -0.1074  0.1666  0.0665
38401W        W81318   7.480   5.381  25.877  0.1696 -0.1148 -0.1758
38402W        W81319   7.765   4.548  24.327 -0.2065  0.2226  0.0079
38403W        W81320   8.432   6.705  25.727 -0.1596  0.2547  0.0115
38404W        W81321   8.678   6.246  27.216 -0.3456  0.0694 -0.0270
38405W        W81322  11.677   6.249  24.139 -0.2073 -0.0069  0.0654
38406W        W81323   7.834   5.401  26.720 -0.1595  0.0604 -0.3970
38407W        W81324   9.047   3.937  24.441 -0.1240 -0.2237 -0.0818
38408W        W81325  10.122   3.613  22.948  0.2924 -0.1234 -0.0955
38409W        W81326  12.262   4.876  27.360 -0.1532 -0.0179  0.3346
38410W        W81327   9.542   3.181  25.981 -0.0040  0.1114 -0.1537
38411W        W81328   7.985   4.218  23.272 -0.1428 -0.1250 -0.4940
38412W        W81329  10.486   3.933  27.275 -0.3644  0.3454  0.3548
38413W        W81330   8.681   3.924  27.307 -0.0204 -0.2362 -0.1236
38414W        W81331   9.983   5.094  24.384 -0.1540 -0.0921 -0.0424
38415W        W81332   6.741   3.524  27.625 -0.1801 -0.0599 -0.1513
38416W        W81333  10.310   7.319  27.944 -0.0040 -0.0009  0.0107
38417W        W81334   9.011   4.842  28.095  0.2450  0.0865 -0.0610
38418W        W81335  10.694   3.414  23.514  0.0492 -0.2662 -0.1950
38419W        W81336   7.684   4.822  23.897 -0.1988  0.2648 -0.0536
38420W        W81337   9.361   7.090  26.135 -0.3544  0.1803 -0.0597
38421W        W81338  11.400   4.186  26.790 -0.3120  0.1330  0.1832
38422W        W81339  11.112   4.986  25.984  0.0297  0.0512 -0.0560
38423W        W81340  11.774   3.302  24.735  0.2042 -0.1887  0.2019
38424W        W81341   8.427   6.220  26.658 -0.1964 -0.1788  0.0405
38425W        W81342   8.831   5.251  23.085 -0.0007 -0.4023 -0.0414
38426W        W81343  10.557   4.382  23.131  0.2330 -0.1527  0.1640
38427W        W81344  12.287   4.263  23.992 -0.1630 -0.0349 -0.1808
38428W        W81345   8.658   3.470  27.613 -0.2308  0.0415 -0.0005
38429W        W81346  10.567   5.179  25.988 -0.1694  0.1343 -0.0869
38430W        W81347  10.998   3.622  24.247 -0.1527  0.0917 -0.1482
38431W        W81348   7.871   3.429  25.829  0.0939 -0.0845  0.1557
38432W        W81349   9.237   4.353  27.571 -0.6623 -0.4040  0.1942
38433W        W81350   8.593   5.755  26.960 -0.1437 -0.2855  0.2756
38434W        W81351   9.190   4.919  27.409 -0.0781 -0.2131  0.1085
38435W        W81352  11.066   6.429  27.368  0.0413 -0.1531  0.1890
38436W        W81353   9.710   4.838  22.279  0.0037  0.3039 -0.2246
38437W        W81354   9.528   4.185  24.457  0.0465  0.1789  0.2708
38438W        W81355  11.668   4.675  24.466  0.0429 -0.1075  0.1442
38439W        W81356   9.971   4.406  24.640 -0.1080  0.1537  0.1428
38440W        W81357   7.289   5.688  24.275  0.0127 -0.1477  0.0496
38441W        W81358  10.504   5.583  27.567  0.1318  0.0624  0.2749
38442W        W81359   7.479   4.621  21.851 -0.0184  0.0117 -0.0581
38443W        W81360   8.844   3.395  26.608 -0.1251  0.1277 -0.1267
38444W        W81361   9.705   5.944  22.884 -0.1522 -0.1967 -0.1745
38445W        W81362  10.191   4.875  24.949 -0.0910  0.1601 -0.1418
38446W        W81363   8.765   4.767  24.277 -0.0942 -0.3323 -0.0103
38447W        W81364   7.536   3.404  27.089  0.3536 -0.1476  0.2919
38448W        W81365   9.936   8.073  28.783  0.2676 -0.0383 -0.1559
38449W        W81366   7.301   4.620  22.905 -0.1269  0.1168 -0.0639
38450W        W81367  10.277   4.412  22.696 -0.2567  0.1112  0.0203
38451W        W81368   7.886   5.066  25.251 -0.1417 -0.0163 -0.1498
38452W        W81369  12.384   6.383  25.864  0.2655 -0.0732 -0.1583
38453W        W81370   9.600   2.791  24.868 -0.1562  0.1178 -0.3415
38454W        W81371  11.547   5.729  27.373  0.1702 -0.1700 -0.0718
38455W        W81372   7.275   4.708  24.299 -0.1246  0.1102 -0.0531
38456W        W81373   9.586   3.285  24.685 -0.4129 -0.2040  0.4975
38457W        W81374   9.108   5.903  28.056  0.0981  0.2747 -0.0911
38458W        W81375   7.849   5.732  25.785 -0.0674  0.0316  0.0772
38459W        W81376   8.789   4.744  22.966 -0.0976 -0.3033 -0.1127
38460W        W81377  12.446   1.996  23.469  0.4158  0.0880  0.0886
38461W        W81378  10.444   6.091  25.315 -0.0948  0.1408 -0.0548
38462W        W81379  10.008   6.486  26.119 -0.1128  0.0502 -0.1095
38463W        W81380  12.237   2.671  26.107  0.1528 -0.0926 -0.1423
38464W        W81381   9.401   7.312  26.643  0.1012  0.0625 -0.0520
38465W        W81382   5.768   5.732  25.938  0.0930  0.0906  0.0909
38466W        W81383   8.868   5.724  24.468  0.3077  0.2048 -0.0578
38467W        W81384  11.528   5.853  25.763 -0.2826  0.1726 -0.2624
38468W        W81385   8.955   6.043  26.878  0.0188 -0.3329  0.0504
38469W        W81386  10.003   3.834  27.515 -0.1862 -0.1173  0.1835
38470W        W81387   8.568   5.826  25.375 -0.3459 -0.0908  0.0332
38471W        W81388   8.155   5.519  25.426 -0.0047 -0.2162  0.0966
38472W        W81389   8.691   3.004  24.814  0.2280 -0.0992  0.2658
38473W        W81390   8.742   5.225  24.843  0.1596 -0.0602  0.1725
38474W        W81391   7.740   5.552  27.658  0.1210  0.2401 -0.1110
38475W        W81392   8.266   5.443  27.553 -0.3039 -0.1493  0.3002
38476W        W81393   8.101   7.447  24.542 -0.1573  0.0008  0.0613
38477W        W81394  10.674   5.613  24.832  0.1315 -0.1797 -0.2020
38478W        W81395  10.407   4.724  26.029  0.3990  0.1583 -0.0840
38479W        W81396   9.701   5.544  26.358 -0.3745 -0.2832  0.0219
38480W        W81397   8.118   4.446  23.822 -0.2145  0.3480  0.1043
38481W        W81398   7.791   5.595  24.480 -0.1741 -0.2815 -0.3166
38482W        W81399   6.009   5.300  24.625  0.0004  0.1561  0.1012
38483W        W81400  12.906   6.303  23.499 -0.0970 -0.0467 -0.0089
38484W        W81401   9.908   6.333  25.134 -0.0600  0.1394 -0.2363
38485W        W81402  12.444   6.777  26.555  0.0278  0.3603  0.0052
38486W        W81403  10.229   2.680  23.623 -0.1053  0.1257  0.1352
38487W        W81404  10.755   4.086  25.355 -0.0691 -0.0746 -0.0304
38488W        W81405  10.445   2.019  24.141  0.0807  0.0475  0.1061
38489W        W81406   9.118   5.431  26.984  0.4340  0.0047 -0.0139
38490W        W81407   7.630   4.598  26.576 -0.1320 -0.2457  0.5349
38491W        W81408  10.567   3.338  24.107 -0.1654 -0.0450 -0.0509
38492W        W81409   8.386   4.452  27.350 -0.3779  0.1141  0.0004
38493W        W81410  12.517   4.256  26.813  0.3066  0.1205 -0.1414
38494W        W81411   7.250   7.847  25.313  0.1232 -0.1729  0.3839
38495W        W81412  11.215   5.042  24.502  0.1544 -0.0699 -0.1901
38496W        W81413   6.100   3.194  24.912  0.1896 -0.0095 -0.1808
38497W        W81414   9.076   7.269  25.182 -0.0452  0.1723  0.0514
38498W        W81415  10.247   1.097  25.884  0.1413  0.3091  0.3194
38499W        W81416   9.881   5.527  24.567 -0.1724 -0.2999 -0.0541
38500W        W81417   9.890   4.962  23.420  0.1869 -0.2032 -0.0492
38501W        W81418   8.369   5.531  24.982  0.2711 -0.0171 -0.0300
38502W        W81419   7.696   4.583  25.250 -0.0091 -0.0474  0.0052
38503W        W81420   8.163   6.395  26.141 -0.0586 -0.0144 -0.4454
38504W        W81421   7.002   5.012  24.724 -0.1944  0.0152 -0.1943
38505W        W81422  12.323   4.105  23.543 -0.0197  0.1141 -0.2709
38506W        W81423   8.113   5.542  28.361  0.3049 -0.2443  0.0950
38507W        W81424   8.352   2.273  25.182  0.0437  0.0096 -0.0858
38508W        W81425   7.181   4.211  24.739 -0.2617  0.0009 -0.0180
38509W        W81426  11.733   3.310  22.435  0.2255  0.0198  0.0846
38510W        W81427   9.398   4.704  24.562  0.0857  0.4000 -0.0417
38511W        W81428   9.443   4.627  25.985  0.0841 -0.2817 -0.2269
38512W        W81429   7.666   4.682  23.412  0.0467 -0.0520 -0.0555
38513W        W81430  10.917   5.301  26.315 -0.1251 -0.0217 -0.0478
38514W        W81431   9.321   4.225  23.658 -0.0573  0.0387 -0.2923
38515W        W81432   9.689   6.543  27.031 -0.0947 -0.1473 -0.1618
38516W        W81433   7.835   4.586  27.460  0.1234 -0.0037  0.3845
38517W        W81434   9.349   4.845  22.570  0.1539 -0.2502 -0.2223
38518W        W81435   7.894   6.003  25.324 -0.2476  0.2836 -0.1369
38519W        W81436   9.178   3.765  25.754  0.0764 -0.0253 -0.1849
38520W        W81437   9.331   6.343  26.652 -0.0051 -0.3633  0.0155
38521W        W81438   7.398   3.764  24.672 -0.3182  0.0326 -0.0364
38522W        W81439  10.803   6.904  22.512 -0.0682 -0.0314 -0.0109
38523W        W81440  11.633   3.747  25.005  0.4104 -0.0700 -0.0359
38524W        W81441   9.530   7.708  23.378 -0.3484 -0.2664 -0.1199
38525W        W81442   8.252   4.445  25.223 -0.0337  0.0662  0.0863
38526W        W81443  11.827   7.802  24.965  0.0486  0.1530 -0.0396
38527W        W81444   7.153   4.820  27.944 -0.0254 -0.0622  0.1262
38528W        W81445  11.166   4.407  26.446 -0.2881 -0.0596 -0.3090
38529W        W81446  10.181   6.391  25.628  0.0759  0.0395 -0.0403
38530W        W81447   8.513   3.828  24.516 -0.1413 -0.0224 -0.1165
38531W        W81448   8.252   4.928  26.058 -0.0654 -0.2254  0.1742
38532W        W81449   8.512   6.881  25.029  0.0721  0.1068 -0.2550
38533W        W81450   8.852   3.921  24.882  0.1478 -0.0563  0.0792
38534W        W81451   9.387   3.814  24.811 -0.0577  0.0656 -0.2828
38535W        W81452  12.059   6.651  21.964  0.1309 -0.1690 -0.2861
38536W        W81453  10.443   3.137  27.225 -0.4058  0.0502 -0.3021
38537W        W81454   8.627   3.864  25.336 -0.1175 -0.1008 -0.1430
38538W        W81455  10.281   8.788  27.569  0.0246  0.0795  0.2097
38539W        W81456   8.671   4.624  23.811 -0.1465  0.0772 -0.1653
38540W        W81457   8.338   6.333  27.938  0.0307  0.2787 -0.0140
38541W        W81458   9.636   5.178  24.804  0.4442 -0.1313  0.1694
38542W        W81459   9.799   6.208  27.388 -0.0079  0.0665  0.0303
38543W        W81460  13.044   4.167  24.660  0.0388 -0.0450  0.1129
38544W        W81461  12.955   4.518  24.185  0.0222 -0.1460 -0.1555
38545W        W81462  11.245   4.891  25.401  0.2719 -0.2733 -0.0542
38546W        W81463   7.760   3.782  26.168  0.0612  0.0311  0.0289
38547W        W81464  14.104   2.317  23.804 -0.2712  0.0314  0.1976
38548W        W81465   9.459   2.935  25.429  0.0422 -0.0742  0.1250
38549W        W81466   9.730   4.722  27.384  0.0038  0.5113  0.1730
38550W        W81467   7.282   5.478  23.746 -0.1203 -0.1515  0.1495
38551W        W81468  10.271   4.710  24.237 -0.0213  0.4045  0.0885
38552W        W81469   6.381   6.343  23.814 -0.3127  0.0489 -0.0485
38553W        W81470   8.464   2.262  27.503 -0.2264 -0.2410 -0.0663
38554W        W81471   8.545   3.476  25.806  0.0024 -0.2110  0.2045
38555W        W81472   8.737   5.315  27.316  0.1770  0.1300  0.0630
38556W        W81473   8.401   5.143  24.494 -0.1778  0.0219 -0.1848
38557W        W81474   9.526   5.413  24.252  0.1833 -0.4606 -0.0381
38558W        W81475   9.096   3.667  25.254 -0.0144 -0.2421  0.0048
38559W        W81476   7.238   2.254  24.571  0.0590 -0.2343 -0.1788
38560W        W81477   9.330   7.542  23.858 -0.3976 -0.0511 -0.0142
38561W        W81478   9.488   7.831  24.301  0.0380 -0.0847  0.0589
38562W        W81479  10.238   4.643  23.760  0.0006 -0.2027 -0.0018
38563W        W81480  12.077   8.990  26.357 -0.0178 -0.2212  0.1765
38564W        W81481   9.254   6.282  24.041 -0.1062 -0.3320 -0.1435
38565W        W81482  11.020   4.886  27.232 -0.0861 -0.0032 -0.1771
38566W        W81483   8.332   4.243  28.323 -0.0364  0.2673  0.0250
38567W        W81484   6.869   5.192  23.907  0.1256 -0.2601  0.2472
38568W        W81485   9.778   3.735  24.413 -0.0970  0.2691  0.0467
38569W        W81486  12.248   6.087  25.352 -0.0211 -0.0812  0.0878
38570W        W81487   9.123   6.476  23.569  0.1083 -0.0254 -0.1175
38571W        W81488  10.216   5.484  25.840 -0.1338  0.0804 -0.1268
38572W        W81489  10.561   4.350  26.455  0.0802 -0.5412 -0.1077
38573W        W81490   6.155   2.565  26.919 -0.0763 -0.1655  0.0605
38574W        W81491  11.847   5.516  24.696 -0.0728 -0.1783 -0.1047
38575W        W81492   9.144   3.017  28.226 -0.2266 -0.0261  0.1170
38576W        W81493  11.730   5.389  24.228  0.2747  0.0182 -0.1501
38577W        W81494  11.935   2.818  23.309 -0.1996 -0.1156  0.0383
38578W        W81495  10.392   5.548  24.281 -0.2620 -0.2380 -0.0028
38579W        W81496   6.263   2.112  28.010  0.1288 -0.1045  0.0521
38580W        W81497   8.120   6.710  28.682 -0.0343 -0.1040 -0.2446
38581W        W81498  11.627   3.984  25.720  0.2388  0.2647 -0.0627
38582W        W81499   8.572   4.726  26.388  0.3712 -0.0292 -0.0250
38583W        W81500   9.295   3.340  22.139 -0.0555 -0.2150  0.0095
38584W        W81501  10.586   5.218  25.105  0.0666 -0.3119 -0.1605
38585W        W81502   6.227   4.371  24.725 -0.1854  0.2001  0.1135
38586W        W81503   6.771   4.032  24.017 -0.2746 -0.0980  0.0983
38587W        W81504  10.309   4.738  26.536 -0.0486  0.3770  0.2852
38588W        W81505  11.403   6.862  25.230  0.2769 -0.0926  0.1271
38589W        W81506   9.204   6.154  25.960  0.3517  0.0001  0.1269
38590W        W81507   7.356   5.189  24.216  0.0839  0.0634 -0.1179
38591W        W81508   9.968   5.801  25.566 -0.1502 -0.2126 -0.0612
38592W        W81509  12.104   5.749  25.827  0.1365  0.0963  0.0812
38593W        W81510   9.667   7.864  26.613  0.1332 -0.1873  0.2755
38594W        W81511   8.649   5.168  26.729  0.1138 -0.1800 -0.0677
38595W        W81512   9.462   5.959  27.006 -0.2374  0.2304 -0.1991
38596W        W81513   7.466   2.089  25.467  0.1789  0.1148  0.0920
38597W        W81514   7.721   5.637  23.970 -0.2343  0.1087  0.1011
38598W        W81515   8.063   4.740  25.597 -0.0552 -0.0787  0.1009
38599W        W81516  10.210   2.109  25.051  0.2677  0.2644  0.0444
38600W        W81517  10.472   3.840  25.049 -0.1815  0.3842 -0.0332
38601W        W81518   8.894   3.104  24.295 -0.3713  0.0581 -0.4862
38602W        W81519   9.753   7.917  27.439 -0.1634 -0.0601 -0.0448
38603W        W81520   7.812   4.291  25.731 -0.1450  0.0997  0.0360
38604W        W81521  11.373   8.232  28.967  0.1084  0.5293  0.0572
38605W        W81522   7.298   4.631  28.385  0.0061 -0.2111 -0.0899
38606W        W81523   8.996   3.269  25.705  0.0090 -0.0430 -0.2183
38607W        W81524  10.362   5.197  27.952  0.0750  0.1325  0.2826
38608W        W81525  11.134   6.936  27.560 -0.0005 -0.3009 -0.1053
38609W        W81526  10.093   7.125  27.385  0.0111  0.1423 -0.4094
38610W        W81527   8.013   2.409   0.029 -0.1967 -0.2144  0.1315
38611W        W81528   9.465   6.273  29.079  0.2066 -0.0373 -0.1019
38612W        W81529  10.471   4.751  27.396  0.1716 -0.2294  0.1232
38613W        W81530   8.603   6.040  29.052  0.1198  0.0771 -0.2153
38614W        W81531   9.154   3.934  31.271  0.0613  0.0056 -0.3701
38615W        W81532   9.012   8.748  27.401  0.1165  0.1574 -0.4080
38616W        W81533   9.141   3.967  26.292 -0.0208 -0.0039 -0.3827
38617W        W81534   9.940   3.414  28.522  0.1696  0.2295  0.0704
38618W        W81535  10.816   4.261  30.193 -0.1011 -0.0039 -0.1419
38619W        W81536   8.109   4.577  29.794  0.2793  0.4495 -0.1904
38620W        W81537   9.401   5.825  30.881  0.1197  0.1574 -0.2982
38621W        W81538   9.635   7.636  29.063  0.0614  0.4839  0.3261
38622W        W81539  10.253   8.547  26.992 -0.1115  0.2017  0.0789
38623W        W81540   8.800   2.553   0.218  0.3884  0.0690  0.2343
38624W        W81541   9.948   2.713  31.651  0.2823  0.2825 -0.1424
38625W        W81542   8.649   7.455  27.339  0.0331  0.0274  0.0858
38626W        W81543   8.199   6.180  27.125  0.1225  0.0763  0.0997
38627W        W81544   8.174   4.699  30.278 -0.1480 -0.2391  0.0503
38628W        W81545  10.435   3.118  29.657 -0.1933  0.1025  0.0327
38629W        W81546   8.128   4.616  29.033  0.1832  0.0433  0.0717
38630W        W81547  10.939   5.807  28.947  0.0918 -0.0088 -0.1281
38631W        W81548   9.860   7.456  29.506 -0.0036 -0.3359 -0.0947
38632W        W81549   9.494   4.876  29.546  0.1004  0.1334  0.0270
38633W        W81550  10.137   6.584  31.710  0.2332  0.0309  0.1371
38634W        W81551   9.921   4.507  31.734  0.0189 -0.0586 -0.0247
38635W        W81552   6.048   3.569  28.653  0.1199  0.1911  0.0272
38636W        W81553   9.575   6.904  28.236 -0.0573  0.3376  0.0418
38637W        W81554  11.212   6.915  29.332 -0.1253 -0.1098 -0.3599
38638W        W81555  10.222   6.767  26.954  0.1530 -0.0713  0.3436
38639W        W81556   8.097   7.551  28.501  0.2520 -0.3693 -0.3303
38640W        W81557   6.845   5.735  27.475  0.1001  0.3981 -0.0867
38641W        W81558  10.656   6.872  30.108  0.2212  0.1156 -0.0893
38642W        W81559   9.474   7.665  28.586 -0.0310  0.0602  0.2385
38643W        W81560   8.093   5.106   1.865  0.3180 -0.0689  0.2606
38644W        W81561   9.816   6.564  29.332  0.2664 -0.3417 -0.2159
38645W        W81562   9.179   7.274  29.223  0.2991 -0.0315 -0.0587
38646W        W81563   9.166   7.224  28.351  0.1014  0.0452 -0.0460
38647W        W81564  10.633   6.052  29.430  0.0467 -0.1240 -0.2073
38648W        W81565   8.083   5.502  30.783  0.0636  0.1536 -0.0487
38649W        W81566  13.140   4.063  29.696 -0.0327  0.0200  0.0797
38650W        W81567   7.231   5.041  30.228 -0.0717 -0.4353 -0.1596
38651W        W81568   8.542   4.655  25.553 -0.0329 -0.2377 -0.5147
38652W        W81569  10.173   4.221  27.883  0.1304  0.0452  0.1362
38653W        W81570   9.888   3.510  26.101  0.4762  0.1631 -0.0878
38654W        W81571   9.682   4.646  30.094  0.0019 -0.0682 -0.2140
38655W        W81572   8.407   6.922  27.903 -0.3683 -0.0741  0.0893
38656W        W81573   8.845   4.325  31.234  0.1172  0.0206  0.2359
38657W        W81574  10.255   6.173  30.183  0.1521  0.2632 -0.2289
38658W        W81575   7.177   4.223  31.397 -0.1067 -0.1382  0.3090
38659W        W81576  10.835   4.406   0.717 -0.0586  0.2238 -0.0966
38660W        W81577   9.327   6.271  30.158 -0.1401  0.1550  0.1200
38661W        W81578   9.456   5.066  30.400 -0.1307  0.0660  0.2699
38662W        W81579   9.973   5.900  28.323  0.0475  0.0166  0.3269
38663W        W81580  10.960   6.167  28.128  0.1114 -0.0313 -0.0455
38664W        W81581  10.872   7.684  28.781  0.1277 -0.3222  0.1863
38665W        W81582   6.378   4.131  27.897  0.0687 -0.1100 -0.2620
38666W        W81583   7.710   4.007  30.615  0.2506 -0.0753  0.1525
38667W        W81584   8.087   5.621   0.935 -0.3895 -0.0486  0.1874
38668W        W81585   9.835   4.471  28.720 -0.1340  0.1018 -0.1945
38669W        W81586  11.139   6.631  31.110 -0.1731 -0.0882  0.1279
38670W        W81587   9.135   7.776  30.487 -0.0383  0.0760 -0.2470
38671W        W81588   9.176   6.619  28.491  0.2137  0.2268 -0.0506
38672W        W81589   9.385   4.492  27.063 -0.0930 -0.2876 -0.0276
38673W        W81590  11.278   5.960  30.382 -0.1583 -0.0594  0.4112
38674W        W81591   9.440   4.781  28.396 -0.1290  0.2546 -0.3443
38675W        W81592   8.899   3.725  29.219 -0.3269  0.0632 -0.1507
38676W        W81593  10.061   7.020  29.501  0.2095  0.0900  0.1062
38677W        W81594   9.173   3.794  28.814 -0.2909  0.0713  0.2454
38678W        W81595   8.212   3.210  27.741 -0.2993 -0.0512  0.2690
38679W        W81596  11.913   6.432  29.419  0.0312  0.1573 -0.1020
38680W        W81597  10.678   4.750  26.927  0.0573 -0.0234 -0.1951
38681W        W81598   7.991   6.847  29.762  0.3076 -0.2114 -0.0257
38682W        W81599   9.547   3.728  30.301  0.0583  0.1638  0.3473
38683W        W81600   9.902   7.389   0.192 -0.1080 -0.1032 -0.2348
38684W        W81601   7.494   5.144  27.817  0.1619 -0.0975  0.1245
38685W        W81602   8.221   5.620  30.267  0.3546  0.0609 -0.0399
38686W        W81603   9.131   3.350  30.182 -0.0990  0.1135 -0.1989
38687W        W81604   9.510   3.927  31.659  0.0418 -0.0129 -0.0915
38688W        W81605  10.115   5.783  31.067 -0.3490  0.2042  0.1060
38689W        W81606   9.067   2.938  26.466  0.0892 -0.0453  0.2044
38690W        W81607   6.695   4.312  31.596 -0.0314  0.1088 -0.0147
38691W        W81608  11.247   5.386  31.371 -0.0035 -0.1049 -0.0197
38692W        W81609   9.610   7.089  29.199 -0.1711 -0.1398 -0.1819
38693W        W81610   8.867   9.705  27.536  0.1104  0.1030  0.1109
38694W        W81611   9.076   4.639  29.318  0.4087 -0.0356 -0.0123
38695W        W81612  10.507   6.038  25.899  0.1041 -0.4712  0.1876
38696W        W81613   8.036   4.679  31.301 -0.0535  0.1955 -0.0411
38697W        W81614   7.647   4.783  30.122  0.0090  0.4537  0.3190
38698W        W81615   9.365   3.199  30.729 -0.1232 -0.2303  0.0301
38699W        W81616   8.959   4.391   0.408  0.0983  0.1926  0.1965
38700W        W81617  11.632   3.857  30.174 -0.4478 -0.2222 -0.4007
38701W        W81618   7.217   2.173  29.429  0.1811  0.0545  0.0118
38702W        W81619   8.952   6.278  29.710  0.1033 -0.4243  0.0502
38703W        W81620   8.556   4.653  30.784  0.1381 -0.1764  0.1627
38704W        W81621   7.724   5.877  29.358  0.3939 -0.0657  0.1003
38705W        W81622  11.657   4.214  31.058 -0.0315 -0.0175 -0.4813
38706W        W81623  10.330   6.187  28.816 -0.1581 -0.0894  0.0726
38707W        W81624  13.598   7.976  30.827 -0.2171 -0.4173 -0.4442
38708W        W81625  11.496   5.185  27.143  0.2648 -0.1470 -0.3088
38709W        W81626   9.992   3.097  29.859 -0.1449  0.2449  0.2655
38710W        W81627   6.718   5.360  28.622 -0.2176 -0.0291 -0.0085
38711W        W81628   8.934  10.835  29.708 -0.1094 -0.2312 -0.1910
38712W        W81629   7.823   6.483  28.399  0.1035  0.0601 -0.3415
38713W        W81630  10.730   5.881  28.506  0.0036  0.0379  0.0572
38714W        W81631  11.457   6.028  29.160  0.0326 -0.0466  0.2560
38715W        W81632   9.444   5.490  29.453  0.2795 -0.0894  0.3370
38716W        W81633   9.262   6.721  29.042  0.1132 -0.2516  0.1469
38717W        W81634  10.101   3.846   0.471 -0.0703 -0.0111 -0.0314
38718W        W81635  11.750   6.458  30.680  0.0973  0.2122 -0.0037
38719W        W81636  10.815   6.462  28.774  0.0163  0.0648  0.2111
38720W        W81637   9.697   2.986  28.306  0.0799  0.2147 -0.1955
38721W        W81638   9.411   7.365  29.727 -0.0680  0.5224  0.0580
38722W        W81639   8.480   5.123  30.288  0.2545  0.1360 -0.1365
38723W        W81640   7.225   6.457  28.673 -0.0012 -0.1079  0.0550
38724W        W81641   9.091   5.191  26.516  0.4190 -0.1325  0.1450
38725W        W81642   9.969   4.696  29.670 -0.0364 -0.0817 -0.0583
38726W        W81643   7.593   5.251  29.946  0.2515 -0.0822 -0.0106
38727W        W81644  10.468   5.681  29.172  0.1701 -0.1226  0.2499
38728W        W81645   6.913   4.692  27.259  0.0406 -0.1130  0.2081
38729W        W81646  10.082   6.179  29.338 -0.1243  0.2605 -0.0800
38730W        W81647  10.226   5.198  27.445 -0.0246 -0.2705  0.0456
38731W        W81648  12.665   5.218  27.985 -0.0209 -0.0876  0.1793
38732W        W81649  10.163   5.885  29.741  0.2235  0.4246  0.0064
38733W        W81650   8.978   6.822  27.995 -0.1946  0.0849 -0.0186
38734W        W81651   9.447   4.150  26.704  0.0729 -0.0293  0.0086
38735W        W81652  11.846   3.591  26.615 -0.0099  0.2479  0.1805
38736W        W81653   9.421   5.818  29.894 -0.1711  0.0566  0.2461
38737W        W81654  11.274   8.371  28.157 -0.0487 -0.0099 -0.0981
38738W        W81655  11.445   6.851  30.711 -0.1382 -0.0180 -0.4384
38739W        W81656  10.436   3.693  28.452 -0.0498 -0.1529  0.4364
38740W        W81657  10.694   7.025  27.683 -0.1238  0.1766 -0.0177
38741W        W81658   9.106   5.483  30.742 -0.0439 -0.2706  0.2208
38742W        W81659   9.023   6.717   0.493 -0.2988  0.1128 -0.2242
38743W        W81660  11.428   6.332  25.572  0.1132  0.0155 -0.1256
38744W        W81661   9.662   4.114  31.146 -0.1701  0.1160 -0.1390
38745W        W81662   8.247   4.920  27.554  0.1585 -0.1093  0.3310
38746W        W81663  10.145   2.856  29.347  0.0112 -0.2938 -0.2386
38747W        W81664   8.074   5.263  27.974 -0.2563 -0.0073  0.1678
38748W        W81665  11.633   5.181  29.305  0.0897 -0.0138 -0.0783
38749W        W81666   9.524   4.210  30.676  0.1361 -0.0253 -0.2385
38750W        W81667   7.977   2.708  29.834  0.4011  0.1264  0.0302
38751W        W81668  10.957   2.971   2.540  0.4953  0.2012  0.3848
38752W        W81669  11.114   5.442  27.353 -0.1622  0.2340 -0.0441
38753W        W81670   9.850   5.028  28.129  0.0620 -0.2323 -0.2090
38754W        W81671   9.220   3.746  26.739 -0.0663 -0.2209 -0.0064
38755W        W81672  11.295   3.929   0.835 -0.1920  0.2030  0.2277
38756W        W81673   8.468   5.967  31.845  0.3394  0.0642 -0.0617
38757W        W81674   6.886   4.043  28.591  0.1619 -0.5137  0.0053
38758W        W81675  10.878   6.430  30.784 -0.0891  0.2122  0.2545
38759W        W81676   9.238   6.411  27.919  0.4002 -0.2126 -0.2019
38760W        W81677  10.770   4.806   1.560  0.0608  0.0506 -0.0121
38761W        W81678   9.019   4.787   0.129 -0.1262  0.0613  0.1509
38762W        W81679   8.613   8.932  29.022  0.1926 -0.1213  0.0461
38763W        W81680   9.272   7.674  28.152 -0.2682  0.1626  0.0484
38764W        W81681   8.909   4.100  30.065 -0.0441 -0.1235 -0.2537
38765W        W81682   9.407   4.483  31.429  0.2359 -0.1236 -0.2287
38766W        W81683  10.313   6.076  27.313 -0.2889  0.1016  0.3770
38767W        W81684  10.603   4.974  28.779 -0.3831  0.3902  0.1817
38768W        W81685   7.960   6.350  29.509 -0.0037  0.0037  0.0101
38769W        W81686  11.481   2.149  30.693 -0.2266 -0.0467  0.3182
38770W        W81687   7.995   5.438  29.615 -0.0795 -0.0606  0.2113
38771W        W81688   6.050   5.019  25.526 -0.0106  0.4080 -0.0580
38772W        W81689   7.543   6.017  28.500  0.0399  0.2423  0.2685
38773W        W81690  10.766   2.066  26.858  0.0172  0.0722 -0.1393
38774W        W81691  11.141   5.454  28.498 -0.1526 -0.1585  0.2652
38775W        W81692  10.011   3.955  31.916 -0.1257 -0.1185  0.0869
38776W        W81693   9.117   4.547  30.747  0.2730 -0.2088  0.0320
38777W        W81694   7.639   6.437  29.838 -0.1167  0.0601  0.2958
38778W        W81695  10.411   4.624   0.450 -0.2564  0.2279  0.2181
38779W        W81696   9.957   4.099  26.959  0.1194  0.1577 -0.1860
38780W        W81697  10.434   7.731  30.486 -0.1296 -0.1492 -0.4266
38781W        W81698   9.541   4.126   1.267  0.1146  0.4216 -0.1455
38782W        W81699   8.295   5.323  27.089 -0.1368 -0.1038 -0.3707
38783W        W81700  10.719   5.218  31.167 -0.0657  0.3101  0.3191
38784W        W81701   9.918   4.724  29.148 -0.2488 -0.0176 -0.1032
38785W        W81702   6.210   6.123  26.573  0.1503  0.1469 -0.2854
38786W        W81703   9.258   5.962  29.422  0.1529  0.1664  0.0060
38787W        W81704   8.619   5.110  27.821  0.1652  0.1685 -0.0677
38788W        W81705   8.920   5.046  29.683 -0.2034  0.2388 -0.1184
38789W        W81706   7.999   5.555  31.788  0.0202 -0.1094 -0.0181
38790W        W81707  10.480   4.214   0.226 -0.2138 -0.0957 -0.0515
38791W        W81708  10.147   6.446  31.200  0.1613 -0.2682  0.0503
38792W        W81709   8.975   4.302  27.980  0.0893 -0.0161 -0.3458
38793W        W81710  10.419   4.982  29.809 -0.1682 -0.1887 -0.0803
38794W        W81711  10.645   4.088  27.732  0.1965 -0.0278  0.2759
38795W        W81712   9.587   5.091   1.232 -0.1883 -0.1574  0.3934
38796W        W81713   9.757   5.305   0.668 -0.1174 -0.1853 -0.0501
38797W        W81714   9.465   4.082  29.929  0.2618  0.1141 -0.0545
38798W        W81715  13.701   5.076  28.712  0.1801 -0.0055  0.1445
38799W        W81716   9.806   5.499  29.762 -0.2741  0.2367 -0.0294
38800W        W81717   8.966   4.662  28.825 -0.1964 -0.1377 -0.0879
38801W        W81718   5.296   6.117  30.996 -0.2339  0.0657  0.0776
38802W        W81719   7.863   6.816  29.211 -0.3852  0.0782 -0.2479
38803W        W81720  10.446   4.180  31.684 -0.2974  0.1128 -0.3626
38804W        W81721   8.965   7.670  29.988 -0.1317 -0.2381  0.0809
38805W        W81722   8.374   6.678  26.858 -0.1209  0.0474  0.0736
38806W        W81723   9.298   6.782  29.506  0.2177 -0.1340  0.0923
38807W        W81724  10.166   4.340  27.374 -0.1689  0.0679  0.2186
38808W        W81725   8.943   5.122  25.437  0.0577  0.0028 -0.3908
38809W        W81726  11.104   4.953  28.617 -0.1067  0.1387  0.0475
38810W        W81727  10.148   4.215  31.316  0.1264  0.3463  0.0871
38811W        W81728  10.906   5.649  28.045  0.1769  0.1353  0.2466
38812W        W81729  11.039   3.469   0.004  0.3586 -0.0915 -0.0797
38813W        W81730   8.800   3.090  31.684 -0.1275  0.0090  0.0622
38814W        W81731  10.664   6.699  26.617  0.0049 -0.0823  0.0731
38815W        W81732   8.151   4.986  30.796  0.0190 -0.1555  0.0811
38816W        W81733  10.070   6.953  30.502 -0.0137  0.1532 -0.3841
38817W        W81734   9.356   6.014  31.418  0.1672 -0.3206 -0.3831
38818W        W81735  10.298   4.037  29.973 -0.1177 -0.0429 -0.0711
38819W        W81736   7.274   3.159  28.283  0.1299  0.0308 -0.1039
38820W        W81737   9.119   7.125  29.997 -0.2825  0.5476 -0.1864
38821W        W81738  11.489   4.723  29.462 -0.0155  0.0300 -0.0371
38822W        W81739   7.412   5.415  27.307 -0.1174 -0.2623 -0.0160
38823W        W81740   8.790   6.906  29.343  0.1944 -0.2473  0.0159
38824W        W81741   8.263   6.374  29.928  0.3138  0.0874  0.3539
38825W        W81742   9.572   5.133  29.107 -0.1716  0.2590 -0.0685
38826W        W81743   8.052   7.024  28.296  0.0493  0.0019 -0.0481
38827W        W81744   9.635   4.705  30.796  0.0973  0.0251  0.0900
38828W        W81745   7.618   2.103  30.544 -0.2608 -0.0366  0.0032
38829W        W81746  11.355   6.457  30.406  0.1847 -0.0862 -0.1990
38830W        W81747   9.833   2.436  28.146  0.2395  0.0750  0.2523
38831W        W81748  10.772   3.835   1.105  0.0636 -0.1475  0.0604
38832W        W81749  11.232   4.307  29.428  0.1652 -0.6212  0.0595
38833W        W81750   8.443   5.365  31.924  0.0659  0.3842 -0.1127
38834W        W81751  10.768   4.306  31.311 -0.1841  0.1951 -0.0862
38835W        W81752  11.125   5.855  30.899  0.1219 -0.1083  0.2451
38836W        W81753  10.998   3.943  26.481 -0.0907 -0.1373  0.0461
38837W        W81754  10.971   3.537  30.748 -0.2006  0.1811  0.1132
38838W        W81755  10.695   3.461  28.878 -0.0589 -0.0829  0.0617
38839W        W81756  10.130   7.133  28.378  0.0570  0.1699  0.1160
38840W        W81757   8.442   6.885  29.012  0.0103  0.0965 -0.0535
38841W        W81758  10.334   5.511   0.867  0.0956  0.2138  0.0307
38842W        W81759   9.616   4.111  27.323 -0.3002 -0.2434 -0.0416
38843W        W81760  13.679   4.821  31.740  0.1042  0.1943  0.0966
38844W        W81761   8.022   5.158  29.167  0.1465 -0.2211 -0.1763
38845W        W81762   8.188   6.325  29.059  0.0400 -0.0203 -0.2153
38846W        W81763  11.143   3.834  26.988 -0.0446  0.0415  0.0850
38847W        W81764   8.651   3.095  30.400 -0.2856 -0.0598  0.3880
38848W        W81765   9.454   6.345  29.678 -0.1990 -0.0814  0.1573
38849W        W81766  10.501   3.863  26.711  0.2904 -0.1009  0.3879
38850W        W81767   8.051   4.748  26.994  0.0307 -0.1171  0.2477
38851W        W81768   9.818   5.380  31.200  0.0082  0.1767  0.0568
38852W        W81769  11.666   5.463  31.146 -0.3851  0.1329  0.3242
38853W        W81770   9.721   3.689  29.295  0.1237 -0.1111 -0.4001
38854W        W81771  12.010   5.125   1.029  0.3974  0.1485 -0.2083
38855W        W81772   7.390   6.514  28.204 -0.1481  0.4197  0.0759
38856W        W81773  10.212   4.755  28.412 -0.0404 -0.0681 -0.0436
38857W        W81774  10.228   7.436  31.430  0.1755 -0.0564 -0.1027
38858W        W81775  10.178   5.570  31.517  0.2566 -0.0106 -0.0261
38859W        W81776   7.938   7.399  27.983 -0.0006  0.1266 -0.1596
38860W        W81777   9.121   2.980  31.349  0.0046  0.3135  0.1190
38861W        W81778  10.291   3.131  28.992  0.0912 -0.1046 -0.1209
38862W        W81779   8.304   5.815   0.539 -0.0204  0.1285  0.2503
38863W        W81780  11.252   6.211  29.956 -0.0922  0.2117 -0.1732
38864W        W81781   9.744   8.132  30.103  0.2921 -0.0617 -0.3613
38865W        W81782   8.696   4.542  29.879 -0.2139 -0.0930  0.0495
38866W        W81783   9.801   6.080  30.030 -0.2405 -0.2381 -0.2859
38867W        W81784  11.767   3.577  30.993  0.1184  0.1499 -0.1013
38868W        W81785   8.398   8.412  28.202 -0.1049 -0.2957 -0.0321
38869W        W81786  10.461   5.502  30.044 -0.1730  0.1422  0.0985
38870W        W81787  10.543   3.709  31.951 -0.3071 -0.2909  0.2020
38871W        W81788   9.966   6.529  28.202 -0.0207  0.1797 -0.3473
38872W        W81789   7.538   3.381  31.007 -0.2033  0.1031 -0.0964
38873W        W81790   7.180   5.148  28.346  0.2115  0.0910 -0.0292
38874W        W81791   9.664   8.101  31.090 -0.0785  0.1586  0.1611
38875W        W81792   9.729   5.955  29.523  0.1220  0.3429  0.1664
38876W        W81793   9.611   7.860  29.697  0.0958  0.0706  0.0496
38877W        W81794  11.826   8.264  29.667  0.3414  0.1724 -0.2142
38878W        W81795  10.259   8.011  27.640  0.2165  0.0037  0.1262
38879W        W81796  10.836   7.602  29.533 -0.2614 -0.0694 -0.0349
38880W        W81797   9.068   4.215  29.027  0.2141 -0.1170  0.0297
38881W        W81798   8.085   5.102  30.001  0.2310  0.0938  0.0852
38882W        W81799   7.199   6.155  27.064 -0.1993  0.2642  0.1026
38883W        W81800  10.070   8.021  27.084 -0.0588 -0.0952 -0.2471
38884W        W81801   9.678   7.446  27.280 -0.3474  0.1445  0.2099
38885W        W81802  10.551   4.498  30.888  0.1341 -0.0337  0.1478
38886W        W81803   8.795   2.024  25.037  0.1279 -0.2962 -0.0193
38887W        W81804  12.042   5.949  27.461  0.0309 -0.0013  0.0776
38888W        W81805  10.474   3.166  28.539 -0.2942 -0.5238  0.1756
38889W        W81806   9.458   6.019  31.904 -0.0801 -0.1889 -0.0847
38890W        W81807   9.048   4.305  31.815 -0.0522  0.0324 -0.0948
38891W        W81808  10.367   4.380  26.899  0.2445  0.0810 -0.3192
38892W        W81809   9.818   6.621  30.773 -0.2069 -0.2238 -0.0678
38893W        W81810  10.927   4.726  31.050  0.0486  0.1685  0.2803
38894W        W81811   8.152   8.820  30.825 -0.1408 -0.0979 -0.1010
38895W        W81812  11.931   6.588  26.733 -0.1185  0.1700 -0.2998
38896W        W81813   7.660   5.085  28.375 -0.0959 -0.2708  0.2394
38897W        W81814   9.215   4.489  29.783 -0.0846 -0.2447  0.2776
38898W        W81815   9.911   5.036  31.690  0.2858 -0.0550  0.1654
38899W        W81816  11.045   5.185  26.802 -0.2003 -0.2352 -0.0449
38900W        W81817   9.552   4.405  29.383  0.0133 -0.0535  0.2304
38901W        W81818  11.269   8.534  27.615  0.3619  0.1620 -0.1613
38902W        W81819  10.324   5.449  29.562  0.0664 -0.1523 -0.0507
38903W        W81820   8.829   6.421  30.188 -0.0155  0.1772  0.0911
38904W        W81821   6.560   6.024  28.316 -0.0244  0.0247  0.2541
38905W        W81822   9.499   4.758  27.863  0.0141 -0.0723 -0.0282
38906W        W81823  10.906   4.962  31.540 -0.0518  0.1946  0.2457
38907W        W81824  10.812   2.710  30.535 -0.2752 -0.0852 -0.1041
38908W        W81825   8.826   7.105  27.613 -0.2463  0.2524 -0.1776
38909W        W81826   7.777   5.486  28.770 -0.3036 -0.0462  0.2850
38910W        W81827   9.345   6.346  30.716  0.0138 -0.0810 -0.1150
38911W        W81828   8.493   4.905   0.053 -0.1221  0.4298 -0.0887
38912W        W81829   8.946   6.374  29.193  0.1978  0.3213 -0.1059
38913W        W81830  10.697   6.388  30.315 -0.1635  0.0061 -0.0549
38914W        W81831  10.086   3.284  24.071 -0.0657  0.1583  0.1131
38915W        W81832  10.248   8.360  31.276  0.0685  0.0467 -0.0516
38916W        W81833   8.691   4.138  30.478 -0.0226  0.2120  0.0857
38917W        W81834  10.399   1.729  27.868 -0.2402  0.1580  0.2067
38918W        W81835   8.977   4.056  30.838 -0.0461 -0.1562  0.0063
38919W        W81836  11.708   3.893   0.408  0.5142 -0.2170  0.0706
38920W        W81837   9.067   5.968  30.496 -0.0045 -0.4039 -0.2480
38921W        W81838   8.668   3.740  28.092  0.2327 -0.1748  0.0313
38922W        W81839  12.643   5.202  28.538 -0.2085 -0.1981 -0.0319
38923W        W81840  10.943   5.100  29.906  0.0276  0.0712  0.1893
38924W        W81841   7.813   6.456  27.908  0.0254 -0.0691 -0.2259
38925W        W81842  10.994   4.666   0.340 -0.1797 -0.4250 -0.1082
38926W        W81843   8.636   5.305  28.865 -0.0061  0.0362  0.1813
38927W        W81844   8.515   3.406  31.008  0.0338  0.2902  0.1383
38928W        W81845   9.492   8.154  30.552 -0.0960 -0.0278  0.2048
38929W        W81846  11.097   5.915  29.533  0.1039 -0.0288  0.2655
38930W        W81847   8.864   2.551  27.812  0.3397  0.0165  0.2290
38931W        W81848   8.380   3.875  30.823 -0.3807 -0.1808  0.1664
38932W        W81849   6.913   5.851  28.674 -0.0573 -0.0771  0.0144
38933W        W81850  12.634   4.739  27.848  0.0761  0.0230 -0.3505
38934W        W81851  12.219   4.662  31.879  0.0685  0.0364 -0.3740
38935W        W81852   9.309   4.687  26.554  0.1629 -0.0129  0.1207
38936W        W81853  11.571   3.566   0.950  0.0636  0.2174 -0.0923
38937W        W81854   7.852   6.460  31.148 -0.2725  0.2856  0.1099
38938W        W81855  12.412   9.021  31.897 -0.1713  0.5653 -0.1586
38939W        W81856   7.794   5.158  27.342 -0.4420  0.2996  0.2275
38940W        W81857   9.677   5.612  31.653  0.0299  0.1902  0.0089
38941W        W81858   9.332   8.732  27.781  0.2432  0.0999  0.2256
38942W        W81859   9.902   8.482  27.919  0.1266  0.0810  0.1647
38943W        W81860   9.641   6.041  26.471 -0.0798  0.0739  0.0199
38944W        W81861   8.688   5.904  29.542 -0.2556 -0.3211  0.0459
38945W        W81862  11.207   7.394  28.305 -0.1722 -0.1559 -0.2103
38946W        W81863   9.745   5.491  28.742  0.2804  0.2243 -0.0764
38947W        W81864  12.004   5.848  28.272 -0.1360 -0.1799 -0.1401
38948W        W81865  10.179   2.719  27.350  0.1252 -0.1212 -0.0605
38949W        W81866   9.957   5.092  30.052  0.0515 -0.0728  0.2459
38950W        W81867   9.096   5.150  29.218  0.1304  0.0031 -0.2737
38951W        W81868   7.944   6.146  27.596 -0.1365 -0.6536 -0.1249
38952W        W81869   7.711   6.355  28.888  0.1509  0.0573  0.3115
38953W        W81870   9.808   3.145   0.428 -0.0223  0.2925 -0.2843
38954W        W81871   9.841   4.184  30.230  0.1932 -0.0660 -0.0108
38955W        W81872   8.565   7.294  31.655  0.0275 -0.2601 -0.1027
38956W        W81873   9.776   6.523  30.311  0.0554  0.0323 -0.2563
38957W        W81874  10.458   6.226  28.191  0.1164 -0.3135 -0.1292
38958W        W81875  10.084   4.730  27.797  0.0957  0.0514  0.2453
38959W        W81876   9.856   2.923  27.752  0.1259 -0.0032 -0.3629
38960W        W81877  11.438   5.845  28.307 -0.0453 -0.0235  0.3731
38961W        W81878  11.196   4.763  26.818  0.1077  0.0432  0.0237
38962W        W81879  10.564   4.882  29.263 -0.3572 -0.0041 -0.1392
38963W        W81880  11.610   7.407  31.090  0.2406  0.0023  0.1904
38964W        W81881   8.934   5.393  30.226 -0.1490  0.0778  0.0389
38965W        W81882  10.025   5.908  31.944 -0.1419 -0.0023 -0.1528
38966W        W81883   7.317   4.436  30.317  0.0526 -0.1796  0.1127
38967W        W81884   7.721   1.950  28.054 -0.3820 -0.2164  0.1727
38968W        W81885   9.494   4.804  31.902 -0.0413 -0.0067 -0.0718
38969W        W81886  10.521   6.881  28.125  0.0959  0.0059 -0.0499
38970W        W81887   8.064   7.825  26.686 -0.3182 -0.0911  0.2771
38971W        W81888   9.193   7.753  29.458  0.2458  0.1031  0.0867
38972W        W81889  10.278   6.795  29.833  0.0161 -0.3208 -0.1985
38973W        W81890   5.741   2.555  30.013 -0.1059 -0.1940 -0.2946
38974W        W81891   9.712   7.402  28.240 -0.1884 -0.0175 -0.0303
38975W        W81892   9.386   7.771  31.454 -0.1945  0.0033  0.1838
38976W        W81893  10.161   5.249  28.461  0.2097  0.1325  0.1948
38977W        W81894   9.927   5.140  29.472  0.1625 -0.1718 -0.2093
38978W        W81895   7.391   4.435  27.600  0.2556 -0.3212  0.1810
38979W        W81896   7.530   4.005  31.733  0.1472  0.1741 -0.0814
38980W        W81897   8.150   5.922  29.789 -0.2822  0.4202 -0.3399
38981W        W81898   9.951   5.619  29.236  0.0804 -0.0213  0.3129
38982W        W81899   9.326   3.334  29.179 -0.2921  0.2790 -0.1209
38983W        W81900   9.428   4.676  28.946  0.1436  0.0702  0.1724
38984W        W81901   9.307   7.213  27.843 -0.0102 -0.2379 -0.0198
38985W        W81902   9.093   3.831  30.421  0.1060 -0.1121 -0.1082
38986W        W81903   9.378   5.209  28.138 -0.4110  0.0723 -0.1375
38987W        W81904  12.783   5.132   2.034 -0.1357  0.0732 -0.0727
38988W        W81905   9.865   6.065  28.888 -0.0362 -0.2581 -0.2177
38989W        W81906  11.335   4.882   0.893  0.0161  0.4581 -0.0204
38990W        W81907   8.380   4.289  30.114 -0.0448  0.0036  0.3246
38991W        W81908  10.630   5.440  28.666  0.2113  0.0230  0.1638
38992W        W81909  10.710   8.819  28.893 -0.2075  0.0301 -0.2137
38993W        W81910  10.365   6.505  30.682 -0.1120 -0.0502  0.2248
38994W        W81911   8.449   7.730  28.054  0.0506  0.2169 -0.1489
38995W        W81912  10.432   5.645  28.182 -0.2100  0.2140  0.2871
38996W        W81913   7.181   2.212  29.953 -0.0697  0.1179 -0.0771
38997W        W81914   8.892   4.721  30.340  0.1733  0.2163 -0.1542
38998W        W81915   8.957   5.447  28.344  0.3429  0.0656 -0.2039
38999W        W81916   9.629   3.760  28.660 -0.1537 -0.0407  0.1891
39000W        W81917   8.120   3.473  29.932 -0.2482  0.2908 -0.1602
39001W        W81918  10.503   2.058  29.284 -0.0574 -0.2285  0.0500
39002W        W81919   8.709   7.717  29.487 -0.1112  0.0820 -0.0074
39003W        W81920   9.363   5.597  30.360 -0.0360  0.2073 -0.2558
39004W        W81921  11.368   4.722  31.481  0.0103  0.0893  0.1358
39005W        W81922  11.624   3.956   1.303  0.0129 -0.0719  0.0351
39006W        W81923   9.910   4.967   0.289 -0.0465 -0.1555 -0.1770
39007W        W81924  10.057   4.673  30.416 -0.2023 -0.2423  0.2355
39008W        W81925  10.420   6.063  31.559  0.2978  0.0064  0.0701
39009W        W81926   7.886   6.884   0.602  0.0272  0.0416  0.1214
39010W        W81927  10.808   5.476  29.584  0.1993 -0.0406 -0.1112
39011W        W81928  10.296   3.367  31.132 -0.1993  0.1843  0.0930
39012W        W81929  11.100   4.252   1.875 -0.3090  0.0963 -0.1248
39013W        W81930  11.951   6.640   0.364 -0.0156  0.3533 -0.0042
39014W        W81931  10.013   7.207  30.017 -0.0504  0.0184  0.3632
39015W        W81932   7.606   2.554   0.276  0.0301 -0.0430  0.0009
39016W        W81933  12.205   5.531  31.063  0.2873 -0.2576  0.1028
39017W        W81934   9.816   5.596  30.711  0.0762 -0.0428 -0.2748
39018W        W81935  11.604   5.595   1.381  0.0258 -0.2682  0.1951
39019W        W81936   9.161   7.235  30.596  0.1231  0.2232 -0.1535
39020W        W81937   9.546   9.785  31.800 -0.2647  0.1618  0.1605
39021W        W81938  10.892   7.376  30.541  0.1848 -0.0217 -0.1580
39022W        W81939   5.080   3.997  31.759  0.2270 -0.0132  0.1664
39023W        W81940   8.340   4.216   0.578 -0.2784 -0.2238 -0.0689
39024W        W81941   7.950   3.627  30.844  0.2418  0.4318  0.1010
39025W        W81942   8.351   8.338  29.735  0.1701 -0.1150 -0.0301
39026W        W81943  10.853   2.867  29.855  0.0976  0.1311  0.4834
39027W        W81944  10.833   4.110  30.716  0.2320 -0.1983 -0.4339
39028W        W81945   9.626   2.755   0.737  0.0011  0.3645 -0.1046
39029W        W81946  10.287   4.206   0.729 -0.3260  0.0215 -0.1253
39030W        W81947   9.893   4.130  29.676  0.1727  0.0788  0.1277
39031W        W81948   8.964   6.712  30.601 -0.2068  0.2674 -0.0291
39032W        W81949   9.211   2.999   0.966  0.2185 -0.1125 -0.0484
39033W        W81950   9.481   4.190   0.191  0.0306  0.2693  0.0631
39034W        W81951  11.454   5.355  30.128  0.1717 -0.2811 -0.0554
39035W        W81952   8.156   3.900  30.382  0.2772 -0.0149 -0.0355
39036W        W81953  12.468   5.407   0.955  0.0454  0.1964  0.1378
39037W        W81954  11.980   4.829   0.450  0.0272 -0.0609 -0.0761
39038W        W81955   7.770   4.665  30.588  0.0039 -0.0622 -0.0487
39039W        W81956  10.733   3.435   0.837  0.1410  0.1790  0.0939
39040W        W81957   9.807   8.601  30.372  0.0388 -0.1128 -0.1918
39041W        W81958  10.731   6.906  29.606  0.0328 -0.2933 -0.1456
39042W        W81959   9.581   3.627   0.144  0.0136 -0.0590  0.0968
39043W        W81960   9.397   5.014  31.417 -0.0515 -0.1493 -0.3367
39044W        W81961  12.677   4.250  31.531  0.1728 -0.0209  0.0235
39045W        W81962  10.795   4.740  30.208  0.2696  0.0347 -0.0310
39046W        W81963  10.337   4.735  31.814  0.1346 -0.2194  0.0384
39047W        W81964   9.263   8.364  31.247 -0.1159  0.1831  0.0207
39048W        W81965   9.021   1.378   0.465  0.3217  0.0796 -0.4707
39049W        W81966  10.170   9.066   0.003  0.2749 -0.0163 -0.2820
39050W        W81967   9.906   3.387  30.782 -0.0047 -0.0238 -0.1298
39051W        W81968   9.721   6.807  29.874 -0.0863 -0.0052 -0.1143
39052W        W81969   9.563   5.200  30.843  0.1382 -0.3552 -0.0113
39053W        W81970   9.624   7.184  30.264  0.3067  0.0385 -0.4258
39054W        W81971  11.963   5.119  30.906 -0.1977  0.0650 -0.0306
39055W        W81972  12.631   3.903   0.432  0.0401 -0.1619 -0.0340
39056W        W81973   9.368   4.602   0.446 -0.1650 -0.0859  0.1851
39057W        W81974  10.539   6.017  30.948 -0.0288  0.0014 -0.1269
39058W        W81975   8.560   5.363  29.864  0.3128 -0.0379 -0.0701
39059W        W81976  10.299   5.096   0.616 -0.2596 -0.0930 -0.0925
39060W        W81977  11.466   4.943  30.345 -0.0061 -0.0530 -0.2409
39061W        W81978   9.695  10.122  30.932  0.0021 -0.1150 -0.0500
39062W        W81979   9.129   8.020  30.903  0.1888 -0.0288  0.0221
39063W        W81980   8.722   4.396   0.916  0.2051 -0.0960 -0.3404
39064W        W81981   7.883   5.486   0.367 -0.0703  0.0805  0.0569
39065W        W81982  10.372   4.725  31.316 -0.3818  0.2733  0.2140
39066W        W81983   9.359   3.340   0.529 -0.3918 -0.0903 -0.0806
39067W        W81984   9.451   2.221   0.019 -0.1684  0.0195  0.0024
39068W        W81985  10.928   8.762  31.316  0.1858 -0.0995  0.0459
39069W        W81986  12.299   5.483  31.530 -0.4204  0.1574 -0.0262
39070W        W81987  11.836   5.606  31.621  0.1552 -0.0672 -0.3091
39071W        W81988   7.961  11.139  18.254 -0.5134  0.0089 -0.0317
39072W        W81989  10.038   7.991  18.279  0.1732 -0.2950  0.1662
39073W        W81990   8.250   7.660  18.509 -0.0622 -0.0545  0.0034
39074W        W81991  11.782   9.305  16.143 -0.0034  0.1643  0.0340
39075W        W81992   8.236   7.865  16.307  0.0650 -0.1591  0.1609
39076W        W81993  10.837  11.162  17.632  0.0267 -0.1566 -0.2091
39077W        W81994   6.323   4.920  19.868  0.4063 -0.0183 -0.0665
39078W        W81995   9.391  10.042  18.634 -0.2820 -0.1333 -0.2176
39079W        W81996   7.595  10.183  16.097  0.1851  0.3108 -0.0452
39080W        W81997  10.732  10.530  15.602  0.1628  0.1230  0.1760
39081W        W81998   9.537   6.851  19.587 -0.0641  0.0214  0.0547
39082W        W81999   8.634  10.647  19.761  0.1765  0.1201 -0.2073
39083W        W82000   8.595   7.825  16.675  0.0560  0.3367  0.0219
39084W        W82001   8.807   9.158  17.384  0.1669 -0.1322 -0.0868
39085W        W82002  10.003   9.468  17.880  0.1832 -0.0473  0.0230
39086W        W82003   7.302   8.838  17.625 -0.0471 -0.0439 -0.1182
39087W        W82004   8.279   8.568  17.097  0.3734 -0.2726 -0.2660
39088W        W82005   8.825   6.798  18.563 -0.1959  0.0744 -0.2157
39089W        W82006   8.222  10.405  17.840  0.3295 -0.0387  0.3064
39090W        W82007   7.846   5.936  19.622  0.1921 -0.0200  0.2692
39091W        W82008   8.511   6.118  19.232  0.0197 -0.2776  0.1356
39092W        W82009   7.947  10.154  18.587  0.1817 -0.1016  0.2437
39093W        W82010   6.626   7.693  16.519  0.2833 -0.1551 -0.0797
39094W        W82011   9.004   9.788  19.002 -0.1286  0.0068 -0.0404
39095W        W82012   9.912   8.629  20.095 -0.2385  0.2114  0.0874
39096W        W82013   9.602   8.328  18.183  0.2277 -0.1049 -0.0707
39097W        W82014   9.435   8.577  16.767 -0.0539  0.4358 -0.1194
39098W        W82015   6.952  11.636  19.101 -0.1911  0.0638 -0.2988
39099W        W82016   8.724  11.401  18.285  0.2669 -0.1915 -0.0242
39100W        W82017   9.706   9.697  18.336  0.0508  0.0611  0.1619
39101W        W82018   6.908   7.372  16.167  0.1909  0.0087 -0.0793
39102W        W82019   5.968   9.857  19.137 -0.4012  0.1527  0.0853
39103W        W82020   7.862  10.617  17.472 -0.1617  0.4443  0.0142
39104W        W82021   8.859  10.779  17.451 -0.1988  0.1942 -0.0099
39105W        W82022  11.512   9.470  19.094  0.0136 -0.0830  0.0976
39106W        W82023   7.404  13.262  21.593  0.1143  0.2020 -0.2154
39107W        W82024   7.177  11.211  15.575 -0.1010 -0.0863  0.2241
39108W        W82025   7.818  10.573  19.922  0.3756 -0.1942  0.0948
39109W        W82026   7.107  11.238  19.745 -0.0950  0.4071 -0.2415
39110W        W82027   9.892   7.543  18.098  0.1353  0.0845  0.0813
39111W        W82028   9.889   9.329  16.373  0.0404  0.0674  0.1870
39112W        W82029   8.374  10.670  18.381  0.0076 -0.0590 -0.1135
39113W        W82030   9.714  10.922  17.724 -0.0453  0.1596 -0.1080
39114W        W82031  10.211   9.688  19.081  0.0016  0.0177 -0.0417
39115W        W82032   6.879  11.524  18.027  0.0715  0.1880  0.1008
39116W        W82033  11.325   6.111  17.550 -0.0002 -0.0799 -0.0470
39117W        W82034   7.587  11.494  18.305  0.1575 -0.1556 -0.0050
39118W        W82035  10.201   8.514  15.314  0.1650 -0.3112  0.1830
39119W        W82036   8.915   8.367  15.932 -0.2184 -0.0766  0.2164
39120W        W82037  11.202   8.203  17.326 -0.2763 -0.1183 -0.0597
39121W        W82038  10.981   6.968  16.820 -0.1138  0.2066 -0.1043
39122W        W82039   8.155  10.684  19.485 -0.0696  0.0047 -0.0545
39123W        W82040  10.553   6.767  17.999 -0.1622  0.0437  0.0236
39124W        W82041  10.061  11.856  18.793  0.0503 -0.0032  0.3695
39125W        W82042   9.912   8.307  16.833 -0.1805  0.1686  0.0857
39126W        W82043  10.949   6.735  18.338  0.1031 -0.0102 -0.0028
39127W        W82044   7.740  10.127  19.784  0.0442  0.0168  0.4570
39128W        W82045   8.104   7.305  18.096 -0.1536  0.0125  0.1864
39129W        W82046  11.818  10.256  16.409  0.3822  0.0667  0.2327
39130W        W82047   9.956  10.780  18.105 -0.1212  0.2370  0.0413
39131W        W82048  10.797  10.747  17.976 -0.2305 -0.1003  0.2639
39132W        W82049   5.686   8.078  17.321 -0.0595  0.3543 -0.1224
39133W        W82050   8.150   7.240  18.989 -0.1665 -0.1056  0.0008
39134W        W82051   9.005   6.389  22.323  0.0554 -0.3889  0.1486
39135W        W82052   7.036   7.847  16.310  0.0912 -0.1554  0.2769
39136W        W82053   9.866  10.107  18.729  0.0298  0.1442 -0.0505
39137W        W82054   6.812  11.018  21.109 -0.1936 -0.2874 -0.0734
39138W        W82055  11.162   8.649  17.562  0.2132 -0.1662  0.0636
39139W        W82056   8.512   8.450  20.609  0.0326  0.0681  0.0397
39140W        W82057  10.133  10.078  17.162  0.1574  0.1919  0.0633
39141W        W82058  10.081   9.740  16.767 -0.0738 -0.0442 -0.0613
39142W        W82059  11.124   7.443  17.398 -0.0258 -0.5445  0.0297
39143W        W82060   9.533   7.206  18.204  0.0722  0.0360  0.0079
39144W        W82061   7.438  10.177  16.763 -0.2562 -0.0491 -0.3847
39145W        W82062   9.278   9.982  16.359 -0.1020 -0.0647  0.0036
39146W        W82063  10.516   7.999  20.756  0.3636  0.1831  0.0502
39147W        W82064  10.406   8.907  15.601  0.3545  0.3170 -0.1803
39148W        W82065   6.893   9.102  16.406  0.1597 -0.1770 -0.2912
39149W        W82066   8.604   5.370  19.499  0.0149 -0.0840 -0.0962
39150W        W82067  10.233  10.094  19.967 -0.0464 -0.0479  0.1711
39151W        W82068   8.636   9.256  16.144 -0.0044  0.1267 -0.1515
39152W        W82069   7.370  10.482  19.711  0.0284 -0.0818 -0.2596
39153W        W82070   8.464   9.329  19.296 -0.2983 -0.0317  0.2313
39154W        W82071   8.930   7.267  17.281 -0.0440 -0.2765 -0.0131
39155W        W82072   8.509  11.226  17.601  0.1035  0.0645  0.1420
39156W        W82073  11.483   7.698  17.118 -0.4101  0.0426 -0.3790
39157W        W82074   6.128   4.722  19.108 -0.0310 -0.1236  0.1236
39158W        W82075  10.830   6.255  17.636  0.0812  0.0581 -0.3717
39159W        W82076   9.035   9.733  18.249 -0.1943  0.2020 -0.0154
39160W        W82077  10.427  11.407  17.265 -0.0273 -0.0725 -0.2128
39161W        W82078  10.107   8.404  16.298 -0.2552 -0.0377 -0.0429
39162W        W82079  10.932  10.269  17.413  0.1419 -0.2959 -0.0324
39163W        W82080   7.053   8.706  18.458  0.1272  0.1260 -0.0919
39164W        W82081   7.591   6.911  16.954 -0.1056  0.0599  0.0006
39165W        W82082   7.652   7.667  20.199  0.3151  0.2137 -0.2514
39166W        W82083   7.381   7.058  18.838 -0.1761  0.0022 -0.2670
39167W        W82084  10.697   9.253  19.610 -0.0451 -0.1147 -0.0610
39168W        W82085   7.848   7.498  17.291 -0.2005 -0.2630  0.3326
39169W        W82086   8.604   8.735  17.505 -0.0610  0.1256 -0.2417
39170W        W82087   8.324  10.585  16.305 -0.0921  0.0009 -0.1183
39171W        W82088   6.768   9.597  17.664 -0.1925  0.3470  0.0014
39172W        W82089   9.125   9.212  17.809 -0.1350  0.2414 -0.0693
39173W        W82090   8.087  11.887  17.504  0.0521  0.1327 -0.0073
39174W        W82091   8.984  10.349  19.932  0.0714 -0.0243 -0.0059
39175W        W82092   9.758  10.436  17.651  0.1659 -0.0720  0.0155
39176W        W82093   7.829   5.625  19.184 -0.0287  0.1867 -0.2457
39177W        W82094   8.293   8.391  17.723  0.4654  0.0199  0.1766
39178W        W82095   6.612   9.078  17.783 -0.2972  0.2352  0.0131
39179W        W82096   8.337  10.800  17.452 -0.0422  0.2699 -0.1390
39180W        W82097   6.870   9.062  19.189  0.0996 -0.0948  0.1929
39181W        W82098   9.912   8.971  17.418 -0.1269 -0.0027  0.0082
39182W        W82099   8.797   9.580  16.817 -0.3915  0.0055  0.1425
39183W        W82100   8.968   8.788  19.855  0.2694  0.0851 -0.1088
39184W        W82101   9.998   8.781  19.525 -0.2260 -0.0454 -0.2420
39185W        W82102  11.630   8.299  17.573  0.4096 -0.0823  0.2305
39186W        W82103  10.351   9.233  16.568  0.1944 -0.1224 -0.0035
39187W        W82104   7.525   8.369  17.336  0.1198  0.1289  0.0272
39188W        W82105   7.626  10.322  18.890  0.1255 -0.0097  0.1851
39189W        W82106   5.915   9.079  18.109  0.0967 -0.2889 -0.0029
39190W        W82107   6.270   7.642  16.139  0.1578 -0.0637 -0.0367
39191W        W82108   9.065   9.395  16.318 -0.0934 -0.0351  0.1763
39192W        W82109   9.723   7.395  18.625 -0.0411 -0.1896 -0.4253
39193W        W82110   5.791  10.141  20.364  0.1404  0.0953 -0.0919
39194W        W82111   7.664   7.247  18.293 -0.1307 -0.1710 -0.1426
39195W        W82112   8.881   7.908  16.191 -0.1500 -0.3159  0.0717
39196W        W82113   8.139   9.713  18.529  0.0719  0.2586 -0.0387
39197W        W82114   9.545   6.853  16.640 -0.2382  0.3889  0.2101
39198W        W82115  10.779   8.447  17.827 -0.0750 -0.1038 -0.3653
39199W        W82116   7.723   7.504  19.752  0.0694  0.1521 -0.0338
39200W        W82117   8.661  10.365  17.679 -0.1419 -0.0597 -0.1422
39201W        W82118  11.333  10.147  16.440  0.0689 -0.2391 -0.0935
39202W        W82119  10.164   8.980  16.061  0.4500 -0.0156 -0.0135
39203W        W82120   6.783  11.178  21.589  0.0935  0.0522  0.1222
39204W        W82121   9.218  11.479  18.371  0.0471 -0.0820 -0.1980
39205W        W82122   8.112   8.579  18.113  0.1573 -0.0710 -0.3256
39206W        W82123   9.382   7.206  17.033  0.2530  0.1508 -0.0084
39207W        W82124  10.301  10.872  17.736  0.0291 -0.0195  0.0954
39208W        W82125   8.170   8.831  19.327 -0.1728  0.1213 -0.0888
39209W        W82126   9.271   9.590  18.654 -0.2298  0.2211 -0.2834
39210W        W82127   7.134  11.060  19.209  0.2585  0.3053 -0.1776
39211W        W82128   9.950   6.499  19.664  0.2977  0.0351  0.2776
39212W        W82129   8.848   6.613  15.957 -0.2590 -0.1213  0.4391
39213W        W82130   9.307   6.666  17.207 -0.1561 -0.0526 -0.0813
39214W        W82131   7.425  10.540  16.438 -0.1843  0.1899 -0.0388
39215W        W82132  10.312   7.266  17.923 -0.0494 -0.0934 -0.0622
39216W        W82133   9.731   7.317  17.355  0.1956 -0.2779  0.0547
39217W        W82134  11.081   8.153  20.072  0.3871  0.0375  0.2182
39218W        W82135  10.298   7.454  20.845  0.3234  0.0445  0.0742
39219W        W82136   9.733   8.623  15.281 -0.0570 -0.1334  0.0687
39220W        W82137  10.671   8.898  18.181 -0.1251 -0.0430  0.2922
39221W        W82138   9.706   7.869  17.323 -0.0008 -0.0073 -0.0380
39222W        W82139  10.760   9.777  19.341 -0.0528 -0.0858 -0.2319
39223W        W82140  10.169   8.980  17.928 -0.1643  0.2114 -0.0311
39224W        W82141   6.515  11.756  19.353  0.0607 -0.2135  0.0525
39225W        W82142   9.845   9.977  19.596 -0.0617 -0.1350 -0.0945
39226W        W82143   9.913   9.254  16.948 -0.0049  0.3042  0.0283
39227W        W82144  10.369   6.370  17.770 -0.3662 -0.0181 -0.0713
39228W        W82145   9.065   6.869  16.846  0.1787 -0.1233 -0.0033
39229W        W82146   8.020  11.136  17.299 -0.1707  0.0314  0.0155
39230W        W82147   8.623   9.759  18.629 -0.1710 -0.0241 -0.0155
39231W        W82148   8.907   6.424  17.065  0.1900 -0.0302 -0.0580
39232W        W82149   8.818   8.859  18.580  0.0979 -0.0687  0.0786
39233W        W82150   9.930   9.827  16.093  0.1007  0.1208 -0.1528
39234W        W82151   8.510   8.485  19.184  0.0040 -0.1222  0.0388
39235W        W82152   7.812  10.374  17.065 -0.0339 -0.1145 -0.0419
39236W        W82153   8.221   4.980  20.087  0.0722  0.0511  0.1721
39237W        W82154   6.046  12.530  17.954  0.1981  0.2606 -0.1804
39238W        W82155   8.072   9.482  17.686  0.0891  0.4449  0.1548
39239W        W82156   8.137   9.417  16.946  0.1377 -0.3400  0.1674
39240W        W82157  10.585   7.558  17.473 -0.3001  0.4596  0.0746
39241W        W82158  10.960   8.487  16.450  0.0032 -0.0614 -0.0049
39242W        W82159   8.788   9.345  18.837  0.2992 -0.3174  0.0198
39243W        W82160   8.328   9.585  16.455 -0.2680  0.0798 -0.0430
39244W        W82161   7.473   9.717  16.453 -0.0249 -0.1324 -0.3699
39245W        W82162  12.699   6.883  19.693  0.0980  0.0817  0.0483
39246W        W82163  10.801   7.296  16.408 -0.2843  0.1043 -0.0485
39247W        W82164   9.290   8.066  17.685  0.1733 -0.0355 -0.3071
39248W        W82165   7.866   6.861  18.916 -0.1366 -0.0584  0.2259
39249W        W82166   7.194   8.310  16.932  0.0057  0.1363  0.2956
39250W        W82167  11.967   7.198  19.269 -0.0890 -0.0080 -0.0713
39251W        W82168   9.375   7.976  16.191  0.1367 -0.1120 -0.3084
39252W        W82169   7.834   8.712  17.215 -0.2261 -0.0714  0.1523
39253W        W82170   9.395   9.651  17.919 -0.1387  0.1872 -0.0823
39254W        W82171   8.766   9.922  17.292  0.0197 -0.0840 -0.1905
39255W        W82172   8.814  11.545  17.312 -0.0250 -0.2253 -0.0125
39256W        W82173   9.906   6.563  17.859 -0.0797 -0.1761  0.1020
39257W        W82174   7.517   9.322  20.624  0.0390  0.1737 -0.0686
39258W        W82175   8.221   6.596  17.477 -0.0305 -0.1008 -0.1890
39259W        W82176   9.255   7.957  18.216 -0.0199  0.2000 -0.0413
39260W        W82177   7.387   9.925  18.912  0.0253 -0.0140 -0.1458
39261W        W82178  10.705   9.029  16.902 -0.0814  0.1695 -0.1933
39262W        W82179   8.908   7.989  18.987  0.0099 -0.0430 -0.0167
39263W        W82180   8.315   9.437  22.249 -0.2412 -0.3884 -0.2208
39264W        W82181   9.905   6.315  18.606 -0.0528 -0.0205  0.0939
39265W        W82182  11.181  11.795  15.663  0.2454 -0.4844 -0.0577
39266W        W82183  10.345   7.566  18.407  0.0349  0.0066 -0.1417
39267W        W82184   8.278   9.046  16.416 -0.1049  0.2181 -0.0574
39268W        W82185   6.610   7.344  17.678 -0.2690 -0.0317 -0.1963
39269W        W82186  10.463   7.081  16.679  0.0554  0.2741 -0.2806
39270W        W82187   7.633   7.456  17.770  0.0689 -0.2157  0.2177
39271W        W82188   7.718   9.274  17.336 -0.1363 -0.0397  0.2155
39272W        W82189   6.816  10.038  17.408 -0.0674 -0.1276  0.0623
39273W        W82190   6.985  12.399  17.837  0.1260 -0.0261 -0.1484
39274W        W82191  10.861   7.844  17.225  0.0430 -0.3002 -0.1167
39275W        W82192  11.062  10.056  15.552 -0.0944  0.1531  0.2436
39276W        W82193  10.355   9.234  17.553 -0.0615  0.1212 -0.3993
39277W        W82194  11.892   6.391  19.624 -0.1693  0.2768  0.0768
39278W        W82195   9.525   9.453  16.079 -0.2641  0.3144 -0.1008
39279W        W82196  10.365   6.513  19.388  0.4511 -0.0543  0.0706
39280W        W82197   8.826   7.576  19.550  0.2853 -0.1544 -0.0288
39281W        W82198   8.810   9.619  17.685 -0.3669 -0.0846  0.0406
39282W        W82199   7.010   8.031  19.284 -0.2027 -0.1847  0.0100
39283W        W82200   8.571  11.992  21.546 -0.1281  0.1607  0.0806
39284W        W82201   8.735   7.389  18.661  0.0634 -0.1341  0.0273
39285W        W82202   9.926   8.071  17.838  0.1757  0.0926  0.0447
39286W        W82203   7.995   6.159  16.553  0.0509 -0.1431  0.1194
39287W        W82204   9.192   8.154  19.616 -0.1043  0.1679 -0.0611
39288W        W82205  10.800   8.951  18.626  0.0303 -0.1373  0.2498
39289W        W82206   8.428   9.093  18.356  0.1153 -0.1059 -0.1002
39290W        W82207   8.103  10.493  19.011 -0.2047  0.1374 -0.3409
39291W        W82208   7.436   8.650  18.231 -0.0209  0.0491 -0.0546
39292W        W82209   9.613   8.444  16.254  0.1761  0.0882  0.0142
39293W        W82210   9.870   8.626  15.769  0.0999  0.0071  0.0124
39294W        W82211   6.852   7.839  17.762  0.0393  0.2855 -0.0957
39295W        W82212   6.373   7.409  19.675  0.2141 -0.2242 -0.0712
39296W        W82213   8.685   8.759  16.144  0.1281 -0.0231  0.3008
39297W        W82214  10.620   8.406  19.401 -0.1063  0.5116 -0.3139
39298W        W82215  10.077   7.289  19.012 -0.2488  0.2561  0.2317
39299W        W82216   9.046   8.512  18.916 -0.0721  0.1752  0.0658
39300W        W82217  10.510   6.923  19.833 -0.0626  0.0217 -0.2151
39301W        W82218   8.028   8.914  19.811 -0.1789 -0.0033  0.0627
39302W        W82219  12.751   9.612  19.083  0.1944  0.3952 -0.0540
39303W        W82220  10.582   7.707  16.337 -0.1438 -0.1712 -0.5374
39304W        W82221  10.711   6.676  18.752 -0.0101  0.1650  0.1023
39305W        W82222  10.213   9.034  15.120 -0.1326 -0.0433  0.1386
39306W        W82223   9.650   8.990  16.024  0.0387  0.1201  0.1506
39307W        W82224   7.427   8.005  16.599 -0.1299 -0.0954  0.1824
39308W        W82225   9.521   8.985  19.874 -0.3430 -0.2022 -0.0810
39309W        W82226   7.804   8.314  17.802 -0.0808  0.2808  0.2902
39310W        W82227  11.235   9.721  18.535 -0.3120  0.0115  0.2151
39311W        W82228   9.132  10.862  16.031 -0.2691  0.2646 -0.1441
39312W        W82229   8.906  10.905  18.424 -0.2820  0.0162 -0.0844
39313W        W82230  10.016   8.282  17.297  0.1454  0.1697 -0.3736
39314W        W82231   9.023   8.351  18.423 -0.0251 -0.5403  0.2770
39315W        W82232   8.112   9.359  22.668 -0.2484 -0.0793 -0.6633
39316W        W82233   8.590   6.983  16.565  0.2358 -0.3156 -0.0870
39317W        W82234   9.913   9.043  15.501 -0.0158  0.0091 -0.1395
39318W        W82235   9.525   7.181  19.031 -0.2607 -0.0337  0.1420
39319W        W82236   7.233  12.357  20.193  0.0717  0.0096  0.0149
39320W        W82237  10.474   8.110  18.547 -0.1428  0.3368 -0.2708
39321W        W82238  10.550   6.485  20.351  0.0597  0.0615  0.2604
39322W        W82239   8.358   9.899  16.903  0.3007  0.1554 -0.0464
39323W        W82240   7.316   8.878  17.142  0.3660 -0.1444  0.0122
39324W        W82241   8.229   9.212  21.241  0.3075 -0.1146 -0.0510
39325W        W82242   7.706   9.829  19.371 -0.0324  0.1293  0.1366
39326W        W82243   8.782   9.797  16.296 -0.1376  0.2353 -0.1356
39327W        W82244   8.653   8.239  17.055  0.0211 -0.0123 -0.0042
39328W        W82245   9.416  10.133  17.467 -0.0337 -0.2372  0.0721
39329W        W82246   9.535   9.594  16.608  0.1108 -0.2909  0.1508
39330W        W82247  10.816   7.240  21.003  0.0880  0.2042  0.0058
39331W        W82248   7.812   9.076  19.111  0.0221 -0.1719  0.3188
39332W        W82249   7.737   9.369  18.102  0.0934  0.0048 -0.1036
39333W        W82250   9.613   9.352  17.466  0.0073  0.0021  0.0214
39334W        W82251  10.466   7.938  17.762 -0.0570 -0.1072 -0.1730
39335W        W82252   6.498  11.427  16.737 -0.0194 -0.2068  0.1103
39336W        W82253   8.030   9.422  20.532  0.1220 -0.1398 -0.3028
39337W        W82254   8.849   7.671  17.809  0.2458  0.1013 -0.0177
39338W        W82255   8.229   8.246  16.715 -0.2045 -0.1074 -0.0063
39339W        W82256   8.247   7.188  16.067  0.1647  0.0833  0.0035
39340W        W82257   8.676  10.897  16.124  0.1641  0.0995 -0.0060
39341W        W82258   6.557   7.909  19.629  0.0462  0.0282  0.0832
39342W        W82259   8.212  10.117  19.413  0.0729  0.0217  0.1345
39343W        W82260   7.166  10.970  17.244  0.0161  0.2944  0.1283
39344W        W82261  12.015   9.335  16.652  0.0541  0.1167 -0.1594
39345W        W82262  10.327   8.486  17.664 -0.0557 -0.2013  0.2492
39346W        W82263   9.414  10.099  18.102 -0.2327 -0.0749  0.1937
39347W        W82264   7.827   9.010  16.842 -0.2566  0.0475 -0.0107
39348W        W82265   6.900  11.657  19.635 -0.1997  0.2454 -0.1430
39349W        W82266   7.499   9.906  17.219  0.1157 -0.0797  0.2305
39350W        W82267  10.863   9.350  16.393  0.0151  0.1199 -0.0770
39351W        W82268   7.509  11.867  17.494 -0.0310 -0.2223  0.1137
39352W        W82269  10.920  10.623  18.928  0.0675 -0.3742 -0.0434
39353W        W82270   8.609   7.515  16.228 -0.0499 -0.2905  0.1813
39354W        W82271  10.126   7.812  18.767 -0.1930 -0.1136 -0.1450
39355W        W82272  11.049   8.631  16.011  0.1116 -0.2413 -0.0415
39356W        W82273   8.614  12.398  19.548 -0.1648 -0.0090 -0.1549
39357W        W82274   8.614   8.052  17.600  0.1714  0.0934  0.0615
39358W        W82275   7.981   6.470  17.036 -0.0361 -0.2462 -0.3377
39359W        W82276  10.098   7.744  19.339 -0.1153 -0.0448 -0.0516
39360W        W82277  11.085   6.609  19.057  0.1733 -0.0259 -0.0001
39361W        W82278   7.285  10.554  19.144  0.0517  0.1265  0.1998
39362W        W82279   8.954   8.706  17.008 -0.3129  0.0229  0.4934
39363W        W82280   8.462   8.112  18.865  0.3144 -0.0811 -0.1214
39364W        W82281  10.236   6.914  17.574 -0.1300 -0.1958  0.1264
39365W        W82282  12.542   6.164  17.857  0.0189  0.0142  0.0538
39366W        W82283   7.883  10.637  16.080  0.0076  0.1767  0.1328
39367W        W82284   9.025  10.064  17.759  0.1053 -0.0879  0.1389
39368W        W82285   7.908  10.335  16.451  0.0899 -0.2586 -0.1687
39369W        W82286   7.835   9.319  16.431  0.2527 -0.0598  0.0511
39370W        W82287   7.106  11.501  16.653 -0.3664  0.1939 -0.1822
39371W        W82288   9.830   6.861  18.786  0.0387 -0.0268  0.1897
39372W        W82289   9.331   7.710  17.006 -0.0992 -0.2065 -0.0411
39373W        W82290   9.004   7.139  19.016  0.1366 -0.3447  0.2011
39374W        W82291  13.089   5.561  17.653 -0.0134 -0.1970 -0.1133
39375W        W82292   7.536   9.517  16.924  0.2648  0.1329  0.1828
39376W        W82293   9.577   8.939  17.029 -0.1170 -0.0177 -0.3398
39377W        W82294   9.443  10.191  19.808 -0.0020  0.3367  0.1207
39378W        W82295   9.008   8.594  19.439 -0.1346  0.0591  0.0914
39379W        W82296   9.010   8.434  16.611 -0.1120 -0.1691 -0.0277
39380W        W82297   9.794   9.524  18.837 -0.2730 -0.1651 -0.0875
39381W        W82298   8.531   7.237  15.652  0.0222  0.1629 -0.2182
39382W        W82299  11.986   6.324  20.249 -0.0228 -0.1697 -0.2665
39383W        W82300   9.484   6.622  18.422  0.0679 -0.2201 -0.2385
39384W        W82301  10.869  10.329  16.497  0.1070 -0.2224 -0.0163
39385W        W82302   7.297   8.385  17.833 -0.0403  0.0738 -0.0295
39386W        W82303   8.965   6.410  20.584 -0.1200  0.1820 -0.0078
39387W        W82304   9.336  10.053  20.299 -0.0858  0.0810 -0.0408
39388W        W82305   9.166   6.329  17.593 -0.1557 -0.4439 -0.0023
39389W        W82306  10.920  10.595  16.960 -0.1449 -0.2942  0.2975
39390W        W82307  10.173   9.334  20.333  0.2138 -0.2249  0.2446
39391W        W82308   9.018  10.350  17.231  0.2229  0.4651 -0.1003
39392W        W82309  10.369   9.650  16.231  0.3327 -0.0183  0.0045
39393W        W82310   9.265   8.620  17.873  0.1390 -0.0761 -0.0407
39394W        W82311   7.637   8.817  19.494 -0.1156  0.2581  0.2310
39395W        W82312  10.056  10.148  19.168  0.1694 -0.1827  0.4765
39396W        W82313   9.693   9.788  17.166  0.0816 -0.0814  0.1110
39397W        W82314   9.289   9.995  16.910  0.0760 -0.1890 -0.1006
39398W        W82315   8.937   8.997  16.553 -0.1342 -0.0951 -0.1098
39399W        W82316   6.942  11.167  18.341  0.1167  0.2439 -0.0482
39400W        W82317  10.463   9.797  17.574  0.0272 -0.1694 -0.1348
39401W        W82318  10.485   6.925  19.068 -0.2799  0.2262 -0.5360
39402W        W82319   8.335   9.891  17.629  0.0344 -0.2081 -0.0060
39403W        W82320   9.318   6.403  19.493 -0.1748 -0.0187  0.0607
39404W        W82321   7.727  12.376  17.921  0.4688  0.0323  0.1517
39405W        W82322   8.531   9.392  20.600  0.1623 -0.0579 -0.0669
39406W        W82323   9.079   7.811  16.595  0.0818  0.0008  0.1039
39407W        W82324   7.747  10.619  20.954  0.1608  0.1097 -0.0236
39408W        W82325   8.493   7.372  17.043 -0.1375  0.2848 -0.1431
39409W        W82326   6.949  12.225  18.748 -0.1165  0.2748  0.0300
39410W        W82327   8.760   8.934  19.174  0.1686  0.2500  0.0291
39411W        W82328   9.537   8.543  17.280  0.0997  0.0457 -0.1395
39412W        W82329  12.858  12.052  17.010  0.0081  0.4943 -0.1519
39413W        W82330   8.226   7.358  16.594 -0.1516 -0.0140  0.0696
39414W        W82331   9.888   6.963  16.994 -0.0455  0.0846  0.0672
39415W        W82332   9.896   5.919  17.150 -0.1207  0.2449  0.1036
39416W        W82333   9.740   5.344  18.631 -0.0606  0.0636  0.0428
39417W        W82334   7.437   7.834  16.003  0.2469  0.1800  0.4945
39418W        W82335   7.874   9.932  16.816  0.2063 -0.0551  0.0842
39419W        W82336   9.649   9.072  17.885  0.1019  0.0127 -0.0936
39420W        W82337   8.879   8.124  18.005 -0.0266 -0.2233  0.0535
39421W        W82338   8.098   9.693  19.079 -0.2236  0.1846  0.2068
39422W        W82339   7.540  10.148  18.052  0.0780 -0.3629  0.1006
39423W        W82340   8.506   8.333  18.390 -0.2372  0.1237 -0.2011
39424W        W82341   9.827  10.804  16.648  0.2209 -0.1920 -0.1076
39425W        W82342   9.274   6.748  19.143  0.0162 -0.0112 -0.1872
39426W        W82343   7.211   5.986  19.503  0.0309 -0.1017 -0.1722
39427W        W82344   7.899  10.807  16.562 -0.0763 -0.0163 -0.2518
39428W        W82345   7.738  12.365  17.440 -0.3070  0.0790 -0.2870
39429W        W82346   8.671   7.217  17.719  0.2821  0.0862  0.0528
39430W        W82347  10.634  10.145  19.009 -0.3258  0.0734  0.0686
39431W        W82348   7.586   9.695  17.701  0.0484  0.0486 -0.1703
39432W        W82349   8.701   7.525  21.993 -0.0194  0.2569 -0.2257
39433W        W82350   8.580   5.388  21.009 -0.0870  0.1076 -0.1670
39434W        W82351   7.788   7.670  16.330 -0.5070  0.0809  0.0019
39435W        W82352   7.784   7.420  18.728  0.0218  0.1230  0.1527
39436W        W82353   8.227  12.214  17.886 -0.0402 -0.2320  0.4276
39437W        W82354  12.005  11.607  15.585 -0.2753  0.0623 -0.1182
39438W        W82355   7.515  10.912  19.553 -0.0114  0.0357 -0.0108
39439W        W82356   8.921  10.466  18.169 -0.0038  0.0421  0.3423
39440W        W82357   8.495   6.349  20.120 -0.2285  0.0019  0.0421
39441W        W82358  10.816   9.963  16.023  0.0694 -0.1440  0.1252
39442W        W82359   6.609  10.239  20.555 -0.0907 -0.4016  0.0489
39443W        W82360  10.376   9.916  15.775  0.1422 -0.2492 -0.5342
39444W        W82361  10.151   5.600  17.948  0.0067  0.4991  0.2139
39445W        W82362   8.323  10.302  17.350  0.2428  0.1182 -0.3301
39446W        W82363   7.665   6.088  19.073 -0.0130 -0.2368 -0.0615
39447W        W82364   8.413  10.139  18.922  0.0308  0.2185 -0.2858
39448W        W82365  12.312   8.050  18.974 -0.0427  0.0609 -0.2326
39449W        W82366   7.731   8.317  16.817 -0.1913 -0.1206  0.2171
39450W        W82367   9.929   8.820  16.591 -0.1929 -0.1223 -0.0640
39451W        W82368   9.425  10.771  17.317 -0.1334  0.0701  0.1174
39452W        W82369   9.342   8.801  18.361 -0.1035 -0.0878 -0.0346
39453W        W82370   8.957   9.541  15.834 -0.0513 -0.0202  0.1418
39454W        W82371   9.098   6.887  18.103 -0.2297 -0.1400 -0.3747
39455W        W82372  10.562  10.198  16.904  0.0450 -0.0458  0.0990
39456W        W82373   9.275  10.565  18.555  0.1422  0.1131 -0.0468
39457W        W82374   8.868  10.207  18.634  0.0683  0.1292  0.0875
39458W        W82375  11.538  11.597  15.332 -0.2016  0.3411 -0.0176
39459W        W82376   8.328  11.499  19.020  0.2023  0.2982  0.1402
39460W        W82377  10.364  10.146  16.350 -0.1444  0.2476  0.2340
39461W        W82378   8.868  10.845  19.255 -0.3512 -0.4836  0.2821
39462W        W82379   9.252   8.934  17.428  0.0591 -0.0566  0.2304
39463W        W82380   8.053   4.242  19.571  0.0797  0.1203 -0.0840
39464W        W82381   7.118   7.635  16.821  0.0543  0.2916 -0.0139
39465W        W82382   9.800   8.585  17.707  0.2529  0.1290 -0.1131
39466W        W82383  10.912   8.393  18.313  0.1172  0.0741 -0.0938
39467W        W82384   8.413   9.582  18.046  0.0795 -0.0772 -0.3036
39468W        W82385   9.753   6.795  17.463 -0.0117  0.2030 -0.0940
39469W        W82386   7.703   9.454  18.816 -0.0756 -0.2105  0.0089
39470W        W82387   9.115   9.210  16.980 -0.0055 -0.0972 -0.0064
39471W        W82388   8.580   9.957  21.344  0.0963 -0.0014  0.1313
39472W        W82389   8.295   7.716  22.781 -0.0254 -0.1917 -0.1596
39473W        W82390  10.871   7.994  19.042 -0.0291 -0.4352 -0.3394
39474W        W82391  13.238   7.714  19.696 -0.0245 -0.2385 -0.0479
39475W        W82392   6.670   6.762  20.803  0.3114  0.0583 -0.1855
39476W        W82393   8.318   9.821  20.379 -0.0180 -0.2219  0.2114
39477W        W82394   8.439   9.212  24.162  0.0147 -0.0467  0.2217
39478W        W82395   8.828  10.978  21.427 -0.1794 -0.1589  0.0397
39479W        W82396   9.571  10.864  21.128  0.1869  0.0421 -0.3030
39480W        W82397   8.522   8.502  21.188 -0.0218  0.1266 -0.0829
39481W        W82398   7.371   9.125  23.111  0.1234 -0.1934 -0.0588
39482W        W82399   6.862   9.886  24.563 -0.3533  0.2619  0.0633
39483W        W82400   8.724   5.103  20.676 -0.0407  0.1681  0.2834
39484W        W82401   7.183   7.854  22.088 -0.0911 -0.0880  0.0530
39485W        W82402  10.353   8.201  21.511 -0.2483 -0.1172 -0.1020
39486W        W82403   9.844   9.424  19.889 -0.0582 -0.0631 -0.2640
39487W        W82404   7.728   7.144  20.228  0.0600 -0.2458  0.1852
39488W        W82405   7.823   7.431  20.812  0.5404 -0.4388 -0.4080
39489W        W82406   7.999  12.423  20.787  0.0971 -0.0309  0.0119
39490W        W82407   8.241   7.636  21.448  0.0834  0.0492  0.2670
39491W        W82408  10.888   6.271  21.769 -0.0415 -0.0113  0.6098
39492W        W82409   8.298   7.606  20.889 -0.0174 -0.2583  0.2441
39493W        W82410   8.026   9.344  19.509 -0.0433 -0.1016  0.1242
39494W        W82411   5.844   7.225  20.661  0.4149 -0.0899 -0.0813
39495W        W82412   8.829  10.037  21.787  0.2329 -0.0047  0.0190
39496W        W82413   9.888   7.717  21.404 -0.0231 -0.2163 -0.3815
39497W        W82414   9.844   9.180  21.722 -0.2920  0.3581  0.2395
39498W        W82415   9.642   7.436  21.888 -0.0290 -0.1506  0.0965
39499W        W82416  10.378   9.594  21.232 -0.1697 -0.0400  0.3134
39500W        W82417   9.134   8.759  22.791  0.1479  0.1405  0.1127
39501W        W82418   6.955  12.856  21.352 -0.2341 -0.2921  0.2040
39502W        W82419   7.364  10.539  23.239 -0.2282 -0.1787 -0.3461
39503W        W82420   9.420  12.936  21.555  0.1692 -0.1480 -0.2843
39504W        W82421   9.059   9.827  21.302 -0.0971  0.2317 -0.0045
39505W        W82422   9.408   9.589  22.360  0.3687  0.5006 -0.0136
39506W        W82423   5.826   9.724  22.634 -0.1587 -0.0900 -0.0521
39507W        W82424   7.839   7.797  21.123  0.0210  0.2285 -0.1187
39508W        W82425   9.482  10.304  24.748  0.1064 -0.0779  0.0194
39509W        W82426   6.707   8.820  23.487  0.0116  0.1571 -0.1449
39510W        W82427   7.948   7.757  22.394  0.0965 -0.1511  0.1627
39511W        W82428   9.210   9.473  20.657  0.0795  0.3110  0.0007
39512W        W82429   8.085  11.583  20.396 -0.0244  0.1215  0.3913
39513W        W82430   9.457   8.662  22.419  0.0531 -0.2065  0.0159
39514W        W82431   8.602  10.304  24.110  0.0388  0.0172 -0.0756
39515W        W82432   6.162  12.041  21.828  0.0403  0.0890 -0.4492
39516W        W82433  10.598   6.326  23.687  0.5098 -0.1512 -0.1163
39517W        W82434   8.148  10.292  21.085  0.0258 -0.1472  0.2682
39518W        W82435   9.504   6.746  17.946 -0.0039 -0.0827  0.1343
39519W        W82436   9.240   9.083  18.812  0.0378 -0.0671  0.0040
39520W        W82437  11.071   8.479  19.089 -0.0108  0.0685 -0.1030
39521W        W82438   9.257   6.753  20.919  0.1652 -0.0380  0.0504
39522W        W82439   9.280  12.133  21.648 -0.1274 -0.2408 -0.1049
39523W        W82440   9.632   5.505  21.490 -0.3014  0.2158 -0.0274
39524W        W82441   8.674  10.867  22.300 -0.0968  0.4109 -0.0170
39525W        W82442   7.672   8.459  21.524  0.3237 -0.1442  0.1033
39526W        W82443   8.770   7.235  20.754  0.3392 -0.2521  0.0122
39527W        W82444   6.127   9.469  22.240  0.2038 -0.3200 -0.1103
39528W        W82445   8.621   8.939  21.399  0.1271  0.0996  0.2149
39529W        W82446   8.321   9.804  20.903  0.0966  0.2314 -0.2242
39530W        W82447   8.841  11.049  19.920  0.3689 -0.2665  0.0939
39531W        W82448   8.953   9.277  18.311 -0.0059  0.2496  0.2528
39532W        W82449   8.203   7.128  21.529  0.1273  0.3489 -0.0784
39533W        W82450   6.048   7.713  24.342  0.2019 -0.1724  0.2760
39534W        W82451   7.008   8.744  22.519  0.3059 -0.2731  0.1352
39535W        W82452   8.390   5.846  20.894 -0.0531  0.1266  0.4230
39536W        W82453  10.282  10.682  21.723 -0.0049 -0.1100 -0.1861
39537W        W82454   8.116  10.860  23.524 -0.0640 -0.0235  0.1277
39538W        W82455  10.668   7.441  20.550  0.1625  0.1864 -0.3861
39539W        W82456   8.102   9.429  23.608 -0.0264 -0.0603 -0.1312
39540W        W82457  10.451  10.305  21.345 -0.3172  0.1957  0.0842
39541W        W82458  10.819   9.416  17.441 -0.1314  0.0921  0.3598
39542W        W82459   9.868   7.027  22.284 -0.0893 -0.4388  0.0872
39543W        W82460  10.908   5.760  21.623  0.1851 -0.1385 -0.0229
39544W        W82461   8.571   9.113  19.761  0.0109  0.1803  0.2726
39545W        W82462   9.233   9.047  20.261 -0.1204  0.1930  0.0112
39546W        W82463   9.870   8.943  23.646  0.2475 -0.0496 -0.0795
39547W        W82464  11.780   6.983  18.765  0.2131  0.0760 -0.4491
39548W        W82465   6.517   9.111  22.418 -0.2151 -0.1150  0.0611
39549W        W82466  10.210   7.848  23.869  0.1143  0.0931  0.1382
39550W        W82467   8.608   9.551  23.762 -0.0958 -0.1350 -0.3703
39551W        W82468   9.002   9.516  21.684 -0.2773 -0.1659 -0.2624
39552W        W82469   6.113  11.702  21.324  0.1471  0.2370  0.2123
39553W        W82470   7.277   8.621  21.201 -0.2278 -0.0832 -0.0611
39554W        W82471   9.259   6.351  21.804 -0.2906  0.1191 -0.0411
39555W        W82472   7.657  11.544  21.264 -0.1773 -0.2395  0.2288
39556W        W82473  11.094   6.057  22.262 -0.2910  0.1741 -0.0953
39557W        W82474   7.411   7.548  22.456  0.2953  0.2943 -0.2348
39558W        W82475  10.570   7.068  18.427 -0.2457 -0.3114 -0.1645
39559W        W82476   6.762   8.551  21.095 -0.0520 -0.2859 -0.0079
39560W        W82477  11.418  12.107  19.054 -0.2677 -0.0348 -0.1274
39561W        W82478  10.075   8.616  19.051  0.0621 -0.0891  0.0367
39562W        W82479   9.729   8.952  18.738  0.1928 -0.0167  0.4206
39563W        W82480   5.633   8.377  21.549  0.2509  0.1093  0.0879
39564W        W82481   8.371   6.410  20.638  0.0248  0.0403 -0.3282
39565W        W82482   8.383   6.971  22.127 -0.1475 -0.1022  0.0719
39566W        W82483   8.292   6.546  21.766  0.0256  0.0296 -0.1578
39567W        W82484  11.130   8.966  22.216  0.1758 -0.1046 -0.1617
39568W        W82485   7.133   6.819  22.157  0.1232  0.0451  0.2033
39569W        W82486   7.085   9.597  20.616  0.0059  0.0223  0.2610
39570W        W82487   8.946   8.558  20.432  0.3330 -0.3657 -0.0323
39571W        W82488   7.599   8.933  21.311 -0.1398  0.2543  0.2009
39572W        W82489   9.386   8.294  19.186  0.0178  0.0096 -0.1367
39573W        W82490   8.200  10.804  20.693 -0.3922  0.1812  0.2054
39574W        W82491  10.186  10.080  22.144 -0.1076  0.0912 -0.3034
39575W        W82492   9.658  10.209  22.167 -0.0886  0.0638  0.0352
39576W        W82493   7.462   8.631  22.130  0.0690 -0.1642  0.0681
39577W        W82494   7.232   7.357  20.049 -0.1000 -0.1334 -0.0590
39578W        W82495   7.355  10.729  21.959 -0.1225 -0.2523  0.0274
39579W        W82496   7.863  11.154  22.140  0.0363  0.2071  0.4666
39580W        W82497   8.011   9.110  21.721  0.0949  0.1479  0.0630
39581W        W82498  10.455  11.540  20.508 -0.0704 -0.1956  0.0155
39582W        W82499   8.115  10.823  21.220 -0.1042 -0.3810  0.0935
39583W        W82500   7.703  10.524  21.508 -0.0418  0.3445  0.2493
39584W        W82501   9.302   7.062  23.466  0.2604 -0.0158  0.2728
39585W        W82502  11.364   8.080  22.363  0.2791 -0.0855 -0.2382
39586W        W82503   8.289   9.420  24.585  0.2184  0.1857  0.0262
39587W        W82504   8.158   9.783  19.804  0.0307  0.3190  0.0343
39588W        W82505   8.986  12.698  22.527 -0.0006 -0.0004  0.2174
39589W        W82506   5.320  12.603  20.904  0.1566  0.4628  0.0821
39590W        W82507   7.145  12.624  20.930 -0.0061  0.0084 -0.0815
39591W        W82508  10.540  11.997  21.640  0.2955 -0.0703 -0.2031
39592W        W82509   9.175   7.196  19.471 -0.1982 -0.2706  0.0641
39593W        W82510   6.622   6.875  22.718  0.0348  0.0039 -0.0797
39594W        W82511   8.675   9.119  22.478 -0.2287 -0.2308  0.3393
39595W        W82512   5.405   7.524  19.347 -0.2732 -0.0938  0.3511
39596W        W82513   7.525   9.096  23.629  0.1564  0.0169 -0.2109
39597W        W82514  10.247   6.548  18.922  0.0492 -0.2619 -0.1410
39598W        W82515  11.377   7.335  19.643  0.5521 -0.2668  0.1595
39599W        W82516   8.797   8.206  23.555 -0.1853  0.2049  0.1093
39600W        W82517  10.454   7.314  19.405 -0.1311  0.4563 -0.0429
39601W        W82518   7.978   8.590  20.708  0.3518 -0.0144 -0.1172
39602W        W82519  11.389   7.948  19.233  0.2572  0.2021  0.1160
39603W        W82520   6.405   8.491  23.752  0.0059 -0.1686  0.0050
39604W        W82521  10.115  12.092  21.266 -0.1406 -0.0578  0.0090
39605W        W82522   8.228   8.838  22.566  0.0624 -0.0882 -0.0987
39606W        W82523  10.067   9.645  20.838 -0.1052  0.0985  0.1630
39607W        W82524   8.847   8.263  19.958 -0.0821  0.1318 -0.0173
39608W        W82525   7.972   8.426  19.609 -0.2083  0.1448 -0.1835
39609W        W82526  10.041   9.246  22.742 -0.0371 -0.1762 -0.0121
39610W        W82527   9.156   8.384  20.816 -0.0124  0.3725 -0.3124
39611W        W82528   9.585   7.953  21.826 -0.1806  0.2381 -0.0009
39612W        W82529   7.053   8.808  19.585  0.0143 -0.2945 -0.0155
39613W        W82530  10.598   6.461  20.928 -0.2798  0.0412 -0.0212
39614W        W82531   7.454  11.876  19.281 -0.0374 -0.2913 -0.0182
39615W        W82532  10.344   7.581  22.539 -0.1445  0.1290 -0.1603
39616W        W82533  11.248   5.421  22.468  0.0235 -0.3292  0.0121
39617W        W82534   9.981   7.933  20.623  0.2613 -0.0809  0.1536
39618W        W82535  10.890   7.441  23.227  0.1361  0.0268 -0.0745
39619W        W82536   9.376   9.542  20.170 -0.0183 -0.2789 -0.0411
39620W        W82537   8.828   7.106  22.262 -0.1832  0.0014 -0.3365
39621W        W82538   9.496   8.641  20.593 -0.1799 -0.2071 -0.1284
39622W        W82539   9.064   9.355  22.724 -0.0293 -0.2076 -0.2558
39623W        W82540   7.973   8.138  22.075 -0.0945  0.3257  0.1535
39624W        W82541   7.256  10.240  22.242 -0.1277  0.0530  0.0036
39625W        W82542   9.134   8.612  23.665  0.1186 -0.2357  0.0253
39626W        W82543   8.508   7.961  21.185 -0.1822 -0.0473 -0.0322
39627W        W82544   8.428   6.851  24.348  0.0061 -0.2297  0.1972
39628W        W82545   8.970   7.956  21.760  0.2401  0.2195 -0.0907
39629W        W82546   6.890  11.995  20.189  0.0937  0.0639 -0.0648
39630W        W82547   9.549   9.724  21.029 -0.3423 -0.0809  0.0290
39631W        W82548   8.554   6.573  22.397 -0.1114  0.1163  0.1900
39632W        W82549   9.288  11.563  22.278 -0.1738  0.2625  0.1312
39633W        W82550   8.416   8.094  21.692  0.2373  0.0359  0.0107
39634W        W82551  12.253   9.130  20.879  0.1141  0.0280  0.1902
39635W        W82552   7.170  12.659  21.777 -0.0888  0.2443  0.0468
39636W        W82553  12.174   5.700  21.453  0.1098  0.1704 -0.0427
39637W        W82554   6.626   9.519  22.048 -0.1412 -0.0244 -0.0766
39638W        W82555   9.160   8.267  22.649  0.0701 -0.3137 -0.1518
39639W        W82556   7.846   9.088  20.889 -0.2342 -0.1621  0.3091
39640W        W82557   8.648   9.030  20.230 -0.5287 -0.0572 -0.0487
39641W        W82558  10.059   8.735  21.426 -0.3976  0.0179  0.0989
39642W        W82559   7.770   7.249  22.317  0.0190 -0.2366  0.0092
39643W        W82560  10.770   6.600  21.354  0.1799 -0.3087 -0.5289
39644W        W82561   7.942  11.204  20.759 -0.2391  0.2064 -0.1027
39645W        W82562  10.004   7.570  23.561 -0.0042 -0.0226  0.1340
39646W        W82563   8.637   6.876  21.560 -0.1105 -0.0158 -0.0137
39647W        W82564   8.861   8.458  21.719  0.2958  0.0101  0.0909
39648W        W82565   8.746   7.429  23.026  0.3914  0.2006 -0.2331
39649W        W82566   6.366   8.221  20.008  0.4213  0.2142 -0.1271
39650W        W82567   9.375   8.790  23.296  0.1837  0.1637 -0.1125
39651W        W82568   7.818   9.545  20.973 -0.0162 -0.2246 -0.0639
39652W        W82569   9.210  10.024  22.097 -0.2173  0.0592 -0.2463
39653W        W82570   9.794  11.529  22.092 -0.4577  0.2205 -0.0323
39654W        W82571  10.067   7.118  19.833 -0.5306  0.0338  0.0501
39655W        W82572   7.877  10.048  20.266 -0.4114  0.2418 -0.0090
39656W        W82573   9.973   6.904  23.541  0.1054 -0.2063  0.1563
39657W        W82574  11.056   8.757  25.172 -0.1265  0.0306  0.0852
39658W        W82575   9.576   6.992  22.834 -0.0347 -0.1345 -0.0048
39659W        W82576   7.383   7.203  21.065 -0.0983  0.0503 -0.1582
39660W        W82577   9.519  10.058  19.116 -0.1215 -0.3971  0.0511
39661W        W82578   9.552   8.846  21.902  0.0867  0.0424  0.2583
39662W        W82579   8.920   8.967  20.689 -0.1732  0.4184 -0.1632
39663W        W82580   9.782  10.457  23.940  0.0357 -0.0501 -0.1134
39664W        W82581   8.541   6.438  23.608  0.0222 -0.0397  0.3053
39665W        W82582   9.115  10.679  21.105  0.1263  0.2371 -0.0039
39666W        W82583   9.547   9.061  22.829  0.0942  0.1937  0.2613
39667W        W82584   8.227   8.125  20.816  0.1878  0.2221 -0.0210
39668W        W82585   6.022   8.101  21.781 -0.0991 -0.2566 -0.0297
39669W        W82586   8.015  10.771  21.889  0.0526  0.1291 -0.1604
39670W        W82587   8.636   8.606  22.681 -0.0607  0.3759 -0.0029
39671W        W82588   7.475   8.803  20.664  0.1829 -0.1779  0.3715
39672W        W82589   5.838  10.335  19.426 -0.1629  0.1916 -0.2622
39673W        W82590   9.074   9.892  22.656 -0.0203  0.0409  0.1327
39674W        W82591   9.990   8.417  20.614 -0.0835  0.2241 -0.1202
39675W        W82592   8.354  10.445  21.540  0.0212  0.3224  0.0763
39676W        W82593   8.840   8.688  22.222  0.0111 -0.0588  0.0313
39677W        W82594  10.112   6.558  21.190  0.2321  0.3186 -0.0703
39678W        W82595  10.660   9.710  20.252 -0.1049  0.3370  0.0715
39679W        W82596   7.855   8.229  24.093 -0.2482  0.0642 -0.1481
39680W        W82597   9.966   6.334  23.121  0.0807  0.3517  0.1389
39681W        W82598  10.564   9.744  20.745 -0.2324 -0.0746 -0.0115
39682W        W82599   9.117   7.376  21.796 -0.0612 -0.0474 -0.1362
39683W        W82600  10.857  10.376  23.274  0.4114 -0.1993  0.0289
39684W        W82601   7.028   9.402  24.772  0.2674  0.0466 -0.0566
39685W        W82602  10.376   7.097  21.226  0.3062  0.1655  0.0730
39686W        W82603   6.583   8.266  20.666  0.0555 -0.0728  0.2775
39687W        W82604   9.272   9.978  23.208  0.1004  0.0848  0.1446
39688W        W82605  12.362   8.271  20.422 -0.3269  0.2618 -0.2537
39689W        W82606  11.368  10.521  20.550  0.1343  0.1770  0.0874
39690W        W82607  10.239   6.150  20.248 -0.0725  0.3706 -0.0781
39691W        W82608   8.004   7.984  20.004 -0.2605 -0.1892  0.2314
39692W        W82609   9.607   7.909  19.537 -0.1519 -0.1908  0.1965
39693W        W82610   8.838  10.458  21.446  0.2113  0.0507  0.1141
39694W        W82611   7.245  11.591  20.656  0.1523  0.0156 -0.1948
39695W        W82612   7.704   9.056  20.223  0.1178  0.2797  0.1822
39696W        W82613   9.571   8.098  21.001  0.0970 -0.2373 -0.1587
39697W        W82614  10.338   8.782  20.346  0.3750  0.2046 -0.0889
39698W        W82615   8.693   8.093  22.731  0.0596  0.1283  0.1607
39699W        W82616  10.028  10.197  21.704 -0.0348 -0.1075 -0.1405
39700W        W82617   8.951   9.561  22.173 -0.1975  0.0593 -0.0125
39701W        W82618   9.243   7.415  22.972  0.0788  0.1246  0.1144
39702W        W82619   9.648  10.884  24.116  0.1600 -0.0098  0.0977
39703W        W82620  11.714   8.152  18.189 -0.0745  0.2046 -0.2102
39704W        W82621  10.800   7.181  24.016  0.2075  0.2082  0.0776
39705W        W82622   9.111   9.273  19.852  0.1122  0.0887 -0.3017
39706W        W82623   8.600   7.599  19.071 -0.1631 -0.0881  0.2811
39707W        W82624   7.880   9.028  22.242 -0.0413  0.1580  0.0287
39708W        W82625   8.942  10.343  24.466  0.0378  0.0845 -0.3130
39709W        W82626   8.164   7.736  18.986  0.2111 -0.0235  0.0154
39710W        W82627   9.214   7.809  20.774 -0.4393 -0.0019 -0.1623
39711W        W82628   9.444   9.567  19.621 -0.1669 -0.2239 -0.4699
39712W        W82629   9.037   8.784  21.175  0.0547 -0.0963 -0.3136
39713W        W82630  10.512   5.525  23.193  0.0791 -0.1163  0.1223
39714W        W82631   6.179   6.919  20.900  0.0911 -0.3513  0.2452
39715W        W82632   8.236  10.410  23.197 -0.0826 -0.3605  0.0441
39716W        W82633   7.842   6.630  21.513 -0.2267  0.2883  0.1193
39717W        W82634   9.398   9.347  21.928  0.2933  0.2247  0.0818
39718W        W82635   9.691   9.528  20.522 -0.2547 -0.0909 -0.0394
39719W        W82636  10.106   7.866  22.070 -0.2014 -0.2279 -0.1082
39720W        W82637   9.186   7.590  18.734  0.3021 -0.0404  0.1083
39721W        W82638   9.980   8.770  22.602  0.1502  0.1981  0.1697
39722W        W82639   7.604   9.759  18.420 -0.1137  0.2463 -0.0815
39723W        W82640  10.312   8.707  23.602  0.1233 -0.1649 -0.2347
39724W        W82641   7.061  10.733  21.567 -0.1380 -0.1375 -0.2925
39725W        W82642   5.748   8.721  23.027  0.3092  0.1777  0.1511
39726W        W82643   9.060   9.807  19.866 -0.2831  0.1159 -0.1382
39727W        W82644  10.799   7.424  25.212 -0.0908 -0.0723  0.0363
39728W        W82645   8.515   7.161  21.145 -0.1245  0.2926 -0.1378
39729W        W82646   9.131   9.024  22.259 -0.2263  0.1615  0.2496
39730W        W82647  11.743   8.272  20.622  0.0602 -0.2730  0.0975
39731W        W82648   8.313   8.782  23.113  0.1339  0.0255  0.0568
39732W        W82649   7.899   7.368  22.814 -0.1238 -0.1754 -0.1331
39733W        W82650  10.377  11.309  23.502 -0.3197 -0.0119  0.3319
39734W        W82651   9.012   8.152  21.224 -0.0536  0.0441 -0.1018
39735W        W82652   7.478  11.067  20.538  0.2506 -0.0231 -0.1485
39736W        W82653   5.990   7.415  21.094 -0.0852  0.2201  0.2269
39737W        W82654   7.980  10.527  25.117 -0.2732 -0.0550  0.1294
39738W        W82655   8.995   9.919  24.211 -0.0781 -0.2485  0.2042
39739W        W82656   8.834   7.180  19.927  0.2597  0.3130  0.0480
39740W        W82657   8.856   9.520  20.253  0.3068 -0.0051 -0.0958
39741W        W82658   6.249   9.399  22.936  0.0130 -0.2645 -0.2156
39742W        W82659   6.663   8.627  22.111 -0.0622  0.2119 -0.0622
39743W        W82660   9.146  11.760  21.262 -0.1474 -0.1331 -0.0797
39744W        W82661   9.180  11.485  19.187 -0.0127 -0.2347  0.2753
39745W        W82662   9.485  10.339  21.347  0.0448 -0.0209  0.1130
39746W        W82663   9.737  13.592  22.235 -0.3991  0.2137  0.0166
39747W        W82664   8.432   8.626  21.678  0.3885 -0.0486 -0.0494
39748W        W82665   8.809  11.020  20.689  0.0590  0.0771 -0.1682
39749W        W82666   6.277   9.601  19.473 -0.2324  0.0900  0.0067
39750W        W82667   9.466   9.468  21.449 -0.2317  0.0091 -0.0877
39751W        W82668   6.445  11.334  22.487  0.0130 -0.2411 -0.0604
39752W        W82669   9.947   8.234  22.519 -0.2208  0.0368 -0.1912
39753W        W82670  12.355   7.610  17.260 -0.2302 -0.2102  0.0928
39754W        W82671  10.309   9.206  21.524  0.0791  0.2428 -0.0380
39755W        W82672   9.860   8.150  19.101 -0.3387  0.0634 -0.0997
39756W        W82673   8.029  11.900  23.309 -0.0155 -0.0731  0.0292
39757W        W82674   6.994   8.498  20.443 -0.0901  0.2746 -0.0307
39758W        W82675  10.699   6.059  21.225  0.1093  0.2086 -0.0459
39759W        W82676   6.973   7.424  23.328  0.1863 -0.3604 -0.2160
39760W        W82677  10.764   5.903  23.502  0.1676 -0.1319  0.2796
39761W        W82678   8.989  11.319  25.521  0.1940  0.0807  0.0530
39762W        W82679   9.685  10.065  20.614  0.0554 -0.0411 -0.0897
39763W        W82680   7.015   7.320  21.948 -0.2124  0.3561 -0.0406
39764W        W82681   7.605   9.838  21.680 -0.2337  0.1052 -0.0763
39765W        W82682   9.753   6.547  21.516 -0.0762  0.1517  0.2186
39766W        W82683   9.513   8.536  19.642 -0.1252 -0.0942 -0.0332
39767W        W82684  10.089   8.182  21.068 -0.0631 -0.0065 -0.1730
39768W        W82685   8.300  12.052  20.674 -0.1430  0.0424 -0.0675
39769W        W82686   8.715  10.387  22.431 -0.0833 -0.0780  0.1279
39770W        W82687   7.709  11.525  22.382  0.1719 -0.0030  0.1970
39771W        W82688   7.044   7.936  19.832  0.1813  0.1860 -0.3256
39772W        W82689  12.478   6.259  20.474  0.1768 -0.2629 -0.0298
39773W        W82690   7.981   8.412  24.566  0.1292 -0.0620  0.0485
39774W        W82691  10.218   7.665  24.795  0.0954 -0.4708 -0.1235
39775W        W82692   6.200   8.405  18.868 -0.1326 -0.0674  0.0764
39776W        W82693  12.450   9.140  19.893  0.1312  0.3754  0.1765
39777W        W82694   9.072   8.426  23.129  0.3905  0.3166 -0.1581
39778W        W82695   7.474   8.469  22.653 -0.1081  0.1214 -0.1338
39779W        W82696   8.658   9.433  21.147  0.0388  0.0535 -0.1688
39780W        W82697  11.270   9.197  22.653  0.1033  0.1295  0.1829
39781W        W82698  10.822  10.162  17.913 -0.1528  0.2674 -0.1562
39782W        W82699   8.664  11.745  22.772  0.1931  0.3569 -0.1894
39783W        W82700   9.421   6.131  22.257 -0.1036 -0.3310 -0.2216
39784W        W82701   8.726   5.897  21.387 -0.2617  0.1749 -0.0041
39785W        W82702   6.904   8.971  21.340 -0.0844  0.1094 -0.2685
39786W        W82703   7.773  10.112  22.594 -0.4870  0.0893  0.1038
39787W        W82704   9.847   9.117  22.289 -0.0268 -0.0397 -0.2005
39788W        W82705   7.553   7.900  20.625 -0.0708  0.0810 -0.3646
39789W        W82706   7.580   8.359  20.920 -0.2424 -0.0002  0.3239
39790W        W82707  10.870   9.926  21.150 -0.0100 -0.1157 -0.1963
39791W        W82708   6.762  11.858  21.879 -0.1069 -0.1563 -0.0993
39792W        W82709   9.946  10.088  21.213 -0.2032 -0.1157  0.0728
39793W        W82710  10.406  11.674  21.273  0.0120 -0.0396 -0.2877
39794W        W82711   9.834   7.581  20.933  0.0906  0.1359  0.0224
39795W        W82712   8.827   9.745  20.764  0.0424 -0.1440  0.1094
39796W        W82713  10.117  10.621  22.171  0.1179  0.0028 -0.0466
39797W        W82714  10.066   6.224  21.963 -0.0371  0.2235 -0.1014
39798W        W82715   7.369   7.397  22.936 -0.1424  0.1463 -0.1435
39799W        W82716   6.493  11.693  22.976  0.3676 -0.0570  0.0518
39800W        W82717  11.501   7.979  20.264 -0.0282  0.1361 -0.3127
39801W        W82718  10.107   6.455  23.634 -0.0641 -0.0478  0.0112
39802W        W82719  10.073   9.100  19.021 -0.0128 -0.2276 -0.0878
39803W        W82720  10.420   7.200  23.442  0.0944  0.1223 -0.0724
39804W        W82721   8.443   8.438  22.141 -0.1137  0.1249  0.0016
39805W        W82722   6.914  11.875  20.997 -0.1217  0.1626 -0.0718
39806W        W82723   6.227   8.268  19.394  0.0935 -0.1177 -0.1167
39807W        W82724   7.801   9.481  22.036 -0.0597 -0.1344 -0.1203
39808W        W82725   7.373   9.760  20.950 -0.0412  0.0506  0.1650
39809W        W82726   9.265  11.004  18.887 -0.1125 -0.0035 -0.1322
39810W        W82727   9.353  10.930  21.604  0.0072 -0.1479 -0.0452
39811W        W82728  10.186   7.360  22.139 -0.1149  0.2277 -0.0579
39812W        W82729   9.363   8.415  21.501  0.0544  0.1614  0.1291
39813W        W82730   8.710   6.900  20.400  0.2189 -0.2645  0.3382
39814W        W82731  11.053   8.181  19.512  0.1095  0.0658  0.1884
39815W        W82732  11.277   6.382  18.515 -0.1303  0.3737 -0.1731
39816W        W82733   7.448   9.291  22.373  0.0165  0.0520  0.0433
39817W        W82734   7.144   7.711  20.480  0.1095 -0.3807  0.0299
39818W        W82735   8.279  11.165  18.617 -0.1810  0.2663 -0.3501
39819W        W82736   8.361   8.940  22.115 -0.1443  0.2492 -0.0452
39820W        W82737   8.125   7.904  23.711 -0.1840 -0.1979 -0.0296
39821W        W82738   8.197  10.954  23.016  0.0734 -0.0773 -0.0237
39822W        W82739   7.881   6.982  21.171  0.1641 -0.0662  0.0278
39823W        W82740   9.074   8.108  20.342  0.0647  0.1589 -0.6465
39824W        W82741   8.062   8.734  21.266 -0.1953  0.2175  0.1367
39825W        W82742   8.413   7.981  22.262  0.0783 -0.2517  0.2430
39826W        W82743   8.488   5.481  20.509 -0.1802 -0.0524  0.0092
39827W        W82744   9.193   9.073  19.388  0.3487  0.1566  0.0953
39828W        W82745  10.707   8.726  22.062  0.2308 -0.0748 -0.2479
39829W        W82746   8.945   5.681  20.883  0.2909 -0.1199  0.2357
39830W        W82747   7.733  10.338  21.993  0.1108 -0.0560 -0.1182
39831W        W82748   8.515   7.041  22.607 -0.1059  0.2983  0.0725
39832W        W82749   9.576   8.452  25.618 -0.2188 -0.2749  0.2688
39833W        W82750   8.272   7.517  24.043  0.2237 -0.1421  0.0573
39834W        W82751   9.425   7.973  20.057 -0.3103 -0.1668  0.0111
39835W        W82752   7.991   7.400  21.892 -0.1511 -0.0072 -0.0641
39836W        W82753   9.300   8.520  20.105  0.2798 -0.4497 -0.0326
39837W        W82754   9.509  10.579  18.079 -0.1068 -0.4301  0.0532
39838W        W82755  11.126   9.391  23.976  0.2470  0.0119 -0.0695
39839W        W82756   6.600  12.231  24.298 -0.1444  0.2758 -0.1048
39840W        W82757   8.856   7.205  23.919 -0.0726  0.2533  0.0299
39841W        W82758   9.891   9.258  21.197 -0.2523 -0.0076  0.2101
39842W        W82759   8.708   9.214  21.931 -0.0871  0.3051 -0.1586
39843W        W82760  10.788  10.262  20.811 -0.0438  0.0621 -0.5367
39844W        W82761  11.102   5.914  20.694 -0.5309  0.0629  0.4031
39845W        W82762   9.715  10.697  22.489  0.0915 -0.1598 -0.5124
39846W        W82763   7.462   8.220  21.876  0.0303 -0.0753 -0.0230
39847W        W82764   9.604  10.164  22.671  0.1532  0.0451  0.3275
39848W        W82765  10.567   9.119  20.716 -0.2626  0.1089  0.0921
39849W        W82766   8.527   8.578  19.642  0.0122 -0.0233 -0.1202
39850W        W82767  10.367   8.132  19.047 -0.1381  0.5024  0.1220
39851W        W82768   8.485  11.158  21.072 -0.0806 -0.3327 -0.0471
39852W        W82769   8.093   7.561  23.304 -0.2776 -0.0078  0.0409
39853W        W82770  10.025   6.777  24.032 -0.0317 -0.4356  0.1369
39854W        W82771   9.577   8.084  22.832  0.0565  0.2402  0.0517
39855W        W82772   9.794  10.656  21.596  0.1580  0.1097  0.0153
39856W        W82773   7.880   9.186  24.045  0.1035 -0.0889  0.0457
39857W        W82774   9.876   8.161  20.017 -0.0650 -0.0730  0.4419
39858W        W82775  10.763   8.995  20.116  0.1645  0.2455 -0.0771
39859W        W82776   8.628  10.715  22.815  0.1155 -0.1769  0.1582
39860W        W82777  10.569  10.176  23.614  0.1006 -0.1995 -0.2729
39861W        W82778  10.019  10.968  23.399  0.1580  0.1754  0.0453
39862W        W82779  10.470   8.048  22.396  0.0348 -0.0094 -0.1149
39863W        W82780   8.040   6.861  22.521 -0.2559  0.1622  0.1008
39864W        W82781   7.217  10.074  19.921  0.0679 -0.1055 -0.2418
39865W        W82782   7.448   8.060  21.304  0.0040 -0.1590 -0.0314
39866W        W82783  11.302   6.020  21.401  0.0717  0.4202  0.0225
39867W        W82784   6.979   8.280  22.765 -0.0807  0.2529  0.0231
39868W        W82785   7.676   7.697  19.301 -0.3266 -0.0768 -0.3048
39869W        W82786   8.971   9.015  24.202  0.1906 -0.1868  0.0016
39870W        W82787   9.885   9.759  22.531 -0.0730 -0.1038 -0.3059
39871W        W82788  10.423   9.918  27.689  0.3234  0.1765  0.0027
39872W        W82789   6.768   7.498  22.897 -0.0302  0.1755  0.4028
39873W        W82790  10.580   9.441  24.224  0.0677 -0.2064 -0.0965
39874W        W82791  10.386   6.996  24.322 -0.0219  0.1010 -0.1962
39875W        W82792   6.461   6.617  25.196  0.0905 -0.2810  0.1421
39876W        W82793   8.912  10.897  25.795 -0.0822  0.3477  0.1826
39877W        W82794   9.601   8.067  27.925  0.1389  0.0818  0.0523
39878W        W82795   9.732   9.722  24.051 -0.0120 -0.1122  0.0843
39879W        W82796  10.707  10.599  24.573  0.1759 -0.0697 -0.2798
39880W        W82797   8.705   7.381  21.552  0.1877 -0.2903 -0.0177
39881W        W82798   9.676   5.428  25.739  0.2024 -0.3046 -0.0333
39882W        W82799  10.870  10.099  27.683  0.2101 -0.2947  0.3445
39883W        W82800  10.537   6.191  23.151 -0.5461 -0.0363 -0.0003
39884W        W82801   8.260   4.704  24.233 -0.2172 -0.4057 -0.2067
39885W        W82802   8.775   6.378  25.927  0.1281  0.2966 -0.0819
39886W        W82803   8.050   8.874  23.672 -0.0227 -0.3290 -0.3159
39887W        W82804   8.705   9.192  26.276 -0.1036  0.0567 -0.1020
39888W        W82805   9.315   7.748  26.275  0.0284 -0.0322  0.1246
39889W        W82806  11.120  10.842  26.051 -0.0287  0.1741 -0.0835
39890W        W82807   9.972   7.699  25.713 -0.1066 -0.1159 -0.0485
39891W        W82808   8.504   7.905  27.617 -0.0366 -0.2184 -0.1095
39892W        W82809   8.155  10.123  24.312 -0.4336  0.1365 -0.4341
39893W        W82810   5.803  10.148  21.953  0.0369  0.2574  0.2155
39894W        W82811   7.406   6.757  25.746  0.1259 -0.1738  0.1563
39895W        W82812   9.435   7.572  25.280 -0.1025 -0.1289 -0.0329
39896W        W82813   8.759   5.286  24.107  0.3944  0.0364 -0.1003
39897W        W82814  10.222   8.690  26.443 -0.1298  0.0132  0.0462
39898W        W82815   8.538  10.528  26.613  0.2857  0.0805  0.0153
39899W        W82816   9.147   9.540  25.726  0.4337  0.1442  0.0437
39900W        W82817  10.244   7.781  26.575 -0.4595  0.0889 -0.0093
39901W        W82818   8.921   9.267  25.340  0.0177 -0.0309  0.1231
39902W        W82819   5.908   8.993  25.083  0.2161  0.0644  0.1074
39903W        W82820  10.275   9.925  25.013 -0.3004 -0.3666 -0.4325
39904W        W82821   9.851  10.501  24.485 -0.2971  0.1407  0.0266
39905W        W82822  10.164   9.481  26.227  0.0031 -0.2624  0.2929
39906W        W82823  10.260  11.164  27.241  0.4145  0.1375  0.0273
39907W        W82824   7.979   9.216  24.930 -0.0575  0.3319 -0.1136
39908W        W82825  10.179  12.210  29.071  0.1999 -0.0954 -0.1778
39909W        W82826   8.209  10.253  28.033  0.1742  0.1443  0.1711
39910W        W82827   9.795   7.313  27.779  0.2405 -0.2562 -0.2431
39911W        W82828  10.021   8.500  26.042 -0.0272  0.3947 -0.3131
39912W        W82829   9.095  11.069  23.543  0.0878 -0.0264  0.2713
39913W        W82830   7.725   8.718  26.899 -0.2983 -0.3645 -0.0369
39914W        W82831   7.754  10.454  29.288 -0.1708  0.1530 -0.3192
39915W        W82832   6.032   9.306  24.692 -0.1570 -0.0861 -0.1957
39916W        W82833  11.039   6.328  29.189 -0.0251  0.0200 -0.1983
39917W        W82834   8.777  10.827  24.486 -0.2388  0.2873  0.1186
39918W        W82835   8.349   8.458  23.547  0.0636  0.0372 -0.0194
39919W        W82836   8.528   7.807  23.298 -0.1332  0.2621  0.1566
39920W        W82837  10.376   6.672  23.260  0.1488 -0.1071 -0.2952
39921W        W82838   9.191   6.788  27.548  0.0091  0.0911 -0.0560
39922W        W82839   6.815   9.426  25.234 -0.1240  0.2811  0.2785
39923W        W82840   8.010   5.511  26.198  0.0395  0.0689 -0.4162
39924W        W82841  11.368  11.235  25.726 -0.1589  0.1212 -0.3013
39925W        W82842   8.487   7.300  23.533  0.1459 -0.2478  0.1902
39926W        W82843   9.884   8.961  26.747  0.2139  0.3881  0.1287
39927W        W82844   7.445  10.091  27.885 -0.0723 -0.0361 -0.3293
39928W        W82845   8.631   7.431  26.342 -0.3839 -0.1896  0.1026
39929W        W82846   8.923  10.301  23.679 -0.1329 -0.2859 -0.0705
39930W        W82847  11.604  12.439  25.129  0.2045  0.0678 -0.1135
39931W        W82848   7.762  10.552  22.941 -0.0490 -0.0304 -0.3665
39932W        W82849   7.795   7.721  24.177 -0.0836  0.1828 -0.5063
39933W        W82850   8.649   9.311  27.887  0.1225  0.2905  0.0706
39934W        W82851   7.382   7.796  28.468  0.2525  0.2734  0.1259
39935W        W82852   9.552   6.444  22.698  0.0497 -0.2149  0.0082
39936W        W82853  10.201  10.250  26.904 -0.2331  0.1645  0.1959
39937W        W82854   8.633   8.664  26.203  0.1295 -0.0807 -0.1321
39938W        W82855  10.696   7.643  23.765  0.1178  0.0944  0.2077
39939W        W82856  11.788   9.354  26.616 -0.1028 -0.0896 -0.2126
39940W        W82857   9.539  10.270  26.125  0.0090 -0.0358  0.1730
39941W        W82858   9.963   9.233  24.087 -0.1389  0.2082  0.1880
39942W        W82859  10.682   6.589  25.760 -0.0994 -0.0655  0.0361
39943W        W82860   8.057   7.908  25.781  0.2295  0.3212 -0.1057
39944W        W82861   7.107   8.569  24.692 -0.0153 -0.0658 -0.6597
39945W        W82862  10.256   8.838  25.029  0.0811  0.0434  0.1411
39946W        W82863  10.455  10.312  26.397  0.1882 -0.1801  0.0775
39947W        W82864   8.835   9.473  24.448  0.0661  0.0379  0.0017
39948W        W82865   7.488   9.526  23.856  0.0206 -0.1303  0.0625
39949W        W82866   9.423   7.073  28.744 -0.1416 -0.2874 -0.1767
39950W        W82867   9.740  10.846  29.236 -0.0302  0.1811  0.1328
39951W        W82868   7.158   9.763  23.494  0.1846  0.1015  0.0722
39952W        W82869   7.223   8.597  23.665 -0.1123  0.4340  0.0276
39953W        W82870   5.595   8.433  24.618  0.2451 -0.1692  0.3790
39954W        W82871   7.960   6.654  27.096 -0.0120 -0.1853 -0.1549
39955W        W82872   8.729   9.692  26.361  0.0462 -0.2976 -0.3453
39956W        W82873   9.157   6.326  24.947 -0.1413 -0.3072 -0.1876
39957W        W82874   7.931   6.339  26.640  0.0179  0.0578  0.0049
39958W        W82875   8.451   8.059  26.460 -0.0753 -0.2831  0.7320
39959W        W82876   7.609  11.005  22.701 -0.0284  0.0842 -0.0148
39960W        W82877  11.166  11.058  25.239 -0.2267  0.1421 -0.1075
39961W        W82878  11.843   9.484  24.195 -0.1241  0.3397  0.0517
39962W        W82879   9.232  10.526  22.352  0.0411 -0.0448  0.3061
39963W        W82880   5.862   8.348  25.054 -0.0340 -0.1630  0.1609
39964W        W82881   7.837   7.884  24.700 -0.0921  0.2616  0.1415
39965W        W82882   8.287   9.019  25.922 -0.0618  0.2964 -0.0795
39966W        W82883   8.647   6.393  25.384  0.4052  0.0405  0.1789
39967W        W82884   9.415   8.040  27.053 -0.1257  0.0403  0.3174
39968W        W82885   8.333   5.631  25.863 -0.1453 -0.0595 -0.0851
39969W        W82886   7.384   7.626  24.736  0.0621  0.0035 -0.0199
39970W        W82887   8.817   6.876  23.430  0.1826 -0.1411  0.1610
39971W        W82888   6.277   9.346  23.883 -0.2223 -0.2198  0.0750
39972W        W82889  11.441   8.327  26.082  0.1688 -0.1914 -0.0642
39973W        W82890   8.874  10.309  23.190  0.2260  0.1873  0.1417
39974W        W82891  11.236  10.970  27.446  0.2101 -0.0235  0.3545
39975W        W82892   9.517  10.182  27.204 -0.1336  0.1472 -0.1997
39976W        W82893   8.216   9.034  28.058 -0.2843  0.1258  0.4554
39977W        W82894   8.887   8.147  22.226  0.2398  0.2283  0.1871
39978W        W82895   8.395   9.297  25.484 -0.0193 -0.2272 -0.0395
39979W        W82896   8.757   9.524  24.974  0.0239  0.1878 -0.1307
39980W        W82897   7.922   6.960  24.184  0.2526 -0.0807 -0.1229
39981W        W82898  12.209  10.311  26.844  0.3381 -0.0575  0.0708
39982W        W82899   7.247   9.498  24.395  0.2907  0.0221 -0.0683
39983W        W82900   9.931  10.723  27.346  0.3357  0.0152  0.0255
39984W        W82901   9.916   6.024  26.912  0.1648 -0.1391  0.1290
39985W        W82902  10.798   7.103  25.662  0.0350  0.0579  0.1120
39986W        W82903   9.707   7.614  24.691  0.1296 -0.2408 -0.1941
39987W        W82904   7.536   6.138  24.480 -0.0973 -0.3512 -0.1057
39988W        W82905  10.871   9.808  26.363 -0.0961 -0.0151  0.1598
39989W        W82906   5.761   9.297  23.775 -0.1536 -0.0811  0.4140
39990W        W82907   8.228   7.938  24.396 -0.1724  0.0409  0.1883
39991W        W82908   9.534   9.991  25.164  0.3904 -0.2259 -0.1506
39992W        W82909   9.891   7.440  24.184 -0.1607  0.1299  0.6635
39993W        W82910   6.619  10.589  27.827 -0.1260 -0.2212  0.0901
39994W        W82911   9.613   9.722  26.015 -0.2173 -0.0697 -0.3019
39995W        W82912   6.474   7.501  23.305  0.1042 -0.0884  0.1107
39996W        W82913   7.947   9.085  25.543  0.0289  0.0849 -0.0345
39997W        W82914   9.408   7.319  24.337 -0.2669  0.0523 -0.0202
39998W        W82915  11.092   6.610  23.754 -0.0444 -0.2674 -0.1826
39999W        W82916  11.229  10.464  28.275  0.1267  0.0001  0.2799
40000W        W82917  10.560   8.551  25.994  0.1266 -0.0671  0.0316
40001W        W82918   7.724   9.543  23.223  0.1221  0.0702  0.4361
40002W        W82919  10.923   5.558  25.283  0.1936 -0.0178 -0.0463
40003W        W82920   7.637   9.027  26.486  0.0095  0.1190 -0.0105
40004W        W82921   8.734  10.830  26.272 -0.1829  0.2130 -0.2391
40005W        W82922   9.447   8.272  26.479  0.1443 -0.0573 -0.1198
40006W        W82923   8.935   7.523  23.455 -0.1978  0.0152  0.2397
40007W        W82924  10.381   8.287  23.378  0.0996  0.3827 -0.1599
40008W        W82925   8.083   9.429  26.394  0.0806  0.1881 -0.1917
40009W        W82926  10.462   8.962  26.795 -0.1434 -0.2166  0.0724
40010W        W82927  10.773  10.117  25.392 -0.0564  0.2487 -0.1230
40011W        W82928   8.856   6.529  26.754 -0.0352  0.0783 -0.1739
40012W        W82929   9.064   7.903  23.076 -0.0580  0.0091 -0.2623
40013W        W82930  10.215   7.414  26.165 -0.1263  0.0988 -0.0300
40014W        W82931   6.198  10.098  22.840 -0.0830  0.3479 -0.2996
40015W        W82932  11.301   8.110  25.632 -0.0198  0.1554 -0.0419
40016W        W82933  10.002   5.893  25.010  0.1480  0.0544  0.0957
40017W        W82934   9.093   4.845  25.025  0.3099  0.2739 -0.1297
40018W        W82935  10.544   8.200  27.217 -0.2389  0.2382 -0.4021
40019W        W82936   9.387   8.158  23.468 -0.0628  0.1461 -0.1956
40020W        W82937  10.411   9.809  24.521 -0.2065 -0.0870 -0.1654
40021W        W82938   7.840   7.405  23.782  0.2502 -0.0476 -0.1382
40022W        W82939   9.946   7.819  26.160 -0.3740 -0.2180  0.0895
40023W        W82940   8.927   8.466  25.687 -0.0809  0.3133  0.1451
40024W        W82941   9.817  11.173  27.617  0.0054  0.0668  0.0661
40025W        W82942   7.777   8.758  24.939 -0.0630 -0.2894  0.0791
40026W        W82943   9.537   6.445  26.162 -0.1313  0.2350 -0.0553
40027W        W82944  10.785   8.651  27.338  0.1474  0.1434 -0.0146
40028W        W82945   7.673   8.689  24.122 -0.1268  0.2389  0.3453
40029W        W82946   9.304  10.856  26.152 -0.2153  0.1253 -0.5790
40030W        W82947   8.659   8.748  23.820  0.2007  0.2202 -0.0889
40031W        W82948   9.690   6.570  27.727 -0.0029  0.0460  0.0138
40032W        W82949   7.560  10.083  24.965  0.0669  0.3013 -0.1095
40033W        W82950   8.596   8.749  24.363  0.2282  0.0521  0.1276
40034W        W82951   9.402   8.810  26.793 -0.0371  0.1021 -0.1214
40035W        W82952   7.347   8.998  24.742 -0.0829  0.1255  0.0503
40036W        W82953  10.778   6.070  26.355  0.1445 -0.4737 -0.2163
40037W        W82954   6.857   9.875  25.645  0.0165  0.1036 -0.1757
40038W        W82955   8.978   7.546  24.227  0.0258 -0.1481  0.2850
40039W        W82956   6.541   7.934  23.528 -0.0000  0.1778 -0.1639
40040W        W82957  11.582   6.418  25.024 -0.1346  0.0828  0.2524
40041W        W82958   9.741   8.968  25.424 -0.2484 -0.2122  0.0099
40042W        W82959   9.984   7.718  27.970  0.1700  0.3035  0.0963
40043W        W82960   7.477   5.925  27.427 -0.2296  0.3217  0.1619
40044W        W82961   7.103   9.159  25.529  0.2034 -0.0445 -0.0153
40045W        W82962  10.451   8.070  24.591  0.1814  0.2573 -0.2185
40046W        W82963   9.392   8.264  24.476  0.4394  0.4154 -0.1333
40047W        W82964   8.757   8.771  26.806 -0.2736  0.1341 -0.3317
40048W        W82965  10.345   8.132  29.006  0.0700  0.0603 -0.2535
40049W        W82966   7.899   8.512  22.884  0.2509  0.0878 -0.0332
40050W        W82967  10.511   7.766  26.966  0.0531 -0.2028 -0.0392
40051W        W82968   8.637   7.316  25.409  0.0143  0.0059  0.0155
40052W        W82969   8.281  11.319  22.390  0.1631  0.0001 -0.2177
40053W        W82970   9.366   9.763  24.468  0.1791 -0.0515 -0.0011
40054W        W82971   7.340   7.415  23.715 -0.0635  0.0330  0.2364
40055W        W82972   7.415   8.220  24.910 -0.2819  0.1453 -0.1237
40056W        W82973  10.244  10.680  26.653 -0.0696 -0.1912 -0.1607
40057W        W82974  10.411   9.830  26.647 -0.0955 -0.3737 -0.0645
40058W        W82975   8.959   8.005  24.743  0.1266  0.0845 -0.2638
40059W        W82976   8.617   8.248  25.099 -0.0974  0.3403  0.3836
40060W        W82977   9.891   7.037  26.172  0.2486 -0.0646 -0.4107
40061W        W82978  10.835   7.828  26.440  0.0881 -0.0574 -0.2295
40062W        W82979   9.026  10.607  27.454 -0.0508 -0.1770 -0.0821
40063W        W82980   7.353   7.548  27.035  0.0760 -0.0101  0.0882
40064W        W82981   9.963   5.660  27.474 -0.4489  0.0372 -0.0316
40065W        W82982  11.008  11.919  24.147  0.0049 -0.2557  0.1089
40066W        W82983  10.463   7.973  28.522  0.0036  0.1165  0.0079
40067W        W82984   7.361   8.199  23.394  0.1763 -0.1246 -0.0699
40068W        W82985   8.815   9.025  25.764 -0.0720 -0.1011  0.0083
40069W        W82986   7.729   8.498  23.641 -0.1255  0.1138  0.4116
40070W        W82987   8.142   7.299  25.064 -0.2288 -0.0431 -0.0005
40071W        W82988   8.578  10.608  27.239  0.0569  0.1307 -0.0704
40072W        W82989   7.842   9.848  23.627  0.0605 -0.1033  0.3956
40073W        W82990   8.282   9.604  25.087 -0.0179 -0.2093  0.2167
40074W        W82991  10.291   7.329  23.899 -0.0893 -0.3816 -0.4911
40075W        W82992  10.475   7.596  24.322 -0.1936  0.1322  0.2228
40076W        W82993   8.957   7.009  26.525  0.2789 -0.2984 -0.1034
40077W        W82994  11.791   7.289  24.804 -0.2303  0.0936 -0.1517
40078W        W82995   8.878   7.555  21.133 -0.0849 -0.1579  0.2800
40079W        W82996   9.127   5.740  25.578  0.0747 -0.0748 -0.0861
40080W        W82997   8.015   6.917  26.528  0.1728 -0.2746  0.2069
40081W        W82998   9.712   9.343  23.168  0.0681  0.3459 -0.2008
40082W        W82999   7.346   7.679  26.137 -0.0418  0.0876  0.1195
40083W        W83000  10.796  10.711  26.702  0.1931  0.3883 -0.0989
40084W        W83001   9.251   9.684  27.050 -0.2248 -0.3734 -0.0067
40085W        W83002   8.376   4.696  23.434  0.1250 -0.3025  0.3214
40086W        W83003   8.580   6.752  28.365 -0.0897 -0.0155 -0.0372
40087W        W83004   8.579  10.010  25.190  0.1821  0.0671 -0.0845
40088W        W83005  11.185   7.789  25.121 -0.0168 -0.0302  0.1488
40089W        W83006   9.143  10.617  24.001 -0.0693 -0.0218  0.0188
40090W        W83007  10.546   7.407  26.561 -0.2370 -0.0981  0.2764
40091W        W83008   9.102  10.417  25.998  0.0776  0.2247  0.0797
40092W        W83009  10.968  10.347  26.224 -0.1642  0.0081  0.0312
40093W        W83010   8.603  11.707  23.257 -0.1317  0.1212 -0.1493
40094W        W83011   7.459   8.141  24.438  0.0130 -0.0152 -0.1930
40095W        W83012   9.438   7.039  25.592 -0.1985  0.0222  0.2423
40096W        W83013   9.590   7.091  25.029  0.0045 -0.1386  0.0715
40097W        W83014  10.904   7.016  23.516  0.3588 -0.0796 -0.2702
40098W        W83015   9.477   4.994  26.906 -0.3298  0.3624 -0.1479
40099W        W83016  10.732   8.195  27.683  0.5456  0.2943  0.0903
40100W        W83017   8.206   8.869  26.400 -0.2602 -0.1585  0.1152
40101W        W83018   7.735   7.885  28.070 -0.1654  0.0324 -0.2639
40102W        W83019  10.805  10.128  24.793  0.1688 -0.0541  0.0727
40103W        W83020  10.776   7.545  22.342  0.2061  0.0605  0.0174
40104W        W83021  11.914   6.368  27.225  0.3391  0.0427  0.1655
40105W        W83022   9.844   9.966  24.576  0.0718  0.1879 -0.0465
40106W        W83023   9.164   6.954  24.800 -0.0451  0.3430  0.2146
40107W        W83024   8.407   7.411  25.799 -0.0330 -0.0143 -0.0527
40108W        W83025   8.107   8.347  26.797  0.2078 -0.1158  0.1451
40109W        W83026   7.507   6.742  23.287 -0.2357 -0.0481  0.1054
40110W        W83027  10.257   9.690  27.222 -0.1865 -0.1030  0.1141
40111W        W83028   8.754  11.638  24.077 -0.0569 -0.1703 -0.1356
40112W        W83029   9.962   9.795  25.422  0.1041 -0.2295 -0.0813
40113W        W83030  10.013   7.222  24.624 -0.1946 -0.0856  0.0512
40114W        W83031   8.768   7.737  25.933  0.1148 -0.2993 -0.3802
40115W        W83032   8.475   9.279  26.697  0.1788 -0.2667  0.3247
40116W        W83033   9.749   7.214  23.218  0.5143 -0.3239  0.1000
40117W        W83034   9.674   7.232  23.780 -0.0629  0.1643 -0.0447
40118W        W83035   8.693  10.838  27.746  0.1686  0.1940 -0.3637
40119W        W83036   9.473  10.199  26.678 -0.1303  0.1323 -0.1205
40120W        W83037   9.039   5.841  25.013  0.0160  0.2334  0.1114
40121W        W83038   8.936   8.487  24.768  0.6849  0.1191 -0.0938
40122W        W83039   6.115   8.275  24.474 -0.0724 -0.0881  0.0491
40123W        W83040   9.330   5.097  25.781 -0.1981  0.2425 -0.0923
40124W        W83041   8.638   8.044  25.585  0.1239  0.1102 -0.1306
40125W        W83042   7.336   9.864  28.902  0.0049 -0.0262  0.3740
40126W        W83043   6.984   9.270  23.428 -0.1056  0.1464  0.2502
40127W        W83044   8.702   6.586  27.653 -0.0652  0.1389  0.0589
40128W        W83045  10.033   8.111  24.795 -0.0402 -0.1803 -0.4343
40129W        W83046   9.902   7.461  25.144 -0.1485 -0.2774  0.1758
40130W        W83047   9.777   6.726  25.766  0.3596 -0.0262  0.4521
40131W        W83048  10.565   8.960  24.256 -0.3065  0.0469  0.3312
40132W        W83049   5.329   8.242  23.732 -0.0687  0.0886 -0.1908
40133W        W83050   9.524   9.259  26.909 -0.1237 -0.3193 -0.1135
40134W        W83051  10.014   7.932  24.280  0.1709  0.4906 -0.1291
40135W        W83052   7.508   8.813  25.605 -0.1797  0.2907 -0.2745
40136W        W83053   8.873   8.452  27.831 -0.1283  0.0724  0.0570
40137W        W83054   8.319   6.993  26.094 -0.0766  0.2539  0.1667
40138W        W83055   9.761   9.462  24.509  0.0413  0.0534 -0.0365
40139W        W83056   9.204   6.446  27.130  0.1122  0.2028 -0.0410
40140W        W83057   8.613   9.913  24.636  0.1137  0.0636 -0.1826
40141W        W83058   7.562  11.269  29.490 -0.2357 -0.1812  0.0488
40142W        W83059   6.944   9.062  26.989 -0.6953 -0.1795  0.1646
40143W        W83060   9.511   9.083  25.860  0.0513 -0.0942  0.0343
40144W        W83061   9.574   8.122  25.991  0.2351 -0.2280  0.0363
40145W        W83062   7.529   7.782  23.221 -0.1485  0.0325  0.0920
40146W        W83063   9.086  11.178  26.485 -0.1800 -0.0224  0.0779
40147W        W83064   7.065   6.552  23.164 -0.2252 -0.0380  0.0465
40148W        W83065   5.736   8.330  24.076 -0.0173 -0.0367 -0.1102
40149W        W83066   5.567  10.538  23.857  0.2964  0.2224 -0.1820
40150W        W83067  10.621  10.804  22.228  0.2182 -0.0635  0.1178
40151W        W83068   8.636  11.425  25.139 -0.2388 -0.0654  0.0103
40152W        W83069   9.768   8.417  26.914  0.0739  0.4339  0.1015
40153W        W83070  10.660   7.726  22.861  0.1970  0.0741 -0.3100
40154W        W83071  11.758   8.630  23.875 -0.1611 -0.2129 -0.0380
40155W        W83072   9.121   5.680  24.096 -0.1290  0.0103  0.0099
40156W        W83073   8.862  10.855  26.850 -0.0870  0.2039  0.0658
40157W        W83074   9.334   9.555  24.929 -0.3446  0.3855  0.1950
40158W        W83075   8.277   6.410  24.053  0.0813  0.0816 -0.0677
40159W        W83076   6.933   8.897  26.415 -0.0307  0.0730 -0.2473
40160W        W83077  10.458   7.263  28.736 -0.2527 -0.1017  0.1462
40161W        W83078   9.498  10.678  27.590  0.2094 -0.0738  0.0917
40162W        W83079   9.017   9.129  23.660 -0.1144  0.2501 -0.2735
40163W        W83080   8.157   6.493  25.230 -0.2579 -0.3280  0.1071
40164W        W83081   7.421   8.208  23.961 -0.2455  0.1392 -0.0506
40165W        W83082  11.263   7.342  25.499 -0.1119  0.2417  0.2461
40166W        W83083   9.249   8.454  21.996 -0.1819 -0.0057  0.2367
40167W        W83084  10.220   6.942  26.507 -0.0423  0.1415  0.1307
40168W        W83085   9.964  11.728  26.390  0.0428  0.2129 -0.0048
40169W        W83086   7.760  10.722  24.266  0.1081  0.0609 -0.1558
40170W        W83087  10.078  11.210  26.372 -0.0803  0.0779  0.1840
40171W        W83088   6.985   8.003  24.858  0.2580  0.2720  0.0078
40172W        W83089  12.845   9.671  24.321 -0.1722 -0.0081 -0.0002
40173W        W83090   8.037  10.574  26.606  0.3958  0.1275  0.0089
40174W        W83091  12.551   7.646  25.511 -0.0238 -0.0558 -0.3274
40175W        W83092   8.609   9.167  22.977 -0.1872 -0.1397 -0.0308
40176W        W83093   9.567   8.131  24.930  0.2135  0.1308  0.0947
40177W        W83094   9.743   9.792  26.971 -0.2312 -0.0116  0.0023
40178W        W83095   7.597   7.834  23.703 -0.2322  0.2998 -0.0747
40179W        W83096   8.379   8.734  25.515  0.0343  0.2186 -0.2751
40180W        W83097   9.748   8.942  24.395  0.1607  0.1867 -0.0425
40181W        W83098   9.231   7.746  22.131 -0.2535 -0.4860 -0.1776
40182W        W83099  10.730  10.950  24.992 -0.1110 -0.1140 -0.1389
40183W        W83100   6.152   7.681  25.153  0.1847  0.0001 -0.0164
40184W        W83101  10.099   6.660  24.576  0.0107  0.1473 -0.0340
40185W        W83102   7.914   8.506  22.381 -0.1421 -0.1104 -0.3798
40186W        W83103   9.511  10.972  27.226  0.3697 -0.1410 -0.1666
40187W        W83104  10.493   9.604  25.402  0.1299  0.1460  0.0536
40188W        W83105   5.991   7.266  23.309 -0.3430  0.0083  0.3363
40189W        W83106  12.106  10.549  22.500 -0.0179 -0.0442 -0.1983
40190W        W83107  11.318   7.342  24.984 -0.1343  0.1623  0.1015
40191W        W83108   8.221  10.115  24.875 -0.0633 -0.0227 -0.5892
40192W        W83109  10.355   9.671  22.385 -0.3506 -0.1535  0.0777
40193W        W83110   9.403  10.242  24.275 -0.0253  0.1443  0.0097
40194W        W83111   6.731   4.399  25.478  0.0478  0.0189 -0.1122
40195W        W83112   8.893  10.516  24.916  0.1821 -0.0924  0.1756
40196W        W83113  10.687   9.135  25.193  0.1686 -0.2790 -0.1865
40197W        W83114   9.114   6.276  25.457 -0.0481  0.1772  0.0516
40198W        W83115   7.932   8.045  26.256 -0.3440  0.1715  0.1537
40199W        W83116   8.539   9.947  23.347 -0.1048  0.0495 -0.1112
40200W        W83117   9.933   8.439  25.202 -0.0880  0.1382  0.2680
40201W        W83118  11.404   7.860  26.348  0.4510  0.0456  0.2324
40202W        W83119   9.844  11.620  25.356 -0.1753  0.0007  0.1600
40203W        W83120  10.229   6.090  26.319 -0.2168  0.1809  0.0467
40204W        W83121   9.160   7.531  24.715  0.1297 -0.1284  0.0483
40205W        W83122  10.328  11.017  25.852 -0.0228  0.1949  0.1050
40206W        W83123   7.530   8.675  23.257 -0.1807 -0.3871  0.0055
40207W        W83124  11.255  10.766  26.980 -0.2113 -0.1632  0.2521
40208W        W83125   6.608   8.543  24.751 -0.1543  0.2786 -0.0512
40209W        W83126   7.912   8.202  25.040 -0.1843 -0.0198 -0.0692
40210W        W83127  10.096  10.446  23.538  0.2905 -0.0372 -0.2419
40211W        W83128   9.456   8.299  27.489 -0.0301  0.1126 -0.1153
40212W        W83129  11.806   9.211  25.441 -0.1391 -0.0454 -0.1759
40213W        W83130   8.949   8.464  24.157  0.3274  0.0568 -0.3238
40214W        W83131  12.214   7.001  22.346 -0.2022  0.0711 -0.1868
40215W        W83132  10.537   6.810  23.776  0.1807 -0.3301  0.0283
40216W        W83133   8.299   9.776  25.557  0.0203  0.1648  0.2854
40217W        W83134   8.841   6.087  23.886  0.3881 -0.3784  0.1298
40218W        W83135   8.270   7.400  22.418 -0.0740  0.2296 -0.0171
40219W        W83136   7.836   9.663  24.185  0.0846 -0.0453 -0.0577
40220W        W83137   9.489   6.602  25.300 -0.0157  0.1643 -0.3711
40221W        W83138   7.113   8.611  27.124 -0.1480 -0.0566 -0.0309
40222W        W83139   9.041   7.406  25.655 -0.0814 -0.3109 -0.0560
40223W        W83140   8.286   7.835  24.880  0.0976 -0.1395 -0.0427
40224W        W83141  10.450   5.159  24.585 -0.0448  0.2014 -0.3915
40225W        W83142   8.239   6.593  27.456 -0.0490  0.1003 -0.0527
40226W        W83143   9.160   7.953  25.638 -0.0644 -0.0303 -0.2124
40227W        W83144  10.409   8.074  26.104 -0.0836  0.0725 -0.1132
40228W        W83145   9.646   8.532  23.774  0.0240  0.2123  0.0189
40229W        W83146   8.664   6.146  24.910  0.4806 -0.1878  0.2751
40230W        W83147  12.217  11.554  28.669 -0.1282  0.1270  0.0296
40231W        W83148   9.682   9.027  24.889 -0.1498 -0.1200  0.1162
40232W        W83149   8.602   8.422  27.353 -0.1143 -0.1966 -0.1347
40233W        W83150  11.674   7.463  28.498 -0.1059 -0.0103 -0.0389
40234W        W83151   8.921   5.659  22.789 -0.0203  0.1061  0.0405
40235W        W83152  10.096   8.679  25.632  0.2169  0.1019  0.1216
40236W        W83153   9.275   8.621  26.024  0.0594 -0.1359 -0.0111
40237W        W83154  10.375   8.562  24.623  0.1758  0.1989 -0.0562
40238W        W83155   9.503   8.768  27.276  0.1184 -0.1976  0.0582
40239W        W83156   9.792  10.956  26.015  0.0389  0.1999 -0.2397
40240W        W83157   6.550   4.879  25.485  0.1759 -0.0932  0.3747
40241W        W83158   9.258   8.720  24.476 -0.1315  0.0490  0.0691
40242W        W83159   8.760  10.228  26.289  0.0513 -0.2886 -0.0357
40243W        W83160  10.927  10.609  25.312  0.0784 -0.0207  0.0145
40244W        W83161   9.672   8.034  25.436  0.3584 -0.0566  0.2838
40245W        W83162   9.706   8.001  23.865 -0.3881  0.2623  0.4697
40246W        W83163   9.056   9.315  26.638  0.1929  0.0519 -0.0454
40247W        W83164   6.540  10.277  25.425 -0.1303  0.1950 -0.1465
40248W        W83165  11.720   9.649  25.665  0.2182  0.0859 -0.1210
40249W        W83166   7.120   8.023  26.762  0.4778 -0.0384 -0.0546
40250W        W83167   9.551   6.629  24.783 -0.0315 -0.5003  0.1427
40251W        W83168  10.698   8.653  23.856 -0.2630 -0.2944  0.0619
40252W        W83169   7.519   7.101  24.806  0.0423 -0.0778 -0.1741
40253W        W83170   9.100   8.900  26.426 -0.1203  0.2036  0.0485
40254W        W83171   8.667   9.519  25.876 -0.0568  0.0048 -0.0575
40255W        W83172   8.040   8.953  24.542 -0.1382  0.1209  0.1613
40256W        W83173  11.112  10.300  25.736  0.0857  0.1588 -0.1068
40257W        W83174   8.758   7.993  24.202  0.2113  0.2469 -0.4210
40258W        W83175  10.886   9.078  23.665  0.0152  0.1387 -0.1768
40259W        W83176   9.074  10.578  26.512 -0.0227 -0.0381  0.0599
40260W        W83177  12.120  11.653  25.139  0.0165 -0.0579  0.1849
40261W        W83178   8.949  10.426  25.508  0.2636 -0.0974 -0.3277
40262W        W83179  11.904   8.648  25.352  0.4487  0.0832  0.0625
40263W        W83180   7.590   7.677  26.617 -0.0728  0.0115  0.1762
40264W        W83181   8.799   8.748  25.196  0.0698 -0.0357  0.1561
40265W        W83182   8.399   8.304  24.086 -0.2409 -0.0974  0.0319
40266W        W83183  11.134   6.420  24.796 -0.4839 -0.0501  0.0032
40267W        W83184   8.179   7.076  25.529 -0.0868 -0.1153  0.1694
40268W        W83185  13.176   5.889  24.906 -0.0975 -0.1679  0.2286
40269W        W83186   9.995  11.503  26.796  0.1406 -0.1684 -0.2337
40270W        W83187   7.883   9.959  26.313 -0.0931 -0.1302 -0.0636
40271W        W83188   7.733  10.487  30.231  0.0602  0.2423  0.0207
40272W        W83189   8.539   8.877  27.748 -0.0787 -0.0969 -0.0290
40273W        W83190   9.936   7.968  29.302  0.2453  0.0429 -0.2103
40274W        W83191  10.865   7.716  27.329 -0.1206 -0.1254 -0.0823
40275W        W83192   7.363   8.100  27.224  0.2202 -0.1463  0.0347
40276W        W83193  12.714  11.603  27.713 -0.1786  0.4053  0.2095
40277W        W83194   7.638   8.256  27.694 -0.5471 -0.3371 -0.1998
40278W        W83195  11.441   8.974  27.224 -0.4415 -0.0587  0.0232
40279W        W83196  12.567   9.824  29.935 -0.2289  0.0627 -0.0029
40280W        W83197   9.412   9.701  26.529 -0.0047  0.2923 -0.1603
40281W        W83198  11.415   6.562  28.934 -0.1448  0.3304 -0.0684
40282W        W83199   6.641   9.915  28.346 -0.1027  0.0697 -0.0632
40283W        W83200   8.516   7.738  26.804  0.0850  0.3233 -0.2237
40284W        W83201   8.476   5.713  28.635  0.2024  0.0035 -0.4911
40285W        W83202  11.393   8.071  29.936 -0.0373  0.0041  0.1658
40286W        W83203   8.705  10.218  27.827 -0.1673  0.1618 -0.2638
40287W        W83204   9.569  10.002  28.595 -0.1490  0.1933 -0.0229
40288W        W83205   7.385   8.150  26.304 -0.2836  0.1879 -0.0866
40289W        W83206   9.777  11.728  27.933  0.1967  0.1048  0.1933
40290W        W83207   9.703   9.360  30.450 -0.1852  0.0026  0.1050
40291W        W83208  10.721   6.891  30.613  0.1358 -0.1873  0.0006
40292W        W83209  10.350  11.999  26.896  0.2671 -0.3459 -0.0586
40293W        W83210   8.511  10.174  27.050  0.0516 -0.0732  0.1475
40294W        W83211   8.609  11.343  29.132  0.1388  0.1785 -0.2125
40295W        W83212   8.543   8.776  29.891 -0.0136 -0.2733 -0.0020
40296W        W83213   9.273   8.069  30.116 -0.2654  0.2863 -0.0485
40297W        W83214  11.076   9.056  27.523 -0.1312 -0.0784  0.2647
40298W        W83215  10.554  12.668  29.267  0.2623 -0.0621  0.0992
40299W        W83216  10.634  10.803  28.028  0.1171  0.1163  0.0827
40300W        W83217  10.687   9.615  27.904  0.0308  0.2181  0.0427
40301W        W83218   7.493   9.886  27.312  0.3380 -0.1156  0.0100
40302W        W83219   8.316  10.997  28.493  0.0398 -0.0722  0.1306
40303W        W83220   8.388   9.524  29.096  0.2250  0.0755 -0.0063
40304W        W83221  12.379   7.809  28.867 -0.0259  0.0371 -0.1822
40305W        W83222   9.378   8.841  29.684  0.0546 -0.1099 -0.2392
40306W        W83223   9.451  10.407  31.822 -0.3315 -0.3377 -0.0429
40307W        W83224   9.006  10.248  28.709  0.2552 -0.0448  0.1376
40308W        W83225   8.920   8.867  29.462 -0.0918  0.1176  0.0806
40309W        W83226   9.710  11.226  30.225 -0.1868 -0.0521  0.3144
40310W        W83227   9.170   8.275  29.549 -0.0570  0.0742  0.1036
40311W        W83228   8.956  10.103  27.285  0.1665  0.1169 -0.2317
40312W        W83229   9.911  10.446  28.449 -0.1429  0.1440 -0.1245
40313W        W83230   9.888   9.723  29.073  0.0744  0.0086  0.0424
40314W        W83231   9.355  11.033  29.989 -0.1105  0.1834  0.1064
40315W        W83232   7.170   9.453  29.151 -0.1519 -0.0933  0.2078
40316W        W83233  12.698   7.345  31.834  0.1650 -0.0679  0.1545
40317W        W83234  10.760  11.042  27.092  0.0761 -0.0286  0.0668
40318W        W83235  10.865   8.394  26.358  0.0178  0.0982  0.0790
40319W        W83236   7.235   8.161  25.825  0.4647  0.0760  0.2371
40320W        W83237  10.886   8.313  28.975  0.0741 -0.0334  0.0473
40321W        W83238  11.008   8.790  29.617 -0.0739 -0.1107  0.0926
40322W        W83239   8.044  11.334  29.319 -0.2262  0.0717 -0.3744
40323W        W83240  10.408   7.353  29.767 -0.0927 -0.2459 -0.2029
40324W        W83241  12.218   8.905  29.772 -0.1298  0.1358 -0.0455
40325W        W83242  10.168   8.926  28.699 -0.0850  0.0300  0.0726
40326W        W83243  10.494   7.286  30.245  0.1426  0.2147 -0.1700
40327W        W83244   7.720   9.832  28.644 -0.1776  0.1802  0.0126
40328W        W83245   8.135   8.161  27.909 -0.0245 -0.0368  0.3340
40329W        W83246  12.638  10.129  27.229  0.1226  0.4185  0.1665
40330W        W83247  11.049   9.149  29.253  0.1733  0.1230  0.0954
40331W        W83248   8.383   9.805  27.937 -0.4578 -0.0121  0.2350
40332W        W83249   7.839   9.923  28.154 -0.0140  0.1633 -0.2410
40333W        W83250   7.271   9.513  31.617 -0.1999 -0.3272  0.0565
40334W        W83251   8.120   8.781  29.551  0.3615  0.0684  0.0857
40335W        W83252   8.895   8.479  28.335 -0.1533 -0.1961 -0.0301
40336W        W83253  10.273   8.928  29.602  0.1307 -0.2443  0.0672
40337W        W83254   6.722   9.345  31.689  0.0319 -0.1691  0.1958
40338W        W83255  10.725   6.891  29.024  0.2524 -0.0494  0.0150
40339W        W83256   8.484  10.061  29.010 -0.2102  0.3719  0.0307
40340W        W83257  11.622   8.566  30.028 -0.1765 -0.2360  0.4091
40341W        W83258   9.214   9.427  26.194 -0.1075 -0.0956 -0.1985
40342W        W83259  11.161   7.840  29.248  0.0773  0.0017 -0.0580
40343W        W83260   9.762   7.458  31.138 -0.0561  0.0430  0.0355
40344W        W83261   9.599  10.430  28.954  0.1892 -0.0364 -0.1172
40345W        W83262   9.601  11.456  27.188  0.1060 -0.1206  0.1030
40346W        W83263  10.621  11.031  29.772  0.2815  0.1511  0.3530
40347W        W83264  10.879  11.799  26.639  0.0292 -0.1181  0.0348
40348W        W83265   7.211  12.133  29.378 -0.0679  0.0578 -0.4320
40349W        W83266   9.890   9.010  30.034 -0.1004  0.0357  0.2236
40350W        W83267   8.626   9.850  30.315 -0.0410  0.2124 -0.0406
40351W        W83268  10.071  10.190  27.376  0.0262 -0.0922  0.0090
40352W        W83269   8.011   8.588  27.668  0.0238 -0.0392  0.1044
40353W        W83270   6.191   8.407  27.487  0.2779  0.0082 -0.1259
40354W        W83271   6.302   8.200  28.971 -0.0478 -0.0938  0.1383
40355W        W83272  11.077  10.592  29.342 -0.0187 -0.2252 -0.0785
40356W        W83273  11.394   7.711  28.860  0.0461  0.1424 -0.3141
40357W        W83274   7.359   7.503  28.063  0.1048  0.2540 -0.0335
40358W        W83275  11.025   7.338  29.954  0.1260 -0.2587  0.1664
40359W        W83276   8.849  10.843  30.874 -0.1409 -0.1342  0.0107
40360W        W83277  13.258  11.127  30.197 -0.0319 -0.2028 -0.0867
40361W        W83278  11.035   7.053  28.041  0.2611  0.0128 -0.2183
40362W        W83279   9.913   9.356  25.726  0.1528 -0.1862 -0.1717
40363W        W83280   8.169   8.746  28.587  0.1961 -0.1577  0.0152
40364W        W83281   7.983   9.247  29.481  0.0221  0.3780  0.0037
40365W        W83282   7.917   8.071  28.955  0.1342 -0.3207  0.0192
40366W        W83283   8.053   8.105  30.299 -0.3696 -0.0303  0.1458
40367W        W83284   9.548  11.067   0.027  0.0841  0.1088  0.0696
40368W        W83285   8.493   6.457  29.455  0.1843 -0.2351  0.1915
40369W        W83286   9.933   7.255  28.802 -0.2114  0.1236 -0.0368
40370W        W83287   9.454   9.730  27.564 -0.1030  0.0472  0.0173
40371W        W83288   7.687   9.061  28.139  0.4739  0.3161  0.0637
40372W        W83289  11.163   7.706  30.247  0.1542  0.0577 -0.1553
40373W        W83290  11.776   9.533  29.671 -0.1900  0.3071 -0.0074
40374W        W83291  11.200  11.599  31.305 -0.0814 -0.3291 -0.2361
40375W        W83292   9.798   8.884  29.361  0.0629 -0.0872  0.2275
40376W        W83293   8.577   9.452  31.699  0.0630  0.2766  0.3996
40377W        W83294   9.204   6.911  26.958 -0.1227  0.0413  0.3598
40378W        W83295   9.127   9.731  28.588  0.1853  0.1726 -0.0233
40379W        W83296  10.059  10.685  28.877 -0.1148  0.2169 -0.1035
40380W        W83297   6.501   9.230  27.122 -0.0981 -0.0813  0.0812
40381W        W83298  12.030  11.384  27.874  0.0707 -0.0408 -0.1654
40382W        W83299  10.011  11.270  28.077 -0.1303 -0.1053  0.1494
40383W        W83300   7.983  10.072  28.994 -0.0250 -0.3133  0.1378
40384W        W83301  12.391   7.609  30.239 -0.0376  0.1208 -0.1294
40385W        W83302  11.218  10.198  31.288  0.1871 -0.1669  0.1328
40386W        W83303   8.199   9.092  27.408  0.3401 -0.4273 -0.1239
40387W        W83304   8.701   9.113  27.217 -0.0304 -0.0322  0.0965
40388W        W83305   9.976   8.445  27.402  0.1108  0.1247  0.1581
40389W        W83306   6.766   8.585  28.945  0.1332  0.2043 -0.2144
40390W        W83307  10.285  10.931  27.677 -0.1784  0.0454 -0.3033
40391W        W83308   9.390  10.552  29.498 -0.1495  0.2298 -0.3783
40392W        W83309  11.720   7.686  30.262 -0.2609 -0.0320 -0.1997
40393W        W83310   7.780  10.089  30.694 -0.0923 -0.1132  0.0348
40394W        W83311  10.175  10.356  31.186  0.2035 -0.0559  0.0651
40395W        W83312   7.078   7.576  26.581 -0.0127  0.0093 -0.0404
40396W        W83313   8.482   9.545  31.087  0.1336 -0.1361  0.0560
40397W        W83314  10.866   7.101  28.587  0.1812  0.1145  0.1860
40398W        W83315  10.974   7.450  27.716  0.1037  0.0314  0.0956
40399W        W83316   9.979   7.975  30.502 -0.0836 -0.3857  0.1556
40400W        W83317  11.122   8.151  27.325  0.0311 -0.0365 -0.0560
40401W        W83318  10.193   7.378  26.919 -0.0869  0.2251  0.0167
40402W        W83319   9.479   5.549  27.351  0.1266 -0.1264 -0.4297
40403W        W83320   9.477  10.568  31.058  0.0785  0.2458 -0.2078
40404W        W83321  11.393  10.986  28.475 -0.5241  0.1293 -0.0560
40405W        W83322   7.515  10.881  29.082 -0.1352  0.5018  0.1158
40406W        W83323  11.207   9.446  27.212 -0.0973 -0.1775 -0.0156
40407W        W83324  13.087  10.169  28.516 -0.3049  0.2464  0.4423
40408W        W83325   8.910   9.389  29.340 -0.0174 -0.2631  0.0427
40409W        W83326   9.224   7.529  31.034 -0.2511  0.0975 -0.0838
40410W        W83327   8.621  10.368  28.346 -0.0330  0.2317 -0.0472
40411W        W83328   9.140   8.079  28.650 -0.1958 -0.0428 -0.1375
40412W        W83329   8.087   9.491  27.673  0.0948 -0.0635  0.3317
40413W        W83330  11.330   7.650  29.703  0.0480  0.0808 -0.0583
40414W        W83331  10.995  11.096  28.084  0.0991 -0.1254 -0.2185
40415W        W83332  10.159   8.368  29.482  0.1650  0.0625  0.1894
40416W        W83333  10.889   8.085  29.808  0.2736 -0.1858  0.2122
40417W        W83334   8.209   7.890  29.836  0.0626  0.0321  0.1587
40418W        W83335  12.426  10.224  31.192  0.2433  0.0277 -0.0459
40419W        W83336  12.146   6.730  29.794 -0.1353 -0.3029 -0.2365
40420W        W83337  11.757   5.810  27.843  0.1913 -0.1999  0.0246
40421W        W83338   8.048   9.123  26.844 -0.1625  0.2662  0.2702
40422W        W83339  12.159   8.995  31.112  0.0991 -0.2416  0.0781
40423W        W83340   8.492   9.358  28.330 -0.0568  0.1355 -0.0744
40424W        W83341   9.675  10.617  30.222 -0.0395  0.1331 -0.2152
40425W        W83342  11.025  11.199  31.658  0.0742  0.1224  0.1038
40426W        W83343  12.802  10.560  28.301  0.1488  0.2744  0.2200
40427W        W83344  12.314   9.386   0.672  0.1795  0.0674 -0.1325
40428W        W83345  10.045   9.004  27.170  0.0619  0.1182 -0.4173
40429W        W83346  10.077   9.425  26.761  0.4095  0.1578  0.1228
40430W        W83347   9.698  10.939  28.405  0.2301  0.1047 -0.0256
40431W        W83348   9.358   9.003  28.349 -0.1899  0.2206  0.3177
40432W        W83349  10.570  11.407  28.114  0.0434 -0.1826  0.1371
40433W        W83350   9.733  10.635  26.413 -0.0746  0.2224  0.2603
40434W        W83351  10.283  10.765  29.380 -0.1133  0.1474  0.0408
40435W        W83352   9.175  12.194  27.172  0.2156  0.0525  0.4003
40436W        W83353   9.414   8.135  29.112  0.1678  0.0392  0.2635
40437W        W83354   8.690  12.177  30.160  0.1444 -0.0508 -0.0367
40438W        W83355   8.266   8.686  27.131 -0.2197 -0.0123  0.1400
40439W        W83356   7.740   9.454  27.240 -0.0971 -0.2749 -0.1605
40440W        W83357  12.262   8.553  28.118  0.1392  0.0786  0.1022
40441W        W83358   8.165   9.104  29.942  0.1298  0.0640 -0.0924
40442W        W83359   8.858   9.002  30.326 -0.2344 -0.1528  0.3557
40443W        W83360   9.299   8.608  29.241 -0.4170  0.0340 -0.1727
40444W        W83361   9.345   9.851  28.142  0.2153 -0.1181 -0.3272
40445W        W83362   8.632   8.312  31.488 -0.0761  0.4863  0.2593
40446W        W83363  11.229   8.922  28.023 -0.2876 -0.2350 -0.0712
40447W        W83364   9.834   8.594  28.482 -0.3717  0.4170 -0.2592
40448W        W83365   9.309   8.970  31.151 -0.0726 -0.1700 -0.0895
40449W        W83366   7.011   7.674  25.689 -0.0126  0.0731 -0.1083
40450W        W83367  11.463   7.315  30.528 -0.0774  0.1921  0.3386
40451W        W83368   8.353   8.220  28.779 -0.2535  0.1663  0.1193
40452W        W83369   9.200  11.644  28.174  0.5120  0.0982 -0.0294
40453W        W83370  11.033  11.572  27.933  0.4386 -0.1626 -0.0647
40454W        W83371   7.856   8.347  27.214  0.2025  0.0295 -0.2152
40455W        W83372   9.841   8.925  27.727  0.1255  0.2522  0.0855
40456W        W83373   7.902   8.489  31.103 -0.3508  0.0546 -0.0826
40457W        W83374  10.186   9.263  27.733 -0.1865  0.1343 -0.0534
40458W        W83375   7.245   7.906  27.770 -0.1980 -0.3715  0.1215
40459W        W83376   8.154   7.521  29.384 -0.0476  0.1817  0.0004
40460W        W83377   9.671   9.301  27.353  0.0682 -0.0944 -0.3853
40461W        W83378  11.473  11.146  27.928 -0.0205  0.0147  0.2617
40462W        W83379  11.726   9.351  31.311  0.0575 -0.3670  0.1889
40463W        W83380   8.004  10.875  31.307  0.1534 -0.2434 -0.0332
40464W        W83381   9.510   5.769  29.030  0.1532 -0.0677  0.0413
40465W        W83382  11.616  10.404  28.765  0.0073 -0.3997  0.1746
40466W        W83383  12.464   8.548  31.809  0.1343 -0.0053 -0.0338
40467W        W83384   8.134   9.981  29.446  0.2136 -0.1527  0.2836
40468W        W83385   6.928   7.251  29.045  0.1515  0.1272 -0.1675
40469W        W83386  10.414  10.458  28.500 -0.1638  0.0347 -0.0138
40470W        W83387   9.596   7.696  30.216  0.0539 -0.1753 -0.1167
40471W        W83388   9.111  11.282  29.067  0.0015  0.0343 -0.0341
40472W        W83389   8.299  10.365  27.534 -0.1312  0.1176 -0.1861
40473W        W83390   7.387   8.447  30.393 -0.1965  0.2975  0.1601
40474W        W83391   9.754   7.062  26.942 -0.1417 -0.1696  0.3825
40475W        W83392  10.753   9.711  26.988 -0.0384 -0.1300 -0.2616
40476W        W83393  10.690   7.410  28.257  0.1586 -0.3486  0.2342
40477W        W83394  10.582   9.254  29.201  0.0587  0.0382  0.0380
40478W        W83395  10.010   8.999  26.094 -0.1453 -0.2114  0.2610
40479W        W83396  11.284   7.062  31.378 -0.1837 -0.0453 -0.0010
40480W        W83397   9.144   7.344  31.581  0.2095 -0.5791  0.1396
40481W        W83398  11.809   9.901  28.903  0.1251  0.3695  0.0525
40482W        W83399   8.130   8.024  28.405  0.0691 -0.0019  0.1442
40483W        W83400  10.885  11.472  29.679 -0.2211  0.1085 -0.0896
40484W        W83401   7.313   9.523   0.993  0.1273  0.0822 -0.1984
40485W        W83402   8.871  10.819  29.202  0.1422  0.1531 -0.1425
40486W        W83403   8.426   7.672  28.831  0.2098  0.0226  0.1331
40487W        W83404   9.268   9.288  30.757  0.1467 -0.5137  0.0746
40488W        W83405  12.004   9.479  29.181  0.3101  0.0190  0.0611
40489W        W83406  10.679  10.631  28.974  0.1286 -0.0587 -0.1419
40490W        W83407  12.221   8.513  29.463 -0.2707  0.0198 -0.1013
40491W        W83408   8.611  10.654  28.731 -0.1029 -0.2035  0.0927
40492W        W83409  10.331   9.428  28.172  0.0241  0.2574  0.4021
40493W        W83410   9.945   9.726  27.632  0.0731 -0.1469 -0.0565
40494W        W83411   7.881  11.199  29.897 -0.2817  0.0015  0.0584
40495W        W83412   9.179   7.671  28.958  0.1677  0.1247  0.4523
40496W        W83413  10.771   9.649  27.446 -0.1476  0.1665 -0.0933
40497W        W83414  10.362   7.612  27.429  0.2132  0.1269 -0.0537
40498W        W83415  11.688   6.280  28.264 -0.3546  0.0404  0.2835
40499W        W83416  10.544   9.600  29.928  0.0579 -0.0806 -0.1430
40500W        W83417   9.583   9.741  30.156 -0.0464  0.1797 -0.4045
40501W        W83418   6.813  10.506  29.422 -0.1116  0.1101 -0.1560
40502W        W83419  10.839  10.114  29.126 -0.3711  0.3650 -0.1319
40503W        W83420   9.251   8.792  25.500 -0.1626 -0.3271  0.4033
40504W        W83421  11.101   8.469  29.999 -0.1672 -0.0795 -0.1914
40505W        W83422  12.285  10.370  30.137 -0.3684 -0.1033 -0.0247
40506W        W83423   9.668   9.297  26.367 -0.2231 -0.3387  0.0272
40507W        W83424   7.165   9.214  27.871 -0.0209  0.0709  0.4323
40508W        W83425  11.524   8.670  29.429 -0.1520 -0.2755 -0.1854
40509W        W83426   6.549   6.758  26.080 -0.4218  0.0823  0.2380
40510W        W83427  10.079   9.073  30.527  0.0830  0.0485 -0.0317
40511W        W83428  10.800   8.763  30.262 -0.0788  0.1238  0.0045
40512W        W83429   9.007   9.855  29.010  0.2021 -0.0091 -0.2225
40513W        W83430  11.344  10.028  26.389 -0.1393  0.3034 -0.0542
40514W        W83431   6.316   9.145  28.117  0.2080 -0.0426 -0.1375
40515W        W83432   9.049  11.294  31.688  0.2093  0.1161 -0.0466
40516W        W83433   6.918   6.897  27.493 -0.0532  0.2155  0.1244
40517W        W83434  10.316   9.701  25.846  0.1093 -0.3448  0.1899
40518W        W83435   9.329   6.733  30.277  0.3055  0.3558 -0.1492
40519W        W83436   9.938   9.509   0.170 -0.0983 -0.0882  0.2549
40520W        W83437  10.069   8.163  28.301  0.2647 -0.1203 -0.0779
40521W        W83438   9.556   9.706  30.757 -0.2335 -0.1964  0.3444
40522W        W83439   7.935  10.035  27.666  0.1726 -0.0826 -0.0134
40523W        W83440   8.458   7.454  29.895  0.4251 -0.2522 -0.0332
40524W        W83441   7.220  12.101  30.728  0.1808  0.1760 -0.1225
40525W        W83442   6.181  11.652  31.731 -0.0243  0.0517 -0.1942
40526W        W83443  10.856  11.890  30.041  0.0460 -0.1129  0.2604
40527W        W83444   9.902   9.176  28.312 -0.3010  0.3220 -0.0165
40528W        W83445  10.780  10.290  28.119  0.0306 -0.1153  0.1593
40529W        W83446   9.530   9.490  28.410 -0.1218  0.0513  0.2163
40530W        W83447  10.553   9.189  31.427  0.1296 -0.1199  0.0419
40531W        W83448   8.335   9.562  29.644 -0.4351  0.1060 -0.0235
40532W        W83449   7.635   9.404  31.171  0.0794 -0.2436  0.2122
40533W        W83450  10.239  10.423  29.753  0.1149  0.2711 -0.2928
40534W        W83451  10.386   8.398  27.957 -0.0331  0.1504  0.3921
40535W        W83452  11.662   9.999  29.431 -0.1710 -0.1307  0.1055
40536W        W83453   6.679   9.051  29.155 -0.0742  0.1943  0.1122
40537W        W83454   7.920  10.865  29.497 -0.1530 -0.1568  0.0951
40538W        W83455  10.392   9.756  29.247  0.0724 -0.1965 -0.1593
40539W        W83456   9.402   5.698  28.409  0.2306  0.2330  0.3060
40540W        W83457  10.885  10.233  26.800  0.2013 -0.0887 -0.1430
40541W        W83458   7.287  10.478  30.650  0.1501  0.1540 -0.1084
40542W        W83459   6.971  11.160  30.294 -0.2140  0.2775  0.2217
40543W        W83460   8.265  11.766  28.252 -0.0629  0.1470  0.0592
40544W        W83461   9.415   8.517  28.221 -0.1935 -0.0313 -0.1115
40545W        W83462  10.258   8.823  28.218 -0.0481  0.0134 -0.1777
40546W        W83463  11.071   9.903  28.088 -0.3188 -0.2338 -0.2193
40547W        W83464   9.218  10.244  27.709  0.1374 -0.2283  0.0032
40548W        W83465   7.100   8.692  28.428  0.2542  0.3355 -0.0308
40549W        W83466   7.072   9.598  28.634 -0.0593 -0.1525 -0.2724
40550W        W83467  12.857  11.570  27.204  0.0501  0.1181 -0.1620
40551W        W83468   8.664   9.887  28.547 -0.3278  0.0092  0.0765
40552W        W83469  11.061  11.119  28.957  0.0284 -0.2728 -0.0375
40553W        W83470  10.191   7.652  28.974  0.1842 -0.0125  0.1963
40554W        W83471  10.046   9.247  29.194 -0.0113 -0.0549  0.0281
40555W        W83472  12.175   8.905  27.657 -0.1807  0.1520 -0.0873
40556W        W83473  11.480  10.043  30.360 -0.2096  0.1675  0.1945
40557W        W83474   8.626   7.304  29.154 -0.1902  0.0709  0.0739
40558W        W83475   9.157   7.356  27.266 -0.1154  0.2317  0.1642
40559W        W83476   8.551   9.385  30.115  0.4325 -0.1032  0.1195
40560W        W83477  13.161   7.143  30.865 -0.1736 -0.0828  0.1131
40561W        W83478   8.789  11.238  30.028 -0.1245  0.1003 -0.1568
40562W        W83479  12.614  10.253  28.717  0.0468  0.1092  0.0553
40563W        W83480   6.686   8.893  28.508  0.1652 -0.2272  0.0897
40564W        W83481   8.189   9.659  28.675  0.0038 -0.0383 -0.1183
40565W        W83482   9.995   7.488  30.495 -0.3538 -0.0814 -0.1738
40566W        W83483   7.394  10.852  28.483 -0.3245 -0.3056  0.2644
40567W        W83484  10.548   7.314  29.229 -0.0705  0.5563 -0.1545
40568W        W83485   9.432  12.148  27.935  0.0223 -0.1458 -0.0460
40569W        W83486   7.634   9.963  29.286 -0.1639 -0.1333 -0.1463
40570W        W83487   8.975  12.589  31.645 -0.0213  0.0177  0.0840
40571W        W83488   7.080   8.194  28.601 -0.1880 -0.1517  0.3990
40572W        W83489  11.077   8.121  28.601 -0.1789  0.2356 -0.2292
40573W        W83490   8.396  10.376  29.477  0.2773 -0.3150 -0.1185
40574W        W83491  10.253   8.115  29.997 -0.1060 -0.1008  0.1202
40575W        W83492   9.372   7.698  27.649 -0.0764 -0.1408 -0.2743
40576W        W83493  12.993   8.746  30.606  0.2399  0.1196  0.2092
40577W        W83494   9.934   8.443  30.846  0.1869 -0.0109 -0.1342
40578W        W83495   7.227   8.658  29.938 -0.3962  0.2012  0.2142
40579W        W83496   9.001  10.087  26.759 -0.0882  0.0868 -0.1517
40580W        W83497  10.293   8.700  30.295  0.0108  0.0237 -0.3023
40581W        W83498   9.518   7.512  25.841 -0.4308  0.1878 -0.0206
40582W        W83499   9.169   9.973  30.271  0.1845  0.3798  0.1423
40583W        W83500   8.683   6.802  29.874 -0.0157 -0.0898  0.1307
40584W        W83501   8.385   7.184  26.846 -0.1553  0.0636 -0.1415
40585W        W83502  10.107   9.740  28.584 -0.0394 -0.2820 -0.0819
40586W        W83503  10.680   8.434  29.392  0.0293  0.0399 -0.0354
40587W        W83504  10.535   9.972  28.734 -0.1020 -0.2856  0.1100
40588W        W83505   8.691   8.905  28.512 -0.0817 -0.2661  0.0359
40589W        W83506  12.381   9.741  26.810 -0.2452  0.0752 -0.0156
40590W        W83507   9.632   9.074  28.769 -0.0098 -0.3032 -0.0875
40591W        W83508  11.284   9.801  25.905  0.0969  0.2011 -0.0541
40592W        W83509  11.651   8.198  27.479  0.1290 -0.0356  0.0128
40593W        W83510  11.973   9.978  30.442  0.0453 -0.1531 -0.0703
40594W        W83511   7.497   7.380  30.170  0.1115 -0.0531 -0.0814
40595W        W83512  10.547   9.190  27.368  0.2467 -0.2647  0.0313
40596W        W83513  12.405  10.023  29.130 -0.2162 -0.0956  0.0096
40597W        W83514  10.744   9.117  27.963  0.2545 -0.0587  0.0460
40598W        W83515   8.344   7.989  29.311  0.2198 -0.2191  0.2123
40599W        W83516   9.412  12.738  27.939  0.0414 -0.1695 -0.1919
40600W        W83517  11.163   8.292  29.438 -0.0807  0.2200 -0.3498
40601W        W83518  10.012   8.549  29.910  0.0143  0.1930  0.1298
40602W        W83519  10.349  12.689  28.237 -0.0537 -0.1629 -0.0960
40603W        W83520  11.125   6.949  30.324 -0.2139 -0.2806 -0.1887
40604W        W83521   9.673   8.396  29.528  0.7037 -0.2327 -0.0189
40605W        W83522   9.385  11.102  30.994  0.2220  0.1616  0.0102
40606W        W83523   7.226   8.618  26.104 -0.0623  0.1178  0.1461
40607W        W83524   9.120   8.971  28.866 -0.0262  0.2795 -0.0300
40608W        W83525   7.813   9.544  29.118 -0.3189 -0.2495  0.0488
40609W        W83526   9.111  12.551  27.506  0.2247  0.1245  0.1221
40610W        W83527  10.775  12.676  27.961 -0.1407  0.2495  0.1924
40611W        W83528   8.677   9.881  29.460  0.0280  0.1142  0.0070
40612W        W83529  11.118   8.655  28.604  0.2559  0.3732 -0.1723
40613W        W83530   8.686   8.075  28.427 -0.0902  0.0309  0.0843
40614W        W83531  11.517   9.058  26.288 -0.0903 -0.3336 -0.0452
40615W        W83532  10.835   6.591  27.882 -0.0991 -0.1103 -0.2097
40616W        W83533   9.339   9.124  29.286 -0.1368  0.1914 -0.3933
40617W        W83534   7.537   8.735  27.383 -0.2815 -0.3048  0.0612
40618W        W83535   9.016   8.382  26.956 -0.2352 -0.0508 -0.1113
40619W        W83536   8.238  10.346  30.397 -0.1118  0.0336  0.0119
40620W        W83537   8.985   9.650  29.898 -0.0223  0.1745 -0.3379
40621W        W83538   7.899  10.399  29.741  0.0119 -0.0969 -0.3787
40622W        W83539   7.602   9.097  29.174  0.1417 -0.0131  0.1021
40623W        W83540   7.962   7.211  28.850 -0.0091  0.1854 -0.0314
40624W        W83541  11.969  10.302  29.130  0.2718 -0.1402 -0.1747
40625W        W83542   8.730   8.386  29.367 -0.2600 -0.1246  0.0939
40626W        W83543   7.301   8.164  29.665  0.1812  0.0423  0.2408
40627W        W83544  11.679   9.801  27.535  0.1327  0.3175  0.0666
40628W        W83545  12.909   9.329  28.391  0.0486  0.1876 -0.1152
40629W        W83546   8.346   7.069  29.536 -0.3979 -0.2288 -0.0437
40630W        W83547   9.253  10.106  29.719 -0.0677 -0.0067  0.1253
40631W        W83548   8.322  10.782  26.001  0.0640 -0.1423 -0.1085
40632W        W83549  10.042  10.952  31.803 -0.2108 -0.1787 -0.4985
40633W        W83550   7.472   9.377  28.757  0.2105 -0.2920 -0.1694
40634W        W83551   8.612   5.834  30.764 -0.3326 -0.0924  0.1773
40635W        W83552   8.787   7.985  29.016 -0.2317 -0.3192 -0.1693
40636W        W83553   8.302  11.728  29.207 -0.4308  0.0042 -0.0746
40637W        W83554  11.277  12.735  28.051 -0.0058 -0.1643  0.0365
40638W        W83555   8.973  10.313  29.313 -0.0232  0.1838  0.0210
40639W        W83556   9.375  11.221   0.855  0.0169  0.1121 -0.0237
40640W        W83557   8.137   5.998  30.962  0.1287 -0.0433 -0.0125
40641W        W83558  12.431  10.548  26.340 -0.0064 -0.3448 -0.0238
40642W        W83559   8.096  10.552  28.921 -0.1332  0.0578 -0.2543
40643W        W83560  11.482  10.480  27.351  0.0036 -0.1609  0.1932
40644W        W83561  11.414   7.161  28.757  0.2260 -0.0990 -0.0785
40645W        W83562   9.661   9.392  27.937 -0.1028  0.0592 -0.2363
40646W        W83563   8.953   6.678  31.092  0.0087  0.0101 -0.1202
40647W        W83564   6.995   9.805  31.176  0.2286  0.0717 -0.1635
40648W        W83565  11.275   8.994  30.107 -0.0898  0.0354 -0.4037
40649W        W83566   8.872   7.697  27.843  0.0125 -0.1982 -0.0962
40650W        W83567   9.412   8.555  28.716  0.2168  0.0685 -0.0461
40651W        W83568   8.471  10.364  25.761  0.1067  0.0305  0.0154
40652W        W83569   8.033   9.497  28.233  0.5792 -0.1657 -0.0692
40653W        W83570   7.943   9.216  28.609 -0.0812  0.0521 -0.1579
40654W        W83571  11.519   8.289  30.945 -0.0029  0.2571  0.0626
40655W        W83572  11.013  10.189  28.598  0.2903 -0.0424 -0.1345
40656W        W83573   8.999   9.294   0.137  0.0338 -0.2360  0.2358
40657W        W83574   9.034   9.342  28.295  0.0642  0.0148 -0.0487
40658W        W83575  12.138   8.019  29.303  0.1464 -0.0398  0.1379
40659W        W83576  10.357  10.268  29.224 -0.2717 -0.0230 -0.3789
40660W        W83577  11.813  12.146  30.391 -0.1951  0.0274 -0.0043
40661W        W83578   8.861   9.758  28.029 -0.0456  0.1482  0.2236
40662W        W83579   8.877   8.500  28.844 -0.2738  0.1324  0.0641
40663W        W83580   7.875   6.030  30.250  0.0998 -0.2826 -0.0376
40664W        W83581   8.465   9.144  29.439 -0.0279  0.0007  0.0707
40665W        W83582   7.543   8.858  28.616  0.0102  0.1011 -0.1722
40666W        W83583  10.785   8.263  28.228  0.1573 -0.0778  0.1196
40667W        W83584   7.856   8.530  28.143 -0.0145 -0.2126 -0.0284
40668W        W83585   9.747   6.589  28.642  0.0668  0.1120 -0.1674
40669W        W83586  10.922  10.177  31.714  0.0744 -0.0042 -0.2520
40670W        W83587   9.810   8.461  29.032 -0.1892 -0.0158 -0.1752
40671W        W83588  12.066   7.984  30.530 -0.0896 -0.0072  0.2092
40672W        W83589   8.785  10.320  29.815 -0.0859  0.1938  0.1623
40673W        W83590   9.219  10.517  30.017  0.1609 -0.1273 -0.0958
40674W        W83591   7.942  11.110  30.840 -0.1327  0.3008 -0.0869
40675W        W83592  10.059  10.949  30.575  0.2980  0.3035  0.2274
40676W        W83593   8.246  11.195   0.539 -0.0111  0.1443  0.1221
40677W        W83594  11.283   8.589   1.255 -0.3200  0.1902 -0.2024
40678W        W83595  10.194   7.861  31.004 -0.3392 -0.2136  0.1197
40679W        W83596  10.124  10.075   1.338 -0.2133 -0.2108  0.2164
40680W        W83597  10.050   9.962  29.600  0.0464 -0.2735  0.1471
40681W        W83598  11.490   9.731   0.225  0.0956 -0.2374 -0.0604
40682W        W83599  10.479   7.946  29.519  0.0566 -0.0993  0.1931
40683W        W83600  10.515  10.850   1.087  0.0327 -0.2123 -0.2148
40684W        W83601   9.043  10.867  31.949  0.1129 -0.2233 -0.0325
40685W        W83602  11.604   7.797  30.759  0.0967  0.1217  0.0662
40686W        W83603   8.176   9.918  31.835  0.0004  0.0001 -0.1577
40687W        W83604   9.148  10.074  31.603 -0.2351  0.0106  0.0335
40688W        W83605  10.930  10.011  30.017 -0.1171 -0.0433  0.1091
40689W        W83606   6.213   7.651   1.304 -0.0659 -0.0275  0.0951
40690W        W83607   9.401   8.955  30.399 -0.2053  0.0872 -0.2193
40691W        W83608   8.786   8.101  29.820 -0.3032 -0.1310  0.3266
40692W        W83609   6.890  10.395  31.577 -0.3658  0.0086  0.0741
40693W        W83610  10.567   8.499  29.884 -0.0863 -0.3605  0.1828
40694W        W83611   9.812   9.687  31.249 -0.2506 -0.0734 -0.1867
40695W        W83612   9.835   8.718  31.759  0.1915  0.3822 -0.0889
40696W        W83613  11.129   8.488  31.723 -0.2608  0.0356  0.1244
40697W        W83614   8.200   7.434  30.321  0.0739  0.0065 -0.0986
40698W        W83615   9.323  11.551  30.623  0.2016  0.0087 -0.1267
40699W        W83616   9.028  10.280  31.218 -0.0348 -0.0294 -0.1652
40700W        W83617   8.943   9.657  30.762  0.4891 -0.0885  0.2624
40701W        W83618  10.184   9.231  31.090 -0.0571  0.0926  0.2718
40702W        W83619   9.639   9.721  29.593 -0.0104  0.0076 -0.0929
40703W        W83620  10.290  11.149  31.007 -0.0610  0.1408  0.3182
40704W        W83621  11.984   9.429  30.519 -0.1069 -0.0126  0.4070
40705W        W83622   9.594   8.006   0.471 -0.0275 -0.0016 -0.5112
40706W        W83623   7.342   8.538  31.662  0.0386 -0.0951  0.0805
40707W        W83624   8.741  12.508   0.099  0.2807 -0.0373  0.0624
40708W        W83625   9.732  10.308  29.871 -0.1700 -0.2938 -0.0865
40709W        W83626  10.357   9.095   0.484  0.1152  0.4003 -0.2859
40710W        W83627  10.582  11.068  31.809  0.1005 -0.1510  0.1843
40711W        W83628  10.007  10.025  30.483 -0.1218 -0.3794  0.1065
40712W        W83629  12.544   9.039  31.415  0.0571  0.2153 -0.2855
40713W        W83630   8.917   6.876  31.553 -0.0220  0.0359 -0.0405
40714W        W83631  10.202  10.227   0.298 -0.0423  0.0182 -0.0998
40715W        W83632   9.008   8.574  29.996  0.1337 -0.3409  0.3219
40716W        W83633  10.396   8.126   0.294  0.2005  0.2753 -0.2514
40717W        W83634   9.057   8.116  31.656  0.2299  0.3696 -0.0233
40718W        W83635   9.798  10.620   0.163  0.1924  0.0367 -0.0361
40719W        W83636  10.584  12.218  29.805  0.2812 -0.2093  0.2361
40720W        W83637   7.417  10.202   0.508 -0.2581  0.2497 -0.2297
40721W        W83638   8.906   9.143  29.848  0.2403 -0.2082  0.2543
40722W        W83639  11.513   5.858   0.603 -0.1021 -0.1586 -0.0665
40723W        W83640   9.793   9.143   0.440  0.1156  0.0046  0.1801
40724W        W83641   8.242  10.791  29.897  0.0297 -0.0198 -0.2118
40725W        W83642   9.101   9.466  30.336 -0.2415  0.0290  0.1569
40726W        W83643  11.374   9.189  30.558  0.0615 -0.0192  0.1391
40727W        W83644  10.071   7.686  29.929 -0.1357 -0.1162  0.1748
40728W        W83645  10.398  10.702  30.881  0.1525 -0.0113 -0.1955
40729W        W83646   8.962   8.926  28.024  0.3587  0.1745 -0.0613
40730W        W83647   8.062   8.321   1.063 -0.0642 -0.0040 -0.3261
40731W        W83648   7.645   9.452   0.050 -0.0504  0.1165  0.1906
40732W        W83649   7.695   9.844  31.671 -0.0749 -0.0702 -0.1122
40733W        W83650   9.366   8.344   0.026  0.0936 -0.1660  0.0862
40734W        W83651   8.408   8.475  30.278  0.2854  0.0458  0.2348
40735W        W83652  11.213  11.088   0.280  0.1533  0.0178  0.1675
40736W        W83653  11.252  12.074  31.819 -0.2786  0.0710  0.2191
40737W        W83654  11.220  10.009   0.538 -0.1080 -0.3712  0.1601
40738W        W83655   9.066  14.232  21.311  0.0272 -0.2664  0.1540
40739W        W83656   7.709  12.273  19.349 -0.0640  0.0686 -0.3103
40740W        W83657  11.052  12.421  16.828  0.1249  0.1356  0.1127
40741W        W83658  10.055  14.093  16.445 -0.5693 -0.0852  0.1600
40742W        W83659   8.530  11.807  17.691  0.2112 -0.1436  0.2034
40743W        W83660   9.976  15.145  15.652 -0.0099  0.2753 -0.0987
40744W        W83661   8.273  10.326  16.775  0.1770  0.0258 -0.0775
40745W        W83662   8.802  14.711  17.348 -0.2753 -0.0571 -0.1028
40746W        W83663  10.600  14.882  19.365 -0.0693 -0.1197 -0.1171
40747W        W83664   8.182  13.014  16.003 -0.4404  0.2431  0.1502
40748W        W83665   8.135  12.297  19.706  0.2112  0.0614 -0.0709
40749W        W83666   7.398  13.060  20.617  0.1136  0.1087  0.1338
40750W        W83667   9.898  11.099  15.607 -0.0995  0.0630 -0.1666
40751W        W83668   7.487  11.837  16.635 -0.0675 -0.0177 -0.4187
40752W        W83669   9.761  11.410  17.502 -0.2621 -0.0702  0.3195
40753W        W83670   9.318  13.737  16.348 -0.2003 -0.2140  0.1342
40754W        W83671   8.720  11.453  19.284  0.1320  0.0874  0.2423
40755W        W83672   8.359  10.252  20.571 -0.1232 -0.2363  0.3205
40756W        W83673   8.844  15.664  17.540  0.0834 -0.2674  0.2078
40757W        W83674   8.245  11.443  19.879  0.0885  0.0265  0.1497
40758W        W83675  10.091  10.930  19.406 -0.4031 -0.0837 -0.0174
40759W        W83676   9.363  14.642  16.961 -0.0127 -0.2050  0.1284
40760W        W83677   6.763  13.913  17.533 -0.0273  0.0225  0.1373
40761W        W83678   8.527  12.073  17.280 -0.3126 -0.3285  0.1267
40762W        W83679   8.056  12.318  18.365  0.3567  0.2133 -0.2816
40763W        W83680   9.306  14.434  19.605  0.0567 -0.0897 -0.4029
40764W        W83681  10.006  11.132  17.143 -0.1854 -0.2132  0.0337
40765W        W83682   8.099  12.642  19.350  0.1367 -0.2838 -0.2954
40766W        W83683   9.430  12.600  18.499 -0.0762 -0.1055  0.1611
40767W        W83684  10.275  11.400  18.643  0.0245 -0.4129  0.1013
40768W        W83685   6.861  12.093  18.204 -0.1148  0.3210 -0.1209
40769W        W83686   7.220  16.298  16.868  0.1627  0.1180 -0.1052
40770W        W83687   8.740  14.025  18.090  0.0398  0.0074 -0.0051
40771W        W83688   9.805  13.006  16.155 -0.1613 -0.2727  0.0724
40772W        W83689  11.948  12.639  17.654 -0.2528  0.1272  0.1775
40773W        W83690   9.042  15.377  19.018  0.2569 -0.1725  0.1841
40774W        W83691   6.659  12.479  16.909 -0.3217  0.2110  0.0030
40775W        W83692   7.381  14.439  19.494 -0.1171  0.0232  0.1966
40776W        W83693   7.433  12.216  18.930  0.0968 -0.4212  0.0946
40777W        W83694  10.667  12.372  17.612  0.1222  0.1738  0.0459
40778W        W83695   8.100  11.258  16.853 -0.0247 -0.0657  0.1468
40779W        W83696   9.011  14.034  16.051  0.5711 -0.1253  0.0257
40780W        W83697   8.363  12.033  18.613 -0.1496  0.1333  0.0092
40781W        W83698   7.455  13.173  18.539 -0.1370 -0.2831 -0.2097
40782W        W83699   8.510  13.447  16.644 -0.4974  0.2373  0.1992
40783W        W83700  10.696  11.666  18.400  0.1128 -0.1312 -0.0161
40784W        W83701   8.146  14.345  16.545  0.0823 -0.0268 -0.1066
40785W        W83702   9.554  12.305  15.722  0.0421  0.2499 -0.0416
40786W        W83703   7.973  12.128  16.149 -0.0236 -0.1697  0.2135
40787W        W83704  10.598  10.936  15.890  0.2069  0.2414  0.2065
40788W        W83705   9.115  10.081  19.451  0.0136  0.0905 -0.1377
40789W        W83706   8.440  13.866  20.710  0.3058  0.3409  0.1162
40790W        W83707   7.338  11.457  17.821 -0.0626 -0.0766  0.0094
40791W        W83708  10.772  11.529  16.769 -0.1375  0.1377 -0.1210
40792W        W83709   9.749  13.808  16.672 -0.1610  0.0685 -0.0928
40793W        W83710   8.790  11.985  20.574 -0.0526  0.1002 -0.1536
40794W        W83711   8.428  12.945  16.485 -0.1145 -0.0136 -0.5838
40795W        W83712   6.463  10.352  16.763 -0.0743 -0.2398 -0.4424
40796W        W83713   8.984  15.431  15.955 -0.1352  0.1754  0.0556
40797W        W83714   9.610  12.102  16.222  0.0525  0.5691 -0.1213
40798W        W83715   9.709  12.453  15.240  0.2860  0.1741  0.0417
40799W        W83716   7.792  11.836  17.089  0.0686  0.0739 -0.0257
40800W        W83717   7.768  14.176  21.422  0.0027 -0.0945  0.0439
40801W        W83718   6.687  12.528  19.032 -0.0746  0.1584 -0.0016
40802W        W83719   8.310  10.884  15.818 -0.0005  0.0450 -0.0253
40803W        W83720  12.489  13.212  18.462  0.0645  0.1155 -0.3191
40804W        W83721   8.323  13.218  18.618 -0.0839 -0.0261 -0.2370
40805W        W83722  10.943  11.597  19.231  0.1181 -0.0751  0.4027
40806W        W83723   9.460  11.426  18.781 -0.2400  0.0564  0.2199
40807W        W83724   9.649  12.710  18.963  0.1734 -0.1680  0.3245
40808W        W83725   9.724  12.753  14.766 -0.0497 -0.0350  0.3238
40809W        W83726   8.710  10.614  18.819  0.0206 -0.1026 -0.3580
40810W        W83727   9.105  10.437  19.022 -0.1132  0.0778  0.2935
40811W        W83728   9.778  13.741  16.125 -0.1491  0.1797  0.0411
40812W        W83729   8.967  11.978  17.499 -0.1450 -0.0658 -0.0657
40813W        W83730   9.754  12.562  16.663  0.1432 -0.1340 -0.1763
40814W        W83731   9.701  13.342  16.482  0.1148 -0.2257  0.0098
40815W        W83732   7.751  12.825  18.972  0.0737 -0.2450 -0.1638
40816W        W83733   8.094  12.117  21.169 -0.1499 -0.1107 -0.0005
40817W        W83734   8.706  14.898  18.571  0.1327  0.0662 -0.2866
40818W        W83735   6.489  15.886  16.886 -0.0035 -0.2542 -0.0633
40819W        W83736   6.864  13.920  16.981  0.2641  0.3155  0.0252
40820W        W83737   8.686  13.662  15.604 -0.1854 -0.0440  0.1229
40821W        W83738   8.009  11.164  19.380  0.1230  0.1266 -0.1557
40822W        W83739   9.189  12.901  17.670 -0.2644  0.1822  0.0864
40823W        W83740  10.149  10.641  15.809  0.0306  0.3051 -0.3268
40824W        W83741   8.507  13.262  17.119 -0.2332  0.2043 -0.0913
40825W        W83742  10.671  10.707  19.363  0.0418  0.0203 -0.1094
40826W        W83743   6.777  13.500  17.872  0.1464  0.4036 -0.1849
40827W        W83744  11.577  14.465  15.360  0.3753 -0.2953  0.1544
40828W        W83745   9.503  11.083  16.381 -0.4487 -0.0334 -0.1795
40829W        W83746  10.684  14.946  16.229 -0.1253 -0.0543  0.2630
40830W        W83747   7.084  12.552  18.372  0.0739 -0.4358  0.3244
40831W        W83748   8.403  12.547  16.137 -0.3356 -0.2266 -0.2654
40832W        W83749   6.829  12.929  18.724  0.1630 -0.2172  0.0378
40833W        W83750   6.334  11.544  18.937 -0.0873 -0.1788  0.1878
40834W        W83751  11.539  12.728  18.771  0.0263  0.2396  0.1230
40835W        W83752   7.496  10.386  15.617  0.0057 -0.0931 -0.2450
40836W        W83753  10.133  13.596  16.416 -0.1984  0.2330 -0.0161
40837W        W83754   9.050  12.646  18.110 -0.0001  0.4001  0.0492
40838W        W83755   7.459  12.736  16.496 -0.2301  0.0769  0.2155
40839W        W83756   9.835  12.045  20.876  0.1578 -0.1313  0.0799
40840W        W83757   8.851  15.420  16.417  0.1986 -0.2636 -0.3924
40841W        W83758   8.887  12.656  20.146 -0.0154  0.0391  0.0339
40842W        W83759   9.446  13.544  18.401 -0.0671  0.2206 -0.0101
40843W        W83760   9.777  12.486  19.717  0.0926  0.0282 -0.2403
40844W        W83761   8.930  11.406  16.265 -0.0824 -0.0861 -0.0145
40845W        W83762   6.768  14.800  16.889  0.0740  0.0988 -0.0158
40846W        W83763   7.676  14.284  16.889  0.1912  0.1293 -0.1629
40847W        W83764   7.450  11.355  17.116 -0.0344 -0.3486 -0.2174
40848W        W83765   9.171  14.764  18.689 -0.1295  0.2100  0.2861
40849W        W83766   7.240  12.724  18.928 -0.1200 -0.0419 -0.0192
40850W        W83767   6.494  16.285  18.347  0.0262  0.0840 -0.0739
40851W        W83768   7.383  11.509  18.911 -0.0569  0.1899  0.0496
40852W        W83769  11.700  11.784  17.266 -0.1312 -0.0093  0.1564
40853W        W83770   7.919  11.864  18.073  0.1264  0.1237 -0.1511
40854W        W83771   8.210  11.143  16.221  0.0311  0.2740 -0.2356
40855W        W83772  11.164  15.812  15.889  0.1200 -0.4057 -0.0006
40856W        W83773   7.801  14.673  16.651 -0.1397  0.0131 -0.2261
40857W        W83774   9.075  14.174  16.705  0.2790 -0.1366  0.1282
40858W        W83775   8.294  12.382  16.580 -0.1012 -0.2153  0.1464
40859W        W83776  11.859  12.756  18.396  0.1684  0.0876  0.1923
40860W        W83777   6.373  15.280  19.962  0.0764  0.1191 -0.4211
40861W        W83778   9.962  10.153  18.198 -0.1381 -0.0724  0.1009
40862W        W83779   9.141  12.237  17.071 -0.1825  0.5095  0.0613
40863W        W83780   7.391  13.478  18.099  0.0697  0.0168  0.0293
40864W        W83781   8.789  10.089  16.755  0.3083 -0.1845  0.0122
40865W        W83782  10.420  12.136  14.803 -0.0004  0.5201 -0.1331
40866W        W83783   8.625  11.612  20.298  0.2827 -0.1460  0.0108
40867W        W83784   8.555  13.381  17.638  0.2643  0.2800  0.4578
40868W        W83785   9.529  11.036  16.900  0.2839  0.1934  0.0223
40869W        W83786  10.541  12.619  14.712 -0.0824 -0.1702  0.2716
40870W        W83787   7.356  16.778  18.738  0.1766  0.0322 -0.1565
40871W        W83788   9.114  13.099  19.210  0.1860 -0.0129 -0.0511
40872W        W83789   9.651  13.025  16.939  0.1753 -0.1298  0.2714
40873W        W83790   9.486  11.172  15.912  0.2499 -0.0500  0.0909
40874W        W83791   9.553  12.797  15.782 -0.2500  0.0340 -0.2487
40875W        W83792   6.605  12.665  17.938 -0.0841 -0.0359 -0.2668
40876W        W83793   9.373  12.770  20.032  0.0529 -0.0221 -0.0028
40877W        W83794   9.804  13.431  18.686 -0.0482 -0.0745 -0.1232
40878W        W83795   9.620   8.783  19.209 -0.0372  0.2424 -0.2471
40879W        W83796   7.655  12.908  15.788  0.2023  0.2127  0.2255
40880W        W83797   9.575  10.357  17.107 -0.1256  0.2557  0.0230
40881W        W83798   6.379  14.523  16.440  0.2192  0.0727 -0.0298
40882W        W83799   9.202  12.428  17.564 -0.0157 -0.2498 -0.0845
40883W        W83800   8.616  10.018  18.081 -0.4390 -0.1212 -0.0237
40884W        W83801   9.866  11.726  17.024  0.0193 -0.0064  0.1360
40885W        W83802  11.313  12.267  20.209  0.2429  0.2438  0.2148
40886W        W83803  10.364  11.967  17.784 -0.1578 -0.0449 -0.2268
40887W        W83804   8.843  13.065  17.379 -0.0085 -0.2616 -0.2177
40888W        W83805   6.963  11.533  15.909  0.3925  0.0663  0.1122
40889W        W83806   7.140  12.283  21.342 -0.1414 -0.0621  0.0154
40890W        W83807   8.560  15.593  19.267 -0.1072 -0.1795  0.0529
40891W        W83808   7.186  14.400  19.062  0.3591 -0.2939 -0.0258
40892W        W83809  11.025  11.232  18.797 -0.6219  0.0205 -0.0968
40893W        W83810   9.444  11.461  16.707 -0.2716 -0.0901  0.0196
40894W        W83811  10.128  10.708  21.193  0.2039  0.0292  0.2384
40895W        W83812   9.595  12.152  17.293  0.1762 -0.0067  0.1673
40896W        W83813   7.344  14.846  16.829  0.3701 -0.0254  0.1548
40897W        W83814   7.224  13.847  17.793  0.3525 -0.1239 -0.2186
40898W        W83815   8.104  12.796  18.020  0.0418  0.1661 -0.1774
40899W        W83816   8.655  12.713  19.086 -0.3814 -0.2351  0.1311
40900W        W83817   8.153  14.257  16.070 -0.1771 -0.1730 -0.0891
40901W        W83818  10.762  14.361  17.499 -0.3322  0.1008 -0.4251
40902W        W83819  10.152  14.146  16.947 -0.2538  0.0058  0.0689
40903W        W83820   9.009  11.734  17.999  0.1466 -0.3880  0.1344
40904W        W83821   7.977  13.011  17.158 -0.0885  0.2790  0.1551
40905W        W83822   7.594  13.127  16.784 -0.1199  0.1243  0.1885
40906W        W83823   7.120  12.610  16.056 -0.0865  0.1455  0.1087
40907W        W83824   9.829  11.736  17.949  0.2579  0.0019  0.1038
40908W        W83825   9.917  11.278  16.686 -0.1512 -0.0723 -0.5838
40909W        W83826   6.278  11.446  19.660 -0.0430 -0.2990  0.1313
40910W        W83827   9.192  12.618  18.963 -0.2383 -0.0494 -0.1487
40911W        W83828   7.141  15.284  16.712  0.1208  0.0784  0.0595
40912W        W83829   9.430  13.088  18.718 -0.2128  0.2008 -0.2449
40913W        W83830  11.089  10.806  16.270  0.0332 -0.3682 -0.0281
40914W        W83831   9.493  13.289  17.402  0.0601  0.1221 -0.1787
40915W        W83832   7.853  15.338  19.781  0.1134  0.0030 -0.2207
40916W        W83833   6.659  11.007  17.397  0.0620  0.1525  0.1347
40917W        W83834  11.013  11.827  18.844 -0.0995  0.0291  0.1306
40918W        W83835   8.587  11.555  15.461 -0.1261  0.0017 -0.0641
40919W        W83836   6.671  14.327  16.784  0.0614  0.1440 -0.1254
40920W        W83837   9.538  11.857  19.571 -0.0722 -0.2235  0.2355
40921W        W83838   9.359  12.994  16.460  0.1010  0.0123 -0.0463
40922W        W83839   7.089  15.176  18.163  0.1474 -0.2109 -0.1641
40923W        W83840   6.359  12.210  18.272  0.3012  0.4495  0.3638
40924W        W83841  11.444  12.501  19.399  0.0005  0.2369  0.0507
40925W        W83842   7.638  12.044  18.471 -0.0630 -0.3804  0.1113
40926W        W83843   8.887  10.438  16.359  0.1329  0.2480  0.0522
40927W        W83844   8.349  12.680  17.006 -0.1662  0.0208 -0.0533
40928W        W83845   9.435  11.356  17.929  0.2244  0.0183  0.0198
40929W        W83846   9.581  10.532  18.938 -0.4192 -0.1513 -0.2592
40930W        W83847   7.195  13.710  20.014 -0.2510 -0.2416 -0.2277
40931W        W83848   8.624  10.605  16.997 -0.0872  0.1881 -0.0721
40932W        W83849  10.295  12.878  16.227 -0.0760 -0.0142 -0.0874
40933W        W83850  11.578  11.138  18.452 -0.2165  0.0373 -0.2227
40934W        W83851   9.186  13.232  15.517 -0.1428 -0.1970 -0.3439
40935W        W83852   6.177  12.986  17.776  0.2834  0.0292  0.3240
40936W        W83853   9.777  14.415  16.748  0.0657 -0.2908  0.0088
40937W        W83854   9.263  11.343  19.694 -0.0747  0.1090 -0.3346
40938W        W83855   7.367  13.938  16.727  0.2138  0.3291  0.0209
40939W        W83856   9.758  13.319  15.526  0.0768  0.1257  0.2062
40940W        W83857   6.266  13.263  19.894 -0.0291  0.1698  0.3428
40941W        W83858  10.160   8.751  17.055  0.1485 -0.4563  0.0842
40942W        W83859   9.984  11.984  15.917 -0.2056 -0.0705  0.0761
40943W        W83860   9.867  11.309  18.256 -0.0180 -0.0294  0.3747
40944W        W83861  10.726   9.940  18.363 -0.1585  0.0866  0.1787
40945W        W83862   9.627  13.758  15.305  0.1064  0.0921  0.1519
40946W        W83863   9.917  12.742  20.220  0.0421  0.1361  0.0040
40947W        W83864   7.610  12.548  18.481 -0.2428 -0.4117  0.0243
40948W        W83865  11.109  13.163  16.543 -0.0754  0.1067  0.0505
40949W        W83866   7.394  11.943  18.033 -0.0434 -0.1747  0.0368
40950W        W83867   9.318  12.274  19.745 -0.1044  0.3052 -0.0219
40951W        W83868   7.984  13.779  19.336 -0.0897  0.0281 -0.4827
40952W        W83869  10.389  11.264  16.625 -0.1223 -0.2601 -0.1994
40953W        W83870   7.306  12.546  17.524  0.0167  0.2089  0.1712
40954W        W83871   8.980  12.119  18.409  0.4418  0.2643 -0.2196
40955W        W83872  10.427  12.979  18.104 -0.1344  0.0365 -0.2011
40956W        W83873   9.432  15.415  15.719  0.0440 -0.1743 -0.2251
40957W        W83874  10.119  10.404  16.785  0.3479  0.0254  0.0462
40958W        W83875   6.931  11.891  17.734  0.0003 -0.2724 -0.2068
40959W        W83876   8.765  12.510  17.305 -0.1218  0.0678  0.1963
40960W        W83877   8.950  13.529  16.028 -0.0997  0.3161 -0.1637
40961W        W83878   6.535  13.092  18.246  0.2289  0.0854  0.0479
40962W        W83879   7.066  13.197  20.151  0.2444 -0.2207 -0.3442
40963W        W83880   9.342  12.072  18.099  0.0410  0.2882  0.0802
40964W        W83881  10.043  12.738  17.786 -0.2469 -0.3932  0.0233
40965W        W83882   8.963  11.330  17.771 -0.3350 -0.1429 -0.0816
40966W        W83883   9.347  11.627  16.246 -0.2832  0.0415 -0.1542
40967W        W83884   8.554  11.491  21.510 -0.4515 -0.1131 -0.2175
40968W        W83885   6.446  14.387  18.531 -0.2932  0.1498 -0.2057
40969W        W83886  10.185  14.238  17.460  0.1082 -0.2135 -0.1348
40970W        W83887  11.591   9.763  16.322 -0.0454 -0.0235  0.0517
40971W        W83888  10.462  11.964  17.251  0.0881 -0.2417 -0.3150
40972W        W83889  10.814  12.794  17.840 -0.0485 -0.0170 -0.3242
40973W        W83890   9.591  10.720  15.914 -0.4236  0.0431  0.0107
40974W        W83891   6.842  11.197  16.954 -0.0681 -0.1552  0.2702
40975W        W83892  10.516  11.196  19.524 -0.0539  0.0394 -0.0648
40976W        W83893   8.448  11.482  16.455 -0.0801  0.0230 -0.0065
40977W        W83894   9.781   9.862  20.102 -0.2858  0.1670 -0.1014
40978W        W83895   9.534  14.725  16.446 -0.1005  0.0933  0.0101
40979W        W83896   8.059  11.858  16.571 -0.3268 -0.0123  0.2974
40980W        W83897   9.646  11.788  18.437  0.1297  0.3985 -0.3659
40981W        W83898   7.789  12.929  17.598 -0.1939  0.1493  0.2007
40982W        W83899   7.897  16.228  20.186  0.1785  0.5141 -0.0402
40983W        W83900   6.802  12.626  16.460 -0.4101 -0.1538  0.1234
40984W        W83901   9.657  12.604  17.511  0.0810 -0.1558 -0.1752
40985W        W83902   9.396  11.170  20.183  0.0942  0.0794 -0.0400
40986W        W83903  11.864  12.589  20.483  0.0648  0.2405 -0.0963
40987W        W83904   9.232  10.857  15.564  0.0763  0.0726 -0.2622
40988W        W83905  10.990  10.486  19.996  0.4791 -0.2382  0.0827
40989W        W83906   8.152  13.157  19.111  0.0575 -0.1904 -0.1877
40990W        W83907  10.415  10.801  16.872 -0.0904  0.0813  0.3302
40991W        W83908   8.430  14.408  18.101  0.4163  0.1036 -0.2739
40992W        W83909   8.209  14.418  21.586  0.3155 -0.0958  0.0915
40993W        W83910   8.754  13.071  17.933  0.2532 -0.0984  0.1268
40994W        W83911   8.619  11.978  19.149  0.0399  0.0997 -0.0726
40995W        W83912   7.082  12.175  19.771  0.0329  0.0222 -0.0471
40996W        W83913  10.002  13.205  17.423 -0.0040 -0.2668  0.0764
40997W        W83914  11.504  13.104  18.394 -0.2755  0.2407  0.2127
40998W        W83915   9.796  15.594  20.261 -0.0756  0.1701 -0.0768
40999W        W83916   8.564  11.111  17.082 -0.0601  0.2792 -0.3466
41000W        W83917   9.851  13.706  19.236 -0.3362  0.1649 -0.0693
41001W        W83918   8.727  14.495  15.947 -0.0663 -0.0979  0.2812
41002W        W83919  10.301  12.692  18.577  0.0203 -0.2027  0.3183
41003W        W83920   5.813  11.848  20.392 -0.0093 -0.1485 -0.3065
41004W        W83921   8.551  14.271  21.029 -0.0211  0.1371  0.1781
41005W        W83922   8.356  13.605  18.985  0.1203  0.2161  0.2914
41006W        W83923   8.498  11.361  15.953  0.0389  0.0543  0.1391
41007W        W83924   8.100  15.064  16.404  0.2815 -0.0235 -0.1788
41008W        W83925   6.311  14.240  21.458 -0.1758  0.0314  0.0965
41009W        W83926   6.878  12.103  19.267 -0.0818 -0.0357 -0.1421
41010W        W83927   6.861  15.007  18.879 -0.2675  0.1684  0.1912
41011W        W83928   9.332  15.207  16.224 -0.1724 -0.2442  0.0296
41012W        W83929   9.709  14.110  17.589  0.1721 -0.3126  0.1124
41013W        W83930   9.827  12.247  17.809 -0.0604 -0.1178  0.0481
41014W        W83931   8.724  11.659  18.719  0.0288 -0.1553 -0.1323
41015W        W83932   7.742  14.859  17.099  0.0046 -0.0577  0.0522
41016W        W83933   7.412  14.514  17.278  0.0590  0.1685  0.1137
41017W        W83934  10.018  13.740  15.602 -0.2207 -0.0833 -0.4730
41018W        W83935   9.476  13.380  15.971  0.0052  0.0346 -0.0653
41019W        W83936  10.272  12.309  20.025  0.1153 -0.2290  0.0759
41020W        W83937  11.676  10.969  15.837 -0.2858 -0.0127 -0.1841
41021W        W83938  11.750  12.388  17.966  0.0306 -0.0546  0.1572
41022W        W83939   9.185  12.094  15.981  0.1436  0.0130 -0.1455
41023W        W83940   8.914  14.444  20.078  0.0228  0.0786 -0.0088
41024W        W83941   9.602  13.164  19.194 -0.2285 -0.1789  0.1947
41025W        W83942   7.655  11.380  16.655  0.0385 -0.0389  0.0749
41026W        W83943   7.704  11.088  21.184 -0.1444  0.1152  0.0548
41027W        W83944  11.188   9.810  19.076 -0.0149  0.3080 -0.2222
41028W        W83945   7.553  15.027  20.018 -0.2333  0.2052 -0.1424
41029W        W83946  11.502  15.390  15.770 -0.0557 -0.3376  0.0665
41030W        W83947   7.901  11.564  16.235  0.1159  0.3626  0.2086
41031W        W83948   9.822  12.978  18.466 -0.0537 -0.1298 -0.0454
41032W        W83949  10.010  12.190  16.939  0.4615  0.0668 -0.1180
41033W        W83950   9.220  13.999  17.925  0.0920  0.0903 -0.0850
41034W        W83951   8.303  11.450  17.990  0.3010 -0.2066  0.0658
41035W        W83952  10.044  13.389  15.925  0.0738  0.0302  0.0570
41036W        W83953   6.742  13.460  19.828 -0.1929  0.4409 -0.0422
41037W        W83954   9.258  13.132  19.696  0.0918  0.2797 -0.2202
41038W        W83955   7.588  10.806  16.995  0.0887 -0.0070  0.1461
41039W        W83956  10.469  11.184  18.064  0.0903 -0.1265 -0.0800
41040W        W83957   9.919  11.048  18.928  0.2024  0.0564 -0.2258
41041W        W83958   7.754  10.393  19.382 -0.4239 -0.0187  0.2960
41042W        W83959   8.979  12.018  16.574 -0.0264 -0.2343 -0.1581
41043W        W83960  10.620  10.518  16.139  0.0052 -0.2000  0.1245
41044W        W83961   8.403  11.895  19.607 -0.2791 -0.0248  0.2149
41045W        W83962   8.137  11.632  21.093 -0.1857 -0.0275  0.1240
41046W        W83963   7.328  13.006  17.273 -0.3206 -0.1313  0.2509
41047W        W83964   8.765  11.165  18.839 -0.0804  0.3800  0.2499
41048W        W83965   9.820  11.530  16.143  0.1824 -0.0446  0.1662
41049W        W83966   9.759  11.392  20.604 -0.2210  0.2282 -0.0314
41050W        W83967   7.828  10.124  17.577  0.2319  0.1457 -0.0479
41051W        W83968   8.297  11.555  17.197  0.1020  0.1477 -0.1208
41052W        W83969   8.713  12.333  16.863 -0.2093  0.1974  0.0308
41053W        W83970   9.995  12.636  19.330 -0.3958  0.1142  0.3074
41054W        W83971   9.973  14.744  17.642  0.2478 -0.0825 -0.1059
41055W        W83972   8.027  11.374  15.713 -0.0521  0.1885 -0.0164
41056W        W83973  11.388  13.225  15.527  0.0547 -0.2249 -0.1473
41057W        W83974  12.021  12.477  15.939 -0.1582  0.0051  0.0781
41058W        W83975   7.925  16.386  17.621  0.2901  0.0357  0.1663
41059W        W83976  10.510  12.940  15.310  0.2169 -0.0788  0.2799
41060W        W83977  10.131  12.366  17.397 -0.2243 -0.0293  0.1248
41061W        W83978   6.503  10.568  19.748 -0.2161  0.1789  0.1535
41062W        W83979  10.678  12.991  18.788  0.2768  0.1024  0.0390
41063W        W83980   9.146  13.440  17.764 -0.0788  0.2789  0.0811
41064W        W83981   8.981  10.938  16.535 -0.1335 -0.3485 -0.0052
41065W        W83982   6.942  12.268  17.300 -0.1098  0.2963  0.2608
41066W        W83983   7.558  16.095  17.218  0.2334 -0.0391 -0.0837
41067W        W83984   9.162  10.520  16.794 -0.0101  0.0278  0.0513
41068W        W83985  10.272  11.636  18.198 -0.2189 -0.2617  0.2130
41069W        W83986   8.900  13.168  16.481  0.0230  0.0891 -0.0403
41070W        W83987  10.361  10.921  16.323 -0.0199  0.0622  0.0592
41071W        W83988   7.693  13.394  19.007 -0.1004 -0.0886 -0.1040
41072W        W83989   6.614  15.280  20.466  0.3243 -0.0303  0.1241
41073W        W83990   7.142  12.657  16.926 -0.3644 -0.0269  0.0578
41074W        W83991   7.895  13.573  19.822  0.0488  0.3005 -0.0808
41075W        W83992   8.820  12.604  16.418 -0.0847  0.3087  0.1310
41076W        W83993   9.649  11.770  19.097 -0.1384 -0.1148  0.0997
41077W        W83994   8.344  12.656  18.722 -0.1961  0.0494 -0.0728
41078W        W83995  10.176  12.077  18.306 -0.2215  0.0071 -0.0363
41079W        W83996  11.294  11.324  16.548 -0.0242 -0.2722 -0.2346
41080W        W83997   6.578  12.091  19.730 -0.2152  0.0260 -0.0469
41081W        W83998   9.178  10.946  17.989  0.0447 -0.0261  0.1276
41082W        W83999   9.724   9.193  19.455  0.1555 -0.0370 -0.2665
41083W        W84000   7.058  14.010  19.443 -0.1219 -0.0352 -0.1365
41084W        W84001   6.861  11.977  16.827  0.1426  0.0702  0.2467
41085W        W84002   7.860  13.721  17.848  0.0407 -0.5874  0.3540
41086W        W84003   8.049  13.299  16.445 -0.1258 -0.3897 -0.1499
41087W        W84004   8.274   8.559  20.127 -0.1514  0.1356 -0.3244
41088W        W84005   7.491  12.776  18.048  0.0698 -0.3426 -0.2154
41089W        W84006   7.932  13.786  17.354 -0.0137 -0.1735  0.0477
41090W        W84007   7.299  11.054  16.650 -0.0459  0.2056 -0.2187
41091W        W84008   9.967  12.517  16.112 -0.0080 -0.3172  0.1460
41092W        W84009   8.651   9.166  17.836 -0.1031 -0.3028 -0.0016
41093W        W84010   8.562   9.823  19.303 -0.0500 -0.1451 -0.1531
41094W        W84011  10.568  13.085  15.868  0.2045  0.0225 -0.1486
41095W        W84012  10.272  12.141  16.270  0.1044  0.0148  0.1646
41096W        W84013   8.631  11.809  21.046  0.0195  0.0617 -0.0807
41097W        W84014   9.611  13.902  18.753  0.3685  0.0586  0.2342
41098W        W84015   7.290  14.004  17.201  0.1418 -0.2161  0.0665
41099W        W84016   9.018  12.287  19.302  0.2134  0.2209  0.5782
41100W        W84017   8.501  11.162  20.297  0.0449 -0.0078  0.0693
41101W        W84018   9.462  12.560  16.201 -0.0386  0.1161  0.0094
41102W        W84019   7.916  12.364  18.869 -0.2182 -0.2161  0.1502
41103W        W84020   9.273  12.752  17.160 -0.0541 -0.0211 -0.1849
41104W        W84021  10.309  15.527  15.975 -0.0756  0.1648  0.1469
41105W        W84022   9.519  10.994  18.438  0.0505  0.2739 -0.1304
41106W        W84023   8.924  13.781  19.103 -0.2335 -0.0476  0.0479
41107W        W84024   8.920  12.766  19.631  0.1733 -0.0174 -0.1053
41108W        W84025   8.533  11.871  16.784  0.1514  0.1292  0.1859
41109W        W84026   8.980  13.308  18.555  0.1000  0.2508 -0.1421
41110W        W84027  11.331  13.932  16.185 -0.3883 -0.0605 -0.0831
41111W        W84028  10.087  12.931  18.948 -0.2516 -0.3828 -0.1296
41112W        W84029   9.471  11.315  15.412 -0.0867  0.2613  0.0365
41113W        W84030   6.426   9.980  19.140  0.2318 -0.1277 -0.2136
41114W        W84031   8.526  13.940  19.453  0.2119 -0.0607 -0.2562
41115W        W84032  10.346  13.392  17.824  0.0509  0.0627  0.1543
41116W        W84033   7.438  12.215  17.004  0.0136  0.0041 -0.2133
41117W        W84034   8.666  12.629  17.782 -0.1829 -0.2829 -0.0197
41118W        W84035   9.501  16.352  17.796  0.0454 -0.0119 -0.2186
41119W        W84036   6.752  13.954  18.015 -0.2177  0.0194  0.2191
41120W        W84037   8.585  12.461  18.261  0.3354  0.2685  0.1178
41121W        W84038   6.752  12.504  19.522  0.4132  0.1450  0.0331
41122W        W84039  11.209  11.715  18.251  0.0585  0.0070 -0.1353
41123W        W84040  10.153  10.439  19.627  0.1739 -0.3163 -0.2248
41124W        W84041   8.764  11.825  15.857  0.0150 -0.1798 -0.0491
41125W        W84042  10.290  12.468  15.181  0.3454 -0.0280 -0.2849
41126W        W84043   9.784  14.458  19.807 -0.0807 -0.1275  0.2243
41127W        W84044   9.386  14.583  21.135 -0.2011 -0.1432  0.0407
41128W        W84045   9.286  15.096  21.058 -0.2044 -0.0955  0.3609
41129W        W84046  10.258  13.664  16.898 -0.1464 -0.2891 -0.3169
41130W        W84047   6.707   9.847  18.102 -0.0694 -0.1768  0.1703
41131W        W84048   8.084  13.439  16.980 -0.0522 -0.3458  0.1557
41132W        W84049   8.019  12.798  16.693  0.0405 -0.0690  0.0170
41133W        W84050  10.578  13.283  16.339 -0.1387  0.0088  0.2273
41134W        W84051   9.321  11.300  17.386 -0.0859  0.2217  0.0756
41135W        W84052   9.448   9.146  16.490  0.2922 -0.0815 -0.1641
41136W        W84053   7.858  13.124  19.571  0.1328 -0.1408  0.0323
41137W        W84054   9.212  13.234  16.900 -0.2410  0.3079  0.0099
41138W        W84055   6.697  15.326  22.666  0.1425  0.0003 -0.1127
41139W        W84056   6.984  13.716  18.953 -0.2028  0.2610  0.0171
41140W        W84057   8.479  11.109  19.537  0.1048  0.5014 -0.1372
41141W        W84058  11.128  10.851  21.593 -0.1201 -0.2478 -0.2400
41142W        W84059   6.516  10.134  20.982  0.0574 -0.0178  0.0232
41143W        W84060   9.210  15.613  21.059  0.1490  0.1102 -0.2970
41144W        W84061   6.650   9.624  23.620 -0.4440  0.0112  0.0450
41145W        W84062  10.309  12.062  19.122 -0.1695  0.1869  0.0815
41146W        W84063  10.098  11.517  19.700  0.1095  0.2821 -0.1970
41147W        W84064   7.862  11.817  18.907 -0.0745  0.1885  0.1863
41148W        W84065   9.310  12.113  20.836  0.2040  0.1169 -0.2320
41149W        W84066   9.111  15.731  24.204  0.2206 -0.2966 -0.0769
41150W        W84067   5.712  12.010  21.393 -0.0012  0.0662 -0.4354
41151W        W84068   6.620  11.089  22.963 -0.1529 -0.3092  0.1345
41152W        W84069   9.583  10.813  23.634 -0.0335 -0.1234  0.1346
41153W        W84070   7.213  14.532  20.776  0.2906 -0.0156 -0.0964
41154W        W84071   9.041  12.443  23.497  0.2625  0.0429  0.0571
41155W        W84072   8.924  12.952  22.123 -0.0395 -0.2392  0.0809
41156W        W84073   7.615  14.107  22.235  0.1300  0.0724  0.0847
41157W        W84074   6.934  12.920  24.201  0.0704  0.0264  0.0451
41158W        W84075   9.357  11.618  23.359  0.3097 -0.1267 -0.1946
41159W        W84076   9.332  14.719  20.655  0.2557  0.1329  0.0691
41160W        W84077   8.203  13.162  19.943  0.3355  0.0847  0.0691
41161W        W84078   9.530  12.903  25.089 -0.0609  0.0413  0.1308
41162W        W84079   9.996  12.035  24.095 -0.0853  0.0484 -0.0733
41163W        W84080  10.599  12.406  22.053  0.0696 -0.1335  0.1288
41164W        W84081   9.355  13.277  21.998  0.2082 -0.2896 -0.1669
41165W        W84082   9.129  14.036  21.780  0.1631 -0.1110 -0.2917
41166W        W84083   9.329  12.305  22.552 -0.0683 -0.2448 -0.1903
41167W        W84084   9.597  15.820  23.584 -0.1333  0.2286 -0.0662
41168W        W84085   8.307  12.137  21.928  0.0590 -0.1977  0.3229
41169W        W84086   7.535  14.689  23.016  0.0275 -0.1072  0.0952
41170W        W84087   8.161  13.151  21.178  0.0717 -0.0532  0.0610
41171W        W84088  10.168  11.141  21.974 -0.0818 -0.2479 -0.1439
41172W        W84089   8.448  12.813  22.411  0.0258 -0.2195 -0.1393
41173W        W84090  10.263  14.073  22.535 -0.3148 -0.0974  0.1648
41174W        W84091   7.716  14.028  20.796  0.1773  0.2145 -0.1674
41175W        W84092  10.313  14.295  24.793  0.1265  0.1568  0.1011
41176W        W84093   8.175  12.342  23.546  0.3208 -0.0611  0.4024
41177W        W84094  10.244  12.535  22.371  0.0145  0.4523  0.3328
41178W        W84095   9.758  12.453  22.244  0.5349 -0.0540 -0.1664
41179W        W84096   5.931  15.472  19.756 -0.1745  0.1059  0.1807
41180W        W84097   7.100  12.298  22.115  0.0651  0.1680  0.0504
41181W        W84098   9.157  14.486  23.153  0.0920  0.0278 -0.1946
41182W        W84099   7.138  13.880  22.182  0.3032 -0.0712 -0.1120
41183W        W84100  11.546  10.538  22.518  0.0443 -0.0167 -0.1043
41184W        W84101   8.847  14.405  18.389 -0.0663  0.1210  0.3075
41185W        W84102  10.605  13.105  20.967  0.1137  0.2748  0.1958
41186W        W84103   7.199  13.289  18.952 -0.1430 -0.1110 -0.0351
41187W        W84104   8.661  10.421  19.290  0.2057 -0.2411  0.2538
41188W        W84105   8.202   8.971  20.410  0.1412 -0.0404 -0.3619
41189W        W84106   8.235  13.764  22.984  0.0212 -0.1163 -0.0337
41190W        W84107   7.513  11.422  22.930 -0.2706 -0.0623  0.0924
41191W        W84108  11.811  15.573  22.007  0.4095 -0.0197 -0.1413
41192W        W84109   6.283  12.370  22.213 -0.1771  0.0049  0.3893
41193W        W84110   9.603  12.112  21.306 -0.2410  0.3710 -0.4778
41194W        W84111   8.323  12.741  24.388  0.0505 -0.1210  0.4449
41195W        W84112   5.305  12.899  21.672  0.1011  0.1359 -0.1420
41196W        W84113   8.501  13.673  19.903  0.0855  0.1233 -0.0037
41197W        W84114   8.397  12.636  19.956  0.0212  0.0740  0.1081
41198W        W84115   8.064  13.719  20.960 -0.0249  0.0528 -0.1936
41199W        W84116   7.479  13.314  19.872  0.3600 -0.1875 -0.3393
41200W        W84117   9.090  12.043  24.646 -0.1199 -0.0392  0.2399
41201W        W84118   7.305  12.460  23.080  0.1733 -0.0231 -0.0705
41202W        W84119   8.723  11.491  19.795 -0.2276  0.2411 -0.0822
41203W        W84120  11.134  12.532  22.169 -0.1277  0.0516  0.1891
41204W        W84121   7.955  13.050  24.194  0.1392 -0.3860  0.0310
41205W        W84122  11.395  13.107  20.664 -0.1602  0.0299  0.1115
41206W        W84123   8.700  12.910  22.991 -0.2540 -0.0734 -0.0138
41207W        W84124  11.085  14.363  21.296 -0.0404  0.2430 -0.3492
41208W        W84125   9.824  11.675  21.383 -0.2874  0.0463  0.4212
41209W        W84126   9.469  10.734  20.624  0.1272  0.0282  0.2647
41210W        W84127   7.346  11.206  22.206 -0.2226  0.1602  0.2697
41211W        W84128   8.304  13.298  18.076  0.1668  0.1370  0.2292
41212W        W84129   6.549  13.788  20.784  0.1152  0.3646 -0.2430
41213W        W84130  10.706  13.543  20.790 -0.1214  0.2116 -0.3852
41214W        W84131  10.584  11.124  19.054 -0.3606  0.3584 -0.0052
41215W        W84132   8.596  14.975  21.615  0.2759  0.0422 -0.1203
41216W        W84133   9.038  11.355  21.636  0.0146 -0.1707  0.3648
41217W        W84134  10.723  13.121  23.531 -0.0755 -0.3056 -0.0261
41218W        W84135   5.903  15.518  21.466 -0.1125 -0.1444 -0.0721
41219W        W84136   8.565  13.726  21.163  0.0955  0.0384 -0.4982
41220W        W84137   6.601  13.723  19.291  0.0909  0.0215 -0.1025
41221W        W84138   7.065   9.859  22.517  0.1259 -0.1124  0.0681
41222W        W84139   8.947  11.818  21.826  0.0762  0.1169 -0.1121
41223W        W84140   8.560  10.658  20.287  0.1607  0.0073 -0.1298
41224W        W84141   7.608  12.273  21.011  0.0729  0.0479  0.0820
41225W        W84142   8.526   9.989  22.214 -0.1184 -0.1307  0.0603
41226W        W84143   8.597  14.014  21.713  0.3856 -0.1232  0.1942
41227W        W84144   8.901  14.878  20.821 -0.0586 -0.1510  0.1099
41228W        W84145  11.781  12.027  19.509  0.0924 -0.1544  0.0416
41229W        W84146  10.129  11.625  20.870  0.0311 -0.3423  0.0569
41230W        W84147   9.092  11.972  23.680  0.0269  0.1257 -0.0204
41231W        W84148   6.597  13.893  22.290 -0.0166 -0.0629 -0.1268
41232W        W84149   7.816  10.351  24.626  0.3318  0.4506  0.2206
41233W        W84150   8.022  11.833  21.555 -0.1944  0.0217 -0.2868
41234W        W84151  10.976  12.474  23.043 -0.2702  0.2115  0.1990
41235W        W84152   8.493  10.923  16.621  0.2874  0.0855  0.1743
41236W        W84153  11.415  14.323  21.948 -0.1112  0.0130 -0.0094
41237W        W84154   7.876  13.505  22.137 -0.0664  0.2759 -0.0910
41238W        W84155   5.154  13.147  23.063  0.0648  0.1520 -0.0041
41239W        W84156   9.295  10.464  21.769  0.1924 -0.1924  0.1467
41240W        W84157   9.688  13.842  21.774 -0.0744  0.0133  0.0548
41241W        W84158   9.956  10.889  20.733 -0.0915 -0.0435 -0.2416
41242W        W84159  11.364  14.620  20.165  0.0678  0.3993 -0.1184
41243W        W84160  10.977  10.807  23.628 -0.0015 -0.2559  0.0481
41244W        W84161   6.173  11.566  20.722 -0.1997  0.0990 -0.0877
41245W        W84162   7.651  14.845  21.137 -0.1928 -0.1282  0.0248
41246W        W84163   8.369  14.728  22.014 -0.2655 -0.0455 -0.2818
41247W        W84164   7.505  13.746  21.185  0.0817  0.2787 -0.0079
41248W        W84165  11.056  13.744  22.086 -0.1459 -0.1863 -0.0181
41249W        W84166   9.269  13.980  20.034  0.2576 -0.0956 -0.1954
41250W        W84167  10.039  12.582  23.247  0.0772 -0.3090  0.0386
41251W        W84168  10.304  10.185  22.660 -0.1611 -0.0193 -0.2995
41252W        W84169  11.403  13.511  22.318  0.2096  0.0546 -0.0443
41253W        W84170   9.852  12.358  22.720  0.1300  0.1205  0.0967
41254W        W84171   7.893  11.786  19.435  0.2099 -0.0888 -0.0248
41255W        W84172  10.714  16.656  21.690 -0.1447 -0.1191 -0.0600
41256W        W84173   5.428  15.091  19.194  0.1058  0.2817 -0.2419
41257W        W84174   8.486  14.760  21.154  0.1268  0.2873 -0.3219
41258W        W84175  11.296  15.264  23.229  0.0694 -0.2629 -0.2970
41259W        W84176   9.442  11.680  21.681 -0.0180  0.1086  0.1845
41260W        W84177   7.634  12.249  23.383  0.2147 -0.0367 -0.1152
41261W        W84178  10.021  10.350  25.191 -0.1523 -0.0174  0.0273
41262W        W84179   7.073  13.191  21.060 -0.1520 -0.3466 -0.1883
41263W        W84180   7.702  13.947  24.223 -0.1705  0.0489 -0.1177
41264W        W84181  10.386  12.130  20.854  0.0163  0.0397  0.0968
41265W        W84182   8.603  10.129  19.746  0.1599 -0.1140  0.0396
41266W        W84183  10.612  12.873  23.046  0.1322  0.1959 -0.0850
41267W        W84184  10.686  12.516  20.666  0.2396 -0.1392 -0.1234
41268W        W84185   9.693  13.503  19.672  0.0190 -0.0723 -0.0498
41269W        W84186   8.883  14.404  20.658 -0.2456 -0.0765 -0.0055
41270W        W84187   9.734  10.760  24.884 -0.0375  0.2012 -0.2211
41271W        W84188   8.977  12.231  21.215 -0.1235  0.0580  0.0259
41272W        W84189   9.246  13.867  22.280  0.2913 -0.0765  0.2761
41273W        W84190   9.295  12.568  22.059 -0.1049 -0.2076  0.1546
41274W        W84191   9.687  13.327  20.602 -0.1128 -0.0762  0.0163
41275W        W84192   9.771  13.202  24.099  0.1355 -0.1964 -0.3529
41276W        W84193   8.695  12.429  22.069 -0.1672  0.1871  0.0711
41277W        W84194   9.121  14.888  21.480  0.1424  0.2279 -0.0437
41278W        W84195   7.163  12.167  23.468 -0.0204 -0.1517  0.3963
41279W        W84196   8.696  12.383  20.850 -0.0758 -0.0753  0.1497
41280W        W84197   7.786  12.844  21.647 -0.2934  0.1171  0.2480
41281W        W84198   7.093  15.902  19.695 -0.1590  0.0581  0.4822
41282W        W84199   9.331  13.447  22.511  0.1146  0.0340 -0.0967
41283W        W84200   7.507   9.072  21.811  0.1689 -0.0790  0.1552
41284W        W84201   9.682  12.491  20.814  0.1360 -0.1831  0.3131
41285W        W84202  13.664  13.733  22.234 -0.0356 -0.2145 -0.2070
41286W        W84203  11.528  11.132  21.771  0.1063 -0.1276  0.4597
41287W        W84204   7.640  12.590  22.492 -0.3373 -0.1956  0.1103
41288W        W84205   7.300  15.326  19.061  0.1281 -0.1524 -0.1344
41289W        W84206   9.542  12.035  22.943  0.2937  0.1156 -0.0062
41290W        W84207   8.043   9.933  22.160  0.2278  0.1608 -0.2479
41291W        W84208   8.708  13.900  23.539  0.2106  0.0120 -0.0553
41292W        W84209  10.125  12.022  23.025  0.2418 -0.0360  0.3174
41293W        W84210   7.687  12.806  22.939 -0.1302 -0.1843 -0.0963
41294W        W84211   9.459   9.614  22.843  0.0890  0.1977 -0.0131
41295W        W84212   6.357  11.900  20.373 -0.2558 -0.2111  0.2068
41296W        W84213   7.714  12.956  22.135 -0.3701 -0.0474  0.1484
41297W        W84214   8.391  13.049  20.350  0.2065 -0.0226  0.1591
41298W        W84215   8.077   9.718  21.371 -0.0039  0.0728 -0.4428
41299W        W84216   9.129  13.154  24.927  0.0896  0.2409  0.0672
41300W        W84217   7.567  14.974  20.614 -0.4064  0.1220 -0.0350
41301W        W84218  10.021  11.096  24.470  0.1106  0.2173 -0.2426
41302W        W84219   8.868  14.765  19.698  0.0814  0.0348  0.0294
41303W        W84220   8.865   9.678  23.043  0.1257  0.0128  0.1950
41304W        W84221   8.397  16.244  20.988 -0.1958 -0.2457  0.0337
41305W        W84222   6.567  13.188  20.260  0.0533 -0.0489  0.1644
41306W        W84223   7.816  13.175  20.242  0.2320  0.0945  0.1974
41307W        W84224   9.722  10.918  22.015 -0.0247 -0.1601  0.3156
41308W        W84225   9.997  12.922  21.614 -0.0217  0.0560  0.0285
41309W        W84226   7.449  12.857  24.091 -0.0221  0.0866 -0.3654
41310W        W84227   7.716  10.069  21.276 -0.1645 -0.0013 -0.2455
41311W        W84228   6.498  14.314  22.510  0.2132  0.0575  0.4110
41312W        W84229  11.221  14.679  23.594  0.1522  0.0746  0.2887
41313W        W84230   9.543  11.815  20.429  0.2105 -0.2603 -0.1392
41314W        W84231   8.562  14.079  22.725  0.0536 -0.0883 -0.0444
41315W        W84232   8.278  10.088  23.725  0.1691  0.1104  0.2175
41316W        W84233   6.063  10.792  17.921  0.1908 -0.0592  0.3921
41317W        W84234  12.648  10.927  21.844  0.0058  0.1905 -0.4197
41318W        W84235   6.564  11.526  21.110  0.1669 -0.0786  0.1710
41319W        W84236   7.944  14.406  22.578  0.2179  0.3186  0.2354
41320W        W84237   8.870  14.610  23.570  0.3810 -0.3215 -0.4110
41321W        W84238   8.637  13.150  23.620 -0.2385 -0.1327  0.0875
41322W        W84239   8.233  13.551  22.507  0.2610 -0.1605 -0.2320
41323W        W84240   8.147  11.383  23.301  0.1635  0.1390  0.0950
41324W        W84241   9.638  12.235  23.401 -0.2937 -0.4212  0.4275
41325W        W84242  10.740  11.078  22.691  0.3507 -0.0001  0.0659
41326W        W84243   6.631  12.029  23.323 -0.1456 -0.1599  0.3611
41327W        W84244   7.675  11.540  21.862 -0.0411 -0.1995 -0.1939
41328W        W84245  11.108  13.042  23.215 -0.0410 -0.3202 -0.2427
41329W        W84246  11.027  11.371  24.028  0.0116 -0.0878 -0.0943
41330W        W84247   8.388  12.540  22.917 -0.0312  0.1060  0.2184
41331W        W84248   9.470   8.953  21.417  0.0926 -0.0812 -0.0971
41332W        W84249  10.593  13.762  21.799  0.0014 -0.0540 -0.0462
41333W        W84250  10.532  13.057  21.588  0.4570 -0.1953 -0.2665
41334W        W84251   7.781  14.520  18.962 -0.0261 -0.4482  0.0377
41335W        W84252   7.616  13.740  21.803  0.1192  0.2571  0.4425
41336W        W84253   9.874  12.664  21.212  0.0260 -0.0549  0.1243
41337W        W84254   9.847  12.038  21.741  0.2513 -0.3958  0.2135
41338W        W84255   8.090  15.482  22.899 -0.1468 -0.1121 -0.0754
41339W        W84256   7.883  14.286  19.437  0.4288 -0.2214 -0.0040
41340W        W84257   7.624  13.192  23.748  0.1891 -0.1832 -0.0878
41341W        W84258  10.734   9.684  18.764 -0.1376 -0.1345 -0.0691
41342W        W84259  10.031  11.405  20.188  0.3593  0.3101 -0.3339
41343W        W84260   9.185  12.965  22.893 -0.0987 -0.3636  0.0922
41344W        W84261  10.567  11.562  22.890 -0.1526  0.4710 -0.3582
41345W        W84262  10.176  13.104  21.188  0.4706  0.0834 -0.0975
41346W        W84263  10.773   9.918  23.146 -0.2999  0.0720 -0.0701
41347W        W84264   8.070  11.322  21.497 -0.0158 -0.0159  0.1707
41348W        W84265  10.416  14.194  23.163 -0.0521  0.1520 -0.1949
41349W        W84266   6.701   9.336  21.610 -0.4196  0.0339 -0.1424
41350W        W84267  10.247  14.299  23.606  0.0688 -0.0590  0.2743
41351W        W84268   8.142  13.808  21.816 -0.0888 -0.1219  0.2430
41352W        W84269   8.420  11.445  20.723  0.1453  0.2281 -0.3801
41353W        W84270   8.263  10.905  19.951  0.0805  0.2575 -0.1198
41354W        W84271   9.828  12.456  24.009 -0.0409 -0.1065 -0.0470
41355W        W84272  13.615  12.777  23.120 -0.0138  0.2329 -0.0774
41356W        W84273   8.916  13.456  20.774  0.2611  0.1799 -0.0044
41357W        W84274  11.882  11.521  22.797  0.1227  0.2008  0.2534
41358W        W84275   7.565  15.325  23.199  0.0002 -0.1932 -0.3766
41359W        W84276  11.131  12.277  20.920 -0.1326  0.0926 -0.0374
41360W        W84277   8.904  12.687  21.197  0.2731 -0.0417 -0.0563
41361W        W84278   7.009   9.287  22.616 -0.0378  0.0307  0.0672
41362W        W84279   7.479  10.997  20.044  0.2649 -0.0328  0.1032
41363W        W84280  11.608  12.181  20.693 -0.2835 -0.1852  0.1321
41364W        W84281  10.285  10.312  20.870 -0.0141 -0.3802  0.1312
41365W        W84282  12.128  13.379  24.332  0.4040  0.1967  0.3530
41366W        W84283  10.634  10.650  23.967  0.0408 -0.2460 -0.0086
41367W        W84284   7.143  10.920  22.917  0.0274  0.0171 -0.0844
41368W        W84285   7.074  11.247  24.571  0.2615  0.2670  0.0477
41369W        W84286  10.902  16.528  23.125  0.0829 -0.0847 -0.2423
41370W        W84287   9.713  11.367  19.476 -0.2341  0.0987  0.1370
41371W        W84288  10.358  10.273  23.161  0.2084  0.3466 -0.4040
41372W        W84289   9.475  12.968  22.501  0.1906  0.0357  0.0530
41373W        W84290  10.448  14.597  22.697  0.0200  0.2448 -0.3693
41374W        W84291   7.649  11.916  22.850  0.0121  0.0085  0.3121
41375W        W84292  11.220  11.262  21.160  0.2372  0.1696  0.2744
41376W        W84293   6.559  11.610  20.049 -0.0340  0.1795 -0.0316
41377W        W84294  10.508  10.739  20.840 -0.1879 -0.1790  0.5025
41378W        W84295   7.543  13.989  19.157 -0.1498  0.1707 -0.1559
41379W        W84296   8.883  13.937  20.372  0.0183 -0.1718 -0.0235
41380W        W84297   9.011  12.603  21.688 -0.0770 -0.1457 -0.0843
41381W        W84298   7.141  12.361  22.588 -0.4287 -0.1548  0.2697
41382W        W84299   8.649  14.269  23.211 -0.2425 -0.1614 -0.0304
41383W        W84300   6.873  13.429  21.509 -0.2924  0.0044 -0.5860
41384W        W84301   7.434  12.850  20.145 -0.3457 -0.2708 -0.0206
41385W        W84302  11.132  13.314  21.056 -0.2327 -0.2894  0.3739
41386W        W84303  10.368  12.608  24.199 -0.0871 -0.0607 -0.1122
41387W        W84304   8.550  10.631  21.000 -0.0907 -0.0266 -0.0705
41388W        W84305  10.319  11.068  23.006 -0.0481 -0.0687  0.0449
41389W        W84306   6.760  13.543  22.026  0.3676 -0.0922  0.0329
41390W        W84307   9.508  10.935  19.326  0.3331  0.2000  0.4681
41391W        W84308   8.577  12.667  23.389  0.1345  0.1100 -0.0259
41392W        W84309   8.748  12.975  24.349 -0.0684 -0.0134  0.0562
41393W        W84310   8.531  13.486  21.691 -0.0421 -0.2564 -0.0923
41394W        W84311   9.069  11.356  24.350 -0.0151  0.3967  0.0784
41395W        W84312   9.786  12.074  20.012  0.3074  0.2701  0.1072
41396W        W84313   7.987  12.394  21.656  0.0091 -0.1230 -0.0029
41397W        W84314  11.635  12.525  22.190 -0.3388  0.0772 -0.0319
41398W        W84315   9.209  13.425  23.086  0.1820 -0.2538 -0.2495
41399W        W84316   8.634  12.201  23.230 -0.0175 -0.1649  0.2821
41400W        W84317   9.645  17.130  23.056 -0.1745  0.1234 -0.1676
41401W        W84318  10.029  13.123  23.249  0.2903  0.1207  0.0728
41402W        W84319   7.452  10.831  23.701  0.2236 -0.2532 -0.1194
41403W        W84320   6.495  10.671  23.655 -0.3054 -0.3091  0.2448
41404W        W84321   8.137  10.854  22.496 -0.0506  0.0307  0.2711
41405W        W84322   6.533  12.198  23.786 -0.2256  0.0663 -0.1108
41406W        W84323   7.362  14.263  21.149  0.0086  0.1344  0.0253
41407W        W84324   8.780  14.970  19.221  0.1971  0.0093  0.2059
41408W        W84325   7.695  14.586  24.197 -0.1806  0.0729  0.0495
41409W        W84326   8.800  14.484  24.870  0.1476  0.1500  0.0345
41410W        W84327   8.247  15.203  21.887 -0.0189 -0.2721 -0.2951
41411W        W84328   9.063  13.131  20.390  0.0209  0.0031  0.0298
41412W        W84329   9.646  12.255  19.220 -0.1540  0.1352  0.0811
41413W        W84330   9.355  13.522  20.980 -0.0235 -0.2300  0.1538
41414W        W84331   8.753  12.036  19.908 -0.1657  0.0998 -0.0085
41415W        W84332   9.066  13.564  23.536 -0.0201  0.2143 -0.0907
41416W        W84333   7.970  14.736  19.655  0.0448 -0.0901 -0.0471
41417W        W84334   7.973  15.056  20.271  0.1434 -0.1279 -0.0810
41418W        W84335   6.810  16.275  23.173  0.0083 -0.1283  0.2166
41419W        W84336  10.379  13.473  23.318  0.0323  0.2545 -0.1823
41420W        W84337   7.426  12.960  19.382 -0.1213 -0.1684 -0.1194
41421W        W84338  10.997  13.029  21.523  0.1538 -0.1464 -0.1519
41422W        W84339  11.592  12.542  21.041  0.0741  0.0769  0.1754
41423W        W84340   9.647  12.873  24.521  0.2007 -0.1753 -0.2382
41424W        W84341   7.980  13.037  22.590  0.1113 -0.0664  0.2889
41425W        W84342   8.209  12.711  21.980  0.2438 -0.2035  0.4178
41426W        W84343   7.284  10.524  24.101 -0.0149  0.2200 -0.1460
41427W        W84344  10.540   9.440  22.824  0.2221  0.1300  0.2203
41428W        W84345   6.938  14.608  25.261 -0.2665 -0.0126  0.1227
41429W        W84346  10.483  15.094  21.528  0.1866 -0.2560  0.0267
41430W        W84347   5.536  11.088  21.394  0.3956  0.1269  0.0303
41431W        W84348   7.782  11.999  21.992 -0.4088  0.0807  0.1908
41432W        W84349   8.251   9.869  22.603  0.2907 -0.1569  0.1684
41433W        W84350   8.367  14.605  20.524  0.2625  0.0769  0.0215
41434W        W84351  12.022  12.201  21.057 -0.0071  0.3811  0.1858
41435W        W84352   8.689  15.729  21.109  0.0837  0.0543  0.3821
41436W        W84353   7.885  13.907  22.599 -0.1068  0.1904  0.1294
41437W        W84354   9.419  16.065  24.033 -0.0690  0.1617  0.1931
41438W        W84355   4.690  12.504  22.100  0.2175 -0.0362  0.1852
41439W        W84356  10.906  12.723  21.090 -0.0512 -0.1487 -0.2020
41440W        W84357   6.667  13.149  23.910 -0.1054 -0.0492  0.1827
41441W        W84358   9.365  12.338  23.871 -0.4092 -0.0429 -0.0360
41442W        W84359   8.041  12.935  20.718 -0.1627 -0.3451  0.0002
41443W        W84360  10.722  11.129  20.018  0.0306 -0.0171 -0.1051
41444W        W84361   9.868  13.557  21.145  0.0471  0.1261 -0.1110
41445W        W84362   7.430  12.407  23.895  0.0705 -0.0642  0.2251
41446W        W84363  10.960  11.596  20.202 -0.2094  0.2263 -0.1781
41447W        W84364   9.492  13.467  21.476  0.1756  0.1972 -0.1216
41448W        W84365   9.773  12.976  19.660 -0.1310 -0.0063 -0.2372
41449W        W84366  11.199  15.446  22.218 -0.1134 -0.1908 -0.3110
41450W        W84367   7.895  10.016  20.778  0.0550 -0.0626  0.0044
41451W        W84368   9.487  12.904  20.475 -0.1351 -0.0528 -0.2258
41452W        W84369   5.952  13.037  21.653  0.1057 -0.0047  0.1613
41453W        W84370   8.605  12.340  23.751  0.1677  0.2060 -0.2875
41454W        W84371  10.161  12.023  22.129  0.3158 -0.0550 -0.3625
41455W        W84372   7.291  12.059  20.563 -0.0440  0.3529 -0.5207
41456W        W84373   9.153  11.598  20.139  0.2218  0.2355  0.0035
41457W        W84374  10.173  12.838  20.725  0.3137 -0.1102  0.0850
41458W        W84375   9.211  14.577  21.893  0.1058  0.0643 -0.1466
41459W        W84376   8.736  12.289  22.603  0.0705 -0.0170 -0.0514
41460W        W84377   8.526  12.457  21.571  0.2243 -0.0917  0.5151
41461W        W84378   8.913  13.982  20.890 -0.3779 -0.0758  0.1697
41462W        W84379  10.394  12.429  22.849 -0.2626  0.0148  0.0837
41463W        W84380  10.233  12.916  19.829 -0.1110 -0.0442  0.1367
41464W        W84381   7.203  11.389  21.699 -0.0294  0.0668 -0.0335
41465W        W84382   7.728  11.692  20.762  0.3002  0.1149 -0.3887
41466W        W84383   7.773  14.585  20.465  0.0026 -0.1219 -0.0299
41467W        W84384  11.237  12.523  21.365  0.3069  0.1040 -0.1118
41468W        W84385  10.278  12.834  22.015 -0.1580  0.0200 -0.2006
41469W        W84386   9.419  13.856  22.796 -0.2950  0.0025 -0.0361
41470W        W84387   9.407   8.652  25.059  0.3623 -0.0485 -0.0589
41471W        W84388  10.892  14.984  23.478  0.2816 -0.2689  0.0645
41472W        W84389   9.163  14.688  24.091 -0.1351 -0.1714 -0.1543
41473W        W84390   7.931  13.532  21.436  0.1065  0.2573  0.1067
41474W        W84391   9.822  11.691  23.239  0.0115 -0.4424 -0.0776
41475W        W84392   8.781  15.825  20.250 -0.0725 -0.5061  0.2080
41476W        W84393   9.671  12.495  21.639  0.3718 -0.0451  0.2667
41477W        W84394   7.594  12.098  21.508 -0.1156 -0.0196 -0.1126
41478W        W84395   8.731  13.217  22.577 -0.1956 -0.1770  0.2121
41479W        W84396  11.020  14.119  21.751  0.0505 -0.3509  0.0860
41480W        W84397   8.427  13.278  22.143  0.2432  0.0172 -0.2980
41481W        W84398   8.765  10.526  21.942  0.3760  0.0608  0.0419
41482W        W84399   9.365  11.289  21.273 -0.2673  0.0875  0.1690
41483W        W84400   8.574  11.817  22.271  0.2290  0.1856  0.1547
41484W        W84401   7.645  15.704  18.950  0.1060  0.0433 -0.0620
41485W        W84402   8.401  12.960  19.523  0.0526 -0.0518 -0.2384
41486W        W84403   7.210  13.304  23.964  0.0114 -0.2730  0.0650
41487W        W84404   8.164  11.572  21.965  0.1240 -0.4312 -0.0977
41488W        W84405   8.442  10.803  24.131  0.0488  0.2020 -0.0778
41489W        W84406   9.492  11.987  22.118 -0.4157  0.2936  0.3547
41490W        W84407   5.868  11.194  19.652 -0.0861 -0.2046  0.0421
41491W        W84408   7.497  13.567  17.169 -0.1199 -0.3293  0.2629
41492W        W84409   7.306  10.778  20.927 -0.0436  0.1669  0.0299
41493W        W84410   5.888  11.225  22.411  0.1526 -0.0009 -0.0502
41494W        W84411   9.360  12.698  19.434  0.2900 -0.2148 -0.0381
41495W        W84412  12.352  13.824  19.445  0.0360 -0.0418  0.0711
41496W        W84413   8.455  10.931  21.729 -0.1655  0.4539 -0.0672
41497W        W84414  11.526  13.841  22.659  0.0356  0.0725  0.1479
41498W        W84415   7.589  14.937  19.437  0.0408 -0.0160 -0.0140
41499W        W84416   9.869  11.235  21.123  0.0578  0.0044 -0.1800
41500W        W84417   8.293  12.034  22.863  0.3855  0.2842 -0.1718
41501W        W84418   7.643  13.155  21.115  0.3732  0.0199 -0.2888
41502W        W84419   8.487  12.958  21.643 -0.0272 -0.2330 -0.1992
41503W        W84420   8.647  13.519  20.377  0.0284  0.0799 -0.1999
41504W        W84421  10.553  15.631  22.621 -0.1134  0.1880  0.2585
41505W        W84422   8.063  12.748  23.275  0.2132  0.1949  0.2014
41506W        W84423   9.565  13.282  23.430 -0.1450 -0.0217 -0.1228
41507W        W84424   5.846  12.880  22.846  0.1128  0.2786 -0.1684
41508W        W84425   8.745  12.985  20.789 -0.1315  0.3222  0.2596
41509W        W84426   9.385  14.768  23.621 -0.0815  0.1901 -0.0276
41510W        W84427  10.643  12.559  21.569  0.0582 -0.3009  0.1731
41511W        W84428   9.437   9.914  21.683 -0.1133 -0.1571 -0.5189
41512W        W84429   9.551  14.783  22.315 -0.0336  0.2625  0.0018
41513W        W84430   7.490   9.945  24.479  0.3095  0.0598  0.1140
41514W        W84431  10.087  12.440  24.577 -0.3051  0.0451 -0.0070
41515W        W84432  11.409  11.438  22.161  0.0391 -0.1705  0.0472
41516W        W84433   7.346  10.368  22.744  0.1522 -0.0655 -0.1150
41517W        W84434  10.268  11.180  21.442  0.0193  0.1244  0.1370
41518W        W84435   8.432  14.390  19.739  0.0739 -0.0747  0.1271
41519W        W84436   7.127  11.812  21.518 -0.0138  0.5043 -0.0629
41520W        W84437   9.758  15.021  20.949  0.0182 -0.1114 -0.0705
41521W        W84438   9.166  11.791  22.686  0.1916 -0.1190 -0.3534
41522W        W84439   9.534  12.379  20.285 -0.1487  0.2103 -0.2782
41523W        W84440  10.767  13.390  23.058 -0.1396 -0.0265  0.1772
41524W        W84441   7.769  13.386  20.693 -0.2280  0.2353  0.1146
41525W        W84442  11.951  12.988  21.517  0.2071  0.0738  0.0330
41526W        W84443   8.972  16.436  21.040 -0.0509  0.0522  0.2507
41527W        W84444  10.015  15.168  23.172  0.0981 -0.0430  0.3210
41528W        W84445  10.374  16.427  23.219  0.1082 -0.1119  0.1720
41529W        W84446  10.492  14.235  21.622 -0.1634 -0.2449  0.2250
41530W        W84447   6.933  10.134  23.023  0.0503 -0.2256 -0.0903
41531W        W84448   8.150  14.207  22.102  0.0241 -0.2218  0.1763
41532W        W84449   6.196  13.321  22.880  0.0233  0.1869  0.0497
41533W        W84450   9.418  11.093  22.489 -0.0318 -0.1141 -0.3079
41534W        W84451   7.383  10.234  23.643 -0.3121 -0.1544  0.1534
41535W        W84452   7.573  11.473  20.305  0.0332 -0.2922  0.1744
41536W        W84453   9.499  13.986  21.158 -0.0815 -0.2375 -0.0253
41537W        W84454   9.331  13.712  20.533  0.2846  0.2364 -0.1080
41538W        W84455   8.808  12.060  26.906  0.1176  0.1818 -0.0149
41539W        W84456   7.171  11.030  25.031  0.2906  0.2985  0.0444
41540W        W84457   9.028   9.673  23.487 -0.1911  0.1122  0.2037
41541W        W84458   9.676  10.560  23.085  0.1592 -0.1330 -0.0118
41542W        W84459   9.238  11.798  24.148  0.1106 -0.2389 -0.1458
41543W        W84460  10.814  12.623  23.990 -0.4425  0.0404  0.1173
41544W        W84461   8.141  11.577  26.230  0.0268  0.1627 -0.0548
41545W        W84462  10.730  11.832  24.805  0.2405 -0.0660 -0.0275
41546W        W84463  12.258  11.711  27.025 -0.0271 -0.1140  0.0862
41547W        W84464   8.893  12.739  23.873 -0.1256 -0.2979  0.1823
41548W        W84465   9.927  10.995  26.928 -0.0600  0.0379  0.0148
41549W        W84466   7.964  14.309  28.224 -0.0564  0.2155  0.2402
41550W        W84467   8.740  11.285  24.679  0.2429  0.1289  0.1730
41551W        W84468   8.193  11.459  27.274  0.1607 -0.0822  0.0922
41552W        W84469  12.073  11.076  26.231 -0.3433  0.0296 -0.0767
41553W        W84470  10.038  12.745  25.920  0.3384  0.0893  0.2633
41554W        W84471   7.870  11.932  28.974 -0.0577 -0.1529 -0.0931
41555W        W84472   9.618   9.718  23.484 -0.1235 -0.2910 -0.1195
41556W        W84473  10.887  14.223  26.230  0.0792 -0.0897  0.5160
41557W        W84474  11.978  12.684  26.037 -0.0514 -0.0902  0.0085
41558W        W84475  11.370  11.270  27.046  0.3032  0.0407 -0.1489
41559W        W84476   8.977  13.989  25.422  0.0314  0.6000  0.0008
41560W        W84477   7.704  10.981  23.228 -0.1252  0.1441 -0.2634
41561W        W84478   7.651  10.162  24.051  0.1303  0.4657 -0.3638
41562W        W84479   8.749  11.608  26.390 -0.1020 -0.2845 -0.0874
41563W        W84480  10.255  10.815  24.815 -0.0553 -0.1265  0.0983
41564W        W84481  10.600  12.030  26.230 -0.0468 -0.0925 -0.0541
41565W        W84482  10.158  12.179  26.447 -0.0541  0.0945 -0.0299
41566W        W84483  11.838  14.086  27.619  0.0097 -0.0947  0.1499
41567W        W84484  11.838  13.538  28.391  0.1143  0.1628 -0.0191
41568W        W84485   6.509  12.701  24.109  0.0816  0.0720  0.4285
41569W        W84486   9.315  14.100  25.921 -0.2059 -0.0579  0.1713
41570W        W84487   8.020  13.083  25.277  0.2936 -0.2871  0.0593
41571W        W84488   8.388  11.899  23.745 -0.2823 -0.0671  0.0315
41572W        W84489  11.573  14.733  25.897  0.0618  0.0302 -0.2149
41573W        W84490  10.170  14.699  27.237  0.0866  0.0064  0.0132
41574W        W84491   6.046  11.744  24.952 -0.3750 -0.3690 -0.0002
41575W        W84492  11.680  15.591  27.718 -0.2763 -0.3472 -0.0766
41576W        W84493   9.058  14.345  26.397 -0.2380 -0.1154 -0.1744
41577W        W84494   9.641  12.442  27.461  0.1014  0.1892 -0.0923
41578W        W84495   9.423  11.165  25.722 -0.1528  0.1236  0.2815
41579W        W84496   8.937  13.533  24.447  0.2736 -0.0107 -0.0458
41580W        W84497  10.843  12.355  24.972 -0.1781 -0.0925 -0.1387
41581W        W84498  11.093  15.081  28.281  0.2656  0.1864  0.0738
41582W        W84499   9.768  14.194  24.471 -0.0436 -0.1406  0.0070
41583W        W84500  13.217  12.239  25.652 -0.1416  0.1008 -0.0593
41584W        W84501   9.837  13.023  25.460 -0.0310  0.2115 -0.2563
41585W        W84502  10.107  10.602  22.820 -0.1810 -0.1686 -0.2548
41586W        W84503   8.333  12.261  24.165  0.1686  0.1463  0.0061
41587W        W84504   9.453  10.475  25.271  0.0791 -0.2515 -0.3637
41588W        W84505   8.764  12.073  26.310  0.0313  0.6869  0.0666
41589W        W84506  11.309  13.811  25.251  0.1782  0.2165 -0.3392
41590W        W84507   8.233  12.702  24.943 -0.3952 -0.0468  0.0845
41591W        W84508  11.662  12.843  27.709  0.1468 -0.0107  0.2414
41592W        W84509  10.357  12.204  25.026 -0.4077 -0.0263 -0.0849
41593W        W84510  12.080  12.745  24.916  0.1089  0.0187  0.1441
41594W        W84511  10.395  12.409  25.982  0.0558 -0.0373 -0.1079
41595W        W84512   9.994  13.226  25.011  0.2299  0.3241 -0.1794
41596W        W84513  10.948  13.293  22.421  0.0373 -0.1785  0.0656
41597W        W84514  10.124  15.495  22.803 -0.0043 -0.1302 -0.1536
41598W        W84515  10.906  14.000  23.173 -0.3367 -0.0562  0.1122
41599W        W84516   8.311  12.335  25.257 -0.2149 -0.0159  0.0326
41600W        W84517   9.102  13.632  25.761  0.1360  0.2006 -0.1255
41601W        W84518   7.515  12.512  28.393  0.3084 -0.0648 -0.1644
41602W        W84519   9.346   9.245  24.499 -0.3004  0.2033  0.0658
41603W        W84520  12.078  14.083  27.093  0.1853  0.0990  0.1483
41604W        W84521   7.714  14.235  27.190 -0.1422  0.2077 -0.2392
41605W        W84522  10.513  11.052  24.384  0.0419  0.2346  0.1837
41606W        W84523   7.312  15.038  25.699 -0.5277 -0.0797 -0.1386
41607W        W84524  12.377  14.521  26.030  0.2302 -0.1177  0.0479
41608W        W84525   9.647  11.855  23.688  0.2565 -0.2688 -0.4079
41609W        W84526  11.728  11.528  26.810 -0.4551  0.1705  0.0007
41610W        W84527  10.143  10.060  26.124 -0.0670 -0.0245 -0.0069
41611W        W84528  10.917  12.885  25.144  0.3348 -0.0474  0.1721
41612W        W84529   9.298  11.632  25.649 -0.1886 -0.0313 -0.0875
41613W        W84530  10.552  13.864  23.524  0.0912  0.0634 -0.3062
41614W        W84531   9.298   9.972  23.802  0.1348 -0.4323 -0.1308
41615W        W84532   8.412  15.808  23.386  0.1245  0.0250  0.2261
41616W        W84533   9.538  12.341  26.905 -0.1232  0.1249 -0.2287
41617W        W84534   8.701  15.014  27.185  0.3166 -0.1519  0.4010
41618W        W84535   8.376  14.347  24.596  0.1114  0.1932  0.0831
41619W        W84536   7.344  15.022  27.434  0.0788  0.2528 -0.1753
41620W        W84537   7.035  11.375  23.866  0.0794 -0.0549 -0.0027
41621W        W84538   8.442  12.010  25.586 -0.0188 -0.1973  0.0288
41622W        W84539   8.657  12.887  25.912 -0.2923 -0.3037 -0.3610
41623W        W84540   8.575  10.075  22.890  0.0371 -0.1203  0.3079
41624W        W84541  10.236  10.372  28.023  0.0129 -0.1167  0.2651
41625W        W84542  10.343   9.147  25.658 -0.2942  0.0571  0.0512
41626W        W84543   8.788  12.207  24.977 -0.0608  0.1302  0.2506
41627W        W84544  11.767  10.627  22.108  0.1433  0.1672  0.0691
41628W        W84545   9.077   9.493  24.001 -0.0357 -0.1877 -0.1926
41629W        W84546   9.511  12.579  23.003 -0.1859 -0.0635  0.2751
41630W        W84547   9.634  11.428  26.163  0.2908 -0.1959 -0.0230
41631W        W84548   7.956  11.233  25.697 -0.1157  0.0595  0.0852
41632W        W84549   9.300  10.075  25.652 -0.0263  0.1978  0.1872
41633W        W84550   8.433  10.450  24.571 -0.0546  0.2136 -0.0150
41634W        W84551  11.060  13.593  27.280  0.2470  0.3151  0.2349
41635W        W84552   6.109   9.657  24.259  0.0491  0.3190  0.0891
41636W        W84553   9.335  11.581  24.993 -0.1191 -0.0783  0.0842
41637W        W84554  11.103  10.982  22.087  0.2316 -0.2544 -0.0318
41638W        W84555   8.948  13.722  26.752 -0.0438 -0.3039 -0.0200
41639W        W84556  11.791  10.982  27.285  0.0806  0.3592 -0.1173
41640W        W84557  10.184  15.608  24.473  0.5184 -0.1480  0.1537
41641W        W84558  11.597  13.029  25.844  0.3573 -0.0253  0.3438
41642W        W84559  12.898  15.981  24.137 -0.0441 -0.0621 -0.1128
41643W        W84560   8.252  13.994  28.696 -0.0197  0.0019  0.2595
41644W        W84561   7.534  11.685  23.339 -0.3828 -0.0840 -0.0200
41645W        W84562   9.777  13.719  24.184  0.1232 -0.2389  0.1353
41646W        W84563   9.463  12.798  23.465 -0.1239  0.1584  0.2840
41647W        W84564   8.494  10.523  23.591  0.0123 -0.1317  0.1048
41648W        W84565  10.132  12.139  23.553  0.0559 -0.1604  0.0751
41649W        W84566   8.435  10.481  25.274 -0.0567 -0.0334  0.1809
41650W        W84567   8.867  14.305  25.832  0.1897  0.0936  0.1290
41651W        W84568  11.727  10.560  28.322  0.1750 -0.0949 -0.3667
41652W        W84569  10.983  12.621  26.971 -0.2321 -0.0228 -0.2709
41653W        W84570   9.956  11.311  25.723 -0.0715  0.2369 -0.1365
41654W        W84571   7.861  12.655  23.755 -0.4124  0.0403  0.2336
41655W        W84572   9.589  13.645  25.847  0.0801  0.1112  0.1739
41656W        W84573   9.253  14.126  27.301  0.2026  0.3488 -0.2113
41657W        W84574   7.611  11.536  25.542 -0.0322  0.0549 -0.2138
41658W        W84575   9.358  14.403  26.792 -0.0739  0.0415 -0.1924
41659W        W84576  11.687  11.701  24.029  0.1034  0.0529  0.0967
41660W        W84577   7.948  13.432  27.325 -0.2671  0.0905  0.1986
41661W        W84578  10.281  13.690  28.726  0.2409  0.2188  0.0790
41662W        W84579   7.947  11.614  23.723 -0.0926  0.1076 -0.4838
41663W        W84580   8.244  13.181  26.889  0.4086  0.4027  0.1290
41664W        W84581   9.753  10.552  26.914  0.0453 -0.2520  0.1777
41665W        W84582   9.240  11.712  26.256  0.1191 -0.0287  0.0213
41666W        W84583   9.014  12.680  25.107 -0.0822 -0.3486 -0.0246
41667W        W84584  10.077  11.925  24.569 -0.2346  0.1894  0.0454
41668W        W84585   8.695  12.492  24.531  0.0202 -0.2708 -0.1205
41669W        W84586   9.784  11.246  21.633 -0.0110  0.1814  0.0696
41670W        W84587   8.647  12.526  26.427  0.0346 -0.2148  0.1237
41671W        W84588  10.668  11.046  21.806  0.0650  0.0547  0.3586
41672W        W84589  11.146  11.717  25.552 -0.3210 -0.1235 -0.2876
41673W        W84590  11.268  12.765  24.153 -0.0402  0.1167  0.3125
41674W        W84591  11.300  13.591  23.946 -0.0630 -0.1003 -0.0063
41675W        W84592   7.020  12.407  25.715 -0.1574  0.1039 -0.1336
41676W        W84593  10.940  12.541  27.539  0.1695 -0.1842 -0.0606
41677W        W84594  10.336  11.996  22.593  0.0736  0.0497  0.0569
41678W        W84595   7.816  13.689  27.750  0.0444 -0.1361  0.1132
41679W        W84596   9.746  11.862  22.503 -0.1596 -0.0512  0.1968
41680W        W84597   9.541   9.528  25.368 -0.0355 -0.2333 -0.0218
41681W        W84598   7.501  16.246  23.506 -0.1001  0.0350  0.0504
41682W        W84599  10.735  11.735  25.817  0.0959 -0.1242  0.2236
41683W        W84600  10.399  11.240  26.790 -0.1020  0.0014  0.0810
41684W        W84601  10.695  10.626  25.780  0.1639  0.2848  0.2904
41685W        W84602  12.717  12.141  27.704 -0.0487  0.2896 -0.1275
41686W        W84603  10.433  11.812  23.363 -0.1012  0.0172  0.1867
41687W        W84604  10.561  12.455  27.180 -0.1832  0.4317  0.0109
41688W        W84605   4.947  12.708  23.966 -0.0410  0.3550 -0.3228
41689W        W84606  10.327  10.689  27.127 -0.2644 -0.3634  0.0152
41690W        W84607  12.032  12.241  25.834 -0.0740 -0.0973 -0.0757
41691W        W84608   8.700  14.744  26.707  0.1491 -0.3619  0.0839
41692W        W84609  10.476  12.861  27.575 -0.3004 -0.0850  0.1004
41693W        W84610   8.966  11.332  22.600 -0.0837  0.1385  0.1142
41694W        W84611   9.119  12.141  28.806 -0.1216 -0.0658  0.2138
41695W        W84612   9.277  10.698  24.488 -0.0271 -0.3308 -0.0777
41696W        W84613   9.165  14.057  23.410  0.2008 -0.0198 -0.0123
41697W        W84614   6.820  13.930  27.320  0.3198  0.2778  0.0498
41698W        W84615   7.878   9.716  24.763 -0.1572 -0.0293  0.1374
41699W        W84616   9.429  12.315  25.777 -0.0293 -0.4220  0.2880
41700W        W84617   9.404  13.099  26.324 -0.1971 -0.0896 -0.2693
41701W        W84618  11.708  12.464  26.742 -0.1732  0.1148  0.3719
41702W        W84619   8.826  14.475  24.353 -0.0321 -0.1439 -0.2660
41703W        W84620  10.038  11.150  25.191 -0.0997 -0.0181  0.1554
41704W        W84621  10.460  12.752  26.855 -0.0626  0.1003  0.0040
41705W        W84622   6.744   9.567  23.098  0.0796 -0.0757 -0.1482
41706W        W84623   7.749  12.660  25.028 -0.0716  0.2800 -0.1578
41707W        W84624  10.596  10.799  26.269 -0.0975 -0.1255 -0.2694
41708W        W84625   9.704  13.225  22.888  0.0964  0.0989 -0.0037
41709W        W84626   7.833  10.991  27.925  0.8857 -0.0428  0.1032
41710W        W84627   7.285  12.806  24.820  0.1138  0.1713 -0.2515
41711W        W84628   9.567  14.160  26.422 -0.1860 -0.1277  0.0016
41712W        W84629   8.209  11.182  24.496 -0.0647 -0.1119  0.1146
41713W        W84630   9.503   9.280  23.684  0.1869 -0.4959 -0.1089
41714W        W84631  13.083  12.403  27.401 -0.1699 -0.4900  0.0204
41715W        W84632   9.270  11.882  26.732  0.1393  0.1168  0.2275
41716W        W84633   7.425  11.876  23.800 -0.0901  0.0723 -0.2005
41717W        W84634   9.765  12.548  26.297 -0.3105 -0.0381 -0.2318
41718W        W84635   6.392  11.116  23.915 -0.0562 -0.1242  0.0074
41719W        W84636   7.088  13.692  24.868  0.0087  0.0541  0.2575
41720W        W84637  11.053  14.736  25.154 -0.5187 -0.0100  0.0660
41721W        W84638   9.113  10.851  25.347 -0.0185  0.3571 -0.2638
41722W        W84639   9.120  15.055  23.213  0.2673  0.0683 -0.1895
41723W        W84640  11.206  12.038  26.007  0.0772 -0.2417  0.3192
41724W        W84641  11.598  13.953  26.140 -0.0637 -0.1101 -0.1591
41725W        W84642   9.899  11.491  24.832  0.0395 -0.0723 -0.1026
41726W        W84643   7.344   9.102  24.165  0.0277  0.2020  0.0634
41727W        W84644  10.192  11.994  25.533  0.0688  0.0820  0.0819
41728W        W84645   8.503  11.084  25.550 -0.4055  0.0482  0.2547
41729W        W84646   9.843  10.223  25.695  0.0745 -0.0021  0.3618
41730W        W84647   8.109  13.929  27.399 -0.0234 -0.3814 -0.0196
41731W        W84648  10.889  10.552  27.240  0.2718  0.2367 -0.0394
41732W        W84649   8.966  13.124  21.629  0.1505 -0.0045 -0.0487
41733W        W84650  10.993  11.609  27.060 -0.2072  0.3295 -0.2911
41734W        W84651   9.172  10.998  24.917 -0.1058  0.1719 -0.2376
41735W        W84652   5.967  13.608  26.527 -0.0828 -0.1908 -0.0678
41736W        W84653   9.045  12.145  22.217  0.0759 -0.1454  0.0672
41737W        W84654  10.751  10.182  24.288  0.0839 -0.2737  0.3159
41738W        W84655   9.875  13.267  25.875  0.0824 -0.0420  0.2368
41739W        W84656   6.425  12.822  26.522 -0.2112  0.3817 -0.3850
41740W        W84657  10.753  14.252  25.728 -0.0344 -0.0207  0.4898
41741W        W84658   9.862   9.629  24.978  0.3257 -0.1465  0.0439
41742W        W84659   9.366  13.338  24.234  0.0647  0.1026  0.3036
41743W        W84660   6.088  13.034  24.667  0.4460  0.1691 -0.1814
41744W        W84661  11.825  11.327  25.850 -0.0789 -0.0962 -0.1506
41745W        W84662  10.905  13.942  23.908  0.0437  0.0079 -0.1223
41746W        W84663  12.229  12.697  26.838 -0.1191 -0.0638  0.1469
41747W        W84664   7.579   9.520  26.216 -0.2471 -0.1690  0.0686
41748W        W84665  11.018  13.208  23.957  0.1490  0.2324 -0.0035
41749W        W84666   8.711  11.805  27.968  0.0160  0.2885 -0.3010
41750W        W84667  11.299  12.988  25.475  0.0589 -0.3353 -0.1952
41751W        W84668   7.488  12.358  26.447 -0.2252  0.0829  0.0242
41752W        W84669   9.029  11.328  26.037 -0.3717  0.1231  0.5057
41753W        W84670   8.284  10.395  22.061  0.1687  0.1638 -0.1770
41754W        W84671  10.250  13.524  25.667  0.0703 -0.4598 -0.2259
41755W        W84672  10.699  11.281  26.102  0.2313 -0.2270  0.0403
41756W        W84673   7.989  14.549  23.374 -0.2135 -0.0933  0.1715
41757W        W84674  11.966  11.414  24.732 -0.1837  0.1130  0.3272
41758W        W84675   9.492  12.821  25.882 -0.1554  0.0704  0.0360
41759W        W84676  10.195  10.692  24.177  0.3303 -0.0516  0.0370
41760W        W84677   9.309  12.846  24.158  0.1622 -0.0118 -0.2053
41761W        W84678   9.691  11.520  24.197 -0.4043 -0.0887  0.0664
41762W        W84679   9.799  11.951  26.825 -0.3544  0.1498  0.1726
41763W        W84680  11.700  12.630  24.609  0.2847 -0.2267 -0.1507
41764W        W84681   9.827  12.064  25.169 -0.3555 -0.0250  0.2212
41765W        W84682   9.845   9.926  28.145 -0.1482 -0.0043  0.3429
41766W        W84683   9.993  13.401  28.260  0.0772  0.0667  0.1488
41767W        W84684   8.951  12.112  25.869  0.1306  0.1763  0.2933
41768W        W84685   7.548  13.146  27.828  0.2584 -0.0064  0.3065
41769W        W84686  12.895  12.611  25.734 -0.1969  0.0606  0.2590
41770W        W84687  10.263  11.548  22.336  0.1537 -0.0009  0.1276
41771W        W84688  11.321  10.346  25.150  0.4937  0.0361 -0.0923
41772W        W84689  11.077  12.769  24.647  0.3661  0.1241  0.0881
41773W        W84690   9.833  11.109  22.874 -0.0968  0.1055 -0.2331
41774W        W84691   8.440   9.743  24.187  0.0523  0.2712  0.1419
41775W        W84692  10.723  13.436  27.603  0.3532  0.0260  0.2029
41776W        W84693   8.305  12.209  24.779  0.2163 -0.0524  0.0618
41777W        W84694  11.232   9.489  26.656  0.3672 -0.2506  0.0085
41778W        W84695   8.490  15.427  23.824 -0.0738  0.2347 -0.1409
41779W        W84696  10.003  12.714  25.038 -0.0231  0.0295 -0.0627
41780W        W84697  12.307  12.975  24.578 -0.2057  0.0534 -0.1023
41781W        W84698   8.620  11.198  26.594 -0.0569 -0.2714 -0.0522
41782W        W84699   8.222  14.993  27.334 -0.1731 -0.0251  0.1648
41783W        W84700   7.387  11.089  24.165  0.1785 -0.0480  0.1282
41784W        W84701   9.407  11.076  23.204 -0.2244 -0.1183 -0.1082
41785W        W84702  10.036  13.767  26.011  0.1040  0.0891 -0.2761
41786W        W84703  13.586  13.716  27.102 -0.2303  0.0707 -0.0031
41787W        W84704   9.030   9.777  25.331  0.0167 -0.0199  0.0130
41788W        W84705  11.479  11.816  29.042 -0.0029  0.0378 -0.0482
41789W        W84706   9.664  11.292  23.586 -0.0644 -0.3523 -0.4468
41790W        W84707   8.710  12.322  27.312 -0.0818  0.0361 -0.3149
41791W        W84708   9.655  13.564  26.362 -0.0658  0.1067 -0.0816
41792W        W84709   8.077  11.726  24.707  0.0036 -0.0155  0.4924
41793W        W84710  11.227  14.002  25.723 -0.0704  0.3336  0.1245
41794W        W84711  10.110   9.285  25.240  0.4170 -0.1454 -0.3195
41795W        W84712  10.410  11.430  25.517 -0.0263 -0.2659 -0.2618
41796W        W84713   9.220  12.151  25.362  0.2226 -0.0333 -0.1042
41797W        W84714  11.903  13.331  26.886  0.4139  0.1367  0.0810
41798W        W84715   8.612  13.688  25.732 -0.4418 -0.3873  0.2156
41799W        W84716   9.936  13.005  26.373  0.3721  0.2890 -0.0218
41800W        W84717  10.866  12.468  26.150 -0.1947  0.1496 -0.1873
41801W        W84718  12.192  13.138  26.037 -0.1496 -0.1252  0.2507
41802W        W84719   6.919  12.621  23.760 -0.2207 -0.0268  0.3498
41803W        W84720   6.702  11.371  28.774  0.1112 -0.3140 -0.1284
41804W        W84721   8.134  12.844  25.947  0.1699 -0.0565  0.2850
41805W        W84722  10.030  14.374  24.073  0.1915  0.0102 -0.2306
41806W        W84723   8.625  10.909  25.105  0.0832  0.2652 -0.2650
41807W        W84724  10.399  13.033  23.921  0.4053  0.1134  0.0566
41808W        W84725   8.601  12.832  26.810  0.2397  0.1108 -0.0798
41809W        W84726   7.828  10.885  26.030 -0.0751  0.3348 -0.0495
41810W        W84727   9.472  13.558  23.824  0.0138  0.1107 -0.3718
41811W        W84728  10.058  12.841  22.783 -0.0120 -0.0421 -0.1006
41812W        W84729   8.736  12.423  25.470 -0.0533  0.5568 -0.1646
41813W        W84730   8.791  13.829  27.985 -0.0457 -0.2487 -0.0313
41814W        W84731  10.060  13.111  22.321 -0.2794 -0.1070 -0.2407
41815W        W84732   5.795  12.161  23.543 -0.1988 -0.0306 -0.1327
41816W        W84733   7.421  12.277  24.754 -0.2569 -0.1309 -0.1252
41817W        W84734  11.346  11.227  23.047 -0.3237 -0.3158  0.1184
41818W        W84735   8.653  13.407  26.122  0.0242  0.0199  0.0060
41819W        W84736  11.540  13.746  26.862  0.1245 -0.0834 -0.0339
41820W        W84737   8.834  11.071  23.970 -0.2482  0.2968  0.0440
41821W        W84738   9.580  10.332  23.522 -0.0947 -0.0785  0.3067
41822W        W84739  11.170  10.769  22.990 -0.0769  0.3479 -0.0379
41823W        W84740  10.013  15.619  27.408  0.4966  0.3545 -0.4016
41824W        W84741  10.292  11.609  25.994 -0.2403 -0.2389 -0.3119
41825W        W84742  10.653  11.946  25.365  0.0345  0.0930  0.1449
41826W        W84743   9.121  11.238  27.004 -0.1142 -0.0095 -0.0372
41827W        W84744  11.353  10.134  27.789 -0.0129  0.0123  0.2136
41828W        W84745   9.860  16.640  26.142 -0.0333 -0.1747 -0.2729
41829W        W84746   9.109  12.744  24.600  0.0388  0.2438  0.0397
41830W        W84747   7.734  10.982  25.294 -0.2282  0.2000  0.0378
41831W        W84748   9.058  12.606  26.112 -0.2314  0.1335  0.1351
41832W        W84749  12.226  10.420  27.349 -0.0681  0.1560 -0.3260
41833W        W84750   7.891  12.121  25.075 -0.1610 -0.3800 -0.5813
41834W        W84751  11.477  14.179  26.586  0.3746  0.1516 -0.1315
41835W        W84752   9.795  14.059  25.599  0.0127 -0.0970  0.1728
41836W        W84753  10.512  13.881  26.359  0.0906  0.2838  0.2160
41837W        W84754   9.913  14.472  25.287  0.1892  0.1383  0.0956
41838W        W84755   7.514  11.369  23.734 -0.0802  0.0370  0.1459
41839W        W84756  11.835  11.199  21.313 -0.0151  0.1606  0.0162
41840W        W84757   9.741  11.825  25.773  0.2824  0.2087 -0.0841
41841W        W84758  10.434  11.674  26.500 -0.0674  0.1233  0.0342
41842W        W84759   9.912  10.758  25.533 -0.1316 -0.3169 -0.0899
41843W        W84760   9.482  10.636  25.736  0.3412  0.1882  0.2467
41844W        W84761   9.196  13.134  26.853 -0.3542 -0.0893 -0.1079
41845W        W84762   7.137  12.524  24.342 -0.0695 -0.0994 -0.1186
41846W        W84763   8.119  13.190  23.688 -0.0983  0.0871 -0.0688
41847W        W84764  11.105  11.546  26.139  0.3082  0.4385 -0.0954
41848W        W84765   9.321  11.271  23.970 -0.0965 -0.1587  0.3387
41849W        W84766  10.356  13.164  28.564  0.2291 -0.0178  0.0747
41850W        W84767   8.397  11.856  25.116 -0.0398  0.0068 -0.1464
41851W        W84768  10.458  10.869  25.372  0.0305  0.0771 -0.1514
41852W        W84769   6.465  13.369  26.434 -0.1252 -0.0097 -0.2642
41853W        W84770   8.035  12.369  25.785  0.0325 -0.0885  0.1175
41854W        W84771  12.612  13.485  25.264  0.1687  0.3440 -0.0183
41855W        W84772   7.139   8.618  24.165 -0.2092 -0.0721  0.0318
41856W        W84773  11.824  12.979  22.153  0.2506 -0.1220 -0.2141
41857W        W84774  11.419  12.901  26.832  0.3817  0.0326 -0.0793
41858W        W84775   7.549  14.613  23.695  0.1488 -0.1112  0.3544
41859W        W84776  12.042  13.571  26.343 -0.0678 -0.1974  0.1386
41860W        W84777  10.353  12.992  25.588  0.0039 -0.0085 -0.0937
41861W        W84778   8.355  10.709  28.114 -0.1166  0.1492  0.0080
41862W        W84779  12.324  13.951  23.617 -0.4261  0.1049  0.3178
41863W        W84780  11.136  13.513  25.624  0.1636  0.0828 -0.0225
41864W        W84781  10.229  10.517  25.965 -0.2710  0.1363  0.1168
41865W        W84782  10.821  12.720  25.637 -0.0662  0.2830 -0.1312
41866W        W84783   7.844  14.210  27.716  0.2171 -0.3300 -0.0266
41867W        W84784  11.203  12.327  26.564 -0.1547  0.0187  0.0250
41868W        W84785  11.732  11.044  26.601 -0.0469 -0.1310 -0.3985
41869W        W84786   9.311  14.310  23.834 -0.1156  0.0834  0.0217
41870W        W84787  11.127  10.814  24.197  0.1717 -0.0255  0.1353
41871W        W84788  10.217  12.626  26.381 -0.0466  0.0554 -0.0075
41872W        W84789   7.912  13.813  28.292 -0.0731  0.2965  0.0797
41873W        W84790   5.790  12.619  23.895 -0.1297  0.0146 -0.0047
41874W        W84791  10.116  13.481  26.506 -0.1310 -0.1999 -0.3031
41875W        W84792   8.361  11.290  23.955 -0.0818 -0.0523 -0.5034
41876W        W84793  11.629  14.737  25.383 -0.1183 -0.1148  0.3830
41877W        W84794  10.533  12.371  23.346  0.1837 -0.2767 -0.1430
41878W        W84795  10.293  10.205  25.566  0.1900 -0.1634 -0.1755
41879W        W84796  11.189  12.553  25.348 -0.4124 -0.0975 -0.0808
41880W        W84797   8.846   9.971  25.730  0.0803 -0.0461 -0.0915
41881W        W84798  11.843  10.991  23.750 -0.2267 -0.1598 -0.0191
41882W        W84799   9.483  12.319  24.329  0.1862 -0.0585 -0.2321
41883W        W84800   8.310  12.445  26.878  0.1447  0.0262  0.1371
41884W        W84801   6.451  13.474  23.487 -0.2567  0.1801 -0.1309
41885W        W84802   8.232  13.275  22.941  0.0668  0.1717  0.0472
41886W        W84803   9.963  12.189  26.013  0.3420 -0.1017 -0.2010
41887W        W84804  10.717   8.914  24.757 -0.0043 -0.1993  0.0390
41888W        W84805   5.297  13.078  27.204  0.0281  0.1261  0.0411
41889W        W84806   7.420  11.993  25.200  0.2566 -0.0503  0.0529
41890W        W84807   9.514  11.505  22.911  0.0600 -0.1465 -0.1488
41891W        W84808  10.687  12.980  24.386 -0.0571 -0.0361  0.1130
41892W        W84809   7.742  11.649  28.593  0.1449 -0.1913  0.3407
41893W        W84810   7.524  10.770  26.417 -0.0291 -0.3322  0.1537
41894W        W84811  10.137  15.840  23.942  0.5493 -0.0065  0.4702
41895W        W84812  10.618  13.533  23.942  0.1681 -0.3335  0.2381
41896W        W84813   6.967  10.876  24.150 -0.1689  0.2105  0.1997
41897W        W84814  11.408  13.284  27.585  0.0708 -0.0850  0.0328
41898W        W84815   7.154  11.131  23.372  0.2654  0.1325  0.0760
41899W        W84816  10.083  11.698  27.268 -0.2418 -0.0351  0.0560
41900W        W84817   7.559  10.443  25.591 -0.0593 -0.1302 -0.0259
41901W        W84818   7.320  11.608  24.229  0.0208  0.1276  0.2002
41902W        W84819   9.608  11.924  27.323 -0.2365 -0.0419 -0.0654
41903W        W84820   9.542  11.840  24.563 -0.1032 -0.0512 -0.0148
41904W        W84821  10.490  15.043  22.912  0.0527  0.0222  0.0564
41905W        W84822  10.702  13.813  25.420 -0.1440  0.2526 -0.1089
41906W        W84823   7.742  13.789  26.201 -0.1823  0.0664  0.1479
41907W        W84824   9.139   9.918  26.141  0.3185  0.1035  0.1297
41908W        W84825  10.017  13.940  26.481 -0.0932 -0.2951 -0.0965
41909W        W84826   9.529  13.275  28.447 -0.1138 -0.0726 -0.0721
41910W        W84827  10.158  13.880  23.898 -0.0125  0.0545 -0.0606
41911W        W84828  10.499  10.430  25.102 -0.1908 -0.1059  0.0600
41912W        W84829  10.021  12.488  26.835  0.2545  0.3539 -0.1721
41913W        W84830   9.518  11.288  28.005  0.1214  0.0000  0.0399
41914W        W84831   7.520  12.325  25.787  0.3637  0.0130  0.0519
41915W        W84832  10.462  12.021  28.623 -0.1769 -0.2344 -0.0891
41916W        W84833   8.543  11.279  26.017  0.0259  0.1578  0.0218
41917W        W84834   7.916  12.163  24.453 -0.0343 -0.1406  0.1291
41918W        W84835   9.848  13.621  25.391 -0.0681  0.0341  0.5091
41919W        W84836   8.941  11.533  23.645  0.0147 -0.0180  0.0554
41920W        W84837   8.627  11.007  23.387  0.2078 -0.1253  0.1046
41921W        W84838   8.124  13.323  26.168  0.0957 -0.1902  0.0041
41922W        W84839  11.717  13.850  25.677 -0.0910 -0.1179  0.0999
41923W        W84840   9.335  11.615  27.608  0.2217 -0.2756  0.1399
41924W        W84841   8.812  11.400  22.085 -0.0212  0.1632 -0.1124
41925W        W84842  10.240  13.943  25.373  0.3248  0.1340  0.0006
41926W        W84843  11.248  13.241  24.663  0.1650  0.0197 -0.1472
41927W        W84844   9.080  12.813  25.590  0.0591  0.1027  0.0516
41928W        W84845  11.335  14.064  27.537 -0.0105 -0.4889  0.2481
41929W        W84846  11.555  11.330  26.243 -0.0471 -0.5055  0.1060
41930W        W84847   8.593  11.546  26.925  0.1195 -0.1647 -0.0645
41931W        W84848   7.994  10.130  25.333  0.0241  0.3108 -0.1641
41932W        W84849  11.254  12.115  22.989 -0.1430  0.2537 -0.0399
41933W        W84850  11.605  11.845  28.549  0.4399  0.0939  0.0025
41934W        W84851   9.433  10.918  26.693 -0.2008  0.3476  0.2882
41935W        W84852  10.870   9.662  24.537 -0.3928 -0.1559 -0.3186
41936W        W84853  10.526  14.543  26.059 -0.1267  0.1090 -0.3101
41937W        W84854   8.183  12.352  22.404 -0.0489 -0.1691 -0.1508
41938W        W84855   9.351  13.782  31.325 -0.1250 -0.0872  0.2350
41939W        W84856   8.945  12.618  28.829 -0.0860 -0.3678 -0.0686
41940W        W84857  12.092  13.149  25.541  0.1668  0.0912  0.3707
41941W        W84858  10.865  13.033  29.445  0.4361 -0.0320 -0.3484
41942W        W84859   7.531  10.480  28.192 -0.0368  0.3221 -0.1414
41943W        W84860  11.308  14.095  28.138  0.0404 -0.1894  0.3797
41944W        W84861   6.685   8.860  29.643  0.3066 -0.1494 -0.1337
41945W        W84862  11.973  12.042  28.850 -0.3647 -0.1174 -0.0739
41946W        W84863   9.962  16.015  29.612 -0.1045  0.0222  0.0004
41947W        W84864  10.108  12.653  27.322 -0.3052 -0.2501 -0.2492
41948W        W84865  10.677  11.209  28.632 -0.0075 -0.4590  0.1484
41949W        W84866   9.241  13.107  27.642 -0.1890 -0.4108  0.0573
41950W        W84867  10.777  11.476  27.461  0.0452 -0.0733 -0.0483
41951W        W84868   6.158   9.227  29.311 -0.0558  0.0041 -0.3758
41952W        W84869  10.917  11.043  30.805 -0.0146 -0.4336  0.3343
41953W        W84870   9.647  11.468  28.442 -0.1947  0.0171 -0.0378
41954W        W84871  10.296  13.795  29.212 -0.0459 -0.1881 -0.1816
41955W        W84872  11.362  11.288  29.913 -0.0722  0.2947 -0.1754
41956W        W84873   9.788  13.625  27.604  0.1069 -0.1337 -0.1080
41957W        W84874   9.949  12.086  31.093  0.0651  0.1077 -0.0386
41958W        W84875  10.694  11.049  29.267  0.2428  0.1464 -0.0423
41959W        W84876  10.364  13.169  27.994 -0.0996 -0.0551  0.1445
41960W        W84877   8.857  11.773  25.395  0.1870 -0.1259 -0.0038
41961W        W84878   8.978  11.986  27.578 -0.0344  0.0228  0.1366
41962W        W84879   9.961  11.266  31.378 -0.0545 -0.0944 -0.2432
41963W        W84880  10.316  11.462  27.620  0.0488 -0.2931  0.1964
41964W        W84881  11.284  12.092  30.204 -0.0988  0.0614 -0.1664
41965W        W84882   8.512  14.357  28.902 -0.2421  0.1197 -0.1491
41966W        W84883  13.469  12.947  29.921 -0.0014  0.2733  0.3881
41967W        W84884  11.284  13.384  29.337 -0.1056  0.0161  0.1375
41968W        W84885   6.428  14.390  29.279  0.1397  0.0141  0.0968
41969W        W84886   8.034  13.440  30.083 -0.1452 -0.0943  0.0846
41970W        W84887   7.265  12.574  30.057  0.3922  0.0686 -0.1963
41971W        W84888  11.138  13.658  28.961 -0.0403 -0.0879  0.3117
41972W        W84889  11.152  13.602  30.193  0.3025  0.4422  0.1281
41973W        W84890   9.380  16.668  31.317 -0.1528 -0.1331  0.0091
41974W        W84891   6.887  13.913  27.803  0.0371  0.0167 -0.0186
41975W        W84892  10.837  14.829  31.309  0.0251 -0.0526 -0.1407
41976W        W84893  10.108  13.770  29.702 -0.0918 -0.1349 -0.0663
41977W        W84894   9.464  14.668   0.628  0.2310 -0.0277  0.2758
41978W        W84895   9.455  13.716  28.933 -0.3100  0.0966  0.0260
41979W        W84896   9.977  13.568  27.100 -0.0088  0.1434  0.0487
41980W        W84897   8.353  14.065  30.265  0.0705  0.1009  0.2503
41981W        W84898   8.786  12.818  30.714 -0.1300 -0.0842  0.0935
41982W        W84899   6.428  12.018  29.900 -0.2358 -0.4478 -0.1388
41983W        W84900  11.594  11.696  30.121 -0.0003 -0.1143 -0.1211
41984W        W84901   5.868  14.325  27.262 -0.1975  0.2587  0.2917
41985W        W84902   9.966  12.135  27.755  0.1453 -0.0760 -0.0834
41986W        W84903   7.809  14.514  29.842  0.0558 -0.2167  0.1842
41987W        W84904  11.881  11.542  27.358 -0.5019  0.0694  0.2274
41988W        W84905   9.157  11.169  28.379 -0.5308  0.1968  0.1307
41989W        W84906   9.490  13.765  28.176  0.2286 -0.1926 -0.0279
41990W        W84907   9.919  10.717  27.944  0.0742 -0.3528  0.1984
41991W        W84908  10.014  16.018  31.570 -0.1367  0.0192 -0.1955
41992W        W84909   8.812  14.777  28.467 -0.1000  0.0577  0.1718
41993W        W84910   9.613  12.334  30.304  0.3661  0.1110  0.2572
41994W        W84911   9.679  13.495   0.071  0.3183  0.3305 -0.1476
41995W        W84912   8.780  11.140  28.712 -0.3367  0.0223 -0.1485
41996W        W84913  12.025  13.351  25.036 -0.0260  0.1087 -0.2268
41997W        W84914  12.150  12.853  27.640 -0.3378  0.2193 -0.0736
41998W        W84915   8.942  12.945  26.396 -0.1277 -0.0905 -0.4382
41999W        W84916   7.122  13.859  29.709 -0.2626  0.3219 -0.4401
42000W        W84917   7.507  11.215  30.972 -0.1857 -0.3041  0.0251
42001W        W84918  10.219  13.035  29.008  0.0778 -0.1578 -0.1358
42002W        W84919   8.709  11.708  25.852 -0.1570  0.2346  0.1542
42003W        W84920  11.339  14.680  31.265 -0.0013 -0.1589  0.2308
42004W        W84921   6.190  12.220  31.006 -0.1404 -0.2862 -0.1613
42005W        W84922  13.324  11.563  26.436 -0.0157 -0.0503 -0.0442
42006W        W84923   8.729  13.743  28.485  0.0144  0.2362  0.1286
42007W        W84924   9.192  14.302  30.354  0.1602 -0.1148 -0.0820
42008W        W84925  10.300  14.070  26.949 -0.0491  0.1656 -0.3236
42009W        W84926  11.502  10.065  28.394 -0.1219  0.0594 -0.0870
42010W        W84927  11.407  10.132  30.840  0.0029 -0.2423 -0.1013
42011W        W84928   9.565  13.518  24.996  0.3222 -0.0235 -0.1277
42012W        W84929   8.097  12.664  27.720 -0.1032 -0.1438  0.0351
42013W        W84930  12.109  12.830  31.197  0.1001  0.1059 -0.0271
42014W        W84931  11.442  10.688  26.492  0.3431  0.1744 -0.2258
42015W        W84932   9.472  14.446  29.951  0.2423 -0.1118 -0.1360
42016W        W84933  10.782  10.553  30.527  0.1111  0.0540 -0.0552
42017W        W84934   9.798  12.692  29.875  0.1574  0.0755 -0.0512
42018W        W84935   7.454  13.936  27.988 -0.2657 -0.1775 -0.1770
42019W        W84936   9.292  12.448  28.340  0.3516 -0.1304  0.0915
42020W        W84937   7.348  13.399  29.603 -0.2059  0.3231  0.0050
42021W        W84938   9.938  11.627  29.284 -0.0436  0.3011  0.1760
42022W        W84939   9.114  14.064  28.282  0.1650  0.0590  0.0646
42023W        W84940  10.052  12.754  30.308  0.1244  0.2361  0.1647
42024W        W84941   8.884  11.407  29.547 -0.2637  0.0737  0.1052
42025W        W84942  11.620   8.824  28.842 -0.1310  0.0639 -0.3469
42026W        W84943   7.013  11.721  28.087  0.3354 -0.1320  0.0650
42027W        W84944  10.530  14.993  29.964  0.4353  0.0352  0.1527
42028W        W84945  11.281  12.134  28.159 -0.0548  0.2063 -0.1058
42029W        W84946  10.184  13.818  27.852  0.0428 -0.0322 -0.3660
42030W        W84947  10.416  12.635  30.769 -0.1141 -0.0151  0.0385
42031W        W84948   6.949  13.810  28.840 -0.2430  0.2949 -0.2669
42032W        W84949   9.657  11.414  29.674 -0.0459  0.1985 -0.1702
42033W        W84950   6.750  12.231  29.532 -0.2063  0.3875 -0.1632
42034W        W84951  11.786  13.606  30.276 -0.3050 -0.3509  0.1178
42035W        W84952   9.083  10.281  28.178  0.1090  0.2695 -0.3695
42036W        W84953   9.877  10.879  31.064 -0.1188  0.4023  0.0760
42037W        W84954   7.442  13.429  27.341 -0.0286  0.1710  0.3778
42038W        W84955   7.393  14.605  30.136  0.0514  0.0598 -0.0138
42039W        W84956  11.113  10.598  30.893  0.0147  0.0173  0.2358
42040W        W84957  11.891  12.417  27.590  0.4181 -0.0521 -0.2019
42041W        W84958   9.743  13.285  31.103  0.0766 -0.1227  0.0562
42042W        W84959  10.650  14.449  29.994  0.0546 -0.4282 -0.1091
42043W        W84960  11.301  12.991  29.676  0.4099 -0.0876  0.1959
42044W        W84961   7.973  11.294  28.347  0.1905  0.1190 -0.1083
42045W        W84962   9.028  13.570  29.225 -0.0014 -0.1609 -0.2585
42046W        W84963   7.672  15.002  29.184 -0.0456  0.1333  0.3766
42047W        W84964  11.091  11.935  28.662 -0.0655  0.3013 -0.0208
42048W        W84965   8.574  14.752  29.306 -0.0782  0.2935  0.1759
42049W        W84966   8.621  13.286  29.455 -0.0630 -0.2332 -0.0998
42050W        W84967   8.330  14.712  28.375  0.4032 -0.2930  0.0704
42051W        W84968  11.359  10.286  29.941 -0.2565  0.0468  0.2765
42052W        W84969  11.064  10.779  29.914  0.2097 -0.3748  0.4800
42053W        W84970  10.949  13.436  29.695 -0.0324  0.0192  0.0533
42054W        W84971   8.895  12.057  28.365  0.2304  0.2677  0.0269
42055W        W84972   9.848  14.287  26.832 -0.0233  0.0167 -0.1727
42056W        W84973   6.979  13.565  29.315 -0.0445 -0.0528 -0.0024
42057W        W84974   6.900  13.272  28.944 -0.1803 -0.2734 -0.2920
42058W        W84975   8.275  14.657  30.109 -0.3087 -0.1966  0.0382
42059W        W84976  11.132  12.324  29.746  0.2936  0.2036 -0.4115
42060W        W84977   9.461  12.190  31.230 -0.4537 -0.0263 -0.0672
42061W        W84978   9.270  12.585   0.138 -0.1115 -0.2498 -0.2410
42062W        W84979   6.047  12.193  27.360 -0.2472 -0.1016  0.5537
42063W        W84980  10.017  14.906  30.818  0.2469 -0.0175 -0.2874
42064W        W84981  11.157   8.712  29.072  0.0953  0.0622 -0.0094
42065W        W84982  12.719  12.652  27.753 -0.0847  0.0644 -0.0841
42066W        W84983  10.536  12.730  28.769 -0.0267 -0.1241  0.2123
42067W        W84984  11.799  12.498  28.974 -0.1775 -0.1324  0.2684
42068W        W84985  11.834  12.891  28.502 -0.0882 -0.3742 -0.3744
42069W        W84986  11.937  12.664  28.060  0.1463  0.0458 -0.1461
42070W        W84987   9.092  12.389  30.810  0.1846 -0.2330 -0.1291
42071W        W84988   9.542  13.388  27.229 -0.3058  0.0277 -0.0700
42072W        W84989   9.334  12.770  30.650 -0.3219 -0.1904  0.2179
42073W        W84990   9.532  11.449  26.670  0.0511  0.1418  0.1163
42074W        W84991  11.430  11.801  27.123 -0.1339  0.0556  0.1910
42075W        W84992   9.582  12.151  29.818 -0.3577  0.1027 -0.1077
42076W        W84993  12.321  13.497  29.426 -0.0775  0.0535  0.4189
42077W        W84994   7.281  13.404  28.635 -0.0019 -0.0276 -0.0228
42078W        W84995  10.406  12.689  29.914  0.2231  0.0336 -0.0247
42079W        W84996   9.518  12.791  26.687 -0.2344  0.0478 -0.1280
42080W        W84997  10.109  11.709  28.297  0.0098 -0.3498  0.1298
42081W        W84998   7.451  16.576  27.914  0.2239  0.0071  0.1806
42082W        W84999  12.205  11.029  28.544  0.4188  0.0908 -0.2178
42083W        W85000  10.628  10.087  29.629 -0.0947 -0.2818 -0.1972
42084W        W85001  10.888   9.618  29.005 -0.1347 -0.1824 -0.0616
42085W        W85002  11.810  12.984  29.300 -0.1815 -0.0805  0.3285
42086W        W85003  10.774  11.812  28.296  0.1322  0.1265 -0.3711
42087W        W85004  10.081  12.501  28.635 -0.3043  0.0757 -0.0210
42088W        W85005   8.648  13.020  25.152  0.1314  0.0990  0.0829
42089W        W85006  10.058  11.830  31.515 -0.3071 -0.0941  0.2214
42090W        W85007  10.402  11.886  30.169  0.3627  0.2515 -0.1451
42091W        W85008   9.730  14.118  29.718  0.2122 -0.0616 -0.2554
42092W        W85009  12.106  12.462  30.737 -0.0767  0.0251 -0.0371
42093W        W85010  10.422  14.297  28.002  0.0862 -0.1947 -0.1465
42094W        W85011  10.159  11.407  30.138 -0.1159 -0.0627 -0.2745
42095W        W85012  10.273  12.217  28.149  0.1408 -0.4812 -0.2131
42096W        W85013   8.920  12.992  29.181 -0.0495  0.0255 -0.0621
42097W        W85014   8.405  12.981  28.163 -0.3474  0.0627 -0.1304
42098W        W85015   8.133  11.414  28.833  0.2253 -0.2000 -0.1458
42099W        W85016  11.183  13.664  27.828 -0.4711 -0.4051 -0.0046
42100W        W85017   9.710  13.265  26.775  0.2226 -0.2064 -0.0543
42101W        W85018  11.847  10.800  28.788  0.3109  0.1710  0.1187
42102W        W85019   7.914  14.999  30.089  0.0416  0.1438  0.1175
42103W        W85020  10.514  10.495  27.599  0.0191 -0.0981  0.1163
42104W        W85021   6.687  13.583  28.508 -0.0497  0.2631 -0.1348
42105W        W85022   8.993  12.613  26.958  0.0535 -0.0117 -0.0224
42106W        W85023   5.268  13.369  28.495  0.1003  0.0080  0.1798
42107W        W85024  11.799  12.125  28.048 -0.1500 -0.0907 -0.1203
42108W        W85025  11.447  11.856  29.633  0.2754  0.0877  0.0807
42109W        W85026   9.504  10.476  28.116  0.0535  0.1334  0.0164
42110W        W85027  11.230   9.620  27.686  0.2917 -0.1273  0.1300
42111W        W85028   6.158  14.319  29.755  0.0217  0.2572  0.0116
42112W        W85029   9.811  13.890  29.269  0.1423 -0.0994  0.0000
42113W        W85030  11.030  10.587  27.745 -0.0346 -0.0594  0.1087
42114W        W85031  10.015  14.075  28.882 -0.0159  0.1908  0.0532
42115W        W85032   9.713  13.614  29.979 -0.2202  0.3396 -0.0812
42116W        W85033   7.800  11.809  27.979 -0.1185 -0.2054 -0.1907
42117W        W85034  11.663  13.024  31.396 -0.1588 -0.1724  0.1882
42118W        W85035   9.493  12.799  28.764  0.1893 -0.0319  0.1296
42119W        W85036   6.891  14.420  29.100  0.0941  0.0464  0.0152
42120W        W85037   9.550  12.344  28.864 -0.0185  0.1854  0.2929
42121W        W85038  10.053  12.181  27.265  0.1720  0.0723  0.1285
42122W        W85039  10.349  15.809  28.308 -0.0609 -0.1530 -0.2383
42123W        W85040   8.316  11.844  30.334 -0.0985 -0.1895  0.0084
42124W        W85041  11.514  14.246  29.555  0.0148  0.0187  0.0378
42125W        W85042   9.483  10.027  29.208  0.1588 -0.1208  0.0775
42126W        W85043   9.727  10.197  27.754 -0.0907 -0.2651 -0.0857
42127W        W85044  11.093  12.003  27.489 -0.0091  0.0366 -0.1093
42128W        W85045  11.519  12.963  28.893  0.2370 -0.0212  0.1221
42129W        W85046  10.183  10.909  30.083 -0.1829  0.2257  0.0579
42130W        W85047   7.636  14.294  30.775 -0.3668 -0.1081  0.0841
42131W        W85048  10.431   9.968  28.223 -0.3228 -0.2201 -0.3369
42132W        W85049  10.985  12.126  26.995  0.2483  0.0552 -0.0361
42133W        W85050  11.046  14.183  29.236 -0.0779  0.0582 -0.0322
42134W        W85051   8.976  12.361  27.945 -0.0615 -0.0907  0.1012
42135W        W85052   7.943  11.970  29.985 -0.1301 -0.0920 -0.3899
42136W        W85053   7.653  14.477  29.153 -0.0443  0.3907 -0.4423
42137W        W85054  10.190  12.947  29.487 -0.1846  0.0190 -0.3506
42138W        W85055   9.407  13.561  29.555  0.1102 -0.0386  0.0436
42139W        W85056   7.230  12.836  28.081  0.0871 -0.1214 -0.2961
42140W        W85057   8.803  14.694  30.053 -0.1558  0.0223 -0.0573
42141W        W85058  12.136   9.854  29.585 -0.1802  0.2086 -0.1699
42142W        W85059  10.337  13.207  27.178 -0.1315 -0.3918  0.0446
42143W        W85060   8.674  14.198  29.412  0.2391  0.0467  0.0841
42144W        W85061  11.998  13.186  30.176 -0.0329  0.3537  0.1429
42145W        W85062   8.907  12.926  27.932  0.1934 -0.0703  0.2824
42146W        W85063  10.926  13.002  30.941  0.1054  0.1574 -0.1465
42147W        W85064   8.433  11.214  29.579  0.3070 -0.1503  0.0873
42148W        W85065  11.964  13.292  28.845  0.1582 -0.0713  0.0018
42149W        W85066  10.156  12.441  29.561 -0.2207 -0.0842  0.1975
42150W        W85067  10.431  13.741  27.308  0.1681 -0.0675 -0.1186
42151W        W85068   9.654  13.121  30.106 -0.2043 -0.0858  0.0127
42152W        W85069   9.060  11.632  28.632  0.1359  0.2757 -0.0510
42153W        W85070   6.723  11.017  29.252 -0.2997 -0.0230 -0.1010
42154W        W85071   9.704  13.123  29.599  0.2870 -0.1111 -0.2832
42155W        W85072  11.685  14.402  30.175 -0.1603 -0.0129 -0.1674
42156W        W85073   8.006  14.908  29.558  0.2195 -0.2850  0.4332
42157W        W85074   9.860  10.773  29.743  0.0356 -0.2357  0.4042
42158W        W85075  10.074  12.263  30.047 -0.3283 -0.1751  0.0711
42159W        W85076   9.878  12.670  29.132  0.3788  0.0153 -0.1929
42160W        W85077   9.612  12.082  26.383 -0.3558 -0.4251 -0.1447
42161W        W85078   8.588  12.040  29.550  0.0216  0.0730 -0.0766
42162W        W85079  10.256   9.896  31.081  0.0627 -0.1945 -0.0090
42163W        W85080  11.204  11.503  28.370  0.0432 -0.1351  0.0602
42164W        W85081   9.956  11.829  28.756  0.2063 -0.1082  0.2381
42165W        W85082  10.846  10.718  28.480  0.0793 -0.0969 -0.0238
42166W        W85083  11.957  13.171  27.954  0.0735  0.0802  0.2500
42167W        W85084  11.329  11.037  31.158  0.1962  0.0601 -0.2037
42168W        W85085   7.087  10.309  28.579 -0.2192  0.0028 -0.0803
42169W        W85086  10.584  12.778   0.304 -0.1924 -0.0045  0.0386
42170W        W85087  15.698  12.458  28.662 -0.0708 -0.1837  0.0368
42171W        W85088  11.011  10.155  30.464 -0.3723 -0.1543  0.1234
42172W        W85089   9.304  12.663  29.178 -0.3884 -0.0308 -0.3214
42173W        W85090   9.911  12.731  27.782 -0.1341  0.0303 -0.1845
42174W        W85091   8.808  11.338  27.830 -0.2209  0.1837 -0.2914
42175W        W85092  13.504  13.377  29.080  0.0445 -0.0115 -0.3898
42176W        W85093   9.762  12.478  28.236  0.2418  0.1430 -0.1474
42177W        W85094   9.622  11.761  30.196  0.2468  0.0936  0.0993
42178W        W85095   8.215  14.117  29.195  0.0257 -0.0148 -0.0765
42179W        W85096  10.371  12.342  27.693 -0.2745 -0.0913 -0.0564
42180W        W85097  11.158  12.097  29.306  0.0266  0.1661  0.0437
42181W        W85098   5.819  12.810  28.815  0.0364 -0.2065  0.0995
42182W        W85099   9.754  11.278  28.915 -0.0657  0.0503 -0.0041
42183W        W85100   9.914  12.913  28.367 -0.1041 -0.2257 -0.0055
42184W        W85101   8.483  12.455  25.972  0.1535 -0.1323  0.3635
42185W        W85102   9.494  14.269  29.062  0.0589 -0.1050  0.1793
42186W        W85103   8.391  13.233   0.362 -0.2755  0.0782 -0.2135
42187W        W85104  10.821  11.139  25.639 -0.4188 -0.0855 -0.1248
42188W        W85105  10.065  10.176  28.846  0.0543  0.0088 -0.1666
42189W        W85106   6.719  12.809  27.354  0.0640 -0.0942 -0.2463
42190W        W85107  10.595  11.999  27.361  0.2062  0.2276  0.0841
42191W        W85108  10.600  15.018  30.689 -0.1471 -0.2090  0.0331
42192W        W85109   7.192  10.611  30.225 -0.1911  0.4328  0.0238
42193W        W85110   8.215  13.085  29.701  0.1594 -0.2166  0.1264
42194W        W85111  11.731   9.976  29.917  0.1031 -0.0081 -0.1516
42195W        W85112  11.319  10.113  29.051 -0.0821  0.1171  0.2149
42196W        W85113  10.644  12.038  29.301 -0.1625 -0.1120  0.3855
42197W        W85114  12.117  10.782  30.419  0.0568 -0.1856 -0.0140
42198W        W85115  12.414  13.474  30.390 -0.4492  0.1789  0.1091
42199W        W85116   8.663  12.145  30.704  0.2216  0.2219 -0.0543
42200W        W85117  10.678  15.259  31.502 -0.1637 -0.1502  0.1531
42201W        W85118  13.146  12.708  29.348 -0.0236 -0.2676  0.1041
42202W        W85119   6.377  13.536  30.400  0.1542 -0.2569 -0.1552
42203W        W85120   8.716  12.237  29.045  0.1687 -0.1327  0.0293
42204W        W85121   9.583  13.296   1.237 -0.1793 -0.0276 -0.2217
42205W        W85122   8.525  12.620  30.335  0.2301 -0.1341 -0.2360
42206W        W85123   9.291  10.860  28.907  0.2808 -0.0413  0.2574
42207W        W85124   8.391  12.699  28.883  0.3056 -0.0915  0.1997
42208W        W85125   7.881  13.349  31.082  0.4158  0.0269 -0.2936
42209W        W85126   8.597  13.492  31.777  0.0752  0.3588 -0.1755
42210W        W85127   7.444  13.933  28.529  0.3663 -0.2235 -0.0691
42211W        W85128  12.319  13.255  28.464 -0.1997 -0.3549  0.4660
42212W        W85129   8.920  13.024  27.302  0.1019 -0.0033 -0.0922
42213W        W85130  10.094  14.621  28.181  0.0199 -0.0071  0.1117
42214W        W85131  11.408  13.274  26.518 -0.0588 -0.0828 -0.0340
42215W        W85132   7.632  13.683  29.925  0.2084 -0.4368 -0.0661
42216W        W85133   7.000  14.292  30.034 -0.0333 -0.2365  0.1819
42217W        W85134  11.327  14.720  26.433  0.2725  0.1298 -0.0494
42218W        W85135   8.342  13.647  27.849  0.0845  0.0289  0.2264
42219W        W85136  10.661  13.943  31.352 -0.1429  0.0123 -0.3520
42220W        W85137  13.017  11.021  26.481  0.0812 -0.1158 -0.0354
42221W        W85138  10.074  11.911  29.688  0.2580 -0.1295 -0.3152
42222W        W85139  12.281  11.495  26.596  0.1029 -0.0271 -0.1253
42223W        W85140   9.387  13.189  29.145 -0.0903 -0.1405  0.1932
42224W        W85141   8.612  11.408  28.285 -0.0471  0.0648 -0.0588
42225W        W85142  11.674  10.856  26.032 -0.3791  0.1354 -0.1592
42226W        W85143  10.501  12.397  30.324  0.2244  0.1470 -0.0519
42227W        W85144  10.795  11.621  29.095  0.2758 -0.1901 -0.1554
42228W        W85145   5.699  15.182  30.727 -0.1885  0.0345  0.1711
42229W        W85146   9.075  14.780  26.188 -0.1656 -0.0699 -0.0165
42230W        W85147   9.394  12.834  27.217 -0.1648  0.1397  0.1231
42231W        W85148   9.181  13.296  30.555  0.4571  0.1166  0.0269
42232W        W85149  10.550  10.129  30.296 -0.0862 -0.3088  0.2620
42233W        W85150  10.444  13.408  29.535  0.0302 -0.1057  0.1679
42234W        W85151  10.736  12.941  28.345 -0.1389  0.1892 -0.0411
42235W        W85152   7.538  14.447  28.667 -0.2544 -0.0671  0.4143
42236W        W85153   8.741  13.841  31.485  0.6256 -0.0209 -0.5041
42237W        W85154   7.168  13.801  30.349  0.1719 -0.0574  0.0095
42238W        W85155   6.933  12.065  28.930 -0.1827  0.2290  0.3148
42239W        W85156  10.878  12.306  28.900 -0.1256  0.2183  0.1333
42240W        W85157  11.672  13.367  29.739 -0.0628 -0.3022  0.0054
42241W        W85158  11.008  13.054  30.143  0.0265 -0.0653  0.3040
42242W        W85159   7.787  13.495  28.602  0.1953  0.0831 -0.1108
42243W        W85160  11.793  10.654  26.926 -0.0704 -0.1683  0.1205
42244W        W85161  11.309  13.618  28.333 -0.1136  0.0375  0.0225
42245W        W85162   7.422  12.152  28.794  0.0277 -0.2382  0.2603
42246W        W85163   9.213  12.350  26.520 -0.2815 -0.0150  0.2091
42247W        W85164  12.471  11.868  29.036  0.0880 -0.0557 -0.0035
42248W        W85165   9.130  13.420  28.159  0.0457  0.0576 -0.2093
42249W        W85166   9.841  13.044  30.657  0.2185 -0.2550 -0.0191
42250W        W85167  10.797  10.967  27.595 -0.1518 -0.0004 -0.1870
42251W        W85168  12.010  16.464  26.864 -0.2025  0.1062  0.0922
42252W        W85169   7.207  14.742  27.900 -0.0720  0.1206 -0.0406
42253W        W85170  12.205  13.031  29.663 -0.4231 -0.1399 -0.2705
42254W        W85171  12.127  14.966  29.664 -0.0707  0.2456  0.4448
42255W        W85172   7.285  14.035  29.250  0.3615 -0.2838 -0.0160
42256W        W85173  11.959  13.616  27.730  0.1913 -0.1438  0.1293
42257W        W85174  11.275  12.679  30.151 -0.2065  0.2776 -0.1136
42258W        W85175   9.267  13.760  27.746 -0.0072 -0.1885 -0.0142
42259W        W85176  10.755  13.609  30.956  0.0374  0.0062  0.1043
42260W        W85177   8.656  13.172  28.732 -0.1470 -0.0138 -0.0165
42261W        W85178   7.524  13.597  29.108  0.1385  0.0319  0.0909
42262W        W85179   9.677  14.786  28.997 -0.1760 -0.0205  0.2769
42263W        W85180  11.818  13.586  29.305  0.2138 -0.1647 -0.0876
42264W        W85181  11.578  11.945  27.587 -0.5966 -0.1728 -0.1956
42265W        W85182   8.878  13.704  29.701  0.0261 -0.1700  0.0568
42266W        W85183   7.528  14.115  30.148  0.1769 -0.0123 -0.1899
42267W        W85184  10.165   9.441  29.634  0.1594 -0.2554  0.0340
42268W        W85185  10.997  11.977  30.931 -0.0284 -0.0747  0.0704
42269W        W85186   8.379  14.129  27.836 -0.0904  0.1175 -0.2661
42270W        W85187  11.109  10.053  29.519 -0.3135  0.0299 -0.0512
42271W        W85188   8.718  13.311  30.125 -0.0954 -0.2164  0.0713
42272W        W85189   8.791  14.004  30.689 -0.0606  0.2183  0.0261
42273W        W85190   6.900  13.235  26.688  0.2022 -0.1001 -0.0282
42274W        W85191   9.553  14.620  29.455  0.3001 -0.1886  0.0237
42275W        W85192   7.129  15.411  28.400  0.0233  0.0043 -0.1365
42276W        W85193   9.076  14.390  28.674 -0.0313  0.2505  0.2029
42277W        W85194  12.716  14.764  28.703 -0.0246  0.1599  0.0470
42278W        W85195   9.108  13.423  28.701 -0.2086  0.1320  0.2159
42279W        W85196  13.427  15.228  28.232  0.0879 -0.0405 -0.0770
42280W        W85197   9.691  12.098  29.310  0.2670 -0.0423  0.1620
42281W        W85198  14.212  13.743  26.587 -0.1372  0.2111  0.3408
42282W        W85199  10.537  13.598  28.150  0.2568  0.0290  0.0179
42283W        W85200   9.009  12.984  28.424  0.0722  0.3229 -0.0402
42284W        W85201   5.932  10.959  28.458  0.1250  0.0450 -0.2358
42285W        W85202  10.236  13.406  27.591  0.3060 -0.0946  0.1172
42286W        W85203   9.238  14.188   0.193 -0.1451  0.1746  0.0500
42287W        W85204   9.449   9.291  29.984  0.1473 -0.0410  0.0514
42288W        W85205  10.870  12.713  29.821  0.0958 -0.1758 -0.4225
42289W        W85206   9.157  12.156  29.283 -0.2396  0.0245 -0.0453
42290W        W85207   7.147  12.782  27.578 -0.2090  0.1569  0.0134
42291W        W85208  11.594  12.314  26.102 -0.0424  0.0630  0.1293
42292W        W85209   9.858  10.364  29.411 -0.1272 -0.1171 -0.1698
42293W        W85210   7.087  12.328  27.950 -0.1967  0.0575  0.0322
42294W        W85211  12.364  13.290  26.659 -0.1681  0.0373 -0.0416
42295W        W85212  10.595  13.915  29.711  0.1166  0.3299 -0.1614
42296W        W85213  10.112  11.213  28.585 -0.2272  0.0620  0.0867
42297W        W85214  12.010  14.951  28.118 -0.0717  0.1068 -0.1483
42298W        W85215   6.004  13.215  25.749  0.1002 -0.1171 -0.0534
42299W        W85216  10.194  13.884  31.608 -0.0918 -0.3399 -0.2623
42300W        W85217   9.212  10.547  30.570  0.1641  0.1523 -0.0216
42301W        W85218   8.340  12.180  27.578  0.2299 -0.0902 -0.2724
42302W        W85219   9.919  12.369  31.647  0.1828  0.0924 -0.2236
42303W        W85220  11.669  14.530  28.465 -0.2004  0.0198  0.0546
42304W        W85221  10.580  15.471  27.523 -0.1636  0.1021 -0.0001
42305W        W85222   8.644  15.122  31.002 -0.0791 -0.0711 -0.0346
42306W        W85223   9.022  14.463  30.823  0.0080  0.0086 -0.3033
42307W        W85224   8.295  12.666  30.764 -0.1372 -0.1267  0.2082
42308W        W85225  10.736  12.334  28.390  0.1708 -0.0725  0.1817
42309W        W85226  10.656  13.808  30.529 -0.1813 -0.1194 -0.2688
42310W        W85227  12.309  12.282  27.380  0.0851 -0.2516 -0.2243
42311W        W85228  12.232   9.880  28.682 -0.0570  0.0274 -0.0924
42312W        W85229   8.374  12.570  29.414 -0.0210 -0.2320 -0.1462
42313W        W85230   8.840  12.544  29.463 -0.4521  0.2610  0.5034
42314W        W85231   9.670  13.549  30.605 -0.0191 -0.0590 -0.3124
42315W        W85232  11.872  13.361  30.714 -0.2163 -0.0177 -0.1199
42316W        W85233   9.238  11.498  30.046  0.0315  0.0974  0.1580
42317W        W85234  10.830  12.123  27.886 -0.0682  0.0888 -0.0359
42318W        W85235  10.675  13.985  28.903  0.1795  0.3718  0.0188
42319W        W85236   9.038  12.195  29.805 -0.1347  0.1437  0.2812
42320W        W85237   8.183  11.600  27.770 -0.0576  0.1966  0.0977
42321W        W85238  11.003  13.141  28.971 -0.5404 -0.1584 -0.1128
42322W        W85239  10.372  11.562  28.912 -0.0604  0.1557  0.0887
42323W        W85240  11.372  13.443  30.627 -0.0769 -0.0306 -0.0993
42324W        W85241   9.780  13.251  28.877 -0.1412  0.3564  0.2622
42325W        W85242  12.261  13.001  29.095  0.0666  0.1452  0.0812
42326W        W85243   9.757  12.938  31.888  0.1970  0.0936  0.1657
42327W        W85244   9.970  14.329  30.084 -0.2412 -0.0095  0.0748
42328W        W85245  10.893  14.444  28.322 -0.0293 -0.1650 -0.0221
42329W        W85246  12.726  13.104  29.371  0.1917  0.3818  0.0715
42330W        W85247   9.325  11.076  29.475  0.2629 -0.2537  0.1938
42331W        W85248   8.586  13.760  28.982  0.0918  0.1329  0.2220
42332W        W85249   8.632  14.253  29.904 -0.0298  0.1364  0.2865
42333W        W85250  10.417  11.394  31.455  0.0158 -0.0486 -0.1000
42334W        W85251  10.407  11.874  27.855 -0.4037 -0.2224 -0.2180
42335W        W85252  10.441  11.568  29.444 -0.2455  0.1149 -0.0451
42336W        W85253   9.985  13.323  31.591 -0.2785 -0.0863  0.1473
42337W        W85254   8.132  12.538  28.295 -0.1965 -0.2176 -0.0217
42338W        W85255  11.569  11.395  28.793  0.0220 -0.2083  0.1248
42339W        W85256  11.118  12.665  28.682  0.0115  0.0927  0.1687
42340W        W85257   8.323  12.322  29.883 -0.1289  0.1308  0.0008
42341W        W85258   6.999  11.629  30.184  0.0127  0.0328 -0.3723
42342W        W85259   9.550  13.681   0.922 -0.0236 -0.2035  0.0347
42343W        W85260   9.725  12.561  30.937 -0.1215  0.2923 -0.1808
42344W        W85261   9.686  12.839  31.352  0.0124 -0.0770 -0.1077
42345W        W85262   7.914  11.865  31.217  0.1607  0.0467 -0.1376
42346W        W85263  10.098  12.914  31.043 -0.0312 -0.1701 -0.0097
42347W        W85264  11.501  14.452   1.035 -0.2244 -0.0932  0.2079
42348W        W85265   8.960  13.851   0.606  0.1180  0.2083  0.1439
42349W        W85266   8.842  10.422   0.051 -0.0927 -0.0329  0.2568
42350W        W85267  12.485  13.389  30.906  0.1602  0.3624  0.0912
42351W        W85268   8.989  10.953   0.780  0.3059  0.3443 -0.0850
42352W        W85269  12.446  14.336  28.779 -0.1582 -0.4770 -0.0846
42353W        W85270   9.014  13.367  31.516  0.0610  0.0217 -0.3463
42354W        W85271   8.924  13.592  30.998  0.1138  0.1670  0.2184
42355W        W85272  10.710  14.036  31.859  0.1775  0.4671 -0.2740
42356W        W85273  10.111  12.515   0.553 -0.3464  0.1110  0.0261
42357W        W85274   8.633  10.112  30.875 -0.1755  0.0097 -0.1807
42358W        W85275   7.132  10.935  30.737 -0.0235 -0.0135 -0.3449
42359W        W85276   7.139  13.977  30.895  0.0767  0.0591 -0.1112
42360W        W85277  10.552  12.969  30.315  0.0133 -0.2123  0.1358
42361W        W85278  11.804  12.038  31.001  0.0919  0.0414  0.1771
42362W        W85279  10.328  10.764   0.223 -0.3386  0.0245  0.2468
42363W        W85280  10.462  12.094  30.870  0.0598 -0.0989 -0.2008
42364W        W85281   9.568  10.172  30.451  0.2318 -0.0238 -0.0925
42365W        W85282   7.400  14.758  30.641  0.0411  0.1209 -0.2745
42366W        W85283   9.508  12.629   0.671 -0.0804 -0.1337  0.1744
42367W        W85284   7.814  12.463  30.686  0.0516  0.0045 -0.0455
42368W        W85285  10.280  13.946  30.183  0.0936  0.0417 -0.2472
42369W        W85286   6.654   9.707  30.807 -0.1522  0.0195 -0.0037
42370W        W85287  11.208  13.861  29.642  0.1634 -0.1617  0.0109
42371W        W85288   9.941  13.404  29.325  0.2854 -0.0892  0.1230
42372W        W85289   7.851  11.375  31.314 -0.2300 -0.2704  0.2088
42373W        W85290   7.755  13.389   0.243  0.0554 -0.1750 -0.2183
42374W        W85291   9.311  14.095  29.454  0.0545 -0.1048 -0.0440
42375W        W85292   8.391  11.201  31.154 -0.0326  0.0743 -0.1071
42376W        W85293   9.344  14.394  31.210 -0.1525 -0.0561 -0.0568
42377W        W85294  10.857  13.337  30.558  0.0332 -0.1439  0.3842
42378W        W85295  11.696  13.712  31.570  0.0062 -0.1278 -0.1677
42379W        W85296  10.343  12.391  31.261  0.1326  0.1270 -0.0059
42380W        W85297  10.365  11.484  30.591  0.3601 -0.0516 -0.2354
42381W        W85298   7.541  15.235  31.684  0.0559  0.0445  0.0682
42382W        W85299  10.644  11.402  30.094 -0.0475  0.0873  0.2142
42383W        W85300  11.526  13.739   0.585  0.0272 -0.0118 -0.0401
42384W        W85301  10.806  10.768   0.405  0.0624 -0.0983 -0.0272
42385W        W85302   9.026  11.798   0.978  0.1780  0.0261 -0.0388
42386W        W85303  11.287  12.845  30.613  0.1188 -0.0279  0.4798
42387W        W85304   8.069  14.066  29.865 -0.1895  0.0489 -0.1399
42388W        W85305  11.498  13.163  30.206 -0.1515  0.0671  0.1439
42389W        W85306  10.891  10.096  30.962 -0.0423 -0.0553  0.0205
42390W        W85307   9.493   9.132  31.895 -0.1756 -0.2319 -0.0692
42391W        W85308   9.967  12.804   0.947 -0.0871 -0.0033 -0.1203
42392W        W85309  11.654  14.008  30.642 -0.2425  0.1293  0.2405
42393W        W85310  11.320  13.973  31.760  0.0605  0.2454 -0.0381
42394W        W85311  10.026  12.304  30.577  0.0594  0.0084  0.1367
42395W        W85312   9.636  13.951  31.830 -0.0526  0.3165 -0.0785
42396W        W85313   9.095  13.014  30.131 -0.0306  0.0311  0.3365
42397W        W85314   8.569  12.620   2.243 -0.2542 -0.2328  0.0590
42398W        W85315   8.391  10.792  30.615  0.2328 -0.1587 -0.1811
42399W        W85316   8.993  12.215  31.328  0.2239 -0.1786  0.0515
42400W        W85317   8.958  11.361  30.876 -0.0160  0.2764 -0.2954
42401W        W85318   8.298  10.905   0.032 -0.0647 -0.1188 -0.1118
42402W        W85319  12.246  14.716  31.088  0.3770  0.0200 -0.4180
42403W        W85320  10.783  14.694  31.758 -0.1644  0.1788  0.1575
42404W        W85321  10.166  12.818  31.564  0.2419 -0.2495  0.1700
42405W        W85322   9.201  17.746  17.238 -0.2975 -0.2459  0.0814
42406W        W85323   9.344  16.205  16.148 -0.0971  0.0637  0.1171
42407W        W85324  10.664  15.198  15.759 -0.0292 -0.0538 -0.0578
42408W        W85325  10.027  17.351  16.156 -0.1432 -0.0210  0.0847
42409W        W85326   6.386  15.105  17.242 -0.0660 -0.0710  0.1400
42410W        W85327   9.597  16.999  18.133  0.0063 -0.0297  0.0734
42411W        W85328   8.429  14.485  18.616  0.1586 -0.0617  0.1130
42412W        W85329   7.880  16.663  21.555 -0.0716 -0.1970 -0.0110
42413W        W85330   8.242  16.213  18.557  0.0421  0.0334 -0.0340
42414W        W85331   9.420  17.044  15.584 -0.1522 -0.0369  0.0703
42415W        W85332   7.566  15.032  18.119  0.2128  0.2891 -0.1559
42416W        W85333   7.757  18.124  16.669  0.3854 -0.1156  0.2567
42417W        W85334   8.491  15.094  15.732 -0.0005  0.0099  0.1884
42418W        W85335   7.932  15.738  17.450 -0.1364 -0.3986 -0.2118
42419W        W85336   8.952  16.772  16.290 -0.0808 -0.2163 -0.3618
42420W        W85337   6.614  15.832  17.433 -0.0133  0.0410  0.0215
42421W        W85338   8.479  13.950  16.779 -0.1611 -0.2321  0.2360
42422W        W85339   6.720  16.383  17.173  0.1080 -0.1441  0.0683
42423W        W85340  10.039  18.637  16.313  0.2129  0.1451 -0.1476
42424W        W85341   8.554  16.047  17.394 -0.1253 -0.1810 -0.3554
42425W        W85342  10.510  13.350  20.317 -0.1310  0.2234 -0.1218
42426W        W85343   8.284  17.090  16.939 -0.2319 -0.2374  0.2442
42427W        W85344   5.587  16.692  17.275  0.1404  0.1405 -0.1937
42428W        W85345   7.884  15.468  17.898  0.2497 -0.2555  0.0782
42429W        W85346   8.534  15.909  18.770  0.0165 -0.1923  0.1382
42430W        W85347  10.411  14.383  16.296  0.1086 -0.0055 -0.1632
42431W        W85348   9.105  16.335  17.483 -0.0698 -0.0832  0.0524
42432W        W85349   9.614  18.087  18.477 -0.0028 -0.0661  0.0047
42433W        W85350  10.409  18.416  17.957 -0.2115  0.1426 -0.3109
42434W        W85351   9.143  15.480  22.360 -0.2582 -0.0938 -0.0315
42435W        W85352   7.464  18.825  17.115  0.0709 -0.0398 -0.1661
42436W        W85353   5.548  19.956  17.986  0.0314  0.0624  0.1738
42437W        W85354   6.512  17.768  18.114 -0.1681 -0.0953  0.0464
42438W        W85355  10.917  17.418  16.532 -0.0303 -0.0448 -0.0464
42439W        W85356   8.779  17.645  18.939  0.2001 -0.0901 -0.0997
42440W        W85357   6.177  18.258  20.576  0.0537 -0.1179 -0.0646
42441W        W85358   5.749  17.593  15.789 -0.1935  0.0661  0.0836
42442W        W85359   8.124  18.457  18.996  0.1629 -0.0204  0.0951
42443W        W85360   6.969  16.140  17.971 -0.1430 -0.3871  0.0014
42444W        W85361   9.278  15.410  17.570  0.0681  0.1080 -0.0355
42445W        W85362   9.711  16.144  15.681  0.3871  0.3415  0.1281
42446W        W85363   7.627  17.434  17.368  0.3001  0.2102 -0.3574
42447W        W85364   7.469  16.573  16.497 -0.0286  0.0377 -0.0655
42448W        W85365  10.201  16.164  19.563 -0.0504  0.4270  0.3961
42449W        W85366   6.626  15.480  18.093 -0.0155  0.1818  0.1188
42450W        W85367   9.455  16.074  20.967  0.2094  0.0950  0.0759
42451W        W85368   9.344  18.445  16.544 -0.0480  0.2441  0.1263
42452W        W85369   9.844  14.166  15.984  0.1245  0.0618 -0.1427
42453W        W85370   8.932  14.154  15.443 -0.0515 -0.3006 -0.2453
42454W        W85371   8.956  15.548  18.534  0.1757 -0.1994  0.2080
42455W        W85372   8.836  13.968  17.569 -0.0145 -0.1180 -0.2257
42456W        W85373   8.771  17.327  16.530  0.2198  0.1932 -0.1106
42457W        W85374   8.322  14.828  17.255 -0.1603 -0.4014  0.2025
42458W        W85375  10.794  17.081  19.970 -0.0520  0.0199  0.0698
42459W        W85376   8.540  16.775  15.928  0.2477 -0.2457 -0.0685
42460W        W85377   7.450  15.602  18.184 -0.1363 -0.2547 -0.1558
42461W        W85378   7.791  15.914  18.454  0.2138 -0.0290  0.0128
42462W        W85379   6.517  15.904  17.905 -0.4391 -0.0768 -0.2328
42463W        W85380  10.187  18.116  16.715  0.2450 -0.1653  0.1069
42464W        W85381  11.680  18.253  15.557  0.2137  0.3219 -0.1926
42465W        W85382   9.212  17.058  16.578  0.1610 -0.1365 -0.0636
42466W        W85383   8.413  15.388  16.129  0.2460  0.2485  0.0205
42467W        W85384   7.886  15.858  19.813  0.0816 -0.1560  0.6931
42468W        W85385   5.589  16.387  18.913 -0.0653 -0.0638 -0.2590
42469W        W85386   6.938  15.810  16.996 -0.0588 -0.4134 -0.0580
42470W        W85387   9.788  16.626  19.037  0.2047 -0.2597 -0.0491
42471W        W85388   8.838  17.556  18.080 -0.0127  0.0210  0.1480
42472W        W85389   9.322  15.705  16.214  0.0394  0.0426 -0.0422
42473W        W85390   9.140  17.250  17.583  0.1639 -0.1127  0.3643
42474W        W85391   8.192  16.737  18.505  0.2526  0.4468 -0.0145
42475W        W85392   9.822  18.140  15.866  0.2911  0.1512  0.1081
42476W        W85393   8.646  14.089  18.872  0.2199 -0.0475  0.0029
42477W        W85394   8.342  12.543  20.418  0.0940 -0.0682  0.0918
42478W        W85395   9.122  12.951  16.033 -0.0126  0.1518  0.3960
42479W        W85396   9.099  17.480  15.722 -0.3076  0.0647 -0.1312
42480W        W85397   9.896  15.912  17.067 -0.4017 -0.2104  0.2259
42481W        W85398   9.071  16.331  16.609  0.1250 -0.0506 -0.0770
42482W        W85399   6.299  16.733  17.833  0.0357  0.0906 -0.1143
42483W        W85400   8.857  15.226  21.184  0.0791 -0.0718 -0.1815
42484W        W85401   8.536  15.354  18.422 -0.1428 -0.0711  0.0271
42485W        W85402   7.404  19.335  16.288 -0.1414  0.1073 -0.1123
42486W        W85403   6.126  17.263  16.545  0.0677 -0.2839 -0.1619
42487W        W85404   6.938  17.662  17.039 -0.3258 -0.1327 -0.4522
42488W        W85405   7.542  15.282  18.542  0.1111 -0.1156 -0.0887
42489W        W85406   6.037  17.167  17.492  0.0097  0.1090 -0.3770
42490W        W85407  10.025  15.904  15.185  0.0535  0.2003 -0.0588
42491W        W85408   9.836  14.789  21.429 -0.3462 -0.2234  0.0161
42492W        W85409   8.866  12.833  16.907 -0.0151  0.3877 -0.3093
42493W        W85410   6.924  18.950  16.923  0.0108 -0.0395 -0.0782
42494W        W85411   9.335  17.131  17.175  0.3688  0.3044 -0.1446
42495W        W85412   9.490  14.496  15.858 -0.0688  0.2347  0.4729
42496W        W85413   8.563  16.321  16.480  0.1632 -0.0683  0.1945
42497W        W85414   7.028  16.508  16.254 -0.3035 -0.2202  0.1308
42498W        W85415   8.453  14.267  17.559  0.1437  0.2086  0.0792
42499W        W85416   9.124  14.200  18.898  0.2232 -0.0898 -0.0144
42500W        W85417   5.846  14.361  17.876 -0.0739 -0.1467 -0.1979
42501W        W85418   9.956  15.979  17.788 -0.1372  0.1228 -0.0304
42502W        W85419   6.227  16.116  17.345  0.1851  0.2344  0.1358
42503W        W85420   9.630  13.600  17.790 -0.0356 -0.1795  0.3123
42504W        W85421  10.360  16.167  17.533 -0.0203 -0.0436 -0.0903
42505W        W85422   5.814  18.168  17.504 -0.0017  0.1077 -0.1277
42506W        W85423   9.378  15.261  18.709  0.0082 -0.0023  0.2041
42507W        W85424   9.014  18.360  18.271  0.0258  0.0970 -0.0560
42508W        W85425  10.940  15.542  19.742  0.1805 -0.3206 -0.0824
42509W        W85426   8.919  19.755  17.987  0.2928  0.2545  0.3206
42510W        W85427   8.830  13.773  16.481 -0.1055  0.0455  0.1648
42511W        W85428   8.073  12.218  17.011  0.4563 -0.1151 -0.3816
42512W        W85429   6.744  18.163  17.230 -0.3967  0.0090 -0.3342
42513W        W85430   9.620  16.274  18.711 -0.1217  0.2438 -0.1763
42514W        W85431   7.985  15.674  16.890  0.1182  0.3281 -0.3192
42515W        W85432  12.478  18.615  15.756 -0.1948 -0.0626 -0.1734
42516W        W85433   9.825  17.418  18.020 -0.0344  0.0918 -0.0525
42517W        W85434   7.002  16.284  19.249  0.2376 -0.1678 -0.0536
42518W        W85435   9.027  11.142  17.014 -0.0434  0.1888 -0.3367
42519W        W85436  10.573  17.547  20.009  0.0916  0.1140  0.1268
42520W        W85437   7.246  15.094  17.261  0.2245  0.0778  0.0361
42521W        W85438   7.870  14.666  16.190 -0.0417 -0.2509  0.0994
42522W        W85439   8.019  18.210  18.574 -0.0573 -0.1441  0.2215
42523W        W85440   7.112  17.567  16.083  0.2017  0.1389 -0.3840
42524W        W85441   6.962  17.128  16.184  0.0894 -0.0632 -0.1753
42525W        W85442  10.012  17.575  20.076  0.0048 -0.3303 -0.1323
42526W        W85443   8.742  15.986  18.283  0.0797 -0.1444 -0.2739
42527W        W85444   6.238  14.638  20.391  0.0376  0.1122  0.0847
42528W        W85445   9.592  17.838  17.729 -0.1685 -0.3656  0.2370
42529W        W85446   7.596  15.155  16.260 -0.1475 -0.1561  0.0372
42530W        W85447   9.385  12.578  21.180  0.0208 -0.0848 -0.1168
42531W        W85448   9.385  14.344  18.446 -0.1900 -0.1350  0.0580
42532W        W85449  10.611  16.032  16.040 -0.0960 -0.0016 -0.1010
42533W        W85450   8.008  15.253  18.367  0.5992  0.0322 -0.1053
42534W        W85451  10.579  16.778  16.363  0.0576 -0.4237  0.1008
42535W        W85452   8.808  16.329  17.068  0.1038 -0.0677  0.1734
42536W        W85453   9.287  15.913  17.638  0.0131 -0.4125 -0.0335
42537W        W85454   6.563  16.624  20.117  0.0903  0.2198 -0.1644
42538W        W85455  10.344  16.668  16.854 -0.1174  0.1787 -0.1744
42539W        W85456   9.138  17.587  16.285  0.2156  0.1771  0.1530
42540W        W85457   9.586  16.072  16.596  0.0147 -0.2250  0.0247
42541W        W85458   9.042  19.010  16.931  0.2377 -0.0360  0.4189
42542W        W85459   5.737  16.835  17.783  0.0450 -0.1959  0.0749
42543W        W85460   7.310  17.700  18.436 -0.4054 -0.0853  0.2585
42544W        W85461   7.283  18.074  17.135  0.0198  0.1288  0.1445
42545W        W85462   8.287  14.335  17.047  0.0427  0.3909 -0.1367
42546W        W85463   9.802  15.913  16.139 -0.3015 -0.1850 -0.0120
42547W        W85464   8.917  14.943  16.041 -0.1098  0.1211  0.0082
42548W        W85465   7.417  18.427  17.464  0.3919 -0.4042 -0.2037
42549W        W85466  10.738  13.497  16.761  0.1477  0.0975 -0.1408
42550W        W85467   8.802  13.557  18.100 -0.3930  0.2358  0.3644
42551W        W85468   8.089  13.367  17.510  0.0350  0.0002  0.0853
42552W        W85469  10.337  16.214  18.050  0.1608  0.1982  0.1829
42553W        W85470   9.649  14.914  16.024 -0.1039 -0.3443  0.1542
42554W        W85471  10.012  14.826  17.050 -0.0113 -0.1071 -0.2116
42555W        W85472   9.312  15.526  16.673 -0.0663  0.0403 -0.0995
42556W        W85473  10.680  12.734  19.795 -0.1323  0.1491 -0.0986
42557W        W85474   7.996  15.599  20.257 -0.1045  0.1538 -0.0821
42558W        W85475   6.549  17.760  19.751 -0.1051 -0.2892  0.2049
42559W        W85476   7.430  17.549  17.924  0.1793  0.1078 -0.2972
42560W        W85477  10.309  16.675  17.489  0.0385  0.0025 -0.0702
42561W        W85478   7.762  16.421  18.672  0.1244 -0.0023  0.1734
42562W        W85479  10.709  12.870  16.676 -0.2742  0.1910  0.3527
42563W        W85480   8.166  17.530  17.320 -0.1135  0.0159 -0.2228
42564W        W85481   7.126  18.914  16.371  0.2168  0.0873  0.3821
42565W        W85482   9.530  12.641  18.031  0.2077 -0.1460  0.1820
42566W        W85483   8.712  17.216  20.228  0.0190  0.0297  0.1239
42567W        W85484   6.085  15.684  18.077 -0.0155  0.1547  0.2683
42568W        W85485   9.900  15.325  17.063  0.1502 -0.0141 -0.0354
42569W        W85486   5.522  17.616  18.136  0.0391 -0.1833 -0.0471
42570W        W85487  10.452  12.947  19.342  0.0896 -0.3459  0.0179
42571W        W85488   7.024  20.121  17.684 -0.3186  0.0979 -0.0864
42572W        W85489   7.956  15.161  15.912 -0.2523  0.1214  0.3569
42573W        W85490   7.694  15.297  17.229  0.1600  0.0835  0.0132
42574W        W85491   9.685  14.717  14.918 -0.1103  0.1325  0.4784
42575W        W85492   8.907  15.468  17.032  0.1074  0.0197  0.0416
42576W        W85493   7.646  13.721  20.264 -0.1831  0.2388  0.0074
42577W        W85494   9.109  14.771  18.222 -0.0421  0.0129  0.1146
42578W        W85495   7.240  18.542  17.900  0.0491 -0.3539 -0.0670
42579W        W85496   9.065  15.923  17.150  0.0848 -0.1194  0.1657
42580W        W85497  11.299  14.549  16.013  0.3164  0.0088 -0.1018
42581W        W85498   8.711  18.716  18.068  0.1983  0.2113  0.1038
42582W        W85499   8.787  14.488  21.667 -0.1690  0.0306  0.2205
42583W        W85500   7.749  15.265  16.751 -0.1425 -0.1323 -0.2451
42584W        W85501   9.304  16.724  16.883 -0.0884  0.2117  0.0556
42585W        W85502   8.449  16.906  16.392  0.3344  0.0106  0.3344
42586W        W85503   7.112  16.747  17.111 -0.1791  0.3004  0.2883
42587W        W85504   8.351  17.613  18.699 -0.2777 -0.3159  0.1889
42588W        W85505   7.228  17.260  17.031  0.1900  0.2640 -0.4497
42589W        W85506   6.690  16.809  17.389  0.3150  0.2566 -0.3126
42590W        W85507   8.090  15.121  19.373  0.0024  0.0491 -0.0197
42591W        W85508  10.703  16.457  18.730 -0.1355 -0.2825  0.0381
42592W        W85509   9.681  13.126  17.882 -0.1121 -0.1235 -0.1188
42593W        W85510   7.776  14.909  17.649  0.2450  0.0874  0.1936
42594W        W85511   9.788  15.507  17.590  0.0621  0.1087  0.0336
42595W        W85512  10.262  15.690  17.382 -0.0039  0.0341  0.1746
42596W        W85513   8.169  14.154  18.997 -0.0520 -0.1693 -0.0199
42597W        W85514   8.556  16.288  20.488 -0.1281  0.3111 -0.0461
42598W        W85515  10.482  14.916  16.781 -0.0901  0.2299  0.1231
42599W        W85516   9.318  17.412  18.053 -0.3099 -0.1879 -0.0857
42600W        W85517  10.135  14.635  19.540  0.0640  0.1387 -0.1351
42601W        W85518   7.274  16.038  16.421 -0.1327  0.0807 -0.1121
42602W        W85519   8.188  16.887  17.936  0.0824 -0.4895  0.0853
42603W        W85520   7.836  16.966  16.529 -0.0496  0.1758  0.0947
42604W        W85521   9.470  14.132  17.037  0.4060 -0.2668  0.1316
42605W        W85522   6.550  17.061  18.210 -0.2922  0.0564 -0.1511
42606W        W85523   7.283  19.253  17.257  0.0407 -0.0485  0.1626
42607W        W85524   5.808  17.696  19.307 -0.1869 -0.1078  0.1293
42608W        W85525  10.220  15.544  14.857 -0.1665  0.3417  0.0406
42609W        W85526   7.504  17.686  16.854  0.1600  0.2014  0.0880
42610W        W85527   8.922  13.538  17.246 -0.2579 -0.0677  0.0548
42611W        W85528   9.774  14.998  19.705 -0.7169  0.1337  0.1841
42612W        W85529   9.880  15.815  18.793  0.0283  0.0266  0.2743
42613W        W85530   9.113  13.906  18.494 -0.1352 -0.3741  0.2111
42614W        W85531   6.216  16.718  18.324  0.0964  0.0082 -0.0292
42615W        W85532  10.158  17.282  16.900  0.0005  0.0023 -0.1920
42616W        W85533   6.766  14.869  18.398  0.3785 -0.2481 -0.0685
42617W        W85534   7.575  16.132  19.413 -0.2464 -0.1238 -0.1304
42618W        W85535   8.177  15.262  17.471  0.0162 -0.0951 -0.0213
42619W        W85536   8.105  14.805  18.196  0.2286 -0.3735 -0.2406
42620W        W85537   8.160  15.208  16.970  0.1194  0.0745 -0.0975
42621W        W85538   7.467  16.997  17.433  0.1069 -0.0675  0.0803
42622W        W85539  10.818  15.658  17.329  0.6113  0.3220  0.0490
42623W        W85540   9.255  18.851  15.792 -0.1405  0.0380 -0.2696
42624W        W85541  10.895  14.523  16.271 -0.1184 -0.0377  0.0374
42625W        W85542   7.211  16.671  18.305  0.4542  0.1971  0.1338
42626W        W85543  10.934  16.423  16.242  0.1368  0.4449 -0.1821
42627W        W85544   8.635  17.566  17.584  0.0117 -0.2660  0.1116
42628W        W85545   6.419  16.893  16.891  0.0334 -0.1120 -0.1075
42629W        W85546   8.712  13.305  19.054  0.1883  0.1208  0.0389
42630W        W85547   7.749  17.187  17.838 -0.0259 -0.0929 -0.1855
42631W        W85548   9.176  13.936  19.555  0.2408 -0.0189  0.1921
42632W        W85549   9.439  15.063  19.274 -0.2753  0.0099  0.2415
42633W        W85550   9.508  16.528  18.286 -0.1226 -0.0992  0.1376
42634W        W85551   8.362  15.727  17.747  0.0723 -0.1874 -0.3024
42635W        W85552   8.634  16.329  22.088  0.0716  0.0269  0.2436
42636W        W85553  11.120  18.798  20.120  0.0380  0.1351 -0.2693
42637W        W85554   9.662  15.045  17.360 -0.0689 -0.2795 -0.3393
42638W        W85555   9.923  13.392  18.210  0.0381 -0.1711  0.1559
42639W        W85556  10.292  15.822  16.391 -0.0489  0.1085 -0.1662
42640W        W85557  10.795  16.665  17.378 -0.0944 -0.0636  0.1150
42641W        W85558   7.380  15.319  17.708 -0.4488  0.1156  0.0165
42642W        W85559   9.697  15.933  19.717  0.0576 -0.1886 -0.0241
42643W        W85560   9.188  15.900  15.768 -0.0830 -0.1742  0.1448
42644W        W85561   8.687  15.352  20.099  0.1547  0.4240  0.0624
42645W        W85562   8.935  17.324  17.053  0.1720 -0.1261 -0.2518
42646W        W85563   8.798  16.825  18.700  0.4109  0.1002  0.1829
42647W        W85564   9.491  15.118  16.821 -0.0953  0.0004  0.0256
42648W        W85565   4.985  15.298  19.354  0.0537  0.1245 -0.0643
42649W        W85566   7.722  16.947  18.511  0.3411  0.0184  0.0920
42650W        W85567   7.332  14.742  16.145  0.3235  0.1129  0.0832
42651W        W85568   9.827  18.501  16.740 -0.1786 -0.2918  0.0581
42652W        W85569   7.397  17.132  18.200 -0.2411 -0.1411 -0.2640
42653W        W85570   8.768  17.026  19.435 -0.3711 -0.2218 -0.2600
42654W        W85571   8.775  16.831  16.834 -0.3273  0.0442 -0.1900
42655W        W85572  11.189  15.094  16.112 -0.2409  0.4458 -0.0062
42656W        W85573   8.804  18.618  16.659 -0.0172 -0.0286  0.0736
42657W        W85574   9.759  14.929  18.834  0.0463  0.0905 -0.1785
42658W        W85575   7.031  17.374  17.468  0.0840 -0.0605 -0.1904
42659W        W85576   6.398  15.773  18.418  0.1688  0.1001  0.2902
42660W        W85577   6.542  17.558  16.781 -0.0257  0.0108  0.0735
42661W        W85578  10.425  12.422  19.461  0.0121 -0.0336 -0.0306
42662W        W85579   9.504  14.228  16.310  0.3274  0.1683  0.1676
42663W        W85580   7.708  16.107  16.755  0.4512 -0.0171  0.0118
42664W        W85581  11.011  16.058  18.805  0.1256 -0.0508 -0.0326
42665W        W85582   9.162  18.524  19.218  0.1339 -0.2159  0.1990
42666W        W85583   7.930  15.983  17.935 -0.0150  0.2475 -0.0895
42667W        W85584   6.708  17.834  17.613  0.0739  0.0832  0.0893
42668W        W85585   9.806  16.414  17.371 -0.0609 -0.1082  0.0159
42669W        W85586   8.929  16.792  17.291 -0.0030 -0.0082  0.0792
42670W        W85587   7.381  15.565  20.033 -0.3844 -0.2425  0.0035
42671W        W85588   8.651  13.675  18.583 -0.2118  0.0224  0.0004
42672W        W85589   9.053  16.433  18.109  0.0760  0.2512 -0.2320
42673W        W85590   8.759  14.609  16.776 -0.2737  0.2086 -0.1428
42674W        W85591   8.185  17.351  16.497 -0.3484 -0.1392  0.1489
42675W        W85592   6.182  19.719  19.230 -0.2636 -0.4480  0.0428
42676W        W85593   6.818  14.457  18.131  0.3183  0.0396 -0.2533
42677W        W85594   8.874  18.096  16.337 -0.1858  0.0050  0.0343
42678W        W85595   8.402  17.043  17.461 -0.1322 -0.3112 -0.1007
42679W        W85596  11.338  17.792  16.391  0.0359  0.0381 -0.2046
42680W        W85597   8.986  18.387  18.755  0.1451 -0.1561  0.0468
42681W        W85598   8.602  14.193  16.340 -0.2817 -0.2255  0.0846
42682W        W85599   6.027  17.631  18.255 -0.1943 -0.0634  0.1087
42683W        W85600   5.013  18.513  18.035 -0.0310 -0.0639 -0.1516
42684W        W85601  10.154  19.153  17.256 -0.2967 -0.0796 -0.1091
42685W        W85602   6.461  20.172  19.785 -0.1539 -0.1830  0.0091
42686W        W85603   8.694  16.637  17.742  0.2641 -0.3897 -0.2123
42687W        W85604   9.380  14.331  15.315 -0.0861 -0.6074 -0.0449
42688W        W85605  10.120  13.841  17.921 -0.1581 -0.1904 -0.3013
42689W        W85606   9.762  13.568  17.112  0.0203  0.3106  0.0589
42690W        W85607   9.402  14.554  20.179 -0.1539  0.1774 -0.2525
42691W        W85608   9.420  16.698  17.348  0.2577  0.0636  0.1151
42692W        W85609   9.029  14.547  16.353  0.1559  0.1193 -0.0369
42693W        W85610   8.060  16.205  17.205 -0.1428  0.2368  0.1306
42694W        W85611  10.384  13.844  20.501 -0.2776  0.1804 -0.0186
42695W        W85612   6.527  18.214  19.103 -0.1578 -0.0150  0.1582
42696W        W85613  10.719  19.646  17.138 -0.2872 -0.3078  0.0331
42697W        W85614   6.296  16.449  16.933 -0.0109  0.2632 -0.3307
42698W        W85615  10.449  17.726  16.761 -0.1195  0.1601  0.2748
42699W        W85616   9.879  12.467  18.376 -0.0712  0.0434  0.2515
42700W        W85617   8.066  17.199  15.628 -0.0811  0.2808  0.1326
42701W        W85618   9.229  15.281  18.179 -0.1921  0.1332 -0.0511
42702W        W85619   8.452  16.604  17.255  0.1532  0.1802  0.2625
42703W        W85620   8.083  19.129  19.600 -0.1651 -0.0565 -0.0683
42704W        W85621   8.304  17.526  19.203  0.0656 -0.1715 -0.3124
42705W        W85622   7.416  15.638  16.853  0.0497  0.2170 -0.0081
42706W        W85623  10.217  18.170  18.550 -0.2587  0.1875  0.1607
42707W        W85624   7.968  14.397  18.493 -0.1256 -0.5534 -0.2659
42708W        W85625  10.002  14.166  19.313  0.1220  0.2519  0.2101
42709W        W85626   5.171  16.999  17.365  0.1788  0.0870  0.0555
42710W        W85627  11.264  16.695  15.889 -0.1803 -0.0794 -0.0206
42711W        W85628   8.722  17.130  17.847 -0.2616 -0.0040  0.2812
42712W        W85629   7.426  16.183  18.225  0.1078 -0.4155  0.0672
42713W        W85630  10.223  17.784  16.015  0.0141  0.2412 -0.2179
42714W        W85631   9.119  19.095  21.774 -0.1613 -0.1858  0.0561
42715W        W85632   8.625  17.182  15.577 -0.0688  0.0812 -0.3467
42716W        W85633  11.187  18.303  19.470 -0.1066  0.1233  0.0510
42717W        W85634   6.742  15.897  18.793  0.1427  0.0135  0.2827
42718W        W85635   9.770  16.449  16.085 -0.1347 -0.3174 -0.1185
42719W        W85636   7.934  16.379  18.197 -0.0925  0.1563  0.2022
42720W        W85637   8.196  18.213  19.459  0.2146  0.0120  0.2321
42721W        W85638   9.057  17.256  19.847 -0.2403 -0.0152 -0.2241
42722W        W85639   7.148  15.493  16.174 -0.1062 -0.1901  0.3347
42723W        W85640  11.864  17.473  17.385 -0.1680  0.1486 -0.0782
42724W        W85641  10.363  14.722  17.900 -0.1840 -0.0821 -0.1961
42725W        W85642   8.217  18.059  17.141  0.0233  0.0541  0.0789
42726W        W85643  10.080  17.741  17.160  0.1116 -0.1459 -0.2355
42727W        W85644  10.635  17.516  18.682 -0.0954 -0.0600  0.2730
42728W        W85645   8.966  17.463  19.351 -0.3366  0.2036 -0.1779
42729W        W85646   9.160  19.497  17.003 -0.0006 -0.2623  0.0145
42730W        W85647   9.263  17.144  16.062  0.2206 -0.2004  0.3399
42731W        W85648   9.265  14.501  17.490  0.1295  0.0656  0.1451
42732W        W85649   9.989  16.916  17.193 -0.0144 -0.3230  0.2475
42733W        W85650   6.998  18.840  17.397  0.1194  0.1354 -0.0779
42734W        W85651  11.324  16.115  16.311  0.3752  0.0953  0.0523
42735W        W85652   9.071  15.900  18.957  0.0020 -0.0247 -0.0211
42736W        W85653  10.073  16.919  15.139  0.0708 -0.2210  0.0225
42737W        W85654  10.109  15.338  21.211 -0.1443 -0.0690  0.0194
42738W        W85655   8.707  18.020  18.579  0.2634 -0.1472 -0.3850
42739W        W85656   9.368  16.788  19.338  0.1147  0.0046 -0.0638
42740W        W85657   6.824  16.695  16.685 -0.1747  0.2694  0.1348
42741W        W85658   8.988  16.299  20.178  0.0434  0.0099  0.1500
42742W        W85659   6.590  16.296  17.638  0.1365  0.2920  0.0424
42743W        W85660   8.584  16.389  15.580 -0.0589  0.0642 -0.0424
42744W        W85661  11.528  18.099  16.845 -0.0102 -0.0900  0.2227
42745W        W85662   9.173  14.939  17.719  0.1129  0.1585 -0.0699
42746W        W85663  11.423  17.315  16.584 -0.2371 -0.1400  0.2837
42747W        W85664   8.247  13.945  18.387 -0.0489  0.0974 -0.1319
42748W        W85665  10.514  13.818  15.446  0.2843 -0.1015  0.3977
42749W        W85666   8.463  15.607  17.191 -0.1234  0.3769  0.0738
42750W        W85667   6.928  16.357  20.272  0.2304  0.0729 -0.1033
42751W        W85668   6.124  15.649  17.206  0.2936  0.1812 -0.1667
42752W        W85669   7.891  16.549  16.179  0.3023  0.3388  0.2766
42753W        W85670   8.663  15.094  16.965  0.2956  0.0831 -0.0519
42754W        W85671  10.038  12.338  20.489  0.1075  0.2184 -0.2611
42755W        W85672   6.035  16.735  18.781 -0.2192 -0.4442 -0.0210
42756W        W85673   7.934  16.898  17.386 -0.3134  0.2116 -0.1665
42757W        W85674   8.661  14.859  18.061 -0.4399  0.0033  0.0177
42758W        W85675  11.684  18.212  16.306 -0.0758  0.3685 -0.2946
42759W        W85676   8.452  14.174  20.223 -0.1524 -0.0044  0.1587
42760W        W85677   7.501  15.980  17.696  0.4038  0.3573  0.1263
42761W        W85678   9.830  16.511  16.804 -0.3351  0.0216 -0.1619
42762W        W85679  10.216  16.281  17.066  0.0277  0.0529 -0.1402
42763W        W85680   9.089  14.960  16.569  0.1361 -0.1824  0.1357
42764W        W85681  10.473  16.695  20.224  0.1405  0.0473 -0.0730
42765W        W85682   6.299  17.737  15.670  0.0470 -0.0175 -0.2275
42766W        W85683   7.491  15.659  19.472  0.0938  0.2278  0.0132
42767W        W85684   8.053  15.641  19.254 -0.1282 -0.2136  0.0367
42768W        W85685   5.306  14.524  17.038 -0.0711 -0.1028  0.1763
42769W        W85686   9.216  13.094  18.163 -0.2019  0.0904 -0.0585
42770W        W85687   9.155  17.897  18.762 -0.0099 -0.0853 -0.3477
42771W        W85688   9.246  16.826  17.858  0.2368 -0.0606 -0.1214
42772W        W85689   8.449  13.784  17.295  0.0186  0.0317  0.3257
42773W        W85690   7.688  16.686  16.907 -0.1081  0.0476 -0.1704
42774W        W85691   5.084  15.711  19.014 -0.0077  0.0036 -0.1955
42775W        W85692  10.518  17.701  17.359 -0.1250  0.0866 -0.0195
42776W        W85693   7.035  15.707  17.761 -0.2539  0.1186 -0.0814
42777W        W85694  10.293  17.438  15.188 -0.4085 -0.1070 -0.0083
42778W        W85695   9.935  15.026  16.565 -0.4546 -0.3514 -0.1092
42779W        W85696   9.736  17.042  16.776  0.0286 -0.0590  0.2811
42780W        W85697   9.567  15.243  21.453  0.1680  0.0693  0.1123
42781W        W85698   9.106  15.056  17.207  0.0915 -0.0577 -0.1978
42782W        W85699  10.085  16.870  16.453 -0.1768  0.3698  0.2851
42783W        W85700   8.699  15.163  17.595 -0.1248  0.0977  0.0551
42784W        W85701  10.407  14.888  15.465 -0.1414  0.1084  0.1668
42785W        W85702   7.563  18.872  16.659  0.1421  0.2526 -0.1414
42786W        W85703   8.328  15.254  17.945 -0.1867  0.1889 -0.0749
42787W        W85704   9.736  15.081  17.915 -0.2116  0.1857 -0.0909
42788W        W85705   8.479  15.492  16.703 -0.0984 -0.0231 -0.1076
42789W        W85706   6.997  18.205  17.673  0.1326 -0.0203 -0.1575
42790W        W85707   9.877  14.536  18.450  0.0009 -0.2390 -0.0560
42791W        W85708   8.827  15.894  16.714 -0.4437  0.2706 -0.1669
42792W        W85709  10.456  17.011  15.562  0.1520  0.2505  0.2543
42793W        W85710   8.620  18.533  19.125  0.3440  0.2112  0.2883
42794W        W85711   9.324  17.338  20.833 -0.0395 -0.2015  0.1396
42795W        W85712   7.280  18.508  18.869  0.3031 -0.3340  0.1133
42796W        W85713   8.591  16.383  18.899  0.0735 -0.0006 -0.0135
42797W        W85714   5.471  14.665  18.235  0.3983  0.2389 -0.0613
42798W        W85715   6.809  15.234  17.080  0.1912  0.5173  0.1028
42799W        W85716   6.759  17.218  17.053  0.1848  0.0257 -0.4174
42800W        W85717  10.899  16.195  17.641  0.1065  0.0720  0.3498
42801W        W85718  11.144  13.800  16.832  0.0098 -0.1320  0.0437
42802W        W85719   8.261  14.751  16.777 -0.1710  0.1234 -0.0706
42803W        W85720   7.751  16.886  18.987  0.1554  0.1006  0.0086
42804W        W85721   8.883  16.296  15.953  0.0751  0.1503 -0.3160
42805W        W85722   9.980  16.614  24.702 -0.0198 -0.2369  0.3067
42806W        W85723   8.454  13.781  22.179 -0.0253 -0.2574 -0.0397
42807W        W85724   7.508  14.262  18.677 -0.1193 -0.2157  0.2197
42808W        W85725   8.845  17.152  20.688  0.1603  0.1568 -0.0712
42809W        W85726   5.707  15.095  21.299 -0.1086 -0.2096 -0.1770
42810W        W85727  10.818  19.291  20.093  0.1609 -0.0404  0.0241
42811W        W85728   7.272  15.236  23.763 -0.2888 -0.0699 -0.2906
42812W        W85729   7.893  16.993  21.978 -0.1557 -0.0635  0.3181
42813W        W85730  10.538  16.519  21.160 -0.0971 -0.2408 -0.2519
42814W        W85731   8.261  15.733  18.252  0.2531  0.0036 -0.1935
42815W        W85732   9.566  16.348  22.909 -0.0067 -0.0560 -0.2940
42816W        W85733   7.235  18.165  21.716  0.1498 -0.2826 -0.3320
42817W        W85734   8.091  14.532  20.102 -0.2049  0.1581 -0.1676
42818W        W85735   6.803  15.576  20.861 -0.0375  0.0689  0.1279
42819W        W85736   8.220  16.083  21.885  0.1209 -0.0200 -0.1083
42820W        W85737   7.881  16.842  20.573  0.0275  0.1331 -0.0104
42821W        W85738   8.235  14.495  22.966  0.1254  0.0392  0.0517
42822W        W85739   6.726  14.437  20.166  0.0091 -0.0196  0.1210
42823W        W85740   7.665  15.711  21.363 -0.4958  0.0520 -0.0558
42824W        W85741   6.361  16.920  23.132  0.1348 -0.2225  0.2637
42825W        W85742  10.001  13.800  24.739 -0.0202  0.3036 -0.1608
42826W        W85743   9.403  18.675  20.781  0.0090  0.0572  0.3203
42827W        W85744   8.445  15.721  20.667 -0.1383 -0.1442  0.1335
42828W        W85745   6.943  15.287  20.066 -0.1177  0.1864 -0.3883
42829W        W85746   8.961  17.399  23.925 -0.1378 -0.0117  0.0596
42830W        W85747  10.385  18.053  21.203 -0.4165  0.0090 -0.1195
42831W        W85748  11.318  16.085  22.875 -0.0357  0.0728 -0.0849
42832W        W85749   8.528  17.300  21.303  0.1302 -0.0499 -0.5188
42833W        W85750   9.939  18.008  20.424  0.1429 -0.4420 -0.1193
42834W        W85751  10.922  16.110  23.691 -0.1702 -0.1808 -0.0021
42835W        W85752   6.850  18.801  20.854 -0.0276 -0.2742 -0.3481
42836W        W85753   6.902  18.971  22.443 -0.0113  0.1022  0.0497
42837W        W85754   7.302  14.750  21.968 -0.1342 -0.0851 -0.0836
42838W        W85755   8.848  16.719  19.838  0.1241  0.1273 -0.1354
42839W        W85756  11.010  19.125  20.616 -0.2541 -0.3293 -0.1954
42840W        W85757   9.123  17.302  23.364 -0.2006 -0.2031 -0.0197
42841W        W85758   7.408  16.092  20.344 -0.6840 -0.0595  0.1128
42842W        W85759   9.827  19.192  23.716  0.0095  0.1909  0.3209
42843W        W85760   7.439  17.073  22.926 -0.0497 -0.0991  0.0389
42844W        W85761   9.869  14.977  22.716 -0.1119 -0.1855 -0.0589
42845W        W85762   7.480  19.373  21.123 -0.1582  0.1579 -0.0205
42846W        W85763   9.928  15.908  21.703 -0.2228 -0.3802 -0.2681
42847W        W85764   9.254  14.367  22.347  0.0963  0.1763 -0.0055
42848W        W85765   6.996  16.226  24.174  0.1312  0.0878  0.0157
42849W        W85766   8.123  14.934  23.838  0.0659  0.1710  0.1441
42850W        W85767   9.581  17.239  23.545 -0.4889 -0.0350 -0.0423
42851W        W85768   6.660  16.553  19.540  0.1304 -0.4946 -0.0905
42852W        W85769   8.940  16.594  19.245 -0.1153  0.0975 -0.2967
42853W        W85770   8.407  14.629  22.530  0.1066 -0.1334 -0.0250
42854W        W85771   8.473  15.246  18.912 -0.0262  0.2109  0.0526
42855W        W85772   7.973  12.675  21.243  0.0475  0.0833 -0.0493
42856W        W85773   7.064  17.662  22.550 -0.3771 -0.0808 -0.1256
42857W        W85774  10.055  16.191  22.815 -0.1498  0.2303  0.0226
42858W        W85775  10.766  18.119  22.022 -0.1487  0.0961 -0.1900
42859W        W85776   7.522  15.203  21.478 -0.0049  0.3046 -0.0074
42860W        W85777   9.911  16.217  23.761  0.1594 -0.0265 -0.1960
42861W        W85778   8.237  16.776  23.279 -0.1689  0.0226  0.1035
42862W        W85779   8.684  14.747  22.934 -0.2513 -0.1272 -0.1322
42863W        W85780  10.981  19.225  18.920  0.2882  0.1601  0.2934
42864W        W85781   9.017  18.593  21.063  0.1065 -0.1090  0.0229
42865W        W85782   7.703  17.194  20.228 -0.3770  0.1329 -0.1405
42866W        W85783   6.791  14.133  23.229  0.0662 -0.2376 -0.1383
42867W        W85784   7.502  18.836  23.196  0.0656  0.0417 -0.1210
42868W        W85785   5.995  15.995  23.219 -0.2730  0.3537  0.2172
42869W        W85786   8.121  14.003  19.839  0.1396 -0.2675  0.1551
42870W        W85787  10.587  17.937  23.126  0.1555 -0.2421 -0.0787
42871W        W85788   6.293  16.570  22.305  0.2372  0.0564  0.0491
42872W        W85789  10.408  15.823  20.832  0.2332  0.2975  0.1525
42873W        W85790   9.283  15.921  22.817  0.1009  0.0403  0.0804
42874W        W85791   8.958  14.838  22.337 -0.1984 -0.2770  0.0016
42875W        W85792   9.823  15.968  20.642 -0.2132  0.1799 -0.0353
42876W        W85793  10.733  14.179  22.750 -0.1497  0.2798 -0.0783
42877W        W85794   9.329  16.405  20.533 -0.2267 -0.0901  0.2761
42878W        W85795   7.192  14.753  21.267  0.2565  0.0751 -0.1691
42879W        W85796   9.011  15.499  21.599  0.0707 -0.2214 -0.2425
42880W        W85797  10.119  15.689  22.273  0.1210 -0.0477  0.1557
42881W        W85798   8.994  15.253  19.556 -0.3476 -0.0439  0.0261
42882W        W85799  10.409  16.961  23.129 -0.0629 -0.0025 -0.1695
42883W        W85800   8.426  15.539  26.100 -0.0524  0.1529  0.0996
42884W        W85801   9.017  17.402  24.679 -0.0443 -0.3785 -0.0115
42885W        W85802   6.112  17.980  19.596 -0.0788 -0.1339 -0.0858
42886W        W85803   8.717  17.001  21.622  0.1096 -0.0859 -0.4224
42887W        W85804   8.228  17.895  19.873 -0.0604 -0.1009 -0.2125
42888W        W85805   6.608  16.398  21.179  0.0645 -0.0443 -0.3053
42889W        W85806  12.053  16.030  20.764 -0.3196  0.0172 -0.1992
42890W        W85807  10.550  13.474  21.314  0.1809  0.1342 -0.1557
42891W        W85808   7.348  15.317  22.352 -0.1597 -0.3694 -0.1091
42892W        W85809  11.225  14.773  21.100  0.0005 -0.1052 -0.2321
42893W        W85810   8.873  16.574  23.655  0.0652 -0.0991 -0.1127
42894W        W85811  11.488  16.762  22.383 -0.1476 -0.0522 -0.1143
42895W        W85812  10.201  15.656  19.784  0.1048 -0.1818  0.1231
42896W        W85813  10.609  15.892  19.596  0.0652  0.0365 -0.0858
42897W        W85814   7.615  15.854  25.487 -0.2115 -0.2025 -0.0861
42898W        W85815   9.166  14.847  22.768 -0.0642  0.2248  0.0746
42899W        W85816   8.609  14.900  24.519  0.2438  0.4099 -0.0243
42900W        W85817   7.292  17.551  22.984 -0.0184  0.1976  0.0058
42901W        W85818   8.765  14.204  23.919 -0.0086 -0.0378 -0.2478
42902W        W85819   6.237  15.620  18.948 -0.1299  0.1121  0.3598
42903W        W85820   8.336  15.512  19.812 -0.0395  0.2556 -0.0248
42904W        W85821   8.104  16.425  20.563  0.1704 -0.0977  0.1145
42905W        W85822   6.267  17.920  20.968  0.1510 -0.1918 -0.0313
42906W        W85823  11.201  15.757  23.207  0.0697  0.2338  0.1560
42907W        W85824   9.124  17.528  21.305 -0.4635 -0.0883 -0.0595
42908W        W85825   9.199  18.309  22.408 -0.3307  0.2020 -0.0375
42909W        W85826   9.940  19.123  22.144  0.2594  0.0006 -0.0399
42910W        W85827   9.017  15.130  21.944  0.1497  0.1911  0.1726
42911W        W85828   8.101  14.991  23.129  0.1174  0.0011  0.1842
42912W        W85829   7.510  16.682  21.090  0.0882  0.1257  0.1581
42913W        W85830   8.080  17.321  19.624  0.0909 -0.2206  0.0688
42914W        W85831   6.939  15.344  21.397 -0.0328 -0.0949  0.0613
42915W        W85832  10.092  18.720  19.568 -0.2784  0.0898 -0.2806
42916W        W85833   9.602  16.454  20.036 -0.4348 -0.2837  0.1538
42917W        W85834  10.024  16.713  22.959  0.0212 -0.4325  0.3038
42918W        W85835   8.257  15.940  22.886 -0.1960 -0.0962 -0.0107
42919W        W85836  10.008  14.545  22.475  0.1037  0.0463  0.3272
42920W        W85837   9.498  15.777  21.529  0.0014  0.1026 -0.1175
42921W        W85838   6.671  15.881  19.274  0.2110 -0.1977 -0.3795
42922W        W85839   9.321  18.787  21.425  0.2264  0.5244 -0.1568
42923W        W85840   6.621  18.126  18.489  0.0749  0.1754 -0.2971
42924W        W85841   7.268  18.121  22.271 -0.1302  0.0093 -0.4039
42925W        W85842   9.466  18.731  22.079  0.2274 -0.0581 -0.1135
42926W        W85843  10.242  13.902  21.083  0.0682  0.1818  0.0411
42927W        W85844   7.882  15.830  22.258  0.2223 -0.2141 -0.1776
42928W        W85845   9.015  15.649  25.537  0.1248 -0.0574  0.0140
42929W        W85846   7.165  15.748  21.635  0.0110  0.1767  0.3754
42930W        W85847   8.176  16.229  21.454  0.0299  0.3884  0.1271
42931W        W85848  10.189  13.787  22.062  0.3207  0.1082 -0.0862
42932W        W85849   8.120  15.575  18.754 -0.2541  0.2737  0.1677
42933W        W85850   9.615  18.779  23.553  0.2963  0.1293  0.1791
42934W        W85851  10.257  15.754  20.296  0.0776 -0.2528  0.0916
42935W        W85852   9.258  13.676  16.857  0.0433 -0.0516  0.1815
42936W        W85853   9.205  16.365  19.645  0.3638  0.1092  0.0115
42937W        W85854   9.776  17.664  22.824 -0.0707  0.0446  0.1283
42938W        W85855  10.383  17.692  22.726 -0.1695 -0.1526  0.3470
42939W        W85856   9.681  15.716  23.127 -0.0820 -0.1712  0.0246
42940W        W85857   7.988  16.758  20.118  0.2264  0.2297  0.0525
42941W        W85858  10.635  18.070  20.220  0.0232  0.2111 -0.3868
42942W        W85859   7.589  15.687  22.686  0.0347 -0.0670 -0.0006
42943W        W85860   8.665  17.587  23.535 -0.0206 -0.2492 -0.1455
42944W        W85861   8.263  17.388  20.201  0.0935 -0.2507 -0.0551
42945W        W85862  11.307  14.280  22.973 -0.2421 -0.0912 -0.1526
42946W        W85863   8.335  16.032  19.524  0.2374  0.1790 -0.2907
42947W        W85864   8.683  13.221  21.208  0.0125  0.0361 -0.0155
42948W        W85865   5.509  18.109  17.937  0.1541  0.1474  0.0990
42949W        W85866  10.164  17.563  21.389 -0.1456 -0.2058 -0.1100
42950W        W85867  10.439  14.702  23.264 -0.1122  0.2438  0.0654
42951W        W85868   9.696  14.379  23.331  0.0779  0.3399  0.0033
42952W        W85869  11.685  17.259  23.116 -0.2543 -0.0824  0.0401
42953W        W85870  10.997  16.455  21.321 -0.2006  0.1696 -0.1327
42954W        W85871   8.204  16.266  23.348 -0.1294 -0.0002  0.0728
42955W        W85872   6.774  16.180  21.660  0.2307 -0.1391 -0.0838
42956W        W85873   9.008  12.485  23.012 -0.0161 -0.2373  0.2808
42957W        W85874   9.394  15.465  23.880 -0.3393 -0.0816  0.2441
42958W        W85875   5.633  15.998  23.630 -0.0033 -0.1941  0.0520
42959W        W85876  11.544  17.619  24.970  0.0867  0.0277  0.4056
42960W        W85877   9.902  16.543  20.389 -0.3168 -0.0732 -0.2126
42961W        W85878   8.056  14.905  22.363  0.0646  0.2179  0.1683
42962W        W85879   9.141  12.557  20.743  0.0636  0.0446 -0.0854
42963W        W85880   6.752  17.579  20.321 -0.2140  0.2570 -0.0421
42964W        W85881  10.230  16.715  20.753 -0.4110  0.1225  0.1210
42965W        W85882  10.298  16.387  21.565 -0.1400  0.2157  0.3642
42966W        W85883   8.375  16.934  24.279 -0.3935  0.1760 -0.0948
42967W        W85884   8.484  17.290  18.374 -0.2060  0.0908 -0.1942
42968W        W85885  10.370  16.086  23.574 -0.1049 -0.2160  0.0433
42969W        W85886   6.241  17.999  21.479 -0.0423  0.3780  0.3510
42970W        W85887   9.881  16.135  22.235  0.1110  0.0012 -0.1075
42971W        W85888   8.645  15.967  21.579  0.0459 -0.0336  0.0589
42972W        W85889   8.334  13.460  19.468  0.2251 -0.2456  0.1147
42973W        W85890   8.297  15.996  23.928  0.2083 -0.2910  0.0789
42974W        W85891  11.144  13.265  21.937  0.3266  0.0711 -0.2816
42975W        W85892   9.033  16.244  18.645  0.0591  0.1616  0.2356
42976W        W85893   9.760  14.052  22.490  0.4097  0.0269 -0.0330
42977W        W85894  10.544  15.296  20.583  0.2180  0.0302  0.0683
42978W        W85895   7.903  17.443  22.854 -0.0728  0.0989  0.1321
42979W        W85896  11.204  18.188  21.764 -0.2182 -0.2787 -0.2214
42980W        W85897   8.888  14.318  19.411  0.1277 -0.0124  0.1544
42981W        W85898   9.278  18.350  24.320  0.2586 -0.1222 -0.2503
42982W        W85899   8.915  16.745  25.400  0.1142 -0.0074 -0.0778
42983W        W85900   8.114  16.389  19.756 -0.2199 -0.4910  0.1728
42984W        W85901   9.038  15.814  23.739 -0.1735  0.0772 -0.1251
42985W        W85902   7.733  15.108  22.815 -0.0436  0.0925  0.1680
42986W        W85903   8.630  16.357  22.624 -0.0235 -0.2147  0.0682
42987W        W85904   9.407  16.871  22.722  0.2404 -0.0111  0.1902
42988W        W85905   6.305  16.184  19.439 -0.0258 -0.2934  0.1183
42989W        W85906   7.545  16.680  22.509 -0.0470 -0.0934 -0.0444
42990W        W85907   9.622  16.561  24.059 -0.0192 -0.1367  0.2135
42991W        W85908   8.924  16.824  22.397 -0.3662  0.1404 -0.0716
42992W        W85909   8.882  16.743  20.368 -0.1157 -0.0198 -0.0187
42993W        W85910   8.126  14.897  20.854  0.3779 -0.1122  0.2054
42994W        W85911   8.374  16.936  19.773 -0.1452  0.0873  0.2836
42995W        W85912   8.223  16.168  22.409 -0.2531 -0.1424 -0.1419
42996W        W85913   9.175  13.848  24.109 -0.1121 -0.1157 -0.0164
42997W        W85914   8.088  14.354  25.090  0.0838  0.1616  0.0625
42998W        W85915   7.296  13.478  22.048 -0.3176 -0.0577  0.1389
42999W        W85916   9.628  15.678  22.047  0.1724 -0.1179 -0.0440
43000W        W85917   9.775  16.224  21.374 -0.1934 -0.2959  0.2165
43001W        W85918   7.633  16.301  21.337  0.0196  0.2696 -0.2332
43002W        W85919   8.274  17.253  20.801  0.0537 -0.0666  0.0365
43003W        W85920   6.908  16.774  19.068 -0.1357 -0.2404  0.1740
43004W        W85921   8.932  13.646  21.986  0.1102  0.1922 -0.0247
43005W        W85922   9.622  16.978  21.114  0.0540 -0.2380  0.3435
43006W        W85923   5.723  18.544  18.097  0.1872 -0.3370  0.0308
43007W        W85924   8.309  16.206  25.025 -0.1524  0.1911 -0.2450
43008W        W85925   9.476  14.515  17.937 -0.0496  0.0278 -0.1673
43009W        W85926   7.384  17.616  19.147 -0.0726  0.2194  0.0727
43010W        W85927   8.624  14.878  23.983 -0.1237 -0.1690  0.0228
43011W        W85928  12.932  13.967  23.593  0.0729 -0.2359 -0.0722
43012W        W85929   8.914  15.519  20.669 -0.0870 -0.2901 -0.0188
43013W        W85930   9.744  16.759  23.440 -0.1887 -0.3487  0.0121
43014W        W85931   7.534  15.858  20.901  0.1885 -0.1718  0.1241
43015W        W85932  10.761  15.699  19.100 -0.1563  0.1988 -0.1547
43016W        W85933   6.621  14.845  24.229  0.2182 -0.1412 -0.0021
43017W        W85934  10.511  18.761  24.406 -0.0920  0.3973  0.1111
43018W        W85935   6.880  17.622  24.582  0.2146 -0.2723  0.0969
43019W        W85936   9.313  14.964  19.833  0.0484 -0.0459  0.0615
43020W        W85937   7.247  12.825  22.227  0.1025 -0.1223  0.0120
43021W        W85938   8.747  17.370  22.603 -0.2625  0.0094 -0.2049
43022W        W85939  10.154  15.832  23.231  0.2266 -0.0260  0.0339
43023W        W85940   9.225  16.855  20.783  0.1231  0.0184 -0.0633
43024W        W85941  10.130  16.280  20.952 -0.0814  0.2139 -0.0981
43025W        W85942   9.219  16.918  23.677  0.0221 -0.2515  0.0961
43026W        W85943   8.384  15.351  21.002 -0.3145 -0.0581 -0.2619
43027W        W85944   9.266  16.853  20.085 -0.0028  0.1082 -0.0995
43028W        W85945   9.776  16.598  22.522 -0.2254 -0.0265 -0.2619
43029W        W85946   9.741  14.478  27.287 -0.0408  0.0488 -0.2476
43030W        W85947  10.292  14.686  21.708  0.1639 -0.1613  0.0720
43031W        W85948  11.318  15.582  21.660  0.3110  0.0500  0.2809
43032W        W85949  10.009  14.838  23.523  0.1374 -0.2097 -0.1073
43033W        W85950   9.590  13.773  23.235 -0.1091  0.3636 -0.2991
43034W        W85951   7.438  16.145  24.415 -0.1069 -0.3221  0.0919
43035W        W85952   9.261  14.665  25.043  0.1848 -0.0660 -0.1118
43036W        W85953   9.417  20.005  23.599 -0.0964 -0.0407 -0.0503
43037W        W85954   9.011  13.546  20.019 -0.0388  0.1833  0.0882
43038W        W85955  11.996  14.327  23.776  0.0443 -0.0020 -0.3263
43039W        W85956  11.393  15.777  19.000 -0.1890  0.0505  0.0190
43040W        W85957   8.525  15.140  20.544  0.0102 -0.1491  0.0340
43041W        W85958   9.921  12.887  23.753 -0.0192 -0.1275  0.1734
43042W        W85959  10.821  16.315  24.415  0.0912  0.1456  0.3104
43043W        W85960   7.976  14.361  20.996 -0.0616  0.0696 -0.0490
43044W        W85961  11.597  13.910  23.215 -0.1548  0.0962 -0.1192
43045W        W85962  10.099  19.811  20.887 -0.0711  0.2145 -0.3353
43046W        W85963   7.618  18.327  22.661 -0.1674  0.2524  0.1981
43047W        W85964  11.998  16.542  22.167  0.0694  0.0794  0.1686
43048W        W85965   7.388  15.780  22.122 -0.3025 -0.0290  0.2223
43049W        W85966   9.540  16.223  21.923  0.0137 -0.1338  0.2857
43050W        W85967   6.596  14.633  19.017 -0.2276  0.1925 -0.0090
43051W        W85968   8.667  15.671  22.018 -0.2662  0.3428 -0.1529
43052W        W85969  10.406  17.350  22.411  0.0933 -0.0266 -0.2580
43053W        W85970  10.572  16.806  24.273  0.2222 -0.2026 -0.1485
43054W        W85971   9.224  15.895  18.129  0.2240  0.2665 -0.2139
43055W        W85972  11.445  16.455  23.195  0.0751  0.1864  0.2527
43056W        W85973   7.796  17.119  21.014  0.3266  0.0822  0.1299
43057W        W85974   9.434  14.221  20.656  0.1734 -0.0740 -0.0855
43058W        W85975   8.772  16.054  22.972 -0.0863 -0.1186 -0.1295
43059W        W85976   7.139  16.631  20.731 -0.0800 -0.1678 -0.2963
43060W        W85977   9.650  17.002  20.540  0.1434 -0.2072  0.4130
43061W        W85978   8.876  15.654  23.276  0.0876 -0.1664  0.0846
43062W        W85979   9.811  15.333  22.400  0.0631  0.1288 -0.1625
43063W        W85980   9.818  15.758  21.097 -0.1553  0.1069  0.1344
43064W        W85981  10.742  17.013  22.667 -0.1635 -0.0224 -0.0535
43065W        W85982  10.115  16.696  24.133 -0.2319 -0.0495 -0.3774
43066W        W85983   8.623  15.175  22.260  0.0113 -0.2100  0.2868
43067W        W85984   9.126  19.555  23.812  0.0981  0.3462 -0.2612
43068W        W85985  10.717  18.058  19.551 -0.3097  0.1071  0.0143
43069W        W85986   9.609  18.188  22.673  0.2240  0.0903  0.1578
43070W        W85987   6.871  15.305  24.151  0.0006  0.1593 -0.0703
43071W        W85988   9.201  17.455  22.810  0.0544  0.0140  0.3816
43072W        W85989  10.206  16.845  22.393  0.1994  0.0442  0.1672
43073W        W85990   9.006  13.686  21.355  0.3351  0.0280 -0.1797
43074W        W85991   9.284  15.925  19.974  0.0285 -0.3694  0.0461
43075W        W85992   7.072  16.980  24.297 -0.0709  0.1383 -0.0403
43076W        W85993   8.014  17.583  22.156 -0.0914 -0.2243 -0.0523
43077W        W85994   8.183  18.027  20.909 -0.0390 -0.0019  0.0354
43078W        W85995   9.085  15.981  21.894  0.4297  0.0820 -0.1611
43079W        W85996   9.080  16.420  22.209  0.1715  0.0703  0.0442
43080W        W85997  10.589  18.428  23.967 -0.2919  0.0377  0.2210
43081W        W85998   8.919  14.915  20.334  0.0857 -0.3491  0.0099
43082W        W85999   8.016  18.053  20.290 -0.2661 -0.0742 -0.2192
43083W        W86000   8.331  16.583  21.813 -0.2407 -0.0638 -0.0629
43084W        W86001   9.060  18.678  19.848  0.1408 -0.1058  0.0289
43085W        W86002   6.474  18.338  21.072  0.2271  0.1916  0.0402
43086W        W86003  10.109  16.547  21.978  0.3611  0.1433 -0.3237
43087W        W86004   9.456  15.642  19.118  0.1935  0.0282  0.2422
43088W        W86005  10.056  14.244  21.970 -0.0809 -0.0410 -0.3357
43089W        W86006  10.341  14.786  18.783 -0.1655  0.0648  0.5123
43090W        W86007  10.930  17.769  22.380 -0.2876 -0.2491  0.2379
43091W        W86008   9.424  16.167  22.418 -0.0348 -0.2174  0.2331
43092W        W86009   8.715  14.265  22.254  0.0732 -0.1141 -0.1344
43093W        W86010   9.797  17.098  24.406  0.0375 -0.2616  0.0621
43094W        W86011  11.682  16.338  22.564 -0.2097 -0.2889 -0.2473
43095W        W86012   7.281  18.440  23.368 -0.1683  0.1928 -0.0419
43096W        W86013   9.065  17.415  18.533  0.0835  0.0751 -0.2811
43097W        W86014   8.000  14.882  21.614 -0.3499  0.0549  0.0425
43098W        W86015   8.171  15.807  21.142  0.0218  0.1639 -0.2424
43099W        W86016  10.404  14.572  22.171 -0.0525  0.0604  0.1084
43100W        W86017   7.802  17.336  19.146  0.1921  0.1497 -0.0507
43101W        W86018   9.812  17.437  20.995  0.1532  0.1588 -0.0259
43102W        W86019   8.342  19.127  21.118  0.1494  0.1440  0.2931
43103W        W86020   8.720  16.943  23.381 -0.2402 -0.0764  0.2264
43104W        W86021   7.715  17.185  22.388 -0.0884  0.1864 -0.0545
43105W        W86022   6.920  16.629  21.698  0.2386  0.1154 -0.1663
43106W        W86023   8.975  16.048  20.735  0.3136 -0.3955 -0.0498
43107W        W86024   8.161  16.447  22.827  0.1498  0.1549  0.1066
43108W        W86025  10.659  14.133  22.146 -0.2412 -0.1247 -0.0067
43109W        W86026  10.295  15.103  19.711 -0.0998  0.0180  0.0409
43110W        W86027   9.369  15.821  20.476 -0.0584  0.0124 -0.2695
43111W        W86028  10.589  16.008  22.954 -0.2574  0.1519 -0.0514
43112W        W86029   6.663  15.765  25.434  0.1520  0.1958 -0.2171
43113W        W86030   9.189  15.459  20.172 -0.0439  0.1478  0.1962
43114W        W86031  11.580  16.760  21.837  0.3207 -0.2405  0.2233
43115W        W86032  10.486  15.426  18.502 -0.1091  0.3407  0.0874
43116W        W86033   8.953  19.157  23.955 -0.1274  0.1800 -0.0385
43117W        W86034   8.893  13.691  22.544  0.1520 -0.1181 -0.1513
43118W        W86035   8.417  12.728  21.118  0.0969  0.0464 -0.0521
43119W        W86036   6.529  16.548  22.853 -0.1016  0.0906 -0.0439
43120W        W86037   7.932  14.264  23.919  0.2892 -0.1908 -0.0625
43121W        W86038   9.652  18.769  24.627  0.0067  0.1071 -0.0481
43122W        W86039   8.049  15.351  21.416 -0.0445  0.2493  0.0793
43123W        W86040   9.245  16.659  18.850  0.1343  0.1010 -0.0465
43124W        W86041   8.930  14.377  22.703 -0.2110  0.1289 -0.2253
43125W        W86042   8.011  17.346  18.249 -0.3114 -0.0026 -0.0359
43126W        W86043  11.036  15.518  18.711  0.0917 -0.2919 -0.0016
43127W        W86044  10.526  17.716  22.130 -0.0265 -0.1785 -0.1611
43128W        W86045   7.083  15.685  23.803  0.0195 -0.1392  0.1136
43129W        W86046  10.260  19.236  22.524 -0.0651  0.0005 -0.0226
43130W        W86047  11.256  16.121  21.000  0.3526  0.2033  0.0912
43131W        W86048   9.887  14.457  20.299  0.1233  0.2599  0.0096
43132W        W86049   7.358  16.232  22.347  0.0225 -0.0543 -0.1374
43133W        W86050   8.726  15.787  19.782 -0.1420 -0.0277 -0.0898
43134W        W86051  11.589  16.268  22.026  0.2900  0.4312  0.1161
43135W        W86052  10.378  16.069  22.420 -0.3645 -0.2188  0.1361
43136W        W86053  10.528  17.152  20.425 -0.0407  0.2816  0.0287
43137W        W86054  10.480  13.305  22.015  0.1559 -0.0452 -0.3596
43138W        W86055   8.902  16.951  24.439 -0.1494  0.0384 -0.3485
43139W        W86056  10.060  17.283  23.343 -0.0163  0.0604  0.1799
43140W        W86057   9.663  16.694  21.797  0.0014 -0.0133 -0.1313
43141W        W86058   8.073  15.470  23.414  0.0225  0.0820  0.0639
43142W        W86059   7.796  17.298  21.487  0.0873  0.1406  0.1321
43143W        W86060   8.611  16.719  20.841 -0.0477  0.0282 -0.2782
43144W        W86061   8.081  16.616  22.340 -0.1514 -0.2461  0.0093
43145W        W86062   9.524  14.996  21.862  0.1437  0.1086 -0.3065
43146W        W86063  10.772  16.626  20.710  0.0450  0.1021  0.1329
43147W        W86064  10.281  13.318  22.827  0.0627  0.2262  0.0216
43148W        W86065  12.682  15.052  22.611 -0.1004 -0.1986  0.0291
43149W        W86066  11.001  14.573  22.563 -0.0256  0.4547  0.3725
43150W        W86067  10.151  17.130  21.019 -0.0420  0.1562  0.1362
43151W        W86068   5.547  15.658  18.091  0.0901  0.1077 -0.0439
43152W        W86069   7.713  15.093  22.016  0.0925  0.1609 -0.0104
43153W        W86070   9.750  18.073  23.219 -0.0293 -0.2228 -0.2872
43154W        W86071   9.276  14.478  24.529 -0.1052 -0.1795  0.2075
43155W        W86072   7.638  16.211  25.889  0.1246  0.1117 -0.2942
43156W        W86073   7.911  16.386  23.752  0.0200 -0.0541 -0.0294
43157W        W86074   8.944  13.871  23.025 -0.0026  0.2509  0.4643
43158W        W86075   9.126  16.916  18.301  0.3040  0.4693 -0.4502
43159W        W86076   6.308  15.345  23.694 -0.0276 -0.1940  0.0523
43160W        W86077   6.847  14.705  23.098 -0.0553 -0.0164  0.0130
43161W        W86078  10.119  18.762  23.341 -0.0058 -0.0730 -0.1096
43162W        W86079  11.014  19.078  22.660  0.1153 -0.2869 -0.0619
43163W        W86080   7.141  14.821  22.721 -0.0796  0.0877 -0.1313
43164W        W86081   9.158  18.600  23.397 -0.1330  0.1219 -0.1171
43165W        W86082   7.602  16.429  19.837  0.2272  0.0481 -0.1966
43166W        W86083  10.198  15.357  23.991 -0.0090  0.1792  0.0828
43167W        W86084   8.649  15.136  25.389  0.0710  0.0970  0.0620
43168W        W86085   7.816  14.568  22.052  0.0325  0.1261 -0.4313
43169W        W86086   9.469  15.337  23.407 -0.0411 -0.2212 -0.1816
43170W        W86087   9.237  19.673  20.895  0.0766 -0.2133 -0.1836
43171W        W86088   9.326  17.814  19.280 -0.4876 -0.1275 -0.0821
43172W        W86089  10.262  17.974  23.644  0.1439 -0.0001 -0.1391
43173W        W86090   8.450  17.186  24.767 -0.0456  0.1810  0.1257
43174W        W86091   8.690  13.401  23.136  0.1106 -0.2882  0.0331
43175W        W86092   9.370  17.125  21.501  0.1729  0.2017  0.2048
43176W        W86093  10.107  17.264  22.822 -0.4889  0.1558 -0.4353
43177W        W86094  10.066  17.737  18.683 -0.0883 -0.1422 -0.0618
43178W        W86095   9.337  13.523  19.344 -0.0695 -0.2451 -0.3238
43179W        W86096   9.623  16.895  19.750 -0.1618 -0.0144 -0.0213
43180W        W86097   7.632  16.478  23.004  0.1872 -0.1365 -0.1579
43181W        W86098   7.319  16.103  22.841  0.2517 -0.3533  0.2876
43182W        W86099  10.947  17.449  22.741  0.1534 -0.4364 -0.3038
43183W        W86100   8.996  12.950  23.369  0.0343  0.0672 -0.2104
43184W        W86101   8.753  16.080  19.302  0.2064 -0.0012  0.0714
43185W        W86102  10.362  19.363  19.468 -0.0025  0.0277  0.0736
43186W        W86103   7.741  16.171  22.646 -0.1848  0.1129 -0.4047
43187W        W86104   8.323  14.590  19.229  0.2124  0.0506 -0.1111
43188W        W86105   9.055  18.434  21.884  0.3454  0.1244 -0.0366
43189W        W86106   6.862  17.367  24.110 -0.0236  0.2316  0.1486
43190W        W86107   9.727  17.211  22.438 -0.0420 -0.2023 -0.2071
43191W        W86108   8.726  16.269  19.751  0.2384  0.2879  0.0078
43192W        W86109  10.194  15.468  18.898 -0.1720 -0.0047 -0.6017
43193W        W86110   8.173  18.813  23.888 -0.0729 -0.2545 -0.0439
43194W        W86111  11.649  19.656  22.916  0.2937  0.2532  0.0179
43195W        W86112  10.407  18.576  22.032 -0.1602 -0.1581 -0.0669
43196W        W86113  11.035  17.964  22.817 -0.0003  0.3501 -0.1712
43197W        W86114   8.502  15.472  21.533 -0.0317  0.1150 -0.2465
43198W        W86115   8.919  15.959  22.426  0.0874  0.0039 -0.1891
43199W        W86116   7.413  16.895  19.927 -0.2364 -0.1102  0.4064
43200W        W86117   9.603  14.310  22.047 -0.0027 -0.1725 -0.1521
43201W        W86118   8.844  15.303  24.175 -0.3321  0.3312  0.2418
43202W        W86119  10.377  13.674  18.316  0.4697  0.0143  0.4162
43203W        W86120   8.798  16.192  24.075  0.3351  0.3163  0.1858
43204W        W86121  10.372  15.635  21.716 -0.1118  0.2332 -0.2303
43205W        W86122  10.427  16.133  28.762  0.1938 -0.0745  0.0879
43206W        W86123   9.550  16.177  24.812  0.0794  0.0480  0.1984
43207W        W86124   8.802  13.992  24.521  0.0395 -0.0778  0.0442
43208W        W86125  10.135  17.717  23.182  0.0411 -0.0660 -0.0018
43209W        W86126   8.960  13.341  23.949 -0.0297  0.4479 -0.2072
43210W        W86127  12.180  18.227  24.394  0.0135 -0.0348  0.0779
43211W        W86128   6.786  15.078  28.248 -0.0699 -0.2257  0.1539
43212W        W86129  10.055  17.669  24.443 -0.3139  0.4582  0.1338
43213W        W86130  12.932  17.345  25.577 -0.2164  0.0778  0.2109
43214W        W86131   8.566  17.584  24.963 -0.1334  0.0788 -0.2770
43215W        W86132  11.018  15.273  27.210 -0.2207  0.1203  0.1294
43216W        W86133   8.405  16.805  28.803 -0.1121  0.1643  0.1043
43217W        W86134   8.626  14.522  26.236 -0.0887  0.1723 -0.0101
43218W        W86135   8.745  15.988  25.212  0.2249 -0.3209 -0.3151
43219W        W86136  11.372  15.366  25.322  0.1377 -0.0119  0.1013
43220W        W86137   7.298  16.429  25.075  0.0367  0.3363  0.2706
43221W        W86138  10.452  15.022  25.864 -0.1678 -0.0186  0.0296
43222W        W86139   8.958  15.023  24.937 -0.2976 -0.1413 -0.2409
43223W        W86140  10.641  19.212  24.882  0.1123  0.0155 -0.1451
43224W        W86141   9.791  14.601  24.810  0.0354  0.0701  0.1709
43225W        W86142   9.722  14.021  25.076  0.2086 -0.0240  0.0711
43226W        W86143   8.807  18.519  25.622 -0.4135 -0.2451 -0.0519
43227W        W86144   8.194  15.222  24.847  0.0746  0.1599 -0.3297
43228W        W86145   8.132  16.876  26.205  0.0258 -0.3527  0.0716
43229W        W86146  12.442  15.715  25.539  0.1269 -0.2247 -0.0727
43230W        W86147  10.356  14.728  25.035  0.3776  0.1326 -0.0274
43231W        W86148   9.980  17.625  25.587 -0.0504 -0.5125  0.1189
43232W        W86149   9.139  15.488  24.669  0.1061  0.1923  0.1831
43233W        W86150   9.104  16.349  27.483 -0.0279 -0.3682 -0.2764
43234W        W86151  11.447  15.105  27.893  0.0016 -0.3188  0.2450
43235W        W86152   6.755  16.299  25.890  0.0186 -0.0458  0.1019
43236W        W86153   8.087  18.081  26.242  0.1936 -0.0653 -0.0150
43237W        W86154   7.964  17.364  24.611 -0.1552  0.0418 -0.2337
43238W        W86155  12.004  17.780  23.591 -0.0904  0.0075 -0.0056
43239W        W86156  11.508  18.059  26.560 -0.1856 -0.0274 -0.0715
43240W        W86157   9.033  18.744  27.286  0.3052 -0.1950 -0.1167
43241W        W86158   6.890  17.624  25.079 -0.3561 -0.0237  0.0872
43242W        W86159   8.890  19.270  26.210 -0.2402 -0.3473  0.0244
43243W        W86160   8.163  16.842  27.684 -0.0060 -0.0544 -0.0802
43244W        W86161   9.254  16.660  23.242 -0.1538 -0.0781  0.1342
43245W        W86162  10.779  17.269  24.511 -0.2119  0.1498  0.0168
43246W        W86163   8.343  17.235  23.063  0.0573  0.3402 -0.1614
43247W        W86164  10.757  16.012  26.171  0.0127 -0.0789  0.2363
43248W        W86165   8.989  16.808  27.027  0.0082  0.3542  0.0474
43249W        W86166   7.612  15.480  27.465 -0.1199 -0.1389  0.0193
43250W        W86167  10.058  14.064  28.323 -0.2044  0.0672 -0.0681
43251W        W86168   7.965  16.889  23.863 -0.2672  0.2232 -0.1408
43252W        W86169   8.385  16.639  23.720 -0.2008  0.0760 -0.1713
43253W        W86170   9.199  16.070  23.312 -0.0858 -0.4940  0.0170
43254W        W86171   9.824  16.130  25.254  0.3579 -0.0196 -0.0002
43255W        W86172  10.442  12.030  24.316  0.1161  0.1572 -0.2291
43256W        W86173   9.218  19.210  24.876 -0.0431  0.0175  0.1845
43257W        W86174   8.305  15.524  27.769 -0.2687 -0.2692  0.2271
43258W        W86175  11.417  15.589  24.857 -0.0763 -0.3254 -0.2939
43259W        W86176  10.721  16.599  23.549  0.0310  0.0745  0.0061
43260W        W86177  11.425  15.538  26.878  0.0379  0.0860 -0.1207
43261W        W86178   7.822  18.060  27.183  0.0917 -0.1056  0.1596
43262W        W86179   8.300  15.242  24.294 -0.0530  0.0607  0.0674
43263W        W86180   9.923  19.048  24.312 -0.1773  0.3132  0.1399
43264W        W86181  11.280  18.309  23.851 -0.0013 -0.2604  0.0517
43265W        W86182  11.316  19.004  25.692 -0.1916 -0.0489  0.0048
43266W        W86183  10.318  15.606  24.947  0.0218 -0.1911 -0.0525
43267W        W86184   8.871  17.753  28.821 -0.0724 -0.2869 -0.2576
43268W        W86185   8.764  16.777  27.538  0.0512  0.4681 -0.0614
43269W        W86186   9.416  13.768  24.557 -0.1229  0.0649  0.0272
43270W        W86187  11.358  16.539  24.338 -0.0628 -0.1462 -0.0121
43271W        W86188   9.571  16.783  26.554  0.0278 -0.2919  0.0262
43272W        W86189   9.007  15.199  23.692  0.2379 -0.0885 -0.1198
43273W        W86190  10.327  15.462  26.211  0.1793 -0.0548 -0.1101
43274W        W86191   9.393  15.968  26.880 -0.0086  0.2221  0.0957
43275W        W86192  10.544  17.568  23.558  0.0677  0.2697  0.0776
43276W        W86193  11.226  14.970  25.594 -0.3551 -0.1899  0.2554
43277W        W86194  12.839  13.580  27.665  0.0734  0.1036 -0.0895
43278W        W86195   7.777  17.835  21.479  0.1328 -0.0893 -0.1685
43279W        W86196   9.134  16.049  21.334 -0.1851  0.2859  0.1923
43280W        W86197  10.621  15.945  24.171  0.1211  0.3466  0.3821
43281W        W86198  10.987  16.813  24.589  0.2847 -0.0373 -0.0680
43282W        W86199   8.878  17.488  26.427 -0.1600 -0.1207  0.2593
43283W        W86200   8.553  15.520  27.092  0.2202 -0.1397 -0.0484
43284W        W86201   8.720  15.895  28.352  0.0971 -0.4028  0.0720
43285W        W86202   6.599  17.161  23.571  0.0620 -0.1221 -0.4990
43286W        W86203   8.330  15.597  26.572  0.0635  0.2796 -0.0708
43287W        W86204   7.457  15.581  24.109 -0.0216  0.2960 -0.0470
43288W        W86205   8.842  14.450  25.344  0.1034  0.3601  0.1441
43289W        W86206   9.887  15.603  28.246  0.1969  0.2223  0.2783
43290W        W86207  11.545  15.922  25.446  0.0236  0.1436 -0.1359
43291W        W86208   8.333  13.526  25.216  0.2541  0.0726 -0.2746
43292W        W86209  11.458  13.297  27.116  0.0442  0.0776 -0.1796
43293W        W86210  11.317  15.057  24.864 -0.1708 -0.1151 -0.1187
43294W        W86211  11.675  19.767  25.691 -0.0018  0.3065  0.3242
43295W        W86212  11.940  15.900  24.928 -0.3811  0.0927 -0.0313
43296W        W86213  10.988  19.069  23.491 -0.2980 -0.1156  0.0396
43297W        W86214   8.824  15.727  26.499  0.0425 -0.0686  0.0777
43298W        W86215   8.086  15.330  25.292 -0.0453  0.3093 -0.0417
43299W        W86216   8.874  14.347  27.009 -0.0270  0.0797  0.0664
43300W        W86217   8.056  14.698  26.059 -0.4713  0.2473 -0.0158
43301W        W86218  11.338  15.589  28.123 -0.1325  0.0310  0.1066
43302W        W86219   8.643  13.742  24.019 -0.0098  0.1843  0.2208
43303W        W86220  10.159  14.898  24.071 -0.0974 -0.3413  0.3281
43304W        W86221   7.968  15.480  25.781 -0.0421 -0.0103 -0.1804
43305W        W86222   6.926  16.784  24.952  0.0454 -0.2050 -0.1579
43306W        W86223  11.161  14.800  27.304 -0.0953  0.0855  0.0361
43307W        W86224   9.194  18.217  25.380  0.0607 -0.2656  0.2983
43308W        W86225  11.117  18.808  28.031  0.0754  0.2540 -0.1022
43309W        W86226  11.202  17.947  26.160 -0.2268 -0.2519 -0.2916
43310W        W86227   7.680  14.634  26.479  0.1175 -0.1354 -0.1352
43311W        W86228   9.940  15.167  24.446  0.2081  0.2295 -0.1581
43312W        W86229   7.281  17.691  23.896 -0.0811  0.1436  0.2437
43313W        W86230  11.080  16.437  25.858 -0.0628 -0.2204  0.2390
43314W        W86231  10.479  16.518  22.734 -0.1000  0.0044 -0.0629
43315W        W86232  11.335  16.059  26.057  0.1763 -0.2217  0.4119
43316W        W86233   9.392  16.893  25.756 -0.1950 -0.0729  0.0201
43317W        W86234   7.249  16.953  27.485 -0.2810 -0.1255 -0.2103
43318W        W86235  10.171  14.228  27.418 -0.0291 -0.0736 -0.0494
43319W        W86236  13.058  15.521  25.850 -0.0691  0.0370  0.0010
43320W        W86237   9.367  15.145  28.014  0.0252  0.0297  0.0255
43321W        W86238   8.698  16.106  23.611  0.1180  0.1684 -0.3529
43322W        W86239   8.136  17.343  25.099 -0.0399 -0.2660 -0.1235
43323W        W86240   7.710  17.006  24.331  0.4714  0.1825  0.3121
43324W        W86241   7.236  13.176  25.972 -0.0950 -0.0584 -0.2182
43325W        W86242   8.853  17.016  24.993 -0.0697 -0.1426  0.2904
43326W        W86243  12.499  14.334  25.097  0.2579 -0.2315  0.2942
43327W        W86244   9.923  16.211  29.047 -0.2924  0.1735  0.2610
43328W        W86245  12.347  15.604  27.528 -0.0679  0.0059  0.2427
43329W        W86246   9.863  17.041  24.904  0.1707  0.1213  0.1112
43330W        W86247   7.227  19.867  27.412 -0.0552  0.1855  0.1212
43331W        W86248  10.529  15.085  24.296 -0.1966 -0.1736 -0.0714
43332W        W86249  10.824  17.124  23.501  0.1485  0.0834  0.1536
43333W        W86250  10.150  16.824  27.060  0.2725 -0.1491 -0.0168
43334W        W86251  11.031  17.689  23.888  0.3131  0.0423  0.1177
43335W        W86252  12.168  16.792  23.711  0.1466 -0.0998  0.1164
43336W        W86253   7.846  14.133  23.043 -0.2213 -0.0024 -0.4268
43337W        W86254   8.932  16.285  29.484 -0.1221 -0.2070 -0.1043
43338W        W86255  10.008  15.215  27.041  0.1801  0.1647  0.0381
43339W        W86256  10.620  15.356  28.646  0.0492 -0.0372 -0.0339
43340W        W86257  11.314  17.241  23.445  0.2552  0.3460  0.0940
43341W        W86258  10.495  17.115  24.977 -0.0329  0.0935 -0.1747
43342W        W86259   9.343  16.498  26.921  0.4267  0.2667 -0.2667
43343W        W86260  10.797  16.584  26.236  0.1137 -0.1462 -0.2325
43344W        W86261   8.472  18.201  27.572  0.2446 -0.0568 -0.0757
43345W        W86262  11.205  14.480  26.887  0.3746  0.4463 -0.1090
43346W        W86263   9.971  15.501  23.578 -0.0742  0.0856  0.0639
43347W        W86264  10.793  14.495  24.780  0.0336 -0.2925  0.1802
43348W        W86265   7.702  17.292  26.600 -0.0158 -0.1285  0.2574
43349W        W86266  10.297  14.547  25.577 -0.1556 -0.5142 -0.1664
43350W        W86267  10.969  15.374  26.603  0.0300  0.1094  0.2992
43351W        W86268   9.698  17.427  25.178  0.1215  0.1029 -0.0455
43352W        W86269  12.654  16.304  29.377  0.3609 -0.0782 -0.0655
43353W        W86270  10.878  17.245  23.971  0.0461  0.1662 -0.1574
43354W        W86271  11.492  15.239  27.350  0.1428  0.0601 -0.0902
43355W        W86272  10.021  15.958  24.797  0.3165  0.0918  0.0725
43356W        W86273  11.699  15.029  26.402  0.2672  0.2615  0.1242
43357W        W86274   9.178  14.971  26.651  0.2048 -0.2383 -0.1537
43358W        W86275   9.204  17.159  26.727  0.0251  0.0449 -0.0002
43359W        W86276  11.496  18.860  28.427 -0.2000  0.1377 -0.0146
43360W        W86277   9.756  17.570  24.098 -0.4325  0.0785 -0.1967
43361W        W86278   8.791  15.199  26.070 -0.0032  0.5239  0.0452
43362W        W86279  10.495  13.834  24.362 -0.1620 -0.3488 -0.1418
43363W        W86280   8.174  19.613  25.843 -0.1975  0.2289  0.0284
43364W        W86281   8.768  18.157  22.305  0.1431 -0.2219  0.2017
43365W        W86282  10.988  14.715  26.007 -0.0305 -0.1038 -0.2696
43366W        W86283  10.138  16.154  27.982  0.0982 -0.0742 -0.4603
43367W        W86284   8.080  17.555  21.187 -0.0151 -0.4285 -0.0848
43368W        W86285  11.756  16.849  25.288  0.2408 -0.1018 -0.2829
43369W        W86286   9.804  18.097  25.544  0.0520  0.2637 -0.0641
43370W        W86287  11.722  11.835  25.950  0.0004 -0.2398  0.2773
43371W        W86288   5.575  17.084  26.128  0.2363  0.1095 -0.0851
43372W        W86289   9.808  15.497  25.478  0.6475  0.3019 -0.0920
43373W        W86290   7.039  14.726  24.631  0.0359 -0.2700 -0.3546
43374W        W86291  10.501  16.697  24.759 -0.0271  0.3537  0.0868
43375W        W86292  10.288  16.280  24.445  0.0839 -0.0508 -0.0730
43376W        W86293   6.912  13.942  26.473  0.0817 -0.0461 -0.1394
43377W        W86294   9.408  13.873  26.805  0.0537  0.1283  0.3892
43378W        W86295   8.842  18.622  26.238 -0.0031  0.1806  0.2396
43379W        W86296  10.982  15.666  24.065  0.0203  0.4768  0.2650
43380W        W86297   9.091  14.963  24.489 -0.0005 -0.2240  0.0826
43381W        W86298  11.236  16.374  26.466  0.0060  0.2165 -0.0916
43382W        W86299   9.781  16.100  26.518 -0.0519 -0.0889  0.0178
43383W        W86300   8.471  14.838  25.071  0.1606 -0.0070 -0.0307
43384W        W86301  12.436  15.138  26.784  0.3348 -0.1940 -0.1767
43385W        W86302  10.837  16.657  25.131  0.0465 -0.0931  0.2556
43386W        W86303   7.337  17.046  25.240 -0.1079  0.0972  0.0061
43387W        W86304   8.500  16.615  26.525  0.3087 -0.0625 -0.1217
43388W        W86305   9.733  18.299  24.596 -0.1113  0.1652 -0.0939
43389W        W86306   8.513  16.501  26.050 -0.1056 -0.0652 -0.3178
43390W        W86307   9.313  14.808  27.157  0.1057  0.0242  0.0031
43391W        W86308   8.344  12.783  27.260 -0.2648 -0.1562  0.1718
43392W        W86309  10.361  14.419  26.504  0.1375 -0.1322 -0.5043
43393W        W86310   9.639  14.759  24.301  0.0159  0.1653 -0.0139
43394W        W86311  10.997  15.595  26.151  0.1766 -0.1130  0.1577
43395W        W86312  10.297  17.128  24.541 -0.2619 -0.2353 -0.0547
43396W        W86313  10.525  13.562  26.833 -0.2820  0.0535  0.1194
43397W        W86314   7.846  19.796  28.300  0.0172  0.0639  0.2537
43398W        W86315  10.553  15.672  23.684 -0.2101  0.1013  0.2105
43399W        W86316  10.523  18.755  23.586 -0.3950  0.3725 -0.1632
43400W        W86317  10.258  14.313  29.673 -0.0715 -0.1882  0.1896
43401W        W86318   9.764  15.569  24.841  0.0006 -0.2532  0.1422
43402W        W86319   9.188  16.519  24.901  0.0604 -0.1015  0.1155
43403W        W86320   7.640  19.316  23.250  0.2027  0.2666  0.4322
43404W        W86321  10.060  15.161  24.966  0.2230 -0.2889  0.0889
43405W        W86322  10.358  15.354  25.431  0.4278 -0.2472  0.1293
43406W        W86323   7.808  15.921  23.165  0.0075 -0.1116 -0.0684
43407W        W86324   8.526  17.116  26.246  0.0346 -0.0818 -0.2591
43408W        W86325   8.362  15.129  22.668 -0.0250 -0.0588  0.1557
43409W        W86326   9.688  16.977  25.370 -0.0070 -0.3450 -0.0109
43410W        W86327   9.676  14.011  23.742  0.0398 -0.1616 -0.0250
43411W        W86328   9.760  13.981  27.210 -0.0175 -0.0806 -0.0956
43412W        W86329  12.386  17.280  22.804 -0.1645 -0.0925 -0.2013
43413W        W86330  12.861  13.500  26.621 -0.3556  0.0945 -0.2075
43414W        W86331  11.272  12.613  25.852 -0.0592 -0.0624 -0.0775
43415W        W86332  10.219  17.443  23.997 -0.3398 -0.3411  0.1939
43416W        W86333   8.403  16.024  27.928  0.2314 -0.2120  0.2272
43417W        W86334   8.991  18.223  27.386 -0.1211  0.2513  0.1429
43418W        W86335   9.558  15.661  28.594 -0.1459  0.0307  0.0914
43419W        W86336  10.577  15.659  25.820 -0.2796 -0.0129 -0.0939
43420W        W86337  10.285  14.134  25.814  0.0671  0.0614  0.0564
43421W        W86338   8.297  15.080  26.863 -0.1216 -0.1173 -0.0857
43422W        W86339  11.732  16.652  26.469  0.0099 -0.1256 -0.2833
43423W        W86340   9.496  16.727  24.559  0.4699 -0.1918  0.0333
43424W        W86341  11.000  15.107  24.024 -0.0727 -0.0459 -0.1039
43425W        W86342  10.333  16.206  26.916 -0.0322 -0.0032  0.0506
43426W        W86343  10.966  14.977  24.517  0.1151 -0.0105 -0.0663
43427W        W86344   9.049  17.975  24.084 -0.2725 -0.0126  0.0918
43428W        W86345   7.397  20.259  25.823 -0.1244  0.3586 -0.0199
43429W        W86346  10.897  12.845  26.491 -0.2927  0.1660 -0.0502
43430W        W86347  12.099  16.071  25.529  0.0667 -0.1139  0.1233
43431W        W86348  10.612  15.506  23.126 -0.1578 -0.1016  0.0497
43432W        W86349   9.487  15.289  27.096  0.0479  0.0627 -0.1119
43433W        W86350  11.315  14.639  28.106 -0.0476 -0.2099 -0.0514
43434W        W86351  11.520  16.109  24.812  0.0332 -0.1529  0.0793
43435W        W86352   6.198  17.745  30.251  0.3011  0.1799  0.2609
43436W        W86353  10.560  17.596  26.500  0.0416 -0.0827  0.2914
43437W        W86354   8.952  17.027  22.936  0.0645 -0.1163  0.0757
43438W        W86355   9.711  14.961  27.418  0.1529  0.0143  0.2570
43439W        W86356  12.644  15.150  23.378  0.2372  0.1408 -0.1730
43440W        W86357  10.358  16.272  25.135  0.0982 -0.0046 -0.0042
43441W        W86358   8.675  13.390  28.131 -0.1412  0.0497 -0.1123
43442W        W86359   8.881  15.867  27.029 -0.0067  0.1424 -0.3288
43443W        W86360   9.363  17.017  24.162 -0.1148 -0.0179 -0.1291
43444W        W86361  11.774  14.602  26.774 -0.3211  0.1741 -0.1288
43445W        W86362   6.857  17.510  23.246 -0.0223  0.0471 -0.2497
43446W        W86363  10.588  17.611  24.751 -0.1711 -0.2196  0.1052
43447W        W86364  11.923  13.492  25.886  0.0675  0.1268 -0.0513
43448W        W86365   7.317  15.476  27.877 -0.1236  0.1753  0.2620
43449W        W86366   7.152  17.278  27.104  0.5467  0.1016 -0.0756
43450W        W86367   9.777  15.131  23.876  0.2290 -0.0369 -0.1315
43451W        W86368   8.368  17.670  22.739 -0.1565  0.3012  0.2091
43452W        W86369  10.610  14.511  27.059  0.1325  0.0715  0.2049
43453W        W86370  13.824  16.696  25.247  0.1444 -0.2329  0.3246
43454W        W86371  10.797  13.164  25.629 -0.0125 -0.0359 -0.4274
43455W        W86372   9.042  13.620  27.269 -0.0490 -0.0930  0.4321
43456W        W86373   9.056  16.548  25.955  0.0654  0.0333 -0.1113
43457W        W86374  11.418  12.795  26.327  0.0538 -0.0746  0.1223
43458W        W86375  10.374  17.932  28.560 -0.1022 -0.3219  0.0276
43459W        W86376   7.691  16.727  26.019  0.0932  0.1935 -0.0528
43460W        W86377  10.212  15.857  25.359 -0.1766  0.2113  0.1305
43461W        W86378  10.188  15.159  27.511 -0.0805  0.0338  0.0327
43462W        W86379  12.576  15.451  25.082 -0.0211  0.1006 -0.0300
43463W        W86380  10.618  14.568  27.625  0.3906  0.1681 -0.1067
43464W        W86381  11.485  15.508  26.358  0.0430 -0.1813 -0.0066
43465W        W86382  10.585  16.609  27.120 -0.0859 -0.1738  0.0612
43466W        W86383   9.551  15.035  25.786  0.0177 -0.0395 -0.1536
43467W        W86384  11.144  19.082  25.097  0.2159 -0.2062  0.0399
43468W        W86385  10.802  15.608  25.340  0.1551 -0.1019 -0.1338
43469W        W86386   9.159  15.482  26.787 -0.0078 -0.0486 -0.1043
43470W        W86387   7.078  16.093  27.188 -0.0676 -0.0464 -0.0902
43471W        W86388   9.460  14.646  27.703  0.4716 -0.0713 -0.2485
43472W        W86389   9.810  16.183  24.338 -0.3582 -0.1421  0.1218
43473W        W86390   7.414  13.155  24.466  0.1027 -0.1543 -0.0051
43474W        W86391   8.858  17.869  21.802  0.1235 -0.2182  0.1389
43475W        W86392   7.624  18.341  26.563 -0.0206 -0.0126  0.4244
43476W        W86393   7.236  15.946  29.216 -0.3816 -0.1064  0.0339
43477W        W86394   8.242  16.642  24.708 -0.1762  0.1418 -0.1038
43478W        W86395  10.369  17.113  23.717  0.1302  0.1219 -0.3810
43479W        W86396   9.728  15.711  24.357  0.0541  0.2089  0.1270
43480W        W86397  11.121  17.320  25.897  0.4015  0.0104 -0.0806
43481W        W86398   7.450  14.480  25.398  0.1560  0.1879  0.0569
43482W        W86399   8.837  17.521  26.909 -0.0803 -0.2284 -0.2891
43483W        W86400   8.682  17.066  26.718 -0.0423  0.1397 -0.2333
43484W        W86401  12.596  15.688  23.256 -0.2020  0.3191 -0.0448
43485W        W86402   8.475  18.404  26.546  0.0248  0.3632 -0.0863
43486W        W86403   9.563  16.063  28.225 -0.1229 -0.0334 -0.2057
43487W        W86404  11.278  16.799  23.663 -0.4261  0.1357  0.0434
43488W        W86405  11.035  17.504  25.038  0.0570 -0.3436 -0.1082
43489W        W86406  13.876  16.168  25.269 -0.0565  0.3403 -0.2875
43490W        W86407  11.803  17.137  26.310 -0.1794  0.1542  0.0342
43491W        W86408   9.791  18.865  26.003  0.1966 -0.1930 -0.0377
43492W        W86409  10.396  15.225  23.473 -0.0214  0.0663  0.0266
43493W        W86410   7.099  15.958  26.091 -0.1376 -0.2127 -0.0823
43494W        W86411  10.774  13.978  27.809  0.1287 -0.3945  0.2199
43495W        W86412   7.725  19.143  27.629  0.1898 -0.0815 -0.0333
43496W        W86413  12.235  17.416  21.836 -0.1183  0.3684  0.1174
43497W        W86414   6.802  13.054  26.254  0.0692 -0.1580 -0.1993
43498W        W86415   9.292  19.846  25.258 -0.1274 -0.1549  0.0977
43499W        W86416  11.207  14.481  25.572  0.0464 -0.2433 -0.0966
43500W        W86417   8.270  17.292  21.724 -0.3825 -0.0941  0.1136
43501W        W86418  10.840  13.811  25.958  0.3019 -0.0181  0.1600
43502W        W86419   8.090  17.884  24.944 -0.0684  0.0548  0.0512
43503W        W86420   8.948  18.122  27.890  0.2336 -0.0990  0.0627
43504W        W86421  10.767  17.639  26.014 -0.1372  0.0398 -0.1498
43505W        W86422   6.851  13.572  23.253 -0.3952 -0.3661  0.1066
43506W        W86423  13.171  16.345  23.861  0.1903 -0.3419 -0.3038
43507W        W86424  10.224  15.960  26.248 -0.1240  0.1301  0.3653
43508W        W86425  10.573  12.910  26.052  0.1381  0.1102 -0.1535
43509W        W86426  10.427  16.660  25.935 -0.1346 -0.0598 -0.1991
43510W        W86427  10.016  14.544  22.970  0.2503 -0.0517 -0.3723
43511W        W86428  11.722  15.645  24.448  0.1274 -0.2595  0.0194
43512W        W86429   9.814  15.285  27.870 -0.0853  0.0879 -0.2319
43513W        W86430  10.716  15.504  24.519  0.0028 -0.0225  0.0300
43514W        W86431  12.489  16.523  26.490  0.1806 -0.2754  0.3827
43515W        W86432  10.530  15.118  24.811 -0.2015 -0.0775  0.0324
43516W        W86433  10.132  17.255  27.819 -0.2041 -0.2321 -0.3158
43517W        W86434   8.162  13.877  24.877  0.4034  0.0763 -0.1201
43518W        W86435   9.603  14.821  23.160 -0.2316  0.1144  0.0396
43519W        W86436   9.833  18.380  26.043  0.0914  0.0121  0.1756
43520W        W86437   8.649  15.243  27.631  0.3274 -0.0583 -0.0636
43521W        W86438   9.446  18.099  26.392 -0.2910  0.1881  0.0013
43522W        W86439   8.767  14.808  25.754 -0.0087 -0.0611 -0.0633
43523W        W86440  13.207  16.102  24.803 -0.0183  0.1431  0.0322
43524W        W86441  12.525  17.738  25.662  0.1405 -0.3266 -0.3395
43525W        W86442   7.673  18.432  21.645 -0.5493 -0.1174  0.1027
43526W        W86443   8.242  14.660  24.228 -0.1194 -0.1419 -0.1242
43527W        W86444   9.657  17.867  25.960 -0.2935 -0.1821  0.0247
43528W        W86445   8.333  15.112  25.865 -0.0098  0.0348  0.1815
43529W        W86446   8.698  17.800  27.351  0.0687  0.0800  0.2093
43530W        W86447  10.674  18.117  25.091 -0.2328 -0.2656  0.2247
43531W        W86448  10.024  13.844  23.380 -0.0361  0.3375 -0.1144
43532W        W86449  10.641  14.971  27.344  0.1700 -0.3493 -0.3689
43533W        W86450   8.584  16.484  24.442  0.0607 -0.1029  0.0485
43534W        W86451  12.149  16.753  26.193 -0.1343 -0.2808 -0.0968
43535W        W86452  11.756  14.315  25.791  0.0202 -0.0267 -0.0326
43536W        W86453   9.681  17.539  24.691 -0.1535 -0.0296  0.5333
43537W        W86454  12.657  14.119  25.974  0.0023 -0.3012 -0.0120
43538W        W86455  10.266  18.171  27.040  0.1817 -0.0718  0.0099
43539W        W86456   9.526  19.056  28.653 -0.5243 -0.1903 -0.0964
43540W        W86457   9.149  16.542  24.229  0.2403  0.0474  0.0127
43541W        W86458   9.706  15.575  26.738 -0.0866 -0.0054  0.0212
43542W        W86459  10.968  18.602  24.262 -0.1310  0.0520  0.2280
43543W        W86460   8.777  19.323  23.512 -0.1143  0.0891 -0.0639
43544W        W86461   8.800  17.849  24.599  0.1951  0.0610  0.2684
43545W        W86462   9.994  14.339  26.198  0.0097  0.0844  0.0740
43546W        W86463  10.596  17.595  25.318  0.0944  0.1267  0.1212
43547W        W86464   9.222  14.634  25.683 -0.1093 -0.0771  0.0587
43548W        W86465  10.164  14.666  24.472  0.0634  0.3301  0.0436
43549W        W86466  10.662  15.934  24.758  0.2150 -0.0017  0.1477
43550W        W86467   9.608  16.374  27.326 -0.1583 -0.1508  0.1936
43551W        W86468  10.214  13.408  24.185  0.0348 -0.1066  0.0399
43552W        W86469  10.444  16.864  25.468 -0.2351 -0.1577 -0.2368
43553W        W86470   9.629  16.571  25.074 -0.1190  0.1866  0.4417
43554W        W86471  10.918  14.960  27.773 -0.2362 -0.4005  0.0752
43555W        W86472   8.462  13.947  27.008  0.0012  0.0370  0.0056
43556W        W86473   9.321  18.262  25.897  0.0013 -0.0074  0.0725
43557W        W86474   9.942  14.024  22.954  0.2271  0.0209 -0.0204
43558W        W86475  11.065  19.838  24.042  0.3146  0.1188  0.0310
43559W        W86476   8.147  14.608  27.888  0.0645  0.1142 -0.0147
43560W        W86477   7.246  14.784  24.092  0.0385  0.2758  0.2359
43561W        W86478   9.365  17.749  25.601  0.1941 -0.2529 -0.0428
43562W        W86479  10.781  18.064  23.639 -0.2003  0.1582 -0.0813
43563W        W86480   9.400  13.777  25.420  0.0411 -0.1645 -0.1989
43564W        W86481  11.487  17.320  25.382  0.1962  0.0663  0.0439
43565W        W86482   5.232  15.752  23.551  0.0273  0.1164  0.0210
43566W        W86483  10.986  15.790  27.022 -0.1473  0.3274 -0.3164
43567W        W86484   8.661  13.943  25.006  0.2386  0.1328 -0.3115
43568W        W86485   6.093  15.595  24.429 -0.2626 -0.0908  0.1097
43569W        W86486  10.072  14.942  25.428 -0.0138  0.1404 -0.4262
43570W        W86487   8.617  18.126  22.768  0.1889 -0.5561  0.0767
43571W        W86488  10.619  17.411  23.070 -0.2590  0.0539  0.2652
43572W        W86489  11.450  19.980  28.352 -0.2161  0.1262  0.2450
43573W        W86490  10.741  17.837  27.052 -0.2438  0.3723  0.0151
43574W        W86491   8.716  13.296  26.919  0.0200 -0.1735  0.1081
43575W        W86492  10.928  15.326  25.747  0.1201  0.2724 -0.3384
43576W        W86493   8.984  18.972  25.844  0.3489  0.0718  0.3716
43577W        W86494  11.149  18.971  23.970 -0.0745  0.1949  0.3069
43578W        W86495  11.273  14.446  24.548  0.1513 -0.2073 -0.2478
43579W        W86496  10.702  17.849  24.190  0.4832 -0.1388  0.1673
43580W        W86497   9.750  14.528  25.751 -0.1593  0.2414  0.0269
43581W        W86498   9.782  17.382  28.219  0.1006 -0.0157  0.2020
43582W        W86499  12.583  15.001  26.255 -0.1171  0.1972  0.3161
43583W        W86500  10.532  13.833  24.881  0.0419  0.1539 -0.0904
43584W        W86501  10.304  15.198  22.457  0.0023 -0.1303  0.2024
43585W        W86502   9.268  17.393  26.114  0.0245  0.0947 -0.1007
43586W        W86503   8.363  17.417  26.569  0.0425  0.2287 -0.2378
43587W        W86504   8.457  14.142  25.436 -0.4320 -0.3106 -0.0431
43588W        W86505  11.383  14.996  26.914  0.0811 -0.1422 -0.3259
43589W        W86506   9.771  16.101  26.008 -0.1602 -0.1989  0.3036
43590W        W86507  11.152  15.433  27.669 -0.0757  0.2030 -0.0311
43591W        W86508   9.270  16.057  25.866  0.2136 -0.2687 -0.1624
43592W        W86509  11.156  18.092  24.291 -0.1603  0.1174 -0.0342
43593W        W86510  10.157  19.121  24.734  0.2527  0.0364  0.2055
43594W        W86511  11.153  16.885  28.882 -0.2072  0.2112 -0.0099
43595W        W86512   8.360  17.993  27.048 -0.1160 -0.2828 -0.0580
43596W        W86513  11.049  15.925  25.688  0.0149 -0.0208  0.0583
43597W        W86514   5.175  15.229  28.775  0.2884  0.0277 -0.0244
43598W        W86515   9.878  17.082  23.889 -0.2190 -0.1101 -0.0646
43599W        W86516   7.942  16.349  25.329 -0.0968 -0.2478 -0.4516
43600W        W86517  10.645  15.801  26.654 -0.0588 -0.0201  0.0679
43601W        W86518   9.632  14.640  26.342 -0.1124  0.1550  0.1528
43602W        W86519  11.193  15.433  24.455 -0.3043 -0.1962 -0.0596
43603W        W86520   8.459  18.787  25.995  0.0134 -0.2097 -0.4787
43604W        W86521  10.059  17.274  26.767  0.0845 -0.0993 -0.0719
43605W        W86522  11.394  17.959  31.127  0.0173 -0.0618 -0.0533
43606W        W86523   8.166  14.415  27.459  0.2145 -0.1935 -0.0844
43607W        W86524   9.094  15.050  27.594  0.0211  0.0957  0.1418
43608W        W86525  11.862  17.728  28.289 -0.0589  0.1499 -0.3944
43609W        W86526   6.750  14.007  29.260 -0.0978 -0.2769  0.2669
43610W        W86527   9.775  15.339  29.110  0.0270 -0.1746 -0.0477
43611W        W86528   9.098  12.140  31.829 -0.0738 -0.0715  0.1838
43612W        W86529   9.200  18.348  30.115 -0.2861 -0.1016 -0.1470
43613W        W86530  10.707  17.640  30.264  0.1423  0.0707  0.1186
43614W        W86531   9.906  16.045  27.108 -0.2321  0.0397  0.0749
43615W        W86532   9.809  15.693  30.089  0.3635  0.1666  0.1982
43616W        W86533  10.442  19.037  28.256 -0.1900  0.2385  0.1383
43617W        W86534   8.863  13.936  30.170  0.2372 -0.0334 -0.1473
43618W        W86535   7.394  15.668  30.244 -0.0648 -0.1453  0.2333
43619W        W86536  10.822  16.265  29.645 -0.1630  0.0026  0.2132
43620W        W86537  10.010  16.916  25.778  0.0956 -0.2408 -0.2076
43621W        W86538   7.811  15.888  28.625  0.1721  0.0278  0.2202
43622W        W86539   9.116  17.323  27.329 -0.0194  0.1192  0.2005
43623W        W86540  10.915  17.457  27.364 -0.0077 -0.1468 -0.0926
43624W        W86541  10.095  15.386  30.772  0.4546 -0.0333  0.1883
43625W        W86542  10.128  17.879   0.331  0.2005 -0.1067 -0.2323
43626W        W86543   8.823  18.547  27.695  0.0073 -0.1890 -0.2414
43627W        W86544   9.721  15.879  27.808 -0.1659 -0.0037 -0.0171
43628W        W86545   7.660  15.825  29.814 -0.2156 -0.2524  0.0290
43629W        W86546  10.150  16.526  28.737 -0.1054 -0.0183 -0.0100
43630W        W86547  10.071  16.396  27.468 -0.1344  0.0247 -0.2709
43631W        W86548  11.065  16.567  27.118  0.0130  0.0350  0.2799
43632W        W86549   9.861  18.411  30.771  0.1271  0.0834 -0.2068
43633W        W86550  10.470  17.640  29.325 -0.1171 -0.0495 -0.0851
43634W        W86551  10.243  15.234  28.316 -0.3304  0.1014 -0.1910
43635W        W86552   9.340  18.072  28.432 -0.2855 -0.0034 -0.0966
43636W        W86553   8.403  17.046  29.206 -0.3046 -0.3079  0.0560
43637W        W86554   8.411  16.086  30.259 -0.1401 -0.2915  0.0846
43638W        W86555  11.080  16.317  27.539 -0.1336  0.1010  0.0320
43639W        W86556  12.042  16.394  28.019  0.0540 -0.0737  0.0346
43640W        W86557   8.692  18.377  30.083  0.0470  0.2542 -0.2079
43641W        W86558   7.960  18.079  28.377  0.2101  0.1238  0.1319
43642W        W86559  10.783  18.925  30.431 -0.1062  0.1363  0.1206
43643W        W86560   9.352  17.839  29.690  0.0198 -0.0971  0.3876
43644W        W86561  10.336  16.852  30.141  0.0334  0.3086 -0.0656
43645W        W86562  10.731  14.959  28.992  0.0035  0.1216 -0.2966
43646W        W86563   7.369  16.628  28.990 -0.0449  0.0845 -0.1571
43647W        W86564  10.346  15.286  29.189  0.0772  0.0085  0.1536
43648W        W86565  10.310  17.389  30.078  0.0817  0.1864 -0.0825
43649W        W86566   9.386  18.158  30.806 -0.0304  0.0792 -0.0359
43650W        W86567   7.913  15.440  29.472 -0.1005 -0.1236 -0.0194
43651W        W86568   8.561  16.682  28.003 -0.3094  0.2324 -0.1300
43652W        W86569  10.627  17.525  27.849 -0.5904 -0.0251 -0.0541
43653W        W86570   7.778  15.120  27.145  0.0526 -0.0020  0.0552
43654W        W86571  12.047  14.669  27.657 -0.0187  0.0713 -0.3769
43655W        W86572   7.720  15.831  29.193 -0.2090  0.3512 -0.1276
43656W        W86573   9.855  18.345  27.345  0.0024 -0.0324 -0.0392
43657W        W86574   9.096  14.913  28.870  0.1510  0.0466  0.0802
43658W        W86575   9.209  17.157  30.644  0.3736  0.1930 -0.1469
43659W        W86576  10.793  15.508  28.131  0.1449  0.2056  0.0640
43660W        W86577   9.715  15.780  30.555 -0.0263 -0.1021  0.1174
43661W        W86578  11.035  17.073  27.054  0.2772  0.0468 -0.2307
43662W        W86579   9.005  14.060  29.035  0.4232  0.1243  0.0687
43663W        W86580   9.823  16.460  26.882 -0.0596  0.3830 -0.3479
43664W        W86581  11.014  15.036  29.765  0.2376  0.0266  0.0168
43665W        W86582  10.494  17.974  28.035  0.2153 -0.3002  0.1861
43666W        W86583   7.974  13.340  28.054 -0.2349  0.1285 -0.0650
43667W        W86584   7.661  16.593  31.738 -0.3348 -0.1529  0.1046
43668W        W86585   7.505  14.656  31.718 -0.1916  0.0315 -0.1766
43669W        W86586  11.058  14.422  27.783 -0.1213  0.2315 -0.0721
43670W        W86587  11.085  17.586  28.646 -0.0024 -0.0110 -0.2777
43671W        W86588   8.881  17.460  31.593  0.0784 -0.1549  0.1036
43672W        W86589  11.576  14.407  27.198  0.0385  0.2665  0.0543
43673W        W86590   9.263  14.259  27.856 -0.2208 -0.0851  0.0474
43674W        W86591  11.673  19.192  30.378  0.0320  0.1951 -0.1476
43675W        W86592  10.090  15.458  28.752 -0.2575  0.0993 -0.0261
43676W        W86593  10.788  13.491  28.559  0.0309  0.1696  0.1934
43677W        W86594   9.963  14.430  29.282 -0.0106  0.1999  0.0939
43678W        W86595   7.460  16.942  28.295  0.2078  0.3220 -0.0846
43679W        W86596   8.642  18.644  28.760 -0.1992 -0.0781 -0.2902
43680W        W86597  11.013  19.115  30.889 -0.1677 -0.1497  0.2870
43681W        W86598  10.651  16.328  25.553  0.2636  0.1012 -0.0657
43682W        W86599   7.442  16.735  30.119  0.5221  0.0488  0.2005
43683W        W86600  10.183  17.064  28.794 -0.1691  0.1709  0.1295
43684W        W86601   9.524  16.314  29.494 -0.0685  0.1395  0.0410
43685W        W86602   7.584  19.196  27.042 -0.1338  0.0155 -0.0433
43686W        W86603   6.885  17.984  28.553  0.0076 -0.0558 -0.0763
43687W        W86604   8.897  17.853  28.318 -0.0202  0.0125 -0.2501
43688W        W86605   8.167  16.178  28.849 -0.1374  0.3667 -0.2522
43689W        W86606   8.913  17.959  30.270 -0.2237 -0.1701  0.0543
43690W        W86607  11.505  13.182  28.161  0.0840 -0.1115 -0.1214
43691W        W86608   9.286  16.750  29.307 -0.0628 -0.1184 -0.0106
43692W        W86609   9.100  14.582  29.221 -0.3240  0.1208  0.0038
43693W        W86610   7.226  15.486  27.030  0.0749  0.1852 -0.0393
43694W        W86611  11.544  17.096  26.823 -0.1915  0.3298  0.0619
43695W        W86612  11.515  16.636  26.888 -0.0729 -0.0697 -0.1151
43696W        W86613  10.876  15.904  28.681  0.0367 -0.1728 -0.2168
43697W        W86614   9.027  14.460  29.693  0.0847  0.1566  0.1133
43698W        W86615   9.290  12.617  29.753  0.1571  0.1177  0.0369
43699W        W86616   9.229  15.423  31.476 -0.0804  0.1457 -0.0660
43700W        W86617   7.353  15.123  30.286  0.1610  0.0762  0.1480
43701W        W86618  10.487  17.798  31.900  0.3214  0.1166  0.4307
43702W        W86619   8.103  15.404  29.983  0.0030  0.1472  0.3308
43703W        W86620  11.127  14.073  28.602  0.4860  0.1973 -0.1151
43704W        W86621   9.942  16.018  28.575 -0.0431 -0.1180  0.1637
43705W        W86622   9.291  17.171  29.099  0.1200 -0.4090  0.0884
43706W        W86623  11.104  14.882  30.817 -0.4006 -0.1141  0.1820
43707W        W86624  11.235  18.735  27.451  0.1282  0.0772 -0.0906
43708W        W86625   9.553  17.124  31.048  0.2731 -0.2089  0.1429
43709W        W86626  10.828  16.936  25.818  0.0026  0.1769 -0.1383
43710W        W86627   7.853  14.861  30.566 -0.3051  0.1415  0.0148
43711W        W86628   6.357  13.884  26.309 -0.2150 -0.2210 -0.1351
43712W        W86629   8.422  17.960  28.691  0.1277  0.1053 -0.0411
43713W        W86630  10.497  15.352  26.823 -0.1674 -0.1673  0.0407
43714W        W86631   8.780  14.435  27.961  0.1769 -0.1475 -0.1595
43715W        W86632  12.779  17.153  29.038  0.1411 -0.1325 -0.1325
43716W        W86633  10.790  16.109  28.232  0.1746 -0.0475 -0.0809
43717W        W86634   8.981  18.447  30.622  0.0050  0.0610  0.1345
43718W        W86635   9.529  14.686  30.823  0.0382 -0.1237 -0.0485
43719W        W86636   9.889  17.930  30.685 -0.1155  0.3507  0.2627
43720W        W86637  10.624  14.782  29.488 -0.0911 -0.1478 -0.1449
43721W        W86638   8.776  16.060  25.735 -0.0267  0.1002 -0.2830
43722W        W86639  10.690  18.289  28.416  0.3378 -0.1264 -0.1065
43723W        W86640   7.561  16.428  28.471 -0.4029 -0.1760 -0.1337
43724W        W86641   9.238  16.019  27.860  0.0182 -0.0089 -0.0174
43725W        W86642   9.819  18.228  28.867  0.0486 -0.1673 -0.0152
43726W        W86643  13.054  14.960  27.447  0.1788  0.2604  0.1738
43727W        W86644   7.934  17.375  30.046  0.0232 -0.2956  0.1061
43728W        W86645   8.582  14.994  31.544  0.1449  0.2799 -0.0335
43729W        W86646   6.745  15.382  27.141  0.0441 -0.1318 -0.1004
43730W        W86647   7.585  17.383  31.170  0.3573  0.2053  0.2498
43731W        W86648   9.453  14.699  28.538 -0.2173  0.1181  0.2053
43732W        W86649  10.011  14.897  29.366 -0.0060 -0.1652  0.1160
43733W        W86650  10.271  17.546  28.889  0.3867  0.2749 -0.0791
43734W        W86651  11.550  17.667  29.451  0.2763  0.1791  0.0438
43735W        W86652  10.800  14.436  28.854 -0.1601 -0.1615  0.0626
43736W        W86653   9.312  15.898  27.371 -0.0831  0.2348  0.0233
43737W        W86654   8.241  15.641  31.684  0.1594  0.2180  0.0172
43738W        W86655  12.668  17.319  27.767 -0.0624  0.1259 -0.0521
43739W        W86656  10.170  16.705  29.248  0.1623  0.1905  0.0183
43740W        W86657   8.796  14.036  27.460  0.0321 -0.4697  0.0722
43741W        W86658  11.122  15.854  26.525 -0.2321 -0.1850 -0.1849
43742W        W86659   9.084  17.956  31.262  0.2457  0.0307  0.0797
43743W        W86660  10.621  18.327  29.470 -0.2773 -0.1234  0.3900
43744W        W86661  10.986  16.556  27.982 -0.1698 -0.0034 -0.2888
43745W        W86662   8.908  17.934  30.790  0.2799  0.2039  0.2336
43746W        W86663   8.426  13.128  27.599 -0.0847  0.1328  0.0831
43747W        W86664   8.695  12.586  28.371 -0.0450 -0.3086 -0.0972
43748W        W86665   7.964  17.949  26.708  0.3159  0.0123  0.0479
43749W        W86666   9.235  14.792  30.294  0.1126 -0.2457  0.2333
43750W        W86667   9.216  13.461  30.045  0.1016  0.2175  0.0619
43751W        W86668   9.409  14.835   0.110  0.0383  0.0959  0.1474
43752W        W86669  10.803  13.706  29.339  0.1841  0.0061 -0.1794
43753W        W86670  12.498  15.838  27.999 -0.1777 -0.1827 -0.0633
43754W        W86671  10.720  16.523  30.192  0.0513  0.4288 -0.0021
43755W        W86672   8.822  16.292  27.928 -0.3025 -0.0018 -0.2120
43756W        W86673  10.564  15.755  29.084 -0.0672 -0.0477 -0.2355
43757W        W86674   8.544  17.293  31.054  0.0455 -0.0475 -0.1756
43758W        W86675   8.427  18.771  29.969  0.2088  0.0397 -0.0527
43759W        W86676  10.274  16.394  30.425  0.0752 -0.5099  0.0951
43760W        W86677  11.372  16.091  26.934  0.1330 -0.1975  0.0818
43761W        W86678  10.851  16.322  31.102  0.1607  0.0627  0.0618
43762W        W86679   7.760  15.149  27.784  0.1944 -0.0790 -0.2463
43763W        W86680   8.861  16.746  29.106  0.0183 -0.2796  0.4159
43764W        W86681   9.713  18.714  27.008 -0.0008  0.1668 -0.2202
43765W        W86682   9.352  14.933  29.788 -0.0780 -0.0711 -0.2756
43766W        W86683   8.851  18.516  29.215  0.1818  0.1204  0.0340
43767W        W86684   8.483  19.079  26.988  0.1453 -0.4018  0.0357
43768W        W86685  11.628  16.845  31.138 -0.2377 -0.1019  0.3390
43769W        W86686   8.402  19.466  29.194 -0.3009 -0.0304 -0.2605
43770W        W86687   8.437  13.690  29.896 -0.1014 -0.3071  0.0470
43771W        W86688   7.488  18.052  29.299 -0.0950 -0.0528 -0.0036
43772W        W86689   9.401  16.593  28.339  0.0284  0.2648  0.0631
43773W        W86690   9.554  15.189  28.688 -0.1711 -0.1343 -0.0887
43774W        W86691  11.676  14.015  28.580  0.3118 -0.0713 -0.1579
43775W        W86692   9.312  16.823  27.395 -0.2155 -0.3272 -0.2126
43776W        W86693   8.506  15.427  29.541 -0.1706 -0.2855  0.0527
43777W        W86694   7.057  14.992  29.849  0.1989  0.1045  0.2363
43778W        W86695   8.391  17.982  30.391 -0.0807  0.0858  0.0754
43779W        W86696  10.768  15.942  30.098 -0.2787  0.0818 -0.2820
43780W        W86697   9.531  14.154  28.548  0.0118  0.0406 -0.1037
43781W        W86698   8.649  16.368  28.786 -0.2131  0.1001 -0.0534
43782W        W86699   9.655  16.226  31.194 -0.1798  0.0698 -0.0533
43783W        W86700   6.524  15.291  28.673 -0.0829 -0.0204  0.2099
43784W        W86701  11.215  13.159  28.538  0.1631  0.1915 -0.2627
43785W        W86702   7.978  15.269  31.449 -0.1952 -0.3903 -0.0732
43786W        W86703   8.514  17.558  29.093  0.1505  0.1906  0.0790
43787W        W86704   9.715  17.484  27.616 -0.1306  0.0332 -0.1923
43788W        W86705   9.243  15.331  26.274 -0.1637  0.1109 -0.2289
43789W        W86706   8.871  17.120  29.436  0.0740 -0.0722  0.0146
43790W        W86707   8.644  15.644  30.266  0.1296 -0.0584 -0.1913
43791W        W86708  10.591  15.500  30.457 -0.1858  0.0796 -0.2157
43792W        W86709  10.837  17.160  26.321 -0.0904  0.0129 -0.0771
43793W        W86710   8.413  14.524  27.071  0.2942 -0.1279 -0.0905
43794W        W86711   8.211  15.103  27.960 -0.0466 -0.3540 -0.0813
43795W        W86712  12.846  14.477  29.151  0.1292 -0.2525  0.0639
43796W        W86713  11.593  16.365  30.933 -0.0302 -0.1433  0.1522
43797W        W86714   9.363  17.411  31.912 -0.2150  0.0462 -0.0175
43798W        W86715   8.824  15.620  31.048 -0.1257 -0.1486  0.0094
43799W        W86716   9.757  15.555  26.267  0.2737 -0.4195  0.1438
43800W        W86717  10.382  16.242  29.865  0.0690  0.0094  0.1564
43801W        W86718   9.043  14.544  27.501  0.3577  0.2304  0.1609
43802W        W86719   7.593  16.267  29.459  0.0327  0.0086 -0.2902
43803W        W86720   9.606  16.959  27.029 -0.2359  0.2445  0.0417
43804W        W86721   9.734  16.702  28.998  0.1069 -0.3169 -0.1965
43805W        W86722   8.964  16.768  29.749  0.2113  0.0311 -0.3955
43806W        W86723   7.942  15.766  30.261 -0.0858  0.3826  0.1423
43807W        W86724   8.128  16.014  30.672  0.3136 -0.1389 -0.1407
43808W        W86725  11.368  14.713  29.657 -0.4867 -0.0966 -0.1602
43809W        W86726  10.177  18.519  29.342 -0.3038  0.1806  0.2268
43810W        W86727   9.663  14.433  28.150  0.0810 -0.0569 -0.1036
43811W        W86728  10.069  13.837  30.695 -0.0435 -0.0236 -0.0026
43812W        W86729  14.136  15.344  27.203 -0.1743 -0.1150 -0.1028
43813W        W86730  10.446  15.050   0.471  0.1327  0.0344 -0.3232
43814W        W86731   8.239  14.456  29.592  0.1029  0.0707 -0.2728
43815W        W86732  11.346  17.961  28.955  0.2801 -0.2443  0.0180
43816W        W86733   7.075  15.945  29.952 -0.1075  0.1373  0.0247
43817W        W86734  10.148  17.424   0.124 -0.1076  0.0492  0.1964
43818W        W86735   8.797  17.444  30.498  0.1013 -0.1183 -0.1180
43819W        W86736   7.964  15.743  28.105  0.2032  0.0808  0.2059
43820W        W86737   8.055  14.144  26.797 -0.2658 -0.4425 -0.3633
43821W        W86738   9.551  17.475  27.127  0.2925 -0.0258 -0.0127
43822W        W86739  11.561  18.092  29.705 -0.1144  0.5234 -0.2647
43823W        W86740   9.010  15.418  27.294  0.1739 -0.1658 -0.2922
43824W        W86741  11.355  16.416  28.859 -0.2967 -0.3099 -0.1127
43825W        W86742   9.299  16.039  30.738  0.1294 -0.2986  0.1679
43826W        W86743  10.424  14.946  27.936  0.2322 -0.0182  0.2319
43827W        W86744  10.551  17.232  26.985 -0.3264 -0.2627 -0.2198
43828W        W86745   8.679  17.183  27.219 -0.0004  0.1996 -0.1840
43829W        W86746   7.716  14.746  31.065  0.1616 -0.2040 -0.0147
43830W        W86747  10.034  16.532  29.669  0.0696 -0.2496 -0.1181
43831W        W86748   7.833  14.652  26.918  0.1218 -0.1815 -0.0320
43832W        W86749  11.899  16.493  31.437 -0.5036 -0.1657  0.1695
43833W        W86750   9.765  17.361  28.970  0.2991 -0.2046 -0.1100
43834W        W86751   9.912  17.761  28.624 -0.5064  0.1041 -0.0686
43835W        W86752   6.990  13.830  31.795 -0.0726 -0.1741  0.1455
43836W        W86753  11.017  18.763  29.452 -0.2005 -0.0941 -0.2159
43837W        W86754  11.338  15.930  28.548 -0.2733  0.2254  0.0105
43838W        W86755  10.776  15.424  29.963  0.0856 -0.0855  0.1865
43839W        W86756  11.936  17.376  27.194 -0.1364  0.4998  0.2025
43840W        W86757  10.219  16.414  26.455  0.0177 -0.1178 -0.0234
43841W        W86758   9.067  15.205  28.407 -0.2232 -0.0269  0.1742
43842W        W86759   9.310  15.515  30.963 -0.0319  0.1460  0.1243
43843W        W86760   6.357  15.313  28.220 -0.2912  0.0411  0.0283
43844W        W86761  11.354  16.011  29.372 -0.1485  0.1287  0.0458
43845W        W86762   8.735  15.198  26.550  0.0163  0.0339  0.0576
43846W        W86763  11.326  16.706  27.662 -0.3975 -0.0831  0.3205
43847W        W86764  11.806  15.707  28.571  0.3180 -0.0898 -0.1862
43848W        W86765   8.869  15.565  27.913  0.0666 -0.4505 -0.1125
43849W        W86766   7.496  17.703  30.763  0.4722  0.0226  0.0533
43850W        W86767   6.710  14.059  28.288  0.2419  0.0299 -0.1706
43851W        W86768  11.111  15.491  28.584  0.4587  0.0166 -0.4015
43852W        W86769   9.516  17.515  29.361 -0.1428 -0.0633 -0.0539
43853W        W86770  11.404  17.667   0.486 -0.2002 -0.3919 -0.2353
43854W        W86771   8.610  14.130  26.581  0.0387 -0.0176 -0.1824
43855W        W86772   9.423  15.379  30.121 -0.5055 -0.1015 -0.2648
43856W        W86773   7.373  17.320  27.931  0.2627  0.0222 -0.0773
43857W        W86774  10.866  14.468  30.532  0.1419  0.1595  0.3250
43858W        W86775   9.439  16.739  29.987  0.0606 -0.1551 -0.0975
43859W        W86776   8.858  15.314  29.215 -0.1251 -0.3709 -0.2773
43860W        W86777   8.748  19.310  29.524  0.1001 -0.2245 -0.1941
43861W        W86778   8.098  14.736  29.079 -0.1255  0.1826 -0.0744
43862W        W86779  11.013  14.303  29.733 -0.0307 -0.1402 -0.4182
43863W        W86780   8.995  16.358  28.384  0.0146 -0.3797  0.1623
43864W        W86781  10.569  16.713  29.674  0.3323 -0.2463  0.1957
43865W        W86782   9.309  17.120  29.712  0.1771  0.1768 -0.1154
43866W        W86783  10.369  15.341  29.695 -0.2084 -0.1573 -0.3433
43867W        W86784   9.903  18.815  30.421 -0.2034 -0.0066  0.4512
43868W        W86785  12.694  17.680  26.772  0.1145  0.0988 -0.0632
43869W        W86786   9.700  17.017  28.593  0.0484 -0.2078  0.1172
43870W        W86787   6.678  13.828  31.293 -0.0497 -0.4533 -0.1759
43871W        W86788   9.008  16.829  30.249 -0.0661  0.3986 -0.2103
43872W        W86789  11.884  17.271  29.270  0.1281  0.1127  0.0726
43873W        W86790   7.904  13.822  30.533 -0.0065  0.0691  0.2744
43874W        W86791   7.885  18.960  28.058 -0.0476 -0.2598  0.0672
43875W        W86792   9.228  18.364  31.554 -0.1289 -0.0298 -0.2871
43876W        W86793   8.016  17.080  31.066 -0.0986  0.1715  0.3721
43877W        W86794   5.561  20.132  27.429 -0.5300  0.0578  0.1979
43878W        W86795  11.850  16.031  26.009  0.1626 -0.1319 -0.2598
43879W        W86796  11.133  15.689  29.075  0.0262  0.0993 -0.2425
43880W        W86797   9.629  18.115  29.353 -0.1073 -0.0479  0.1953
43881W        W86798  10.413  15.799  27.160  0.0770 -0.2141  0.1861
43882W        W86799  10.771  17.282  28.320  0.0599  0.1749 -0.0948
43883W        W86800   7.046  18.527  27.874  0.3245 -0.1129  0.4073
43884W        W86801   9.083  18.488  28.313 -0.2016  0.0803 -0.0211
43885W        W86802  10.764  17.956  27.599 -0.0561 -0.0951  0.1040
43886W        W86803  11.848  17.238  29.772 -0.0284 -0.1097 -0.0557
43887W        W86804  13.075  13.916  28.276 -0.1888  0.0230 -0.1216
43888W        W86805  12.086  16.435  29.106 -0.0788  0.0887 -0.0769
43889W        W86806  10.039  15.227  26.550 -0.0149 -0.0783 -0.3111
43890W        W86807  11.091  18.139  29.374  0.1426  0.0573  0.3185
43891W        W86808   9.034  15.406  30.478 -0.1927 -0.2351 -0.1837
43892W        W86809  10.610  13.361  29.015 -0.0205  0.0646 -0.3455
43893W        W86810   9.380  15.094  29.245  0.0297  0.0028  0.0034
43894W        W86811  11.370  14.446  30.574 -0.1258 -0.2311 -0.0768
43895W        W86812   7.773  18.308  28.823 -0.1609  0.4520  0.1377
43896W        W86813  11.286  15.835  27.390  0.0126 -0.2811 -0.0543
43897W        W86814   9.406  14.270  25.348 -0.2135  0.1205  0.1864
43898W        W86815   9.770  14.995  28.263  0.1634  0.0080  0.3205
43899W        W86816   8.408  15.030  29.821 -0.0164 -0.2430 -0.0820
43900W        W86817   9.132  15.214  25.675 -0.3445  0.2590  0.2093
43901W        W86818  10.085  14.776  29.821  0.0502 -0.1683  0.0259
43902W        W86819   9.360  18.749  31.866 -0.1028  0.3115 -0.0757
43903W        W86820  10.695  16.729  29.090  0.0140 -0.1300  0.1062
43904W        W86821   8.667  18.080  29.193 -0.2624 -0.1867 -0.1137
43905W        W86822   6.893  15.649  26.460 -0.0141 -0.0319 -0.2253
43906W        W86823  12.888  16.989  26.482  0.1924  0.5274  0.1648
43907W        W86824   7.714  17.225  30.664 -0.0667  0.1644 -0.0068
43908W        W86825   9.273  15.439  29.632 -0.3287  0.0815  0.0298
43909W        W86826   7.413  15.478  29.347 -0.0355  0.1324  0.3280
43910W        W86827   9.923  14.504  28.671 -0.1287 -0.1066  0.0475
43911W        W86828  11.652  16.019  28.203 -0.0472  0.0586 -0.0584
43912W        W86829   7.475  15.241  30.814  0.0607  0.0543 -0.0494
43913W        W86830   8.987  15.690  26.010  0.2881 -0.1247 -0.1750
43914W        W86831  11.050  17.589  29.289 -0.1501  0.0368  0.6009
43915W        W86832  10.345  14.845  26.766 -0.2370  0.0851  0.1038
43916W        W86833  11.176  18.917  28.986 -0.2368  0.1016 -0.1599
43917W        W86834  11.102  14.780  28.625 -0.1078  0.1592  0.5311
43918W        W86835  10.248  15.520  27.865  0.1040 -0.1460 -0.1537
43919W        W86836  10.449  16.424  28.313  0.0440 -0.0136  0.1058
43920W        W86837   8.256  15.234  29.177  0.1587 -0.0471  0.0357
43921W        W86838   9.934  18.224   0.740 -0.1547  0.1449  0.0853
43922W        W86839   5.934  15.679  28.246  0.1807  0.0581 -0.0287
43923W        W86840  11.429  17.672  27.383  0.1288 -0.0457  0.0384
43924W        W86841  12.413  13.298  27.582  0.1706 -0.1742 -0.2027
43925W        W86842   8.030  18.895  27.021 -0.2780  0.1288  0.4476
43926W        W86843  11.940  16.314  28.668  0.0243  0.0362  0.1909
43927W        W86844  11.142  17.664  27.777  0.0615 -0.1003 -0.3386
43928W        W86845   6.563  16.455  29.918  0.2321  0.0643 -0.1211
43929W        W86846  11.114  20.479  28.467  0.0863  0.4289 -0.3228
43930W        W86847  12.153  16.764  29.536 -0.1283  0.2004  0.3765
43931W        W86848  12.039  14.819  28.608  0.1908 -0.0928  0.1857
43932W        W86849   6.926  15.573  29.021 -0.1723  0.3186 -0.0644
43933W        W86850   8.679  15.895  28.926  0.4027 -0.0302 -0.2108
43934W        W86851  11.513  15.401  28.855  0.0701 -0.0547  0.0827
43935W        W86852  12.448  16.140  30.696  0.2589 -0.2554  0.0506
43936W        W86853   7.388  18.971  28.456  0.0168 -0.0651 -0.0455
43937W        W86854  11.726  15.354   0.020 -0.0174 -0.3358  0.0010
43938W        W86855  11.473  16.890  28.063 -0.0398 -0.0547 -0.1670
43939W        W86856   8.507  16.592  30.174  0.3866 -0.3981 -0.1766
43940W        W86857   8.394  15.961  26.907  0.0077  0.2154 -0.0369
43941W        W86858   8.900  16.169   0.167  0.0198 -0.1835  0.1467
43942W        W86859  10.388  14.399  28.509 -0.1020  0.0108 -0.1479
43943W        W86860  11.333  17.313  26.406 -0.2013 -0.0465  0.0619
43944W        W86861  10.353  18.592  28.046  0.0114 -0.1734 -0.0941
43945W        W86862   8.350  15.555  30.680  0.0940 -0.1612 -0.0959
43946W        W86863  12.599  15.874  28.496  0.1463  0.0972 -0.1253
43947W        W86864  10.367  14.934  31.256  0.0030 -0.3881  0.0172
43948W        W86865  12.528  14.404  27.488 -0.0476  0.0304 -0.2052
43949W        W86866  12.639  12.628  28.248  0.0811 -0.0719 -0.2184
43950W        W86867   8.726  14.927  30.533  0.1105 -0.2923 -0.3091
43951W        W86868   7.889  15.031  26.566  0.3185  0.0614 -0.0961
43952W        W86869   8.663  16.534  25.026  0.2601  0.2252  0.2635
43953W        W86870   8.416  16.507  29.255  0.0911  0.1818  0.0308
43954W        W86871   8.155  14.308  30.742  0.1829 -0.1026  0.0731
43955W        W86872   9.176  15.486  28.899  0.1370 -0.1752 -0.0590
43956W        W86873   8.501  17.769  29.565 -0.0609  0.2009  0.2561
43957W        W86874   5.402  16.756  26.520 -0.1756  0.0216  0.1621
43958W        W86875  11.122  18.423  26.877 -0.2525 -0.0314  0.1961
43959W        W86876   7.997  16.595  30.929  0.0142 -0.2946 -0.1159
43960W        W86877   4.743  15.128  30.427 -0.0419 -0.0707 -0.1138
43961W        W86878  12.338  16.254  25.986  0.1067  0.0276 -0.0679
43962W        W86879  12.079  18.010  30.108  0.0416  0.0693  0.2550
43963W        W86880   9.720  14.157  27.732 -0.0194  0.3346  0.0752
43964W        W86881  10.440  18.367  30.866  0.3565 -0.0841  0.0309
43965W        W86882   9.732  17.081  29.361 -0.2590  0.2446 -0.2436
43966W        W86883   8.453  15.272   0.568 -0.1326 -0.1756  0.0414
43967W        W86884   9.655  14.062  30.365  0.0687 -0.0855  0.1301
43968W        W86885   7.605  13.249  26.285 -0.1530  0.0824 -0.0932
43969W        W86886   9.837  17.017  30.126  0.0238  0.1526 -0.2315
43970W        W86887  11.021  17.182  27.826 -0.2286 -0.2074 -0.0731
43971W        W86888  12.872  19.243  28.090 -0.1704  0.3692 -0.2497
43972W        W86889   8.923  15.751  29.792 -0.0338 -0.1183  0.1103
43973W        W86890  10.983  17.841  28.233 -0.0892 -0.1071  0.3734
43974W        W86891   7.876  12.892   0.107  0.1600  0.0106 -0.2708
43975W        W86892  12.951  16.887  27.046  0.2138  0.1611 -0.1597
43976W        W86893  10.220  15.850  30.425  0.0414 -0.2831  0.1043
43977W        W86894   9.265  15.845  26.394  0.0423 -0.0452  0.0670
43978W        W86895   9.713  14.689  30.335 -0.1013 -0.3522  0.0629
43979W        W86896   9.059  16.253  29.005  0.1864 -0.1434 -0.0176
43980W        W86897   8.853  11.671  30.473 -0.0462 -0.1013  0.0257
43981W        W86898   9.903  15.240  31.518 -0.1430 -0.0277  0.2761
43982W        W86899  10.826  17.216  29.416  0.0147  0.1266  0.0029
43983W        W86900   8.909  14.972  29.586  0.2490  0.1481  0.0189
43984W        W86901   8.628  14.193  28.360  0.0570  0.0664  0.0874
43985W        W86902  10.570  18.793  26.798  0.1184 -0.1673 -0.0716
43986W        W86903   9.375  17.417  28.644 -0.4266 -0.0454 -0.0437
43987W        W86904   9.855  14.802  26.771 -0.1724  0.2744 -0.0804
43988W        W86905   7.904  15.915  31.127 -0.0004  0.2367 -0.3103
43989W        W86906  10.592  16.812  28.063 -0.2136  0.0957 -0.0204
43990W        W86907  10.648  17.583  29.745  0.0180 -0.0187 -0.3679
43991W        W86908   7.684  13.734  27.004  0.2667  0.0617  0.0763
43992W        W86909  11.109  16.835  26.609 -0.2309 -0.2270  0.0121
43993W        W86910   9.120  18.079  29.274 -0.2547  0.0036  0.0298
43994W        W86911   9.431  18.834  29.806 -0.3255 -0.1026 -0.2840
43995W        W86912  10.934  18.405  28.937 -0.0090 -0.0083 -0.0330
43996W        W86913  13.151  15.674  29.485  0.1471 -0.1887  0.1306
43997W        W86914   6.271  14.853  29.453 -0.0112 -0.1637  0.2270
43998W        W86915   9.398  15.479  27.623  0.0280  0.0555  0.0482
43999W        W86916   8.054  16.896  30.015  0.1621 -0.0116  0.1513
44000W        W86917  11.932  14.477  29.740 -0.0825 -0.1124 -0.0322
44001W        W86918   8.362  15.782  29.846 -0.0345  0.1631  0.6233
44002W        W86919  11.553  13.987  29.086 -0.1357  0.0310  0.0182
44003W        W86920   8.322  19.596  31.235  0.1787  0.2547 -0.2727
44004W        W86921   9.798  15.189  29.788  0.1924 -0.0250 -0.0278
44005W        W86922  10.614  15.751  29.610 -0.0538 -0.3302 -0.0373
44006W        W86923  11.253  18.346  31.689  0.1206  0.0733 -0.1941
44007W        W86924   7.965  15.469   0.659  0.3739 -0.1536  0.0322
44008W        W86925   9.816  16.413  30.549 -0.1763  0.2041  0.1028
44009W        W86926   9.140  18.187   0.099 -0.0630 -0.1487 -0.0670
44010W        W86927  11.370  18.136   0.724 -0.1607  0.0095 -0.4223
44011W        W86928  11.668  18.238   2.073  0.0313  0.0035 -0.0649
44012W        W86929  10.301  14.749  30.339  0.0112 -0.0086 -0.1819
44013W        W86930  10.857  15.718  31.382 -0.2085  0.0332 -0.1955
44014W        W86931  13.750  17.223  31.216  0.2164 -0.0131  0.1243
44015W        W86932   7.436  17.412   0.001  0.0970  0.0746  0.2088
44016W        W86933   6.574  14.031   0.124  0.0279 -0.4056 -0.2162
44017W        W86934  11.053  17.032   0.167  0.0993  0.0168 -0.3786
44018W        W86935  10.010  16.664  31.506  0.3276  0.0390 -0.3226
44019W        W86936   9.939  14.358  30.851 -0.1295 -0.3180 -0.0220
44020W        W86937   6.819  16.913  31.545  0.0523  0.2944 -0.2772
44021W        W86938   9.591  17.801  31.085 -0.2803  0.2596  0.0166
44022W        W86939  10.351  18.750  31.878  0.2125  0.0834  0.2732
44023W        W86940   8.385  13.819  30.972 -0.1708  0.0374  0.1578
44024W        W86941   7.444  15.320   1.365 -0.2845 -0.1951 -0.0349
44025W        W86942   7.720  15.702  31.857 -0.1318 -0.3780 -0.0004
44026W        W86943   9.431  19.001   0.327 -0.2026  0.2316  0.0485
44027W        W86944  11.386  15.826  31.654 -0.0128 -0.0395 -0.0623
44028W        W86945   8.022  14.871   0.367  0.2766  0.3314 -0.1469
44029W        W86946  11.766  15.221   0.560  0.0881  0.0780  0.0487
44030W        W86947   9.362  15.404   0.072 -0.2006  0.0032  0.4151
44031W        W86948   7.396  16.001  31.049  0.2811  0.1590 -0.1244
44032W        W86949   7.017  17.859  30.711  0.1757  0.1981 -0.1999
44033W        W86950  11.335  16.008  31.181  0.0431 -0.1321  0.2473
44034W        W86951   8.620  14.518  31.065  0.0595 -0.0861  0.2817
44035W        W86952  10.000  17.734   0.902 -0.3457  0.3480 -0.1522
44036W        W86953   6.578  14.233   1.154 -0.0436 -0.2096 -0.0091
44037W        W86954  10.232  14.050  31.136  0.3166  0.3009 -0.0994
44038W        W86955  10.668  16.441   0.776  0.0060 -0.2314 -0.0703
44039W        W86956   9.438  14.173  30.790 -0.0903 -0.0080  0.1994
44040W        W86957  11.189  17.047  28.409 -0.0932  0.0090 -0.0741
44041W        W86958   6.580  17.317   0.162  0.0645 -0.2006  0.1870
44042W        W86959  10.746  17.286  28.857 -0.0177  0.1995  0.2588
44043W        W86960  12.467  17.086  31.648 -0.2216  0.0984 -0.0919
44044W        W86961  10.799  17.096  30.120 -0.2575  0.2305  0.4118
44045W        W86962  12.602  16.684  31.870 -0.0064 -0.0672  0.0554
44046W        W86963  12.434  16.020   0.566 -0.2505  0.0750  0.1382
44047W        W86964   8.226  14.240  31.358  0.2189 -0.2962  0.0139
44048W        W86965   9.382  17.667  30.669  0.0880 -0.0211  0.0981
44049W        W86966   7.437  14.509   1.271  0.0127 -0.0441 -0.1051
44050W        W86967  10.485  16.037  31.308  0.0373 -0.1690  0.1564
44051W        W86968   9.590  14.494  31.736 -0.0377  0.1521  0.0782
44052W        W86969   5.931  16.344   0.098  0.0230 -0.2782 -0.0673
44053W        W86970   9.529  16.329   1.256  0.0237 -0.0452  0.1409
44054W        W86971   9.034  17.019  31.119 -0.0610 -0.2520 -0.1113
44055W        W86972   8.756  18.750  31.548  0.0475 -0.0709  0.0141
44056W        W86973  12.168  16.472   0.311 -0.5060 -0.0828 -0.0985
44057W        W86974   8.731  15.915  30.647 -0.0741 -0.1261  0.1720
44058W        W86975  10.060  14.227   0.029 -0.1109 -0.1066 -0.0285
44059W        W86976   9.465  14.994  31.550  0.1414  0.0890 -0.4275
44060W        W86977  11.209  17.484  30.248  0.5744 -0.1694 -0.0134
44061W        W86978  10.069  17.121   0.558  0.2108  0.2225  0.4037
44062W        W86979  10.401  18.575  30.417 -0.1061  0.0058 -0.0594
44063W        W86980   8.772  15.755  31.522  0.0933 -0.0301 -0.0484
44064W        W86981   9.646  15.150  30.577 -0.1516  0.1043  0.0437
44065W        W86982   9.731  15.604  29.517  0.1833 -0.4621  0.0570
44066W        W86983   9.415  15.858  29.803 -0.0482 -0.2500  0.0932
44067W        W86984   8.912  16.255  31.503  0.1224  0.0044 -0.2176
44068W        W86985   7.573  14.059   0.911 -0.2021 -0.1014 -0.1231
44069W        W86986  10.751  17.816   0.370 -0.1979 -0.2246  0.0073
44070W        W86987  14.266  16.501   1.801  0.0592 -0.0804  0.0425
44071W        W86988  11.797  15.412  30.702 -0.0789 -0.1435 -0.0093
44072W        W86989   7.586  22.459  21.546  0.2312  0.1005  0.2887
44073W        W86990   7.633  19.633  17.182 -0.0983 -0.1497  0.3146
44074W        W86991   8.078  21.302  17.205 -0.2048 -0.2144  0.1810
44075W        W86992  10.099  19.867  15.447  0.0099 -0.1157 -0.0187
44076W        W86993   7.076  20.271  18.773  0.1273  0.0247 -0.3138
44077W        W86994   9.693  20.773  16.781  0.0426  0.3598 -0.1654
44078W        W86995   8.576  17.429  19.749 -0.0075  0.2544  0.1989
44079W        W86996   9.712  22.234  15.125 -0.5079 -0.0560 -0.0544
44080W        W86997  10.776  22.080  15.652  0.1842 -0.5451  0.1034
44081W        W86998   7.906  19.869  16.685 -0.0390  0.1071  0.1674
44082W        W86999   7.954  17.676  20.611 -0.1901 -0.0724  0.1371
44083W        W87000   7.869  20.545  19.742  0.0598 -0.3348  0.1287
44084W        W87001   6.855  15.986  16.092  0.0533 -0.1011  0.1111
44085W        W87002   7.646  19.320  18.034 -0.2811 -0.1350 -0.0841
44086W        W87003   9.613  17.577  18.476 -0.1476  0.2950  0.0848
44087W        W87004   5.959  22.746  17.745 -0.1206  0.1757  0.3169
44088W        W87005   6.907  20.459  20.535 -0.1985  0.0339 -0.2891
44089W        W87006   7.778  20.760  18.995 -0.3520 -0.0308 -0.0043
44090W        W87007   8.692  21.421  18.838 -0.0560  0.1669 -0.1900
44091W        W87008   8.399  20.592  19.736  0.4820  0.0221  0.3467
44092W        W87009   8.587  17.198  18.950  0.4030  0.0425  0.4131
44093W        W87010   8.468  20.823  15.931 -0.0949  0.1574 -0.1024
44094W        W87011   7.978  19.670  17.602 -0.0942 -0.2721  0.1422
44095W        W87012   8.058  19.105  18.329  0.3422 -0.0029 -0.0995
44096W        W87013   8.276  20.516  17.683  0.3522  0.0494  0.1691
44097W        W87014  10.696  18.958  16.616 -0.0118  0.0348  0.1329
44098W        W87015   9.649  20.572  17.710  0.2656 -0.1514 -0.2277
44099W        W87016   7.308  20.502  19.125 -0.3764  0.3368 -0.0494
44100W        W87017   9.951  22.021  17.701 -0.2355  0.0119  0.3654
44101W        W87018   8.928  20.907  20.852  0.2105 -0.2108 -0.0216
44102W        W87019   8.292  19.212  17.415  0.0847 -0.1078 -0.0463
44103W        W87020   7.875  22.178  18.257 -0.1095  0.0666 -0.1306
44104W        W87021   9.277  21.017  16.932 -0.1437  0.1293 -0.1395
44105W        W87022  11.287  19.514  15.877 -0.2012 -0.0730  0.1929
44106W        W87023  10.058  21.982  20.074 -0.1860 -0.0727  0.0393
44107W        W87024   7.415  19.846  20.950 -0.0935 -0.1988  0.1973
44108W        W87025   6.889  20.650  17.577 -0.1085  0.0531 -0.0639
44109W        W87026   7.650  20.595  21.108 -0.0825 -0.0328 -0.2091
44110W        W87027   7.864  21.443  19.973 -0.1140 -0.0485  0.1540
44111W        W87028   7.082  18.717  20.347 -0.0285  0.1920 -0.1834
44112W        W87029   7.388  20.039  17.348 -0.0317  0.1309 -0.0073
44113W        W87030   8.442  20.761  16.473  0.4244  0.0311  0.0001
44114W        W87031   9.109  19.353  18.296  0.1222 -0.4611  0.0923
44115W        W87032   8.368  19.577  18.262 -0.2245  0.1260 -0.0733
44116W        W87033   7.780  21.093  19.567  0.0412 -0.2871 -0.0232
44117W        W87034  10.074  19.192  18.355 -0.1464  0.2022  0.2635
44118W        W87035   7.117  21.042  16.257  0.0755 -0.1235 -0.2027
44119W        W87036   9.814  20.087  16.076 -0.0022  0.0404 -0.2017
44120W        W87037   6.185  18.489  17.340  0.1502 -0.1674 -0.0516
44121W        W87038   8.997  18.213  16.900 -0.1818 -0.2362 -0.0101
44122W        W87039   9.772  20.111  17.980  0.2536  0.0561 -0.0961
44123W        W87040   6.898  23.120  19.342 -0.2107 -0.0543 -0.1664
44124W        W87041   7.471  18.055  17.851  0.2431  0.0721 -0.0832
44125W        W87042   9.275  19.428  20.350 -0.0937  0.2308  0.1477
44126W        W87043   8.911  19.354  19.941  0.0254  0.0608 -0.1044
44127W        W87044   7.804  18.170  19.806 -0.2417 -0.0194 -0.3643
44128W        W87045   7.028  22.530  18.455 -0.1186 -0.0022 -0.3001
44129W        W87046   8.083  21.004  16.788 -0.0195  0.0766 -0.0842
44130W        W87047  10.190  21.323  15.862  0.1546 -0.2222 -0.0228
44131W        W87048   9.750  21.066  17.186 -0.1504  0.3001  0.2815
44132W        W87049   9.323  21.635  16.878  0.5003 -0.1574 -0.0010
44133W        W87050   7.853  18.228  17.577 -0.1291  0.2468  0.0336
44134W        W87051   6.939  19.800  21.997  0.2275  0.1190  0.0205
44135W        W87052   6.910  20.059  19.234 -0.1993  0.1099  0.2252
44136W        W87053   8.438  19.164  16.149  0.0969  0.1229  0.2405
44137W        W87054  10.850  19.264  19.561  0.0291 -0.3451  0.0451
44138W        W87055   8.696  23.326  18.108 -0.1429  0.0846 -0.1065
44139W        W87056  10.568  19.720  17.623  0.0441 -0.1152 -0.1584
44140W        W87057   8.630  20.164  17.939  0.0210 -0.0745 -0.0321
44141W        W87058  10.624  22.414  20.979  0.1786 -0.0407  0.1386
44142W        W87059  10.427  19.628  18.248  0.0468 -0.1089 -0.1912
44143W        W87060  10.737  19.685  19.306  0.1708  0.0746  0.2552
44144W        W87061   8.107  17.188  18.765  0.0540  0.0385  0.2663
44145W        W87062   9.292  19.546  15.814 -0.1329  0.0848  0.1495
44146W        W87063   8.363  19.883  19.302  0.1988 -0.1065 -0.1252
44147W        W87064  11.127  20.796  18.875  0.2867  0.2741  0.1682
44148W        W87065   9.318  18.213  17.390 -0.0356  0.1510  0.2822
44149W        W87066   6.006  21.344  16.901 -0.1618 -0.0535  0.0239
44150W        W87067   8.821  18.906  18.794  0.0669 -0.0848  0.0526
44151W        W87068   8.919  20.514  21.221 -0.1598  0.1299  0.1703
44152W        W87069  10.487  22.572  16.063  0.1831 -0.0546 -0.3091
44153W        W87070   7.389  20.532  17.102  0.2857 -0.2174 -0.0102
44154W        W87071   6.701  20.190  16.528 -0.0922  0.0677 -0.0062
44155W        W87072   7.622  19.269  19.851 -0.0053  0.0450  0.0389
44156W        W87073   8.473  21.559  17.371  0.2448 -0.0767 -0.5842
44157W        W87074  11.511  19.118  17.515  0.1536 -0.0741  0.0697
44158W        W87075   7.275  20.039  19.655  0.1094  0.0364  0.1485
44159W        W87076   9.370  18.545  17.020  0.1100  0.3024 -0.0869
44160W        W87077   6.382  20.681  17.686 -0.1051  0.3086 -0.0654
44161W        W87078  12.622  23.046  15.274  0.1999 -0.0428 -0.0548
44162W        W87079  10.731  18.603  15.831 -0.1306 -0.1589 -0.0655
44163W        W87080   8.798  22.083  18.376  0.0208  0.1688 -0.1804
44164W        W87081   7.995  20.544  21.460 -0.1011 -0.2929  0.2238
44165W        W87082   8.294  20.274  16.556  0.3176 -0.0328 -0.0433
44166W        W87083   7.050  16.873  17.728  0.2117 -0.2897  0.0828
44167W        W87084   7.769  19.697  18.934  0.2048 -0.0545 -0.3363
44168W        W87085   8.974  18.991  20.259 -0.1450  0.0568 -0.0167
44169W        W87086   5.270  17.420  16.887  0.1051 -0.1722 -0.1456
44170W        W87087   9.040  19.868  18.706 -0.4208  0.1946  0.0360
44171W        W87088   8.454  20.489  17.177  0.0003 -0.0210  0.0145
44172W        W87089   8.867  21.273  17.174 -0.0247 -0.1474  0.2079
44173W        W87090  10.496  18.264  20.641 -0.1191  0.0488  0.1434
44174W        W87091   8.223  19.980  18.648 -0.0621  0.0185  0.1189
44175W        W87092  10.628  20.330  19.201 -0.2531  0.2406  0.1268
44176W        W87093   8.783  21.488  20.753  0.1187 -0.1296  0.0279
44177W        W87094   5.632  20.869  19.383 -0.2073  0.1864 -0.1560
44178W        W87095   8.661  20.020  16.239  0.2569 -0.2426 -0.1394
44179W        W87096   7.486  22.655  18.883  0.1428 -0.3923 -0.3021
44180W        W87097   8.190  22.148  17.539 -0.0154 -0.3301  0.1353
44181W        W87098   8.152  19.995  18.054  0.0657 -0.3397  0.0248
44182W        W87099  11.372  21.743  18.836 -0.1188 -0.2106 -0.1560
44183W        W87100   8.564  21.164  16.837 -0.0470  0.1274 -0.4820
44184W        W87101   8.289  21.632  16.889 -0.1878  0.2641  0.0724
44185W        W87102   8.491  18.431  21.038 -0.0769 -0.0051 -0.1740
44186W        W87103   8.664  20.140  20.231  0.0699 -0.2067  0.2542
44187W        W87104   8.811  21.020  19.793 -0.2594 -0.0280 -0.0040
44188W        W87105   8.397  19.035  16.618  0.0968 -0.1111 -0.0749
44189W        W87106  10.462  21.175  17.560  0.0796 -0.2025 -0.2629
44190W        W87107   8.288  22.970  16.201 -0.0669 -0.0897  0.2877
44191W        W87108   5.697  20.163  16.408 -0.1254  0.0833  0.2661
44192W        W87109  10.822  22.649  17.518  0.0629 -0.1608  0.0250
44193W        W87110  10.561  20.051  16.789 -0.1343  0.5555  0.2422
44194W        W87111   6.885  21.731  19.496 -0.6014 -0.0447 -0.0058
44195W        W87112   9.537  20.573  20.264  0.0407  0.0472 -0.0217
44196W        W87113   6.768  19.272  17.501 -0.2022 -0.1147 -0.0377
44197W        W87114   7.656  20.098  21.325 -0.0864 -0.2114  0.0399
44198W        W87115   8.118  17.668  16.113  0.0175 -0.0714 -0.0164
44199W        W87116   8.530  18.107  16.754  0.1846 -0.1387  0.0045
44200W        W87117   8.253  20.416  20.181  0.1485 -0.2012 -0.1138
44201W        W87118  10.888  18.844  15.380  0.1090  0.0847 -0.1139
44202W        W87119  10.616  17.869  16.289 -0.1888 -0.2186 -0.2444
44203W        W87120   9.826  18.290  17.356 -0.1687 -0.0011 -0.0534
44204W        W87121   7.724  20.131  20.006 -0.1775 -0.0622  0.0404
44205W        W87122  10.043  21.000  19.514  0.2510 -0.0405 -0.0515
44206W        W87123   7.453  22.438  18.219 -0.0173  0.0243  0.0762
44207W        W87124   9.698  17.494  17.297 -0.1834 -0.0132  0.1476
44208W        W87125  10.770  23.288  17.584  0.2043  0.2084  0.1019
44209W        W87126   7.961  18.192  18.049  0.0598  0.0844 -0.0841
44210W        W87127   9.954  20.471  19.742 -0.0219 -0.2421  0.1615
44211W        W87128   8.645  20.807  17.975  0.3377  0.2274  0.1527
44212W        W87129   6.381  16.819  19.195 -0.2311  0.2943 -0.1988
44213W        W87130   9.333  19.382  16.576 -0.3850 -0.0114  0.0201
44214W        W87131   7.707  18.723  19.218  0.0616 -0.1239 -0.1352
44215W        W87132   8.852  20.773  17.086 -0.0556 -0.1321 -0.2448
44216W        W87133   9.188  19.685  17.513  0.1399  0.0505  0.3839
44217W        W87134   9.511  18.532  18.856  0.0231 -0.2269  0.3637
44218W        W87135   7.536  17.424  19.624  0.2289 -0.1637  0.3166
44219W        W87136  10.302  19.905  18.900  0.2014 -0.0252 -0.1809
44220W        W87137   8.394  20.032  17.516  0.3236 -0.0780  0.1106
44221W        W87138   6.856  19.447  19.266 -0.0974  0.2314  0.0282
44222W        W87139   7.440  21.791  17.299 -0.2295  0.3604 -0.1139
44223W        W87140   8.503  18.568  18.640  0.2906  0.3879 -0.2733
44224W        W87141   6.330  21.045  17.319  0.0478 -0.1616 -0.2459
44225W        W87142   7.373  22.866  18.348  0.0369 -0.0671 -0.3846
44226W        W87143  10.686  21.961  20.738  0.3254  0.2481 -0.0029
44227W        W87144   9.209  19.918  16.256  0.4327  0.1708 -0.3668
44228W        W87145   7.487  16.609  20.297 -0.1908 -0.1259 -0.2080
44229W        W87146   9.346  18.174  16.095 -0.0541 -0.4336 -0.1908
44230W        W87147  10.585  21.599  19.484 -0.2054  0.0576 -0.1681
44231W        W87148   7.970  20.684  16.236  0.3283 -0.1700  0.4965
44232W        W87149   6.975  16.272  18.520 -0.2442 -0.0817 -0.2566
44233W        W87150  10.289  21.690  17.602  0.1606 -0.0973  0.1630
44234W        W87151   8.126  21.280  16.352  0.0019  0.2132  0.0474
44235W        W87152   8.077  18.642  18.206  0.1728  0.1639 -0.1286
44236W        W87153   8.736  20.242  16.716 -0.0948  0.0616  0.3330
44237W        W87154   7.952  19.004  17.802  0.3497 -0.0020 -0.1608
44238W        W87155   6.056  22.212  19.407  0.4243  0.0348  0.2292
44239W        W87156   8.592  18.864  17.060 -0.2669 -0.2225  0.2303
44240W        W87157   7.264  22.118  16.912 -0.0543 -0.3804 -0.0621
44241W        W87158   8.168  18.146  16.317  0.2412  0.1523 -0.3140
44242W        W87159   9.465  20.849  16.349  0.0381  0.2351 -0.1800
44243W        W87160   8.410  16.551  19.423 -0.0534 -0.1432  0.1422
44244W        W87161   7.711  17.280  16.858  0.0776 -0.3108  0.0114
44245W        W87162   6.121  22.126  19.888 -0.1775  0.1898 -0.0987
44246W        W87163   8.702  19.473  18.827  0.1209  0.1071  0.2481
44247W        W87164   9.719  19.102  17.544 -0.0780  0.0648  0.1690
44248W        W87165   9.342  19.412  17.889 -0.2225  0.0029  0.0461
44249W        W87166   7.256  19.042  19.381 -0.0074  0.3362  0.3240
44250W        W87167   6.382  19.012  17.408 -0.2431  0.1589 -0.0696
44251W        W87168   9.423  19.097  20.003  0.3690 -0.1989 -0.1979
44252W        W87169   8.151  18.684  19.451  0.0613 -0.0629 -0.0532
44253W        W87170   7.900  20.830  18.465  0.0155  0.2026  0.1426
44254W        W87171   9.420  22.110  18.412  0.1506  0.1078 -0.1268
44255W        W87172   9.488  19.761  18.241  0.4345  0.3854  0.0464
44256W        W87173   7.970  20.565  17.207  0.0328  0.2395  0.3265
44257W        W87174   9.772  16.014  19.228  0.2156 -0.0120 -0.0152
44258W        W87175   8.441  19.590  17.763  0.0553  0.0143 -0.2150
44259W        W87176   9.023  18.926  16.255  0.0088 -0.0309 -0.0122
44260W        W87177   8.411  19.124  17.964  0.0462  0.2730 -0.2056
44261W        W87178   7.087  18.748  18.390  0.0228 -0.0104 -0.2614
44262W        W87179   8.931  20.109  17.529 -0.2017 -0.0514 -0.3168
44263W        W87180   9.417  18.129  20.522  0.1856  0.4186  0.1028
44264W        W87181   6.049  20.321  20.127 -0.1225  0.0911 -0.1632
44265W        W87182   8.750  19.483  17.404 -0.0333 -0.0097 -0.4758
44266W        W87183  12.153  22.910  15.277  0.0193 -0.0010 -0.1433
44267W        W87184   9.271  18.994  18.947 -0.1308  0.0198  0.0004
44268W        W87185   7.265  20.983  17.303  0.0694 -0.0847  0.0464
44269W        W87186   6.635  21.337  19.073 -0.1265 -0.2492  0.0986
44270W        W87187   8.439  20.988  17.450  0.4823  0.0571  0.1714
44271W        W87188   7.726  18.592  17.864  0.2774  0.0568 -0.1510
44272W        W87189   6.480  20.550  20.100  0.0220  0.2856  0.0831
44273W        W87190   6.039  20.842  16.853  0.0151  0.0639 -0.1006
44274W        W87191   8.141  20.951  17.958 -0.3349  0.0091  0.1482
44275W        W87192   9.662  17.318  15.859  0.0958  0.1204  0.0693
44276W        W87193   8.720  20.630  20.133 -0.0537  0.0689  0.0771
44277W        W87194   8.636  18.877  17.566 -0.4631  0.0156  0.2131
44278W        W87195  11.547  18.289  18.530  0.0188  0.0065  0.1318
44279W        W87196   9.322  21.313  16.525  0.0305  0.2564  0.2222
44280W        W87197   9.523  17.046  18.633 -0.1632  0.1624  0.0446
44281W        W87198   8.114  19.006  17.028  0.1158 -0.0340 -0.0290
44282W        W87199  10.219  20.460  17.638  0.1619  0.0737 -0.1027
44283W        W87200   8.185  18.937  18.828  0.0432 -0.0835 -0.0920
44284W        W87201   8.805  21.032  20.401  0.2918  0.1124  0.1868
44285W        W87202   6.722  19.144  20.557  0.3156  0.1114 -0.0330
44286W        W87203   8.923  18.442  16.019 -0.2304  0.0171  0.3825
44287W        W87204   7.690  21.257  18.010  0.1263 -0.1385  0.1846
44288W        W87205   8.296  19.111  21.636  0.1164 -0.1665  0.1813
44289W        W87206   9.189  19.981  17.081  0.2442 -0.0137  0.2481
44290W        W87207   8.712  20.560  18.766  0.0497  0.0945  0.0437
44291W        W87208  12.431  19.837  17.835  0.1060 -0.1024 -0.0522
44292W        W87209   8.173  20.027  19.786  0.4777 -0.2002 -0.0934
44293W        W87210  10.879  19.343  15.641  0.3169  0.0926 -0.0840
44294W        W87211   8.694  19.352  16.917  0.0431 -0.0000 -0.0710
44295W        W87212   8.230  19.457  18.697 -0.0708  0.0201 -0.0448
44296W        W87213   7.142  18.866  19.885  0.0005  0.1695 -0.1911
44297W        W87214   9.625  20.523  18.851 -0.0663  0.0480  0.2041
44298W        W87215   7.901  17.734  17.844  0.0385  0.1252  0.1219
44299W        W87216   8.615  16.718  18.214 -0.0074  0.2891  0.0020
44300W        W87217   9.590  19.257  18.364  0.1793 -0.0889 -0.0502
44301W        W87218   8.780  20.131  23.258  0.3461  0.1058  0.1021
44302W        W87219   8.311  22.003  18.647 -0.1031  0.0834 -0.1419
44303W        W87220   8.764  19.048  20.817  0.3148  0.2218  0.1727
44304W        W87221  11.018  18.761  16.239 -0.2631 -0.1770  0.0656
44305W        W87222  10.501  18.860  17.025  0.0688  0.2738 -0.2040
44306W        W87223  10.995  19.063  17.105  0.1875  0.0446 -0.2612
44307W        W87224   9.291  18.847  17.939 -0.0803 -0.1783  0.0726
44308W        W87225   6.485  19.615  18.396 -0.1110 -0.1997  0.1465
44309W        W87226   9.153  21.228  19.020 -0.0665  0.0432 -0.1831
44310W        W87227   7.113  19.919  18.184  0.1409  0.0197  0.1147
44311W        W87228   9.139  16.768  21.833 -0.0622  0.4017  0.3243
44312W        W87229  11.452  21.394  15.317  0.1927  0.1145 -0.3397
44313W        W87230   8.903  20.546  18.325 -0.3042 -0.0491 -0.1894
44314W        W87231   9.014  17.910  17.724 -0.1146  0.2271 -0.1813
44315W        W87232   7.837  19.699  18.377 -0.1328 -0.2561 -0.2318
44316W        W87233   8.209  20.850  19.357  0.0818 -0.0721  0.1364
44317W        W87234   8.894  19.735  16.607 -0.1321 -0.3623 -0.1053
44318W        W87235   8.738  20.361  15.865 -0.2810  0.1425 -0.1695
44319W        W87236   9.220  21.092  19.510 -0.0259  0.3809  0.1286
44320W        W87237   9.753  19.979  19.541  0.0079  0.0537 -0.1278
44321W        W87238   9.818  15.426  18.528 -0.2189  0.1741  0.1347
44322W        W87239   9.286  19.175  20.885 -0.1845 -0.3052 -0.0374
44323W        W87240   7.411  21.639  17.777  0.0515  0.1253  0.0462
44324W        W87241   8.501  18.443  17.278 -0.3717 -0.0569 -0.1130
44325W        W87242   8.256  21.769  19.951 -0.0114  0.0700  0.0738
44326W        W87243   6.926  20.844  18.051 -0.1017 -0.0204  0.0619
44327W        W87244   9.408  20.893  15.761  0.3966 -0.3698  0.2777
44328W        W87245  10.580  19.192  17.474  0.1709 -0.0147  0.1282
44329W        W87246   8.668  19.839  17.011 -0.0026  0.1147  0.2601
44330W        W87247  10.390  19.390  16.700  0.1092 -0.1319  0.4372
44331W        W87248   7.778  17.786  18.325  0.0034 -0.0615  0.1549
44332W        W87249   8.536  19.080  19.198  0.3270 -0.0460 -0.0182
44333W        W87250   8.121  20.392  19.297 -0.0808  0.0748 -0.1015
44334W        W87251   9.380  18.630  20.285  0.3510 -0.1700  0.0211
44335W        W87252  10.699  21.958  16.146 -0.1577  0.0179  0.1604
44336W        W87253   6.576  22.493  18.596 -0.0408  0.0793 -0.1310
44337W        W87254   7.975  18.145  21.899  0.2624 -0.1022 -0.0810
44338W        W87255   9.036  19.810  20.108  0.1456 -0.4209 -0.1040
44339W        W87256   9.065  21.162  18.121 -0.1542 -0.0088 -0.0983
44340W        W87257   7.570  18.363  18.304  0.0799  0.1467  0.1955
44341W        W87258   9.088  20.925  17.683 -0.1513  0.0250  0.2110
44342W        W87259   8.318  20.973  20.240  0.1160 -0.2796  0.2064
44343W        W87260   7.852  21.445  20.844 -0.0375  0.1061  0.2076
44344W        W87261   8.497  22.654  17.562  0.2798 -0.0431 -0.0139
44345W        W87262   9.679  20.160  16.922  0.1986  0.1018  0.1468
44346W        W87263   9.169  20.128  18.247 -0.1925  0.0215 -0.4044
44347W        W87264   9.574  18.700  19.775  0.0367 -0.0792 -0.0804
44348W        W87265   8.148  17.803  16.695 -0.0701  0.1055 -0.1583
44349W        W87266   9.253  21.321  16.043 -0.0923 -0.0424  0.2033
44350W        W87267   7.795  21.468  16.714  0.4133  0.0744 -0.0311
44351W        W87268  10.130  21.644  15.458  0.0066  0.0256 -0.1625
44352W        W87269   7.951  21.815  17.209 -0.0223 -0.1483 -0.2652
44353W        W87270   9.896  21.419  20.723  0.3167 -0.1142  0.1185
44354W        W87271  11.700  18.978  14.772 -0.3150  0.1251  0.1618
44355W        W87272   9.607  23.093  19.247  0.2727  0.0063 -0.0103
44356W        W87273  10.960  17.646  15.976 -0.0023 -0.1145  0.0483
44357W        W87274   9.468  19.623  19.865 -0.0203 -0.0088 -0.1942
44358W        W87275   8.320  18.529  17.708  0.2605 -0.0465  0.1577
44359W        W87276  10.401  18.560  16.642  0.0021 -0.2848 -0.0793
44360W        W87277   7.109  17.803  19.990  0.3000  0.0907  0.0772
44361W        W87278   8.495  17.692  20.625 -0.0728 -0.1441 -0.0261
44362W        W87279   7.544  24.958  19.446 -0.1551  0.0279 -0.4052
44363W        W87280  11.003  21.628  15.427 -0.0879 -0.3495  0.1046
44364W        W87281   8.535  17.599  16.941  0.0961 -0.1996  0.2934
44365W        W87282   7.460  20.572  18.607 -0.0072  0.2634 -0.0661
44366W        W87283   8.580  19.152  18.422  0.0723  0.0963 -0.1093
44367W        W87284   8.199  20.003  17.066 -0.0296  0.2123 -0.0524
44368W        W87285  10.031  20.207  16.539  0.3812  0.0489 -0.1823
44369W        W87286   9.353  21.390  17.394  0.0529 -0.0714 -0.0699
44370W        W87287   7.798  22.509  19.303 -0.1697  0.1037  0.1244
44371W        W87288   8.365  20.885  21.600  0.2451 -0.0401 -0.0323
44372W        W87289   6.550  18.835  18.328 -0.0469  0.0328 -0.0475
44373W        W87290   9.658  18.581  18.407  0.1046  0.2017  0.3795
44374W        W87291   7.188  18.038  19.200 -0.1006 -0.1118 -0.0662
44375W        W87292   9.385  19.813  19.193 -0.0106 -0.0648 -0.2536
44376W        W87293   7.095  19.369  16.684  0.0497 -0.0469  0.1558
44377W        W87294  11.911  20.754  15.917  0.1423 -0.3654  0.3361
44378W        W87295   8.058  20.463  20.913 -0.1587 -0.2189  0.0523
44379W        W87296   7.712  21.298  18.503  0.0011 -0.5662  0.0517
44380W        W87297   8.759  18.296  17.806  0.0367  0.0623 -0.0236
44381W        W87298   7.688  18.186  19.290 -0.4058  0.0930  0.0324
44382W        W87299   8.435  19.580  16.550  0.1849  0.0417  0.2133
44383W        W87300   8.685  22.874  20.472 -0.1726 -0.1318  0.0207
44384W        W87301   7.959  18.614  17.300 -0.1260 -0.1910  0.1393
44385W        W87302   9.649  18.933  16.523 -0.0543  0.1494 -0.0925
44386W        W87303   6.374  19.425  16.230  0.1460  0.0226 -0.1989
44387W        W87304   7.514  19.525  19.436  0.0716  0.3472  0.2223
44388W        W87305  10.375  21.133  19.834  0.1825  0.0004 -0.4306
44389W        W87306   5.780  20.083  18.384  0.1169  0.2515  0.2811
44390W        W87307   9.901  20.240  15.169  0.2493 -0.2043 -0.0470
44391W        W87308  10.697  18.554  17.406  0.1993  0.1198 -0.0848
44392W        W87309   8.766  20.961  18.507  0.1395 -0.1753 -0.2994
44393W        W87310  11.601  19.701  16.194 -0.1725  0.0216  0.1120
44394W        W87311  10.017  20.463  18.236 -0.1073 -0.1132  0.3565
44395W        W87312   6.590  17.531  18.599 -0.4095  0.2179 -0.3659
44396W        W87313   9.576  20.375  18.372  0.0363  0.0729  0.5252
44397W        W87314  10.187  21.390  17.157  0.2847 -0.0493  0.2456
44398W        W87315   6.157  16.662  17.369 -0.0038  0.0942  0.3008
44399W        W87316   8.123  18.483  16.808 -0.1164  0.1123 -0.1464
44400W        W87317   7.051  21.967  17.579 -0.1836  0.0841 -0.0814
44401W        W87318   8.724  17.959  17.232 -0.2586  0.1881  0.1927
44402W        W87319   9.022  19.319  19.181  0.1935  0.3911 -0.3947
44403W        W87320  10.912  20.229  16.442 -0.2596  0.1722  0.2575
44404W        W87321  11.039  17.269  19.130  0.1663 -0.3429  0.1393
44405W        W87322   6.956  20.275  20.056 -0.4284 -0.0233  0.0411
44406W        W87323   6.227  21.150  17.912  0.0632 -0.1238 -0.1701
44407W        W87324   6.512  19.420  18.861 -0.1139 -0.3148 -0.1070
44408W        W87325   9.148  20.397  19.986 -0.0223 -0.0198 -0.1734
44409W        W87326   7.691  20.943  17.061  0.0628  0.0377 -0.0694
44410W        W87327   9.991  20.624  16.360  0.3296 -0.2013 -0.2898
44411W        W87328   9.150  21.700  18.205 -0.0902  0.2206 -0.3722
44412W        W87329   8.532  17.740  16.353  0.0807  0.2619  0.1411
44413W        W87330  10.026  22.873  17.389 -0.3730  0.2979  0.0558
44414W        W87331   5.502  19.067  18.334  0.0079 -0.3374 -0.0222
44415W        W87332   7.912  17.774  19.523  0.1430  0.0397  0.0144
44416W        W87333   7.782  19.251  17.401  0.2527  0.3441  0.1107
44417W        W87334   7.368  18.296  21.204  0.1032  0.0842 -0.0944
44418W        W87335   5.789  18.736  16.790 -0.3614 -0.0126 -0.1943
44419W        W87336   7.791  22.196  16.260 -0.2338 -0.7180  0.0331
44420W        W87337   7.726  21.995  16.743  0.1671  0.0853  0.0258
44421W        W87338   7.551  19.424  20.475  0.0588  0.0271 -0.3665
44422W        W87339   7.737  19.924  20.527  0.0437 -0.1630 -0.0334
44423W        W87340   8.292  20.403  16.094  0.1685  0.0199 -0.1488
44424W        W87341   7.946  19.367  15.984 -0.2511 -0.0467  0.0387
44425W        W87342  10.621  21.397  15.509  0.0395 -0.0109 -0.2324
44426W        W87343   7.571  18.098  18.791  0.2930 -0.4307 -0.0561
44427W        W87344   6.540  20.859  19.268  0.0070  0.2045 -0.1439
44428W        W87345   9.872  22.164  18.203 -0.1815 -0.0611 -0.2158
44429W        W87346  10.617  22.224  16.644  0.2405 -0.0585 -0.0550
44430W        W87347   9.649  19.716  17.132 -0.3135 -0.1050 -0.2072
44431W        W87348   9.967  21.774  19.233  0.4601  0.0562  0.0061
44432W        W87349   5.666  19.192  16.837 -0.0458 -0.2977  0.0873
44433W        W87350   8.356  19.169  19.998  0.0776  0.2349  0.0832
44434W        W87351   8.965  18.617  20.560 -0.0008  0.0751  0.1857
44435W        W87352   4.880  20.063  18.844 -0.0645  0.3002  0.2081
44436W        W87353   6.958  18.354  20.008 -0.0246 -0.2831  0.3854
44437W        W87354   8.697  21.901  19.116  0.2348  0.1263 -0.0172
44438W        W87355   9.878  20.711  15.332 -0.1844  0.1925 -0.0593
44439W        W87356   7.841  20.533  18.018  0.1909 -0.1043 -0.3092
44440W        W87357   8.921  22.889  18.188 -0.2547  0.1554  0.3548
44441W        W87358   7.769  16.856  19.592  0.0792  0.1227  0.3850
44442W        W87359  10.546  19.904  16.310  0.2431 -0.3742 -0.1223
44443W        W87360   6.717  20.897  20.407 -0.1170  0.0586  0.0311
44444W        W87361  10.096  20.379  15.695 -0.0523  0.2939  0.2538
44445W        W87362   8.286  17.949  17.635 -0.1372  0.1853 -0.1163
44446W        W87363  10.180  21.101  16.718 -0.4317  0.2706  0.3040
44447W        W87364   7.539  18.516  20.635  0.0319  0.1608 -0.0238
44448W        W87365   9.186  21.554  19.835 -0.1977 -0.0264  0.2364
44449W        W87366   9.502  21.511  19.312 -0.3354 -0.2041 -0.1085
44450W        W87367   7.512  20.061  17.848  0.0111 -0.0018 -0.1011
44451W        W87368  10.114  18.705  15.828  0.0832 -0.0911  0.4134
44452W        W87369   9.274  20.425  15.964  0.0900 -0.0649 -0.0984
44453W        W87370   5.925  19.482  19.537 -0.0721  0.0437  0.4061
44454W        W87371   9.268  17.903  18.199  0.1886  0.2751  0.0337
44455W        W87372   7.822  20.877  20.132 -0.2334  0.2906  0.0110
44456W        W87373   9.326  23.003  18.522  0.0664 -0.1721 -0.0977
44457W        W87374   9.932  19.511  18.693  0.2142 -0.0664  0.0825
44458W        W87375   9.032  20.468  16.350  0.0902  0.2514  0.0810
44459W        W87376  12.138  21.121  15.714  0.0738 -0.3723 -0.3415
44460W        W87377   8.765  20.043  19.734 -0.2590  0.2158  0.2892
44461W        W87378   9.133  23.148  21.312  0.1095 -0.0609  0.0502
44462W        W87379   9.170  20.715  19.113  0.2365 -0.0816 -0.0018
44463W        W87380   8.432  21.437  17.852 -0.0618 -0.0274  0.0849
44464W        W87381   7.397  16.478  17.599  0.2292 -0.2358 -0.2318
44465W        W87382   8.838  19.489  16.159  0.0877 -0.0926 -0.1048
44466W        W87383   8.355  21.945  18.177 -0.0042  0.0259  0.2508
44467W        W87384   8.175  18.672  21.867  0.3499 -0.0143 -0.0419
44468W        W87385   8.088  19.589  19.668 -0.0296 -0.0031  0.2167
44469W        W87386   8.542  18.684  16.224  0.1200  0.1700 -0.1487
44470W        W87387   5.932  20.868  20.670  0.4168  0.2962 -0.2691
44471W        W87388   8.902  20.612  19.584 -0.0168  0.1080 -0.0137
44472W        W87389   8.979  22.528  20.815  0.0111 -0.0718  0.1663
44473W        W87390   8.912  19.105  21.304  0.0857  0.1030  0.2732
44474W        W87391   8.227  19.575  21.339  0.4470  0.0961  0.2123
44475W        W87392   9.489  21.427  20.226  0.1630 -0.1866  0.1046
44476W        W87393   6.744  17.249  22.178  0.1441  0.2523  0.0244
44477W        W87394  11.037  21.356  21.617 -0.1316 -0.0375 -0.3510
44478W        W87395   8.180  18.101  22.409 -0.0312 -0.3738  0.2280
44479W        W87396   9.983  21.939  20.592  0.0393 -0.1047 -0.0028
44480W        W87397   9.509  21.482  22.050  0.0114  0.1601  0.3147
44481W        W87398   8.255  19.689  21.904 -0.3640  0.2451  0.3075
44482W        W87399   7.945  19.017  23.544  0.1637 -0.2516 -0.1195
44483W        W87400   8.064  19.327  25.175  0.1620  0.0642 -0.2496
44484W        W87401   9.321  17.511  21.773  0.3096 -0.0548 -0.5271
44485W        W87402   7.856  15.362  22.380 -0.1110 -0.2140 -0.0657
44486W        W87403   9.548  20.886  23.210  0.1705  0.1522  0.0876
44487W        W87404   7.487  20.500  21.608  0.3643  0.1559 -0.1147
44488W        W87405   7.941  16.906  22.822 -0.2404  0.1797 -0.0014
44489W        W87406   8.972  18.021  23.338 -0.0408  0.0079 -0.0069
44490W        W87407   7.871  22.447  20.031 -0.0709  0.0550  0.2368
44491W        W87408   7.452  19.007  23.654 -0.0728  0.1382 -0.2121
44492W        W87409  10.712  18.373  21.602  0.0148 -0.0308  0.1105
44493W        W87410   9.812  18.934  20.880 -0.0124  0.1997  0.1771
44494W        W87411   5.100  17.862  19.974 -0.0269 -0.0173  0.1129
44495W        W87412   5.663  21.209  23.003 -0.0315 -0.1580  0.0351
44496W        W87413   8.508  17.637  22.256  0.1119 -0.2213 -0.0373
44497W        W87414   8.226  18.924  22.526 -0.1255 -0.0689 -0.0348
44498W        W87415  11.426  19.311  23.212  0.0510 -0.0336  0.0261
44499W        W87416   7.970  23.188  22.103  0.0274 -0.1462  0.1916
44500W        W87417   8.275  23.368  20.299  0.1932 -0.2897 -0.2796
44501W        W87418   9.295  19.902  24.106 -0.0816  0.0049  0.0881
44502W        W87419   7.348  20.262  20.671 -0.0036  0.2332 -0.0414
44503W        W87420   9.170  21.667  21.074  0.0287 -0.3121 -0.0129
44504W        W87421   8.708  22.221  21.554  0.2174 -0.1898 -0.0433
44505W        W87422   8.823  19.859  20.643  0.0408  0.1130  0.2537
44506W        W87423   9.747  22.024  23.639 -0.1397 -0.3245 -0.1704
44507W        W87424   7.759  21.366  22.026 -0.0818 -0.2996 -0.0786
44508W        W87425   5.770  21.702  21.506 -0.2159  0.0380  0.2032
44509W        W87426   9.831  19.951  23.168  0.0424  0.0743 -0.0198
44510W        W87427   8.312  21.759  22.526  0.0461  0.2146 -0.3031
44511W        W87428   8.906  20.452  22.876  0.3089 -0.0473 -0.1525
44512W        W87429   8.693  19.636  22.092 -0.0664 -0.1486  0.0287
44513W        W87430   8.934  20.443  20.538  0.4761  0.1345  0.1662
44514W        W87431   9.326  20.523  21.658  0.3129 -0.0498 -0.0923
44515W        W87432   9.316  20.544  25.758 -0.0110  0.1286 -0.1471
44516W        W87433   6.961  20.956  25.045  0.0612  0.2095 -0.1256
44517W        W87434  10.299  18.611  22.860  0.1346 -0.1750  0.1736
44518W        W87435   7.453  19.660  19.992  0.4892  0.2427 -0.0231
44519W        W87436   8.158  18.486  19.898  0.0770 -0.2992  0.2987
44520W        W87437   8.623  17.893  19.496  0.0915 -0.2838 -0.2189
44521W        W87438   9.250  19.099  23.513 -0.0764 -0.0122 -0.1457
44522W        W87439   7.571  17.863  21.993  0.1960 -0.3086  0.0741
44523W        W87440   6.529  20.556  24.006  0.2973 -0.3540 -0.2888
44524W        W87441   6.178  17.323  22.191 -0.2147 -0.1975  0.1108
44525W        W87442   9.189  21.240  21.731  0.1383  0.0679 -0.0421
44526W        W87443   8.085  20.068  21.654 -0.3054 -0.0915  0.0643
44527W        W87444   9.141  19.346  22.808 -0.1638  0.3366  0.0425
44528W        W87445   7.651  21.836  23.236 -0.3330 -0.3233 -0.2753
44529W        W87446   6.990  19.372  21.786 -0.0855  0.1901 -0.1605
44530W        W87447  11.001  23.494  21.378 -0.2696  0.2672  0.0461
44531W        W87448  10.507  23.588  22.698  0.0497 -0.3373 -0.1816
44532W        W87449   9.055  20.883  23.207 -0.0703 -0.2651 -0.0370
44533W        W87450   6.828  17.959  21.166  0.2320  0.1395  0.1072
44534W        W87451   7.007  19.993  24.047 -0.3642 -0.1196  0.1104
44535W        W87452   8.384  19.294  23.779 -0.3017  0.2339 -0.1045
44536W        W87453   6.765  18.431  18.083 -0.0716 -0.0071 -0.0431
44537W        W87454  10.944  19.581  23.386  0.0471  0.1437 -0.2408
44538W        W87455   8.067  25.319  24.167 -0.1250  0.0967  0.2015
44539W        W87456  10.135  19.446  21.799  0.0543 -0.1452  0.0214
44540W        W87457   7.877  20.930  23.807  0.2085  0.0302 -0.1675
44541W        W87458  10.522  21.199  23.082 -0.0983  0.1354  0.0376
44542W        W87459  10.428  22.009  19.157  0.5480 -0.1603 -0.1279
44543W        W87460   9.494  18.299  21.143 -0.2887 -0.1268  0.1140
44544W        W87461   9.219  19.616  21.832 -0.1699  0.1096  0.1992
44545W        W87462   8.812  18.163  20.643  0.0510  0.2004  0.1380
44546W        W87463   8.579  21.905  21.162  0.3075 -0.4784 -0.2797
44547W        W87464  10.447  22.009  23.500  0.0727  0.2300 -0.1449
44548W        W87465  10.127  18.673  18.334  0.2367  0.2982  0.0040
44549W        W87466   7.507  20.526  22.627  0.0667  0.0373 -0.0556
44550W        W87467   7.326  18.667  23.970  0.1755  0.0752 -0.0403
44551W        W87468   9.084  19.892  22.847 -0.0645  0.1773 -0.0145
44552W        W87469   8.467  20.388  23.559  0.1194  0.0632  0.1099
44553W        W87470   6.500  23.130  21.992  0.1048  0.0720  0.1684
44554W        W87471   8.444  21.145  20.696  0.1291 -0.1165  0.0565
44555W        W87472   6.049  17.834  24.130 -0.3476  0.0850  0.3431
44556W        W87473   6.507  22.725  21.611  0.1162 -0.1213 -0.1588
44557W        W87474   8.811  19.866  21.241  0.1577  0.1523  0.1706
44558W        W87475   7.188  16.722  22.166 -0.0270 -0.3558  0.2815
44559W        W87476  10.638  18.678  20.225 -0.1149 -0.2940  0.0487
44560W        W87477   5.028  18.894  21.716  0.1377 -0.1122  0.2682
44561W        W87478  10.234  23.239  21.743  0.2655 -0.0036 -0.1836
44562W        W87479   8.308  19.896  20.503 -0.0137  0.2179 -0.3102
44563W        W87480   9.473  21.669  21.494  0.2117  0.1579  0.0856
44564W        W87481   8.670  22.465  22.338  0.2758 -0.1711  0.0067
44565W        W87482   6.366  18.033  22.719  0.0871 -0.2132 -0.2163
44566W        W87483   7.281  19.775  23.677  0.0698  0.1326 -0.0407
44567W        W87484   5.184  19.387  21.628  0.1039 -0.2926  0.2993
44568W        W87485  11.850  20.594  23.639  0.0272  0.1237  0.0812
44569W        W87486   6.322  18.129  17.672  0.0305  0.0062 -0.1374
44570W        W87487   9.219  20.059  21.544 -0.0330  0.4246  0.1886
44571W        W87488   8.142  19.601  24.191 -0.0526  0.3010  0.3562
44572W        W87489   8.307  20.135  22.686  0.1977  0.0494  0.2851
44573W        W87490  11.506  17.776  22.538  0.4601 -0.1299 -0.0306
44574W        W87491   9.457  24.170  21.731  0.0572 -0.1173  0.1897
44575W        W87492  11.434  22.555  21.289  0.0484  0.0653 -0.0899
44576W        W87493   9.543  23.419  22.479 -0.0868  0.3102  0.2822
44577W        W87494   9.272  17.275  22.239  0.1331 -0.1266 -0.2010
44578W        W87495   6.492  20.078  21.804 -0.2119 -0.1306  0.0712
44579W        W87496   8.119  22.964  21.229 -0.1055 -0.0054 -0.1878
44580W        W87497   7.203  20.822  22.938  0.0014 -0.4135  0.0389
44581W        W87498   8.297  18.926  20.632  0.3398  0.2596 -0.0603
44582W        W87499   9.151  22.660  23.723 -0.0090 -0.0490  0.2148
44583W        W87500   8.809  20.524  21.702 -0.0184  0.0940  0.0634
44584W        W87501   7.117  20.465  24.006  0.1187  0.0193 -0.0600
44585W        W87502   9.026  20.805  24.259  0.4402  0.2070  0.3753
44586W        W87503  11.018  21.365  23.145 -0.2952 -0.1272 -0.4017
44587W        W87504   7.798  18.922  21.730 -0.0604  0.0381  0.3839
44588W        W87505   6.475  20.189  20.883 -0.0035  0.3375  0.0767
44589W        W87506   8.902  21.462  22.094 -0.0110 -0.1142 -0.2131
44590W        W87507   7.155  21.434  19.020 -0.1042 -0.0592 -0.1724
44591W        W87508   7.069  19.490  20.773  0.1381 -0.2460 -0.1092
44592W        W87509  10.608  23.560  21.660 -0.0260  0.1044  0.0669
44593W        W87510  10.392  16.971  21.914  0.2187  0.0680 -0.1427
44594W        W87511   8.839  20.039  25.015  0.2426  0.2379  0.0203
44595W        W87512   9.579  19.548  23.508  0.4263 -0.0903 -0.2585
44596W        W87513   6.291  18.497  20.122 -0.2082 -0.2339  0.3128
44597W        W87514   7.694  22.282  22.403 -0.2831 -0.2030 -0.0597
44598W        W87515  10.224  18.553  20.905  0.1559  0.3249 -0.2036
44599W        W87516   9.814  19.662  22.144 -0.1585  0.1449  0.1040
44600W        W87517   9.155  19.658  23.287 -0.1428 -0.2267 -0.1026
44601W        W87518  10.815  20.880  19.866 -0.1286  0.4750  0.3357
44602W        W87519   8.443  17.129  22.133  0.2215  0.1095  0.0851
44603W        W87520   9.813  18.661  21.329 -0.0293 -0.0333 -0.2182
44604W        W87521   8.063  20.956  24.300  0.1258 -0.2110  0.1376
44605W        W87522  10.277  20.385  20.883 -0.1295  0.2704  0.0628
44606W        W87523   6.936  23.134  21.508  0.4218 -0.2959 -0.1701
44607W        W87524   7.002  16.932  19.591 -0.1932  0.3458 -0.0936
44608W        W87525  10.715  21.058  18.988 -0.0793 -0.1385 -0.0654
44609W        W87526   7.688  19.811  23.343  0.1895 -0.3066 -0.2491
44610W        W87527   9.216  20.268  22.508  0.1400 -0.0488 -0.1622
44611W        W87528  10.950  21.185  23.626  0.2302  0.0180 -0.3195
44612W        W87529   7.672  17.680  20.024  0.4072  0.1057  0.2827
44613W        W87530   7.484  19.496  22.399 -0.0228 -0.0437 -0.1817
44614W        W87531   9.344  17.969  21.485  0.0441 -0.1256 -0.1673
44615W        W87532   8.336  23.214  18.923  0.0889  0.5429  0.0469
44616W        W87533   8.713  18.562  23.121  0.1589 -0.2409 -0.2563
44617W        W87534   9.740  18.539  22.984 -0.0660  0.1210  0.0835
44618W        W87535   6.755  17.961  21.655  0.2050  0.0400 -0.1830
44619W        W87536  10.265  20.185  25.691 -0.1629 -0.0247 -0.0249
44620W        W87537   8.310  20.119  22.187  0.0817 -0.1903  0.0570
44621W        W87538   9.575  19.757  22.809  0.2187  0.0672  0.1164
44622W        W87539   8.882  17.675  20.114  0.1277 -0.2082 -0.1473
44623W        W87540   9.340  16.394  23.698 -0.2409  0.1427 -0.0090
44624W        W87541   8.440  20.013  24.011  0.3075 -0.1289  0.1727
44625W        W87542   7.722  22.354  23.271  0.0421  0.1575 -0.1851
44626W        W87543   9.887  20.820  22.805 -0.1059  0.1365 -0.1827
44627W        W87544   9.536  18.437  21.673  0.2003 -0.0686 -0.2508
44628W        W87545   9.289  17.673  23.698 -0.4006 -0.0403 -0.1467
44629W        W87546   8.844  16.483  21.570  0.0243 -0.0836  0.1420
44630W        W87547   6.383  20.631  22.984  0.1738  0.1943 -0.2584
44631W        W87548   9.321  22.396  20.446  0.5092 -0.0267 -0.1937
44632W        W87549   8.532  17.847  21.279  0.3495  0.1701 -0.3448
44633W        W87550   8.464  21.289  21.225 -0.0859 -0.1645  0.2475
44634W        W87551   9.720  22.310  20.851  0.4762  0.0367  0.1321
44635W        W87552   9.255  20.373  23.907 -0.1373  0.0349 -0.1191
44636W        W87553   8.820  22.046  20.790  0.1462  0.3474 -0.2093
44637W        W87554   9.472  17.790  20.959  0.0632  0.4145 -0.0386
44638W        W87555   5.830  21.173  21.767 -0.0069 -0.0235  0.0789
44639W        W87556   7.959  19.064  20.308 -0.0415 -0.2798  0.1624
44640W        W87557   6.371  20.210  22.517 -0.4196  0.0677 -0.0239
44641W        W87558   8.641  20.603  22.169 -0.0627 -0.0556 -0.2519
44642W        W87559   9.029  21.491  20.320  0.2740 -0.0604  0.0510
44643W        W87560   6.887  18.449  21.349  0.0867 -0.2582  0.4031
44644W        W87561   9.140  18.525  23.886  0.0319  0.3424 -0.1329
44645W        W87562   6.663  20.454  21.543  0.2720  0.1889  0.0716
44646W        W87563   9.805  18.961  25.075  0.1165 -0.1643  0.2655
44647W        W87564   7.903  17.810  19.031  0.1452 -0.1251 -0.3593
44648W        W87565   9.594  21.964  22.313  0.2637  0.1028 -0.2745
44649W        W87566   8.666  18.789  21.654 -0.0447  0.0404 -0.2039
44650W        W87567   6.781  19.650  20.368 -0.0391  0.0429  0.4637
44651W        W87568  11.138  19.399  24.286 -0.0870 -0.0099  0.0141
44652W        W87569   7.392  18.588  22.076 -0.2585  0.0176  0.1243
44653W        W87570   6.377  21.837  21.305  0.0094  0.0220 -0.3028
44654W        W87571  10.432  20.678  21.987 -0.0575 -0.2409 -0.2773
44655W        W87572   6.930  19.057  23.899 -0.0270  0.0430 -0.0229
44656W        W87573   7.135  19.226  20.252  0.0358 -0.1051  0.0133
44657W        W87574   7.146  18.618  22.752 -0.0107  0.3641 -0.0929
44658W        W87575  10.481  20.727  23.935 -0.0827 -0.1855 -0.2151
44659W        W87576   7.717  17.800  22.487  0.2218 -0.2099  0.0257
44660W        W87577   8.699  18.296  21.554 -0.5080 -0.0436  0.2040
44661W        W87578   7.794  19.281  22.709  0.2144  0.1944 -0.2431
44662W        W87579   8.598  20.210  20.889  0.0580 -0.2193 -0.1353
44663W        W87580   8.598  18.262  24.241 -0.0311  0.1849 -0.0968
44664W        W87581  10.080  21.248  24.117  0.2952  0.1056  0.3603
44665W        W87582   8.545  18.652  22.293 -0.1073  0.0597  0.0689
44666W        W87583  10.986  20.678  19.391  0.3554 -0.4225 -0.1960
44667W        W87584   7.783  18.655  24.195 -0.1142  0.0875 -0.0260
44668W        W87585   9.001  21.815  21.589 -0.4017 -0.0122 -0.0615
44669W        W87586   7.836  21.358  23.488  0.0566 -0.2405  0.0210
44670W        W87587   7.897  21.812  22.287  0.1053  0.1774  0.2851
44671W        W87588   9.084  17.785  22.249  0.1481 -0.1943  0.4116
44672W        W87589   8.747  19.531  23.035  0.3339  0.2620 -0.1891
44673W        W87590   8.758  20.874  22.601 -0.1363 -0.0772  0.1903
44674W        W87591   7.435  21.079  22.236 -0.0420  0.0076  0.3717
44675W        W87592   8.995  18.780  22.157  0.0553  0.0781 -0.3376
44676W        W87593   8.601  21.804  20.379  0.1713  0.0318 -0.3421
44677W        W87594   9.671  19.361  23.060  0.0193  0.1337 -0.1821
44678W        W87595  10.064  19.475  23.369 -0.0849  0.1337 -0.0458
44679W        W87596   9.088  18.275  20.147 -0.1005  0.0854 -0.1465
44680W        W87597   9.883  19.218  25.542  0.1300 -0.4425  0.0285
44681W        W87598   8.279  15.587  22.390 -0.1087 -0.2458 -0.1915
44682W        W87599   9.422  18.927  23.025  0.0159 -0.0600 -0.1325
44683W        W87600   9.409  17.687  23.221 -0.0310 -0.1683  0.1584
44684W        W87601   8.031  22.288  21.762 -0.0823  0.1939 -0.1079
44685W        W87602   8.396  19.066  23.209 -0.3104  0.4402 -0.0414
44686W        W87603  10.450  16.167  20.008 -0.0061  0.2088  0.0246
44687W        W87604   7.128  18.080  20.380  0.0549 -0.3912  0.0414
44688W        W87605   9.175  20.639  22.123  0.0000  0.1433  0.1947
44689W        W87606  10.404  21.654  22.371 -0.0646 -0.0647 -0.1385
44690W        W87607  11.533  19.183  20.033  0.1672 -0.1031  0.3460
44691W        W87608   9.331  20.088  20.418 -0.0731  0.1067 -0.3184
44692W        W87609   7.724  19.648  21.441 -0.2017 -0.3988 -0.3371
44693W        W87610  10.102  19.627  22.882  0.2828  0.1102  0.1278
44694W        W87611   8.415  18.478  20.539 -0.4394  0.2580  0.2154
44695W        W87612   8.723  19.484  21.597 -0.0626  0.1380  0.0291
44696W        W87613   8.759  16.938  23.950 -0.1821  0.1706  0.0124
44697W        W87614  10.947  20.944  22.325  0.0015 -0.3894 -0.3894
44698W        W87615   9.043  19.240  22.265  0.0715 -0.1437  0.0355
44699W        W87616   8.758  18.779  23.626  0.1121  0.0561  0.1942
44700W        W87617   9.189  19.451  24.306  0.1623 -0.0757  0.0515
44701W        W87618   7.222  20.040  24.503  0.2423 -0.1217 -0.2680
44702W        W87619   7.605  20.182  23.682 -0.0186  0.2664  0.0321
44703W        W87620   9.993  21.584  23.548 -0.0471 -0.1873  0.0989
44704W        W87621   8.665  18.916  19.675  0.0298  0.2010 -0.1684
44705W        W87622   9.346  19.358  21.380  0.3558 -0.1320 -0.1101
44706W        W87623   9.346  20.157  21.016 -0.0369  0.1288  0.0209
44707W        W87624   5.546  18.918  19.738 -0.0366 -0.0512  0.1497
44708W        W87625   9.175  19.866  24.647  0.1363  0.2159  0.4943
44709W        W87626   9.441  18.962  24.013  0.3696 -0.0165 -0.1381
44710W        W87627   8.423  18.244  21.944 -0.0796  0.2869  0.0812
44711W        W87628  12.181  18.319  23.374  0.0004 -0.1373 -0.1546
44712W        W87629   8.979  22.449  20.089  0.2414 -0.0921 -0.0774
44713W        W87630   8.984  21.351  22.848  0.0953 -0.0426  0.0110
44714W        W87631   9.133  17.896  22.749 -0.1980 -0.0196 -0.0921
44715W        W87632   7.600  20.318  24.197 -0.1280 -0.2436 -0.0624
44716W        W87633   8.898  22.037  24.206 -0.2735 -0.1299  0.0700
44717W        W87634   7.448  20.772  20.532 -0.2376  0.0048  0.0086
44718W        W87635   7.992  18.601  20.927  0.0519 -0.0583 -0.0773
44719W        W87636  10.133  23.550  21.360 -0.1390  0.0879  0.1957
44720W        W87637   9.356  20.903  21.310  0.1251 -0.0074 -0.0040
44721W        W87638   6.227  17.767  20.456 -0.2435  0.3092  0.5217
44722W        W87639  10.805  18.387  23.120 -0.1807 -0.0175  0.1915
44723W        W87640   8.838  20.987  21.946  0.4252 -0.0576  0.2119
44724W        W87641   8.675  19.103  22.580 -0.1116 -0.1837  0.3060
44725W        W87642   8.348  23.086  21.770 -0.1613  0.1953 -0.1715
44726W        W87643   6.977  20.519  23.182  0.3521 -0.1210  0.1039
44727W        W87644   6.518  22.203  23.200  0.0092  0.0478 -0.0918
44728W        W87645   9.907  18.338  23.682  0.0449  0.5340 -0.2360
44729W        W87646  10.230  20.526  21.536 -0.1855 -0.3807  0.0488
44730W        W87647   8.010  21.348  22.494  0.0866 -0.0910 -0.3148
44731W        W87648   9.650  20.388  22.788  0.0997  0.0356  0.0667
44732W        W87649   9.332  19.720  22.374  0.1871  0.0592 -0.1909
44733W        W87650   7.863  19.131  22.264 -0.3297 -0.2415  0.1799
44734W        W87651  10.241  21.663  23.137  0.1218 -0.0610  0.0434
44735W        W87652  10.088  20.354  20.354 -0.1512  0.2621 -0.1216
44736W        W87653   6.732  20.969  23.242 -0.1648  0.2026  0.1174
44737W        W87654   7.597  20.196  24.885 -0.0240  0.0135 -0.0429
44738W        W87655   7.919  20.920  25.299  0.1081  0.0534 -0.0025
44739W        W87656  10.320  19.352  20.164 -0.2175 -0.0559 -0.0586
44740W        W87657   7.629  20.097  21.856 -0.1318  0.1997 -0.0315
44741W        W87658   8.129  21.677  21.225 -0.0472  0.2584 -0.0626
44742W        W87659   6.577  21.494  22.814 -0.2315 -0.0322 -0.2459
44743W        W87660   6.746  20.910  21.426 -0.3615 -0.0538  0.1015
44744W        W87661   7.242  18.712  21.609  0.1674  0.2699 -0.1104
44745W        W87662  10.132  19.625  21.358 -0.0623  0.2386 -0.1695
44746W        W87663   8.031  21.003  21.138 -0.4148 -0.0485  0.0844
44747W        W87664   8.633  23.701  20.089  0.0191  0.2599 -0.2256
44748W        W87665   9.671  19.866  21.256  0.0646 -0.0057  0.2021
44749W        W87666   8.600  20.699  23.157 -0.1341 -0.0314 -0.1328
44750W        W87667   7.364  22.346  21.124 -0.0795 -0.0786  0.1034
44751W        W87668  10.069  21.810  21.449 -0.4553  0.4052  0.2707
44752W        W87669   8.310  20.682  22.510  0.3059 -0.1047 -0.1062
44753W        W87670  10.614  22.014  24.764  0.0337  0.0379  0.2612
44754W        W87671   9.808  19.396  20.202  0.0332  0.0736 -0.2383
44755W        W87672  10.950  20.857  21.181 -0.2830 -0.1260 -0.0895
44756W        W87673  10.462  18.957  19.845  0.2168 -0.0374  0.1008
44757W        W87674   8.603  21.568  22.909 -0.0715 -0.3044  0.3942
44758W        W87675   6.852  20.498  22.677 -0.0304  0.0586  0.0099
44759W        W87676   7.907  19.204  21.362 -0.3035 -0.0177 -0.1613
44760W        W87677   9.562  17.749  22.389 -0.4549 -0.2001  0.2321
44761W        W87678  10.618  17.414  21.686 -0.1041  0.2725 -0.1712
44762W        W87679   6.456  22.325  24.517 -0.0791 -0.3931 -0.0773
44763W        W87680  10.865  20.078  19.531  0.3361  0.1408 -0.0823
44764W        W87681   6.930  19.732  18.625  0.1681  0.0960  0.1542
44765W        W87682   7.876  18.478  22.236  0.0820  0.3703 -0.0514
44766W        W87683  10.112  18.793  23.919  0.2532 -0.0042  0.0563
44767W        W87684   8.163  21.484  18.683 -0.2291  0.1581 -0.1878
44768W        W87685   8.592  20.111  21.772 -0.2416 -0.1637  0.3284
44769W        W87686   9.029  22.015  20.307  0.1426  0.1482 -0.0076
44770W        W87687   7.705  22.613  22.816 -0.2624  0.2747  0.0939
44771W        W87688   7.971  20.573  22.886 -0.2880  0.0132 -0.2563
44772W        W87689   4.917  18.118  21.134 -0.0440  0.2190 -0.0137
44773W        W87690   8.886  18.098  19.145 -0.2011 -0.0523  0.0164
44774W        W87691   8.183  18.460  22.842  0.0193 -0.0227  0.1341
44775W        W87692  10.077  19.986  21.738 -0.0447  0.1961 -0.1980
44776W        W87693   7.986  18.920  22.972  0.0904  0.1862  0.1888
44777W        W87694   9.218  19.149  19.604 -0.1692 -0.1474  0.1344
44778W        W87695   9.008  20.445  23.508  0.0097  0.1577 -0.3426
44779W        W87696   7.732  18.428  23.150 -0.0241 -0.2643  0.0999
44780W        W87697   8.178  18.723  21.378  0.0347  0.0592 -0.1792
44781W        W87698  11.815  20.562  23.063  0.1891 -0.3077  0.2448
44782W        W87699  10.283  19.630  22.285 -0.0374  0.0529  0.1188
44783W        W87700   9.091  21.272  23.969  0.4753  0.1515 -0.2658
44784W        W87701   5.994  18.053  22.413  0.0661 -0.0072 -0.3181
44785W        W87702   8.532  19.445  19.543 -0.2937 -0.0846  0.0411
44786W        W87703   7.896  19.129  20.872 -0.1576  0.2999  0.2144
44787W        W87704   8.141  19.450  23.348  0.2671 -0.2949  0.1518
44788W        W87705   8.458  22.028  22.959 -0.2740  0.2165 -0.0532
44789W        W87706   6.944  18.527  19.233  0.1185  0.1602  0.1802
44790W        W87707  10.103  18.211  19.429 -0.0738 -0.2238 -0.0299
44791W        W87708   8.204  20.507  21.915  0.1071 -0.5946  0.1102
44792W        W87709   8.502  21.278  22.422  0.0939 -0.3266 -0.1343
44793W        W87710  10.600  19.819  21.409  0.1358 -0.2510 -0.3229
44794W        W87711   9.708  22.801  20.488 -0.3670  0.1103 -0.2934
44795W        W87712   7.976  19.907  23.812  0.2951  0.2277  0.3053
44796W        W87713   8.273  23.972  23.158  0.1895  0.3763  0.2142
44797W        W87714  12.062  21.041  21.084 -0.1926  0.2689  0.0823
44798W        W87715   8.753  18.395  19.578  0.0452 -0.2015  0.2862
44799W        W87716   7.672  16.766  23.434 -0.2629  0.0165  0.2360
44800W        W87717   7.527  22.057  21.988  0.1820 -0.0916 -0.1022
44801W        W87718  10.540  18.813  22.452  0.1335 -0.2393  0.3423
44802W        W87719   9.521  20.163  24.847 -0.0486 -0.0855 -0.1939
44803W        W87720   7.445  23.637  19.403  0.3470 -0.1362  0.1572
44804W        W87721  11.933  18.026  22.665  0.0954 -0.5206  0.0654
44805W        W87722   8.149  22.069  23.358 -0.1677  0.0530 -0.2568
44806W        W87723   9.594  20.727  24.067  0.0621 -0.1470 -0.3112
44807W        W87724   7.839  20.821  22.319  0.1837  0.0003  0.0926
44808W        W87725   8.624  21.340  21.679  0.3991  0.0090 -0.0101
44809W        W87726   9.376  20.661  20.826  0.1011  0.0879  0.0245
44810W        W87727   7.892  19.635  20.935  0.0853 -0.2142 -0.0850
44811W        W87728   8.891  21.956  22.752 -0.1035 -0.0378  0.1352
44812W        W87729   7.563  17.554  21.016 -0.0506 -0.1878  0.2836
44813W        W87730   9.984  22.725  21.749 -0.4103  0.0741  0.1252
44814W        W87731   8.276  19.467  22.335  0.0523  0.3593 -0.0824
44815W        W87732  10.187  18.908  20.488  0.1877  0.1351  0.0436
44816W        W87733  10.051  16.688  21.276 -0.1911 -0.2324 -0.1121
44817W        W87734   8.288  20.967  23.428  0.0942  0.3647  0.0061
44818W        W87735   6.248  20.533  21.865 -0.2445 -0.0009  0.0340
44819W        W87736   7.476  19.265  21.598  0.1781 -0.0890  0.0303
44820W        W87737   7.066  21.783  20.441  0.0424 -0.1812 -0.2714
44821W        W87738  10.075  18.333  22.401  0.1856  0.2113 -0.0715
44822W        W87739   6.946  17.012  23.095  0.2996  0.0420 -0.0068
44823W        W87740   8.332  19.342  22.821  0.0451  0.1332 -0.1631
44824W        W87741   7.088  17.710  20.751 -0.2256 -0.0739 -0.3215
44825W        W87742   8.536  19.531  20.925 -0.0007 -0.2119 -0.0813
44826W        W87743   6.785  18.399  21.909 -0.0376  0.0801 -0.1823
44827W        W87744   6.343  18.822  22.795  0.2780 -0.0943 -0.0786
44828W        W87745   9.506  21.878  20.181 -0.3949 -0.3112 -0.0326
44829W        W87746  10.887  20.989  20.691  0.2306 -0.0943 -0.2228
44830W        W87747   7.323  18.429  19.592 -0.0609  0.1668  0.2936
44831W        W87748   9.326  21.347  23.441  0.0738  0.2136 -0.0416
44832W        W87749   6.677  19.315  21.286  0.1023  0.2750 -0.0436
44833W        W87750  10.130  19.814  23.867 -0.1998 -0.2264  0.0862
44834W        W87751   9.526  18.044  24.042 -0.0497  0.0269  0.1438
44835W        W87752   4.702  20.178  20.615  0.0829 -0.1223  0.1219
44836W        W87753   8.244  20.056  23.217 -0.1005 -0.1848  0.1884
44837W        W87754   7.955  19.683  20.169 -0.3058  0.0611  0.0775
44838W        W87755   9.624  21.247  19.695 -0.0909 -0.1381  0.1932
44839W        W87756   7.783  20.929  23.247 -0.1790 -0.1235  0.2124
44840W        W87757   9.923  20.133  23.567  0.0058  0.3617  0.1004
44841W        W87758   8.788  16.515  23.155 -0.3813 -0.0025 -0.0140
44842W        W87759   9.652  19.767  20.659  0.0209 -0.0785  0.1482
44843W        W87760   8.558  19.759  23.493  0.3045 -0.2694 -0.1229
44844W        W87761  11.281  19.157  19.344 -0.1090  0.1643 -0.0224
44845W        W87762  10.637  19.200  22.086  0.3588  0.2388 -0.0090
44846W        W87763   9.781  19.393  21.129 -0.1167  0.2704 -0.4073
44847W        W87764   4.880  17.360  22.586 -0.2484  0.1246 -0.1625
44848W        W87765   7.446  20.676  23.660 -0.2865  0.0863 -0.0774
44849W        W87766   9.751  22.638  23.069 -0.0196 -0.2466  0.0952
44850W        W87767   6.668  18.875  20.074 -0.2484 -0.1235 -0.0130
44851W        W87768  10.509  19.419  18.900  0.1246  0.1302 -0.0694
44852W        W87769   7.902  19.364  21.846 -0.1734 -0.2490  0.3472
44853W        W87770   6.875  22.113  21.197  0.1427 -0.1384 -0.1055
44854W        W87771   9.370  18.985  22.547 -0.2450  0.0670 -0.0228
44855W        W87772   9.686  18.557  24.087 -0.0946  0.0722  0.0627
44856W        W87773  10.078  21.304  21.198  0.0283 -0.0216 -0.0999
44857W        W87774  10.962  20.677  23.709  0.0219 -0.1626 -0.0156
44858W        W87775   7.934  18.545  20.370 -0.1304 -0.0604  0.2361
44859W        W87776   9.157  21.069  22.338 -0.0847 -0.3912  0.2507
44860W        W87777   9.346  21.688  23.085 -0.1876 -0.1266 -0.0880
44861W        W87778  11.195  20.379  23.975  0.1796  0.0714  0.1280
44862W        W87779   8.784  21.341  23.341 -0.0151 -0.0227  0.3876
44863W        W87780   9.829  22.527  22.577 -0.2179 -0.1733 -0.1189
44864W        W87781   6.504  19.600  21.689  0.0183  0.1844  0.1162
44865W        W87782   7.107  19.353  19.748 -0.3796  0.0803 -0.1157
44866W        W87783   7.847  20.278  22.313 -0.0010 -0.0925 -0.2428
44867W        W87784   9.899  21.392  21.741  0.1988 -0.1043  0.4451
44868W        W87785   6.896  19.992  20.677  0.1187 -0.1369  0.4966
44869W        W87786   9.006  18.060  21.086  0.2120 -0.2549 -0.0403
44870W        W87787   7.465  19.738  22.938 -0.1648 -0.0239  0.0008
44871W        W87788   9.691  20.410  21.369 -0.3243  0.0884  0.2234
44872W        W87789   8.860  20.365  26.728  0.2579 -0.1866  0.1145
44873W        W87790   7.711  19.877  25.904  0.0151  0.0658  0.1977
44874W        W87791   9.220  18.438  22.896 -0.1245  0.2044 -0.1273
44875W        W87792  10.956  21.222  25.387  0.2011 -0.1072  0.1497
44876W        W87793   7.697  18.491  23.674 -0.0124  0.0082 -0.0298
44877W        W87794   9.866  21.491  24.472  0.1019 -0.0256 -0.0163
44878W        W87795   8.361  16.089  26.397 -0.1393 -0.3301  0.3041
44879W        W87796  10.575  19.752  26.534 -0.0677  0.2861  0.0856
44880W        W87797   9.153  19.921  28.845 -0.0032  0.1505 -0.2810
44881W        W87798  10.241  18.823  25.848  0.1768  0.1195 -0.1758
44882W        W87799  11.493  19.377  26.161  0.0479  0.4231  0.2419
44883W        W87800   9.541  21.261  25.340  0.1942 -0.0937 -0.1245
44884W        W87801   8.116  17.427  24.116 -0.0231 -0.1090 -0.1452
44885W        W87802   7.819  17.043  25.592  0.1026 -0.2567  0.2531
44886W        W87803   9.639  19.229  27.001 -0.1534  0.1653  0.4291
44887W        W87804   8.268  18.757  24.966  0.3933 -0.4306 -0.0242
44888W        W87805  10.449  19.316  26.918  0.3218  0.2932 -0.1270
44889W        W87806   9.095  20.934  25.496 -0.0285  0.0183  0.1012
44890W        W87807   9.667  20.651  22.350 -0.0803  0.2633  0.2855
44891W        W87808  12.086  18.658  26.925  0.0111 -0.1615 -0.0315
44892W        W87809   8.951  19.076  25.325  0.0686 -0.3316 -0.1894
44893W        W87810   8.202  23.252  25.080 -0.0176  0.1601 -0.1590
44894W        W87811   8.340  20.818  23.912  0.0694  0.1252  0.0033
44895W        W87812   7.469  17.699  26.847 -0.3283  0.0260  0.1187
44896W        W87813   9.750  20.028  28.337 -0.1798 -0.1557  0.1587
44897W        W87814   8.130  18.306  24.020 -0.1665  0.1321 -0.0109
44898W        W87815  10.712  18.496  25.822 -0.0854 -0.0020  0.0251
44899W        W87816   8.303  22.198  24.966 -0.1438 -0.2006 -0.1816
44900W        W87817   9.537  21.051  25.809  0.3626  0.1847 -0.3859
44901W        W87818  13.238  19.802  27.742  0.3238 -0.1398 -0.1714
44902W        W87819   9.590  16.443  25.668  0.1812 -0.1170  0.2284
44903W        W87820   9.036  23.081  25.708  0.0833 -0.2824  0.1803
44904W        W87821   9.273  22.584  22.868  0.0257 -0.1162  0.3559
44905W        W87822  10.328  20.831  24.996  0.1170  0.4864 -0.0584
44906W        W87823  10.533  20.686  27.157 -0.2646  0.0379  0.1320
44907W        W87824   7.866  20.223  27.525  0.2466  0.0334  0.0674
44908W        W87825   8.357  17.876  23.943 -0.2828 -0.3487 -0.0277
44909W        W87826   9.556  20.096  26.393  0.2457  0.2436 -0.2587
44910W        W87827   9.543  20.665  26.260 -0.0421  0.2871  0.0622
44911W        W87828   9.473  18.707  27.591  0.2614 -0.2172  0.0896
44912W        W87829   9.600  21.186  26.259  0.0877  0.0603 -0.0189
44913W        W87830   8.209  22.455  23.050 -0.4289  0.1479  0.0646
44914W        W87831  12.408  18.931  27.266  0.1943  0.2283 -0.2883
44915W        W87832  10.559  21.938  29.081 -0.0073  0.0826 -0.0611
44916W        W87833   6.360  22.479  25.765  0.1368  0.1852  0.1386
44917W        W87834  11.180  19.851  25.644 -0.0553  0.0966 -0.0207
44918W        W87835   9.091  21.756  24.700  0.2809 -0.0341 -0.0101
44919W        W87836   9.313  20.216  23.185  0.3444  0.0025 -0.2058
44920W        W87837  10.649  19.684  21.900  0.0286 -0.0110 -0.1617
44921W        W87838  10.196  19.347  23.977  0.1800 -0.3132 -0.0227
44922W        W87839   9.391  16.311  26.316 -0.1389  0.0793  0.1353
44923W        W87840   8.540  22.834  25.806 -0.1753  0.1300  0.2661
44924W        W87841   8.730  20.152  28.361  0.0965  0.0004 -0.1058
44925W        W87842  10.317  21.160  27.366  0.1102 -0.0167  0.0835
44926W        W87843   7.643  19.034  25.008  0.0264  0.1603 -0.1092
44927W        W87844   9.216  19.235  27.414  0.0255 -0.2639 -0.3372
44928W        W87845   8.844  18.895  26.735 -0.0483  0.2133 -0.3112
44929W        W87846   6.772  19.538  25.066  0.1726  0.0205 -0.1033
44930W        W87847   9.253  23.795  22.202 -0.1398  0.1332 -0.1431
44931W        W87848  10.864  21.454  24.453 -0.0886 -0.5316  0.1851
44932W        W87849   7.507  20.835  24.309 -0.1268  0.2028 -0.0226
44933W        W87850   7.464  18.990  24.467  0.2799 -0.1983  0.2232
44934W        W87851   7.437  18.601  25.045 -0.1856  0.1515  0.0754
44935W        W87852   8.653  17.745  27.854 -0.1635  0.3834  0.1181
44936W        W87853   7.388  18.066  23.071 -0.0069  0.0401  0.1687
44937W        W87854  12.852  20.662  27.834 -0.0871 -0.1145  0.0730
44938W        W87855   7.069  20.058  26.895  0.0369 -0.1538 -0.0500
44939W        W87856  10.655  18.691  24.918 -0.3132  0.1871 -0.0017
44940W        W87857   7.127  21.647  24.950 -0.2508  0.0121 -0.1266
44941W        W87858  11.220  20.328  26.396  0.2493  0.0859  0.1316
44942W        W87859  11.566  19.517  26.771  0.1959 -0.3451 -0.1310
44943W        W87860  10.637  19.047  23.928  0.1380  0.4042 -0.2450
44944W        W87861   8.993  17.016  26.122 -0.0597  0.0458 -0.0674
44945W        W87862   7.412  21.140  23.905  0.3103  0.1468 -0.0308
44946W        W87863   7.134  22.879  24.330 -0.1844  0.4540  0.1558
44947W        W87864  11.139  20.804  27.121 -0.3134 -0.1684  0.0454
44948W        W87865  10.392  20.635  25.859  0.2647  0.4248  0.0299
44949W        W87866   7.282  22.016  24.416  0.0241  0.2204 -0.0761
44950W        W87867   9.147  20.443  27.182  0.2762  0.2597 -0.4817
44951W        W87868   9.645  21.095  26.852 -0.1955 -0.2071 -0.0602
44952W        W87869   7.879  24.423  23.690  0.2058 -0.0734 -0.0927
44953W        W87870   6.766  20.267  24.391  0.0881  0.0225  0.0889
44954W        W87871   6.748  19.216  24.663  0.1350 -0.0632 -0.0180
44955W        W87872   9.649  19.553  26.635  0.1010 -0.0696  0.1832
44956W        W87873   7.771  19.689  24.977 -0.2203  0.0282 -0.0757
44957W        W87874  10.146  18.604  24.768 -0.2741 -0.0172  0.1644
44958W        W87875   9.085  20.293  26.259  0.0014  0.0878 -0.1882
44959W        W87876   8.793  18.127  25.126  0.3780  0.1860  0.0154
44960W        W87877   6.514  21.683  24.980  0.1197  0.2940  0.2537
44961W        W87878   9.970  22.278  26.756  0.1184 -0.0903  0.3935
44962W        W87879   9.174  18.903  24.508 -0.2070  0.0552  0.1552
44963W        W87880   9.906  21.037  25.071 -0.2941  0.0959 -0.0358
44964W        W87881   7.119  18.433  26.451  0.1169 -0.0049 -0.0223
44965W        W87882   7.296  16.970  26.761  0.0798 -0.2954  0.1587
44966W        W87883   7.510  17.721  27.580  0.2161 -0.2769 -0.1805
44967W        W87884   7.878  18.706  24.699 -0.2264 -0.2109  0.1638
44968W        W87885  11.043  19.922  26.111 -0.1220 -0.2589 -0.0260
44969W        W87886   6.159  17.180  27.676 -0.1047 -0.0590  0.1969
44970W        W87887  10.713  18.412  27.225 -0.1502  0.1490 -0.2667
44971W        W87888   7.092  20.644  24.573  0.1231 -0.1713 -0.1105
44972W        W87889   6.977  20.988  24.163 -0.2576  0.2905 -0.1034
44973W        W87890  11.220  18.427  25.850  0.1115 -0.0708 -0.0271
44974W        W87891  10.009  21.523  25.314  0.3092 -0.1659  0.0367
44975W        W87892   9.398  21.266  27.740  0.4133  0.3452 -0.2971
44976W        W87893   9.713  20.582  24.957  0.1066 -0.3184  0.1362
44977W        W87894   9.185  19.335  26.652  0.1264 -0.3846 -0.0187
44978W        W87895   8.980  18.752  22.643  0.0417 -0.0087  0.0204
44979W        W87896   8.046  22.242  23.978 -0.1246  0.2983 -0.0543
44980W        W87897  10.510  21.286  26.428 -0.3238  0.0235  0.0267
44981W        W87898   8.911  17.668  25.337  0.2938  0.0177 -0.2571
44982W        W87899  11.526  20.764  26.216 -0.2620  0.0431  0.3622
44983W        W87900   9.303  20.082  25.792 -0.0125 -0.2237  0.2603
44984W        W87901   9.009  19.854  26.494  0.0340  0.1349 -0.0703
44985W        W87902   9.678  19.257  27.705  0.0912 -0.0503  0.0497
44986W        W87903  13.639  19.463  24.546  0.1344  0.1623  0.0002
44987W        W87904  10.312  19.300  25.971 -0.1985 -0.1209 -0.0150
44988W        W87905   9.298  17.485  24.293 -0.0456  0.1468 -0.1489
44989W        W87906   8.386  22.820  24.990 -0.2622 -0.0569  0.1553
44990W        W87907   8.539  21.340  24.748 -0.1615 -0.2372  0.1379
44991W        W87908   8.809  20.922  24.976  0.0115  0.3309  0.1674
44992W        W87909   7.466  21.651  25.354 -0.0721  0.3471  0.2289
44993W        W87910  11.283  17.591  24.306  0.2925 -0.0220 -0.0234
44994W        W87911   8.726  18.617  25.135  0.1166  0.0472 -0.0643
44995W        W87912  12.751  19.705  25.855  0.1210 -0.0743  0.0235
44996W        W87913   8.471  16.832  22.721  0.1618 -0.3587 -0.0847
44997W        W87914   9.743  19.104  26.475  0.4216  0.6119  0.0238
44998W        W87915   9.049  16.693  26.504 -0.0190 -0.1609  0.3084
44999W        W87916  11.828  18.497  24.052  0.1306  0.1926  0.0543
45000W        W87917  11.525  21.065  25.820  0.2518 -0.0138 -0.1463
45001W        W87918  10.334  21.650  24.493 -0.2336 -0.0592  0.2371
45002W        W87919   9.356  20.304  25.322  0.1374  0.1862 -0.2543
45003W        W87920   8.496  18.072  23.283 -0.2444 -0.0041 -0.2155
45004W        W87921   8.150  19.693  26.359 -0.0056  0.1904  0.3580
45005W        W87922   8.100  19.102  25.820  0.2433  0.2518 -0.1456
45006W        W87923   8.812  20.493  25.372 -0.0661 -0.2788 -0.0992
45007W        W87924   8.801  19.336  24.636  0.0690  0.0835 -0.0334
45008W        W87925  10.176  21.356  25.928  0.2692  0.4571  0.4691
45009W        W87926   7.133  20.430  28.081  0.1097 -0.2483  0.0394
45010W        W87927  11.011  19.917  27.588 -0.0029 -0.1139 -0.0962
45011W        W87928   9.313  19.595  27.062 -0.0600  0.1645 -0.0349
45012W        W87929   9.136  16.276  25.421 -0.0045 -0.0946 -0.3608
45013W        W87930   8.303  18.707  24.409  0.1146  0.0149 -0.3162
45014W        W87931  10.422  18.453  25.342  0.3493 -0.0618  0.3433
45015W        W87932   7.388  22.766  23.373 -0.4401  0.0592 -0.0750
45016W        W87933  10.154  19.445  26.478  0.2808 -0.0081  0.0625
45017W        W87934   9.644  17.322  26.472 -0.2766  0.1448  0.1048
45018W        W87935   7.306  17.014  26.236  0.1444  0.2049  0.2494
45019W        W87936  13.529  19.339  27.489 -0.1010  0.2205  0.0523
45020W        W87937  10.004  18.000  24.125  0.1184 -0.2272  0.0876
45021W        W87938  10.340  19.976  27.500 -0.0566 -0.3168  0.0661
45022W        W87939   8.595  20.442  24.734  0.3919 -0.2097 -0.0666
45023W        W87940  10.344  19.995  28.909 -0.0150 -0.0540 -0.3602
45024W        W87941   6.212  19.366  25.841  0.0547  0.2237  0.1141
45025W        W87942   6.866  22.005  24.683  0.1973  0.2658  0.1509
45026W        W87943  10.660  21.620  27.232 -0.1605  0.0358 -0.2901
45027W        W87944   9.777  20.105  25.938 -0.1984  0.0410 -0.4751
45028W        W87945   9.329  18.396  27.057 -0.1068 -0.0308 -0.1616
45029W        W87946  10.284  17.804  26.008 -0.0699  0.0975  0.2388
45030W        W87947   8.674  22.321  25.262  0.1666 -0.0000 -0.3838
45031W        W87948   7.599  22.689  24.690 -0.3843  0.1953 -0.0185
45032W        W87949   9.206  17.261  25.350 -0.1146  0.1111  0.0576
45033W        W87950   9.976  21.786  26.093  0.0974  0.0328 -0.1297
45034W        W87951   9.080  20.496  24.858 -0.0400  0.2994  0.4947
45035W        W87952   9.818  19.987  27.540  0.0877 -0.1879 -0.1825
45036W        W87953   9.503  21.415  24.835 -0.0466  0.3499  0.1003
45037W        W87954   9.331  17.779  26.735 -0.2593 -0.1994 -0.1779
45038W        W87955   7.451  22.116  25.942 -0.1366  0.0922 -0.4073
45039W        W87956   7.845  18.232  25.799  0.3831  0.0099 -0.3569
45040W        W87957   6.112  18.836  25.244 -0.2240  0.0282 -0.1752
45041W        W87958  10.120  18.419  24.282  0.3198  0.0352 -0.1355
45042W        W87959   9.824  16.829  27.444 -0.3562 -0.1252  0.2149
45043W        W87960   9.278  17.852  27.225 -0.0885 -0.1762  0.1778
45044W        W87961   8.841  15.879  27.502  0.0336 -0.0631  0.2027
45045W        W87962   7.081  19.086  26.308  0.0745 -0.2086 -0.1815
45046W        W87963  11.977  18.600  26.418 -0.2731  0.1064  0.2453
45047W        W87964  10.471  19.391  25.449 -0.0095  0.3744  0.1609
45048W        W87965  11.919  22.215  28.490  0.0632 -0.0176 -0.0175
45049W        W87966   9.336  20.971  28.124  0.1574 -0.2495 -0.2098
45050W        W87967   7.768  19.370  24.619 -0.1345  0.2988  0.0414
45051W        W87968  12.574  18.691  23.204 -0.1264  0.3064  0.0453
45052W        W87969   9.759  18.437  25.114  0.1853  0.1533  0.1922
45053W        W87970   7.918  20.389  25.245 -0.3545 -0.0644 -0.4351
45054W        W87971   9.701  19.679  27.967 -0.0122 -0.0555 -0.1632
45055W        W87972   7.580  20.689  24.983  0.0733  0.0754  0.4196
45056W        W87973   6.319  20.173  24.247 -0.0934 -0.0307 -0.0930
45057W        W87974   8.388  17.315  27.657 -0.0490 -0.0994 -0.1210
45058W        W87975  11.196  19.172  26.944 -0.0837 -0.0577 -0.0391
45059W        W87976   8.241  20.960  24.897  0.0583 -0.2094 -0.2891
45060W        W87977   7.264  15.903  26.663  0.1338  0.0061 -0.1855
45061W        W87978   8.032  18.171  23.571 -0.2444  0.3547 -0.1686
45062W        W87979  11.908  21.110  26.138  0.2931 -0.1777  0.0002
45063W        W87980   8.171  19.552  28.785  0.1590 -0.1045 -0.0664
45064W        W87981   8.650  22.496  26.249 -0.2508 -0.0200 -0.3798
45065W        W87982   9.835  17.791  26.443  0.0428  0.0472  0.0116
45066W        W87983  10.002  22.874  24.782 -0.0013  0.0800 -0.2329
45067W        W87984  10.320  18.214  27.524  0.1748  0.0555 -0.2176
45068W        W87985   8.079  21.395  23.941  0.0095  0.0325  0.0590
45069W        W87986   8.448  19.626  25.311  0.3106  0.0421  0.2254
45070W        W87987   8.309  22.626  24.149  0.0558  0.1463 -0.0878
45071W        W87988  11.413  19.410  25.398  0.1748  0.2272  0.0094
45072W        W87989   8.530  21.903  24.554  0.0480 -0.0934 -0.1242
45073W        W87990   7.864  19.134  24.187 -0.1794 -0.1236  0.1469
45074W        W87991   5.664  20.727  25.622  0.0344  0.1723  0.2828
45075W        W87992  11.135  17.628  21.885  0.2870  0.2113 -0.2497
45076W        W87993  10.187  19.712  27.102 -0.0809 -0.3319  0.1060
45077W        W87994  10.171  19.479  28.154 -0.1906  0.0954 -0.0141
45078W        W87995  10.043  17.268  27.237 -0.3362 -0.1826 -0.0021
45079W        W87996  10.786  19.260  26.523  0.0074 -0.2089 -0.0178
45080W        W87997  12.559  18.727  26.810 -0.0548  0.0102  0.0718
45081W        W87998   8.380  20.019  26.041  0.1228 -0.2868  0.0017
45082W        W87999  10.566  21.642  25.310  0.0844  0.4378  0.1232
45083W        W88000   8.032  20.091  26.582  0.0149 -0.0411  0.0398
45084W        W88001  10.210  19.872  26.130  0.1348 -0.0573  0.1386
45085W        W88002   7.935  19.574  27.416  0.1882  0.2167  0.1644
45086W        W88003   9.435  20.408  24.437  0.0035 -0.1004 -0.0354
45087W        W88004   8.973  19.542  25.085 -0.2727  0.0507  0.1192
45088W        W88005   7.556  20.670  26.385 -0.2000 -0.4377 -0.1506
45089W        W88006  10.835  20.404  27.546 -0.1920  0.0462  0.0154
45090W        W88007   8.748  21.567  24.264  0.0803 -0.0692  0.1424
45091W        W88008  11.541  19.505  27.744 -0.0346 -0.3127 -0.0201
45092W        W88009   7.128  19.062  24.941  0.2268  0.1393  0.2675
45093W        W88010  10.134  17.213  25.291  0.0622 -0.2469  0.0482
45094W        W88011   9.835  20.374  26.735 -0.3732  0.0442  0.0236
45095W        W88012   9.378  17.082  24.913  0.2747  0.0249 -0.0651
45096W        W88013   8.554  18.185  26.012  0.1470  0.0239 -0.1195
45097W        W88014   9.438  19.273  25.360 -0.0779 -0.0630 -0.0596
45098W        W88015   8.561  19.360  26.557 -0.0097 -0.0469 -0.0334
45099W        W88016  10.702  18.099  26.144  0.2912  0.1085  0.0494
45100W        W88017  10.570  18.318  26.636  0.1274  0.2444  0.1299
45101W        W88018  10.098  20.435  26.235  0.0957 -0.0660  0.1748
45102W        W88019  10.007  21.288  26.465 -0.0838  0.0070 -0.0685
45103W        W88020  10.074  23.153  25.651 -0.5634  0.4039  0.3477
45104W        W88021   9.191  17.844  24.983 -0.4101  0.1714 -0.1178
45105W        W88022  12.435  18.449  25.553 -0.0307  0.2331 -0.1337
45106W        W88023   9.212  18.923  26.341  0.1949  0.1476  0.0158
45107W        W88024   9.619  19.311  24.603 -0.0784  0.0671 -0.0475
45108W        W88025   8.157  18.420  26.963 -0.0590 -0.0878 -0.0862
45109W        W88026  12.842  20.761  24.686  0.2429  0.1233 -0.2565
45110W        W88027   9.589  19.614  25.672 -0.0576  0.0554 -0.0085
45111W        W88028  10.973  18.450  26.355 -0.0456  0.1005  0.1597
45112W        W88029   9.142  23.370  21.910  0.1912 -0.2272 -0.1198
45113W        W88030  10.260  18.949  25.200  0.1538 -0.1722  0.2387
45114W        W88031  10.113  19.544  24.387  0.2892 -0.0886 -0.2775
45115W        W88032   8.277  16.766  25.228  0.1042  0.3471 -0.1637
45116W        W88033   9.271  20.603  27.658 -0.4524 -0.1424  0.0190
45117W        W88034   8.225  17.242  22.543 -0.3873  0.1560 -0.1527
45118W        W88035   8.642  18.848  24.692  0.0385 -0.1008 -0.0145
45119W        W88036   9.592  21.756  25.261 -0.0400 -0.2324 -0.0702
45120W        W88037  13.151  20.079  26.507 -0.0157  0.2152 -0.1410
45121W        W88038   9.701  17.977  25.027  0.2803  0.1273  0.0700
45122W        W88039  11.622  20.511  28.342 -0.2333  0.1954  0.0167
45123W        W88040   6.597  20.704  24.460 -0.1149 -0.3303  0.1310
45124W        W88041   8.823  18.720  24.232  0.1090  0.0653 -0.1497
45125W        W88042   8.405  20.136  25.540  0.2322  0.1111 -0.1775
45126W        W88043   6.878  21.152  25.842  0.1236 -0.0374 -0.2788
45127W        W88044   8.002  21.831  24.394  0.1504  0.1383 -0.0595
45128W        W88045  10.894  19.259  27.914 -0.2862  0.2321  0.2405
45129W        W88046   8.891  20.000  25.559  0.0492 -0.0536 -0.1829
45130W        W88047  11.142  18.905  26.512  0.2861  0.0742 -0.0065
45131W        W88048  10.175  18.158  26.355 -0.1738 -0.3331  0.3118
45132W        W88049   9.080  19.037  27.866  0.0924 -0.1385  0.1645
45133W        W88050   8.411  19.578  27.281  0.0275  0.1452 -0.0047
45134W        W88051   9.261  22.789  27.406  0.1061 -0.2612  0.1163
45135W        W88052  10.961  19.438  25.871  0.1789  0.1294 -0.1605
45136W        W88053   8.358  17.178  23.697 -0.0064 -0.2124  0.1008
45137W        W88054   6.663  18.966  26.605  0.3388  0.0944 -0.1399
45138W        W88055   8.860  19.594  28.163 -0.1350 -0.0936 -0.0574
45139W        W88056  10.058  20.837  26.667 -0.2941  0.2114 -0.3189
45140W        W88057   8.178  17.322  25.970  0.1052  0.1746 -0.1019
45141W        W88058   9.998  21.816  24.034 -0.1800 -0.1352  0.0198
45142W        W88059  11.119  20.317  29.526  0.0183 -0.2020  0.0468
45143W        W88060   7.674  17.766  26.005 -0.0726  0.0519 -0.2322
45144W        W88061   6.718  22.084  24.150 -0.0115  0.2945  0.2942
45145W        W88062  10.107  19.684  25.690 -0.4366  0.2840 -0.1250
45146W        W88063   9.020  21.379  25.031 -0.0228 -0.3215 -0.1749
45147W        W88064   9.170  21.957  25.778 -0.1610 -0.2352 -0.0598
45148W        W88065   8.919  19.995  23.715 -0.0256 -0.0954 -0.1046
45149W        W88066   8.385  20.949  26.664 -0.1413 -0.1037  0.1433
45150W        W88067   8.419  23.142  24.582 -0.2093  0.1964 -0.2920
45151W        W88068  10.460  21.076  22.374  0.2540  0.5646 -0.1129
45152W        W88069   8.738  22.350  23.895  0.2662  0.1986  0.1768
45153W        W88070  10.954  20.371  24.750  0.2468  0.0291  0.2624
45154W        W88071   9.368  18.166  23.595 -0.1888  0.2416  0.2622
45155W        W88072  10.797  19.057  27.254  0.0420 -0.2234 -0.4208
45156W        W88073  11.484  18.813  26.099  0.0173  0.0969 -0.2767
45157W        W88074   9.517  21.874  28.311 -0.1624 -0.0718  0.1382
45158W        W88075   8.375  20.537  25.159 -0.0641 -0.1594  0.3131
45159W        W88076   9.343  18.350  24.837  0.0581 -0.2828 -0.1762
45160W        W88077  10.578  19.669  27.880 -0.1137 -0.1812  0.4087
45161W        W88078   8.782  17.353  25.835  0.0788 -0.0670 -0.0360
45162W        W88079   8.051  23.614  25.424 -0.2304  0.1932 -0.4693
45163W        W88080  10.422  20.119  24.690 -0.0675 -0.0331  0.0936
45164W        W88081   5.312  19.994  24.393  0.4259 -0.1887  0.0690
45165W        W88082   8.515  20.982  25.391 -0.1511  0.6243 -0.0055
45166W        W88083   9.983  17.424  26.111 -0.2841  0.0565  0.1881
45167W        W88084   8.576  19.950  24.536  0.0576 -0.0788 -0.0150
45168W        W88085   8.106  20.089  28.684 -0.1089  0.5070 -0.0065
45169W        W88086   6.865  21.468  25.456 -0.0850 -0.1326  0.1619
45170W        W88087   8.652  21.393  25.699  0.3028 -0.1377  0.1191
45171W        W88088   8.838  20.369  27.582  0.1403  0.0429 -0.3861
45172W        W88089   7.414  18.471  24.451 -0.2466 -0.3885 -0.1997
45173W        W88090   9.301  19.570  26.172  0.2315 -0.0335  0.1367
45174W        W88091   8.863  19.687  27.528  0.0202  0.0196  0.1143
45175W        W88092  12.697  17.179  26.046 -0.2039 -0.0390 -0.0938
45176W        W88093   9.367  20.944  25.013  0.0976  0.1216 -0.2066
45177W        W88094   9.174  15.911  24.986 -0.3209  0.0624  0.1541
45178W        W88095   8.841  20.838  26.900 -0.4197  0.0202  0.2121
45179W        W88096   8.469  19.572  27.787  0.2936  0.2103  0.2883
45180W        W88097   9.700  19.489  24.078 -0.0176  0.2002 -0.0621
45181W        W88098  10.997  20.967  26.355  0.1276 -0.2221 -0.0442
45182W        W88099  10.039  19.477  25.168  0.1141 -0.1252 -0.2885
45183W        W88100  11.092  20.990  27.768  0.1568 -0.0880 -0.0153
45184W        W88101   9.383  17.904  24.491 -0.2273 -0.0652 -0.0720
45185W        W88102  11.169  19.612  26.481  0.0663 -0.0838  0.0492
45186W        W88103   8.389  21.438  25.205 -0.1160  0.1026  0.1130
45187W        W88104   9.880  19.887  28.832  0.2149  0.1789 -0.4489
45188W        W88105  10.520  23.562  24.759 -0.2590  0.1185  0.1524
45189W        W88106   7.715  17.708  24.269  0.0325 -0.1408  0.1698
45190W        W88107   9.886  20.565  25.741 -0.1350 -0.3427 -0.1833
45191W        W88108  11.315  20.208  24.432  0.0674  0.2251  0.1039
45192W        W88109   8.274  21.387  24.371 -0.2786 -0.2350 -0.1682
45193W        W88110  12.164  20.093  27.414 -0.0983 -0.0420  0.1192
45194W        W88111   9.807  19.456  26.090  0.1079  0.0924  0.2377
45195W        W88112   7.958  18.729  26.569  0.1504  0.0279 -0.0455
45196W        W88113  12.254  21.140  26.901  0.0506 -0.0128  0.0428
45197W        W88114  13.045  22.579  28.011 -0.0775 -0.2457  0.2206
45198W        W88115   8.251  17.818  24.458  0.2476  0.2301 -0.0112
45199W        W88116   9.029  19.533  25.594  0.0968 -0.0597 -0.1509
45200W        W88117   7.279  21.579  23.580  0.0456 -0.2531 -0.3158
45201W        W88118  11.695  19.553  24.036 -0.3623  0.0049  0.0840
45202W        W88119  11.570  19.293  27.290  0.0821  0.2227 -0.3313
45203W        W88120   8.899  22.948  22.717 -0.0879  0.0645 -0.1064
45204W        W88121  10.620  16.880  26.698  0.0365  0.1826 -0.1006
45205W        W88122   9.612  20.384  27.326  0.0727  0.0564  0.5435
45206W        W88123  10.154  22.561  27.095  0.2880 -0.2022  0.1594
45207W        W88124   8.875  18.422  24.634  0.2866 -0.1087 -0.2798
45208W        W88125  12.081  20.216  27.969 -0.2162  0.2890  0.2228
45209W        W88126   9.188  22.436  25.346 -0.4735  0.3792  0.0128
45210W        W88127   8.386  21.879  24.038  0.0478 -0.0220 -0.0822
45211W        W88128  10.783  20.321  25.649  0.3754 -0.0430  0.2211
45212W        W88129   9.007  20.279  24.325  0.1442  0.2343  0.0948
45213W        W88130   8.628  22.350  23.361 -0.1928  0.0824 -0.3154
45214W        W88131   8.347  17.803  25.374  0.3076  0.2074  0.2393
45215W        W88132  10.735  18.261  24.491  0.0308  0.2207  0.4929
45216W        W88133  10.968  17.713  23.348  0.0149  0.0751  0.1411
45217W        W88134   8.098  21.270  28.563  0.1218 -0.0337  0.1689
45218W        W88135   8.173  16.412  24.151  0.0492 -0.0961 -0.2092
45219W        W88136   6.692  19.874  23.366  0.0128 -0.2125  0.2037
45220W        W88137   6.517  19.993  23.817  0.0550 -0.3085 -0.2037
45221W        W88138   8.686  18.490  27.019  0.0357  0.2077 -0.0290
45222W        W88139   8.232  17.802  25.836  0.1495  0.1112 -0.0245
45223W        W88140   8.567  20.029  26.491  0.2621 -0.0127 -0.0426
45224W        W88141   7.705  17.228  26.029 -0.0193 -0.0926  0.0347
45225W        W88142  10.626  23.727  23.184  0.1142 -0.0932  0.0644
45226W        W88143   7.919  18.562  27.506 -0.2971 -0.0033  0.0571
45227W        W88144   8.486  17.871  26.481 -0.0973 -0.1512  0.1141
45228W        W88145  10.084  20.952  23.268  0.2041 -0.0327  0.0274
45229W        W88146   9.607  19.637  24.957 -0.0865 -0.2844  0.1625
45230W        W88147   8.605  17.407  24.331  0.1585  0.1432 -0.1961
45231W        W88148  12.631  22.219  25.610 -0.0344  0.0553 -0.2478
45232W        W88149   6.077  20.396  23.771  0.2090  0.3052 -0.2683
45233W        W88150  12.285  21.312  26.433  0.2180  0.0838  0.2372
45234W        W88151   8.366  18.756  27.814 -0.0117  0.0736  0.1671
45235W        W88152   6.961  18.968  23.054 -0.3362 -0.1804 -0.0036
45236W        W88153   8.898  19.821  26.012  0.0938 -0.1364 -0.0024
45237W        W88154   5.727  23.161  25.616 -0.0006 -0.1604 -0.0360
45238W        W88155   9.238  22.114  23.811  0.0828 -0.1163  0.0723
45239W        W88156  11.457  21.476  25.440 -0.0349 -0.1361 -0.1833
45240W        W88157   9.585  21.251  24.127  0.2003  0.2814 -0.0246
45241W        W88158   8.456  17.298  25.494  0.1788  0.0254  0.1875
45242W        W88159  11.523  18.856  27.022 -0.2014  0.0909 -0.0487
45243W        W88160   7.674  19.850  27.124 -0.3119 -0.1389  0.2306
45244W        W88161  10.445  23.426  25.898  0.4987 -0.1221 -0.1088
45245W        W88162   8.735  20.144  22.435  0.2737  0.3204 -0.0840
45246W        W88163  10.104  16.698  25.168 -0.1987  0.2259  0.0250
45247W        W88164   7.488  18.735  26.268  0.1221 -0.0491  0.0964
45248W        W88165   9.025  20.756  26.204  0.0430  0.1477  0.1634
45249W        W88166  10.645  20.064  27.052  0.2078  0.2953  0.4636
45250W        W88167   9.634  17.310  25.759  0.0733 -0.0336  0.3244
45251W        W88168   9.606  18.590  26.563 -0.1939  0.0448  0.2191
45252W        W88169   9.593  20.536  23.558  0.1942 -0.1682  0.1828
45253W        W88170   9.362  18.713  25.629  0.2456  0.1603  0.1484
45254W        W88171   9.432  19.173  25.855 -0.0412 -0.1330 -0.1813
45255W        W88172  11.344  19.809  27.262 -0.1558  0.3649 -0.1367
45256W        W88173  11.116  21.579  27.381 -0.0433  0.1508  0.0571
45257W        W88174  11.131  22.250  28.022  0.0308 -0.0391  0.0362
45258W        W88175   9.488  20.919  24.509  0.1013  0.0383 -0.2099
45259W        W88176  12.542  21.054  24.410 -0.2657  0.1270  0.1453
45260W        W88177  11.703  22.038  26.742 -0.0245  0.2416 -0.0942
45261W        W88178  10.255  22.213  25.891  0.1498 -0.1687  0.1479
45262W        W88179   8.725  22.693  24.507  0.0266  0.1058  0.0680
45263W        W88180  12.115  19.910  26.087  0.1350  0.0934  0.1800
45264W        W88181   8.836  18.019  25.667  0.1447  0.0067 -0.1192
45265W        W88182   7.619  21.671  24.716  0.2273  0.2452  0.1267
45266W        W88183   8.317  19.445  24.699  0.0587 -0.2785 -0.0860
45267W        W88184   9.334  18.885  26.817  0.0279 -0.3100  0.0792
45268W        W88185   8.286  18.243  25.557 -0.1616  0.0787  0.1516
45269W        W88186  10.892  18.641  25.343 -0.2731 -0.1164  0.0578
45270W        W88187   9.430  22.318  24.635  0.1167 -0.1230  0.0445
45271W        W88188  12.870  21.446  25.437  0.1624 -0.0671 -0.2603
45272W        W88189   7.782  19.468  31.122 -0.0914 -0.3216  0.2396
45273W        W88190   8.880  18.029  29.712  0.0914 -0.1392  0.1475
45274W        W88191  11.797  21.273  27.246  0.1847 -0.2311  0.0373
45275W        W88192  10.530  20.866  27.737  0.1832  0.2210  0.3488
45276W        W88193   7.656  19.535  28.859 -0.0691  0.1304 -0.1351
45277W        W88194  10.182  19.363  29.684  0.1519 -0.1105 -0.1583
45278W        W88195  10.657  19.318  29.481 -0.3159 -0.0848  0.2939
45279W        W88196  10.878  20.839  28.196 -0.2472 -0.3824  0.1172
45280W        W88197   8.364  22.143  28.606 -0.0980 -0.0380  0.2647
45281W        W88198  11.350  21.976  27.628 -0.0112  0.0333  0.0987
45282W        W88199   7.596  18.724  30.457  0.2308  0.1245  0.0368
45283W        W88200   7.424  19.782  29.939 -0.1518  0.1477 -0.0341
45284W        W88201   8.700  19.068  27.435 -0.1783 -0.0690 -0.2172
45285W        W88202   8.989  18.272  28.747 -0.0524  0.2141  0.0258
45286W        W88203  10.406  17.701  27.451  0.0150 -0.0683 -0.0201
45287W        W88204   7.697  18.509  27.059 -0.2374 -0.3751 -0.1263
45288W        W88205   7.290  19.115  30.503  0.0075  0.1573  0.0901
45289W        W88206   9.454  17.824  28.963  0.3308 -0.0794  0.0432
45290W        W88207   8.749  22.752  28.262  0.1690  0.0218  0.1284
45291W        W88208   9.131  19.225  29.889 -0.0997  0.1148 -0.0852
45292W        W88209  10.075  17.816  27.840 -0.0971  0.1012 -0.3665
45293W        W88210  11.266  21.485  27.833 -0.0299 -0.1617  0.2700
45294W        W88211   6.890  20.432  27.186  0.1099 -0.0474  0.0424
45295W        W88212   8.514  20.933  28.738 -0.0523  0.1893  0.2166
45296W        W88213   9.114  21.394  29.217 -0.5985 -0.0097 -0.0631
45297W        W88214  12.506  16.721  29.025  0.1634  0.1755  0.0623
45298W        W88215  13.015  21.497  29.751 -0.0975 -0.0162 -0.0517
45299W        W88216   8.870  22.735  29.713  0.0914 -0.2270 -0.3313
45300W        W88217   9.266  20.510  29.054  0.2292  0.2273  0.1128
45301W        W88218  10.677  19.114  31.625 -0.3358 -0.0061 -0.0561
45302W        W88219   9.149  21.862  29.243  0.2123 -0.2979  0.3782
45303W        W88220   8.937  21.086  27.835 -0.1906  0.1770  0.3347
45304W        W88221   8.821  22.413  26.706 -0.0135  0.0208  0.0027
45305W        W88222  10.819  19.828  29.339 -0.0364 -0.0992  0.0138
45306W        W88223  11.222  22.067  30.361  0.0266  0.3288  0.1457
45307W        W88224   9.142  20.944   0.238  0.2366  0.1855 -0.1486
45308W        W88225   8.892  19.381  28.933  0.1289 -0.2661 -0.0149
45309W        W88226  11.098  23.701  29.670 -0.0506  0.1186  0.1135
45310W        W88227   9.342  19.500   1.033  0.0373  0.1068 -0.2131
45311W        W88228   9.194  19.861  30.355  0.1810  0.1429 -0.3188
45312W        W88229  13.259  19.629  28.220 -0.0406  0.1629  0.3133
45313W        W88230  10.245  19.618  28.641  0.1364  0.0400 -0.1677
45314W        W88231   9.622  20.517  29.368  0.5646  0.0580 -0.0738
45315W        W88232   8.995  18.919  30.699  0.0407  0.0033  0.1152
45316W        W88233   8.096  20.034  29.752 -0.2503 -0.0835  0.4427
45317W        W88234  11.413  19.995   0.299  0.4130  0.1338  0.0810
45318W        W88235  11.272  24.420  27.133  0.5685 -0.2504  0.2337
45319W        W88236  13.185  19.573  27.183  0.1461 -0.1086  0.1601
45320W        W88237  12.428  21.744  25.508 -0.2778  0.0647  0.1670
45321W        W88238   9.107  18.454  26.662 -0.0328  0.1772 -0.0637
45322W        W88239  10.441  18.806  29.684  0.1915 -0.0575 -0.0203
45323W        W88240   8.265  18.973  28.763 -0.1054 -0.1720  0.0500
45324W        W88241   9.058  18.851  30.184  0.1394 -0.0698 -0.1206
45325W        W88242  11.144  20.935  29.480  0.0638 -0.0594  0.2167
45326W        W88243  10.961  17.974  26.611  0.1399  0.1111  0.1901
45327W        W88244  10.638  20.230  27.947 -0.0259 -0.3658 -0.1654
45328W        W88245   8.657  23.080  31.003 -0.0617 -0.1483  0.3613
45329W        W88246   7.596  18.531  29.263 -0.2490 -0.1621 -0.0246
45330W        W88247   9.688  20.933  29.618 -0.1123  0.0660  0.4994
45331W        W88248  10.272  22.944  27.624  0.0484 -0.2406  0.1245
45332W        W88249  10.222  20.572  28.083  0.1201 -0.0515 -0.1376
45333W        W88250   9.030  17.985  26.167 -0.0443 -0.0199 -0.2575
45334W        W88251  10.549  20.918  30.756  0.0336  0.1668 -0.0463
45335W        W88252   9.667  18.658  29.401 -0.0052  0.1588 -0.5437
45336W        W88253   8.074  19.413  28.007 -0.0790 -0.3036 -0.1351
45337W        W88254  12.430  21.696  28.913 -0.2937  0.0087  0.2070
45338W        W88255   8.027  20.282  28.197  0.0857  0.2591 -0.1512
45339W        W88256  13.797  18.215  26.136 -0.0486  0.0896 -0.0939
45340W        W88257   8.359  19.806  28.269 -0.1151  0.1727 -0.1212
45341W        W88258  12.005  19.189  27.065  0.0155  0.0489 -0.0508
45342W        W88259  11.988  22.504  26.735 -0.1538  0.2827 -0.0468
45343W        W88260  11.778  18.603  30.200  0.5500  0.1067 -0.0011
45344W        W88261  10.919  18.505  30.756  0.0090 -0.0124 -0.1193
45345W        W88262   7.638  20.587  27.871 -0.2617 -0.1106  0.1310
45346W        W88263   7.948  20.287  27.032 -0.0330  0.0077  0.2716
45347W        W88264  11.699  21.985  30.048  0.2154  0.2115  0.0379
45348W        W88265  11.668  20.760  27.167  0.0171 -0.0761 -0.0066
45349W        W88266   6.898  22.689  31.095  0.3572  0.1488 -0.4591
45350W        W88267  10.681  18.756  31.181  0.0211 -0.0326  0.1198
45351W        W88268  10.820  21.699  31.772 -0.0650  0.1633  0.1389
45352W        W88269   8.180  18.475  28.523  0.0712 -0.3581 -0.0484
45353W        W88270   9.350  21.653  31.325  0.1223 -0.2562 -0.0806
45354W        W88271   8.172  20.906  27.120 -0.1130  0.3055  0.1159
45355W        W88272   8.301  19.063  29.619 -0.1837 -0.2008  0.0191
45356W        W88273   9.736  19.529  28.468  0.0503  0.2513  0.2892
45357W        W88274  12.243  18.348  27.243 -0.2031  0.1415  0.3064
45358W        W88275   7.277  18.720  29.579 -0.3779 -0.3079 -0.1472
45359W        W88276  10.401  16.978  27.486  0.1413 -0.0337 -0.2566
45360W        W88277   7.081  20.457  26.274  0.0534  0.1604  0.0236
45361W        W88278  12.152  20.455  26.977  0.0865 -0.1254  0.3710
45362W        W88279  11.796  20.092  27.070 -0.0776  0.0301 -0.1838
45363W        W88280  13.620  18.512  27.567  0.2945 -0.1248  0.0675
45364W        W88281   7.235  19.308  30.918 -0.3707  0.0185 -0.3696
45365W        W88282   9.994  19.712  29.964 -0.1610  0.1495  0.0133
45366W        W88283   9.292  19.883  28.318 -0.1057 -0.1419 -0.1965
45367W        W88284   6.581  17.553  29.147  0.3968 -0.3327 -0.3570
45368W        W88285  11.797  19.885  29.997 -0.0954  0.1461 -0.2524
45369W        W88286   7.132  19.540  27.795 -0.0180  0.0709 -0.0485
45370W        W88287  12.025  19.223  28.037 -0.1355  0.3355  0.0428
45371W        W88288   9.056  19.362  30.379  0.0981  0.1201 -0.1150
45372W        W88289   6.559  18.573  27.233  0.1642 -0.2586  0.0228
45373W        W88290  11.235  18.388  28.317  0.0118 -0.0233  0.1906
45374W        W88291   9.975  20.905  26.125  0.1886  0.2092 -0.2276
45375W        W88292  11.605  21.738  30.502 -0.1634 -0.0637  0.2701
45376W        W88293   8.536  19.402  28.500 -0.0689  0.1107 -0.4212
45377W        W88294   8.313  18.724   0.390  0.2476 -0.3104  0.0514
45378W        W88295   7.239  19.789  25.721 -0.1611  0.0198  0.2965
45379W        W88296   9.236  22.706  28.743 -0.1275 -0.2128  0.0157
45380W        W88297   7.985  22.877  30.057 -0.0814 -0.1467 -0.2416
45381W        W88298  10.253  18.043  29.128 -0.1296 -0.0375  0.0043
45382W        W88299  10.282  21.391  28.524 -0.1544 -0.1049 -0.3514
45383W        W88300   8.207  19.284  30.322 -0.2164 -0.2166 -0.2498
45384W        W88301   9.321  21.511  30.102 -0.0919 -0.2592  0.0969
45385W        W88302   9.796  17.171  31.650 -0.0278 -0.0201 -0.1138
45386W        W88303  11.933  18.919  29.827 -0.1976 -0.2944  0.2307
45387W        W88304  11.866  18.610  28.677 -0.4389  0.0873 -0.1725
45388W        W88305   9.065  15.784  29.328  0.1820 -0.1175 -0.3370
45389W        W88306  10.486  22.708  29.645  0.1021  0.0132 -0.4170
45390W        W88307   9.184  22.334  29.424 -0.1416  0.2902 -0.1570
45391W        W88308   8.055  21.341  30.157  0.2700  0.1192  0.0762
45392W        W88309   8.922  19.854  29.253 -0.2867 -0.1340  0.2587
45393W        W88310  12.317  18.550  28.425 -0.1370  0.0973  0.0217
45394W        W88311   4.691  18.238  30.545 -0.2192  0.1785  0.0550
45395W        W88312   9.082  19.491   0.058  0.0062  0.2517 -0.0885
45396W        W88313   8.320  17.104  28.190 -0.1071  0.1047 -0.1864
45397W        W88314   7.821  20.504  30.665 -0.0123 -0.4631  0.3585
45398W        W88315  11.516  19.005  27.775 -0.1335 -0.1942 -0.2690
45399W        W88316  12.956  19.312  25.346  0.1100  0.2715 -0.1281
45400W        W88317   8.162  20.734  30.934 -0.1047  0.1162 -0.0281
45401W        W88318   9.320  22.241  28.943  0.2482  0.3523 -0.0394
45402W        W88319  10.036  18.424  28.431  0.3183 -0.1215  0.1017
45403W        W88320  10.150  16.705  27.867  0.1453 -0.2492 -0.2451
45404W        W88321   6.658  20.002   0.104 -0.0037 -0.2386 -0.2154
45405W        W88322  10.657  20.459  28.503  0.1782 -0.3825  0.0452
45406W        W88323   9.454  19.415  30.865  0.0916 -0.0460  0.0807
45407W        W88324  10.736  19.691  28.872 -0.1169 -0.1971  0.6316
45408W        W88325  13.732  23.743  26.793 -0.1286  0.0874 -0.1779
45409W        W88326   9.204  20.297  30.035 -0.0088 -0.1439 -0.2726
45410W        W88327  10.621  20.442  29.690  0.2030 -0.2076  0.2246
45411W        W88328   9.992  21.002  29.187 -0.1279 -0.2607 -0.0414
45412W        W88329   8.604  19.878  30.885 -0.1221  0.0706  0.2645
45413W        W88330  10.704  18.794  27.734 -0.3812 -0.0560 -0.0833
45414W        W88331   9.852  18.825  31.647  0.1267 -0.1250  0.2542
45415W        W88332   9.200  20.435  28.259 -0.1967  0.1726 -0.0388
45416W        W88333  11.685  17.774   0.044  0.0773  0.0431  0.6105
45417W        W88334   9.909  19.313  28.923  0.0676 -0.4012 -0.1447
45418W        W88335   8.549  17.746  31.423 -0.2213  0.0205  0.0715
45419W        W88336  11.198  18.000  30.309  0.1226  0.1225 -0.0752
45420W        W88337  10.393  19.983  28.337  0.0410 -0.0122  0.2818
45421W        W88338  10.201  20.864  28.640  0.0825 -0.0252  0.0329
45422W        W88339   8.428  20.055  27.409 -0.1472 -0.1884  0.0104
45423W        W88340   9.945  17.639  29.296  0.1226  0.1051  0.3211
45424W        W88341   7.824  19.611  29.590  0.1173  0.3164  0.0081
45425W        W88342   9.141  20.981  31.717  0.1494 -0.1325 -0.2336
45426W        W88343   9.744  20.661  28.895  0.2772 -0.2464  0.1658
45427W        W88344   9.859  18.737  28.957  0.0599 -0.0909  0.1402
45428W        W88345  10.259  17.547  28.256 -0.1890 -0.1298 -0.1476
45429W        W88346   8.177  16.489  28.403  0.4065  0.1547 -0.1358
45430W        W88347   8.315  19.932  26.945  0.3460  0.4966  0.0675
45431W        W88348  10.097  19.569  27.628  0.2039 -0.1079 -0.2517
45432W        W88349   9.738  21.189  28.830 -0.0383 -0.0032  0.0713
45433W        W88350   9.976  21.211  27.751 -0.2209 -0.2443 -0.0413
45434W        W88351   8.815  19.950  27.062  0.3855 -0.3202  0.1302
45435W        W88352  10.437  19.322  28.983  0.1895 -0.1002 -0.3389
45436W        W88353   8.498  21.568  28.375  0.1739  0.0546 -0.0648
45437W        W88354  11.741  20.196  30.993  0.1968 -0.2482 -0.0678
45438W        W88355   9.560  21.701  28.935 -0.0021  0.1699 -0.2075
45439W        W88356   9.372  18.481  29.008 -0.0437 -0.0842  0.4740
45440W        W88357   7.321  18.477  28.798  0.4510  0.0248 -0.1994
45441W        W88358  12.705  19.607  28.931 -0.2373  0.2468  0.1034
45442W        W88359   9.887  21.905  27.065 -0.0212 -0.0252 -0.1504
45443W        W88360   6.996  18.433  31.914 -0.1041 -0.3755  0.1634
45444W        W88361  10.484  19.853  29.725  0.4518  0.3767 -0.1918
45445W        W88362   8.493  20.015  31.436  0.0609  0.2059 -0.0217
45446W        W88363   9.028  21.226  31.304  0.0350 -0.2469 -0.0081
45447W        W88364  12.653  16.345  28.149 -0.1885  0.4330 -0.2999
45448W        W88365  13.701  20.733  28.371  0.0005  0.0997 -0.2107
45449W        W88366   9.625  20.035  29.727 -0.1751  0.3258  0.3310
45450W        W88367   9.942  19.069  28.182  0.2253 -0.1384  0.1482
45451W        W88368  10.670  18.881  29.129 -0.1083  0.0557 -0.0359
45452W        W88369   8.903  19.005  28.406  0.0502 -0.1116  0.2483
45453W        W88370   8.416  20.423  26.905 -0.1746 -0.0445 -0.5203
45454W        W88371   9.557  21.388  28.368 -0.0193 -0.0995 -0.0323
45455W        W88372   9.286  18.988  29.386 -0.2522 -0.2084  0.0261
45456W        W88373   8.668  22.236  27.159 -0.0567 -0.0139  0.0921
45457W        W88374  10.352  18.214  31.580  0.1253  0.3296  0.2267
45458W        W88375   9.723  21.551  30.979  0.4008  0.2018 -0.2896
45459W        W88376   9.417  19.251  28.154 -0.0899  0.0185 -0.1491
45460W        W88377   7.139  17.987  28.948 -0.3357  0.1675  0.0898
45461W        W88378  11.587  19.268  28.201  0.0788 -0.2206 -0.0683
45462W        W88379  13.996  21.940  27.147  0.3699 -0.4828  0.2897
45463W        W88380  10.129  18.574  31.242 -0.3544 -0.1518  0.2366
45464W        W88381  10.316  19.875  31.175  0.1259 -0.2389  0.1488
45465W        W88382   9.988  18.838  27.669 -0.1787 -0.0541  0.1586
45466W        W88383  11.251  22.630  27.119 -0.0271  0.0128 -0.1960
45467W        W88384  10.268  17.674  26.970  0.1121  0.2856 -0.1311
45468W        W88385   7.291  21.055  26.602  0.1144  0.1336 -0.1419
45469W        W88386   8.599  21.812  30.606  0.1806 -0.4272 -0.2970
45470W        W88387   9.643  18.376  29.847  0.0033  0.0771 -0.0766
45471W        W88388   9.953  19.685  31.521 -0.0284  0.4392  0.0989
45472W        W88389  10.155  20.909  29.853  0.0976 -0.0462 -0.1186
45473W        W88390   8.274  19.035  28.306 -0.0042  0.4092 -0.3392
45474W        W88391   9.211  19.912  30.851  0.0002 -0.1171  0.1356
45475W        W88392  11.754  18.129  27.379 -0.1542  0.0154 -0.0833
45476W        W88393  11.377  20.368  27.333 -0.1872  0.0535 -0.2571
45477W        W88394   8.020  20.560  26.530 -0.1133  0.1108 -0.0307
45478W        W88395  11.818  18.507   1.642 -0.1120  0.0809  0.0071
45479W        W88396  10.941  19.991  28.449 -0.0566  0.1101 -0.3579
45480W        W88397   9.744  17.366  30.677 -0.1340  0.1462 -0.1324
45481W        W88398   6.105  17.776  29.377  0.0355 -0.0259 -0.2392
45482W        W88399  10.102  20.101  27.940  0.1119 -0.3264 -0.0264
45483W        W88400   8.405  18.418  29.505 -0.2925  0.1162 -0.0175
45484W        W88401  11.995  23.555  31.792 -0.0712  0.3804 -0.2271
45485W        W88402   6.833  18.986  30.649 -0.1239 -0.2873 -0.2082
45486W        W88403  12.130  20.147  29.488  0.3171 -0.1157 -0.1006
45487W        W88404   8.109  19.170  26.300 -0.1624 -0.1589 -0.0663
45488W        W88405   8.683  20.398  31.011 -0.0367  0.1785  0.1547
45489W        W88406  11.126  19.682  28.008  0.2785 -0.3892  0.0306
45490W        W88407  10.352  22.042  27.060  0.0132  0.2988  0.1900
45491W        W88408  10.393  18.389  28.788  0.1488 -0.1603  0.0770
45492W        W88409   8.059  20.916  29.666 -0.1088 -0.1225  0.0860
45493W        W88410   9.526  18.518  28.571 -0.0872 -0.1152 -0.1198
45494W        W88411   9.217  19.991  27.395  0.1677 -0.1354 -0.3199
45495W        W88412  10.630  20.954  29.613 -0.0002 -0.0451 -0.3048
45496W        W88413   9.516  19.087  30.287  0.0199 -0.0019 -0.0576
45497W        W88414  11.073  19.400  29.191  0.0058 -0.2441  0.0523
45498W        W88415  11.565  19.266  28.674  0.1909  0.2150 -0.2965
45499W        W88416   9.962  17.766  31.693  0.0499 -0.2414 -0.4176
45500W        W88417  12.186  18.958  28.979  0.2195 -0.1289  0.4802
45501W        W88418  10.924  18.972  29.953 -0.1065  0.2291 -0.1873
45502W        W88419   8.707  19.286  31.233 -0.0288  0.2158 -0.0350
45503W        W88420  10.300  21.310  29.564 -0.2757 -0.1369  0.1019
45504W        W88421  12.037  19.613  26.842 -0.2384 -0.1944 -0.1602
45505W        W88422  11.318  19.731  30.246  0.0580  0.2903 -0.1091
45506W        W88423  13.575  20.569  27.150 -0.1763  0.2407 -0.0254
45507W        W88424   8.877  20.879  29.035 -0.0008 -0.1259  0.3194
45508W        W88425   7.813  17.739  30.402  0.0480  0.5129 -0.4149
45509W        W88426   8.972  19.455  30.871 -0.1065  0.1230  0.0387
45510W        W88427   8.720  16.304  27.202 -0.1669  0.0560  0.0449
45511W        W88428  11.863  20.867  30.088  0.2355 -0.1172  0.0091
45512W        W88429  11.018  21.970  29.204  0.3586  0.1128 -0.2453
45513W        W88430  11.368  20.180  28.786  0.0495 -0.2172  0.0672
45514W        W88431  11.658  20.390  26.693  0.0685  0.0578  0.0964
45515W        W88432   6.872  19.939  29.103 -0.4847 -0.0857 -0.0688
45516W        W88433   7.293  23.309   1.516  0.2892 -0.0583  0.2429
45517W        W88434   8.057  18.454  28.040  0.1613 -0.2574  0.3318
45518W        W88435  10.197  18.966  26.331  0.2268 -0.1591  0.2657
45519W        W88436   9.451  20.507  30.387  0.3181  0.0551  0.2133
45520W        W88437  10.747  22.410  30.553 -0.0682  0.0642 -0.2314
45521W        W88438   9.617  17.986  27.622 -0.1957  0.0979 -0.2319
45522W        W88439  10.006  18.086  31.198  0.1616  0.0750  0.2791
45523W        W88440   8.202  19.952  30.490  0.0811  0.2275 -0.1420
45524W        W88441  11.099  19.209  28.373 -0.2065 -0.0164  0.2915
45525W        W88442   8.247  20.431  31.392  0.2762  0.0142  0.2308
45526W        W88443   7.782  19.525   0.138 -0.0214  0.2077 -0.1128
45527W        W88444   9.476  22.594  30.249  0.3081  0.1603 -0.3265
45528W        W88445   9.889  16.534  28.282  0.1046  0.0839 -0.0290
45529W        W88446  12.946  19.313  27.611 -0.0173  0.2368  0.3524
45530W        W88447   8.011  20.923  30.465 -0.1932 -0.3456 -0.2642
45531W        W88448  11.081  19.279  31.921  0.2929 -0.2042 -0.1896
45532W        W88449   9.903  22.305  30.232 -0.0370  0.2772 -0.0001
45533W        W88450   8.379  20.288  27.855 -0.5427 -0.0827  0.0108
45534W        W88451  12.448  20.444  28.178 -0.1342 -0.1683 -0.2987
45535W        W88452   9.273  19.636  27.766 -0.0996 -0.2145 -0.3322
45536W        W88453   9.854  19.661  29.469  0.0541  0.0642  0.1472
45537W        W88454   7.934  18.309  30.719  0.0129 -0.1318 -0.1619
45538W        W88455  10.117  20.278  29.728  0.2616 -0.2510  0.0686
45539W        W88456  12.882  20.319  28.643 -0.0911  0.1476  0.2567
45540W        W88457   8.184  19.087  27.495  0.1754  0.2574  0.0168
45541W        W88458   9.839  20.146  30.229 -0.0723  0.0314  0.4192
45542W        W88459   7.022  17.950  31.831 -0.0400 -0.1793  0.1584
45543W        W88460   9.441  20.244  31.884  0.1111  0.1798  0.2167
45544W        W88461   9.468  20.261  28.668  0.0319  0.1280  0.1367
45545W        W88462  10.657  22.115  27.468  0.3765 -0.1683  0.0473
45546W        W88463  10.093  21.421  26.917  0.4820 -0.1541 -0.3260
45547W        W88464   8.980  22.770  30.220 -0.1511 -0.0390 -0.1787
45548W        W88465   8.765  19.443  26.982 -0.0580 -0.1962 -0.0616
45549W        W88466  11.111  20.192  28.042 -0.0275 -0.4465  0.2386
45550W        W88467   8.777  21.902  26.746 -0.0360 -0.0743 -0.0088
45551W        W88468   9.259  20.089  26.797  0.0428  0.0176  0.0720
45552W        W88469   9.332  22.841  28.220 -0.2646  0.0437 -0.0606
45553W        W88470  11.375  19.765  29.775 -0.0654 -0.1965 -0.2631
45554W        W88471  11.859  18.096  28.728 -0.0455 -0.2519 -0.0445
45555W        W88472  12.838  20.983  25.344 -0.0588  0.0394  0.2003
45556W        W88473  12.449  18.217  26.736 -0.0272 -0.0500 -0.1608
45557W        W88474  10.075  21.228  30.739 -0.0197 -0.0877  0.2019
45558W        W88475   9.162  19.084  31.163  0.0689 -0.0895 -0.0373
45559W        W88476   8.375  18.648  27.321 -0.1208  0.0234 -0.4138
45560W        W88477   8.408  18.127  28.207 -0.2763 -0.1078  0.2022
45561W        W88478  10.497  19.288  30.646  0.1097 -0.1533 -0.2864
45562W        W88479   8.861  21.862  31.726 -0.0976 -0.3532  0.2382
45563W        W88480  13.057  22.171  29.212  0.4011 -0.1268 -0.0085
45564W        W88481   9.217  19.463  28.556 -0.0769 -0.1011  0.0355
45565W        W88482   7.898  21.418  29.659  0.1681 -0.1191  0.0282
45566W        W88483  10.921  19.650  30.885 -0.0395 -0.0025  0.0779
45567W        W88484  12.296  20.121  25.197  0.0894 -0.4146  0.0311
45568W        W88485  11.390  20.539  27.882  0.0842 -0.0033  0.2006
45569W        W88486   9.402  21.586  27.165 -0.0617 -0.3178 -0.3100
45570W        W88487   8.266  18.393  29.038  0.0615  0.3515  0.0747
45571W        W88488   8.774  20.109  30.487 -0.3297  0.1623 -0.0757
45572W        W88489   7.232  19.246  29.657  0.1732  0.3061  0.5193
45573W        W88490  10.218  19.002  29.268  0.0082 -0.3448  0.0230
45574W        W88491  11.724  20.058  30.497  0.0204  0.0048 -0.1992
45575W        W88492  11.545  18.657  29.442  0.0529  0.0630  0.1789
45576W        W88493  10.400  19.194  27.798  0.2218 -0.1183  0.0562
45577W        W88494  12.389  17.053  27.342  0.2347  0.2339  0.2154
45578W        W88495  10.106  21.103  31.238 -0.1320  0.0007 -0.1377
45579W        W88496   8.570  18.928  29.185 -0.0088  0.0028  0.1308
45580W        W88497  10.045  20.796  27.152  0.1987  0.0759 -0.2324
45581W        W88498  11.729  20.663  28.844  0.0414  0.0606  0.0903
45582W        W88499  14.047  19.295  27.585 -0.1141  0.0255  0.1172
45583W        W88500   9.630  22.237  29.775  0.0773  0.2259 -0.1790
45584W        W88501   6.571  19.980  27.050  0.0665 -0.0312 -0.2657
45585W        W88502  10.848  19.214  28.801  0.1933  0.0183  0.6044
45586W        W88503   6.396  19.490  29.386 -0.1831 -0.1833 -0.1748
45587W        W88504   8.621  18.722  30.443  0.0128 -0.0960 -0.0160
45588W        W88505  10.131  22.355  29.463  0.0833  0.4130 -0.0698
45589W        W88506  10.666  19.484  28.345 -0.2933  0.0080  0.2310
45590W        W88507  12.409  20.066  28.814 -0.0000 -0.1809  0.0496
45591W        W88508  11.312  15.476  29.493 -0.3029  0.1215  0.1708
45592W        W88509   8.733  22.000  27.617 -0.0236 -0.2585  0.0084
45593W        W88510  10.557  19.490  27.377  0.1654  0.0010 -0.2968
45594W        W88511  11.308  20.944  28.712  0.1061  0.0578  0.3464
45595W        W88512   6.876  19.024  30.021  0.1996  0.2271 -0.3508
45596W        W88513   9.347  22.687  29.756 -0.4728 -0.0290 -0.0939
45597W        W88514  12.112  21.692  28.439 -0.0725 -0.1061 -0.1461
45598W        W88515   8.596  18.617  28.265  0.0180  0.0005  0.5913
45599W        W88516   8.597  19.134  27.980  0.1479 -0.0294  0.1009
45600W        W88517  10.442  22.052  27.911 -0.1492 -0.0961  0.0335
45601W        W88518  10.784  21.792  29.719  0.3918 -0.1183 -0.3066
45602W        W88519   9.107  19.563  31.337 -0.0251  0.0980  0.0359
45603W        W88520   8.708  21.924  25.586  0.1179  0.2214 -0.1603
45604W        W88521  11.338  18.912  30.541 -0.2014 -0.2636  0.2573
45605W        W88522   8.994  21.779  28.585 -0.0615  0.2531  0.0824
45606W        W88523  10.490  20.939  31.648  0.1223  0.0316  0.3330
45607W        W88524   7.305  19.492  26.256  0.0454  0.1442  0.2382
45608W        W88525  10.565  20.758  30.108  0.4828 -0.0677 -0.1182
45609W        W88526   9.947  21.987  28.672  0.0446 -0.2936  0.0672
45610W        W88527   9.665  22.035  29.267  0.3422  0.6094  0.0237
45611W        W88528  10.750  20.969  28.688 -0.1343  0.2051  0.0475
45612W        W88529   9.751  18.162  26.838  0.0815 -0.1065  0.0205
45613W        W88530  11.654  19.595  29.015 -0.0581 -0.0456  0.1166
45614W        W88531   9.481  18.788  28.116 -0.0015 -0.0837  0.3042
45615W        W88532  13.295  19.082  27.903 -0.1207 -0.0111 -0.0377
45616W        W88533  11.248  18.254  27.448 -0.4300 -0.1650 -0.1473
45617W        W88534  10.445  19.537  30.112  0.2414 -0.4299  0.1380
45618W        W88535   7.530  18.702  27.887 -0.2079 -0.0964  0.1041
45619W        W88536   9.985  20.170  29.263 -0.0977 -0.0105  0.1217
45620W        W88537   7.727  19.113   1.314  0.2299  0.0906 -0.1294
45621W        W88538   9.871  17.459  31.289 -0.1192  0.0645  0.1661
45622W        W88539   9.627  20.174  30.788 -0.0110  0.0691 -0.1764
45623W        W88540   8.343  19.597  29.748 -0.3646  0.3024 -0.2330
45624W        W88541  12.226  19.782  27.754  0.2088 -0.0659 -0.2797
45625W        W88542  12.768  19.686  27.948 -0.0207  0.0094  0.0412
45626W        W88543   9.908  18.375  27.838 -0.2618  0.1202  0.2640
45627W        W88544   6.328  18.783  28.260  0.0742  0.0351  0.0114
45628W        W88545   9.433  18.633  30.501  0.0706  0.2179  0.0589
45629W        W88546  11.806  20.380  27.599  0.0864  0.1065  0.0306
45630W        W88547  10.223  19.158  27.333 -0.1468 -0.2327  0.1545
45631W        W88548  11.607  21.948  28.087 -0.2273  0.0883  0.0011
45632W        W88549   9.766  20.563  28.237 -0.0397  0.1574  0.0724
45633W        W88550   8.452  19.231   0.468  0.0873  0.0412  0.1700
45634W        W88551  10.709  16.151  30.600  0.1849 -0.0293  0.1295
45635W        W88552   7.996  17.706  28.730  0.0821 -0.0241 -0.2667
45636W        W88553  10.816  18.788  28.536  0.1462 -0.0297  0.2368
45637W        W88554  14.226  18.817  27.383 -0.0044 -0.1068  0.1049
45638W        W88555  10.434  20.777  26.344 -0.2793  0.0209 -0.1672
45639W        W88556   9.433  19.348  28.997 -0.1200  0.1865 -0.0741
45640W        W88557   8.638  21.390  31.500  0.3807 -0.0674 -0.3190
45641W        W88558   6.102  17.486  29.784 -0.1241 -0.1415 -0.1026
45642W        W88559  10.307  18.890  28.738 -0.0259 -0.0532 -0.2341
45643W        W88560  10.826  21.310  31.386 -0.0643 -0.1345  0.2180
45644W        W88561  12.863  19.806  26.789  0.1203 -0.2563  0.1755
45645W        W88562  11.534  18.551   0.522  0.1904  0.0727 -0.1020
45646W        W88563   9.763  17.418  29.847  0.0251  0.1310 -0.1316
45647W        W88564   6.857  18.476  29.944 -0.1245  0.3493 -0.0651
45648W        W88565   8.884  20.673  30.349  0.0968  0.0764 -0.4818
45649W        W88566  11.908  20.685  27.965  0.2270 -0.0834 -0.0274
45650W        W88567   8.851  18.890  29.721  0.2272 -0.3366  0.2524
45651W        W88568  12.466  19.247  27.775 -0.1078 -0.3874 -0.0926
45652W        W88569  10.887  22.042  28.698 -0.3057 -0.1171 -0.0489
45653W        W88570   6.485  19.339  28.231  0.2278 -0.0233  0.0540
45654W        W88571  10.483  21.067  29.120  0.3515 -0.1379  0.0072
45655W        W88572  10.908  19.942  29.928 -0.1751 -0.0029 -0.0290
45656W        W88573  12.614  20.386  27.181  0.0500 -0.2450  0.0986
45657W        W88574  10.128  21.544  28.958 -0.2579 -0.1420 -0.0126
45658W        W88575   9.919  18.832  29.765 -0.2701  0.1728 -0.1553
45659W        W88576  13.242  22.855  28.805  0.1807 -0.0089 -0.0904
45660W        W88577   9.511  20.865  30.783 -0.1067  0.1918  0.2789
45661W        W88578  10.722  23.342  28.391 -0.3084  0.0542 -0.0129
45662W        W88579   9.541  21.162  31.287 -0.0430  0.1652  0.1174
45663W        W88580   9.534  20.013  29.168  0.3543  0.1380 -0.2092
45664W        W88581   7.976  18.640  29.751  0.0409  0.0020  0.1041
45665W        W88582   9.313  20.888  29.966 -0.1097  0.0278  0.0363
45666W        W88583  10.159  21.725  28.155  0.0867  0.1301 -0.0638
45667W        W88584  11.171  19.608  28.692 -0.2390 -0.1425  0.0332
45668W        W88585   8.165  20.438  26.072  0.1218  0.2339 -0.2426
45669W        W88586  11.826  16.793  27.673 -0.1518 -0.0857 -0.2561
45670W        W88587   9.686  22.039  31.183  0.1140 -0.3747 -0.0279
45671W        W88588  11.862  19.671  27.296  0.0042  0.0330  0.0918
45672W        W88589   9.453  18.116   0.575 -0.0196  0.2379  0.2241
45673W        W88590   9.746  20.938  30.359 -0.0409  0.0207  0.1573
45674W        W88591   8.591  19.664  30.349 -0.2163  0.2298 -0.0483
45675W        W88592   8.481  20.925  31.431 -0.3357  0.0564 -0.2252
45676W        W88593  10.261  21.086  30.318  0.2791  0.2220 -0.1316
45677W        W88594   9.829  21.549   0.144 -0.0524  0.3363 -0.3746
45678W        W88595  10.091  21.777  30.189  0.1207 -0.0881 -0.2685
45679W        W88596  11.264  19.069   0.428 -0.0337  0.2334  0.0707
45680W        W88597  11.510  20.695  29.703 -0.2144  0.0434  0.1612
45681W        W88598  12.364  21.321   1.801 -0.0078  0.2169 -0.3030
45682W        W88599  10.719  23.414   0.022 -0.0816 -0.2634  0.0582
45683W        W88600   7.440  18.469  30.018  0.2107 -0.3188 -0.1048
45684W        W88601  11.571  21.264  29.746  0.3691  0.0775  0.0232
45685W        W88602  10.315  20.494  28.951  0.0026 -0.1173 -0.0270
45686W        W88603  10.477  21.461  31.021 -0.0924 -0.0177 -0.0831
45687W        W88604   8.156  22.032   0.308 -0.1266 -0.3865 -0.2935
45688W        W88605   8.180  20.173  30.972 -0.3701  0.3395 -0.1336
45689W        W88606  10.529  24.377  31.057 -0.0257  0.2280  0.0412
45690W        W88607   8.631  17.133  30.095 -0.0880 -0.1688 -0.0702
45691W        W88608  10.728  20.427  31.406  0.3174  0.1273  0.1998
45692W        W88609   9.870  17.635  30.295 -0.1522 -0.0874  0.1524
45693W        W88610   6.550  21.476  30.469 -0.0474  0.0969  0.0681
45694W        W88611  10.570  19.287  31.157  0.0184  0.0549 -0.0100
45695W        W88612   9.772  18.236  30.321  0.2838  0.0798  0.2075
45696W        W88613  10.149  19.108  31.392  0.1049  0.0959  0.2894
45697W        W88614   8.845  18.729   1.185  0.0262 -0.5827  0.2580
45698W        W88615   7.499  17.835  29.982 -0.2626 -0.0758 -0.1230
45699W        W88616   9.163  20.564  31.330  0.0805  0.2434  0.1609
45700W        W88617   8.342  19.584   0.849 -0.0202 -0.0037 -0.1511
45701W        W88618   9.676  20.546  29.928 -0.0645 -0.1397  0.0445
45702W        W88619   9.838  21.558  31.549 -0.2521 -0.2406 -0.1198
45703W        W88620  10.470  17.659   1.099 -0.4371 -0.2780  0.1929
45704W        W88621  11.518  20.749   0.376 -0.1872  0.1517  0.0635
45705W        W88622  10.945  17.755   0.825  0.1450 -0.0538  0.1171
45706W        W88623   9.769  18.257  31.642  0.2070  0.0769 -0.1178
45707W        W88624   9.500  20.151  31.312  0.1585  0.0147 -0.1574
45708W        W88625  10.331  22.175  29.890 -0.0194 -0.0274 -0.2014
45709W        W88626   8.604  20.806   1.379  0.3145  0.0152  0.0753
45710W        W88627  10.614  21.320  30.480  0.0422 -0.2279  0.1065
45711W        W88628  10.447  22.370  28.633  0.0461  0.4648  0.0350
45712W        W88629   9.684  19.266  31.294  0.0238  0.1699 -0.2571
45713W        W88630  10.263  21.680  30.631 -0.1179 -0.1178 -0.1025
45714W        W88631   9.247  20.305   0.920  0.2134  0.1838  0.0487
45715W        W88632   9.334  21.260  29.645  0.1266  0.2544  0.0232
45716W        W88633   8.654  18.212  31.211  0.0600  0.1370  0.0526
45717W        W88634  11.020  19.500  31.417  0.1033 -0.0009  0.4378
45718W        W88635   9.769  17.282   0.977 -0.0662 -0.1523  0.0410
45719W        W88636  10.855  22.330  30.057  0.2135 -0.1452 -0.1576
45720W        W88637  10.666  21.869   0.687 -0.0723 -0.2663  0.1945
45721W        W88638   9.702  20.597  31.248  0.3701 -0.2713 -0.0932
45722W        W88639  12.375  22.145  28.651  0.4453 -0.0855 -0.4190
45723W        W88640  10.623  16.672   0.139  0.0525 -0.0451  0.2086
45724W        W88641   9.467  19.479   2.222 -0.3493  0.0652 -0.0913
45725W        W88642  11.697  19.378  29.922 -0.2848 -0.4130  0.2462
45726W        W88643   9.782  19.204  29.386 -0.0688  0.1079  0.0051
45727W        W88644   9.981  19.385  30.917 -0.1382 -0.1721  0.0368
45728W        W88645  12.059  20.174  28.471 -0.0704  0.1456 -0.1222
45729W        W88646   7.610  20.127  31.797 -0.1139  0.2414  0.1108
45730W        W88647  10.663  20.174  30.966  0.0796 -0.1443  0.0233
45731W        W88648  10.364  20.573  31.116 -0.1105  0.2223  0.0611
45732W        W88649   7.062  18.600  30.356 -0.0455 -0.3927  0.1902
45733W        W88650   9.160  20.510  30.798  0.2990  0.1470 -0.1590
45734W        W88651   6.153  20.998  29.783  0.0701 -0.0266 -0.0327
45735W        W88652   8.907  19.081   0.364 -0.0289  0.2439 -0.2340
45736W        W88653   8.761  23.859   0.052 -0.0629 -0.3018 -0.0251
45737W        W88654  10.395  22.687  30.963 -0.0667  0.0669  0.1015
45738W        W88655  13.479  20.582  31.766 -0.1496 -0.3526  0.3740
45739W        W88656   7.656  25.729  19.271  0.3183  0.2030  0.0678
45740W        W88657   8.922  24.106  17.782 -0.1883 -0.2192 -0.1562
45741W        W88658   9.086  23.469  16.653 -0.0333 -0.0320  0.2297
45742W        W88659  10.164  24.649  18.025 -0.1985  0.1898 -0.0762
45743W        W88660   9.061  21.825  17.426  0.0882  0.1687 -0.0964
45744W        W88661  12.692  26.436  16.308 -0.0221 -0.1273  0.0647
45745W        W88662   7.726  22.878  19.816  0.1199  0.1791 -0.1315
45746W        W88663   9.558  23.424  19.629 -0.1748 -0.0249  0.0986
45747W        W88664   8.894  24.884  17.397  0.0935  0.2705  0.0393
45748W        W88665  10.082  22.977  16.011  0.1956  0.0921  0.0498
45749W        W88666   8.747  20.980  19.213 -0.0035 -0.0889 -0.1483
45750W        W88667   9.145  23.640  17.816  0.1607 -0.0490 -0.2393
45751W        W88668   8.237  22.949  18.438 -0.0442  0.4782  0.1726
45752W        W88669   8.629  21.546  18.350  0.1654  0.1574  0.1419
45753W        W88670   8.302  24.598  19.425 -0.1010  0.3640 -0.1661
45754W        W88671   9.087  23.063  17.730 -0.1433  0.3186  0.0127
45755W        W88672   7.532  24.080  19.597 -0.1731 -0.0962 -0.4174
45756W        W88673  10.261  22.448  17.494  0.2421 -0.0524  0.2929
45757W        W88674   9.216  25.395  15.726 -0.2480 -0.0516  0.1499
45758W        W88675   8.778  23.273  20.249  0.1573 -0.2950  0.0031
45759W        W88676   8.128  20.010  21.146 -0.1460 -0.1841  0.1920
45760W        W88677  10.653  24.181  16.347 -0.2698 -0.0734 -0.1222
45761W        W88678   7.415  23.715  17.411 -0.1505  0.1472 -0.0549
45762W        W88679   9.202  24.752  18.424 -0.0403 -0.0631  0.0242
45763W        W88680   8.242  24.555  18.842  0.0426 -0.0341 -0.1012
45764W        W88681   8.821  24.511  19.604  0.2038 -0.0857 -0.2844
45765W        W88682  12.742  23.037  17.277  0.1023 -0.1586  0.4286
45766W        W88683  11.132  26.667  18.022 -0.0991  0.0062  0.0860
45767W        W88684  10.130  24.689  17.498 -0.1841 -0.0414 -0.4127
45768W        W88685   8.132  23.722  19.939 -0.0602  0.1837  0.0542
45769W        W88686   8.654  25.099  17.039 -0.0059  0.3247 -0.0058
45770W        W88687   7.998  25.298  16.203 -0.1305 -0.0390 -0.4599
45771W        W88688   9.826  24.411  15.753  0.1184  0.0797 -0.1196
45772W        W88689  10.733  24.262  14.805  0.0151 -0.0959  0.0145
45773W        W88690  10.384  26.855  17.767 -0.0466  0.2060  0.2714
45774W        W88691   8.096  26.831  19.929  0.1573 -0.2460  0.0528
45775W        W88692   6.999  23.995  17.380  0.5559  0.1051 -0.0192
45776W        W88693   7.936  26.136  19.289  0.2507  0.0445 -0.2887
45777W        W88694   9.641  24.972  19.861 -0.0062  0.3463  0.1693
45778W        W88695   9.059  22.501  17.533 -0.0044 -0.1973 -0.1235
45779W        W88696   8.879  23.898  19.028  0.2531  0.1650 -0.1257
45780W        W88697   9.606  24.102  15.323 -0.0859  0.2336 -0.3404
45781W        W88698   9.883  27.161  18.797  0.0757 -0.1092  0.0449
45782W        W88699   7.792  23.621  20.275 -0.2119 -0.1523 -0.2779
45783W        W88700   8.308  23.495  17.313 -0.2368  0.4168  0.1193
45784W        W88701  10.383  23.904  18.736  0.0076 -0.1387 -0.1986
45785W        W88702   8.699  24.626  17.810  0.0247  0.2790  0.3472
45786W        W88703   9.714  23.709  18.523 -0.0547 -0.3003  0.0736
45787W        W88704   8.868  21.502  16.643  0.1276 -0.1201  0.1058
45788W        W88705  11.030  22.407  15.928  0.0558  0.0431 -0.4673
45789W        W88706   9.133  22.468  18.678 -0.1243  0.0085  0.2664
45790W        W88707  10.111  28.209  17.971 -0.1169 -0.1110 -0.1630
45791W        W88708   9.543  22.327  17.747  0.0384 -0.2583 -0.1929
45792W        W88709  11.458  26.339  20.846 -0.2834  0.0594  0.0619
45793W        W88710   7.855  24.094  20.172  0.0356 -0.2243  0.1236
45794W        W88711  11.436  23.697  18.642  0.3611  0.2432  0.0197
45795W        W88712   9.587  26.394  16.709  0.2254  0.0080  0.2897
45796W        W88713   8.683  21.279  16.189 -0.2173 -0.0317  0.0773
45797W        W88714  11.787  23.981  16.392  0.0368  0.3702 -0.1154
45798W        W88715  10.802  22.928  15.233 -0.0603 -0.2651  0.0317
45799W        W88716  10.545  24.044  16.855 -0.0213 -0.0236  0.1700
45800W        W88717   8.162  23.459  18.047  0.0327  0.2588 -0.3775
45801W        W88718   7.310  23.178  18.923  0.2404 -0.1495  0.1044
45802W        W88719   8.738  25.816  19.471 -0.0430  0.0052 -0.1649
45803W        W88720   8.505  22.731  16.626 -0.2301  0.1079 -0.0747
45804W        W88721  11.820  24.766  17.060  0.1039 -0.2736 -0.1666
45805W        W88722   7.443  24.749  17.857 -0.2142 -0.5736  0.1071
45806W        W88723   9.823  23.483  17.038 -0.0608 -0.3812 -0.0347
45807W        W88724   8.255  23.694  19.007 -0.1610  0.1797  0.3952
45808W        W88725   9.418  25.124  16.610 -0.0894  0.1261  0.0395
45809W        W88726   8.274  24.430  16.367 -0.1806  0.0895  0.1232
45810W        W88727   9.915  23.712  19.855  0.0728 -0.1386  0.1686
45811W        W88728   9.259  22.095  19.821 -0.0450 -0.1063 -0.2161
45812W        W88729   8.523  24.307  16.799 -0.2822 -0.4455 -0.0080
45813W        W88730   9.741  24.564  17.794  0.0553 -0.0440 -0.0019
45814W        W88731   9.559  23.779  20.884  0.0760 -0.0824  0.1153
45815W        W88732   9.976  23.884  15.709  0.1245 -0.0479  0.1051
45816W        W88733   6.560  26.218  16.090 -0.1825 -0.1449 -0.1573
45817W        W88734  10.184  22.018  19.570 -0.3044  0.5373  0.2176
45818W        W88735  10.054  25.344  19.818  0.0018 -0.2941 -0.0835
45819W        W88736   8.960  25.114  16.649 -0.2885 -0.0313  0.0554
45820W        W88737   6.283  24.679  17.609  0.0437 -0.0738  0.0311
45821W        W88738   9.278  25.145  17.157  0.2468 -0.0428 -0.4083
45822W        W88739   6.738  23.967  19.028  0.2322  0.1001  0.2348
45823W        W88740   8.902  25.942  18.845 -0.1403 -0.1995  0.2256
45824W        W88741  10.341  21.271  19.222  0.2235  0.0669  0.0833
45825W        W88742   7.892  24.224  18.024 -0.0085 -0.3063 -0.1149
45826W        W88743  10.265  23.322  19.966 -0.0435 -0.1435 -0.0608
45827W        W88744   9.223  24.937  15.922  0.0799  0.2315 -0.1488
45828W        W88745  10.186  25.700  18.848 -0.1188 -0.2006 -0.0647
45829W        W88746   9.667  24.391  19.234 -0.1117  0.2860  0.3455
45830W        W88747   9.748  21.370  16.761  0.2584  0.3276  0.2238
45831W        W88748   8.623  24.672  18.517  0.1623  0.1918  0.1310
45832W        W88749   9.520  21.893  17.315 -0.1417 -0.2227  0.2548
45833W        W88750   7.196  22.917  19.792 -0.3864  0.0956 -0.2478
45834W        W88751   6.383  22.013  18.648  0.0308 -0.1373 -0.3237
45835W        W88752  11.266  24.582  18.981  0.0143 -0.0374  0.0427
45836W        W88753   9.824  21.201  16.219  0.0683 -0.0683 -0.0359
45837W        W88754  10.729  23.670  17.131  0.2573 -0.0818  0.1586
45838W        W88755   8.698  22.315  18.812 -0.2021 -0.0180 -0.1195
45839W        W88756   6.566  22.074  18.212 -0.0318 -0.2075  0.1179
45840W        W88757  10.660  23.128  20.329 -0.1277  0.0398  0.0614
45841W        W88758  10.844  25.667  17.162  0.2374  0.1277  0.1541
45842W        W88759  10.814  25.687  18.634  0.2732  0.1225 -0.0021
45843W        W88760  11.376  26.039  16.404  0.1471  0.0944  0.1154
45844W        W88761   9.165  23.680  18.652  0.0095  0.3222  0.1653
45845W        W88762   7.588  21.226  16.294  0.1970  0.1090 -0.0389
45846W        W88763   7.775  25.015  17.578  0.0063 -0.1515 -0.2056
45847W        W88764   9.164  22.719  17.050  0.1815  0.0778 -0.0898
45848W        W88765   7.892  20.184  17.567  0.3507 -0.1619 -0.1573
45849W        W88766  11.449  26.557  17.658 -0.0919 -0.3998 -0.0090
45850W        W88767   6.707  23.888  17.862 -0.0599 -0.0184  0.0523
45851W        W88768   8.742  24.480  19.022  0.0266 -0.0004  0.0569
45852W        W88769   8.384  22.309  19.241 -0.1798 -0.3482 -0.2610
45853W        W88770   9.520  25.710  18.468  0.0786 -0.0569  0.1576
45854W        W88771   7.649  24.068  19.116  0.0573  0.0311  0.3525
45855W        W88772   9.524  20.276  16.419  0.1432 -0.3584 -0.1869
45856W        W88773  10.406  26.863  16.593  0.0379 -0.0334 -0.1756
45857W        W88774   6.501  27.111  16.607  0.2695  0.0574 -0.1366
45858W        W88775   7.266  22.667  19.362  0.3033  0.2735 -0.3370
45859W        W88776   9.341  23.607  17.112 -0.2111  0.2870  0.1159
45860W        W88777   7.257  24.432  19.331 -0.1283 -0.0048  0.0133
45861W        W88778   6.265  23.878  21.281  0.2555  0.1204 -0.1595
45862W        W88779   9.738  24.079  17.983 -0.1297 -0.0163 -0.1650
45863W        W88780   8.083  22.522  17.209  0.3695  0.0071  0.1707
45864W        W88781   8.525  24.027  19.701  0.2917  0.1852 -0.1477
45865W        W88782  10.519  23.083  16.340  0.2499  0.1244 -0.2534
45866W        W88783   9.128  23.012  15.960  0.1467 -0.0568 -0.0721
45867W        W88784   9.638  25.532  20.336 -0.1106 -0.1872 -0.0826
45868W        W88785   9.643  24.740  16.133 -0.1906 -0.0188 -0.2763
45869W        W88786   9.412  22.367  16.356 -0.0961 -0.1405 -0.1170
45870W        W88787   9.807  21.762  18.420 -0.0852 -0.2338 -0.0392
45871W        W88788   8.523  25.021  19.009 -0.3337  0.1748 -0.0473
45872W        W88789   9.418  24.039  18.923 -0.3483  0.0126 -0.0307
45873W        W88790  10.167  25.444  16.875 -0.1302 -0.1390 -0.4261
45874W        W88791   9.119  23.196  17.212  0.2087  0.1711 -0.1560
45875W        W88792   9.876  24.928  17.123 -0.2762  0.1095  0.2549
45876W        W88793   9.313  24.439  18.046  0.2014  0.0169  0.1236
45877W        W88794   9.758  24.660  18.798 -0.0029 -0.1601 -0.3752
45878W        W88795  10.996  25.969  16.061  0.0251 -0.2475  0.1048
45879W        W88796  10.137  20.583  19.223 -0.1560  0.0210 -0.1019
45880W        W88797   9.674  21.423  15.128 -0.1477  0.0165  0.0969
45881W        W88798   6.429  22.352  19.044  0.1903 -0.0583 -0.0515
45882W        W88799   7.675  26.077  17.034  0.0659 -0.0385 -0.1696
45883W        W88800   9.933  22.730  18.017 -0.0167 -0.1146  0.1382
45884W        W88801  10.423  23.010  18.740 -0.3682  0.0742 -0.0830
45885W        W88802  10.061  21.495  19.608  0.3447  0.0335 -0.0035
45886W        W88803  10.768  22.924  19.240  0.0520 -0.1966 -0.0486
45887W        W88804  10.079  22.174  15.515 -0.0087  0.1112  0.1317
45888W        W88805   9.080  25.694  18.105  0.1487  0.1100 -0.0532
45889W        W88806   9.022  23.190  15.486 -0.1825 -0.0383  0.2566
45890W        W88807   8.574  20.472  19.257 -0.0152 -0.2725 -0.3162
45891W        W88808   8.250  22.610  19.669 -0.1714  0.2172 -0.0663
45892W        W88809   5.751  26.887  17.141  0.1539  0.1280  0.0076
45893W        W88810   9.724  24.787  18.220 -0.0653 -0.1410  0.3293
45894W        W88811  10.998  23.379  16.337  0.0467  0.0024  0.2418
45895W        W88812   9.617  21.817  18.917 -0.0939  0.4860 -0.0238
45896W        W88813   9.630  23.059  17.143 -0.0594 -0.2063 -0.1870
45897W        W88814   9.976  25.209  15.344  0.2009 -0.2541 -0.1229
45898W        W88815   8.843  23.675  16.269 -0.0004 -0.0741  0.2222
45899W        W88816   8.916  21.435  17.729  0.1558  0.1580  0.0044
45900W        W88817   9.660  25.235  16.050 -0.2500  0.1445 -0.2593
45901W        W88818   9.355  23.815  16.231 -0.0224  0.3593 -0.1043
45902W        W88819   8.474  23.700  17.723  0.2058 -0.2410  0.2775
45903W        W88820   9.141  24.680  16.387 -0.1638  0.1235 -0.1453
45904W        W88821  10.882  22.683  18.658  0.1271 -0.2610 -0.1658
45905W        W88822   7.733  25.398  17.107  0.1986  0.2605 -0.0834
45906W        W88823   8.724  23.293  15.968 -0.2589  0.3132 -0.1100
45907W        W88824   7.271  23.121  17.879  0.1414 -0.2028 -0.0029
45908W        W88825   9.109  21.816  19.405 -0.1481  0.3985 -0.0388
45909W        W88826   9.996  21.866  16.739 -0.3324  0.1375  0.0710
45910W        W88827   7.991  21.597  17.714 -0.1836 -0.1631 -0.3832
45911W        W88828   9.646  22.304  18.842  0.1612 -0.1288  0.2580
45912W        W88829   7.750  25.859  17.475 -0.1887 -0.2704 -0.1681
45913W        W88830   9.286  24.116  17.126  0.0997 -0.2337  0.4327
45914W        W88831   9.939  20.148  17.419  0.3845  0.0327 -0.1183
45915W        W88832  10.757  27.564  18.503  0.2228 -0.2374 -0.1524
45916W        W88833   7.786  23.876  20.777  0.2723 -0.2689  0.5407
45917W        W88834   6.752  23.236  17.118  0.0808  0.1738  0.1877
45918W        W88835  11.437  24.584  18.439 -0.0978 -0.2477 -0.0768
45919W        W88836   9.502  24.106  20.519 -0.0923  0.0872  0.2488
45920W        W88837   7.818  26.652  16.565  0.4949 -0.0705 -0.1071
45921W        W88838  11.933  25.961  17.818  0.0331  0.2609 -0.2813
45922W        W88839   7.036  23.833  16.393  0.2821 -0.0725 -0.0116
45923W        W88840   8.815  23.751  17.305  0.4178 -0.1221  0.1479
45924W        W88841   8.501  22.707  20.958  0.1058  0.2095  0.1587
45925W        W88842  11.224  26.581  19.539  0.1704 -0.0969  0.0353
45926W        W88843   9.556  21.115  17.733  0.0155  0.5543 -0.0340
45927W        W88844   8.583  22.326  17.937  0.1667  0.0046 -0.2044
45928W        W88845  10.150  25.212  21.123 -0.0948 -0.0017 -0.0977
45929W        W88846   9.148  25.523  18.764 -0.1391  0.0339  0.0267
45930W        W88847   7.705  23.487  18.998  0.1159  0.2451 -0.0140
45931W        W88848   8.950  26.315  21.822 -0.2808 -0.0750  0.1008
45932W        W88849   9.289  21.312  20.684  0.1644 -0.3458 -0.1781
45933W        W88850  11.803  24.947  15.414 -0.2207 -0.2061 -0.1349
45934W        W88851   8.422  25.804  18.781 -0.1447  0.1404 -0.2852
45935W        W88852   8.396  23.918  16.476 -0.0217 -0.1427  0.0759
45936W        W88853   7.933  24.772  16.285 -0.2066  0.0361  0.3487
45937W        W88854   9.119  25.463  15.208 -0.2536  0.1292 -0.0011
45938W        W88855   8.803  23.836  18.232  0.3291 -0.1689  0.1866
45939W        W88856   6.943  24.904  16.603 -0.2550 -0.0222 -0.3403
45940W        W88857   8.235  24.671  15.422 -0.1166  0.1667  0.1191
45941W        W88858   7.805  26.599  17.137  0.2703  0.1525 -0.0050
45942W        W88859   9.025  23.249  18.852  0.0466 -0.1762 -0.1471
45943W        W88860   9.611  23.504  18.029  0.1387 -0.0354  0.1296
45944W        W88861   8.707  22.173  17.484  0.0124 -0.4279  0.3551
45945W        W88862  11.171  24.638  17.623  0.1791  0.2028 -0.1302
45946W        W88863   7.852  23.401  17.483  0.0879  0.0672 -0.0482
45947W        W88864   9.596  23.150  16.642 -0.0711  0.5871  0.0875
45948W        W88865   7.693  23.364  19.857  0.1385  0.3759  0.0892
45949W        W88866  11.180  23.234  17.830 -0.1864 -0.0842 -0.0236
45950W        W88867   7.073  23.980  19.433 -0.1637 -0.3683 -0.1578
45951W        W88868   8.910  24.990  19.363 -0.0504  0.1614  0.2401
45952W        W88869   7.926  23.489  19.463 -0.0024 -0.3754  0.0617
45953W        W88870  10.314  23.146  15.192 -0.0043  0.2183  0.1073
45954W        W88871   7.245  23.133  17.101  0.0704 -0.1108  0.2197
45955W        W88872  10.228  23.052  18.207 -0.0978 -0.2141 -0.1663
45956W        W88873   9.562  23.903  19.590 -0.3415 -0.2742 -0.0072
45957W        W88874  10.922  26.204  16.501  0.3149 -0.0684  0.1403
45958W        W88875  11.039  23.680  17.555 -0.1336  0.4277 -0.3695
45959W        W88876   8.677  24.190  20.221  0.2307 -0.2253  0.5989
45960W        W88877   8.763  23.422  19.214  0.3039 -0.0121  0.1990
45961W        W88878   8.927  20.945  16.513  0.0106  0.1117  0.2995
45962W        W88879   8.799  25.012  16.141  0.0193  0.0903 -0.1439
45963W        W88880   9.291  23.571  19.152 -0.0489  0.1576  0.2301
45964W        W88881   9.779  23.110  18.388 -0.0605 -0.3344  0.0585
45965W        W88882   9.208  23.384  18.277  0.0299  0.2566 -0.0440
45966W        W88883   9.768  21.891  21.832 -0.1866  0.0438  0.0105
45967W        W88884   9.592  25.085  18.665 -0.2277 -0.4934  0.4757
45968W        W88885  10.803  24.277  18.756 -0.0681  0.0886  0.3005
45969W        W88886   7.857  23.073  20.271 -0.2051  0.0382 -0.4263
45970W        W88887  10.068  24.960  18.532  0.1323  0.0214  0.4172
45971W        W88888  10.366  20.995  15.506  0.2476 -0.1931  0.2502
45972W        W88889  11.518  23.661  17.844 -0.0886 -0.2083  0.0399
45973W        W88890  10.708  24.384  17.706  0.1429 -0.1771  0.0151
45974W        W88891   8.781  21.806  17.014 -0.1351  0.0676  0.1948
45975W        W88892   8.633  23.541  18.672  0.1637  0.0204  0.0563
45976W        W88893   8.544  24.069  18.677 -0.1312 -0.2992 -0.0742
45977W        W88894   8.556  20.547  15.467 -0.1664 -0.3117 -0.0646
45978W        W88895   9.512  23.752  20.174  0.1300 -0.0459 -0.1083
45979W        W88896   8.391  24.808  15.978  0.1945 -0.0061  0.1885
45980W        W88897  10.728  25.995  17.454 -0.1735  0.0290  0.4892
45981W        W88898   8.697  22.914  18.639  0.2426  0.1565  0.0442
45982W        W88899   9.119  22.188  19.063  0.0708 -0.0622 -0.1323
45983W        W88900   8.864  26.638  18.251  0.4026  0.1445  0.1324
45984W        W88901  10.221  23.614  16.747 -0.1892  0.1773 -0.0683
45985W        W88902   8.652  23.187  17.471 -0.4326  0.0874  0.2435
45986W        W88903   7.716  25.466  17.842  0.1512  0.4370 -0.1970
45987W        W88904   9.526  25.434  19.553 -0.1243 -0.0545  0.0604
45988W        W88905   9.861  21.221  15.509 -0.1000  0.0530 -0.2065
45989W        W88906   9.313  22.778  18.996  0.1979  0.1276  0.0371
45990W        W88907   8.839  23.959  16.863 -0.0100 -0.1610 -0.2425
45991W        W88908  10.836  21.501  17.739  0.3393 -0.0134 -0.0170
45992W        W88909   7.599  26.448  18.074 -0.0543 -0.1134 -0.2947
45993W        W88910  10.133  24.394  18.526  0.1730  0.0493  0.1649
45994W        W88911   8.821  24.282  17.241 -0.0858  0.0795 -0.1403
45995W        W88912   8.346  20.978  18.912  0.1907  0.0578 -0.3712
45996W        W88913  10.111  22.159  16.321  0.0724  0.0599  0.0996
45997W        W88914   7.456  24.154  17.150 -0.0779 -0.0650 -0.1227
45998W        W88915  11.563  22.372  16.994 -0.0469  0.3515 -0.2278
45999W        W88916   8.324  24.158  19.188 -0.0390  0.1924  0.0627
46000W        W88917   8.263  25.743  19.454 -0.2154 -0.0009 -0.1470
46001W        W88918   7.653  26.149  18.457 -0.1225 -0.2377 -0.0453
46002W        W88919  11.026  24.288  18.332 -0.0553 -0.1274  0.1754
46003W        W88920   9.388  25.829  15.887 -0.0283  0.1159 -0.0565
46004W        W88921   8.287  24.226  17.689 -0.1043  0.1454 -0.0311
46005W        W88922   9.779  24.183  20.063 -0.1335  0.0345  0.0276
46006W        W88923   9.736  23.711  19.115 -0.0745  0.0478 -0.0222
46007W        W88924   9.575  22.611  16.760 -0.1316  0.0125  0.0276
46008W        W88925   9.183  23.763  15.387  0.0151 -0.0765  0.0381
46009W        W88926   9.883  22.639  21.195 -0.1197  0.1792  0.3139
46010W        W88927   9.487  22.983  19.739 -0.4985 -0.1581 -0.0608
46011W        W88928   8.623  23.477  16.855 -0.0062 -0.0730 -0.0598
46012W        W88929   9.472  24.635  17.188 -0.2747 -0.0636  0.1132
46013W        W88930  10.309  22.348  18.010 -0.1566 -0.0110  0.0696
46014W        W88931  10.095  24.523  16.901 -0.0045  0.1007 -0.1448
46015W        W88932   8.732  23.006  16.922 -0.2010  0.1929 -0.1499
46016W        W88933   9.071  24.993  17.988  0.2922  0.2584 -0.0931
46017W        W88934   7.329  25.104  17.005  0.1661  0.2280 -0.1596
46018W        W88935  10.546  23.950  15.241 -0.0138 -0.4794  0.1872
46019W        W88936   8.288  25.258  15.436  0.1081 -0.1361 -0.0560
46020W        W88937  10.110  25.079  18.992  0.2509  0.1002 -0.1926
46021W        W88938   9.980  23.760  17.662 -0.0067  0.1279  0.1771
46022W        W88939  11.031  22.826  16.234  0.4400 -0.2678  0.3582
46023W        W88940  10.182  23.096  16.873 -0.1361  0.0728 -0.3231
46024W        W88941   9.587  26.016  19.278  0.0276 -0.1270  0.2464
46025W        W88942   9.141  22.199  17.134 -0.2566  0.1084 -0.2014
46026W        W88943   8.672  22.239  16.195 -0.0013  0.1019  0.0023
46027W        W88944   6.369  22.899  20.227 -0.2721  0.2665 -0.3563
46028W        W88945  11.304  22.168  19.560  0.0889 -0.0531 -0.2522
46029W        W88946   9.449  26.586  21.162  0.0998 -0.2361 -0.1146
46030W        W88947  10.174  24.338  16.080 -0.0386  0.3103  0.2790
46031W        W88948   8.225  22.023  16.036  0.5838  0.1105  0.0677
46032W        W88949   9.893  25.913  17.505  0.0068 -0.1234 -0.0114
46033W        W88950   9.839  23.982  21.366 -0.2099  0.0572 -0.0460
46034W        W88951  10.332  23.402  17.284  0.1356  0.2089  0.3235
46035W        W88952   9.513  21.787  16.414  0.1932 -0.2479 -0.3116
46036W        W88953   9.724  24.142  16.835  0.2151 -0.1259  0.1310
46037W        W88954   9.334  26.006  16.956  0.1787 -0.3177  0.2200
46038W        W88955   8.072  25.412  17.497  0.2505 -0.0224 -0.3481
46039W        W88956   8.360  22.091  17.086  0.1871  0.0041  0.0749
46040W        W88957  11.983  23.872  15.960 -0.1525  0.2161  0.1407
46041W        W88958   8.819  22.201  19.548  0.1820  0.0583  0.2546
46042W        W88959   9.121  23.075  19.385  0.0792  0.0663 -0.2604
46043W        W88960   7.956  22.885  17.604  0.1697 -0.1894  0.0469
46044W        W88961  12.143  23.754  17.399 -0.0194 -0.2392 -0.0142
46045W        W88962  10.550  27.303  17.489 -0.0136  0.1560 -0.0932
46046W        W88963   4.473  26.501  17.812 -0.1624  0.3155 -0.0034
46047W        W88964   8.351  24.024  17.189  0.1860 -0.0365 -0.0986
46048W        W88965  11.711  23.325  19.449  0.0242  0.2601 -0.3929
46049W        W88966   9.618  23.318  16.067  0.2517 -0.0174 -0.1796
46050W        W88967   9.074  27.016  18.567 -0.0827 -0.0264  0.1439
46051W        W88968   8.027  22.484  17.924 -0.2555  0.0574  0.0388
46052W        W88969   9.544  22.834  17.573  0.0176 -0.1140 -0.1451
46053W        W88970   6.888  22.973  18.210  0.0175 -0.3144 -0.0518
46054W        W88971  10.371  22.205  20.519  0.1346 -0.0545  0.1646
46055W        W88972  10.655  27.244  18.879 -0.1394  0.1070  0.1925
46056W        W88973   7.208  21.001  16.719  0.0463 -0.0800  0.1885
46057W        W88974   9.824  22.639  15.369  0.0363  0.1354  0.2110
46058W        W88975  10.095  24.976  16.573  0.1591 -0.2766 -0.2328
46059W        W88976  11.126  25.095  15.956  0.0423 -0.2248 -0.2361
46060W        W88977  10.418  24.620  16.524 -0.0717  0.1854  0.2479
46061W        W88978  10.343  25.132  18.151 -0.0434 -0.0463 -0.0644
46062W        W88979   8.977  23.797  19.638  0.2083  0.0743 -0.0297
46063W        W88980   9.203  25.407  16.274 -0.0110  0.0834 -0.0980
46064W        W88981  11.966  25.171  19.139  0.0234 -0.1988 -0.2459
46065W        W88982   9.060  22.008  16.620 -0.2460  0.2488  0.0480
46066W        W88983   7.825  24.542  19.140 -0.1405 -0.1556 -0.2503
46067W        W88984   9.435  24.930  17.634  0.0784  0.0419  0.1813
46068W        W88985   9.784  23.129  20.125 -0.2177  0.3369 -0.1247
46069W        W88986  10.428  22.881  17.778  0.3273 -0.0510  0.0644
46070W        W88987   9.377  26.336  15.558  0.2527  0.1144 -0.1481
46071W        W88988   9.696  21.024  20.539 -0.0318  0.0176  0.0260
46072W        W88989   9.300  25.596  21.309  0.1888  0.2924  0.0058
46073W        W88990   6.685  26.087  19.282  0.1920  0.4221  0.0963
46074W        W88991   7.961  23.694  16.355 -0.0770  0.0156  0.0533
46075W        W88992   9.820  25.782  19.785 -0.0827 -0.0511 -0.0708
46076W        W88993   8.794  27.436  16.760 -0.2997  0.0336  0.1231
46077W        W88994  12.075  26.871  16.998  0.2222 -0.2844 -0.0537
46078W        W88995  10.416  24.517  19.576 -0.1451 -0.1715  0.0543
46079W        W88996   7.960  22.341  18.827 -0.1130 -0.0693  0.3388
46080W        W88997  11.935  24.373  18.275  0.2582  0.0468  0.2803
46081W        W88998   9.452  21.626  17.810 -0.1519  0.3215  0.1336
46082W        W88999  11.164  22.822  17.198 -0.1666  0.0261 -0.2113
46083W        W89000  10.035  21.459  20.114 -0.0896  0.0112 -0.3568
46084W        W89001   9.290  23.961  18.185 -0.0139  0.1324 -0.0418
46085W        W89002   7.548  23.511  16.904  0.1762 -0.0179 -0.0613
46086W        W89003   7.847  24.196  16.305 -0.2763  0.1525  0.2771
46087W        W89004   8.258  23.894  18.213 -0.1042 -0.3444 -0.1703
46088W        W89005  10.992  22.326  21.492  0.0511 -0.1228  0.0161
46089W        W89006   8.579  24.154  20.729  0.0322  0.2329 -0.2111
46090W        W89007   7.168  23.920  18.350 -0.2473  0.1203  0.0405
46091W        W89008   8.247  23.179  16.739 -0.1205  0.0667  0.1756
46092W        W89009  10.364  25.077  15.087 -0.0279 -0.1272  0.1429
46093W        W89010   8.747  21.847  17.869 -0.0300  0.0312  0.2262
46094W        W89011   6.762  23.569  19.395  0.1088  0.2203 -0.1400
46095W        W89012   9.276  24.388  16.069 -0.0817  0.0442  0.0964
46096W        W89013   9.579  22.423  17.295 -0.0236  0.2955 -0.1200
46097W        W89014   5.692  26.453  18.034  0.0145 -0.0821 -0.0526
46098W        W89015   9.239  24.636  19.408  0.1780  0.1099  0.1361
46099W        W89016   8.247  23.905  15.945  0.2295  0.0388  0.0332
46100W        W89017   9.588  21.302  21.157  0.0860 -0.1901  0.2196
46101W        W89018   7.827  21.818  18.666 -0.0065 -0.0578 -0.2797
46102W        W89019   6.535  20.263  17.459 -0.0913 -0.2904 -0.2710
46103W        W89020   8.333  23.042  17.900  0.2074  0.1665 -0.0192
46104W        W89021   9.161  24.497  17.581  0.3032 -0.0137 -0.0843
46105W        W89022   9.725  24.280  16.251  0.1025 -0.2659  0.3375
46106W        W89023  11.139  25.244  17.051  0.1293  0.1270  0.0343
46107W        W89024   9.132  25.478  20.621  0.0029  0.1954  0.0730
46108W        W89025   6.810  21.920  19.027  0.1080  0.1763  0.0287
46109W        W89026  10.932  23.037  15.779 -0.1077 -0.0589 -0.2386
46110W        W89027  10.915  26.136  20.443 -0.1203  0.1244  0.1313
46111W        W89028   9.642  23.674  15.071 -0.0825  0.1535 -0.0149
46112W        W89029  11.082  22.914  20.482  0.2885 -0.0569  0.0944
46113W        W89030  10.659  23.302  16.768 -0.0604  0.2781 -0.0663
46114W        W89031   6.924  22.919  18.718  0.1626  0.0248 -0.0824
46115W        W89032   8.507  24.947  18.093  0.0780 -0.0518  0.1887
46116W        W89033  10.740  25.190  17.380  0.0327  0.1797 -0.0151
46117W        W89034   8.763  21.854  19.901 -0.3092  0.2247 -0.1173
46118W        W89035   8.137  21.522  18.199 -0.0408 -0.0621 -0.1195
46119W        W89036   9.933  23.152  15.526 -0.2577 -0.0340  0.0604
46120W        W89037   7.000  24.283  17.942 -0.1755  0.0596  0.1504
46121W        W89038   9.252  24.603  18.874  0.1370 -0.0073  0.5361
46122W        W89039  10.697  23.735  19.743 -0.1033 -0.2460  0.0734
46123W        W89040  11.464  23.177  17.443 -0.0256 -0.4113  0.0151
46124W        W89041  10.593  24.902  17.758  0.0713  0.3222 -0.0927
46125W        W89042  10.097  23.919  18.251  0.0432  0.0247 -0.1594
46126W        W89043  10.180  23.475  15.968 -0.3520  0.0653  0.1406
46127W        W89044  10.243  27.395  18.442  0.0822  0.2746 -0.0793
46128W        W89045  10.377  26.371  18.959  0.3105  0.2244 -0.0983
46129W        W89046   9.930  25.377  18.301 -0.2364 -0.1707  0.3250
46130W        W89047  10.614  25.870  20.159 -0.1737 -0.0850  0.0273
46131W        W89048   7.532  23.437  18.296 -0.0691  0.1350 -0.0742
46132W        W89049   6.738  22.584  17.194 -0.0840 -0.2098  0.3359
46133W        W89050   6.934  22.919  17.543  0.0880 -0.0277  0.3722
46134W        W89051   9.575  22.126  19.331  0.0894  0.2033 -0.4225
46135W        W89052   8.351  20.500  18.289  0.1763 -0.2072  0.3274
46136W        W89053   9.657  21.592  15.923  0.0328  0.0927  0.0959
46137W        W89054   5.337  25.544  17.933 -0.1222  0.1825  0.0127
46138W        W89055  10.207  26.400  18.385 -0.0296  0.1282  0.0089
46139W        W89056   7.371  25.075  23.555 -0.0192 -0.1128  0.1388
46140W        W89057   7.600  23.674  22.096 -0.1308 -0.1022  0.0632
46141W        W89058  10.437  23.693  20.232  0.3134  0.2399  0.1358
46142W        W89059  10.981  25.347  19.415 -0.0367 -0.0555 -0.0972
46143W        W89060   6.538  22.452  21.074 -0.2740 -0.1792 -0.1660
46144W        W89061   8.021  25.259  20.776 -0.1345  0.4373 -0.1817
46145W        W89062   5.879  20.296  22.767 -0.1564  0.1980 -0.0277
46146W        W89063   9.370  26.947  20.380  0.1766 -0.1367  0.0578
46147W        W89064  12.093  25.155  21.194 -0.0308  0.0851  0.1156
46148W        W89065  10.010  24.098  18.905  0.0481  0.4830 -0.1017
46149W        W89066   7.841  24.816  23.996  0.0595  0.3834  0.0365
46150W        W89067  10.585  26.838  24.052 -0.0438  0.2461  0.0643
46151W        W89068   6.901  23.553  20.191  0.2240  0.0067  0.0810
46152W        W89069   6.691  22.706  23.042 -0.3495 -0.1066 -0.3592
46153W        W89070   9.841  24.788  20.994  0.0291 -0.0766  0.0471
46154W        W89071   7.062  24.969  20.668  0.0104  0.0391 -0.0601
46155W        W89072   9.008  23.360  22.416 -0.1139 -0.1877  0.1974
46156W        W89073  10.489  24.820  21.113 -0.0420 -0.0264  0.3009
46157W        W89074  10.363  25.511  21.467  0.0849 -0.2763  0.0828
46158W        W89075   8.420  21.846  21.686  0.1113  0.1986  0.0319
46159W        W89076   7.842  23.685  21.278  0.0076 -0.1391 -0.0985
46160W        W89077   8.198  25.490  21.808 -0.1810  0.2154 -0.0609
46161W        W89078   7.822  21.776  20.457  0.2124  0.1063  0.0959
46162W        W89079   9.028  24.294  22.027 -0.4605  0.0603  0.1450
46163W        W89080   7.368  24.250  23.667  0.0028  0.1418 -0.1597
46164W        W89081   7.846  22.539  21.022  0.0191  0.0631  0.1338
46165W        W89082  11.512  24.673  19.813 -0.1717  0.0189  0.1995
46166W        W89083  10.984  27.191  22.240 -0.1097 -0.0630 -0.0631
46167W        W89084   9.965  25.186  20.245 -0.2080  0.0502  0.0043
46168W        W89085   9.021  23.928  24.351 -0.0197  0.3422 -0.1752
46169W        W89086   9.982  23.597  20.330 -0.2312  0.0324  0.0985
46170W        W89087   8.977  26.288  22.651 -0.0114 -0.2937 -0.3108
46171W        W89088   8.635  24.935  19.765 -0.2481  0.0246 -0.0972
46172W        W89089  10.837  25.023  20.249  0.1672  0.2806  0.0614
46173W        W89090   9.637  27.489  22.124  0.0155 -0.2236 -0.1150
46174W        W89091   9.968  27.576  23.670  0.0306  0.1283  0.3366
46175W        W89092   8.407  26.176  18.478  0.3604 -0.3402 -0.0196
46176W        W89093   9.724  24.636  23.237 -0.0611 -0.0466  0.1098
46177W        W89094   9.418  25.514  24.175 -0.0468 -0.0544 -0.3336
46178W        W89095  11.341  23.177  22.411  0.2693  0.1159  0.4693
46179W        W89096   9.403  23.580  21.353 -0.3247 -0.2033 -0.1449
46180W        W89097   7.586  24.986  21.426 -0.0725  0.2502 -0.0103
46181W        W89098   8.553  23.420  22.187 -0.1402  0.4228  0.0776
46182W        W89099   6.926  24.844  21.915  0.0222 -0.0665  0.0446
46183W        W89100   7.335  23.869  22.468  0.0766  0.3323 -0.0540
46184W        W89101   9.062  24.105  23.218  0.0382  0.0400  0.1541
46185W        W89102   7.940  27.041  19.415  0.0583 -0.0471 -0.0390
46186W        W89103   8.863  22.625  19.205  0.1159 -0.0724 -0.0235
46187W        W89104  10.259  21.860  18.176 -0.1795 -0.1100 -0.0655
46188W        W89105  11.846  25.870  20.542  0.0163 -0.2166 -0.3087
46189W        W89106   8.618  21.412  20.074 -0.1440  0.0402 -0.0696
46190W        W89107   9.027  25.375  25.686  0.0469  0.2702  0.3056
46191W        W89108   7.341  24.355  21.617 -0.1211 -0.1079  0.1020
46192W        W89109   9.889  23.626  24.201  0.0126  0.1305 -0.1459
46193W        W89110  10.546  24.670  18.313  0.0874  0.3255 -0.1424
46194W        W89111   9.285  24.138  21.261  0.1924 -0.1941  0.2236
46195W        W89112   7.635  24.226  24.103 -0.1180  0.0304  0.0723
46196W        W89113   7.928  25.284  22.601  0.0130 -0.0188 -0.1990
46197W        W89114   9.344  26.965  18.978  0.0753 -0.0834 -0.1563
46198W        W89115   9.116  25.844  20.272 -0.0456 -0.1922  0.0235
46199W        W89116  11.258  27.083  19.309  0.2556  0.1626  0.0323
46200W        W89117   7.696  24.353  20.567 -0.1483  0.1384  0.0900
46201W        W89118   7.804  23.491  23.284  0.1220  0.0308 -0.2043
46202W        W89119   5.583  24.223  23.184 -0.0080  0.0486 -0.0753
46203W        W89120   8.145  21.412  20.363 -0.2333  0.0589 -0.1127
46204W        W89121   9.806  22.942  23.860 -0.1212 -0.1178  0.0224
46205W        W89122   6.767  25.714  22.876  0.0527  0.1776  0.0514
46206W        W89123   8.155  23.148  19.758 -0.0844  0.0753 -0.1267
46207W        W89124   8.262  23.887  20.485 -0.1605 -0.0522  0.1928
46208W        W89125   7.732  24.002  21.685  0.2254  0.3183 -0.1281
46209W        W89126  11.261  25.645  19.058  0.2285 -0.4291  0.0014
46210W        W89127   7.381  22.945  21.204 -0.1921 -0.2108 -0.1882
46211W        W89128   8.467  24.480  21.245 -0.2571  0.0243  0.0943
46212W        W89129   7.736  23.876  18.378 -0.0298  0.0287  0.0475
46213W        W89130   9.131  25.990  20.770 -0.1616  0.0818  0.0846
46214W        W89131  10.891  22.048  23.243  0.0272  0.1728  0.0302
46215W        W89132  10.047  23.270  19.054  0.0062  0.2904  0.6850
46216W        W89133   7.466  25.261  22.458 -0.0071 -0.1718  0.0055
46217W        W89134   8.795  23.065  24.870  0.0825 -0.3280 -0.3010
46218W        W89135   9.728  25.410  22.180  0.0956  0.0886  0.1813
46219W        W89136   9.206  26.745  19.930 -0.3926 -0.0380 -0.1247
46220W        W89137   5.697  24.678  22.091  0.1846  0.0496 -0.1568
46221W        W89138   8.563  22.966  19.925  0.0845  0.1258  0.2052
46222W        W89139   7.098  21.274  22.592 -0.1094 -0.0598 -0.2676
46223W        W89140   7.232  25.985  23.204 -0.0962 -0.2100  0.2841
46224W        W89141   9.730  21.854  19.678  0.1293  0.1581  0.1899
46225W        W89142   9.572  22.358  21.988 -0.4237 -0.2183  0.3586
46226W        W89143  10.861  22.376  19.993  0.4082  0.1138 -0.0248
46227W        W89144   7.732  25.905  20.775  0.0872 -0.1369 -0.1000
46228W        W89145  12.394  25.510  23.381 -0.0511 -0.1532 -0.0391
46229W        W89146   8.889  24.783  21.940  0.1738  0.0882  0.1963
46230W        W89147   9.126  27.059  19.482 -0.2227  0.0305  0.1890
46231W        W89148   6.287  24.535  23.791 -0.1020  0.4077 -0.2002
46232W        W89149   8.392  23.720  22.680  0.0942  0.0799 -0.2056
46233W        W89150   7.593  24.060  23.170 -0.0900 -0.0164  0.0147
46234W        W89151   7.443  23.151  23.029  0.1152 -0.1113 -0.1647
46235W        W89152   8.209  23.286  23.088  0.3317 -0.1960 -0.2991
46236W        W89153   8.258  21.745  20.762  0.0248  0.0241  0.2586
46237W        W89154  10.689  22.030  22.098 -0.3566 -0.4420  0.0788
46238W        W89155   9.432  22.854  22.005  0.1012  0.0689  0.4458
46239W        W89156   7.922  23.886  22.809 -0.0837 -0.0124 -0.2669
46240W        W89157   8.876  20.968  21.408  0.3211 -0.1367 -0.1022
46241W        W89158   7.310  25.580  23.514  0.2226 -0.0388 -0.4180
46242W        W89159  11.045  27.086  22.731  0.0180  0.4104  0.1924
46243W        W89160   9.359  24.727  20.690  0.0362  0.1467 -0.4696
46244W        W89161   6.418  23.873  23.214  0.1252  0.1143  0.0236
46245W        W89162   8.306  22.713  18.889  0.2849  0.0599  0.0667
46246W        W89163   7.893  25.580  22.175  0.2313 -0.2869 -0.1662
46247W        W89164   7.811  25.350  23.110  0.2840  0.3776 -0.1483
46248W        W89165   7.881  22.506  20.556  0.3051  0.0750 -0.2511
46249W        W89166  11.181  26.743  21.573 -0.0009  0.0497 -0.1418
46250W        W89167   8.627  23.607  20.592  0.1971  0.1226 -0.1465
46251W        W89168   8.201  22.907  22.787  0.0213  0.1098 -0.0161
46252W        W89169   8.426  23.216  20.862  0.2484 -0.0724 -0.1388
46253W        W89170   8.436  24.503  23.633  0.2571  0.0120 -0.2096
46254W        W89171  10.678  25.200  24.193  0.0043 -0.2724 -0.0935
46255W        W89172   8.048  24.992  18.765  0.3385 -0.2898  0.2299
46256W        W89173  12.183  26.488  20.295  0.0750  0.1828 -0.0339
46257W        W89174   8.873  25.696  21.052 -0.0043 -0.0934 -0.1511
46258W        W89175   6.073  25.420  22.521 -0.1284  0.0450  0.1107
46259W        W89176   8.757  23.882  22.132 -0.1004 -0.1244  0.3204
46260W        W89177  10.692  23.165  21.986 -0.2421 -0.0936 -0.0943
46261W        W89178   6.407  22.622  23.511 -0.1247  0.2197  0.1991
46262W        W89179   7.161  22.728  22.947 -0.1725  0.1868  0.2133
46263W        W89180   7.071  25.135  20.129 -0.0339 -0.4023 -0.0235
46264W        W89181   6.604  25.508  22.438 -0.0863  0.0399 -0.1684
46265W        W89182  11.294  20.977  19.723 -0.0969 -0.1554  0.0054
46266W        W89183  11.970  22.861  19.366 -0.0744 -0.1545 -0.3150
46267W        W89184  10.946  24.516  22.228  0.1227  0.1079  0.0343
46268W        W89185  10.496  25.400  19.165  0.4115  0.0101  0.0981
46269W        W89186   8.589  22.403  20.449 -0.4018  0.2961  0.0295
46270W        W89187   9.494  22.552  19.972 -0.0101 -0.3651 -0.2289
46271W        W89188   7.271  26.708  22.778  0.4518  0.2821 -0.1356
46272W        W89189   9.055  25.902  22.956 -0.0469 -0.2021 -0.1410
46273W        W89190   8.663  24.304  23.087  0.1110 -0.0521 -0.0355
46274W        W89191   7.044  22.984  20.675 -0.0222  0.2594 -0.4374
46275W        W89192  13.128  24.245  20.089  0.0201 -0.1205 -0.3269
46276W        W89193   6.135  24.918  22.250  0.3558  0.1988 -0.6495
46277W        W89194   9.709  24.303  23.703 -0.1001  0.0062 -0.1769
46278W        W89195  10.307  26.056  21.644  0.0528  0.0907 -0.0953
46279W        W89196   8.528  19.159  25.093  0.2215  0.0182 -0.3024
46280W        W89197   9.187  25.536  22.105 -0.1285  0.2422 -0.1905
46281W        W89198   7.375  22.869  21.670  0.0351  0.0849  0.0108
46282W        W89199   5.974  26.933  18.309 -0.0711  0.0942  0.2420
46283W        W89200  10.288  23.263  22.277 -0.3478  0.3529  0.2607
46284W        W89201  10.490  24.207  21.971  0.1367  0.1194  0.1874
46285W        W89202   9.156  22.375  22.408  0.0241 -0.0422 -0.0856
46286W        W89203  10.515  23.231  23.614 -0.2355  0.0493 -0.0568
46287W        W89204   8.775  23.529  21.210 -0.0679  0.0797 -0.1233
46288W        W89205  10.102  22.245  22.074 -0.1327 -0.1482  0.1654
46289W        W89206   8.276  22.740  20.199  0.3394 -0.1900 -0.1987
46290W        W89207   8.802  20.883  23.637  0.1384 -0.0661  0.0982
46291W        W89208   8.406  25.030  24.544  0.2355  0.1095 -0.2291
46292W        W89209   7.922  27.343  23.669  0.2379  0.0224 -0.3584
46293W        W89210  10.634  25.086  21.679  0.2566  0.0565 -0.2929
46294W        W89211   9.181  25.119  23.367 -0.1559  0.0036 -0.1222
46295W        W89212   7.555  21.655  22.719 -0.0715 -0.1338 -0.0275
46296W        W89213   7.340  23.819  19.985 -0.3124 -0.0419 -0.4011
46297W        W89214   9.192  27.189  22.289 -0.0786 -0.0905 -0.1638
46298W        W89215  10.342  22.378  19.992  0.3187  0.0894 -0.0744
46299W        W89216   6.052  23.070  21.734 -0.0382 -0.0532  0.0569
46300W        W89217   9.734  23.867  22.169 -0.1233 -0.1047  0.2554
46301W        W89218   8.507  26.644  19.010 -0.0252 -0.0397 -0.1581
46302W        W89219   9.738  23.077  21.482 -0.1336 -0.1180  0.0978
46303W        W89220   8.388  24.564  19.938  0.0279  0.1445  0.0128
46304W        W89221   8.508  22.592  21.906 -0.0215  0.2505  0.0555
46305W        W89222   7.850  25.566  21.210  0.1471 -0.2987  0.1724
46306W        W89223   9.234  22.176  21.078 -0.0002 -0.1048  0.0351
46307W        W89224   7.683  24.424  18.683  0.0262 -0.0612 -0.0671
46308W        W89225  10.183  25.204  21.971  0.1827  0.1648  0.2082
46309W        W89226  10.060  26.779  22.130  0.1072 -0.0522  0.0324
46310W        W89227   7.705  24.825  22.496  0.0505 -0.2845  0.1852
46311W        W89228  11.180  23.844  20.038  0.0238  0.2117 -0.0766
46312W        W89229   8.470  25.032  22.018 -0.1518 -0.1067 -0.2197
46313W        W89230   9.634  22.112  24.198  0.2361 -0.1586 -0.1016
46314W        W89231  10.204  24.451  20.827 -0.0013 -0.2722 -0.0755
46315W        W89232  10.625  24.476  21.587  0.1754  0.0720  0.0014
46316W        W89233   9.696  24.068  23.224  0.0348  0.1706 -0.0667
46317W        W89234   7.734  21.995  21.378  0.3441 -0.0709  0.0049
46318W        W89235  10.057  23.691  23.074 -0.1520 -0.0556 -0.2969
46319W        W89236   7.095  24.247  21.179 -0.1644  0.0295 -0.1693
46320W        W89237   8.714  26.896  20.912 -0.2690  0.2287 -0.3236
46321W        W89238  10.949  24.732  21.282  0.0878  0.1592  0.0698
46322W        W89239   8.876  25.343  21.627  0.0565  0.0186  0.3053
46323W        W89240   8.712  25.210  20.767 -0.1601  0.0147  0.0625
46324W        W89241   8.448  23.546  23.425  0.0458  0.0436  0.0934
46325W        W89242   9.398  25.197  22.552 -0.0582 -0.1243 -0.0048
46326W        W89243   8.067  22.600  22.208  0.3682 -0.1292 -0.1063
46327W        W89244   9.196  22.997  20.486  0.0052  0.1596 -0.1140
46328W        W89245   9.094  25.174  23.900  0.0477  0.1075 -0.0799
46329W        W89246   9.214  25.975  24.913 -0.0539 -0.1129  0.1799
46330W        W89247   7.310  22.708  22.484  0.1880  0.1266 -0.0054
46331W        W89248   8.986  24.566  23.404  0.0531  0.1219 -0.1772
46332W        W89249   8.181  22.869  20.639 -0.1790  0.1075 -0.2797
46333W        W89250  11.748  26.092  21.313  0.0078 -0.1897 -0.0706
46334W        W89251  10.033  23.563  22.537  0.0020  0.0674 -0.1905
46335W        W89252   7.640  25.290  18.994 -0.0334  0.1060 -0.1469
46336W        W89253   8.347  24.498  22.800 -0.1065 -0.1430  0.0650
46337W        W89254   8.955  24.886  20.509  0.1371  0.2970  0.1417
46338W        W89255   9.718  23.117  20.980  0.0923 -0.2315 -0.0427
46339W        W89256   8.741  25.886  21.549  0.2794 -0.0632 -0.1058
46340W        W89257   7.473  24.904  20.427 -0.0107  0.2238 -0.2596
46341W        W89258   8.449  25.959  23.789 -0.3568 -0.1640 -0.0582
46342W        W89259  11.350  22.464  18.633 -0.0857  0.0689 -0.0506
46343W        W89260  10.460  24.096  19.255 -0.3833 -0.0746  0.1950
46344W        W89261   8.175  22.130  20.361  0.1855 -0.0321  0.0895
46345W        W89262   8.513  24.416  22.170  0.1842  0.4376  0.2783
46346W        W89263  10.198  23.704  19.389 -0.1506  0.0595 -0.0490
46347W        W89264   8.320  21.529  22.049  0.0991 -0.0756 -0.2123
46348W        W89265   9.062  22.413  21.944  0.2642  0.1980  0.0588
46349W        W89266   9.114  24.187  19.849 -0.1518 -0.1089 -0.4008
46350W        W89267   8.663  23.326  25.297  0.1274  0.2515 -0.0610
46351W        W89268  11.018  26.125  22.380 -0.1433  0.0632 -0.3179
46352W        W89269   7.741  22.947  22.441  0.1024  0.1043  0.0764
46353W        W89270  10.161  22.610  20.718 -0.2725  0.0497  0.1011
46354W        W89271   9.094  21.812  18.751  0.4502  0.1986 -0.4825
46355W        W89272   8.380  24.721  24.160 -0.0170 -0.1368  0.1657
46356W        W89273   8.729  24.761  22.431 -0.1024 -0.0883  0.4086
46357W        W89274   9.319  25.367  20.026 -0.0334 -0.0615 -0.1851
46358W        W89275  11.790  21.919  23.142  0.0237  0.1703  0.2073
46359W        W89276   8.357  25.302  23.220 -0.2694  0.0653  0.1532
46360W        W89277   8.060  23.657  22.290 -0.2059 -0.0725 -0.1735
46361W        W89278   9.435  25.205  18.161  0.1302 -0.0764 -0.0942
46362W        W89279   8.376  22.604  21.463 -0.1902  0.1423 -0.3068
46363W        W89280   7.488  23.013  23.978  0.1030 -0.2894 -0.1853
46364W        W89281   7.924  23.901  23.573  0.0927 -0.3079 -0.0276
46365W        W89282   8.329  24.891  20.971 -0.0246 -0.1969 -0.0958
46366W        W89283   8.451  22.872  23.209 -0.1397  0.1184 -0.1377
46367W        W89284   8.699  23.377  23.803  0.1346 -0.0984  0.0949
46368W        W89285   7.419  25.031  22.991  0.0570  0.0036  0.0004
46369W        W89286   7.515  23.216  25.220 -0.1736  0.1328 -0.0824
46370W        W89287  10.830  27.720  23.646 -0.3127  0.0226  0.4305
46371W        W89288   9.698  24.887  19.345 -0.3525  0.2649  0.2885
46372W        W89289   9.402  24.764  23.703  0.1043 -0.2098  0.1012
46373W        W89290  10.187  23.177  20.566  0.2236 -0.1690  0.1499
46374W        W89291   9.147  23.451  20.853  0.1003  0.1092  0.2109
46375W        W89292   7.838  23.383  22.711  0.1211 -0.1920  0.2150
46376W        W89293   9.576  24.405  22.843 -0.1395  0.0455  0.0077
46377W        W89294   7.949  23.034  19.365 -0.1175 -0.2202 -0.1727
46378W        W89295  11.095  22.909  22.820 -0.1587 -0.3354  0.0742
46379W        W89296   9.906  27.131  20.379 -0.1674  0.1471  0.2181
46380W        W89297  10.614  26.719  23.203 -0.2474  0.0872  0.0351
46381W        W89298  11.300  24.764  20.275  0.0453  0.2474 -0.5569
46382W        W89299   8.244  23.888  20.972  0.0902  0.0571  0.0967
46383W        W89300   9.224  26.887  24.718 -0.1846  0.2311  0.1497
46384W        W89301   7.509  25.134  20.929 -0.0423  0.1847 -0.1673
46385W        W89302   8.010  23.541  18.587 -0.5598  0.0666  0.2336
46386W        W89303   9.712  24.586  21.516  0.0848  0.5045 -0.0860
46387W        W89304   8.658  24.625  24.787 -0.0216  0.1036  0.0100
46388W        W89305   9.767  20.270  20.833 -0.0126  0.3819 -0.2019
46389W        W89306  11.728  23.879  21.878 -0.0129 -0.2166 -0.3021
46390W        W89307   8.898  25.248  18.388  0.0040 -0.0596 -0.1193
46391W        W89308   9.176  21.677  22.503  0.1052  0.0152 -0.1180
46392W        W89309   9.115  26.461  25.257  0.0978 -0.1057 -0.1831
46393W        W89310   8.342  25.831  23.286  0.1319  0.0353 -0.0288
46394W        W89311   8.777  24.046  21.185 -0.2022 -0.2846 -0.1154
46395W        W89312   7.483  20.570  22.083 -0.1222  0.1709  0.0171
46396W        W89313   9.426  22.665  21.470 -0.0442 -0.0218 -0.1984
46397W        W89314   7.365  21.582  22.292 -0.2151  0.3366 -0.0758
46398W        W89315  10.657  24.122  23.569  0.0379  0.2589 -0.1099
46399W        W89316   8.799  25.583  23.498  0.2866  0.1349  0.2388
46400W        W89317   8.212  24.009  21.951 -0.0147 -0.1441  0.0486
46401W        W89318   9.398  25.183  25.136 -0.2373  0.2319 -0.1271
46402W        W89319  10.605  23.743  21.188 -0.3853  0.1516  0.1087
46403W        W89320   8.179  23.897  24.457 -0.1382 -0.0993  0.1996
46404W        W89321   4.273  21.871  24.186 -0.0819 -0.2240 -0.1778
46405W        W89322   7.999  25.257  24.898 -0.4249  0.1307  0.0306
46406W        W89323   9.076  26.117  19.313 -0.0844 -0.0945 -0.0533
46407W        W89324   8.382  21.835  19.494  0.0517 -0.0492 -0.3023
46408W        W89325   9.604  25.652  20.804 -0.1680 -0.0808  0.1021
46409W        W89326   8.567  25.305  25.529  0.2649  0.0759  0.1997
46410W        W89327   6.508  25.259  22.934  0.4775 -0.0254  0.0592
46411W        W89328   8.054  26.190  21.078 -0.0695 -0.1759 -0.1226
46412W        W89329   9.368  26.332  21.548 -0.1931  0.1687 -0.1591
46413W        W89330   9.416  25.585  23.544  0.0730  0.0992 -0.0559
46414W        W89331   8.742  26.547  19.542  0.1536  0.1428 -0.1446
46415W        W89332   7.420  22.054  20.139 -0.1567 -0.2032 -0.1739
46416W        W89333   9.038  24.622  22.877  0.0946 -0.0375  0.1698
46417W        W89334   7.192  25.740  17.760 -0.2169  0.3413  0.0042
46418W        W89335  10.268  24.955  20.720 -0.0299  0.0800  0.0178
46419W        W89336   8.756  26.122  23.402  0.3197 -0.0346  0.3924
46420W        W89337   9.375  23.927  23.564 -0.0726 -0.3415 -0.1006
46421W        W89338   8.910  23.001  20.925  0.0531  0.2129  0.1132
46422W        W89339  10.020  26.323  21.257  0.0045  0.0793 -0.1145
46423W        W89340  10.449  23.592  20.749  0.3178 -0.1542 -0.1570
46424W        W89341   9.884  23.845  23.632 -0.1529 -0.0308 -0.1191
46425W        W89342   6.895  23.755  23.052  0.0179 -0.0413  0.1471
46426W        W89343   7.672  22.953  20.712 -0.2690 -0.0693 -0.3663
46427W        W89344   6.053  23.361  23.562  0.0229  0.0937 -0.1771
46428W        W89345  11.501  23.670  23.721  0.0909 -0.1304  0.0289
46429W        W89346   6.342  25.800  21.601 -0.0831 -0.1108  0.1261
46430W        W89347  10.381  26.300  20.391  0.0296 -0.0353 -0.2774
46431W        W89348   8.134  24.151  21.388 -0.2149 -0.0286  0.1869
46432W        W89349   7.805  24.580  21.952 -0.0164  0.0835 -0.1946
46433W        W89350   7.053  21.694  22.827 -0.1402 -0.3949  0.2922
46434W        W89351   8.106  23.563  21.761  0.0122  0.0679  0.2678
46435W        W89352   7.412  24.667  20.858 -0.2131  0.1759 -0.2640
46436W        W89353  10.051  26.085  22.558  0.0717 -0.2567  0.1292
46437W        W89354   9.771  24.739  24.771 -0.0968  0.1394 -0.1076
46438W        W89355   8.509  25.188  24.079 -0.1143  0.2203 -0.2270
46439W        W89356   7.228  22.046  21.517  0.0460 -0.2218 -0.1807
46440W        W89357  10.596  22.069  21.405 -0.2062 -0.1541  0.0871
46441W        W89358  10.686  23.491  24.091  0.0077  0.1971  0.0244
46442W        W89359  11.141  22.216  22.060  0.0041 -0.2452 -0.0599
46443W        W89360   6.456  24.284  22.843 -0.1202 -0.1315  0.0449
46444W        W89361  11.057  25.515  22.265 -0.0664  0.2490 -0.0619
46445W        W89362   8.836  25.093  24.874 -0.0837  0.0231 -0.0879
46446W        W89363   7.046  24.437  22.844 -0.0877 -0.0568 -0.2045
46447W        W89364   9.641  25.436  16.967 -0.2628 -0.2767  0.2468
46448W        W89365  10.662  24.265  23.068 -0.1289 -0.1419 -0.0316
46449W        W89366   9.956  23.152  19.591 -0.2239 -0.1078 -0.0345
46450W        W89367  10.642  24.851  22.147  0.0515 -0.0071  0.1406
46451W        W89368   6.903  23.282  23.162 -0.0233  0.0587  0.3190
46452W        W89369  10.479  21.633  19.969  0.0424 -0.2318  0.1375
46453W        W89370   7.357  24.700  23.898 -0.2438 -0.1773 -0.0237
46454W        W89371   9.037  24.182  23.812 -0.0920  0.1200  0.0476
46455W        W89372  10.001  24.222  21.846 -0.1857 -0.0215 -0.3397
46456W        W89373   9.557  23.384  20.526  0.0966  0.0618  0.1917
46457W        W89374  11.394  25.614  20.439 -0.1276  0.3891  0.1856
46458W        W89375   9.931  25.762  24.311 -0.0114  0.0561 -0.0044
46459W        W89376   9.654  25.392  17.529  0.1644 -0.1641 -0.1275
46460W        W89377   8.087  24.428  23.250 -0.1392  0.1117  0.3038
46461W        W89378  10.519  22.482  21.849  0.2779  0.1333  0.1747
46462W        W89379   6.803  22.266  22.317  0.1256 -0.1596  0.0863
46463W        W89380  11.163  25.858  21.918 -0.0314  0.0010  0.2617
46464W        W89381  12.132  22.252  21.475 -0.0227  0.0602 -0.0061
46465W        W89382   7.856  24.698  20.205 -0.0469 -0.1159 -0.0587
46466W        W89383   6.580  24.331  23.412 -0.1890  0.2019 -0.5047
46467W        W89384   8.407  23.550  19.552 -0.1661  0.0321 -0.1629
46468W        W89385   8.659  24.153  22.586  0.0190 -0.1474 -0.2670
46469W        W89386  10.707  21.088  21.928  0.0449 -0.0620 -0.1060
46470W        W89387  10.046  24.049  20.489 -0.0581  0.2089  0.0752
46471W        W89388  12.420  20.550  23.790 -0.2145  0.0143  0.0889
46472W        W89389   9.097  26.901  23.248 -0.2634 -0.1143 -0.1426
46473W        W89390   7.707  25.868  23.179  0.1454 -0.0154  0.3643
46474W        W89391   8.032  23.937  19.487  0.2391 -0.1997 -0.0645
46475W        W89392   9.227  23.225  22.954  0.1030  0.1543 -0.1157
46476W        W89393   9.583  24.597  21.976 -0.0327 -0.0395  0.3874
46477W        W89394   8.735  25.502  19.037 -0.0003 -0.1418  0.3777
46478W        W89395   8.278  25.931  21.457  0.0689 -0.0212 -0.0763
46479W        W89396  10.151  23.054  21.126  0.0115 -0.0279  0.1300
46480W        W89397  10.685  25.618  20.989 -0.0085  0.0804  0.0147
46481W        W89398   8.914  22.915  21.688  0.0487 -0.0092 -0.1767
46482W        W89399  10.279  22.930  19.309 -0.0414  0.4530  0.1114
46483W        W89400  11.463  22.346  18.167  0.0361  0.2008 -0.2057
46484W        W89401   6.829  24.051  22.622  0.0210 -0.2282 -0.2171
46485W        W89402   6.932  21.888  19.978 -0.0380 -0.0937  0.0805
46486W        W89403   9.384  24.523  20.178  0.0793 -0.1185  0.0138
46487W        W89404   6.785  25.393  21.587 -0.0325  0.1922 -0.2252
46488W        W89405   9.588  23.415  23.853 -0.0628 -0.2033 -0.1726
46489W        W89406   8.355  23.583  24.775 -0.1994 -0.0926  0.0458
46490W        W89407   7.419  25.892  21.163 -0.2743  0.0165 -0.1027
46491W        W89408   9.233  21.890  22.002  0.0546  0.0213 -0.2088
46492W        W89409  11.476  25.558  19.600  0.1868 -0.0490 -0.2973
46493W        W89410   8.753  23.278  23.089 -0.1774 -0.3144  0.2764
46494W        W89411   4.897  22.847  23.027  0.0633  0.0936  0.5102
46495W        W89412   7.909  25.122  22.133 -0.1127  0.0112  0.1500
46496W        W89413   9.489  26.482  19.151 -0.1290  0.2987  0.0567
46497W        W89414   6.999  22.505  21.521  0.3132 -0.0832  0.2096
46498W        W89415  10.861  24.023  21.600  0.0649 -0.1535  0.2103
46499W        W89416   8.822  23.330  19.725 -0.1774 -0.1159 -0.1739
46500W        W89417   8.721  21.873  22.272 -0.0405 -0.2133 -0.2125
46501W        W89418   8.742  23.481  24.311 -0.0031  0.2209  0.2768
46502W        W89419   7.339  21.448  20.732 -0.3853  0.1118 -0.2675
46503W        W89420   9.277  24.658  22.394  0.2537 -0.1174  0.0670
46504W        W89421  10.801  25.767  19.625  0.0682  0.2504 -0.0146
46505W        W89422  10.262  26.728  19.910 -0.3497  0.0280 -0.1652
46506W        W89423   8.414  24.783  23.234 -0.1432 -0.0930 -0.0862
46507W        W89424   8.361  25.374  22.350  0.2595 -0.4453 -0.2532
46508W        W89425   5.844  21.394  22.441 -0.2441  0.0518 -0.1177
46509W        W89426   9.081  23.945  20.814 -0.2363  0.0788 -0.0393
46510W        W89427   9.529  26.857  22.947  0.0392 -0.1967 -0.0839
46511W        W89428  12.427  25.633  19.028  0.2308  0.1025 -0.1804
46512W        W89429   9.927  23.319  23.482 -0.3162  0.0286 -0.1148
46513W        W89430   8.937  24.509  21.494  0.1681  0.4387 -0.2615
46514W        W89431   7.579  22.581  22.034 -0.1033 -0.0657 -0.1056
46515W        W89432   8.216  23.099  23.616 -0.0428  0.1855  0.0620
46516W        W89433  10.071  24.456  22.901  0.0155  0.2287  0.0970
46517W        W89434   8.607  23.017  21.330  0.1757 -0.1078  0.1014
46518W        W89435   9.405  22.726  20.941 -0.2053 -0.0895  0.0479
46519W        W89436   8.927  24.618  20.077  0.1656 -0.1023 -0.0917
46520W        W89437   7.891  24.589  21.265 -0.2198  0.0828 -0.0809
46521W        W89438   9.056  23.869  21.732  0.0582 -0.0053 -0.0437
46522W        W89439   8.178  24.151  22.498 -0.2172 -0.2054  0.1062
46523W        W89440   9.712  24.300  20.921 -0.0253 -0.1115  0.0846
46524W        W89441  10.284  23.235  22.998 -0.0071  0.0718 -0.1146
46525W        W89442   9.057  23.829  20.324  0.0961 -0.0520 -0.0850
46526W        W89443   9.301  25.200  19.183  0.0105 -0.0864 -0.0257
46527W        W89444  10.627  26.278  20.945  0.0683 -0.2259 -0.2746
46528W        W89445  10.084  26.223  23.960 -0.0855 -0.1126 -0.0080
46529W        W89446  10.411  25.778  20.619  0.1310 -0.0293  0.1386
46530W        W89447  10.150  23.724  21.890  0.1140 -0.2720  0.1432
46531W        W89448   6.517  22.001  22.740 -0.0781 -0.1304  0.2141
46532W        W89449   8.386  25.777  20.979  0.0005  0.0661  0.1630
46533W        W89450   9.615  23.583  21.792 -0.0585  0.0067  0.4347
46534W        W89451  10.056  21.016  21.984 -0.1659  0.3102  0.2273
46535W        W89452   8.666  23.587  21.748 -0.2713 -0.1225  0.3469
46536W        W89453   9.260  21.005  20.079  0.2680 -0.0652  0.2463
46537W        W89454   9.096  28.535  25.732  0.0514 -0.0194 -0.0272
46538W        W89455   8.201  24.798  22.367 -0.2286 -0.1464 -0.3039
46539W        W89456   7.733  25.045  27.007  0.0925 -0.3011  0.6010
46540W        W89457   7.341  21.368  23.069  0.3397 -0.3212 -0.0499
46541W        W89458   9.163  24.738  24.852  0.1375  0.3167 -0.1507
46542W        W89459  13.037  22.699  24.785  0.3757 -0.0135  0.3019
46543W        W89460   6.086  23.988  24.605 -0.1151  0.1235  0.0683
46544W        W89461  10.113  25.332  23.097 -0.1374 -0.2017  0.3290
46545W        W89462   9.796  22.172  27.962 -0.2504  0.2086 -0.1795
46546W        W89463  11.510  24.676  25.699  0.0132 -0.0551 -0.1060
46547W        W89464  11.312  25.600  25.953  0.4518 -0.1298 -0.1667
46548W        W89465   9.152  23.810  25.108  0.2792 -0.0522  0.0388
46549W        W89466   9.328  20.579  26.711 -0.2531  0.0269  0.0010
46550W        W89467   6.637  25.138  26.615  0.0701 -0.1883  0.2347
46551W        W89468  10.525  21.069  24.524  0.1318  0.1184  0.0360
46552W        W89469   9.591  20.769  25.382 -0.1923 -0.0495 -0.2330
46553W        W89470  10.280  23.010  25.216  0.2031 -0.1468 -0.2768
46554W        W89471   7.612  25.543  24.796 -0.2065 -0.0066 -0.2199
46555W        W89472   7.846  25.302  23.718 -0.0732  0.2643 -0.0257
46556W        W89473   7.129  23.429  25.413  0.0870  0.0273 -0.2426
46557W        W89474   9.848  24.820  26.698  0.2075 -0.2563 -0.1609
46558W        W89475  10.698  21.732  26.777  0.0069  0.3026  0.2445
46559W        W89476  10.774  20.671  26.676  0.1293  0.3049  0.0124
46560W        W89477   8.229  24.209  23.999  0.2829 -0.2026  0.0490
46561W        W89478   5.354  23.678  22.430 -0.1575  0.1683 -0.0306
46562W        W89479   7.833  21.975  25.580  0.0625  0.1152 -0.0735
46563W        W89480   8.617  24.150  28.548  0.1592 -0.2899 -0.1281
46564W        W89481  10.126  22.794  23.426 -0.1408 -0.0349 -0.2185
46565W        W89482  10.609  22.383  24.046  0.1288  0.4045 -0.1293
46566W        W89483  10.367  25.286  25.369  0.0259 -0.1694  0.1308
46567W        W89484   7.952  24.629  25.399  0.2156 -0.1257  0.1616
46568W        W89485   9.950  23.326  26.544 -0.1415  0.2388  0.2631
46569W        W89486   7.674  27.490  25.027 -0.1060 -0.1577 -0.1464
46570W        W89487   7.443  25.070  25.650 -0.1509 -0.2811  0.1573
46571W        W89488   9.600  26.707  24.445 -0.2640  0.0328  0.0107
46572W        W89489  10.944  25.354  27.375 -0.1543  0.2465 -0.0445
46573W        W89490  12.061  26.124  26.386 -0.1676 -0.0154 -0.2527
46574W        W89491   7.998  25.292  28.471  0.2111  0.1317  0.2881
46575W        W89492   7.901  27.047  25.055  0.0814  0.3127  0.2090
46576W        W89493   8.903  25.381  26.364 -0.0719  0.1317 -0.1452
46577W        W89494  10.124  25.057  27.081  0.2078  0.0686  0.0795
46578W        W89495   7.599  23.758  25.303  0.1729 -0.1082 -0.0183
46579W        W89496   9.456  21.759  26.158 -0.2996 -0.1288 -0.1830
46580W        W89497   7.573  24.862  25.204  0.0143 -0.1234  0.2419
46581W        W89498   7.920  24.858  22.971 -0.0222 -0.3419 -0.6555
46582W        W89499   7.467  25.419  28.129 -0.0520  0.0181 -0.2160
46583W        W89500   7.040  26.611  25.122 -0.2440  0.0321 -0.0423
46584W        W89501  11.818  21.241  26.680  0.0956 -0.1059 -0.0865
46585W        W89502   7.429  25.710  26.488  0.2283 -0.1562  0.2441
46586W        W89503   7.850  21.772  21.783  0.1058 -0.1523  0.0571
46587W        W89504   9.095  22.721  26.008  0.0417  0.2150 -0.1687
46588W        W89505  10.119  21.280  22.760  0.2070 -0.1023  0.0180
46589W        W89506   9.091  21.248  24.524 -0.0218 -0.0545  0.1592
46590W        W89507   6.791  26.957  25.414 -0.0642 -0.1454 -0.1975
46591W        W89508   9.236  23.237  25.062 -0.0255 -0.0450 -0.2070
46592W        W89509  11.821  24.826  27.168  0.0829  0.3693  0.0281
46593W        W89510   7.634  23.081  26.054 -0.2842 -0.4365 -0.1051
46594W        W89511   9.300  22.032  26.923 -0.0470  0.0901 -0.0538
46595W        W89512   8.479  25.160  26.517  0.0782 -0.1700  0.0614
46596W        W89513   8.944  23.550  24.720  0.2198  0.2354 -0.0618
46597W        W89514  10.886  26.298  25.718 -0.0559  0.2261 -0.0228
46598W        W89515   9.629  24.744  25.290 -0.0168 -0.1284  0.2013
46599W        W89516   9.477  27.479  23.988 -0.2249 -0.1645 -0.3121
46600W        W89517  10.175  22.693  24.322 -0.3266 -0.2092 -0.3075
46601W        W89518   8.477  23.937  27.528 -0.0886 -0.1224 -0.2589
46602W        W89519   7.215  23.630  25.856  0.1141  0.1492 -0.1733
46603W        W89520   7.761  22.634  23.715  0.0366 -0.1416 -0.1353
46604W        W89521  11.866  25.604  27.241 -0.0142  0.1588 -0.2375
46605W        W89522   6.772  23.434  25.878  0.1901 -0.2703  0.3938
46606W        W89523  10.528  22.122  25.300 -0.3058  0.0316  0.2393
46607W        W89524   9.324  25.288  26.111 -0.0907  0.0252  0.2594
46608W        W89525   9.497  25.690  27.144  0.0510  0.2333 -0.1674
46609W        W89526   9.333  24.445  24.117  0.1124 -0.1011  0.0846
46610W        W89527   9.684  19.918  24.467  0.0170  0.1089 -0.2019
46611W        W89528   9.103  21.637  27.661  0.0756 -0.0497 -0.0222
46612W        W89529   7.998  24.108  25.517 -0.0556 -0.0022 -0.2010
46613W        W89530   8.849  24.833  24.374 -0.1331 -0.0654 -0.2368
46614W        W89531  10.772  25.852  25.394  0.0164 -0.2377  0.1068
46615W        W89532   9.884  23.092  22.027 -0.3724 -0.1472 -0.3992
46616W        W89533   7.114  25.515  24.872  0.1320  0.1405  0.1681
46617W        W89534   8.911  24.071  25.498 -0.0079  0.1468  0.1339
46618W        W89535  12.785  24.471  28.977 -0.0359 -0.1277 -0.2482
46619W        W89536   7.292  23.241  23.489  0.2970  0.1052 -0.2029
46620W        W89537   6.644  24.358  24.191 -0.0416 -0.1512 -0.3817
46621W        W89538   6.398  26.243  24.018  0.0904 -0.1184  0.0244
46622W        W89539   7.162  22.809  26.221  0.3658 -0.0081  0.2513
46623W        W89540   9.034  24.451  26.749 -0.2521 -0.0720  0.0498
46624W        W89541  10.947  20.206  23.499 -0.0839 -0.1651 -0.1342
46625W        W89542   8.028  22.723  25.890  0.1888  0.0827 -0.1551
46626W        W89543  10.111  20.281  27.161 -0.3744 -0.0006 -0.2214
46627W        W89544   6.968  24.983  25.665  0.0701  0.1291  0.0093
46628W        W89545  10.994  25.410  26.877 -0.0021 -0.2611 -0.2126
46629W        W89546   9.090  22.631  24.906  0.0792  0.0191  0.0145
46630W        W89547  11.190  26.805  25.151  0.1206  0.1098  0.1138
46631W        W89548   8.728  24.121  26.371 -0.1342  0.0110 -0.0317
46632W        W89549   6.986  22.414  24.412  0.1250 -0.1284  0.0871
46633W        W89550   7.617  23.874  25.819 -0.0507  0.0166 -0.0046
46634W        W89551   6.614  21.656  25.993 -0.1528  0.0440  0.1689
46635W        W89552  10.730  24.246  26.347 -0.0661 -0.1675  0.0652
46636W        W89553   8.151  24.006  24.914 -0.0715  0.2491 -0.1042
46637W        W89554   9.790  23.059  25.224  0.2307  0.0015 -0.0043
46638W        W89555   6.699  25.249  24.653 -0.0399  0.0045  0.1199
46639W        W89556   5.583  23.971  24.781 -0.1610  0.1379 -0.2302
46640W        W89557  11.602  22.292  27.159 -0.0505  0.0702 -0.0990
46641W        W89558  11.220  25.406  23.533  0.2683  0.1997 -0.0113
46642W        W89559  12.410  24.420  25.227  0.0944 -0.0213  0.0481
46643W        W89560  10.491  26.353  24.279 -0.1363 -0.0466 -0.1762
46644W        W89561   8.512  24.447  25.593  0.2797  0.0433 -0.1221
46645W        W89562  10.306  24.261  26.615 -0.0220  0.2499  0.1961
46646W        W89563   7.712  25.846  24.148 -0.0267  0.1882 -0.2017
46647W        W89564   8.883  24.439  25.184 -0.0310 -0.0397 -0.2379
46648W        W89565   9.154  21.952  25.168 -0.0091  0.0956 -0.1917
46649W        W89566   8.944  25.895  25.410 -0.1015 -0.1661 -0.2207
46650W        W89567   8.947  25.365  24.356  0.0575  0.3376  0.0497
46651W        W89568   7.744  24.484  27.325  0.2256  0.2327  0.3528
46652W        W89569  11.065  19.499  24.765  0.1987  0.0602  0.0362
46653W        W89570   9.547  22.550  26.047 -0.2504 -0.2857  0.0068
46654W        W89571  11.121  23.451  26.123  0.0719  0.0209  0.2941
46655W        W89572   7.572  25.389  25.305 -0.3055 -0.0351 -0.2217
46656W        W89573  10.137  24.696  25.344  0.1752 -0.1895 -0.3450
46657W        W89574   8.073  25.660  24.538  0.0906 -0.1193 -0.1613
46658W        W89575   7.156  23.169  24.905 -0.0406  0.0898  0.0389
46659W        W89576   7.864  26.212  24.578 -0.0054  0.0708 -0.2753
46660W        W89577  10.962  21.253  26.736 -0.3087  0.0194 -0.0598
46661W        W89578   8.754  21.148  26.391  0.2521  0.2028  0.2190
46662W        W89579  10.782  24.396  27.390 -0.0261  0.0111 -0.0459
46663W        W89580   9.059  23.117  23.551 -0.1093 -0.2298  0.0673
46664W        W89581   7.171  24.653  26.036  0.1499  0.1211  0.0119
46665W        W89582  11.003  20.323  26.966 -0.1661 -0.3671 -0.2531
46666W        W89583   9.101  24.328  24.575 -0.0311  0.1308 -0.1745
46667W        W89584   8.003  25.146  27.445 -0.1903 -0.0513  0.2011
46668W        W89585  10.532  24.922  25.848 -0.1038  0.0549 -0.1196
46669W        W89586   9.465  22.134  22.827  0.0379  0.3933 -0.1155
46670W        W89587   8.645  22.866  23.673  0.0853  0.0846 -0.0897
46671W        W89588   8.477  23.502  26.276  0.2580  0.0359  0.6037
46672W        W89589  10.023  25.784  25.553 -0.2722 -0.1814  0.0860
46673W        W89590   7.387  26.045  26.992 -0.2304 -0.0501 -0.0587
46674W        W89591   7.359  21.619  21.686  0.0223  0.0920 -0.0054
46675W        W89592  10.050  24.167  24.066  0.1443 -0.1078  0.0832
46676W        W89593   6.973  24.668  23.307  0.3036  0.0338  0.3511
46677W        W89594   9.703  25.617  27.740 -0.1215  0.2062 -0.1386
46678W        W89595  11.947  22.885  22.716 -0.2645 -0.0727 -0.1292
46679W        W89596   8.041  23.495  25.948  0.2846 -0.0764 -0.1237
46680W        W89597  10.859  24.059  24.182 -0.3107  0.0229 -0.1355
46681W        W89598   8.116  21.708  24.872  0.0311  0.0613  0.1524
46682W        W89599   6.808  25.350  19.754 -0.0406  0.2456 -0.0492
46683W        W89600  10.087  25.037  25.703 -0.4541 -0.1150  0.1977
46684W        W89601   9.205  21.575  26.547  0.1698 -0.2270 -0.2885
46685W        W89602   8.795  21.614  26.128  0.1650 -0.0271 -0.1759
46686W        W89603  11.638  23.306  24.082  0.0149 -0.2261 -0.1533
46687W        W89604   9.486  23.932  24.070  0.0877  0.1886 -0.1207
46688W        W89605   9.793  22.215  26.267  0.1401 -0.0942  0.1082
46689W        W89606   7.526  24.728  24.393  0.1529 -0.1871  0.0536
46690W        W89607  10.060  23.093  27.197  0.3748 -0.0076  0.1937
46691W        W89608   7.509  21.175  27.126 -0.3246 -0.1598  0.1326
46692W        W89609   6.375  27.724  27.612  0.2375  0.0729  0.0365
46693W        W89610  11.158  26.053  26.548  0.1634  0.1978  0.2723
46694W        W89611   9.078  23.526  25.507 -0.1224 -0.3497 -0.0498
46695W        W89612  11.003  21.830  25.156  0.1559  0.2410 -0.3888
46696W        W89613   9.630  22.273  25.093  0.1086  0.1510 -0.1316
46697W        W89614   6.247  25.249  24.344  0.3721  0.0462 -0.3310
46698W        W89615   8.521  25.713  25.224  0.0800  0.2980  0.1251
46699W        W89616  10.200  22.152  24.354  0.0285  0.0397 -0.0363
46700W        W89617   6.541  25.763  25.542  0.2926 -0.0874  0.0568
46701W        W89618   9.667  25.167  23.938 -0.1691  0.0503 -0.0084
46702W        W89619  11.199  24.219  26.677  0.0157 -0.0027  0.1291
46703W        W89620   6.184  24.920  22.790  0.0842  0.4078 -0.2088
46704W        W89621   9.668  21.747  26.582  0.0664  0.0824  0.0645
46705W        W89622   7.777  26.285  26.352  0.0881  0.1188  0.0551
46706W        W89623   8.802  21.712  23.789 -0.1612 -0.0797  0.0248
46707W        W89624   6.977  23.778  25.055  0.0789 -0.1057  0.1975
46708W        W89625   9.828  23.498  26.979 -0.0970  0.1882 -0.0011
46709W        W89626   8.925  23.624  23.432 -0.1418 -0.3019  0.4993
46710W        W89627   8.775  24.537  27.998 -0.1692 -0.1379 -0.2558
46711W        W89628   9.100  23.128  26.967 -0.0090 -0.0238  0.1018
46712W        W89629   8.047  25.553  27.256 -0.3414 -0.1015 -0.1871
46713W        W89630   9.405  24.017  25.464  0.0756  0.0757 -0.0093
46714W        W89631  10.667  22.522  23.515  0.0854 -0.1505 -0.3871
46715W        W89632  10.279  23.744  26.322  0.0256 -0.0023 -0.1702
46716W        W89633   9.959  24.321  25.011  0.3237  0.0290  0.0541
46717W        W89634   6.689  23.330  24.918 -0.1687  0.0475 -0.0505
46718W        W89635   9.535  24.150  26.130 -0.1534  0.1945  0.0840
46719W        W89636   7.924  22.780  23.263  0.2065 -0.1804  0.1386
46720W        W89637   8.295  25.488  23.747  0.2514 -0.0252 -0.3030
46721W        W89638  11.786  24.637  23.833 -0.0940  0.1597 -0.1377
46722W        W89639   8.108  22.588  24.647 -0.3731  0.3623 -0.0048
46723W        W89640   8.582  24.080  24.769  0.0910  0.0050  0.3988
46724W        W89641   9.223  24.074  28.553 -0.0460 -0.0236 -0.2312
46725W        W89642  10.022  24.924  26.197  0.0177  0.0297 -0.0371
46726W        W89643   8.465  22.353  28.142 -0.0801  0.1978  0.0842
46727W        W89644   7.358  22.630  25.111 -0.1423  0.3277  0.1149
46728W        W89645   8.840  22.429  25.725  0.0472  0.0631  0.2037
46729W        W89646   9.304  25.417  26.715 -0.0269 -0.1030  0.0825
46730W        W89647   9.967  21.028  25.556  0.1074 -0.1857  0.0457
46731W        W89648   7.913  24.769  28.302 -0.3253 -0.1978  0.1247
46732W        W89649   9.312  23.203  26.146 -0.0929  0.1455 -0.1095
46733W        W89650  10.802  26.771  26.048  0.1322 -0.0526 -0.0348
46734W        W89651  11.729  25.353  28.307  0.0407  0.3284 -0.0569
46735W        W89652   8.067  25.668  25.746 -0.1640  0.1393 -0.0040
46736W        W89653   6.701  24.594  26.234  0.0869 -0.0677 -0.3268
46737W        W89654   7.928  25.866  23.690  0.2075  0.0816 -0.1625
46738W        W89655   8.395  22.266  25.845 -0.0558  0.1574 -0.0420
46739W        W89656   6.160  25.988  25.057 -0.2026 -0.1397 -0.1989
46740W        W89657   8.215  24.956  23.699  0.0665  0.1011 -0.1396
46741W        W89658   7.250  23.854  26.418 -0.1042 -0.3443  0.0389
46742W        W89659  10.380  23.694  23.683 -0.0592  0.3459 -0.4419
46743W        W89660   8.670  24.330  24.256 -0.0336  0.2756  0.3736
46744W        W89661   9.515  21.598  23.795  0.0901 -0.1304 -0.3360
46745W        W89662  12.725  23.102  24.703 -0.3554 -0.2588  0.0316
46746W        W89663  11.617  24.625  24.275  0.0820  0.1892 -0.2604
46747W        W89664  10.468  21.087  26.878  0.1148 -0.3267 -0.2893
46748W        W89665   7.244  21.308  26.152  0.2638 -0.1062 -0.1317
46749W        W89666   9.243  24.004  26.545  0.1993 -0.0726 -0.0040
46750W        W89667   9.591  22.653  25.574 -0.1527  0.0882 -0.3363
46751W        W89668  10.200  25.371  27.970  0.0430 -0.0894  0.1910
46752W        W89669   7.706  22.959  27.021  0.0992  0.3403  0.0617
46753W        W89670   9.319  21.678  24.262 -0.3120 -0.1268 -0.0212
46754W        W89671   8.124  22.584  26.402  0.2547 -0.1930 -0.0781
46755W        W89672   9.684  25.275  26.431 -0.1199 -0.0113 -0.1638
46756W        W89673  10.926  25.378  26.181  0.2149  0.2078 -0.0613
46757W        W89674  10.381  27.770  24.982  0.3065 -0.1874  0.2482
46758W        W89675   9.119  21.540  25.499 -0.0885  0.0105  0.0629
46759W        W89676   6.769  23.808  25.588 -0.1508  0.2917  0.0441
46760W        W89677   9.559  23.514  25.308 -0.0375 -0.0320  0.2822
46761W        W89678   7.228  24.036  25.499 -0.4332  0.0419  0.0219
46762W        W89679   7.255  24.417  22.109 -0.1326  0.2403 -0.0625
46763W        W89680   9.192  21.367  25.972 -0.0822  0.0637  0.1483
46764W        W89681  13.183  25.363  26.580  0.1142  0.0354  0.2851
46765W        W89682  10.944  22.119  23.743 -0.1082 -0.0962  0.4314
46766W        W89683  11.781  22.424  25.607  0.5551 -0.0734 -0.2427
46767W        W89684   8.798  23.150  26.129  0.2415  0.1402  0.0956
46768W        W89685   7.435  24.501  25.575 -0.1338 -0.0822  0.1565
46769W        W89686   8.537  22.717  27.648 -0.1521 -0.2453  0.1691
46770W        W89687  10.865  25.854  25.894 -0.2540  0.2415 -0.2314
46771W        W89688  10.077  22.301  23.317 -0.2106 -0.2293 -0.2927
46772W        W89689   9.624  22.186  25.648  0.3254 -0.3527 -0.0769
46773W        W89690   9.388  23.900  24.650 -0.1406  0.1223  0.1944
46774W        W89691   9.369  23.000  24.067  0.0551  0.2906 -0.0898
46775W        W89692   8.394  25.949  24.835 -0.1360  0.0724 -0.2109
46776W        W89693  11.345  23.856  26.253 -0.5138 -0.2164  0.2869
46777W        W89694   8.948  22.926  22.162 -0.3289  0.0405  0.3229
46778W        W89695  10.334  24.069  27.376 -0.0908 -0.1369 -0.1097
46779W        W89696   9.971  26.094  25.011  0.0191 -0.3817  0.1194
46780W        W89697   9.380  24.301  25.070  0.0693 -0.1358  0.0441
46781W        W89698   8.879  22.224  24.721  0.0709 -0.2633 -0.3772
46782W        W89699   7.165  24.120  25.974 -0.1885 -0.0307  0.1925
46783W        W89700   8.260  26.121  26.035  0.4498 -0.1376  0.3480
46784W        W89701   8.330  22.075  22.099  0.1557 -0.4445 -0.0798
46785W        W89702   8.548  25.252  26.026 -0.3564 -0.1244  0.2283
46786W        W89703  10.259  24.475  25.826 -0.0803 -0.0666  0.0743
46787W        W89704  11.142  22.434  27.544 -0.0125 -0.0752 -0.1517
46788W        W89705   9.301  20.859  23.690  0.0208  0.0098  0.1007
46789W        W89706  10.448  22.547  25.533 -0.1186  0.1295  0.0963
46790W        W89707   7.570  25.308  24.296  0.2248  0.1251 -0.0721
46791W        W89708  12.209  22.993  26.611 -0.1126 -0.2383 -0.0604
46792W        W89709   7.005  25.442  27.327 -0.1420 -0.0308 -0.0164
46793W        W89710   8.335  24.934  25.124 -0.2191 -0.0183 -0.1468
46794W        W89711   7.239  25.672  24.404  0.3194  0.2110  0.1455
46795W        W89712  10.216  20.461  27.591  0.0620  0.0584  0.0113
46796W        W89713   9.675  22.583  24.147  0.0293  0.0189 -0.0410
46797W        W89714   9.881  24.364  26.943 -0.2219 -0.0075 -0.0256
46798W        W89715  11.626  22.738  25.937 -0.2810 -0.0025  0.2971
46799W        W89716   8.467  26.042  28.632 -0.2285 -0.0147 -0.2520
46800W        W89717  10.365  24.618  27.164 -0.0506  0.0388 -0.2791
46801W        W89718   8.506  25.484  28.665 -0.1010 -0.1838 -0.0426
46802W        W89719  10.846  26.283  26.201 -0.0736 -0.2165 -0.0398
46803W        W89720   8.904  24.915  25.910 -0.0142 -0.0029 -0.0266
46804W        W89721   8.152  22.450  25.424 -0.3098 -0.0268  0.0032
46805W        W89722   9.534  23.752  27.750  0.0771 -0.1883 -0.0718
46806W        W89723  10.246  25.859  26.809 -0.0306  0.3713  0.3730
46807W        W89724   7.713  23.827  24.804 -0.1100  0.0189  0.3753
46808W        W89725   8.286  27.150  25.388 -0.0464  0.3703  0.0806
46809W        W89726   7.536  25.049  28.483  0.2327  0.0331  0.3015
46810W        W89727   8.199  23.026  26.243  0.2999 -0.0921  0.0307
46811W        W89728   8.721  26.161  22.220 -0.2297  0.0727 -0.0218
46812W        W89729  10.095  24.386  24.536  0.0785 -0.2269  0.1427
46813W        W89730   9.885  23.481  26.042 -0.2487  0.3093 -0.1035
46814W        W89731  10.135  25.257  26.621 -0.2708 -0.1951 -0.0435
46815W        W89732  10.123  21.837  24.898 -0.1821 -0.0100 -0.3876
46816W        W89733   7.496  27.344  23.962  0.0046  0.2587  0.2656
46817W        W89734   4.876  25.654  24.892  0.0841 -0.0391 -0.2746
46818W        W89735  10.323  24.983  23.842  0.1596  0.3928  0.5705
46819W        W89736   7.337  25.794  25.182 -0.2713  0.2637  0.1469
46820W        W89737  12.616  24.737  27.877 -0.1615  0.1849  0.0024
46821W        W89738  11.063  23.866  22.976  0.2076  0.1647 -0.1874
46822W        W89739  10.262  23.907  24.976  0.1219  0.0016 -0.0165
46823W        W89740  10.211  22.699  22.843 -0.3904  0.1343  0.1849
46824W        W89741  10.158  25.579  26.314 -0.1912 -0.0453  0.1488
46825W        W89742   7.754  26.651  25.368  0.2265  0.2892  0.1230
46826W        W89743   9.358  23.772  22.839  0.2376 -0.0936 -0.0714
46827W        W89744   9.541  23.668  26.305  0.0723  0.1327  0.1824
46828W        W89745  10.555  22.849  26.888 -0.0234 -0.0487 -0.3760
46829W        W89746   7.541  23.007  27.715 -0.0479 -0.2251 -0.0211
46830W        W89747   8.859  23.770  22.855 -0.5115 -0.3125 -0.2319
46831W        W89748   6.701  25.327  24.150  0.0415  0.0987 -0.0352
46832W        W89749   7.080  26.543  23.684  0.0233 -0.0675  0.0274
46833W        W89750  11.822  22.899  25.413 -0.1361  0.2346 -0.3634
46834W        W89751   8.171  26.086  24.264  0.1123 -0.4460  0.0073
46835W        W89752   8.811  22.818  25.355 -0.0171 -0.0352  0.0344
46836W        W89753   8.008  26.765  24.397  0.1803  0.1530  0.0420
46837W        W89754   8.759  25.697  28.271 -0.1429  0.0609  0.2880
46838W        W89755  10.798  25.330  25.117  0.1449 -0.1778  0.1671
46839W        W89756   7.927  22.906  24.116 -0.6110 -0.3074  0.4665
46840W        W89757   9.652  23.470  24.748 -0.0771  0.2686 -0.0137
46841W        W89758   9.683  23.882  28.272  0.1798 -0.1829  0.3958
46842W        W89759  11.177  22.556  23.657 -0.0402  0.3501 -0.2918
46843W        W89760   9.176  23.058  24.557  0.2793 -0.3672  0.0775
46844W        W89761   9.975  22.373  24.742  0.1620  0.0836  0.1650
46845W        W89762   9.421  24.166  26.975 -0.1243 -0.2162  0.1413
46846W        W89763   6.964  23.130  27.838 -0.0314 -0.1010  0.2497
46847W        W89764  10.934  23.431  24.503 -0.4457 -0.2613  0.1561
46848W        W89765  11.528  23.079  27.450 -0.0535  0.0654  0.1818
46849W        W89766  11.018  24.873  24.209  0.1015  0.2172 -0.2898
46850W        W89767   8.567  24.449  27.557 -0.1979 -0.2977  0.3159
46851W        W89768   8.293  24.405  24.527  0.2972 -0.1239  0.0073
46852W        W89769   8.908  23.001  24.127 -0.1639  0.1603 -0.2422
46853W        W89770   7.961  25.712  25.199 -0.1915  0.1002  0.2529
46854W        W89771   8.342  24.894  25.757  0.1953  0.1034 -0.1554
46855W        W89772  10.696  26.271  26.715  0.1350  0.0869  0.1927
46856W        W89773   7.159  21.470  24.167  0.1413 -0.2539  0.3389
46857W        W89774   9.488  22.963  23.362  0.2957 -0.3989 -0.1916
46858W        W89775  11.252  21.731  25.926 -0.0225 -0.0004  0.2839
46859W        W89776  10.377  26.069  24.649 -0.1104  0.1623  0.0950
46860W        W89777  10.802  23.740  26.573 -0.0867 -0.3437  0.0896
46861W        W89778  10.633  25.722  26.490  0.0455 -0.0748 -0.0002
46862W        W89779   8.383  21.508  26.509  0.0519 -0.1387 -0.1766
46863W        W89780   9.959  23.630  25.519  0.2706 -0.1218  0.3281
46864W        W89781  12.291  26.371  25.982  0.4483  0.0475 -0.1783
46865W        W89782   9.800  21.361  23.145 -0.3378  0.0002  0.1056
46866W        W89783   7.634  22.888  25.594  0.3552  0.0934  0.1299
46867W        W89784   7.093  26.090  22.280  0.3103  0.1686  0.0661
46868W        W89785   9.618  21.526  25.724 -0.0564 -0.2005 -0.0448
46869W        W89786  11.082  21.166  25.864  0.0572 -0.1362  0.1497
46870W        W89787   9.408  24.961  22.952 -0.2886  0.2578  0.0311
46871W        W89788  11.118  22.064  27.217 -0.0200  0.2240  0.2077
46872W        W89789   8.049  25.229  25.433 -0.2179 -0.1346 -0.3327
46873W        W89790   9.988  24.400  26.229  0.0468  0.2182 -0.2593
46874W        W89791   7.038  24.194  23.278  0.1879  0.0038 -0.0995
46875W        W89792  10.782  24.518  26.753 -0.1370  0.1143  0.0828
46876W        W89793   6.836  25.874  24.146  0.0197 -0.0333 -0.0522
46877W        W89794   9.034  25.823  25.953  0.0394 -0.1078  0.1360
46878W        W89795  10.424  26.178  25.238 -0.0875 -0.2033 -0.0807
46879W        W89796   9.458  23.687  25.825  0.2679  0.2112  0.1488
46880W        W89797  11.232  25.577  25.425  0.0321 -0.1683  0.1336
46881W        W89798   9.780  19.991  25.429  0.0548 -0.0905 -0.1446
46882W        W89799  10.559  20.379  25.121  0.0130 -0.2646  0.0178
46883W        W89800  10.237  24.024  22.324  0.3223  0.0152 -0.0930
46884W        W89801   8.339  23.968  25.868 -0.0598 -0.1261 -0.4759
46885W        W89802   8.082  23.147  25.613 -0.5979  0.1231  0.1381
46886W        W89803   6.425  25.298  23.719 -0.2657 -0.0545  0.2510
46887W        W89804   8.507  25.738  24.261 -0.0357  0.2354  0.1028
46888W        W89805   9.013  23.724  26.023  0.1016 -0.3129 -0.0666
46889W        W89806   7.203  23.580  24.647 -0.1236 -0.1303 -0.3061
46890W        W89807   7.632  23.401  25.689  0.0610  0.0625  0.1265
46891W        W89808   6.505  24.011  25.074  0.2779 -0.1466  0.0741
46892W        W89809  11.546  25.512  22.050 -0.1623 -0.0559 -0.0360
46893W        W89810   8.241  21.793  25.889 -0.2605  0.1406  0.1412
46894W        W89811   7.254  20.783  27.162 -0.0733  0.1705 -0.0723
46895W        W89812   9.791  25.271  24.451 -0.1877  0.2319  0.2250
46896W        W89813   9.573  24.308  24.503 -0.1530  0.2959 -0.2508
46897W        W89814   8.897  22.080  26.238 -0.3075  0.1766  0.0704
46898W        W89815  12.821  23.108  28.135 -0.0884  0.1083  0.0211
46899W        W89816   6.927  24.068  23.723 -0.2650  0.1578 -0.1118
46900W        W89817  10.156  21.873  26.582 -0.1143  0.3318  0.0856
46901W        W89818  11.944  22.254  25.233 -0.3444 -0.0985 -0.1656
46902W        W89819   8.604  23.999  23.567 -0.1148 -0.0075  0.0272
46903W        W89820   8.594  23.549  25.732 -0.0681  0.0544 -0.0710
46904W        W89821   9.454  24.833  26.184  0.0112 -0.1163  0.2264
46905W        W89822  11.888  25.132  25.104  0.3519 -0.0536 -0.0220
46906W        W89823   7.336  26.871  25.542  0.0190 -0.1611 -0.0831
46907W        W89824  10.148  23.953  28.822 -0.1173  0.2383  0.1283
46908W        W89825   7.256  22.591  25.787 -0.2449 -0.2117  0.0734
46909W        W89826  10.916  23.668  23.671 -0.0961 -0.1110  0.0713
46910W        W89827  10.925  23.553  25.594  0.4870 -0.2766 -0.1607
46911W        W89828  10.365  23.844  24.313 -0.3811 -0.0977 -0.2863
46912W        W89829  11.142  21.899  24.672  0.0643 -0.2181  0.1515
46913W        W89830   8.721  25.073  23.534 -0.1415  0.0162 -0.0836
46914W        W89831   8.834  22.678  27.137  0.3087 -0.2590  0.0255
46915W        W89832   9.024  23.520  26.461  0.0466 -0.2030  0.2154
46916W        W89833  10.789  25.321  25.663 -0.1533  0.0202 -0.1873
46917W        W89834   9.102  22.516  24.249 -0.0264 -0.0589  0.0056
46918W        W89835   8.979  22.829  23.186  0.0868  0.2102  0.0281
46919W        W89836   9.950  26.880  25.238  0.0784 -0.0958  0.2097
46920W        W89837   8.004  24.653  26.851 -0.0943  0.1087 -0.0116
46921W        W89838   7.650  26.137  25.435 -0.3569  0.1123  0.2186
46922W        W89839  11.089  24.022  27.448 -0.0393 -0.1929 -0.2020
46923W        W89840   9.696  24.564  25.829  0.1837  0.4647 -0.1478
46924W        W89841  10.738  24.938  27.114  0.0098  0.0068 -0.1102
46925W        W89842   9.228  24.532  25.550 -0.1588 -0.2006  0.0178
46926W        W89843  11.223  23.517  23.306  0.2933  0.0760  0.1841
46927W        W89844   9.679  25.223  26.959  0.0116 -0.1129  0.2730
46928W        W89845  13.053  24.970  28.886  0.2990  0.0198 -0.0175
46929W        W89846   7.570  25.519  27.120 -0.0629 -0.0897  0.0834
46930W        W89847  11.012  22.093  26.248 -0.1772 -0.1496  0.2001
46931W        W89848   7.223  19.972  26.412 -0.0230 -0.0738  0.1620
46932W        W89849   7.353  24.624  24.833  0.1847  0.0278 -0.0708
46933W        W89850   7.370  26.111  23.974  0.1658  0.0586  0.1876
46934W        W89851  11.262  21.421  25.015  0.1346 -0.0913  0.0880
46935W        W89852   8.493  24.590  26.759 -0.1439  0.0816  0.0823
46936W        W89853  10.635  21.227  24.006 -0.1468 -0.0566  0.0112
46937W        W89854   9.060  25.860  26.559 -0.2263 -0.0098  0.1304
46938W        W89855  10.448  24.655  26.250  0.0491  0.1586 -0.1273
46939W        W89856   8.033  23.512  31.529  0.2316  0.0139  0.2429
46940W        W89857   9.219  20.223  29.547 -0.1619 -0.0410 -0.1928
46941W        W89858  10.429  21.893  28.625 -0.2093  0.3196 -0.0140
46942W        W89859  11.831  23.870  29.058 -0.0712  0.1179 -0.0349
46943W        W89860   9.762  23.002  28.421 -0.1105 -0.2302  0.0424
46944W        W89861  10.638  24.109  27.805 -0.0267 -0.1295 -0.0334
46945W        W89862   8.923  21.170  30.019 -0.1150  0.1153 -0.0501
46946W        W89863   9.447  26.803  28.707 -0.0340 -0.1262  0.1209
46947W        W89864   9.688  26.339  28.456 -0.0295 -0.2201  0.3631
46948W        W89865   9.236  24.719  27.158 -0.3319 -0.0791  0.1162
46949W        W89866   9.631  23.991   1.447  0.0299 -0.0052  0.1169
46950W        W89867   8.104  23.781  29.174  0.0564  0.0139 -0.1512
46951W        W89868   9.328  20.837  28.628 -0.0248  0.1566  0.2165
46952W        W89869   9.356  19.627  29.438  0.1383 -0.1262 -0.1246
46953W        W89870  10.208  23.043  28.255 -0.2931  0.1874 -0.0446
46954W        W89871   7.204  22.647  27.661  0.1103  0.2050 -0.4142
46955W        W89872  10.696  23.129  31.027  0.2207 -0.0068 -0.0527
46956W        W89873   9.272  22.582  26.905 -0.1963  0.0631  0.0920
46957W        W89874  10.212  23.491  29.010 -0.1949  0.0979  0.1350
46958W        W89875   8.629  22.847   0.636 -0.3539 -0.0591  0.3089
46959W        W89876   9.782  21.980  30.628  0.2243 -0.0874  0.0914
46960W        W89877   8.462  24.609  26.166  0.1936  0.0488 -0.0048
46961W        W89878   8.398  22.052  26.348  0.0061  0.2692 -0.1453
46962W        W89879   7.626  20.662  30.113  0.0101  0.4208 -0.1592
46963W        W89880   7.870  23.607  30.619 -0.1118  0.1836  0.1257
46964W        W89881   8.581  22.967  28.771  0.0206  0.1769 -0.2128
46965W        W89882  11.661  22.724  28.469 -0.1642  0.1410  0.1582
46966W        W89883   7.506  24.067  28.499  0.0077  0.1365  0.1156
46967W        W89884   8.946  22.420  27.720  0.0291  0.1045  0.1735
46968W        W89885  11.237  23.262  30.136  0.1562  0.0269 -0.0608
46969W        W89886   7.414  23.169  30.042  0.0842  0.0009 -0.3194
46970W        W89887   7.526  25.727  29.636 -0.0218 -0.1420 -0.2986
46971W        W89888   7.778  25.952  29.281  0.0592 -0.1871  0.2812
46972W        W89889  12.861  23.220  26.960 -0.0518  0.3314 -0.2561
46973W        W89890   9.393  25.020  31.458  0.0769 -0.1276 -0.0217
46974W        W89891   9.379  24.682  30.676  0.0532 -0.1009 -0.1554
46975W        W89892   8.539  25.322  27.248  0.2640  0.0723  0.0125
46976W        W89893   9.177  27.388  29.417  0.1854 -0.0721  0.1979
46977W        W89894  10.059  23.252   0.330 -0.3151  0.0551 -0.3704
46978W        W89895  11.445  23.425  30.917  0.0806  0.3340  0.0873
46979W        W89896   9.790  24.864  27.865  0.0267  0.2478  0.0649
46980W        W89897   9.280  23.950  29.685 -0.0851  0.2370  0.0297
46981W        W89898   9.491  24.638  28.421 -0.0717 -0.2169  0.2732
46982W        W89899   9.533  24.840   0.314  0.0848  0.2210 -0.2062
46983W        W89900   8.028  21.888  30.357 -0.1436 -0.2762  0.0724
46984W        W89901  11.056  23.252  30.659 -0.1223 -0.2582 -0.0109
46985W        W89902  10.632  23.257  28.958 -0.0214 -0.1922 -0.1842
46986W        W89903  11.912  21.647  26.402  0.1766 -0.0920 -0.2720
46987W        W89904   8.851  23.654  27.738 -0.1115 -0.2792 -0.0600
46988W        W89905   9.136  25.325  27.201 -0.1858 -0.1268 -0.0575
46989W        W89906   8.199  21.889  29.830 -0.1607 -0.0304 -0.3763
46990W        W89907   8.866  25.179  28.055  0.0383 -0.1149 -0.0376
46991W        W89908   9.610  22.991  29.502  0.2336  0.2587 -0.0187
46992W        W89909   8.935  24.436  31.538 -0.4869 -0.3679 -0.0521
46993W        W89910   9.854  23.919  27.228 -0.0582 -0.1879 -0.1348
46994W        W89911   8.317  21.743  31.284 -0.0032 -0.0807 -0.1288
46995W        W89912   7.724  24.021  30.321 -0.1376 -0.2755 -0.2744
46996W        W89913   5.896  24.392  28.022 -0.4967  0.2379  0.2908
46997W        W89914  11.049  24.596  28.597  0.3037  0.3901  0.2976
46998W        W89915  11.642  23.926  26.702 -0.1225  0.1506 -0.0979
46999W        W89916   7.134  24.237  28.076 -0.0529  0.0302 -0.0128
47000W        W89917   9.679  21.665  27.920  0.1084  0.0222  0.0055
47001W        W89918   8.813  21.292  30.622  0.2601  0.0208  0.1378
47002W        W89919   8.628  20.528   0.407 -0.2579  0.1176  0.4454
47003W        W89920   7.760  21.468  27.540  0.1466 -0.0383 -0.1188
47004W        W89921   9.948  25.066  31.750  0.0867 -0.1179  0.1789
47005W        W89922   5.648  25.573  29.229 -0.2585  0.2139 -0.0593
47006W        W89923  11.480  23.807  28.637 -0.3715  0.3744  0.4275
47007W        W89924   9.154  23.180  29.924  0.0143  0.1321  0.0036
47008W        W89925   9.266  24.782  28.000  0.2298 -0.0917 -0.0594
47009W        W89926  11.783  25.046  27.894 -0.0795  0.1370 -0.0432
47010W        W89927  10.224  21.858  29.375  0.0712 -0.3713  0.2562
47011W        W89928  10.431  23.150  29.464  0.0920  0.0103 -0.1111
47012W        W89929   8.616  22.890  26.597 -0.1333  0.1365  0.2417
47013W        W89930   8.487  25.004  27.667 -0.0664  0.0750 -0.3661
47014W        W89931  11.725  24.870  28.556 -0.1430 -0.0102 -0.2469
47015W        W89932  11.888  22.815  27.164 -0.0609  0.0158  0.0515
47016W        W89933   7.204  25.438  29.867 -0.1957  0.1520 -0.0581
47017W        W89934   9.117  22.133  31.332  0.0885  0.2153 -0.2108
47018W        W89935   9.892  22.814  30.478  0.0428  0.0617  0.0930
47019W        W89936   8.869  25.012  26.856 -0.1243  0.1078 -0.0327
47020W        W89937   7.101  23.044  30.827  0.1259  0.0091  0.1688
47021W        W89938   7.358  22.148  29.035 -0.1713  0.2312  0.2863
47022W        W89939   6.522  22.968   0.176 -0.0920 -0.0604  0.2107
47023W        W89940   9.465  23.952  29.217  0.0164  0.2017 -0.1819
47024W        W89941  11.142  22.947  27.754 -0.1998  0.1238 -0.0293
47025W        W89942   8.946  22.664  31.300 -0.2123 -0.0069 -0.0214
47026W        W89943  11.150  23.132  28.296 -0.0858  0.0617 -0.0353
47027W        W89944   9.449  22.536  27.788 -0.1192 -0.0682  0.1094
47028W        W89945  12.848  24.286  27.643  0.0810  0.1210 -0.1037
47029W        W89946  11.464  23.282  27.968  0.0942 -0.2544 -0.0727
47030W        W89947  11.248  25.176  27.740 -0.1969  0.1775 -0.1892
47031W        W89948   6.324  22.701  30.864 -0.1837 -0.2297 -0.2101
47032W        W89949   8.329  22.560  26.877  0.0283 -0.0772  0.1217
47033W        W89950   8.547  21.322  31.026 -0.0906 -0.0942 -0.3023
47034W        W89951   7.111  21.334  30.059  0.1650 -0.2675  0.0630
47035W        W89952   9.102  24.194  30.676  0.3290 -0.0127 -0.0532
47036W        W89953   9.812  20.771  27.712 -0.0580 -0.0503 -0.1702
47037W        W89954  10.991  22.633  28.853 -0.2233 -0.1644  0.0371
47038W        W89955   8.024  23.500  29.586  0.2954  0.2567 -0.1372
47039W        W89956   6.635  23.973  27.236 -0.0533  0.0888  0.2685
47040W        W89957   9.966  22.723  29.749  0.0145  0.0582 -0.0488
47041W        W89958   8.177  24.620  27.893 -0.1479 -0.0208  0.2033
47042W        W89959  10.605  25.523  29.860  0.0104 -0.2457 -0.0418
47043W        W89960   9.479  24.738  30.166  0.0761  0.2859 -0.0046
47044W        W89961   7.662  21.893  29.400 -0.3568  0.0565  0.1616
47045W        W89962   7.239  21.683  27.788  0.0105  0.1511  0.1019
47046W        W89963   9.928  24.378  27.451  0.1381 -0.1954  0.3186
47047W        W89964   7.737  23.776  27.658  0.1068  0.2529  0.1391
47048W        W89965   9.289  22.337  26.455  0.0018  0.1163  0.1495
47049W        W89966  13.089  27.121   0.209  0.2300 -0.0678  0.1079
47050W        W89967   8.838  25.376  27.642  0.1210  0.2717 -0.0573
47051W        W89968   9.168  24.275   0.015  0.0527  0.0557  0.3609
47052W        W89969  10.296  22.616  30.144 -0.0897 -0.2926  0.0334
47053W        W89970  11.359  22.909  29.220  0.1688  0.0856 -0.0897
47054W        W89971  10.611  23.239  27.482  0.0244 -0.3695 -0.5436
47055W        W89972   8.285  20.552  27.471  0.0597 -0.0016  0.0403
47056W        W89973   9.651  23.941  28.757  0.2161 -0.1536  0.2450
47057W        W89974   7.345  24.746  28.088  0.0464 -0.0623 -0.2441
47058W        W89975   9.762  22.898  30.934 -0.2419 -0.3071 -0.1587
47059W        W89976  11.046  23.546  28.693 -0.0864  0.3146  0.0198
47060W        W89977  10.560  22.565  29.113 -0.0165 -0.0084  0.2847
47061W        W89978   6.604  23.956  31.213 -0.0630  0.0051  0.4706
47062W        W89979  11.297  24.115   0.215 -0.1483 -0.1488 -0.2447
47063W        W89980   8.973  24.180  27.744 -0.2241  0.1319  0.0871
47064W        W89981   8.395  24.308  31.067 -0.0148  0.1357  0.0985
47065W        W89982   9.494  23.094  27.773 -0.0871  0.0654 -0.5069
47066W        W89983  14.199  22.534  27.968  0.2561  0.3185 -0.3878
47067W        W89984   9.385  22.580  31.166  0.1409 -0.1952  0.0247
47068W        W89985  10.575  25.661  27.467 -0.0566  0.0589 -0.1658
47069W        W89986   8.354  24.776  30.501 -0.1267  0.0140  0.1601
47070W        W89987  10.885  23.383  27.870 -0.1102 -0.1837  0.0413
47071W        W89988   8.366  22.422   0.623 -0.0894  0.1988  0.1455
47072W        W89989   9.342  24.370  27.529 -0.3901 -0.0184  0.1681
47073W        W89990  10.081  22.861  29.257  0.0341  0.1858  0.0439
47074W        W89991   9.911  23.330  27.680  0.2994  0.3135  0.0266
47075W        W89992  12.711  23.078  28.805  0.0233  0.2216 -0.1465
47076W        W89993   8.561  24.592  30.013 -0.2749 -0.1353  0.5302
47077W        W89994  11.218  25.160  30.061 -0.0401  0.2123  0.0463
47078W        W89995  10.895  23.196  29.697 -0.1650  0.0150  0.0392
47079W        W89996   8.957  23.145  28.516 -0.1990 -0.3738 -0.0614
47080W        W89997   9.008  25.582  29.433  0.0870 -0.1248  0.2293
47081W        W89998   9.020  22.866  27.808  0.1446  0.0516  0.0427
47082W        W89999   7.641  25.497  28.906 -0.2646  0.3321 -0.0530
47083W        W90000   9.760  23.911  29.705 -0.0379  0.0617 -0.0101
47084W        W90001   8.252  22.686  29.038  0.0675  0.0686  0.2609
47085W        W90002   9.865  23.310  31.295 -0.0804 -0.0076 -0.1243
47086W        W90003   9.674  24.505  31.390 -0.1478 -0.2487 -0.3612
47087W        W90004  10.506  24.119  29.367  0.1849  0.2289 -0.3082
47088W        W90005   9.583  21.164  31.818  0.1750 -0.1032  0.0319
47089W        W90006   7.461  23.762  28.083  0.1698  0.2018 -0.1416
47090W        W90007   8.609  23.323   0.743  0.1260  0.0083 -0.1140
47091W        W90008   9.223  23.451   0.422 -0.1331  0.4090 -0.0105
47092W        W90009   7.055  23.161  28.747  0.0269 -0.1133  0.0404
47093W        W90010   9.926  24.353  28.565  0.1450  0.0801  0.0838
47094W        W90011  11.200  23.849  26.982 -0.0798  0.4862 -0.0824
47095W        W90012   9.360  23.901   0.388 -0.0115 -0.0126  0.1072
47096W        W90013  10.638  21.525  29.271 -0.2636 -0.0202  0.0414
47097W        W90014   9.748  24.792  27.270 -0.3506  0.1373 -0.1758
47098W        W90015   8.094  24.086  28.698  0.1684  0.2376  0.0648
47099W        W90016   8.506  20.893  30.688 -0.2068  0.3668 -0.2467
47100W        W90017   7.889  23.449  30.140 -0.3821  0.2738 -0.1310
47101W        W90018   9.639  25.027  29.709 -0.4114  0.0376  0.0725
47102W        W90019   9.731  22.721  28.864 -0.1678 -0.1591 -0.0899
47103W        W90020   7.616  25.865  28.373 -0.3130 -0.2211 -0.1768
47104W        W90021  10.566  23.905  30.976 -0.2785 -0.0539  0.2857
47105W        W90022   7.846  23.645  28.477  0.3061  0.0262  0.1427
47106W        W90023   9.607  22.968  27.028  0.2396  0.0162  0.2252
47107W        W90024   8.934  23.235  29.436  0.1625  0.1457 -0.1684
47108W        W90025  10.621  22.856  28.569 -0.0054  0.0669  0.2201
47109W        W90026  10.798  23.045  26.271  0.1959  0.1077 -0.3065
47110W        W90027   7.858  21.712  31.026  0.5432  0.1177  0.1342
47111W        W90028  11.263  23.086  28.785 -0.2540 -0.1216 -0.4516
47112W        W90029   6.847  24.251  29.904 -0.2092 -0.2758 -0.0085
47113W        W90030   8.025  22.718  30.798  0.1222  0.1434  0.2121
47114W        W90031  10.993  21.300  28.382 -0.0870  0.0630  0.0232
47115W        W90032  11.015  25.597  29.619 -0.1059  0.3169  0.0895
47116W        W90033   8.145  22.938   0.914  0.1700 -0.0343  0.0039
47117W        W90034   8.939  23.206  27.440 -0.0181  0.0080  0.3211
47118W        W90035  10.171  23.085  30.059 -0.0821  0.0455  0.4023
47119W        W90036   8.258  23.453  28.745  0.4458  0.0900 -0.0877
47120W        W90037   7.201  23.132  25.829  0.2396 -0.0705  0.0053
47121W        W90038  10.143  24.551  29.455  0.0144  0.1560 -0.2355
47122W        W90039   7.587  22.316  30.252  0.0628 -0.2100  0.1989
47123W        W90040   8.003  23.009  28.743 -0.2756  0.0401 -0.1783
47124W        W90041   7.831  22.655   0.551 -0.1980 -0.0434  0.0275
47125W        W90042  11.029  22.762  30.819 -0.2366 -0.4365 -0.1374
47126W        W90043   8.802  21.949  28.169  0.1187 -0.0661 -0.1128
47127W        W90044   9.207  23.894  27.383  0.0219 -0.0062 -0.2537
47128W        W90045   9.334  23.561  28.490  0.2081  0.2088 -0.2062
47129W        W90046  10.711  22.845  30.034  0.1995  0.1010 -0.1174
47130W        W90047   9.780  24.106   0.727 -0.0197  0.0149  0.2515
47131W        W90048   8.050  24.905   0.048  0.0140 -0.2655 -0.0297
47132W        W90049  10.199  22.641  31.659 -0.0957 -0.4193 -0.3783
47133W        W90050  10.098  27.426  25.220  0.4477 -0.1651 -0.1293
47134W        W90051  10.023  24.156  31.396 -0.1347  0.2758  0.1097
47135W        W90052   6.090  23.482  28.682 -0.0148 -0.1251 -0.0087
47136W        W90053   8.082  21.267  31.050  0.0776 -0.1977  0.3007
47137W        W90054   9.548  22.439  30.742  0.1701  0.1062  0.0751
47138W        W90055   8.891  21.862  30.177  0.1839 -0.3264 -0.1147
47139W        W90056   9.089  23.942  30.213  0.0897  0.1619  0.0629
47140W        W90057   7.907  25.184  27.962  0.0532 -0.1091  0.0814
47141W        W90058   8.086  23.028  31.830 -0.0370  0.1560 -0.2169
47142W        W90059  10.741  22.668  27.373 -0.0493  0.3103 -0.1307
47143W        W90060  12.505  23.737  26.770 -0.0495 -0.2875  0.0444
47144W        W90061   7.733  23.435  29.062 -0.0177 -0.0677 -0.0301
47145W        W90062   9.909  22.536  31.247 -0.0293  0.1380 -0.0756
47146W        W90063   8.290  24.252  27.097  0.0553  0.0435  0.0285
47147W        W90064   8.608  22.933  30.507 -0.0337  0.2587  0.2678
47148W        W90065   8.060  21.320  31.567 -0.3366 -0.1309  0.2381
47149W        W90066  11.312  25.640  28.583 -0.2618 -0.3129  0.1244
47150W        W90067  10.706  22.166  28.274  0.0092 -0.1098  0.1780
47151W        W90068   9.872  26.071   0.635 -0.1098 -0.0576  0.0785
47152W        W90069   7.573  22.899  31.005  0.1248 -0.1212  0.0462
47153W        W90070  12.172  24.079  26.893 -0.1726 -0.0202  0.3349
47154W        W90071   8.632  21.313  27.360  0.0022 -0.2741  0.1126
47155W        W90072   9.385  23.431  31.470 -0.1302 -0.0550  0.4206
47156W        W90073   9.877  22.829  27.958 -0.0721 -0.1678  0.1670
47157W        W90074   8.763  23.387  28.932 -0.1141  0.0443 -0.1090
47158W        W90075   8.682  22.754  29.246 -0.4222  0.2534  0.2582
47159W        W90076   7.557  24.845  30.949 -0.3031 -0.2785  0.2593
47160W        W90077  11.713  23.630  27.463  0.0480  0.3064  0.1904
47161W        W90078   7.648  22.789  29.758 -0.0370 -0.1178  0.0556
47162W        W90079   8.405  22.676  30.108  0.3084  0.0334  0.1281
47163W        W90080   8.755  20.424  29.275  0.1399  0.1062  0.3090
47164W        W90081  10.488  25.390  26.942 -0.0538  0.1655  0.2016
47165W        W90082   8.656  22.079  29.692 -0.0432  0.1954 -0.1084
47166W        W90083   8.218  22.005  30.874  0.0158  0.0603 -0.0645
47167W        W90084  11.821  23.737   0.748 -0.0984 -0.3624  0.0115
47168W        W90085   8.665  22.481   1.032 -0.0192 -0.1420 -0.1239
47169W        W90086   8.827  22.448  31.794 -0.1583 -0.2468 -0.0815
47170W        W90087   9.168  26.924  29.677 -0.0342  0.1484 -0.0880
47171W        W90088  10.032  22.707  25.883  0.0362 -0.0659  0.1024
47172W        W90089  11.741  22.881  31.644 -0.2934 -0.1188  0.0797
47173W        W90090  12.304  23.854  28.205  0.2674 -0.0421 -0.1538
47174W        W90091   8.641  24.769  27.198  0.0874  0.1969  0.0381
47175W        W90092   7.718  20.926  31.129 -0.2862  0.3941  0.0719
47176W        W90093  10.219  23.628   0.662  0.0212  0.0066 -0.0478
47177W        W90094  10.253  23.831  26.827 -0.0022  0.0079 -0.4330
47178W        W90095   9.451  23.806   0.949 -0.0120 -0.1479  0.1899
47179W        W90096  10.242  23.521  27.353 -0.1839  0.0979  0.0304
47180W        W90097  10.151  23.700  29.455  0.0032  0.0611 -0.0116
47181W        W90098   9.219  23.810  28.100 -0.3392  0.1017 -0.3532
47182W        W90099   7.187  22.214  30.730  0.3688  0.0072  0.4079
47183W        W90100   6.242  25.037  30.082  0.1525  0.0709 -0.0501
47184W        W90101   9.817  23.429  28.166 -0.1194  0.2082  0.0896
47185W        W90102   7.221  24.548  27.612  0.1023  0.0177 -0.0099
47186W        W90103  10.255  24.398  28.909  0.0377  0.3045 -0.0149
47187W        W90104   9.678  25.856  29.915 -0.0441 -0.1496  0.2973
47188W        W90105   8.690  21.893  25.099  0.0154 -0.0951  0.2654
47189W        W90106  10.909  24.723  30.906 -0.1025  0.0490 -0.0604
47190W        W90107   8.788  23.634  27.232 -0.1762  0.0008 -0.1358
47191W        W90108  10.082  22.387  28.978  0.0654 -0.1011 -0.0786
47192W        W90109  10.108  25.195  28.851 -0.2070 -0.1169 -0.1312
47193W        W90110   6.341  24.196  29.723  0.0315 -0.2339  0.0164
47194W        W90111   8.234  24.104  30.118 -0.0685  0.0302  0.0420
47195W        W90112   8.509  22.620  31.042 -0.3907 -0.0904 -0.1397
47196W        W90113  11.046  22.967  26.744  0.2587  0.1772 -0.0707
47197W        W90114   8.948  23.195  31.403 -0.0734  0.3233  0.0231
47198W        W90115   9.430  23.011  30.495  0.2395 -0.2696  0.3213
47199W        W90116   8.386  23.883   2.145  0.2392 -0.1907  0.1769
47200W        W90117   9.127  22.862  31.736  0.0339  0.0305 -0.2588
47201W        W90118   9.995  26.441  29.367  0.1453  0.2656  0.1764
47202W        W90119  11.278  23.608  28.263  0.2191  0.1293  0.0522
47203W        W90120   8.268  22.207  29.390  0.0684 -0.1418 -0.0755
47204W        W90121   5.891  23.704   0.190  0.0251  0.2888  0.2705
47205W        W90122   9.059  22.717  30.742 -0.0715  0.1710  0.2507
47206W        W90123   9.595  22.415  28.382  0.1360 -0.1234 -0.0897
47207W        W90124   9.130  21.187  27.333  0.2200  0.0813  0.0922
47208W        W90125  12.180  25.070  27.541 -0.1552  0.0003  0.0282
47209W        W90126   7.899  22.616   0.061 -0.1236 -0.0954 -0.0134
47210W        W90127   7.688  23.202  31.434  0.4614 -0.1066  0.0700
47211W        W90128   8.852  24.773  26.439 -0.1299 -0.1445  0.4757
47212W        W90129  11.115  21.794  28.267  0.0006 -0.1825 -0.2233
47213W        W90130  10.725  24.083  26.971  0.2169 -0.3076 -0.1626
47214W        W90131   9.022  25.199  29.088 -0.1489  0.0526 -0.0988
47215W        W90132   9.893  21.096  28.203  0.1380  0.1520  0.2055
47216W        W90133   8.089  24.725  29.210 -0.1346  0.0389 -0.0949
47217W        W90134   7.551  22.980  26.510  0.1298  0.1793 -0.1098
47218W        W90135  11.907  22.739  26.306 -0.0883  0.0306  0.0929
47219W        W90136   8.330  24.105  29.516  0.3131  0.3708  0.0658
47220W        W90137   9.906  23.747  31.031  0.1659  0.1961 -0.0942
47221W        W90138  12.280  20.328  26.456  0.2208  0.3441  0.0459
47222W        W90139   9.518  23.593  30.091  0.0373  0.0939 -0.0066
47223W        W90140  10.118  22.900  26.743  0.1623 -0.1047  0.2441
47224W        W90141   8.589  24.788   0.472 -0.0012  0.3491  0.0903
47225W        W90142   7.944  23.266  31.025  0.1794 -0.0674 -0.1743
47226W        W90143  10.724  22.922  28.065  0.0705  0.4007 -0.2290
47227W        W90144   7.942  23.875   1.068  0.0094 -0.1018 -0.4186
47228W        W90145  13.514  23.483   0.059  0.2097  0.2000  0.3249
47229W        W90146   6.729  24.642  29.579 -0.1928  0.1931 -0.1626
47230W        W90147  11.315  26.105  29.005 -0.1012  0.0243 -0.2085
47231W        W90148   8.758  22.515  28.792 -0.0517  0.0474 -0.4525
47232W        W90149   8.673  21.394  28.854 -0.1247  0.0272 -0.3278
47233W        W90150  11.719  24.315  28.627 -0.2149  0.0511 -0.0031
47234W        W90151  10.372  23.333  26.815 -0.0252 -0.2072  0.0436
47235W        W90152   8.903  21.495  29.695  0.0047 -0.1692 -0.0107
47236W        W90153   7.688  24.955  29.010  0.1298  0.1815 -0.0974
47237W        W90154   8.269  24.189  31.956 -0.1518  0.1235  0.0296
47238W        W90155   9.136  25.097  29.571  0.2346 -0.1125  0.0681
47239W        W90156   8.316  20.796  29.187 -0.0853  0.1076 -0.0170
47240W        W90157  12.002  23.613  26.963 -0.2059  0.0246 -0.1468
47241W        W90158   9.222  22.828  29.193  0.0496  0.1876 -0.0935
47242W        W90159   9.628  21.452  30.484  0.0791 -0.0034 -0.1070
47243W        W90160   7.620  22.407  31.610  0.1552  0.0066 -0.2107
47244W        W90161  11.712  21.527  27.673  0.1032  0.2093  0.0374
47245W        W90162   9.402  22.472  31.647 -0.1365  0.0496 -0.1363
47246W        W90163   8.096  22.412  30.354  0.0405  0.1781  0.0724
47247W        W90164  10.390  21.053  28.182  0.1216 -0.0685  0.1693
47248W        W90165  11.997  25.004  30.578  0.0586 -0.2555 -0.0755
47249W        W90166  11.179  22.145  26.710  0.1837 -0.0682  0.1272
47250W        W90167  10.866  27.090  31.829  0.0201  0.0040  0.1068
47251W        W90168   9.090  22.389  28.335  0.2585 -0.1711 -0.0441
47252W        W90169  10.027  23.957  27.786  0.1313  0.3396 -0.0044
47253W        W90170   8.841  22.233  30.934 -0.0183  0.0507  0.0434
47254W        W90171   8.610  23.563  31.178 -0.2618 -0.0326 -0.4981
47255W        W90172   7.632  24.280   0.994  0.4317 -0.0415 -0.0898
47256W        W90173   9.451  23.268  26.623  0.4749 -0.1291 -0.3449
47257W        W90174  13.206  24.650  29.241  0.5164 -0.0072 -0.2832
47258W        W90175  10.622  22.950  30.557  0.2638 -0.0055  0.1485
47259W        W90176   8.998  24.299  28.972  0.2134 -0.1782  0.0120
47260W        W90177  11.540  24.942  29.797 -0.3219 -0.0203  0.2496
47261W        W90178   9.767  26.489  28.949  0.2145  0.1371  0.1424
47262W        W90179   8.447  20.945  30.191 -0.1133  0.0446 -0.2268
47263W        W90180   9.137  24.408  26.144  0.0267  0.1568 -0.2390
47264W        W90181  12.197  24.780  28.317  0.1447  0.2953 -0.2957
47265W        W90182   9.617  21.972  27.522 -0.0082  0.0380  0.0165
47266W        W90183   7.499  21.753  28.237 -0.0423 -0.1421 -0.1458
47267W        W90184   6.271  24.665  29.788 -0.1393 -0.3487 -0.0070
47268W        W90185  10.296  23.518  28.530 -0.1623  0.0550 -0.0726
47269W        W90186   8.602  23.154  29.808 -0.1353  0.4692 -0.3191
47270W        W90187  11.694  24.417  26.824 -0.1655  0.1285  0.1086
47271W        W90188  11.319  22.056  29.679  0.0782 -0.1184  0.4288
47272W        W90189   7.204  25.110  27.737  0.0707 -0.1142 -0.1000
47273W        W90190   8.805  23.446  30.309 -0.0457 -0.1221 -0.2702
47274W        W90191   8.602  24.041  28.044 -0.1634  0.2292 -0.5307
47275W        W90192   8.520  23.581  29.526  0.0658 -0.1684  0.1500
47276W        W90193   9.124  23.340  28.041  0.2956 -0.1021  0.0665
47277W        W90194   9.870  23.365  29.781  0.1785  0.3905 -0.0023
47278W        W90195  10.342  25.861  30.334  0.2694  0.1203 -0.2385
47279W        W90196  11.339  24.993  25.348  0.2074 -0.0701 -0.0695
47280W        W90197  10.289  24.512  30.674  0.4599 -0.1285  0.0226
47281W        W90198  10.157  23.060  28.806 -0.2090 -0.1054  0.1342
47282W        W90199  11.651  22.577  27.573 -0.2632  0.2029 -0.2702
47283W        W90200   9.300  24.278  28.083 -0.0634 -0.1031 -0.1857
47284W        W90201   7.367  23.835  30.706 -0.3412  0.1530  0.1670
47285W        W90202   8.766  21.355  26.853 -0.0276 -0.3019  0.1321
47286W        W90203   7.814  21.888  27.809  0.3181 -0.0404  0.1715
47287W        W90204   8.590  23.157  27.837  0.0296 -0.1730 -0.0686
47288W        W90205   7.378  23.561  31.539  0.1069 -0.1322  0.1052
47289W        W90206   7.014  24.452  31.613 -0.0553  0.0643 -0.0286
47290W        W90207   6.553  22.833  28.075 -0.1577 -0.3517 -0.1262
47291W        W90208   8.072  21.498  28.147 -0.2372 -0.2140 -0.1529
47292W        W90209  11.291  23.107  25.729 -0.0147 -0.4255  0.4001
47293W        W90210   7.546  22.902  31.781  0.3331 -0.0796  0.0053
47294W        W90211   8.565  21.465  30.230  0.2478  0.0600  0.0922
47295W        W90212  12.259  24.744  26.956  0.2529 -0.0358 -0.0564
47296W        W90213  10.630  23.789  28.868  0.1058  0.0784  0.0761
47297W        W90214   7.614  22.781  30.352 -0.1543  0.0486 -0.1483
47298W        W90215   9.212  26.055  29.650 -0.1209  0.0150  0.0908
47299W        W90216   9.415  25.210  27.601 -0.2830 -0.0279 -0.0372
47300W        W90217   8.002  22.671   1.515  0.1701 -0.0440  0.1059
47301W        W90218   7.872  21.802  31.561  0.4131 -0.1075  0.2061
47302W        W90219   7.720  20.735  26.925 -0.1478  0.1901 -0.0580
47303W        W90220   9.649  24.039  30.492 -0.2975  0.2251  0.0608
47304W        W90221   9.864  25.605  28.495 -0.0487  0.0965 -0.0786
47305W        W90222  12.947  25.827  27.602 -0.1097  0.0030 -0.0148
47306W        W90223   9.033  24.883  30.076  0.1251 -0.1555  0.1006
47307W        W90224   8.683  24.109  29.868 -0.4056 -0.1486 -0.1101
47308W        W90225   7.440  21.716   0.430 -0.0167 -0.1690  0.0124
47309W        W90226  10.615  24.254  28.529 -0.1617 -0.2562  0.0831
47310W        W90227   9.676  23.047  30.018  0.3038  0.2181  0.0247
47311W        W90228  10.718  24.024  29.851 -0.1123  0.0398  0.1564
47312W        W90229  12.235  22.542  28.913 -0.1942 -0.0485 -0.3406
47313W        W90230  11.169  23.526  27.450  0.0307  0.0082  0.0936
47314W        W90231   7.417  23.646  30.221 -0.2573 -0.0344 -0.0452
47315W        W90232   8.694  25.598   1.009  0.0423  0.0493 -0.0497
47316W        W90233  11.494  22.485  28.908  0.1644 -0.0221 -0.1590
47317W        W90234   7.481  24.161  27.553  0.1273 -0.2101 -0.0984
47318W        W90235  12.140  22.455  27.539  0.0611 -0.0966 -0.0295
47319W        W90236   9.850  24.173  25.625  0.1578  0.0577 -0.1196
47320W        W90237   7.992  23.916  28.064 -0.0333 -0.0196 -0.1369
47321W        W90238  12.593  23.309  27.543 -0.2973  0.0606 -0.1574
47322W        W90239   9.447  23.963  30.959 -0.1121  0.0088  0.2928
47323W        W90240   9.250  25.155  28.368 -0.0927  0.0729  0.0175
47324W        W90241   9.903  21.728  29.720 -0.0340  0.1874 -0.2662
47325W        W90242   8.294  22.157  27.475  0.0970 -0.3213  0.3351
47326W        W90243   9.801  22.761  27.463 -0.1814 -0.0779  0.1683
47327W        W90244   9.532  24.165  30.035  0.1697 -0.0913  0.0811
47328W        W90245  11.087  26.465   0.047 -0.0634  0.1595 -0.1635
47329W        W90246   8.643  24.997  29.752  0.1968  0.1657  0.1146
47330W        W90247  11.043  22.610  28.339 -0.1751  0.3374 -0.0684
47331W        W90248   7.407  22.469  31.155  0.1128  0.2285  0.1708
47332W        W90249   7.936  21.902  28.411 -0.0436 -0.1107  0.1323
47333W        W90250   9.352  23.160  28.838 -0.1293  0.1171  0.0743
47334W        W90251  10.868  22.980   0.241 -0.2668 -0.0033 -0.1516
47335W        W90252   7.699  21.888  29.899 -0.1379  0.0202 -0.1276
47336W        W90253  10.648  22.709  25.965  0.2976 -0.1854  0.0426
47337W        W90254   9.637  25.269  28.107  0.0240  0.2659 -0.1168
47338W        W90255   9.299  21.301  30.918  0.2027  0.0827  0.0592
47339W        W90256  11.580  24.400  29.649 -0.3053 -0.1895 -0.1264
47340W        W90257  10.051  24.376  30.243  0.0902 -0.0948  0.1235
47341W        W90258   8.869  24.110  31.084 -0.0135 -0.0196 -0.0176
47342W        W90259   9.117  25.271  30.404 -0.0156  0.1082 -0.3061
47343W        W90260   9.738  23.456  29.203  0.2979  0.0384 -0.1338
47344W        W90261   7.642  25.507  31.054  0.1850 -0.0503 -0.0198
47345W        W90262  11.039  24.368  31.849  0.0100 -0.2223 -0.0938
47346W        W90263   8.432  21.500   0.389  0.1873 -0.0489 -0.2962
47347W        W90264  10.755  21.836  30.712  0.1561  0.1724  0.2810
47348W        W90265  11.327  26.772  30.291 -0.0840 -0.1202  0.4697
47349W        W90266   8.834  23.670  28.441 -0.0775  0.2504 -0.1312
47350W        W90267   8.310  20.518  31.882 -0.2695  0.0061 -0.0342
47351W        W90268   9.988  23.871  30.178  0.0637  0.1277 -0.1546
47352W        W90269   9.608  22.937  31.451 -0.2246 -0.2908  0.0271
47353W        W90270  11.047  23.507  31.168  0.3096 -0.0216 -0.1548
47354W        W90271   7.657  24.802  29.520  0.3141 -0.0518  0.2969
47355W        W90272   7.555  25.997   0.044  0.0093 -0.2321 -0.2683
47356W        W90273   9.063  25.009   0.166 -0.0111 -0.3631  0.0135
47357W        W90274   6.632  23.193   1.619 -0.0884 -0.5344 -0.0856
47358W        W90275   8.113  20.528  30.119 -0.1732 -0.0932 -0.2117
47359W        W90276   8.728  20.463  31.568 -0.4624  0.1197 -0.1808
47360W        W90277   6.694  24.159  29.359  0.0319 -0.0244  0.4962
47361W        W90278  11.700  23.070  31.149 -0.1068  0.1527  0.4160
47362W        W90279  11.144  22.425  29.291 -0.0883 -0.5315  0.2126
47363W        W90280   9.234  21.485  31.792 -0.0417 -0.1535 -0.0659
47364W        W90281   8.919  21.660  31.057  0.0601 -0.0264 -0.2124
47365W        W90282   7.799  23.075   1.324 -0.1506 -0.4305 -0.0477
47366W        W90283   8.079  26.204  31.378  0.3121  0.0254  0.1550
47367W        W90284   7.376  25.006   2.647  0.2058  0.0391 -0.1069
47368W        W90285   7.315  26.850   0.531 -0.3936  0.1960  0.0473
47369W        W90286   8.800  23.791   0.573  0.4422 -0.2270  0.0300
47370W        W90287   7.870  21.329   1.282 -0.1413  0.1830  0.0827
47371W        W90288   9.855  24.629  29.810  0.0873  0.0063  0.0348
47372W        W90289  12.022  23.759  29.552 -0.0699  0.1965 -0.2265
47373W        W90290   8.150  22.329   1.178  0.0635 -0.1828  0.1172
47374W        W90291   7.864  23.630   2.069 -0.0697 -0.1765 -0.0014
47375W        W90292   8.761  24.176   1.434  0.2020  0.1503 -0.0199
47376W        W90293   9.371  23.732  31.903  0.1213  0.4509 -0.2394
47377W        W90294  13.254  24.996   1.609 -0.2548  0.1018 -0.0908
47378W        W90295   8.434  23.877   0.964  0.1232  0.0419 -0.0308
47379W        W90296  12.820  24.479   0.859  0.0506  0.1304  0.0079
47380W        W90297   9.535  23.457  30.986  0.0346 -0.0591 -0.1952
47381W        W90298   9.428  22.696   0.332  0.0003 -0.1501 -0.0075
47382W        W90299   9.625  25.189  30.619 -0.0593  0.1122  0.1163
47383W        W90300   8.387  22.680  31.575 -0.0075 -0.1618  0.0220
47384W        W90301   9.794  24.441   1.258 -0.0612 -0.2662 -0.0033
47385W        W90302  10.194  23.140  30.807 -0.0324 -0.2607  0.0325
47386W        W90303   8.848  24.550   1.017 -0.0564 -0.0458 -0.1680
47387W        W90304   9.006  24.436  30.221  0.2466 -0.0786  0.0347
47388W        W90305   8.943  22.823   0.255  0.3426  0.0237  0.0474
47389W        W90306  10.601  25.538  31.223 -0.0698 -0.2417 -0.0444
47390W        W90307  12.596  23.059  29.832 -0.1911 -0.1352 -0.0351
47391W        W90308   7.301  20.917   0.679  0.0547 -0.0503 -0.1074
47392W        W90309   9.585  24.335   0.341 -0.1990  0.1181 -0.2958
47393W        W90310   9.594  23.212   0.060 -0.1239 -0.1317 -0.0529
47394W        W90311   9.792  24.658   0.735 -0.1581  0.0049  0.2545
47395W        W90312  13.050  26.605  30.442  0.1211 -0.2002 -0.0751
47396W        W90313   8.106  25.095  29.586 -0.2051  0.1275 -0.0404
47397W        W90314   9.499  25.268  30.098 -0.2622 -0.0001 -0.0525
47398W        W90315   7.718  22.768   2.692 -0.2946  0.3945  0.0783
47399W        W90316   6.803  22.860   1.132  0.2127  0.0866 -0.2283
47400W        W90317   7.427  23.402  31.025  0.1529  0.1364 -0.0069
47401W        W90318   8.204  24.005  30.661 -0.0210 -0.0386  0.1529
47402W        W90319   7.202  22.064   0.809  0.0418 -0.2823  0.0470
47403W        W90320   9.078  23.601  31.116 -0.1220  0.0243 -0.2854
47404W        W90321  10.378  22.819   0.512  0.2373  0.2468  0.2185
47405W        W90322  11.571  26.184   0.251 -0.1961 -0.0710  0.3452
47406W        W90323   9.486  28.496  19.180 -0.2391 -0.0272  0.2950
47407W        W90324  10.683  25.320  16.744  0.4281 -0.1522  0.2742
47408W        W90325   9.847  26.064  15.618  0.0748 -0.0169 -0.2916
47409W        W90326  11.312  27.520  14.674  0.0606  0.0754 -0.0746
47410W        W90327   8.051  25.766  16.216 -0.1335 -0.1937 -0.0826
47411W        W90328  12.125  27.789  15.502  0.0607  0.0414 -0.0238
47412W        W90329   7.990  24.421  17.158  0.0176  0.1316  0.0628
47413W        W90330   9.147  26.270  17.876 -0.3214  0.2137  0.0805
47414W        W90331  10.268  30.619  17.317 -0.0822  0.0404 -0.2929
47415W        W90332  10.115  26.554  15.026 -0.0932  0.1454 -0.1258
47416W        W90333   9.502  27.362  16.718  0.0350 -0.0929 -0.2723
47417W        W90334   7.582  28.610  18.473 -0.1614  0.1625 -0.0580
47418W        W90335   9.287  24.266  16.582 -0.1927 -0.4338 -0.2859
47419W        W90336   7.880  23.931  17.374  0.0408 -0.0715 -0.1855
47420W        W90337  11.034  26.183  17.800  0.1150  0.0159  0.2778
47421W        W90338   7.969  28.790  16.938 -0.0585 -0.0163  0.2616
47422W        W90339   7.468  28.304  15.509  0.3194 -0.1342 -0.2266
47423W        W90340   9.900  26.016  16.543  0.0313  0.2562 -0.0585
47424W        W90341   7.432  30.677  16.751  0.2858 -0.1263 -0.1079
47425W        W90342   8.581  25.620  17.317 -0.2646 -0.2713  0.1257
47426W        W90343   9.699  25.483  18.930 -0.0139  0.0469 -0.1513
47427W        W90344   8.767  28.390  17.067  0.3870 -0.2295  0.0286
47428W        W90345   8.616  28.387  15.583 -0.1747  0.0680 -0.0785
47429W        W90346   8.157  27.838  15.552 -0.1470 -0.4534 -0.2068
47430W        W90347   9.573  26.353  16.133  0.1431  0.0325  0.0451
47431W        W90348   9.171  25.155  20.993 -0.1826 -0.1643  0.0572
47432W        W90349  11.704  29.276  16.417  0.0092  0.2616 -0.0785
47433W        W90350  10.121  29.436  17.194  0.1684 -0.0535  0.2067
47434W        W90351  11.640  28.690  15.707 -0.0333  0.1892 -0.2661
47435W        W90352   7.093  28.431  18.659  0.2713  0.3761  0.0482
47436W        W90353  11.865  27.966  16.755 -0.1278 -0.0376  0.0231
47437W        W90354   8.107  28.524  16.408  0.1602  0.0291 -0.2342
47438W        W90355   9.710  26.870  16.043 -0.0485  0.1340  0.1146
47439W        W90356  11.353  27.856  17.015  0.4459 -0.1550  0.0419
47440W        W90357   9.562  28.568  16.192 -0.1181  0.1318  0.2138
47441W        W90358   8.148  29.548  19.622  0.0660 -0.0731 -0.4298
47442W        W90359   7.803  28.043  15.209 -0.2057  0.0951 -0.1896
47443W        W90360   8.511  29.841  19.094  0.1350  0.0555 -0.2085
47444W        W90361   9.758  28.808  19.492  0.2482  0.0113 -0.0550
47445W        W90362   9.890  26.196  18.864  0.1411  0.0808 -0.0373
47446W        W90363  11.283  26.039  17.430 -0.1355 -0.2527  0.0153
47447W        W90364   9.017  29.432  16.249 -0.1734  0.1418 -0.1654
47448W        W90365  10.477  26.634  17.185  0.2122 -0.1604  0.1685
47449W        W90366  10.160  27.952  18.661  0.1675 -0.2911  0.0758
47450W        W90367   7.277  29.267  17.431 -0.4351 -0.2072  0.1204
47451W        W90368  11.218  26.105  19.486 -0.2270  0.4776  0.0069
47452W        W90369   9.544  29.270  17.737  0.2984  0.0344 -0.0127
47453W        W90370   8.488  25.611  16.363 -0.0707  0.0467 -0.1319
47454W        W90371   8.689  25.496  15.517 -0.0883  0.2835 -0.2909
47455W        W90372  10.301  24.686  15.492  0.3368 -0.1586 -0.0226
47456W        W90373   9.611  27.015  17.184 -0.3334  0.0649 -0.2623
47457W        W90374   7.479  31.231  16.479 -0.2327 -0.1512  0.1191
47458W        W90375   9.167  25.440  17.710  0.3713 -0.1485  0.0238
47459W        W90376  11.458  28.441  17.665  0.0511 -0.3094 -0.1854
47460W        W90377  11.038  27.354  16.213 -0.0461 -0.1580  0.2845
47461W        W90378   8.103  27.494  18.737  0.0719  0.0990  0.0035
47462W        W90379   8.481  28.522  18.445 -0.1107  0.1098  0.0001
47463W        W90380   7.293  28.322  17.042 -0.0257  0.0160 -0.1667
47464W        W90381  10.726  30.887  17.157  0.1692  0.0336 -0.2142
47465W        W90382   9.750  29.986  15.915 -0.0390  0.1192 -0.0088
47466W        W90383  10.631  28.517  15.411 -0.4597 -0.3016 -0.1049
47467W        W90384   9.104  26.299  17.373  0.0875 -0.0363  0.1270
47468W        W90385   9.079  27.619  17.533  0.0128 -0.1571  0.2780
47469W        W90386   8.048  27.080  18.485  0.6095 -0.1187 -0.0655
47470W        W90387  10.221  26.216  15.926 -0.1403 -0.3048  0.0775
47471W        W90388   9.802  28.944  20.060 -0.5065 -0.2173 -0.0583
47472W        W90389   9.332  28.041  19.748  0.1627 -0.2779  0.3552
47473W        W90390  10.856  24.830  16.759  0.1946  0.3386 -0.0394
47474W        W90391   9.257  27.293  17.973 -0.2018 -0.3269  0.4039
47475W        W90392  11.343  28.763  17.277 -0.2841  0.3568  0.0725
47476W        W90393  10.484  27.271  16.332  0.0847  0.1089 -0.2214
47477W        W90394   9.607  27.468  17.603 -0.1739  0.1940 -0.3329
47478W        W90395  10.487  26.109  18.064 -0.1760  0.2184  0.0232
47479W        W90396   9.788  27.419  15.125 -0.0642  0.0227 -0.3000
47480W        W90397   9.222  28.192  16.094  0.1550 -0.3728 -0.3331
47481W        W90398  12.961  27.538  17.247 -0.1975  0.2458  0.3704
47482W        W90399  11.466  25.707  15.581 -0.0446 -0.2031 -0.1002
47483W        W90400   7.777  29.544  17.341 -0.3509  0.0345  0.0593
47484W        W90401   7.977  27.953  19.017 -0.1297  0.1384  0.4367
47485W        W90402   9.724  30.890  18.085 -0.2600 -0.2136 -0.1907
47486W        W90403   7.542  28.802  15.577 -0.1751  0.1102  0.2569
47487W        W90404   7.339  27.898  16.749 -0.2534  0.2285  0.3154
47488W        W90405   8.714  27.822  16.261  0.1417 -0.0201 -0.1708
47489W        W90406   7.707  25.780  18.798  0.0804  0.1754 -0.0468
47490W        W90407   7.945  28.176  19.911 -0.0863  0.0651  0.0067
47491W        W90408  10.946  27.252  16.778 -0.1545  0.1196  0.1942
47492W        W90409   8.696  25.722  20.006  0.0310  0.0978  0.1501
47493W        W90410  11.272  26.462  15.199  0.0219 -0.0291  0.1030
47494W        W90411   9.117  29.811  16.528 -0.0502  0.1542 -0.1276
47495W        W90412  11.683  28.539  16.697  0.0910 -0.1038 -0.1886
47496W        W90413  11.525  27.412  17.335  0.0987 -0.2805 -0.0201
47497W        W90414  10.836  28.489  16.417  0.2337  0.1508 -0.0236
47498W        W90415   5.141  24.927  18.835 -0.0085  0.0604 -0.0786
47499W        W90416   7.967  24.934  15.737 -0.0754 -0.1205 -0.2176
47500W        W90417   8.645  27.928  18.258 -0.3750  0.1371  0.2004
47501W        W90418   8.681  25.399  17.958  0.1555  0.0174  0.2501
47502W        W90419   9.213  28.353  17.479 -0.2844 -0.0999  0.1167
47503W        W90420   7.865  25.590  16.658 -0.2354 -0.2346  0.0752
47504W        W90421   9.836  26.618  18.126 -0.0754 -0.0110  0.0841
47505W        W90422  11.503  28.311  17.176  0.0732 -0.0427  0.2539
47506W        W90423   8.727  26.086  17.112  0.3431 -0.2150 -0.3065
47507W        W90424   9.553  27.864  17.348  0.0380 -0.0542  0.4525
47508W        W90425   9.090  30.415  17.034  0.0256 -0.3695 -0.2459
47509W        W90426  11.378  29.176  16.806 -0.0608 -0.0712 -0.1998
47510W        W90427  10.198  27.699  16.279 -0.2188  0.1198 -0.2643
47511W        W90428   8.452  26.988  20.408 -0.0369  0.0621  0.1652
47512W        W90429   7.388  26.157  17.567 -0.2217  0.0474  0.2326
47513W        W90430   8.289  29.779  17.129 -0.1673 -0.0631 -0.2857
47514W        W90431   8.380  26.740  18.178 -0.0247  0.2862 -0.0620
47515W        W90432   9.215  26.689  15.962  0.0913  0.2643 -0.1310
47516W        W90433   9.706  31.112  16.802  0.2624 -0.1045 -0.1558
47517W        W90434  10.962  23.782  16.067  0.3452  0.1018 -0.1378
47518W        W90435   6.008  28.086  18.527 -0.0086 -0.5280 -0.1046
47519W        W90436   9.220  25.683  19.233  0.3408  0.1167 -0.0129
47520W        W90437  11.834  28.737  17.378  0.2264 -0.2532  0.0181
47521W        W90438   9.977  26.514  16.956  0.2019 -0.0802 -0.1759
47522W        W90439   9.224  27.652  16.338  0.1352 -0.1528  0.0567
47523W        W90440   9.578  28.290  15.711  0.0074  0.0064 -0.0664
47524W        W90441   7.871  28.294  15.967 -0.1493 -0.1522 -0.2762
47525W        W90442   6.056  27.747  17.278  0.2213 -0.0537  0.0816
47526W        W90443   9.054  28.622  16.428 -0.1957  0.1700  0.1357
47527W        W90444   9.740  27.605  16.080  0.0598 -0.1243 -0.3092
47528W        W90445   6.693  27.391  18.923 -0.1138  0.1949  0.2194
47529W        W90446   8.401  26.263  17.545  0.0834 -0.5814  0.0943
47530W        W90447   7.745  26.969  16.159  0.1244  0.3372  0.0663
47531W        W90448   9.174  29.722  18.376  0.1256  0.1871 -0.3033
47532W        W90449  10.312  25.881  19.720  0.2944  0.1681 -0.2479
47533W        W90450   9.929  25.816  16.069 -0.0929 -0.0666 -0.1846
47534W        W90451  10.040  28.913  18.635  0.6524  0.0341  0.0262
47535W        W90452  13.555  27.139  16.686  0.0682  0.0807 -0.1677
47536W        W90453   9.675  25.499  15.104  0.0921 -0.0645  0.0829
47537W        W90454   9.795  26.914  15.169 -0.2535  0.0396 -0.2832
47538W        W90455   8.424  28.813  17.174  0.2273  0.1912  0.0126
47539W        W90456   9.162  27.115  17.419  0.2716  0.2174  0.3149
47540W        W90457  10.057  28.954  17.220  0.1004  0.0639 -0.0319
47541W        W90458  10.096  25.727  15.322 -0.1296 -0.0012  0.0241
47542W        W90459   9.782  29.594  15.598  0.0001 -0.1428  0.0297
47543W        W90460   7.706  27.050  18.892 -0.1082 -0.0693  0.0048
47544W        W90461   9.510  28.800  17.880  0.0263  0.1539  0.2044
47545W        W90462  10.265  27.124  15.106  0.1648  0.0817 -0.0212
47546W        W90463  10.733  27.027  18.411 -0.0422  0.0380 -0.2416
47547W        W90464  10.289  26.173  17.230 -0.2195  0.0527 -0.0568
47548W        W90465  11.318  27.046  17.620  0.1305  0.0350 -0.3394
47549W        W90466   7.659  30.318  16.321 -0.0081 -0.1890 -0.1783
47550W        W90467   9.652  25.729  17.972  0.0573 -0.0308  0.0804
47551W        W90468   9.731  25.564  15.618  0.2031  0.2058  0.0052
47552W        W90469  10.067  24.193  19.605 -0.0207  0.1341 -0.0821
47553W        W90470  11.094  28.315  18.010  0.2803  0.0062 -0.0810
47554W        W90471   9.040  24.680  16.931 -0.0022 -0.0172 -0.2142
47555W        W90472  10.640  25.007  16.316 -0.1358 -0.2893  0.0755
47556W        W90473   8.932  26.623  15.554  0.3650 -0.2453 -0.2906
47557W        W90474  10.682  26.636  20.119  0.1598 -0.0904 -0.1320
47558W        W90475   8.084  26.284  18.080 -0.0377 -0.2995 -0.0123
47559W        W90476   9.187  30.191  17.996  0.1988  0.0672 -0.1025
47560W        W90477  10.021  26.598  17.451  0.2618  0.1034 -0.0317
47561W        W90478  10.534  28.097  17.115  0.1001  0.2561 -0.2176
47562W        W90479  10.544  27.140  19.741 -0.0768 -0.1845 -0.0281
47563W        W90480  10.163  24.847  16.028  0.0275 -0.2199  0.0210
47564W        W90481  10.274  29.518  16.730 -0.0973 -0.2679  0.2037
47565W        W90482   8.290  28.591  15.894  0.2256 -0.1554 -0.0207
47566W        W90483   8.823  26.425  18.689 -0.2531 -0.2613  0.1046
47567W        W90484  10.255  28.245  17.483  0.0318  0.2302  0.1192
47568W        W90485   9.995  26.626  16.426  0.3261  0.2784 -0.0571
47569W        W90486  11.702  26.747  18.463 -0.0574  0.1981  0.0546
47570W        W90487   9.879  28.841  15.848 -0.0890 -0.2112 -0.0864
47571W        W90488  10.152  25.614  17.920 -0.0835 -0.0754  0.2500
47572W        W90489   6.538  29.293  17.962  0.0185 -0.3357  0.0740
47573W        W90490   8.262  26.902  16.390 -0.0071  0.0732 -0.0297
47574W        W90491   6.657  25.958  16.620  0.1730  0.1309 -0.3093
47575W        W90492  11.966  26.481  17.674  0.0439  0.0323  0.0211
47576W        W90493  12.158  28.886  15.572  0.1863  0.3365  0.1633
47577W        W90494   8.873  26.752  17.343 -0.1843 -0.1106  0.2086
47578W        W90495  10.343  26.327  16.653 -0.2894  0.4162 -0.0981
47579W        W90496   8.048  29.649  16.662 -0.0165  0.1190  0.0083
47580W        W90497   9.084  27.178  16.404 -0.0734  0.0388  0.2508
47581W        W90498  10.036  27.022  15.554  0.2160 -0.0919 -0.3951
47582W        W90499  12.195  28.344  16.392 -0.0565  0.0797  0.2380
47583W        W90500   9.335  27.924  19.240 -0.0438 -0.4466 -0.2218
47584W        W90501   6.846  25.037  17.096 -0.1968 -0.0235  0.1852
47585W        W90502  11.795  27.286  18.848  0.2098  0.1869  0.3415
47586W        W90503   9.956  25.866  17.051 -0.3200 -0.0004 -0.3693
47587W        W90504   7.130  27.670  16.317 -0.0770 -0.3121  0.1068
47588W        W90505   9.490  29.250  15.349 -0.0013  0.2788  0.1245
47589W        W90506  11.348  27.738  16.064 -0.0950  0.0367  0.1713
47590W        W90507   8.837  29.207  16.673  0.0392 -0.1045  0.1910
47591W        W90508   9.072  26.075  21.245 -0.0411  0.0321 -0.0064
47592W        W90509   9.024  28.470  17.960  0.1300 -0.2486  0.0196
47593W        W90510   9.448  26.864  18.313  0.2198  0.0803  0.2710
47594W        W90511   7.285  25.524  17.310 -0.0830  0.1560 -0.2185
47595W        W90512  10.496  28.133  16.103  0.1931  0.2543 -0.0211
47596W        W90513   9.233  28.753  18.824 -0.0953 -0.0696 -0.1687
47597W        W90514   8.797  28.648  17.533  0.3203  0.1819  0.0361
47598W        W90515   9.122  27.293  21.309  0.3782  0.2505  0.1138
47599W        W90516   9.391  24.049  17.608  0.1846  0.0154  0.2095
47600W        W90517  10.460  30.329  15.874  0.0277 -0.5417 -0.3420
47601W        W90518   8.772  27.398  19.744 -0.3586 -0.1869 -0.3546
47602W        W90519   9.459  27.895  16.873 -0.3100 -0.2174  0.2674
47603W        W90520   6.670  28.919  19.802  0.1581 -0.0680  0.1812
47604W        W90521   7.707  29.005  17.309  0.1274  0.0807  0.0338
47605W        W90522   8.260  27.314  17.447  0.1856  0.3275  0.2181
47606W        W90523   7.887  28.373  17.254  0.0473  0.1136  0.3814
47607W        W90524   8.178  27.860  17.035 -0.3133 -0.3801 -0.1749
47608W        W90525   8.178  29.253  17.260  0.3653  0.2851  0.0261
47609W        W90526  10.978  24.828  18.074  0.1054 -0.0635 -0.1481
47610W        W90527   9.916  28.447  16.516  0.0524  0.0513  0.1665
47611W        W90528  10.529  23.909  15.884 -0.2618  0.0427 -0.1997
47612W        W90529   8.144  26.611  18.629 -0.0789 -0.0874 -0.0662
47613W        W90530  11.768  27.987  16.275 -0.1495 -0.0272 -0.3235
47614W        W90531  10.567  25.326  19.724 -0.1950 -0.0838 -0.2694
47615W        W90532   8.308  25.170  16.622  0.0413 -0.0842 -0.1641
47616W        W90533  10.959  28.119  16.087 -0.1542  0.0276 -0.0370
47617W        W90534   8.179  26.562  19.523 -0.1652  0.4085 -0.0707
47618W        W90535  10.418  29.579  19.905  0.5554  0.1307  0.3368
47619W        W90536   7.532  27.242  18.426 -0.1498  0.1857  0.2009
47620W        W90537   9.962  28.033  17.099  0.1950 -0.2105 -0.1155
47621W        W90538   9.400  25.947  16.352 -0.0951 -0.0626 -0.1729
47622W        W90539   8.371  27.521  18.319 -0.4039  0.0496 -0.2657
47623W        W90540  10.756  27.604  17.054  0.0273 -0.4055 -0.4816
47624W        W90541  10.693  27.767  16.448  0.4319 -0.1694 -0.0884
47625W        W90542  11.304  26.926  16.135 -0.3706 -0.1071 -0.0475
47626W        W90543   8.121  28.737  17.615 -0.3099 -0.0482 -0.0811
47627W        W90544  11.173  26.835  15.645  0.0797  0.1390 -0.3770
47628W        W90545   8.960  26.214  15.209  0.3986  0.2297  0.1779
47629W        W90546   9.879  25.112  17.879  0.2150 -0.1353  0.0859
47630W        W90547   9.037  25.661  17.213 -0.0566 -0.0735  0.0008
47631W        W90548  11.274  27.599  16.593  0.2821  0.1812 -0.1223
47632W        W90549  11.995  24.739  15.804  0.0721  0.0041  0.1933
47633W        W90550   9.380  26.095  18.844  0.4619 -0.2462 -0.0085
47634W        W90551  10.222  25.261  17.519  0.0025 -0.2405 -0.2753
47635W        W90552   7.581  27.550  20.257  0.0189  0.1116  0.1860
47636W        W90553   8.441  25.086  17.578 -0.0239 -0.2041 -0.0192
47637W        W90554  10.076  30.691  17.787 -0.2003 -0.0304  0.3244
47638W        W90555  11.432  26.446  14.672 -0.1079  0.3097 -0.2263
47639W        W90556  10.462  25.676  18.314  0.0298 -0.0401  0.1034
47640W        W90557  10.749  25.961  15.305  0.0189 -0.2743  0.2635
47641W        W90558  10.662  27.631  15.939 -0.0413 -0.0737  0.0523
47642W        W90559   8.224  27.989  18.509 -0.0128 -0.0064 -0.1434
47643W        W90560  10.267  28.149  16.648 -0.0298  0.3417 -0.1751
47644W        W90561   8.877  25.669  16.019  0.0833 -0.0121 -0.1023
47645W        W90562   8.236  27.055  18.994  0.0849  0.1358  0.0641
47646W        W90563   9.929  27.278  16.396 -0.0573 -0.2189  0.0936
47647W        W90564  10.882  26.976  17.355 -0.0614  0.1582  0.0077
47648W        W90565  10.135  23.877  17.136  0.0014  0.1306  0.2869
47649W        W90566   7.718  27.070  17.933  0.2184  0.1587 -0.0026
47650W        W90567   8.135  29.148  20.295 -0.2308  0.0754  0.1292
47651W        W90568   8.582  26.093  16.160 -0.1733 -0.0159 -0.3528
47652W        W90569  11.207  26.167  16.926 -0.2484  0.0796 -0.0499
47653W        W90570   9.474  27.792  18.110  0.0003  0.0106  0.0462
47654W        W90571  10.934  27.836  18.065  0.1392  0.2024  0.2692
47655W        W90572  10.607  24.595  16.005  0.2428 -0.1534  0.1918
47656W        W90573   9.889  29.183  18.095 -0.3714  0.1333  0.0388
47657W        W90574   7.526  27.438  16.338 -0.1982  0.0222  0.1434
47658W        W90575   9.560  24.455  19.734  0.1776  0.3626  0.0822
47659W        W90576   8.699  30.125  17.352 -0.0289 -0.1065 -0.3214
47660W        W90577   9.466  26.687  17.546  0.0286  0.1316 -0.1544
47661W        W90578   8.281  29.126  16.720 -0.2122  0.0617 -0.2107
47662W        W90579  10.650  26.451  17.607 -0.1194 -0.0680 -0.1593
47663W        W90580  12.163  27.605  16.900 -0.0628  0.2160 -0.0194
47664W        W90581  11.065  26.526  17.277 -0.0685  0.0031 -0.1112
47665W        W90582  12.444  27.452  15.644 -0.0101  0.1651  0.0776
47666W        W90583   9.005  29.534  19.954 -0.0381 -0.0410  0.2664
47667W        W90584   5.451  30.089  16.512  0.1901  0.1572 -0.2785
47668W        W90585   9.796  30.010  19.165  0.0780  0.0306 -0.0682
47669W        W90586  12.502  28.418  15.618  0.1196  0.0198  0.1344
47670W        W90587   6.924  26.868  19.817  0.1333  0.0427 -0.0221
47671W        W90588   6.990  26.075  19.759  0.2481 -0.1397 -0.0754
47672W        W90589   7.951  27.689  20.629 -0.3656 -0.1589 -0.2309
47673W        W90590  10.347  25.682  17.292  0.1447 -0.0882 -0.1915
47674W        W90591  10.207  25.478  16.352 -0.1053 -0.0001 -0.1898
47675W        W90592  10.630  26.516  16.247 -0.0845 -0.0986 -0.0992
47676W        W90593   8.040  29.710  20.099  0.1435  0.3354  0.0915
47677W        W90594   8.612  26.823  16.766  0.0216 -0.0182 -0.0616
47678W        W90595  10.593  27.755  17.730  0.1086 -0.1235 -0.1125
47679W        W90596  11.424  25.988  15.142  0.1168  0.1007 -0.2341
47680W        W90597   9.308  26.728  16.509  0.1673 -0.2281  0.0211
47681W        W90598  10.358  30.805  16.847  0.2709 -0.1210 -0.3040
47682W        W90599   9.679  25.500  16.464  0.2975 -0.1968  0.1001
47683W        W90600   8.668  29.889  16.717 -0.0246  0.1933 -0.1070
47684W        W90601   6.712  28.158  15.796 -0.2963 -0.1160 -0.2678
47685W        W90602  11.138  29.851  16.286  0.2338  0.1282 -0.0293
47686W        W90603  10.258  26.863  16.028  0.1742 -0.3116 -0.2216
47687W        W90604  11.132  29.442  17.233  0.1853 -0.2015  0.0583
47688W        W90605  11.577  25.238  15.816  0.1089 -0.0074 -0.0088
47689W        W90606  12.430  27.892  15.968 -0.0503  0.1106 -0.0788
47690W        W90607  10.990  25.555  15.692  0.0084  0.1117  0.0751
47691W        W90608   9.650  28.827  16.773 -0.1417  0.2611 -0.4296
47692W        W90609   8.800  29.284  18.175  0.0747  0.2276 -0.0160
47693W        W90610  11.029  24.658  16.270  0.1116 -0.0812 -0.4134
47694W        W90611  11.609  25.603  17.640  0.0536 -0.0642 -0.0794
47695W        W90612  11.556  27.521  19.239  0.0677  0.0206 -0.2807
47696W        W90613   7.746  30.325  18.121  0.1985  0.1613  0.0221
47697W        W90614  10.601  27.381  18.050  0.2902 -0.2791 -0.2571
47698W        W90615   8.069  26.340  16.823 -0.0693 -0.1919 -0.2318
47699W        W90616   9.100  27.038  16.950 -0.0686  0.0404 -0.0207
47700W        W90617  10.431  25.331  18.666 -0.1736 -0.2610  0.0240
47701W        W90618   9.301  26.648  15.118 -0.4019  0.1102 -0.2074
47702W        W90619  10.628  25.055  15.844 -0.0827  0.1228  0.0232
47703W        W90620   7.309  29.843  17.222  0.1327  0.1648 -0.2661
47704W        W90621   6.493  29.143  22.102 -0.1155 -0.2593  0.2214
47705W        W90622   9.636  26.252  17.252  0.2444  0.6569  0.0525
47706W        W90623   6.226  26.213  16.639  0.0921  0.1361  0.1199
47707W        W90624  11.620  27.223  15.861  0.1660  0.0634 -0.1704
47708W        W90625   9.948  26.522  15.578  0.1054  0.2393  0.1315
47709W        W90626  11.161  25.129  17.654  0.1104 -0.2223  0.0717
47710W        W90627   8.128  26.951  16.965 -0.1597  0.1128  0.1253
47711W        W90628  10.971  25.737  18.128 -0.1446  0.1683  0.1025
47712W        W90629   7.611  28.333  20.795 -0.1513 -0.0051  0.1823
47713W        W90630   9.087  27.981  17.819  0.2343 -0.2133 -0.1002
47714W        W90631   9.481  26.804  15.569 -0.0069  0.1797 -0.0019
47715W        W90632  12.133  27.258  17.296 -0.4436  0.1329  0.5377
47716W        W90633  10.502  26.715  15.551 -0.1735 -0.1859  0.2276
47717W        W90634  11.695  28.077  18.541  0.0171 -0.2554  0.2716
47718W        W90635  10.458  25.852  16.822 -0.1192 -0.2266 -0.0113
47719W        W90636  10.847  26.735  16.878  0.1626  0.2069 -0.2661
47720W        W90637   9.456  29.308  20.191  0.4742 -0.0162  0.0282
47721W        W90638   9.570  28.357  17.026  0.3087  0.2171  0.0230
47722W        W90639   7.975  29.209  17.701 -0.0023 -0.0150  0.2572
47723W        W90640   8.417  24.636  17.272  0.1783  0.0989  0.0348
47724W        W90641   9.978  28.381  15.194  0.0013 -0.0138  0.2317
47725W        W90642  11.181  27.267  18.681 -0.2550  0.2545  0.3083
47726W        W90643   9.277  28.831  15.073 -0.0647 -0.3403 -0.2315
47727W        W90644   9.553  26.223  18.326  0.2806 -0.0879 -0.2516
47728W        W90645  10.900  28.109  16.761  0.1866 -0.0090  0.2531
47729W        W90646   7.261  27.693  18.267 -0.0548 -0.0651 -0.2400
47730W        W90647   7.536  31.231  17.509 -0.0856  0.0968 -0.0799
47731W        W90648  11.214  28.746  16.584 -0.2750  0.2006 -0.0104
47732W        W90649  10.828  25.277  14.888  0.3497 -0.0188 -0.0587
47733W        W90650   8.613  26.659  17.769 -0.3568 -0.2540 -0.2247
47734W        W90651   8.600  29.008  15.741 -0.1938 -0.1986  0.1859
47735W        W90652  11.696  26.172  16.783  0.2303  0.1791  0.1563
47736W        W90653   9.872  26.783  19.103  0.0616 -0.1201 -0.0999
47737W        W90654   8.883  28.792  15.367 -0.3617 -0.2874 -0.0844
47738W        W90655   9.998  25.866  18.378 -0.1256  0.2169  0.0505
47739W        W90656  10.078  28.501  16.981  0.1943  0.0714 -0.0181
47740W        W90657   8.787  30.121  19.559 -0.3122 -0.0599 -0.4876
47741W        W90658   8.840  26.790  16.285 -0.1537 -0.0767 -0.1561
47742W        W90659   8.541  26.174  19.174  0.0115  0.1707  0.1466
47743W        W90660   8.315  28.860  18.085 -0.2726 -0.0895 -0.0293
47744W        W90661   8.967  27.494  15.908 -0.1171 -0.0454  0.1474
47745W        W90662  10.892  29.596  15.387 -0.1866 -0.1013  0.0087
47746W        W90663  10.167  25.336  15.815  0.1856  0.1427  0.3086
47747W        W90664  10.852  28.948  16.169 -0.0957  0.1611  0.2253
47748W        W90665  10.178  26.357  17.823  0.1460 -0.0681 -0.0293
47749W        W90666  11.748  26.921  17.385  0.0732 -0.0641  0.1117
47750W        W90667   9.302  24.540  15.588  0.0820  0.2571 -0.0063
47751W        W90668   7.992  27.501  19.205  0.4723 -0.0004  0.0164
47752W        W90669   7.693  27.890  15.733  0.0043 -0.0444 -0.2921
47753W        W90670   8.759  28.485  16.049  0.3384  0.4055 -0.0026
47754W        W90671   7.651  29.443  18.889 -0.0512 -0.1171  0.4437
47755W        W90672   9.676  24.254  18.452 -0.0883  0.1221  0.0570
47756W        W90673   6.862  26.258  18.434 -0.2472 -0.0712  0.0646
47757W        W90674   7.846  27.182  16.630  0.0393 -0.1022 -0.1970
47758W        W90675  10.505  25.803  15.764  0.2504  0.0441 -0.0671
47759W        W90676  10.605  28.551  16.883  0.0155 -0.1878  0.1062
47760W        W90677   9.804  24.323  17.347 -0.2386 -0.4234  0.0903
47761W        W90678   9.173  25.607  16.747  0.1027 -0.0197  0.1069
47762W        W90679  10.009  27.090  16.846  0.0040  0.0057  0.0021
47763W        W90680  10.340  27.544  16.752  0.1139  0.1393 -0.1101
47764W        W90681   9.693  26.252  17.782  0.3222 -0.1309 -0.0199
47765W        W90682  10.285  27.658  17.292  0.2381  0.1315 -0.0604
47766W        W90683   7.338  27.537  15.876  0.0301 -0.2249 -0.0196
47767W        W90684   8.988  26.618  19.126 -0.0711 -0.1475 -0.1951
47768W        W90685   6.077  25.975  18.724 -0.2075 -0.2161 -0.3335
47769W        W90686   8.629  24.787  16.577 -0.0539  0.1970  0.0473
47770W        W90687   9.458  26.254  19.845 -0.1113  0.2670  0.2711
47771W        W90688   7.505  29.068  17.799  0.1522  0.2425 -0.4582
47772W        W90689   9.522  29.265  15.950 -0.0926 -0.0758  0.1242
47773W        W90690   8.712  28.047  17.479  0.1970 -0.0073  0.2240
47774W        W90691   9.693  28.999  19.032 -0.2155 -0.1934 -0.4076
47775W        W90692   9.140  24.951  19.793  0.0583 -0.1012  0.1651
47776W        W90693  12.052  28.166  15.893 -0.0762 -0.0207 -0.0385
47777W        W90694   7.689  27.350  19.789 -0.0726 -0.1846  0.1392
47778W        W90695  11.101  27.838  15.638 -0.2955 -0.0056  0.0924
47779W        W90696  11.614  27.222  18.319  0.1129 -0.0569 -0.2846
47780W        W90697   8.945  26.156  15.853 -0.0026 -0.2967 -0.0723
47781W        W90698   8.643  25.680  20.585  0.1344 -0.1984 -0.3038
47782W        W90699   7.130  27.726  17.179 -0.2703  0.0199 -0.0407
47783W        W90700  10.104  27.185  17.301 -0.0357 -0.2065 -0.3454
47784W        W90701   6.883  27.432  17.576 -0.1426  0.0378 -0.3155
47785W        W90702  10.402  24.350  17.225  0.0523 -0.1563 -0.0912
47786W        W90703   8.275  29.406  15.594  0.0251  0.1335  0.0234
47787W        W90704   8.543  28.330  16.472 -0.0060 -0.0909  0.2210
47788W        W90705   9.719  24.569  15.275 -0.0618 -0.0102 -0.1385
47789W        W90706  12.137  27.203  18.176 -0.2168 -0.1817  0.0327
47790W        W90707   9.990  27.766  18.171  0.0854  0.1084  0.3915
47791W        W90708  11.080  26.483  16.085  0.0646 -0.0089 -0.3613
47792W        W90709  10.492  25.908  16.318 -0.1423  0.2580  0.1089
47793W        W90710  11.295  28.934  14.801  0.0485  0.1868  0.0256
47794W        W90711   9.055  29.044  17.779  0.1745 -0.4355 -0.1871
47795W        W90712   9.522  29.125  18.581 -0.0144 -0.1970  0.1578
47796W        W90713  10.341  29.005  16.759 -0.0042  0.0488  0.1222
47797W        W90714  12.022  28.377  17.066  0.0889 -0.0729  0.0848
47798W        W90715   7.447  24.027  17.794 -0.0616  0.0694  0.0955
47799W        W90716   8.937  26.437  16.837 -0.1203  0.0483  0.2342
47800W        W90717   6.846  29.011  17.392 -0.0082 -0.0928 -0.0549
47801W        W90718  11.400  27.874  18.897  0.1622 -0.0478 -0.0082
47802W        W90719   9.327  26.573  17.072 -0.1922 -0.1511  0.1748
47803W        W90720  11.327  24.604  17.091 -0.2209  0.1928 -0.0728
47804W        W90721   7.578  31.126  18.989 -0.2040  0.0113 -0.3004
47805W        W90722  12.054  27.757  17.705 -0.0829 -0.0951 -0.2269
47806W        W90723   8.611  27.005  23.553 -0.0918 -0.4493  0.0328
47807W        W90724   9.280  26.949  20.900  0.0748  0.0243 -0.1354
47808W        W90725  12.198  26.826  19.366  0.1246  0.0380  0.1189
47809W        W90726   8.453  27.766  18.936 -0.4107  0.1652 -0.0926
47810W        W90727   9.056  26.070  18.419 -0.0804 -0.1511  0.0505
47811W        W90728  10.405  27.756  20.980  0.1630  0.0254  0.3483
47812W        W90729   6.658  27.344  22.727  0.0780 -0.1603  0.0963
47813W        W90730   9.766  28.026  20.458  0.0027 -0.1042 -0.2771
47814W        W90731  12.341  30.062  20.636  0.0246  0.0465  0.0073
47815W        W90732   8.422  28.544  19.505  0.0563  0.1755 -0.1077
47816W        W90733   8.833  26.658  24.879  0.0691 -0.0835  0.0625
47817W        W90734   9.010  29.506  22.300 -0.3308  0.3865 -0.3885
47818W        W90735   9.814  25.981  21.623  0.0646 -0.1208  0.1843
47819W        W90736   8.144  25.015  21.424 -0.0930 -0.1336 -0.0039
47820W        W90737  10.812  26.198  19.820  0.2032  0.0277  0.0920
47821W        W90738   6.157  29.453  23.629 -0.2686  0.0762  0.0124
47822W        W90739   8.453  28.187  24.489 -0.2246  0.0818 -0.0213
47823W        W90740   8.673  27.508  21.121 -0.2662 -0.3843  0.0985
47824W        W90741   9.229  27.784  22.557  0.0358 -0.0834 -0.1090
47825W        W90742  10.818  24.966  23.769 -0.0221  0.0157 -0.1107
47826W        W90743   9.848  26.416  19.449 -0.1136  0.3045 -0.4755
47827W        W90744   9.740  30.217  18.741  0.0275 -0.0860  0.3001
47828W        W90745   8.378  27.447  20.659  0.0340  0.0122 -0.0733
47829W        W90746   7.075  27.375  22.450 -0.1409 -0.2464 -0.1577
47830W        W90747   9.550  27.587  20.068 -0.1142  0.1371 -0.0365
47831W        W90748   9.923  26.638  22.675  0.0405  0.0270  0.0654
47832W        W90749  12.032  26.318  20.883 -0.0360 -0.1548  0.0350
47833W        W90750   7.300  30.152  21.957  0.3872 -0.2943 -0.1505
47834W        W90751   9.309  28.906  22.011 -0.0803 -0.0688  0.0598
47835W        W90752  10.330  28.286  23.013 -0.0980 -0.1500  0.2013
47836W        W90753   7.668  28.417  23.323  0.0271 -0.2922  0.0307
47837W        W90754   8.594  30.001  21.953  0.4548 -0.0263  0.2918
47838W        W90755   8.416  29.321  19.194 -0.1660  0.0287  0.0731
47839W        W90756  11.891  28.700  20.764  0.1736 -0.0826 -0.0059
47840W        W90757   9.332  29.887  22.065  0.1103 -0.0511 -0.0978
47841W        W90758   8.459  27.837  22.209 -0.0985  0.0641 -0.2385
47842W        W90759   7.389  27.170  19.350  0.0407  0.0421 -0.2140
47843W        W90760   8.576  30.421  20.652  0.2913 -0.2709  0.2565
47844W        W90761   8.938  28.147  23.242 -0.1748  0.1769 -0.1138
47845W        W90762  10.157  28.103  22.620 -0.2791 -0.0014  0.0223
47846W        W90763   9.594  26.029  21.161 -0.2045 -0.3554  0.2661
47847W        W90764   7.959  28.633  20.995 -0.1448  0.0785  0.3504
47848W        W90765  10.065  29.249  20.759  0.0855 -0.0179  0.2507
47849W        W90766   8.376  29.517  21.950 -0.0175  0.0404 -0.0404
47850W        W90767   6.630  30.790  21.581  0.1683  0.1014 -0.0094
47851W        W90768   9.649  25.995  22.940 -0.1345  0.1498  0.2085
47852W        W90769   7.304  28.786  19.464 -0.2787  0.0353  0.3108
47853W        W90770   9.581  27.521  19.065  0.2621  0.0551 -0.2219
47854W        W90771   8.676  27.093  18.134  0.3583 -0.1846 -0.0354
47855W        W90772  10.080  27.291  19.289  0.1069  0.1372  0.0817
47856W        W90773  11.337  25.712  21.389 -0.2882  0.1373  0.1746
47857W        W90774   8.759  28.700  19.858  0.1715 -0.1633  0.2098
47858W        W90775   8.164  27.812  22.897  0.1201  0.2468  0.2518
47859W        W90776  11.233  29.745  22.870  0.0693  0.2067  0.0895
47860W        W90777   9.434  29.867  20.343 -0.0413  0.3185 -0.0609
47861W        W90778   9.611  26.897  22.401 -0.4305  0.1098  0.1377
47862W        W90779   9.701  27.050  21.206  0.1122  0.0728 -0.4842
47863W        W90780   9.064  26.572  22.227 -0.1695  0.2053  0.2173
47864W        W90781   9.837  26.978  17.732  0.1752  0.0029  0.1459
47865W        W90782   8.853  30.379  21.268 -0.1211  0.0038 -0.1233
47866W        W90783   9.748  26.665  18.653  0.0488  0.1393  0.0449
47867W        W90784   7.042  27.208  21.419 -0.0992 -0.0137 -0.1825
47868W        W90785   7.036  27.676  21.265  0.1735 -0.2190 -0.2699
47869W        W90786   7.226  28.312  24.157  0.1644 -0.1018  0.2087
47870W        W90787   8.481  27.029  19.602 -0.1301  0.0525 -0.0054
47871W        W90788  11.510  29.215  24.049 -0.0253 -0.2644  0.0171
47872W        W90789   8.562  28.840  22.441  0.1155  0.1041  0.0841
47873W        W90790  10.835  24.191  20.185  0.1249 -0.3618  0.0523
47874W        W90791   8.202  27.391  19.778  0.2898 -0.1643  0.0862
47875W        W90792  11.610  28.400  23.423  0.1138 -0.1236 -0.1422
47876W        W90793  11.138  27.187  18.186  0.2018 -0.3111 -0.0452
47877W        W90794   9.874  25.550  21.286  0.2790  0.1866  0.1378
47878W        W90795   9.021  25.364  22.856  0.1811  0.2702 -0.0253
47879W        W90796   8.001  26.163  18.807 -0.3319 -0.3685  0.2163
47880W        W90797   8.959  27.565  18.261 -0.2634  0.3679 -0.0044
47881W        W90798   8.829  30.437  22.616  0.1058  0.0346 -0.0183
47882W        W90799  10.108  27.389  17.839 -0.0632 -0.0457  0.1064
47883W        W90800   7.951  30.359  22.638  0.0948 -0.3309  0.0096
47884W        W90801   9.954  26.609  23.646 -0.3338 -0.1371  0.4133
47885W        W90802  10.167  27.268  19.965 -0.1488  0.0941 -0.3542
47886W        W90803   9.110  28.034  18.283  0.1656 -0.0584  0.0537
47887W        W90804   7.543  27.830  21.330  0.5384  0.2663  0.1239
47888W        W90805   7.591  28.450  21.261 -0.1639 -0.1750 -0.2602
47889W        W90806   7.582  26.416  21.271  0.0332 -0.2243  0.0072
47890W        W90807   8.661  27.490  21.715  0.1434  0.0769 -0.1697
47891W        W90808  10.740  26.405  21.555  0.2879  0.2770 -0.4914
47892W        W90809   8.426  26.548  24.254  0.0095  0.0529 -0.1004
47893W        W90810   9.680  25.159  20.684  0.1364  0.1511 -0.2789
47894W        W90811   8.338  29.410  21.376  0.0853 -0.1861  0.1226
47895W        W90812   9.809  28.445  21.296  0.1908 -0.1071 -0.2090
47896W        W90813  10.950  28.034  18.643 -0.2429 -0.1768  0.1518
47897W        W90814   8.157  29.883  18.181 -0.3055  0.2465  0.0012
47898W        W90815   8.453  27.342  23.903  0.0671  0.3891 -0.0630
47899W        W90816   8.526  27.193  22.502  0.2122  0.2033  0.2056
47900W        W90817   8.160  26.572  22.977  0.0010 -0.1651 -0.1803
47901W        W90818   8.558  26.628  22.060  0.2333  0.0145  0.0342
47902W        W90819   9.758  26.671  21.543 -0.0694  0.0780  0.3616
47903W        W90820   9.071  24.316  20.477 -0.1678  0.0306  0.0928
47904W        W90821  10.943  26.878  18.987 -0.3157 -0.3451  0.0073
47905W        W90822   9.808  26.419  23.115 -0.0509 -0.1196  0.0388
47906W        W90823   6.940  29.350  23.173 -0.0752  0.0439 -0.0838
47907W        W90824  10.957  25.232  24.576 -0.0030 -0.1954  0.1907
47908W        W90825   8.467  30.248  18.726  0.0364  0.1587 -0.2631
47909W        W90826  10.446  27.214  21.079  0.0110 -0.0676  0.2009
47910W        W90827   8.018  30.453  20.731 -0.1372  0.0394 -0.2365
47911W        W90828   9.159  26.751  21.727 -0.2275  0.0407 -0.1420
47912W        W90829   8.812  27.819  20.469 -0.0754  0.0919  0.1495
47913W        W90830   7.748  29.955  21.928  0.1466  0.2771 -0.0108
47914W        W90831  10.771  27.122  20.201 -0.1327 -0.0349  0.3068
47915W        W90832   8.651  27.618  17.238  0.2299  0.0302  0.2863
47916W        W90833   8.596  29.211  19.926 -0.2016 -0.3594 -0.1479
47917W        W90834   9.737  27.273  18.131  0.2328  0.0248 -0.0641
47918W        W90835   8.519  27.838  23.333  0.0934  0.2478 -0.0343
47919W        W90836  11.681  25.370  20.843 -0.0315  0.0322  0.1620
47920W        W90837  11.082  26.959  24.076 -0.1868 -0.0015  0.3614
47921W        W90838  10.570  27.845  19.027  0.1925  0.1193  0.0033
47922W        W90839   7.932  26.175  20.394  0.1659  0.2546 -0.0065
47923W        W90840  10.402  29.128  21.753 -0.0713  0.1823 -0.0543
47924W        W90841   8.532  29.015  18.541  0.0311  0.3997  0.1572
47925W        W90842   9.621  28.950  23.245  0.1154  0.1088  0.0274
47926W        W90843   9.916  28.034  19.972  0.0181  0.0771 -0.1288
47927W        W90844  10.772  27.035  20.709  0.3711 -0.1363  0.0088
47928W        W90845   8.344  28.255  23.075 -0.0335  0.0090  0.2472
47929W        W90846   7.975  27.520  24.529  0.0938  0.1423 -0.0683
47930W        W90847   7.206  28.145  20.509  0.4148  0.3721  0.0379
47931W        W90848   6.404  27.018  23.061  0.0479 -0.3663 -0.0186
47932W        W90849   9.472  26.369  22.563  0.3633 -0.0205  0.3371
47933W        W90850  11.024  25.498  20.016 -0.1077  0.2096  0.1641
47934W        W90851  10.783  28.193  22.251  0.2983 -0.1349 -0.0253
47935W        W90852  11.259  27.314  21.523 -0.1236 -0.0122 -0.1045
47936W        W90853   8.605  26.951  18.614 -0.0426 -0.0709  0.4709
47937W        W90854  10.113  25.964  19.296  0.1130 -0.0264  0.0674
47938W        W90855   6.852  30.066  22.783 -0.1112 -0.0777  0.2522
47939W        W90856   8.760  31.174  18.592  0.1059  0.2196 -0.2591
47940W        W90857   8.907  27.974  18.808  0.4984  0.0452  0.1382
47941W        W90858  10.522  26.431  22.037  0.1903 -0.2445 -0.0593
47942W        W90859  12.396  30.173  21.491 -0.2229  0.0491  0.3240
47943W        W90860   6.761  28.048  22.371  0.3910 -0.2882 -0.1033
47944W        W90861   9.959  29.272  21.911 -0.4504  0.3121  0.1054
47945W        W90862   9.223  29.965  21.399 -0.0219 -0.0452 -0.2474
47946W        W90863   8.257  26.378  22.413  0.0860 -0.0315  0.0532
47947W        W90864   9.059  27.845  21.471  0.1081  0.0187  0.0442
47948W        W90865  10.132  24.698  21.994 -0.0460 -0.0369  0.2472
47949W        W90866   9.256  28.520  19.733  0.1153  0.0074 -0.3036
47950W        W90867  10.128  24.844  21.467  0.3004  0.1867  0.2452
47951W        W90868   9.842  27.098  21.738 -0.1992  0.1013 -0.2949
47952W        W90869   9.741  25.787  23.842 -0.1288  0.3697 -0.3919
47953W        W90870  12.040  28.094  22.223  0.1073 -0.1382  0.0818
47954W        W90871   8.652  25.741  18.334 -0.1629 -0.0468  0.2187
47955W        W90872  11.755  27.636  21.473  0.1646  0.4838  0.1057
47956W        W90873   8.064  26.662  20.390 -0.3140 -0.2879 -0.2231
47957W        W90874  10.865  26.461  22.795 -0.1053  0.2870 -0.1045
47958W        W90875   6.005  29.413  24.153  0.1416 -0.3331 -0.1769
47959W        W90876   4.880  28.868  23.775 -0.0044 -0.3059 -0.1234
47960W        W90877   7.570  30.352  21.559 -0.0296 -0.1177 -0.2809
47961W        W90878  10.711  29.176  20.729  0.1109  0.3917 -0.3780
47962W        W90879   8.877  27.568  22.233 -0.2647  0.1063  0.0366
47963W        W90880   8.496  27.835  19.850 -0.1120 -0.1439  0.3482
47964W        W90881   8.707  29.045  19.455  0.0773 -0.2172  0.2665
47965W        W90882   9.934  27.853  17.689 -0.2189  0.1183  0.2174
47966W        W90883   8.056  26.836  22.209 -0.0044 -0.0386 -0.2569
47967W        W90884   8.347  29.231  20.880  0.2058 -0.0836 -0.3251
47968W        W90885   9.057  27.530  19.188  0.0662 -0.1889  0.2002
47969W        W90886  10.708  27.969  21.818  0.1419 -0.2874 -0.1336
47970W        W90887   8.841  29.173  20.921  0.1099  0.0361  0.1075
47971W        W90888  10.986  23.964  22.102  0.0315  0.2774  0.3939
47972W        W90889   7.338  30.420  20.723 -0.0668  0.1321 -0.0074
47973W        W90890   9.020  27.781  19.989  0.3557 -0.1647 -0.1315
47974W        W90891   9.627  28.066  22.391 -0.0218 -0.0373  0.0931
47975W        W90892  10.740  26.640  19.568 -0.0791  0.0507 -0.0171
47976W        W90893  11.417  26.115  20.395 -0.3347  0.0158 -0.2359
47977W        W90894   9.595  26.576  24.981  0.0770 -0.3349  0.3425
47978W        W90895   8.109  26.901  21.712  0.1277 -0.0580  0.1877
47979W        W90896   6.067  31.455  22.245 -0.1034  0.1126  0.0307
47980W        W90897   9.989  27.485  21.325  0.3024  0.2111 -0.2436
47981W        W90898   9.383  25.869  17.568 -0.0291  0.2510 -0.0140
47982W        W90899   9.797  28.281  22.912 -0.2583 -0.0185 -0.0121
47983W        W90900   8.842  27.938  23.742 -0.0343  0.3983 -0.3702
47984W        W90901   7.871  25.389  18.481 -0.1525  0.1305 -0.0100
47985W        W90902  10.448  26.800  22.545 -0.1495 -0.0062 -0.3236
47986W        W90903   9.410  25.732  22.585  0.3932 -0.1070  0.3498
47987W        W90904   5.905  29.779  22.175  0.1872 -0.1570 -0.1131
47988W        W90905   9.678  28.730  21.677 -0.1072  0.0083  0.0688
47989W        W90906   9.323  28.343  21.729 -0.0630  0.1299 -0.1288
47990W        W90907   5.671  28.856  21.846  0.1493 -0.1201  0.0700
47991W        W90908  10.992  26.442  23.993  0.0172 -0.1748  0.1496
47992W        W90909   9.421  27.272  23.237  0.0245 -0.4621 -0.0187
47993W        W90910   8.845  29.204  21.439 -0.0966 -0.4002 -0.1300
47994W        W90911   9.514  25.483  23.024 -0.1909  0.1280 -0.1577
47995W        W90912   9.580  25.549  21.731 -0.0187 -0.0117  0.0373
47996W        W90913   8.750  28.509  22.755 -0.0960  0.1880 -0.0135
47997W        W90914   9.428  28.499  22.249 -0.0319 -0.1744 -0.1413
47998W        W90915   8.685  29.909  21.455 -0.2298  0.1029  0.2911
47999W        W90916   8.591  26.672  22.595 -0.0535  0.0615 -0.0927
48000W        W90917  10.013  28.552  19.149  0.0428  0.0065  0.1145
48001W        W90918   9.935  30.556  23.781 -0.0462  0.4229  0.0636
48002W        W90919   9.047  28.298  20.604 -0.1231  0.2454 -0.0333
48003W        W90920   8.265  28.661  22.750  0.2262 -0.1927  0.2815
48004W        W90921   8.445  26.171  19.741 -0.2797 -0.3747 -0.2540
48005W        W90922   8.709  26.550  23.140 -0.0757 -0.2916 -0.5067
48006W        W90923   9.650  26.025  20.234 -0.0418  0.1480 -0.0015
48007W        W90924   9.136  28.248  20.135  0.2791  0.1441 -0.0029
48008W        W90925   8.360  29.052  21.746 -0.0055 -0.1407  0.2243
48009W        W90926  12.065  26.242  19.116  0.0185 -0.1054 -0.0467
48010W        W90927   9.212  29.450  19.494  0.0990 -0.1842 -0.0359
48011W        W90928   9.880  27.671  22.489  0.0494  0.2441 -0.1589
48012W        W90929  10.017  27.181  22.684  0.0510 -0.2265 -0.0056
48013W        W90930  10.401  28.234  19.259 -0.1121 -0.2051 -0.1234
48014W        W90931  10.995  27.586  23.034 -0.1901  0.1049 -0.0178
48015W        W90932  10.306  26.386  22.881 -0.2204  0.2183 -0.3231
48016W        W90933   9.526  26.737  19.550  0.0309 -0.1022  0.2963
48017W        W90934   7.999  27.689  22.037  0.2491 -0.1001  0.1934
48018W        W90935   9.005  28.140  22.310 -0.0311  0.1480  0.0195
48019W        W90936   6.681  28.214  23.668 -0.0402  0.0763 -0.0869
48020W        W90937   9.761  25.050  21.746 -0.2508  0.0513 -0.1725
48021W        W90938   7.402  26.706  19.157  0.0353  0.0945  0.0635
48022W        W90939   7.476  28.775  22.165  0.0504  0.0062 -0.0572
48023W        W90940   9.557  27.361  20.617 -0.1586  0.1031 -0.1118
48024W        W90941   9.245  28.768  20.225 -0.1879 -0.2360 -0.0017
48025W        W90942  10.833  26.396  19.157 -0.2960  0.0652  0.0314
48026W        W90943   7.466  28.362  21.935 -0.0642  0.2676  0.1802
48027W        W90944  11.369  26.269  21.567 -0.4123  0.3491  0.0528
48028W        W90945   9.552  26.626  21.977  0.3250  0.0451 -0.3572
48029W        W90946   8.596  27.509  22.861 -0.2997 -0.2670 -0.3100
48030W        W90947  10.006  26.858  23.124 -0.0666  0.0360 -0.0939
48031W        W90948  10.051  26.450  20.815  0.3892  0.2112  0.2807
48032W        W90949  10.089  27.656  20.262 -0.1867  0.0172 -0.3008
48033W        W90950  10.744  26.902  21.916 -0.1846  0.1090  0.0174
48034W        W90951   9.510  26.747  23.927 -0.1794 -0.1165 -0.0252
48035W        W90952   8.318  27.267  22.038 -0.2151 -0.0748  0.1653
48036W        W90953   8.158  26.290  23.439  0.3326 -0.1930  0.3866
48037W        W90954  10.807  30.016  20.405  0.3156 -0.0697  0.0558
48038W        W90955  11.102  26.117  18.802  0.2693 -0.0106  0.2509
48039W        W90956  11.440  26.644  22.002 -0.1786 -0.0134 -0.1075
48040W        W90957  10.119  26.796  21.193  0.1312  0.1608  0.0283
48041W        W90958  11.536  28.024  18.016 -0.0792  0.0250 -0.1702
48042W        W90959   8.645  25.736  22.048 -0.0877 -0.0285 -0.0004
48043W        W90960  10.489  27.161  23.003  0.2722  0.1662 -0.0739
48044W        W90961   8.610  27.455  20.214 -0.0147 -0.0229 -0.2567
48045W        W90962  10.620  26.707  21.187 -0.0787  0.1613  0.1264
48046W        W90963  10.496  30.226  18.386  0.0607 -0.0607 -0.0737
48047W        W90964   9.995  29.782  17.967  0.2312 -0.1426 -0.5009
48048W        W90965  10.312  26.822  18.716 -0.1049 -0.1302 -0.2326
48049W        W90966   9.616  27.607  21.599 -0.1774  0.0965 -0.0343
48050W        W90967   5.647  29.518  23.388 -0.0707  0.2213  0.1053
48051W        W90968   8.879  27.195  20.543 -0.2065  0.1497  0.1678
48052W        W90969   9.763  28.174  19.484  0.1560 -0.0310  0.0137
48053W        W90970   8.419  29.718  20.930 -0.1494  0.0379 -0.3057
48054W        W90971  10.076  28.040  21.278 -0.0565 -0.1125  0.3228
48055W        W90972  10.362  26.378  19.532 -0.0998 -0.1808 -0.0509
48056W        W90973  10.717  27.307  23.875  0.0507 -0.0980 -0.1135
48057W        W90974   8.807  27.946  20.963  0.2121  0.2257  0.4330
48058W        W90975   8.866  25.216  22.333  0.2471 -0.2033 -0.0860
48059W        W90976   7.544  29.224  22.838 -0.1480  0.0183 -0.0730
48060W        W90977   6.564  29.018  22.890 -0.0047  0.1567 -0.1704
48061W        W90978   9.294  27.868  21.969 -0.1453 -0.0766 -0.2610
48062W        W90979   9.888  25.496  22.696  0.0726  0.4105  0.0988
48063W        W90980   9.249  27.631  18.688 -0.0625 -0.3267 -0.1292
48064W        W90981   7.899  28.296  22.864  0.0235 -0.2347  0.1779
48065W        W90982  10.118  27.351  22.190 -0.2226  0.0221 -0.3719
48066W        W90983   8.501  28.284  21.213 -0.2006 -0.3900  0.1146
48067W        W90984   9.324  27.837  20.423  0.1680  0.0889 -0.2144
48068W        W90985  10.225  28.984  22.469 -0.1576  0.0716 -0.1410
48069W        W90986   9.765  29.291  21.362 -0.0707  0.3624 -0.1571
48070W        W90987   6.815  29.608  22.138 -0.0402  0.0786 -0.0242
48071W        W90988   8.061  27.468  22.490  0.2863  0.0757  0.0535
48072W        W90989   8.641  25.666  22.941  0.4053  0.1824 -0.0220
48073W        W90990  10.885  24.611  19.931  0.1260 -0.3712  0.0240
48074W        W90991   8.286  24.573  21.720 -0.1585 -0.3528  0.2654
48075W        W90992   8.639  27.653  17.837  0.1562  0.0407  0.0869
48076W        W90993   8.015  30.584  21.833 -0.1877  0.0693 -0.2360
48077W        W90994   7.664  30.036  22.389  0.3432  0.1024  0.3093
48078W        W90995   8.934  28.407  18.575  0.5713 -0.2940  0.1058
48079W        W90996  10.178  26.946  18.224 -0.0270  0.0489  0.1439
48080W        W90997   9.727  28.556  18.711  0.4949 -0.1567  0.1521
48081W        W90998   9.557  31.579  21.865  0.0336 -0.0101  0.1102
48082W        W90999  10.496  26.940  19.234  0.1170 -0.2403  0.0189
48083W        W91000   8.796  27.947  22.731  0.0110 -0.3368 -0.1252
48084W        W91001   6.005  30.159  20.185 -0.3222 -0.3097  0.2230
48085W        W91002  11.574  27.348  19.705 -0.1595 -0.1131  0.4212
48086W        W91003   9.733  28.367  17.536  0.1590 -0.0515  0.0153
48087W        W91004   7.923  29.652  21.122  0.0071 -0.1983 -0.2818
48088W        W91005  11.092  26.608  20.609  0.0957  0.0674 -0.0283
48089W        W91006  11.773  27.467  20.189 -0.3314 -0.2557  0.0997
48090W        W91007  12.914  25.538  21.168 -0.1173  0.0483 -0.0153
48091W        W91008   9.763  28.892  21.016 -0.0408 -0.1680 -0.1422
48092W        W91009   7.902  28.752  21.527 -0.2097  0.2124 -0.2062
48093W        W91010   8.899  26.669  20.399  0.2353  0.0373  0.0447
48094W        W91011   8.994  27.257  22.787  0.0167 -0.0867  0.1967
48095W        W91012  10.424  27.638  22.786 -0.0689 -0.0929 -0.2962
48096W        W91013   7.862  28.881  23.111  0.0205  0.0517 -0.1670
48097W        W91014  10.745  29.493  18.550 -0.1288 -0.2061 -0.2637
48098W        W91015   9.763  26.811  20.704  0.0382 -0.0431  0.2642
48099W        W91016   8.739  27.112  19.079  0.1078  0.1842 -0.1542
48100W        W91017  11.234  25.065  23.145  0.3224 -0.1302  0.2874
48101W        W91018   9.257  27.555  19.622  0.1023  0.5409  0.6028
48102W        W91019  12.698  25.366  20.756  0.3825 -0.0172 -0.3150
48103W        W91020   9.263  31.060  20.642  0.2160 -0.4438 -0.1507
48104W        W91021   8.127  29.742  22.367  0.1774 -0.0339  0.4568
48105W        W91022   8.341  27.957  20.324  0.0226 -0.1060 -0.1686
48106W        W91023   8.994  26.237  19.915  0.3468 -0.0121 -0.0999
48107W        W91024  11.397  27.676  21.177 -0.0563 -0.1934  0.1480
48108W        W91025   8.184  27.752  25.477  0.1472 -0.5295  0.1502
48109W        W91026  10.191  25.865  21.168 -0.3038  0.1391 -0.2240
48110W        W91027   9.603  27.236  19.484  0.2819 -0.2341  0.0783
48111W        W91028   9.427  28.034  20.861 -0.1964  0.1036 -0.2243
48112W        W91029   8.753  28.005  21.814  0.1050  0.1340  0.1409
48113W        W91030   8.880  24.747  23.864 -0.2747 -0.0241 -0.2199
48114W        W91031   9.670  27.054  19.959  0.1150  0.4217 -0.1937
48115W        W91032   9.471  29.378  22.116 -0.0142  0.2983  0.1136
48116W        W91033   8.158  27.891  16.359  0.0296 -0.1279  0.0981
48117W        W91034   7.559  30.711  23.707 -0.2705 -0.1504  0.0266
48118W        W91035   6.945  26.517  19.478  0.0683 -0.1782 -0.3456
48119W        W91036   8.786  27.435  18.721 -0.3674 -0.0472  0.1952
48120W        W91037   7.835  27.920  22.501 -0.0659 -0.0908  0.1645
48121W        W91038   8.082  28.719  22.103 -0.1096 -0.0510 -0.0533
48122W        W91039   9.124  27.678  23.068  0.0501  0.0916  0.3894
48123W        W91040   8.411  25.387  21.324  0.0281 -0.0681 -0.0792
48124W        W91041  10.240  27.776  19.429  0.1532 -0.2787  0.2188
48125W        W91042   9.247  24.941  21.575  0.1701  0.0750  0.4137
48126W        W91043   8.285  28.715  20.037  0.2059 -0.0274 -0.0722
48127W        W91044  10.575  27.680  19.844 -0.1350  0.0743 -0.1451
48128W        W91045   8.527  30.528  22.203 -0.1573 -0.0562  0.0774
48129W        W91046   8.324  25.920  22.461 -0.0217 -0.0856  0.3321
48130W        W91047  10.038  28.734  22.892 -0.0152  0.0946 -0.0826
48131W        W91048   9.707  28.471  19.930  0.0921  0.2237 -0.0225
48132W        W91049  11.274  25.891  19.937 -0.0920 -0.1135 -0.2244
48133W        W91050   9.955  29.724  20.460  0.2126 -0.2212 -0.2275
48134W        W91051   5.551  27.519  19.812  0.4553  0.3673 -0.1362
48135W        W91052  10.864  25.573  21.634 -0.2165 -0.3831 -0.0841
48136W        W91053   9.565  27.959  21.316 -0.1739  0.3039 -0.3381
48137W        W91054   9.803  29.365  16.799 -0.2081 -0.0457  0.2483
48138W        W91055  10.735  27.424  21.839  0.4955  0.0585  0.2343
48139W        W91056  10.075  29.479  22.343  0.1984 -0.0513 -0.1433
48140W        W91057  10.305  28.425  21.561 -0.0695 -0.1361 -0.4200
48141W        W91058   9.166  27.275  20.057 -0.0144 -0.1295  0.1140
48142W        W91059   9.991  27.222  20.867 -0.0348 -0.1198 -0.3394
48143W        W91060   8.404  30.162  22.592  0.0344  0.1276 -0.2068
48144W        W91061  10.094  30.070  21.194 -0.0928  0.1183  0.3532
48145W        W91062   9.797  28.139  21.739  0.2777  0.2665  0.0649
48146W        W91063  10.355  27.292  20.509 -0.0518  0.1290 -0.0468
48147W        W91064  10.735  30.565  21.579  0.0023 -0.1237  0.0483
48148W        W91065   7.036  25.190  22.240  0.2007  0.1185 -0.0195
48149W        W91066   9.601  25.895  22.162 -0.0718  0.1325  0.2346
48150W        W91067   9.770  26.621  20.203 -0.0690 -0.4237 -0.2958
48151W        W91068   8.299  27.953  21.584  0.3207 -0.0925  0.2748
48152W        W91069   6.035  28.143  21.869  0.0945 -0.3818 -0.2058
48153W        W91070   8.315  27.226  21.276 -0.2008 -0.3300 -0.0436
48154W        W91071   8.954  28.556  21.997  0.0812  0.0080  0.1924
48155W        W91072   9.666  25.091  23.371 -0.2043  0.1889 -0.2086
48156W        W91073   6.583  26.715  24.047 -0.0706  0.0623  0.1060
48157W        W91074   9.078  26.493  23.642 -0.2883 -0.0042 -0.2362
48158W        W91075   8.182  26.908  23.372 -0.1277  0.2221  0.0478
48159W        W91076  12.040  27.391  19.277 -0.2042  0.0243  0.0433
48160W        W91077   9.273  26.347  23.152  0.3093  0.2702  0.0023
48161W        W91078   8.921  25.654  23.955  0.1566  0.2781 -0.5032
48162W        W91079  11.588  28.646  19.355  0.1931  0.3918 -0.2565
48163W        W91080   9.948  28.286  20.838 -0.1347 -0.0970 -0.3599
48164W        W91081   8.510  26.544  20.049 -0.1182  0.2060 -0.4024
48165W        W91082   8.984  29.586  21.152 -0.1953 -0.1632 -0.2670
48166W        W91083   7.229  27.412  18.979 -0.1421 -0.1013 -0.0013
48167W        W91084  10.146  27.757  21.767  0.1478  0.2512  0.0590
48168W        W91085   8.876  27.487  23.457  0.1544  0.1763 -0.2746
48169W        W91086   8.860  25.264  20.226 -0.2066  0.1504 -0.0446
48170W        W91087   8.542  26.177  22.908  0.1139  0.0801  0.3602
48171W        W91088   8.830  30.016  20.912 -0.0792  0.0734  0.0232
48172W        W91089   9.177  29.575  17.468  0.0195  0.2558 -0.2122
48173W        W91090   8.995  28.334  21.379 -0.1376 -0.0654 -0.1543
48174W        W91091   8.912  29.582  21.821 -0.0953 -0.3438 -0.1095
48175W        W91092   7.232  26.806  21.202 -0.0318  0.0515  0.1790
48176W        W91093  10.509  28.431  20.299 -0.2974 -0.1815  0.0303
48177W        W91094   9.355  28.586  20.936  0.1135 -0.2353 -0.0020
48178W        W91095  10.443  29.376  18.882 -0.0067 -0.2887  0.0510
48179W        W91096  11.617  26.838  22.830 -0.0746 -0.1003 -0.0181
48180W        W91097   9.345  25.047  22.038 -0.0451 -0.1909 -0.1583
48181W        W91098   7.254  25.286  21.793  0.1382  0.0950 -0.3042
48182W        W91099   7.391  29.476  23.268 -0.4064 -0.1935  0.1190
48183W        W91100  12.705  27.397  22.639  0.2835  0.0146  0.3410
48184W        W91101   8.503  25.080  22.762  0.1416 -0.3342 -0.0244
48185W        W91102  11.934  27.796  18.913 -0.0424 -0.2274  0.0804
48186W        W91103   7.797  27.612  18.257 -0.3220 -0.0515 -0.0290
48187W        W91104   7.803  27.492  21.098  0.1174  0.2190 -0.0555
48188W        W91105   9.055  27.533  20.805 -0.0108  0.3599 -0.2147
48189W        W91106   9.198  27.148  23.691 -0.0978 -0.0675  0.2490
48190W        W91107   6.990  29.475  20.151 -0.0269 -0.1222 -0.0894
48191W        W91108  11.037  28.029  21.075 -0.0313  0.2334  0.3538
48192W        W91109   9.944  26.915  19.574  0.0508  0.1703 -0.1153
48193W        W91110  10.151  27.580  18.933  0.2553 -0.0835  0.1000
48194W        W91111   7.085  29.625  21.331 -0.2718  0.1490 -0.0731
48195W        W91112   9.304  28.197  22.814 -0.1830 -0.0536  0.0394
48196W        W91113   6.926  31.695  21.366  0.1700  0.0339  0.1098
48197W        W91114  11.222  27.442  20.226 -0.4462  0.1909  0.2383
48198W        W91115  10.260  25.086  22.456 -0.1302  0.1683 -0.1102
48199W        W91116   7.142  29.886  22.403  0.1569  0.1657 -0.2149
48200W        W91117   8.871  27.892  19.489 -0.3538  0.1466  0.1121
48201W        W91118   9.505  27.284  22.669  0.2355 -0.2153  0.1243
48202W        W91119   9.199  26.105  22.248 -0.1817 -0.0508  0.0675
48203W        W91120   8.802  27.057  22.034 -0.0119  0.3706 -0.0105
48204W        W91121   6.193  30.879  22.061 -0.1069  0.0436 -0.0858
48205W        W91122   9.770  27.685  19.578  0.0206 -0.1271  0.0911
48206W        W91123   9.813  25.698  26.636  0.3013 -0.2340 -0.0013
48207W        W91124   6.399  27.766  24.919  0.2514 -0.0992  0.1412
48208W        W91125  10.314  26.823  20.705 -0.1070 -0.2383  0.4205
48209W        W91126  12.622  26.159  24.630  0.2391  0.2510  0.0279
48210W        W91127   7.520  26.335  23.501  0.0346  0.2230 -0.0270
48211W        W91128   9.655  28.915  24.366  0.1893 -0.2669  0.1243
48212W        W91129   7.619  24.368  26.025  0.1545 -0.0732 -0.0489
48213W        W91130   9.535  28.445  24.737 -0.1861  0.0439  0.1860
48214W        W91131  10.500  27.686  24.476  0.0620  0.3139  0.1393
48215W        W91132  11.148  30.005  22.394  0.0345 -0.1730 -0.2636
48216W        W91133   9.883  26.265  27.121  0.1576  0.0307 -0.2549
48217W        W91134  11.571  29.550  24.964 -0.1850 -0.0325 -0.1831
48218W        W91135   8.372  27.977  25.023 -0.1634  0.0569  0.2051
48219W        W91136   7.216  27.077  26.018  0.1807  0.1637  0.0290
48220W        W91137   9.664  27.265  25.484 -0.0708 -0.0001  0.2229
48221W        W91138   8.624  27.709  25.794  0.3366 -0.0768  0.1211
48222W        W91139   8.660  27.490  24.661  0.1280  0.1743  0.0734
48223W        W91140   9.340  29.064  25.312 -0.0874  0.1625  0.0137
48224W        W91141  11.319  30.038  26.932  0.0593  0.0322  0.0643
48225W        W91142   9.600  26.603  26.646 -0.0898 -0.1370 -0.4140
48226W        W91143   9.961  27.435  25.859 -0.2238 -0.0521 -0.2782
48227W        W91144   8.847  27.042  24.485  0.1031  0.3383 -0.2227
48228W        W91145   8.093  27.006  22.749  0.4664  0.0982 -0.0977
48229W        W91146   7.143  28.658  26.940 -0.4845 -0.1112  0.0581
48230W        W91147  10.322  28.393  26.310  0.1477 -0.0448  0.1208
48231W        W91148  12.508  26.081  26.821 -0.0388  0.1700 -0.0636
48232W        W91149  10.270  28.321  25.788 -0.0452 -0.2858  0.0748
48233W        W91150   8.860  28.591  24.600  0.2651 -0.1548 -0.2876
48234W        W91151  11.939  29.581  26.044 -0.0777 -0.0772 -0.2814
48235W        W91152   9.500  27.236  27.169  0.0489  0.0011 -0.1545
48236W        W91153   6.956  27.328  23.211  0.0726 -0.1681 -0.1620
48237W        W91154   5.158  27.891  24.141  0.1405 -0.1717 -0.0996
48238W        W91155  10.361  28.042  23.576 -0.0944  0.0451  0.0340
48239W        W91156  11.520  28.814  25.000 -0.2005  0.3558  0.1172
48240W        W91157  10.741  30.215  25.890  0.0535  0.0089 -0.2939
48241W        W91158   7.637  30.774  27.020  0.0463  0.1286  0.0231
48242W        W91159   7.317  26.889  24.151 -0.0888 -0.0825  0.1332
48243W        W91160  10.078  28.016  26.504  0.0350  0.0084  0.3180
48244W        W91161   9.000  27.455  26.276 -0.0728  0.0858  0.0114
48245W        W91162   8.625  26.128  26.826 -0.0657 -0.0824  0.0828
48246W        W91163   9.708  29.518  23.511 -0.0980 -0.2335  0.0095
48247W        W91164   9.901  28.981  23.666 -0.1257 -0.3934 -0.1918
48248W        W91165   8.799  28.041  24.906 -0.0776  0.0772 -0.2391
48249W        W91166   9.493  28.238  25.956 -0.1608  0.0471 -0.0686
48250W        W91167   6.162  29.072  25.545 -0.1547  0.2002  0.1387
48251W        W91168  10.784  26.909  29.018  0.0329 -0.4411  0.2048
48252W        W91169   8.952  29.788  23.276 -0.0819 -0.2956 -0.0378
48253W        W91170  10.723  26.719  24.920  0.0928 -0.4214  0.0395
48254W        W91171   8.525  26.995  22.962 -0.1444 -0.0767 -0.0536
48255W        W91172   9.020  26.704  25.695  0.0008  0.0892  0.1120
48256W        W91173   7.947  26.434  23.869 -0.0190 -0.1723  0.0127
48257W        W91174   8.592  31.121  26.020  0.2468 -0.0764  0.1212
48258W        W91175   8.987  25.475  25.114 -0.1648  0.0540  0.2126
48259W        W91176  11.895  27.799  25.512 -0.1148  0.1778 -0.1844
48260W        W91177   9.310  29.278  24.478 -0.0366 -0.0115 -0.1789
48261W        W91178  10.951  27.124  26.429 -0.2271  0.2564  0.0615
48262W        W91179   8.498  28.533  24.965  0.0148  0.1378 -0.0456
48263W        W91180   7.095  26.653  24.595 -0.1898  0.0604  0.1469
48264W        W91181   9.438  28.179  23.257 -0.2163 -0.0599  0.2717
48265W        W91182  10.835  28.232  26.408 -0.0277 -0.1582 -0.0622
48266W        W91183   8.144  29.202  22.266  0.0427 -0.0749 -0.2737
48267W        W91184   6.776  27.717  23.553  0.0338  0.2023 -0.0693
48268W        W91185   7.807  25.795  26.201  0.0827 -0.0959  0.0997
48269W        W91186   8.937  28.548  26.206  0.0811  0.0635 -0.1493
48270W        W91187   8.847  25.756  24.654 -0.2389  0.0975 -0.0615
48271W        W91188  11.311  27.006  25.654 -0.1707 -0.1229  0.1459
48272W        W91189   7.827  27.104  27.927 -0.0089  0.1882  0.0816
48273W        W91190   8.721  26.882  24.013  0.2261 -0.0335  0.2087
48274W        W91191  10.752  29.853  25.443  0.2836 -0.1989  0.1482
48275W        W91192   9.585  29.261  25.702 -0.3861 -0.0037  0.3633
48276W        W91193  10.071  26.816  26.621  0.1553 -0.0605  0.1721
48277W        W91194  10.455  26.490  25.837 -0.2769  0.2090 -0.1778
48278W        W91195  12.333  25.331  26.082 -0.0343  0.5226 -0.0775
48279W        W91196   8.781  26.261  26.224  0.1699 -0.1005  0.0156
48280W        W91197   9.799  27.150  24.071  0.2344 -0.1064  0.0405
48281W        W91198  10.016  28.555  24.346 -0.0329 -0.0231  0.0604
48282W        W91199  10.761  28.974  23.650 -0.0206 -0.2277 -0.0292
48283W        W91200  10.033  28.841  25.023  0.0784  0.0081  0.2358
48284W        W91201  10.874  26.355  25.237  0.1854  0.1611  0.1784
48285W        W91202   9.841  27.633  27.262  0.2546  0.1317  0.2100
48286W        W91203   9.811  29.366  22.775  0.0554  0.0870  0.0299
48287W        W91204   7.189  28.643  25.412 -0.2775 -0.1662  0.1469
48288W        W91205   7.906  27.182  24.159  0.2464  0.0701  0.2390
48289W        W91206   9.457  25.668  25.625  0.0714  0.3611 -0.1153
48290W        W91207   8.116  28.068  26.416 -0.2002 -0.0523  0.0838
48291W        W91208   9.240  27.544  25.248  0.0578  0.1247 -0.2805
48292W        W91209  10.425  25.195  26.227  0.1207 -0.1599  0.0611
48293W        W91210  11.543  24.674  24.947  0.0930 -0.1477  0.0297
48294W        W91211   7.151  29.094  21.822  0.3452  0.4266  0.0661
48295W        W91212   9.906  29.363  24.036 -0.0082 -0.0766 -0.1025
48296W        W91213  10.004  25.627  24.768 -0.0860  0.2650 -0.2697
48297W        W91214  11.625  29.345  22.946  0.7190  0.0671 -0.0976
48298W        W91215   6.982  27.139  26.478 -0.0181 -0.0505 -0.2227
48299W        W91216   9.207  27.184  25.851 -0.1429 -0.1895  0.2111
48300W        W91217   8.062  25.807  28.882 -0.1288 -0.2382  0.2482
48301W        W91218   9.083  26.399  26.802 -0.3441 -0.0778  0.1285
48302W        W91219   9.700  28.625  23.978 -0.0141  0.0944  0.0716
48303W        W91220   9.380  24.901  24.454 -0.0076  0.0411  0.2087
48304W        W91221  10.258  27.228  24.121  0.0390 -0.0562  0.0279
48305W        W91222   9.164  29.581  23.668 -0.2031 -0.2480  0.2786
48306W        W91223   7.257  28.263  25.011  0.2307 -0.1089  0.2219
48307W        W91224  12.387  25.012  25.373 -0.2537 -0.0170  0.0699
48308W        W91225  10.514  27.605  21.441  0.1871 -0.0672  0.1312
48309W        W91226   9.383  28.444  26.412 -0.0751  0.0002 -0.2785
48310W        W91227  11.368  28.314  24.988 -0.0307 -0.2527  0.1824
48311W        W91228   8.711  26.623  26.990 -0.2918  0.3554  0.0469
48312W        W91229   7.820  26.409  25.813  0.1041  0.2741  0.1244
48313W        W91230   6.496  28.132  24.516  0.2372 -0.0714 -0.0502
48314W        W91231   7.542  28.083  25.582  0.2051  0.0746  0.1453
48315W        W91232   8.727  26.275  25.658  0.1444  0.0578  0.0477
48316W        W91233  12.654  28.530  25.782 -0.0860  0.1002  0.1015
48317W        W91234  10.668  28.407  23.995  0.1134 -0.2423  0.0544
48318W        W91235   8.737  27.246  25.619 -0.2349 -0.0424 -0.2145
48319W        W91236  10.326  27.001  25.982 -0.0488 -0.1257 -0.3551
48320W        W91237  11.439  28.835  25.752 -0.2603 -0.3210  0.0363
48321W        W91238  11.534  27.156  24.153  0.1818 -0.3794 -0.0902
48322W        W91239   5.902  27.182  24.445 -0.3180 -0.2797  0.3379
48323W        W91240  11.238  27.407  23.873  0.2187 -0.2126  0.2476
48324W        W91241   8.063  29.287  22.799  0.0071 -0.0732  0.1532
48325W        W91242   7.529  25.754  25.705  0.0786 -0.0327 -0.1833
48326W        W91243  10.527  31.047  23.281 -0.0580  0.0130 -0.2000
48327W        W91244   9.906  26.923  24.728  0.0998 -0.1386  0.1420
48328W        W91245   8.164  27.505  27.687  0.0798 -0.0194 -0.2948
48329W        W91246  10.528  27.975  26.100 -0.1363  0.1204 -0.1568
48330W        W91247   7.602  26.537  24.359  0.0854  0.2606  0.1220
48331W        W91248   7.691  29.530  25.976  0.2500  0.0249  0.0167
48332W        W91249  11.381  27.249  23.096 -0.0737  0.2420 -0.2923
48333W        W91250   9.882  24.733  23.703 -0.1456 -0.1216 -0.0166
48334W        W91251  10.118  28.384  27.251 -0.1029  0.0853  0.0351
48335W        W91252  12.414  29.103  24.189 -0.2454  0.0223  0.0059
48336W        W91253  10.643  25.967  22.034 -0.0643 -0.5347  0.2224
48337W        W91254   9.912  25.830  23.405 -0.2022  0.3203  0.0428
48338W        W91255   7.461  26.641  26.155 -0.3320 -0.3009  0.0441
48339W        W91256  11.826  27.460  23.399 -0.0763  0.2057 -0.1592
48340W        W91257   7.566  29.053  25.126  0.3837  0.2543  0.0449
48341W        W91258   9.212  27.069  24.190  0.0755 -0.1260 -0.0023
48342W        W91259  11.117  28.361  23.184  0.0180  0.2092 -0.1392
48343W        W91260   7.740  29.694  22.737 -0.0099 -0.1583 -0.1294
48344W        W91261   8.605  28.863  27.087 -0.1536 -0.0176 -0.1761
48345W        W91262  10.738  29.484  23.626  0.2124  0.0123  0.0607
48346W        W91263   8.546  25.768  25.716 -0.3722 -0.1253  0.0181
48347W        W91264   7.839  26.601  24.863 -0.1100  0.0169  0.2092
48348W        W91265   8.145  27.556  26.313  0.1314 -0.0502 -0.2657
48349W        W91266   8.856  29.235  23.512 -0.0363 -0.1964 -0.0518
48350W        W91267  10.951  27.631  26.082 -0.2113  0.0759  0.0125
48351W        W91268   9.122  26.983  25.259  0.3347  0.1826  0.1953
48352W        W91269   9.330  24.922  26.705 -0.1381  0.2655  0.1089
48353W        W91270  10.022  27.236  26.822 -0.0955  0.0073  0.0760
48354W        W91271  10.777  25.911  22.815 -0.2321  0.1701  0.0340
48355W        W91272  10.747  27.161  25.199 -0.1354  0.2074  0.0083
48356W        W91273   7.280  27.830  25.204  0.0266 -0.1770 -0.0713
48357W        W91274   8.677  26.149  28.094 -0.4806  0.0701  0.1779
48358W        W91275   9.238  26.255  26.247 -0.1136 -0.0478  0.2026
48359W        W91276   8.878  29.275  26.936 -0.0790 -0.0001  0.2544
48360W        W91277   9.810  29.292  26.991 -0.0712 -0.0398 -0.1490
48361W        W91278  10.695  27.196  24.628  0.0147 -0.0281 -0.1993
48362W        W91279   9.071  25.891  27.635 -0.3451 -0.1590 -0.2721
48363W        W91280   9.123  25.975  23.644  0.1297  0.1227 -0.0049
48364W        W91281   7.845  28.906  22.564  0.0706 -0.2693  0.3522
48365W        W91282   5.981  27.586  23.063 -0.2607  0.0601 -0.1378
48366W        W91283   8.196  26.115  26.498  0.2897 -0.3640 -0.1870
48367W        W91284  10.007  27.907  23.247  0.0245  0.1405  0.1718
48368W        W91285   8.848  29.507  22.867 -0.1711  0.0028 -0.0749
48369W        W91286   9.307  27.529  26.663  0.0273  0.1132 -0.3353
48370W        W91287   9.452  30.007  23.451 -0.0380  0.2910 -0.1119
48371W        W91288   8.227  26.584  25.445 -0.0113 -0.1462 -0.0871
48372W        W91289   7.955  28.590  26.352 -0.0986 -0.1683 -0.1387
48373W        W91290   8.257  26.084  25.486 -0.0907  0.2261 -0.0211
48374W        W91291   5.409  26.608  23.927  0.0558  0.2748 -0.0729
48375W        W91292  10.042  26.401  25.460 -0.1290 -0.0336  0.1916
48376W        W91293   9.815  27.125  23.547 -0.0472 -0.1340 -0.1210
48377W        W91294   9.106  26.783  26.193 -0.1052  0.1408 -0.0659
48378W        W91295   9.501  25.773  26.160 -0.0973  0.3298 -0.0412
48379W        W91296   6.909  27.344  25.652 -0.2952  0.3623 -0.2673
48380W        W91297   8.938  27.096  27.149 -0.0920  0.0864  0.1591
48381W        W91298   9.634  27.301  24.508  0.1419  0.0936 -0.0337
48382W        W91299  10.412  27.174  26.436  0.3280 -0.1806  0.1182
48383W        W91300   9.537  26.223  25.276 -0.1252 -0.0206 -0.2240
48384W        W91301   7.431  26.889  25.005 -0.4253  0.1773 -0.3039
48385W        W91302  11.063  27.537  27.801  0.0931  0.1756  0.1274
48386W        W91303   9.936  27.622  24.215  0.1030  0.0954  0.2574
48387W        W91304   7.955  27.373  23.057 -0.0793  0.0950  0.1672
48388W        W91305  12.904  27.678  24.026  0.1065  0.0651  0.0859
48389W        W91306   9.203  25.947  24.296 -0.0764  0.1874  0.1464
48390W        W91307   8.660  28.254  25.345  0.2057  0.0193 -0.2358
48391W        W91308   6.288  28.733  25.910  0.0771  0.1660  0.2017
48392W        W91309   9.942  27.939  26.015 -0.2728  0.3083 -0.0053
48393W        W91310   7.372  25.123  24.705 -0.1317  0.1082 -0.0244
48394W        W91311   5.779  24.416  24.636  0.1287  0.1284  0.0794
48395W        W91312   8.551  28.961  24.736  0.2115  0.0313  0.1385
48396W        W91313  10.853  27.872  24.925  0.2477  0.2662 -0.1918
48397W        W91314   6.526  26.363  26.695 -0.3417  0.1028  0.0280
48398W        W91315   6.822  28.146  26.726 -0.2938 -0.0283  0.2421
48399W        W91316  10.289  25.478  25.830  0.2193  0.0945 -0.1932
48400W        W91317  10.527  29.233  23.128  0.1276  0.0972  0.1623
48401W        W91318   9.260  28.472  27.534 -0.0865  0.0463  0.1675
48402W        W91319   8.718  26.260  24.571 -0.0480  0.0095 -0.0159
48403W        W91320   7.182  28.093  27.163  0.0739 -0.1791 -0.3706
48404W        W91321  10.390  27.667  23.916  0.0388 -0.0076 -0.1769
48405W        W91322  10.973  26.961  27.358  0.1443  0.0794 -0.2081
48406W        W91323   7.439  28.867  24.379  0.0972  0.1941  0.0449
48407W        W91324   9.449  27.735  23.466  0.1801  0.3865  0.4643
48408W        W91325   9.418  28.145  25.151  0.1405  0.2511  0.0489
48409W        W91326  11.331  26.520  22.583 -0.1243  0.1306 -0.0686
48410W        W91327   8.352  27.821  24.176 -0.0395 -0.0002 -0.0668
48411W        W91328   9.273  26.157  25.699  0.0923 -0.0790  0.1040
48412W        W91329  12.156  26.759  28.050  0.3540 -0.1144 -0.2340
48413W        W91330  10.371  27.790  22.255  0.1875  0.1402  0.1697
48414W        W91331   8.113  24.523  29.779 -0.0955 -0.0829  0.0766
48415W        W91332   8.076  25.304  26.079 -0.1793 -0.1345 -0.0116
48416W        W91333  12.081  26.302  24.509 -0.0863  0.1744 -0.1851
48417W        W91334   8.643  26.685  26.473  0.0340  0.3635  0.0948
48418W        W91335  10.664  29.397  26.483 -0.1276  0.2482  0.0334
48419W        W91336   7.291  27.983  26.028  0.0184  0.0887 -0.0277
48420W        W91337  10.211  26.193  23.374 -0.3493  0.0405  0.0891
48421W        W91338   7.857  28.015  25.114 -0.0628  0.0709 -0.0072
48422W        W91339   7.996  28.384  27.518 -0.3230 -0.1846 -0.0192
48423W        W91340  12.210  26.633  25.409  0.1450  0.0296 -0.0632
48424W        W91341  10.126  28.369  24.792  0.0006  0.1573 -0.3171
48425W        W91342   9.572  27.105  25.020  0.1459 -0.0028  0.0926
48426W        W91343   8.671  28.196  25.863  0.1022  0.1384  0.2205
48427W        W91344  13.878  25.851  23.653  0.4019 -0.2195 -0.0442
48428W        W91345   7.770  28.251  26.048  0.0996 -0.3535 -0.1621
48429W        W91346   9.522  26.718  23.394 -0.1353 -0.1445  0.0391
48430W        W91347   8.172  24.713  27.328  0.2405  0.3616  0.1655
48431W        W91348  10.923  27.465  24.282  0.0522  0.0085 -0.2812
48432W        W91349   8.497  25.482  24.794  0.0806  0.0048  0.1346
48433W        W91350  10.347  24.745  26.738  0.0004  0.1068 -0.1848
48434W        W91351   9.835  26.158  25.851  0.0934  0.0446  0.0342
48435W        W91352  10.179  27.274  28.309  0.2031  0.1392  0.1141
48436W        W91353   6.793  26.468  25.557  0.2486 -0.1041 -0.0717
48437W        W91354  11.366  29.230  26.432 -0.1953  0.2265 -0.0642
48438W        W91355  11.906  27.399  23.916  0.0571 -0.3241 -0.0746
48439W        W91356  11.836  25.992  27.580 -0.0755  0.0590  0.1453
48440W        W91357  11.299  26.018  25.644 -0.1036  0.3391 -0.0013
48441W        W91358   9.302  27.259  21.792 -0.0525  0.3209 -0.2467
48442W        W91359   6.271  27.142  24.100  0.0368 -0.0695 -0.0355
48443W        W91360   9.658  26.609  28.027 -0.0685 -0.2239 -0.1468
48444W        W91361   7.361  27.241  22.844  0.0128  0.0061  0.2144
48445W        W91362   8.027  26.541  27.357  0.0830 -0.1480 -0.2382
48446W        W91363  10.817  29.706  24.600 -0.3552  0.0155  0.1024
48447W        W91364   9.640  28.189  24.284 -0.0969  0.0491  0.0162
48448W        W91365   8.565  27.278  26.130 -0.0250  0.3307 -0.0211
48449W        W91366   5.893  27.958  25.092  0.3208 -0.0285 -0.1873
48450W        W91367   8.704  28.886  24.229  0.1515  0.1812  0.1219
48451W        W91368   9.143  27.352  24.795  0.0753  0.0702 -0.0197
48452W        W91369  10.137  28.283  22.082  0.2516 -0.0038 -0.0257
48453W        W91370  10.502  28.721  25.334  0.0757  0.2334 -0.0765
48454W        W91371  10.904  27.242  25.767  0.0628  0.2586 -0.1488
48455W        W91372   9.833  25.330  25.359 -0.1814 -0.5134 -0.0359
48456W        W91373  11.828  24.152  27.793 -0.1556 -0.0888 -0.1189
48457W        W91374   6.922  28.860  23.199  0.0001 -0.0713  0.1252
48458W        W91375   9.999  26.594  26.191 -0.1337 -0.2003 -0.3705
48459W        W91376   9.780  29.826  25.314  0.4323 -0.0010  0.0836
48460W        W91377   8.121  29.114  23.476  0.0930  0.0628 -0.2011
48461W        W91378   9.904  29.059  25.997  0.4042 -0.1895 -0.1097
48462W        W91379  10.439  26.600  26.382 -0.1518 -0.3244 -0.2749
48463W        W91380  10.688  24.903  25.363 -0.1720  0.1851  0.1416
48464W        W91381   7.685  28.035  27.189  0.1766  0.2926  0.2434
48465W        W91382  10.359  27.509  27.115 -0.0691  0.0421 -0.0239
48466W        W91383   9.312  29.905  25.516  0.0283 -0.2063 -0.1620
48467W        W91384   7.951  26.950  25.807 -0.4842 -0.3420  0.1022
48468W        W91385   9.432  29.421  24.951  0.0373  0.0634 -0.0449
48469W        W91386  10.911  26.640  24.438 -0.1778 -0.1813 -0.0330
48470W        W91387   8.461  29.670  24.246  0.1398 -0.1560 -0.2329
48471W        W91388   7.779  27.223  26.193 -0.0507 -0.1788 -0.0428
48472W        W91389   9.113  27.992  25.570  0.1482  0.2173 -0.0243
48473W        W91390  11.226  27.439  25.374 -0.1416  0.0051 -0.1325
48474W        W91391   6.368  27.235  25.445  0.1745 -0.0273  0.1912
48475W        W91392   8.313  30.311  24.382  0.1137  0.3047  0.1169
48476W        W91393   8.332  27.583  26.817 -0.1207 -0.1380 -0.0241
48477W        W91394   8.659  29.750  24.700 -0.2255 -0.1241 -0.2130
48478W        W91395   8.397  29.658  23.324  0.3311 -0.1028  0.3370
48479W        W91396   9.412  30.788  21.883 -0.1770 -0.1323 -0.1651
48480W        W91397  10.409  27.048  23.555 -0.0687 -0.2130 -0.0718
48481W        W91398  11.359  28.014  27.718  0.1178 -0.0583 -0.3810
48482W        W91399   9.932  27.373  23.171  0.1390  0.2645 -0.5240
48483W        W91400   8.322  28.748  23.874 -0.0197  0.2194  0.4967
48484W        W91401   6.559  29.645  22.985  0.0732 -0.0193  0.3286
48485W        W91402  11.362  28.044  24.540  0.2967 -0.2026 -0.2161
48486W        W91403   8.209  30.022  23.982  0.1833 -0.1162  0.2690
48487W        W91404  12.113  27.704  26.546 -0.0493 -0.0728 -0.0318
48488W        W91405   9.673  26.061  24.634  0.0116  0.3554 -0.0091
48489W        W91406  10.790  28.730  24.423  0.1416 -0.1887  0.1528
48490W        W91407  12.033  29.184  23.885 -0.1380 -0.0917 -0.3042
48491W        W91408  11.115  28.903  27.691  0.3579  0.3051 -0.2599
48492W        W91409   8.813  28.764  23.733  0.2681 -0.1077  0.1715
48493W        W91410   6.273  26.794  24.585  0.2014  0.3020  0.1649
48494W        W91411  10.459  27.500  26.043 -0.0373  0.0586  0.1664
48495W        W91412  11.655  26.011  29.593  0.3279  0.1684  0.0812
48496W        W91413   7.398  28.990  27.269  0.0849 -0.0034  0.1451
48497W        W91414   6.990  28.726  24.034  0.0825 -0.4057  0.0610
48498W        W91415   7.471  27.218  24.551 -0.1059  0.0606 -0.0371
48499W        W91416   8.705  28.366  24.000 -0.2159  0.0047 -0.1078
48500W        W91417  11.197  24.388  27.820 -0.0134 -0.2496  0.0656
48501W        W91418   9.090  28.815  22.454  0.0035 -0.0739  0.1646
48502W        W91419  10.897  27.247  23.360 -0.3222 -0.0355  0.0555
48503W        W91420   9.929  30.891  24.846 -0.1321 -0.0532  0.3378
48504W        W91421   7.995  28.879  24.830 -0.3924 -0.1140 -0.3076
48505W        W91422   8.249  28.449  25.971  0.0630  0.0524 -0.0491
48506W        W91423   7.019  26.108  22.786 -0.0376  0.0779 -0.0515
48507W        W91424  10.429  26.518  23.696  0.0205  0.2160  0.1285
48508W        W91425  11.737  27.360  25.220 -0.2263 -0.0352  0.1046
48509W        W91426  10.311  23.934  25.845 -0.1808 -0.0236  0.2330
48510W        W91427   7.575  28.564  24.788  0.1069  0.1716  0.4028
48511W        W91428  11.562  27.571  24.525  0.0381  0.1428 -0.0774
48512W        W91429  11.290  27.824  24.124 -0.4664 -0.4525  0.2067
48513W        W91430   7.566  25.300  26.117  0.1142 -0.1499 -0.2227
48514W        W91431   8.799  29.116  22.022 -0.0404  0.0853  0.0090
48515W        W91432  11.359  27.823  27.259 -0.0492 -0.2275 -0.0201
48516W        W91433   9.530  27.448  21.090  0.1411  0.1848 -0.4045
48517W        W91434   9.784  28.372  26.674  0.2918 -0.3273 -0.1408
48518W        W91435   6.379  24.280  26.000 -0.0386 -0.0164  0.0907
48519W        W91436   9.545  27.970  26.403 -0.1142 -0.0158 -0.2385
48520W        W91437   4.897  28.175  25.777 -0.2617  0.4240 -0.1208
48521W        W91438   9.010  28.522  25.097 -0.1971 -0.2036  0.2239
48522W        W91439  11.533  29.964  26.287  0.1610  0.0043  0.1728
48523W        W91440   7.295  26.127  24.451  0.0571  0.0804 -0.0159
48524W        W91441  11.285  29.555  24.401  0.1491  0.0529 -0.0205
48525W        W91442  12.380  25.127  28.035 -0.2459 -0.1035  0.0696
48526W        W91443   8.591  30.127  23.750 -0.1290  0.0393 -0.0685
48527W        W91444  12.422  26.504  24.249 -0.0453 -0.3194  0.4824
48528W        W91445  11.667  30.513  25.114  0.1183 -0.2636 -0.0986
48529W        W91446   7.739  28.534  25.270 -0.1423 -0.0521 -0.1313
48530W        W91447   9.372  30.651  27.438 -0.1241 -0.1159  0.2090
48531W        W91448  11.458  27.832  25.138  0.0211 -0.4068  0.0270
48532W        W91449  10.383  26.798  24.543 -0.0034  0.1319  0.0638
48533W        W91450   8.046  26.223  25.092  0.0472 -0.0255  0.0187
48534W        W91451   7.733  28.497  24.228  0.2482 -0.0729  0.4345
48535W        W91452  10.378  26.809  25.457  0.1937 -0.0644  0.0372
48536W        W91453  12.570  24.645  27.365 -0.0868 -0.1671 -0.0250
48537W        W91454  10.406  27.532  23.388 -0.0921  0.1459 -0.1872
48538W        W91455  12.621  25.461  28.275 -0.2692  0.0629 -0.4489
48539W        W91456  10.881  28.987  25.800  0.1256  0.1046  0.2666
48540W        W91457   7.893  28.590  29.013 -0.0555  0.4061  0.2520
48541W        W91458   7.086  27.368  24.265 -0.0917  0.0357 -0.2469
48542W        W91459   8.689  26.806  25.303  0.1497  0.1658  0.4433
48543W        W91460   7.069  28.199  25.506 -0.1585  0.1562 -0.1118
48544W        W91461   9.163  28.601  23.162 -0.1009  0.1548 -0.3470
48545W        W91462  10.132  28.842  26.446 -0.1453  0.2243  0.0852
48546W        W91463   7.806  27.274  25.498  0.0019  0.0972 -0.0993
48547W        W91464  13.246  27.352  24.908  0.1242 -0.2930 -0.2296
48548W        W91465   8.312  26.504  24.769  0.0623  0.2209 -0.2287
48549W        W91466  10.522  24.710  24.192  0.0927  0.0879  0.2916
48550W        W91467   9.595  25.737  25.097 -0.0357  0.1004  0.0361
48551W        W91468  10.375  27.023  24.972  0.3442 -0.0627 -0.0633
48552W        W91469   7.626  28.163  23.814 -0.1740 -0.0214  0.1940
48553W        W91470   7.096  29.081  22.767 -0.0632  0.0254  0.1432
48554W        W91471   7.738  27.805  26.276  0.0406  0.1208 -0.2466
48555W        W91472   8.241  25.101  26.964 -0.0755  0.3650 -0.2112
48556W        W91473   9.653  27.794  25.495  0.0274  0.0292 -0.3196
48557W        W91474   5.154  28.900  25.761 -0.0211 -0.2201 -0.0848
48558W        W91475   7.824  27.325  26.709  0.0960  0.2119  0.2487
48559W        W91476  10.504  28.183  24.496  0.0714 -0.0686 -0.2970
48560W        W91477   7.767  26.829  23.615 -0.1675 -0.1824 -0.1054
48561W        W91478   7.463  26.314  25.015  0.1647 -0.1066 -0.3954
48562W        W91479   9.010  29.092  24.958 -0.0070  0.1382 -0.2577
48563W        W91480   9.469  29.745  24.398  0.0548  0.1699  0.2669
48564W        W91481   8.947  27.447  24.048 -0.0745  0.1335 -0.1045
48565W        W91482  10.972  27.831  26.562 -0.1267 -0.0323 -0.2516
48566W        W91483   7.775  29.028  24.023 -0.1260 -0.0093 -0.0653
48567W        W91484  11.242  25.672  27.639 -0.2061 -0.1142  0.1275
48568W        W91485   9.688  27.026  26.116 -0.0660  0.3596  0.0878
48569W        W91486   6.596  26.069  22.504  0.1071 -0.2630  0.2190
48570W        W91487   9.498  26.713  25.499  0.1995 -0.0008 -0.2275
48571W        W91488   9.207  28.098  24.677  0.1865  0.1059  0.1948
48572W        W91489  10.651  29.242  25.435 -0.0914  0.1138  0.0749
48573W        W91490  11.618  27.865  26.573  0.2351 -0.3293  0.0654
48574W        W91491   8.060  28.198  25.548  0.0950  0.1346 -0.2235
48575W        W91492   9.820  25.392  25.947  0.2801  0.1091 -0.2250
48576W        W91493  12.304  27.352  23.514  0.0036 -0.3335  0.1307
48577W        W91494   9.610  28.899  26.444 -0.4181 -0.0309  0.0509
48578W        W91495  10.804  27.907  24.093 -0.4055 -0.2184 -0.0117
48579W        W91496  11.985  26.874  26.934  0.0816 -0.0297 -0.1074
48580W        W91497   8.196  26.869  23.849 -0.1538 -0.1476  0.1302
48581W        W91498   7.060  27.566  24.825 -0.1184  0.3722 -0.1391
48582W        W91499  10.444  27.284  25.557  0.3928 -0.1020 -0.2785
48583W        W91500  11.328  27.908  26.175 -0.2589 -0.1375  0.3549
48584W        W91501   8.733  27.774  25.339 -0.3148  0.0708 -0.3884
48585W        W91502   9.103  26.554  24.110  0.2764 -0.0077 -0.4409
48586W        W91503  10.074  26.721  24.143  0.2175 -0.0042 -0.0370
48587W        W91504   8.074  28.794  28.029  0.1342  0.2762 -0.1414
48588W        W91505   8.709  27.285  25.158  0.0588 -0.1958  0.1931
48589W        W91506   8.536  26.869  25.834  0.2143  0.0256  0.0795
48590W        W91507  10.015  27.943  24.576  0.0064  0.3786 -0.2981
48591W        W91508  10.541  29.819  26.086 -0.0663 -0.1936 -0.0973
48592W        W91509   9.624  27.655  24.870  0.1978 -0.1484 -0.1087
48593W        W91510   9.925  30.084  23.585 -0.1280 -0.0997 -0.0003
48594W        W91511  10.431  28.964  24.636 -0.1634  0.2328 -0.1083
48595W        W91512  11.830  30.012  25.766 -0.2624  0.3468  0.0710
48596W        W91513  10.188  29.270  25.581  0.0122 -0.2471 -0.4170
48597W        W91514  10.992  28.111  25.831  0.0102  0.2057 -0.0601
48598W        W91515   7.293  26.407  25.768  0.2168 -0.2093  0.2557
48599W        W91516   7.852  27.739  23.995 -0.0225 -0.0663 -0.2551
48600W        W91517   7.742  27.577  25.843 -0.4115  0.2713  0.5905
48601W        W91518  10.722  27.343  26.798  0.0977 -0.1489 -0.0412
48602W        W91519   8.211  26.017  27.029  0.1305  0.1164 -0.0745
48603W        W91520   8.958  24.981  25.343  0.0137 -0.0828  0.2736
48604W        W91521   7.837  28.325  26.792  0.0200 -0.2917  0.1365
48605W        W91522  12.046  28.790  25.002  0.1674  0.2862 -0.1398
48606W        W91523   8.880  25.379  29.901  0.0301 -0.0941  0.2617
48607W        W91524   8.965  27.524  28.752 -0.1945  0.4455 -0.1311
48608W        W91525  10.400  26.140  27.194  0.3571 -0.1058 -0.0635
48609W        W91526  10.240  27.525  28.752  0.0465 -0.3741  0.0201
48610W        W91527   6.348  24.820  25.904 -0.0771 -0.0556 -0.2127
48611W        W91528   8.413  29.740  27.838 -0.1475 -0.0300 -0.2071
48612W        W91529   7.874  22.984  29.259 -0.0802 -0.1485  0.1263
48613W        W91530  11.047  28.621  31.857 -0.1843 -0.1427 -0.0090
48614W        W91531  10.179  29.219  30.199  0.1004 -0.0528 -0.1227
48615W        W91532   8.673  26.917  29.502  0.1375  0.1655 -0.0126
48616W        W91533   9.513  25.708  30.390 -0.2945 -0.0172  0.2123
48617W        W91534  10.307  28.063  30.620 -0.0084  0.0118  0.0822
48618W        W91535  10.308  24.523  27.706 -0.4187 -0.0922 -0.1464
48619W        W91536   9.517  25.283  28.825  0.1446  0.2051  0.1059
48620W        W91537   9.735  26.854  29.918  0.3297 -0.0321 -0.0624
48621W        W91538   6.108  26.608  26.687 -0.0809  0.2624  0.0845
48622W        W91539   9.502  25.501  29.501  0.0346 -0.2372 -0.0331
48623W        W91540   9.557  26.101  27.783  0.0108  0.0851  0.1265
48624W        W91541   8.926  28.303  29.234  0.1167  0.0613 -0.1486
48625W        W91542   9.190  23.711  28.901  0.3181  0.0330 -0.1512
48626W        W91543  10.807  26.000  29.070  0.2655  0.0200  0.0974
48627W        W91544   8.904  28.130  30.213 -0.4084  0.0231  0.1178
48628W        W91545   6.960  28.035  28.041  0.0173  0.0351  0.2324
48629W        W91546   6.480  23.725  28.363 -0.3181  0.1400 -0.0978
48630W        W91547   6.891  25.643  30.185  0.1331 -0.0232 -0.0271
48631W        W91548   8.998  25.858  30.395 -0.0817  0.1594 -0.0092
48632W        W91549   9.402  28.983  30.165  0.0094  0.2083 -0.0886
48633W        W91550   9.065  30.004  29.800 -0.0026 -0.0997  0.1410
48634W        W91551   8.878  26.666  27.985  0.1798  0.3177  0.1325
48635W        W91552  10.986  25.302   0.084  0.0332  0.4036 -0.0597
48636W        W91553   7.648  26.129  27.968  0.1526  0.0181  0.1911
48637W        W91554   8.340  29.992  28.805 -0.5000  0.1487  0.0698
48638W        W91555  10.392  27.687  26.540 -0.0783  0.0357 -0.1215
48639W        W91556  11.375  26.131  27.430 -0.1390  0.1185  0.0423
48640W        W91557  10.278  27.428  30.453  0.0269  0.1008  0.1482
48641W        W91558   9.184  28.316   0.723 -0.0406 -0.2165  0.1097
48642W        W91559   7.460  28.290  29.545  0.1762 -0.1429  0.2172
48643W        W91560   9.509  27.767  31.066 -0.2089 -0.0148 -0.0496
48644W        W91561   6.930  26.481  31.704 -0.2622  0.0126 -0.1787
48645W        W91562   7.903  26.230  30.822  0.2462  0.3118 -0.1611
48646W        W91563   9.564  28.175  28.374  0.0962  0.2772 -0.2307
48647W        W91564   9.382  27.896  27.570  0.3957  0.0026  0.2756
48648W        W91565   9.403  26.988  29.183 -0.0407  0.3524 -0.0385
48649W        W91566   8.019  27.152  31.405 -0.0962  0.1301  0.0339
48650W        W91567   7.856  28.093  31.867 -0.2936  0.1498 -0.2619
48651W        W91568  10.785  27.530   1.109  0.4629 -0.2531 -0.1682
48652W        W91569   8.180  28.692  25.375  0.1062  0.0585 -0.1906
48653W        W91570  10.381  24.903  27.987  0.0487 -0.2864 -0.0210
48654W        W91571   9.792  27.691  26.755 -0.2766 -0.2868  0.0685
48655W        W91572  11.337  26.898  28.517 -0.0149  0.0254 -0.0873
48656W        W91573   8.845  24.238  29.443 -0.3201  0.0211  0.0882
48657W        W91574   9.053  29.359  28.419  0.1490  0.2975  0.1624
48658W        W91575   9.046  25.562  28.692  0.0740 -0.0807  0.1122
48659W        W91576   9.763  26.908  31.375  0.2028 -0.1264  0.5108
48660W        W91577  10.909  26.856  27.911 -0.0663 -0.0438  0.2700
48661W        W91578  11.128  27.786  28.453 -0.1237 -0.0129  0.2309
48662W        W91579   8.388  30.807  30.723 -0.3689 -0.0814 -0.0686
48663W        W91580   6.077  23.040  28.221  0.3516  0.1341 -0.1847
48664W        W91581  11.940  27.132  26.304 -0.1589  0.0655 -0.0571
48665W        W91582  11.437  29.008  30.177 -0.1232 -0.0275  0.0312
48666W        W91583  10.419  28.083  27.478 -0.2144  0.2563 -0.2909
48667W        W91584   8.196  26.007  27.633  0.3117  0.2956  0.0530
48668W        W91585   9.206  27.481  30.829 -0.0319  0.1173 -0.1240
48669W        W91586   8.552  26.408  29.573  0.3100  0.0894  0.1221
48670W        W91587   7.909  25.685  27.909  0.2388 -0.1583  0.1109
48671W        W91588  12.383  28.896  29.483 -0.0011  0.0629  0.1596
48672W        W91589   8.967  29.096  30.445  0.0355  0.0601 -0.1171
48673W        W91590  10.107  25.947  29.411  0.0015  0.0454  0.1149
48674W        W91591   9.970  27.191  27.402 -0.1705  0.0991  0.1024
48675W        W91592   9.953  28.779  31.284 -0.0520 -0.2116  0.0444
48676W        W91593  11.854  27.794  27.083  0.3146  0.1898  0.3167
48677W        W91594  10.777  24.546  28.116 -0.0948  0.2663  0.0202
48678W        W91595   8.962  26.490  29.780  0.2043 -0.1265 -0.3168
48679W        W91596   9.735  26.174  26.323 -0.0574 -0.0833  0.1030
48680W        W91597   8.458  27.385  27.235 -0.1844 -0.1121 -0.1211
48681W        W91598  10.105  28.475  29.939  0.1602 -0.1018  0.3899
48682W        W91599  11.820  25.962  29.186  0.2702  0.0191  0.1616
48683W        W91600   8.228  28.538  29.771 -0.0659  0.0798 -0.4040
48684W        W91601   8.068  26.758  30.161 -0.1382  0.1475  0.1415
48685W        W91602   8.277  27.177  30.908  0.1153  0.2062  0.2335
48686W        W91603   8.439  28.254  27.729  0.1345  0.2547 -0.0250
48687W        W91604   6.831  25.620  28.856  0.1871  0.0997 -0.4409
48688W        W91605   7.285  27.626  27.177 -0.3489  0.2128  0.2105
48689W        W91606   7.236  25.295  30.373  0.3338 -0.0413 -0.0866
48690W        W91607   7.605  27.007  28.473 -0.0660 -0.1176  0.1433
48691W        W91608   9.772  26.479  27.556  0.0008 -0.2661 -0.2848
48692W        W91609   8.119  24.841  28.729 -0.0559  0.0062  0.0126
48693W        W91610  10.955  26.471  28.877 -0.1086  0.0531 -0.0439
48694W        W91611   7.503  26.709  28.078 -0.1120 -0.3596  0.3351
48695W        W91612   7.332  28.690  29.091  0.2371 -0.0070 -0.3253
48696W        W91613  11.125  24.707  29.502 -0.0689 -0.0474 -0.0653
48697W        W91614   9.336  26.746  27.164  0.0205  0.1182  0.0199
48698W        W91615   5.684  26.997  30.291 -0.3168  0.1625  0.0540
48699W        W91616   9.497  24.998  29.212 -0.3377 -0.0437 -0.0619
48700W        W91617   7.532  25.315  29.341  0.1793  0.1651  0.3032
48701W        W91618   8.415  26.163  29.124  0.3669  0.0894 -0.0153
48702W        W91619  11.537  28.418  31.684 -0.2825  0.0031  0.2091
48703W        W91620   6.832  25.506  28.276 -0.0031 -0.0897  0.0033
48704W        W91621  11.010  28.857  28.593 -0.0631  0.5895 -0.2559
48705W        W91622   9.458  26.660  30.548  0.2679 -0.3476 -0.1427
48706W        W91623   8.340  28.032  29.293 -0.1544  0.0631 -0.2426
48707W        W91624   9.699  26.566   1.103 -0.3107 -0.1472 -0.2971
48708W        W91625   8.599  27.784  26.350 -0.0712  0.1541 -0.1058
48709W        W91626  10.081  30.093  30.007  0.1962  0.0551 -0.0364
48710W        W91627  10.756  27.879  26.990 -0.3099 -0.2190  0.2634
48711W        W91628   7.214  24.926  30.007  0.0248  0.1494  0.1115
48712W        W91629   8.032  26.203  28.220  0.1279 -0.0448  0.1245
48713W        W91630   7.815  31.128  28.067 -0.0720 -0.2066  0.1007
48714W        W91631   8.917  27.097  30.218  0.4237 -0.1827 -0.0897
48715W        W91632  10.564  25.865  29.530 -0.1521  0.1865  0.2654
48716W        W91633  11.232  29.123  30.662  0.1242 -0.0448  0.2056
48717W        W91634   9.857  26.801  27.122 -0.5278 -0.2289  0.0643
48718W        W91635   7.505  30.378  29.250  0.0734  0.0092 -0.2611
48719W        W91636   9.819  26.744  30.872  0.1585 -0.0449  0.1966
48720W        W91637   9.920  28.195  30.292  0.1992 -0.2715 -0.1663
48721W        W91638   9.268  27.106  28.126  0.0876 -0.0834  0.2780
48722W        W91639   8.208  25.603  26.438  0.1814 -0.0382 -0.0545
48723W        W91640   8.933  29.626  30.363  0.1813 -0.1059  0.1702
48724W        W91641   7.606  28.891  28.157  0.1227  0.2821  0.1859
48725W        W91642   7.030  25.026  28.350  0.0418  0.0219 -0.0252
48726W        W91643   9.689  28.574  30.930  0.1486  0.3589  0.1542
48727W        W91644  11.840  27.000  28.531 -0.2780 -0.0367  0.1075
48728W        W91645   6.894  27.103  31.660 -0.2023 -0.0680  0.0954
48729W        W91646   9.017  27.169  31.299  0.4338 -0.2106  0.0762
48730W        W91647  10.442  26.012  25.704 -0.0487 -0.0377 -0.0698
48731W        W91648   7.681  29.698  30.021 -0.0640 -0.2303 -0.1314
48732W        W91649  12.266  25.583  27.576 -0.2194 -0.0020  0.2169
48733W        W91650  10.018  28.300  28.008 -0.2905  0.0632  0.1082
48734W        W91651  10.180  28.379  31.016  0.1642  0.0342 -0.4054
48735W        W91652  11.728  29.434  28.200  0.1122 -0.2276  0.3038
48736W        W91653   8.750  25.590  26.887 -0.3700 -0.3430 -0.1210
48737W        W91654   8.507  25.632  29.177  0.1608  0.2089  0.1312
48738W        W91655   9.230  27.995  30.592  0.1261  0.1219 -0.2793
48739W        W91656  10.053  26.869  27.795  0.0040  0.0356 -0.0793
48740W        W91657   9.706  27.285  30.951 -0.2367 -0.2260  0.1522
48741W        W91658   9.068  25.945  27.088  0.2554  0.2476 -0.0727
48742W        W91659  10.438  27.925  28.001 -0.0512  0.0662  0.1220
48743W        W91660   6.565  28.580  30.413  0.1130 -0.0461  0.1075
48744W        W91661  10.518  25.419   0.863  0.0413 -0.1636  0.2959
48745W        W91662   9.890  28.850  29.455 -0.3734  0.2317 -0.3074
48746W        W91663   8.535  26.786  29.970 -0.1290 -0.1080 -0.4579
48747W        W91664  11.109  26.995  26.895  0.1661 -0.0873 -0.1744
48748W        W91665  10.161  26.217  28.451  0.1891  0.4589  0.0045
48749W        W91666   7.084  28.439  28.605 -0.0619  0.2462 -0.0272
48750W        W91667  10.045  27.879  31.017  0.1687  0.2992  0.1965
48751W        W91668   9.506  24.424  26.583  0.1948  0.0736 -0.3663
48752W        W91669  10.393  25.372  28.428 -0.1529 -0.1642  0.3273
48753W        W91670  12.070  27.195  30.759 -0.3691  0.0599  0.0416
48754W        W91671   9.474  27.736  28.050  0.0021  0.0012 -0.0617
48755W        W91672   9.799  25.572  29.124  0.0418  0.0002  0.0829
48756W        W91673   9.476  26.082  26.755  0.0590  0.0849 -0.1173
48757W        W91674  10.131  25.123  31.307 -0.1765 -0.2276  0.2267
48758W        W91675   8.468  25.983  30.532 -0.0556 -0.1521 -0.2922
48759W        W91676   9.415  28.155  30.151  0.0960  0.4180 -0.1919
48760W        W91677   9.242  28.361  30.974  0.0420  0.0581 -0.1057
48761W        W91678  11.420  27.397  26.335  0.4318 -0.1488 -0.0213
48762W        W91679   9.639  25.933  30.905 -0.1919 -0.0808 -0.1147
48763W        W91680  11.412  24.083  28.240 -0.0155  0.1014  0.1101
48764W        W91681   8.922  28.717  28.880 -0.1302  0.1552 -0.0937
48765W        W91682   8.976  27.540  27.420 -0.2177 -0.0635 -0.0506
48766W        W91683   8.476  25.081  29.251  0.1413  0.1543  0.0305
48767W        W91684   8.368  27.211  30.080 -0.4364  0.1286  0.1285
48768W        W91685   9.624  29.051  27.444 -0.2101 -0.1525 -0.1943
48769W        W91686  10.670  27.560  28.975 -0.0855 -0.0849  0.2549
48770W        W91687   8.986  28.082  28.761 -0.0221  0.0729  0.3073
48771W        W91688  10.948  25.905  30.627 -0.0843  0.1247 -0.1202
48772W        W91689   7.862  28.170  30.519  0.2906 -0.0930 -0.1007
48773W        W91690   9.278  25.577  28.065 -0.3224 -0.0339  0.0775
48774W        W91691   8.596  25.883  27.338  0.0736  0.0167 -0.2583
48775W        W91692  10.555  26.366  29.360 -0.0705  0.1013 -0.0167
48776W        W91693   9.811  27.832  28.741 -0.1793  0.3461  0.0959
48777W        W91694   7.340  24.589  29.128 -0.2433 -0.1663 -0.2434
48778W        W91695   8.320  25.827  28.151 -0.2415 -0.3242  0.1907
48779W        W91696   8.224  29.541  27.428  0.1931  0.0946 -0.1373
48780W        W91697   9.101  28.076  27.176 -0.0735  0.0238  0.0603
48781W        W91698  12.155  24.029  28.693 -0.1146 -0.0043  0.0650
48782W        W91699  10.211  28.631   0.474 -0.2389 -0.2188  0.1574
48783W        W91700   7.444  26.384  31.510  0.2495 -0.0521 -0.1238
48784W        W91701   7.847  26.071  27.333  0.0789  0.2296  0.0460
48785W        W91702   9.392  25.894  28.456  0.2424 -0.1378  0.2001
48786W        W91703   8.172  26.865  29.631 -0.0986 -0.1058  0.2820
48787W        W91704   8.933  28.966  28.102 -0.0648 -0.0107  0.4231
48788W        W91705   9.592  26.897   0.271  0.2921  0.0438 -0.1226
48789W        W91706   8.959  28.478  28.445  0.0583 -0.0933  0.0344
48790W        W91707   8.350  26.961  26.954  0.0931 -0.0004 -0.0312
48791W        W91708   8.098  25.288  31.058 -0.1912 -0.0510 -0.0544
48792W        W91709  10.117  29.484  28.293  0.0122 -0.0147  0.0531
48793W        W91710   9.251  25.666  29.960 -0.3635  0.0170  0.1847
48794W        W91711   8.940  26.097  28.492 -0.1088  0.0081  0.0409
48795W        W91712   9.217  24.511  29.739 -0.2186 -0.3286  0.1997
48796W        W91713   8.963  29.051  29.880  0.1391 -0.0912  0.0551
48797W        W91714   9.570  26.591   0.622  0.3549  0.2175  0.2884
48798W        W91715   9.379  27.891  31.544  0.0732 -0.1285 -0.2181
48799W        W91716   9.505  28.243  27.891  0.1150 -0.1707  0.0715
48800W        W91717  11.373  29.461  30.321 -0.3489  0.1673 -0.1453
48801W        W91718  10.170  27.539  31.854  0.2850 -0.0141  0.0680
48802W        W91719   8.185  27.950  25.953  0.0872  0.2679 -0.0621
48803W        W91720   7.848  27.283  29.894  0.1606  0.1125 -0.3284
48804W        W91721   9.079  27.998  28.181  0.2274  0.0015 -0.1425
48805W        W91722  10.041  25.475  30.245  0.0912  0.0395  0.0189
48806W        W91723   8.394  28.986  30.146 -0.0863 -0.0967  0.1667
48807W        W91724   9.557  27.329  28.480 -0.1453  0.0766  0.3130
48808W        W91725   7.925  25.633  29.917  0.1281  0.2738  0.1357
48809W        W91726  11.732  25.795  30.245  0.0521  0.3580 -0.3046
48810W        W91727   8.606  28.284  26.452  0.1813  0.2268 -0.0779
48811W        W91728   8.971  24.518  28.488 -0.0384  0.1253  0.1229
48812W        W91729  10.851  25.506  28.404  0.1058 -0.1077  0.0648
48813W        W91730   9.981  28.362  29.444 -0.2329 -0.1962 -0.1242
48814W        W91731  10.685  27.984   1.166  0.1320  0.1339 -0.3979
48815W        W91732   9.367  23.458  29.526 -0.1500  0.0429 -0.0922
48816W        W91733   9.717  29.363  29.921 -0.0462  0.1105 -0.1779
48817W        W91734   6.064  24.461  30.230 -0.2248  0.0374  0.2892
48818W        W91735   9.026  27.610   1.516  0.2063 -0.0832  0.2451
48819W        W91736   7.157  25.137  28.900 -0.1294  0.1805 -0.1279
48820W        W91737   9.493  26.938  27.617 -0.0365  0.1408  0.0965
48821W        W91738   7.828  26.708  26.601  0.2846 -0.2250 -0.1380
48822W        W91739   9.691  28.152  30.761 -0.0132  0.2615  0.1775
48823W        W91740   9.285  26.196  30.596  0.1059  0.3536 -0.2248
48824W        W91741   7.928  27.490  27.209 -0.0397  0.0550 -0.0364
48825W        W91742  10.995  28.293  28.389  0.0863 -0.0926  0.1408
48826W        W91743   7.498  27.779  30.018 -0.0275  0.2489  0.0919
48827W        W91744  10.527  28.179  30.155 -0.1889  0.3360 -0.1662
48828W        W91745  12.310  27.704  27.247  0.2083  0.3531  0.2972
48829W        W91746   8.395  25.334  28.166  0.0551  0.0458  0.0480
48830W        W91747   7.311  23.072  29.158 -0.1578  0.1139  0.0681
48831W        W91748  10.955  28.540  28.964  0.2156  0.0314  0.0064
48832W        W91749   9.719  27.837   0.027 -0.2620  0.1233 -0.0410
48833W        W91750   9.153  25.060  31.021 -0.0769  0.1369 -0.1095
48834W        W91751   8.683  25.619  30.797 -0.3085  0.3701  0.1526
48835W        W91752   8.753  26.760   0.343  0.1718 -0.3555 -0.0009
48836W        W91753   7.235  26.464   0.892  0.1587 -0.1243 -0.0257
48837W        W91754  11.113  27.977  30.724  0.3064 -0.0189  0.1064
48838W        W91755  10.394  26.808  28.176 -0.0417 -0.2261  0.1207
48839W        W91756   9.303  27.310  29.968 -0.2474  0.0771  0.0996
48840W        W91757  10.249  27.896  29.102 -0.3250 -0.1391 -0.1772
48841W        W91758  10.141  26.341  26.668  0.1427  0.2154  0.1450
48842W        W91759   6.675  24.522  28.589 -0.2822 -0.2424  0.0675
48843W        W91760   9.918  27.726  30.552 -0.1591  0.1098 -0.1570
48844W        W91761   7.893  25.301  26.602  0.3055 -0.2217  0.5033
48845W        W91762  10.190  27.320   0.686  0.2833  0.3337 -0.2298
48846W        W91763   8.596  27.878  27.414 -0.1273  0.3361 -0.1159
48847W        W91764   8.298  30.007  26.924 -0.2925  0.3921 -0.0199
48848W        W91765   8.742  27.666  28.315  0.0953  0.1517 -0.1657
48849W        W91766   8.489  27.392  28.608 -0.2427  0.1464  0.0196
48850W        W91767   7.947  28.377  31.374 -0.2101  0.2785  0.5715
48851W        W91768   8.064  24.798  26.384  0.1531 -0.1573  0.3729
48852W        W91769   9.749  27.963  29.288 -0.1845  0.3057 -0.1429
48853W        W91770   9.924  27.538  29.150 -0.0932  0.2143  0.3385
48854W        W91771  10.686  28.418  30.598 -0.0289  0.1024  0.2799
48855W        W91772  11.600  24.577  27.607 -0.3216  0.1851  0.0645
48856W        W91773  11.089  27.139  31.178  0.0118 -0.0585  0.0174
48857W        W91774   8.921  26.325  27.360  0.1879  0.1627  0.3742
48858W        W91775  10.121  26.398  27.980 -0.0075 -0.3324 -0.0149
48859W        W91776   8.295  30.029  31.582  0.0864 -0.6647 -0.0033
48860W        W91777   7.702  27.307  29.449 -0.4792  0.2379 -0.2763
48861W        W91778   9.778  27.220  28.037  0.0611 -0.0631  0.0905
48862W        W91779  10.382  23.502  29.903 -0.1924  0.3010  0.0844
48863W        W91780  10.226  26.629  29.783  0.1384 -0.1722  0.1056
48864W        W91781   8.016  25.167  30.149  0.0856  0.0612 -0.1333
48865W        W91782  10.819  26.856  30.273 -0.1752  0.1965 -0.2022
48866W        W91783   9.681  27.111   0.808 -0.3587 -0.2027 -0.0756
48867W        W91784   9.333  27.778  28.573 -0.2268 -0.1421  0.0317
48868W        W91785   9.125  25.469  31.383  0.0148 -0.0634  0.1697
48869W        W91786   9.782  28.748  26.964  0.1013  0.0439 -0.2086
48870W        W91787   9.872  27.055  30.408  0.2061 -0.3069 -0.0376
48871W        W91788   6.552  26.095  31.038  0.0400  0.4882  0.3241
48872W        W91789   7.666  24.598  30.006  0.0174 -0.0014  0.1245
48873W        W91790   9.146  28.599  30.329 -0.1133 -0.1685  0.1459
48874W        W91791  10.659  23.722  27.519 -0.1870  0.0157  0.2056
48875W        W91792   9.113  28.847  26.506 -0.0744 -0.1541 -0.2107
48876W        W91793   8.010  27.224  30.424  0.1314  0.0664  0.1461
48877W        W91794   8.527  25.660  30.162  0.0558  0.1526 -0.1659
48878W        W91795   6.592  28.430  28.289 -0.2706  0.1357 -0.0205
48879W        W91796   9.932  27.419  26.387 -0.3303 -0.0798  0.0982
48880W        W91797   9.952  27.788  28.227 -0.0001 -0.0980  0.0971
48881W        W91798  10.549  29.924   0.010 -0.3113  0.2123 -0.2702
48882W        W91799  10.337  26.109  26.243  0.0775  0.1040  0.0582
48883W        W91800   9.004  26.863  28.481 -0.3154 -0.0703 -0.0072
48884W        W91801   8.646  27.450  29.181 -0.0102 -0.0267 -0.1983
48885W        W91802  11.011  28.558  25.617  0.1995 -0.1450  0.2023
48886W        W91803   7.723  26.614  29.807 -0.0500 -0.0946  0.2758
48887W        W91804  10.720  29.158  30.488 -0.0119 -0.1116  0.0056
48888W        W91805   8.091  24.436  25.912  0.1859 -0.2536 -0.2799
48889W        W91806  11.375  28.634  28.251  0.0739  0.2106 -0.1007
48890W        W91807  10.899  27.841  29.390  0.0737 -0.1184  0.1475
48891W        W91808   9.395  27.379   0.488  0.1120  0.4260  0.0324
48892W        W91809   8.797  27.335  29.762 -0.3489  0.1246 -0.2706
48893W        W91810  10.115  25.607  27.201  0.4089  0.0642 -0.0214
48894W        W91811   9.658  28.163  31.248  0.0671  0.2027  0.1281
48895W        W91812  12.025  25.950   0.284 -0.0918  0.1329  0.0218
48896W        W91813   6.267  29.608  31.368 -0.1598 -0.0868  0.0403
48897W        W91814   9.880  27.406  30.044 -0.0330 -0.2113 -0.0087
48898W        W91815   8.081  25.273  28.944  0.1419  0.0408  0.1015
48899W        W91816   7.829  26.804  30.641  0.1934 -0.2138  0.1561
48900W        W91817  10.505  26.002  30.834  0.1135 -0.1957  0.1407
48901W        W91818   8.245  28.589  26.836 -0.2893 -0.2146 -0.1442
48902W        W91819  10.096  25.116  30.824 -0.3156  0.2016  0.0788
48903W        W91820   8.512  27.760  27.911 -0.3145 -0.0176 -0.1014
48904W        W91821   9.854  27.133  29.409 -0.3019  0.3340  0.1147
48905W        W91822   9.905  28.307  28.932 -0.2628 -0.1553  0.1795
48906W        W91823   6.816  27.221  27.042  0.3314  0.2178  0.1204
48907W        W91824   8.614  27.753  30.008  0.3350  0.1724  0.0610
48908W        W91825   7.561  25.691  30.209 -0.1355 -0.0973  0.2541
48909W        W91826  11.237  28.464  30.771  0.0903  0.2802  0.1447
48910W        W91827   9.018  27.035  27.672 -0.0601  0.0872 -0.0221
48911W        W91828   9.937  25.943  28.084 -0.0492 -0.0298  0.1397
48912W        W91829   8.733  27.831  29.466 -0.2001 -0.2292 -0.2440
48913W        W91830   8.941  24.673  29.256 -0.0979 -0.2431  0.2855
48914W        W91831   8.041  25.516  29.348  0.4702  0.0366 -0.2291
48915W        W91832  12.343  29.551  29.455  0.0255 -0.2381  0.2278
48916W        W91833   9.529  26.536  25.995 -0.0202 -0.5182  0.0880
48917W        W91834   9.873  28.929  29.985 -0.0338 -0.1888 -0.0022
48918W        W91835   8.425  25.500  29.693 -0.2075  0.0606 -0.3496
48919W        W91836   9.782  25.987  28.819  0.0342 -0.1677 -0.0946
48920W        W91837   9.078  27.819  29.139  0.2020 -0.2404  0.2019
48921W        W91838   9.006  27.875  31.135 -0.0958  0.0123 -0.1596
48922W        W91839   9.896  27.318   1.202  0.4051  0.0798  0.2155
48923W        W91840   8.046  26.402  28.727  0.1564 -0.1510  0.0505
48924W        W91841  10.452  25.165  27.477  0.0497  0.3492  0.0574
48925W        W91842   9.601  27.543  29.630  0.0745  0.0413 -0.0851
48926W        W91843  10.237  27.958  26.973  0.0660 -0.0654  0.2889
48927W        W91844  10.197  28.657  29.130  0.2708 -0.0921  0.1524
48928W        W91845   8.396  30.274  29.212 -0.0457 -0.1461  0.0355
48929W        W91846   9.260  26.324  28.128 -0.3052  0.1938  0.0302
48930W        W91847   9.095  29.410  31.283 -0.1428 -0.0268  0.1151
48931W        W91848  10.630  27.105  30.632 -0.1970  0.1396  0.3694
48932W        W91849  11.727  24.049  27.210 -0.2012 -0.1609 -0.1922
48933W        W91850   7.757  25.399  30.560  0.3159 -0.0401 -0.2682
48934W        W91851   8.750  29.229  28.973 -0.2174  0.6435  0.0095
48935W        W91852   8.726  29.418  30.854 -0.1483  0.2058 -0.1556
48936W        W91853   9.704  26.175  30.301  0.1773 -0.1012  0.0665
48937W        W91854  11.378  28.566  28.754 -0.1740 -0.0206  0.2086
48938W        W91855   9.904  24.723  29.034 -0.2741 -0.2262 -0.2292
48939W        W91856  10.648  27.958   2.629  0.1857  0.1025 -0.0841
48940W        W91857   8.961  30.512   0.923  0.1390  0.0616  0.2861
48941W        W91858   8.352  26.931  28.614  0.1897  0.0437 -0.1868
48942W        W91859   9.308  24.069  31.446 -0.1027 -0.2665  0.0809
48943W        W91860  10.545  28.279  29.209  0.0372 -0.2700 -0.0838
48944W        W91861  10.064  26.508  30.262  0.1041  0.0180 -0.1266
48945W        W91862  10.745  27.781  30.430 -0.0073  0.0182 -0.2379
48946W        W91863  10.095  25.979  27.636 -0.0014  0.0736  0.0981
48947W        W91864  10.508  27.611  30.841  0.3084 -0.2097 -0.1096
48948W        W91865   7.968  25.974  30.351 -0.4790 -0.1110  0.1785
48949W        W91866  10.281  28.125  28.515  0.0009 -0.1517 -0.2627
48950W        W91867  10.979  24.896  29.001 -0.0618  0.0375 -0.0793
48951W        W91868   6.370  26.288  29.979 -0.0065 -0.1067  0.1740
48952W        W91869   8.326  26.816  27.925  0.1635 -0.0069 -0.1276
48953W        W91870   6.977  28.883  26.001 -0.0677  0.1795  0.0995
48954W        W91871   8.541  27.884  28.831 -0.2297 -0.2018  0.1617
48955W        W91872   7.773  24.104  30.907 -0.2297  0.0801 -0.1201
48956W        W91873   7.661  26.149  29.899  0.0622  0.2370  0.2970
48957W        W91874   9.069  27.589  30.374  0.4446  0.2189  0.1086
48958W        W91875   6.620  26.624  27.539 -0.0846  0.2430 -0.1278
48959W        W91876   9.565  27.112  26.648 -0.0664  0.0369 -0.0366
48960W        W91877   9.320  26.277  28.941  0.1093  0.1281 -0.0408
48961W        W91878   6.168  24.207  27.572 -0.0227  0.1185 -0.2367
48962W        W91879  10.406  30.114  27.844 -0.0048  0.0877  0.1529
48963W        W91880  10.858  28.849  28.105 -0.3314 -0.3405  0.0520
48964W        W91881   8.156  24.313  28.277  0.2972  0.0005 -0.0780
48965W        W91882  11.085  28.484  31.345  0.0917 -0.0237 -0.1132
48966W        W91883   8.572  27.255  27.741 -0.1395 -0.1940 -0.0253
48967W        W91884   9.042  27.756  29.811  0.0314  0.0371  0.1184
48968W        W91885   7.181  24.045  29.354 -0.1415  0.0515  0.3706
48969W        W91886   7.556  24.732  26.405  0.2111  0.0390  0.1794
48970W        W91887   8.310  26.686  29.149  0.3067  0.1170  0.1799
48971W        W91888   9.816  29.061  30.696 -0.3163 -0.1138  0.2400
48972W        W91889  11.233  30.068  25.921 -0.2251 -0.4333  0.2782
48973W        W91890   9.696  29.541  30.809  0.0040  0.1903 -0.2495
48974W        W91891   9.670  28.939   0.628  0.1729 -0.0096 -0.1097
48975W        W91892   7.854  24.310  29.305 -0.0757 -0.0765  0.0221
48976W        W91893  12.992  29.384  26.498  0.3255  0.2377  0.0148
48977W        W91894   8.577  25.390  31.276 -0.0833  0.2382 -0.0078
48978W        W91895  10.278  26.215  28.945 -0.2591  0.2780  0.2534
48979W        W91896  10.560  26.477  28.574 -0.1320 -0.1092  0.0081
48980W        W91897  12.141  25.771  28.455 -0.0261  0.1481 -0.0547
48981W        W91898   7.221  24.449  30.202  0.1260  0.4145  0.1412
48982W        W91899   8.497  28.995  30.680  0.1650  0.3914  0.0509
48983W        W91900   9.468  27.497  28.978 -0.2511 -0.2319 -0.1286
48984W        W91901   5.458  24.206  27.523  0.2405  0.1453  0.0551
48985W        W91902  10.862  24.774  27.669  0.3379  0.0446  0.2922
48986W        W91903  10.748  28.558  27.557 -0.0291  0.1914  0.0805
48987W        W91904   8.544  24.616  28.839 -0.5010 -0.2451 -0.3167
48988W        W91905  11.079  26.065  28.584  0.3498 -0.2272  0.1152
48989W        W91906   9.580  25.376  31.069 -0.1008  0.0421 -0.0440
48990W        W91907   9.337  28.119  29.467 -0.1748  0.3989 -0.0307
48991W        W91908  10.721  27.905   0.687 -0.1181 -0.4657  0.0649
48992W        W91909   8.015  26.748  28.301 -0.0867 -0.0729 -0.1743
48993W        W91910  10.740  26.491  27.541 -0.3046 -0.0220 -0.0651
48994W        W91911  10.839  30.191   0.283  0.1676 -0.1040 -0.0442
48995W        W91912  10.902  28.859  29.945  0.1339 -0.0054 -0.1740
48996W        W91913   9.991  27.870   0.476 -0.1434  0.2447  0.2042
48997W        W91914  10.216  27.179  29.702 -0.0524  0.1928 -0.0290
48998W        W91915   8.649  27.085  28.189  0.1100  0.2398  0.0814
48999W        W91916   8.483  26.519  28.348 -0.1148 -0.2548 -0.0706
49000W        W91917   9.589  26.068  29.394 -0.1117  0.0345 -0.0802
49001W        W91918   9.431  28.121  28.942  0.0630  0.3677 -0.0395
49002W        W91919   8.727  25.908  29.811 -0.0392  0.1190 -0.2634
49003W        W91920  10.514  26.183  27.816  0.1991 -0.1186 -0.0387
49004W        W91921   8.902  26.602  30.510  0.2005  0.0109  0.0053
49005W        W91922   9.425  28.599  28.627  0.1414  0.1630  0.0074
49006W        W91923  11.771  25.569   0.036  0.0272  0.1323 -0.0097
49007W        W91924  10.302  26.401  31.770  0.0942 -0.1114 -0.2360
49008W        W91925   8.658  24.129  30.415 -0.4251 -0.2147 -0.2088
49009W        W91926   7.620  26.973  30.190 -0.0506  0.2249  0.0971
49010W        W91927   9.245  30.229  31.574 -0.1322  0.0655  0.1899
49011W        W91928   7.395  26.385  30.897 -0.1070 -0.0510  0.0800
49012W        W91929  10.188  26.363   1.041 -0.1140 -0.1793  0.0675
49013W        W91930   9.455  24.431  28.936  0.0304  0.1366 -0.0528
49014W        W91931  10.333  26.599  30.752  0.1132  0.1350 -0.0324
49015W        W91932  12.189  26.852   0.198  0.1771 -0.1005 -0.0721
49016W        W91933   9.423  29.668  31.765  0.0389  0.0520  0.3117
49017W        W91934   9.590  21.901  30.168 -0.3582 -0.0054 -0.0635
49018W        W91935   8.185  27.644  30.691 -0.0046  0.2157 -0.1585
49019W        W91936   8.871  26.525  28.854  0.0689 -0.1682 -0.0763
49020W        W91937  12.245  29.493   0.970  0.1198  0.0006 -0.0391
49021W        W91938   8.894  25.936  31.754  0.0531 -0.4291 -0.1379
49022W        W91939   7.370  28.283   0.998 -0.2438  0.3248 -0.0767
49023W        W91940  10.118  28.600  31.709 -0.1895 -0.0613 -0.0246
49024W        W91941   7.621  25.242  29.869 -0.2046 -0.1317  0.2505
49025W        W91942   8.691  27.469  31.018 -0.0995  0.0227  0.1072
49026W        W91943   7.879  28.644   0.376  0.0245  0.1562  0.0977
49027W        W91944   7.840  28.737  29.616  0.0388  0.1913 -0.0594
49028W        W91945   8.407  26.056  31.741 -0.0546  0.0479 -0.0490
49029W        W91946   9.832  27.707  31.496  0.2075  0.1492 -0.1892
49030W        W91947   8.307  27.883   0.258 -0.0257  0.0117  0.0383
49031W        W91948   8.642  27.410  31.588  0.1985 -0.1089  0.0109
49032W        W91949   9.942  24.135  29.222  0.2229 -0.0751 -0.2121
49033W        W91950   8.288  28.117  30.898  0.1714 -0.2095  0.0995
49034W        W91951   7.593  26.066  31.187 -0.2092 -0.1812  0.1281
49035W        W91952   7.809  28.698  31.746 -0.1574  0.1950 -0.1983
49036W        W91953   9.382  26.798  31.658  0.1782 -0.2521  0.1128
49037W        W91954   8.667  25.642   0.249 -0.1264 -0.4212 -0.0399
49038W        W91955  10.111  26.933   2.155 -0.3153  0.3178  0.0976
49039W        W91956  10.250  25.494   0.261 -0.1566 -0.1531 -0.1008
49040W        W91957   7.802  26.942  31.875  0.0479  0.0872  0.1181
49041W        W91958   8.704  25.118  30.818  0.0617 -0.3137 -0.2031
49042W        W91959   9.227  26.229  30.115  0.2140 -0.0537  0.1828
49043W        W91960   8.834  26.927  31.727 -0.0175  0.1247  0.0545
49044W        W91961  10.111  26.059   0.206 -0.3414  0.1580 -0.2887
49045W        W91962  10.319  27.710   0.940  0.2986 -0.0311  0.1170
49046W        W91963  10.600  25.980  31.619  0.0948 -0.0131  0.1026
49047W        W91964   8.798  28.012   0.270 -0.3045 -0.4630 -0.2507
49048W        W91965   9.899  25.553  31.811  0.2293  0.2802 -0.2851
49049W        W91966   6.906  29.447   0.759  0.1559 -0.2838 -0.0334
49050W        W91967   8.634  25.132  30.297  0.2180 -0.1227  0.0541
49051W        W91968   7.948  28.168   0.503  0.3091 -0.0537 -0.2922
49052W        W91969   8.935  23.611  29.814  0.3248  0.2713 -0.0254
49053W        W91970  10.651  25.463   1.366 -0.1849 -0.1370  0.1996
49054W        W91971   9.223  29.396   0.617  0.1180  0.0407 -0.0042
49055W        W91972   6.517  27.151  31.255 -0.3807 -0.1059 -0.1752
49056W        W91973  11.891  29.211   2.424  0.1676 -0.2126 -0.0229
49057W        W91974   9.372  27.182  30.458 -0.2212  0.2561  0.0217
49058W        W91975   9.207  25.628  30.847 -0.0617  0.2083  0.1452
49059W        W91976  10.105  27.645  29.597 -0.0661 -0.0092 -0.0164
49060W        W91977   9.803  26.585  31.700  0.0383  0.0829 -0.0506
49061W        W91978   8.376  26.169  30.976  0.1406  0.6152  0.1172
49062W        W91979  11.668  27.651  31.627 -0.2328  0.1840  0.0146
49063W        W91980   9.518  29.822  29.798  0.1597 -0.2764 -0.1448
49064W        W91981  10.716  27.276   0.629 -0.0632 -0.1300 -0.0565
49065W        W91982   6.662  27.641   1.133 -0.2116 -0.1603 -0.0680
49066W        W91983   7.248  26.467  29.995 -0.1571 -0.0533  0.0732
49067W        W91984   7.209  27.227  29.320  0.1198  0.5078  0.2941
49068W        W91985   8.145  26.236  29.969  0.0594 -0.1369  0.0438
49069W        W91986   7.901  23.976  29.761 -0.2797 -0.5696  0.0447
49070W        W91987  12.139  29.992  30.667  0.1060 -0.0437 -0.0195
49071W        W91988  12.629  27.110  31.475  0.3582 -0.0932 -0.1463
49072W        W91989  10.461  28.300   2.362  0.1322  0.3472 -0.0554
49073W        W91990   8.631  32.208  17.786 -0.0448  0.1133 -0.0096
49074W        W91991  10.008  29.454  16.210 -0.3521  0.1841 -0.1356
49075W        W91992   9.603  30.081  15.404  0.1285 -0.0387  0.3353
49076W        W91993   9.950  31.670  15.558  0.1392  0.0282 -0.1106
49077W        W91994   6.683  30.674  16.436  0.0471 -0.0600 -0.2676
49078W        W91995   9.249  33.310  15.211  0.0838  0.2856  0.3167
49079W        W91996   6.924  30.837  18.036  0.1344  0.3710 -0.3537
49080W        W91997   9.666  31.398  17.223  0.1239  0.5024  0.2468
49081W        W91998   9.665  33.381  16.382 -0.1506 -0.0830  0.0249
49082W        W91999   8.403  31.900  14.780 -0.4022  0.0775 -0.0545
49083W        W92000   6.511  31.945  17.579  0.0115 -0.3210 -0.0628
49084W        W92001   9.219  32.263  17.265 -0.2488 -0.0752 -0.1955
49085W        W92002  10.112  27.379  15.910  0.2242 -0.0215  0.5509
49086W        W92003   8.660  29.504  17.480 -0.2248 -0.0857  0.3096
49087W        W92004  12.093  30.655  17.828 -0.0087 -0.2490  0.3208
49088W        W92005   8.375  30.418  14.544  0.2232 -0.1712  0.1552
49089W        W92006   8.812  30.392  15.904  0.0768 -0.1108 -0.1661
49090W        W92007   8.904  30.272  18.438  0.1231 -0.1607 -0.2957
49091W        W92008   8.575  33.999  15.492 -0.0015  0.1369  0.0804
49092W        W92009   9.812  30.740  18.693  0.0052  0.1484  0.0936
49093W        W92010   9.307  29.331  18.162 -0.0703 -0.1189  0.0310
49094W        W92011   8.714  32.039  15.149 -0.2146  0.1798  0.0524
49095W        W92012   8.328  31.714  16.455 -0.0247  0.0403 -0.0296
49096W        W92013   6.735  31.135  16.192 -0.1051  0.2415  0.3985
49097W        W92014   6.595  32.109  18.067  0.0124 -0.2729  0.3557
49098W        W92015   8.903  29.455  19.126 -0.2379  0.1469  0.0832
49099W        W92016   9.363  30.627  16.607 -0.0234 -0.1934  0.0455
49100W        W92017  10.336   0.123  16.480 -0.1013 -0.0403 -0.1443
49101W        W92018   8.024  32.149  18.043 -0.0030  0.0157 -0.0270
49102W        W92019  10.319  30.176  17.933  0.3612  0.0053  0.0282
49103W        W92020   8.317  30.079  14.883  0.0606 -0.1521  0.0207
49104W        W92021   7.380  33.736  16.434  0.0702  0.0140  0.2565
49105W        W92022   7.295  32.442  16.266 -0.0471 -0.5120 -0.0804
49106W        W92023  10.083  33.926  17.077 -0.2716  0.1087 -0.1360
49107W        W92024  12.074  33.897  19.459  0.0984  0.0979  0.3281
49108W        W92025   9.219  33.582  17.361 -0.1546 -0.1393  0.2551
49109W        W92026   6.558  33.678  15.040 -0.1835 -0.0959  0.1625
49110W        W92027  10.408  33.902  18.584 -0.2406 -0.0271  0.1504
49111W        W92028   9.314  31.925  17.659  0.0779  0.0291 -0.0611
49112W        W92029   9.881  30.513  16.859  0.0016  0.2638  0.2654
49113W        W92030   9.639  32.066  15.842 -0.0106  0.0822 -0.1831
49114W        W92031   8.722  32.800  14.942  0.0302 -0.2557  0.2430
49115W        W92032   9.841  31.123  15.424  0.1868  0.2808  0.3677
49116W        W92033   7.169  30.591  18.394 -0.1536 -0.0485  0.1953
49117W        W92034   8.577  31.039  15.322 -0.3432  0.1469  0.0539
49118W        W92035  10.615  31.752  18.221 -0.4206 -0.1479 -0.0307
49119W        W92036   8.765  32.969  16.485  0.1456  0.3001  0.1772
49120W        W92037  10.033  31.277  14.886 -0.3295  0.0860  0.1260
49121W        W92038   8.599  29.457  17.007 -0.3230 -0.1506 -0.2493
49122W        W92039   9.598  31.453  15.110 -0.0408 -0.1945  0.4640
49123W        W92040   9.457  28.284  16.583 -0.0230 -0.2504 -0.2120
49124W        W92041   7.668  31.527  14.715  0.0088  0.1049  0.3439
49125W        W92042   7.093  29.918  15.720 -0.0114  0.1406  0.0246
49126W        W92043   9.621  31.985  17.148  0.0080 -0.0907  0.1679
49127W        W92044   9.902  29.905  17.009  0.1697  0.1270 -0.0118
49128W        W92045   9.215  31.357  17.550  0.0255  0.2992  0.2244
49129W        W92046   7.942  31.491  18.975  0.0990  0.2106 -0.1843
49130W        W92047   8.605  30.661  17.286 -0.3868  0.1834 -0.1253
49131W        W92048   8.655  31.509  15.073  0.2180 -0.2151 -0.1588
49132W        W92049  10.657  32.188  15.774  0.3088  0.0250 -0.2030
49133W        W92050   9.717  31.372  14.082 -0.1498  0.1782 -0.0020
49134W        W92051   8.045  28.932  15.586 -0.2125  0.1913  0.3131
49135W        W92052   8.235  31.658  18.513  0.2135 -0.0794 -0.2664
49136W        W92053   7.255  32.032  18.006 -0.0561 -0.0409  0.2503
49137W        W92054   8.024  28.424  15.481  0.1238 -0.0963  0.0719
49138W        W92055  12.878  32.154  19.450 -0.0843 -0.1198  0.2875
49139W        W92056   7.591  33.002  18.959  0.0448 -0.2346  0.2819
49140W        W92057  10.605  30.031  16.389  0.3719 -0.1176  0.0532
49141W        W92058   8.959  32.310  16.852 -0.2967  0.3968 -0.0318
49142W        W92059  12.354  31.570  16.907 -0.1562  0.2648  0.0819
49143W        W92060   9.563  31.586  15.914 -0.1877  0.0296 -0.2267
49144W        W92061   8.360  29.602  17.829 -0.2901 -0.0138  0.2961
49145W        W92062  10.775  29.229  16.650 -0.0080 -0.1301 -0.3147
49146W        W92063   7.338  30.208  16.894 -0.1546 -0.0125 -0.2449
49147W        W92064   8.854  32.699  15.874 -0.1012 -0.0654  0.0230
49148W        W92065  10.911  30.393  19.469 -0.2034 -0.1879 -0.2251
49149W        W92066   9.505  31.850  15.415  0.0258 -0.0942  0.1375
49150W        W92067   6.321  31.708  18.027 -0.0151 -0.1249 -0.0831
49151W        W92068   9.641  31.608  17.873  0.0632 -0.0123 -0.2101
49152W        W92069   8.380  31.751  18.009  0.0802  0.4080 -0.3584
49153W        W92070   7.531  32.025  14.636  0.1151  0.0671  0.2178
49154W        W92071   6.146  32.732  19.483  0.1651 -0.1924  0.0335
49155W        W92072   6.883  30.398  15.576 -0.2206 -0.1254 -0.0375
49156W        W92073   7.765  29.296  16.853 -0.0287 -0.1527 -0.2400
49157W        W92074   7.409  33.369  17.250 -0.0153  0.0944  0.1415
49158W        W92075  10.519  29.802  18.178 -0.0450  0.0380 -0.0858
49159W        W92076   8.281  30.787  16.883 -0.3727 -0.0734 -0.0296
49160W        W92077  10.962  29.703  17.645  0.1122  0.2382  0.0374
49161W        W92078   8.240  30.008  16.468 -0.5349  0.1208 -0.2759
49162W        W92079  10.462  29.713  17.650 -0.0531 -0.2419 -0.0781
49163W        W92080  10.806  31.432  15.328  0.1233  0.4134  0.3184
49164W        W92081   8.927  30.848  14.912  0.1631 -0.1600 -0.2316
49165W        W92082   6.950  30.115  17.715  0.1121 -0.0531 -0.1534
49166W        W92083   8.633  31.018  15.814 -0.1270  0.2031  0.1214
49167W        W92084   7.097  32.304  17.570  0.1457  0.4314 -0.1614
49168W        W92085   8.284  32.074  19.720 -0.0779  0.2169  0.0327
49169W        W92086  10.781  30.803  15.777 -0.1612  0.1826 -0.3752
49170W        W92087   8.518  29.218  15.234  0.1728  0.1924  0.0628
49171W        W92088  10.115  31.239  17.010 -0.1153 -0.1832 -0.0621
49172W        W92089   8.299  32.713  18.030  0.0936 -0.2229 -0.0091
49173W        W92090   9.155  30.127  15.526 -0.2115 -0.2810 -0.0863
49174W        W92091   9.914  28.674  18.164  0.2333  0.3043  0.0976
49175W        W92092   9.154  32.193  14.466 -0.1263 -0.1428  0.0194
49176W        W92093   9.003  32.084  18.210 -0.2384  0.0026 -0.1536
49177W        W92094  10.167  32.983  17.307  0.0437  0.1245  0.1685
49178W        W92095   8.656  29.895  16.222 -0.0702 -0.3192  0.1758
49179W        W92096   8.488  30.505  15.084 -0.4305  0.0665  0.0835
49180W        W92097   8.383  31.481  19.409 -0.1048 -0.0774  0.4322
49181W        W92098  10.015  32.315  16.283 -0.0742  0.1430  0.0558
49182W        W92099   8.448  31.079  16.406 -0.2928 -0.3849  0.2172
49183W        W92100  10.076  32.704  15.208 -0.0157 -0.0412  0.2648
49184W        W92101   8.365  31.796  15.415 -0.1802 -0.0590  0.0523
49185W        W92102   7.351  34.096  18.054 -0.0904  0.2008  0.0145
49186W        W92103  10.998  30.970  18.136 -0.1080 -0.0409 -0.3052
49187W        W92104  11.547  32.397  18.165  0.0028  0.2168 -0.1926
49188W        W92105   7.094  31.108  17.710 -0.1209 -0.1037  0.1808
49189W        W92106   6.023  30.753  15.702  0.1237 -0.0031  0.2940
49190W        W92107  10.622   0.286  17.100  0.0205  0.1009  0.3694
49191W        W92108   7.559  32.914  15.429 -0.1626 -0.0983  0.0623
49192W        W92109   6.728  29.448  17.006 -0.1831 -0.1414  0.1247
49193W        W92110   9.435  30.820  14.850  0.1105 -0.0516 -0.0488
49194W        W92111   9.020  30.484  17.615 -0.2335 -0.0630 -0.0182
49195W        W92112   7.271  28.730  20.683  0.0083  0.2134  0.1386
49196W        W92113  11.795  31.761  17.655  0.0138  0.0572  0.0028
49197W        W92114   7.049  31.294  17.063  0.1479 -0.2846  0.0856
49198W        W92115   8.462  31.293  18.952 -0.0279  0.0945 -0.1034
49199W        W92116  10.975  28.585  17.548 -0.0070 -0.1275 -0.2994
49200W        W92117   9.282  29.634  15.707 -0.1964  0.0921  0.1254
49201W        W92118   9.194  32.556  17.838  0.1640  0.2603  0.1789
49202W        W92119   8.924  31.210  17.123  0.1601  0.0980 -0.1593
49203W        W92120  10.058  30.139  15.136 -0.1798 -0.1605  0.1117
49204W        W92121   9.930  28.942  16.410  0.3336  0.0291 -0.0467
49205W        W92122   7.739  31.785  20.733 -0.2021 -0.0179  0.1525
49206W        W92123   9.108  31.675  15.229 -0.0804  0.1592  0.1937
49207W        W92124   9.322  31.322  15.533 -0.2449  0.0165  0.1752
49208W        W92125  10.172  29.846  15.536 -0.0496  0.2352  0.2737
49209W        W92126  10.871  30.920  14.496 -0.2338  0.0904  0.1038
49210W        W92127   6.496  31.533  15.953 -0.1045 -0.0235  0.0762
49211W        W92128  11.450  31.613  17.250 -0.1043  0.0296 -0.2449
49212W        W92129  10.112  30.341  16.326 -0.6009  0.0296  0.2290
49213W        W92130   8.883  30.805  16.840  0.5101 -0.0341 -0.2579
49214W        W92131   9.611  30.183  16.349  0.1603 -0.2557  0.0524
49215W        W92132   9.158  28.722  16.924 -0.1778 -0.2946 -0.0774
49216W        W92133   6.079  32.785  15.887 -0.0818 -0.2988  0.1877
49217W        W92134  10.258  29.890  16.072  0.0465  0.0471  0.0842
49218W        W92135  10.347  30.496  14.867 -0.1775 -0.1093  0.0325
49219W        W92136   8.640  28.366  20.311  0.1545  0.0371 -0.1095
49220W        W92137   8.814  31.679  17.616  0.1715 -0.2629 -0.1432
49221W        W92138  10.071  33.690  17.593  0.1926 -0.0305 -0.0796
49222W        W92139   6.980  32.680  16.724 -0.1740 -0.0092  0.1039
49223W        W92140   9.926  30.792  14.749 -0.2017 -0.1415 -0.0607
49224W        W92141  10.495  31.523  17.743 -0.0719 -0.0213  0.0010
49225W        W92142   7.865  31.548  16.583 -0.1420  0.1176  0.0328
49226W        W92143   8.573  31.151  20.012 -0.0430 -0.1862  0.1806
49227W        W92144  10.667  32.401  17.953 -0.1139  0.1216  0.2598
49228W        W92145   8.440  30.902  14.844 -0.1843  0.1267  0.2308
49229W        W92146   8.824  31.030  17.565 -0.2330  0.1005 -0.4704
49230W        W92147  10.412  29.475  15.824 -0.1077  0.0733  0.2142
49231W        W92148   9.329  32.502  14.769  0.2832  0.4634 -0.5219
49232W        W92149   9.586  30.316  14.904  0.0701 -0.1394  0.3059
49233W        W92150   8.864  30.662  18.146 -0.1909  0.0731 -0.0154
49234W        W92151  11.477  33.643  18.009 -0.0994 -0.2726  0.2809
49235W        W92152   8.774  31.768  16.210 -0.1703  0.0831 -0.5512
49236W        W92153   9.340  30.922  17.207  0.0887  0.2790  0.4382
49237W        W92154   7.451  32.886  16.572 -0.1057  0.3495  0.1123
49238W        W92155  10.592  28.521  17.867 -0.1258 -0.0590  0.1661
49239W        W92156   8.245  31.885  16.905 -0.3086 -0.1256  0.2450
49240W        W92157   9.244  30.463  16.140  0.0608 -0.3412 -0.1560
49241W        W92158   6.780  28.771  15.194  0.0749  0.0924  0.0078
49242W        W92159  10.427  29.914  17.185  0.0470 -0.2422 -0.0404
49243W        W92160   9.239  31.609  16.293 -0.2044  0.0676 -0.0844
49244W        W92161   8.002  30.400  16.664  0.0023 -0.0639 -0.0780
49245W        W92162   8.587  28.770  16.703 -0.3448 -0.0578 -0.2058
49246W        W92163   7.170  32.603  18.737 -0.2052  0.1622 -0.0779
49247W        W92164  11.017  31.061  16.259 -0.1052 -0.2211  0.1075
49248W        W92165   9.022  28.077  16.598  0.1593  0.1590  0.1575
49249W        W92166  10.369  32.791  19.769  0.0134  0.2922 -0.1966
49250W        W92167   7.934  32.242  16.716 -0.0034 -0.0575  0.2553
49251W        W92168   8.407  30.600  15.701  0.2611 -0.0411 -0.1094
49252W        W92169  11.066  29.875  18.588  0.0683  0.4321  0.0924
49253W        W92170   5.968  29.195  17.262 -0.0948  0.2923  0.3878
49254W        W92171   8.240  33.141  14.930  0.0019  0.3580 -0.1482
49255W        W92172   9.955  33.592  18.043  0.2581  0.1946  0.0611
49256W        W92173   9.029  31.309  15.949  0.0359 -0.0884  0.1480
49257W        W92174   7.376  31.670  16.233  0.0707  0.2241 -0.1279
49258W        W92175   8.428  31.340  17.765  0.0194  0.2351  0.0779
49259W        W92176  11.002  33.550  17.801  0.1826 -0.0156  0.1908
49260W        W92177   7.293  31.661  15.012  0.1998 -0.0619 -0.1044
49261W        W92178   8.483  29.464  16.434 -0.1077 -0.0516  0.1972
49262W        W92179   7.097  30.346  16.483 -0.0803 -0.0732 -0.1153
49263W        W92180  10.539  31.112  18.032 -0.0314  0.0001 -0.0384
49264W        W92181   8.091  30.576  17.511  0.0640 -0.1890  0.1133
49265W        W92182   7.729   0.357  18.142  0.0284 -0.1159  0.0065
49266W        W92183   8.254  28.350  16.867  0.1887  0.0129 -0.2297
49267W        W92184  10.911  33.990  14.704  0.1214  0.2340  0.0715
49268W        W92185  10.068  31.631  17.443 -0.0036  0.0972  0.0744
49269W        W92186   7.789  30.611  15.767  0.3858  0.4877 -0.0540
49270W        W92187   8.041  32.514  18.416 -0.1536 -0.2459  0.2502
49271W        W92188   8.143  31.038  15.754 -0.0711  0.2611  0.0502
49272W        W92189   9.398  30.141  17.488 -0.2742 -0.1612  0.0093
49273W        W92190   7.490  31.608  18.936  0.1138  0.1070 -0.2429
49274W        W92191   8.890  31.730  14.667  0.2035  0.4117  0.1121
49275W        W92192   8.497  31.349  16.784 -0.1982 -0.4005 -0.3510
49276W        W92193  11.597  30.116  15.910  0.1850  0.3924 -0.3269
49277W        W92194   7.262  31.165  15.959  0.1544 -0.0348 -0.1057
49278W        W92195   8.603  29.031  16.214  0.0861 -0.2326 -0.1056
49279W        W92196  10.245  30.447  18.819  0.1379  0.0723 -0.0428
49280W        W92197   6.985  31.634  15.952  0.1245  0.0513  0.1208
49281W        W92198   9.037  30.748  18.642 -0.2164 -0.0865  0.2147
49282W        W92199   7.893  30.929  17.170  0.1860  0.1422  0.0256
49283W        W92200  10.136  33.423  17.121 -0.2049 -0.6412 -0.1166
49284W        W92201   7.287  30.840  17.230 -0.1010  0.1960  0.0124
49285W        W92202   8.497  30.655  19.028 -0.0776 -0.2593  0.0884
49286W        W92203   7.972  31.536  15.772 -0.1580 -0.0428 -0.2204
49287W        W92204   7.837  30.083  15.790 -0.1397 -0.1907  0.0299
49288W        W92205   8.043  30.637  16.203  0.0640 -0.0771 -0.1834
49289W        W92206   7.533  31.212  16.983  0.1825 -0.1295 -0.0090
49290W        W92207  10.546  31.975  16.197 -0.3469 -0.2017  0.0764
49291W        W92208   7.208  33.336  15.220  0.0774  0.0073  0.0640
49292W        W92209  10.400  30.449  15.342  0.0985 -0.2477  0.3024
49293W        W92210   7.493  33.299  16.247 -0.2872  0.1856 -0.0312
49294W        W92211   9.500  29.647  16.213 -0.2788 -0.0651 -0.3827
49295W        W92212   8.737  29.633  14.828  0.1888 -0.2372  0.0523
49296W        W92213   7.818  31.976  15.956 -0.0147  0.3070  0.1605
49297W        W92214   8.496  30.885  17.912  0.0100 -0.0002  0.0256
49298W        W92215  11.363  32.286  16.737 -0.0843 -0.1235  0.3688
49299W        W92216  10.669  28.126  15.662  0.4886  0.0862 -0.0027
49300W        W92217   9.598  29.319  17.256  0.0984 -0.1515  0.3089
49301W        W92218   9.524  32.141  18.069 -0.2439 -0.0868 -0.0517
49302W        W92219  10.672  30.458  16.794 -0.0058  0.0319  0.1700
49303W        W92220   6.973  30.476  19.750 -0.0208  0.0916  0.0745
49304W        W92221  11.950  34.541  17.001  0.0132 -0.0848 -0.0384
49305W        W92222   9.483  30.524  15.581 -0.1584 -0.1720  0.2140
49306W        W92223  12.313  28.613  17.518 -0.1349 -0.0402 -0.1206
49307W        W92224   9.189  30.937  15.291  0.0329  0.3477 -0.2506
49308W        W92225  11.383  29.219  15.678 -0.0134 -0.1483  0.0824
49309W        W92226   7.249  28.730  17.479 -0.2213  0.2907  0.1243
49310W        W92227   9.878  32.487  17.165 -0.1231  0.5299 -0.0818
49311W        W92228   6.899  30.629  15.174 -0.0774 -0.0886  0.0335
49312W        W92229  10.672  30.744  17.623 -0.3846  0.1295  0.1549
49313W        W92230   9.152  32.279  15.222 -0.0367 -0.1853  0.1583
49314W        W92231   9.480  30.132  16.890  0.0933  0.0406  0.2336
49315W        W92232   9.533  29.121  14.803  0.1760  0.3750 -0.0153
49316W        W92233   6.905  29.428  15.744 -0.0225 -0.0166 -0.0374
49317W        W92234   7.788  31.848  17.715  0.0089 -0.4276 -0.1718
49318W        W92235   8.327  30.254  16.022 -0.0314  0.2610  0.1079
49319W        W92236   8.980  31.879  14.165  0.0987  0.4740  0.0904
49320W        W92237   8.533  32.185  16.596 -0.3392  0.3281 -0.4052
49321W        W92238  10.160  33.138  18.726  0.0790  0.2015  0.1334
49322W        W92239  10.699  28.550  15.940 -0.1930 -0.2648  0.4021
49323W        W92240   9.769  29.723  17.465  0.0416 -0.1502 -0.2297
49324W        W92241   7.025  30.086  15.063  0.2414 -0.1620  0.1519
49325W        W92242  10.267  30.178  16.763 -0.1038 -0.0290 -0.0544
49326W        W92243   6.867  31.758  16.798  0.2565  0.0687 -0.1026
49327W        W92244   7.714  31.766  18.250  0.2956 -0.3889 -0.0747
49328W        W92245   8.214  30.058  17.599 -0.0375  0.0111  0.2224
49329W        W92246  10.803  30.201  17.916 -0.2204  0.1235 -0.0837
49330W        W92247   9.074  29.151  15.616  0.0475  0.0192  0.3238
49331W        W92248   9.282  31.339  16.741 -0.0121 -0.0515 -0.0210
49332W        W92249  11.029  31.609  17.533  0.1415  0.0653  0.1392
49333W        W92250  10.735  32.152  18.580 -0.0781 -0.2890 -0.3020
49334W        W92251   9.194  32.298  15.789 -0.1496  0.1861 -0.1137
49335W        W92252  10.134  32.522  17.615 -0.0228 -0.2724 -0.2773
49336W        W92253  12.032  31.813  16.542  0.0475 -0.1310 -0.0833
49337W        W92254   9.089  30.831  15.799  0.1590 -0.4280  0.0086
49338W        W92255   7.160  29.635  18.607  0.0012  0.1268  0.2448
49339W        W92256   8.902  29.750  17.846 -0.1715 -0.0034  0.1381
49340W        W92257  10.000  30.294  15.641  0.1020 -0.0647 -0.1657
49341W        W92258   9.069  29.925  17.114  0.3506 -0.1490 -0.1206
49342W        W92259   9.615  31.217  14.617  0.0371  0.3514  0.1924
49343W        W92260   8.331  31.074  17.379  0.0291 -0.0803 -0.0869
49344W        W92261   8.399  31.421  16.067  0.0438 -0.2608  0.1379
49345W        W92262   7.161  32.367  15.461 -0.1088 -0.1580  0.2048
49346W        W92263   8.798  31.809  16.780  0.2731  0.0934  0.1581
49347W        W92264   8.730  32.311  16.118  0.2830 -0.0686  0.2288
49348W        W92265   9.829  33.092  16.928  0.2323  0.1212 -0.0004
49349W        W92266  10.703  29.534  16.255  0.1828  0.3242  0.1787
49350W        W92267   5.967  32.766  15.435 -0.0547 -0.1657  0.0345
49351W        W92268   5.880  32.746  17.039  0.1449  0.0093 -0.1071
49352W        W92269   8.650  32.623  15.417 -0.3835  0.1832 -0.2431
49353W        W92270   7.224  33.430  15.733 -0.4903 -0.0103 -0.1846
49354W        W92271   9.675  32.369  19.162 -0.0131  0.1096  0.1648
49355W        W92272   9.334  27.819  15.761  0.5440 -0.3867 -0.2718
49356W        W92273   9.856  30.621  15.216  0.0208  0.0424 -0.2282
49357W        W92274   9.941  29.150  15.497  0.1995 -0.2746  0.1007
49358W        W92275  10.039  31.759  18.923  0.2319  0.0990 -0.0355
49359W        W92276  11.601  30.175  17.015 -0.0018 -0.1329  0.0919
49360W        W92277   8.926  30.279  16.513  0.3972 -0.3523 -0.0371
49361W        W92278   6.526  32.737  16.835  0.0012  0.2437  0.1949
49362W        W92279   9.415  29.770  17.829  0.0374  0.3115 -0.1677
49363W        W92280   8.735  32.484  18.197 -0.0329 -0.0531  0.0305
49364W        W92281  10.075  31.913  15.986 -0.2565  0.1688  0.0073
49365W        W92282   9.128  28.903  16.027 -0.2683  0.1650 -0.1629
49366W        W92283   8.357  31.948  15.965  0.3597  0.0016 -0.3221
49367W        W92284  11.161  29.315  16.356  0.1058 -0.2095 -0.0714
49368W        W92285   8.067  30.781  14.366  0.1164 -0.2603 -0.2513
49369W        W92286   8.953  32.073  18.749 -0.0593  0.0730  0.1493
49370W        W92287   6.862  31.688  17.322 -0.0761 -0.1960 -0.0165
49371W        W92288   9.635  32.510  15.536 -0.0506 -0.0268 -0.1883
49372W        W92289   8.379  33.603  16.252  0.3806  0.0527  0.0147
49373W        W92290   6.216  30.491  16.074 -0.1367  0.1946 -0.0884
49374W        W92291  12.614  31.036  16.254  0.1921 -0.1383 -0.3783
49375W        W92292   7.665  29.618  17.885 -0.2283 -0.0510 -0.3000
49376W        W92293  10.066  29.334  17.685  0.1489  0.1117  0.1787
49377W        W92294   8.481  30.503  16.466 -0.0113  0.2191  0.0222
49378W        W92295  12.814  31.462  16.468  0.3131  0.3663 -0.0050
49379W        W92296   7.815  31.173  16.055 -0.2214  0.0924 -0.0011
49380W        W92297   5.540  32.094  17.611 -0.0658  0.0478 -0.0620
49381W        W92298  10.413  28.975  15.757 -0.1091 -0.1063  0.0923
49382W        W92299  10.332  31.074  17.501 -0.2595 -0.2051 -0.1127
49383W        W92300   9.984  29.164  14.988  0.1602  0.2161  0.4679
49384W        W92301   8.973  33.315  18.182  0.0185  0.1083  0.2980
49385W        W92302   7.787  29.317  15.738 -0.1073  0.3122 -0.0676
49386W        W92303   9.216  29.533  16.932 -0.0896  0.1638 -0.3069
49387W        W92304   7.289  30.302  16.008  0.3194  0.0606  0.1713
49388W        W92305   9.856  30.864  17.197  0.0945 -0.2894 -0.4354
49389W        W92306   9.177  33.017  17.616 -0.1817  0.1896  0.3125
49390W        W92307   9.416  28.831  17.341 -0.3007 -0.3135  0.3856
49391W        W92308  10.144  32.051  14.504 -0.0798  0.1758  0.1610
49392W        W92309  11.228  31.279  16.668 -0.0743  0.1002  0.2633
49393W        W92310   8.636  33.112  14.524 -0.0391  0.0560 -0.0344
49394W        W92311   8.881  30.805  16.307 -0.1257  0.2768 -0.1613
49395W        W92312   6.768  34.627  16.944 -0.0815  0.0323 -0.1491
49396W        W92313   7.314  32.046  18.581 -0.0818  0.1079  0.0725
49397W        W92314   8.969  30.708  19.459 -0.0681 -0.0022 -0.0142
49398W        W92315   9.330  32.343  18.469 -0.0848 -0.1652  0.2660
49399W        W92316   7.936  30.984  16.589  0.0291  0.3874  0.2134
49400W        W92317   8.775  30.046  15.154 -0.1992  0.0349 -0.1212
49401W        W92318   6.323  34.457  17.116  0.1321  0.1253  0.0724
49402W        W92319   9.331  31.848  16.786 -0.2036 -0.2140  0.2934
49403W        W92320   9.937  29.843  16.494 -0.0574 -0.0829  0.0453
49404W        W92321   9.531  32.797  14.421  0.0999  0.3259 -0.0215
49405W        W92322   8.906  31.234  18.076  0.0399 -0.2711  0.3052
49406W        W92323   8.656  33.660  17.054  0.0353  0.0767 -0.0939
49407W        W92324   9.248  32.453  18.949 -0.0853 -0.3216 -0.1378
49408W        W92325   7.947  31.031  14.862  0.1197 -0.0687 -0.1642
49409W        W92326   9.631  31.782  18.458 -0.3901 -0.0836 -0.0639
49410W        W92327   9.557  32.890  16.516  0.0516 -0.2163 -0.0179
49411W        W92328   7.635  31.044  15.508 -0.0058  0.1657  0.2043
49412W        W92329   9.464  31.999  18.883  0.0717  0.0352 -0.1674
49413W        W92330  11.130  30.816  16.855  0.2115  0.0191 -0.0493
49414W        W92331   9.846  32.278  18.639  0.3687 -0.0450  0.1035
49415W        W92332   9.728  30.218  17.866  0.1953 -0.1084 -0.0940
49416W        W92333  10.136  28.380  15.685 -0.1485 -0.1825 -0.0504
49417W        W92334   9.355  29.145  16.536  0.1618 -0.1285  0.1450
49418W        W92335   7.584  32.755  17.523 -0.4839  0.0420 -0.2378
49419W        W92336   7.161  29.676  15.305  0.1555 -0.2212 -0.0927
49420W        W92337   6.522  31.647  15.404 -0.2684  0.2342 -0.2362
49421W        W92338   7.439  31.559  15.719  0.0698  0.1825 -0.0290
49422W        W92339   7.538  27.943  17.906  0.0428 -0.2735 -0.1668
49423W        W92340   8.504  30.729  18.459  0.3816 -0.1288 -0.1882
49424W        W92341   5.772  31.994  18.058 -0.3884 -0.2010  0.5182
49425W        W92342   6.413  31.474  17.511 -0.2511  0.0085 -0.0159
49426W        W92343   9.873  31.946  14.061 -0.1637  0.1454 -0.0357
49427W        W92344   7.932  29.719  16.173  0.1775 -0.3371 -0.1380
49428W        W92345   7.263  30.313  17.355 -0.1562 -0.0415  0.1301
49429W        W92346   9.679  32.155  14.518  0.0796  0.1076 -0.3321
49430W        W92347   9.950  31.833  14.941 -0.2707  0.3358 -0.0398
49431W        W92348   7.969  29.240  15.195 -0.0726 -0.0774  0.0635
49432W        W92349  10.124  31.633  16.407 -0.1047 -0.1746 -0.2577
49433W        W92350   7.480  30.580  15.157  0.0835  0.0292  0.0504
49434W        W92351   8.464  29.089  17.658 -0.2869  0.1161  0.3532
49435W        W92352   9.196  29.872  19.172 -0.2327 -0.1327 -0.0273
49436W        W92353   6.734  31.697  14.966  0.2204  0.1392 -0.0626
49437W        W92354   9.390  30.508  18.922  0.0417  0.1650 -0.1579
49438W        W92355  10.303  30.892  15.133  0.0195 -0.2999 -0.2648
49439W        W92356   8.791  33.185  17.312 -0.0749 -0.0177 -0.1715
49440W        W92357   9.609  32.684  18.140  0.0771 -0.1855  0.1158
49441W        W92358   8.055  31.347  17.008  0.0695  0.2709  0.0558
49442W        W92359   7.173  29.407  18.030 -0.2713 -0.0094  0.0300
49443W        W92360  10.600  31.454  17.255 -0.3459 -0.1261  0.0891
49444W        W92361   8.365  32.392  17.128  0.0605 -0.2676  0.3762
49445W        W92362  10.757  32.617  14.881 -0.1832  0.4465 -0.4373
49446W        W92363  10.571  29.026  17.622  0.1427 -0.1494 -0.3270
49447W        W92364   8.891  31.321  16.481  0.0283 -0.1246  0.3098
49448W        W92365   7.691  29.174  19.446 -0.0009  0.3920  0.1250
49449W        W92366   9.084  32.567  16.488  0.1064 -0.2212 -0.1370
49450W        W92367   9.314  31.080  16.345 -0.0787  0.0309 -0.0063
49451W        W92368   7.776  29.941  17.030  0.2336  0.0258  0.1270
49452W        W92369  10.386  29.116  16.269 -0.0104  0.0758 -0.0596
49453W        W92370   9.697  30.552  16.029 -0.0014 -0.1282 -0.0700
49454W        W92371   6.991  30.741  16.005 -0.0000 -0.1449  0.0607
49455W        W92372   9.858  30.024  14.607 -0.1532 -0.1005  0.3320
49456W        W92373  10.493  31.164  15.623  0.0155 -0.1511  0.1362
49457W        W92374   9.135  33.224  16.835  0.1207  0.3358  0.3449
49458W        W92375   9.146  32.476  19.463 -0.5186 -0.0885  0.0197
49459W        W92376   7.960  30.545  14.920  0.0096 -0.0635  0.0279
49460W        W92377  12.284  29.333  15.856  0.2024 -0.1348 -0.2433
49461W        W92378  11.166  34.016  17.930  0.0522  0.2643 -0.3503
49462W        W92379   9.157  32.848  18.215 -0.2264 -0.4871 -0.1545
49463W        W92380   7.350  32.778  20.132 -0.3111 -0.0588  0.4371
49464W        W92381   9.523  31.036  15.929 -0.1560  0.0264  0.0761
49465W        W92382   5.678  31.057  17.451  0.1428 -0.0616  0.1764
49466W        W92383   8.108  32.277  16.221 -0.0796  0.0642 -0.2366
49467W        W92384   8.412  33.480  17.450  0.1384 -0.3225 -0.1644
49468W        W92385  10.392  32.618  17.056 -0.0409 -0.0134  0.1498
49469W        W92386   8.639  30.307  16.925  0.1172 -0.1151  0.0126
49470W        W92387  10.588  28.402  14.951  0.0005 -0.0221 -0.2316
49471W        W92388   8.862  33.487  17.754  0.2396  0.0979  0.1212
49472W        W92389   8.747  32.113  17.300  0.0367  0.1151 -0.0660
49473W        W92390   7.609  32.160  22.743  0.2493 -0.2023  0.0405
49474W        W92391  10.622  30.742  18.540 -0.3044 -0.4252 -0.0041
49475W        W92392   9.983  29.946  19.633 -0.1745 -0.2203 -0.2116
49476W        W92393  10.307  31.481  20.658 -0.2281  0.0399 -0.0140
49477W        W92394   8.376  31.851  21.715 -0.0532 -0.1772 -0.2649
49478W        W92395   8.316  32.412  21.071  0.1293  0.1077  0.0206
49479W        W92396   9.297  29.049  20.650  0.2580  0.0029  0.1213
49480W        W92397   8.872  32.514  23.134  0.2705  0.0957 -0.1650
49481W        W92398   9.402  31.584  21.343  0.0993  0.4233  0.1236
49482W        W92399   9.376  31.051  18.845 -0.1714 -0.0296 -0.0376
49483W        W92400   9.483  30.269  21.737  0.0423  0.2841 -0.1426
49484W        W92401   8.791  32.720  20.554 -0.1790 -0.1092 -0.0812
49485W        W92402   9.271  30.308  19.418 -0.1864 -0.0378 -0.0731
49486W        W92403   8.167  28.634  23.413 -0.2042 -0.0748  0.0253
49487W        W92404  10.586  31.024  22.094  0.0384  0.0162  0.0909
49488W        W92405   7.766  33.842  19.056  0.0176  0.2351 -0.2435
49489W        W92406   6.718  30.349  21.347 -0.0594  0.2498  0.0525
49490W        W92407   9.259  28.923  19.294 -0.3088 -0.0624 -0.0838
49491W        W92408   6.804  33.016  21.216 -0.3310  0.0032  0.0810
49492W        W92409   8.507  32.125  23.101  0.1428  0.1963 -0.1201
49493W        W92410   9.061  30.043  23.843  0.0894 -0.1924  0.2077
49494W        W92411   9.453  29.875  19.629  0.1451  0.0047 -0.0446
49495W        W92412   7.235  29.160  19.177 -0.0118 -0.0670 -0.2283
49496W        W92413   9.226  31.646  18.102  0.2045 -0.0764  0.1205
49497W        W92414   7.862  32.853  20.801  0.1496 -0.0257 -0.0688
49498W        W92415   9.794  30.621  21.552 -0.2145 -0.0047 -0.0260
49499W        W92416  10.236  30.168  19.285 -0.1110 -0.0138 -0.2998
49500W        W92417   6.918  31.377  21.750  0.3798 -0.0322  0.1872
49501W        W92418   7.537  32.275  21.976  0.1692 -0.0684 -0.0172
49502W        W92419  11.946  30.329  21.819  0.2664 -0.1534 -0.4596
49503W        W92420   7.632  31.532  20.351  0.3669  0.1900 -0.3574
49504W        W92421   6.759  32.769  18.546  0.4582  0.0941 -0.1412
49505W        W92422   8.944  32.646  18.623  0.2384  0.1714  0.3579
49506W        W92423  10.370  32.154  19.772  0.2140  0.3476 -0.0831
49507W        W92424  10.016  32.210  20.196 -0.0044 -0.2521 -0.4216
49508W        W92425   7.948  32.145  24.910  0.3759 -0.0865 -0.1832
49509W        W92426   7.899  33.689  21.740 -0.0464  0.1248 -0.1016
49510W        W92427   7.682  33.078  22.428 -0.1902 -0.0420  0.2057
49511W        W92428   9.475  33.076  22.477 -0.1104  0.2147  0.3415
49512W        W92429   7.265  34.008  21.503  0.0903 -0.3388  0.1248
49513W        W92430   8.155  30.418  20.152 -0.1299 -0.0155 -0.0179
49514W        W92431   8.730  31.981  19.476 -0.1658  0.2065 -0.1635
49515W        W92432   7.359  30.260  19.477  0.1612  0.3021 -0.0337
49516W        W92433   8.723  33.801  23.757  0.0003  0.2341  0.1490
49517W        W92434   7.685  33.822  20.571 -0.0877  0.2515 -0.2705
49518W        W92435  10.353  29.624  21.875 -0.0625 -0.0200  0.0986
49519W        W92436   8.795  31.585  19.795  0.2704 -0.1417  0.1479
49520W        W92437   9.397  30.557  18.265  0.0414 -0.1661  0.1196
49521W        W92438   8.906  31.000  19.036 -0.0088 -0.2368 -0.0703
49522W        W92439   9.698  29.580  18.352  0.4125 -0.1322 -0.0082
49523W        W92440   9.363  29.511  21.629  0.0283  0.2600 -0.2196
49524W        W92441   7.216  32.347  22.442 -0.0338  0.3108  0.0824
49525W        W92442   8.186  33.052  23.079 -0.2248 -0.3532 -0.3106
49526W        W92443  10.181  30.767  22.356  0.1683 -0.0621 -0.0660
49527W        W92444   8.784  28.834  20.373 -0.1283 -0.0695  0.0880
49528W        W92445   9.411  32.470  22.320 -0.0408  0.0940 -0.1202
49529W        W92446   7.622   0.066  24.070 -0.1545 -0.0418 -0.1648
49530W        W92447   9.370  30.423  20.171  0.0018 -0.2054 -0.1617
49531W        W92448   9.630  32.228  21.963 -0.0814 -0.0102 -0.0025
49532W        W92449   9.830  32.107  21.119 -0.0643 -0.2577 -0.1601
49533W        W92450   9.773  31.344  18.376 -0.0220  0.2120 -0.0237
49534W        W92451   8.254  30.157  21.162  0.2482 -0.0731  0.2649
49535W        W92452   8.179  32.435  23.778 -0.1331  0.0152 -0.0095
49536W        W92453   6.846  30.961  23.218  0.1256  0.1233 -0.1778
49537W        W92454   8.056  29.393  18.246  0.3002 -0.0218 -0.1403
49538W        W92455   9.046  33.565  23.354 -0.0021 -0.2339 -0.0907
49539W        W92456   7.060  33.348  25.009 -0.3334  0.3358  0.5015
49540W        W92457   9.483  28.414  20.415 -0.1092 -0.1674 -0.0174
49541W        W92458   8.514  34.467  22.152  0.0923  0.1598  0.2208
49542W        W92459  11.103  32.643  23.295  0.2706  0.0617 -0.0717
49543W        W92460   9.728  31.366  16.332 -0.1092 -0.0921 -0.0451
49544W        W92461   7.894  31.337  20.740  0.3342 -0.2382 -0.1345
49545W        W92462  10.553  29.173  20.102  0.2598  0.1156 -0.4737
49546W        W92463  10.505  30.661  18.105  0.0598 -0.2199 -0.0156
49547W        W92464   9.951  30.521  20.165  0.2263  0.1129 -0.1770
49548W        W92465   8.999  32.354  23.854  0.1753 -0.2645 -0.0335
49549W        W92466  10.216  31.625  19.365 -0.1268 -0.0751 -0.5083
49550W        W92467   7.417  33.558  20.295 -0.0181 -0.1328 -0.0343
49551W        W92468   6.646  32.259  21.817  0.1247  0.2801  0.1701
49552W        W92469   7.010  32.749  20.793  0.0157  0.0203  0.0517
49553W        W92470   8.046  33.028  19.474 -0.0700  0.0899 -0.1423
49554W        W92471   8.210  33.254  22.256  0.0744  0.1894 -0.1495
49555W        W92472   8.463  31.611  17.240  0.0264 -0.0195  0.0982
49556W        W92473   8.368  30.947  21.568 -0.2286  0.0889 -0.3326
49557W        W92474   8.166  33.852  20.583 -0.0827 -0.0622 -0.0448
49558W        W92475  10.142  29.130  19.745  0.0903  0.2627  0.0647
49559W        W92476   5.700  30.476  23.260 -0.2369  0.0554  0.2116
49560W        W92477  11.221  29.204  20.877  0.1649 -0.0097 -0.2425
49561W        W92478   6.400  33.476  19.709  0.1771  0.0014 -0.2018
49562W        W92479  10.099   0.274  22.184  0.3572 -0.1858  0.2955
49563W        W92480   9.771  29.596  19.984 -0.0922  0.1156 -0.1689
49564W        W92481  10.640  31.901  17.412  0.2752 -0.1143  0.2583
49565W        W92482   7.667  31.996  21.556  0.0573 -0.2746  0.2565
49566W        W92483   8.723  31.818  20.701 -0.0519 -0.2204 -0.3061
49567W        W92484   5.980  28.770  24.718 -0.1529  0.0393  0.1826
49568W        W92485   7.649  32.647  19.781  0.0203 -0.0550  0.0504
49569W        W92486  12.420  31.288  22.443 -0.0068 -0.0856  0.0279
49570W        W92487   9.370  28.504  18.358 -0.0369  0.1551 -0.2716
49571W        W92488  10.398  31.270  21.079 -0.0501  0.1346  0.1328
49572W        W92489   9.919  31.101  20.177 -0.1659 -0.1100  0.3079
49573W        W92490   9.791  31.100  19.285  0.1141 -0.1205  0.0524
49574W        W92491  10.588  31.011  22.586 -0.0925  0.3475  0.2232
49575W        W92492   9.801  31.330  21.137 -0.0813 -0.0134  0.0638
49576W        W92493   9.793  32.065  22.492  0.0387 -0.1535  0.0243
49577W        W92494  10.654  32.699  21.128 -0.3542 -0.3348 -0.0766
49578W        W92495   9.260  30.292  23.042  0.0502 -0.0487 -0.3401
49579W        W92496   8.322  30.262  19.242 -0.0599 -0.0372  0.0608
49580W        W92497   7.328  32.778  23.273  0.0225  0.2494  0.2978
49581W        W92498   8.325  32.448  18.800 -0.1118  0.2165  0.2778
49582W        W92499   8.519  29.472  18.721 -0.2359  0.1587  0.2374
49583W        W92500  11.816  31.960  21.089 -0.2081  0.1931 -0.1279
49584W        W92501   8.181  31.556  19.944  0.0333  0.0379 -0.1344
49585W        W92502   8.277  32.581  21.559 -0.1250  0.0130  0.0186
49586W        W92503   8.814  29.945  22.393  0.0904 -0.2622  0.3272
49587W        W92504  12.621  30.859  22.701  0.1972  0.1863 -0.0410
49588W        W92505  11.049  29.615  20.600 -0.0287 -0.0234 -0.1037
49589W        W92506   7.213  29.048  20.040 -0.1820 -0.2506 -0.1118
49590W        W92507   9.053  31.713  22.623  0.2882 -0.0499  0.3024
49591W        W92508   7.946  31.392  18.002 -0.1760  0.0389  0.0879
49592W        W92509   7.549  29.835  21.462  0.0576  0.0893 -0.3288
49593W        W92510   7.303  34.555  22.458 -0.0344 -0.0675  0.1721
49594W        W92511  11.305  30.555  21.472  0.2130 -0.0701  0.2448
49595W        W92512   7.061  31.892  23.171 -0.0549  0.0758  0.0166
49596W        W92513   8.507  32.074  22.602 -0.0421  0.1993  0.0177
49597W        W92514   7.276  29.898  18.035  0.0357  0.2595 -0.1079
49598W        W92515   8.191  32.443  22.330 -0.2383  0.0577  0.1056
49599W        W92516   8.788  28.618  20.914  0.1023 -0.1088  0.1429
49600W        W92517  11.155  30.022  19.109  0.0236  0.2000  0.0677
49601W        W92518   7.268  32.294  21.559  0.0411 -0.0926 -0.0325
49602W        W92519  11.134  31.445  20.623 -0.1756 -0.1643 -0.0555
49603W        W92520   9.792  28.892  20.517  0.1150  0.0879  0.0094
49604W        W92521   8.753  28.230  19.833 -0.2864 -0.1204  0.1871
49605W        W92522   5.639  32.800  22.599 -0.2004  0.0407  0.1507
49606W        W92523   8.008  31.476  17.503 -0.0936 -0.0974 -0.1384
49607W        W92524   8.656  32.454  19.677  0.1899 -0.1180  0.0630
49608W        W92525   8.797  28.942  18.967 -0.0760  0.1967  0.0080
49609W        W92526  11.250  33.051  19.869 -0.2301  0.2575 -0.1717
49610W        W92527   6.510  33.030  19.382  0.1701  0.1285  0.0093
49611W        W92528  10.712  32.486  23.026  0.4502 -0.3159 -0.2827
49612W        W92529  10.056  31.220  21.674 -0.0600 -0.1250 -0.0307
49613W        W92530   8.805  30.964  21.290 -0.3336  0.1305 -0.2710
49614W        W92531   9.057  32.324  21.953 -0.0389  0.0389 -0.2815
49615W        W92532   7.272  30.401  22.422  0.0325  0.2991  0.1580
49616W        W92533   6.310  31.798  19.623  0.0590  0.1577 -0.1221
49617W        W92534  10.115  31.226  22.173 -0.0779  0.0894  0.3564
49618W        W92535  10.409  29.930  18.786  0.1758  0.1756 -0.1198
49619W        W92536   8.577  32.317  21.947 -0.1152 -0.1404  0.2012
49620W        W92537  10.659  30.509  22.554 -0.0990  0.0005 -0.0359
49621W        W92538  10.899  29.577  20.111 -0.0059  0.1284 -0.2163
49622W        W92539   8.307  28.816  20.691  0.1615 -0.2020  0.1319
49623W        W92540   7.247  30.364  18.846 -0.0657 -0.1397 -0.4293
49624W        W92541   8.393  30.674  21.108  0.1472  0.1828 -0.2163
49625W        W92542   6.047  32.674  20.997  0.2664  0.0760  0.4016
49626W        W92543   6.815  32.973  23.049 -0.1725 -0.0880  0.4336
49627W        W92544   9.419  33.408  22.880 -0.1192 -0.0222 -0.1869
49628W        W92545   7.877  33.736  18.199  0.3901  0.1320  0.0222
49629W        W92546   7.752  31.392  23.037 -0.2642 -0.3025 -0.4523
49630W        W92547   8.462  28.419  21.737 -0.2835  0.0771 -0.1141
49631W        W92548   6.499  32.661  19.925 -0.1533  0.2425  0.2056
49632W        W92549   7.259  32.065  17.137 -0.1818 -0.2942  0.2100
49633W        W92550   9.073  31.237  21.622  0.2084  0.0505  0.0834
49634W        W92551  10.165  32.996  23.428  0.0088 -0.1242  0.0455
49635W        W92552   7.633  32.299  17.791  0.2501 -0.1896  0.1955
49636W        W92553   9.310  32.400  23.407 -0.0188  0.0785 -0.3260
49637W        W92554   7.548  34.105  20.167 -0.0584 -0.1554 -0.1017
49638W        W92555  13.191  29.462  20.932  0.0994 -0.0232  0.0596
49639W        W92556   6.171  32.126  21.741 -0.3616 -0.1971  0.0299
49640W        W92557   8.439  30.594  19.698  0.1123  0.2017  0.2418
49641W        W92558   7.723  30.892  21.548  0.1123 -0.2088  0.2840
49642W        W92559  10.895  32.921  19.153 -0.1057 -0.2186 -0.2585
49643W        W92560  10.430  31.060  20.235  0.2181 -0.2654 -0.0089
49644W        W92561   5.822  30.585  21.875 -0.1995 -0.1837  0.3027
49645W        W92562  10.180  29.729  23.965 -0.0407  0.1702 -0.0986
49646W        W92563   7.464  34.065  20.954  0.1458 -0.2479  0.0235
49647W        W92564   8.027  31.309  21.665 -0.0609 -0.2473  0.2564
49648W        W92565  11.058  28.674  19.421  0.3062  0.0644 -0.4407
49649W        W92566   9.346  32.165  20.968 -0.0267 -0.0523 -0.0308
49650W        W92567   8.034  31.876  20.343  0.1799  0.1869 -0.1815
49651W        W92568   7.731  31.828  19.958 -0.0596  0.2222 -0.0897
49652W        W92569  10.860  31.859  21.923 -0.1957 -0.0828  0.0543
49653W        W92570   7.623  30.065  20.974 -0.0196  0.0142  0.0397
49654W        W92571   6.939  33.032  22.592 -0.2323 -0.1527  0.0232
49655W        W92572  10.309  31.148  19.472 -0.1987  0.1153  0.0358
49656W        W92573   9.096  29.992  19.951 -0.2436  0.4178  0.3179
49657W        W92574   8.168  32.580  19.634 -0.4525 -0.1522  0.0296
49658W        W92575   8.146  30.109  21.689 -0.0226 -0.0468  0.0944
49659W        W92576   8.961  32.355  22.536 -0.0901  0.2096  0.2587
49660W        W92577   8.361  29.682  22.824  0.0118 -0.0291 -0.0801
49661W        W92578  10.258  30.424  19.740  0.2812 -0.1878 -0.2052
49662W        W92579  10.388  30.626  19.273 -0.0264 -0.0275 -0.2356
49663W        W92580  10.405  31.563  21.866  0.0266  0.1000  0.1502
49664W        W92581   9.371  31.459  20.208 -0.0885 -0.0224  0.2115
49665W        W92582   8.803  31.939  22.236  0.2413  0.1239  0.4643
49666W        W92583   8.684  29.311  20.411  0.4177 -0.1044 -0.1244
49667W        W92584  10.520  31.840  20.137  0.0223  0.0298  0.1305
49668W        W92585   8.483  31.888  21.235  0.0209  0.1498  0.0715
49669W        W92586   8.264  30.364  18.245  0.1645 -0.3993  0.1404
49670W        W92587   6.517  33.268  21.623  0.0019 -0.2372  0.1645
49671W        W92588   8.078  33.048  18.465  0.4915 -0.0065 -0.1725
49672W        W92589   7.949  29.539  20.618 -0.0584 -0.1480 -0.0034
49673W        W92590   8.542  31.464  23.463  0.1308  0.1912 -0.1711
49674W        W92591   9.228  34.548  21.109 -0.0349  0.0930  0.1365
49675W        W92592   6.454  33.014  23.770  0.0474 -0.1153 -0.1295
49676W        W92593  10.449  30.124  21.471  0.1356  0.0197  0.1518
49677W        W92594  10.054  31.781  18.199  0.0872  0.1350  0.2411
49678W        W92595   7.155  28.602  21.114  0.1660 -0.1063 -0.0687
49679W        W92596  11.031  30.835  22.724  0.1479 -0.1405  0.1205
49680W        W92597  10.739  30.389  18.900 -0.0593  0.2133  0.1166
49681W        W92598  11.142  29.403  22.464 -0.0324  0.2396 -0.1430
49682W        W92599   7.094  32.815  21.583 -0.1565  0.0743  0.2982
49683W        W92600   9.572  33.081  19.011  0.0410 -0.0588 -0.1785
49684W        W92601   5.445  31.522  23.267 -0.1455  0.0416  0.0546
49685W        W92602   8.236  34.059  23.673 -0.1464  0.1371 -0.0541
49686W        W92603   6.509  32.076  21.338 -0.0285  0.0652  0.0944
49687W        W92604  10.440  29.592  20.561 -0.0671 -0.2440 -0.0246
49688W        W92605   7.929  29.018  18.635 -0.0895  0.0942 -0.0080
49689W        W92606   8.800  32.738  22.270  0.0096 -0.0024 -0.0087
49690W        W92607   8.133  33.092  21.687  0.1375 -0.2038  0.2578
49691W        W92608   7.895  32.781  15.827 -0.1447  0.4275 -0.1392
49692W        W92609  11.064  31.446  18.812  0.0113  0.2637 -0.1706
49693W        W92610   9.425  29.900  20.928  0.0043 -0.1066 -0.0489
49694W        W92611  10.662  31.741  19.646  0.0042  0.1523 -0.5054
49695W        W92612   8.207  29.052  19.587  0.1578 -0.0545 -0.5432
49696W        W92613   6.514  30.307  20.404  0.0347 -0.1549  0.1643
49697W        W92614   8.133  30.190  22.154  0.0860 -0.0330  0.1609
49698W        W92615  10.685  31.761  21.455 -0.1291  0.1053  0.3788
49699W        W92616  10.729  31.060  20.682  0.0420 -0.0433 -0.0879
49700W        W92617   8.979  29.029  22.961  0.2001 -0.0087  0.0251
49701W        W92618   9.645  31.611  22.398  0.2246  0.0057 -0.2167
49702W        W92619   9.614  31.161  19.753  0.0259 -0.0717  0.0327
49703W        W92620   6.551  31.735  21.737  0.2182  0.1311  0.0343
49704W        W92621  10.658  34.044  22.559  0.0011  0.1135  0.0830
49705W        W92622  11.770  31.927  18.495 -0.1235 -0.0226 -0.0260
49706W        W92623  10.515  30.136  20.825 -0.1069  0.1353  0.0156
49707W        W92624  11.377  30.533  19.796 -0.1133  0.1716 -0.0941
49708W        W92625   8.400  28.791  21.216 -0.3715 -0.5053 -0.0470
49709W        W92626   6.216  30.004  20.645 -0.0896  0.1666 -0.1073
49710W        W92627  10.593  30.612  23.022 -0.0431  0.4169 -0.0848
49711W        W92628   7.135  30.784  20.470 -0.4650  0.2175 -0.0324
49712W        W92629  10.007  30.183  21.810 -0.0407  0.4179 -0.2840
49713W        W92630   8.347  33.228  17.929 -0.0758  0.0684 -0.1351
49714W        W92631   9.759  31.230  22.661  0.0633 -0.2220  0.0084
49715W        W92632  11.001  29.684  18.102  0.5312 -0.0114 -0.0083
49716W        W92633   8.625  30.979  23.345  0.3459  0.1684  0.2008
49717W        W92634   7.251  32.562  25.562 -0.0549 -0.1964 -0.2017
49718W        W92635   7.285  31.771  20.670 -0.1351 -0.1371 -0.0716
49719W        W92636   8.859   0.007  18.849 -0.0612  0.3954 -0.2595
49720W        W92637   9.040  31.394  21.005 -0.0548 -0.0833 -0.1002
49721W        W92638   7.819  31.028  22.032  0.0091 -0.0456  0.3097
49722W        W92639   8.924  30.218  19.084  0.0476  0.0985  0.1204
49723W        W92640   9.748  30.790  22.975  0.1793 -0.2762 -0.0576
49724W        W92641   9.619  31.897  20.109 -0.0411  0.0787 -0.3714
49725W        W92642   8.599  31.471  22.467  0.2403 -0.4154  0.0689
49726W        W92643   6.306  33.021  22.936  0.0974 -0.1582  0.1195
49727W        W92644   7.225  31.776  24.473 -0.0168 -0.1917  0.1757
49728W        W92645   7.575  30.783  18.602 -0.1448 -0.1911  0.0432
49729W        W92646   9.243  30.335  22.215 -0.1238 -0.1790 -0.1726
49730W        W92647   9.781  30.403  19.568  0.2237 -0.0662  0.0979
49731W        W92648   8.930  30.761  19.980 -0.0400 -0.0915 -0.1183
49732W        W92649  10.502  31.761  24.248 -0.0167 -0.1521  0.2076
49733W        W92650   9.839  31.680  21.488 -0.2054  0.1050  0.2610
49734W        W92651   6.557  30.799  21.085  0.1431  0.2114 -0.0413
49735W        W92652  11.084  33.172  22.966  0.2889  0.2136 -0.2702
49736W        W92653  10.547  32.026  19.190 -0.0547 -0.1301 -0.6366
49737W        W92654   7.492  32.621  20.591  0.3828  0.1846  0.0986
49738W        W92655   5.917  30.973  23.182 -0.1334 -0.0431  0.1051
49739W        W92656   8.922  32.577  24.329 -0.3109  0.0131 -0.4998
49740W        W92657   9.278  30.090  18.721  0.1988  0.0977  0.0625
49741W        W92658   8.061  30.841  22.468 -0.0418 -0.3749 -0.0371
49742W        W92659   8.046  32.337  20.164  0.0158 -0.0181 -0.0426
49743W        W92660   7.115  33.146  23.547  0.3096 -0.1156 -0.2514
49744W        W92661   7.300  31.747  21.819  0.0200 -0.1144  0.3719
49745W        W92662   8.784  30.914  20.707  0.0910 -0.1411 -0.3479
49746W        W92663   8.907  31.324  22.112  0.0897 -0.2333 -0.2771
49747W        W92664   9.985  31.872  19.763  0.4448 -0.2885 -0.2055
49748W        W92665   8.963  31.887  21.227  0.2971  0.1625  0.2309
49749W        W92666   8.355  28.279  20.726  0.0070 -0.0112  0.0527
49750W        W92667   5.264  34.316  20.983 -0.1921  0.2501  0.2120
49751W        W92668   6.354  33.067  17.221 -0.0606  0.2849  0.1969
49752W        W92669   8.598  33.136  21.448  0.3016  0.0431 -0.1827
49753W        W92670   8.310  32.234  19.262 -0.1767  0.2773  0.1310
49754W        W92671  11.600  30.481  23.212 -0.0372 -0.0672  0.0083
49755W        W92672  10.679  29.945  22.803  0.0586 -0.0141 -0.2610
49756W        W92673  10.729  32.757  20.091 -0.1344  0.0330 -0.0191
49757W        W92674  10.731  31.408  20.369  0.0951 -0.2920  0.1445
49758W        W92675   7.501  33.598  23.364  0.1580 -0.2135 -0.2170
49759W        W92676  10.003  31.655  20.305 -0.2267 -0.1379  0.0935
49760W        W92677   8.928  29.941  20.396 -0.0097 -0.1091 -0.1842
49761W        W92678   7.769  32.573  23.044 -0.0547  0.1566  0.2712
49762W        W92679  10.730  29.752  23.215  0.3589  0.1422 -0.0347
49763W        W92680   5.885  33.338  24.510  0.2575  0.1900  0.1383
49764W        W92681  11.453  31.253  21.082 -0.0718  0.0064  0.2005
49765W        W92682   9.065  28.884  18.338  0.0723 -0.1191 -0.0280
49766W        W92683   7.613  32.416  18.821  0.0658  0.0344  0.0588
49767W        W92684  11.002  29.103  23.236  0.0007 -0.0536 -0.0291
49768W        W92685  10.233  28.620  16.153  0.2570  0.1415  0.2735
49769W        W92686   9.274  31.038  18.314  0.0553  0.1261 -0.1741
49770W        W92687   8.866  31.216  19.470 -0.0605 -0.0874 -0.3351
49771W        W92688   8.041  32.185  21.849  0.1179  0.2237 -0.0339
49772W        W92689   6.840  31.779  22.105 -0.0253 -0.2700  0.0186
49773W        W92690   6.084  29.190  21.180  0.1056  0.1768 -0.1492
49774W        W92691  12.842  30.423  21.500  0.0150 -0.3079 -0.1498
49775W        W92692   5.716  30.820  21.457 -0.1128 -0.0103 -0.0714
49776W        W92693   9.579  30.820  21.057  0.2056  0.1429 -0.3327
49777W        W92694   8.467  30.989  19.391  0.1480  0.1472 -0.1330
49778W        W92695  11.855  30.920  21.207 -0.1771  0.2124  0.0222
49779W        W92696   7.728  31.580  22.061  0.1798  0.3752 -0.0538
49780W        W92697   6.779  32.464  23.954 -0.2056 -0.0290 -0.1576
49781W        W92698  10.086  30.210  20.534 -0.0903 -0.0813 -0.1417
49782W        W92699  12.700  31.207  20.384 -0.1260  0.2260 -0.2434
49783W        W92700  10.093  31.348  17.996 -0.0495  0.3920  0.0646
49784W        W92701   8.488  33.523  21.725 -0.1013 -0.0296 -0.0555
49785W        W92702   7.219  30.171  21.218 -0.0034  0.1264 -0.0667
49786W        W92703  10.463  28.728  19.485  0.2938 -0.0294  0.0380
49787W        W92704   7.523  33.082  20.449 -0.3859 -0.0609 -0.1058
49788W        W92705   7.193  33.234  19.990  0.0492 -0.1249 -0.2309
49789W        W92706  11.136  31.004  21.457 -0.1973 -0.0738  0.1701
49790W        W92707   9.272  28.842  21.392  0.1605  0.1605  0.0945
49791W        W92708   9.629  30.583  17.561  0.1048 -0.2939 -0.0345
49792W        W92709  11.925  29.846  21.948 -0.2217  0.0448  0.3440
49793W        W92710   8.784  31.626  18.472  0.1135 -0.4137 -0.0460
49794W        W92711  10.850  30.490  20.589 -0.0608  0.0307  0.2514
49795W        W92712   9.952  32.508  19.817 -0.2634 -0.1909 -0.2328
49796W        W92713   6.671  31.960  20.508  0.3287  0.0201 -0.2059
49797W        W92714   8.095  32.281  22.790  0.2393 -0.1639 -0.3391
49798W        W92715  11.002  31.117  22.342  0.0106 -0.0345 -0.3159
49799W        W92716   9.046  29.323  18.645  0.2377  0.0856  0.1078
49800W        W92717  10.266  31.408  19.880 -0.1976  0.0871  0.1657
49801W        W92718   7.087  32.816  19.733 -0.1412 -0.1531  0.1246
49802W        W92719  10.101  29.650  21.443  0.0665  0.3307  0.3373
49803W        W92720   8.037  31.455  23.821 -0.5092  0.1015 -0.3714
49804W        W92721   7.381  33.477  18.199  0.2602  0.1761  0.1854
49805W        W92722  12.097  29.808  24.050  0.0284  0.0182  0.1147
49806W        W92723   8.058  33.965  21.045 -0.1401 -0.1475 -0.0089
49807W        W92724   7.597  32.532  24.106 -0.0320  0.0443  0.1248
49808W        W92725   7.478  30.765  16.136  0.3231 -0.1221 -0.2001
49809W        W92726  10.147  31.737  21.046  0.1583  0.2692  0.0170
49810W        W92727   7.671  30.180  19.929  0.0543 -0.1297  0.1037
49811W        W92728   8.857  31.551  19.027 -0.0162 -0.0352  0.1313
49812W        W92729  10.833  33.256  20.115  0.1687  0.1691  0.2965
49813W        W92730   8.913  29.792  18.767 -0.1059  0.0860  0.0561
49814W        W92731  10.058  32.142  19.340 -0.0085 -0.2286 -0.0299
49815W        W92732   7.955  30.561  21.270 -0.2563  0.4061  0.0268
49816W        W92733  11.208  30.924  20.743  0.1631  0.0222 -0.3312
49817W        W92734   9.559  29.175  19.706  0.0518 -0.0395  0.0195
49818W        W92735   6.761  32.202  23.528  0.0178  0.2789 -0.1952
49819W        W92736   7.524  31.761  19.400  0.0519 -0.0896  0.0890
49820W        W92737   7.704  30.838  20.750 -0.1002  0.0802  0.3386
49821W        W92738   7.893  31.567  21.217 -0.1493  0.2133 -0.0376
49822W        W92739   9.692  28.976  22.349  0.2941 -0.1288  0.0997
49823W        W92740   6.874  30.551  22.911  0.3412  0.0914  0.2911
49824W        W92741   6.216  33.604  20.789 -0.2348 -0.1362  0.0156
49825W        W92742   8.252  30.905  20.725  0.3425 -0.3030 -0.1250
49826W        W92743  10.716  32.445  19.649 -0.0057 -0.1473  0.0760
49827W        W92744   7.296  29.351  22.349 -0.2011  0.0093  0.1309
49828W        W92745   7.388  31.786  21.173 -0.0337 -0.0081  0.3435
49829W        W92746  10.479  30.433  20.276 -0.1033 -0.1935 -0.1379
49830W        W92747   9.293  30.850  17.787  0.2381  0.1993 -0.0666
49831W        W92748   6.940  28.588  21.806  0.0389 -0.3129 -0.1758
49832W        W92749  10.471  32.864  23.816 -0.0982  0.0768 -0.2132
49833W        W92750   5.945  32.046  18.849  0.2175  0.0548 -0.0501
49834W        W92751   9.439  31.227  22.196  0.1468  0.2082  0.0551
49835W        W92752   9.407  32.610  23.980  0.3913 -0.1210  0.0198
49836W        W92753   6.718  27.982  20.535  0.0727  0.1571  0.1169
49837W        W92754   9.561  30.265  20.610 -0.0946 -0.0059 -0.0880
49838W        W92755   8.901  31.713  21.778 -0.0441  0.2353  0.0465
49839W        W92756   9.951  32.872  16.211 -0.2516  0.1164 -0.3826
49840W        W92757   7.111  31.938  20.229 -0.0485 -0.2773  0.0881
49841W        W92758  10.844  33.668  22.055  0.0740 -0.3202 -0.1695
49842W        W92759   7.254  29.673  22.822  0.2066 -0.3914  0.3714
49843W        W92760   7.694  30.465  22.165  0.0398  0.1029  0.2753
49844W        W92761   7.877  32.744  22.004 -0.0406  0.3322 -0.0363
49845W        W92762  10.663  32.799  18.288  0.2261 -0.0994 -0.4733
49846W        W92763  11.622  30.143  22.154  0.2156 -0.0552 -0.2463
49847W        W92764   7.259  33.272  21.335 -0.0723  0.0358  0.1508
49848W        W92765   6.598  30.050  23.222  0.0286  0.1252  0.0315
49849W        W92766   7.981  34.142  23.242  0.2292 -0.2370 -0.1519
49850W        W92767  11.432  32.029  21.524 -0.0752 -0.2435 -0.2127
49851W        W92768   7.413  29.404  21.024  0.1662  0.1779 -0.1995
49852W        W92769   9.738  30.118  19.999  0.0667 -0.1346 -0.1071
49853W        W92770   8.458  31.347  21.007  0.1028 -0.0436  0.0360
49854W        W92771   8.081  31.084  21.197  0.1378 -0.0510  0.2150
49855W        W92772   8.561  29.712  20.103  0.0787 -0.4452 -0.0301
49856W        W92773   8.220  31.900  23.639 -0.0276 -0.2555  0.1675
49857W        W92774   8.723  32.289  20.147  0.1353  0.1686 -0.1800
49858W        W92775  12.806  29.327  21.289 -0.3782  0.1339  0.3408
49859W        W92776   7.450  30.098  18.465 -0.0835 -0.1151  0.2798
49860W        W92777  13.620  34.310  18.523  0.3089 -0.0589 -0.1787
49861W        W92778   8.895  32.855  21.779  0.2364  0.3169  0.0962
49862W        W92779  10.300  32.019  21.773  0.1134 -0.2698 -0.1468
49863W        W92780   8.231  32.988  21.163 -0.1443  0.2079  0.1132
49864W        W92781   9.529  30.340  21.173  0.0428 -0.1652 -0.0096
49865W        W92782   5.433  29.566  23.852 -0.0006  0.1894 -0.2631
49866W        W92783   8.967  30.436  20.398 -0.1744  0.1873 -0.0111
49867W        W92784   7.258  32.181  19.725 -0.1956  0.1912  0.1295
49868W        W92785   9.153  30.482  20.857 -0.1604  0.0712  0.1902
49869W        W92786   9.621  29.398  20.648 -0.0908  0.2658 -0.3209
49870W        W92787   9.868  29.432  19.420  0.1176  0.3373 -0.0024
49871W        W92788   6.969  32.058  21.036 -0.0154  0.4646  0.0341
49872W        W92789   9.950  30.851  19.717  0.0006 -0.0498 -0.1032
49873W        W92790   7.748  29.951  25.721  0.0700  0.0474  0.1456
49874W        W92791   9.965  33.362  23.141  0.1327 -0.0824  0.0649
49875W        W92792  12.126  30.547  23.263  0.2015  0.0965  0.0659
49876W        W92793   8.382  30.626  22.845 -0.2554 -0.0200  0.1354
49877W        W92794   7.867  29.152  25.715  0.0087 -0.3702  0.1847
49878W        W92795  10.373  33.170  24.805 -0.1905 -0.0925  0.3797
49879W        W92796   7.173  29.335  28.830  0.1509 -0.1720 -0.1017
49880W        W92797   9.356  30.779  25.709  0.0432 -0.0727 -0.2356
49881W        W92798   9.360  30.500  26.194 -0.2163  0.1423 -0.1523
49882W        W92799   9.277  31.959  22.228 -0.4522 -0.0283  0.1380
49883W        W92800   7.888  29.708  27.784 -0.1859 -0.0315  0.2133
49884W        W92801  10.858  32.827  24.924  0.0533 -0.0833  0.0020
49885W        W92802   8.538  31.481  26.912  0.1812  0.1005  0.0679
49886W        W92803   8.402  30.693  26.120  0.6038 -0.2739 -0.1055
49887W        W92804   9.050  31.201  25.851 -0.2028  0.0667  0.1314
49888W        W92805   7.863  30.526  24.545 -0.2093 -0.2978  0.0676
49889W        W92806   7.479  28.545  26.498 -0.1863  0.1499  0.0590
49890W        W92807   8.651  30.951  22.555 -0.0651  0.1231 -0.0313
49891W        W92808   8.182  34.531  23.930  0.1002 -0.1489 -0.0262
49892W        W92809   8.537  31.103  26.591 -0.3207 -0.0382 -0.0514
49893W        W92810   8.053  29.586  26.770 -0.0352 -0.2429  0.0379
49894W        W92811   8.569  31.363  21.684  0.0031 -0.1404 -0.3552
49895W        W92812   5.508  30.553  22.384 -0.1322 -0.0424  0.1567
49896W        W92813   7.552  32.373  25.209 -0.0107 -0.0102 -0.2635
49897W        W92814   6.823  30.921  25.538  0.1525 -0.0686  0.1286
49898W        W92815   8.887  30.690  27.222  0.0120 -0.0154 -0.3003
49899W        W92816   8.637  31.733  23.901  0.2810 -0.1653 -0.0128
49900W        W92817   9.817  32.315  25.397 -0.3272 -0.2771  0.2135
49901W        W92818   9.694  34.151  26.005  0.0160  0.0039  0.1997
49902W        W92819  11.915  31.034  26.480  0.0338  0.1133  0.1707
49903W        W92820   7.701  32.174  23.856 -0.1072  0.0132 -0.0910
49904W        W92821   9.163  32.724  26.532  0.1481  0.0193  0.3092
49905W        W92822  10.571  31.484  22.337  0.2425 -0.0305 -0.1469
49906W        W92823   9.662  31.239  24.483  0.1651 -0.1135 -0.0640
49907W        W92824  10.864  31.929  26.222 -0.3711 -0.1074  0.0956
49908W        W92825  10.194  30.598  26.408  0.0500  0.1387 -0.1617
49909W        W92826   8.093  31.616  24.819 -0.0747 -0.0569 -0.1198
49910W        W92827   9.771  33.561  25.208  0.1098  0.2472 -0.1375
49911W        W92828  10.372  33.240  26.905  0.0994 -0.5079 -0.0423
49912W        W92829  10.907  32.972  26.064 -0.1889  0.0392  0.1397
49913W        W92830   8.367  30.659  24.752 -0.0925 -0.1685  0.0210
49914W        W92831   7.537  31.790  24.849 -0.2794 -0.0536 -0.0276
49915W        W92832   9.368  31.609  26.340 -0.1341  0.0381 -0.2422
49916W        W92833   8.710  29.835  26.061 -0.1368 -0.0764  0.2849
49917W        W92834   8.850  32.290  25.774  0.0411 -0.3369  0.1894
49918W        W92835  10.578  29.635  28.791 -0.0262  0.2379 -0.0381
49919W        W92836   6.399  32.678  25.846 -0.1281  0.2194  0.0347
49920W        W92837   8.143  31.662  23.159 -0.0801 -0.1115  0.0066
49921W        W92838  10.369  30.788  24.001 -0.0094  0.0682 -0.0310
49922W        W92839   9.115  29.841  24.788 -0.1795 -0.0268  0.2756
49923W        W92840   9.701  29.895  24.836  0.1234  0.0055 -0.4063
49924W        W92841   6.734  31.837  26.073  0.2812  0.0078 -0.1641
49925W        W92842   7.585  28.925  26.760 -0.1590  0.0579  0.1412
49926W        W92843  12.127  31.550  25.955 -0.4263  0.1877  0.1259
49927W        W92844   9.142  31.670  23.828  0.2366  0.0835  0.0472
49928W        W92845   9.099  30.870  25.310 -0.1919  0.3110 -0.2135
49929W        W92846   8.451  30.370  26.482 -0.2004 -0.2388 -0.2507
49930W        W92847   5.834  30.154  23.618  0.2406 -0.1662  0.1104
49931W        W92848  10.563  34.388  23.967  0.1603  0.0155 -0.0587
49932W        W92849   8.920  30.953  24.122  0.0522 -0.1056  0.1149
49933W        W92850   8.774  33.295  23.660  0.1497 -0.1481 -0.2534
49934W        W92851   8.720  30.936  24.971 -0.0268 -0.5658 -0.0222
49935W        W92852   7.041  30.462  26.898  0.1955 -0.3718 -0.0851
49936W        W92853   6.015  29.816  24.489  0.0569 -0.3505  0.1408
49937W        W92854   9.212  29.964  22.628  0.0124 -0.0295  0.1990
49938W        W92855  10.141  31.748  27.277  0.1510 -0.1336 -0.0040
49939W        W92856   8.674  31.464  25.693  0.0163  0.1771 -0.1762
49940W        W92857  11.712  32.039  22.344  0.0805  0.1773 -0.2229
49941W        W92858   8.508  32.418  26.137  0.2513 -0.2864  0.1589
49942W        W92859  11.670  30.360  26.075  0.1342 -0.0147 -0.1518
49943W        W92860  11.593  30.053  23.543 -0.2954 -0.1220  0.0231
49944W        W92861   9.509  28.629  25.210  0.0000  0.1345  0.2791
49945W        W92862   8.833  30.708  25.815  0.2705 -0.1307  0.0813
49946W        W92863   6.364  31.722  24.233  0.2919 -0.1570  0.3119
49947W        W92864   9.189  31.104  24.557  0.0680 -0.1366  0.0588
49948W        W92865  10.645  33.556  27.263  0.0070  0.0737  0.3983
49949W        W92866  11.155  30.294  25.072  0.2924 -0.0569 -0.1696
49950W        W92867   7.855  33.492  25.584  0.1197  0.1012 -0.1576
49951W        W92868   9.898  31.023  28.118 -0.1169  0.0487 -0.0345
49952W        W92869   7.569  31.779  26.950  0.0257  0.0505  0.2102
49953W        W92870   7.514  34.323  26.141  0.3752  0.1785 -0.0082
49954W        W92871   7.850  32.673  26.465 -0.0062  0.0483 -0.0960
49955W        W92872   7.637  31.391  24.511  0.0856 -0.1303  0.0236
49956W        W92873  11.004  28.656  25.042 -0.2997 -0.4192 -0.0355
49957W        W92874   5.978  30.094  26.313 -0.2008  0.0566  0.0458
49958W        W92875   9.719  28.105  23.695 -0.1198  0.0112 -0.2167
49959W        W92876   8.198  29.192  27.020  0.1918  0.1570  0.4218
49960W        W92877  11.228  29.147  25.291  0.2209  0.1489  0.1670
49961W        W92878   7.753  31.318  26.648  0.0877 -0.0140 -0.0399
49962W        W92879  11.177  32.418  23.762  0.1295  0.0585  0.1329
49963W        W92880   8.937  30.295  21.832  0.0022  0.0503 -0.1103
49964W        W92881   9.954  32.363  21.532 -0.0505 -0.4015  0.0352
49965W        W92882   6.748  30.127  26.515  0.0100  0.2224 -0.1396
49966W        W92883   8.196  29.150  24.288 -0.0296  0.2814 -0.0329
49967W        W92884   8.831  28.703  27.601 -0.1477  0.1307  0.0470
49968W        W92885  10.391  28.846  25.800 -0.2129  0.2489  0.3858
49969W        W92886   9.931  28.810  25.470  0.0332 -0.2606 -0.0271
49970W        W92887   7.783  30.431  23.172  0.0561  0.5045 -0.3690
49971W        W92888   9.087  30.881  22.271 -0.0098 -0.0937  0.0075
49972W        W92889   8.309  32.035  24.555  0.0200 -0.2756  0.2629
49973W        W92890   6.771  32.734  25.484  0.0492 -0.1790  0.0827
49974W        W92891  10.918  29.915  27.906  0.1557  0.0786 -0.0571
49975W        W92892   8.540  32.644  22.750 -0.3140  0.1364  0.4107
49976W        W92893  12.478  33.790  27.543 -0.0796 -0.2533 -0.0675
49977W        W92894   9.853  32.584  25.852  0.1473  0.2728  0.2153
49978W        W92895   8.183  29.939  26.445  0.3303  0.3807  0.1977
49979W        W92896   6.034  31.154  22.734 -0.1569  0.2566 -0.1439
49980W        W92897   7.668  32.098  24.449  0.0866  0.2001 -0.0019
49981W        W92898   8.745  32.427  24.751  0.1511 -0.1750 -0.2465
49982W        W92899   8.635  30.271  24.761 -0.2302 -0.2342 -0.1603
49983W        W92900   8.964  33.347  24.509 -0.1245 -0.2014 -0.3170
49984W        W92901   8.018  32.123  23.281 -0.2750 -0.0249 -0.0014
49985W        W92902   8.353  31.660  27.494  0.1041  0.0558 -0.2153
49986W        W92903  11.105  28.266  26.917  0.2529  0.1955  0.0223
49987W        W92904  11.274  30.401  25.572  0.1661  0.1769 -0.0340
49988W        W92905  11.034  31.000  25.682 -0.1744 -0.0571  0.0455
49989W        W92906   8.791  30.526  23.171 -0.1412 -0.0478 -0.0454
49990W        W92907  11.571  33.758  27.295 -0.1911 -0.1646 -0.1772
49991W        W92908   9.723  32.637  24.342 -0.0091 -0.1756  0.1966
49992W        W92909   6.911  31.797  24.864 -0.0887  0.0201 -0.1592
49993W        W92910   8.515  33.419  23.015  0.0040  0.0994  0.0419
49994W        W92911  11.125  29.625  25.695  0.1442 -0.1070  0.1716
49995W        W92912   7.530  29.778  26.776 -0.1516  0.2872 -0.0609
49996W        W92913  10.726  29.426  27.343  0.0800 -0.0782  0.0286
49997W        W92914   9.238  30.860  23.214 -0.5655  0.1646  0.0881
49998W        W92915   7.095  30.847  27.812 -0.0991 -0.0657  0.0295
49999W        W92916  10.207  29.769  24.786  0.1655  0.1508 -0.2878
50000W        W92917  10.698  28.414  23.466  0.1440  0.2479  0.0947
50001W        W92918  11.102  30.653  27.762  0.2141  0.2095  0.0985
50002W        W92919  10.810  32.852  24.321  0.0963 -0.2761  0.1359
50003W        W92920   9.544  31.448  23.716 -0.1323  0.2029 -0.1722
50004W        W92921  10.138  28.530  23.759 -0.1150  0.0591 -0.1942
50005W        W92922   8.143  30.051  27.447 -0.2979  0.1116 -0.0180
50006W        W92923   8.410  32.209  20.556 -0.3862 -0.1230  0.1100
50007W        W92924   9.671  33.498  24.092  0.0302 -0.0445 -0.0686
50008W        W92925   9.361  29.191  22.658  0.1388  0.1155  0.0849
50009W        W92926   9.822  32.186  23.445 -0.0232 -0.1216 -0.0221
50010W        W92927   7.452  30.900  26.530  0.0627  0.0561 -0.0688
50011W        W92928  10.704  29.961  27.460 -0.0965  0.0125  0.3145
50012W        W92929  10.682  32.738  25.620  0.2399  0.2103  0.0735
50013W        W92930   9.027  29.654  24.168 -0.1485 -0.1003  0.3079
50014W        W92931   7.199  31.140  22.867  0.0261  0.2290  0.3494
50015W        W92932   7.580  30.943  24.765 -0.0791 -0.1187 -0.1395
50016W        W92933   5.855  33.213  23.855 -0.2436  0.0130  0.1100
50017W        W92934   8.145  32.119  25.997 -0.3083 -0.1362 -0.1675
50018W        W92935  10.694  28.507  25.997 -0.0300  0.0259  0.3978
50019W        W92936   9.483  29.430  26.169  0.4225 -0.4149 -0.0418
50020W        W92937  10.181  30.702  25.385  0.0834 -0.2213  0.3112
50021W        W92938   9.644  30.283  22.625  0.1682  0.0005 -0.2704
50022W        W92939   7.216  31.382  25.683  0.2021 -0.0140  0.1228
50023W        W92940   5.059  31.059  23.021  0.3676  0.1720  0.0860
50024W        W92941  10.245  29.686  25.322 -0.1333  0.0555 -0.1868
50025W        W92942   8.654  30.433  25.282 -0.2157  0.2714  0.1415
50026W        W92943   8.365  33.788  27.733  0.0183  0.1116 -0.0518
50027W        W92944   9.060  30.246  27.399  0.2427 -0.0337 -0.4416
50028W        W92945   8.706  29.622  23.751 -0.0979 -0.1070  0.2577
50029W        W92946  10.383  28.852  27.150  0.3947 -0.1995  0.0067
50030W        W92947   8.888  27.935  24.233  0.0926  0.0461 -0.2714
50031W        W92948   9.462  30.861  23.740 -0.1338 -0.2913 -0.0959
50032W        W92949   6.954  31.904  22.653 -0.0642  0.0990 -0.0550
50033W        W92950   8.361  30.615  25.635 -0.1355 -0.0594  0.1771
50034W        W92951   8.716  31.741  24.596  0.0264  0.0121 -0.0273
50035W        W92952  10.004  33.095  25.257 -0.2660 -0.1278 -0.3960
50036W        W92953  10.311  31.200  26.677  0.1193  0.1482  0.1005
50037W        W92954   8.536  32.846  25.059  0.1449 -0.0649  0.1638
50038W        W92955  14.185  27.692  24.931  0.1536 -0.1327  0.0041
50039W        W92956   6.383  30.889  25.245  0.1102 -0.1628 -0.0422
50040W        W92957   8.845  30.731  24.533  0.3205  0.1338 -0.2321
50041W        W92958   7.299  30.018  25.456 -0.3019 -0.2353 -0.0735
50042W        W92959  12.358  28.270  24.851 -0.0988  0.1851  0.0789
50043W        W92960  10.973  31.848  23.856  0.0630  0.2477 -0.0994
50044W        W92961   6.878  29.745  26.125  0.0817 -0.0802 -0.1192
50045W        W92962   7.659  32.093  26.070  0.0080 -0.0102 -0.0613
50046W        W92963   9.546  33.792  26.766  0.2428  0.2403 -0.0296
50047W        W92964  10.225  32.191  24.868 -0.0747 -0.1039 -0.2203
50048W        W92965   9.191  28.300  23.699 -0.1703 -0.2355 -0.2200
50049W        W92966   9.909  31.741  25.472 -0.0820 -0.1385  0.1661
50050W        W92967   7.577  31.258  27.130  0.0231  0.0741 -0.1310
50051W        W92968   7.143  31.385  21.026  0.2762  0.1373  0.2469
50052W        W92969  10.260  28.477  26.759 -0.1388 -0.3279  0.1277
50053W        W92970   7.727  29.613  24.865  0.2404  0.2050 -0.0373
50054W        W92971   7.877  31.306  25.142 -0.1266 -0.1934  0.2849
50055W        W92972  10.176  30.712  27.410  0.2369  0.0626 -0.0165
50056W        W92973   7.028  30.143  23.839  0.0181  0.1504 -0.2699
50057W        W92974   9.325  32.652  24.697 -0.1716 -0.0158  0.1532
50058W        W92975   8.371  29.197  25.544  0.1585  0.0547 -0.1854
50059W        W92976   9.850  32.034  26.984 -0.0721 -0.0053  0.3618
50060W        W92977   8.596  29.675  25.568  0.4266  0.1664 -0.0399
50061W        W92978   7.484  30.403  24.056  0.2319 -0.0769 -0.1920
50062W        W92979   7.747  29.987  25.196  0.1900 -0.3356 -0.0564
50063W        W92980   9.416  30.231  25.101  0.4941  0.0739  0.2066
50064W        W92981   9.801  31.624  25.917  0.0120  0.0745 -0.0181
50065W        W92982   9.094  30.895  28.489  0.0761 -0.0453 -0.0673
50066W        W92983   9.823  29.252  25.218  0.0741 -0.0199 -0.0922
50067W        W92984   9.280  31.181  22.651  0.0306 -0.0265  0.0173
50068W        W92985   9.447  31.435  25.648  0.2113 -0.0369  0.1934
50069W        W92986   8.551  30.658  23.807  0.0318  0.1916 -0.1419
50070W        W92987   8.970  31.105  26.864  0.1849 -0.2511 -0.0598
50071W        W92988   9.327  32.277  25.150  0.0532  0.0095  0.0952
50072W        W92989   7.694  29.985  26.255  0.1477  0.1525  0.2771
50073W        W92990  10.435  32.788  26.116  0.2389  0.0128  0.2321
50074W        W92991   6.781  32.741  23.458 -0.0316  0.1960  0.2781
50075W        W92992  10.046  32.884  27.504  0.1326  0.4075  0.0203
50076W        W92993  10.332  28.246  25.295 -0.0962  0.1760 -0.2591
50077W        W92994   9.380  31.873  23.333 -0.1353  0.2401  0.0611
50078W        W92995   8.470  30.167  23.282  0.0181 -0.0690 -0.0179
50079W        W92996   9.578  30.519  23.415  0.2723 -0.3474  0.2691
50080W        W92997  10.386  31.956  23.399 -0.1432  0.2152  0.0320
50081W        W92998  11.125  28.750  26.219  0.2422 -0.1420  0.1795
50082W        W92999   8.829  30.052  27.804 -0.3390  0.1662  0.1100
50083W        W93000   9.998  33.066  26.194 -0.0056  0.1515  0.0276
50084W        W93001   8.611  28.738  25.762  0.1106 -0.2217 -0.0826
50085W        W93002  10.912  33.698  28.027  0.0677  0.1951 -0.1851
50086W        W93003   9.022  31.421  24.884  0.0485  0.3271  0.0339
50087W        W93004   9.099  29.543  25.885 -0.1030  0.0364  0.2403
50088W        W93005   7.977  29.967  23.490 -0.0059 -0.1621  0.0671
50089W        W93006   9.867  30.323  25.526  0.1924  0.4929  0.3619
50090W        W93007   9.051  32.213  26.255 -0.1060  0.0416  0.3514
50091W        W93008   8.694  33.615  24.219 -0.3145  0.1465  0.1704
50092W        W93009   9.482  31.202  24.958  0.1682  0.0316  0.0907
50093W        W93010   8.117  30.849  25.204  0.2477 -0.0692 -0.0515
50094W        W93011  10.468  31.752  24.785  0.1592  0.0209 -0.3386
50095W        W93012   7.810  30.933  26.145  0.2480  0.2672  0.4984
50096W        W93013   8.468  31.972  25.614  0.2916 -0.0233  0.0507
50097W        W93014   8.884  28.497  26.818  0.2116 -0.0407 -0.0085
50098W        W93015   9.425  31.916  25.580 -0.3405 -0.1518 -0.0829
50099W        W93016  11.762  29.068  24.671  0.2869  0.0992  0.2153
50100W        W93017   9.149  30.407  25.511  0.0772 -0.1341  0.1671
50101W        W93018  11.972  30.744  24.640  0.0477 -0.1347  0.2066
50102W        W93019   9.649  30.741  25.247  0.0338 -0.0455 -0.1093
50103W        W93020   5.115  31.107  27.906 -0.1290  0.1591  0.4047
50104W        W93021  10.046  32.469  26.285 -0.1349  0.0721  0.1705
50105W        W93022  12.738  29.858  22.480  0.0293 -0.0179 -0.1914
50106W        W93023   9.458  30.669  24.768  0.0694 -0.0719 -0.0495
50107W        W93024  10.462  31.420  22.863  0.0590 -0.2259 -0.1745
50108W        W93025   9.621  31.265  23.224  0.0863 -0.2443 -0.2777
50109W        W93026   8.566  31.545  25.033 -0.1325  0.3680  0.0920
50110W        W93027   9.484  30.033  27.176 -0.0165 -0.0432 -0.0973
50111W        W93028   8.655  31.636  22.997 -0.1065 -0.0386 -0.1228
50112W        W93029   8.096  29.016  26.592  0.0378  0.1857 -0.0162
50113W        W93030   9.010  33.992  24.150 -0.1526  0.1498  0.1048
50114W        W93031  11.148  31.517  26.307  0.0779  0.1378  0.1824
50115W        W93032   9.350  33.245  25.443 -0.3436  0.0392  0.0296
50116W        W93033   8.270  29.447  24.703  0.1799  0.1561 -0.1170
50117W        W93034   9.120  33.739  29.076 -0.0513  0.1013  0.0639
50118W        W93035   7.496  29.762  23.986  0.0634 -0.0581 -0.0192
50119W        W93036   8.350  31.176  22.953 -0.0503 -0.0606 -0.2134
50120W        W93037  11.512  30.853  25.823  0.0229 -0.3355 -0.0544
50121W        W93038  12.120  31.566  27.161  0.2939  0.2030 -0.0459
50122W        W93039   7.188  31.104  24.350  0.0711  0.2761 -0.0749
50123W        W93040  10.871  31.159  26.747  0.1427  0.1194 -0.0242
50124W        W93041   7.279  32.071  26.631 -0.0656  0.3620 -0.0588
50125W        W93042  11.463  28.318  25.497  0.0511  0.0869  0.1610
50126W        W93043   8.061  31.991  26.909 -0.1972  0.4335  0.1308
50127W        W93044   7.849  32.086  25.557 -0.0501  0.2190 -0.3455
50128W        W93045   8.214  33.673  27.225  0.2306 -0.3108  0.4155
50129W        W93046   8.670  29.261  25.965 -0.0089 -0.0083  0.0551
50130W        W93047  10.344  29.260  25.002 -0.1360 -0.3911 -0.1386
50131W        W93048   8.803  31.472  26.297  0.1547  0.0511  0.0239
50132W        W93049  11.935  29.686  28.573 -0.1346  0.4245 -0.0801
50133W        W93050  11.648  29.475  25.592 -0.1599 -0.0190 -0.2652
50134W        W93051   7.247  30.378  25.068  0.1387  0.3770 -0.1269
50135W        W93052  10.955  31.753  24.924 -0.1379  0.3490  0.2954
50136W        W93053   9.932  31.888  26.289 -0.0876 -0.0379 -0.0990
50137W        W93054   9.453  33.845  24.894 -0.3251  0.2319 -0.3523
50138W        W93055   6.488  29.696  26.993  0.0393  0.1441 -0.1250
50139W        W93056   9.170  29.449  27.408 -0.3090  0.1862 -0.2694
50140W        W93057   8.197  30.247  25.024  0.0750 -0.0610  0.2602
50141W        W93058   6.614  29.778  23.778  0.1697 -0.1618  0.1368
50142W        W93059   8.118  31.331  22.519  0.0890 -0.2342  0.1672
50143W        W93060   8.627  30.529  28.217  0.2761 -0.1386 -0.0916
50144W        W93061   6.637  29.469  27.930  0.1054 -0.0676 -0.1827
50145W        W93062   6.812  32.166  24.405 -0.1137 -0.0903  0.2618
50146W        W93063   9.213  28.760  24.181  0.0984 -0.1398 -0.2708
50147W        W93064   8.279  32.559  23.192 -0.0332  0.0592 -0.0352
50148W        W93065   9.426  32.091  23.834  0.2573 -0.0985 -0.0578
50149W        W93066   8.457  31.145  23.815  0.2298  0.3053  0.1012
50150W        W93067   9.194  33.954  23.632 -0.1272 -0.0506  0.0929
50151W        W93068   6.381  31.463  24.904  0.0695  0.0629  0.0005
50152W        W93069  10.437  32.504  21.514 -0.1211  0.1554  0.0033
50153W        W93070   8.061  31.068  24.590  0.1600 -0.1240  0.1692
50154W        W93071  10.003  32.110  25.841  0.1210  0.2891 -0.2116
50155W        W93072  10.464  28.563  22.537 -0.0240  0.1396  0.0132
50156W        W93073  10.802  31.382  24.538 -0.2347 -0.2028  0.0578
50157W        W93074  10.913  30.229  24.499  0.3669  0.3845  0.2625
50158W        W93075   9.104  30.465  27.858  0.3363  0.0673 -0.0412
50159W        W93076   9.480  31.982  26.048 -0.0680 -0.2842  0.0293
50160W        W93077   9.437  30.352  23.929  0.0845 -0.3562 -0.1622
50161W        W93078   7.726  30.422  27.412  0.0174 -0.5468  0.2185
50162W        W93079  13.043  30.094  25.991  0.0313  0.0770 -0.3846
50163W        W93080   7.749  33.111  25.945  0.1987 -0.2531  0.1192
50164W        W93081   8.611  32.652  23.921 -0.0687 -0.0614 -0.1951
50165W        W93082   7.294  30.259  22.922  0.0097  0.0330  0.1483
50166W        W93083   8.036  30.837  23.807  0.3136  0.1002 -0.0518
50167W        W93084  10.916  28.901  27.192 -0.0794  0.1530  0.2461
50168W        W93085   9.231  30.684  21.446 -0.1448  0.3283 -0.2989
50169W        W93086   9.887  28.051  25.097 -0.2264  0.0693 -0.1560
50170W        W93087   7.874  32.556  25.726 -0.1306 -0.4635  0.4526
50171W        W93088  10.096  33.932  25.848  0.0279 -0.4582  0.1501
50172W        W93089   8.212  32.569  24.737 -0.1429 -0.3951  0.0661
50173W        W93090   8.072  29.514  23.828 -0.0711  0.1811 -0.1572
50174W        W93091   9.740  32.611  26.633 -0.2322 -0.1711 -0.1029
50175W        W93092   7.000  30.604  26.414  0.0220 -0.1676  0.1595
50176W        W93093   9.010  31.462  24.249 -0.0282  0.1988 -0.0451
50177W        W93094   8.957  33.076  24.063 -0.2966  0.1668 -0.1253
50178W        W93095   9.951  29.851  24.373  0.0327  0.1254 -0.0447
50179W        W93096  10.782  30.420  25.453 -0.1080 -0.1475  0.1197
50180W        W93097   8.034  29.956  24.690  0.0234 -0.0267  0.1647
50181W        W93098   8.293  31.376  24.226  0.0137 -0.1374 -0.1462
50182W        W93099  10.429  31.105  27.202  0.0785 -0.3745 -0.0774
50183W        W93100  10.003  30.493  20.963 -0.0783 -0.4231 -0.0295
50184W        W93101   9.279  30.111  26.572 -0.0537 -0.0195  0.0807
50185W        W93102   8.653  31.021  25.512 -0.1768  0.3209 -0.0563
50186W        W93103   7.987  29.612  24.343  0.1727 -0.2510 -0.0073
50187W        W93104   9.000  31.213  23.628 -0.3960 -0.0495 -0.2865
50188W        W93105   9.143  28.913  27.204 -0.0930 -0.4271 -0.1408
50189W        W93106   9.474  31.992  29.691 -0.2760 -0.1682  0.0207
50190W        W93107   8.183  27.515  24.979 -0.0996 -0.0758 -0.0138
50191W        W93108  11.637  31.453  23.157 -0.1109 -0.0442 -0.0232
50192W        W93109   9.867  31.881  24.861 -0.1545 -0.2418  0.0756
50193W        W93110   7.613  31.697  24.054 -0.1075 -0.0015 -0.3634
50194W        W93111   9.549  31.721  22.892  0.1508 -0.2780  0.0896
50195W        W93112  10.332  33.757  26.725 -0.2874 -0.1738 -0.0277
50196W        W93113   8.962  29.071  25.577  0.1570 -0.1023 -0.0425
50197W        W93114  10.256  31.017  26.142  0.2854 -0.2947  0.0525
50198W        W93115  10.453  32.345  25.883 -0.0069 -0.1791  0.0419
50199W        W93116   7.960  30.394  23.750 -0.1913  0.2444 -0.0072
50200W        W93117   8.254  31.581  25.981  0.3269  0.2018 -0.0970
50201W        W93118   9.008  32.045  24.324  0.1118 -0.3036  0.0030
50202W        W93119  10.835  30.874  24.267 -0.2163 -0.5393  0.0612
50203W        W93120  10.709  30.460  26.317  0.2827 -0.1468 -0.0748
50204W        W93121   8.077  32.837  22.616  0.0554  0.2683  0.1037
50205W        W93122   9.764  30.231  26.093  0.0087  0.4954 -0.1677
50206W        W93123   9.445  33.663  26.278  0.0301  0.0279 -0.0408
50207W        W93124   9.799  31.446  27.730  0.0304  0.0020 -0.0300
50208W        W93125   6.001  32.641  25.611 -0.1280  0.0170  0.0211
50209W        W93126  10.624  31.516  26.476 -0.0309  0.1514  0.1029
50210W        W93127   9.714  34.052  23.563 -0.2456  0.0795  0.1277
50211W        W93128   8.864  32.749  26.057 -0.0637 -0.1649 -0.1976
50212W        W93129   9.330  31.694  24.618 -0.2407  0.0192  0.0989
50213W        W93130  10.056  31.297  23.981 -0.1663 -0.1852  0.0898
50214W        W93131   9.961  31.403  24.884  0.1893  0.0689  0.1840
50215W        W93132   8.168  29.609  26.047  0.0675  0.2376  0.4502
50216W        W93133  10.309  29.245  23.659 -0.1744 -0.1410  0.0126
50217W        W93134   9.837  30.227  23.105 -0.0831  0.0385 -0.0224
50218W        W93135   8.090  30.587  27.134  0.0464  0.2334 -0.2706
50219W        W93136   7.045  30.605  24.151 -0.0053 -0.5124 -0.3039
50220W        W93137   8.050  32.484  24.282  0.2472  0.2005 -0.3132
50221W        W93138   6.740  30.224  24.261 -0.1252  0.1254  0.1329
50222W        W93139   9.554  28.762  25.770  0.2765  0.2181 -0.3473
50223W        W93140   9.767  28.521  27.578  0.0855 -0.1915 -0.1105
50224W        W93141   7.093  30.889  26.001  0.3089 -0.1332  0.0863
50225W        W93142   9.044  30.573  23.690 -0.0600  0.0870 -0.1542
50226W        W93143   9.776  32.731  23.537  0.1432  0.1558  0.0636
50227W        W93144   9.187  28.994  26.049 -0.0184 -0.0538  0.0920
50228W        W93145   8.225  28.637  24.445  0.1169  0.0946 -0.0414
50229W        W93146   7.385  31.577  22.657  0.3487  0.1020  0.3426
50230W        W93147   9.280  32.892  25.832  0.1060 -0.1446  0.0454
50231W        W93148  10.314  30.203  25.363 -0.1353 -0.3466  0.0104
50232W        W93149  10.910  33.380  27.589  0.0998  0.0979  0.0659
50233W        W93150   6.438  32.479  23.203  0.2404  0.1294 -0.1319
50234W        W93151   8.649  28.900  25.239  0.2786  0.1094  0.3071
50235W        W93152   7.880  30.245  26.737  0.1716 -0.0391 -0.1184
50236W        W93153   7.536  30.670  22.827  0.1909  0.1031  0.3649
50237W        W93154   8.256  29.746  25.131  0.3537 -0.1890 -0.0195
50238W        W93155   9.102  31.695  25.892 -0.1280 -0.1052  0.2303
50239W        W93156  10.947  32.046  19.974 -0.0680  0.4009 -0.0245
50240W        W93157   8.727  31.937  27.015  0.0410  0.1804 -0.2738
50241W        W93158   8.680  29.896  26.535 -0.1814  0.1277 -0.1566
50242W        W93159   8.494  29.554  26.991 -0.1087 -0.1171  0.0243
50243W        W93160   8.824  34.019  23.278 -0.0307 -0.3870  0.0826
50244W        W93161   9.522  31.150  26.070  0.2958 -0.1897 -0.0816
50245W        W93162  10.994  32.411  24.623 -0.0943  0.1885 -0.0880
50246W        W93163  11.655  30.293  26.643 -0.0280 -0.0097  0.2384
50247W        W93164   8.988  32.002  24.933 -0.0723  0.4777  0.1652
50248W        W93165   7.676  29.328  27.000  0.1194 -0.1734 -0.1849
50249W        W93166   8.288  30.891  28.049  0.0125 -0.0614 -0.0537
50250W        W93167  11.402  32.432  26.180 -0.0249  0.1032  0.3014
50251W        W93168   7.211  29.294  24.902 -0.2822  0.2185 -0.1523
50252W        W93169   8.349  31.132  22.084  0.1965 -0.1289  0.0687
50253W        W93170   7.882  31.733  22.642  0.0230 -0.1633 -0.2853
50254W        W93171   8.109  31.262  26.325 -0.2318 -0.1042  0.1697
50255W        W93172   9.318  29.393  23.203  0.0314 -0.2675  0.1502
50256W        W93173   9.817  29.388  24.542  0.0778 -0.1829 -0.1000
50257W        W93174   9.462  32.508  26.137 -0.2074 -0.1919  0.0173
50258W        W93175   8.967  31.832  25.429  0.2286  0.1284  0.0976
50259W        W93176   7.605  29.948  23.159  0.0222 -0.3146 -0.4265
50260W        W93177   9.429  31.804  25.100 -0.0415 -0.0198 -0.0301
50261W        W93178   9.508  32.465  27.016 -0.0433 -0.1595 -0.2668
50262W        W93179  11.326  33.389  24.708 -0.0410 -0.4349  0.1727
50263W        W93180   8.838  33.228  25.070  0.1290  0.0323 -0.2871
50264W        W93181  10.398  30.773  24.513  0.2659  0.1146 -0.1702
50265W        W93182   8.486  29.405  26.420  0.2230  0.0458 -0.1661
50266W        W93183   6.373  31.157  23.153  0.3924  0.1085  0.4893
50267W        W93184  10.021  31.799  23.777 -0.1981  0.0860  0.1274
50268W        W93185   9.438  29.227  23.962  0.0211 -0.0797  0.2497
50269W        W93186   7.438  29.526  25.445 -0.1059  0.2219 -0.1139
50270W        W93187   8.812  29.941  25.187  0.1186  0.1752  0.1099
50271W        W93188   9.019  32.319  26.822  0.1009 -0.0569  0.2117
50272W        W93189   9.547  31.166  21.588 -0.0908  0.1829 -0.1790
50273W        W93190   8.911  33.394  31.657 -0.2578  0.1459  0.0060
50274W        W93191   8.287  28.769  27.511 -0.2995  0.2439  0.0348
50275W        W93192  10.636  28.351  27.132  0.0326  0.0460 -0.0678
50276W        W93193   8.856  29.510  27.833 -0.1750  0.0809  0.0509
50277W        W93194   8.583  28.077  26.913 -0.0842 -0.0232  0.0987
50278W        W93195  10.553  32.899  27.584 -0.0316  0.1273  0.1136
50279W        W93196   7.995  28.909  31.341  0.2735  0.4651  0.1328
50280W        W93197   8.733  32.103  30.237 -0.1289  0.0016 -0.0012
50281W        W93198  10.219  30.115  26.332  0.1558 -0.1771  0.1094
50282W        W93199  12.297  30.640  28.271  0.1131  0.0121  0.0926
50283W        W93200   8.705  30.275   0.041 -0.0941 -0.2277  0.2316
50284W        W93201  10.285  33.094   0.021  0.0234 -0.0417 -0.1490
50285W        W93202   9.181  29.766  28.114 -0.1179 -0.0492  0.2398
50286W        W93203   7.913  29.860  29.203 -0.1389  0.2310 -0.1708
50287W        W93204   8.557  28.642  28.026 -0.3014 -0.1131 -0.2837
50288W        W93205   9.316  31.030  29.853  0.0918 -0.0828  0.2454
50289W        W93206   8.518  29.859  29.524  0.1701  0.1846 -0.0267
50290W        W93207   8.964  29.402  29.466 -0.3947  0.1003  0.1603
50291W        W93208   9.118  32.984  28.560 -0.0921  0.0644  0.2234
50292W        W93209  10.986  26.382  28.208 -0.0167 -0.0566 -0.0184
50293W        W93210  10.828  28.877   1.699  0.0932 -0.1368  0.1288
50294W        W93211   9.341  31.178  26.538  0.0031  0.0932  0.2396
50295W        W93212   7.346  27.972  26.669 -0.1922  0.1180 -0.1120
50296W        W93213   7.576  29.226  29.843 -0.5048  0.5124 -0.1762
50297W        W93214   9.498  29.149  31.109  0.3349 -0.2736 -0.0685
50298W        W93215   9.953  29.867  26.923 -0.1325  0.1147 -0.0229
50299W        W93216   9.620  29.730  28.349  0.0258 -0.0795  0.0066
50300W        W93217   7.770  32.145  30.996  0.0343  0.0577 -0.0425
50301W        W93218   7.058  32.744  30.977  0.0860 -0.1605  0.1242
50302W        W93219  11.781  29.407  31.724 -0.3602  0.0867  0.2332
50303W        W93220   9.490  30.052  28.883  0.0829 -0.0048  0.0183
50304W        W93221   8.955  31.981  27.494 -0.0159 -0.1787 -0.0686
50305W        W93222   9.707  31.991  30.184 -0.1087  0.1127 -0.1882
50306W        W93223  10.098  31.579  28.868 -0.0592  0.0845  0.0322
50307W        W93224  10.452  32.182  27.118  0.3927 -0.0788 -0.2053
50308W        W93225   7.449  32.537  30.715  0.2027 -0.3185  0.0067
50309W        W93226   8.845  28.722  29.482  0.0791  0.0161  0.0922
50310W        W93227   9.650  32.484  30.018  0.2614 -0.0916  0.1900
50311W        W93228   9.739  30.767  29.816  0.1343  0.1096  0.0001
50312W        W93229   8.681  29.706  29.034 -0.3244  0.1359 -0.0142
50313W        W93230   8.910  31.858  28.912 -0.2985  0.1611  0.0762
50314W        W93231   8.787  31.506  29.614  0.0219  0.1177  0.0105
50315W        W93232   9.793  30.537  27.725  0.2306 -0.1993  0.2755
50316W        W93233   9.567  30.293  29.909 -0.1177 -0.0802 -0.3583
50317W        W93234   8.837  31.347  29.049  0.0505  0.0315  0.3939
50318W        W93235  11.106  29.925  30.855  0.0629  0.2778 -0.0990
50319W        W93236   8.885  29.797  28.610 -0.1835  0.0076  0.4326
50320W        W93237  11.006  29.242  26.866 -0.1828  0.2111 -0.2583
50321W        W93238   8.357  30.146  25.981 -0.2125 -0.1827 -0.4129
50322W        W93239   9.405  29.339  28.040 -0.0376  0.1973  0.1054
50323W        W93240  10.182  27.102  30.811 -0.0766 -0.2577  0.0701
50324W        W93241   9.521  32.792  27.402 -0.2294  0.0657  0.2462
50325W        W93242   8.667  30.665  29.348  0.0203 -0.0019  0.1758
50326W        W93243   9.970  29.391  29.467 -0.0442 -0.0374 -0.0082
50327W        W93244  10.318  30.386  28.473  0.0593 -0.1322  0.2232
50328W        W93245  10.316  29.106  29.721  0.0775 -0.1005  0.1954
50329W        W93246   9.133  30.554  29.121  0.1982 -0.1590 -0.2043
50330W        W93247   7.207  29.621  27.237  0.1584 -0.1186  0.0266
50331W        W93248   9.753  30.790  26.340 -0.1649  0.0385  0.1106
50332W        W93249  10.358  30.627  28.948  0.1453  0.0040  0.1300
50333W        W93250  10.033  31.647  24.448 -0.0426  0.0296 -0.3737
50334W        W93251   8.267  31.385  28.143 -0.1431 -0.2772 -0.0488
50335W        W93252   8.528  32.186  29.226  0.1212  0.0317 -0.0374
50336W        W93253   7.746  30.805  29.460  0.3727  0.2555 -0.0463
50337W        W93254   9.631  29.579  27.346 -0.1147 -0.2156 -0.2328
50338W        W93255  10.255  31.066  30.292 -0.0653 -0.4251 -0.2603
50339W        W93256   9.189  32.802  30.160 -0.0608 -0.0925  0.1303
50340W        W93257  10.296  29.653  29.177 -0.0604  0.1117 -0.0287
50341W        W93258   7.673  30.792  27.758 -0.0384 -0.0123  0.0375
50342W        W93259   9.535  30.602  28.155 -0.0579  0.1867 -0.0186
50343W        W93260  11.088  29.711  26.593 -0.1310 -0.1954 -0.1038
50344W        W93261   8.517  29.243  31.287  0.1802  0.0300  0.1947
50345W        W93262   9.677  29.564  29.020  0.0419  0.0459 -0.1684
50346W        W93263   9.495  31.013  27.804  0.1283 -0.1826  0.1104
50347W        W93264   8.637  30.653  27.699  0.0993  0.0992 -0.0595
50348W        W93265  11.635  31.604  30.633 -0.0265  0.0611 -0.0307
50349W        W93266  11.538  30.450  27.670 -0.1121  0.0017  0.0451
50350W        W93267   7.377  33.642  30.739 -0.0633  0.3604 -0.0742
50351W        W93268   9.385  28.704  31.326 -0.1544  0.1050 -0.2838
50352W        W93269   8.362  33.889  31.176  0.2461  0.1801 -0.0106
50353W        W93270   8.039  31.175  27.467  0.2783 -0.1987 -0.2474
50354W        W93271   8.719  33.814  28.689 -0.1408 -0.3681 -0.0198
50355W        W93272   5.473  28.884  26.805  0.0134 -0.2358 -0.2096
50356W        W93273   7.496  29.492  27.634  0.0417 -0.0294  0.2310
50357W        W93274   9.783  31.192  28.715 -0.0417  0.1625 -0.3497
50358W        W93275  11.120  29.452  27.772  0.0816 -0.3078  0.1953
50359W        W93276   7.693  30.108  31.841 -0.2559  0.1650  0.0510
50360W        W93277  11.453  28.085  28.680 -0.4673 -0.0681  0.2795
50361W        W93278   8.572  31.680  27.934 -0.0009 -0.0894  0.1390
50362W        W93279  10.492  32.767  27.082  0.0983  0.3770  0.4110
50363W        W93280  10.246  30.646  27.943  0.0306 -0.0607 -0.0976
50364W        W93281   8.176  32.758  26.049 -0.3481 -0.2030  0.0625
50365W        W93282   8.070  33.140  30.971 -0.0523 -0.1312  0.2391
50366W        W93283   8.337  28.802  28.830  0.1530 -0.1506 -0.0863
50367W        W93284   7.003  29.782  30.623 -0.1556 -0.2293  0.1517
50368W        W93285   8.574  28.135  28.278 -0.2058 -0.4162 -0.1401
50369W        W93286   9.683  31.556  30.527 -0.0048  0.0407 -0.1417
50370W        W93287   7.472  29.797  28.051 -0.1698 -0.2087  0.0885
50371W        W93288   8.990  29.741  27.012  0.1575 -0.0305 -0.0611
50372W        W93289   8.570  30.050  28.369 -0.2623  0.1982  0.2259
50373W        W93290   8.157  29.753  29.888  0.1185 -0.0791 -0.0083
50374W        W93291  10.795  29.522  31.664  0.1071 -0.3203  0.3327
50375W        W93292   9.841  32.426  29.477 -0.2659 -0.0581 -0.1451
50376W        W93293   9.670  33.420  30.947 -0.0298 -0.0082 -0.0657
50377W        W93294  10.206  31.730  27.894 -0.3884 -0.0831 -0.0680
50378W        W93295  10.394  29.398  30.761  0.0526 -0.0130  0.1577
50379W        W93296   8.013  30.087  28.299  0.2663 -0.0645 -0.0348
50380W        W93297   9.836  33.181  30.521  0.1652 -0.1351  0.1228
50381W        W93298   9.476  31.806  28.367  0.3872  0.0279 -0.0632
50382W        W93299   8.033  29.111  28.466 -0.1867  0.0162  0.3404
50383W        W93300  10.583  31.510  27.627  0.2395 -0.0779  0.0511
50384W        W93301   9.424  30.920  27.015  0.2375  0.0777 -0.1693
50385W        W93302   8.203  30.376  30.540  0.1516 -0.1140  0.0158
50386W        W93303   9.176  28.261   0.111  0.1292  0.0971  0.2133
50387W        W93304   9.734  30.208  30.401 -0.1291  0.0925 -0.1618
50388W        W93305  10.023  30.300  29.088 -0.0577  0.2056  0.2837
50389W        W93306   7.791  29.310  28.062 -0.1149  0.0532 -0.1165
50390W        W93307  10.045  33.326  28.909 -0.0870  0.2432 -0.0664
50391W        W93308   8.201  32.064  27.834  0.1762 -0.0715  0.1230
50392W        W93309   7.208  30.611  28.744 -0.0248  0.2712  0.0037
50393W        W93310  10.275  33.174  29.440 -0.1067 -0.3614 -0.1059
50394W        W93311   9.846  29.685  27.926 -0.0435 -0.0660  0.1496
50395W        W93312   7.490  30.470  31.150  0.1177  0.1876  0.2121
50396W        W93313  10.425  29.437   0.136  0.0638  0.4211 -0.1763
50397W        W93314   7.348  29.024  27.747  0.1950 -0.3066 -0.1655
50398W        W93315   7.098  33.176  28.795 -0.0025 -0.5408  0.0617
50399W        W93316  10.398  28.905  28.225  0.1118  0.1406  0.0096
50400W        W93317  11.120  28.435  27.876 -0.2341  0.2346  0.2021
50401W        W93318   8.108  32.160  29.566  0.1332 -0.2346 -0.1868
50402W        W93319  12.589  30.312  27.974 -0.1244  0.2633  0.0588
50403W        W93320  10.585  29.332  28.116 -0.0429 -0.0875  0.2612
50404W        W93321   8.492  28.414  27.252 -0.5283  0.0714  0.0540
50405W        W93322   8.499  31.706  29.263 -0.0501 -0.2676  0.1358
50406W        W93323  11.306  29.936  29.358  0.1676 -0.5144 -0.2483
50407W        W93324   8.483  31.012  27.275  0.1722  0.1727 -0.0289
50408W        W93325   9.498  29.658  26.751  0.1172  0.1250 -0.1830
50409W        W93326  10.615  32.239  30.079 -0.1791 -0.2126  0.0529
50410W        W93327   9.988  32.826  29.728  0.2509  0.0492 -0.2074
50411W        W93328   9.710  33.190   0.389  0.3943 -0.1152  0.2070
50412W        W93329  10.286  31.519  26.122  0.0878 -0.0813  0.4475
50413W        W93330   9.630  27.254  31.874 -0.0043 -0.1114  0.0148
50414W        W93331   9.013  29.484  26.430  0.0893 -0.2259  0.1858
50415W        W93332  10.367  27.248  29.175 -0.2481 -0.1655  0.1135
50416W        W93333   7.281  30.549  27.327  0.0017 -0.2146 -0.0685
50417W        W93334   8.618  30.350  29.699  0.1622  0.3184 -0.2545
50418W        W93335   9.328  28.892  30.732 -0.0466 -0.2602  0.0264
50419W        W93336  10.315  30.780  29.882  0.1193  0.2507  0.1568
50420W        W93337  10.619  30.424  31.861 -0.1973 -0.1461 -0.1573
50421W        W93338   9.847  29.952  29.465 -0.1940 -0.0241  0.1277
50422W        W93339   9.493  30.678  30.308 -0.0572  0.0068  0.0462
50423W        W93340   9.457  31.329  28.313  0.1618  0.2349  0.0507
50424W        W93341   9.080  31.978  29.382 -0.0831 -0.2958 -0.1113
50425W        W93342   7.620  31.736  30.335  0.1894  0.0963 -0.0569
50426W        W93343   7.711  32.585  30.281  0.0942  0.0358  0.0703
50427W        W93344  10.536  34.388  30.483 -0.1665 -0.0418  0.0223
50428W        W93345   9.379  30.051  29.380  0.0142  0.0354 -0.2826
50429W        W93346  10.925  29.668  30.451  0.2578 -0.2672 -0.0227
50430W        W93347   8.849  27.632  26.953  0.1404 -0.2561 -0.2081
50431W        W93348   9.036  32.474  27.919 -0.1996 -0.1048 -0.0654
50432W        W93349   9.239  31.492  27.689  0.3896 -0.0336  0.2090
50433W        W93350   8.749  28.969  31.682 -0.0742  0.0904  0.1748
50434W        W93351   8.896  32.885  29.626 -0.2987  0.4526 -0.1644
50435W        W93352   8.108  30.638  27.632  0.1648  0.1466 -0.4365
50436W        W93353  10.437  30.718  30.666 -0.2081 -0.0336 -0.0145
50437W        W93354   7.388  30.138  27.040  0.2506  0.0778  0.0434
50438W        W93355   8.506  30.874  28.530  0.1305  0.2193 -0.0096
50439W        W93356   9.497  33.031  29.520 -0.0401  0.0309 -0.3743
50440W        W93357   9.007  32.498  27.338 -0.2596  0.1047 -0.0525
50441W        W93358   6.974  29.182  26.967 -0.1229  0.0049  0.3168
50442W        W93359   9.908  28.959  27.911 -0.1496  0.3880  0.0905
50443W        W93360  11.018  31.929  27.154 -0.0894 -0.1766  0.0579
50444W        W93361   7.530  28.978  28.679  0.0953  0.4042  0.0771
50445W        W93362   8.426  28.311  31.536  0.2740 -0.1100 -0.2567
50446W        W93363   8.235  32.343  30.971  0.2099  0.0754  0.0633
50447W        W93364   7.450  33.101  30.305  0.0588 -0.0631 -0.1076
50448W        W93365   9.845  28.502  26.114  0.1894 -0.3113 -0.1520
50449W        W93366   9.010  31.074  29.448  0.1743  0.0703 -0.0752
50450W        W93367   9.498  29.790  31.255 -0.0903  0.0229  0.2313
50451W        W93368   7.848  27.889  27.669 -0.2154 -0.0607 -0.0765
50452W        W93369  12.298  30.044  29.429 -0.0486 -0.1288  0.0229
50453W        W93370   9.838  30.745  29.099  0.0494 -0.2494 -0.0517
50454W        W93371   6.603  32.841  28.666 -0.0882  0.0875 -0.1008
50455W        W93372  10.448  34.269  30.042 -0.1363 -0.2245  0.0800
50456W        W93373   9.198  31.544  27.074  0.3443 -0.2130  0.1162
50457W        W93374  10.006  29.291  26.474 -0.2354 -0.4227  0.0571
50458W        W93375  11.078  29.787  31.343 -0.2998  0.1094  0.2925
50459W        W93376  10.059  30.430  29.629 -0.3357 -0.0498  0.1354
50460W        W93377   9.188  29.685  30.809  0.2783 -0.1957 -0.3038
50461W        W93378   8.030  29.032  29.264 -0.0703  0.0480  0.2664
50462W        W93379   9.254  30.449  26.961  0.0723 -0.1109  0.0694
50463W        W93380   9.368  32.212  27.627 -0.3334 -0.1502 -0.1659
50464W        W93381  10.229  31.775  31.234  0.0297  0.0740  0.1127
50465W        W93382   9.503  31.049  29.423 -0.0740 -0.1373 -0.1147
50466W        W93383   9.374  27.447   1.141  0.0536 -0.1419  0.2486
50467W        W93384   9.941  31.564  28.318 -0.0067 -0.1933 -0.1004
50468W        W93385  11.122  30.984   0.065 -0.2933  0.2320  0.1512
50469W        W93386   9.316  30.019  25.990  0.1090  0.0077 -0.1125
50470W        W93387   7.189  29.920  31.499  0.0205 -0.1770 -0.0480
50471W        W93388   9.256  29.052  29.162  0.0642  0.0220 -0.0041
50472W        W93389   9.524  30.134  28.040 -0.2232  0.0766 -0.1103
50473W        W93390   7.190  32.337  31.465  0.1088 -0.2044  0.2651
50474W        W93391   9.491  32.622  29.191  0.5247  0.0353 -0.0488
50475W        W93392   9.744  31.995  29.227  0.0277  0.0776 -0.0407
50476W        W93393  10.057  28.579  28.455  0.1571  0.0537 -0.1265
50477W        W93394  10.633  30.805  25.839  0.1088 -0.0678  0.1370
50478W        W93395   8.275  30.757  29.053 -0.1090 -0.2330 -0.0747
50479W        W93396  11.940  30.381  30.926 -0.1738 -0.0852 -0.1847
50480W        W93397  10.050  29.375  28.805  0.4025 -0.1364 -0.0878
50481W        W93398  10.668  30.814   0.263  0.0677 -0.1919 -0.1863
50482W        W93399   7.812  30.658  28.854  0.0512 -0.1818 -0.0653
50483W        W93400  11.825  32.752  28.314  0.2993  0.1113 -0.0081
50484W        W93401   9.433  28.985  29.659  0.2837 -0.1485 -0.1255
50485W        W93402   7.648  33.963  31.553  0.0157  0.0605 -0.0617
50486W        W93403   9.685  30.023  30.865 -0.1784 -0.1985 -0.0229
50487W        W93404  10.116  28.165  31.452 -0.0403 -0.2900 -0.0894
50488W        W93405   6.815  30.219  28.635  0.5621  0.2542 -0.3495
50489W        W93406   9.796  31.081  30.669  0.0395 -0.3981  0.1162
50490W        W93407  10.960  32.467  30.362 -0.0313  0.2032  0.1972
50491W        W93408   8.205  32.292  26.525 -0.0664 -0.0218  0.1235
50492W        W93409  12.348  31.166  28.465 -0.2270 -0.0785  0.4222
50493W        W93410  10.076  30.678  31.808  0.3059  0.0861 -0.2400
50494W        W93411  10.244  31.124  29.027 -0.1625  0.1036  0.3012
50495W        W93412  10.155  29.193  27.419  0.2439 -0.3009  0.2239
50496W        W93413   8.201  28.007  29.852 -0.1959  0.4185 -0.2348
50497W        W93414   9.177  30.529  29.660  0.0313 -0.0941 -0.0909
50498W        W93415   9.296  32.595  29.633 -0.0024  0.0829 -0.0062
50499W        W93416   8.029  31.016  28.527  0.2553 -0.0903 -0.0769
50500W        W93417  10.204  30.541   1.442  0.3556  0.2472  0.2625
50501W        W93418   9.140  30.236  30.761  0.2150  0.0607 -0.0154
50502W        W93419  10.027  29.754   0.084 -0.2983 -0.1104  0.0848
50503W        W93420   6.124  31.140  29.380 -0.3855  0.2063  0.3390
50504W        W93421   8.236  31.867  28.325 -0.3372 -0.0773  0.1896
50505W        W93422  11.049  30.700  26.699 -0.0009 -0.1417 -0.1310
50506W        W93423  10.371  30.610  31.442 -0.0443  0.0843 -0.0954
50507W        W93424  12.381  28.806  30.049  0.2378  0.1436  0.0128
50508W        W93425   8.923  28.090  27.714  0.3853 -0.1808  0.1687
50509W        W93426  10.410  27.764  31.419  0.1135  0.0155  0.1113
50510W        W93427   8.962  32.449  29.294 -0.0201  0.2909 -0.2175
50511W        W93428  10.010  30.197  28.123 -0.0377 -0.2009 -0.1246
50512W        W93429  11.404  30.411  30.065 -0.1274 -0.0754  0.0226
50513W        W93430   9.287  32.002  27.135  0.1079  0.1640  0.1623
50514W        W93431  10.464  33.487  27.838 -0.1066 -0.0649 -0.0942
50515W        W93432   9.834  30.297  28.581  0.2399  0.2420 -0.2149
50516W        W93433   8.449  29.464  30.410 -0.3028  0.3470 -0.0536
50517W        W93434  11.003  29.373  31.044 -0.3447 -0.1373 -0.2027
50518W        W93435   8.524  29.061  28.441  0.1300 -0.2239 -0.0360
50519W        W93436   8.518  30.345  27.283  0.2042  0.0493 -0.0381
50520W        W93437   9.489  31.901  30.971  0.3075  0.0901 -0.0386
50521W        W93438   8.988  30.818  30.150 -0.1662 -0.1375  0.1035
50522W        W93439   9.858  30.076  27.564 -0.0284  0.1470 -0.0545
50523W        W93440  10.528  30.154  28.949  0.3210  0.1690 -0.0312
50524W        W93441   8.011  31.482  28.697 -0.0999 -0.0912  0.1424
50525W        W93442  11.559  29.842  30.011 -0.2347  0.1067  0.1108
50526W        W93443   9.556  33.938  29.004 -0.1235  0.1008 -0.2249
50527W        W93444   9.793  31.444  29.244 -0.1955  0.3650 -0.2739
50528W        W93445   9.037  33.518  28.388  0.1989 -0.2574 -0.0725
50529W        W93446   7.813  29.223  31.706  0.1463 -0.1167 -0.0792
50530W        W93447  10.532  31.390  28.085 -0.1459 -0.0739 -0.0312
50531W        W93448   8.195  30.685  29.573 -0.2426 -0.0358  0.1735
50532W        W93449  10.724  30.735  31.066 -0.0929  0.1689  0.2636
50533W        W93450  10.093  30.815  31.026  0.2195 -0.0460  0.3216
50534W        W93451   9.658  33.017  28.732  0.2393  0.0883 -0.3330
50535W        W93452   8.835  33.168  30.146  0.2575 -0.0554 -0.1637
50536W        W93453  10.598  32.447  28.916  0.1558 -0.0770 -0.0618
50537W        W93454  10.923  32.484  29.543 -0.0808  0.0751  0.1239
50538W        W93455   6.541  29.207  31.309 -0.1790  0.0562  0.1110
50539W        W93456   9.280  31.296  30.460  0.0311 -0.1142 -0.0298
50540W        W93457  10.007  30.611  30.346 -0.1811  0.0710 -0.2681
50541W        W93458   8.655  29.261  27.431  0.1894  0.0961 -0.2017
50542W        W93459  11.466  30.689  26.392 -0.0099 -0.0477 -0.0603
50543W        W93460   8.339  31.265  30.600 -0.0820  0.2485  0.4954
50544W        W93461   7.464  30.643   0.727 -0.0108 -0.0953  0.1233
50545W        W93462   7.295  32.402  28.088  0.1622  0.1549 -0.1921
50546W        W93463  10.865  31.718  28.319  0.3623 -0.1592 -0.3884
50547W        W93464   9.970  30.820  26.808  0.0566  0.2518  0.0665
50548W        W93465   9.493  31.547  30.034  0.2561  0.0304 -0.1743
50549W        W93466   9.819  30.483  27.163 -0.0323  0.1224  0.0751
50550W        W93467   7.478  32.186  27.641 -0.2500 -0.0608 -0.0114
50551W        W93468   7.288  31.310  28.190 -0.1948  0.0074  0.0993
50552W        W93469  10.635  32.046  27.628 -0.0772 -0.3175 -0.4263
50553W        W93470   9.090  31.914  27.991  0.1858 -0.5856 -0.0503
50554W        W93471   8.588  32.115  31.330 -0.0102 -0.0143 -0.0403
50555W        W93472  10.257  30.237  27.358 -0.1697 -0.3026 -0.2177
50556W        W93473  11.813  30.408  28.641  0.0006 -0.0122  0.1068
50557W        W93474  10.666  29.993  26.536  0.0616 -0.0112  0.1768
50558W        W93475  10.134   0.582  30.747  0.1194  0.1325  0.0483
50559W        W93476   8.704  27.919  30.714  0.3216  0.1165  0.3883
50560W        W93477  10.184  28.620  30.507 -0.0806 -0.0282  0.0554
50561W        W93478   9.146  30.809  30.704  0.0553 -0.0526 -0.2694
50562W        W93479  11.526  29.357  31.296  0.1610  0.0178  0.0329
50563W        W93480   9.244  32.266  31.314 -0.1358 -0.1184 -0.1166
50564W        W93481  10.791  31.360  25.394  0.0843 -0.3147  0.0668
50565W        W93482   5.093  30.014  25.355  0.3179 -0.2769  0.2164
50566W        W93483   8.626  30.951  29.781 -0.3998 -0.1389  0.1059
50567W        W93484  11.143  26.910  30.740 -0.3067  0.2506  0.0734
50568W        W93485  10.378  31.665  25.276  0.1996  0.1690 -0.3869
50569W        W93486   7.241  29.380  31.313 -0.2284 -0.0224  0.0205
50570W        W93487  10.600  33.783  29.236 -0.0166  0.0150  0.2716
50571W        W93488   9.254  32.214  30.105 -0.2727  0.0899 -0.3754
50572W        W93489  10.070  33.709  29.303 -0.0519 -0.2366  0.0912
50573W        W93490   7.736  29.806  27.237  0.1039  0.1953  0.0015
50574W        W93491  10.719  30.391  28.078 -0.0562 -0.2337  0.1209
50575W        W93492   9.908  32.141  31.115  0.2087 -0.0666 -0.0716
50576W        W93493  10.378  28.031  31.870  0.2389 -0.3735 -0.0126
50577W        W93494   7.551  32.417  28.690  0.0737  0.1223 -0.2782
50578W        W93495  11.337  30.906  30.150  0.1888  0.4109 -0.1050
50579W        W93496  10.199  32.427  29.891  0.0455 -0.2475 -0.1411
50580W        W93497   7.941  30.829  30.194  0.3718  0.0301 -0.0299
50581W        W93498   8.527  28.779  26.427  0.0311 -0.0487  0.1136
50582W        W93499  10.878  30.479  28.805  0.1297 -0.3006  0.0954
50583W        W93500   8.649  29.878  27.356  0.0524  0.0853  0.1441
50584W        W93501  10.816  33.611  30.017  0.3294 -0.1375 -0.1123
50585W        W93502   7.353  31.613  28.745 -0.0946  0.0893  0.2253
50586W        W93503   9.486  32.145  26.602  0.1071  0.1517  0.0024
50587W        W93504   7.158  32.728  28.469 -0.1925  0.3914  0.1395
50588W        W93505  10.279  29.576  31.566  0.0992 -0.2845  0.0032
50589W        W93506   9.547  32.458  30.990  0.1013 -0.1524  0.2762
50590W        W93507   8.237  28.523  28.426  0.2067 -0.2237 -0.0218
50591W        W93508   9.914  31.299  26.417  0.0233 -0.0471  0.0153
50592W        W93509   9.297  31.862  30.409  0.2349  0.1319  0.2983
50593W        W93510   9.603  31.772  27.383  0.2007 -0.1710  0.0212
50594W        W93511   8.701  30.347  28.770 -0.1088  0.4236 -0.1069
50595W        W93512  10.730  32.895  29.348  0.3269 -0.1792  0.0238
50596W        W93513  10.108  30.352  30.771 -0.1302  0.1230 -0.2041
50597W        W93514   8.973  33.091  28.043  0.0338  0.0418 -0.0244
50598W        W93515  14.817  31.912  28.271  0.0178 -0.3256  0.0722
50599W        W93516   9.448  29.435  29.453  0.1794 -0.0556 -0.1843
50600W        W93517   9.364  29.859  30.273  0.2948  0.1226  0.0759
50601W        W93518   6.788  32.934  28.208 -0.1396 -0.1192 -0.0700
50602W        W93519  10.435  29.626  30.238  0.1540  0.1024  0.2654
50603W        W93520   8.906  30.133  29.306 -0.2118  0.1074 -0.1543
50604W        W93521   9.951  33.673  27.042 -0.3759 -0.0159 -0.0718
50605W        W93522  10.022  26.828   0.619  0.0678  0.0491 -0.0589
50606W        W93523  10.225  31.234  31.245 -0.3141 -0.1529  0.1584
50607W        W93524   9.149  32.772   0.152 -0.1064  0.0259  0.0614
50608W        W93525   6.868  28.834  28.941  0.0785 -0.1091  0.1258
50609W        W93526   9.060  31.831  29.937 -0.0230 -0.2238  0.0023
50610W        W93527   8.453  32.324  27.043  0.3997  0.0650  0.2790
50611W        W93528  10.966  31.149  27.500  0.1249 -0.0907 -0.1369
50612W        W93529  10.809  31.166  30.655  0.2102 -0.1127  0.0973
50613W        W93530   7.912  30.612  28.172  0.2883  0.2863  0.2455
50614W        W93531  11.902  31.312  28.254 -0.2349 -0.1754  0.2297
50615W        W93532   9.129  26.937  26.721 -0.1558 -0.1777  0.0842
50616W        W93533  11.945  31.867  28.126 -0.1948  0.0534  0.2763
50617W        W93534  10.608  28.541  28.598 -0.1210 -0.2310  0.0585
50618W        W93535   9.627  31.875  27.934  0.0664  0.1907  0.1209
50619W        W93536   8.956  31.041  27.534  0.3183 -0.0909 -0.3816
50620W        W93537   9.071  31.449  28.640 -0.2101 -0.0240  0.0806
50621W        W93538   9.373  32.558  28.698 -0.0636  0.0651  0.3207
50622W        W93539   8.816  28.478   1.033  0.1872 -0.0191 -0.0351
50623W        W93540   6.395  29.647  31.955  0.0486  0.2623 -0.3674
50624W        W93541   6.280  31.943  28.639 -0.1783 -0.2821  0.1365
50625W        W93542   5.976  29.493  28.693 -0.5573  0.0410  0.1354
50626W        W93543   8.810  30.178  26.912 -0.1855  0.2504 -0.2805
50627W        W93544   7.293  29.828  31.026 -0.1140 -0.1807  0.2766
50628W        W93545   9.043  26.594  29.289  0.0079  0.1850 -0.1496
50629W        W93546   9.761  31.015  27.371 -0.1480  0.1463  0.1407
50630W        W93547  10.510  32.069  28.143  0.1778  0.1430 -0.1903
50631W        W93548  10.565  29.725  31.222  0.0158 -0.0208  0.2001
50632W        W93549  10.130  30.964  29.471  0.1622  0.1417 -0.2796
50633W        W93550   7.428  30.495  26.145 -0.0916  0.1089 -0.1422
50634W        W93551  10.519  30.201  31.134  0.2385 -0.0558  0.2101
50635W        W93552   9.452  27.326  31.377  0.1632 -0.0439  0.0060
50636W        W93553   7.163  26.348  27.915  0.0616  0.0580 -0.2084
50637W        W93554  10.029  31.945  29.687  0.3355  0.1519  0.1193
50638W        W93555  11.233  33.427  30.146  0.2747  0.0629 -0.0119
50639W        W93556  11.420  33.072  27.169  0.0261 -0.3666 -0.2879
50640W        W93557   7.022  31.306  30.072 -0.2640  0.2240 -0.0283
50641W        W93558   7.492  32.411  29.555  0.0412 -0.1803 -0.0760
50642W        W93559   8.564  26.640  30.833  0.0136 -0.0231  0.1524
50643W        W93560  10.430  29.140  29.191  0.0479 -0.2105 -0.1655
50644W        W93561   8.839  32.781  30.558  0.6117  0.0382  0.2243
50645W        W93562  10.509  30.716  26.745 -0.2341 -0.0314  0.0819
50646W        W93563   9.166  29.587  28.955 -0.2397 -0.0734  0.1983
50647W        W93564   9.639  30.464  29.427 -0.0777  0.2041 -0.2273
50648W        W93565   9.297  28.821   0.344 -0.2058  0.1338 -0.0727
50649W        W93566   8.815  30.886  28.905 -0.0957  0.1915  0.0794
50650W        W93567  11.698  31.185  29.906  0.2345 -0.3097  0.2903
50651W        W93568   7.834  29.903  28.722 -0.0483 -0.0146  0.1462
50652W        W93569   9.377  29.834  27.656 -0.0732  0.1280  0.2739
50653W        W93570   8.652  32.085  26.561  0.2921 -0.2183 -0.0649
50654W        W93571   8.051  29.615  28.281 -0.1016 -0.1412 -0.1571
50655W        W93572   9.234  28.967  27.675  0.2634  0.3852  0.0881
50656W        W93573   8.215  28.526  30.466  0.3039 -0.0737 -0.1423
50657W        W93574   8.782  32.181  29.723  0.0109 -0.3088  0.1331
50658W        W93575  10.899  30.250  29.285  0.1659 -0.0070 -0.2355
50659W        W93576   8.483  31.190  27.702  0.2863 -0.2852  0.1500
50660W        W93577  11.605  30.554  28.190 -0.1621 -0.1109  0.0334
50661W        W93578   9.199  33.704  30.334 -0.0721 -0.0282  0.1675
50662W        W93579   9.295  30.985  31.722 -0.1368  0.0155 -0.2268
50663W        W93580   7.957  34.422  31.922  0.0810  0.0046  0.0447
50664W        W93581  11.417  31.409  30.235  0.1529  0.1339  0.0392
50665W        W93582   7.468  28.142  31.388  0.2658  0.1185  0.2262
50666W        W93583   8.045  30.138  29.631  0.0244  0.1566  0.0297
50667W        W93584   8.631  31.344  28.441  0.1140  0.1583 -0.1762
50668W        W93585  10.937  29.938  29.921  0.3908  0.1654 -0.1170
50669W        W93586   7.779  27.856  30.975  0.2194  0.0192  0.1081
50670W        W93587  10.097  29.647  26.141 -0.0050  0.3355 -0.2442
50671W        W93588   6.810  32.726  31.464 -0.0763  0.0392  0.0559
50672W        W93589  11.328  30.741  28.720  0.0721 -0.0525 -0.0210
50673W        W93590   9.487  30.647   0.703  0.2209  0.1516 -0.1209
50674W        W93591   9.736  30.692   0.210 -0.0750  0.1495 -0.2190
50675W        W93592   8.543  30.395  30.969  0.0950  0.1532  0.0793
50676W        W93593   9.616  30.535  31.628  0.0478 -0.0011 -0.1869
50677W        W93594   9.472  31.711   2.863 -0.0771  0.2156  0.1178
50678W        W93595   8.853  31.690  30.486 -0.1022 -0.2368 -0.1175
50679W        W93596  10.246  28.206   1.329 -0.0177  0.4072  0.3082
50680W        W93597  10.291  29.242   1.004 -0.0350 -0.0924 -0.3853
50681W        W93598  10.732  29.470   1.449 -0.2281  0.1949  0.3585
50682W        W93599   9.019  32.660   0.699 -0.1283 -0.0669  0.0007
50683W        W93600   8.148  31.860  31.168  0.2845 -0.1593  0.2215
50684W        W93601   7.361  29.006  30.760  0.0678  0.0386  0.1255
50685W        W93602  10.204  32.028  29.054 -0.0688  0.2042  0.3170
50686W        W93603   7.587  30.588  30.639  0.2324 -0.0305  0.1897
50687W        W93604  11.545  30.026  31.075 -0.0529 -0.0199 -0.1294
50688W        W93605   8.096   0.410   0.520  0.0987  0.1295 -0.1117
50689W        W93606   9.312  30.954   1.616 -0.0880 -0.0855  0.3422
50690W        W93607   8.670  32.901  31.755 -0.0287 -0.3212 -0.0169
50691W        W93608   8.306  28.890   1.176  0.2327  0.0880 -0.0715
50692W        W93609   8.504  29.860   0.637  0.1295  0.2597 -0.2763
50693W        W93610   7.196  29.376   0.328  0.0731  0.1164 -0.1436
50694W        W93611   8.832  30.824  31.626 -0.2682  0.0054  0.1241
50695W        W93612  10.037  30.391   2.615  0.0977 -0.0452 -0.0036
50696W        W93613  10.521  30.357  29.896  0.2995 -0.0027 -0.4241
50697W        W93614   9.704  28.649  30.419  0.1259  0.1125 -0.0235
50698W        W93615  10.979  30.666  31.563  0.0244 -0.0746  0.1562
50699W        W93616  10.984  29.041  31.510 -0.2830 -0.2188  0.3589
50700W        W93617   8.071  31.883   0.440 -0.2861  0.0769  0.1958
50701W        W93618   8.989  28.837  31.062 -0.0569 -0.1097 -0.0531
50702W        W93619   8.766  29.684  31.684  0.0102  0.0142 -0.1277
50703W        W93620   9.316   0.075  31.554  0.0136  0.0369  0.1133
50704W        W93621  10.072  29.706   0.908  0.2290 -0.3002  0.2682
50705W        W93622   9.667  31.487   0.796 -0.0011 -0.1849 -0.1603
50706W        W93623   9.890  28.976   1.374  0.0893 -0.2559 -0.0886
50707W        W93624   6.796  30.041  31.821  0.2142 -0.1755 -0.1858
50708W        W93625   9.449  30.409  31.165  0.0485  0.4831 -0.0335
50709W        W93626   9.939  29.988   0.542 -0.5010  0.0543  0.0331
50710W        W93627  11.872  31.507  31.414 -0.0793  0.0207  0.0815
50711W        W93628   9.176  32.133   1.298  0.1948 -0.1387 -0.0974
50712W        W93629  11.318  29.386  31.788 -0.0200 -0.1187  0.1170
50713W        W93630  10.596  32.244  31.943 -0.0252  0.0223  0.2691
50714W        W93631  10.557  28.320   0.871 -0.0269 -0.4543  0.2412
50715W        W93632   9.678  29.019  31.697  0.1460 -0.0972  0.1314
50716W        W93633   9.339  33.225  30.468  0.3347  0.0916  0.0367
50717W        W93634  10.451  29.742   1.709  0.0930  0.1174 -0.2875
50718W        W93635   8.684  31.345  31.902 -0.3046  0.1659  0.2187
50719W        W93636  10.381  28.169   0.405  0.0798  0.0406  0.3498
50720W        W93637  10.499  33.170  30.598 -0.3378  0.0300  0.0604
50721W        W93638  10.107  29.534   1.432 -0.0680 -0.1232  0.3796
50722W        W93639   7.255  30.428  31.795 -0.1494  0.2426  0.1149
50723W        W93640   8.041  30.908  31.932 -0.2026  0.2935  0.0619
50724W        W93641  10.941  28.531   0.407  0.1403  0.4631 -0.0465
50725W        W93642   9.930  30.342  31.258 -0.0375  0.4481 -0.3403
50726W        W93643   8.023  30.540  30.988  0.1040 -0.1155 -0.1360
50727W        W93644  11.223  30.957  31.190  0.1976  0.0035 -0.1076
50728W        W93645  11.885  30.161  30.168  0.0802 -0.1582 -0.2319
50729W        W93646   9.882  32.177  30.624  0.2050  0.0132 -0.2699
50730W        W93647   9.765  33.113  31.820  0.0694 -0.1398  0.1823
50731W        W93648   9.765  34.115  30.775 -0.0566 -0.1941 -0.0476
50732W        W93649   9.293  30.471   0.056  0.2754 -0.0393 -0.1564
50733W        W93650   7.605  29.622   0.379  0.2147 -0.1381 -0.1991
50734W        W93651  10.442  29.827   0.494 -0.4690  0.0168  0.1407
50735W        W93652   9.220  31.421  30.996  0.3713 -0.0046  0.1888
50736W        W93653   7.199  26.783  31.179  0.0228 -0.3428 -0.0430
50737W        W93654   9.006  30.544  31.242 -0.2803 -0.1390  0.0149
50738W        W93655  11.529  31.380  31.100  0.0877  0.1953  0.1935
50739W        W93656  11.899  29.686  30.953 -0.4006 -0.3070  0.3533
50740W        W93657   6.758  33.340  15.473  0.0584 -0.0024  0.3453
50741W        W93658   7.511   0.984  16.409  0.2721  0.1222 -0.1838
50742W        W93659   9.166  32.081  16.371  0.2267  0.2290 -0.0398
50743W        W93660   7.029  32.763  17.695 -0.2033 -0.0432  0.1918
50744W        W93661   6.635  33.295  20.815  0.1151  0.1500  0.0067
50745W        W93662   9.556   0.668  14.933  0.0125  0.2910 -0.1466
50746W        W93663   9.291  34.106  18.376  0.2139 -0.3120  0.5240
50747W        W93664   7.342  31.636  16.783 -0.0866 -0.0524 -0.1757
50748W        W93665   7.092  32.158  16.597 -0.2347  0.1817  0.2667
50749W        W93666  10.002  34.336  17.413 -0.2852  0.2743 -0.0464
50750W        W93667   9.488  34.389  17.438 -0.0647 -0.1077  0.1176
50751W        W93668   9.512  34.549  16.450  0.2453  0.0523  0.0471
50752W        W93669   8.854  33.103  15.539 -0.1978  0.0260 -0.1492
50753W        W93670   8.313  34.029  15.934  0.0086 -0.2336 -0.0765
50754W        W93671   8.007  33.309  20.355  0.0326 -0.0531  0.0328
50755W        W93672   6.814  31.193  15.122 -0.3564 -0.0528 -0.0728
50756W        W93673   8.436  32.940  15.838  0.1316 -0.1149 -0.2363
50757W        W93674   6.756  33.392  18.535  0.0019 -0.0814  0.0683
50758W        W93675   7.184  34.090  18.901 -0.0405  0.1221 -0.0852
50759W        W93676  10.487  34.422  16.156 -0.0542 -0.2937  0.0123
50760W        W93677   8.211  34.199  18.239 -0.0011  0.2551  0.0335
50761W        W93678   9.665  31.830  19.368  0.0646 -0.0086 -0.0281
50762W        W93679   7.476  32.406  16.788 -0.0595  0.0243 -0.0574
50763W        W93680  11.787  34.030  18.201 -0.0999  0.0848 -0.0632
50764W        W93681   9.522  33.490  14.075 -0.0346  0.1858  0.0971
50765W        W93682   7.833  33.270  14.103 -0.0846 -0.0306  0.0774
50766W        W93683   9.396  33.825  16.010  0.2137 -0.1862 -0.1001
50767W        W93684   7.913  34.403  15.752  0.0028  0.1974  0.2655
50768W        W93685   9.649  33.947  17.353 -0.3464  0.1695 -0.1921
50769W        W93686   9.695  32.406  15.035  0.0053  0.3229  0.1010
50770W        W93687  10.240   0.272  18.660  0.0338  0.2041 -0.0321
50771W        W93688   7.846  33.695  15.923  0.0208 -0.0083  0.3282
50772W        W93689   4.595  32.462  17.505 -0.0255  0.0207 -0.1330
50773W        W93690   8.292  32.676  16.734 -0.1321  0.0970 -0.4595
50774W        W93691   6.582   0.412  15.995 -0.1056 -0.1971  0.0707
50775W        W93692   8.780  34.300  14.688 -0.3169  0.1476  0.1330
50776W        W93693   8.857  34.155  16.902 -0.0167 -0.0596 -0.0572
50777W        W93694   8.855  33.597  15.471  0.0081 -0.0369 -0.0347
50778W        W93695  11.310  33.809  17.438  0.2409 -0.1791  0.2726
50779W        W93696  11.962   0.224  16.681 -0.2341  0.0134  0.1653
50780W        W93697   8.330  34.019  14.962 -0.0830 -0.3262 -0.0050
50781W        W93698   7.111  30.929  16.401  0.0177  0.0383  0.1517
50782W        W93699   9.729  33.988  15.708  0.1676 -0.0289 -0.0575
50783W        W93700   9.384  33.709  17.832 -0.1550  0.0273  0.0795
50784W        W93701  10.196  32.822  18.016  0.0733 -0.2522 -0.1705
50785W        W93702   9.634  33.155  15.932 -0.0368  0.2923  0.1037
50786W        W93703   7.533  34.546  18.163 -0.4153  0.0372  0.0491
50787W        W93704   7.938  31.870  15.060  0.1941 -0.0255 -0.2351
50788W        W93705   6.625  33.677  17.644  0.0947  0.2811 -0.2336
50789W        W93706   6.948  34.019  16.391 -0.2960 -0.1572 -0.2817
50790W        W93707   9.064  34.037  16.414  0.1192  0.2558 -0.0374
50791W        W93708   8.182  31.470  14.755 -0.0236  0.2029 -0.4316
50792W        W93709   5.586  34.597  17.148 -0.1326  0.2955 -0.1386
50793W        W93710   7.294  32.055  15.881 -0.1838 -0.3846  0.2148
50794W        W93711   9.642  32.660  20.531 -0.1114 -0.2087 -0.0583
50795W        W93712   8.484   2.705  17.485  0.3993 -0.0483 -0.4036
50796W        W93713   7.460  33.557  13.867  0.0360 -0.1775 -0.1595
50797W        W93714   8.528  33.601  14.734  0.1530 -0.0083 -0.1906
50798W        W93715  10.283  34.189  17.870  0.1624  0.0355  0.1912
50799W        W93716  11.163  34.232  15.545  0.4617  0.1473  0.1014
50800W        W93717   6.701  33.879  15.967  0.0996  0.1592 -0.0057
50801W        W93718   8.737  33.717  16.589 -0.0181  0.0633  0.0800
50802W        W93719  11.873  33.741  16.978  0.0570 -0.0911 -0.2170
50803W        W93720   7.482  33.044  19.526 -0.0466 -0.3667  0.2773
50804W        W93721   9.644  32.727  17.537 -0.0676  0.0586  0.2141
50805W        W93722   7.250  33.703  14.519  0.0839 -0.1870 -0.1187
50806W        W93723  10.589  34.438  15.661 -0.2191 -0.0467  0.3223
50807W        W93724  10.265  32.883  14.817 -0.1673  0.0693  0.3148
50808W        W93725   8.813  33.785  15.995  0.2580 -0.0743  0.5119
50809W        W93726   9.718  32.891  13.911  0.3452 -0.1277 -0.0841
50810W        W93727   7.970  33.968  15.468 -0.2440  0.1947 -0.1874
50811W        W93728   9.181   0.251  16.160 -0.1748  0.0234 -0.0679
50812W        W93729   8.686  32.340  14.657  0.3591  0.1858  0.2536
50813W        W93730   8.753  32.081  15.666  0.2333  0.3201  0.1231
50814W        W93731  11.799  34.170  16.702 -0.3029 -0.4245 -0.4957
50815W        W93732   7.450  33.556  19.747  0.0074  0.3945 -0.3393
50816W        W93733   7.739  34.402  19.296  0.2086 -0.0001  0.0587
50817W        W93734   9.177  33.188  19.901  0.1781  0.1662  0.3734
50818W        W93735   9.224  33.032  14.759  0.1309 -0.0050  0.2461
50819W        W93736  11.130   0.633  16.331 -0.1969  0.0234  0.0279
50820W        W93737   7.187  33.280  14.345 -0.1890 -0.2401  0.2345
50821W        W93738   9.771  33.223  18.358 -0.1860  0.0150  0.2225
50822W        W93739  10.010  33.180  17.767  0.1533 -0.0287 -0.1757
50823W        W93740   9.119  31.298  14.886  0.0217  0.5111 -0.1302
50824W        W93741   8.721  31.266  14.635  0.1540  0.2112  0.0193
50825W        W93742  10.041  33.415  15.985  0.0136  0.2037  0.0041
50826W        W93743   9.347  33.849  15.345 -0.3727 -0.2283 -0.1477
50827W        W93744   7.408  34.465  16.016 -0.0448 -0.5033  0.0512
50828W        W93745  10.251  30.777  16.158 -0.0153 -0.3027  0.1477
50829W        W93746   8.846  32.595  17.458 -0.3788 -0.1303 -0.2038
50830W        W93747  11.142  34.260  16.987  0.3869 -0.2282 -0.0191
50831W        W93748  12.277   0.814  18.293  0.2527  0.0679 -0.0813
50832W        W93749  10.240  34.074  16.601  0.3511  0.2854  0.2219
50833W        W93750   8.445   0.799  17.539  0.0556 -0.2440  0.1567
50834W        W93751   7.947  32.389  14.683  0.3469 -0.2232  0.0421
50835W        W93752   9.313  31.290  19.346 -0.0189  0.0956 -0.2297
50836W        W93753   7.886  33.088  17.238  0.3528 -0.2461  0.1395
50837W        W93754   9.042  33.498  14.323 -0.1867  0.0075  0.2288
50838W        W93755   7.859  33.285  18.072 -0.0570  0.0163  0.1271
50839W        W93756   9.171  33.398  15.797  0.2070 -0.0363 -0.2029
50840W        W93757   8.302  32.248  14.313 -0.1856  0.2567 -0.0727
50841W        W93758   9.129  34.563  18.226  0.0297 -0.0681 -0.0675
50842W        W93759   8.068  33.394  18.946 -0.2359  0.2042 -0.3096
50843W        W93760   7.654  32.786  18.015  0.0374 -0.0420  0.5024
50844W        W93761  10.569  33.776  17.957 -0.3247  0.2676 -0.0242
50845W        W93762   7.317  32.511  14.679 -0.0389  0.3137 -0.0139
50846W        W93763  10.381  31.640  14.672 -0.0051 -0.1285  0.1484
50847W        W93764  10.271  33.052  16.808 -0.0081  0.0461 -0.3945
50848W        W93765  10.754   0.567  19.265  0.0212 -0.0846 -0.2181
50849W        W93766   7.960  33.724  14.815  0.1187  0.3627 -0.2508
50850W        W93767   8.508  32.701  19.288 -0.1755  0.1507 -0.2337
50851W        W93768   5.962  33.473  16.497 -0.2501 -0.1133 -0.0818
50852W        W93769   7.259   0.003  17.749 -0.0779 -0.0464 -0.0319
50853W        W93770   8.970  34.208  18.949 -0.3029  0.2089  0.0577
50854W        W93771  10.811  32.431  16.200  0.0500 -0.1927 -0.1961
50855W        W93772   7.644  33.613  15.456  0.1739  0.0573  0.1608
50856W        W93773   8.534   1.583  16.857 -0.2373  0.0218 -0.0911
50857W        W93774   9.915   0.683  17.894 -0.0159 -0.1032  0.1574
50858W        W93775   7.944  32.745  16.394  0.3183  0.0867 -0.2573
50859W        W93776  12.120   0.749  16.605 -0.4664  0.2181 -0.1467
50860W        W93777   9.115  31.757  17.201  0.1004  0.0374  0.1050
50861W        W93778  12.064  34.357  17.499  0.0673 -0.2146  0.2321
50862W        W93779  10.245  34.058  15.875 -0.1099  0.0067 -0.0243
50863W        W93780   9.738  33.814  20.381 -0.0915 -0.3010  0.3508
50864W        W93781   6.967  31.860  19.544 -0.0888 -0.2013 -0.0309
50865W        W93782   9.521  34.412  15.522  0.0920  0.2185 -0.1488
50866W        W93783  10.018   0.605  16.390  0.2642  0.0817  0.1530
50867W        W93784   8.981  32.859  19.065 -0.1016  0.0397 -0.0215
50868W        W93785  10.119  32.204  15.351  0.1449 -0.1089 -0.2511
50869W        W93786   9.308  32.865  15.687  0.3980 -0.0217  0.0640
50870W        W93787   7.361  32.816  17.080  0.0003  0.0158 -0.5956
50871W        W93788  10.264   1.438  17.913  0.1601  0.0752  0.0165
50872W        W93789   7.818  32.857  14.783 -0.0699 -0.2994 -0.6028
50873W        W93790   8.825  33.343  18.693  0.3990 -0.0700  0.0586
50874W        W93791   9.754  32.976  14.813  0.0032  0.0481 -0.0367
50875W        W93792   8.068  34.058  16.431 -0.1137  0.0973 -0.2450
50876W        W93793   6.305  33.783  14.548 -0.1555  0.1521  0.0133
50877W        W93794   8.300  34.593  16.093 -0.0242  0.0957  0.0315
50878W        W93795  10.337  32.354  14.925 -0.0695  0.4154  0.0907
50879W        W93796   8.930  33.968  20.188  0.0574 -0.2227 -0.1116
50880W        W93797   9.241  34.289  15.046  0.0642 -0.0502 -0.2852
50881W        W93798   8.331  33.172  16.490  0.4068  0.0009  0.4227
50882W        W93799  12.364  32.089  17.543 -0.0706 -0.2018 -0.3171
50883W        W93800   9.170  33.697  16.878 -0.0534 -0.2472 -0.2274
50884W        W93801  11.227   0.137  17.140 -0.1693 -0.3737 -0.1576
50885W        W93802   9.383  32.786  17.023  0.2567  0.1514 -0.2195
50886W        W93803   6.068  32.326  19.795 -0.0342 -0.1528  0.0878
50887W        W93804   7.709  34.013  17.266 -0.1411 -0.1994  0.0539
50888W        W93805   7.014   0.168  15.916 -0.0139 -0.0687 -0.0738
50889W        W93806   9.677  31.932  16.434  0.2328 -0.1750  0.1641
50890W        W93807   9.609  33.578  16.975 -0.0530  0.2567  0.0001
50891W        W93808  10.116  30.757  15.673 -0.1188  0.1282  0.1868
50892W        W93809   8.555  34.220  16.450  0.0867  0.0785 -0.1429
50893W        W93810   6.474  33.160  15.062 -0.1325  0.1055 -0.1129
50894W        W93811   8.495   1.038  16.110  0.0482 -0.2345  0.0546
50895W        W93812  10.318  33.116  19.285 -0.0164 -0.1620  0.0686
50896W        W93813   8.003  32.705  15.274  0.2606  0.2800  0.0143
50897W        W93814   9.937  34.367  16.389  0.0318 -0.0594  0.4078
50898W        W93815   9.526  32.343  16.787  0.2982  0.0806 -0.0011
50899W        W93816   8.745  32.326  19.075 -0.1339  0.0407  0.0158
50900W        W93817   5.398  33.791  15.407  0.0068  0.1427 -0.0960
50901W        W93818  11.206   0.903  19.897 -0.2576  0.2674  0.1714
50902W        W93819  10.020   0.651  18.418  0.3396 -0.2994 -0.0137
50903W        W93820  10.824  33.003  19.683 -0.0024  0.3642  0.2025
50904W        W93821   8.321  32.365  15.057 -0.1691  0.0975 -0.1525
50905W        W93822  11.485  31.250  17.635  0.1611  0.1980  0.3067
50906W        W93823   8.690  33.905  17.577  0.1989 -0.1198 -0.1733
50907W        W93824   8.999   0.020  14.935 -0.2608 -0.0040 -0.0289
50908W        W93825   9.012   1.037  18.820  0.1478  0.0379  0.3935
50909W        W93826   9.548  32.388  16.255 -0.2532  0.2425 -0.0768
50910W        W93827   6.865  32.638  14.983 -0.1678 -0.4518 -0.0724
50911W        W93828   9.236  32.785  15.190 -0.0340 -0.1727 -0.1525
50912W        W93829   9.890   1.343  15.589  0.2258  0.1553 -0.2384
50913W        W93830   9.339  34.585  20.611 -0.4920 -0.1913 -0.0820
50914W        W93831   7.012  30.908  14.780  0.3326  0.1738 -0.2813
50915W        W93832  10.570  33.242  15.988  0.3888 -0.0167  0.1239
50916W        W93833  10.544   0.712  18.293  0.0252  0.0092  0.1738
50917W        W93834   7.889  33.584  16.402 -0.1702 -0.2832 -0.0173
50918W        W93835   9.847  31.629  14.488  0.0782  0.0937  0.0795
50919W        W93836   9.560  32.757  18.611  0.1515  0.1767 -0.2005
50920W        W93837  12.753  32.541  17.122  0.0479  0.0538  0.0614
50921W        W93838  10.502  33.899  19.655 -0.1038 -0.2063 -0.1098
50922W        W93839   9.264  31.494  18.631 -0.1461 -0.1034  0.0168
50923W        W93840   9.317  34.404  16.922 -0.0371  0.0266  0.0514
50924W        W93841   9.860  31.630  16.812 -0.0378 -0.2352 -0.3275
50925W        W93842  11.308  33.070  16.399  0.1184 -0.4957 -0.1409
50926W        W93843  10.695  32.076  14.679  0.2451 -0.3587  0.2865
50927W        W93844   6.392   1.873  17.735  0.1181  0.3460 -0.2852
50928W        W93845   5.976  32.901  14.966 -0.1497  0.0287  0.0567
50929W        W93846  10.281  31.451  18.518  0.0877 -0.1896 -0.2159
50930W        W93847   6.627  32.432  17.588 -0.1730 -0.2195 -0.1357
50931W        W93848   8.799  34.323  16.025  0.0820 -0.1857  0.0434
50932W        W93849   7.583  32.435  15.110 -0.2255  0.3646 -0.0544
50933W        W93850   5.689  32.483  18.186 -0.1520 -0.0241 -0.0214
50934W        W93851   7.122  31.762  14.543 -0.0007 -0.0252  0.0278
50935W        W93852   9.427  31.829  14.778  0.4670  0.0479  0.0584
50936W        W93853  10.293  34.470  19.212 -0.2317  0.0816  0.0607
50937W        W93854   8.652  34.197  20.587  0.0734  0.1523 -0.1462
50938W        W93855   8.313  32.706  14.687  0.0390 -0.0512  0.4118
50939W        W93856   6.260  34.357  19.513 -0.0395 -0.2024  0.3505
50940W        W93857   6.880  32.883  20.291 -0.1319 -0.3441  0.0552
50941W        W93858  11.232   0.097  16.354 -0.1554 -0.0922 -0.2094
50942W        W93859   8.444  32.673  16.206 -0.0149  0.0888 -0.3957
50943W        W93860   8.053  32.478  17.522  0.0114 -0.1719  0.0601
50944W        W93861   8.017  31.756  19.472 -0.2269  0.1202 -0.1346
50945W        W93862   8.822   0.265  15.296 -0.0107  0.2368 -0.0602
50946W        W93863   8.344  33.731  17.965  0.0986 -0.0376  0.0468
50947W        W93864   7.648  31.480  15.286 -0.0588  0.0759  0.2048
50948W        W93865   9.424  33.935  18.824  0.3442 -0.1980  0.0890
50949W        W93866   8.564  32.893  18.801  0.2352  0.0894 -0.0633
50950W        W93867   9.180   1.139  17.378 -0.0701 -0.1253  0.0980
50951W        W93868   6.925  31.820  18.370 -0.1633  0.0373  0.1575
50952W        W93869   6.965  33.876  15.388 -0.2589 -0.2330 -0.0821
50953W        W93870   7.279  33.742  16.970  0.1120 -0.0974 -0.3126
50954W        W93871  12.391  34.629  16.743  0.1331  0.1029  0.2612
50955W        W93872   6.962  32.902  16.222 -0.2399  0.0716  0.0378
50956W        W93873  10.085  31.238  15.987 -0.1013  0.2932 -0.3693
50957W        W93874   6.366   0.097  19.839  0.3798 -0.2037 -0.0116
50958W        W93875  10.206  34.025  20.552  0.1942  0.2243 -0.1091
50959W        W93876  12.042  33.262  22.373  0.0604 -0.2782 -0.0302
50960W        W93877   6.397  33.195  20.356 -0.3047  0.1671 -0.2195
50961W        W93878   6.957   0.246  21.574 -0.0686 -0.0237  0.3557
50962W        W93879   8.188  34.198  19.704 -0.2475  0.0334  0.1879
50963W        W93880   8.374  32.811  22.026 -0.1264 -0.0283  0.1525
50964W        W93881   8.530  33.382  20.957 -0.0156 -0.1205 -0.1686
50965W        W93882   7.348  34.251  22.858 -0.2127 -0.1357 -0.0068
50966W        W93883  10.670  33.216  22.105  0.4085 -0.2762 -0.1773
50967W        W93884   5.929   1.341  20.111  0.2097  0.1709  0.0857
50968W        W93885   9.685  33.954  21.490 -0.1395  0.1435  0.1142
50969W        W93886   7.914   2.793  20.581  0.3206 -0.0033 -0.0269
50970W        W93887   6.495  33.788  24.160  0.0176 -0.0877  0.0849
50971W        W93888   8.164  33.885  24.176 -0.0933 -0.0634  0.0160
50972W        W93889   7.584  32.384  18.270  0.0202 -0.1232  0.0481
50973W        W93890   7.110   0.219  20.560  0.3387 -0.2796 -0.0075
50974W        W93891   7.856  34.405  22.218 -0.0569 -0.0982 -0.1316
50975W        W93892  10.947  32.714  22.238 -0.1605  0.0349 -0.2472
50976W        W93893   8.971  33.184  20.600 -0.0641  0.0533  0.1351
50977W        W93894   9.446   0.579  24.446  0.1198  0.0492 -0.0662
50978W        W93895   8.816  34.615  20.772 -0.0273  0.0068 -0.2050
50979W        W93896   6.506  34.559  22.328 -0.1001 -0.1614 -0.2430
50980W        W93897  11.195  32.234  23.019  0.1521  0.0128  0.1387
50981W        W93898  10.364   1.606  21.636 -0.2010  0.0938 -0.0771
50982W        W93899   8.777   0.369  16.492  0.0464  0.0073 -0.1641
50983W        W93900   9.237  33.199  19.365 -0.0057 -0.0119  0.1516
50984W        W93901   7.989  33.337  20.878  0.1042  0.0863 -0.0209
50985W        W93902   7.492   0.173  21.379 -0.0337  0.0625 -0.0936
50986W        W93903   8.404   0.488  19.313 -0.0610  0.0543  0.0174
50987W        W93904   9.811  33.710  22.058 -0.0406 -0.0027 -0.2690
50988W        W93905   7.839   0.380  20.645  0.0996  0.0043 -0.2428
50989W        W93906   7.450  33.406  20.907  0.2338 -0.2462 -0.4514
50990W        W93907   8.892   0.959  23.479 -0.0610  0.2405  0.1572
50991W        W93908   6.768  33.402  23.906  0.2285  0.0680 -0.0834
50992W        W93909   8.634   0.496  17.976 -0.1782 -0.0850 -0.0446
50993W        W93910   9.793  32.751  22.120  0.3930 -0.0478 -0.0377
50994W        W93911   9.623  31.494  20.691  0.2650  0.1683 -0.0539
50995W        W93912  10.211  32.996  22.416  0.3183  0.4299  0.2942
50996W        W93913  10.386  34.603  17.653 -0.0441 -0.4591 -0.0722
50997W        W93914   7.113  32.583  24.305 -0.1611 -0.1519 -0.1935
50998W        W93915   5.947  33.412  21.691 -0.1525 -0.3533  0.2246
50999W        W93916  10.664  34.081  20.097 -0.0089  0.1525 -0.0548
51000W        W93917   7.613  33.703  21.296 -0.2781  0.3477 -0.0248
51001W        W93918  10.868  33.199  21.057  0.3711  0.0456 -0.4149
51002W        W93919   9.089  34.173  20.798 -0.1008 -0.0128  0.3416
51003W        W93920   6.797  34.167  21.601  0.3270 -0.0712  0.0787
51004W        W93921   6.911  33.460  19.517 -0.0560  0.0486  0.2803
51005W        W93922   8.226  32.394  25.424 -0.0348  0.0705  0.0717
51006W        W93923   7.057  34.560  23.185 -0.2214 -0.0229  0.0948
51007W        W93924   8.277   0.332  23.832 -0.2400  0.1351  0.2827
51008W        W93925   5.816  33.117  20.265  0.0962  0.2244  0.0022
51009W        W93926   9.988  34.099  19.545  0.2170 -0.3083  0.4822
51010W        W93927   7.837   0.038  20.993  0.0478 -0.0538 -0.2117
51011W        W93928   8.899  33.816  22.780  0.3994 -0.1974  0.0637
51012W        W93929   8.885  31.923  23.463 -0.1887 -0.1677  0.0459
51013W        W93930   7.584   0.175  19.583  0.0469 -0.0330 -0.1771
51014W        W93931   9.589  33.288  20.116 -0.0491 -0.1543 -0.1852
51015W        W93932   9.008  33.457  21.730 -0.4337 -0.1345  0.2093
51016W        W93933   9.975  34.533  22.429 -0.0361 -0.0456  0.3977
51017W        W93934   8.288  33.293  19.918 -0.2393  0.4160  0.1426
51018W        W93935   7.197   1.919  19.898 -0.2840  0.2523 -0.0465
51019W        W93936  11.080  33.489  21.515 -0.0817 -0.0938  0.1038
51020W        W93937   7.030  33.714  23.624  0.0605 -0.2980  0.0705
51021W        W93938  10.208  33.907  21.767  0.0872 -0.0511  0.1555
51022W        W93939   5.608  33.020  19.353 -0.0245 -0.2595  0.0346
51023W        W93940   9.656  32.056  20.601 -0.2104  0.2376  0.1992
51024W        W93941   9.545  33.758  19.282 -0.0358  0.0593 -0.3761
51025W        W93942   8.278  33.507  18.426 -0.0156  0.0204 -0.0685
51026W        W93943   7.169  33.086  18.653 -0.0295  0.2116  0.0101
51027W        W93944   8.865  33.694  19.247  0.1992 -0.0444  0.0442
51028W        W93945   7.315  32.847  22.176 -0.1489 -0.1772 -0.1727
51029W        W93946   9.444  34.338  21.803 -0.2409  0.2186 -0.3569
51030W        W93947   8.211  31.824  20.807 -0.0568 -0.0276 -0.0227
51031W        W93948   7.659  33.182  21.939  0.0967  0.0388 -0.0178
51032W        W93949   9.961  34.623  21.783 -0.0121  0.0472  0.1244
51033W        W93950   5.286  33.579  23.236 -0.4820 -0.2405  0.0104
51034W        W93951  11.105   0.687  23.285 -0.4085  0.2170 -0.0611
51035W        W93952   9.783  34.363  20.410  0.2749  0.0637  0.0772
51036W        W93953  10.019   0.186  21.271  0.0631  0.1821 -0.1884
51037W        W93954   7.137  33.652  18.654 -0.2833 -0.1250 -0.0461
51038W        W93955   8.671  33.212  22.125  0.0316 -0.1301 -0.1800
51039W        W93956   7.729  34.278  21.373 -0.0786 -0.2193 -0.0037
51040W        W93957   7.753  33.182  19.946  0.0052 -0.2704  0.0441
51041W        W93958   8.765  33.512  19.689  0.2769  0.3105 -0.2638
51042W        W93959  11.232  32.815  21.763 -0.0793 -0.1365  0.1509
51043W        W93960   8.704   0.142  21.205  0.2042  0.1166  0.0177
51044W        W93961   7.129   0.029  19.498  0.0709  0.1542 -0.3546
51045W        W93962   8.982  34.163  21.705 -0.0399  0.0420 -0.0481
51046W        W93963   8.534   0.246  22.380 -0.1678 -0.3670  0.1179
51047W        W93964  12.454  33.007  20.411  0.3229 -0.0161  0.0910
51048W        W93965   9.248  34.271  22.779 -0.1066  0.2821  0.1009
51049W        W93966   9.119  32.108  19.976  0.3239  0.0578 -0.0251
51050W        W93967   7.337  32.715  22.781 -0.0096 -0.1123  0.0455
51051W        W93968   8.683   0.098  18.351 -0.1844  0.0621  0.1718
51052W        W93969  10.360  33.678  21.210  0.2086 -0.0287  0.1492
51053W        W93970   9.298  33.854  21.890 -0.2858 -0.0195  0.0780
51054W        W93971   9.180  34.006  21.251  0.0846  0.1058  0.0513
51055W        W93972   8.253  34.387  22.581 -0.0358 -0.1713  0.1278
51056W        W93973   7.357   0.381  21.936 -0.0985 -0.0036 -0.4360
51057W        W93974   8.542   0.281  21.872 -0.1459  0.0312 -0.2458
51058W        W93975   9.969  33.959  21.063 -0.1259 -0.2239  0.4233
51059W        W93976   7.685  32.572  22.413  0.2588  0.0002  0.1600
51060W        W93977   7.831  33.505  19.427  0.2680  0.1296  0.0399
51061W        W93978   9.680  34.475  21.322 -0.2198  0.1614  0.1481
51062W        W93979   9.101   0.611  23.097 -0.0517  0.1566  0.0156
51063W        W93980   8.329  32.721  20.650 -0.2410 -0.1221  0.1260
51064W        W93981   7.418  33.577  21.767 -0.1882  0.2642  0.2053
51065W        W93982  11.944  33.742  20.728  0.0183 -0.0814  0.1083
51066W        W93983   9.231  34.023  19.599  0.1017  0.1123  0.0967
51067W        W93984   8.909  34.037  25.714 -0.1294 -0.1302  0.5236
51068W        W93985   6.390   0.606  22.254  0.1371  0.1255  0.4218
51069W        W93986   9.020  32.862  22.703  0.0428 -0.2022  0.1138
51070W        W93987   6.365  33.546  24.595  0.1080 -0.1478 -0.3135
51071W        W93988  10.499  32.360  20.182 -0.2552 -0.2531  0.2864
51072W        W93989   6.724  33.647  20.006 -0.0025  0.2318 -0.0789
51073W        W93990   7.198   1.679  20.345 -0.3509 -0.2629  0.0337
51074W        W93991   9.572  33.600  23.635 -0.2260 -0.1973  0.2013
51075W        W93992   8.603   1.985  20.535 -0.1308  0.0061 -0.0222
51076W        W93993   8.776  33.659  21.366 -0.0624  0.0276  0.2058
51077W        W93994   7.572  32.673  21.633  0.1084 -0.0016 -0.1340
51078W        W93995   7.916  32.939  24.091  0.0949 -0.1869  0.0384
51079W        W93996   7.481  32.977  23.857  0.1043  0.0752 -0.0384
51080W        W93997  10.044  33.218  21.960  0.2058  0.2036  0.1396
51081W        W93998   8.481  33.612  22.526 -0.2006 -0.0872  0.2795
51082W        W93999   7.609  34.133  21.867  0.0221 -0.1749 -0.2482
51083W        W94000   7.660  33.449  18.634  0.2419 -0.2593  0.1401
51084W        W94001   9.890  32.885  21.576 -0.0191  0.0069 -0.1412
51085W        W94002   8.470  33.182  20.450 -0.4296 -0.2197 -0.1276
51086W        W94003   7.892  32.838  20.282  0.0649  0.1218  0.0565
51087W        W94004   6.465  34.459  20.420  0.0233  0.2143  0.0058
51088W        W94005   8.760   0.688  22.764  0.4068  0.1196  0.1370
51089W        W94006   7.751  32.217  19.555 -0.0401 -0.3830 -0.1836
51090W        W94007   8.581  33.098  22.606 -0.0312 -0.0654 -0.0665
51091W        W94008   8.380  34.301  17.638 -0.0636  0.3878  0.0792
51092W        W94009   7.277   1.626  21.070  0.2248 -0.0118 -0.1239
51093W        W94010   8.056  34.173  20.196  0.3144 -0.4089 -0.2753
51094W        W94011   9.002   1.285  16.907  0.2478 -0.2134 -0.0755
51095W        W94012   8.096  34.324  21.785 -0.2740  0.1460  0.0375
51096W        W94013  10.538  30.832  19.813  0.1819 -0.0257  0.0836
51097W        W94014   8.745  32.782  21.113 -0.0636  0.1525  0.1127
51098W        W94015  10.449  32.058  20.612  0.1448 -0.1408  0.5050
51099W        W94016  10.160  34.085  20.063 -0.0135 -0.0354 -0.0948
51100W        W94017   9.426  32.804  23.058 -0.0290  0.1585  0.0303
51101W        W94018   9.078  34.144  22.270 -0.1799  0.0801  0.3275
51102W        W94019   6.624   2.135  21.143 -0.3803 -0.2165  0.0482
51103W        W94020   7.048  33.208  21.844  0.0145 -0.0180 -0.0009
51104W        W94021   9.060  32.649  19.930 -0.3955  0.0575 -0.1281
51105W        W94022   6.704   0.369  19.546 -0.1374 -0.1162 -0.2228
51106W        W94023  11.002  33.004  17.876 -0.0451 -0.0275 -0.0163
51107W        W94024  11.848   1.280  23.121 -0.0803  0.3738 -0.0692
51108W        W94025  10.506  33.594  20.231  0.0880 -0.0531  0.1605
51109W        W94026  10.704  32.996  22.609  0.0157 -0.1332 -0.0187
51110W        W94027   8.972  33.822  18.064  0.0667  0.1402 -0.6481
51111W        W94028   8.042  33.463  23.311  0.2895 -0.1859 -0.4064
51112W        W94029  12.361  30.390  22.777  0.0729 -0.0047  0.0120
51113W        W94030   7.242   0.628  21.432 -0.0794 -0.2865 -0.1195
51114W        W94031   9.003  34.659  21.556  0.0214  0.0170  0.3877
51115W        W94032  11.182  31.572  21.581  0.3139  0.2079 -0.1023
51116W        W94033   9.140  32.491  21.290 -0.4005  0.0416  0.0067
51117W        W94034   7.891  32.589  21.267  0.1435 -0.1276 -0.2110
51118W        W94035  10.415  33.356  19.780 -0.3396  0.1532 -0.0392
51119W        W94036   6.136  34.239  21.705 -0.0360  0.2361  0.1451
51120W        W94037  11.797  32.533  21.115  0.2616 -0.0184  0.2931
51121W        W94038   7.143  33.870  20.533 -0.1905  0.0711  0.1098
51122W        W94039  10.714  33.907  21.611  0.1778  0.1182  0.0064
51123W        W94040  10.689  33.506  22.538 -0.1916 -0.0831 -0.0159
51124W        W94041   8.511  34.476  21.590 -0.1608  0.0378  0.2168
51125W        W94042  11.180   1.121  25.342  0.1954  0.0116 -0.1738
51126W        W94043   9.768   0.437  19.974  0.0900  0.1637 -0.0569
51127W        W94044   6.409   0.427  20.203  0.0428  0.0012  0.1478
51128W        W94045   9.630  31.500  18.992 -0.3299 -0.1625 -0.1159
51129W        W94046   6.829   0.170  20.022 -0.1231  0.0610 -0.0272
51130W        W94047   7.706  33.112  23.378 -0.2883 -0.0235 -0.1463
51131W        W94048   7.904  32.351  20.705  0.0330 -0.0598  0.0858
51132W        W94049  10.350   0.301  21.701  0.0214 -0.1784  0.2525
51133W        W94050   9.326  34.173  20.314  0.2004  0.1657  0.0825
51134W        W94051   5.857  32.986  23.164  0.0352  0.1790  0.2310
51135W        W94052   8.922  33.487  20.202  0.0983  0.1040  0.1632
51136W        W94053   7.822  34.295  20.686  0.3741  0.1553 -0.1229
51137W        W94054   9.405  32.714  21.863  0.1004  0.1220 -0.2607
51138W        W94055  11.416  33.443  20.164 -0.0639  0.1784  0.3233
51139W        W94056   9.429  33.134  23.815  0.1450 -0.1677 -0.2250
51140W        W94057   7.963   1.030  21.370 -0.0832  0.1461  0.1988
51141W        W94058   8.600  34.077  22.439 -0.1055 -0.3033  0.0861
51142W        W94059   9.674  32.694  21.146 -0.1263 -0.2928  0.1862
51143W        W94060   8.245  33.887  22.071 -0.0255 -0.1213  0.0736
51144W        W94061   9.823   2.355  22.888  0.0567 -0.0210  0.3201
51145W        W94062   5.990  34.336  19.005  0.0515  0.1536  0.1884
51146W        W94063   7.700  33.073  22.884  0.4026 -0.1336 -0.0075
51147W        W94064   7.249  34.123  24.323 -0.1587 -0.0662 -0.0468
51148W        W94065   7.365  34.550  20.799  0.1951 -0.0530  0.2664
51149W        W94066   8.073   0.107  21.576 -0.1472 -0.0494 -0.1708
51150W        W94067   6.548  33.670  21.210 -0.2230 -0.3097  0.0096
51151W        W94068   7.624  34.621  20.385  0.0347 -0.0607  0.0678
51152W        W94069   7.764  34.512  19.909 -0.0859 -0.1331 -0.0811
51153W        W94070   9.870  34.203  22.041  0.0597 -0.0301 -0.1841
51154W        W94071   8.944  34.529  23.571  0.1457  0.0543 -0.1361
51155W        W94072   6.614  32.811  22.227  0.0688 -0.1168 -0.0951
51156W        W94073   9.764   0.977  20.886  0.0955  0.2330  0.3059
51157W        W94074   6.461  32.791  24.216  0.0330  0.0966 -0.0629
51158W        W94075  10.938  30.943  20.226 -0.2029 -0.3752  0.4605
51159W        W94076   8.601  33.654  20.503  0.3069 -0.2400  0.1160
51160W        W94077   6.062   0.545  24.154 -0.1347  0.0247  0.1018
51161W        W94078   8.003  32.642  19.148  0.3155  0.4935 -0.1008
51162W        W94079   7.303   0.718  20.532 -0.2021 -0.0302 -0.2140
51163W        W94080   8.137  34.233  19.074 -0.0539  0.0153 -0.0572
51164W        W94081   8.574  34.250  20.036 -0.3169  0.0573 -0.3509
51165W        W94082  10.162  33.481  25.540 -0.1733 -0.0455 -0.1305
51166W        W94083   8.880   0.296  19.407 -0.2081 -0.1237  0.3325
51167W        W94084   8.832  32.982  19.529  0.2299 -0.0445  0.0614
51168W        W94085   5.860  33.819  22.079  0.0212 -0.0622  0.2204
51169W        W94086   6.942  33.705  18.129  0.2451 -0.1082 -0.0125
51170W        W94087   8.143   0.726  18.251  0.0900 -0.1642  0.1454
51171W        W94088  11.000  34.295  21.479 -0.1250  0.2870  0.3654
51172W        W94089   9.489  33.618  22.400 -0.4868 -0.2546  0.0738
51173W        W94090   9.833  33.152  21.153 -0.2174 -0.1791  0.1000
51174W        W94091   6.865  34.577  24.112 -0.2181  0.0188 -0.1304
51175W        W94092  10.035  32.984  20.694  0.6087 -0.2273  0.0277
51176W        W94093   7.958   0.957  23.086 -0.0366 -0.3833  0.0706
51177W        W94094   8.111  33.622  28.223  0.1437  0.2559  0.0799
51178W        W94095   9.930  34.272  26.980  0.0235  0.0693 -0.0871
51179W        W94096   8.085   2.037  23.234  0.5701 -0.1422 -0.1616
51180W        W94097   8.059  34.529  24.906  0.2711  0.1729  0.1105
51181W        W94098   7.017  33.839  26.832 -0.1731  0.0615 -0.1185
51182W        W94099   9.905  32.912  24.708 -0.0744 -0.0184 -0.0933
51183W        W94100   9.670  34.498  24.241 -0.1738 -0.1626  0.0368
51184W        W94101   6.757   0.249  24.464 -0.1742 -0.1267  0.0612
51185W        W94102   9.537  34.648  25.957 -0.0589  0.1123 -0.2473
51186W        W94103   9.019  33.366  22.471 -0.1042 -0.1621 -0.1460
51187W        W94104   8.547  33.104  26.017  0.4486  0.3239  0.0262
51188W        W94105  10.006  32.477  27.189 -0.2189 -0.0551  0.6281
51189W        W94106   6.850  34.216  22.392  0.3173 -0.1035 -0.3521
51190W        W94107   7.525  33.371  25.247 -0.0952 -0.0457  0.0348
51191W        W94108   7.497  34.339  25.101  0.3980  0.0001  0.0180
51192W        W94109  11.192  33.576  25.360 -0.0236 -0.0553  0.1687
51193W        W94110  11.102  34.543  23.939  0.1672  0.0489  0.2942
51194W        W94111  11.862  33.004  29.487 -0.0287 -0.0344 -0.1747
51195W        W94112   9.886  33.959  24.362  0.1371 -0.0775  0.0573
51196W        W94113   9.233   0.070  24.535  0.5854  0.1282  0.0036
51197W        W94114   9.567  34.004  27.222  0.0139 -0.2168 -0.0721
51198W        W94115  10.125  34.306  21.397 -0.0078  0.0105 -0.0940
51199W        W94116   9.463  32.325  22.890  0.0716 -0.0710 -0.3036
51200W        W94117   9.488   1.091  23.402 -0.0584  0.0907  0.0024
51201W        W94118   7.365   0.252  25.448  0.1198  0.1013 -0.0930
51202W        W94119   8.955  32.946  27.613  0.0056  0.0892 -0.2180
51203W        W94120   9.037   0.904  24.172  0.3638 -0.2949  0.1387
51204W        W94121   8.699  33.959  25.204 -0.2770  0.1006 -0.5030
51205W        W94122   8.390   2.611  27.132  0.1174  0.0102 -0.0329
51206W        W94123   7.385  34.396  25.605 -0.1520  0.1504  0.1278
51207W        W94124   8.540  33.855  26.890 -0.0960  0.1174  0.2839
51208W        W94125   7.178  33.832  26.309  0.1219  0.2008 -0.3652
51209W        W94126   7.639  33.496  24.749 -0.0045  0.0190  0.4122
51210W        W94127   9.329  33.678  24.436 -0.0188  0.0811  0.1462
51211W        W94128  10.250  32.461  28.424 -0.2660 -0.1484  0.2685
51212W        W94129  10.360  32.153  25.407  0.2313  0.0427 -0.1296
51213W        W94130   8.668   0.110  23.987 -0.2502 -0.0516  0.1359
51214W        W94131  10.233  33.827  27.429 -0.1262  0.0753 -0.2879
51215W        W94132   7.243  33.285  26.119 -0.0519 -0.1564 -0.0307
51216W        W94133   8.155   0.171  24.321  0.1146 -0.2019  0.0423
51217W        W94134   8.628  34.556  26.172 -0.2694  0.2391 -0.1723
51218W        W94135  10.397  33.076  24.281  0.2217 -0.0001  0.0730
51219W        W94136   9.669  34.109  22.448  0.2350  0.0229 -0.1081
51220W        W94137   7.723   0.404  24.626  0.1043  0.4325  0.1326
51221W        W94138   8.614  34.249  24.055 -0.0390  0.1178 -0.0157
51222W        W94139   9.355  32.766  28.160  0.1070 -0.0120  0.3126
51223W        W94140   8.710  34.125  26.433 -0.0282  0.0981  0.0402
51224W        W94141  10.330   1.084  26.360  0.0019 -0.2595 -0.0375
51225W        W94142   6.920  31.371  25.171 -0.2280  0.0067  0.0312
51226W        W94143  11.234  34.300  26.447  0.2270 -0.0671  0.1451
51227W        W94144   7.687  33.886  25.160  0.1571  0.1243  0.1578
51228W        W94145   9.448  34.229  24.544  0.0767 -0.2200 -0.1002
51229W        W94146   9.686   0.032  26.850  0.0382 -0.2200 -0.5655
51230W        W94147   8.467  32.750  24.368 -0.1108 -0.0311  0.1267
51231W        W94148   7.793  33.963  25.754  0.0138 -0.0584  0.2584
51232W        W94149  10.933  32.004  29.262 -0.0331 -0.3050  0.1364
51233W        W94150  10.501  34.213  26.915 -0.2347 -0.0674 -0.0416
51234W        W94151   6.999  32.994  24.042 -0.4094 -0.3445  0.2581
51235W        W94152   6.685  34.317  24.994  0.1155  0.5691  0.1953
51236W        W94153  10.570  32.447  26.491 -0.0369 -0.0555  0.3466
51237W        W94154   7.577   0.685  27.265 -0.2602  0.1825  0.1358
51238W        W94155  10.539  32.112  29.562  0.0698 -0.0405  0.1104
51239W        W94156   6.218  33.335  24.150  0.3941 -0.4106 -0.1845
51240W        W94157  10.200  32.903  25.658 -0.2107 -0.1740 -0.1320
51241W        W94158  10.084   0.625  23.190 -0.0151  0.0163 -0.0241
51242W        W94159   9.753  33.743  22.804  0.0171 -0.1883 -0.0518
51243W        W94160   8.362  33.981  22.910 -0.2785  0.0841 -0.1516
51244W        W94161   9.888  32.338  23.888  0.1688 -0.0068  0.0419
51245W        W94162  10.502  33.132  25.321 -0.3416 -0.1502  0.3614
51246W        W94163   8.010   0.817  24.995  0.1570 -0.0799 -0.0490
51247W        W94164   9.935   0.224  25.796  0.2616 -0.0954 -0.1458
51248W        W94165  11.395   0.014  25.208  0.0215  0.3626 -0.0035
51249W        W94166  10.777  32.975  26.707  0.0651 -0.2635  0.2308
51250W        W94167   9.804  32.664  28.356  0.1926 -0.1284  0.3361
51251W        W94168   9.291  34.342  26.880  0.0560 -0.0788  0.0583
51252W        W94169   8.775   0.311  23.470 -0.1401 -0.1321 -0.1311
51253W        W94170  10.164  34.595  26.664 -0.3219 -0.3258 -0.1246
51254W        W94171   5.797   0.140  22.865  0.2070 -0.0320 -0.3043
51255W        W94172  11.349  34.141  28.804  0.2815 -0.0096  0.0370
51256W        W94173   8.402   0.902  28.130 -0.0973 -0.1962 -0.1535
51257W        W94174   8.439  33.118  24.037 -0.0408  0.1752  0.0067
51258W        W94175   8.493  33.267  24.575  0.1390  0.2441  0.1018
51259W        W94176  10.200  32.167  26.684  0.0620 -0.1077 -0.1045
51260W        W94177   9.749  34.426  25.062  0.1301  0.3614  0.1633
51261W        W94178   6.885  33.285  26.516 -0.1598  0.0821  0.2910
51262W        W94179   9.867  33.001  26.989 -0.1522  0.0298 -0.1883
51263W        W94180  10.138  34.109  25.330  0.0291  0.1009 -0.1223
51264W        W94181   9.136  34.217  25.035 -0.1861 -0.0432 -0.1021
51265W        W94182   8.082   0.755  24.493 -0.1842  0.2874  0.2142
51266W        W94183  10.012   0.161  22.867  0.0825 -0.0303 -0.2515
51267W        W94184   9.642   0.005  28.367 -0.2037  0.0084  0.2071
51268W        W94185   6.490  33.110  25.460 -0.1255  0.1598  0.1060
51269W        W94186  11.140   0.721  26.821 -0.1889 -0.1412  0.1140
51270W        W94187   9.203  34.526  24.078 -0.1315  0.2773 -0.3410
51271W        W94188   7.351  34.065  23.825 -0.3596 -0.5678 -0.2221
51272W        W94189   7.181  34.652  26.054 -0.2340  0.0117  0.1150
51273W        W94190   9.200  33.768  25.324 -0.0550 -0.2585  0.1088
51274W        W94191   9.302  33.336  26.648  0.0787  0.1963  0.3372
51275W        W94192   8.904  32.908  24.712 -0.0815 -0.4255 -0.1705
51276W        W94193  11.016  34.026  26.986 -0.0861 -0.2408  0.0923
51277W        W94194   6.684  33.880  27.190  0.1068  0.2409 -0.1321
51278W        W94195   8.919  34.294  24.607  0.1324 -0.0585  0.0203
51279W        W94196   8.231  32.419  28.189 -0.2235  0.2368 -0.1381
51280W        W94197   9.891  33.041  24.203  0.3552  0.3013 -0.1198
51281W        W94198   8.223   1.378  23.990 -0.1482 -0.2201 -0.1722
51282W        W94199  10.247  33.323  27.373 -0.0404  0.0002  0.1548
51283W        W94200   8.551   0.476  24.435 -0.2151 -0.1688  0.1480
51284W        W94201  10.683  31.958  26.685 -0.3091  0.2735 -0.0260
51285W        W94202   9.461  33.427  27.101 -0.0158 -0.2708 -0.4105
51286W        W94203   8.170  33.553  25.980  0.1819 -0.1596 -0.1650
51287W        W94204   8.261   0.393  27.962 -0.0492  0.1359 -0.1026
51288W        W94205   9.018   0.504  24.723  0.0252 -0.0480 -0.2545
51289W        W94206   7.214  33.423  24.001  0.0613 -0.0510 -0.0311
51290W        W94207   7.652   2.046  22.438  0.1384  0.0204  0.1679
51291W        W94208  10.382  34.545  22.690  0.3472 -0.0403 -0.1295
51292W        W94209   7.073   0.669  25.465  0.1294  0.0601  0.2327
51293W        W94210   9.962  33.926  24.884 -0.1135 -0.1571  0.1609
51294W        W94211   9.159  33.996  26.505 -0.1052  0.3132  0.1037
51295W        W94212  11.083  32.584  25.331 -0.0138  0.2768  0.2259
51296W        W94213  12.511  34.200  27.122 -0.0457 -0.0304 -0.0430
51297W        W94214   8.826   0.614  25.449 -0.1040 -0.0717 -0.0625
51298W        W94215   8.931  34.531  25.421 -0.2540  0.4663  0.1613
51299W        W94216   8.084  31.056  26.940  0.0070  0.4412  0.1581
51300W        W94217  11.255   0.422  24.482  0.0271  0.0122 -0.0698
51301W        W94218  11.189  33.517  27.030  0.0546  0.1751  0.0464
51302W        W94219  10.900  34.191  24.267 -0.2294 -0.2937 -0.0729
51303W        W94220   8.369  34.530  23.466 -0.1041 -0.0871 -0.0528
51304W        W94221   9.819  33.531  25.916 -0.4463 -0.0454  0.0640
51305W        W94222   9.533   0.206  27.618 -0.0920 -0.0358 -0.0610
51306W        W94223   8.088  33.392  24.152 -0.3116  0.1051  0.1550
51307W        W94224   9.850   0.836  26.268 -0.0656 -0.3375  0.2990
51308W        W94225   8.381   1.132  23.581  0.0362  0.1575 -0.1017
51309W        W94226   7.512   0.837  23.788 -0.0644 -0.1196 -0.2042
51310W        W94227   9.390  33.116  24.382 -0.0962 -0.1533  0.2509
51311W        W94228   8.590  34.632  24.461 -0.2565 -0.0021 -0.0719
51312W        W94229   8.953  33.146  23.142 -0.0118 -0.0108  0.1035
51313W        W94230  10.428  34.171  27.811 -0.0293  0.1819  0.0830
51314W        W94231   8.303  33.310  26.869 -0.3604 -0.0148 -0.0383
51315W        W94232  11.296  31.192  27.143 -0.1894  0.0417 -0.0698
51316W        W94233  11.885  33.966  24.393  0.1647  0.0169  0.0892
51317W        W94234   8.445  33.583  26.396 -0.1360  0.0810  0.3120
51318W        W94235   9.639  34.038  25.437 -0.1882  0.3683 -0.1592
51319W        W94236   7.910  34.292  25.345  0.1636 -0.2622 -0.1169
51320W        W94237   7.773  34.368  27.953 -0.1444  0.0506  0.0119
51321W        W94238   8.640  32.851  23.388 -0.1268 -0.2283 -0.1769
51322W        W94239   9.036  32.080  22.953  0.0481  0.1415 -0.2360
51323W        W94240  10.273  34.110  22.262  0.2674  0.0567  0.0373
51324W        W94241  11.088   0.564  26.340 -0.1442  0.1214  0.0723
51325W        W94242  11.182  33.232  24.221  0.0832 -0.0220 -0.2332
51326W        W94243  10.878  33.081  28.023  0.2642  0.0926 -0.3096
51327W        W94244   8.182  32.999  23.617  0.1594 -0.0556  0.1853
51328W        W94245   7.611  33.963  26.492  0.1081 -0.1586 -0.2824
51329W        W94246  10.403  33.643  24.627 -0.0712  0.0769  0.1593
51330W        W94247   8.247  34.036  24.996 -0.2038  0.0334 -0.0994
51331W        W94248   8.828   1.436  23.525 -0.0342 -0.4473  0.2174
51332W        W94249  11.340  31.546  24.590 -0.0827  0.0114 -0.0767
51333W        W94250   9.786  33.080  25.760  0.0913  0.0979  0.3981
51334W        W94251   7.431   1.679  22.763 -0.0276  0.0368 -0.2963
51335W        W94252  10.211  32.609  24.132 -0.0694  0.1223 -0.2779
51336W        W94253   7.938   0.487  25.477  0.1624 -0.0806 -0.1174
51337W        W94254  10.823  33.474  26.230  0.1371 -0.2079 -0.0170
51338W        W94255   9.329   0.041  25.072  0.2656 -0.0266 -0.1766
51339W        W94256  10.101  34.080  22.759  0.0382 -0.1410  0.0480
51340W        W94257   9.085  33.860  27.017 -0.1745 -0.3303  0.2696
51341W        W94258   7.411   2.771  20.242 -0.2347 -0.0448 -0.4297
51342W        W94259  10.867  34.430  25.257 -0.1716  0.3324  0.0337
51343W        W94260   8.816   1.765  23.186 -0.3303 -0.0422 -0.2811
51344W        W94261  10.791  34.588  27.139  0.1212 -0.1371 -0.0105
51345W        W94262   9.090  31.458  23.220 -0.2304  0.2435 -0.0324
51346W        W94263   7.597  33.581  26.171 -0.0755  0.1203 -0.0900
51347W        W94264   8.606  34.389  24.986 -0.2278  0.0959 -0.2239
51348W        W94265   6.502  32.178  22.838  0.0330 -0.0164 -0.0504
51349W        W94266  12.592   0.793  23.787  0.0341 -0.0534  0.0404
51350W        W94267  10.170   0.840  22.177  0.0955  0.2186  0.1134
51351W        W94268   6.003  33.745  25.634 -0.4172 -0.1837 -0.3955
51352W        W94269   8.729  32.460  25.292 -0.2072  0.2465  0.1166
51353W        W94270   8.990   0.393  24.222 -0.1602  0.0285 -0.0612
51354W        W94271   9.735  33.479  24.671  0.1345 -0.2484 -0.0365
51355W        W94272  11.237  32.193  26.599  0.0489  0.2314  0.2412
51356W        W94273  10.463  33.256  25.889  0.0665  0.1821  0.4697
51357W        W94274   9.430  33.905  23.154  0.1555 -0.1073 -0.0117
51358W        W94275  10.860  33.998  26.484 -0.2321  0.1906  0.0545
51359W        W94276   9.609  32.792  25.359  0.1669 -0.1540 -0.2512
51360W        W94277  10.291  33.587  22.187  0.0212  0.6780 -0.1668
51361W        W94278   8.232   0.409  24.877  0.1644  0.0709  0.1118
51362W        W94279   6.427  30.560  25.596 -0.0335  0.3650 -0.2236
51363W        W94280   9.917  32.124  27.606  0.1747  0.1466  0.0974
51364W        W94281   8.952  33.732  26.141  0.0801  0.0536  0.3151
51365W        W94282   9.219   0.360  25.640 -0.1001  0.0395 -0.1128
51366W        W94283   9.353  33.130  24.958 -0.1249 -0.1424  0.0333
51367W        W94284   8.964  33.833  24.779  0.3611  0.1167  0.0284
51368W        W94285   6.904  33.571  25.942  0.2812 -0.0573 -0.3953
51369W        W94286  10.394  34.668  24.363  0.0517 -0.1760  0.0309
51370W        W94287   9.096   0.029  27.183  0.1591  0.0365 -0.1158
51371W        W94288  11.321  32.925  28.216  0.3294  0.0838 -0.1476
51372W        W94289   5.936  33.680  24.927 -0.2480  0.1882 -0.2066
51373W        W94290  10.449  33.817  28.289  0.0017  0.0322 -0.1341
51374W        W94291   9.376  33.737  25.761  0.3850 -0.0998  0.1895
51375W        W94292   9.703   0.028  23.285  0.2950 -0.0039 -0.0382
51376W        W94293   7.857   2.781  23.273  0.0972  0.1299  0.2242
51377W        W94294   9.139  32.796  25.243 -0.0212 -0.0711 -0.0545
51378W        W94295   8.757   0.226  25.097 -0.1555 -0.1191 -0.0983
51379W        W94296   8.188  33.575  21.287 -0.0196  0.0783 -0.1291
51380W        W94297   7.188   0.796  24.187 -0.0832 -0.0363  0.0100
51381W        W94298  10.271  32.772  21.915  0.0414 -0.0326  0.0166
51382W        W94299  11.071  32.434  27.011 -0.2464 -0.2545 -0.1326
51383W        W94300   7.789   0.969  22.284  0.0421 -0.1676 -0.1361
51384W        W94301  10.018  33.890  23.216 -0.1177  0.0201  0.0816
51385W        W94302   9.261   0.157  26.658  0.0140  0.1525 -0.3639
51386W        W94303   7.298   1.775  23.341 -0.1330  0.1334  0.0799
51387W        W94304   7.942   1.662  22.813 -0.2856  0.2814 -0.1134
51388W        W94305  10.028  34.442  24.595  0.0903  0.0418  0.0480
51389W        W94306   8.492  33.601  24.966 -0.0928  0.1868 -0.1359
51390W        W94307   9.343  31.969  21.604 -0.0952  0.2126  0.0581
51391W        W94308   8.426   0.313  28.524 -0.1516  0.0043  0.0980
51392W        W94309  10.700  32.575  27.910 -0.2020  0.1722 -0.1916
51393W        W94310  13.067   0.416  27.406 -0.0682  0.3678  0.0487
51394W        W94311   8.759  32.608  30.015  0.2102  0.2491  0.1514
51395W        W94312   7.795  31.025  30.738  0.1440 -0.1928 -0.2900
51396W        W94313   9.430  33.104  27.780  0.0015 -0.0753 -0.1672
51397W        W94314   8.736  33.874  30.766  0.1718  0.1168  0.3966
51398W        W94315  10.548   0.088  28.142 -0.0380 -0.1498  0.0356
51399W        W94316   8.336  34.105  30.668  0.1346 -0.0028 -0.0980
51400W        W94317  10.559  32.857  31.027  0.0325  0.1070 -0.0825
51401W        W94318   8.599   1.431  25.460  0.2810 -0.4246 -0.1543
51402W        W94319   8.800  33.414  30.555 -0.2453 -0.5387 -0.0348
51403W        W94320   7.933  34.094  28.941  0.1007  0.0281  0.1477
51404W        W94321  10.845  33.579  31.438 -0.1249 -0.0667 -0.1759
51405W        W94322   9.232  33.299  31.260 -0.0936  0.2114  0.1996
51406W        W94323   7.694  33.389  28.962 -0.2903  0.1160  0.1246
51407W        W94324   6.959  34.134  29.108 -0.0038  0.0776 -0.0870
51408W        W94325   9.010  32.017  30.952  0.0564 -0.1739  0.0984
51409W        W94326  10.645  34.289  28.228  0.0135 -0.1209 -0.2685
51410W        W94327   9.594   0.996  29.030 -0.3056  0.0203 -0.1404
51411W        W94328  10.705  33.260  31.812 -0.2055 -0.4518  0.1807
51412W        W94329  10.539  33.872  30.602  0.3659  0.1213  0.3514
51413W        W94330   9.562  34.104  28.243 -0.1330  0.0797 -0.1468
51414W        W94331  11.359  33.210  30.638  0.0508  0.2413 -0.0959
51415W        W94332  11.053  34.026  28.410  0.0024 -0.0103  0.1170
51416W        W94333   9.920  33.399  26.621 -0.1362 -0.1588 -0.0021
51417W        W94334   9.358  33.745  29.506 -0.0608 -0.1469 -0.1725
51418W        W94335   9.196  34.155  29.322  0.1804  0.0724  0.3225
51419W        W94336  10.241  32.975  30.115 -0.3667  0.0600 -0.1335
51420W        W94337   8.787  32.560  28.797  0.1469  0.0665 -0.0041
51421W        W94338  10.430   0.528  28.537  0.0281 -0.2182 -0.3183
51422W        W94339   8.326  33.880  29.632 -0.0564 -0.1376 -0.1491
51423W        W94340   8.395  31.361  30.022  0.3041 -0.0841 -0.1630
51424W        W94341   5.320   0.669  29.538 -0.1770  0.1308 -0.0505
51425W        W94342   7.318   1.551   0.486 -0.0106  0.0991  0.2130
51426W        W94343   9.749  32.553  27.824 -0.1974 -0.2011  0.0674
51427W        W94344  11.365   0.257  30.007  0.1913  0.0485 -0.3493
51428W        W94345   9.992  33.933  29.954 -0.3865  0.0432 -0.4084
51429W        W94346   9.695  33.027  30.093  0.1315  0.1656  0.0006
51430W        W94347   9.833   1.032  27.208 -0.1640 -0.0435  0.0801
51431W        W94348  11.317  32.765  31.534 -0.0920 -0.0298 -0.2240
51432W        W94349   8.135  32.711  31.855  0.2354 -0.4085 -0.1013
51433W        W94350   8.943   0.436  28.416  0.2003 -0.2490  0.0247
51434W        W94351   8.381  34.325  29.378 -0.1571 -0.2165  0.2246
51435W        W94352  12.513  32.056  30.052 -0.0270  0.1510 -0.1005
51436W        W94353  11.792   0.237  28.626 -0.0165 -0.1516  0.0742
51437W        W94354   8.208   0.257  30.435  0.0967 -0.0717  0.1716
51438W        W94355   8.105  31.920  28.982  0.0568  0.0482 -0.2972
51439W        W94356   8.847  33.115  30.945  0.1375 -0.2627 -0.4225
51440W        W94357   7.892  32.571  27.753  0.2555  0.1812  0.0596
51441W        W94358  10.163   0.266  31.328 -0.3386  0.0467 -0.0414
51442W        W94359   7.476  32.894  27.984 -0.1810 -0.0570  0.2931
51443W        W94360  11.058  33.614  29.496 -0.0296 -0.0398  0.1787
51444W        W94361   9.239   0.860  27.945 -0.3435  0.2693  0.3916
51445W        W94362  10.050  32.616  30.340  0.0695  0.0294  0.2676
51446W        W94363  10.113  34.097  30.398  0.0065 -0.0759 -0.1028
51447W        W94364   7.687  31.581  28.294 -0.3118 -0.0554 -0.0249
51448W        W94365   7.469  33.957  27.035  0.1610 -0.0395 -0.2129
51449W        W94366  10.259  33.043  31.487  0.1803  0.4106  0.2754
51450W        W94367  11.300  33.718  31.430  0.1238  0.1544 -0.0170
51451W        W94368   9.316  32.426  25.639  0.1766  0.4479 -0.0321
51452W        W94369   6.461  34.444  27.816 -0.2344  0.1644  0.0295
51453W        W94370  11.313  33.724  30.763 -0.0219  0.0948  0.0376
51454W        W94371  10.036  33.742  31.164  0.0977 -0.2497  0.0761
51455W        W94372   8.975  34.441  31.799 -0.2091 -0.1003  0.3840
51456W        W94373   6.595  33.455  27.512 -0.2363 -0.5838 -0.1147
51457W        W94374   8.696  33.810  27.369  0.0447  0.0776  0.0693
51458W        W94375  10.829  33.501  26.713  0.1234  0.2842 -0.0722
51459W        W94376  11.103  33.257  28.494 -0.0057 -0.0957 -0.1339
51460W        W94377   9.220  33.671  27.487  0.1311 -0.2359 -0.0928
51461W        W94378   9.384  33.607  27.995 -0.1075  0.1745 -0.0355
51462W        W94379   7.809  33.249  28.418 -0.1166  0.0707 -0.0390
51463W        W94380   7.651   0.073  25.824 -0.0942  0.0540 -0.0080
51464W        W94381   8.052  33.036  28.996 -0.1202  0.2238 -0.1469
51465W        W94382   9.698  33.685  30.518  0.0799  0.2337 -0.1655
51466W        W94383   9.966   0.147  28.831 -0.0140 -0.0245  0.1208
51467W        W94384   8.203  32.758  31.361 -0.2148  0.0532  0.1703
51468W        W94385  10.284  33.561  31.687 -0.0155 -0.0746 -0.1636
51469W        W94386  10.886   0.280  28.461 -0.2620 -0.0591  0.2885
51470W        W94387   8.225  34.469  28.787  0.3333  0.0358  0.1509
51471W        W94388   8.276   0.120  26.615  0.2130 -0.0216 -0.0115
51472W        W94389   8.739   0.211  29.892 -0.1228 -0.3443  0.1910
51473W        W94390   8.468  34.636  31.788  0.0682  0.2232  0.3490
51474W        W94391   8.037  32.216  27.403 -0.1792  0.3191  0.4178
51475W        W94392  11.110   0.304  29.016  0.1396  0.3402 -0.0535
51476W        W94393  10.008  32.137  31.639 -0.2426 -0.0829 -0.0302
51477W        W94394   8.000  32.273  28.607 -0.0810 -0.0379 -0.3101
51478W        W94395   7.973  32.620  29.856  0.2239 -0.0530  0.1040
51479W        W94396   9.872  32.924  29.210  0.2367  0.2038  0.0960
51480W        W94397   7.860   0.604  30.767  0.0847 -0.3618 -0.1726
51481W        W94398  10.374  33.650  29.734 -0.3902  0.1196  0.0774
51482W        W94399  10.268  34.178  30.942 -0.0871 -0.0229 -0.2180
51483W        W94400  10.786  32.416  28.383  0.0112  0.0635 -0.1717
51484W        W94401   6.408   0.882  31.403  0.3814 -0.0148  0.1144
51485W        W94402   8.247  31.709  26.511  0.0342 -0.0335  0.0990
51486W        W94403  12.701  33.018  31.337  0.4512 -0.0777 -0.0249
51487W        W94404   8.690  33.417  29.682  0.0936  0.0664 -0.2068
51488W        W94405   9.915   1.155  28.621 -0.0188  0.2969  0.2260
51489W        W94406   8.488  32.995  29.328 -0.1012  0.2263  0.1245
51490W        W94407   8.600   0.994  29.732 -0.1149 -0.1597  0.6604
51491W        W94408   8.811  34.605  26.655 -0.1206  0.2733  0.1807
51492W        W94409  10.285  32.522  29.315 -0.1018  0.2203 -0.2694
51493W        W94410  10.589  33.630   0.769  0.1114 -0.2610  0.2547
51494W        W94411   9.627  33.414  29.208 -0.2473  0.1722 -0.1816
51495W        W94412   8.492   0.237  30.892  0.1515  0.2314  0.1653
51496W        W94413   9.342  34.492  31.125  0.1045  0.3101  0.2938
51497W        W94414  10.507  32.925  28.407 -0.1195 -0.0492  0.0225
51498W        W94415   7.891   0.305  28.690 -0.1033 -0.0517  0.1026
51499W        W94416  11.616  34.127  31.576  0.3459  0.0217 -0.1045
51500W        W94417   9.716   0.629  25.578 -0.2274  0.0942 -0.0913
51501W        W94418  10.932  32.951  30.663 -0.0403 -0.0446  0.0445
51502W        W94419   7.113  34.246  29.639  0.0115  0.0724 -0.0031
51503W        W94420   7.879  34.209  31.057  0.0207 -0.1157 -0.3813
51504W        W94421   7.960   0.260  31.826 -0.1298  0.0198  0.2737
51505W        W94422   8.858  33.524  27.781 -0.1713 -0.1795  0.0077
51506W        W94423   9.904  33.888  26.365 -0.1770 -0.1358  0.0212
51507W        W94424   8.927  34.158  31.136  0.1758  0.1223 -0.0235
51508W        W94425  10.101   0.175  28.214  0.2142 -0.3101  0.0230
51509W        W94426   8.197  34.158  28.099 -0.0216 -0.0260 -0.0955
51510W        W94427  10.360   0.312  26.975  0.0076  0.0822 -0.0872
51511W        W94428   8.754   0.708  30.096 -0.2753  0.0470 -0.0408
51512W        W94429  10.352  33.539  30.232 -0.0403  0.0746  0.0807
51513W        W94430   8.704  33.672  30.099 -0.0013 -0.1184 -0.1251
51514W        W94431   9.521  34.200  30.303  0.1838 -0.0303  0.1012
51515W        W94432   8.467  33.710  31.650  0.1470 -0.1725  0.1097
51516W        W94433   6.591  31.762   3.045  0.1121 -0.0210  0.1427
51517W        W94434  11.361  33.932  30.051  0.1830  0.0497  0.0373
51518W        W94435  11.372  33.777  29.101 -0.1723  0.0985  0.2027
51519W        W94436  13.640  33.977  30.981  0.1511 -0.3139  0.2458
51520W        W94437   9.654  31.645  26.754  0.2244 -0.2730  0.1091
51521W        W94438   7.552   0.851  29.443 -0.3000 -0.0914  0.0422
51522W        W94439  11.066  32.406  31.753 -0.1077 -0.0020 -0.0249
51523W        W94440   9.903  33.143  27.951  0.1280 -0.0772  0.0971
51524W        W94441  10.537  33.498  31.020  0.2980  0.3738  0.0488
51525W        W94442   9.979  33.618  28.328  0.2302 -0.1024 -0.0152
51526W        W94443   9.559  32.679  30.528  0.1108 -0.1869 -0.1920
51527W        W94444   7.364   0.304  28.741  0.2857  0.0235  0.0125
51528W        W94445   8.429  33.245  27.552  0.0523 -0.0697  0.1811
51529W        W94446   9.051  31.842  26.625  0.3585 -0.3271 -0.2251
51530W        W94447  11.577  33.249  31.190  0.2603 -0.3317  0.0592
51531W        W94448  11.247  33.261  28.920  0.1993 -0.3463  0.2598
51532W        W94449   7.843   1.070  29.097  0.0456 -0.0585  0.1495
51533W        W94450  10.121   0.790  28.932  0.1975  0.1135 -0.0803
51534W        W94451   9.231   1.753  29.267 -0.1249 -0.0774 -0.0253
51535W        W94452  10.773   0.388   0.562 -0.1048  0.3132  0.3473
51536W        W94453   8.036  34.654  28.306 -0.0387  0.0132  0.3090
51537W        W94454   7.210  33.510   0.964 -0.0815 -0.1125 -0.1979
51538W        W94455   8.634  32.172  28.074 -0.1154 -0.0470  0.0764
51539W        W94456  10.016  32.118  28.163 -0.5094  0.2007  0.0210
51540W        W94457  11.350  33.217  29.404  0.1686 -0.1156  0.0534
51541W        W94458  10.547  34.449  29.184 -0.1074 -0.1047 -0.3777
51542W        W94459  10.735  34.473  26.568  0.1878 -0.1258 -0.3131
51543W        W94460  10.851  32.481  30.842 -0.0023 -0.1532 -0.3442
51544W        W94461  10.077  33.102  28.421 -0.1112 -0.0509 -0.1084
51545W        W94462   7.836   1.332   2.035 -0.1232  0.1664  0.2070
51546W        W94463  11.050  32.054  31.340 -0.1544  0.2724  0.0563
51547W        W94464   7.124  34.510  28.858  0.0187 -0.1503 -0.0477
51548W        W94465   9.124  34.442  27.828  0.2436  0.0278  0.0784
51549W        W94466  10.466  31.402  28.583 -0.1637 -0.4013 -0.1709
51550W        W94467   8.836   1.915  29.058  0.0327 -0.0411  0.0353
51551W        W94468   8.525  31.933  30.852  0.1307 -0.3599  0.0290
51552W        W94469  11.732   1.002  27.544  0.0448 -0.0054  0.3144
51553W        W94470   7.395   1.404  30.622 -0.1596  0.0627  0.1852
51554W        W94471   8.493  33.488  30.912  0.3290 -0.2052 -0.0910
51555W        W94472   7.536  34.520  30.157  0.1510  0.0501  0.2114
51556W        W94473   8.854   0.466  28.983  0.2196 -0.0310 -0.4257
51557W        W94474   9.506   1.097  29.748 -0.0263  0.0730  0.0924
51558W        W94475   8.782  34.293  27.068 -0.1501  0.4399  0.0314
51559W        W94476  10.916  33.150   0.796 -0.2091  0.0496 -0.1574
51560W        W94477   8.805  33.406  27.102 -0.3575  0.0610  0.2724
51561W        W94478   7.758  31.780  27.397 -0.0802  0.1358 -0.1042
51562W        W94479   8.667  32.651  28.273 -0.2186 -0.0831  0.1995
51563W        W94480   8.422  33.133  28.182 -0.1481  0.0162 -0.2895
51564W        W94481   9.468  34.420  29.624 -0.2007 -0.0842 -0.0088
51565W        W94482   7.221  33.217  29.741  0.2319  0.2423  0.0637
51566W        W94483   9.195  34.050  29.885 -0.3130 -0.3364  0.0904
51567W        W94484  10.580   1.237  27.887 -0.2417  0.3152 -0.3800
51568W        W94485   6.829   0.267  29.966 -0.3102  0.1841  0.1232
51569W        W94486   7.890  32.754  29.384  0.1849 -0.2878 -0.0019
51570W        W94487   8.008   0.006  29.161 -0.4954  0.0495  0.0737
51571W        W94488  10.773  34.038  29.685 -0.3753  0.0256 -0.2077
51572W        W94489   8.356  33.104  30.571 -0.0786  0.0559 -0.2271
51573W        W94490  10.392  30.204  30.378  0.0022  0.2758  0.0122
51574W        W94491   9.509  33.204  28.274 -0.2160  0.1716 -0.1083
51575W        W94492   8.281  33.595  30.507  0.0953 -0.0789 -0.0841
51576W        W94493  12.096  32.597  29.257 -0.0276  0.0600 -0.3636
51577W        W94494  10.027  33.791  27.869  0.2422  0.1068 -0.1260
51578W        W94495   8.449   0.959  31.447  0.1874 -0.1339 -0.1195
51579W        W94496   7.889  34.486  27.268 -0.1743  0.0714  0.1544
51580W        W94497   8.941  33.630   0.457  0.0979 -0.1320 -0.0324
51581W        W94498   8.562  33.517  29.214 -0.4789 -0.0640  0.0218
51582W        W94499   6.691   0.206  27.727  0.1337 -0.2769 -0.2560
51583W        W94500   9.119  33.344  29.445  0.1559 -0.0414  0.0681
51584W        W94501   7.335  33.065  29.220 -0.0697 -0.0692  0.0346
51585W        W94502   7.672  33.766  29.305 -0.0595  0.2243  0.0530
51586W        W94503   8.890  34.399  29.612  0.2821  0.2479  0.0124
51587W        W94504   9.234   0.147   0.102 -0.0667  0.0241 -0.0731
51588W        W94505   8.108  33.924   0.003  0.0322 -0.0962  0.1282
51589W        W94506   7.382  33.542  26.658 -0.2928  0.2415 -0.4512
51590W        W94507  11.063  33.339  31.076  0.0007  0.0581  0.2068
51591W        W94508   6.762  32.833   0.015 -0.0660  0.2051 -0.2085
51592W        W94509  11.392  32.318  30.441 -0.2825 -0.2598  0.1413
51593W        W94510   9.029   0.288  27.601 -0.0307  0.0814 -0.0164
51594W        W94511   8.162  32.782   0.416 -0.2866  0.1882 -0.0755
51595W        W94512   8.431  31.846  29.756 -0.1162 -0.0416  0.0468
51596W        W94513  10.112  34.294  28.181  0.0044  0.0020 -0.1358
51597W        W94514   8.735  34.262  28.977  0.0477 -0.2426  0.4173
51598W        W94515   8.761  33.264  28.786 -0.2541 -0.2261  0.2041
51599W        W94516   9.412  34.433   0.418  0.0457 -0.3062  0.1306
51600W        W94517   7.818   0.163  27.788  0.0739  0.0234  0.0737
51601W        W94518   7.714   0.953  25.453 -0.2270  0.1683 -0.1557
51602W        W94519   8.076  34.541  30.704 -0.0129 -0.1891  0.1995
51603W        W94520   7.221  33.196  28.256 -0.1730 -0.0880 -0.0822
51604W        W94521   8.798   1.610  27.423 -0.0435 -0.0504 -0.0557
51605W        W94522   9.739  33.268   1.119  0.1527 -0.0852 -0.2003
51606W        W94523   8.976   0.633  29.656 -0.0173  0.2480  0.1687
51607W        W94524   9.005  30.940  26.278 -0.0742  0.0262 -0.1496
51608W        W94525  10.332  34.219   0.995 -0.0142  0.1021 -0.1877
51609W        W94526   9.082  34.365   0.864  0.0179  0.3245  0.3010
51610W        W94527   6.782  33.291   0.312  0.2182  0.1841  0.2486
51611W        W94528  12.195  33.668   0.426  0.1435 -0.2046 -0.0292
51612W        W94529   9.648   0.146   1.319  0.1210 -0.1209  0.3786
51613W        W94530  10.037  34.618  30.336  0.2399  0.2971  0.2480
51614W        W94531   8.464  32.758  30.933  0.1774  0.2136 -0.1564
51615W        W94532  11.111  34.112  31.709  0.1315  0.0764 -0.0708
51616W        W94533   9.451  33.789   0.133  0.0768 -0.1422 -0.1816
51617W        W94534   7.277  32.221   1.122 -0.2634 -0.0115 -0.1641
51618W        W94535   9.351  33.843  31.241  0.1153  0.1031 -0.1312
51619W        W94536   9.987  32.743  30.840 -0.0522 -0.0038  0.1757
51620W        W94537  10.869   0.252   1.077 -0.1418 -0.0129  0.0494
51621W        W94538   9.048  33.945  31.798  0.0770  0.3375 -0.1656
51622W        W94539   8.855  33.640  31.200 -0.2432  0.0859 -0.3360
51623W        W94540   7.839   1.395   0.040 -0.1257  0.1202  0.3344
51624W        W94541   9.759  31.854   0.020 -0.0897 -0.0194 -0.1084
51625W        W94542   8.160  32.232  31.534 -0.1372 -0.0031  0.1134
51626W        W94543  11.073  30.416  29.725  0.0711  0.1710 -0.4142
51627W        W94544   7.942  32.336   0.207 -0.1351 -0.0033 -0.1738
51628W        W94545   9.218   0.515  30.617 -0.0632 -0.2116 -0.1523
51629W        W94546  11.072  31.862   1.210 -0.0053  0.1624  0.0625
51630W        W94547  11.494  34.501  30.868  0.2421  0.1852 -0.0463
51631W        W94548   9.194  33.573  30.852 -0.1971  0.0985 -0.0724
51632W        W94549   7.441  33.454   0.460  0.1569 -0.0645 -0.0529
51633W        W94550   9.542   0.068   0.851 -0.0477 -0.0603  0.1300
51634W        W94551  11.747  32.763  31.348 -0.2845 -0.1657 -0.1403
51635W        W94552   9.059  32.659  30.995  0.1135 -0.0581  0.1065
51636W        W94553   7.707  32.056  31.507 -0.1988  0.1565 -0.3078
51637W        W94554   9.793  34.195  31.250 -0.0760  0.1068 -0.2066
51638W        W94555   9.026   0.606   0.262 -0.0994  0.3228 -0.0297
51639W        W94556   7.680  34.335   0.476 -0.0426 -0.2627 -0.2309
51640W        W94557   7.298  31.285  31.228 -0.1553  0.2878 -0.1434
51641W        W94558  11.124  31.584  30.786  0.2000 -0.0785  0.2224
51642W        W94559  10.720   3.127  19.122  0.2495  0.1389 -0.1417
51643W        W94560  12.590   0.316  15.728 -0.1470 -0.0729 -0.0148
51644W        W94561  12.002   1.397  14.326 -0.0304  0.1718 -0.3103
51645W        W94562  12.940   0.784  15.135 -0.0786  0.1735 -0.0601
51646W        W94563  11.681  33.485  14.702  0.0283 -0.2195 -0.0369
51647W        W94564  13.951   1.817  16.579 -0.1117 -0.0516  0.4917
51648W        W94565  13.952  33.539  16.487 -0.0123  0.0449 -0.1029
51649W        W94566  12.678   1.987  18.505  0.1762 -0.2620  0.0953
51650W        W94567  15.108   4.080  19.991  0.2406 -0.1362 -0.1916
51651W        W94568  11.428   1.338  16.661  0.0516 -0.3160 -0.0327
51652W        W94569  10.893   2.225  17.845  0.1278  0.0030  0.3539
51653W        W94570  12.339   1.830  15.689  0.1173 -0.0660 -0.1940
51654W        W94571  14.511   0.743  15.679  0.4437  0.0954 -0.1012
51655W        W94572  12.465  34.586  17.787 -0.0462 -0.0881 -0.1243
51656W        W94573  11.604   1.210  17.289 -0.0961  0.0868  0.1457
51657W        W94574   9.731  34.068  15.207 -0.2527 -0.2106  0.0551
51658W        W94575  11.250  34.357  17.529  0.2738 -0.1788 -0.1360
51659W        W94576  13.757   0.190  16.453  0.1047 -0.0397  0.0992
51660W        W94577  13.861   3.608  16.691 -0.1155  0.0894 -0.0525
51661W        W94578  11.389   1.656  19.262 -0.0161  0.0544  0.0013
51662W        W94579  14.939  33.658  16.002 -0.1342 -0.3556  0.3707
51663W        W94580  12.101   2.408  17.823  0.1359  0.2352 -0.2510
51664W        W94581  12.005  34.417  15.033 -0.0314  0.1026 -0.0903
51665W        W94582  10.646   2.024  18.381 -0.0093  0.0113  0.0497
51666W        W94583  12.978   1.744  17.778 -0.2097 -0.0586  0.2521
51667W        W94584  13.747  34.425  18.042  0.1095 -0.0412 -0.1231
51668W        W94585  13.222   2.142  15.926 -0.0456 -0.1705 -0.0607
51669W        W94586  11.556   4.077  19.929 -0.2186 -0.0850 -0.2947
51670W        W94587  11.019   3.209  17.254  0.1292 -0.3185  0.0848
51671W        W94588  13.843   0.895  20.331  0.0546  0.1800  0.3668
51672W        W94589   9.949   1.912  16.975  0.0313 -0.2508  0.0836
51673W        W94590  11.360   2.620  16.771 -0.3194  0.1947  0.0688
51674W        W94591  10.966   1.536  16.641 -0.2582  0.0523  0.0385
51675W        W94592  10.717   2.554  15.912  0.0291 -0.1607 -0.1063
51676W        W94593  13.924   2.571  19.557  0.0110 -0.1519  0.0600
51677W        W94594  12.974   3.900  18.724  0.1278  0.0095 -0.2110
51678W        W94595  11.511   1.041  15.488  0.0518 -0.0188 -0.2132
51679W        W94596  12.256   2.629  19.693 -0.1357 -0.0804  0.0298
51680W        W94597  11.524   0.558  17.692 -0.3442  0.1413  0.0946
51681W        W94598  11.372   3.500  16.563 -0.0703  0.2390  0.2741
51682W        W94599  12.029   3.247  16.453 -0.0973  0.0061 -0.0985
51683W        W94600   9.772   2.502  16.797  0.0381  0.2715 -0.3289
51684W        W94601  11.848   2.793  16.769  0.1436 -0.1239  0.0525
51685W        W94602  12.854   3.605  17.504 -0.1300 -0.0076 -0.0428
51686W        W94603  10.879   3.205  18.122  0.0623  0.0279 -0.1936
51687W        W94604  13.674   0.547  18.490  0.0128 -0.0535  0.5490
51688W        W94605  12.062   2.426  15.053  0.1537 -0.2861  0.2248
51689W        W94606  12.185   0.066  14.448  0.2022  0.0382  0.1477
51690W        W94607  10.963  32.233  15.223 -0.5286  0.3817 -0.0458
51691W        W94608  14.461  34.585  15.877 -0.0037 -0.1923  0.1554
51692W        W94609  11.455  34.509  15.919  0.0927  0.2022 -0.1837
51693W        W94610  12.514   2.342  17.587  0.0388 -0.0046 -0.0274
51694W        W94611  12.457   0.390  14.684 -0.2549 -0.0964  0.1501
51695W        W94612  14.200   3.057  18.244  0.0095 -0.2821  0.0839
51696W        W94613  12.024   2.307  14.379 -0.3058 -0.0110  0.0055
51697W        W94614  13.311   1.199  19.234 -0.0399  0.0499 -0.2889
51698W        W94615  12.879   1.653  15.805 -0.0882 -0.1107  0.1188
51699W        W94616  10.677   0.822  16.980  0.0660  0.3781 -0.1717
51700W        W94617  14.830   0.869  18.036  0.1874 -0.2744  0.0906
51701W        W94618  13.515   2.875  18.962  0.0568 -0.0549 -0.2815
51702W        W94619  12.164   1.958  16.868  0.2875 -0.1354  0.0035
51703W        W94620  12.674   1.680  15.313 -0.1487  0.1054 -0.2675
51704W        W94621  10.691   1.314  17.026  0.1588  0.0188 -0.0004
51705W        W94622   9.034   1.650  17.923 -0.0335 -0.2126 -0.2449
51706W        W94623  10.145  33.726  15.183 -0.1282  0.0647  0.1370
51707W        W94624  15.274   1.399  20.890  0.3588  0.1073 -0.1360
51708W        W94625  11.561   3.538  19.163  0.0671  0.1625 -0.0860
51709W        W94626  14.696  34.158  15.181 -0.4428  0.1143 -0.0864
51710W        W94627  13.495   1.348  19.997  0.0306 -0.2309 -0.0513
51711W        W94628  11.588   2.015  18.657 -0.0638  0.4486  0.2283
51712W        W94629  12.760   2.546  16.713  0.0012 -0.0952 -0.0653
51713W        W94630  14.606  34.103  15.812 -0.0220 -0.5123  0.2332
51714W        W94631  11.643   2.306  19.299 -0.2022 -0.2024  0.0198
51715W        W94632  11.665   2.098  14.682  0.1732  0.1533 -0.0794
51716W        W94633  14.228   0.934  16.769 -0.0104 -0.2266  0.1105
51717W        W94634  13.863   2.759  18.510  0.1650  0.0473  0.0920
51718W        W94635  13.922   2.062  14.475 -0.3462 -0.1324 -0.0251
51719W        W94636   9.742   2.152  15.300 -0.0346  0.1202  0.0076
51720W        W94637  13.955   1.002  19.182  0.1741 -0.1649 -0.0124
51721W        W94638  13.104   2.575  19.118  0.1350  0.2229 -0.3824
51722W        W94639  11.143   3.053  16.058  0.1474 -0.2819 -0.0041
51723W        W94640   9.805   2.313  17.879  0.1271  0.0732 -0.0070
51724W        W94641  11.626   2.934  15.847  0.1452  0.2872 -0.1730
51725W        W94642  10.035   0.739  20.454 -0.2684 -0.0103 -0.2128
51726W        W94643   9.487   1.913  17.746  0.0338  0.2896 -0.0916
51727W        W94644  12.858   1.157  17.043  0.3873  0.1209  0.2573
51728W        W94645   9.762  33.561  18.807 -0.2719 -0.4147 -0.0756
51729W        W94646  14.387  33.603  15.958 -0.1454 -0.2687 -0.2977
51730W        W94647  12.290   3.538  17.518  0.0227 -0.1056  0.3243
51731W        W94648  12.591   2.829  17.163  0.0215  0.0496 -0.0493
51732W        W94649  12.960   1.214  15.580  0.0294  0.2645  0.0895
51733W        W94650  14.115   1.435  15.205  0.2632  0.1029  0.0099
51734W        W94651  10.412   0.324  15.440 -0.0548 -0.2344 -0.1138
51735W        W94652  12.597   0.869  15.576 -0.0219 -0.1849  0.1388
51736W        W94653  10.819   0.298  20.512  0.1629  0.0329 -0.3730
51737W        W94654  10.808  34.643  19.222  0.1399 -0.1709  0.2643
51738W        W94655  15.571   1.014  19.268  0.1353  0.0284 -0.0747
51739W        W94656  10.646   1.853  16.362 -0.0620  0.0647  0.1618
51740W        W94657  12.756   2.160  16.004  0.0666  0.3928  0.2655
51741W        W94658  12.995   1.331  16.580 -0.0686  0.2717 -0.0900
51742W        W94659  10.112   1.762  15.781 -0.1489 -0.1197 -0.2279
51743W        W94660  12.141  34.464  19.572  0.0175 -0.1887  0.0147
51744W        W94661  13.517   2.359  17.140 -0.0477 -0.0534 -0.0207
51745W        W94662  14.851   4.283  20.794 -0.1875  0.0751 -0.0270
51746W        W94663  12.416   3.869  18.861 -0.1864  0.0196  0.0121
51747W        W94664  12.785   1.038  19.306  0.1162 -0.1963  0.1682
51748W        W94665  11.541  33.749  16.363 -0.4122  0.0402  0.1817
51749W        W94666  11.231   3.459  17.628 -0.0561 -0.0492  0.2372
51750W        W94667  11.988   2.856  17.646  0.2059 -0.1690 -0.2924
51751W        W94668  12.367  34.085  16.010 -0.1000 -0.0270  0.0121
51752W        W94669  15.775   3.155  19.404 -0.0638 -0.0349 -0.0615
51753W        W94670  11.667   2.448  15.893 -0.3205 -0.0548 -0.2575
51754W        W94671  11.189   1.050  17.065  0.0628  0.1236  0.0125
51755W        W94672  14.074   0.654  18.177  0.0875 -0.2503  0.0049
51756W        W94673  13.160   1.003  18.315 -0.3462 -0.0773 -0.0097
51757W        W94674  13.127   3.705  16.797 -0.1115  0.2522  0.1721
51758W        W94675   9.503  33.353  14.533 -0.1046 -0.1949 -0.3153
51759W        W94676  12.353   4.473  16.280 -0.3411 -0.0650 -0.2047
51760W        W94677  11.126   3.570  16.108  0.2030 -0.1525  0.1759
51761W        W94678  10.464   1.916  17.912 -0.2474 -0.1540  0.0668
51762W        W94679  14.359   4.555  18.551 -0.0661  0.1342  0.0568
51763W        W94680  13.775   0.650  16.574  0.3248  0.0588  0.0349
51764W        W94681   9.509   0.968  19.514 -0.0437 -0.0487 -0.1314
51765W        W94682  15.221   0.735  17.177  0.1215  0.1855  0.0061
51766W        W94683   9.717   1.354  16.153 -0.0151 -0.1587 -0.0985
51767W        W94684  11.125   4.080  19.735  0.0373 -0.1502  0.1025
51768W        W94685  12.112  34.225  15.600  0.3340 -0.1231 -0.1513
51769W        W94686  11.304   0.513  14.098  0.1110 -0.0138  0.0682
51770W        W94687  12.611   0.525  18.530 -0.1122  0.0299  0.6703
51771W        W94688  11.339   1.278  17.973 -0.1948 -0.1359 -0.0558
51772W        W94689  13.133   0.995  14.586  0.2407 -0.1590  0.1201
51773W        W94690  12.558  34.590  14.801  0.1901  0.0308  0.2647
51774W        W94691  10.888   1.828  17.319 -0.1319  0.1936 -0.4936
51775W        W94692  13.009   1.615  18.279  0.0316  0.2169  0.0758
51776W        W94693  10.880   0.236  15.654  0.0620  0.3776  0.1822
51777W        W94694  11.691   0.378  14.673  0.1062  0.1335 -0.0761
51778W        W94695  14.816   2.255  16.766 -0.4539  0.0530  0.1699
51779W        W94696  13.047   2.314  16.390 -0.2265  0.0294 -0.3113
51780W        W94697  11.949   0.847  20.741  0.2301  0.0269  0.0431
51781W        W94698  12.605   4.190  18.505  0.1101  0.0044 -0.0986
51782W        W94699  13.783   1.362  17.846  0.1752 -0.2938 -0.0169
51783W        W94700  11.068   0.029  14.929  0.1692 -0.1348  0.0504
51784W        W94701  13.032  34.667  14.895 -0.1118  0.2159  0.0758
51785W        W94702  12.522   2.693  15.243  0.4654  0.0873 -0.4374
51786W        W94703  12.647   0.737  17.530 -0.2551  0.1874 -0.1179
51787W        W94704  12.298   1.350  18.354  0.0066 -0.2215  0.0524
51788W        W94705  14.129   0.596  16.203  0.0275 -0.0558 -0.1993
51789W        W94706  12.980   1.992  22.633 -0.2457 -0.0625 -0.0382
51790W        W94707  13.710   1.329  14.066  0.3873  0.0243 -0.0853
51791W        W94708  12.264   2.283  16.038 -0.3389  0.3066  0.1916
51792W        W94709  12.389   1.328  15.668  0.1909  0.1417  0.0589
51793W        W94710  13.279   0.003  16.470 -0.1523 -0.0353  0.2508
51794W        W94711  10.974   3.211  20.249 -0.2871  0.1794  0.1528
51795W        W94712  10.956   2.369  17.388 -0.2292 -0.0479  0.0331
51796W        W94713  12.691   1.557  18.680 -0.3067 -0.0017 -0.4318
51797W        W94714  13.479   1.941  16.801 -0.1459  0.0437 -0.2331
51798W        W94715  11.413   0.674  18.166 -0.1169 -0.1782 -0.1938
51799W        W94716  10.804   0.928  16.112  0.2094 -0.0553  0.0149
51800W        W94717  11.329   4.076  16.095  0.2171  0.3525  0.2433
51801W        W94718  12.874   2.182  15.107  0.0632  0.0988 -0.3321
51802W        W94719  12.300  34.058  17.028 -0.1869 -0.0396 -0.3094
51803W        W94720  12.780   3.019  20.038  0.0052  0.0409  0.1602
51804W        W94721  13.421   0.829  15.032  0.2967  0.0061  0.0211
51805W        W94722  14.748   1.460  19.137  0.0740 -0.0006  0.3577
51806W        W94723  11.002   4.894  16.703 -0.1279 -0.0065 -0.3286
51807W        W94724  14.315   1.618  15.697 -0.2691 -0.4167 -0.1947
51808W        W94725  11.296   2.173  17.062 -0.1798  0.3555 -0.0615
51809W        W94726  12.076   0.740  14.665 -0.0666  0.0007  0.3413
51810W        W94727  10.391   1.718  14.736 -0.1498 -0.0596 -0.2203
51811W        W94728  13.874   1.296  16.925 -0.1557  0.0183  0.2121
51812W        W94729  14.516   1.945  15.378 -0.0653 -0.3236  0.1444
51813W        W94730  10.344   1.773  17.247 -0.1570 -0.1741 -0.0298
51814W        W94731  12.763   1.255  17.975 -0.2197  0.0903  0.0797
51815W        W94732  11.832   1.889  19.080 -0.1062  0.3063  0.0185
51816W        W94733  13.633   1.052  19.596 -0.4659 -0.1230 -0.0069
51817W        W94734  13.989   0.099  15.967 -0.0282 -0.1640  0.1755
51818W        W94735  11.997   1.911  16.378  0.1170  0.0089  0.2310
51819W        W94736  12.453   4.156  16.659  0.0583 -0.0485  0.0895
51820W        W94737  11.268  33.946  15.976  0.0141 -0.1135 -0.0019
51821W        W94738  13.150  34.193  19.596  0.0468  0.1026  0.2420
51822W        W94739  10.591   2.020  16.845 -0.2200  0.3822  0.0388
51823W        W94740  10.010   1.446  14.845 -0.1302 -0.2194  0.1621
51824W        W94741  12.100   4.525  17.553  0.2543 -0.1338  0.3785
51825W        W94742  11.991   1.005  15.387 -0.3135  0.0185  0.0633
51826W        W94743  11.560   3.024  19.230  0.5367  0.4521 -0.2150
51827W        W94744  12.414   2.871  15.796 -0.0403  0.0129  0.2896
51828W        W94745  14.278   2.525  16.707  0.0939 -0.1195  0.1509
51829W        W94746  13.160  34.251  17.188  0.0033  0.0320 -0.0571
51830W        W94747  14.271   0.145  17.212  0.2295 -0.1136  0.1046
51831W        W94748  11.547   2.942  16.343 -0.1025  0.0088 -0.3207
51832W        W94749  11.088   3.108  19.444 -0.2682  0.0372 -0.2507
51833W        W94750  13.990   0.845  17.550  0.0131 -0.1400 -0.4300
51834W        W94751  10.844   1.267  20.762  0.0673  0.0316 -0.0459
51835W        W94752  15.248   1.231  18.132 -0.0870 -0.2072  0.1748
51836W        W94753  14.648   3.136  16.885  0.0040 -0.2507  0.1847
51837W        W94754  15.572   2.238  20.044 -0.2605 -0.4203 -0.3657
51838W        W94755  13.431  34.640  14.360 -0.0631  0.2104  0.2634
51839W        W94756  10.265   1.260  17.318 -0.1413  0.1564 -0.1622
51840W        W94757  12.097   1.755  17.383  0.1123  0.1523  0.1653
51841W        W94758  11.962   2.152  20.628  0.0837 -0.0040  0.0963
51842W        W94759  12.535   1.678  18.044 -0.0639 -0.2254  0.1228
51843W        W94760  11.269   1.888  15.082 -0.2716  0.1474  0.1000
51844W        W94761  11.176   3.737  18.746 -0.0061  0.3555  0.1378
51845W        W94762  14.166   1.178  13.850  0.3114  0.0583  0.1138
51846W        W94763  14.371   2.711  17.148  0.2360  0.0520 -0.1718
51847W        W94764  11.487   3.410  15.083  0.1857 -0.2108 -0.0363
51848W        W94765  14.564  32.857  18.194 -0.1276 -0.3374  0.1454
51849W        W94766  14.256   1.832  14.957 -0.2223 -0.0450 -0.2453
51850W        W94767  12.931   0.313  18.867  0.0282 -0.1100 -0.1105
51851W        W94768  10.797   1.630  19.253  0.2695  0.3114  0.0139
51852W        W94769  14.730   3.868  16.310 -0.2869 -0.1590 -0.0211
51853W        W94770  12.276   1.057  16.135 -0.1194 -0.0676 -0.4094
51854W        W94771  15.699   3.529  21.047  0.1635  0.0003  0.0619
51855W        W94772  11.667   2.667  18.023  0.1781 -0.1732 -0.0831
51856W        W94773  14.198   0.145  15.480  0.1229  0.2113 -0.2110
51857W        W94774  10.926  33.312  18.319  0.0559 -0.2208 -0.2134
51858W        W94775  14.302   1.244  18.182 -0.0048 -0.0343  0.1004
51859W        W94776  13.146   0.538  18.420  0.1801  0.0165 -0.2330
51860W        W94777  11.460   1.995  15.623 -0.0581  0.0605  0.3016
51861W        W94778  14.066   1.098  15.755 -0.0904 -0.0992 -0.3900
51862W        W94779  11.713   0.802  15.935 -0.1702 -0.2890 -0.0060
51863W        W94780  13.340   1.468  17.010 -0.0782 -0.1878  0.0564
51864W        W94781  11.741   2.446  16.407  0.0663  0.0572  0.0443
51865W        W94782  11.342   0.442  14.983  0.0357 -0.1486  0.1048
51866W        W94783  10.448  34.444  18.699 -0.0087 -0.3270 -0.2376
51867W        W94784  11.202   0.964  17.519  0.1516 -0.2123  0.0232
51868W        W94785  13.487   0.095  15.650  0.2244 -0.1846  0.2903
51869W        W94786  14.057   1.327  18.759 -0.3129  0.4381 -0.1537
51870W        W94787  14.034   2.132  18.357  0.0637  0.0337 -0.0653
51871W        W94788  12.670   0.729  16.037  0.2112 -0.0622 -0.1918
51872W        W94789  10.647  34.570  20.131 -0.2815  0.0952 -0.1248
51873W        W94790  11.867   4.686  17.161 -0.0555 -0.1322  0.3063
51874W        W94791  12.245   0.430  15.399 -0.4706 -0.2735  0.2431
51875W        W94792  14.222   0.383  18.598 -0.1886  0.0861 -0.0200
51876W        W94793  15.168   1.475  15.401  0.2378 -0.0186 -0.2841
51877W        W94794  13.673   1.637  15.152 -0.1341 -0.2820 -0.0653
51878W        W94795   9.812   1.480  18.141 -0.1251 -0.2233 -0.0868
51879W        W94796  14.229   3.011  19.609 -0.3750  0.3807  0.0657
51880W        W94797  12.002  32.562  14.866  0.2318 -0.0714  0.1940
51881W        W94798  12.465   0.475  19.066 -0.1301  0.0968  0.1235
51882W        W94799  10.396   1.324  19.490 -0.2019 -0.0944 -0.1428
51883W        W94800  11.364   2.476  17.644  0.1139  0.1559  0.1240
51884W        W94801  13.128   0.585  14.234 -0.1330 -0.0509 -0.3229
51885W        W94802   9.906   0.848  17.325  0.2711 -0.0260 -0.4172
51886W        W94803  10.825   4.206  18.000  0.3923  0.0034  0.3443
51887W        W94804  10.874  33.147  14.768 -0.1807 -0.1935 -0.4275
51888W        W94805  12.073   2.283  15.557  0.0035 -0.2625 -0.0962
51889W        W94806  13.583   1.440  18.883 -0.2528 -0.0537 -0.2425
51890W        W94807  14.814   0.388  18.484  0.1652 -0.2244 -0.0454
51891W        W94808  12.333  33.718  15.532 -0.0259 -0.2067  0.0212
51892W        W94809  15.517  33.958  17.784 -0.0384  0.2017 -0.1445
51893W        W94810  11.143   3.058  16.687 -0.1653  0.1327 -0.0467
51894W        W94811  11.755   1.068  16.374  0.0894 -0.1292 -0.0032
51895W        W94812   9.806   3.917  18.375  0.0039  0.2484 -0.0199
51896W        W94813  10.304   3.246  21.025 -0.1592 -0.1245 -0.0182
51897W        W94814  11.129   1.494  18.382 -0.1736 -0.0434  0.0415
51898W        W94815  14.943  32.453  20.296 -0.0065  0.0957  0.1532
51899W        W94816  14.834   0.274  16.226  0.1994 -0.3237  0.1776
51900W        W94817  12.070   1.182  14.846 -0.0162 -0.4421 -0.0805
51901W        W94818  13.055   1.419  19.597 -0.2175  0.0397  0.1611
51902W        W94819  13.552   1.893  18.573 -0.0290 -0.2211  0.2277
51903W        W94820  11.899   1.289  15.911  0.0297  0.0234  0.0494
51904W        W94821  13.101   1.863  18.850 -0.1030 -0.1399  0.0454
51905W        W94822  16.385   2.153  16.626  0.0899 -0.2578 -0.1626
51906W        W94823  11.803   2.283  16.891 -0.0275 -0.1375 -0.2964
51907W        W94824   9.925   1.200  19.461 -0.1869 -0.2120  0.0554
51908W        W94825  12.840   1.218  16.121 -0.1475 -0.0591 -0.0568
51909W        W94826  13.352   4.093  16.158 -0.0631 -0.0468  0.1329
51910W        W94827  12.840  33.908  15.900  0.0448 -0.1852  0.0712
51911W        W94828  11.965   2.790  15.559 -0.4146  0.2370  0.0515
51912W        W94829   9.384   2.141  18.800  0.0401 -0.2564 -0.3795
51913W        W94830   8.799  34.218  18.462  0.0237  0.0197  0.0814
51914W        W94831  10.353   3.893  16.571  0.1402  0.0196 -0.2777
51915W        W94832  12.540   1.657  16.587  0.1986  0.2776 -0.4323
51916W        W94833  12.764   2.252  19.428 -0.0867  0.1899  0.2461
51917W        W94834  13.383   3.377  19.661 -0.2964 -0.0072  0.0568
51918W        W94835  11.703   0.800  15.023 -0.0910 -0.0096  0.0612
51919W        W94836  11.596   3.159  17.431  0.1758 -0.2631  0.0721
51920W        W94837  10.530   3.019  15.885  0.0662 -0.2428 -0.1831
51921W        W94838  13.910   3.314  16.293 -0.1754  0.0645  0.1386
51922W        W94839  13.002   2.191  17.734  0.0897 -0.1995 -0.2917
51923W        W94840  14.840   1.888  19.468  0.1506  0.0334 -0.2386
51924W        W94841  13.947   0.877  15.346  0.1460  0.1076 -0.0191
51925W        W94842  12.823   0.142  14.419 -0.0873  0.0326  0.3550
51926W        W94843  12.105   0.228  14.958  0.0711 -0.0380  0.1950
51927W        W94844  11.137   1.881  18.819 -0.2015 -0.0980  0.0098
51928W        W94845  11.668   0.543  16.327  0.3375  0.1315 -0.0279
51929W        W94846  13.319   1.650  15.506 -0.0193 -0.5451 -0.1432
51930W        W94847  10.730   1.001  17.462 -0.1352  0.1945 -0.2435
51931W        W94848  14.233   0.644  19.302 -0.2246 -0.2089 -0.1807
51932W        W94849   8.984   3.164  16.946  0.1732  0.2005  0.0842
51933W        W94850  14.327   1.869  16.151 -0.1217 -0.1779 -0.3446
51934W        W94851  11.373  33.842  16.867  0.2269  0.3297  0.2910
51935W        W94852   9.868   0.546  15.779 -0.1625  0.2847 -0.1495
51936W        W94853  13.929   1.428  20.338  0.1254 -0.0028  0.4545
51937W        W94854  13.264   2.537  16.745 -0.1169 -0.0139  0.2747
51938W        W94855  12.841   0.770  16.696  0.0543  0.2050  0.0253
51939W        W94856  10.840   1.021  16.602  0.0639 -0.1485  0.0464
51940W        W94857  11.295   1.986  17.541 -0.0491  0.2520  0.1221
51941W        W94858  11.533   1.534  19.745  0.3661  0.4779 -0.1982
51942W        W94859  10.491  33.659  17.317 -0.3110  0.0939 -0.0163
51943W        W94860  14.805   2.402  17.888 -0.0685 -0.0601 -0.2613
51944W        W94861  11.466   0.639  17.194  0.3754  0.1066 -0.0471
51945W        W94862  13.859  34.493  17.237  0.0228  0.2058 -0.0224
51946W        W94863   9.930   2.949  15.964  0.1247 -0.2096 -0.0045
51947W        W94864  13.076   2.329  15.510 -0.1789  0.0187  0.0946
51948W        W94865  10.629   1.511  18.168 -0.1792  0.0713 -0.0071
51949W        W94866  10.174   2.124  18.187  0.0265 -0.0034 -0.0749
51950W        W94867  13.740   1.458  15.633  0.0791 -0.0677  0.3089
51951W        W94868  15.439   0.255  17.125 -0.1479 -0.0304 -0.0071
51952W        W94869  12.185   1.542  15.241  0.3720 -0.2135  0.0574
51953W        W94870  13.944   3.643  19.545  0.2399  0.0500 -0.2164
51954W        W94871  10.830   0.228  18.178  0.1732  0.1797 -0.1196
51955W        W94872  12.485   0.440  16.725 -0.2207  0.1198 -0.0540
51956W        W94873   8.786   2.495  17.176 -0.1316 -0.0784 -0.0771
51957W        W94874  11.415   0.380  15.874  0.0536 -0.0912  0.1120
51958W        W94875  11.804   2.936  19.689 -0.0448  0.1198  0.1120
51959W        W94876   9.948  33.654  16.672 -0.2764  0.1780  0.2705
51960W        W94877  12.991   2.125  16.849  0.0342 -0.0238 -0.0380
51961W        W94878  13.122   1.364  18.711  0.0648 -0.0346 -0.0752
51962W        W94879  12.345   3.199  15.443  0.0927  0.0637  0.1802
51963W        W94880  13.542   2.123  15.374  0.0123  0.0467  0.0880
51964W        W94881  11.689   2.634  17.263  0.0155 -0.0153 -0.0511
51965W        W94882   9.532   0.193  15.763 -0.1947 -0.1759 -0.0061
51966W        W94883  14.633   2.555  19.859 -0.1458 -0.0765 -0.0001
51967W        W94884  16.727   2.590  17.162 -0.1807  0.1083  0.0149
51968W        W94885  11.998  33.671  15.195  0.1229 -0.0070  0.0223
51969W        W94886  11.046   0.614  18.573  0.1644  0.0997  0.1256
51970W        W94887  11.362   3.075  18.004  0.1533  0.2602  0.3858
51971W        W94888  12.728   1.865  17.382  0.1427 -0.0884 -0.3236
51972W        W94889  14.540   1.166  18.774 -0.0057 -0.1252  0.3912
51973W        W94890  13.677   3.420  15.776 -0.1127 -0.1875  0.1157
51974W        W94891  13.400   0.978  16.817 -0.1842 -0.2028  0.0439
51975W        W94892  12.628   3.091  18.511  0.1959 -0.1202  0.2839
51976W        W94893  10.293   1.861  19.070 -0.1055  0.0244  0.0668
51977W        W94894  10.798   0.434  15.173 -0.2486 -0.1816  0.0253
51978W        W94895  12.339   2.068  19.812 -0.2359 -0.3075  0.1033
51979W        W94896  12.402   2.939  16.691  0.2055  0.1287 -0.2419
51980W        W94897  13.944   3.658  18.388 -0.2887  0.0799  0.0419
51981W        W94898  14.750   1.469  17.384 -0.0675  0.0371 -0.0187
51982W        W94899  11.596   2.384  15.281  0.2560  0.0043  0.1951
51983W        W94900  12.542   2.391  18.157 -0.2346  0.2728 -0.0352
51984W        W94901  12.568   2.646  16.225  0.0014  0.2361 -0.1365
51985W        W94902  14.413   2.235  17.086  0.0962 -0.0882 -0.1379
51986W        W94903  11.882  31.965  15.927  0.2229 -0.1375  0.0942
51987W        W94904  13.102   2.100  18.282 -0.0091  0.0130 -0.2294
51988W        W94905  10.936   2.030  14.102 -0.0879 -0.1478 -0.0405
51989W        W94906  10.214   1.863  15.257  0.3162  0.1858  0.0987
51990W        W94907  10.383   0.631  16.004  0.3247  0.4083  0.1216
51991W        W94908  12.389  33.898  20.920  0.3078 -0.1103 -0.2316
51992W        W94909  11.985   1.439  18.935 -0.0449 -0.0221 -0.1257
51993W        W94910  11.363  34.293  16.521  0.0908  0.0044  0.3921
51994W        W94911  10.172  33.332  14.010  0.1568  0.1874  0.2347
51995W        W94912  14.262   2.144  15.755 -0.1539  0.1405 -0.3383
51996W        W94913  12.483  34.109  16.492 -0.0987  0.0623 -0.1370
51997W        W94914   9.107   0.400  15.698 -0.2212  0.1601  0.0522
51998W        W94915  12.369   2.015  15.142 -0.0494  0.0473 -0.0193
51999W        W94916  13.309   3.202  16.192  0.0908 -0.0410  0.0834
52000W        W94917  13.494   0.645  17.537 -0.2017 -0.0311 -0.1408
52001W        W94918  15.219   1.507  19.247 -0.0545  0.1102 -0.1447
52002W        W94919   9.487   3.154  15.660 -0.0984  0.1830 -0.0362
52003W        W94920  12.796   1.951  20.055 -0.2993  0.0041  0.0064
52004W        W94921  12.359   1.440  17.050  0.0228  0.0478 -0.2750
52005W        W94922   9.514  33.993  14.785 -0.2483  0.0504  0.1177
52006W        W94923  13.439   2.397  18.754  0.0015 -0.1148  0.4592
52007W        W94924  12.592   3.510  16.654 -0.1340 -0.2725  0.1127
52008W        W94925  12.577   1.270  15.061 -0.0197 -0.1462  0.0511
52009W        W94926  12.057   1.855  18.637  0.0413 -0.2040 -0.2625
52010W        W94927  12.119   2.023  18.162  0.2391 -0.1287 -0.0306
52011W        W94928  11.719   0.024  19.765  0.0142  0.0487  0.0502
52012W        W94929  12.155   3.457  16.905  0.2513  0.2833 -0.1484
52013W        W94930  13.512   2.088  20.364 -0.2796  0.1304 -0.1817
52014W        W94931  15.162   1.217  17.617 -0.0057  0.0196 -0.0201
52015W        W94932  14.465   0.913  16.311  0.2245  0.0942 -0.3406
52016W        W94933  13.160   1.798  15.045 -0.2082  0.2186  0.1252
52017W        W94934   8.973  33.785  18.602  0.0426  0.4384 -0.2728
52018W        W94935  12.116   1.431  16.531  0.0406  0.4753 -0.0939
52019W        W94936  16.437   0.239  16.082 -0.1431  0.2028  0.2667
52020W        W94937   9.803   1.082  15.105  0.0697  0.1140  0.2290
52021W        W94938  11.342   1.549  14.672  0.1914  0.2002 -0.0572
52022W        W94939  12.996   3.098  17.426 -0.1564 -0.1936 -0.1153
52023W        W94940  10.588   2.826  17.895 -0.0477 -0.0819  0.0950
52024W        W94941  12.515   1.644  16.101  0.1585 -0.0478  0.0556
52025W        W94942  13.569   1.564  19.547 -0.0853 -0.0860  0.0093
52026W        W94943  11.864   1.529  16.955  0.3023  0.1881 -0.0900
52027W        W94944  13.442   0.961  18.770  0.1019 -0.0417 -0.0012
52028W        W94945  12.177   0.674  15.821 -0.1413 -0.3281  0.2180
52029W        W94946  14.973   3.429  16.107 -0.0943  0.0421 -0.0020
52030W        W94947  13.771   2.765  20.374 -0.0869 -0.0825  0.1349
52031W        W94948  14.143   4.852  17.725  0.2218  0.2790  0.0554
52032W        W94949  11.797   2.586  20.483  0.0803 -0.0996 -0.1428
52033W        W94950  12.518   3.297  17.173 -0.0554 -0.3042  0.1694
52034W        W94951  11.998  31.078  16.846  0.1261 -0.1985 -0.0860
52035W        W94952  10.572   0.899  15.176 -0.1435  0.0107 -0.2849
52036W        W94953  12.199   2.681  14.669  0.0123  0.4338 -0.0229
52037W        W94954  14.579   0.564  20.479 -0.0120 -0.0993  0.0182
52038W        W94955  12.132   0.380  16.253 -0.1071  0.0438 -0.1639
52039W        W94956  13.400  33.040  15.532 -0.0915 -0.1488  0.1142
52040W        W94957  11.932   2.354  18.854 -0.2150  0.0136 -0.0038
52041W        W94958  12.558   2.290  15.550 -0.0853 -0.0520  0.3826
52042W        W94959  13.043   1.898  23.227 -0.1024 -0.0477  0.0440
52043W        W94960  13.847   0.095  18.387  0.3261  0.0288 -0.0986
52044W        W94961  15.000  34.313  15.604 -0.2283 -0.1514  0.2772
52045W        W94962  14.216  34.516  18.724 -0.2750 -0.0849 -0.2147
52046W        W94963  12.029  34.321  22.507 -0.2333 -0.1456  0.0876
52047W        W94964  14.277   2.423  21.580 -0.1964 -0.0635  0.2022
52048W        W94965  10.819  33.064  21.555 -0.3948 -0.0663  0.2257
52049W        W94966  13.832   2.482  21.957 -0.2352  0.3729 -0.1364
52050W        W94967  14.555   2.224  23.066 -0.0467  0.1923 -0.0196
52051W        W94968  12.681   1.440  20.070 -0.1719  0.0934 -0.1528
52052W        W94969  12.134  34.206  21.416 -0.0554  0.0504 -0.1154
52053W        W94970  10.931   5.450  23.402 -0.3100 -0.2862  0.0524
52054W        W94971  10.292   1.185  18.470  0.2631 -0.1962  0.1665
52055W        W94972  10.613   0.564  22.060 -0.2248  0.2163 -0.0336
52056W        W94973  13.601   3.484  22.096 -0.0532  0.3043  0.2991
52057W        W94974  11.604   3.476  16.153  0.0514  0.2798  0.1722
52058W        W94975  11.728   0.432  20.689 -0.4008 -0.0911  0.0903
52059W        W94976  11.271   0.308  20.759  0.1897 -0.1369 -0.2691
52060W        W94977  12.426   4.122  21.064 -0.3262  0.2256 -0.2547
52061W        W94978  14.416  34.630  22.022 -0.0933 -0.0640  0.2508
52062W        W94979  12.585   0.880  21.763 -0.0878  0.0754 -0.1196
52063W        W94980  12.059   3.320  19.175  0.1696  0.0967 -0.1116
52064W        W94981  12.437   0.904  17.038 -0.0457  0.0581  0.0022
52065W        W94982  10.321   0.915  21.628 -0.0582 -0.3601 -0.1851
52066W        W94983  11.300  33.888  19.982 -0.0118 -0.3415 -0.2416
52067W        W94984  12.500   0.095  19.701  0.0737 -0.0708  0.1784
52068W        W94985  14.537   0.844  23.137 -0.3601  0.0975  0.0451
52069W        W94986  13.169   2.860  20.873 -0.0384 -0.1890  0.0667
52070W        W94987  12.328   3.313  20.892 -0.2846 -0.0121 -0.1616
52071W        W94988  13.354   1.379  23.912 -0.1530 -0.2837  0.3340
52072W        W94989  12.318   1.048  21.343  0.1319 -0.0812 -0.2513
52073W        W94990  11.653   1.793  20.611 -0.0469 -0.4434 -0.0822
52074W        W94991  13.489   2.688  21.706  0.1926  0.1280  0.1154
52075W        W94992  14.710   2.774  21.734 -0.1595 -0.1427 -0.0348
52076W        W94993  13.828   5.217  21.549  0.2680 -0.1777  0.1256
52077W        W94994  12.789   3.129  22.412 -0.1063  0.1480  0.0959
52078W        W94995  11.504   2.354  20.827  0.1113  0.1086  0.2479
52079W        W94996  12.200   2.622  24.209  0.0703  0.0029 -0.1724
52080W        W94997  11.040   1.714  23.241  0.0004 -0.2368 -0.1680
52081W        W94998  11.546   2.145  22.096  0.1881  0.2711 -0.0517
52082W        W94999   9.311   0.528  19.505  0.1777 -0.0053 -0.0449
52083W        W95000  11.975   2.323  21.078 -0.2462  0.1556 -0.1677
52084W        W95001  10.614   1.718  19.752 -0.2174 -0.1095 -0.3743
52085W        W95002  10.491   0.183  23.132 -0.0448 -0.1169 -0.1306
52086W        W95003  11.853  34.218  20.919 -0.0126  0.1094 -0.1142
52087W        W95004  13.783   0.388  20.987  0.0389 -0.2066 -0.1797
52088W        W95005  10.409   2.230  20.576  0.0451  0.0492 -0.1685
52089W        W95006  11.821   1.289  19.365 -0.0554  0.1434  0.2476
52090W        W95007  12.286   1.732  19.214 -0.3409  0.1192 -0.0290
52091W        W95008  14.077  33.906  19.806  0.2957 -0.0096  0.1197
52092W        W95009  10.950  34.196  19.669 -0.0866  0.1025  0.2719
52093W        W95010  13.269   2.357  22.907  0.0941 -0.1991 -0.2928
52094W        W95011  13.594   0.457  21.981 -0.0250  0.0877  0.0397
52095W        W95012  12.830   2.419  20.859  0.0583 -0.1848 -0.3092
52096W        W95013  11.018  34.572  20.667 -0.0123 -0.0225 -0.0549
52097W        W95014  12.028   1.840  23.797 -0.2212  0.0178 -0.0183
52098W        W95015  11.747   1.251  24.253  0.0924  0.4717  0.2331
52099W        W95016  12.161   1.661  20.428 -0.0461  0.1466 -0.4571
52100W        W95017  13.985   2.365  20.581 -0.0147 -0.1754 -0.1842
52101W        W95018  14.104   2.602  21.063 -0.3473 -0.2985 -0.2490
52102W        W95019  12.195   2.248  19.345  0.0266 -0.0049 -0.1218
52103W        W95020   9.885  33.654  19.898  0.0707 -0.0613  0.2073
52104W        W95021  10.545   1.522  21.081 -0.2126  0.0887 -0.2927
52105W        W95022  11.480   0.719  21.558  0.1880  0.1480  0.1157
52106W        W95023  12.165   0.915  19.240 -0.0233  0.0787 -0.2245
52107W        W95024  13.481   1.505  22.357 -0.0783  0.0530 -0.2324
52108W        W95025  11.518   3.446  22.900 -0.0808 -0.4333  0.0212
52109W        W95026  13.033  33.511  20.251  0.1288  0.2987 -0.0324
52110W        W95027  12.403   2.893  21.118  0.3189  0.1468  0.2118
52111W        W95028  13.918   1.819  22.384  0.1516  0.0744 -0.0055
52112W        W95029  12.620   2.453  19.945 -0.1316  0.0019 -0.4376
52113W        W95030  14.314   1.337  20.026 -0.0047 -0.1804  0.0971
52114W        W95031  12.951  33.859  22.371 -0.0708  0.1476  0.6382
52115W        W95032  11.010  34.441  18.714  0.1989 -0.0381  0.3075
52116W        W95033  10.849   1.135  17.889  0.0871  0.1159  0.1527
52117W        W95034  15.799   2.014  23.045 -0.1891  0.0754 -0.0927
52118W        W95035  12.953   0.516  19.881  0.0264  0.0764 -0.0613
52119W        W95036   9.762   2.546  23.391  0.4672 -0.0100  0.2984
52120W        W95037  12.529   0.455  23.084 -0.0293 -0.0152  0.2634
52121W        W95038  12.473   4.090  21.548 -0.2091 -0.1808  0.0781
52122W        W95039   9.402   2.902  19.111  0.0150 -0.2994 -0.2555
52123W        W95040   9.925   0.690  22.615 -0.1225  0.0794 -0.0133
52124W        W95041  10.342   1.316  18.973 -0.1780 -0.2716 -0.1254
52125W        W95042  12.172  33.437  22.940  0.0214 -0.1626 -0.0301
52126W        W95043   9.673   2.440  22.398  0.2616 -0.3340 -0.0021
52127W        W95044  15.039   0.372  20.615 -0.1355  0.4361 -0.1551
52128W        W95045  12.595   0.034  20.631  0.1502 -0.2103  0.1294
52129W        W95046  13.445  33.376  21.686  0.1334 -0.0017  0.0829
52130W        W95047  11.236   0.555  19.524 -0.1314  0.1251  0.3670
52131W        W95048  14.474   4.528  20.564  0.0635  0.1035  0.0063
52132W        W95049  15.262   1.994  18.556  0.1342  0.1272 -0.1075
52133W        W95050  14.850   1.572  19.851 -0.0879  0.2578 -0.1050
52134W        W95051  12.308  34.080  19.928 -0.4658 -0.0313  0.1489
52135W        W95052  13.087   0.760  21.656  0.1149  0.2313 -0.3177
52136W        W95053  11.457  33.894  20.824 -0.0749 -0.1339  0.0840
52137W        W95054  11.562  34.562  22.229  0.2986 -0.0227 -0.1348
52138W        W95055  15.651   1.280  21.667  0.0362  0.0289 -0.0413
52139W        W95056  11.731  34.670  16.302  0.0240  0.0955  0.1340
52140W        W95057  12.701   1.599  20.617 -0.0399  0.0692  0.0732
52141W        W95058  12.982   0.069  19.600 -0.0483  0.2688 -0.0058
52142W        W95059  13.214   2.367  23.384 -0.1693  0.0372  0.0601
52143W        W95060  11.390   1.694  22.412  0.1358  0.1374  0.0328
52144W        W95061  13.607   4.610  22.207  0.0390 -0.0624 -0.2942
52145W        W95062  15.499   1.068  23.539  0.1968  0.3386 -0.2154
52146W        W95063  14.128   4.776  22.073  0.0176 -0.2152 -0.0285
52147W        W95064  12.808  33.560  23.112  0.1410  0.1583  0.1909
52148W        W95065  12.794   0.115  18.095  0.0993 -0.2460  0.0143
52149W        W95066  10.071   3.061  19.688  0.0353 -0.2151  0.0027
52150W        W95067  13.477   2.820  23.149  0.2027 -0.1496  0.2679
52151W        W95068  11.609   1.513  18.665 -0.5399 -0.0844 -0.0201
52152W        W95069  14.741   3.033  20.462  0.0555  0.1372  0.2999
52153W        W95070  13.564   2.178  21.761 -0.1626 -0.4283 -0.0774
52154W        W95071  11.338   1.724  20.190 -0.1289  0.0291  0.1206
52155W        W95072  13.306   0.962  22.072 -0.0311 -0.1451 -0.1721
52156W        W95073  13.791   2.829  23.857 -0.1126  0.0127  0.2204
52157W        W95074  11.947   2.404  20.049  0.0613  0.2780  0.0178
52158W        W95075   9.216  33.110  18.654 -0.1127  0.3379 -0.2856
52159W        W95076  11.844   3.509  19.629  0.3482 -0.2831  0.4075
52160W        W95077  12.553   2.723  22.773  0.3843 -0.0560 -0.0846
52161W        W95078   9.013   2.665  19.655 -0.1192 -0.0488  0.0780
52162W        W95079  14.495   3.042  19.167  0.0597  0.0870 -0.2487
52163W        W95080  13.025   1.530  21.098  0.0893  0.0416 -0.3549
52164W        W95081   9.592   1.918  24.470  0.0507  0.0001 -0.1581
52165W        W95082  12.486   1.082  22.325 -0.2731  0.0528  0.2250
52166W        W95083  10.537   0.742  18.839  0.0291  0.2352 -0.0540
52167W        W95084   9.778   1.290  23.844  0.0333  0.0625  0.3853
52168W        W95085   8.887  34.589  20.298 -0.1014 -0.2673  0.0516
52169W        W95086  14.173   0.825  18.783  0.0801 -0.2690  0.0524
52170W        W95087  14.052   2.005  21.350  0.0956 -0.1143  0.1230
52171W        W95088  15.621   1.604  21.139 -0.0988 -0.3693 -0.0871
52172W        W95089  11.929   2.444  18.362  0.0508  0.1969 -0.0670
52173W        W95090  13.478  34.618  19.426 -0.0847  0.2239 -0.2131
52174W        W95091   9.862   1.493  20.881 -0.0088 -0.1031  0.2455
52175W        W95092  12.093   1.502  19.810 -0.1691  0.1054 -0.1208
52176W        W95093  13.881   1.706  23.108 -0.1371 -0.0709 -0.0061
52177W        W95094  14.286   0.820  20.112  0.1962 -0.0958 -0.3948
52178W        W95095  13.373   3.274  20.348  0.0642  0.2023  0.3507
52179W        W95096   9.015   1.558  22.745 -0.2484  0.0253  0.0168
52180W        W95097  13.505   2.760  24.384 -0.0548  0.1141  0.1659
52181W        W95098  12.807   2.371  23.148  0.1006  0.0756 -0.2216
52182W        W95099  12.361  34.381  20.955  0.0433  0.1522 -0.1672
52183W        W95100  13.027   0.531  19.309 -0.0538 -0.2310  0.1207
52184W        W95101   9.395   0.122  17.745 -0.2085  0.1219  0.1082
52185W        W95102  11.905   0.512  20.175 -0.3379  0.0370 -0.2122
52186W        W95103  13.354   0.773  20.063  0.0729 -0.0093 -0.1728
52187W        W95104   9.906  34.399  18.835 -0.1331 -0.1598  0.0654
52188W        W95105  12.389  34.139  24.294  0.0733  0.0780 -0.1043
52189W        W95106  14.798  33.884  23.377  0.2529  0.2130  0.1714
52190W        W95107  13.774   0.924  20.860 -0.1556 -0.0061  0.2011
52191W        W95108  11.595   1.010  20.451 -0.1723  0.1408  0.1304
52192W        W95109  11.126   1.348  18.967  0.0090 -0.2795  0.0060
52193W        W95110  13.004   0.701  20.529  0.3233  0.3069 -0.1929
52194W        W95111  11.351   0.444  22.443  0.1841 -0.3363 -0.1518
52195W        W95112  12.171   2.891  21.741 -0.0461 -0.0970 -0.0029
52196W        W95113  13.612   3.307  22.930  0.1256  0.0527 -0.4938
52197W        W95114  11.344   2.612  19.604  0.1744  0.1068 -0.3769
52198W        W95115  12.693   0.033  19.228 -0.0372  0.1898  0.1301
52199W        W95116  13.405   1.080  17.376  0.0415 -0.1261  0.0309
52200W        W95117  14.492   1.802  20.045 -0.0018  0.2026 -0.0265
52201W        W95118  11.015   2.688  20.136 -0.1080  0.0643  0.1711
52202W        W95119  11.129   1.222  20.346 -0.4449  0.2190 -0.1522
52203W        W95120  13.474   3.712  20.770 -0.3996  0.2119 -0.3031
52204W        W95121  12.899   2.355  18.718 -0.1802 -0.1349 -0.4690
52205W        W95122  13.374   2.011  22.232 -0.3479  0.1524  0.1963
52206W        W95123  12.041   2.699  19.214  0.2062 -0.0705  0.3168
52207W        W95124  13.507   0.028  22.267 -0.2283  0.1939 -0.2637
52208W        W95125  12.580   2.480  19.050  0.0187 -0.0484 -0.1695
52209W        W95126  12.411   1.279  19.470 -0.0120  0.2056 -0.4516
52210W        W95127  11.408   2.208  20.346 -0.0816 -0.0026  0.0456
52211W        W95128  13.152   0.956  19.642 -0.0811 -0.2687 -0.3598
52212W        W95129  14.869   0.033  18.979  0.1660  0.0433 -0.1247
52213W        W95130  11.732  34.076  21.642 -0.1944  0.2449 -0.1980
52214W        W95131  12.592   0.626  19.544 -0.1899 -0.3149 -0.1474
52215W        W95132  12.946   4.092  21.734  0.2945 -0.0626 -0.3414
52216W        W95133  11.451   1.613  21.586 -0.2611 -0.1290 -0.3554
52217W        W95134  13.326  33.258  17.195  0.3018  0.0904 -0.1211
52218W        W95135  13.274   1.185  21.530  0.0127 -0.0419 -0.3599
52219W        W95136  12.193   0.127  25.547 -0.1475  0.1022 -0.0473
52220W        W95137   9.632  34.417  19.363 -0.0064 -0.1223  0.2009
52221W        W95138  12.480   2.696  22.262 -0.1714 -0.0827  0.1163
52222W        W95139  13.102  33.621  21.848 -0.0289  0.2090  0.0252
52223W        W95140  12.762   2.548  20.391 -0.1173 -0.0861 -0.0494
52224W        W95141  12.299   2.666  20.269  0.0193  0.1430  0.2431
52225W        W95142  10.634   1.286  20.284 -0.1567 -0.1247  0.0086
52226W        W95143  11.325   1.075  18.555  0.2410 -0.4909  0.0393
52227W        W95144  11.873   0.484  23.870  0.0228 -0.1908  0.1973
52228W        W95145  12.142   0.852  19.709 -0.0556  0.0044  0.0593
52229W        W95146  11.144  33.747  22.486 -0.1029 -0.0364  0.1654
52230W        W95147  10.492  33.191  20.638  0.1216 -0.2609  0.2100
52231W        W95148  11.176   0.238  18.988  0.2032  0.0601  0.0496
52232W        W95149  12.522   3.212  21.528  0.0240  0.2991 -0.3261
52233W        W95150  12.051   0.102  22.230  0.0524  0.1149  0.1217
52234W        W95151  11.304   2.137  21.648 -0.1752 -0.0279 -0.0768
52235W        W95152  10.419   0.111  20.685  0.1816  0.0198 -0.0722
52236W        W95153  15.434   4.116  20.873 -0.1703 -0.1975  0.3603
52237W        W95154  13.553   2.219  23.790  0.2069 -0.1459 -0.2884
52238W        W95155   9.946   0.642  18.952  0.2384  0.1952 -0.3153
52239W        W95156  11.660   0.981  22.797 -0.0146  0.1618  0.1058
52240W        W95157  11.794   1.413  20.222 -0.0152  0.5940  0.1966
52241W        W95158  11.772   1.433  22.588 -0.1328 -0.0347  0.0682
52242W        W95159  12.690   3.722  20.899  0.0810  0.1652 -0.2366
52243W        W95160  11.476   2.193  19.825 -0.1582 -0.1783  0.0380
52244W        W95161   9.093   1.688  21.912  0.0010 -0.2890 -0.0018
52245W        W95162  12.670   1.943  18.995  0.0428 -0.3141 -0.0967
52246W        W95163  15.565   1.386  19.630 -0.4469 -0.2111  0.1779
52247W        W95164  11.049   0.053  21.175 -0.0286  0.2410  0.0049
52248W        W95165  14.455  33.778  22.382  0.0732 -0.0785 -0.2194
52249W        W95166  16.298   1.495  19.906  0.4398  0.1065 -0.0844
52250W        W95167  13.624   1.012  22.432  0.2748 -0.0738 -0.1010
52251W        W95168  10.688  34.533  23.468  0.0617  0.1887 -0.0088
52252W        W95169  14.358   3.143  20.186 -0.1548 -0.0699 -0.0959
52253W        W95170  10.951  33.321  25.005  0.0211 -0.1286 -0.1859
52254W        W95171  15.022   1.249  26.366  0.0096  0.1755  0.0113
52255W        W95172  13.189   1.072  23.009  0.1290 -0.1899  0.2113
52256W        W95173  14.868   0.660  17.554  0.1234 -0.1519 -0.0065
52257W        W95174  10.955  33.822  19.333 -0.0553 -0.2489 -0.0111
52258W        W95175  11.760   1.296  21.052  0.0227  0.0666  0.0440
52259W        W95176  13.705   3.132  23.389 -0.2753  0.1381  0.3407
52260W        W95177  12.048   1.770  20.994  0.1130 -0.2055  0.2196
52261W        W95178  12.120   0.924  20.311  0.2709  0.1798  0.3143
52262W        W95179  11.060   0.567  21.316 -0.2131  0.2491 -0.3397
52263W        W95180  12.849   1.998  21.107  0.1051  0.1429  0.2243
52264W        W95181  11.564  34.356  18.711  0.2817 -0.1600  0.2058
52265W        W95182  12.889   3.257  21.198 -0.0660  0.2809 -0.1413
52266W        W95183  11.351   0.218  21.601  0.1513  0.1315  0.0586
52267W        W95184  13.903   2.788  21.464 -0.2485 -0.0017 -0.0246
52268W        W95185  11.852   1.968  19.597  0.3268 -0.1985 -0.1151
52269W        W95186  13.701   1.209  24.785  0.0623  0.0176  0.0921
52270W        W95187  11.642   1.051  19.900 -0.0275  0.1536  0.2546
52271W        W95188  11.952   0.503  21.602  0.1669  0.3152  0.0784
52272W        W95189   9.864   0.891  24.498  0.0211 -0.1313  0.0946
52273W        W95190  14.502   3.057  23.153 -0.1426 -0.4478  0.3627
52274W        W95191  15.839   1.712  19.922 -0.0186 -0.1990  0.0072
52275W        W95192  13.387   1.634  21.822 -0.2677 -0.1323  0.2667
52276W        W95193  11.029   1.565  21.155  0.0177  0.0435 -0.1330
52277W        W95194  14.091  33.619  19.337  0.0032  0.1515  0.0469
52278W        W95195  11.175  34.422  24.722 -0.0136 -0.2896  0.0944
52279W        W95196  14.109   0.132  23.373 -0.0564  0.1013  0.4076
52280W        W95197  11.519   1.477  15.690  0.2848  0.2980 -0.0327
52281W        W95198  13.096   1.255  22.464  0.0044  0.1110 -0.1827
52282W        W95199  13.487   3.931  19.633  0.0352  0.0383 -0.1427
52283W        W95200  13.143   2.341  20.078  0.1468 -0.1681 -0.2829
52284W        W95201  14.455  34.112  18.568 -0.1382 -0.2004  0.0146
52285W        W95202  11.053   0.059  22.089  0.3605  0.2243  0.0192
52286W        W95203  11.506   1.823  23.438 -0.0784  0.0778 -0.1382
52287W        W95204  11.699   1.007  18.985  0.0510 -0.2032  0.0785
52288W        W95205  13.035   1.113  20.147 -0.2370  0.0672 -0.2753
52289W        W95206  13.333   2.747  23.670 -0.0112 -0.3046  0.2313
52290W        W95207  13.072   2.058  21.808 -0.2071  0.0787  0.0073
52291W        W95208  14.521  33.751  19.015  0.1740 -0.4620  0.1808
52292W        W95209  11.658   1.448  22.072  0.0152  0.1264 -0.0692
52293W        W95210  11.136   2.111  19.318 -0.1487 -0.4489  0.0669
52294W        W95211  12.024  32.849  19.151 -0.3258  0.1011  0.2312
52295W        W95212  11.988   1.804  21.821 -0.0871  0.1215  0.0632
52296W        W95213  10.144   1.250  23.448 -0.0194 -0.1658 -0.1897
52297W        W95214  11.313   1.144  21.294  0.2433  0.0547  0.0953
52298W        W95215  12.921   0.857  21.211  0.0836  0.0224  0.1052
52299W        W95216  10.969   1.342  19.897 -0.0060  0.1520 -0.3375
52300W        W95217  11.508   1.725  18.123  0.1109  0.1553 -0.2579
52301W        W95218  12.826   1.795  22.117  0.3344  0.3066 -0.0825
52302W        W95219  12.391   1.356  23.659 -0.1007 -0.0983  0.1766
52303W        W95220  11.782   1.878  20.108 -0.0353 -0.0946  0.1449
52304W        W95221  15.068   1.876  22.590  0.0452  0.0744 -0.0152
52305W        W95222  13.379   2.612  22.184 -0.0720 -0.4779  0.0801
52306W        W95223  12.233   1.225  20.718 -0.2358  0.2747  0.1613
52307W        W95224  12.499   1.470  23.183 -0.1613 -0.0594  0.4801
52308W        W95225  13.634   0.474  22.501  0.1450  0.0436 -0.2072
52309W        W95226  13.704   1.420  20.847 -0.1071  0.3114 -0.1714
52310W        W95227  13.058  33.854  18.458  0.2171  0.1669 -0.2119
52311W        W95228  12.135   1.509  21.456  0.1080 -0.1857  0.2286
52312W        W95229  10.089   1.893  22.851 -0.1163  0.0414 -0.2418
52313W        W95230   9.471  33.221  20.804 -0.1496  0.1889  0.1318
52314W        W95231  10.867   1.844  20.238 -0.1519 -0.2595 -0.2696
52315W        W95232  14.414   2.133  18.621 -0.1018 -0.0760 -0.1360
52316W        W95233  13.564   2.315  18.148 -0.5049  0.0100  0.1074
52317W        W95234  15.681   5.144  20.999  0.0190 -0.0906  0.2313
52318W        W95235  12.643   1.692  19.594 -0.1385  0.3340 -0.1756
52319W        W95236  11.869   3.008  20.171  0.0031 -0.3860 -0.1513
52320W        W95237   9.979   2.263  19.731 -0.0006 -0.0613  0.3310
52321W        W95238  13.670   2.694  20.870 -0.0529 -0.0909 -0.1584
52322W        W95239  14.396   3.108  22.375 -0.2875  0.1692 -0.1141
52323W        W95240  13.275   0.566  22.963  0.1233  0.0595  0.1915
52324W        W95241  13.465   0.718  19.204 -0.2034  0.0187  0.1462
52325W        W95242  15.519   0.911  19.793 -0.0925 -0.2375 -0.2209
52326W        W95243  13.404   1.190  20.542 -0.2277 -0.1638  0.2762
52327W        W95244  13.486   3.208  24.023  0.1736  0.1142  0.2121
52328W        W95245  12.520   0.841  20.853  0.1873 -0.0052 -0.0918
52329W        W95246  10.701   0.890  19.740 -0.0116 -0.0620 -0.5321
52330W        W95247  13.313   0.356  23.551  0.0803  0.3099  0.0000
52331W        W95248  14.867   0.457  22.402  0.1327 -0.2368 -0.2261
52332W        W95249   8.992   2.060  22.841  0.1083  0.1786 -0.3412
52333W        W95250  14.213   1.191  20.713 -0.3482  0.3747 -0.0861
52334W        W95251  10.157   1.820  21.126 -0.0364 -0.1082 -0.0612
52335W        W95252  10.588  33.780  20.693  0.0155 -0.1530  0.0733
52336W        W95253  14.318  33.201  21.779  0.0390 -0.1732 -0.0461
52337W        W95254  10.696   3.329  21.920 -0.2683 -0.3337 -0.0071
52338W        W95255  12.245   0.583  21.984 -0.1515  0.0520 -0.1354
52339W        W95256  12.946   3.694  19.211  0.0013 -0.0247  0.1265
52340W        W95257  14.096   2.184  19.896  0.3563 -0.2201  0.0977
52341W        W95258  10.910   3.981  22.401  0.2359  0.2127 -0.2633
52342W        W95259   9.734   1.052  18.361  0.0095 -0.0892 -0.1700
52343W        W95260  13.796   0.608  19.902 -0.1925  0.1606  0.1406
52344W        W95261  10.356   1.158  20.764  0.2490 -0.0087 -0.0543
52345W        W95262  13.930   0.767  22.114  0.4590 -0.5957 -0.0036
52346W        W95263  11.356   0.569  20.352 -0.1810  0.0836  0.1386
52347W        W95264  14.949  33.923  18.856 -0.1160 -0.2138  0.0728
52348W        W95265  11.734   1.899  23.001 -0.3220  0.2932 -0.2776
52349W        W95266  11.214  34.282  22.409 -0.0342  0.0806  0.2843
52350W        W95267  12.427   1.972  20.746 -0.1973 -0.3285 -0.0590
52351W        W95268  13.270   2.877  20.151 -0.0897 -0.3638  0.1809
52352W        W95269  15.060   1.239  19.600  0.2698 -0.1673 -0.1317
52353W        W95270  13.293   1.719  23.591  0.0640 -0.1948  0.0413
52354W        W95271  11.833   0.078  22.681 -0.0229  0.1924  0.2257
52355W        W95272  12.052   1.251  17.411  0.0272  0.0853 -0.1050
52356W        W95273  10.406  34.379  19.735 -0.1762 -0.0744  0.1218
52357W        W95274  10.624   0.215  23.968  0.0086  0.2557 -0.0869
52358W        W95275  14.118   0.883  24.096  0.1374 -0.3733  0.2171
52359W        W95276  11.309  34.344  21.854 -0.0010 -0.2803 -0.2728
52360W        W95277  14.407   1.620  20.584  0.3016  0.0252  0.0112
52361W        W95278  11.694   1.201  21.607  0.0331  0.1501  0.0846
52362W        W95279  10.605   5.074  17.555  0.2225 -0.0269  0.0025
52363W        W95280  12.856   1.679  21.579 -0.2250 -0.0127  0.0967
52364W        W95281  13.387   3.586  22.590  0.0934  0.1034  0.2363
52365W        W95282  11.457  34.421  21.290 -0.0312  0.0088 -0.3080
52366W        W95283  12.096   3.757  20.969  0.0660 -0.1684 -0.2726
52367W        W95284  13.314   2.535  20.539  0.1494  0.4082  0.0188
52368W        W95285  13.430   0.313  18.940  0.0888  0.0804  0.0459
52369W        W95286  11.535  34.541  20.771  0.0755 -0.1512 -0.1759
52370W        W95287  11.092   3.055  21.325 -0.5125 -0.5018  0.0921
52371W        W95288  11.367   1.490  22.892 -0.0236 -0.2562  0.1024
52372W        W95289  13.868   0.451  18.979 -0.1378 -0.1230 -0.1989
52373W        W95290  13.549   1.967  19.857 -0.1703  0.3231  0.2401
52374W        W95291  14.205   0.404  22.289 -0.2890 -0.0822 -0.0993
52375W        W95292  11.362   2.195  23.201 -0.2475 -0.0105 -0.1193
52376W        W95293  13.599   1.944  22.752  0.0105  0.0988  0.1419
52377W        W95294  11.802   3.064  18.326 -0.3457 -0.1333 -0.0895
52378W        W95295  12.600   1.571  22.478 -0.0501  0.0048 -0.1459
52379W        W95296  11.325   3.102  19.952  0.0627 -0.1683  0.1767
52380W        W95297  14.013   1.992  21.861  0.2044  0.2066 -0.1598
52381W        W95298  14.524   1.878  19.058 -0.0351 -0.1771 -0.0735
52382W        W95299  11.303   2.374  18.894 -0.4445 -0.1709  0.0763
52383W        W95300  14.979   2.023  21.667 -0.1225 -0.0681 -0.0794
52384W        W95301  10.013  34.520  20.883  0.0391 -0.4359  0.0500
52385W        W95302  16.162   0.350  19.020  0.1877  0.2414 -0.1452
52386W        W95303  13.467   0.032  22.754  0.1389 -0.4438  0.1492
52387W        W95304  12.768   1.237  21.501 -0.1101  0.3103 -0.0830
52388W        W95305   9.417   0.743  19.005 -0.0400  0.5466 -0.1742
52389W        W95306  10.809   3.023  19.814  0.1712  0.4911 -0.0404
52390W        W95307  10.931   1.816  21.735  0.1914  0.1385 -0.1929
52391W        W95308  14.941  32.356  21.550 -0.0063  0.0679  0.0086
52392W        W95309  12.506   0.028  21.346  0.1266 -0.4153 -0.2062
52393W        W95310  12.462   1.503  21.844 -0.3348  0.1240  0.2032
52394W        W95311  10.711  34.096  18.999 -0.3278  0.4023 -0.3032
52395W        W95312  12.731   2.788  19.542 -0.2348  0.1902 -0.1233
52396W        W95313  12.471  34.608  23.362 -0.2654  0.1072  0.0014
52397W        W95314  11.776  34.558  21.666  0.0630 -0.0611  0.1413
52398W        W95315  12.605   0.969  20.372  0.1013 -0.0933  0.1064
52399W        W95316  14.063   1.909  20.325  0.2668  0.3891  0.3836
52400W        W95317  10.688   0.769  20.234 -0.0316  0.1189 -0.1988
52401W        W95318  14.045   3.864  21.700  0.1240 -0.0678  0.1071
52402W        W95319  10.662   0.260  19.639 -0.0286 -0.0109  0.3457
52403W        W95320  12.888   1.498  22.853 -0.0876  0.0451  0.0247
52404W        W95321  13.232  32.930  26.787  0.3849 -0.0166  0.0536
52405W        W95322   9.340  33.648  20.555  0.0531  0.0804 -0.0914
52406W        W95323  12.514   1.990  21.766  0.0212 -0.3362  0.0905
52407W        W95324  12.906   1.170  20.703  0.0212  0.1606  0.0665
52408W        W95325  13.188   1.663  20.156  0.1544 -0.0015  0.1596
52409W        W95326  12.919   2.821  22.019 -0.2127  0.3015  0.1957
52410W        W95327  11.200   3.706  23.568  0.1504  0.3787  0.1980
52411W        W95328  11.822  33.012  21.965 -0.0336 -0.0448  0.2134
52412W        W95329  14.866   2.107  19.881  0.0192 -0.2234 -0.0251
52413W        W95330  11.608   2.546  22.423  0.5150 -0.1805 -0.2382
52414W        W95331  15.470   1.757  17.822  0.1882  0.1511 -0.1389
52415W        W95332  12.787   0.705  22.204  0.0121 -0.1549 -0.0123
52416W        W95333  12.930   0.836  18.825 -0.1438  0.0226  0.0777
52417W        W95334  11.840  32.568  22.445  0.0037 -0.0976 -0.0087
52418W        W95335  10.873   1.605  22.732  0.1334  0.2331 -0.1345
52419W        W95336  13.534   2.744  22.638  0.0334 -0.1499  0.0097
52420W        W95337  10.885   0.327  22.822 -0.1624  0.0671  0.0869
52421W        W95338  13.402   0.442  19.635 -0.0044  0.1668 -0.0167
52422W        W95339  12.108   0.938  18.732 -0.0311 -0.2016  0.0542
52423W        W95340  11.583  34.561  23.124  0.1493  0.1976  0.0469
52424W        W95341  12.183   0.115  19.127 -0.0401  0.1096 -0.2982
52425W        W95342  12.946   0.732  23.435  0.0817  0.0707  0.1007
52426W        W95343  12.391   0.505  19.983 -0.1355 -0.1318  0.1313
52427W        W95344  14.080   0.453  23.854  0.2731 -0.1495  0.1163
52428W        W95345  12.667   1.064  18.485 -0.4036 -0.0216 -0.0980
52429W        W95346  15.276   1.854  20.130  0.0289 -0.3244 -0.1662
52430W        W95347  13.915   3.804  22.317 -0.0328 -0.0427  0.1004
52431W        W95348  13.053   1.330  23.413  0.0439 -0.3930  0.1754
52432W        W95349  13.961   4.225  22.030 -0.1552  0.1297  0.1850
52433W        W95350  13.962   2.121  19.288 -0.0830 -0.0155 -0.1003
52434W        W95351  10.032  33.512  21.478  0.2271 -0.3922  0.0570
52435W        W95352  14.171   0.131  20.714 -0.1265 -0.0043  0.5459
52436W        W95353  12.567   2.276  22.581 -0.2758  0.0750 -0.1310
52437W        W95354  14.109   0.998  19.661  0.3959 -0.2048 -0.3231
52438W        W95355  12.091   0.030  20.603  0.0078  0.3101 -0.0725
52439W        W95356  12.711   0.668  18.038  0.1478 -0.0382 -0.0298
52440W        W95357  12.893   2.820  23.188  0.0173 -0.2550 -0.1272
52441W        W95358  10.471  34.166  21.059 -0.1090 -0.0014 -0.1243
52442W        W95359   8.855   2.752  25.891 -0.0033 -0.0739  0.2756
52443W        W95360  13.424  34.603  25.480 -0.0540 -0.1786  0.0379
52444W        W95361  14.101  34.533  20.117  0.2629  0.1045  0.0712
52445W        W95362  14.414  34.234  23.309 -0.0873 -0.0653  0.1304
52446W        W95363  11.253  34.082  25.152  0.1761 -0.3134 -0.1409
52447W        W95364  13.822   3.589  24.973 -0.0506 -0.1254 -0.0756
52448W        W95365  12.187  33.131  25.078  0.2752 -0.4105 -0.0831
52449W        W95366  12.668   2.457  24.197  0.1164  0.0621  0.0578
52450W        W95367  15.072   0.849  26.066  0.2452  0.3551 -0.1480
52451W        W95368  12.999   1.274  21.945 -0.2452  0.0459 -0.1169
52452W        W95369  12.259   1.558  26.018  0.1432 -0.1215  0.0356
52453W        W95370  14.720   2.568  28.681 -0.1418 -0.1239 -0.1437
52454W        W95371  12.928   0.558  24.684  0.2290  0.2756  0.1404
52455W        W95372  10.507  34.111  23.119  0.0139 -0.1459  0.0227
52456W        W95373  14.528   2.059  27.535 -0.2345 -0.1298  0.3433
52457W        W95374  11.107  34.140  22.856  0.1723  0.2473 -0.0039
52458W        W95375  13.686   0.490  25.945  0.3728 -0.1879  0.0910
52459W        W95376  12.604   0.889  24.918 -0.0995 -0.2457 -0.1155
52460W        W95377  13.468   2.251  24.414  0.1528 -0.0286 -0.0315
52461W        W95378  14.266   0.741  27.371  0.0370 -0.0890 -0.3094
52462W        W95379  12.871   0.293  26.038  0.0958  0.3180 -0.0011
52463W        W95380  12.197   0.876  24.058 -0.0791  0.0387  0.0383
52464W        W95381  12.537   0.985  23.206  0.2162 -0.2460  0.1586
52465W        W95382   8.723   1.240  22.500  0.3739 -0.2614  0.1512
52466W        W95383  12.519   1.397  25.145 -0.2016 -0.1135  0.2882
52467W        W95384  14.184   1.590  26.720 -0.2026 -0.0491  0.2178
52468W        W95385  13.938   0.806  24.535  0.0658  0.0943 -0.2248
52469W        W95386  11.935   2.445  24.612 -0.0560  0.0038  0.0059
52470W        W95387  11.863   1.070  25.999 -0.2794  0.3771 -0.1810
52471W        W95388  14.423   2.299  28.325  0.0335  0.1022 -0.1259
52472W        W95389  11.963   1.429  25.002 -0.2957  0.2913  0.2003
52473W        W95390  10.607   1.125  24.310 -0.0025  0.0765  0.1556
52474W        W95391  13.368   1.569  23.040 -0.0152 -0.3102 -0.0302
52475W        W95392  13.400   0.627  24.577  0.2751  0.1031  0.0144
52476W        W95393  13.233   2.902  27.766  0.0306 -0.1635  0.2179
52477W        W95394  12.375   2.944  25.573  0.3293 -0.0031 -0.0553
52478W        W95395  11.535   2.600  23.493  0.1263 -0.1476 -0.0214
52479W        W95396  12.661   4.687  27.117  0.1602 -0.2526 -0.0990
52480W        W95397  10.620   1.440  26.178 -0.1572  0.2774  0.0741
52481W        W95398  14.337   2.585  26.785  0.0473 -0.1728  0.0892
52482W        W95399  13.400   0.813  25.036  0.1421 -0.1350  0.0109
52483W        W95400  12.489   1.791  23.954  0.0471  0.1317 -0.0587
52484W        W95401  12.578   2.974  24.208  0.0672  0.0635  0.2208
52485W        W95402  12.627   2.586  26.801 -0.2757  0.0028 -0.1532
52486W        W95403   9.305   3.418  24.256  0.4933  0.1515 -0.2301
52487W        W95404  14.062  34.480  27.349 -0.2065 -0.0670  0.0367
52488W        W95405   9.760   2.917  24.373  0.0105  0.0278 -0.3091
52489W        W95406  14.593   1.942  23.551 -0.1330  0.0816  0.1784
52490W        W95407  13.672  33.405  22.579  0.1100 -0.1187  0.1978
52491W        W95408  14.222   0.828  23.600 -0.2028 -0.3645 -0.0314
52492W        W95409  12.002  34.659  23.572  0.2525  0.0877 -0.0252
52493W        W95410  13.289   4.078  25.895  0.2295 -0.2708  0.1977
52494W        W95411  11.522  32.471  24.961  0.0611 -0.2010 -0.1209
52495W        W95412  14.133   2.132  27.821 -0.0458  0.1352 -0.3094
52496W        W95413  13.440   1.823  24.133  0.0709 -0.2219 -0.0831
52497W        W95414  14.612   2.254  26.443  0.2696  0.3630 -0.1556
52498W        W95415  12.097   1.256  25.483  0.2768  0.0087 -0.2433
52499W        W95416   9.960   0.511  20.925 -0.1916  0.1396 -0.1032
52500W        W95417  12.995   1.059  25.158  0.0623  0.1010 -0.0520
52501W        W95418  14.991   0.647  26.808 -0.3296 -0.1786  0.1407
52502W        W95419  14.244   3.849  24.095 -0.1168 -0.0438  0.0825
52503W        W95420  10.290   0.623  24.416  0.1090 -0.1894  0.0062
52504W        W95421  11.675   1.465  25.565  0.1485 -0.1313 -0.2618
52505W        W95422  11.578   2.415  26.533  0.0446  0.1380 -0.2252
52506W        W95423  12.898  34.580  24.122  0.3811  0.1820  0.1187
52507W        W95424  15.986   2.970  28.546 -0.0251  0.1545 -0.1905
52508W        W95425  11.997   3.180  26.406  0.0411 -0.0061  0.0908
52509W        W95426  14.388  33.122  25.524 -0.1586 -0.0946 -0.0294
52510W        W95427  11.599  34.398  23.651  0.1979  0.0323 -0.2850
52511W        W95428  15.566   2.045  25.808  0.3085 -0.1889  0.0905
52512W        W95429  14.525   2.080  25.875 -0.0595  0.0547 -0.0097
52513W        W95430  14.574   1.312  24.936  0.1191 -0.0690 -0.0730
52514W        W95431  11.858  34.120  25.973 -0.2873 -0.0562  0.0228
52515W        W95432  13.001   0.549  25.163 -0.2063 -0.2109 -0.2137
52516W        W95433  10.554   1.050  23.708 -0.2967  0.3668  0.1327
52517W        W95434  12.051   3.686  25.791 -0.2239  0.1853  0.3037
52518W        W95435  15.617   1.532  24.964 -0.0158 -0.0906 -0.0752
52519W        W95436  11.748   1.711  24.666  0.4244  0.1749  0.0947
52520W        W95437  11.699  34.207  24.823  0.0116 -0.4471 -0.1890
52521W        W95438  11.120   3.405  27.444  0.1529  0.1697 -0.0559
52522W        W95439  12.027   3.288  23.158 -0.1042  0.2142  0.6693
52523W        W95440   8.572   1.890  23.660  0.2244  0.2114  0.0591
52524W        W95441  13.130   1.022  24.652 -0.0396 -0.0346 -0.0357
52525W        W95442  11.773   0.352  25.784  0.0414 -0.1082  0.2589
52526W        W95443  11.325   2.221  26.107 -0.0954 -0.0677 -0.0320
52527W        W95444  14.217  34.293  25.103  0.3239  0.3108  0.1133
52528W        W95445  12.666   2.446  28.449  0.0700  0.0243  0.2415
52529W        W95446  14.232  34.639  26.366  0.1318  0.2992  0.0595
52530W        W95447  11.599   0.940  23.303 -0.0644 -0.1946 -0.2555
52531W        W95448  14.066   2.504  24.273  0.2613  0.0483  0.0826
52532W        W95449  13.031   1.442  24.334 -0.0118 -0.0395  0.1123
52533W        W95450  13.753   2.490  23.433  0.0912  0.3797  0.0152
52534W        W95451  11.994   0.000  26.121  0.0886 -0.0006 -0.1356
52535W        W95452  12.116   0.135  24.850 -0.2745  0.0337  0.2890
52536W        W95453  12.998   0.586  26.891  0.2989  0.0876  0.0437
52537W        W95454  10.999   0.059  26.265 -0.0406 -0.1409 -0.0037
52538W        W95455  14.020   0.337  27.714 -0.3341 -0.1001  0.3369
52539W        W95456   9.326  33.243  22.018  0.0725  0.3579 -0.0487
52540W        W95457  12.272   1.708  24.702 -0.0807 -0.0759 -0.3325
52541W        W95458  12.294   1.078  24.589  0.1234 -0.0327 -0.1463
52542W        W95459  10.253   0.611  23.922  0.0342 -0.0486 -0.1464
52543W        W95460  15.629   1.951  26.903 -0.1850  0.0971 -0.0553
52544W        W95461  13.302   3.802  24.410  0.2137 -0.0800  0.1542
52545W        W95462  14.368   2.919  25.858  0.3414 -0.2069  0.0916
52546W        W95463  14.962   1.421  25.222 -0.1497  0.1722 -0.0964
52547W        W95464  10.781   0.626  27.247 -0.1203  0.2842  0.2588
52548W        W95465  11.236   1.118  21.891  0.0007  0.3230  0.1911
52549W        W95466  11.552   3.511  25.567  0.2672  0.1125  0.1486
52550W        W95467  12.231   2.132  24.350 -0.0798  0.2347 -0.2090
52551W        W95468   9.907   0.876  23.599  0.1116  0.0851 -0.0478
52552W        W95469  14.662   1.797  26.635 -0.2298 -0.0973 -0.2806
52553W        W95470  13.436   3.139  24.962  0.2689  0.2118  0.0290
52554W        W95471  10.613   1.895  26.412 -0.2753 -0.1712 -0.1808
52555W        W95472  14.426  33.000  27.336 -0.0408  0.1917 -0.3353
52556W        W95473  10.544  34.045  25.020 -0.1989 -0.3151  0.1587
52557W        W95474  12.405   0.505  24.652 -0.1942 -0.2313  0.0769
52558W        W95475  12.939  34.560  22.498 -0.1222 -0.0253 -0.0458
52559W        W95476  11.607   1.954  25.262  0.1010  0.5041  0.0450
52560W        W95477  12.916   3.409  22.044 -0.0669  0.2340 -0.1955
52561W        W95478  10.005   1.762  24.110  0.0232 -0.1318 -0.2517
52562W        W95479  13.821   1.118  23.777 -0.3458  0.2574  0.1636
52563W        W95480  13.663   0.715  26.467 -0.1597 -0.3379 -0.1869
52564W        W95481  11.471   2.005  26.806 -0.0457  0.2027 -0.0199
52565W        W95482  13.050   0.951  27.282 -0.1711 -0.0770  0.0612
52566W        W95483  10.893   0.295  23.593  0.1253 -0.3847  0.5040
52567W        W95484  11.771   0.548  27.297  0.1956 -0.4903  0.0437
52568W        W95485  16.711  33.878  24.188 -0.3955 -0.1317 -0.3467
52569W        W95486  13.685  33.651  23.525  0.1838  0.1342 -0.2079
52570W        W95487  13.006   1.948  27.517 -0.0545  0.0986  0.0423
52571W        W95488  13.789  34.462  24.163  0.0561 -0.0920  0.1976
52572W        W95489  13.340   0.838  23.692  0.0010  0.1526  0.0671
52573W        W95490  14.162  33.476  20.230  0.1346 -0.2372  0.0839
52574W        W95491  13.334   1.400  26.945 -0.0009 -0.1030 -0.1532
52575W        W95492  12.159   1.632  22.795 -0.1697 -0.2085  0.2054
52576W        W95493  12.680   0.358  25.588 -0.1187  0.1966  0.1515
52577W        W95494  14.571   1.105  23.954 -0.1809 -0.2489 -0.3320
52578W        W95495  12.920   1.148  23.842 -0.1151  0.1182  0.3436
52579W        W95496  12.430   2.399  25.713  0.0011 -0.3670 -0.2137
52580W        W95497  13.794   2.335  28.651  0.2201 -0.0352 -0.4063
52581W        W95498  14.644   1.248  26.769 -0.1434 -0.1344 -0.3815
52582W        W95499  11.707  33.358  25.325  0.1688  0.1538  0.1317
52583W        W95500  12.740   1.335  24.696  0.0168  0.1510  0.1903
52584W        W95501  13.660   0.612  24.084 -0.1760  0.3532 -0.3849
52585W        W95502  11.383   2.163  23.796 -0.1289 -0.1177 -0.0018
52586W        W95503  12.564   1.263  26.313 -0.1503 -0.0817  0.2562
52587W        W95504  12.704  34.147  24.877 -0.0461 -0.0355 -0.1363
52588W        W95505  11.826   0.404  25.270  0.0543  0.0031  0.2446
52589W        W95506  15.162   1.282  28.948  0.1759  0.2637 -0.4775
52590W        W95507  13.332   0.248  24.095  0.1529  0.3331  0.1237
52591W        W95508  12.289   0.780  26.280 -0.1465 -0.0153 -0.2485
52592W        W95509   9.243   2.424  24.606 -0.0684  0.4465  0.1155
52593W        W95510  12.374   0.328  25.980 -0.0398 -0.2378 -0.1435
52594W        W95511  11.917   1.034  28.037  0.3226 -0.2119 -0.0537
52595W        W95512  11.645  34.640  27.298  0.2791  0.1612 -0.3142
52596W        W95513  13.360   2.811  26.761  0.4189  0.1719 -0.1428
52597W        W95514  13.116   0.946  25.671 -0.0052  0.0175  0.3279
52598W        W95515  12.455   1.258  28.246  0.0517 -0.1104  0.0928
52599W        W95516  11.598   0.383  21.998  0.1376 -0.2818 -0.1290
52600W        W95517  14.251   1.030  26.469  0.2979  0.0625 -0.2006
52601W        W95518  10.916   2.155  24.013 -0.1366 -0.1718 -0.0882
52602W        W95519  12.235  32.788  25.637  0.1072 -0.1711  0.3530
52603W        W95520  12.267   1.137  27.691 -0.0144  0.2481 -0.1765
52604W        W95521  10.459   0.988  23.158  0.0950  0.0490  0.0453
52605W        W95522  14.434   1.939  29.196  0.1340 -0.0689  0.0190
52606W        W95523  11.356   1.122  22.395 -0.1664  0.1106 -0.2452
52607W        W95524  15.785   1.412  26.879 -0.1675 -0.0408  0.1425
52608W        W95525  10.500   2.427  23.878  0.0550 -0.0054 -0.2659
52609W        W95526  10.253   0.146  23.563 -0.2516  0.2654 -0.1832
52610W        W95527  10.126  33.534  24.188  0.0865 -0.4225  0.0473
52611W        W95528  12.763  32.821  25.888  0.1789 -0.1886 -0.2321
52612W        W95529  13.110   0.794  24.132 -0.1108 -0.0724  0.0412
52613W        W95530  11.275   0.323  25.878  0.1484 -0.2938 -0.4791
52614W        W95531  12.798   0.315  24.316  0.0226 -0.0911 -0.2093
52615W        W95532  12.221   3.579  24.789 -0.0384 -0.0780  0.1928
52616W        W95533  12.676   0.826  24.330  0.0722  0.2426  0.1447
52617W        W95534  14.116   0.411  21.753  0.1964 -0.0730  0.2495
52618W        W95535  13.464   1.594  27.462  0.0697 -0.1128  0.0309
52619W        W95536  10.264   3.340  27.622  0.2149  0.0978 -0.0625
52620W        W95537  10.192   1.187  21.235  0.2234  0.1390 -0.1960
52621W        W95538  13.476   1.494  25.712  0.0476 -0.0334 -0.3885
52622W        W95539  12.390   0.418  24.105 -0.2754  0.1114 -0.0074
52623W        W95540   8.376   0.553  25.725  0.1310  0.1801  0.0751
52624W        W95541  12.888   2.268  27.135  0.1690  0.2072  0.1635
52625W        W95542  10.353   1.484  23.928  0.2117 -0.1285 -0.3949
52626W        W95543  10.962   2.123  24.636  0.2358 -0.2640  0.1353
52627W        W95544  12.790   1.087  26.884  0.0968 -0.0658 -0.1048
52628W        W95545  14.752   1.821  25.445  0.2785  0.1703  0.2528
52629W        W95546  12.825   0.339  23.753 -0.1007  0.0715 -0.0778
52630W        W95547  12.853   0.352  21.262  0.1991  0.0392 -0.2674
52631W        W95548  14.379  33.640  26.787  0.0614 -0.0424 -0.1171
52632W        W95549  13.038   2.869  24.562 -0.0980  0.1153  0.2277
52633W        W95550  12.340   0.491  25.196  0.0914  0.0107 -0.0522
52634W        W95551  11.061   2.138  25.669  0.2642  0.0084 -0.1083
52635W        W95552  12.754  32.638  26.355  0.3796  0.2022  0.2460
52636W        W95553  15.557   2.497  25.159  0.0701 -0.1076 -0.0511
52637W        W95554  11.862   1.603  26.764 -0.1836  0.2836  0.1018
52638W        W95555  11.743   0.974  25.310  0.0476 -0.1704 -0.0752
52639W        W95556   9.944   0.106  27.271  0.0270  0.0360  0.3572
52640W        W95557  12.148   1.015  25.068 -0.3609  0.1558 -0.1008
52641W        W95558  13.008  33.456  27.331 -0.2109 -0.3820 -0.1261
52642W        W95559  11.714   2.474  25.142  0.3196  0.0432 -0.0773
52643W        W95560  12.105   0.935  23.526 -0.0931 -0.0183 -0.0067
52644W        W95561   9.580   0.525  23.203  0.0213  0.0238 -0.2454
52645W        W95562  11.935   0.634  24.828 -0.1344  0.2125  0.0115
52646W        W95563  14.522  34.328  24.691 -0.0776  0.1338 -0.2097
52647W        W95564  13.761   1.244  26.631  0.2624 -0.0508  0.2032
52648W        W95565  16.561   2.011  27.221  0.1240 -0.2332 -0.0503
52649W        W95566  14.442   0.369  22.715 -0.3239 -0.0084 -0.2023
52650W        W95567  14.234  33.741  28.223  0.1375 -0.0614  0.0348
52651W        W95568  12.584   0.128  26.871  0.0347 -0.3718 -0.0487
52652W        W95569  15.460   2.431  26.754 -0.1438  0.2096  0.1154
52653W        W95570  11.149   1.854  25.059 -0.1898 -0.2116  0.1620
52654W        W95571  12.105   2.757  28.510 -0.0305  0.5416  0.0122
52655W        W95572  11.501   3.055  25.794 -0.0020 -0.0082  0.0766
52656W        W95573  13.923   0.959  25.229 -0.0612  0.2113  0.0108
52657W        W95574  11.447  33.318  23.801  0.2615  0.2991 -0.0367
52658W        W95575  11.080   2.592  24.779 -0.2553  0.1035  0.2486
52659W        W95576  12.576   0.903  25.400  0.3315 -0.0884  0.2409
52660W        W95577  13.557   2.050  23.292  0.0509 -0.2088 -0.2161
52661W        W95578  12.183  34.303  25.565  0.0717 -0.1929 -0.0754
52662W        W95579  11.213   1.674  25.535 -0.2308  0.0736  0.0074
52663W        W95580  13.701   1.941  26.163  0.0521  0.0475  0.2581
52664W        W95581  15.220   1.183  24.913 -0.3136  0.1066  0.1017
52665W        W95582  11.523   1.608  23.882  0.1695  0.2381 -0.0752
52666W        W95583   9.000   1.014  25.113 -0.0365  0.0470 -0.0044
52667W        W95584  15.117   2.100  26.599  0.4161 -0.1030  0.0243
52668W        W95585  12.208   0.704  27.499 -0.3787  0.3091  0.1598
52669W        W95586  12.756   1.227  27.782  0.1661  0.1549 -0.1158
52670W        W95587  14.944   2.402  27.531 -0.1148  0.1063  0.0569
52671W        W95588  12.582   1.312  24.128 -0.0281 -0.0779 -0.0563
52672W        W95589   9.095   1.312  27.169  0.0270  0.1264  0.3336
52673W        W95590  13.024   2.374  27.750 -0.0388 -0.0901 -0.0580
52674W        W95591  12.864   0.366  22.700 -0.2623  0.3808  0.0013
52675W        W95592  14.983   2.063  28.345  0.0073 -0.2674  0.1094
52676W        W95593  14.627   0.063  26.113  0.0421 -0.2914 -0.2991
52677W        W95594  14.228   2.451  25.671  0.2662  0.1616  0.1495
52678W        W95595  10.743   0.934  25.138  0.1014  0.1384  0.1483
52679W        W95596  13.764   3.706  27.203 -0.0862 -0.1229 -0.3069
52680W        W95597  11.992   0.371  24.383  0.0276  0.0624  0.1402
52681W        W95598  13.946   1.364  25.623  0.1436  0.0237  0.0925
52682W        W95599  12.091   5.079  20.815  0.2826 -0.1413 -0.2027
52683W        W95600  13.147   1.976  25.201 -0.0075  0.0268 -0.0536
52684W        W95601  15.213   0.804  27.382 -0.0520 -0.2320 -0.0169
52685W        W95602  11.994  34.280  24.012 -0.1211 -0.0105  0.0465
52686W        W95603  15.632   2.153  26.355  0.3799 -0.1874 -0.0911
52687W        W95604  10.494   0.583  23.475  0.3769  0.1301 -0.0723
52688W        W95605  10.741   2.080  22.585 -0.1738 -0.1572  0.2740
52689W        W95606  13.198   3.619  26.141  0.0398 -0.2540 -0.0507
52690W        W95607  14.134   4.668  27.948  0.0073 -0.3895  0.3655
52691W        W95608  13.688  34.312  25.164 -0.1445  0.3180  0.0580
52692W        W95609  14.348   3.087  28.494  0.3791  0.0582  0.2292
52693W        W95610  10.590   2.933  23.793  0.0595 -0.0340  0.0597
52694W        W95611  12.978  34.331  25.790  0.0736  0.1662  0.0462
52695W        W95612  13.651   3.279  25.881 -0.2797 -0.1339  0.4587
52696W        W95613  11.548   2.369  25.582  0.1443  0.2750 -0.0242
52697W        W95614  12.492   2.716  24.684 -0.1921  0.0804 -0.0201
52698W        W95615  13.419  34.138  26.003  0.1294 -0.0437  0.2132
52699W        W95616  13.410   2.324  26.845  0.0136  0.2943  0.1611
52700W        W95617  13.597   1.084  24.236 -0.1719  0.1333 -0.0510
52701W        W95618  12.703   3.175  24.718  0.3388 -0.1519  0.2828
52702W        W95619  12.974   1.501  25.372 -0.0553 -0.3701  0.1071
52703W        W95620  10.033   2.222  24.386  0.1786  0.1279 -0.1284
52704W        W95621  13.849   3.103  28.548  0.0368  0.0731  0.2871
52705W        W95622  13.641   0.227  26.429 -0.1348 -0.0718  0.2771
52706W        W95623  13.099   3.528  23.905 -0.0173 -0.2235 -0.1319
52707W        W95624   8.833   1.156  26.468  0.0136 -0.1068 -0.1791
52708W        W95625  12.482   1.097  25.829  0.1250 -0.2970  0.0407
52709W        W95626  12.676   0.226  24.972 -0.2658  0.1051  0.1205
52710W        W95627  13.474  34.002  24.764  0.2004  0.0222 -0.2457
52711W        W95628  11.220   1.292  24.123  0.1936 -0.1220  0.1513
52712W        W95629  10.040   3.145  25.792  0.0559 -0.0271 -0.0662
52713W        W95630  10.585   1.668  27.200  0.2497  0.0654 -0.1112
52714W        W95631  12.313   1.986  22.248 -0.1420  0.2387 -0.0837
52715W        W95632  14.377   1.699  27.143 -0.0358 -0.3286 -0.0419
52716W        W95633  14.352   2.770  23.934  0.2428 -0.1463  0.0785
52717W        W95634  11.086   1.591  27.176  0.3765  0.1264 -0.0834
52718W        W95635  11.885  34.563  25.209  0.0438  0.1866 -0.0244
52719W        W95636  12.254   4.011  22.465  0.6746 -0.2011  0.0894
52720W        W95637  10.911   2.970  24.211 -0.2193  0.2767  0.0074
52721W        W95638  13.432   3.803  25.449  0.1152  0.0414  0.4440
52722W        W95639  11.352   1.885  24.326 -0.1044 -0.1841 -0.0657
52723W        W95640  13.191   0.444  26.413 -0.1577 -0.2767 -0.0439
52724W        W95641  12.746   0.412  21.787 -0.0459 -0.0734  0.0050
52725W        W95642  15.191  34.555  22.520 -0.1605  0.2573 -0.0250
52726W        W95643  15.459   0.693  23.203 -0.3298  0.1051  0.2552
52727W        W95644  13.995   2.525  28.251  0.0136 -0.0173 -0.0998
52728W        W95645  12.508   3.476  24.244  0.0229 -0.0456  0.0576
52729W        W95646  12.310  33.506  25.567  0.2058 -0.2105  0.1315
52730W        W95647  14.002   1.965  25.712  0.1473  0.1449  0.0233
52731W        W95648  13.803  32.691  25.434  0.3103  0.0884 -0.0459
52732W        W95649  11.128   3.028  27.809 -0.1271 -0.3289 -0.1349
52733W        W95650  15.988   1.300  25.263  0.2669 -0.0716 -0.0084
52734W        W95651  10.842   1.177  24.732 -0.1664 -0.1150  0.0490
52735W        W95652  11.522   0.550  22.949  0.1965  0.0951  0.0243
52736W        W95653  13.953  33.952  24.790 -0.1423 -0.2050  0.0505
52737W        W95654  11.837   0.607  22.494 -0.2118  0.1361 -0.1367
52738W        W95655  13.566  34.366  26.469  0.1634  0.1333 -0.1399
52739W        W95656  10.651   1.664  25.720 -0.3565 -0.1067 -0.0649
52740W        W95657  11.873   1.899  25.776  0.0110 -0.0730 -0.1222
52741W        W95658  12.032   1.993  27.605  0.4843  0.1763  0.2339
52742W        W95659  11.674  33.737  25.008 -0.0495 -0.1354 -0.2772
52743W        W95660  13.353   0.806  26.092 -0.2950  0.2115  0.1580
52744W        W95661  13.401   1.202  25.346  0.2224  0.0461  0.1134
52745W        W95662  13.274   1.725  26.109 -0.0762  0.1028  0.1018
52746W        W95663  12.834   2.523  24.996 -0.3460  0.1342 -0.2046
52747W        W95664  13.541   0.407  26.865  0.1491 -0.1674 -0.1204
52748W        W95665  14.161   1.219  27.115  0.1052 -0.0334  0.0724
52749W        W95666  10.039   0.956  25.422 -0.3519  0.0096  0.0393
52750W        W95667  12.987   1.826  23.961 -0.1135  0.1245  0.1963
52751W        W95668  14.471   2.864  28.961 -0.0723 -0.1078 -0.1362
52752W        W95669  14.089   0.830  22.558  0.2424 -0.2162  0.0778
52753W        W95670  13.220   4.591  26.133  0.0376  0.4235  0.0741
52754W        W95671  14.140   0.271  26.773  0.2707 -0.0763 -0.2464
52755W        W95672  13.262   0.001  24.584  0.0924 -0.1672  0.0520
52756W        W95673  12.538  34.589  24.582  0.2308  0.3156 -0.1275
52757W        W95674  13.431   0.920  26.871 -0.1000  0.2865  0.2520
52758W        W95675  12.591   2.562  27.967 -0.1575 -0.1818 -0.0912
52759W        W95676  12.562  34.238  22.708  0.2419  0.3982  0.2841
52760W        W95677  12.941  34.530  23.000  0.1512 -0.1511  0.0422
52761W        W95678  14.402   1.050  25.970  0.0677  0.5783 -0.0384
52762W        W95679  11.950   4.946  23.035  0.0436  0.1153  0.0711
52763W        W95680  14.559   1.819  24.907  0.2708 -0.1226 -0.2297
52764W        W95681  14.497   1.605  24.475  0.0045 -0.2103  0.0273
52765W        W95682  11.659   0.099  24.712  0.1784  0.0096 -0.0998
52766W        W95683  11.686   2.212  24.204 -0.0690 -0.0010  0.0765
52767W        W95684  12.249   2.035  26.037  0.2217  0.0702 -0.2272
52768W        W95685  13.363  33.671  27.024 -0.2237 -0.1171  0.2043
52769W        W95686  11.370   1.373  24.575  0.1922  0.0208  0.1192
52770W        W95687  12.348   0.424  23.573  0.4468 -0.2078 -0.0021
52771W        W95688  15.161   2.983  26.831 -0.0592  0.3288  0.0528
52772W        W95689  13.856   2.642  27.113  0.0121 -0.1050  0.1214
52773W        W95690  12.180   2.854  23.768  0.1784  0.0588 -0.3676
52774W        W95691  12.524  33.464  25.006  0.1147 -0.0453 -0.4012
52775W        W95692  11.802   2.992  26.809 -0.0991 -0.0480  0.1121
52776W        W95693  10.148   2.366  26.089 -0.1584  0.2729 -0.0508
52777W        W95694  10.576   1.517  23.419 -0.3397  0.0820 -0.2521
52778W        W95695  12.872   3.887  28.323 -0.1574  0.2819  0.0102
52779W        W95696  11.913   2.082  22.576  0.2376  0.0893  0.1878
52780W        W95697  12.386   3.600  23.305 -0.0978 -0.0433 -0.0431
52781W        W95698  12.989   1.860  25.724  0.1223 -0.0221  0.3594
52782W        W95699  12.058   1.690  23.340  0.0593  0.0709 -0.0220
52783W        W95700  14.810   0.395  25.315 -0.1006 -0.2337  0.3590
52784W        W95701  13.263   0.462  25.596  0.3242  0.0229 -0.0336
52785W        W95702  17.235  34.575  26.012  0.1068 -0.2014  0.2279
52786W        W95703  14.490  33.696  22.982  0.2340 -0.2894  0.1392
52787W        W95704  13.210   1.871  26.556  0.1887  0.3964 -0.1146
52788W        W95705  10.277   1.766  25.408  0.0009 -0.0646 -0.0621
52789W        W95706  11.390   1.362  23.434 -0.3195 -0.1526 -0.1448
52790W        W95707  11.534   3.486  24.021 -0.0354 -0.1164  0.0908
52791W        W95708  12.594   0.009  26.364  0.0080  0.0120  0.0455
52792W        W95709  11.408   1.552  26.591 -0.2144 -0.1326  0.2272
52793W        W95710  12.518   1.759  27.537  0.1154 -0.2167  0.1913
52794W        W95711  10.105   1.448  21.968  0.2973  0.0505 -0.2314
52795W        W95712  15.177   2.312  24.283  0.0692 -0.1057 -0.0951
52796W        W95713  11.681  34.509  25.645 -0.0158 -0.1356  0.1350
52797W        W95714  11.060  34.526  28.180 -0.2011 -0.3373 -0.0522
52798W        W95715  14.249   1.669  25.359 -0.0907  0.2464  0.0304
52799W        W95716  15.392   1.317  25.465  0.2175 -0.0371 -0.2040
52800W        W95717  14.303   0.418  25.253  0.3965  0.3240 -0.0131
52801W        W95718  14.589   1.847  28.085  0.1021  0.0298 -0.0333
52802W        W95719   8.779   1.873  22.341 -0.0028 -0.1182  0.1335
52803W        W95720  12.938  34.623  25.380 -0.2687 -0.2569 -0.1024
52804W        W95721  13.035   0.003  27.754 -0.2041 -0.0184 -0.1947
52805W        W95722  11.352  34.006  23.917  0.2680  0.0226  0.1253
52806W        W95723  10.943   1.809  26.058  0.0776  0.0170  0.0273
52807W        W95724  12.984   2.972  23.944  0.0300  0.1387 -0.2315
52808W        W95725  14.005   4.269  23.365  0.0835  0.1538 -0.0005
52809W        W95726  11.390   1.342  26.036 -0.0414 -0.4157 -0.3440
52810W        W95727  11.951   2.110  26.616  0.0158 -0.0411  0.2088
52811W        W95728  10.479   0.257  26.448 -0.3316  0.1017  0.0605
52812W        W95729  14.717   1.663  23.971 -0.0070 -0.0448  0.0441
52813W        W95730  10.745   3.516  27.088  0.1186 -0.2392  0.1618
52814W        W95731  13.719   1.648  24.554 -0.0603  0.1836  0.3459
52815W        W95732  13.719  34.390  24.659 -0.1855  0.1892 -0.3618
52816W        W95733  14.488   0.869  22.036 -0.0021  0.0850 -0.0486
52817W        W95734  10.824  32.029  28.741 -0.1093 -0.2094 -0.2407
52818W        W95735  12.718   1.736  27.031  0.4288 -0.3058 -0.1659
52819W        W95736  15.272   0.826  25.507 -0.2941 -0.0717 -0.1946
52820W        W95737  12.159   0.357  26.545 -0.1250 -0.0266  0.0476
52821W        W95738  14.744  33.764  25.888  0.1136  0.2543  0.4985
52822W        W95739  13.764   2.377  22.952 -0.1092  0.1449  0.2334
52823W        W95740  10.729   0.675  24.680 -0.1171  0.2840  0.0222
52824W        W95741  12.939   0.300  23.239  0.1045  0.1050 -0.3319
52825W        W95742  12.920   2.680  27.386 -0.2011 -0.0686 -0.1626
52826W        W95743  12.824   1.823  24.873  0.0001 -0.1658  0.3326
52827W        W95744  14.141   1.625  28.017  0.2321 -0.0406 -0.3623
52828W        W95745  12.718   0.839  22.748  0.1089  0.2409  0.0633
52829W        W95746  14.392   1.135  24.480 -0.1396 -0.1837  0.4895
52830W        W95747  12.677   3.018  27.673 -0.2415  0.2146 -0.2814
52831W        W95748  12.969   1.268  28.313 -0.0139  0.2301  0.0708
52832W        W95749  12.878   2.988  26.906 -0.2125  0.2117  0.2780
52833W        W95750  16.451   1.985  24.240  0.1811  0.1376 -0.2144
52834W        W95751  11.834  34.082  25.332  0.1010 -0.0088  0.1207
52835W        W95752  10.370   1.038  24.767 -0.1672  0.0115 -0.0260
52836W        W95753  11.892   1.340  23.663  0.0712 -0.0090  0.0230
52837W        W95754  13.342   0.124  25.946  0.1430  0.0299  0.0527
52838W        W95755  11.464   1.480  25.052 -0.0692  0.0344 -0.4425
52839W        W95756  14.092  34.429  23.774 -0.1119  0.1113  0.2850
52840W        W95757  13.223   4.308  25.437 -0.0194  0.0694 -0.2121
52841W        W95758  13.641  34.245  27.483 -0.1596  0.0137 -0.3178
52842W        W95759  11.362   3.126  31.817 -0.0019 -0.3021  0.0987
52843W        W95760  13.473   1.426  28.366 -0.1881  0.1853 -0.0550
52844W        W95761  13.462  33.919  27.937  0.1713 -0.1792 -0.0298
52845W        W95762  16.349   1.066  28.789 -0.0455  0.0490  0.1703
52846W        W95763   9.693   0.495  27.985 -0.2606 -0.0078  0.0373
52847W        W95764  14.113   3.358  25.836 -0.3194 -0.0947 -0.1620
52848W        W95765  11.803  33.853  28.714 -0.3086 -0.1572 -0.0726
52849W        W95766  12.200   2.580  29.290 -0.1659 -0.2014 -0.0663
52850W        W95767  14.522   3.545  28.673  0.1004  0.0905 -0.2058
52851W        W95768  14.513   1.323  28.059 -0.0246 -0.1742  0.0301
52852W        W95769  11.932   0.507  27.957 -0.1166  0.1474  0.1327
52853W        W95770  12.996   3.984  31.863 -0.0835 -0.1724 -0.1608
52854W        W95771  11.750   1.514  28.826  0.2882 -0.0205 -0.3061
52855W        W95772  11.026  34.091  29.217  0.4113 -0.2168  0.1191
52856W        W95773  13.470   0.659  30.328 -0.1171  0.1974 -0.0190
52857W        W95774  12.033   1.633  29.299  0.0254  0.0771 -0.2556
52858W        W95775   9.219   0.773  28.779  0.0684  0.5208  0.0550
52859W        W95776  11.975   1.133  27.108  0.0074  0.1002 -0.4251
52860W        W95777  11.487   4.595  28.429 -0.4197  0.0384 -0.2677
52861W        W95778  12.460   0.424  29.371 -0.1232 -0.1463 -0.1348
52862W        W95779  13.572  32.984  30.053  0.1216  0.1591  0.0303
52863W        W95780  10.326   3.935  25.510 -0.1473  0.1684  0.2124
52864W        W95781  11.755   0.590  26.207  0.0748 -0.0553  0.3144
52865W        W95782  12.133   0.698  29.733 -0.2704  0.1384 -0.3471
52866W        W95783  12.363   0.190  30.597  0.0536 -0.2218  0.0065
52867W        W95784  15.679   1.697  29.760 -0.0773 -0.0456  0.2188
52868W        W95785  13.452   0.897  29.346 -0.3799  0.0391 -0.1990
52869W        W95786  11.887   2.350  29.697 -0.4846 -0.1635  0.0157
52870W        W95787  12.491   2.280  29.546 -0.0747  0.1108 -0.1398
52871W        W95788  13.602   0.156  30.536 -0.0016 -0.0239  0.1753
52872W        W95789  11.370   3.701  28.301  0.2206 -0.2241 -0.1480
52873W        W95790  10.100   5.170  29.000  0.1949 -0.3444 -0.0614
52874W        W95791  13.199   2.862  29.263 -0.3926  0.0429  0.0525
52875W        W95792  13.193   1.614  27.952 -0.0359  0.0162 -0.3879
52876W        W95793  14.275   4.440  28.354 -0.1063  0.0265  0.2340
52877W        W95794  13.233   2.981   0.822 -0.2894  0.1358 -0.0219
52878W        W95795  10.671   5.308  27.146 -0.2155 -0.0852  0.2325
52879W        W95796  13.022   3.191  31.680 -0.0705  0.1028  0.0805
52880W        W95797  11.951   4.239   0.100  0.0459  0.0733 -0.0384
52881W        W95798  11.888   3.091  27.855 -0.1266  0.2295  0.0156
52882W        W95799  10.151   1.075  27.657  0.1343  0.0203  0.2382
52883W        W95800  10.967   4.560  27.721 -0.2839 -0.0527  0.1992
52884W        W95801  11.991   1.582  28.410 -0.0428 -0.1227  0.0744
52885W        W95802  11.296   2.642  30.765 -0.1397  0.3871 -0.0949
52886W        W95803  11.905   3.153  29.674 -0.1919  0.0296 -0.2148
52887W        W95804  12.718   1.295  31.548 -0.0280  0.1975  0.1284
52888W        W95805  11.965   4.132  27.722 -0.0418 -0.0097 -0.2945
52889W        W95806  13.711   3.180  27.583 -0.1170  0.1397 -0.0758
52890W        W95807  11.784   1.785  26.287  0.0305  0.0638 -0.1515
52891W        W95808  12.314   1.395  26.827 -0.0126  0.0833 -0.1460
52892W        W95809  12.382  34.029  27.967 -0.0071 -0.1721 -0.1606
52893W        W95810  11.189   3.928  28.955 -0.1635  0.1182 -0.1416
52894W        W95811  13.214   1.302  30.603 -0.1347  0.2317  0.0686
52895W        W95812  13.326   3.391  29.454  0.2364 -0.1157  0.1799
52896W        W95813  12.120   1.636  27.222 -0.0266  0.0947  0.2272
52897W        W95814  13.572   0.888  30.795  0.1173 -0.2686  0.2653
52898W        W95815  11.541   3.787  31.364  0.0012 -0.0844 -0.1859
52899W        W95816  11.800   0.724  29.364  0.1672  0.2122 -0.2202
52900W        W95817  14.227   2.594  28.678 -0.0880  0.0908  0.0870
52901W        W95818  13.250   3.602  28.248 -0.1871 -0.4790  0.1246
52902W        W95819  11.681   3.805  26.999  0.3189  0.1675  0.3250
52903W        W95820  11.424   1.065  27.964  0.0684  0.0807 -0.1403
52904W        W95821  10.397   1.286  31.286  0.0042 -0.0046 -0.0890
52905W        W95822  12.073   0.494  31.282  0.1872 -0.0191 -0.3882
52906W        W95823  12.635   0.507  26.470 -0.2737  0.2446 -0.0962
52907W        W95824  15.065   3.013   0.404 -0.0714 -0.0083 -0.1835
52908W        W95825  11.482   4.456   0.662  0.0717 -0.1512 -0.2053
52909W        W95826  13.144   1.006  28.871  0.0296 -0.1244  0.0065
52910W        W95827  12.146   0.515  28.453  0.0855 -0.0701 -0.0047
52911W        W95828  12.948   1.367  31.003  0.1286 -0.1339  0.0546
52912W        W95829  12.137   4.077  27.132  0.0545 -0.0639 -0.1353
52913W        W95830  14.716   1.530  29.531  0.1049  0.0440 -0.2207
52914W        W95831  11.605  34.471  29.996 -0.2831 -0.2064  0.2351
52915W        W95832  12.810   1.896  26.197 -0.0575 -0.1468 -0.1440
52916W        W95833  10.805   2.863  27.384 -0.2132  0.2567  0.0411
52917W        W95834  14.455   2.189  31.074  0.1818 -0.2792 -0.2757
52918W        W95835  13.055   2.614  28.218  0.2005  0.4326 -0.0535
52919W        W95836  11.303   2.625   0.047 -0.1966 -0.0644  0.2746
52920W        W95837  12.399   1.962  29.167 -0.3057 -0.1389 -0.1956
52921W        W95838  11.749   1.519  31.405 -0.2775 -0.1808  0.0323
52922W        W95839  10.550   4.655  28.022 -0.0966  0.1889  0.1540
52923W        W95840   9.710   1.658  29.800  0.2725  0.0532 -0.1470
52924W        W95841  12.452   2.981  26.611  0.0258 -0.2171  0.1237
52925W        W95842  10.841   0.137  29.983  0.0121  0.2323  0.0600
52926W        W95843  11.900   3.226   0.071  0.4063  0.0743 -0.0710
52927W        W95844  13.765   0.114  28.204  0.0084  0.0608  0.0453
52928W        W95845  12.711  34.446   0.331 -0.1646 -0.4349 -0.1199
52929W        W95846  12.536  34.338  28.362  0.0808  0.1165 -0.2090
52930W        W95847  13.509   1.426  28.905  0.1926  0.0519  0.0346
52931W        W95848  12.976   4.536  29.143 -0.4172  0.0638 -0.1478
52932W        W95849  13.548   0.207  27.766  0.1328  0.0815 -0.2816
52933W        W95850  15.351   2.124  29.841  0.2373  0.2418  0.0317
52934W        W95851  11.414   2.108  29.794 -0.1197 -0.1084 -0.0077
52935W        W95852  10.174   0.637  28.055 -0.2393  0.1668 -0.1385
52936W        W95853  12.553   1.146   0.106 -0.0670 -0.3182 -0.2228
52937W        W95854  11.242   1.034  29.778  0.0031  0.0002  0.0955
52938W        W95855  14.597   2.298  30.242  0.3184 -0.0821 -0.1185
52939W        W95856  13.112   0.908  26.517  0.1492  0.1037 -0.1460
52940W        W95857  10.917   1.633  27.679 -0.5763  0.0398 -0.1199
52941W        W95858  13.661   1.436  29.367 -0.1227 -0.1368 -0.0197
52942W        W95859  11.581   1.750  31.051 -0.1116 -0.1183  0.1323
52943W        W95860  15.802   0.701   2.138 -0.0964 -0.0545 -0.1952
52944W        W95861  11.721   6.129  28.765  0.2267  0.1360 -0.1001
52945W        W95862  14.052   3.539  30.948 -0.4544 -0.2095  0.2614
52946W        W95863  14.207   1.026  29.703 -0.0249  0.1045  0.0447
52947W        W95864  13.296   0.105  31.166  0.3452 -0.0711  0.0620
52948W        W95865  10.231   0.535  26.076 -0.0739  0.7271  0.3008
52949W        W95866  11.566   2.919  28.702 -0.0454  0.0968 -0.2946
52950W        W95867  10.192   5.712  28.760 -0.1619  0.2991  0.0270
52951W        W95868  13.837   0.835  27.768 -0.2092  0.2234  0.1740
52952W        W95869  16.069   1.777  30.077 -0.0928 -0.0052 -0.1982
52953W        W95870  11.397   3.342  26.841 -0.0803  0.4292  0.1677
52954W        W95871  11.938   2.177  31.091 -0.0807 -0.0911 -0.4723
52955W        W95872  14.240  34.426  29.961  0.2850  0.0708  0.3430
52956W        W95873  13.836   1.929  29.570 -0.1404 -0.1311 -0.1622
52957W        W95874   9.811   0.970  28.165  0.3141 -0.1367  0.1044
52958W        W95875  12.992   1.438  27.351 -0.0804 -0.3214  0.1353
52959W        W95876  15.077   1.379  30.365 -0.0710 -0.4719 -0.1137
52960W        W95877  12.401   2.084  26.934 -0.1605  0.0399  0.2099
52961W        W95878  11.256   1.573  28.817 -0.1181 -0.0701 -0.2104
52962W        W95879  13.318   1.828  29.482 -0.1285  0.3219  0.0656
52963W        W95880  14.554   0.880  31.425  0.2870 -0.0633  0.2321
52964W        W95881  10.868   1.334  29.900 -0.2812 -0.2907  0.0172
52965W        W95882  13.335   0.533  31.473 -0.0145 -0.1364  0.2273
52966W        W95883   9.562   3.940  25.333 -0.0325 -0.0068 -0.1384
52967W        W95884  10.205   2.645   0.523  0.0550 -0.0915  0.1845
52968W        W95885  15.401   0.831  28.949  0.3078 -0.3020 -0.0188
52969W        W95886  14.303  33.542  30.654  0.2365  0.0793  0.1122
52970W        W95887  10.455   2.910  31.348  0.0269 -0.0217 -0.1863
52971W        W95888  12.654   0.889  28.997  0.0501  0.0730 -0.4041
52972W        W95889  13.962   1.427  26.200 -0.0913  0.0302  0.0929
52973W        W95890  13.703   1.140  27.341  0.0213  0.2505  0.1887
52974W        W95891  11.628   2.992   0.467  0.0649 -0.0004 -0.2326
52975W        W95892  12.499   3.607  28.117 -0.3641 -0.0169 -0.2800
52976W        W95893  10.469   2.562  30.859  0.0285 -0.0233  0.1057
52977W        W95894  12.331  34.558  27.985  0.1536 -0.0881  0.1057
52978W        W95895  15.466   1.905  28.928  0.0409  0.0094  0.0435
52979W        W95896  11.775   2.511  30.770 -0.0051  0.0826  0.1994
52980W        W95897  12.327   2.740  29.775  0.0945  0.0045  0.0120
52981W        W95898  14.224   1.803  30.335 -0.0775  0.0930  0.0458
52982W        W95899  12.871  34.067  29.369  0.2680  0.0917  0.1448
52983W        W95900  10.481   0.722  27.653  0.2219 -0.2639 -0.0155
52984W        W95901  14.296  33.933  27.262  0.1078 -0.3248 -0.0115
52985W        W95902   9.897   4.643  26.882 -0.4048  0.1033  0.1135
52986W        W95903  13.431  34.099  28.388  0.0628  0.1303  0.2145
52987W        W95904  14.724   1.095  27.225  0.0937 -0.0786  0.1758
52988W        W95905  12.732   2.484  30.774 -0.0047  0.0402 -0.0677
52989W        W95906  13.755  34.485  31.152 -0.2411  0.1835  0.1429
52990W        W95907  14.776  33.759  28.076  0.3418  0.0201 -0.2243
52991W        W95908  14.184   0.629  28.812  0.2057  0.1764 -0.0201
52992W        W95909  12.707   1.684  28.025  0.0412 -0.0436 -0.2272
52993W        W95910  13.205  33.754  30.533  0.1732  0.0365  0.4526
52994W        W95911  10.248   1.123   0.592  0.0001  0.1297 -0.3047
52995W        W95912  11.064   5.049  30.619  0.2909 -0.0721 -0.1748
52996W        W95913  14.197   0.022  30.509 -0.0738  0.0504 -0.0490
52997W        W95914  11.261   2.438  28.772 -0.1298 -0.0061 -0.1217
52998W        W95915  12.829   0.072  29.474 -0.1738 -0.0396  0.1723
52999W        W95916  13.737   0.569  29.056  0.2535 -0.1555  0.1928
53000W        W95917  10.652   4.579  28.493 -0.0675 -0.0840  0.1302
53001W        W95918  12.953   2.946  26.352  0.0976  0.1689 -0.1512
53002W        W95919  13.526  33.757  28.713  0.1186  0.1318  0.0016
53003W        W95920  13.149   3.202  30.204 -0.1154  0.0095 -0.0750
53004W        W95921  11.051   3.570  26.105  0.1378 -0.4793  0.2844
53005W        W95922  13.048  33.837  29.758 -0.1503  0.2533  0.2778
53006W        W95923  11.316   1.226  27.479  0.2100 -0.0661 -0.0292
53007W        W95924  12.496  32.525  28.871 -0.0335  0.1907 -0.0298
53008W        W95925   9.605   2.181  30.130  0.2599 -0.0084 -0.0117
53009W        W95926  13.579   0.922  28.298 -0.1408  0.1908 -0.2057
53010W        W95927  12.493   1.080  27.274 -0.3019  0.1379 -0.1471
53011W        W95928  13.052   0.926  30.190  0.0968 -0.2343 -0.1952
53012W        W95929  12.200   1.579  27.973 -0.1319  0.2106 -0.0687
53013W        W95930  11.379   0.557  29.615 -0.1048 -0.0618  0.0572
53014W        W95931  12.193  34.302  29.380 -0.1635 -0.1224 -0.0245
53015W        W95932  12.711   2.388  30.130 -0.1077 -0.0641 -0.0640
53016W        W95933  11.931   1.939  28.113  0.0196  0.0265  0.2322
53017W        W95934  14.911   1.007  28.094 -0.1123  0.3017  0.0278
53018W        W95935  12.906   2.565  29.655 -0.2079  0.1686  0.1497
53019W        W95936  12.661   0.374  28.906  0.2145 -0.1535 -0.1152
53020W        W95937  11.710   0.700  28.380  0.1303  0.0773  0.1007
53021W        W95938  12.904  34.396  31.145 -0.2196  0.0018 -0.2156
53022W        W95939  12.591   1.735  30.143  0.2151 -0.1679 -0.2555
53023W        W95940  13.045   4.399  28.557 -0.1044  0.1588  0.3722
53024W        W95941  12.675   5.234  28.979  0.0550  0.0677 -0.1225
53025W        W95942  11.731  34.175  27.469  0.0234 -0.1480 -0.3711
53026W        W95943  11.958   2.921  28.984 -0.2411  0.0416 -0.2412
53027W        W95944  12.588   0.521  31.429 -0.5141  0.2008 -0.1547
53028W        W95945  13.039   3.541  31.274  0.0745 -0.2433  0.0048
53029W        W95946  12.075  34.620  30.240  0.0068  0.1094  0.0540
53030W        W95947  11.698   3.500  26.048  0.4863  0.0818 -0.0434
53031W        W95948  11.627   3.249  31.415 -0.2135 -0.0757 -0.0021
53032W        W95949  12.808   2.108  28.810  0.1256 -0.1702 -0.1599
53033W        W95950  12.384   2.148  30.522 -0.2145 -0.2961  0.1526
53034W        W95951  11.558   3.547   0.127 -0.1185  0.0436 -0.1563
53035W        W95952  12.009  32.796  28.778 -0.1530  0.0184 -0.0496
53036W        W95953  14.726   3.205  27.067 -0.1444 -0.1610 -0.1342
53037W        W95954  13.014   0.841  30.720 -0.1298 -0.0066 -0.0935
53038W        W95955   9.859   3.357  26.756  0.1404  0.0191  0.1494
53039W        W95956  12.035   1.974  28.831  0.5862  0.0896  0.1429
53040W        W95957  12.674   2.788  29.228 -0.0610  0.0441 -0.1453
53041W        W95958  12.369   1.742  29.703  0.1587 -0.1473 -0.1129
53042W        W95959  10.570   2.401  31.372 -0.1826 -0.2276  0.3456
53043W        W95960  14.784   2.950  29.425  0.0847  0.1154 -0.0749
53044W        W95961  10.369   3.722  31.455 -0.1378 -0.2263 -0.0501
53045W        W95962  13.049   0.644  29.213 -0.3838  0.1100  0.1858
53046W        W95963  15.149   2.020  27.207 -0.1287 -0.1444 -0.0127
53047W        W95964  11.197  34.643  30.395  0.0991 -0.3154 -0.1735
53048W        W95965  14.535   2.527  30.659  0.3217  0.2628  0.2164
53049W        W95966  14.687   1.523  27.595  0.1396  0.0610 -0.1916
53050W        W95967  12.863  33.519  31.057 -0.2615  0.0848 -0.1505
53051W        W95968  11.067  34.262  30.742  0.2007 -0.0216  0.0387
53052W        W95969  14.492  34.250  28.150 -0.0204 -0.1048 -0.0526
53053W        W95970  11.931   1.414  30.930  0.0895  0.1592  0.3438
53054W        W95971  12.408   4.031   0.010 -0.0685  0.0872 -0.1594
53055W        W95972  12.838   2.406  31.242 -0.1736  0.4137  0.2896
53056W        W95973  11.675   1.219  28.428  0.0581 -0.2237 -0.2776
53057W        W95974  12.281  34.283  27.588 -0.0136 -0.0744  0.3669
53058W        W95975  10.571   2.041  28.776 -0.3691  0.1702 -0.3763
53059W        W95976  13.408   2.268  28.170 -0.0464 -0.1294 -0.1617
53060W        W95977  11.861   1.457  27.608 -0.1920  0.0157  0.0118
53061W        W95978  11.100   2.449  27.625  0.1865  0.0419  0.0921
53062W        W95979  10.800   2.150  30.983 -0.2474 -0.2646  0.3126
53063W        W95980  12.020   3.413  28.943 -0.0427 -0.0287 -0.1451
53064W        W95981  12.706   1.316  28.722 -0.1032 -0.1438  0.0078
53065W        W95982  11.961   3.572  27.903 -0.3576 -0.1911 -0.0632
53066W        W95983  11.482   1.317  30.133 -0.2440  0.1891  0.0763
53067W        W95984  12.416   2.276  26.455  0.0187  0.1120 -0.3542
53068W        W95985  12.761   1.011  29.459 -0.1640 -0.0562  0.3621
53069W        W95986  12.375   1.381  31.165  0.0957 -0.2542  0.3333
53070W        W95987  13.926   0.997  29.244 -0.0825 -0.3049  0.0737
53071W        W95988  11.044   1.010  30.297 -0.2915 -0.2141 -0.0689
53072W        W95989  11.223  34.169   0.880  0.0991  0.3070 -0.3010
53073W        W95990  14.028   1.725  28.967 -0.2774 -0.1518 -0.2419
53074W        W95991  16.848  34.652  28.620  0.1349 -0.0957  0.2209
53075W        W95992  14.006   1.709  31.254  0.0827  0.2849 -0.0540
53076W        W95993  14.666   0.978  29.198 -0.0559  0.2673 -0.1447
53077W        W95994  14.899   1.530  27.111 -0.1300  0.1560  0.1359
53078W        W95995  12.146   0.284  27.168  0.0297 -0.0409  0.0392
53079W        W95996  12.962   2.951  31.131 -0.0079  0.1233  0.0677
53080W        W95997  10.984   0.297  27.942  0.0245  0.1039  0.1704
53081W        W95998  11.534   1.211  31.120  0.0797  0.0689  0.2969
53082W        W95999  11.568   3.579  28.812  0.1223  0.1986  0.1032
53083W        W96000  13.271   4.174  29.130 -0.1816  0.2428  0.1575
53084W        W96001  11.771   1.092  29.700 -0.2513 -0.0212 -0.1816
53085W        W96002  10.758   1.461  28.688 -0.3645  0.0733  0.1448
53086W        W96003  11.620  34.020  30.980 -0.2496 -0.1923  0.0739
53087W        W96004  12.351   0.855  26.826 -0.1063 -0.1186 -0.0696
53088W        W96005  11.680   0.753  24.318  0.0190 -0.0704  0.2615
53089W        W96006  12.976   0.440  30.322 -0.0869  0.0522 -0.2089
53090W        W96007  12.670   1.810  31.453 -0.1328 -0.3395  0.1980
53091W        W96008  12.251  33.776  28.497  0.3292 -0.0348  0.1688
53092W        W96009  12.594  34.481  30.346  0.0756  0.2231  0.1293
53093W        W96010  13.067   4.970  28.858  0.0048 -0.0239 -0.1311
53094W        W96011  13.027  34.070  30.200 -0.2408 -0.1558  0.2267
53095W        W96012  11.810   4.657  31.171 -0.0913 -0.2331 -0.2181
53096W        W96013  12.117   4.603   0.899 -0.1088  0.1643  0.1684
53097W        W96014  13.184   3.853  28.715  0.3376  0.1836  0.1139
53098W        W96015  12.837   0.132  29.978  0.0885  0.0537 -0.0511
53099W        W96016  14.100   3.255  28.909 -0.1753 -0.0727 -0.0556
53100W        W96017  14.092   1.142  28.670  0.2268  0.3252 -0.2852
53101W        W96018  12.396   3.836  30.475 -0.4494 -0.1326  0.1850
53102W        W96019  13.090   2.294  29.269 -0.1744  0.0654  0.2742
53103W        W96020  10.740   3.660  29.314 -0.1024  0.2185 -0.0200
53104W        W96021  12.287   3.130  29.367 -0.1338  0.2816  0.0165
53105W        W96022  13.510   0.646  27.287 -0.0010 -0.2286 -0.1418
53106W        W96023  13.276   3.075   0.312 -0.1149 -0.0719  0.0928
53107W        W96024  10.267   1.450  31.709 -0.2177  0.0455  0.4330
53108W        W96025  12.489   0.597   0.025  0.0079  0.0269  0.1371
53109W        W96026  14.001   1.405  29.914 -0.1332  0.0578 -0.2426
53110W        W96027  11.651  32.435  29.197 -0.0893  0.3682 -0.1489
53111W        W96028  13.933   2.366  26.048 -0.0283  0.2922 -0.0073
53112W        W96029  11.740   2.513   0.886 -0.0611  0.2569 -0.0045
53113W        W96030  10.648   1.831  30.387 -0.1431 -0.0079  0.0412
53114W        W96031  12.029   3.636  29.550  0.1754  0.1044 -0.1491
53115W        W96032  13.028   2.418  26.461  0.2411 -0.0397 -0.1446
53116W        W96033  11.308   2.913  27.230 -0.2788 -0.3925 -0.2068
53117W        W96034  11.814   2.425  29.002 -0.1096 -0.0047 -0.2048
53118W        W96035  11.319   1.080  28.732 -0.0380 -0.2195  0.1584
53119W        W96036  13.656   3.269  29.125 -0.1355  0.1984  0.0692
53120W        W96037  10.452   2.832  25.901  0.1628 -0.1725 -0.1370
53121W        W96038  14.203   3.002  27.158 -0.3394  0.2071  0.0488
53122W        W96039  10.338   4.407  29.406 -0.1126 -0.3104  0.1314
53123W        W96040  13.171   2.731  30.660 -0.2275 -0.0803  0.0372
53124W        W96041  13.850  34.584  26.919  0.1516  0.1606 -0.2192
53125W        W96042  15.143   1.150  29.503  0.0741 -0.0055  0.2729
53126W        W96043  15.283  34.631  26.159 -0.0311  0.0619 -0.1905
53127W        W96044  11.252   1.580  31.404 -0.3236 -0.2624  0.0514
53128W        W96045   9.302   0.840  27.199 -0.0534 -0.0536  0.2509
53129W        W96046  14.014  33.984  27.811  0.0446 -0.0704  0.1368
53130W        W96047  10.702   0.643  31.352  0.3390  0.4653  0.0001
53131W        W96048  15.036  34.115  31.762  0.0118 -0.0246 -0.3358
53132W        W96049  11.802   1.732  29.735  0.0287 -0.0233 -0.1128
53133W        W96050  14.288   3.307  27.906  0.3366 -0.0840 -0.1041
53134W        W96051  12.991   0.839  28.037 -0.2479 -0.2792 -0.1847
53135W        W96052  10.569   2.648  29.446  0.0840  0.1525  0.0485
53136W        W96053  13.927  34.662   0.542 -0.1999  0.2021 -0.0452
53137W        W96054  13.522   3.481  28.674 -0.3473 -0.1524 -0.1615
53138W        W96055  14.054   0.693  31.112 -0.0673 -0.0097  0.0171
53139W        W96056  11.286   2.587  29.739  0.2169 -0.3598  0.1903
53140W        W96057  11.635   2.866  31.108  0.0388 -0.1448  0.2583
53141W        W96058  11.361   4.447   0.001  0.1697  0.1672 -0.2643
53142W        W96059  10.933   0.281  25.400  0.0216  0.0346  0.0830
53143W        W96060  15.263   1.491  29.891  0.3085  0.1596  0.2793
53144W        W96061  14.445  33.719  30.201  0.0838  0.0402 -0.2343
53145W        W96062  12.966  34.171  30.676 -0.0454 -0.0502  0.2573
53146W        W96063  11.363   1.745  29.314  0.1641 -0.2650 -0.1923
53147W        W96064  12.779   3.484  28.628 -0.1225 -0.2391  0.0174
53148W        W96065  13.783   3.740   0.215  0.3931 -0.1643 -0.1879
53149W        W96066  10.445  33.947  31.392  0.0606  0.1228 -0.0952
53150W        W96067  13.255   1.146  27.709  0.1987  0.1618 -0.1227
53151W        W96068  11.204   3.229  31.036 -0.0807  0.2647 -0.0014
53152W        W96069  14.467   0.917  28.402 -0.0011 -0.1329  0.1233
53153W        W96070  12.303   1.329  30.066  0.1785 -0.0818  0.1998
53154W        W96071  11.255   1.195  26.948  0.2475  0.5343  0.3999
53155W        W96072  14.893   1.437  28.489  0.1354 -0.3869 -0.0059
53156W        W96073  11.581   4.149  28.210 -0.1889  0.0179 -0.0590
53157W        W96074  12.358  33.478  27.937 -0.1319  0.2911 -0.1427
53158W        W96075  12.255   2.609  30.286 -0.2756 -0.3628  0.0870
53159W        W96076   9.291   0.230  28.705  0.0338 -0.1713 -0.2879
53160W        W96077  15.455   3.022  25.292  0.1264 -0.2627  0.1951
53161W        W96078  14.534   4.308  31.583 -0.0042  0.1319 -0.0488
53162W        W96079  10.187   4.019  26.137  0.1380  0.2028 -0.0433
53163W        W96080  13.052   2.231  30.539 -0.4677  0.2030  0.1307
53164W        W96081  14.696   1.215  31.033  0.4746 -0.0347 -0.2100
53165W        W96082  11.376   0.802  31.468 -0.1866  0.1221  0.0387
53166W        W96083  12.257   1.521  28.801  0.0761 -0.0212  0.0475
53167W        W96084  13.142   1.501  30.168 -0.0945 -0.0885  0.2530
53168W        W96085  10.874   0.876  29.520 -0.0458 -0.2416  0.0831
53169W        W96086  11.290   0.026  28.561 -0.0472  0.3656 -0.0626
53170W        W96087  10.304   4.429  28.921 -0.2844 -0.0126  0.0154
53171W        W96088  12.395   1.627  30.675 -0.1480  0.1519  0.0479
53172W        W96089  11.097   3.006   0.306 -0.0745 -0.2171 -0.1040
53173W        W96090  11.246   3.303  28.554  0.2608  0.2590  0.1108
53174W        W96091  13.451   1.832   1.114 -0.3100 -0.0197 -0.0043
53175W        W96092  12.256   2.129  30.011  0.3319  0.2397 -0.0013
53176W        W96093  11.469   3.982  31.838  0.1016 -0.1893 -0.2522
53177W        W96094  12.531   1.766  28.457 -0.1003 -0.0218  0.0211
53178W        W96095  12.891   1.927  29.739  0.2110 -0.0671 -0.1164
53179W        W96096  11.252   3.069  30.084  0.3091 -0.2103 -0.0725
53180W        W96097  12.154   4.645  27.801  0.0198  0.0210 -0.1276
53181W        W96098  13.412   2.269  29.733 -0.1636  0.1617  0.2726
53182W        W96099  13.395   0.433  28.250 -0.2511  0.0684 -0.0555
53183W        W96100  14.815   3.105  28.405 -0.0689  0.1964  0.0096
53184W        W96101  10.866   1.733  29.558 -0.1760  0.1139 -0.2047
53185W        W96102  13.075   0.523  28.732  0.0134 -0.2273 -0.0380
53186W        W96103  14.211   1.560  28.483 -0.0451 -0.3304 -0.0222
53187W        W96104  11.178   3.636  30.164  0.0237  0.0563  0.0591
53188W        W96105  11.453  34.211  29.484  0.1353  0.2701 -0.3188
53189W        W96106  10.643   2.538  28.068  0.0385  0.3022  0.0519
53190W        W96107  11.370   2.310  29.251  0.0646  0.1764  0.2922
53191W        W96108  12.551  32.991  30.868 -0.1192  0.0483 -0.1067
53192W        W96109   9.743   0.750  31.050 -0.0394  0.1124  0.3471
53193W        W96110  11.031   0.624  29.965 -0.0169 -0.0343  0.0370
53194W        W96111   9.949   0.536  28.515  0.1422  0.3378 -0.1334
53195W        W96112  14.994   1.930  27.710 -0.2827 -0.1111 -0.2954
53196W        W96113  13.306   1.229  29.749 -0.2046  0.2396 -0.0663
53197W        W96114  10.115   1.547  27.378  0.1652 -0.0170 -0.1484
53198W        W96115  12.466   2.967  27.183  0.1777 -0.0093  0.1482
53199W        W96116  14.377   0.499  30.462 -0.0096 -0.2784  0.1838
53200W        W96117  10.002   0.504  27.537 -0.3352 -0.2425  0.1301
53201W        W96118  13.546   2.782  31.002  0.0601 -0.0798  0.1104
53202W        W96119  10.802   1.514  26.745  0.3686  0.1346 -0.2509
53203W        W96120  12.450   1.078  30.683  0.0553 -0.0340 -0.0543
53204W        W96121  12.463  34.168  31.937  0.4096  0.0526 -0.2111
53205W        W96122  10.997   0.251  26.698  0.0368 -0.1384 -0.0507
53206W        W96123  13.593   1.385  30.994  0.0881 -0.1519 -0.1678
53207W        W96124  12.470   3.155  28.854 -0.1839 -0.0367 -0.0665
53208W        W96125  13.533   4.193  26.891 -0.1329  0.1581  0.1353
53209W        W96126  10.712   3.370  31.373 -0.0355  0.0196 -0.0617
53210W        W96127  12.787   3.032  29.883  0.1091 -0.0562 -0.0834
53211W        W96128  12.013  33.916   1.333 -0.0281 -0.1904  0.0643
53212W        W96129  12.744   4.125  28.905  0.1380 -0.2989  0.1561
53213W        W96130  10.978   1.948  30.019 -0.0777 -0.0093 -0.0138
53214W        W96131  15.947   1.955  27.957 -0.2398 -0.1308  0.2649
53215W        W96132  13.955   0.625  28.246  0.0648 -0.0999 -0.2869
53216W        W96133  11.831   2.054  29.337 -0.0290  0.1196 -0.0235
53217W        W96134  10.947  34.539  29.451 -0.0533  0.0143  0.0782
53218W        W96135  10.495   2.414  30.337 -0.1191 -0.1456  0.0703
53219W        W96136  12.787   1.416  29.840  0.2375  0.1653 -0.0513
53220W        W96137  13.035  33.947  27.539 -0.0234 -0.0381 -0.2877
53221W        W96138  13.648   1.836  28.613  0.2034  0.0631  0.1977
53222W        W96139  14.685   4.013  28.913  0.2256  0.0923  0.0827
53223W        W96140  11.562   2.914  30.448  0.2875  0.1074 -0.1950
53224W        W96141  10.847   0.779  28.655  0.0108 -0.1789 -0.0556
53225W        W96142  12.195   1.076  29.057 -0.2082  0.1419  0.4071
53226W        W96143  12.048   1.728  30.245  0.1229  0.1213 -0.2529
53227W        W96144  12.546   2.740  31.384 -0.2987  0.0210  0.1209
53228W        W96145  12.658   3.020  28.395  0.0383 -0.1079 -0.2820
53229W        W96146  13.613   2.140  29.183  0.0370 -0.3776 -0.2732
53230W        W96147  11.369   5.531  28.963  0.1143  0.1308 -0.2371
53231W        W96148  13.641   4.806  30.902 -0.1944  0.0735 -0.1300
53232W        W96149  13.387   2.555  28.967 -0.1492  0.2059 -0.0005
53233W        W96150  12.715   1.237  30.295  0.0649  0.0909 -0.1339
53234W        W96151  11.676  33.656  30.356 -0.0274 -0.0184 -0.0011
53235W        W96152  11.087   2.308  28.148  0.0945  0.0662  0.1473
53236W        W96153  10.535   2.127  28.279  0.1340 -0.0135 -0.1079
53237W        W96154  11.533   0.307  31.376 -0.2110 -0.0754 -0.1080
53238W        W96155  12.318   1.212  29.590 -0.0143 -0.2346 -0.2109
53239W        W96156  13.655  33.093  28.274 -0.1595  0.0334 -0.1819
53240W        W96157  12.664   3.430  30.251 -0.2913  0.1576 -0.2023
53241W        W96158  12.430   2.577  28.856 -0.1047 -0.2194 -0.2684
53242W        W96159  13.443   0.052  31.659  0.1181  0.0837  0.3649
53243W        W96160  10.713   1.790  31.273 -0.0816 -0.2104  0.1723
53244W        W96161  11.708  34.312   1.183 -0.0664  0.2562  0.2048
53245W        W96162  10.203   1.891  31.256 -0.1513  0.0346 -0.2631
53246W        W96163  12.115   0.136  31.595  0.0290  0.0382  0.2183
53247W        W96164  11.910   1.104   0.042  0.2720 -0.2887  0.2662
53248W        W96165  13.708  33.694  30.556 -0.1331 -0.3493  0.1917
53249W        W96166  11.359   0.349  30.783  0.0774 -0.0935 -0.1341
53250W        W96167  13.346  34.332  31.372  0.1309  0.0173  0.2363
53251W        W96168  13.319   4.343  31.791  0.1114  0.1226  0.2415
53252W        W96169  13.583   4.273   0.260 -0.2114  0.1088 -0.0868
53253W        W96170  12.042  33.605  29.954 -0.1208  0.0077 -0.0575
53254W        W96171  13.274   2.357  30.983 -0.1012 -0.0497  0.0436
53255W        W96172  11.452   0.033   0.922  0.1497  0.1088  0.2330
53256W        W96173  14.198   1.293  31.549 -0.2843 -0.0029 -0.1334
53257W        W96174  10.883   3.863  31.373 -0.1178  0.2144  0.1452
53258W        W96175  10.528   1.047  31.722 -0.1084 -0.1116 -0.0828
53259W        W96176  11.940   3.633  31.727  0.1105 -0.1173  0.4516
53260W        W96177  11.084  32.678   1.071  0.1806 -0.0513  0.2870
53261W        W96178  11.234  34.168  31.242  0.0131  0.0370 -0.1285
53262W        W96179  10.249   1.478  30.527 -0.0809  0.2276 -0.0384
53263W        W96180  11.143   0.372   0.155  0.1224 -0.1967 -0.1199
53264W        W96181  11.298   1.057   1.947 -0.2608  0.1619  0.0515
53265W        W96182  12.890   0.052  30.695  0.1010 -0.0794  0.0781
53266W        W96183  14.067  33.856  31.168  0.2620 -0.4014  0.1216
53267W        W96184  14.441   1.676  30.956  0.1705 -0.2399 -0.0356
53268W        W96185  13.566   2.043  30.683 -0.1543 -0.0143  0.1923
53269W        W96186  10.963   4.699   1.145 -0.0987 -0.0397 -0.1639
53270W        W96187  12.077  34.102   0.870 -0.1362  0.0463 -0.1148
53271W        W96188  12.751   1.599   0.378 -0.2930 -0.0699  0.0252
53272W        W96189  11.966   2.874  31.582 -0.0500  0.1921  0.2245
53273W        W96190  11.392   0.016  29.540 -0.0942  0.0779 -0.1365
53274W        W96191  13.817   2.339  30.982  0.0854  0.0182 -0.2111
53275W        W96192  13.900  34.223  29.671 -0.0958  0.1184  0.0240
53276W        W96193  11.784   0.502   0.374  0.0409  0.0338  0.3249
53277W        W96194  13.034   1.662  31.867 -0.0921 -0.1303  0.0491
53278W        W96195  11.738   1.777   1.720  0.0047  0.0310  0.2240
53279W        W96196  13.154   4.855  31.716  0.0759  0.0656  0.1853
53280W        W96197  13.141   0.428  31.934 -0.2825  0.1954 -0.0273
53281W        W96198  11.631   0.728  31.033 -0.1006 -0.0032  0.0790
53282W        W96199  12.343   1.804  31.909  0.0473  0.0254 -0.0511
53283W        W96200  12.525   1.927  30.974  0.2503 -0.0219 -0.0189
53284W        W96201  11.445   1.046  30.627  0.2092  0.0222  0.0592
53285W        W96202  14.008   4.265   0.497 -0.0838 -0.5568  0.2144
53286W        W96203  12.406   0.436  30.051 -0.4278  0.0814  0.0600
53287W        W96204  13.344  34.432  30.820 -0.3393  0.2201  0.0655
53288W        W96205  12.760   0.588   0.766 -0.1088  0.1325 -0.0031
53289W        W96206  11.521   3.349   1.415 -0.1492  0.1254  0.2468
53290W        W96207  12.944   5.246   0.639  0.1668 -0.2013 -0.1973
53291W        W96208  11.245   4.053  29.930 -0.0074  0.2117 -0.0891
53292W        W96209  13.451   2.588   0.540 -0.0345 -0.1531  0.1226
53293W        W96210  13.188   0.240   0.460  0.0943 -0.0909  0.3215
53294W        W96211  11.831  33.970  29.251 -0.0706 -0.0583  0.1424
53295W        W96212  11.888   2.268  30.308 -0.3147 -0.2634 -0.1533
53296W        W96213  11.392   2.466  30.253 -0.1502  0.1776  0.0526
53297W        W96214  13.717   1.464  31.650 -0.1092  0.0451  0.3136
53298W        W96215  12.845   3.227  29.404  0.3097  0.0091  0.0820
53299W        W96216  13.968   2.761   0.606  0.0215 -0.1200 -0.2399
53300W        W96217  14.111   5.555  31.664 -0.4438 -0.3121  0.2534
53301W        W96218   9.880  33.643   1.559  0.1133  0.0833 -0.1886
53302W        W96219  11.821  34.370   2.983  0.1046 -0.2513 -0.1650
53303W        W96220  11.208  34.541   0.080  0.0987 -0.1882  0.0128
53304W        W96221   9.503   1.088  31.311 -0.2099  0.1663  0.1044
53305W        W96222  10.376  33.908   0.123  0.1657  0.1342 -0.1047
53306W        W96223  14.239   2.081  28.731 -0.3316 -0.3232 -0.2991
53307W        W96224  15.230   6.254  29.199 -0.1289 -0.1944 -0.4588
53308W        W96225  13.417   3.685   0.863  0.0129  0.0575 -0.1386
53309W        W96226  13.677   5.862  16.883 -0.2708  0.1894  0.1508
53310W        W96227  11.255   1.621  17.028 -0.1370 -0.1118  0.0753
53311W        W96228  13.009   2.670  15.109 -0.1647 -0.1298  0.0574
53312W        W96229  15.283   6.015  16.059  0.0782 -0.2799 -0.1198
53313W        W96230  10.304   3.244  16.259  0.0870 -0.1766  0.0940
53314W        W96231  12.369   9.254  18.921  0.2474  0.0353 -0.0997
53315W        W96232  12.829   3.242  17.882  0.1034  0.1283 -0.1681
53316W        W96233  13.167   6.599  18.562 -0.1982  0.1268 -0.1956
53317W        W96234  14.051   4.595  20.860  0.0679 -0.0720  0.0420
53318W        W96235  11.700   4.186  15.734 -0.0494  0.5220 -0.0316
53319W        W96236   9.739   4.393  16.978  0.1329 -0.2419 -0.1920
53320W        W96237  13.099   6.061  18.805  0.4118  0.0395  0.0753
53321W        W96238  11.514   2.915  15.302 -0.1149  0.0915  0.0219
53322W        W96239  10.343   4.116  18.136 -0.0782 -0.4114 -0.1137
53323W        W96240  13.181   5.053  17.636 -0.1560  0.0526  0.0296
53324W        W96241  11.569   3.186  16.911 -0.0522 -0.0500  0.1078
53325W        W96242  12.085   3.962  16.970  0.1069  0.3802 -0.1479
53326W        W96243  12.466   1.467  17.571 -0.2666 -0.1608 -0.1199
53327W        W96244  13.784   6.308  16.143 -0.0140 -0.1582  0.0207
53328W        W96245  12.383   3.789  20.535 -0.0108 -0.1716 -0.4056
53329W        W96246  14.528   4.411  19.610  0.1522  0.1960 -0.1532
53330W        W96247  14.210   6.652  16.150 -0.3737 -0.2728 -0.1198
53331W        W96248  10.198   4.381  17.240  0.0070 -0.2818 -0.1591
53332W        W96249  12.726   5.166  16.823  0.1621 -0.2640 -0.0835
53333W        W96250  13.473   4.351  17.117 -0.2175  0.0794 -0.2142
53334W        W96251  15.425   6.043  16.537  0.0877  0.1091  0.0893
53335W        W96252  14.987   5.115  17.127  0.1520  0.1153 -0.4275
53336W        W96253  12.394   6.455  18.732 -0.0306  0.2029  0.1234
53337W        W96254  14.555   6.584  19.997 -0.4592  0.1736 -0.1203
53338W        W96255  15.047   2.895  17.052 -0.0190 -0.0826  0.0895
53339W        W96256  12.388   4.959  16.355  0.0530 -0.1079 -0.1244
53340W        W96257  11.777   9.167  18.253 -0.1865  0.3467 -0.4019
53341W        W96258  13.624   6.276  15.641  0.2115 -0.1817 -0.3346
53342W        W96259  13.754   6.375  17.548  0.2384 -0.3843  0.0479
53343W        W96260  13.656   6.307  20.127 -0.3601  0.1565  0.3275
53344W        W96261  11.414   6.968  17.927 -0.3633 -0.1686  0.0662
53345W        W96262   9.715   6.474  16.952  0.0058  0.0791  0.1325
53346W        W96263  13.488   8.903  19.078  0.4227 -0.1621 -0.1064
53347W        W96264  10.670   6.223  19.151 -0.0609  0.0895  0.1920
53348W        W96265  12.185   4.498  20.371  0.0223  0.1699 -0.1173
53349W        W96266  14.295   3.205  17.191  0.1739 -0.2729  0.1843
53350W        W96267  11.023   7.871  16.346 -0.0437  0.1511  0.0751
53351W        W96268  12.501   6.152  16.345 -0.0654 -0.0768  0.1836
53352W        W96269  10.330   3.984  17.542 -0.2218  0.0938 -0.0719
53353W        W96270  12.861   7.425  18.189  0.0181 -0.1312  0.2966
53354W        W96271  14.419   4.864  19.737  0.0112 -0.3686  0.1500
53355W        W96272  11.915   4.285  18.743  0.0850 -0.0153 -0.2377
53356W        W96273  12.570   4.399  15.508 -0.2029  0.3517 -0.0846
53357W        W96274  12.543   3.560  15.916 -0.4103  0.0880  0.0939
53358W        W96275  13.579   5.466  17.269  0.0133  0.0707 -0.2889
53359W        W96276  11.428   3.571  19.946 -0.0787  0.2280 -0.1840
53360W        W96277  13.030   5.932  19.368 -0.0203 -0.4031 -0.0398
53361W        W96278  11.880   6.384  18.536 -0.2056 -0.0727 -0.1357
53362W        W96279  13.628   7.449  19.599 -0.1751 -0.0130  0.1712
53363W        W96280  15.126   6.413  16.284 -0.0744  0.2659  0.1209
53364W        W96281  12.349   2.286  18.691  0.0338  0.0311  0.1590
53365W        W96282  12.897   6.450  20.072  0.0780 -0.0694 -0.3977
53366W        W96283  13.277   3.571  17.734 -0.0927 -0.0842 -0.1117
53367W        W96284  13.989   6.071  15.360 -0.0558 -0.3132 -0.1468
53368W        W96285  15.584   7.256  15.557 -0.0709  0.1648  0.0003
53369W        W96286  14.607   6.385  16.081 -0.2206  0.1156  0.2247
53370W        W96287  11.947   4.704  16.142  0.1032 -0.0763 -0.0003
53371W        W96288  10.195   5.618  17.391  0.3277  0.1361  0.1248
53372W        W96289  12.732   3.407  19.644 -0.0498 -0.4831 -0.0872
53373W        W96290  11.679   2.183  18.013 -0.1745 -0.0955  0.1750
53374W        W96291  14.033   6.348  18.834  0.0248 -0.2020  0.0181
53375W        W96292  10.487   7.526  20.099 -0.0907  0.1524  0.0805
53376W        W96293  15.677   4.094  16.692  0.0457 -0.0303  0.0803
53377W        W96294  11.888   4.412  16.684 -0.1898  0.1758  0.2425
53378W        W96295  15.081   5.652  18.632  0.1441  0.0342 -0.1129
53379W        W96296  13.198   5.625  16.807 -0.2835 -0.2912  0.0219
53380W        W96297  13.604   1.905  19.078  0.3798 -0.1841 -0.2063
53381W        W96298  13.250   2.981  17.980 -0.1808  0.1913 -0.0121
53382W        W96299  12.693   4.825  17.198 -0.1849 -0.1484  0.2420
53383W        W96300  13.299   5.142  16.601 -0.3051  0.4017 -0.3809
53384W        W96301  12.849   8.442  20.333  0.0293 -0.0725 -0.0180
53385W        W96302  12.877   6.211  15.925 -0.1315 -0.2167 -0.0677
53386W        W96303   9.461   9.270  18.293 -0.1715  0.1882 -0.1076
53387W        W96304  11.199   3.669  19.481  0.3151  0.1541 -0.0758
53388W        W96305  15.307   5.918  20.614 -0.0551 -0.0700 -0.1785
53389W        W96306  10.103   4.936  17.405 -0.2498 -0.3114 -0.1429
53390W        W96307   8.732   5.351  18.018 -0.1735  0.1905  0.3417
53391W        W96308  12.935   4.993  16.250 -0.1912  0.0645  0.0431
53392W        W96309  12.995   4.106  17.088 -0.1527  0.0157 -0.2250
53393W        W96310  13.915   4.627  17.275 -0.1827 -0.2531  0.1287
53394W        W96311  13.934   4.292  16.488 -0.1611  0.0127  0.1228
53395W        W96312  11.807   3.311  18.762  0.1093  0.2701  0.2364
53396W        W96313  15.015   2.384  16.212 -0.2776  0.1001 -0.1832
53397W        W96314  10.929   6.243  16.215  0.0440 -0.0327 -0.0283
53398W        W96315  13.732   5.115  16.992  0.1141 -0.0618 -0.4611
53399W        W96316  14.803   5.775  16.130  0.1978 -0.2219 -0.0392
53400W        W96317  14.082   6.568  15.223 -0.0944  0.1828 -0.1827
53401W        W96318  10.468   5.841  18.353  0.0316  0.0525  0.2370
53402W        W96319  12.811   4.353  18.064  0.1810  0.0382  0.2275
53403W        W96320  14.695   4.171  18.533  0.1152 -0.0834 -0.0608
53404W        W96321  11.486   4.035  16.814 -0.0910  0.0271  0.2973
53405W        W96322  12.257   5.049  17.481  0.4163 -0.0779 -0.2544
53406W        W96323  11.687   3.603  17.086  0.1705  0.0344  0.2158
53407W        W96324  15.584   4.407  18.279 -0.1085 -0.1456 -0.0566
53408W        W96325  13.948   6.018  17.252  0.0855 -0.1848  0.1148
53409W        W96326  11.473   5.253  16.163 -0.1161 -0.2723  0.0931
53410W        W96327  13.608   3.424  19.165  0.0878  0.1251 -0.1586
53411W        W96328  12.982   6.446  16.456  0.2513  0.2300  0.2894
53412W        W96329  14.628   5.505  18.835  0.1898  0.0277  0.1004
53413W        W96330  11.870   9.217  17.753 -0.2080 -0.0737 -0.0603
53414W        W96331  11.653   3.822  18.625 -0.2987  0.0217  0.0857
53415W        W96332  12.472   4.061  15.871 -0.2147 -0.0797 -0.1251
53416W        W96333  14.261   6.508  17.525 -0.0444 -0.1312  0.1217
53417W        W96334  13.959   5.283  21.074 -0.2105  0.1686 -0.3595
53418W        W96335  12.695   4.669  16.696  0.0164  0.1214  0.1827
53419W        W96336  16.806   7.586  18.184 -0.5767 -0.0640 -0.2559
53420W        W96337  12.256   2.433  16.727  0.0703 -0.2421 -0.0217
53421W        W96338  12.070   6.198  19.040  0.0724  0.0732  0.1395
53422W        W96339  14.876   3.618  17.821 -0.1916 -0.2263 -0.2496
53423W        W96340  14.662   5.072  17.998 -0.1940 -0.1112  0.0600
53424W        W96341  14.779   3.107  17.403 -0.0157 -0.1809 -0.0033
53425W        W96342  11.100   4.463  16.475  0.3163  0.2870  0.0073
53426W        W96343  14.351   4.474  17.449 -0.0553 -0.3948  0.1975
53427W        W96344  11.638   6.991  17.457  0.0991  0.1530  0.0800
53428W        W96345  10.510   4.599  17.668 -0.1865 -0.1246 -0.0922
53429W        W96346  12.994   5.865  16.309  0.1492 -0.1243  0.0159
53430W        W96347  14.095   3.268  18.954 -0.3524  0.1114  0.0339
53431W        W96348  12.465   3.039  17.596  0.0417 -0.0498  0.0940
53432W        W96349  12.815   4.175  19.084 -0.1190  0.2476  0.1408
53433W        W96350  12.297   5.984  15.703  0.2011  0.2931 -0.2318
53434W        W96351  12.578   5.962  18.646  0.1045 -0.0738 -0.0521
53435W        W96352  13.372   2.606  17.613  0.0181 -0.3907 -0.1475
53436W        W96353  14.671   2.697  14.939 -0.0569  0.2043  0.0489
53437W        W96354  13.861   4.291  18.743  0.0877 -0.0617  0.0019
53438W        W96355  14.263   4.095  16.058  0.0000  0.1884 -0.3729
53439W        W96356  14.325   4.503  16.307  0.0805 -0.2352 -0.0791
53440W        W96357  15.015   5.094  16.631 -0.0067 -0.2892  0.1121
53441W        W96358  11.680   6.554  17.739 -0.1441 -0.0088 -0.2964
53442W        W96359  14.293   4.140  18.244  0.3123 -0.0909  0.0292
53443W        W96360  12.924   4.069  17.639 -0.4667 -0.2002 -0.0204
53444W        W96361  13.268   5.097  15.869 -0.0814  0.3380 -0.0326
53445W        W96362  14.446   7.048  15.908  0.2674  0.0169 -0.1727
53446W        W96363  11.805   5.149  16.878  0.3608 -0.3174  0.0358
53447W        W96364  13.122   5.011  20.751 -0.0020  0.1271  0.2022
53448W        W96365  14.477   6.648  15.506 -0.0712  0.1076  0.0585
53449W        W96366  13.451   3.752  18.666 -0.0179 -0.1485 -0.0234
53450W        W96367   9.657   6.046  16.733  0.1095  0.0858  0.0112
53451W        W96368  12.895   1.680  16.936 -0.5390 -0.1582 -0.1755
53452W        W96369  10.432   8.355  16.918 -0.2076  0.0451 -0.0983
53453W        W96370  13.932   2.582  17.352 -0.2607  0.2453 -0.3511
53454W        W96371  14.366   2.011  16.668  0.1697  0.0826  0.0491
53455W        W96372  12.927   2.646  18.299  0.1350 -0.0968 -0.2831
53456W        W96373  14.774   3.645  20.372  0.1933  0.2237  0.3162
53457W        W96374  13.076   4.137  15.751  0.1768 -0.3383  0.4152
53458W        W96375  13.592   5.337  17.764 -0.0604  0.2741  0.1602
53459W        W96376  10.690   7.451  16.955 -0.0527  0.0757 -0.4602
53460W        W96377  14.128   3.797  17.852 -0.3307  0.2445  0.0540
53461W        W96378   9.239   5.925  17.877 -0.2188  0.1021  0.0224
53462W        W96379  12.756   5.252  17.485 -0.3464  0.0672  0.1775
53463W        W96380  14.461   6.321  17.988  0.0770 -0.1638  0.1354
53464W        W96381  12.123   5.766  16.193  0.0960  0.0769 -0.0561
53465W        W96382  10.954   5.677  19.296  0.0692 -0.1452  0.4154
53466W        W96383  12.092   3.216  15.923  0.4285 -0.0514  0.2522
53467W        W96384  11.593   6.717  18.354 -0.0480 -0.0107  0.1958
53468W        W96385  13.006   6.570  16.951 -0.1801  0.2517 -0.0774
53469W        W96386  11.211   2.905  18.501  0.1171  0.0446  0.1195
53470W        W96387  12.732   5.764  18.203  0.1078 -0.1263  0.1823
53471W        W96388  11.815   6.657  15.907 -0.1192  0.2963 -0.0750
53472W        W96389  13.774   4.196  18.223 -0.1617 -0.1940 -0.0425
53473W        W96390  11.365   6.258  15.852 -0.0019  0.1918  0.0643
53474W        W96391  13.552   2.093  17.613  0.0442 -0.3696  0.2404
53475W        W96392  10.744   7.578  18.018 -0.0163 -0.2182  0.1162
53476W        W96393  11.592   4.848  16.507 -0.2310 -0.1032  0.1556
53477W        W96394  10.729   3.385  16.452 -0.1948 -0.0329 -0.0798
53478W        W96395  13.728   4.190  15.789  0.2306  0.1701  0.0125
53479W        W96396  14.613   6.012  15.724 -0.0850  0.3526 -0.1336
53480W        W96397  12.734   6.816  18.610  0.2023 -0.1361 -0.0505
53481W        W96398  13.396   4.336  17.842 -0.1621  0.0965  0.0338
53482W        W96399   9.795   6.376  16.397 -0.0019  0.1130 -0.0495
53483W        W96400  13.407   6.120  18.403 -0.1616  0.0099 -0.1264
53484W        W96401  14.050   5.015  16.540  0.5636  0.0941 -0.2985
53485W        W96402  13.672   5.730  18.634  0.1903  0.3044  0.0528
53486W        W96403  13.577   6.087  18.959  0.1006  0.0002 -0.2154
53487W        W96404  10.853   3.399  15.734  0.1572 -0.1401 -0.2170
53488W        W96405  15.809   3.884  18.047 -0.0982  0.5306  0.0422
53489W        W96406  11.291   5.471  17.542 -0.1237 -0.1606  0.0679
53490W        W96407  10.830   5.668  16.928  0.0507 -0.0920 -0.0538
53491W        W96408  13.051   6.134  17.799  0.0477 -0.0533 -0.2792
53492W        W96409  10.303   5.507  16.244  0.0637 -0.3248  0.3998
53493W        W96410  11.095   6.509  16.625 -0.2413  0.0778 -0.4165
53494W        W96411  12.853   5.659  18.959 -0.2729  0.2347  0.0167
53495W        W96412  12.985   4.480  18.651 -0.0281  0.0767 -0.0339
53496W        W96413  13.628   5.004  16.274  0.0534 -0.1114  0.1618
53497W        W96414  11.271   4.992  18.238 -0.1209  0.3041 -0.1571
53498W        W96415  14.100   3.665  17.240 -0.0980  0.2319 -0.2201
53499W        W96416  14.626   5.260  16.273  0.0525 -0.0566 -0.1441
53500W        W96417  12.508   5.333  18.450 -0.2776 -0.1722 -0.0936
53501W        W96418   9.722   6.121  19.394 -0.0918  0.0566  0.0639
53502W        W96419  12.452   2.977  19.145  0.1805 -0.1880 -0.2419
53503W        W96420  11.948   4.200  16.170 -0.2149  0.0499 -0.0630
53504W        W96421  13.011   4.327  16.623 -0.5978 -0.0543 -0.2755
53505W        W96422  11.696   5.218  18.088 -0.2284  0.0674 -0.1899
53506W        W96423  11.808   3.247  17.861 -0.3402  0.2462  0.3052
53507W        W96424  10.804   4.227  17.505 -0.1361  0.0663  0.1240
53508W        W96425  13.501   4.082  16.647 -0.1349  0.0727 -0.1602
53509W        W96426  11.563   5.846  18.434 -0.2017  0.1291 -0.3340
53510W        W96427  12.015   6.792  17.179  0.0311  0.1887 -0.1066
53511W        W96428  10.928   4.725  17.343  0.1226 -0.0782 -0.1165
53512W        W96429  13.654   2.338  16.551 -0.2419  0.2066 -0.0389
53513W        W96430  12.728   5.900  15.437 -0.3832 -0.1455  0.1162
53514W        W96431  13.833   3.865  16.219  0.2274  0.1233  0.0759
53515W        W96432  15.111   4.660  16.822 -0.1377 -0.1689 -0.0327
53516W        W96433  13.099   5.630  15.060 -0.1515 -0.2973 -0.0103
53517W        W96434  13.682   4.146  20.755 -0.2029  0.2011 -0.0106
53518W        W96435  12.151   2.584  17.254 -0.0468  0.0775 -0.0583
53519W        W96436  12.864   3.158  15.906  0.3578 -0.1173  0.3596
53520W        W96437  11.354   4.450  17.437  0.0033 -0.1359  0.0463
53521W        W96438  14.244   7.520  17.985  0.0946 -0.0609 -0.1384
53522W        W96439  12.265   4.616  19.619  0.1923  0.2716 -0.2510
53523W        W96440  12.174   4.035  17.507 -0.1258  0.3027  0.2219
53524W        W96441  13.303   3.494  17.240 -0.1987  0.0438 -0.1672
53525W        W96442  11.974   3.757  15.899 -0.1402 -0.2546 -0.0843
53526W        W96443  13.354   6.733  16.605 -0.1162  0.1538 -0.0186
53527W        W96444  13.163   5.106  17.126  0.1756  0.2829  0.2902
53528W        W96445  13.741   5.601  18.178 -0.2177 -0.3178  0.1713
53529W        W96446  12.260   2.780  18.182 -0.1511  0.0497 -0.2385
53530W        W96447  14.163   5.465  14.904 -0.2798 -0.0099 -0.1645
53531W        W96448  13.465   3.611  16.435  0.0079  0.1148 -0.0796
53532W        W96449  12.564   5.658  17.723  0.0701 -0.1737  0.1566
53533W        W96450  10.944   3.647  19.942  0.0674  0.0521  0.0028
53534W        W96451  14.440   6.367  16.600 -0.2205  0.2129  0.2744
53535W        W96452  13.984   5.473  16.677  0.4223 -0.2057  0.1020
53536W        W96453  13.136   3.389  18.367 -0.3775  0.0483 -0.1341
53537W        W96454  11.175   5.540  18.776 -0.2697 -0.0057 -0.1418
53538W        W96455  12.733   4.815  18.277 -0.3344 -0.0693 -0.1428
53539W        W96456  12.170   3.882  18.451 -0.3052  0.2754  0.1907
53540W        W96457  14.511   8.659  17.509 -0.0060  0.0410 -0.0485
53541W        W96458  14.570   3.154  16.264 -0.3110  0.1140  0.1233
53542W        W96459  15.700   4.971  17.588  0.0346 -0.0491 -0.4084
53543W        W96460  14.781   4.333  19.004 -0.2720  0.5080 -0.0967
53544W        W96461  14.351   3.552  16.837  0.2886 -0.1504 -0.1322
53545W        W96462  11.623   5.764  18.986 -0.1102 -0.0242  0.1313
53546W        W96463  13.921   5.517  19.005 -0.2054  0.0169 -0.2185
53547W        W96464  11.076   3.618  15.380  0.1507 -0.1985 -0.0882
53548W        W96465  12.531   3.856  17.833  0.4450  0.1203 -0.1070
53549W        W96466  13.301   7.258  15.765 -0.1279  0.0946  0.2496
53550W        W96467  13.867   5.863  16.395 -0.2371 -0.2105  0.1676
53551W        W96468  13.716   4.801  15.606  0.0762  0.7561 -0.0170
53552W        W96469  12.321   5.468  17.191  0.1730 -0.1391  0.0440
53553W        W96470  10.881   5.188  17.160 -0.0117 -0.2175 -0.1930
53554W        W96471  12.044   6.052  16.594 -0.1147 -0.4558  0.1953
53555W        W96472  12.448   5.314  16.061 -0.0854 -0.2079 -0.2054
53556W        W96473  12.939   4.667  20.280  0.1628  0.0014  0.0720
53557W        W96474  14.933   6.474  19.721 -0.1071 -0.0143  0.2750
53558W        W96475  12.564   3.829  17.156  0.2106 -0.1531  0.4262
53559W        W96476  13.609   5.881  17.597 -0.4128  0.2650 -0.0641
53560W        W96477  12.251   4.413  17.047  0.0166 -0.1859  0.1817
53561W        W96478  13.534   4.606  18.488  0.1959 -0.0262 -0.1230
53562W        W96479  12.077   5.930  18.570  0.2255 -0.1021  0.0976
53563W        W96480  12.844   5.256  17.998  0.2257  0.3395 -0.1928
53564W        W96481  14.305   5.646  15.975  0.2994  0.2461 -0.1514
53565W        W96482  12.365   3.691  19.331  0.0013 -0.0211 -0.3017
53566W        W96483  13.493   1.821  18.075  0.1382 -0.0760 -0.2875
53567W        W96484  13.253   4.697  16.829 -0.1978  0.0376 -0.4036
53568W        W96485  14.862   3.703  18.317 -0.2788 -0.2481  0.1934
53569W        W96486  13.469   4.899  20.221 -0.3095  0.1389 -0.0703
53570W        W96487  12.145   4.965  18.184 -0.0336 -0.2389 -0.3920
53571W        W96488  13.585   6.787  17.783  0.0868 -0.0040  0.2705
53572W        W96489  14.139   7.556  15.327  0.0034  0.1307 -0.1612
53573W        W96490  13.425   6.059  16.504 -0.1520  0.1314  0.0985
53574W        W96491  10.186   4.544  18.737 -0.1062  0.4155 -0.2018
53575W        W96492  14.121   4.633  19.444  0.2259  0.4837  0.2475
53576W        W96493  13.868   4.117  17.433  0.0826  0.1029 -0.1504
53577W        W96494  13.478   1.543  17.520 -0.1041 -0.1847  0.1292
53578W        W96495  13.915   7.228  17.680 -0.0326  0.2561 -0.1004
53579W        W96496  11.648   5.599  20.074  0.0973 -0.0609 -0.0430
53580W        W96497  13.222   4.128  18.384 -0.4302 -0.2505 -0.4556
53581W        W96498  10.963   6.840  16.270  0.2185 -0.0489  0.1043
53582W        W96499  11.862   6.122  15.878 -0.0917  0.3711  0.0949
53583W        W96500  13.286   4.603  16.287 -0.4919 -0.1584 -0.1772
53584W        W96501  13.800   7.218  19.174 -0.0939  0.3460 -0.0631
53585W        W96502  12.150   4.445  15.805 -0.2437 -0.3240  0.3247
53586W        W96503  12.687   4.751  17.692  0.0435  0.0121  0.2736
53587W        W96504  12.092   6.400  15.492 -0.0335 -0.0826 -0.0091
53588W        W96505  13.122   5.563  15.595  0.0496 -0.1954  0.0021
53589W        W96506  11.284   5.476  16.990 -0.0100  0.2426  0.0424
53590W        W96507  13.807   4.740  21.685 -0.1878  0.1316 -0.0350
53591W        W96508  14.194   2.856  16.263 -0.0235  0.0417 -0.2432
53592W        W96509  14.409   3.573  18.132 -0.0631  0.0987  0.2479
53593W        W96510  15.440   0.534  14.989 -0.2780  0.2088  0.0107
53594W        W96511  14.779   6.481  18.547  0.0362 -0.0658 -0.1763
53595W        W96512  13.273   5.934  17.218  0.1046  0.6852 -0.0608
53596W        W96513  14.308   3.610  16.221 -0.0096 -0.0171  0.1393
53597W        W96514  10.989   3.791  18.258 -0.0322  0.1011 -0.3866
53598W        W96515  15.765   2.152  19.605 -0.2135 -0.1045  0.1346
53599W        W96516  10.104   6.165  18.154 -0.2570  0.0981 -0.1826
53600W        W96517  15.323   7.969  15.981  0.3515 -0.2187  0.1303
53601W        W96518  12.898   3.492  16.286 -0.0737  0.0198 -0.1132
53602W        W96519  13.147   5.624  18.518  0.1295  0.0502  0.0862
53603W        W96520  13.967   3.135  21.023 -0.0390 -0.2275  0.1268
53604W        W96521  12.788   5.638  17.167 -0.3720 -0.1553 -0.0948
53605W        W96522  14.244   6.090  16.189  0.1915 -0.0121  0.2486
53606W        W96523  12.838   7.785  16.472  0.2901 -0.3353 -0.3086
53607W        W96524  11.592   6.224  16.802 -0.1674  0.1602 -0.1831
53608W        W96525  13.573   5.252  18.726 -0.1679  0.0751  0.1162
53609W        W96526  10.890   3.992  15.122  0.0181 -0.2553  0.0037
53610W        W96527  12.870   4.017  16.220  0.0908 -0.1452 -0.1845
53611W        W96528  11.768   4.705  18.404  0.1048 -0.0143 -0.1972
53612W        W96529  15.026   4.383  18.145  0.0197 -0.2795  0.0845
53613W        W96530  11.617   5.726  16.324  0.1102  0.1749  0.1632
53614W        W96531  15.137   6.828  16.546  0.0369  0.0911 -0.2958
53615W        W96532  13.400   2.750  18.407 -0.0909 -0.0558  0.2116
53616W        W96533  12.269   5.247  19.516 -0.1065 -0.0449 -0.0861
53617W        W96534  11.819   3.763  16.501 -0.1228  0.0565 -0.1636
53618W        W96535  14.317   6.546  18.406 -0.1147 -0.3549 -0.0404
53619W        W96536  12.934   2.912  16.354 -0.1219  0.0094 -0.2044
53620W        W96537  10.455   5.796  19.274 -0.0606  0.2828 -0.0995
53621W        W96538  11.985   3.804  19.037 -0.1499  0.0702  0.1337
53622W        W96539  13.187   5.032  15.333 -0.1326 -0.4281  0.0657
53623W        W96540  11.258   3.955  17.516  0.2690 -0.0016 -0.2090
53624W        W96541  10.295   5.320  19.262  0.2187  0.2011  0.0485
53625W        W96542  13.348   6.427  19.287  0.2670 -0.1770 -0.0275
53626W        W96543  10.514   3.211  15.392  0.0027 -0.0242  0.1073
53627W        W96544  13.503   3.128  17.599 -0.1573  0.0177 -0.0572
53628W        W96545  13.534   4.878  17.323 -0.1059  0.0568 -0.0196
53629W        W96546  13.372   5.871  15.974 -0.3563 -0.0826  0.2867
53630W        W96547  14.916   6.027  16.587 -0.1017 -0.2423 -0.3069
53631W        W96548  14.804   8.312  18.262 -0.4712 -0.0617 -0.1471
53632W        W96549  11.802   5.639  16.733  0.1354  0.0247  0.0707
53633W        W96550  14.042   7.275  16.019 -0.1645  0.0583 -0.1262
53634W        W96551  15.313   6.846  17.033 -0.3351 -0.2164 -0.0752
53635W        W96552  11.798   4.673  17.947  0.0546  0.1188  0.1013
53636W        W96553  14.329   3.977  16.592  0.2776  0.0184  0.0084
53637W        W96554  11.139   6.816  17.454 -0.1983 -0.2624  0.0994
53638W        W96555  15.747   6.493  18.106  0.0232 -0.0330  0.2173
53639W        W96556  14.959   3.218  18.365 -0.1853 -0.0788 -0.1501
53640W        W96557  12.357   6.415  15.938 -0.1768  0.0564  0.1032
53641W        W96558  14.356   5.660  19.222  0.0974  0.1187 -0.3227
53642W        W96559  14.200   5.663  18.182 -0.0598  0.4214  0.1872
53643W        W96560  12.612   5.906  21.543 -0.4059 -0.0983  0.1427
53644W        W96561   8.904   4.790  16.349 -0.1476  0.2739  0.1279
53645W        W96562  13.107   5.187  19.135  0.1621 -0.1402 -0.0474
53646W        W96563  13.881   5.872  15.789 -0.0352  0.0420 -0.0290
53647W        W96564  13.113   4.535  17.375 -0.2617 -0.4566 -0.2372
53648W        W96565  13.179   6.965  16.183 -0.2097  0.0719  0.2904
53649W        W96566  14.401   2.535  19.385  0.0664 -0.3123  0.1654
53650W        W96567  13.205   6.932  19.509  0.0441 -0.2268  0.1023
53651W        W96568  13.613   3.824  17.083  0.0240  0.0718 -0.1019
53652W        W96569  13.202   1.916  17.208 -0.0282 -0.2521 -0.2952
53653W        W96570  13.322   3.010  15.682  0.1414  0.0182  0.0322
53654W        W96571  11.643   3.982  19.377 -0.0269  0.1053  0.0300
53655W        W96572   9.689   3.331  16.181  0.2732 -0.1551 -0.1979
53656W        W96573  10.230   6.923  16.032  0.1546  0.0172  0.1384
53657W        W96574  12.507   6.421  16.981 -0.1184 -0.1801  0.2936
53658W        W96575  10.854   2.620  19.451  0.3244  0.0715  0.2156
53659W        W96576  10.275   6.034  19.729  0.1857 -0.2428  0.1007
53660W        W96577  12.273   4.892  16.900 -0.0304  0.3040 -0.0759
53661W        W96578  11.220   2.723  15.670  0.1527 -0.2579 -0.1782
53662W        W96579  14.503   7.716  16.653  0.0053  0.1609 -0.0805
53663W        W96580  12.066   4.012  19.774 -0.0263 -0.1567 -0.1055
53664W        W96581  11.147   4.068  19.088  0.0205  0.1388 -0.0843
53665W        W96582  13.527   6.297  17.985  0.2241 -0.0983  0.1279
53666W        W96583  13.994   6.551  17.982  0.1061 -0.2530  0.2256
53667W        W96584  11.330   3.244  15.625  0.1138  0.1944  0.1916
53668W        W96585  13.709   6.541  18.439 -0.0540  0.0358 -0.0639
53669W        W96586  12.934   6.039  16.790 -0.1135 -0.4149  0.0025
53670W        W96587  12.798   2.724  17.776 -0.0654 -0.2561 -0.0318
53671W        W96588  12.040   1.553  17.903  0.0209 -0.1941  0.3345
53672W        W96589  11.009   4.453  15.920 -0.0104 -0.0256  0.2798
53673W        W96590  14.278   2.602  18.242  0.1927 -0.1297  0.1884
53674W        W96591  12.071   6.199  17.036 -0.0185 -0.1396 -0.2872
53675W        W96592  12.694   6.451  15.512  0.1050  0.3302 -0.0812
53676W        W96593  11.660   5.188  18.606  0.1101  0.0357 -0.2852
53677W        W96594  14.100   6.689  19.785  0.1821 -0.1965 -0.1875
53678W        W96595  11.757   4.117  17.253 -0.0824  0.1312 -0.1106
53679W        W96596  14.059   3.759  15.679  0.4041  0.0948  0.0059
53680W        W96597  13.845   6.244  19.641  0.0070  0.1807  0.0638
53681W        W96598  14.498   5.298  16.779  0.0799 -0.4150  0.5573
53682W        W96599  14.416   3.760  18.581 -0.0273  0.0812  0.0641
53683W        W96600  13.710   3.632  17.542  0.0900 -0.0491 -0.2054
53684W        W96601  10.924   4.439  19.411  0.0302  0.3772  0.0976
53685W        W96602  11.670   6.930  19.669 -0.1591 -0.0392  0.1275
53686W        W96603  13.296   7.022  18.988 -0.0783 -0.2747  0.0587
53687W        W96604  13.168   1.936  19.510 -0.2371 -0.1146  0.1286
53688W        W96605  13.997   3.070  17.622  0.0768  0.2793  0.0845
53689W        W96606  13.648   6.805  15.278  0.0572  0.0224  0.0692
53690W        W96607  12.278   3.804  16.309  0.1160 -0.1101 -0.1698
53691W        W96608  12.844   4.514  16.092  0.0350  0.0690  0.1295
53692W        W96609  11.358   5.346  19.171 -0.0301 -0.0838 -0.2312
53693W        W96610  13.324   6.512  16.087  0.0698 -0.0374  0.1654
53694W        W96611  13.322   4.518  19.892  0.2272 -0.1667 -0.3577
53695W        W96612  11.246   5.471  18.270 -0.2243  0.0875  0.0556
53696W        W96613  14.178   6.304  15.726  0.2739  0.1065 -0.1301
53697W        W96614  11.566   7.925  16.393 -0.1382 -0.1174  0.1771
53698W        W96615  12.852   6.227  18.285  0.0989 -0.5421 -0.0531
53699W        W96616  12.525   6.711  19.237  0.1612 -0.0976  0.2070
53700W        W96617  15.368   3.525  18.066  0.5129  0.1038 -0.3232
53701W        W96618  10.765   2.961  18.676  0.0673  0.2537  0.1064
53702W        W96619  12.058   3.825  17.954 -0.2728 -0.0737  0.1949
53703W        W96620  14.401   3.494  17.573 -0.0838 -0.2121 -0.1407
53704W        W96621  13.883   1.842  17.836 -0.3686 -0.0318 -0.2455
53705W        W96622  11.356   4.348  17.969 -0.1029 -0.3562 -0.3798
53706W        W96623  12.475   3.211  16.233 -0.3441  0.1126  0.0005
53707W        W96624  12.838   7.797  17.114  0.2441 -0.1055 -0.0778
53708W        W96625  13.207   6.856  20.249  0.2448  0.0258  0.1314
53709W        W96626  11.761   5.298  23.709 -0.2396  0.3665  0.2080
53710W        W96627  12.452   3.707  19.850  0.0578 -0.1573  0.2656
53711W        W96628  14.012   2.750  19.111 -0.0110  0.1054 -0.1233
53712W        W96629  15.186   4.189  19.499 -0.0724 -0.1661  0.1971
53713W        W96630  10.940   1.502  22.152 -0.0346  0.1869  0.1023
53714W        W96631  13.964   5.855  20.571  0.1500 -0.2023  0.1038
53715W        W96632  13.365   3.720  21.686  0.0138  0.1695  0.3938
53716W        W96633  12.352   3.644  21.413 -0.3544 -0.1633 -0.1763
53717W        W96634  14.213   6.338  23.627 -0.2759  0.0944 -0.5219
53718W        W96635  12.723   4.582  19.259  0.1388 -0.4194 -0.0870
53719W        W96636  11.139   3.643  20.650  0.1785  0.0067  0.3499
53720W        W96637  12.323   4.784  21.942  0.3953 -0.0992  0.1603
53721W        W96638  12.065   3.776  21.752  0.0634  0.0165  0.2412
53722W        W96639  11.706   1.968  21.378  0.2463 -0.0329 -0.6060
53723W        W96640  13.675   3.856  26.137  0.1431 -0.0361 -0.2774
53724W        W96641  13.557   2.960  19.494  0.0297  0.0611 -0.1036
53725W        W96642  11.789   4.079  22.771 -0.0644 -0.1763  0.0922
53726W        W96643  13.023   3.444  20.041 -0.5142 -0.0939 -0.2365
53727W        W96644  11.312   4.848  20.653  0.4577 -0.1002 -0.0346
53728W        W96645  12.480   3.558  22.454  0.0813 -0.3630 -0.1109
53729W        W96646  13.166   2.536  24.089  0.1501  0.1711 -0.2119
53730W        W96647  13.518   6.380  22.043 -0.2004  0.3084  0.0286
53731W        W96648  13.202   3.370  18.924 -0.0332 -0.3234  0.3749
53732W        W96649  10.668   3.263  21.432 -0.1618 -0.3374  0.0610
53733W        W96650  12.764   6.824  21.377 -0.1545 -0.5167  0.2414
53734W        W96651  13.968   2.966  22.984  0.1634 -0.2502 -0.1649
53735W        W96652  13.204   4.002  21.248 -0.2605 -0.1859 -0.2366
53736W        W96653  10.860   6.673  23.169 -0.1636  0.0350  0.1487
53737W        W96654  13.383   6.197  21.451  0.1598 -0.2377  0.1489
53738W        W96655  13.167   3.123  22.801 -0.0637 -0.0086  0.1470
53739W        W96656  10.194   6.915  20.786 -0.0469 -0.2123  0.3064
53740W        W96657   9.997   6.480  20.549  0.0449 -0.0155 -0.0391
53741W        W96658  10.360   5.225  20.295 -0.3026 -0.0504 -0.2536
53742W        W96659  15.279   4.706  19.130 -0.1294 -0.0578  0.0342
53743W        W96660  14.833   5.318  23.139 -0.0956 -0.1019  0.0316
53744W        W96661  11.450   7.218  24.448 -0.0759  0.3060 -0.2326
53745W        W96662   9.719   6.285  21.078  0.2533 -0.1823  0.1112
53746W        W96663  11.488   6.747  24.617 -0.2253 -0.1665  0.2517
53747W        W96664  10.867   5.440  24.327 -0.1353  0.1371  0.0299
53748W        W96665  12.626   5.956  22.098  0.0176 -0.2252  0.0702
53749W        W96666  13.895   3.747  20.496  0.1681 -0.4006 -0.0843
53750W        W96667  12.520   5.371  19.081  0.3369 -0.0400  0.2421
53751W        W96668  11.476   6.657  20.810  0.0081 -0.2670  0.0038
53752W        W96669  11.751   5.400  22.581 -0.3867  0.1571  0.1670
53753W        W96670  11.415   6.324  20.406  0.0017  0.0840 -0.1748
53754W        W96671  14.866   4.802  23.115 -0.4537  0.1545  0.1965
53755W        W96672  12.071   5.556  17.600 -0.1238  0.4200 -0.2198
53756W        W96673  14.876   4.711  19.454 -0.0433 -0.2748  0.2085
53757W        W96674  12.543   4.815  22.452 -0.0922 -0.2082 -0.1394
53758W        W96675  14.743   3.410  19.404 -0.0867 -0.0691  0.0637
53759W        W96676  14.128   2.719  20.003  0.2132 -0.0230 -0.2663
53760W        W96677  11.337   5.824  21.884 -0.2873 -0.2301 -0.0057
53761W        W96678  13.034   2.709  22.541  0.3164 -0.1862  0.2509
53762W        W96679  14.692   5.614  24.649 -0.0885 -0.2800  0.0842
53763W        W96680  12.008   4.025  20.249 -0.0587 -0.2807 -0.0772
53764W        W96681  12.336   6.132  22.491  0.0041  0.1407  0.1726
53765W        W96682  11.457   6.122  22.720  0.2459  0.2783  0.3269
53766W        W96683  10.804   3.820  21.957  0.1734  0.2183  0.0881
53767W        W96684  15.347   6.342  19.210  0.0504  0.2649  0.5670
53768W        W96685  15.358   7.600  20.927 -0.0851 -0.3567 -0.1928
53769W        W96686  11.255   5.802  19.738 -0.2417 -0.2865 -0.1466
53770W        W96687  12.117   4.534  22.810 -0.3683  0.0686  0.0440
53771W        W96688  10.513   4.227  22.251  0.1219 -0.4875  0.1595
53772W        W96689  12.569   4.347  24.491  0.3771 -0.0305  0.1310
53773W        W96690  12.313   4.595  21.500  0.3834  0.2844 -0.0495
53774W        W96691  13.995   4.681  23.739  0.1995  0.1544  0.0244
53775W        W96692  13.117   6.266  24.529  0.1080 -0.1240  0.1982
53776W        W96693  14.678   3.380  22.658 -0.2055 -0.1007  0.1604
53777W        W96694  11.915   4.424  22.331 -0.0778 -0.1747  0.1899
53778W        W96695  14.632   6.480  22.712 -0.0570  0.1134 -0.0811
53779W        W96696  15.469   7.226  18.065  0.2389 -0.0290 -0.2306
53780W        W96697  13.210   2.380  21.346  0.4432  0.3170 -0.2181
53781W        W96698  13.934   3.032  24.360  0.2142 -0.4817  0.1665
53782W        W96699  11.884   7.137  20.050  0.3381 -0.1432  0.2400
53783W        W96700  13.658   4.835  17.789  0.3059  0.0924  0.0257
53784W        W96701  13.325   4.752  22.637 -0.4668 -0.0296  0.0062
53785W        W96702  14.151   4.964  20.564  0.2597 -0.0102  0.1226
53786W        W96703  11.116   6.306  21.045  0.1699 -0.0812  0.1927
53787W        W96704  12.196   2.144  23.022  0.1654  0.1077 -0.1016
53788W        W96705  12.755   7.165  22.622 -0.0933  0.1602  0.1078
53789W        W96706   9.857   7.132  17.825 -0.0644  0.4419  0.0496
53790W        W96707  10.195   5.174  22.237  0.2935  0.3012 -0.3057
53791W        W96708  13.316   4.795  21.752  0.1210  0.0018 -0.0700
53792W        W96709  10.801   2.359  21.869  0.3357  0.0209  0.1672
53793W        W96710  11.242   4.242  22.945 -0.0288 -0.3942 -0.0474
53794W        W96711  14.223   2.863  21.858 -0.0239 -0.5513  0.1923
53795W        W96712  11.497   3.428  20.929 -0.1309 -0.1881  0.0945
53796W        W96713  14.688   2.142  22.438  0.0060 -0.3139 -0.3701
53797W        W96714  11.637   5.497  19.515  0.2016 -0.3631  0.0269
53798W        W96715  13.007   7.076  20.656 -0.1600 -0.2342  0.0093
53799W        W96716  15.188   4.450  18.687 -0.1777 -0.1097  0.3006
53800W        W96717  11.982   7.850  20.413 -0.0168 -0.0552  0.0299
53801W        W96718   9.960   4.939  20.943  0.1212 -0.0667  0.4758
53802W        W96719  13.544   3.194  20.825 -0.0573  0.0592  0.0358
53803W        W96720  11.408   4.668  23.171 -0.1877  0.1277 -0.1023
53804W        W96721  10.954   2.984  22.398 -0.0877  0.2484  0.1580
53805W        W96722  14.291   5.094  23.722 -0.2631  0.1777 -0.1328
53806W        W96723  11.772   4.843  19.009 -0.1194  0.0222  0.0422
53807W        W96724  14.408   4.720  22.465  0.4075 -0.0566  0.1029
53808W        W96725  13.252   4.600  21.305  0.0336  0.2994 -0.1223
53809W        W96726  11.267   5.492  20.514  0.0902  0.2181 -0.2252
53810W        W96727  14.394   3.541  23.586 -0.0391 -0.2808  0.3588
53811W        W96728  13.338   8.602  19.616  0.0690 -0.0618 -0.0992
53812W        W96729  14.094   5.551  23.537 -0.0599  0.0204  0.0342
53813W        W96730  12.058   5.570  20.819 -0.0581  0.0055 -0.3726
53814W        W96731  12.759   4.242  23.778  0.2173  0.1219  0.0023
53815W        W96732  11.457   3.267  20.412 -0.1833 -0.1416  0.3778
53816W        W96733  11.464   7.707  20.727  0.1878 -0.1632 -0.2129
53817W        W96734  11.243   7.065  22.335 -0.3665  0.1088 -0.1243
53818W        W96735  13.127   4.789  19.437 -0.2909 -0.0762 -0.0883
53819W        W96736  14.413   7.483  20.659 -0.0600  0.0262  0.1061
53820W        W96737  12.518   5.637  20.011  0.1102  0.1791  0.1054
53821W        W96738  11.680   4.109  21.725 -0.1944 -0.1335 -0.3159
53822W        W96739  13.478   4.299  21.711 -0.0483 -0.1176 -0.2512
53823W        W96740  14.856   4.947  21.440  0.1946 -0.1805  0.2745
53824W        W96741  14.579   4.290  22.853  0.2314  0.0431 -0.0560
53825W        W96742  10.379   3.207  18.290 -0.2753  0.0897  0.1001
53826W        W96743  12.490   7.615  20.682  0.0212 -0.0261  0.0500
53827W        W96744  11.031   5.193  17.836  0.0233 -0.2663 -0.1368
53828W        W96745  11.282   4.925  22.277  0.1170 -0.2709 -0.1439
53829W        W96746  11.784   7.899  21.123 -0.3060 -0.1253  0.1236
53830W        W96747  14.383   3.467  21.239  0.1668  0.0882  0.0054
53831W        W96748   8.536   4.742  24.708 -0.3419  0.2175  0.0453
53832W        W96749  12.665   4.460  23.170 -0.1635  0.1812 -0.0518
53833W        W96750  12.983   2.495  17.247  0.0759 -0.1469 -0.1339
53834W        W96751  11.094   4.695  22.763 -0.3663 -0.0369 -0.1863
53835W        W96752  13.467   2.360  19.398 -0.0620 -0.1314  0.1662
53836W        W96753  13.632   4.946  19.713 -0.1017 -0.2278 -0.2959
53837W        W96754  12.122   5.702  21.994  0.0122 -0.1697 -0.2553
53838W        W96755  14.370   4.192  22.428  0.1349 -0.2777  0.2588
53839W        W96756  11.516   4.424  19.028 -0.1822 -0.2499  0.1515
53840W        W96757  14.297   3.771  20.184  0.0459  0.0517 -0.2423
53841W        W96758  12.038   3.379  23.668 -0.0256 -0.0658 -0.2340
53842W        W96759  11.634   5.849  20.501 -0.0248 -0.0082 -0.0164
53843W        W96760  12.113   5.800  20.282  0.3687 -0.1827 -0.0541
53844W        W96761  13.374   4.235  18.861 -0.0359 -0.0915  0.1344
53845W        W96762  14.295   4.366  20.102  0.1184 -0.0624 -0.0384
53846W        W96763   9.297   4.902  21.994 -0.0819 -0.0091  0.2591
53847W        W96764  12.634   6.448  23.149 -0.0940  0.0919 -0.5047
53848W        W96765  13.680   8.246  21.026  0.0675  0.2557 -0.0697
53849W        W96766  11.611   4.414  21.038 -0.1046  0.4452  0.0648
53850W        W96767  10.747   5.398  18.556 -0.0562 -0.2011  0.0560
53851W        W96768  13.960   3.631  20.967  0.1088 -0.1249 -0.1195
53852W        W96769  10.997   7.012  19.305  0.2123 -0.0750  0.1598
53853W        W96770  13.453   4.783  24.181  0.0335 -0.1396  0.1447
53854W        W96771  12.842   3.675  21.506 -0.2282 -0.0747  0.0905
53855W        W96772  12.880   2.249  23.756 -0.0145  0.0198  0.0653
53856W        W96773  13.842   5.544  24.045 -0.0697 -0.2101  0.0019
53857W        W96774  14.153   4.091  19.642  0.3448 -0.1601 -0.0462
53858W        W96775  13.095   4.519  22.189 -0.1389  0.0104 -0.1539
53859W        W96776  12.964   3.818  18.127  0.0287  0.1252  0.2433
53860W        W96777  11.497   4.300  20.565  0.2348 -0.1751  0.3438
53861W        W96778  10.730   4.363  23.632 -0.1309 -0.1832 -0.0949
53862W        W96779  10.774   7.348  21.489 -0.0432  0.0816 -0.1851
53863W        W96780  14.571   5.177  22.760  0.0426  0.0488  0.1744
53864W        W96781  13.257   3.106  21.723  0.0467 -0.0207 -0.3511
53865W        W96782  13.134   3.161  23.506  0.4391 -0.0756  0.0829
53866W        W96783  10.463   3.545  17.871  0.0402  0.2124  0.1558
53867W        W96784  13.423   5.598  19.089 -0.0799 -0.1493  0.0418
53868W        W96785  11.914   5.321  19.092  0.1063 -0.0477 -0.1060
53869W        W96786  13.630   2.479  20.044 -0.1677  0.2775  0.1661
53870W        W96787  11.824   4.969  19.514  0.0164  0.1173  0.0638
53871W        W96788  13.700   3.910  21.348 -0.0269 -0.0711 -0.1984
53872W        W96789  11.901   5.773  22.885  0.0611 -0.0478  0.0662
53873W        W96790  12.934   5.060  21.507 -0.0143  0.2673 -0.4767
53874W        W96791  14.166   3.031  23.508 -0.0363  0.1538  0.0784
53875W        W96792  11.500   5.529  21.471  0.0052 -0.2060  0.0340
53876W        W96793  11.743   4.488  19.496 -0.0942 -0.0054 -0.1130
53877W        W96794  11.479   1.751  21.053 -0.1460  0.3258  0.0065
53878W        W96795  14.103   3.336  22.058  0.0486 -0.0387 -0.1208
53879W        W96796  12.612   4.328  17.394  0.2813  0.4228 -0.2237
53880W        W96797  12.428   3.278  22.038 -0.0026  0.1409 -0.0880
53881W        W96798  11.755   4.650  21.610 -0.1431 -0.1598  0.2921
53882W        W96799  10.116   4.583  23.144  0.2113  0.1439  0.3429
53883W        W96800  14.370   4.148  23.713  0.0803  0.1867  0.0015
53884W        W96801  14.452   3.459  19.801  0.2008  0.0005  0.0054
53885W        W96802  14.855   6.179  20.820  0.0307 -0.2889  0.3417
53886W        W96803  12.969   5.997  20.316 -0.0722 -0.0459  0.1127
53887W        W96804  11.875   3.542  20.638  0.1089 -0.0463  0.0701
53888W        W96805  14.994   4.563  24.479 -0.2954  0.2393  0.4750
53889W        W96806  13.834   4.457  19.856 -0.2322 -0.0293 -0.0056
53890W        W96807  11.016   6.706  20.189 -0.0778 -0.0989 -0.3797
53891W        W96808  12.408   5.198  22.754  0.0195 -0.0927 -0.1727
53892W        W96809  12.374   4.579  20.883 -0.1794 -0.1353 -0.2764
53893W        W96810  11.163   6.866  19.748  0.1793  0.1065 -0.0407
53894W        W96811  12.414   2.963  23.303 -0.0771 -0.0935 -0.1691
53895W        W96812  14.145   1.996  22.795  0.2636 -0.2939  0.2212
53896W        W96813  12.593   4.346  22.687 -0.1456 -0.2759  0.3386
53897W        W96814  13.293   3.111  22.278  0.1532  0.2399  0.2773
53898W        W96815  12.460   3.823  22.004  0.1905 -0.6731 -0.2091
53899W        W96816  12.844   5.308  23.121  0.0147  0.2301  0.0548
53900W        W96817  13.403   6.585  21.043  0.2338 -0.2232 -0.2308
53901W        W96818  13.206   5.625  24.501 -0.1994 -0.0148 -0.1094
53902W        W96819  11.777   2.397  22.951 -0.2720  0.2154  0.0459
53903W        W96820  14.151   6.665  20.370  0.2116  0.3194  0.0670
53904W        W96821  12.938   4.559  25.003  0.0034  0.0383  0.1597
53905W        W96822  10.102   6.615  20.124 -0.0350  0.0932  0.0723
53906W        W96823  10.490   4.425  21.781 -0.0362  0.1411 -0.0375
53907W        W96824  10.990   5.490  20.089  0.3060  0.1767  0.1176
53908W        W96825  12.232   5.140  23.507 -0.2179 -0.2408 -0.0926
53909W        W96826  10.548   5.968  21.927 -0.0796 -0.0032 -0.0161
53910W        W96827  14.090   6.622  19.323 -0.0389 -0.0001  0.1584
53911W        W96828  10.548   6.381  19.869 -0.1823 -0.2696  0.1187
53912W        W96829  13.783   2.997  21.918 -0.3779  0.2140  0.3030
53913W        W96830  14.484   4.572  17.942 -0.3924  0.1388  0.1971
53914W        W96831  13.907   4.052  20.128  0.0361 -0.2043 -0.0472
53915W        W96832  15.797   3.391  25.547 -0.1763 -0.2913  0.0765
53916W        W96833  12.718   4.918  21.102  0.1264  0.2672 -0.0937
53917W        W96834  10.950   2.617  23.827 -0.0756  0.0755 -0.0433
53918W        W96835  12.774   3.980  22.418 -0.1040  0.3807  0.1452
53919W        W96836  15.071   2.581  21.400  0.3855 -0.2187  0.0326
53920W        W96837   9.970   3.805  21.402 -0.1995  0.1477 -0.0921
53921W        W96838  13.534   5.913  24.029 -0.1068  0.0951  0.1378
53922W        W96839  13.103   4.180  23.275  0.2345 -0.1285  0.2330
53923W        W96840  15.343   4.914  21.426 -0.1851  0.1505 -0.4232
53924W        W96841  10.715   3.712  17.500 -0.2477  0.0594  0.5025
53925W        W96842  12.617   5.677  22.829  0.0123  0.0767 -0.1429
53926W        W96843  13.735   3.047  19.961 -0.0162  0.2756 -0.3496
53927W        W96844  10.989   4.917  19.216 -0.1689 -0.1952  0.2540
53928W        W96845  14.744   7.389  23.406  0.2515  0.2325  0.0973
53929W        W96846  11.927   4.451  19.936  0.0489  0.3418  0.1652
53930W        W96847  14.051   5.113  20.030 -0.1371 -0.0994 -0.1565
53931W        W96848  13.642   5.163  19.299  0.0011 -0.0391  0.0773
53932W        W96849  12.551   5.750  20.511  0.2099 -0.1615 -0.0380
53933W        W96850  12.419   4.874  23.129  0.2729  0.0302  0.0316
53934W        W96851  12.730   3.047  20.736  0.1031  0.0853  0.1656
53935W        W96852  15.073   3.715  20.906  0.4309  0.2590  0.1218
53936W        W96853  13.840   4.867  22.576  0.2758  0.2075 -0.0833
53937W        W96854  14.042   2.730  22.362  0.1531 -0.4938 -0.3047
53938W        W96855  12.097   4.300  21.860  0.1148  0.1862  0.0831
53939W        W96856  12.558   4.680  23.904  0.1612 -0.0239  0.3357
53940W        W96857  13.080   5.696  22.235 -0.1599 -0.2563 -0.0763
53941W        W96858  14.759   5.198  19.983  0.1602 -0.0598 -0.0688
53942W        W96859  15.482   1.009  24.076 -0.0572 -0.2242 -0.1722
53943W        W96860  15.381   3.825  22.069 -0.2363  0.0810 -0.0627
53944W        W96861  14.312   3.692  19.179 -0.3171  0.2334 -0.0897
53945W        W96862  10.999   4.978  20.057  0.1638  0.0705 -0.0883
53946W        W96863  14.036   5.042  24.207 -0.1881  0.1097 -0.0434
53947W        W96864  12.400   3.298  20.277 -0.4509  0.0192 -0.2221
53948W        W96865  13.720   4.176  25.668  0.0919 -0.0104  0.1143
53949W        W96866  12.746   7.944  20.417  0.0030  0.0516  0.2600
53950W        W96867  12.850   6.135  20.841 -0.1024  0.1375 -0.1305
53951W        W96868  12.792   1.521  19.173 -0.2047  0.1159 -0.0310
53952W        W96869  11.577   3.028  21.513  0.3333  0.1832 -0.0218
53953W        W96870  11.478   6.774  23.481 -0.0430  0.1635  0.2760
53954W        W96871  12.150   4.179  19.302  0.0153  0.0961 -0.1383
53955W        W96872  12.766   5.104  19.567 -0.0431 -0.0638 -0.4244
53956W        W96873  13.091   6.062  21.908  0.1326 -0.0588  0.1080
53957W        W96874  13.432   4.618  26.535 -0.0630  0.1426  0.2422
53958W        W96875  13.064   2.878  18.728  0.0539  0.3207 -0.1478
53959W        W96876  15.206   4.360  22.229 -0.0926 -0.2301  0.0014
53960W        W96877  13.104   5.687  20.777  0.1001 -0.1029 -0.0619
53961W        W96878  14.147   4.395  21.567  0.3574 -0.0589 -0.2037
53962W        W96879  11.401   5.609  23.570 -0.0168  0.0534 -0.1973
53963W        W96880  11.314   5.108  23.350 -0.2299 -0.0397 -0.1771
53964W        W96881  11.516   5.924  23.205  0.2247  0.0675  0.1378
53965W        W96882  12.316   6.078  23.069  0.1878  0.0285  0.2724
53966W        W96883  15.326   4.933  23.286 -0.0632  0.1369  0.0984
53967W        W96884  12.376   6.295  19.518 -0.5061 -0.1837  0.2029
53968W        W96885  15.018   4.613  23.587 -0.0917 -0.3799  0.2151
53969W        W96886  12.374   6.220  20.005  0.0235  0.1193  0.0867
53970W        W96887  12.227   3.119  22.483  0.2799  0.1675  0.0021
53971W        W96888  12.990   6.794  22.234  0.3384 -0.0891 -0.0360
53972W        W96889  13.880   5.597  22.107  0.0728 -0.2164  0.0628
53973W        W96890  12.245   4.907  19.190  0.2100 -0.0478 -0.1739
53974W        W96891  10.513   4.292  24.102  0.1508  0.0105 -0.1867
53975W        W96892  12.738   5.855  23.330 -0.1148  0.0382  0.1748
53976W        W96893  12.940   6.348  21.343 -0.2827  0.1178  0.0011
53977W        W96894  12.805   4.641  19.797  0.0101 -0.0684  0.2276
53978W        W96895  11.426   3.830  17.999 -0.0968  0.2870 -0.2187
53979W        W96896  11.884   4.447  25.660  0.1120  0.1748  0.4030
53980W        W96897  11.452   5.550  20.945 -0.0787  0.1182 -0.0453
53981W        W96898  11.134   7.566  20.369 -0.1539  0.4457 -0.1214
53982W        W96899  11.875   6.509  21.054  0.1571 -0.3143  0.0076
53983W        W96900  14.863   6.506  19.047  0.0283 -0.0512  0.0356
53984W        W96901  12.495   6.449  20.965 -0.3854 -0.0727 -0.0169
53985W        W96902  13.890   3.261  20.448 -0.2789 -0.4409  0.0925
53986W        W96903  12.254   6.213  21.818  0.2766  0.0872 -0.0478
53987W        W96904  11.126   6.191  19.368  0.3401 -0.0238  0.0598
53988W        W96905  13.017   3.813  19.719 -0.0495 -0.0803  0.1569
53989W        W96906  11.252   6.516  22.278 -0.0166  0.1040 -0.2791
53990W        W96907  12.994   6.287  27.455 -0.4146  0.0491 -0.2008
53991W        W96908  15.001   3.993  22.806  0.1066  0.1541  0.0202
53992W        W96909  15.355   5.420  22.456  0.1341 -0.0141 -0.1834
53993W        W96910  15.124   4.733  21.855 -0.2418  0.1368 -0.2668
53994W        W96911  13.035   5.649  21.723 -0.0984 -0.2628 -0.1278
53995W        W96912  11.510   4.453  21.997  0.0238  0.0789 -0.2729
53996W        W96913  12.204   4.504  18.429 -0.0162  0.0560  0.0537
53997W        W96914  12.053   4.227  21.353  0.1114 -0.0861 -0.4710
53998W        W96915  12.571   3.252  23.698  0.0776  0.2158  0.4567
53999W        W96916  10.667   6.642  22.100  0.0350  0.0313 -0.0092
54000W        W96917  14.812   6.460  22.148  0.1375  0.2263  0.0842
54001W        W96918  10.789   3.992  20.730 -0.2210 -0.2267  0.1356
54002W        W96919  13.078   3.084  19.285  0.1653 -0.1158 -0.0994
54003W        W96920  13.761   3.294  21.532  0.0103  0.1372 -0.1073
54004W        W96921  13.046   5.837  21.253  0.0876 -0.2002  0.0863
54005W        W96922  12.747   4.540  21.730  0.0857 -0.1913  0.1389
54006W        W96923  11.624   6.849  20.410 -0.1379  0.1534 -0.0188
54007W        W96924  10.529   4.861  22.800 -0.4562 -0.0917 -0.1097
54008W        W96925  14.716   7.275  22.344  0.1761  0.0174  0.0480
54009W        W96926  12.067   2.935  20.705 -0.0337 -0.0081  0.0208
54010W        W96927  14.565   3.887  20.830 -0.0149  0.1874  0.2284
54011W        W96928  12.514   3.308  22.905 -0.0255  0.0475  0.0387
54012W        W96929  14.212   2.208  22.329 -0.0324 -0.2044 -0.1093
54013W        W96930  11.942   4.781  21.185  0.0769 -0.0323  0.0813
54014W        W96931  12.936   4.549  20.756  0.2294 -0.1078  0.1295
54015W        W96932  11.706   5.430  22.019  0.0751  0.2603 -0.0710
54016W        W96933  11.833   4.657  20.710 -0.1323  0.0195  0.0794
54017W        W96934  15.196   2.641  17.531  0.2823 -0.1692  0.2004
54018W        W96935  15.063   5.056  22.757  0.2618 -0.0223 -0.1608
54019W        W96936  12.306   3.369  18.094  0.1769 -0.1232 -0.0451
54020W        W96937  13.023   5.130  24.495  0.1431 -0.1327  0.3070
54021W        W96938  10.353   2.359  21.011  0.1675 -0.1090 -0.0796
54022W        W96939  12.855   2.796  21.401  0.0389  0.1069  0.0429
54023W        W96940  12.628   4.218  20.451  0.0723 -0.1394  0.1591
54024W        W96941  12.744   3.954  23.021 -0.0411  0.2539 -0.2220
54025W        W96942  14.129   7.320  22.568 -0.0625 -0.0729  0.3630
54026W        W96943  11.538   5.178  19.874 -0.0369  0.0148  0.0410
54027W        W96944  13.131   5.072  18.519 -0.3101  0.1658 -0.2315
54028W        W96945  13.430   5.357  21.815  0.0709 -0.2936  0.0660
54029W        W96946  12.884   7.342  19.636  0.1194  0.0279 -0.3525
54030W        W96947  13.076   4.146  20.108  0.3564 -0.1329  0.0819
54031W        W96948  12.037   6.093  20.735  0.0708 -0.1643 -0.1944
54032W        W96949  12.029   3.636  22.771  0.4981  0.0026 -0.0643
54033W        W96950  13.159   6.664  21.740  0.1572  0.1657 -0.0180
54034W        W96951  14.887   5.807  20.335  0.0614 -0.0102  0.1579
54035W        W96952  13.715   4.099  19.197 -0.0666  0.1417  0.1274
54036W        W96953  14.326   5.253  21.422 -0.3133  0.1983  0.0268
54037W        W96954  11.257   7.188  21.470 -0.2325  0.0023  0.0413
54038W        W96955  14.512   4.014  21.379  0.1120 -0.2446 -0.1228
54039W        W96956  15.411   3.229  22.219  0.1349  0.0538 -0.4265
54040W        W96957  13.303   8.449  19.112  0.0945  0.2093 -0.1562
54041W        W96958  12.343   2.507  23.311  0.0390  0.0870 -0.0528
54042W        W96959  14.438   5.053  23.215  0.0346 -0.2191 -0.2361
54043W        W96960  12.649   7.230  22.150  0.2608 -0.0426  0.3681
54044W        W96961  10.266   3.723  18.405 -0.2174  0.2391 -0.1542
54045W        W96962  11.718   5.379  23.175  0.5928  0.1641  0.0816
54046W        W96963  12.701   5.495  21.309 -0.0214 -0.0835  0.3580
54047W        W96964  11.661   7.552  20.042 -0.1670 -0.0475  0.0408
54048W        W96965  13.428   6.078  20.953 -0.2365 -0.1700  0.1450
54049W        W96966  13.494   4.116  22.496 -0.2377 -0.1568 -0.0459
54050W        W96967  14.763   4.538  20.023  0.1562 -0.0441  0.2143
54051W        W96968  13.542   4.253  22.984 -0.0555 -0.0126 -0.1045
54052W        W96969  13.175   2.694  19.705  0.2029 -0.1583 -0.1769
54053W        W96970  12.352   2.493  20.707 -0.1297 -0.0512  0.0660
54054W        W96971  11.720   3.977  22.198  0.0052 -0.2767  0.0164
54055W        W96972  11.728   5.280  20.495  0.0632  0.0996  0.1992
54056W        W96973  12.291   5.832  19.269 -0.1579  0.2456 -0.0339
54057W        W96974  11.426   6.347  21.835 -0.0926 -0.0358  0.1961
54058W        W96975  12.389   4.016  24.917  0.1963  0.1135  0.1694
54059W        W96976  11.238   4.827  21.760  0.0448 -0.0174 -0.2449
54060W        W96977  12.509   5.045  20.020  0.1129  0.1747 -0.2188
54061W        W96978  10.641   3.936  21.538  0.1090 -0.2119  0.0071
54062W        W96979  13.097   8.116  18.549  0.0314 -0.1959  0.2569
54063W        W96980  11.098   2.625  20.904 -0.2088  0.2328 -0.1689
54064W        W96981  10.676   2.880  20.981  0.2564 -0.0308 -0.1651
54065W        W96982  13.267   7.263  19.915  0.0078 -0.1143 -0.0454
54066W        W96983  13.471   5.847  20.407 -0.0694 -0.2808 -0.1879
54067W        W96984  13.001   2.039  20.555 -0.1681 -0.0595  0.0741
54068W        W96985  16.575   5.814  25.940 -0.3526  0.0333  0.0542
54069W        W96986   9.938   5.415  20.823 -0.1502 -0.2503  0.2573
54070W        W96987  12.100   2.265  21.577 -0.0174 -0.2696  0.1935
54071W        W96988  11.449   5.089  22.823  0.2097  0.2083 -0.1181
54072W        W96989  10.076   2.374  20.197 -0.6634  0.0132 -0.1073
54073W        W96990  13.919   4.365  22.686  0.0575 -0.2377  0.3487
54074W        W96991  14.302   6.631  21.362  0.0050 -0.2283  0.1387
54075W        W96992  14.569   7.434  19.894  0.1893 -0.0717  0.2652
54076W        W96993  13.332   6.310  22.669 -0.3227 -0.0455  0.4137
54077W        W96994  11.916   5.155  21.657  0.0467  0.1467 -0.1585
54078W        W96995  10.523   2.403  20.075 -0.4273 -0.0068 -0.3213
54079W        W96996  13.907   4.805  18.909  0.4574 -0.2275 -0.0582
54080W        W96997  11.170   3.961  21.545  0.0021 -0.0363  0.0788
54081W        W96998  13.195   4.769  18.071  0.3256 -0.4201 -0.0429
54082W        W96999  13.758   1.229  21.309  0.1193  0.1861 -0.2153
54083W        W97000  10.727   5.336  19.025 -0.1758 -0.0400  0.1589
54084W        W97001   9.899   1.277  24.937 -0.3339 -0.0787  0.1923
54085W        W97002  10.254   4.177  23.530 -0.0896 -0.0436 -0.2339
54086W        W97003  14.292   6.550  24.109  0.2354  0.0830 -0.2196
54087W        W97004  11.098   1.790  19.717  0.1279 -0.0458  0.2606
54088W        W97005  13.593   4.532  19.390  0.0597  0.0376  0.2156
54089W        W97006  15.182   6.834  19.444  0.0887 -0.0855  0.0398
54090W        W97007  11.459   4.982  21.158  0.2530  0.4065 -0.1593
54091W        W97008  13.136   4.085  20.783  0.1226  0.2579  0.0121
54092W        W97009  14.419   2.905  21.302 -0.1303 -0.2630 -0.3205
54093W        W97010  12.277   6.681  21.484 -0.0239  0.0179  0.2091
54094W        W97011  14.300   5.414  24.351 -0.0133 -0.1905  0.2861
54095W        W97012  12.903   6.422  19.580  0.1329 -0.2528  0.3291
54096W        W97013  15.490   4.489  21.266 -0.3111  0.1679  0.0391
54097W        W97014  14.266   7.200  22.106  0.0651 -0.2336  0.1642
54098W        W97015  13.118   7.191  23.316  0.4090  0.3026 -0.1667
54099W        W97016  12.241   7.150  21.300 -0.0032  0.1904 -0.4691
54100W        W97017  14.611   6.023  23.672  0.0014  0.0001  0.3246
54101W        W97018  13.367   3.427  21.278  0.0373  0.1329  0.0225
54102W        W97019  11.743   3.633  17.583  0.3431  0.2535  0.0432
54103W        W97020  12.859   3.765  20.384  0.1953 -0.0001 -0.2656
54104W        W97021  14.711   4.476  22.079  0.1873  0.3574  0.1238
54105W        W97022  12.124   2.504  22.563  0.3316 -0.1480 -0.3183
54106W        W97023  13.836   3.569  19.996 -0.1128  0.2606  0.1631
54107W        W97024  11.356   4.406  21.464  0.0309  0.2528 -0.0107
54108W        W97025  13.092   3.411  20.749  0.1334  0.2206 -0.1779
54109W        W97026  11.907   5.231  26.077  0.2459 -0.2911  0.2142
54110W        W97027  11.928   5.697  25.222 -0.3247  0.0639  0.1316
54111W        W97028  13.116   3.499  24.865 -0.0980  0.0944 -0.0510
54112W        W97029  15.741   5.121  25.075 -0.1213 -0.2914  0.0195
54113W        W97030  13.204   1.464  24.901 -0.1087 -0.0061  0.4267
54114W        W97031  14.036   5.620  25.590  0.0376 -0.2532 -0.1815
54115W        W97032   9.629   2.450  24.189 -0.0741  0.0403 -0.1633
54116W        W97033  14.623   4.815  26.369  0.0741 -0.0604 -0.2446
54117W        W97034  13.782   4.323  27.421  0.0109 -0.2157 -0.0460
54118W        W97035  15.159   4.986  26.549 -0.1628  0.0964  0.2662
54119W        W97036  13.804   1.572  27.122 -0.1267  0.4271  0.2981
54120W        W97037  11.979   7.071  27.738  0.0381  0.2223  0.0295
54121W        W97038  11.167   2.326  25.238  0.2802 -0.1615  0.4702
54122W        W97039  10.840   1.682  24.232  0.0863 -0.0298 -0.0134
54123W        W97040  14.010   4.107  27.023  0.0466  0.1131  0.2495
54124W        W97041  13.445   6.422  23.548  0.1423 -0.0354 -0.2312
54125W        W97042  11.131   2.651  25.758 -0.2519 -0.0073  0.2153
54126W        W97043  12.194   5.655  22.463 -0.0471 -0.2471  0.1550
54127W        W97044  13.511   7.560  24.005  0.2089 -0.0471  0.0854
54128W        W97045  12.830   2.947  25.275  0.2496  0.0408 -0.0180
54129W        W97046  12.944   4.367  26.545  0.1605 -0.0876  0.0856
54130W        W97047  12.048   6.943  24.552 -0.1346  0.2395 -0.0888
54131W        W97048  11.626   4.560  22.738  0.2188  0.0855  0.5305
54132W        W97049  11.242   3.742  24.705 -0.0477  0.0282  0.2152
54133W        W97050  11.129   1.973  26.473  0.0686  0.0887  0.4580
54134W        W97051  11.728   4.303  27.226  0.1466  0.1962  0.0417
54135W        W97052  14.032   4.780  24.954  0.2289  0.2963 -0.0862
54136W        W97053  11.366   6.473  26.558 -0.0877 -0.0438  0.0818
54137W        W97054  13.965   4.771  25.796 -0.8261 -0.2672 -0.1297
54138W        W97055  16.603   5.733  24.051  0.1215 -0.1059  0.0856
54139W        W97056   9.552   4.598  25.448 -0.1313  0.3740  0.0477
54140W        W97057  10.442   7.130  24.889 -0.2000 -0.2189 -0.0985
54141W        W97058  13.697   5.756  24.980  0.1401  0.1402  0.0482
54142W        W97059  14.295   3.699  25.071  0.1998  0.1827  0.4109
54143W        W97060  16.542   4.804  27.217  0.0465  0.0535  0.0648
54144W        W97061  14.210   7.138  29.366 -0.0573  0.2718 -0.1782
54145W        W97062  11.282   5.494  24.649  0.0234  0.2589  0.0232
54146W        W97063  12.785   4.148  30.582 -0.3357  0.2490 -0.3614
54147W        W97064  13.845   7.368  28.948 -0.2929 -0.0151 -0.0299
54148W        W97065  14.389   3.734  26.044  0.0004  0.0977  0.1186
54149W        W97066  12.972   6.796  23.647  0.0452  0.2061  0.1293
54150W        W97067  12.383   6.664  23.652  0.0003 -0.0718  0.0621
54151W        W97068  14.388   4.892  25.493 -0.0497  0.0251 -0.0644
54152W        W97069  13.078   4.707  26.867 -0.0358 -0.0998  0.0332
54153W        W97070  12.890   5.091  24.961  0.0010 -0.1879  0.0221
54154W        W97071  15.179   4.896  27.038 -0.2179  0.0073  0.1039
54155W        W97072  12.336   5.725  24.804  0.2307  0.2202  0.1290
54156W        W97073  13.515   6.118  23.135  0.2990 -0.2638  0.3210
54157W        W97074  11.535   5.956  25.217  0.2758  0.1600 -0.0879
54158W        W97075  14.385   3.969  24.650 -0.2935  0.3048  0.2006
54159W        W97076  13.038   2.351  24.602  0.0394  0.1325  0.0822
54160W        W97077  12.262   6.519  25.018  0.2086 -0.3452  0.0527
54161W        W97078  11.957   2.935  27.281 -0.2412 -0.0647  0.3910
54162W        W97079  15.230   5.607  26.376 -0.0048  0.4601 -0.1840
54163W        W97080  12.808   5.489  23.652 -0.1414 -0.0402  0.1958
54164W        W97081  12.021   2.787  24.989 -0.0765 -0.1621 -0.3739
54165W        W97082  11.772   6.107  26.588  0.3036 -0.3202  0.1881
54166W        W97083  12.225   3.103  24.538  0.0138  0.5491 -0.1981
54167W        W97084  15.626   4.923  25.630  0.1523 -0.0689  0.0911
54168W        W97085  13.994   3.820  23.595  0.0045  0.0515 -0.0371
54169W        W97086  13.985   7.510  24.249  0.0287  0.4278  0.4566
54170W        W97087  12.412   4.193  25.886  0.4436  0.0215  0.4131
54171W        W97088  11.277   5.417  25.707  0.2865  0.1730  0.0991
54172W        W97089  10.889   3.438  26.567  0.3978  0.4204 -0.3082
54173W        W97090  10.928   3.640  25.121  0.1363  0.1091 -0.2188
54174W        W97091  13.047   7.613  28.747 -0.0581  0.3190  0.1795
54175W        W97092  11.113   5.731  26.122  0.1938  0.3477 -0.1278
54176W        W97093  14.196   3.463  27.399 -0.2181 -0.0698 -0.1374
54177W        W97094  12.019   4.857  25.468  0.0548 -0.1854  0.0444
54178W        W97095  14.242   5.630  24.869 -0.0821  0.3923  0.1114
54179W        W97096  12.539   6.556  22.253 -0.0177 -0.1085  0.2460
54180W        W97097  14.894   2.147  23.887 -0.2365  0.0477 -0.0286
54181W        W97098  13.715   2.449  27.666  0.3962 -0.0405  0.1004
54182W        W97099  11.195   3.482  21.674 -0.0177 -0.1805  0.0441
54183W        W97100  13.626   4.920  26.173 -0.0759 -0.1725  0.0407
54184W        W97101  16.068   4.949  26.644  0.1399 -0.1560  0.0492
54185W        W97102  13.244   4.920  25.302 -0.1278  0.3415  0.0670
54186W        W97103  10.999   6.407  25.299 -0.1032 -0.1050 -0.1360
54187W        W97104  11.094   3.290  25.459  0.1006 -0.0510 -0.0375
54188W        W97105  14.120   4.691  26.268 -0.1865 -0.0123  0.4289
54189W        W97106  11.061   6.770  24.318  0.1626  0.0285  0.2439
54190W        W97107  13.233   6.340  23.981  0.3227  0.1999 -0.0054
54191W        W97108  11.912   4.562  25.037 -0.1361  0.0109  0.0214
54192W        W97109  11.273   2.745  26.182  0.4158 -0.2438 -0.0066
54193W        W97110  10.747   5.598  25.782 -0.1050 -0.0412 -0.2560
54194W        W97111  12.048   2.027  24.975 -0.0521 -0.1804  0.0006
54195W        W97112  10.679   2.470  24.342  0.0395 -0.4130 -0.0819
54196W        W97113  14.069   1.695  27.553 -0.0350  0.0083 -0.1439
54197W        W97114  11.366   4.645  24.867 -0.1917 -0.0670  0.1499
54198W        W97115  14.668   7.103  24.689 -0.2312  0.1391  0.0418
54199W        W97116  13.918   2.602  24.741  0.3768 -0.3370 -0.0059
54200W        W97117  13.682   4.815  23.015  0.4571 -0.0439 -0.0598
54201W        W97118  10.929   3.105  25.919 -0.2283 -0.1499  0.1533
54202W        W97119  11.554   2.829  24.776  0.1796 -0.0706 -0.3465
54203W        W97120  12.310   6.185  26.814  0.0204 -0.0730 -0.1017
54204W        W97121  11.901   6.448  25.357  0.1148  0.5536 -0.0334
54205W        W97122  11.686   7.313  25.858 -0.0798 -0.0846  0.1007
54206W        W97123  11.898   2.936  22.820  0.1014  0.1399  0.2086
54207W        W97124  13.242   1.863  27.073  0.0601 -0.2714  0.1277
54208W        W97125  10.997   5.975  24.979  0.1879  0.0185  0.0441
54209W        W97126  11.416   4.491  26.000  0.0092  0.1970 -0.0238
54210W        W97127  13.540   2.693  26.288  0.0281 -0.0217 -0.0741
54211W        W97128  13.596   6.240  24.395  0.0923 -0.3177  0.2530
54212W        W97129  14.025   6.271  26.471  0.0086 -0.0631  0.4178
54213W        W97130  14.183   8.136  25.817  0.1361 -0.3581  0.1101
54214W        W97131  10.733   3.252  27.712  0.1176  0.3364 -0.0230
54215W        W97132  10.188   3.199  23.612 -0.0305  0.1228 -0.0976
54216W        W97133  11.705   7.160  26.831  0.2185  0.0791  0.2952
54217W        W97134  14.117   7.072  24.790 -0.0704  0.1982 -0.0492
54218W        W97135  12.672   4.796  24.522  0.2242  0.1833 -0.3884
54219W        W97136  12.764   7.068  26.322 -0.0648  0.0746  0.1891
54220W        W97137  14.191   4.324  24.910  0.1273  0.3027 -0.1589
54221W        W97138   9.043   4.618  25.540 -0.1323 -0.0908 -0.1432
54222W        W97139  12.902   2.089  28.179 -0.4346 -0.0997  0.0960
54223W        W97140  12.623   4.594  26.124 -0.1113  0.1532 -0.3098
54224W        W97141  15.639   5.794  24.671  0.0220 -0.1180 -0.0070
54225W        W97142  11.449   2.983  22.583 -0.2319 -0.1082 -0.0677
54226W        W97143  12.120   7.234  25.662 -0.4596  0.0440 -0.2508
54227W        W97144  12.308   6.998  22.843  0.1752  0.0912  0.0440
54228W        W97145  11.580   4.233  24.744  0.0756  0.0420 -0.2905
54229W        W97146  11.178   7.361  23.737 -0.2907  0.2116 -0.0079
54230W        W97147  16.508   3.966  27.465  0.0121  0.2992  0.0959
54231W        W97148  13.526   3.665  26.724  0.0198 -0.1189  0.4060
54232W        W97149  12.803   5.046  26.206 -0.2111 -0.1965  0.2289
54233W        W97150  12.415   5.195  24.686 -0.1349 -0.3889 -0.2357
54234W        W97151   9.839   4.924  25.827 -0.0702  0.3200  0.0206
54235W        W97152  12.549   2.290  27.483  0.0887  0.0623  0.1774
54236W        W97153  13.747   1.596  23.728 -0.1309  0.2726 -0.0053
54237W        W97154  13.349   4.560  27.296  0.0680 -0.1392 -0.0178
54238W        W97155  12.660   5.860  26.544 -0.1594  0.4207 -0.1606
54239W        W97156  15.582   2.020  24.113  0.2498 -0.0647  0.1749
54240W        W97157  12.198   4.660  24.355 -0.2108  0.1367 -0.2748
54241W        W97158  13.575   7.028  25.666 -0.0500  0.0231 -0.1100
54242W        W97159  12.014   5.144  25.047 -0.2127 -0.0479  0.0079
54243W        W97160  13.163   5.977  25.403 -0.0619 -0.0806  0.1469
54244W        W97161  11.707   4.854  23.477 -0.1291  0.3992 -0.0890
54245W        W97162  13.019   7.774  25.288  0.0707  0.1071  0.2165
54246W        W97163   9.482   5.129  26.242  0.2371 -0.0354  0.2234
54247W        W97164  13.273   5.719  29.466  0.0167 -0.2441  0.2097
54248W        W97165  12.534   4.823  25.385 -0.3020 -0.0398 -0.0259
54249W        W97166  14.304   4.719  26.727  0.0499  0.3618  0.3115
54250W        W97167  12.257   4.061  23.015  0.1518 -0.0309  0.3355
54251W        W97168  13.524   2.496  25.789 -0.1958  0.0495 -0.2354
54252W        W97169  11.586   5.075  24.874  0.0209 -0.1042  0.0465
54253W        W97170  13.699   4.378  26.130 -0.0385  0.0705 -0.0259
54254W        W97171  12.570   5.756  25.612  0.3303  0.0877  0.0983
54255W        W97172  12.655   3.437  27.040 -0.1520 -0.3605  0.0521
54256W        W97173  14.500   3.712  27.065  0.3358 -0.1403 -0.3363
54257W        W97174  13.085   4.258  22.746 -0.2720 -0.0750 -0.0664
54258W        W97175  12.219   5.164  27.808  0.1930  0.3433 -0.0464
54259W        W97176  10.953   4.392  21.873 -0.0834 -0.1437  0.2608
54260W        W97177  11.771   2.802  26.108  0.3650 -0.1552 -0.1164
54261W        W97178  10.483   3.242  26.695 -0.2341  0.2583 -0.2221
54262W        W97179  10.755   4.025  24.651  0.0098 -0.0911 -0.2143
54263W        W97180  12.149   8.266  28.646 -0.0582 -0.2459  0.2236
54264W        W97181  12.742   5.825  25.133 -0.0560  0.2412  0.2378
54265W        W97182  11.460   4.871  26.397 -0.0611  0.1485  0.3155
54266W        W97183  12.899   4.058  25.138  0.0181  0.2367 -0.1482
54267W        W97184  11.323   7.540  22.315  0.0888  0.1589  0.0352
54268W        W97185  12.327   5.610  23.680  0.0560  0.2764 -0.1099
54269W        W97186  13.665   3.240  27.014 -0.0084  0.1765 -0.1806
54270W        W97187  11.806   7.877  26.083 -0.1967  0.0941 -0.1086
54271W        W97188  12.264   5.459  23.136 -0.1718  0.1938  0.0508
54272W        W97189  12.797   4.515  25.686  0.1865 -0.0661  0.0089
54273W        W97190  12.477   6.808  24.670  0.0651  0.4165  0.1373
54274W        W97191  12.895   1.861  29.201 -0.0751 -0.0765 -0.1307
54275W        W97192  10.291   5.920  24.563  0.1739 -0.1495  0.3628
54276W        W97193  13.870   4.686  27.030  0.0419 -0.0614  0.0739
54277W        W97194  11.036   3.530  22.770  0.2003  0.0850 -0.1220
54278W        W97195  14.100   4.117  25.992 -0.0184 -0.0909 -0.0782
54279W        W97196  12.992   3.546  22.834  0.4081  0.1897  0.0655
54280W        W97197  12.509   2.215  24.725  0.1928  0.2337  0.0846
54281W        W97198  13.702   1.737  26.662  0.1541 -0.0874  0.1508
54282W        W97199   9.900   7.221  25.659 -0.2663 -0.3650  0.2245
54283W        W97200  13.338   4.088  27.400 -0.1445 -0.4398  0.0603
54284W        W97201  13.798   5.106  22.063 -0.0448  0.1763  0.0549
54285W        W97202  12.599   5.977  26.023 -0.2249 -0.0492  0.0785
54286W        W97203  13.951   4.880  27.482  0.2298 -0.0268 -0.2204
54287W        W97204  10.743   3.547  24.659 -0.2818  0.2629 -0.0473
54288W        W97205  13.634   5.562  26.770  0.0162  0.0295  0.2465
54289W        W97206  12.718   2.703  23.654  0.0620 -0.0502 -0.3710
54290W        W97207  10.870   5.161  25.558  0.0235 -0.1885 -0.3269
54291W        W97208  11.660   7.433  26.341 -0.1887 -0.1080 -0.2487
54292W        W97209  11.072   5.935  25.595  0.1879 -0.0710 -0.1369
54293W        W97210  11.090   5.156  24.998 -0.0261  0.2657  0.2200
54294W        W97211  12.594   5.861  27.482  0.0661 -0.0557 -0.0335
54295W        W97212  13.613   6.398  25.520 -0.1348  0.0446 -0.0799
54296W        W97213  11.901   2.726  25.659  0.0105  0.2993  0.0076
54297W        W97214  11.434   5.307  26.237 -0.0641  0.0836  0.1548
54298W        W97215  13.564   6.880  23.419  0.2963 -0.0534  0.4056
54299W        W97216  13.969   4.184  27.919 -0.2743  0.0454  0.0038
54300W        W97217  13.468   5.081  26.972 -0.1746 -0.2251 -0.0920
54301W        W97218  10.004   5.504  27.952  0.0126  0.1166  0.3728
54302W        W97219  11.870   2.275  26.124 -0.1597 -0.1506 -0.2114
54303W        W97220  15.408   6.298  25.125  0.1892  0.2478 -0.0549
54304W        W97221  12.955   3.916  27.837 -0.2370 -0.0732  0.2155
54305W        W97222  11.397   3.985  24.344  0.1219  0.1721 -0.0947
54306W        W97223  10.383   2.861  25.114  0.0606  0.2794 -0.0127
54307W        W97224  11.971   6.105  24.943 -0.0819  0.1851 -0.0376
54308W        W97225  10.568   2.168  25.878  0.1087 -0.0042  0.2829
54309W        W97226  10.988   6.708  26.215  0.1655 -0.4717 -0.0760
54310W        W97227  12.369   6.199  23.585 -0.0864  0.3610 -0.0794
54311W        W97228  10.601   5.744  26.760 -0.0437 -0.2214 -0.1587
54312W        W97229  14.007   1.140  23.110 -0.1384 -0.3388  0.0071
54313W        W97230  13.405   3.896  24.939  0.0459 -0.3807 -0.1932
54314W        W97231  13.096   3.322  25.348 -0.0766  0.1272 -0.2418
54315W        W97232  15.799   2.088  25.014  0.1090 -0.1012  0.1134
54316W        W97233  13.783   4.970  25.389  0.1138 -0.0607  0.0638
54317W        W97234  12.922   3.313  27.995 -0.2554  0.0717  0.0999
54318W        W97235  11.298   3.904  25.380  0.0994  0.0001 -0.5155
54319W        W97236  15.309   5.530  24.934  0.0422  0.1528 -0.0583
54320W        W97237  10.636   3.816  26.152 -0.0305 -0.0548 -0.0361
54321W        W97238  12.276   7.569  27.050  0.2123 -0.3350 -0.2380
54322W        W97239  10.735   5.134  28.285 -0.3369 -0.2256 -0.2866
54323W        W97240  13.377   3.169  26.466  0.1580 -0.0331  0.1759
54324W        W97241  10.866   4.599  25.563  0.0212  0.0490 -0.1931
54325W        W97242  13.902   6.440  27.280 -0.2585 -0.0707 -0.2931
54326W        W97243  14.436   4.469  25.781  0.4545  0.0445 -0.2150
54327W        W97244  12.757   5.939  24.466  0.1431 -0.1363  0.1932
54328W        W97245  13.415   2.849  27.254  0.0115  0.1293  0.0709
54329W        W97246  13.472   6.736  24.660  0.0175  0.2702  0.2903
54330W        W97247  14.878   3.472  25.797  0.0246 -0.1059 -0.0940
54331W        W97248  12.371   6.334  24.526  0.1139 -0.2786  0.0978
54332W        W97249  13.559   6.228  24.972  0.0721  0.0164 -0.4267
54333W        W97250  10.808   3.651  25.657 -0.1863 -0.1180 -0.2626
54334W        W97251  15.188   5.527  27.376  0.1650 -0.4593  0.1395
54335W        W97252  12.644   3.579  25.097  0.1224 -0.0849  0.2024
54336W        W97253  12.708   3.365  26.467  0.1194 -0.0109 -0.1520
54337W        W97254  14.498   4.203  26.985 -0.0390  0.0124 -0.2706
54338W        W97255  11.020   2.471  27.073 -0.0483  0.1069 -0.2674
54339W        W97256  10.544   3.182  25.491  0.0349  0.1430 -0.2213
54340W        W97257  13.941   6.523  27.815 -0.3208  0.0675  0.2071
54341W        W97258  14.846   4.092  27.403  0.0664 -0.0021 -0.3144
54342W        W97259  12.487   3.117  26.074  0.2746  0.0016  0.1029
54343W        W97260  12.751   6.878  25.675  0.1557 -0.1502  0.2022
54344W        W97261  13.789   3.914  24.570  0.1403  0.1246  0.1319
54345W        W97262  12.449   5.113  24.172  0.0886 -0.1120 -0.0983
54346W        W97263  13.526   7.593  25.990 -0.1800  0.1525  0.1007
54347W        W97264  11.396   2.807  25.339  0.1343  0.1215 -0.3256
54348W        W97265  13.497   4.303  28.331 -0.0184 -0.1038  0.0729
54349W        W97266  13.648   7.271  21.579  0.1331  0.0111 -0.0174
54350W        W97267  12.990   5.635  25.750 -0.4355 -0.0359 -0.1164
54351W        W97268  11.147   3.141  23.827  0.0284  0.0465 -0.0887
54352W        W97269  11.445   2.891  23.145 -0.1927  0.2149  0.0508
54353W        W97270  12.209   5.461  27.321 -0.1063  0.2334 -0.0608
54354W        W97271  11.347   2.071  22.699 -0.1949 -0.1204 -0.2844
54355W        W97272  10.532   3.789  24.233  0.1624 -0.0710  0.4064
54356W        W97273  13.167   4.984  27.976 -0.0584 -0.0105  0.2536
54357W        W97274  14.349   5.759  28.038  0.1377 -0.1589 -0.5148
54358W        W97275  13.880   2.837  25.608 -0.1367 -0.2908  0.0613
54359W        W97276  15.955   3.757  25.136 -0.0608  0.1034 -0.0258
54360W        W97277  12.188   5.608  26.666 -0.1217  0.1890 -0.0072
54361W        W97278  11.937   2.220  23.407 -0.2867 -0.2367 -0.3039
54362W        W97279  10.956   7.998  26.888 -0.2544 -0.2382  0.0700
54363W        W97280  10.915   6.877  25.178 -0.1547 -0.0943  0.3668
54364W        W97281  12.922   6.670  24.315  0.1105 -0.0853  0.2111
54365W        W97282  12.507   4.291  28.022 -0.1661  0.3147  0.1729
54366W        W97283  14.006   2.024  28.297  0.0648 -0.0258  0.0996
54367W        W97284  11.745   5.699  26.187 -0.2457 -0.1410 -0.0232
54368W        W97285  13.528   4.319  24.729 -0.1163  0.0990 -0.1232
54369W        W97286  13.513   6.233  29.852  0.0806  0.0426 -0.1460
54370W        W97287  13.750   5.224  25.807  0.2297  0.0685  0.2261
54371W        W97288  13.196   6.677  25.590  0.0648 -0.0565  0.0818
54372W        W97289  13.768   4.714  24.530 -0.1161  0.0752 -0.1762
54373W        W97290  11.941   4.806  26.484 -0.0662  0.1246 -0.1722
54374W        W97291  10.823   5.880  27.224  0.0898  0.0591 -0.0300
54375W        W97292  13.925   2.937  26.155  0.4646 -0.0974  0.2682
54376W        W97293  13.579   4.521  23.482  0.2712  0.1237 -0.2532
54377W        W97294  12.189   1.507  24.271 -0.1980 -0.1875  0.4604
54378W        W97295  12.555   4.308  22.172 -0.1716 -0.2422 -0.0543
54379W        W97296  10.092   6.650  27.453 -0.0818  0.1241  0.0818
54380W        W97297  11.114   5.918  27.602  0.1065 -0.1998 -0.0164
54381W        W97298  12.232   5.510  24.314  0.0573  0.0974  0.2968
54382W        W97299  13.977   6.589  24.468 -0.0453  0.0891 -0.0616
54383W        W97300  14.046   7.659  22.992  0.1117 -0.1712 -0.0685
54384W        W97301  12.752   6.596  26.910 -0.0384 -0.1646 -0.0156
54385W        W97302  12.738   3.754  24.621  0.1231  0.0243  0.2166
54386W        W97303  10.323   6.501  27.817  0.3505 -0.1767 -0.0544
54387W        W97304  10.479   7.776  23.338 -0.0386  0.0422 -0.1724
54388W        W97305  12.794   5.520  24.721 -0.2875  0.0777 -0.2262
54389W        W97306  10.594   6.541  24.237 -0.1054 -0.3365  0.1021
54390W        W97307  15.009   8.381  26.943 -0.1890  0.1342 -0.0516
54391W        W97308  12.278   3.963  24.406 -0.0939  0.2706 -0.0647
54392W        W97309  14.777   2.536  25.879 -0.2702  0.1770  0.0150
54393W        W97310  14.715   3.078  25.495  0.1024  0.1100  0.1072
54394W        W97311  13.249   2.221  28.650  0.1922 -0.1928  0.1420
54395W        W97312  12.925   2.337  25.571  0.2437  0.2193  0.0276
54396W        W97313  12.606   1.887  22.979  0.1218  0.1948  0.1149
54397W        W97314  10.207   5.529  27.045 -0.0004 -0.1137  0.1517
54398W        W97315  17.237   3.324  27.502 -0.0286 -0.1814  0.2789
54399W        W97316  10.415   4.930  25.606 -0.3015 -0.2585 -0.0483
54400W        W97317  13.576   5.447  25.382 -0.0028 -0.2240  0.2937
54401W        W97318  10.501   3.320  25.009 -0.0806  0.0069 -0.1820
54402W        W97319  13.265   5.130  26.517  0.0282  0.0467  0.0201
54403W        W97320  13.063   4.370  28.073 -0.1429  0.3124  0.1216
54404W        W97321  12.551   5.408  21.813 -0.1212 -0.0045  0.1215
54405W        W97322  11.806   5.312  25.527  0.0506 -0.3762 -0.2689
54406W        W97323  12.231   8.624  26.762 -0.0442 -0.0128 -0.2215
54407W        W97324  13.269   5.258  26.023 -0.0119 -0.2844  0.2687
54408W        W97325  12.840   6.981  28.791 -0.0849  0.1437 -0.3262
54409W        W97326  11.669   2.998  23.805 -0.0074  0.1047  0.0017
54410W        W97327  15.090   2.169  25.560 -0.0844 -0.0391 -0.0049
54411W        W97328  12.210   3.292  27.538 -0.0613 -0.1129  0.0673
54412W        W97329  15.891   5.326  25.505 -0.0804 -0.4048 -0.3049
54413W        W97330  12.148   4.778  26.024 -0.2505  0.4581 -0.0354
54414W        W97331  12.413   2.596  25.241  0.1689 -0.1765 -0.3300
54415W        W97332  13.573   5.102  24.949  0.1938  0.1481  0.0120
54416W        W97333  12.528   2.115  25.253  0.2873 -0.2180 -0.2029
54417W        W97334  11.878   6.436  24.554 -0.1836  0.0963  0.0849
54418W        W97335  16.988   4.630  27.030  0.2645 -0.0268  0.1693
54419W        W97336  13.561   4.013  23.438 -0.1704 -0.3539 -0.1547
54420W        W97337  13.513   6.839  25.205 -0.0694 -0.3747  0.0213
54421W        W97338  11.942   3.307  21.151 -0.0362  0.0692  0.1572
54422W        W97339  12.944   3.712  25.683 -0.0881  0.0851  0.1269
54423W        W97340  12.441   4.601  24.925  0.0691  0.0808  0.1264
54424W        W97341  10.863   2.880  25.174  0.0545 -0.0304  0.3676
54425W        W97342  12.787   5.347  26.601 -0.1530 -0.1069  0.1433
54426W        W97343  11.878   3.185  25.284 -0.0875 -0.0808  0.2319
54427W        W97344  13.224   5.922  23.536  0.1865 -0.0569 -0.0451
54428W        W97345  15.524   3.763  25.346 -0.0135 -0.0245  0.0970
54429W        W97346  13.393   6.919  23.911  0.0939 -0.0642 -0.1072
54430W        W97347  12.503   5.402  25.178 -0.1605 -0.1130  0.4272
54431W        W97348  13.527   5.725  25.836 -0.0949 -0.2031  0.0983
54432W        W97349  10.872   4.286  26.837 -0.0775 -0.0217  0.1296
54433W        W97350  13.225   7.211  24.323 -0.0051  0.1018  0.0602
54434W        W97351  15.384   4.189  27.475  0.1184  0.0898  0.0867
54435W        W97352  11.952   3.222  24.184 -0.3356 -0.3418  0.1076
54436W        W97353  11.874   4.070  25.327 -0.1071  0.0593 -0.0443
54437W        W97354  10.526   6.587  25.280 -0.1091 -0.1186  0.0234
54438W        W97355  12.703   6.213  25.553 -0.0283  0.1605 -0.4156
54439W        W97356  12.255   5.167  26.398  0.0649 -0.2295  0.0455
54440W        W97357  10.150   6.653  22.200 -0.0301  0.0082  0.0036
54441W        W97358  12.344   1.771  26.505 -0.0928 -0.0728 -0.2138
54442W        W97359  13.209   7.795  28.079 -0.0403  0.2416  0.0247
54443W        W97360  13.755   6.072  27.846  0.0132 -0.1057  0.0251
54444W        W97361  11.699   3.965  23.808 -0.0452 -0.2154  0.0366
54445W        W97362  13.348   4.111  26.378 -0.1419 -0.0453  0.1079
54446W        W97363  13.782   5.978  23.595  0.1195  0.1938 -0.1437
54447W        W97364  10.889   7.789  24.653  0.0734  0.0141  0.1464
54448W        W97365  13.260   5.939  27.752  0.1913  0.0327 -0.2226
54449W        W97366  11.386   4.386  25.445  0.1609 -0.3603  0.1690
54450W        W97367  14.038   6.699  25.488 -0.1310  0.1574  0.2049
54451W        W97368  12.375   2.352  23.834  0.1432  0.1250  0.1480
54452W        W97369  15.797   3.905  26.314  0.2215 -0.1052  0.3401
54453W        W97370  13.033   3.908  26.729  0.1846  0.1280  0.1775
54454W        W97371  11.296   5.456  27.796 -0.1410 -0.0273  0.2131
54455W        W97372  12.705   3.750  23.655 -0.2202 -0.3844 -0.0699
54456W        W97373  10.079   4.598  25.424 -0.1217  0.0855  0.1099
54457W        W97374  13.656   7.388  23.486  0.2987 -0.0410 -0.1318
54458W        W97375  12.981   4.895  27.491  0.3148  0.2724  0.3035
54459W        W97376  12.232   2.192  28.448  0.4059 -0.0049 -0.2480
54460W        W97377  12.472   3.735  26.699 -0.0917 -0.0297  0.0173
54461W        W97378  12.475   3.893  25.444  0.0032  0.0125  0.2037
54462W        W97379  15.198   4.663  25.709  0.0471 -0.1077 -0.2183
54463W        W97380  12.076   3.600  25.300 -0.1376 -0.0262 -0.1272
54464W        W97381  10.607   2.992  23.240 -0.2995 -0.0277  0.1000
54465W        W97382  12.719   4.958  23.502 -0.1941 -0.1612 -0.0308
54466W        W97383  15.406   5.341  25.448  0.3396 -0.0399 -0.2091
54467W        W97384  12.196   3.754  23.934  0.1099  0.0574 -0.0390
54468W        W97385  12.782   6.111  26.991 -0.0642  0.1894 -0.0362
54469W        W97386  13.049   3.641  23.347 -0.0860  0.4462 -0.1530
54470W        W97387  14.141   3.908  26.464  0.0275 -0.0451 -0.0479
54471W        W97388  11.934   4.111  26.644 -0.2532 -0.1520 -0.0224
54472W        W97389  12.006   2.354  22.134 -0.0957  0.0401  0.0236
54473W        W97390  15.540   4.632  25.263  0.0026 -0.3023  0.0059
54474W        W97391  11.422   6.102  26.215  0.0440 -0.2650  0.2356
54475W        W97392  13.311   5.461  23.933  0.0237  0.1484 -0.0950
54476W        W97393  11.532   3.905  26.329 -0.1573  0.1898 -0.2373
54477W        W97394  12.617   7.154  27.005  0.0507 -0.0146 -0.0884
54478W        W97395  10.318   3.542  25.803  0.0119  0.0164  0.0301
54479W        W97396  13.918   3.698  25.569 -0.0880 -0.1288  0.2146
54480W        W97397  12.559   4.789  26.647  0.0403 -0.0173 -0.1797
54481W        W97398  14.049   5.754  22.597  0.0632  0.0367  0.1662
54482W        W97399  13.102   2.737  25.925  0.2825  0.2154  0.0624
54483W        W97400  12.536   3.408  25.561 -0.1052  0.1379 -0.1165
54484W        W97401  12.396   3.606  26.220  0.1664 -0.3274 -0.2367
54485W        W97402  10.155   5.559  26.527 -0.2077 -0.2287  0.1305
54486W        W97403  16.521   6.289  24.178  0.4036  0.0230  0.1903
54487W        W97404  12.836   3.952  24.176 -0.0171  0.1576 -0.0915
54488W        W97405  13.422   2.576  24.838  0.1402 -0.3132 -0.0694
54489W        W97406  11.950   6.772  25.742  0.0240 -0.1318  0.0142
54490W        W97407  11.297   5.674  26.983 -0.0700 -0.0271  0.0509
54491W        W97408  12.093   4.315  24.677  0.0381 -0.0137 -0.2270
54492W        W97409  14.198   5.794  29.404  0.2578  0.4124 -0.1863
54493W        W97410  13.984   7.553  25.033 -0.2239 -0.2416 -0.1331
54494W        W97411  14.428   7.209  28.850 -0.1508  0.1935  0.2056
54495W        W97412  13.415   4.289  24.238  0.3908 -0.1126  0.2387
54496W        W97413  13.924   5.305  24.681  0.0940 -0.1803  0.4202
54497W        W97414  12.410   6.859  26.048  0.2866  0.2310 -0.1366
54498W        W97415  14.894   7.973  29.477 -0.3411  0.1531  0.0535
54499W        W97416  14.346   5.243  26.682  0.0933 -0.1251  0.1846
54500W        W97417  13.085   5.446  25.238 -0.2483  0.2191 -0.4778
54501W        W97418  11.761   0.735  26.766 -0.0635 -0.0578 -0.1511
54502W        W97419  11.615   4.922  25.818 -0.2667  0.1231  0.2028
54503W        W97420  11.497   6.746  26.137  0.1584  0.2434 -0.0986
54504W        W97421  15.778   3.097  26.687 -0.1288  0.0710 -0.3930
54505W        W97422  11.586   1.455  27.157  0.0306 -0.1966  0.1448
54506W        W97423  10.565   2.018  23.097 -0.0157 -0.3567 -0.1853
54507W        W97424  12.121   7.351  26.558 -0.2185 -0.0760  0.0741
54508W        W97425  12.690   6.770  25.166 -0.1729  0.2311  0.1800
54509W        W97426  11.933   5.912  29.658 -0.0915  0.2414  0.0302
54510W        W97427  11.667   4.077  29.668  0.1385 -0.1973 -0.1126
54511W        W97428  12.110   3.363  26.981  0.1177 -0.0093  0.1761
54512W        W97429  14.043   5.991  28.337 -0.2037  0.1387  0.0032
54513W        W97430   9.948   3.721  29.966  0.1725  0.0725  0.1552
54514W        W97431  12.615   6.007  28.957 -0.0435 -0.1388 -0.0731
54515W        W97432  11.504   1.538  30.586  0.1561 -0.0246 -0.0171
54516W        W97433  12.833   5.928   0.178 -0.1653  0.3274 -0.1037
54517W        W97434  13.656   8.260  31.263 -0.2612 -0.0715 -0.1255
54518W        W97435  13.332   6.434  28.580 -0.2574 -0.1456 -0.1244
54519W        W97436  14.870   5.250  29.132  0.0179 -0.1249 -0.0094
54520W        W97437  11.808   4.348  29.210  0.3749 -0.2560 -0.1083
54521W        W97438  10.686   2.500  28.585 -0.1061 -0.0408  0.0174
54522W        W97439  10.916   4.496  31.714 -0.0018 -0.0299 -0.0334
54523W        W97440  13.597   6.586  29.027  0.0202 -0.0886  0.0139
54524W        W97441  11.497   7.315  27.853  0.1482  0.0997  0.1598
54525W        W97442  12.212   4.373  30.768  0.0220 -0.0313 -0.0009
54526W        W97443  12.250   4.109  29.561 -0.0209  0.1075 -0.2899
54527W        W97444  12.818   7.884  28.440 -0.2343 -0.2906  0.2374
54528W        W97445  11.672   4.595  30.640 -0.1083 -0.1553 -0.0062
54529W        W97446  14.096   4.584  30.110  0.2323 -0.0502  0.1287
54530W        W97447  13.453   8.306  29.788  0.0406 -0.2690  0.0313
54531W        W97448  11.353   2.838  26.722 -0.1703 -0.2190 -0.0024
54532W        W97449  11.687   3.324  30.217  0.2110  0.0877  0.0895
54533W        W97450  11.321   5.397  30.772  0.0775 -0.2772 -0.1406
54534W        W97451  10.126   4.792  30.879  0.1365  0.1431  0.2416
54535W        W97452  14.107   3.811  28.804 -0.3820  0.0039 -0.2769
54536W        W97453  11.738   6.373  29.967  0.3255  0.2738 -0.0094
54537W        W97454  12.138   6.839  31.041  0.1754  0.0620  0.0516
54538W        W97455  13.745   6.251   1.126 -0.2646 -0.2443 -0.1944
54539W        W97456  10.530   6.489  29.218  0.1903 -0.1555 -0.1916
54540W        W97457  10.370   8.713  30.875  0.0564 -0.1715 -0.3670
54541W        W97458  12.905   5.625  28.714  0.1596 -0.3348 -0.2260
54542W        W97459  15.355   7.074  30.419  0.0705 -0.2106  0.2545
54543W        W97460  16.510   7.837  31.708  0.0286 -0.1019 -0.4491
54544W        W97461  13.627   8.957   0.334  0.2281 -0.4452  0.1329
54545W        W97462  11.848   4.941  28.086  0.1385  0.2041  0.4303
54546W        W97463  14.094   6.453  31.784  0.2572  0.4637  0.1093
54547W        W97464  12.147   9.312  31.541 -0.1060  0.0954  0.1641
54548W        W97465  14.436   4.650  29.471 -0.0116  0.1248 -0.0175
54549W        W97466  12.970   6.130  29.979  0.0360  0.2800 -0.0579
54550W        W97467  12.943   4.363  27.559 -0.0498 -0.0996  0.1840
54551W        W97468  12.140   7.472  28.565 -0.1100 -0.0512 -0.0005
54552W        W97469  12.202   4.840  30.568  0.2149 -0.2419 -0.2720
54553W        W97470  11.838   7.657  31.456  0.2046 -0.0047  0.1744
54554W        W97471  13.446   4.305  30.898 -0.3867  0.1746  0.1069
54555W        W97472  10.273   8.695  29.120  0.1280 -0.2394  0.0705
54556W        W97473  13.710   6.128  28.743 -0.1210  0.0006 -0.1091
54557W        W97474  12.999   3.163  27.347  0.2123 -0.7205  0.1220
54558W        W97475  13.130   5.651  26.838 -0.0252  0.0317 -0.0114
54559W        W97476  12.073   3.937  28.989  0.0667  0.1748  0.4232
54560W        W97477  12.437   8.354  29.025  0.2968 -0.0570  0.2528
54561W        W97478  14.809   4.947  29.561 -0.0694  0.2721 -0.0430
54562W        W97479  15.157   6.243  28.199  0.0190  0.3311 -0.2507
54563W        W97480  13.785   3.862  28.217  0.0649 -0.2046  0.3815
54564W        W97481  14.038   6.207  29.736 -0.0888 -0.2365 -0.1034
54565W        W97482  11.408   6.242  30.922  0.1759  0.0180 -0.2050
54566W        W97483  10.050   4.292  30.791 -0.0312 -0.0879  0.0929
54567W        W97484  12.653   6.736  27.360  0.1180 -0.0816 -0.4390
54568W        W97485  15.981   6.319  30.215  0.0940  0.1333  0.0659
54569W        W97486  15.252   6.408  29.770 -0.1494  0.4562  0.2758
54570W        W97487  11.039   4.911  29.425  0.2522  0.0599 -0.1859
54571W        W97488  12.437   6.340  31.673 -0.0289  0.3866  0.2463
54572W        W97489  12.524   3.538   0.979  0.2019 -0.0928  0.1397
54573W        W97490  12.385   3.106  28.021  0.1909  0.1478 -0.0886
54574W        W97491  14.373   8.222   0.373  0.1219  0.3551 -0.1230
54575W        W97492  12.731   6.739  29.328  0.0292  0.0670  0.2606
54576W        W97493  15.234   3.483  28.269  0.0066 -0.0453  0.0563
54577W        W97494  12.092   5.441  29.219  0.0765  0.1694 -0.0761
54578W        W97495  14.900   6.989  29.749 -0.2775  0.0003 -0.3977
54579W        W97496  14.762   5.992  27.927  0.0937  0.3592  0.0182
54580W        W97497  13.179   2.578  30.153 -0.1446  0.1712 -0.2646
54581W        W97498  14.098   2.527  31.816 -0.2437 -0.0957 -0.2073
54582W        W97499  12.432   4.386  27.447  0.0902 -0.0510 -0.2037
54583W        W97500  12.242   6.116  28.612  0.2369 -0.0300  0.0242
54584W        W97501  15.203   8.168  29.088  0.3438  0.0663 -0.1151
54585W        W97502  14.010   4.473  25.380  0.0640 -0.1340 -0.1110
54586W        W97503  11.296   8.001  27.798  0.0249  0.0243  0.0680
54587W        W97504  11.732   3.081   0.997  0.0239  0.4065 -0.0938
54588W        W97505  13.559   6.642   1.334 -0.3135  0.2295 -0.2568
54589W        W97506  11.645   5.457  26.673  0.0734  0.2376  0.2016
54590W        W97507  12.815   6.846  30.282  0.0694 -0.0628  0.0372
54591W        W97508  12.017   6.493  28.871 -0.1610 -0.1987 -0.3547
54592W        W97509  11.094   3.079  30.568  0.1501 -0.1732 -0.3080
54593W        W97510  12.318   4.384  29.097  0.3664 -0.0003 -0.2599
54594W        W97511  14.626   4.754  28.160  0.0096  0.0462  0.3247
54595W        W97512   9.832   4.692  31.266 -0.0395  0.0475 -0.2525
54596W        W97513  13.386   3.627  30.012 -0.1552 -0.0222  0.0441
54597W        W97514  12.077   5.947  29.051  0.0213  0.0494  0.0373
54598W        W97515  13.770   7.267  28.087 -0.4349 -0.3772 -0.2357
54599W        W97516  14.753   4.816  25.882 -0.2927  0.0372  0.2759
54600W        W97517  13.589   7.015  28.476 -0.3163  0.0690 -0.1151
54601W        W97518  11.856   5.572  28.733 -0.0508 -0.2105  0.2501
54602W        W97519  12.501   3.624  29.096  0.0112  0.2411 -0.0103
54603W        W97520  13.987   3.156   1.347  0.2313  0.2017  0.4701
54604W        W97521  10.869   5.272  29.096 -0.1376  0.4508 -0.1558
54605W        W97522  11.682   5.654  29.358  0.1600 -0.2111  0.0774
54606W        W97523  11.328   4.971  27.695  0.2602  0.1172 -0.0680
54607W        W97524  12.528   4.005  29.981  0.2303  0.2281 -0.0757
54608W        W97525  12.238   4.964  29.804 -0.1909 -0.2188  0.0888
54609W        W97526  13.224   6.636  30.009 -0.0538  0.0526 -0.3470
54610W        W97527  14.659   5.190  30.871 -0.4719  0.1425  0.0389
54611W        W97528  13.726   6.557  29.550  0.0985 -0.1035  0.1476
54612W        W97529  15.302   5.319  30.758 -0.0762 -0.2577  0.3129
54613W        W97530  12.780   7.523  29.755  0.0537  0.3510 -0.1063
54614W        W97531  12.067   3.944  30.960  0.2187  0.0047  0.2050
54615W        W97532  11.504   3.889  27.450  0.2009 -0.1281 -0.1488
54616W        W97533   9.606   6.123  28.032 -0.4138 -0.3706 -0.3087
54617W        W97534  13.292   6.345  31.388 -0.0247  0.1501 -0.1338
54618W        W97535  11.874   4.563  29.675 -0.0373  0.0052 -0.3592
54619W        W97536  15.696   9.067  29.966  0.0952  0.1285 -0.0733
54620W        W97537  11.566   6.749  28.421  0.1249 -0.2793 -0.1836
54621W        W97538  10.355   5.584  30.521 -0.0389  0.3036  0.0964
54622W        W97539  12.543   3.726  29.558  0.4452  0.3315 -0.0244
54623W        W97540  13.181   7.408   0.029  0.3979  0.3267  0.2254
54624W        W97541  13.998   5.221  27.092 -0.0747  0.1152 -0.0564
54625W        W97542  10.954   3.080  26.945  0.0105  0.0841  0.1200
54626W        W97543  14.529   5.998  29.892  0.0209  0.0020  0.3708
54627W        W97544  12.893   5.614  27.852  0.1240  0.0617  0.2316
54628W        W97545  12.290   4.853  28.299 -0.3643 -0.0371 -0.1918
54629W        W97546  12.447   7.322  28.903  0.1579 -0.0496  0.0681
54630W        W97547  15.774   4.854  27.649 -0.1754  0.0744  0.0585
54631W        W97548  10.799   5.939  29.906  0.3741 -0.0076  0.1543
54632W        W97549  12.579   4.105  31.051  0.1687  0.1105  0.4456
54633W        W97550  11.057   4.666  28.197  0.0583  0.0272  0.0572
54634W        W97551  12.445   4.830   1.816 -0.1476 -0.0290 -0.1313
54635W        W97552  14.089   3.013  29.351  0.1220  0.0334 -0.0473
54636W        W97553  14.583   3.660  27.638 -0.1601 -0.0352 -0.0397
54637W        W97554  10.779   5.942  30.476  0.2058  0.5864 -0.1817
54638W        W97555  14.454   5.450  28.750 -0.1459  0.2311  0.1763
54639W        W97556  12.938   5.012  25.720  0.1169 -0.0517 -0.0660
54640W        W97557  13.870   3.432  26.389  0.0099  0.3516  0.0935
54641W        W97558  11.386   5.004  31.040  0.0493  0.2721  0.0002
54642W        W97559  13.605   5.276  29.396  0.0859 -0.0520 -0.0456
54643W        W97560  12.375   8.178   0.117  0.1891 -0.2569 -0.3980
54644W        W97561  12.596   5.642  27.050 -0.1306  0.2624 -0.1318
54645W        W97562  15.604   6.462  29.007 -0.4266 -0.0964 -0.1258
54646W        W97563  11.793   5.765  30.200  0.1863 -0.1033  0.1845
54647W        W97564  13.113   5.321  30.230  0.1288  0.2697  0.2797
54648W        W97565  13.298   8.869  28.356  0.3063 -0.2078 -0.0343
54649W        W97566  13.110   3.299  29.002  0.1167 -0.0414  0.0624
54650W        W97567  12.951   3.245  25.864 -0.0131  0.4563  0.0921
54651W        W97568  13.413   4.853  29.211 -0.3367 -0.2755 -0.0090
54652W        W97569  10.650   6.120  27.732  0.1486  0.0158  0.1215
54653W        W97570  15.881   5.877  29.907 -0.4002 -0.0484 -0.0211
54654W        W97571  12.211   5.680  30.552  0.0030 -0.0153 -0.1360
54655W        W97572  15.770   4.258  31.642  0.1594  0.0397 -0.1190
54656W        W97573  13.847   5.835  30.129 -0.4395  0.2416 -0.1076
54657W        W97574  13.858   4.663  28.388  0.2281 -0.1378 -0.1096
54658W        W97575  12.349   3.772  28.602 -0.1902 -0.0248 -0.0444
54659W        W97576  12.144   4.006  28.120 -0.1454 -0.1783  0.0003
54660W        W97577  10.970   4.019  31.896 -0.1624 -0.0873  0.0868
54661W        W97578  12.735   2.943  30.363  0.0454  0.3075 -0.3392
54662W        W97579  11.734   5.885  30.737  0.1590  0.0852  0.2888
54663W        W97580  14.183   7.348  30.442 -0.2958 -0.1781  0.0689
54664W        W97581  13.750   4.397  30.525  0.0407 -0.0618 -0.1061
54665W        W97582  12.964   4.219   1.643 -0.1052  0.5275  0.0393
54666W        W97583  11.894   3.701  28.398  0.2037  0.1572  0.2568
54667W        W97584  12.488   6.398  27.741  0.3668  0.3416 -0.1807
54668W        W97585  11.971   4.190  30.023 -0.1525  0.0940  0.0916
54669W        W97586  12.593   1.458  29.271 -0.0257 -0.1607  0.2923
54670W        W97587  13.130   6.705  30.609  0.0976  0.1656 -0.0703
54671W        W97588  12.540   8.084  25.241  0.3255  0.2336  0.1616
54672W        W97589  12.886   8.380  31.486 -0.1755 -0.0063 -0.1024
54673W        W97590  12.968   2.716  28.700  0.0154  0.0160 -0.3993
54674W        W97591  15.541   3.909  29.125  0.0407 -0.3526  0.0417
54675W        W97592  10.548   6.600  27.340  0.1973  0.1744 -0.0219
54676W        W97593  12.163   5.335  28.351 -0.2018  0.2800  0.1132
54677W        W97594  10.068   4.039  28.668  0.2215  0.1355 -0.0530
54678W        W97595  13.597   3.307  28.128  0.1881 -0.0264 -0.0855
54679W        W97596  14.989   5.012  27.897 -0.1010  0.1140 -0.0238
54680W        W97597  12.951   3.517  29.822  0.0969 -0.0590  0.0103
54681W        W97598  10.795   4.538  29.735 -0.0601  0.2547  0.0320
54682W        W97599  12.151   6.201  30.866  0.1522  0.2492  0.1683
54683W        W97600  13.575   5.244  31.450  0.0145 -0.2114 -0.2013
54684W        W97601  13.427   4.067  27.881  0.2384  0.0516 -0.2110
54685W        W97602  11.640   6.617  31.238  0.0178  0.2039  0.0610
54686W        W97603  13.521   6.981  29.791 -0.4608 -0.2506 -0.2804
54687W        W97604  11.385   4.370  28.920  0.1453 -0.2205 -0.0442
54688W        W97605  13.762   4.082  31.842  0.2346 -0.0581 -0.1641
54689W        W97606  10.630   4.117  28.272 -0.2185  0.1916 -0.1276
54690W        W97607  11.613   8.395  28.571  0.1184 -0.0960 -0.2729
54691W        W97608  13.261   5.996  28.831 -0.0407  0.1418  0.1657
54692W        W97609  10.898   4.499  26.036  0.1904 -0.0161 -0.4184
54693W        W97610  12.602   5.599  28.253  0.2309  0.1807 -0.2253
54694W        W97611  12.131   3.825   0.687  0.1940 -0.0239  0.0013
54695W        W97612  13.648   5.287  31.926 -0.2010 -0.1982 -0.0057
54696W        W97613  11.718   2.733  29.432  0.2071  0.2147 -0.0943
54697W        W97614  11.710   4.071  28.687  0.2017  0.0911 -0.0670
54698W        W97615  12.740   4.211  29.427 -0.0013  0.2437  0.1601
54699W        W97616  13.203   4.476  30.492  0.2927 -0.0473  0.3301
54700W        W97617  14.571   5.485  29.596  0.0104  0.1504  0.1064
54701W        W97618  10.467   7.838  31.534  0.0623 -0.1149 -0.1582
54702W        W97619  13.267   2.903  29.809  0.1836 -0.1246  0.1150
54703W        W97620  13.007   8.049  25.803  0.4280 -0.2720  0.0494
54704W        W97621  14.762   3.741  29.824 -0.2512 -0.2834  0.2226
54705W        W97622  12.041   5.206  30.183  0.0375  0.3540  0.4676
54706W        W97623  11.736   4.318  31.625  0.0634 -0.1163  0.1020
54707W        W97624  11.948   4.694  30.172  0.1002  0.1538 -0.2605
54708W        W97625  13.508   4.414  29.497  0.1735  0.0667 -0.1491
54709W        W97626  12.479   5.283  29.491  0.1287 -0.1302  0.4395
54710W        W97627  11.576   5.214  28.561  0.0686  0.3380 -0.2417
54711W        W97628  12.209   7.400  31.134 -0.3100  0.3271  0.0022
54712W        W97629  13.191   3.150  28.460  0.0342 -0.0301 -0.1378
54713W        W97630  13.481   5.509  27.367 -0.0519 -0.0182  0.1105
54714W        W97631  14.192   2.302  29.969  0.1379 -0.0430  0.1069
54715W        W97632  13.520   3.777  29.081  0.0753  0.0221 -0.2721
54716W        W97633  14.000   5.335  29.039  0.0630  0.3419  0.2034
54717W        W97634  14.063   4.300  28.781 -0.0668 -0.1460 -0.3674
54718W        W97635  13.470   3.977  30.535 -0.0063  0.1429  0.2120
54719W        W97636  12.372   4.270  28.517 -0.2496 -0.2033  0.1918
54720W        W97637   9.419   3.554  31.224  0.3517  0.0444  0.0365
54721W        W97638  14.281   8.963  31.243 -0.0741 -0.0917  0.1714
54722W        W97639  11.186   6.525  31.622 -0.2207  0.0728 -0.1051
54723W        W97640  12.117   2.624  26.730  0.3466  0.3171 -0.4635
54724W        W97641  13.708   2.603  29.384  0.4152 -0.1598 -0.0864
54725W        W97642  12.920   5.847  30.384 -0.2073  0.0276 -0.4168
54726W        W97643  14.115   5.524  28.382  0.0426  0.1169  0.1608
54727W        W97644  12.087   4.894  29.326  0.0839 -0.1011  0.1767
54728W        W97645  14.923   3.395  26.315  0.0070  0.1090 -0.3080
54729W        W97646  11.588   7.488   0.106 -0.1150  0.0834 -0.2565
54730W        W97647  12.775   5.059  29.809 -0.0957  0.1121  0.1525
54731W        W97648  11.405   6.454  29.528 -0.1569 -0.1304  0.2600
54732W        W97649  11.783   4.902  28.921 -0.0419  0.4237  0.2444
54733W        W97650  12.536   2.647   1.036  0.1389  0.1047 -0.1507
54734W        W97651  14.420   3.979  28.438 -0.2691  0.3186  0.1140
54735W        W97652  12.399   4.494  29.708  0.2261 -0.1925 -0.0921
54736W        W97653  12.221   4.125  31.446  0.2636 -0.2246  0.1485
54737W        W97654  14.978   4.358  29.092 -0.3291 -0.0066 -0.0908
54738W        W97655  12.690   5.807  30.810  0.0409 -0.0713 -0.0977
54739W        W97656  12.532   5.581   0.463  0.1975  0.2384 -0.1688
54740W        W97657  13.800   8.728  31.113 -0.1562 -0.0877  0.3036
54741W        W97658  14.466   4.910  27.656  0.1390  0.3185  0.0068
54742W        W97659  14.432   6.206  31.448  0.1039 -0.2290  0.0191
54743W        W97660  15.162   3.771  27.813  0.0000  0.3223 -0.2526
54744W        W97661  12.534   4.938  30.202  0.2967  0.3789 -0.3516
54745W        W97662  12.208   3.159  30.267 -0.2569  0.1067  0.1988
54746W        W97663  12.277   5.641   0.030  0.0303 -0.1085  0.0659
54747W        W97664  12.143   3.283  28.398 -0.0400 -0.1549 -0.3076
54748W        W97665  12.123   3.675  30.054  0.1727  0.2566 -0.1155
54749W        W97666  12.983   6.336  29.073  0.1746  0.1180  0.2798
54750W        W97667  13.896   4.798  29.163 -0.2592  0.1096 -0.2391
54751W        W97668  13.173   5.240  28.434  0.0138 -0.4126  0.0118
54752W        W97669  10.589   3.959  28.875  0.2315  0.0158  0.2407
54753W        W97670  10.543   5.246  31.680 -0.3853  0.0633 -0.0566
54754W        W97671  10.173   2.245  25.529 -0.0379 -0.0024  0.1515
54755W        W97672  12.868   4.105  26.131  0.0050 -0.2483 -0.1129
54756W        W97673  13.978   6.232  29.203 -0.2266  0.0086 -0.4455
54757W        W97674  13.972   5.369  29.724  0.2796  0.3558  0.1685
54758W        W97675  11.952   3.669  27.394 -0.1032 -0.0262 -0.0330
54759W        W97676  14.703   4.740  29.066 -0.3396 -0.1526  0.0084
54760W        W97677  12.501   6.557  28.743  0.0007  0.3300  0.0240
54761W        W97678  13.574   3.780  31.000  0.3009  0.1427  0.1200
54762W        W97679  13.606   4.886  29.722  0.0649  0.1133  0.2743
54763W        W97680  11.745   5.453  30.567 -0.2757 -0.3112 -0.1210
54764W        W97681  11.313   5.306  29.650 -0.0440 -0.0940 -0.2910
54765W        W97682  13.839   4.141  29.196 -0.2066 -0.1816  0.0053
54766W        W97683  13.540   4.575  28.804  0.2544 -0.0440  0.2212
54767W        W97684  13.003   6.976  31.876 -0.0912 -0.2059  0.0601
54768W        W97685  15.415   5.818  29.803 -0.0910  0.3548 -0.1241
54769W        W97686  13.877   7.995  31.792  0.2748 -0.0297  0.1706
54770W        W97687  11.614   3.811  29.270 -0.0289  0.0399 -0.0186
54771W        W97688  15.195   5.670  29.135  0.3866 -0.0959  0.1113
54772W        W97689  16.422   5.445  28.195  0.2058 -0.2220  0.2293
54773W        W97690  12.702   7.217  29.326 -0.0765  0.1139  0.0702
54774W        W97691  12.111   3.455  30.668 -0.2527 -0.1984  0.4905
54775W        W97692  11.584   5.314   0.019  0.2706  0.2875 -0.2217
54776W        W97693  11.231   4.202  31.411  0.2419 -0.0645  0.0476
54777W        W97694   8.391   2.430  25.664  0.1721 -0.0072 -0.0306
54778W        W97695  12.274   5.264  25.679  0.0724 -0.3331 -0.1709
54779W        W97696  11.605   8.157  30.421 -0.0139 -0.3346 -0.1349
54780W        W97697   9.640   7.677  30.744  0.1560  0.2564 -0.0630
54781W        W97698  11.160   9.993  27.313 -0.0508  0.0249  0.1623
54782W        W97699  15.474   5.182  27.820 -0.0746  0.1209  0.2268
54783W        W97700  13.288   5.370  28.985 -0.1714 -0.0403  0.2881
54784W        W97701  13.718   6.586  30.124  0.0615 -0.2178 -0.4451
54785W        W97702  13.621   3.329  25.374  0.2380 -0.1716  0.1258
54786W        W97703  12.379   6.354  29.295 -0.0433  0.1132 -0.0465
54787W        W97704   9.582   6.841  26.521  0.3004  0.0339 -0.2107
54788W        W97705  12.751   8.294  26.645  0.2188 -0.3185  0.0463
54789W        W97706  11.934   7.062  28.738  0.0297  0.2952  0.0427
54790W        W97707  15.793   6.156  30.679 -0.2862 -0.1120  0.1198
54791W        W97708  14.732   4.600  27.270 -0.2645  0.1159  0.4210
54792W        W97709  14.884   5.066  28.660  0.2136 -0.2309  0.3691
54793W        W97710  14.706   3.591  28.136 -0.1701 -0.1383  0.1176
54794W        W97711  14.871   6.770  30.673  0.0470 -0.2737 -0.2006
54795W        W97712  10.248   5.288   0.082  0.0337 -0.3074 -0.0087
54796W        W97713  13.661   4.016  28.674 -0.3359 -0.3518  0.0023
54797W        W97714  11.479   4.389  30.229 -0.2666 -0.1692 -0.2289
54798W        W97715  11.909   1.874  30.682  0.2455 -0.0622 -0.0437
54799W        W97716  12.706   7.563  30.817  0.2384 -0.1197  0.0944
54800W        W97717  13.672   6.979  29.320  0.2613  0.2060 -0.1887
54801W        W97718  10.342   6.596  28.526 -0.0961  0.1820  0.1188
54802W        W97719  12.463   5.950  30.211  0.2033  0.0476 -0.0195
54803W        W97720  12.548   4.808  29.333 -0.3167 -0.0352  0.3018
54804W        W97721  14.006   6.912  30.386  0.2348 -0.1200  0.1727
54805W        W97722  11.501   3.557  29.740 -0.1187  0.0472 -0.2379
54806W        W97723  13.099   5.741  28.278 -0.0110  0.0906  0.0872
54807W        W97724  12.864   6.106  28.508  0.2370  0.1763 -0.0620
54808W        W97725  11.903   5.739  27.019 -0.0942  0.1360 -0.1105
54809W        W97726  12.236   5.020  28.762 -0.0457 -0.2807 -0.1614
54810W        W97727  16.254   4.671  29.436 -0.2817  0.2094  0.2070
54811W        W97728  11.006   3.902  27.445 -0.0292 -0.0761  0.0453
54812W        W97729  12.971   3.752  29.316 -0.0706 -0.2131  0.2078
54813W        W97730  12.415   5.769  29.490 -0.0417  0.0234 -0.3613
54814W        W97731  15.653   4.282  27.915 -0.2309 -0.0491 -0.0641
54815W        W97732  12.066   6.396  31.360 -0.4601  0.1726 -0.0442
54816W        W97733  11.080   6.145  31.298 -0.0891 -0.0487 -0.1611
54817W        W97734  14.245   4.973  28.704  0.2102 -0.4920 -0.1812
54818W        W97735  15.101   4.520  29.734 -0.0970 -0.2570 -0.3325
54819W        W97736  12.948   5.154  27.012 -0.1297  0.0900 -0.1085
54820W        W97737  13.715   8.520  31.740 -0.0116  0.0351  0.0325
54821W        W97738  11.192   3.871  31.019 -0.2081  0.2048 -0.1716
54822W        W97739  14.320   6.115  27.641  0.2756  0.1664 -0.3797
54823W        W97740  11.924   4.089  30.519 -0.1897 -0.1240  0.2359
54824W        W97741  12.579   6.391  30.229 -0.0117  0.3335 -0.3290
54825W        W97742  13.755   6.688   0.335 -0.1300  0.0618  0.0777
54826W        W97743  11.674   5.005  29.833  0.0062  0.0056  0.0858
54827W        W97744  14.769   7.083  26.832 -0.4038 -0.1290 -0.1833
54828W        W97745  14.660   4.506  28.661 -0.0420  0.3454  0.2825
54829W        W97746  13.497   5.042  27.559 -0.2020 -0.0662  0.0045
54830W        W97747  14.383   5.132  29.329  0.1600  0.0873 -0.1372
54831W        W97748  14.462   6.294  29.450  0.0925  0.2384  0.1907
54832W        W97749  11.246   6.213  28.577  0.2570  0.1319  0.0601
54833W        W97750  13.596   5.388  30.039 -0.0777 -0.2108  0.2733
54834W        W97751  15.674   7.735  29.930 -0.0418  0.1258  0.0296
54835W        W97752  11.988   4.495  28.786  0.0439 -0.1617 -0.0192
54836W        W97753  12.216   7.926  29.820 -0.0586  0.2169 -0.1028
54837W        W97754   9.058   6.114  28.757  0.1185  0.1525  0.0998
54838W        W97755  14.669   3.394  29.109  0.1989  0.3788  0.3071
54839W        W97756  14.101   3.518  28.404 -0.1142  0.2328 -0.1507
54840W        W97757  12.376   4.079  26.360  0.1856 -0.1415  0.0842
54841W        W97758  13.386   3.476   0.006  0.1852  0.1728 -0.1645
54842W        W97759  13.913   7.335  31.460 -0.2598 -0.1197 -0.1982
54843W        W97760  11.525   6.120   0.195  0.1820  0.2492 -0.0141
54844W        W97761   9.311   5.979  27.533  0.2974 -0.0847 -0.1343
54845W        W97762  13.072   5.002  30.647  0.2232 -0.0642 -0.1136
54846W        W97763  12.058   6.155  30.387  0.1515 -0.2964  0.2290
54847W        W97764  12.637   4.729  28.835  0.0688  0.1818 -0.1990
54848W        W97765  14.888   6.565  29.420  0.3329 -0.1226  0.3935
54849W        W97766  12.845   5.676  29.755  0.0725  0.0227 -0.1457
54850W        W97767  15.155   6.795  29.074  0.2194  0.1035  0.1257
54851W        W97768  13.439   4.673  31.303  0.0755 -0.1199 -0.1869
54852W        W97769  13.118   1.769  28.504  0.0497  0.0220  0.1452
54853W        W97770  13.388   4.771  28.407 -0.0557  0.3398 -0.0977
54854W        W97771  11.258   4.718  29.911  0.1502  0.0134 -0.0659
54855W        W97772  11.014   6.283  25.951 -0.0807  0.1454  0.0017
54856W        W97773  12.729   3.508  27.599  0.1060 -0.1188 -0.1462
54857W        W97774  11.735   6.852  29.156  0.2584  0.1332 -0.1901
54858W        W97775  12.103   2.671  31.121 -0.0701 -0.1701  0.1713
54859W        W97776  12.982   5.416  30.796  0.3627  0.4039  0.0824
54860W        W97777  11.459   5.804  29.807  0.0243  0.0987 -0.2202
54861W        W97778  10.868   4.486  28.989 -0.2191  0.1195 -0.1982
54862W        W97779  13.733   5.805  29.606 -0.0770  0.1350 -0.2348
54863W        W97780  12.346   4.336  30.309  0.1314  0.1630 -0.1134
54864W        W97781   9.511   6.124  28.560 -0.0856 -0.0372 -0.1696
54865W        W97782  13.457   6.183  29.323 -0.0670 -0.0631  0.0403
54866W        W97783  13.458   6.483  27.654  0.1173 -0.1071  0.1832
54867W        W97784  11.275   5.088  28.134  0.0625 -0.0288  0.2217
54868W        W97785  15.985   7.090  31.532 -0.2487  0.1147  0.0415
54869W        W97786  12.428   5.221  26.959 -0.0439 -0.1714 -0.3819
54870W        W97787  13.347   5.762   0.099 -0.2589  0.0108 -0.0772
54871W        W97788   9.966   1.205  30.980  0.1649  0.1044  0.0204
54872W        W97789  10.123   5.124  26.212 -0.3318 -0.1550 -0.1706
54873W        W97790  12.621   3.894  27.233  0.0098  0.0758 -0.0260
54874W        W97791  11.809   6.683  27.981  0.4197  0.1941  0.0333
54875W        W97792  13.269   7.005  27.751  0.0976 -0.2147 -0.0702
54876W        W97793  11.936   7.174  30.215 -0.0574 -0.3479  0.1424
54877W        W97794  11.359   7.502  31.571 -0.1308 -0.0957 -0.1300
54878W        W97795  11.214   3.488  31.480  0.0956  0.1698 -0.2717
54879W        W97796  12.879   5.617  29.258 -0.1002  0.2389  0.0270
54880W        W97797  14.096   5.064  31.446  0.0376 -0.0747 -0.1030
54881W        W97798  13.750   5.597  27.997 -0.0477 -0.0830  0.1878
54882W        W97799  16.340   2.553  28.472  0.1954  0.1400 -0.2706
54883W        W97800  15.763   4.777  29.376 -0.0542 -0.3496  0.0044
54884W        W97801  11.451   2.212   0.524  0.2785 -0.3370  0.2086
54885W        W97802  11.204   6.740  29.892  0.0678  0.0237  0.2326
54886W        W97803  13.754   3.312   0.461 -0.1992 -0.0074  0.0271
54887W        W97804  11.480   2.640  28.230  0.1933  0.2137  0.1231
54888W        W97805  14.320   5.132  28.066 -0.1262 -0.1943  0.0900
54889W        W97806  12.103   6.639  28.411  0.2678  0.1083 -0.0047
54890W        W97807  11.606   3.214  28.250  0.1322  0.0768  0.0311
54891W        W97808  13.266   3.460  27.736 -0.4611 -0.2479  0.1215
54892W        W97809  11.578   6.210  31.593  0.0489 -0.2252 -0.1775
54893W        W97810  14.334   4.994  29.876 -0.3339 -0.2053  0.1374
54894W        W97811  14.001   5.187  30.192  0.2495 -0.2199  0.1770
54895W        W97812  13.395   6.153  28.225  0.0669 -0.1563  0.2273
54896W        W97813  14.647   5.458  28.276 -0.1392  0.1606  0.1643
54897W        W97814  12.077   6.650  30.280 -0.4231 -0.1407  0.2391
54898W        W97815  12.050   7.139  29.506  0.0396 -0.0967  0.1109
54899W        W97816  14.299   6.044  30.354 -0.0086  0.1602 -0.1715
54900W        W97817  13.773   6.265  30.543  0.0505 -0.2896  0.1313
54901W        W97818  14.072   4.900  30.582  0.5617  0.0109 -0.1446
54902W        W97819  13.726   5.122  28.183 -0.0649  0.0494  0.0446
54903W        W97820  12.839   6.121  29.511  0.1306 -0.0130  0.1733
54904W        W97821  13.168   4.836  30.117  0.1145  0.0776  0.3284
54905W        W97822  11.508   2.217  27.847 -0.0381 -0.0293 -0.1429
54906W        W97823  13.028   4.282  27.053 -0.0508 -0.1262  0.2245
54907W        W97824  13.429   7.619  30.504  0.1272  0.1245 -0.0852
54908W        W97825  13.064   4.653  29.667  0.0060  0.1457  0.0689
54909W        W97826  14.534   5.248  31.594  0.0592  0.3890  0.1465
54910W        W97827  13.625   6.007   0.644 -0.0158  0.3881 -0.0778
54911W        W97828  11.851   5.403   2.133  0.2136  0.0548 -0.2047
54912W        W97829  12.350   4.622  31.172 -0.3179 -0.5489 -0.0797
54913W        W97830  13.834   7.595   0.814 -0.0968  0.0127  0.0228
54914W        W97831  12.350   7.082  30.524 -0.0303  0.1277 -0.1058
54915W        W97832  13.896   5.743   0.134 -0.0261 -0.1300  0.1585
54916W        W97833  12.468   4.266   1.728  0.2511 -0.1255 -0.0418
54917W        W97834  15.214   3.551  31.755 -0.0401 -0.1321  0.0795
54918W        W97835  13.361   7.440   0.521  0.1606  0.1744  0.0904
54919W        W97836  11.936   5.434  29.708  0.3607  0.3673  0.0593
54920W        W97837  12.330   0.894  31.615  0.1505  0.0868  0.0305
54921W        W97838  11.706   4.777  31.862 -0.2112  0.2023 -0.2007
54922W        W97839  11.587   4.500   1.149 -0.2328  0.1992  0.1934
54923W        W97840  16.104   3.979  30.298 -0.2128 -0.0677 -0.2097
54924W        W97841   9.657   7.144  30.769  0.1087  0.1083  0.1799
54925W        W97842  12.084   5.343   0.476  0.0918 -0.1717 -0.1725
54926W        W97843  14.936   7.871  30.757  0.2275  0.1639  0.0784
54927W        W97844  11.150   3.689   0.415  0.1268  0.1017  0.2171
54928W        W97845  10.375   3.826  29.572  0.0046 -0.2183 -0.0241
54929W        W97846  11.170   1.705  31.894 -0.1245  0.0271  0.0739
54930W        W97847  12.341   5.016  31.520 -0.2019  0.3731 -0.2811
54931W        W97848  14.342   4.247  29.174  0.1491 -0.0533  0.2095
54932W        W97849  12.512   5.103  30.863 -0.1010 -0.0440  0.2959
54933W        W97850  13.018   2.299   2.604 -0.2635 -0.2787  0.0806
54934W        W97851  12.834   5.533  31.291 -0.3751 -0.0188 -0.0857
54935W        W97852  10.624   3.893   0.611  0.0044  0.2526  0.2191
54936W        W97853  13.389   7.036  30.313  0.1519  0.1732 -0.2119
54937W        W97854  11.915   5.670   0.849  0.0192  0.3167 -0.2295
54938W        W97855  13.267   5.751  29.967  0.0164  0.0394  0.1891
54939W        W97856  13.402   8.439   1.865  0.1876 -0.2263 -0.3525
54940W        W97857  12.626   5.473  30.348 -0.0870  0.1914  0.3366
54941W        W97858  14.247   3.941   0.047 -0.1254  0.0343 -0.3265
54942W        W97859  13.390   4.801   0.222 -0.1876  0.0922 -0.2531
54943W        W97860  12.970   2.522   0.805  0.2352 -0.1162 -0.1392
54944W        W97861  13.411   2.807  31.909  0.1438  0.0913 -0.4110
54945W        W97862  12.894   6.540  31.589 -0.1516  0.0297  0.0830
54946W        W97863  12.908   6.850   1.539  0.1029  0.0249 -0.0773
54947W        W97864  12.859   4.813   0.453 -0.1622  0.0258  0.1346
54948W        W97865  13.170   5.130  31.218  0.2970  0.1590 -0.0120
54949W        W97866  13.945   6.125  31.449  0.1395 -0.2000 -0.1268
54950W        W97867  13.123   5.489  31.750 -0.0040 -0.0778 -0.0575
54951W        W97868  12.229   1.358  31.723  0.4124  0.0462 -0.4206
54952W        W97869  12.422   6.612  30.682  0.2893  0.1187  0.0320
54953W        W97870  13.004   4.859   1.702 -0.0044 -0.0679 -0.0662
54954W        W97871  11.096   5.514   2.036  0.1267 -0.0484  0.0108
54955W        W97872  13.308   4.518   1.940 -0.1717  0.0035 -0.2297
54956W        W97873  12.320   6.115   0.153  0.1937  0.0120 -0.3544
54957W        W97874  14.312   7.616   0.595  0.0242 -0.0315 -0.0965
54958W        W97875  12.099   7.521  30.649  0.2981 -0.2456 -0.1246
54959W        W97876  14.097   5.077  31.920 -0.0834 -0.1772 -0.3244
54960W        W97877  13.129   4.013  30.196 -0.1298 -0.1114 -0.1935
54961W        W97878  12.585   3.758  31.504  0.0519  0.0561  0.2765
54962W        W97879  13.863   4.016  30.170  0.2600  0.1727 -0.3029
54963W        W97880  14.128   4.430   2.413 -0.0674 -0.0476 -0.0393
54964W        W97881  12.857   6.307  30.695 -0.1656 -0.0457 -0.0032
54965W        W97882  15.330   5.332  28.791  0.1202  0.0730 -0.0406
54966W        W97883  13.618   8.017   0.613  0.0398  0.3311 -0.2264
54967W        W97884  12.985   9.468   1.574 -0.1130  0.1436 -0.0235
54968W        W97885  11.087   9.230  31.522  0.2948  0.1085 -0.5380
54969W        W97886  13.185   5.904  30.898  0.0357 -0.3835  0.1872
54970W        W97887  12.000   6.199   0.641  0.1684 -0.0378  0.1611
54971W        W97888  11.868   7.646  29.588 -0.3549  0.1932 -0.2474
54972W        W97889  13.225   4.507   1.396 -0.1616 -0.1508 -0.1270
54973W        W97890  13.454   8.497   0.569 -0.3280  0.0031 -0.1240
54974W        W97891  13.186   6.762   1.064 -0.1290 -0.0503 -0.0199
54975W        W97892  13.446   4.939   1.198  0.2038 -0.4008 -0.0066
54976W        W97893  11.173   8.779  18.048 -0.1802 -0.0168  0.1965
54977W        W97894  11.567   8.412  16.529 -0.0527  0.3356 -0.0494
54978W        W97895  12.932   8.340  16.318 -0.1621 -0.0297 -0.0170
54979W        W97896  13.296   8.488  16.856  0.0775 -0.0032 -0.2239
54980W        W97897   9.911   5.797  18.382 -0.1389 -0.3457 -0.2083
54981W        W97898  12.916  11.763  16.232  0.0043 -0.0824 -0.1937
54982W        W97899  12.460   4.281  19.955 -0.1908  0.1189  0.2713
54983W        W97900  12.162   8.936  18.488  0.1684  0.3117  0.0815
54984W        W97901  12.525   9.385  15.532 -0.0651  0.0342  0.2569
54985W        W97902  12.897   9.677  15.529 -0.1268  0.2532 -0.2490
54986W        W97903  12.318   5.931  17.407 -0.0965  0.3877  0.0902
54987W        W97904  10.576   9.337  19.114 -0.0118  0.5620  0.1382
54988W        W97905  11.873   7.060  18.183  0.1363 -0.0503 -0.1982
54989W        W97906   9.428   7.533  17.812 -0.1914 -0.0716  0.1139
54990W        W97907  11.344  10.048  17.780 -0.1206 -0.1176 -0.1226
54991W        W97908  11.941  10.112  15.544  0.1052  0.0177 -0.0104
54992W        W97909  11.875   7.345  17.784  0.1542 -0.2007 -0.0426
54993W        W97910  12.701   6.719  16.120 -0.0396  0.3449  0.0299
54994W        W97911  13.445   9.262  16.348  0.2154 -0.2027  0.2688
54995W        W97912  11.100   8.988  17.201 -0.2893  0.3426  0.0654
54996W        W97913  14.230   8.264  19.097 -0.1053 -0.1131 -0.1995
54997W        W97914  12.877  10.480  14.973  0.0111  0.2287  0.0289
54998W        W97915   9.884   7.597  16.916  0.4336 -0.0205  0.2866
54999W        W97916  11.054   9.365  18.938  0.3322 -0.0894  0.1999
55000W        W97917  10.468   9.357  18.451  0.0117 -0.0381 -0.1399
55001W        W97918  13.999   7.721  19.438 -0.0530 -0.2989 -0.1271
55002W        W97919  13.996   8.863  16.343  0.0556  0.0740 -0.0818
55003W        W97920  14.091   9.835  16.248 -0.0008  0.1622  0.2561
55004W        W97921  11.668  10.638  18.043 -0.1300 -0.1518 -0.0528
55005W        W97922  14.884  10.782  20.272  0.1290 -0.0689  0.1156
55006W        W97923   9.705  10.076  16.610 -0.3290 -0.0433  0.1759
55007W        W97924  11.652  10.767  17.539  0.2556  0.1424 -0.3355
55008W        W97925  11.188  10.326  15.982 -0.0280 -0.4712  0.1283
55009W        W97926  13.613   8.543  17.261  0.2097 -0.2008  0.0979
55010W        W97927  12.276   9.266  18.154 -0.1829 -0.2842 -0.0386
55011W        W97928   9.166  10.754  20.143  0.3644  0.4089  0.3280
55012W        W97929  11.100  10.452  15.105  0.2791  0.1927 -0.0964
55013W        W97930  10.989   9.274  20.466 -0.3061  0.0130  0.1333
55014W        W97931  11.023  11.118  19.394  0.1834 -0.0564 -0.1739
55015W        W97932  11.680   8.712  17.907 -0.3328 -0.1040  0.0443
55016W        W97933  13.031  10.006  15.148  0.1417  0.1482 -0.1937
55017W        W97934  12.550   9.306  16.542 -0.0848  0.1229 -0.1474
55018W        W97935  12.660  11.490  15.175 -0.3128 -0.2600 -0.3298
55019W        W97936  11.771  10.814  20.347 -0.4024 -0.2380 -0.3084
55020W        W97937  10.222   7.330  17.174 -0.0185  0.1237  0.3454
55021W        W97938  13.757   8.562  19.814  0.0988  0.1208 -0.2608
55022W        W97939  10.288  11.764  15.084  0.0697 -0.1717 -0.2590
55023W        W97940  12.570   9.797  15.880 -0.3842 -0.0292  0.1563
55024W        W97941  12.011   7.784  16.076  0.1628  0.0690  0.0089
55025W        W97942  11.736   9.046  16.939  0.1951  0.0278 -0.0893
55026W        W97943  12.396   7.566  17.833 -0.0411 -0.2542 -0.3255
55027W        W97944  13.193  12.184  15.873 -0.1807 -0.0470 -0.0624
55028W        W97945  12.808   8.391  17.483 -0.0007 -0.0090 -0.0955
55029W        W97946  13.892  10.541  18.411  0.2137 -0.1843 -0.4604
55030W        W97947  11.541   9.858  15.803  0.3201  0.1094  0.2618
55031W        W97948  11.503   9.381  17.250  0.3786  0.1267  0.3635
55032W        W97949  12.097  11.447  17.179  0.0228 -0.2079 -0.1025
55033W        W97950  11.678   6.863  16.318  0.1219  0.0329  0.1602
55034W        W97951  13.792   9.758  14.878 -0.3447  0.2512  0.0941
55035W        W97952  14.956  11.676  15.673  0.0262  0.1578  0.2184
55036W        W97953  14.311  11.799  14.070 -0.1977  0.1955  0.1429
55037W        W97954  10.770   9.777  17.157 -0.0211  0.2080  0.0484
55038W        W97955  10.307  10.629  18.973 -0.0568  0.1385  0.0579
55039W        W97956  11.516   7.482  18.342  0.0725  0.0896  0.0772
55040W        W97957  12.247   6.803  15.171  0.1249 -0.0295 -0.4382
55041W        W97958  13.145   9.605  17.925 -0.1109 -0.1310  0.1299
55042W        W97959   9.611  10.465  20.251 -0.1495  0.1949  0.0444
55043W        W97960  14.625   8.109  16.397  0.2578 -0.0535 -0.1397
55044W        W97961   9.892  10.607  18.601 -0.1323 -0.0617 -0.1169
55045W        W97962  15.128   9.606  16.379  0.1830  0.1451  0.0698
55046W        W97963  11.161   8.124  16.783  0.1104  0.0779  0.0568
55047W        W97964  12.539  10.132  18.322 -0.0116  0.0683 -0.0344
55048W        W97965  13.177   8.003  16.788 -0.1054  0.1726 -0.2199
55049W        W97966  11.244  10.852  15.330  0.5068 -0.0533  0.0128
55050W        W97967  10.584   8.821  17.326  0.1572 -0.1028  0.0878
55051W        W97968  13.888   9.178  18.855 -0.0830  0.3304 -0.2507
55052W        W97969  12.580   8.726  16.336 -0.1278  0.1597 -0.0996
55053W        W97970  10.567  10.995  18.556  0.2087  0.2968  0.0438
55054W        W97971  11.364   9.242  18.561 -0.0042  0.1215  0.1221
55055W        W97972  13.470  10.970  19.519 -0.4971  0.1492  0.3676
55056W        W97973  12.105  11.114  15.402  0.1276 -0.0332  0.1678
55057W        W97974   9.825   9.916  17.756 -0.3374  0.1033  0.4981
55058W        W97975  12.066   9.951  16.052  0.1899  0.3274  0.1228
55059W        W97976  11.012   4.550  18.338  0.0972  0.0256 -0.0605
55060W        W97977  11.226  11.177  15.705  0.1646  0.0633  0.1273
55061W        W97978  13.488   7.166  17.460  0.1399 -0.4024 -0.0973
55062W        W97979  10.516   5.821  17.688 -0.2386  0.3364 -0.1814
55063W        W97980  13.710   8.095  17.079 -0.1167  0.0137  0.0509
55064W        W97981  11.692  11.410  16.887  0.0867 -0.2165 -0.1303
55065W        W97982  12.556  12.420  16.932 -0.0153  0.0364 -0.0540
55066W        W97983  12.611   9.130  15.967  0.1981 -0.1381 -0.0222
55067W        W97984  14.019   8.934  15.856 -0.0680  0.3036  0.0450
55068W        W97985  10.284   7.851  17.138  0.1100  0.4395 -0.2079
55069W        W97986  12.091   6.881  17.811 -0.1197 -0.3510  0.1410
55070W        W97987  11.932   6.679  19.161  0.0470 -0.0275  0.1536
55071W        W97988  12.549   6.639  17.532 -0.0581 -0.1714  0.1607
55072W        W97989  13.026   6.895  17.480  0.1748 -0.2528  0.1402
55073W        W97990   9.538   8.012  16.652  0.2583  0.1934  0.0142
55074W        W97991  12.327   7.179  18.159  0.0846  0.0759 -0.1204
55075W        W97992  13.412   8.460  17.702 -0.1268  0.1428  0.0058
55076W        W97993  10.428  10.297  17.581 -0.2132  0.2014  0.0038
55077W        W97994  12.666   6.900  17.098 -0.2812  0.0891 -0.0268
55078W        W97995  13.179  11.694  14.502 -0.2051  0.2623 -0.0398
55079W        W97996  13.270   7.967  17.872 -0.0217 -0.1116  0.1330
55080W        W97997  12.817  11.379  16.537  0.1316  0.0970  0.0675
55081W        W97998  11.155   7.095  20.564 -0.3246 -0.1341  0.0364
55082W        W97999  11.271   7.644  15.945 -0.0645  0.3314 -0.0146
55083W        W98000  10.911   8.546  16.992 -0.0866  0.0618  0.1853
55084W        W98001  11.065   9.790  16.552  0.2094  0.0768  0.0486
55085W        W98002  10.157   6.688  16.502  0.4167  0.2429  0.2013
55086W        W98003  13.785   8.161  17.594 -0.0117  0.2511 -0.3202
55087W        W98004  12.867  10.261  16.063 -0.1480  0.1700  0.3883
55088W        W98005  12.195   8.169  17.796  0.0458  0.2506  0.1748
55089W        W98006  13.136   7.987  19.019 -0.0994 -0.2440 -0.4549
55090W        W98007  13.312   7.266  16.546 -0.0448 -0.0211 -0.1082
55091W        W98008  13.948  11.275  16.667 -0.2810 -0.0709 -0.0250
55092W        W98009  11.622   6.567  15.454 -0.2791 -0.2427  0.0204
55093W        W98010  12.562  10.699  16.601 -0.0934  0.0256  0.1789
55094W        W98011  11.412   9.290  16.575 -0.0678 -0.1588 -0.1318
55095W        W98012  10.596   9.687  16.664  0.4062 -0.3343  0.0202
55096W        W98013  13.390  10.240  17.426 -0.3537  0.3644  0.3030
55097W        W98014  13.587   7.674  16.688 -0.2051 -0.3113 -0.1692
55098W        W98015   9.751   7.336  19.462  0.4927 -0.2561 -0.0562
55099W        W98016  11.386   8.533  19.482  0.1618  0.0014  0.1589
55100W        W98017  11.002   9.302  18.241 -0.1898  0.0727 -0.0490
55101W        W98018  11.090  12.045  17.584 -0.0458  0.1460 -0.1528
55102W        W98019  13.423   7.775  18.378  0.0573 -0.2597 -0.0157
55103W        W98020  13.029   7.570  16.002  0.0621 -0.2431  0.0361
55104W        W98021  14.086   8.954  19.944  0.1705  0.2304 -0.4103
55105W        W98022  11.631   8.935  17.429 -0.0333 -0.2585 -0.1408
55106W        W98023  12.458   5.931  16.913  0.1427  0.2417  0.1588
55107W        W98024  11.473   8.562  17.081  0.1979  0.1393  0.0247
55108W        W98025   9.741   9.034  20.338  0.5384 -0.3801 -0.0063
55109W        W98026  13.783  10.830  15.944  0.1116 -0.2223 -0.2673
55110W        W98027  11.982   8.600  19.651  0.1131 -0.2204 -0.0443
55111W        W98028  11.676   7.395  16.164 -0.1014 -0.1543  0.2953
55112W        W98029  14.873  10.260  15.617  0.1233 -0.0421 -0.0553
55113W        W98030  11.269   8.837  16.700 -0.3332 -0.0108 -0.0303
55114W        W98031  13.505  10.394  18.792 -0.1348  0.2470 -0.5941
55115W        W98032  11.910  11.476  16.364  0.1396  0.2100 -0.0645
55116W        W98033  11.907   7.394  17.195  0.2881  0.0632 -0.0277
55117W        W98034  12.228   6.902  16.116 -0.1720 -0.1545  0.2841
55118W        W98035  11.913   7.949  17.325  0.1557 -0.0246  0.0779
55119W        W98036  11.693  12.088  15.380  0.1150  0.0395 -0.2137
55120W        W98037  13.687   7.595  17.448 -0.3753  0.2053  0.0337
55121W        W98038  12.970   8.489  18.239  0.0683  0.1032 -0.3375
55122W        W98039  13.259   6.434  17.428 -0.1098 -0.0591  0.4601
55123W        W98040  14.210   8.735  19.006  0.1061  0.1019 -0.1002
55124W        W98041  13.198   8.073  15.179  0.0299  0.1502  0.1454
55125W        W98042  12.872   8.103  15.892  0.0575  0.1330  0.2009
55126W        W98043  11.954   7.523  15.480  0.1012  0.3382 -0.3085
55127W        W98044  14.040   5.204  18.689 -0.1587 -0.2136 -0.0769
55128W        W98045  11.085   9.398  16.946  0.1855  0.0087  0.2219
55129W        W98046   8.408   8.917  20.898  0.1329  0.0960 -0.1435
55130W        W98047  13.531   9.060  18.558 -0.0224  0.1493 -0.3043
55131W        W98048  12.672   9.855  17.832 -0.1529 -0.1043  0.1244
55132W        W98049  12.712   6.983  17.890 -0.1806  0.0702  0.1086
55133W        W98050  13.572   6.830  15.790  0.0476 -0.2145  0.2046
55134W        W98051   9.931  11.052  16.165  0.3070 -0.3003 -0.1212
55135W        W98052  11.717   8.736  15.922 -0.1515  0.1874 -0.1225
55136W        W98053  11.546   6.310  18.972 -0.0813  0.3880 -0.1227
55137W        W98054  11.453  11.374  19.047 -0.1111 -0.0703  0.1365
55138W        W98055  12.841  10.240  16.628  0.3105  0.1905  0.0043
55139W        W98056  12.221   9.538  19.968  0.0558  0.0123 -0.0264
55140W        W98057  11.231  10.264  18.287 -0.0649 -0.3545 -0.1220
55141W        W98058  13.241   7.422  19.248  0.0856 -0.1853  0.0182
55142W        W98059  13.008   9.451  17.468 -0.1700  0.0754 -0.0728
55143W        W98060  10.516   8.636  16.031  0.2320 -0.2934  0.1129
55144W        W98061  10.304   8.287  15.770 -0.0818 -0.2604 -0.1936
55145W        W98062  14.467   6.895  17.818  0.1783 -0.1453  0.0543
55146W        W98063  13.233   9.939  15.745  0.1706  0.0136 -0.2037
55147W        W98064  12.153   6.854  19.555  0.1647 -0.3859  0.1768
55148W        W98065  12.354   7.257  16.877 -0.0371  0.3537 -0.0922
55149W        W98066  11.651  11.459  17.954 -0.0451 -0.0589 -0.0702
55150W        W98067  11.777   7.897  18.602  0.2146  0.1607 -0.0111
55151W        W98068  14.048   6.863  15.669  0.1699  0.0863  0.1033
55152W        W98069  12.576   8.880  18.192 -0.0904  0.0832 -0.0797
55153W        W98070   9.511   8.499  18.771 -0.5932  0.0963 -0.0255
55154W        W98071  11.355   9.015  16.161 -0.3049  0.1934  0.0210
55155W        W98072  13.175   7.562  18.739  0.1889  0.2534  0.2586
55156W        W98073  12.034   9.077  15.740 -0.2796 -0.1540 -0.1066
55157W        W98074  10.191  11.444  17.725  0.3632 -0.0899 -0.0615
55158W        W98075  13.256   8.071  17.351 -0.1494  0.2627  0.1069
55159W        W98076  11.237   8.004  18.372 -0.0727 -0.1879  0.1192
55160W        W98077  10.402  10.412  18.131 -0.0194  0.2529  0.2321
55161W        W98078  13.394   6.600  19.803  0.0305 -0.3400  0.2405
55162W        W98079  12.730   9.522  18.286  0.0234  0.2149 -0.2875
55163W        W98080  14.106   5.582  17.126 -0.2749 -0.0058  0.4767
55164W        W98081   9.797   5.321  17.579 -0.0914 -0.1211  0.0792
55165W        W98082  12.260   8.192  18.313  0.0211  0.3566 -0.0845
55166W        W98083  11.456   9.774  16.858  0.1144  0.2854  0.0813
55167W        W98084  12.410   8.133  17.233 -0.1754 -0.3118 -0.4814
55168W        W98085  10.875   8.540  19.797 -0.0254  0.4513  0.1834
55169W        W98086  12.648   6.188  19.126  0.2136 -0.0324 -0.1943
55170W        W98087  14.068  10.343  16.113  0.0384 -0.0023 -0.1025
55171W        W98088  13.188   9.954  18.924  0.1754  0.1216 -0.1779
55172W        W98089  13.204   9.196  15.172 -0.1017 -0.0461 -0.3218
55173W        W98090  10.431   8.681  16.590  0.0443 -0.1302  0.0019
55174W        W98091  11.569  10.449  18.640 -0.0898 -0.3042 -0.0462
55175W        W98092  10.961   7.548  19.272  0.0599 -0.0796 -0.0606
55176W        W98093  11.353   8.819  18.753  0.0435 -0.2262 -0.2160
55177W        W98094  11.819  10.674  15.472  0.1320  0.3775 -0.0045
55178W        W98095  10.195   9.819  18.508 -0.1381  0.0486  0.2396
55179W        W98096  13.404   8.453  16.005  0.0574  0.0634 -0.0384
55180W        W98097  13.471   8.956  15.967  0.1673 -0.2399  0.2819
55181W        W98098  12.766   7.201  16.043 -0.0482 -0.3127 -0.2950
55182W        W98099  13.130   7.109  18.454  0.0606  0.1268  0.2218
55183W        W98100  12.894   8.687  15.924  0.1719  0.0011 -0.0665
55184W        W98101  14.162   7.869  20.018  0.0005 -0.1073  0.0687
55185W        W98102  11.241   7.681  18.818  0.0812  0.0861 -0.1415
55186W        W98103  13.165  10.844  18.046 -0.1130 -0.1054 -0.0252
55187W        W98104  11.554   8.965  19.232  0.2036 -0.1490  0.2198
55188W        W98105  14.705   9.283  19.189  0.1285 -0.0722  0.2522
55189W        W98106  10.308   9.839  19.505  0.0387 -0.0993 -0.2415
55190W        W98107  11.504   6.766  16.799 -0.3191 -0.3413 -0.0364
55191W        W98108  10.779   6.142  16.823 -0.0383 -0.1682  0.0333
55192W        W98109  11.900   9.901  17.148 -0.2164  0.1399 -0.0704
55193W        W98110  14.792   9.547  16.772 -0.0017  0.1611  0.2214
55194W        W98111  13.008   9.009  16.405 -0.0142 -0.2052 -0.5174
55195W        W98112  12.211   7.330  15.889 -0.0851 -0.2569  0.0523
55196W        W98113  13.433   6.282  16.932  0.1686  0.3345  0.2781
55197W        W98114  13.279  10.025  16.827 -0.0254  0.2580 -0.1091
55198W        W98115  13.038   9.217  15.715  0.0269  0.2229 -0.0702
55199W        W98116  11.598   6.468  17.231  0.4265 -0.1466  0.1029
55200W        W98117  12.606   7.311  18.594  0.0649 -0.6209  0.2297
55201W        W98118  14.146   7.764  17.574  0.0321  0.1997 -0.0970
55202W        W98119  12.760   8.056  15.398  0.1912 -0.1822 -0.0549
55203W        W98120  14.864   7.560  20.307 -0.1099 -0.0975  0.1195
55204W        W98121  13.772   8.411  19.343  0.1075  0.1432  0.1445
55205W        W98122   9.967   9.247  18.407 -0.1461 -0.1734  0.0137
55206W        W98123  10.389   7.768  21.237  0.2138 -0.1024 -0.2603
55207W        W98124  12.355  10.305  16.285  0.1223  0.1270  0.0037
55208W        W98125  15.286   8.246  15.535  0.0544  0.0179  0.0468
55209W        W98126  13.812   6.822  17.280  0.0120 -0.0847  0.0701
55210W        W98127  14.356   8.643  18.058 -0.0314 -0.1641 -0.3767
55211W        W98128  12.271   9.542  17.725 -0.3852  0.1423 -0.0687
55212W        W98129  13.336   5.541  16.337  0.1485  0.0707  0.2138
55213W        W98130  14.487   7.958  18.865 -0.1603  0.0598 -0.1530
55214W        W98131  10.183   6.285  16.846 -0.0972 -0.0319  0.2324
55215W        W98132  14.619   7.443  18.726 -0.0869 -0.0908 -0.1721
55216W        W98133  11.176  11.281  15.095 -0.4426 -0.0855 -0.0309
55217W        W98134  12.938  10.759  16.148 -0.3786 -0.0325 -0.0631
55218W        W98135  12.015   8.516  17.434  0.2399 -0.1090  0.1501
55219W        W98136  12.579   8.445  17.924  0.0801  0.0364  0.2378
55220W        W98137  10.367   9.908  18.045  0.2408  0.1230  0.1342
55221W        W98138  12.012   6.552  16.656 -0.2537 -0.1267  0.1789
55222W        W98139  13.278  10.766  15.063  0.3046  0.3175 -0.0238
55223W        W98140  12.818   7.982  18.164 -0.1086 -0.2897 -0.0298
55224W        W98141  13.701   8.514  18.716  0.1655 -0.2043 -0.3556
55225W        W98142  12.944   6.833  15.715  0.0554 -0.2038  0.1509
55226W        W98143  14.013   7.593  18.441 -0.0470 -0.1522  0.1340
55227W        W98144  11.261  11.855  14.993 -0.0738  0.1313  0.2320
55228W        W98145  12.137   6.758  18.434 -0.0994  0.0686  0.0275
55229W        W98146  11.072  10.194  18.746 -0.0051  0.0692 -0.0662
55230W        W98147  10.956   8.943  19.187  0.4013  0.1831  0.3361
55231W        W98148  10.827  11.030  16.617 -0.0632 -0.1561 -0.1237
55232W        W98149  10.921   5.792  17.411 -0.2820 -0.1858 -0.1300
55233W        W98150  13.951   9.970  16.819  0.2428 -0.0202 -0.0593
55234W        W98151  13.173   8.676  18.679 -0.2534  0.1936 -0.1846
55235W        W98152  12.725   7.944  17.683 -0.1258 -0.0210  0.0371
55236W        W98153  13.102   9.096  18.259  0.0103  0.2991  0.2110
55237W        W98154  13.858   8.547  16.785 -0.0917  0.2367  0.1327
55238W        W98155  13.217   9.981  16.313  0.1041 -0.0029  0.1028
55239W        W98156  15.045  10.046  16.060  0.4703  0.1266 -0.0564
55240W        W98157  11.734   8.901  16.454 -0.3195 -0.3313 -0.1071
55241W        W98158  13.614   6.993  18.246  0.2648 -0.1121  0.1827
55242W        W98159  10.283   8.536  18.160 -0.0441 -0.0115  0.0918
55243W        W98160  13.395  11.122  16.020  0.1271  0.0056 -0.0889
55244W        W98161  11.355   5.017  17.185  0.0324  0.1757 -0.0669
55245W        W98162  13.908  11.298  16.136 -0.0489 -0.2173 -0.0979
55246W        W98163  11.467   9.071  20.441  0.5617  0.1497  0.0892
55247W        W98164  11.958   8.388  20.202  0.4432 -0.1390  0.0919
55248W        W98165  10.875  11.615  17.427  0.0434 -0.2378  0.0840
55249W        W98166  12.738   9.348  15.017  0.1517  0.1496 -0.1046
55250W        W98167  13.247   9.006  16.866  0.0122  0.0366  0.1214
55251W        W98168  12.284  11.991  17.238 -0.0451  0.0554  0.0906
55252W        W98169  10.137   7.900  16.387  0.0577  0.2611 -0.1250
55253W        W98170  11.705   7.573  16.742 -0.0160 -0.0008  0.1778
55254W        W98171  10.830   9.604  15.635  0.3368 -0.4361  0.2434
55255W        W98172  13.526  10.603  14.631 -0.1099 -0.2664  0.1053
55256W        W98173  12.278   9.969  17.464 -0.0371  0.1535  0.0543
55257W        W98174  14.838   9.165  19.757  0.0709 -0.0740  0.0949
55258W        W98175  12.438   7.303  15.294 -0.1358 -0.0776 -0.1139
55259W        W98176  13.328  10.444  15.963 -0.0682  0.0792  0.1167
55260W        W98177  14.191   8.933  17.085  0.1837  0.0863 -0.1907
55261W        W98178  12.285  12.989  20.389 -0.0417  0.2352 -0.0972
55262W        W98179  10.231   9.086  19.909  0.0315  0.1517  0.2634
55263W        W98180  11.652   8.120  16.933 -0.0492 -0.1676 -0.5828
55264W        W98181  11.164   8.629  20.156 -0.0824  0.1991  0.0407
55265W        W98182  13.681   6.971  19.627  0.0301  0.1332  0.0226
55266W        W98183  11.376  11.733  19.420 -0.1853  0.0305  0.0833
55267W        W98184  14.779  10.998  15.000  0.1722  0.0978 -0.0179
55268W        W98185  12.486   7.639  16.127 -0.1501  0.1699  0.0801
55269W        W98186  11.441   9.626  18.098  0.0075 -0.5541 -0.0419
55270W        W98187  12.115   8.361  16.925 -0.2043  0.1686  0.0868
55271W        W98188  12.888  11.223  15.971 -0.0017 -0.2910  0.0208
55272W        W98189  11.436   7.211  17.063  0.2268 -0.0682 -0.1596
55273W        W98190  12.113  10.762  16.294  0.1620 -0.0328  0.2741
55274W        W98191  13.105  10.024  18.293 -0.0405  0.2497  0.1310
55275W        W98192  11.940  10.762  18.577 -0.1655 -0.0553  0.0567
55276W        W98193  10.290   7.514  16.669 -0.2296 -0.0239 -0.0301
55277W        W98194  12.998   9.569  16.061 -0.0395 -0.3099 -0.0397
55278W        W98195  11.273   8.277  17.911 -0.0393 -0.0270 -0.1265
55279W        W98196  14.090   7.608  18.941 -0.1175 -0.0230 -0.2889
55280W        W98197  12.755   7.811  19.798  0.1348  0.0317  0.1720
55281W        W98198  12.817   7.371  16.868 -0.3069 -0.0214  0.3072
55282W        W98199  12.470   8.669  20.099 -0.2426  0.4888  0.1649
55283W        W98200  11.267   8.348  20.528 -0.2385  0.0551  0.1430
55284W        W98201  12.381   8.832  17.731  0.0715  0.3595 -0.0933
55285W        W98202  14.930   7.734  19.728  0.1147 -0.2805  0.0705
55286W        W98203  13.574   9.140  15.479  0.0791  0.1551 -0.0778
55287W        W98204  11.018  10.100  20.304 -0.2203 -0.2122  0.2817
55288W        W98205  12.423   7.293  19.450 -0.1118 -0.1569  0.0294
55289W        W98206  12.760   7.324  17.430  0.2249 -0.0462  0.1069
55290W        W98207  11.264   9.790  17.319  0.1899  0.0100  0.0598
55291W        W98208  10.807   9.030  17.732 -0.2931  0.1601  0.0292
55292W        W98209  15.723  11.108  20.790 -0.3870  0.0685  0.0264
55293W        W98210  11.292   8.197  16.035 -0.0379 -0.3233 -0.0946
55294W        W98211  13.612   8.143  15.566 -0.3799 -0.0665  0.0621
55295W        W98212  13.959   9.502  17.050  0.2655 -0.1227  0.1748
55296W        W98213  11.774  10.348  15.914 -0.0354  0.2709  0.1226
55297W        W98214  15.159   9.106  16.120 -0.2425 -0.0088  0.3582
55298W        W98215  14.490  11.448  16.613 -0.0831  0.3790 -0.2290
55299W        W98216  10.973   7.627  19.883  0.0185 -0.3011  0.3131
55300W        W98217  13.462  10.254  19.320  0.0330 -0.1318 -0.2115
55301W        W98218  15.259   8.790  17.662  0.1145 -0.2505  0.0266
55302W        W98219  12.560   6.574  18.162 -0.2313  0.1351  0.1773
55303W        W98220  10.663   7.958  16.810  0.0298 -0.1191 -0.1806
55304W        W98221  10.087  10.658  17.249 -0.0702 -0.3959 -0.1288
55305W        W98222  12.165   7.522  16.477 -0.4407 -0.3444 -0.1103
55306W        W98223  13.143   6.659  18.057 -0.3035 -0.0535  0.1446
55307W        W98224  11.616  10.667  16.261  0.2492  0.1412  0.1269
55308W        W98225  16.781   7.151  19.909  0.2038 -0.0489  0.1216
55309W        W98226  12.136   8.986  17.326 -0.0724 -0.2036 -0.1172
55310W        W98227  10.151  10.528  20.446 -0.1962  0.2184  0.1761
55311W        W98228  11.136   7.498  16.779 -0.2324  0.0890  0.1268
55312W        W98229  12.075   9.091  19.263  0.0101 -0.0219 -0.1287
55313W        W98230  12.119   8.496  16.367 -0.0491 -0.0965  0.2133
55314W        W98231  13.346  11.155  16.981 -0.1569  0.2904  0.0749
55315W        W98232  14.002   9.264  17.511  0.2760  0.0805 -0.5087
55316W        W98233  12.826   8.752  16.784 -0.1254  0.4540  0.0541
55317W        W98234  13.699  10.522  15.145  0.4420 -0.0615  0.0756
55318W        W98235  12.115   8.057  15.604 -0.1153  0.3072  0.2889
55319W        W98236  15.713   9.262  16.307  0.1750  0.1137 -0.0071
55320W        W98237  13.663   7.645  15.736 -0.2690 -0.1494 -0.2205
55321W        W98238  11.335   9.220  17.810  0.1648 -0.0080  0.0749
55322W        W98239  11.166   9.552  16.010  0.0763 -0.1723  0.0189
55323W        W98240  12.174   9.022  16.237 -0.0941  0.1902  0.1555
55324W        W98241  12.014   9.453  17.233 -0.0190 -0.1363 -0.2606
55325W        W98242  14.039   8.095  18.658 -0.4182 -0.2069  0.1198
55326W        W98243  11.263   8.966  19.780  0.0866  0.5992 -0.1062
55327W        W98244  12.210   8.791  16.748  0.2599  0.1335 -0.1260
55328W        W98245  10.782  10.430  18.450 -0.1723 -0.1110 -0.2515
55329W        W98246  12.342   9.677  16.854 -0.0471  0.0658 -0.2189
55330W        W98247  10.093   6.049  17.586 -0.0775  0.0774 -0.0219
55331W        W98248  10.128   7.630  17.609 -0.1245  0.1702  0.3359
55332W        W98249  12.190   9.489  16.208 -0.1573  0.0176  0.1841
55333W        W98250  13.503   9.588  18.932 -0.1625  0.0195 -0.0202
55334W        W98251  12.849   6.917  16.626  0.0346  0.0303 -0.1946
55335W        W98252  14.906  10.337  18.554  0.1199  0.0840  0.0145
55336W        W98253  12.345   6.891  16.606 -0.0228 -0.1202 -0.0882
55337W        W98254  12.211   7.918  19.519 -0.1881  0.0442 -0.2074
55338W        W98255  13.227   5.381  19.560  0.0982 -0.0378  0.1533
55339W        W98256   8.680   5.441  17.152  0.0320 -0.1623 -0.0663
55340W        W98257  11.979   7.361  18.556 -0.4020 -0.4654 -0.1018
55341W        W98258  13.995   8.814  18.507 -0.1860  0.2741  0.3248
55342W        W98259  13.600   9.653  16.610 -0.0778 -0.0921 -0.0935
55343W        W98260  13.395   9.080  17.787 -0.0739 -0.1204 -0.1225
55344W        W98261  11.601  10.233  16.853 -0.1420 -0.0847  0.0812
55345W        W98262  11.071   5.799  17.909  0.1106  0.1513 -0.0456
55346W        W98263  14.073  11.058  17.853  0.0566 -0.6969 -0.0615
55347W        W98264  11.248  10.561  17.755  0.0895 -0.2625  0.1284
55348W        W98265  14.052   7.892  15.669  0.4505 -0.3028 -0.0813
55349W        W98266  14.912   7.227  16.727  0.0424  0.0702 -0.0150
55350W        W98267  13.339   7.951  16.113 -0.0142 -0.0555 -0.0210
55351W        W98268  11.793   7.632  19.502 -0.3431 -0.3523  0.1638
55352W        W98269  11.925   9.706  18.104  0.3165  0.0497  0.1923
55353W        W98270  13.355   7.615  17.073  0.2919 -0.1715 -0.1381
55354W        W98271  13.842   6.433  16.644 -0.1724  0.0388 -0.1252
55355W        W98272  12.546   9.188  17.020 -0.0573 -0.2793 -0.1452
55356W        W98273  14.136  10.042  15.730 -0.0182  0.0851 -0.0341
55357W        W98274  11.894   7.139  16.729 -0.0852  0.0115  0.0178
55358W        W98275  11.856   8.275  15.964  0.0517 -0.1750  0.1218
55359W        W98276  12.264   7.519  18.939 -0.1780  0.0387 -0.0287
55360W        W98277  11.430  10.322  17.300 -0.3223 -0.0418  0.1502
55361W        W98278  11.951   8.601  19.190 -0.2810 -0.0032  0.1455
55362W        W98279  12.406   9.911  15.378  0.0480 -0.1924 -0.2593
55363W        W98280  15.763   8.955  17.429  0.2418 -0.0732 -0.2778
55364W        W98281  12.126  10.541  18.098 -0.2240  0.0170  0.1789
55365W        W98282  13.405   9.688  20.296  0.2120  0.0424  0.0809
55366W        W98283  11.683   8.592  18.382  0.0992  0.0439 -0.1009
55367W        W98284  13.602   9.869  17.210 -0.3820 -0.2187  0.0017
55368W        W98285  11.394   4.895  17.717 -0.1359  0.0093  0.0096
55369W        W98286  11.657   7.824  17.723 -0.1052  0.2928  0.0135
55370W        W98287  12.413  10.244  15.768  0.3541  0.2105 -0.2143
55371W        W98288  12.739   9.247  17.890 -0.3312 -0.0892  0.4304
55372W        W98289  10.609   8.580  18.919 -0.0758  0.1142 -0.0762
55373W        W98290  13.665   7.288  15.373 -0.1227 -0.2573  0.1508
55374W        W98291  11.811  10.314  21.179  0.0901 -0.0129  0.0709
55375W        W98292   9.997   8.410  18.574 -0.4369  0.1590  0.0326
55376W        W98293  10.195   8.816  22.011 -0.2319  0.3073 -0.1192
55377W        W98294  13.099   8.098  19.490  0.1710  0.1103 -0.2482
55378W        W98295  14.980   7.107  17.756  0.1308 -0.2236  0.2850
55379W        W98296  13.467   8.822  21.831  0.0971 -0.1318 -0.1481
55380W        W98297   9.751   6.807  20.952  0.0599  0.1175  0.1326
55381W        W98298  13.611   9.150  17.240  0.3625 -0.3412  0.3302
55382W        W98299  11.276   5.568  23.018  0.2479  0.0684  0.0876
55383W        W98300  13.035   9.391  21.297  0.1826 -0.0700 -0.1555
55384W        W98301  13.699   8.092  23.228  0.0624  0.0040  0.5002
55385W        W98302  13.176   8.701  20.588  0.0080  0.0040  0.1327
55386W        W98303  12.770   7.661  21.973 -0.1153 -0.3340 -0.3038
55387W        W98304  10.630  10.778  21.327  0.0036  0.2518 -0.1213
55388W        W98305  12.071   5.862  19.741  0.1322  0.1047  0.0155
55389W        W98306   9.323   7.342  22.369  0.0988 -0.1166 -0.2822
55390W        W98307  12.764   7.627  22.532  0.0032 -0.1967  0.1768
55391W        W98308  10.817   7.155  20.144 -0.0916 -0.0484  0.3082
55392W        W98309  11.783   9.500  23.414 -0.2992  0.0121  0.1059
55393W        W98310  13.641   7.510  17.979  0.1287 -0.0066  0.5129
55394W        W98311  11.754   9.863  20.946 -0.3779 -0.0129 -0.0130
55395W        W98312  13.099   7.255  21.608  0.0971 -0.2769 -0.0953
55396W        W98313  13.530   5.852  21.800  0.1012  0.3030  0.3963
55397W        W98314   9.372  11.210  20.805  0.1779 -0.2265  0.1272
55398W        W98315  11.041   8.045  21.568 -0.0048 -0.3552  0.0782
55399W        W98316  10.755   7.886  20.327  0.0138  0.3354  0.2627
55400W        W98317  11.711   6.976  21.403 -0.2277 -0.1920 -0.0822
55401W        W98318  14.109   7.031  21.659 -0.0922 -0.1145  0.2433
55402W        W98319  15.042   8.423  20.747 -0.2392  0.1761  0.1543
55403W        W98320  12.565   9.789  22.282 -0.0964  0.1024 -0.3539
55404W        W98321  12.953  10.363  18.764 -0.1643  0.0914 -0.2628
55405W        W98322  12.776   6.651  22.642  0.3219  0.1381  0.0866
55406W        W98323  12.772   9.059  18.617  0.2971  0.3686 -0.1735
55407W        W98324  10.157  12.408  21.742  0.2903 -0.1373  0.0361
55408W        W98325  12.179  10.197  20.238 -0.1409 -0.2190 -0.1000
55409W        W98326  14.425  10.074  19.915  0.2248 -0.0930 -0.1135
55410W        W98327  12.547  10.506  22.914 -0.1281  0.2886  0.0576
55411W        W98328  12.354  10.546  21.481  0.0278 -0.1442  0.1138
55412W        W98329  11.046   9.382  19.978 -0.1305  0.1038 -0.1241
55413W        W98330  11.381   8.599  22.533 -0.2465 -0.0412  0.4026
55414W        W98331  12.959  10.794  21.469  0.0589  0.0877  0.1412
55415W        W98332  12.354   9.275  20.378 -0.0936 -0.1369 -0.2580
55416W        W98333  10.442   8.523  22.482 -0.0586  0.0672 -0.3480
55417W        W98334  10.190   9.327  19.467  0.1987  0.4019  0.0012
55418W        W98335  12.216   9.915  20.678 -0.2499  0.1000 -0.2025
55419W        W98336  10.395   8.880  22.892  0.1705  0.3566  0.0422
55420W        W98337  11.341  11.052  22.588  0.2911  0.0076  0.1775
55421W        W98338  12.533   7.434  22.966 -0.2980  0.2389  0.0130
55422W        W98339  11.623   7.315  20.514  0.2159 -0.0193  0.1195
55423W        W98340  12.961   9.944  17.397  0.5010 -0.0109  0.0234
55424W        W98341  12.349   8.227  19.900 -0.0725 -0.3158 -0.3025
55425W        W98342  12.049   8.874  20.366 -0.0227 -0.0170  0.2205
55426W        W98343  11.548   6.586  19.994 -0.1357 -0.0761 -0.1484
55427W        W98344  11.439   9.592  20.336  0.1748 -0.2712  0.1833
55428W        W98345  11.436   7.226  20.968 -0.0217  0.0637  0.2999
55429W        W98346  13.286  11.265  21.652  0.1370 -0.0578 -0.2339
55430W        W98347  12.813   8.347  19.872 -0.0105 -0.3188  0.2002
55431W        W98348  12.583  10.621  19.309  0.2264 -0.5164 -0.3258
55432W        W98349  11.930   9.833  22.908 -0.1743  0.1010 -0.0871
55433W        W98350   9.464   8.132  22.312  0.2803 -0.0357  0.2810
55434W        W98351  13.315  10.179  20.164 -0.2944  0.0664 -0.1394
55435W        W98352  14.587   8.774  20.017  0.3865 -0.2435  0.0955
55436W        W98353  12.594  10.467  19.882  0.1484  0.1585  0.3151
55437W        W98354  12.385   7.239  19.933 -0.1024 -0.0606  0.0685
55438W        W98355  10.647   7.056  22.945  0.0701 -0.1861 -0.2169
55439W        W98356   9.533   9.126  20.801 -0.0564  0.3482  0.1404
55440W        W98357   9.988   6.929  19.390  0.1225 -0.1236  0.0527
55441W        W98358  13.170   7.863  21.739 -0.3025  0.1293 -0.0160
55442W        W98359  13.245   9.735  19.377 -0.0353 -0.2466  0.1115
55443W        W98360  12.232   8.213  21.295  0.1451 -0.2487  0.2876
55444W        W98361  11.838   8.738  20.837 -0.1203 -0.1073  0.0946
55445W        W98362  12.622  11.020  21.070 -0.0317  0.0518  0.2291
55446W        W98363  14.235   9.342  20.275  0.2124 -0.0280  0.0554
55447W        W98364  11.784   6.831  23.086  0.2514  0.0307  0.0468
55448W        W98365  14.642   6.810  21.849 -0.2517 -0.1638 -0.1892
55449W        W98366  12.563   8.535  18.535  0.0270  0.0418 -0.2731
55450W        W98367  12.250   7.277  20.414  0.0344 -0.0433  0.2176
55451W        W98368  13.273  10.422  21.324 -0.1386 -0.1146 -0.1636
55452W        W98369  13.723   7.718  20.017  0.0398  0.2113 -0.2345
55453W        W98370  11.108   9.930  23.555 -0.0927  0.3448 -0.2123
55454W        W98371  11.216   7.024  23.043  0.1496  0.0279 -0.0768
55455W        W98372  11.450   9.155  23.728 -0.0291 -0.0595 -0.1154
55456W        W98373   9.730   8.609  21.030  0.3576 -0.0781  0.1661
55457W        W98374  10.392   8.317  22.023 -0.2397  0.0192 -0.3698
55458W        W98375  10.875   8.127  23.379  0.1533  0.2591  0.2212
55459W        W98376  11.867   7.882  22.185  0.2070 -0.0547  0.4249
55460W        W98377  13.503   9.801  20.861 -0.2823  0.1638  0.2875
55461W        W98378  12.822   7.127  19.107  0.1784 -0.0450 -0.2309
55462W        W98379  11.535   6.102  20.909  0.0445  0.0635  0.1352
55463W        W98380  14.000   7.545  21.742  0.1749 -0.1350 -0.1803
55464W        W98381  10.027   9.101  20.764 -0.0569  0.0489  0.0323
55465W        W98382  13.189  12.299  20.853 -0.0601 -0.1314 -0.2393
55466W        W98383  13.717   6.808  20.714 -0.1206 -0.0136  0.0389
55467W        W98384  12.824   9.868  18.652 -0.2010 -0.4655  0.1309
55468W        W98385   9.822   8.273  21.504  0.2418  0.2035  0.2499
55469W        W98386  10.226   5.971  23.549  0.0831  0.2265 -0.4726
55470W        W98387  12.074   7.876  22.811  0.2963  0.2828  0.0678
55471W        W98388  10.272   7.415  21.577  0.3750 -0.2358 -0.2457
55472W        W98389  12.025   7.892  21.573  0.3129  0.0178  0.1115
55473W        W98390  12.668   5.559  19.581  0.0268  0.1700 -0.3388
55474W        W98391  14.015   7.320  19.980  0.3273 -0.1946  0.1108
55475W        W98392  12.626   8.059  21.022  0.1193 -0.0881 -0.1063
55476W        W98393  10.434   8.601  20.962  0.3389  0.0702  0.3568
55477W        W98394  12.571   8.554  23.622 -0.4238  0.3228  0.1701
55478W        W98395  11.907  11.357  18.895  0.1209  0.2835  0.0584
55479W        W98396  11.544   8.210  21.588  0.0841 -0.0136 -0.2436
55480W        W98397  13.290   8.556  20.115  0.0140 -0.0188  0.1288
55481W        W98398   9.781   7.665  22.975  0.1390 -0.0397 -0.1446
55482W        W98399  12.782   6.041  19.821 -0.0363  0.0467 -0.1002
55483W        W98400  12.002  11.507  20.542  0.0072  0.0383  0.1199
55484W        W98401  11.100  10.430  21.282  0.2029  0.2381 -0.0046
55485W        W98402   9.761   7.717  22.448  0.0470  0.3647 -0.2117
55486W        W98403  13.951   9.391  19.734 -0.1906 -0.2381  0.0448
55487W        W98404  12.174   9.568  19.479  0.0064  0.0706  0.1698
55488W        W98405  10.750   8.245  21.130  0.1293  0.2112 -0.0867
55489W        W98406  11.340   7.878  21.912 -0.1390  0.2108  0.1594
55490W        W98407  13.057   7.627  20.714 -0.4664 -0.1386 -0.0088
55491W        W98408  13.551   5.375  19.961 -0.1187 -0.0730 -0.0323
55492W        W98409  10.537   7.811  19.524 -0.0164 -0.3296 -0.0525
55493W        W98410  11.128   8.412  21.910  0.0181  0.1105 -0.0916
55494W        W98411   9.781  10.437  20.931  0.0167 -0.2859  0.0523
55495W        W98412  13.393   9.252  20.875  0.5264 -0.0152  0.0701
55496W        W98413  11.744   8.416  21.163 -0.0987 -0.0237  0.5054
55497W        W98414  12.128   8.864  21.295 -0.0007  0.0580  0.2546
55498W        W98415  11.561   9.891  23.191 -0.0558 -0.1358 -0.1953
55499W        W98416  12.524   6.874  21.855  0.0234 -0.1719 -0.1013
55500W        W98417  11.019   8.956  21.664  0.0949 -0.1832  0.1423
55501W        W98418  11.974  10.836  24.696  0.0600  0.0359 -0.0457
55502W        W98419  12.970   8.884  21.510  0.0623  0.2193 -0.4035
55503W        W98420  14.306   9.655  23.101  0.1937 -0.0254  0.2885
55504W        W98421  13.431   8.267  21.577  0.0121  0.2528 -0.0619
55505W        W98422  13.642   8.868  20.983  0.1037  0.3130 -0.0157
55506W        W98423  11.654   6.022  19.427 -0.0311  0.2661 -0.1092
55507W        W98424  13.685   6.305  20.622 -0.0402  0.0983  0.3519
55508W        W98425  10.246   9.750  23.942 -0.0006  0.3420  0.0451
55509W        W98426  11.905   7.997  19.911  0.0262 -0.0154 -0.0318
55510W        W98427  11.530   9.320  22.087  0.0468  0.1654 -0.1073
55511W        W98428  11.875   7.878  19.059 -0.1787 -0.1971  0.0360
55512W        W98429  15.316  10.542  19.989  0.2925  0.0843  0.1779
55513W        W98430  13.678  10.049  20.446  0.2809  0.1856  0.0688
55514W        W98431  11.896   8.281  23.197  0.2456  0.1339 -0.0356
55515W        W98432  11.818   9.151  18.815 -0.0950  0.1157 -0.1455
55516W        W98433  11.598   7.202  23.864  0.1181  0.0362 -0.1022
55517W        W98434  11.770   8.176  19.443  0.2364  0.3227  0.0229
55518W        W98435  11.479   6.537  19.458 -0.1669  0.1393 -0.2655
55519W        W98436   8.605   9.583  19.839 -0.0949 -0.3821 -0.1139
55520W        W98437  13.672   6.834  22.875  0.0748 -0.4903  0.0652
55521W        W98438  14.743   6.477  23.821  0.1870  0.1525  0.1313
55522W        W98439  12.619   6.931  23.237  0.0260 -0.0152  0.2858
55523W        W98440  13.901   6.765  22.084  0.1519  0.0566  0.0931
55524W        W98441  14.825   7.787  18.403  0.0767  0.2900 -0.1749
55525W        W98442  13.879   6.462  23.309  0.0007  0.0838  0.0639
55526W        W98443  12.955   6.657  19.025 -0.0642 -0.0293  0.0674
55527W        W98444  12.758   7.608  23.422  0.0836  0.0677 -0.1616
55528W        W98445  12.981   9.868  23.107 -0.0555 -0.0062  0.1789
55529W        W98446  11.207   8.549  21.427 -0.0897 -0.1185  0.2248
55530W        W98447  12.234   8.965  22.522  0.0347  0.2701 -0.2480
55531W        W98448  12.979   9.745  21.652 -0.0452  0.0807 -0.1996
55532W        W98449  14.811   6.980  22.754  0.0985  0.0655 -0.1325
55533W        W98450  13.592   5.591  20.840  0.4497 -0.0935 -0.1917
55534W        W98451  11.760  12.494  21.528  0.0047 -0.0387  0.0985
55535W        W98452  11.657   9.539  19.719  0.0423 -0.0543 -0.0440
55536W        W98453  10.435   5.571  21.412 -0.1736  0.2772  0.1845
55537W        W98454  12.864   8.699  21.961 -0.3595 -0.1574 -0.1536
55538W        W98455  10.878   9.418  20.960  0.2631 -0.1495 -0.1927
55539W        W98456  12.358   8.876  21.772  0.2174 -0.0262  0.0772
55540W        W98457  10.216   9.347  22.014  0.2415 -0.2841 -0.0643
55541W        W98458  14.015   6.683  22.570  0.0406 -0.1733  0.0785
55542W        W98459  12.197  10.097  22.450  0.0592 -0.4356 -0.2224
55543W        W98460  12.276   6.740  20.042  0.0141  0.1961 -0.0148
55544W        W98461  11.861   6.994  20.825  0.4589 -0.0604 -0.0051
55545W        W98462  16.289   8.785  21.139 -0.0900 -0.1861 -0.1724
55546W        W98463  15.720   8.107  20.020 -0.0965 -0.0417  0.1387
55547W        W98464  11.060   6.143  23.183 -0.0946 -0.0323 -0.0033
55548W        W98465  10.847   5.927  24.457 -0.0013 -0.0916 -0.0074
55549W        W98466  10.849   8.868  22.674  0.0276  0.2087  0.1772
55550W        W98467  11.930   8.547  21.666 -0.1766  0.2512  0.3003
55551W        W98468  14.469   7.640  19.326 -0.1406  0.2941 -0.2941
55552W        W98469  12.584   8.564  21.369 -0.0189 -0.2287 -0.1540
55553W        W98470  12.244   7.663  23.284  0.0108 -0.2927 -0.3378
55554W        W98471   8.727   7.820  20.692  0.0921 -0.1514 -0.0987
55555W        W98472  12.340   7.644  21.192  0.0434 -0.0884  0.2219
55556W        W98473  13.529   8.119  19.781  0.0824  0.1992  0.0385
55557W        W98474  11.777  10.496  20.006 -0.0005  0.0380  0.0747
55558W        W98475  11.879   9.781  20.300  0.0178 -0.0463 -0.1997
55559W        W98476  10.078   7.621  19.812 -0.1203  0.1080  0.1702
55560W        W98477   9.960   9.695  21.482  0.2453  0.2800  0.0500
55561W        W98478  11.219   7.819  23.173 -0.0021  0.1658  0.0604
55562W        W98479  12.699   9.307  21.734  0.2312  0.1071 -0.1993
55563W        W98480  12.152   6.643  20.594 -0.1444  0.2423  0.2729
55564W        W98481  11.805   6.481  21.558 -0.2015  0.0518  0.0016
55565W        W98482  12.346   8.515  20.856  0.0950  0.3324  0.5154
55566W        W98483  12.940   9.053  20.946  0.3064 -0.0011 -0.1517
55567W        W98484  14.368   8.649  21.502 -0.2575  0.1502 -0.0063
55568W        W98485  12.779  10.027  20.776  0.2982 -0.2293 -0.2136
55569W        W98486  13.362   6.941  21.331 -0.4435 -0.3398 -0.3748
55570W        W98487  13.524   8.263  18.291  0.0195 -0.0263 -0.0791
55571W        W98488  13.905   6.221  21.760  0.0617  0.0472 -0.5705
55572W        W98489  11.850   9.972  19.856 -0.2658 -0.2482  0.1896
55573W        W98490  11.836   9.286  20.171  0.3305 -0.1736 -0.5111
55574W        W98491  11.417   7.873  19.770  0.0482  0.1683 -0.4311
55575W        W98492  13.417   7.509  21.918 -0.0131  0.0214 -0.1442
55576W        W98493  11.623   8.841  21.322 -0.1637  0.2457  0.2966
55577W        W98494  11.917  11.452  19.396  0.0327 -0.0574  0.0553
55578W        W98495  11.297   9.399  23.355  0.0788  0.1410  0.1550
55579W        W98496  13.265   6.056  19.913  0.0886  0.1008 -0.0938
55580W        W98497  11.062   9.658  17.793  0.1552  0.0746 -0.0012
55581W        W98498  11.162   4.685  23.599  0.1183 -0.0764  0.3016
55582W        W98499  11.768   7.994  24.545  0.0756 -0.0424  0.1084
55583W        W98500  12.590  10.169  21.921 -0.3285 -0.0514 -0.4226
55584W        W98501  12.149   6.549  23.232 -0.0037 -0.3368 -0.0235
55585W        W98502  11.473   6.881  21.885 -0.2297 -0.1203 -0.3070
55586W        W98503  12.980   9.777  19.948  0.2479 -0.2168  0.2009
55587W        W98504  12.715   6.400  21.803 -0.1289  0.1449  0.1201
55588W        W98505  14.357  10.818  24.001 -0.0029 -0.1804 -0.1273
55589W        W98506  11.355   8.604  20.946  0.1634 -0.2050  0.0522
55590W        W98507  12.184   8.048  20.830  0.0099 -0.0456  0.0646
55591W        W98508  11.219   6.482  18.001  0.0390  0.1357 -0.2693
55592W        W98509  11.075   9.438  21.852 -0.3760  0.0024  0.2659
55593W        W98510  12.641   7.911  22.973 -0.0255 -0.1618 -0.1469
55594W        W98511  13.210  10.256  20.643 -0.0740 -0.4159  0.0276
55595W        W98512  13.801   7.265  20.947  0.0438  0.3461 -0.0083
55596W        W98513  10.192   8.408  22.953  0.0187  0.1509  0.1710
55597W        W98514  14.047   7.847  21.057 -0.1880 -0.0615  0.1327
55598W        W98515  11.166   9.305  19.442  0.0676  0.1805  0.4235
55599W        W98516   9.813   8.372  22.022  0.4473  0.1211 -0.1444
55600W        W98517  11.864   4.442  23.751 -0.0155 -0.2019  0.0790
55601W        W98518  13.437   9.104  21.360 -0.1000 -0.0754  0.3449
55602W        W98519  11.810   6.033  21.697 -0.1514  0.0191 -0.0096
55603W        W98520  12.268   8.632  23.097 -0.0436  0.0147  0.3386
55604W        W98521  13.633   6.625  21.648  0.0240  0.0726  0.0587
55605W        W98522  13.166   7.318  22.299 -0.1042 -0.2402  0.1740
55606W        W98523  11.363   7.874  23.687  0.2789 -0.1633  0.1145
55607W        W98524  14.203  10.446  22.722 -0.0697 -0.0123 -0.0389
55608W        W98525  14.195   8.367  20.032 -0.1169 -0.1138 -0.0798
55609W        W98526  13.462   6.967  21.952 -0.1320 -0.3260  0.1143
55610W        W98527  11.703   9.550  18.553  0.0143 -0.3796 -0.2533
55611W        W98528  13.825   8.684  21.457  0.0101  0.0796  0.1322
55612W        W98529  11.582   7.437  21.738  0.3787 -0.2515  0.0512
55613W        W98530  14.014   7.156  23.091 -0.0598  0.0658  0.1132
55614W        W98531  11.243   7.064  18.597 -0.0566 -0.3569  0.2079
55615W        W98532  13.896   6.695  23.849 -0.1686  0.2569  0.1342
55616W        W98533  10.170  11.628  21.770  0.2034 -0.1353 -0.3509
55617W        W98534  13.729   8.111  20.259  0.4368 -0.0237 -0.1748
55618W        W98535  13.235   6.379  20.430 -0.2214 -0.4677 -0.2108
55619W        W98536  10.964   6.770  20.943 -0.0671  0.0949  0.0388
55620W        W98537  11.710  11.481  23.575 -0.0840  0.0657 -0.0140
55621W        W98538  10.291   8.201  20.310 -0.4158 -0.3504  0.2624
55622W        W98539  10.903   8.940  21.097  0.1184 -0.0359  0.0980
55623W        W98540  12.634   9.055  22.245  0.3547  0.0162  0.2449
55624W        W98541  10.909   7.986  22.117 -0.0347  0.1788 -0.1725
55625W        W98542  13.540   7.972  19.324 -0.0482 -0.2426  0.0663
55626W        W98543  13.869   8.385  23.786  0.7099  0.0687 -0.1588
55627W        W98544  11.026   7.970  20.740 -0.1484  0.0702 -0.0877
55628W        W98545  14.290   6.739  23.032  0.1203 -0.0055  0.5678
55629W        W98546  13.254  11.677  21.375 -0.1386  0.0461 -0.1454
55630W        W98547  11.833   8.657  22.851 -0.2472 -0.1162  0.2939
55631W        W98548  10.693   9.905  22.131  0.0365 -0.1170  0.1359
55632W        W98549  11.340   6.708  22.722 -0.2495 -0.0441  0.0379
55633W        W98550  14.172   8.220  20.704  0.2041 -0.1270 -0.1336
55634W        W98551  11.363   7.624  21.322 -0.2861 -0.2893 -0.3896
55635W        W98552  13.016   7.671  24.413 -0.2161  0.1807 -0.2975
55636W        W98553  12.643   9.456  20.796 -0.3499  0.0616  0.0725
55637W        W98554  13.694  10.083  21.308 -0.4309 -0.1159 -0.1160
55638W        W98555  11.380   9.524  21.141 -0.0730  0.0309 -0.0981
55639W        W98556  14.091   8.644  20.971 -0.0025 -0.0613  0.0469
55640W        W98557  10.731   8.532  21.622 -0.1604 -0.2184 -0.2795
55641W        W98558   9.595   8.560  22.862 -0.0313  0.0369  0.0007
55642W        W98559  12.859   7.705  21.329 -0.3940  0.1219 -0.0671
55643W        W98560  13.035   9.254  19.647  0.1153  0.2357 -0.2541
55644W        W98561  12.230   5.291  20.402  0.0366 -0.0039 -0.3582
55645W        W98562  13.480   8.748  18.145 -0.0742 -0.4157  0.1124
55646W        W98563   9.924   8.927  23.111 -0.0564 -0.0600 -0.2373
55647W        W98564  12.174   9.598  21.133 -0.0626  0.0645 -0.3764
55648W        W98565   9.110  11.985  18.945 -0.0050 -0.0904  0.0280
55649W        W98566  12.031   8.482  18.720 -0.0033  0.1019  0.2295
55650W        W98567  14.013  10.302  19.579  0.0941  0.2300 -0.2275
55651W        W98568  13.194   9.300  21.785  0.2433 -0.0960 -0.3242
55652W        W98569  12.440   7.693  18.348 -0.0838  0.1415 -0.1618
55653W        W98570  12.203   9.336  22.076  0.0311  0.1874  0.0045
55654W        W98571   8.763  10.068  20.265 -0.0215 -0.1791 -0.1180
55655W        W98572  14.372   8.004  18.265  0.0989 -0.0286  0.3271
55656W        W98573  10.413   9.526  19.867 -0.0238  0.2059 -0.5121
55657W        W98574  12.951   8.685  22.519 -0.1892 -0.1717  0.1262
55658W        W98575  12.798   8.281  18.918 -0.0174  0.0868 -0.0370
55659W        W98576  15.308   8.086  22.201  0.2508  0.1049  0.0006
55660W        W98577  12.889   8.823  19.900 -0.3584  0.0580  0.1662
55661W        W98578  12.369   7.914  22.177  0.0054 -0.3194  0.0380
55662W        W98579  12.169   6.176  21.261 -0.1910  0.1373 -0.3299
55663W        W98580  10.839   6.586  19.525  0.3166 -0.0290 -0.0240
55664W        W98581  12.747   9.464  22.990 -0.0617 -0.1979 -0.0053
55665W        W98582  14.399   8.482  23.731  0.0722 -0.0807 -0.5219
55666W        W98583   9.073   9.202  23.178  0.0074 -0.1265  0.0153
55667W        W98584  14.405   9.718  18.994 -0.0775  0.1083  0.2007
55668W        W98585  13.109   9.309  19.140  0.0054  0.0037  0.0849
55669W        W98586  12.980   6.614  20.828 -0.0853  0.2012 -0.3348
55670W        W98587  12.888   8.146  22.042  0.0526 -0.0083 -0.0028
55671W        W98588  11.972  10.402  17.190 -0.0515  0.0702  0.2647
55672W        W98589  13.560   9.311  19.358  0.0323  0.3351 -0.1369
55673W        W98590  12.432  11.260  19.286 -0.1065 -0.3511 -0.0752
55674W        W98591  11.785   9.190  22.499  0.1695 -0.0036  0.2921
55675W        W98592  13.064  10.343  22.970 -0.0477  0.1353 -0.1753
55676W        W98593  10.397   8.583  19.835  0.0903 -0.2544  0.5672
55677W        W98594  12.487   8.719  19.527 -0.0408  0.3983 -0.0774
55678W        W98595   9.074   8.937  21.741  0.1586  0.4244 -0.1887
55679W        W98596  15.351   8.802  21.687 -0.1324 -0.1620 -0.1249
55680W        W98597  13.396   9.077  20.388  0.1128 -0.2965 -0.0270
55681W        W98598  14.881   7.304  19.482  0.0891  0.5436 -0.1579
55682W        W98599  12.353   8.280  22.677  0.2680  0.3228  0.1632
55683W        W98600  10.071   8.312  23.735  0.0590 -0.0192 -0.1640
55684W        W98601  11.689   8.774  20.045  0.3573  0.0868 -0.3215
55685W        W98602  12.863   8.241  21.556 -0.0001  0.1011  0.2506
55686W        W98603  10.601   8.136  19.863  0.1803 -0.3549 -0.3081
55687W        W98604  11.613   9.412  22.910 -0.0088  0.1357  0.0768
55688W        W98605  10.594   7.756  21.819  0.0293  0.1887  0.0914
55689W        W98606  13.327   5.810  18.047  0.0923 -0.4516  0.0471
55690W        W98607  10.348   7.081  22.512 -0.1138 -0.1162  0.0951
55691W        W98608  11.840   8.251  22.580 -0.0556  0.3671 -0.0796
55692W        W98609  12.554   9.954  22.857 -0.3733  0.2168  0.2040
55693W        W98610  11.609   7.443  19.032 -0.1127 -0.1876  0.1647
55694W        W98611  14.810   9.930  20.812 -0.2288  0.3015 -0.0489
55695W        W98612  13.682   8.569  20.499  0.1361 -0.0756  0.0150
55696W        W98613   9.908  10.901  20.248  0.3016 -0.0593 -0.3386
55697W        W98614  15.742   7.323  21.832  0.2583  0.2528  0.0078
55698W        W98615  12.765  10.606  23.935  0.6746 -0.0680  0.2260
55699W        W98616  11.794   5.799  21.196  0.1037 -0.1607 -0.1249
55700W        W98617  12.585   9.965  23.390  0.3390  0.1484 -0.1345
55701W        W98618  12.798   8.273  24.228  0.0932  0.4478  0.0394
55702W        W98619  12.447   5.852  20.999  0.1595  0.0207  0.0488
55703W        W98620  11.354   7.153  20.074 -0.1717 -0.2890 -0.3872
55704W        W98621  11.836   9.277  21.234  0.2862  0.1161  0.3132
55705W        W98622  12.392   7.424  24.183  0.1237 -0.0973  0.1940
55706W        W98623  11.983   7.108  21.759  0.1532  0.2156 -0.0615
55707W        W98624  12.390  10.999  17.252  0.1851  0.1658  0.2329
55708W        W98625  12.359   8.158  23.381 -0.4307  0.1300 -0.0361
55709W        W98626  12.302   9.379  22.728  0.1636  0.1803  0.0095
55710W        W98627  11.760  11.178  22.392  0.2849  0.0151  0.0869
55711W        W98628  12.813   7.469  20.166 -0.1952 -0.0087  0.0547
55712W        W98629  11.024   7.479  21.903 -0.1369 -0.3091 -0.0215
55713W        W98630  14.383   9.074  19.562 -0.0316  0.3072 -0.0189
55714W        W98631  11.525   9.328  21.611  0.6302  0.0551  0.0508
55715W        W98632  14.032   9.812  20.169  0.2204 -0.2440 -0.2236
55716W        W98633  12.020   9.644  18.974 -0.1711  0.0326  0.2605
55717W        W98634  14.819   9.043  22.746  0.3292  0.1593  0.1245
55718W        W98635  12.536   6.947  20.738 -0.0792 -0.2602 -0.2160
55719W        W98636  14.324   5.701  20.132  0.0826 -0.1962 -0.0433
55720W        W98637  13.426   4.453  20.412 -0.1108 -0.3779  0.0923
55721W        W98638  13.435  11.915  23.246  0.1357 -0.2304 -0.1338
55722W        W98639   9.398   9.474  19.160  0.1777  0.0655 -0.2261
55723W        W98640  11.552   8.311  19.908 -0.0325 -0.3613 -0.0222
55724W        W98641   9.246   7.760  22.627  0.4636 -0.0290  0.1773
55725W        W98642  13.180   6.947  22.759  0.0017  0.1259 -0.1464
55726W        W98643  12.422   6.894  24.206 -0.3612 -0.2604  0.0839
55727W        W98644  10.409   9.184  23.258  0.1824 -0.1798 -0.0238
55728W        W98645  10.066   7.507  20.406 -0.0212  0.1593  0.1472
55729W        W98646  13.309   8.170  20.573 -0.0738  0.2898 -0.6821
55730W        W98647  10.573   4.925  21.741  0.1700 -0.2765  0.4999
55731W        W98648   9.587   7.606  20.482  0.1158  0.0923  0.2273
55732W        W98649  11.011  10.276  19.333  0.3404  0.3088 -0.0481
55733W        W98650  14.061   9.394  18.366 -0.3002  0.3471  0.1141
55734W        W98651  10.035   5.710  21.775 -0.0519 -0.0405  0.1238
55735W        W98652  14.450   8.520  21.961 -0.1559  0.1655  0.0354
55736W        W98653   9.204  10.705  19.641  0.0775 -0.0138 -0.1827
55737W        W98654  12.042   6.991  23.804 -0.1848  0.2312 -0.1813
55738W        W98655  12.126   6.502  22.745 -0.0778 -0.2388  0.2607
55739W        W98656  13.038   5.635  19.922  0.0693 -0.0781  0.0224
55740W        W98657  12.856   8.509  20.977 -0.0570 -0.0703  0.0990
55741W        W98658  12.424  10.383  20.664  0.3853  0.1073  0.1737
55742W        W98659  12.737   7.775  18.804  0.1651  0.0133 -0.2134
55743W        W98660  12.353  11.751  20.236  0.1794  0.3702 -0.0361
55744W        W98661  12.401  11.494  23.072  0.0914 -0.1569  0.0733
55745W        W98662  10.421   9.136  23.801 -0.1447 -0.2179 -0.2165
55746W        W98663  10.893   9.210  23.100  0.0521  0.1827 -0.0829
55747W        W98664   8.794   8.803  23.343  0.0710  0.0520 -0.1454
55748W        W98665  14.747   9.281  20.182 -0.4293  0.5656  0.1767
55749W        W98666  11.841   8.677  22.301  0.1774  0.0875 -0.0722
55750W        W98667  13.088   9.590  20.616  0.1824  0.0381 -0.0081
55751W        W98668  11.534   6.711  24.001  0.3744 -0.0883 -0.2109
55752W        W98669  13.855   8.440  21.862  0.1499 -0.0873  0.0859
55753W        W98670  12.951   8.798  19.126 -0.0868  0.1668  0.0474
55754W        W98671  11.587   8.349  18.896 -0.4011  0.4265 -0.0857
55755W        W98672  12.992   9.315  20.228  0.0102 -0.2407  0.3710
55756W        W98673  11.890  10.349  20.592  0.0316 -0.1900 -0.1759
55757W        W98674  12.693   6.898  20.253  0.1038  0.0905 -0.2238
55758W        W98675  11.129  10.138  16.916  0.2372 -0.1749 -0.0074
55759W        W98676  12.693   8.879  20.501 -0.0427  0.2688 -0.2332
55760W        W98677  12.621   9.798  20.324  0.0293 -0.2251 -0.1996
55761W        W98678  10.694   8.689  23.254  0.1240 -0.0243 -0.0887
55762W        W98679  12.338   7.735  20.107  0.0714 -0.2220 -0.0161
55763W        W98680  17.387  10.874  20.040 -0.2529 -0.1483  0.0773
55764W        W98681  10.174   9.849  20.428  0.1148  0.0727  0.3042
55765W        W98682  12.434   8.502  22.271 -0.0304 -0.2912 -0.0687
55766W        W98683  13.003  12.831  23.168 -0.0359 -0.4447  0.1481
55767W        W98684  11.774   6.691  22.449  0.2770  0.2412  0.1159
55768W        W98685  11.400   5.483  25.240  0.1664  0.2068  0.1091
55769W        W98686  12.116   8.596  18.096 -0.0181 -0.0596  0.2229
55770W        W98687  11.475   6.935  19.189  0.1317  0.2641  0.2973
55771W        W98688  12.788   7.208  21.140 -0.1824 -0.0389 -0.0674
55772W        W98689  11.974   7.507  20.843  0.0842  0.0626  0.0243
55773W        W98690  12.507   7.245  23.677  0.0159  0.0072 -0.0315
55774W        W98691  13.046  10.725  23.442 -0.0817 -0.0579 -0.0568
55775W        W98692  13.425   9.513  19.834 -0.0497  0.0490 -0.2032
55776W        W98693  10.542   8.162  25.582  0.3151 -0.0685  0.0727
55777W        W98694  10.766   9.317  21.438  0.2802  0.1826 -0.0640
55778W        W98695  12.402   7.848  23.809 -0.0138  0.0115  0.0218
55779W        W98696  14.487   9.293  25.745  0.1451  0.3184 -0.1241
55780W        W98697  12.048   8.126  25.296 -0.0375 -0.1733 -0.0820
55781W        W98698  14.762   9.977  24.474 -0.3793 -0.4129 -0.0111
55782W        W98699  11.182   6.767  25.657 -0.0891  0.3896  0.1145
55783W        W98700  12.580   9.034  23.748 -0.0090 -0.0088 -0.1800
55784W        W98701  15.889  10.288  26.272 -0.1364 -0.0170  0.3327
55785W        W98702  10.766   8.011  24.219 -0.1195 -0.0894  0.2892
55786W        W98703  13.119   8.508  24.494 -0.2074  0.2025 -0.1925
55787W        W98704  11.395   9.278  25.800  0.2351  0.1134  0.2196
55788W        W98705  12.057   7.830  24.179  0.0925  0.2547 -0.1822
55789W        W98706  10.917   7.276  26.838 -0.2354  0.3865  0.1474
55790W        W98707  15.135   6.733  25.863  0.3902  0.1270 -0.2480
55791W        W98708  11.643  10.208  23.848 -0.1497  0.1062 -0.0801
55792W        W98709  12.284   8.088  24.674  0.1474 -0.1937  0.0995
55793W        W98710  14.957   7.662  23.847 -0.3104 -0.2425  0.0079
55794W        W98711  12.525  12.097  23.876 -0.5601  0.4062 -0.3937
55795W        W98712  13.615   8.843  29.616  0.3679 -0.1200 -0.2203
55796W        W98713  12.227   7.958  26.533 -0.0772  0.1775 -0.1155
55797W        W98714  12.866   9.182  24.413 -0.1696 -0.5113  0.2489
55798W        W98715  11.477   6.411  23.130 -0.0147  0.1870  0.0465
55799W        W98716  10.003   6.841  25.198  0.2754 -0.0068  0.0556
55800W        W98717  11.573   8.144  25.213  0.3523  0.0875  0.0667
55801W        W98718  11.833   8.880  26.872 -0.1067  0.0440 -0.1057
55802W        W98719  14.064   8.701  25.859 -0.3861  0.3608  0.1078
55803W        W98720  12.174  10.420  24.993  0.0341  0.3235  0.1182
55804W        W98721  12.701  10.540  26.797  0.1346 -0.1227 -0.0689
55805W        W98722  13.131   8.430  26.336  0.0802  0.2443 -0.0510
55806W        W98723  10.983   9.154  24.378  0.2013 -0.3959 -0.1901
55807W        W98724  12.329  10.127  27.739 -0.0236  0.0843  0.2393
55808W        W98725  11.214  10.195  22.259  0.0591 -0.1560  0.1844
55809W        W98726  13.728   9.613  24.119  0.1689  0.2984  0.0899
55810W        W98727  14.538  11.423  25.254 -0.0644  0.2390 -0.2234
55811W        W98728  12.962  10.660  26.109 -0.1681  0.0510  0.0191
55812W        W98729  11.877   9.038  21.737 -0.3319 -0.0532 -0.1908
55813W        W98730  14.126  10.895  24.934 -0.0934 -0.0189 -0.0210
55814W        W98731  12.129   9.602  26.233 -0.2276 -0.0681 -0.0464
55815W        W98732  13.209   8.543  25.857 -0.2216 -0.0428 -0.0081
55816W        W98733  13.001   8.942  23.482 -0.1610  0.2353  0.0672
55817W        W98734  11.458   9.364  24.555 -0.0116 -0.0445 -0.0459
55818W        W98735  10.170   9.090  24.603 -0.0213  0.1187 -0.4308
55819W        W98736  12.493  10.818  27.212 -0.1213  0.2454  0.2613
55820W        W98737  12.556   9.757  25.441  0.0971 -0.0803 -0.1070
55821W        W98738  15.489   9.268  27.808 -0.1646  0.3074  0.1593
55822W        W98739  12.011   9.961  24.065  0.0588  0.0966 -0.0087
55823W        W98740  14.853   6.538  26.336  0.0122  0.0444  0.2647
55824W        W98741  11.522   9.877  22.619 -0.0489  0.0489 -0.0631
55825W        W98742  11.596   7.282  23.309 -0.1429 -0.2124  0.0189
55826W        W98743  11.841   6.834  24.977  0.1838 -0.1504 -0.1509
55827W        W98744  12.145   8.268  24.002 -0.0118  0.0478 -0.1582
55828W        W98745  13.056   9.015  25.759  0.3366  0.0437 -0.2347
55829W        W98746  16.402  10.036  25.795  0.0259  0.2605 -0.2660
55830W        W98747  12.175   7.592  24.595 -0.0173  0.0169 -0.0099
55831W        W98748  11.717   8.175  28.025 -0.1447  0.0971 -0.0661
55832W        W98749  12.118   9.535  25.234 -0.0333 -0.0908 -0.0766
55833W        W98750  12.769   7.256  24.527  0.0178  0.4465 -0.1824
55834W        W98751  11.959   7.981  23.614  0.0418 -0.1346 -0.1716
55835W        W98752  14.690  10.161  22.954  0.1275  0.0468 -0.0736
55836W        W98753  12.066   8.988  23.496 -0.3959  0.1851  0.1059
55837W        W98754  10.430   9.064  22.420  0.2591  0.0670  0.2021
55838W        W98755   9.808   5.959  26.011 -0.5426  0.0808  0.0003
55839W        W98756  10.786   8.516  26.868 -0.1360  0.3390 -0.0504
55840W        W98757  14.293   6.488  21.948  0.0717  0.2925  0.1969
55841W        W98758  15.157   8.324  25.176  0.0104  0.0340  0.2622
55842W        W98759  10.264  10.270  24.628 -0.0011  0.0928  0.0738
55843W        W98760  14.489   8.096  24.662 -0.0186  0.0517 -0.4336
55844W        W98761  11.832  10.200  27.131  0.0999 -0.1602  0.0960
55845W        W98762  14.689   9.375  26.173 -0.0642 -0.1288 -0.0664
55846W        W98763  12.596   7.331  21.638  0.0190  0.0954 -0.3509
55847W        W98764  14.245   5.880  24.411  0.2337 -0.0272  0.2065
55848W        W98765  13.610   6.494  26.470  0.0153 -0.1622  0.1932
55849W        W98766  11.518  10.691  21.291  0.0927  0.5221  0.4718
55850W        W98767  11.000   6.872  21.745 -0.2846  0.0258 -0.0195
55851W        W98768  14.403   9.731  27.185 -0.2829 -0.0265  0.2230
55852W        W98769  13.657   9.089  24.062 -0.0757 -0.1501  0.2726
55853W        W98770  10.841   9.701  25.048 -0.2963  0.1774  0.3682
55854W        W98771  12.540   8.074  27.478 -0.0944  0.1289  0.0968
55855W        W98772  12.934  13.414  23.883 -0.2523  0.1395 -0.0772
55856W        W98773   9.793   9.834  23.047 -0.3679  0.2657  0.1678
55857W        W98774  10.588   8.681  25.478 -0.0653  0.1100 -0.2123
55858W        W98775  11.643  10.281  24.314 -0.1669  0.0140  0.1703
55859W        W98776  10.712   6.745  24.719  0.1580 -0.0297  0.2695
55860W        W98777   9.859   9.962  26.498 -0.1105  0.1240  0.4041
55861W        W98778  12.824   6.150  22.816 -0.0271  0.0023  0.0057
55862W        W98779  11.146   7.427  26.348  0.1222 -0.1129  0.2785
55863W        W98780  12.398   6.293  27.282 -0.2506  0.1695  0.1016
55864W        W98781  10.666  10.054  25.901  0.1115 -0.2041  0.1671
55865W        W98782  13.578  10.323  24.357  0.0892  0.1403 -0.0333
55866W        W98783  14.590   8.040  23.682  0.1494 -0.0689 -0.1880
55867W        W98784  13.341  10.693  23.810 -0.1428  0.1601  0.2547
55868W        W98785  10.538   9.025  26.176 -0.1970  0.2527 -0.1214
55869W        W98786  13.261   8.834  25.368 -0.1256 -0.1596  0.1163
55870W        W98787  12.083   9.042  24.992  0.0429  0.1739  0.0555
55871W        W98788  10.891   7.786  25.557  0.0088 -0.0709 -0.2493
55872W        W98789  12.769   8.593  25.430 -0.0110  0.0178 -0.0443
55873W        W98790  13.952   6.090  25.292  0.0354 -0.1874 -0.1662
55874W        W98791  13.394   9.197  24.963 -0.0763 -0.0696  0.3392
55875W        W98792  11.182   8.867  23.982  0.2611  0.3192 -0.2798
55876W        W98793   9.699   6.152  24.689  0.2841  0.2853  0.4228
55877W        W98794  14.050   7.435  27.590 -0.1578 -0.3230  0.0560
55878W        W98795  12.125  10.669  23.164  0.0455 -0.0584  0.2297
55879W        W98796  14.598  11.951  26.401  0.0276 -0.1453 -0.0330
55880W        W98797  15.937  11.614  23.502 -0.1216  0.1455 -0.0575
55881W        W98798  12.851  10.550  25.540  0.4675  0.1042 -0.0968
55882W        W98799  14.336   7.525  24.617  0.3197 -0.1902 -0.0901
55883W        W98800  13.010  11.810  24.800  0.0673 -0.2179 -0.0921
55884W        W98801  14.466  11.279  24.212  0.1060 -0.2538  0.2045
55885W        W98802  11.127   8.669  23.506  0.1913  0.0626  0.4323
55886W        W98803  13.308   9.465  24.373 -0.0496 -0.2451 -0.1152
55887W        W98804  12.730  10.019  24.885 -0.1611  0.2611  0.0226
55888W        W98805  11.456   9.808  26.946  0.2409 -0.2931 -0.0347
55889W        W98806  13.630   5.953  26.423 -0.0393 -0.2172  0.2707
55890W        W98807  14.835  10.078  26.303 -0.0392  0.2888 -0.0522
55891W        W98808  11.096   7.575  24.254 -0.1444  0.0093  0.0087
55892W        W98809  12.271   6.004  24.067 -0.1393 -0.2710  0.0505
55893W        W98810  12.273  11.128  25.100 -0.2330 -0.1236 -0.0028
55894W        W98811   8.649   7.774  23.814 -0.2638 -0.0588 -0.1702
55895W        W98812  11.583   9.062  24.188  0.1793 -0.0005  0.1298
55896W        W98813  10.877   7.239  24.590 -0.2177 -0.1836 -0.1070
55897W        W98814  15.447   8.110  26.963 -0.0202  0.0110  0.0642
55898W        W98815  11.347   9.010  26.710 -0.1300 -0.0547  0.0328
55899W        W98816  12.327   8.061  27.018  0.2372 -0.3406  0.1572
55900W        W98817  11.858   6.239  22.171 -0.0503  0.2530 -0.0381
55901W        W98818   8.915   7.810  27.150  0.2200 -0.4763  0.3167
55902W        W98819  13.241   6.242  25.929  0.1634  0.1122  0.1169
55903W        W98820  13.729   5.734  24.489  0.1085  0.0430  0.2922
55904W        W98821  13.605   8.373  26.481 -0.0797 -0.1619  0.4749
55905W        W98822  13.369  10.365  25.475 -0.3372 -0.2180  0.1393
55906W        W98823  13.547   9.119  23.209 -0.0847 -0.1157  0.1166
55907W        W98824  12.696   7.845  24.801  0.3266 -0.2825  0.1019
55908W        W98825  10.907   8.997  27.025 -0.2050 -0.3251  0.2364
55909W        W98826  13.905  10.944  23.042  0.2257  0.0033 -0.1431
55910W        W98827  12.727  10.326  24.377 -0.0652  0.0375 -0.1330
55911W        W98828  13.580   5.494  23.488 -0.0366  0.1660 -0.2221
55912W        W98829  15.188   9.122  24.970  0.1680  0.1177 -0.6889
55913W        W98830  10.943   8.562  24.347  0.0771  0.0989 -0.0049
55914W        W98831  13.811   9.473  25.024 -0.0645 -0.3048 -0.0821
55915W        W98832  14.101  10.617  24.476  0.1461 -0.0393 -0.1202
55916W        W98833  12.587   5.199  27.500 -0.0603 -0.1213  0.2944
55917W        W98834  12.201   7.535  21.864 -0.0742  0.1481  0.0811
55918W        W98835  13.357   6.027  27.216  0.1099 -0.3381  0.0316
55919W        W98836  12.459   9.770  21.658 -0.1974 -0.1750  0.1327
55920W        W98837  13.610   7.507  25.354 -0.2303 -0.1266  0.0752
55921W        W98838  13.315   7.977  26.203  0.1053  0.1303  0.1387
55922W        W98839  10.939   6.828  27.107  0.0995 -0.4470 -0.0415
55923W        W98840  13.586   7.144  26.175  0.2330  0.1639 -0.0650
55924W        W98841  14.656   9.367  24.054  0.0503  0.0754  0.0653
55925W        W98842  12.228   9.261  26.931  0.2222 -0.2341 -0.2620
55926W        W98843  12.619  10.478  23.434  0.0592  0.0926 -0.1538
55927W        W98844  11.422   6.161  27.140 -0.0961  0.0185  0.1032
55928W        W98845  11.371   9.863  24.799  0.0690  0.4436 -0.3150
55929W        W98846  11.115   8.857  26.029 -0.2098 -0.0614  0.0202
55930W        W98847  13.307  13.063  24.443  0.0724 -0.0123  0.0971
55931W        W98848  13.111  11.255  25.132  0.2233  0.1014 -0.1685
55932W        W98849  11.486   6.682  26.997 -0.0679  0.3564  0.2489
55933W        W98850  11.561   7.248  22.665 -0.4522 -0.1918  0.1962
55934W        W98851  11.747  10.277  24.841  0.1634  0.3187  0.3185
55935W        W98852  11.645   8.299  22.064 -0.3215 -0.2941  0.1977
55936W        W98853  12.224   5.663  27.787  0.0305  0.1715 -0.2438
55937W        W98854  13.737   9.636  25.979  0.2183 -0.1595  0.1861
55938W        W98855  11.415   8.197  22.872 -0.2021 -0.2274 -0.0694
55939W        W98856  12.549  11.070  26.313 -0.0428 -0.1205  0.0082
55940W        W98857  11.496   8.325  23.467 -0.4074 -0.0342  0.0627
55941W        W98858  12.232   7.134  25.067  0.0915  0.0941  0.1131
55942W        W98859  10.281  11.566  24.221  0.0701 -0.1108 -0.0163
55943W        W98860  10.051   9.447  23.588 -0.1732  0.2016  0.0811
55944W        W98861  10.055   8.217  25.668  0.3078 -0.1558  0.0036
55945W        W98862  13.951   7.140  25.301  0.0034  0.1584  0.0333
55946W        W98863  10.719   8.253  22.883  0.1634  0.0285 -0.0516
55947W        W98864  13.136   7.440  24.900 -0.1898 -0.1534  0.2711
55948W        W98865  14.250   9.331  25.266 -0.0729  0.1990  0.1059
55949W        W98866  12.694  10.039  23.917  0.1669 -0.0070  0.1331
55950W        W98867  12.529   7.916  25.968 -0.3766  0.2773  0.3267
55951W        W98868  13.614   7.226  24.891 -0.1639 -0.0406 -0.1312
55952W        W98869  13.516  10.941  26.292  0.1787 -0.1325  0.0440
55953W        W98870  12.780  11.497  24.447 -0.1518 -0.1286 -0.1287
55954W        W98871  10.665   7.584  25.996 -0.3223 -0.0481  0.1141
55955W        W98872  13.592   8.281  24.612 -0.2892  0.1048  0.1522
55956W        W98873  13.073   6.911  24.858  0.3373 -0.2570  0.5265
55957W        W98874   9.766   8.390  24.242  0.1426 -0.2183 -0.0494
55958W        W98875  14.907   8.751  25.298 -0.0017 -0.2260 -0.1894
55959W        W98876   8.470   9.133  23.560 -0.1350 -0.0166 -0.0171
55960W        W98877  12.674   9.003  22.753  0.2965 -0.2096  0.2455
55961W        W98878  11.767   7.213  25.316  0.1317 -0.0516  0.3030
55962W        W98879  15.332   9.568  22.993  0.1853  0.0995  0.0943
55963W        W98880  12.596   9.530  24.880  0.0484  0.3860 -0.4618
55964W        W98881  12.330   7.640  25.087 -0.2404  0.1886 -0.5578
55965W        W98882  13.905   7.910  25.461  0.1789  0.1300 -0.0903
55966W        W98883  14.508   8.837  25.572 -0.3060 -0.2283 -0.0034
55967W        W98884  12.616   8.468  27.113 -0.0866 -0.2565  0.0418
55968W        W98885  12.148  10.932  27.613 -0.0191  0.1824  0.0331
55969W        W98886  13.333   5.414  27.904  0.0423  0.1986 -0.1040
55970W        W98887  13.928   8.322  22.333  0.0095 -0.1611  0.2161
55971W        W98888  13.971   9.643  27.572  0.0966 -0.3647 -0.0157
55972W        W98889  13.400  10.400  26.159  0.1067  0.5339  0.0575
55973W        W98890  10.949   8.270  25.305 -0.2075 -0.0750  0.0571
55974W        W98891  11.775   8.520  24.847  0.1978  0.1661 -0.1129
55975W        W98892  13.980   6.192  24.771 -0.0841  0.0181  0.2365
55976W        W98893  12.996  11.839  25.291  0.0728 -0.2815 -0.1167
55977W        W98894  10.124   8.699  24.086 -0.3243  0.0746 -0.1479
55978W        W98895  13.724  11.539  26.866  0.1125 -0.5339  0.0764
55979W        W98896  16.194   5.634  24.816  0.2359 -0.0158  0.0014
55980W        W98897  12.008   7.525  23.744 -0.0416 -0.1106 -0.4676
55981W        W98898  11.505   8.909  25.046  0.0293  0.0902  0.0992
55982W        W98899  13.868   6.661  26.852 -0.2972 -0.1745 -0.2198
55983W        W98900  14.896   7.887  25.073  0.0031  0.0261 -0.0286
55984W        W98901  12.550   7.562  26.583  0.0487  0.0416 -0.0999
55985W        W98902  13.716   7.013  24.262  0.1353 -0.1431  0.1696
55986W        W98903  14.454  10.290  24.694  0.0517 -0.2202  0.0381
55987W        W98904  11.871   6.260  25.891  0.0461 -0.0807  0.0259
55988W        W98905  15.898  10.668  26.644 -0.0690 -0.0312  0.0442
55989W        W98906  12.215   8.315  26.160  0.0918 -0.2880  0.1074
55990W        W98907  12.673   7.312  25.065 -0.0896  0.0676  0.1483
55991W        W98908  12.804   5.934  23.866  0.1536  0.1027  0.2206
55992W        W98909  14.092  10.248  26.836  0.3721  0.1908  0.3343
55993W        W98910  13.420  11.681  25.518 -0.0111 -0.0943 -0.0152
55994W        W98911  12.935   9.474  22.169  0.1006  0.0747 -0.0559
55995W        W98912  15.556   9.712  25.629  0.0115  0.4118  0.1572
55996W        W98913  12.213  10.163  23.104 -0.1519  0.2678  0.1346
55997W        W98914  13.052   8.884  24.886 -0.0266  0.0373 -0.0452
55998W        W98915  11.763   8.983  24.630 -0.1898 -0.3296  0.0770
55999W        W98916  11.387  11.817  26.545  0.3704  0.0623 -0.0658
56000W        W98917  11.230   7.007  26.593  0.0674 -0.0349 -0.2187
56001W        W98918  13.148   8.054  24.721  0.3390 -0.0081  0.0102
56002W        W98919  13.528   7.614  24.541  0.2237  0.0157  0.2172
56003W        W98920  13.162   9.736  25.801  0.2319 -0.0260  0.2361
56004W        W98921  12.564   7.323  25.894 -0.0112  0.0374 -0.2527
56005W        W98922  13.591   8.906  25.803 -0.1045 -0.0782 -0.0890
56006W        W98923  11.429   8.580  25.445 -0.0971 -0.1801 -0.0078
56007W        W98924  12.996   8.740  24.004 -0.0388 -0.0495 -0.1778
56008W        W98925  13.060   7.495  22.861 -0.1793 -0.1431 -0.1377
56009W        W98926  13.526   7.904  27.602 -0.1631 -0.0980  0.1330
56010W        W98927  13.674   8.459  25.436  0.5008  0.2424  0.1434
56011W        W98928  12.054   8.629  24.365 -0.1629  0.0362 -0.1472
56012W        W98929  14.273   7.947  24.117  0.1199  0.3869  0.0461
56013W        W98930  13.146   6.929  26.878  0.1246  0.0538  0.1373
56014W        W98931  11.950   5.955  24.463 -0.0856  0.1523  0.1561
56015W        W98932  13.097   8.216  27.215  0.0165  0.1539  0.0233
56016W        W98933  13.452  10.575  23.189 -0.0178  0.0423  0.1522
56017W        W98934  14.110  10.318  23.711  0.1162 -0.1634  0.0817
56018W        W98935  12.768   8.535  22.955 -0.3360 -0.0389 -0.1886
56019W        W98936   9.643   6.912  24.382  0.1809  0.0279  0.0420
56020W        W98937  11.993  10.443  25.902  0.1382 -0.1945  0.1807
56021W        W98938  11.844   7.363  22.257 -0.1434  0.3970  0.3398
56022W        W98939  10.635   8.150  23.766  0.0966  0.1117 -0.0842
56023W        W98940  13.588  10.185  26.593  0.0794  0.3898  0.1263
56024W        W98941  14.411  11.234  25.788 -0.1089  0.2258  0.1091
56025W        W98942  11.978   7.016  26.229 -0.2643  0.3066 -0.1247
56026W        W98943  14.198   9.262  26.341 -0.0465  0.0820 -0.2333
56027W        W98944  10.266  10.254  24.002  0.1338  0.2876  0.2105
56028W        W98945  11.756   8.703  27.473  0.1234 -0.0500  0.0330
56029W        W98946  12.643   9.666  26.407  0.0666 -0.0518 -0.1673
56030W        W98947  10.917   8.872  26.486  0.0069  0.1236 -0.3070
56031W        W98948  12.189  11.344  23.614 -0.1038 -0.1195 -0.2216
56032W        W98949  13.010   5.417  27.458 -0.1319  0.2686  0.0105
56033W        W98950  12.087   8.686  25.878 -0.3012  0.0550  0.3183
56034W        W98951  12.137   9.006  24.005  0.1379 -0.0633  0.0870
56035W        W98952  15.614   7.041  26.493 -0.2062  0.1794  0.2271
56036W        W98953  13.993  11.735  24.600  0.3935 -0.1046 -0.0159
56037W        W98954  13.239  10.317  24.993  0.2914 -0.0570  0.0999
56038W        W98955  13.738  10.654  26.821 -0.1207  0.3992  0.1361
56039W        W98956  13.812   9.286  24.494  0.0260  0.0032 -0.0867
56040W        W98957  11.121   8.316  23.932 -0.1540 -0.3196 -0.0558
56041W        W98958  11.778   7.763  26.686  0.0233  0.2972  0.0277
56042W        W98959  13.452   9.516  26.814  0.0787 -0.3765 -0.0693
56043W        W98960  15.029   8.010  26.535 -0.0302 -0.1653  0.1092
56044W        W98961  11.401   7.683  24.642  0.2238 -0.0474  0.1501
56045W        W98962  11.536   9.699  23.795 -0.1307 -0.1968 -0.0209
56046W        W98963  11.583   8.736  25.857  0.1942 -0.3721  0.1195
56047W        W98964  10.851   9.061  25.702 -0.2426  0.0593  0.2352
56048W        W98965  10.950  11.501  23.524  0.0045  0.0675 -0.0596
56049W        W98966  13.973  11.823  23.692  0.1270  0.0131 -0.2083
56050W        W98967  11.592   7.765  22.659  0.0830 -0.0150  0.3792
56051W        W98968  12.501   8.656  24.106  0.2183 -0.0246 -0.0125
56052W        W98969  11.072   7.813  22.672 -0.0383  0.0376  0.0389
56053W        W98970   9.884   8.620  24.731 -0.1431 -0.0550  0.2616
56054W        W98971   9.820   8.486  23.308 -0.1561 -0.3603 -0.0375
56055W        W98972  12.703  11.599  23.973 -0.0994 -0.2007 -0.0738
56056W        W98973  10.837   8.396  24.813 -0.0996  0.1087  0.2379
56057W        W98974  14.676  10.775  25.758 -0.0122 -0.1168  0.1505
56058W        W98975  14.457   6.824  25.184  0.1549  0.1835  0.0635
56059W        W98976  14.475   7.398  25.549 -0.1877 -0.0290  0.1738
56060W        W98977  14.750   7.890  24.244 -0.1650 -0.0133 -0.2881
56061W        W98978  13.683  12.334  25.425  0.2859 -0.1848 -0.0454
56062W        W98979  12.741   9.400  25.661  0.0719 -0.1931 -0.1258
56063W        W98980  10.920   8.359  22.433  0.0076  0.0967  0.1018
56064W        W98981  13.215   9.759  26.347 -0.0207  0.1289  0.1138
56065W        W98982  14.116   5.832  27.323  0.3279  0.2805  0.0336
56066W        W98983  11.753   9.936  25.241 -0.0699  0.1637 -0.1149
56067W        W98984  13.806   9.692  23.199  0.1018  0.0695  0.2820
56068W        W98985  10.908   7.753  21.200  0.0791  0.0422 -0.0575
56069W        W98986  11.606   9.443  25.071 -0.1479  0.4491  0.5061
56070W        W98987  14.496   5.660  25.337  0.1394  0.0041 -0.2676
56071W        W98988  11.544   7.645  24.080 -0.0172 -0.0511 -0.1828
56072W        W98989  12.226   9.557  23.703  0.0850  0.1509 -0.0205
56073W        W98990  11.490   8.475  24.372 -0.1152 -0.3970 -0.0656
56074W        W98991  14.021  11.088  26.048 -0.0475  0.1485 -0.0796
56075W        W98992  12.211  11.706  24.322 -0.2104  0.1395  0.0336
56076W        W98993  10.436   8.366  25.077 -0.3345 -0.0544 -0.1142
56077W        W98994  13.771   6.651  25.961  0.2265  0.1623 -0.0394
56078W        W98995  12.564   9.022  25.160  0.3427  0.2365  0.2070
56079W        W98996  13.189   8.735  29.708 -0.1889 -0.0673  0.0022
56080W        W98997   9.982   8.237  26.488  0.0944 -0.0423  0.0001
56081W        W98998  13.615   7.974  25.044  0.0435  0.2835  0.2413
56082W        W98999  13.273   9.699  24.907 -0.0806  0.3421 -0.2387
56083W        W99000  12.061   6.520  26.259  0.2359 -0.3270 -0.0182
56084W        W99001  11.727   7.731  23.243  0.1492  0.0966  0.1498
56085W        W99002  14.573   7.265  28.295 -0.0197 -0.1541  0.0774
56086W        W99003  14.096   6.489  20.867  0.0367  0.1455 -0.0476
56087W        W99004  14.075   8.991  24.906  0.0147 -0.5834  0.1460
56088W        W99005  11.946   7.388  22.928 -0.0969 -0.0865  0.0185
56089W        W99006  13.507   7.371  22.688 -0.0237  0.0496 -0.1545
56090W        W99007  13.073   9.416  25.314  0.1185 -0.2045  0.2182
56091W        W99008  13.628   8.662  28.060 -0.0280  0.1479 -0.0604
56092W        W99009  13.039   9.379  26.128  0.3707 -0.2376  0.2081
56093W        W99010  11.839   9.854  24.566 -0.1663  0.1142  0.1290
56094W        W99011  13.469  10.008  22.989  0.0632 -0.3500 -0.0024
56095W        W99012  13.451   8.038  25.660  0.1756  0.5654  0.0173
56096W        W99013  13.305  12.037  23.763 -0.3170 -0.0201  0.1459
56097W        W99014  12.504   9.215  26.216  0.0527  0.0783 -0.1798
56098W        W99015  15.833  11.280  25.418  0.1539 -0.0080 -0.3632
56099W        W99016  10.180   7.903  25.224 -0.1687  0.1319 -0.0071
56100W        W99017  13.936  11.184  26.555  0.1814 -0.1289  0.1184
56101W        W99018  13.964  10.609  25.932  0.4349 -0.0425 -0.2620
56102W        W99019  12.333   8.560  25.115 -0.1095 -0.1849 -0.1938
56103W        W99020  11.212   8.690  23.023 -0.1777 -0.0452  0.1215
56104W        W99021   9.559  11.207  25.200  0.1774  0.1061 -0.1282
56105W        W99022  13.137   5.693  26.236 -0.4460 -0.0509 -0.0410
56106W        W99023  13.135   7.372  26.363  0.0774  0.2303  0.2544
56107W        W99024  13.906   9.513  22.748  0.0330 -0.2309  0.2622
56108W        W99025  13.364   6.648  28.110  0.0324 -0.0431  0.3607
56109W        W99026  14.025  11.231  24.468  0.2531  0.0793 -0.1724
56110W        W99027  11.570   9.253  27.650 -0.1201 -0.0099 -0.3272
56111W        W99028  12.883   7.118  24.026  0.0009 -0.2762  0.1639
56112W        W99029  12.214   9.922  24.942 -0.0807 -0.1745 -0.1272
56113W        W99030  13.130  10.627  24.523 -0.0561 -0.0422 -0.0165
56114W        W99031  13.490   9.714  25.379 -0.1172  0.0161  0.0796
56115W        W99032  16.383  10.134  23.448  0.0406  0.1317  0.1919
56116W        W99033  13.514   7.718  22.967  0.4636 -0.2075  0.2736
56117W        W99034  13.131  10.323  24.073  0.1506  0.4109 -0.1010
56118W        W99035  12.511   6.325  26.392  0.0620  0.0514 -0.0162
56119W        W99036  13.461   8.141  23.640 -0.1303 -0.3104  0.1218
56120W        W99037  12.677   6.422  23.941  0.0669 -0.0118  0.0224
56121W        W99038  12.374   8.303  25.661 -0.1160  0.3286  0.1259
56122W        W99039   8.156   8.735  24.099  0.0379 -0.1270 -0.0575
56123W        W99040  10.660   7.161  22.035 -0.1203 -0.2007  0.0944
56124W        W99041  12.141  10.001  25.620  0.4787  0.1210 -0.3059
56125W        W99042  14.747   6.383  25.796  0.1899  0.2558 -0.1047
56126W        W99043  10.739   9.599  28.459 -0.1484  0.1569 -0.0452
56127W        W99044  10.887   8.105  25.968  0.0191  0.1351  0.2907
56128W        W99045   9.980   7.995  23.293  0.0537 -0.0744 -0.0628
56129W        W99046  14.333  11.627  23.399  0.0863  0.3126 -0.2958
56130W        W99047  11.350   7.649  25.861  0.0782  0.2204  0.0716
56131W        W99048  10.662   9.531  23.507  0.1939  0.2448 -0.1518
56132W        W99049  13.365   8.913  26.287  0.0644  0.0061  0.2009
56133W        W99050  15.584   9.401  24.315  0.0393  0.1410  0.1404
56134W        W99051  12.105   7.108  23.304 -0.0154  0.2849 -0.1910
56135W        W99052  13.619  10.601  24.782 -0.0681 -0.0064 -0.1911
56136W        W99053   9.441   8.906  23.994  0.1479  0.0183 -0.1409
56137W        W99054  12.184   5.945  26.300 -0.2376 -0.2257 -0.0282
56138W        W99055  12.323   5.592  28.798 -0.1252 -0.0006  0.1601
56139W        W99056  10.383   7.133  25.431 -0.1410 -0.2626  0.1306
56140W        W99057  11.794   7.789  27.185  0.0951  0.1118 -0.1059
56141W        W99058  15.275  10.816  24.513  0.3358 -0.1473  0.3070
56142W        W99059  13.380   9.889  23.473 -0.1511 -0.1940  0.1660
56143W        W99060  12.485   8.947  27.273  0.0117  0.3155 -0.3991
56144W        W99061  12.131  10.389  28.576  0.0000 -0.1381  0.4549
56145W        W99062  12.712   6.313  24.877  0.0600  0.0449 -0.0981
56146W        W99063  12.855  11.114  23.730  0.1652  0.0565  0.1646
56147W        W99064  14.774  10.072  27.412 -0.0600 -0.0182  0.1528
56148W        W99065  12.539   9.031  23.238 -0.0611  0.0627  0.1160
56149W        W99066  13.581   7.175  26.728 -0.1454  0.1058 -0.3151
56150W        W99067  13.640   9.878  24.562  0.0614  0.3581  0.1800
56151W        W99068  11.633   6.801  27.457 -0.0244  0.3681 -0.0973
56152W        W99069  11.192   9.330  25.353  0.0101  0.0665 -0.2408
56153W        W99070  13.314   8.977  24.449  0.2868 -0.0364 -0.1697
56154W        W99071  12.148   6.528  24.057 -0.1069  0.2409 -0.1042
56155W        W99072  13.928   6.641  25.004 -0.0134 -0.0107 -0.1471
56156W        W99073   9.060   9.944  24.849 -0.0800  0.3717  0.0522
56157W        W99074  10.537   8.186  26.636  0.0368  0.0710 -0.0186
56158W        W99075  12.188   7.556  26.085  0.1790  0.0848 -0.2734
56159W        W99076  13.458   9.300  25.646  0.2949  0.2399  0.1736
56160W        W99077  15.263   9.574  25.260 -0.1061 -0.2618 -0.0914
56161W        W99078  14.832   7.863  26.013 -0.2971  0.0490 -0.3561
56162W        W99079  10.666   7.902  25.077 -0.1522  0.0252  0.3440
56163W        W99080  12.546   7.876  24.300 -0.1556 -0.2809 -0.2095
56164W        W99081  13.528  10.757  25.814 -0.0954 -0.0154  0.3048
56165W        W99082  15.626   9.963  25.004  0.0822 -0.2642 -0.0319
56166W        W99083  13.048  10.241  25.857  0.2934  0.0892  0.2250
56167W        W99084  14.271   9.103  24.313 -0.1370 -0.0232 -0.0380
56168W        W99085  12.061   7.785  25.633  0.1181 -0.0972 -0.0011
56169W        W99086  10.344   8.260  24.170 -0.3588 -0.1140 -0.0094
56170W        W99087  11.345   9.837  24.214  0.1096  0.3013  0.1162
56171W        W99088  12.705   7.522  27.326  0.0105  0.3303 -0.0266
56172W        W99089  11.297   8.794  24.623  0.0373  0.0497  0.2808
56173W        W99090  14.809   7.109  25.283  0.0554  0.2610 -0.0561
56174W        W99091  10.871   8.612  27.869  0.1207 -0.0042 -0.0430
56175W        W99092  11.669   8.155  24.020 -0.1636 -0.3390  0.1302
56176W        W99093  13.080   9.664  30.219  0.3020 -0.0401 -0.3395
56177W        W99094  12.640   9.608  28.890 -0.0793  0.0500  0.2205
56178W        W99095  12.711   8.354  26.090  0.1606 -0.0581 -0.2077
56179W        W99096  13.608   9.364  27.406  0.0023 -0.0424 -0.0609
56180W        W99097  11.638   7.976  29.307 -0.2129  0.0715 -0.1972
56181W        W99098  12.596  10.766  28.708  0.0731 -0.0314 -0.1054
56182W        W99099  14.039   7.003  30.970 -0.1322  0.1584  0.1113
56183W        W99100  12.738   9.861  30.721 -0.2934 -0.1090  0.1385
56184W        W99101  14.501  12.295   0.214  0.2041 -0.5771 -0.0641
56185W        W99102  13.977  10.077  26.104 -0.2236  0.1543 -0.1530
56186W        W99103  13.708   9.071  31.495  0.0743 -0.2438  0.2441
56187W        W99104  11.331   9.192  31.110 -0.2461 -0.2609 -0.0585
56188W        W99105  12.325   6.808  27.968 -0.1312 -0.1022  0.2595
56189W        W99106  10.425   7.849  28.026  0.3656  0.1566 -0.0023
56190W        W99107  13.767   7.304  30.133  0.0063 -0.1851  0.0203
56191W        W99108  11.384  10.278  26.824 -0.1671  0.0170  0.0136
56192W        W99109  14.108   7.704  29.924  0.2753  0.3202  0.0607
56193W        W99110  13.427   9.216  28.923 -0.1841  0.3157  0.0914
56194W        W99111  13.335   9.726  27.678 -0.0495  0.0433  0.1742
56195W        W99112  13.637   7.838  30.055  0.2619 -0.2275 -0.3107
56196W        W99113  11.615   9.483  30.167  0.0114 -0.1998 -0.1149
56197W        W99114  14.706   9.354  27.283  0.0698  0.3147  0.1757
56198W        W99115  11.455  10.419  26.059  0.1449 -0.0885  0.4638
56199W        W99116  11.609   9.774  28.009  0.2296 -0.2258 -0.1137
56200W        W99117  12.887   6.646  27.823 -0.3141 -0.3154  0.1037
56201W        W99118  12.426   6.996  28.396  0.0883 -0.4537  0.1283
56202W        W99119  14.401   9.982  28.801 -0.0451  0.3453  0.1083
56203W        W99120  12.937   8.661  28.758  0.0578  0.0108  0.2147
56204W        W99121  12.905   9.587  27.442  0.0288  0.5109 -0.0594
56205W        W99122  13.281   8.031  28.849 -0.0347 -0.1566  0.0130
56206W        W99123  13.214   8.007  30.112 -0.1368 -0.0751  0.0143
56207W        W99124  13.887   9.736  27.110 -0.0175  0.0258 -0.1928
56208W        W99125  13.329   9.475  28.150 -0.1729  0.0713  0.0471
56209W        W99126  13.533  11.789  28.190  0.0554 -0.2222 -0.0216
56210W        W99127  13.857  10.994  29.675  0.3622  0.0440  0.0886
56211W        W99128  13.153  10.614  28.829 -0.0205 -0.3361 -0.2160
56212W        W99129   9.215   9.312  27.822  0.2745  0.3927 -0.0457
56213W        W99130  13.068  11.660  30.331  0.4005  0.0414 -0.3524
56214W        W99131  12.534  10.896  29.480 -0.1310  0.0720  0.0636
56215W        W99132  14.614   8.084  31.036 -0.1841 -0.0416 -0.2086
56216W        W99133  11.809   9.265  28.088 -0.0728  0.1466  0.0164
56217W        W99134  11.028   9.299  26.251 -0.0818  0.1486 -0.1591
56218W        W99135  13.653   9.823  29.530  0.0737 -0.1671  0.1327
56219W        W99136  11.424   9.539  28.903  0.1082  0.0215 -0.0705
56220W        W99137  12.864  11.016  29.822  0.0050 -0.2544  0.0027
56221W        W99138  13.981   8.541  29.187 -0.0861  0.2027  0.0112
56222W        W99139  12.030   8.861  28.452 -0.1897  0.3031 -0.2558
56223W        W99140  13.592   9.869  28.376 -0.2784  0.4114  0.1644
56224W        W99141  13.010   7.490  25.673 -0.0421  0.1449  0.0124
56225W        W99142  13.617   8.366  27.322 -0.1728  0.1955 -0.0308
56226W        W99143  12.073   6.220  27.905 -0.0364  0.0176  0.1513
56227W        W99144  13.107   9.982  28.066  0.1332  0.0124 -0.0525
56228W        W99145  12.168   8.451  30.603 -0.0669  0.0959  0.2140
56229W        W99146  14.114   9.945  30.100  0.3290 -0.1727 -0.0688
56230W        W99147  12.705   8.884  28.358 -0.0831 -0.1123  0.2841
56231W        W99148  13.924   8.303  30.156 -0.1609  0.0617  0.1290
56232W        W99149  11.185  10.672  28.824  0.4833  0.2255 -0.2013
56233W        W99150  12.930   9.162  28.932  0.0885 -0.1222  0.0789
56234W        W99151  17.205  11.752  26.884 -0.0959 -0.2159  0.4865
56235W        W99152  13.997  12.375  27.062 -0.1976  0.2840  0.0044
56236W        W99153  12.130  11.776  25.660  0.1693 -0.0525 -0.1513
56237W        W99154  12.567   9.543  31.425 -0.1551 -0.0117  0.1865
56238W        W99155  11.086   9.199  28.759 -0.1713 -0.5091 -0.1217
56239W        W99156  12.011   8.742  31.562 -0.0013  0.1873  0.1698
56240W        W99157  14.083   5.447  27.690 -0.2996 -0.4012 -0.1240
56241W        W99158  15.062   9.841  31.443  0.2014  0.0647 -0.0168
56242W        W99159  12.194   9.586  30.987 -0.1060 -0.0568 -0.0914
56243W        W99160  14.426   8.846  29.204  0.0240 -0.0271 -0.2259
56244W        W99161  12.891   8.892  30.090  0.0746  0.0152 -0.0076
56245W        W99162  12.797  11.098  30.432  0.1081 -0.0344  0.1188
56246W        W99163  14.026   9.202  25.877 -0.3959  0.1420 -0.0419
56247W        W99164  14.271   8.152  30.600 -0.0060  0.1227  0.3111
56248W        W99165  13.132   7.956  31.272  0.1706  0.1791  0.0293
56249W        W99166  11.794   8.495  26.437 -0.1034  0.1566 -0.0976
56250W        W99167  12.342  10.057  26.396 -0.2736  0.1048 -0.2950
56251W        W99168  15.185   9.519  31.831  0.2929  0.1227  0.1442
56252W        W99169  16.079   9.582  25.742 -0.2232  0.0681 -0.2926
56253W        W99170   9.151  12.043  30.357  0.1800  0.0911  0.0727
56254W        W99171  11.610   8.553   0.406  0.1984 -0.1574  0.2170
56255W        W99172  12.667  10.017  31.627  0.0055 -0.2460 -0.1055
56256W        W99173  11.726  10.704  27.739 -0.0172  0.0943 -0.1273
56257W        W99174  12.475  10.289  25.889 -0.0859  0.0979  0.1280
56258W        W99175  12.711   9.015  27.704  0.2286  0.0973  0.1421
56259W        W99176  11.454   7.433   0.618 -0.0070  0.1501  0.2159
56260W        W99177  12.561   8.703  30.380  0.1244 -0.1112 -0.3088
56261W        W99178  11.814   7.274  27.326 -0.0816  0.0174 -0.0469
56262W        W99179  12.299   9.708  31.861  0.1959  0.0489  0.1162
56263W        W99180  12.484   7.984  30.830 -0.2616 -0.1057  0.3677
56264W        W99181  13.104   7.067  25.940  0.1188  0.0279  0.0057
56265W        W99182  14.889  11.398  26.574 -0.0043  0.4021  0.2726
56266W        W99183  14.131  10.127  25.534 -0.2584 -0.0967  0.1004
56267W        W99184  14.212   8.454  25.463  0.2305  0.0369  0.1001
56268W        W99185  11.983  10.054  30.922  0.2679  0.1860 -0.0266
56269W        W99186  12.612   8.017  29.435 -0.1881 -0.0242 -0.0212
56270W        W99187   9.900   9.301  31.651  0.0640  0.2701  0.0444
56271W        W99188  12.521   5.979  27.978  0.1076  0.2586 -0.1724
56272W        W99189  13.845   7.867  28.833 -0.2112 -0.3919  0.1352
56273W        W99190  11.570   7.310  29.413  0.0320 -0.1699 -0.0726
56274W        W99191  14.314   6.647  29.156  0.0359  0.1144  0.2437
56275W        W99192  12.759   8.026  29.902  0.1374  0.2367 -0.1730
56276W        W99193  11.845   8.241  25.726 -0.2777 -0.1054  0.1583
56277W        W99194  14.674   7.671  29.904 -0.1124 -0.1228  0.0853
56278W        W99195  13.026  11.442  25.607  0.0963  0.0897  0.1409
56279W        W99196  15.756  11.127  28.630 -0.2138 -0.2428  0.1117
56280W        W99197  13.204  10.860  28.360  0.1931  0.0391 -0.0229
56281W        W99198  11.797   7.923  28.631  0.3125  0.0203  0.3929
56282W        W99199  11.875  10.060  26.156 -0.5642  0.4497 -0.0130
56283W        W99200  12.851  10.351  30.758  0.0672 -0.2517 -0.1017
56284W        W99201  13.346  10.217  29.290  0.2529  0.3626 -0.0403
56285W        W99202  11.930   9.238  28.763  0.0846  0.0885 -0.0925
56286W        W99203  14.798  10.906  29.948 -0.0509  0.3311  0.0237
56287W        W99204  12.366   7.565  29.459  0.4947  0.0881 -0.0574
56288W        W99205  12.439   9.553  30.423 -0.0197 -0.2506 -0.2354
56289W        W99206  12.720   9.465  30.960 -0.0276  0.0185 -0.1178
56290W        W99207  14.096   9.034  29.615 -0.1122 -0.0840 -0.3061
56291W        W99208  12.761   8.878  26.852 -0.0013  0.2855 -0.1315
56292W        W99209  12.871   6.525  25.966  0.3287 -0.0518 -0.1690
56293W        W99210  12.644  11.062  27.615  0.0833 -0.1813  0.1498
56294W        W99211  11.409  12.387  27.742  0.1870 -0.0426 -0.0428
56295W        W99212  11.844  10.243  27.681 -0.1774 -0.0600 -0.2319
56296W        W99213  13.234   8.906  29.278 -0.2260 -0.0897  0.1046
56297W        W99214  14.663   8.951  28.703 -0.2210 -0.4338  0.1959
56298W        W99215  11.219   8.525  30.453 -0.1095  0.1237  0.1616
56299W        W99216  13.830   9.737  30.980 -0.2960  0.0281 -0.3508
56300W        W99217  11.315   8.527  26.532 -0.3142 -0.2454  0.0112
56301W        W99218  12.662  10.324  29.676  0.0910 -0.0327  0.1106
56302W        W99219  14.535   7.696  27.460  0.4039 -0.0500 -0.0069
56303W        W99220  13.966   6.812  28.771  0.2411 -0.3441 -0.0639
56304W        W99221  14.759   9.782  30.621 -0.3627 -0.1249 -0.0915
56305W        W99222  12.878  10.191  26.357  0.0208  0.2898 -0.1858
56306W        W99223  13.832   8.870  28.468  0.2343  0.0815 -0.1834
56307W        W99224  11.059   7.265  29.092  0.0444 -0.0674 -0.0882
56308W        W99225  10.852   9.664  31.411 -0.0782  0.0420 -0.0761
56309W        W99226  12.286   9.057  28.106  0.0492 -0.0219  0.0534
56310W        W99227  11.628  11.339  30.439  0.0412 -0.0272 -0.0989
56311W        W99228  11.050   9.302  24.829  0.0523 -0.2225 -0.1004
56312W        W99229  14.603  10.793  25.122 -0.3299 -0.2027 -0.1786
56313W        W99230  12.123   8.534  30.109  0.0477  0.0154  0.1728
56314W        W99231  12.304  11.269  30.708  0.0697 -0.0193 -0.0642
56315W        W99232  13.684   9.355  28.486 -0.0818 -0.2989  0.2843
56316W        W99233  12.947   6.210  28.012  0.2385  0.1495  0.1040
56317W        W99234  12.393   9.410  27.378 -0.4495  0.0284 -0.1153
56318W        W99235  12.700   9.013  29.653 -0.1360  0.0609  0.0736
56319W        W99236  13.581  12.636  27.216  0.1512  0.1785  0.0784
56320W        W99237  13.328   8.504  30.980  0.0425 -0.1641  0.0574
56321W        W99238  13.103   7.475  27.742  0.3463 -0.3927  0.1194
56322W        W99239  12.357   5.523  29.925  0.0290  0.1113 -0.1348
56323W        W99240  13.754   9.579  31.492  0.0775  0.2160  0.0847
56324W        W99241  13.117   8.366  28.306  0.1057 -0.0567  0.1274
56325W        W99242  13.129  10.258  30.005 -0.2249 -0.0708 -0.0527
56326W        W99243  12.541   8.777  25.891 -0.1591  0.2009  0.0115
56327W        W99244  14.681   9.389   1.817  0.0049 -0.0149 -0.1090
56328W        W99245  11.330   8.754  30.898 -0.0256  0.1559 -0.0750
56329W        W99246  12.376  12.034  30.489  0.2435  0.1840 -0.0698
56330W        W99247  13.072   9.174  31.417 -0.2209 -0.3833 -0.1322
56331W        W99248  13.238   8.736  27.483 -0.0048  0.1599 -0.2687
56332W        W99249  14.415   7.654  30.804 -0.2728 -0.2486  0.2624
56333W        W99250  12.551   6.409  28.254  0.2566  0.1565 -0.3484
56334W        W99251  12.060  10.339  29.642 -0.1161  0.0952  0.4191
56335W        W99252  13.192   9.199  27.191  0.2858 -0.1268  0.0063
56336W        W99253  12.736   6.516  29.740 -0.0876  0.2643  0.0460
56337W        W99254  14.535  11.581  29.015  0.0928  0.2118  0.3607
56338W        W99255  11.997  10.087  28.162  0.3314 -0.2970  0.4256
56339W        W99256  13.817   8.417  30.641  0.0285 -0.0536 -0.0620
56340W        W99257  12.912  11.059  27.189  0.1091 -0.1791  0.0150
56341W        W99258  14.694   6.983  29.287  0.0465 -0.2237 -0.0641
56342W        W99259  12.168  10.501  28.026 -0.2456 -0.0550 -0.1159
56343W        W99260  11.258   8.596  27.037 -0.0257  0.2842  0.0521
56344W        W99261  11.314   7.604  26.789  0.0131 -0.0006  0.1550
56345W        W99262  14.052   7.707  29.297 -0.5623  0.2274 -0.0634
56346W        W99263  14.601   9.170  27.809  0.0403 -0.2639 -0.0094
56347W        W99264  12.822   9.295  30.519 -0.1575 -0.0427  0.2738
56348W        W99265  12.807   7.863  30.360  0.1173 -0.0908 -0.2210
56349W        W99266  11.654   9.609  28.497  0.0832 -0.3515  0.0460
56350W        W99267  13.774   9.568  29.924  0.0145  0.0174  0.4358
56351W        W99268  12.913   8.399  30.082 -0.0579 -0.2003 -0.2905
56352W        W99269  13.732   9.900  30.467  0.0983 -0.1364  0.0914
56353W        W99270  12.715   9.216   0.407  0.1925 -0.1723  0.1309
56354W        W99271  10.557   7.162  27.192 -0.1317 -0.1314  0.0213
56355W        W99272  12.864   7.658  29.219 -0.0279  0.0723 -0.1280
56356W        W99273  11.675   6.832  29.662  0.1723 -0.2011  0.0505
56357W        W99274  11.748  10.450  30.639  0.2660  0.2911 -0.2131
56358W        W99275  13.440   9.932  27.205 -0.1287 -0.1597  0.3265
56359W        W99276  10.988   7.815  28.095 -0.0114 -0.2497  0.1271
56360W        W99277  12.475   9.087  29.204  0.1944 -0.1368  0.0223
56361W        W99278  13.301   8.652  31.472  0.1686 -0.1658 -0.0646
56362W        W99279  14.407   7.917  26.251  0.0699  0.0900  0.1855
56363W        W99280  11.335   6.602  27.876 -0.1947  0.5088 -0.0013
56364W        W99281  10.175   5.990  27.834 -0.0140  0.0126 -0.2501
56365W        W99282  12.268   6.252  29.825 -0.2257 -0.1936 -0.1170
56366W        W99283  16.077   7.756  28.593 -0.1212 -0.0938 -0.1596
56367W        W99284  15.320   7.609  31.491  0.2302  0.1545 -0.0437
56368W        W99285  10.252   9.663  31.563 -0.2906 -0.1077 -0.1532
56369W        W99286  14.617   7.220  30.797 -0.1821  0.0796  0.0159
56370W        W99287  15.119   9.436  28.669 -0.0268  0.0756  0.0731
56371W        W99288  14.041   8.900  30.704 -0.2374 -0.0080 -0.0777
56372W        W99289  12.162   9.347  24.550 -0.3265 -0.3154  0.0962
56373W        W99290  11.553  11.658  28.029  0.1136  0.0781  0.1763
56374W        W99291  10.410   9.336  28.733  0.3195 -0.0210  0.1565
56375W        W99292  11.589   6.822  30.211 -0.0210  0.1798 -0.0261
56376W        W99293  11.790   8.814  27.985 -0.3001  0.1770 -0.3116
56377W        W99294  12.728   9.789  28.436  0.0329  0.1369  0.2602
56378W        W99295  13.225   9.665  31.568  0.0432  0.1564  0.4543
56379W        W99296  14.779   6.457  28.447  0.0338  0.1329 -0.1799
56380W        W99297  12.938   8.659  27.920 -0.0331 -0.0956 -0.0827
56381W        W99298  11.169   9.345  28.259 -0.0663  0.5752 -0.1541
56382W        W99299  15.589   6.672  30.005 -0.0104 -0.1191 -0.0537
56383W        W99300  14.603  10.503  27.646  0.0437  0.0073  0.0390
56384W        W99301  12.930   7.820  31.739  0.0588 -0.1836  0.0285
56385W        W99302  11.337   7.139  27.112 -0.2951 -0.0093 -0.1013
56386W        W99303  13.810   8.831  27.467  0.0699  0.2259 -0.0731
56387W        W99304  12.499   8.222  30.293 -0.2738  0.0246  0.0319
56388W        W99305  13.225  10.199  31.100  0.2187  0.2576  0.2093
56389W        W99306  12.344  10.263  30.643 -0.3458  0.0579 -0.1088
56390W        W99307  13.844   8.310  27.758  0.1689  0.2809 -0.1479
56391W        W99308  10.039   6.924  27.904  0.0821 -0.0668 -0.1215
56392W        W99309  11.982   8.891  29.251  0.1717 -0.1525 -0.1101
56393W        W99310  13.292  11.719  29.521 -0.0672 -0.1466  0.2521
56394W        W99311  15.203   9.982  26.666  0.2302 -0.1253  0.1906
56395W        W99312  13.222   6.713  29.477 -0.3103  0.1261 -0.2927
56396W        W99313  12.337   8.759  28.818  0.1656 -0.2481  0.0774
56397W        W99314  13.155   9.749  29.685  0.2221 -0.0980  0.3625
56398W        W99315  13.839   8.871  26.456 -0.3838  0.0392  0.0835
56399W        W99316  12.301   9.376  29.666  0.0995 -0.0158 -0.0858
56400W        W99317  14.596   6.873  30.172 -0.1338  0.0888 -0.2124
56401W        W99318  13.641  10.245  30.855  0.0377  0.2368  0.0508
56402W        W99319  13.181   8.084  26.697 -0.0433 -0.0338 -0.1814
56403W        W99320  15.083   7.285  29.038  0.1555  0.0819 -0.2958
56404W        W99321  13.596   8.196  29.288 -0.0608 -0.1828  0.0684
56405W        W99322  10.667   9.530  30.968  0.1369  0.0575  0.3645
56406W        W99323  12.727   5.846  31.668  0.2440 -0.0033 -0.0024
56407W        W99324  12.872   9.902  31.221  0.0177 -0.0656 -0.0975
56408W        W99325  12.862   7.888  26.387  0.0967  0.0131  0.0157
56409W        W99326  15.096   8.427  27.972 -0.0173 -0.0702  0.1918
56410W        W99327  13.648   8.070  26.944  0.0762 -0.0269  0.1250
56411W        W99328  13.196   7.322  28.236 -0.0834  0.1533 -0.1098
56412W        W99329  11.424   7.877  28.289  0.2009  0.0093 -0.2897
56413W        W99330  13.930   9.011   0.008  0.1222 -0.2061  0.1106
56414W        W99331  12.417   7.171  27.555 -0.2060  0.2294  0.3366
56415W        W99332  14.740   6.450  29.881  0.1729  0.1745  0.2346
56416W        W99333  15.723  11.725  25.664 -0.4613 -0.0362 -0.0269
56417W        W99334  14.194   9.073  28.776 -0.1686 -0.0118 -0.0268
56418W        W99335  12.805   7.876  26.976  0.2094 -0.2152  0.2646
56419W        W99336  12.768   8.715  29.188 -0.5223  0.1913  0.1122
56420W        W99337  14.067  12.700  27.992 -0.0674  0.0548  0.4026
56421W        W99338  11.283   8.154  24.799 -0.0123  0.0202 -0.1971
56422W        W99339  12.114   8.385  27.324 -0.0595 -0.3679 -0.0936
56423W        W99340  15.557   8.527  28.891  0.3073 -0.0175 -0.1277
56424W        W99341  12.483   7.122  31.457  0.0642 -0.0673 -0.4196
56425W        W99342  11.683   5.432  28.140  0.0925 -0.2348 -0.1483
56426W        W99343  12.853   9.375  31.847  0.0404  0.3034  0.4236
56427W        W99344  10.446   8.446  28.521 -0.0789 -0.2354 -0.0089
56428W        W99345  11.879   7.682  28.116 -0.1478  0.0057  0.0938
56429W        W99346  11.148  11.548  30.283  0.2230  0.4000  0.1656
56430W        W99347   9.472   9.560  28.942 -0.0593 -0.2154  0.1385
56431W        W99348  11.296   9.721  29.872  0.2309 -0.0572  0.1438
56432W        W99349  13.670   6.705  30.698  0.0202  0.1217  0.0325
56433W        W99350  15.407   7.274  26.094 -0.1244 -0.0907 -0.2018
56434W        W99351  12.734   8.221  27.984 -0.0120 -0.1190  0.0758
56435W        W99352  14.386   8.263  30.013 -0.4016  0.0622  0.2340
56436W        W99353  13.971  10.808  30.941  0.3270  0.2320  0.0703
56437W        W99354  10.751   9.320  26.687 -0.0758  0.3244 -0.1186
56438W        W99355  14.210  12.193  29.945 -0.0283  0.4081  0.1258
56439W        W99356  15.081  10.860  27.001  0.0964 -0.1496  0.0081
56440W        W99357  12.970  10.652  30.324 -0.0472  0.1799 -0.0558
56441W        W99358  12.166   8.988  30.622  0.1137  0.1918  0.0556
56442W        W99359  11.818  10.416  30.149 -0.0057  0.1457  0.0277
56443W        W99360  13.432  10.017  28.866  0.4960 -0.1316 -0.1135
56444W        W99361  11.360   7.632  27.351 -0.3799 -0.0704 -0.1485
56445W        W99362  13.059  10.958  25.719  0.1386  0.2308 -0.1363
56446W        W99363  10.508  11.018  30.390 -0.3704  0.2388 -0.1386
56447W        W99364  10.010  10.078  31.643  0.1204  0.0670 -0.0401
56448W        W99365  11.846   8.450  29.092  0.2163 -0.1501  0.0356
56449W        W99366  15.557   8.875  25.709 -0.0296  0.2457  0.1435
56450W        W99367  13.229   9.580  28.677  0.1226 -0.3343  0.3393
56451W        W99368  12.167  12.285  28.414 -0.1534 -0.0123 -0.1350
56452W        W99369  11.861   8.326  26.922 -0.0430  0.1135  0.0269
56453W        W99370  11.993  12.060  29.748  0.1970 -0.0077 -0.0135
56454W        W99371  11.015   8.542  25.698  0.0532  0.0521  0.0381
56455W        W99372  13.912  11.577  28.080 -0.1225 -0.1487 -0.3241
56456W        W99373  12.506  11.261  28.936  0.5403  0.3503 -0.0321
56457W        W99374  13.536  10.819   0.010 -0.0942  0.0518 -0.2061
56458W        W99375  14.361   7.261  31.282 -0.0227 -0.1761 -0.3429
56459W        W99376  14.126   8.705  29.966 -0.1184  0.2185 -0.2085
56460W        W99377  14.095   8.258  28.205  0.3714  0.2667 -0.0814
56461W        W99378  13.213   9.099  30.918  0.0766 -0.0785  0.0321
56462W        W99379  13.184   7.824  29.633  0.0967  0.1781 -0.0354
56463W        W99380  11.631   7.717  25.459  0.0624  0.0875 -0.3127
56464W        W99381  12.106   9.609  30.063 -0.0970 -0.4389 -0.1200
56465W        W99382  15.534   6.166  30.187  0.2237  0.0507  0.0810
56466W        W99383  11.995  11.224   0.439  0.0730 -0.1361  0.0651
56467W        W99384  15.114  11.840  26.635 -0.0932 -0.0158  0.1695
56468W        W99385  11.026   6.620  28.360  0.1081 -0.0787 -0.2445
56469W        W99386  12.308   7.894  28.341 -0.2771  0.1634 -0.4607
56470W        W99387  15.255   8.113  31.283  0.1941  0.3796 -0.1935
56471W        W99388  12.761   9.353  26.981  0.0463 -0.0066 -0.0149
56472W        W99389  12.915   7.005  29.785 -0.2320 -0.2136  0.1951
56473W        W99390  13.078  10.621  29.403  0.0933 -0.1786 -0.1998
56474W        W99391  12.496  10.180  28.246  0.3248  0.1106 -0.3245
56475W        W99392  13.297   9.276  29.838 -0.0512 -0.0203 -0.1641
56476W        W99393  10.618   7.078  26.177  0.1310  0.1590  0.2492
56477W        W99394  14.723   6.303  27.293 -0.1417 -0.4221 -0.0495
56478W        W99395  12.001  10.377  31.413  0.1028  0.0757  0.1470
56479W        W99396  13.824   8.842   0.802 -0.2678 -0.4368 -0.1172
56480W        W99397  13.503   9.500  30.574  0.0948 -0.2453  0.1346
56481W        W99398  12.993   7.441  26.839  0.0645  0.1912  0.1019
56482W        W99399  12.864   8.868  31.873 -0.3394 -0.0045  0.3219
56483W        W99400  11.575   9.146  29.184 -0.3465 -0.0368 -0.1325
56484W        W99401  13.128   8.295  25.231 -0.1187 -0.1295  0.0536
56485W        W99402  15.660   9.914  30.351  0.4867  0.0004  0.0934
56486W        W99403  12.886   8.814  26.330  0.0278 -0.1471 -0.3712
56487W        W99404  14.337  10.448  30.816 -0.3416 -0.2792  0.1105
56488W        W99405  12.294   7.385  28.054  0.3194  0.1685 -0.0539
56489W        W99406  12.661   7.705  27.970  0.3733 -0.1516  0.1692
56490W        W99407  12.382   9.148  30.160  0.0373 -0.1278 -0.0909
56491W        W99408  12.936   9.326  29.361 -0.1341  0.2681 -0.0955
56492W        W99409  13.248   9.961  30.649 -0.2138 -0.0693  0.0540
56493W        W99410  12.158   6.663  27.533  0.0467  0.1013 -0.3922
56494W        W99411  14.754  10.057  26.874 -0.0310 -0.3237 -0.1860
56495W        W99412  12.525  10.534  29.136 -0.0282  0.3075 -0.1782
56496W        W99413  14.340  12.440  26.633 -0.2441  0.0553 -0.1231
56497W        W99414  14.689   9.501  28.174 -0.1289  0.1699  0.3629
56498W        W99415  13.415  11.101  29.140 -0.2488 -0.3622  0.0772
56499W        W99416  10.790   8.182  30.299  0.1209 -0.0990  0.1574
56500W        W99417  12.504   8.546  27.627  0.4099  0.0148  0.1668
56501W        W99418  14.713  11.133  29.367 -0.2720  0.1079  0.0806
56502W        W99419  13.304   9.164  30.289  0.0302 -0.2170 -0.0146
56503W        W99420  12.724   8.523  29.641 -0.0545 -0.0961  0.0569
56504W        W99421  11.409   8.115  26.788 -0.2417  0.0306 -0.0967
56505W        W99422  13.916   9.300  26.814  0.1735  0.2928  0.3091
56506W        W99423  14.849   8.804  29.526 -0.0930 -0.3724 -0.1007
56507W        W99424  12.197  10.874  29.146 -0.0083 -0.0724  0.2006
56508W        W99425  14.274   6.584  30.657  0.1186  0.0933  0.0585
56509W        W99426  13.630  10.578  29.041  0.1883  0.1148  0.1902
56510W        W99427  11.549  11.383   0.639 -0.1600 -0.1600 -0.1817
56511W        W99428  12.939   6.834  28.284 -0.0312  0.2323  0.0095
56512W        W99429  14.067   7.774  28.417 -0.1329  0.1195 -0.0914
56513W        W99430  13.052   9.216  26.596  0.1221  0.0363 -0.1383
56514W        W99431  12.967   9.809  26.800 -0.0568  0.0021 -0.0989
56515W        W99432  15.512   9.726  28.061  0.3318 -0.0526 -0.0436
56516W        W99433  15.176   9.377  28.131  0.1941  0.0552 -0.1291
56517W        W99434  16.166  10.143  30.236  0.2420  0.2820 -0.5877
56518W        W99435  12.744   7.189  27.970 -0.0400  0.1396 -0.3393
56519W        W99436  12.715   7.419  28.438  0.1193  0.2201  0.0520
56520W        W99437  11.664   6.240  27.638 -0.3170 -0.2063  0.2231
56521W        W99438  13.381  10.619  31.332 -0.1265  0.0676 -0.1349
56522W        W99439  11.705   7.748  27.671  0.1344 -0.1041 -0.0495
56523W        W99440  13.309   9.136  27.769 -0.0269 -0.0816 -0.2448
56524W        W99441  12.520  10.765  30.684  0.2521  0.0863 -0.1604
56525W        W99442  15.051   7.198  31.671 -0.0454 -0.0512 -0.1251
56526W        W99443  11.461   8.962  28.416 -0.1864  0.0669 -0.1865
56527W        W99444  11.700   9.029  29.698  0.1162  0.1422 -0.1795
56528W        W99445  11.249   7.132  25.947  0.0110  0.0130 -0.0407
56529W        W99446  14.238  10.154  27.387  0.2970  0.0741  0.3538
56530W        W99447  12.808   4.766  28.326 -0.0132 -0.0833  0.0901
56531W        W99448  11.892   7.586  29.051 -0.1945 -0.3062 -0.1910
56532W        W99449  13.991  10.558  26.409  0.1447 -0.1648  0.1537
56533W        W99450  14.168   9.272  27.295  0.0446 -0.4263 -0.0093
56534W        W99451  13.111   8.256  29.437 -0.0242 -0.0071  0.0648
56535W        W99452  12.511   8.647   0.343  0.1374  0.1498  0.0712
56536W        W99453  11.589   9.543  26.190  0.1510  0.1826 -0.0501
56537W        W99454  13.689  10.139  29.973  0.3172 -0.5220  0.2211
56538W        W99455  11.903   8.177   0.228  0.1129  0.0109  0.1603
56539W        W99456  12.155   8.093  27.778  0.1666 -0.1570  0.0822
56540W        W99457  12.297   6.848  29.097  0.2591 -0.0558 -0.2347
56541W        W99458  13.782  13.206  27.138  0.2148  0.7029  0.1169
56542W        W99459  14.888  13.216  26.658 -0.1619 -0.0140  0.1382
56543W        W99460  14.451   9.048  30.405 -0.0391 -0.2291 -0.4566
56544W        W99461  11.279   9.693  31.174  0.2341  0.1350 -0.4937
56545W        W99462  10.691   9.042  28.435 -0.0242  0.1743  0.1182
56546W        W99463  13.738  10.307  27.207  0.2294 -0.1629  0.0847
56547W        W99464  14.375  10.132  27.983  0.0609 -0.1098  0.0789
56548W        W99465  14.279  10.824  26.717  0.1430  0.0684 -0.0585
56549W        W99466  14.629   8.784  26.960 -0.1205 -0.1021  0.2675
56550W        W99467  12.493   9.221  28.643  0.0058 -0.1563 -0.1134
56551W        W99468  12.831   7.259   0.366 -0.1434  0.1140  0.0134
56552W        W99469  11.784   9.151  30.885  0.4462  0.1270 -0.2119
56553W        W99470  12.637   9.779  29.440 -0.1725 -0.0777  0.1392
56554W        W99471  13.326   8.541  26.866  0.0256 -0.1334  0.2131
56555W        W99472  13.324   8.326  27.855  0.1261 -0.2293 -0.1038
56556W        W99473  12.878  10.522  27.348 -0.1311 -0.0105 -0.2491
56557W        W99474  12.431   7.173  29.953 -0.0733  0.0152  0.0299
56558W        W99475  12.164   7.678  27.513  0.0580  0.3238 -0.0841
56559W        W99476  14.672   9.048  31.575  0.1782 -0.1029 -0.1324
56560W        W99477  13.070  10.669  27.885 -0.4195  0.3766 -0.2548
56561W        W99478  14.359  10.813  29.492  0.1282 -0.0913 -0.0136
56562W        W99479  13.741   9.586  28.927 -0.1575 -0.1889 -0.0303
56563W        W99480  13.254   9.683  29.182 -0.0039  0.1075 -0.2387
56564W        W99481  14.149  10.547  29.916  0.0966  0.1774  0.1619
56565W        W99482  13.993   9.764   0.326 -0.2972 -0.1894  0.3422
56566W        W99483  11.232  11.436  30.803 -0.1612 -0.0351 -0.0651
56567W        W99484  13.445   8.622  28.922  0.4734  0.1128  0.3680
56568W        W99485  10.925   9.041  30.919 -0.0094 -0.2453  0.0200
56569W        W99486  12.050   9.560  27.763  0.1248 -0.1970 -0.0529
56570W        W99487  12.776   9.411  29.891 -0.0586  0.0256 -0.2376
56571W        W99488  13.846   9.023  29.105 -0.1106  0.1473  0.1986
56572W        W99489  11.913   7.088  28.238 -0.0474 -0.1029  0.1373
56573W        W99490  13.104   7.939  30.743  0.3751 -0.1670 -0.2670
56574W        W99491  12.909  11.160  28.056 -0.1046  0.0993  0.0288
56575W        W99492  11.985   8.733   0.136 -0.2845 -0.1614  0.1314
56576W        W99493  15.003   8.676  31.429  0.1617  0.2493 -0.0203
56577W        W99494  13.543   9.481   0.725  0.0056  0.2620 -0.1220
56578W        W99495  11.078   9.593  30.632 -0.5847  0.1294 -0.2412
56579W        W99496  11.577  10.397  31.676 -0.0473 -0.1565  0.1181
56580W        W99497  12.304  10.713   0.962  0.1192  0.0700 -0.0261
56581W        W99498  10.704   9.180  29.690 -0.0152  0.0198 -0.1316
56582W        W99499  12.003   6.721  31.737 -0.1059  0.2026  0.0272
56583W        W99500  14.654   8.396   0.874 -0.1518 -0.2741 -0.0266
56584W        W99501  11.855   7.153  31.407 -0.4113 -0.1814  0.1323
56585W        W99502  11.821  12.131  31.633  0.1548  0.2112 -0.0638
56586W        W99503  10.631  13.490  30.047  0.0671  0.0328  0.2738
56587W        W99504  12.657   7.003  30.969  0.1507  0.2188  0.0017
56588W        W99505  14.851  10.686  30.473  0.0830  0.0785  0.1899
56589W        W99506  12.736  10.200  30.297  0.3368 -0.0072 -0.0874
56590W        W99507  12.872   8.320  30.956 -0.3987  0.0705 -0.2400
56591W        W99508  12.554  11.508  30.348 -0.0132 -0.1553 -0.2074
56592W        W99509  11.652   9.948  31.310 -0.0476 -0.0156  0.0179
56593W        W99510  14.114  11.361  30.286  0.2884 -0.1946 -0.0001
56594W        W99511  11.550   7.270  29.990  0.0857 -0.2612  0.0263
56595W        W99512  12.582   8.180   2.400  0.1065 -0.0683 -0.1584
56596W        W99513  11.151   6.742   0.556  0.0630 -0.3171 -0.0692
56597W        W99514  12.799  11.330  29.433 -0.0313  0.0060 -0.2805
56598W        W99515  13.666   7.757  31.401 -0.2226  0.1299  0.1862
56599W        W99516  14.311   9.233  29.979 -0.1204  0.1154  0.0491
56600W        W99517  12.964   7.409  30.406  0.0081 -0.1308 -0.2932
56601W        W99518  13.137   8.467   1.376  0.0729  0.1426 -0.1953
56602W        W99519  12.544   8.869  30.844 -0.1569 -0.1154 -0.0019
56603W        W99520  11.499  10.416   0.923  0.0871  0.2638 -0.1344
56604W        W99521  11.378   9.583  29.370  0.0663  0.1338 -0.3430
56605W        W99522  13.468  10.388  30.390  0.0438 -0.2655 -0.1464
56606W        W99523  11.227   9.262  29.713  0.0027  0.1184 -0.0877
56607W        W99524  13.382   9.860   0.456 -0.1109  0.0014  0.0047
56608W        W99525  15.460  11.201  31.800  0.2472  0.2789  0.0261
56609W        W99526  13.716   7.479  29.629 -0.4411 -0.1466 -0.4386
56610W        W99527  13.379   5.574  30.511 -0.0413  0.1641 -0.0282
56611W        W99528  11.269  10.539  30.398 -0.0023 -0.1898  0.1493
56612W        W99529  12.548  11.682   0.800 -0.0967 -0.1768 -0.0103
56613W        W99530  13.955  10.563  30.551 -0.1897 -0.0961 -0.1984
56614W        W99531  14.686   9.291  31.151  0.0451  0.1108  0.3565
56615W        W99532  12.042  10.572   0.019  0.0261  0.0065 -0.0159
56616W        W99533  13.264   6.193  30.375 -0.2563  0.1575 -0.0472
56617W        W99534  14.891   8.278  30.422  0.2192 -0.0523 -0.0520
56618W        W99535  11.024   6.968  31.775  0.3431  0.0861 -0.2170
56619W        W99536  12.168  11.810  31.428 -0.0611 -0.2284  0.2931
56620W        W99537  12.859  11.267  31.425  0.0613 -0.1043 -0.1521
56621W        W99538  12.982  10.858  30.979  0.1622 -0.2029  0.3541
56622W        W99539  13.357   7.832   0.243 -0.1474 -0.2938  0.1794
56623W        W99540  13.944   9.363  30.387  0.2839 -0.1435  0.1203
56624W        W99541  14.085   8.350  31.380 -0.0350  0.1539 -0.2461
56625W        W99542  10.566   9.102  30.560  0.0508  0.2391 -0.1438
56626W        W99543  15.141  10.348  31.509 -0.0685  0.1238 -0.1923
56627W        W99544  14.957   8.625   0.318 -0.0416  0.2512 -0.1607
56628W        W99545  12.819   8.116   1.043 -0.1718 -0.2701  0.2388
56629W        W99546  13.359   8.268  30.523 -0.0036 -0.0329  0.3002
56630W        W99547  13.655  10.577   0.982  0.1145 -0.0917  0.1676
56631W        W99548  12.413  11.065  31.763  0.0248 -0.0317  0.0230
56632W        W99549  15.031  11.064   0.138  0.0567  0.2775 -0.2073
56633W        W99550  11.715  12.203   0.929 -0.2733  0.0896 -0.0254
56634W        W99551  12.891  10.995  29.097 -0.0956 -0.3923  0.2934
56635W        W99552  10.913   9.390  30.179  0.0408 -0.1778 -0.0772
56636W        W99553  12.855   8.239   0.042 -0.2754  0.2420 -0.2407
56637W        W99554  12.253  10.775   0.448 -0.1190  0.0813  0.0254
56638W        W99555  11.054  11.077  30.291  0.2517  0.1485 -0.2995
56639W        W99556  10.276   5.343  30.968 -0.2240  0.3151 -0.1796
56640W        W99557  12.430  10.475  31.620  0.1635  0.0864  0.3184
56641W        W99558  14.793  10.975   0.747 -0.0308  0.2204 -0.1109
56642W        W99559  15.376   6.383  31.092 -0.2587 -0.0609  0.0060
56643W        W99560  11.341  13.447  19.474  0.3784 -0.0625 -0.1242
56644W        W99561  12.280  12.628  14.849  0.5641  0.0111 -0.2246
56645W        W99562  14.177  10.604  14.976  0.2439 -0.0285  0.0945
56646W        W99563  13.910  13.420  14.530  0.0654 -0.1393  0.0600
56647W        W99564   9.470  12.126  16.691 -0.2710 -0.0674 -0.1790
56648W        W99565  12.809  15.582  15.926  0.0183  0.0452  0.1348
56649W        W99566  10.667  10.195  19.711  0.1922  0.0401 -0.3339
56650W        W99567  12.336  13.174  16.772 -0.2981 -0.0472  0.1987
56651W        W99568  13.380  12.015  17.625  0.1654  0.0180  0.1195
56652W        W99569  13.065  11.263  15.476 -0.0539 -0.0615  0.0833
56653W        W99570  12.449  14.759  19.794  0.1511 -0.0084 -0.0955
56654W        W99571  11.196  15.030  18.283  0.1187 -0.2256 -0.0754
56655W        W99572  13.513  12.311  15.339  0.0168 -0.0644 -0.0593
56656W        W99573  10.079   9.565  17.341  0.1482  0.0022 -0.0734
56657W        W99574  14.426  12.358  15.371  0.0869 -0.0589 -0.0248
56658W        W99575  11.446  11.818  16.290  0.0124 -0.0423 -0.1923
56659W        W99576  11.317  11.093  17.914  0.2113  0.4353  0.1740
56660W        W99577  11.253  12.245  16.401  0.1411 -0.2145  0.0164
56661W        W99578  12.742  13.597  16.919  0.0773 -0.0493  0.0690
56662W        W99579  11.652   9.985  18.745 -0.0728  0.3736 -0.0777
56663W        W99580  13.450  10.028  17.866 -0.0414  0.0264  0.1775
56664W        W99581  12.721  13.102  16.126  0.5655  0.2047  0.2023
56665W        W99582  10.540  13.435  15.051  0.2857  0.1611 -0.1495
56666W        W99583  11.896  14.237  14.996  0.3758 -0.0881  0.0422
56667W        W99584  12.316   9.658  18.495  0.1207  0.3458 -0.2477
56668W        W99585  13.007  11.755  17.450  0.1144  0.1495 -0.0641
56669W        W99586  15.565  13.568  16.420  0.1666  0.0837 -0.1434
56670W        W99587  12.668  14.088  17.059 -0.0988 -0.0758 -0.1444
56671W        W99588  11.503  13.320  16.813  0.0022 -0.3669 -0.4505
56672W        W99589  13.496   9.550  17.534 -0.2854  0.0177 -0.0148
56673W        W99590  13.280  12.956  16.391  0.1278  0.2295  0.0813
56674W        W99591   9.287  13.786  17.472 -0.0695  0.0582  0.0938
56675W        W99592  11.351  14.398  17.551  0.2258  0.0549  0.1823
56676W        W99593  14.405  14.214  14.156  0.0494 -0.0883 -0.1426
56677W        W99594  14.911  12.160  15.781  0.0223  0.0827  0.4032
56678W        W99595  10.228  14.242  19.946  0.0428  0.2577  0.2481
56679W        W99596   9.227  12.564  16.693  0.0442  0.1746 -0.0552
56680W        W99597  13.095  13.897  17.259 -0.1993  0.2437 -0.3269
56681W        W99598  12.826  13.565  15.989 -0.1223 -0.0428 -0.0021
56682W        W99599  11.598  12.468  16.860  0.1631  0.2384 -0.1878
56683W        W99600  11.501  13.609  15.849  0.1675  0.0890  0.1034
56684W        W99601  11.937  13.406  16.620 -0.1985 -0.1697  0.1151
56685W        W99602  12.753  12.819  15.667 -0.2372  0.0101 -0.0836
56686W        W99603  12.528  11.824  18.227  0.0837 -0.1947 -0.1118
56687W        W99604  10.441  13.901  19.044  0.3081  0.1111 -0.0958
56688W        W99605  15.585  11.375  18.302 -0.0933  0.2761  0.1661
56689W        W99606  11.131  14.448  15.185 -0.1800 -0.2115 -0.0995
56690W        W99607  14.085  10.713  15.462 -0.3104  0.0542  0.0205
56691W        W99608  11.207  12.257  15.379  0.1453 -0.0186 -0.1507
56692W        W99609  13.373  13.574  15.545  0.2246 -0.1098  0.3948
56693W        W99610  12.473  10.467  17.265  0.0164 -0.0852 -0.2636
56694W        W99611  12.441  13.392  16.329  0.2951  0.0206  0.5866
56695W        W99612  13.622  11.699  16.852 -0.0246 -0.0863 -0.3657
56696W        W99613  13.917  11.831  19.472 -0.1459  0.0549 -0.1118
56697W        W99614  10.951  11.891  14.600  0.1349  0.1365  0.3127
56698W        W99615  12.727  12.939  17.087  0.0235  0.3254  0.0418
56699W        W99616  12.859  13.889  18.074 -0.2428  0.1361  0.0153
56700W        W99617  10.662  12.440  16.323  0.0244 -0.1866 -0.0869
56701W        W99618  12.862  15.395  15.489 -0.0219  0.2714  0.0285
56702W        W99619  14.493  12.002  15.658 -0.1243  0.1401 -0.0893
56703W        W99620  13.979  15.355  13.525  0.0582 -0.0515  0.2730
56704W        W99621  12.582   9.787  16.436 -0.1502 -0.2186 -0.2204
56705W        W99622  13.087  12.582  17.158 -0.2321 -0.1516 -0.2218
56706W        W99623  11.242  11.561  17.728  0.1619  0.0763  0.1778
56707W        W99624  11.953  11.877  16.081 -0.0686 -0.2617 -0.3163
56708W        W99625  15.666  12.820  16.879 -0.1329  0.2312  0.0644
56709W        W99626  11.677  13.030  19.555  0.1899 -0.2394  0.0475
56710W        W99627  15.235  12.168  17.543 -0.1801 -0.0545 -0.0797
56711W        W99628  12.440  12.683  17.514  0.0196  0.0660  0.1324
56712W        W99629  13.273  13.752  16.710 -0.1910 -0.0676 -0.2366
56713W        W99630  12.111  12.197  15.099 -0.0218  0.3106  0.1598
56714W        W99631  14.113  10.447  18.816 -0.1846 -0.1257  0.0994
56715W        W99632  12.765   9.034  17.427 -0.2934 -0.1058  0.1349
56716W        W99633  11.399  10.408  15.514  0.0556 -0.0544 -0.2045
56717W        W99634  12.877  12.862  14.094  0.1641 -0.4597  0.0386
56718W        W99635  13.758  11.414  18.220  0.0252 -0.0198 -0.0183
56719W        W99636  15.313  12.881  15.293  0.2403 -0.1053 -0.0268
56720W        W99637  11.338  12.140  17.134 -0.0827 -0.0871  0.0270
56721W        W99638  13.070  10.435  17.746 -0.1561 -0.0200 -0.2744
56722W        W99639  14.223  12.962  15.340  0.1411  0.0727  0.2061
56723W        W99640  11.207  14.504  14.707 -0.0264  0.1192 -0.0554
56724W        W99641  11.133  13.237  18.103  0.0171  0.2783 -0.0925
56725W        W99642  10.943  12.835  14.889 -0.0694  0.2412 -0.2589
56726W        W99643  10.199  11.041  19.878 -0.2577 -0.0892 -0.2315
56727W        W99644  12.206  13.265  19.301 -0.0763  0.0402 -0.0841
56728W        W99645  13.260  12.711  15.567 -0.0708 -0.2338  0.0993
56729W        W99646  11.210  11.851  16.717 -0.1771  0.1617 -0.4743
56730W        W99647  13.650   9.949  15.997  0.2707  0.1370  0.1247
56731W        W99648  11.913  12.928  15.680  0.1512  0.0164  0.0367
56732W        W99649  13.600  13.916  14.649 -0.0696  0.3418  0.0304
56733W        W99650  14.528  11.413  14.924 -0.1001 -0.3707 -0.1043
56734W        W99651  12.947  14.477  15.794 -0.0380  0.1058 -0.0421
56735W        W99652  12.638  11.826  16.660  0.3533 -0.2390  0.0773
56736W        W99653  10.602  12.002  15.959 -0.1546  0.2598  0.0580
56737W        W99654  11.986  10.136  19.088  0.0839 -0.2983  0.1206
56738W        W99655   8.371  10.930  19.065 -0.0011  0.0154 -0.0663
56739W        W99656  13.467  11.588  17.322  0.1799 -0.3181  0.1354
56740W        W99657  11.594  11.473  15.835 -0.2311 -0.0049  0.0534
56741W        W99658  12.733  13.378  15.494  0.1842 -0.0780 -0.1431
56742W        W99659  13.556  13.124  15.499 -0.1920 -0.2658 -0.0450
56743W        W99660  10.809  13.340  15.433 -0.0386  0.1186  0.0667
56744W        W99661  13.094   9.476  18.648 -0.1632 -0.1563 -0.0107
56745W        W99662  12.853  14.096  15.476 -0.0111  0.1433  0.1755
56746W        W99663  12.368  15.173  18.145 -0.0891  0.2403  0.1859
56747W        W99664  11.433  14.893  15.627 -0.3785  0.2501  0.2842
56748W        W99665  12.768  12.718  16.552  0.0004  0.2456 -0.1839
56749W        W99666  10.062  12.791  17.077 -0.1199  0.0549 -0.0687
56750W        W99667  11.454  16.062  15.315  0.0665 -0.2024 -0.0984
56751W        W99668  12.468  13.287  17.311 -0.0315 -0.0764 -0.3870
56752W        W99669  10.548  12.115  15.476 -0.1040 -0.1358  0.2898
56753W        W99670  14.000  14.716  17.713 -0.1433  0.1419 -0.0199
56754W        W99671  12.139  12.998  15.207  0.0995 -0.0167 -0.1950
56755W        W99672  12.112  13.592  17.590 -0.0644 -0.0952 -0.1466
56756W        W99673  10.931  13.139  19.490 -0.0046 -0.0367 -0.0874
56757W        W99674  14.152   9.827  17.390  0.1000 -0.0475 -0.1441
56758W        W99675  12.856  10.789  17.513  0.2231  0.1150  0.1852
56759W        W99676  10.310  10.278  18.648  0.0976  0.1491  0.1999
56760W        W99677  13.445  14.439  15.978  0.1267 -0.0428  0.1979
56761W        W99678  12.347  12.596  15.493 -0.1271 -0.1839  0.2400
56762W        W99679  10.940  12.797  16.116 -0.1337 -0.0646 -0.0033
56763W        W99680  11.151  15.700  15.331 -0.0874  0.3153 -0.1734
56764W        W99681  13.828  12.691  15.552  0.1252 -0.1922 -0.0027
56765W        W99682   9.210  10.530  17.664 -0.1860 -0.3770  0.2448
56766W        W99683  12.053  11.047  18.167  0.0350 -0.0115 -0.2514
56767W        W99684  10.735  11.650  17.907 -0.0711  0.1775 -0.0260
56768W        W99685  10.769  12.633  18.412  0.0455  0.1919  0.0106
56769W        W99686  14.165  11.776  15.988 -0.0443 -0.2709 -0.0294
56770W        W99687  13.909  13.076  16.279 -0.0318 -0.2368 -0.0208
56771W        W99688  13.292  10.799  19.064 -0.2032 -0.1735 -0.0710
56772W        W99689  13.903  13.188  15.020 -0.1094 -0.2881 -0.1474
56773W        W99690  13.628  12.406  14.831  0.0420  0.2048  0.0211
56774W        W99691  13.124  10.808  15.620  0.1128 -0.2807  0.1484
56775W        W99692  11.801  13.073  20.360 -0.2757 -0.1233  0.2511
56776W        W99693  13.087  15.141  15.109 -0.2239 -0.0900  0.2397
56777W        W99694  14.849  13.326  15.326  0.1163  0.1700  0.1425
56778W        W99695  12.492  11.554  16.081 -0.1822 -0.3374 -0.2631
56779W        W99696  13.018  13.418  14.684 -0.0242 -0.2257 -0.0416
56780W        W99697  11.651  12.205  18.593 -0.1172 -0.0640  0.0218
56781W        W99698  12.448  10.680  18.486  0.1024  0.0261 -0.0172
56782W        W99699  11.026  14.085  17.830 -0.0993 -0.0833  0.0757
56783W        W99700  11.831  12.552  15.421  0.1820  0.2171 -0.1918
56784W        W99701  12.105  11.243  15.956 -0.0408 -0.1282 -0.0171
56785W        W99702  12.284  10.171  16.809  0.0870 -0.1515 -0.3671
56786W        W99703  10.902  14.769  15.532 -0.1766  0.0110 -0.0664
56787W        W99704  15.312   9.226  16.673  0.2784 -0.3995  0.1378
56788W        W99705  14.426   9.208  18.788 -0.2425 -0.2629  0.2582
56789W        W99706  11.044   8.791  20.639  0.1155  0.1870 -0.1211
56790W        W99707  13.346  13.756  18.237 -0.0205 -0.2992  0.1888
56791W        W99708  13.466  13.525  14.974 -0.0663 -0.3853  0.0035
56792W        W99709  14.938  12.384  16.284 -0.3785  0.0479 -0.0423
56793W        W99710  12.308  12.159  16.289 -0.2382 -0.0534 -0.3412
56794W        W99711  11.588  11.928  17.767 -0.1335 -0.2300 -0.0012
56795W        W99712  11.295  12.952  19.148  0.1300 -0.0542  0.2188
56796W        W99713  10.623  13.979  17.082 -0.0151 -0.1679  0.1943
56797W        W99714  13.936  10.792  19.739  0.3246  0.1162 -0.1496
56798W        W99715  14.006  12.650  15.020  0.0718  0.1606 -0.2524
56799W        W99716  13.225  12.305  19.733 -0.2084  0.0381 -0.0181
56800W        W99717  11.019  12.305  15.884  0.2516 -0.0423  0.0107
56801W        W99718  10.962  14.026  14.570 -0.1798  0.0258  0.0825
56802W        W99719  12.368  14.973  15.337  0.1064 -0.3158 -0.0886
56803W        W99720  11.218  10.777  18.560  0.1066  0.0613  0.1177
56804W        W99721  14.087  13.693  15.966 -0.0961  0.1377  0.0222
56805W        W99722  10.896  13.692  14.942  0.0005 -0.0839  0.1284
56806W        W99723  13.609  10.900  16.511  0.2378 -0.0369  0.2326
56807W        W99724  10.277  13.328  15.519  0.2281 -0.0807  0.2097
56808W        W99725  15.269   8.502  18.840  0.1674 -0.0087 -0.1010
56809W        W99726  10.531  13.944  16.550 -0.1702  0.2403 -0.0701
56810W        W99727  11.344  12.812  15.211  0.1101  0.2436  0.0738
56811W        W99728   9.416  11.849  17.638  0.1568 -0.1542 -0.1286
56812W        W99729  13.719  11.768  16.329 -0.4918  0.3095  0.0501
56813W        W99730  12.836  14.981  14.708  0.1935  0.1622  0.2451
56814W        W99731   9.376  10.588  16.367  0.2112 -0.2829  0.0461
56815W        W99732  12.326  11.463  18.006 -0.0302 -0.0741  0.1069
56816W        W99733  10.158  13.699  17.412 -0.1440 -0.1054 -0.1201
56817W        W99734  12.881  13.179  16.627 -0.2080 -0.0758 -0.0845
56818W        W99735  13.442  10.160  14.930  0.1217 -0.0310  0.1166
56819W        W99736  13.372  13.017  17.354  0.0826  0.5065 -0.0804
56820W        W99737  12.250  12.302  19.426  0.1569  0.0113  0.1673
56821W        W99738  12.615  12.145  15.913  0.1540  0.3038  0.4015
56822W        W99739  13.853  11.594  17.728 -0.4077  0.2029 -0.0759
56823W        W99740  13.083  10.955  16.594 -0.0515 -0.2029  0.0862
56824W        W99741  10.086  14.350  18.909  0.3033  0.2149  0.2738
56825W        W99742  10.834  15.053  17.203 -0.0374  0.1142 -0.0568
56826W        W99743  10.842  11.291  16.232 -0.2127  0.0431  0.1292
56827W        W99744  10.994  14.139  16.582  0.1438 -0.2582 -0.3182
56828W        W99745  11.597  10.858  18.956 -0.2161 -0.1423 -0.2010
56829W        W99746  15.065  11.457  16.421  0.2235 -0.2687 -0.0142
56830W        W99747   9.918  11.851  16.535  0.1856  0.1900 -0.2694
56831W        W99748  10.952  11.228  18.192  0.0127  0.2444  0.3062
56832W        W99749  11.845  12.231  17.389  0.3029 -0.2976  0.1410
56833W        W99750  12.869  12.948  18.221 -0.0065 -0.0797 -0.2158
56834W        W99751  13.092  11.604  16.901  0.4244  0.0679  0.1781
56835W        W99752   9.942  13.407  21.748 -0.2081 -0.0675  0.1932
56836W        W99753  12.487  10.355  17.793  0.2144  0.2899  0.2148
56837W        W99754  13.608  13.482  15.975  0.0611  0.0328  0.1060
56838W        W99755  12.593  11.777  17.637  0.1767  0.0596  0.0942
56839W        W99756  12.110  13.162  14.264  0.2277 -0.1915  0.1043
56840W        W99757  10.473  12.547  15.867 -0.0683  0.1521  0.1865
56841W        W99758  12.158  13.668  14.404  0.2574 -0.0292  0.1638
56842W        W99759  12.062  11.182  17.696  0.2616  0.1748 -0.2949
56843W        W99760  11.832  12.337  16.408  0.0532  0.2236  0.2927
56844W        W99761  10.380  11.638  16.288  0.0862 -0.2251 -0.0399
56845W        W99762  11.553  13.421  16.314  0.0259 -0.2849 -0.0111
56846W        W99763  12.739  10.575  15.533 -0.2376  0.1323 -0.1368
56847W        W99764  12.601  13.304  15.033 -0.2579 -0.1522 -0.1604
56848W        W99765  11.181  10.850  17.380  0.3540  0.0676  0.0061
56849W        W99766  13.661  10.519  17.807  0.1528 -0.0335 -0.2006
56850W        W99767  13.985  12.165  15.441 -0.0336 -0.1691 -0.2276
56851W        W99768  13.944   9.681  18.821 -0.0513 -0.0730 -0.4307
56852W        W99769  13.273  10.507  16.450 -0.2939  0.0440 -0.2367
56853W        W99770  13.516  14.641  16.486  0.2617  0.0971  0.0945
56854W        W99771  11.457  10.292  19.124  0.1825 -0.1059  0.1163
56855W        W99772  11.741  12.349  19.896 -0.2531 -0.0052  0.0413
56856W        W99773  11.906  11.494  18.373  0.1558 -0.3062 -0.1930
56857W        W99774  11.407  12.761  16.463 -0.1838 -0.0470  0.1212
56858W        W99775  11.761  10.969  16.639 -0.1392 -0.0220  0.0295
56859W        W99776  11.573  13.017  16.027  0.2624 -0.1746 -0.2631
56860W        W99777  14.988  13.615  15.732  0.0669 -0.1954 -0.1658
56861W        W99778  12.347  13.170  15.693  0.1393 -0.2075 -0.1607
56862W        W99779  15.023  12.661  14.875 -0.0642 -0.3562  0.1124
56863W        W99780  13.192  13.309  16.960  0.0922  0.2304  0.3408
56864W        W99781  11.399  10.883  16.916 -0.0479 -0.0108 -0.2635
56865W        W99782  13.563  11.348  15.659 -0.0205  0.1148 -0.0761
56866W        W99783  11.175  13.545  18.549 -0.2471 -0.0767  0.0403
56867W        W99784  11.569  11.288  20.742 -0.0404 -0.0973 -0.2678
56868W        W99785  11.908  11.908  19.027  0.2960  0.0104  0.0352
56869W        W99786  15.222  11.806  16.115  0.4535 -0.2766 -0.1584
56870W        W99787  13.535  12.865  15.954  0.0596 -0.1052  0.0881
56871W        W99788  14.290  11.948  18.649 -0.1705  0.1028  0.0582
56872W        W99789  14.669  12.432  16.763  0.0241  0.0906 -0.1305
56873W        W99790  10.509  11.684  19.435 -0.1430 -0.1345  0.0552
56874W        W99791  12.621  15.579  18.120 -0.4165  0.2544 -0.2916
56875W        W99792  14.142  11.738  14.619  0.1155 -0.1379 -0.2173
56876W        W99793  11.688  11.964  16.758  0.0782  0.4266 -0.0492
56877W        W99794  15.616  11.955  14.890 -0.1526  0.1767  0.0557
56878W        W99795  13.708  12.589  14.215  0.3748 -0.2268 -0.0330
56879W        W99796  11.125  13.080  18.689  0.0259  0.0413  0.0354
56880W        W99797  11.998  10.989  19.280 -0.0891  0.1143  0.0718
56881W        W99798  12.732  12.388  14.768 -0.0149 -0.1720  0.1898
56882W        W99799  14.082  13.190  16.765  0.4764 -0.2169  0.2225
56883W        W99800  10.623  14.666  15.103 -0.2085  0.0867 -0.0460
56884W        W99801  13.675  12.273  15.817  0.1261 -0.1173  0.0595
56885W        W99802  10.333  14.135  15.820 -0.0576  0.3107 -0.2935
56886W        W99803   8.883  12.208  17.933  0.1259 -0.1534  0.1646
56887W        W99804  11.874  12.932  19.090 -0.1379 -0.2783 -0.1622
56888W        W99805  10.452  13.874  14.756 -0.0007 -0.1844 -0.0810
56889W        W99806  13.569  12.794  15.125  0.3177 -0.0517 -0.0807
56890W        W99807  12.955  11.249  17.968  0.0546 -0.0695 -0.4055
56891W        W99808  13.707  11.474  18.687 -0.0748 -0.0521  0.1228
56892W        W99809  13.237  10.336  15.427  0.0233  0.0745  0.0857
56893W        W99810  12.088  12.221  16.870 -0.1451  0.1091  0.0738
56894W        W99811  10.912  11.829  16.371 -0.0602 -0.0428 -0.1020
56895W        W99812  12.832   9.854  16.891 -0.0602 -0.1195 -0.0368
56896W        W99813  11.192  13.598  17.742  0.1133 -0.0734 -0.0780
56897W        W99814  10.811  13.623  18.076 -0.1895  0.2179  0.1546
56898W        W99815  11.083  13.239  15.912  0.2006 -0.1741  0.1821
56899W        W99816  12.536  10.867  18.004  0.0685  0.2076  0.2521
56900W        W99817  13.453  11.236  17.817  0.1212 -0.0870 -0.0134
56901W        W99818  12.635  11.304  17.582  0.4046  0.2692  0.1281
56902W        W99819  13.963   9.069  18.010 -0.0299  0.1414 -0.2396
56903W        W99820  12.834  13.796  19.823  0.0578  0.1175  0.1402
56904W        W99821  10.762  14.135  15.151 -0.1177 -0.0004  0.2828
56905W        W99822  15.094   9.390  17.148  0.0796 -0.2694 -0.0689
56906W        W99823  14.005  12.124  14.856  0.0174 -0.2526  0.0621
56907W        W99824  11.798  15.104  16.845 -0.1347 -0.3035 -0.3106
56908W        W99825  11.983  11.887  18.092  0.0593  0.0012 -0.2090
56909W        W99826  12.242  11.131  16.735  0.0360  0.1075  0.1821
56910W        W99827  13.303  12.990  14.752  0.0755  0.2378 -0.0445
56911W        W99828  11.938  10.906  17.109  0.0164  0.1541  0.0864
56912W        W99829  11.811  14.399  15.830 -0.0354 -0.1292 -0.0300
56913W        W99830  11.304  11.698  20.953 -0.0631 -0.1177 -0.1551
56914W        W99831  10.585  13.851  20.045 -0.0808  0.2468  0.2247
56915W        W99832  11.815  14.519  16.339  0.1755 -0.0816  0.1539
56916W        W99833  13.795  12.894  14.648 -0.2787  0.1244 -0.2543
56917W        W99834  13.680  15.173  14.489  0.1941 -0.4040  0.3558
56918W        W99835  13.380  12.089  17.086 -0.0330  0.1469 -0.0308
56919W        W99836  13.740  10.858  16.994  0.0048  0.1814  0.1956
56920W        W99837  11.792  13.740  15.115  0.0546  0.0448 -0.2608
56921W        W99838  11.430  14.174  17.019  0.3859 -0.1795 -0.0250
56922W        W99839  13.095  13.175  15.250 -0.2678 -0.0047 -0.0684
56923W        W99840  10.979  12.614  17.286 -0.0514 -0.0476 -0.2263
56924W        W99841  14.592  12.292  20.450  0.2381  0.0622 -0.1555
56925W        W99842  14.259   9.388  16.648  0.1825 -0.1541  0.1629
56926W        W99843  14.807  10.956  16.322  0.2565 -0.2472  0.2175
56927W        W99844  13.321  12.994  17.884  0.0781  0.1015  0.0899
56928W        W99845  13.341  13.318  19.216 -0.2042  0.1665 -0.1060
56929W        W99846  12.200  11.647  16.756  0.3281 -0.1340 -0.0585
56930W        W99847  13.653  11.879  15.107  0.1936  0.2341  0.2157
56931W        W99848  13.259  11.920  15.450 -0.3168 -0.1196  0.1990
56932W        W99849  12.640  12.821  18.709 -0.0169 -0.1484  0.4632
56933W        W99850   9.490  12.151  18.731 -0.0191 -0.0214 -0.0112
56934W        W99851  15.126  13.782  16.208  0.0444  0.4681 -0.1339
56935W        W99852  10.150  12.896  15.677 -0.1156  0.0578 -0.2242
56936W        W99853  11.435  12.325  14.884 -0.0574 -0.1367 -0.1573
56937W        W99854  14.376  10.051  16.574  0.0912 -0.1732  0.1113
56938W        W99855  12.462  13.049  14.633  0.2397 -0.0370 -0.1171
56939W        W99856  12.500  11.095  16.271  0.0856  0.1588  0.1053
56940W        W99857  11.510  12.578  15.812 -0.0888 -0.4418  0.1398
56941W        W99858  12.331  13.676  15.795 -0.0020 -0.1849  0.0009
56942W        W99859  10.402  14.549  18.360 -0.0185 -0.0287 -0.1261
56943W        W99860  10.247  11.322  15.904 -0.1783 -0.0169 -0.2025
56944W        W99861  13.889  10.342  17.174 -0.2410  0.0934 -0.0080
56945W        W99862  13.093  13.151  15.779  0.1081  0.3713  0.0054
56946W        W99863  12.164  10.481  19.617 -0.0252 -0.2245  0.3442
56947W        W99864  10.901  11.140  17.075 -0.2492  0.1965 -0.1145
56948W        W99865  13.679  12.200  16.713 -0.1996  0.1690  0.2662
56949W        W99866  11.250  12.707  18.290  0.1385 -0.0124 -0.2084
56950W        W99867  12.596  11.572  17.146  0.2834  0.3327  0.1877
56951W        W99868  12.277  13.930  14.882  0.0116 -0.1649 -0.0837
56952W        W99869  14.325  11.743  17.475  0.1132 -0.2202  0.1038
56953W        W99870  13.256  12.523  14.544 -0.0472 -0.0555 -0.0497
56954W        W99871  14.147  11.702  16.947  0.1685 -0.1025 -0.1767
56955W        W99872  10.910  11.976  17.093  0.1398 -0.3942 -0.0627
56956W        W99873  14.355  11.921  15.142 -0.1808 -0.3131  0.0511
56957W        W99874  11.600  11.262  17.365 -0.2994  0.0594  0.2631
56958W        W99875  13.006  11.055  19.320  0.2880  0.0928 -0.2068
56959W        W99876  13.554  12.591  17.016 -0.0382  0.1333 -0.0476
56960W        W99877  10.620   9.488  17.935 -0.0929  0.1259  0.2731
56961W        W99878  13.167  13.756  14.349  0.0494  0.1934 -0.1907
56962W        W99879  10.824  13.250  17.705  0.1021  0.0090 -0.1326
56963W        W99880  11.957  14.032  16.934  0.0022 -0.1095 -0.2409
56964W        W99881  14.127  12.536  14.552 -0.1549 -0.2096  0.2550
56965W        W99882  11.286  13.659  15.289  0.2254  0.0064 -0.2713
56966W        W99883   9.995  11.836  17.471  0.1681  0.0477  0.1885
56967W        W99884  14.437  14.042  15.062 -0.0529  0.2494 -0.2157
56968W        W99885  15.258  12.795  16.229  0.0258  0.2060  0.3526
56969W        W99886  11.628  12.904  17.320  0.0356  0.0563 -0.1402
56970W        W99887  11.084  12.487  18.875  0.1280 -0.0256 -0.0582
56971W        W99888  10.906  14.256  15.649 -0.1502  0.0845  0.1143
56972W        W99889  12.933  12.029  17.974  0.0976 -0.0481 -0.4774
56973W        W99890  14.297  10.753  16.998  0.2516  0.1870 -0.0453
56974W        W99891  14.456  12.179  14.442  0.0066 -0.1613 -0.1813
56975W        W99892  13.320  10.793  17.343  0.2717 -0.0096 -0.0723
56976W        W99893  11.781  14.432  17.297 -0.0656 -0.0472 -0.1124
56977W        W99894  12.745  11.104  18.451 -0.3412  0.2274  0.0839
56978W        W99895  11.181  13.224  15.092 -0.0970 -0.0163 -0.1518
56979W        W99896  12.753  13.653  18.482 -0.1927  0.0149  0.1302
56980W        W99897  10.788  11.084  15.444  0.0138  0.0910  0.0063
56981W        W99898  12.874  12.254  16.385  0.4019 -0.2132  0.4455
56982W        W99899  13.059  12.488  18.151  0.3120 -0.3265 -0.1309
56983W        W99900  12.863  11.692  15.649 -0.1404  0.0456 -0.0864
56984W        W99901  15.539  12.352  15.366  0.0955  0.2022 -0.0993
56985W        W99902  12.079  10.598  16.759  0.0639  0.2411 -0.1776
56986W        W99903  14.295  10.884  16.348  0.0892  0.0817 -0.2225
56987W        W99904  14.052  11.181  15.678 -0.1184  0.2895 -0.0071
56988W        W99905  12.623  11.860  18.750  0.1714 -0.1077  0.1689
56989W        W99906   8.897  11.544  16.721 -0.0870 -0.0369 -0.0470
56990W        W99907  11.558  12.104  15.870  0.2170  0.0783 -0.2222
56991W        W99908  12.588  12.352  18.487 -0.2410  0.3788  0.2147
56992W        W99909  12.248  11.263  20.178  0.0090  0.3151  0.0216
56993W        W99910  12.378  11.424  18.511  0.2746  0.2277 -0.2305
56994W        W99911  10.955  12.821  15.594 -0.1735 -0.1685  0.1649
56995W        W99912  10.386  12.483  18.078  0.0670 -0.0628 -0.3505
56996W        W99913  12.444  14.477  15.016 -0.0124  0.1905 -0.4268
56997W        W99914  10.254   8.872  18.604  0.0084  0.0067  0.0651
56998W        W99915  10.603  10.739  17.356  0.1182 -0.2192 -0.1133
56999W        W99916  12.255  12.614  16.553  0.4529 -0.1559 -0.1254
57000W        W99917  15.672  12.473  15.984  0.2512  0.2929 -0.1371
57001W        W99918  10.435  12.896  17.425 -0.0186  0.1784 -0.2962
57002W        W99919  13.117  11.235  17.467 -0.1758 -0.3153 -0.0187
57003W        W99920   9.860  14.199  15.485 -0.1662 -0.0426 -0.1825
57004W        W99921  11.242  12.867  19.708  0.1215  0.0642  0.0001
57005W        W99922  11.033  11.998  20.504  0.1239 -0.1860 -0.1036
57006W        W99923  10.760  11.489  15.767  0.1517 -0.1238 -0.1141
57007W        W99924  13.190  12.431  16.683 -0.2936  0.1842 -0.1817
57008W        W99925  13.851  15.053  16.454  0.1281  0.0632 -0.0233
57009W        W99926  13.599  16.161  16.614  0.3609  0.4913  0.0267
57010W        W99927  12.561  13.336  17.830  0.1463 -0.2553 -0.3468
57011W        W99928  11.608  13.406  18.022 -0.1061 -0.0362 -0.1291
57012W        W99929   8.936   9.501  19.424 -0.0912  0.0100  0.0278
57013W        W99930  12.791  14.104  14.930 -0.1754  0.2437  0.0543
57014W        W99931  11.576  14.298  19.670  0.0703  0.0999  0.5526
57015W        W99932  13.416  12.113  14.250  0.0419 -0.0672  0.1592
57016W        W99933  13.767   9.334  20.181  0.0819  0.1336 -0.1312
57017W        W99934  12.756  12.360  15.478 -0.1349  0.1962  0.0481
57018W        W99935   9.138  10.234  20.963 -0.0141 -0.0726 -0.0209
57019W        W99936  11.060  12.178  18.512 -0.0623  0.1603  0.3406
57020W        W99937  14.208  12.298  17.587  0.1850  0.1384  0.1023
57021W        W99938  13.319  11.646  15.960  0.0736 -0.0197 -0.0224
57022W        W99939  14.585  10.547  16.692 -0.0595  0.0803  0.1830
57023W        W99940  11.999  14.641  15.269 -0.1847 -0.1135 -0.0787
57024W        W99941  11.437  12.403  17.557 -0.0751 -0.0272  0.1897
57025W        W99942  11.845  13.440  15.520 -0.1706 -0.0198  0.0741
57026W        W99943  11.526  11.689  18.651 -0.0013 -0.0747  0.2318
57027W        W99944  12.371  14.116  15.340 -0.0337  0.0913  0.1264
57028W        W99945  12.651   9.135  19.335  0.1698 -0.2643 -0.0561
57029W        W99946  11.678  13.252  15.084 -0.2056  0.0527  0.0471
57030W        W99947  15.020  11.427  15.281  0.2647  0.1389  0.1049
57031W        W99948  11.690  15.277  17.389 -0.2134  0.1293 -0.1514
57032W        W99949  15.334  11.896  18.806  0.0322 -0.0673 -0.3528
57033W        W99950  11.829  12.939  16.760  0.1487 -0.0461 -0.0327
57034W        W99951  14.351  12.883  16.399  0.1889  0.1483 -0.3424
57035W        W99952  11.267  11.568  17.109 -0.1111  0.1783  0.2924
57036W        W99953  12.299  13.548  15.303  0.2455 -0.1271 -0.1799
57037W        W99954  12.500  12.598  16.113  0.1107  0.2084 -0.2656
57038W        W99955  13.473  10.492  16.933  0.2659  0.1260  0.1647
57039W        W99956  10.590  12.107  16.735 -0.1029 -0.0933  0.2346
57040W        W99957  13.294  11.412  16.453  0.1582 -0.0394  0.1266
57041W        W99958  10.562  14.998  18.248  0.0132  0.1574  0.0479
57042W        W99959  15.095  13.347  18.771 -0.0447 -0.2226  0.0459
57043W        W99960  12.050  12.243  23.473 -0.0468 -0.0290 -0.0239
57044W        W99961  12.427  10.960  19.668 -0.2930 -0.0632 -0.0475
57045W        W99962  12.560   9.541  17.357 -0.0840 -0.2093 -0.0331
57046W        W99963  11.428  13.999  18.167  0.1521  0.1288 -0.0833
57047W        W99964  10.130  11.463  19.162  0.3201 -0.1883  0.0598
57048W        W99965  12.732  12.519  19.476 -0.1425 -0.1082 -0.0106
57049W        W99966  12.127   9.948  21.964  0.1457  0.0187 -0.0802
57050W        W99967  11.991  14.182  19.926 -0.1631 -0.3245 -0.2426
57051W        W99968  12.612  15.309  21.424 -0.1375 -0.0429 -0.3119
57052W        W99969  11.212  12.265  18.017 -0.0161  0.0011 -0.2470
57053W        W99970  13.430  12.601  23.536  0.3335 -0.0689 -0.1894
57054W        W99971  13.035  14.372  19.793 -0.2325  0.4719 -0.1551
57055W        W99972  11.616   9.893  19.358  0.0471  0.0874  0.1466
57056W        W99973  10.593  10.351  22.341  0.0330 -0.0172 -0.1181
57057W        W99974  13.477  12.259  18.866 -0.0556  0.0400 -0.1351
57058W        W99975   9.958  13.265  20.163 -0.0228  0.0678 -0.4796
57059W        W99976  10.968  11.781  21.382 -0.0817  0.2673  0.2121
57060W        W99977  12.670  12.451  21.486  0.2754 -0.1070 -0.1909
57061W        W99978  10.125  14.102  18.474  0.3094 -0.1144 -0.0904
57062W        W99979  12.642  11.595  22.670  0.0393 -0.3117  0.2510
57063W        W99980  14.236  11.367  20.324  0.2947 -0.0324  0.1771
57064W        W99981  10.446  13.443  18.987  0.1727  0.1047 -0.0399
57065W        W99982   8.778  12.318  18.790  0.3445  0.0707 -0.1308
57066W        W99983  11.913   9.792  21.510 -0.0252  0.2847  0.1027
57067W        W99984  12.236  13.868  23.030  0.3999 -0.0099 -0.3001
57068W        W99985  12.370  11.124  21.455  0.0660 -0.2975  0.1991
57069W        W99986  13.736  13.012  20.737 -0.1153 -0.1388 -0.0379
57070W        W99987  12.495  14.374  20.822 -0.0187 -0.0667 -0.0149
57071W        W99988  11.841  13.329  22.523 -0.1835 -0.0643 -0.2429
57072W        W99989  15.678  10.814  23.646 -0.1543 -0.1345  0.0719
57073W        W99990  11.544  13.412  21.379 -0.1174  0.3558 -0.2221
57074W        W99991  10.813  12.907  22.055 -0.2494  0.0071  0.1457
57075W        W99992  11.397  14.917  19.231  0.1938  0.0316 -0.0733
57076W        W99993  12.676  11.061  20.114  0.0659  0.0122 -0.1752
57077W        W99994  13.313  12.602  20.492 -0.2082 -0.0738 -0.1145
57078W        W99995  11.841  14.252  22.948  0.3625 -0.3450  0.1268
57079W        W99996  12.022  11.637  17.643  0.0359 -0.0704 -0.0410
57080W        W99997  10.483  13.002  22.498 -0.0785  0.0370  0.3177
57081W        W99998  12.526  15.101  21.999 -0.3444  0.3021  0.0164
57082W        W99999  11.822  11.984  21.477  0.0763 -0.1937 -0.1145
57083W        W    0  10.936  11.763  19.696  0.1321  0.0272  0.1172
57084W        W    1  11.591  14.275  21.454 -0.1359 -0.2193 -0.4642
57085W        W    2  12.273  12.294  20.402  0.1554  0.0139  0.2116
57086W        W    3  10.075  11.588  23.764  0.0339 -0.0550  0.1578
57087W        W    4  10.804  12.256  19.788  0.2505  0.0034  0.1465
57088W        W    5  13.312   8.408  22.034  0.1535  0.0198 -0.1963
57089W        W    6  10.794  14.029  20.781 -0.0457 -0.0217 -0.0196
57090W        W    7  14.411  10.627  20.382  0.0013 -0.0057  0.1172
57091W        W    8  12.139  11.865  18.580  0.0918  0.4803  0.0532
57092W        W    9  13.190  12.578  21.376  0.1165 -0.1753 -0.2170
57093W        W   10  11.803  11.709  20.955  0.1273  0.0525 -0.2123
57094W        W   11  11.088  15.055  21.856 -0.1033  0.3255 -0.3117
57095W        W   12  12.273  10.364  23.918 -0.1342 -0.3604 -0.1328
57096W        W   13  14.123  13.161  19.130 -0.0133 -0.0102 -0.0165
57097W        W   14  12.110  12.694  20.063 -0.4359 -0.2162 -0.1285
57098W        W   15  12.562  13.253  20.737 -0.0789 -0.4069 -0.0068
57099W        W   16  11.900  15.987  21.713  0.1395  0.1337 -0.0132
57100W        W   17  12.173  11.921  22.725 -0.1861  0.3032 -0.1920
57101W        W   18  11.819  15.161  19.366  0.4543  0.0093 -0.3532
57102W        W   19  14.488  12.438  18.671  0.0522  0.3046 -0.3462
57103W        W   20  11.979  13.251  18.651  0.0391  0.0969 -0.1794
57104W        W   21  11.761  10.800  20.859 -0.0886 -0.2188 -0.0471
57105W        W   22  10.943  12.204  21.781  0.2223 -0.1914  0.1437
57106W        W   23  13.865  13.184  23.198 -0.2016 -0.0542 -0.1647
57107W        W   24  11.167  11.225  20.448 -0.0851  0.1867 -0.0984
57108W        W   25  13.696  11.123  22.594 -0.0833 -0.0338  0.2641
57109W        W   26  11.953  15.222  23.451  0.0731  0.2727  0.5583
57110W        W   27  13.422   9.692  21.481 -0.0136  0.0637  0.3378
57111W        W   28  10.913  12.526  20.210 -0.1419  0.0195 -0.1896
57112W        W   29  15.414  12.697  20.278 -0.1226 -0.1187 -0.0507
57113W        W   30  12.801  12.287  17.448 -0.1234  0.0593 -0.1053
57114W        W   31  11.204   9.683  22.260 -0.3165  0.3469 -0.1223
57115W        W   32  13.842  10.704  23.465 -0.0852  0.1944 -0.1340
57116W        W   33  10.114  11.879  20.321 -0.1542 -0.1091 -0.1250
57117W        W   34  12.094  14.244  18.404 -0.2334  0.0367 -0.1984
57118W        W   35  12.912  14.422  21.146  0.2459  0.1427  0.0047
57119W        W   36  12.712  11.349  18.887 -0.1937 -0.5287  0.1497
57120W        W   37  11.457  12.837  21.826 -0.0861 -0.1102  0.0843
57121W        W   38  13.402  15.306  24.048  0.2769  0.0405  0.0931
57122W        W   39  11.782  14.260  24.374  0.1114  0.1508  0.2073
57123W        W   40   9.948  14.590  20.799  0.1089  0.2007  0.1004
57124W        W   41  11.045  14.432  23.997 -0.2398  0.2217 -0.1862
57125W        W   42  10.029  11.981  19.549  0.2119 -0.0350  0.1483
57126W        W   43   9.775  13.368  24.547  0.0705 -0.0613  0.1477
57127W        W   44  10.732  12.234  21.238  0.1761 -0.0680 -0.2563
57128W        W   45  12.666  10.806  20.626  0.3194 -0.1313 -0.1141
57129W        W   46  12.811  11.285  21.460  0.1294 -0.0799 -0.5779
57130W        W   47  13.143   9.986  21.139 -0.1506 -0.0119 -0.1828
57131W        W   48  12.245  10.698  20.179 -0.1196 -0.3478 -0.0249
57132W        W   49  11.861  14.590  21.928 -0.2616 -0.0874 -0.0236
57133W        W   50  13.297  11.225  18.425  0.2249 -0.0562  0.2296
57134W        W   51  12.233  15.086  18.863  0.1507  0.3520 -0.0271
57135W        W   52  11.548  12.087  22.481 -0.1290  0.0023 -0.3497
57136W        W   53  12.208  11.020  20.635 -0.0471  0.2145 -0.0985
57137W        W   54  10.739  11.277  21.333  0.0233  0.0396 -0.1239
57138W        W   55  11.454   8.765  21.870  0.1022 -0.0993  0.1438
57139W        W   56  14.594  10.947  22.324 -0.1951 -0.5338  0.1652
57140W        W   57   9.653  10.505  19.501 -0.3747  0.2237 -0.0060
57141W        W   58  13.986  10.071  22.869 -0.1081 -0.3023 -0.0381
57142W        W   59  11.756  10.594  19.335  0.1308  0.3414  0.0009
57143W        W   60   8.842  12.829  18.612 -0.0815  0.1793  0.0064
57144W        W   61  13.099  11.864  22.581 -0.1548  0.0168 -0.1387
57145W        W   62  14.162  13.183  20.423  0.0446 -0.0390  0.0546
57146W        W   63  12.733  12.638  20.560 -0.0950 -0.1079 -0.2097
57147W        W   64  12.002  13.188  19.917 -0.2226  0.0984  0.3129
57148W        W   65  13.154  10.903  22.283  0.1041 -0.3484  0.3545
57149W        W   66  11.478   9.998  21.414 -0.0397  0.0522 -0.2641
57150W        W   67  10.586  15.092  22.028 -0.2247  0.2995  0.0147
57151W        W   68  12.230  13.791  18.547  0.1654 -0.0994  0.0317
57152W        W   69   9.007  10.507  20.529 -0.1557 -0.0880  0.3599
57153W        W   70  13.701  13.747  18.991 -0.2302 -0.4377 -0.0096
57154W        W   71  13.741  12.717  19.127 -0.0253  0.1570  0.0037
57155W        W   72  12.473  11.355  21.939  0.3926  0.2733 -0.0841
57156W        W   73  12.275   9.604  23.202 -0.2275 -0.2541  0.0686
57157W        W   74  14.682  13.241  21.162 -0.1038 -0.2504  0.1563
57158W        W   75  13.312  11.503  19.424  0.1146  0.0473  0.0003
57159W        W   76  10.458   8.882  19.419 -0.4558 -0.0820 -0.1439
57160W        W   77  10.769  12.603  22.494 -0.0149 -0.0360 -0.2634
57161W        W   78  10.351  14.742  20.053  0.2721 -0.0984 -0.0161
57162W        W   79  10.908  14.658  22.054  0.0401  0.0061 -0.2005
57163W        W   80  10.110  13.304  19.390 -0.0340  0.0130 -0.1145
57164W        W   81  13.360  10.174  21.777 -0.1769  0.0157 -0.1851
57165W        W   82  11.880  12.683  22.554 -0.0865  0.0942 -0.0125
57166W        W   83  12.404  10.681  24.381  0.0315  0.1605  0.2195
57167W        W   84  10.553  11.677  18.917  0.2134 -0.2171 -0.0686
57168W        W   85  12.053  13.030  23.790  0.1238  0.1031  0.0575
57169W        W   86  10.509   9.897  21.680  0.0349  0.3027  0.3711
57170W        W   87  12.835  12.140  19.112 -0.0332 -0.0225  0.1119
57171W        W   88  12.438  11.746  23.504 -0.2715  0.1668  0.2148
57172W        W   89  12.646  12.002  19.692  0.0395 -0.2352  0.1660
57173W        W   90  12.542   8.258  19.413  0.2901  0.2668  0.1089
57174W        W   91  11.818   9.090  19.675  0.0240 -0.2120  0.1858
57175W        W   92  11.353  15.556  22.814 -0.1869  0.0871  0.0199
57176W        W   93  12.883  12.856  17.599  0.4477  0.0658 -0.0804
57177W        W   94  11.452  12.777  20.169  0.1274 -0.4160  0.2023
57178W        W   95  12.094  12.323  18.342  0.0430  0.2339 -0.0122
57179W        W   96  14.531  14.182  17.125 -0.0302 -0.0749  0.1951
57180W        W   97  11.913  13.673  20.057  0.3701 -0.0355 -0.1040
57181W        W   98  14.685  11.014  23.486 -0.0461 -0.0724  0.0797
57182W        W   99  13.279  14.181  20.180 -0.4162 -0.2817  0.0581
57183W        W  100  14.257  10.993  22.704 -0.2042  0.1698  0.3382
57184W        W  101  11.623  11.283  20.240  0.2196 -0.0245 -0.0725
57185W        W  102  12.558   9.284  21.272  0.1454  0.2428  0.3850
57186W        W  103   8.518  15.094  19.592  0.0717 -0.0634 -0.2475
57187W        W  104  13.121  10.485  22.501 -0.2182 -0.1299  0.0408
57188W        W  105  13.507  11.104  20.661  0.1794  0.0846  0.2111
57189W        W  106  12.425  11.204  24.000 -0.4827  0.0754 -0.1840
57190W        W  107  15.970  13.499  23.324  0.2830 -0.0523  0.1637
57191W        W  108  13.370  14.224  20.862 -0.1009  0.3392 -0.1173
57192W        W  109  12.545  12.270  22.019  0.1981 -0.0516  0.0633
57193W        W  110  11.995  11.555  19.854  0.1592  0.0398  0.0983
57194W        W  111  11.076  10.062  21.724  0.0339  0.0900  0.0681
57195W        W  112  11.018  13.761  22.703 -0.1906 -0.0404 -0.2211
57196W        W  113  11.414  16.946  21.422 -0.2232 -0.1853 -0.0182
57197W        W  114  12.707  13.466  22.289 -0.1968 -0.2020  0.0048
57198W        W  115  13.195  12.519  19.250 -0.2505  0.2592 -0.1144
57199W        W  116  14.029   9.803  23.622 -0.0532 -0.2110  0.0451
57200W        W  117  11.310  10.159  20.934 -0.0434 -0.2637  0.0623
57201W        W  118   9.787  13.750  20.195 -0.1711 -0.0740 -0.1707
57202W        W  119  10.359  11.243  20.956  0.0111  0.0689  0.0537
57203W        W  120  10.645  11.876  22.148 -0.3826 -0.0016 -0.1010
57204W        W  121  11.666  13.445  20.805  0.0789 -0.1567 -0.1386
57205W        W  122  12.096  13.306  18.081  0.0465  0.0301 -0.0401
57206W        W  123  14.217  11.085  21.622 -0.1694 -0.1965  0.0814
57207W        W  124  12.145  13.430  21.593  0.0595 -0.0497 -0.1388
57208W        W  125  12.953   9.784  22.622  0.0726  0.0388  0.0783
57209W        W  126  11.087  11.332  21.671  0.0619 -0.1054  0.2281
57210W        W  127  12.103  10.229  18.553 -0.3680 -0.2395  0.0354
57211W        W  128   9.119  11.597  20.604 -0.1496 -0.1829 -0.0658
57212W        W  129  15.169  11.211  23.563  0.1229  0.0249 -0.0956
57213W        W  130  13.081  11.730  18.888  0.1666 -0.0537 -0.0974
57214W        W  131  12.264  12.218  21.591 -0.1071  0.2673  0.2755
57215W        W  132  13.900  12.342  21.253  0.1875  0.1246  0.0945
57216W        W  133  12.564  12.128  22.526 -0.1248  0.1124 -0.3338
57217W        W  134  12.479  14.279  24.076 -0.0797  0.0590  0.1678
57218W        W  135  12.756  11.655  19.300  0.2806  0.3059  0.1324
57219W        W  136  12.103  13.563  21.027 -0.3537 -0.1529 -0.0013
57220W        W  137  13.236  12.283  24.599  0.3795  0.3026  0.3680
57221W        W  138  11.251  11.376  19.823  0.1429  0.0877  0.0613
57222W        W  139  14.020  12.055  22.687 -0.1222  0.1046  0.0171
57223W        W  140  12.825  12.332  20.063 -0.2123  0.0164 -0.2644
57224W        W  141  11.443  12.957  21.242  0.0363 -0.2880  0.2092
57225W        W  142  13.864  14.488  20.915 -0.3492  0.0121 -0.0341
57226W        W  143  11.669  10.162  18.129  0.1736 -0.0013  0.0542
57227W        W  144  10.756  14.687  21.615  0.2466  0.3632  0.0297
57228W        W  145  11.826  10.355  21.665 -0.0164  0.1327  0.0821
57229W        W  146  14.735  13.067  25.175  0.0276  0.0822 -0.3972
57230W        W  147  11.821  12.348  23.008  0.1000  0.1410  0.0123
57231W        W  148  12.235  10.709  21.041  0.3002 -0.1657  0.0448
57232W        W  149  11.701  10.342  22.918 -0.0398 -0.0557  0.0242
57233W        W  150  12.567  12.908  19.944 -0.1503  0.2303 -0.0949
57234W        W  151  12.713  11.066  22.767 -0.2662  0.0010  0.0875
57235W        W  152  10.878  13.446  24.334 -0.1349  0.0346  0.0529
57236W        W  153  11.830   7.415  21.342  0.1174 -0.1286 -0.0936
57237W        W  154  14.216  12.600  19.037  0.3355 -0.1865 -0.0707
57238W        W  155  13.730   9.225  22.242  0.3603 -0.0894 -0.1505
57239W        W  156  10.752  11.832  20.926  0.2033  0.0431  0.3182
57240W        W  157  10.366  12.552  21.139  0.0888  0.1328  0.2543
57241W        W  158  10.832  12.994  20.502 -0.2225 -0.2073  0.2052
57242W        W  159  12.802  13.268  21.826  0.2336 -0.1356 -0.0580
57243W        W  160  11.172  13.732  20.857 -0.0638 -0.0391  0.1735
57244W        W  161   9.996  12.362  18.847  0.1523 -0.2702 -0.1546
57245W        W  162  11.351  12.563  22.652  0.3466  0.0796  0.2243
57246W        W  163  12.755  10.877  18.932  0.3415  0.0938  0.1512
57247W        W  164  11.581  12.919  17.958  0.2804  0.0122 -0.1755
57248W        W  165  10.880  10.525  21.951  0.1840  0.1932  0.0758
57249W        W  166  14.865  10.553  23.205 -0.1013  0.2203 -0.3245
57250W        W  167  13.586  12.033  20.532 -0.2954  0.0849 -0.0539
57251W        W  168  11.229   9.911  25.426 -0.3145  0.1950 -0.1420
57252W        W  169  13.164  11.385  22.564  0.2555 -0.2324 -0.0271
57253W        W  170  12.692  12.041  20.500  0.2149  0.1992  0.3514
57254W        W  171   8.975  11.406  23.142 -0.0052  0.0353  0.1225
57255W        W  172  13.316  15.715  24.355 -0.1004  0.1365 -0.4540
57256W        W  173  11.524  12.960  22.839  0.0100 -0.2176  0.2757
57257W        W  174  13.897  12.573  20.535  0.0694 -0.0194 -0.1906
57258W        W  175  10.556  10.233  20.368 -0.2090  0.1079 -0.1397
57259W        W  176  12.358  15.857  24.202 -0.0825 -0.0511 -0.1405
57260W        W  177  13.356  13.241  23.133  0.1441 -0.0599  0.0893
57261W        W  178  11.384  11.704  20.428 -0.0155 -0.1622 -0.0360
57262W        W  179  13.512  11.765  21.913  0.0358 -0.1634 -0.3708
57263W        W  180  10.790  13.929  21.323  0.1150  0.2554  0.0253
57264W        W  181  12.939  13.231  20.116 -0.1702  0.3189 -0.1427
57265W        W  182  12.132  10.619  19.007  0.0918  0.1565  0.0588
57266W        W  183  12.915  12.079  21.274  0.0920  0.1053  0.2886
57267W        W  184  12.478  11.037  23.211  0.1928  0.2709 -0.2005
57268W        W  185  12.140  12.814  19.528  0.0466 -0.1078  0.2348
57269W        W  186  11.829   9.365  20.676 -0.2374 -0.5023 -0.1932
57270W        W  187  14.012  11.496  22.822  0.0047  0.1490 -0.0175
57271W        W  188  14.268  11.209  23.722  0.0934  0.0290  0.0637
57272W        W  189  11.850  11.440  21.951 -0.1017  0.0734 -0.1182
57273W        W  190  10.319   9.738  23.143 -0.0119 -0.0847 -0.0646
57274W        W  191  13.148  13.146  22.237  0.1605 -0.1251 -0.0394
57275W        W  192  13.148  10.783  18.591  0.1956  0.4542 -0.0021
57276W        W  193  13.938  11.818  23.176  0.0739 -0.0597 -0.4491
57277W        W  194  13.510  11.848  19.751 -0.2521  0.2692 -0.0993
57278W        W  195  13.133  12.752  20.083 -0.0937  0.0127 -0.0626
57279W        W  196  12.152  11.573  21.493  0.2121  0.4062  0.1953
57280W        W  197  13.677  13.068  21.321 -0.0135  0.2430 -0.1484
57281W        W  198  11.518  10.128  20.277 -0.0176 -0.0812 -0.1402
57282W        W  199  13.607  10.165  23.853 -0.2179 -0.1087  0.0975
57283W        W  200   9.862  15.498  19.424 -0.1181  0.1477 -0.1543
57284W        W  201  13.518  11.735  20.981 -0.1704  0.3251  0.0046
57285W        W  202  11.578  11.771  19.964 -0.1660  0.2281  0.1710
57286W        W  203  11.147  10.865  20.860 -0.0059 -0.2075 -0.1875
57287W        W  204  11.266  14.103  23.571 -0.1154 -0.4668  0.1733
57288W        W  205  11.263  10.716  19.334 -0.0076 -0.0681  0.2150
57289W        W  206  11.584  11.029  19.583 -0.2942  0.0331  0.1432
57290W        W  207  12.790  16.527  22.267 -0.0947  0.0325  0.1380
57291W        W  208  14.669  10.762  21.854  0.0240  0.0337 -0.1988
57292W        W  209  13.734   9.849  19.501  0.1826 -0.2000  0.0725
57293W        W  210  14.242   9.247  22.303 -0.0867 -0.1915  0.0080
57294W        W  211  10.412  12.719  20.293  0.1489 -0.2554  0.1012
57295W        W  212  12.304  10.114  21.171 -0.0810  0.0730 -0.2773
57296W        W  213  12.606  14.048  21.204  0.1267  0.3731  0.0982
57297W        W  214  11.895  10.544  23.571  0.2752 -0.1760  0.2336
57298W        W  215  13.642  14.467  20.369  0.0263  0.1650 -0.0194
57299W        W  216  12.719  11.783  21.662  0.0592  0.0978  0.1926
57300W        W  217  11.807  12.036  20.285 -0.1182  0.4960 -0.1140
57301W        W  218  12.258  11.818  19.381  0.0005  0.2216 -0.3035
57302W        W  219  12.188  11.109  22.680 -0.1389 -0.1395 -0.0980
57303W        W  220  13.598  12.887  22.283 -0.2932 -0.0063 -0.1278
57304W        W  221  12.259  10.497  22.023  0.1389 -0.0324 -0.0083
57305W        W  222  12.978  14.353  23.866 -0.0168 -0.0347  0.0860
57306W        W  223  13.996  12.742  19.657 -0.2950 -0.0381  0.1509
57307W        W  224  11.769  12.966  20.897 -0.0258  0.0680  0.1356
57308W        W  225  10.048   9.951  23.474  0.1565  0.0224 -0.2037
57309W        W  226  10.855  11.372  22.312 -0.0743 -0.1742 -0.1323
57310W        W  227  12.473  11.906  21.252 -0.0298 -0.0816  0.1158
57311W        W  228  10.338  11.022  20.383  0.0316  0.2771 -0.2543
57312W        W  229  12.161  13.096  17.677  0.0431 -0.0063 -0.1205
57313W        W  230  11.011  13.522  23.469  0.0763 -0.2933 -0.1034
57314W        W  231  11.681  11.901  21.976 -0.0234 -0.0138 -0.0356
57315W        W  232  10.091  14.388  21.338 -0.0527  0.0852  0.0068
57316W        W  233  12.502  12.856  19.220  0.0366  0.1278  0.1423
57317W        W  234  10.780  13.595  19.405 -0.0119 -0.0384  0.0561
57318W        W  235  10.839  15.475  21.684 -0.2602  0.0506  0.0755
57319W        W  236  10.455  10.614  20.067 -0.1702 -0.0833  0.0634
57320W        W  237  11.774  13.936  22.173 -0.1019  0.2624 -0.0086
57321W        W  238  10.710  14.895  21.059  0.1454  0.1786 -0.2787
57322W        W  239  13.377  13.830  19.568 -0.4267  0.0231 -0.0570
57323W        W  240  10.967  14.619  23.083  0.2993  0.0263  0.1453
57324W        W  241  12.351  12.602  22.331 -0.3390 -0.0816 -0.2919
57325W        W  242  13.557   9.025  19.854 -0.1818 -0.0127 -0.1902
57326W        W  243  14.119  11.209  22.227 -0.0194 -0.0789 -0.2179
57327W        W  244  12.260  11.045  18.844 -0.2515 -0.1031  0.0572
57328W        W  245  13.269  14.583  22.380 -0.3242 -0.3745  0.1021
57329W        W  246  13.016  13.111  21.229 -0.0783  0.0736  0.0633
57330W        W  247  11.114   9.922  19.757 -0.4211  0.0246  0.0065
57331W        W  248  12.063  12.969  22.909 -0.0424 -0.0802  0.2127
57332W        W  249  13.479   8.461  24.163 -0.1962 -0.0550  0.2827
57333W        W  250  11.001  15.831  22.491  0.1170  0.1614  0.1191
57334W        W  251  12.435  13.367  20.143  0.0634 -0.0306  0.0404
57335W        W  252  10.669   9.221  21.942  0.0930  0.0321 -0.0337
57336W        W  253  10.805   9.377  22.377 -0.0618  0.0713  0.1555
57337W        W  254  13.867   9.724  22.308  0.1094 -0.2190  0.1636
57338W        W  255  12.150  11.990  19.830 -0.0067 -0.1972  0.0080
57339W        W  256  13.177  11.208  21.100  0.1527 -0.1449 -0.0763
57340W        W  257  12.294  14.721  22.574  0.0572  0.0106 -0.1669
57341W        W  258  11.700  15.221  21.586  0.3941 -0.2129  0.0279
57342W        W  259  12.088  14.629  23.378  0.1275 -0.1021 -0.2281
57343W        W  260   9.183  10.435  22.829 -0.1423 -0.0784  0.2506
57344W        W  261  13.033  11.723  20.693 -0.0433 -0.0469  0.1658
57345W        W  262  11.469  12.113  21.219  0.3030  0.1692  0.0176
57346W        W  263  12.739  11.263  22.329  0.0147 -0.1840  0.1300
57347W        W  264  10.541  11.677  19.961 -0.0076  0.2622 -0.2429
57348W        W  265  11.403  11.568  22.608 -0.2826  0.2615  0.0851
57349W        W  266  11.677  13.934  23.779  0.1019 -0.0733 -0.1010
57350W        W  267  12.156  10.936  22.179 -0.3375  0.0233  0.2217
57351W        W  268  11.877  10.274  17.650  0.1277 -0.1825 -0.0208
57352W        W  269  14.546  11.069  20.045  0.0404  0.2730  0.2085
57353W        W  270  12.460  14.259  19.845 -0.1840 -0.4626 -0.1468
57354W        W  271  13.249  13.865  20.540  0.3333  0.2979  0.0014
57355W        W  272  11.972  10.855  21.693 -0.1325  0.0131  0.0350
57356W        W  273  12.123  10.695  17.631 -0.3035 -0.0460 -0.3381
57357W        W  274  12.242  12.670  20.767  0.0230  0.1162 -0.0414
57358W        W  275  11.340  11.189  23.698 -0.1101 -0.0413  0.0995
57359W        W  276  13.472  15.243  23.123 -0.0300 -0.4797 -0.3451
57360W        W  277  11.432  12.261  21.765 -0.3541  0.0812  0.1027
57361W        W  278  13.898  12.995  18.074  0.4477 -0.0844 -0.0905
57362W        W  279  13.328  11.626  20.305 -0.2146  0.0717  0.0725
57363W        W  280  11.357  14.552  18.695  0.1471  0.1137 -0.0767
57364W        W  281  13.422  13.421  20.975  0.0883 -0.4362  0.0401
57365W        W  282  11.884  14.769  22.895  0.0280  0.0433 -0.0864
57366W        W  283  11.796  10.837  22.868  0.0627 -0.1698 -0.0784
57367W        W  284  12.318  13.216  22.527  0.0102 -0.2047  0.1372
57368W        W  285  12.793  12.731  21.887 -0.1238 -0.0615  0.2628
57369W        W  286  12.703   9.616  19.568 -0.1720  0.0515 -0.1438
57370W        W  287   9.563  11.643  20.961  0.2051 -0.2372  0.0529
57371W        W  288  10.911  13.104  20.035 -0.2268  0.0235 -0.1303
57372W        W  289  14.558  11.154  21.107 -0.3505 -0.1565 -0.0735
57373W        W  290  13.257  11.231  24.012  0.2408 -0.1354  0.2833
57374W        W  291  12.101  12.680  17.106  0.0950 -0.2479  0.1440
57375W        W  292  13.191   7.829  22.250 -0.2414  0.2467 -0.2325
57376W        W  293  12.331  13.563  22.047 -0.0431  0.1761 -0.1946
57377W        W  294  10.089  11.612  22.796 -0.3035  0.5398 -0.1519
57378W        W  295   9.646  10.952  19.792 -0.0244  0.2722 -0.0535
57379W        W  296  13.133  14.060  22.422  0.3361  0.1064  0.4431
57380W        W  297  11.780  14.656  18.447 -0.1527  0.0455  0.1291
57381W        W  298  12.192  14.438  20.410  0.3126  0.3305  0.0348
57382W        W  299  12.838  11.578  20.210 -0.0629  0.2246 -0.2491
57383W        W  300  12.214  11.430  21.000  0.0029 -0.2107  0.1516
57384W        W  301  13.049  11.692  19.773  0.0255 -0.1942 -0.1071
57385W        W  302  11.333   9.080  20.906 -0.0786 -0.0769 -0.1168
57386W        W  303  13.376  10.779  21.748 -0.0375 -0.2545  0.1370
57387W        W  304  14.810  11.558  19.397  0.2024  0.2659  0.3037
57388W        W  305  12.346  14.075  24.499 -0.2872  0.0603  0.2742
57389W        W  306   9.120  12.200  20.256 -0.0295  0.0411  0.0081
57390W        W  307   9.443  13.394  20.096  0.1115 -0.1681  0.0644
57391W        W  308  13.108  14.189  21.548 -0.1439  0.0992  0.0152
57392W        W  309  12.208  11.500  22.320  0.1750 -0.0190  0.3017
57393W        W  310  11.038  12.962  22.766  0.2160 -0.3123 -0.0932
57394W        W  311  10.939  12.054  23.433  0.0437 -0.1034  0.1997
57395W        W  312  11.373  10.381  19.731  0.1443 -0.0084  0.1536
57396W        W  313  11.661  13.672  18.591 -0.1786 -0.3431  0.0416
57397W        W  314   9.793   9.665  22.034  0.0501  0.3225 -0.0607
57398W        W  315  10.748   8.443  20.361 -0.2329 -0.2817  0.0943
57399W        W  316  13.233  13.171  20.523 -0.1266 -0.0613  0.2130
57400W        W  317  13.881  10.169  19.100  0.2177 -0.1967  0.3765
57401W        W  318  10.571  12.120  20.340  0.1447  0.2279  0.0657
57402W        W  319  14.234  13.083  23.754  0.2462  0.0445 -0.0857
57403W        W  320   9.663  11.585  19.952  0.3522  0.3660  0.2079
57404W        W  321  12.733  11.953  22.984 -0.0738  0.1115 -0.1987
57405W        W  322  11.184   9.586  22.915  0.2111 -0.2922 -0.1351
57406W        W  323   9.278  11.745  17.162  0.1183  0.0117  0.0438
57407W        W  324  12.538  11.465  20.577 -0.0689  0.0376  0.2041
57408W        W  325  13.525  13.276  19.985  0.1653  0.1217 -0.1842
57409W        W  326  11.993  13.640  19.024 -0.2145  0.2897  0.0000
57410W        W  327  12.666  12.858  23.623 -0.0079 -0.3847 -0.3262
57411W        W  328  12.675  14.933  20.695 -0.2320  0.1710  0.1789
57412W        W  329  11.720  10.153  22.251  0.1086 -0.1828  0.2527
57413W        W  330  12.669  12.830  21.046 -0.0034 -0.3895 -0.2822
57414W        W  331  12.208  12.627  21.285  0.0831 -0.3218 -0.3320
57415W        W  332  15.883  10.973  18.684 -0.1209  0.0237 -0.2608
57416W        W  333  12.802  10.252  20.301  0.1441  0.2355  0.0227
57417W        W  334  11.807  12.408  19.037 -0.2845 -0.0699 -0.2635
57418W        W  335  10.854  10.610  20.457 -0.0440  0.0453  0.1399
57419W        W  336  11.512  12.221  23.387 -0.0597  0.1968 -0.1892
57420W        W  337  14.331  13.699  21.302  0.1106 -0.1679 -0.2016
57421W        W  338  10.834  11.251  20.814 -0.1986 -0.0523 -0.0127
57422W        W  339  12.711  11.521  21.031 -0.1808  0.2580 -0.2128
57423W        W  340  10.572  14.314  18.764  0.1261  0.2415 -0.4108
57424W        W  341  12.111  12.134  22.294 -0.2306  0.2210  0.1694
57425W        W  342  12.986  11.232  20.611 -0.1841 -0.2153  0.3742
57426W        W  343  12.454  13.023  21.479  0.1221  0.2201  0.0413
57427W        W  344  12.795  13.759  21.728 -0.1981 -0.0713 -0.1307
57428W        W  345  13.174  13.454  21.552 -0.1741  0.3930 -0.0277
57429W        W  346  12.501  12.275  20.934 -0.0401  0.1069  0.0380
57430W        W  347  12.903  10.475  18.295 -0.0640 -0.1853  0.2820
57431W        W  348  12.856  13.259  23.355  0.0952 -0.3021 -0.0480
57432W        W  349  14.018  14.193  20.037  0.1418  0.3630 -0.0955
57433W        W  350  12.383  15.612  21.065 -0.2756 -0.2426 -0.0266
57434W        W  351  12.638  11.830  22.165  0.0769 -0.1853  0.2803
57435W        W  352  11.303   8.132  21.119 -0.0311  0.2519  0.0212
57436W        W  353  11.293  10.869  20.012  0.0973 -0.0693 -0.0559
57437W        W  354  11.335  12.154  19.720  0.2620  0.0937  0.0336
57438W        W  355  13.511  11.296  22.990 -0.1090 -0.0614  0.2263
57439W        W  356  12.186   9.358  21.599  0.3263 -0.1097  0.1634
57440W        W  357  11.015   9.764  20.643  0.1316 -0.3066 -0.1674
57441W        W  358  12.618  13.010  22.899 -0.0903 -0.1542  0.2642
57442W        W  359  13.006  14.268  23.199  0.1021  0.1006 -0.2060
57443W        W  360  13.825  14.221  24.485  0.1608 -0.3076  0.6247
57444W        W  361  11.395  10.338  23.407 -0.3286 -0.2040 -0.2440
57445W        W  362  14.604  10.779  24.464  0.1693  0.4172  0.1583
57446W        W  363  14.897  12.884  24.743  0.0039 -0.0345 -0.3882
57447W        W  364  11.171  10.249  22.830 -0.0160 -0.2419 -0.0269
57448W        W  365  13.236  14.828  23.091 -0.0845 -0.3362 -0.1916
57449W        W  366  13.149  11.988  26.481  0.0360  0.0775  0.1965
57450W        W  367  15.381  13.587  22.366 -0.0727 -0.2073 -0.1439
57451W        W  368  14.673  15.405  23.359 -0.2270 -0.0189  0.0386
57452W        W  369  13.152  10.885  22.947  0.1783  0.5948 -0.1917
57453W        W  370  12.565  12.312  26.496  0.2169  0.1837  0.0301
57454W        W  371  12.585  11.595  25.561 -0.1022 -0.1516  0.1970
57455W        W  372  12.034  11.852  23.168 -0.0642 -0.3209  0.1045
57456W        W  373  11.600  10.122  25.688  0.0233 -0.1455  0.4477
57457W        W  374  15.044  13.524  23.317  0.2019  0.0933 -0.1334
57458W        W  375  10.440  12.909  24.843  0.1563  0.0647  0.0670
57459W        W  376  11.902   9.204  25.942 -0.3190 -0.1188  0.2125
57460W        W  377  14.843  10.990  24.048 -0.1227 -0.2663 -0.1396
57461W        W  378  12.935  16.433  22.698 -0.1935 -0.4137 -0.0310
57462W        W  379  14.389  11.819  23.888  0.2950 -0.0531 -0.0576
57463W        W  380  13.909  11.867  25.248  0.3914 -0.0720  0.2752
57464W        W  381  13.775  12.293  23.850 -0.1953  0.1928  0.0940
57465W        W  382   9.111  10.955  22.020  0.2850 -0.0333  0.5281
57466W        W  383  11.197  11.971  24.720 -0.1615 -0.1650 -0.4255
57467W        W  384  12.841  12.778  26.372 -0.1714  0.2391 -0.0178
57468W        W  385  15.353  13.147  21.677 -0.0377  0.0328 -0.2763
57469W        W  386  14.653  13.552  23.693  0.0411 -0.0064 -0.3639
57470W        W  387  12.769  14.573  22.535  0.1289 -0.3180 -0.1373
57471W        W  388  14.437  14.308  22.700 -0.0119  0.2134 -0.0780
57472W        W  389  14.949  12.008  24.764 -0.1752  0.1344 -0.2415
57473W        W  390  11.363  12.318  23.869  0.0944  0.3139 -0.0144
57474W        W  391  11.849  15.182  26.896 -0.2754  0.0630  0.0519
57475W        W  392  11.461  13.023  23.716 -0.0959  0.2248  0.1112
57476W        W  393  14.967  13.845  22.325 -0.0036  0.0752 -0.2826
57477W        W  394  15.107  13.660  23.981 -0.0931  0.1192 -0.2323
57478W        W  395  11.817  13.034  23.357 -0.1722 -0.2347 -0.3187
57479W        W  396  10.473  13.796  22.893 -0.3359  0.1771  0.0465
57480W        W  397  14.303  11.786  25.538 -0.0521  0.0572 -0.1284
57481W        W  398  11.324  14.344  26.094 -0.3084 -0.1877  0.0951
57482W        W  399  13.186  12.443  24.145 -0.1740  0.2057  0.0141
57483W        W  400  12.398  13.213  23.351 -0.0892  0.1295  0.1031
57484W        W  401  12.871  14.547  24.774  0.0608 -0.0218  0.0634
57485W        W  402  12.130  14.143  25.442 -0.3722 -0.1293  0.0463
57486W        W  403  14.071  12.694  26.260  0.2672  0.0926  0.1265
57487W        W  404  12.247  12.689  25.575 -0.3164  0.1899 -0.0523
57488W        W  405  15.537  13.859  25.474 -0.0216 -0.2580 -0.2101
57489W        W  406  10.501  14.274  24.027  0.1817 -0.0848  0.1494
57490W        W  407  15.994  11.805  21.418  0.1285  0.0752 -0.1627
57491W        W  408  10.698  12.061  22.950  0.0015 -0.2772  0.3058
57492W        W  409  14.386  12.416  23.959 -0.1553  0.0573 -0.1804
57493W        W  410  13.085   9.451  23.451 -0.2574 -0.1740 -0.2810
57494W        W  411  12.060  14.779  25.610 -0.0053  0.0935  0.0140
57495W        W  412  12.003  13.750  24.640  0.1239 -0.0192  0.0411
57496W        W  413  12.505  12.286  23.276  0.4871  0.0815 -0.2705
57497W        W  414  14.001  11.559  24.091  0.2141 -0.1002  0.2875
57498W        W  415  14.063   9.982  24.676  0.2906 -0.1403 -0.1107
57499W        W  416  12.731  13.278  26.206 -0.0386 -0.0580 -0.0056
57500W        W  417  11.858  12.770  24.170  0.1104 -0.0506 -0.1627
57501W        W  418  12.947  13.560  20.848  0.0273 -0.0541  0.0788
57502W        W  419  13.579  14.335  21.345 -0.1893 -0.1871  0.2693
57503W        W  420  10.990  13.531  21.566 -0.2370  0.1048 -0.0017
57504W        W  421  12.429  12.988  25.175  0.0301 -0.2518  0.0185
57505W        W  422  12.306  13.109  27.153  0.3354  0.3452 -0.0004
57506W        W  423  11.252  11.576  24.989 -0.0516  0.3430  0.0737
57507W        W  424  11.943  11.106  23.260 -0.0247  0.0204 -0.3249
57508W        W  425  13.717  14.000  25.818  0.2512 -0.1319  0.0475
57509W        W  426  12.939  14.968  26.670 -0.0960 -0.0790  0.0757
57510W        W  427  16.167  13.049  23.492  0.0407 -0.1906 -0.0268
57511W        W  428  13.293  13.917  23.977 -0.0523 -0.1719 -0.3181
57512W        W  429  13.868  14.627  24.233  0.0949 -0.6318  0.0964
57513W        W  430  13.529  12.111  22.363  0.1950 -0.1256 -0.1112
57514W        W  431  15.611  10.917  24.862 -0.0155 -0.3493 -0.2760
57515W        W  432  15.443  10.418  23.995  0.0470 -0.0540 -0.1474
57516W        W  433  10.635  12.188  23.812 -0.4702 -0.0598  0.0423
57517W        W  434  13.706  13.383  25.109 -0.1850 -0.1669  0.1044
57518W        W  435  13.492  15.419  24.913 -0.3615  0.0888 -0.0128
57519W        W  436  14.546  13.325  22.839  0.1970  0.0323  0.0567
57520W        W  437  11.576  13.535  24.877 -0.1756 -0.2255 -0.1339
57521W        W  438  11.141  12.084  25.249 -0.0036 -0.0944  0.4594
57522W        W  439  13.964  13.627  25.949  0.4908 -0.0816  0.0676
57523W        W  440  10.861  14.178  24.398  0.2416  0.0506  0.0311
57524W        W  441  10.805  11.463  25.166  0.1770  0.2194  0.3640
57525W        W  442  10.975  11.972  22.506 -0.0152 -0.1494 -0.2922
57526W        W  443  10.516   9.370  24.756  0.2266 -0.2140  0.0086
57527W        W  444  12.493  12.472  25.159  0.0219 -0.0024 -0.1469
57528W        W  445  15.744  10.630  24.380 -0.3819 -0.1615  0.0584
57529W        W  446  11.547  12.155  25.574  0.0372  0.3469  0.0201
57530W        W  447  14.768  11.179  22.726 -0.2836  0.3893  0.0833
57531W        W  448  14.163  12.338  25.192  0.1012 -0.0877  0.2635
57532W        W  449  14.177  13.768  24.077  0.3157 -0.0616  0.1301
57533W        W  450  13.983  10.016  24.141 -0.2628  0.1494 -0.1225
57534W        W  451  13.995  12.747  24.115 -0.0503  0.1564  0.2166
57535W        W  452  13.481  12.558  25.059  0.0338  0.0258  0.0929
57536W        W  453  11.137  10.752  24.856 -0.1193  0.1858  0.0489
57537W        W  454  11.186  10.342  24.544  0.1585  0.3014  0.1620
57538W        W  455  12.358  11.142  24.544  0.1296  0.0388 -0.1127
57539W        W  456  12.549  11.942  25.217  0.0169  0.1521  0.1957
57540W        W  457  10.716  12.448  24.483  0.1337  0.1503  0.2424
57541W        W  458  13.782  10.253  23.330 -0.2763  0.2570 -0.0156
57542W        W  459  13.587  11.568  23.775 -0.0084  0.3313 -0.0227
57543W        W  460  10.851   9.932  22.616  0.2021 -0.0185  0.1321
57544W        W  461  12.033  12.134  25.316 -0.1447  0.1062 -0.0392
57545W        W  462  14.486  13.075  22.293  0.1514  0.2875  0.0115
57546W        W  463  16.338  13.919  24.178 -0.1471 -0.1843  0.0283
57547W        W  464  14.724  13.020  23.796 -0.2782 -0.2320  0.0862
57548W        W  465  10.628  11.662  23.861  0.1148 -0.5246 -0.0522
57549W        W  466  10.704  11.569  24.384 -0.1742 -0.2273  0.2460
57550W        W  467  13.101  13.184  25.813  0.1268  0.0968 -0.2427
57551W        W  468  13.051  13.734  23.009 -0.0925  0.2795  0.1320
57552W        W  469  11.999   9.998  23.499  0.0499  0.0617  0.0143
57553W        W  470  13.469  14.769  23.486  0.0068 -0.2986  0.0147
57554W        W  471  12.312  10.786  23.625 -0.1535 -0.3136  0.3177
57555W        W  472  12.016  12.261  24.771 -0.0576 -0.1003  0.1134
57556W        W  473  14.367  12.201  24.706 -0.2220 -0.1616 -0.0455
57557W        W  474  14.747  14.225  26.319 -0.0233 -0.0301 -0.1581
57558W        W  475  13.354  14.171  24.662 -0.2041  0.0284 -0.1853
57559W        W  476  10.614  11.138  23.873 -0.3675  0.0283 -0.1634
57560W        W  477  13.699  13.697  24.294 -0.1848  0.0155  0.0715
57561W        W  478   9.578  12.450  24.928  0.2506  0.0860 -0.0092
57562W        W  479  10.473  11.377  24.801 -0.0337 -0.0981 -0.0480
57563W        W  480  13.641  14.755  22.745  0.1058 -0.1322 -0.0473
57564W        W  481  13.395  12.083  25.111  0.1113 -0.4441  0.0509
57565W        W  482  12.181  13.798  28.843 -0.0928  0.0704 -0.0078
57566W        W  483  13.814  13.178  24.652  0.3289  0.0392  0.0414
57567W        W  484  11.666  11.609  25.428  0.3359  0.0592  0.1600
57568W        W  485  10.786  14.113  27.328 -0.1675 -0.0640 -0.0586
57569W        W  486  12.130  10.292  24.518 -0.2173 -0.3241  0.1520
57570W        W  487  14.418  11.824  21.898 -0.0523  0.0676  0.2075
57571W        W  488  15.210  14.485  26.098 -0.1645  0.2101 -0.0416
57572W        W  489  13.776  11.113  23.927  0.0254 -0.2289  0.1029
57573W        W  490  12.721  10.220  22.440  0.0697  0.0411  0.1923
57574W        W  491  12.929  12.285  24.985  0.1277 -0.0640  0.3506
57575W        W  492  12.323  12.888  26.401  0.0887 -0.1022 -0.2503
57576W        W  493  13.845  12.520  22.681  0.2278 -0.0393  0.1146
57577W        W  494  11.099  13.766  24.743 -0.3011  0.0426 -0.0680
57578W        W  495  13.654  13.216  22.745 -0.2109 -0.2656 -0.0382
57579W        W  496  13.999  11.977  22.140 -0.1066 -0.1003  0.1173
57580W        W  497  12.255  12.719  23.334  0.1063  0.1764  0.1941
57581W        W  498  14.643  13.342  26.225  0.0953  0.2571 -0.0066
57582W        W  499  14.669  14.000  23.981  0.0633  0.1810  0.1245
57583W        W  500  12.631   9.798  25.941 -0.0255 -0.2634  0.1696
57584W        W  501  12.298  12.441  22.837 -0.0371 -0.2220  0.3739
57585W        W  502  12.584  12.517  24.650  0.1279 -0.2103  0.0507
57586W        W  503   9.978  13.447  23.674 -0.1427  0.0782  0.1508
57587W        W  504  13.281   8.412  22.957  0.2268 -0.2181 -0.1817
57588W        W  505  15.040  15.198  24.454 -0.0823 -0.1077 -0.3271
57589W        W  506  11.917  10.404  25.383 -0.1828  0.2030 -0.1924
57590W        W  507  14.240  13.150  25.880  0.0324  0.1054 -0.0764
57591W        W  508  15.396  12.997  24.591  0.0909  0.0928 -0.0262
57592W        W  509  12.775  12.009  24.299 -0.1387 -0.0368 -0.0195
57593W        W  510  10.670  11.550  21.747  0.0631 -0.0314 -0.0470
57594W        W  511  11.352  11.623  24.424  0.3366  0.0566  0.0616
57595W        W  512  12.653  10.602  24.888 -0.1040 -0.0880 -0.1785
57596W        W  513  13.050  13.590  24.466  0.3835 -0.1898 -0.2036
57597W        W  514  12.334  11.999  26.156  0.3324  0.2551 -0.2303
57598W        W  515  14.152  12.803  24.574  0.3359  0.2369 -0.2844
57599W        W  516  13.282  13.054  23.580  0.2065 -0.1918 -0.0663
57600W        W  517  13.858  11.391  23.371 -0.0435 -0.1520 -0.1007
57601W        W  518  12.051  13.871  24.118 -0.2863 -0.0829  0.1983
57602W        W  519  12.695  12.923  22.348  0.1781 -0.0050  0.2839
57603W        W  520  12.151   9.863  27.349  0.0607 -0.0881  0.1430
57604W        W  521  14.248  14.699  26.155  0.3998 -0.2046  0.4226
57605W        W  522  11.593  14.536  24.956  0.1498  0.0682  0.0536
57606W        W  523  13.311  12.746  26.038  0.0773 -0.0622 -0.1119
57607W        W  524  11.271  12.332  24.417 -0.2922  0.2768  0.1392
57608W        W  525  15.175  11.689  23.467 -0.5548 -0.2115 -0.1990
57609W        W  526  12.246  15.182  25.379 -0.1061  0.1129  0.2752
57610W        W  527  11.678  11.953  24.988  0.2196  0.0413 -0.2152
57611W        W  528  10.635  10.581  22.826  0.0672  0.0053 -0.0112
57612W        W  529  13.558  10.848  24.376  0.1379 -0.4193  0.3006
57613W        W  530  14.137  13.672  23.469 -0.0291 -0.3830  0.0784
57614W        W  531  12.279   9.031  25.551 -0.0235 -0.1882  0.0473
57615W        W  532  13.114  11.305  26.053  0.1649 -0.1850 -0.3755
57616W        W  533  10.048  14.716  27.706  0.0629  0.1039  0.3619
57617W        W  534  14.306  14.914  23.798 -0.1418 -0.2267  0.1949
57618W        W  535  15.289  11.453  24.782 -0.2549 -0.0510  0.0087
57619W        W  536  14.142  13.585  25.038  0.2511 -0.1115 -0.2212
57620W        W  537  14.335  11.805  28.196  0.0832 -0.1869 -0.1018
57621W        W  538  10.082  11.121  23.920 -0.1355  0.0081 -0.1918
57622W        W  539  14.719  12.854  25.948  0.1925  0.0731 -0.3086
57623W        W  540  11.476  10.667  23.856  0.0023  0.0176  0.1220
57624W        W  541  11.510  14.382  23.896  0.3649 -0.0397 -0.1367
57625W        W  542  13.690  15.916  24.802  0.0369 -0.0899 -0.1577
57626W        W  543  13.441  12.250  22.845 -0.1812 -0.1383  0.0667
57627W        W  544   9.706  12.879  22.008 -0.0205 -0.0191  0.0211
57628W        W  545  13.588  11.301  25.956 -0.1035  0.0113 -0.0581
57629W        W  546  12.806  13.004  24.451  0.1836 -0.2103 -0.1077
57630W        W  547  14.640  12.747  24.330  0.0542 -0.0261 -0.2401
57631W        W  548  14.612  13.252  24.701  0.0379  0.2258 -0.1444
57632W        W  549  13.736  13.926  26.320 -0.0633 -0.0352 -0.2975
57633W        W  550  14.975  13.228  24.304 -0.0772  0.2310  0.3076
57634W        W  551  13.524  11.575  25.044 -0.4327  0.0081  0.3251
57635W        W  552  11.384  15.590  25.852 -0.2333  0.0983 -0.0497
57636W        W  553  12.697  11.008  25.386  0.1905 -0.2385  0.1096
57637W        W  554  12.179  11.861  21.897  0.0654  0.0193  0.0193
57638W        W  555  10.423  13.392  24.629 -0.0408 -0.0645 -0.0849
57639W        W  556  12.340  13.493  23.832  0.2393  0.0927  0.1003
57640W        W  557  12.512  12.519  26.023 -0.0158  0.1973 -0.3768
57641W        W  558  12.087  12.632  21.850 -0.1107  0.0210 -0.0232
57642W        W  559  14.227  11.373  26.917  0.2821  0.0741  0.1643
57643W        W  560  11.070  13.329  25.145 -0.1589  0.2569 -0.1280
57644W        W  561  13.327  13.616  23.519  0.0937  0.0080 -0.3128
57645W        W  562  12.454  13.507  25.833 -0.2297  0.0990 -0.0755
57646W        W  563  15.645  11.778  24.507  0.0816  0.0754 -0.0483
57647W        W  564  11.543  13.154  24.197 -0.1366  0.1506  0.0994
57648W        W  565  13.428  11.101  23.497 -0.0704  0.2203 -0.1297
57649W        W  566  14.773  11.566  24.828  0.0651  0.5621 -0.0642
57650W        W  567  14.304  12.139  23.262 -0.3669  0.0345 -0.0077
57651W        W  568  14.915  11.880  23.966  0.0639  0.1484 -0.0311
57652W        W  569  13.654  10.098  25.729 -0.0982  0.2062  0.0670
57653W        W  570  13.951  15.200  25.075  0.1746 -0.3361  0.1283
57654W        W  571  10.299  11.705  25.120 -0.1401  0.1177 -0.0347
57655W        W  572  14.706  15.455  25.659  0.0181  0.3592  0.0070
57656W        W  573  13.721  11.321  27.645 -0.0398 -0.1917  0.1105
57657W        W  574  11.529  10.855  23.342  0.1176  0.6054  0.2090
57658W        W  575  10.779   9.817  23.963  0.2844 -0.1573  0.2434
57659W        W  576  12.962  13.697  25.658 -0.1994 -0.1713  0.1861
57660W        W  577  14.422  12.590  23.488  0.2379 -0.0802 -0.0757
57661W        W  578  13.016  11.528  22.011 -0.0631  0.0361 -0.1059
57662W        W  579  15.357  10.630  23.285 -0.1075  0.0101  0.2341
57663W        W  580  11.267  11.772  23.775 -0.2490 -0.1855 -0.1849
57664W        W  581  14.713  13.405  21.635  0.0303 -0.0312  0.2342
57665W        W  582  15.637  12.708  24.149 -0.0382  0.0658  0.2804
57666W        W  583  12.073  11.868  23.777 -0.3040  0.2524 -0.4714
57667W        W  584  11.745   9.417  27.168  0.0976 -0.4068 -0.3332
57668W        W  585  14.962  13.941  23.553  0.0708 -0.1061  0.2691
57669W        W  586  14.496  11.747  24.490 -0.1333  0.1457  0.2629
57670W        W  587  14.431  10.311  24.151  0.2441  0.1868 -0.0929
57671W        W  588  14.898  11.201  24.482  0.0233 -0.2644  0.4650
57672W        W  589  13.825  12.222  24.772  0.4441  0.2197 -0.1642
57673W        W  590  11.909  11.633  26.346 -0.1075 -0.4125  0.2012
57674W        W  591  13.607  14.168  25.091  0.1710  0.0471  0.1765
57675W        W  592  15.148  12.224  23.390  0.0454  0.1128  0.0008
57676W        W  593  15.357  11.387  25.777 -0.1475  0.0283 -0.3224
57677W        W  594  14.098  12.758  22.311  0.4224  0.1938 -0.0861
57678W        W  595  11.855  10.692  24.160 -0.0342  0.2714 -0.1684
57679W        W  596  11.855  12.248  24.021  0.0348  0.0881 -0.2931
57680W        W  597  14.394  13.852  26.145  0.1994 -0.0040 -0.0289
57681W        W  598  13.034  12.358  23.198 -0.1199  0.0968  0.1659
57682W        W  599  13.738  11.052  27.194 -0.2587  0.1000  0.0252
57683W        W  600  13.432  13.333  24.036  0.1357  0.0267  0.2766
57684W        W  601  14.773  14.517  23.041  0.1214 -0.1142  0.1772
57685W        W  602  11.075  11.620  22.980  0.2752 -0.3096  0.1186
57686W        W  603  10.521  13.336  25.136 -0.2377 -0.0641 -0.0362
57687W        W  604  13.013  14.240  25.679  0.0116  0.2670 -0.1239
57688W        W  605  11.357  10.446  21.802 -0.3181  0.2054 -0.1473
57689W        W  606  11.443  11.703  21.528 -0.0240  0.2295  0.0042
57690W        W  607  12.492  12.981  24.068  0.3594  0.2378  0.0582
57691W        W  608  13.734  14.498  26.197  0.1103 -0.0760 -0.2118
57692W        W  609  12.557  10.226  25.295 -0.1496 -0.2400  0.2658
57693W        W  610  14.769  11.571  28.035 -0.1894  0.0772  0.0659
57694W        W  611  11.060  13.459  26.831 -0.0016 -0.2385  0.1004
57695W        W  612  11.986  11.267  24.232  0.0018 -0.0280 -0.0074
57696W        W  613  11.529  13.455  23.410 -0.1597 -0.0205  0.2347
57697W        W  614  10.780  13.062  27.133  0.0185  0.2368  0.2144
57698W        W  615  13.214  15.207  22.696 -0.1754 -0.1186 -0.0899
57699W        W  616  13.164  10.776  25.161 -0.0001 -0.0750 -0.1581
57700W        W  617  12.867  11.035  24.764 -0.1279  0.0033 -0.0227
57701W        W  618  10.610  14.834  23.820 -0.2795 -0.1504 -0.0986
57702W        W  619  16.033  14.928  24.214  0.0281 -0.0041 -0.0498
57703W        W  620  14.321  11.403  27.807  0.1275 -0.3083 -0.0407
57704W        W  621  10.966  11.181  24.496 -0.2313 -0.1407 -0.0787
57705W        W  622  14.152  14.235  25.958 -0.1908 -0.0212  0.0446
57706W        W  623  14.923  13.043  21.973  0.2033 -0.0712  0.1851
57707W        W  624  11.753  12.610  23.689 -0.0041 -0.0897 -0.2141
57708W        W  625  12.655  11.251  25.899 -0.0047  0.1375  0.0012
57709W        W  626  11.901  12.058  27.186 -0.0839 -0.3222  0.1305
57710W        W  627  12.036  15.131  22.067  0.2252  0.0473  0.0868
57711W        W  628  12.630   8.770  24.631  0.1603 -0.1257  0.0538
57712W        W  629  12.438  16.536  20.289  0.3223  0.1264 -0.4228
57713W        W  630  11.814  14.439  26.247 -0.1311  0.0192 -0.2143
57714W        W  631  11.737  12.647  25.581  0.0870  0.1416  0.0478
57715W        W  632  11.992  13.677  23.430 -0.1996 -0.1561 -0.0736
57716W        W  633  13.393  12.933  21.778  0.0141  0.0140 -0.1552
57717W        W  634  13.806  14.162  23.990 -0.1658 -0.0338 -0.0792
57718W        W  635  13.847  13.967  22.765  0.2136  0.0303 -0.0171
57719W        W  636  11.524  10.717  24.549  0.0933  0.0093 -0.2535
57720W        W  637  12.513  13.708  26.316  0.1936 -0.0900  0.1447
57721W        W  638   9.895  13.608  22.682 -0.0443 -0.0224  0.0302
57722W        W  639  13.095  14.875  24.507  0.1862 -0.0623 -0.5076
57723W        W  640  13.014  12.902  23.975  0.1033 -0.0258 -0.1544
57724W        W  641  14.658  14.195  25.773 -0.0675  0.2604  0.2374
57725W        W  642  12.925  11.278  23.235  0.0070  0.1415 -0.2206
57726W        W  643  15.055  10.730  23.685  0.1091  0.0690  0.1657
57727W        W  644  13.926  10.048  20.869 -0.2004  0.1947  0.3251
57728W        W  645  14.383  14.124  24.366 -0.0658 -0.1897 -0.1599
57729W        W  646  12.513  11.890  24.697  0.0968  0.0861  0.3386
57730W        W  647  12.011   9.208  23.043  0.0125  0.1743  0.0276
57731W        W  648  13.031  12.290  26.107 -0.0550 -0.1309 -0.3793
57732W        W  649  15.311  11.392  26.813 -0.0873 -0.1910  0.0862
57733W        W  650  11.890  16.015  27.176 -0.0375 -0.1068  0.4325
57734W        W  651  14.270  14.077  23.082 -0.1393  0.0310 -0.0589
57735W        W  652  11.479  15.265  23.795  0.3373 -0.1620  0.0576
57736W        W  653  14.032  11.347  25.205  0.0477 -0.0762 -0.0856
57737W        W  654  14.317  11.743  24.982  0.0081 -0.1991  0.0282
57738W        W  655  13.347  13.608  22.587  0.2660 -0.3417  0.1628
57739W        W  656  13.722  13.260  23.682  0.0606  0.2122 -0.1873
57740W        W  657  10.716  14.627  24.335 -0.0321  0.2363 -0.1263
57741W        W  658  12.359  14.575  24.652  0.2132  0.1700 -0.0643
57742W        W  659  13.320  13.576  24.913  0.2656 -0.1087  0.1045
57743W        W  660   9.181  10.639  23.350 -0.2229 -0.2878 -0.0050
57744W        W  661  13.272  11.342  24.655  0.2364 -0.1015  0.1914
57745W        W  662  12.252  11.262  25.582 -0.0322 -0.2226  0.1221
57746W        W  663  14.625  10.959  27.388  0.3419 -0.1965  0.0698
57747W        W  664  10.909  11.122  23.217 -0.0935 -0.1088  0.1937
57748W        W  665  15.627  11.232  24.387 -0.0768 -0.0063 -0.0599
57749W        W  666  13.415  14.180  23.487 -0.0449 -0.0915 -0.0308
57750W        W  667  10.178  11.038  22.475  0.3263 -0.3610 -0.0443
57751W        W  668  14.084   9.656  25.604 -0.1780  0.2179  0.1931
57752W        W  669  14.677  14.366  24.729 -0.1492 -0.0444 -0.1034
57753W        W  670  12.224  12.569  23.881  0.0441 -0.1458 -0.0605
57754W        W  671  12.468  15.418  25.936 -0.0102 -0.0234  0.0987
57755W        W  672   9.470  11.175  24.598 -0.2621  0.2993  0.0538
57756W        W  673  13.874  10.592  24.028 -0.2807  0.0226  0.1541
57757W        W  674  11.034  10.618  22.463 -0.2151  0.0338  0.1407
57758W        W  675  14.224  12.619  23.038 -0.4991 -0.0284  0.0685
57759W        W  676  14.202  12.382  25.713  0.1451  0.0432 -0.0759
57760W        W  677  11.084  10.319  23.933 -0.0098  0.1911  0.0228
57761W        W  678  13.866  16.026  24.274  0.1886  0.1269  0.1238
57762W        W  679  14.715  13.562  25.199  0.0274  0.2397 -0.1596
57763W        W  680  11.309  14.892  22.863  0.0152  0.0505 -0.2930
57764W        W  681  13.173  11.564  23.578  0.1008  0.1464 -0.2154
57765W        W  682  12.099  16.437  19.936  0.1363 -0.0023  0.1684
57766W        W  683  10.637  10.111  27.282  0.0617  0.1709 -0.0731
57767W        W  684  14.048  12.221  24.343  0.1006  0.2643 -0.1914
57768W        W  685  15.145  12.553  24.443 -0.2592 -0.2714 -0.0958
57769W        W  686  14.315   9.905  25.106  0.0989  0.3754 -0.0760
57770W        W  687  11.518  11.717  23.211  0.0411 -0.1102 -0.2518
57771W        W  688  11.185  14.291  25.064  0.2003  0.1324  0.3838
57772W        W  689  16.200  11.268  25.091  0.2299  0.0467  0.5567
57773W        W  690  14.102  10.434  25.097 -0.1857  0.1418  0.3702
57774W        W  691  13.875  14.563  23.705 -0.1042  0.3341 -0.1991
57775W        W  692  14.015  11.012  28.148 -0.2278 -0.0260  0.2033
57776W        W  693  14.198  14.626  22.889 -0.1713 -0.3419 -0.2839
57777W        W  694  12.557  13.934  25.484  0.2244 -0.0645  0.0657
57778W        W  695  11.791  13.196  24.607  0.2095  0.1880 -0.0378
57779W        W  696  12.276  10.882  26.689 -0.0210  0.3342  0.0083
57780W        W  697  13.894  12.786  23.575 -0.2694  0.0411 -0.2307
57781W        W  698  13.133  11.628  22.997 -0.1708  0.1525 -0.0434
57782W        W  699  14.312  14.498  23.350 -0.0095 -0.1453 -0.2006
57783W        W  700  13.448  11.117  26.799  0.0192 -0.0571  0.0933
57784W        W  701  14.766  15.669  25.173  0.1197 -0.0968  0.1030
57785W        W  702  12.818  11.017  24.258  0.1922  0.1367 -0.0407
57786W        W  703  15.661   9.295  25.406  0.1918 -0.0986 -0.1042
57787W        W  704  13.462  11.243  22.093 -0.0779 -0.1260  0.2569
57788W        W  705  13.083  12.698  24.700 -0.1009 -0.1788  0.1820
57789W        W  706  11.544   9.785  21.884 -0.0266  0.1427 -0.0038
57790W        W  707  12.192  13.755  22.519  0.0382 -0.3711  0.1605
57791W        W  708  11.482  13.454  26.057 -0.0655 -0.0493 -0.1822
57792W        W  709  11.774  11.187  25.206  0.4275 -0.2193 -0.3066
57793W        W  710  12.282  11.527  26.054 -0.1641  0.3500  0.2027
57794W        W  711  12.544  12.159  25.658  0.2759 -0.2288  0.0598
57795W        W  712  10.819   9.509  25.889  0.4075  0.2323 -0.1141
57796W        W  713  14.268  13.835  21.798 -0.2521 -0.1121  0.0018
57797W        W  714  12.334  10.681  25.351  0.3768 -0.2068  0.0901
57798W        W  715  11.524  11.160  24.174 -0.1195 -0.2454 -0.0225
57799W        W  716  13.516  12.849  24.029  0.0572 -0.0440  0.0036
57800W        W  717  14.523  13.706  22.557 -0.2189  0.1250  0.0928
57801W        W  718  11.946   9.865  26.678 -0.1070  0.0060  0.1758
57802W        W  719  14.055  14.244  25.403 -0.0757  0.4577  0.0975
57803W        W  720  11.540  13.029  25.010 -0.4253 -0.1359 -0.3665
57804W        W  721  13.588  11.443  24.288  0.1328  0.2846  0.1363
57805W        W  722  12.418   9.866  24.485  0.0884 -0.1770 -0.2344
57806W        W  723  11.620  10.777  25.042  0.0811 -0.2097  0.3400
57807W        W  724  12.655  11.410  25.047 -0.0799  0.0194 -0.1848
57808W        W  725  12.115  14.234  22.474 -0.1558 -0.0337 -0.0793
57809W        W  726  14.338  13.740  18.991 -0.1149  0.2652 -0.0536
57810W        W  727  13.822  14.648  25.184 -0.0965  0.0915 -0.1912
57811W        W  728  11.072  13.035  26.036  0.0142 -0.0207  0.0988
57812W        W  729  12.292   9.469  25.789  0.2053 -0.4137 -0.0416
57813W        W  730  13.012  10.197  23.558  0.1071 -0.3450  0.1496
57814W        W  731  12.077  12.387  26.406  0.0409 -0.1639 -0.0014
57815W        W  732  13.980  13.339  24.129  0.0018 -0.1065  0.0062
57816W        W  733  14.988  11.112  25.404 -0.5169  0.0714  0.1415
57817W        W  734  12.862  11.996  23.509 -0.1214  0.1088 -0.3158
57818W        W  735  11.462  10.634  25.627 -0.2392  0.1681 -0.2735
57819W        W  736  14.289  13.358  25.438  0.0158  0.1946 -0.2796
57820W        W  737  13.582  15.420  23.614 -0.0117  0.1313 -0.0410
57821W        W  738  11.494  11.184  24.754  0.0325  0.0545  0.1294
57822W        W  739  15.096  14.275  23.901 -0.3252 -0.0997  0.0172
57823W        W  740  11.609  13.405  25.430  0.3279 -0.0101 -0.1854
57824W        W  741  12.271  12.252  24.324 -0.1243 -0.2003  0.0485
57825W        W  742  11.577   8.958  23.239  0.1559  0.2193  0.4619
57826W        W  743  13.503  11.860  24.619 -0.3417  0.0268  0.3542
57827W        W  744  13.360  12.801  22.688  0.0193  0.0698 -0.0372
57828W        W  745  13.174  11.695  24.095  0.2633  0.0868 -0.0915
57829W        W  746  10.307  12.559  23.737 -0.2466  0.1628  0.1169
57830W        W  747  13.822  12.455  22.151  0.0114  0.3494  0.2130
57831W        W  748  14.722  15.151  24.116  0.1518 -0.0327 -0.2984
57832W        W  749  15.542  15.833  25.134 -0.4079 -0.0263 -0.1229
57833W        W  750  11.860  13.186  27.402 -0.0574  0.0773  0.0371
57834W        W  751  14.447  13.197  23.319  0.4075 -0.1559  0.1447
57835W        W  752  11.942  10.885  25.601  0.2413  0.2222 -0.2644
57836W        W  753  11.823  13.485  23.897  0.1356  0.0060  0.1574
57837W        W  754  10.490  10.766  23.415 -0.0520  0.1712  0.0643
57838W        W  755  14.878  12.490  23.803  0.0743 -0.0020 -0.1477
57839W        W  756  11.710  11.973  24.469 -0.1204 -0.1438  0.2086
57840W        W  757  14.904  10.519  24.135  0.0287 -0.0435  0.0240
57841W        W  758  13.747  12.601  25.896  0.1147  0.0836  0.1005
57842W        W  759  13.969  15.537  22.228  0.0821  0.0507 -0.3746
57843W        W  760  10.286  15.740  29.979  0.0564  0.0852 -0.0164
57844W        W  761  12.469  10.888  28.150  0.2695  0.1841 -0.0085
57845W        W  762  13.298  10.766  27.161  0.4652 -0.3474  0.2183
57846W        W  763  14.087  10.609  27.243 -0.2232 -0.1290 -0.1819
57847W        W  764  13.232  12.723  26.688 -0.0157  0.2090  0.3394
57848W        W  765  12.822  13.993  27.328 -0.4074  0.1056 -0.2630
57849W        W  766  12.132  12.511  30.215  0.0265  0.4036 -0.1025
57850W        W  767  14.578  12.359  29.687 -0.3012  0.1818  0.2961
57851W        W  768  16.368  14.110  27.717 -0.3173 -0.0123 -0.0964
57852W        W  769  13.313  13.656  26.627  0.1062 -0.1168 -0.1003
57853W        W  770  15.050  11.262  28.294 -0.0813 -0.2088 -0.3905
57854W        W  771  10.215  15.600  31.698 -0.0979 -0.0111  0.2074
57855W        W  772  10.912  12.222  25.654  0.1701 -0.1858 -0.3162
57856W        W  773  11.107  11.073  29.501 -0.1314 -0.0530  0.0395
57857W        W  774  13.664  11.973  28.653  0.0162 -0.0729 -0.1459
57858W        W  775  12.867  12.208  28.315  0.1355  0.0892 -0.1436
57859W        W  776  12.646  12.772  27.296  0.1315  0.3619 -0.0558
57860W        W  777  13.585  11.879  27.198 -0.0347 -0.1533 -0.2040
57861W        W  778  15.749  13.279  28.536 -0.3121  0.0890 -0.1385
57862W        W  779  14.355  10.377  30.346  0.0196 -0.0097 -0.0317
57863W        W  780  13.414  12.437  29.946 -0.1378  0.1336  0.0655
57864W        W  781  13.225  13.528  27.967 -0.0796 -0.1479 -0.1223
57865W        W  782  12.893  13.286  24.908  0.0418 -0.2756 -0.2299
57866W        W  783  12.308  11.432  29.355 -0.1466 -0.0093 -0.2111
57867W        W  784  11.308  11.465  27.528  0.1674 -0.0838  0.1126
57868W        W  785  16.101  13.616  26.972 -0.0307  0.1828 -0.2234
57869W        W  786  15.316  13.076  27.053 -0.2292 -0.1674 -0.0576
57870W        W  787  12.480  14.952  28.353 -0.1916 -0.0066 -0.1590
57871W        W  788  12.902  15.024  28.155 -0.0525  0.1343  0.1620
57872W        W  789  14.795  12.766  29.527  0.1663 -0.1237 -0.0422
57873W        W  790  13.696  13.345  29.514  0.2957 -0.2258  0.0352
57874W        W  791  12.072  14.711  30.194  0.1934 -0.0043 -0.2340
57875W        W  792  14.115  13.327  26.328 -0.1353 -0.2799 -0.0138
57876W        W  793  16.468  13.541  27.345 -0.1734 -0.2424 -0.1358
57877W        W  794  13.622  14.700  30.691 -0.1523  0.1096  0.1011
57878W        W  795  13.146  13.186  31.103  0.2318  0.1476 -0.0314
57879W        W  796  10.604  14.898  28.456  0.0091 -0.2701 -0.2328
57880W        W  797  14.027  13.954  30.214  0.1014 -0.1561  0.1006
57881W        W  798  12.074  14.960  30.634  0.0471  0.2431  0.2233
57882W        W  799  14.200  12.762  30.870 -0.1627  0.0713  0.0891
57883W        W  800  13.152  13.474  27.120 -0.0673 -0.1633 -0.1747
57884W        W  801  13.350  13.035  24.931 -0.1760  0.2009  0.0966
57885W        W  802  14.300  13.423  27.866  0.1666  0.0956  0.1194
57886W        W  803  13.583  13.850  29.206  0.0416  0.0223 -0.0861
57887W        W  804  14.459  14.183  29.675  0.0373  0.1292 -0.0437
57888W        W  805  13.928  14.208  30.705  0.0467  0.2487 -0.1572
57889W        W  806  11.503  14.081  24.750 -0.4910  0.0905 -0.0108
57890W        W  807  14.718  14.969  25.407 -0.1903  0.2257  0.0128
57891W        W  808  12.579  13.013  25.723  0.0433 -0.0575 -0.1887
57892W        W  809  14.948  11.612  27.145  0.3274 -0.0207 -0.0505
57893W        W  810  11.549  10.492  29.287  0.3432  0.1195 -0.0782
57894W        W  811   9.757  14.100  31.362 -0.0681  0.0403 -0.1831
57895W        W  812  12.935  10.064  29.082 -0.2221 -0.1235  0.0639
57896W        W  813  14.795  15.061  27.899  0.0100 -0.4700 -0.0528
57897W        W  814  14.450  12.443  29.156  0.0005 -0.1866  0.1619
57898W        W  815  12.829  12.498  26.957 -0.0441  0.4646  0.0824
57899W        W  816  12.389  13.642  27.988 -0.2904  0.1782 -0.0387
57900W        W  817  13.693  14.085  28.330  0.1350 -0.1416  0.2046
57901W        W  818  14.839  12.519  25.365 -0.0549  0.1180 -0.0541
57902W        W  819  14.727  15.995  26.835 -0.0171 -0.0834 -0.1315
57903W        W  820  15.564  14.415  25.650  0.0626  0.0566  0.0231
57904W        W  821  13.769  10.077  27.607  0.0788  0.0420 -0.0673
57905W        W  822  12.158  13.085  31.721 -0.0892  0.1557 -0.0889
57906W        W  823  12.371  11.368  27.367  0.0060 -0.1981 -0.0858
57907W        W  824  13.660   9.295  26.331 -0.1053 -0.3138 -0.1141
57908W        W  825  14.059  11.929  31.187  0.1865  0.2192 -0.0878
57909W        W  826  10.194  13.442  30.355  0.0611 -0.2892  0.0718
57910W        W  827  13.589  10.748  28.099 -0.2175 -0.2155  0.0094
57911W        W  828  12.989  12.995  28.052  0.1369  0.2347 -0.0573
57912W        W  829  13.318  12.770  28.439 -0.1586 -0.1030 -0.0941
57913W        W  830  13.413  14.423  24.268  0.0504  0.1689 -0.0210
57914W        W  831  14.053  12.400  27.588 -0.0923  0.2342 -0.0861
57915W        W  832  13.294  10.777  29.824  0.2559  0.1141  0.0423
57916W        W  833  12.135  13.618  25.448 -0.1959  0.0622 -0.2065
57917W        W  834  13.799  13.506  26.716  0.2719 -0.0119  0.1025
57918W        W  835  13.949  14.844  29.638 -0.0082  0.3542 -0.0550
57919W        W  836  14.806  13.416  27.974 -0.4315 -0.0093 -0.3103
57920W        W  837  12.717  14.886  29.999 -0.0227  0.0075  0.2776
57921W        W  838  11.890  10.945  28.113  0.2059 -0.1767 -0.2229
57922W        W  839  13.715  11.530   0.416  0.0196  0.1347 -0.0584
57923W        W  840  13.025  16.320  26.231  0.2355  0.0292 -0.3688
57924W        W  841  11.271  15.099  29.191  0.0215  0.1919  0.1601
57925W        W  842  12.220  14.647  27.106  0.4012 -0.0115  0.0659
57926W        W  843  12.066  11.271  30.211 -0.0052  0.2952  0.2767
57927W        W  844  12.358  12.696  28.658 -0.2712 -0.3405 -0.2644
57928W        W  845  14.808  10.824  28.386 -0.3019  0.1276 -0.0893
57929W        W  846  12.127  10.602  30.968  0.0387  0.1873 -0.0162
57930W        W  847  16.182  10.914  26.989  0.4727 -0.2448 -0.4362
57931W        W  848  14.029  13.710  28.269 -0.0003  0.0686  0.6214
57932W        W  849  14.155  15.469  28.542  0.1496  0.2686 -0.3268
57933W        W  850  13.902  11.500  25.650 -0.1429  0.1358  0.0093
57934W        W  851  15.765  13.285  26.178 -0.3103  0.0803 -0.0738
57935W        W  852  12.256  12.495  29.143  0.3554  0.2653  0.0918
57936W        W  853  13.552  12.279  27.589  0.1637 -0.2506  0.1045
57937W        W  854  13.702  10.720  30.122  0.1115  0.1270 -0.2303
57938W        W  855  12.062  10.763  29.899  0.2613 -0.0246 -0.2455
57939W        W  856  14.076  12.721  28.937  0.1531  0.0407  0.1470
57940W        W  857  12.292  12.184  26.879  0.0062 -0.0717  0.0109
57941W        W  858  14.826  11.220  28.792  0.4681 -0.0632  0.0669
57942W        W  859  15.805  14.279  25.273  0.1210 -0.0293 -0.3131
57943W        W  860  12.524  13.957  28.356 -0.2503  0.2762 -0.0023
57944W        W  861  16.382  12.989  28.597 -0.2360 -0.1210  0.2840
57945W        W  862  13.349  14.296  27.915 -0.0564 -0.3277  0.1887
57946W        W  863  15.515  12.422  29.140 -0.0618  0.0516 -0.4481
57947W        W  864  16.497  12.327  28.250  0.2801 -0.1471  0.1040
57948W        W  865  12.899  13.122  27.528 -0.0803  0.3135 -0.0977
57949W        W  866  11.245  12.870  27.297 -0.0430  0.1550 -0.0029
57950W        W  867  10.402  14.245  30.615  0.1030  0.1943  0.0158
57951W        W  868  16.973  12.415  28.067  0.0875  0.2061 -0.1146
57952W        W  869  11.696  12.460  28.444 -0.0802  0.0494  0.0069
57953W        W  870  16.084  15.514  26.450 -0.1028 -0.0535  0.0695
57954W        W  871  15.037  10.990  24.885 -0.3739 -0.1616  0.0562
57955W        W  872  13.011  12.744  30.773  0.0091 -0.0846 -0.2750
57956W        W  873  13.573  12.629  27.997 -0.0469 -0.0056  0.1873
57957W        W  874  16.567  13.618  26.553 -0.0916  0.2678  0.0125
57958W        W  875  14.429  10.671  28.169  0.0435  0.2652  0.1354
57959W        W  876  13.183  11.919  27.432  0.0842  0.0296  0.2880
57960W        W  877  12.363  16.156  26.915 -0.2206 -0.1006  0.1062
57961W        W  878  11.596  15.095  28.392 -0.1105 -0.4667  0.2744
57962W        W  879  10.981  13.308  28.128  0.1340  0.3483 -0.0650
57963W        W  880  13.381  13.818  30.245  0.0722  0.1832  0.0955
57964W        W  881  13.216  11.063  27.625 -0.3031 -0.1085  0.1091
57965W        W  882  12.135  12.521  29.648  0.2325 -0.1201 -0.0474
57966W        W  883  12.484  13.408  28.945 -0.1578  0.1019 -0.3793
57967W        W  884  11.012  13.053  27.731  0.3004  0.2853  0.1453
57968W        W  885  12.824  13.839  30.069 -0.0833 -0.2778 -0.4099
57969W        W  886  14.090  10.492  29.200  0.1280 -0.0268  0.1542
57970W        W  887  15.701  11.063  27.523 -0.4386  0.1824 -0.1147
57971W        W  888  13.545  13.583  28.382 -0.0308 -0.1032 -0.0810
57972W        W  889  16.023  12.536  28.222  0.0518  0.0671  0.1506
57973W        W  890  13.078  12.511  28.048 -0.3318 -0.0471  0.2621
57974W        W  891  12.903  12.864  25.248 -0.0677 -0.2251 -0.1681
57975W        W  892  12.083  13.773  30.737 -0.0413 -0.0463 -0.0634
57976W        W  893  14.557  13.747  27.509  0.4505 -0.0431  0.0709
57977W        W  894  11.391  14.042  30.060  0.1454  0.2871  0.2211
57978W        W  895  12.973  12.436  23.712  0.1438 -0.0179  0.1918
57979W        W  896  14.187  14.240  26.437 -0.1241 -0.2011 -0.4291
57980W        W  897  12.108  14.331  28.398  0.0396  0.1847  0.0386
57981W        W  898  13.812  13.823   0.584 -0.0620  0.0984  0.4909
57982W        W  899  14.761  14.094  25.270 -0.0575 -0.0537 -0.1636
57983W        W  900  11.921  11.060  29.545 -0.4886 -0.0519  0.3082
57984W        W  901  11.900  13.995  26.519  0.0272 -0.3256  0.4400
57985W        W  902  14.063  12.241  28.866 -0.2242 -0.1587  0.1210
57986W        W  903  11.977  14.278  28.881 -0.0899 -0.0110 -0.2517
57987W        W  904  14.716  11.883  27.673 -0.3657  0.0088 -0.0616
57988W        W  905  12.949  11.663  28.174  0.1171  0.2555 -0.0871
57989W        W  906  11.783  11.359  28.370  0.0157 -0.0165  0.1002
57990W        W  907  14.131  13.205   0.735 -0.0360 -0.0232  0.2303
57991W        W  908  13.691  11.120  24.818  0.0947 -0.0361  0.1958
57992W        W  909  13.292  12.808  27.656  0.0360 -0.0661  0.1830
57993W        W  910  13.764  13.133  25.557  0.2395 -0.2582 -0.1679
57994W        W  911  14.968  14.268  29.728 -0.0708  0.1515  0.0100
57995W        W  912  12.899  11.548  28.954  0.0831 -0.3360 -0.0095
57996W        W  913  12.129  14.217  30.110 -0.1261 -0.1876  0.0605
57997W        W  914  13.739  13.174  28.694 -0.0152  0.2135 -0.0395
57998W        W  915  13.407  12.300  28.352  0.2660 -0.0077  0.1995
57999W        W  916  14.802  13.398  31.176 -0.2272 -0.0272  0.0506
58000W        W  917  13.618  12.001  26.671  0.2598 -0.1470 -0.0222
58001W        W  918  12.033  14.030  29.318  0.0859 -0.2698 -0.3918
58002W        W  919  12.746  12.955  26.796 -0.1505  0.0911  0.3373
58003W        W  920  14.223  11.178  28.703  0.3977 -0.2672  0.4040
58004W        W  921  12.393  13.055  28.021 -0.0102  0.0385 -0.0771
58005W        W  922  12.783  13.803  24.866 -0.1935  0.0162  0.0700
58006W        W  923  13.937  12.568  29.919  0.1915 -0.1963 -0.0573
58007W        W  924  12.714  14.805  27.091  0.0467  0.4091 -0.1591
58008W        W  925  13.800  11.954  29.678 -0.0767  0.1161  0.1848
58009W        W  926  12.650  14.822  29.518  0.1545 -0.2210 -0.1090
58010W        W  927  13.544  10.243  27.992 -0.0242  0.0382 -0.2585
58011W        W  928  11.136  11.132  26.609  0.0794  0.0119  0.2125
58012W        W  929  12.817  10.097  27.656  0.1953 -0.4318 -0.0118
58013W        W  930  16.685  15.147  24.463  0.0078  0.0925  0.1167
58014W        W  931  11.945  11.582  29.719 -0.3944 -0.3473 -0.0582
58015W        W  932  13.479  10.412  28.517 -0.1430  0.0922 -0.1383
58016W        W  933   9.237  15.907  31.344 -0.0332  0.0941 -0.2881
58017W        W  934  13.381  13.446  30.691 -0.1112  0.0963  0.3575
58018W        W  935  14.438  10.827  26.192 -0.0015  0.1228  0.1063
58019W        W  936  15.585  12.636  30.104  0.3460  0.1259  0.0541
58020W        W  937  12.948  12.551  30.165  0.0379  0.3168  0.1100
58021W        W  938  12.640  12.505  24.130  0.1553 -0.0290  0.1696
58022W        W  939  14.299  12.293  28.394 -0.0626 -0.0698 -0.0375
58023W        W  940  13.903  12.203  28.055  0.2987 -0.1153  0.1781
58024W        W  941  10.236  13.519  31.195  0.0725  0.1084 -0.0036
58025W        W  942  12.906  14.499  27.810  0.2994  0.3650  0.0953
58026W        W  943  11.895  12.753  27.221 -0.3081  0.1152 -0.2113
58027W        W  944  14.366  13.828  25.604 -0.0779  0.2748  0.1888
58028W        W  945  13.040  12.088  29.940 -0.1153 -0.0301 -0.0482
58029W        W  946  13.961  10.976  29.152 -0.2924 -0.1595 -0.0000
58030W        W  947  14.436  12.207  27.122  0.2126 -0.2079  0.1086
58031W        W  948  15.020  12.356  27.822  0.1740 -0.0247 -0.1269
58032W        W  949  12.824  11.183  28.506  0.2762  0.2895  0.1140
58033W        W  950  15.055  13.760  28.460 -0.1415  0.2287 -0.1245
58034W        W  951  15.662  12.639  26.672  0.0123 -0.1120 -0.0064
58035W        W  952  11.873  16.029  31.193 -0.1918 -0.2682  0.2325
58036W        W  953  12.164   9.628  28.248  0.2551 -0.2366  0.0826
58037W        W  954  16.782  16.215  26.130  0.3249  0.3543  0.3781
58038W        W  955  14.116  11.769  28.641 -0.1614  0.4473  0.3268
58039W        W  956  11.468  12.384  27.147  0.0716 -0.0103  0.1429
58040W        W  957  10.840  13.947  28.290 -0.0531  0.3305 -0.1692
58041W        W  958  13.572  12.640  24.442 -0.1514 -0.4704  0.1738
58042W        W  959  13.225  11.513  27.825  0.3373 -0.1537  0.0250
58043W        W  960  13.200  14.877  28.549  0.1660  0.2628  0.1139
58044W        W  961  13.823  14.986  26.200  0.2090 -0.1053 -0.3034
58045W        W  962  12.840  13.675  28.662 -0.3972  0.1857  0.1693
58046W        W  963  13.727  11.953  29.173  0.0929  0.3538 -0.0265
58047W        W  964  13.308  14.202  26.095  0.2849  0.0240  0.0213
58048W        W  965  12.609  12.292  28.865  0.0180  0.1357 -0.1581
58049W        W  966  13.066  11.160   0.094  0.2269 -0.1827 -0.4727
58050W        W  967  13.815  12.011  25.787 -0.0832  0.2503 -0.2216
58051W        W  968  13.820  12.342  30.473  0.0932  0.2238  0.1997
58052W        W  969  11.132  12.614  29.260 -0.1546 -0.1578 -0.0035
58053W        W  970  16.184  14.547  28.141  0.1004  0.1817 -0.4132
58054W        W  971  11.561  10.836  30.174  0.0085 -0.2673 -0.0562
58055W        W  972  13.091  14.644  29.773 -0.0545  0.0096 -0.3660
58056W        W  973  11.408  12.263  28.749  0.0710  0.2199 -0.0840
58057W        W  974  13.484  14.630  27.478  0.0757 -0.2383 -0.2254
58058W        W  975  13.894  12.796  26.851  0.3122  0.0494 -0.2890
58059W        W  976  13.388  14.285  29.421  0.0458 -0.0852  0.1316
58060W        W  977  15.636  13.793  26.211 -0.3109  0.0712 -0.1289
58061W        W  978  14.301  11.719  26.076  0.1116  0.2493  0.2151
58062W        W  979  16.332  14.997  26.419 -0.1917 -0.1917  0.0310
58063W        W  980  12.036  11.736  28.229 -0.1633  0.0059  0.0063
58064W        W  981  13.867  11.847  30.227  0.0043 -0.0118 -0.0649
58065W        W  982  15.257  15.522  25.859  0.4459  0.2552  0.3741
58066W        W  983  13.538  13.510  26.178  0.0060  0.0202 -0.0019
58067W        W  984  13.504  11.031  31.072 -0.1566  0.0268  0.0580
58068W        W  985  13.864  12.599  28.485  0.0661 -0.3003  0.0368
58069W        W  986  13.481  11.263  28.130  0.2334  0.0622 -0.0492
58070W        W  987  14.568  12.620  28.712  0.0788 -0.1349  0.1782
58071W        W  988  15.385  10.607  29.722 -0.1515 -0.3682  0.0030
58072W        W  989  12.837  12.093  30.398  0.2854  0.2035  0.1513
58073W        W  990  11.586  10.521  31.120  0.1548  0.1694  0.0531
58074W        W  991  14.263  14.047  28.674  0.0828 -0.1570 -0.4366
58075W        W  992  16.713  12.364  26.257  0.0321  0.0767  0.3218
58076W        W  993  13.354   9.067  31.880 -0.3123  0.1200 -0.1931
58077W        W  994  15.927  13.718  27.555  0.1581 -0.0124 -0.0336
58078W        W  995  15.378  12.799  28.774 -0.2929 -0.2431 -0.3430
58079W        W  996  12.846  11.505  26.482  0.0047  0.1030  0.1924
58080W        W  997  13.916  14.904  27.304  0.0788 -0.0285 -0.0677
58081W        W  998  13.300  12.250  26.978  0.2248  0.0243  0.1377
58082W        W  999  14.842  10.941  30.996 -0.0607 -0.2785 -0.1696
58083W        W 1000  14.790  13.142  27.149  0.1902  0.0260  0.1571
58084W        W 1001  15.151  11.875  27.832 -0.1298 -0.1055 -0.0575
58085W        W 1002  15.493  13.227  29.122  0.2786  0.4845 -0.0380
58086W        W 1003  11.789  14.568  29.243 -0.1540  0.1084  0.1080
58087W        W 1004  11.155  13.868  30.762 -0.6293 -0.0448  0.0385
58088W        W 1005  12.623  11.309  26.894 -0.0135  0.2931 -0.1440
58089W        W 1006  13.193  13.171  26.346 -0.1649  0.1420 -0.0402
58090W        W 1007  14.284  12.778  30.383  0.0713  0.2747 -0.2652
58091W        W 1008  13.460  11.581  28.968 -0.2624  0.1216  0.1926
58092W        W 1009  15.708   9.721  26.190 -0.0760 -0.3421 -0.0673
58093W        W 1010  14.520  12.647  28.136 -0.2844  0.1189 -0.0178
58094W        W 1011  11.793  14.445  28.016  0.2995 -0.2710  0.0481
58095W        W 1012  14.958  12.072  27.243 -0.0818  0.0859  0.1200
58096W        W 1013  13.474  13.247  27.536 -0.0844 -0.2679 -0.0891
58097W        W 1014  11.519  10.806  29.658  0.2684 -0.3459 -0.0311
58098W        W 1015  12.897  14.075  29.609  0.1167  0.3401  0.0529
58099W        W 1016  13.906  11.329  30.836 -0.0974  0.1434  0.0306
58100W        W 1017  14.201  14.074  27.285 -0.0857 -0.2963 -0.3054
58101W        W 1018  13.825  12.873  27.616 -0.0737  0.0491 -0.1398
58102W        W 1019  16.425  13.662  31.425  0.1081  0.1876  0.0744
58103W        W 1020  14.827  14.251  31.278  0.1948  0.0059  0.0025
58104W        W 1021  12.682  11.915  26.749 -0.2190  0.1190 -0.0038
58105W        W 1022  13.662  13.870  27.898 -0.1344  0.0717 -0.1743
58106W        W 1023  15.143  13.532  26.952  0.2001  0.0905  0.0161
58107W        W 1024  13.932  15.464  29.041  0.0306 -0.0299 -0.1111
58108W        W 1025  12.388  12.104  29.454 -0.1771 -0.0998  0.0578
58109W        W 1026  13.460  13.020  31.487 -0.0384  0.0596  0.0512
58110W        W 1027  13.090  14.439  28.330 -0.0467  0.1779  0.0261
58111W        W 1028  11.901  10.565  26.355  0.1606 -0.0421 -0.1353
58112W        W 1029  13.579  14.588  28.429 -0.0350 -0.0179 -0.1051
58113W        W 1030  14.350  12.741   0.493  0.5563  0.2868 -0.3807
58114W        W 1031  11.604  11.430  29.424 -0.2776 -0.2237  0.1106
58115W        W 1032  12.386  15.098  27.294 -0.0899  0.2563  0.1421
58116W        W 1033  15.821  13.142  26.838  0.0421  0.0339 -0.2461
58117W        W 1034  14.715  13.296  25.691  0.0869 -0.1210  0.1107
58118W        W 1035  16.731  14.486  28.081 -0.1494  0.3522  0.2510
58119W        W 1036  14.423  12.209  27.946  0.1162 -0.1203 -0.1586
58120W        W 1037  13.020  12.486  28.748  0.0635  0.0768  0.0830
58121W        W 1038  11.921  11.995  26.624  0.5025 -0.0074 -0.1054
58122W        W 1039  14.435  15.154  26.305  0.0550 -0.3735 -0.0265
58123W        W 1040  12.071  13.646  29.866 -0.3622  0.0267  0.1826
58124W        W 1041  15.592  12.838  28.295  0.0525  0.0892  0.0224
58125W        W 1042  13.539  12.175  26.126  0.1375 -0.1991 -0.0317
58126W        W 1043  13.884  13.525  27.600 -0.1173 -0.1799 -0.2227
58127W        W 1044  15.514   9.487  24.817  0.1886  0.0528  0.2906
58128W        W 1045  14.902  13.997  29.311 -0.1113  0.3822 -0.0780
58129W        W 1046  12.641  11.829  28.565  0.1711  0.1782 -0.1184
58130W        W 1047  13.209  11.701  26.903 -0.0428  0.0453 -0.0245
58131W        W 1048  13.592  13.126  28.124  0.1112 -0.2784  0.0479
58132W        W 1049  13.146  12.673  31.234 -0.1676 -0.0591 -0.2831
58133W        W 1050  12.136  15.657  30.965 -0.0124 -0.0847  0.0514
58134W        W 1051  13.187  14.018  26.941 -0.2557 -0.0112  0.1885
58135W        W 1052  12.989  13.705  26.167 -0.2587 -0.0480  0.1173
58136W        W 1053  13.394  12.780  25.497 -0.1615  0.0085  0.0477
58137W        W 1054  15.389  10.853  29.272  0.1865  0.0290 -0.1752
58138W        W 1055  14.424  12.804  25.535  0.0263 -0.3143 -0.1311
58139W        W 1056  15.197  10.332  27.772  0.2477 -0.2312  0.2171
58140W        W 1057  14.544  12.982  29.111 -0.2289 -0.1124 -0.0410
58141W        W 1058  11.337  16.348  31.545  0.0192 -0.0528 -0.1907
58142W        W 1059  11.316  15.398  30.847  0.2143 -0.0713 -0.0289
58143W        W 1060  12.603  10.595  27.753 -0.0188 -0.0226 -0.3101
58144W        W 1061  13.609  12.517  26.474  0.3948  0.0328  0.0154
58145W        W 1062  12.493  11.790  29.885  0.0446  0.1990 -0.2364
58146W        W 1063  13.537  12.397  28.961  0.1048 -0.1460  0.1131
58147W        W 1064  14.973  13.098  28.836 -0.1408 -0.2688 -0.2153
58148W        W 1065  13.275  10.603  26.627  0.1084 -0.0815 -0.0007
58149W        W 1066  13.192  13.266  28.503 -0.3672 -0.1263  0.1568
58150W        W 1067  11.929  11.866  29.318 -0.0438  0.1392 -0.0051
58151W        W 1068  14.210  13.071  25.032  0.1626  0.2188  0.0255
58152W        W 1069  14.912  12.335  29.181 -0.0147 -0.0035 -0.3689
58153W        W 1070  14.603  13.645  24.325  0.1247 -0.1332 -0.2520
58154W        W 1071  14.342  15.220  28.117  0.1675  0.0355 -0.1987
58155W        W 1072  12.077  11.226  26.997 -0.0679  0.0238 -0.2770
58156W        W 1073  14.489  12.891  26.467 -0.0447  0.0768  0.3700
58157W        W 1074  13.911  13.705  28.789  0.2800 -0.1344  0.0876
58158W        W 1075  12.402  13.952  29.659  0.1937 -0.1950 -0.1265
58159W        W 1076  14.666  13.059  28.393 -0.0002 -0.0314  0.2123
58160W        W 1077  13.113  10.241  27.011  0.1274 -0.5685  0.0375
58161W        W 1078  14.592  13.845  24.768 -0.0461  0.3301  0.2327
58162W        W 1079  13.623  10.947  28.678 -0.0200 -0.0895  0.2098
58163W        W 1080  12.308  15.459  28.289  0.0123  0.1568 -0.0676
58164W        W 1081  14.476  11.196  24.768 -0.0753  0.0064 -0.0187
58165W        W 1082  13.338  13.911  28.702 -0.1464 -0.0457 -0.0050
58166W        W 1083  12.862  12.307  29.314 -0.0388  0.0031  0.0488
58167W        W 1084  12.356  13.861  27.569  0.1710 -0.2640  0.2668
58168W        W 1085  14.565  14.441  28.805  0.1025  0.1835 -0.1031
58169W        W 1086  12.377  10.834  25.848 -0.2397  0.3908  0.0913
58170W        W 1087  10.876   9.631  29.475  0.1011  0.0693 -0.0147
58171W        W 1088  10.803  14.650  26.511  0.1839  0.0102  0.4597
58172W        W 1089  13.148  14.215  30.022 -0.0772 -0.1145 -0.1747
58173W        W 1090  14.781  11.691  29.383 -0.1347  0.1646 -0.0333
58174W        W 1091  14.258  15.478  27.687 -0.0722 -0.0694 -0.0794
58175W        W 1092  13.447  11.706  29.980 -0.0345  0.2880  0.2178
58176W        W 1093  11.460  14.136  31.246  0.1830  0.0869  0.1701
58177W        W 1094  13.137  14.445  31.467  0.0755 -0.0564 -0.0230
58178W        W 1095  10.661  12.388  26.637  0.0358  0.0103  0.0445
58179W        W 1096  10.587  12.843  31.277 -0.2210 -0.0020  0.1798
58180W        W 1097  13.715  13.014  26.165  0.0939 -0.0966 -0.1360
58181W        W 1098  12.224  14.208  27.950 -0.0113 -0.1792 -0.2488
58182W        W 1099  15.102  15.490  27.125 -0.0665 -0.2396 -0.2052
58183W        W 1100  13.939  11.563  27.306 -0.1227 -0.3122 -0.1604
58184W        W 1101  16.926  13.799  28.363  0.0247  0.1591  0.4661
58185W        W 1102  13.636  10.716  27.620 -0.0553 -0.1643  0.1324
58186W        W 1103  14.103  13.627  27.096  0.0650 -0.0984  0.2547
58187W        W 1104  12.488  11.439  28.177 -0.1557  0.3427  0.2384
58188W        W 1105  13.803  14.273  27.519 -0.2001  0.0170 -0.0417
58189W        W 1106  12.284  11.828  27.698 -0.3793 -0.0566 -0.0699
58190W        W 1107  12.785  11.839  26.141  0.2942 -0.0905  0.0129
58191W        W 1108  12.723  12.068  27.227 -0.0231 -0.0724 -0.0121
58192W        W 1109  14.088  13.134  30.001  0.0008 -0.0361 -0.0625
58193W        W 1110  13.013  13.246  29.010  0.0831 -0.2486  0.3055
58194W        W 1111  11.547  13.502  28.818  0.0523 -0.1310 -0.1864
58195W        W 1112  14.524  13.820  28.094 -0.0068  0.0217  0.4389
58196W        W 1113  14.714  12.066  25.582  0.2564 -0.0370  0.2356
58197W        W 1114  12.586   9.710  27.929 -0.2007  0.1318 -0.1152
58198W        W 1115  13.289  11.407  28.543  0.0767 -0.0341  0.1650
58199W        W 1116  15.942  14.007  25.847  0.1800 -0.0141  0.0225
58200W        W 1117  13.724  15.139  25.696 -0.0847 -0.3015 -0.2350
58201W        W 1118  13.307  10.356  27.514 -0.1065  0.2969  0.0961
58202W        W 1119  15.899  12.054  28.338 -0.0558 -0.4206  0.1240
58203W        W 1120  12.486  11.987  28.118 -0.0874  0.1656 -0.0534
58204W        W 1121  10.743  11.013  31.297 -0.1080 -0.0104 -0.2126
58205W        W 1122  13.355  10.687  30.714  0.0545 -0.0627 -0.1050
58206W        W 1123  13.394  11.425  27.281 -0.3032  0.2402  0.2945
58207W        W 1124  13.230  12.046  27.907  0.2781 -0.0081  0.2976
58208W        W 1125  14.048  12.175  26.269 -0.0853  0.1359 -0.4119
58209W        W 1126  13.985  15.412  26.055  0.1791  0.1835 -0.1358
58210W        W 1127  13.539  12.150  31.849  0.0503 -0.1266  0.0772
58211W        W 1128  13.467  13.050   1.110 -0.1407  0.0962  0.0733
58212W        W 1129  10.753  11.801  30.527  0.0392  0.2019  0.2992
58213W        W 1130  13.094  12.892  27.152  0.0187 -0.0950  0.3165
58214W        W 1131  13.036  13.839  29.105  0.3320  0.1067  0.0709
58215W        W 1132  14.300  14.324  28.282  0.0744  0.1937 -0.0129
58216W        W 1133  15.382  12.117  27.015  0.1852  0.1943  0.0592
58217W        W 1134  13.963  12.739  25.332  0.1677 -0.0257  0.1159
58218W        W 1135  11.415  11.845  30.611 -0.0550  0.1267  0.1076
58219W        W 1136  12.831  12.977  28.587 -0.0282 -0.1066 -0.1316
58220W        W 1137  14.412  13.200  29.547 -0.1639 -0.0936 -0.1393
58221W        W 1138  11.514  11.018  29.183  0.0868  0.1730  0.4158
58222W        W 1139  14.256  11.376  29.413  0.3082  0.0188  0.1069
58223W        W 1140  13.509  14.333  27.079  0.3839 -0.0118  0.0188
58224W        W 1141  12.466  12.823  30.051  0.2516  0.4105 -0.0160
58225W        W 1142  13.286  11.799  26.005 -0.1024  0.0358  0.0250
58226W        W 1143  13.779  11.411  28.529 -0.1604  0.0183  0.0695
58227W        W 1144  14.080  13.616  29.239 -0.1982  0.1479  0.0624
58228W        W 1145  14.989  13.939  27.947  0.0125 -0.1597  0.0411
58229W        W 1146  13.964  11.702  26.422  0.2042 -0.1660 -0.0577
58230W        W 1147  15.180  14.030  26.326 -0.3007 -0.0506  0.2140
58231W        W 1148  12.642  16.652  25.968  0.2879  0.1814  0.0111
58232W        W 1149  15.048  13.288  29.410 -0.4655 -0.3078  0.0431
58233W        W 1150  15.225  12.849  29.305  0.0389  0.1571 -0.0489
58234W        W 1151  14.631  12.461  27.584 -0.0718 -0.1444  0.3110
58235W        W 1152  10.842  12.419  30.722  0.4063 -0.2185 -0.0240
58236W        W 1153  14.722  13.768  26.500  0.0351  0.0380  0.0997
58237W        W 1154  14.078  11.894  26.939  0.0851  0.0324 -0.1039
58238W        W 1155  14.463  13.915  30.079  0.3275  0.1278 -0.1868
58239W        W 1156  11.978  11.323  29.024  0.2871 -0.4537  0.1888
58240W        W 1157  14.153   8.449  27.282 -0.1117 -0.0401  0.3039
58241W        W 1158  12.563  14.435  29.896  0.1230 -0.0080 -0.1395
58242W        W 1159  14.592  14.383  30.376 -0.0914  0.0282  0.0494
58243W        W 1160  13.624  11.042  30.564  0.3029 -0.2892 -0.2085
58244W        W 1161  15.189  12.606  26.813  0.1278  0.4290  0.0575
58245W        W 1162  12.539  13.101  31.355  0.0001  0.3140 -0.3424
58246W        W 1163  13.827  13.250  31.749 -0.1690  0.0538 -0.1759
58247W        W 1164  11.743  13.283   0.517 -0.0572  0.2598  0.2650
58248W        W 1165  12.743  15.707   0.886  0.0244  0.0002  0.2059
58249W        W 1166  15.007  13.828  31.545  0.1109 -0.0535 -0.2020
58250W        W 1167  12.697  11.305  30.939 -0.1852  0.1155  0.0897
58251W        W 1168  13.284  13.761  29.623 -0.1170  0.0030 -0.3291
58252W        W 1169  14.594  13.516  29.090  0.1734 -0.0797 -0.0195
58253W        W 1170  14.763  11.553   0.874 -0.0885 -0.0831  0.2702
58254W        W 1171  12.535  10.887  30.125  0.2876  0.2544 -0.0450
58255W        W 1172  15.375  13.491   0.130 -0.3918 -0.0364  0.3198
58256W        W 1173  14.429  14.686  29.667  0.0117 -0.1325  0.0803
58257W        W 1174  13.462  12.076   0.466  0.0618 -0.2748 -0.0967
58258W        W 1175  10.230  13.172  29.948  0.0221 -0.2225  0.0194
58259W        W 1176  13.382  12.430   0.858 -0.0495 -0.0966  0.1149
58260W        W 1177  12.445  13.973  30.411 -0.0186 -0.2968  0.1565
58261W        W 1178  11.393  10.938  30.666  0.1873  0.2932  0.0002
58262W        W 1179  10.453  13.166  30.862  0.0890 -0.0723 -0.0072
58263W        W 1180  12.770  11.812  30.904 -0.2135  0.0664 -0.0682
58264W        W 1181  11.867  15.050  29.253 -0.3369 -0.0895  0.1768
58265W        W 1182  16.260  10.239   1.666 -0.2775  0.1145 -0.0472
58266W        W 1183  13.208  11.866  28.594 -0.0705 -0.3211  0.1548
58267W        W 1184  11.456  12.108  31.302 -0.1169  0.0487 -0.1504
58268W        W 1185  12.556  12.539  30.447 -0.0711 -0.0665  0.0906
58269W        W 1186  13.211  13.247  29.543  0.0278 -0.3122  0.0104
58270W        W 1187  12.327  12.420  27.864 -0.0936 -0.0979  0.2827
58271W        W 1188  13.033  12.164  31.322 -0.0670 -0.2367  0.0668
58272W        W 1189  14.105  14.013  27.813  0.1861 -0.0285  0.0969
58273W        W 1190  14.159  13.602  29.842  0.2259  0.2351 -0.2438
58274W        W 1191  13.709  10.493  29.564  0.2839 -0.0589 -0.0892
58275W        W 1192  13.832  15.042  31.002  0.1420 -0.2325 -0.1245
58276W        W 1193  13.885  13.717  30.686  0.1613  0.0899 -0.3356
58277W        W 1194  13.511  12.461  31.435 -0.2823  0.1553 -0.1428
58278W        W 1195  12.165  13.595  31.761  0.3485  0.1504 -0.0217
58279W        W 1196  13.177  15.723  31.212  0.0472 -0.0579 -0.0253
58280W        W 1197  14.025  14.156  31.784 -0.1579  0.3672  0.0186
58281W        W 1198  15.704  11.752  31.800  0.1769  0.1089  0.0396
58282W        W 1199  15.250  11.226  27.288 -0.0266  0.0425 -0.0698
58283W        W 1200  14.890  12.026  30.458  0.1302  0.0872 -0.0797
58284W        W 1201  14.870  14.249  30.770  0.0129  0.3776 -0.5073
58285W        W 1202  13.147  10.191  31.602  0.1091 -0.2177 -0.1539
58286W        W 1203  16.857  12.426  29.428 -0.2527  0.3125 -0.0114
58287W        W 1204  12.599  12.648  29.566  0.0149  0.0517  0.3585
58288W        W 1205  13.647  12.773  30.979  0.2934  0.1203  0.0197
58289W        W 1206  11.352  11.440  31.900 -0.1399  0.0012  0.0501
58290W        W 1207  13.758  13.921  29.812  0.0272  0.0110  0.1559
58291W        W 1208  14.063  14.066  31.190 -0.2438 -0.0787  0.0347
58292W        W 1209  11.057  16.640  31.839 -0.0213 -0.0255 -0.0353
58293W        W 1210  15.169  13.313  31.691  0.2837 -0.0393  0.1463
58294W        W 1211  13.319  11.213  31.593 -0.0787  0.3959 -0.1121
58295W        W 1212  13.877  13.143  30.670 -0.1849  0.0589 -0.5192
58296W        W 1213  13.427  12.307  29.463 -0.0541  0.6176  0.1105
58297W        W 1214  11.781  12.480  31.212 -0.1109 -0.0016  0.2845
58298W        W 1215  16.003  13.000  29.366  0.0276 -0.0106  0.1968
58299W        W 1216  15.177  12.383  30.466 -0.1266  0.0268  0.1536
58300W        W 1217  11.701  14.917  29.947 -0.1217 -0.1859 -0.1629
58301W        W 1218  11.053  14.693  29.257 -0.1730 -0.1983 -0.1735
58302W        W 1219  13.965  12.337  29.394 -0.2567 -0.0389  0.2804
58303W        W 1220  12.116  11.810  30.160 -0.0978  0.2901  0.0057
58304W        W 1221  13.385  16.242  29.497 -0.4104  0.2512 -0.0338
58305W        W 1222  13.166  11.993  29.055 -0.0697  0.1896  0.0664
58306W        W 1223  10.930  13.582  31.765 -0.0401  0.0314 -0.4599
58307W        W 1224  13.516  15.278  30.529  0.3512  0.1797 -0.3005
58308W        W 1225  15.280  14.119  30.985 -0.0829 -0.1385 -0.0921
58309W        W 1226  15.687  10.552   0.439 -0.2291  0.0327 -0.2115
58310W        W 1227  11.991  18.237  19.002  0.1674  0.0969 -0.0923
58311W        W 1228   9.529  16.803  15.184  0.0864  0.1103  0.1607
58312W        W 1229  12.347  15.861  15.901  0.3602  0.0434 -0.1750
58313W        W 1230  14.444  16.261  14.598 -0.0182  0.0878  0.1975
58314W        W 1231   9.991  15.451  20.678  0.0084 -0.1251 -0.2131
58315W        W 1232  14.321  17.668  15.027  0.0345 -0.1924 -0.1181
58316W        W 1233  10.555  12.537  17.036 -0.2331  0.3063  0.2304
58317W        W 1234  11.680  15.927  17.186  0.0276  0.0950  0.1952
58318W        W 1235  13.297  18.243  15.297 -0.0921  0.1882 -0.0321
58319W        W 1236  11.431  17.028  15.532  0.1360  0.1307 -0.2791
58320W        W 1237  11.918  14.848  18.002 -0.3753 -0.1660 -0.4087
58321W        W 1238  12.194  14.873  15.877  0.1103 -0.3125  0.0105
58322W        W 1239  10.545  14.592  15.858 -0.0247  0.0255 -0.0768
58323W        W 1240  10.507  13.647  15.970 -0.2567  0.0956 -0.1787
58324W        W 1241  12.478  16.954  18.211  0.0113  0.0075 -0.0690
58325W        W 1242  11.140  16.816  16.446 -0.3532  0.1088 -0.2736
58326W        W 1243   9.461  14.056  19.187 -0.1200 -0.3287  0.0906
58327W        W 1244  11.845  16.415  15.418 -0.0278 -0.1345 -0.0141
58328W        W 1245  14.489  20.157  15.545  0.0454  0.0668  0.0015
58329W        W 1246  14.429  13.122  18.219  0.2896  0.4067  0.1751
58330W        W 1247  12.011  13.241  17.133  0.1323  0.0590  0.1184
58331W        W 1248  12.369  17.211  15.508 -0.0176  0.2482 -0.2165
58332W        W 1249  10.556  15.100  14.864 -0.4243  0.1925 -0.0224
58333W        W 1250  11.878  14.558  16.828 -0.2344 -0.0301 -0.2443
58334W        W 1251  11.184  17.148  17.953 -0.0755 -0.0743 -0.1782
58335W        W 1252  13.715  16.031  15.749 -0.1236  0.2100 -0.0817
58336W        W 1253  11.171  18.254  16.275 -0.2185 -0.2738 -0.0892
58337W        W 1254  11.958  17.667  17.884 -0.1910 -0.0549  0.3152
58338W        W 1255  11.547  17.156  17.607  0.4042 -0.1214  0.1883
58339W        W 1256  14.569  14.300  15.426 -0.0153 -0.0175  0.1646
58340W        W 1257   9.926  16.743  18.465  0.2991  0.0901 -0.0100
58341W        W 1258  10.166  19.268  17.822 -0.0907 -0.1692  0.1851
58342W        W 1259  11.362  15.041  16.588 -0.2262 -0.1215 -0.2894
58343W        W 1260  14.771  16.415  16.164 -0.1331  0.1963  0.0795
58344W        W 1261  12.315  18.821  17.607 -0.1092  0.3830  0.0522
58345W        W 1262   8.906  19.234  17.828  0.0275 -0.2487  0.1977
58346W        W 1263  11.917  18.062  15.098  0.0390 -0.4211  0.1042
58347W        W 1264  14.561  19.344  17.731 -0.0496 -0.2684 -0.0261
58348W        W 1265  11.081  17.379  19.651 -0.0666  0.0512 -0.2006
58349W        W 1266  12.544  14.836  17.303 -0.1736  0.1805 -0.1007
58350W        W 1267  12.970  16.934  16.439  0.1206  0.0265 -0.2047
58351W        W 1268  13.192  16.178  15.479 -0.0899 -0.1316 -0.0049
58352W        W 1269   9.901  17.295  19.610  0.1269  0.1177  0.1084
58353W        W 1270  12.076  17.857  19.740 -0.2478 -0.1342  0.1755
58354W        W 1271   9.956  16.655  17.903  0.2537 -0.1361  0.3835
58355W        W 1272  11.771  15.445  19.006 -0.4545  0.0237 -0.1363
58356W        W 1273  12.827  18.781  14.917  0.2944 -0.2164 -0.4907
58357W        W 1274  14.248  15.150  14.669  0.3142  0.2476 -0.1762
58358W        W 1275  12.288  14.400  17.151 -0.3279  0.0348  0.2597
58359W        W 1276  12.913  15.163  14.112  0.1190  0.1386 -0.0977
58360W        W 1277  12.019  12.970  16.179 -0.2748 -0.3566  0.0963
58361W        W 1278  11.241  18.423  17.202  0.1062 -0.1189  0.2687
58362W        W 1279   9.318  13.527  18.885 -0.1138 -0.1876 -0.1263
58363W        W 1280  14.145  18.194  14.954 -0.1716 -0.0062 -0.1750
58364W        W 1281  11.597  15.579  15.166 -0.1023 -0.0739  0.1678
58365W        W 1282  12.901  14.961  18.989  0.1834 -0.1391 -0.2817
58366W        W 1283  11.593  16.880  18.215  0.3957 -0.4030  0.2686
58367W        W 1284  11.004  14.447  17.085 -0.0606  0.1908  0.2913
58368W        W 1285  12.361  17.647  14.523 -0.1585 -0.0053  0.0066
58369W        W 1286  12.880  17.385  15.648  0.1365 -0.1762 -0.3701
58370W        W 1287  13.527  19.086  15.668  0.3088  0.1863 -0.2763
58371W        W 1288  13.362  15.145  16.429  0.0165  0.2773  0.0009
58372W        W 1289  10.568  16.516  19.631  0.2100  0.1763  0.5219
58373W        W 1290  10.675  17.927  18.359  0.1259  0.4009  0.2053
58374W        W 1291  11.675  16.168  14.942 -0.1244 -0.0191  0.1638
58375W        W 1292  11.573  17.876  18.215  0.0489  0.4232  0.3133
58376W        W 1293  11.182  17.806  20.026 -0.0688 -0.0990  0.0835
58377W        W 1294  12.371  16.163  16.401 -0.0823 -0.0382  0.1812
58378W        W 1295  11.729  15.763  15.938  0.1007 -0.1861 -0.0444
58379W        W 1296  12.797  16.058  15.048 -0.0756 -0.0177  0.0044
58380W        W 1297  11.911  16.926  15.323 -0.0506 -0.4979 -0.1194
58381W        W 1298  12.335  13.767  16.661 -0.2062  0.0055  0.2406
58382W        W 1299  14.314  14.068  16.373 -0.1290  0.0721  0.2385
58383W        W 1300  11.676  17.388  14.362  0.1853 -0.0055 -0.1253
58384W        W 1301  11.375  18.162  15.171  0.0215 -0.0215  0.0872
58385W        W 1302  13.167  17.583  18.017 -0.2046  0.1843  0.1889
58386W        W 1303  13.170  15.774  14.421  0.0898  0.0690 -0.2034
58387W        W 1304   9.850  18.494  20.620 -0.0825 -0.2350  0.0934
58388W        W 1305  10.214  16.867  15.962 -0.3299  0.0442 -0.0601
58389W        W 1306  12.495  18.044  17.941  0.1174 -0.1480 -0.0725
58390W        W 1307  10.858  18.122  15.936 -0.5263  0.2582  0.1203
58391W        W 1308  11.849  16.920  17.289 -0.0070 -0.1203  0.6598
58392W        W 1309  11.936  16.507  16.720 -0.1521 -0.1296  0.0654
58393W        W 1310  10.561  12.545  19.013 -0.0935 -0.0155 -0.2536
58394W        W 1311  14.265  14.546  17.258 -0.0282 -0.2082 -0.1222
58395W        W 1312  12.138  15.351  15.087 -0.2644  0.1774 -0.1811
58396W        W 1313  10.339  14.299  20.696  0.1031 -0.1127  0.2744
58397W        W 1314  12.056  14.956  16.386  0.0558  0.1474 -0.0802
58398W        W 1315  10.020  14.637  15.782 -0.1721 -0.2813 -0.2156
58399W        W 1316  13.194  17.970  14.874 -0.2077  0.0626 -0.1746
58400W        W 1317  13.527  15.157  13.617  0.0815  0.1609  0.0725
58401W        W 1318  12.987  19.973  15.391  0.0319 -0.0119  0.3958
58402W        W 1319   9.645  13.986  19.705 -0.2613 -0.2907 -0.2246
58403W        W 1320  10.987  13.726  15.727  0.1218 -0.0166 -0.0011
58404W        W 1321   8.763  14.565  18.962  0.2454  0.0931 -0.1192
58405W        W 1322  10.368  13.184  17.045  0.0033 -0.0479 -0.0501
58406W        W 1323  13.180  16.948  15.931 -0.0128  0.0026 -0.4105
58407W        W 1324  12.135  13.438  14.811  0.1692  0.1192 -0.2353
58408W        W 1325  13.951  14.922  17.252 -0.3630 -0.0090  0.1444
58409W        W 1326  10.266  12.523  16.674 -0.1395  0.1967 -0.1298
58410W        W 1327  10.224  14.957  16.066  0.2779 -0.0871 -0.0523
58411W        W 1328  12.666  14.815  17.844  0.3123 -0.0330 -0.2175
58412W        W 1329  13.924  18.920  15.377 -0.0110  0.3460  0.3470
58413W        W 1330  15.037  18.110  17.592  0.0863  0.0561  0.2666
58414W        W 1331  13.387  15.495  15.277 -0.1027 -0.0717  0.0511
58415W        W 1332  11.598  15.923  20.765  0.3085  0.0068  0.2358
58416W        W 1333   8.844  16.123  17.819 -0.0371  0.2957 -0.0118
58417W        W 1334  10.979  20.026  17.362 -0.0863  0.0394 -0.2464
58418W        W 1335  10.220  15.169  17.430 -0.0438  0.2474  0.1528
58419W        W 1336  11.606  13.903  16.595  0.0931 -0.2424 -0.1564
58420W        W 1337  14.423  15.455  15.504  0.2321 -0.0429  0.1195
58421W        W 1338  14.424  14.259  15.933  0.2655  0.3035 -0.2470
58422W        W 1339  10.789  16.902  16.925 -0.3327 -0.1721  0.1317
58423W        W 1340  13.262  12.521  17.606 -0.1683 -0.0509  0.1796
58424W        W 1341  12.834  16.357  16.350  0.1936  0.0266  0.1559
58425W        W 1342  12.859  15.238  16.354  0.2159  0.2376 -0.3872
58426W        W 1343  10.138  13.131  16.636  0.1511  0.3597  0.2085
58427W        W 1344  10.713  15.791  15.555  0.1397 -0.2088  0.2575
58428W        W 1345  10.252  16.338  15.892 -0.0653  0.0272 -0.3397
58429W        W 1346  10.129  16.323  16.402  0.1572 -0.0015  0.0274
58430W        W 1347  11.652  16.511  14.583 -0.1662  0.0206 -0.0864
58431W        W 1348  15.684  14.921  13.462  0.0602 -0.2948 -0.1553
58432W        W 1349  10.207  15.278  17.934 -0.2972 -0.1168 -0.0238
58433W        W 1350  13.608  13.077  16.773 -0.2521  0.0209 -0.0325
58434W        W 1351   9.822  15.635  16.613 -0.2547 -0.2662 -0.1504
58435W        W 1352   9.097  17.133  18.964  0.1333 -0.1245 -0.0846
58436W        W 1353  12.551  14.814  16.419 -0.3048 -0.0075 -0.0753
58437W        W 1354  12.626  15.249  15.040  0.3589  0.1315 -0.0556
58438W        W 1355  11.929  13.862  18.088  0.1737 -0.0655  0.1744
58439W        W 1356  16.325  16.102  14.624 -0.2131 -0.1495  0.0751
58440W        W 1357  12.704  14.984  15.863 -0.2781 -0.1772  0.0164
58441W        W 1358  11.994  15.765  15.498 -0.0437  0.0220  0.1508
58442W        W 1359  11.486  16.228  18.689  0.1383 -0.0631  0.0019
58443W        W 1360  11.104  16.391  16.753 -0.0754 -0.2702  0.1358
58444W        W 1361  12.472  15.647  15.266 -0.2795 -0.0262 -0.0475
58445W        W 1362  12.676  15.449  14.455 -0.1633  0.1254  0.2324
58446W        W 1363  11.781  18.549  17.028 -0.0200  0.0754 -0.0249
58447W        W 1364  12.257  16.699  17.091 -0.4463 -0.1375 -0.4669
58448W        W 1365  12.364  14.363  16.635 -0.1098 -0.2208  0.4166
58449W        W 1366  12.320  16.686  14.482  0.2066 -0.3095  0.2602
58450W        W 1367  12.381  15.403  15.677  0.1210 -0.2741 -0.1890
58451W        W 1368   9.486  16.589  16.444  0.0277  0.1437 -0.3620
58452W        W 1369  10.552  12.236  18.613  0.1147  0.1058  0.4681
58453W        W 1370  11.999  17.576  15.216  0.2661 -0.6298  0.1638
58454W        W 1371  14.368  15.078  16.572 -0.0911  0.1870  0.3090
58455W        W 1372  12.740  15.936  15.567 -0.1831 -0.3804  0.0591
58456W        W 1373  11.915  13.447  16.027 -0.1466  0.0879  0.2739
58457W        W 1374  11.766  16.758  18.714  0.1273 -0.1715 -0.1222
58458W        W 1375  13.888  14.516  15.631 -0.0406 -0.0053 -0.2289
58459W        W 1376  13.542  14.516  16.978  0.0459 -0.0775  0.1575
58460W        W 1377  10.713  16.676  15.848  0.0632 -0.0303  0.0729
58461W        W 1378  12.310  12.810  18.310  0.2077  0.3194  0.0157
58462W        W 1379   9.916  17.943  18.135  0.0942 -0.0559 -0.0962
58463W        W 1380  10.713  17.908  17.779 -0.0843  0.1501 -0.0602
58464W        W 1381  11.964  17.069  17.934  0.0658  0.2972  0.0480
58465W        W 1382  15.149  17.156  14.195  0.0333  0.3200  0.3165
58466W        W 1383  12.978  15.627  14.854  0.1273  0.1456  0.0700
58467W        W 1384  12.783  16.544  14.381  0.2074  0.0795  0.0487
58468W        W 1385   9.692  16.040  18.259  0.1541  0.3829  0.1889
58469W        W 1386  10.486  17.338  15.957  0.4158 -0.2326  0.0058
58470W        W 1387  11.350  15.458  17.003 -0.0093  0.0100 -0.0685
58471W        W 1388  10.594  18.189  16.985 -0.1742 -0.0623  0.1007
58472W        W 1389  12.120  17.876  15.589  0.1848 -0.2939  0.2615
58473W        W 1390  11.729  15.375  16.387  0.4046  0.0300 -0.1521
58474W        W 1391  11.926  19.666  17.820 -0.0337 -0.0175 -0.1018
58475W        W 1392  12.769  15.112  16.850  0.0096  0.2070  0.0876
58476W        W 1393  12.826  17.476  16.582  0.2473 -0.1074  0.0494
58477W        W 1394  10.485  15.795  16.889  0.3496 -0.2558  0.2114
58478W        W 1395   9.856  15.385  16.160  0.3291 -0.0959 -0.8083
58479W        W 1396  12.308  14.924  14.843  0.2932  0.0933  0.0899
58480W        W 1397  12.423  15.663  14.783 -0.3144  0.2443 -0.0118
58481W        W 1398  10.288  13.191  18.558  0.0146 -0.1764 -0.1708
58482W        W 1399  11.977  14.872  17.248  0.1564 -0.1709  0.1829
58483W        W 1400   9.427  16.270  17.048 -0.1634  0.1648 -0.0547
58484W        W 1401  13.723  14.010  16.119  0.0464 -0.4028 -0.0065
58485W        W 1402  13.129  12.529  15.034  0.1042 -0.1857  0.1566
58486W        W 1403  12.507  17.083  16.621 -0.1734  0.2397 -0.0921
58487W        W 1404  11.181  15.880  16.834  0.0354  0.0388  0.0398
58488W        W 1405   9.984  14.569  16.341 -0.0617 -0.2433  0.0384
58489W        W 1406  14.444  15.491  14.968  0.1770  0.0181  0.0661
58490W        W 1407  12.745  16.469  15.376  0.1849 -0.1121 -0.1713
58491W        W 1408  11.483  17.040  16.168  0.0350 -0.0868  0.2344
58492W        W 1409  11.975  16.263  15.918  0.0083  0.0366 -0.0335
58493W        W 1410   9.483  17.545  16.834 -0.1567  0.0793  0.2693
58494W        W 1411  10.629  16.242  19.160  0.0440  0.0808  0.3440
58495W        W 1412  10.727  16.123  18.323  0.3047 -0.2204  0.0327
58496W        W 1413  13.804  16.640  16.619 -0.1518  0.2392 -0.1410
58497W        W 1414  10.860  15.881  16.450  0.0410  0.0097 -0.3036
58498W        W 1415   8.744  15.513  18.024 -0.0913 -0.0340  0.1476
58499W        W 1416  12.293  14.829  16.869 -0.0578 -0.0035 -0.1265
58500W        W 1417  11.981  18.317  16.663 -0.1477  0.3585  0.2508
58501W        W 1418  11.770  15.802  18.253 -0.0664  0.1385 -0.4147
58502W        W 1419  10.721  16.140  17.120 -0.0853 -0.0119 -0.2599
58503W        W 1420  13.070  12.619  16.052  0.1505 -0.0123 -0.1428
58504W        W 1421  12.528  18.217  15.396  0.1976 -0.2556 -0.1790
58505W        W 1422   9.487  15.637  17.147  0.1228 -0.2048 -0.4332
58506W        W 1423  11.017  16.216  15.713 -0.2130  0.2440 -0.1189
58507W        W 1424   9.429  15.796  18.594  0.0934  0.1343 -0.2481
58508W        W 1425  11.823  16.176  16.373 -0.0643 -0.0289  0.0545
58509W        W 1426  14.975  12.345  15.295  0.2155  0.1463  0.0930
58510W        W 1427  13.295  16.558  16.329  0.0743 -0.1895  0.1119
58511W        W 1428  13.345  18.178  15.935 -0.0125  0.2844  0.0306
58512W        W 1429  10.130  16.276  19.007  0.0793  0.0004 -0.0470
58513W        W 1430  14.402  13.463  15.466  0.1424  0.3940  0.3770
58514W        W 1431  13.477  18.500  14.329  0.0494  0.0952 -0.1106
58515W        W 1432  12.328  14.443  16.115 -0.2569 -0.1683  0.0104
58516W        W 1433  14.499  13.746  17.695  0.0968 -0.1107 -0.0318
58517W        W 1434  13.937  18.542  13.914 -0.0505  0.2856  0.1564
58518W        W 1435  11.905  15.196  18.393 -0.1254  0.0493 -0.1197
58519W        W 1436  10.752  13.808  18.659  0.2551 -0.1911  0.0595
58520W        W 1437  13.386  15.346  14.056  0.0140 -0.0506  0.2649
58521W        W 1438  10.534  14.138  18.057  0.0681  0.0166 -0.0524
58522W        W 1439  12.307  18.298  19.610  0.3526  0.4328  0.0145
58523W        W 1440  12.210  15.579  19.596  0.0827 -0.1189  0.0133
58524W        W 1441  10.974  13.627  16.314 -0.0412 -0.3417  0.3136
58525W        W 1442  12.685  14.078  15.986  0.2364  0.0208  0.1211
58526W        W 1443  12.830  14.438  16.370  0.1220  0.1795 -0.1622
58527W        W 1444  11.943  17.370  15.680  0.2151  0.0013 -0.3219
58528W        W 1445  11.872  17.396  16.176  0.0891 -0.0952  0.0306
58529W        W 1446  11.878  15.128  15.524 -0.2251  0.2063  0.0013
58530W        W 1447  11.249  16.321  18.159  0.1387  0.0999 -0.1313
58531W        W 1448  13.152  17.511  15.110  0.3815 -0.0538  0.1533
58532W        W 1449  12.373  16.775  15.256 -0.0699 -0.1561  0.1880
58533W        W 1450  11.382  17.500  15.836 -0.0192  0.3096  0.3386
58534W        W 1451  12.007  16.146  17.803 -0.1738  0.3548  0.0904
58535W        W 1452  13.139  15.998  16.651 -0.1394  0.0733 -0.2613
58536W        W 1453  12.588  16.500  14.839  0.0072  0.1038  0.1611
58537W        W 1454  13.276  13.597  18.727 -0.0543 -0.1094  0.1247
58538W        W 1455  14.853  13.266  16.285 -0.2494  0.2074 -0.0460
58539W        W 1456  11.174  15.402  17.561  0.2098 -0.0021 -0.3197
58540W        W 1457   9.697  13.891  18.184  0.2219 -0.2191 -0.1019
58541W        W 1458  12.644  15.723  16.340 -0.1123 -0.0400 -0.1431
58542W        W 1459  13.448  14.949  15.502 -0.1635  0.1352 -0.0889
58543W        W 1460  15.740  14.315  17.453  0.1425  0.2366  0.2189
58544W        W 1461  12.002  16.515  14.903  0.1141  0.1478  0.1287
58545W        W 1462  11.598  14.830  17.557  0.1243 -0.2250 -0.0540
58546W        W 1463   9.182  14.620  19.174  0.0681  0.0730 -0.0357
58547W        W 1464  13.219  16.855  18.012 -0.1067 -0.0172  0.0130
58548W        W 1465  10.881  15.284  15.250  0.1851 -0.0708 -0.1667
58549W        W 1466  15.558  13.791  16.908 -0.0248  0.2306  0.1056
58550W        W 1467  13.628  18.851  14.781  0.1243 -0.0324  0.0146
58551W        W 1468  12.409  13.705  18.096  0.2605  0.0232  0.1786
58552W        W 1469  12.996  14.572  14.921 -0.0489  0.1086  0.2959
58553W        W 1470   9.573  14.464  18.870 -0.1837  0.0713  0.3370
58554W        W 1471   9.113  15.800  19.483 -0.2167 -0.1337  0.2862
58555W        W 1472  11.399  14.490  16.619  0.3554  0.5163  0.2432
58556W        W 1473  10.365  18.154  17.532 -0.0191  0.3813 -0.0194
58557W        W 1474  11.737  16.293  18.213  0.1752  0.0688 -0.1398
58558W        W 1475  14.852  14.631  17.046  0.1232 -0.1705 -0.0620
58559W        W 1476  12.828  14.764  15.340 -0.2785  0.0833  0.0081
58560W        W 1477  10.430  14.765  20.580  0.1308 -0.2257 -0.0261
58561W        W 1478  12.203  17.970  16.238 -0.0852  0.3669  0.1046
58562W        W 1479  12.626  13.858  17.515 -0.0072 -0.2070  0.0794
58563W        W 1480   9.558  19.321  19.227  0.0424 -0.0028  0.2777
58564W        W 1481   8.152  16.541  19.024 -0.0164 -0.4136 -0.1648
58565W        W 1482  12.382  18.401  14.908 -0.0926  0.2347  0.0249
58566W        W 1483  12.801  13.851  16.483 -0.1180 -0.1750 -0.2349
58567W        W 1484  14.024  15.274  17.650 -0.3832  0.1920 -0.2774
58568W        W 1485  10.912  16.864  15.435 -0.0113  0.1247  0.1271
58569W        W 1486  14.427  14.477  16.710 -0.3366 -0.1294  0.0064
58570W        W 1487  11.212  15.881  18.395  0.3461 -0.1517 -0.2600
58571W        W 1488  11.454  17.664  17.708 -0.1406 -0.3371 -0.1431
58572W        W 1489  12.492  17.652  16.958 -0.5946  0.0515 -0.0278
58573W        W 1490  14.335  16.436  16.449  0.3264  0.0270  0.3180
58574W        W 1491  10.121  18.793  17.633 -0.1543  0.3255  0.2216
58575W        W 1492   8.347  16.243  17.964 -0.2399  0.1239 -0.3636
58576W        W 1493  11.087  13.982  17.339 -0.7627 -0.2002  0.1119
58577W        W 1494  13.980  17.096  15.414  0.0712 -0.0600 -0.0986
58578W        W 1495  10.936  16.157  15.238 -0.2298 -0.1369 -0.1587
58579W        W 1496   9.668  16.977  16.204 -0.0389  0.2754 -0.1627
58580W        W 1497  10.203  18.450  20.263  0.2764  0.0652 -0.0469
58581W        W 1498  11.008  18.226  18.157  0.4268  0.0265  0.0171
58582W        W 1499  12.351  17.856  15.019  0.5387 -0.2990  0.3078
58583W        W 1500  12.272  16.061  15.060 -0.0160 -0.1638  0.0870
58584W        W 1501  13.367  17.130  14.900  0.0067  0.1214  0.0575
58585W        W 1502  10.839  15.456  16.680  0.0834  0.0661 -0.2316
58586W        W 1503  11.267  16.506  15.420  0.2008 -0.4694 -0.2827
58587W        W 1504  10.910  18.084  17.368  0.2747 -0.0917  0.2299
58588W        W 1505  11.406  18.515  15.942  0.2283 -0.2142  0.0579
58589W        W 1506  14.073  18.519  15.838  0.3776 -0.3293  0.3578
58590W        W 1507  10.382  16.599  18.339  0.0900  0.2465  0.3318
58591W        W 1508  10.662  16.672  17.873 -0.0849 -0.1242 -0.3926
58592W        W 1509  13.408  15.706  13.701 -0.0885  0.0028 -0.3342
58593W        W 1510  14.353  16.625  14.265  0.0849 -0.3092  0.0211
58594W        W 1511  13.179  15.238  14.519  0.0615  0.3580  0.1327
58595W        W 1512  12.298  15.980  17.155  0.0426 -0.2238  0.1626
58596W        W 1513  10.618  15.779  17.903  0.1416  0.2061 -0.1204
58597W        W 1514  10.297  15.427  15.387 -0.2029  0.3874  0.0167
58598W        W 1515  10.062  16.549  19.853  0.3008  0.1513  0.0096
58599W        W 1516  12.268  14.115  17.899 -0.0747  0.0664 -0.0651
58600W        W 1517   8.923  16.922  21.206  0.1040  0.0377  0.1525
58601W        W 1518  12.792  17.508  14.705  0.3367  0.1349  0.0267
58602W        W 1519  10.807  14.048  16.111  0.1629 -0.2316  0.0242
58603W        W 1520  13.681  14.920  15.958  0.1359  0.0935 -0.1201
58604W        W 1521  13.269  11.987  16.490 -0.1748  0.2342 -0.2165
58605W        W 1522  13.548  16.828  13.798  0.0725 -0.1777  0.0517
58606W        W 1523  11.397  14.810  17.031  0.1606 -0.0229 -0.0305
58607W        W 1524  10.210  18.432  17.131 -0.0598  0.0165 -0.0195
58608W        W 1525  10.999  16.780  18.299 -0.3062 -0.4151 -0.0150
58609W        W 1526  13.573  17.756  18.280 -0.3539 -0.1911  0.2043
58610W        W 1527  12.689  17.956  16.327  0.2884 -0.1278  0.1658
58611W        W 1528  14.787  15.811  13.714  0.0034 -0.1193 -0.1061
58612W        W 1529   9.943  14.402  18.004 -0.1808  0.0803  0.3489
58613W        W 1530  13.272  15.753  15.739 -0.0781 -0.0782 -0.1249
58614W        W 1531  10.455  15.334  17.038 -0.1648 -0.0273  0.1197
58615W        W 1532  12.584  17.710  15.462 -0.0549  0.3222 -0.1001
58616W        W 1533  12.238  14.615  17.694 -0.0901  0.1251 -0.0163
58617W        W 1534  10.941  14.781  16.718 -0.2460 -0.2949 -0.0315
58618W        W 1535  11.498  17.208  17.069 -0.0293 -0.1541 -0.1781
58619W        W 1536  12.607  14.213  18.521  0.3022 -0.1259  0.0693
58620W        W 1537  12.559  18.082  14.124  0.2499 -0.1257  0.1795
58621W        W 1538  11.032  19.348  17.520 -0.4657 -0.4989  0.0887
58622W        W 1539  12.354  15.262  17.135 -0.1427  0.1442  0.1337
58623W        W 1540  13.783  17.259  13.858 -0.0287 -0.2479  0.1412
58624W        W 1541  11.444  15.440  18.476  0.1279  0.2294 -0.1911
58625W        W 1542  11.263  15.885  17.391  0.3553 -0.3656 -0.1975
58626W        W 1543  14.439  15.955  18.016 -0.0398 -0.1125 -0.1738
58627W        W 1544  12.713  12.810  15.088  0.1202 -0.3066 -0.0640
58628W        W 1545  13.632  17.108  15.786  0.1612 -0.2074  0.1746
58629W        W 1546  13.490  16.058  14.153 -0.0473  0.2380  0.1309
58630W        W 1547   9.888  18.775  17.169  0.1199 -0.4026  0.0323
58631W        W 1548  12.140  15.679  16.318 -0.1713 -0.3144 -0.0269
58632W        W 1549  11.097  17.132  17.377 -0.3237 -0.0260 -0.1418
58633W        W 1550  10.331  11.728  16.797 -0.0265  0.1406  0.0324
58634W        W 1551  10.355  15.345  16.423  0.0909  0.1900 -0.0672
58635W        W 1552  13.007  16.499  15.887 -0.1422  0.2331  0.0995
58636W        W 1553  14.015  16.531  14.609  0.3375 -0.1460  0.2276
58637W        W 1554  12.726  14.559  16.917 -0.1125  0.1004  0.0447
58638W        W 1555   8.997  17.746  16.805 -0.2680  0.2517  0.3046
58639W        W 1556  13.216  14.128  16.309 -0.1405 -0.0576 -0.1950
58640W        W 1557  12.067  14.070  17.492 -0.1600 -0.1000  0.1305
58641W        W 1558  12.391  18.421  16.312 -0.0453  0.0362 -0.3633
58642W        W 1559  10.400  14.721  17.295 -0.0354 -0.0074 -0.1383
58643W        W 1560  13.165  20.953  15.469  0.1688  0.1285  0.0288
58644W        W 1561  12.866  19.251  17.521 -0.3247  0.0225  0.2431
58645W        W 1562  11.366  14.117  15.670 -0.1725 -0.2608  0.1833
58646W        W 1563  12.743  17.227  16.096  0.0630  0.2589 -0.4097
58647W        W 1564  11.373  15.403  14.742 -0.1859 -0.1789  0.1242
58648W        W 1565  13.190  19.525  15.550 -0.1926 -0.0321  0.2487
58649W        W 1566  13.157  16.823  14.575 -0.3504  0.2160  0.0560
58650W        W 1567  11.902  16.369  17.339  0.2548 -0.2671  0.0418
58651W        W 1568  15.090  16.785  15.787  0.1177 -0.0744  0.2823
58652W        W 1569  11.160  13.480  17.195 -0.2017  0.1647 -0.1953
58653W        W 1570  13.196  14.194  14.650  0.1898 -0.2736 -0.0040
58654W        W 1571  11.507  16.231  15.810  0.3466 -0.0351  0.1035
58655W        W 1572  12.817  16.044  18.179 -0.1031 -0.1735 -0.1408
58656W        W 1573   8.973  16.827  15.721  0.2110 -0.2017 -0.1872
58657W        W 1574  11.413  18.544  16.562  0.0670 -0.3182  0.1355
58658W        W 1575  10.054  14.957  18.328  0.2711  0.1899  0.0508
58659W        W 1576  13.066  14.768  16.645 -0.2081 -0.5101  0.0453
58660W        W 1577   9.724  14.621  19.301 -0.2832 -0.1572  0.0388
58661W        W 1578  10.566  13.876  17.672  0.1127  0.0392  0.2194
58662W        W 1579   9.554  14.928  18.327  0.2145 -0.1445 -0.0667
58663W        W 1580  12.157  18.880  15.041 -0.0076 -0.0147  0.2187
58664W        W 1581   8.859  14.154  17.149 -0.1203 -0.0836 -0.0447
58665W        W 1582  10.872  13.088  17.117 -0.4592  0.2001 -0.0058
58666W        W 1583  13.491  17.539  14.692  0.2143 -0.0305 -0.1204
58667W        W 1584  11.468  16.740  16.898  0.1574 -0.1786 -0.1344
58668W        W 1585   8.800  14.031  19.856  0.0816  0.2222 -0.2469
58669W        W 1586  14.497  17.567  16.289  0.0637 -0.0262 -0.1779
58670W        W 1587  11.032  17.868  15.502 -0.1226 -0.1867  0.5094
58671W        W 1588  11.784  14.337  17.806 -0.1222 -0.0989 -0.1876
58672W        W 1589  10.973  12.084  19.290  0.1498 -0.1452  0.0726
58673W        W 1590  11.218  15.917  14.825 -0.0053 -0.2367 -0.1125
58674W        W 1591  12.779  15.186  19.532  0.1168 -0.0052  0.0387
58675W        W 1592  12.968  17.778  14.339 -0.0899 -0.1523  0.1298
58676W        W 1593  14.131  19.881  15.728 -0.0623 -0.1024 -0.3219
58677W        W 1594  10.270  17.117  17.936 -0.2690  0.1813  0.0137
58678W        W 1595  12.274  17.115  15.996  0.2227 -0.1725 -0.2840
58679W        W 1596  11.896  14.045  15.512  0.0025 -0.1896  0.1405
58680W        W 1597  12.457  16.594  16.662  0.0478  0.1316 -0.0752
58681W        W 1598  12.144  16.587  18.123 -0.0306 -0.1082  0.1414
58682W        W 1599  13.627  17.852  15.129 -0.2200  0.1374  0.1523
58683W        W 1600  15.031  13.176  18.179 -0.6090  0.0994 -0.3374
58684W        W 1601  13.743  15.538  15.626 -0.0978 -0.0614  0.0310
58685W        W 1602   9.712  14.498  17.277  0.0199  0.2678 -0.2091
58686W        W 1603   9.902  17.587  19.204 -0.0728  0.3052 -0.1303
58687W        W 1604  14.112  17.764  17.311 -0.0055 -0.2569 -0.0360
58688W        W 1605  12.262  13.751  17.160 -0.0133  0.2337  0.0252
58689W        W 1606  13.511  15.507  14.815 -0.1296 -0.1558  0.2343
58690W        W 1607  11.661  19.081  16.728 -0.0629 -0.2836  0.3346
58691W        W 1608  13.541  15.010  16.890 -0.1176 -0.0219 -0.2639
58692W        W 1609  11.943  15.736  14.902  0.0744  0.2827  0.5300
58693W        W 1610  13.559  16.432  18.032 -0.1934 -0.0331 -0.2173
58694W        W 1611  11.862  16.880  15.854 -0.1523 -0.3894 -0.0384
58695W        W 1612  14.049  16.090  14.915  0.1521  0.1721 -0.1063
58696W        W 1613  11.806  17.856  15.964  0.0356  0.1377  0.0689
58697W        W 1614  14.163  17.004  14.593 -0.2723  0.0902 -0.2391
58698W        W 1615  12.428  17.578  15.912  0.0946 -0.1730 -0.2172
58699W        W 1616  12.296  17.830  17.507  0.0616  0.3934 -0.2289
58700W        W 1617  12.986  18.389  16.931  0.0330  0.2015 -0.0184
58701W        W 1618  13.430  15.828  17.081 -0.1847  0.3339  0.3884
58702W        W 1619  11.228  12.945  17.579 -0.1710 -0.1053 -0.0966
58703W        W 1620  10.530  14.420  16.791 -0.3489  0.2608  0.2429
58704W        W 1621  13.329  16.032  14.975  0.2377 -0.0153  0.0588
58705W        W 1622  12.000  15.560  16.997  0.1317  0.0916  0.0015
58706W        W 1623  11.639  13.736  17.158 -0.2618 -0.0467  0.0611
58707W        W 1624  11.273  15.583  16.320  0.3580  0.2892  0.0243
58708W        W 1625  10.391  17.681  19.447  0.0919 -0.0444 -0.1796
58709W        W 1626  11.376  14.659  18.058 -0.2489  0.0907 -0.2624
58710W        W 1627  12.030  16.586  20.557  0.4788 -0.1307 -0.3378
58711W        W 1628   9.848  13.808  20.683  0.3634  0.1153 -0.0266
58712W        W 1629  12.984  15.718  17.814  0.2693 -0.0224  0.0147
58713W        W 1630  12.195  16.679  17.595 -0.1815 -0.2839  0.1998
58714W        W 1631  10.696  17.583  21.168 -0.2849 -0.2440 -0.0390
58715W        W 1632  10.663  16.758  19.272  0.0940 -0.0046 -0.1514
58716W        W 1633  12.824  15.385  20.931 -0.2060 -0.2789  0.0463
58717W        W 1634  12.385  16.024  19.361 -0.3850 -0.0766  0.4039
58718W        W 1635  14.306  18.038  17.698  0.0851 -0.1755  0.3690
58719W        W 1636  12.295  15.533  19.097  0.1653 -0.0276  0.0791
58720W        W 1637  13.362  15.141  21.696 -0.3589  0.1697 -0.2334
58721W        W 1638  11.554  16.904  20.634  0.1905 -0.0151  0.0097
58722W        W 1639  12.620  12.489  17.937 -0.1412 -0.0778 -0.1376
58723W        W 1640  11.022  12.651  23.558 -0.2781  0.2236  0.1101
58724W        W 1641  11.981  15.962  19.022 -0.0069 -0.2257  0.2177
58725W        W 1642   9.595  17.612  20.527 -0.1323  0.0542 -0.0487
58726W        W 1643  10.549  16.527  22.189  0.0029  0.1929 -0.1756
58727W        W 1644  10.865  14.156  19.177  0.0609 -0.3432  0.2313
58728W        W 1645  12.304  17.910  19.309  0.1414  0.1430  0.1501
58729W        W 1646  13.639  15.793  22.459  0.1202 -0.2768  0.0128
58730W        W 1647  12.647  13.979  22.247  0.0913 -0.0875  0.2290
58731W        W 1648  10.327  16.208  20.462  0.2334 -0.1090 -0.5234
58732W        W 1649  10.932  15.064  19.761  0.2739 -0.0411  0.0107
58733W        W 1650  10.885  17.288  22.238 -0.0049 -0.3102  0.3417
58734W        W 1651  11.194  16.291  22.401 -0.1736 -0.0603  0.0273
58735W        W 1652  10.618  14.377  20.324  0.1786 -0.1302 -0.1175
58736W        W 1653  12.655  16.902  15.718 -0.2851  0.2327  0.1191
58737W        W 1654  10.773  16.288  20.376  0.0063  0.1839  0.0521
58738W        W 1655  13.166  19.053  20.652  0.0519 -0.5032  0.0031
58739W        W 1656  12.323  14.007  20.298 -0.0984 -0.0269 -0.0745
58740W        W 1657  10.973  16.623  19.965  0.0305  0.3575  0.0813
58741W        W 1658  10.323  18.328  23.300  0.0988  0.3402  0.0888
58742W        W 1659  11.461  18.530  21.969  0.0128  0.0447  0.0526
58743W        W 1660  12.405  15.241  16.205  0.0052  0.1971  0.0601
58744W        W 1661  12.320  16.775  18.726  0.1092  0.0439 -0.0479
58745W        W 1662  12.062  16.412  21.076  0.2037  0.0773  0.1700
58746W        W 1663   9.363  16.271  19.150 -0.0739 -0.0538  0.0653
58747W        W 1664  12.449  17.843  21.684  0.0403 -0.1098  0.2634
58748W        W 1665  10.976  18.549  23.615  0.1790  0.1742 -0.2684
58749W        W 1666  11.262  13.877  21.324  0.0550 -0.0788 -0.1184
58750W        W 1667  11.015  16.764  22.256  0.0419 -0.1880 -0.1205
58751W        W 1668   9.225  17.288  20.328  0.2951 -0.2748  0.2551
58752W        W 1669   9.939  16.978  20.085  0.0366  0.1870 -0.3055
58753W        W 1670  12.604  16.197  21.146  0.1684  0.0474 -0.0234
58754W        W 1671  11.869  16.276  19.461 -0.0559  0.0150  0.0512
58755W        W 1672  13.804  13.775  19.925 -0.0425 -0.0276 -0.0562
58756W        W 1673  11.314  17.638  19.025 -0.2245 -0.0508 -0.0923
58757W        W 1674  10.694  15.314  17.675  0.0791  0.0661 -0.1582
58758W        W 1675  10.634  13.538  17.285  0.0470 -0.0006  0.2747
58759W        W 1676  13.070  14.107  18.498 -0.2686 -0.0812  0.3714
58760W        W 1677  12.268  16.390  22.564 -0.1281  0.0752 -0.3381
58761W        W 1678  10.786  20.664  21.643  0.3517  0.0703  0.1488
58762W        W 1679  12.095  14.373  21.472  0.4568 -0.2439 -0.2467
58763W        W 1680  10.676  14.031  19.613 -0.0119  0.3396 -0.0456
58764W        W 1681  11.868  16.012  19.916  0.1362 -0.0650 -0.2754
58765W        W 1682  11.854  19.246  20.569  0.2787  0.3357 -0.1859
58766W        W 1683  11.951  17.038  21.488 -0.2447 -0.4150  0.1743
58767W        W 1684  11.677  19.275  18.359  0.0804  0.1817  0.3605
58768W        W 1685  13.878  16.962  18.403 -0.0697  0.1747  0.0342
58769W        W 1686  14.033  16.271  16.820 -0.3153 -0.1091  0.1730
58770W        W 1687   9.701  14.977  20.219 -0.0178 -0.4262 -0.2501
58771W        W 1688  12.489  15.935  22.455 -0.1314  0.2744  0.2475
58772W        W 1689  10.852  16.227  21.991  0.2269  0.1074  0.0935
58773W        W 1690  10.131  14.997  19.153 -0.1115 -0.0368 -0.3158
58774W        W 1691  10.082  17.800  22.330 -0.1774 -0.3772 -0.0510
58775W        W 1692  11.455  15.175  20.146 -0.1599  0.0474 -0.2643
58776W        W 1693  10.822  14.614  18.054  0.1491 -0.4631  0.3080
58777W        W 1694  12.015  17.590  18.376 -0.0107  0.0436 -0.2511
58778W        W 1695  12.929  16.150  18.690 -0.1537  0.1052  0.0585
58779W        W 1696  11.960  14.769  20.064 -0.0768 -0.0221 -0.0669
58780W        W 1697  13.442  14.685  21.023  0.0922  0.0196 -0.1556
58781W        W 1698  11.828  17.340  18.894  0.1443  0.0095  0.0572
58782W        W 1699  11.104  15.811  17.885  0.1135 -0.2115  0.0528
58783W        W 1700  12.350  18.183  20.086 -0.0436 -0.2675  0.1363
58784W        W 1701  11.258  14.031  18.737 -0.0423  0.1287 -0.0867
58785W        W 1702  11.235  16.501  20.553 -0.2533 -0.1878 -0.4323
58786W        W 1703  12.313  14.347  23.057  0.1996 -0.1516 -0.2282
58787W        W 1704  12.849  15.276  20.373  0.1682 -0.6168 -0.0235
58788W        W 1705  11.745  15.677  19.451  0.0648 -0.0693 -0.0252
58789W        W 1706  11.290  17.812  19.496  0.1136 -0.3048 -0.0413
58790W        W 1707   9.487  17.976  20.063 -0.2232 -0.1291  0.0428
58791W        W 1708  10.615  13.653  22.377  0.0539  0.2620 -0.1591
58792W        W 1709  11.070  16.952  20.420 -0.0957 -0.0934 -0.2822
58793W        W 1710  10.928  12.660  19.375  0.3093  0.1039  0.3095
58794W        W 1711  11.047  15.498  23.612  0.0091 -0.0364 -0.0741
58795W        W 1712  12.563  14.355  21.627 -0.0273 -0.0758 -0.2157
58796W        W 1713  10.293  15.815  19.226 -0.1911  0.1161 -0.1143
58797W        W 1714  12.538  20.251  16.941 -0.0739  0.1082 -0.1743
58798W        W 1715  12.529  15.949  17.653  0.0350 -0.2788  0.0729
58799W        W 1716  11.551  16.263  16.785 -0.4327  0.0706 -0.1590
58800W        W 1717  10.646  17.082  20.920 -0.1065 -0.0666  0.2847
58801W        W 1718  11.460  13.281  20.000 -0.0843 -0.0186 -0.1166
58802W        W 1719  11.428  12.673  23.240  0.0043  0.2464 -0.2347
58803W        W 1720  11.978  15.549  20.768  0.0463 -0.0574 -0.3256
58804W        W 1721  11.473  15.257  17.955  0.0098 -0.0851 -0.3353
58805W        W 1722  10.241  14.893  21.102  0.0285  0.3237  0.1644
58806W        W 1723  11.237  16.045  21.571 -0.2666 -0.0464 -0.0267
58807W        W 1724  13.158  14.589  18.385 -0.1282 -0.1923 -0.1222
58808W        W 1725  10.359  16.064  21.954  0.0629  0.0990 -0.3018
58809W        W 1726  13.937  14.912  21.072 -0.1368 -0.0844  0.0241
58810W        W 1727  12.107  19.773  16.317  0.1334  0.0035 -0.0900
58811W        W 1728  13.213  17.598  19.619  0.1236 -0.1712 -0.0075
58812W        W 1729  11.436  18.302  20.715 -0.0012  0.2259  0.1804
58813W        W 1730  11.563  15.868  22.346 -0.0758  0.0821 -0.0778
58814W        W 1731   8.053  16.051  18.993 -0.0725  0.0355  0.0450
58815W        W 1732  11.115  18.671  20.882 -0.0996  0.0074  0.0815
58816W        W 1733  12.013  17.664  20.239 -0.0889  0.2437  0.1452
58817W        W 1734  10.587  14.405  21.138 -0.0105  0.1185 -0.0545
58818W        W 1735  14.514  17.856  16.929 -0.1551 -0.3696 -0.0023
58819W        W 1736  11.806  18.742  18.332  0.2707  0.2470 -0.0292
58820W        W 1737  10.908  16.973  21.319 -0.0162  0.3828 -0.0406
58821W        W 1738  13.028  15.681  18.598 -0.0280 -0.0688 -0.1971
58822W        W 1739  14.292  16.143  18.431  0.0381  0.0105 -0.3141
58823W        W 1740  12.786  14.036  19.398 -0.1032  0.0567 -0.1395
58824W        W 1741  10.149  15.239  20.161  0.2786 -0.1324 -0.0664
58825W        W 1742  12.839  15.425  17.261  0.4335  0.1445  0.3069
58826W        W 1743  12.005  18.512  20.869 -0.2055  0.0524  0.1486
58827W        W 1744  10.435  18.898  18.746  0.1515 -0.3237  0.2244
58828W        W 1745  10.109  16.162  18.493  0.0714 -0.1994 -0.1937
58829W        W 1746  12.397  14.701  21.200  0.0031  0.0114  0.0872
58830W        W 1747  11.098  16.692  22.725 -0.2589 -0.0307 -0.1927
58831W        W 1748  12.960  15.409  23.106 -0.0320 -0.2240  0.3623
58832W        W 1749  11.070  17.040  21.765 -0.1028  0.0524  0.1034
58833W        W 1750  11.369  20.624  22.860  0.2040  0.2043 -0.3818
58834W        W 1751  12.254  12.140  17.726  0.0419  0.0270 -0.3166
58835W        W 1752  11.013  14.269  19.914  0.3198  0.3227 -0.0034
58836W        W 1753  10.800  15.065  22.480  0.1188  0.2635  0.2319
58837W        W 1754  11.097  14.905  17.681 -0.0515  0.2567 -0.1065
58838W        W 1755  13.186  13.747  17.722  0.0160 -0.3672  0.2341
58839W        W 1756  14.038  15.751  16.890  0.0103  0.3264  0.0542
58840W        W 1757  11.178  17.104  23.018  0.1012  0.0831  0.0451
58841W        W 1758  10.932  14.629  19.076  0.2376 -0.0335 -0.2993
58842W        W 1759  10.188  15.760  18.192 -0.0113 -0.0677 -0.0202
58843W        W 1760  10.814  14.813  20.177 -0.0948 -0.1634 -0.0654
58844W        W 1761  13.280  17.371  16.321  0.2191  0.3128  0.2046
58845W        W 1762  11.024  17.440  20.289  0.3324  0.2337  0.0724
58846W        W 1763  11.958  15.231  20.321  0.0256 -0.1449  0.0521
58847W        W 1764  12.005  18.195  18.400 -0.2888 -0.1472  0.1908
58848W        W 1765  12.330  13.894  21.569 -0.0231 -0.2008  0.0517
58849W        W 1766  11.185  14.021  19.530  0.1183  0.0758 -0.0519
58850W        W 1767  11.596  14.412  22.502 -0.0432  0.0117  0.1560
58851W        W 1768   9.085  17.786  19.684  0.3684 -0.3699 -0.4117
58852W        W 1769  11.041  13.602  19.884 -0.0622  0.1470 -0.2935
58853W        W 1770  12.840  15.450  22.330  0.1770  0.1638  0.1739
58854W        W 1771  11.652  14.368  23.399 -0.0348 -0.2093 -0.0557
58855W        W 1772  11.706  15.152  20.975  0.1588 -0.3773  0.4330
58856W        W 1773  12.521  15.877  18.810 -0.3107 -0.0357  0.1395
58857W        W 1774  10.768  16.128  20.909  0.1264 -0.0048  0.0313
58858W        W 1775  10.960  16.056  19.918  0.0064  0.1622 -0.1550
58859W        W 1776  12.753  16.232  20.550 -0.0213  0.1878 -0.1116
58860W        W 1777  10.686  17.627  20.603  0.0754 -0.1311 -0.2407
58861W        W 1778  10.135  17.419  21.979 -0.0761  0.1307  0.1777
58862W        W 1779  11.679  15.737  20.332  0.3668  0.0190 -0.0336
58863W        W 1780  12.340  17.420  19.079  0.0481  0.2499  0.6117
58864W        W 1781  12.220  15.165  21.045  0.0006 -0.1618  0.0118
58865W        W 1782   9.428  15.465  19.679 -0.1404 -0.0526  0.3193
58866W        W 1783  10.775  19.722  18.610 -0.0844  0.1167  0.1980
58867W        W 1784  10.923  15.434  18.132  0.0041 -0.0595 -0.0784
58868W        W 1785  12.058  14.570  19.575 -0.2688 -0.2144 -0.0419
58869W        W 1786  13.374  15.922  18.981 -0.0255 -0.2608  0.2239
58870W        W 1787  11.163  16.640  17.751 -0.2246 -0.1452  0.1852
58871W        W 1788  13.084  16.558  19.054 -0.1123  0.0361 -0.2559
58872W        W 1789  10.972  17.898  21.438 -0.2525  0.1824 -0.0961
58873W        W 1790  13.138  13.884  21.158 -0.2363  0.0019 -0.1453
58874W        W 1791   9.731  19.320  22.566 -0.1284 -0.0095 -0.1055
58875W        W 1792   9.521  15.315  20.618 -0.1785 -0.2808 -0.3143
58876W        W 1793  10.097  16.812  19.372 -0.1848  0.2434  0.0750
58877W        W 1794  12.529  16.410  18.465  0.0417  0.0004  0.2324
58878W        W 1795  13.903  16.471  18.457  0.0738 -0.1442 -0.0636
58879W        W 1796  11.466  14.854  22.087 -0.1794  0.2429 -0.3528
58880W        W 1797  12.493  14.597  22.116 -0.0087 -0.2006  0.2162
58881W        W 1798  11.551  16.819  22.892  0.2469  0.1776 -0.0458
58882W        W 1799  11.680  16.233  20.360  0.3388 -0.0608  0.0844
58883W        W 1800  11.831  13.958  20.604  0.1244  0.0562 -0.2422
58884W        W 1801  13.554  15.581  18.582 -0.0152 -0.3749  0.1130
58885W        W 1802  12.227  16.007  21.402  0.0165  0.0851 -0.0559
58886W        W 1803   9.637  15.565  18.066 -0.1261 -0.1673 -0.1461
58887W        W 1804  12.893  17.351  18.933  0.0111 -0.1831 -0.1268
58888W        W 1805  11.023  15.732  21.272  0.0618 -0.0502 -0.1176
58889W        W 1806  12.271  17.949  20.939 -0.0373 -0.0225 -0.1242
58890W        W 1807  13.169  19.078  18.527 -0.0477  0.4656 -0.0298
58891W        W 1808  11.633  17.378  18.138  0.1128  0.5203  0.3495
58892W        W 1809  12.084  15.549  23.053  0.0155  0.1104  0.0642
58893W        W 1810  12.418  15.940  25.122 -0.1192  0.4990 -0.2286
58894W        W 1811  11.540  14.814  20.601  0.1124  0.1010  0.0484
58895W        W 1812  10.544  15.411  19.438  0.1261 -0.0226  0.1662
58896W        W 1813  11.019  13.459  20.427  0.0517 -0.2003 -0.0754
58897W        W 1814  11.183  16.478  21.818  0.2035 -0.0796  0.0332
58898W        W 1815  10.215  18.038  19.903 -0.1131  0.4486 -0.0672
58899W        W 1816  12.581  13.439  21.186  0.0547 -0.3602  0.3267
58900W        W 1817  10.982  16.551  24.002  0.0672  0.0628  0.0602
58901W        W 1818  11.486  13.666  20.361 -0.2319  0.0503  0.0204
58902W        W 1819  13.770  18.121  17.458 -0.0625  0.3654 -0.1027
58903W        W 1820  11.181  15.953  20.319 -0.1021 -0.1718  0.0924
58904W        W 1821  12.835  15.482  19.023 -0.0789 -0.0630 -0.1593
58905W        W 1822   9.922  15.416  21.754 -0.2758 -0.2443 -0.1987
58906W        W 1823  13.263  16.991  18.930  0.2618  0.1261  0.1117
58907W        W 1824  11.037  15.343  20.217  0.2515 -0.3199  0.1043
58908W        W 1825  10.007  17.310  20.547  0.2281  0.2091  0.2467
58909W        W 1826   9.532  17.454  19.911  0.2728 -0.0287  0.1314
58910W        W 1827  11.563  17.261  19.399 -0.1600 -0.2032 -0.0688
58911W        W 1828  12.750  14.872  18.417 -0.1126  0.4373  0.0716
58912W        W 1829  11.479  13.745  19.100  0.3574 -0.1446  0.3707
58913W        W 1830  11.740  16.014  21.248  0.2136 -0.0545  0.0619
58914W        W 1831  13.500  12.776  19.664  0.0516  0.1291 -0.0825
58915W        W 1832  14.161  15.583  18.248 -0.0707  0.0802 -0.2896
58916W        W 1833  14.232  13.342  21.908  0.1466 -0.2257  0.0960
58917W        W 1834  13.169  12.833  20.902 -0.0521 -0.2528  0.0164
58918W        W 1835  13.705  18.460  17.026  0.1076  0.0373 -0.0040
58919W        W 1836   9.116  16.383  22.768  0.0196  0.1859 -0.0524
58920W        W 1837  12.368  19.475  20.413 -0.0625 -0.0961 -0.0709
58921W        W 1838  11.356  18.734  22.496 -0.1387 -0.0591  0.0697
58922W        W 1839  11.295  14.194  20.778  0.0449 -0.1427 -0.1169
58923W        W 1840  10.432  13.362  19.777 -0.2064 -0.4083 -0.1339
58924W        W 1841  11.861  13.805  21.426 -0.0149 -0.1866  0.2164
58925W        W 1842  12.821  18.789  17.216 -0.4418  0.0140  0.0176
58926W        W 1843  12.624  16.947  19.102  0.1035 -0.0042 -0.0113
58927W        W 1844  11.764  15.446  19.863 -0.0913  0.0997  0.0454
58928W        W 1845  12.032  16.451  21.626  0.0532 -0.0012 -0.0912
58929W        W 1846  12.648  15.320  17.698 -0.2904  0.2416  0.6368
58930W        W 1847  11.035  13.959  20.350 -0.3607  0.3266  0.1343
58931W        W 1848   9.732  16.552  20.847  0.0898  0.0368 -0.2740
58932W        W 1849  12.228  15.562  24.688  0.0467  0.1525 -0.1828
58933W        W 1850  13.762  16.902  17.874 -0.2065  0.1391  0.2749
58934W        W 1851  11.919  14.807  21.377 -0.0489 -0.2867  0.0191
58935W        W 1852  14.090  14.618  22.132  0.5811 -0.1267  0.0785
58936W        W 1853  12.802  13.623  20.344  0.0595  0.1447 -0.1641
58937W        W 1854  13.096  15.227  23.524 -0.3122  0.0435 -0.0541
58938W        W 1855  11.614  14.823  23.312  0.1692 -0.1780  0.2197
58939W        W 1856  12.030  17.146  20.794  0.0400 -0.2882  0.0963
58940W        W 1857  13.269  15.332  18.963  0.4183 -0.0328  0.1226
58941W        W 1858  12.163  15.647  20.108 -0.2908 -0.3147  0.1418
58942W        W 1859  13.890  15.178  18.649 -0.1166 -0.1801 -0.2946
58943W        W 1860  11.201  15.054  18.814 -0.0171  0.2013 -0.1899
58944W        W 1861  12.072  14.846  20.655 -0.0250  0.0893 -0.0449
58945W        W 1862  12.033  15.612  18.629 -0.3805  0.0550  0.0136
58946W        W 1863  10.715  12.079  18.132  0.4419 -0.1525  0.0147
58947W        W 1864  12.292  14.778  21.713  0.2546  0.1806 -0.2138
58948W        W 1865  11.077  18.611  19.064 -0.0219 -0.1346  0.0366
58949W        W 1866  13.044  15.010  17.512 -0.1976 -0.0968  0.3579
58950W        W 1867  10.708  14.574  19.718 -0.2913 -0.1584  0.2177
58951W        W 1868   8.767  13.160  19.948 -0.1047 -0.5177  0.0501
58952W        W 1869  11.742  18.925  22.195 -0.4769  0.0878  0.0791
58953W        W 1870  10.888  14.762  18.574 -0.2219 -0.0478 -0.1035
58954W        W 1871  11.509  16.234  17.674  0.2496 -0.0758  0.1009
58955W        W 1872  11.085  16.862  19.516 -0.1187  0.2736  0.1980
58956W        W 1873  11.613  13.395  17.520  0.0930 -0.0247  0.0072
58957W        W 1874  13.512  14.547  19.829  0.0224  0.0909 -0.0956
58958W        W 1875   9.806  18.341  19.983 -0.0331 -0.1120  0.1320
58959W        W 1876  11.801  14.424  20.837  0.2213 -0.1673 -0.1875
58960W        W 1877  10.287  17.582  20.878  0.1555 -0.1174 -0.3354
58961W        W 1878  11.869  16.841  19.687  0.1474 -0.1919  0.2885
58962W        W 1879   9.566  14.366  21.546  0.0988 -0.1543 -0.1067
58963W        W 1880  11.664  15.374  22.445  0.0481 -0.1090 -0.0503
58964W        W 1881  11.694  18.106  19.969 -0.0373  0.0922  0.0098
58965W        W 1882  12.080  16.460  19.019 -0.3556 -0.0326  0.0894
58966W        W 1883  12.702  14.475  20.251 -0.1099 -0.0207  0.4567
58967W        W 1884  11.456  17.289  20.320  0.0555 -0.5038  0.1774
58968W        W 1885  11.014  15.021  20.649  0.1098 -0.0892 -0.1916
58969W        W 1886  12.863  17.225  19.855  0.0284  0.3577 -0.1200
58970W        W 1887  13.327  15.927  18.060 -0.0973 -0.0090  0.1055
58971W        W 1888  11.615  16.417  20.803 -0.3597  0.0450  0.0264
58972W        W 1889  12.742  15.987  23.615  0.0006  0.1110 -0.1791
58973W        W 1890  11.493  16.391  19.746 -0.1559 -0.1662 -0.2319
58974W        W 1891  10.858  18.062  20.948  0.0875 -0.2480 -0.1600
58975W        W 1892  10.698  15.135  18.923 -0.1798  0.1033 -0.2917
58976W        W 1893  10.639  17.218  19.472 -0.2201  0.3926 -0.3272
58977W        W 1894  11.924  19.194  23.519  0.0674  0.1234  0.1016
58978W        W 1895  11.168  15.970  24.495  0.3813  0.0202  0.0330
58979W        W 1896   9.960  16.105  20.107 -0.1042  0.1568  0.2219
58980W        W 1897  13.147  15.522  19.413 -0.0228  0.1280 -0.3693
58981W        W 1898  11.027  16.388  19.507  0.3836 -0.1367 -0.1922
58982W        W 1899  11.144  18.695  18.595  0.1320  0.0090 -0.2013
58983W        W 1900  10.040  14.953  22.079  0.0380 -0.0296  0.0178
58984W        W 1901   9.444  17.346  19.438 -0.0116 -0.1824 -0.0808
58985W        W 1902  10.034  17.228  18.575 -0.2150  0.0160 -0.1184
58986W        W 1903  12.573  18.083  18.419 -0.0239  0.1057 -0.3156
58987W        W 1904  11.390  19.749  20.931 -0.0415 -0.1331  0.1774
58988W        W 1905  12.699  17.326  17.285 -0.0743 -0.4014  0.1977
58989W        W 1906  11.048  13.431  19.024 -0.0528 -0.0416  0.0619
58990W        W 1907  13.381  15.079  18.576 -0.3013 -0.0275 -0.1424
58991W        W 1908  12.792  14.364  18.025  0.2941 -0.1912 -0.1072
58992W        W 1909  12.794  17.546  19.374 -0.2913  0.2096  0.1367
58993W        W 1910  10.589  15.326  20.036 -0.0468  0.2253 -0.1573
58994W        W 1911  11.284  12.622  20.577 -0.0445 -0.1244 -0.1094
58995W        W 1912  11.345  13.432  22.921  0.0906 -0.0514  0.0858
58996W        W 1913  10.115  18.142  21.932 -0.2316 -0.3149 -0.3180
58997W        W 1914  12.263  17.228  17.511 -0.2978 -0.0446  0.0192
58998W        W 1915  11.416  14.353  19.178 -0.1868  0.1277  0.2802
58999W        W 1916  10.935  15.184  22.943  0.0940 -0.1721  0.2318
59000W        W 1917  12.930  14.384  22.011 -0.2617 -0.1196 -0.4631
59001W        W 1918  11.570  16.551  16.300  0.2330 -0.1300 -0.2608
59002W        W 1919  12.331  15.100  19.366  0.1278  0.2200 -0.1095
59003W        W 1920  11.472  19.107  18.848 -0.0489 -0.0733 -0.0156
59004W        W 1921  11.593  18.684  19.278 -0.2668 -0.0155 -0.0614
59005W        W 1922  11.424  17.064  18.897 -0.1778 -0.3867  0.0299
59006W        W 1923  10.137  13.804  21.527 -0.1242  0.0230  0.2693
59007W        W 1924  14.051  14.409  18.264 -0.2066  0.0850 -0.1334
59008W        W 1925  13.063  14.581  20.615 -0.2344 -0.0152 -0.0842
59009W        W 1926  11.608  13.950  21.027  0.1282  0.0581  0.1826
59010W        W 1927  10.735  13.305  18.416 -0.0731 -0.0982 -0.0499
59011W        W 1928  12.293  15.992  18.224 -0.0988  0.0792  0.1552
59012W        W 1929  12.027  17.338  19.724 -0.1896  0.1989  0.0213
59013W        W 1930  12.236  15.216  19.907 -0.1342 -0.3370  0.2312
59014W        W 1931  11.440  16.280  19.183  0.1710  0.1714  0.2185
59015W        W 1932  12.129  14.074  21.022  0.2778 -0.1617  0.3097
59016W        W 1933  11.118  15.240  21.327  0.4253 -0.0712  0.0621
59017W        W 1934  12.819  18.038  19.325 -0.0909 -0.4648 -0.0500
59018W        W 1935   9.579  14.439  22.823  0.0892  0.0024 -0.2544
59019W        W 1936  12.428  13.834  20.729 -0.1232 -0.1468 -0.3149
59020W        W 1937   9.653  18.276  22.133 -0.0231 -0.0766 -0.0183
59021W        W 1938  11.172  17.270  20.924  0.0644 -0.0573  0.0090
59022W        W 1939  12.502  18.642  21.003 -0.0149 -0.3469 -0.1389
59023W        W 1940  10.277  15.945  21.302 -0.0229  0.3413  0.1579
59024W        W 1941  12.786  17.953  17.298  0.2335 -0.0849 -0.0398
59025W        W 1942  13.452  16.120  18.460 -0.1467  0.2896  0.0034
59026W        W 1943  12.136  19.113  18.481  0.1121  0.1519 -0.3233
59027W        W 1944  15.517  15.338  16.082 -0.1966  0.2116  0.0593
59028W        W 1945  11.581  17.523  19.830 -0.2609  0.0820 -0.0383
59029W        W 1946  11.348  12.953  22.344  0.3572 -0.0782  0.3628
59030W        W 1947  13.166  17.699  18.602 -0.1797 -0.0355  0.1849
59031W        W 1948  12.722  17.751  18.810  0.0169 -0.1248 -0.0672
59032W        W 1949  11.525  13.298  18.922 -0.0811  0.2126 -0.1062
59033W        W 1950  10.247  13.386  20.727 -0.0376 -0.2266 -0.1572
59034W        W 1951   9.481  19.275  22.060 -0.3112  0.0246  0.0137
59035W        W 1952  11.683  14.992  18.814 -0.1146 -0.1204 -0.1326
59036W        W 1953  11.232  16.599  18.878  0.0916  0.1339 -0.0149
59037W        W 1954  14.168  17.963  16.517 -0.2529  0.2400  0.0062
59038W        W 1955  14.066  13.696  20.376 -0.0595 -0.2455 -0.2544
59039W        W 1956  12.279  16.558  19.443  0.0793  0.0417 -0.1709
59040W        W 1957  11.643  17.324  21.170 -0.2025  0.4935  0.3044
59041W        W 1958  11.037  15.514  20.756 -0.0662  0.0136  0.0204
59042W        W 1959  11.185  15.893  22.028  0.2331 -0.1694  0.0449
59043W        W 1960  10.311  16.993  19.784  0.1586 -0.3071 -0.2552
59044W        W 1961  11.289  19.241  22.221  0.0582 -0.0726 -0.1311
59045W        W 1962  12.658  16.518  18.002  0.1280 -0.1781  0.3404
59046W        W 1963  11.785  17.799  19.265 -0.1554  0.1954 -0.0696
59047W        W 1964  12.237  19.328  17.512 -0.0450 -0.0893  0.1478
59048W        W 1965  11.120  14.137  22.415  0.0628 -0.0607  0.0252
59049W        W 1966  13.626  13.854  21.107  0.2082 -0.2518 -0.1431
59050W        W 1967  10.606  15.476  21.191  0.0025 -0.1014 -0.1824
59051W        W 1968  11.494  16.438  21.343 -0.1176  0.2893  0.2182
59052W        W 1969   9.727  16.423  19.499 -0.1382  0.2519  0.0030
59053W        W 1970   9.516  18.672  17.552 -0.0857  0.1156  0.1096
59054W        W 1971  11.774  17.971  21.133 -0.0589  0.2037  0.5377
59055W        W 1972  12.599  14.453  23.519 -0.0319 -0.1203  0.0156
59056W        W 1973  11.826  15.923  23.975 -0.3674  0.1277 -0.0394
59057W        W 1974  11.649  16.760  19.207  0.3254  0.0769 -0.1270
59058W        W 1975   8.795  17.550  20.933  0.0234 -0.0762 -0.2623
59059W        W 1976  13.307  15.271  17.257  0.0235  0.0466  0.0532
59060W        W 1977  11.597  14.203  25.308 -0.0871 -0.1229 -0.3083
59061W        W 1978  12.355  13.060  21.993  0.1408 -0.1609 -0.0757
59062W        W 1979  10.237  16.760  18.898 -0.1307 -0.2026 -0.0541
59063W        W 1980  11.376  15.315  19.628 -0.0455  0.0273  0.0300
59064W        W 1981  10.198  13.792  19.608 -0.1058 -0.1552  0.3493
59065W        W 1982  14.002  16.730  19.906 -0.3285  0.1523  0.0850
59066W        W 1983   9.930  18.080  20.906  0.0818  0.0008  0.0362
59067W        W 1984  10.699  16.040  21.543 -0.0680  0.3176 -0.2701
59068W        W 1985  11.294  16.882  25.015 -0.3366  0.3168 -0.3385
59069W        W 1986  11.082  15.333  19.208 -0.1297  0.1842 -0.1589
59070W        W 1987  11.438  13.789  21.775  0.0754  0.0764 -0.1249
59071W        W 1988  12.113  16.978  19.219  0.0578 -0.0975 -0.0070
59072W        W 1989  12.827  19.296  16.450  0.1146  0.1160 -0.1355
59073W        W 1990  11.923  15.563  21.305  0.0373  0.0740  0.1266
59074W        W 1991  12.443  17.232  19.531 -0.1567  0.1127 -0.0861
59075W        W 1992  11.689  15.192  22.958 -0.4322 -0.2272  0.1783
59076W        W 1993  10.484  15.937  18.737 -0.1495  0.2583  0.0094
59077W        W 1994  12.278  15.574  21.751 -0.1119 -0.0425  0.0745
59078W        W 1995  13.118  17.579  17.164  0.2091 -0.0238  0.1433
59079W        W 1996  14.509  12.940  20.710  0.1473 -0.3856 -0.0447
59080W        W 1997  12.899  14.922  19.985  0.0255 -0.0410  0.2968
59081W        W 1998  11.758  14.801  23.778 -0.2954  0.1694 -0.1743
59082W        W 1999  10.153  16.678  23.657  0.1987  0.3036  0.0036
59083W        W 2000  10.940  14.552  20.709 -0.2948  0.1848 -0.4227
59084W        W 2001  11.488  14.128  20.141 -0.2340 -0.0085  0.2107
59085W        W 2002  12.035  15.701  17.534 -0.0931 -0.2121  0.0874
59086W        W 2003  10.661  15.711  22.132  0.0330  0.1188 -0.2862
59087W        W 2004  12.790  14.680  19.477  0.1177  0.2283  0.0811
59088W        W 2005  11.460  15.363  20.632  0.0797  0.1626  0.1962
59089W        W 2006  11.199  16.721  20.958 -0.0162  0.0632 -0.1332
59090W        W 2007  10.458  14.432  19.249 -0.0937 -0.1084  0.0982
59091W        W 2008  14.421  14.932  17.055 -0.2583  0.2894 -0.0430
59092W        W 2009  12.998  18.479  19.117 -0.1734 -0.0603  0.0409
59093W        W 2010  11.609  17.326  21.663  0.0633 -0.3693  0.0043
59094W        W 2011   9.677  17.215  21.943  0.0406  0.6322  0.0358
59095W        W 2012  13.077  16.287  17.799 -0.1691 -0.0789 -0.0018
59096W        W 2013   9.763  15.810  22.590  0.0959 -0.2552 -0.1437
59097W        W 2014  10.655  18.892  21.675  0.0246 -0.1072  0.0055
59098W        W 2015  11.781  17.614  20.787 -0.3901 -0.2632  0.0456
59099W        W 2016  12.672  15.677  20.178 -0.2053  0.1451 -0.0725
59100W        W 2017  12.285  15.527  22.244  0.1064  0.4604 -0.0216
59101W        W 2018  11.595  15.781  16.619 -0.1326  0.0504 -0.1290
59102W        W 2019  11.268  17.733  20.974 -0.1934  0.2282 -0.0875
59103W        W 2020  12.146  17.207  16.996  0.0837 -0.0836 -0.2515
59104W        W 2021  13.955  17.801  24.378 -0.2425  0.0246  0.0510
59105W        W 2022  10.732  14.722  25.541 -0.1215 -0.0990 -0.1123
59106W        W 2023  13.893  13.936  19.440 -0.1829  0.0052  0.1190
59107W        W 2024  12.636  15.579  22.738 -0.1093 -0.1707 -0.0780
59108W        W 2025  12.409  13.442  24.763 -0.0210 -0.1135  0.1013
59109W        W 2026  12.602  15.473  26.385 -0.0325  0.0249 -0.2992
59110W        W 2027  13.727  18.005  23.155  0.0231  0.2955 -0.1209
59111W        W 2028  12.583  16.229  21.728  0.1792 -0.0018 -0.1090
59112W        W 2029  14.585  15.580  23.832 -0.0448 -0.1405 -0.0567
59113W        W 2030  13.405  17.845  24.096 -0.4098  0.1665  0.1539
59114W        W 2031  12.579  13.648  23.315 -0.0683 -0.2679 -0.0529
59115W        W 2032  12.104  14.978  26.079  0.0559  0.4104 -0.3868
59116W        W 2033  11.593  16.507  25.897 -0.0730  0.2449 -0.3566
59117W        W 2034  11.707  16.775  23.930  0.0198 -0.1071  0.0719
59118W        W 2035  12.749  16.579  23.760 -0.2419  0.2380  0.0844
59119W        W 2036  12.070  14.042  26.038  0.2703 -0.1853 -0.0685
59120W        W 2037  12.406  19.244  23.394 -0.1015 -0.3143  0.2675
59121W        W 2038  12.351  17.548  25.100 -0.2103  0.1157 -0.2165
59122W        W 2039  13.399  14.243  22.840 -0.1987  0.2189  0.0711
59123W        W 2040  11.692  17.998  22.039 -0.0201  0.1844 -0.2279
59124W        W 2041  11.279  15.151  26.074 -0.3013  0.3443  0.1848
59125W        W 2042  12.402  15.189  24.112 -0.2357  0.1206  0.2327
59126W        W 2043  13.051  15.655  24.962 -0.0661  0.0120  0.0977
59127W        W 2044  13.290  15.901  21.750  0.2166  0.1658 -0.0543
59128W        W 2045  12.389  17.288  23.749  0.2591 -0.0792 -0.3293
59129W        W 2046  12.664  17.601  23.056  0.0482  0.2282 -0.2335
59130W        W 2047  13.064  17.839  22.200  0.1207  0.0770 -0.4309
59131W        W 2048  14.353  15.686  26.815 -0.0725  0.0879  0.0973
59132W        W 2049  12.398  19.044  22.840 -0.0071 -0.0256  0.0531
59133W        W 2050  11.971  19.040  26.124  0.1005 -0.0504  0.1980
59134W        W 2051  10.327  18.702  27.264  0.1310 -0.2269  0.4184
59135W        W 2052  14.002  17.780  20.395 -0.2020 -0.1792  0.1322
59136W        W 2053  12.483  17.774  23.995 -0.0873 -0.0656  0.2170
59137W        W 2054  11.731  18.275  23.603  0.1725  0.1984 -0.0612
59138W        W 2055  11.607  18.277  24.494  0.1149  0.1238 -0.0953
59139W        W 2056  12.175  17.563  26.073  0.0057  0.1082 -0.2277
59140W        W 2057  13.398  14.498  25.483  0.0396  0.0673 -0.2317
59141W        W 2058  13.021  16.306  25.728  0.0549  0.0537  0.2487
59142W        W 2059  11.299  17.068  24.174  0.1618  0.1037 -0.1360
59143W        W 2060  13.753  15.655  22.937 -0.2113  0.1708 -0.2404
59144W        W 2061  12.832  17.085  22.029  0.1350  0.2329 -0.0044
59145W        W 2062  12.149  17.145  27.776 -0.1179 -0.1212 -0.1705
59146W        W 2063  15.794  16.899  25.274 -0.1276  0.2205 -0.1624
59147W        W 2064  11.939  17.023  22.039 -0.0314 -0.0303 -0.0826
59148W        W 2065  13.436  14.945  20.155 -0.0771 -0.0180  0.0056
59149W        W 2066  11.895  15.157  24.091  0.2877  0.2667 -0.0705
59150W        W 2067  13.729  14.016  20.486  0.0802 -0.1394  0.0878
59151W        W 2068  11.946  15.607  25.329  0.1936  0.0099  0.0040
59152W        W 2069  11.185  16.371  25.339 -0.0492  0.0222 -0.2453
59153W        W 2070  12.920  14.674  25.401  0.3067 -0.1307 -0.3608
59154W        W 2071  13.151  13.671  22.029  0.0280 -0.3124  0.0887
59155W        W 2072  12.274  17.226  24.610  0.1755  0.1036 -0.1148
59156W        W 2073  12.123  15.080  24.760 -0.2085  0.1232 -0.2201
59157W        W 2074  11.118  17.908  24.728 -0.0349  0.5017 -0.1397
59158W        W 2075  12.829  16.314  19.548  0.1211  0.1346 -0.1769
59159W        W 2076  13.996  17.437  20.768 -0.0952  0.1080 -0.0782
59160W        W 2077  12.267  17.574  20.643  0.0074  0.0702  0.3181
59161W        W 2078  11.342  17.590  23.026  0.0267  0.1392  0.1083
59162W        W 2079  13.026  15.024  25.042 -0.1488 -0.0141  0.2123
59163W        W 2080  11.887  15.492  27.259  0.3629 -0.5362  0.0095
59164W        W 2081  11.084  11.769  22.050 -0.0945 -0.2176  0.0072
59165W        W 2082  13.727  14.397  22.439  0.1122 -0.5553 -0.0785
59166W        W 2083  10.374  17.286  25.780 -0.4994 -0.0680  0.7314
59167W        W 2084  14.108  14.033  20.875 -0.1159  0.2823 -0.0622
59168W        W 2085  12.072  14.645  24.154  0.1135 -0.1914 -0.2039
59169W        W 2086  14.049  14.934  22.516 -0.3075  0.1944  0.0091
59170W        W 2087  12.963  14.138  25.202  0.1203 -0.1881  0.3307
59171W        W 2088  12.160  15.190  22.605 -0.1423 -0.2438  0.1199
59172W        W 2089  12.639  17.187  21.580 -0.0520 -0.3352  0.2566
59173W        W 2090  12.517  16.805  25.507  0.2906  0.0884 -0.1844
59174W        W 2091  14.295  16.734  26.241 -0.0423 -0.2224 -0.0865
59175W        W 2092  11.869  16.882  27.197  0.1161  0.2075  0.2424
59176W        W 2093  11.412  19.225  20.950  0.2526 -0.2845  0.0449
59177W        W 2094  12.340  16.985  25.065  0.4112  0.1513 -0.0071
59178W        W 2095  11.759  16.785  23.422  0.0222 -0.2089  0.3333
59179W        W 2096  11.657  13.687  27.332 -0.0190  0.3903  0.1283
59180W        W 2097  12.852  18.133  23.958  0.0372 -0.1015  0.1093
59181W        W 2098  14.088  13.379  21.011 -0.0798  0.0183 -0.2244
59182W        W 2099  13.022  15.220  26.258  0.0412  0.0708 -0.1132
59183W        W 2100  13.731  14.826  21.504  0.0704  0.3629  0.0882
59184W        W 2101  11.675  16.374  25.381 -0.0403 -0.0217 -0.0049
59185W        W 2102  14.097  17.823  21.093 -0.2849 -0.0139 -0.3881
59186W        W 2103  12.410  14.931  20.286  0.1325  0.0102  0.0979
59187W        W 2104  12.683  15.705  19.674  0.1127  0.0027 -0.3119
59188W        W 2105  13.379  16.732  26.550  0.6425 -0.1789  0.2951
59189W        W 2106  11.154  13.767  26.392 -0.1332 -0.0834  0.1817
59190W        W 2107  13.375  15.852  27.584  0.1710 -0.0161 -0.0956
59191W        W 2108  12.618  13.446  24.339 -0.1153  0.0414  0.1415
59192W        W 2109  14.109  13.595  24.561  0.0283  0.1277  0.2279
59193W        W 2110  10.126  12.967  24.412 -0.0190 -0.0771  0.0179
59194W        W 2111  12.369  16.876  22.443 -0.0466 -0.4163 -0.0543
59195W        W 2112  12.184  16.271  23.949  0.1195  0.0284 -0.1939
59196W        W 2113  12.315  16.816  21.241  0.0913 -0.0055 -0.3666
59197W        W 2114  14.078  16.483  24.058 -0.1522  0.0128 -0.0777
59198W        W 2115  11.470  17.281  22.635 -0.3832 -0.0320 -0.1947
59199W        W 2116  13.114  17.258  23.232  0.4064  0.0203  0.0942
59200W        W 2117  12.420  16.099  27.549 -0.1112 -0.0491 -0.2096
59201W        W 2118  10.820  14.299  23.568  0.2767 -0.1400  0.2889
59202W        W 2119  11.349  17.160  22.130  0.1752  0.0317 -0.0323
59203W        W 2120  10.969  18.463  22.670  0.0502  0.2638 -0.1261
59204W        W 2121  11.747  15.176  25.627  0.2636 -0.3319 -0.1244
59205W        W 2122  12.468  15.803  20.614 -0.0982  0.1901 -0.1538
59206W        W 2123  12.400  17.289  26.423  0.0208 -0.1521 -0.0613
59207W        W 2124  13.728  13.783  24.800  0.1290 -0.2151  0.2042
59208W        W 2125  12.346  14.840  23.808  0.0220  0.0354 -0.1239
59209W        W 2126  10.595  15.086  26.365 -0.0988  0.0831  0.0192
59210W        W 2127  12.838  18.279  21.218 -0.3230 -0.0927  0.0791
59211W        W 2128   9.821  17.729  23.584  0.0457  0.0973 -0.1031
59212W        W 2129  13.207  16.728  23.520 -0.0221  0.0055  0.3835
59213W        W 2130  12.657  17.562  22.011 -0.0832 -0.3073 -0.0656
59214W        W 2131  12.652  14.138  22.761  0.0234 -0.0170 -0.2016
59215W        W 2132  12.883  15.905  27.120 -0.1682  0.2186 -0.1804
59216W        W 2133  13.888  16.210  26.169  0.1333 -0.1230  0.0476
59217W        W 2134  12.552  16.881  23.388  0.3297  0.1605 -0.0745
59218W        W 2135  12.150  18.042  26.275  0.0494  0.0319  0.3189
59219W        W 2136  13.686  15.306  22.587  0.1837  0.0154 -0.3157
59220W        W 2137  12.328  14.979  23.041  0.0256  0.0951 -0.1367
59221W        W 2138  15.126  16.922  26.317 -0.0664 -0.0488  0.2984
59222W        W 2139  13.013  14.929  22.152  0.1300 -0.1266  0.1446
59223W        W 2140  12.889  14.811  21.657  0.4425 -0.0332 -0.2026
59224W        W 2141  11.597  17.639  26.924 -0.0099  0.1233 -0.1946
59225W        W 2142  12.512  16.647  22.960 -0.1036  0.1068 -0.0239
59226W        W 2143  12.978  16.816  23.047  0.2007  0.0392 -0.0421
59227W        W 2144  12.213  16.044  22.065 -0.2538 -0.2454  0.1140
59228W        W 2145  12.061  16.636  25.708 -0.2010 -0.1916  0.0068
59229W        W 2146  13.283  16.488  25.327  0.1762  0.0618 -0.0335
59230W        W 2147  13.776  16.217  23.767 -0.1128  0.1113 -0.1344
59231W        W 2148  13.382  15.894  25.970  0.0890  0.0819 -0.1697
59232W        W 2149  11.519  17.897  20.402  0.2952 -0.1245  0.0305
59233W        W 2150  12.919  14.197  24.409  0.0739 -0.2688  0.0294
59234W        W 2151  10.490  20.186  21.820  0.0245  0.1913 -0.1002
59235W        W 2152  13.332  14.851  23.999 -0.0689 -0.0731  0.5040
59236W        W 2153  15.245  14.265  25.222 -0.1454  0.2342 -0.0456
59237W        W 2154  13.490  15.150  27.607  0.0457  0.2980 -0.2101
59238W        W 2155  14.946  15.266  22.851 -0.0448  0.0365  0.2312
59239W        W 2156  12.373  15.331  20.579 -0.0018 -0.1209  0.0256
59240W        W 2157  13.877  15.313  21.685  0.0606  0.0707 -0.1272
59241W        W 2158   9.999  17.044  21.587  0.1165  0.1791  0.1179
59242W        W 2159  14.210  15.781  22.612 -0.1150 -0.2112  0.1213
59243W        W 2160  12.589  14.902  25.111  0.1535  0.0131  0.2656
59244W        W 2161  11.202  17.972  27.052  0.2945 -0.0129 -0.0211
59245W        W 2162  12.893  18.172  25.586 -0.2896  0.1834  0.1912
59246W        W 2163  13.823  15.676  25.229  0.0740  0.2814 -0.2483
59247W        W 2164  12.618  13.565  22.754  0.0421 -0.2428 -0.1051
59248W        W 2165  11.989  19.261  23.000  0.1085 -0.3259  0.0331
59249W        W 2166  11.940  17.542  22.798  0.0644 -0.1684  0.3791
59250W        W 2167  13.377  14.604  24.913 -0.1941 -0.3208  0.1879
59251W        W 2168  11.736  17.981  24.038  0.2810  0.0666 -0.0555
59252W        W 2169  10.732  15.734  20.348 -0.0084  0.0030  0.1087
59253W        W 2170  14.245  15.546  23.079 -0.0658 -0.0362  0.1472
59254W        W 2171  12.463  18.033  24.811  0.1205 -0.3235 -0.0217
59255W        W 2172  13.357  14.146  21.999 -0.0315 -0.1867 -0.1089
59256W        W 2173  10.348  17.078  26.258 -0.2772  0.0397  0.2990
59257W        W 2174  12.916  15.957  23.001 -0.0958 -0.2187  0.0444
59258W        W 2175  11.297  17.249  24.684 -0.0441  0.0368  0.0326
59259W        W 2176  12.842  17.110  23.726  0.0357  0.3192  0.1956
59260W        W 2177  13.187  16.073  20.322  0.2335  0.0536  0.0032
59261W        W 2178  12.649  14.344  26.974 -0.1133  0.0902 -0.1869
59262W        W 2179  11.766  15.181  25.085  0.0911  0.3244 -0.0404
59263W        W 2180  12.544  16.327  25.544 -0.1670  0.1387  0.4751
59264W        W 2181  12.712  14.712  23.044  0.1246 -0.1028  0.0101
59265W        W 2182  12.122  17.590  26.695 -0.0939 -0.0808  0.1032
59266W        W 2183  13.881  18.363  25.316 -0.0914 -0.1136  0.1045
59267W        W 2184  12.334  15.475  23.623 -0.2168 -0.2926 -0.1333
59268W        W 2185  14.668  16.107  23.869  0.0757  0.1242 -0.1067
59269W        W 2186  13.966  15.165  22.976  0.1008  0.5663 -0.0484
59270W        W 2187  13.217  16.953  22.315 -0.1186 -0.2226 -0.1261
59271W        W 2188  13.551  18.912  23.392 -0.2020 -0.0341  0.2973
59272W        W 2189  12.576  18.066  23.523 -0.1696 -0.3134  0.0061
59273W        W 2190  10.562  18.267  22.519 -0.0614  0.4797 -0.3119
59274W        W 2191  12.724  15.911  26.032  0.0777 -0.0277 -0.0659
59275W        W 2192  12.197  15.940  23.585  0.1813  0.0252  0.0074
59276W        W 2193  14.116  15.169  24.227 -0.0271 -0.1971 -0.0411
59277W        W 2194  12.672  15.812  21.465 -0.2518  0.0206  0.2350
59278W        W 2195  13.115  16.829  26.095  0.1411  0.1272  0.1615
59279W        W 2196  10.732  16.295  26.619  0.1382 -0.3271  0.0561
59280W        W 2197  13.152  16.004  22.273  0.1983  0.0754 -0.1041
59281W        W 2198  14.896  16.614  24.618  0.1136 -0.1545 -0.2095
59282W        W 2199  11.487  17.458  23.922 -0.0973  0.0813 -0.0092
59283W        W 2200  12.171  16.520  25.182  0.0967 -0.1184  0.0402
59284W        W 2201  11.830  17.543  22.199  0.0649 -0.3848 -0.1597
59285W        W 2202  12.564  14.887  25.717 -0.0183  0.0472 -0.2109
59286W        W 2203  11.993  15.563  25.869  0.1283  0.1014  0.1516
59287W        W 2204  12.227  17.081  25.835 -0.3357 -0.3228  0.2972
59288W        W 2205  12.649  18.837  25.421  0.0947  0.1502 -0.0386
59289W        W 2206  14.816  13.082  19.831  0.4157  0.0700  0.1051
59290W        W 2207  13.376  15.413  22.187 -0.1807  0.1162 -0.2927
59291W        W 2208  13.416  16.061  22.856  0.0629 -0.1793  0.1093
59292W        W 2209  13.650  13.358  21.939  0.0989 -0.0411 -0.3401
59293W        W 2210  12.937  14.976  21.188  0.0031 -0.0375 -0.2654
59294W        W 2211  15.105  14.321  27.606  0.1762  0.0485  0.1248
59295W        W 2212  13.257  14.702  26.361  0.0196  0.0433 -0.0848
59296W        W 2213  12.935  18.089  22.621  0.1444  0.1548  0.1370
59297W        W 2214  11.846  16.364  24.405 -0.1466  0.1744 -0.0735
59298W        W 2215  12.412  19.188  24.579 -0.2156 -0.0297  0.0934
59299W        W 2216  12.458  18.078  25.281  0.0737 -0.1360  0.2281
59300W        W 2217  12.361  16.799  21.825 -0.0146  0.2831  0.0922
59301W        W 2218  13.600  16.213  25.679  0.0144 -0.0334  0.1155
59302W        W 2219  12.800  16.860  25.144 -0.1808  0.1070  0.0588
59303W        W 2220  13.153  15.682  22.634 -0.3210 -0.3116  0.3410
59304W        W 2221  12.320  16.411  23.414 -0.0317 -0.0863 -0.0935
59305W        W 2222  12.253  16.265  24.704 -0.1894  0.0604  0.1322
59306W        W 2223  11.071  18.155  25.337 -0.1605 -0.0964  0.0941
59307W        W 2224  13.053  16.225  21.456  0.1968 -0.1301  0.1954
59308W        W 2225  11.580  14.856  19.724  0.0740 -0.1472  0.2005
59309W        W 2226  13.647  18.007  25.709  0.2259 -0.0789 -0.0045
59310W        W 2227  13.388  13.173  26.786 -0.0564 -0.0002 -0.0649
59311W        W 2228  10.775  15.127  25.280  0.0402 -0.0950 -0.1283
59312W        W 2229  13.821  15.034  23.863 -0.1593  0.0955  0.0034
59313W        W 2230  14.009  14.958  23.418  0.4835  0.0803 -0.1583
59314W        W 2231  13.022  16.841  25.615 -0.0577  0.1742 -0.0804
59315W        W 2232  12.164  13.585  27.212 -0.3095  0.0364  0.1633
59316W        W 2233  11.337  16.869  26.161  0.1338 -0.0942 -0.1109
59317W        W 2234  14.594  14.803  21.978  0.2126  0.2174  0.4081
59318W        W 2235  13.212  15.096  20.767 -0.2198  0.1188 -0.0146
59319W        W 2236  11.598  18.132  25.594 -0.2819 -0.2446 -0.0026
59320W        W 2237  13.538  16.791  25.644 -0.3010 -0.0300 -0.0935
59321W        W 2238  12.227  16.090  20.324 -0.0742 -0.2730 -0.1696
59322W        W 2239  13.244  16.303  27.078 -0.0067 -0.0212  0.2306
59323W        W 2240  12.994  17.518  22.647  0.3080 -0.3809  0.0228
59324W        W 2241  13.346  17.134  24.055 -0.0170  0.3214  0.0446
59325W        W 2242  12.853  14.956  23.924 -0.0380 -0.0007 -0.1479
59326W        W 2243  10.463  16.389  23.996  0.1769 -0.1055 -0.4260
59327W        W 2244  11.746  19.664  23.532 -0.0409  0.2445  0.0318
59328W        W 2245  11.925  17.299  24.918  0.0309  0.2137  0.1908
59329W        W 2246  12.194  18.267  21.344  0.0405 -0.0461  0.1723
59330W        W 2247  12.854  18.908  24.874  0.1674  0.2154 -0.3622
59331W        W 2248  11.356  14.675  21.642  0.2306 -0.2534  0.0859
59332W        W 2249  14.109  15.433  23.551 -0.1637 -0.1533  0.0674
59333W        W 2250  11.562  18.136  24.942 -0.1694 -0.0851 -0.2089
59334W        W 2251  14.870  14.519  26.766  0.1818 -0.0262  0.1142
59335W        W 2252  11.272  18.178  23.216 -0.3255  0.0111  0.1680
59336W        W 2253  11.096  15.894  25.034  0.1604 -0.0057  0.1312
59337W        W 2254  13.105  16.665  24.265 -0.1618 -0.0109 -0.0142
59338W        W 2255  12.657  13.837  24.082  0.1670 -0.0383  0.0634
59339W        W 2256  12.351  16.055  22.990 -0.0956 -0.0756 -0.0603
59340W        W 2257  11.578  16.606  24.791  0.1891 -0.0417 -0.0209
59341W        W 2258  15.428  13.792  27.681  0.3153 -0.1803 -0.1945
59342W        W 2259  13.073  18.203  23.532 -0.0454  0.1403  0.1093
59343W        W 2260  12.608  17.251  24.221  0.1844  0.1663 -0.1001
59344W        W 2261  13.314  18.293  22.979  0.0687  0.1141  0.1987
59345W        W 2262  12.313  14.565  18.725  0.0628 -0.1495  0.0904
59346W        W 2263  14.174  16.135  24.886  0.1572  0.1418  0.1260
59347W        W 2264  10.848  15.346  29.348 -0.0797 -0.0025  0.0579
59348W        W 2265  12.848  16.318  24.537  0.1803 -0.5367 -0.2928
59349W        W 2266  11.724  14.749  24.519 -0.1763 -0.0943  0.0664
59350W        W 2267  12.881  14.626  25.977 -0.1610 -0.0984 -0.0105
59351W        W 2268  10.170  18.113  22.857  0.0249  0.1585 -0.1479
59352W        W 2269  12.570  19.015  23.978 -0.2762  0.1949 -0.0583
59353W        W 2270  11.720  15.634  29.276 -0.2173  0.2477  0.0622
59354W        W 2271  12.451  19.399  25.569  0.3009 -0.2225  0.2092
59355W        W 2272  11.714  16.927  24.420 -0.0556  0.0863 -0.1421
59356W        W 2273  12.489  16.586  20.802  0.0112 -0.0394  0.5000
59357W        W 2274  12.086  16.959  23.082  0.0211  0.0081  0.1015
59358W        W 2275  13.258  16.231  23.388 -0.1987 -0.0377  0.2390
59359W        W 2276  11.739  18.831  21.680 -0.1436  0.2221 -0.3026
59360W        W 2277   9.659  17.545  21.426 -0.0971  0.0304 -0.4894
59361W        W 2278  11.376  15.783  19.885 -0.0070 -0.1206 -0.2709
59362W        W 2279  12.666  16.770  24.582 -0.1073 -0.2065 -0.1501
59363W        W 2280  14.887  17.338  25.136  0.1353 -0.2421  0.0532
59364W        W 2281  14.283  14.373  21.773 -0.2126  0.0488 -0.1332
59365W        W 2282  14.156  14.529  21.322 -0.1902 -0.4398 -0.2935
59366W        W 2283  13.727  17.239  28.241 -0.1509  0.0642  0.0674
59367W        W 2284  13.581  15.775  26.443  0.4129  0.0127 -0.1623
59368W        W 2285  13.009  14.706  23.508  0.0888 -0.1108  0.4653
59369W        W 2286  13.095  18.464  24.750 -0.0693 -0.0021 -0.1698
59370W        W 2287  14.284  14.381  23.973  0.0382 -0.1169 -0.1772
59371W        W 2288  11.574  20.017  27.845  0.0764  0.1715 -0.1930
59372W        W 2289  10.937  15.439  24.921 -0.0227 -0.0147 -0.0232
59373W        W 2290  11.434  16.330  23.855 -0.1178 -0.1442 -0.1263
59374W        W 2291  14.787  14.736  26.186  0.2170 -0.0979  0.0204
59375W        W 2292  11.948  17.084  20.220 -0.2442 -0.1756 -0.1719
59376W        W 2293  13.411  16.304  24.408 -0.0537 -0.1417  0.1698
59377W        W 2294  12.466  17.815  22.583 -0.2663  0.1259 -0.1023
59378W        W 2295  11.618  18.644  24.830  0.0583 -0.1009 -0.0057
59379W        W 2296  13.095  17.865  23.100 -0.2209 -0.0737  0.0625
59380W        W 2297  13.328  14.846  25.883  0.2754 -0.0875 -0.1179
59381W        W 2298  11.753  15.899  23.008  0.1242  0.1289 -0.3380
59382W        W 2299  12.532  14.418  25.562  0.2278  0.0531  0.0853
59383W        W 2300  12.865  16.313  25.041  0.0983  0.0457 -0.2087
59384W        W 2301   9.889  16.287  23.251 -0.3267 -0.1584  0.0754
59385W        W 2302  14.810  15.731  24.247  0.1143 -0.2069 -0.1064
59386W        W 2303  12.347  14.223  26.433 -0.1024  0.2614 -0.2388
59387W        W 2304  13.172  17.394  21.801  0.0613 -0.2576  0.0475
59388W        W 2305  13.850  16.729  23.631 -0.0064 -0.2104  0.0388
59389W        W 2306  12.813  15.491  23.863  0.1811  0.2091 -0.0687
59390W        W 2307  13.901  19.082  24.332 -0.1455 -0.3581 -0.0934
59391W        W 2308  12.602  13.852  26.828  0.0735  0.2546 -0.1445
59392W        W 2309  12.632  14.698  24.263 -0.4072 -0.1957  0.0300
59393W        W 2310  11.992  17.546  24.019  0.0085 -0.0017 -0.0147
59394W        W 2311  13.113  17.157  24.535  0.0362 -0.1352 -0.0973
59395W        W 2312  12.783  20.128  25.605  0.0118 -0.1094  0.0044
59396W        W 2313  13.857  13.799  25.404  0.1176  0.4254 -0.2066
59397W        W 2314  13.133  17.178  19.359 -0.2140  0.0158  0.1962
59398W        W 2315  12.795  16.978  22.606  0.2580  0.3161 -0.0261
59399W        W 2316  11.640  18.254  21.545  0.3018 -0.0294  0.0582
59400W        W 2317  12.087  15.330  26.436  0.0837  0.0546 -0.1256
59401W        W 2318  12.692  18.200  23.073  0.1205 -0.1483 -0.1608
59402W        W 2319  14.464  12.834  21.817  0.1484 -0.1074 -0.3891
59403W        W 2320  12.865  15.906  25.422  0.2304  0.2620  0.0090
59404W        W 2321   8.804  17.593  23.034  0.3350 -0.1895 -0.1410
59405W        W 2322  13.760  15.624  24.004  0.1451 -0.0464 -0.3326
59406W        W 2323  14.618  14.264  22.238 -0.2561  0.1127 -0.4307
59407W        W 2324  12.429  17.326  18.606  0.0828  0.2196 -0.0262
59408W        W 2325  13.647  16.037  27.200  0.2001  0.0494 -0.0897
59409W        W 2326  11.755  17.918  23.141  0.1029  0.0298  0.1843
59410W        W 2327  13.258  17.485  23.766  0.0163  0.0831  0.3229
59411W        W 2328  12.045  16.755  24.754  0.0220 -0.0840  0.0702
59412W        W 2329  12.638  16.048  26.545 -0.2096 -0.0256 -0.0314
59413W        W 2330  11.027  18.996  24.596 -0.0554  0.0666  0.1517
59414W        W 2331  13.335  19.335  24.926 -0.3717  0.0621  0.0173
59415W        W 2332  12.954  17.638  24.163 -0.1063 -0.0701  0.3259
59416W        W 2333  13.271  15.594  20.892  0.1106  0.1534 -0.0990
59417W        W 2334  13.285  15.820  23.794 -0.3934  0.2358 -0.0853
59418W        W 2335  14.144  13.608  22.901 -0.3754 -0.2358 -0.2156
59419W        W 2336  12.217  14.160  21.957 -0.0908  0.0769  0.2152
59420W        W 2337  13.604  16.689  24.055 -0.0361 -0.1461  0.1209
59421W        W 2338  11.863  16.307  23.579  0.0621 -0.1091  0.1465
59422W        W 2339  11.957  16.392  23.022  0.0942 -0.0224 -0.3148
59423W        W 2340  13.454  17.299  22.694 -0.0811 -0.1251  0.0593
59424W        W 2341  12.831  15.430  27.381 -0.0064 -0.1742 -0.1925
59425W        W 2342  13.758  15.543  24.491 -0.1245  0.2611 -0.0051
59426W        W 2343  11.925  19.399  25.374 -0.1693  0.1148  0.1005
59427W        W 2344  10.727  13.356  26.387 -0.0123  0.1392 -0.0362
59428W        W 2345  12.664  15.206  24.655  0.0292  0.0302 -0.1243
59429W        W 2346  11.789  14.876  27.308 -0.2973  0.0235  0.0864
59430W        W 2347  14.005  16.923  20.924  0.1366 -0.1427  0.1245
59431W        W 2348  12.162  14.730  25.137  0.0219 -0.0696  0.1639
59432W        W 2349  13.134  17.654  24.772 -0.2483  0.0431  0.3548
59433W        W 2350  12.024  15.831  22.587  0.3396 -0.0672 -0.1766
59434W        W 2351  13.573  16.493  24.869  0.0641 -0.0201 -0.2289
59435W        W 2352  14.165  14.142  24.881 -0.1358  0.0029  0.0513
59436W        W 2353  11.376  15.804  23.824 -0.0041  0.0153 -0.0348
59437W        W 2354  11.911  15.737  26.761 -0.0136  0.1672 -0.0085
59438W        W 2355  12.584  18.356  21.650  0.0294 -0.0412 -0.2058
59439W        W 2356  12.423  17.410  20.061 -0.0502  0.1890 -0.1845
59440W        W 2357  13.824  15.799  23.398  0.2734 -0.0027  0.0260
59441W        W 2358  14.183  21.227  23.234  0.0607  0.0661 -0.2205
59442W        W 2359  11.997  14.261  24.956 -0.0860  0.4428 -0.1144
59443W        W 2360  13.378  15.975  25.242  0.3342  0.2261 -0.0113
59444W        W 2361  13.328  18.048  25.216  0.0616  0.1024 -0.0043
59445W        W 2362  14.198  16.599  20.580  0.2543 -0.1610 -0.3214
59446W        W 2363  14.197  16.087  23.062  0.0655 -0.1315  0.1091
59447W        W 2364  12.979  15.279  24.272  0.0379 -0.0813  0.2407
59448W        W 2365  13.100  15.095  30.294  0.0976 -0.1970 -0.0612
59449W        W 2366  12.051  19.477  25.867  0.0245  0.0041  0.1564
59450W        W 2367  13.955  16.571  25.807  0.1324  0.0960  0.2506
59451W        W 2368  10.573  14.285  25.280 -0.0194 -0.0536  0.0338
59452W        W 2369  12.326  13.842  25.061 -0.4012  0.0783  0.0531
59453W        W 2370  13.069  15.750  26.388 -0.1089  0.0327 -0.1809
59454W        W 2371  13.054  15.508  21.415  0.1860 -0.2920  0.1143
59455W        W 2372  14.130  16.093  25.713 -0.3127 -0.1383  0.0263
59456W        W 2373  12.382  17.046  20.480  0.0424 -0.0195 -0.1890
59457W        W 2374  13.482  16.890  23.192 -0.0796  0.0451  0.1735
59458W        W 2375  12.628  18.491  24.560 -0.1840 -0.1780  0.0613
59459W        W 2376  13.507  17.451  24.597 -0.0317 -0.3773  0.0510
59460W        W 2377  12.640  18.545  22.568 -0.1654  0.0994 -0.1011
59461W        W 2378  13.763  16.354  21.958  0.0078  0.1115  0.1589
59462W        W 2379  11.653  13.635  24.342  0.0886 -0.0408  0.0120
59463W        W 2380  12.148  17.438  23.282  0.3210 -0.1848  0.1374
59464W        W 2381  12.639  15.787  21.996 -0.1388 -0.0955 -0.1550
59465W        W 2382  13.346  15.706  23.265  0.0880 -0.0446 -0.0990
59466W        W 2383  14.188  14.941  25.434  0.2236 -0.0512 -0.1797
59467W        W 2384  11.889  13.484  22.972 -0.0401  0.2575 -0.0380
59468W        W 2385  12.281  18.650  24.176 -0.1139  0.0169  0.2949
59469W        W 2386  14.545  17.306  25.671 -0.1266 -0.1214 -0.1450
59470W        W 2387  11.200  17.103  31.687  0.0075 -0.2154  0.2045
59471W        W 2388  12.419  16.648  27.718  0.0810 -0.1635  0.2335
59472W        W 2389  13.873  14.601  25.716  0.3621 -0.1154 -0.3114
59473W        W 2390  15.136  15.971  27.917  0.0762 -0.1943  0.2526
59474W        W 2391  10.550  14.280  29.282 -0.1000 -0.3417  0.1409
59475W        W 2392  14.741  19.186  28.516  0.1133  0.0014  0.2425
59476W        W 2393  11.976  14.027  31.152  0.2659 -0.0613 -0.2726
59477W        W 2394  12.880  19.113  24.372 -0.2011  0.2414 -0.1823
59478W        W 2395  12.823  16.831  28.640  0.1786  0.3259  0.2117
59479W        W 2396  14.572  17.687  25.977 -0.3186  0.0263  0.1744
59480W        W 2397  11.634  17.225  30.313  0.0657 -0.6828 -0.0633
59481W        W 2398  13.247  18.507  30.711 -0.0696  0.1693  0.0396
59482W        W 2399  14.638  15.765  28.481  0.1148  0.0224  0.3425
59483W        W 2400  11.665  15.681  30.149  0.1121 -0.0232 -0.1168
59484W        W 2401  15.898  17.446  26.172  0.0788 -0.3978 -0.2185
59485W        W 2402  11.064  17.532  26.790  0.0594 -0.1799  0.0856
59486W        W 2403  11.071  16.783  31.326 -0.0224  0.0044  0.0012
59487W        W 2404  13.149  17.785  25.808 -0.0289 -0.0281  0.0758
59488W        W 2405  13.720  18.268  28.415 -0.5674 -0.0865 -0.0898
59489W        W 2406  13.558  15.532  28.606  0.0538  0.1548  0.3895
59490W        W 2407  13.684  14.692  29.177  0.0529  0.0789  0.1227
59491W        W 2408  13.498  17.583  25.391  0.2523 -0.1457 -0.2761
59492W        W 2409  11.639  17.604  25.796  0.2981  0.0788  0.0073
59493W        W 2410  13.123  15.558  30.149  0.6242 -0.0300 -0.0459
59494W        W 2411  11.691  15.844  29.707  0.3712  0.0199  0.0414
59495W        W 2412  14.157  15.409  25.533  0.2671 -0.1210 -0.0464
59496W        W 2413  15.949  17.854  27.628 -0.0347  0.1976  0.0240
59497W        W 2414  12.074  16.431  30.953 -0.1784  0.1727  0.1616
59498W        W 2415  13.707  17.969  26.625  0.0172 -0.2787 -0.2428
59499W        W 2416  12.949  16.088   1.133  0.2471 -0.1175  0.2395
59500W        W 2417  12.253  17.080  28.509 -0.0210  0.0413  0.0773
59501W        W 2418  12.361  17.439  29.580  0.1760 -0.3202 -0.0382
59502W        W 2419  13.094  18.555  25.186 -0.0529  0.0651 -0.3847
59503W        W 2420  15.439  16.480  26.184 -0.1534 -0.0340 -0.0963
59504W        W 2421  14.385  14.991  28.623 -0.3265 -0.1477 -0.0067
59505W        W 2422  11.978  19.261  30.830 -0.0191 -0.0779  0.1209
59506W        W 2423  12.104  17.631  27.544 -0.2798 -0.1064  0.0480
59507W        W 2424  13.146  20.792  28.215 -0.0967 -0.1869 -0.0792
59508W        W 2425   9.686  19.274  29.848 -0.1974  0.1120  0.3397
59509W        W 2426  15.428  17.240  27.204  0.0022  0.1275  0.0044
59510W        W 2427  11.520  16.383  27.347 -0.0504  0.1491 -0.1704
59511W        W 2428  12.237  18.481  30.079  0.0702 -0.2727  0.2621
59512W        W 2429  14.072  16.128  26.699  0.2343 -0.0928 -0.2237
59513W        W 2430  10.069  16.933  30.558  0.2726 -0.0153  0.1376
59514W        W 2431   9.530  16.255  28.751  0.0841  0.2826 -0.0125
59515W        W 2432  13.886  14.196  29.011  0.0486 -0.2316 -0.0441
59516W        W 2433  12.436  16.715  27.029 -0.0878  0.2517  0.0326
59517W        W 2434  16.520  16.604  26.399 -0.0325 -0.1875  0.1555
59518W        W 2435  12.698  14.593  26.490  0.0779  0.0142 -0.0040
59519W        W 2436  11.709  15.660  23.474 -0.1616  0.2164  0.0510
59520W        W 2437  13.756  15.834  29.741  0.0145  0.3074 -0.0142
59521W        W 2438  14.366  15.617  29.442 -0.2327 -0.2012  0.2151
59522W        W 2439  12.129  15.955  28.356 -0.2582  0.1443  0.0123
59523W        W 2440  14.910  15.673  28.951  0.0568  0.0870  0.1300
59524W        W 2441  11.439  17.073  27.381  0.2413 -0.1011 -0.2512
59525W        W 2442  13.888  15.456  28.022 -0.1323  0.0877 -0.1322
59526W        W 2443  14.541  16.963  28.973  0.2494 -0.0189  0.0368
59527W        W 2444  11.310  16.547  28.372  0.0280 -0.0101 -0.0288
59528W        W 2445  14.331  18.173  25.188  0.1046  0.3104  0.3752
59529W        W 2446  14.751  18.202  26.184 -0.0951  0.1001 -0.1581
59530W        W 2447  14.411  17.834  24.823  0.3405  0.1142  0.1851
59531W        W 2448  11.700  17.465  24.477 -0.0609  0.2676  0.2082
59532W        W 2449  11.604  17.311  31.505 -0.2229 -0.0461  0.1935
59533W        W 2450  11.611  16.803  29.667  0.1520  0.0350  0.1672
59534W        W 2451  13.470  13.560  25.672  0.0347 -0.1692 -0.0762
59535W        W 2452  15.372  15.670  29.452 -0.0243  0.1540 -0.1043
59536W        W 2453   9.930  16.144  30.157  0.2650 -0.2139  0.0145
59537W        W 2454  15.325  17.502  27.916 -0.1911 -0.5162 -0.0432
59538W        W 2455  13.920  15.570  30.242  0.1322 -0.2431 -0.2054
59539W        W 2456  15.647  15.208  25.748  0.0028  0.1995 -0.0456
59540W        W 2457  13.492  18.012  24.570 -0.0554 -0.2118  0.1435
59541W        W 2458  14.437  14.443  25.171 -0.1179  0.1443 -0.1711
59542W        W 2459  13.335  13.925  27.475  0.1494 -0.2383 -0.1905
59543W        W 2460  12.194  18.809  27.705  0.0413  0.1421 -0.1302
59544W        W 2461  13.404  16.223  26.584 -0.3052  0.0843  0.2661
59545W        W 2462  11.866  15.493  28.132 -0.0664 -0.1524 -0.0373
59546W        W 2463  14.159  15.653  24.871  0.1553 -0.2546 -0.1736
59547W        W 2464  11.817  18.264  29.262  0.1000  0.1544  0.2175
59548W        W 2465  13.959  16.205   2.030 -0.0574  0.4393  0.2911
59549W        W 2466  13.722  17.032  30.049 -0.0438  0.0832  0.0093
59550W        W 2467  12.701  19.464  22.852  0.1832  0.1554 -0.0586
59551W        W 2468  11.386  17.149  29.355  0.2058  0.2092  0.3073
59552W        W 2469  13.023  16.644  29.190  0.0307  0.3144 -0.3398
59553W        W 2470  11.822  13.941  28.106 -0.2512 -0.1447 -0.0952
59554W        W 2471  13.020  16.031  28.231  0.4298  0.0563  0.0039
59555W        W 2472  14.978  14.548  25.623 -0.2830 -0.1015 -0.1909
59556W        W 2473  10.563  17.115  30.578 -0.1456 -0.3679  0.3806
59557W        W 2474  16.969  17.093  27.230 -0.2357  0.0447  0.0589
59558W        W 2475  11.083  18.555  30.272 -0.2035  0.0009  0.1177
59559W        W 2476  15.917  18.331  25.639  0.2390  0.1730  0.1278
59560W        W 2477  15.572  16.344  26.658 -0.1723 -0.0779 -0.0694
59561W        W 2478  14.957  16.367  25.817  0.0137  0.2339  0.2367
59562W        W 2479  12.808  16.435  30.348  0.0160  0.3202 -0.2282
59563W        W 2480  12.087  16.214  26.456  0.1033 -0.2041 -0.1000
59564W        W 2481  12.320  14.066  31.938  0.0443 -0.0906  0.0671
59565W        W 2482  11.175  15.602  30.305 -0.2404  0.0558 -0.3085
59566W        W 2483  13.084  15.358  27.799  0.2679  0.2078 -0.0006
59567W        W 2484  12.259  15.418  29.303  0.1952 -0.1435 -0.0918
59568W        W 2485  15.734  16.714  27.079 -0.1673 -0.0036  0.1519
59569W        W 2486  13.799  16.599  26.986  0.1130 -0.0248  0.1292
59570W        W 2487  11.105  16.442  30.655 -0.0187 -0.0995  0.2978
59571W        W 2488  11.743  15.028  31.018 -0.1298  0.1307  0.3629
59572W        W 2489  14.982  17.719  27.548  0.3137 -0.1929  0.0674
59573W        W 2490  14.255  16.680  28.634 -0.2605  0.3973 -0.1092
59574W        W 2491  14.928  17.192  27.137 -0.2177 -0.0645  0.1180
59575W        W 2492  12.905  13.478  30.580  0.1307  0.2742  0.0162
59576W        W 2493  13.373  17.169  26.434  0.1264  0.0397  0.0162
59577W        W 2494  11.681  17.398  27.726  0.2603 -0.0475 -0.0835
59578W        W 2495  11.412  17.446  28.270  0.0496  0.0056  0.2939
59579W        W 2496  13.516  15.304  30.002  0.0029 -0.0369 -0.3840
59580W        W 2497  15.911  17.163  24.692 -0.0288 -0.2692  0.1103
59581W        W 2498  14.747  16.097  24.895 -0.0769 -0.1183 -0.1792
59582W        W 2499  12.692  16.845  29.574 -0.1355 -0.1129  0.0159
59583W        W 2500  15.198  14.616  30.531  0.2046  0.2621 -0.1951
59584W        W 2501  15.919  16.102  27.094 -0.0420 -0.1245 -0.2419
59585W        W 2502  14.842  16.444  25.319 -0.2746 -0.0658  0.1657
59586W        W 2503  11.823  12.925  26.582  0.0512  0.1370 -0.1533
59587W        W 2504  13.438  17.977  27.603  0.0192 -0.0577 -0.3212
59588W        W 2505  11.640  18.380  26.926 -0.0518  0.1021  0.3379
59589W        W 2506  14.017  17.507  27.359  0.2983  0.1998  0.1284
59590W        W 2507  11.359  15.331  29.980 -0.4309 -0.1571  0.1508
59591W        W 2508  12.882  14.174  28.723 -0.0142 -0.0541  0.0276
59592W        W 2509  12.340  16.535  29.989  0.0304 -0.0979  0.0608
59593W        W 2510  14.217  15.152  29.334 -0.2184  0.3225 -0.0492
59594W        W 2511  11.368  14.765  24.156 -0.1447  0.1113  0.3563
59595W        W 2512  12.447  18.789  31.373  0.0060  0.1273 -0.3232
59596W        W 2513  13.746  17.004  26.070 -0.3791 -0.3801 -0.0589
59597W        W 2514  13.401  15.164  26.575 -0.0757  0.0495  0.1834
59598W        W 2515  12.942  16.276  30.851 -0.1947  0.2203 -0.0642
59599W        W 2516  12.796  17.233  24.862 -0.2188  0.4435  0.1062
59600W        W 2517  11.554  14.653  27.660 -0.4082  0.1781  0.0222
59601W        W 2518  12.723  16.840  30.093 -0.2154  0.0302  0.2634
59602W        W 2519   9.418  17.356  30.194  0.0014  0.0044 -0.1555
59603W        W 2520  12.336  17.844  28.626  0.1093  0.1371  0.1390
59604W        W 2521  12.485  16.181  28.892 -0.1849  0.2106 -0.0947
59605W        W 2522  14.431  16.160  24.315  0.1287  0.0332 -0.1005
59606W        W 2523   9.815  17.891  29.872 -0.0731 -0.1328 -0.0703
59607W        W 2524  15.035  15.882  30.404 -0.2326  0.0736 -0.0409
59608W        W 2525  14.774  16.863  26.729  0.4110 -0.1656  0.0255
59609W        W 2526  13.386  12.890  28.942 -0.2547 -0.0231 -0.0283
59610W        W 2527  13.538  15.083  24.489  0.3934 -0.1842 -0.1295
59611W        W 2528  14.372  15.026  27.497 -0.3355 -0.0860 -0.0504
59612W        W 2529  11.991  18.318  25.228 -0.2845 -0.0455  0.0813
59613W        W 2530  14.169  15.916  27.230  0.2856 -0.0775  0.2838
59614W        W 2531  15.204  12.338  28.739  0.4147 -0.0010  0.1076
59615W        W 2532  13.959  14.286  29.531 -0.0348  0.1991  0.0235
59616W        W 2533  14.275  13.166  28.766 -0.2780  0.0415 -0.1704
59617W        W 2534  13.368  17.281  25.884 -0.1488  0.1272 -0.0390
59618W        W 2535  13.208  17.950  26.667  0.0235 -0.0625  0.1725
59619W        W 2536  14.414  15.848  23.434  0.3261 -0.4477  0.3417
59620W        W 2537  10.826  15.329  30.992 -0.4735 -0.0599 -0.1283
59621W        W 2538  11.766  16.282  31.878  0.3394 -0.1576 -0.0623
59622W        W 2539  11.328  18.730  31.019  0.5033 -0.0371  0.0326
59623W        W 2540  14.167  14.455  30.059  0.1672 -0.4167 -0.0013
59624W        W 2541  13.865  16.766  26.534 -0.2808  0.0212  0.0591
59625W        W 2542  12.568  15.329  27.857 -0.1377 -0.3065  0.1609
59626W        W 2543  13.794  15.562  27.447 -0.0402 -0.0432 -0.0530
59627W        W 2544  10.785  18.010  29.949  0.2576 -0.1753  0.2141
59628W        W 2545  13.575  17.556  27.153 -0.0188 -0.3902  0.2000
59629W        W 2546  12.182  14.277  30.665  0.3956  0.0253  0.1275
59630W        W 2547  12.832  15.434  30.609 -0.1287 -0.2987  0.0154
59631W        W 2548  12.625  18.481  25.055  0.0839 -0.2279  0.1857
59632W        W 2549  12.261  16.226  29.654  0.3293  0.0594 -0.2558
59633W        W 2550  12.873  16.280  28.641 -0.0901  0.0842  0.4169
59634W        W 2551  15.362  13.407  28.042 -0.0008 -0.1800  0.1178
59635W        W 2552  11.539  18.497  27.909  0.0063  0.2365  0.3076
59636W        W 2553   9.675  16.875  28.028 -0.2145 -0.0042 -0.1288
59637W        W 2554  10.116  15.763  26.675 -0.2981 -0.0641 -0.0589
59638W        W 2555  14.105  15.766  26.363 -0.0829 -0.0073  0.3374
59639W        W 2556  14.624  16.924  25.233 -0.2135  0.1716  0.0721
59640W        W 2557  13.305  15.331  29.195 -0.1443 -0.1011  0.3711
59641W        W 2558  13.924  15.992  27.658 -0.0547 -0.2736 -0.1871
59642W        W 2559  11.478  18.415  28.927 -0.2746  0.0989  0.1946
59643W        W 2560  14.118  17.793  26.943  0.1681  0.3761  0.2948
59644W        W 2561  12.936  15.468  26.847  0.1269 -0.1377  0.3859
59645W        W 2562  12.571  15.575  31.383  0.1844 -0.0305  0.0992
59646W        W 2563  12.675  17.960   0.390  0.0323 -0.0939 -0.2606
59647W        W 2564  12.276  15.691  28.828 -0.2946  0.1168  0.0675
59648W        W 2565  13.836  15.924  28.199  0.2218  0.1899 -0.1161
59649W        W 2566  10.979  16.176  29.095  0.2635  0.1211  0.0126
59650W        W 2567  11.241  16.135  30.279 -0.0475  0.1791  0.2462
59651W        W 2568  14.253  16.850  26.913 -0.1573  0.1333  0.1437
59652W        W 2569  11.274  16.825  25.543 -0.1047 -0.0382  0.1061
59653W        W 2570  12.072  16.921  28.939 -0.0132  0.0120 -0.0164
59654W        W 2571  13.075  16.515  31.822 -0.4686 -0.0078 -0.0328
59655W        W 2572  13.409  17.463  29.807  0.2009 -0.1684 -0.1089
59656W        W 2573  11.205  14.717  30.168 -0.2589 -0.4095  0.1004
59657W        W 2574  11.983  15.189  27.712 -0.1057  0.1555  0.3956
59658W        W 2575  11.831  16.692  28.344  0.1499  0.2359 -0.4846
59659W        W 2576  13.043  16.300  27.730 -0.1709 -0.1324 -0.1371
59660W        W 2577  12.372  14.938  29.064  0.1177  0.2534  0.0508
59661W        W 2578  12.012  17.131  31.393  0.0334 -0.1134 -0.0177
59662W        W 2579  13.480  14.959  29.599 -0.0848  0.0280 -0.1837
59663W        W 2580  11.912  16.808  30.108 -0.1117  0.1435  0.2839
59664W        W 2581  13.139  16.571  28.239  0.1384  0.2289 -0.0307
59665W        W 2582  10.960  15.820  30.876 -0.1488 -0.0382  0.1017
59666W        W 2583  12.632  17.667  24.550 -0.0593  0.2510  0.1896
59667W        W 2584  13.102  13.394  30.003 -0.1758  0.3244 -0.2593
59668W        W 2585  11.300  17.296  31.135  0.0373  0.3313  0.0963
59669W        W 2586  14.267  18.337  26.072  0.0116 -0.0443 -0.1640
59670W        W 2587  12.579  19.164  29.207 -0.1192 -0.2119  0.1204
59671W        W 2588  14.636  15.731  27.272  0.1000 -0.1319  0.1247
59672W        W 2589  14.704  17.073  24.730 -0.3106  0.3426  0.2573
59673W        W 2590  11.995  15.277  28.785 -0.1038  0.0137 -0.0516
59674W        W 2591  15.732  14.606  29.785  0.0631  0.0743 -0.0033
59675W        W 2592  15.168  15.385  25.297 -0.3556  0.0371  0.3680
59676W        W 2593  13.152  17.483   0.465 -0.1418 -0.0215  0.0071
59677W        W 2594  15.110  12.732  29.950  0.1892  0.0967 -0.0087
59678W        W 2595  14.697  18.131  25.683  0.0275 -0.1088  0.1838
59679W        W 2596  11.401  14.398  28.943  0.1037 -0.1728  0.1116
59680W        W 2597  14.330  18.701  28.926 -0.1091 -0.1130  0.0878
59681W        W 2598  11.826  16.261  30.008 -0.0462  0.1264 -0.0675
59682W        W 2599  14.475  15.009  25.831  0.4778  0.4075  0.0023
59683W        W 2600  12.956  14.127  26.447  0.1320 -0.1829 -0.0268
59684W        W 2601  13.913  14.920  27.841  0.0368  0.1973  0.0459
59685W        W 2602  15.197  16.277  25.004 -0.0196  0.0834 -0.0053
59686W        W 2603  13.860  17.212  26.960  0.2790  0.0260 -0.0166
59687W        W 2604  13.596  15.040  28.770  0.0685  0.2980  0.0720
59688W        W 2605  12.407  15.832  31.776  0.2422 -0.1207 -0.0928
59689W        W 2606  14.756  16.640  26.200  0.2483  0.3000  0.0329
59690W        W 2607  12.263  17.770  27.090 -0.0737 -0.2293 -0.1125
59691W        W 2608  12.760  15.387  28.648 -0.0441  0.0363 -0.4066
59692W        W 2609  12.641  15.283  31.781  0.0643 -0.0321  0.1080
59693W        W 2610  12.716  16.983  28.157 -0.4970  0.1544  0.2254
59694W        W 2611  13.037  17.561  26.374  0.1963  0.0078  0.2379
59695W        W 2612  12.891  15.827  27.641  0.1583  0.1663  0.3382
59696W        W 2613  14.304  16.157  28.505 -0.0359 -0.0328  0.2746
59697W        W 2614  11.159  17.730  29.778 -0.0095  0.1251  0.3035
59698W        W 2615  11.570  16.526  30.434 -0.0825 -0.2722 -0.0772
59699W        W 2616  14.161  16.597  30.091 -0.2281  0.0225  0.1530
59700W        W 2617  15.390  14.713  27.494 -0.1904  0.0493  0.0766
59701W        W 2618  14.754  15.673  29.775  0.0729 -0.0180  0.0662
59702W        W 2619  14.481  16.513  25.791 -0.3122  0.1107  0.1459
59703W        W 2620  13.483  16.495  26.138 -0.1580  0.2113 -0.0315
59704W        W 2621  11.196  15.816  29.819  0.0469  0.0358 -0.2830
59705W        W 2622  14.193  18.001  31.374 -0.1244 -0.0794 -0.0496
59706W        W 2623  10.866  14.937  26.869  0.2357 -0.1748  0.1224
59707W        W 2624  11.947  17.411  31.812  0.0197 -0.3055  0.0015
59708W        W 2625  13.495  17.802  26.194  0.2299 -0.2285 -0.0226
59709W        W 2626  13.302  16.219  30.420  0.1524 -0.2154  0.0665
59710W        W 2627  13.736  14.775  26.615 -0.2124 -0.0345 -0.0654
59711W        W 2628  10.727  16.109  27.304 -0.0923  0.1016  0.4580
59712W        W 2629   9.423  17.905  30.168  0.0611 -0.3090 -0.1378
59713W        W 2630  11.617  14.865  28.879  0.0971 -0.2693 -0.1497
59714W        W 2631  12.687  15.730  29.062 -0.1180  0.2107  0.2703
59715W        W 2632  11.575  16.416  27.931 -0.2974  0.2011  0.0863
59716W        W 2633  11.925  15.838  31.657  0.3215 -0.0484  0.1549
59717W        W 2634  12.278  15.799  26.225  0.2237  0.3147  0.1174
59718W        W 2635  15.042  14.594  27.987 -0.1963  0.1146  0.1154
59719W        W 2636  11.620  16.994  28.641  0.0474  0.2444 -0.2074
59720W        W 2637  12.754  14.015  27.856 -0.1148  0.3573 -0.0337
59721W        W 2638  13.067  16.997   0.073  0.1264 -0.0046  0.2143
59722W        W 2639  12.395  17.586  30.121 -0.1811 -0.0986  0.0607
59723W        W 2640  12.313  17.090  29.957 -0.0574  0.1594  0.1956
59724W        W 2641  13.307  15.508  27.254 -0.0318  0.0461  0.4372
59725W        W 2642  14.820  14.682  27.545  0.2868  0.2999  0.1508
59726W        W 2643  12.870  15.555  28.230  0.0441  0.0883 -0.2882
59727W        W 2644  14.477  15.578  30.182 -0.1383  0.0864 -0.0734
59728W        W 2645  13.054  15.220  29.696 -0.3041  0.0310 -0.0263
59729W        W 2646  15.133  15.910  27.403 -0.0756  0.0249  0.4532
59730W        W 2647  10.752  18.187  30.411  0.1278  0.1988 -0.0241
59731W        W 2648  14.790  14.821  24.608  0.0279 -0.0860  0.0423
59732W        W 2649  11.262  16.428  29.808  0.1542 -0.0752 -0.4109
59733W        W 2650  11.601  15.809   0.160 -0.1237 -0.1333 -0.0700
59734W        W 2651  13.261  16.658  30.191 -0.3313 -0.1451  0.1189
59735W        W 2652  13.320  15.802  26.852 -0.1857  0.3519  0.0242
59736W        W 2653  13.345  15.471  25.413 -0.0783 -0.0722  0.1036
59737W        W 2654  14.900  17.916  24.867  0.0544  0.2572 -0.1457
59738W        W 2655  10.163  18.477  30.011  0.2083  0.1291  0.2713
59739W        W 2656  10.604  16.860  28.593 -0.2210 -0.1666 -0.1589
59740W        W 2657  12.216  19.076  26.606  0.1340  0.3587  0.0152
59741W        W 2658  13.872  17.836  24.980  0.3508 -0.1522  0.1004
59742W        W 2659  11.756  16.313  29.472 -0.3870 -0.1642  0.1684
59743W        W 2660  14.826  17.396  29.289 -0.3236  0.0049  0.1530
59744W        W 2661  13.756  15.697  25.707  0.0339  0.0810 -0.1761
59745W        W 2662  12.793  18.462  28.092 -0.1576  0.0985 -0.0211
59746W        W 2663  11.689  18.258  26.148 -0.1529 -0.1872  0.1760
59747W        W 2664  14.267  16.938  25.668  0.0945  0.2821 -0.0472
59748W        W 2665  10.892  16.798  27.498  0.0488 -0.2722 -0.1257
59749W        W 2666  12.990  17.630  31.029 -0.1481 -0.4518  0.0481
59750W        W 2667  15.179  15.004  25.734 -0.1368 -0.4097  0.0101
59751W        W 2668  15.318  15.022  26.244  0.0360 -0.1282 -0.1845
59752W        W 2669  15.619  14.781  25.932  0.0176 -0.0930  0.0117
59753W        W 2670  12.444  18.870  29.617  0.1611  0.2225 -0.1207
59754W        W 2671  13.137  16.018  29.921 -0.2317 -0.1216 -0.0950
59755W        W 2672  14.504  12.656  24.973 -0.1820 -0.0639  0.4240
59756W        W 2673  10.997  16.625   1.739 -0.0641 -0.0857  0.1449
59757W        W 2674  14.530  14.740  27.081  0.2035  0.2758  0.0186
59758W        W 2675  11.642  16.765  29.137 -0.0092  0.1540 -0.1268
59759W        W 2676  14.307  18.985  23.570  0.1148  0.1168  0.0178
59760W        W 2677  12.914  16.485  26.761 -0.3104 -0.1343  0.2519
59761W        W 2678  11.880  17.224  28.200  0.1258 -0.0525  0.0551
59762W        W 2679  14.896  15.105  28.843 -0.2844 -0.2232  0.0772
59763W        W 2680  12.772  16.389  23.247 -0.1873 -0.0624  0.0359
59764W        W 2681  13.848  15.727  26.862  0.0783  0.1067 -0.2093
59765W        W 2682  12.841  17.552  28.198 -0.1805  0.1690  0.2758
59766W        W 2683  11.221  16.054  27.954  0.4121 -0.3780  0.1963
59767W        W 2684  12.341  17.914  29.171 -0.1152 -0.0250 -0.2277
59768W        W 2685  10.933  13.997  26.805  0.1039  0.0274 -0.1481
59769W        W 2686  15.090  16.032  25.479  0.3174 -0.0751  0.0386
59770W        W 2687  11.522  15.066  30.495  0.0214 -0.4017  0.0550
59771W        W 2688  14.211  14.533  27.532  0.0702 -0.0401  0.1110
59772W        W 2689  12.732  16.335  27.247 -0.2846 -0.1623 -0.0526
59773W        W 2690  15.496  15.178  27.273  0.1397 -0.1704  0.0153
59774W        W 2691  11.971  17.559  30.477 -0.2183  0.2514 -0.0188
59775W        W 2692  13.868  14.416  27.967 -0.0858 -0.1679  0.1707
59776W        W 2693  14.489  15.214  24.586  0.1127 -0.2212 -0.1506
59777W        W 2694  15.936  16.205  28.933 -0.1090 -0.1090 -0.2833
59778W        W 2695  12.514  14.836  27.802 -0.5853 -0.0259  0.0237
59779W        W 2696  14.671  17.108  28.425  0.0295  0.3309 -0.0088
59780W        W 2697  12.239  14.749  26.583 -0.1632 -0.0636  0.0995
59781W        W 2698  14.841  16.840  25.670 -0.1883 -0.0890 -0.1328
59782W        W 2699  10.880  15.796  27.735 -0.0794 -0.3115 -0.1479
59783W        W 2700  12.264  14.561  31.757  0.0827  0.1842 -0.1760
59784W        W 2701  15.817  19.105  26.128  0.2163 -0.1244 -0.0413
59785W        W 2702   9.805  13.721  28.600 -0.3312  0.3936 -0.2494
59786W        W 2703  13.662  17.152  27.441 -0.0091 -0.0315 -0.2420
59787W        W 2704  14.602  14.259  27.860 -0.0344 -0.0693 -0.0836
59788W        W 2705  14.142  18.067  25.712 -0.2075  0.2757 -0.0241
59789W        W 2706  15.563  16.990  27.912  0.1025  0.1725  0.2553
59790W        W 2707  14.793  15.532  26.574 -0.0521  0.0687  0.3244
59791W        W 2708  11.671  13.832  29.731  0.1844  0.2524  0.0523
59792W        W 2709  12.806  19.732  28.470  0.0119 -0.1439  0.3826
59793W        W 2710  13.422  16.960  27.005 -0.0573 -0.0849  0.0133
59794W        W 2711  15.116  13.385  27.478 -0.3799  0.2937 -0.2824
59795W        W 2712  12.980  15.149  25.544 -0.0357  0.0086  0.1791
59796W        W 2713  10.791  17.871  28.936 -0.2206 -0.0564 -0.0366
59797W        W 2714  15.725  16.611  27.594 -0.0438  0.0552 -0.0911
59798W        W 2715  15.013  16.132  29.823  0.1573 -0.1147 -0.0944
59799W        W 2716  10.753  18.871  26.191 -0.1525 -0.1099 -0.0635
59800W        W 2717  15.141  15.464  28.103  0.0984  0.1643  0.0045
59801W        W 2718  12.147  15.729  29.924  0.1224  0.2237 -0.3414
59802W        W 2719  11.148  18.931  31.552  0.0661 -0.1011  0.2897
59803W        W 2720  12.095  16.906  26.730 -0.0366  0.0388 -0.0585
59804W        W 2721  12.758  17.650  29.121 -0.1249  0.0234 -0.3089
59805W        W 2722  13.557  18.091  27.097  0.0177 -0.0338  0.0416
59806W        W 2723  13.686  16.771  27.965 -0.3147 -0.0162  0.1744
59807W        W 2724  16.016  16.218  25.157  0.0842 -0.1591  0.0808
59808W        W 2725  12.792  13.430  28.183  0.2000 -0.0972 -0.2208
59809W        W 2726  16.033  15.684  25.966 -0.2503 -0.0466 -0.0850
59810W        W 2727  11.690  15.987  28.971 -0.1409 -0.2070 -0.0980
59811W        W 2728  15.867  12.599  25.763 -0.4192 -0.2921 -0.2437
59812W        W 2729  14.402  13.309  26.776  0.1352 -0.2460 -0.1963
59813W        W 2730  13.448  18.105  29.177 -0.1114  0.3257  0.0366
59814W        W 2731  13.206  18.203  26.107 -0.0402 -0.1973  0.0434
59815W        W 2732  13.514  17.535  26.678 -0.2227 -0.1248  0.0360
59816W        W 2733  10.149  17.100  29.688  0.5838 -0.0035  0.4870
59817W        W 2734  13.191  14.823  29.252  0.0253 -0.1752 -0.0246
59818W        W 2735   9.768  15.340   1.030 -0.2058  0.1233  0.2374
59819W        W 2736  11.327  17.253  29.843 -0.0306 -0.0654  0.0261
59820W        W 2737  11.646  16.089  26.517 -0.1580 -0.0276 -0.2335
59821W        W 2738  15.213  18.343  24.643  0.1610  0.0390  0.3332
59822W        W 2739  12.532  13.895  29.202 -0.1707  0.0283  0.0648
59823W        W 2740  12.560  15.760  29.540 -0.1490 -0.0405  0.1175
59824W        W 2741  14.808  17.624  26.933  0.0883 -0.0342  0.1565
59825W        W 2742  13.699  16.878  29.066 -0.2073 -0.1765 -0.4791
59826W        W 2743  12.041  18.048  25.769  0.0107  0.0234  0.6407
59827W        W 2744  12.696  18.312  28.768 -0.2158  0.1027 -0.0476
59828W        W 2745  12.595  17.195  26.872  0.2164  0.0985  0.4052
59829W        W 2746  12.155  15.635  30.433 -0.2203  0.0385  0.3447
59830W        W 2747  12.777  14.792  31.894  0.3172  0.3317 -0.1152
59831W        W 2748  12.704  13.381  27.124  0.4716 -0.1860  0.1065
59832W        W 2749  12.665  14.350  30.927 -0.0936 -0.1826  0.1251
59833W        W 2750  14.499  17.353  27.484  0.1279 -0.2278 -0.0759
59834W        W 2751  15.313  19.184  24.770 -0.0742  0.0522  0.0128
59835W        W 2752  13.183  17.029  29.925  0.1580  0.1563 -0.1497
59836W        W 2753  14.718  15.097  29.934 -0.1856  0.0264 -0.2516
59837W        W 2754  11.203  16.554  29.312 -0.2192 -0.0015  0.1522
59838W        W 2755  14.042  17.017  24.032  0.2263 -0.5868 -0.3087
59839W        W 2756  12.889  15.946  30.427 -0.0135  0.2259  0.1232
59840W        W 2757  14.516  16.191  26.132 -0.1270 -0.0977 -0.1480
59841W        W 2758  14.790  15.392  29.337 -0.0881  0.0331 -0.1597
59842W        W 2759  14.604  16.633  24.123  0.0891 -0.4117  0.0813
59843W        W 2760  12.746  15.310  29.296 -0.0022  0.0393 -0.2807
59844W        W 2761  10.121  17.093  31.074  0.0031 -0.0117  0.0429
59845W        W 2762  14.682  16.124  28.112  0.0164  0.1237 -0.2182
59846W        W 2763  12.553  14.469  28.210  0.0190 -0.0583  0.3573
59847W        W 2764  15.837  16.097  26.138  0.2779 -0.1348  0.0631
59848W        W 2765  15.618  16.977  26.281 -0.0949  0.0536  0.1447
59849W        W 2766  12.103  15.949  29.261  0.2470  0.1414  0.1668
59850W        W 2767  15.333  14.881  25.285 -0.2205 -0.0336  0.0641
59851W        W 2768  13.023  14.448  27.316  0.0955  0.3370 -0.1072
59852W        W 2769  14.213  19.548  27.172  0.3235  0.1473 -0.1770
59853W        W 2770  10.262  17.454  30.672 -0.0828  0.0414 -0.0921
59854W        W 2771  13.664  15.284  27.021  0.1194  0.1175  0.0388
59855W        W 2772  14.168  16.902  28.202 -0.0352  0.0750  0.1779
59856W        W 2773  12.104  18.453  30.603 -0.0532 -0.0306  0.2236
59857W        W 2774  15.035  16.703  28.922 -0.0350  0.0923  0.3587
59858W        W 2775  14.932  18.145  27.116  0.0940  0.1825  0.1418
59859W        W 2776  11.495  15.865  30.656  0.3039 -0.1828 -0.4751
59860W        W 2777  10.875  18.334  27.912  0.0653 -0.2373 -0.2370
59861W        W 2778  12.316  17.575  28.056  0.5043  0.0198  0.2069
59862W        W 2779  14.773  16.264  27.242 -0.3315  0.0340 -0.0062
59863W        W 2780  11.934  16.094  30.530  0.0765  0.0675  0.0885
59864W        W 2781  13.533  14.290  26.591  0.0814 -0.1892  0.0112
59865W        W 2782  12.881  18.168  29.285 -0.0573  0.3291  0.3303
59866W        W 2783  12.368  16.610  28.569  0.2137  0.2048  0.0505
59867W        W 2784  13.534  15.883  30.167  0.1901 -0.2243  0.1237
59868W        W 2785   9.619  15.167  31.059  0.2708  0.1084 -0.0141
59869W        W 2786  11.491  14.503   0.437 -0.1437 -0.0635 -0.1846
59870W        W 2787  12.620  19.234   0.779 -0.2180  0.2342  0.5803
59871W        W 2788  11.817  16.886  30.644  0.1368 -0.0530  0.1776
59872W        W 2789  12.411  16.628  31.404  0.0130  0.1020  0.2009
59873W        W 2790  15.237  15.283  29.160  0.5027 -0.0855  0.0253
59874W        W 2791  12.525  16.352   0.962 -0.0446 -0.1277 -0.0827
59875W        W 2792  13.130  15.710   0.525  0.3595  0.2921  0.0132
59876W        W 2793  14.656  15.722  27.784 -0.0258 -0.4080  0.0767
59877W        W 2794  13.751  17.896  30.656  0.1378  0.0274 -0.0952
59878W        W 2795  11.730  16.525   1.276 -0.1301  0.5268  0.1948
59879W        W 2796  12.737  16.258  31.587  0.1394 -0.0943 -0.0906
59880W        W 2797  10.635  16.970  31.700 -0.0137 -0.0563  0.0065
59881W        W 2798  12.444  17.564   0.060  0.2079  0.2269  0.1234
59882W        W 2799  12.170  19.117   0.146 -0.1479  0.0765  0.1031
59883W        W 2800  12.035  18.552  31.646 -0.0158  0.2308 -0.0232
59884W        W 2801  13.700  19.609  27.936 -0.1365  0.0222  0.2715
59885W        W 2802  13.130  15.488   0.045  0.1294 -0.0248 -0.1909
59886W        W 2803  13.101  14.427   0.123  0.0586 -0.1591  0.0658
59887W        W 2804  12.834  13.593  29.500  0.0821  0.2323 -0.3158
59888W        W 2805  11.698  18.462  31.124 -0.0467 -0.1634 -0.1302
59889W        W 2806  14.486  15.354  28.932 -0.2737  0.0089  0.0904
59890W        W 2807  12.179  17.022   1.117 -0.2094 -0.4095  0.0421
59891W        W 2808  11.719  12.754  30.345  0.0417 -0.1551  0.3805
59892W        W 2809  13.043  15.356  31.485  0.1932  0.0440  0.0250
59893W        W 2810  10.364  16.408   1.771 -0.1626 -0.0454  0.0302
59894W        W 2811  12.333  16.063  30.234 -0.0244 -0.0977  0.0846
59895W        W 2812  13.298  14.388  28.892 -0.0939  0.3259 -0.0719
59896W        W 2813  11.659  17.952  30.458 -0.1792  0.1020  0.0078
59897W        W 2814  11.917  17.698  31.216 -0.1514 -0.0478  0.0632
59898W        W 2815  11.255  14.872   1.221  0.1156  0.0437 -0.0877
59899W        W 2816  13.138  17.087  30.425  0.3049  0.0736 -0.0965
59900W        W 2817  13.765  15.371  29.506 -0.3792 -0.0397 -0.1906
59901W        W 2818  11.485  14.486  31.815  0.0025 -0.1216  0.2167
59902W        W 2819  14.061  17.158  28.622 -0.1754  0.0364 -0.3582
59903W        W 2820  12.591  15.617  30.196 -0.2201  0.1280  0.1080
59904W        W 2821  12.307  17.027   0.167 -0.0323  0.0734  0.1067
59905W        W 2822  11.158  15.293  31.340 -0.2696  0.1885 -0.0740
59906W        W 2823  12.285  14.955  31.529 -0.1727 -0.1640 -0.0888
59907W        W 2824  15.492  14.863  28.881 -0.0095 -0.0169  0.1090
59908W        W 2825  12.775  15.853  30.973  0.3889 -0.1532 -0.5082
59909W        W 2826  10.441  15.759  30.902 -0.2081 -0.1962  0.2857
59910W        W 2827  14.709  17.375  30.079  0.1938 -0.0593 -0.0166
59911W        W 2828  12.281  16.667   1.610  0.0623 -0.0804  0.0140
59912W        W 2829  10.389  16.020   1.431 -0.1106  0.1266  0.2324
59913W        W 2830  14.073  17.363  30.718 -0.0735 -0.1172  0.0247
59914W        W 2831  14.772  15.917  29.316  0.1199 -0.2712 -0.0310
59915W        W 2832  14.902  18.286   0.261  0.0124  0.4253 -0.1024
59916W        W 2833  10.287  19.047  30.141  0.1231  0.0981 -0.0239
59917W        W 2834  15.414  18.585  28.725  0.1395 -0.0053 -0.0400
59918W        W 2835  16.208  13.409  28.825  0.1174  0.0637  0.1138
59919W        W 2836  14.397  14.752  27.952 -0.1801  0.4989  0.1107
59920W        W 2837  13.275  15.746  30.668  0.2014  0.0452  0.2473
59921W        W 2838  13.011  16.674   1.525  0.0398 -0.0775  0.0194
59922W        W 2839  13.069  16.594   0.811 -0.0563  0.0326  0.1462
59923W        W 2840  12.299  17.369  28.963 -0.3206 -0.2352 -0.1454
59924W        W 2841  11.054  17.975  30.788  0.1616  0.1231  0.2242
59925W        W 2842  13.071  18.660   0.956 -0.1233  0.1080  0.1840
59926W        W 2843  11.021  17.547   1.337 -0.0556  0.1901  0.2813
59927W        W 2844  11.754  17.400   0.760  0.0061 -0.4591 -0.0473
59928W        W 2845  11.624  16.130   0.969  0.0262  0.1115 -0.2478
59929W        W 2846  12.350  15.446   0.509 -0.2171 -0.1213 -0.0537
59930W        W 2847  11.823  14.614  31.391  0.0482  0.0494  0.1542
59931W        W 2848  13.440  16.172  28.476 -0.1028 -0.0875  0.2003
59932W        W 2849  14.054  17.722   0.396 -0.2020  0.0506 -0.5543
59933W        W 2850  14.662  16.103  30.821 -0.1399  0.2357 -0.0024
59934W        W 2851  11.538  21.008  16.694 -0.2855 -0.0081  0.0461
59935W        W 2852  12.186  18.971  16.020  0.2788  0.0271  0.1506
59936W        W 2853  12.496  18.146  15.885 -0.1541 -0.0081  0.2433
59937W        W 2854  12.744  21.905  16.140  0.3510  0.2249  0.1437
59938W        W 2855   9.377  17.902  16.512 -0.2304 -0.1555  0.3207
59939W        W 2856  11.376  20.555  17.989 -0.1734 -0.2754 -0.0771
59940W        W 2857  11.199  17.247  18.544  0.1402 -0.2349  0.2485
59941W        W 2858  13.679  21.640  18.145 -0.2526 -0.0402  0.0937
59942W        W 2859  12.541  21.888  17.928  0.1522 -0.3383  0.2663
59943W        W 2860  13.881  20.087  15.349 -0.1080  0.0250  0.1682
59944W        W 2861  10.131  18.994  16.725  0.0197  0.1327  0.0461
59945W        W 2862  10.816  22.016  17.589 -0.3177  0.0416  0.5487
59946W        W 2863  12.882  17.810  15.867 -0.0832 -0.0243 -0.1179
59947W        W 2864   9.178  18.842  18.413 -0.2451  0.0692 -0.1784
59948W        W 2865  12.625  21.098  17.449 -0.1352 -0.1355 -0.1885
59949W        W 2866  13.452  20.524  15.533 -0.3026 -0.2858  0.0536
59950W        W 2867   9.758  18.962  18.784  0.0665  0.3127  0.3188
59951W        W 2868  13.280  18.790  16.097 -0.0513  0.1544 -0.0481
59952W        W 2869   9.434  22.933  18.074 -0.0961 -0.1508  0.1380
59953W        W 2870  10.493  20.698  18.042 -0.2935  0.0356  0.2872
59954W        W 2871  11.902  17.048  16.577 -0.3109  0.0081 -0.0464
59955W        W 2872  12.018  21.050  17.635 -0.0349 -0.1626  0.0185
59956W        W 2873  11.780  19.350  15.698 -0.0642 -0.0275 -0.1096
59957W        W 2874  10.711  20.427  17.241 -0.2439 -0.2441 -0.2117
59958W        W 2875   9.569  19.958  18.727  0.0525  0.0269 -0.2444
59959W        W 2876   9.201  19.019  17.405 -0.0324  0.1744  0.0198
59960W        W 2877  15.300  18.783  15.242  0.4194 -0.2748 -0.1503
59961W        W 2878   9.568  21.311  18.239  0.1487  0.2757  0.1014
59962W        W 2879   9.746  20.836  18.507 -0.1505 -0.2536 -0.2994
59963W        W 2880  12.178  19.874  17.017 -0.0847 -0.2584 -0.2725
59964W        W 2881  11.843  18.729  16.301 -0.0775  0.0919  0.2829
59965W        W 2882   8.170  20.473  18.759 -0.0544  0.1285 -0.4501
59966W        W 2883  11.506  21.604  16.394 -0.1668 -0.1629 -0.3101
59967W        W 2884  13.301  22.143  16.867  0.1507 -0.3904 -0.3106
59968W        W 2885  14.253  21.133  19.300 -0.1409  0.2949 -0.2249
59969W        W 2886  13.418  22.474  19.129  0.0240  0.0655 -0.0439
59970W        W 2887  11.091  20.602  15.743  0.0370  0.1109 -0.1922
59971W        W 2888  12.109  21.928  19.392 -0.0179 -0.0380 -0.0720
59972W        W 2889  12.019  22.179  18.931  0.0792  0.0561 -0.0214
59973W        W 2890  11.572  21.471  17.681  0.1568  0.1007 -0.2809
59974W        W 2891   9.875  20.155  19.072  0.1646  0.2410  0.0070
59975W        W 2892  10.627  20.550  16.655  0.1903  0.1539  0.0127
59976W        W 2893  12.308  21.601  16.765 -0.1967  0.2844  0.0437
59977W        W 2894   9.968  22.067  17.218 -0.1670 -0.2689  0.2017
59978W        W 2895   9.163  21.355  18.555  0.1997  0.0708  0.1990
59979W        W 2896  14.194  20.712  18.277 -0.0301  0.1776 -0.0285
59980W        W 2897  10.327  20.894  16.189 -0.1204  0.3813 -0.0524
59981W        W 2898  13.479  20.280  15.120  0.1247  0.1449 -0.3936
59982W        W 2899  11.180  18.974  16.635 -0.0714 -0.0413  0.0343
59983W        W 2900  14.473  19.319  13.924  0.1098  0.2008 -0.0402
59984W        W 2901  11.686  14.909  16.042  0.0698  0.1390 -0.3005
59985W        W 2902  10.508  22.485  18.896  0.0870 -0.0061 -0.1904
59986W        W 2903  11.898  17.721  16.574 -0.1048  0.0587 -0.3064
59987W        W 2904  12.286  23.901  16.917  0.0187 -0.0705 -0.1736
59988W        W 2905  10.525  20.601  15.731  0.2135 -0.2179  0.1680
59989W        W 2906  10.357  20.384  16.151  0.1792  0.2963 -0.2108
59990W        W 2907  11.944  20.005  17.453 -0.0221  0.0968 -0.2485
59991W        W 2908  11.086  20.376  18.627  0.0534 -0.1992 -0.0126
59992W        W 2909  13.129  22.290  16.080  0.0812 -0.2236 -0.0020
59993W        W 2910  15.302  22.451  16.609 -0.0244  0.0006 -0.0127
59994W        W 2911  12.479  20.828  14.729 -0.0346 -0.1319 -0.0707
59995W        W 2912   9.642  18.600  16.023 -0.0589  0.1233  0.1789
59996W        W 2913   7.777  20.254  18.902  0.0048 -0.1220  0.3146
59997W        W 2914  10.194  20.424  18.724  0.1661 -0.0710 -0.1492
59998W        W 2915  12.620  16.781  16.199  0.2203 -0.0785 -0.1967
59999W        W 2916  13.977  22.908  17.070  0.0629  0.3506 -0.1455
60000W        W 2917   9.408  21.885  20.665 -0.0703 -0.0352 -0.4180
60001W        W 2918  14.110  19.024  14.584 -0.3102  0.0989 -0.0416
60002W        W 2919  12.198  19.478  15.939 -0.2303  0.1620 -0.1172
60003W        W 2920  13.622  23.079  16.225  0.1720  0.0898  0.0553
60004W        W 2921  14.920  20.020  15.849 -0.2934 -0.1775  0.2976
60005W        W 2922  12.769  18.591  18.206 -0.1477 -0.1271 -0.2779
60006W        W 2923  13.177  17.940  16.307 -0.0727  0.0043  0.0165
60007W        W 2924  11.877  20.995  15.260 -0.0600  0.1241  0.1184
60008W        W 2925  12.847  19.771  16.380  0.0071 -0.4612  0.1356
60009W        W 2926  12.216  20.534  18.411  0.0760  0.1834 -0.1756
60010W        W 2927  12.232  17.173  14.372  0.3217  0.1479 -0.0694
60011W        W 2928  10.199  22.619  18.460 -0.0205  0.1437 -0.2540
60012W        W 2929  11.098  18.783  17.581  0.1672  0.2858 -0.3497
60013W        W 2930  12.740  20.310  17.905  0.1183  0.1600 -0.1915
60014W        W 2931  10.516  22.690  16.613 -0.2055 -0.2146 -0.0087
60015W        W 2932  11.862  19.190  17.896 -0.1255 -0.0430 -0.0773
60016W        W 2933  10.448  19.403  16.158  0.1439 -0.1253 -0.1514
60017W        W 2934  10.723  17.231  18.239 -0.4070  0.0922 -0.0940
60018W        W 2935  11.261  20.894  17.124 -0.2448  0.1990 -0.0079
60019W        W 2936  13.796  18.907  14.160 -0.0652  0.3637 -0.2976
60020W        W 2937  10.570  16.259  16.555  0.1463 -0.1057  0.3508
60021W        W 2938  10.690  18.352  16.333  0.0015 -0.2503  0.0006
60022W        W 2939  10.925  19.438  16.735  0.1541 -0.5134 -0.0282
60023W        W 2940  11.837  22.860  16.994  0.2978 -0.2815  0.2700
60024W        W 2941  13.425  20.890  15.036  0.0404  0.0575 -0.1502
60025W        W 2942  12.503  20.099  16.396  0.1816 -0.3463  0.0752
60026W        W 2943  11.352  19.462  16.531 -0.0269  0.5424  0.2467
60027W        W 2944  11.698  20.583  16.845  0.0763  0.2227  0.1687
60028W        W 2945  10.032  18.498  18.952 -0.0558  0.6281  0.0757
60029W        W 2946   8.668  20.001  18.402 -0.0746  0.1153  0.0967
60030W        W 2947  13.560  18.818  18.364  0.2136 -0.0980  0.0642
60031W        W 2948  10.061  19.131  16.199  0.2008  0.0058 -0.1475
60032W        W 2949  13.393  17.963  14.445  0.1654  0.2275  0.0748
60033W        W 2950  11.332  17.980  15.912  0.2178 -0.0873 -0.1886
60034W        W 2951  11.073  20.029  15.652 -0.0890  0.1154 -0.2844
60035W        W 2952  11.187  17.795  18.583 -0.3032 -0.1525  0.0130
60036W        W 2953  12.330  20.824  17.142 -0.2044  0.2369  0.4253
60037W        W 2954  14.985  22.614  16.180  0.0017  0.1371 -0.0418
60038W        W 2955  14.353  23.381  15.513 -0.3221  0.1578 -0.2965
60039W        W 2956  10.837  20.890  18.393  0.1893  0.0193  0.0768
60040W        W 2957  10.083  19.414  15.256  0.0743 -0.1986  0.1608
60041W        W 2958  11.328  20.251  16.033 -0.2172 -0.2832  0.3498
60042W        W 2959   9.956  21.588  17.968  0.3007 -0.0158  0.0999
60043W        W 2960  12.367  18.616  17.138 -0.3510 -0.2884  0.1634
60044W        W 2961  14.009  23.552  17.159  0.2309 -0.1177 -0.0576
60045W        W 2962  12.941  21.353  15.707  0.0349  0.2914 -0.2218
60046W        W 2963  10.948  22.633  19.601  0.2713  0.2704 -0.3557
60047W        W 2964  13.999  16.608  17.166 -0.0030  0.1643  0.2864
60048W        W 2965  12.928  21.374  19.547 -0.0548 -0.0083  0.0491
60049W        W 2966  13.906  17.820  14.682 -0.0602  0.0055  0.1212
60050W        W 2967  11.514  19.035  16.087 -0.0611 -0.0343 -0.0104
60051W        W 2968  13.847  21.578  16.920 -0.1366 -0.1415 -0.1124
60052W        W 2969  10.456  21.894  17.138  0.3191  0.2750 -0.1272
60053W        W 2970   9.575  18.096  16.930 -0.2729  0.0375 -0.0008
60054W        W 2971   9.967  21.075  18.000  0.0522 -0.0188 -0.0590
60055W        W 2972  13.640  19.532  15.869  0.1157  0.0582 -0.3046
60056W        W 2973  10.973  20.863  17.911 -0.1265 -0.0165  0.0043
60057W        W 2974  10.804  17.407  16.985 -0.0355 -0.1247 -0.0629
60058W        W 2975  11.401  20.754  16.153 -0.0099  0.0607  0.1550
60059W        W 2976  10.492  20.636  19.539 -0.1885  0.1684 -0.2805
60060W        W 2977  11.318  20.076  17.818 -0.1652 -0.1935 -0.2487
60061W        W 2978  14.809  19.763  15.408 -0.2619  0.1262  0.2553
60062W        W 2979  12.553  21.165  16.701  0.4255  0.1843  0.1236
60063W        W 2980  14.086  19.245  15.033  0.1204 -0.1917  0.0333
60064W        W 2981  12.893  19.616  14.978  0.2926  0.1992 -0.2579
60065W        W 2982  13.222  18.527  14.850  0.0759  0.0152 -0.0293
60066W        W 2983  10.723  21.568  18.975  0.1508 -0.1479  0.0751
60067W        W 2984  11.064  19.818  16.253 -0.1057  0.0690 -0.2382
60068W        W 2985  13.632  21.138  15.431  0.0501 -0.5118  0.1431
60069W        W 2986  12.613  18.831  15.348 -0.1473 -0.0541  0.0099
60070W        W 2987  12.049  21.092  16.714 -0.2336 -0.1412  0.1052
60071W        W 2988   9.207  20.416  16.840  0.1847  0.2989 -0.1614
60072W        W 2989  11.288  22.757  17.816 -0.0337 -0.1574  0.1260
60073W        W 2990  11.269  22.001  16.098 -0.0344  0.0718 -0.2944
60074W        W 2991  10.563  18.398  19.269 -0.0182 -0.0259 -0.4877
60075W        W 2992   9.828  19.394  16.655 -0.1082 -0.0408  0.1681
60076W        W 2993  10.174  19.650  17.375  0.0193 -0.0834 -0.1447
60077W        W 2994  12.208  21.935  16.060  0.1260 -0.1198 -0.0420
60078W        W 2995  15.010  17.477  16.287  0.4010  0.1538  0.0171
60079W        W 2996  13.524  18.561  15.666 -0.0644  0.0060  0.0583
60080W        W 2997  10.870  19.855  18.004  0.0826  0.1415 -0.1953
60081W        W 2998  13.749  20.800  15.863 -0.0085  0.1236 -0.1170
60082W        W 2999  12.884  22.141  15.686  0.0593  0.2482 -0.3478
60083W        W 3000  12.987  19.172  15.257 -0.1671 -0.2468  0.3407
60084W        W 3001  10.905  21.555  15.943  0.0031  0.3335 -0.0393
60085W        W 3002  12.247  18.488  18.028  0.1582  0.0474  0.2085
60086W        W 3003  10.814  18.104  18.859 -0.0187  0.1208  0.0345
60087W        W 3004  10.559  24.904  18.835  0.0030  0.1654  0.2869
60088W        W 3005  12.584  22.377  18.152 -0.0885  0.1678  0.0497
60089W        W 3006  12.084  20.522  15.454 -0.2608 -0.1276  0.4249
60090W        W 3007  10.902  17.997  16.690  0.0874  0.1285 -0.0304
60091W        W 3008  10.494  17.086  17.244 -0.3851 -0.3388 -0.0296
60092W        W 3009  13.182  21.789  15.890  0.2315  0.0245  0.3232
60093W        W 3010  12.650  20.949  15.661  0.1651 -0.0847 -0.3994
60094W        W 3011  10.319  17.588  18.193  0.2551 -0.1478 -0.1820
60095W        W 3012   9.482  20.155  17.470 -0.1024  0.1486 -0.0965
60096W        W 3013   9.623  21.373  18.763 -0.0856 -0.1547  0.2271
60097W        W 3014  12.869  20.682  17.436  0.1835  0.0939 -0.3141
60098W        W 3015   9.299  20.625  17.314 -0.0760 -0.1341 -0.0045
60099W        W 3016  12.665  16.827  17.585  0.0100 -0.3051  0.0246
60100W        W 3017  12.066  21.184  19.025  0.2373 -0.0512 -0.1953
60101W        W 3018  11.558  19.954  15.685 -0.3078  0.2006  0.1219
60102W        W 3019  12.031  18.391  15.911  0.1408 -0.3219 -0.1507
60103W        W 3020  13.114  17.260  14.429  0.1266  0.1841  0.0817
60104W        W 3021  13.343  21.604  16.955 -0.4447 -0.3778 -0.2787
60105W        W 3022  11.583  18.587  21.140 -0.0185 -0.0602  0.4458
60106W        W 3023  12.105  18.788  16.724 -0.1329 -0.1571 -0.2931
60107W        W 3024   9.453  20.843  18.113  0.0750  0.0825 -0.1741
60108W        W 3025  12.407  21.253  18.008 -0.0541 -0.1022 -0.1932
60109W        W 3026  13.355  18.860  15.280  0.5830  0.1457  0.0371
60110W        W 3027  11.522  20.542  17.352  0.0957  0.2525 -0.1745
60111W        W 3028  10.575  18.953  19.234  0.0541 -0.1458 -0.1113
60112W        W 3029  10.082  17.792  17.704 -0.2389 -0.0896  0.1858
60113W        W 3030  11.856  20.204  16.084  0.1768  0.4917 -0.0280
60114W        W 3031  11.933  19.295  16.332  0.4384  0.1181 -0.1564
60115W        W 3032  10.208  20.406  16.961  0.0832  0.0634  0.1622
60116W        W 3033  12.915  20.844  16.937  0.0265 -0.0654  0.3070
60117W        W 3034   9.529  19.125  16.995 -0.0030  0.1056 -0.0005
60118W        W 3035  11.461  20.087  16.546  0.2001  0.0315  0.1942
60119W        W 3036  10.637  20.207  17.728  0.1409  0.2596 -0.1483
60120W        W 3037  13.004  20.508  18.454 -0.2115 -0.2186 -0.0862
60121W        W 3038  10.461  17.217  16.482 -0.0607  0.1730  0.0273
60122W        W 3039  12.801  19.646  18.262 -0.2190 -0.2018 -0.3302
60123W        W 3040  12.537  19.673  16.777 -0.1110  0.0020  0.0082
60124W        W 3041  13.301  20.055  16.527  0.0173 -0.1943 -0.0442
60125W        W 3042  11.047  17.670  18.113  0.2372 -0.1023  0.0451
60126W        W 3043  11.061  22.935  19.970 -0.0193 -0.1355 -0.1494
60127W        W 3044   9.843  17.150  19.037  0.1507  0.4138 -0.0641
60128W        W 3045  13.713  24.042  16.341  0.0298  0.0510  0.1283
60129W        W 3046  12.635  20.384  15.752 -0.1755 -0.1454 -0.0263
60130W        W 3047  10.008  20.914  17.567 -0.0544  0.0353  0.0462
60131W        W 3048   7.262  19.471  18.915 -0.1663 -0.0278  0.0805
60132W        W 3049  12.012  20.207  16.620 -0.1448 -0.0081  0.0644
60133W        W 3050  11.209  16.404  17.229 -0.1986 -0.0584 -0.0466
60134W        W 3051  10.845  19.274  15.129  0.1926  0.1964  0.3235
60135W        W 3052  12.029  22.370  17.205 -0.0110 -0.0749  0.2401
60136W        W 3053   8.478  22.965  19.315 -0.1215 -0.1003  0.1807
60137W        W 3054  12.814  16.905  17.027 -0.3581 -0.0560 -0.0483
60138W        W 3055  13.413  21.338  14.867 -0.0214  0.1456 -0.0067
60139W        W 3056   9.452  18.348  17.998 -0.3063 -0.2082 -0.3253
60140W        W 3057  13.540  16.500  14.816  0.0333  0.0665 -0.0554
60141W        W 3058  12.846  20.961  15.036 -0.1549 -0.0961 -0.1540
60142W        W 3059  13.081  20.065  18.214  0.0128  0.1040  0.0483
60143W        W 3060   9.751  18.013  18.922 -0.4184 -0.1160 -0.1028
60144W        W 3061  14.047  21.572  15.475  0.2982  0.1474 -0.1074
60145W        W 3062   9.310  18.270  19.676 -0.0311 -0.2584 -0.2098
60146W        W 3063  12.202  21.587  17.722  0.0164 -0.0164  0.0272
60147W        W 3064   9.842  20.578  17.229 -0.1419  0.0443 -0.0680
60148W        W 3065  11.997  19.773  15.559 -0.0874  0.0824  0.0313
60149W        W 3066  11.591  17.755  15.466  0.1258  0.2355  0.0576
60150W        W 3067  11.570  20.009  18.720  0.0435 -0.2908 -0.0055
60151W        W 3068  13.311  19.578  16.531 -0.1064  0.1581  0.0288
60152W        W 3069  11.013  22.371  16.889 -0.2121 -0.0898  0.1741
60153W        W 3070  14.279  18.925  14.112 -0.4290 -0.3206  0.0852
60154W        W 3071  10.016  19.676  19.800  0.2830 -0.2672  0.2137
60155W        W 3072  15.143  19.943  14.536  0.1972 -0.1329 -0.2646
60156W        W 3073  12.442  20.117  14.541 -0.0720  0.1781 -0.0592
60157W        W 3074   9.621  21.816  15.436 -0.0976  0.2881 -0.1592
60158W        W 3075  11.521  19.639  17.541  0.1484 -0.0520  0.0475
60159W        W 3076  13.855  19.619  15.444 -0.2997  0.2603  0.1654
60160W        W 3077  11.869  19.524  17.223  0.0373 -0.0236  0.4900
60161W        W 3078  13.305  17.786  17.568 -0.2189  0.0104 -0.2228
60162W        W 3079  14.259  19.120  16.259 -0.3575 -0.1240  0.1538
60163W        W 3080   9.651  20.961  19.147  0.2171  0.1957 -0.0217
60164W        W 3081  11.314  18.125  18.933 -0.2025  0.1767 -0.3172
60165W        W 3082  11.237  22.691  19.078  0.2684  0.2070  0.1741
60166W        W 3083  15.185  20.845  15.428  0.0274 -0.0630 -0.2081
60167W        W 3084  10.479  18.808  16.211 -0.0622 -0.0927 -0.1571
60168W        W 3085  13.639  21.710  15.752  0.0937  0.2291 -0.3422
60169W        W 3086  11.703  20.352  18.290 -0.1321 -0.0753 -0.3645
60170W        W 3087  10.422  20.048  17.282  0.1441 -0.0676 -0.0248
60171W        W 3088  13.567  22.214  18.130 -0.1709 -0.1832 -0.1259
60172W        W 3089  12.513  19.224  15.044 -0.3180 -0.1181  0.1415
60173W        W 3090  11.074  17.640  17.406 -0.1182  0.1894  0.0177
60174W        W 3091  11.459  21.840  16.904 -0.0560 -0.2319  0.2010
60175W        W 3092  13.464  20.719  16.700 -0.0366  0.1871  0.0512
60176W        W 3093  14.477  18.981  14.888 -0.2166 -0.1480  0.0763
60177W        W 3094   9.765  18.200  16.379 -0.2951 -0.1422 -0.0928
60178W        W 3095  11.456  24.005  18.227  0.0485 -0.1745 -0.2034
60179W        W 3096  10.442  18.572  15.370 -0.0898 -0.0171  0.3498
60180W        W 3097  12.490  20.586  15.207 -0.1671 -0.3637  0.0067
60181W        W 3098  12.638  20.737  18.256 -0.1244 -0.1221 -0.0388
60182W        W 3099   9.811  18.872  17.966  0.1581 -0.1140  0.1044
60183W        W 3100  12.114  19.317  14.789  0.1665 -0.4926  0.2142
60184W        W 3101  13.553  17.449  17.247 -0.0204  0.0835  0.2472
60185W        W 3102  11.498  22.242  17.702  0.1346 -0.1068 -0.3297
60186W        W 3103  13.712  15.841  15.178  0.0304 -0.0607 -0.2038
60187W        W 3104  12.341  22.736  18.421  0.0688 -0.0938 -0.2480
60188W        W 3105   8.086  21.842  19.075  0.2443  0.1278 -0.2873
60189W        W 3106  10.970  19.257  16.189  0.1672  0.2439  0.2927
60190W        W 3107  11.261  17.688  16.928  0.1528  0.0222  0.2325
60191W        W 3108  10.606  18.569  18.371 -0.0900 -0.1016  0.1930
60192W        W 3109  10.983  18.550  16.812  0.0884  0.0140  0.1142
60193W        W 3110  14.957  21.291  16.929  0.0464 -0.0232  0.2101
60194W        W 3111  12.477  21.592  19.045 -0.1839  0.0748  0.0612
60195W        W 3112   9.616  19.786  16.469 -0.0473 -0.2537  0.0377
60196W        W 3113  13.354  22.607  18.376  0.1054 -0.1026  0.4619
60197W        W 3114  11.989  21.571  16.393  0.1063  0.2335  0.1409
60198W        W 3115  10.080  19.873  16.913  0.0126  0.0881  0.0086
60199W        W 3116   9.125  17.718  20.595 -0.1297  0.0878  0.0568
60200W        W 3117  11.733  19.692  16.754  0.0347  0.0333 -0.3789
60201W        W 3118  12.369  19.973  15.946  0.1600  0.0705 -0.1146
60202W        W 3119   9.694  17.019  17.604 -0.0331  0.0149  0.1550
60203W        W 3120  13.332  22.061  15.457  0.0308  0.3034  0.2231
60204W        W 3121  10.148  21.583  18.807 -0.0717 -0.2746 -0.2638
60205W        W 3122   9.554  20.757  19.743  0.1343 -0.0493  0.1289
60206W        W 3123  10.324  20.862  17.153  0.3596 -0.2427  0.0491
60207W        W 3124  11.587  20.458  15.649  0.1094 -0.2574  0.1795
60208W        W 3125  12.164  21.284  17.201 -0.0544 -0.0481  0.1366
60209W        W 3126  11.657  22.078  18.578  0.0890  0.3060  0.1480
60210W        W 3127  13.412  21.245  15.822  0.1148 -0.1040 -0.3731
60211W        W 3128   9.174  20.339  18.722 -0.2386  0.1285 -0.1708
60212W        W 3129   9.931  20.845  15.862  0.1736 -0.1078 -0.2551
60213W        W 3130  12.896  22.110  16.600 -0.1296  0.0653  0.1210
60214W        W 3131  10.302  20.881  18.433 -0.1806  0.0617 -0.2097
60215W        W 3132  13.679  19.792  18.173 -0.1026 -0.0275  0.1005
60216W        W 3133  15.510  17.225  15.696 -0.2380  0.0776  0.4023
60217W        W 3134  14.270  20.019  16.601  0.3121 -0.1650 -0.0923
60218W        W 3135  14.653  19.758  14.416  0.1232  0.2289 -0.2040
60219W        W 3136  13.606  21.008  19.535 -0.3070  0.5278  0.3548
60220W        W 3137   9.525  20.415  19.389 -0.0530 -0.0246 -0.0822
60221W        W 3138  11.604  17.237  15.088 -0.0371 -0.0525  0.0804
60222W        W 3139  11.080  21.341  16.862  0.1581  0.0306  0.0357
60223W        W 3140  13.125  19.307  16.046 -0.0979 -0.2402 -0.1812
60224W        W 3141   8.288  21.161  19.795 -0.2948  0.0527  0.1921
60225W        W 3142  13.843  22.423  16.854  0.0789  0.0768  0.4031
60226W        W 3143  11.340  19.506  17.086 -0.0182 -0.0300 -0.3136
60227W        W 3144   9.954  22.520  15.842 -0.3075  0.0075 -0.1999
60228W        W 3145  13.135  17.279  17.582 -0.1622  0.0553 -0.2930
60229W        W 3146  11.632  21.097  15.703  0.1860  0.0412 -0.1682
60230W        W 3147  12.606  21.335  16.183 -0.1664  0.0470 -0.1605
60231W        W 3148  10.873  20.869  17.419 -0.1011 -0.0486 -0.1336
60232W        W 3149  11.900  21.315  18.090 -0.0060 -0.0001  0.0665
60233W        W 3150  11.621  20.993  18.793 -0.0685 -0.0013  0.2179
60234W        W 3151  11.866  18.802  15.665  0.3435  0.1318  0.5004
60235W        W 3152  13.439  19.937  15.601 -0.2088  0.0650  0.0169
60236W        W 3153  10.220  19.978  17.937  0.1366  0.1396 -0.0735
60237W        W 3154  14.358  18.879  15.692 -0.0612 -0.3633  0.3694
60238W        W 3155   9.764  19.625  17.692 -0.1030  0.4334 -0.1281
60239W        W 3156  12.616  19.656  15.484 -0.2309 -0.0888 -0.3668
60240W        W 3157  12.645  19.694  17.266 -0.0215 -0.1513 -0.2564
60241W        W 3158   9.308  19.497  18.721 -0.1537 -0.1836  0.1579
60242W        W 3159  10.827  20.671  16.210 -0.0004  0.3561  0.0867
60243W        W 3160  13.337  20.534  16.236  0.0194 -0.1300  0.0100
60244W        W 3161  12.386  16.220  14.094 -0.0065 -0.2074 -0.0779
60245W        W 3162  15.086  23.533  17.142 -0.1420 -0.0311 -0.2020
60246W        W 3163  12.873  19.930  15.864  0.1211  0.3629 -0.0283
60247W        W 3164  13.759  18.396  15.235 -0.1769  0.3940 -0.1926
60248W        W 3165  11.192  22.012  18.438  0.1308 -0.0498 -0.1144
60249W        W 3166  12.570  20.346  18.705  0.1061  0.1250  0.1641
60250W        W 3167  12.859  22.671  21.323  0.0762 -0.0532 -0.0004
60251W        W 3168   9.947  17.701  16.640 -0.0689 -0.0838 -0.1051
60252W        W 3169  14.524  20.881  14.534  0.0604  0.4656  0.0515
60253W        W 3170  13.573  19.286  15.197  0.0010  0.0471 -0.0056
60254W        W 3171  11.774  21.622  14.919 -0.0745  0.0851  0.0841
60255W        W 3172  10.129  17.258  17.506  0.1599 -0.1000  0.1713
60256W        W 3173  11.796  22.036  16.384 -0.1392  0.0705  0.0092
60257W        W 3174   9.749  20.034  20.074 -0.0270  0.2836  0.1592
60258W        W 3175  12.810  21.512  17.667  0.0750 -0.0235 -0.0676
60259W        W 3176  11.165  21.335  17.379  0.0288  0.2971  0.1065
60260W        W 3177  14.302  19.155  16.808 -0.0078 -0.1961  0.1383
60261W        W 3178  10.802  20.915  16.911  0.2943 -0.3618  0.0317
60262W        W 3179  10.178  23.430  18.591  0.0275  0.0473  0.2019
60263W        W 3180  14.233  20.227  17.119  0.2172 -0.1812  0.0590
60264W        W 3181  10.699  17.355  17.747  0.0180  0.0166 -0.0649
60265W        W 3182  11.413  21.585  15.861  0.0141 -0.1791  0.1482
60266W        W 3183  11.693  16.676  17.792  0.0152 -0.1522 -0.0258
60267W        W 3184  10.153  22.084  18.712  0.0284  0.2559  0.0994
60268W        W 3185  12.283  21.578  20.053  0.1503  0.0513 -0.0661
60269W        W 3186  10.766  20.238  15.952 -0.0210 -0.4329 -0.2471
60270W        W 3187  12.609  21.399  14.990 -0.0703  0.3173  0.0984
60271W        W 3188  11.227  21.787  17.951  0.2971 -0.3920  0.0547
60272W        W 3189  10.776  21.126  16.468 -0.1475  0.0372 -0.0832
60273W        W 3190  12.401  20.070  15.350 -0.0175 -0.1373  0.0082
60274W        W 3191   8.612  20.097  18.902 -0.2190 -0.1768  0.2075
60275W        W 3192  13.742  22.451  15.603 -0.1188 -0.1362  0.0823
60276W        W 3193  12.699  17.630  17.707  0.2269  0.1206 -0.3586
60277W        W 3194  14.835  18.181  14.408  0.0588 -0.0097 -0.2392
60278W        W 3195  12.234  19.143  15.452  0.5217  0.0729  0.1600
60279W        W 3196   9.963  18.828  20.066  0.1959 -0.0840 -0.0830
60280W        W 3197  11.756  19.097  15.268 -0.1451 -0.2257  0.1356
60281W        W 3198  12.322  22.050  16.549  0.0228 -0.1270  0.0609
60282W        W 3199   9.209  22.565  19.536 -0.4625  0.0143 -0.1708
60283W        W 3200   9.471  17.495  18.945 -0.0000 -0.0135  0.0018
60284W        W 3201   9.612  18.836  19.288 -0.0796 -0.0073 -0.2041
60285W        W 3202  10.723  19.751  15.853  0.2526 -0.2269 -0.1956
60286W        W 3203  11.402  18.875  17.075 -0.2918  0.1634  0.3819
60287W        W 3204  14.086  20.163  16.181 -0.2773 -0.1870 -0.2382
60288W        W 3205  11.038  19.931  16.862 -0.1258  0.0040 -0.2160
60289W        W 3206   8.768  20.533  17.606  0.0630 -0.2341  0.1591
60290W        W 3207  13.165  20.286  15.833 -0.3467 -0.2120 -0.5810
60291W        W 3208  13.263  22.751  16.056 -0.1082 -0.4555  0.1289
60292W        W 3209  12.980  20.484  15.430 -0.0120 -0.2539 -0.3245
60293W        W 3210  14.038  21.804  19.282 -0.0639  0.0159  0.1754
60294W        W 3211  11.224  21.186  16.139 -0.0119 -0.0713 -0.1794
60295W        W 3212  11.429  18.576  18.045 -0.1031  0.1108  0.0973
60296W        W 3213  10.355  17.389  19.034  0.0802  0.3122 -0.1734
60297W        W 3214  11.200  17.477  15.227 -0.0199 -0.2643 -0.0555
60298W        W 3215  11.165  22.238  20.981  0.1658  0.1204 -0.1856
60299W        W 3216  12.095  21.873  15.545  0.1133 -0.1811  0.0521
60300W        W 3217  11.849  23.433  16.131  0.2154  0.2365  0.2862
60301W        W 3218  12.099  18.473  15.391  0.2170 -0.1171  0.0793
60302W        W 3219  10.915  23.711  18.674 -0.0322  0.3509  0.3582
60303W        W 3220  10.920  20.409  18.168 -0.1839 -0.0685  0.0720
60304W        W 3221  13.142  21.258  16.708  0.0479  0.2231  0.1879
60305W        W 3222   9.079  19.619  19.557  0.0351  0.1815  0.1648
60306W        W 3223  15.900  20.991  16.633 -0.0464  0.0711 -0.0246
60307W        W 3224  13.709  17.791  16.322 -0.0351 -0.1230 -0.0544
60308W        W 3225  12.377  21.037  15.213  0.0182 -0.0709  0.0735
60309W        W 3226  10.784  19.221  18.418 -0.0959 -0.3480  0.1337
60310W        W 3227  11.488  20.021  19.951  0.1816  0.1063 -0.0447
60311W        W 3228  14.594  21.483  17.495  0.3895  0.1618 -0.0998
60312W        W 3229  13.086  17.032  15.371 -0.0212  0.1146  0.1517
60313W        W 3230  14.079  18.728  14.971  0.1862  0.1796  0.0264
60314W        W 3231  12.488  21.545  15.647  0.1010  0.4385  0.0114
60315W        W 3232   9.927  19.600  18.160  0.2248  0.0041  0.1203
60316W        W 3233  11.942  19.010  17.189 -0.1690 -0.1045 -0.0682
60317W        W 3234  12.209  22.078  19.852  0.0241  0.2858  0.4125
60318W        W 3235  12.642  22.370  16.147  0.1276 -0.1023  0.0803
60319W        W 3236  11.693  18.625  17.606  0.0022 -0.0903  0.2376
60320W        W 3237  10.979  17.129  15.956 -0.3295 -0.0267  0.0876
60321W        W 3238  15.382  21.236  14.996  0.1384 -0.0815 -0.1055
60322W        W 3239  13.649  20.808  18.127  0.1053 -0.2513 -0.0740
60323W        W 3240  13.356  20.617  18.922  0.0118 -0.0604  0.2675
60324W        W 3241  13.153  22.768  17.551 -0.0544 -0.1121 -0.1819
60325W        W 3242  13.852  22.626  16.063  0.0017  0.1208 -0.1823
60326W        W 3243   8.416  18.052  19.018  0.2273 -0.1714  0.1248
60327W        W 3244  10.092  19.730  16.411  0.1561  0.1828  0.5243
60328W        W 3245  13.395  19.759  15.106 -0.0723 -0.0012 -0.4452
60329W        W 3246  12.714  18.894  16.160  0.1249  0.1044  0.2178
60330W        W 3247  12.691  19.231  15.792 -0.2932 -0.1238  0.0780
60331W        W 3248  13.226  19.138  14.812 -0.0442 -0.1340 -0.0168
60332W        W 3249  10.356  19.980  19.421 -0.0260 -0.3358 -0.0113
60333W        W 3250  13.853  19.783  14.976  0.1089 -0.1821  0.0536
60334W        W 3251  10.409  22.338  22.442 -0.3674  0.1103 -0.4339
60335W        W 3252  10.671  19.915  20.870 -0.1419 -0.1861 -0.0757
60336W        W 3253  10.732  19.387  17.938  0.0549  0.1304  0.1902
60337W        W 3254  15.574  21.509  16.474 -0.1720 -0.1390 -0.1520
60338W        W 3255   9.931  17.978  21.447  0.1766 -0.1650  0.2825
60339W        W 3256  10.944  21.506  18.371 -0.0551  0.1896 -0.0851
60340W        W 3257  10.997  18.332  19.962 -0.1656  0.1493 -0.1588
60341W        W 3258  12.245  21.849  21.819  0.1250 -0.0148 -0.1775
60342W        W 3259  12.208  22.249  20.952 -0.0669  0.0907  0.1168
60343W        W 3260  10.114  21.021  18.892 -0.2045 -0.1333  0.1817
60344W        W 3261  10.592  23.680  22.201  0.2696  0.0584  0.1942
60345W        W 3262  11.288  21.292  22.111 -0.1174  0.2722  0.1384
60346W        W 3263  12.327  18.627  18.507  0.1599 -0.0771 -0.1225
60347W        W 3264  11.308  17.021  19.904 -0.1964  0.1032 -0.2612
60348W        W 3265  13.300  21.971  21.558  0.2163  0.2373  0.2539
60349W        W 3266  11.299  20.393  19.585 -0.0928  0.1869 -0.0040
60350W        W 3267  11.956  20.194  20.017  0.0817  0.1717 -0.0305
60351W        W 3268  10.982  19.246  21.707  0.1329 -0.0769  0.0388
60352W        W 3269  12.351  20.711  19.343  0.0887 -0.3780 -0.0921
60353W        W 3270  10.518  19.400  20.598  0.2839  0.0818 -0.3470
60354W        W 3271  10.360  19.880  23.276  0.1138 -0.3240  0.0850
60355W        W 3272  12.523  19.411  17.904  0.0047 -0.0658 -0.2424
60356W        W 3273  11.274  19.835  19.417 -0.2836 -0.1192  0.0812
60357W        W 3274  11.058  20.144  21.673  0.1642 -0.0642 -0.2085
60358W        W 3275  10.964  21.879  21.675 -0.0773 -0.0302  0.1088
60359W        W 3276  12.488  18.344  18.984 -0.1256  0.3304 -0.1904
60360W        W 3277  12.958  17.925  16.815 -0.1382 -0.0341 -0.1072
60361W        W 3278  12.404  24.381  21.277  0.1629 -0.0656  0.1903
60362W        W 3279  12.200  21.006  20.614 -0.0330 -0.1505  0.0704
60363W        W 3280  11.150  19.710  22.043  0.0655 -0.0344 -0.0473
60364W        W 3281  10.027  19.340  20.656 -0.3157 -0.0410 -0.0341
60365W        W 3282  11.839  20.511  21.226 -0.0688 -0.0388 -0.1812
60366W        W 3283  10.731  21.966  20.241  0.0199  0.0742  0.0907
60367W        W 3284  14.824  19.643  17.443  0.0549 -0.1676  0.0888
60368W        W 3285  10.970  22.097  22.767  0.0600  0.1311  0.2783
60369W        W 3286  11.667  22.214  22.303  0.2977  0.0678  0.1368
60370W        W 3287  12.271  20.715  17.890  0.1965 -0.2762  0.2370
60371W        W 3288  12.310  24.169  22.035 -0.0548  0.0059  0.2106
60372W        W 3289  11.884  21.523  22.008 -0.1153  0.0605  0.3279
60373W        W 3290  10.133  20.648  22.376 -0.0617  0.0779 -0.1870
60374W        W 3291  14.853  21.778  19.574  0.0408 -0.2418  0.0876
60375W        W 3292   9.087  20.238  19.229  0.0247 -0.1963  0.1750
60376W        W 3293  13.279  22.931  21.372  0.2293 -0.2383 -0.3789
60377W        W 3294  11.737  19.626  21.294  0.0789 -0.2325 -0.0383
60378W        W 3295  10.343  21.664  21.015 -0.3363  0.2111 -0.1137
60379W        W 3296  13.530  20.282  19.318  0.3103  0.1397 -0.0048
60380W        W 3297  12.007  23.137  20.248 -0.1270  0.1302  0.3662
60381W        W 3298  13.213  20.168  18.741 -0.0812  0.0048  0.0282
60382W        W 3299  12.297  18.985  18.947 -0.0346 -0.0811  0.0138
60383W        W 3300  11.773  21.902  17.384  0.1543 -0.0149  0.1668
60384W        W 3301  11.571  16.688  20.179  0.2734  0.3534 -0.1428
60385W        W 3302  10.606  22.935  20.880  0.2206 -0.1061  0.1265
60386W        W 3303   9.038  20.176  22.050  0.4140  0.4569 -0.0587
60387W        W 3304  11.279  20.531  20.049  0.0040  0.0834 -0.1175
60388W        W 3305  12.837  19.147  19.055 -0.2846  0.0699  0.1229
60389W        W 3306  11.507  20.717  19.263  0.1276  0.1577 -0.0445
60390W        W 3307  10.040  21.990  22.682 -0.2226 -0.0832 -0.0868
60391W        W 3308  10.792  20.482  20.870  0.1896  0.4109  0.0947
60392W        W 3309  12.140  20.243  18.019 -0.2540 -0.2378  0.0280
60393W        W 3310  12.893  23.765  20.123 -0.0245 -0.0711  0.0132
60394W        W 3311  12.986  20.468  19.985  0.3041  0.1984  0.4292
60395W        W 3312   8.466  20.291  21.364  0.0884 -0.1225 -0.0032
60396W        W 3313   9.866  22.325  19.778 -0.3213  0.3625 -0.1099
60397W        W 3314  10.061  20.625  23.657 -0.1335  0.0861 -0.1186
60398W        W 3315   9.968  18.265  17.813  0.0789  0.1465  0.0737
60399W        W 3316  11.393  21.438  19.888  0.3199  0.2086 -0.5569
60400W        W 3317   9.871  20.491  21.925  0.1104 -0.0026  0.0459
60401W        W 3318  14.207  19.005  17.578 -0.0250  0.0509  0.0333
60402W        W 3319  10.918  21.752  21.173  0.1728 -0.1379 -0.0459
60403W        W 3320  12.927  20.029  20.896  0.1332  0.0275  0.0469
60404W        W 3321  11.825  21.670  19.057 -0.2842 -0.0991  0.0435
60405W        W 3322  13.066  18.839  16.590 -0.2054 -0.0283  0.0800
60406W        W 3323  12.213  17.809  18.764 -0.1591  0.2561  0.0350
60407W        W 3324   9.634  18.320  19.278 -0.2244  0.0258 -0.0817
60408W        W 3325  12.568  20.338  19.600 -0.6152  0.3131  0.0071
60409W        W 3326  13.252  23.815  19.768  0.0172  0.1320 -0.1117
60410W        W 3327  14.001  20.148  18.369  0.1182  0.0947 -0.2315
60411W        W 3328  10.393  20.075  19.965 -0.1626 -0.0718 -0.2114
60412W        W 3329  10.016  19.051  22.943 -0.1001 -0.1388 -0.0297
60413W        W 3330  12.709  21.944  22.158 -0.1005  0.0723 -0.2443
60414W        W 3331  10.656  20.608  18.761 -0.1672 -0.0406 -0.4387
60415W        W 3332   8.326  21.094  22.898  0.0301  0.0942  0.2421
60416W        W 3333  10.632  18.759  20.716  0.0293 -0.3826 -0.0474
60417W        W 3334   9.551  19.069  20.486 -0.0059 -0.0865 -0.2117
60418W        W 3335  11.868  21.882  21.290  0.3657  0.0782 -0.1395
60419W        W 3336  14.606  18.231  17.317  0.1170 -0.0592  0.0491
60420W        W 3337  11.968  17.858  21.562  0.1297 -0.2652 -0.2020
60421W        W 3338  12.700  17.565  18.288  0.0231 -0.1470 -0.0051
60422W        W 3339  10.138  19.103  19.072 -0.1646  0.1838  0.1842
60423W        W 3340  13.217  23.219  19.593  0.1638 -0.0551 -0.0283
60424W        W 3341  12.974  19.904  16.889 -0.1485 -0.0602 -0.0801
60425W        W 3342  13.645  22.945  17.706 -0.1597 -0.2241 -0.3131
60426W        W 3343  10.597  19.922  22.721 -0.2149  0.2627  0.0800
60427W        W 3344  10.800  20.090  22.251  0.1358  0.3456 -0.0533
60428W        W 3345  10.653  20.538  22.471 -0.2525  0.1340  0.1015
60429W        W 3346  10.672  20.292  21.297 -0.0111  0.0256 -0.0292
60430W        W 3347  12.557  18.749  20.513 -0.0932 -0.3481 -0.4889
60431W        W 3348  10.811  16.960  18.787 -0.1337  0.0425 -0.3362
60432W        W 3349  12.878  20.388  16.216 -0.0104 -0.2343  0.0226
60433W        W 3350  11.303  22.056  20.135 -0.5199  0.1110 -0.0415
60434W        W 3351  12.547  20.047  18.329  0.1155  0.3347  0.0829
60435W        W 3352  12.048  20.561  20.292 -0.1737  0.0155  0.3980
60436W        W 3353  12.144  21.735  18.712  0.2912 -0.2010  0.0920
60437W        W 3354  12.852  23.960  21.203 -0.2485  0.0085  0.4501
60438W        W 3355  14.688  20.782  18.285 -0.4320 -0.0726  0.1326
60439W        W 3356  11.730  20.956  22.736  0.1287  0.2016 -0.4225
60440W        W 3357  10.462  20.228  18.314  0.2129 -0.2057  0.1125
60441W        W 3358  11.543  23.904  19.642 -0.1336 -0.4935  0.1924
60442W        W 3359  11.453  22.110  22.739 -0.2620 -0.1455  0.2762
60443W        W 3360  10.944  18.432  20.509  0.0581  0.1108  0.1879
60444W        W 3361  13.958  21.758  20.162 -0.3999  0.1903 -0.0564
60445W        W 3362  13.309  18.840  17.037 -0.1215  0.1049  0.2022
60446W        W 3363  10.826  21.544  22.104 -0.1323 -0.0786 -0.0451
60447W        W 3364  12.758  18.780  18.715  0.1097  0.2383 -0.2287
60448W        W 3365  14.439  20.512  19.924 -0.0537  0.0061 -0.1477
60449W        W 3366  13.481  20.306  18.333  0.1200  0.1312 -0.1200
60450W        W 3367  11.672  19.778  18.252 -0.1441 -0.0931  0.1852
60451W        W 3368  11.765  22.202  19.348 -0.0693  0.2125  0.3336
60452W        W 3369  11.962  24.277  21.111 -0.0801  0.2904 -0.4679
60453W        W 3370  12.839  20.815  19.530 -0.1463  0.2582 -0.1339
60454W        W 3371  11.213  20.888  21.892 -0.2181  0.2349  0.0439
60455W        W 3372  14.903  20.365  20.072  0.0113  0.1199 -0.0398
60456W        W 3373  10.331  21.194  23.621  0.2346 -0.0528 -0.0526
60457W        W 3374  11.535  19.601  19.051  0.2323  0.3949 -0.2997
60458W        W 3375   9.224  20.853  18.569 -0.2847  0.0644 -0.0756
60459W        W 3376  11.699  21.057  22.029  0.0451  0.2901  0.0843
60460W        W 3377  13.873  18.355  16.395  0.1797 -0.2454  0.1446
60461W        W 3378  14.909  19.075  17.406 -0.0386 -0.1693  0.3128
60462W        W 3379  13.617  20.077  22.661  0.1653  0.3508 -0.1095
60463W        W 3380  13.782  21.079  20.062 -0.0792 -0.4552  0.1281
60464W        W 3381  11.421  20.955  17.638  0.0783 -0.1001  0.2519
60465W        W 3382  10.589  18.873  17.910 -0.1161 -0.0851  0.2758
60466W        W 3383  10.544  20.771  23.365 -0.0207 -0.4065 -0.1223
60467W        W 3384  11.734  21.459  18.514  0.0957 -0.1187  0.1162
60468W        W 3385  12.968  21.308  20.898 -0.0325  0.0537  0.0622
60469W        W 3386  11.313  18.124  17.712  0.2079 -0.0312  0.1148
60470W        W 3387  13.748  21.771  19.667 -0.2955  0.3270  0.0693
60471W        W 3388  11.708  21.042  20.395  0.1562 -0.2416 -0.0890
60472W        W 3389  13.255  20.818  20.761  0.1478 -0.0725  0.2790
60473W        W 3390  13.743  20.661  18.616  0.2411 -0.2300  0.0156
60474W        W 3391  11.457  17.778  21.550 -0.0982 -0.0853  0.1499
60475W        W 3392  10.920  21.322  19.691  0.0255 -0.3216  0.0793
60476W        W 3393  11.461  18.456  20.255 -0.3414  0.1626 -0.0641
60477W        W 3394  10.141  22.176  21.119 -0.0417  0.2297 -0.1886
60478W        W 3395  11.177  19.046  18.136  0.2082  0.1823 -0.2406
60479W        W 3396  10.926  19.022  21.218  0.1815 -0.2782 -0.3960
60480W        W 3397  12.498  17.264  21.132  0.0030  0.3091 -0.2078
60481W        W 3398  11.302  21.156  22.699  0.1778  0.2365  0.3725
60482W        W 3399  11.376  21.225  18.052 -0.1048 -0.3594 -0.0217
60483W        W 3400  11.698  20.663  19.872 -0.1998  0.0497 -0.0169
60484W        W 3401   8.444  18.270  18.232  0.1258 -0.3278  0.0677
60485W        W 3402  12.620  19.063  20.133  0.1245  0.1395 -0.0736
60486W        W 3403  10.618  19.865  23.746  0.0860 -0.0784 -0.1035
60487W        W 3404  10.183  22.770  22.246  0.0641 -0.1813  0.0869
60488W        W 3405  11.102  19.576  20.397 -0.3509 -0.0249  0.2412
60489W        W 3406  14.378  18.284  16.250 -0.0207 -0.3849  0.4267
60490W        W 3407   9.548  20.056  21.927 -0.2682  0.0798  0.3135
60491W        W 3408  12.080  18.635  19.284  0.0097 -0.2674 -0.1397
60492W        W 3409  11.133  21.875  20.584  0.2581  0.1815  0.3033
60493W        W 3410   9.963  20.893  20.029  0.1528  0.3385 -0.5089
60494W        W 3411  11.997  18.500  20.367  0.0000  0.0183  0.0048
60495W        W 3412   9.849  20.908  21.538  0.1585 -0.0646  0.0467
60496W        W 3413  10.579  23.664  18.329 -0.1490  0.3021  0.0820
60497W        W 3414  12.024  19.996  20.425 -0.0532 -0.0447 -0.1698
60498W        W 3415   9.275  20.056  19.635  0.2594 -0.2639  0.0348
60499W        W 3416  13.307  18.547  18.017  0.2885 -0.1151  0.0630
60500W        W 3417   9.843  20.770  21.038  0.1125 -0.3032  0.0207
60501W        W 3418  13.494  20.277  16.963 -0.2364  0.0811 -0.0794
60502W        W 3419  11.152  20.300  19.113  0.0761 -0.1938  0.0687
60503W        W 3420  11.991  18.593  19.873 -0.2819  0.3811  0.3035
60504W        W 3421  12.456  19.110  17.144 -0.0984 -0.0352  0.4103
60505W        W 3422  10.140  20.120  21.256 -0.0539 -0.1571 -0.0628
60506W        W 3423  11.522  20.499  18.763  0.3499 -0.0884 -0.2272
60507W        W 3424  10.360  21.209  20.775  0.0444  0.0769 -0.2520
60508W        W 3425  12.742  20.886  19.982  0.0394  0.0622 -0.0224
60509W        W 3426  10.841  17.682  19.249  0.3111  0.0016  0.1257
60510W        W 3427  11.379  20.615  21.079  0.1226  0.0987  0.0105
60511W        W 3428  10.639  19.672  19.788  0.2961 -0.0895 -0.1641
60512W        W 3429   8.376  17.787  21.778  0.1394  0.1807  0.2927
60513W        W 3430  11.566  21.037  20.913 -0.4670  0.2006  0.4142
60514W        W 3431  11.838  19.589  20.105 -0.1869  0.0694 -0.4067
60515W        W 3432  11.338  21.328  20.583  0.1361  0.0124  0.1017
60516W        W 3433  12.803  22.277  22.996 -0.0512 -0.1594  0.1848
60517W        W 3434  12.085  21.145  20.034  0.1544 -0.1212 -0.1505
60518W        W 3435  11.819  21.787  19.952 -0.0763  0.1152  0.2219
60519W        W 3436  10.600  19.479  22.959 -0.0443 -0.2931 -0.0302
60520W        W 3437  12.350  22.035  22.999 -0.1286 -0.2984  0.0905
60521W        W 3438  12.929  19.588  19.358 -0.0053  0.1940  0.0995
60522W        W 3439  10.567  21.145  20.254 -0.0692  0.0765  0.0088
60523W        W 3440  12.018  19.650  20.854 -0.0115  0.2103  0.1392
60524W        W 3441  13.469  19.706  18.649 -0.1546 -0.0082 -0.0608
60525W        W 3442  11.172  20.202  20.462 -0.1579  0.1311 -0.0742
60526W        W 3443  10.728  22.567  22.756  0.5212 -0.0857  0.1318
60527W        W 3444  14.240  15.121  22.099 -0.0755  0.0975 -0.0501
60528W        W 3445  15.213  21.723  16.768  0.0765 -0.0339 -0.0131
60529W        W 3446  11.257  18.135  22.296 -0.0355 -0.0955 -0.0288
60530W        W 3447  10.539  20.271  20.417 -0.3375 -0.0165 -0.2327
60531W        W 3448  12.020  21.235  21.535 -0.0564 -0.1724  0.1884
60532W        W 3449  11.180  21.317  19.283 -0.3900  0.0134 -0.0047
60533W        W 3450  11.049  17.968  20.507 -0.0508  0.0254  0.3728
60534W        W 3451   9.503  22.889  22.544 -0.1458 -0.0930 -0.1160
60535W        W 3452  11.521  21.713  20.876 -0.4291 -0.1580  0.1087
60536W        W 3453  10.974  19.935  23.047 -0.1074 -0.1398 -0.1285
60537W        W 3454  14.927  17.310  17.317  0.2734 -0.3366  0.1854
60538W        W 3455  11.615  20.258  19.203 -0.1361 -0.1628 -0.1247
60539W        W 3456  10.637  19.782  20.339 -0.0614 -0.0404 -0.2097
60540W        W 3457  15.075  21.431  19.230 -0.2731 -0.2067  0.3571
60541W        W 3458  12.069  20.079  18.581  0.0733 -0.0697  0.1247
60542W        W 3459  11.759  16.801  21.113 -0.2535  0.1551 -0.2051
60543W        W 3460  12.926  18.398  19.687 -0.2750  0.1002 -0.0584
60544W        W 3461  13.215  22.127  22.060 -0.1255 -0.1894  0.1922
60545W        W 3462   9.557  20.935  21.929  0.1631  0.1363 -0.1024
60546W        W 3463  12.158  19.782  23.974  0.0544  0.0035 -0.0966
60547W        W 3464  10.279  21.796  21.905 -0.1524 -0.0677  0.0198
60548W        W 3465  12.225  19.475  19.261  0.1297 -0.0329  0.3607
60549W        W 3466  11.193  19.950  18.354 -0.0185 -0.2422  0.0168
60550W        W 3467  11.614  20.320  20.371 -0.0856  0.0885 -0.0261
60551W        W 3468  13.031  20.364  19.388 -0.0964  0.1077  0.2014
60552W        W 3469  11.851  19.223  19.153 -0.0420 -0.0901  0.1311
60553W        W 3470  12.856  18.410  16.169 -0.0282 -0.1937  0.1694
60554W        W 3471  10.851  21.391  22.651 -0.0736 -0.1381 -0.0275
60555W        W 3472  15.194  21.142  16.414  0.0078  0.2534 -0.1034
60556W        W 3473   9.978  19.593  19.185  0.0290 -0.0262  0.3406
60557W        W 3474  12.946  19.871  17.745 -0.2109  0.2003  0.1334
60558W        W 3475  11.156  15.911  19.427  0.1647  0.1193 -0.1420
60559W        W 3476  12.963  21.914  20.468 -0.2608 -0.0637  0.1887
60560W        W 3477  12.378  19.854  20.031  0.1913 -0.2388  0.2479
60561W        W 3478  12.918  19.112  18.101 -0.0769  0.3828 -0.0469
60562W        W 3479  12.263  19.403  19.886  0.0636  0.1003  0.3693
60563W        W 3480   9.924  18.640  25.516  0.0915 -0.0819 -0.0440
60564W        W 3481  11.234  18.779  23.028  0.2680  0.1074 -0.3731
60565W        W 3482  12.149  19.802  21.936  0.0078 -0.1126  0.0747
60566W        W 3483  12.634  18.709  16.769  0.0581  0.0637 -0.0863
60567W        W 3484  13.341  20.345  21.020 -0.1670  0.0039 -0.1681
60568W        W 3485  15.016  19.193  17.890 -0.2223 -0.2148  0.0135
60569W        W 3486  11.959  21.016  19.573 -0.1244 -0.0687  0.0801
60570W        W 3487  10.711  18.921  23.039  0.2704  0.2396  0.3885
60571W        W 3488  12.801  19.695  21.310  0.2880  0.1615  0.3921
60572W        W 3489  12.568  18.681  19.309  0.1468  0.0030  0.3449
60573W        W 3490  11.468  19.215  21.506  0.0774  0.3231 -0.0239
60574W        W 3491  11.350  22.169  19.047 -0.0528 -0.0004 -0.0761
60575W        W 3492  12.038  21.479  19.576 -0.0532  0.0565 -0.0098
60576W        W 3493  13.464  19.378  16.986  0.0363  0.0251 -0.2690
60577W        W 3494   9.819  17.870  19.649  0.2768  0.1035 -0.0076
60578W        W 3495   9.678  21.142  22.361 -0.2182 -0.0909  0.1880
60579W        W 3496  10.399  17.964  19.043  0.4273 -0.1202  0.1372
60580W        W 3497  11.216  21.285  18.773 -0.2657  0.0199 -0.3330
60581W        W 3498  11.177  20.145  21.149 -0.1117 -0.1262  0.0529
60582W        W 3499  12.374  21.464  20.970  0.2774 -0.0033 -0.3766
60583W        W 3500  11.947  19.540  18.744  0.0230 -0.2032  0.1890
60584W        W 3501  14.990  20.683  19.118 -0.0540 -0.1486  0.0691
60585W        W 3502  10.448  20.763  20.585 -0.2840  0.0690 -0.3107
60586W        W 3503  14.119  18.454  17.477  0.0282 -0.1132  0.1213
60587W        W 3504  11.568  20.465  21.874 -0.1251  0.0323 -0.0080
60588W        W 3505  11.308  21.775  22.020  0.1174  0.1085 -0.0717
60589W        W 3506  11.752  21.360  23.052  0.2019 -0.1876  0.1515
60590W        W 3507  13.298  18.880  19.086 -0.0510  0.3969  0.1609
60591W        W 3508  11.897  18.653  18.787  0.1990  0.1426 -0.0100
60592W        W 3509  11.611  19.499  19.533 -0.0722 -0.0113 -0.1635
60593W        W 3510  12.420  18.952  18.125 -0.0456  0.2527 -0.1445
60594W        W 3511  11.801  20.146  23.356  0.1932 -0.0646  0.1842
60595W        W 3512   9.724  20.098  22.379  0.2336  0.0815  0.0715
60596W        W 3513  12.892  20.573  21.004 -0.5379  0.2785 -0.0101
60597W        W 3514  13.859  19.877  17.708  0.0297  0.0539  0.0679
60598W        W 3515  10.667  22.086  19.624  0.4326 -0.0143  0.4148
60599W        W 3516   9.276  20.750  22.681  0.1631  0.0279  0.0458
60600W        W 3517  11.719  19.370  22.010  0.2608 -0.1965  0.0510
60601W        W 3518  12.223  20.675  19.849 -0.0368 -0.0410 -0.1343
60602W        W 3519  10.135  19.815  20.384  0.0969  0.1317  0.2384
60603W        W 3520  12.139  19.361  16.832  0.3652 -0.0432  0.0337
60604W        W 3521  10.613  21.079  25.986 -0.0879 -0.0943 -0.0484
60605W        W 3522  11.179  21.755  22.471  0.0427 -0.0700  0.0252
60606W        W 3523  10.001  20.014  18.497  0.0084 -0.0901 -0.1002
60607W        W 3524  12.387  22.533  18.910  0.1718  0.1109 -0.1638
60608W        W 3525  11.634  18.810  20.684  0.1032 -0.0804 -0.0385
60609W        W 3526  12.382  22.763  21.519 -0.1311  0.2418 -0.0213
60610W        W 3527  11.375  19.544  18.608  0.1229  0.2547  0.0645
60611W        W 3528  11.925  22.490  21.907 -0.1676  0.2279 -0.3461
60612W        W 3529   8.755  21.452  19.557  0.0567  0.2402 -0.3589
60613W        W 3530  12.927  22.375  18.969 -0.1513 -0.1454 -0.1653
60614W        W 3531   9.977  21.522  22.251  0.0723 -0.1555 -0.1499
60615W        W 3532  13.491  21.223  20.931 -0.1388 -0.2789 -0.2567
60616W        W 3533  14.811  16.968  16.305  0.1627 -0.2285  0.3820
60617W        W 3534  14.673  20.743  18.758  0.0884  0.3965 -0.2276
60618W        W 3535  11.766  21.001  17.178 -0.2544  0.1413 -0.1753
60619W        W 3536  12.029  21.443  20.480  0.0565  0.1407  0.0420
60620W        W 3537  11.769  19.051  19.652 -0.1334  0.1698 -0.2216
60621W        W 3538  12.583  19.239  18.562 -0.3332 -0.0314 -0.2087
60622W        W 3539  10.145  18.977  21.569  0.0126 -0.0774 -0.0061
60623W        W 3540   8.858  21.918  23.289 -0.0586  0.2472 -0.0976
60624W        W 3541  12.893  21.190  18.691 -0.1252  0.1873 -0.0909
60625W        W 3542  12.811  20.752  21.961  0.2139  0.1639  0.0688
60626W        W 3543  11.604  20.210  20.838 -0.2638  0.1295 -0.1653
60627W        W 3544  11.170  20.380  16.997  0.1744 -0.1501 -0.0595
60628W        W 3545  11.910  19.845  19.174 -0.1438 -0.0395 -0.1575
60629W        W 3546  11.480  22.586  19.488 -0.2413 -0.1464 -0.0513
60630W        W 3547  12.067  19.370  21.609  0.0609  0.1858 -0.2164
60631W        W 3548  11.778  21.426  21.120 -0.1111  0.0422  0.2174
60632W        W 3549  11.142  17.388  21.369 -0.4859 -0.4474 -0.1925
60633W        W 3550  14.095  18.825  17.069 -0.1061  0.2338 -0.2819
60634W        W 3551  11.795  18.262  19.503  0.1345  0.2939 -0.2216
60635W        W 3552  11.937  18.060  20.554 -0.1937 -0.0792 -0.0214
60636W        W 3553  11.463  20.140  22.947  0.1681  0.0404 -0.5157
60637W        W 3554  12.939  18.379  15.651  0.0893 -0.2554  0.3722
60638W        W 3555  10.444  20.797  21.081 -0.1868  0.0171  0.0256
60639W        W 3556  10.456  20.341  23.543 -0.3376  0.0641  0.1066
60640W        W 3557  11.228  19.517  18.027 -0.0980 -0.0750  0.1980
60641W        W 3558  12.857  21.631  19.969  0.1122 -0.1876  0.2251
60642W        W 3559  12.077  18.319  17.498 -0.0814 -0.0138  0.3910
60643W        W 3560  13.358  20.551  22.076 -0.2457  0.0676  0.1194
60644W        W 3561   9.690  19.136  21.630 -0.2882 -0.0342  0.1861
60645W        W 3562  12.830  19.424  20.421  0.0977  0.1714 -0.1674
60646W        W 3563  11.478  18.580  19.801  0.1168 -0.0869  0.1950
60647W        W 3564  10.849  19.448  23.874  0.2169 -0.0894 -0.0486
60648W        W 3565  13.625  23.020  23.094  0.0254  0.1825 -0.1509
60649W        W 3566  10.548  18.484  19.780 -0.2707  0.4029 -0.2118
60650W        W 3567  15.897  21.300  18.648 -0.2538 -0.0169  0.3009
60651W        W 3568  12.374  17.407  17.998  0.0019 -0.0022 -0.0044
60652W        W 3569  10.952  21.429  20.203 -0.1117  0.0725 -0.1084
60653W        W 3570  12.410  19.716  18.708 -0.0960 -0.1084  0.0386
60654W        W 3571  13.092  22.344  19.496  0.1367  0.2815 -0.0456
60655W        W 3572   8.589  19.119  22.063 -0.2762 -0.1270  0.1196
60656W        W 3573  11.649  21.277  19.275 -0.1477  0.2169 -0.1494
60657W        W 3574  13.167  21.305  20.438 -0.0835  0.3230 -0.3071
60658W        W 3575  11.730  17.780  18.744 -0.0028  0.1374  0.2775
60659W        W 3576   9.410  16.782  22.232  0.2452  0.5041 -0.0421
60660W        W 3577  12.967  20.280  21.854 -0.0094  0.1454  0.1303
60661W        W 3578  10.960  18.774  19.571 -0.1877  0.0664  0.1916
60662W        W 3579  12.456  19.830  19.511  0.1773  0.0456 -0.0094
60663W        W 3580  13.599  21.594  18.984 -0.0161 -0.0046  0.1033
60664W        W 3581  13.244  18.575  18.611 -0.3731  0.1387  0.2028
60665W        W 3582  11.328  20.674  20.603 -0.2089  0.1073  0.2649
60666W        W 3583  11.019  21.557  23.935 -0.0006  0.2892 -0.1155
60667W        W 3584   8.452  20.591  20.604 -0.0559 -0.3276 -0.1975
60668W        W 3585  12.069  19.917  22.594  0.0609 -0.1574 -0.0868
60669W        W 3586  11.975  20.304  19.542  0.1505 -0.2192  0.0793
60670W        W 3587  13.295  21.088  19.893  0.2196 -0.1406 -0.1497
60671W        W 3588  12.338  20.628  21.131 -0.2207  0.1975 -0.0539
60672W        W 3589  13.344  19.227  17.436  0.1745  0.0856 -0.1058
60673W        W 3590  14.148  21.958  18.722  0.0365  0.1476  0.3116
60674W        W 3591  11.761  18.202  17.918 -0.0758 -0.0252  0.1833
60675W        W 3592  13.851  20.260  17.358  0.0868  0.1956 -0.3066
60676W        W 3593  12.170  16.648  16.272 -0.1552  0.0082 -0.0806
60677W        W 3594   8.946  18.971  23.133 -0.0977  0.2686  0.4011
60678W        W 3595  11.091  19.864  18.904  0.1056 -0.0955 -0.0289
60679W        W 3596   9.786  19.190  19.701 -0.6029  0.3423  0.0764
60680W        W 3597  10.320  21.042  21.576  0.0754 -0.0571  0.3416
60681W        W 3598  11.777  18.461  22.368  0.0813 -0.0392  0.2390
60682W        W 3599  10.796  19.510  22.436 -0.1931 -0.0619 -0.0911
60683W        W 3600   9.745  21.168  23.628  0.1981 -0.0104 -0.1472
60684W        W 3601  10.759  20.411  19.919 -0.0584  0.0442 -0.1915
60685W        W 3602  12.032  21.027  18.516  0.0707  0.0473  0.0397
60686W        W 3603   9.938  18.611  21.927  0.0043 -0.1713 -0.2252
60687W        W 3604  10.248  18.459  21.473 -0.1536 -0.1389 -0.0164
60688W        W 3605  13.374  19.664  17.702 -0.0073 -0.1630  0.0145
60689W        W 3606  13.054  19.971  19.703  0.1894 -0.0976  0.0319
60690W        W 3607  10.548  19.337  21.511 -0.1519  0.0901 -0.0047
60691W        W 3608  13.088  22.350  21.064  0.0744 -0.2105  0.0371
60692W        W 3609  10.882  20.646  20.357 -0.3652 -0.2724  0.0457
60693W        W 3610  11.802  18.825  22.769 -0.1957  0.0592 -0.0673
60694W        W 3611  12.111  19.004  20.153  0.0986  0.1208 -0.2972
60695W        W 3612   9.351  16.509  21.326 -0.0114  0.2618 -0.0467
60696W        W 3613   9.739  17.754  21.882  0.0795 -0.1673 -0.1935
60697W        W 3614  12.494  21.642  19.540 -0.1271 -0.1002  0.5985
60698W        W 3615  13.354  20.661  17.320 -0.0004 -0.0015 -0.2961
60699W        W 3616  10.133  20.227  22.769 -0.2358  0.1834  0.1407
60700W        W 3617  10.357  23.965  21.521 -0.2369 -0.0022 -0.2028
60701W        W 3618  10.447  17.952  21.659  0.0578  0.3153 -0.2301
60702W        W 3619  14.004  19.411  19.021 -0.6849  0.2163 -0.1380
60703W        W 3620  11.489  20.205  21.493 -0.0712  0.2221 -0.2626
60704W        W 3621  14.251  20.164  17.781 -0.3489 -0.0093  0.0551
60705W        W 3622  14.967  15.419  16.600  0.1736 -0.1644 -0.2012
60706W        W 3623  11.586  18.056  17.320 -0.0630 -0.1953 -0.2325
60707W        W 3624   8.642  18.286  23.719  0.2261 -0.0325  0.0480
60708W        W 3625  11.329  21.764  23.018  0.0902 -0.1258  0.0690
60709W        W 3626  14.556  20.855  22.152 -0.1109 -0.0058 -0.0459
60710W        W 3627  10.327  19.051  20.983 -0.1945 -0.1967  0.1106
60711W        W 3628  13.191  19.712  17.244 -0.2845  0.1749 -0.1564
60712W        W 3629  12.257  19.001  19.547  0.0910 -0.0788  0.2166
60713W        W 3630  10.624  20.374  22.931 -0.0796 -0.0224  0.2704
60714W        W 3631  11.435  20.630  22.314  0.0002  0.2443 -0.1093
60715W        W 3632   9.892  18.758  22.534  0.3385  0.0657 -0.3228
60716W        W 3633  11.738  22.366  19.842  0.0054  0.0246 -0.1110
60717W        W 3634  13.459  18.208  18.895  0.1603 -0.3765 -0.2309
60718W        W 3635  11.984  19.845  19.685  0.0266  0.3593 -0.0877
60719W        W 3636  14.430  19.880  18.145 -0.0911  0.2349  0.0292
60720W        W 3637  11.776  20.339  22.623  0.1195 -0.1700  0.3474
60721W        W 3638  13.441  23.519  21.478  0.0025 -0.0910 -0.2002
60722W        W 3639  10.385  20.655  20.089 -0.1734 -0.0525 -0.0251
60723W        W 3640  14.401  20.992  19.809  0.2073 -0.2011  0.0054
60724W        W 3641  11.483  19.179  22.732  0.3926  0.1011 -0.1514
60725W        W 3642  12.537  19.952  20.569 -0.3625  0.0483  0.2626
60726W        W 3643  11.411  22.013  21.458  0.3657 -0.2326  0.0295
60727W        W 3644  12.478  20.330  20.159 -0.1937  0.2974 -0.0428
60728W        W 3645  10.878  19.447  21.037 -0.0811  0.0588 -0.1124
60729W        W 3646  12.882  20.663  18.973 -0.2451  0.2107 -0.3229
60730W        W 3647  11.395  23.533  22.774  0.1402 -0.1668  0.2116
60731W        W 3648  11.061  20.265  22.628 -0.4570  0.1523  0.1671
60732W        W 3649  12.490  21.738  24.950  0.2100  0.0310  0.1064
60733W        W 3650  13.150  18.535  22.600  0.3082 -0.3686  0.0873
60734W        W 3651  14.116  20.602  20.753  0.0427  0.3791  0.0745
60735W        W 3652  11.871  19.996  26.586  0.3069  0.1416 -0.0650
60736W        W 3653  12.578  20.689  22.452 -0.4402  0.3593  0.0672
60737W        W 3654  14.190  16.927  24.974  0.0767 -0.4286 -0.1919
60738W        W 3655  13.054  21.945  23.759 -0.1329 -0.0325  0.0159
60739W        W 3656  15.237  21.034  24.293  0.1901  0.0254  0.1259
60740W        W 3657  11.518  19.806  20.434 -0.1922 -0.0903  0.5098
60741W        W 3658  11.385  20.092  22.244  0.1738  0.2835  0.3097
60742W        W 3659  12.578  19.920  24.753  0.1754 -0.0573  0.1252
60743W        W 3660  11.316  18.173  21.187  0.0674 -0.0822 -0.0784
60744W        W 3661  10.255  18.008  25.408 -0.1192 -0.1752 -0.2134
60745W        W 3662  13.644  21.449  23.109  0.0477  0.1226 -0.2430
60746W        W 3663  11.960  21.010  23.377  0.4730 -0.4198 -0.0423
60747W        W 3664  11.845  20.362  26.225 -0.4412  0.2826 -0.4446
60748W        W 3665  12.430  20.474  21.959 -0.1138 -0.0413  0.1022
60749W        W 3666  13.225  21.416  22.793 -0.0335  0.2286  0.0882
60750W        W 3667  13.254  19.544  22.652  0.0909 -0.4411 -0.0483
60751W        W 3668  13.862  18.652  23.730  0.1540 -0.0061 -0.1042
60752W        W 3669  13.479  19.599  24.043  0.0704 -0.3925 -0.0835
60753W        W 3670  11.454  18.503  25.284  0.1047  0.1366 -0.1486
60754W        W 3671  10.887  19.879  24.486  0.4794 -0.1925 -0.3300
60755W        W 3672  12.722  19.084  25.854  0.3036  0.0862  0.1066
60756W        W 3673  13.378  18.896  21.448  0.1909 -0.1094 -0.1628
60757W        W 3674  14.306  19.519  23.682 -0.0326  0.1119 -0.0209
60758W        W 3675  11.201  19.596  22.786 -0.0479  0.4612 -0.1602
60759W        W 3676  11.667  21.822  23.660  0.1169 -0.0433 -0.0588
60760W        W 3677  14.050  21.420  24.767 -0.2711 -0.2581  0.3113
60761W        W 3678  11.502  20.800  24.246 -0.1181  0.0461 -0.1885
60762W        W 3679   8.218  23.614  23.904  0.1513  0.1349 -0.0452
60763W        W 3680  10.910  22.010  25.630 -0.1203  0.1340 -0.2622
60764W        W 3681  13.835  19.799  22.287  0.0690 -0.1084 -0.0821
60765W        W 3682  14.687  21.082  25.337 -0.0859  0.0185 -0.1085
60766W        W 3683  12.448  20.916  25.689 -0.2093  0.0271 -0.0449
60767W        W 3684  10.243  21.351  24.901 -0.1605 -0.3088  0.0512
60768W        W 3685  13.305  21.765  25.441  0.1103  0.2175  0.1873
60769W        W 3686  13.735  20.552  24.917 -0.2192 -0.2496 -0.1221
60770W        W 3687  13.873  18.974  24.867 -0.2698 -0.0276  0.2295
60771W        W 3688  12.836  19.407  24.789  0.1665 -0.0428  0.1649
60772W        W 3689  10.517  19.775  24.201 -0.1160  0.1045  0.0318
60773W        W 3690  11.203  22.501  22.506 -0.1314 -0.2115  0.1029
60774W        W 3691  14.093  22.662  26.039  0.2548  0.1741 -0.0743
60775W        W 3692  10.230  20.180  22.274  0.2565  0.2055  0.2861
60776W        W 3693  14.100  18.161  22.874 -0.2254 -0.1095  0.1073
60777W        W 3694  12.717  22.366  23.895 -0.1096  0.0452  0.0785
60778W        W 3695  13.385  19.937  24.376  0.1839  0.0212 -0.0294
60779W        W 3696  12.374  19.144  21.226 -0.0005  0.0269 -0.2079
60780W        W 3697  12.836  17.639  25.154  0.2162  0.0524 -0.0172
60781W        W 3698  10.557  20.172  26.308  0.1999  0.0059  0.2204
60782W        W 3699  13.224  20.284  24.729  0.0087  0.0002  0.0803
60783W        W 3700  14.710  21.814  25.077 -0.1726 -0.1823 -0.0102
60784W        W 3701  13.467  20.725  23.909  0.2226 -0.1814  0.0917
60785W        W 3702  12.410  18.869  21.672  0.2007  0.3152 -0.0652
60786W        W 3703  12.908  21.174  25.875 -0.0980  0.0232 -0.0780
60787W        W 3704  10.697  20.837  25.538 -0.0428  0.0984 -0.0160
60788W        W 3705  12.590  19.661  23.677 -0.0556  0.1689  0.0352
60789W        W 3706  13.434  19.958  21.843  0.3069 -0.2947 -0.3567
60790W        W 3707  12.199  20.234  22.988  0.0918  0.0564 -0.0754
60791W        W 3708  10.443  19.885  25.298 -0.0475 -0.0748 -0.0822
60792W        W 3709  12.471  19.877  26.445 -0.1466  0.0585  0.0043
60793W        W 3710  11.757  18.658  27.499 -0.0665  0.0390 -0.0234
60794W        W 3711  11.178  18.725  21.557 -0.1060  0.2322 -0.0268
60795W        W 3712  15.820  21.181  24.317  0.0126 -0.0366  0.0895
60796W        W 3713  12.705  22.607  24.391 -0.1057 -0.0621 -0.2802
60797W        W 3714  14.019  18.295  20.746  0.1312  0.1216  0.2035
60798W        W 3715  11.543  21.933  26.308  0.3500 -0.0901 -0.2426
60799W        W 3716  13.086  21.725  22.431  0.1061  0.0321  0.1656
60800W        W 3717  11.605  19.669  22.418 -0.0605  0.1628 -0.1680
60801W        W 3718  13.855  17.699  22.633 -0.1163  0.0570 -0.0852
60802W        W 3719  13.573  18.466  21.957  0.1948  0.0154 -0.0289
60803W        W 3720  10.981  20.613  23.200 -0.0629 -0.0617 -0.0137
60804W        W 3721  11.965  19.523  24.451 -0.0364 -0.3828 -0.2029
60805W        W 3722  12.983  19.779  21.778  0.2107  0.2123 -0.2981
60806W        W 3723  12.545  19.479  21.737 -0.0028 -0.1962 -0.1298
60807W        W 3724  12.565  21.782  23.890  0.1659  0.2308  0.0092
60808W        W 3725  13.614  19.633  25.722 -0.0522 -0.2157  0.0276
60809W        W 3726  13.815  19.972  24.665 -0.0516  0.0466  0.1887
60810W        W 3727  10.739  21.554  25.777  0.1213 -0.2372 -0.1925
60811W        W 3728  10.075  20.713  24.177 -0.1530  0.0981 -0.0864
60812W        W 3729  11.458  20.690  24.831 -0.0010  0.1732 -0.0711
60813W        W 3730  10.226  18.088  24.733 -0.0041 -0.2077 -0.2504
60814W        W 3731  11.423  20.321  25.942 -0.1213 -0.1053  0.0225
60815W        W 3732  12.652  19.469  20.895  0.1699 -0.3241  0.1045
60816W        W 3733  10.075  19.008  26.786  0.0774 -0.0375 -0.1500
60817W        W 3734   8.150  21.214  25.703 -0.0037 -0.4930  0.4815
60818W        W 3735  16.280  21.780  19.975  0.1024 -0.1733 -0.0293
60819W        W 3736  12.802  21.434  23.522  0.2263 -0.0655  0.0130
60820W        W 3737  11.980  18.974  24.417 -0.0296 -0.1046 -0.0965
60821W        W 3738  13.116  20.706  23.217  0.2560 -0.3171 -0.0609
60822W        W 3739  13.374  18.377  24.305  0.1315 -0.0075  0.1072
60823W        W 3740  12.270  20.124  24.343 -0.1175  0.2759 -0.1111
60824W        W 3741  12.646  20.465  22.917  0.0211 -0.1090 -0.0235
60825W        W 3742  12.133  18.466  22.838  0.2078 -0.2184 -0.2262
60826W        W 3743  12.148  20.203  20.881  0.4670 -0.3266 -0.0745
60827W        W 3744   9.750  20.237  24.009 -0.3396  0.1945  0.0284
60828W        W 3745  10.019  19.978  24.915 -0.3788  0.0757 -0.3352
60829W        W 3746  14.469  19.391  25.938 -0.0638  0.2873 -0.2403
60830W        W 3747  13.532  21.596  22.382  0.4467 -0.3238  0.2591
60831W        W 3748  14.404  21.100  27.268  0.1133 -0.2234  0.0646
60832W        W 3749  13.109  22.289  25.553  0.1086  0.1040 -0.1331
60833W        W 3750  13.624  20.109  25.569  0.0168  0.1963  0.2559
60834W        W 3751  11.499  18.766  23.566  0.0636 -0.0647 -0.1196
60835W        W 3752  11.191  20.688  25.711 -0.1366  0.0733 -0.0737
60836W        W 3753  11.560  19.929  26.197 -0.4200  0.0186  0.1551
60837W        W 3754  12.220  18.814  22.420  0.1308 -0.0868 -0.2500
60838W        W 3755  14.769  22.187  23.144 -0.4000  0.2145 -0.2821
60839W        W 3756  13.203  22.166  23.315  0.1477 -0.0327  0.1785
60840W        W 3757  13.501  21.477  26.435  0.1096 -0.0777  0.4751
60841W        W 3758  12.550  18.569  23.697 -0.0250 -0.0899  0.0614
60842W        W 3759  13.465  20.934  22.900  0.1653 -0.2789 -0.1837
60843W        W 3760  13.837  20.831  22.151  0.3375  0.0783  0.1637
60844W        W 3761  10.276  20.224  24.136 -0.2591  0.0328  0.2316
60845W        W 3762  12.941  21.569  24.088 -0.2932  0.0413  0.1245
60846W        W 3763   9.959  20.340  24.555  0.1615  0.0143  0.0774
60847W        W 3764  11.446  17.776  23.540  0.1416  0.1057  0.1136
60848W        W 3765  12.827  22.232  24.747 -0.1149  0.1629  0.3501
60849W        W 3766  12.436  18.850  26.175  0.0641  0.2631 -0.0261
60850W        W 3767  15.273  18.762  25.016  0.1197  0.2760  0.0079
60851W        W 3768  10.728  18.993  25.680  0.1151  0.0900  0.0277
60852W        W 3769  12.585  21.043  27.592 -0.0284  0.0541 -0.0098
60853W        W 3770  12.509  19.496  26.781 -0.0973  0.2935  0.2936
60854W        W 3771  13.360  21.719  20.769  0.1402  0.0888  0.2260
60855W        W 3772  11.350  20.849  18.406 -0.2936 -0.1683  0.1517
60856W        W 3773  12.821  18.884  19.737  0.0051  0.0728 -0.1666
60857W        W 3774  11.829  21.676  24.645 -0.1164  0.0963 -0.2799
60858W        W 3775  14.439  22.473  23.431  0.0483 -0.0528  0.0082
60859W        W 3776  12.638  20.913  23.144  0.1555 -0.2810  0.2334
60860W        W 3777  13.278  19.871  19.141  0.1413 -0.1818 -0.0016
60861W        W 3778  14.308  20.319  23.728  0.0803  0.0442  0.0468
60862W        W 3779  12.474  19.153  25.104  0.2127  0.3083  0.2475
60863W        W 3780  11.607  22.112  24.615 -0.1681 -0.0075  0.0685
60864W        W 3781  13.469  20.214  23.974 -0.0951  0.2980  0.1588
60865W        W 3782  14.298  21.154  23.911 -0.1051 -0.2482 -0.1605
60866W        W 3783  14.055  20.299  22.592 -0.0379 -0.0950  0.0516
60867W        W 3784  12.172  17.878  22.122 -0.1158 -0.3287  0.1265
60868W        W 3785  10.031  20.996  24.605  0.1126  0.0288  0.1335
60869W        W 3786  12.774  17.582  23.564 -0.2708 -0.1114  0.0416
60870W        W 3787  12.789  18.226  22.121 -0.1734 -0.0232  0.1959
60871W        W 3788  13.119  20.479  25.504  0.0457  0.0548  0.1969
60872W        W 3789  14.034  20.867  26.870  0.0827  0.2794 -0.1446
60873W        W 3790  11.248  21.000  20.183 -0.0337  0.2790 -0.3489
60874W        W 3791  12.261  19.818  21.338  0.0597 -0.2142 -0.0960
60875W        W 3792  11.815  19.904  25.254 -0.1512  0.0737 -0.0526
60876W        W 3793  13.864  20.973  24.419  0.3292  0.2780  0.1875
60877W        W 3794  11.703  19.067  26.561  0.1892  0.0022  0.3687
60878W        W 3795  11.388  23.033  26.316 -0.1048  0.1346 -0.0303
60879W        W 3796  13.315  20.539  26.126 -0.3436  0.1977  0.1201
60880W        W 3797  13.069  20.831  22.580 -0.2039  0.2409 -0.1436
60881W        W 3798  12.663  19.051  22.306  0.1462 -0.0662 -0.2838
60882W        W 3799  12.246  16.746  24.321  0.0613 -0.1148 -0.0022
60883W        W 3800  12.443  22.940  23.443 -0.2067 -0.2592  0.0923
60884W        W 3801  12.703  19.956  22.701  0.4425  0.2761 -0.1053
60885W        W 3802  10.151  17.638  25.020  0.1697 -0.0078 -0.0273
60886W        W 3803  13.983  19.877  23.672  0.2499 -0.1634  0.2375
60887W        W 3804  12.655  21.911  23.373 -0.1266 -0.1775  0.3371
60888W        W 3805  14.106  22.193  21.875  0.0221  0.3066  0.1774
60889W        W 3806  10.396  20.757  22.876  0.1105 -0.3865 -0.0143
60890W        W 3807  13.301  18.455  21.569  0.1785 -0.0219 -0.0717
60891W        W 3808  10.080  20.478  25.285  0.1979 -0.1079  0.3477
60892W        W 3809  10.749  18.602  21.143  0.2560  0.0553 -0.0366
60893W        W 3810  11.316  19.396  23.747  0.1752  0.3919 -0.1939
60894W        W 3811  12.579  19.916  22.187  0.0324 -0.1582 -0.0813
60895W        W 3812  12.044  17.340  25.438  0.1235  0.0258 -0.1873
60896W        W 3813  11.723  19.010  23.983 -0.3069 -0.0101  0.1924
60897W        W 3814  12.137  22.023  24.767 -0.1101  0.0358 -0.1667
60898W        W 3815  14.390  19.888  23.990  0.3012 -0.0308 -0.1551
60899W        W 3816  11.339  19.948  23.426 -0.1513 -0.2466  0.1299
60900W        W 3817  13.793  21.570  23.603 -0.1721 -0.1191  0.0752
60901W        W 3818  13.522  18.274  23.768  0.1642  0.1102  0.1810
60902W        W 3819  12.054  20.506  24.109  0.2401  0.1038  0.0778
60903W        W 3820  13.494  19.822  25.078  0.0944  0.0708 -0.3058
60904W        W 3821  13.250  19.259  23.744 -0.1669 -0.0347 -0.1117
60905W        W 3822   9.756  19.917  27.020 -0.0279 -0.1667 -0.1592
60906W        W 3823  12.769  21.309  24.932 -0.1855 -0.0387 -0.1879
60907W        W 3824  11.973  19.263  22.494 -0.1716 -0.0917  0.1659
60908W        W 3825  10.490  19.325  23.511 -0.2423 -0.0298  0.0789
60909W        W 3826  13.157  19.442  25.847 -0.2250  0.0260  0.2546
60910W        W 3827  12.896  18.910  22.860  0.1364 -0.2643  0.3966
60911W        W 3828  14.596  20.706  24.039  0.0297 -0.1263 -0.0831
60912W        W 3829  12.907  18.104  25.018  0.1097  0.2254 -0.0224
60913W        W 3830  11.558  19.789  21.813  0.1458  0.3351  0.2936
60914W        W 3831  12.985  20.999  24.094 -0.1438 -0.0272  0.2402
60915W        W 3832  13.491  19.631  23.570 -0.5021  0.0264  0.1903
60916W        W 3833  13.771  18.964  27.217 -0.0154  0.2313 -0.1340
60917W        W 3834  13.233  18.734  23.734  0.0630  0.0974  0.0711
60918W        W 3835  14.838  21.756  21.302 -0.1673 -0.0026 -0.2632
60919W        W 3836  13.467  18.790  22.853 -0.2045  0.0796  0.0841
60920W        W 3837  10.601  19.266  24.364 -0.1764 -0.0464  0.0982
60921W        W 3838  10.603  19.819  25.855 -0.1154 -0.0781 -0.0872
60922W        W 3839  11.796  21.996  21.777 -0.1333 -0.2624  0.0343
60923W        W 3840  12.231  18.934  25.704  0.4730 -0.1956 -0.3123
60924W        W 3841  11.490  21.328  26.281  0.1493  0.0229 -0.0274
60925W        W 3842  11.305  23.068  24.359  0.1566 -0.0935  0.1311
60926W        W 3843  11.893  20.765  25.787 -0.1824 -0.2797 -0.0446
60927W        W 3844  12.190  21.958  23.573 -0.0327  0.2511 -0.0381
60928W        W 3845  12.303  18.768  24.860  0.0845 -0.4429  0.2071
60929W        W 3846  11.849  17.809  25.312 -0.0133  0.0986  0.1606
60930W        W 3847  12.626  21.483  23.043 -0.0687  0.1259 -0.2893
60931W        W 3848  12.238  18.301  22.338 -0.1248 -0.3081  0.1040
60932W        W 3849   9.185  17.635  27.668 -0.2078 -0.2227 -0.2073
60933W        W 3850  11.948  22.785  23.575 -0.0574 -0.2336  0.1720
60934W        W 3851  12.161  17.665  24.462  0.0001  0.0821  0.1603
60935W        W 3852  12.440  22.370  27.001  0.0224 -0.0775  0.2912
60936W        W 3853  12.366  19.417  26.260  0.1152  0.2102  0.2981
60937W        W 3854  13.085  18.688  23.240  0.2058 -0.2965 -0.2289
60938W        W 3855  11.671  18.500  23.164  0.1344 -0.1999 -0.1604
60939W        W 3856  10.839  19.931  25.009 -0.2661  0.1277 -0.2933
60940W        W 3857  15.664  20.484  20.375 -0.1644 -0.4020  0.0696
60941W        W 3858  12.185  21.530  23.293  0.0031 -0.2549  0.2731
60942W        W 3859  12.228  19.109  22.008 -0.0871  0.1192  0.2469
60943W        W 3860  11.432  22.551  24.781 -0.3082  0.3032  0.0645
60944W        W 3861  12.184  18.953  20.791 -0.0039 -0.0094  0.0129
60945W        W 3862  12.815  20.841  23.624  0.2827 -0.1717  0.0992
60946W        W 3863  12.991  23.535  24.612  0.2710 -0.2113  0.1601
60947W        W 3864  11.755  17.739  26.284  0.0128  0.1146  0.1158
60948W        W 3865  13.744  20.304  22.202 -0.2021 -0.1056  0.0964
60949W        W 3866  10.992  19.973  20.047  0.3552 -0.1373  0.2079
60950W        W 3867  14.322  19.932  24.590 -0.4083 -0.1245  0.3321
60951W        W 3868  11.243  19.679  21.420  0.4096 -0.2715 -0.2373
60952W        W 3869  15.011  20.912  23.285 -0.2603  0.1133 -0.2461
60953W        W 3870  13.177  18.936  25.660  0.0655  0.4057 -0.0813
60954W        W 3871  14.031  20.615  25.478  0.2268 -0.1210  0.3212
60955W        W 3872  13.720  18.429  22.738 -0.1658 -0.1091  0.1237
60956W        W 3873  13.159  19.065  20.108  0.1912 -0.1647 -0.1219
60957W        W 3874  13.026  18.736  21.020  0.1784  0.1730 -0.2550
60958W        W 3875  15.809  19.425  24.445  0.0197 -0.0983 -0.0185
60959W        W 3876  13.102  18.611  21.998  0.1586 -0.1809  0.2322
60960W        W 3877  12.961  18.618  24.161 -0.2072  0.0306  0.0034
60961W        W 3878  13.087  22.180  22.545 -0.0385 -0.1380 -0.3649
60962W        W 3879  14.011  20.230  21.798  0.0274  0.2716  0.0255
60963W        W 3880  13.834  18.524  23.217 -0.0668 -0.1473 -0.1474
60964W        W 3881  11.907  17.042  22.620  0.1500  0.0110  0.2790
60965W        W 3882  11.640  22.684  24.330 -0.1595  0.1747  0.1301
60966W        W 3883  11.489  18.305  22.729 -0.3575  0.0255 -0.0530
60967W        W 3884  12.196  21.137  22.956  0.2674 -0.3603 -0.0782
60968W        W 3885  14.311  22.164  25.009 -0.1292 -0.3882 -0.0060
60969W        W 3886  14.435  20.267  23.179  0.1775 -0.0765 -0.1915
60970W        W 3887  10.452  16.951  21.406 -0.0396 -0.4290 -0.1012
60971W        W 3888  13.462  18.869  25.085  0.1421 -0.0152 -0.0882
60972W        W 3889  11.439  18.716  24.369 -0.0184  0.2155  0.1055
60973W        W 3890  13.988  19.566  24.227 -0.4489  0.1207  0.2106
60974W        W 3891  14.123  20.972  24.906  0.2115 -0.2141  0.0844
60975W        W 3892  11.590  20.992  27.592  0.0713  0.1271 -0.4353
60976W        W 3893  11.061  20.688  24.341 -0.1089  0.2887 -0.0445
60977W        W 3894  13.176  19.088  22.441  0.0884  0.0634  0.0085
60978W        W 3895  12.965  19.160  21.237  0.2916  0.2572 -0.0002
60979W        W 3896  12.310  20.618  23.320  0.0066  0.2353 -0.1117
60980W        W 3897  14.477  19.056  22.684 -0.0948  0.0374 -0.0656
60981W        W 3898  13.655  20.981  23.351 -0.1727  0.1756 -0.0405
60982W        W 3899  13.562  21.413  24.766 -0.0413  0.0155 -0.3118
60983W        W 3900  12.910  20.049  24.373  0.2307 -0.1355  0.0875
60984W        W 3901  13.229  20.971  21.277  0.2148 -0.0889  0.1073
60985W        W 3902  11.433  20.124  24.910  0.2361 -0.0144 -0.1837
60986W        W 3903  10.690  18.007  25.657 -0.0175  0.1130 -0.1660
60987W        W 3904  14.414  19.742  27.726 -0.1410 -0.0555 -0.1784
60988W        W 3905  13.258  19.199  23.026 -0.1642 -0.0397  0.3749
60989W        W 3906  12.671  19.746  25.235  0.0430  0.1557 -0.0187
60990W        W 3907  10.855  20.906  22.806 -0.0221 -0.1051 -0.4916
60991W        W 3908  12.364  22.059  27.619  0.1612  0.1675 -0.0757
60992W        W 3909  13.993  20.590  24.035 -0.2922  0.0466  0.3107
60993W        W 3910   9.724  23.316  22.975  0.0650  0.3684  0.1978
60994W        W 3911  13.227  20.566  21.555  0.3283 -0.3033 -0.0196
60995W        W 3912  12.028  20.211  21.593  0.1851  0.0527 -0.2141
60996W        W 3913  13.256  21.205  23.715 -0.2863  0.1365 -0.1098
60997W        W 3914  13.019  19.530  23.377  0.2706 -0.1991  0.1132
60998W        W 3915  11.293  21.683  26.650 -0.1096 -0.4761  0.0513
60999W        W 3916  11.437  20.846  23.775  0.0464 -0.2048  0.1896
61000W        W 3917  13.492  22.786  24.819  0.0129 -0.1078  0.1318
61001W        W 3918  10.946  19.639  26.927 -0.3351  0.0010 -0.0626
61002W        W 3919  12.920  21.875  25.780  0.0773 -0.1395  0.3028
61003W        W 3920  13.268  18.575  20.022 -0.0676  0.2105 -0.0080
61004W        W 3921  13.657  21.681  28.197 -0.0212 -0.1825 -0.0089
61005W        W 3922  10.970  21.514  26.303  0.0939  0.0540 -0.2636
61006W        W 3923  12.076  18.303  21.858 -0.1237 -0.2781  0.0558
61007W        W 3924  14.799  21.154  24.028 -0.1148  0.0029 -0.2316
61008W        W 3925  11.936  17.878  24.833  0.1032 -0.0861 -0.0834
61009W        W 3926  12.365  22.954  24.999  0.1896 -0.4378 -0.0208
61010W        W 3927  13.788  23.189  24.551  0.1427  0.1918  0.0431
61011W        W 3928  11.617  19.019  25.184  0.4145  0.1486 -0.0292
61012W        W 3929   9.709  21.632  22.669  0.1394  0.0931  0.1173
61013W        W 3930  13.140  16.718  24.756  0.3950 -0.1958  0.1542
61014W        W 3931  12.268  20.323  22.414  0.2656 -0.0878 -0.3421
61015W        W 3932  13.456  19.456  22.183 -0.0684  0.0084  0.0302
61016W        W 3933  10.493  21.713  23.982  0.0034  0.0601 -0.0342
61017W        W 3934  11.468  19.719  24.448  0.0518  0.1641 -0.4069
61018W        W 3935  13.963  18.846  22.846  0.1517 -0.1005 -0.0913
61019W        W 3936  11.133  18.513  24.866  0.1025  0.1021  0.0873
61020W        W 3937  12.075  18.745  21.318 -0.2274  0.2414 -0.1739
61021W        W 3938  13.469  21.070  26.073 -0.0374 -0.2210  0.0801
61022W        W 3939  13.868  18.560  25.783  0.1392 -0.1960 -0.0761
61023W        W 3940  12.658  20.466  24.344 -0.1364  0.0635  0.0635
61024W        W 3941  12.606  19.288  19.558 -0.1508 -0.0825  0.3021
61025W        W 3942  11.766  20.018  24.244  0.1778 -0.3036 -0.0137
61026W        W 3943  12.085  18.766  25.306  0.0750  0.0193  0.0155
61027W        W 3944  10.910  18.590  22.094  0.0027 -0.0704  0.1328
61028W        W 3945  14.121  19.521  22.801  0.3453  0.1593 -0.1058
61029W        W 3946  11.204  19.547  19.837  0.0108  0.0307  0.1385
61030W        W 3947  12.566  21.641  26.658  0.2371 -0.1029 -0.0790
61031W        W 3948  12.094  17.467  21.296  0.3725 -0.3065  0.0844
61032W        W 3949  12.462  18.271  20.607 -0.0884 -0.0342  0.3374
61033W        W 3950  12.145  19.677  23.185 -0.0426 -0.1703  0.3688
61034W        W 3951  13.233  20.933  25.623 -0.0259  0.0632 -0.1638
61035W        W 3952  13.585  22.547  25.704  0.5449 -0.2410  0.1455
61036W        W 3953  12.170  18.492  25.989  0.1850  0.1106 -0.0524
61037W        W 3954  13.183  21.003  21.774 -0.0429 -0.1663  0.1274
61038W        W 3955  13.703  19.211  22.628 -0.2396  0.3309  0.0141
61039W        W 3956  14.163  22.866  23.199  0.0739  0.1357 -0.1243
61040W        W 3957  12.640  21.033  21.038  0.4342 -0.0853  0.1910
61041W        W 3958  13.170  20.461  24.284  0.3610 -0.3445 -0.1971
61042W        W 3959  11.945  19.924  24.716 -0.1640  0.0567 -0.2284
61043W        W 3960  13.224  23.322  25.363 -0.0499  0.1128 -0.1125
61044W        W 3961  13.042  19.555  24.303 -0.3053  0.0864 -0.1945
61045W        W 3962  12.530  18.624  22.066  0.1600  0.2663  0.1606
61046W        W 3963  13.094  19.833  23.837 -0.1844  0.0923  0.4117
61047W        W 3964  10.085  22.380  23.878  0.1231  0.2240  0.0448
61048W        W 3965  14.148  20.247  26.254  0.3545  0.0656 -0.1346
61049W        W 3966  12.648  21.752  22.634  0.1631  0.1185 -0.0814
61050W        W 3967  15.318  16.861  25.762 -0.0758  0.2995  0.1572
61051W        W 3968  13.891  19.187  23.783 -0.3517  0.0982 -0.0093
61052W        W 3969  11.894  20.210  25.647  0.0967  0.1194 -0.1605
61053W        W 3970  11.901  20.143  22.144  0.1723  0.1424 -0.1750
61054W        W 3971  13.804  21.252  22.681 -0.0367  0.0145  0.1732
61055W        W 3972  12.074  21.193  22.419 -0.0819  0.2966 -0.3163
61056W        W 3973  12.406  21.127  23.562 -0.0013 -0.0263 -0.1666
61057W        W 3974  13.790  21.109  23.883  0.1787  0.0005  0.5214
61058W        W 3975  12.833  19.551  19.927  0.1344 -0.1349  0.0852
61059W        W 3976  11.228  20.597  21.524 -0.1415 -0.2588  0.1904
61060W        W 3977  10.997  20.525  22.114  0.0847 -0.1263  0.2084
61061W        W 3978  13.993  18.695  20.431 -0.1311 -0.1677 -0.1631
61062W        W 3979  12.344  16.912  19.925  0.0325  0.1247  0.0804
61063W        W 3980  11.361  19.983  26.744  0.0643  0.3691 -0.0731
61064W        W 3981  10.769  20.273  24.251 -0.0264  0.0542  0.1764
61065W        W 3982  10.095  20.420  23.193  0.2019 -0.0785 -0.1510
61066W        W 3983  10.383  20.379  26.769 -0.2020  0.0577  0.3216
61067W        W 3984  12.278  17.880  23.059  0.0785  0.0962  0.0407
61068W        W 3985  12.837  18.075  26.423  0.0065  0.1374 -0.0217
61069W        W 3986  11.510  19.155  24.605 -0.0084 -0.1028  0.2174
61070W        W 3987  12.834  18.987  23.594  0.5557  0.0831 -0.0281
61071W        W 3988  13.802  21.258  21.909 -0.0511 -0.1639 -0.1144
61072W        W 3989  11.946  19.177  24.832  0.2913 -0.0115 -0.0855
61073W        W 3990  11.070  17.676  25.496  0.2917  0.1002  0.2588
61074W        W 3991  11.957  20.992  23.930  0.1100  0.1565 -0.0213
61075W        W 3992  14.294  20.047  19.741  0.1302 -0.0730 -0.0846
61076W        W 3993  12.122  18.776  23.745 -0.0991  0.2313  0.2482
61077W        W 3994  13.430  19.835  26.803 -0.0820 -0.0765 -0.4668
61078W        W 3995  11.605  20.149  23.806  0.0333 -0.2173  0.2501
61079W        W 3996  12.896  18.734  27.157  0.0238  0.2970 -0.1413
61080W        W 3997  13.680  18.290  24.905 -0.1111  0.0618  0.0286
61081W        W 3998  11.102  19.409  27.489 -0.2001 -0.2663 -0.0708
61082W        W 3999  12.930  18.849  21.628  0.2156  0.0300 -0.0089
61083W        W 4000  12.461  19.615  24.353  0.1305 -0.1133  0.0100
61084W        W 4001  12.863  22.360  20.616  0.0028 -0.1330 -0.1582
61085W        W 4002  12.043  20.900  24.423  0.0384  0.0141 -0.2091
61086W        W 4003  13.811  20.681  26.338 -0.0050 -0.1972  0.1671
61087W        W 4004  10.252  18.336  25.777  0.1745  0.3503  0.0838
61088W        W 4005  12.964  19.225  21.937  0.0256  0.3283  0.6311
61089W        W 4006  11.124  21.144  24.135 -0.4001  0.1693  0.4310
61090W        W 4007  14.023  21.647  22.207  0.1470 -0.0067 -0.0343
61091W        W 4008  12.373  19.549  22.436  0.1001  0.1963 -0.1611
61092W        W 4009  13.724  20.432  24.402 -0.0080 -0.2924  0.0690
61093W        W 4010  12.688  17.337  28.580 -0.5218 -0.1966  0.0796
61094W        W 4011  12.291  20.423  24.774 -0.3359  0.0607  0.0876
61095W        W 4012  12.163  20.726  22.726 -0.2748  0.0662  0.1360
61096W        W 4013  10.900  17.158  25.314  0.1339  0.1171 -0.2233
61097W        W 4014  12.730  17.845  20.320  0.0685 -0.1044 -0.1932
61098W        W 4015  11.847  19.206  21.128 -0.0405 -0.1225 -0.3209
61099W        W 4016  13.355  20.808  24.601  0.2814  0.1375 -0.1864
61100W        W 4017  12.177  19.288  24.062  0.0304  0.0202  0.3434
61101W        W 4018  12.297  19.840  25.624  0.0227 -0.0169 -0.0571
61102W        W 4019  12.725  20.851  27.137  0.0495 -0.0112 -0.0726
61103W        W 4020  13.173  20.010  23.323 -0.0006 -0.1690  0.2274
61104W        W 4021  11.035  20.441  25.227  0.0041 -0.0161  0.0346
61105W        W 4022  12.608  20.053  21.714 -0.0373  0.3241 -0.1350
61106W        W 4023  13.754  23.277  25.150  0.0652  0.1575 -0.2556
61107W        W 4024  16.551  20.982  23.988  0.0836  0.0696  0.0853
61108W        W 4025  11.374  20.457  23.388 -0.3245 -0.0689 -0.0716
61109W        W 4026  12.894  20.324  22.392 -0.2305  0.0681  0.1176
61110W        W 4027  11.772  18.671  25.703 -0.0772 -0.1774  0.3528
61111W        W 4028  11.709  21.207  24.493  0.1173  0.2183 -0.0240
61112W        W 4029  10.903  19.526  25.318 -0.2332 -0.0105  0.1035
61113W        W 4030  13.848  20.407  23.572  0.0806 -0.1378 -0.0937
61114W        W 4031  11.605  19.541  24.977 -0.1564  0.2979  0.1819
61115W        W 4032  13.670  17.186  23.637 -0.0012 -0.1314  0.0187
61116W        W 4033  13.054  23.016  23.781 -0.3901  0.1619  0.0194
61117W        W 4034  12.091  18.790  23.251  0.3837  0.2418  0.0139
61118W        W 4035  12.903  22.471  28.851 -0.2969  0.0701  0.0822
61119W        W 4036  13.963  19.824  26.015  0.3203  0.1713 -0.2658
61120W        W 4037  13.729  18.633  24.532  0.0728  0.0093  0.3913
61121W        W 4038  14.025  19.299  26.168  0.0015  0.0643  0.0088
61122W        W 4039  12.551  18.161  25.971 -0.1200  0.0020  0.0803
61123W        W 4040  12.448  19.945  27.018  0.2571  0.0045  0.2684
61124W        W 4041  12.415  19.439  28.227  0.0815 -0.1706  0.1009
61125W        W 4042  12.623  20.917  30.909  0.0772 -0.1867 -0.0559
61126W        W 4043  14.653  22.495  28.910  0.0097  0.1579 -0.1275
61127W        W 4044  14.378  20.694  26.474 -0.3147 -0.2728 -0.1092
61128W        W 4045  12.449  19.067  30.975  0.1790 -0.3472 -0.0734
61129W        W 4046  13.065  23.072  29.590  0.1701  0.2025 -0.1588
61130W        W 4047  13.044  17.342  26.847  0.2471  0.1892 -0.0061
61131W        W 4048  13.586  16.281  27.876 -0.0507 -0.0979  0.2554
61132W        W 4049  15.039  19.355  30.612 -0.2878  0.0290  0.1136
61133W        W 4050  12.856  18.837  27.733  0.1450  0.3905  0.0110
61134W        W 4051  13.771  20.337  27.562 -0.0180  0.2064  0.2166
61135W        W 4052  15.552  18.293  25.972  0.4229 -0.2478  0.1905
61136W        W 4053  11.846  22.252  26.059 -0.2027 -0.0645  0.2011
61137W        W 4054  12.374  20.976  29.259  0.2211  0.3593 -0.1336
61138W        W 4055  13.509  19.535  28.643 -0.0482 -0.1615 -0.3082
61139W        W 4056  12.389  19.536  27.321  0.0507  0.2564 -0.2275
61140W        W 4057  11.992  19.320  27.569 -0.0688 -0.0213 -0.1523
61141W        W 4058  11.881  17.723  29.082  0.1150 -0.0911  0.1467
61142W        W 4059  11.893  19.994  28.968  0.1887 -0.1356  0.2509
61143W        W 4060  12.952  20.215  29.850 -0.0043  0.0895  0.1127
61144W        W 4061  11.329  17.009  30.670  0.0526 -0.0829  0.0830
61145W        W 4062  13.879  23.391  27.906  0.1405 -0.2253  0.0007
61146W        W 4063  16.007  22.232  28.152  0.0000  0.4410 -0.0244
61147W        W 4064  13.337  19.108  30.922 -0.1225 -0.0925  0.2500
61148W        W 4065  13.072  19.927  28.831  0.0246 -0.0008 -0.0936
61149W        W 4066   9.425  23.461  27.338 -0.0749  0.3499  0.2934
61150W        W 4067  13.762  19.163  26.543 -0.0980  0.1047 -0.1302
61151W        W 4068  15.852  19.763  28.627 -0.0004 -0.1261  0.0247
61152W        W 4069  13.829  20.184  28.397 -0.0265  0.1348  0.0466
61153W        W 4070  12.991  22.600  30.537  0.3299 -0.0055 -0.3087
61154W        W 4071  14.533  18.377  27.259 -0.1463  0.1451  0.0917
61155W        W 4072  13.512  23.000  29.799 -0.1736 -0.0988 -0.0747
61156W        W 4073   9.359  21.833  29.697 -0.2363 -0.0029  0.1321
61157W        W 4074  12.132  20.850  27.319  0.1267 -0.1158 -0.0815
61158W        W 4075  14.691  19.046  27.108  0.2901  0.2728  0.1518
61159W        W 4076  12.396  20.764  26.683  0.1382  0.2025 -0.0217
61160W        W 4077  12.538  21.426  27.129  0.2813 -0.0112 -0.3135
61161W        W 4078  11.404  21.117  30.197  0.3086 -0.3117 -0.1729
61162W        W 4079  13.411  20.723  29.222 -0.4164  0.0196 -0.0252
61163W        W 4080  15.054  16.836  28.032 -0.1419  0.3349 -0.2825
61164W        W 4081  11.902  20.775  26.580 -0.1281 -0.0930 -0.0836
61165W        W 4082  13.857  21.023  25.750 -0.1339  0.0495  0.1939
61166W        W 4083  13.599  18.783  24.097 -0.2650  0.1642 -0.1647
61167W        W 4084  14.031  18.254  23.591  0.2407 -0.2760 -0.3414
61168W        W 4085  13.341  19.654  29.213  0.0526 -0.1222 -0.0832
61169W        W 4086  14.742  22.043  27.916 -0.1970 -0.1975  0.2973
61170W        W 4087  13.028  17.726  27.757  0.1611 -0.2538  0.2645
61171W        W 4088  12.462  22.814  31.922  0.2161  0.0312 -0.0868
61172W        W 4089  13.809  17.545  25.818  0.2102 -0.1457  0.2950
61173W        W 4090  13.423  18.822  28.656 -0.4372  0.1804  0.0650
61174W        W 4091  12.932  20.678  29.089 -0.0491 -0.1388 -0.1899
61175W        W 4092  10.554  20.416  30.539 -0.1255  0.0210  0.0330
61176W        W 4093  13.087  21.158  26.403  0.0607 -0.5231  0.0807
61177W        W 4094  14.903  20.211  28.126 -0.1281  0.0392  0.0550
61178W        W 4095  13.120  20.295  27.594 -0.1023  0.0048  0.2127
61179W        W 4096  12.850  16.928  27.553  0.1309  0.0411 -0.1229
61180W        W 4097  12.096  19.039  28.516 -0.0177 -0.3605  0.0455
61181W        W 4098  10.360  19.667  29.319 -0.0581  0.2723 -0.0607
61182W        W 4099  11.477  18.594  26.519  0.0369  0.1522  0.1596
61183W        W 4100  13.717  21.559  30.984  0.4362 -0.2511 -0.1262
61184W        W 4101  12.209  21.223  29.721 -0.1965  0.0612  0.0661
61185W        W 4102  13.412  18.388  26.526 -0.1827  0.0673  0.1905
61186W        W 4103  13.355  20.034  28.445 -0.1614  0.1709 -0.0851
61187W        W 4104  14.062  23.002  28.156 -0.1733  0.1592 -0.0607
61188W        W 4105  13.208  22.123  26.108 -0.0221 -0.1226  0.0822
61189W        W 4106  14.924  18.848  28.183  0.0517 -0.3318 -0.1362
61190W        W 4107  11.832  18.259  28.236 -0.3140 -0.1547  0.0108
61191W        W 4108  12.705  17.456  27.289  0.1125 -0.0499 -0.0331
61192W        W 4109  12.612  20.517  25.350  0.0799  0.0503 -0.1005
61193W        W 4110  16.352  22.326  29.779  0.1561 -0.1363 -0.0484
61194W        W 4111  13.116  20.281  27.041  0.1219  0.0894  0.1563
61195W        W 4112  14.087  20.995  28.698 -0.0270  0.0220 -0.1179
61196W        W 4113  13.556  19.537  29.709  0.0263 -0.1314  0.0478
61197W        W 4114  12.995  22.850  30.069  0.2886  0.0251 -0.2529
61198W        W 4115  11.223  20.942  25.161 -0.2239 -0.1506  0.1866
61199W        W 4116  12.432  19.932  28.213  0.1711  0.3709 -0.0124
61200W        W 4117  10.179  21.871  27.533 -0.0195 -0.0483  0.0454
61201W        W 4118  12.690  17.839  29.757  0.0916 -0.0483 -0.0033
61202W        W 4119   9.186  21.652  30.575 -0.0672 -0.0484 -0.0094
61203W        W 4120  14.658  18.512  27.957 -0.1671  0.1964  0.1306
61204W        W 4121  10.846  16.435  28.707  0.0533 -0.1596  0.1894
61205W        W 4122  15.596  18.784  26.966  0.0338 -0.0865 -0.1472
61206W        W 4123  13.135  20.794  27.395  0.0370  0.0677  0.1202
61207W        W 4124  12.916  20.629  26.428  0.0920 -0.3218 -0.1055
61208W        W 4125  13.493  20.380  23.198  0.1616 -0.0107 -0.0053
61209W        W 4126  13.959  20.207  25.192 -0.1784  0.0676  0.0067
61210W        W 4127  12.988  19.642  30.041  0.2006  0.0408  0.0632
61211W        W 4128  12.674  18.036  27.130 -0.1934  0.0917 -0.2677
61212W        W 4129  12.923  18.721  28.493 -0.0344 -0.0854 -0.1382
61213W        W 4130  12.789  19.098  26.416  0.0608 -0.1029 -0.0828
61214W        W 4131  15.754  21.089  29.071 -0.2350  0.2862  0.0792
61215W        W 4132  11.914  21.243  25.500 -0.1445 -0.0995 -0.3581
61216W        W 4133  13.891  16.491  24.504  0.1286 -0.4109  0.0444
61217W        W 4134  13.698  20.543  25.824  0.2980 -0.1339 -0.1392
61218W        W 4135  12.597  20.476  29.444 -0.1230 -0.1135  0.0181
61219W        W 4136  14.308  17.136  29.960  0.0144 -0.2839  0.0646
61220W        W 4137  12.130  21.594  27.478 -0.0818 -0.0163  0.2580
61221W        W 4138  14.701  20.879  30.140 -0.0126 -0.4060 -0.0894
61222W        W 4139  14.836  20.260  25.732  0.2042 -0.2542 -0.2668
61223W        W 4140  11.925  19.438  31.272 -0.1265 -0.0316  0.1575
61224W        W 4141  13.362  18.388  25.653  0.0704  0.0375 -0.1336
61225W        W 4142  13.959  23.417  27.380 -0.2448 -0.0205  0.1056
61226W        W 4143  13.891  19.787  29.404 -0.0396 -0.1730 -0.1096
61227W        W 4144  12.481  18.933  28.174 -0.3751  0.0589 -0.2761
61228W        W 4145  14.902  20.643  29.489 -0.3916  0.2040  0.0982
61229W        W 4146  13.405  21.444  29.170 -0.0717  0.0350  0.0050
61230W        W 4147  11.376  20.791  26.700 -0.2165 -0.1043  0.0341
61231W        W 4148  14.270  18.882  25.919 -0.2168  0.3047 -0.2369
61232W        W 4149  14.878  19.259  29.462  0.1627 -0.0814 -0.2358
61233W        W 4150  14.663  18.426  24.692 -0.1521  0.1600  0.3497
61234W        W 4151  14.134  18.727  24.098  0.0615 -0.2245 -0.0781
61235W        W 4152  13.252  22.102  26.595 -0.1123  0.0468  0.1004
61236W        W 4153  12.872  22.713  28.472 -0.1599  0.0321 -0.0751
61237W        W 4154  14.229  19.773  25.064 -0.0443  0.3173  0.0823
61238W        W 4155  13.449  22.418  29.520  0.1835 -0.1930 -0.0434
61239W        W 4156  13.596  16.886  28.528 -0.1404  0.1205  0.3354
61240W        W 4157  11.001  21.132  29.939  0.2490  0.2904  0.0416
61241W        W 4158  12.645  19.157  28.567 -0.2294 -0.2251 -0.0831
61242W        W 4159  13.328  19.123  27.022  0.0524 -0.1861  0.4755
61243W        W 4160  11.881  24.195  31.214 -0.1310 -0.0119  0.2814
61244W        W 4161  15.011  17.975  28.095  0.0281 -0.0807 -0.0082
61245W        W 4162  15.417  18.448  27.405 -0.1987  0.0875 -0.1715
61246W        W 4163  12.639  21.678  30.142  0.1112  0.2526 -0.0882
61247W        W 4164  14.516  19.514  25.421  0.0163  0.0624  0.1244
61248W        W 4165  12.612  17.715  26.187  0.0089 -0.0756 -0.0076
61249W        W 4166  13.292  18.887  24.580 -0.1253 -0.0117  0.2676
61250W        W 4167  14.196  20.131  29.199 -0.1148 -0.0975  0.1260
61251W        W 4168  12.956  20.160  28.105  0.2700  0.2013  0.1106
61252W        W 4169  13.162  21.404  28.755 -0.1458  0.4857  0.0635
61253W        W 4170  13.904  20.033  24.146  0.0396 -0.4512 -0.2354
61254W        W 4171  13.131  20.816  26.882 -0.0489  0.0491  0.1864
61255W        W 4172  13.772  18.941  27.801 -0.2864 -0.2032 -0.1626
61256W        W 4173  14.460  19.082  29.603 -0.2525 -0.2163 -0.1233
61257W        W 4174  15.573  19.669  27.032 -0.1517 -0.3180  0.0839
61258W        W 4175  12.061  19.317  29.514  0.3141  0.3496  0.1512
61259W        W 4176  13.710  17.555  27.765 -0.1363 -0.2280 -0.2373
61260W        W 4177  15.251  21.009  27.229 -0.1133 -0.0848  0.1890
61261W        W 4178  10.693  21.360  27.807 -0.2852 -0.1141 -0.0336
61262W        W 4179  14.257  19.113  25.180  0.0416 -0.1306  0.0024
61263W        W 4180  13.666  19.174  28.288 -0.0660 -0.0513 -0.1835
61264W        W 4181  14.092  17.244  29.083 -0.1600  0.0735  0.0068
61265W        W 4182  13.523  21.137  31.817  0.0284 -0.2755  0.0330
61266W        W 4183  14.110  19.778  25.518 -0.0758  0.2608 -0.0019
61267W        W 4184  13.191  19.206  28.489  0.2000  0.2026  0.1549
61268W        W 4185   9.909  17.837  27.250 -0.0044  0.0417  0.1809
61269W        W 4186  14.186  18.366  27.611 -0.2330  0.3596  0.2895
61270W        W 4187  12.694  18.343  27.573 -0.3364  0.3685  0.3793
61271W        W 4188  10.058  22.587  28.528 -0.0948 -0.2041 -0.0553
61272W        W 4189  13.777  23.821  30.413 -0.0257  0.2099  0.1364
61273W        W 4190  13.267  21.840  28.430 -0.1447 -0.0426 -0.1039
61274W        W 4191  12.233  18.348  28.961  0.1828  0.1768  0.1046
61275W        W 4192  13.753  17.432  24.113  0.1174  0.1665  0.2029
61276W        W 4193  12.568  21.275  28.649  0.1198  0.0305  0.0822
61277W        W 4194  12.215  19.606  25.048 -0.1924 -0.0549  0.1157
61278W        W 4195  14.317  17.097  31.417 -0.0103 -0.3626  0.1925
61279W        W 4196  13.945  21.412  27.878  0.0723 -0.1650  0.3883
61280W        W 4197  13.190  19.830  25.502 -0.0041 -0.0716  0.0590
61281W        W 4198  12.690  24.016  30.318  0.2347 -0.2675  0.1085
61282W        W 4199  12.407  22.851  27.295 -0.0551 -0.3858  0.2641
61283W        W 4200  14.248  16.410  27.152  0.1172  0.3791  0.0413
61284W        W 4201  12.188  20.434  29.047  0.0178  0.3531 -0.2168
61285W        W 4202  15.105  19.889  23.931 -0.1108  0.0611  0.3878
61286W        W 4203  11.889  19.514  26.382  0.0551  0.0155 -0.0170
61287W        W 4204  13.782  16.966  24.535  0.2945 -0.2256  0.0648
61288W        W 4205  15.350  20.136  26.943  0.2065 -0.2112 -0.0221
61289W        W 4206  11.675  18.967  29.036  0.0755 -0.1814 -0.0729
61290W        W 4207  15.675  17.867  26.634  0.0121 -0.0073 -0.0811
61291W        W 4208  10.649  21.615  28.274 -0.0660 -0.0750  0.0856
61292W        W 4209  14.086  19.137  28.755 -0.0083 -0.5501 -0.1779
61293W        W 4210  14.526  16.412  26.578 -0.1685 -0.1537 -0.1810
61294W        W 4211  15.353  19.643  28.840 -0.3059  0.1806  0.1051
61295W        W 4212  12.950  20.921  30.459 -0.1890 -0.2073  0.4905
61296W        W 4213  12.429  20.895  24.997 -0.0379 -0.1328  0.2454
61297W        W 4214  15.409  21.451  26.212  0.1591 -0.0871 -0.0069
61298W        W 4215  12.813  19.219  27.077 -0.3342 -0.0768 -0.3955
61299W        W 4216  10.784  21.115  27.325  0.0344  0.1102 -0.1541
61300W        W 4217  14.490  20.773  29.737  0.1135 -0.2853  0.3903
61301W        W 4218  14.158  17.870  26.268  0.0066  0.1765  0.1939
61302W        W 4219  11.614  21.352  28.619 -0.2232  0.1161  0.0075
61303W        W 4220  14.769  19.709  28.124  0.0877 -0.1685 -0.1804
61304W        W 4221  13.970  21.628  29.842 -0.1042 -0.0034  0.1429
61305W        W 4222  13.095  17.995  28.798 -0.2204  0.3296 -0.0839
61306W        W 4223  11.909  18.409  29.756  0.0232 -0.0623  0.0506
61307W        W 4224  12.335  20.551  27.675  0.2062 -0.0291  0.0426
61308W        W 4225  13.755  22.144  28.574  0.1027 -0.1958  0.1518
61309W        W 4226  12.929  18.382  29.739 -0.0196 -0.3733 -0.0102
61310W        W 4227  13.541  20.958  28.830 -0.2249  0.2395  0.1200
61311W        W 4228  12.279  17.966  30.556 -0.1492  0.0289 -0.1220
61312W        W 4229  13.687  21.955  26.233  0.0595 -0.3214 -0.0707
61313W        W 4230  12.796  21.069  29.544  0.1778  0.1509  0.3557
61314W        W 4231  13.088  18.827  26.698 -0.1297 -0.1185  0.1683
61315W        W 4232  11.727  18.805  30.754 -0.0970  0.1431  0.2456
61316W        W 4233  11.628  21.810  27.255  0.0170  0.3261  0.0412
61317W        W 4234  13.148  17.793  27.126  0.0770 -0.3322  0.4631
61318W        W 4235  12.149  19.159  30.230 -0.0514 -0.1725  0.2243
61319W        W 4236  13.901  20.029  27.089 -0.2322  0.0993  0.0684
61320W        W 4237  13.317  17.832  28.234  0.1170  0.1261  0.1163
61321W        W 4238  13.317  18.899  27.464 -0.0421  0.1018 -0.1304
61322W        W 4239  13.393  18.621  26.098  0.1102 -0.2161  0.1192
61323W        W 4240  14.328  18.651  26.871 -0.1388  0.1510  0.0876
61324W        W 4241  15.294  17.320  29.214 -0.0469  0.0278 -0.0708
61325W        W 4242  15.196  20.465  26.119  0.3692 -0.0535  0.0804
61326W        W 4243  12.187  19.561  29.934 -0.0446  0.4968  0.0341
61327W        W 4244  13.080  19.125  29.936  0.0011 -0.0150 -0.1938
61328W        W 4245  16.468  19.125  27.235  0.0422  0.0758 -0.1359
61329W        W 4246  11.522  19.214  31.047  0.0035 -0.0482  0.0523
61330W        W 4247  12.328  23.396   0.109  0.3789 -0.2663 -0.0415
61331W        W 4248  13.147  17.726  29.539 -0.0427  0.1313  0.2960
61332W        W 4249  13.287  17.187  27.888  0.1657  0.1664 -0.1608
61333W        W 4250  11.867  17.177  23.665  0.1482  0.0595 -0.0996
61334W        W 4251  11.937  20.796  29.445  0.0231 -0.1922 -0.1015
61335W        W 4252  13.601  21.095  27.193  0.0565  0.0800 -0.2385
61336W        W 4253  13.552  21.366  25.577 -0.1770 -0.3107 -0.2806
61337W        W 4254  13.978  18.748  26.282  0.0654  0.0588 -0.3075
61338W        W 4255  11.905  18.786  28.176 -0.2481  0.2385  0.1173
61339W        W 4256  13.516  19.644  26.299 -0.0141  0.1211 -0.1060
61340W        W 4257  13.527  19.288  25.386  0.0559  0.1475  0.0702
61341W        W 4258  13.250  19.396  26.619 -0.1400 -0.1636 -0.1327
61342W        W 4259  14.980  19.346  28.934  0.0285 -0.0659 -0.2043
61343W        W 4260  14.774  19.376  27.557 -0.1696  0.2790 -0.0108
61344W        W 4261  15.590  18.879  27.499  0.0850 -0.3014 -0.0242
61345W        W 4262  14.247  18.788  27.891  0.0790 -0.3226 -0.2446
61346W        W 4263  14.625  19.851  27.209  0.2038 -0.1501 -0.3130
61347W        W 4264  14.501  20.738  28.034 -0.1322 -0.2025 -0.1599
61348W        W 4265  11.714  21.540  31.509 -0.0623  0.1691  0.5296
61349W        W 4266  13.883  22.053  31.244  0.0043  0.1541 -0.2202
61350W        W 4267  14.682  19.285  24.822 -0.1207 -0.1927 -0.1216
61351W        W 4268  14.968  17.179  28.774  0.0110 -0.2525 -0.2503
61352W        W 4269  14.448  18.687  26.373  0.1476 -0.0310  0.0231
61353W        W 4270  13.780  17.439  26.279 -0.1589 -0.1123  0.2310
61354W        W 4271  12.069  18.165  27.797 -0.3092 -0.2596  0.1186
61355W        W 4272  11.564  22.042  29.094 -0.1130 -0.0495 -0.3013
61356W        W 4273  14.063  19.296  25.605 -0.0047  0.1378  0.1782
61357W        W 4274  13.961  19.626  28.896 -0.0638 -0.0591 -0.0780
61358W        W 4275  12.637  21.025  26.245 -0.0812  0.1405  0.2522
61359W        W 4276  13.262  20.236  29.275  0.4158  0.0213 -0.3206
61360W        W 4277  13.436  17.853  23.519 -0.4353 -0.0896  0.3859
61361W        W 4278  10.607  16.302  27.775  0.0602  0.0789  0.1594
61362W        W 4279  11.628  24.516  28.134  0.0044 -0.0646  0.0301
61363W        W 4280  13.100  19.787  24.738  0.3545  0.1241 -0.1118
61364W        W 4281  14.171  19.319  24.708  0.0429  0.5208  0.1333
61365W        W 4282  14.114  21.028  28.188 -0.1108  0.1615 -0.1601
61366W        W 4283  12.680  21.506  31.062 -0.1622 -0.1412 -0.1021
61367W        W 4284  13.845  17.257  24.949 -0.0663  0.1440  0.2270
61368W        W 4285  14.676  17.145  26.158 -0.1380  0.0550 -0.1744
61369W        W 4286  11.743  23.027  28.866  0.1464 -0.1683 -0.1626
61370W        W 4287  16.179  16.608  26.798  0.2294  0.0941  0.0817
61371W        W 4288  12.122  23.637  27.770 -0.1991  0.1685  0.1665
61372W        W 4289  11.904  21.416  31.931 -0.0183 -0.2923  0.0355
61373W        W 4290  13.121  18.256  28.392 -0.3146  0.0434 -0.2284
61374W        W 4291  12.057  16.453  27.448  0.1296  0.1973  0.3097
61375W        W 4292  15.093  17.277  25.582  0.3124 -0.1483 -0.1511
61376W        W 4293  16.197  18.434  27.801  0.0094  0.0925  0.0882
61377W        W 4294  14.551  18.046  29.371 -0.2386 -0.4219 -0.1784
61378W        W 4295  11.417  18.909  29.984 -0.0622 -0.2351  0.0669
61379W        W 4296  14.746  18.785  27.539  0.1639 -0.2342  0.4010
61380W        W 4297  15.693  21.259  29.655  0.1253 -0.0929  0.1706
61381W        W 4298  15.106  19.734  27.349 -0.1472 -0.0322  0.0816
61382W        W 4299  11.039  19.468  29.789  0.0984  0.1715  0.1585
61383W        W 4300  12.517  18.538  29.270  0.0791 -0.0621  0.1574
61384W        W 4301  12.905  19.726  30.513  0.0333  0.0283  0.0107
61385W        W 4302  13.131  18.340  27.318 -0.0296 -0.2221 -0.1176
61386W        W 4303  14.227  17.702  27.850 -0.1383  0.0201  0.1021
61387W        W 4304  14.189  20.401  24.771  0.1797  0.1479 -0.0629
61388W        W 4305  11.362  23.441  31.558  0.0945  0.2634 -0.1479
61389W        W 4306  12.350  23.571  31.414  0.0814  0.0381 -0.0482
61390W        W 4307   9.515  20.249  27.838  0.3958 -0.1146 -0.2310
61391W        W 4308  12.813  22.036  27.833  0.0924  0.1105  0.4079
61392W        W 4309  14.747  21.666  25.540 -0.0284 -0.0951  0.0403
61393W        W 4310  12.797  20.135  26.168 -0.1592  0.2326  0.0246
61394W        W 4311  12.662  15.862  24.641  0.0642  0.1324 -0.2911
61395W        W 4312  12.773  20.023  29.200  0.0309 -0.1977 -0.0029
61396W        W 4313  10.853  22.920  29.298 -0.3521  0.0711  0.0157
61397W        W 4314  14.327  21.876  25.875  0.2746 -0.3775  0.2203
61398W        W 4315  11.168  21.627  28.729 -0.1451  0.2503 -0.1856
61399W        W 4316  13.540  18.816  30.433  0.0118 -0.1610  0.1936
61400W        W 4317  12.183  18.156  23.869  0.1661  0.0229 -0.3007
61401W        W 4318  16.022  16.936  27.854 -0.1345 -0.2104 -0.1016
61402W        W 4319  14.959  21.036  27.707 -0.0697 -0.0070  0.1504
61403W        W 4320  14.934  22.395  29.689  0.0667 -0.3523  0.2806
61404W        W 4321  11.113  20.104  30.501  0.0003  0.0150 -0.0489
61405W        W 4322  11.649  17.068  25.792  0.5102  0.0575 -0.0902
61406W        W 4323  12.473  18.832  30.539 -0.2344 -0.1799 -0.1641
61407W        W 4324  13.047  16.058  29.108 -0.0361 -0.2223  0.1189
61408W        W 4325   8.389  21.247  29.741 -0.2666 -0.3127  0.4538
61409W        W 4326  13.006  21.141  27.866  0.0884 -0.1696 -0.0584
61410W        W 4327  10.088  17.029  28.277 -0.2715  0.0437 -0.4603
61411W        W 4328  11.703  20.282  29.525 -0.0398 -0.1578  0.1521
61412W        W 4329  17.146  17.832  27.778  0.0929 -0.0750  0.1112
61413W        W 4330  13.807  18.693  26.738  0.0476  0.3078  0.0153
61414W        W 4331  12.399  18.190  29.590  0.1532 -0.0985  0.0327
61415W        W 4332  14.192  18.601  24.968 -0.1204 -0.0079  0.1684
61416W        W 4333  11.739  21.480  28.169  0.0619 -0.1401 -0.2370
61417W        W 4334  11.505  23.899  29.424 -0.0588 -0.0562 -0.4813
61418W        W 4335  10.123  18.545  26.677  0.1318 -0.2169 -0.0446
61419W        W 4336  15.478  18.781  26.441 -0.0846 -0.0126  0.2667
61420W        W 4337  13.703  19.257  30.608 -0.1082 -0.0917  0.0075
61421W        W 4338  14.868  18.718  28.722 -0.0076  0.2209 -0.1840
61422W        W 4339  12.801  18.571  26.365 -0.1059  0.2943 -0.2573
61423W        W 4340  14.566  21.224  25.804  0.2205  0.2949  0.4329
61424W        W 4341  13.855  21.138  29.738 -0.0183 -0.1833 -0.0714
61425W        W 4342  12.609  20.135  27.723 -0.1256  0.3177 -0.0049
61426W        W 4343  12.271  20.731  26.164 -0.4027 -0.3427  0.4263
61427W        W 4344  13.103  20.641  29.573  0.1230  0.3098  0.0877
61428W        W 4345  15.668  19.815  24.730  0.0572  0.0644  0.2330
61429W        W 4346  13.127  21.824  26.946  0.3459 -0.1029  0.1757
61430W        W 4347  11.950  17.407  28.644  0.2358  0.2516 -0.0418
61431W        W 4348  14.403  17.371  25.011  0.3051  0.0838 -0.0526
61432W        W 4349  13.858  16.419  28.449 -0.0000  0.0699  0.0903
61433W        W 4350  11.814  21.485  30.080  0.1805  0.0281 -0.3222
61434W        W 4351  14.618  20.284  29.427  0.0127 -0.0836  0.2201
61435W        W 4352  11.945  18.019  26.801  0.0449  0.1027 -0.2079
61436W        W 4353  13.467  20.461  26.682 -0.1224 -0.1301 -0.1779
61437W        W 4354  12.034  18.668  29.386 -0.1814  0.0645  0.0391
61438W        W 4355  13.670  21.715  25.147 -0.0622  0.1719  0.2920
61439W        W 4356  15.249  19.315  26.292  0.0714 -0.0959 -0.0354
61440W        W 4357  13.442  21.315  27.674 -0.1873 -0.0764 -0.5122
61441W        W 4358  12.262  19.741  29.250 -0.2589  0.1022 -0.0528
61442W        W 4359  14.562  21.083  28.731 -0.1125 -0.0777  0.0499
61443W        W 4360  14.532  16.997  29.481 -0.1319  0.4773  0.1980
61444W        W 4361  13.844  17.172  25.484  0.5293  0.0086  0.0825
61445W        W 4362  13.969  18.430  27.184 -0.2153 -0.2378  0.0442
61446W        W 4363  12.691  21.915  27.253  0.2926  0.0643 -0.4561
61447W        W 4364  15.364  18.379  28.277  0.3908 -0.0049  0.1246
61448W        W 4365  13.469  20.074  27.304  0.0842  0.1443 -0.0216
61449W        W 4366  11.969  20.798  24.934  0.0740 -0.0513  0.0209
61450W        W 4367  14.811  16.303  28.560 -0.2728 -0.1880  0.1253
61451W        W 4368  13.782  22.214  28.036 -0.0019  0.2614 -0.2211
61452W        W 4369  11.439  24.390  31.438  0.2185 -0.0111 -0.1096
61453W        W 4370  12.942  18.312  26.858  0.1145 -0.1516  0.2731
61454W        W 4371  12.027  22.247  30.411  0.1710 -0.3764 -0.3825
61455W        W 4372  12.247  19.544  28.744  0.1661  0.3069  0.1513
61456W        W 4373  13.180  24.466  26.549  0.1222 -0.1960 -0.1036
61457W        W 4374  15.330  21.282  28.880  0.1112 -0.0787  0.2745
61458W        W 4375  14.597  18.052  27.826 -0.3031 -0.1325 -0.1596
61459W        W 4376  15.936  19.935  28.163  0.1564 -0.0508  0.0935
61460W        W 4377  13.387  18.642  28.202 -0.4092  0.2062 -0.2562
61461W        W 4378  13.890  17.744  28.232 -0.2572 -0.0312  0.2264
61462W        W 4379  14.781  19.951  24.304  0.0313  0.2511 -0.1739
61463W        W 4380  12.645  21.206  29.995 -0.0143  0.0650 -0.0615
61464W        W 4381  10.818  20.816  24.974  0.0162  0.1214 -0.0421
61465W        W 4382  11.747  21.259  25.036  0.1891 -0.1861  0.3132
61466W        W 4383  12.364  20.303  25.760 -0.0947  0.0489  0.1077
61467W        W 4384  11.478  19.256  29.486  0.2070 -0.2155 -0.1918
61468W        W 4385  10.765  19.748  30.408  0.0934 -0.3737  0.2601
61469W        W 4386  14.146  17.707  25.382 -0.2612 -0.2587  0.0113
61470W        W 4387  11.646  17.968  27.829 -0.1391  0.1320  0.1225
61471W        W 4388  13.255  19.103  26.210  0.0014 -0.0460  0.1071
61472W        W 4389  12.563  17.885  27.611 -0.3138 -0.3130 -0.1573
61473W        W 4390  13.172  17.313  27.351 -0.0746 -0.0251  0.0122
61474W        W 4391  12.854  19.617  26.358  0.0897  0.0314 -0.0150
61475W        W 4392  13.917  19.829  26.576  0.3660 -0.1055  0.0714
61476W        W 4393  14.371  19.267  26.488  0.2559  0.1285  0.0171
61477W        W 4394  12.865  21.851  28.810 -0.2603  0.2067  0.0353
61478W        W 4395  11.480  20.321  25.430 -0.1834  0.4143  0.1938
61479W        W 4396  10.454  20.166  29.345  0.0597 -0.3163  0.1220
61480W        W 4397  14.983  18.305  27.568  0.1041  0.0387  0.0910
61481W        W 4398  12.599  17.985  28.282  0.2387 -0.1562 -0.0899
61482W        W 4399  12.435  19.526  30.656  0.0820  0.0694 -0.4700
61483W        W 4400  12.628  22.813  26.880 -0.4144 -0.3028 -0.2306
61484W        W 4401  10.863  20.617  26.016  0.1176 -0.3247 -0.2859
61485W        W 4402  11.725  21.797  29.530 -0.1625 -0.0187 -0.4293
61486W        W 4403  11.609  23.962  31.794 -0.0295  0.3128  0.1786
61487W        W 4404  10.011  19.369  30.431  0.0402 -0.1157  0.1378
61488W        W 4405  12.912  18.073  24.449  0.1340 -0.1164  0.0895
61489W        W 4406  10.817  20.640  29.191  0.1894  0.0950  0.1484
61490W        W 4407  13.456  20.653  27.868 -0.3568  0.0956 -0.0706
61491W        W 4408  14.036  20.555  27.990 -0.1844 -0.1136  0.0698
61492W        W 4409  13.925  17.934  27.506 -0.2485 -0.1760  0.0455
61493W        W 4410  11.796  19.758  29.475 -0.0683 -0.5543 -0.1681
61494W        W 4411  11.337  23.683  30.434  0.1570 -0.2340  0.1108
61495W        W 4412  13.707  21.582  28.739 -0.0286  0.4146  0.0804
61496W        W 4413  11.439  17.917  28.435  0.1357  0.0141 -0.0164
61497W        W 4414  13.653  20.071  28.849 -0.4475 -0.0437 -0.2393
61498W        W 4415  12.527  19.843  29.674  0.1079 -0.1469 -0.2198
61499W        W 4416  12.671  20.865  28.317 -0.2620  0.1730 -0.1996
61500W        W 4417  15.079  18.576  26.346  0.1943  0.1345 -0.0913
61501W        W 4418  10.889  20.213  28.985  0.4103 -0.2993 -0.1157
61502W        W 4419  12.848  19.914  27.343 -0.1869  0.0862 -0.0163
61503W        W 4420  14.220  21.989  30.086 -0.4094 -0.0595  0.0017
61504W        W 4421  14.877  18.876  24.684  0.0638  0.0574  0.1396
61505W        W 4422  14.311  18.513  25.557  0.2746 -0.1381 -0.0931
61506W        W 4423  12.808  22.407  29.644  0.1829 -0.0026 -0.2170
61507W        W 4424  12.949  21.157  31.846  0.1311  0.2122 -0.0262
61508W        W 4425  14.104  20.728  29.445  0.1395 -0.2503 -0.4376
61509W        W 4426  14.067  20.086  27.978 -0.0117  0.1763  0.0713
61510W        W 4427  12.238  16.272  31.706 -0.0859 -0.0455  0.2514
61511W        W 4428  12.208  22.579  25.894  0.0774 -0.1873 -0.0319
61512W        W 4429  13.780  19.527  27.025 -0.0540 -0.0498 -0.0303
61513W        W 4430  14.334  19.952  26.806  0.1341 -0.1303 -0.1408
61514W        W 4431  11.472  17.363  28.955 -0.1462  0.0117  0.0578
61515W        W 4432  14.511  17.896  28.281 -0.0014 -0.0149  0.0861
61516W        W 4433  13.686  22.080  30.016  0.0831 -0.0688  0.1071
61517W        W 4434  11.718  21.225  30.621 -0.2295  0.1901 -0.0029
61518W        W 4435  14.529  19.430  30.024 -0.1508  0.0316  0.0518
61519W        W 4436  11.005  21.105  29.053  0.0127  0.1304 -0.0416
61520W        W 4437  11.445  19.557  30.695 -0.3260 -0.1385  0.1804
61521W        W 4438   9.844  19.812  31.073  0.3436 -0.1530 -0.1210
61522W        W 4439  13.855  22.003  29.119 -0.3806  0.1807  0.0276
61523W        W 4440  11.885  22.671  29.212  0.1362 -0.3199  0.0521
61524W        W 4441  12.297  20.737  29.821 -0.1365 -0.6039  0.2535
61525W        W 4442  12.595  19.964  30.784  0.0948 -0.0560 -0.0892
61526W        W 4443  15.040  17.567   1.871  0.0754  0.2206 -0.1542
61527W        W 4444  14.418  20.453  28.898  0.3004  0.3829  0.2446
61528W        W 4445  12.047  22.112  29.026  0.1340 -0.1288 -0.2053
61529W        W 4446  11.897  18.103  30.896 -0.3624  0.2473 -0.0241
61530W        W 4447  13.436  20.119  30.531  0.1089 -0.1284 -0.1422
61531W        W 4448  11.852  20.646  31.319  0.1347  0.2199 -0.0627
61532W        W 4449  14.383  17.584  29.696 -0.0715  0.1902  0.0186
61533W        W 4450  11.091  21.400  29.535  0.2203  0.0729  0.1011
61534W        W 4451  11.699  22.152  30.757 -0.2176  0.0827 -0.1631
61535W        W 4452  12.776  22.205  30.298 -0.0107  0.2466 -0.1640
61536W        W 4453  10.572  17.809  30.854  0.0401 -0.2468 -0.0262
61537W        W 4454  13.586  17.892  28.693  0.4541 -0.1483  0.1674
61538W        W 4455  11.778  18.042  31.507  0.0070  0.1032  0.3157
61539W        W 4456   9.902  22.660   1.094 -0.0221  0.1851 -0.0045
61540W        W 4457  13.025  18.019  30.059 -0.1889 -0.2800  0.0459
61541W        W 4458  15.742  19.439  29.110 -0.1491  0.0227 -0.1129
61542W        W 4459  12.965  18.849  30.457  0.2803  0.2959  0.2647
61543W        W 4460  11.723  18.280  31.944 -0.3639 -0.2942 -0.2746
61544W        W 4461  11.579  22.676  30.806  0.0581 -0.0338  0.0888
61545W        W 4462  10.528  21.408  29.994 -0.4632 -0.1837  0.0077
61546W        W 4463  13.513  19.649  30.755  0.2069  0.2695  0.1804
61547W        W 4464  11.576  22.873  29.968 -0.0497  0.0894  0.2708
61548W        W 4465  11.926  20.347  30.003 -0.1599  0.2375  0.1410
61549W        W 4466  12.764  20.456   0.186  0.1647  0.3155  0.0508
61550W        W 4467  14.139  19.311  29.229  0.3353  0.2676 -0.2345
61551W        W 4468  13.074  17.234  29.431 -0.0820 -0.1859  0.1122
61552W        W 4469  11.316  21.637  30.067  0.0939 -0.0064 -0.0694
61553W        W 4470  10.753  22.351  31.073  0.1793 -0.0241  0.0241
61554W        W 4471  10.900  22.462   1.364 -0.2767  0.1935 -0.2343
61555W        W 4472  14.498  20.817  29.173 -0.0555  0.1791 -0.1152
61556W        W 4473  13.152  19.349   0.076  0.0478  0.1364 -0.0287
61557W        W 4474  16.464  18.988  28.165 -0.4040  0.2575  0.0305
61558W        W 4475  12.201  17.124  30.443 -0.1455  0.1733  0.0433
61559W        W 4476  12.781  22.035   0.085  0.0308  0.1315  0.0632
61560W        W 4477  13.652  19.303  29.072 -0.1152 -0.2996 -0.0125
61561W        W 4478  13.546  22.498  30.502 -0.2330 -0.0057 -0.1730
61562W        W 4479  10.356  20.005  30.181 -0.0045 -0.0448 -0.1787
61563W        W 4480  12.847  22.226  28.379 -0.0556 -0.2485 -0.0036
61564W        W 4481  13.956  18.737  28.447  0.0335 -0.2015  0.1732
61565W        W 4482  12.548  22.092  31.141  0.0153 -0.0267  0.1896
61566W        W 4483  13.258  20.584  30.243  0.1083 -0.1475 -0.2753
61567W        W 4484  12.697  22.574  30.944 -0.1817  0.0270 -0.2006
61568W        W 4485  12.370  22.111  30.034 -0.2022  0.0921  0.1605
61569W        W 4486  14.317  17.403  28.249 -0.0431 -0.2807  0.1137
61570W        W 4487  13.697  20.072  31.021 -0.2442 -0.3070  0.0514
61571W        W 4488  13.624  20.709  29.832 -0.1807  0.1277  0.0447
61572W        W 4489  11.259  21.048  30.714 -0.0052  0.3509  0.0549
61573W        W 4490  12.779  20.419  30.496  0.0055  0.3561  0.1204
61574W        W 4491  13.299  19.286  30.363  0.1953  0.1550 -0.0744
61575W        W 4492  13.086  22.380   0.675 -0.2138  0.2215  0.2052
61576W        W 4493  12.554  24.962  30.592  0.0242 -0.1095 -0.0279
61577W        W 4494  11.876  19.914  31.387  0.2698 -0.2567  0.1797
61578W        W 4495  10.903  20.886  30.415  0.0392  0.0526  0.1425
61579W        W 4496  10.688  21.531  28.782 -0.1656 -0.0168  0.0255
61580W        W 4497  11.036  20.546  30.754 -0.0369 -0.0594  0.5006
61581W        W 4498  10.488  19.194   0.145  0.1190 -0.1947 -0.0254
61582W        W 4499  13.826  22.589   0.778 -0.0450 -0.3095  0.2572
61583W        W 4500  12.896  18.778  30.964 -0.2651  0.1209  0.1110
61584W        W 4501  14.448  18.783  28.394 -0.2981  0.1399  0.0637
61585W        W 4502  11.037  24.822  18.597  0.1224  0.3314 -0.1743
61586W        W 4503   9.144  22.973  16.557  0.2116 -0.0340  0.1830
61587W        W 4504  13.542  22.929  15.692 -0.3791  0.2994  0.1372
61588W        W 4505  15.078  23.641  15.666 -0.0133 -0.0445  0.0044
61589W        W 4506  11.341  22.289  16.514 -0.0825 -0.0697 -0.1122
61590W        W 4507  12.284  25.400  14.699  0.1431  0.2754 -0.1506
61591W        W 4508   9.868  22.755  18.882 -0.1760 -0.0934 -0.2094
61592W        W 4509  11.597  23.069  18.011 -0.0722  0.4889  0.1207
61593W        W 4510  14.260  26.359  15.632  0.0881  0.0565 -0.2565
61594W        W 4511  13.484  22.445  16.376 -0.3496  0.0874 -0.5184
61595W        W 4512  10.687  21.410  17.205 -0.0182  0.0144  0.2040
61596W        W 4513  11.914  25.631  19.341  0.1341  0.1381 -0.3570
61597W        W 4514  12.903  21.903  17.049  0.0539  0.1125  0.0073
61598W        W 4515  10.662  22.950  17.155 -0.2137 -0.1667  0.2221
61599W        W 4516  10.965  22.394  18.027 -0.0074  0.3434  0.0126
61600W        W 4517   9.120  23.572  15.831  0.0094 -0.0641 -0.2594
61601W        W 4518  12.124  22.235  18.227 -0.0478  0.1255 -0.0948
61602W        W 4519  12.042  22.912  17.540  0.2269  0.1666  0.0476
61603W        W 4520  11.851  25.305  18.283 -0.0669  0.2474  0.2387
61604W        W 4521  11.934  21.941  16.880  0.3351  0.0603 -0.2337
61605W        W 4522  13.231  20.463  17.848  0.1290 -0.0265  0.3520
61606W        W 4523  11.878  25.807  15.292 -0.0644 -0.0331 -0.1666
61607W        W 4524  10.936  23.784  16.574  0.1247 -0.0995 -0.0166
61608W        W 4525  10.555  23.528  19.008 -0.0717  0.1603  0.1787
61609W        W 4526  10.990  24.285  16.723  0.1350  0.2186  0.1037
61610W        W 4527  16.097  21.682  16.278  0.0388 -0.3302  0.3189
61611W        W 4528  13.988  24.781  16.836 -0.1553 -0.1558  0.1265
61612W        W 4529  12.526  25.233  18.299  0.0882  0.1131  0.0942
61613W        W 4530  14.945  27.750  17.545 -0.2047  0.1469 -0.2264
61614W        W 4531  14.943  23.652  20.668 -0.0579 -0.0401 -0.1328
61615W        W 4532  11.607  22.461  16.126 -0.1271  0.0880  0.0402
61616W        W 4533  10.741  25.323  17.882  0.0368 -0.1593 -0.0462
61617W        W 4534  11.374  27.104  16.611  0.1291 -0.0188 -0.1226
61618W        W 4535  13.062  26.628  15.933 -0.1666 -0.0023 -0.0388
61619W        W 4536  13.824  27.788  17.610 -0.1103 -0.1683 -0.5482
61620W        W 4537  12.399  24.799  19.829  0.1991 -0.0336 -0.0692
61621W        W 4538  11.882  25.669  16.859 -0.0780 -0.0381  0.0884
61622W        W 4539  14.669  26.548  17.602  0.1238 -0.0916  0.1106
61623W        W 4540  11.270  24.056  16.407 -0.2540  0.0896 -0.2368
61624W        W 4541  13.499  23.107  17.250 -0.0819 -0.1215  0.0024
61625W        W 4542  12.340  22.890  15.761  0.0646  0.3419 -0.1108
61626W        W 4543  12.465  26.014  17.629 -0.1882  0.0982 -0.0606
61627W        W 4544  11.132  22.830  18.260  0.3058 -0.1689 -0.2376
61628W        W 4545  13.069  24.699  19.224 -0.0503  0.2397 -0.0439
61629W        W 4546  11.435  25.108  19.221 -0.0170 -0.4097 -0.2625
61630W        W 4547  13.223  24.722  20.813  0.0772  0.0502  0.0150
61631W        W 4548  13.480  26.904  16.032 -0.0036  0.0735 -0.0619
61632W        W 4549  12.702  24.038  16.415 -0.1467 -0.1675  0.0714
61633W        W 4550  13.464  25.358  14.654  0.0292  0.0562  0.1274
61634W        W 4551  13.030  22.569  16.471 -0.0643 -0.0054  0.0270
61635W        W 4552  13.452  22.728  16.855  0.0408  0.0629  0.1530
61636W        W 4553  11.303  26.498  18.983  0.1531  0.2059  0.3072
61637W        W 4554  11.455  22.246  15.544  0.0067  0.0721 -0.3290
61638W        W 4555  13.387  24.613  18.203  0.0982 -0.5309 -0.0185
61639W        W 4556   9.719  23.117  15.088  0.1966  0.5013 -0.0567
61640W        W 4557  14.022  21.971  18.188  0.0288 -0.3869  0.1526
61641W        W 4558  11.588  25.047  16.312 -0.1511 -0.0983  0.2040
61642W        W 4559  11.170  22.319  17.354  0.0884 -0.1503  0.2481
61643W        W 4560  14.852  27.307  16.048 -0.1173  0.0852 -0.0482
61644W        W 4561  13.604  25.880  15.897 -0.0373  0.1041  0.1893
61645W        W 4562  13.472  24.906  15.099  0.1388 -0.1734 -0.0828
61646W        W 4563  10.075  21.325  18.391 -0.0655 -0.1261  0.1044
61647W        W 4564  11.863  22.917  16.141 -0.0849  0.1107  0.0752
61648W        W 4565   9.966  23.172  17.791  0.3618 -0.0537 -0.4634
61649W        W 4566  11.004  21.317  15.095  0.0346  0.0037  0.0693
61650W        W 4567  13.810  24.103  18.919  0.2421  0.1670 -0.1509
61651W        W 4568  12.073  23.092  18.125  0.0070 -0.0987 -0.3437
61652W        W 4569  13.251  25.106  17.619  0.3344 -0.0337  0.0474
61653W        W 4570  13.036  24.776  15.886 -0.1477 -0.1225  0.0677
61654W        W 4571  14.711  26.167  19.924  0.1693  0.0987 -0.0475
61655W        W 4572  12.723  23.285  15.740 -0.1349  0.1140  0.2671
61656W        W 4573  15.601  23.302  16.234  0.1607  0.2960 -0.0673
61657W        W 4574  13.945  21.745  16.151 -0.1042  0.1989  0.1840
61658W        W 4575  10.052  22.749  16.449  0.1564  0.2577  0.0604
61659W        W 4576   9.546  23.334  18.804  0.0660 -0.1981  0.1205
61660W        W 4577  13.509  25.186  20.382  0.3122  0.0984  0.0703
61661W        W 4578  14.831  23.348  15.985  0.2737 -0.3118 -0.2451
61662W        W 4579  11.404  24.569  16.624  0.0665 -0.1650  0.0569
61663W        W 4580  10.513  21.200  18.068  0.1083  0.0305  0.2345
61664W        W 4581  13.114  24.547  19.685 -0.0583  0.0601  0.0355
61665W        W 4582  12.956  25.849  15.973  0.0007  0.0725  0.1180
61666W        W 4583  10.938  24.128  17.305 -0.1994 -0.0084  0.0893
61667W        W 4584  11.493  24.154  16.919  0.2787 -0.0154 -0.0205
61668W        W 4585  10.432  22.467  19.415 -0.0440  0.1774 -0.0220
61669W        W 4586  12.483  24.597  15.906  0.0123  0.0104  0.0530
61670W        W 4587  14.434  23.440  16.391  0.0594 -0.1292 -0.0869
61671W        W 4588  11.229  24.073  17.755 -0.0401  0.0570  0.0164
61672W        W 4589  14.299  23.692  15.940  0.2349 -0.1249 -0.0827
61673W        W 4590   8.950  22.472  16.651  0.1332 -0.0485  0.3418
61674W        W 4591  12.824  25.517  16.331 -0.0501  0.0216 -0.3917
61675W        W 4592  14.125  25.135  17.227 -0.0981 -0.1239 -0.1033
61676W        W 4593  12.308  24.260  15.606  0.0196  0.1521  0.2255
61677W        W 4594  12.330  23.387  16.097 -0.0968 -0.4679  0.2343
61678W        W 4595  10.709  23.428  15.915 -0.2591 -0.2797  0.0974
61679W        W 4596  10.876  23.719  20.551  0.1984 -0.0356 -0.2000
61680W        W 4597  12.454  21.765  17.369 -0.0062 -0.0943  0.2519
61681W        W 4598  12.079  24.500  18.755 -0.0311 -0.3452  0.3369
61682W        W 4599  10.559  21.008  15.053 -0.0823 -0.1652  0.2490
61683W        W 4600  13.360  21.322  17.786  0.0315  0.1686 -0.2125
61684W        W 4601  11.771  23.031  15.617  0.0826  0.2309  0.0060
61685W        W 4602  12.289  24.800  16.886 -0.1010  0.0630  0.1499
61686W        W 4603  13.646  21.099  18.930 -0.0877  0.1502 -0.1234
61687W        W 4604  12.836  26.436  15.280  0.0621 -0.0444 -0.2477
61688W        W 4605  14.852  26.032  18.874  0.0964  0.3035  0.1614
61689W        W 4606  12.127  24.900  15.022 -0.0406 -0.1870 -0.2133
61690W        W 4607  13.218  25.079  15.536 -0.2043 -0.0113 -0.2314
61691W        W 4608  12.934  22.310  15.228  0.1411  0.1414  0.1058
61692W        W 4609  11.287  27.646  18.401  0.0885  0.0344 -0.1028
61693W        W 4610  10.084  22.579  16.959  0.1463 -0.1801  0.0994
61694W        W 4611  11.874  23.904  18.671 -0.0039 -0.2182  0.1026
61695W        W 4612  14.461  26.790  16.369  0.0277 -0.0054  0.2886
61696W        W 4613  11.931  21.525  15.910 -0.0978 -0.2733 -0.2095
61697W        W 4614  11.146  24.284  21.361  0.2593  0.1919 -0.2491
61698W        W 4615  13.800  22.396  20.913 -0.2458  0.0350 -0.0423
61699W        W 4616  13.340  25.722  19.113  0.0522  0.4204 -0.0216
61700W        W 4617  14.652  23.769  15.527  0.2645  0.0154  0.1768
61701W        W 4618  11.311  23.355  15.826  0.3041  0.0974 -0.1801
61702W        W 4619  14.541  26.061  17.547  0.1626 -0.2159 -0.3160
61703W        W 4620  12.143  26.704  18.185 -0.0782 -0.1795  0.2185
61704W        W 4621   9.610  23.687  16.649  0.0074  0.3672 -0.0627
61705W        W 4622  13.271  23.307  15.959  0.0230 -0.1856  0.0215
61706W        W 4623  14.973  23.010  17.250  0.0714 -0.1228 -0.1305
61707W        W 4624  10.646  22.699  18.181 -0.1236 -0.2820 -0.1005
61708W        W 4625  13.116  20.890  18.122 -0.0037 -0.0454  0.0766
61709W        W 4626  11.005  23.758  14.995 -0.6605 -0.1796 -0.2852
61710W        W 4627  12.378  23.664  17.997 -0.5907  0.0956 -0.0055
61711W        W 4628  13.586  23.325  15.359  0.1011  0.1074 -0.0519
61712W        W 4629  15.260  23.491  15.208 -0.0002  0.1273 -0.1485
61713W        W 4630  10.114  25.701  20.194 -0.3360 -0.0635 -0.2960
61714W        W 4631  12.158  24.921  17.469  0.1683  0.1181  0.0831
61715W        W 4632  12.944  22.781  15.007  0.0956 -0.0102 -0.2040
61716W        W 4633  12.322  22.322  15.733 -0.0167 -0.3557 -0.4382
61717W        W 4634  11.011  23.933  21.005  0.0730 -0.2794  0.0088
61718W        W 4635  12.609  23.901  17.433 -0.0716  0.0642 -0.1338
61719W        W 4636  13.212  24.042  15.544  0.1719 -0.2687  0.0486
61720W        W 4637  11.465  24.938  18.038  0.1160 -0.2433 -0.3025
61721W        W 4638  14.193  25.428  15.735 -0.0111  0.2932  0.4588
61722W        W 4639  10.743  24.483  19.212  0.0538 -0.1222 -0.3260
61723W        W 4640  14.251  24.817  17.637 -0.1638 -0.0410 -0.1150
61724W        W 4641  12.052  25.352  15.213 -0.2605  0.4429  0.1786
61725W        W 4642  10.807  25.213  18.407 -0.0919  0.0025  0.0276
61726W        W 4643  13.111  23.049  15.482  0.2377  0.1855 -0.0447
61727W        W 4644  14.201  23.222  16.781  0.2147  0.1713  0.1896
61728W        W 4645  10.945  24.732  15.674 -0.1263 -0.0662  0.0489
61729W        W 4646  12.779  21.483  18.165 -0.1327  0.1509 -0.3998
61730W        W 4647  11.420  22.943  18.623 -0.0496 -0.0203 -0.0018
61731W        W 4648  11.066  22.891  16.725 -0.0787  0.0230  0.0502
61732W        W 4649  14.648  25.210  18.775 -0.0835 -0.1122  0.1394
61733W        W 4650  13.347  22.283  17.500  0.0097 -0.1371  0.2070
61734W        W 4651  14.332  24.194  18.415 -0.0244  0.3721 -0.1280
61735W        W 4652  10.065  21.669  16.260  0.0620  0.2259  0.2252
61736W        W 4653  14.033  20.937  16.391 -0.3083 -0.2090  0.0170
61737W        W 4654  10.678  24.944  19.457  0.0276  0.0127 -0.1035
61738W        W 4655  12.938  25.024  18.664  0.0239 -0.2981 -0.0410
61739W        W 4656  13.949  24.465  18.581 -0.1834  0.0802 -0.0206
61740W        W 4657  12.084  22.382  16.180  0.1753 -0.2112  0.0603
61741W        W 4658  15.333  22.884  16.833  0.0340 -0.0006 -0.0713
61742W        W 4659  11.866  20.627  16.380 -0.1963 -0.0171 -0.1416
61743W        W 4660  12.553  26.890  17.918 -0.0458  0.1427 -0.1202
61744W        W 4661  11.623  24.411  16.192 -0.2153 -0.1210  0.2176
61745W        W 4662  10.635  22.638  20.479  0.1081  0.0938  0.0417
61746W        W 4663  10.410  24.878  17.110 -0.1792  0.1681 -0.0900
61747W        W 4664  11.901  25.081  14.601 -0.2312  0.0890 -0.1069
61748W        W 4665  12.790  22.899  17.887 -0.0458 -0.0953 -0.0583
61749W        W 4666  11.310  25.536  16.129 -0.0214 -0.3082 -0.1395
61750W        W 4667  11.822  22.655  18.416  0.0931  0.1439  0.1292
61751W        W 4668  12.009  24.275  16.785 -0.2979  0.1382 -0.1756
61752W        W 4669  12.709  24.240  15.271 -0.2191 -0.1100 -0.0303
61753W        W 4670  11.056  23.312  17.185  0.0107  0.0045  0.1766
61754W        W 4671  13.413  24.010  16.879  0.4581  0.1026  0.1133
61755W        W 4672  12.593  24.416  16.669  0.1106 -0.4499 -0.1347
61756W        W 4673  12.564  23.227  18.151 -0.0496  0.3143 -0.3353
61757W        W 4674  10.982  21.567  16.416 -0.2994 -0.0539 -0.0293
61758W        W 4675  11.766  26.363  18.096 -0.0252  0.1731 -0.1406
61759W        W 4676  12.821  23.421  16.297  0.4311 -0.3494 -0.0454
61760W        W 4677  13.038  22.426  17.136  0.2764  0.1282 -0.2118
61761W        W 4678  13.079  24.720  17.267 -0.1509  0.2432 -0.4798
61762W        W 4679  12.295  22.192  17.680  0.1969  0.4397  0.1985
61763W        W 4680   9.887  23.782  16.174  0.0309  0.0718  0.3179
61764W        W 4681  13.827  24.473  15.978 -0.1017  0.0514 -0.0887
61765W        W 4682  11.749  21.451  16.868  0.5755 -0.0620  0.2523
61766W        W 4683  10.749  26.534  18.609 -0.0340 -0.0509  0.1502
61767W        W 4684  14.165  26.906  16.784  0.2074  0.2019  0.2401
61768W        W 4685  10.541  22.402  17.113 -0.2862  0.0818  0.2436
61769W        W 4686  11.504  26.181  15.929 -0.2095 -0.1570 -0.2951
61770W        W 4687   9.754  22.700  19.482  0.4358  0.0545 -0.0213
61771W        W 4688  11.760  24.934  18.669  0.2860  0.2142  0.0669
61772W        W 4689  12.711  22.929  16.192 -0.0564 -0.0372  0.1031
61773W        W 4690  10.691  22.616  15.652  0.1651  0.0520  0.2795
61774W        W 4691  12.726  24.335  18.213 -0.0109 -0.3882  0.1519
61775W        W 4692  13.577  23.084  19.138  0.3253 -0.0351  0.2169
61776W        W 4693  13.795  23.726  16.736 -0.1769 -0.4091  0.0614
61777W        W 4694  12.971  23.257  19.173 -0.1737 -0.0186  0.1194
61778W        W 4695  13.012  22.751  19.295  0.0370  0.0510  0.0294
61779W        W 4696  13.432  24.959  16.575  0.0882  0.0385 -0.3358
61780W        W 4697  13.590  25.063  17.139  0.3624  0.3749  0.0467
61781W        W 4698  11.813  24.320  15.756  0.0521  0.1610  0.3078
61782W        W 4699   9.027  24.208  18.689 -0.0765  0.0971 -0.0184
61783W        W 4700  11.988  22.591  14.912 -0.0014  0.1221 -0.0363
61784W        W 4701  15.550  23.580  15.655 -0.0419  0.0996  0.1250
61785W        W 4702  11.972  24.804  18.126 -0.0017 -0.3569 -0.1095
61786W        W 4703  12.500  25.214  15.132  0.1586  0.1815  0.1225
61787W        W 4704  11.816  22.568  17.885  0.0650 -0.0277  0.0877
61788W        W 4705  13.664  21.919  16.623 -0.0973  0.0045  0.2996
61789W        W 4706  12.464  22.104  17.019 -0.1861  0.4165  0.2650
61790W        W 4707  11.313  23.464  15.280 -0.1104  0.5329  0.5328
61791W        W 4708  12.327  24.361  17.153  0.1820 -0.0024  0.1728
61792W        W 4709  12.243  22.867  16.520 -0.1996 -0.3010  0.1335
61793W        W 4710  12.819  24.098  19.679 -0.0757  0.1502 -0.2455
61794W        W 4711  10.892  22.020  18.852  0.1473  0.0270  0.0871
61795W        W 4712  12.170  22.606  20.038  0.1118  0.0971 -0.1807
61796W        W 4713  10.621  22.294  18.485  0.2855 -0.2789 -0.2206
61797W        W 4714  12.673  23.745  18.404  0.1783  0.3169  0.1617
61798W        W 4715  12.589  22.567  19.593  0.1253  0.1839  0.0993
61799W        W 4716  12.296  23.329  15.007 -0.0400  0.0386  0.0092
61800W        W 4717  11.650  23.112  15.071 -0.0531 -0.1485 -0.0595
61801W        W 4718  13.367  23.575  16.381  0.0732 -0.0807 -0.3125
61802W        W 4719  14.184  25.551  18.793  0.0011 -0.0051 -0.0380
61803W        W 4720  12.425  24.888  14.631 -0.1221  0.0304 -0.1260
61804W        W 4721  16.069  21.933  15.760  0.1199  0.2973 -0.1800
61805W        W 4722  12.827  25.129  17.292 -0.2425 -0.1488  0.0365
61806W        W 4723  15.363  23.982  15.381  0.2346  0.0699  0.1431
61807W        W 4724  11.880  22.576  15.702 -0.3034  0.0990 -0.0262
61808W        W 4725  11.260  26.567  16.593 -0.0097  0.0502  0.0418
61809W        W 4726  12.850  22.777  18.364 -0.1489 -0.1867  0.1309
61810W        W 4727  12.725  22.894  16.772  0.2652 -0.2486  0.0110
61811W        W 4728  14.734  23.256  16.900  0.2521  0.0069 -0.3429
61812W        W 4729  13.174  21.235  17.239 -0.2354  0.0822  0.0140
61813W        W 4730  14.947  22.076  19.065  0.2588  0.1539 -0.0501
61814W        W 4731   9.090  24.178  19.356  0.0992 -0.1689  0.1782
61815W        W 4732  10.392  21.668  20.470 -0.0432  0.3194 -0.1095
61816W        W 4733  11.881  27.642  18.165  0.0330  0.0865  0.1072
61817W        W 4734  14.112  22.181  15.374  0.1131 -0.0938  0.3527
61818W        W 4735  13.243  23.023  17.971  0.1283 -0.1792 -0.2995
61819W        W 4736  14.707  25.623  18.536  0.0718 -0.0655 -0.2068
61820W        W 4737  11.442  23.161  16.276 -0.1848 -0.0895  0.1291
61821W        W 4738  10.473  23.913  17.519  0.2216  0.1695  0.0976
61822W        W 4739  13.448  24.201  18.493  0.0178  0.2406 -0.2276
61823W        W 4740  11.783  23.731  16.817  0.1926  0.0988  0.0657
61824W        W 4741  12.452  21.134  19.638  0.0010 -0.0520  0.1582
61825W        W 4742  12.023  25.146  16.126  0.1532 -0.2129 -0.0510
61826W        W 4743  12.333  23.788  15.312 -0.0780  0.1026 -0.0560
61827W        W 4744  12.126  22.111  14.835 -0.1384 -0.1951 -0.3039
61828W        W 4745  11.569  22.734  16.570 -0.1660  0.3793  0.0424
61829W        W 4746   9.250  25.778  19.773  0.0635 -0.0312  0.3949
61830W        W 4747  13.801  22.617  14.668 -0.0586 -0.0902 -0.1174
61831W        W 4748  11.633  24.848  14.946  0.1814  0.0110  0.0518
61832W        W 4749  13.339  25.552  18.659  0.3566 -0.2547  0.1187
61833W        W 4750  12.550  24.329  20.190 -0.5066  0.1385 -0.1159
61834W        W 4751  12.553  22.463  16.653 -0.2634 -0.0273 -0.1310
61835W        W 4752  13.981  22.237  16.336 -0.0678 -0.0347 -0.0178
61836W        W 4753  10.508  23.625  16.323 -0.0320 -0.3844 -0.1074
61837W        W 4754  13.083  23.223  16.919  0.0063 -0.0976  0.4352
61838W        W 4755  12.421  26.374  19.506  0.0534 -0.3802 -0.0607
61839W        W 4756  12.437  24.780  18.461 -0.0501  0.3307 -0.0686
61840W        W 4757  11.824  25.189  17.782 -0.0223 -0.0465  0.1089
61841W        W 4758  10.736  21.901  18.065  0.2506  0.1007 -0.1515
61842W        W 4759  14.215  23.922  17.421  0.1007  0.3406 -0.0513
61843W        W 4760  11.933  24.714  16.591  0.3813 -0.0055 -0.1038
61844W        W 4761  11.758  21.902  17.983  0.2112 -0.1186  0.0534
61845W        W 4762  11.158  24.238  15.925 -0.2510  0.2583  0.3019
61846W        W 4763   9.645  24.643  16.693 -0.1071 -0.2595  0.1589
61847W        W 4764  14.030  24.267  20.416  0.0475  0.1857  0.0384
61848W        W 4765  13.268  25.740  15.528  0.0320 -0.0514 -0.1933
61849W        W 4766  11.896  24.000  15.411  0.1698 -0.0182 -0.0837
61850W        W 4767  11.075  21.815  19.277  0.1688  0.0998 -0.0033
61851W        W 4768  10.991  23.233  18.695  0.1232  0.3888 -0.1080
61852W        W 4769  14.027  25.736  16.683 -0.0394 -0.0614 -0.1061
61853W        W 4770  10.481  21.455  16.225 -0.1076 -0.3312  0.1918
61854W        W 4771  12.300  25.118  17.867 -0.3394 -0.0351 -0.2671
61855W        W 4772  10.149  24.949  19.536  0.0080 -0.2141  0.4371
61856W        W 4773  11.293  23.024  19.503 -0.0231 -0.0504 -0.0153
61857W        W 4774  12.967  26.716  16.683 -0.0115 -0.0105  0.1225
61858W        W 4775  12.489  23.955  15.972  0.1634 -0.0805  0.0521
61859W        W 4776  12.746  24.982  15.496  0.1515 -0.4078  0.0643
61860W        W 4777  13.346  25.427  16.363 -0.1096 -0.1573 -0.1535
61861W        W 4778  12.557  23.534  17.114  0.4693 -0.3657 -0.1594
61862W        W 4779  12.872  25.487  18.851 -0.2829  0.1981 -0.2461
61863W        W 4780  11.464  23.824  16.003 -0.3332 -0.0898 -0.0976
61864W        W 4781  14.451  23.307  17.342  0.1818 -0.1968  0.1740
61865W        W 4782  12.308  26.252  15.316  0.1993  0.0518  0.1450
61866W        W 4783  13.550  24.395  17.675  0.1478  0.0153  0.2877
61867W        W 4784  12.801  21.622  16.567 -0.3323  0.4009 -0.0661
61868W        W 4785  12.965  25.017  16.311  0.0897 -0.1667 -0.3934
61869W        W 4786  15.214  22.173  16.137 -0.2928  0.0336 -0.2764
61870W        W 4787  12.260  23.424  20.767 -0.2189  0.1450 -0.0368
61871W        W 4788  14.350  23.992  16.310  0.2128 -0.2001  0.0908
61872W        W 4789  10.717  21.100  15.916  0.0179 -0.0003 -0.1082
61873W        W 4790  12.184  24.324  16.251  0.3094  0.0503  0.1765
61874W        W 4791  15.181  20.056  17.478  0.1932  0.3669 -0.2588
61875W        W 4792  10.535  26.082  18.594 -0.1844 -0.0648  0.0800
61876W        W 4793  11.878  25.938  16.196  0.0896 -0.2925 -0.2455
61877W        W 4794  11.546  23.865  15.026  0.0063 -0.1964 -0.2528
61878W        W 4795  12.818  21.765  18.587  0.1051 -0.0101 -0.0228
61879W        W 4796  14.153  21.959  16.806  0.3708 -0.4878 -0.1274
61880W        W 4797  13.944  23.472  16.296  0.2700 -0.2602  0.0676
61881W        W 4798  13.968  24.199  16.737 -0.0747  0.3531  0.4478
61882W        W 4799  12.609  26.283  16.741  0.1497 -0.3707 -0.0221
61883W        W 4800  13.375  24.370  15.962 -0.3572 -0.2803 -0.1355
61884W        W 4801  14.158  26.827  17.491 -0.2356 -0.0422  0.0126
61885W        W 4802   9.550  22.118  16.811 -0.3015  0.1077  0.1302
61886W        W 4803  12.205  23.434  18.533 -0.1903  0.0170 -0.0593
61887W        W 4804  11.493  23.230  16.937 -0.0760 -0.0270 -0.2890
61888W        W 4805  13.137  23.849  18.487 -0.3337 -0.2760  0.1311
61889W        W 4806  12.266  23.378  15.596  0.0673 -0.0300  0.1504
61890W        W 4807  16.507  24.380  16.203  0.3660  0.1007  0.0709
61891W        W 4808  12.825  25.430  15.432 -0.0262  0.2076  0.2236
61892W        W 4809  11.511  23.069  20.266 -0.0680 -0.2707 -0.4199
61893W        W 4810  10.103  24.116  16.502 -0.1568 -0.0739 -0.1436
61894W        W 4811  14.623  22.041  17.460 -0.0806  0.2831 -0.2339
61895W        W 4812  10.852  20.816  15.392  0.1745  0.0256 -0.0403
61896W        W 4813  13.451  24.021  17.999 -0.3324 -0.0733 -0.1054
61897W        W 4814  12.284  20.429  16.136 -0.0563 -0.2985 -0.1498
61898W        W 4815  14.005  22.643  15.204  0.0358 -0.1445  0.1366
61899W        W 4816  11.428  23.992  15.546  0.1370 -0.1758 -0.3389
61900W        W 4817  12.453  22.941  19.194 -0.4978 -0.0065 -0.4231
61901W        W 4818  14.049  24.465  17.208  0.0163 -0.0274  0.0823
61902W        W 4819  10.236  19.835  15.910 -0.3225  0.3718 -0.1531
61903W        W 4820  13.168  23.555  15.501  0.0814  0.1455  0.4385
61904W        W 4821  13.724  22.567  17.320 -0.0996 -0.1786  0.0180
61905W        W 4822  13.563  26.806  17.348 -0.0430 -0.1491 -0.3277
61906W        W 4823  12.772  23.805  15.600 -0.0511 -0.1993 -0.0870
61907W        W 4824  14.305  25.960  17.039  0.0023 -0.1607 -0.3426
61908W        W 4825  11.070  20.467  17.594 -0.1299  0.1362  0.2086
61909W        W 4826  12.716  24.847  17.717  0.3191  0.2046 -0.0542
61910W        W 4827  13.256  25.105  18.304 -0.4884 -0.4904  0.1149
61911W        W 4828  11.931  23.249  16.644 -0.0927 -0.0298 -0.0830
61912W        W 4829  13.183  24.443  16.773  0.1150 -0.0218  0.0450
61913W        W 4830  10.599  26.614  18.136  0.1398 -0.0560  0.0478
61914W        W 4831  14.517  20.620  15.354 -0.0336 -0.1011  0.0898
61915W        W 4832  11.938  24.013  17.881  0.3009 -0.2369  0.0174
61916W        W 4833  12.549  25.731  16.696  0.1507  0.1226  0.0782
61917W        W 4834  13.976  22.808  16.524 -0.1425  0.1561 -0.1672
61918W        W 4835  14.667  23.195  19.575  0.1467  0.1125 -0.5698
61919W        W 4836   9.954  25.934  20.651 -0.0860 -0.5011 -0.0005
61920W        W 4837  10.049  23.446  14.832  0.2680  0.2706  0.5385
61921W        W 4838  12.927  25.925  17.025 -0.0216  0.1509 -0.2470
61922W        W 4839  13.710  24.851  17.558  0.1900 -0.0063 -0.1885
61923W        W 4840  12.830  24.297  15.796 -0.3090  0.1756 -0.0673
61924W        W 4841  10.923  26.191  18.301 -0.1718  0.0052 -0.0279
61925W        W 4842  11.943  24.505  17.590 -0.3044 -0.0415  0.0521
61926W        W 4843  12.282  25.331  16.991  0.4998  0.0998 -0.1232
61927W        W 4844  11.938  20.546  17.553 -0.4979 -0.2183  0.1008
61928W        W 4845  14.986  23.099  14.905 -0.1656  0.2162 -0.2878
61929W        W 4846  13.652  23.203  16.734 -0.1300 -0.2464 -0.0596
61930W        W 4847  12.416  24.706  15.374 -0.0320  0.1046 -0.1993
61931W        W 4848   9.535  22.872  16.258  0.0780 -0.1814 -0.3487
61932W        W 4849  11.461  24.675  15.788  0.2775 -0.4716  0.0756
61933W        W 4850  10.369  23.459  17.876 -0.3020 -0.1635 -0.0697
61934W        W 4851  12.586  21.156  19.175 -0.0979  0.3090 -0.2471
61935W        W 4852  10.927  22.348  19.232  0.2206  0.0907 -0.0086
61936W        W 4853  10.185  22.823  20.242  0.1031 -0.1654  0.1465
61937W        W 4854  10.275  21.914  15.878 -0.1520 -0.0510  0.2660
61938W        W 4855  14.153  23.921  15.345 -0.0624 -0.3893  0.0003
61939W        W 4856  11.601  22.658  17.445 -0.0670  0.2591  0.3662
61940W        W 4857  11.202  23.775  16.993  0.2373 -0.0357  0.0868
61941W        W 4858  13.154  23.043  16.429  0.0405  0.3069  0.1856
61942W        W 4859  13.518  23.812  15.852  0.0537  0.0780  0.2726
61943W        W 4860  10.000  23.302  16.428 -0.1299 -0.1727  0.4285
61944W        W 4861  13.441  26.204  18.933  0.0859 -0.0573  0.1140
61945W        W 4862  10.093  24.220  15.316 -0.0208 -0.1753 -0.1705
61946W        W 4863  12.209  24.778  19.389 -0.0463 -0.2463  0.0310
61947W        W 4864  11.476  23.589  16.496 -0.0774  0.2222  0.2757
61948W        W 4865   9.173  20.460  17.918 -0.2319 -0.0979  0.2126
61949W        W 4866  13.187  24.198  17.357  0.0765 -0.1769 -0.2821
61950W        W 4867  13.572  25.934  16.436 -0.0644 -0.2155  0.2164
61951W        W 4868  14.585  26.476  16.851  0.0987 -0.3574  0.0073
61952W        W 4869  10.998  23.701  18.019  0.1885  0.3954 -0.0478
61953W        W 4870  12.910  27.427  19.247  0.0446  0.0042 -0.3302
61954W        W 4871   8.469  22.274  20.000 -0.0146  0.1872 -0.0645
61955W        W 4872  12.028  22.427  16.678  0.2768 -0.1513 -0.1378
61956W        W 4873  13.140  24.610  17.759  0.3335 -0.0375 -0.0711
61957W        W 4874  14.177  24.417  15.592 -0.0142  0.0574 -0.1735
61958W        W 4875  13.705  22.077  17.169  0.2218 -0.0675 -0.2443
61959W        W 4876  13.808  23.453  15.796 -0.2286 -0.3152  0.2914
61960W        W 4877  12.488  22.152  18.571  0.1009  0.0673 -0.1163
61961W        W 4878  11.315  24.273  19.370 -0.1601  0.1617  0.0194
61962W        W 4879  13.524  24.481  17.100 -0.0001  0.0995 -0.0508
61963W        W 4880  10.911  21.828  16.876  0.1017 -0.1137  0.1311
61964W        W 4881  11.123  20.748  16.577  0.1025 -0.2029  0.2826
61965W        W 4882  12.821  24.877  16.763 -0.2082  0.0382 -0.0455
61966W        W 4883  12.754  23.470  15.156 -0.1821 -0.0166 -0.2764
61967W        W 4884  11.405  22.775  15.848 -0.2839  0.1064 -0.2855
61968W        W 4885  12.698  22.590  17.521 -0.1267 -0.3297 -0.0276
61969W        W 4886  12.520  25.590  15.909  0.1607 -0.1926  0.1434
61970W        W 4887  11.241  23.358  18.297 -0.2173 -0.0308  0.2410
61971W        W 4888  11.758  22.012  15.867  0.0495  0.0740  0.2441
61972W        W 4889  13.375  22.912  14.675  0.2618  0.1449  0.0689
61973W        W 4890  13.394  27.048  20.233  0.1201  0.2325  0.0997
61974W        W 4891  14.378  23.626  19.628 -0.2667 -0.0830 -0.0050
61975W        W 4892  12.041  25.843  18.810  0.1892  0.1034 -0.0094
61976W        W 4893  13.623  24.428  20.690  0.1657 -0.2541 -0.0189
61977W        W 4894   9.548  23.408  17.483  0.0984  0.3691 -0.0711
61978W        W 4895  10.455  23.082  15.642  0.0109 -0.1892 -0.1398
61979W        W 4896  14.217  23.169  15.954 -0.3288  0.0559 -0.0177
61980W        W 4897  13.926  21.305  15.868 -0.0484  0.0209 -0.2278
61981W        W 4898  11.628  23.772  17.374  0.2406  0.1155  0.1912
61982W        W 4899  13.956  23.378  17.576  0.0793  0.2337 -0.2893
61983W        W 4900  12.829  23.549  17.899 -0.1424 -0.1274  0.1648
61984W        W 4901  13.724  24.082  17.270  0.0873 -0.0015  0.0333
61985W        W 4902  10.044  25.380  23.602 -0.2215 -0.5327  0.0704
61986W        W 4903  11.717  22.936  19.850  0.1664  0.0038 -0.1039
61987W        W 4904  11.811  24.325  19.601  0.1276  0.0833  0.0562
61988W        W 4905  11.633  24.054  21.421 -0.1420  0.1285  0.4120
61989W        W 4906  11.724  24.225  19.051 -0.2135  0.0786  0.1119
61990W        W 4907  12.556  25.157  19.093  0.0343  0.1170 -0.1382
61991W        W 4908  11.898  22.362  23.279  0.0043 -0.1236 -0.0240
61992W        W 4909  13.127  25.664  20.638 -0.0935 -0.0518 -0.0825
61993W        W 4910  15.961  25.364  20.592 -0.0012  0.2126  0.3811
61994W        W 4911  12.983  21.841  19.432 -0.3476  0.3335 -0.2599
61995W        W 4912  12.007  22.949  20.794  0.0672 -0.2498 -0.2006
61996W        W 4913  11.390  25.159  21.161 -0.1166  0.0337 -0.1102
61997W        W 4914  10.516  21.318  18.586  0.1912  0.0275 -0.4284
61998W        W 4915  10.453  22.212  23.043 -0.2150  0.0828  0.1032
61999W        W 4916  11.912  24.471  22.723 -0.0206  0.0719  0.2748
62000W        W 4917  10.455  25.321  20.349 -0.2385 -0.1671  0.0566
62001W        W 4918  11.277  23.159  21.567 -0.3386  0.0753 -0.2156
62002W        W 4919  12.879  26.990  20.010 -0.1935  0.3472  0.3170
62003W        W 4920  13.097  25.974  21.768 -0.1394  0.1637  0.2853
62004W        W 4921  11.334  23.240  20.779  0.2831  0.0150 -0.1963
62005W        W 4922  12.404  22.778  22.040  0.1935  0.2445  0.1905
62006W        W 4923  12.224  23.729  20.350 -0.0286  0.3984 -0.0501
62007W        W 4924   9.983  23.537  20.845 -0.1615 -0.1876  0.1241
62008W        W 4925   9.217  25.901  21.707 -0.3333 -0.1403 -0.0296
62009W        W 4926  11.502  22.715  20.776  0.0956  0.1462  0.0871
62010W        W 4927  14.402  24.693  21.527  0.2347  0.0174  0.0367
62011W        W 4928  12.712  24.463  22.197  0.2635 -0.0894 -0.0465
62012W        W 4929  12.396  25.120  21.587  0.0427  0.0736 -0.1940
62013W        W 4930  13.434  24.001  24.124 -0.1563 -0.0525  0.1073
62014W        W 4931  11.665  22.364  23.796  0.3663 -0.0084 -0.2406
62015W        W 4932  11.795  23.409  22.431 -0.1672 -0.0762  0.4214
62016W        W 4933   9.425  24.993  20.312 -0.2957 -0.1505  0.3068
62017W        W 4934  13.204  25.670  22.980  0.2100  0.1043  0.0603
62018W        W 4935  15.735  28.229  20.164 -0.0569  0.2727  0.0811
62019W        W 4936  12.682  25.839  20.808 -0.1931 -0.1428  0.2660
62020W        W 4937  11.813  26.957  23.303  0.1106 -0.0236 -0.1554
62021W        W 4938  10.601  25.910  19.092 -0.0072 -0.2736 -0.1822
62022W        W 4939  12.427  27.492  22.200  0.1174  0.0939 -0.0123
62023W        W 4940  12.373  24.959  24.373  0.2041 -0.2571  0.3225
62024W        W 4941  13.521  26.150  22.898 -0.0303  0.0540 -0.1250
62025W        W 4942  12.057  24.206  21.620  0.0602 -0.2908  0.1350
62026W        W 4943  12.538  26.873  20.394 -0.0441 -0.2003 -0.2414
62027W        W 4944  13.301  27.443  20.583  0.2107 -0.0557  0.0029
62028W        W 4945  12.668  22.905  22.952 -0.1130  0.0980  0.2236
62029W        W 4946  10.201  24.378  21.313  0.1548  0.0235 -0.4582
62030W        W 4947  13.677  22.101  22.311  0.0203  0.1084  0.1999
62031W        W 4948  12.491  26.552  19.045  0.2824 -0.2538  0.1080
62032W        W 4949  12.895  23.700  16.719 -0.0638  0.1220 -0.1516
62033W        W 4950  12.420  21.340  18.527 -0.0312 -0.1567 -0.2997
62034W        W 4951  11.632  21.751  20.403 -0.5422 -0.0332  0.0400
62035W        W 4952  12.669  23.109  21.218 -0.1546 -0.1328  0.1661
62036W        W 4953  12.672  26.377  20.193  0.0107 -0.0267 -0.1611
62037W        W 4954  11.603  22.756  22.194 -0.1154  0.0674 -0.3980
62038W        W 4955  13.871  25.285  20.881  0.1646  0.1043  0.1439
62039W        W 4956  11.728  23.496  21.530  0.1840 -0.3181  0.2292
62040W        W 4957  13.561  22.198  23.644  0.2175 -0.1824  0.1556
62041W        W 4958  11.998  24.497  24.524 -0.0898  0.3238 -0.0404
62042W        W 4959  11.295  21.349  21.142 -0.0036  0.0672 -0.0388
62043W        W 4960  15.055  25.424  19.383  0.0689 -0.0797  0.3240
62044W        W 4961  11.969  23.832  19.432 -0.2262 -0.2068 -0.2161
62045W        W 4962  13.706  25.382  17.527  0.2062 -0.1320 -0.0500
62046W        W 4963  12.193  25.397  22.975 -0.0975  0.1543  0.0901
62047W        W 4964  11.682  24.090  23.559  0.1087 -0.0186 -0.0702
62048W        W 4965  10.864  23.319  22.980  0.3331 -0.0297  0.1085
62049W        W 4966  11.067  23.423  21.986 -0.2782  0.0062  0.2327
62050W        W 4967  13.392  24.776  23.766 -0.2908 -0.0331  0.4364
62051W        W 4968  11.030  26.311  21.926 -0.1402  0.0547  0.0793
62052W        W 4969  14.861  22.809  18.874 -0.0256  0.0704  0.2381
62053W        W 4970  12.035  24.508  20.059 -0.3570  0.2652 -0.0500
62054W        W 4971  14.261  26.375  20.543 -0.2935  0.2580 -0.3312
62055W        W 4972  12.246  22.983  19.762 -0.0750  0.0726 -0.2918
62056W        W 4973  11.776  22.617  18.947  0.0504 -0.3061 -0.4655
62057W        W 4974  14.077  24.064  21.065 -0.0254 -0.3121  0.1906
62058W        W 4975  11.149  25.027  19.833  0.1319 -0.0992  0.1491
62059W        W 4976  12.825  26.034  19.787  0.1453 -0.1377  0.0209
62060W        W 4977  11.885  25.552  23.378 -0.0901  0.1422  0.1702
62061W        W 4978  11.261  24.146  18.795 -0.0649  0.0383  0.0085
62062W        W 4979  11.563  26.182  22.208 -0.0636 -0.1650 -0.3059
62063W        W 4980  11.084  22.470  23.110 -0.1854 -0.1574  0.1217
62064W        W 4981  11.109  24.685  21.755  0.0229  0.0080  0.2178
62065W        W 4982  13.111  25.192  19.283  0.0541  0.2237 -0.0089
62066W        W 4983   9.874  24.659  20.462 -0.1788  0.1275 -0.0489
62067W        W 4984  11.053  23.560  19.471 -0.0284 -0.4671 -0.0602
62068W        W 4985  10.229  23.240  23.975 -0.2442  0.1162 -0.2648
62069W        W 4986  10.665  24.262  21.119  0.0966  0.1566 -0.0170
62070W        W 4987  12.725  22.132  19.847  0.3557  0.1633 -0.1878
62071W        W 4988  11.689  21.504  22.575  0.2375 -0.1319 -0.1195
62072W        W 4989  13.951  21.520  20.963  0.1365  0.1021 -0.0269
62073W        W 4990  11.302  24.684  20.860 -0.2392 -0.0792  0.1046
62074W        W 4991  12.859  24.655  22.982 -0.3298  0.2199 -0.2104
62075W        W 4992  11.951  22.136  20.286  0.0728 -0.0953 -0.2561
62076W        W 4993  11.679  25.302  17.215 -0.1479 -0.1533  0.0657
62077W        W 4994  10.591  25.479  22.017  0.0272  0.1151  0.0528
62078W        W 4995  10.827  21.496  20.728 -0.0177  0.2319  0.1142
62079W        W 4996  11.534  23.262  21.988  0.0695 -0.1835 -0.2865
62080W        W 4997  12.863  22.794  21.819 -0.0178  0.0552 -0.2398
62081W        W 4998  13.543  25.330  21.325 -0.2355 -0.0693 -0.1407
62082W        W 4999   9.715  21.837  21.048 -0.1802 -0.0882 -0.4621
62083W        W 5000  13.241  22.886  18.852 -0.2055 -0.2439 -0.1701
62084W        W 5001  10.547  21.830  18.591 -0.1438 -0.1461  0.0856
62085W        W 5002  10.914  25.203  21.253  0.1537 -0.0771  0.2072
62086W        W 5003  12.369  21.022  22.052 -0.1151  0.0297  0.0068
62087W        W 5004  11.832  25.820  18.293  0.3335  0.1056  0.0504
62088W        W 5005  12.515  26.493  23.142  0.3256  0.0010  0.0443
62089W        W 5006  13.875  26.147  20.754  0.0267  0.1550 -0.0098
62090W        W 5007  13.202  22.669  23.146  0.0821 -0.1081 -0.1798
62091W        W 5008  10.052  25.456  20.673 -0.5511 -0.3560 -0.1935
62092W        W 5009  11.804  26.582  22.408  0.0229  0.0198 -0.1004
62093W        W 5010  12.714  24.720  21.572  0.2401  0.1362  0.0895
62094W        W 5011  12.653  22.787  20.066 -0.0023 -0.2337  0.3376
62095W        W 5012  13.337  25.371  22.591  0.1074 -0.1410  0.0138
62096W        W 5013  11.499  23.695  21.096  0.1350 -0.1866  0.1508
62097W        W 5014  11.658  25.091  23.613 -0.1914  0.0919  0.3374
62098W        W 5015  13.127  23.307  21.004  0.0025 -0.2156  0.2472
62099W        W 5016  15.427  23.805  21.445  0.0241  0.1853 -0.3261
62100W        W 5017  14.389  22.626  22.384  0.2719 -0.1063 -0.2713
62101W        W 5018  10.984  21.798  19.826  0.0167  0.0773  0.0533
62102W        W 5019  14.111  25.673  19.787  0.0597 -0.2626  0.1978
62103W        W 5020  10.034  25.444  19.328  0.1048  0.1802 -0.1180
62104W        W 5021  11.127  25.059  22.127  0.3219 -0.3868  0.0805
62105W        W 5022  11.542  24.281  17.401 -0.1045  0.1330 -0.0738
62106W        W 5023  12.912  22.917  20.800  0.1169  0.1094  0.2602
62107W        W 5024   9.776  24.307  22.357 -0.3963 -0.2038  0.1711
62108W        W 5025  12.335  22.440  23.462 -0.1640  0.1293 -0.1959
62109W        W 5026  12.118  23.213  21.414  0.2081  0.0360  0.0892
62110W        W 5027  11.673  25.697  25.153 -0.0350 -0.0837  0.1911
62111W        W 5028  12.900  23.316  18.531 -0.1589 -0.2581  0.0231
62112W        W 5029  13.704  23.354  18.067  0.1839  0.1501  0.1147
62113W        W 5030  13.243  23.467  22.441 -0.0098  0.2935 -0.1794
62114W        W 5031  12.791  23.575  19.668 -0.2574  0.1234 -0.2890
62115W        W 5032  11.620  22.561  15.183  0.3200 -0.0333  0.1442
62116W        W 5033  13.149  21.911  17.925  0.0731  0.0073  0.1327
62117W        W 5034  10.857  26.257  24.738  0.0691  0.4093 -0.1000
62118W        W 5035  11.508  23.775  19.147 -0.0083  0.0280  0.1011
62119W        W 5036  11.541  25.867  20.958  0.0958 -0.0956  0.0447
62120W        W 5037  10.953  23.958  19.125  0.1819  0.2853 -0.3771
62121W        W 5038  15.777  25.628  20.998 -0.3750  0.0218  0.0215
62122W        W 5039  10.833  25.198  20.725  0.1650 -0.0543 -0.0566
62123W        W 5040  12.975  26.278  22.784 -0.2879 -0.0539  0.2935
62124W        W 5041  12.671  24.546  19.445 -0.1632  0.1116  0.1771
62125W        W 5042  13.425  23.877  22.652 -0.1549 -0.3339 -0.0410
62126W        W 5043  11.909  23.374  17.209  0.1869 -0.0539 -0.1270
62127W        W 5044  12.579  21.426  20.448 -0.1305 -0.0111 -0.0132
62128W        W 5045  11.767  25.166  19.597  0.1242  0.0633 -0.0783
62129W        W 5046  13.357  22.219  20.648  0.0442  0.0711 -0.0581
62130W        W 5047  12.163  23.830  22.410 -0.1137 -0.4646 -0.0618
62131W        W 5048  11.431  22.146  23.367 -0.0454  0.2118 -0.1012
62132W        W 5049  13.487  22.873  23.613  0.1789  0.1583 -0.1092
62133W        W 5050  13.574  22.837  19.550  0.0898  0.0549  0.1572
62134W        W 5051  13.460  21.889  22.776  0.0807  0.1432 -0.1203
62135W        W 5052  10.737  23.221  18.139  0.3881 -0.0903  0.0106
62136W        W 5053  13.792  23.622  26.280  0.0630  0.0996 -0.1410
62137W        W 5054  11.868  23.948  20.700 -0.0753 -0.1210 -0.2727
62138W        W 5055  10.199  25.343  24.143  0.0485 -0.1016  0.1008
62139W        W 5056  13.806  23.362  22.077  0.0417  0.0211  0.0025
62140W        W 5057  12.813  23.332  22.695  0.0200 -0.1772 -0.2507
62141W        W 5058  12.740  22.307  21.665  0.2016  0.2157 -0.1244
62142W        W 5059  11.723  23.623  20.269 -0.7069  0.2549  0.3138
62143W        W 5060  13.160  25.640  20.070 -0.3069 -0.1295  0.0813
62144W        W 5061  12.008  23.648  21.152 -0.1747 -0.0140 -0.1444
62145W        W 5062  11.999  22.932  24.070  0.1852  0.2821  0.2121
62146W        W 5063  11.116  25.857  23.780 -0.1837  0.1928 -0.0477
62147W        W 5064  11.076  25.622  17.634  0.3004 -0.2256 -0.0131
62148W        W 5065  12.110  26.307  22.029 -0.0321  0.0567 -0.0480
62149W        W 5066  11.032  25.484  22.854  0.2950  0.1739 -0.0452
62150W        W 5067  11.682  22.262  20.973 -0.2376  0.0024  0.0890
62151W        W 5068  11.065  26.021  20.872  0.1471  0.2290 -0.0427
62152W        W 5069  11.942  23.407  17.749 -0.0430 -0.0602  0.0556
62153W        W 5070  11.451  23.404  19.914  0.1372  0.1583  0.0610
62154W        W 5071  14.514  23.697  20.999  0.0509  0.2645 -0.0603
62155W        W 5072  12.440  23.883  19.919  0.0372  0.2973 -0.0983
62156W        W 5073   9.960  23.066  22.602  0.0171  0.0762  0.0211
62157W        W 5074  13.088  23.479  21.966  0.0521  0.1691  0.0580
62158W        W 5075  11.462  23.779  22.260  0.0886 -0.0746 -0.3346
62159W        W 5076  12.683  23.885  20.580 -0.1131  0.1427 -0.1468
62160W        W 5077  12.563  24.289  18.669 -0.0393  0.0585  0.0638
62161W        W 5078  13.008  24.074  23.142  0.0087  0.0320  0.0272
62162W        W 5079  12.013  23.049  22.199  0.0902 -0.1624 -0.1330
62163W        W 5080   9.212  23.347  20.091  0.0841  0.2010 -0.2574
62164W        W 5081  15.091  23.025  22.505  0.3215  0.0717 -0.0949
62165W        W 5082  10.800  24.200  19.618 -0.1471  0.2004 -0.1415
62166W        W 5083  10.312  24.159  20.036  0.0602  0.0438 -0.4313
62167W        W 5084  14.100  26.049  21.877 -0.3115 -0.2089  0.1894
62168W        W 5085  10.561  21.568  21.545  0.2308 -0.2226  0.0080
62169W        W 5086  12.386  25.630  18.023 -0.1657 -0.2043 -0.0853
62170W        W 5087  12.183  21.578  22.770  0.3340  0.1017 -0.3012
62171W        W 5088  12.461  23.872  19.336  0.0709  0.1584  0.0653
62172W        W 5089  11.979  21.879  20.749  0.1549 -0.2933 -0.0326
62173W        W 5090  12.028  20.733  21.632 -0.0625 -0.0294 -0.1090
62174W        W 5091  10.876  23.349  20.904 -0.2225  0.1423  0.1150
62175W        W 5092  14.797  24.529  20.983 -0.2096 -0.2688  0.0030
62176W        W 5093  12.966  23.126  23.264  0.2621 -0.1971  0.0232
62177W        W 5094   9.984  26.257  22.034  0.0375  0.0876  0.3005
62178W        W 5095  10.893  24.457  23.867 -0.0640 -0.2724  0.2287
62179W        W 5096  13.450  25.528  21.744  0.0548  0.4295 -0.1880
62180W        W 5097  13.382  22.990  21.879  0.1110  0.4861  0.0986
62181W        W 5098  10.728  24.649  20.724 -0.0506 -0.0066  0.0999
62182W        W 5099  12.024  24.732  21.424 -0.0139 -0.1412  0.3440
62183W        W 5100  12.337  25.836  17.101  0.2303  0.0080  0.0270
62184W        W 5101  14.023  23.558  21.056 -0.2717  0.2877 -0.2195
62185W        W 5102  11.535  22.242  20.526 -0.1474 -0.0624  0.1739
62186W        W 5103  11.744  24.699  20.496 -0.2295  0.0873  0.1780
62187W        W 5104  10.525  26.170  22.511 -0.4522 -0.0043  0.0231
62188W        W 5105  13.258  21.996  18.814 -0.1351  0.1635 -0.1314
62189W        W 5106  12.194  22.418  19.358  0.3728 -0.1348 -0.1447
62190W        W 5107  11.131  22.878  22.057  0.1872 -0.0948 -0.3232
62191W        W 5108  13.624  22.296  21.830  0.1093  0.1709 -0.1316
62192W        W 5109  12.342  23.396  19.410 -0.0057 -0.1364 -0.1684
62193W        W 5110  12.385  21.533  22.232 -0.0127 -0.2012  0.0894
62194W        W 5111   9.308  24.675  21.170 -0.2309  0.4264  0.0132
62195W        W 5112  12.716  23.780  21.826 -0.1409  0.0521 -0.1396
62196W        W 5113  11.464  20.927  23.257 -0.1819 -0.0687  0.4463
62197W        W 5114  12.327  25.701  22.556 -0.1503  0.0393 -0.1560
62198W        W 5115  10.418  22.796  23.826  0.0798  0.1623 -0.0823
62199W        W 5116  12.734  23.051  19.657 -0.0851 -0.2993 -0.0105
62200W        W 5117  10.005  22.346  19.175  0.1200 -0.2801  0.0650
62201W        W 5118  11.697  22.890  21.645  0.3416  0.1566  0.0964
62202W        W 5119  13.631  25.892  22.031 -0.0543 -0.1925  0.0470
62203W        W 5120  11.516  24.256  20.913  0.0250 -0.2902 -0.0276
62204W        W 5121  13.265  23.840  21.022 -0.1924  0.2044  0.1811
62205W        W 5122  10.555  25.431  22.906  0.0251 -0.0330 -0.0981
62206W        W 5123  11.746  24.951  22.579 -0.0246  0.1210  0.1372
62207W        W 5124  11.506  24.256  20.306 -0.3251 -0.0442 -0.0000
62208W        W 5125  10.571  23.196  21.309 -0.2777  0.0466  0.1218
62209W        W 5126   9.808  21.872  23.148 -0.1809  0.3387 -0.1178
62210W        W 5127  11.329  23.739  21.686 -0.1993  0.3832 -0.0777
62211W        W 5128  12.603  24.342  20.700 -0.3771 -0.3740  0.0029
62212W        W 5129  12.376  23.805  21.442  0.0132  0.0174  0.1341
62213W        W 5130  12.689  23.803  22.361  0.0175  0.3249 -0.2420
62214W        W 5131  12.099  22.485  22.399  0.1098 -0.0586  0.1978
62215W        W 5132  10.651  21.566  23.430  0.1256 -0.0722  0.0248
62216W        W 5133  12.635  24.922  22.102  0.0335 -0.1531  0.1478
62217W        W 5134  11.909  24.029  20.028  0.2680 -0.1030  0.2608
62218W        W 5135  13.983  22.707  19.838  0.3672  0.3033 -0.4710
62219W        W 5136  12.814  25.342  21.846  0.2428  0.4266  0.0990
62220W        W 5137  13.378  22.752  20.872  0.1669  0.1566  0.0707
62221W        W 5138  12.394  23.005  20.521 -0.0203 -0.1320  0.0822
62222W        W 5139  14.536  23.028  22.652  0.1212 -0.2047 -0.2425
62223W        W 5140  11.649  23.088  21.146  0.4983 -0.1146  0.0494
62224W        W 5141  13.246  19.959  22.357  0.4054 -0.3324 -0.0591
62225W        W 5142  14.985  25.755  19.780  0.2762 -0.0319 -0.1120
62226W        W 5143  13.087  25.030  21.500 -0.1209  0.0929  0.1641
62227W        W 5144  12.243  22.524  20.532  0.1358 -0.1043  0.0470
62228W        W 5145  10.245  23.971  20.979 -0.2191 -0.0075  0.1865
62229W        W 5146  11.761  24.833  21.032 -0.3514  0.2033 -0.1334
62230W        W 5147  13.001  22.299  18.489 -0.0728  0.0278  0.2437
62231W        W 5148  12.319  24.754  20.362  0.5130 -0.0049 -0.2004
62232W        W 5149  12.706  25.801  21.546  0.1874 -0.1251 -0.0382
62233W        W 5150  13.829  24.079  24.489  0.4107 -0.0095 -0.1618
62234W        W 5151  11.779  20.795  18.086  0.0509  0.2699  0.1978
62235W        W 5152  14.293  23.295  23.493  0.2127  0.1403  0.2344
62236W        W 5153  10.199  24.562  19.099 -0.0497  0.1770 -0.0433
62237W        W 5154  12.695  23.563  20.996  0.2041 -0.1255  0.0177
62238W        W 5155  13.238  27.358  21.465 -0.2611  0.2700  0.2390
62239W        W 5156  11.536  24.542  21.428 -0.0149 -0.0822 -0.0950
62240W        W 5157  12.721  26.238  21.857 -0.0907 -0.0875  0.0791
62241W        W 5158  13.941  23.486  21.561 -0.0661 -0.0095  0.1321
62242W        W 5159  13.349  23.176  20.499 -0.1112  0.0286  0.1407
62243W        W 5160  12.575  25.632  19.887  0.0034 -0.0674 -0.0047
62244W        W 5161  12.520  23.368  23.206 -0.0917  0.3693 -0.1666
62245W        W 5162  12.705  24.231  21.656  0.1000 -0.0066  0.0390
62246W        W 5163   9.531  23.546  23.333  0.0320 -0.1891  0.3146
62247W        W 5164  11.283  26.063  22.943 -0.2676  0.0648 -0.2782
62248W        W 5165  11.920  23.653  18.223 -0.0705  0.3612  0.0927
62249W        W 5166  10.351  24.508  22.434  0.0652  0.0076 -0.0552
62250W        W 5167  12.227  24.604  20.828  0.0538  0.2128  0.2348
62251W        W 5168  13.628  23.780  23.743  0.2358 -0.1143  0.2704
62252W        W 5169  12.324  25.583  20.546  0.2793  0.1341  0.2606
62253W        W 5170   9.822  22.340  20.299 -0.2181  0.2499  0.0546
62254W        W 5171  12.269  23.805  16.401 -0.3024  0.0165 -0.2695
62255W        W 5172   9.811  24.858  22.347  0.2341  0.2601 -0.1653
62256W        W 5173  10.166  24.203  23.359 -0.2925  0.3192  0.2190
62257W        W 5174  13.824  26.393  21.470  0.2226  0.2587 -0.0860
62258W        W 5175  12.928  24.223  19.150 -0.1670  0.1931 -0.0610
62259W        W 5176  10.569  24.147  18.137  0.0006  0.1046  0.3895
62260W        W 5177  13.106  26.275  22.206  0.1297  0.2984  0.0790
62261W        W 5178  10.540  22.883  19.837 -0.0634  0.1399 -0.3901
62262W        W 5179  12.514  23.326  21.675 -0.1615 -0.1787  0.0763
62263W        W 5180   9.593  25.145  21.264  0.1723 -0.0097 -0.0457
62264W        W 5181  13.339  24.034  18.914 -0.2880  0.2384 -0.1015
62265W        W 5182  13.593  24.267  19.811 -0.1121 -0.5595 -0.1888
62266W        W 5183  15.123  22.251  22.123  0.1740 -0.2376  0.1778
62267W        W 5184  13.089  24.234  20.664  0.1218  0.2487  0.0198
62268W        W 5185  14.015  22.750  19.212 -0.0201 -0.1153  0.1906
62269W        W 5186  14.025  22.290  20.301  0.2052 -0.1314  0.2530
62270W        W 5187  12.215  23.723  23.423 -0.2005 -0.1691  0.4111
62271W        W 5188  13.424  25.718  21.076  0.1176  0.1458  0.1136
62272W        W 5189  12.547  22.054  19.200 -0.0093 -0.0644 -0.0731
62273W        W 5190  10.903  22.796  21.637  0.2223 -0.0491 -0.2822
62274W        W 5191  14.382  22.768  21.870  0.2969 -0.1027 -0.1903
62275W        W 5192  11.357  25.764  22.526 -0.1338  0.0232 -0.2869
62276W        W 5193  13.301  23.467  18.832 -0.1915  0.0396 -0.0842
62277W        W 5194   9.782  23.938  22.711  0.1809  0.0271 -0.0885
62278W        W 5195  12.422  25.207  20.234  0.0861  0.0002  0.2304
62279W        W 5196  14.538  21.824  18.446 -0.1375  0.2231  0.0373
62280W        W 5197  12.798  25.340  17.887  0.1998  0.2076 -0.0270
62281W        W 5198  12.919  23.520  21.465  0.0472 -0.0337  0.5549
62282W        W 5199  11.313  23.316  19.076  0.1374  0.3386 -0.0232
62283W        W 5200  12.714  25.852  20.327  0.0743  0.2091 -0.1555
62284W        W 5201  12.064  24.102  23.093 -0.0271  0.1128  0.0422
62285W        W 5202  11.470  25.314  20.052  0.2211 -0.0470 -0.2430
62286W        W 5203  15.177  22.315  20.747 -0.1474  0.3367 -0.2263
62287W        W 5204  11.973  26.785  20.683  0.0764 -0.1539  0.0042
62288W        W 5205  12.337  23.988  20.955 -0.2021  0.2631 -0.3084
62289W        W 5206   9.864  22.241  21.493 -0.1015  0.0140 -0.0229
62290W        W 5207  14.127  24.706  19.483  0.0059  0.1088  0.1476
62291W        W 5208  11.305  25.155  20.569 -0.3345  0.0882  0.0292
62292W        W 5209   9.366  23.455  24.368 -0.0611 -0.1715 -0.1407
62293W        W 5210  11.316  21.830  17.449  0.1717 -0.1426  0.3975
62294W        W 5211  13.437  24.801  22.325  0.0373  0.1255  0.2619
62295W        W 5212  11.090  23.364  20.304  0.0617 -0.0605 -0.1753
62296W        W 5213  11.947  25.388  21.727 -0.1971 -0.2066  0.1122
62297W        W 5214  11.519  21.027  21.481 -0.4019 -0.2365  0.3057
62298W        W 5215  12.292  22.652  17.889  0.0520 -0.0811 -0.2386
62299W        W 5216  11.171  25.506  20.929 -0.1578 -0.0355  0.2618
62300W        W 5217  12.493  22.274  22.561 -0.0946 -0.3148  0.0531
62301W        W 5218  15.735  25.640  17.992  0.0950  0.1465  0.1846
62302W        W 5219   9.225  22.337  23.262  0.0178 -0.2900 -0.0103
62303W        W 5220  15.120  25.848  20.273 -0.0528  0.3090  0.1749
62304W        W 5221  15.450  24.791  19.874  0.0501 -0.1797 -0.4302
62305W        W 5222  12.009  26.392  18.567 -0.0888  0.1024 -0.1264
62306W        W 5223  11.785  23.439  20.755 -0.1323  0.2673 -0.0030
62307W        W 5224  13.056  27.065  21.130 -0.1574  0.1174 -0.1383
62308W        W 5225  10.570  23.310  19.562 -0.0572 -0.1313 -0.0938
62309W        W 5226  11.974  25.758  22.091 -0.1887  0.0971 -0.2553
62310W        W 5227  12.253  25.161  22.465 -0.3257 -0.3386  0.0740
62311W        W 5228  10.338  22.644  21.350  0.1706 -0.2537 -0.0645
62312W        W 5229  11.044  22.334  20.476  0.1915  0.3411  0.0952
62313W        W 5230  10.378  24.526  20.346 -0.1191 -0.2386 -0.2868
62314W        W 5231  13.178  23.940  21.590  0.0642 -0.2067 -0.2784
62315W        W 5232  13.225  25.093  21.982 -0.1730  0.1699  0.3274
62316W        W 5233  11.662  25.471  18.762 -0.0024 -0.1907  0.1305
62317W        W 5234  12.748  20.942  20.559 -0.0501 -0.2178  0.1196
62318W        W 5235  12.180  24.553  23.335  0.1383 -0.2442  0.3838
62319W        W 5236   9.888  24.927  22.865 -0.1096 -0.0725  0.1599
62320W        W 5237  11.298  25.780  18.505  0.0030  0.6004  0.0179
62321W        W 5238  13.129  23.648  22.937  0.0440 -0.0201 -0.1539
62322W        W 5239  12.869  24.846  18.178  0.2295 -0.0933  0.2615
62323W        W 5240  10.983  23.535  22.472 -0.1168 -0.1147  0.0459
62324W        W 5241  13.296  25.187  19.949  0.0734 -0.1508  0.0360
62325W        W 5242  11.247  24.265  19.887 -0.1207 -0.0681 -0.1327
62326W        W 5243  15.672  26.239  21.838 -0.2670 -0.1262 -0.2336
62327W        W 5244  13.686  23.957  21.370  0.1153  0.2397  0.0894
62328W        W 5245  12.031  23.518  19.835 -0.0687  0.1735  0.0168
62329W        W 5246  13.515  21.959  20.274 -0.1220 -0.0411 -0.2956
62330W        W 5247  11.311  24.167  22.574  0.1228 -0.0729 -0.2642
62331W        W 5248  10.940  25.212  18.908 -0.0243 -0.4783 -0.1067
62332W        W 5249  12.092  23.046  18.832 -0.0913  0.0580  0.1342
62333W        W 5250  12.558  24.691  18.947 -0.0605 -0.0402  0.1052
62334W        W 5251  12.822  21.807  21.699 -0.1206  0.0776  0.1941
62335W        W 5252  11.377  24.249  21.871 -0.2454  0.0710  0.3078
62336W        W 5253  10.086  25.740  21.977  0.0552  0.0065  0.0032
62337W        W 5254  11.078  24.258  20.635 -0.2589 -0.2324 -0.1030
62338W        W 5255  12.197  25.160  18.656 -0.2182  0.0293 -0.4614
62339W        W 5256  11.350  22.581  20.137  0.2202  0.0533 -0.3453
62340W        W 5257  11.071  22.984  21.162  0.1599  0.3028  0.1569
62341W        W 5258  11.730  23.246  18.443  0.0624  0.2479 -0.1628
62342W        W 5259  12.225  24.312  19.225  0.0234  0.2523 -0.0026
62343W        W 5260  11.988  20.592  18.926 -0.0301 -0.1974 -0.1057
62344W        W 5261  15.716  23.579  21.911 -0.4031  0.0138 -0.0393
62345W        W 5262  10.395  24.882  19.986  0.0303  0.0448 -0.3153
62346W        W 5263  11.116  22.467  24.121  0.1820 -0.0666  0.0803
62347W        W 5264  12.568  20.149  21.247 -0.0982 -0.0982  0.0055
62348W        W 5265   9.050  22.910  19.988  0.5925 -0.0560  0.0564
62349W        W 5266  12.878  23.011  22.351 -0.2732  0.2026 -0.0394
62350W        W 5267  11.887  25.361  20.377  0.1285  0.1692  0.0313
62351W        W 5268  12.344  23.855  18.905 -0.0720 -0.0678  0.2997
62352W        W 5269  12.132  24.670  22.292  0.1264 -0.0769 -0.1063
62353W        W 5270  13.420  26.133  20.621 -0.3519  0.0591 -0.1347
62354W        W 5271  10.760  22.704  22.293 -0.2257 -0.1404 -0.1120
62355W        W 5272  12.190  24.229  20.501  0.2090 -0.2367  0.0715
62356W        W 5273  13.521  24.243  21.857 -0.0288 -0.0033  0.3762
62357W        W 5274  12.770  22.917  18.854  0.2783 -0.1426 -0.0684
62358W        W 5275  14.757  23.132  21.636  0.0978 -0.0292  0.2074
62359W        W 5276  12.555  24.333  23.169  0.0520 -0.1146  0.2114
62360W        W 5277  10.677  21.254  21.192  0.0563  0.0653 -0.1467
62361W        W 5278  10.643  24.630  23.440  0.1140  0.1894 -0.0901
62362W        W 5279  14.060  24.563  19.979  0.1841  0.0535  0.3832
62363W        W 5280  12.387  22.299  22.009 -0.2074  0.0044  0.0092
62364W        W 5281  13.625  22.585  20.388 -0.0042 -0.3881  0.1826
62365W        W 5282  11.596  24.863  17.466  0.2055 -0.0787  0.0698
62366W        W 5283  12.140  26.353  21.468  0.0329  0.0920  0.0572
62367W        W 5284  12.275  23.997  18.366  0.0652  0.2106  0.2110
62368W        W 5285  13.248  22.529  24.359  0.1919 -0.0212 -0.0361
62369W        W 5286  11.241  25.955  24.613  0.1764  0.1728  0.3759
62370W        W 5287  15.655  22.569  23.435  0.1749  0.1128  0.2726
62371W        W 5288  11.364  23.729  20.635  0.0864 -0.0045 -0.0983
62372W        W 5289  15.199  24.276  21.356 -0.0821  0.0278  0.1058
62373W        W 5290  12.766  25.314  22.405 -0.1221 -0.2766  0.0447
62374W        W 5291  13.767  25.474  24.610  0.0338 -0.0223 -0.3106
62375W        W 5292  13.416  25.883  22.464  0.1706  0.1299 -0.0491
62376W        W 5293  13.669  25.347  22.189  0.1495 -0.0214 -0.0035
62377W        W 5294   9.469  21.215  22.842  0.3573 -0.2457 -0.2710
62378W        W 5295  10.543  24.119  20.595  0.1315 -0.1154 -0.0227
62379W        W 5296  11.717  24.715  19.196  0.0423  0.2843 -0.1822
62380W        W 5297  12.137  23.469  21.886 -0.2017  0.0869 -0.0453
62381W        W 5298  11.799  22.658  20.308 -0.0793  0.1652 -0.0275
62382W        W 5299  12.820  23.371  20.536  0.1786 -0.0436  0.0472
62383W        W 5300  12.907  26.543  21.413 -0.0310  0.1942  0.1113
62384W        W 5301  12.753  24.865  20.580 -0.0334  0.0269 -0.3675
62385W        W 5302  11.606  26.342  26.465  0.0754  0.0720  0.2228
62386W        W 5303  10.659  22.869  23.159 -0.4240 -0.3032 -0.2659
62387W        W 5304  14.000  22.440  23.878 -0.0441  0.0948 -0.1105
62388W        W 5305  13.864  23.597  24.256  0.3159 -0.0695  0.0850
62389W        W 5306  10.767  21.395  24.934  0.1855 -0.0870 -0.1369
62390W        W 5307  13.721  26.566  25.782 -0.1079  0.1400 -0.0588
62391W        W 5308  12.252  21.325  24.731  0.2072 -0.0331  0.2209
62392W        W 5309  12.530  23.320  22.177  0.1307 -0.2497 -0.1081
62393W        W 5310  14.032  23.391  25.822  0.0925 -0.0130 -0.1347
62394W        W 5311  13.912  22.549  22.244  0.0521 -0.0985  0.0063
62395W        W 5312  13.482  23.177  25.947  0.1420 -0.1885  0.1012
62396W        W 5313  10.271  23.062  26.256 -0.1763  0.0736 -0.3227
62397W        W 5314  10.641  21.749  22.924 -0.0211 -0.0198 -0.3778
62398W        W 5315  11.950  22.069  24.051 -0.0066 -0.0889  0.2780
62399W        W 5316  12.059  22.411  24.459  0.0998  0.1043 -0.0326
62400W        W 5317  10.330  24.015  22.830 -0.0585  0.0128  0.0047
62401W        W 5318  11.538  23.425  26.991 -0.3461  0.1413  0.1932
62402W        W 5319  14.377  24.246  25.559 -0.1147 -0.2706 -0.2531
62403W        W 5320  12.190  25.030  23.505  0.0080  0.1325 -0.0598
62404W        W 5321  12.388  21.287  25.290  0.1515 -0.1118  0.1536
62405W        W 5322  12.456  22.540  24.806  0.0354 -0.1184  0.2488
62406W        W 5323  11.396  25.064  24.442 -0.1981  0.1149  0.2395
62407W        W 5324   9.139  24.202  22.648 -0.3568  0.0730  0.0706
62408W        W 5325  10.389  21.189  25.382 -0.1141 -0.1974  0.1340
62409W        W 5326  12.161  22.119  25.659  0.2391  0.1711 -0.3094
62410W        W 5327  13.332  23.855  26.438 -0.0711  0.3704 -0.1558
62411W        W 5328  14.149  22.891  24.275  0.1353  0.1514  0.0075
62412W        W 5329  14.753  25.145  24.986 -0.0713  0.0068 -0.0904
62413W        W 5330  13.059  25.725  25.185 -0.0993  0.3594 -0.5161
62414W        W 5331  14.572  22.140  26.296  0.3026 -0.0970  0.2487
62415W        W 5332  11.432  24.127  24.003 -0.0227  0.2810  0.1164
62416W        W 5333  11.312  25.396  24.921  0.1035  0.0340 -0.2201
62417W        W 5334  12.183  24.772  24.948 -0.0330  0.1339  0.1452
62418W        W 5335  13.147  26.650  24.895 -0.3893  0.0833  0.0726
62419W        W 5336  13.495  24.712  26.186 -0.0699  0.0049 -0.0661
62420W        W 5337  15.660  23.818  24.661 -0.1036 -0.2261  0.1241
62421W        W 5338  11.679  23.665  23.183  0.0199 -0.0648  0.3030
62422W        W 5339  12.064  25.200  26.863  0.2308 -0.1958  0.0368
62423W        W 5340  10.829  24.945  26.473  0.1167 -0.0283  0.3181
62424W        W 5341  14.007  24.125  24.016 -0.0758  0.2043  0.0726
62425W        W 5342  11.954  24.245  24.113  0.2303 -0.0812  0.3361
62426W        W 5343  11.576  22.538  22.873  0.1157  0.1383  0.1865
62427W        W 5344  12.489  23.747  23.970 -0.1436  0.1159 -0.2535
62428W        W 5345  11.360  23.456  24.703  0.1067  0.0851  0.2468
62429W        W 5346  10.615  24.188  24.620  0.1079 -0.2858  0.0324
62430W        W 5347  15.073  20.553  27.225 -0.1289  0.1661 -0.1192
62431W        W 5348  11.918  24.702  25.427 -0.0808  0.2007  0.1401
62432W        W 5349  13.395  24.295  22.363 -0.1290 -0.0178 -0.3350
62433W        W 5350  13.308  22.580  22.222  0.0296  0.0292  0.0336
62434W        W 5351  13.882  21.873  23.970  0.2326  0.4504  0.0742
62435W        W 5352  12.559  21.284  23.970 -0.1201 -0.0366 -0.4255
62436W        W 5353  11.830  25.120  24.097 -0.1868  0.0319  0.0198
62437W        W 5354  12.581  20.044  23.992  0.3056  0.0020 -0.1961
62438W        W 5355  13.990  24.622  26.237  0.1178  0.2672  0.0186
62439W        W 5356  11.255  24.714  23.683  0.0691 -0.1090 -0.1407
62440W        W 5357  13.546  24.196  26.035  0.3254  0.1844 -0.1739
62441W        W 5358  11.334  26.314  26.073 -0.1073 -0.0043 -0.0174
62442W        W 5359   9.670  22.646  26.589 -0.3216  0.2272 -0.3018
62443W        W 5360  13.034  24.051  22.118 -0.0568 -0.0648 -0.2931
62444W        W 5361  14.924  26.529  23.369  0.0219 -0.0291 -0.1112
62445W        W 5362  13.062  23.501  23.937  0.2699  0.0829 -0.1135
62446W        W 5363  11.645  23.210  23.495 -0.1426  0.1248 -0.0001
62447W        W 5364  11.307  25.696  27.086 -0.3442 -0.0897 -0.3232
62448W        W 5365  11.848  21.563  25.882 -0.1381  0.0028 -0.0075
62449W        W 5366   9.679  21.892  24.715 -0.2475 -0.0677 -0.1257
62450W        W 5367  15.340  22.768  26.366 -0.0784  0.0357 -0.2146
62451W        W 5368  11.846  26.307  28.329 -0.3247 -0.1667 -0.3997
62452W        W 5369  14.495  21.698  21.738  0.0921 -0.1052 -0.0186
62453W        W 5370  14.240  24.659  22.702  0.0971 -0.0539 -0.3313
62454W        W 5371  16.405  24.807  25.073  0.1230  0.0487  0.1508
62455W        W 5372  11.619  25.681  23.784  0.0674  0.1521  0.1925
62456W        W 5373  12.146  22.469  23.937  0.1451 -0.4326  0.3898
62457W        W 5374  13.703  21.023  25.190  0.0408  0.3578  0.1035
62458W        W 5375  11.368  25.309  24.021 -0.2397  0.3777  0.3914
62459W        W 5376  13.184  24.389  23.987 -0.2807  0.1066  0.1761
62460W        W 5377  14.633  24.667  25.242 -0.0741 -0.1657  0.2707
62461W        W 5378  13.931  21.619  21.491  0.2100 -0.0196  0.1867
62462W        W 5379  11.114  24.433  24.370  0.1738  0.0686 -0.1582
62463W        W 5380  12.075  23.311  25.181  0.0821 -0.0765  0.0782
62464W        W 5381  12.850  24.900  26.905 -0.1234  0.0662  0.0093
62465W        W 5382  10.472  25.689  23.406 -0.1715  0.1146  0.2395
62466W        W 5383  10.558  22.925  24.768 -0.0235 -0.0257 -0.1704
62467W        W 5384  12.426  24.197  24.229  0.1003 -0.2238  0.0797
62468W        W 5385  10.295  21.782  25.668  0.0369  0.1135  0.3229
62469W        W 5386  11.752  25.035  23.088  0.0111 -0.0931  0.2588
62470W        W 5387  12.981  21.813  23.008  0.0661  0.2155 -0.2639
62471W        W 5388  10.948  22.523  25.614  0.0400  0.1375  0.0755
62472W        W 5389  13.593  22.812  24.058 -0.0565 -0.3039  0.1947
62473W        W 5390   9.350  25.518  24.691  0.0277 -0.2046  0.0816
62474W        W 5391  13.989  23.949  23.255 -0.2969 -0.2829  0.0960
62475W        W 5392  14.169  23.492  25.037 -0.1344  0.2358  0.1718
62476W        W 5393  12.978  25.617  23.486 -0.0242  0.1647 -0.0346
62477W        W 5394  11.717  24.046  25.894  0.1386 -0.0853  0.3472
62478W        W 5395   9.959  22.597  25.274 -0.1477 -0.3916 -0.0483
62479W        W 5396  12.845  22.889  27.550 -0.2094 -0.1479 -0.0591
62480W        W 5397  12.804  20.621  25.918  0.2283  0.0914  0.0569
62481W        W 5398  13.877  22.336  26.502  0.0762 -0.0616 -0.0201
62482W        W 5399  11.507  22.670  23.352 -0.3192  0.2138 -0.2899
62483W        W 5400  13.755  22.549  24.514  0.1401  0.1747 -0.1540
62484W        W 5401  14.059  22.811  22.708  0.0468 -0.1148 -0.2024
62485W        W 5402  11.512  22.856  23.849  0.0797 -0.0142 -0.0602
62486W        W 5403  13.943  21.647  25.575 -0.3486 -0.2815 -0.0086
62487W        W 5404  11.077  26.650  26.462 -0.2668 -0.1510  0.0577
62488W        W 5405  14.660  25.236  26.860 -0.3074  0.0850 -0.1413
62489W        W 5406  14.090  26.686  25.452 -0.0093  0.1051  0.0246
62490W        W 5407  11.389  22.297  25.346 -0.0090  0.0995  0.0396
62491W        W 5408  11.596  21.336  23.498 -0.1449  0.1248  0.1071
62492W        W 5409  10.792  24.190  25.650 -0.0590  0.0921 -0.0430
62493W        W 5410  13.632  23.519  25.589 -0.0743  0.1443 -0.3375
62494W        W 5411  11.327  22.783  25.366  0.2103  0.2073  0.0588
62495W        W 5412  15.123  25.393  24.820  0.1291  0.0829 -0.1900
62496W        W 5413  11.445  23.989  25.030 -0.0536 -0.3162  0.0677
62497W        W 5414  12.087  24.481  27.409 -0.0964 -0.0347 -0.1381
62498W        W 5415  13.181  20.697  25.104  0.0733  0.1804 -0.1018
62499W        W 5416  13.250  23.170  24.869  0.2629  0.3532  0.3596
62500W        W 5417  14.025  22.906  23.680 -0.0239 -0.0072 -0.0771
62501W        W 5418  11.126  24.412  24.847  0.1257 -0.1999 -0.2608
62502W        W 5419  13.697  23.633  24.826  0.1282  0.1602 -0.1889
62503W        W 5420  11.641  24.606  23.280  0.1341 -0.5211 -0.1687
62504W        W 5421  10.212  22.431  27.576 -0.3416 -0.2462 -0.0924
62505W        W 5422  12.353  24.625  23.943 -0.4363 -0.3769  0.0815
62506W        W 5423  14.789  24.143  25.918  0.0332  0.1045  0.0501
62507W        W 5424  10.136  22.608  26.359 -0.2679 -0.1925 -0.0368
62508W        W 5425  15.202  21.810  26.610  0.2148  0.3497 -0.0182
62509W        W 5426   9.747  23.079  24.410 -0.0394 -0.1054 -0.1128
62510W        W 5427  12.695  25.562  25.488  0.1424  0.0402  0.1148
62511W        W 5428  12.064  21.480  23.763  0.0744 -0.1724  0.0176
62512W        W 5429  14.462  22.303  21.521 -0.2636 -0.0880  0.0239
62513W        W 5430  12.268  23.974  25.047 -0.0739  0.3124  0.1955
62514W        W 5431  13.823  22.357  25.083 -0.1959 -0.0344  0.1260
62515W        W 5432  11.707  23.808  24.291 -0.2029  0.1890 -0.0958
62516W        W 5433  11.562  21.539  21.614 -0.1022 -0.0398 -0.1658
62517W        W 5434  11.493  26.466  29.460  0.1217 -0.0571 -0.0352
62518W        W 5435  13.200  23.491  23.491  0.0031 -0.0265 -0.2018
62519W        W 5436  13.199  24.836  24.248  0.3022 -0.1046 -0.0354
62520W        W 5437  11.198  21.657  23.489  0.0166 -0.0810 -0.2328
62521W        W 5438  14.162  24.450  24.415  0.0469  0.2869  0.0629
62522W        W 5439  10.633  22.472  24.532 -0.0961 -0.4096  0.0535
62523W        W 5440  13.391  24.909  27.765 -0.0047  0.0553  0.1423
62524W        W 5441  13.381  23.556  24.344  0.3089  0.0413 -0.0287
62525W        W 5442  13.409  21.672  23.901  0.2544 -0.2338  0.3267
62526W        W 5443  11.768  23.880  22.683 -0.4849  0.1211 -0.2380
62527W        W 5444  13.033  21.764  24.789 -0.0374  0.3013 -0.1000
62528W        W 5445  10.820  25.712  24.827 -0.1563 -0.0255 -0.0357
62529W        W 5446  11.667  21.910  25.576  0.0435 -0.1971  0.0168
62530W        W 5447  13.558  23.951  25.284 -0.0451 -0.0118 -0.2513
62531W        W 5448  12.849  21.947  25.237 -0.2148  0.4694 -0.0932
62532W        W 5449  15.040  22.266  24.973  0.1786 -0.2530 -0.0377
62533W        W 5450  14.427  24.127  22.950  0.0152  0.0821  0.0001
62534W        W 5451  12.984  23.989  24.353  0.0357 -0.5264  0.3760
62535W        W 5452  12.997  22.036  24.219 -0.0343 -0.1000  0.0336
62536W        W 5453  12.441  22.171  25.153  0.0167  0.3598 -0.3939
62537W        W 5454  10.889  25.854  27.982  0.0772 -0.1780 -0.2035
62538W        W 5455  12.134  26.082  27.146 -0.0067 -0.2209 -0.2164
62539W        W 5456  12.040  23.933  26.360 -0.2274  0.2480 -0.0039
62540W        W 5457  14.542  24.267  24.660  0.1950  0.2085 -0.1823
62541W        W 5458  12.297  21.380  25.900 -0.1216  0.0630  0.1162
62542W        W 5459  12.281  22.932  24.493 -0.1143  0.2965 -0.1774
62543W        W 5460  10.863  26.785  25.520  0.0706 -0.1501 -0.2457
62544W        W 5461  11.922  24.974  24.625 -0.1873  0.1685  0.0955
62545W        W 5462  13.674  22.011  23.173  0.0288  0.0240 -0.1072
62546W        W 5463  10.292  24.192  25.392 -0.0424 -0.3303  0.0355
62547W        W 5464  11.555  26.515  23.287  0.0730  0.1155  0.2010
62548W        W 5465  14.895  22.813  26.644  0.1070  0.2706  0.3454
62549W        W 5466  11.819  23.541  24.774  0.5100 -0.6237  0.3687
62550W        W 5467  12.274  20.076  23.543  0.2885 -0.2593 -0.0375
62551W        W 5468  12.506  25.118  27.147 -0.0741  0.0920 -0.1384
62552W        W 5469  11.039  22.443  25.005  0.1157  0.2891  0.0056
62553W        W 5470  12.001  23.758  23.906  0.0971 -0.1862  0.0183
62554W        W 5471  13.823  22.092  21.440 -0.1135 -0.0431  0.2473
62555W        W 5472  14.649  23.032  24.301 -0.0653 -0.0754 -0.0162
62556W        W 5473  13.282  21.550  25.923 -0.2121 -0.2294  0.0959
62557W        W 5474  13.227  23.706  25.023  0.4000 -0.0107  0.1832
62558W        W 5475  12.897  25.401  26.166 -0.0538 -0.0281 -0.4480
62559W        W 5476  14.458  24.218  26.557 -0.2303  0.2358 -0.2713
62560W        W 5477  13.231  21.230  25.126 -0.2804 -0.1874 -0.1587
62561W        W 5478  12.288  25.599  25.141 -0.1749 -0.2646 -0.4786
62562W        W 5479  11.049  23.097  27.200  0.2958 -0.2450  0.0235
62563W        W 5480  11.569  23.079  23.034 -0.1700  0.0699  0.2183
62564W        W 5481  14.566  24.615  26.329 -0.2121 -0.0327  0.3044
62565W        W 5482  12.807  22.546  25.226  0.1312 -0.5416  0.0194
62566W        W 5483  11.678  25.844  26.247  0.0506  0.1614  0.1434
62567W        W 5484  13.233  25.842  26.730  0.0254  0.1200 -0.2470
62568W        W 5485  12.590  23.315  24.208  0.1501  0.1181 -0.4104
62569W        W 5486  10.792  25.848  26.961 -0.0382 -0.1720 -0.1485
62570W        W 5487  10.982  24.708  25.756 -0.2051  0.0905  0.0164
62571W        W 5488  13.658  23.229  27.008  0.1795  0.0784  0.0217
62572W        W 5489  13.310  22.395  25.057 -0.1896 -0.0517  0.0019
62573W        W 5490  12.155  23.288  23.736 -0.0796  0.3985  0.0096
62574W        W 5491  12.739  23.993  24.792 -0.3406  0.1011  0.2579
62575W        W 5492  11.216  24.645  26.286  0.1012  0.2093  0.3530
62576W        W 5493  13.865  21.869  24.639  0.1641 -0.5358 -0.0498
62577W        W 5494  13.393  24.320  27.532 -0.2290  0.1616  0.0195
62578W        W 5495  13.772  23.292  23.495  0.0209  0.1757 -0.1610
62579W        W 5496  13.522  25.677  23.364  0.3128 -0.0493 -0.1182
62580W        W 5497  13.992  22.845  24.902 -0.0164  0.0413 -0.1451
62581W        W 5498  11.475  26.409  24.912  0.0252  0.2303 -0.1374
62582W        W 5499  12.052  24.226  25.500 -0.0815  0.1460  0.2506
62583W        W 5500  11.739  25.742  25.683  0.1772  0.3196  0.2095
62584W        W 5501  12.970  22.613  26.530 -0.2312  0.1165 -0.1409
62585W        W 5502  11.084  22.962  24.822 -0.0690 -0.2278 -0.0262
62586W        W 5503  12.340  24.620  25.737 -0.3388  0.2142 -0.1741
62587W        W 5504  12.951  24.031  26.122 -0.0002 -0.0736 -0.0485
62588W        W 5505  13.219  21.533  21.986 -0.1862 -0.1631  0.0458
62589W        W 5506  12.897  24.229  22.624 -0.1012 -0.4499 -0.1271
62590W        W 5507  12.675  21.581  24.477  0.2603 -0.0893 -0.1447
62591W        W 5508  17.073  20.765  24.837  0.0792 -0.4598 -0.3523
62592W        W 5509  12.764  24.741  25.479  0.2535  0.3054  0.1374
62593W        W 5510  14.445  20.356  27.764 -0.1318 -0.2262  0.1966
62594W        W 5511  12.665  19.936  23.242  0.1664  0.1705  0.0911
62595W        W 5512  12.738  26.589  26.118 -0.2129  0.0572 -0.1972
62596W        W 5513  11.229  23.290  23.825  0.1580 -0.0507  0.2129
62597W        W 5514  14.187  23.122  25.387 -0.1095 -0.0188 -0.0614
62598W        W 5515  12.103  23.433  24.284 -0.1711  0.3097  0.0960
62599W        W 5516  14.386  21.262  24.410 -0.0962 -0.0175  0.5096
62600W        W 5517  13.155  23.977  23.640 -0.0463 -0.0788 -0.0003
62601W        W 5518  10.799  22.791  25.222  0.1694  0.0772  0.0812
62602W        W 5519  15.296  23.767  23.483 -0.0233 -0.0356 -0.1075
62603W        W 5520  10.885  24.620  22.789  0.1037 -0.0787 -0.0289
62604W        W 5521  14.314  23.346  24.429 -0.3326 -0.1708  0.2925
62605W        W 5522  10.774  23.795  26.041  0.0751 -0.2777  0.2392
62606W        W 5523  13.367  22.103  24.651 -0.1998  0.1686 -0.0533
62607W        W 5524  11.639  25.023  21.532 -0.3352 -0.2035  0.0072
62608W        W 5525  13.158  24.496  24.647  0.0173  0.2394 -0.2043
62609W        W 5526  12.151  20.629  25.400  0.0601  0.2654  0.2824
62610W        W 5527  14.087  25.448  26.233  0.0493  0.2841 -0.0362
62611W        W 5528  12.982  20.382  23.811 -0.0423  0.0682 -0.2269
62612W        W 5529  13.848  21.176  21.290 -0.0241  0.0910 -0.2600
62613W        W 5530  13.812  24.356  25.458 -0.0234  0.1079  0.0721
62614W        W 5531  12.035  21.710  25.162 -0.2868 -0.1058  0.0394
62615W        W 5532   9.620  22.404  27.193  0.4036 -0.0414  0.2109
62616W        W 5533  13.851  25.823  27.172 -0.1793 -0.1925 -0.0854
62617W        W 5534  14.223  22.147  22.393 -0.0519 -0.2641 -0.3917
62618W        W 5535  14.866  20.747  25.792  0.1631  0.0493  0.0745
62619W        W 5536  14.585  22.466  24.189 -0.1866 -0.3416 -0.0722
62620W        W 5537  14.162  23.308  23.986  0.1582 -0.2352  0.0462
62621W        W 5538  10.028  22.119  25.318  0.4248 -0.0457  0.2352
62622W        W 5539  14.827  21.319  26.981 -0.3834 -0.1122  0.1491
62623W        W 5540  12.045  23.122  23.217 -0.1688 -0.2700  0.1838
62624W        W 5541  13.032  23.878  25.624 -0.0765  0.0585  0.1212
62625W        W 5542  12.781  25.258  22.922 -0.1949  0.2171 -0.0543
62626W        W 5543  11.354  23.549  25.196  0.2471  0.1442  0.1121
62627W        W 5544  14.225  22.612  25.398 -0.0679  0.1935 -0.2207
62628W        W 5545  10.093  25.120  25.006 -0.0389  0.0964  0.0744
62629W        W 5546  13.386  25.172  26.010  0.3594 -0.0123 -0.1643
62630W        W 5547  10.760  24.019  22.555  0.1326  0.1153  0.0644
62631W        W 5548  12.653  23.319  23.670 -0.0042  0.2445 -0.0488
62632W        W 5549  10.090  23.459  24.928 -0.4477  0.1920 -0.0451
62633W        W 5550  13.944  22.413  26.982  0.1815  0.1157  0.3551
62634W        W 5551  13.161  22.813  25.557 -0.1562  0.2595  0.0461
62635W        W 5552  15.267  22.660  27.523 -0.1279 -0.1968  0.1244
62636W        W 5553  12.129  25.407  25.550 -0.2820  0.2693  0.1965
62637W        W 5554  13.752  22.521  23.287  0.2281  0.1452  0.1666
62638W        W 5555  12.414  25.581  26.978 -0.0220  0.4190 -0.2368
62639W        W 5556  11.442  23.864  27.826  0.0204  0.0303 -0.1039
62640W        W 5557  12.368  25.247  24.824  0.0271 -0.0268 -0.2660
62641W        W 5558  12.744  23.499  25.120 -0.1614 -0.3730  0.2118
62642W        W 5559  15.036  23.146  25.045 -0.0608 -0.0078  0.2161
62643W        W 5560  12.106  23.608  25.727  0.1864 -0.2633 -0.1329
62644W        W 5561  15.972  23.287  24.759 -0.0716 -0.1100 -0.2042
62645W        W 5562  13.456  24.391  25.065 -0.1710 -0.2179  0.0283
62646W        W 5563  10.465  23.596  25.277  0.1813  0.0321 -0.0995
62647W        W 5564  15.021  24.708  26.131 -0.2651  0.0554 -0.1975
62648W        W 5565  16.043  22.308  23.271 -0.1033 -0.2235 -0.0487
62649W        W 5566  11.123  23.948  24.635  0.1245  0.0956  0.0052
62650W        W 5567  10.846  21.982  24.277 -0.1035 -0.3327  0.1566
62651W        W 5568  12.337  23.496  24.775 -0.1015 -0.0764 -0.0462
62652W        W 5569  13.568  23.322  23.927  0.0040 -0.0237 -0.1584
62653W        W 5570   9.613  22.490  23.557  0.2131 -0.2097 -0.1139
62654W        W 5571  11.842  24.243  22.293 -0.1427  0.1068 -0.1309
62655W        W 5572  12.978  24.865  27.532  0.1579 -0.1139 -0.2421
62656W        W 5573  11.227  24.887  27.332 -0.3939 -0.0667  0.2123
62657W        W 5574  10.258  26.546  25.018 -0.0622 -0.0604  0.1514
62658W        W 5575  10.729  25.257  23.369 -0.0365 -0.0035 -0.0090
62659W        W 5576  13.750  25.244  25.038 -0.1260  0.0826 -0.3440
62660W        W 5577  12.579  23.664  25.986 -0.0043 -0.1008  0.2566
62661W        W 5578  13.235  23.112  22.805  0.4252 -0.1175  0.0732
62662W        W 5579  10.366  22.473  25.043 -0.0829 -0.0765 -0.0792
62663W        W 5580   9.792  24.601  24.209  0.0946 -0.0692  0.0221
62664W        W 5581  11.541  24.254  24.599 -0.1417 -0.2819  0.2755
62665W        W 5582  11.973  24.469  25.995  0.2256 -0.2985 -0.3140
62666W        W 5583  12.986  24.174  25.251 -0.2903  0.1217  0.0882
62667W        W 5584  13.574  22.523  21.365 -0.0622  0.1302 -0.0264
62668W        W 5585  13.204  22.480  23.838  0.0044 -0.0114  0.2940
62669W        W 5586  15.143  23.095  22.012 -0.0666 -0.0175  0.0356
62670W        W 5587  11.762  23.128  24.544  0.1896  0.1824 -0.2792
62671W        W 5588  11.112  22.746  26.034 -0.0864 -0.3046 -0.0199
62672W        W 5589  12.646  21.939  20.906 -0.0041 -0.1275 -0.2268
62673W        W 5590  10.701  24.320  25.096 -0.1388  0.1064 -0.2236
62674W        W 5591  13.988  21.461  27.343  0.1215 -0.4889 -0.0029
62675W        W 5592  12.164  25.810  25.969 -0.3798 -0.0231 -0.1965
62676W        W 5593  13.772  25.978  24.589 -0.0343 -0.1083 -0.1286
62677W        W 5594  10.637  23.100  22.625  0.1525 -0.0785 -0.0280
62678W        W 5595  10.667  24.694  24.673  0.0557 -0.4037  0.1411
62679W        W 5596  15.017  21.157  26.018 -0.0378  0.3169 -0.3258
62680W        W 5597  12.630  23.837  22.928  0.0110  0.0638  0.1483
62681W        W 5598  13.565  23.661  23.181  0.0392 -0.0811 -0.1563
62682W        W 5599  11.464  22.425  21.777 -0.1391  0.0094  0.3157
62683W        W 5600  12.263  24.077  25.919  0.0368 -0.3401  0.1557
62684W        W 5601  14.328  24.912  27.163  0.0519 -0.0286  0.0415
62685W        W 5602  11.341  21.575  24.377 -0.4107  0.0390  0.0616
62686W        W 5603  15.816  22.638  27.673 -0.0396 -0.0413  0.2085
62687W        W 5604  12.110  22.024  27.191 -0.1315  0.1834 -0.2251
62688W        W 5605  14.275  23.826  26.363  0.2529  0.2350  0.0954
62689W        W 5606  10.642  22.947  24.239  0.0416  0.2707  0.2245
62690W        W 5607  15.060  20.690  23.879 -0.0668  0.0559  0.2404
62691W        W 5608  11.586  24.301  25.406 -0.0761  0.1568 -0.3238
62692W        W 5609  10.816  22.600  26.484 -0.1354 -0.1190  0.0522
62693W        W 5610  12.824  22.591  23.436 -0.1246  0.0806  0.0457
62694W        W 5611  11.329  23.789  25.665  0.0837  0.3853  0.2636
62695W        W 5612  12.478  22.918  23.971 -0.1755 -0.0334  0.0598
62696W        W 5613  15.371  23.429  26.569 -0.1839  0.1404 -0.3292
62697W        W 5614  10.280  23.210  24.467  0.3897  0.0399  0.2790
62698W        W 5615  14.708  22.272  22.565  0.1994 -0.0786  0.4635
62699W        W 5616  10.910  26.016  24.217  0.0521 -0.4319  0.0584
62700W        W 5617  11.659  23.362  25.533 -0.1204 -0.0260 -0.1107
62701W        W 5618  13.311  25.741  24.621  0.1978 -0.0034  0.0573
62702W        W 5619  11.800  20.402  24.553  0.0866 -0.1613 -0.1174
62703W        W 5620  13.477  24.332  21.156 -0.1176 -0.2814 -0.1365
62704W        W 5621  13.625  23.401  22.721  0.1258 -0.2620 -0.1347
62705W        W 5622  11.243  23.682  24.147 -0.0406 -0.0289 -0.1333
62706W        W 5623  14.155  24.692  25.474 -0.1577  0.1190 -0.2764
62707W        W 5624  12.107  24.443  26.550 -0.0561 -0.0595  0.2197
62708W        W 5625  10.492  21.780  26.202  0.0285  0.1723 -0.0072
62709W        W 5626  14.297  23.825  24.638  0.1386 -0.0499 -0.0465
62710W        W 5627  14.168  25.014  26.464  0.0010 -0.0840  0.2987
62711W        W 5628  11.385  21.923  24.049 -0.1020 -0.1971 -0.0545
62712W        W 5629   9.905  23.924  24.616 -0.2311  0.0764 -0.0831
62713W        W 5630  11.679  27.558  22.901  0.2963 -0.0329 -0.2065
62714W        W 5631  14.906  22.447  23.678 -0.1899  0.1727  0.0651
62715W        W 5632  15.520  21.955  24.375 -0.1002 -0.1329  0.0437
62716W        W 5633  12.354  24.262  22.641 -0.0255 -0.1350  0.0612
62717W        W 5634  15.574  21.040  25.263 -0.3858 -0.1301  0.3824
62718W        W 5635  11.267  24.243  25.882 -0.0817  0.0009 -0.0925
62719W        W 5636  12.762  23.352  25.638  0.2822 -0.2173 -0.1355
62720W        W 5637  11.126  24.523  23.218 -0.1338  0.1394 -0.1336
62721W        W 5638  11.141  24.501  25.335 -0.0135 -0.3109  0.0995
62722W        W 5639  11.086  24.950  24.948  0.1784 -0.1434  0.0119
62723W        W 5640  12.108  23.615  22.909  0.2414  0.1984 -0.1113
62724W        W 5641  14.020  24.931  24.694 -0.2557 -0.2745  0.1158
62725W        W 5642  11.139  21.093  24.663  0.1385 -0.1138  0.1344
62726W        W 5643  14.780  23.432  24.673 -0.0573 -0.0901  0.1284
62727W        W 5644  11.170  24.064  23.435 -0.2328  0.0357 -0.0976
62728W        W 5645  16.483  23.052  22.724  0.2680 -0.0334  0.3428
62729W        W 5646  13.044  21.215  24.536 -0.0930  0.0474 -0.0164
62730W        W 5647  12.566  24.063  26.438 -0.4738 -0.0433  0.1779
62731W        W 5648   9.782  23.873  25.121  0.3657 -0.0433  0.1308
62732W        W 5649  11.587  21.408  24.004  0.1256  0.0731  0.3222
62733W        W 5650   8.485  23.855  25.265 -0.0799  0.1274 -0.5477
62734W        W 5651  12.338  23.005  26.124  0.0885  0.2057 -0.1343
62735W        W 5652  10.876  21.816  27.810 -0.0968  0.2139 -0.0627
62736W        W 5653  12.081  21.938  22.309  0.0614  0.0561  0.2712
62737W        W 5654  12.950  22.628  22.673  0.0743  0.0852  0.0024
62738W        W 5655  12.939  25.825  22.524 -0.0034 -0.1934 -0.0007
62739W        W 5656  10.453  19.627  24.819  0.1723 -0.0207  0.0199
62740W        W 5657  12.216  21.557  24.301  0.2535 -0.0899  0.1845
62741W        W 5658  13.252  25.225  25.020 -0.3145  0.0886 -0.2437
62742W        W 5659  14.067  23.774  25.418 -0.1150 -0.3553 -0.0957
62743W        W 5660  11.912  22.197  22.732 -0.2483 -0.3044  0.0150
62744W        W 5661  14.992  23.400  27.829 -0.0035 -0.1426 -0.0983
62745W        W 5662  11.182  23.024  23.359 -0.0261 -0.0176  0.2653
62746W        W 5663  10.923  22.915  23.770 -0.0825  0.2295 -0.0208
62747W        W 5664  12.442  22.601  26.399 -0.1676 -0.1484  0.0412
62748W        W 5665   9.571  22.735  24.953 -0.3190 -0.2787 -0.2692
62749W        W 5666  13.151  23.032  24.321 -0.0817 -0.2357  0.0050
62750W        W 5667  15.766  23.862  25.702 -0.3834  0.0225 -0.3368
62751W        W 5668  12.640  25.703  22.954  0.0752  0.0271 -0.2451
62752W        W 5669  12.078  25.025  25.853 -0.1533 -0.2665  0.1698
62753W        W 5670  11.295  24.757  26.788  0.3900 -0.1611 -0.3312
62754W        W 5671  13.587  22.063  25.694  0.1892  0.0186 -0.2246
62755W        W 5672  15.610  21.434  22.793 -0.1457 -0.1005  0.2096
62756W        W 5673  11.603  22.835  26.776  0.0709 -0.1471 -0.0563
62757W        W 5674  13.643  24.472  24.221 -0.4031 -0.1347  0.3615
62758W        W 5675  14.723  20.794  24.473  0.2577 -0.0824 -0.0781
62759W        W 5676  14.360  21.928  22.797  0.0411 -0.1813  0.1092
62760W        W 5677  12.462  21.973  26.108 -0.3026  0.0057 -0.0975
62761W        W 5678  11.919  24.318  25.043 -0.1027 -0.0151  0.3486
62762W        W 5679  15.070  22.831  27.074  0.2578  0.2149  0.0055
62763W        W 5680  11.867  20.332  25.086 -0.1576 -0.4712 -0.2161
62764W        W 5681  13.716  24.729  22.866  0.1334 -0.1124 -0.1677
62765W        W 5682  13.267  24.442  22.865  0.1210 -0.2342  0.0785
62766W        W 5683  11.506  23.072  25.027 -0.0263 -0.2762 -0.1794
62767W        W 5684  12.324  24.834  22.956  0.0168  0.3244 -0.2426
62768W        W 5685  13.570  24.820  25.701 -0.0411  0.2626  0.0520
62769W        W 5686  11.925  25.486  24.753 -0.1713  0.3052  0.1066
62770W        W 5687  11.773  23.790  25.322  0.1281  0.1317 -0.3536
62771W        W 5688  12.291  23.245  22.664  0.1902  0.0981  0.2325
62772W        W 5689  12.377  25.991  24.196  0.3004 -0.1526 -0.1657
62773W        W 5690  12.976  26.071  25.769  0.1563  0.1077 -0.1944
62774W        W 5691  14.842  24.348  27.431  0.2923  0.3467 -0.2709
62775W        W 5692  11.787  26.218  25.929  0.3440  0.2377  0.4740
62776W        W 5693  14.369  22.584  24.631  0.3479 -0.2350  0.2791
62777W        W 5694  12.894  20.173  25.078  0.0164 -0.3567  0.1004
62778W        W 5695  12.839  22.476  22.178 -0.0805  0.1505 -0.0498
62779W        W 5696  12.085  25.929  23.685 -0.0176  0.0482  0.0173
62780W        W 5697  12.842  22.445  26.062 -0.1140 -0.3161  0.0795
62781W        W 5698  12.349  22.547  23.020 -0.1932 -0.2749  0.3336
62782W        W 5699  12.479  22.086  24.326 -0.1847 -0.0357  0.1488
62783W        W 5700  14.530  26.743  24.508 -0.0762  0.1178  0.0240
62784W        W 5701  15.641  23.615  26.159 -0.2018 -0.1312 -0.3448
62785W        W 5702  14.258  21.741  29.408  0.0373  0.2020  0.1443
62786W        W 5703  12.695  22.418  27.482 -0.1617 -0.1148 -0.0305
62787W        W 5704  13.345  24.332  25.548 -0.1813  0.0427  0.1553
62788W        W 5705  14.024  23.090  26.219  0.0881 -0.1630  0.2160
62789W        W 5706   9.749  22.960  26.257 -0.0617  0.1947  0.2253
62790W        W 5707  13.489  24.717  28.838  0.0423 -0.0192 -0.1498
62791W        W 5708  12.102  20.702  28.503 -0.2449  0.2563 -0.1796
62792W        W 5709  13.530  23.707  29.776 -0.2121  0.0926  0.0613
62793W        W 5710  13.822  25.284  30.415  0.1826 -0.1956 -0.0029
62794W        W 5711  14.021  25.569  25.300  0.0232  0.2029  0.0183
62795W        W 5712  13.314  23.002  28.366 -0.1660 -0.4835  0.3217
62796W        W 5713  12.787  23.625  29.000 -0.0835 -0.1142  0.0440
62797W        W 5714  12.751  20.286  26.706  0.0238  0.0805  0.4558
62798W        W 5715  11.901  21.342  29.348  0.0645 -0.1261  0.0235
62799W        W 5716  14.468  23.499  27.617  0.0081  0.3413  0.1664
62800W        W 5717  10.370  23.411  27.940  0.0349 -0.1072  0.2460
62801W        W 5718  12.482  22.667  27.932  0.2152 -0.0932 -0.0413
62802W        W 5719  12.876  23.641  26.422 -0.0172  0.3478 -0.1466
62803W        W 5720  12.158  26.989  29.569 -0.1122  0.2099 -0.2165
62804W        W 5721  12.723  23.451  30.124  0.2974 -0.1528  0.1933
62805W        W 5722  11.927  24.162  29.871  0.1490 -0.0734  0.1829
62806W        W 5723  13.270  24.192  28.283  0.3187  0.0751  0.1563
62807W        W 5724   9.533  23.178  25.695 -0.2250 -0.0930  0.0693
62808W        W 5725  12.349  22.545  28.372 -0.4120  0.0731 -0.1063
62809W        W 5726  13.357  22.399  28.390 -0.2796 -0.0138  0.1957
62810W        W 5727  13.901  22.499  29.271 -0.4448  0.1534  0.1401
62811W        W 5728  14.824  21.712  29.415 -0.3809 -0.1507 -0.3276
62812W        W 5729  11.981  24.244  29.361  0.0401 -0.0516  0.0223
62813W        W 5730  13.418  26.155  29.652  0.0346 -0.0794 -0.1093
62814W        W 5731  14.272  21.236  29.454 -0.0240 -0.0621  0.0657
62815W        W 5732  11.407  22.270  28.445 -0.1389 -0.2604 -0.1280
62816W        W 5733  10.768  25.327  27.868  0.1428  0.0356  0.1524
62817W        W 5734  14.434  24.755  28.961 -0.0493  0.1934 -0.3218
62818W        W 5735  13.255  22.621  27.493  0.0939 -0.1805  0.0611
62819W        W 5736  13.247  25.572  30.166  0.1765  0.0746  0.0591
62820W        W 5737  11.782  27.162  29.880 -0.0519 -0.1964  0.1631
62821W        W 5738  13.947  25.435  28.208 -0.0032 -0.2645 -0.1598
62822W        W 5739  14.746  26.273  31.230  0.4736  0.2545 -0.2317
62823W        W 5740  13.564  26.579  30.186  0.0706  0.0851 -0.1226
62824W        W 5741  13.650  24.132  28.746 -0.0333 -0.3918  0.1391
62825W        W 5742  12.144  21.724  27.938 -0.1805 -0.0690 -0.1241
62826W        W 5743  12.523  25.947  27.414 -0.1758  0.0327 -0.0212
62827W        W 5744  12.964  25.075  27.958 -0.0370  0.1652 -0.2402
62828W        W 5745  11.480  24.885  29.089  0.0496 -0.1634 -0.0594
62829W        W 5746   9.782  24.338  28.011  0.0900  0.2171 -0.1628
62830W        W 5747  15.306  22.563  31.603 -0.0214  0.1857 -0.0310
62831W        W 5748  11.394  26.182  27.942  0.1976  0.1304 -0.1835
62832W        W 5749  13.898  22.848  26.688 -0.0585  0.0234 -0.1370
62833W        W 5750  10.791  23.507  27.065 -0.1858  0.0849 -0.0773
62834W        W 5751  13.599  22.744  27.123 -0.0353  0.1571  0.1949
62835W        W 5752  12.365  24.267  27.754 -0.2812 -0.0065 -0.1800
62836W        W 5753  12.017  26.427  29.434  0.3191 -0.0432 -0.1624
62837W        W 5754  12.853  21.197  29.082 -0.1471 -0.0044 -0.3116
62838W        W 5755  14.109  23.330  29.153  0.0901  0.2403  0.0123
62839W        W 5756  12.709  23.110  26.468 -0.3716 -0.0112  0.2008
62840W        W 5757  13.564  21.638  30.396 -0.0520  0.1452  0.2901
62841W        W 5758  14.182  24.547  29.488  0.2228 -0.0390  0.0770
62842W        W 5759  10.636  23.643  29.392  0.1956 -0.0361 -0.0007
62843W        W 5760  12.519  23.785  25.516 -0.1022 -0.0228  0.0666
62844W        W 5761  12.346  23.035  28.488 -0.1176  0.2206 -0.1846
62845W        W 5762  12.272  25.639  26.467  0.1797 -0.0108 -0.0266
62846W        W 5763  11.897  22.705  24.921 -0.5006 -0.1388 -0.0806
62847W        W 5764  12.196  24.896  26.326  0.0243 -0.1635 -0.0012
62848W        W 5765  10.238  23.475  30.357 -0.1706  0.0628  0.2361
62849W        W 5766  12.742  21.154  26.736  0.0541 -0.3240 -0.2245
62850W        W 5767  12.893  24.541  29.640  0.1422  0.2843  0.2557
62851W        W 5768  10.166  23.897  28.291  0.1429 -0.0644  0.1894
62852W        W 5769  14.890  22.021  28.632 -0.1948 -0.1449  0.0061
62853W        W 5770  11.530  24.931  30.396  0.1896 -0.3754 -0.1863
62854W        W 5771  13.479  22.408  28.995  0.2338  0.1831 -0.0159
62855W        W 5772  14.452  22.697  26.920  0.3401  0.0556 -0.0459
62856W        W 5773  11.608  20.768  25.360 -0.1373  0.1710 -0.2737
62857W        W 5774  12.806  18.802  28.940 -0.1903  0.1467 -0.1285
62858W        W 5775  13.094  23.972  27.296  0.1289 -0.0579 -0.1873
62859W        W 5776  14.887  23.914  28.810 -0.1650  0.2314 -0.0138
62860W        W 5777  14.390  26.443  28.198 -0.0697 -0.2395 -0.3108
62861W        W 5778  15.077  21.964  27.502  0.2835  0.3684  0.0268
62862W        W 5779  11.713  24.519  30.108  0.2665  0.2499  0.1739
62863W        W 5780  14.466  23.114  29.439 -0.0843  0.2067 -0.1069
62864W        W 5781  13.121  25.779  31.603  0.2935  0.0904 -0.1119
62865W        W 5782  11.227  25.058  28.587 -0.1990  0.1494  0.2765
62866W        W 5783  13.846  22.638  28.372 -0.0005 -0.1761  0.1452
62867W        W 5784  10.514  24.753  28.672 -0.0630  0.1843 -0.2161
62868W        W 5785  10.176  24.171  29.781 -0.1097 -0.0482  0.1078
62869W        W 5786  11.796  24.430  30.715 -0.1747 -0.1553  0.0232
62870W        W 5787  12.230  22.040  26.678  0.0403  0.2105  0.2149
62871W        W 5788  13.060  19.800  29.581 -0.1252 -0.0842  0.0997
62872W        W 5789  15.429  20.864  27.996  0.1610 -0.2117 -0.5014
62873W        W 5790  12.288  23.897  27.390  0.2482  0.2964  0.1906
62874W        W 5791  14.604  24.772  27.551 -0.2212  0.1645  0.1848
62875W        W 5792  15.285  22.435  25.857  0.2430 -0.1979 -0.0868
62876W        W 5793  13.401  25.305  28.072  0.3013  0.1890  0.0726
62877W        W 5794  11.087  24.092  28.570 -0.3321 -0.1889  0.1596
62878W        W 5795  13.477  22.588  26.663 -0.1634 -0.1067  0.1574
62879W        W 5796  11.849  22.041  27.640  0.0408  0.3007  0.3869
62880W        W 5797  11.480  21.063  29.147 -0.2328  0.0369 -0.1845
62881W        W 5798  14.499  23.212  27.244 -0.2746  0.0965  0.3833
62882W        W 5799  13.049  20.950  28.708 -0.1125 -0.0817 -0.0643
62883W        W 5800  13.236  21.332  26.836  0.0540 -0.0931 -0.1206
62884W        W 5801  13.468  23.586  27.334  0.0734 -0.1645 -0.0330
62885W        W 5802  12.380  23.306  26.953  0.1620  0.1080 -0.0155
62886W        W 5803  16.976  24.270  30.572  0.1791 -0.0015 -0.1270
62887W        W 5804  12.009  26.163  29.945  0.0244  0.2702  0.1047
62888W        W 5805  15.494  25.417  27.430  0.1638  0.2129 -0.2317
62889W        W 5806  14.944  25.551  28.461 -0.4278  0.0550  0.1198
62890W        W 5807  13.520  22.793  30.893  0.0250 -0.0024  0.1862
62891W        W 5808  12.012  21.634  26.921 -0.0501  0.0123 -0.1393
62892W        W 5809  12.636  23.802  27.712  0.2650  0.0048 -0.0547
62893W        W 5810  11.028  25.420  28.992 -0.4920 -0.1321  0.0102
62894W        W 5811  12.987  21.466  27.312 -0.4043  0.3157 -0.0712
62895W        W 5812  15.093  24.898  26.670 -0.1418 -0.0552  0.1193
62896W        W 5813  13.110  23.268  29.066  0.1129  0.2845 -0.1127
62897W        W 5814  11.861  24.748  29.411 -0.1374  0.2366 -0.2219
62898W        W 5815  13.892  23.118  30.889 -0.2628 -0.0819 -0.2673
62899W        W 5816  14.412  23.753  28.870 -0.0909 -0.0167 -0.0684
62900W        W 5817  15.741  21.692  27.714 -0.2654  0.0290  0.3034
62901W        W 5818  13.546  22.664  27.952  0.0640  0.0883 -0.0283
62902W        W 5819  14.392  26.588  27.674  0.0365 -0.0568 -0.0802
62903W        W 5820  13.823  24.958  28.011  0.0102  0.4332  0.2615
62904W        W 5821  12.045  22.929  27.698 -0.0385 -0.1407 -0.0498
62905W        W 5822  13.362  26.696   0.078  0.0439 -0.2298  0.1748
62906W        W 5823  13.622  23.242  28.941 -0.0508 -0.0976  0.1459
62907W        W 5824  12.016  21.809  31.216 -0.2450  0.1352  0.0337
62908W        W 5825  12.099  24.315  28.258 -0.5026 -0.0781 -0.3079
62909W        W 5826  11.499  22.610  28.053  0.0002 -0.1392 -0.2375
62910W        W 5827  10.999  25.321   0.585 -0.1739  0.2657  0.0781
62911W        W 5828  12.059  21.171  27.754  0.2295  0.2836 -0.1920
62912W        W 5829  14.315  21.228  26.731  0.0639 -0.0248 -0.0261
62913W        W 5830  12.643  23.552  29.599 -0.0529 -0.0932 -0.0779
62914W        W 5831  13.114  22.874  26.117  0.0071  0.1167 -0.2262
62915W        W 5832  14.185  22.512  27.412 -0.2752 -0.1494 -0.3920
62916W        W 5833  12.451  24.503  26.241 -0.0802  0.0641 -0.0981
62917W        W 5834  10.991  26.627  29.396 -0.3054 -0.0803 -0.3955
62918W        W 5835  11.257  24.102  29.978  0.1340 -0.1685  0.0802
62919W        W 5836  12.136  25.292  28.588 -0.2144 -0.0195  0.0533
62920W        W 5837  14.174  24.185  26.964 -0.0373 -0.0875 -0.1354
62921W        W 5838  13.690  24.418  29.146 -0.2030 -0.1699 -0.2426
62922W        W 5839  11.920  23.636  30.370  0.2813 -0.3361  0.3835
62923W        W 5840  15.063  27.319  30.677  0.1162  0.0543 -0.0824
62924W        W 5841  10.796  24.995  28.270 -0.3519 -0.2349  0.1069
62925W        W 5842  13.455  22.223  27.131 -0.3235  0.2053  0.2488
62926W        W 5843  11.384  22.550  26.443  0.0823  0.0850  0.2355
62927W        W 5844  13.137  21.637  27.967  0.0210  0.1297  0.2275
62928W        W 5845  12.992  26.268  26.530 -0.2945  0.1709 -0.3185
62929W        W 5846  15.955  20.757  28.036 -0.1490 -0.3127  0.0703
62930W        W 5847  15.433  21.404  28.004 -0.2908  0.1123  0.2011
62931W        W 5848  12.239  23.147  28.977 -0.0130  0.0931  0.2269
62932W        W 5849  14.495  21.590  29.826 -0.0290 -0.2690 -0.1364
62933W        W 5850  13.173  25.336  27.572 -0.1761  0.0203 -0.1795
62934W        W 5851  14.175  22.456  28.793 -0.1196 -0.0657 -0.2156
62935W        W 5852  12.894  24.054  26.806 -0.0315  0.2873 -0.2898
62936W        W 5853  14.430  20.122  28.283  0.0481  0.0379 -0.1135
62937W        W 5854  12.626  22.999  29.319 -0.0257  0.2334  0.4275
62938W        W 5855  11.621  27.156  30.341 -0.0489 -0.0894  0.0418
62939W        W 5856  15.313  23.824  31.233 -0.1762 -0.0006 -0.0765
62940W        W 5857  14.132  23.167  28.656  0.1209 -0.1463 -0.0599
62941W        W 5858  12.398  24.282   0.429 -0.0895 -0.0806  0.0562
62942W        W 5859  10.541  22.197  26.589  0.0113  0.0174 -0.3058
62943W        W 5860  13.895  28.025  27.366  0.0143 -0.0378  0.2162
62944W        W 5861  13.322  23.644  28.775 -0.0058 -0.1210 -0.0060
62945W        W 5862  12.817  23.722  28.144 -0.0056 -0.2664 -0.1573
62946W        W 5863  10.340  25.433  29.265 -0.2756  0.0622 -0.0173
62947W        W 5864  13.671  24.521  27.896 -0.2047  0.1793 -0.3689
62948W        W 5865  14.408  21.160  27.761 -0.2127  0.0781  0.4152
62949W        W 5866  11.710  23.564  26.067 -0.2331  0.3006  0.3118
62950W        W 5867  14.967  23.640  29.237 -0.0785  0.3477  0.0124
62951W        W 5868   9.318  22.080  27.915  0.0865 -0.1846 -0.2297
62952W        W 5869  10.812  22.405  26.962 -0.1346 -0.0933  0.1413
62953W        W 5870  12.085  23.306  27.374  0.0573  0.0644 -0.0278
62954W        W 5871  14.623  21.617  26.618 -0.0986 -0.3020 -0.0643
62955W        W 5872  14.950  23.311  26.875  0.0754  0.0953 -0.0426
62956W        W 5873  11.877  23.206  29.304 -0.1945  0.2423  0.4343
62957W        W 5874  14.387  22.515  29.605 -0.1352  0.0625 -0.0589
62958W        W 5875  10.972  25.078  30.462 -0.0795 -0.0276 -0.0793
62959W        W 5876  13.980  22.457  30.851 -0.3407  0.0045  0.0793
62960W        W 5877  15.423  20.672  25.751  0.0937  0.3296  0.4476
62961W        W 5878  13.535  24.121  30.871  0.1035  0.1267 -0.0714
62962W        W 5879   9.674  24.907  31.041  0.2006 -0.4473  0.1981
62963W        W 5880  12.941  23.386  28.526 -0.0899  0.0150 -0.0801
62964W        W 5881  15.752  22.862  28.100  0.2058  0.1085  0.0408
62965W        W 5882  13.244  23.086  27.797 -0.1975  0.1023 -0.0997
62966W        W 5883  13.176  23.959  27.827 -0.2511  0.1512  0.0822
62967W        W 5884  11.864  27.514  31.053  0.1406  0.2330 -0.3009
62968W        W 5885  13.093  22.743  27.025  0.1265  0.0796 -0.0542
62969W        W 5886  11.260  24.821  28.157  0.0347  0.1732  0.0774
62970W        W 5887  12.285  23.786  29.955 -0.1442  0.2664 -0.1153
62971W        W 5888  14.008  22.879  29.524  0.0527  0.0629  0.2939
62972W        W 5889  13.863  21.177  29.209  0.3521  0.0481  0.0845
62973W        W 5890  12.609  24.469  26.700 -0.3343 -0.3130  0.1460
62974W        W 5891  13.392  26.150  30.163 -0.1754  0.1783 -0.1159
62975W        W 5892  13.259  25.019  29.529 -0.1948 -0.2009 -0.0328
62976W        W 5893  14.117  21.942  28.182 -0.0471  0.1192  0.0226
62977W        W 5894  11.479  25.176  31.854  0.1203  0.0751  0.2544
62978W        W 5895  12.193  21.205  30.269  0.1670  0.0200 -0.0079
62979W        W 5896  13.540  25.653  26.184  0.2412 -0.0751  0.4011
62980W        W 5897  13.163  24.155  28.949  0.0982  0.0250  0.2531
62981W        W 5898  11.503  25.513  29.783  0.1448 -0.3420  0.0387
62982W        W 5899  10.476  24.064  30.298  0.0702 -0.2069 -0.1143
62983W        W 5900  14.279  25.175  30.572 -0.0471 -0.3568 -0.2011
62984W        W 5901  12.965  21.664  29.236 -0.2304  0.1117 -0.3838
62985W        W 5902  10.260  24.476  28.209  0.2125 -0.0298 -0.0299
62986W        W 5903  11.919  22.356  28.002 -0.0880  0.3028  0.0796
62987W        W 5904  12.412  27.050  29.981 -0.0389  0.0539 -0.0769
62988W        W 5905  13.848  21.477  26.051 -0.2866  0.0870 -0.2302
62989W        W 5906  13.160  23.610  26.891 -0.1062  0.1451  0.0341
62990W        W 5907  11.539  24.315  29.102 -0.1249 -0.1075 -0.0848
62991W        W 5908  14.866  23.528  30.275  0.0504  0.0576  0.0323
62992W        W 5909  13.126  24.586  27.947 -0.1790  0.3665  0.2567
62993W        W 5910  12.685  21.896  29.676 -0.0705 -0.1419  0.1834
62994W        W 5911  12.145  24.179  31.804 -0.2042 -0.3544 -0.0730
62995W        W 5912  13.379  24.685  30.027 -0.1074 -0.2500  0.2149
62996W        W 5913  11.117  23.405  29.248  0.0427 -0.2186 -0.1785
62997W        W 5914  13.621  26.704  28.708  0.0513  0.2124 -0.3394
62998W        W 5915  11.502  24.440   0.677 -0.0799  0.2414 -0.1900
62999W        W 5916  14.015  23.744  29.412  0.0509  0.0833  0.1421
63000W        W 5917  11.353  22.283  25.944 -0.1290 -0.2035 -0.0684
63001W        W 5918  12.083  23.236  28.073  0.2956 -0.1205  0.0573
63002W        W 5919  12.927  23.501  30.569  0.3789 -0.2419  0.2051
63003W        W 5920  14.215  23.853  27.925  0.0512 -0.0494 -0.0856
63004W        W 5921  12.687  21.536  26.188 -0.0951 -0.3702 -0.2209
63005W        W 5922  12.120  24.526  28.950 -0.0147  0.2640  0.1164
63006W        W 5923  13.219  23.121  27.293 -0.4000 -0.3087  0.0556
63007W        W 5924  14.470  23.678  25.762  0.0557  0.1270 -0.0320
63008W        W 5925  12.743  24.910  28.401  0.0991 -0.2780 -0.0345
63009W        W 5926  12.343  22.566  29.534  0.0536 -0.0854  0.1829
63010W        W 5927  13.635  22.738  26.208 -0.1335 -0.0407 -0.1500
63011W        W 5928  14.835  22.958  27.593  0.0584  0.0518 -0.0480
63012W        W 5929  15.301  20.011  26.402 -0.2199  0.1704  0.1888
63013W        W 5930  14.091  22.972  27.155  0.0224  0.1307  0.1031
63014W        W 5931  13.049  22.659  29.286  0.1639  0.2924 -0.2104
63015W        W 5932  10.676  21.815  30.226 -0.2782  0.1761 -0.1716
63016W        W 5933  12.898  28.281  31.430 -0.1195 -0.1874 -0.1387
63017W        W 5934  14.557  21.276  24.914 -0.2162 -0.0778  0.0171
63018W        W 5935  13.575  23.426  30.684  0.0815 -0.1034  0.1365
63019W        W 5936  14.454  23.130  25.806 -0.1582 -0.1399 -0.1797
63020W        W 5937  12.679  22.878  25.754  0.0148 -0.1996  0.1024
63021W        W 5938  11.357  21.276  27.002  0.0939  0.1730 -0.1085
63022W        W 5939  13.994  23.344  29.742  0.0774 -0.2309  0.1162
63023W        W 5940  12.259  22.662  25.386 -0.1796  0.3337  0.0116
63024W        W 5941  12.191  23.304  29.665 -0.1905  0.1750  0.1393
63025W        W 5942  13.792  24.454  27.173  0.2953  0.1580 -0.1265
63026W        W 5943  11.916  25.213  30.075 -0.0443  0.1201 -0.1965
63027W        W 5944  11.272  23.442  26.602  0.0833  0.2812 -0.2379
63028W        W 5945  12.761  24.219  28.088  0.1219 -0.0304 -0.0459
63029W        W 5946  12.131  27.176  31.298  0.2285  0.1110 -0.1385
63030W        W 5947  11.569  21.803  25.070  0.4018  0.3696 -0.1569
63031W        W 5948  13.444  24.129  26.932  0.1780 -0.2342 -0.0078
63032W        W 5949  14.584  21.775  28.317  0.0282 -0.0492  0.0225
63033W        W 5950  14.700  23.919  31.087 -0.0910  0.0433 -0.2517
63034W        W 5951  12.777  23.046  25.263 -0.0739 -0.1251  0.1967
63035W        W 5952  14.098  22.478  30.383 -0.2335  0.1087 -0.0863
63036W        W 5953  12.962  23.345  26.054 -0.1793  0.0984  0.0377
63037W        W 5954  13.327  22.108  27.987 -0.1920  0.0431  0.1230
63038W        W 5955  11.350  26.065  29.920 -0.0722 -0.0491  0.2175
63039W        W 5956  11.037  24.213  29.476  0.2966  0.0089 -0.0922
63040W        W 5957  13.307  24.293  29.586 -0.1484 -0.0066 -0.0328
63041W        W 5958  13.840  22.572  29.901  0.3780  0.2876  0.1542
63042W        W 5959  13.625  23.395  29.385 -0.1433 -0.3405 -0.0807
63043W        W 5960  11.490  23.309  29.593  0.1241  0.1328  0.1908
63044W        W 5961  12.417  23.606  30.565 -0.0881 -0.2101  0.1579
63045W        W 5962  13.969  24.579  29.902  0.1206 -0.1981 -0.2283
63046W        W 5963  10.727  25.008  29.962 -0.0494  0.3448  0.3848
63047W        W 5964  14.278  25.451  31.271  0.1015 -0.2848 -0.2789
63048W        W 5965  13.772  25.075  24.156  0.1777 -0.0319 -0.0080
63049W        W 5966  11.790  23.782  28.206  0.1567  0.0891  0.2102
63050W        W 5967  12.257  23.487   1.034 -0.0823 -0.1184  0.0462
63051W        W 5968  12.708  22.744   1.290  0.2086 -0.1522 -0.2976
63052W        W 5969  12.330  23.605  29.146 -0.0699 -0.1318  0.1557
63053W        W 5970  12.508  21.277  28.072 -0.1154 -0.4658  0.0706
63054W        W 5971  13.509  26.545  25.353 -0.1241  0.0425  0.0497
63055W        W 5972  10.103  25.682  30.738 -0.3399  0.3086 -0.4994
63056W        W 5973   9.777  23.550  30.547 -0.3131  0.1395 -0.0225
63057W        W 5974  10.845  26.856  28.487  0.0196  0.0760 -0.3575
63058W        W 5975  13.022  24.546  28.575 -0.2155 -0.1741  0.1078
63059W        W 5976  13.348  24.884  26.758 -0.1793  0.0691  0.0850
63060W        W 5977  12.259  26.353  30.489 -0.1809 -0.1080 -0.1710
63061W        W 5978  12.171  23.472  26.241 -0.0528  0.0022  0.2007
63062W        W 5979  10.416  25.825  28.158 -0.1230  0.0838  0.0213
63063W        W 5980  11.971  23.510  28.745 -0.0671 -0.0390 -0.0986
63064W        W 5981  14.927  24.356  26.535 -0.2090 -0.0733 -0.0109
63065W        W 5982  11.439  25.633  26.614 -0.2375  0.0542  0.0318
63066W        W 5983  14.101  21.530  30.329  0.2500  0.2543 -0.1956
63067W        W 5984  13.539  20.980  26.634 -0.2873  0.0871  0.3725
63068W        W 5985  15.106  24.154  29.428  0.1779 -0.1913 -0.1865
63069W        W 5986  16.086  21.579  28.914  0.0551  0.0736  0.0395
63070W        W 5987  13.376  23.883   0.542 -0.0399 -0.0361  0.0760
63071W        W 5988  12.392  24.607  29.393 -0.0804  0.0934  0.5010
63072W        W 5989  13.677  21.780  27.716  0.0204 -0.3612 -0.1578
63073W        W 5990  13.052  26.264  30.816  0.0685  0.2390  0.1403
63074W        W 5991  15.726  21.006  30.067  0.1471 -0.1067  0.0712
63075W        W 5992  10.481  24.919  31.072 -0.0131  0.0969 -0.1465
63076W        W 5993  14.863  22.586  28.003  0.3302  0.1744 -0.2003
63077W        W 5994   9.293  23.676  26.919 -0.0942 -0.0038  0.2927
63078W        W 5995  12.643  24.159  27.166 -0.0296  0.2095 -0.2344
63079W        W 5996  14.689  23.492  28.471  0.2339 -0.0661 -0.5111
63080W        W 5997  10.882  23.786  25.147 -0.1193 -0.2806 -0.0081
63081W        W 5998  14.614  22.028  27.322  0.4051  0.2174 -0.1240
63082W        W 5999  12.200  26.706  28.638  0.1164  0.4522  0.1598
63083W        W 6000  13.009  24.468  27.064 -0.1103 -0.1200 -0.2621
63084W        W 6001   9.219  24.853  28.774 -0.2280  0.0056  0.2147
63085W        W 6002  11.895  21.616  28.941  0.0684  0.3452  0.0691
63086W        W 6003  15.244  23.876  30.075  0.0224  0.2844  0.0534
63087W        W 6004  12.402  24.125  29.133 -0.1262 -0.0920  0.0081
63088W        W 6005  13.436  21.126  29.523 -0.0382 -0.1369  0.0944
63089W        W 6006  11.175  23.888  29.023 -0.1136 -0.2085 -0.3121
63090W        W 6007  14.161  21.524  28.975  0.1791 -0.0960  0.0435
63091W        W 6008  13.549  27.137  29.054 -0.0023 -0.1105 -0.1242
63092W        W 6009  10.300  24.721  29.964  0.1299  0.2606  0.0096
63093W        W 6010  14.096  21.571  26.467 -0.2691 -0.4702  0.1852
63094W        W 6011  14.512  24.030  28.344 -0.2808  0.3194  0.3014
63095W        W 6012  12.280  23.144  25.611  0.1286 -0.0386 -0.2099
63096W        W 6013  15.230  27.414  29.227  0.0022  0.0831  0.2317
63097W        W 6014  12.355  22.129  28.112 -0.1737  0.0740 -0.3424
63098W        W 6015  13.355  21.904  28.914  0.1671 -0.0317  0.2323
63099W        W 6016  13.277  23.077  26.648  0.1468 -0.2377 -0.2078
63100W        W 6017  10.695  24.016   0.024  0.2037  0.0423 -0.0712
63101W        W 6018  13.093  24.173  30.708 -0.3462  0.1291  0.0463
63102W        W 6019  10.729  22.487  27.822  0.0094 -0.1633 -0.3962
63103W        W 6020  13.199  24.750  25.226 -0.0858  0.0429 -0.0576
63104W        W 6021  14.493  22.254  28.316  0.1462 -0.3460  0.1282
63105W        W 6022  14.722  24.070  26.960 -0.1100 -0.0993 -0.0688
63106W        W 6023  15.443  21.307  26.744 -0.5178 -0.1925 -0.0811
63107W        W 6024  12.967  26.013  29.935  0.1748  0.3929 -0.3492
63108W        W 6025  11.960  22.225  29.511  0.0730 -0.0213  0.0258
63109W        W 6026  14.883  27.281  29.754  0.1413 -0.4557 -0.1132
63110W        W 6027  13.725  23.365  28.404  0.0978  0.2652 -0.0182
63111W        W 6028  12.983  21.249  28.311 -0.2298  0.2779 -0.3164
63112W        W 6029  11.835  23.303  30.018  0.1704 -0.1690  0.0004
63113W        W 6030  11.412  25.692  29.321  0.0636  0.2436  0.2937
63114W        W 6031  12.981  22.272  27.085 -0.2019  0.0540 -0.2107
63115W        W 6032  14.978  20.734  28.142 -0.0472 -0.3928 -0.2304
63116W        W 6033  11.482  25.211  26.949 -0.0241  0.1281 -0.2456
63117W        W 6034  12.406  20.286  29.919  0.0981  0.0478 -0.0026
63118W        W 6035  12.862  27.480  28.554  0.3842 -0.0429 -0.0497
63119W        W 6036   9.581  24.404  29.441  0.0282 -0.0575  0.0114
63120W        W 6037  12.735  22.077  26.715 -0.1706 -0.0903 -0.3167
63121W        W 6038  11.617  24.078  30.359  0.2861 -0.1471 -0.1707
63122W        W 6039  12.450  24.929  28.814  0.0337  0.3296 -0.0153
63123W        W 6040  12.405  25.413  30.077  0.1617  0.1962 -0.1464
63124W        W 6041  13.857  23.665  28.778  0.0495 -0.0275  0.1499
63125W        W 6042  13.671  21.818  26.721  0.0270 -0.0417  0.1523
63126W        W 6043  13.970  24.855  28.977  0.2666 -0.2803  0.3508
63127W        W 6044  13.156  23.569  29.445 -0.1950 -0.0557  0.0157
63128W        W 6045  15.446  21.933  27.103 -0.1362 -0.0225 -0.1248
63129W        W 6046  13.846  21.351  26.869  0.2123  0.1886  0.3701
63130W        W 6047  10.747  23.361  30.208  0.0244  0.4055  0.1763
63131W        W 6048  12.716  21.745  28.257  0.0241  0.2011  0.2223
63132W        W 6049  14.161  24.290  28.666 -0.1663 -0.0146  0.0260
63133W        W 6050  11.651  25.320  28.879 -0.0950  0.0240 -0.2254
63134W        W 6051  14.551  22.050  29.676 -0.2532 -0.1043  0.1792
63135W        W 6052  11.030  24.310  31.199 -0.0417  0.2450 -0.2013
63136W        W 6053   9.782  23.467  28.683  0.1245  0.2419 -0.0141
63137W        W 6054  11.783  23.245  26.505  0.0673  0.0043  0.0984
63138W        W 6055  12.469  25.858  29.910 -0.0427 -0.1695 -0.3865
63139W        W 6056  12.484  23.612  28.580  0.1606 -0.0907 -0.4753
63140W        W 6057  10.277  22.559  28.086 -0.2095  0.0688  0.1353
63141W        W 6058  11.843  25.226  30.961  0.1280 -0.2582 -0.2174
63142W        W 6059  12.649  24.982  29.802 -0.0560  0.0088  0.1506
63143W        W 6060  13.311  20.473  28.738  0.0947 -0.2051 -0.0839
63144W        W 6061  13.518  24.905  30.726 -0.3219 -0.1979 -0.4304
63145W        W 6062  10.933  23.285  25.134  0.1475  0.0026 -0.2178
63146W        W 6063  12.897  24.311  31.268  0.1741 -0.0487 -0.2101
63147W        W 6064  13.782  21.598  29.389 -0.0145 -0.0091  0.2851
63148W        W 6065  10.534  20.595  24.628 -0.1461  0.0210  0.1458
63149W        W 6066  14.135  23.418  30.284  0.0736 -0.0967 -0.3481
63150W        W 6067  13.897  23.882  27.272 -0.1791 -0.1527  0.0100
63151W        W 6068  13.922  25.051  25.951 -0.3001  0.0359  0.3612
63152W        W 6069  12.584  21.468  29.438 -0.0242  0.0131 -0.1958
63153W        W 6070  12.741  26.174  30.430  0.3457  0.0103 -0.0066
63154W        W 6071   9.182  20.741  29.507 -0.0267 -0.0770  0.3293
63155W        W 6072  14.496  23.990  27.412 -0.0280  0.0166 -0.0880
63156W        W 6073  12.245  24.091  30.803  0.1017  0.0746  0.0302
63157W        W 6074  14.708  22.453  27.545  0.4079  0.2102  0.1396
63158W        W 6075  13.257  23.824  30.309  0.0151  0.1093 -0.1161
63159W        W 6076  13.360  23.693  25.979  0.0563 -0.1130 -0.0071
63160W        W 6077  11.552  23.469  29.016 -0.0893 -0.3087  0.0543
63161W        W 6078  11.650  24.901  31.475  0.2184 -0.1053  0.1238
63162W        W 6079  14.594  25.510  27.761  0.1038  0.1282 -0.1817
63163W        W 6080  14.495  23.141  26.721  0.1271 -0.1137 -0.0037
63164W        W 6081  13.678  23.007  27.568 -0.0382 -0.0922  0.1475
63165W        W 6082  13.589  25.634  28.467  0.6221 -0.1365 -0.1273
63166W        W 6083  10.960  23.950  30.313 -0.2674  0.1339  0.1358
63167W        W 6084  12.759  23.668  27.181 -0.2459 -0.0740 -0.3711
63168W        W 6085  11.091  22.720  29.784 -0.1038  0.2459  0.0396
63169W        W 6086  13.326  25.072  30.302  0.3540 -0.0961 -0.0294
63170W        W 6087  13.831  22.940  30.371 -0.2199  0.0733 -0.1534
63171W        W 6088  11.892  23.161  25.939  0.1560  0.1888 -0.1317
63172W        W 6089  13.888  24.103  26.442  0.1037  0.0891 -0.0612
63173W        W 6090  11.950  25.771  30.850  0.2402  0.1935  0.1460
63174W        W 6091  16.028  24.181  30.103  0.2062 -0.1479 -0.6118
63175W        W 6092  13.116  27.438  30.317 -0.0762 -0.0015 -0.2282
63176W        W 6093  14.200  22.900  29.977  0.1646 -0.1606  0.1117
63177W        W 6094  10.732  22.241  29.495 -0.2869  0.0954  0.1496
63178W        W 6095  10.779  23.866  28.290 -0.0149  0.1690 -0.1591
63179W        W 6096  12.504  24.366  28.520  0.2107  0.1994 -0.0880
63180W        W 6097  15.610  21.497  27.165  0.2222 -0.0567 -0.3548
63181W        W 6098  11.620  23.324  28.427  0.1464  0.1262  0.0970
63182W        W 6099  14.032  23.348  26.684  0.2777  0.1638 -0.0037
63183W        W 6100  12.227  24.681  30.358 -0.1622  0.2867  0.3883
63184W        W 6101  12.115  24.684  29.831 -0.0795  0.2915  0.1689
63185W        W 6102  13.270  22.107  30.450  0.0422 -0.1611  0.0507
63186W        W 6103  14.799  23.871  29.790  0.2610 -0.2577  0.1560
63187W        W 6104  12.918  24.014  29.382  0.2101 -0.1423 -0.1360
63188W        W 6105  12.102  26.705  30.822 -0.2903  0.2442 -0.0078
63189W        W 6106  12.438  26.081  31.917 -0.2847  0.1323  0.0472
63190W        W 6107  12.544  24.471  30.068  0.1039  0.1125  0.1109
63191W        W 6108  12.697  23.025  30.447 -0.0363  0.1385 -0.1706
63192W        W 6109  11.812  23.856  30.820 -0.0619  0.0011 -0.1832
63193W        W 6110  12.250  23.230  30.203 -0.1821  0.0815 -0.2200
63194W        W 6111  13.845  24.236  31.223 -0.0855 -0.1555  0.2202
63195W        W 6112  14.740  25.375  30.630  0.2190 -0.2071 -0.3568
63196W        W 6113  12.574  20.659  28.776  0.2149 -0.0140  0.1163
63197W        W 6114  13.095  24.531  31.737 -0.0275  0.0657  0.2950
63198W        W 6115   8.890  23.794  31.557  0.0457  0.3080 -0.1992
63199W        W 6116  13.351  22.515  29.983  0.0883  0.2994  0.1434
63200W        W 6117  10.772  25.501  30.322 -0.3360  0.0735  0.0247
63201W        W 6118  12.445  23.578   0.570  0.0162  0.0047 -0.0475
63202W        W 6119  14.288  25.067  29.445 -0.0510 -0.0584  0.2147
63203W        W 6120  11.892  21.509   0.908 -0.0147  0.1281 -0.2189
63204W        W 6121  12.226  25.984  29.417 -0.2499 -0.3607 -0.0754
63205W        W 6122  11.591  22.421  30.291  0.2218  0.2965  0.0499
63206W        W 6123  10.572  25.260  31.602  0.1415 -0.0716 -0.1541
63207W        W 6124  13.632  22.142   0.599  0.0074  0.0514 -0.0495
63208W        W 6125  14.204  20.300  29.738  0.1897 -0.0123  0.1009
63209W        W 6126  12.855  25.164  30.239 -0.0831 -0.2228  0.0052
63210W        W 6127  13.814  24.192  29.564 -0.1443  0.2031  0.1907
63211W        W 6128  10.126  24.048  30.674 -0.0747 -0.0022  0.1850
63212W        W 6129  12.884  28.253   0.822 -0.0749  0.1050 -0.1802
63213W        W 6130  13.329  25.404  30.658 -0.1743  0.1145  0.1007
63214W        W 6131  12.181  26.593  29.855  0.0286 -0.0391  0.3126
63215W        W 6132  12.151  25.098  31.345 -0.1465 -0.4414  0.0573
63216W        W 6133  11.232  21.793  30.817  0.2068 -0.1907  0.0369
63217W        W 6134  13.113  24.256  30.042 -0.0936 -0.3679 -0.0034
63218W        W 6135  12.695  23.674   1.240  0.2314 -0.2405 -0.1456
63219W        W 6136  10.079  20.577  30.329 -0.0064 -0.1370 -0.0816
63220W        W 6137  11.175  25.457  30.718  0.0655 -0.0598 -0.0144
63221W        W 6138  14.280  24.687  30.310  0.3517 -0.1823 -0.1140
63222W        W 6139  13.600  26.318  30.644 -0.4466  0.0630  0.0974
63223W        W 6140  12.950  24.648  30.323  0.2261  0.4200 -0.1921
63224W        W 6141  12.459  24.092  31.348  0.0272  0.0181 -0.2879
63225W        W 6142  13.685  24.223  30.056  0.0894 -0.1680 -0.0613
63226W        W 6143  13.096  25.423  29.128 -0.1631  0.2714  0.2854
63227W        W 6144  13.175  21.864  30.043 -0.1591  0.0541  0.1608
63228W        W 6145  11.967  25.025  31.891 -0.1271 -0.0147  0.0000
63229W        W 6146  11.556  22.370  31.730  0.2146  0.0833  0.0650
63230W        W 6147  11.383  24.179  30.835  0.2756  0.0628 -0.0443
63231W        W 6148  11.472  23.853  31.293 -0.1350  0.0716  0.0635
63232W        W 6149  12.865  23.421  31.203  0.0258 -0.0347 -0.1988
63233W        W 6150  13.975  24.965  31.823  0.1393 -0.3771 -0.1391
63234W        W 6151   7.967  24.562  31.032  0.0282 -0.2661  0.1961
63235W        W 6152  12.567  25.145  31.066  0.0102 -0.1043  0.1173
63236W        W 6153  14.133  23.501  30.789  0.0504 -0.0061 -0.1102
63237W        W 6154  12.885  25.427   2.376  0.0305  0.1363  0.1377
63238W        W 6155  10.334  23.766  31.643  0.2901  0.4042  0.1711
63239W        W 6156  12.589  24.320  31.917  0.0679 -0.1561 -0.0553
63240W        W 6157  13.336  21.890  29.548  0.1144  0.0206 -0.0136
63241W        W 6158  15.349  24.568  31.790 -0.3066 -0.0588 -0.0467
63242W        W 6159  11.554  25.280   0.436  0.0276  0.0198 -0.0084
63243W        W 6160  12.155  24.607   0.097 -0.0916 -0.2285  0.0174
63244W        W 6161  12.528  22.129  29.244  0.1776  0.2952 -0.0942
63245W        W 6162  11.149  24.644   0.298 -0.0777 -0.0022  0.1584
63246W        W 6163  12.428  25.695   0.757  0.0310 -0.1460  0.0121
63247W        W 6164   9.952  25.517  29.681 -0.0583  0.3701 -0.3982
63248W        W 6165   9.803  22.722   0.061 -0.0094 -0.1760  0.2926
63249W        W 6166  12.883  27.859  29.585 -0.1344  0.1701 -0.0640
63250W        W 6167  13.341  23.053  30.442 -0.0483  0.1519  0.0802
63251W        W 6168  17.243  23.163  30.565 -0.0511 -0.0033 -0.0753
63252W        W 6169  12.820  28.573  16.653  0.2090  0.2554 -0.2415
63253W        W 6170  11.736  26.466  16.364  0.0431  0.2405  0.0491
63254W        W 6171  14.174  26.343  16.111  0.0076  0.1685 -0.0417
63255W        W 6172  13.889  27.284  15.010  0.1956 -0.0278 -0.0195
63256W        W 6173  12.122  26.358  17.117 -0.1208  0.2383 -0.1540
63257W        W 6174  13.541  30.728  16.755 -0.2216 -0.0412 -0.1493
63258W        W 6175  13.304  26.098  19.519  0.1002 -0.0788 -0.0754
63259W        W 6176  13.265  27.640  17.613  0.3305  0.0284  0.1471
63260W        W 6177  13.249  27.955  18.701  0.1599 -0.3333  0.0345
63261W        W 6178  12.940  26.970  15.535 -0.2020  0.1610  0.2329
63262W        W 6179  12.961  27.224  17.792  0.4131 -0.0076 -0.1610
63263W        W 6180  13.718  28.554  17.454 -0.2962  0.1691 -0.0664
63264W        W 6181  11.973  27.629  15.943  0.0540  0.1700  0.1917
63265W        W 6182  10.816  24.686  17.262  0.0405  0.1111 -0.0511
63266W        W 6183  15.327  28.590  17.511  0.0530 -0.1617  0.2053
63267W        W 6184  11.791  29.222  18.100  0.4346 -0.0113 -0.0525
63268W        W 6185  12.873  26.923  19.078  0.1067 -0.0368  0.1318
63269W        W 6186  13.097  26.310  17.901  0.4325 -0.1278 -0.0455
63270W        W 6187  14.958  31.970  15.881 -0.3604 -0.0944 -0.1731
63271W        W 6188  11.848  25.981  17.292 -0.1096  0.0486  0.0390
63272W        W 6189  14.293  26.804  20.087  0.1748  0.0053  0.1346
63273W        W 6190  11.718  29.499  17.040 -0.1427  0.0420 -0.1548
63274W        W 6191  10.805  26.491  15.212 -0.2464  0.0401  0.0444
63275W        W 6192  10.876  26.983  15.258  0.1725 -0.0681 -0.0629
63276W        W 6193  11.890  24.985  20.044 -0.3116 -0.1201 -0.1399
63277W        W 6194  13.171  28.461  17.128  0.0046 -0.0122 -0.2297
63278W        W 6195  16.140  27.033  18.163  0.0664  0.2492 -0.0309
63279W        W 6196  12.592  26.315  17.251  0.2296  0.1657 -0.1715
63280W        W 6197  12.196  27.776  16.432  0.0534 -0.1489 -0.2906
63281W        W 6198  14.748  27.141  18.884 -0.1053 -0.1403 -0.0112
63282W        W 6199  10.504  27.245  15.636  0.0981 -0.0953 -0.0503
63283W        W 6200   9.854  28.159  16.114 -0.0133 -0.1553 -0.0600
63284W        W 6201  12.140  26.479  16.113 -0.0286 -0.0809 -0.0284
63285W        W 6202  12.572  28.524  17.092  0.0125 -0.0185  0.0360
63286W        W 6203  12.503  29.094  18.674 -0.1917  0.3420 -0.0045
63287W        W 6204  12.468  30.074  16.587 -0.1651 -0.1243 -0.3414
63288W        W 6205  11.462  28.401  15.304 -0.2151  0.3448  0.0835
63289W        W 6206  12.839  29.142  19.188 -0.0686 -0.2684 -0.0303
63290W        W 6207   9.583  28.278  17.971  0.0302 -0.3169  0.0335
63291W        W 6208  14.289  27.201  19.016  0.1147 -0.1557  0.1066
63292W        W 6209  13.648  28.287  18.754  0.1233 -0.0677  0.2969
63293W        W 6210  10.832  29.282  15.819 -0.4618 -0.0015 -0.0982
63294W        W 6211  12.771  29.166  18.230  0.0625 -0.2624  0.3651
63295W        W 6212  11.027  29.166  19.202 -0.0303  0.0752 -0.0045
63296W        W 6213  10.884  26.908  16.400  0.1050  0.0963 -0.2041
63297W        W 6214  14.564  23.893  18.757  0.2168  0.1805  0.0103
63298W        W 6215  10.488  32.767  15.856  0.0609 -0.2903 -0.0720
63299W        W 6216  14.215  28.818  16.249 -0.1210  0.0249  0.0144
63300W        W 6217  12.269  27.257  16.086  0.0558 -0.0718 -0.0520
63301W        W 6218  14.604  27.623  17.220  0.1481  0.0571  0.1912
63302W        W 6219  14.410  27.472  16.798 -0.1885 -0.0943  0.1244
63303W        W 6220  10.943  30.308  16.089  0.1470  0.1473  0.0172
63304W        W 6221  11.136  24.748  19.437 -0.0311 -0.0390  0.0346
63305W        W 6222  12.244  29.594  17.002 -0.3870 -0.0750  0.0045
63306W        W 6223  12.969  27.017  15.064 -0.1241  0.1014  0.2109
63307W        W 6224  14.183  27.873  16.601 -0.0147 -0.1914 -0.2460
63308W        W 6225  13.107  29.990  18.002 -0.2227  0.0794  0.3669
63309W        W 6226  12.751  27.695  16.823  0.0654  0.1806  0.3290
63310W        W 6227  11.396  29.550  16.001  0.0165 -0.0241  0.1916
63311W        W 6228  12.607  30.557  16.497  0.1463 -0.0074  0.0121
63312W        W 6229  12.967  28.425  14.786  0.0100  0.2481 -0.3230
63313W        W 6230  12.153  26.609  15.638 -0.0485 -0.0344 -0.0868
63314W        W 6231  10.340  28.925  20.517  0.0799 -0.1391  0.0498
63315W        W 6232  12.219  26.115  18.230 -0.2373  0.1874 -0.0044
63316W        W 6233  12.173  25.571  16.361  0.2237  0.0399  0.2401
63317W        W 6234  15.092  26.508  19.480  0.1325  0.1423  0.1544
63318W        W 6235  12.455  27.544  15.166  0.1621 -0.2302 -0.1388
63319W        W 6236  12.745  27.077  17.374 -0.2839 -0.1060  0.0391
63320W        W 6237  11.936  29.358  19.093 -0.2446  0.1408 -0.2261
63321W        W 6238  13.279  28.432  19.555  0.1378 -0.1700 -0.2763
63322W        W 6239  14.395  27.985  15.887 -0.0845  0.0719 -0.0686
63323W        W 6240  13.948  27.180  17.182  0.2192 -0.0609 -0.0334
63324W        W 6241  12.820  28.020  17.254  0.0387 -0.0452 -0.0176
63325W        W 6242  13.131  28.341  16.265 -0.1245  0.3782  0.1328
63326W        W 6243  13.255  28.092  15.047 -0.2286 -0.0003 -0.1096
63327W        W 6244  14.092  27.702  17.214  0.0193  0.0431  0.1198
63328W        W 6245  12.427  27.319  17.765 -0.0708 -0.3247  0.1205
63329W        W 6246  10.449  28.671  17.324  0.2447 -0.3425 -0.1555
63330W        W 6247  12.189  27.555  18.545 -0.0335  0.3311 -0.3490
63331W        W 6248  12.385  28.895  16.653  0.1486  0.2855  0.1164
63332W        W 6249  11.483  29.748  17.460  0.0178 -0.3907  0.1051
63333W        W 6250  10.511  27.081  17.038 -0.0613  0.1872 -0.1294
63334W        W 6251  12.583  28.541  15.071  0.1353  0.1715  0.2764
63335W        W 6252  12.528  26.631  18.525  0.1081  0.0673 -0.0953
63336W        W 6253  12.722  28.260  19.299  0.1019  0.4274  0.1714
63337W        W 6254  14.635  24.612  15.737  0.1852 -0.1569 -0.1020
63338W        W 6255  13.007  26.455  18.817  0.0362  0.0210  0.0984
63339W        W 6256  13.383  26.362  17.497 -0.0840  0.0530  0.1516
63340W        W 6257  12.595  27.237  16.940 -0.0049 -0.0742 -0.0317
63341W        W 6258  14.063  29.920  16.542  0.0005  0.1418 -0.2601
63342W        W 6259  13.607  27.679  15.771 -0.3627 -0.3053 -0.1042
63343W        W 6260  13.108  29.105  15.651 -0.0346  0.1036  0.0536
63344W        W 6261  12.513  28.089  18.618  0.2083  0.0184 -0.0858
63345W        W 6262  12.130  27.012  18.677  0.0721 -0.1231  0.1131
63346W        W 6263  13.132  25.284  16.779 -0.1663  0.3506 -0.1216
63347W        W 6264  11.516  24.457  17.914 -0.1333  0.4525 -0.0422
63348W        W 6265  14.143  27.548  18.676 -0.1391  0.1271 -0.0316
63349W        W 6266  11.034  26.734  14.831 -0.0647 -0.1769  0.2177
63350W        W 6267  12.852  30.090  16.128 -0.3469  0.3427  0.0753
63351W        W 6268  13.114  27.073  16.317  0.3001 -0.0743 -0.2524
63352W        W 6269  11.785  27.279  16.919 -0.1524 -0.1210 -0.2758
63353W        W 6270  15.217  28.243  19.467 -0.0427 -0.3999 -0.0220
63354W        W 6271  13.748  29.110  16.309 -0.0424  0.3083 -0.1093
63355W        W 6272  12.704  29.730  18.003  0.0520 -0.1081  0.1612
63356W        W 6273  13.781  30.415  17.707 -0.2561 -0.0136  0.3064
63357W        W 6274  13.529  25.866  18.320  0.0510  0.0213 -0.1211
63358W        W 6275  13.295  27.619  16.673 -0.1941  0.2090  0.3004
63359W        W 6276  10.619  29.443  17.258 -0.1805  0.2537  0.0129
63360W        W 6277  13.593  28.889  17.016  0.2916  0.2350 -0.0307
63361W        W 6278  11.947  25.198  16.616 -0.0680 -0.0302 -0.0461
63362W        W 6279  12.480  29.559  18.474 -0.3236  0.3185  0.3304
63363W        W 6280  14.410  28.520  18.552  0.0934 -0.1998  0.0310
63364W        W 6281  10.650  29.329  18.056 -0.0679 -0.0455 -0.2282
63365W        W 6282  13.083  27.086  19.577  0.2096 -0.2076  0.2519
63366W        W 6283  13.333  27.946  17.188 -0.0954  0.1560 -0.0443
63367W        W 6284  14.953  28.666  17.169 -0.0249  0.0627  0.2417
63368W        W 6285  11.185  27.376  15.164  0.0438 -0.0253  0.1184
63369W        W 6286  12.856  27.541  15.921  0.1870  0.1476 -0.0101
63370W        W 6287  11.989  29.666  14.965  0.1609  0.0185 -0.1339
63371W        W 6288  10.999  27.351  15.669  0.2044 -0.1282 -0.0685
63372W        W 6289  13.067  28.126  16.695 -0.2767 -0.2203  0.0274
63373W        W 6290  14.238  27.510  17.620 -0.3889  0.5819 -0.1426
63374W        W 6291  11.036  27.518  19.146  0.2254 -0.4566  0.0367
63375W        W 6292  13.214  26.631  19.278  0.2220  0.2156  0.2337
63376W        W 6293  11.644  26.684  15.777 -0.1147  0.0974 -0.3130
63377W        W 6294  10.254  29.656  19.288 -0.3035  0.0065 -0.0907
63378W        W 6295  12.994  26.731  17.638 -0.0284  0.0038  0.1979
63379W        W 6296  15.551  26.632  15.935 -0.2061 -0.0525 -0.0210
63380W        W 6297  13.386  27.161  19.140 -0.0184 -0.1680 -0.3058
63381W        W 6298  14.101  28.288  16.308 -0.0323  0.4425 -0.0906
63382W        W 6299  13.663  26.348  15.749  0.1917  0.0180  0.0035
63383W        W 6300  13.288  26.606  14.859  0.0391 -0.1447  0.0810
63384W        W 6301  11.821  27.304  17.813  0.6098 -0.1200 -0.1390
63385W        W 6302  12.435  30.057  18.308  0.1677  0.0048  0.1883
63386W        W 6303  13.522  27.504  17.215 -0.0622  0.0165 -0.1039
63387W        W 6304  13.028  26.497  17.190 -0.2524 -0.0821 -0.2140
63388W        W 6305  15.755  29.221  15.457  0.0724 -0.0875  0.0971
63389W        W 6306  11.003  28.006  17.455  0.1488  0.3446  0.2047
63390W        W 6307  11.737  30.033  20.054  0.1448 -0.1103  0.0473
63391W        W 6308  11.717  26.716  15.262 -0.0091 -0.0770 -0.0342
63392W        W 6309  13.036  25.337  15.870 -0.2569 -0.0130 -0.1860
63393W        W 6310  11.867  26.290  14.981  0.0224  0.0359  0.0479
63394W        W 6311  14.415  27.577  16.292 -0.0168  0.1402 -0.1255
63395W        W 6312  11.521  28.122  15.785 -0.0822 -0.0859 -0.1126
63396W        W 6313  16.759  28.950  19.048  0.0768 -0.0502 -0.4393
63397W        W 6314  14.572  29.076  17.231 -0.1687 -0.1049  0.0239
63398W        W 6315  13.721  25.438  19.984  0.1650  0.3230  0.0053
63399W        W 6316  14.636  27.537  18.444  0.1595 -0.3918 -0.2732
63400W        W 6317  12.855  27.421  15.396 -0.1659  0.2697  0.2061
63401W        W 6318  13.358  26.883  18.647 -0.0601  0.2466  0.0965
63402W        W 6319  11.488  25.889  14.648  0.2027 -0.4001  0.0631
63403W        W 6320  12.157  26.108  16.560  0.1384 -0.0028  0.0145
63404W        W 6321   9.391  28.195  18.779  0.0484  0.0336 -0.0783
63405W        W 6322   8.857  29.034  17.206  0.0819 -0.1229 -0.1004
63406W        W 6323  12.128  29.756  18.802  0.1605  0.0425  0.1568
63407W        W 6324  15.736  28.356  19.707  0.0583 -0.2809  0.2571
63408W        W 6325  12.336  24.611  17.940 -0.1691  0.0854  0.0450
63409W        W 6326  12.335  25.680  15.411 -0.1775 -0.0165 -0.0721
63410W        W 6327  12.705  29.389  15.621  0.4545  0.0783  0.2926
63411W        W 6328  12.657  28.409  16.134 -0.1799  0.0461 -0.1906
63412W        W 6329  12.623  26.331  15.817 -0.1363  0.1350  0.0146
63413W        W 6330  13.815  31.156  16.756 -0.2852  0.0043  0.0696
63414W        W 6331  11.944  28.993  16.094 -0.1397 -0.0534 -0.1550
63415W        W 6332  13.836  29.354  19.586 -0.2905  0.0861 -0.1571
63416W        W 6333  12.238  28.641  16.008 -0.0103  0.0618  0.1640
63417W        W 6334  12.565  26.421  17.806  0.0596 -0.3407  0.2002
63418W        W 6335  12.088  30.153  17.804 -0.0997 -0.0061  0.1433
63419W        W 6336   9.826  27.553  17.071 -0.1737  0.0093  0.1263
63420W        W 6337  11.585  27.568  15.502  0.1828  0.1538  0.0022
63421W        W 6338  14.435  27.109  17.148 -0.3900  0.1115 -0.1210
63422W        W 6339  13.119  29.238  15.150 -0.0023  0.0490 -0.2322
63423W        W 6340  12.334  28.651  19.505  0.0924  0.0153  0.2663
63424W        W 6341  12.606  25.544  17.422 -0.1663 -0.3463 -0.0289
63425W        W 6342  13.214  27.139  18.226 -0.0407 -0.0341  0.0516
63426W        W 6343  13.318  26.606  19.958  0.1230  0.3669 -0.3288
63427W        W 6344  13.154  27.781  15.462  0.2825  0.1359 -0.1665
63428W        W 6345  11.086  30.950  18.694  0.0602 -0.0456 -0.0503
63429W        W 6346  12.065  28.719  19.082  0.1576 -0.6555  0.0304
63430W        W 6347  12.527  25.974  16.316 -0.0717 -0.0336 -0.0497
63431W        W 6348  12.788  26.151  18.383 -0.1301  0.0283 -0.0113
63432W        W 6349  13.163  27.130  16.931 -0.3685  0.0640 -0.1443
63433W        W 6350  11.042  27.542  17.471 -0.0911 -0.3635  0.0384
63434W        W 6351  12.682  28.085  20.752  0.0450  0.1723  0.0282
63435W        W 6352  12.789  27.403  16.408 -0.1413  0.2789  0.1711
63436W        W 6353  12.873  27.896  18.992 -0.3838  0.0629 -0.1093
63437W        W 6354  11.522  26.827  19.861 -0.0459  0.0335 -0.0640
63438W        W 6355  12.379  28.113  17.535  0.0591  0.2357 -0.4245
63439W        W 6356  12.375  27.776  18.129 -0.1054 -0.0540 -0.1793
63440W        W 6357  12.479  27.081  15.339  0.3442 -0.2528  0.0114
63441W        W 6358  14.128  28.118  17.898 -0.0732 -0.2340  0.1368
63442W        W 6359  13.744  26.405  20.327  0.0172  0.0779  0.1867
63443W        W 6360  14.153  26.442  17.115 -0.2653 -0.3005 -0.0227
63444W        W 6361   9.440  29.449  19.045  0.1365  0.2109 -0.2376
63445W        W 6362  11.969  25.596  15.792 -0.0859  0.0538  0.0933
63446W        W 6363  15.369  31.616  15.881 -0.2235 -0.0073 -0.0784
63447W        W 6364  14.054  27.130  17.913 -0.0476  0.0994  0.0241
63448W        W 6365  11.965  29.869  16.649  0.0214 -0.0555  0.0397
63449W        W 6366  11.654  26.746  16.836  0.0933  0.2885 -0.1336
63450W        W 6367  12.559  26.932  16.417 -0.1401  0.1224  0.0337
63451W        W 6368  12.781  28.307  19.772  0.3011  0.2733 -0.0406
63452W        W 6369  11.386  29.118  21.439 -0.2623 -0.1153  0.0324
63453W        W 6370  12.354  28.108  15.212  0.3890  0.4052 -0.0820
63454W        W 6371  10.261  29.427  18.423 -0.1025 -0.3357 -0.0369
63455W        W 6372  13.159  26.200  15.698  0.2297  0.3392  0.1733
63456W        W 6373  12.945  28.903  16.121 -0.0098 -0.1549  0.1916
63457W        W 6374  14.236  28.523  17.618  0.3511 -0.4299 -0.0278
63458W        W 6375  16.114  25.912  18.219  0.3172  0.1510  0.0679
63459W        W 6376  12.877  28.084  15.862  0.1674 -0.0158  0.1192
63460W        W 6377  14.292  26.689  19.187 -0.2679 -0.1590  0.1848
63461W        W 6378  12.773  25.104  19.657  0.0291 -0.0277 -0.0863
63462W        W 6379  13.604  28.368  16.863 -0.4379  0.0630 -0.1589
63463W        W 6380  11.613  25.955  19.169  0.1615 -0.0162 -0.0531
63464W        W 6381  12.247  30.379  20.226 -0.4340  0.0486  0.1234
63465W        W 6382  12.281  28.502  20.022 -0.2632 -0.0606 -0.2484
63466W        W 6383  14.076  25.949  17.733 -0.1402  0.1774  0.0759
63467W        W 6384  11.455  25.001  16.780 -0.3825  0.1859  0.0690
63468W        W 6385  12.243  28.246  19.072  0.0465  0.1624  0.0883
63469W        W 6386  13.743  30.396  16.327 -0.0827  0.1141  0.2413
63470W        W 6387  12.027  27.208  15.634  0.0561 -0.2779 -0.2452
63471W        W 6388  15.832  27.503  17.546 -0.0568  0.1638 -0.1697
63472W        W 6389  12.153  27.167  16.601  0.4464  0.0654 -0.0486
63473W        W 6390  13.248  27.311  15.767 -0.4126 -0.2939  0.2908
63474W        W 6391  11.916  26.910  16.160  0.1790 -0.1820  0.2516
63475W        W 6392  11.882  29.049  16.862  0.0576  0.0652 -0.1342
63476W        W 6393  12.029  25.520  17.452  0.0967  0.0350 -0.4588
63477W        W 6394  12.863  28.247  15.352 -0.2385 -0.1988 -0.0642
63478W        W 6395  13.227  27.163  17.436  0.1142 -0.0205 -0.0569
63479W        W 6396  15.169  28.222  16.510 -0.1304  0.4711  0.1323
63480W        W 6397  15.163  27.932  19.051  0.0349  0.0008 -0.2645
63481W        W 6398  13.114  28.099  17.752 -0.1441  0.2237 -0.1044
63482W        W 6399  13.756  27.355  20.112  0.1020  0.1877 -0.0273
63483W        W 6400  14.987  26.715  16.515 -0.1775 -0.1794 -0.1431
63484W        W 6401  13.253  24.096  16.375  0.2135  0.0640  0.0413
63485W        W 6402  14.311  27.172  18.377 -0.2250  0.4480  0.2405
63486W        W 6403  14.753  26.318  16.364 -0.0684  0.1053  0.0052
63487W        W 6404  14.351  26.828  15.447  0.3112 -0.0887 -0.3836
63488W        W 6405  13.014  28.129  18.304 -0.1153 -0.0311  0.4100
63489W        W 6406  14.887  28.648  19.197  0.0988  0.1885  0.0497
63490W        W 6407  13.103  25.830  16.517 -0.0233 -0.0339 -0.3069
63491W        W 6408  15.188  27.004  20.387  0.1088 -0.1690  0.2280
63492W        W 6409  12.170  29.713  15.456 -0.3319  0.1426 -0.0823
63493W        W 6410  14.582  28.148  16.414  0.1260  0.1670  0.1835
63494W        W 6411  14.715  27.036  16.763  0.0727  0.1810  0.2942
63495W        W 6412  13.108  27.369  18.784 -0.1822 -0.3036 -0.0787
63496W        W 6413  11.380  29.487  17.848  0.0448  0.0241 -0.2538
63497W        W 6414  13.387  26.723  15.514  0.2753  0.1504  0.2979
63498W        W 6415  11.776  26.233  15.520  0.1614 -0.1681  0.2073
63499W        W 6416  10.254  28.463  18.616  0.0649  0.1827  0.1952
63500W        W 6417  12.984  30.795  20.600  0.0706 -0.2819 -0.1420
63501W        W 6418  14.577  26.610  15.917  0.0457  0.0937 -0.1566
63502W        W 6419  16.104  29.006  18.937 -0.1085 -0.3007  0.0079
63503W        W 6420  12.457  27.639  17.313  0.2373 -0.0676  0.0762
63504W        W 6421  15.534  28.073  17.348  0.2535 -0.1641  0.0677
63505W        W 6422  13.321  29.717  17.629  0.1991  0.3483 -0.2124
63506W        W 6423  10.178  30.907  18.345 -0.0266 -0.0489  0.0637
63507W        W 6424  11.313  28.451  16.036 -0.0332  0.3065  0.1107
63508W        W 6425  13.835  25.701  15.433  0.0212 -0.1623 -0.2971
63509W        W 6426  15.729  27.368  16.490  0.0230  0.0290  0.1811
63510W        W 6427  12.515  26.129  18.821  0.1808 -0.1328  0.4204
63511W        W 6428  16.755  26.706  19.799  0.1242  0.1937 -0.1368
63512W        W 6429  10.738  28.335  18.919  0.1223 -0.0775  0.2481
63513W        W 6430  12.174  26.057  15.813  0.0010 -0.5087 -0.0671
63514W        W 6431  11.823  31.444  18.130 -0.3163  0.0792  0.0075
63515W        W 6432  13.350  29.269  16.785 -0.0230  0.2270  0.0951
63516W        W 6433  12.439  29.451  19.081  0.1626  0.1094 -0.0206
63517W        W 6434  11.727  28.245  19.078  0.0720 -0.0233 -0.0452
63518W        W 6435  12.440  26.737  21.314 -0.1999  0.1643 -0.4232
63519W        W 6436  13.258  28.748  16.516  0.1469 -0.1489 -0.0969
63520W        W 6437  12.450  25.214  16.530  0.1394 -0.0134 -0.2420
63521W        W 6438  13.654  28.007  16.436 -0.1500  0.3190 -0.4882
63522W        W 6439   9.890  30.565  19.134 -0.2921 -0.1435 -0.2739
63523W        W 6440  11.313  27.017  17.082 -0.0339 -0.0369 -0.0253
63524W        W 6441  12.606  28.897  15.738  0.2080  0.2285  0.1532
63525W        W 6442  14.818  28.347  16.836  0.2367 -0.1205  0.1713
63526W        W 6443  13.849  27.230  15.943  0.1046  0.3787 -0.0895
63527W        W 6444  15.121  30.472  18.430  0.1047  0.2425  0.1424
63528W        W 6445  13.694  26.622  16.887  0.0321  0.0499 -0.2530
63529W        W 6446  11.223  30.576  19.010  0.0625 -0.0871 -0.1941
63530W        W 6447  11.061  28.543  15.133  0.1604  0.0365 -0.3084
63531W        W 6448  14.301  28.956  18.395 -0.3513  0.2522 -0.1987
63532W        W 6449  13.548  31.413  19.174 -0.0027 -0.0346 -0.1123
63533W        W 6450  14.548  27.063  19.463  0.1496  0.0401 -0.0157
63534W        W 6451  13.547  25.384  15.816 -0.2450  0.0911 -0.3325
63535W        W 6452  15.130  27.735  16.276  0.1701 -0.0529 -0.1989
63536W        W 6453  13.992  27.799  16.140 -0.0103  0.1179 -0.2039
63537W        W 6454  13.728  29.540  19.060 -0.3013 -0.0796  0.0712
63538W        W 6455  13.410  27.585  18.412 -0.0173  0.1114  0.1389
63539W        W 6456  11.154  25.524  15.200 -0.2426 -0.0438  0.1678
63540W        W 6457  11.875  27.774  17.209  0.1309 -0.1662 -0.2035
63541W        W 6458  13.078  25.949  18.765 -0.1129 -0.0326 -0.1715
63542W        W 6459   9.733  27.575  18.585 -0.4470  0.0900  0.1451
63543W        W 6460  15.299  30.192  18.778  0.2959 -0.0668  0.4728
63544W        W 6461  11.753  27.508  16.428 -0.0552 -0.0940  0.0654
63545W        W 6462  12.362  26.723  17.445  0.0456  0.0759 -0.0126
63546W        W 6463  13.816  26.402  19.796 -0.3134 -0.0799  0.0889
63547W        W 6464  12.419  28.204  14.754 -0.0939  0.1018 -0.1045
63548W        W 6465  14.123  27.637  18.116  0.0989 -0.0802 -0.2126
63549W        W 6466  10.655  29.898  15.761 -0.4685  0.0149  0.6212
63550W        W 6467  11.105  28.312  15.618 -0.0725 -0.2108  0.0189
63551W        W 6468  11.776  28.531  16.200 -0.0498 -0.1266  0.0545
63552W        W 6469  10.721  25.518  16.107 -0.0080 -0.1947 -0.1097
63553W        W 6470  15.768  28.428  17.744 -0.2157  0.0193  0.2010
63554W        W 6471  13.308  25.506  18.003  0.1215 -0.4125  0.3631
63555W        W 6472  14.646  27.707  18.950 -0.0438  0.1512 -0.1025
63556W        W 6473  12.557  26.837  15.868  0.6278 -0.0926 -0.0568
63557W        W 6474  14.006  28.847  16.669 -0.0024  0.0267 -0.1791
63558W        W 6475  12.020  28.890  18.627  0.2414 -0.0659  0.1024
63559W        W 6476  12.444  27.159  19.048 -0.0988  0.1575  0.2557
63560W        W 6477  13.660  28.649  15.538  0.2743 -0.1054  0.0490
63561W        W 6478  12.643  27.331  18.186 -0.0755 -0.1266 -0.2624
63562W        W 6479  13.739  26.701  14.740 -0.0309 -0.0031  0.0710
63563W        W 6480  13.696  28.925  19.840 -0.0314 -0.1619  0.4307
63564W        W 6481  11.476  25.505  16.576 -0.0112 -0.1544 -0.1378
63565W        W 6482  13.915  26.962  16.375  0.3130 -0.0431  0.3143
63566W        W 6483  11.569  27.109  15.401 -0.1542 -0.2953 -0.0072
63567W        W 6484  12.249  29.018  19.966 -0.4121  0.1068 -0.0535
63568W        W 6485  12.923  29.730  19.221 -0.1678  0.0630 -0.0583
63569W        W 6486  11.651  26.440  17.235 -0.0679  0.1606 -0.1635
63570W        W 6487  15.418  29.271  16.483  0.1159  0.3554 -0.0340
63571W        W 6488  13.840  26.303  17.481 -0.1904  0.0282 -0.0273
63572W        W 6489  13.224  29.769  16.451  0.0393 -0.0943  0.3497
63573W        W 6490  14.228  27.264  15.516  0.1995 -0.0403  0.0969
63574W        W 6491  12.837  28.446  17.567 -0.1859 -0.1794  0.1150
63575W        W 6492  11.904  26.059  19.570 -0.0172 -0.3013 -0.1427
63576W        W 6493  13.031  30.236  18.448 -0.2416 -0.0761  0.0500
63577W        W 6494  12.990  28.987  18.656  0.2287 -0.1326 -0.4545
63578W        W 6495  12.808  26.065  19.214 -0.2275  0.4240 -0.2335
63579W        W 6496  11.416  25.721  17.024 -0.2834 -0.1329  0.0347
63580W        W 6497  11.883  28.244  17.511 -0.3272  0.1517  0.0546
63581W        W 6498  14.425  28.053  17.039  0.0707  0.1169  0.0669
63582W        W 6499  14.499  27.977  17.623 -0.2583  0.1146  0.0277
63583W        W 6500  12.252  29.434  14.624  0.2739  0.1178  0.2829
63584W        W 6501  15.716  26.979  19.719 -0.3385  0.0980  0.2513
63585W        W 6502  10.814  29.616  19.072  0.0411  0.2393 -0.1672
63586W        W 6503  12.013  29.437  20.064  0.0879 -0.2775  0.0988
63587W        W 6504  10.765  26.924  15.889  0.1828 -0.2825 -0.0048
63588W        W 6505   9.887  27.812  16.640 -0.0444  0.2418  0.1847
63589W        W 6506  13.360  28.250  15.661 -0.1175  0.2698 -0.0381
63590W        W 6507  12.845  29.121  16.545 -0.2277  0.1845 -0.1528
63591W        W 6508  14.354  28.599  17.152 -0.0830 -0.2025  0.2340
63592W        W 6509  14.411  25.244  20.706 -0.0160 -0.0027  0.2177
63593W        W 6510  14.126  30.762  16.543 -0.0075 -0.0184 -0.1802
63594W        W 6511  12.523  26.704  16.950 -0.2234 -0.0743  0.1958
63595W        W 6512  15.427  25.226  18.077 -0.0676 -0.2234 -0.1105
63596W        W 6513  13.468  26.265  15.227  0.1977 -0.2574  0.1570
63597W        W 6514  11.519  28.903  17.847  0.0924 -0.1200 -0.2467
63598W        W 6515  10.305  26.183  15.374  0.0196  0.0757  0.3939
63599W        W 6516  12.036  28.396  15.448  0.0423  0.1819 -0.0770
63600W        W 6517  12.165  26.620  16.605  0.2783  0.0656  0.0071
63601W        W 6518  11.298  25.220  18.491 -0.0911 -0.1362  0.0867
63602W        W 6519  12.623  28.584  18.418 -0.1867 -0.0931 -0.2924
63603W        W 6520  12.240  25.168  15.669 -0.0901 -0.2698  0.1544
63604W        W 6521  13.176  24.168  14.697  0.0013  0.1074 -0.1120
63605W        W 6522  11.816  30.239  15.104 -0.0864  0.2760 -0.0267
63606W        W 6523  11.069  25.159  16.459 -0.0983 -0.0823 -0.0716
63607W        W 6524  11.642  26.869  18.003 -0.0950 -0.0873 -0.0512
63608W        W 6525  13.213  27.771  16.149 -0.0613 -0.3694  0.1790
63609W        W 6526  13.063  28.593  18.081  0.0849  0.2189  0.0809
63610W        W 6527  11.150  26.098  15.575 -0.1916  0.0534 -0.2225
63611W        W 6528  12.834  30.580  17.175 -0.1468 -0.0995  0.0222
63612W        W 6529  10.339  28.064  15.288 -0.0197  0.1153  0.2060
63613W        W 6530  12.834  27.708  20.412 -0.0708  0.0022 -0.1144
63614W        W 6531  10.926  25.730  16.582  0.1862 -0.0886 -0.1337
63615W        W 6532   9.459  24.001  15.781  0.2257 -0.1919  0.0993
63616W        W 6533  12.845  25.881  17.930 -0.0480  0.1945  0.1862
63617W        W 6534  13.031  28.612  15.665 -0.3921 -0.0477  0.0804
63618W        W 6535  12.324  29.093  15.077  0.1495 -0.0870 -0.1917
63619W        W 6536  13.731  26.439  19.279  0.0488  0.1402  0.2411
63620W        W 6537  11.411  30.223  18.710 -0.1206 -0.1168 -0.0716
63621W        W 6538  10.149  24.226  17.690 -0.0680  0.3066 -0.0054
63622W        W 6539  13.775  28.213  15.976  0.0587 -0.0608 -0.1811
63623W        W 6540  12.704  29.322  20.066 -0.1810  0.0798  0.1828
63624W        W 6541  13.051  29.335  17.840  0.0306  0.2087 -0.3741
63625W        W 6542  13.706  27.212  18.762  0.0878 -0.1225  0.0278
63626W        W 6543  15.459  28.041  15.936  0.3171 -0.1343  0.0763
63627W        W 6544  11.373  25.450  18.066  0.1664  0.1042 -0.1689
63628W        W 6545  11.155  30.424  17.145 -0.0421  0.0250 -0.1010
63629W        W 6546  14.043  28.142  17.363  0.0749  0.0816 -0.1585
63630W        W 6547  10.647  26.316  15.772  0.0185  0.2556  0.0802
63631W        W 6548  13.156  26.226  16.228 -0.0584  0.4185 -0.2921
63632W        W 6549  12.529  29.187  16.980 -0.1302 -0.0220 -0.2169
63633W        W 6550  12.145  28.654  18.122 -0.1616  0.0156 -0.0362
63634W        W 6551  12.934  25.488  18.331 -0.1243 -0.0232 -0.1116
63635W        W 6552  12.702  27.158  18.652 -0.0436  0.0439 -0.1246
63636W        W 6553  12.418  27.726  14.608  0.0565 -0.2141 -0.1392
63637W        W 6554  15.002  27.325  17.905 -0.1517  0.0102  0.0438
63638W        W 6555  12.634  27.866  15.512 -0.1641  0.1724  0.0416
63639W        W 6556  14.492  28.454  16.010  0.2501  0.3303 -0.2608
63640W        W 6557  12.854  31.418  15.979  0.2893 -0.2094 -0.1754
63641W        W 6558  13.561  29.240  20.725 -0.3139  0.0793  0.1258
63642W        W 6559  12.955  30.887  18.432  0.3308  0.1880 -0.0487
63643W        W 6560  16.117  30.828  18.903  0.1716  0.0354 -0.0775
63644W        W 6561  14.267  25.516  18.321  0.0102  0.1694 -0.2417
63645W        W 6562  13.745  27.912  16.938  0.1608  0.0574  0.1233
63646W        W 6563  12.420  28.143  16.750 -0.3103 -0.0085 -0.2806
63647W        W 6564  12.243  29.161  18.254 -0.2605  0.2030 -0.3052
63648W        W 6565  11.338  28.254  16.450  0.3187  0.1735  0.0103
63649W        W 6566  12.762  25.935  15.387 -0.2677  0.0596  0.2229
63650W        W 6567  10.716  31.408  19.212 -0.2134  0.0725 -0.1755
63651W        W 6568  12.624  29.611  16.570 -0.1039 -0.0954 -0.0495
63652W        W 6569  10.309  27.227  21.643  0.1011  0.4387  0.1079
63653W        W 6570  12.371  25.346  22.010 -0.0543  0.1503  0.1971
63654W        W 6571  13.381  25.062  18.832 -0.1296  0.1697 -0.1202
63655W        W 6572  15.087  26.990  21.497  0.0809  0.2178 -0.0534
63656W        W 6573  12.967  25.242  20.291 -0.2509 -0.4517 -0.0097
63657W        W 6574  13.898  29.646  20.556  0.0051 -0.0654 -0.1836
63658W        W 6575  10.274  24.487  23.748  0.1248 -0.0747  0.1260
63659W        W 6576  13.264  30.124  21.698  0.0504  0.2813 -0.0866
63660W        W 6577  14.923  30.758  20.681  0.1261  0.0821 -0.0369
63661W        W 6578  13.493  28.982  18.705 -0.0534 -0.3847 -0.3076
63662W        W 6579  11.868  28.534  21.591 -0.0410 -0.0673 -0.2626
63663W        W 6580  14.340  30.244  24.276  0.0930  0.1387  0.0871
63664W        W 6581  12.656  27.340  21.278  0.1694 -0.1691 -0.1114
63665W        W 6582  10.840  25.123  22.515 -0.0063  0.2021 -0.1080
63666W        W 6583  12.678  27.767  22.958 -0.4258  0.1816 -0.2098
63667W        W 6584  11.264  26.954  20.257 -0.3720 -0.0794  0.1422
63668W        W 6585  11.542  26.627  21.219 -0.0650 -0.1740  0.0886
63669W        W 6586  14.116  27.215  22.082 -0.1179  0.0212  0.1698
63670W        W 6587  14.367  28.367  21.314  0.0309 -0.3646 -0.2285
63671W        W 6588  12.931  28.099  23.548  0.1712  0.2912 -0.0958
63672W        W 6589  11.930  22.667  21.273 -0.0243  0.1232 -0.0419
63673W        W 6590  12.507  30.411  20.974  0.2778 -0.0282 -0.3166
63674W        W 6591  12.000  26.802  21.157 -0.1335  0.0903  0.2160
63675W        W 6592  12.908  26.249  20.634  0.0713  0.2059  0.1454
63676W        W 6593  12.494  28.031  23.334  0.0252  0.1710 -0.0357
63677W        W 6594  14.088  26.826  19.646 -0.1611 -0.2202 -0.1092
63678W        W 6595  15.295  27.412  19.962  0.1787 -0.0491 -0.0242
63679W        W 6596  12.881  29.929  21.283  0.1992  0.0198  0.0866
63680W        W 6597  12.599  27.036  19.501 -0.0335  0.3187 -0.0179
63681W        W 6598  12.275  26.512  22.466 -0.0018 -0.2997 -0.0610
63682W        W 6599  11.140  26.938  21.105 -0.3594  0.2375 -0.3047
63683W        W 6600  10.404  29.189  21.115 -0.1889 -0.0469  0.0685
63684W        W 6601  12.891  28.737  19.484  0.1770 -0.2479 -0.1787
63685W        W 6602  16.394  27.413  19.200 -0.1918 -0.0483 -0.3978
63686W        W 6603  13.068  28.973  20.987  0.2188  0.2378 -0.1526
63687W        W 6604  13.672  28.292  23.656 -0.2224 -0.3306  0.2786
63688W        W 6605  10.546  27.459  19.366 -0.2299  0.1476  0.3160
63689W        W 6606  13.205  28.554  25.296  0.1216  0.0453 -0.2466
63690W        W 6607  11.711  29.408  22.115 -0.2675  0.1676  0.2598
63691W        W 6608  12.237  28.018  20.949 -0.0005 -0.0333  0.1154
63692W        W 6609  11.437  28.140  21.362  0.2772 -0.0112  0.0959
63693W        W 6610  11.375  28.646  21.719  0.0623  0.0244 -0.0401
63694W        W 6611  10.831  28.686  20.752  0.0060 -0.0810 -0.2855
63695W        W 6612  11.389  26.817  24.583  0.2706 -0.0358  0.1907
63696W        W 6613  12.834  27.026  21.594  0.2386 -0.0136  0.1097
63697W        W 6614  14.092  28.560  23.528  0.0020  0.2021 -0.1379
63698W        W 6615  12.264  29.032  20.847 -0.3174 -0.0940  0.2895
63699W        W 6616  13.843  27.520  19.156  0.1565 -0.2090 -0.4283
63700W        W 6617  14.837  26.970  18.335  0.0439  0.3229 -0.1824
63701W        W 6618  15.749  26.435  19.758 -0.3568  0.0045 -0.1589
63702W        W 6619  12.398  25.878  19.434  0.2655 -0.1029  0.3329
63703W        W 6620  10.201  30.011  20.077 -0.0009  0.3069 -0.0587
63704W        W 6621  14.251  26.949  24.103  0.0481 -0.5032  0.2876
63705W        W 6622  14.113  26.565  21.932  0.0806 -0.1635  0.2885
63706W        W 6623  11.085  28.559  20.340  0.1521  0.0089  0.0206
63707W        W 6624  14.397  26.717  22.822 -0.1524  0.1086 -0.0392
63708W        W 6625  13.071  29.567  21.896 -0.0888 -0.2630 -0.1438
63709W        W 6626  11.138  26.453  20.100 -0.1119 -0.0067 -0.3596
63710W        W 6627  13.540  28.084  18.301  0.3450 -0.2720 -0.4526
63711W        W 6628  12.848  29.340  22.337  0.0476  0.0061 -0.1440
63712W        W 6629  11.461  29.482  19.215  0.1046 -0.0503 -0.0395
63713W        W 6630  12.453  26.515  20.780  0.0578  0.0496 -0.2381
63714W        W 6631  11.279  27.641  23.393 -0.1543  0.2121  0.0052
63715W        W 6632  11.242  29.049  22.778  0.3672 -0.1376  0.0174
63716W        W 6633  11.443  25.948  18.012 -0.0180 -0.0545  0.1020
63717W        W 6634  17.241  27.071  22.159 -0.1763  0.0727  0.0409
63718W        W 6635  10.874  27.734  22.586  0.1208  0.1391  0.3501
63719W        W 6636  14.121  25.689  20.811  0.1161  0.1606 -0.1585
63720W        W 6637  12.742  29.337  20.789 -0.2987  0.2537 -0.1228
63721W        W 6638  13.800  30.941  19.208  0.1055 -0.1323 -0.2594
63722W        W 6639  12.762  29.675  20.417 -0.2023  0.0746  0.2859
63723W        W 6640  14.475  26.442  21.583  0.2736  0.2462  0.0924
63724W        W 6641  15.554  25.606  20.312  0.0305 -0.1782  0.1652
63725W        W 6642  11.986  31.220  20.324  0.1450  0.2934 -0.2952
63726W        W 6643  10.086  29.987  18.448  0.1405 -0.0703 -0.0686
63727W        W 6644  13.426  28.733  22.886 -0.0411  0.3916  0.2367
63728W        W 6645  14.905  27.934  19.916 -0.2725  0.0763  0.0812
63729W        W 6646  10.119  28.745  21.941 -0.1975 -0.2616  0.0859
63730W        W 6647  11.819  28.021  22.682 -0.3397 -0.0150  0.3195
63731W        W 6648  12.264  27.838  22.513 -0.0834 -0.0896 -0.2826
63732W        W 6649   9.943  28.813  17.705 -0.1753  0.0064 -0.0788
63733W        W 6650   9.915  27.770  20.883  0.2736 -0.3634 -0.1011
63734W        W 6651  11.313  27.974  19.391 -0.0849 -0.3838 -0.0721
63735W        W 6652  12.260  25.073  20.718  0.1078 -0.1548 -0.0925
63736W        W 6653  11.622  28.999  22.447  0.0157  0.1636  0.2500
63737W        W 6654  13.584  27.733  21.505  0.2347 -0.3119  0.0867
63738W        W 6655  12.569  26.206  21.190  0.0552  0.2622 -0.2115
63739W        W 6656  12.863  25.599  19.382 -0.1584 -0.0635 -0.3699
63740W        W 6657  11.304  28.253  19.859  0.0277  0.1680  0.1857
63741W        W 6658  13.971  30.011  20.133  0.1672 -0.0984  0.2608
63742W        W 6659  15.265  28.371  19.933  0.0484 -0.0799  0.0724
63743W        W 6660  14.260  26.415  17.791  0.1614  0.1434 -0.0182
63744W        W 6661  10.908  26.635  22.308  0.0355 -0.1394  0.0375
63745W        W 6662  12.884  26.518  19.615 -0.4273  0.0809 -0.1672
63746W        W 6663  12.479  26.877  23.490  0.0448 -0.0521  0.4999
63747W        W 6664  11.068  26.441  21.114  0.0199  0.1941 -0.0425
63748W        W 6665  13.425  27.931  22.509 -0.4132  0.2673  0.0899
63749W        W 6666  12.310  27.216  21.722  0.1739  0.3163  0.1585
63750W        W 6667  13.673  25.932  19.817  0.1258 -0.1263  0.0035
63751W        W 6668  12.480  27.516  19.479  0.4140  0.0046 -0.0107
63752W        W 6669  11.528  28.980  19.008  0.3516  0.3168 -0.0829
63753W        W 6670  13.736  24.774  25.140  0.1450  0.0080  0.3294
63754W        W 6671  15.271  25.729  20.991  0.0065 -0.0766  0.0368
63755W        W 6672  14.150  30.522  22.265  0.3356 -0.1149  0.0353
63756W        W 6673  13.518  30.242  20.022 -0.0373  0.0293  0.0176
63757W        W 6674  12.764  26.612  22.427 -0.1766  0.0582  0.1412
63758W        W 6675  10.845  27.052  17.839  0.0164  0.1418  0.0299
63759W        W 6676  11.040  31.011  19.215  0.1925  0.0001 -0.1235
63760W        W 6677  11.833  27.714  21.001  0.2420  0.1600  0.3274
63761W        W 6678  12.919  26.681  18.238  0.1185  0.3756 -0.0611
63762W        W 6679  14.240  30.112  20.568  0.2542  0.0188  0.2500
63763W        W 6680  12.057  29.028  17.736  0.2949 -0.0696 -0.3758
63764W        W 6681   9.640  27.749  22.929 -0.3065 -0.0989  0.1694
63765W        W 6682  13.363  24.045  24.686  0.1147 -0.1388 -0.2776
63766W        W 6683  12.356  28.075  19.627 -0.2405 -0.2715  0.3295
63767W        W 6684  13.807  26.598  21.018  0.0058 -0.0921 -0.2442
63768W        W 6685  12.003  26.545  19.799 -0.2334  0.0446 -0.0583
63769W        W 6686  13.372  29.261  19.977 -0.0241 -0.1375 -0.4551
63770W        W 6687  10.956  30.358  18.387 -0.0116 -0.1905 -0.4265
63771W        W 6688   9.285  26.542  18.653  0.1580  0.0053 -0.1510
63772W        W 6689  11.777  28.262  21.002  0.1223 -0.2269  0.0377
63773W        W 6690  15.374  26.550  21.585  0.2664  0.1032 -0.3403
63774W        W 6691  11.302  27.486  22.508 -0.0270 -0.0254 -0.2296
63775W        W 6692  11.141  27.292  24.758  0.0525  0.1753 -0.1259
63776W        W 6693  13.259  26.337  18.421  0.0060  0.0544  0.0725
63777W        W 6694  10.702  29.615  21.498  0.3175 -0.0884 -0.1084
63778W        W 6695  14.880  24.761  20.132  0.0446  0.0476 -0.2418
63779W        W 6696  14.703  26.116  20.438 -0.3238  0.0223  0.0171
63780W        W 6697  12.988  28.784  23.487 -0.1336  0.1215  0.1538
63781W        W 6698  12.809  30.718  20.099  0.1987  0.1026  0.1692
63782W        W 6699  13.759  25.848  18.794 -0.0981 -0.0659 -0.0925
63783W        W 6700  13.761  26.253  18.560  0.0740 -0.0275 -0.0612
63784W        W 6701  12.159  28.309  23.061  0.1042  0.2162  0.1184
63785W        W 6702  12.558  28.901  21.331  0.1902 -0.0219  0.1440
63786W        W 6703  13.052  27.481  22.199  0.1104 -0.1644 -0.2080
63787W        W 6704  13.575  26.278  18.009  0.2640  0.1967  0.0124
63788W        W 6705  14.753  28.116  19.368  0.2505  0.0962  0.0416
63789W        W 6706  12.449  26.665  21.818  0.0404 -0.1008  0.2901
63790W        W 6707  11.450  25.925  23.385  0.1832  0.1097 -0.1661
63791W        W 6708  12.290  28.366  20.574 -0.1160 -0.0497  0.0858
63792W        W 6709  13.262  26.616  22.520  0.1881  0.0516  0.0784
63793W        W 6710  13.404  28.249  21.555 -0.1805  0.1123 -0.0632
63794W        W 6711  14.170  28.104  19.383 -0.0498 -0.1886  0.3485
63795W        W 6712  11.889  27.855  19.517 -0.1071 -0.2335 -0.0194
63796W        W 6713  14.678  26.633  22.345 -0.1373  0.3315  0.0316
63797W        W 6714  14.196  27.693  22.047  0.3025 -0.1778 -0.0822
63798W        W 6715  12.068  27.390  24.406  0.1245 -0.1563 -0.0911
63799W        W 6716  13.005  27.142  23.314 -0.1859 -0.0967 -0.1817
63800W        W 6717  15.969  26.277  18.587 -0.1174  0.2697  0.3194
63801W        W 6718  14.153  29.186  20.534  0.0165  0.1473 -0.2394
63802W        W 6719  11.872  28.389  19.697 -0.2548  0.1273 -0.0594
63803W        W 6720  12.690  27.043  22.130  0.0103  0.1563 -0.2052
63804W        W 6721  12.280  27.684  21.349  0.1244 -0.2210  0.1147
63805W        W 6722  10.703  29.044  22.675 -0.0126 -0.2222  0.1752
63806W        W 6723  13.285  29.116  22.059  0.0252 -0.1565  0.0828
63807W        W 6724  12.983  29.498  18.733 -0.0076 -0.2606 -0.1024
63808W        W 6725  12.586  26.105  22.396  0.2971  0.0123 -0.4611
63809W        W 6726  12.681  27.825  17.753  0.2486  0.1343  0.3116
63810W        W 6727  12.408  26.761  19.910  0.1836 -0.0778 -0.3284
63811W        W 6728  11.196  28.546  18.470 -0.0012  0.1024  0.1463
63812W        W 6729  13.677  27.177  23.351  0.0905 -0.1890  0.0788
63813W        W 6730  11.350  29.718  22.025 -0.3335 -0.3860 -0.2380
63814W        W 6731  12.137  28.406  18.628  0.2809  0.0395  0.1838
63815W        W 6732  12.265  28.812  21.752  0.0404  0.1510 -0.1832
63816W        W 6733  11.812  30.218  20.725  0.1957  0.1988 -0.0671
63817W        W 6734  14.881  26.461  21.322 -0.0257  0.1043  0.2489
63818W        W 6735  10.996  27.489  19.734 -0.1793  0.0422 -0.4950
63819W        W 6736  11.880  29.951  18.349  0.3219  0.0341 -0.0156
63820W        W 6737   9.778  27.943  18.977 -0.2488  0.0684 -0.1310
63821W        W 6738  12.376  27.392  20.214  0.1595  0.0318 -0.0725
63822W        W 6739  15.234  28.710  16.777  0.1114  0.0601  0.0026
63823W        W 6740  10.912  25.998  21.389 -0.0592  0.1906  0.2929
63824W        W 6741  11.338  25.197  22.601  0.5227 -0.0069 -0.0580
63825W        W 6742   9.559  26.329  20.784  0.0087  0.0513 -0.1361
63826W        W 6743  11.768  28.216  20.529 -0.1584 -0.4032  0.0481
63827W        W 6744  14.094  27.027  20.986  0.0726  0.0332 -0.2736
63828W        W 6745  13.647  27.314  22.033 -0.0511 -0.1759  0.0341
63829W        W 6746  12.574  27.982  22.074  0.0657  0.1291  0.3144
63830W        W 6747  11.485  27.899  17.513  0.2193  0.0672  0.0017
63831W        W 6748  13.634  28.091  22.911 -0.5492 -0.0422 -0.1956
63832W        W 6749  12.312  26.075  20.545  0.0194 -0.0957  0.1210
63833W        W 6750  10.627  27.718  20.436 -0.0824  0.0245  0.3011
63834W        W 6751  12.910  28.518  21.281 -0.1792 -0.0087 -0.1639
63835W        W 6752  13.172  27.492  19.956  0.0236 -0.0805  0.0039
63836W        W 6753  10.513  27.932  18.285 -0.0132  0.0135 -0.0854
63837W        W 6754  11.145  28.077  23.633 -0.1361  0.0193 -0.0444
63838W        W 6755  12.889  27.651  20.925  0.0172  0.0686 -0.2513
63839W        W 6756  11.782  27.294  20.643  0.0836  0.2982  0.2267
63840W        W 6757  10.872  27.521  21.121 -0.1111  0.1872 -0.0057
63841W        W 6758  13.864  25.783  23.001  0.1784 -0.0784  0.1454
63842W        W 6759  13.325  29.589  22.345  0.0098 -0.0799  0.0684
63843W        W 6760  11.818  27.850  24.227  0.0914 -0.0023  0.1497
63844W        W 6761  11.806  27.962  23.243  0.0397 -0.2337  0.0005
63845W        W 6762  12.146  25.869  21.583 -0.2225  0.0902 -0.0165
63846W        W 6763  14.563  30.495  20.393  0.0285 -0.1215 -0.2329
63847W        W 6764  13.182  27.928  21.857  0.0592  0.4276 -0.2347
63848W        W 6765  10.607  29.022  18.501  0.3104 -0.0010 -0.1936
63849W        W 6766  10.277  28.085  20.553  0.3215  0.0862  0.0540
63850W        W 6767  13.108  27.987  20.026  0.1930 -0.0407 -0.1503
63851W        W 6768  13.885  27.215  22.703  0.1641 -0.0441 -0.1156
63852W        W 6769  12.623  28.092  21.268 -0.4215 -0.2549  0.1851
63853W        W 6770  11.364  27.970  22.416 -0.2763 -0.1806 -0.1528
63854W        W 6771  10.748  28.234  22.744 -0.2054 -0.1471 -0.1350
63855W        W 6772  12.930  27.164  20.507  0.2378 -0.0766 -0.4183
63856W        W 6773  13.287  31.133  19.620  0.0654  0.3497  0.2638
63857W        W 6774  12.580  28.613  24.256  0.2907 -0.0802  0.0949
63858W        W 6775  12.567  26.019  23.272  0.1062  0.1942 -0.1552
63859W        W 6776  14.592  25.300  19.895 -0.5445  0.0197 -0.1613
63860W        W 6777  13.238  28.036  23.967  0.0521 -0.0919 -0.0316
63861W        W 6778  12.172  26.964  22.140  0.0189  0.3160 -0.2431
63862W        W 6779  11.273  28.061  20.297 -0.3624  0.0347 -0.2277
63863W        W 6780  10.880  28.389  21.458 -0.0047  0.0551 -0.1248
63864W        W 6781  12.468  29.708  24.495 -0.2986  0.0914 -0.2087
63865W        W 6782  12.742  27.558  21.818 -0.0530  0.3163  0.1725
63866W        W 6783  12.885  28.469  20.273 -0.0001  0.0577  0.1099
63867W        W 6784  13.594  24.969  19.273  0.3988  0.0426 -0.2842
63868W        W 6785  11.255  28.490  22.679 -0.0213  0.1194  0.2124
63869W        W 6786  13.949  27.661  19.685 -0.0066 -0.0736  0.0969
63870W        W 6787  11.991  29.772  20.432  0.5028  0.2464  0.1666
63871W        W 6788  13.911  28.215  20.341  0.0215  0.1225  0.1874
63872W        W 6789  11.205  27.377  20.772 -0.1105  0.0205 -0.1089
63873W        W 6790  13.465  27.919  19.707 -0.2593 -0.0366  0.2855
63874W        W 6791  14.071  25.323  20.356  0.0691  0.0582  0.0586
63875W        W 6792  12.299  25.323  19.536  0.1730  0.1102  0.3343
63876W        W 6793  11.176  26.772  23.097 -0.0167  0.1026  0.2035
63877W        W 6794  15.279  27.093  19.448  0.0544  0.2917  0.3372
63878W        W 6795  13.959  26.816  20.552 -0.2861 -0.1246 -0.0744
63879W        W 6796  10.642  28.639  21.898  0.3187 -0.3168 -0.2194
63880W        W 6797  13.639  27.807  22.023 -0.1262  0.0961  0.0629
63881W        W 6798  12.023  27.728  21.896  0.3132  0.1459  0.1884
63882W        W 6799   9.567  26.189  23.544 -0.2399  0.0387  0.2633
63883W        W 6800  14.243  29.242  24.637 -0.2774  0.0027 -0.1898
63884W        W 6801  14.795  27.425  19.265 -0.0852 -0.0350  0.1278
63885W        W 6802  13.842  26.906  20.076 -0.1814 -0.0776  0.2750
63886W        W 6803  12.103  27.218  19.721 -0.0512 -0.1463  0.2327
63887W        W 6804  13.629  28.227  17.845 -0.0216 -0.4059 -0.1101
63888W        W 6805  11.065  26.989  19.803 -0.0888 -0.0467  0.0017
63889W        W 6806  15.168  26.936  21.967 -0.0305  0.3357 -0.2399
63890W        W 6807  10.899  28.214  20.619 -0.0063 -0.2720 -0.0673
63891W        W 6808  11.294  25.308  21.650  0.0846 -0.1267 -0.2968
63892W        W 6809  13.125  29.650  19.945  0.1630  0.4144  0.1533
63893W        W 6810  13.821  29.311  20.145  0.1728  0.0552 -0.1197
63894W        W 6811  11.736  26.781  18.921 -0.0664  0.0663 -0.0601
63895W        W 6812  12.838  28.265  21.733 -0.0415  0.0573  0.2083
63896W        W 6813  11.306  29.566  23.373 -0.1853  0.1176  0.0036
63897W        W 6814  12.361  26.083  19.984  0.1398  0.3159  0.1872
63898W        W 6815  11.008  28.867  18.772 -0.0447  0.0900  0.3439
63899W        W 6816  11.713  27.007  19.417 -0.2594 -0.1165 -0.2348
63900W        W 6817  15.301  27.330  23.042 -0.1759 -0.0870 -0.4053
63901W        W 6818  11.807  26.691  21.680  0.0137 -0.2349  0.2220
63902W        W 6819  12.130  25.507  23.898  0.0878  0.0185  0.1609
63903W        W 6820  10.900  28.725  22.362  0.0326  0.2580 -0.2546
63904W        W 6821  15.415  25.307  20.699  0.1289  0.0167  0.0323
63905W        W 6822  10.345  30.111  22.389 -0.2088  0.1085  0.0398
63906W        W 6823  11.157  28.142  21.814 -0.4338  0.1562 -0.0860
63907W        W 6824  11.862  28.042  20.066  0.0785  0.1274  0.1198
63908W        W 6825  13.676  26.832  21.789  0.0188  0.0868  0.0635
63909W        W 6826  14.738  26.601  20.185 -0.2625 -0.2103  0.2438
63910W        W 6827  11.743  27.201  21.831 -0.2799  0.0025 -0.0235
63911W        W 6828  13.082  27.460  22.943 -0.0499 -0.3381 -0.2865
63912W        W 6829  13.041  28.310  22.179 -0.1529 -0.1365 -0.0537
63913W        W 6830  10.769  25.510  23.817  0.0647 -0.3103 -0.2490
63914W        W 6831  13.975  28.359  21.675  0.3145 -0.0508  0.1960
63915W        W 6832  14.631  26.486  18.186  0.2291  0.0617 -0.2370
63916W        W 6833  11.052  28.779  21.169  0.2269  0.3101  0.2657
63917W        W 6834  11.475  26.897  20.743  0.0731  0.0698  0.1374
63918W        W 6835  12.784  27.625  23.476  0.1946 -0.0460 -0.1158
63919W        W 6836  12.496  28.090  20.230  0.0000 -0.1524 -0.2348
63920W        W 6837  12.553  27.060  20.891  0.0306 -0.0904 -0.1019
63921W        W 6838  12.167  29.635  18.077 -0.0423 -0.4496 -0.1984
63922W        W 6839  12.116  29.556  22.328 -0.0707 -0.0759  0.0961
63923W        W 6840  12.212  25.883  20.965 -0.0245 -0.2482 -0.1216
63924W        W 6841  10.461  28.786  18.962 -0.2122  0.1691 -0.4315
63925W        W 6842  11.697  26.517  19.399 -0.3404 -0.1982 -0.1220
63926W        W 6843  11.954  29.308  20.591  0.0595 -0.1054  0.0486
63927W        W 6844  13.559  28.338  22.034  0.1260  0.0847 -0.2418
63928W        W 6845  14.119  26.076  21.244  0.2681 -0.1251 -0.0449
63929W        W 6846  11.415  27.782  19.885 -0.2481  0.4056 -0.2354
63930W        W 6847  11.334  28.766  19.910  0.0717  0.0910  0.4470
63931W        W 6848  13.323  28.140  21.075  0.0157  0.1263 -0.3014
63932W        W 6849  10.357  28.212  19.760  0.0310  0.0031  0.0209
63933W        W 6850  15.753  29.612  21.832  0.1887  0.0808 -0.1160
63934W        W 6851  13.895  27.056  19.274  0.3732  0.0657  0.1995
63935W        W 6852  13.551  26.936  22.291  0.0714  0.1989 -0.3291
63936W        W 6853  14.522  26.539  19.620  0.3372 -0.2287  0.0499
63937W        W 6854  13.700  29.479  22.644  0.5193 -0.2805  0.0373
63938W        W 6855  13.359  27.649  21.007  0.0990 -0.1207 -0.0528
63939W        W 6856  14.407  26.818  18.690 -0.1157  0.0848  0.1237
63940W        W 6857  11.988  27.131  22.643 -0.0956  0.1221  0.2808
63941W        W 6858  13.425  26.337  21.838  0.0212 -0.1209 -0.4250
63942W        W 6859  10.856  29.223  21.189  0.1142  0.0076  0.2518
63943W        W 6860  14.624  27.843  21.571 -0.1117 -0.1123 -0.0607
63944W        W 6861  10.811  28.000  19.509  0.0159 -0.1029 -0.0669
63945W        W 6862  12.590  28.635  20.895 -0.1308 -0.0637  0.1512
63946W        W 6863  13.564  25.974  21.470 -0.3945 -0.0857 -0.0916
63947W        W 6864  13.841  26.684  17.864  0.1983  0.1673 -0.1043
63948W        W 6865  13.328  26.735  21.436 -0.3213  0.2081  0.1274
63949W        W 6866  10.935  28.997  21.633 -0.0585  0.2470 -0.3930
63950W        W 6867  12.259  29.347  21.193  0.2008  0.2997 -0.1176
63951W        W 6868  12.556  29.655  22.040  0.1984  0.0867  0.1309
63952W        W 6869  13.746  26.765  18.386  0.0404 -0.2836  0.1386
63953W        W 6870  15.685  26.076  20.047 -0.0925 -0.1457 -0.4810
63954W        W 6871  10.883  26.797  23.603 -0.1373  0.1143 -0.0322
63955W        W 6872  13.886  25.978  22.499 -0.0976  0.3573  0.2577
63956W        W 6873  12.109  27.792  20.435 -0.0672 -0.2827  0.4776
63957W        W 6874  14.873  28.407  20.174  0.0180  0.0930 -0.0359
63958W        W 6875  12.270  28.459  21.275  0.1994 -0.1802 -0.1319
63959W        W 6876  10.212  24.880  23.327 -0.2375 -0.4170 -0.3841
63960W        W 6877  11.180  26.746  18.557 -0.1471 -0.0169 -0.1070
63961W        W 6878  14.244  26.283  22.384  0.1203 -0.3468 -0.0846
63962W        W 6879  14.261  27.273  19.805  0.2500  0.1932  0.2823
63963W        W 6880  13.134  29.094  21.518  0.1300  0.1624 -0.1758
63964W        W 6881  12.944  26.743  20.824  0.2180  0.3252 -0.1659
63965W        W 6882  13.072  28.535  20.722 -0.0533 -0.0646  0.1829
63966W        W 6883  12.208  27.710  19.877  0.4513  0.1014  0.1813
63967W        W 6884  12.162  28.648  23.899 -0.0694  0.1555 -0.0627
63968W        W 6885  13.643  30.909  21.772  0.2258  0.1486 -0.3938
63969W        W 6886  11.671  25.899  21.740  0.1860  0.2642  0.2433
63970W        W 6887  12.889  28.358  18.815 -0.2154 -0.2339 -0.2815
63971W        W 6888  15.412  27.533  21.597 -0.1771  0.5444 -0.2586
63972W        W 6889  11.576  30.039  21.196 -0.2919  0.1850 -0.0894
63973W        W 6890  15.613  27.802  19.753 -0.0226  0.1059 -0.3398
63974W        W 6891  13.698  29.770  19.759  0.0049 -0.1580  0.2840
63975W        W 6892  11.542  26.302  19.802  0.0346 -0.1649  0.1894
63976W        W 6893  13.367  29.859  20.687  0.0686 -0.0739 -0.0518
63977W        W 6894  13.926  27.573  21.173  0.0971  0.2597  0.1797
63978W        W 6895  11.599  27.190  21.179 -0.0463  0.2760 -0.1114
63979W        W 6896  10.728  28.456  18.394  0.1628 -0.1242  0.1847
63980W        W 6897  11.475  29.664  20.894 -0.0992  0.1427  0.0056
63981W        W 6898  15.709  26.699  21.158  0.1645 -0.0205  0.1106
63982W        W 6899  11.797  25.498  22.699 -0.0721 -0.4747 -0.1475
63983W        W 6900  10.652  31.772  20.960 -0.1377  0.3682 -0.2889
63984W        W 6901  11.855  25.582  21.241  0.0556  0.2363 -0.0393
63985W        W 6902  12.153  28.279  24.295  0.1628 -0.0447  0.1103
63986W        W 6903  10.580  27.296  22.454 -0.0602 -0.0371  0.0117
63987W        W 6904  11.604  28.576  18.770  0.1317 -0.0517  0.1892
63988W        W 6905  11.725  26.253  22.817 -0.0353 -0.2521 -0.0595
63989W        W 6906  11.272  29.552  21.302 -0.0007 -0.3099  0.2437
63990W        W 6907  10.795  28.107  19.986  0.0073  0.1050  0.2632
63991W        W 6908  13.364  29.551  19.445 -0.0010 -0.0325 -0.1872
63992W        W 6909  13.616  25.641  20.571 -0.1390  0.0043 -0.1287
63993W        W 6910  16.183  28.710  21.730 -0.0264 -0.2001  0.1016
63994W        W 6911  12.845  24.795  20.062 -0.0049  0.1514 -0.0257
63995W        W 6912  13.948  25.900  20.278 -0.3183 -0.1833  0.0479
63996W        W 6913  15.133  25.279  19.962  0.1235  0.0396 -0.2542
63997W        W 6914  10.773  27.102  21.461 -0.0820  0.1374 -0.0860
63998W        W 6915  11.690  28.513  18.247  0.1079  0.1923 -0.1703
63999W        W 6916  11.329  31.342  18.399  0.1712 -0.2561 -0.2904
64000W        W 6917  13.846  27.680  22.457  0.0898 -0.0687 -0.0101
64001W        W 6918  14.510  27.995  23.131  0.1220  0.1309  0.0210
64002W        W 6919  10.459  25.218  24.676  0.0150 -0.1561  0.1743
64003W        W 6920  11.576  27.777  20.586  0.0569  0.3411 -0.0662
64004W        W 6921  13.376  26.992  20.745 -0.1094 -0.2882  0.0230
64005W        W 6922  13.822  29.017  19.174 -0.1144  0.1550 -0.1360
64006W        W 6923  11.763  25.058  22.067 -0.3478 -0.0876 -0.2189
64007W        W 6924  10.923  25.671  20.521  0.1324  0.3026 -0.1221
64008W        W 6925  13.379  27.704  19.127 -0.1280  0.1557 -0.0673
64009W        W 6926  13.647  28.815  21.712 -0.0379 -0.2310  0.2706
64010W        W 6927  15.171  26.853  21.063  0.2073 -0.1846  0.0274
64011W        W 6928  12.757  29.129  23.209  0.1003  0.1625 -0.1532
64012W        W 6929  11.697  29.714  19.581  0.0902 -0.5687 -0.0578
64013W        W 6930  12.081  26.669  22.897  0.0799 -0.0149 -0.0491
64014W        W 6931  11.644  27.829  23.765 -0.5378  0.0811  0.2234
64015W        W 6932  10.111  26.238  19.966 -0.1256  0.0297  0.1775
64016W        W 6933  13.319  26.522  21.012  0.0862  0.2629 -0.0145
64017W        W 6934  12.293  28.283  21.779 -0.1936 -0.1275  0.6931
64018W        W 6935  14.561  30.369  21.015  0.0254 -0.4229 -0.1825
64019W        W 6936  12.306  29.061  22.208  0.0672  0.2583  0.1140
64020W        W 6937  11.873  30.505  19.851  0.0911 -0.0710  0.2503
64021W        W 6938  12.311  24.623  21.831  0.2382 -0.4525  0.0167
64022W        W 6939  12.212  27.242  21.192 -0.0053 -0.1874 -0.2066
64023W        W 6940  12.004  29.185  22.665 -0.1461 -0.4368 -0.3682
64024W        W 6941  14.870  28.575  19.666  0.0055 -0.0566  0.0112
64025W        W 6942  14.250  25.757  22.273 -0.2059  0.1373 -0.1712
64026W        W 6943  11.829  28.611  20.238  0.1212 -0.0229 -0.1574
64027W        W 6944   9.622  26.196  24.111 -0.0059  0.3697 -0.0854
64028W        W 6945  10.432  28.901  24.045 -0.3040 -0.0326 -0.0018
64029W        W 6946  13.549  27.615  22.979  0.0505 -0.2112  0.1854
64030W        W 6947  13.176  26.575  20.423 -0.4415 -0.4563 -0.0679
64031W        W 6948  13.404  27.090  22.927 -0.2449 -0.0059 -0.2426
64032W        W 6949  12.681  30.223  19.506  0.1172 -0.0929 -0.1699
64033W        W 6950  10.439  25.672  22.455 -0.1173 -0.1912 -0.2497
64034W        W 6951  11.924  26.952  20.193  0.1830  0.0418 -0.3324
64035W        W 6952  12.195  27.678  23.052  0.0282  0.2968 -0.1464
64036W        W 6953  10.756  28.664  23.002 -0.1787  0.1818  0.1771
64037W        W 6954  13.374  29.134  23.661 -0.1379  0.0086 -0.1117
64038W        W 6955  11.878  26.121  20.140  0.0298  0.1588 -0.0754
64039W        W 6956  15.708  27.145  20.242 -0.0463  0.1190  0.0398
64040W        W 6957  11.061  30.353  22.837 -0.2147  0.0010 -0.1574
64041W        W 6958  13.672  28.395  22.498  0.3146  0.4212  0.2765
64042W        W 6959  11.947  28.044  21.423 -0.1782 -0.2572 -0.1069
64043W        W 6960  13.601  26.854  19.560  0.1011 -0.0404 -0.0910
64044W        W 6961  11.591  26.593  20.334 -0.0115 -0.2428 -0.1122
64045W        W 6962  11.862  25.677  19.943  0.1322 -0.2178  0.3363
64046W        W 6963  13.281  28.889  20.432 -0.1549 -0.2315  0.2314
64047W        W 6964  14.708  28.184  22.611  0.0374 -0.1088  0.2596
64048W        W 6965  11.915  27.459  22.283  0.1384  0.1618 -0.2236
64049W        W 6966  11.499  26.301  18.520  0.1391  0.0676 -0.0560
64050W        W 6967  13.366  29.677  23.658 -0.2506  0.1995 -0.0506
64051W        W 6968  11.646  29.534  21.640 -0.2407  0.1731  0.2143
64052W        W 6969  12.544  28.122  27.946  0.3946 -0.1382  0.1323
64053W        W 6970  10.747  27.626  25.445 -0.0198  0.0642 -0.2382
64054W        W 6971  12.755  24.557  24.356  0.2630 -0.2079 -0.1440
64055W        W 6972  14.734  25.750  23.156  0.0930 -0.0281 -0.1834
64056W        W 6973  10.461  24.934  22.904  0.0292 -0.2165 -0.2199
64057W        W 6974  12.923  28.919  25.639 -0.1404  0.1934 -0.0471
64058W        W 6975  12.550  25.209  26.565 -0.0550 -0.0809 -0.1012
64059W        W 6976  14.671  27.210  23.658 -0.3234  0.3164  0.1032
64060W        W 6977  14.593  28.359  26.312  0.0960  0.4347 -0.2664
64061W        W 6978  13.146  28.367  22.640  0.1872  0.0091 -0.1943
64062W        W 6979  14.780  27.261  25.661  0.0765 -0.1388  0.0929
64063W        W 6980  13.067  28.578  26.098 -0.3461  0.0245  0.0690
64064W        W 6981  10.646  26.080  23.788 -0.2018  0.2756 -0.0929
64065W        W 6982  12.806  27.213  26.899 -0.2941 -0.0689 -0.1590
64066W        W 6983  14.116  27.353  26.233  0.2010 -0.1715  0.0427
64067W        W 6984  11.878  27.987  26.128  0.0691  0.2401 -0.3236
64068W        W 6985  11.681  25.239  25.706 -0.1892 -0.3288 -0.0491
64069W        W 6986  12.419  27.476  25.425 -0.2558  0.0383  0.1043
64070W        W 6987  12.898  27.663  25.151 -0.2161  0.3337 -0.0204
64071W        W 6988  11.471  26.579  27.624  0.2354 -0.0395 -0.0882
64072W        W 6989  13.928  26.518  27.423 -0.0523 -0.3237  0.2393
64073W        W 6990  12.343  29.977  24.920  0.0904  0.2896  0.2468
64074W        W 6991  11.081  27.715  22.125  0.4356 -0.3337 -0.0774
64075W        W 6992  10.937  27.407  27.265  0.1445  0.2232  0.1864
64076W        W 6993  12.416  26.534  26.518 -0.2439  0.3601  0.4701
64077W        W 6994  12.605  28.433  23.720  0.0388 -0.2659 -0.0716
64078W        W 6995  14.559  27.360  24.098 -0.2545  0.2353 -0.2394
64079W        W 6996  12.208  28.843  25.832 -0.1655 -0.1704  0.3087
64080W        W 6997  12.589  29.164  26.609  0.4217  0.1115  0.0800
64081W        W 6998  12.865  26.561  24.506  0.0506  0.0291 -0.1193
64082W        W 6999  12.710  27.543  25.961 -0.0923 -0.1899  0.1612
64083W        W 7000  12.035  29.561  24.831 -0.2203 -0.0615 -0.0021
64084W        W 7001  14.484  28.609  23.195 -0.1113 -0.2570  0.0372
64085W        W 7002  14.638  28.629  27.127 -0.1043 -0.0654 -0.4008
64086W        W 7003  13.142  28.199  25.683 -0.0657 -0.0376  0.0187
64087W        W 7004  12.995  27.905  27.941 -0.1277  0.1433 -0.0662
64088W        W 7005   9.881  28.532  22.436  0.1716  0.0261 -0.1770
64089W        W 7006  14.482  27.575  25.960 -0.1966  0.4021  0.0051
64090W        W 7007  13.409  29.218  26.591  0.1682 -0.2067  0.0882
64091W        W 7008  11.341  27.133  27.683  0.2030  0.2311 -0.3281
64092W        W 7009  13.200  26.189  24.405  0.0607 -0.1894 -0.0180
64093W        W 7010  12.903  27.753  24.656  0.2475 -0.0982  0.1756
64094W        W 7011  14.358  25.821  23.921  0.0363 -0.4552  0.2487
64095W        W 7012  13.029  28.062  27.512 -0.2188 -0.0254  0.0791
64096W        W 7013  13.332  27.709  24.316 -0.0958  0.0555 -0.0501
64097W        W 7014  14.905  25.157  26.219 -0.0588 -0.0760 -0.0993
64098W        W 7015  11.981  28.679  22.144 -0.0284 -0.0017 -0.2558
64099W        W 7016  12.794  27.208  23.790 -0.0171 -0.0829 -0.2457
64100W        W 7017  12.422  27.556  20.842 -0.0514  0.0188 -0.0453
64101W        W 7018  12.343  28.791  22.723  0.0098 -0.0815  0.0624
64102W        W 7019  12.653  24.682  23.503  0.0417  0.2037  0.3513
64103W        W 7020  11.415  28.404  26.516 -0.3209  0.2247 -0.2512
64104W        W 7021  11.367  26.496  25.524  0.0882  0.0032 -0.0069
64105W        W 7022  15.621  27.432  26.500  0.1763 -0.0662 -0.0712
64106W        W 7023  13.774  26.994  26.070  0.1264 -0.0107 -0.3463
64107W        W 7024  13.806  26.747  24.273  0.2623 -0.0196  0.0587
64108W        W 7025  12.286  29.198  26.194  0.0113  0.1431 -0.2757
64109W        W 7026  11.938  28.390  25.789  0.2363  0.0682  0.1413
64110W        W 7027  12.857  30.800  25.306 -0.3315  0.1885 -0.0948
64111W        W 7028  14.657  30.580  25.138  0.0477 -0.1093  0.3183
64112W        W 7029  13.426  27.440  22.523  0.5480  0.0578 -0.0720
64113W        W 7030  13.017  28.995  24.059 -0.0376 -0.0614  0.0494
64114W        W 7031  11.903  25.788  26.795 -0.3209 -0.2502 -0.4638
64115W        W 7032  12.403  25.473  24.345  0.0083 -0.1292 -0.0244
64116W        W 7033  11.497  27.065  22.257  0.0955 -0.1216 -0.1766
64117W        W 7034  15.147  26.374  25.710 -0.0988  0.0429  0.1132
64118W        W 7035  11.776  28.672  26.304  0.0507 -0.0624  0.0034
64119W        W 7036  11.578  25.614  24.460 -0.0260 -0.0048 -0.0890
64120W        W 7037  11.717  28.200  27.441 -0.2237  0.2095 -0.0492
64121W        W 7038  14.354  28.239  25.914  0.0451 -0.0005 -0.0138
64122W        W 7039  15.090  27.499  23.847  0.3326  0.1399 -0.0020
64123W        W 7040  11.803  25.327  26.358 -0.3837 -0.4342  0.1132
64124W        W 7041  14.451  25.028  26.027 -0.2508  0.1151 -0.5852
64125W        W 7042  12.019  29.379  24.341 -0.1135  0.0828  0.1701
64126W        W 7043  13.554  28.084  26.051 -0.2927  0.1515  0.0970
64127W        W 7044  13.506  26.206  27.379 -0.1517 -0.2465 -0.0044
64128W        W 7045  15.290  26.770  23.059  0.2220 -0.2357  0.1393
64129W        W 7046  11.384  27.828  25.722  0.0003 -0.1700 -0.0429
64130W        W 7047  12.807  27.223  24.298  0.1099 -0.0120 -0.3523
64131W        W 7048  13.755  26.302  26.980  0.2911 -0.0172  0.0880
64132W        W 7049  11.295  30.346  23.794 -0.0448  0.2250  0.4234
64133W        W 7050  11.274  29.055  24.547  0.2806  0.1691 -0.0696
64134W        W 7051  10.490  29.494  22.676  0.2622 -0.1744 -0.1230
64135W        W 7052  10.275  25.755  23.893  0.1784 -0.0664 -0.2255
64136W        W 7053  11.821  28.811  24.213  0.1471  0.0042  0.0347
64137W        W 7054  14.243  25.384  24.814 -0.1471 -0.0175  0.0842
64138W        W 7055  12.298  26.825  25.859  0.1071 -0.3579 -0.3279
64139W        W 7056  14.549  27.010  26.047 -0.0073 -0.0292 -0.2878
64140W        W 7057  12.199  28.807  24.466  0.1749  0.1694  0.2051
64141W        W 7058  13.679  28.801  23.378  0.0517 -0.2233 -0.0386
64142W        W 7059  14.331  26.611  25.015  0.2300 -0.2595  0.2996
64143W        W 7060  13.757  30.888  23.242 -0.0371  0.0286 -0.0568
64144W        W 7061  12.104  27.540  25.982  0.4443  0.1965  0.2158
64145W        W 7062  13.197  26.372  26.091  0.1750 -0.0940 -0.5612
64146W        W 7063  13.657  25.107  26.445 -0.1700 -0.3467  0.0027
64147W        W 7064   9.231  26.388  24.601  0.2653  0.2380 -0.1653
64148W        W 7065  12.168  28.500  27.841  0.0410  0.3609 -0.2340
64149W        W 7066  12.546  27.265  23.082 -0.1445 -0.0710 -0.3743
64150W        W 7067  13.139  25.902  26.222  0.1538  0.0683 -0.1568
64151W        W 7068  14.035  26.976  24.601 -0.1347  0.1713 -0.1741
64152W        W 7069  10.129  30.384  24.608 -0.0684  0.1925  0.1909
64153W        W 7070  14.575  25.504  25.341  0.3202 -0.2351 -0.1729
64154W        W 7071  14.148  28.037  25.341  0.0855  0.0536  0.0618
64155W        W 7072  14.919  26.869  27.776  0.0067  0.2517 -0.3025
64156W        W 7073  13.988  28.107  22.255 -0.3441 -0.0880  0.1019
64157W        W 7074  13.102  27.128  27.305  0.0649 -0.0497 -0.0653
64158W        W 7075  14.184  26.814  22.393  0.3317 -0.2094  0.0522
64159W        W 7076  11.967  28.249  26.528  0.1388  0.0570 -0.2077
64160W        W 7077  13.362  28.731  24.851  0.0271 -0.1608 -0.1363
64161W        W 7078  12.469  22.775  22.522 -0.0676 -0.0890 -0.1316
64162W        W 7079  15.244  29.389  25.545  0.0583 -0.1182  0.2071
64163W        W 7080  10.595  28.507  24.878 -0.1335  0.1193  0.3570
64164W        W 7081  12.325  27.365  26.833  0.4043 -0.0277 -0.3046
64165W        W 7082  12.628  26.020  25.168  0.3234 -0.0953 -0.0750
64166W        W 7083  14.723  27.908  26.225  0.3063  0.0944 -0.0348
64167W        W 7084  11.120  28.865  24.055 -0.0342  0.0211 -0.1081
64168W        W 7085  11.752  26.787  25.298  0.1440 -0.0774  0.2415
64169W        W 7086  10.852  30.383  26.985  0.2551  0.2783 -0.1519
64170W        W 7087   8.567  29.379  22.484 -0.1840  0.1101  0.0582
64171W        W 7088  11.676  28.785  23.712 -0.0739 -0.1873  0.0850
64172W        W 7089  12.389  29.533  25.205 -0.0930 -0.0895  0.3155
64173W        W 7090  13.559  26.088  26.424  0.2417  0.0149  0.0352
64174W        W 7091  11.173  28.427  27.348 -0.0257 -0.3388 -0.4935
64175W        W 7092  14.711  26.707  27.253  0.0042  0.0520 -0.0644
64176W        W 7093  11.191  28.600  23.664 -0.0329 -0.0628  0.0790
64177W        W 7094  12.568  30.139  26.200  0.1386  0.4789  0.0136
64178W        W 7095  12.679  24.214  23.821  0.2081  0.1085 -0.0304
64179W        W 7096  11.432  24.642  22.847 -0.3468 -0.1810  0.1979
64180W        W 7097  12.257  28.084  27.566  0.1541  0.3694  0.0892
64181W        W 7098  14.314  28.527  25.438 -0.0252 -0.1909 -0.0296
64182W        W 7099  11.672  28.320  23.919 -0.1283  0.1036 -0.0956
64183W        W 7100  13.187  27.102  21.894  0.1503 -0.0142 -0.0326
64184W        W 7101  11.240  27.524  26.911  0.0806 -0.0072  0.0126
64185W        W 7102  13.310  26.980  24.520  0.0568  0.1805 -0.0919
64186W        W 7103  15.274  28.606  27.538 -0.0776 -0.2622  0.0298
64187W        W 7104  12.351  27.838  24.428  0.1108 -0.0070 -0.2724
64188W        W 7105  16.561  29.385  24.842  0.3202 -0.0248 -0.0235
64189W        W 7106  11.850  28.758  25.493 -0.1939 -0.1081 -0.2572
64190W        W 7107  13.404  27.209  28.562  0.0684  0.0041 -0.3829
64191W        W 7108  12.329  29.769  25.764  0.1427  0.2249  0.1033
64192W        W 7109   9.510  27.496  26.208  0.1254 -0.2317 -0.3436
64193W        W 7110  13.414  29.672  22.996  0.0639 -0.1289  0.1248
64194W        W 7111  11.535  24.145  23.080  0.2525 -0.3228  0.1517
64195W        W 7112  11.310  27.963  22.960  0.3073  0.1448 -0.0844
64196W        W 7113  14.677  26.993  24.972  0.2793  0.0541  0.0266
64197W        W 7114  13.890  24.249  22.793 -0.0087  0.1255 -0.0067
64198W        W 7115  12.355  27.971  25.253 -0.1330  0.3475 -0.2058
64199W        W 7116  13.804  24.845  27.494 -0.1433 -0.0993 -0.0083
64200W        W 7117  12.596  26.347  23.686  0.0068  0.1898  0.0455
64201W        W 7118  15.043  27.240  25.251  0.0834 -0.0357  0.0413
64202W        W 7119  10.660  27.942  23.186  0.0873  0.0508 -0.1634
64203W        W 7120  12.860  26.247  24.073  0.1660 -0.0470 -0.2386
64204W        W 7121  13.445  28.700  25.761 -0.0613  0.0698 -0.0459
64205W        W 7122  10.716  28.732  26.791  0.1005  0.0613  0.1247
64206W        W 7123  12.285  27.003  25.072  0.0425 -0.3084  0.0279
64207W        W 7124  13.130  28.586  24.388  0.0634  0.1686 -0.0218
64208W        W 7125  13.778  27.515  26.840 -0.0720 -0.3661 -0.1637
64209W        W 7126  11.445  24.707  22.280 -0.3177  0.2602  0.1135
64210W        W 7127  12.952  26.637  23.461 -0.0490  0.1259  0.3401
64211W        W 7128  13.792  27.743  24.536 -0.0229 -0.2369  0.2122
64212W        W 7129  11.256  25.087  25.900  0.0352 -0.3377 -0.0535
64213W        W 7130  14.058  27.842  25.875 -0.2793 -0.4075 -0.0167
64214W        W 7131  11.491  30.706  24.273  0.2671 -0.2536 -0.1739
64215W        W 7132  12.777  29.171  29.383  0.2075 -0.1931 -0.1311
64216W        W 7133  12.389  29.035  25.352 -0.1813 -0.2088 -0.1624
64217W        W 7134  14.961  24.513  24.291 -0.1435 -0.1479 -0.0593
64218W        W 7135  11.844  28.473  28.241 -0.0188  0.2608 -0.1986
64219W        W 7136  11.332  27.037  23.577  0.3969  0.1185 -0.1980
64220W        W 7137  11.898  28.037  24.692 -0.1451  0.0682 -0.0965
64221W        W 7138  12.847  27.069  24.873  0.0004  0.0252 -0.1277
64222W        W 7139  10.903  30.043  23.714 -0.1686  0.2816 -0.0651
64223W        W 7140  12.078  27.131  25.583 -0.0489  0.1284  0.0739
64224W        W 7141  12.736  25.289  25.101  0.2094  0.0077  0.0741
64225W        W 7142  11.237  30.636  24.766 -0.0732  0.0211 -0.2202
64226W        W 7143  13.246  27.702  26.270 -0.0822 -0.2508 -0.0099
64227W        W 7144  13.225  26.968  25.309 -0.2184 -0.0011 -0.1952
64228W        W 7145  15.883  27.081  24.774  0.0658  0.2041 -0.0427
64229W        W 7146  12.979  26.422  25.311  0.0714  0.2305  0.0557
64230W        W 7147  10.127  27.359  24.602 -0.1979 -0.2104  0.0116
64231W        W 7148  11.982  27.612  24.859 -0.2744 -0.1568  0.0078
64232W        W 7149  12.630  26.457  25.651  0.0206 -0.0966 -0.2302
64233W        W 7150  12.467  26.889  26.929 -0.1225  0.1468 -0.0896
64234W        W 7151  14.633  30.800  25.620 -0.1540 -0.1682  0.0260
64235W        W 7152  12.123  27.789  23.683  0.0888 -0.0730  0.2392
64236W        W 7153  11.770  27.060  24.769 -0.2219 -0.0806 -0.1279
64237W        W 7154  12.654  26.915  28.729  0.3565  0.1021  0.3786
64238W        W 7155  15.239  28.055  28.102  0.1819 -0.3199 -0.0829
64239W        W 7156  12.800  25.687  26.535  0.3859 -0.3692  0.3517
64240W        W 7157  12.305  25.802  24.705 -0.2586 -0.1700 -0.0620
64241W        W 7158  13.613  27.904  25.503  0.0144  0.3645 -0.2294
64242W        W 7159  13.613  29.210  25.847  0.3188 -0.0991  0.1192
64243W        W 7160  12.973  26.707  26.976  0.2117  0.1000  0.1588
64244W        W 7161  13.511  27.822  28.139  0.0008 -0.1895 -0.1086
64245W        W 7162  13.519  25.671  25.134 -0.1093  0.0617 -0.0944
64246W        W 7163  14.835  31.759  24.834 -0.1631 -0.1315 -0.2435
64247W        W 7164  12.637  28.128  27.192  0.0832 -0.0328 -0.0710
64248W        W 7165  14.077  28.207  26.313 -0.1203 -0.3047 -0.0401
64249W        W 7166  13.267  28.087  24.602  0.0630  0.5092  0.1559
64250W        W 7167  13.933  27.465  25.339 -0.5745  0.3144 -0.0235
64251W        W 7168  14.933  23.791  25.533 -0.0398  0.0310 -0.2069
64252W        W 7169   9.439  28.758  28.084  0.0482  0.2243  0.2097
64253W        W 7170  12.535  29.698  20.978  0.2466  0.2758 -0.0792
64254W        W 7171  14.428  28.192  26.796  0.1321 -0.1303 -0.1141
64255W        W 7172  11.785  24.611  21.857  0.2839 -0.1112  0.0160
64256W        W 7173  12.529  27.995  23.867  0.1349  0.0827  0.1244
64257W        W 7174  11.869  26.631  26.221 -0.2099 -0.0778  0.1208
64258W        W 7175  14.038  26.386  24.587  0.0972 -0.0406 -0.2614
64259W        W 7176  13.141  29.368  20.451 -0.0663  0.1999 -0.0583
64260W        W 7177  13.177  25.576  25.756 -0.4637 -0.3929 -0.0749
64261W        W 7178  11.645  25.199  27.463 -0.0431 -0.1528  0.0321
64262W        W 7179  12.836  28.907  22.752  0.0590  0.1702  0.1400
64263W        W 7180  12.876  24.795  26.348 -0.2368 -0.0493 -0.0611
64264W        W 7181  12.927  29.889  26.448 -0.0367  0.0666  0.2668
64265W        W 7182  11.870  26.482  27.831  0.2866  0.2012  0.0347
64266W        W 7183  10.967  25.845  23.331  0.1348  0.0873  0.0740
64267W        W 7184  12.033  25.926  23.101  0.0596  0.0962  0.1323
64268W        W 7185  13.022  29.061  26.082 -0.1437 -0.1163 -0.3252
64269W        W 7186  13.351  30.360  25.615  0.0992 -0.4537 -0.3009
64270W        W 7187  11.157  30.249  26.493 -0.3308  0.3696 -0.0328
64271W        W 7188  15.303  26.787  24.987 -0.0190 -0.1002 -0.2467
64272W        W 7189  12.429  27.185  26.368 -0.3521  0.2715 -0.0085
64273W        W 7190  13.700  26.674  23.761 -0.1884  0.0214  0.1615
64274W        W 7191  14.463  28.990  25.447 -0.0033  0.2401  0.1473
64275W        W 7192  11.485  28.412  25.991  0.1079  0.1778 -0.0022
64276W        W 7193  12.179  24.150  23.644  0.0085  0.0633 -0.0744
64277W        W 7194  14.529  27.865  24.531 -0.0522  0.3163  0.0006
64278W        W 7195  12.372  26.982  24.031 -0.2381  0.2708  0.2410
64279W        W 7196  12.073  26.367  23.972  0.0075 -0.3155  0.2101
64280W        W 7197  12.708  27.687  26.747 -0.1072 -0.1216  0.0006
64281W        W 7198  13.144  26.673  25.682  0.1078 -0.0052 -0.1118
64282W        W 7199  11.540  26.881  26.612  0.2473 -0.2334  0.2081
64283W        W 7200  14.957  27.718  25.873 -0.0471 -0.1302 -0.0915
64284W        W 7201  12.332  26.144  22.816  0.0870 -0.1764  0.4840
64285W        W 7202  13.027  25.164  25.488  0.1170 -0.1353  0.0443
64286W        W 7203  15.789  25.322  24.339  0.0764 -0.2595  0.2164
64287W        W 7204  12.465  27.437  24.884  0.1392 -0.0986  0.1636
64288W        W 7205  11.821  26.722  24.306 -0.2175  0.2196 -0.2166
64289W        W 7206  14.741  26.900  28.856 -0.0155 -0.0824  0.2932
64290W        W 7207  11.851  28.519  24.667 -0.3197 -0.0205  0.0689
64291W        W 7208  13.323  27.005  27.756 -0.2819  0.1530  0.4489
64292W        W 7209  13.029  29.845  23.301  0.0537  0.1871 -0.4448
64293W        W 7210  14.866  25.783  23.689 -0.1008  0.0913 -0.1388
64294W        W 7211  12.842  28.132  24.311 -0.2312  0.2013 -0.2200
64295W        W 7212  11.001  28.334  24.607  0.2091 -0.1778 -0.1386
64296W        W 7213  11.522  29.186  27.691  0.1333  0.0315  0.3539
64297W        W 7214  11.490  25.541  23.102 -0.0366  0.0307 -0.1453
64298W        W 7215  13.256  27.262  24.110 -0.1167 -0.3435 -0.2531
64299W        W 7216  14.332  28.674  26.680 -0.0428 -0.1982 -0.4071
64300W        W 7217  15.234  26.511  27.130 -0.1859 -0.1315 -0.4480
64301W        W 7218  12.434  25.484  21.248 -0.0458 -0.1971  0.1781
64302W        W 7219  14.480  26.337  24.156 -0.0062 -0.3143  0.3976
64303W        W 7220  11.717  30.071  24.951  0.2801 -0.3776 -0.0705
64304W        W 7221  12.613  26.527  24.987 -0.2166 -0.3297  0.0662
64305W        W 7222  11.913  29.450  27.233  0.1729 -0.0310 -0.4568
64306W        W 7223  12.257  28.046  26.923 -0.3397 -0.0864 -0.1448
64307W        W 7224  13.715  27.318  24.309 -0.1885 -0.4228 -0.1509
64308W        W 7225  13.485  25.279  25.454 -0.2739 -0.2582  0.2362
64309W        W 7226  14.736  28.326  25.552  0.3515  0.0865  0.1927
64310W        W 7227  12.254  26.874  27.418  0.2108 -0.0031 -0.1185
64311W        W 7228  13.829  26.797  26.801 -0.0098 -0.0707  0.1086
64312W        W 7229  12.630  25.888  28.577 -0.0045 -0.0468  0.4163
64313W        W 7230  13.254  27.647  25.772  0.0636 -0.1707  0.2066
64314W        W 7231  13.510  30.194  26.205  0.3701 -0.0193 -0.1129
64315W        W 7232  15.436  28.443  23.019  0.0567 -0.3842 -0.1927
64316W        W 7233  11.809  29.068  25.991 -0.0943  0.3468 -0.0151
64317W        W 7234   9.959  24.963  28.344  0.0924  0.0000  0.1626
64318W        W 7235  13.087  26.138  24.891 -0.1793  0.1928 -0.0738
64319W        W 7236  12.378  27.489  24.043 -0.0127 -0.1955  0.1003
64320W        W 7237   9.971  26.790  25.723 -0.1203 -0.3049  0.0611
64321W        W 7238  11.063  27.749  21.537  0.1434  0.0447  0.1116
64322W        W 7239  12.514  29.738  28.580 -0.3230  0.2795 -0.2674
64323W        W 7240  12.803  29.304  24.443  0.1028 -0.0963 -0.0657
64324W        W 7241  11.233  31.055  26.177 -0.0145 -0.1758  0.1989
64325W        W 7242  14.460  28.160  21.945  0.0353 -0.0531  0.1462
64326W        W 7243  14.478  27.316  24.633 -0.2368 -0.1454 -0.1094
64327W        W 7244  13.644  28.604  24.428 -0.1195 -0.1873  0.1502
64328W        W 7245  12.908  27.364  25.527 -0.1761 -0.1920 -0.0716
64329W        W 7246  11.700  29.825  24.496  0.1375 -0.1316 -0.0613
64330W        W 7247  11.440  28.609  24.475  0.2296  0.0050  0.4707
64331W        W 7248  12.640  29.675  23.980  0.2109 -0.1266  0.2834
64332W        W 7249  10.855  29.156  24.919  0.0907 -0.2791  0.2600
64333W        W 7250  13.233  27.584  26.821  0.2032  0.0337  0.2049
64334W        W 7251  13.292  26.934  23.720  0.0607  0.3178 -0.2272
64335W        W 7252  13.872  28.179  26.875  0.0157 -0.1756  0.0055
64336W        W 7253  15.081  25.591  24.220 -0.6431  0.1919  0.0460
64337W        W 7254  13.705  27.442  25.825  0.0198  0.1511  0.0213
64338W        W 7255  13.201  26.854  26.318 -0.0921 -0.1932  0.2317
64339W        W 7256  11.755  26.036  24.763 -0.2369  0.2198  0.1648
64340W        W 7257  12.989  29.060  27.112 -0.3952 -0.0351  0.0785
64341W        W 7258  13.654  26.617  27.822  0.3700 -0.2066  0.2643
64342W        W 7259  13.134  31.754  26.287 -0.2531  0.2360  0.1299
64343W        W 7260  14.635  31.641  25.301  0.0514 -0.0680 -0.1682
64344W        W 7261  10.214  26.605  21.717 -0.2002  0.3898 -0.0197
64345W        W 7262  12.793  28.219  25.237 -0.0316  0.0327  0.3192
64346W        W 7263  14.891  26.160  26.145 -0.0593  0.5699  0.0774
64347W        W 7264  12.049  29.612  22.987  0.3303  0.1481  0.2018
64348W        W 7265  12.116  26.166  25.089  0.2245 -0.0195  0.3584
64349W        W 7266  10.261  29.742  26.589  0.0328  0.2497 -0.1431
64350W        W 7267  12.255  28.423  26.162 -0.2437  0.2277 -0.1968
64351W        W 7268  13.882  28.836  25.576  0.1483  0.0479  0.1393
64352W        W 7269   8.799  26.176  24.058 -0.4089  0.0928 -0.2495
64353W        W 7270  14.526  25.542  21.923 -0.3417  0.1621 -0.1886
64354W        W 7271  11.651  25.834  28.189  0.3028  0.0514 -0.2199
64355W        W 7272  13.483  26.045  25.861  0.2212 -0.2542  0.0271
64356W        W 7273  11.345  26.888  26.152 -0.3098  0.0093  0.1262
64357W        W 7274  13.045  27.097  22.479  0.0246 -0.1946  0.0757
64358W        W 7275  13.470  28.414  26.405  0.0496  0.1948  0.0696
64359W        W 7276  11.458  26.750  27.161 -0.1034 -0.0684 -0.1229
64360W        W 7277  13.882  27.607  23.426 -0.0615  0.1144  0.0530
64361W        W 7278  14.705  24.747  28.001 -0.3159 -0.2831 -0.2599
64362W        W 7279  12.830  26.716  23.998 -0.3940 -0.0422  0.0045
64363W        W 7280  15.413  26.629  27.561  0.0565  0.3394 -0.1194
64364W        W 7281  11.489  26.194  26.913  0.0452  0.2020  0.0695
64365W        W 7282  12.476  26.988  22.606 -0.0744 -0.1277  0.1077
64366W        W 7283  10.149  24.868  24.495 -0.1656  0.1539 -0.1223
64367W        W 7284  13.806  28.317  25.624  0.0914 -0.1142 -0.2613
64368W        W 7285  15.204  26.098  26.666 -0.1659 -0.1871  0.1770
64369W        W 7286  10.558  25.668  24.297  0.2731  0.2335  0.0366
64370W        W 7287  13.484  28.726  23.915  0.0361  0.2064  0.3112
64371W        W 7288  15.141  28.685  24.926 -0.2810  0.0176  0.2009
64372W        W 7289  10.268  28.101  24.043 -0.2078 -0.3253  0.2205
64373W        W 7290  14.097  27.611  22.998  0.0032  0.1599 -0.3090
64374W        W 7291  14.151  27.134  25.713 -0.1663  0.3183 -0.0852
64375W        W 7292  10.258  26.605  27.477 -0.2166 -0.1983  0.0898
64376W        W 7293  12.757  28.733  25.194  0.1044  0.0207 -0.1001
64377W        W 7294  12.968  26.968  28.230 -0.0737  0.1690  0.0676
64378W        W 7295  12.710  24.975  25.876  0.2754  0.0657 -0.0746
64379W        W 7296  11.465  26.321  24.291  0.2116  0.2725 -0.2884
64380W        W 7297  10.476  29.266  26.035 -0.2568 -0.0296 -0.1041
64381W        W 7298  14.533  26.854  25.503  0.4319 -0.2206 -0.0141
64382W        W 7299  11.760  26.730  25.777  0.3141 -0.0078 -0.1161
64383W        W 7300  11.219  28.332  24.129 -0.1242  0.2731 -0.0086
64384W        W 7301  15.259  22.340  26.698 -0.0240 -0.2286 -0.0169
64385W        W 7302  13.553  29.150  27.232  0.1954  0.0702 -0.1873
64386W        W 7303  13.391  28.512  28.826 -0.2237  0.2068  0.0125
64387W        W 7304  12.490  29.418  22.689  0.0317  0.2540  0.0844
64388W        W 7305  11.610  28.564  27.795  0.0762  0.1840 -0.3016
64389W        W 7306  13.296  27.467  23.584 -0.1119 -0.1009 -0.1042
64390W        W 7307  11.168  30.081  23.293  0.0512 -0.1970 -0.1356
64391W        W 7308  13.951  27.904  27.892  0.2104 -0.0887  0.1205
64392W        W 7309  13.127  27.980  23.001 -0.0762  0.0396  0.2365
64393W        W 7310  15.389  27.921  25.656  0.2746 -0.1272  0.1916
64394W        W 7311  10.256  27.774  25.628  0.0101 -0.1611  0.0908
64395W        W 7312  14.287  25.740  25.733  0.4107  0.3318  0.0309
64396W        W 7313  14.574  26.163  24.625 -0.0732  0.1203  0.0207
64397W        W 7314  13.783  27.745  26.273 -0.2922 -0.0602 -0.1200
64398W        W 7315  11.473  27.604  21.900 -0.0026 -0.3464 -0.1112
64399W        W 7316  11.942  28.737  23.192 -0.2148 -0.0675 -0.2348
64400W        W 7317  11.014  29.594  26.164  0.1010 -0.0361 -0.1598
64401W        W 7318  11.743  24.906  26.627  0.3337 -0.2085 -0.0487
64402W        W 7319  11.324  25.171  26.432  0.1203  0.3316  0.1536
64403W        W 7320  11.835  28.351  25.157  0.2046 -0.2122  0.0928
64404W        W 7321  10.654  26.203  23.223  0.0890  0.2281 -0.2846
64405W        W 7322  13.857  28.794  20.516 -0.2566 -0.1681 -0.1368
64406W        W 7323  10.002  26.434  24.580  0.4235 -0.0472  0.3763
64407W        W 7324   9.477  25.117  25.652  0.1816 -0.0602  0.1355
64408W        W 7325  13.249  29.674  25.089 -0.2594 -0.0956 -0.1052
64409W        W 7326  13.720  28.199  24.752 -0.0650  0.2826  0.0453
64410W        W 7327  10.259  25.864  22.936  0.2672 -0.4795  0.0130
64411W        W 7328  14.663  28.134  27.226  0.2111 -0.2632  0.1076
64412W        W 7329  11.361  28.452  22.197  0.0955 -0.1446  0.1085
64413W        W 7330  12.803  29.558  26.060 -0.1141  0.0360  0.0097
64414W        W 7331  11.014  26.364  27.140  0.1928  0.1156 -0.0411
64415W        W 7332  12.104  28.288  23.547 -0.2452  0.1142  0.0883
64416W        W 7333  12.514  25.963  25.699 -0.3152  0.0748 -0.2577
64417W        W 7334  12.485  26.931  24.531 -0.2394 -0.2727  0.2726
64418W        W 7335  14.191  29.565  23.650 -0.1611  0.0726 -0.0847
64419W        W 7336  13.025  28.482  23.909 -0.3574 -0.0520 -0.2386
64420W        W 7337  12.899  28.394  24.790  0.2458  0.1816  0.0123
64421W        W 7338  10.516  26.808  26.949 -0.0048 -0.0204 -0.0381
64422W        W 7339  15.961  28.611  24.718  0.0010  0.5234 -0.1158
64423W        W 7340  12.987  28.686  26.644 -0.1212 -0.0997  0.1902
64424W        W 7341  14.157  28.113  23.744  0.2032 -0.3519 -0.1656
64425W        W 7342  16.103  25.386  23.908 -0.0346 -0.0635  0.1658
64426W        W 7343  13.325  29.292  24.706 -0.0757  0.0685  0.1189
64427W        W 7344  12.440  24.439  24.698  0.1244 -0.0057 -0.1782
64428W        W 7345   8.729  27.187  26.644  0.1062 -0.0810 -0.0108
64429W        W 7346  13.573  27.317  26.448  0.0858 -0.1824 -0.0169
64430W        W 7347  11.213  26.013  25.128  0.1147  0.0387  0.3615
64431W        W 7348  11.872  26.891  23.793 -0.0473  0.0668  0.1518
64432W        W 7349  13.640  30.934  23.983  0.2853 -0.0888 -0.0595
64433W        W 7350  12.345  28.098  25.788  0.2697 -0.0887 -0.2799
64434W        W 7351  12.782  24.805  24.836 -0.3684 -0.2673 -0.3987
64435W        W 7352  11.871  26.463  27.338  0.0644  0.4124 -0.2261
64436W        W 7353  12.898  29.341  23.681  0.0136 -0.0244  0.1466
64437W        W 7354  14.200  27.225  28.963 -0.0312 -0.1186 -0.5456
64438W        W 7355  12.753  26.883  26.549 -0.1494 -0.0860 -0.2999
64439W        W 7356  14.166  26.681  25.971  0.1424  0.1630 -0.1352
64440W        W 7357  14.164  30.724  25.800  0.0418  0.1723  0.4716
64441W        W 7358  14.574  26.933  26.842 -0.2801 -0.0717 -0.0950
64442W        W 7359  14.196  28.394  27.261  0.0168 -0.1802  0.4804
64443W        W 7360  15.185  27.420  26.177  0.4213 -0.0388 -0.1203
64444W        W 7361  11.939  26.638  24.867 -0.2442  0.0682  0.0148
64445W        W 7362  11.147  26.295  23.441 -0.0939 -0.1613 -0.1221
64446W        W 7363  12.667  30.364  25.726 -0.1821 -0.2915 -0.0533
64447W        W 7364  12.998  26.423  29.341 -0.0477 -0.0539  0.0099
64448W        W 7365  10.399  25.676  25.075  0.0003  0.2955  0.0261
64449W        W 7366  11.495  26.139  23.820  0.2873 -0.0418  0.0651
64450W        W 7367  12.087  30.567  26.383 -0.1742  0.1828  0.1127
64451W        W 7368  13.600  26.966  27.229 -0.2278  0.0901 -0.1646
64452W        W 7369  15.897  28.474  29.821 -0.2453 -0.0836 -0.0938
64453W        W 7370  13.606  26.585  26.301  0.1564 -0.0214  0.0452
64454W        W 7371  12.713  26.886  25.375 -0.2622 -0.1720 -0.1548
64455W        W 7372  12.455  26.484  29.178 -0.2750 -0.1854  0.4018
64456W        W 7373  12.123  25.592  29.025  0.1950  0.1744 -0.0845
64457W        W 7374  11.762  28.921  28.097  0.1824  0.0358  0.0691
64458W        W 7375  11.279  26.260  30.878  0.0443  0.0097  0.1477
64459W        W 7376  14.122  29.216  30.135 -0.3482 -0.0560 -0.0087
64460W        W 7377  16.874  28.300  28.418 -0.0971 -0.0000  0.2076
64461W        W 7378  13.498  27.971  26.621 -0.0490 -0.1919  0.0866
64462W        W 7379  11.167  27.689  28.959 -0.1879  0.0969  0.0122
64463W        W 7380  13.626  28.916  31.831  0.0148  0.2968  0.3121
64464W        W 7381  12.942  25.508  26.999 -0.2261 -0.0293  0.2105
64465W        W 7382  13.396  26.733  30.890  0.1760 -0.0544 -0.0264
64466W        W 7383  15.705  29.061  30.386  0.0521  0.2045 -0.0020
64467W        W 7384  12.902  27.360  26.430  0.2301  0.0996  0.1353
64468W        W 7385  11.217  24.667  30.003  0.0146 -0.1833  0.1804
64469W        W 7386  13.247  24.888  28.311  0.2071 -0.1763  0.2545
64470W        W 7387  13.949  28.829  28.217 -0.2283  0.0838 -0.2577
64471W        W 7388  10.638  27.678  28.394  0.2308  0.0979 -0.0031
64472W        W 7389  12.781  25.649  30.291  0.0052 -0.3182 -0.3435
64473W        W 7390  11.853  28.649  28.692  0.0748  0.1920 -0.0154
64474W        W 7391   9.884  25.218  27.456 -0.0986  0.0378 -0.0854
64475W        W 7392   9.144  28.478  29.853 -0.2599  0.1055  0.1775
64476W        W 7393  12.295  27.290  28.861 -0.0744 -0.2263 -0.1071
64477W        W 7394  13.210  26.600  27.406  0.1004 -0.4537  0.0965
64478W        W 7395  13.742  24.804  29.511 -0.1163 -0.1409 -0.0274
64479W        W 7396  13.532  28.860  28.511  0.5068 -0.0242  0.2635
64480W        W 7397  13.624  25.113  29.949  0.0668  0.1816 -0.1068
64481W        W 7398  14.866  27.698  31.778  0.3494  0.0301 -0.1866
64482W        W 7399  10.752  29.340  29.579 -0.1247  0.0110 -0.1219
64483W        W 7400  10.984  28.912  29.440  0.3442  0.2739 -0.3020
64484W        W 7401  11.759  27.689  27.619 -0.1646  0.2194 -0.2884
64485W        W 7402  15.307  25.943  28.222 -0.1787  0.0764  0.1560
64486W        W 7403  14.149  30.239  28.099 -0.2442 -0.0223  0.0044
64487W        W 7404  13.749  28.392  31.390  0.0905 -0.2504 -0.1495
64488W        W 7405  12.108  28.487  27.298 -0.3704  0.0222 -0.0181
64489W        W 7406  12.291  29.393  28.938  0.4649 -0.1560 -0.1072
64490W        W 7407  10.707  29.963   1.351 -0.1171  0.0252 -0.2889
64491W        W 7408  13.754  27.597  29.144  0.1690  0.0999 -0.1510
64492W        W 7409  13.853  25.304  29.609  0.0599 -0.3509  0.0373
64493W        W 7410  13.880  29.310  26.238 -0.2928 -0.0556 -0.0384
64494W        W 7411  11.588  28.430  31.150  0.3070 -0.0553 -0.0554
64495W        W 7412  13.880  29.854  29.694  0.2601 -0.1526 -0.1527
64496W        W 7413  11.509  29.099  29.533  0.0401 -0.0332  0.1804
64497W        W 7414  13.244  27.930  30.907 -0.2906 -0.0349 -0.2014
64498W        W 7415  11.918  30.107  27.521 -0.1927  0.0381 -0.4225
64499W        W 7416  14.019  24.203  27.653 -0.1286 -0.0884  0.0839
64500W        W 7417  12.557  26.014  26.282 -0.0820 -0.1108  0.0001
64501W        W 7418  14.328  26.231  25.398 -0.1399  0.0960 -0.0133
64502W        W 7419  13.480  26.756  29.342  0.1704  0.0107  0.2349
64503W        W 7420  10.900  28.022  27.506 -0.1692 -0.1486  0.1026
64504W        W 7421  10.816  24.356  28.996  0.1700 -0.1403 -0.3603
64505W        W 7422  12.887  26.564  31.188 -0.0497 -0.0704  0.0911
64506W        W 7423  11.794  26.419  28.805  0.1362  0.1621  0.1182
64507W        W 7424  15.191  25.052  28.834  0.0098 -0.1125 -0.1234
64508W        W 7425  11.597  28.707  30.638  0.0849  0.0045  0.3556
64509W        W 7426  12.349  26.435  27.600  0.0027  0.1509 -0.1645
64510W        W 7427  13.986  28.645  26.045  0.0608 -0.1676 -0.3242
64511W        W 7428  13.164  29.033  29.858 -0.1423 -0.1889 -0.1524
64512W        W 7429  14.779  27.366  29.002  0.1218  0.3925  0.0882
64513W        W 7430  11.938  26.393  26.840  0.0334  0.1192  0.0140
64514W        W 7431  12.675  27.243   0.458  0.1781  0.0817 -0.1998
64515W        W 7432  11.082  27.355  29.320  0.0108 -0.1103  0.1617
64516W        W 7433  10.769  23.072  25.673 -0.0090  0.1168 -0.2983
64517W        W 7434  16.442  26.754  30.702 -0.4842  0.0876 -0.0390
64518W        W 7435  10.480  29.915  28.297  0.2939 -0.2437  0.2838
64519W        W 7436  14.938  23.621  27.331  0.2603  0.0654 -0.1326
64520W        W 7437  13.368  27.938  29.727 -0.0578  0.4411  0.4742
64521W        W 7438  16.233  27.351  29.685  0.0737 -0.1362 -0.0876
64522W        W 7439  15.749  29.207  27.768  0.1517 -0.1115 -0.2152
64523W        W 7440  13.201  25.435  31.279  0.2051 -0.2681  0.0122
64524W        W 7441  14.703  24.394  28.593  0.6328  0.1253  0.1597
64525W        W 7442  13.106  26.618  27.949  0.1266 -0.2245 -0.1552
64526W        W 7443  13.020  28.116  26.691  0.1791 -0.2135 -0.0162
64527W        W 7444  14.707  28.542  29.348 -0.1083 -0.2599 -0.3461
64528W        W 7445  13.309  28.229  28.404  0.1961 -0.1419 -0.0424
64529W        W 7446  13.689  26.337  29.209  0.1076  0.2055 -0.3779
64530W        W 7447  11.625  26.976  29.460  0.2810 -0.1381  0.0702
64531W        W 7448  13.015  26.915  31.703  0.0862 -0.0383 -0.0975
64532W        W 7449  11.373  29.718  28.112  0.2508  0.0114 -0.0449
64533W        W 7450  12.186  26.053  28.840 -0.2459 -0.0849  0.1668
64534W        W 7451  11.965  27.414  29.296 -0.0160 -0.3504 -0.0556
64535W        W 7452  10.593  27.579  27.606  0.2247 -0.0457 -0.1142
64536W        W 7453  14.382  26.587  30.097  0.1366  0.2464 -0.3507
64537W        W 7454  12.632  26.713  28.003  0.2072  0.1690  0.0574
64538W        W 7455  12.002  25.009  29.039 -0.0248 -0.0169  0.1812
64539W        W 7456  14.671  24.508  29.444  0.0990 -0.2279 -0.0333
64540W        W 7457  11.227  29.170  28.174  0.4455  0.0569 -0.0820
64541W        W 7458  14.618  30.026  28.071 -0.2302 -0.3884 -0.1407
64542W        W 7459  14.667  25.509  25.942 -0.1718  0.2321 -0.2874
64543W        W 7460  15.402  29.007  28.166  0.0271 -0.3495 -0.1448
64544W        W 7461   8.672  25.886  31.303 -0.2367  0.2591 -0.0768
64545W        W 7462  12.603  26.244  29.640 -0.1567 -0.3985  0.1053
64546W        W 7463  12.415  27.590  30.622 -0.4043 -0.0483  0.1978
64547W        W 7464  10.671  27.245  28.033  0.0635 -0.1149 -0.0857
64548W        W 7465  12.611  27.055   0.007  0.1917  0.0290 -0.3763
64549W        W 7466  11.538  27.840  29.277  0.1214 -0.0157 -0.1780
64550W        W 7467  14.957  25.981  28.781 -0.0229  0.0348 -0.1621
64551W        W 7468  11.663  28.255  26.944 -0.1108  0.1013  0.1532
64552W        W 7469  11.775  27.349  26.775 -0.0951 -0.2617 -0.1840
64553W        W 7470  15.070  25.573  28.999 -0.3278  0.3471 -0.1100
64554W        W 7471  13.572  30.017  28.955  0.1494 -0.2998  0.0634
64555W        W 7472  13.585  28.983   1.197 -0.3120 -0.1285 -0.0934
64556W        W 7473  12.109  29.124  28.520  0.0204 -0.0544 -0.0712
64557W        W 7474  10.711  26.653  31.574 -0.3983  0.1490 -0.1587
64558W        W 7475  14.026  25.980  29.095 -0.2118  0.3359 -0.2579
64559W        W 7476  12.044  31.242  27.536 -0.2027  0.0186 -0.1739
64560W        W 7477  12.455  28.223  30.588  0.2391  0.1049 -0.0486
64561W        W 7478  11.129  26.130  29.488 -0.1641 -0.1254  0.1200
64562W        W 7479  16.691  28.753  28.286  0.2447 -0.0622  0.1912
64563W        W 7480  10.992  27.267  28.714  0.1918  0.3537  0.1263
64564W        W 7481   9.622  28.491  29.814  0.0103  0.1039 -0.1917
64565W        W 7482  14.940  25.184  27.671 -0.1597 -0.0541  0.0380
64566W        W 7483  15.301  26.813  30.037 -0.3060 -0.2067 -0.2262
64567W        W 7484  13.641  27.445  27.689 -0.0921  0.2374 -0.0741
64568W        W 7485  11.789  26.951  27.556 -0.4734 -0.1677  0.1320
64569W        W 7486  14.213  29.618  28.046  0.1388 -0.2287 -0.0742
64570W        W 7487  12.662  28.572  27.649  0.0599 -0.2323  0.0198
64571W        W 7488  11.781  27.849  28.371 -0.2778 -0.0697  0.0446
64572W        W 7489  13.255  26.509   0.557  0.0785  0.3022 -0.0158
64573W        W 7490  15.939  25.185  26.364 -0.1681  0.1823 -0.2803
64574W        W 7491  10.670  27.366  30.166 -0.3380  0.3204 -0.1402
64575W        W 7492  12.789  27.825  31.437  0.0361 -0.0951  0.4666
64576W        W 7493  12.540  26.418  27.150  0.0978 -0.0656 -0.2669
64577W        W 7494  12.429  29.285  30.364 -0.1836 -0.1599  0.1275
64578W        W 7495  13.325  27.906  27.156 -0.2121 -0.0476  0.0676
64579W        W 7496  15.095  27.126  28.491 -0.1379  0.0832 -0.1217
64580W        W 7497  14.331  29.431  31.412  0.0197  0.2587 -0.0280
64581W        W 7498  14.754  27.928  28.965 -0.0914  0.1347  0.2943
64582W        W 7499  12.089  27.475  28.429  0.1789 -0.3891  0.0702
64583W        W 7500  14.153  25.684  27.855 -0.0782  0.0946 -0.0289
64584W        W 7501  11.526  27.592  30.695 -0.1339  0.1538  0.0923
64585W        W 7502  12.016  26.895  29.088 -0.1629 -0.1584  0.3290
64586W        W 7503  15.188  28.718  30.340  0.2941 -0.0400  0.1761
64587W        W 7504  13.692  27.003  25.485 -0.1575 -0.0230  0.1251
64588W        W 7505  15.663  28.417  28.226  0.2559 -0.2170  0.1194
64589W        W 7506  13.101  26.925  29.574 -0.0295 -0.0778 -0.0199
64590W        W 7507  10.235  28.656   1.086 -0.1852  0.1111 -0.0447
64591W        W 7508  13.856  28.127  30.184  0.1382  0.1126 -0.1281
64592W        W 7509  11.199  25.683  30.225 -0.0619  0.1200  0.0504
64593W        W 7510  11.749  27.147  28.082 -0.0821 -0.0313  0.0288
64594W        W 7511  12.596  27.679  27.678 -0.0406  0.2384 -0.1510
64595W        W 7512   9.354  29.158  26.839 -0.2161  0.0584  0.0418
64596W        W 7513  13.648  25.149  28.473  0.1598  0.2840 -0.1275
64597W        W 7514  12.656  26.536  30.083 -0.0149  0.1288 -0.1107
64598W        W 7515  10.803  27.817  29.915 -0.2941 -0.0720 -0.2114
64599W        W 7516  12.550  27.055  30.449  0.0455 -0.1112 -0.1426
64600W        W 7517  13.295  26.161  27.823 -0.1135 -0.5240  0.0394
64601W        W 7518  14.529  26.417  30.635  0.1193  0.0668 -0.1282
64602W        W 7519  12.188  27.717  27.971  0.0689  0.4801 -0.4352
64603W        W 7520  14.790  25.054  29.636  0.1342  0.0104  0.4394
64604W        W 7521  10.821  26.975  29.739  0.1056  0.3392  0.1525
64605W        W 7522  10.399  29.669  29.721  0.0105  0.0018 -0.2608
64606W        W 7523  12.803  28.623  30.893 -0.0188 -0.0424  0.0244
64607W        W 7524  12.545  25.820  27.918 -0.0100 -0.0109  0.1470
64608W        W 7525  10.540  26.389  30.370 -0.1496 -0.1916 -0.2204
64609W        W 7526  13.105  26.322  28.761 -0.2294  0.0801  0.1327
64610W        W 7527  14.506  30.455  29.366 -0.2171  0.1910  0.2775
64611W        W 7528  15.992  27.266  27.268 -0.0018 -0.0938  0.1384
64612W        W 7529  11.263  25.164  29.433 -0.3129 -0.2839 -0.0333
64613W        W 7530  12.036  28.374  30.422  0.0189 -0.1470  0.1082
64614W        W 7531  10.399  29.575  27.739 -0.3392 -0.1493  0.1981
64615W        W 7532  12.770  27.332  29.604  0.0818  0.0159 -0.2238
64616W        W 7533   9.672  28.103  27.206 -0.1975  0.0316  0.1667
64617W        W 7534  15.116  24.907  30.693  0.1825  0.3635  0.4092
64618W        W 7535  12.224  30.991  30.065  0.0520 -0.0951 -0.0759
64619W        W 7536  10.892  26.030  27.509  0.0942 -0.3080  0.2270
64620W        W 7537   9.847  29.047  28.419 -0.2757  0.3868 -0.0180
64621W        W 7538  13.188  27.477  29.791 -0.1301  0.0118 -0.1663
64622W        W 7539  14.272  28.306  30.567  0.0235  0.0469 -0.0318
64623W        W 7540  10.602  25.208  28.863 -0.1437  0.2756  0.0056
64624W        W 7541  12.606  26.385  28.702  0.1544  0.3439 -0.0422
64625W        W 7542  10.056  29.817  28.670 -0.1117  0.0098 -0.2590
64626W        W 7543  12.658  26.651  30.744 -0.0178  0.0177 -0.1754
64627W        W 7544  13.830  26.156  27.789  0.1538 -0.2235  0.1999
64628W        W 7545  15.712  28.651  31.179  0.1082  0.1822 -0.0247
64629W        W 7546  11.778  26.322  30.404  0.0804 -0.1985  0.0399
64630W        W 7547   9.405  26.252  27.243 -0.1126 -0.3139  0.0003
64631W        W 7548  13.034  26.995  30.707  0.1426  0.3290 -0.2360
64632W        W 7549   9.891  26.873  28.445 -0.0171  0.1484  0.2392
64633W        W 7550  10.351  26.807  29.370 -0.1690 -0.0924 -0.4579
64634W        W 7551  14.235  28.456  29.653 -0.1529 -0.3362 -0.2283
64635W        W 7552  12.535  27.257  27.351 -0.0141 -0.3753  0.1193
64636W        W 7553  12.243  29.331  27.551 -0.1857  0.0430  0.3098
64637W        W 7554  12.758  27.981  31.000 -0.3366 -0.0307  0.2856
64638W        W 7555  15.421  25.679  29.463 -0.0727 -0.2773 -0.0355
64639W        W 7556  13.565  25.622  28.984 -0.2145  0.1254 -0.1107
64640W        W 7557  11.259  27.253  28.162 -0.3540  0.3797  0.1920
64641W        W 7558  13.410  25.543  29.613  0.0083 -0.0430  0.2118
64642W        W 7559  16.459  28.104  28.104  0.0148 -0.1471 -0.2851
64643W        W 7560  13.971  26.916  30.029  0.0511  0.3300  0.0274
64644W        W 7561   9.857  27.981  29.819  0.3101  0.0518  0.2047
64645W        W 7562  13.122  28.359  30.572  0.1048  0.1039  0.0546
64646W        W 7563  15.763  28.965  29.006 -0.1883 -0.1116 -0.0079
64647W        W 7564  12.864  28.943  30.299  0.0406 -0.0462  0.1595
64648W        W 7565  12.767  27.081  25.964 -0.0800 -0.2205  0.1091
64649W        W 7566  10.647  26.394  29.863 -0.3373  0.0046  0.1275
64650W        W 7567  12.526  28.562  28.217 -0.1222 -0.2082  0.2298
64651W        W 7568  15.265  24.076  28.464 -0.2502  0.1472 -0.2494
64652W        W 7569  12.941  28.318  28.850  0.0058  0.0866 -0.1891
64653W        W 7570  12.487  28.718  27.041 -0.0323  0.0397 -0.3359
64654W        W 7571  10.604  29.056  27.649 -0.1811 -0.0914  0.3009
64655W        W 7572  15.466  22.480  27.957 -0.0553 -0.0060  0.0062
64656W        W 7573  13.731  27.184  28.128  0.3708 -0.0102 -0.3293
64657W        W 7574  14.080  24.128  29.103 -0.2040  0.0846 -0.0668
64658W        W 7575  14.327  24.453  27.294 -0.2309  0.0081  0.3352
64659W        W 7576  13.989  25.360  29.099  0.1628  0.1104  0.3205
64660W        W 7577  10.907  25.178  31.107  0.1528  0.1840  0.1702
64661W        W 7578  12.173  25.839  30.428  0.1062 -0.2193  0.0512
64662W        W 7579  12.766  29.408  27.838  0.2463  0.0020 -0.1278
64663W        W 7580  10.619  26.012  28.632 -0.3224 -0.5536  0.1548
64664W        W 7581  12.129  27.723  31.522 -0.0173 -0.0755 -0.0358
64665W        W 7582  12.157  26.821  31.685  0.2406 -0.0875  0.3626
64666W        W 7583  13.753  25.654  30.013  0.5034 -0.2505 -0.0246
64667W        W 7584  12.094  25.984  27.997  0.0479 -0.2214  0.3615
64668W        W 7585  13.976  26.805  28.266 -0.1506  0.3286 -0.1993
64669W        W 7586  14.643  28.634  29.830 -0.2175 -0.0297 -0.3884
64670W        W 7587  12.538  28.478  29.701  0.2401 -0.2942 -0.1273
64671W        W 7588  13.059  25.820  28.803  0.0022 -0.1318 -0.0773
64672W        W 7589   9.573  27.711  30.234 -0.1039 -0.0962 -0.0175
64673W        W 7590  15.971  27.498  28.748  0.0159  0.2218  0.0936
64674W        W 7591  15.432  25.983  28.939 -0.1048 -0.0267  0.0164
64675W        W 7592  12.106  28.332  29.926 -0.0738  0.1849  0.1133
64676W        W 7593  12.429  26.281  30.996  0.0836 -0.2053 -0.2762
64677W        W 7594  14.342  27.144  28.106  0.1438 -0.1594 -0.1755
64678W        W 7595  14.545  25.741  26.994 -0.4556 -0.2778 -0.0793
64679W        W 7596  14.647  25.968  29.852  0.1665 -0.0306  0.3169
64680W        W 7597  13.870  29.486  31.104 -0.4337 -0.0440  0.0277
64681W        W 7598  11.137  27.267  30.331 -0.0865  0.2684 -0.0082
64682W        W 7599  10.370  26.965  30.151  0.1646  0.1503 -0.1054
64683W        W 7600  14.920  26.661  30.916  0.0166 -0.1093  0.2891
64684W        W 7601  15.376  24.504  25.138  0.2695  0.0528  0.0838
64685W        W 7602  15.206  26.124  30.316  0.0713  0.1517  0.1149
64686W        W 7603  13.383  25.698  27.346  0.2548 -0.0135  0.0415
64687W        W 7604  13.302  26.077  25.402  0.2841 -0.3335 -0.0444
64688W        W 7605  11.606  26.666  30.696 -0.2658  0.3001 -0.1027
64689W        W 7606  15.564  27.111   0.132  0.0735  0.2316 -0.0032
64690W        W 7607  11.823  25.543  27.840  0.4722  0.5450 -0.1717
64691W        W 7608   9.892  27.124  28.867  0.3816 -0.3091 -0.1209
64692W        W 7609  11.976  27.370  27.292  0.0565 -0.2274 -0.0393
64693W        W 7610  13.448  29.390  28.959  0.1188  0.0505 -0.0541
64694W        W 7611  11.604  24.279  26.338  0.0371  0.1329 -0.0074
64695W        W 7612  13.160  25.373  28.600 -0.0667 -0.1401 -0.3760
64696W        W 7613   9.507  27.882   0.768 -0.1479  0.4543 -0.0408
64697W        W 7614  12.369  26.302  28.228 -0.0525  0.1663  0.0540
64698W        W 7615  11.762  30.068  28.074  0.0594 -0.3297 -0.1847
64699W        W 7616  13.777  26.562  29.671  0.0978  0.2567  0.0686
64700W        W 7617  14.808  27.667  31.107  0.1060 -0.6369  0.2371
64701W        W 7618  12.760  26.802  27.465 -0.0563 -0.1344 -0.0709
64702W        W 7619  15.549  26.157  27.777 -0.2456 -0.2782 -0.2508
64703W        W 7620  12.268  28.122  28.380 -0.1938  0.1333 -0.2131
64704W        W 7621  13.013  28.482  29.684  0.2797  0.3864 -0.1035
64705W        W 7622  12.407  28.429  31.142  0.2362  0.0596 -0.2076
64706W        W 7623  12.589  27.744  31.908 -0.0510  0.2420 -0.0185
64707W        W 7624  14.132  27.903  29.017  0.0479 -0.2463 -0.0472
64708W        W 7625  13.274  25.991  28.288 -0.3754 -0.0293  0.1141
64709W        W 7626  14.608  24.605  26.823 -0.2850  0.2060 -0.4366
64710W        W 7627  14.750  27.665  29.461  0.2305 -0.0871  0.1584
64711W        W 7628  15.746  26.499  30.441 -0.1135 -0.0712  0.2687
64712W        W 7629  14.230  25.619  29.766  0.1207  0.1196 -0.0404
64713W        W 7630  11.885  29.096  31.162  0.1549 -0.2553 -0.1754
64714W        W 7631  12.535  27.119  30.959  0.1517 -0.1551  0.0954
64715W        W 7632  12.543  28.364  26.580  0.1239 -0.0090  0.1404
64716W        W 7633  14.436  29.512  30.431  0.2054 -0.0058 -0.2202
64717W        W 7634  11.377  26.668  29.039  0.0274 -0.1239  0.3103
64718W        W 7635  14.626  27.375   0.120 -0.0745 -0.1865  0.0235
64719W        W 7636  12.406  27.081  28.320  0.1360  0.3947 -0.0813
64720W        W 7637  10.233  26.731  28.879  0.1134  0.1717 -0.2504
64721W        W 7638  12.632  27.656  28.162  0.2176 -0.0326 -0.4622
64722W        W 7639  11.604  29.913  30.554 -0.0465  0.0708 -0.1780
64723W        W 7640  10.426  28.027  29.619 -0.2078 -0.0294 -0.1634
64724W        W 7641  10.268  28.949  28.720  0.0262  0.2225  0.1816
64725W        W 7642  13.277  26.020  29.181 -0.2889 -0.0266 -0.0159
64726W        W 7643  11.575  29.016  28.611  0.0564 -0.0271 -0.1078
64727W        W 7644  13.469  28.196  27.807  0.0237  0.2225  0.1150
64728W        W 7645  12.867  26.285  28.268  0.0408  0.3396 -0.2300
64729W        W 7646   9.763  28.961  28.964  0.1798 -0.2939  0.0325
64730W        W 7647  11.390  29.904  27.579 -0.0596  0.0765  0.0186
64731W        W 7648  14.369  27.735  28.622  0.0018  0.2569  0.0038
64732W        W 7649  11.978  28.170  28.769  0.0125  0.0313 -0.2985
64733W        W 7650  14.371  28.968  31.613 -0.1914 -0.2145 -0.0121
64734W        W 7651  14.599  24.597  25.821 -0.0279 -0.2397 -0.1230
64735W        W 7652  14.274  25.106  28.694  0.0972 -0.1471  0.0574
64736W        W 7653  12.875  23.980  28.615  0.0972  0.0631  0.0563
64737W        W 7654  14.594  28.746   0.058  0.0525 -0.0895  0.2014
64738W        W 7655  11.810  25.342  29.479  0.2556 -0.1333  0.1200
64739W        W 7656  12.571  25.396  28.848 -0.0717 -0.0020  0.1797
64740W        W 7657  11.666  27.644  30.144 -0.0826  0.0155  0.2639
64741W        W 7658  15.466  26.373  30.833 -0.0295  0.1673 -0.2000
64742W        W 7659  10.794  28.923  30.893  0.1405  0.1351  0.1332
64743W        W 7660  12.721  27.720  30.040 -0.2387  0.3362 -0.2732
64744W        W 7661   9.212  26.495  27.672  0.0706 -0.0144  0.0798
64745W        W 7662  11.202  27.769  30.217 -0.0273 -0.1747  0.1397
64746W        W 7663  15.552  24.132  30.393  0.0345  0.1250 -0.0818
64747W        W 7664  13.970  28.756  27.051 -0.3395  0.0708 -0.0557
64748W        W 7665  12.655  26.047  29.103 -0.2554 -0.0021 -0.2572
64749W        W 7666  11.338  28.592  29.994 -0.1938  0.4101  0.0521
64750W        W 7667  12.623  28.201  29.288  0.1015 -0.2453  0.1216
64751W        W 7668  12.067  30.436  27.893  0.1361 -0.1823 -0.0704
64752W        W 7669  12.071  24.628  27.881 -0.0468  0.1430  0.1389
64753W        W 7670  15.676  27.760  29.091 -0.1423  0.1772 -0.1052
64754W        W 7671  12.976  27.825  28.953  0.0346  0.2349  0.0123
64755W        W 7672  15.417  24.634  29.135 -0.2667  0.2742  0.0787
64756W        W 7673   9.286  26.769  30.113 -0.3744 -0.2050  0.2963
64757W        W 7674  14.749  25.898  25.681  0.0239  0.0850  0.0742
64758W        W 7675  11.862  28.071  27.918 -0.0365  0.2409 -0.0137
64759W        W 7676  10.926  27.981  28.018  0.0850  0.0846 -0.2302
64760W        W 7677  11.703  25.923  28.696  0.0547 -0.3613 -0.0573
64761W        W 7678  15.225  27.897   0.106 -0.2595  0.0499  0.3483
64762W        W 7679  12.874  27.689  27.227  0.0656  0.2180 -0.1244
64763W        W 7680  14.807  30.268  30.474 -0.0026  0.1367 -0.1001
64764W        W 7681   9.077  28.459  27.980 -0.1460 -0.0132  0.1117
64765W        W 7682  13.632  26.384  28.328 -0.1106  0.0652  0.0522
64766W        W 7683  10.545  28.394  28.105 -0.0402 -0.0902 -0.0571
64767W        W 7684  13.595  28.380  29.766 -0.0115 -0.3563 -0.1919
64768W        W 7685  12.412  28.738  30.581  0.0232 -0.1162  0.2630
64769W        W 7686  10.153  26.065  29.922  0.2644 -0.0777  0.0503
64770W        W 7687  14.246  26.314  29.542 -0.2328 -0.2910 -0.1650
64771W        W 7688  14.444  25.998  28.468  0.1866 -0.1293 -0.1764
64772W        W 7689  12.626  28.771  26.218  0.1139 -0.1421 -0.0407
64773W        W 7690  14.788  27.898  28.027  0.0724  0.0857  0.0309
64774W        W 7691  14.281  28.108  28.250 -0.2499 -0.1999  0.2349
64775W        W 7692  13.779  27.372  30.301  0.1529  0.0125 -0.2689
64776W        W 7693  13.114  29.538  29.735  0.1130  0.0499 -0.0702
64777W        W 7694  15.393  29.283  29.532  0.3247  0.3149  0.1906
64778W        W 7695  10.499  27.129  28.697 -0.1661  0.0404  0.3413
64779W        W 7696  11.835  27.697  28.847  0.0073 -0.1628  0.0405
64780W        W 7697   9.689  29.838  26.367  0.1757 -0.6400 -0.3321
64781W        W 7698  12.033  25.641  29.787 -0.0709 -0.5536 -0.0819
64782W        W 7699  13.436  27.102  29.958 -0.0527  0.0712 -0.1575
64783W        W 7700  12.303  29.959  27.771 -0.0496  0.0303  0.1688
64784W        W 7701  15.267  27.472  30.262 -0.1681 -0.0960  0.1631
64785W        W 7702  14.134  27.915  31.189 -0.2630 -0.1176 -0.1548
64786W        W 7703  13.714  28.087  29.260 -0.2421  0.0995 -0.1645
64787W        W 7704  11.698  27.246  25.842  0.1744  0.0518 -0.1130
64788W        W 7705  13.691  26.167   0.661  0.1455 -0.0953  0.1263
64789W        W 7706  12.205  27.202  27.778  0.3005 -0.1924  0.0769
64790W        W 7707  13.330  30.627  25.165  0.0438 -0.3528  0.0861
64791W        W 7708  14.411  29.917  28.719 -0.1825  0.1174 -0.3578
64792W        W 7709  11.550  27.464  28.531  0.0767 -0.1571  0.0514
64793W        W 7710  14.608  28.774  25.980  0.1775  0.1860  0.0044
64794W        W 7711   9.644  26.374  29.827  0.3332 -0.4467  0.0189
64795W        W 7712  14.244  25.144  27.826 -0.1533 -0.0912  0.3595
64796W        W 7713  14.335  25.940  26.244  0.1937  0.0072  0.0725
64797W        W 7714  12.215  27.887  29.206  0.0303 -0.1400  0.1676
64798W        W 7715  12.475  27.946  26.254 -0.1536  0.0281  0.3558
64799W        W 7716  12.428  27.760  28.720 -0.2290 -0.1537  0.2379
64800W        W 7717  11.473  27.215  27.209  0.4456  0.1012 -0.0386
64801W        W 7718  11.781  27.194   0.103  0.1643 -0.2952 -0.1934
64802W        W 7719  12.254  27.314  31.798  0.3934  0.1719  0.2338
64803W        W 7720  11.637  28.331  29.066  0.0821 -0.2237  0.0384
64804W        W 7721  10.769  25.149  29.457 -0.1663  0.0403  0.3152
64805W        W 7722  15.112  28.656  25.790 -0.0922  0.0421  0.2218
64806W        W 7723  11.369  26.411  28.520 -0.2029 -0.2756 -0.0545
64807W        W 7724  10.536  24.766  29.179 -0.0927 -0.1903  0.1206
64808W        W 7725  14.415  26.592  29.122 -0.2092 -0.0453  0.0404
64809W        W 7726  14.055  26.936  29.517 -0.0328 -0.4897  0.2073
64810W        W 7727  11.631  27.221  28.943  0.2676 -0.0884 -0.1218
64811W        W 7728  14.430  28.073  29.382 -0.1158  0.2194 -0.2564
64812W        W 7729   9.838  27.847  27.691 -0.0144  0.1413 -0.0344
64813W        W 7730  12.430  27.700   0.469  0.2767  0.1497 -0.4948
64814W        W 7731  12.452  25.530  29.477  0.1575 -0.1822  0.0777
64815W        W 7732  11.460  26.707  28.079 -0.2950 -0.2944  0.1051
64816W        W 7733  14.037  25.655  28.669  0.0684 -0.0468 -0.2921
64817W        W 7734  14.736  27.590  27.597 -0.2638  0.3031 -0.0704
64818W        W 7735  14.080  29.235  27.284  0.0037  0.1023  0.1034
64819W        W 7736  13.430  26.819  28.263 -0.0226 -0.2817  0.0668
64820W        W 7737  12.593  27.559  29.222 -0.2616 -0.0205 -0.0076
64821W        W 7738  11.295  27.016  29.843 -0.0492 -0.1708  0.0021
64822W        W 7739  13.350  26.535  26.758 -0.2225  0.1225 -0.1085
64823W        W 7740  11.214  28.156  29.145 -0.0850  0.0588  0.0096
64824W        W 7741  13.187  27.563  27.636 -0.1115 -0.0902 -0.0878
64825W        W 7742  15.183  26.436  29.658 -0.1515  0.0591  0.1122
64826W        W 7743  14.313  27.841  27.460  0.0136 -0.1982 -0.3079
64827W        W 7744  10.520  25.419  30.736 -0.2995  0.3524 -0.2393
64828W        W 7745  11.162  28.771   1.357 -0.2215  0.1525  0.1258
64829W        W 7746  15.491  25.698  30.125  0.1553 -0.0543 -0.2102
64830W        W 7747  11.158  26.526  29.837  0.1604 -0.0378  0.2631
64831W        W 7748  15.162  28.168  26.085 -0.2866 -0.1445 -0.0510
64832W        W 7749  16.202  27.258  26.763 -0.0983  0.1449 -0.2652
64833W        W 7750  11.298  25.515  28.106 -0.1292  0.1801  0.2547
64834W        W 7751  12.741  27.194  27.824  0.0233 -0.2192 -0.3120
64835W        W 7752  13.624  26.105  28.750  0.0830 -0.2144 -0.0407
64836W        W 7753  13.342  28.469  30.993  0.1022 -0.2632 -0.0433
64837W        W 7754  15.562  29.864  30.241  0.0058  0.3702 -0.0067
64838W        W 7755  10.500  27.037  27.564  0.2150 -0.3229 -0.0127
64839W        W 7756  14.616  25.913  27.474  0.1816  0.0907 -0.0400
64840W        W 7757  13.624  29.743  27.947 -0.5241  0.1838  0.1901
64841W        W 7758  14.451  29.269   0.796  0.2004 -0.0768 -0.0201
64842W        W 7759  13.156  28.901  28.919  0.0260  0.0523  0.0857
64843W        W 7760  14.655  26.743  31.331  0.1409  0.2307  0.3223
64844W        W 7761  10.407  25.666  28.860 -0.2441  0.1279 -0.0582
64845W        W 7762  11.915  28.900  27.586  0.2145 -0.0163 -0.1260
64846W        W 7763  13.576  29.030  31.125  0.1532  0.2062 -0.1010
64847W        W 7764  14.760  26.846  28.245 -0.0088 -0.2844  0.2018
64848W        W 7765  10.284  25.186  29.852 -0.1627  0.2358  0.0413
64849W        W 7766  13.461  24.929  24.668 -0.1141 -0.0993  0.0995
64850W        W 7767  11.569  28.323   0.725  0.0158  0.1886 -0.1026
64851W        W 7768  13.620  29.401  31.598  0.4298 -0.4013  0.1278
64852W        W 7769  14.165  27.042  30.475  0.1075 -0.0351  0.2504
64853W        W 7770  14.115  27.726  30.721 -0.1493 -0.1101  0.0357
64854W        W 7771   9.069  27.327  31.928 -0.0364 -0.0597 -0.1497
64855W        W 7772  11.430  29.536  30.828  0.3095 -0.1346  0.1110
64856W        W 7773  13.000  30.120   0.762 -0.1991  0.0633  0.0646
64857W        W 7774  14.213  28.974  29.634 -0.0577 -0.0368  0.1190
64858W        W 7775  11.876  27.753  29.672  0.1551  0.1309 -0.3782
64859W        W 7776  12.897  26.869   0.690  0.3234  0.3784  0.2237
64860W        W 7777  13.923  28.617   1.009  0.1199 -0.2774  0.3496
64861W        W 7778  13.233  29.802  30.440 -0.1135 -0.3211 -0.2822
64862W        W 7779  15.393  29.223  31.801 -0.0496 -0.1449 -0.2544
64863W        W 7780  11.220  26.308  30.356  0.1401 -0.2184 -0.0528
64864W        W 7781  14.497  27.209  31.483 -0.0487 -0.4785 -0.0739
64865W        W 7782  10.210  26.790  31.229  0.2219  0.2823  0.1995
64866W        W 7783  11.965  27.774  30.554 -0.1148  0.2155 -0.2715
64867W        W 7784  10.753  27.984  28.769 -0.0620 -0.2982  0.0642
64868W        W 7785  10.959  28.085   2.182 -0.0909  0.1457  0.1002
64869W        W 7786  12.410  28.130  31.496  0.1118 -0.0049  0.1248
64870W        W 7787  10.580  27.189  31.388 -0.2633 -0.0343  0.2077
64871W        W 7788  13.329  28.741  31.437  0.0109 -0.1911  0.1744
64872W        W 7789  12.400  26.406   0.314 -0.1146  0.0952 -0.1582
64873W        W 7790  10.286  27.766  30.035 -0.0375 -0.1573 -0.2253
64874W        W 7791  14.924  25.995  31.601  0.0375 -0.2522 -0.0883
64875W        W 7792  13.601  28.728   0.585 -0.0822 -0.2665  0.0304
64876W        W 7793  13.783  25.852  29.481 -0.3518 -0.2452 -0.1051
64877W        W 7794  14.840  26.790  29.882 -0.0966  0.2780 -0.1449
64878W        W 7795  14.899  26.462  31.652  0.0634  0.0038 -0.0515
64879W        W 7796  10.783  29.720  29.298 -0.0529  0.1258  0.0222
64880W        W 7797  12.152  27.381  30.190  0.3339 -0.1676 -0.1565
64881W        W 7798  12.858  28.947   0.132  0.0023  0.0447  0.3451
64882W        W 7799  12.451  28.358  28.853 -0.0456  0.2696  0.0915
64883W        W 7800  10.861  26.017  30.102 -0.1670 -0.1616 -0.2612
64884W        W 7801  15.506  24.986  30.399  0.0634 -0.1668  0.1139
64885W        W 7802  13.823  27.250  30.811  0.2639 -0.0798  0.0842
64886W        W 7803  10.599  27.477  29.610  0.0097  0.2275  0.0508
64887W        W 7804  11.248  28.909   2.449  0.0867 -0.2461  0.0110
64888W        W 7805  11.850  28.601   0.002  0.0653 -0.1810 -0.0216
64889W        W 7806  14.845  27.113  31.053 -0.2218  0.0835 -0.1596
64890W        W 7807  13.010  27.421  31.716  0.0047  0.1512 -0.1540
64891W        W 7808  13.773  29.124   0.341 -0.1069  0.0919 -0.0334
64892W        W 7809  16.153  27.801  30.720 -0.1515 -0.1158 -0.0999
64893W        W 7810  12.848  27.455  30.826  0.0117 -0.3736  0.2575
64894W        W 7811  12.650  26.001  31.450 -0.0404 -0.0816 -0.3507
64895W        W 7812  12.004  29.714  29.803 -0.0923 -0.0248 -0.1918
64896W        W 7813  11.556  27.110  30.893 -0.0485 -0.0104  0.0226
64897W        W 7814  12.549  25.856  30.810  0.1050  0.0150  0.2512
64898W        W 7815  11.491  25.918  30.646  0.1588 -0.0102  0.1785
64899W        W 7816  11.601  28.131   1.956 -0.1559 -0.0880  0.1561
64900W        W 7817  14.101  28.856   0.045 -0.0885  0.0426  0.1701
64901W        W 7818  12.132  27.858  30.099  0.2450 -0.2779  0.2113
64902W        W 7819  15.834  29.528  30.290 -0.2778 -0.1474 -0.0028
64903W        W 7820  12.637  26.711  29.612  0.3735  0.2354  0.1057
64904W        W 7821  13.120  25.884  30.520  0.0062 -0.0303 -0.0453
64905W        W 7822  13.492  27.561   0.297  0.1131 -0.1937  0.3431
64906W        W 7823  13.226  27.601  31.293 -0.1327  0.0433  0.0584
64907W        W 7824  10.997  27.466  30.758 -0.1920  0.2577 -0.5119
64908W        W 7825  14.426  27.585   1.182  0.0290 -0.1723 -0.0920
64909W        W 7826  13.054  29.074  31.218  0.0269  0.1915  0.0753
64910W        W 7827  12.980  29.399   0.638 -0.2138 -0.2645  0.2419
64911W        W 7828  11.613  28.085  30.782  0.0855  0.0796 -0.2429
64912W        W 7829  11.454  27.312   0.466  0.1775 -0.0681 -0.1697
64913W        W 7830  11.360  28.595  29.458  0.0427 -0.0345 -0.4547
64914W        W 7831  11.272  28.043  31.248 -0.2617  0.0439 -0.0905
64915W        W 7832  10.725  26.799  31.030 -0.0368 -0.3600 -0.2404
64916W        W 7833  14.407  30.220  30.864  0.2409 -0.1298 -0.1334
64917W        W 7834  14.865  28.735   0.511 -0.1366 -0.1261 -0.0666
64918W        W 7835  14.326  28.244  31.880 -0.0088 -0.3979 -0.3876
64919W        W 7836  12.685  33.246  19.960 -0.1028 -0.3703  0.2288
64920W        W 7837  12.354  30.374  16.087 -0.1272 -0.1327 -0.1324
64921W        W 7838  13.430  28.824  15.949 -0.3524  0.2829 -0.0152
64922W        W 7839  14.590  31.958  16.271  0.0937  0.1706 -0.1026
64923W        W 7840  12.743  29.444  14.861 -0.0694  0.0051 -0.0235
64924W        W 7841  12.344  31.968  15.488 -0.1495 -0.0985  0.1107
64925W        W 7842  11.486  29.539  18.343  0.1038 -0.0001 -0.1449
64926W        W 7843  13.540  31.528  17.006  0.1954  0.0790  0.1132
64927W        W 7844  16.218  33.317  17.848  0.2820  0.2467 -0.0389
64928W        W 7845  12.816  31.936  14.878  0.2245 -0.3999 -0.3054
64929W        W 7846  12.951  28.927  17.558  0.1262  0.3017 -0.1888
64930W        W 7847  12.116  34.401  18.115  0.1535 -0.1364 -0.3484
64931W        W 7848  12.006  30.039  16.226  0.1177  0.0651  0.1568
64932W        W 7849  12.169  30.676  17.031 -0.2450 -0.0130  0.1260
64933W        W 7850  12.562  30.761  18.013  0.0862  0.0891  0.0513
64934W        W 7851  12.859  31.900  16.233  0.1505  0.1488  0.0045
64935W        W 7852  11.977  31.882  19.388 -0.0781  0.0922 -0.0803
64936W        W 7853  11.928  29.638  15.907  0.1324  0.0580 -0.2426
64937W        W 7854  12.257  32.124  16.234  0.0853  0.1537  0.2246
64938W        W 7855  12.886  30.648  16.056 -0.1591  0.2013  0.3994
64939W        W 7856  12.620  28.724  17.930 -0.1193 -0.1087  0.0839
64940W        W 7857  11.049  29.929  17.141 -0.0222 -0.5714 -0.2615
64941W        W 7858  10.689  30.696  16.362 -0.1528 -0.1028 -0.0490
64942W        W 7859  10.941  33.102  15.670 -0.2194  0.3993 -0.3830
64943W        W 7860  11.206  30.609  16.403  0.0333  0.1410  0.0318
64944W        W 7861  12.537  31.373  18.020  0.2716 -0.0219 -0.2111
64945W        W 7862  12.662  31.036  17.570  0.0762  0.2006 -0.2071
64946W        W 7863  12.401  31.723  15.975  0.1211  0.1132 -0.1281
64947W        W 7864  12.078  31.555  15.604  0.1553 -0.1458  0.5343
64948W        W 7865  11.797  32.874  16.372 -0.1811 -0.0848  0.2142
64949W        W 7866  11.029  32.636  15.744  0.0185  0.0322 -0.2294
64950W        W 7867   9.000  32.691  14.468 -0.3598  0.0122  0.1107
64951W        W 7868  11.820  32.534  17.065 -0.0272  0.1394  0.1564
64952W        W 7869  15.135  32.824  15.990 -0.0938  0.0588 -0.1081
64953W        W 7870  14.968  34.125  17.743 -0.0293 -0.1993 -0.1578
64954W        W 7871  11.908  33.263  20.494 -0.0416  0.0147  0.2466
64955W        W 7872  11.268  32.532  16.325 -0.0672 -0.0385  0.1180
64956W        W 7873  11.259  33.489  19.007  0.1738  0.1458  0.0389
64957W        W 7874  11.936  31.039  19.748 -0.4149 -0.1990  0.1940
64958W        W 7875  11.856  33.512  18.437 -0.0733  0.0659 -0.0513
64959W        W 7876  12.892  31.381  18.367 -0.0011  0.0174 -0.1052
64960W        W 7877   9.946  32.561  14.604 -0.0211  0.1948  0.1285
64961W        W 7878  11.679  30.640  16.845 -0.0893 -0.0247 -0.1898
64962W        W 7879  11.014  31.840  19.072  0.0035 -0.2761 -0.1549
64963W        W 7880  10.577  32.844  17.564 -0.0444 -0.1998  0.0669
64964W        W 7881  13.850  30.036  20.954 -0.1493 -0.0717 -0.1661
64965W        W 7882  11.618  32.661  19.558  0.0020  0.5233  0.1610
64966W        W 7883  13.379  30.567  15.874  0.0379 -0.0080 -0.2184
64967W        W 7884  11.094  31.155  15.023 -0.0273 -0.1866 -0.1463
64968W        W 7885  12.509  31.068  18.466  0.0105  0.0282 -0.0873
64969W        W 7886  13.233  30.570  18.105 -0.0221 -0.3019  0.0720
64970W        W 7887  12.655  34.218  18.140  0.4893 -0.1127 -0.0194
64971W        W 7888  11.623  30.908  16.458  0.0629  0.1569  0.1380
64972W        W 7889  12.910  32.976  17.397 -0.0413 -0.0870 -0.1062
64973W        W 7890  13.362  29.836  17.146 -0.0492  0.2185 -0.1918
64974W        W 7891  14.345  30.010  16.995 -0.1046  0.0661 -0.4660
64975W        W 7892  12.310  31.814  17.942 -0.1988 -0.1095 -0.0545
64976W        W 7893   9.097  29.993  16.080 -0.3405  0.0770 -0.3036
64977W        W 7894  14.502  32.515  15.395  0.1578 -0.0533 -0.0700
64978W        W 7895  16.589  33.249  17.569 -0.0579  0.1033  0.0081
64979W        W 7896  13.170  32.130  15.777  0.0193  0.1976  0.0778
64980W        W 7897  10.748  29.752  16.769  0.0309 -0.3196  0.3377
64981W        W 7898  10.956  31.124  17.568  0.0347  0.0295 -0.3399
64982W        W 7899  10.094  33.233  15.231 -0.1857  0.1002 -0.3263
64983W        W 7900  12.487  29.199  14.218  0.0151  0.1403 -0.0152
64984W        W 7901  14.085  32.161  17.455 -0.0583 -0.2560  0.1090
64985W        W 7902   9.674  31.142  17.610 -0.2869 -0.2179 -0.2449
64986W        W 7903  14.856  28.981  16.618 -0.1276 -0.0040 -0.1453
64987W        W 7904  12.155  33.239  16.421 -0.2736 -0.2766  0.4306
64988W        W 7905  13.939  33.214  18.484 -0.0567  0.0897  0.0983
64989W        W 7906  13.376  30.033  15.115 -0.0532  0.2021  0.0323
64990W        W 7907  12.719  30.323  18.017  0.3238  0.0351 -0.1622
64991W        W 7908  13.129  29.986  19.611 -0.0020 -0.0616  0.2339
64992W        W 7909  11.996  30.420  16.554 -0.0282 -0.0142 -0.0236
64993W        W 7910  11.748  30.212  14.568  0.0154  0.3126 -0.1492
64994W        W 7911  15.042  31.847  18.155  0.3929  0.1964 -0.0731
64995W        W 7912  14.465  31.234  14.544 -0.2128 -0.1520  0.2960
64996W        W 7913  11.789  33.913  17.709 -0.0103  0.0141  0.1677
64997W        W 7914  11.024  32.097  19.481 -0.2852 -0.3195 -0.1829
64998W        W 7915  14.788   0.382  19.440 -0.1046  0.2733  0.0591
64999W        W 7916  10.983  32.283  14.345  0.2329 -0.0401 -0.1045
65000W        W 7917  12.168  32.417  15.840 -0.3503 -0.0350  0.2337
65001W        W 7918  10.737  30.824  15.301  0.0331  0.1630 -0.2011
65002W        W 7919   9.525  30.045  18.300 -0.3165 -0.1522 -0.1953
65003W        W 7920  13.533  32.003  17.132 -0.1064  0.2448 -0.0622
65004W        W 7921  12.107  30.619  15.236  0.0292 -0.1841  0.0667
65005W        W 7922  10.125  30.470  22.733  0.2185  0.2565  0.1356
65006W        W 7923  13.339  30.270  17.632 -0.3340  0.0757 -0.0961
65007W        W 7924  11.612  31.436  15.272  0.1478  0.1589 -0.0383
65008W        W 7925  14.221  32.622  16.185  0.2517 -0.1284 -0.3008
65009W        W 7926  14.891  29.954  17.085 -0.4019 -0.0961  0.2034
65010W        W 7927  13.589  33.461  15.296 -0.0077 -0.0187 -0.0170
65011W        W 7928  12.255  32.145  18.542  0.2533 -0.0357  0.0620
65012W        W 7929  11.909  30.959  17.469 -0.0569  0.1291 -0.0239
65013W        W 7930  11.293  29.898  19.916  0.0833 -0.1879 -0.0587
65014W        W 7931  12.305  31.445  16.389 -0.0805  0.1227 -0.0782
65015W        W 7932  14.240  30.383  17.862 -0.0041  0.1236 -0.0503
65016W        W 7933  12.737  27.643  18.559 -0.4416  0.2027 -0.0585
65017W        W 7934  11.530  30.187  16.445 -0.1181 -0.2304 -0.1803
65018W        W 7935  10.849  30.545  14.833 -0.0002 -0.5136 -0.1854
65019W        W 7936  10.878  31.561  16.442  0.0797 -0.0921 -0.0458
65020W        W 7937  13.085  30.425  19.818  0.1085  0.1095  0.0320
65021W        W 7938  13.311  31.066  15.839 -0.0073  0.0548  0.2008
65022W        W 7939  14.815  32.558  16.909  0.3237  0.0867 -0.0389
65023W        W 7940  13.158  31.736  18.077  0.2569  0.0347 -0.0545
65024W        W 7941  11.375  30.756  17.472  0.0216 -0.0641  0.2176
65025W        W 7942  10.719  31.089  16.665  0.0574  0.0684 -0.1599
65026W        W 7943  11.568  32.997  17.230 -0.0995 -0.1287 -0.1544
65027W        W 7944  13.881  30.903  17.869  0.0579 -0.0552  0.0880
65028W        W 7945  12.433  30.198  15.223  0.1177 -0.0734  0.0153
65029W        W 7946  15.467  32.721  17.353 -0.0469 -0.1230 -0.0406
65030W        W 7947  14.099  31.640  16.799  0.2256 -0.1131 -0.0175
65031W        W 7948  12.537  32.982  19.174  0.0573 -0.1452  0.1065
65032W        W 7949  13.095  30.421  19.295 -0.2250  0.0142  0.0476
65033W        W 7950  11.817  31.891  20.047  0.1153 -0.0545  0.3412
65034W        W 7951  14.392  31.295  15.524  0.0778 -0.4853 -0.0582
65035W        W 7952  11.464  28.350  14.797  0.0940  0.1005  0.4148
65036W        W 7953  12.323   0.146  18.298  0.1595 -0.3583  0.1654
65037W        W 7954  10.475  32.307  16.651  0.1993 -0.1322  0.1017
65038W        W 7955  12.138  30.942  16.385  0.0680 -0.3015  0.2266
65039W        W 7956  11.514  32.463  15.546 -0.0909  0.0142 -0.0136
65040W        W 7957  12.910  30.567  18.840  0.0103 -0.0820  0.1241
65041W        W 7958  10.685  29.983  19.393  0.2774  0.1429 -0.1024
65042W        W 7959  12.101  31.054  18.218  0.0410 -0.4334  0.1600
65043W        W 7960  12.108  30.119  15.703  0.2268  0.1524 -0.0162
65044W        W 7961   9.588  32.231  19.688 -0.0388  0.1678  0.3527
65045W        W 7962  12.808  29.566  17.486  0.0267 -0.5450  0.1730
65046W        W 7963  11.203  30.645  15.258 -0.1283 -0.1312 -0.2101
65047W        W 7964  13.279  32.375  19.301  0.0502  0.2903 -0.0658
65048W        W 7965  13.576  29.391  15.882  0.2207  0.1179  0.2583
65049W        W 7966  11.617  29.806  15.497 -0.1287  0.0133  0.0604
65050W        W 7967  11.823  29.321  15.493 -0.1808  0.0756 -0.1392
65051W        W 7968  12.815  33.327  18.421  0.0931 -0.2418 -0.1170
65052W        W 7969  14.514  31.886  18.353 -0.2770 -0.1378  0.2576
65053W        W 7970  10.456  31.743  15.661  0.1116  0.1338 -0.0906
65054W        W 7971  13.072  29.227  14.420  0.1664  0.2171  0.0037
65055W        W 7972  16.080  31.413  15.451  0.0528  0.0680 -0.1861
65056W        W 7973  11.898  32.229  17.479  0.0400 -0.2306  0.2199
65057W        W 7974  13.539  33.276  20.368  0.0772 -0.0916 -0.1352
65058W        W 7975  11.458  32.758  16.770  0.0471  0.0247  0.1834
65059W        W 7976  11.069  29.193  18.327 -0.0969  0.3854 -0.1781
65060W        W 7977  12.410  29.861  17.527  0.2219  0.3000  0.2562
65061W        W 7978  12.261  31.442  19.866  0.0695  0.0330 -0.0524
65062W        W 7979  10.018  32.926  15.648  0.0313 -0.5170 -0.1444
65063W        W 7980  13.620  31.025  18.700  0.3146 -0.0144  0.2147
65064W        W 7981  14.852  30.597  18.833 -0.0055  0.1406  0.0178
65065W        W 7982  11.097  30.571  17.819 -0.0111 -0.1159  0.3145
65066W        W 7983  11.521  31.809  19.177  0.1809 -0.0246 -0.0911
65067W        W 7984  13.942  30.519  15.912 -0.1484  0.5292  0.0262
65068W        W 7985  10.727  31.267  18.496  0.2934 -0.1703 -0.3204
65069W        W 7986  13.180  31.019  16.314  0.1874  0.1748  0.4423
65070W        W 7987  11.877  29.974  17.376 -0.1009  0.0446 -0.0773
65071W        W 7988  11.752  32.968  18.700 -0.2005 -0.1876 -0.0979
65072W        W 7989  10.420  32.728  16.381 -0.0781  0.1749 -0.1649
65073W        W 7990  12.356  31.211  19.352 -0.0056 -0.0494  0.0602
65074W        W 7991  11.606  31.568  16.757 -0.4093 -0.0419  0.1246
65075W        W 7992  12.604  30.068  18.779 -0.2124  0.0232 -0.0636
65076W        W 7993  13.583  30.057  16.719  0.1922  0.0664 -0.1511
65077W        W 7994  10.212  32.097  17.239 -0.0686  0.2532 -0.3219
65078W        W 7995  12.224  31.159  20.765  0.1267  0.0412  0.2025
65079W        W 7996  11.503  28.931  18.379 -0.0214  0.2810  0.4525
65080W        W 7997  13.692  33.507  17.016 -0.1073  0.4564 -0.0556
65081W        W 7998  12.298  33.117  15.912  0.0646  0.1399  0.0950
65082W        W 7999  13.125  32.261  18.801  0.1122 -0.0213 -0.0523
65083W        W 8000  12.448  33.195  17.307 -0.3090 -0.2722 -0.0855
65084W        W 8001  13.820  30.746  17.211 -0.1671 -0.0196  0.2701
65085W        W 8002  11.261  32.241  15.884  0.1884  0.1247  0.0333
65086W        W 8003  10.326  29.385  15.328  0.4176  0.2728 -0.0294
65087W        W 8004  10.525  31.928  15.151 -0.0158  0.1824 -0.2140
65088W        W 8005  14.344  29.983  19.575 -0.0101  0.0006 -0.4635
65089W        W 8006  13.961  31.297  15.319 -0.0906 -0.2619 -0.3000
65090W        W 8007  11.603  31.043  18.980  0.0915  0.0805  0.1842
65091W        W 8008  11.390  27.548  17.882 -0.1971 -0.1565  0.1161
65092W        W 8009  10.934  31.777  16.940  0.2752  0.4517 -0.2200
65093W        W 8010  11.128  31.492  20.058 -0.2220 -0.0178  0.1209
65094W        W 8011  14.510  30.819  16.251 -0.0004  0.0044 -0.2835
65095W        W 8012  13.101  31.675  17.172 -0.1841 -0.2758  0.2813
65096W        W 8013  13.714  31.617  19.609 -0.2516  0.0654  0.1299
65097W        W 8014   8.760  29.920  15.629  0.2305 -0.0954 -0.1448
65098W        W 8015  13.532  32.070  18.547  0.0270 -0.0233 -0.1310
65099W        W 8016  11.053  31.349  15.810  0.1107  0.1147  0.0182
65100W        W 8017  10.934  32.902  16.146  0.1012  0.0774 -0.2261
65101W        W 8018  10.981  31.833  16.049  0.1379  0.0509 -0.2845
65102W        W 8019  11.136  30.051  15.163  0.0224 -0.0971  0.2403
65103W        W 8020   9.947  32.127  16.765  0.1205  0.1952 -0.4623
65104W        W 8021   9.966  30.468  18.217 -0.0464 -0.0279  0.2077
65105W        W 8022  11.967  31.453  17.266  0.1010 -0.0211  0.0570
65106W        W 8023  10.586  31.491  16.050  0.1282 -0.1418  0.1214
65107W        W 8024  13.677  30.231  17.243  0.0302 -0.0895  0.0218
65108W        W 8025  13.752  31.197  17.409 -0.3529 -0.1602 -0.0648
65109W        W 8026  13.386  33.261  16.636  0.2745  0.2768  0.1060
65110W        W 8027  12.107  31.331  18.877  0.0457  0.1388  0.2528
65111W        W 8028   8.788  34.285  21.214  0.0612  0.2639  0.4072
65112W        W 8029  14.576  29.164  16.292  0.0668 -0.1442  0.1125
65113W        W 8030  13.614  32.377  15.588  0.2498 -0.0286 -0.2253
65114W        W 8031  11.592  32.658  17.667 -0.1587 -0.0715 -0.1706
65115W        W 8032  13.014  31.771  19.173  0.0899  0.2938  0.1308
65116W        W 8033  11.340  31.509  16.271 -0.0650  0.3035 -0.2275
65117W        W 8034  11.313  30.614  15.808 -0.0239  0.1496 -0.1280
65118W        W 8035  10.721  30.267  17.421 -0.0647  0.0870 -0.0090
65119W        W 8036   8.478  32.091  18.497 -0.1489 -0.0791 -0.0848
65120W        W 8037  14.217  31.065  15.959 -0.5180  0.0935  0.1032
65121W        W 8038   9.259  33.526  18.943 -0.0073 -0.3799 -0.0299
65122W        W 8039  13.251  31.587  16.241 -0.2003 -0.1727  0.1459
65123W        W 8040  12.962  30.885  15.516  0.0503 -0.1466 -0.0431
65124W        W 8041  11.737  29.167  14.876  0.1021  0.1932 -0.1657
65125W        W 8042  16.084  29.302  17.665 -0.2044 -0.0064  0.0615
65126W        W 8043  12.797  31.761  15.644 -0.1170 -0.0032 -0.4819
65127W        W 8044  12.166  29.474  19.564  0.0313  0.0590 -0.2086
65128W        W 8045  11.060  28.790  15.701 -0.2843  0.2553 -0.0701
65129W        W 8046  14.082  32.073  16.433 -0.3167 -0.2684 -0.0027
65130W        W 8047  10.952  28.795  18.091  0.0811 -0.1143  0.0795
65131W        W 8048  11.942  32.128  18.009 -0.0832  0.0907  0.1167
65132W        W 8049  10.731  31.283  19.816  0.1625  0.1027  0.0249
65133W        W 8050  14.991  31.628  16.223  0.4031 -0.3776  0.2261
65134W        W 8051  11.387  28.922  16.145  0.0283 -0.0599  0.0093
65135W        W 8052  12.630  33.123  16.257  0.3522  0.1090 -0.2679
65136W        W 8053  12.998  28.906  16.990  0.0973 -0.2292  0.1609
65137W        W 8054  13.043  31.397  14.892  0.0768 -0.0532 -0.0983
65138W        W 8055  17.716  31.449  18.595  0.0977  0.1123 -0.0326
65139W        W 8056  10.340  32.039  17.750 -0.3799 -0.0883  0.1803
65140W        W 8057  12.110  30.833  18.707 -0.3123 -0.4898 -0.0150
65141W        W 8058  13.814  29.958  17.929 -0.2379  0.1261 -0.0940
65142W        W 8059  11.792  30.574  16.014 -0.1398  0.2338 -0.1005
65143W        W 8060  12.469  29.241  17.695  0.0068  0.2303 -0.1140
65144W        W 8061  13.716  30.924  16.242  0.1267 -0.5184 -0.1259
65145W        W 8062  13.205  30.477  16.342 -0.2965  0.0542 -0.1291
65146W        W 8063  14.621  30.375  18.385 -0.3690 -0.3019 -0.1448
65147W        W 8064  13.496  32.668  16.534  0.5265 -0.3647  0.1312
65148W        W 8065  11.451  31.764  18.078  0.0224  0.0801  0.2490
65149W        W 8066  10.580  28.256  21.011 -0.0454  0.0926  0.1626
65150W        W 8067  12.272  32.625  17.351 -0.1813 -0.0580 -0.1121
65151W        W 8068  15.180  30.862  15.776  0.1972  0.0709 -0.0916
65152W        W 8069  15.674  30.573  18.819 -0.1408  0.0387 -0.1086
65153W        W 8070  13.750  30.913  15.581 -0.2310 -0.0580  0.2583
65154W        W 8071  13.996  30.354  16.844  0.1309  0.0873  0.0949
65155W        W 8072  12.056  30.455  18.265  0.2742  0.0957 -0.0788
65156W        W 8073  11.972  31.624  20.586 -0.4772  0.2768  0.1841
65157W        W 8074  11.709  30.845  15.570  0.1251  0.1418  0.0890
65158W        W 8075  13.130  31.890  16.673  0.0075  0.2980 -0.0998
65159W        W 8076  12.110  31.727  14.511 -0.0235 -0.3046  0.2834
65160W        W 8077  12.718  33.475  18.893  0.0766 -0.1627  0.1374
65161W        W 8078  12.885  31.310  19.281 -0.1773  0.0602  0.1114
65162W        W 8079  12.731  29.860  15.667  0.0512 -0.1184 -0.1074
65163W        W 8080  10.607  31.738  18.765 -0.0191  0.1197 -0.0823
65164W        W 8081   9.792  30.899  16.328  0.1113  0.0353  0.0897
65165W        W 8082  12.199  30.981  14.903  0.1988  0.0086  0.0472
65166W        W 8083  13.386  30.849  17.728 -0.0538 -0.0967  0.1417
65167W        W 8084  13.798  30.603  20.122  0.0935 -0.1763  0.0477
65168W        W 8085  13.628  30.370  14.797  0.0358  0.2757 -0.3105
65169W        W 8086  14.979  29.631  19.820  0.3555 -0.1182  0.1477
65170W        W 8087  10.855  32.718  16.657 -0.4783 -0.2052 -0.2058
65171W        W 8088  11.402  30.238  17.555  0.3077 -0.0400  0.0093
65172W        W 8089  12.121   0.074  20.046 -0.0662 -0.1131  0.0183
65173W        W 8090  10.406  32.391  18.360  0.3547 -0.0836 -0.0382
65174W        W 8091  12.631  34.500  17.220 -0.0046  0.1573 -0.1111
65175W        W 8092  13.301  28.600  17.652  0.1773 -0.2617 -0.1168
65176W        W 8093  13.316  30.810  17.256 -0.1855  0.1173 -0.3575
65177W        W 8094  13.041  33.689  19.240 -0.1644  0.2965  0.1247
65178W        W 8095  13.763  30.893  20.643  0.2237  0.1072  0.1447
65179W        W 8096  11.518  31.097  17.122 -0.2824  0.2233  0.1504
65180W        W 8097   9.899  30.230  17.360  0.2274  0.0578 -0.2219
65181W        W 8098  12.480  33.548  16.895  0.1262  0.1054 -0.1395
65182W        W 8099  12.634  31.136  15.148  0.0093  0.0141  0.0402
65183W        W 8100  11.653  31.567  18.742  0.1535  0.5188  0.0073
65184W        W 8101  11.076  29.066  17.711 -0.2820  0.0191 -0.3032
65185W        W 8102  12.686  31.939  18.861 -0.0861 -0.0120 -0.6088
65186W        W 8103  13.222  32.621  15.925  0.1194 -0.1589  0.3628
65187W        W 8104  10.884  30.321  15.534  0.1337 -0.1097 -0.0159
65188W        W 8105  12.848  32.104  15.305  0.1210 -0.1727 -0.0284
65189W        W 8106  11.244  33.441  19.533  0.0256 -0.0140  0.1900
65190W        W 8107  10.946  32.327  16.961 -0.0968 -0.1868  0.0928
65191W        W 8108  11.908  33.265  15.624  0.3094 -0.0720 -0.0105
65192W        W 8109  14.610  33.436  16.509 -0.1777 -0.0639 -0.0880
65193W        W 8110  13.015  30.338  15.246 -0.0989 -0.1400  0.2276
65194W        W 8111  13.887  32.203  15.984 -0.1784 -0.6305 -0.0564
65195W        W 8112   9.481  28.320  15.259 -0.0062  0.0575  0.1105
65196W        W 8113  12.224  32.207  20.264  0.2134  0.0289  0.0183
65197W        W 8114  12.106  31.114  15.397  0.0618 -0.2247 -0.1051
65198W        W 8115  12.869  31.145  17.158  0.0487  0.2000 -0.0199
65199W        W 8116  12.709  32.684  15.935  0.0668  0.0796  0.1997
65200W        W 8117  14.689  31.665  16.617  0.1215  0.0254  0.2618
65201W        W 8118  14.061  28.552  15.821  0.2757 -0.0968 -0.2531
65202W        W 8119  15.193  30.450  19.656 -0.0503 -0.3628 -0.2123
65203W        W 8120  14.456  31.868  19.201 -0.1559 -0.0560 -0.1479
65204W        W 8121  12.529  31.670  19.351  0.1537 -0.3260  0.2949
65205W        W 8122  11.117  32.053  17.347 -0.3912  0.1279  0.3406
65206W        W 8123  11.702  27.994  15.337  0.0573  0.2544 -0.1647
65207W        W 8124  10.163  31.179  18.888  0.0483  0.1601 -0.0959
65208W        W 8125  13.402  26.907  17.808 -0.0036  0.1221 -0.0749
65209W        W 8126  10.003  32.370  18.086 -0.0877  0.0028 -0.0890
65210W        W 8127  13.754  30.787  15.079 -0.0959 -0.0744  0.1388
65211W        W 8128  11.557  29.198  17.428 -0.1812  0.0510 -0.0430
65212W        W 8129  10.922  28.925  17.039  0.3122  0.0107 -0.0543
65213W        W 8130  14.498  31.428  16.263 -0.2446  0.0947  0.0726
65214W        W 8131  11.862  31.909  15.376 -0.4794 -0.0093 -0.3126
65215W        W 8132  12.021  28.175  18.138 -0.2462  0.5521 -0.0849
65216W        W 8133  11.369  33.438  15.697 -0.1305 -0.2505 -0.4819
65217W        W 8134  11.471  32.166  17.724 -0.0610 -0.0805 -0.1780
65218W        W 8135  10.457  33.363  17.734  0.1621 -0.1053 -0.3188
65219W        W 8136  11.473  29.425  15.197 -0.3364  0.0667  0.1561
65220W        W 8137  13.256  28.518  18.530 -0.2065  0.1826  0.0874
65221W        W 8138  11.365  31.809  19.717 -0.1154  0.0752  0.2592
65222W        W 8139  13.223  29.292  17.312  0.2261  0.1019 -0.1448
65223W        W 8140  11.174  29.855  15.650 -0.1209  0.0923  0.0033
65224W        W 8141  13.183  32.593  15.397  0.2265  0.1488  0.0545
65225W        W 8142  10.988  31.459  18.045  0.1952  0.0493  0.0053
65226W        W 8143  11.016  32.087  16.475  0.0033 -0.0307 -0.0948
65227W        W 8144  12.710  27.951  16.372  0.1329 -0.0616  0.1485
65228W        W 8145  16.126  31.215  18.563 -0.2302  0.0093  0.0455
65229W        W 8146  13.250  30.105  15.664 -0.3199  0.0182  0.3139
65230W        W 8147  12.774  32.473  17.614  0.3271 -0.0083 -0.2203
65231W        W 8148  10.952  29.125  19.738 -0.0190 -0.2250  0.2815
65232W        W 8149  11.437  31.065  15.994 -0.0967  0.3430  0.5215
65233W        W 8150  10.876  29.625  14.824  0.0608 -0.0848  0.1368
65234W        W 8151  10.995  32.668  18.634  0.0012 -0.5401 -0.0285
65235W        W 8152  11.860   0.804  17.478 -0.0514 -0.1456 -0.0954
65236W        W 8153  12.123  30.186  17.016  0.1736 -0.0842  0.2061
65237W        W 8154  13.907  31.836  15.646  0.1224 -0.2363  0.0314
65238W        W 8155  14.087  33.951  17.231 -0.0504  0.2522  0.0443
65239W        W 8156  10.036  32.395  15.782 -0.0007 -0.1294 -0.0083
65240W        W 8157  13.817  32.373  18.244 -0.0902 -0.1546 -0.0883
65241W        W 8158  14.915  33.127  17.807  0.0104 -0.2002 -0.1395
65242W        W 8159  11.087  30.149  16.667 -0.2627  0.0197  0.0277
65243W        W 8160  12.920  31.918  17.595  0.1547  0.2780 -0.0339
65244W        W 8161  13.991  31.847  18.387 -0.2440  0.1596  0.4087
65245W        W 8162  12.157  29.401  16.404  0.0439  0.0674  0.0341
65246W        W 8163  12.361  30.377  17.466  0.0908  0.0390  0.1183
65247W        W 8164  10.778  34.332  15.203 -0.2310  0.0975  0.2962
65248W        W 8165  15.340  30.973  18.427  0.0359  0.3899  0.0227
65249W        W 8166  14.985  30.430  20.164 -0.1548  0.1419 -0.2329
65250W        W 8167  11.773  32.446  16.113 -0.0145  0.2649 -0.1253
65251W        W 8168  13.342  29.028  19.495  0.1940  0.1478  0.1760
65252W        W 8169  13.143  31.141  18.774  0.0669  0.0301  0.2015
65253W        W 8170  10.564  34.345  20.596  0.2054 -0.3735 -0.3649
65254W        W 8171  12.090  31.522  15.103  0.0021 -0.0252 -0.1167
65255W        W 8172  13.945  34.039  18.731 -0.0256 -0.1790 -0.0026
65256W        W 8173  10.374  31.853  16.798  0.0536  0.0303 -0.0333
65257W        W 8174  11.148  32.713  14.626  0.1244 -0.1127  0.1740
65258W        W 8175  15.657  33.271  17.169 -0.1667 -0.1270  0.2857
65259W        W 8176  12.179  31.326  17.690 -0.1145  0.0218  0.0702
65260W        W 8177  12.605  32.562  15.435 -0.1189  0.1853  0.2492
65261W        W 8178  13.871  31.411  18.153  0.0188 -0.0892  0.0501
65262W        W 8179  14.210  29.387  19.294 -0.0625 -0.3656 -0.1814
65263W        W 8180  14.952  29.444  16.353  0.0481 -0.0667  0.0732
65264W        W 8181  12.861  33.308  17.818 -0.2501 -0.0794 -0.3295
65265W        W 8182  13.022  30.821  16.722 -0.2190 -0.0929  0.0152
65266W        W 8183  11.502  29.882  14.891 -0.1939 -0.3188 -0.0134
65267W        W 8184  12.452  30.839  15.646  0.0862  0.1588 -0.1477
65268W        W 8185  13.587  28.662  18.104 -0.0089  0.1221  0.0285
65269W        W 8186  11.297  29.327  18.768  0.0845 -0.1305  0.0560
65270W        W 8187  11.491  32.597  15.034 -0.1740  0.2444 -0.1239
65271W        W 8188  11.860  30.453  17.423 -0.1008 -0.0754  0.0685
65272W        W 8189  14.961  31.516  15.588 -0.1031  0.1973 -0.1420
65273W        W 8190  11.251  31.042  15.513  0.1720  0.0877 -0.1354
65274W        W 8191  12.109  29.248  17.314 -0.1331 -0.0172 -0.2230
65275W        W 8192  13.908  29.789  17.004 -0.1204 -0.0625  0.0191
65276W        W 8193  13.742  32.797  15.987  0.0544 -0.4652  0.1157
65277W        W 8194  12.757  29.436  16.118 -0.0730 -0.0650  0.0786
65278W        W 8195  14.052  31.827  18.922 -0.2436 -0.1391 -0.0989
65279W        W 8196  13.766  30.243  15.447 -0.0045  0.1515  0.2522
65280W        W 8197  12.587  30.948  18.930  0.2977 -0.0438 -0.0137
65281W        W 8198  11.633  30.998  18.015  0.1078 -0.2163 -0.0849
65282W        W 8199  10.253  28.850  15.227 -0.3153 -0.1609  0.0241
65283W        W 8200  11.416  33.059  19.267  0.1868  0.0464  0.0584
65284W        W 8201  12.396  29.826  16.003 -0.3361 -0.2911  0.3186
65285W        W 8202  13.678  32.524  15.079 -0.2863 -0.1585 -0.2383
65286W        W 8203  11.746  33.333  18.982  0.1245  0.0122  0.2061
65287W        W 8204  13.937  31.089  19.778 -0.1610 -0.3183 -0.0571
65288W        W 8205  11.414  29.989  18.116 -0.1431  0.1182  0.1227
65289W        W 8206  12.893  30.109  17.520  0.0878  0.1890  0.3730
65290W        W 8207  11.250  33.077  18.719 -0.1723  0.0158 -0.2893
65291W        W 8208  14.184  31.027  14.882  0.0318 -0.2164  0.0875
65292W        W 8209  12.673  30.127  19.986  0.1607  0.3812 -0.2974
65293W        W 8210  12.525  30.990  16.731  0.0042  0.1425 -0.0501
65294W        W 8211  11.547  29.529  20.415  0.1566  0.1527  0.2355
65295W        W 8212  11.516   0.447  19.926  0.1735  0.0043  0.1537
65296W        W 8213  15.868  31.726  17.976  0.1768  0.0966  0.3966
65297W        W 8214  12.702  30.352  15.657 -0.2235 -0.0754  0.2466
65298W        W 8215  13.254  29.249  16.225  0.0747 -0.0251  0.2162
65299W        W 8216  11.542  31.637  15.716  0.0223  0.1570  0.1190
65300W        W 8217  12.519  31.596  17.415 -0.0203 -0.1972  0.1394
65301W        W 8218  10.607  32.555  15.410  0.0297  0.0750  0.1473
65302W        W 8219  13.373  30.745  20.246 -0.2523  0.4236 -0.1646
65303W        W 8220  13.240  33.862  16.184  0.1930  0.1451  0.0261
65304W        W 8221  14.142  31.963  17.944 -0.0365  0.0790 -0.1488
65305W        W 8222  11.675  30.930  15.111 -0.3708 -0.2363  0.1954
65306W        W 8223  15.578  31.171  15.725  0.3069  0.2486 -0.1535
65307W        W 8224  13.089  32.928  18.251 -0.2756  0.0513 -0.0520
65308W        W 8225  12.352  34.303  19.183 -0.0661  0.0686 -0.0448
65309W        W 8226  12.521  32.331  18.107 -0.3020 -0.0460 -0.3852
65310W        W 8227  13.204  32.227  16.291  0.1448 -0.0439 -0.0143
65311W        W 8228  10.353  28.902  18.073  0.0115 -0.2784  0.2832
65312W        W 8229  12.980  31.438  17.601 -0.1155 -0.2030  0.3308
65313W        W 8230  11.374  29.770  16.766  0.1695  0.1600 -0.0260
65314W        W 8231  14.003  32.153  16.904  0.0568 -0.1470 -0.2436
65315W        W 8232  11.060  31.308  17.144  0.1700 -0.0421  0.2912
65316W        W 8233  13.761  29.764  15.531 -0.0698  0.0141  0.0190
65317W        W 8234  11.604  33.708  19.246  0.3958  0.2321  0.0602
65318W        W 8235  11.321  32.855  18.285 -0.0590 -0.0852  0.1878
65319W        W 8236  10.697  31.533  23.322 -0.4199 -0.1974  0.2738
65320W        W 8237  14.142  31.174  20.963  0.1707 -0.0338  0.0440
65321W        W 8238  12.490  30.571  18.477 -0.0587  0.0874  0.1013
65322W        W 8239  12.596  32.542  20.502 -0.2651  0.4614  0.0578
65323W        W 8240  10.147  29.069  19.213 -0.0325  0.1337  0.0475
65324W        W 8241  14.299  31.745  19.645 -0.1880  0.3111 -0.1180
65325W        W 8242  11.661  28.142  21.876 -0.1609  0.1173  0.3384
65326W        W 8243  14.850  31.446  19.973  0.3560 -0.2366 -0.2449
65327W        W 8244  12.698  32.950  22.012  0.1354  0.2321  0.0766
65328W        W 8245  13.840  32.476  19.324 -0.0438  0.1034 -0.1339
65329W        W 8246  10.858  32.227  21.514  0.1245 -0.0109 -0.0162
65330W        W 8247  12.074  32.551  23.046 -0.2498  0.0301  0.0602
65331W        W 8248  10.594  28.806  21.399 -0.1370 -0.0271  0.1430
65332W        W 8249  11.042  30.183  21.428  0.3632  0.1816 -0.2191
65333W        W 8250  12.307  32.361  19.013 -0.1935  0.1717 -0.2717
65334W        W 8251  11.079  32.375  18.249 -0.2703 -0.0625 -0.1216
65335W        W 8252  11.375  32.004  20.254 -0.3406 -0.1571 -0.1427
65336W        W 8253  13.345  30.030  21.203  0.1312 -0.3581  0.0241
65337W        W 8254  11.902  31.477  21.028 -0.2269 -0.2715 -0.0552
65338W        W 8255  13.713  31.420  21.984  0.0712 -0.2330 -0.3495
65339W        W 8256  12.230  29.150  23.146 -0.1219  0.0313  0.1989
65340W        W 8257  12.446  31.660  20.440  0.0841 -0.0627 -0.3826
65341W        W 8258  10.652  32.392  17.422 -0.3117 -0.0038  0.1814
65342W        W 8259  12.025  29.741  20.940  0.0759 -0.1364  0.2103
65343W        W 8260  14.774  30.998  20.267 -0.1256 -0.0207  0.4099
65344W        W 8261  12.708  32.061  20.664 -0.2481 -0.0157 -0.3137
65345W        W 8262  13.187  32.863  21.644  0.5933 -0.2008 -0.1462
65346W        W 8263  12.841  31.093  22.161  0.1410 -0.1875 -0.1302
65347W        W 8264  12.790  33.249  21.605  0.1809  0.1594  0.2683
65348W        W 8265  13.269  31.826  23.678  0.1334  0.0370  0.0294
65349W        W 8266  11.119  31.439  19.521 -0.1522  0.2228  0.2702
65350W        W 8267  12.305  33.302  21.782 -0.1220  0.1230 -0.2606
65351W        W 8268  11.642  34.381  17.874 -0.0739  0.0745  0.0732
65352W        W 8269  14.997  32.911  20.080  0.1350 -0.2709 -0.2872
65353W        W 8270  14.038  32.168  21.802  0.0910 -0.2730 -0.0949
65354W        W 8271  10.013  32.051  23.017 -0.0639  0.2929  0.1218
65355W        W 8272   8.722  33.069  20.037 -0.0738  0.0522  0.1803
65356W        W 8273  11.638  32.198  19.711 -0.0910 -0.1576 -0.0979
65357W        W 8274  11.421  33.090  21.371  0.1197 -0.0467  0.0845
65358W        W 8275  13.062  30.449  22.835 -0.2148  0.3450  0.0049
65359W        W 8276  13.081  31.153  20.062 -0.4046  0.0705 -0.0457
65360W        W 8277  12.109  33.728  18.985 -0.1589  0.0459  0.3041
65361W        W 8278  11.510  31.111  19.474 -0.0677  0.1486  0.1351
65362W        W 8279  12.072  31.287  22.906  0.1679  0.3685 -0.1069
65363W        W 8280  12.457  32.153  21.426 -0.0255  0.0097  0.0178
65364W        W 8281  14.721  28.823  21.490  0.0793  0.3393  0.2082
65365W        W 8282   9.124  31.185  19.861  0.1788 -0.0567  0.0562
65366W        W 8283  14.036  28.637  20.089 -0.3137 -0.2042 -0.0756
65367W        W 8284  13.265  30.812  21.451  0.0432  0.0539  0.2990
65368W        W 8285  12.461  30.525  19.182 -0.0500 -0.1820  0.3215
65369W        W 8286  11.766  29.282  21.086  0.0887  0.0476  0.1358
65370W        W 8287  11.272  33.490  21.085 -0.0083 -0.1609 -0.1071
65371W        W 8288  13.257  30.242  22.230  0.1379 -0.0550  0.1901
65372W        W 8289  12.433  32.164  23.496  0.2354  0.0024  0.0386
65373W        W 8290  14.427  30.828  20.750  0.2309  0.2249  0.2864
65374W        W 8291  13.738  30.449  21.490  0.0673 -0.3528 -0.0014
65375W        W 8292  10.090  30.931  21.276  0.0300 -0.1133  0.0390
65376W        W 8293  11.217  28.385  19.007 -0.1008 -0.0183 -0.0345
65377W        W 8294  13.012  33.449  16.307 -0.4312 -0.1788 -0.2025
65378W        W 8295  13.778  32.166  21.163  0.0614 -0.2306 -0.0144
65379W        W 8296  12.641  33.394  19.464 -0.1813 -0.0743 -0.0379
65380W        W 8297  10.182  34.042  19.092 -0.1975  0.2411  0.1244
65381W        W 8298  10.559  30.304  23.964  0.0687 -0.1325 -0.0974
65382W        W 8299  10.134  29.868  22.745  0.1543  0.4609  0.0221
65383W        W 8300   8.834  28.447  19.070 -0.1229  0.1708 -0.2680
65384W        W 8301  13.904  31.663  21.138 -0.1801  0.2639 -0.0495
65385W        W 8302  10.042  31.045  23.455 -0.0587  0.0726 -0.1431
65386W        W 8303  13.211  28.773  19.923  0.4107 -0.0560  0.1844
65387W        W 8304  13.617  30.481  19.212  0.3418 -0.1126  0.0435
65388W        W 8305  13.866  32.106  20.638  0.0735  0.0912  0.0823
65389W        W 8306  13.329  33.483  18.871  0.1449  0.1299 -0.0524
65390W        W 8307  14.420  29.838  21.624  0.0687 -0.3374  0.0751
65391W        W 8308  12.961  29.574  22.833 -0.3132  0.1161 -0.1751
65392W        W 8309  11.455  34.096  19.481 -0.5024  0.2167  0.2404
65393W        W 8310  13.497  32.014  22.626 -0.0503 -0.1442 -0.0847
65394W        W 8311  11.498  30.921  22.451 -0.0486  0.1659 -0.0347
65395W        W 8312  13.121  33.106  20.717 -0.0798 -0.0302 -0.2215
65396W        W 8313  11.894  33.692  20.169 -0.0029  0.0066  0.0691
65397W        W 8314  12.599  30.674  26.200  0.3412 -0.2449 -0.0442
65398W        W 8315  11.956  31.090  22.373 -0.1364 -0.1004 -0.0799
65399W        W 8316  10.374  33.263  18.259 -0.4072  0.0935  0.3766
65400W        W 8317  11.454  30.010  20.475  0.2980 -0.0746  0.0667
65401W        W 8318   9.944  32.761  19.430 -0.2313  0.3891  0.0209
65402W        W 8319  12.680  30.401  22.314 -0.0841  0.1923 -0.1182
65403W        W 8320  11.839  32.162  20.615  0.0874 -0.0707  0.0902
65404W        W 8321  14.437  29.759  22.202 -0.1965 -0.2587  0.2196
65405W        W 8322  12.041  30.540  24.132  0.0989 -0.1678  0.1338
65406W        W 8323  13.697  28.068  19.219  0.0795  0.0711  0.0301
65407W        W 8324   9.510  32.768  19.656 -0.2701  0.5925 -0.1976
65408W        W 8325  13.107  32.377  21.378 -0.0397  0.0106 -0.0235
65409W        W 8326  13.435  32.638  21.145 -0.0621 -0.0305  0.0341
65410W        W 8327  15.113  31.046  17.533 -0.0926 -0.0323 -0.1708
65411W        W 8328  11.742  29.270  23.450 -0.0797  0.0126  0.0241
65412W        W 8329  12.853  30.061  21.926  0.1041  0.0634 -0.0783
65413W        W 8330  11.600  29.766  22.497 -0.1350  0.0291 -0.1296
65414W        W 8331  10.015  28.456  20.372  0.1283 -0.1347 -0.1899
65415W        W 8332  13.682  30.204  20.498  0.0541 -0.0739  0.1877
65416W        W 8333   8.501  30.487  21.662  0.0436  0.0911 -0.0070
65417W        W 8334  12.292  30.011  19.202 -0.1454  0.0999 -0.2539
65418W        W 8335  13.342  29.523  21.445  0.0409  0.3090  0.0732
65419W        W 8336  11.246  32.501  21.355  0.0387  0.0977  0.2180
65420W        W 8337  14.782  31.712  23.135  0.2802  0.3567  0.1187
65421W        W 8338  13.111  34.392  18.522 -0.0522 -0.0399  0.0295
65422W        W 8339  14.425  31.492  21.283  0.0266  0.0721  0.2076
65423W        W 8340  13.395  32.001  19.627  0.2552 -0.0278  0.0162
65424W        W 8341  12.753  31.010  21.623 -0.1067 -0.0529  0.1267
65425W        W 8342  11.055  30.840  21.922  0.2489  0.3917 -0.2113
65426W        W 8343  11.673  33.662  19.747 -0.0036  0.3184  0.3844
65427W        W 8344  12.595  32.737  20.000 -0.1788  0.0566 -0.0345
65428W        W 8345  11.348  31.809  22.004 -0.1611  0.1792 -0.2475
65429W        W 8346  14.865  33.099  24.022  0.1955 -0.0932 -0.2472
65430W        W 8347  12.557  33.193  22.504  0.3080 -0.1146 -0.2862
65431W        W 8348  12.870  31.683  22.053 -0.0268  0.0894  0.0574
65432W        W 8349  11.332  30.810  23.598  0.1242  0.2207 -0.1066
65433W        W 8350  12.884  27.868  22.530 -0.4118 -0.1260  0.2045
65434W        W 8351  12.666  32.523  21.116  0.2427  0.3607 -0.0777
65435W        W 8352  11.109  29.154  20.394 -0.0949  0.0759 -0.0852
65436W        W 8353  13.824  32.966  19.025 -0.3851  0.1122 -0.2225
65437W        W 8354   9.693  30.757  20.561  0.1773  0.4417  0.1671
65438W        W 8355  12.020  32.636  20.417  0.2683  0.0787 -0.0733
65439W        W 8356  13.091  33.987  21.408 -0.1329 -0.0551 -0.0711
65440W        W 8357  15.285  29.626  22.009 -0.4095  0.0324  0.2084
65441W        W 8358   9.791  30.523  22.067  0.0759  0.4576  0.1283
65442W        W 8359  13.752  29.410  23.424  0.2629 -0.1247 -0.0718
65443W        W 8360  11.098  31.783  18.445 -0.4725 -0.0771 -0.3739
65444W        W 8361  12.229  31.111  23.666 -0.0308  0.3044  0.0696
65445W        W 8362  12.220  28.878  20.417 -0.1780 -0.1391  0.0196
65446W        W 8363  12.901  29.964  20.775 -0.1802 -0.0190 -0.0902
65447W        W 8364  11.346  31.778  22.850 -0.2738 -0.0463 -0.1772
65448W        W 8365  12.399  30.990  20.015 -0.0517  0.0130 -0.1240
65449W        W 8366  11.759  30.039  19.121  0.0062 -0.1982 -0.1855
65450W        W 8367  11.857  29.400  18.576 -0.3732 -0.2210 -0.0846
65451W        W 8368  11.887  30.154  22.675 -0.1429  0.4819 -0.0725
65452W        W 8369  12.118  32.618  17.890 -0.2181  0.0991 -0.1409
65453W        W 8370  13.051  32.479  19.812  0.0991  0.0573  0.0275
65454W        W 8371  11.996  30.870  19.208 -0.0035  0.0999  0.1823
65455W        W 8372  15.244  31.462  18.389 -0.2396 -0.0454 -0.1050
65456W        W 8373  12.649  31.480  20.948  0.0571  0.1831 -0.0545
65457W        W 8374  12.048  30.924  21.892  0.0994  0.0031 -0.2905
65458W        W 8375  13.338  33.569  20.742 -0.0438 -0.3064 -0.3790
65459W        W 8376  13.565  28.522  20.801  0.1045 -0.4286  0.0496
65460W        W 8377  11.166  32.670  19.407 -0.2077 -0.2049  0.2343
65461W        W 8378  12.032  28.930  21.342 -0.1531  0.3330  0.1242
65462W        W 8379  10.642  30.927  18.982 -0.2684  0.0477 -0.2116
65463W        W 8380  13.390  30.190  23.619  0.1953 -0.2293  0.2087
65464W        W 8381  10.930  30.458  19.980  0.0638  0.0682 -0.1218
65465W        W 8382   9.820  29.751  21.948  0.2061  0.1597  0.1871
65466W        W 8383  13.361  31.886  24.393 -0.3995  0.1909  0.0074
65467W        W 8384  13.286  30.977  20.980  0.0732 -0.0535  0.0412
65468W        W 8385  15.336  31.641  20.903  0.0564  0.0370 -0.1366
65469W        W 8386   9.705  32.212  17.625 -0.1466  0.1296  0.0027
65470W        W 8387  12.930  28.871  24.750  0.0301 -0.0597  0.1578
65471W        W 8388  11.732  30.548  23.656  0.1810  0.1810  0.0502
65472W        W 8389   9.262  30.675  22.721  0.0921 -0.4059 -0.1612
65473W        W 8390  10.791  33.748  22.920 -0.0503 -0.0995 -0.1105
65474W        W 8391  14.101  31.239  21.536  0.0115  0.3891 -0.0133
65475W        W 8392  12.715  31.694  22.555 -0.1005 -0.0999  0.1365
65476W        W 8393  12.400  30.586  19.791  0.1262  0.0701  0.1050
65477W        W 8394   9.217  32.715  20.789  0.1985 -0.0658 -0.0898
65478W        W 8395  11.184  32.461  19.913  0.0058  0.1492 -0.1294
65479W        W 8396  11.267  28.497  20.845  0.0254 -0.1763  0.4061
65480W        W 8397  12.694  32.778  21.565 -0.2556 -0.2218 -0.0100
65481W        W 8398  12.352  33.477  20.324  0.1507 -0.0161 -0.1059
65482W        W 8399  13.191  31.155  21.734  0.3607  0.5237  0.2361
65483W        W 8400  10.489  32.655  18.769  0.0261 -0.1522 -0.1213
65484W        W 8401  14.258  29.398  21.874  0.0678 -0.0900  0.3669
65485W        W 8402  10.125  32.357  22.107 -0.2158 -0.0828  0.3345
65486W        W 8403  13.561  31.379  20.917 -0.0366 -0.0221  0.3803
65487W        W 8404  10.486  30.608  20.977  0.3437  0.0234  0.2025
65488W        W 8405  13.117  30.052  20.263  0.1049 -0.1694  0.0563
65489W        W 8406  14.849  32.461  19.776 -0.1932  0.0594 -0.1936
65490W        W 8407  11.001  30.687  21.118  0.1198 -0.2540 -0.1286
65491W        W 8408  11.963  28.993  19.573  0.2504  0.0539 -0.3522
65492W        W 8409  10.718  33.183  18.757  0.0469 -0.2270  0.2339
65493W        W 8410  10.922  31.384  21.927  0.0660  0.2968  0.0273
65494W        W 8411  11.451  30.975  20.086  0.0958  0.1600  0.0334
65495W        W 8412  14.593  31.805  20.405  0.1787 -0.0812 -0.2995
65496W        W 8413  10.389  30.193  23.139 -0.1761  0.0340 -0.1454
65497W        W 8414  10.423  29.691  21.082 -0.0207 -0.3686 -0.0030
65498W        W 8415  13.041  31.200  22.648 -0.1290  0.1778  0.1911
65499W        W 8416  10.920  32.403  19.082 -0.0042 -0.0618  0.2107
65500W        W 8417   8.794  32.289  20.865  0.1594 -0.0702  0.0489
65501W        W 8418  14.879  32.372  22.568 -0.2127  0.2862  0.0253
65502W        W 8419  11.066  30.920  19.670 -0.2916  0.0518 -0.0729
65503W        W 8420  11.040  31.617  22.410  0.2107  0.1042 -0.1507
65504W        W 8421   8.846  30.322  24.182 -0.0893 -0.0793 -0.2938
65505W        W 8422  14.363  30.092  23.088 -0.2756 -0.3336  0.3261
65506W        W 8423  11.503  29.357  19.953  0.1260 -0.1859 -0.2442
65507W        W 8424  12.426  29.356  20.466 -0.1181 -0.2766  0.2029
65508W        W 8425  13.796  32.446  22.193  0.1413 -0.0581  0.0872
65509W        W 8426  14.002  30.971  22.105 -0.0218 -0.1726  0.0232
65510W        W 8427  12.570  29.652  23.112  0.2803 -0.1556  0.1255
65511W        W 8428  10.198  32.484  23.503  0.2034  0.1825 -0.4327
65512W        W 8429  12.652  29.214  21.854 -0.2070  0.1029  0.2409
65513W        W 8430  13.534  33.130  21.132  0.2926  0.2305 -0.0246
65514W        W 8431  14.008  30.611  24.045 -0.2015 -0.3023  0.2010
65515W        W 8432  12.029  32.501  19.916  0.2062  0.0503  0.3387
65516W        W 8433  10.766  30.026  21.869  0.1236 -0.0148  0.0709
65517W        W 8434  12.252  32.826  21.865  0.0168  0.0187  0.0392
65518W        W 8435  14.235  28.946  21.569  0.0530 -0.0875 -0.0203
65519W        W 8436  12.138  33.042  20.059  0.3514 -0.2309  0.2393
65520W        W 8437  11.285  30.538  20.389  0.3236  0.0890 -0.1678
65521W        W 8438  11.867  31.875  21.862  0.1007 -0.0192  0.2604
65522W        W 8439  14.215  29.620  19.966  0.1412  0.2459  0.0733
65523W        W 8440  13.310  30.859  19.167 -0.0368  0.0785 -0.2657
65524W        W 8441  13.696  30.377  21.972 -0.2593  0.0702  0.0673
65525W        W 8442  13.781  31.931  22.125 -0.0109  0.0050  0.3557
65526W        W 8443  11.676  30.971  18.500  0.0540 -0.1673 -0.1431
65527W        W 8444  12.277  30.161  22.127 -0.3016 -0.0994  0.2862
65528W        W 8445  11.538  29.002  20.532 -0.1118 -0.1097 -0.1367
65529W        W 8446  13.143  32.036  20.035 -0.1045 -0.2136  0.0332
65530W        W 8447  11.646  29.915  23.043  0.1145 -0.0323  0.2970
65531W        W 8448  10.910  32.408  20.447 -0.0390 -0.2245  0.0291
65532W        W 8449  10.150  31.016  22.874  0.0768 -0.2480 -0.0413
65533W        W 8450  10.787  28.656  19.906 -0.0024 -0.0123  0.0464
65534W        W 8451   9.864  29.635  18.838 -0.0803  0.2499 -0.3986
65535W        W 8452  13.148  32.043  22.238  0.2260  0.1250 -0.1961
65536W        W 8453  13.327  31.848  21.312  0.4181  0.0714  0.2029
65537W        W 8454  13.265  32.187  20.944 -0.1168 -0.3120  0.0781
65538W        W 8455  13.287  31.269  20.503  0.0996  0.3413  0.1969
65539W        W 8456  12.211  32.369  20.925  0.1964 -0.2756 -0.1045
65540W        W 8457  12.652  31.574  21.502  0.0040  0.3471  0.3051
65541W        W 8458  12.681  32.248  20.089 -0.1976  0.1225 -0.0220
65542W        W 8459  12.157  29.336  21.770 -0.0089  0.0908 -0.1109
65543W        W 8460  10.785  32.214  20.968 -0.0379 -0.0801  0.0332
65544W        W 8461  13.899  30.565  18.791  0.1239  0.0145 -0.0653
65545W        W 8462  12.646  29.740  19.681 -0.2656 -0.0207 -0.0390
65546W        W 8463  12.424  30.200  24.064 -0.1186  0.1030  0.1823
65547W        W 8464  11.533  30.464  22.731  0.1434 -0.2390  0.0492
65548W        W 8465  12.816  31.115  23.540  0.1487  0.0409  0.0394
65549W        W 8466   9.177  30.322  24.553 -0.1019 -0.1061  0.1273
65550W        W 8467  14.640  32.295  20.860  0.1412  0.1169 -0.0944
65551W        W 8468  12.982  31.109  17.964 -0.0345  0.3752  0.0802
65552W        W 8469  14.882  29.810  21.183  0.1424  0.2048 -0.2674
65553W        W 8470  11.897  31.403  21.989 -0.1289 -0.0343 -0.3064
65554W        W 8471  13.435  29.944  18.397  0.1323  0.2571  0.1184
65555W        W 8472  10.922  29.834  20.992  0.0174 -0.2911  0.0353
65556W        W 8473  14.087  32.318  26.056 -0.0586 -0.1702  0.1090
65557W        W 8474  11.089  29.685  19.497 -0.0861 -0.2278  0.0689
65558W        W 8475  12.119  31.229  24.703  0.0302  0.0070  0.3154
65559W        W 8476  12.722  31.274  19.733  0.2632  0.1162  0.1522
65560W        W 8477  13.276  31.712  21.794 -0.0567  0.1545  0.1827
65561W        W 8478  12.035  32.365  19.402  0.3359 -0.0922 -0.0847
65562W        W 8479  12.955  31.584  20.277  0.2195  0.2285  0.0845
65563W        W 8480  10.365  32.491  22.531 -0.1628  0.1375  0.1219
65564W        W 8481  10.763  30.007  19.863 -0.0364 -0.3731 -0.1316
65565W        W 8482  13.125  32.366  16.786  0.0803  0.1066 -0.1206
65566W        W 8483  11.990  32.967  22.758 -0.1985  0.0400 -0.4928
65567W        W 8484  13.691  31.965  23.999  0.1422 -0.0240 -0.1461
65568W        W 8485  11.909  31.391  19.352 -0.2916  0.1981  0.3493
65569W        W 8486  12.566  31.789  23.069 -0.2202 -0.4426 -0.0022
65570W        W 8487  10.379  32.600  19.236  0.0045  0.3048  0.1786
65571W        W 8488  13.120  30.676  22.386  0.3869  0.1259 -0.1168
65572W        W 8489  12.153  31.761  21.449 -0.0749 -0.1450  0.1236
65573W        W 8490  12.319  30.774  21.375 -0.4043  0.2131 -0.1768
65574W        W 8491  11.742  33.259  21.016 -0.0636  0.0289 -0.1267
65575W        W 8492  12.862  28.403  23.097  0.0693  0.0072  0.0522
65576W        W 8493  13.131  31.739  20.808  0.0236  0.1911 -0.1867
65577W        W 8494  13.487  31.458  20.041 -0.1136 -0.1481 -0.0768
65578W        W 8495  12.600  31.328  22.902  0.1015  0.0077  0.0079
65579W        W 8496  13.632  31.548  23.282 -0.0188 -0.4125  0.1386
65580W        W 8497  11.559  30.686  19.314  0.1371 -0.1863 -0.0392
65581W        W 8498  14.598  30.436  21.575  0.3574 -0.0340 -0.1806
65582W        W 8499  15.768  32.016  20.819  0.0056  0.2707 -0.0237
65583W        W 8500  11.207  30.219  20.846 -0.1830 -0.3119 -0.1745
65584W        W 8501   9.636  30.808  22.384  0.1544  0.0876  0.0191
65585W        W 8502  14.483  30.652  23.815  0.4388 -0.1015  0.1684
65586W        W 8503  12.418  31.238  21.864 -0.0786 -0.2468 -0.1571
65587W        W 8504  13.274  28.689  19.107 -0.0025 -0.1437 -0.0486
65588W        W 8505   9.178  31.935  19.290 -0.1487  0.2341  0.1454
65589W        W 8506  11.153  30.521  22.361 -0.2316  0.0080 -0.2044
65590W        W 8507  11.401  31.185  21.956  0.2088 -0.1588  0.0698
65591W        W 8508  10.767  34.298  17.805 -0.0867 -0.1452 -0.2680
65592W        W 8509  14.738  31.129  15.936 -0.0014  0.0364 -0.0479
65593W        W 8510  13.834  32.409  20.223  0.2462  0.0359 -0.0821
65594W        W 8511  12.753  33.460  20.687 -0.3403  0.4381  0.0397
65595W        W 8512  12.035  30.368  19.393 -0.1172 -0.0720  0.1683
65596W        W 8513  13.206  33.118  22.079 -0.0489  0.3263  0.2028
65597W        W 8514  10.914  33.707  18.649 -0.1333 -0.0873 -0.1163
65598W        W 8515  13.598  32.058  19.079 -0.1307 -0.5265  0.2234
65599W        W 8516  10.038  32.696  18.458  0.3411 -0.0062 -0.2657
65600W        W 8517  14.687  33.554  23.941  0.2387  0.0734  0.1784
65601W        W 8518  12.952  30.200  16.645  0.0656  0.0839 -0.1664
65602W        W 8519  15.376  29.720  22.542 -0.1043  0.1544 -0.0974
65603W        W 8520  14.268  30.374  19.984  0.1775  0.0269  0.2886
65604W        W 8521  11.283  33.825  21.877  0.1344 -0.0213  0.1726
65605W        W 8522  12.225  30.000  19.815 -0.0108  0.2651 -0.2146
65606W        W 8523  11.650  30.485  17.891  0.1062 -0.0245  0.0454
65607W        W 8524   9.689  29.708  22.453  0.3090 -0.0034 -0.2125
65608W        W 8525  13.925  30.778  22.763  0.2029  0.0470  0.0550
65609W        W 8526  11.555  31.489  20.316 -0.2979 -0.0379 -0.0285
65610W        W 8527  12.677  31.881  18.324  0.0453 -0.2964  0.2083
65611W        W 8528  10.770  29.688  22.253  0.2511  0.3203 -0.1483
65612W        W 8529  12.901  30.600  21.932  0.0371  0.0972  0.1597
65613W        W 8530  14.970  30.310  22.189  0.1539 -0.0502  0.1903
65614W        W 8531  13.045  32.627  20.890  0.1053 -0.2178  0.1628
65615W        W 8532  11.384  30.639  18.257  0.2851 -0.1235  0.0796
65616W        W 8533  13.381  33.972  18.996  0.1195  0.2070  0.0122
65617W        W 8534  10.130  32.685  21.169 -0.1629 -0.0692  0.1569
65618W        W 8535  11.485  32.481  20.398 -0.2985  0.1576 -0.2306
65619W        W 8536  10.120  29.264  20.247  0.2709 -0.0049 -0.1624
65620W        W 8537  16.405  29.632  21.725  0.3807  0.1129 -0.3818
65621W        W 8538  11.604  31.517  22.431 -0.2453  0.1777  0.0152
65622W        W 8539  13.789  30.919  21.223  0.2133  0.0770  0.1587
65623W        W 8540  12.181  31.819  18.932 -0.0314 -0.2752  0.2960
65624W        W 8541  14.068  30.656  19.565  0.2214  0.1788  0.0326
65625W        W 8542  13.437  32.190  21.835  0.0407 -0.1158  0.0214
65626W        W 8543  11.118  30.586  23.242  0.0498  0.0826  0.0385
65627W        W 8544  12.071  29.741  21.412  0.0077 -0.1682 -0.1105
65628W        W 8545  14.752  31.956  21.835  0.1420  0.0572  0.1240
65629W        W 8546  13.208  30.041  18.864  0.3445  0.0448  0.2759
65630W        W 8547  15.054  32.759  22.788  0.0163  0.1289  0.2922
65631W        W 8548  10.170  30.935  20.701  0.0311  0.3907 -0.0293
65632W        W 8549  12.453  30.795  20.510 -0.4067  0.2334 -0.0638
65633W        W 8550  11.656  31.112  20.653 -0.1777 -0.4211  0.1934
65634W        W 8551  13.349  31.119  22.214  0.1281  0.0559  0.2507
65635W        W 8552  15.976  32.521  20.039  0.1015 -0.4520 -0.0414
65636W        W 8553  12.435  27.702  18.944  0.0132 -0.0411 -0.3085
65637W        W 8554  16.091  32.441  18.537 -0.1142  0.0799 -0.2439
65638W        W 8555  14.646  31.985  21.350  0.1308  0.1596  0.1693
65639W        W 8556  11.107  32.385  21.921  0.0067 -0.1731  0.0737
65640W        W 8557  14.724  31.415  19.509 -0.2428 -0.2966 -0.0034
65641W        W 8558  14.110  32.706  21.769  0.0553 -0.1125 -0.2680
65642W        W 8559  12.119  32.224  22.679  0.0766  0.0526  0.1598
65643W        W 8560  13.157  33.382  22.500  0.1086  0.0155 -0.2130
65644W        W 8561  16.644  30.490  24.161  0.0868  0.1609 -0.0481
65645W        W 8562  13.959  29.095  21.024  0.1289  0.3102  0.3433
65646W        W 8563  11.658  31.602  21.437  0.2905  0.1354  0.2537
65647W        W 8564   7.867  32.079  19.095 -0.1544  0.1159 -0.0264
65648W        W 8565  13.187  30.357  20.616  0.2493  0.0967 -0.3848
65649W        W 8566  13.179  28.658  21.780 -0.2056 -0.0686 -0.0787
65650W        W 8567  13.364  33.211  17.742 -0.1803  0.0975 -0.1558
65651W        W 8568  13.388  30.142  23.135 -0.0134 -0.0137  0.1396
65652W        W 8569  12.150  31.783  24.371 -0.0666 -0.0066  0.1557
65653W        W 8570  12.314  31.872  20.925  0.2264 -0.1395  0.0366
65654W        W 8571  10.296  32.218  18.842  0.1063  0.1682  0.2802
65655W        W 8572  13.463  29.054  24.224 -0.1973 -0.2812 -0.4915
65656W        W 8573  13.417  32.799  20.499 -0.1530  0.1855 -0.1602
65657W        W 8574  14.116  32.763  19.657  0.0870  0.4650 -0.1443
65658W        W 8575  14.306  32.260  20.411 -0.0291  0.2170 -0.0200
65659W        W 8576  12.664  30.957  21.061 -0.1419  0.0937 -0.2214
65660W        W 8577  14.066  32.195  19.826 -0.0941 -0.0200 -0.1304
65661W        W 8578  11.605  29.785  18.761  0.0970 -0.1652  0.0401
65662W        W 8579  14.845  29.313  19.092  0.3559  0.2614  0.2669
65663W        W 8580  13.512  27.467  19.567 -0.0435 -0.4120 -0.0720
65664W        W 8581  13.649  33.185  23.004 -0.1546  0.1660  0.1685
65665W        W 8582  11.617  31.400  19.842 -0.1248  0.2968 -0.0491
65666W        W 8583  10.909  31.876  20.548 -0.3665  0.0902 -0.0846
65667W        W 8584  11.484  30.168  19.462 -0.0678 -0.0308  0.2675
65668W        W 8585  11.451  28.847  23.184 -0.1685  0.2172  0.0538
65669W        W 8586  13.995  29.900  21.916 -0.1866  0.0674 -0.2244
65670W        W 8587  10.543  30.445  22.030  0.0588  0.0204  0.0107
65671W        W 8588  10.321  28.691  21.025 -0.1732  0.0039  0.1843
65672W        W 8589  13.728  33.530  19.969  0.1193  0.0409 -0.1039
65673W        W 8590  13.744  29.900  21.467 -0.0982  0.0007 -0.1529
65674W        W 8591  10.198  28.647  19.926  0.0901 -0.0449  0.0480
65675W        W 8592  13.174  31.774  18.664 -0.4338  0.2535 -0.0584
65676W        W 8593  13.414  32.783  19.525  0.3220 -0.1550  0.0186
65677W        W 8594  12.531  29.661  21.568 -0.0509  0.0534  0.1422
65678W        W 8595  14.536  29.845  24.064 -0.1801 -0.1832 -0.0610
65679W        W 8596   9.853  32.578  22.599 -0.1039 -0.0876  0.0622
65680W        W 8597  11.477  30.059  21.685  0.1086  0.1745 -0.1625
65681W        W 8598  10.646  30.469  23.483 -0.0917 -0.0215  0.0913
65682W        W 8599   9.756  28.146  18.421 -0.0508  0.2578 -0.1684
65683W        W 8600  12.457  28.522  22.174 -0.2738 -0.2819  0.0885
65684W        W 8601  14.043  33.371  22.181  0.2767 -0.1333 -0.1148
65685W        W 8602  15.293  32.201  19.611  0.0211  0.0803 -0.0255
65686W        W 8603  12.165  31.570  23.367  0.0419  0.0070  0.2126
65687W        W 8604  12.462  32.503  24.693 -0.0122 -0.2886 -0.4776
65688W        W 8605  10.119  28.878  21.431 -0.1863  0.0423 -0.0850
65689W        W 8606  12.825  30.829  19.472  0.1062 -0.0371 -0.0498
65690W        W 8607  12.729  30.088  22.891  0.3524  0.0627  0.1171
65691W        W 8608  15.859  32.972  21.118  0.0368  0.0045 -0.5107
65692W        W 8609  11.210  29.012  22.092  0.3550 -0.0506  0.0110
65693W        W 8610  11.425  32.647  18.918 -0.0678 -0.1515 -0.2576
65694W        W 8611  11.539  28.684  21.199  0.1928  0.3566 -0.2094
65695W        W 8612  11.535  30.668  22.010  0.1022  0.0086  0.2024
65696W        W 8613  13.961  32.770  21.293  0.2230  0.1657  0.2966
65697W        W 8614  10.214  30.771  21.810  0.2134  0.0359  0.0305
65698W        W 8615  12.029  30.282  21.192  0.1738  0.0264  0.2111
65699W        W 8616  12.702  32.245  16.581  0.1676 -0.4173 -0.3380
65700W        W 8617  11.766  30.549  18.831 -0.0552  0.1336 -0.2248
65701W        W 8618  11.012  31.961  17.917  0.3699  0.1470  0.0887
65702W        W 8619  13.066  31.426  23.259  0.1816  0.0536  0.2419
65703W        W 8620  13.647  33.678  21.246 -0.0304  0.1815  0.0420
65704W        W 8621  14.815  32.707  25.207  0.1310 -0.0745  0.1413
65705W        W 8622  11.204  32.165  18.748 -0.4591  0.0561  0.0209
65706W        W 8623  14.867  30.880  18.192 -0.3205 -0.1503  0.1552
65707W        W 8624  12.990  34.354  21.034  0.1742 -0.1990  0.0609
65708W        W 8625  13.254  33.119  23.447  0.0274 -0.3402  0.0554
65709W        W 8626  14.253  33.335  22.632 -0.0420 -0.1811 -0.2953
65710W        W 8627  13.851  30.229  19.640 -0.0981 -0.0395  0.1137
65711W        W 8628  10.123  29.804  23.234 -0.0252  0.0006 -0.0787
65712W        W 8629  12.934  29.356  19.635  0.2416 -0.0973  0.2039
65713W        W 8630  12.227  31.272  21.398  0.0732 -0.0551  0.0726
65714W        W 8631  13.723  31.195  22.499 -0.1803  0.0007 -0.1506
65715W        W 8632  12.097  30.635  20.843 -0.0844  0.0570 -0.0310
65716W        W 8633  11.938  29.550  17.637 -0.1621  0.1293 -0.0870
65717W        W 8634  11.705  32.669  21.592  0.0571 -0.2123  0.2815
65718W        W 8635  11.938  30.569  22.303  0.1083  0.2682  0.0833
65719W        W 8636   9.913  30.826  25.796  0.1125  0.1517  0.2108
65720W        W 8637  10.754  29.215  24.268  0.2046  0.1720 -0.2028
65721W        W 8638  13.034  29.966  23.948  0.0000  0.0223 -0.0677
65722W        W 8639  13.481  32.686  23.362 -0.2310  0.0211 -0.0537
65723W        W 8640  10.262  30.456  25.915  0.1408 -0.3731  0.3835
65724W        W 8641  11.663  32.356  23.950 -0.1104  0.0755 -0.0243
65725W        W 8642  12.779  27.839  25.546  0.3485  0.1463  0.3137
65726W        W 8643  13.229  32.471  27.202  0.2320  0.2012  0.2293
65727W        W 8644  13.218  32.138  25.039 -0.0692  0.1171  0.1386
65728W        W 8645  13.484  33.861  22.618  0.0061 -0.1862  0.1089
65729W        W 8646  11.330  32.899  24.650  0.2480  0.1478 -0.1497
65730W        W 8647  13.480  31.281  26.450  0.0059  0.1942 -0.1229
65731W        W 8648  12.107  30.178  23.653 -0.0221  0.1198 -0.0776
65732W        W 8649  13.061  30.539  26.205  0.0739 -0.0422  0.1273
65733W        W 8650  11.999  31.836  26.424  0.0361  0.3426  0.0311
65734W        W 8651  10.427  29.990  23.574 -0.1343  0.1488  0.1903
65735W        W 8652  10.413  30.559  24.978  0.1786  0.0561  0.2761
65736W        W 8653  10.301  31.362  25.662 -0.1023 -0.1649 -0.2757
65737W        W 8654  14.362  32.003  24.812  0.2313 -0.0561 -0.2325
65738W        W 8655  11.102  31.656  26.783  0.4036 -0.0184 -0.0564
65739W        W 8656  13.321  29.625  26.120  0.3023  0.3354  0.1757
65740W        W 8657  13.321  30.996  23.551 -0.1758 -0.1036 -0.2711
65741W        W 8658  12.708  30.130  24.532 -0.1259  0.1393 -0.3318
65742W        W 8659  12.054  30.030  26.194 -0.0351 -0.2663 -0.0215
65743W        W 8660  12.330  30.705  25.451  0.0840  0.1004 -0.0816
65744W        W 8661  13.667  28.174  24.168 -0.0221  0.2200 -0.0415
65745W        W 8662  12.772  30.856  24.280  0.0114 -0.4949  0.0929
65746W        W 8663  10.977  32.923  23.797  0.1847 -0.0401 -0.0781
65747W        W 8664  13.084  31.398  24.348  0.1863 -0.0373 -0.0701
65748W        W 8665  14.739  31.880  27.794  0.1173  0.1050 -0.0629
65749W        W 8666   8.243  30.615  23.360  0.0669  0.1781 -0.0358
65750W        W 8667  10.880  34.142  23.726  0.1011 -0.0354 -0.1386
65751W        W 8668  11.919  32.981  23.329 -0.3902  0.1274 -0.2616
65752W        W 8669  12.614  30.957  25.772  0.3014  0.0932 -0.2946
65753W        W 8670  12.959  33.374  26.854 -0.0695  0.2246 -0.2578
65754W        W 8671  12.617   0.024  27.382 -0.1541 -0.1707 -0.2494
65755W        W 8672  13.476  32.954  22.570 -0.2092  0.0148  0.3238
65756W        W 8673  10.690  32.281  25.038  0.3880  0.0431  0.0081
65757W        W 8674  12.159  31.844  25.515 -0.0050  0.3207  0.0415
65758W        W 8675  13.203  29.230  28.518 -0.0939  0.0751 -0.1361
65759W        W 8676  12.285  31.213  25.434 -0.0440 -0.1580 -0.0132
65760W        W 8677  11.707  31.865  24.225 -0.1901 -0.0339 -0.2072
65761W        W 8678  12.420  32.019  27.302  0.0504 -0.0271  0.0133
65762W        W 8679  12.657  31.452  25.799  0.2613 -0.0492  0.2126
65763W        W 8680  10.594  31.979  22.873  0.0425 -0.1726  0.1000
65764W        W 8681  15.472  29.026  27.337  0.1431 -0.3534 -0.1328
65765W        W 8682  11.511  30.913  22.933  0.2527 -0.4898 -0.2238
65766W        W 8683  13.969  31.716  24.940  0.0992  0.0604 -0.0648
65767W        W 8684  10.502  31.182  24.924 -0.1861  0.1966 -0.1856
65768W        W 8685  14.758  31.122  20.955  0.2218 -0.0181 -0.1352
65769W        W 8686  11.164  29.611  27.207  0.0993  0.0911  0.0002
65770W        W 8687  11.407  31.583  25.112 -0.0391 -0.1244 -0.1691
65771W        W 8688  11.031  29.578  25.100 -0.1170 -0.1852  0.2329
65772W        W 8689  12.664  31.861  25.406  0.0371  0.2565 -0.1961
65773W        W 8690  13.008  31.325  21.229 -0.1873 -0.1837 -0.3870
65774W        W 8691  13.889  29.780  25.920  0.0972  0.0870 -0.1829
65775W        W 8692  10.982  32.229  25.687  0.5163 -0.1573  0.1049
65776W        W 8693  11.862  30.989  23.970 -0.3424 -0.0672 -0.3679
65777W        W 8694  14.883  32.399  22.058  0.2418  0.3928 -0.1708
65778W        W 8695  14.374  32.511  23.914 -0.0525  0.1513  0.1420
65779W        W 8696  12.612  32.313  25.609  0.3371 -0.1526  0.0187
65780W        W 8697  10.753  30.064  24.976 -0.3337 -0.2683  0.0750
65781W        W 8698  12.187  30.128  28.798 -0.0617  0.0304  0.0875
65782W        W 8699   9.700  29.729  25.842 -0.1357 -0.4133  0.1132
65783W        W 8700  11.121  30.374  21.876 -0.0012 -0.0652 -0.0067
65784W        W 8701  14.330  31.198  27.023 -0.1520 -0.0318  0.3751
65785W        W 8702  11.526  32.067  27.490 -0.0302  0.0097  0.1316
65786W        W 8703  15.024  28.618  24.393  0.3242 -0.1871 -0.2499
65787W        W 8704  11.843  31.216  25.677 -0.1632 -0.1386  0.1525
65788W        W 8705  13.510  32.579  24.570  0.2379  0.0866 -0.0667
65789W        W 8706  14.360  33.010  24.015  0.0556 -0.1222 -0.2587
65790W        W 8707  14.969  26.954  24.521 -0.0199  0.2483 -0.0669
65791W        W 8708  13.029  30.309  26.759  0.1784  0.2344 -0.0942
65792W        W 8709  13.347  32.388  24.144 -0.1539  0.0751  0.1647
65793W        W 8710  12.586  30.437  26.646 -0.1376  0.0758  0.3715
65794W        W 8711  16.065  31.879  25.048 -0.0880 -0.1892  0.0620
65795W        W 8712  13.766  31.623  22.788  0.3623  0.0298 -0.0559
65796W        W 8713  10.387  32.122  23.943  0.0610 -0.1207  0.1135
65797W        W 8714  11.501  30.790  26.890 -0.0582 -0.0464  0.2644
65798W        W 8715  11.492  31.802  26.421 -0.0294 -0.4210 -0.1582
65799W        W 8716  13.276  34.012  23.419 -0.1068  0.4044  0.3917
65800W        W 8717  10.811  31.396  25.918 -0.0235 -0.1704 -0.2970
65801W        W 8718  11.153  31.346  23.644  0.0052  0.1339 -0.1529
65802W        W 8719  11.891  28.957  27.067 -0.0562 -0.0810  0.2600
65803W        W 8720  11.635  31.413  23.717 -0.0402 -0.0176 -0.2672
65804W        W 8721  13.447  30.572  24.660 -0.1609  0.1771  0.0105
65805W        W 8722  11.779  32.058  26.061  0.2029 -0.3426 -0.0060
65806W        W 8723  13.942  30.657  25.005  0.1854  0.1840 -0.2289
65807W        W 8724   9.871  31.213  25.414 -0.3750 -0.4249 -0.1266
65808W        W 8725  15.087  30.355  25.850 -0.0308 -0.3867  0.1260
65809W        W 8726  15.272  29.200  24.214  0.0961 -0.0960  0.2632
65810W        W 8727  13.572  31.677  20.519  0.0290 -0.0013  0.0447
65811W        W 8728  10.402  32.036  26.265 -0.0931  0.0308  0.1157
65812W        W 8729   7.805  31.929  26.494 -0.1856  0.1627 -0.1419
65813W        W 8730  12.636  29.075  27.455  0.0967 -0.0024  0.0492
65814W        W 8731  11.859  30.509  25.567  0.3268  0.1989  0.3008
65815W        W 8732  14.318  28.818  27.484 -0.1158  0.0290 -0.3044
65816W        W 8733  12.465  28.639  23.276  0.1457  0.1458  0.1508
65817W        W 8734  13.651  29.041  25.165  0.2512  0.0066  0.2957
65818W        W 8735  11.873  29.205  25.194  0.2187 -0.2874 -0.0798
65819W        W 8736  11.289  33.726  23.032 -0.0544  0.0904  0.0314
65820W        W 8737  14.976  28.157  24.207 -0.2123  0.1125  0.1092
65821W        W 8738  15.281  32.038  26.625 -0.0189  0.1412 -0.0276
65822W        W 8739  13.802  33.554  28.075  0.0967 -0.1677 -0.0818
65823W        W 8740  14.257  32.013  25.638  0.1497 -0.0265 -0.1129
65824W        W 8741  12.209  30.360  25.885  0.0036 -0.3338 -0.0654
65825W        W 8742  12.493  28.305  22.689  0.0711  0.1350 -0.0007
65826W        W 8743  10.967  31.822  24.432  0.3131  0.2175 -0.3070
65827W        W 8744  11.221  31.072  24.469  0.0481  0.0554 -0.2170
65828W        W 8745  10.942  29.426  21.886 -0.2064 -0.1053  0.1298
65829W        W 8746  14.145  32.521  27.087  0.1652 -0.0457 -0.2182
65830W        W 8747  13.603  31.431  25.406 -0.0051 -0.0815 -0.1551
65831W        W 8748  11.783  32.024  25.271 -0.1921  0.2183  0.0691
65832W        W 8749  13.263  28.092  25.158 -0.2474 -0.1951  0.0699
65833W        W 8750  13.972  30.380  26.891  0.1192  0.4806 -0.1599
65834W        W 8751  12.118  30.124  24.510  0.2519 -0.0578  0.3212
65835W        W 8752  11.520  30.581  21.008 -0.3809 -0.0743 -0.1129
65836W        W 8753  11.958  30.946  25.168 -0.2543  0.1419  0.2717
65837W        W 8754  12.952  32.726  23.274  0.4071 -0.2182 -0.0451
65838W        W 8755   9.632  30.283  24.416 -0.0937 -0.2492  0.2278
65839W        W 8756  11.766  33.478  23.322 -0.0688  0.1156 -0.0165
65840W        W 8757  13.920  31.155  25.662  0.1799 -0.0658 -0.2216
65841W        W 8758  11.737  30.791  29.060 -0.0325 -0.1865  0.0400
65842W        W 8759  14.117  29.151  27.828  0.1005  0.0352 -0.0047
65843W        W 8760   9.692  29.906  21.452  0.0118  0.1391  0.0689
65844W        W 8761  11.247  29.980  24.203  0.0322 -0.0853 -0.0545
65845W        W 8762  12.607  29.262  25.750 -0.0090  0.4350 -0.0834
65846W        W 8763  14.290  29.759  22.698 -0.0754  0.0763  0.2172
65847W        W 8764  13.795  32.068  27.019 -0.0169  0.2131 -0.2292
65848W        W 8765  12.890  31.879  25.845  0.0588  0.1181  0.1475
65849W        W 8766  13.288  30.862  24.312  0.0181  0.1778  0.3622
65850W        W 8767  13.435  31.031  25.684  0.1540 -0.3004  0.0834
65851W        W 8768  12.291  31.401  26.736 -0.0329 -0.0106 -0.1096
65852W        W 8769  13.374  32.607  26.421  0.0133  0.2315  0.1883
65853W        W 8770  13.422  31.556  24.914 -0.1241  0.1772  0.1004
65854W        W 8771  12.538  30.629  23.711 -0.1864 -0.1640 -0.1937
65855W        W 8772  12.529  32.411  21.847  0.0241 -0.1504  0.1424
65856W        W 8773  11.094  30.617  26.002 -0.1172 -0.0372  0.1214
65857W        W 8774  13.605  31.997  26.202 -0.0357  0.1888 -0.0107
65858W        W 8775  12.689  32.300  24.224 -0.0200 -0.2071 -0.0430
65859W        W 8776  13.844  29.462  24.410  0.2174 -0.1316 -0.0037
65860W        W 8777  12.569  28.923  23.737 -0.1546  0.0774 -0.0486
65861W        W 8778  11.803  29.934  27.031  0.2046  0.0214 -0.1490
65862W        W 8779  11.318  32.204  20.772 -0.2411 -0.1189 -0.3184
65863W        W 8780  13.727  28.445  25.162  0.0304 -0.1640  0.1238
65864W        W 8781  13.866  29.874  22.992  0.2481 -0.3106 -0.1506
65865W        W 8782  12.715  29.512  26.935  0.2517 -0.1734  0.3049
65866W        W 8783  16.017  33.329  26.544  0.1256  0.0820  0.1153
65867W        W 8784  14.111  31.425  23.469 -0.0231 -0.1086  0.1406
65868W        W 8785  13.173  29.484  24.114  0.0291 -0.2739  0.2871
65869W        W 8786   9.465  32.188  24.574 -0.0770  0.0801 -0.3551
65870W        W 8787  12.054  29.352  26.613 -0.4697 -0.2138  0.2301
65871W        W 8788  11.737  31.447  26.227 -0.1953  0.1937 -0.2981
65872W        W 8789  11.846  32.683  26.394 -0.0466 -0.3264  0.1794
65873W        W 8790  11.356  31.351  25.778  0.1182 -0.0462 -0.3858
65874W        W 8791  14.325  32.108  27.255 -0.4253 -0.2376  0.3406
65875W        W 8792  13.416  28.819  26.879  0.3484 -0.0192 -0.0075
65876W        W 8793  13.279  29.215  23.189 -0.0676  0.0381 -0.0538
65877W        W 8794  10.646  31.120  21.573 -0.1446 -0.2315 -0.1980
65878W        W 8795  12.597  32.264  23.012 -0.0403 -0.2458 -0.0691
65879W        W 8796  10.283  28.651  27.703 -0.1171 -0.0831 -0.0929
65880W        W 8797  13.143  31.394  25.769 -0.0303 -0.2152  0.1059
65881W        W 8798  14.272  31.850  23.168 -0.1543  0.2054 -0.1567
65882W        W 8799  13.973  30.903  27.199  0.1058 -0.0378  0.1242
65883W        W 8800  10.878  32.203  22.538 -0.2248 -0.1039  0.0210
65884W        W 8801  14.692  28.435  25.073  0.2545  0.1965 -0.1296
65885W        W 8802  10.260  32.625  25.160  0.2076 -0.1411  0.3716
65886W        W 8803   8.750  30.924  21.852 -0.0544  0.1003 -0.1281
65887W        W 8804  10.306  31.234  24.367 -0.2359 -0.0358  0.2299
65888W        W 8805  15.030  29.779  24.794  0.0262  0.3602  0.2400
65889W        W 8806  12.868  33.470  24.578  0.1879 -0.1718 -0.0297
65890W        W 8807  12.208  30.293  27.147 -0.0165 -0.1985  0.1797
65891W        W 8808  11.671  30.376  24.557 -0.2823  0.0221  0.0331
65892W        W 8809  11.372  31.073  23.994 -0.2389 -0.0778 -0.4005
65893W        W 8810  13.151  30.154  24.826  0.1037 -0.0460  0.2572
65894W        W 8811  12.866  31.801  24.917  0.0126  0.1265  0.0852
65895W        W 8812  14.073  33.287  26.475 -0.1690  0.3238  0.1291
65896W        W 8813  12.531  32.417  27.963 -0.3455  0.2841 -0.1727
65897W        W 8814   8.348  30.797  24.261 -0.1052  0.0843  0.2371
65898W        W 8815  15.052  31.311  24.912  0.0250 -0.2976  0.1062
65899W        W 8816  10.668  29.693  24.050 -0.1220  0.3550 -0.2660
65900W        W 8817  11.249  31.703  23.357 -0.1597  0.2107 -0.0786
65901W        W 8818  14.878  30.306  26.358  0.1115  0.0052  0.0948
65902W        W 8819  11.116  29.602  23.842  0.1904  0.0860  0.1316
65903W        W 8820  11.332  31.616  24.103 -0.0199  0.0084 -0.1870
65904W        W 8821  13.205  29.485  26.927 -0.5541 -0.0044 -0.3678
65905W        W 8822  11.002  32.123  28.040 -0.0278 -0.0264  0.1551
65906W        W 8823  12.900  29.285  25.190 -0.0093 -0.2210  0.1584
65907W        W 8824  10.838  28.173  25.335 -0.0124 -0.1616  0.1139
65908W        W 8825  14.597  28.394  24.569  0.2216 -0.0563 -0.0813
65909W        W 8826  12.543  31.605  26.294 -0.1757 -0.0326  0.0335
65910W        W 8827  12.697  30.432  25.002  0.1334  0.0547  0.2487
65911W        W 8828  10.283  30.265  26.866  0.0981 -0.1883 -0.1435
65912W        W 8829  14.185  27.783  26.972 -0.0419 -0.2872 -0.4349
65913W        W 8830  13.365  34.205  24.297 -0.1207  0.1163  0.1045
65914W        W 8831  13.189  29.268  27.631  0.1682  0.2156 -0.0855
65915W        W 8832  11.027  31.070  23.197  0.2834 -0.3224  0.0908
65916W        W 8833  10.538  31.854  25.777 -0.1122 -0.0365  0.0565
65917W        W 8834   9.989  31.786  22.108  0.0770 -0.1274  0.1581
65918W        W 8835  13.001  30.796  24.752 -0.3882 -0.0277  0.2226
65919W        W 8836  11.297  31.876  25.896 -0.2243 -0.0121  0.1765
65920W        W 8837  12.502  34.005  23.799 -0.2137  0.0635  0.1202
65921W        W 8838  11.666  32.483  24.468  0.0295 -0.1060 -0.1832
65922W        W 8839  13.944  29.036  23.744  0.1870 -0.0878 -0.0538
65923W        W 8840  11.961  29.714  23.477 -0.2206  0.1737  0.1899
65924W        W 8841  12.601  29.991  26.872 -0.1353 -0.1980  0.0067
65925W        W 8842  14.666  29.994  24.552 -0.0605 -0.2323  0.2283
65926W        W 8843  13.336  31.570  22.387 -0.0185 -0.0913 -0.1145
65927W        W 8844  14.324  29.596  26.052 -0.1628  0.3056 -0.0827
65928W        W 8845  11.376  29.168  27.216  0.0781 -0.1025  0.0813
65929W        W 8846  14.472  30.320  26.655 -0.1854  0.0699 -0.0153
65930W        W 8847  11.900  33.115  25.704 -0.0107 -0.1757 -0.2019
65931W        W 8848  11.775  32.411  27.869 -0.1587 -0.0024  0.2348
65932W        W 8849  10.697  31.019  26.317 -0.1404  0.0032  0.0836
65933W        W 8850  13.825  31.160  25.046  0.1882 -0.0484  0.0313
65934W        W 8851  10.338  28.796  23.347  0.1775 -0.0175  0.0320
65935W        W 8852  11.939  31.480  25.251  0.5951 -0.2022  0.0864
65936W        W 8853  15.860  31.255  24.593 -0.0056 -0.0091  0.4281
65937W        W 8854  13.394  31.115  24.709  0.0010 -0.0748 -0.0605
65938W        W 8855  13.453  30.715  26.429  0.3855 -0.0249 -0.3041
65939W        W 8856  11.070  32.667  26.510  0.1807 -0.2483 -0.0229
65940W        W 8857  13.767  31.416  23.872 -0.2151 -0.2408  0.0651
65941W        W 8858  13.856  28.542  22.988  0.1579 -0.1459 -0.0472
65942W        W 8859  11.987  30.717  22.794  0.1647 -0.2881 -0.2712
65943W        W 8860  13.346  31.621  26.871 -0.1958  0.0029  0.2416
65944W        W 8861  13.490  30.392  26.840 -0.1333  0.0343  0.1387
65945W        W 8862  11.615  29.637  23.912  0.2387  0.2165 -0.1608
65946W        W 8863  12.884  31.134  26.266 -0.1501 -0.3691  0.0509
65947W        W 8864  13.491  30.071  25.185  0.0673 -0.2093  0.2003
65948W        W 8865  10.588  31.554  27.039 -0.1217 -0.1585  0.3722
65949W        W 8866  12.268  32.588  26.987  0.1373  0.1138 -0.0827
65950W        W 8867  14.809  32.036  27.299 -0.1864 -0.0458 -0.0550
65951W        W 8868  15.262  30.414  23.050 -0.0630  0.3043 -0.0482
65952W        W 8869  14.019  30.905  26.703  0.3320 -0.0461 -0.1429
65953W        W 8870  14.392  31.278  25.722 -0.2254 -0.3928 -0.0190
65954W        W 8871  12.938  32.144  23.375  0.0915  0.2114  0.2327
65955W        W 8872  13.060  30.724  25.743  0.3028 -0.2732 -0.2773
65956W        W 8873  13.380  28.692  28.051 -0.4825  0.1753 -0.0507
65957W        W 8874  11.227  29.940  24.723  0.2074  0.5174 -0.0165
65958W        W 8875  14.020  30.084  25.070 -0.1782  0.0495  0.0130
65959W        W 8876  12.529  32.978  24.695  0.2011  0.0688  0.1290
65960W        W 8877  12.372  31.590  24.979 -0.1601  0.0058  0.0195
65961W        W 8878  13.732  30.686  25.455 -0.0152 -0.5684  0.1472
65962W        W 8879  10.322  29.460  24.394  0.0769  0.0822  0.3424
65963W        W 8880  10.469  31.467  23.767 -0.2369 -0.0203  0.0366
65964W        W 8881  10.111  30.247  24.089  0.0820  0.2323 -0.0797
65965W        W 8882  10.827  32.394  24.109  0.0118  0.2769 -0.0905
65966W        W 8883  11.423  31.180  26.625 -0.0282 -0.2352  0.0323
65967W        W 8884  17.567  32.202  26.056 -0.0030 -0.0856 -0.1891
65968W        W 8885  12.334  28.499  25.343  0.1079 -0.1274  0.1910
65969W        W 8886  14.342  32.012  28.313 -0.0409 -0.1707 -0.0544
65970W        W 8887  10.660  32.388  23.638  0.0198  0.0892 -0.1005
65971W        W 8888  12.531  29.180  24.871  0.1773 -0.0764 -0.1528
65972W        W 8889  10.023  33.331  23.736  0.2470 -0.0519  0.2444
65973W        W 8890  11.590  32.950  27.802 -0.0059  0.0383  0.0803
65974W        W 8891   9.897  30.776  24.288  0.2399 -0.1038 -0.1409
65975W        W 8892  14.097  29.308  25.351  0.1689  0.1182  0.1240
65976W        W 8893  11.268  29.099  23.651  0.1796  0.0868  0.0179
65977W        W 8894  13.110  30.380  24.318 -0.1879  0.1897 -0.0343
65978W        W 8895  15.701  28.505  27.213 -0.0812 -0.1349 -0.1483
65979W        W 8896  11.782  33.114  26.687  0.1240 -0.2048  0.0713
65980W        W 8897  11.165  30.803  25.257 -0.2014  0.2460  0.0945
65981W        W 8898  13.575  33.046  25.747 -0.4287  0.2321 -0.2690
65982W        W 8899  14.725  31.586  23.988  0.1414 -0.1167  0.2246
65983W        W 8900  12.137  32.003  23.150  0.0409 -0.2343  0.0043
65984W        W 8901  10.157  29.733  27.378  0.0884  0.0195  0.4372
65985W        W 8902  13.318  30.856  27.434 -0.0049 -0.4179 -0.1269
65986W        W 8903  14.389  30.645  27.082 -0.1025  0.0972  0.1705
65987W        W 8904  12.373  29.464  23.557  0.0353  0.0647 -0.2443
65988W        W 8905  13.613  31.415  25.975 -0.3564 -0.0381 -0.0423
65989W        W 8906  10.425  33.198  26.400  0.3026 -0.1147  0.0322
65990W        W 8907  10.889  30.850  27.107 -0.0685  0.0470 -0.0759
65991W        W 8908  11.435  32.797  22.204  0.0631 -0.1242 -0.5035
65992W        W 8909  13.379  32.046  23.148 -0.0701  0.1579  0.0972
65993W        W 8910  12.500  33.174  23.315  0.2442 -0.3190 -0.1464
65994W        W 8911  11.833  31.616  24.767  0.2147  0.1517 -0.0014
65995W        W 8912  12.429  29.653  26.390 -0.0333 -0.1735 -0.1684
65996W        W 8913  11.657  31.938  23.274  0.0422 -0.2238  0.1874
65997W        W 8914  12.391  30.838  22.221 -0.1839 -0.2221 -0.0652
65998W        W 8915  15.115  32.383  23.914  0.1501 -0.0378  0.1407
65999W        W 8916   9.806  32.413  24.871  0.0758  0.0768  0.5015
66000W        W 8917  13.998  32.323  27.566 -0.2129 -0.5599 -0.2759
66001W        W 8918  13.252  29.996  22.632  0.2179 -0.1285 -0.0513
66002W        W 8919  12.858  32.802  24.257 -0.3411 -0.0750 -0.2258
66003W        W 8920  13.452  31.197  22.958 -0.0632 -0.1460  0.3054
66004W        W 8921  11.293  32.087  25.186 -0.1688 -0.0816  0.1669
66005W        W 8922  10.322  29.377  26.986  0.3314  0.0602 -0.1955
66006W        W 8923  12.760  30.586  23.254  0.1110  0.2041  0.1756
66007W        W 8924  10.156  29.940  25.725  0.2753 -0.0310 -0.0358
66008W        W 8925  14.207  31.049  26.188 -0.2476  0.0786  0.2944
66009W        W 8926   9.250  32.943  26.972  0.2243 -0.1717 -0.1647
66010W        W 8927  14.067  31.531  22.355 -0.0426  0.0002  0.0050
66011W        W 8928  10.820  30.857  23.767  0.0727 -0.0487 -0.0812
66012W        W 8929  12.490  30.925  24.959  0.2654  0.0250 -0.0200
66013W        W 8930  14.896  27.551  24.389 -0.3823  0.1986 -0.1371
66014W        W 8931  12.415  31.807  21.945  0.0077  0.2054 -0.0664
66015W        W 8932  13.757  29.448  23.916 -0.3871  0.1409 -0.0011
66016W        W 8933  12.178  30.052  23.167  0.1600 -0.1343  0.2760
66017W        W 8934   9.377  30.729  24.267  0.2021 -0.0928 -0.0080
66018W        W 8935  10.664  30.874  25.303  0.0135 -0.4770 -0.1234
66019W        W 8936  10.532  29.246  22.197  0.2721 -0.0903 -0.0482
66020W        W 8937  13.599  31.349  24.351  0.2553 -0.3994  0.1467
66021W        W 8938  12.289  30.617  28.775 -0.0645 -0.0252 -0.3079
66022W        W 8939  13.947  28.567  24.041 -0.2025 -0.2529 -0.1982
66023W        W 8940  10.140  30.583  23.289  0.1556  0.0997  0.0601
66024W        W 8941  10.789  30.807  24.766 -0.2823  0.3652  0.1822
66025W        W 8942  13.376  29.756  27.550  0.1648 -0.0611 -0.1749
66026W        W 8943  12.229  30.156  25.403 -0.0660 -0.0325 -0.1288
66027W        W 8944  11.850  30.955  23.319 -0.0418  0.1364 -0.2880
66028W        W 8945  15.047  30.200  25.347 -0.0053 -0.1746 -0.2356
66029W        W 8946  12.062  31.454  24.003  0.1226 -0.3008  0.0492
66030W        W 8947  13.239  29.484  28.083 -0.5295 -0.1934  0.3820
66031W        W 8948   9.607  29.863  23.928  0.1800 -0.1911 -0.2583
66032W        W 8949  13.596  30.333  22.668  0.1176 -0.1239  0.1239
66033W        W 8950   9.645  29.718  23.040 -0.1131 -0.2198  0.0935
66034W        W 8951  11.498  29.543  26.866  0.2025 -0.2216 -0.0147
66035W        W 8952  12.721  31.542  28.722  0.0731  0.1730 -0.1062
66036W        W 8953  11.748  30.147  24.007  0.0754  0.0056  0.3118
66037W        W 8954  14.317  30.123  23.660  0.0726  0.1260  0.1340
66038W        W 8955  16.243  33.084  27.691 -0.0013 -0.1830  0.0845
66039W        W 8956  11.676  32.261  22.878 -0.2022 -0.0738 -0.0348
66040W        W 8957  13.165  29.344  25.615  0.0932  0.2351 -0.0752
66041W        W 8958  11.520  32.427  23.396 -0.0251  0.0580  0.1311
66042W        W 8959  11.405  29.879  25.310  0.0618  0.0172 -0.2579
66043W        W 8960  12.345  31.122  26.203  0.2143  0.0700  0.4571
66044W        W 8961  14.201  31.727  26.926  0.0612 -0.0848  0.1236
66045W        W 8962  11.979  29.760  25.308  0.1399 -0.7082  0.2528
66046W        W 8963  12.953  31.331  24.844  0.0313  0.1694 -0.3754
66047W        W 8964  12.299  30.960  24.243 -0.1331  0.2358 -0.2246
66048W        W 8965  13.582  29.965  24.660  0.2674 -0.3143 -0.0947
66049W        W 8966  13.332  31.969  27.278 -0.2006 -0.2223  0.1153
66050W        W 8967  10.310  32.839  22.921 -0.3925 -0.0884  0.3185
66051W        W 8968  13.443  29.795  26.622 -0.1147  0.0765  0.3363
66052W        W 8969  12.687  32.918  27.083  0.0913  0.1227  0.0366
66053W        W 8970  11.257  33.039  25.191 -0.0342 -0.0808 -0.0033
66054W        W 8971  11.588  31.077  24.795 -0.0623 -0.3420 -0.4132
66055W        W 8972  11.320  32.156  24.259  0.4744 -0.2794 -0.1781
66056W        W 8973  12.556  31.335  24.528 -0.0047 -0.4086  0.2495
66057W        W 8974  14.236  33.012  24.667  0.1432  0.2192 -0.1001
66058W        W 8975  15.541  33.575  28.355 -0.0686 -0.0900  0.1348
66059W        W 8976  11.932  32.751  24.047  0.0202 -0.2148  0.0697
66060W        W 8977  16.064  30.828  26.650  0.0623  0.1872  0.0795
66061W        W 8978  12.164  30.445  25.008  0.0469  0.2035  0.0280
66062W        W 8979  12.783  31.269  25.385 -0.0133 -0.3590  0.0678
66063W        W 8980  13.088  30.549  23.819  0.2014  0.2592  0.0419
66064W        W 8981  12.754  32.105  26.452  0.0469  0.0842 -0.0261
66065W        W 8982   9.014  30.509  24.963  0.0766  0.1952  0.1443
66066W        W 8983  10.579  32.205  24.489 -0.4173  0.1063  0.1184
66067W        W 8984   9.953  32.163  24.387 -0.1746 -0.0151 -0.4333
66068W        W 8985  11.971  30.687  26.832 -0.3097  0.0352 -0.2690
66069W        W 8986  12.454  31.112  27.265  0.2327 -0.2765  0.0616
66070W        W 8987   8.654  32.321  23.548  0.0298 -0.2971  0.1845
66071W        W 8988  10.038  29.192  23.163  0.1441  0.0212 -0.3157
66072W        W 8989  14.553  31.579  27.282 -0.2191  0.0123  0.0467
66073W        W 8990  11.642  30.377  27.200  0.0092 -0.0369 -0.0502
66074W        W 8991  10.669  28.893  26.295  0.0728  0.0731  0.0083
66075W        W 8992  13.734  30.518  23.629 -0.0109 -0.1276 -0.3231
66076W        W 8993  14.103  34.072  22.895 -0.1918  0.0074 -0.1065
66077W        W 8994  10.456  30.034  24.448  0.1189  0.2539  0.1626
66078W        W 8995  14.660  31.318  27.770  0.3468 -0.1354 -0.0664
66079W        W 8996  12.364  30.538  21.810 -0.1674 -0.0015 -0.2943
66080W        W 8997  12.237  28.820  26.614 -0.0482 -0.2546  0.3076
66081W        W 8998  11.290  28.734  26.878  0.5531  0.1366  0.1373
66082W        W 8999   9.949  31.683  23.317  0.1425 -0.3161 -0.0445
66083W        W 9000  13.039  29.790  24.503  0.0565  0.2444  0.3103
66084W        W 9001  11.070  31.201  24.963 -0.0835 -0.0416 -0.2093
66085W        W 9002  13.356  33.020  24.398  0.1181 -0.0415 -0.2613
66086W        W 9003  12.422  30.579  24.588 -0.3779  0.1606 -0.3324
66087W        W 9004  12.082  33.937  27.190  0.2526 -0.1382 -0.0760
66088W        W 9005  12.835  30.681  28.150  0.0436  0.2790  0.2089
66089W        W 9006  14.757  31.697  25.863  0.1884 -0.1269  0.1256
66090W        W 9007  11.557  32.622  27.373 -0.0387 -0.0937  0.5280
66091W        W 9008  13.996  32.518  24.657  0.1099  0.0502 -0.1590
66092W        W 9009  12.768  29.739  24.906 -0.4667  0.0329  0.0358
66093W        W 9010  12.350  32.045  23.994 -0.2533  0.1897 -0.3123
66094W        W 9011  12.345  29.228  27.081  0.1013 -0.1893 -0.0571
66095W        W 9012  11.961  33.783  27.662  0.0380 -0.1477  0.1784
66096W        W 9013  14.874  31.220  25.699  0.1410 -0.1777 -0.1618
66097W        W 9014  11.710  31.357  24.324 -0.2701  0.0308 -0.2294
66098W        W 9015  13.512  29.900  24.143  0.2479 -0.1875  0.0735
66099W        W 9016  11.861  31.732  22.784  0.2862 -0.1251  0.1681
66100W        W 9017  12.031  30.839  25.928 -0.0828  0.2232 -0.0035
66101W        W 9018  12.543  31.321  24.009 -0.1467 -0.4208 -0.2033
66102W        W 9019  13.243  31.134  25.253  0.0592  0.0517 -0.1366
66103W        W 9020  11.498  32.270  25.643 -0.0623  0.2110  0.1522
66104W        W 9021  13.822  31.032  27.677  0.0247  0.0826  0.1936
66105W        W 9022  13.427  30.773  22.773 -0.1544 -0.2637 -0.2926
66106W        W 9023  14.077  31.337  24.556 -0.1840  0.0151 -0.2264
66107W        W 9024  11.342  33.464  26.251 -0.2473  0.1831  0.0838
66108W        W 9025  13.990  33.497  28.588  0.2796  0.1308  0.0899
66109W        W 9026  11.456  32.004  27.981 -0.1206  0.0431 -0.0447
66110W        W 9027  12.786  32.356  25.047  0.0284 -0.2054  0.4741
66111W        W 9028   9.710  28.326  25.545  0.0806 -0.1094  0.0524
66112W        W 9029   9.117  32.812  23.515 -0.0200  0.1637  0.0756
66113W        W 9030  11.515  31.166  25.331  0.0836 -0.2119  0.0055
66114W        W 9031  13.370  31.843  25.830  0.0773 -0.0914  0.0483
66115W        W 9032   9.613  28.957  24.860 -0.1044  0.0303 -0.3118
66116W        W 9033  12.315  29.889  22.656  0.1745  0.0851  0.1306
66117W        W 9034  10.182  32.779  26.626 -0.1977  0.1150 -0.2504
66118W        W 9035  11.356  33.858  26.633 -0.0560  0.1974  0.1787
66119W        W 9036  13.352  31.356  31.370 -0.1222  0.2508 -0.1797
66120W        W 9037  13.353  31.682  29.426 -0.3344  0.3751 -0.0148
66121W        W 9038  15.399  26.961  26.349  0.1923  0.3058 -0.0989
66122W        W 9039  15.192  31.413  29.167  0.4402 -0.1903  0.1456
66123W        W 9040  11.415  30.542  29.307  0.0787 -0.2765 -0.1216
66124W        W 9041  11.788  33.262  26.185 -0.3232 -0.0956  0.0052
66125W        W 9042  12.995  29.413  30.312 -0.0486 -0.2324 -0.3437
66126W        W 9043  13.293  31.732  30.379  0.0835  0.1018  0.0841
66127W        W 9044  14.266  31.256  30.914 -0.0718  0.1857 -0.1296
66128W        W 9045  13.936  29.627  27.586 -0.1930 -0.2821  0.0237
66129W        W 9046  11.814  29.627  27.738  0.0400  0.0492  0.0516
66130W        W 9047  13.564  32.115  30.096 -0.0367  0.1083  0.2104
66131W        W 9048  13.110  28.429  27.046  0.0846  0.0097  0.1908
66132W        W 9049   9.475  29.266  28.699 -0.2627 -0.1850  0.1266
66133W        W 9050  13.275  30.573  29.583  0.1588  0.1461 -0.3774
66134W        W 9051   9.111  30.191  28.394 -0.2224  0.2668  0.3422
66135W        W 9052  12.793  28.127  28.414  0.0002 -0.0810  0.2214
66136W        W 9053  14.415  29.440  29.074  0.2849  0.0788  0.1510
66137W        W 9054  14.210  30.745  29.667 -0.0289  0.1295  0.1674
66138W        W 9055  11.295  28.955  29.027  0.0080 -0.0184  0.1976
66139W        W 9056  13.247  28.647  30.159  0.1600  0.0537  0.1518
66140W        W 9057  10.471  31.781  29.866  0.1795  0.0491  0.1377
66141W        W 9058   9.795  30.286  26.584 -0.3103  0.0270 -0.2591
66142W        W 9059  12.224  30.581  29.831 -0.3263  0.0004 -0.0566
66143W        W 9060  11.265  29.542  29.714 -0.1958  0.0515 -0.1502
66144W        W 9061  13.125  28.157  30.113  0.0306  0.5229  0.0351
66145W        W 9062  13.292  31.157  28.626 -0.2243  0.2038 -0.0663
66146W        W 9063  13.153  30.650  28.541 -0.2744 -0.3862  0.0608
66147W        W 9064  13.286  32.518  30.029  0.2849 -0.0427  0.2589
66148W        W 9065  13.746  29.553  30.386 -0.2250  0.0729  0.0985
66149W        W 9066  10.662  31.996  31.011  0.0565 -0.2537  0.0004
66150W        W 9067  10.755  33.274  29.656  0.3616  0.0646 -0.1246
66151W        W 9068  11.616  31.810  28.552 -0.1649 -0.2957  0.1301
66152W        W 9069  13.804  32.683  28.415  0.1513  0.0720  0.1445
66153W        W 9070  13.029  31.191  30.108  0.3817 -0.3253  0.1085
66154W        W 9071  10.048  31.617  30.077 -0.1007 -0.0819  0.0299
66155W        W 9072  10.256  32.733  28.015 -0.3353 -0.1745 -0.2627
66156W        W 9073  13.503  29.615  29.429  0.1185  0.1947  0.0888
66157W        W 9074  12.112  33.111  30.004 -0.0317 -0.1148  0.0752
66158W        W 9075  12.340  29.381  30.834  0.1058 -0.1821 -0.0854
66159W        W 9076  14.372  31.186  29.541  0.0760  0.0919  0.0597
66160W        W 9077  10.824  31.442  29.642 -0.0954  0.0362 -0.3025
66161W        W 9078  12.010  32.329  31.314  0.1614 -0.0039 -0.1615
66162W        W 9079  11.659  32.932  31.899 -0.2817  0.3734  0.1958
66163W        W 9080   9.929  30.761  28.574  0.1753  0.0881 -0.1650
66164W        W 9081  15.252  29.653  29.095  0.1656  0.3963 -0.0553
66165W        W 9082  10.376  34.127  26.227 -0.2762 -0.0730  0.0996
66166W        W 9083  14.941  30.728  26.930 -0.0042  0.3265 -0.2910
66167W        W 9084  12.459  30.906  26.653 -0.0692  0.1501  0.0683
66168W        W 9085  13.058  28.721  28.428 -0.1137 -0.1088 -0.1188
66169W        W 9086  13.237  28.865  30.662  0.0697  0.4689 -0.3034
66170W        W 9087  11.867  30.667  30.207  0.3524  0.1156 -0.2429
66171W        W 9088  11.823  28.777  29.762 -0.0400  0.0368 -0.2654
66172W        W 9089  12.855  30.222  30.485  0.1499  0.1145  0.0510
66173W        W 9090  12.591  31.598  27.076 -0.0125  0.0522 -0.4272
66174W        W 9091  12.129  29.023  31.647  0.1102  0.1973 -0.0449
66175W        W 9092  11.228  32.425  29.907  0.1419  0.0566 -0.0800
66176W        W 9093  13.017  32.148  28.082  0.3816 -0.1727  0.2763
66177W        W 9094  12.969  31.933  26.887  0.0949  0.0603  0.1844
66178W        W 9095  12.565  31.755  29.604 -0.2225  0.3083  0.1781
66179W        W 9096  13.215  31.497  28.196 -0.1222 -0.0735 -0.0531
66180W        W 9097  12.570  31.408  30.046 -0.1680  0.2360  0.1675
66181W        W 9098  11.155  30.081  30.359  0.1160  0.1172 -0.1374
66182W        W 9099  11.035  29.978  31.816 -0.0831  0.1794 -0.1630
66183W        W 9100   9.377  28.467  26.976 -0.1979 -0.2761 -0.3250
66184W        W 9101  11.244  31.483   0.174  0.0569 -0.2607  0.1001
66185W        W 9102  10.549  32.759  29.813 -0.2062  0.2276  0.2393
66186W        W 9103  15.889  30.460  26.935  0.0060 -0.2954 -0.4139
66187W        W 9104  13.647  28.880  29.002  0.0217 -0.1039  0.2571
66188W        W 9105  16.156  30.584  28.975 -0.3259 -0.0441 -0.1449
66189W        W 9106  13.552  31.404  27.422  0.3259 -0.2057  0.0368
66190W        W 9107  11.936  28.928  30.294 -0.1287 -0.2143  0.2416
66191W        W 9108  11.343  29.462  28.642  0.0319 -0.2745  0.1750
66192W        W 9109  11.752  31.552  26.755 -0.2953 -0.3404 -0.3031
66193W        W 9110  11.947  30.899  28.007  0.0791  0.2208  0.1314
66194W        W 9111  14.233  31.510  30.527  0.0938  0.0970 -0.1253
66195W        W 9112  15.552  31.100  26.538 -0.0469 -0.2024 -0.0871
66196W        W 9113  12.071  30.996  29.589  0.0651 -0.1866 -0.0008
66197W        W 9114  13.043  27.336  29.026  0.1349 -0.3134 -0.1424
66198W        W 9115  12.305  30.557  31.893  0.0215  0.0371 -0.3254
66199W        W 9116  11.112  32.403  28.744  0.0544 -0.2057 -0.1482
66200W        W 9117  11.265  30.237  28.045  0.0509 -0.0667  0.2429
66201W        W 9118  12.719  29.690  27.444 -0.2671  0.1196  0.5178
66202W        W 9119  10.471  28.654  29.583 -0.0869  0.0149 -0.0278
66203W        W 9120  12.799  30.741  29.337 -0.0235 -0.3787 -0.0029
66204W        W 9121  17.044  28.978  28.011  0.1297  0.0002  0.2888
66205W        W 9122  11.141  30.723  30.752  0.1486 -0.0374  0.1553
66206W        W 9123  14.929  29.592  29.557 -0.0160  0.0334  0.1725
66207W        W 9124  12.398  30.577  27.602 -0.1658 -0.1279 -0.1332
66208W        W 9125  13.767  32.573  29.425  0.0754  0.3102 -0.5147
66209W        W 9126  16.767  30.160  26.892  0.3423  0.2750 -0.2832
66210W        W 9127  14.968  29.804  27.012  0.0169  0.1665  0.2256
66211W        W 9128  11.837  30.870  28.560 -0.2285 -0.2345 -0.3605
66212W        W 9129  11.692  30.740  29.755  0.0351 -0.0394  0.0265
66213W        W 9130  11.705  29.176  30.661 -0.2434 -0.1261 -0.3864
66214W        W 9131  10.715  30.933  27.903 -0.1738  0.0585 -0.0359
66215W        W 9132  12.926  29.304  28.941 -0.1115  0.0540 -0.2479
66216W        W 9133  10.909  28.338  29.780  0.0784 -0.1371  0.3233
66217W        W 9134  13.735  31.354  28.729 -0.1679  0.0797 -0.3515
66218W        W 9135  14.330  30.996  28.933  0.0579 -0.1267  0.0292
66219W        W 9136  11.068  31.709  27.813  0.4701 -0.2214  0.3838
66220W        W 9137  15.299  30.175  28.986 -0.2333  0.1439  0.0054
66221W        W 9138  12.692  33.172  26.499 -0.0025  0.2689 -0.0225
66222W        W 9139  15.080  31.370  27.441 -0.1176 -0.1869  0.0186
66223W        W 9140  13.979  32.151  29.020  0.3831 -0.1269 -0.1984
66224W        W 9141  11.051  30.269  31.214 -0.1770  0.0504  0.1905
66225W        W 9142  11.553  28.709  27.315  0.0033 -0.0996 -0.0718
66226W        W 9143  11.228  32.908  30.245  0.0175  0.0550  0.0665
66227W        W 9144  10.800  30.646  30.197  0.3650 -0.0357  0.3833
66228W        W 9145  12.771  31.287  28.200 -0.1381 -0.0955 -0.3675
66229W        W 9146  13.260  31.098  29.632 -0.0402 -0.0575 -0.4116
66230W        W 9147  12.889  31.995  27.547 -0.1397  0.2109  0.1401
66231W        W 9148  10.973  30.732  29.241  0.2476 -0.0683  0.1791
66232W        W 9149  11.364  30.289  28.861 -0.2101  0.1092  0.1889
66233W        W 9150  13.778  31.108  29.753  0.2641  0.3768  0.1963
66234W        W 9151  13.616  31.231  29.269 -0.1377 -0.0023 -0.2124
66235W        W 9152  10.932  30.092  28.462  0.1153  0.0855 -0.1429
66236W        W 9153  12.459  31.139  29.203 -0.0641 -0.0743  0.0081
66237W        W 9154  11.245  33.190  26.674  0.0302  0.1878 -0.1314
66238W        W 9155  13.447  31.436  29.979 -0.0480 -0.3161  0.1154
66239W        W 9156  13.437  32.795  27.603  0.1084  0.1055 -0.1375
66240W        W 9157  13.964  29.277  28.808  0.1288 -0.2149 -0.0190
66241W        W 9158  11.713  31.250  29.267  0.1461 -0.0148 -0.0649
66242W        W 9159  12.642  30.326  29.109 -0.0066  0.3358 -0.0844
66243W        W 9160  11.749  29.288  28.977  0.1328  0.1221 -0.1556
66244W        W 9161  11.556  31.469  27.854  0.0964 -0.4379  0.0283
66245W        W 9162  14.184  27.462  27.768 -0.0934  0.0396 -0.0577
66246W        W 9163  13.133  28.707  27.560 -0.2756 -0.0939  0.0646
66247W        W 9164  14.769  30.417   0.031 -0.3582  0.1326 -0.0903
66248W        W 9165  14.891  28.674  28.883 -0.4983 -0.2003  0.2046
66249W        W 9166  13.110  31.670  25.356 -0.1534  0.0534 -0.1957
66250W        W 9167  14.649  32.477  27.338  0.0406 -0.1601  0.2452
66251W        W 9168  13.150  30.284  29.970 -0.4634  0.0717  0.0761
66252W        W 9169  12.911  31.267  29.311  0.0009  0.1894 -0.2897
66253W        W 9170  13.608  29.926  31.248 -0.4131  0.1603 -0.2319
66254W        W 9171  17.200  30.584  26.913 -0.0466 -0.0283 -0.2419
66255W        W 9172  14.615  32.050  26.804  0.0353  0.0490 -0.0538
66256W        W 9173   9.342  31.107  28.959  0.0957  0.1695  0.4746
66257W        W 9174  13.396  32.874  30.535  0.0826  0.0045 -0.3340
66258W        W 9175  14.171  29.719  30.068 -0.1040  0.0818 -0.0494
66259W        W 9176  12.033  29.770  29.109  0.0114 -0.1892 -0.1273
66260W        W 9177  11.116  30.311  27.410 -0.1396 -0.0628 -0.4023
66261W        W 9178  13.004  29.880  27.118  0.2439  0.0963  0.0068
66262W        W 9179  10.174  34.214  29.056  0.2283 -0.2486 -0.1698
66263W        W 9180  16.803  28.548  29.521  0.0533 -0.0561  0.1177
66264W        W 9181  15.030  28.032  27.605 -0.3098  0.1078 -0.1989
66265W        W 9182  13.458  30.484  28.940 -0.3759 -0.2952 -0.2435
66266W        W 9183  15.351  30.321  29.620 -0.2684 -0.2491  0.0267
66267W        W 9184  13.543  29.929  27.151  0.1619 -0.1011  0.0649
66268W        W 9185  12.258  29.003  28.059  0.0268 -0.2413 -0.3345
66269W        W 9186  12.959  29.956  27.801  0.0197 -0.0133 -0.2608
66270W        W 9187  12.000  28.505  31.422 -0.2077 -0.0623 -0.0090
66271W        W 9188  13.020  31.614  29.831 -0.0207 -0.1474 -0.0645
66272W        W 9189  10.909  33.574  30.594  0.0391  0.0106 -0.0283
66273W        W 9190  13.213  29.533  31.312 -0.0780  0.1161  0.0986
66274W        W 9191  14.139  31.346  27.471  0.0540 -0.2908 -0.3167
66275W        W 9192  13.102  29.726  29.178 -0.0137  0.2007  0.0765
66276W        W 9193  13.816  28.860  27.568 -0.1495  0.3783 -0.0027
66277W        W 9194  11.482  31.971  26.967 -0.0790  0.1218  0.0676
66278W        W 9195  12.245  31.482  27.984  0.1621  0.0768 -0.1158
66279W        W 9196  13.985  27.292  27.274  0.1380  0.1891  0.0686
66280W        W 9197  14.133  32.069  29.635  0.3618 -0.2624  0.2652
66281W        W 9198  12.743  30.221  27.438  0.1527 -0.2533  0.1029
66282W        W 9199  15.128  31.124   0.954  0.1010 -0.0200  0.2396
66283W        W 9200  11.089  32.878  27.514 -0.3342  0.1260  0.1794
66284W        W 9201  13.118  26.828  29.032  0.1001  0.1070  0.0229
66285W        W 9202  12.157  32.493  27.495  0.0632 -0.2191 -0.0624
66286W        W 9203  11.453  30.974  27.733  0.2565  0.0080  0.1673
66287W        W 9204  11.495  30.021  28.476  0.1705 -0.1054  0.1309
66288W        W 9205  14.573  28.215  27.743  0.3062 -0.2247 -0.2837
66289W        W 9206  14.399  30.554  26.230  0.1259 -0.1098  0.4436
66290W        W 9207  11.313  28.023  29.813 -0.1849  0.0694  0.2167
66291W        W 9208  10.859  29.263  28.883  0.1073 -0.0674 -0.0802
66292W        W 9209  10.511  30.648  29.431 -0.2571  0.1137  0.2074
66293W        W 9210  11.196  31.547  29.239 -0.5259 -0.0932 -0.2436
66294W        W 9211  12.982  30.102  25.274  0.1674 -0.0952  0.0602
66295W        W 9212  12.744  32.404  31.955 -0.1987 -0.0723 -0.5095
66296W        W 9213  12.414  32.268  29.595  0.2808  0.1638  0.0348
66297W        W 9214  11.533  31.265  28.659 -0.1667  0.1715 -0.2987
66298W        W 9215  15.706  30.537  30.541  0.0094 -0.0106  0.1839
66299W        W 9216  13.180  30.146  28.221  0.1943 -0.0929 -0.0753
66300W        W 9217  11.364  31.538  28.296 -0.0189  0.0833  0.2934
66301W        W 9218  12.546  31.696  30.951  0.1102  0.3075  0.1449
66302W        W 9219  12.817  31.736  27.942  0.2658  0.3335  0.0548
66303W        W 9220  10.425  30.869  28.356 -0.1345  0.1266 -0.2911
66304W        W 9221  11.394  28.934   0.067  0.0508  0.1335  0.0331
66305W        W 9222  13.920  29.742  28.495 -0.0015  0.2907 -0.0052
66306W        W 9223  12.818  28.706  29.248 -0.0788 -0.3817 -0.0654
66307W        W 9224  11.176  31.137  29.017  0.0990 -0.1195  0.2475
66308W        W 9225  15.004  30.317  27.828 -0.1161 -0.3674  0.1613
66309W        W 9226  11.703  29.366  29.928 -0.0436 -0.0535 -0.2121
66310W        W 9227  11.743  28.819  29.210 -0.2191  0.0576  0.0775
66311W        W 9228  12.285  31.237  31.140  0.0720  0.0481  0.2195
66312W        W 9229  14.259  27.516  29.334 -0.2425  0.0904 -0.1607
66313W        W 9230  14.245  30.676  28.466  0.0746  0.1450 -0.0809
66314W        W 9231  12.999  30.084  31.340 -0.1099 -0.2583 -0.2440
66315W        W 9232  11.466  31.029  28.245  0.0815  0.0005 -0.0340
66316W        W 9233  10.847  30.850  29.727  0.1353  0.3459  0.1219
66317W        W 9234  12.908  30.775  27.661  0.2849  0.1512  0.1263
66318W        W 9235  11.843  30.150   0.408 -0.1441 -0.3175  0.1242
66319W        W 9236  12.436  32.571  30.008 -0.0585  0.1227  0.2697
66320W        W 9237  11.297  30.773  27.331 -0.0066  0.0087 -0.0193
66321W        W 9238  10.403  30.079  29.419 -0.2689  0.0331 -0.0239
66322W        W 9239  14.696  29.621  28.442 -0.0949  0.1827  0.0363
66323W        W 9240  12.850  32.008  28.861  0.2785  0.0290 -0.1601
66324W        W 9241  13.469  31.916  28.180  0.1436  0.2002 -0.1543
66325W        W 9242  14.437  29.460  30.907 -0.1572 -0.2107  0.1117
66326W        W 9243  13.670  30.778  26.007  0.0164 -0.1753 -0.1923
66327W        W 9244  14.561  28.075  29.852  0.3284  0.2263  0.1026
66328W        W 9245  11.103  29.880  28.889 -0.1366 -0.4818 -0.3506
66329W        W 9246  14.198  31.480  28.968  0.2366 -0.0935  0.2363
66330W        W 9247  11.963  29.530  30.475 -0.4790  0.1171 -0.0035
66331W        W 9248  11.736  31.524  31.899  0.0709  0.0162 -0.1586
66332W        W 9249  11.319  31.162  30.677  0.3730 -0.1040  0.0707
66333W        W 9250  14.569  28.948  28.581  0.0614  0.2075  0.3224
66334W        W 9251  13.190  28.237  29.274 -0.0642 -0.2240 -0.0015
66335W        W 9252  10.982  29.296  30.122 -0.0994  0.4754 -0.0242
66336W        W 9253  14.699  31.617  29.207 -0.1734  0.2819 -0.0570
66337W        W 9254  10.990  32.336  27.499 -0.0381 -0.1151  0.2521
66338W        W 9255  14.570  30.520  28.868  0.0068 -0.2447  0.0514
66339W        W 9256  12.210  29.925   0.698  0.0002 -0.0051 -0.2500
66340W        W 9257  13.648  29.237  27.794  0.1570 -0.4801  0.0690
66341W        W 9258  13.844  28.966  26.595  0.0788  0.0199 -0.0601
66342W        W 9259  12.182  31.475  29.716 -0.0572 -0.0865  0.0801
66343W        W 9260  12.381  27.986  29.698 -0.1288  0.1410  0.0913
66344W        W 9261  14.050  30.221  28.644  0.2302 -0.0824  0.1299
66345W        W 9262  14.541  27.132  27.639  0.1531 -0.1779 -0.0922
66346W        W 9263  13.817  29.132  30.671  0.2374  0.1126  0.0667
66347W        W 9264  13.303  29.152  29.355 -0.0556 -0.0185  0.1506
66348W        W 9265  14.382  30.641  31.785 -0.5622 -0.1603  0.0346
66349W        W 9266  10.576  29.645   1.017  0.1310 -0.0944 -0.2100
66350W        W 9267  13.641  32.489  28.903  0.3122 -0.4730 -0.1500
66351W        W 9268  13.098  30.801  26.720  0.0600 -0.0176  0.1243
66352W        W 9269  14.640  30.463  29.909  0.2722 -0.0423  0.1687
66353W        W 9270  13.951  30.659  28.051  0.1008  0.1528 -0.0196
66354W        W 9271  13.510  27.451  27.250 -0.1308 -0.0235 -0.0823
66355W        W 9272  12.581  29.788  29.040  0.0668 -0.0839  0.1427
66356W        W 9273  13.916  29.229  29.334 -0.0064 -0.1297 -0.3323
66357W        W 9274  12.176  30.137  26.656  0.0860  0.3621 -0.3270
66358W        W 9275  15.039  29.059  28.525 -0.3314 -0.0444 -0.2095
66359W        W 9276  13.451  33.229  28.795 -0.1782 -0.2518 -0.0218
66360W        W 9277  14.769  31.045  29.121  0.3678  0.0898  0.1863
66361W        W 9278  14.482  30.080  26.087 -0.4172 -0.2336  0.0153
66362W        W 9279  12.309  27.457  29.707  0.2476  0.2330 -0.2000
66363W        W 9280  12.033  30.421   0.767  0.1939  0.0744 -0.0621
66364W        W 9281  13.477  30.984  26.942  0.2011 -0.2342  0.1166
66365W        W 9282  12.630  30.260  28.457 -0.0169 -0.3252  0.1350
66366W        W 9283  13.043  32.095  29.913 -0.0864  0.2683  0.1126
66367W        W 9284  13.822  31.581  31.511 -0.1794  0.0636 -0.0782
66368W        W 9285  13.815  29.574  24.914  0.0327 -0.2985 -0.0786
66369W        W 9286  11.915  29.115   0.195  0.3020 -0.2305  0.2735
66370W        W 9287  11.171  31.620  28.759 -0.2427 -0.3005  0.0881
66371W        W 9288  13.157  27.433  28.131 -0.2057  0.2219 -0.3390
66372W        W 9289  10.677  31.572  29.096  0.0623 -0.0761 -0.0441
66373W        W 9290   8.472  31.656  28.775  0.4434 -0.0691  0.0257
66374W        W 9291  12.553  31.013  29.675 -0.0528 -0.0180  0.0069
66375W        W 9292  13.864  30.749  31.847  0.1755 -0.2543 -0.0135
66376W        W 9293  12.935  30.751  29.921 -0.2249 -0.4214  0.0813
66377W        W 9294  11.594  29.776  28.882 -0.2872  0.0873  0.1327
66378W        W 9295  13.534  30.167  29.428  0.0158  0.0404 -0.0353
66379W        W 9296  11.809  30.891  31.184 -0.1017 -0.1179  0.0404
66380W        W 9297  14.214  32.027  30.198  0.1316  0.4243  0.0512
66381W        W 9298  15.502  32.505  31.727  0.2034  0.0758  0.2134
66382W        W 9299  14.985  31.281  28.361  0.2230 -0.2395  0.0370
66383W        W 9300  12.254  30.874  30.565 -0.1924 -0.0940  0.1435
66384W        W 9301  10.389  29.873  30.744 -0.1087 -0.1159  0.3814
66385W        W 9302  13.759  29.410  29.861  0.1416 -0.0420  0.1375
66386W        W 9303  12.659  29.293  28.314  0.2315 -0.0929 -0.0945
66387W        W 9304  11.425  28.178  28.165 -0.0944 -0.0431  0.0159
66388W        W 9305  13.380  32.243  27.670  0.0109 -0.0869  0.3163
66389W        W 9306   8.773  30.113  25.649 -0.1461  0.2571 -0.2105
66390W        W 9307  10.733  30.997  28.785  0.1861  0.0407  0.1917
66391W        W 9308  11.467  32.711  26.821  0.0532 -0.1279  0.0549
66392W        W 9309  12.855  28.962  27.963  0.0838  0.1465  0.3413
66393W        W 9310  12.224  29.516  28.062 -0.0344 -0.2325  0.1433
66394W        W 9311  15.520  32.877  29.166 -0.0730  0.0769 -0.0150
66395W        W 9312  12.910  31.474  26.679  0.1707  0.3558  0.4181
66396W        W 9313  12.212  32.105  27.745  0.2409  0.0314 -0.1364
66397W        W 9314  12.849  31.304  27.664  0.2440  0.4793  0.1359
66398W        W 9315  14.745  30.889  28.629  0.3697  0.0232  0.0131
66399W        W 9316  12.074  31.621  28.595 -0.0680  0.1071  0.0604
66400W        W 9317  14.824  31.899  30.071 -0.0399  0.3107 -0.2271
66401W        W 9318  14.586  30.048  25.151 -0.0914  0.1697  0.0141
66402W        W 9319  13.829  28.290  28.794 -0.1767 -0.2136  0.1651
66403W        W 9320  15.550  28.102  27.599 -0.0067 -0.0293  0.0920
66404W        W 9321  12.285  31.858  31.347  0.1255 -0.3361 -0.3513
66405W        W 9322  13.462  29.786  30.006  0.0471 -0.0799  0.1986
66406W        W 9323  10.664  29.780  27.006 -0.4978 -0.1354 -0.1804
66407W        W 9324  10.911  29.620   0.280  0.0331  0.3460  0.0783
66408W        W 9325  17.174  28.109  30.710 -0.0059 -0.0668 -0.2104
66409W        W 9326  12.068  33.136  31.132  0.0053  0.0355  0.1180
66410W        W 9327  13.931  32.822  27.751  0.0998  0.1722  0.2548
66411W        W 9328  13.526  31.773  28.670 -0.2402  0.3540  0.2833
66412W        W 9329  11.666  29.588  29.444  0.0375 -0.3648  0.1974
66413W        W 9330  16.028  29.852  28.404  0.2467 -0.2065 -0.0596
66414W        W 9331  10.136  31.685  26.719  0.2006  0.3000 -0.1275
66415W        W 9332  12.706  28.858  28.736 -0.1713 -0.0075  0.2980
66416W        W 9333  11.565  31.589  27.321  0.2336 -0.2746 -0.0501
66417W        W 9334  12.377  32.830  29.595 -0.0133 -0.1588  0.0161
66418W        W 9335  12.474  31.022  27.958  0.1159  0.1449 -0.0148
66419W        W 9336  11.058  28.248  30.258 -0.0617 -0.2103  0.1193
66420W        W 9337  16.370  29.483  28.445  0.0183 -0.2154  0.2663
66421W        W 9338  12.141  29.198  29.914 -0.0657  0.0179  0.0630
66422W        W 9339  15.631  29.733  28.795  0.1262  0.2785  0.3034
66423W        W 9340  12.788  30.353  29.627  0.4357  0.0074  0.0699
66424W        W 9341  15.469  29.575  27.649  0.1959 -0.0466 -0.4484
66425W        W 9342  13.736  31.976  30.540 -0.1162 -0.2205 -0.0131
66426W        W 9343  10.958  29.176   0.018 -0.0116  0.1108  0.0111
66427W        W 9344  12.122  29.323  25.620 -0.1511  0.1472  0.3368
66428W        W 9345  12.841  31.271  30.605 -0.1504 -0.0923  0.3656
66429W        W 9346  12.779  29.703  25.526  0.1765  0.5814 -0.1318
66430W        W 9347  11.726  30.836  30.660  0.4167  0.0140  0.0731
66431W        W 9348  11.766  30.169  29.635  0.0792 -0.0493  0.1398
66432W        W 9349  13.785  31.825  27.494 -0.0941  0.1947 -0.0165
66433W        W 9350  12.369  30.393  30.506  0.1592  0.0508  0.2215
66434W        W 9351  12.059  31.709  30.930  0.3477  0.0575 -0.0889
66435W        W 9352  12.965  32.180   0.701  0.0446 -0.3866 -0.1067
66436W        W 9353  12.145  28.397  29.294 -0.2134 -0.2200  0.0025
66437W        W 9354  14.916  30.837  27.791 -0.1769  0.0930  0.0364
66438W        W 9355  13.893  28.590  29.391 -0.0836  0.0727 -0.4024
66439W        W 9356  12.862  32.567  29.798 -0.2346  0.0354  0.1362
66440W        W 9357  12.677  29.835  28.174 -0.0826 -0.2121 -0.3196
66441W        W 9358  15.457  31.566  26.659  0.0080  0.1345  0.0742
66442W        W 9359  11.257  31.070  29.594  0.1491  0.3406  0.0284
66443W        W 9360  14.110  30.287  29.975  0.0522 -0.0989 -0.0560
66444W        W 9361  13.206  31.656  30.845  0.4498 -0.0564  0.1415
66445W        W 9362  11.263  29.444  29.195 -0.0942  0.2907 -0.1631
66446W        W 9363  11.819  30.283  29.117  0.0713  0.3047 -0.1672
66447W        W 9364  10.902  31.827  25.446  0.1207  0.2791  0.1281
66448W        W 9365  14.021  29.798  29.088 -0.0045  0.1241 -0.2235
66449W        W 9366  14.510  29.943  29.270 -0.3749 -0.1184  0.2929
66450W        W 9367  11.109  31.213  27.957 -0.0827 -0.1200  0.1289
66451W        W 9368  14.652  29.230  29.501  0.3453 -0.0211 -0.1522
66452W        W 9369  12.311  30.681  29.323  0.2671  0.0126  0.1920
66453W        W 9370  13.354  29.407  30.691 -0.1015  0.3428 -0.1195
66454W        W 9371  13.704  30.602  28.491 -0.0039  0.2415  0.0957
66455W        W 9372  12.271  30.748  31.102 -0.0715  0.1887 -0.1094
66456W        W 9373  12.819  30.982  28.843  0.0995  0.0924 -0.0335
66457W        W 9374  12.856  32.153  29.472  0.1147  0.2338 -0.2056
66458W        W 9375  15.544  31.819  29.104  0.3615 -0.1184 -0.0151
66459W        W 9376  14.073  29.918  27.128 -0.1473  0.1676 -0.0349
66460W        W 9377  14.276  31.290  28.469 -0.0361 -0.0461  0.2542
66461W        W 9378  13.309  27.738  29.279 -0.1645  0.0357 -0.1763
66462W        W 9379  14.294  29.256  28.329 -0.1504 -0.3082  0.0273
66463W        W 9380  13.972  30.311  26.342  0.1991  0.1031 -0.1405
66464W        W 9381  11.771  30.289  31.896  0.0250  0.1223 -0.1106
66465W        W 9382  11.933  30.778  27.402 -0.0319 -0.2632 -0.3023
66466W        W 9383  11.468  32.673  28.698  0.1960  0.0457  0.0821
66467W        W 9384  10.927  29.608  28.422  0.1004  0.0321  0.2058
66468W        W 9385  11.756  28.305  29.540 -0.0476 -0.0851 -0.0556
66469W        W 9386  11.600  30.552   0.563 -0.2518 -0.1321  0.1993
66470W        W 9387  11.850  31.641  30.114  0.1301  0.3442 -0.0314
66471W        W 9388  13.818  28.203  28.246 -0.0491 -0.3369 -0.2261
66472W        W 9389  15.216  28.570  28.017  0.0608 -0.2679  0.5818
66473W        W 9390  10.658  30.566  27.572 -0.2301  0.0772  0.2206
66474W        W 9391  11.488  27.662  28.038 -0.0727  0.2743 -0.0497
66475W        W 9392  12.420  31.631  27.564  0.1977  0.1743  0.0811
66476W        W 9393  15.079  30.578  28.797  0.1794  0.1785  0.3907
66477W        W 9394  12.022  29.217  29.376 -0.0443 -0.0484 -0.1293
66478W        W 9395  16.123  30.218  30.666  0.1569  0.0016  0.2344
66479W        W 9396  13.468  29.777  28.521  0.0744  0.0555  0.1261
66480W        W 9397  12.534  30.230  30.006  0.0492  0.0143  0.1145
66481W        W 9398  11.617  30.754  31.654 -0.0402 -0.0319  0.0755
66482W        W 9399  10.159  27.457  27.842  0.0039  0.1643 -0.2083
66483W        W 9400  13.592  28.386  27.230  0.3522  0.3302 -0.1106
66484W        W 9401  13.407  30.637  28.093  0.0352 -0.2304  0.1558
66485W        W 9402  13.750  31.689  29.089  0.2836  0.1718  0.0633
66486W        W 9403  11.814  31.974  31.646 -0.0705  0.2563 -0.0926
66487W        W 9404  10.182  32.046  30.259 -0.2978  0.2675  0.1439
66488W        W 9405   9.513  28.556  29.208  0.0563 -0.1544 -0.1482
66489W        W 9406  14.194  29.156  25.791 -0.0278  0.2822 -0.1514
66490W        W 9407  12.763  29.868  29.495 -0.2022 -0.2877 -0.0086
66491W        W 9408  14.663  29.287  26.488 -0.0019  0.0250 -0.2233
66492W        W 9409  13.492  27.933  28.781  0.3154  0.1497  0.1462
66493W        W 9410  13.674  30.437  27.274  0.0990 -0.0215 -0.0390
66494W        W 9411   9.334  26.389  31.000  0.1721 -0.2155 -0.1798
66495W        W 9412  13.091  30.239  29.237  0.0590  0.2254  0.0160
66496W        W 9413  15.985  31.694  31.901 -0.0782  0.1619  0.2583
66497W        W 9414  12.289  29.785  27.174  0.2021 -0.1837  0.2318
66498W        W 9415  15.347  29.641  26.472  0.2740 -0.0233  0.2229
66499W        W 9416  13.730  29.489  26.982  0.0425  0.2649  0.1675
66500W        W 9417  11.140  29.140   0.514  0.2295  0.2037  0.1567
66501W        W 9418  12.954  28.395  28.024 -0.1057  0.0573  0.0477
66502W        W 9419  13.375  31.686  31.756 -0.0560  0.0021  0.1665
66503W        W 9420  12.839  32.300  30.339  0.0119  0.2618  0.2394
66504W        W 9421  15.496  31.470  28.482  0.3135  0.0523 -0.0047
66505W        W 9422  12.199  30.058  28.262  0.0823  0.1879  0.0281
66506W        W 9423  14.703  30.474  27.433 -0.1266 -0.0451 -0.3286
66507W        W 9424  14.180  31.171  30.108 -0.1749 -0.1174 -0.2459
66508W        W 9425  13.142  32.115  31.809 -0.0795  0.1796  0.0232
66509W        W 9426  12.235  31.553  29.105  0.3892 -0.1178 -0.2443
66510W        W 9427  14.765  31.337  31.007  0.1332  0.0801  0.2187
66511W        W 9428  12.640  26.953  29.196  0.0046  0.1780 -0.1065
66512W        W 9429  11.456  32.277  28.417  0.1785 -0.1877 -0.2244
66513W        W 9430  13.236  31.082  27.912  0.1048  0.3039 -0.3185
66514W        W 9431  13.030  29.676  28.684 -0.0673 -0.1219 -0.2072
66515W        W 9432  14.563  27.243  28.504 -0.3301 -0.3415 -0.0738
66516W        W 9433  14.057  26.347  28.669 -0.1009 -0.3259 -0.0329
66517W        W 9434   9.858  32.182  28.648  0.0202  0.0355 -0.3118
66518W        W 9435  13.932  30.734  30.103 -0.2759  0.0765  0.2268
66519W        W 9436  13.454  31.266  30.483 -0.0989  0.0692  0.0545
66520W        W 9437  14.656  33.132  30.701  0.1620  0.0650 -0.0527
66521W        W 9438  10.591  28.939  31.741  0.1538 -0.0693  0.1248
66522W        W 9439  10.500  31.507  31.559  0.0428 -0.0562  0.1690
66523W        W 9440  10.706  31.140  31.342  0.0549  0.4007 -0.2961
66524W        W 9441  13.176  32.216  31.323 -0.0563  0.1149 -0.2609
66525W        W 9442  13.148  29.225   1.534  0.2418  0.2176 -0.0744
66526W        W 9443  13.427  30.300  30.417  0.1795 -0.0566  0.1655
66527W        W 9444  14.000  28.385   0.529 -0.1139 -0.0110 -0.1266
66528W        W 9445  15.083  31.402   0.027  0.1365  0.1707  0.2109
66529W        W 9446  12.504  32.843  31.797 -0.1080 -0.1125 -0.4292
66530W        W 9447  10.212  30.023   1.356 -0.0891  0.3210 -0.1052
66531W        W 9448  14.586  29.737   0.985 -0.0177 -0.2377  0.0104
66532W        W 9449  12.875  33.680  31.600 -0.0237  0.0998 -0.0008
66533W        W 9450  17.726  30.020  31.143 -0.1334 -0.0159 -0.2766
66534W        W 9451  13.838  33.115  30.617  0.3467 -0.0153 -0.0912
66535W        W 9452  10.161  33.131   1.427  0.2739  0.0239  0.0427
66536W        W 9453  12.692  28.750  31.611 -0.4119 -0.0517  0.0183
66537W        W 9454   9.088  29.994   0.099 -0.1141  0.3144  0.0962
66538W        W 9455  11.627  30.196   1.044  0.1845  0.0102  0.1005
66539W        W 9456  13.403  30.342   0.556 -0.1276 -0.2724 -0.2764
66540W        W 9457   8.688  32.364  30.735  0.0525 -0.0853 -0.1014
66541W        W 9458  13.707  28.964  29.711 -0.4138 -0.3314 -0.1809
66542W        W 9459  13.415  30.401  31.278  0.0796 -0.0215 -0.0666
66543W        W 9460  13.970  30.403  30.493  0.0758  0.1385  0.0161
66544W        W 9461  13.397  29.654   1.510 -0.1891 -0.2652 -0.0189
66545W        W 9462   9.843  31.325  29.743  0.1920 -0.0226 -0.1809
66546W        W 9463  10.819  31.146  30.125  0.0618  0.0672 -0.4168
66547W        W 9464  11.444  31.914   1.684  0.1655 -0.1638  0.3954
66548W        W 9465  10.621  31.104  29.314  0.1630  0.3290 -0.0084
66549W        W 9466  12.293  32.054  28.745  0.1830 -0.1144 -0.0616
66550W        W 9467  11.309  31.259  31.594 -0.1059 -0.2158  0.2015
66551W        W 9468  14.859  31.213   0.537 -0.2809  0.2292 -0.2021
66552W        W 9469  13.679  31.238  30.978 -0.2647 -0.1129 -0.2303
66553W        W 9470  10.662  30.926   0.753  0.1652  0.1038  0.0656
66554W        W 9471  11.975  30.457  31.454  0.0988 -0.1323 -0.1560
66555W        W 9472  10.244  31.258  30.728 -0.0091 -0.2174 -0.2118
66556W        W 9473  12.219  31.347   0.552  0.1629  0.0080  0.1607
66557W        W 9474  12.637  29.327  29.882 -0.1989  0.0849  0.3464
66558W        W 9475  14.817  29.145  31.779  0.1034  0.5082  0.3900
66559W        W 9476  14.277  29.544  29.537 -0.3994  0.2573 -0.2245
66560W        W 9477  14.341  30.067  30.353 -0.0703  0.2073 -0.0743
66561W        W 9478  10.784  30.274  30.708 -0.2193 -0.0629  0.0881
66562W        W 9479   9.698  31.114  30.183  0.0724 -0.0019 -0.1781
66563W        W 9480  11.138  32.234   0.258 -0.0395 -0.1369 -0.0605
66564W        W 9481  12.576  30.224  30.920 -0.0356 -0.1811  0.0346
66565W        W 9482  11.606  28.818   0.482  0.1413 -0.2595 -0.1301
66566W        W 9483  14.450  30.023  29.731 -0.0703  0.1319 -0.2654
66567W        W 9484  14.626  29.328   1.401 -0.2860  0.1283 -0.1563
66568W        W 9485  11.004  30.733  28.320  0.0862 -0.0278  0.1374
66569W        W 9486  11.530  32.004  29.925 -0.2498 -0.0811 -0.0310
66570W        W 9487  16.386  29.708  30.817 -0.1408 -0.0158 -0.1163
66571W        W 9488  14.267  28.442  29.039 -0.1726  0.0517 -0.0403
66572W        W 9489  14.180  29.035  31.093  0.0170  0.0078  0.4034
66573W        W 9490  12.987  30.538   0.339 -0.1620  0.1185  0.3165
66574W        W 9491  12.231  29.462  31.369  0.2583  0.1549  0.0681
66575W        W 9492  14.125  32.218  30.851 -0.2219 -0.0321 -0.0551
66576W        W 9493  10.744  33.436   1.320  0.1691 -0.0958  0.1145
66577W        W 9494  11.561  32.392  30.959 -0.0697 -0.3654 -0.1676
66578W        W 9495  10.357  32.317  30.793 -0.0394 -0.0072  0.0917
66579W        W 9496  12.280  29.871  30.165 -0.0061  0.1424 -0.4613
66580W        W 9497  13.938  32.459  29.948  0.2534  0.0822  0.0852
66581W        W 9498  10.633  31.503  30.957  0.2900  0.0814 -0.0113
66582W        W 9499  11.627  28.095  30.305  0.0366  0.3268  0.2600
66583W        W 9500  14.395  32.701   0.147 -0.1376 -0.0439 -0.1173
66584W        W 9501  15.140  29.745   0.621  0.0051  0.1124 -0.3633
66585W        W 9502  14.924  30.821  31.607  0.2596  0.0373 -0.0117
66586W        W 9503  11.273  34.413  14.481 -0.2161 -0.0975  0.1833
66587W        W 9504  13.611  34.025  17.079 -0.1152 -0.0368 -0.2963
66588W        W 9505  12.706   0.374  15.178  0.0869 -0.1482 -0.1302
66589W        W 9506  10.979  34.424  15.980  0.3319 -0.2001 -0.0313
66590W        W 9507   8.379  32.734  20.118 -0.2083  0.3312 -0.0778
66591W        W 9508  13.664  33.847  15.792 -0.3551  0.2971  0.0767
66592W        W 9509  13.198  33.453  18.134  0.3856 -0.0772 -0.3510
66593W        W 9510  11.164  33.155  16.897  0.1213  0.1486  0.1224
66594W        W 9511  12.344  31.156  17.167  0.1228 -0.1690  0.0477
66595W        W 9512  14.091  33.589  17.594 -0.0998 -0.4435 -0.0450
66596W        W 9513   9.731  33.524  15.015  0.0757  0.1312 -0.2097
66597W        W 9514  12.340  33.732  18.478  0.0470  0.1683 -0.1407
66598W        W 9515  13.463  33.716  16.626  0.1564  0.1716 -0.0282
66599W        W 9516  13.176  33.446  15.834 -0.1471  0.2445 -0.3633
66600W        W 9517  13.607  32.498  17.035  0.1413  0.0948 -0.1064
66601W        W 9518  11.552   0.002  14.953  0.1135 -0.1603 -0.3999
66602W        W 9519  11.568  33.384  15.173  0.1163 -0.0258  0.2399
66603W        W 9520  12.928   0.199  16.761  0.3844  0.0034 -0.3548
66604W        W 9521  12.555  33.057  16.756  0.0808 -0.5222  0.1044
66605W        W 9522  13.019   1.386  17.466 -0.1012  0.2233 -0.0934
66606W        W 9523  13.306   0.074  18.133 -0.0272 -0.1980 -0.0334
66607W        W 9524  15.534   0.973  18.710 -0.0445  0.2453  0.0501
66608W        W 9525  14.072  33.960  16.094  0.3125  0.0576 -0.1117
66609W        W 9526  13.126   0.069  17.219  0.2303 -0.1123  0.0713
66610W        W 9527  11.228  34.239  15.006 -0.1746 -0.1161 -0.3048
66611W        W 9528  12.201  33.748  14.735 -0.2555  0.0941 -0.0311
66612W        W 9529  14.166  31.661  16.030  0.1484 -0.1677 -0.2731
66613W        W 9530  11.555  33.192  17.846  0.1682  0.1204  0.1475
66614W        W 9531  11.703   0.127  18.866 -0.0174 -0.0600  0.0504
66615W        W 9532  11.486  31.986  16.345  0.0738 -0.2719 -0.1296
66616W        W 9533  12.960  33.818  16.594  0.2409 -0.1697  0.0320
66617W        W 9534  12.873  34.633  15.405 -0.0119 -0.1087 -0.0658
66618W        W 9535  10.071  34.399  15.370 -0.2250  0.3744 -0.1623
66619W        W 9536  10.935   0.090  17.661  0.0389 -0.1533  0.0590
66620W        W 9537   8.716  32.913  17.860  0.0615  0.1274  0.0142
66621W        W 9538  11.393  31.968  15.381 -0.0495  0.3396 -0.1963
66622W        W 9539  13.742  32.981  16.983 -0.0946  0.1617 -0.0560
66623W        W 9540  11.926  32.349  16.545  0.1165  0.0119 -0.2085
66624W        W 9541  14.588   0.597  16.735  0.1867  0.0983  0.0602
66625W        W 9542  13.789  34.587  15.285 -0.3179  0.2404  0.2702
66626W        W 9543  13.606   0.921  17.982  0.0767  0.0296 -0.3495
66627W        W 9544  11.751  33.453  17.484  0.1611 -0.1924  0.2208
66628W        W 9545  14.168  33.498  15.109  0.0573 -0.0726 -0.1284
66629W        W 9546   9.252  32.892  20.349 -0.0155 -0.1273  0.2148
66630W        W 9547  15.114  34.652  18.496 -0.2980 -0.3296  0.0224
66631W        W 9548  13.267  34.291  15.189  0.0353  0.0564 -0.1552
66632W        W 9549  10.514  33.438  15.492 -0.0891 -0.0090 -0.3353
66633W        W 9550  12.153  33.641  15.965  0.2422  0.0419  0.0519
66634W        W 9551  12.434  33.256  18.166 -0.0420 -0.2041  0.0919
66635W        W 9552  12.079   0.146  15.810  0.0425 -0.1258 -0.2327
66636W        W 9553  14.039  34.082  17.787  0.1274 -0.1649 -0.0111
66637W        W 9554  10.943  33.644  15.688 -0.0025  0.1047 -0.1315
66638W        W 9555  13.795  33.036  16.418  0.2528 -0.0171 -0.0935
66639W        W 9556  10.392  34.049  14.964 -0.1106 -0.0499  0.0494
66640W        W 9557  13.541  33.837  17.901 -0.3810  0.1595 -0.3708
66641W        W 9558  12.250  32.605  21.410  0.4026  0.2888  0.0465
66642W        W 9559  11.180  33.576  14.846 -0.0075 -0.0923 -0.1852
66643W        W 9560  11.148  33.646  14.323  0.2313  0.0371  0.3389
66644W        W 9561  13.571  34.509  16.107  0.0701 -0.3273 -0.2279
66645W        W 9562  11.359   0.165  17.957 -0.1142  0.0082  0.1039
66646W        W 9563   9.861  33.640  14.415 -0.2102 -0.1666  0.1782
66647W        W 9564  10.779  34.648  16.717  0.3718 -0.3215  0.1045
66648W        W 9565  13.625  33.739  18.449  0.1916 -0.0180 -0.0389
66649W        W 9566  12.952   0.330  17.633 -0.1080 -0.1526  0.1473
66650W        W 9567  11.661   0.726  19.424 -0.3566  0.2357  0.1179
66651W        W 9568   9.176  33.594  14.812 -0.2376 -0.0569 -0.1308
66652W        W 9569  11.848  31.465  16.249 -0.1167 -0.2366  0.4198
66653W        W 9570  15.423   0.462  15.655 -0.2086  0.3088 -0.3677
66654W        W 9571  13.505  34.275  17.605  0.1355  0.0233 -0.0648
66655W        W 9572  12.920  32.729  16.403 -0.0665 -0.2600  0.0645
66656W        W 9573  11.058  33.485  16.129 -0.0401  0.2319 -0.0557
66657W        W 9574   9.959  32.684  18.942  0.0139  0.0939  0.3962
66658W        W 9575  13.335  34.201  15.673  0.0470 -0.6283 -0.0974
66659W        W 9576  12.835  33.485  17.355 -0.0611  0.0231  0.1904
66660W        W 9577  14.778  33.723  16.996 -0.1112 -0.2362 -0.0142
66661W        W 9578  12.669  31.975  17.137  0.3085 -0.0291  0.1344
66662W        W 9579  12.873  32.851  19.541 -0.3148 -0.3980 -0.0641
66663W        W 9580  14.301   0.646  17.196 -0.0265 -0.1672 -0.1429
66664W        W 9581  14.133  34.384  16.255  0.1145  0.0336  0.2069
66665W        W 9582  14.953  33.712  15.089 -0.0914  0.1136  0.2221
66666W        W 9583  13.199  34.216  14.606 -0.0179  0.0979 -0.1307
66667W        W 9584  10.510  33.605  19.098 -0.3024 -0.1822 -0.2379
66668W        W 9585  12.269  32.730  18.748 -0.1792  0.1511 -0.1340
66669W        W 9586  10.928  33.154  14.145 -0.1742 -0.1888 -0.1952
66670W        W 9587  13.225  33.733  17.131  0.2427 -0.0530  0.2446
66671W        W 9588  14.261  33.255  17.271 -0.1189  0.1903  0.5526
66672W        W 9589  10.601  33.009  15.208  0.0517 -0.1547  0.2795
66673W        W 9590   9.120  31.800  15.824 -0.0720 -0.1959  0.5411
66674W        W 9591  13.018  33.343  14.715  0.2874  0.0425  0.2147
66675W        W 9592  13.334   0.455  16.694 -0.2160 -0.1788 -0.1545
66676W        W 9593  10.288  34.411  16.967 -0.2270  0.0241  0.2933
66677W        W 9594  13.772  33.289  18.016  0.1026  0.2227  0.1107
66678W        W 9595  13.885  32.054  14.980  0.0151  0.0962 -0.0417
66679W        W 9596  12.285   0.459  17.827 -0.2364 -0.1631 -0.0083
66680W        W 9597  11.083  32.715  15.234  0.1500 -0.2015  0.2144
66681W        W 9598  13.973   1.613  18.281 -0.2234 -0.2954 -0.1073
66682W        W 9599  12.834  34.310  16.793  0.3502 -0.3595 -0.0872
66683W        W 9600  12.682  32.171  15.883  0.0073 -0.3046  0.2602
66684W        W 9601   9.742  33.832  18.355 -0.2350 -0.1878 -0.0576
66685W        W 9602  11.626  34.184  17.272  0.1413 -0.1490  0.2585
66686W        W 9603  10.933  31.848  15.536  0.0721  0.0988  0.1404
66687W        W 9604  14.702   0.053  15.493  0.1527 -0.0143 -0.0135
66688W        W 9605  14.869  34.590  18.027  0.0968 -0.0957  0.3150
66689W        W 9606  13.581  31.894  16.066  0.1035  0.0885  0.0939
66690W        W 9607  13.123   0.943  17.728  0.4369 -0.0175 -0.0044
66691W        W 9608  13.098   0.628  17.215  0.3401  0.0428  0.2514
66692W        W 9609  14.456  33.156  15.690  0.1513 -0.0660 -0.1018
66693W        W 9610  12.655  33.454  15.884 -0.0544 -0.4563 -0.0708
66694W        W 9611  13.564  33.580  19.458  0.1795 -0.0956  0.1746
66695W        W 9612  15.378  31.799  17.271 -0.2480  0.2593  0.0301
66696W        W 9613  14.401  33.377  20.665  0.1326  0.0750 -0.2235
66697W        W 9614  12.366   0.991  17.843  0.0556 -0.1852  0.3552
66698W        W 9615  12.052  33.056  17.640  0.0603 -0.0573 -0.0287
66699W        W 9616  11.927   0.527  19.085  0.1164 -0.1777 -0.0037
66700W        W 9617  15.251  31.879  15.488 -0.5153  0.3703 -0.2015
66701W        W 9618  10.272  31.504  15.244 -0.2078 -0.1283  0.1043
66702W        W 9619  14.495   2.674  17.636 -0.1423  0.1556  0.3064
66703W        W 9620  14.292  33.626  16.889 -0.0198 -0.0288 -0.0685
66704W        W 9621  12.501  33.610  16.393  0.0006 -0.3939  0.1927
66705W        W 9622  13.843  33.310  15.798  0.0292 -0.2614  0.2372
66706W        W 9623  13.159  32.249  17.350 -0.0556  0.0015 -0.0576
66707W        W 9624  12.268  31.557  18.404 -0.1037 -0.0381 -0.3797
66708W        W 9625  13.997  33.986  16.665 -0.0157  0.1434  0.0219
66709W        W 9626  14.875  33.735  18.296 -0.1178 -0.0415  0.1430
66710W        W 9627  11.546   1.892  16.677  0.2495 -0.1751 -0.0086
66711W        W 9628  10.871  33.312  16.570 -0.0542 -0.1443  0.1764
66712W        W 9629  15.070  33.745  16.470 -0.1143  0.0348 -0.0059
66713W        W 9630  15.216  32.073  16.298  0.1697  0.3012 -0.1303
66714W        W 9631  14.561  33.730  15.389 -0.0102  0.1864 -0.3787
66715W        W 9632  12.299  32.919  15.429  0.0771  0.2152 -0.3131
66716W        W 9633  10.508  33.451  14.981 -0.0493  0.0192  0.0838
66717W        W 9634  12.630  34.604  18.721 -0.0459 -0.0638 -0.1528
66718W        W 9635  10.851  33.776  15.213  0.2180 -0.0972  0.0546
66719W        W 9636  12.782  33.936  17.105  0.0234  0.3494  0.2137
66720W        W 9637  13.071  33.297  15.198 -0.1912 -0.2267 -0.2251
66721W        W 9638  11.221   1.397  15.207  0.3669 -0.0417  0.1092
66722W        W 9639  10.082  33.374  14.742  0.1197 -0.3335  0.0612
66723W        W 9640  12.420  32.673  16.330  0.1546 -0.0857 -0.2203
66724W        W 9641  11.026  31.793  14.958  0.1509  0.1702  0.1636
66725W        W 9642  15.451  34.037  19.597 -0.1671  0.1866 -0.1808
66726W        W 9643  12.515  32.949  17.795 -0.1705  0.4457 -0.1501
66727W        W 9644  12.169  32.784  16.770  0.0193 -0.0692  0.0675
66728W        W 9645  13.050   0.473  15.575 -0.0465 -0.1478 -0.2416
66729W        W 9646  12.476  34.481  15.794 -0.3475  0.1980 -0.0589
66730W        W 9647  12.669  33.744  19.838  0.2587 -0.0339  0.2405
66731W        W 9648  13.835   1.125  16.381 -0.0650 -0.2208 -0.0036
66732W        W 9649  12.012  34.075  18.645 -0.0954  0.2361 -0.0388
66733W        W 9650  12.029  32.428  15.356  0.0003 -0.0349  0.0535
66734W        W 9651  10.464  33.182  14.437  0.1380 -0.1408 -0.1869
66735W        W 9652  13.838  32.934  15.366 -0.1813  0.2764 -0.3711
66736W        W 9653  14.734   0.943  17.159  0.0408  0.0585  0.1144
66737W        W 9654  13.292  34.158  16.692  0.3011 -0.0973  0.1673
66738W        W 9655  13.618   0.461  16.016 -0.0379  0.1396 -0.2759
66739W        W 9656  11.422  32.876  15.940  0.0973 -0.1119  0.1867
66740W        W 9657  11.683  33.319  16.091 -0.1630  0.0171  0.1987
66741W        W 9658  14.769  33.418  18.734 -0.2655 -0.3693  0.1005
66742W        W 9659  10.549  33.640  16.247 -0.0327 -0.1568 -0.2696
66743W        W 9660  11.898   1.048  16.883 -0.1943 -0.0880  0.2988
66744W        W 9661  14.202  34.552  18.138 -0.0213 -0.0312  0.1799
66745W        W 9662  13.236   0.534  17.954  0.2305  0.1118 -0.0009
66746W        W 9663  10.181  31.190  16.480 -0.2383  0.4708  0.0731
66747W        W 9664  14.474  34.118  16.898  0.1245  0.0324 -0.1979
66748W        W 9665  11.073  34.482  18.187 -0.0007  0.1546  0.1182
66749W        W 9666  11.954  32.510  18.405  0.1700 -0.0457  0.0878
66750W        W 9667  11.627  34.224  15.314  0.2402 -0.1890 -0.2301
66751W        W 9668  12.944  34.288  16.282  0.1658 -0.0633  0.2779
66752W        W 9669  10.962   0.634  17.822 -0.3326  0.0653 -0.0485
66753W        W 9670  11.431  32.985  15.427 -0.1476 -0.0286  0.1768
66754W        W 9671  13.590  33.624  17.500  0.1239 -0.1162  0.0658
66755W        W 9672  13.005  34.614  15.886 -0.1831  0.0445  0.4198
66756W        W 9673  11.834  32.958  18.207 -0.4337  0.1336  0.0829
66757W        W 9674  12.863  32.462  14.921  0.0746  0.4093 -0.0515
66758W        W 9675  12.602   0.113  16.230  0.3441 -0.0945  0.0639
66759W        W 9676  12.853  33.030  15.569 -0.3844 -0.0139  0.0294
66760W        W 9677  11.108  33.263  15.224  0.1911  0.3488  0.0297
66761W        W 9678  15.124  33.685  17.391 -0.3805  0.2349 -0.1266
66762W        W 9679  13.105  33.413  14.171 -0.1540  0.1028 -0.1923
66763W        W 9680  10.937  32.782  17.175  0.1483  0.0193 -0.3101
66764W        W 9681  13.184  31.340  16.780 -0.1737  0.1522  0.0573
66765W        W 9682  12.611   0.366  17.172  0.0244  0.1521 -0.0214
66766W        W 9683  12.964  33.430  16.855 -0.2212  0.1503 -0.1599
66767W        W 9684  15.568  34.593  16.119 -0.2698 -0.1273 -0.0691
66768W        W 9685  13.752  34.119  19.360 -0.3640 -0.1677  0.0802
66769W        W 9686   9.869  33.833  16.144 -0.0268  0.0169  0.0335
66770W        W 9687  11.729  33.794  15.585  0.0630 -0.0463  0.0128
66771W        W 9688  14.844  32.370  15.050  0.2268 -0.0072 -0.0306
66772W        W 9689  15.740  32.328  15.581  0.2099  0.1404  0.2107
66773W        W 9690  10.277  33.242  16.403 -0.0745 -0.1357  0.0585
66774W        W 9691  10.079  34.197  14.136  0.1920 -0.2572 -0.2527
66775W        W 9692  12.148  34.521  18.710 -0.1387  0.2407  0.0457
66776W        W 9693  11.906   0.590  17.031  0.1621 -0.1692 -0.0596
66777W        W 9694  13.087   0.396  16.213  0.4221  0.2033  0.3291
66778W        W 9695  12.126  31.219  15.923 -0.2744  0.4264 -0.0455
66779W        W 9696  11.119  33.246  17.454 -0.1990  0.5207  0.0400
66780W        W 9697  10.286   0.464  16.791  0.2822 -0.0047  0.1289
66781W        W 9698  11.525  30.352  15.445 -0.2829  0.1507 -0.2243
66782W        W 9699  12.236  33.951  17.938 -0.1323  0.0407 -0.0087
66783W        W 9700  13.061  33.886  17.617  0.0472  0.3450  0.0347
66784W        W 9701  11.608  32.528  14.549  0.2738  0.0689 -0.1698
66785W        W 9702  11.605  32.033  17.079  0.0309 -0.1025 -0.0388
66786W        W 9703  10.982  33.590  17.099 -0.1143 -0.1121 -0.2480
66787W        W 9704  13.777  33.135  17.459 -0.1138  0.1383 -0.1218
66788W        W 9705  11.827  34.146  16.069  0.0101  0.0547 -0.0489
66789W        W 9706  12.763  33.727  18.079 -0.0353 -0.0390 -0.0477
66790W        W 9707  10.952  33.926  16.363  0.1602 -0.0295 -0.2747
66791W        W 9708  14.490  32.263  15.874 -0.0737 -0.3056  0.1370
66792W        W 9709   9.672  33.388  17.438  0.1263  0.0886 -0.2250
66793W        W 9710  13.458  33.100  14.953  0.0595 -0.0789  0.0319
66794W        W 9711  11.868   0.597  18.096 -0.3222  0.1169  0.1087
66795W        W 9712  12.809  34.165  14.986 -0.1426  0.0280 -0.2331
66796W        W 9713  12.188  34.536  16.269 -0.0958  0.2902  0.2303
66797W        W 9714  12.026  33.720  16.467 -0.0859 -0.6095  0.2548
66798W        W 9715  11.746  34.429  14.555  0.2362 -0.0529  0.0316
66799W        W 9716  12.553   2.120  16.482 -0.0665 -0.3728  0.0469
66800W        W 9717  14.175  33.166  16.126  0.0305  0.2074 -0.1775
66801W        W 9718  11.871  32.786  15.693 -0.4758 -0.1475 -0.1522
66802W        W 9719  14.306  34.388  17.464  0.0023  0.1499  0.0453
66803W        W 9720  12.248  33.265  18.735  0.3191 -0.1211  0.0474
66804W        W 9721  14.942  34.563  20.264  0.0827  0.3992 -0.1312
66805W        W 9722  15.347   0.719  20.895 -0.0326 -0.0136 -0.0882
66806W        W 9723   8.956  33.681  20.862 -0.2657  0.2396 -0.1567
66807W        W 9724  11.860   0.805  21.224  0.1361 -0.0418  0.2238
66808W        W 9725  11.635   0.085  17.452 -0.1636  0.0008 -0.0344
66809W        W 9726  13.053   0.293  20.801 -0.2573 -0.0746  0.0391
66810W        W 9727   9.327  31.639  19.739 -0.0428 -0.1587  0.0179
66811W        W 9728  10.949  31.274  21.052 -0.2176 -0.1835  0.0631
66812W        W 9729  13.240  34.054  20.636  0.2157 -0.0584 -0.2649
66813W        W 9730  11.297  33.992  18.431 -0.0616  0.0435  0.1238
66814W        W 9731  11.787  33.530  21.645  0.4477 -0.1866 -0.1551
66815W        W 9732  12.071   0.371  19.568 -0.0931 -0.2008 -0.0047
66816W        W 9733  12.332  33.967  22.274  0.0608  0.2708 -0.2050
66817W        W 9734  12.628  32.125  22.248 -0.0477 -0.4043 -0.0801
66818W        W 9735  10.097  34.603  20.148 -0.0306  0.0800  0.1549
66819W        W 9736  12.172   0.426  20.996  0.0043  0.1469  0.1273
66820W        W 9737  10.067  32.433  20.704 -0.2350  0.0816  0.1902
66821W        W 9738  13.516  32.257  23.622 -0.2016 -0.0986 -0.2199
66822W        W 9739  13.157  33.530  21.310 -0.0673  0.0774 -0.3385
66823W        W 9740  12.203  33.719  24.086 -0.1276 -0.0695 -0.2374
66824W        W 9741  12.480   0.028  22.768  0.0729  0.1754  0.0717
66825W        W 9742  12.240  33.652  17.352 -0.0310 -0.0447  0.2520
66826W        W 9743  16.160  33.599  24.768  0.2121  0.0707 -0.1353
66827W        W 9744  14.677  32.955  19.669  0.0354 -0.0482 -0.3044
66828W        W 9745  12.717  34.437  20.044  0.1162  0.1787  0.0489
66829W        W 9746  13.679  32.889  20.025 -0.1111  0.0161 -0.1890
66830W        W 9747  12.403  33.455  17.731 -0.1297 -0.3341 -0.0950
66831W        W 9748  11.577  34.288  22.721 -0.3056 -0.0162 -0.1075
66832W        W 9749  13.171   0.777  22.527 -0.2845  0.4083  0.0459
66833W        W 9750  14.950  33.586  22.742  0.5344 -0.0252  0.0450
66834W        W 9751  12.381   0.555  21.407 -0.1411  0.1507  0.0461
66835W        W 9752  10.088  32.655  20.275  0.1114  0.1500 -0.0734
66836W        W 9753  13.003  33.549  23.603 -0.1092  0.1286  0.0850
66837W        W 9754  10.799  34.513  22.994  0.1080 -0.0161 -0.1675
66838W        W 9755  13.219  34.230  18.051 -0.0331  0.0431  0.1137
66839W        W 9756  14.642  32.787  21.836 -0.2638  0.0026  0.1923
66840W        W 9757  15.141  30.913  19.909 -0.3682 -0.0026 -0.0651
66841W        W 9758  13.749  32.926  22.123  0.2564  0.1052 -0.0316
66842W        W 9759  14.200  33.633  18.109  0.0884  0.3606 -0.2018
66843W        W 9760  13.355  34.193  22.248 -0.1889  0.2684 -0.1205
66844W        W 9761  11.275   0.027  22.741 -0.0185  0.4607  0.1318
66845W        W 9762  12.611  34.079  18.752  0.0979 -0.1230  0.1307
66846W        W 9763  11.423   0.171  23.557 -0.0170 -0.0478  0.2150
66847W        W 9764  12.532  32.499  19.557 -0.0403 -0.2865 -0.1631
66848W        W 9765  15.178  32.864  19.565  0.2063  0.1417  0.2348
66849W        W 9766   9.847   0.379  23.659  0.6124  0.3092  0.3259
66850W        W 9767  11.126  31.873  21.169 -0.3055  0.1754 -0.1010
66851W        W 9768  10.945  31.410  22.828  0.0175 -0.0336 -0.0981
66852W        W 9769  11.180  34.136  20.492  0.1218  0.1059 -0.0690
66853W        W 9770  13.977  32.414  23.590 -0.0043 -0.0909 -0.3161
66854W        W 9771  14.006  34.049  18.269  0.0949  0.3647  0.0992
66855W        W 9772  13.080  34.091  20.174  0.2451 -0.1749  0.0741
66856W        W 9773   9.567   0.071  19.695 -0.0539  0.1214 -0.4246
66857W        W 9774  12.159  32.840  20.840  0.1887  0.0880 -0.2573
66858W        W 9775  11.647   0.049  20.275 -0.0561  0.0300  0.0602
66859W        W 9776   9.887   0.293  17.624 -0.0521  0.2412 -0.1501
66860W        W 9777  13.055  34.551  20.508  0.2525 -0.2780  0.0344
66861W        W 9778  13.500  33.687  22.130  0.0096 -0.0724  0.1084
66862W        W 9779  12.132   1.089  21.811 -0.4020  0.0358 -0.1860
66863W        W 9780  11.495  31.712  20.845  0.1206 -0.0684  0.0287
66864W        W 9781   9.275   0.765  19.984 -0.2353  0.0677 -0.1525
66865W        W 9782  13.972  32.660  17.317  0.0820  0.0631 -0.1587
66866W        W 9783  10.188  34.466  23.158 -0.1722 -0.2623  0.3600
66867W        W 9784  13.843  32.203  23.003 -0.0350  0.3510 -0.0963
66868W        W 9785  11.379  34.502  19.150  0.3167  0.0951 -0.0282
66869W        W 9786  13.938  32.730  23.164  0.0299  0.1570  0.0033
66870W        W 9787  13.626  31.950  20.078  0.3535  0.2707  0.1165
66871W        W 9788  12.917  33.806  15.450 -0.0152 -0.1129 -0.1543
66872W        W 9789  14.558  34.133  18.041  0.0021 -0.1705  0.3119
66873W        W 9790  12.011  33.256  16.996  0.0199  0.0816  0.2891
66874W        W 9791  11.927  33.111  21.477  0.0816 -0.0019  0.0541
66875W        W 9792  11.651  34.122  20.367  0.1263  0.1936 -0.0883
66876W        W 9793  12.159  32.913  19.613 -0.0187 -0.2075 -0.1239
66877W        W 9794  12.820  32.509  19.060  0.2259 -0.0282  0.1147
66878W        W 9795  14.579  33.705  19.929  0.2883  0.0442  0.3082
66879W        W 9796  14.239  33.776  23.388  0.1236 -0.2035 -0.2555
66880W        W 9797  14.153  33.753  24.198  0.0461  0.0056 -0.0203
66881W        W 9798  14.155  33.204  19.844 -0.3355  0.0435 -0.2252
66882W        W 9799  12.375  33.898  23.060 -0.0562  0.2350  0.0597
66883W        W 9800  10.864  33.628  19.824  0.1074 -0.1599 -0.2927
66884W        W 9801  11.820  33.852  23.805  0.0580 -0.0142 -0.3145
66885W        W 9802  12.988  31.984  24.011  0.3571  0.1837  0.1337
66886W        W 9803  12.267  33.352  20.854 -0.1497  0.1751 -0.1352
66887W        W 9804  11.832  32.169  19.005  0.2371 -0.1773  0.1377
66888W        W 9805  13.100  32.478  20.309  0.3371  0.0859  0.2051
66889W        W 9806  12.234  33.498  19.749  0.0184 -0.0645  0.0394
66890W        W 9807   9.399  33.533  18.384  0.0480 -0.4110  0.3500
66891W        W 9808  15.855  32.999  17.988  0.1648  0.0980 -0.0685
66892W        W 9809  10.488  33.477  21.709  0.3544 -0.1177 -0.0802
66893W        W 9810  11.695  33.137  19.662  0.0133  0.0978 -0.0217
66894W        W 9811  11.587  34.035  22.195  0.2228  0.1724  0.1038
66895W        W 9812  12.576  33.847  19.226 -0.0951  0.1922  0.0013
66896W        W 9813  14.374  34.005  21.945  0.0132 -0.2043 -0.1210
66897W        W 9814  11.315  32.498  17.243  0.0441 -0.2830  0.2514
66898W        W 9815  12.741  33.464  22.155  0.0347 -0.0324  0.2470
66899W        W 9816   9.610  34.523  18.422 -0.1615 -0.1656  0.2266
66900W        W 9817  10.024  33.568  19.356 -0.3035 -0.2072  0.2604
66901W        W 9818  10.597  32.392  22.082  0.0334 -0.0200  0.1067
66902W        W 9819  13.304  34.468  19.007  0.0909 -0.0650 -0.2343
66903W        W 9820  10.104   0.112  19.680 -0.0673 -0.0757  0.3023
66904W        W 9821  12.941  33.832  20.975 -0.0702 -0.0959  0.0974
66905W        W 9822  13.144  33.156  22.923  0.4202  0.1182 -0.0259
66906W        W 9823  14.648  33.574  22.003  0.1016  0.0485 -0.3132
66907W        W 9824  13.151   0.362  22.257 -0.2834  0.2558  0.1365
66908W        W 9825  12.632  34.129  21.300  0.0213  0.3231 -0.0616
66909W        W 9826  15.943  32.660  19.103  0.0015  0.2614 -0.0327
66910W        W 9827  11.930  32.214  21.492 -0.1357  0.1639  0.0503
66911W        W 9828  14.547  32.287  23.495 -0.0630 -0.2138 -0.1911
66912W        W 9829  13.155  33.684  19.726 -0.0364 -0.0355 -0.3265
66913W        W 9830  13.202  32.554  22.908  0.0215  0.2992 -0.0259
66914W        W 9831  13.295  33.663  23.052  0.3123  0.0816  0.1723
66915W        W 9832  10.500  32.684  20.617  0.0322 -0.0493 -0.0191
66916W        W 9833  11.435  34.277  24.334 -0.3325 -0.0113 -0.2149
66917W        W 9834  12.600  32.821  18.369 -0.1649  0.2273 -0.0548
66918W        W 9835  12.177  33.356  19.288  0.0967 -0.0292  0.0395
66919W        W 9836  11.723   0.841  21.931  0.1604 -0.1723  0.2213
66920W        W 9837  16.185  31.994  19.869  0.1344  0.2501  0.2031
66921W        W 9838  11.315  33.892  21.332 -0.0981  0.0202  0.1124
66922W        W 9839  14.697   0.051  20.714 -0.1435 -0.1555 -0.2308
66923W        W 9840  13.069  34.107  21.871  0.3652  0.0345  0.0843
66924W        W 9841  13.851  33.116  21.655  0.0570  0.2124 -0.2016
66925W        W 9842  13.459  34.362  23.781  0.0169 -0.0062  0.2532
66926W        W 9843  13.806  34.543  21.141 -0.2619  0.2888 -0.0429
66927W        W 9844  12.137  34.131  20.427  0.1978  0.3358 -0.1424
66928W        W 9845  10.585  33.269  22.978  0.1969 -0.2225  0.1365
66929W        W 9846  15.051   0.190  19.858 -0.1482 -0.2087  0.1033
66930W        W 9847  14.840  32.831  22.344  0.1388 -0.0453 -0.1117
66931W        W 9848  13.392   1.800  21.326 -0.3343 -0.1165 -0.0798
66932W        W 9849  14.395  34.341  20.493 -0.1253  0.1079 -0.3862
66933W        W 9850  12.543  32.828  22.916 -0.1563  0.2538  0.1538
66934W        W 9851  13.963  32.967  22.731 -0.0743  0.1095 -0.0117
66935W        W 9852  12.650  33.518  21.206 -0.1332 -0.0631  0.0550
66936W        W 9853  13.796  31.790  21.608  0.2212 -0.1374 -0.3028
66937W        W 9854  13.535  32.994  18.591 -0.1024 -0.0816  0.2049
66938W        W 9855  12.426  34.451  22.246 -0.0862 -0.1485 -0.1711
66939W        W 9856  11.392  32.278  19.206 -0.0522  0.3238 -0.2594
66940W        W 9857  13.230  32.704  17.816  0.1773 -0.0417 -0.0634
66941W        W 9858  12.627  34.078  17.601  0.0022  0.2138 -0.1844
66942W        W 9859  14.934  34.118  19.326 -0.1016 -0.1959  0.1846
66943W        W 9860  14.478  32.039  22.592 -0.0675  0.1224  0.1363
66944W        W 9861  12.427  33.074  21.288 -0.4089 -0.0247 -0.2368
66945W        W 9862  13.875  33.628  20.771  0.0510  0.1628  0.0408
66946W        W 9863  12.206  33.558  21.391  0.0568  0.1065  0.2061
66947W        W 9864  14.614  34.163  22.707  0.0675  0.1951  0.4327
66948W        W 9865  11.268  33.293  21.901 -0.0155  0.1889 -0.1175
66949W        W 9866   8.690  33.602  25.737 -0.3132 -0.3091  0.0332
66950W        W 9867  11.643  32.929  20.173  0.2848 -0.2452 -0.0253
66951W        W 9868  11.872  33.631  22.135 -0.0957  0.1645  0.1101
66952W        W 9869  11.839  34.235  19.154  0.0654  0.2127  0.0316
66953W        W 9870  14.150   0.627  20.683 -0.0386 -0.1747  0.0539
66954W        W 9871  14.961  33.022  21.478 -0.2616 -0.0674 -0.1978
66955W        W 9872  12.459   0.528  20.486  0.1233  0.0612  0.1949
66956W        W 9873  13.010  34.510  17.699 -0.0236  0.1480  0.2435
66957W        W 9874  10.814  34.545  22.444 -0.1529 -0.1584  0.2239
66958W        W 9875  16.449  31.182  23.064  0.0626 -0.0566 -0.2022
66959W        W 9876  10.019  33.117  19.966 -0.0322 -0.3695 -0.1224
66960W        W 9877  10.892   0.697  22.427 -0.2816 -0.2558 -0.0618
66961W        W 9878  16.023  32.040  20.353  0.1556 -0.0239 -0.1063
66962W        W 9879  12.962  34.566  21.476  0.0033  0.2436 -0.0786
66963W        W 9880   8.685  34.015  19.600 -0.1611  0.1898 -0.0842
66964W        W 9881  14.919  33.287  20.474  0.1192 -0.3183 -0.0730
66965W        W 9882  11.860  33.906  22.701  0.2464  0.2944  0.4190
66966W        W 9883  14.676  31.654  20.860  0.2473  0.0035  0.0927
66967W        W 9884  11.650  32.811  20.709  0.0090 -0.1501 -0.0168
66968W        W 9885  12.744  34.136  20.612  0.1341 -0.1219  0.0561
66969W        W 9886  10.132   1.049  24.101 -0.2111  0.1795 -0.0733
66970W        W 9887  12.036   0.446  18.619 -0.1216 -0.0655  0.2133
66971W        W 9888  13.513  34.662  20.725 -0.2732 -0.1148 -0.0093
66972W        W 9889  11.190   1.454  17.515 -0.0758  0.3808  0.1133
66973W        W 9890   9.496  32.519  20.102 -0.2166 -0.1652  0.0121
66974W        W 9891  12.721  31.790  19.902 -0.4487  0.0538 -0.2308
66975W        W 9892  11.809  33.812  21.191 -0.1260 -0.1584 -0.1071
66976W        W 9893  11.490  32.816  23.736 -0.0232  0.1368  0.0973
66977W        W 9894  12.267  32.111  19.753  0.1505 -0.0489  0.0422
66978W        W 9895  13.622   0.539  20.586 -0.0570  0.0318  0.2627
66979W        W 9896  13.750   0.110  19.893 -0.0864 -0.2425  0.0456
66980W        W 9897  12.023  34.671  21.228  0.0421 -0.2533  0.0360
66981W        W 9898  12.910  34.195  19.110  0.2840 -0.2189  0.1190
66982W        W 9899  12.676  33.774  21.674 -0.0557  0.0126  0.3894
66983W        W 9900  12.637  33.020  20.871  0.0496 -0.1242  0.1597
66984W        W 9901  14.240  32.388  21.217 -0.2483 -0.0787 -0.4115
66985W        W 9902  14.150  32.533  22.579 -0.1822 -0.2090  0.0229
66986W        W 9903  13.845  34.633  19.070 -0.2161 -0.0515  0.0277
66987W        W 9904  12.182  33.835  21.831 -0.0030  0.0781  0.1173
66988W        W 9905  14.035  31.616  20.665 -0.1038 -0.2537 -0.1184
66989W        W 9906  14.760  32.800  19.171 -0.0297 -0.0706 -0.1087
66990W        W 9907  12.956  34.645  21.985 -0.0429 -0.2567  0.0794
66991W        W 9908  11.545   0.569  18.778  0.2288  0.1401  0.0478
66992W        W 9909  13.011  33.292  24.066 -0.1387 -0.0141 -0.2207
66993W        W 9910  12.332  32.651  22.348  0.1441  0.3212 -0.0976
66994W        W 9911  10.052  33.477  20.810  0.1159 -0.0704  0.0134
66995W        W 9912   9.660   0.373  18.188  0.0715 -0.0022  0.0363
66996W        W 9913  10.936  32.904  20.563 -0.1540 -0.2260 -0.2552
66997W        W 9914  11.214  32.781  20.933  0.3012  0.0243 -0.0088
66998W        W 9915  12.652  34.246  19.575  0.0699  0.0640  0.0564
66999W        W 9916  12.976  32.530  22.017  0.2216  0.1478 -0.0785
67000W        W 9917  13.986  31.253  22.993 -0.2215  0.2552 -0.5475
67001W        W 9918   9.226  31.802  20.557  0.1335 -0.0260  0.0578
67002W        W 9919  14.033   0.370  20.251  0.0371  0.0029  0.0558
67003W        W 9920  11.427  33.277  20.653  0.2416  0.0542 -0.0885
67004W        W 9921  14.674  33.868  20.392 -0.3311 -0.3763 -0.0218
67005W        W 9922  13.331  33.234  19.813 -0.0930 -0.0038 -0.0353
67006W        W 9923  11.341  32.340  22.469  0.0767 -0.3385 -0.0966
67007W        W 9924  13.571  33.970  19.867  0.1361 -0.0679 -0.0543
67008W        W 9925  13.508  32.419  19.891 -0.2133  0.0094 -0.0051
67009W        W 9926  11.758  34.201  19.907  0.0537 -0.0374  0.1563
67010W        W 9927  14.934  34.214  18.362 -0.3979  0.1188  0.1373
67011W        W 9928  14.123   0.893  21.684 -0.1611 -0.0681  0.1866
67012W        W 9929  11.583   0.257  19.341 -0.1606  0.3296  0.0401
67013W        W 9930  11.244  34.021  18.974 -0.1350 -0.0138 -0.0429
67014W        W 9931  11.132  33.266  22.393 -0.2422  0.2808  0.0829
67015W        W 9932  10.710  34.129  18.316  0.0171  0.2128  0.1434
67016W        W 9933  12.787   0.289  20.259 -0.2712 -0.3333 -0.0203
67017W        W 9934  13.997   0.055  22.614  0.0486 -0.2686  0.1278
67018W        W 9935  12.553  34.316  21.758  0.0231 -0.2883 -0.0158
67019W        W 9936  11.663  33.791  18.788  0.3201 -0.0413  0.0187
67020W        W 9937  12.063  32.996  24.549 -0.2096  0.1036 -0.0499
67021W        W 9938  14.390  32.719  20.850 -0.1651  0.3276 -0.0686
67022W        W 9939  16.210  34.353  25.360 -0.0433  0.0752 -0.1029
67023W        W 9940   9.272   0.227  23.567  0.2101  0.1540  0.1766
67024W        W 9941  11.728  31.727  25.698 -0.0610 -0.0610  0.2469
67025W        W 9942  12.694  34.182  23.303 -0.1651  0.2197  0.2278
67026W        W 9943  11.695  34.162  26.939  0.0792  0.0108 -0.2551
67027W        W 9944  11.954  32.102  24.706  0.0407  0.0815 -0.4653
67028W        W 9945  11.454  32.051  24.717  0.1098 -0.3907 -0.0512
67029W        W 9946  12.724  33.695  26.433  0.0164 -0.4596  0.1791
67030W        W 9947  11.029   1.649  23.728  0.2254 -0.0546  0.0629
67031W        W 9948  12.530  34.530  25.875 -0.3589  0.0364 -0.2898
67032W        W 9949  12.016  32.482  23.540  0.0535  0.1344 -0.1838
67033W        W 9950  10.275  33.584  26.184 -0.2247  0.3108 -0.0469
67034W        W 9951  12.644  33.131  25.470 -0.0969  0.2322  0.0089
67035W        W 9952  12.693  33.733  24.180  0.1661  0.2369 -0.0241
67036W        W 9953  11.184   0.281  27.390  0.2127 -0.4017  0.2303
67037W        W 9954  11.494  33.380  27.590 -0.0824 -0.0624  0.3639
67038W        W 9955  14.250  33.537  24.652  0.2395 -0.1338 -0.2100
67039W        W 9956  12.150  32.367  24.311 -0.0080 -0.1423 -0.2595
67040W        W 9957  13.824  34.190  25.629 -0.1821  0.2485 -0.1225
67041W        W 9958  12.398  32.947  24.164  0.0937  0.0205  0.0285
67042W        W 9959  13.192  34.424  24.997  0.2958  0.0172  0.0623
67043W        W 9960  12.960  33.586  28.826  0.0341  0.2016 -0.0503
67044W        W 9961  13.430  33.781  23.892  0.3283 -0.1304 -0.0161
67045W        W 9962  11.549  32.787  22.915 -0.1876 -0.4052  0.1992
67046W        W 9963  14.034  34.624  25.437  0.1965 -0.1571 -0.0612
67047W        W 9964  13.247  30.599  23.273  0.2475  0.0436  0.0405
67048W        W 9965  11.996  33.387  28.698 -0.0615  0.0083  0.2491
67049W        W 9966  13.855  34.022  23.888 -0.1511  0.1653  0.0471
67050W        W 9967  11.847  32.672  25.348  0.1042 -0.0526  0.2647
67051W        W 9968  12.379  33.806  24.698 -0.0081 -0.0871  0.1160
67052W        W 9969  10.047  34.435  25.659  0.0128 -0.0743  0.2072
67053W        W 9970   9.639   1.511  27.499 -0.5429 -0.2438  0.0995
67054W        W 9971  11.692  34.327  26.452 -0.0185  0.5712 -0.1733
67055W        W 9972  12.162  31.690  22.359  0.2338 -0.1847 -0.2916
67056W        W 9973  13.832  32.368  24.227 -0.0696  0.2525 -0.0374
67057W        W 9974  12.308  32.350  26.520 -0.0328 -0.0925  0.0384
67058W        W 9975  13.607  32.494  26.856 -0.2506  0.0232 -0.2162
67059W        W 9976  16.239  31.995  24.014 -0.0249 -0.0317 -0.3305
67060W        W 9977  12.304  33.143  26.955 -0.0414  0.0428  0.1689
67061W        W 9978  10.489  34.229  25.661  0.1845  0.2455 -0.4205
67062W        W 9979  11.592  33.582  24.209  0.1772 -0.1158 -0.1320
67063W        W 9980  10.933  34.057  25.540  0.0810 -0.0744  0.2576
67064W        W 9981  12.306  32.487  26.060  0.0714 -0.1844  0.1698
67065W        W 9982  15.258  33.604  23.349  0.2519 -0.1844 -0.4796
67066W        W 9983  10.039  33.851  23.856  0.1055 -0.3996  0.0389
67067W        W 9984  11.271  32.763  25.754  0.1273  0.1479 -0.0617
67068W        W 9985  10.733  34.539  27.698  0.1207 -0.0124  0.1806
67069W        W 9986  12.157  33.993  26.704 -0.1957  0.1372  0.1969
67070W        W 9987  13.414   0.213  25.078  0.4592 -0.4251 -0.0512
67071W        W 9988  12.387  30.982  23.246  0.3039 -0.0995  0.1589
67072W        W 9989  16.813  32.910  26.101  0.1211  0.0473  0.3337
67073W        W 9990  12.008  34.301  22.016  0.2076  0.0920  0.4597
67074W        W 9991  14.264  31.867  26.388 -0.0692 -0.1482  0.3544
67075W        W 9992  10.827  34.158  26.038 -0.0676  0.1063 -0.0281
67076W        W 9993   9.821  33.005  22.883  0.1424 -0.1561  0.1663
67077W        W 9994  10.790  33.308  24.468 -0.0833  0.2693 -0.1572
67078W        W 9995  12.223  32.294  25.162  0.1955 -0.0983  0.4137
67079W        W 9996  13.638  31.932  25.216  0.2299 -0.0617  0.0899
67080W        W 9997  10.186  33.483  22.697 -0.1912 -0.1008  0.3043
67081W        W 9998  10.383  34.147  24.411 -0.4361 -0.1500  0.1244
67082W        W 9999  15.917  34.503  26.517  0.0934 -0.0563 -0.1722
67083W        W10000   9.542  34.511  27.313  0.1294 -0.0230  0.0209
67084W        W10001  12.080  34.423  27.152  0.3327 -0.0386 -0.0525
67085W        W10002  11.593  34.087  23.244  0.3652  0.3199 -0.2916
67086W        W10003  14.076  32.231  25.136  0.2462 -0.1725  0.0116
67087W        W10004  13.728  33.886  24.352 -0.1495 -0.1222  0.0366
67088W        W10005  13.268  32.858  23.870  0.2544  0.0519 -0.0823
67089W        W10006  12.943  32.436  23.837  0.2540  0.1959 -0.0512
67090W        W10007  13.771  32.997  24.900 -0.2733  0.0804  0.1482
67091W        W10008  12.039  32.305  25.671 -0.1683 -0.2311  0.2520
67092W        W10009  12.448  32.621  23.337 -0.1635 -0.0445  0.0540
67093W        W10010  11.051  33.634  25.834 -0.0742 -0.0962 -0.2342
67094W        W10011  12.748  34.329  27.688 -0.2090  0.2052  0.0409
67095W        W10012  12.432  32.013  26.036  0.0320 -0.2613  0.0976
67096W        W10013  11.726  33.618  26.848  0.0387 -0.1022 -0.2298
67097W        W10014  14.735   0.848  26.446  0.1161 -0.0541  0.3808
67098W        W10015  12.434  32.752  25.117  0.2182 -0.3137 -0.1725
67099W        W10016  13.247  32.636  25.716  0.0176  0.0748  0.3029
67100W        W10017  11.141  34.348  23.327  0.0969  0.2946  0.0732
67101W        W10018  13.658  32.574  26.011 -0.0092  0.1484 -0.2357
67102W        W10019  12.695  33.744  28.233  0.2378  0.0718  0.0955
67103W        W10020  12.746  32.952  23.693  0.0619 -0.0224 -0.1423
67104W        W10021  10.815  31.300  24.033 -0.2559  0.0395  0.2216
67105W        W10022  11.765  32.648  25.901 -0.1357 -0.2851  0.0048
67106W        W10023  11.129   0.540  21.922  0.0078  0.0138 -0.1095
67107W        W10024  10.916  33.720  24.682 -0.1491 -0.2417 -0.2476
67108W        W10025  11.944  31.916  23.664  0.1856  0.0341  0.2557
67109W        W10026  10.398  32.661  24.634 -0.1450  0.2380 -0.1318
67110W        W10027  10.990  33.349  23.455 -0.3199 -0.1450 -0.5018
67111W        W10028  12.231  33.818  25.188 -0.1303 -0.0049 -0.0658
67112W        W10029  12.391  34.596  23.908 -0.1577  0.3460  0.1732
67113W        W10030  11.222  34.354  27.436 -0.1322 -0.3000 -0.0635
67114W        W10031  11.313   0.552  23.909  0.1636 -0.0736 -0.1337
67115W        W10032  14.085  33.488  27.556 -0.0187 -0.0734  0.2519
67116W        W10033  11.389  33.900  24.582  0.3189 -0.2339 -0.1380
67117W        W10034  11.940  34.482  24.475  0.0910 -0.1609 -0.0468
67118W        W10035  11.501   0.161  26.348  0.0848  0.2458  0.1704
67119W        W10036  14.559  34.160  25.475  0.2906  0.3724  0.0637
67120W        W10037  11.406  33.737  23.516  0.1801 -0.0462  0.3823
67121W        W10038  13.465  33.663  25.292  0.2502 -0.0392  0.1387
67122W        W10039  12.475  33.613  26.993 -0.1337  0.1482 -0.3191
67123W        W10040  10.392  33.738  23.572 -0.1295 -0.1006 -0.0492
67124W        W10041  13.470   0.081  27.239  0.0859 -0.1654 -0.0657
67125W        W10042  13.042  31.518  27.245 -0.0957  0.4142 -0.2087
67126W        W10043  13.971  32.832  24.289  0.0177  0.4020 -0.1884
67127W        W10044  12.877  32.703  25.360  0.3786 -0.1431 -0.1025
67128W        W10045  15.468  34.099  28.570 -0.1201  0.3391  0.1211
67129W        W10046  13.788  33.673  22.959 -0.1294 -0.3613  0.0501
67130W        W10047  12.948  33.519  27.871 -0.2410  0.0981 -0.1368
67131W        W10048  11.109  33.719  24.227 -0.1325 -0.4863  0.1147
67132W        W10049  10.546   0.256  27.471  0.2805 -0.1647 -0.3031
67133W        W10050  12.931   1.444  25.975  0.3163 -0.2239  0.0918
67134W        W10051  15.233  34.414  23.851 -0.1195  0.0225  0.0994
67135W        W10052  10.424  31.970  22.375 -0.0733 -0.0674  0.2199
67136W        W10053  12.986  33.944  24.557  0.1025 -0.1848 -0.1586
67137W        W10054  13.960  34.117  26.215 -0.1189 -0.0984 -0.1714
67138W        W10055  12.843   0.850  26.138  0.1955 -0.0191 -0.1814
67139W        W10056  14.487  34.230  26.281 -0.1075  0.3036  0.0119
67140W        W10057  10.121  31.611  22.589  0.0067  0.2115 -0.1961
67141W        W10058  11.990  33.522  24.609 -0.0913 -0.1033 -0.2292
67142W        W10059  14.094  31.496  26.068  0.2878 -0.0103 -0.0687
67143W        W10060  12.500  33.968  25.801  0.1233  0.1946  0.1491
67144W        W10061  11.361  33.962  26.150 -0.1432 -0.0118 -0.2766
67145W        W10062  11.869  34.669  28.201  0.2534  0.2157  0.3572
67146W        W10063  14.356  34.417  21.558  0.1917 -0.1558  0.3161
67147W        W10064  13.255  34.069  25.480 -0.1282 -0.1929  0.0589
67148W        W10065  13.113  33.047  26.226 -0.3826 -0.2737 -0.1051
67149W        W10066  13.301  32.508  22.385 -0.1712 -0.0533 -0.2728
67150W        W10067  12.494  34.519  25.249  0.2717 -0.4063  0.2494
67151W        W10068  13.237   0.043  26.756 -0.0487 -0.2340  0.2562
67152W        W10069  13.811  33.093  23.506 -0.1790 -0.2278 -0.2366
67153W        W10070  12.757  34.154  26.243 -0.0543  0.0014  0.0254
67154W        W10071  14.977  32.410  26.878 -0.0138  0.0601  0.4013
67155W        W10072  11.397  33.026  23.327 -0.1932 -0.2869  0.5439
67156W        W10073  10.622  33.850  24.061 -0.1433  0.2773 -0.2130
67157W        W10074  13.797  34.177  23.456  0.3201  0.0695 -0.1002
67158W        W10075  12.415  32.526  23.871 -0.1411  0.1570 -0.0312
67159W        W10076  14.552  33.732  27.613 -0.1742  0.0270  0.0840
67160W        W10077  13.067  32.701  24.725  0.1757 -0.0761 -0.1020
67161W        W10078  11.418  33.285  25.763 -0.0686 -0.0088  0.0413
67162W        W10079  13.068  32.216  25.520  0.0930 -0.0905  0.6079
67163W        W10080  13.901  33.285  25.422 -0.0754  0.0554 -0.0231
67164W        W10081  15.097   2.129  26.057  0.1451 -0.1548 -0.3728
67165W        W10082  10.455  34.566  22.073 -0.2628  0.0378 -0.0193
67166W        W10083   9.244   0.831  25.695  0.0803 -0.0068 -0.2093
67167W        W10084  10.912  32.064  23.398 -0.1879  0.5184  0.1112
67168W        W10085  12.961  34.539  23.579  0.0238  0.0885  0.0802
67169W        W10086  13.364  32.624  25.180  0.1018  0.1731  0.3322
67170W        W10087  14.817  32.718  23.732  0.0906 -0.3578 -0.0624
67171W        W10088  14.940  32.580  25.972 -0.4098 -0.2520 -0.1125
67172W        W10089  11.346  34.466  25.983  0.0843  0.1445  0.0881
67173W        W10090  11.633  32.389  22.012  0.0772  0.1625 -0.2278
67174W        W10091  12.777  34.329  26.711 -0.0578  0.1975 -0.0195
67175W        W10092  13.994  32.690  26.375  0.0004 -0.2884  0.0460
67176W        W10093  10.291  34.222  23.603 -0.2477 -0.3134  0.0303
67177W        W10094  14.034  33.773  25.220 -0.0799 -0.0305 -0.2709
67178W        W10095  13.774  32.231  25.665  0.2980 -0.1234 -0.2645
67179W        W10096  10.646  32.941  23.346 -0.1942 -0.0439  0.0049
67180W        W10097  11.644  33.132  24.348  0.1560 -0.1040 -0.0908
67181W        W10098  16.066   0.073  24.666  0.1815  0.0127  0.1617
67182W        W10099  10.878  34.578  25.755 -0.0781 -0.3956  0.2053
67183W        W10100  11.791  33.777  26.360  0.2728  0.2075  0.1106
67184W        W10101  13.060  32.265  24.557 -0.2068  0.0799  0.2899
67185W        W10102  14.157  33.569  25.750 -0.2745  0.2685 -0.2135
67186W        W10103  10.853  33.139  27.157 -0.2039  0.0582 -0.2250
67187W        W10104  12.073  34.173  23.537  0.1778  0.3174 -0.1781
67188W        W10105  14.757   0.216  26.959 -0.0648  0.0309  0.2327
67189W        W10106  13.846  34.496  23.067  0.2149  0.2682 -0.0180
67190W        W10107  11.277  32.724  24.194 -0.2737 -0.1684  0.0731
67191W        W10108  12.691  31.771  24.290 -0.0380  0.0913  0.2496
67192W        W10109  12.205  34.261  24.902 -0.2383  0.1468 -0.1795
67193W        W10110  13.470  33.154  27.148  0.2885  0.0093  0.3497
67194W        W10111  10.825  34.157  22.000 -0.3603 -0.3457 -0.0837
67195W        W10112  14.305   0.841  24.943 -0.1936  0.0780 -0.2736
67196W        W10113  13.121  32.257  26.127  0.0170  0.0441 -0.2383
67197W        W10114  10.197   0.471  29.329  0.4630  0.0624 -0.2044
67198W        W10115   9.440  33.196  23.322  0.0142 -0.3730 -0.0177
67199W        W10116  11.948  33.282  24.019  0.0387  0.1635  0.0315
67200W        W10117  13.679  33.749  25.759 -0.3225 -0.0200 -0.2083
67201W        W10118  12.899  33.951  27.018  0.3370  0.1410 -0.0512
67202W        W10119  13.293  31.738  27.758  0.0428  0.2405  0.0508
67203W        W10120  12.056  34.368  23.052 -0.2889 -0.0748 -0.1082
67204W        W10121  11.421  32.895  26.263 -0.1939 -0.1717  0.1075
67205W        W10122  13.609  33.026  26.260  0.3531  0.0097 -0.0083
67206W        W10123  12.916  32.559  26.838 -0.2094 -0.3051  0.0705
67207W        W10124  12.291  33.606  26.043 -0.1368  0.3440  0.1819
67208W        W10125   8.348   1.533  22.332 -0.0182 -0.0720 -0.1631
67209W        W10126  12.022  33.408  27.272  0.1692  0.0658  0.0608
67210W        W10127  10.299  34.472  27.375 -0.1490  0.1140 -0.2706
67211W        W10128   8.395   1.044  22.225  0.0453 -0.1873  0.2093
67212W        W10129  10.258  33.593  25.077  0.1048  0.2120  0.1194
67213W        W10130  12.605  30.626  27.154 -0.4321 -0.0895 -0.1418
67214W        W10131  10.582  33.768  25.816  0.0498  0.0652 -0.0098
67215W        W10132  10.466  34.589  26.055  0.2313 -0.0238 -0.0584
67216W        W10133  12.964   0.269  28.140  0.2094  0.1852  0.1299
67217W        W10134  12.312  33.031  26.052  0.0875 -0.2340 -0.0472
67218W        W10135   9.273  34.344  23.252 -0.1921 -0.3698  0.1021
67219W        W10136  11.753  33.675  25.780  0.0455 -0.2993  0.0617
67220W        W10137  11.981  32.590  24.861 -0.0394 -0.3139 -0.2557
67221W        W10138  13.919  33.471  26.978  0.4287  0.4775  0.0288
67222W        W10139  13.040  33.724  24.982 -0.0453 -0.1252 -0.2534
67223W        W10140  12.720   0.748  27.642  0.1676  0.0191  0.3276
67224W        W10141  12.121  32.219  22.163 -0.1981 -0.1020  0.2198
67225W        W10142  13.222  33.497  25.662  0.0805 -0.0898 -0.0734
67226W        W10143  11.721   0.031  26.780  0.1094  0.2473 -0.0590
67227W        W10144  11.440  31.932  23.752 -0.2914  0.0194 -0.5607
67228W        W10145  13.432  34.215  26.948 -0.0758  0.0058 -0.2215
67229W        W10146  14.068  33.406  23.860 -0.0498 -0.1018 -0.1619
67230W        W10147  15.279   0.410  22.150  0.2088  0.2829 -0.1808
67231W        W10148   9.937  32.560  23.095  0.2036  0.3525  0.1852
67232W        W10149  12.308  33.592  23.485  0.3507  0.1696 -0.1201
67233W        W10150  16.278   1.041  24.930  0.2650  0.0644 -0.2575
67234W        W10151  10.889  32.446  26.132 -0.0669  0.1054  0.0904
67235W        W10152  11.727  32.987  24.952  0.0879 -0.1790 -0.0305
67236W        W10153  11.618  33.313  22.787  0.1618 -0.1405  0.1169
67237W        W10154  11.704  32.923  30.826  0.1294 -0.1541 -0.0769
67238W        W10155  13.911  34.170  28.224 -0.2445 -0.3430  0.2937
67239W        W10156  15.042   0.369  26.394 -0.3463  0.3061  0.0816
67240W        W10157  11.394  32.139  29.452 -0.0960 -0.1273  0.1927
67241W        W10158  10.445  34.634  29.670  0.0788 -0.3429  0.1143
67242W        W10159  13.872  34.062  27.064 -0.2221  0.0469  0.0856
67243W        W10160  11.096  34.377  29.887  0.0684 -0.1768 -0.1518
67244W        W10161  13.904  31.953  27.952  0.0058  0.1054 -0.1231
67245W        W10162   8.709  32.614  31.345 -0.2314  0.0240  0.3021
67246W        W10163  12.429   0.176  28.387 -0.2076  0.2485  0.0801
67247W        W10164  10.287   1.782  26.014 -0.3155 -0.3881 -0.0919
67248W        W10165  12.644  33.131  29.919 -0.4338  0.0311 -0.1146
67249W        W10166  12.610  33.022  28.012  0.0880  0.3156 -0.1830
67250W        W10167  11.521  32.839  29.814 -0.0047 -0.1233 -0.2152
67251W        W10168  13.861  31.595  30.198  0.0400  0.2610  0.2393
67252W        W10169  10.789  33.339  29.154  0.0843 -0.1479  0.3034
67253W        W10170  12.162   0.979  28.577 -0.0094 -0.1924  0.3305
67254W        W10171  11.896  32.077  30.313 -0.0466  0.0829 -0.0200
67255W        W10172  12.117  32.643  30.964 -0.0260  0.2450 -0.1019
67256W        W10173  14.072   1.104  28.139  0.0179 -0.1151  0.0468
67257W        W10174  13.802  34.138  31.513  0.0228  0.0898 -0.4479
67258W        W10175  14.099  34.534  29.014  0.4214  0.2551  0.0324
67259W        W10176  13.982   0.219  28.611  0.0495  0.0022 -0.3188
67260W        W10177  13.712  34.528  30.156  0.1912 -0.0692 -0.1736
67261W        W10178  12.958   1.466  26.539  0.0010  0.2204  0.2616
67262W        W10179  11.889  32.882  27.099  0.0895  0.2104 -0.2532
67263W        W10180  14.455   0.145  28.682 -0.1424 -0.0716 -0.0163
67264W        W10181  13.256  30.918  29.086 -0.2193  0.2698  0.0122
67265W        W10182  12.695  32.296  28.446 -0.0613  0.0242  0.2266
67266W        W10183  11.709  33.081  30.315 -0.1792  0.0081  0.2463
67267W        W10184  12.876  32.961  28.897 -0.0275  0.0566  0.0668
67268W        W10185  11.271  32.789  31.042  0.2360 -0.4405 -0.2448
67269W        W10186  12.581   0.255  27.842  0.0877  0.0884  0.0528
67270W        W10187  10.494   1.412  29.556  0.2199  0.3062  0.1759
67271W        W10188  10.877   0.047  30.725 -0.0330  0.0774  0.3127
67272W        W10189  12.290  34.304  26.279 -0.1504  0.1615 -0.0144
67273W        W10190  13.261  33.906  29.116 -0.0196 -0.1025 -0.1095
67274W        W10191  11.931  33.759  28.127 -0.0766 -0.1479  0.2728
67275W        W10192  12.732  33.625  30.617  0.1262 -0.0160 -0.0566
67276W        W10193  12.963  33.065  27.550  0.0489 -0.1986 -0.0350
67277W        W10194  13.680  32.247  31.075  0.0654 -0.1789 -0.2215
67278W        W10195  12.479  33.982  30.396 -0.0903  0.0027 -0.1276
67279W        W10196  13.944   0.832  26.935  0.0007  0.2344  0.3417
67280W        W10197  11.022  31.216  28.437  0.0652 -0.1373 -0.3556
67281W        W10198  12.446  31.870  28.250 -0.0221  0.2000  0.0711
67282W        W10199  15.142  34.664  29.120  0.0936  0.2065  0.3853
67283W        W10200   9.916  34.435  29.781 -0.0025  0.1393  0.2205
67284W        W10201  10.902  34.451  28.737 -0.1109  0.0227  0.0840
67285W        W10202  10.530  32.664  30.451 -0.1098 -0.1188 -0.1175
67286W        W10203  10.346  32.453  27.567 -0.0729 -0.2490  0.1155
67287W        W10204  14.602   0.263  29.898  0.0360 -0.0712 -0.3996
67288W        W10205  11.385   0.518  28.700  0.0021 -0.1683 -0.3223
67289W        W10206  11.134  31.843  30.310 -0.2376  0.1663  0.1882
67290W        W10207  10.664   0.638  28.126 -0.5626 -0.1762 -0.0052
67291W        W10208  11.848  32.568  30.412  0.1911 -0.1364  0.0027
67292W        W10209  12.490  33.476  29.048 -0.1621 -0.0383  0.3675
67293W        W10210  10.648  33.374  23.849  0.0335 -0.0434  0.0599
67294W        W10211  11.884   0.049  27.735  0.2832  0.0920 -0.1139
67295W        W10212  14.659   0.099  30.753  0.2536  0.2737 -0.0553
67296W        W10213  12.784  33.579  29.414 -0.1581 -0.0190 -0.2120
67297W        W10214   9.680  34.546  27.916 -0.1028  0.1053  0.0667
67298W        W10215   9.658   0.467  28.952  0.2810 -0.1019 -0.2983
67299W        W10216  14.507  33.233  30.177  0.2711 -0.3302 -0.3391
67300W        W10217  10.602  34.383  31.703 -0.0418  0.4090  0.0370
67301W        W10218  12.895  32.807  30.557 -0.1752 -0.0180  0.0237
67302W        W10219  10.654  33.983  28.756 -0.2529  0.0902 -0.1340
67303W        W10220  12.541  33.358  28.489 -0.1318 -0.1357  0.0814
67304W        W10221  12.277  32.851  26.560 -0.0131  0.0752  0.0306
67305W        W10222  12.164  32.739  27.958 -0.2477 -0.1452 -0.1018
67306W        W10223  13.089   0.110  29.027 -0.0026 -0.0798  0.2781
67307W        W10224  12.375   0.729  28.002 -0.2091  0.0305 -0.0587
67308W        W10225  14.595  32.318  29.986 -0.2455 -0.0982  0.2490
67309W        W10226  13.759  34.453  28.616  0.1216  0.0773  0.1697
67310W        W10227  11.817  33.454  29.239 -0.1007  0.0639  0.0601
67311W        W10228  14.308  31.678  29.858 -0.2449 -0.0389  0.3429
67312W        W10229  13.476  30.822  30.106 -0.1038  0.2439  0.2533
67313W        W10230   9.485  31.739  28.887 -0.1765 -0.1722  0.0456
67314W        W10231  12.396  34.574  29.857  0.0523  0.1007 -0.2048
67315W        W10232  14.085  33.026  30.180  0.1426 -0.0290  0.1413
67316W        W10233  12.579  33.201  30.397 -0.0233  0.1672 -0.1249
67317W        W10234  12.122  32.267  28.259  0.0660 -0.0535  0.1474
67318W        W10235  12.798  31.769  30.493 -0.2472  0.1324 -0.0188
67319W        W10236  12.496  33.947  31.179  0.1151 -0.2312 -0.0982
67320W        W10237  12.968  32.677  28.332  0.0060 -0.0812 -0.0481
67321W        W10238  13.617  33.044  29.289  0.0624  0.1514  0.1743
67322W        W10239  12.107  31.944  29.806 -0.0491 -0.0916 -0.1417
67323W        W10240  10.555   1.130  25.521 -0.0344 -0.0767  0.2929
67324W        W10241   8.619  33.789  28.161 -0.2512 -0.0357 -0.0533
67325W        W10242  12.198  33.428  26.531 -0.1090  0.0925  0.0985
67326W        W10243  12.133   0.519  29.003 -0.0038  0.0871  0.4705
67327W        W10244  12.389  32.766  28.384  0.0680 -0.3900 -0.1325
67328W        W10245  11.984  34.111  30.239 -0.0167  0.0942  0.4458
67329W        W10246  11.315   0.777  27.310 -0.2676  0.5281  0.0972
67330W        W10247  12.511  34.360  30.826 -0.1990 -0.1816  0.0561
67331W        W10248   9.074  34.153  27.413 -0.2129  0.1776 -0.1901
67332W        W10249  14.046  33.972  28.774 -0.0389 -0.0671  0.1167
67333W        W10250  13.129  30.686  30.441  0.1410 -0.0323 -0.0877
67334W        W10251  11.526  34.223  28.332 -0.2032  0.1421  0.0639
67335W        W10252   9.848  33.396  31.436 -0.2549 -0.0518 -0.3562
67336W        W10253  13.810  34.411  30.668  0.2632 -0.1644  0.0066
67337W        W10254  12.081  31.115  28.906  0.2390  0.2494  0.1322
67338W        W10255  12.703   0.793  28.484  0.0614  0.3993 -0.0358
67339W        W10256  12.783  32.599  29.276 -0.1109 -0.0821  0.0704
67340W        W10257  11.519  33.702  29.613 -0.0490 -0.0297 -0.1267
67341W        W10258  13.619   2.556  30.487  0.0169 -0.1622  0.0296
67342W        W10259  13.023  32.481  28.800 -0.1267  0.2684 -0.2203
67343W        W10260  15.344  33.493  28.828 -0.0071  0.3780  0.2700
67344W        W10261  11.420  33.896  27.909  0.2915  0.0289 -0.1519
67345W        W10262  13.082  30.359  30.933  0.0812 -0.1251 -0.1494
67346W        W10263  14.017  34.509  27.878  0.2598 -0.4299 -0.2129
67347W        W10264  14.196  34.501  31.459  0.0910 -0.1476  0.0607
67348W        W10265  10.967  31.938  29.787  0.0077  0.0383  0.1159
67349W        W10266  14.272  32.570  30.323 -0.0612  0.1884 -0.0403
67350W        W10267   9.735   0.633  31.523  0.0127 -0.0816 -0.0642
67351W        W10268  13.329   0.169  29.883  0.2784 -0.0887  0.1642
67352W        W10269  12.081  33.053  27.626  0.1246 -0.0564  0.1817
67353W        W10270  11.644   0.297  29.131 -0.1415 -0.2281 -0.0927
67354W        W10271  14.568  31.868  28.709  0.0892 -0.2727  0.1840
67355W        W10272  10.496   0.221  30.384 -0.0295  0.2492  0.1262
67356W        W10273  11.899  32.186  27.183 -0.0388 -0.2820 -0.0318
67357W        W10274  11.880  32.374  29.698 -0.1754  0.1150 -0.0731
67358W        W10275  11.410  34.052  25.667  0.4341 -0.0494 -0.1416
67359W        W10276  11.842  34.204  27.974 -0.1800  0.1564  0.1097
67360W        W10277  12.537  33.642  29.986  0.1396 -0.2200 -0.3322
67361W        W10278  13.587   1.183  30.200 -0.0122  0.1410  0.0423
67362W        W10279  11.114  33.346   0.229 -0.1092 -0.1336 -0.0967
67363W        W10280  12.178  34.517  26.704 -0.0782 -0.1708  0.2653
67364W        W10281  13.432  32.609  28.055 -0.2018 -0.1492  0.2042
67365W        W10282  13.945  33.559  30.149 -0.1883  0.0483 -0.4073
67366W        W10283  13.385  34.328  29.844 -0.2502 -0.0013  0.0899
67367W        W10284  12.815  34.318  29.817  0.0896 -0.2703 -0.1593
67368W        W10285  14.483   0.976  31.943 -0.2171  0.1125 -0.1602
67369W        W10286  11.295  33.407  28.036 -0.2069 -0.0801 -0.1829
67370W        W10287  10.702  34.031  27.359 -0.2188 -0.3289 -0.2517
67371W        W10288  13.197  33.382  29.252 -0.0899  0.2849  0.0384
67372W        W10289  10.173   0.023  27.774  0.0122  0.1494  0.1502
67373W        W10290  13.326   0.650  27.790 -0.3682  0.2011 -0.0177
67374W        W10291  11.316  34.520  29.078 -0.0619 -0.2472 -0.2357
67375W        W10292  13.914  33.036  28.766 -0.0451  0.0114  0.1552
67376W        W10293  12.275  33.359  29.582 -0.3124 -0.3192 -0.1757
67377W        W10294  11.756  31.681  29.523 -0.4517 -0.0004 -0.1476
67378W        W10295  13.439  33.364  30.271  0.0032  0.0036 -0.1423
67379W        W10296  11.870  34.628  29.537  0.4004 -0.1466  0.1121
67380W        W10297  12.267  34.562  28.805 -0.1548  0.2495  0.2747
67381W        W10298  14.563   0.159  31.664  0.0149  0.0795 -0.0059
67382W        W10299  11.466  33.737  28.396 -0.1578  0.3201  0.0639
67383W        W10300  11.665  33.408  31.678 -0.0893  0.0431 -0.0021
67384W        W10301  12.267  33.038  29.158 -0.0813 -0.1580 -0.3661
67385W        W10302  11.725   0.816  28.890 -0.1102 -0.0510 -0.0365
67386W        W10303  15.222  31.678  28.112  0.0334 -0.2806  0.0101
67387W        W10304  14.617  32.915  29.250  0.1245 -0.1530 -0.1999
67388W        W10305  14.915  33.167  27.768  0.1065 -0.3756  0.0109
67389W        W10306  11.758  34.432  28.807  0.2348  0.1337  0.2330
67390W        W10307  11.823  32.265  28.723  0.0883 -0.1097 -0.3158
67391W        W10308  12.347  33.442  30.914  0.0501  0.0048  0.2474
67392W        W10309  13.607  30.826  31.175 -0.0495  0.2416  0.0731
67393W        W10310  10.982  33.678  28.816 -0.2790  0.2071 -0.1359
67394W        W10311  12.009  32.172  30.766 -0.1820 -0.0596 -0.1434
67395W        W10312  13.817  32.167  28.467 -0.0360  0.1088  0.1942
67396W        W10313  13.300  32.062  29.080 -0.0730 -0.1642 -0.2166
67397W        W10314  10.560  33.363  28.680  0.1511 -0.4630 -0.2935
67398W        W10315  15.907  32.450  29.179 -0.1613  0.4802 -0.4688
67399W        W10316  11.701   0.277  30.453 -0.1608 -0.1752 -0.1532
67400W        W10317  14.342  34.065  31.891 -0.2575 -0.0421 -0.1275
67401W        W10318  11.360   0.008  27.792  0.0856  0.1183 -0.1608
67402W        W10319  12.479  31.985  29.176  0.3082 -0.2619 -0.0995
67403W        W10320  12.128  33.163  31.716  0.1033  0.1518  0.2728
67404W        W10321  11.133  33.817  27.485 -0.2500  0.0101 -0.3971
67405W        W10322  12.817  33.048  29.452 -0.3081  0.1113 -0.2573
67406W        W10323  13.352  34.576  28.359  0.1154  0.1216  0.0914
67407W        W10324  11.600  33.151  28.538  0.0981 -0.1834 -0.0115
67408W        W10325  11.940   1.233  26.457  0.1748  0.0729 -0.2456
67409W        W10326  10.557   0.228  29.005 -0.0923  0.0137  0.3851
67410W        W10327  10.332   0.992  28.333 -0.0335  0.1507 -0.0122
67411W        W10328  11.925  33.269  28.127  0.1057  0.0599  0.0137
67412W        W10329  14.686  34.408  31.417  0.1386  0.1763 -0.1531
67413W        W10330  15.600   0.718  31.627  0.1699 -0.0397  0.1965
67414W        W10331  11.807  33.479  30.827 -0.0581 -0.1764 -0.0848
67415W        W10332  11.937  31.732  27.592 -0.0233  0.0142 -0.1469
67416W        W10333  13.034  34.267  28.136 -0.0154  0.2428 -0.0021
67417W        W10334  13.792  33.585  29.127  0.0963 -0.0733 -0.0116
67418W        W10335  15.649  31.918  29.634 -0.0767 -0.0096 -0.0506
67419W        W10336  13.299  33.886  31.591  0.1957 -0.0818  0.1313
67420W        W10337  14.632  32.547  28.880  0.3241  0.0777 -0.1916
67421W        W10338  11.648  32.981  29.042 -0.2251 -0.1094 -0.1024
67422W        W10339  13.714  31.465  27.918 -0.1682  0.1139  0.0461
67423W        W10340  10.951  33.186  25.560 -0.1925 -0.0442  0.0097
67424W        W10341  11.527  34.150  30.508 -0.2170  0.1725  0.2395
67425W        W10342  11.423   0.562  27.785 -0.1730  0.0160  0.0193
67426W        W10343  12.933  32.067  30.909  0.0077 -0.1300  0.2043
67427W        W10344  11.775  33.446   0.219 -0.1168  0.2910  0.0483
67428W        W10345  10.359  34.497  28.673 -0.1666 -0.0082 -0.1999
67429W        W10346  11.281  32.529  27.862  0.0364  0.1322 -0.1421
67430W        W10347  11.133  32.079  30.829 -0.0237  0.1174 -0.0994
67431W        W10348  10.289  31.480  29.391 -0.1329 -0.1579 -0.2603
67432W        W10349  12.590   0.562  27.195 -0.0462  0.0783  0.0629
67433W        W10350  11.640  33.313  29.907 -0.0426 -0.0356  0.1007
67434W        W10351  10.848  33.719   0.021 -0.2558 -0.0864  0.1175
67435W        W10352  11.382  32.042  28.956  0.2284  0.1452  0.0750
67436W        W10353  12.662   0.916  29.931  0.1543  0.3610 -0.3490
67437W        W10354   9.203  32.338  30.605  0.2099 -0.1789 -0.1291
67438W        W10355  14.232  32.425  28.585  0.2850  0.1027 -0.0517
67439W        W10356  14.511   0.705  26.888 -0.2144 -0.4179  0.2725
67440W        W10357  11.187  33.242  31.659  0.1412  0.0853  0.1910
67441W        W10358  11.733  31.623  28.994  0.0310  0.0534  0.3392
67442W        W10359  11.775  32.232  26.641  0.0260  0.1939  0.0912
67443W        W10360  11.960  32.062  29.140  0.2327  0.3461 -0.2589
67444W        W10361  12.281  34.060  28.947  0.1413  0.1010  0.2132
67445W        W10362  11.589   0.826  30.129  0.1706  0.0393 -0.2162
67446W        W10363  12.295  33.820  29.402 -0.0091  0.0777  0.1070
67447W        W10364  15.892   1.723  26.509  0.0922 -0.0882 -0.4865
67448W        W10365  10.848  32.958  31.387 -0.2071  0.1217  0.1158
67449W        W10366  11.003  34.157  27.840 -0.0592  0.0914 -0.0846
67450W        W10367  11.290   1.563  29.746 -0.3846  0.3322  0.1010
67451W        W10368  14.100  33.151  31.440  0.2527  0.3323  0.0807
67452W        W10369  13.277  32.909  29.636 -0.0519  0.0167 -0.2755
67453W        W10370  12.921  32.621  27.746 -0.0705  0.0326  0.0042
67454W        W10371  13.233  32.437  29.458 -0.2817  0.3903  0.0700
67455W        W10372  10.867  32.872  28.723 -0.1480 -0.0165 -0.3652
67456W        W10373  10.232  34.392  31.391  0.3405  0.2148  0.0172
67457W        W10374  14.284  33.631  31.573  0.1737 -0.2072  0.1620
67458W        W10375  12.252  33.556  30.395 -0.1848  0.0596 -0.2591
67459W        W10376  12.008  34.402  30.681  0.1632 -0.2984  0.3702
67460W        W10377   8.841  31.171  30.599  0.0800  0.1623  0.0492
67461W        W10378  13.068  33.037  30.097  0.0829  0.0980 -0.0135
67462W        W10379   9.269  33.341  29.932 -0.0278 -0.0014 -0.0673
67463W        W10380  10.477  34.476   1.795 -0.0463 -0.0975 -0.0971
67464W        W10381  12.533  30.386  31.409 -0.1440 -0.0909  0.0741
67465W        W10382  14.062  32.317  31.894 -0.0945  0.1836 -0.0686
67466W        W10383  13.245  31.537  28.971  0.0490  0.1406 -0.0539
67467W        W10384  13.293  32.264  30.582  0.0570 -0.0752 -0.2117
67468W        W10385  11.851  31.259  30.419 -0.0308 -0.0058  0.2075
67469W        W10386  12.154  34.256   2.388 -0.1370 -0.0813  0.3536
67470W        W10387  12.571   0.091  31.074  0.1464 -0.0143  0.3336
67471W        W10388  11.343  31.547  29.777  0.1043  0.2601 -0.1117
67472W        W10389  13.945  32.754  31.668 -0.0446  0.2272 -0.4373
67473W        W10390  12.184  30.040  31.247 -0.0829 -0.2055 -0.0725
67474W        W10391  13.910  33.441  30.962  0.1186 -0.3019  0.2929
67475W        W10392  14.107  32.699  29.080 -0.0934 -0.1706 -0.0796
67476W        W10393  15.470  33.683  30.900  0.0592  0.1618  0.1610
67477W        W10394  11.613  33.822   0.998 -0.1942  0.1763  0.1237
67478W        W10395  11.761  33.374   1.326  0.1437  0.0084 -0.1877
67479W        W10396  11.535  32.438   0.002  0.0746  0.2414 -0.1916
67480W        W10397  12.138  33.052  30.586  0.0779 -0.1743 -0.1946
67481W        W10398  15.585  31.037   1.161  0.2933  0.2277  0.1158
67482W        W10399  12.320  31.952  30.491 -0.3102 -0.3354  0.1060
67483W        W10400  10.471   0.982  30.029  0.0272  0.2356 -0.1381
67484W        W10401  13.204  33.385  29.734 -0.1244 -0.1110 -0.1885
67485W        W10402  10.519   0.775  30.474  0.4445 -0.1587  0.0406
67486W        W10403  12.030  32.787   0.668 -0.0790  0.2057  0.3207
67487W        W10404  15.579  32.392   0.695 -0.0595  0.2292 -0.0814
67488W        W10405  14.019   1.617  19.218  0.1203 -0.1923 -0.2346
67489W        W10406  15.692   0.791  15.406 -0.2692 -0.0021  0.0045
67490W        W10407  16.895   0.621  15.506 -0.2923  0.2347  0.2694
67491W        W10408  16.524   1.569  19.186  0.0067  0.0419  0.1481
67492W        W10409  11.784   1.047  17.875 -0.0841 -0.4674 -0.1136
67493W        W10410  16.422   4.003  16.858 -0.1342  0.2313  0.0191
67494W        W10411  14.371  33.207  17.847 -0.4122  0.0437 -0.1303
67495W        W10412  16.562   3.279  18.902  0.1344 -0.0326 -0.0927
67496W        W10413  18.940   3.600  18.438  0.2370  0.2152  0.0587
67497W        W10414  16.756   2.056  17.047  0.1416 -0.1367  0.1646
67498W        W10415  16.532   0.440  19.840 -0.0959 -0.0995  0.0560
67499W        W10416  14.720   1.373  17.932  0.1883 -0.0280  0.4287
67500W        W10417  15.146   0.270  14.661 -0.3234  0.0337  0.0645
67501W        W10418  14.596  33.929  17.402 -0.0825 -0.0016 -0.1404
67502W        W10419  16.968   1.830  18.551 -0.2900 -0.0647 -0.0340
67503W        W10420  14.353   1.754  17.173 -0.2803  0.0529 -0.1831
67504W        W10421  17.587   1.591  18.048  0.0148  0.1518  0.1265
67505W        W10422  14.976  34.139  16.784 -0.0668  0.2437 -0.1957
67506W        W10423  17.100   3.396  18.982  0.1247 -0.2442  0.3121
67507W        W10424  14.609   0.923  19.251  0.0352  0.3504 -0.0173
67508W        W10425  16.984   1.579  18.983  0.0030 -0.0860 -0.1564
67509W        W10426  14.623   3.610  15.818  0.2650  0.0098 -0.0337
67510W        W10427  14.386   1.269  14.821  0.2848  0.1127 -0.0604
67511W        W10428  14.481   1.033  17.666 -0.1063 -0.2559 -0.0922
67512W        W10429  14.646   3.168  17.899 -0.3264  0.0048 -0.2227
67513W        W10430  17.808   0.905  17.383  0.1665 -0.0896 -0.2118
67514W        W10431  15.866  34.341  17.977  0.1530 -0.3864  0.0929
67515W        W10432  15.683   4.702  18.843  0.0827 -0.2868 -0.1033
67516W        W10433  14.812   2.747  16.594 -0.1063 -0.0501 -0.0507
67517W        W10434  13.570  33.807  20.380  0.4058 -0.3742  0.1173
67518W        W10435  14.454   1.666  18.485 -0.0029  0.0154 -0.0364
67519W        W10436  15.891   3.442  17.215  0.0154  0.1282  0.0725
67520W        W10437  16.242   1.104  17.790 -0.2793 -0.3133 -0.0313
67521W        W10438  14.963   1.264  16.096 -0.1178 -0.0512  0.0649
67522W        W10439  17.844   2.461  19.614  0.0660 -0.0996  0.0086
67523W        W10440  15.824   2.623  18.416  0.0856  0.1635  0.1241
67524W        W10441  15.826   1.246  15.942  0.3219  0.1581  0.1183
67525W        W10442  16.177   3.960  17.697 -0.0628  0.1631 -0.0253
67526W        W10443  13.808   3.265  17.136  0.1132 -0.4903 -0.0242
67527W        W10444  16.247   1.415  17.345  0.0544  0.0026 -0.1017
67528W        W10445  16.804   0.189  17.304  0.0898  0.0592  0.0815
67529W        W10446  16.266   3.162  17.018  0.1452 -0.1014 -0.0150
67530W        W10447  15.975   5.041  16.601  0.1358  0.3646  0.3500
67531W        W10448  16.845   2.657  18.572 -0.1138 -0.2677  0.3413
67532W        W10449  17.408   4.065  17.408 -0.0727 -0.0647 -0.1690
67533W        W10450  16.186   2.968  19.640 -0.0274 -0.1263 -0.3316
67534W        W10451  14.924   2.983  15.241  0.0309  0.1246  0.1153
67535W        W10452  16.356   1.915  15.042  0.0194  0.3045 -0.1084
67536W        W10453  16.553   1.524  17.797  0.0458  0.2222  0.1707
67537W        W10454  18.673   0.698  17.802  0.0045 -0.3313 -0.1931
67538W        W10455  15.724   1.746  18.764 -0.0342 -0.1298  0.1047
67539W        W10456  16.347   5.211  17.127 -0.0920  0.0433  0.1991
67540W        W10457  16.002   1.300  16.881 -0.4573 -0.3252 -0.2432
67541W        W10458  18.154   2.671  18.127 -0.0898 -0.1963  0.0492
67542W        W10459  16.599  34.479  18.606 -0.1109  0.0253 -0.3389
67543W        W10460  17.089   1.120  18.686  0.1154 -0.4024 -0.1960
67544W        W10461  14.439   1.382  19.562  0.0678  0.4523 -0.0516
67545W        W10462  14.662  33.619  17.814  0.0635  0.0964  0.2085
67546W        W10463  18.331   3.448  16.073  0.0445 -0.3451  0.0224
67547W        W10464  18.574   1.882  16.040 -0.2683 -0.2201 -0.0255
67548W        W10465  15.091   3.835  15.772 -0.0873 -0.0501 -0.2333
67549W        W10466  12.526   2.252  17.086  0.2246  0.2448 -0.1515
67550W        W10467  15.191   4.410  20.319  0.2899  0.2244 -0.2926
67551W        W10468  15.616   2.540  17.213 -0.0654 -0.2599  0.0874
67552W        W10469  14.999  33.276  15.654 -0.1338 -0.1388  0.1237
67553W        W10470  17.599   4.971  19.556  0.0525  0.0390 -0.0073
67554W        W10471  15.769   3.306  18.811  0.1378  0.2109 -0.4815
67555W        W10472  18.151  34.487  18.515 -0.1933 -0.0226  0.2418
67556W        W10473  17.323   0.811  15.698  0.1594 -0.0120  0.0835
67557W        W10474  17.196   2.289  18.550  0.1934  0.0020 -0.0181
67558W        W10475  16.787   3.028  15.242 -0.1375 -0.1628 -0.0814
67559W        W10476  15.946  34.642  17.187  0.3490  0.0082 -0.0263
67560W        W10477  17.706  34.101  17.659 -0.1529  0.1195  0.1144
67561W        W10478  15.463   3.251  16.128 -0.1424 -0.0734  0.0920
67562W        W10479  15.008   0.746  16.305 -0.2756  0.0203 -0.0708
67563W        W10480  18.121   1.082  19.688  0.0399 -0.3003  0.2574
67564W        W10481  17.245   2.226  17.175 -0.2437  0.0858 -0.2061
67565W        W10482  15.328   3.583  17.529 -0.1379  0.0865  0.1476
67566W        W10483  15.626   0.378  17.570  0.1695 -0.0215  0.2365
67567W        W10484  17.412   1.551  18.592  0.1141  0.4088 -0.0117
67568W        W10485  15.398   2.884  15.265 -0.2600  0.0516 -0.0477
67569W        W10486  13.980   2.416  17.843  0.0509  0.1044  0.0347
67570W        W10487  14.246   1.411  16.666  0.2119 -0.0353  0.3577
67571W        W10488  14.152  33.875  15.563 -0.1038 -0.0339  0.2596
67572W        W10489  14.794   2.311  18.395 -0.2334 -0.2121 -0.2571
67573W        W10490  16.163   0.558  15.286 -0.3084 -0.2121 -0.0812
67574W        W10491  14.797   1.884  16.322 -0.0043  0.0026  0.0440
67575W        W10492  17.987   1.604  18.502 -0.1534  0.0138  0.2076
67576W        W10493  15.211   3.257  15.673 -0.3234 -0.2216  0.1175
67577W        W10494  16.971   4.265  17.472  0.1853 -0.1635 -0.0531
67578W        W10495  16.476   1.825  16.263  0.0069 -0.3780 -0.1641
67579W        W10496  16.310   2.785  17.424 -0.0020 -0.2351  0.1265
67580W        W10497  16.517   1.682  18.677  0.0523 -0.2111  0.0146
67581W        W10498  14.138  34.579  16.754 -0.2105  0.0668  0.1393
67582W        W10499  14.085  34.015  20.318  0.0115 -0.0754  0.0043
67583W        W10500  13.260   1.371  17.935  0.1487  0.2146  0.1009
67584W        W10501  18.823   2.276  17.892  0.1546  0.1881  0.0135
67585W        W10502  14.941   0.496  15.740  0.3242 -0.0864 -0.0276
67586W        W10503  17.560   0.018  16.821 -0.0967  0.2426  0.1148
67587W        W10504  17.252   0.241  15.758  0.0967  0.0280  0.5166
67588W        W10505  14.289   1.502  17.623 -0.0260 -0.5472 -0.1568
67589W        W10506  18.314  33.816  19.665 -0.0649 -0.0264  0.1184
67590W        W10507  16.702   2.606  16.555  0.2265 -0.0283 -0.0420
67591W        W10508  17.132   2.119  19.470  0.1015  0.0550  0.4044
67592W        W10509  16.412   4.235  17.326  0.0499  0.1936 -0.0991
67593W        W10510  14.558   0.477  18.985 -0.0024 -0.2797 -0.2378
67594W        W10511  15.097  34.129  16.102  0.0363  0.1478  0.1607
67595W        W10512  14.788   2.310  18.914  0.3344 -0.0619  0.3096
67596W        W10513  16.254   4.004  18.373  0.1920  0.0124 -0.0338
67597W        W10514  15.670  33.140  16.676 -0.1737 -0.1192  0.2901
67598W        W10515  18.124   1.556  17.993 -0.0469  0.2890 -0.0624
67599W        W10516  15.628   1.295  15.467 -0.0582  0.3072  0.0763
67600W        W10517  13.899   2.345  18.854 -0.2353  0.0840 -0.0135
67601W        W10518  17.959   1.843  17.551  0.1775  0.0920 -0.3043
67602W        W10519  16.617   2.726  19.386 -0.2558 -0.3442  0.2223
67603W        W10520  16.885   0.602  17.639 -0.0788  0.3680 -0.1816
67604W        W10521  15.159   0.108  15.376  0.1114 -0.0193  0.1076
67605W        W10522  18.284   3.995  16.846  0.0790  0.0327  0.1165
67606W        W10523  15.110   0.442  16.742  0.0492  0.0412  0.1677
67607W        W10524  15.469   2.090  16.592 -0.1792  0.1119 -0.0641
67608W        W10525  14.172   4.461  15.683 -0.0182 -0.1471  0.1677
67609W        W10526  18.876  34.504  18.999  0.0117 -0.3338  0.2390
67610W        W10527  15.210   2.080  19.109  0.1486  0.2273  0.0532
67611W        W10528  15.291   1.685  17.337 -0.1399 -0.0602  0.1537
67612W        W10529  14.256   1.183  17.228 -0.0151  0.0369  0.3945
67613W        W10530  14.483   1.968  18.065  0.2717  0.0652  0.0093
67614W        W10531  15.918   0.605  15.820  0.0414  0.1371 -0.1371
67615W        W10532  17.602   0.080  16.320 -0.0125  0.1363  0.0063
67616W        W10533  14.975   1.805  18.233  0.2165 -0.0303  0.1742
67617W        W10534  17.375   3.191  16.007 -0.0422  0.0609  0.1423
67618W        W10535  16.298   1.162  15.811 -0.0878 -0.0150  0.0376
67619W        W10536  14.639  32.766  15.915 -0.0722  0.3030  0.2896
67620W        W10537  15.764   3.783  19.674 -0.0585 -0.0915 -0.1651
67621W        W10538  14.846   3.863  16.837 -0.1042  0.1834 -0.0099
67622W        W10539  15.678   1.191  17.866 -0.1837 -0.0147 -0.1157
67623W        W10540  15.365   1.080  14.627 -0.0985 -0.0480  0.0763
67624W        W10541  17.762   4.777  17.176 -0.1772 -0.1582 -0.0256
67625W        W10542  13.783   2.720  16.870  0.0670 -0.1636 -0.3234
67626W        W10543  17.015   2.536  19.803 -0.1965  0.1750 -0.0353
67627W        W10544  14.851   6.771  18.105  0.2189 -0.5097 -0.2361
67628W        W10545  15.801   1.053  20.149  0.2687  0.5495  0.3445
67629W        W10546  15.150   1.948  14.913 -0.0072  0.1848  0.1765
67630W        W10547  16.577   0.489  16.908 -0.0345  0.1189  0.3287
67631W        W10548  12.858   2.634  15.792 -0.0364  0.0277 -0.1948
67632W        W10549  17.161   0.335  19.236 -0.0130 -0.0624 -0.0594
67633W        W10550  15.423   0.193  18.114 -0.0013  0.0220  0.1345
67634W        W10551  16.838   0.456  18.104  0.2905 -0.1674 -0.2297
67635W        W10552  19.243   2.321  18.669 -0.3247 -0.1587 -0.1134
67636W        W10553  16.657   3.153  17.373 -0.0170 -0.0549  0.2134
67637W        W10554  17.033  33.647  18.206  0.2928  0.0968  0.0349
67638W        W10555  14.924   0.728  15.265  0.2350  0.2171  0.2673
67639W        W10556  18.150   1.199  20.233 -0.0094  0.1229 -0.1010
67640W        W10557  16.123   1.816  19.035  0.0569 -0.1703 -0.1781
67641W        W10558  14.410   2.022  20.893  0.0707  0.0026  0.2108
67642W        W10559  16.551   3.536  16.867 -0.1622  0.3537  0.1969
67643W        W10560  17.004   1.765  15.373 -0.0909 -0.2750 -0.1499
67644W        W10561  15.774   2.197  17.865  0.0936 -0.3117  0.3190
67645W        W10562  15.393  33.835  16.847 -0.4416 -0.2947  0.0064
67646W        W10563  15.551   3.398  16.814  0.0166  0.0868  0.1564
67647W        W10564  15.005   2.037  15.371 -0.0318 -0.0027  0.0928
67648W        W10565  16.436  34.540  17.278  0.2016 -0.2517 -0.1441
67649W        W10566  15.994   1.670  16.129  0.0930  0.3194  0.2341
67650W        W10567  14.693   3.106  15.664 -0.0937 -0.0072 -0.0603
67651W        W10568  18.450   2.487  17.139  0.0137  0.0338 -0.0704
67652W        W10569  16.217   2.609  16.957 -0.0436 -0.0225  0.0100
67653W        W10570  17.918   1.602  19.303  0.3537  0.0272  0.0125
67654W        W10571  15.158   3.076  16.586  0.1885  0.2154  0.0291
67655W        W10572  14.402   1.043  15.256  0.1310 -0.0583  0.1018
67656W        W10573  12.389  34.592  15.324  0.2602  0.2164  0.3145
67657W        W10574  15.086  34.629  16.935 -0.2384  0.1215  0.4573
67658W        W10575  16.909   1.835  15.961 -0.1905 -0.0593  0.0002
67659W        W10576  15.569   1.043  16.914 -0.0457  0.0915 -0.0511
67660W        W10577  17.754   0.687  17.856  0.1161 -0.0238  0.1094
67661W        W10578  14.319   3.515  20.624 -0.1713  0.0711 -0.3589
67662W        W10579  15.608   1.769  19.250  0.3658  0.3767  0.3342
67663W        W10580  17.094   0.797  16.566 -0.1323 -0.3285 -0.4220
67664W        W10581  15.013   3.922  17.454  0.1341 -0.0805 -0.1702
67665W        W10582  15.145   0.818  18.425  0.0389  0.1415 -0.2608
67666W        W10583  15.268   1.278  16.491  0.4085  0.1626  0.0527
67667W        W10584  18.583   1.168  19.276 -0.0149 -0.1091 -0.2650
67668W        W10585  17.302   0.545  16.165 -0.0669  0.1728  0.0153
67669W        W10586  15.540   2.779  17.913  0.0331 -0.3389 -0.0975
67670W        W10587  16.756   3.474  19.316 -0.1966 -0.1146 -0.1742
67671W        W10588  15.343   1.011  15.125 -0.0559 -0.0533 -0.1360
67672W        W10589  15.482   0.875  16.304  0.1523 -0.0660 -0.0521
67673W        W10590  16.386   0.631  17.861 -0.3639  0.2343  0.1360
67674W        W10591  16.603   2.194  18.576 -0.1149  0.1542 -0.1234
67675W        W10592  16.597  33.881  17.387 -0.2269 -0.0468  0.2572
67676W        W10593  15.628   0.011  16.646 -0.1608  0.0009  0.0138
67677W        W10594  17.397  34.238  18.950  0.0671  0.0337 -0.0158
67678W        W10595  16.635   1.116  17.432  0.0242 -0.0284 -0.2803
67679W        W10596  16.377   0.963  19.917  0.0724  0.1316 -0.1223
67680W        W10597  16.484   4.052  18.975 -0.2201 -0.2855  0.0381
67681W        W10598  15.717  33.493  17.803 -0.1710  0.0184  0.5142
67682W        W10599  18.754   4.159  16.687 -0.2017 -0.1706  0.2801
67683W        W10600  16.147   2.284  18.741 -0.1494  0.1968 -0.0302
67684W        W10601  14.776   1.672  14.766 -0.3152  0.1228  0.2420
67685W        W10602  13.239   0.887  16.318 -0.2949 -0.1376  0.1828
67686W        W10603  13.588   1.018  15.920 -0.1472  0.2135 -0.0590
67687W        W10604  17.592  34.577  18.644 -0.3936  0.1436  0.3455
67688W        W10605  16.157   3.062  18.030 -0.0064 -0.2478  0.2307
67689W        W10606  16.088   1.778  15.528  0.0879 -0.2145 -0.2073
67690W        W10607  15.285   2.140  17.606  0.1494  0.4701 -0.1073
67691W        W10608  18.416   0.666  18.293  0.2310  0.1304 -0.0120
67692W        W10609  15.369   2.621  16.667 -0.1488  0.0422  0.1203
67693W        W10610  16.573   0.820  16.301  0.1767  0.0805  0.3647
67694W        W10611  18.047   1.594  19.851  0.0162  0.2745  0.1220
67695W        W10612  18.504   3.147  16.455  0.1656  0.0062 -0.1125
67696W        W10613  18.209   0.467  17.817 -0.1741  0.0786 -0.0467
67697W        W10614  15.607  34.519  18.451 -0.2464  0.0112  0.2734
67698W        W10615  16.368   0.382  17.424  0.0277 -0.0052  0.0129
67699W        W10616  13.769   3.326  18.054  0.0483  0.1031  0.3951
67700W        W10617  17.257   3.069  21.942 -0.0109 -0.2477  0.1284
67701W        W10618  14.648   0.522  19.939 -0.0341  0.0018  0.2044
67702W        W10619  17.456   0.660  16.925  0.0917  0.2159  0.2101
67703W        W10620  14.291   0.298  14.820 -0.2572  0.2848  0.2888
67704W        W10621  16.548   0.935  15.404 -0.3139  0.2071  0.0576
67705W        W10622  17.567   4.420  16.368  0.2755 -0.2147  0.2648
67706W        W10623  14.479   1.384  16.190 -0.1387  0.1490 -0.1452
67707W        W10624  15.384   1.479  15.861 -0.0223 -0.2964 -0.0955
67708W        W10625  15.107   2.759  18.164 -0.0623 -0.0388  0.1375
67709W        W10626  18.776   1.638  17.429  0.3377 -0.2021  0.1640
67710W        W10627  16.221   2.267  15.506  0.0804  0.0584  0.0776
67711W        W10628  15.240   0.953  15.690  0.0378  0.0601  0.2697
67712W        W10629  15.106   3.862  18.964  0.1087  0.1358 -0.0881
67713W        W10630  17.470   3.131  19.244  0.2483 -0.4371 -0.4154
67714W        W10631  16.736   1.396  16.252  0.2261  0.0337  0.1300
67715W        W10632  17.587   0.215  19.566 -0.1038 -0.0760  0.0832
67716W        W10633  17.890   3.813  17.405  0.2996  0.1407  0.1667
67717W        W10634  15.744   3.427  17.784  0.1293  0.1315  0.1410
67718W        W10635  15.121   2.594  19.902 -0.2154 -0.1174 -0.1351
67719W        W10636  19.838   3.423  18.148  0.1397 -0.1753  0.1092
67720W        W10637  17.392   1.298  15.360 -0.3280 -0.1110  0.2782
67721W        W10638  18.728  34.197  21.887 -0.0975 -0.2674  0.0030
67722W        W10639  17.622   2.897  16.275  0.0224  0.1778 -0.0980
67723W        W10640  16.720   2.032  19.203  0.0158  0.3425 -0.0093
67724W        W10641  14.515   2.085  17.552 -0.1861  0.0760 -0.0273
67725W        W10642  16.207   2.262  19.239  0.5428 -0.1254 -0.4485
67726W        W10643  13.344   0.271  15.191  0.4040 -0.0275  0.1291
67727W        W10644  17.249   0.995  19.891 -0.2415 -0.2271 -0.0111
67728W        W10645  16.396   3.169  16.034 -0.1276 -0.2228  0.1663
67729W        W10646  15.713   1.977  15.859 -0.0537 -0.0952 -0.0336
67730W        W10647  17.075   2.313  15.836 -0.0304  0.1798 -0.0318
67731W        W10648  13.498   1.898  16.260  0.0547 -0.0281  0.0163
67732W        W10649  15.514   2.784  21.434  0.0317  0.0288  0.0592
67733W        W10650  14.809   0.358  17.194 -0.3311  0.0189  0.1842
67734W        W10651  13.529   1.486  16.549  0.0212 -0.0378 -0.1667
67735W        W10652  15.094   1.276  17.008  0.1708  0.0261  0.1295
67736W        W10653  16.754   3.046  16.878 -0.1565  0.0996 -0.2513
67737W        W10654  16.414   0.681  15.787 -0.0154 -0.0777  0.0296
67738W        W10655  19.084   1.032  21.586 -0.3258  0.1023  0.3288
67739W        W10656  13.891   1.638  17.289 -0.1809  0.4066 -0.0662
67740W        W10657  17.055   0.102  17.687  0.0007 -0.0146  0.0407
67741W        W10658  14.647   3.992  19.805  0.2393  0.0676  0.2441
67742W        W10659  15.322   3.247  19.718 -0.0396  0.2146 -0.1883
67743W        W10660  16.293  34.617  18.148 -0.0374  0.0151 -0.0962
67744W        W10661  16.678   0.233  18.770  0.1087  0.4326 -0.0468
67745W        W10662  15.509   1.711  16.317  0.3622 -0.1608 -0.0429
67746W        W10663  17.738   1.127  18.144 -0.0217  0.0804  0.0891
67747W        W10664  15.488   2.475  16.189  0.0239 -0.1406 -0.0676
67748W        W10665  17.605   3.003  16.872 -0.3540 -0.2087  0.0614
67749W        W10666  15.797   2.961  16.897 -0.2825 -0.0733  0.0049
67750W        W10667  17.215   3.833  18.682 -0.2103  0.0205 -0.0074
67751W        W10668  15.976   2.945  16.025  0.1095 -0.2640 -0.2785
67752W        W10669  17.100   3.121  17.197  0.1034 -0.2906 -0.3818
67753W        W10670  13.691   0.380  17.977  0.0109  0.0394  0.1428
67754W        W10671  16.557   1.887  18.146  0.2074  0.3314 -0.0716
67755W        W10672  17.092   3.483  16.824 -0.1888 -0.0154  0.2421
67756W        W10673  15.045   0.004  17.543 -0.1254  0.1374 -0.2010
67757W        W10674  13.506   1.408  18.368  0.0275  0.0989  0.1018
67758W        W10675  16.732   3.922  22.052 -0.1197  0.1668  0.2579
67759W        W10676  15.275   2.266  18.102  0.1866 -0.0869  0.1856
67760W        W10677  15.162   4.995  15.902  0.0407  0.1590 -0.1119
67761W        W10678  17.423   3.913  16.879 -0.2367  0.1833  0.1002
67762W        W10679  14.941   1.783  17.702 -0.1167  0.1796  0.0245
67763W        W10680  16.077   5.822  18.635  0.1706 -0.0814  0.1771
67764W        W10681  15.110  34.650  15.926  0.0174  0.0980  0.0863
67765W        W10682  15.950   3.456  16.015 -0.2165  0.0699 -0.0931
67766W        W10683  13.797   1.183  14.932  0.1060  0.0502  0.1817
67767W        W10684  15.482   5.171  16.448  0.0688 -0.2951 -0.0130
67768W        W10685  15.874   2.194  16.842 -0.0975  0.0586  0.2253
67769W        W10686  18.348   2.684  18.827  0.0960  0.3133 -0.2934
67770W        W10687  15.773  32.493  17.713 -0.3420 -0.0438 -0.0787
67771W        W10688  17.631   1.212  15.842 -0.1524  0.2140 -0.0870
67772W        W10689  17.150  33.002  16.717 -0.2496  0.1728 -0.4289
67773W        W10690  17.532   2.389  18.970 -0.0105 -0.1531  0.0716
67774W        W10691  17.217   1.720  17.257  0.1035 -0.0571 -0.0185
67775W        W10692  13.873  34.270  15.728 -0.2750  0.1642  0.0070
67776W        W10693  16.204   1.503  18.156 -0.0639  0.3050  0.1194
67777W        W10694  17.132  34.633  18.724  0.2404  0.1983 -0.0745
67778W        W10695  13.482   4.621  20.869 -0.0098 -0.1051 -0.4502
67779W        W10696  18.417   4.443  15.825 -0.2111  0.2844  0.0066
67780W        W10697  15.907   2.120  16.295  0.0654 -0.3258 -0.1139
67781W        W10698  15.267   2.229  17.062 -0.1130  0.0607  0.0868
67782W        W10699  18.171  34.266  16.907  0.2292 -0.2890  0.1521
67783W        W10700  16.696   2.084  15.592  0.0433  0.0142  0.0040
67784W        W10701  17.851   0.179  18.270  0.0518  0.1302  0.0179
67785W        W10702  16.063   4.572  16.273  0.1594  0.0992 -0.1187
67786W        W10703  16.598   2.394  18.024  0.0125 -0.3881  0.1777
67787W        W10704  15.302   3.279  19.150  0.1334 -0.0621 -0.0033
67788W        W10705  13.315   1.504  16.011 -0.0147  0.2610 -0.2614
67789W        W10706  17.189   1.272  18.190 -0.2394 -0.2372  0.0337
67790W        W10707  14.534   0.128  17.654  0.0706 -0.0110  0.1248
67791W        W10708  17.517   1.939  20.639 -0.0340 -0.2123  0.0207
67792W        W10709  16.448   0.723  18.834 -0.1474 -0.1539 -0.0142
67793W        W10710  17.733   2.036  16.546 -0.1753  0.0363 -0.1391
67794W        W10711  18.972   1.699  16.442  0.0341 -0.2292  0.3475
67795W        W10712  14.856   1.914  17.199  0.2287 -0.0034  0.1792
67796W        W10713  17.313   1.002  17.761  0.0868 -0.0694 -0.1603
67797W        W10714  18.257   1.911  21.682 -0.1706 -0.3160 -0.2158
67798W        W10715  16.712   1.442  18.296 -0.1684  0.0972  0.2215
67799W        W10716  17.066   2.779  17.506 -0.2588 -0.1801  0.0003
67800W        W10717  15.956   0.139  15.800  0.0735 -0.0493  0.0013
67801W        W10718  18.678   0.158  17.923  0.1361 -0.0840  0.0558
67802W        W10719  14.816   1.699  15.817 -0.3153  0.1382  0.3438
67803W        W10720  16.159   1.831  17.093 -0.3068 -0.0843 -0.1009
67804W        W10721  17.237   3.309  20.181 -0.1418  0.2577  0.3991
67805W        W10722  13.716   0.269  17.059 -0.1123  0.1294  0.0929
67806W        W10723  16.254   3.315  17.593  0.1892  0.0459  0.1334
67807W        W10724  17.518   2.979  17.761  0.0392 -0.0555 -0.3991
67808W        W10725  14.464   5.769  16.521  0.2064  0.1047 -0.2763
67809W        W10726  16.914   1.243  15.457  0.1577 -0.4687 -0.0621
67810W        W10727  16.647   3.606  17.762 -0.0345  0.0757  0.3027
67811W        W10728  16.036   0.367  16.342 -0.3400 -0.3355  0.2893
67812W        W10729  18.442   3.083  17.863  0.0724 -0.1084  0.2753
67813W        W10730  17.752   2.241  17.401 -0.0685 -0.0133  0.1621
67814W        W10731  14.686  34.439  16.361 -0.1001 -0.0434 -0.1511
67815W        W10732  15.649   0.907  17.402 -0.5129 -0.1471  0.0987
67816W        W10733  14.022   2.295  16.256 -0.1434  0.0008  0.1096
67817W        W10734  19.206   0.220  17.983 -0.1524 -0.0021  0.1324
67818W        W10735  16.940   3.653  19.873 -0.2361 -0.0249  0.0439
67819W        W10736  14.921   3.488  15.367  0.2915  0.0493 -0.1860
67820W        W10737  16.097   2.472  19.892 -0.0925 -0.1930  0.1170
67821W        W10738  16.083   6.425  19.357 -0.2643  0.4250  0.1424
67822W        W10739  16.212   2.947  20.904 -0.4145 -0.1183 -0.2652
67823W        W10740  14.341   1.703  14.472 -0.0055 -0.0187  0.1211
67824W        W10741  15.880   2.991  17.540 -0.3413 -0.0093 -0.1541
67825W        W10742  14.140   0.401  16.706  0.0620  0.0940 -0.0689
67826W        W10743  14.994   4.271  17.171 -0.0635 -0.0716  0.4020
67827W        W10744  16.474   1.549  16.825 -0.2771 -0.1081  0.0839
67828W        W10745  15.679   1.716  16.933  0.0327 -0.0718  0.0881
67829W        W10746  15.803   2.703  15.427  0.1135 -0.2309 -0.1803
67830W        W10747  16.172   0.935  17.230  0.0411  0.1550 -0.0099
67831W        W10748  18.169   0.583  16.929 -0.3512 -0.0827 -0.0537
67832W        W10749  17.595   0.025  17.761  0.5479  0.3922  0.0918
67833W        W10750  13.762   2.818  17.995 -0.2167  0.2610 -0.1469
67834W        W10751  14.714   1.182  15.578 -0.2463 -0.2320 -0.1487
67835W        W10752  15.066   2.698  15.649 -0.3253  0.2536 -0.0637
67836W        W10753  16.829   1.795  16.578 -0.0495 -0.0364  0.2389
67837W        W10754  16.911   1.259  20.127  0.1040  0.1739  0.0151
67838W        W10755  16.192  34.343  16.677 -0.0582 -0.2448  0.0679
67839W        W10756  14.000   1.676  19.828 -0.1672 -0.0843  0.0870
67840W        W10757  15.104  33.853  15.539 -0.2126 -0.0233 -0.1957
67841W        W10758  18.191   2.580  15.522  0.1675  0.1470 -0.2594
67842W        W10759  15.302   0.753  17.774 -0.0488 -0.2909  0.2346
67843W        W10760  13.906   0.323  17.497  0.4381  0.2417  0.0304
67844W        W10761  16.914   2.832  16.113 -0.0863 -0.1176 -0.1700
67845W        W10762  18.622   4.483  16.307  0.0867  0.0993 -0.3345
67846W        W10763  15.938  33.951  16.400 -0.0483  0.1220 -0.0416
67847W        W10764  19.667   4.675  21.711 -0.1933 -0.1690  0.1178
67848W        W10765  12.947   1.793  16.269  0.2653 -0.1183 -0.0343
67849W        W10766  16.774   3.602  20.361 -0.2353  0.3636  0.2297
67850W        W10767  16.578   0.064  17.717  0.5127 -0.1824 -0.0721
67851W        W10768  16.058   0.860  16.726 -0.0082  0.1074 -0.0063
67852W        W10769  15.108   0.753  19.329  0.1832  0.0682  0.0405
67853W        W10770  15.127  34.557  16.394 -0.0167 -0.1439  0.1443
67854W        W10771  17.387   4.230  15.938 -0.0038 -0.2881  0.3646
67855W        W10772  15.303   2.559  18.586 -0.2527 -0.0397  0.0059
67856W        W10773  15.369   1.923  20.729 -0.2345 -0.3126  0.2112
67857W        W10774  14.773   1.121  16.654  0.0575  0.2197  0.1768
67858W        W10775  18.194   0.972  17.857  0.1804  0.1150  0.0549
67859W        W10776  16.809   4.461  18.889  0.3062 -0.0007 -0.0558
67860W        W10777  16.021   3.579  16.760 -0.2167 -0.3384  0.2487
67861W        W10778  15.701   2.033  17.289  0.0760 -0.0108  0.0987
67862W        W10779  17.065   1.488  17.756 -0.1969 -0.2504  0.0133
67863W        W10780  14.889   1.303  18.437 -0.3889  0.1849  0.0600
67864W        W10781  16.834   1.875  20.021 -0.0465 -0.3804 -0.0559
67865W        W10782  17.317   3.733  16.434 -0.0462  0.0973 -0.1516
67866W        W10783  12.366   0.793  15.117 -0.2015  0.0898 -0.1702
67867W        W10784  16.612   2.466  15.216  0.0505 -0.1621 -0.2451
67868W        W10785  17.534   2.435  16.804 -0.2869  0.1582  0.1161
67869W        W10786  15.756   1.294  16.425  0.3547 -0.2140 -0.1470
67870W        W10787  16.848   0.500  15.987 -0.1728 -0.1773  0.2204
67871W        W10788  17.060   1.981  18.042  0.1455 -0.0576 -0.1947
67872W        W10789  14.516   2.322  16.317 -0.1630 -0.1059 -0.0230
67873W        W10790  17.516   3.214  18.660 -0.1187 -0.1258 -0.1684
67874W        W10791  16.248   2.078  15.933  0.0052  0.0695  0.0541
67875W        W10792  18.215   4.900  15.888 -0.1946  0.1086 -0.1459
67876W        W10793  15.668   3.996  18.565 -0.1320 -0.1309 -0.0875
67877W        W10794  19.407   2.430  19.816 -0.4800 -0.0663 -0.0515
67878W        W10795  15.147   1.760  16.827  0.1075  0.2997  0.1488
67879W        W10796  17.514   2.799  17.306  0.1087  0.1017  0.0392
67880W        W10797  15.894   0.783  17.779  0.0186  0.3012  0.1703
67881W        W10798  15.465   1.857  15.460  0.0381  0.0568 -0.2699
67882W        W10799  14.889  34.524  14.879 -0.0416  0.0193 -0.1211
67883W        W10800  18.694   1.437  18.771  0.1756  0.1263 -0.2600
67884W        W10801  15.961   1.685  17.697 -0.4174  0.2006 -0.0412
67885W        W10802  18.178   0.157  19.835 -0.1188 -0.1577  0.2634
67886W        W10803  15.339   3.820  17.011  0.2150  0.1778 -0.3478
67887W        W10804  17.045   0.553  18.653 -0.2594  0.0655 -0.1751
67888W        W10805  14.828  34.392  23.081 -0.1983  0.2398 -0.3037
67889W        W10806  14.974   0.917  21.188 -0.1418  0.0242  0.1391
67890W        W10807  16.122  34.502  21.575  0.0798 -0.1052 -0.0161
67891W        W10808  17.251   3.806  20.370 -0.1558  0.1403  0.2293
67892W        W10809  14.981   0.951  22.168  0.1322 -0.0116 -0.2072
67893W        W10810  16.788   3.007  22.136  0.4790  0.3835 -0.0049
67894W        W10811  13.262   0.317  21.590 -0.1768 -0.3525 -0.2103
67895W        W10812  15.006   1.499  20.402 -0.2134  0.1636  0.0203
67896W        W10813  17.692   2.253  21.045 -0.1739 -0.0934  0.1696
67897W        W10814  16.920   2.028  21.290  0.2948  0.4764  0.1563
67898W        W10815  13.305   1.144  21.006 -0.2269 -0.0137 -0.0662
67899W        W10816  16.875   1.175  22.982  0.0547 -0.1539 -0.0350
67900W        W10817  15.516   1.104  21.176  0.0499 -0.1463  0.1127
67901W        W10818  13.988  34.011  21.157  0.2842  0.4491 -0.0632
67902W        W10819  15.538   0.892  22.099  0.0056 -0.2028 -0.3697
67903W        W10820  14.046  34.381  19.609 -0.1332  0.0596 -0.1520
67904W        W10821  16.186   1.383  21.745 -0.0490  0.1432 -0.0205
67905W        W10822  14.288   1.322  22.712 -0.0799  0.1781 -0.1097
67906W        W10823  14.934   2.313  20.779 -0.1258  0.0247 -0.0074
67907W        W10824  13.714   1.183  21.933 -0.0535 -0.0162 -0.1334
67908W        W10825  16.795  32.961  23.186 -0.0561  0.0283 -0.0544
67909W        W10826  18.679   2.705  20.676  0.1906 -0.1510 -0.1022
67910W        W10827  14.059   2.080  17.429  0.1031  0.0594  0.0328
67911W        W10828  13.620   0.796  21.611 -0.0671  0.4403  0.2796
67912W        W10829  13.529   1.214  23.388 -0.4493 -0.5214 -0.3158
67913W        W10830  17.186   1.633  20.270 -0.1290 -0.0793 -0.2322
67914W        W10831  19.142   2.788  21.197 -0.1438  0.2058 -0.0137
67915W        W10832  16.439   3.977  20.492  0.2543 -0.1026 -0.0315
67916W        W10833  17.511   2.850  23.585  0.1984  0.0287  0.0601
67917W        W10834  18.104   2.380  24.397  0.2001 -0.0025 -0.0396
67918W        W10835  13.648   0.294  23.150 -0.1425  0.0155 -0.0170
67919W        W10836  13.790   1.381  22.744 -0.0219  0.0729 -0.2170
67920W        W10837  16.056   2.974  20.212 -0.1901  0.1540 -0.0327
67921W        W10838  18.391   4.127  19.098  0.0940 -0.1670 -0.2256
67922W        W10839  16.850   3.068  21.577  0.0316 -0.0571 -0.3935
67923W        W10840  15.240   3.540  23.031  0.0103 -0.0048 -0.1520
67924W        W10841  17.079   2.460  18.076 -0.1617  0.0992 -0.1825
67925W        W10842  16.560   4.068  23.381 -0.0314 -0.1253 -0.3568
67926W        W10843  14.608   1.732  22.704 -0.0430  0.3069  0.1986
67927W        W10844  16.190   1.900  22.649  0.1695  0.3150  0.0616
67928W        W10845  15.701   2.928  20.815 -0.3383  0.0978  0.3314
67929W        W10846  15.902   3.774  20.133  0.1146 -0.0864  0.0528
67930W        W10847  15.515   2.090  22.646  0.4259 -0.0311  0.0010
67931W        W10848  15.756   1.660  22.511 -0.0426  0.2004  0.2665
67932W        W10849  14.804   3.958  22.286 -0.1898  0.1113  0.1944
67933W        W10850  14.797  33.195  23.060  0.0231 -0.0376 -0.2198
67934W        W10851  14.785   3.332  20.917 -0.1095 -0.0622 -0.0459
67935W        W10852  17.020   2.985  19.495 -0.0926  0.4447 -0.2043
67936W        W10853  15.235  34.254  17.327 -0.2885  0.2153 -0.2343
67937W        W10854  18.005   2.681  22.524 -0.3332 -0.1487 -0.3644
67938W        W10855  17.741   2.333  20.474  0.2093 -0.2519  0.0746
67939W        W10856  15.655   4.436  23.236 -0.0082  0.2554  0.2720
67940W        W10857  15.957   2.136  22.166  0.1632  0.2047  0.1589
67941W        W10858  16.058   0.298  23.872 -0.2102 -0.3414 -0.0225
67942W        W10859  16.403   0.777  20.922  0.0694 -0.0790 -0.2342
67943W        W10860  17.202   2.110  22.294 -0.1937 -0.1882  0.2278
67944W        W10861  14.964   2.293  23.413 -0.2771 -0.1063  0.3641
67945W        W10862  14.798   1.277  20.804 -0.1631 -0.2302 -0.2464
67946W        W10863  17.151   3.448  21.494  0.1616  0.0864 -0.1747
67947W        W10864  17.734   1.818  22.468  0.0626 -0.0929 -0.1003
67948W        W10865  15.627   1.480  20.312  0.3808  0.2198 -0.0801
67949W        W10866  13.698   2.359  21.297 -0.2096  0.2519 -0.0517
67950W        W10867  14.940   0.613  23.244  0.0465  0.2793  0.0907
67951W        W10868  14.746  34.358  23.603  0.3164  0.0827 -0.1299
67952W        W10869  16.335   0.430  18.422 -0.0513 -0.0505  0.0939
67953W        W10870  15.960   1.442  22.905 -0.0988  0.0655 -0.0622
67954W        W10871  14.723   2.993  23.638 -0.2031  0.1271  0.2316
67955W        W10872  18.245   1.574  21.154 -0.0887 -0.0689  0.2391
67956W        W10873  15.477   2.454  20.908 -0.0144 -0.0488  0.0375
67957W        W10874  16.589   2.731  23.023 -0.2209 -0.0487 -0.3707
67958W        W10875  17.043   3.129  18.590 -0.2777 -0.5684 -0.3586
67959W        W10876  16.544   0.574  22.929  0.0214  0.0106  0.0525
67960W        W10877  15.848   0.772  21.720 -0.1889 -0.0052  0.2634
67961W        W10878  14.934   2.931  19.447  0.2120  0.1944 -0.0852
67962W        W10879  14.593  34.283  18.998  0.1558 -0.4677 -0.2038
67963W        W10880  18.526   2.710  22.547 -0.0272  0.1020  0.0807
67964W        W10881  18.062   3.701  20.985  0.1907 -0.2245  0.1241
67965W        W10882  14.519   6.041  22.783 -0.1219 -0.1462 -0.1209
67966W        W10883  15.579  34.476  23.452  0.0158  0.0985  0.1561
67967W        W10884  17.134   2.550  23.807 -0.0728  0.0699  0.0675
67968W        W10885  15.502   3.301  21.492 -0.2002  0.0274 -0.1896
67969W        W10886  16.163   1.612  21.230  0.3128  0.1499 -0.0010
67970W        W10887  14.049   1.843  18.779  0.0582  0.1132  0.6051
67971W        W10888  13.911  34.276  21.616 -0.0089 -0.0024 -0.0741
67972W        W10889  17.540   2.572  21.898 -0.0691  0.0371  0.2449
67973W        W10890  15.938  34.044  20.888 -0.1114  0.4359 -0.2787
67974W        W10891  14.335  33.909  20.818 -0.0545 -0.1385  0.0095
67975W        W10892  17.535   0.747  21.906 -0.0974 -0.0064  0.0554
67976W        W10893  12.602   2.498  21.762 -0.1607  0.2649  0.0705
67977W        W10894  19.776   4.209  22.166  0.0840 -0.1577 -0.0966
67978W        W10895  17.792   1.622  20.977 -0.1153 -0.1559 -0.2539
67979W        W10896  16.490   3.182  20.318 -0.0011  0.2510 -0.2198
67980W        W10897  14.532   0.217  23.771 -0.0767 -0.2164  0.0889
67981W        W10898  12.520   1.380  21.079 -0.1561  0.1096  0.2865
67982W        W10899  14.719   1.337  22.327 -0.1273 -0.1614 -0.0640
67983W        W10900  15.024   0.888  20.553  0.3848 -0.0786 -0.1070
67984W        W10901  17.227   1.901  22.757  0.1610  0.0202  0.0037
67985W        W10902  15.276  34.347  18.894 -0.2580  0.0889  0.0515
67986W        W10903  15.754   2.291  19.081  0.1589 -0.0565 -0.2183
67987W        W10904  14.651   1.014  19.837 -0.1253 -0.2387  0.1298
67988W        W10905  10.985  34.111  21.010 -0.4066 -0.1076  0.1940
67989W        W10906  16.375  34.331  24.284 -0.2232 -0.2041 -0.1095
67990W        W10907  16.894   3.314  21.107  0.0517 -0.0605  0.1426
67991W        W10908  16.710   2.730  23.566  0.0321  0.1977  0.1998
67992W        W10909  18.924   2.523  22.340 -0.1584  0.1383 -0.0041
67993W        W10910  14.799  34.186  20.807 -0.2452  0.0079  0.4052
67994W        W10911  11.941   0.155  17.856  0.0523 -0.3881 -0.1616
67995W        W10912  14.371   1.697  22.227  0.3108 -0.0424 -0.0239
67996W        W10913  15.144   2.390  22.471 -0.0236 -0.1003 -0.1328
67997W        W10914  14.905   1.745  18.780 -0.1250  0.0832  0.0719
67998W        W10915  18.128   3.446  21.605  0.0265 -0.2250 -0.1611
67999W        W10916  16.337   1.989  20.087  0.0672 -0.1504  0.0508
68000W        W10917  15.097   3.123  22.764 -0.3235  0.0471 -0.0309
68001W        W10918  14.664  34.643  22.538  0.1466 -0.3864 -0.3633
68002W        W10919  16.424   2.210  22.230 -0.0527  0.1530  0.2221
68003W        W10920  17.893   2.423  21.575 -0.0242 -0.1031  0.2614
68004W        W10921  14.586  34.541  19.532  0.0661 -0.2721  0.3028
68005W        W10922  16.703   0.307  21.068 -0.0877 -0.0108 -0.1483
68006W        W10923  15.382   3.870  21.452 -0.0806  0.3351  0.4482
68007W        W10924  14.184   2.914  20.669 -0.0095  0.0486  0.2658
68008W        W10925  16.640   2.859  20.729  0.3054  0.1356 -0.1793
68009W        W10926  15.772   1.579  22.038 -0.5229 -0.0318  0.0773
68010W        W10927  15.160   1.682  25.787  0.2536  0.1982  0.2825
68011W        W10928  17.149  34.355  23.836  0.0847  0.3555 -0.1626
68012W        W10929  14.457   0.292  18.150 -0.4146  0.1669  0.0115
68013W        W10930  13.777   3.148  22.419  0.0580  0.1880 -0.0489
68014W        W10931  16.163   0.134  22.248  0.1218 -0.0256 -0.0037
68015W        W10932  19.393   3.226  21.138  0.0722 -0.1148 -0.1958
68016W        W10933  18.301   0.798  23.699 -0.0523 -0.3096 -0.1022
68017W        W10934  16.195   3.851  22.079 -0.1075 -0.1863 -0.0880
68018W        W10935  18.152   2.000  19.549  0.0596  0.0547 -0.1748
68019W        W10936  15.922   0.710  20.449  0.1561  0.2461  0.2304
68020W        W10937  13.608   3.398  24.516  0.0900  0.0625 -0.4147
68021W        W10938  18.131   1.959  20.770 -0.1469  0.0641 -0.2910
68022W        W10939  14.867   1.715  22.037 -0.1535 -0.0388 -0.0906
68023W        W10940  16.545   2.708  19.913  0.0907 -0.2286  0.2358
68024W        W10941  17.719   2.724  21.136  0.2833  0.0262  0.1228
68025W        W10942  13.705   0.808  22.958 -0.1507  0.1123  0.0898
68026W        W10943  15.982   3.896  22.963  0.2131  0.0697 -0.0815
68027W        W10944  17.005   2.852  20.198  0.0792 -0.1348  0.2240
68028W        W10945  14.818  34.627  21.175  0.1666 -0.3668 -0.2367
68029W        W10946  14.669   1.617  16.772 -0.0484 -0.3832 -0.0614
68030W        W10947  16.045  34.416  22.554  0.1062  0.1106 -0.2391
68031W        W10948  15.373   3.585  20.095  0.0764  0.4105 -0.1237
68032W        W10949  18.209  34.014  22.735  0.0689  0.3003  0.2125
68033W        W10950  14.942   1.126  21.686 -0.1776 -0.4051 -0.0837
68034W        W10951  14.495  33.887  25.063 -0.1884  0.1436  0.0931
68035W        W10952  16.702   1.028  22.140  0.0874 -0.1465  0.0691
68036W        W10953  19.539   1.624  20.952  0.2088  0.0323  0.2889
68037W        W10954  17.314   1.457  22.964  0.1354  0.2264  0.2235
68038W        W10955  16.566  34.359  16.382 -0.0656  0.0343 -0.1344
68039W        W10956  15.317  34.574  25.335 -0.1393  0.2716  0.1221
68040W        W10957  13.693   0.213  24.500 -0.1066  0.1929 -0.0636
68041W        W10958  13.929   3.848  22.913 -0.0606 -0.3246  0.1321
68042W        W10959  17.714   1.927  21.931  0.0838  0.1266 -0.0507
68043W        W10960  17.910   3.034  22.928 -0.1614 -0.3667 -0.3554
68044W        W10961  15.458   0.408  25.350  0.1571  0.0480  0.1742
68045W        W10962  16.363   0.602  21.401  0.1738  0.1802  0.0751
68046W        W10963  15.080   2.912  22.291 -0.0388 -0.1269 -0.0158
68047W        W10964  15.785   1.738  18.230  0.2109 -0.0447  0.0361
68048W        W10965  15.518  33.926  18.984 -0.0138  0.2046 -0.1424
68049W        W10966  15.523   4.072  22.531 -0.0565 -0.2167 -0.1901
68050W        W10967  15.283   3.201  20.969  0.0175  0.0915  0.1942
68051W        W10968  15.773   1.842  24.566 -0.2515  0.1088 -0.0833
68052W        W10969  15.312   2.618  23.399  0.1316  0.3344  0.0931
68053W        W10970  19.346   0.212  21.616 -0.1329  0.0796 -0.2015
68054W        W10971  15.082   2.468  21.996  0.1991  0.0872 -0.1401
68055W        W10972  17.181  34.607  19.989 -0.1975  0.2986 -0.2785
68056W        W10973  15.786   0.570  19.491  0.1914  0.1716  0.0844
68057W        W10974  18.097   2.046  21.230 -0.2082 -0.1366  0.0525
68058W        W10975  18.292   2.924  19.735  0.0112 -0.2324 -0.1006
68059W        W10976  15.196  32.488  20.763  0.2181  0.3080 -0.0113
68060W        W10977  14.635   1.094  20.362  0.2830  0.1559 -0.0354
68061W        W10978  15.980   2.360  22.605 -0.1923  0.2161  0.1897
68062W        W10979  16.642   1.586  21.364 -0.0104  0.2006 -0.0030
68063W        W10980  16.483   1.260  20.995 -0.3726  0.0448 -0.0328
68064W        W10981  15.194   2.827  20.597 -0.1140  0.2649 -0.1405
68065W        W10982  15.775   2.052  23.576  0.1926  0.0041 -0.0003
68066W        W10983  11.583   0.281  21.191  0.2134 -0.0933 -0.2323
68067W        W10984  20.740   0.845  22.539  0.1591  0.1736  0.0960
68068W        W10985  14.425   1.186  21.427 -0.1192 -0.0912  0.2944
68069W        W10986  16.596   2.526  21.460  0.1530 -0.0770 -0.5112
68070W        W10987  16.165   2.779  23.329 -0.2864 -0.2688 -0.0588
68071W        W10988  14.537   1.884  21.521 -0.2633  0.1275 -0.0350
68072W        W10989  14.129   0.557  23.066  0.2305 -0.0919 -0.1218
68073W        W10990  15.046   0.293  22.866  0.1136  0.0735 -0.2121
68074W        W10991  16.633   2.246  19.675 -0.1498 -0.1732  0.2387
68075W        W10992  14.179   0.217  21.276  0.1359  0.1686  0.1059
68076W        W10993  14.918   1.849  20.922 -0.0801  0.2567  0.2689
68077W        W10994  14.576   0.713  21.489  0.0502 -0.2944 -0.0172
68078W        W10995  17.374   2.718  22.329 -0.2673  0.2357 -0.3164
68079W        W10996  16.461   0.544  22.318  0.0241  0.0083 -0.2243
68080W        W10997  16.683   5.354  23.651 -0.0555  0.2339  0.2546
68081W        W10998  13.381  34.578  23.284 -0.0027 -0.0793  0.0327
68082W        W10999  18.453   5.000  20.241 -0.1302 -0.1968 -0.0220
68083W        W11000  15.483  33.597  22.765 -0.1048 -0.0652  0.0006
68084W        W11001  15.873   1.639  20.724 -0.0921 -0.1461  0.0181
68085W        W11002  13.391   1.699  20.602 -0.1326 -0.2191  0.0583
68086W        W11003  15.186   2.643  19.052 -0.0234 -0.0396  0.0514
68087W        W11004  16.321  33.788  23.357 -0.3451 -0.0996 -0.1306
68088W        W11005  14.406   1.589  23.137 -0.1126 -0.1127  0.0703
68089W        W11006  12.897   2.328  22.139  0.0909  0.3378  0.0560
68090W        W11007  14.348   1.886  19.501  0.1472 -0.1641 -0.1217
68091W        W11008  17.805   0.680  20.432 -0.0718  0.1136  0.0008
68092W        W11009  16.128   4.746  20.462  0.2530  0.0289 -0.2475
68093W        W11010  13.911   1.870  20.896 -0.1430  0.1482  0.1443
68094W        W11011  17.937   0.879  23.321  0.0284 -0.1648  0.2135
68095W        W11012  15.522   0.414  21.355 -0.1189  0.3418 -0.0973
68096W        W11013  15.364  34.276  24.677  0.0177  0.1258  0.0773
68097W        W11014  15.557  34.544  21.591  0.1460 -0.1951  0.0194
68098W        W11015  18.612   4.376  21.442 -0.1255 -0.0314  0.2810
68099W        W11016  14.331  34.538  22.944 -0.3391 -0.0492  0.3319
68100W        W11017  15.899  34.599  24.220 -0.0136  0.1589 -0.1136
68101W        W11018  15.368   2.001  22.119 -0.0292  0.0316  0.0322
68102W        W11019  16.168   1.599  20.354 -0.1590  0.0159  0.1178
68103W        W11020  15.070  34.403  19.743  0.1323  0.2604 -0.3290
68104W        W11021  15.505   2.832  22.551  0.0705 -0.2933  0.1196
68105W        W11022  18.820   2.743  21.736 -0.0677  0.1439 -0.0973
68106W        W11023  15.715   1.991  20.394  0.0499  0.4893 -0.0870
68107W        W11024  18.626   1.622  22.001 -0.2024 -0.1461 -0.1532
68108W        W11025  15.673   3.609  23.281 -0.2678 -0.2285  0.1546
68109W        W11026  17.600   3.383  20.501  0.0729  0.0175  0.2149
68110W        W11027  14.516   3.226  18.633 -0.0794 -0.1662 -0.1873
68111W        W11028  15.091   1.114  18.911  0.2373 -0.1226  0.0066
68112W        W11029  12.385  33.395  24.395 -0.2597 -0.0976 -0.0006
68113W        W11030  17.599   3.402  22.127  0.1076  0.0307 -0.4609
68114W        W11031  17.010   0.727  21.850 -0.0440  0.1540  0.1861
68115W        W11032  16.892   0.383  21.495  0.2603 -0.1094 -0.2463
68116W        W11033  16.591   1.116  21.501  0.2021 -0.1572 -0.0443
68117W        W11034  16.260   2.017  21.738  0.3223  0.2481 -0.2056
68118W        W11035  11.962   1.026  22.333 -0.0583 -0.0976 -0.1799
68119W        W11036  16.755   3.810  21.313 -0.0521  0.2307 -0.2704
68120W        W11037  19.323   0.978  20.389  0.1112 -0.1541  0.1132
68121W        W11038  17.302   2.177  23.181 -0.1105 -0.0049  0.0186
68122W        W11039  18.154   2.590  20.534 -0.3057  0.0532 -0.0221
68123W        W11040  14.934   2.379  19.428  0.3078  0.2908  0.0485
68124W        W11041  14.095   1.216  22.209  0.0966  0.1285  0.0633
68125W        W11042  18.270   1.043  22.961  0.0602  0.0602 -0.1425
68126W        W11043  15.925   0.354  18.093 -0.1154 -0.0895  0.0093
68127W        W11044  17.546  34.144  24.755  0.1318 -0.1071 -0.0349
68128W        W11045  17.147   2.025  18.946 -0.0516 -0.1576  0.1493
68129W        W11046  17.336   2.474  21.413  0.0188  0.1137  0.1323
68130W        W11047  15.473   2.283  21.710 -0.1441  0.0245  0.0786
68131W        W11048  13.480  34.184  21.125 -0.1403 -0.1470  0.2476
68132W        W11049  14.974   1.587  24.687  0.4405  0.1519  0.0266
68133W        W11050  15.926  34.100  18.455  0.0251  0.0398  0.2714
68134W        W11051  16.112   2.497  20.827 -0.2926  0.0935 -0.0419
68135W        W11052  14.562   0.865  22.572  0.0551  0.2459 -0.3886
68136W        W11053  18.216   1.420  23.314 -0.0158  0.0427  0.0679
68137W        W11054  16.167   2.932  19.095 -0.2522 -0.2428 -0.1474
68138W        W11055  15.405   1.676  22.911 -0.0734 -0.1705  0.2783
68139W        W11056  14.852   2.830  21.004  0.1181 -0.1784 -0.2067
68140W        W11057  15.425  34.441  19.351 -0.3598  0.1115  0.1065
68141W        W11058  14.851   4.206  23.268 -0.1649  0.0370  0.2598
68142W        W11059  13.414   2.870  21.287  0.0344 -0.2677 -0.0601
68143W        W11060  14.448   2.518  20.712 -0.2066 -0.0600 -0.2349
68144W        W11061  15.928   0.543  19.995 -0.2041  0.3935  0.0671
68145W        W11062  17.535   1.399  21.839 -0.1292  0.1098  0.2795
68146W        W11063  13.488   2.208  20.898  0.1565 -0.2077  0.0734
68147W        W11064  17.863   0.715  21.452 -0.0109 -0.0248  0.0573
68148W        W11065  17.333   2.955  21.461  0.1816  0.1959 -0.2100
68149W        W11066  14.442   2.225  20.315  0.0956 -0.3060 -0.2634
68150W        W11067  17.116   4.124  22.549 -0.1501  0.2365 -0.0579
68151W        W11068  16.511   0.328  25.229 -0.1053 -0.1515 -0.1150
68152W        W11069  15.375   2.310  23.766 -0.1585  0.0375 -0.0265
68153W        W11070  13.806   0.658  23.496  0.0442  0.1603  0.2952
68154W        W11071  14.247   0.074  24.158 -0.0554  0.0772  0.0403
68155W        W11072  18.724   1.153  22.726  0.0216  0.2981 -0.1090
68156W        W11073  15.858  33.996  20.323  0.1222  0.1645 -0.1191
68157W        W11074  16.342   2.153  21.267  0.1747  0.2569 -0.5153
68158W        W11075  14.551   2.343  24.704  0.3041 -0.0412 -0.3537
68159W        W11076  15.159   3.034  23.233 -0.0370 -0.0271 -0.0809
68160W        W11077  15.776   1.834  21.577  0.0979 -0.3453 -0.0343
68161W        W11078  14.533   2.141  21.992 -0.1396  0.0897 -0.0491
68162W        W11079  15.914   0.180  20.311  0.1350 -0.2617 -0.2292
68163W        W11080  17.160   5.970  21.924 -0.2109 -0.1662  0.0435
68164W        W11081  16.443  34.094  20.966 -0.2538  0.0900 -0.2488
68165W        W11082  17.018   3.798  23.189  0.2350 -0.0388 -0.1187
68166W        W11083  15.315   2.396  20.409  0.2214 -0.0496 -0.2409
68167W        W11084  16.514   3.428  20.739 -0.0591  0.0952  0.0326
68168W        W11085  15.182   3.532  21.734  0.1389  0.0588  0.0246
68169W        W11086  18.672   2.265  23.698  0.0324 -0.0876 -0.0067
68170W        W11087  16.605   2.452  20.952 -0.1308 -0.0582  0.2163
68171W        W11088  17.191   1.698  21.593  0.0427 -0.1735  0.4080
68172W        W11089  17.439   3.295  21.035  0.0407  0.2182 -0.1209
68173W        W11090  16.357   1.669  22.219  0.1738  0.2712 -0.3176
68174W        W11091  13.352   0.603  21.134 -0.0232 -0.3753  0.1616
68175W        W11092  15.628   0.756  18.251  0.2199 -0.3747  0.0751
68176W        W11093  15.965   1.136  23.399  0.1535 -0.1460 -0.1260
68177W        W11094  17.881   0.364  23.116  0.3715  0.2254 -0.2636
68178W        W11095  15.955   2.915  22.734 -0.2491  0.2657  0.1323
68179W        W11096  18.181   3.383  22.120  0.4044 -0.0245  0.3691
68180W        W11097  15.376   0.599  20.231 -0.0200  0.2993  0.0743
68181W        W11098  14.737   3.550  23.204  0.0248  0.3174  0.2276
68182W        W11099  16.177  31.736  21.146 -0.2156 -0.0905 -0.1502
68183W        W11100  16.481   2.592  18.899  0.0925  0.1765 -0.1756
68184W        W11101  14.612   0.208  21.580 -0.2482 -0.0526  0.1261
68185W        W11102  17.247   3.885  21.218  0.2570 -0.0267  0.1952
68186W        W11103  16.462   2.633  22.023  0.2056  0.1346 -0.0828
68187W        W11104  15.581   4.910  23.760  0.0468 -0.0117 -0.1625
68188W        W11105  13.361   0.000  21.204 -0.3083 -0.3326  0.3876
68189W        W11106  18.321   0.874  21.561 -0.3180 -0.3299 -0.0178
68190W        W11107  16.247   0.651  23.534  0.1426 -0.0370 -0.1124
68191W        W11108  17.876   1.376  22.863 -0.0203  0.2110 -0.0193
68192W        W11109  15.311   1.508  18.597  0.2486  0.0639  0.2071
68193W        W11110  17.580   1.992  21.467  0.0125  0.1082 -0.0630
68194W        W11111  15.973   2.535  21.754 -0.1260  0.1399 -0.1732
68195W        W11112  13.223   3.833  22.166  0.2247  0.0328 -0.2949
68196W        W11113  16.749   1.578  19.685  0.0264  0.2926 -0.1070
68197W        W11114  17.035   1.038  23.903  0.2188 -0.3856  0.2128
68198W        W11115  16.985   2.454  19.137 -0.1622  0.0737  0.0137
68199W        W11116  16.180   3.535  23.399  0.1525  0.1772 -0.0948
68200W        W11117  14.243   0.273  19.782  0.2689  0.0113 -0.2936
68201W        W11118  18.896  34.439  20.964  0.1223  0.3117 -0.0243
68202W        W11119  12.661   0.981  19.844  0.0180  0.0682 -0.0207
68203W        W11120  17.659   1.865  22.991  0.1411 -0.0190 -0.2272
68204W        W11121  18.006   2.886  23.456  0.3027  0.2440  0.0195
68205W        W11122  13.924   0.055  21.963 -0.2992 -0.0837 -0.3554
68206W        W11123  16.664   3.229  19.888  0.0764 -0.4073  0.0232
68207W        W11124  18.322   3.017  20.915 -0.2570 -0.2951  0.0441
68208W        W11125  16.552   3.945  19.523  0.1675  0.2503  0.0099
68209W        W11126  18.192   1.900  19.046  0.1068  0.0441 -0.0785
68210W        W11127  15.864   4.171  21.221 -0.3545 -0.3018 -0.5250
68211W        W11128  13.071  32.980  20.221 -0.0555 -0.1154 -0.0349
68212W        W11129  17.247   2.171  21.765 -0.0074 -0.0277  0.0035
68213W        W11130  18.116   3.504  20.486  0.0090  0.0013  0.0549
68214W        W11131  17.351   1.739  21.061  0.3368 -0.0406  0.3508
68215W        W11132  13.973  34.307  20.720  0.1502 -0.0510  0.1526
68216W        W11133  16.394   3.321  21.262  0.1443  0.0402 -0.0500
68217W        W11134  18.643   1.336  20.556 -0.1264  0.3145  0.2780
68218W        W11135  16.101   1.096  21.302  0.0837  0.1830  0.1000
68219W        W11136  14.415   1.606  21.139 -0.5746  0.0338 -0.0420
68220W        W11137  16.910   1.293  25.515 -0.0213 -0.0888  0.0221
68221W        W11138  16.037   1.168  20.802 -0.2106  0.0349 -0.0646
68222W        W11139  15.912   1.254  23.997 -0.2972  0.0059  0.0516
68223W        W11140  14.545   0.803  18.394 -0.2680 -0.0772  0.0767
68224W        W11141  15.739   2.531  23.140 -0.1341  0.5104 -0.1067
68225W        W11142  17.634   2.966  19.763 -0.2429  0.6878 -0.2306
68226W        W11143  14.902   4.614  22.535 -0.2131 -0.3161 -0.0063
68227W        W11144  17.641   4.112  22.748 -0.0037 -0.1657  0.2354
68228W        W11145  18.840   0.707  20.688 -0.0887  0.2088 -0.1818
68229W        W11146  19.813   2.900  23.210 -0.3794  0.1819  0.1719
68230W        W11147  14.516  34.276  20.007 -0.1133  0.3351 -0.1332
68231W        W11148  20.615   1.780  21.026  0.1183 -0.0115  0.0451
68232W        W11149  18.111   1.106  21.202  0.0898 -0.0426 -0.2018
68233W        W11150  14.256   2.467  22.768  0.1515  0.3474 -0.0954
68234W        W11151  14.073   1.514  21.632 -0.2833  0.1663 -0.2828
68235W        W11152  14.871   3.389  18.924  0.0348 -0.1293  0.0712
68236W        W11153  14.798   2.588  20.316 -0.0026  0.2635  0.0588
68237W        W11154  16.467  32.482  25.411 -0.0499  0.0098 -0.0184
68238W        W11155  14.535   1.378  21.857 -0.0230 -0.1980 -0.0977
68239W        W11156  14.872   1.949  20.441 -0.1356  0.1834 -0.1643
68240W        W11157  15.973   1.034  19.652 -0.0843 -0.2369 -0.1479
68241W        W11158  17.093   2.717  23.244  0.0019 -0.2622  0.1718
68242W        W11159  14.378  34.457  21.005 -0.2741 -0.0292 -0.0723
68243W        W11160  16.149   1.007  19.141 -0.0226  0.2484  0.1758
68244W        W11161  14.926   1.492  21.325 -0.1249  0.0582  0.2485
68245W        W11162  17.530   3.780  20.796 -0.0222  0.3597  0.1553
68246W        W11163  13.401  34.553  21.728  0.2001 -0.5412  0.0472
68247W        W11164  17.468   4.065  23.207  0.4871  0.2609  0.1852
68248W        W11165  15.651   1.329  18.976  0.1596  0.1679 -0.0809
68249W        W11166  14.687   0.726  23.666 -0.1061  0.2781 -0.2178
68250W        W11167  15.973  32.419  24.004 -0.0557 -0.2162  0.0026
68251W        W11168  15.407   2.563  19.469 -0.1115  0.0157 -0.1305
68252W        W11169  16.271   3.501  19.712 -0.2157  0.1885  0.2393
68253W        W11170  16.846   4.152  20.767 -0.2200  0.0019 -0.0510
68254W        W11171  18.406   3.857  21.337 -0.1051 -0.1529 -0.7752
68255W        W11172  15.638   1.640  23.330 -0.2319  0.0386 -0.0164
68256W        W11173  15.355   2.067  23.294 -0.1994 -0.3666  0.0196
68257W        W11174  15.975  34.513  20.673  0.2115 -0.1051  0.0393
68258W        W11175  17.974   2.632  20.038 -0.3093 -0.0224 -0.1251
68259W        W11176  16.922   1.666  20.804 -0.0098  0.0487  0.2204
68260W        W11177  20.022   4.048  20.154 -0.1218 -0.0612 -0.0247
68261W        W11178  16.892  34.451  23.346  0.0277 -0.0344 -0.2344
68262W        W11179  16.965   2.808  21.127  0.0723 -0.0824 -0.4252
68263W        W11180  13.340   0.289  20.234  0.0668 -0.1347  0.2451
68264W        W11181  15.001   2.628  23.866  0.0584  0.0431 -0.2010
68265W        W11182  19.501   2.412  23.338 -0.0684 -0.1564  0.0398
68266W        W11183  15.168  34.264  21.281 -0.1575  0.1778 -0.2231
68267W        W11184  16.291   2.567  20.329 -0.1538  0.0590  0.1622
68268W        W11185  15.815   3.873  19.224 -0.0809 -0.2941  0.1691
68269W        W11186  14.605   0.820  20.882 -0.1482  0.1510 -0.0708
68270W        W11187  16.132   2.132  18.193 -0.0935 -0.2917  0.0974
68271W        W11188  15.766   2.574  20.445  0.1549 -0.0347 -0.1698
68272W        W11189  15.534   3.651  20.567  0.2669 -0.0887 -0.0182
68273W        W11190  15.301   3.068  23.735 -0.2788 -0.0909 -0.3666
68274W        W11191  15.370   2.038  21.202 -0.4110 -0.1279 -0.0581
68275W        W11192  18.866   1.586  22.487  0.1844 -0.0557  0.0909
68276W        W11193  17.697   3.288  23.646 -0.0795 -0.1057 -0.2109
68277W        W11194  17.970   3.826  22.502 -0.0697  0.0900 -0.0906
68278W        W11195  16.269   3.820  21.078  0.1143  0.1398  0.0016
68279W        W11196  17.415   3.005  22.729 -0.0032 -0.0578  0.3156
68280W        W11197  13.602  34.291  20.332 -0.0317  0.0354  0.0132
68281W        W11198  17.405   3.775  21.778  0.0442 -0.2182  0.4673
68282W        W11199  15.897   2.659  19.412 -0.0822 -0.2794  0.2605
68283W        W11200  17.022   3.676  20.779  0.4276  0.1995 -0.0158
68284W        W11201  13.757  34.304  22.537  0.0344 -0.0323  0.2013
68285W        W11202  17.704  34.357  22.227  0.1824  0.2113  0.0663
68286W        W11203  15.813   4.042  21.735  0.0627 -0.0117 -0.0335
68287W        W11204  16.674   1.993  22.819 -0.0604 -0.3512  0.2808
68288W        W11205  16.105   1.520  24.810 -0.1383 -0.0136 -0.0186
68289W        W11206  16.451   1.536  23.971 -0.0428 -0.1255 -0.0583
68290W        W11207  15.598  34.304  22.730  0.1027 -0.0841  0.0312
68291W        W11208  17.812   1.270  26.251 -0.1744  0.0026 -0.1003
68292W        W11209  13.731   0.375  25.423  0.1491 -0.0252 -0.2771
68293W        W11210  16.750   2.932  24.071 -0.2042  0.0992  0.0950
68294W        W11211  16.863  32.866  26.603 -0.2363  0.2534  0.1969
68295W        W11212  17.329   4.199  27.070 -0.0111  0.0910 -0.0931
68296W        W11213  18.255   1.544  25.657  0.0555 -0.0606 -0.1062
68297W        W11214  18.186   3.277  22.638 -0.0596  0.1831  0.0218
68298W        W11215  16.449   0.386  28.136  0.0575 -0.0123 -0.2340
68299W        W11216  13.752   2.083  27.077 -0.2052 -0.0317 -0.2098
68300W        W11217  16.547   0.576  25.789 -0.0412 -0.1444 -0.0227
68301W        W11218  16.672  33.556  25.152 -0.1524 -0.2715 -0.0970
68302W        W11219  16.251   0.079  26.243 -0.0261  0.0195  0.1061
68303W        W11220  15.387   0.861  24.570 -0.0718 -0.2204 -0.0548
68304W        W11221  15.621   0.719  26.954 -0.1634  0.0074 -0.2235
68305W        W11222  17.639   0.708  25.275  0.0675  0.0437  0.1770
68306W        W11223  16.872   2.610  25.146 -0.1500  0.0707  0.0253
68307W        W11224  15.065   2.967  25.873 -0.0210 -0.2640  0.0755
68308W        W11225  16.046  34.627  29.153  0.1790 -0.3524  0.0231
68309W        W11226  14.243   2.628  23.226  0.1699 -0.5037  0.2674
68310W        W11227  14.806   0.914  24.684 -0.2011  0.0257  0.0378
68311W        W11228  12.559   1.543  25.642  0.1027 -0.1165 -0.1696
68312W        W11229  15.341   3.487  26.107 -0.2630 -0.3470 -0.0303
68313W        W11230  16.517   1.789  26.055  0.2277  0.0942 -0.1757
68314W        W11231  18.988   1.131  25.721  0.0935  0.2527  0.2231
68315W        W11232  14.209   2.669  25.190  0.0473 -0.0792  0.1362
68316W        W11233  14.732   1.280  23.447  0.1001  0.1227 -0.3014
68317W        W11234  14.774   1.717  26.092 -0.1406  0.0264 -0.0620
68318W        W11235  15.615   3.793  23.779 -0.4209 -0.0104  0.1697
68319W        W11236  13.110   3.315  24.355  0.2536 -0.0054 -0.1393
68320W        W11237  14.945   1.298  24.301  0.0319  0.0926 -0.2972
68321W        W11238  17.541   1.495  26.756  0.2466 -0.2026 -0.0140
68322W        W11239  17.403   4.581  26.765 -0.1400  0.2719  0.0909
68323W        W11240  16.437   3.685  25.020  0.0293  0.1758  0.1433
68324W        W11241  13.620   0.876  25.641  0.0025  0.3149  0.1308
68325W        W11242  17.127   4.433  27.843 -0.1249 -0.0199  0.0871
68326W        W11243  15.762   0.708  28.146 -0.2626 -0.0756  0.1269
68327W        W11244  17.740   2.730  27.798 -0.3142  0.0190 -0.6419
68328W        W11245  15.638   1.061  27.337  0.1092  0.4006  0.0181
68329W        W11246  16.312   1.255  24.377 -0.0688 -0.4153  0.1790
68330W        W11247  16.754   2.233  24.688 -0.2440  0.0284 -0.0956
68331W        W11248  16.616   2.893  26.759 -0.0204 -0.2838  0.1756
68332W        W11249  13.898   2.004  24.160 -0.2563  0.0037 -0.0551
68333W        W11250  17.350   0.966  26.836  0.0684  0.0197  0.1089
68334W        W11251  15.540   1.186  22.982  0.1034  0.3765 -0.1565
68335W        W11252  17.620   0.155  22.240 -0.0587 -0.0987  0.0189
68336W        W11253  13.472  34.164  22.981 -0.2265  0.1472  0.0951
68337W        W11254  17.298   0.927  22.634 -0.1144  0.1349  0.2538
68338W        W11255  15.974  33.526  24.113 -0.1096  0.1068  0.3266
68339W        W11256  17.882   3.750  26.281 -0.2750 -0.1174 -0.1663
68340W        W11257  16.258   0.123  25.696 -0.1433 -0.1193  0.0607
68341W        W11258  17.382   1.435  24.852 -0.1182  0.0520  0.0112
68342W        W11259  17.731   0.512  23.593  0.7810  0.0386 -0.2676
68343W        W11260  17.861   2.699  27.304 -0.1512 -0.2118  0.2858
68344W        W11261  13.945   3.095  24.874 -0.0822 -0.0275  0.4428
68345W        W11262  13.018  34.075  23.862  0.0910  0.0298  0.1326
68346W        W11263  16.441   1.395  23.444  0.0349 -0.1604 -0.5266
68347W        W11264  16.682   2.352  23.886 -0.0077 -0.0578  0.0572
68348W        W11265  17.252   2.068  24.789  0.0773 -0.3418 -0.0314
68349W        W11266  14.151   0.355  24.604  0.2603 -0.1682 -0.1020
68350W        W11267  15.561   2.870  27.160 -0.3228  0.2048 -0.2955
68351W        W11268  14.082   2.333  29.121 -0.2707  0.1401  0.1928
68352W        W11269  15.198  34.001  22.709  0.0385 -0.2353 -0.1485
68353W        W11270  18.347   1.981  29.405  0.0782  0.1685 -0.0280
68354W        W11271  13.672   1.365  27.835 -0.3051 -0.1109 -0.2632
68355W        W11272  18.681  34.166  25.342  0.3030 -0.1962  0.0182
68356W        W11273  16.287   1.801  25.198 -0.0460 -0.2432  0.0030
68357W        W11274  16.858   3.613  25.936  0.2815 -0.0878 -0.0566
68358W        W11275  17.927   1.287  23.698 -0.1084  0.0923  0.1438
68359W        W11276  18.486   0.915  25.060  0.0802 -0.2932  0.0912
68360W        W11277  18.039   1.935  28.590 -0.2724  0.4875  0.2308
68361W        W11278  16.706   0.439  23.396  0.3151  0.0284 -0.2307
68362W        W11279  15.599   1.195  26.386  0.1812 -0.0207  0.0452
68363W        W11280  18.867   3.558  26.468 -0.0690  0.5321  0.0759
68364W        W11281  17.049   0.696  23.033 -0.0642 -0.1018 -0.0971
68365W        W11282  14.710   2.302  27.941 -0.1364  0.0544  0.2364
68366W        W11283  15.717   0.570  28.668  0.0995  0.1646  0.1466
68367W        W11284  16.524   3.521  27.274  0.1645 -0.1243 -0.3482
68368W        W11285  15.165   1.750  24.137 -0.2886  0.4500 -0.1489
68369W        W11286  14.054   1.478  24.108  0.1401  0.1830 -0.1454
68370W        W11287  16.161   1.844  26.925  0.1775  0.1491 -0.0594
68371W        W11288  14.173  34.228  24.365 -0.0917  0.3487 -0.2380
68372W        W11289  16.783   2.760  26.247 -0.0383 -0.3239 -0.1042
68373W        W11290  17.741   1.489  24.504 -0.0840 -0.1677  0.1324
68374W        W11291  13.584   2.729  28.043 -0.3846  0.3766  0.2673
68375W        W11292  17.382   1.788  27.678 -0.0282 -0.1328  0.1591
68376W        W11293  14.754   1.248  22.804 -0.3120 -0.1279  0.3842
68377W        W11294  17.981   2.156  23.942 -0.3262  0.0235  0.3242
68378W        W11295  18.015   2.211  22.687 -0.0082 -0.0886  0.2620
68379W        W11296  17.598   2.414  23.480 -0.3415 -0.0804 -0.1125
68380W        W11297  14.188   2.297  27.265 -0.0181 -0.2929  0.0784
68381W        W11298  15.989  34.405  26.005  0.2552 -0.1296 -0.4991
68382W        W11299  16.935   0.130  28.124 -0.0238 -0.1309  0.1390
68383W        W11300  14.078   0.518  26.290 -0.1289  0.0159 -0.0385
68384W        W11301  19.943   0.774  29.763 -0.1838  0.0311 -0.2897
68385W        W11302  14.589  34.379  24.076  0.1367 -0.1659 -0.3380
68386W        W11303  17.215   1.737  25.248  0.1883 -0.0843  0.1540
68387W        W11304  17.944   0.759  24.012  0.2250 -0.1060 -0.1245
68388W        W11305  15.313   1.908  24.630  0.1492 -0.2664  0.1698
68389W        W11306  18.422   0.924  29.421 -0.1769 -0.0804  0.2186
68390W        W11307  16.209   1.954  24.678 -0.3048  0.2564  0.1668
68391W        W11308  17.846   3.791  28.237  0.0309 -0.1007 -0.2188
68392W        W11309  16.560   3.333  25.682  0.0742 -0.2518 -0.1826
68393W        W11310  14.599   0.740  25.599  0.2570 -0.2075  0.0819
68394W        W11311  14.948  33.974  23.848 -0.2703 -0.1398  0.0037
68395W        W11312  14.108   2.112  23.308  0.2459  0.0368  0.1041
68396W        W11313  17.010   2.461  26.706  0.3197 -0.4016  0.2735
68397W        W11314  15.604  34.184  26.237 -0.0784 -0.0608  0.1954
68398W        W11315  18.152   4.795  25.202  0.0680 -0.1744 -0.1085
68399W        W11316  15.715   0.633  23.605 -0.2629 -0.1796 -0.0241
68400W        W11317  16.164   3.051  25.851  0.4707 -0.0595  0.2407
68401W        W11318  15.924   0.833  27.624  0.0213  0.0314  0.0260
68402W        W11319  17.239   3.592  26.693  0.1024  0.0229  0.0347
68403W        W11320  16.707   1.714  25.516  0.1450 -0.0411  0.1271
68404W        W11321  14.676   0.182  23.167  0.2678  0.4158 -0.0083
68405W        W11322  16.310   2.710  23.908 -0.0333 -0.2300  0.0177
68406W        W11323  15.140   3.747  23.481  0.0363 -0.0250 -0.2393
68407W        W11324  15.221   0.573  23.734  0.0222 -0.2592  0.0153
68408W        W11325  16.038   2.484  25.894  0.0631 -0.0896 -0.1783
68409W        W11326  16.337   1.735  27.685 -0.1409 -0.0783 -0.1825
68410W        W11327  13.920   0.356  27.206 -0.1116  0.1850  0.2558
68411W        W11328  17.501   1.350  29.355  0.0942 -0.2865  0.1436
68412W        W11329  15.668  34.209  24.031  0.0394 -0.1486 -0.0946
68413W        W11330  14.995   2.039  25.046  0.0305  0.1400 -0.1130
68414W        W11331  18.972  34.353  24.764 -0.0038  0.1140 -0.0262
68415W        W11332  18.837   2.877  23.775 -0.1332  0.0954  0.1212
68416W        W11333  16.078   0.941  27.118 -0.0679  0.0698  0.1393
68417W        W11334  17.708   3.373  26.031  0.1613 -0.2592  0.0036
68418W        W11335  15.396   0.792  21.665 -0.3053  0.1376 -0.0528
68419W        W11336  15.085  33.786  22.223  0.1710 -0.1972  0.2388
68420W        W11337  14.045   2.892  27.701 -0.2645  0.0861 -0.3968
68421W        W11338  18.170   3.128  25.376 -0.2495  0.4805 -0.2102
68422W        W11339  15.019   0.796  24.171  0.0345  0.0348  0.0751
68423W        W11340  17.906   1.131  21.701 -0.0800  0.1316 -0.1235
68424W        W11341  17.914   4.291  23.233  0.2396  0.1825 -0.0945
68425W        W11342  14.826   0.959  25.192  0.1993  0.1183 -0.0183
68426W        W11343  16.075   4.076  27.763  0.0676  0.2255  0.0718
68427W        W11344  15.867   3.330  26.139  0.2081  0.2383 -0.1135
68428W        W11345  16.145   0.781  25.314 -0.3684 -0.0557  0.0381
68429W        W11346  14.908  34.261  25.126 -0.3595 -0.1381  0.2335
68430W        W11347  19.002   0.640  25.679 -0.3870  0.1641 -0.0859
68431W        W11348  14.551   2.471  23.598  0.0739 -0.1972  0.1699
68432W        W11349  19.347   0.289  28.394  0.0438 -0.2374  0.4183
68433W        W11350  17.973   0.531  24.474  0.0622  0.0183 -0.2481
68434W        W11351  16.041   1.708  24.188 -0.2894 -0.4938  0.0166
68435W        W11352  18.853   2.076  29.095 -0.0526 -0.0162 -0.0581
68436W        W11353  16.781   1.811  22.378 -0.0324  0.2599 -0.2012
68437W        W11354  17.360   1.973  26.695 -0.3091  0.1313  0.1313
68438W        W11355  14.259  34.299  22.396 -0.2827  0.0103 -0.2052
68439W        W11356  17.532   1.453  28.031  0.0763 -0.3861 -0.1398
68440W        W11357  14.591   0.545  26.049  0.2834  0.3041  0.0243
68441W        W11358  14.164   2.082  26.783  0.1408  0.2098  0.1778
68442W        W11359  15.795   0.515  24.962  0.0721 -0.2331  0.1682
68443W        W11360  17.344   1.594  25.734  0.0341 -0.1989  0.0781
68444W        W11361  14.879   1.249  25.822  0.0071  0.0897 -0.1570
68445W        W11362  18.302   0.232  24.754 -0.2710  0.2511 -0.0787
68446W        W11363  16.985   4.135  23.671 -0.2326  0.2132  0.0850
68447W        W11364  14.450   0.030  24.987 -0.0782 -0.0198 -0.3130
68448W        W11365  16.796   0.563  24.753  0.0244  0.2187 -0.0294
68449W        W11366  15.951   2.237  26.747  0.0220 -0.2656 -0.3528
68450W        W11367  16.071   2.182  23.938 -0.0524 -0.2459 -0.0466
68451W        W11368  17.246   2.610  25.575  0.4196  0.5781  0.0752
68452W        W11369  13.605   1.625  25.098  0.2637 -0.0640 -0.0200
68453W        W11370  18.879  34.248  26.132 -0.1712 -0.0570  0.2215
68454W        W11371  13.344   2.449  25.290  0.1502  0.0432 -0.0224
68455W        W11372  16.022   0.785  23.997  0.1689  0.0202  0.4189
68456W        W11373  13.821   0.578  24.944 -0.3656 -0.4151  0.1231
68457W        W11374  17.815  33.608  23.729  0.1100  0.4379  0.0354
68458W        W11375  17.902   3.360  24.463 -0.0287 -0.0378 -0.2578
68459W        W11376  16.495   0.750  26.350  0.1092 -0.4124 -0.0226
68460W        W11377  15.835   0.764  26.529 -0.2065  0.2598 -0.4709
68461W        W11378  15.029  34.022  25.538 -0.0251  0.1286  0.1985
68462W        W11379  16.452   1.055  25.714  0.0425 -0.1943 -0.2855
68463W        W11380  16.981   2.402  22.879 -0.1733  0.0575  0.1087
68464W        W11381  16.924   3.168  24.992  0.1124 -0.3471  0.0965
68465W        W11382  17.983   1.922  25.434  0.1530 -0.1835 -0.3787
68466W        W11383  14.674  33.883  24.458 -0.0726  0.0126 -0.1742
68467W        W11384  16.531   2.309  25.490 -0.0274 -0.2046 -0.4750
68468W        W11385  15.868   0.452  25.616 -0.3835  0.2963  0.2518
68469W        W11386  16.383   3.237  25.171  0.1691 -0.0470  0.4099
68470W        W11387  16.537   3.252  23.270 -0.1762  0.1065  0.0747
68471W        W11388  16.023  34.493  23.718  0.0367  0.1094 -0.5259
68472W        W11389  15.953   0.987  24.496  0.1842  0.2359 -0.2081
68473W        W11390  16.467   2.226  26.756  0.0596 -0.0452 -0.2992
68474W        W11391  16.045   2.777  26.984 -0.1261  0.1254 -0.1834
68475W        W11392  15.822   1.699  25.480 -0.0831  0.0485 -0.3573
68476W        W11393  16.013   0.175  25.205 -0.2392  0.0902 -0.0464
68477W        W11394  16.549   1.874  23.611 -0.1133 -0.1981  0.4253
68478W        W11395  17.928   2.617  26.305  0.3015  0.1357 -0.0562
68479W        W11396  16.052   0.361  27.805  0.1624 -0.3275 -0.0330
68480W        W11397  15.777   2.607  28.783 -0.0300  0.0054 -0.2008
68481W        W11398  16.887   1.099  26.652 -0.0319  0.0142 -0.2256
68482W        W11399  17.788   3.791  23.536 -0.0498  0.0221  0.2310
68483W        W11400  17.844   0.985  26.685 -0.0048  0.2609  0.0771
68484W        W11401  14.709   0.033  24.455  0.1588 -0.7215  0.0299
68485W        W11402  13.619   1.817  28.117 -0.1458  0.0684 -0.0968
68486W        W11403  17.760   1.515  25.390  0.0354 -0.0412  0.1325
68487W        W11404  18.175  34.180  28.373 -0.1934 -0.2089  0.2858
68488W        W11405  15.509   1.544  23.859  0.0193  0.1021 -0.2308
68489W        W11406  15.317  33.884  24.245 -0.1434 -0.1730  0.0713
68490W        W11407  15.286   3.025  26.364  0.0594  0.3232  0.3400
68491W        W11408  17.660   0.935  24.422 -0.0798  0.1206 -0.3795
68492W        W11409  15.302  34.593  23.089  0.0680 -0.0612 -0.0012
68493W        W11410  17.920   1.116  25.747 -0.1242 -0.2128 -0.2972
68494W        W11411  17.374   0.564  29.425  0.1317  0.0877  0.3615
68495W        W11412  14.662   0.458  24.816 -0.1852  0.0709  0.0189
68496W        W11413  15.970  34.199  28.752  0.0083 -0.2331  0.0406
68497W        W11414  15.849  34.340  25.022 -0.0452  0.1123  0.0926
68498W        W11415  18.047   1.520  24.960  0.1436  0.1824 -0.0177
68499W        W11416  14.832   2.600  26.738  0.1630  0.1181 -0.0155
68500W        W11417  17.064   3.772  27.633 -0.0062  0.1208  0.3087
68501W        W11418  16.255   2.585  26.419  0.1628  0.1627  0.1050
68502W        W11419  17.006   2.630  21.770 -0.1315  0.2134  0.0818
68503W        W11420  13.738   0.094  23.726  0.0331 -0.2134  0.0965
68504W        W11421  16.185   1.475  25.773 -0.1026  0.0930 -0.0346
68505W        W11422  18.291   2.617  25.493 -0.1830  0.3653  0.0681
68506W        W11423  15.171   1.368  23.273 -0.1693 -0.0574  0.0921
68507W        W11424  17.095   1.436  26.945 -0.0672  0.1626 -0.2081
68508W        W11425  16.542   2.291  26.158 -0.0863 -0.2324  0.0944
68509W        W11426  17.212   0.900  24.931 -0.0977 -0.0837 -0.2085
68510W        W11427  16.641   0.488  23.860  0.1241  0.2409  0.1751
68511W        W11428  15.360   1.817  25.297  0.0189 -0.2381  0.3626
68512W        W11429  17.680   2.914  26.872 -0.1365  0.1975 -0.0817
68513W        W11430  17.688   3.145  27.509  0.0537  0.1641  0.0552
68514W        W11431  18.145   0.650  25.501 -0.1742  0.2359  0.1745
68515W        W11432  15.919   1.126  27.998  0.1645  0.1251  0.0712
68516W        W11433  15.832   2.779  25.514 -0.2248  0.0739 -0.3687
68517W        W11434  16.785   1.884  25.051 -0.0819 -0.2927 -0.0958
68518W        W11435  14.573   3.089  27.561 -0.2773  0.3080  0.0675
68519W        W11436  17.510   4.048  26.596 -0.0305  0.2224 -0.1599
68520W        W11437  15.656   0.106  22.386  0.0698 -0.0758 -0.2882
68521W        W11438  16.449  34.528  26.640  0.1641  0.0306 -0.0900
68522W        W11439  17.316   1.189  26.397  0.1303  0.0866 -0.0508
68523W        W11440  16.953   3.501  25.401 -0.1702  0.0829  0.0218
68524W        W11441  14.687   2.201  26.995  0.3388 -0.1616  0.1326
68525W        W11442  17.726   1.168  27.140  0.1217 -0.1389  0.1448
68526W        W11443  15.843   0.688  21.001 -0.3594 -0.0562 -0.1585
68527W        W11444  16.058   0.367  26.911 -0.0921 -0.1192  0.0811
68528W        W11445  14.769   2.697  23.132 -0.0913  0.0004  0.2136
68529W        W11446  17.011   2.231  25.410 -0.0046  0.2034  0.2082
68530W        W11447  16.054   1.676  23.640 -0.1531  0.0346 -0.2198
68531W        W11448  13.297  33.495  26.190  0.0588 -0.1528 -0.1051
68532W        W11449  15.609   3.305  24.102 -0.1443  0.3399  0.1690
68533W        W11450  14.391  33.994  23.796 -0.1774 -0.0910 -0.0093
68534W        W11451  15.403   0.015  24.285  0.1585 -0.0828  0.4863
68535W        W11452  15.717   3.817  25.799 -0.1527  0.2938  0.0984
68536W        W11453  18.744   3.266  28.284 -0.2521 -0.0867 -0.1332
68537W        W11454  15.560  33.617  22.233  0.0505  0.0179  0.1894
68538W        W11455  17.825   2.409  28.666  0.0345 -0.2183  0.1461
68539W        W11456  15.085   0.371  24.527 -0.1258 -0.0651  0.2527
68540W        W11457  15.504   0.473  27.716  0.1463  0.0458 -0.0464
68541W        W11458  16.551   3.362  26.658  0.1476  0.1769 -0.2233
68542W        W11459  15.144   2.529  26.311  0.0045 -0.1038 -0.1162
68543W        W11460  15.464   2.793  24.180  0.2085  0.1122 -0.2995
68544W        W11461  16.210  33.857  24.343  0.0500  0.2168 -0.1420
68545W        W11462  16.945   1.582  26.495 -0.1136 -0.4251 -0.6225
68546W        W11463  16.312   2.386  24.437  0.0211  0.1976 -0.0792
68547W        W11464  16.953   2.095  26.387 -0.2578 -0.2110  0.4552
68548W        W11465  16.344   2.795  25.487 -0.0252  0.2737  0.0738
68549W        W11466  12.706   1.844  24.372  0.0913  0.0844 -0.1672
68550W        W11467  16.029   3.318  24.737 -0.0080  0.3979 -0.1549
68551W        W11468  18.299   2.526  27.871  0.3511  0.0262 -0.0327
68552W        W11469  17.015   3.203  24.437 -0.0419 -0.0632  0.2016
68553W        W11470  13.870   2.379  26.600  0.2238  0.0589 -0.1053
68554W        W11471  14.847   0.053  27.406 -0.2793  0.0422 -0.0950
68555W        W11472  15.727   4.357  23.726 -0.0377 -0.1921 -0.0885
68556W        W11473  16.127  33.011  23.918 -0.3324 -0.1205 -0.0868
68557W        W11474  15.065   1.176  23.820 -0.1596 -0.3186  0.0237
68558W        W11475  15.020   2.934  27.371 -0.0988 -0.1900 -0.2016
68559W        W11476  15.477   1.890  27.730  0.1084  0.2208 -0.0130
68560W        W11477  16.002   4.029  23.456  0.1368 -0.3224  0.1513
68561W        W11478  17.720   1.874  24.840 -0.1289  0.1104 -0.2040
68562W        W11479  16.392   0.245  24.241 -0.2277  0.1829 -0.0862
68563W        W11480  17.575   2.303  27.078  0.1562 -0.0998  0.2740
68564W        W11481  15.184  34.187  23.417 -0.1543 -0.0947 -0.2420
68565W        W11482  15.482   1.480  24.492  0.1378 -0.1076  0.0608
68566W        W11483  14.538   3.206  24.189  0.3115 -0.0437  0.0940
68567W        W11484  16.737   0.991  23.429 -0.2529  0.0965 -0.1763
68568W        W11485  14.278   1.474  23.614  0.2879 -0.2828 -0.1668
68569W        W11486  18.858   2.640  27.591 -0.0248  0.2096  0.2250
68570W        W11487  15.936   0.503  24.380 -0.1166  0.3754  0.0194
68571W        W11488  18.248   2.009  24.949 -0.0076 -0.2840  0.3387
68572W        W11489  20.168   2.313  23.686  0.0709  0.1607 -0.3736
68573W        W11490  17.498   3.675  27.792 -0.3056  0.0862 -0.0361
68574W        W11491  15.793   0.995  25.657  0.2354  0.0087 -0.0114
68575W        W11492  14.840  33.492  24.827 -0.3232 -0.2179 -0.2890
68576W        W11493  17.409   2.742  27.375 -0.1869 -0.1583 -0.1196
68577W        W11494  17.320   0.969  27.824 -0.1662 -0.1722  0.0463
68578W        W11495  14.337   4.448  27.459 -0.1627  0.0649  0.0622
68579W        W11496  16.779   0.858  22.614 -0.0596 -0.4368  0.0885
68580W        W11497  14.219  33.727  26.297 -0.1389 -0.1107  0.0011
68581W        W11498  16.388   3.214  23.782  0.5102  0.1104 -0.2261
68582W        W11499  18.056  33.834  25.703  0.0263  0.2604 -0.1427
68583W        W11500  15.102   4.085  24.446 -0.1778 -0.0450  0.0435
68584W        W11501  16.055   2.392  25.322  0.1082  0.0132  0.1333
68585W        W11502  14.544   3.279  25.080  0.2098 -0.0964  0.2090
68586W        W11503  14.119   1.923  24.652  0.0945 -0.1376  0.0842
68587W        W11504  16.188   4.247  26.443  0.2526  0.0800 -0.1474
68588W        W11505  13.945   0.045  24.956 -0.0822 -0.2301  0.0948
68589W        W11506  17.981   2.511  26.849  0.1842  0.0543 -0.0872
68590W        W11507  17.850   1.905  26.699 -0.3378 -0.1718  0.1715
68591W        W11508  16.554  33.392  28.488 -0.3085 -0.2622  0.0462
68592W        W11509  15.502   4.650  24.214  0.2753 -0.0858  0.1845
68593W        W11510  18.889   0.446  24.156 -0.0992 -0.0055 -0.0100
68594W        W11511  15.994   0.636  23.006 -0.2279 -0.0817 -0.1615
68595W        W11512  14.959  34.237  26.174 -0.3516 -0.3029 -0.2001
68596W        W11513  15.226   0.401  25.891  0.0666 -0.4002  0.3140
68597W        W11514  18.302   2.165  26.999  0.4291  0.2023 -0.0123
68598W        W11515  15.032  34.306  24.294 -0.1020  0.1629 -0.3767
68599W        W11516  18.032   3.704  27.797 -0.2679 -0.1362 -0.3133
68600W        W11517  12.239  32.934  23.685 -0.0771 -0.2303  0.0133
68601W        W11518  18.145   1.078  24.652 -0.0588  0.0137 -0.1389
68602W        W11519  14.088   0.683  25.613  0.0106  0.1240 -0.0780
68603W        W11520  16.838   1.940  27.640  0.2004  0.0966  0.0710
68604W        W11521  17.450   3.323  27.073  0.1153 -0.1967 -0.0975
68605W        W11522  15.667  33.278  23.730 -0.2544  0.1021  0.0420
68606W        W11523  19.534   1.272  24.218 -0.0156  0.0411  0.3300
68607W        W11524  18.584   2.886  27.980  0.1490  0.1724 -0.0601
68608W        W11525  17.228   1.645  22.101 -0.0609  0.3342  0.0487
68609W        W11526  17.788   1.711  23.972 -0.0415  0.1480 -0.0944
68610W        W11527  16.071   4.070  25.577 -0.0848 -0.0137  0.1018
68611W        W11528  13.788  33.471  26.170 -0.2652  0.3642  0.3054
68612W        W11529  16.892   5.361  26.412  0.0934  0.2094  0.0879
68613W        W11530  18.916   4.959  25.049 -0.3924 -0.1945 -0.1458
68614W        W11531  16.021  33.040  25.611 -0.0615  0.0913 -0.2198
68615W        W11532  16.027   1.126  26.099  0.1559 -0.2464  0.2617
68616W        W11533  14.653   2.441  25.334 -0.1459 -0.3093 -0.3792
68617W        W11534  17.098   1.726  24.489  0.0068  0.2215  0.0242
68618W        W11535  18.716   2.441  28.166 -0.1856 -0.0387  0.0595
68619W        W11536  14.909   1.749  23.184 -0.2657 -0.0639 -0.1887
68620W        W11537  16.556   1.362  26.955 -0.2924  0.1550  0.1669
68621W        W11538  17.342   3.679  26.154  0.1164 -0.0552  0.4461
68622W        W11539  16.201   3.033  26.502 -0.3001 -0.1050 -0.3470
68623W        W11540  14.589   0.539  24.195  0.0042  0.0705  0.1034
68624W        W11541  17.192   2.920  26.747 -0.2058  0.0599 -0.2119
68625W        W11542  15.656   0.258  23.031  0.5202 -0.1996  0.0117
68626W        W11543  17.560   2.682  23.055  0.0429  0.0909  0.0313
68627W        W11544  18.720   1.249  26.712  0.1133 -0.1537  0.2190
68628W        W11545  17.095   0.657  23.564  0.0529 -0.0019  0.2210
68629W        W11546  17.352   2.975  25.260 -0.0724  0.0841 -0.2180
68630W        W11547  16.509   1.229  26.321  0.0404  0.2332  0.0642
68631W        W11548  18.724   0.465  25.034 -0.5357  0.2142  0.0736
68632W        W11549  17.763   0.618  25.814 -0.1961  0.0561  0.2138
68633W        W11550  18.212   2.973  27.594  0.0556  0.3362 -0.1997
68634W        W11551  12.319   0.560  22.550 -0.0410 -0.0052 -0.0661
68635W        W11552  15.003   0.257  24.031  0.1707 -0.1735 -0.1918
68636W        W11553  14.769   0.575  27.306 -0.1372 -0.1386  0.3229
68637W        W11554  16.475  34.308  27.418  0.0593 -0.0316  0.1080
68638W        W11555  16.098   2.700  27.512 -0.1046  0.0386 -0.4045
68639W        W11556  14.931  34.537  25.758 -0.2349 -0.0323 -0.1341
68640W        W11557  16.952  34.230  25.807  0.0360 -0.1062  0.1936
68641W        W11558  16.910   4.218  24.172 -0.0203  0.1218 -0.3682
68642W        W11559  15.179  33.452  23.880  0.0485  0.2902 -0.0078
68643W        W11560  13.821  34.552  26.067  0.0150 -0.3101  0.1001
68644W        W11561  17.668   4.293  25.485 -0.2884  0.1537  0.5123
68645W        W11562  16.889   1.687  23.219  0.1742  0.3220  0.0432
68646W        W11563  13.227   1.828  24.595 -0.2731  0.2428  0.1157
68647W        W11564  19.077   2.399  26.742  0.1702  0.0514  0.0996
68648W        W11565  14.916   0.607  21.823 -0.1323 -0.1087 -0.0432
68649W        W11566  13.477   2.002  27.691 -0.0487  0.0411 -0.1511
68650W        W11567  16.115   1.160  26.624  0.3268  0.2230 -0.0441
68651W        W11568  15.330   1.661  21.677 -0.0314 -0.2219 -0.2385
68652W        W11569  16.158   2.034  25.695  0.3112 -0.0720  0.2896
68653W        W11570  17.713   3.804  26.981 -0.1538 -0.0405 -0.0086
68654W        W11571  19.118   4.641  22.753 -0.0679  0.0933 -0.4966
68655W        W11572  17.543   3.006  26.403  0.0178 -0.2532 -0.0770
68656W        W11573  15.339   3.970  26.600  0.2047 -0.0368  0.0211
68657W        W11574  15.922   2.985  25.072 -0.1299  0.0928 -0.0082
68658W        W11575  16.820   1.346  24.234  0.3224  0.0586 -0.0319
68659W        W11576  16.844   2.497  25.824 -0.0471  0.0764  0.3399
68660W        W11577  17.676   1.293  23.308  0.1560  0.1922 -0.0741
68661W        W11578  16.927   0.057  27.349 -0.1746 -0.3550 -0.0767
68662W        W11579  16.550   1.364  25.180  0.2730  0.1800  0.2071
68663W        W11580  15.757   0.169  28.185  0.0233 -0.0558  0.0802
68664W        W11581  15.782   2.399  27.761  0.0203  0.0171 -0.2049
68665W        W11582  18.155   1.697  27.313  0.0111 -0.1519 -0.0102
68666W        W11583  14.450   1.240  25.460  0.0994 -0.0758 -0.0065
68667W        W11584  14.513   0.039  25.544 -0.2234  0.4137  0.3573
68668W        W11585  17.782   2.668  25.384 -0.2703 -0.3344 -0.1240
68669W        W11586  13.896   0.899  26.031 -0.1030  0.1699  0.0820
68670W        W11587  15.716   0.231  21.852 -0.0007 -0.2496 -0.0462
68671W        W11588  16.942   0.992  27.145 -0.1835  0.1716  0.3217
68672W        W11589  16.809   3.688  24.599  0.1233  0.1567  0.1057
68673W        W11590  16.764   1.099  24.810 -0.1672  0.2038  0.1527
68674W        W11591  15.959   1.149  22.141 -0.1221 -0.2991  0.1270
68675W        W11592  17.291   0.202  23.182  0.2338  0.0701  0.0238
68676W        W11593  18.460   4.323  26.899 -0.0011 -0.0098 -0.0730
68677W        W11594  18.770   2.626  27.079  0.1011  0.0865 -0.3782
68678W        W11595  16.597   1.618  24.592  0.1647  0.3272  0.1378
68679W        W11596  18.100   1.450  26.689 -0.3933 -0.0568  0.1014
68680W        W11597  15.707   0.304  26.475 -0.0863  0.0605 -0.0465
68681W        W11598  15.082   0.794  22.756  0.0685  0.3201  0.0319
68682W        W11599  15.419  34.295  25.750 -0.1262  0.2851 -0.0017
68683W        W11600  17.250   1.574  28.609  0.1437 -0.1938 -0.1643
68684W        W11601  16.896   0.817  24.328  0.0887  0.2564 -0.0807
68685W        W11602  17.216  34.558  24.632 -0.4048 -0.1866  0.1814
68686W        W11603  17.511   2.141  25.720  0.0282  0.1832  0.0154
68687W        W11604  17.491   2.544  26.574  0.0963  0.1167 -0.1888
68688W        W11605  16.403   3.268  31.754  0.2791  0.3161 -0.3934
68689W        W11606  15.023  34.263  28.772 -0.0332  0.2185 -0.0756
68690W        W11607  18.135   0.695  28.049  0.1468 -0.1676  0.1416
68691W        W11608  16.142   2.086  26.270 -0.3324 -0.2105  0.0988
68692W        W11609  13.487   0.213  28.691 -0.0313 -0.5516 -0.1203
68693W        W11610  15.469   3.394  29.107  0.1842 -0.2894  0.0479
68694W        W11611  15.688   0.357  30.653 -0.3597 -0.0844  0.0209
68695W        W11612  17.936   1.034  31.910 -0.0480  0.2116  0.1341
68696W        W11613  18.077   2.584  29.121  0.1933  0.0286 -0.2603
68697W        W11614  18.983   5.195  27.829 -0.0328  0.1626  0.2461
68698W        W11615  14.675   2.231  31.546  0.0417  0.0596  0.1823
68699W        W11616  17.307   0.538  31.068  0.2318  0.1024 -0.0448
68700W        W11617  14.316  32.595  29.606  0.0822 -0.1059  0.1451
68701W        W11618  13.705  33.580  31.465 -0.1727 -0.3910 -0.1087
68702W        W11619  16.355   2.891  30.895 -0.1841  0.2762 -0.1482
68703W        W11620  16.350   1.235  27.752  0.2240  0.0401 -0.1296
68704W        W11621  13.533  34.390  27.929 -0.2462  0.2366 -0.0904
68705W        W11622  16.514   0.699  30.727 -0.1100 -0.1999  0.0856
68706W        W11623  18.336   5.185  27.535  0.0620  0.1853  0.2535
68707W        W11624  15.679   1.234  31.399  0.0011 -0.1966  0.0918
68708W        W11625  14.850   1.682  31.310  0.2734  0.1273  0.0953
68709W        W11626  17.058   2.946  28.253 -0.0425  0.1076 -0.2305
68710W        W11627  15.098   1.264  27.625  0.0906 -0.2696 -0.0166
68711W        W11628  13.234   1.494  31.399  0.1048 -0.0047 -0.2301
68712W        W11629  16.197   2.793   1.129 -0.0727  0.0358 -0.0967
68713W        W11630  17.033   0.595  28.886 -0.0114 -0.0272  0.0302
68714W        W11631  19.171   1.797  28.684 -0.0500  0.0487 -0.3822
68715W        W11632  16.775   4.128  28.732  0.1597 -0.0232  0.3663
68716W        W11633  15.524   2.664  30.058  0.4122  0.3680 -0.3103
68717W        W11634  19.169   3.302  30.606 -0.0180 -0.3040 -0.0009
68718W        W11635  14.637   1.820  28.685  0.2018 -0.4558  0.5166
68719W        W11636  14.509   0.593  29.536 -0.3260 -0.1323  0.0506
68720W        W11637  16.772   1.878  29.549  0.0720  0.1200  0.2297
68721W        W11638  18.251   1.596  29.030  0.0684  0.2389  0.4168
68722W        W11639  18.104   3.836  28.782 -0.2141  0.3699 -0.1564
68723W        W11640  14.112   1.239  30.951  0.2659 -0.4726 -0.0458
68724W        W11641  15.663   3.731  27.419  0.0631 -0.1964  0.0097
68725W        W11642  17.253   3.358  31.669 -0.0841 -0.1613 -0.1176
68726W        W11643  16.933   1.354  29.433 -0.2016 -0.1116  0.0130
68727W        W11644  14.151   0.594  31.691 -0.2831  0.0644 -0.0819
68728W        W11645  16.651   3.699  30.906  0.1615 -0.1104 -0.0896
68729W        W11646  17.151   1.865  27.218  0.3115  0.4460  0.1362
68730W        W11647  16.556   0.346  28.983  0.0611 -0.0888  0.0754
68731W        W11648  14.554   4.082   0.454 -0.2923 -0.0555  0.4214
68732W        W11649  15.002   0.505  27.854 -0.0384  0.0074 -0.0128
68733W        W11650  18.847   1.269  31.017 -0.0284 -0.0361 -0.0346
68734W        W11651  15.007   2.655  29.184  0.0048  0.3058  0.0829
68735W        W11652  17.074   2.052  28.095  0.1760  0.1844 -0.0976
68736W        W11653  14.210   1.872  26.312  0.1616 -0.2633 -0.0823
68737W        W11654  15.193   0.047  29.726  0.0091  0.1087  0.0049
68738W        W11655  15.250  32.958  28.691  0.0791  0.0736  0.0212
68739W        W11656  13.862   2.808  28.937  0.0060  0.2653 -0.3751
68740W        W11657  12.963  34.023  28.639  0.2966 -0.1453  0.2137
68741W        W11658  17.753   3.437  30.064  0.1912  0.0279 -0.0903
68742W        W11659  15.544   1.010  29.888 -0.0036 -0.4176 -0.0658
68743W        W11660  16.123   0.787  31.643 -0.0817  0.0992 -0.0457
68744W        W11661  14.382   2.574  27.685  0.0360  0.0064 -0.0818
68745W        W11662  16.209   1.326  28.398 -0.0426  0.0753 -0.2748
68746W        W11663  17.506   3.142  28.038 -0.0221 -0.2034 -0.0912
68747W        W11664  16.956   1.360  28.907  0.0537  0.1032 -0.1908
68748W        W11665  16.030   2.414  29.219 -0.4986 -0.1281  0.0242
68749W        W11666  16.080   1.408  27.323  0.0970 -0.3629 -0.0381
68750W        W11667  13.684   3.095  30.625  0.1446  0.1852  0.1059
68751W        W11668  13.547   1.631  29.863  0.0605 -0.2541 -0.3305
68752W        W11669  14.263   1.206  27.595  0.4397  0.4164 -0.2079
68753W        W11670  17.801   2.749  29.936  0.1058  0.1637  0.0676
68754W        W11671  14.717   2.215  29.679  0.3306  0.2199  0.0712
68755W        W11672  16.928   0.828  29.463  0.4073 -0.2781  0.0516
68756W        W11673  13.766   2.077  30.093 -0.1469  0.1350 -0.1516
68757W        W11674  16.001   3.757  29.261 -0.0445  0.0743  0.0456
68758W        W11675  17.656   2.094  26.265  0.0818 -0.2077  0.0139
68759W        W11676  15.888  34.166  30.402 -0.0070  0.1998  0.1439
68760W        W11677  15.710  33.859  31.336 -0.3158  0.2665 -0.1026
68761W        W11678  16.335   3.393  29.038  0.0754  0.0040 -0.0614
68762W        W11679  15.716   4.379  30.385 -0.0689  0.3131  0.1946
68763W        W11680  19.841   2.610  30.841 -0.4281 -0.0178 -0.1545
68764W        W11681  18.380   2.046  27.902  0.0256  0.2728  0.0206
68765W        W11682  16.073   2.084  29.616  0.0070 -0.0797 -0.0271
68766W        W11683  15.980   1.936  31.659 -0.1937 -0.1728  0.0829
68767W        W11684  14.837   3.364  31.504 -0.0036  0.2861 -0.2397
68768W        W11685  12.697   2.554  26.123  0.0736 -0.0489 -0.1446
68769W        W11686  15.370   1.848  30.226 -0.1258  0.0280 -0.2335
68770W        W11687  14.735   1.015  29.702 -0.0902  0.1327  0.1560
68771W        W11688  13.037  33.210  28.499  0.0972  0.0991 -0.2734
68772W        W11689  15.493   3.514  30.563  0.0445 -0.0982 -0.2430
68773W        W11690  17.005   0.540   0.017 -0.1303  0.0481 -0.1745
68774W        W11691  14.672  32.005  29.594 -0.1577  0.1052  0.1883
68775W        W11692  16.468   1.125  29.648 -0.0302 -0.2681 -0.1549
68776W        W11693  14.805   0.207  29.413  0.0069 -0.1268 -0.2537
68777W        W11694  17.969   3.321  29.110  0.2068 -0.0741 -0.0563
68778W        W11695  18.095   0.223  29.951  0.3072  0.2165 -0.1870
68779W        W11696  15.930   1.914  27.322  0.3639 -0.0858 -0.1067
68780W        W11697  14.837   1.804  31.822 -0.1590 -0.1784  0.0972
68781W        W11698  16.444   0.866  29.235 -0.1156  0.1462  0.1677
68782W        W11699  14.019   0.443   1.008  0.1120 -0.1868 -0.0744
68783W        W11700  14.903  33.240  28.804 -0.1301 -0.1766  0.1747
68784W        W11701  17.193   1.909  30.838  0.0858  0.0001 -0.3679
68785W        W11702  12.797  33.622  25.428  0.0766  0.1090  0.2170
68786W        W11703  15.235   1.999  31.573 -0.0419 -0.4096 -0.1149
68787W        W11704  15.681   1.232  29.080  0.2833 -0.0667  0.0940
68788W        W11705  14.560   0.335  27.717 -0.3160  0.0328  0.3492
68789W        W11706  16.989   1.695  31.475  0.2310  0.2339 -0.0776
68790W        W11707  18.335   1.415  29.549 -0.0419 -0.1674  0.0564
68791W        W11708  17.870   1.716  29.451  0.1746 -0.1795  0.0751
68792W        W11709  16.528   3.225  26.148  0.0533  0.0804  0.0389
68793W        W11710  15.041   0.546  29.755  0.0834  0.3084  0.0114
68794W        W11711  16.577   2.731  28.023 -0.0401  0.0096  0.2896
68795W        W11712  15.608   2.043  29.421 -0.2119  0.0104 -0.0088
68796W        W11713  14.700   2.640  29.871  0.1377  0.0993 -0.3063
68797W        W11714  12.950  33.815  25.954  0.0540  0.1420  0.2583
68798W        W11715  19.501   5.371  29.439 -0.0069  0.2306  0.0818
68799W        W11716  16.827   3.858  29.942  0.2224 -0.2278 -0.0613
68800W        W11717  14.366   3.328  30.155 -0.3004  0.0947 -0.1783
68801W        W11718  16.157   1.822  31.049  0.0296  0.1529  0.2154
68802W        W11719  15.943   3.384  30.357  0.0257  0.0201 -0.3887
68803W        W11720  15.033   2.142  31.162  0.1380  0.0553 -0.0239
68804W        W11721  14.586   0.339  26.516  0.1116 -0.1122 -0.2672
68805W        W11722  16.295   3.986  28.781 -0.1461 -0.2238  0.0595
68806W        W11723  16.372   4.433  27.520 -0.1178  0.1109 -0.1205
68807W        W11724  15.314   0.769  26.465  0.0684 -0.3135  0.2593
68808W        W11725  14.311   4.368  30.497 -0.2233 -0.3795 -0.0637
68809W        W11726  16.748   1.321  31.712  0.1746  0.0415 -0.1052
68810W        W11727  13.852   2.974   0.129  0.2389  0.2685 -0.1118
68811W        W11728  16.798   1.313  30.484 -0.0697 -0.1110 -0.0336
68812W        W11729  14.329   0.275  28.206 -0.0210  0.0289  0.1762
68813W        W11730  15.352   2.626  31.024  0.1771  0.1053  0.1391
68814W        W11731  15.126   0.085  30.612 -0.2402 -0.0365  0.1462
68815W        W11732  17.911   2.242  28.018 -0.1346 -0.3141 -0.2124
68816W        W11733  16.515   3.265   0.323  0.1535  0.0907 -0.0584
68817W        W11734  17.353   1.802  30.309 -0.1147 -0.4967 -0.0500
68818W        W11735  15.335   1.104  28.344 -0.1440 -0.0676 -0.1158
68819W        W11736  15.472   3.327  27.073 -0.1849 -0.0657 -0.3134
68820W        W11737  15.768   1.494   0.833  0.0380  0.1585 -0.0424
68821W        W11738  15.769   2.968  29.740 -0.0632  0.2659 -0.3245
68822W        W11739  15.399   3.095  30.928 -0.2068  0.1544 -0.1097
68823W        W11740  15.633   0.370  29.162  0.0710  0.3216 -0.0505
68824W        W11741  17.535   2.309  29.140  0.2045 -0.0532  0.1451
68825W        W11742  16.035   1.153  29.378  0.2107 -0.2498  0.0643
68826W        W11743  17.043   1.383   0.517  0.2544  0.0470  0.2154
68827W        W11744  18.446   3.770  27.497 -0.0066  0.0845  0.0291
68828W        W11745  14.430  33.103  29.671  0.0444 -0.1479  0.0311
68829W        W11746  17.725   1.507  28.912  0.0799 -0.1593  0.2262
68830W        W11747  15.290  34.155  29.833  0.1252 -0.1708 -0.3599
68831W        W11748  14.946   3.246  27.936  0.0997 -0.0225  0.0539
68832W        W11749  17.730  34.387  31.271 -0.0303  0.4602  0.0287
68833W        W11750  15.132   1.037  30.702 -0.0186  0.2681 -0.0411
68834W        W11751  16.216   1.026   0.269 -0.0190 -0.2667 -0.0558
68835W        W11752  17.792   0.502  31.129  0.0385 -0.0314 -0.0629
68836W        W11753  15.487   1.441  28.045  0.2097  0.0414  0.2405
68837W        W11754  15.483   1.903  28.214 -0.1604  0.0170 -0.0682
68838W        W11755  15.097   2.112  29.345  0.1004 -0.0587  0.2383
68839W        W11756  14.806  34.509  31.949 -0.1713 -0.1687 -0.1758
68840W        W11757  14.326   2.519  29.522 -0.0443 -0.1071  0.2469
68841W        W11758  13.203   4.147  31.360 -0.0001 -0.1431 -0.1793
68842W        W11759  19.088   2.576  31.388  0.0675 -0.4214  0.1214
68843W        W11760  16.271   1.673  28.820  0.4617  0.0829 -0.0424
68844W        W11761  14.797   1.195   1.057 -0.2336  0.0095 -0.0343
68845W        W11762  14.742   0.521  28.885 -0.2318 -0.1740 -0.0136
68846W        W11763  16.001   1.696  29.311 -0.0119 -0.1213  0.0131
68847W        W11764  16.703   1.539  27.398 -0.1029 -0.3485 -0.1788
68848W        W11765  15.509  34.278  28.041 -0.1214  0.0216  0.0519
68849W        W11766  15.710   3.676  31.223 -0.0449 -0.0421 -0.1948
68850W        W11767  15.584   2.586  28.297  0.1349  0.2002 -0.1688
68851W        W11768  15.077   2.986  31.282  0.0798  0.4897 -0.0279
68852W        W11769  15.009   4.278  28.292  0.0425  0.0978  0.3157
68853W        W11770  16.661   0.855  31.587  0.0214 -0.2897 -0.0317
68854W        W11771  15.802   2.196  30.048  0.3286 -0.0245  0.1558
68855W        W11772  15.888   1.524  27.768 -0.0018  0.0194 -0.0502
68856W        W11773  15.490   1.503  28.648 -0.3320 -0.2825  0.0418
68857W        W11774  15.143  34.419  30.192 -0.2968 -0.1414 -0.0510
68858W        W11775  17.501   0.723  26.390  0.1243  0.1006  0.0091
68859W        W11776  16.390   1.705  30.501  0.1465  0.0887  0.1936
68860W        W11777  14.598  34.568  29.062 -0.0571 -0.1042 -0.1416
68861W        W11778  12.850   4.458  30.083 -0.3203  0.3263 -0.2069
68862W        W11779  17.220   1.180  30.241 -0.1533 -0.1065 -0.1428
68863W        W11780  16.868   1.549  27.972 -0.1290  0.0954  0.1668
68864W        W11781  17.493   0.931  29.753  0.0721  0.1747 -0.1800
68865W        W11782  14.414   2.098   0.026 -0.1442  0.1443  0.3018
68866W        W11783  13.988   2.967  26.680  0.1723  0.0910 -0.1974
68867W        W11784  16.665   3.299  29.685 -0.2223  0.3540 -0.0007
68868W        W11785  14.139  33.916  29.331  0.2663  0.0411 -0.0214
68869W        W11786  15.584  34.390  28.984 -0.2356  0.2221  0.1835
68870W        W11787  15.880   3.912  30.743  0.1686  0.0052  0.2148
68871W        W11788  16.853   1.929  26.837 -0.1334  0.1323  0.0475
68872W        W11789  15.202   2.588  29.688  0.1055  0.1120 -0.0024
68873W        W11790  13.618   0.962  28.781  0.1658 -0.3173  0.2302
68874W        W11791  17.037   3.552  29.377  0.0600  0.0452  0.1373
68875W        W11792  14.069   2.806  30.411 -0.1654 -0.1174 -0.0485
68876W        W11793  13.482  34.164  30.400 -0.1310 -0.1052 -0.0582
68877W        W11794  14.971   1.511  28.011 -0.0066 -0.1967 -0.1544
68878W        W11795  16.402   1.267  30.769  0.0268  0.0942  0.0539
68879W        W11796  16.797   3.627  31.527 -0.1152  0.0163 -0.0033
68880W        W11797  14.499   2.707   0.705 -0.2525 -0.0102  0.0844
68881W        W11798  15.390   0.354  31.035  0.0183 -0.0347 -0.2263
68882W        W11799  19.311   2.978  27.360  0.1746 -0.2802 -0.1767
68883W        W11800  18.156   2.043  30.806  0.5109  0.4054  0.1594
68884W        W11801  15.896   1.772  28.420  0.3272 -0.0987  0.1012
68885W        W11802  14.521   1.345  28.916 -0.0182 -0.2612 -0.3249
68886W        W11803  14.037   3.595  29.874  0.0860  0.3295  0.0340
68887W        W11804  15.879   0.517  31.297  0.0253 -0.2383 -0.0341
68888W        W11805  16.005   2.131  28.822  0.1865 -0.2697  0.1848
68889W        W11806  15.415   1.583  27.298 -0.1233  0.1730 -0.1573
68890W        W11807  14.968   1.576  30.823  0.0983 -0.3021  0.2490
68891W        W11808  17.228   3.019  25.875 -0.3485 -0.2730  0.0113
68892W        W11809  16.331   4.197  29.263 -0.0213  0.3428 -0.0467
68893W        W11810  14.689  33.864  31.419  0.1455 -0.0789  0.1041
68894W        W11811  18.173   0.528  31.615  0.2764 -0.1135  0.2807
68895W        W11812  14.315   2.610  26.263 -0.0842  0.2042 -0.2853
68896W        W11813  16.539  34.551  31.562  0.0690 -0.2841 -0.0064
68897W        W11814  13.093   2.099  31.561  0.0935  0.3577 -0.0462
68898W        W11815  17.947   2.056  29.072 -0.1959 -0.0250  0.1299
68899W        W11816  13.950   0.075  31.822 -0.0196  0.0169  0.4795
68900W        W11817  17.336   3.038  29.902  0.1111 -0.2100  0.2382
68901W        W11818  13.601   2.025  31.731 -0.0926 -0.1339 -0.3259
68902W        W11819  14.664   0.896  27.703  0.0970  0.1674 -0.0646
68903W        W11820  13.497  33.810  30.028 -0.0578 -0.0216  0.1051
68904W        W11821  15.397   3.996  30.426  0.0840 -0.1323  0.1530
68905W        W11822  17.096   4.506  28.810 -0.2448  0.2879 -0.1573
68906W        W11823  14.428   3.416  29.605  0.0700  0.2115 -0.1737
68907W        W11824  16.545   1.937  29.956 -0.0585  0.0989 -0.1340
68908W        W11825  15.545   2.077  30.885 -0.1688 -0.0488 -0.0649
68909W        W11826  17.911   0.667  29.603  0.1901  0.0391 -0.3362
68910W        W11827  14.505   2.779  28.140 -0.1723  0.0323  0.3521
68911W        W11828  15.411   4.385  31.255 -0.0273 -0.0034 -0.2868
68912W        W11829  15.563   0.546   0.915 -0.0268  0.0952  0.0805
68913W        W11830  16.466   2.684  29.980  0.0958  0.0230  0.0930
68914W        W11831  17.031   1.507  29.945 -0.1150 -0.0285  0.1674
68915W        W11832  15.794   2.748   0.137  0.1383  0.3659  0.0687
68916W        W11833  15.805   0.024  31.043  0.0326 -0.0628  0.2992
68917W        W11834  13.386   3.474  30.527 -0.0550  0.0961  0.2741
68918W        W11835  12.907   0.723   0.289  0.1690 -0.0727  0.2374
68919W        W11836  16.520   3.983  28.303 -0.1836 -0.1221 -0.2098
68920W        W11837  18.836   0.619  26.196  0.1159  0.0969  0.0156
68921W        W11838  18.330   2.488  30.109 -0.2145  0.0154 -0.0778
68922W        W11839  16.436   3.113  30.461  0.1845 -0.2439  0.1253
68923W        W11840  18.100   2.921  28.727 -0.1060  0.0325  0.1218
68924W        W11841  15.221   2.683  28.717  0.2878 -0.1651 -0.1244
68925W        W11842  17.787   1.534  30.867  0.3120  0.0573  0.2758
68926W        W11843  15.441   0.922  27.819  0.0302 -0.1072  0.0691
68927W        W11844  18.030   1.126  29.837 -0.1693 -0.0369 -0.0314
68928W        W11845  17.288   5.017  27.762  0.1413 -0.2775 -0.0230
68929W        W11846  17.268   1.316  31.610  0.0423 -0.0708 -0.0201
68930W        W11847  15.858   1.917  30.528  0.1379 -0.1022 -0.2852
68931W        W11848  14.951   0.907  28.646 -0.0549  0.2375  0.0414
68932W        W11849  15.594   4.903  30.993  0.1449 -0.1139 -0.1914
68933W        W11850  15.652   3.563  26.625 -0.1238 -0.0347 -0.3384
68934W        W11851  17.714   4.176  28.851  0.1065  0.1161  0.1387
68935W        W11852  16.610   2.430  31.058 -0.2667 -0.1235  0.0844
68936W        W11853  18.229   2.706  31.140  0.1292 -0.0321 -0.0535
68937W        W11854  16.337   0.144  28.587  0.1918  0.0149  0.3948
68938W        W11855  18.809   3.281  28.874  0.2090 -0.0259 -0.2239
68939W        W11856  15.103   2.399  30.160 -0.1064 -0.1457  0.0801
68940W        W11857  13.749   0.013  29.624  0.0760  0.3686  0.2436
68941W        W11858  12.959   5.088  29.339 -0.1756 -0.1120 -0.3804
68942W        W11859  11.717   2.261  28.513 -0.1879 -0.0738 -0.0875
68943W        W11860  15.151   2.024  30.644  0.2574  0.0579  0.1236
68944W        W11861  15.139  34.193  30.671 -0.1473  0.2358 -0.0948
68945W        W11862  17.271   0.191  30.290 -0.1760  0.3597 -0.1437
68946W        W11863  17.324   3.023  30.803 -0.0292 -0.1043 -0.2174
68947W        W11864  18.380   3.064  30.861  0.1004 -0.2888  0.0976
68948W        W11865  15.975   4.301  31.122 -0.1521 -0.0908 -0.0299
68949W        W11866  13.359   0.711  29.805 -0.2951 -0.1565 -0.0472
68950W        W11867  16.091   4.833  31.222 -0.0988 -0.1062  0.0914
68951W        W11868  16.771   1.809  29.024 -0.3714  0.0007 -0.4048
68952W        W11869  16.010   2.862  30.330  0.1196  0.0324 -0.0602
68953W        W11870  14.194   0.998  30.399  0.2829 -0.1480  0.2698
68954W        W11871  17.741   1.270  31.448  0.0344 -0.3032 -0.0972
68955W        W11872  16.229   3.544  30.733 -0.1808 -0.2163 -0.1401
68956W        W11873  13.371  34.349  28.850  0.0339  0.5191 -0.2180
68957W        W11874  17.002   2.313  27.229  0.0982  0.2015  0.1540
68958W        W11875  15.423   5.525  31.299 -0.0823 -0.0913 -0.2061
68959W        W11876  14.286   0.086  29.586  0.1767 -0.2766 -0.1789
68960W        W11877  15.465   3.172  28.588 -0.0100  0.1094 -0.2510
68961W        W11878  17.363   0.824  27.301 -0.0152 -0.3345 -0.3541
68962W        W11879  17.318   2.408  28.568 -0.3246 -0.0252 -0.1383
68963W        W11880  17.912   5.131  29.102 -0.0244  0.1446 -0.0959
68964W        W11881  16.027   1.356  30.434  0.2672 -0.1898 -0.1847
68965W        W11882  17.239   3.758  27.199 -0.1101  0.2671 -0.1378
68966W        W11883  13.855   0.756  29.962  0.3734 -0.0569 -0.2466
68967W        W11884  15.998   3.127  29.319 -0.1636  0.2200  0.2493
68968W        W11885  16.883   3.653  28.455 -0.1946 -0.1950  0.1250
68969W        W11886  18.004   3.530  31.023 -0.0643  0.2651 -0.1568
68970W        W11887  14.777  34.660  28.086  0.4177  0.0381 -0.1763
68971W        W11888  17.031   2.233  29.034 -0.1293 -0.4142  0.0245
68972W        W11889  17.066  34.537  31.628  0.2957 -0.3902 -0.1462
68973W        W11890  16.809   3.061  30.060  0.0113  0.2414  0.0274
68974W        W11891  14.938   3.816  30.540 -0.0099  0.1358  0.0294
68975W        W11892  15.240   1.078  26.942  0.3599  0.1000  0.0013
68976W        W11893  14.788   1.343  31.694 -0.1329 -0.1347  0.3255
68977W        W11894  18.642  34.490  30.473  0.3196 -0.2772 -0.0914
68978W        W11895  14.419   5.658  31.232  0.0832  0.0352  0.0372
68979W        W11896  17.456   1.164  28.665  0.4062 -0.0218  0.2198
68980W        W11897  15.314   0.278  27.342  0.3128 -0.1683 -0.3031
68981W        W11898  15.868   1.433  30.932  0.0150  0.1720  0.2937
68982W        W11899  19.894   1.005  30.658  0.2566 -0.0477 -0.0176
68983W        W11900  16.281   2.223  27.601 -0.0141  0.2075 -0.0881
68984W        W11901  14.509   0.729  30.062 -0.1962  0.0399  0.4003
68985W        W11902  18.678   4.299  28.904  0.1053  0.0433 -0.0676
68986W        W11903  16.807   3.123  29.101 -0.3006  0.0415 -0.1484
68987W        W11904  16.054   5.158  29.549 -0.0483 -0.3476 -0.6369
68988W        W11905  14.265  33.612  29.720  0.1424  0.1315  0.0713
68989W        W11906  18.920   2.663  28.999 -0.0566  0.0154  0.2404
68990W        W11907  14.476   1.567   0.092  0.0830 -0.2280 -0.2272
68991W        W11908  15.802   0.764  30.263 -0.0768 -0.0244 -0.0491
68992W        W11909  12.397   2.113  27.954  0.5174  0.3005 -0.0540
68993W        W11910  15.445   1.609  30.679  0.1022 -0.1034 -0.2086
68994W        W11911  17.764   2.687   0.579  0.3667 -0.2221  0.0560
68995W        W11912  14.781  34.312  30.951 -0.1528  0.0251  0.1304
68996W        W11913  14.353   0.317  29.143 -0.3143  0.1571 -0.0911
68997W        W11914  20.470   3.086  29.373  0.0283  0.1760  0.1919
68998W        W11915  15.010   2.169  28.840  0.1055 -0.2138 -0.1670
68999W        W11916  16.412   3.632  30.067  0.2193 -0.1087 -0.0249
69000W        W11917  14.635   2.352  29.080  0.1141  0.2084 -0.1235
69001W        W11918  17.407   2.592  28.115  0.0685  0.0844  0.4705
69002W        W11919  15.357   0.232  26.810  0.1831 -0.1904  0.0436
69003W        W11920  17.095   2.048  29.920 -0.3085  0.2061  0.2425
69004W        W11921  17.975   5.002  30.447  0.0389  0.1927 -0.3936
69005W        W11922  15.316   1.425  31.677 -0.2322  0.1967 -0.1889
69006W        W11923  18.620   3.675  27.018  0.4784 -0.3175 -0.1356
69007W        W11924  16.652   2.549  29.106  0.1108  0.2083 -0.2428
69008W        W11925  15.823   3.216  28.197  0.1115  0.0282 -0.0763
69009W        W11926  17.650   2.039  30.711  0.2654  0.0381  0.2140
69010W        W11927  18.324   4.757  30.124  0.1809  0.1100 -0.1175
69011W        W11928  13.309  33.589  28.288  0.1327 -0.3488  0.0082
69012W        W11929  17.214   4.036  28.857  0.1370  0.1836 -0.1107
69013W        W11930  19.204   3.036  28.632  0.1652 -0.0779 -0.0524
69014W        W11931  15.843   0.091  28.705 -0.1268  0.0807 -0.0826
69015W        W11932  16.599  34.481  29.100 -0.0131 -0.3284  0.0832
69016W        W11933  13.800   3.681  27.760 -0.1245  0.3490 -0.2559
69017W        W11934  18.619   3.369  29.789 -0.0261 -0.1714 -0.2559
69018W        W11935  18.827   1.917  29.597  0.1508 -0.1258 -0.1800
69019W        W11936  18.475   0.892  26.443  0.3389 -0.2157  0.0417
69020W        W11937  15.613   2.279  31.933 -0.0376  0.3074  0.0014
69021W        W11938  14.588   3.391  31.908  0.0408 -0.1062  0.0182
69022W        W11939  14.495   3.832  30.215  0.0241 -0.3906  0.2166
69023W        W11940  13.353   1.321  26.330  0.0482 -0.0091 -0.3361
69024W        W11941  15.268   2.613   0.134  0.1693 -0.1323  0.0444
69025W        W11942  15.523   2.288  30.417 -0.1705  0.1107  0.0901
69026W        W11943  17.157   2.733  28.971  0.0713  0.2238  0.4267
69027W        W11944  19.345   3.275  28.178 -0.0813 -0.0571 -0.0117
69028W        W11945  16.012   0.810  30.773  0.2258 -0.0002 -0.0092
69029W        W11946  18.545   1.158  28.968 -0.1664 -0.0220 -0.1719
69030W        W11947  16.230   0.667  28.533  0.0174 -0.0507  0.1128
69031W        W11948  18.857   1.236   0.104  0.1082  0.2790  0.0723
69032W        W11949  15.850   0.449  27.348  0.2343 -0.2390 -0.2155
69033W        W11950  14.364   2.585  31.365 -0.0189 -0.1180 -0.1387
69034W        W11951  14.654   2.659  27.219  0.0307 -0.1630 -0.0202
69035W        W11952  15.667   2.494  29.568  0.0285  0.0459  0.2228
69036W        W11953  15.632   2.345  27.315 -0.0557 -0.0288  0.3483
69037W        W11954  16.061   0.074   0.144 -0.1548 -0.0874 -0.2209
69038W        W11955  13.916   0.999  31.892 -0.0307 -0.2140  0.0931
69039W        W11956  16.014   0.752  29.043 -0.1949 -0.1426 -0.4211
69040W        W11957  12.593   0.696  30.403  0.0260 -0.3159 -0.1136
69041W        W11958  17.790   1.476  28.446 -0.1909  0.1206  0.2671
69042W        W11959  14.864   0.155  31.193  0.0671 -0.3276  0.3053
69043W        W11960  15.628   1.757  31.267  0.2518  0.2264 -0.3112
69044W        W11961  15.904   2.593  30.868 -0.0236  0.1826 -0.2619
69045W        W11962  17.008   2.000  28.555  0.1167 -0.1607  0.2969
69046W        W11963  15.602  33.807  29.522 -0.1324 -0.0501  0.0117
69047W        W11964  17.582   4.964  31.886 -0.1319  0.3268 -0.2018
69048W        W11965  16.436   2.995  27.249 -0.1209 -0.1414 -0.2172
69049W        W11966  14.564   0.714  30.954  0.1377 -0.1851  0.3437
69050W        W11967  17.294  34.296  30.432  0.0489 -0.2668 -0.2180
69051W        W11968  14.281  32.976  26.868  0.1465  0.0281  0.2045
69052W        W11969  16.141   1.031  31.193 -0.2870 -0.0946 -0.0551
69053W        W11970  15.055   4.119  30.034  0.1276 -0.3534  0.0736
69054W        W11971  18.621   4.803  27.663  0.2593  0.1291  0.0993
69055W        W11972  16.780   2.368  30.124  0.0781  0.1612  0.4669
69056W        W11973  15.604   1.408  30.229  0.3229 -0.0114 -0.0167
69057W        W11974  13.555   1.848  31.199  0.0226  0.0024  0.0329
69058W        W11975  19.318   0.718  26.484 -0.4212 -0.2236 -0.0143
69059W        W11976  15.285   3.119  29.597 -0.1765  0.2466 -0.0771
69060W        W11977  18.011   1.714  28.021  0.0694  0.2412 -0.0247
69061W        W11978  17.040   0.555  30.636 -0.0954  0.3179  0.0748
69062W        W11979  16.441   1.430  31.309  0.1235 -0.1769  0.0942
69063W        W11980  16.347   2.864  31.438 -0.0556 -0.2745 -0.1897
69064W        W11981  14.083   2.174  31.454 -0.1957 -0.0296 -0.0445
69065W        W11982  17.163   2.303  30.495 -0.3417 -0.1366 -0.0422
69066W        W11983  14.637  33.908  29.378 -0.2724 -0.2101 -0.0711
69067W        W11984  16.725   0.470  28.519 -0.0375 -0.2263  0.1102
69068W        W11985  17.481   2.869  28.509  0.0018  0.0141  0.0643
69069W        W11986  14.823  33.619  30.555  0.2449 -0.1920 -0.0637
69070W        W11987  16.437   2.901  29.416  0.2712 -0.0853 -0.0435
69071W        W11988  15.327  34.456  31.067  0.0799 -0.1168  0.3999
69072W        W11989  17.108   3.894  30.361  0.0570  0.0225  0.4671
69073W        W11990  17.249   2.530  31.638  0.1617 -0.0276 -0.2893
69074W        W11991  14.965   3.458  29.528 -0.1170  0.2677 -0.1972
69075W        W11992  18.652   0.252  30.707  0.1888 -0.2910  0.2789
69076W        W11993  16.550   2.315  29.613 -0.1827  0.0786  0.1121
69077W        W11994  18.769   3.325  30.910  0.0795 -0.2419 -0.1202
69078W        W11995  16.962   4.878  29.385  0.1525  0.1533 -0.0238
69079W        W11996  17.762   4.366  31.109  0.0496  0.0365 -0.2208
69080W        W11997  14.672  33.439  29.272  0.0094 -0.1796 -0.0715
69081W        W11998  15.634   0.890  29.393  0.2118  0.2477  0.0634
69082W        W11999  15.334   1.639  29.402  0.0685  0.1922 -0.0765
69083W        W12000  16.855  34.252  30.770  0.1422 -0.2618  0.2973
69084W        W12001  13.096  34.417  27.256 -0.0214  0.2105 -0.0824
69085W        W12002  17.167  32.816  29.884 -0.0697 -0.3475  0.0768
69086W        W12003  16.363   4.102  29.879  0.1064  0.1554 -0.1369
69087W        W12004  17.035   2.371  29.512  0.0539  0.0459  0.0217
69088W        W12005  16.750   1.830   0.440 -0.2917  0.2201  0.1011
69089W        W12006  20.096   4.238  29.207 -0.1922 -0.0496 -0.0561
69090W        W12007  13.840   2.684  31.424  0.0427 -0.1341  0.0294
69091W        W12008  13.385   2.477   1.104 -0.2821  0.0251 -0.0207
69092W        W12009  14.934   4.853   0.951 -0.1532  0.3072  0.1879
69093W        W12010  14.878   1.890  30.144 -0.0181  0.0367  0.2221
69094W        W12011  19.732   2.081  30.027  0.0303 -0.2931  0.1182
69095W        W12012  14.173   3.400   0.182 -0.3562  0.2323 -0.0530
69096W        W12013  15.763   2.787  31.305 -0.1860 -0.0330 -0.1725
69097W        W12014  18.314   3.718  30.163 -0.2872  0.2472  0.1294
69098W        W12015  17.943   3.084  31.374 -0.2239 -0.3996 -0.1658
69099W        W12016  12.869   0.909   1.143  0.1102  0.0865  0.0724
69100W        W12017  18.359   1.263  30.218  0.0799 -0.1324 -0.3773
69101W        W12018  15.458   2.775  31.675 -0.1115 -0.1291 -0.0656
69102W        W12019  15.634   1.548   1.829 -0.1030 -0.3748 -0.3200
69103W        W12020  15.030   2.890  30.178 -0.1507 -0.0763  0.0406
69104W        W12021  13.812   2.195   0.501  0.1903  0.0107  0.0754
69105W        W12022  19.018   2.502  30.889  0.0899 -0.1005  0.0619
69106W        W12023  15.144  34.653  31.603  0.1445 -0.0822  0.1223
69107W        W12024  13.985   0.212  30.903  0.3329 -0.0365 -0.4220
69108W        W12025  13.585   0.453  31.031 -0.2292  0.2212  0.3211
69109W        W12026  15.015   4.853  31.945 -0.1510  0.0984  0.3042
69110W        W12027  18.001   0.084  31.018  0.1144  0.0589 -0.4759
69111W        W12028  17.101   2.131   0.288 -0.1169 -0.1319  0.3952
69112W        W12029  14.670   2.209   0.598  0.1836  0.0695 -0.0381
69113W        W12030  14.110   1.678   3.049 -0.2303 -0.0207 -0.0106
69114W        W12031  15.011   0.459   0.503  0.1710  0.0457 -0.0619
69115W        W12032  14.006   1.844  30.792  0.2385 -0.1679  0.0271
69116W        W12033  16.521   2.116  28.660  0.0552  0.0011 -0.3077
69117W        W12034  16.293   2.848   0.042 -0.0879  0.1911 -0.1116
69118W        W12035  15.021   3.104  28.885  0.4666  0.1488 -0.3785
69119W        W12036  14.620   2.865  31.773 -0.1721 -0.2245  0.0930
69120W        W12037  16.614   1.298   0.210 -0.1810 -0.0234  0.0482
69121W        W12038  16.725   0.847   1.930  0.0269  0.0358  0.2542
69122W        W12039  14.765  33.590  29.739 -0.0470 -0.1712 -0.1923
69123W        W12040  13.457   0.724   0.297  0.1395 -0.2382  0.1082
69124W        W12041  14.601   4.696  30.699 -0.0678 -0.1819 -0.0920
69125W        W12042  14.437   4.328  31.027 -0.0465  0.0425  0.2243
69126W        W12043  18.598   1.816  30.934  0.1915 -0.0894  0.2187
69127W        W12044  14.088   2.257  30.541 -0.0491  0.1136 -0.0571
69128W        W12045  17.878   0.242   0.749 -0.0482 -0.1298  0.0182
69129W        W12046  15.536   0.870  31.142  0.2961  0.4494  0.0169
69130W        W12047  13.703   0.871  31.399 -0.1880  0.1637 -0.1021
69131W        W12048  17.764   3.294   0.986  0.0116 -0.1375 -0.1650
69132W        W12049  13.246   1.983  30.174  0.0098 -0.2154 -0.1029
69133W        W12050  13.458   1.019   1.863 -0.0615 -0.1474  0.1369
69134W        W12051  14.863   0.587  31.837 -0.1545 -0.2221 -0.2885
69135W        W12052  14.834   1.621   0.795  0.0926  0.2533  0.4273
69136W        W12053  15.892   3.249  30.879 -0.1364 -0.2042  0.3818
69137W        W12054  14.493   3.412  30.659  0.0593  0.3440  0.2035
69138W        W12055  15.288   2.328   1.077  0.1114  0.1587  0.0968
69139W        W12056  14.849   1.809   0.358 -0.3780  0.0598  0.1264
69140W        W12057  14.153   1.094   0.358 -0.3527 -0.4354 -0.0217
69141W        W12058  14.180   3.934  31.457 -0.1359  0.0545  0.0464
69142W        W12059  16.833   2.656   0.135  0.0189 -0.1449 -0.3334
69143W        W12060  16.702   3.336   0.878 -0.0322 -0.1649 -0.0936
69144W        W12061  17.382   2.858  31.262  0.0305  0.1498 -0.0117
69145W        W12062  16.005   2.517  31.746 -0.4251 -0.0606 -0.0070
69146W        W12063  15.434   4.510  30.757  0.1762 -0.2296  0.1437
69147W        W12064  14.255   2.457   0.369  0.0005 -0.2707  0.2882
69148W        W12065  14.210   2.802  30.904  0.2957  0.0123  0.0761
69149W        W12066  14.481   1.351  30.600  0.2723 -0.2102 -0.1401
69150W        W12067  15.023   2.557  31.553 -0.0047 -0.0644  0.0444
69151W        W12068  12.068  34.151  31.204 -0.1259 -0.0006 -0.4586
69152W        W12069  16.103   2.267  31.335 -0.1419  0.1135  0.1585
69153W        W12070  17.609   3.870  31.014  0.0503  0.2150  0.0201
69154W        W12071  18.007   2.525  30.657 -0.2750 -0.2159  0.4541
69155W        W12072  16.443   5.398  20.201 -0.0156 -0.1314 -0.0877
69156W        W12073  15.517   6.452  15.988 -0.2209  0.1113  0.3422
69157W        W12074  17.826   5.002  16.226  0.3875  0.2299 -0.1698
69158W        W12075  16.881   4.523  16.608  0.0312  0.0477  0.5407
69159W        W12076  15.436   3.090  17.314 -0.1101  0.0601  0.2298
69160W        W12077  15.879   7.960  16.497 -0.0925 -0.1122 -0.0021
69161W        W12078  15.766   5.114  21.614 -0.0399  0.1463  0.1423
69162W        W12079  19.270   7.489  19.058 -0.0970  0.1189 -0.1308
69163W        W12080  17.351   2.817  18.931  0.2351  0.3234 -0.0756
69164W        W12081  16.316   5.830  15.584  0.1599 -0.0918 -0.0584
69165W        W12082  14.155   5.891  18.787 -0.2596  0.1060  0.0908
69166W        W12083  16.711   8.109  17.381  0.1423 -0.3173 -0.0527
69167W        W12084  15.890   4.174  15.520 -0.1908 -0.2325  0.0638
69168W        W12085  13.399   2.904  17.148 -0.0098 -0.0095  0.0321
69169W        W12086  16.948   5.846  18.046  0.0071  0.0088 -0.1221
69170W        W12087  15.776   5.894  15.985 -0.5323  0.0801 -0.0014
69171W        W12088  16.003   4.490  18.503 -0.2030  0.0489  0.3109
69172W        W12089  14.828   3.480  16.552  0.2894 -0.1500 -0.0304
69173W        W12090  16.401   8.071  17.000 -0.1687  0.1457 -0.2277
69174W        W12091  15.949   4.926  17.103  0.1778  0.1828 -0.0541
69175W        W12092  17.868   5.337  19.739 -0.1601 -0.0091 -0.0788
69176W        W12093  16.482   5.580  18.009 -0.3809 -0.2428  0.0062
69177W        W12094  12.974   3.045  16.874  0.0525 -0.2168  0.4284
69178W        W12095  13.987   1.524  16.142 -0.0821  0.2240  0.2024
69179W        W12096  15.277   3.993  17.883 -0.1036  0.2718 -0.3371
69180W        W12097  17.812   4.453  18.098 -0.1955 -0.0817  0.2323
69181W        W12098  17.630   7.467  16.996  0.0037 -0.1205 -0.1801
69182W        W12099  18.076   7.306  17.310  0.0651  0.1457  0.0477
69183W        W12100  15.227   5.942  17.045 -0.1185 -0.0294  0.0268
69184W        W12101  17.922   2.936  19.305  0.2165  0.1097 -0.0033
69185W        W12102  14.789   5.519  17.355 -0.0833  0.1314  0.2477
69186W        W12103  14.472   7.397  17.509 -0.0360  0.3069  0.0570
69187W        W12104  16.869   6.850  15.984  0.4408 -0.2676  0.0073
69188W        W12105  16.871   3.701  17.210 -0.0133  0.2282  0.0924
69189W        W12106  18.001   6.681  19.408 -0.0802  0.0524 -0.0567
69190W        W12107  17.180   6.202  19.398  0.1950  0.0466  0.1397
69191W        W12108  15.989   6.863  16.906 -0.0110 -0.1104 -0.0410
69192W        W12109  15.703   7.543  19.941 -0.1617  0.1136  0.2462
69193W        W12110  15.402   6.325  20.913  0.2317  0.0455 -0.0029
69194W        W12111  15.690   5.864  17.248 -0.0618 -0.3285 -0.0611
69195W        W12112  16.220   3.776  15.585 -0.2634 -0.0418 -0.0495
69196W        W12113  15.722   6.645  19.121 -0.1718  0.0409  0.2729
69197W        W12114  17.521   5.862  18.878 -0.0350 -0.0149 -0.1140
69198W        W12115  16.111   6.312  18.573 -0.0890  0.0520 -0.1540
69199W        W12116  13.235   7.038  17.015  0.0915 -0.2933 -0.1892
69200W        W12117  16.472   3.827  20.022  0.0471 -0.0769  0.0840
69201W        W12118  15.081   5.888  17.847 -0.2701 -0.0830 -0.1980
69202W        W12119  16.850   5.224  17.301 -0.1503  0.0465 -0.2112
69203W        W12120  14.731   4.835  17.578 -0.2332  0.0464 -0.1673
69204W        W12121  16.395   4.625  16.677 -0.0253 -0.0984  0.1888
69205W        W12122  16.085   2.340  17.391 -0.1498 -0.1522 -0.1251
69206W        W12123  15.406   7.191  17.421 -0.0471 -0.1036 -0.1095
69207W        W12124  13.711   4.696  16.714 -0.2504 -0.2443 -0.1520
69208W        W12125  16.592   6.489  17.470  0.3180  0.0724 -0.0928
69209W        W12126  16.058   4.342  16.879  0.2328  0.0565 -0.4638
69210W        W12127  15.317   6.620  17.752  0.1348  0.0757 -0.0813
69211W        W12128  17.713   6.098  19.318 -0.2082  0.3122 -0.2740
69212W        W12129  12.774   6.197  17.355  0.0477 -0.0408 -0.1576
69213W        W12130  17.716   6.533  15.661  0.5845  0.0910 -0.1421
69214W        W12131  18.157   4.761  18.336 -0.4255 -0.0253 -0.1268
69215W        W12132  17.846   6.115  17.403  0.3276  0.0800  0.0159
69216W        W12133  14.689   4.081  17.947  0.0618 -0.1352 -0.1974
69217W        W12134  14.026   5.581  17.639 -0.0532  0.1301 -0.1895
69218W        W12135  16.333   1.879  19.550 -0.1231 -0.3917  0.2169
69219W        W12136  15.437   2.382  15.665 -0.0828  0.4017  0.1798
69220W        W12137  16.733   5.879  19.368 -0.3808 -0.2051  0.1333
69221W        W12138  15.349   8.571  16.039 -0.2153  0.3788  0.0839
69222W        W12139  15.882   4.799  18.139  0.0057 -0.1331 -0.0569
69223W        W12140  15.488   4.693  16.128 -0.3271 -0.0667  0.2405
69224W        W12141  17.959   4.951  18.793 -0.1929 -0.1405  0.1019
69225W        W12142  15.240   3.787  16.507 -0.0407 -0.1974  0.6122
69226W        W12143  17.294   4.407  17.915  0.0770 -0.2359  0.2810
69227W        W12144  19.222   3.812  17.680 -0.1172 -0.1227 -0.2476
69228W        W12145  14.157   3.170  15.863 -0.1844  0.4722 -0.1923
69229W        W12146  15.952   5.224  18.521  0.0157  0.0893  0.1407
69230W        W12147  19.867   7.354  19.851  0.0362  0.2137  0.0523
69231W        W12148  17.085   5.680  15.976 -0.2276 -0.1317 -0.0969
69232W        W12149  14.393   6.165  19.144  0.0784  0.0827 -0.1078
69233W        W12150  16.486   5.551  20.961 -0.0699 -0.0584  0.2942
69234W        W12151  16.575   6.814  20.279 -0.2518 -0.4624 -0.2504
69235W        W12152  16.838   7.194  16.988  0.1093  0.4029 -0.1745
69236W        W12153  14.349   5.990  17.504 -0.0312 -0.2001  0.2008
69237W        W12154  15.598   4.996  15.618  0.0736 -0.0207  0.0080
69238W        W12155  13.353   4.738  18.955 -0.1225 -0.2744 -0.3274
69239W        W12156  13.603   7.294  18.714 -0.1359  0.4962 -0.2163
69240W        W12157  16.796   4.846  15.607  0.0253  0.0405 -0.0100
69241W        W12158  15.633   2.848  18.994 -0.0585  0.3120  0.1163
69242W        W12159  17.761   3.648  18.513  0.2706  0.1149 -0.2659
69243W        W12160  13.736   6.956  16.275  0.2048 -0.2147  0.0842
69244W        W12161  17.885   8.476  16.081  0.0608  0.0988  0.0023
69245W        W12162  16.617   5.100  16.699 -0.1211  0.0814 -0.0610
69246W        W12163  18.048   5.896  16.374  0.1715  0.0893 -0.1609
69247W        W12164  14.889   4.722  16.253 -0.0239  0.4082 -0.1636
69248W        W12165  12.320   5.371  17.955  0.0550 -0.2511 -0.1642
69249W        W12166  15.986   1.439  19.337  0.0586 -0.2223 -0.0303
69250W        W12167  15.562   5.544  17.739  0.0081 -0.0874 -0.1274
69251W        W12168  17.166   5.215  19.418  0.0429 -0.0373 -0.2358
69252W        W12169  15.211   1.965  15.941 -0.4610  0.0158 -0.0992
69253W        W12170  14.696   4.652  17.073 -0.0985  0.0564 -0.3616
69254W        W12171  15.425   7.230  16.646 -0.1222 -0.0125  0.0080
69255W        W12172  13.930   5.380  16.236 -0.0470  0.0520 -0.0322
69256W        W12173  18.611   4.630  19.916 -0.0829 -0.1426 -0.1427
69257W        W12174  16.547   7.636  15.338 -0.1170 -0.2475  0.2060
69258W        W12175  17.420   7.029  18.370 -0.0050 -0.1916  0.0342
69259W        W12176  18.811   7.903  16.469  0.3445  0.1061 -0.1436
69260W        W12177  15.501   4.280  17.167 -0.3715  0.0636 -0.1765
69261W        W12178  14.612   2.723  15.970  0.1100  0.1151  0.0693
69262W        W12179  14.155   7.030  18.224  0.2125 -0.1475 -0.3800
69263W        W12180  13.589   5.052  18.291  0.0326 -0.2440  0.1512
69264W        W12181  14.419   2.924  15.253 -0.2170 -0.2483  0.0539
69265W        W12182  16.641   5.147  17.847 -0.2168  0.1262  0.1002
69266W        W12183  14.739   4.310  16.564 -0.1852 -0.1934  0.2141
69267W        W12184  15.144   7.332  18.909 -0.0285  0.7054 -0.2036
69268W        W12185  18.292   3.627  18.606  0.0499  0.2067  0.1269
69269W        W12186  16.404   4.787  19.663 -0.0571 -0.1265 -0.4218
69270W        W12187  17.855   5.571  17.440 -0.1614 -0.0402 -0.0326
69271W        W12188  13.297   2.689  16.079 -0.2948 -0.0586  0.0155
69272W        W12189  17.016   6.471  17.193 -0.1179  0.0777 -0.1417
69273W        W12190  15.120   5.959  15.618 -0.1804  0.1387 -0.2139
69274W        W12191  15.899   7.431  16.579  0.0725 -0.3389 -0.0007
69275W        W12192  16.438   7.661  17.340 -0.1219  0.2636 -0.1322
69276W        W12193  17.602   7.260  18.981 -0.0096  0.1990  0.0090
69277W        W12194  14.821   4.686  18.514 -0.0745 -0.1857  0.1108
69278W        W12195  16.587   4.578  17.704  0.0751 -0.1701  0.1023
69279W        W12196  14.612   4.719  15.718 -0.0053  0.2408 -0.1414
69280W        W12197  16.274   6.053  18.134  0.1759 -0.1535 -0.2046
69281W        W12198  17.354   2.751  18.447 -0.0629 -0.4079 -0.0247
69282W        W12199  18.535   4.880  17.986  0.0206 -0.1645  0.2599
69283W        W12200  17.367   5.777  17.645 -0.2502 -0.1734 -0.1427
69284W        W12201  18.959   6.626  16.545 -0.2240 -0.1499 -0.0107
69285W        W12202  15.546   3.656  15.887  0.1853 -0.0282  0.1380
69286W        W12203  15.962   5.003  16.077 -0.2056 -0.1075  0.3187
69287W        W12204  17.543   4.214  18.964  0.0805  0.2710 -0.0185
69288W        W12205  16.021   5.468  16.898 -0.1096 -0.0300 -0.0168
69289W        W12206  16.115   1.717  16.597  0.3245 -0.3184 -0.1697
69290W        W12207  16.705   3.811  15.551 -0.0087  0.1836  0.1157
69291W        W12208  16.491   6.762  17.055  0.1045  0.2217 -0.2950
69292W        W12209  14.154   5.159  19.244 -0.4064  0.3031  0.4149
69293W        W12210  16.712   7.292  21.218  0.0067 -0.4066  0.0740
69294W        W12211  16.979   7.731  17.204 -0.2287 -0.1239  0.2945
69295W        W12212  15.855   3.207  16.447 -0.0321 -0.0713  0.0121
69296W        W12213  16.159   6.191  16.236 -0.0245 -0.0448  0.0526
69297W        W12214  15.563   4.546  17.772 -0.0273 -0.0713 -0.1188
69298W        W12215  14.123   6.004  16.808 -0.4304 -0.2603  0.0934
69299W        W12216  16.487   4.509  18.487  0.2805 -0.1126 -0.0896
69300W        W12217  16.614   3.089  18.272  0.0373  0.1318  0.1922
69301W        W12218  16.115   3.048  18.573 -0.2959 -0.0345  0.0661
69302W        W12219  17.677   6.523  18.470  0.0739  0.0147 -0.0371
69303W        W12220  16.104   4.046  16.456  0.2661  0.0806 -0.1199
69304W        W12221  15.821   3.337  19.919  0.0147 -0.0804  0.0671
69305W        W12222  12.650   3.651  18.412 -0.1236 -0.1881 -0.1756
69306W        W12223  16.318   5.117  19.136  0.3400  0.0627  0.1325
69307W        W12224  14.636   5.595  18.365 -0.2597  0.0726 -0.3681
69308W        W12225  14.915   6.675  17.454 -0.1142 -0.0090  0.0712
69309W        W12226  18.205   6.742  18.902 -0.1798  0.1385 -0.0292
69310W        W12227  16.365   6.718  18.092  0.2835  0.0893 -0.2903
69311W        W12228  17.403   2.580  19.436 -0.1348 -0.0998  0.3020
69312W        W12229  14.531   4.192  17.031  0.1849 -0.1084 -0.2459
69313W        W12230  16.261   7.570  16.317  0.0912 -0.1072 -0.0915
69314W        W12231  17.388   6.176  15.786  0.2703 -0.0870 -0.4449
69315W        W12232  15.936   4.404  17.459  0.0373  0.0656  0.1207
69316W        W12233  16.580   4.937  18.778  0.2154  0.0234 -0.0331
69317W        W12234  15.819   4.509  15.840 -0.0935 -0.1550  0.0642
69318W        W12235  14.649   5.187  19.392  0.2181 -0.0910 -0.1350
69319W        W12236  15.850   7.389  17.630 -0.1153 -0.0052 -0.1912
69320W        W12237  17.569   4.015  17.912  0.0284  0.0049 -0.0281
69321W        W12238  14.064   7.273  17.234 -0.1181 -0.0963  0.0861
69322W        W12239  15.775   6.648  17.350  0.1685  0.0118 -0.0627
69323W        W12240  15.521   5.578  16.833  0.3019 -0.0462 -0.0324
69324W        W12241  17.462   1.913  17.704  0.1958 -0.3345 -0.0599
69325W        W12242  16.524   5.662  18.969  0.0346  0.2268 -0.1086
69326W        W12243  15.631   4.646  20.325  0.4365  0.1642 -0.1930
69327W        W12244  16.650   2.801  17.795 -0.2910 -0.2335 -0.2018
69328W        W12245  14.401   7.223  16.863 -0.1850 -0.0408  0.2874
69329W        W12246  15.850   4.754  19.757  0.5125  0.2385  0.0766
69330W        W12247  15.927   2.481  15.911  0.1863 -0.4942 -0.1113
69331W        W12248  16.263   5.789  16.545  0.5490  0.2957  0.1188
69332W        W12249  16.919   4.162  20.289  0.0947 -0.1932  0.1764
69333W        W12250  13.801   1.974  15.865 -0.1409 -0.2501  0.0931
69334W        W12251  18.078   3.803  19.339 -0.0425  0.0622  0.2738
69335W        W12252  15.173   3.127  17.757 -0.1877  0.1047 -0.2031
69336W        W12253  15.663   8.354  17.708 -0.2155  0.1341  0.0146
69337W        W12254  14.573   6.629  20.946  0.1643 -0.1796 -0.1398
69338W        W12255  16.736   4.063  18.559  0.3884  0.0550 -0.2974
69339W        W12256  14.008   6.060  17.854 -0.2782 -0.1438 -0.0347
69340W        W12257  14.846   3.632  21.365  0.0940 -0.1400 -0.1899
69341W        W12258  16.843   7.260  16.466  0.0199  0.0217  0.1270
69342W        W12259  15.265   3.708  19.425 -0.3101 -0.0163  0.5242
69343W        W12260  14.065   5.144  15.775  0.1784  0.2078 -0.1257
69344W        W12261  15.615   4.624  16.675 -0.0896 -0.0089 -0.0229
69345W        W12262  15.317   6.242  18.621  0.0262 -0.2214  0.0384
69346W        W12263  17.022   3.145  20.628 -0.0977  0.0271  0.0292
69347W        W12264  15.049   7.186  18.427 -0.0189 -0.0758 -0.2029
69348W        W12265  16.107   4.146  19.546 -0.0335  0.0784  0.2507
69349W        W12266  18.574   7.362  16.628 -0.2285  0.0616 -0.3173
69350W        W12267  13.913   5.532  19.565 -0.1232  0.0075 -0.2501
69351W        W12268  14.672   6.899  16.373 -0.0194  0.0281 -0.0976
69352W        W12269  14.435   4.807  19.082  0.1332  0.0669  0.1951
69353W        W12270  15.580   7.075  16.137  0.1711  0.0464  0.0757
69354W        W12271  16.025   3.763  18.814  0.1569  0.1111 -0.0305
69355W        W12272  16.931   8.796  17.007  0.2748  0.1335 -0.1222
69356W        W12273  16.678   7.105  15.488 -0.2314 -0.1827  0.0032
69357W        W12274  14.948   4.400  17.658 -0.1561  0.0268 -0.0790
69358W        W12275  16.341   3.531  16.415 -0.1576 -0.0879 -0.3265
69359W        W12276  16.709   8.369  15.651 -0.2716 -0.3351  0.0658
69360W        W12277  14.422   3.956  17.481  0.0662  0.0412 -0.0509
69361W        W12278  16.618   4.373  19.767  0.0190  0.4235  0.2146
69362W        W12279  16.496   4.814  16.217 -0.1695  0.0065 -0.0273
69363W        W12280  17.145   3.969  18.182  0.1952 -0.2895 -0.1532
69364W        W12281  15.157   3.377  20.490 -0.0487  0.1878 -0.1297
69365W        W12282  18.289   6.387  17.525 -0.1974  0.0266  0.1705
69366W        W12283  14.208   4.536  16.885  0.2661  0.0142  0.1558
69367W        W12284  16.105   5.067  20.046 -0.1890 -0.2752  0.4948
69368W        W12285  12.329   5.082  21.356 -0.0573 -0.0306  0.2415
69369W        W12286  16.306   5.782  17.163 -0.2319 -0.2025  0.2885
69370W        W12287  16.402   3.828  16.043 -0.0595  0.0230  0.4230
69371W        W12288  13.928   5.160  17.461  0.0204 -0.0907 -0.0567
69372W        W12289  18.220   5.855  17.695  0.2330  0.0226  0.1030
69373W        W12290  16.892   4.634  17.083 -0.1534 -0.2540  0.0464
69374W        W12291  18.601   6.492  19.327 -0.0600 -0.0688  0.0708
69375W        W12292  14.470   6.089  18.467  0.0971  0.0661 -0.2551
69376W        W12293  16.291   6.344  16.831  0.2212 -0.1197  0.2077
69377W        W12294  15.131   5.521  16.394 -0.2244 -0.3665  0.0128
69378W        W12295  16.453   7.031  16.133  0.2072 -0.2156 -0.1300
69379W        W12296  16.385   4.706  17.206  0.2006 -0.0574 -0.1944
69380W        W12297  17.511   6.281  17.707 -0.3475  0.0155 -0.5049
69381W        W12298  16.348   3.742  17.280  0.1339  0.2894 -0.0662
69382W        W12299  17.234   3.519  19.499 -0.1821 -0.0658  0.1287
69383W        W12300  17.527   3.664  19.046  0.0816 -0.0363 -0.0397
69384W        W12301  15.977   6.362  20.551 -0.4664  0.2032 -0.0890
69385W        W12302  15.670   2.786  19.834 -0.2605 -0.1219 -0.3194
69386W        W12303  16.110   5.246  17.994 -0.1463  0.3661  0.2565
69387W        W12304  18.110   6.725  16.531 -0.1381 -0.2820  0.2096
69388W        W12305  17.479   4.466  19.625  0.0255 -0.3368 -0.2862
69389W        W12306  19.742   5.281  17.212 -0.0742  0.1606  0.1461
69390W        W12307  16.978   5.924  16.790 -0.4778  0.2713  0.0345
69391W        W12308  14.730   3.897  19.277  0.2177  0.2154 -0.1645
69392W        W12309  17.120   4.443  19.261 -0.0448  0.0296 -0.0700
69393W        W12310  14.026   1.939  15.369  0.0884  0.1513  0.0483
69394W        W12311  15.032   5.261  17.653  0.1001 -0.0433 -0.0379
69395W        W12312  15.893   8.190  16.938 -0.3123  0.0088  0.1733
69396W        W12313  17.360   5.218  18.609  0.4284 -0.0389  0.0347
69397W        W12314  15.866   5.405  17.394 -0.0562 -0.0551  0.0676
69398W        W12315  14.515   5.062  18.514 -0.0884 -0.4645  0.0263
69399W        W12316  13.991   6.908  18.700 -0.2412  0.0941 -0.2562
69400W        W12317  12.085   2.749  16.208  0.0355 -0.0684  0.1358
69401W        W12318  15.577   5.625  15.488 -0.0882 -0.1336 -0.2583
69402W        W12319  14.244   5.927  19.638 -0.0105  0.1125 -0.3784
69403W        W12320  16.732   5.347  19.283 -0.0989 -0.4496 -0.2922
69404W        W12321  16.572   4.198  16.298 -0.1497 -0.1965  0.4274
69405W        W12322  17.410   4.012  19.399 -0.4911 -0.0232  0.2302
69406W        W12323  14.443   5.286  17.610  0.0150 -0.0387 -0.3065
69407W        W12324  15.538   5.214  18.201  0.0269  0.0659 -0.2244
69408W        W12325  15.703   7.892  17.857  0.1381  0.0894  0.1410
69409W        W12326  12.602   4.910  20.541 -0.0411  0.1119  0.3038
69410W        W12327  15.998   8.675  16.068  0.0494  0.0367  0.2227
69411W        W12328  15.108   2.869  16.128  0.0580 -0.0819 -0.0707
69412W        W12329  17.376   3.445  18.236  0.0770 -0.4396  0.1313
69413W        W12330  16.786   5.749  17.326  0.1409  0.1297  0.3862
69414W        W12331  19.693   4.394  19.754 -0.3647  0.1228 -0.2127
69415W        W12332  16.151   6.093  19.751 -0.1732 -0.3982 -0.1280
69416W        W12333  14.612   7.646  17.105  0.0628 -0.3062  0.1179
69417W        W12334  15.331   5.246  18.776  0.1429  0.1018  0.3832
69418W        W12335  17.353   4.602  17.429  0.1519 -0.2674 -0.3649
69419W        W12336  13.957   5.971  19.249  0.2075 -0.0792  0.0506
69420W        W12337  13.990   4.623  18.232 -0.0718 -0.1478 -0.1259
69421W        W12338  14.887   4.982  19.006  0.0171  0.1362 -0.0093
69422W        W12339  16.697   6.179  17.080 -0.1304 -0.0750  0.3623
69423W        W12340  14.564   4.845  16.619  0.1301 -0.0021 -0.0874
69424W        W12341  16.268   6.681  16.441  0.0208 -0.0890 -0.2314
69425W        W12342  14.462   6.021  20.541 -0.0721  0.0649  0.1276
69426W        W12343  13.514   3.751  18.146 -0.1887  0.0348 -0.0589
69427W        W12344  15.488   7.684  17.429  0.2375  0.2717  0.1147
69428W        W12345  15.849   5.601  16.387 -0.1714  0.0377  0.2904
69429W        W12346  15.503   5.042  16.931 -0.2644 -0.3322  0.0461
69430W        W12347  18.017   7.216  19.743  0.0967  0.0594 -0.1472
69431W        W12348  17.398   2.698  15.888  0.0623 -0.0578  0.1887
69432W        W12349  15.660   9.661  16.669  0.2221 -0.3415 -0.0597
69433W        W12350  14.549   5.873  17.010 -0.2706 -0.1164  0.4474
69434W        W12351  16.391   5.467  17.534  0.0690 -0.0028 -0.0666
69435W        W12352  18.848   6.194  16.783  0.1272  0.0220 -0.1239
69436W        W12353  15.732   5.421  19.052  0.1778  0.0741  0.3378
69437W        W12354  16.900   3.281  15.918  0.4079  0.0583  0.2023
69438W        W12355  18.909   5.869  18.085 -0.0242 -0.1301 -0.0671
69439W        W12356  18.096   5.165  17.893 -0.2054 -0.3326  0.2339
69440W        W12357  16.094   6.017  20.251  0.0062 -0.0238 -0.1565
69441W        W12358  15.096   3.388  17.028 -0.1057 -0.1636  0.4837
69442W        W12359  14.054   4.314  17.824 -0.1736  0.2020 -0.2579
69443W        W12360  15.608   4.986  19.368 -0.1698 -0.0477 -0.0295
69444W        W12361  19.432   5.290  17.622  0.0967  0.0600 -0.1998
69445W        W12362  15.004   6.339  20.223 -0.0153 -0.2010 -0.2767
69446W        W12363  17.869   7.577  16.415  0.0460 -0.1256  0.0855
69447W        W12364  14.147   2.639  15.808  0.1738  0.1670 -0.1091
69448W        W12365  15.206   8.019  17.085 -0.0019  0.0634  0.4556
69449W        W12366  19.449   4.931  18.072  0.0637  0.0580  0.2543
69450W        W12367  16.259   6.868  15.620  0.2618  0.2231 -0.1420
69451W        W12368  14.244   4.177  19.145 -0.2874 -0.1226 -0.2202
69452W        W12369  14.877   6.842  15.920 -0.2198 -0.1915 -0.0548
69453W        W12370  15.689   6.603  18.610  0.0305 -0.0242 -0.1023
69454W        W12371  17.635   7.824  19.440  0.0233  0.1495 -0.1847
69455W        W12372  13.942   2.125  16.971  0.1132  0.1880 -0.2608
69456W        W12373  17.844   5.666  17.996 -0.1631  0.3679  0.2670
69457W        W12374  15.106   5.498  19.220  0.1234 -0.0874  0.0741
69458W        W12375  19.045   7.367  19.907  0.0162  0.3252  0.0994
69459W        W12376  15.249   4.852  18.001  0.0912  0.3386 -0.0396
69460W        W12377  17.287   4.861  16.328  0.0597 -0.0000  0.1768
69461W        W12378  16.665   4.122  17.947  0.1369 -0.2562 -0.2959
69462W        W12379  16.626   6.361  19.526 -0.2106 -0.1444 -0.1295
69463W        W12380  16.804   3.293  16.406  0.1573 -0.0346  0.0893
69464W        W12381  18.389   7.534  18.968 -0.1259  0.1793 -0.0444
69465W        W12382  15.153   7.527  17.036 -0.0319  0.3768  0.0144
69466W        W12383  14.976   7.699  19.228 -0.0615 -0.0364  0.1071
69467W        W12384  14.689   3.574  17.191 -0.0543 -0.0268 -0.0789
69468W        W12385  16.297   5.318  16.307 -0.2032 -0.1889 -0.1574
69469W        W12386  13.793   4.524  16.114  0.0402 -0.1049  0.0056
69470W        W12387  16.222   3.569  18.037 -0.0482  0.1365  0.0477
69471W        W12388  15.635   6.053  17.824  0.1687  0.0188  0.0643
69472W        W12389  13.112   3.560  15.812  0.1713 -0.0465  0.0236
69473W        W12390  17.867   6.626  17.507  0.0307  0.1396 -0.2551
69474W        W12391  17.502   4.727  18.646 -0.1013  0.0700 -0.1073
69475W        W12392  16.414   7.468  15.789  0.2614  0.2877 -0.0669
69476W        W12393  17.190   6.968  17.386 -0.3725 -0.4368 -0.3160
69477W        W12394  16.680   5.878  18.455  0.1669  0.0444  0.0508
69478W        W12395  13.914   3.777  18.904 -0.0257  0.1887  0.2298
69479W        W12396  18.600   6.625  18.338  0.0604 -0.0108 -0.2234
69480W        W12397  20.322   7.176  19.754 -0.0259 -0.3552 -0.0836
69481W        W12398  15.263   4.274  16.516 -0.4485  0.1396  0.2720
69482W        W12399  16.086   7.710  16.939  0.1828  0.0097 -0.1173
69483W        W12400  16.738   6.994  17.517  0.2119 -0.0957  0.0358
69484W        W12401  19.960   5.118  18.040  0.0605 -0.0234  0.0667
69485W        W12402  18.290   5.260  18.433  0.0013  0.2838  0.3838
69486W        W12403  14.089   7.367  16.527 -0.0628 -0.1883  0.1435
69487W        W12404  16.858   2.929  19.026 -0.1776 -0.3352  0.0563
69488W        W12405  16.356   7.228  17.099  0.2134  0.0714  0.0094
69489W        W12406  14.875   5.636  20.842  0.1679 -0.1385 -0.2124
69490W        W12407  16.027   6.244  15.728 -0.0778  0.0631  0.0288
69491W        W12408  16.669   6.321  18.090 -0.3648 -0.1096 -0.2991
69492W        W12409  16.637   5.592  16.844  0.2296  0.2819 -0.1904
69493W        W12410  13.911   6.096  18.343  0.0690 -0.1819 -0.0814
69494W        W12411  16.950   6.135  17.615 -0.0218  0.0783  0.0824
69495W        W12412  15.225   4.688  17.356 -0.0916 -0.1291 -0.0603
69496W        W12413  17.867   5.433  18.713  0.3407  0.0590  0.1678
69497W        W12414  15.872   3.894  17.131  0.2147 -0.1260  0.2429
69498W        W12415  16.910   4.095  16.902 -0.0584 -0.2920 -0.2751
69499W        W12416  16.050   5.824  17.684  0.0731 -0.0205 -0.2892
69500W        W12417  14.330   5.383  19.732  0.0080 -0.1263 -0.1383
69501W        W12418  14.136   3.096  16.735 -0.0659  0.0092 -0.0078
69502W        W12419  15.417   6.334  15.449 -0.0788  0.1436 -0.0456
69503W        W12420  15.413   5.714  18.175 -0.1617 -0.1268 -0.0764
69504W        W12421  15.760   2.142  18.510  0.0474 -0.0985  0.3856
69505W        W12422  14.698   6.050  19.890  0.2325  0.0704  0.2773
69506W        W12423  14.933   5.586  16.856  0.0366  0.1443  0.3868
69507W        W12424  13.703   2.463  15.872 -0.0646  0.1761  0.1802
69508W        W12425  18.262   7.111  16.282  0.1467 -0.0714  0.0516
69509W        W12426  16.028   4.244  18.935  0.3111 -0.0000 -0.2937
69510W        W12427  14.343   2.553  18.841  0.0685 -0.0494 -0.1238
69511W        W12428  16.648   6.178  16.482 -0.0213 -0.0923  0.0945
69512W        W12429  17.267   5.515  16.974  0.1876  0.2022 -0.4319
69513W        W12430  16.085   4.691  19.168  0.3491  0.0794 -0.0904
69514W        W12431  14.897   5.637  19.713 -0.2164 -0.0600  0.0483
69515W        W12432  15.966   7.234  15.868 -0.1728  0.2137 -0.0744
69516W        W12433  14.954   6.124  19.374  0.1067  0.3264  0.0650
69517W        W12434  18.639   3.188  20.460  0.1882 -0.1690  0.0616
69518W        W12435  14.005   4.114  16.944 -0.1413  0.2563 -0.3996
69519W        W12436  15.308   5.495  17.281  0.1129  0.1022  0.1921
69520W        W12437  16.077   6.414  17.714 -0.2380  0.1963  0.0464
69521W        W12438  16.631   9.112  17.312 -0.2151 -0.2724 -0.0554
69522W        W12439  17.349   5.166  17.397  0.0043  0.0512 -0.1865
69523W        W12440  15.599   6.994  19.773  0.0421 -0.0944  0.0996
69524W        W12441  13.607   3.244  18.593 -0.0378  0.1826 -0.1436
69525W        W12442  17.696   4.795  16.682 -0.0022 -0.0864  0.1516
69526W        W12443  15.085   6.600  20.635 -0.0983  0.1451  0.2806
69527W        W12444  18.199   6.841  15.832 -0.0525  0.0328 -0.2409
69528W        W12445  17.941   2.062  18.025 -0.0122  0.0063  0.2634
69529W        W12446  17.074   6.415  16.631  0.0247 -0.0377  0.2014
69530W        W12447  15.819   3.444  18.355 -0.1024  0.0392 -0.0189
69531W        W12448  15.462   6.704  22.153 -0.1605  0.0170 -0.0738
69532W        W12449  15.963   5.631  18.213 -0.1189  0.1075 -0.2797
69533W        W12450  15.866   2.642  16.489  0.0036 -0.1392 -0.1470
69534W        W12451  16.836   4.603  18.158 -0.0193 -0.3305  0.1513
69535W        W12452  17.306   6.568  16.069  0.0100 -0.1581 -0.4474
69536W        W12453  14.806   4.854  20.646 -0.0996  0.1923  0.1836
69537W        W12454  15.905   5.979  16.840 -0.1979 -0.0373  0.1541
69538W        W12455  16.847   3.553  18.360  0.2457 -0.2033 -0.0905
69539W        W12456  14.809   2.464  17.275  0.3698 -0.3326  0.1010
69540W        W12457  18.217   6.305  18.485  0.0715 -0.1739 -0.0191
69541W        W12458  13.390   3.986  17.516 -0.1303 -0.0426  0.0062
69542W        W12459  17.612   5.546  15.676 -0.1337 -0.0199  0.3184
69543W        W12460  16.561   7.253  17.939 -0.0639 -0.2696  0.1149
69544W        W12461  17.327   8.479  18.096  0.2886 -0.4431  0.0696
69545W        W12462  15.511   9.232  19.121 -0.1624  0.2013 -0.0881
69546W        W12463  19.789   6.615  18.547  0.0629  0.0476  0.0244
69547W        W12464  15.662   3.985  17.566 -0.0975  0.0299  0.0950
69548W        W12465  14.840   5.809  15.183  0.0588  0.0439 -0.1120
69549W        W12466  14.857   6.026  17.375  0.2280 -0.2194  0.0323
69550W        W12467  17.217   5.657  16.481  0.0256  0.1654  0.1463
69551W        W12468  14.281   4.952  17.155  0.0200 -0.1553 -0.3834
69552W        W12469  15.727   3.679  16.400 -0.1442 -0.3953 -0.0217
69553W        W12470  14.060   6.880  16.729 -0.0822 -0.3902  0.0291
69554W        W12471  18.082   4.206  18.396  0.1715  0.1538  0.3658
69555W        W12472  16.076   9.328  24.435  0.0794  0.2427  0.1939
69556W        W12473  16.121   5.116  20.721  0.1745 -0.1591 -0.0070
69557W        W12474  15.018   5.201  18.306 -0.0463  0.2516 -0.1640
69558W        W12475  16.549   5.817  19.961 -0.3279  0.0058 -0.3818
69559W        W12476  14.197   4.153  20.587 -0.1129  0.1810  0.0225
69560W        W12477  17.003   6.729  19.590 -0.1851  0.0175  0.3649
69561W        W12478  15.503  34.024  23.105 -0.3127 -0.0580  0.3128
69562W        W12479  17.460   7.704  22.456  0.2481 -0.1504 -0.0101
69563W        W12480  18.671   7.470  21.599  0.0723 -0.0974  0.0070
69564W        W12481  16.993   6.572  20.607 -0.1385  0.0266  0.1476
69565W        W12482  13.186   5.289  21.157  0.1275 -0.0261 -0.3015
69566W        W12483  14.069   5.225  22.905  0.0280 -0.2121  0.1413
69567W        W12484  15.337   3.523  18.613  0.1032  0.1287 -0.4105
69568W        W12485  13.709   2.350  22.442  0.4305  0.1335 -0.0997
69569W        W12486  17.417   5.884  24.015 -0.2705  0.2061 -0.1128
69570W        W12487  14.984   4.111  21.198  0.1348 -0.0098  0.1049
69571W        W12488  16.435   6.027  22.301  0.0464  0.0893  0.1529
69572W        W12489  16.157   3.258  22.216  0.3870  0.1974 -0.1102
69573W        W12490  15.034   6.891  21.289  0.2445 -0.3334  0.1372
69574W        W12491  16.384   4.040  21.660  0.1878 -0.1789 -0.1793
69575W        W12492  16.148   3.287  22.960  0.1223 -0.1966  0.0500
69576W        W12493  17.076   5.547  21.639 -0.4246 -0.0848  0.0581
69577W        W12494  13.201   4.295  19.440  0.0233 -0.0478 -0.3914
69578W        W12495  14.256   5.302  21.946 -0.1112  0.2211  0.0571
69579W        W12496  13.122   4.565  23.646  0.1002 -0.0684 -0.1514
69580W        W12497  16.595   5.103  20.595  0.0529 -0.0777  0.3308
69581W        W12498  16.100   6.742  21.037  0.1433 -0.1435  0.2771
69582W        W12499  14.603   6.566  20.474  0.2380  0.1387  0.2339
69583W        W12500  15.782   5.217  22.132 -0.0511 -0.0799  0.1937
69584W        W12501  17.849   5.775  24.303 -0.0111 -0.0234  0.0438
69585W        W12502  16.093   5.602  20.548 -0.0415 -0.0175  0.4124
69586W        W12503  12.789   4.963  21.986 -0.0188 -0.3159  0.0439
69587W        W12504  13.265   5.693  23.085 -0.1738  0.0302 -0.2105
69588W        W12505  15.751   7.112  20.229 -0.4183  0.0032  0.1319
69589W        W12506  17.276   7.507  22.017 -0.1233 -0.0104 -0.2248
69590W        W12507  15.372   7.180  22.107 -0.0220 -0.2291 -0.1058
69591W        W12508  13.454   7.315  20.615 -0.0470 -0.1034 -0.0691
69592W        W12509  16.726   7.333  23.080  0.1465  0.0034 -0.0295
69593W        W12510  13.918   6.253  22.814 -0.1804  0.1780 -0.0982
69594W        W12511  16.138   5.141  21.318 -0.0558 -0.1888  0.2622
69595W        W12512  14.670   2.270  21.272  0.1203 -0.1820  0.0504
69596W        W12513  14.427   6.662  18.896  0.1061  0.1597  0.1182
69597W        W12514  16.126   5.470  21.718 -0.5012 -0.0223 -0.4880
69598W        W12515  15.458   6.337  23.295 -0.0507 -0.0624  0.1806
69599W        W12516  13.091   5.252  22.701  0.3615 -0.2777  0.2181
69600W        W12517  18.606   6.868  23.655 -0.0350 -0.0251  0.0020
69601W        W12518  13.366   5.370  20.437  0.0239  0.1907 -0.2880
69602W        W12519  15.181   5.099  19.678  0.4151  0.0769 -0.0970
69603W        W12520  16.556   4.488  20.502 -0.0136  0.0585  0.0842
69604W        W12521  16.365   5.553  19.512  0.1078 -0.1669 -0.0761
69605W        W12522  16.896   2.503  22.237  0.1984  0.0883  0.3077
69606W        W12523  14.179   6.854  23.507 -0.0982  0.1943  0.2863
69607W        W12524  16.925   4.628  22.599 -0.2463  0.0876  0.0300
69608W        W12525  17.818   5.589  22.785  0.1487  0.1169  0.3062
69609W        W12526  15.730   6.046  21.540  0.0680 -0.2842 -0.0209
69610W        W12527  15.802   3.670  22.342  0.0725 -0.0157  0.0652
69611W        W12528  15.321   6.837  23.419 -0.1193 -0.3731 -0.0968
69612W        W12529  15.328   4.941  22.299  0.1611  0.0039 -0.0672
69613W        W12530  14.753   8.260  19.964  0.1273 -0.1924  0.3069
69614W        W12531  15.876   8.912  23.095 -0.2437 -0.2126 -0.1665
69615W        W12532  16.324   7.657  21.095 -0.0426 -0.0631 -0.0094
69616W        W12533  14.056   3.421  23.148  0.0643  0.1831  0.1059
69617W        W12534  14.418   4.606  23.533  0.1369 -0.3175  0.4510
69618W        W12535  14.741   3.631  24.321 -0.0215 -0.0427  0.2518
69619W        W12536  14.693   2.783  18.543  0.0469 -0.2461  0.0917
69620W        W12537  19.232   7.388  24.816  0.0166  0.0712 -0.0323
69621W        W12538  14.133   4.449  24.151  0.0403 -0.4038 -0.2263
69622W        W12539  18.371   4.069  21.763  0.1650 -0.1172  0.4122
69623W        W12540  13.919   5.083  23.379  0.4683 -0.2476  0.0173
69624W        W12541  17.480   6.930  22.808  0.0264 -0.0449 -0.1140
69625W        W12542  14.779   5.981  18.836  0.0290 -0.0401  0.0560
69626W        W12543  17.291   3.727  22.761 -0.0387  0.1494 -0.0229
69627W        W12544  18.142   2.906  21.530  0.0395 -0.3023  0.2184
69628W        W12545  13.661   5.075  20.694 -0.0470  0.1386  0.2547
69629W        W12546  15.946   6.879  21.569 -0.0863 -0.3444 -0.0772
69630W        W12547  19.258   6.319  23.362 -0.1585 -0.0581  0.1761
69631W        W12548  17.900   4.291  19.298 -0.2190 -0.2424  0.0976
69632W        W12549  16.426   5.542  23.258 -0.1108  0.0878 -0.2812
69633W        W12550  15.099   4.058  25.335  0.0335  0.0692 -0.1145
69634W        W12551  16.663   5.907  21.847 -0.0101 -0.0618  0.0229
69635W        W12552  14.521   6.881  19.419 -0.0925 -0.2007  0.2562
69636W        W12553  15.647   3.009  23.093 -0.0304  0.2533 -0.0369
69637W        W12554  14.550   5.409  20.462  0.3139 -0.0456 -0.1554
69638W        W12555  15.207   4.473  22.979  0.5069  0.2058 -0.0120
69639W        W12556  16.749   6.684  24.496  0.4106  0.1649  0.2836
69640W        W12557  18.028   4.650  19.748 -0.0615 -0.0634  0.0892
69641W        W12558  14.620   2.407  24.194  0.1248  0.0459 -0.0753
69642W        W12559  18.407   4.609  20.580  0.0743 -0.0530 -0.0738
69643W        W12560  15.485   4.611  20.783  0.1729  0.1638 -0.0665
69644W        W12561  16.062   5.590  19.948 -0.0096  0.0417  0.0161
69645W        W12562  15.452   6.474  19.682  0.1365 -0.2807 -0.0795
69646W        W12563  17.081   5.646  19.642  0.0656  0.0033 -0.1139
69647W        W12564  14.694   6.766  24.296  0.0099  0.2397 -0.0735
69648W        W12565  15.902   3.894  20.800 -0.1330 -0.3053  0.0175
69649W        W12566  13.311   4.796  24.696 -0.2836 -0.3541 -0.5322
69650W        W12567  16.722   4.800  24.838  0.3692  0.0258  0.0671
69651W        W12568  18.216   5.313  21.092  0.1117 -0.1234  0.1580
69652W        W12569  15.622   2.868  21.949  0.2113 -0.0791 -0.1225
69653W        W12570  17.990   4.779  21.321  0.1258 -0.1132 -0.0037
69654W        W12571  16.709   4.463  21.766 -0.0771  0.0304  0.1868
69655W        W12572  14.557   6.359  23.237  0.0061 -0.1042 -0.4001
69656W        W12573  17.114   4.998  23.868 -0.1638 -0.1867 -0.1785
69657W        W12574  16.830   6.146  20.871 -0.1514  0.0162 -0.0378
69658W        W12575  16.841   8.384  23.689  0.1269  0.1863  0.1126
69659W        W12576  16.964   7.100  20.419  0.0640  0.1614  0.0255
69660W        W12577  17.048   3.527  22.015  0.3513 -0.1463  0.1496
69661W        W12578  15.243   6.036  19.811 -0.1224  0.0071 -0.1400
69662W        W12579  16.161   5.330  23.608  0.2294  0.1212  0.0438
69663W        W12580  14.492   5.623  22.507  0.0379 -0.1952 -0.2569
69664W        W12581  15.450   4.585  22.598 -0.0039 -0.1052  0.3709
69665W        W12582  18.936   7.746  22.053 -0.2702 -0.0190 -0.1006
69666W        W12583  16.823   5.169  19.770 -0.2386 -0.2074  0.0359
69667W        W12584  15.337   5.403  24.470  0.2764 -0.4225 -0.0290
69668W        W12585  17.636   6.106  21.944 -0.0098  0.1332 -0.0681
69669W        W12586  18.572   6.422  21.531  0.0446  0.0773  0.2589
69670W        W12587  15.784   3.466  21.908 -0.1137 -0.0600  0.1641
69671W        W12588  16.400   2.010  17.674  0.0758 -0.1750 -0.0792
69672W        W12589  16.073   7.660  22.115 -0.2099  0.3089  0.0202
69673W        W12590  13.764   5.837  19.941 -0.3070 -0.0766  0.0430
69674W        W12591  14.403   6.116  21.499  0.1445  0.1473 -0.2824
69675W        W12592  15.579   8.108  21.412 -0.3816 -0.0908  0.0577
69676W        W12593  18.454   5.596  23.039 -0.1230  0.1496 -0.0070
69677W        W12594  15.500   4.232  25.678  0.3842 -0.0015  0.2710
69678W        W12595  17.406   4.539  22.550 -0.1018  0.1450  0.1440
69679W        W12596  13.917   4.527  20.392  0.0548  0.1545 -0.0139
69680W        W12597  16.051   6.631  24.079 -0.2002 -0.0363 -0.0762
69681W        W12598  17.629   3.268  21.673  0.0744 -0.2341  0.1367
69682W        W12599  17.127   4.763  19.743  0.1028 -0.0684  0.0098
69683W        W12600  16.799   5.171  23.172 -0.0521  0.1883  0.0567
69684W        W12601  18.555   5.096  20.738 -0.0108  0.1501 -0.1248
69685W        W12602  19.509   7.763  18.298  0.3831 -0.2087 -0.2252
69686W        W12603  15.640   4.170  20.377 -0.2286 -0.1964 -0.1855
69687W        W12604  13.138   6.484  25.175  0.3284  0.0772 -0.2292
69688W        W12605  17.313   6.073  20.788  0.0430 -0.1210 -0.0221
69689W        W12606  13.934   6.201  24.027 -0.1215  0.3452  0.0863
69690W        W12607  17.129   4.603  20.323  0.0429 -0.0832  0.0778
69691W        W12608  17.356   6.901  20.964  0.2604 -0.0059  0.3431
69692W        W12609  15.725   6.238  22.204 -0.0190  0.0776  0.3043
69693W        W12610  17.997   6.511  22.808 -0.0361  0.0860 -0.0320
69694W        W12611  15.499   7.161  19.222 -0.0691 -0.1709  0.1226
69695W        W12612  17.329   3.547  24.255  0.1700  0.0274 -0.1325
69696W        W12613  14.946   5.572  22.732  0.1045  0.1057  0.1618
69697W        W12614  16.921   5.610  20.186 -0.0376  0.2034  0.3230
69698W        W12615  13.600   7.735  20.787  0.3065  0.0215  0.0149
69699W        W12616  18.717   4.633  23.177 -0.3016  0.1595 -0.2747
69700W        W12617  15.407   4.016  23.086 -0.1787  0.2437 -0.1553
69701W        W12618  16.755   2.165  21.826 -0.0132  0.1331 -0.0778
69702W        W12619  16.873   6.265  22.156  0.1824 -0.0396 -0.0563
69703W        W12620  17.567   6.811  21.446 -0.2011 -0.0685  0.0482
69704W        W12621  18.962   4.993  22.440  0.0149 -0.2952 -0.1752
69705W        W12622  15.945   5.556  21.086  0.0518 -0.0907  0.0828
69706W        W12623  17.005   6.201  23.558 -0.1539 -0.0416  0.0853
69707W        W12624  14.463   3.824  22.783  0.1433 -0.0338  0.0370
69708W        W12625  13.625   3.679  24.088  0.0791  0.2418  0.0476
69709W        W12626  15.954   6.325  23.126  0.5136  0.0983  0.0769
69710W        W12627  17.153   4.377  21.198 -0.2889  0.0587 -0.1562
69711W        W12628  17.159   4.970  22.316  0.1402 -0.3426  0.0039
69712W        W12629  15.480   4.209  18.978  0.1420  0.0101  0.0145
69713W        W12630  13.569   5.583  21.343 -0.2077 -0.0598 -0.0679
69714W        W12631  15.670   5.660  20.314 -0.1022 -0.0838  0.1935
69715W        W12632  15.706   4.352  22.161 -0.0833 -0.0755 -0.3585
69716W        W12633  17.238   5.492  22.650 -0.0719  0.0591 -0.1138
69717W        W12634  13.890   5.392  20.447 -0.1551 -0.2551 -0.1814
69718W        W12635  15.044   6.628  23.050  0.1377  0.2120  0.0277
69719W        W12636  15.892   5.407  23.131  0.0376 -0.0971 -0.2162
69720W        W12637  19.009   2.511  23.432  0.1779 -0.1070  0.0160
69721W        W12638  11.784   4.868  22.063  0.2562  0.1651 -0.0586
69722W        W12639  14.759   6.482  21.415  0.0932  0.1049  0.0972
69723W        W12640  13.512   5.917  19.470  0.1461 -0.0378  0.2955
69724W        W12641  17.343   2.611  20.668 -0.3534  0.2070 -0.0354
69725W        W12642  17.995   5.852  19.001 -0.4835  0.1582  0.0895
69726W        W12643  16.670   3.439  22.313 -0.2940  0.0184  0.2607
69727W        W12644  14.440   3.615  22.289 -0.5862 -0.1040 -0.1996
69728W        W12645  14.471   4.060  21.884  0.0164  0.1923  0.0607
69729W        W12646  17.425   5.290  21.321  0.0804  0.1123 -0.0687
69730W        W12647  17.593   2.495  18.072  0.2348 -0.0746  0.0432
69731W        W12648  16.267   5.187  22.220  0.1739 -0.0198  0.2770
69732W        W12649  18.110   4.789  21.845  0.0125  0.2007 -0.3001
69733W        W12650  15.968   3.396  20.539 -0.2996 -0.1176 -0.3305
69734W        W12651  16.759   3.813  22.680 -0.2669 -0.0694 -0.1632
69735W        W12652  14.391   5.551  23.073 -0.0136  0.0437  0.2693
69736W        W12653  14.076   5.664  21.621 -0.1321 -0.3312  0.0020
69737W        W12654  17.827   5.904  20.619 -0.2727 -0.1402 -0.2792
69738W        W12655  15.301   5.589  19.982  0.1131  0.1524 -0.0288
69739W        W12656  15.181   5.091  20.915 -0.2278  0.1966 -0.1204
69740W        W12657  15.709   5.770  22.714  0.0863 -0.0402  0.0290
69741W        W12658  17.520   5.371  23.112  0.1053 -0.1840  0.0171
69742W        W12659  15.677   5.147  24.180 -0.0241  0.2360 -0.2203
69743W        W12660  14.121   4.140  21.105 -0.2145  0.1225  0.1022
69744W        W12661  15.099   5.481  21.315 -0.1107 -0.2258  0.2029
69745W        W12662  15.285   5.914  18.986  0.1937  0.3177  0.3322
69746W        W12663  14.208   4.688  22.915 -0.1796 -0.0186 -0.1067
69747W        W12664  14.741   5.627  24.174  0.0680 -0.1478  0.1739
69748W        W12665  17.321   3.605  23.592 -0.0371 -0.1411 -0.3252
69749W        W12666  17.115   9.024  20.080 -0.1457  0.1211  0.3592
69750W        W12667  15.260   5.184  21.854 -0.2125  0.0985  0.2442
69751W        W12668  12.590   5.337  20.837  0.0783 -0.1395 -0.0620
69752W        W12669  14.982   3.989  21.780 -0.1168  0.1962 -0.1428
69753W        W12670  14.809   5.104  22.195 -0.0563  0.1556 -0.0991
69754W        W12671  18.156   3.364  23.161  0.3252 -0.2340 -0.3271
69755W        W12672  15.821   5.324  24.627 -0.0416 -0.1487 -0.1614
69756W        W12673  13.741   4.421  21.271 -0.0918 -0.0115  0.3097
69757W        W12674  13.157   4.712  23.178  0.2328 -0.1372 -0.0564
69758W        W12675  18.980   3.593  22.916  0.0450 -0.1435  0.3010
69759W        W12676  17.084   5.116  20.231 -0.1898 -0.0255  0.0560
69760W        W12677  16.592   4.243  22.408  0.0538 -0.1798  0.0270
69761W        W12678  18.070   5.941  23.876  0.2162  0.0252 -0.2727
69762W        W12679  17.539   5.624  19.424  0.0228 -0.0388  0.0292
69763W        W12680  17.507   3.244  23.196  0.2831 -0.0369  0.0127
69764W        W12681  15.031   2.196  22.913 -0.2331  0.0325  0.3321
69765W        W12682  15.658   6.720  20.602  0.1225 -0.2571  0.1006
69766W        W12683  13.617   3.548  23.622 -0.2327  0.0236  0.0063
69767W        W12684  15.271   6.204  22.033  0.3574  0.2774 -0.0206
69768W        W12685  16.115   5.781  24.325  0.0530  0.0724  0.1010
69769W        W12686  14.951   3.636  19.826  0.1012 -0.1407 -0.0100
69770W        W12687  15.875   3.093  21.268 -0.1435  0.1432 -0.1234
69771W        W12688  16.297   6.008  20.853 -0.0931  0.1325  0.2861
69772W        W12689  18.817   7.387  20.768 -0.1844  0.0994  0.5701
69773W        W12690  16.110   4.881  21.904  0.1975 -0.0207  0.1792
69774W        W12691  16.427   6.866  21.485 -0.0351  0.1781  0.3008
69775W        W12692  15.800   5.595  25.080  0.0653 -0.2062  0.1575
69776W        W12693  17.803   6.212  20.193  0.1304  0.1606 -0.0242
69777W        W12694  16.944   4.663  20.846 -0.0618  0.2486 -0.2592
69778W        W12695  15.614   4.759  21.901  0.0790 -0.2625 -0.0970
69779W        W12696  14.610   4.722  25.020  0.1056 -0.0287  0.5456
69780W        W12697  17.807   7.120  21.784 -0.1019 -0.2764 -0.0748
69781W        W12698  18.967   3.938  21.486  0.1309  0.0041  0.1629
69782W        W12699  16.956   2.855  22.608 -0.1547 -0.0086 -0.2352
69783W        W12700  16.267   4.455  23.265 -0.2137 -0.0236 -0.0108
69784W        W12701  16.276   4.658  22.457 -0.0560 -0.1784 -0.0656
69785W        W12702  15.222   3.590  22.533 -0.2318  0.1018 -0.1468
69786W        W12703  17.888   6.229  22.375  0.2354 -0.0229 -0.0165
69787W        W12704  15.356   4.832  18.485  0.0211  0.0897 -0.0555
69788W        W12705  17.133   4.954  22.861 -0.0564 -0.1804  0.1784
69789W        W12706  16.723   6.573  19.078 -0.1871 -0.0838 -0.2587
69790W        W12707  14.871   7.016  19.844  0.2089 -0.0568 -0.0008
69791W        W12708  16.269   3.033  21.756  0.1141 -0.2871 -0.0075
69792W        W12709  18.906   2.986  22.674 -0.4264  0.0937 -0.1224
69793W        W12710  14.904   3.203  20.015 -0.2076 -0.1044 -0.3451
69794W        W12711  17.681   3.414  22.636 -0.0075 -0.0320  0.1665
69795W        W12712  15.722   6.069  19.471  0.0484  0.2277  0.2374
69796W        W12713  15.159   5.388  20.444 -0.1866 -0.1802 -0.0825
69797W        W12714  18.012   6.564  21.104  0.0647  0.1189  0.1028
69798W        W12715  14.559   3.259  21.723 -0.1814  0.3217  0.1393
69799W        W12716  15.564   5.918  23.781 -0.1847 -0.1236  0.1103
69800W        W12717  15.129   3.031  18.766 -0.0486  0.4237 -0.0680
69801W        W12718  14.276   5.520  20.842  0.1726  0.2647 -0.1122
69802W        W12719  18.179   7.606  20.061  0.2818 -0.4017 -0.1171
69803W        W12720  17.388   6.238  22.379 -0.0328  0.0907 -0.1262
69804W        W12721  17.064   4.181  19.782 -0.0167 -0.0883 -0.0570
69805W        W12722  19.730   7.548  20.299 -0.1619  0.1034 -0.0299
69806W        W12723  15.476   5.503  20.802  0.1148  0.1068 -0.1928
69807W        W12724  16.542   3.473  21.826 -0.2476  0.0077  0.1121
69808W        W12725  13.581   4.992  21.202  0.0387  0.2223 -0.1176
69809W        W12726  14.549   4.115  25.278  0.1034  0.2149 -0.0265
69810W        W12727  14.799   6.032  21.853 -0.3633 -0.2172  0.2337
69811W        W12728  18.191   1.849  22.367 -0.2078 -0.1288 -0.3183
69812W        W12729  17.519   4.337  20.120  0.0658  0.3543 -0.1519
69813W        W12730  15.984   5.769  22.318 -0.4550  0.0199  0.3106
69814W        W12731  18.299   5.971  20.317  0.2352 -0.4573 -0.2145
69815W        W12732  16.943   7.659  23.999 -0.1048  0.0786 -0.1963
69816W        W12733  15.128   4.922  20.252  0.1464  0.1308  0.2991
69817W        W12734  15.936   6.883  22.074 -0.0736 -0.0292 -0.0952
69818W        W12735  19.221   9.342  21.245 -0.2365 -0.2425  0.2956
69819W        W12736  16.915   5.664  23.324  0.1593  0.1773 -0.3453
69820W        W12737  14.430   3.673  25.545  0.2422  0.2503  0.0609
69821W        W12738  16.705   6.516  25.181 -0.1126  0.1727 -0.0514
69822W        W12739  16.422   2.902  22.447 -0.0160  0.0117  0.1184
69823W        W12740  16.005   2.747  22.226 -0.1647  0.0162  0.0240
69824W        W12741  15.426   5.879  21.158  0.2301 -0.2240  0.0676
69825W        W12742  16.116   4.876  22.873 -0.0625 -0.0357  0.1405
69826W        W12743  13.579   5.053  23.770  0.0268  0.0607 -0.1115
69827W        W12744  15.024   6.887  22.306 -0.0263  0.2743 -0.1555
69828W        W12745  18.548   7.860  19.462  0.1806 -0.1308 -0.3563
69829W        W12746  16.602   5.754  20.523 -0.1943  0.0963  0.2611
69830W        W12747  14.531   4.837  21.772 -0.1911 -0.0345  0.0358
69831W        W12748  14.699   4.137  20.337  0.2160 -0.0918 -0.0381
69832W        W12749  14.202   5.234  22.407 -0.3312  0.0729 -0.0020
69833W        W12750  13.304   7.671  20.247  0.0318  0.0364 -0.1451
69834W        W12751  15.843   8.465  20.929  0.0803  0.2583 -0.1003
69835W        W12752  12.070   6.372  18.011  0.2695  0.1447 -0.0502
69836W        W12753  16.658   6.227  20.229 -0.2246  0.1084 -0.0759
69837W        W12754  15.676   4.227  19.905  0.0942 -0.0742  0.2901
69838W        W12755  17.725   6.476  20.687 -0.2603  0.2997 -0.0439
69839W        W12756  17.729   3.520  19.509  0.0202  0.0433 -0.1602
69840W        W12757  15.236   5.945  22.487 -0.0952  0.0924  0.0717
69841W        W12758  16.119   3.631  21.574 -0.2084  0.0302  0.0477
69842W        W12759  16.499   4.234  21.216  0.0351 -0.0792 -0.1742
69843W        W12760  16.682   7.282  23.711 -0.2496 -0.1966 -0.1698
69844W        W12761  18.580   5.248  24.356  0.0046  0.2082 -0.0084
69845W        W12762  15.350   5.984  24.297  0.1177 -0.0815 -0.2597
69846W        W12763  16.264   8.613  18.333  0.3900  0.1052  0.2581
69847W        W12764  15.212   4.335  24.001 -0.0218  0.1723  0.2894
69848W        W12765  14.710   4.417  21.553  0.1680 -0.1299 -0.0652
69849W        W12766  17.846   3.725  22.980  0.0745 -0.1235 -0.1567
69850W        W12767  17.472   5.942  19.849  0.0662  0.0205  0.1367
69851W        W12768  16.183   2.603  21.312  0.1137 -0.0379 -0.2730
69852W        W12769  14.296   6.206  22.378  0.1397  0.1656 -0.2104
69853W        W12770  13.536   5.274  23.045 -0.2628 -0.3863 -0.3317
69854W        W12771  14.114   4.845  21.298 -0.0822  0.0247 -0.0960
69855W        W12772  15.225   4.003  18.386 -0.0971  0.0319 -0.1176
69856W        W12773  18.540   3.927  18.198  0.0807  0.0209  0.1191
69857W        W12774  16.692   4.557  23.496 -0.2547 -0.0427 -0.1142
69858W        W12775  18.217   5.945  22.753 -0.0808 -0.1008 -0.0886
69859W        W12776  14.918   3.144  21.359 -0.2192  0.2514 -0.0353
69860W        W12777  18.031   4.349  21.570 -0.3124 -0.0675 -0.3310
69861W        W12778  16.306   6.745  22.874 -0.0681  0.0882 -0.2184
69862W        W12779  14.632   4.611  24.014 -0.0441  0.0607  0.0421
69863W        W12780  15.934   4.438  22.839  0.5071 -0.1266  0.2374
69864W        W12781  18.915   6.754  21.849 -0.0364 -0.4125  0.1362
69865W        W12782  15.624   4.478  19.387  0.1272 -0.2266  0.1926
69866W        W12783  15.829   7.238  22.414 -0.2047  0.3078 -0.2391
69867W        W12784  14.159   3.443  22.652  0.0427 -0.0183  0.0462
69868W        W12785  15.554   3.117  20.328 -0.1876 -0.0226  0.0893
69869W        W12786  13.988   5.815  21.127 -0.4034  0.3258  0.5557
69870W        W12787  14.730   2.667  22.657  0.1141  0.1479 -0.0622
69871W        W12788  18.344   9.126  22.678  0.0803 -0.0267 -0.0309
69872W        W12789  14.892   3.404  22.120  0.3020 -0.0716  0.3917
69873W        W12790  19.301   6.968  19.904 -0.0441 -0.1256 -0.0588
69874W        W12791  19.881   5.885  20.715  0.3092  0.0094  0.1221
69875W        W12792  16.967   6.620  20.055  0.1087 -0.2003 -0.0159
69876W        W12793  17.713   4.637  20.562  0.2167  0.0609  0.3736
69877W        W12794  18.489   6.491  20.225 -0.2397  0.0151 -0.2092
69878W        W12795  15.184   5.037  24.082 -0.4122  0.2638 -0.0132
69879W        W12796  14.402   6.094  21.021 -0.0224 -0.1857 -0.0601
69880W        W12797  18.901   5.238  21.985 -0.0829  0.0948 -0.2662
69881W        W12798  17.347   5.864  20.353  0.0745  0.0488 -0.0654
69882W        W12799  15.045   4.620  21.136  0.0353  0.2137 -0.1792
69883W        W12800  14.430   7.053  20.209 -0.1364  0.1577 -0.2519
69884W        W12801  16.157   5.957  21.889  0.2750  0.1011 -0.2355
69885W        W12802  16.525   2.425  22.654 -0.0667  0.0316  0.2216
69886W        W12803  15.431   8.468  20.395 -0.2024  0.1195  0.2910
69887W        W12804  17.155   3.117  23.842 -0.0099 -0.0714  0.2676
69888W        W12805  15.195   6.474  22.507 -0.0051 -0.1675  0.0782
69889W        W12806  16.242   5.095  24.887 -0.0173 -0.1452 -0.0165
69890W        W12807  12.779   4.456  21.217 -0.2124 -0.2603  0.0844
69891W        W12808  16.641   6.216  22.667 -0.0242  0.3513 -0.1329
69892W        W12809  16.237   4.398  21.987 -0.1161  0.0860  0.0560
69893W        W12810  15.617   5.196  20.445 -0.1061  0.1344  0.0481
69894W        W12811  16.594   5.373  21.856  0.1170 -0.3226  0.0535
69895W        W12812  17.048   4.512  22.142  0.2359  0.0597 -0.2236
69896W        W12813  16.889   6.811  21.579  0.2340 -0.1213  0.2237
69897W        W12814  17.749   4.278  20.999  0.3133  0.1872 -0.1184
69898W        W12815  16.108   4.313  20.708 -0.1269  0.0633  0.1502
69899W        W12816  16.175   3.561  19.233 -0.0348  0.0819 -0.1340
69900W        W12817  17.903   4.568  22.749 -0.1691  0.3068 -0.1047
69901W        W12818  13.150   8.100  20.081  0.1784 -0.0699 -0.0097
69902W        W12819  16.499   4.464  19.305 -0.2047  0.0480 -0.1137
69903W        W12820  14.594   5.129  21.032  0.3545 -0.3282 -0.1019
69904W        W12821  15.252   2.640  22.912  0.0189 -0.0453  0.0985
69905W        W12822  16.112   6.250  22.662 -0.0130 -0.0886  0.1183
69906W        W12823  16.458   3.693  23.034 -0.1200 -0.2195 -0.6619
69907W        W12824  15.281   5.913  21.655  0.2632  0.0180  0.1681
69908W        W12825  17.310   7.028  19.865 -0.1130 -0.0097  0.1118
69909W        W12826  14.796   5.103  23.704 -0.1769  0.0437  0.0168
69910W        W12827  15.139   3.019  21.814  0.0445  0.0908 -0.1755
69911W        W12828  15.757   5.962  20.749  0.1124  0.1899 -0.2372
69912W        W12829  15.893   7.942  21.071  0.1505  0.1316  0.4861
69913W        W12830  15.157   3.959  20.507 -0.1000 -0.1354  0.2479
69914W        W12831  17.183   6.545  21.930 -0.1442  0.3449  0.2839
69915W        W12832  15.587   5.675  18.646  0.4797  0.0661  0.0798
69916W        W12833  18.010   5.230  22.068  0.0762  0.3720 -0.1507
69917W        W12834  17.158   4.772  23.388  0.1002 -0.2009 -0.1232
69918W        W12835  16.401   3.553  18.552 -0.1869  0.0073 -0.0358
69919W        W12836  16.465   4.701  20.991  0.2575  0.2093 -0.0823
69920W        W12837  17.080   4.865  21.307 -0.3024 -0.0055  0.1703
69921W        W12838  14.213   7.065  19.069 -0.1011 -0.0716 -0.1855
69922W        W12839  14.392   3.978  23.247 -0.3681 -0.1072 -0.1475
69923W        W12840  15.391   5.404  23.044  0.1483  0.1869 -0.0944
69924W        W12841  13.988   3.330  23.952  0.2073  0.3111 -0.0683
69925W        W12842  16.123   4.342  20.067  0.0265 -0.0513  0.0161
69926W        W12843  13.254   5.173  22.217 -0.3984  0.0778 -0.0432
69927W        W12844  15.569   5.543  21.503 -0.0375  0.3928  0.2121
69928W        W12845  16.592   3.294  22.775 -0.0206 -0.0452  0.2443
69929W        W12846  18.879   5.103  19.908 -0.0754  0.0553  0.1408
69930W        W12847  16.912   4.323  23.072  0.1582 -0.0769 -0.2417
69931W        W12848  15.115   5.657  23.497  0.3518  0.0710  0.1972
69932W        W12849  17.323   4.973  20.678 -0.0924 -0.0810  0.4863
69933W        W12850  15.944   4.688  21.002 -0.0345 -0.1888 -0.2585
69934W        W12851  17.541   4.176  21.451 -0.0069  0.3061  0.0342
69935W        W12852  18.084   8.651  19.879 -0.0217  0.1627  0.0069
69936W        W12853  17.237   4.595  21.710 -0.2994 -0.3132  0.4044
69937W        W12854  16.218   5.888  21.415 -0.0373  0.0917  0.0120
69938W        W12855  15.537   5.696  22.017  0.1770 -0.2555  0.2861
69939W        W12856  14.306   5.977  21.968 -0.0930  0.0249  0.1593
69940W        W12857  18.336   6.988  20.139  0.3962 -0.0166 -0.0967
69941W        W12858  16.225   4.368  17.988  0.0138  0.1302  0.0618
69942W        W12859  18.333   6.918  20.654 -0.2530  0.0435  0.0427
69943W        W12860  16.234   8.747  22.700  0.0713  0.1096 -0.0908
69944W        W12861  18.702   8.153  23.280  0.3137  0.2288  0.0505
69945W        W12862  15.931   6.240  21.142  0.2171  0.0216  0.0813
69946W        W12863  17.404   6.459  19.863 -0.1723  0.0278  0.1395
69947W        W12864  14.544   2.629  22.180  0.1611  0.1597 -0.4353
69948W        W12865  15.400   4.311  21.788 -0.1524 -0.1460  0.0311
69949W        W12866  17.016   5.468  22.135  0.3641 -0.0114 -0.3853
69950W        W12867  16.601   6.465  21.806  0.0034  0.2260 -0.1192
69951W        W12868  16.177   4.576  21.494  0.2542 -0.1778 -0.1419
69952W        W12869  16.810   5.334  18.715  0.3164 -0.0826 -0.1364
69953W        W12870  16.480   6.259  23.173  0.0164  0.1046 -0.4026
69954W        W12871  17.747   6.123  21.049  0.1076 -0.1374 -0.2307
69955W        W12872  14.107   7.079  25.825 -0.4449 -0.1270 -0.1060
69956W        W12873  14.269   3.439  24.582 -0.0520  0.2832 -0.0392
69957W        W12874  16.564   5.584  22.340  0.0677  0.2477  0.3008
69958W        W12875  18.445   6.912  24.584  0.1292  0.1897  0.1347
69959W        W12876  13.724   2.771  25.156 -0.0483 -0.1461  0.0029
69960W        W12877  17.083   6.526  25.580 -0.0063 -0.2559  0.0121
69961W        W12878  14.434   5.372  27.275 -0.0306  0.1374  0.2357
69962W        W12879  17.005   5.558  25.986  0.0420 -0.2662 -0.0961
69963W        W12880  16.575   8.216  28.607 -0.1834 -0.2311 -0.0896
69964W        W12881  15.837   4.855  22.439  0.3341 -0.2067  0.3999
69965W        W12882  15.977   6.251  27.831  0.0031 -0.0224  0.3099
69966W        W12883  15.704   6.333  25.551  0.0080 -0.1336 -0.0202
69967W        W12884  19.312   3.119  24.152  0.0887  0.0638 -0.1561
69968W        W12885  13.555   5.249  24.327 -0.0476  0.0143 -0.1379
69969W        W12886  18.380   3.695  22.814  0.0788 -0.0058  0.2077
69970W        W12887  15.122   1.775  23.639  0.0422  0.2130 -0.3457
69971W        W12888  16.054   3.277  24.262  0.1096  0.0570  0.1298
69972W        W12889  17.603   5.016  23.825  0.1171  0.1810 -0.0083
69973W        W12890  16.634   7.370  24.826 -0.2241  0.0885  0.0740
69974W        W12891  13.307   2.310  27.341 -0.2042  0.1322  0.0399
69975W        W12892  17.561   1.905  28.239 -0.2620 -0.0325 -0.1144
69976W        W12893  16.073   5.880  23.304  0.1752  0.0941 -0.1354
69977W        W12894  14.904   5.030  24.692  0.0355 -0.2855  0.1966
69978W        W12895  14.501   3.063  26.696  0.0499  0.0735  0.0785
69979W        W12896  14.969   5.103  25.545 -0.0902 -0.1712  0.0663
69980W        W12897  17.509   4.961  24.449  0.1403 -0.0293  0.1473
69981W        W12898  17.026   5.253  25.535 -0.2084  0.0424 -0.2045
69982W        W12899  15.089   5.924  24.771 -0.3061 -0.0430  0.1361
69983W        W12900  17.556   7.254  24.838 -0.1321  0.0733 -0.2434
69984W        W12901  14.130   2.190  25.097  0.2747 -0.0733  0.0175
69985W        W12902  15.853   2.570  24.206  0.1262  0.1210  0.2139
69986W        W12903  16.691   6.978  25.112 -0.3819  0.1154  0.0279
69987W        W12904  16.157   7.249  23.428  0.1748 -0.2503 -0.0351
69988W        W12905  16.502   8.195  23.335 -0.1930 -0.3210  0.2738
69989W        W12906  17.976   5.098  27.916  0.1178  0.1606  0.1487
69990W        W12907  14.118   8.414  26.271  0.2205  0.1134  0.0008
69991W        W12908  15.089   6.447  24.227 -0.2738  0.0538  0.1208
69992W        W12909  15.796   6.595  25.067  0.0066 -0.0911  0.0248
69993W        W12910  13.797   6.464  28.402  0.5219 -0.1080  0.3309
69994W        W12911  14.862   4.000  23.778 -0.2565  0.1772 -0.2164
69995W        W12912  16.144   4.923  25.406 -0.1627 -0.0980  0.2550
69996W        W12913  13.719   5.435  26.282 -0.1040 -0.1207 -0.3184
69997W        W12914  17.017   5.923  22.498 -0.0823 -0.0251 -0.1065
69998W        W12915  17.933   4.291  28.373  0.0117 -0.1391 -0.1753
69999W        W12916  16.166   6.210  25.929 -0.1593 -0.0323  0.0408
70000W        W12917  18.156   4.951  29.628 -0.1421  0.2670  0.1834
70001W        W12918  13.908   4.387  26.622 -0.0630  0.2815  0.0607
70002W        W12919  17.736   5.551  23.824  0.0572  0.0583 -0.2928
70003W        W12920  16.078   4.890  23.879 -0.2058 -0.0264 -0.0551
70004W        W12921  17.752   5.508  25.167  0.1690  0.1843  0.2344
70005W        W12922  16.304   4.403  23.773  0.7118  0.0554  0.0167
70006W        W12923  14.163   6.322  25.762 -0.1865 -0.0556  0.1505
70007W        W12924  15.818   3.206  23.651 -0.3302 -0.2355 -0.2111
70008W        W12925  18.195   6.031  27.680 -0.1537 -0.1150 -0.0964
70009W        W12926  17.356   4.437  24.478 -0.0076  0.2674 -0.1162
70010W        W12927  16.982   5.448  26.924 -0.3747  0.1599  0.0311
70011W        W12928  15.240   6.268  26.182 -0.1117 -0.0905 -0.2690
70012W        W12929  16.165   3.679  25.973 -0.1931  0.3483 -0.0286
70013W        W12930  16.318   7.399  21.567  0.1784 -0.1819 -0.0096
70014W        W12931  18.011   6.937  24.878  0.1338 -0.0983  0.0864
70015W        W12932  16.431   7.631  23.959 -0.0741 -0.1188 -0.1366
70016W        W12933  14.823   7.578  24.607  0.3294 -0.2224  0.0971
70017W        W12934  14.059   5.689  26.556  0.1392 -0.2418 -0.0510
70018W        W12935  15.060   3.213  25.098 -0.1382 -0.2305 -0.1317
70019W        W12936  16.268   3.655  22.568  0.0749  0.1103 -0.1327
70020W        W12937  18.497   7.106  28.750  0.3522  0.2774  0.0481
70021W        W12938  14.411   5.620  26.149  0.1703  0.3756 -0.0182
70022W        W12939  15.525   4.409  24.675  0.2743 -0.1166  0.1464
70023W        W12940  16.403   5.469  26.277 -0.0294 -0.2639  0.0368
70024W        W12941  17.089   6.866  26.771  0.4817  0.2766  0.1583
70025W        W12942  18.215   7.351  20.434 -0.0688 -0.0530  0.0003
70026W        W12943  17.248   2.772  24.241  0.2013  0.1501 -0.0800
70027W        W12944  16.328   4.177  25.081  0.2483  0.0809 -0.2453
70028W        W12945  13.156   5.142  23.535  0.0323  0.1176 -0.2534
70029W        W12946  15.381   6.429  23.810  0.1185 -0.1216 -0.2367
70030W        W12947  17.087   6.993  24.184 -0.1516 -0.0903  0.0369
70031W        W12948  17.663   4.873  21.670  0.0027  0.3416  0.3312
70032W        W12949  15.450   4.471  29.117  0.0377 -0.0114 -0.1178
70033W        W12950  17.510   3.595  29.030 -0.2410  0.2931  0.2609
70034W        W12951  16.525   4.610  26.682 -0.0919 -0.0049  0.1812
70035W        W12952  15.564   5.412  23.592  0.0407 -0.0013 -0.0157
70036W        W12953  16.543   2.494  27.206 -0.2367 -0.2726  0.0211
70037W        W12954  13.521   1.992  25.690 -0.0810 -0.2212  0.2779
70038W        W12955  14.094   3.210  25.327  0.0841  0.2694  0.1003
70039W        W12956  14.367   5.760  26.908  0.0373 -0.2129  0.1777
70040W        W12957  17.033   6.485  22.722  0.1812 -0.1935 -0.0959
70041W        W12958  14.805   2.778  24.472 -0.1409  0.0028 -0.1851
70042W        W12959  17.366   4.753  25.437 -0.2164 -0.1254 -0.1238
70043W        W12960  11.984   5.068  24.506 -0.1425 -0.3376  0.1255
70044W        W12961  16.256   8.305  23.789 -0.0103  0.4175 -0.2476
70045W        W12962  18.679   6.024  22.918  0.1838 -0.0087  0.0122
70046W        W12963  15.447   6.995  22.587 -0.3218 -0.1179 -0.0488
70047W        W12964  13.106   3.375  26.841  0.0511  0.3772  0.1294
70048W        W12965  14.984   3.917  26.265  0.1484  0.2332  0.1518
70049W        W12966  15.895   4.528  25.582  0.1566  0.0373 -0.1700
70050W        W12967  13.203   2.222  26.093  0.0810 -0.1943 -0.1432
70051W        W12968  18.405   4.288  27.546 -0.0952  0.2483 -0.3380
70052W        W12969  14.976   3.705  24.784  0.1591 -0.0863 -0.0465
70053W        W12970  16.530   3.310  24.688  0.2899  0.1847 -0.0007
70054W        W12971  17.210   5.754  21.174 -0.3047 -0.1551 -0.0481
70055W        W12972  14.781   4.178  24.893  0.0861  0.0179 -0.2038
70056W        W12973  16.936   4.249  26.625 -0.0439  0.3731 -0.2545
70057W        W12974  15.621   7.201  23.249 -0.0421  0.0091 -0.1488
70058W        W12975  18.288   5.347  26.032  0.0637  0.0038  0.0121
70059W        W12976  17.319   6.466  26.970  0.1446  0.0212  0.0751
70060W        W12977  16.145   3.326  27.023 -0.0829  0.0576 -0.1585
70061W        W12978  15.682   3.392  22.753 -0.0216 -0.2995 -0.3728
70062W        W12979  16.182   6.718  25.872  0.0909 -0.1853  0.1546
70063W        W12980  13.444   4.697  25.659  0.1033  0.0524  0.0834
70064W        W12981  15.784   2.685  23.642  0.1894  0.2296 -0.1392
70065W        W12982  17.028   7.885  25.271  0.0962  0.2201 -0.2798
70066W        W12983  16.762   6.228  24.779  0.1473  0.2099 -0.1573
70067W        W12984  14.525   5.381  25.753 -0.3165  0.0010 -0.0999
70068W        W12985  15.662   4.193  25.200 -0.1633  0.1510  0.3542
70069W        W12986  18.410   6.474  28.592 -0.1634  0.1970 -0.1124
70070W        W12987  15.655   6.071  26.012  0.1871 -0.0136  0.0121
70071W        W12988  15.090   2.435  24.765  0.0890  0.1522  0.2296
70072W        W12989  15.853   4.033  26.799  0.2772 -0.1044  0.2421
70073W        W12990  14.596   3.676  26.538 -0.0080  0.3579 -0.1097
70074W        W12991  15.216   3.856  25.786  0.0168 -0.2623  0.2776
70075W        W12992  12.294   4.369  25.363  0.0636 -0.0025  0.1156
70076W        W12993  16.780   3.926  27.026  0.1382  0.2129  0.1539
70077W        W12994  15.225   4.968  29.130  0.0589 -0.3301  0.1658
70078W        W12995  14.783   5.305  26.187  0.1572  0.1525  0.3383
70079W        W12996  16.496   6.451  23.648  0.0049  0.0464 -0.3607
70080W        W12997  15.417   6.487  27.878 -0.0038  0.0092  0.1081
70081W        W12998  15.708   5.606  24.147  0.3903  0.1668 -0.0524
70082W        W12999  18.569   6.612  24.139 -0.0577 -0.3148 -0.0455
70083W        W13000  15.932   4.080  24.759  0.1574 -0.2277 -0.1900
70084W        W13001  17.840   1.648  25.875  0.0748 -0.1724 -0.0141
70085W        W13002  17.483   5.361  21.873 -0.0245 -0.1725 -0.4756
70086W        W13003  16.226   5.304  24.118 -0.1937  0.2687 -0.2385
70087W        W13004  16.965   6.028  28.913 -0.0230  0.2447  0.1764
70088W        W13005  15.180   5.053  25.096 -0.0300 -0.0610 -0.3302
70089W        W13006  16.822   6.439  26.872  0.1924 -0.0520  0.0671
70090W        W13007  16.079   4.197  24.233  0.0554  0.2909 -0.2693
70091W        W13008  18.175   8.026  25.201  0.1598  0.1851  0.1114
70092W        W13009  15.261   5.807  25.884  0.0773  0.0063 -0.0777
70093W        W13010  16.137   5.831  26.752 -0.1106  0.0044  0.0670
70094W        W13011  16.581   6.808  24.064 -0.0084  0.1853  0.0125
70095W        W13012  14.821   4.122  25.734  0.2446  0.0924 -0.0354
70096W        W13013  17.664   2.575  24.014 -0.2806  0.2217 -0.0415
70097W        W13014  16.584   4.704  22.972  0.5002  0.3000 -0.1836
70098W        W13015  14.817   7.290  24.177 -0.1707 -0.0107  0.0973
70099W        W13016  16.879   4.350  24.640 -0.0580 -0.2908 -0.0491
70100W        W13017  15.226   3.681  24.090  0.1980 -0.0718  0.0009
70101W        W13018  17.085   3.375  27.945 -0.2177 -0.4377 -0.1717
70102W        W13019  17.431   7.447  28.628  0.1663 -0.2040  0.1826
70103W        W13020  17.207   6.560  24.948 -0.0802 -0.0947 -0.0461
70104W        W13021  16.733   4.526  26.173 -0.0659 -0.2229 -0.1795
70105W        W13022  14.889   3.622  25.338  0.0672 -0.0212 -0.1802
70106W        W13023  16.566   3.874  26.400  0.2058 -0.0442 -0.1661
70107W        W13024  15.289   3.849  27.089 -0.3322  0.1374 -0.0907
70108W        W13025  13.839   7.989  26.213  0.0751  0.3653  0.1519
70109W        W13026  15.791   6.612  26.779  0.3002  0.3439 -0.2933
70110W        W13027  15.918   4.833  24.531 -0.1476  0.1780  0.2943
70111W        W13028  16.407   4.472  28.516 -0.1641  0.3282  0.1969
70112W        W13029  18.091   4.763  26.279 -0.2152 -0.2475 -0.0149
70113W        W13030  16.227   6.480  22.191  0.0664 -0.0455  0.1994
70114W        W13031  16.708   3.613  23.548  0.0673  0.0680  0.0574
70115W        W13032  16.511   0.968  23.939  0.1666  0.4592  0.0101
70116W        W13033  14.863   5.877  26.164 -0.2785 -0.1531 -0.1021
70117W        W13034  16.323   5.337  22.826  0.0192  0.0396 -0.0213
70118W        W13035  15.622   4.768  26.856 -0.0195 -0.2157 -0.1514
70119W        W13036  16.211   7.156  23.919 -0.3275  0.0555  0.0404
70120W        W13037  17.432   3.047  24.723  0.0844 -0.1967 -0.0290
70121W        W13038  15.360   5.885  25.391  0.1999 -0.0519 -0.2171
70122W        W13039  13.209   4.054  23.801 -0.0839  0.0573  0.1345
70123W        W13040  14.812   4.534  25.433  0.0216 -0.1758  0.0916
70124W        W13041  15.596   4.093  24.247  0.0115 -0.1737 -0.3461
70125W        W13042  18.365   6.614  23.149  0.0425  0.1914 -0.1203
70126W        W13043  17.389   4.427  25.908 -0.2564  0.3341 -0.0956
70127W        W13044  15.156   0.657  24.977 -0.1563 -0.2406 -0.0348
70128W        W13045  14.510   4.641  24.505 -0.0007 -0.1710 -0.0547
70129W        W13046  17.429   5.411  26.308  0.1320  0.0285  0.0509
70130W        W13047  16.441   4.184  22.880  0.0674  0.0153  0.1400
70131W        W13048  17.142   6.916  25.308 -0.2313  0.0325 -0.1958
70132W        W13049  15.095   5.523  27.868  0.1472  0.0652 -0.1311
70133W        W13050  13.371   2.917  25.550 -0.0728  0.3637  0.0958
70134W        W13051  18.897   4.930  28.236  0.1556 -0.1711 -0.0348
70135W        W13052  15.949   2.596  24.768  0.0465  0.1322 -0.0630
70136W        W13053  13.166   6.542  23.147  0.0368 -0.1074  0.0429
70137W        W13054  17.324   5.859  28.065 -0.0150  0.0677 -0.0347
70138W        W13055  15.275   4.227  23.538  0.1423  0.2157  0.2507
70139W        W13056  15.322   3.366  25.606  0.1154 -0.0050  0.3097
70140W        W13057  15.459   2.772  27.657 -0.0174 -0.5604  0.0362
70141W        W13058  16.881   5.845  27.377 -0.3673  0.1049  0.0141
70142W        W13059  16.448   4.827  25.869  0.1653 -0.0072 -0.0680
70143W        W13060  13.696   2.151  24.919  0.0121  0.0277 -0.0994
70144W        W13061  15.060   3.197  24.209 -0.0463  0.2148  0.1438
70145W        W13062  16.212   7.390  27.032 -0.1874  0.3331  0.3513
70146W        W13063  13.883   5.000  26.621  0.0342  0.2384 -0.2445
70147W        W13064  16.275   4.945  27.651  0.1950 -0.0360  0.1599
70148W        W13065  16.341   4.512  24.623 -0.0022  0.2528  0.0982
70149W        W13066  18.254   7.178  23.429 -0.0344 -0.2938  0.0251
70150W        W13067  16.424   5.532  27.711 -0.1910  0.3195  0.0691
70151W        W13068  15.853   6.414  23.626 -0.3726  0.3256 -0.1106
70152W        W13069  14.750   4.984  26.817 -0.1586 -0.2263  0.1103
70153W        W13070  14.439   6.672  24.711 -0.1426 -0.3270 -0.0647
70154W        W13071  16.934   3.338  27.035  0.2313 -0.0423 -0.2715
70155W        W13072  14.833   5.427  25.082  0.1716 -0.0547  0.3599
70156W        W13073  15.490   4.752  26.147  0.2283  0.2533  0.0026
70157W        W13074  13.130   6.225  26.483 -0.0570 -0.2327  0.3018
70158W        W13075  18.445   4.592  25.820 -0.0831 -0.1098  0.2568
70159W        W13076  16.375   4.978  23.376 -0.2857  0.1973  0.2051
70160W        W13077  16.832   4.180  25.700  0.0475 -0.1357 -0.2078
70161W        W13078  17.734   5.357  27.461 -0.0834  0.0283 -0.1068
70162W        W13079  17.518   5.570  24.639  0.0653  0.1366 -0.0297
70163W        W13080  16.856   2.409  27.696 -0.1135  0.3402  0.3756
70164W        W13081  17.407   1.132  25.327 -0.1330  0.1322 -0.2021
70165W        W13082  17.641   6.873  25.238  0.1773 -0.3397 -0.0293
70166W        W13083  13.570   4.619  25.123  0.2911 -0.1760  0.1132
70167W        W13084  17.485   7.535  27.414  0.2841  0.2031  0.3455
70168W        W13085  13.583   4.605  27.916 -0.0559  0.0639 -0.2307
70169W        W13086  17.075   5.619  23.769  0.1410  0.3495 -0.2121
70170W        W13087  13.833   4.085  25.142  0.1200  0.2097  0.0059
70171W        W13088  14.358   6.594  26.616  0.1364 -0.4784  0.0746
70172W        W13089  17.405   5.484  25.715  0.0337  0.1073  0.0504
70173W        W13090  15.826   6.863  25.591 -0.2054 -0.0876  0.1585
70174W        W13091  18.287   3.603  24.194  0.5549  0.3012  0.0116
70175W        W13092  17.051   4.143  26.125 -0.0984 -0.0035 -0.0222
70176W        W13093  17.479   6.339  25.265  0.1788  0.1648  0.0507
70177W        W13094  17.389   5.926  22.837  0.2791  0.0258  0.0808
70178W        W13095  15.803   3.653  24.442 -0.2461 -0.0042 -0.2152
70179W        W13096  17.376   4.225  25.042  0.3632 -0.1967  0.0893
70180W        W13097  16.486   6.947  23.336 -0.1829  0.2843 -0.1065
70181W        W13098  16.253   2.853  24.442 -0.1835 -0.1032 -0.0631
70182W        W13099  15.343   3.443  24.535 -0.0785  0.0738  0.1696
70183W        W13100  15.937   6.254  26.412 -0.0814 -0.1160 -0.2115
70184W        W13101  16.291   5.562  27.212  0.1148  0.0966 -0.1196
70185W        W13102  14.808   5.080  27.376 -0.0497  0.0509 -0.1374
70186W        W13103  17.638   6.314  27.398 -0.2023 -0.3641  0.0610
70187W        W13104  15.867   6.638  22.556  0.4577  0.0525 -0.2113
70188W        W13105  19.449   5.675  25.399 -0.0463 -0.0385 -0.0126
70189W        W13106  17.855   6.445  24.970 -0.1338 -0.2890  0.1844
70190W        W13107  18.096   6.560  24.563 -0.2018  0.2228  0.1573
70191W        W13108  15.904   4.282  25.997 -0.0227  0.0254  0.2426
70192W        W13109  15.579   4.461  28.449 -0.0283 -0.0840 -0.0531
70193W        W13110  17.451   4.598  23.059 -0.3382  0.0490 -0.1913
70194W        W13111  17.339   4.971  25.884  0.1005 -0.3062  0.2740
70195W        W13112  16.191   6.050  25.478  0.3479 -0.1606 -0.2269
70196W        W13113  16.942   6.703  26.253  0.0273  0.0116 -0.0565
70197W        W13114  15.759   2.990  24.546 -0.1511  0.1877 -0.0009
70198W        W13115  15.564   3.050  25.867 -0.1798  0.0044 -0.1193
70199W        W13116  14.719   8.383  25.618  0.0342  0.0325 -0.0879
70200W        W13117  14.360   2.884  24.730 -0.2487 -0.1993  0.2017
70201W        W13118  17.253   5.269  23.508 -0.2147  0.2041  0.3319
70202W        W13119  16.886   5.811  26.542 -0.1016  0.1475 -0.0784
70203W        W13120  17.189   5.527  28.844 -0.3443  0.3319 -0.2729
70204W        W13121  14.784   3.234  24.648  0.0966 -0.0508  0.1183
70205W        W13122  18.228   5.578  29.405 -0.0322 -0.3290 -0.0633
70206W        W13123  15.787   7.803  24.535  0.0306 -0.0259  0.1689
70207W        W13124  16.376   1.059  23.065 -0.2038 -0.3523 -0.1214
70208W        W13125  15.714   6.779  27.251  0.2050 -0.3314 -0.1355
70209W        W13126  14.187   5.151  25.998  0.0125  0.0576 -0.1293
70210W        W13127  15.611   5.872  23.189  0.1062 -0.1086 -0.0902
70211W        W13128  16.176   3.611  26.492  0.0335 -0.0094  0.1566
70212W        W13129  16.504   4.311  27.082  0.0774  0.0150 -0.0729
70213W        W13130  16.447   4.967  26.312 -0.0600 -0.2289 -0.1362
70214W        W13131  16.582   4.553  29.024  0.1124 -0.0820 -0.4917
70215W        W13132  16.732   7.255  25.597 -0.3614  0.2879  0.0391
70216W        W13133  14.438   5.182  24.730  0.4352  0.1028  0.2736
70217W        W13134  16.906   7.546  27.464  0.0160  0.0847 -0.0510
70218W        W13135  17.185   5.504  27.680  0.2205  0.1423  0.3432
70219W        W13136  16.099   5.609  25.872  0.0234  0.1723  0.3802
70220W        W13137  14.506   5.995  28.499 -0.1957 -0.0064 -0.1188
70221W        W13138  16.056   5.203  28.006  0.2664  0.0157 -0.1118
70222W        W13139  15.445   7.150  27.434 -0.2264  0.0179  0.0770
70223W        W13140  16.740   2.333  23.324  0.0103  0.1189  0.1563
70224W        W13141  17.993   4.210  23.734  0.0149 -0.1644 -0.2013
70225W        W13142  13.504   9.004  26.836 -0.0876  0.1672 -0.1637
70226W        W13143  12.346   3.147  25.055  0.2174  0.2028  0.3929
70227W        W13144  15.187   8.814  23.937  0.0853 -0.1300 -0.1744
70228W        W13145  17.474   6.819  23.511 -0.0835  0.1752 -0.0627
70229W        W13146  17.296   7.059  21.809 -0.0348  0.2951  0.3691
70230W        W13147  16.721   5.204  25.121  0.1363  0.2477  0.1233
70231W        W13148  15.611   4.954  22.879  0.0325 -0.1145  0.1934
70232W        W13149  14.643   5.071  24.175 -0.1864 -0.1064 -0.1004
70233W        W13150  14.591   5.505  23.581  0.2859  0.2055 -0.0487
70234W        W13151  17.086   7.097  24.835  0.1381 -0.3794 -0.1735
70235W        W13152  13.959   7.468  26.413 -0.1642  0.2140 -0.0150
70236W        W13153  16.364   7.182  28.429  0.0176  0.0319 -0.0200
70237W        W13154  18.459   3.133  23.545 -0.1593  0.2005  0.1417
70238W        W13155  18.202   5.042  25.694 -0.3054  0.0319  0.2045
70239W        W13156  16.990   4.444  25.161 -0.0599 -0.0966 -0.4501
70240W        W13157  17.846   6.901  27.632 -0.0151 -0.0940  0.0183
70241W        W13158  15.682   4.497  27.276 -0.0138  0.3479  0.1681
70242W        W13159  16.548   3.958  23.952 -0.3548  0.0347  0.1402
70243W        W13160  14.640   5.374  27.781 -0.1085  0.0648  0.2469
70244W        W13161  17.824   4.426  27.102  0.4053 -0.2851  0.4061
70245W        W13162  15.191   8.179  26.110 -0.2265 -0.1229  0.3094
70246W        W13163  17.855   5.259  24.221 -0.2625 -0.0523  0.0661
70247W        W13164  15.151   4.549  24.979 -0.0127 -0.2188  0.2688
70248W        W13165  17.200   3.952  25.452  0.0109 -0.0933  0.1839
70249W        W13166  19.080   5.405  25.175  0.0923 -0.1790 -0.1633
70250W        W13167  16.920   3.965  25.008  0.0191  0.0860  0.0106
70251W        W13168  15.947   4.550  25.032 -0.0733 -0.1878 -0.2394
70252W        W13169  16.738   6.961  22.758 -0.0467  0.2395  0.2233
70253W        W13170  14.293   6.793  28.369  0.1856 -0.0624  0.0576
70254W        W13171  18.009   5.189  27.107 -0.1124 -0.0411 -0.0161
70255W        W13172  13.799   4.169  23.870 -0.0397  0.0412 -0.1592
70256W        W13173  20.234   3.887  22.829  0.0846  0.1122  0.1807
70257W        W13174  16.465   3.799  25.557  0.1956  0.2334 -0.1424
70258W        W13175  17.205   5.129  27.271 -0.3335  0.0782 -0.4175
70259W        W13176  15.427   4.886  24.646  0.4274  0.0238  0.0836
70260W        W13177  16.610   7.762  25.839 -0.0429  0.1448  0.2189
70261W        W13178  17.352   5.352  24.171  0.0394 -0.4699  0.1113
70262W        W13179  14.361   4.898  27.180 -0.1075 -0.1380 -0.0090
70263W        W13180  16.771   5.557  22.849 -0.0246  0.0564 -0.0069
70264W        W13181  16.974   6.816  28.796 -0.0749 -0.4585  0.1858
70265W        W13182  16.314   5.854  22.799 -0.0469  0.0771 -0.2098
70266W        W13183  15.499   7.648  27.593  0.1216 -0.1960 -0.1069
70267W        W13184  15.242   2.906  24.704 -0.1491  0.1271  0.1871
70268W        W13185  16.534   5.937  25.111 -0.0381 -0.0649  0.0881
70269W        W13186  14.969   4.427  26.152  0.0231 -0.1601  0.0930
70270W        W13187  15.291   4.462  26.585  0.2146 -0.0853  0.2298
70271W        W13188  16.235   6.842  27.255  0.0962 -0.2243  0.0710
70272W        W13189  15.468   3.920  24.780  0.0743  0.2216 -0.1639
70273W        W13190  17.659   7.725  25.139  0.1539  0.1157  0.2823
70274W        W13191  17.116   5.261  24.624 -0.0699  0.1079  0.0303
70275W        W13192  15.484   8.536  23.092  0.0773 -0.1779  0.2196
70276W        W13193  17.453   7.672  24.623 -0.3992  0.3639 -0.1880
70277W        W13194  17.082   7.409  25.200  0.3793  0.0235  0.1075
70278W        W13195  15.440   2.560  25.864 -0.1078  0.2894 -0.0883
70279W        W13196  18.262   7.323  26.883  0.1103  0.2541  0.2781
70280W        W13197  16.298   7.938  27.206 -0.0974  0.4230  0.2726
70281W        W13198  16.263   2.362  23.520 -0.0104 -0.0555  0.0346
70282W        W13199  13.793   2.357  25.382 -0.0448 -0.3855  0.1345
70283W        W13200  15.231   7.365  23.486  0.1951 -0.0943  0.1441
70284W        W13201  17.031   4.833  24.373 -0.0919  0.0278  0.0551
70285W        W13202  14.925   5.746  27.013  0.1001 -0.0928 -0.0079
70286W        W13203  17.008   6.787  23.682 -0.4378 -0.0905 -0.1224
70287W        W13204  18.523   3.530  25.507  0.0406  0.4695 -0.2081
70288W        W13205  17.036   7.371  26.600 -0.0831 -0.0613 -0.2773
70289W        W13206  14.230   6.268  26.924 -0.1976 -0.0541 -0.0766
70290W        W13207  15.243   5.507  23.975  0.0500 -0.2291 -0.5495
70291W        W13208  15.616   5.145  26.456  0.1291 -0.2656  0.1733
70292W        W13209  16.592   7.782  24.424  0.0349  0.2983  0.2366
70293W        W13210  15.236   7.386  24.908  0.1318 -0.2024 -0.1087
70294W        W13211  18.893   7.499  25.399 -0.1472  0.4170 -0.2424
70295W        W13212  16.392   4.441  25.524  0.0791 -0.1081 -0.0029
70296W        W13213  18.923   6.552  25.442  0.0873 -0.1080 -0.0605
70297W        W13214  14.774   2.782  25.003  0.0855  0.0109  0.0689
70298W        W13215  18.084   3.482  24.946 -0.4230  0.2484  0.1716
70299W        W13216  17.326   1.582  23.551  0.2659 -0.1802  0.1732
70300W        W13217  16.841   5.795  27.893  0.2850 -0.3618  0.0192
70301W        W13218  15.577   3.433  24.992 -0.0978  0.1950 -0.3051
70302W        W13219  14.611   6.238  24.334  0.3797 -0.1570 -0.3398
70303W        W13220  14.814   3.448  23.848 -0.0232  0.1740 -0.0031
70304W        W13221  18.099   1.178  28.105 -0.0340 -0.2169  0.2242
70305W        W13222  14.516   4.237  26.309  0.2154 -0.1443  0.2049
70306W        W13223  14.748   2.904  26.283 -0.1866  0.0103  0.0730
70307W        W13224  14.807   2.002  24.459  0.2062 -0.0051  0.2347
70308W        W13225  19.682   7.149  23.543  0.3545  0.2291 -0.0268
70309W        W13226  17.039   3.210  26.381  0.1460  0.0161 -0.1874
70310W        W13227  14.386   2.020  24.134 -0.2375 -0.3595 -0.2148
70311W        W13228  15.102   6.885  24.916  0.0588 -0.1986 -0.0220
70312W        W13229  16.536   7.281  24.309 -0.0186 -0.1856 -0.0003
70313W        W13230  14.103   1.473  24.890 -0.0112 -0.4280 -0.3265
70314W        W13231  18.312   7.072  27.879 -0.1623 -0.3832  0.2062
70315W        W13232  14.644   4.144  24.194  0.1947  0.6318 -0.3961
70316W        W13233  14.684   5.797  27.449  0.0865 -0.1174 -0.5660
70317W        W13234  15.145   2.642  25.453 -0.0071 -0.2565 -0.1069
70318W        W13235  14.296   1.589  25.873  0.2444  0.1158  0.0501
70319W        W13236  18.263   4.795  27.266  0.0557 -0.0674  0.2049
70320W        W13237  14.405   7.675  26.719 -0.2106  0.1391  0.0105
70321W        W13238  16.750   8.720  21.891  0.0749  0.2674 -0.3078
70322W        W13239  15.511   5.938  26.583  0.0609 -0.0991  0.1094
70323W        W13240  14.874   6.067  25.220  0.2511  0.3596 -0.0852
70324W        W13241  15.016   3.417  27.448  0.2077 -0.1795  0.2503
70325W        W13242  16.744   4.823  25.421 -0.3561  0.0335  0.3127
70326W        W13243  15.552   5.732  27.693  0.4908  0.1378  0.1132
70327W        W13244  17.025   6.133  25.254  0.0970 -0.2288 -0.3790
70328W        W13245  18.502   4.745  24.770  0.1093 -0.1829 -0.0683
70329W        W13246  17.753   4.187  24.628  0.1326 -0.2704  0.1965
70330W        W13247  14.657   4.024  27.944  0.1141 -0.0008 -0.0950
70331W        W13248  16.562   5.309  25.712 -0.0477  0.2084 -0.0153
70332W        W13249  17.032   6.282  25.963 -0.3941  0.0298 -0.3456
70333W        W13250  16.735   2.752  24.539 -0.2330 -0.0411  0.0157
70334W        W13251  16.908   6.043  23.040  0.0399  0.0775  0.0238
70335W        W13252  17.191   6.449  24.355 -0.1335  0.0446  0.1145
70336W        W13253  15.398   2.207  28.567 -0.0040  0.0588 -0.0406
70337W        W13254  16.502   5.057  24.502 -0.1318 -0.0152  0.1354
70338W        W13255  15.171   6.287  25.666 -0.3792  0.1804 -0.1974
70339W        W13256  16.293   6.097  24.687 -0.0911  0.0475  0.0074
70340W        W13257  15.303   7.579  27.083  0.1619 -0.2387 -0.1237
70341W        W13258  16.613   6.274  25.675  0.0191 -0.1648 -0.3435
70342W        W13259  17.824   6.126  23.000  0.1630 -0.1146 -0.1532
70343W        W13260  16.220   7.095  27.948 -0.0104  0.0759  0.0704
70344W        W13261  17.557   8.789  27.546 -0.3495 -0.0522 -0.0189
70345W        W13262  17.524   7.629  26.795  0.0087 -0.0100 -0.0858
70346W        W13263  16.506   6.152  26.533 -0.0755  0.0273  0.1860
70347W        W13264  15.785   2.820  26.283 -0.1377  0.1212 -0.0644
70348W        W13265  16.076   5.757  23.840  0.0067 -0.1649 -0.0549
70349W        W13266  15.860   6.185  24.083  0.1708  0.2791 -0.1400
70350W        W13267  16.837   5.045  26.049  0.2830  0.1168  0.0759
70351W        W13268  15.645   2.302  24.577  0.0889 -0.0528  0.0275
70352W        W13269  16.155   3.644  23.909 -0.1805  0.3213 -0.0092
70353W        W13270  17.690   4.703  28.041  0.0839 -0.0372 -0.1144
70354W        W13271  15.445   4.211  26.168  0.0614 -0.0268  0.0877
70355W        W13272  15.940   3.661  28.565 -0.2052 -0.0665 -0.1423
70356W        W13273  16.839   2.507  28.374  0.1266 -0.4812 -0.3386
70357W        W13274  16.817   5.207  27.881  0.0796 -0.0974 -0.0574
70358W        W13275  17.998   4.042  29.758 -0.1506  0.0867  0.3624
70359W        W13276  15.410   3.977  28.255 -0.3124  0.0773  0.3081
70360W        W13277  16.058   8.187  28.361  0.0433  0.0230  0.4237
70361W        W13278  14.518   2.874  30.276 -0.0214 -0.0196  0.1555
70362W        W13279  15.558   8.526  31.047 -0.1448  0.2135 -0.2300
70363W        W13280  18.589   6.796  28.263  0.0346  0.2835 -0.1486
70364W        W13281  16.715   6.883  27.655  0.0307  0.4482 -0.1216
70365W        W13282  17.333   3.876  28.347  0.0216  0.1057  0.0945
70366W        W13283  16.978   6.298  29.956 -0.1452 -0.4269 -0.0326
70367W        W13284  16.839   4.786  27.621  0.0328  0.1260  0.0675
70368W        W13285  13.799   1.446  30.517  0.2847 -0.2819  0.1482
70369W        W13286  17.604   4.152  27.952 -0.2955  0.1396  0.1781
70370W        W13287  15.630   5.712  27.154  0.2110 -0.0891 -0.1980
70371W        W13288  16.991   5.053  28.903  0.1237 -0.2478  0.0871
70372W        W13289  16.066   4.915  28.503 -0.3275 -0.1423  0.2499
70373W        W13290  15.065   6.997  27.773  0.3742  0.0886  0.0606
70374W        W13291  17.894   4.320  29.342  0.0396 -0.4159 -0.0171
70375W        W13292  15.982   3.492  29.796  0.2927  0.0298  0.2560
70376W        W13293  15.688   4.835  28.162  0.1405 -0.2161  0.2671
70377W        W13294  13.667   5.715  29.124 -0.0598  0.1438  0.2601
70378W        W13295  15.576   3.311  27.726  0.0801 -0.3184  0.1377
70379W        W13296  14.775   5.356   0.957 -0.0698  0.1925  0.0652
70380W        W13297  17.553   4.733  30.334 -0.0846 -0.0241 -0.0724
70381W        W13298  19.674   4.432  29.887  0.2619  0.1241 -0.0106
70382W        W13299  15.828   6.574  31.519 -0.2240  0.2253  0.0791
70383W        W13300  17.412   8.066  30.057  0.1215 -0.1915  0.5456
70384W        W13301  16.886   3.511   0.463 -0.0474 -0.2566  0.6553
70385W        W13302  15.291   5.067  28.382  0.1078 -0.0977  0.0163
70386W        W13303  13.721   7.232  30.682 -0.2531 -0.0065 -0.3009
70387W        W13304  15.594   5.924  28.923  0.0445  0.0878 -0.1061
70388W        W13305  19.150   5.372  28.342 -0.1814  0.1081 -0.1734
70389W        W13306  17.205   6.775  30.766 -0.1147  0.1580 -0.3412
70390W        W13307  15.132   8.177   0.818  0.1288 -0.2144 -0.2496
70391W        W13308  13.477   7.618  28.528  0.0558 -0.0440  0.0406
70392W        W13309  17.467   7.433  31.482  0.1138  0.0926 -0.2107
70393W        W13310  15.672   6.688  31.955  0.0522 -0.2367  0.1721
70394W        W13311  17.872   5.105  29.981 -0.1246  0.1973  0.1394
70395W        W13312  15.283   4.777  27.513 -0.2680  0.0360  0.1103
70396W        W13313  15.583   7.545  28.934 -0.1076  0.0875  0.1849
70397W        W13314  16.713   5.493  28.861  0.0775  0.1324 -0.0610
70398W        W13315  16.020   6.935  30.211 -0.0015  0.1033 -0.1097
70399W        W13316  15.648   6.030  28.127 -0.1846 -0.1155 -0.0254
70400W        W13317  19.226   4.584  30.122 -0.2441 -0.5095  0.1932
70401W        W13318  13.258   6.462  27.034 -0.1421 -0.1119 -0.0103
70402W        W13319  18.170   6.564  28.066  0.0093  0.0484  0.0720
70403W        W13320  18.215   4.655  27.944  0.0053 -0.0937  0.1948
70404W        W13321  17.979   4.693  26.748  0.0953 -0.3080  0.0379
70405W        W13322  15.337   1.803   0.108  0.1030 -0.1164 -0.1201
70406W        W13323  15.159   6.733  28.299 -0.0951  0.1726 -0.3922
70407W        W13324  17.558   4.281  29.717  0.1891  0.0685  0.0834
70408W        W13325  17.347   5.090  30.135 -0.2168 -0.0508 -0.2189
70409W        W13326  16.934   5.760  28.365 -0.0864 -0.0478 -0.0844
70410W        W13327  17.542   5.247  28.760  0.0031  0.0635 -0.4426
70411W        W13328  16.898   7.233  28.458 -0.1075  0.2150 -0.0554
70412W        W13329  13.505   2.759  28.543  0.1895 -0.0343  0.0161
70413W        W13330  16.648   6.886  28.179 -0.2338 -0.3572 -0.3012
70414W        W13331  15.748   6.223  29.588  0.1389 -0.2521  0.1963
70415W        W13332  16.624   7.967  29.532  0.0663  0.2481 -0.0754
70416W        W13333  15.792   4.924  29.981 -0.3243  0.0310 -0.1951
70417W        W13334  14.284   5.992  31.873 -0.1027  0.1150 -0.0742
70418W        W13335  16.460   6.535   0.660 -0.1178  0.0314  0.2550
70419W        W13336  14.118   3.418  26.834  0.3429  0.2197  0.0814
70420W        W13337  17.881   6.450  30.272 -0.0979 -0.2106  0.0264
70421W        W13338  14.851   7.123  31.228 -0.1642  0.2481 -0.2119
70422W        W13339  17.426   4.350  28.428  0.2085 -0.1127 -0.2812
70423W        W13340  15.264   3.982  31.543  0.1855  0.1145  0.0823
70424W        W13341  20.053   6.424  28.271 -0.1754 -0.1062  0.1748
70425W        W13342  17.626   5.381  26.826  0.2684  0.0285 -0.1753
70426W        W13343  16.907   4.743  28.320  0.2233 -0.1451 -0.0494
70427W        W13344  15.009   4.302  30.807 -0.1607 -0.1081  0.0520
70428W        W13345  15.523   5.542  28.161  0.0901  0.2181 -0.1474
70429W        W13346  15.933   3.961  29.710 -0.1977  0.0642 -0.0066
70430W        W13347  20.171   5.663  30.114  0.0131  0.3050  0.0212
70431W        W13348  15.759   4.471  26.471  0.1323 -0.3015 -0.1775
70432W        W13349  16.111   7.783  31.271  0.1291  0.3515  0.2227
70433W        W13350  14.712   3.352   0.465 -0.1670 -0.2148  0.0805
70434W        W13351  16.513   5.697  31.586 -0.1698  0.0053  0.1457
70435W        W13352  14.352   7.669  27.946 -0.1623 -0.2414  0.0415
70436W        W13353  14.610   5.765  29.138  0.0402  0.0297 -0.2349
70437W        W13354  15.165   4.671  28.758 -0.0319 -0.1110 -0.1456
70438W        W13355  14.152   3.933  27.492 -0.0047  0.0088  0.2062
70439W        W13356  16.881   6.909  30.390 -0.0428  0.1566  0.1808
70440W        W13357  17.579   5.402  27.964  0.2121 -0.2760  0.1792
70441W        W13358  14.729   3.150  29.851  0.0164  0.0280 -0.2284
70442W        W13359  18.906   4.481  28.455  0.0609 -0.0478  0.0577
70443W        W13360  15.717   5.740  29.430  0.0570 -0.2364  0.0075
70444W        W13361  17.526   6.960  28.668  0.1062  0.0881 -0.3541
70445W        W13362  17.806   5.318  29.544  0.0069 -0.0011 -0.1965
70446W        W13363  17.119   5.972  26.912 -0.0091 -0.0827  0.0002
70447W        W13364  13.298   7.394  31.459 -0.1692 -0.0707  0.1755
70448W        W13365  15.660   3.741  30.106 -0.0203 -0.0865  0.1783
70449W        W13366  16.860   5.005   0.055  0.2038  0.0068 -0.1946
70450W        W13367  15.433   2.395  29.121 -0.1287 -0.0759 -0.0710
70451W        W13368  19.027   5.501   0.562 -0.1525 -0.1666 -0.0718
70452W        W13369  15.298   2.332  27.942 -0.0204  0.0921  0.0454
70453W        W13370  16.819   5.238  28.428 -0.0425 -0.0331  0.0267
70454W        W13371  15.693   3.766  27.924 -0.1143 -0.3954 -0.0270
70455W        W13372  15.749   4.110  28.706  0.3625  0.1260 -0.1713
70456W        W13373  17.643   3.563   0.038 -0.1757  0.0565 -0.0063
70457W        W13374  15.795   7.426  27.954 -0.1972  0.1637  0.0220
70458W        W13375  18.102   3.232  30.468 -0.2383 -0.1286  0.0054
70459W        W13376  17.178   7.541  30.075  0.0747 -0.1791  0.1087
70460W        W13377  16.404   3.727  29.555  0.1911  0.2894  0.1858
70461W        W13378  14.914   1.709  29.063 -0.0579  0.1105 -0.0979
70462W        W13379  15.555   6.706  29.499 -0.1860 -0.4043 -0.0353
70463W        W13380  15.848   7.896  29.172  0.2244 -0.0587  0.2116
70464W        W13381  15.891   3.270  28.872  0.0111  0.1727  0.1423
70465W        W13382  16.634   5.741  30.168 -0.1201 -0.0973  0.3040
70466W        W13383  16.875   5.346  30.772 -0.0229 -0.0712 -0.2522
70467W        W13384  13.572   7.088  31.185  0.1123  0.2308  0.2071
70468W        W13385  15.416   4.498  31.840 -0.2933  0.0617  0.1045
70469W        W13386  16.546   5.127  29.306  0.0819  0.2528  0.0326
70470W        W13387  16.961   5.845  29.777 -0.2615  0.0581  0.1395
70471W        W13388  16.097   5.099  27.218 -0.2516 -0.0828  0.0295
70472W        W13389  15.518   6.984  27.968 -0.0470  0.1132 -0.1256
70473W        W13390  14.603   8.058  28.149 -0.1524 -0.0394 -0.0577
70474W        W13391  15.234   4.581  27.957  0.0901 -0.1697  0.1461
70475W        W13392  16.621   6.323  29.046 -0.2022  0.1144  0.0005
70476W        W13393  17.973   5.950  30.478  0.0499 -0.0598 -0.2504
70477W        W13394  15.295   5.911  30.901  0.0461  0.0346  0.0318
70478W        W13395  17.380   4.952  28.317 -0.0153 -0.1029 -0.2282
70479W        W13396  15.132   6.087  27.623 -0.1856 -0.2157  0.1290
70480W        W13397  15.822   7.142  30.751 -0.0150  0.0267 -0.3557
70481W        W13398  16.500   2.224  28.069  0.0841  0.1424  0.0010
70482W        W13399  18.993   5.000  27.331  0.1510  0.0988 -0.1335
70483W        W13400  18.064   4.275  31.558  0.2880  0.0857  0.1096
70484W        W13401  18.804   3.990  27.785 -0.0269 -0.1159 -0.0355
70485W        W13402  17.644   1.781  27.143 -0.1389 -0.1549  0.0399
70486W        W13403  17.571   3.999  27.436 -0.0055 -0.1493  0.1842
70487W        W13404  15.800   6.683  31.036  0.0490 -0.1493 -0.0191
70488W        W13405  17.507   6.045  29.024  0.1345  0.3844 -0.2634
70489W        W13406  15.320   7.493  28.019  0.0468 -0.3974 -0.2179
70490W        W13407  18.341   4.107  29.275 -0.1248 -0.2585 -0.3724
70491W        W13408  16.539   7.879  27.720 -0.0274  0.0714  0.2541
70492W        W13409  14.921   6.004  28.789 -0.1804 -0.3158  0.0324
70493W        W13410  16.329   6.640  31.672 -0.1497 -0.2816  0.2155
70494W        W13411  16.725   7.036  31.347  0.2970  0.3689  0.1768
70495W        W13412  15.114   4.011  29.515 -0.3424 -0.0450  0.0497
70496W        W13413  14.778   4.533  27.756  0.3061  0.0316  0.3020
70497W        W13414  17.331   3.146  29.236  0.1396 -0.1465  0.1654
70498W        W13415  12.094   6.919  27.124 -0.1335  0.1253  0.1201
70499W        W13416  17.767   3.381  28.629 -0.1019 -0.0264  0.2102
70500W        W13417  17.924   4.747  28.558  0.1919 -0.0743  0.0189
70501W        W13418  13.984   3.632  29.259 -0.0204 -0.2881  0.2238
70502W        W13419  18.896   3.713  30.090 -0.3843 -0.1276 -0.2833
70503W        W13420  15.923   5.407  27.585 -0.0651 -0.0650  0.3633
70504W        W13421  15.216   6.389  28.687 -0.2229 -0.0109  0.1801
70505W        W13422  16.114   4.564  26.957  0.0136 -0.0415 -0.0033
70506W        W13423  17.723   4.749  29.552  0.1792  0.0373 -0.0388
70507W        W13424  15.581   4.933  30.456  0.1710 -0.0084  0.4420
70508W        W13425  16.293   7.370  30.444  0.2526 -0.2786 -0.0194
70509W        W13426  18.489   5.129  30.546 -0.1711 -0.0826 -0.1719
70510W        W13427  17.949   6.442  30.767  0.3638  0.0882  0.1360
70511W        W13428  17.248   4.455  29.258 -0.1314 -0.1466 -0.2735
70512W        W13429  17.059   2.848  27.722  0.2544  0.1288 -0.1884
70513W        W13430  16.432   6.032  28.204 -0.1321 -0.0103  0.0884
70514W        W13431  15.602   5.116  27.218 -0.1330 -0.1487  0.0135
70515W        W13432  16.428   3.483  28.560 -0.2124  0.0424 -0.2359
70516W        W13433  17.580   5.978  30.016  0.3405 -0.0383  0.0700
70517W        W13434  17.798   4.825  27.506  0.1430 -0.1570  0.0108
70518W        W13435  16.629   5.172  30.116 -0.2580  0.0841  0.0919
70519W        W13436  14.346   6.725  27.153 -0.1552  0.1224  0.1223
70520W        W13437  16.013   2.762  28.058  0.0796 -0.2852 -0.2327
70521W        W13438  14.936   6.410  31.325 -0.0023  0.0904 -0.1379
70522W        W13439  14.894   4.020  26.770  0.1920 -0.1611  0.0727
70523W        W13440  14.760   4.512  26.690 -0.0218  0.1395  0.2691
70524W        W13441  19.407   4.810  29.664 -0.1275  0.0456  0.0347
70525W        W13442  16.309   6.197  29.467 -0.4287  0.2791  0.0528
70526W        W13443  14.247   3.790  28.023  0.0312 -0.2748  0.1769
70527W        W13444  15.505   2.825  30.498 -0.2126  0.3803  0.2546
70528W        W13445  15.631   5.982  31.293  0.2108 -0.2468 -0.1709
70529W        W13446  18.340   5.612   0.139 -0.0994  0.0664  0.0369
70530W        W13447  17.136   3.384  28.825 -0.0717 -0.2897 -0.0440
70531W        W13448  15.310   5.672  30.400  0.1635 -0.3178  0.1440
70532W        W13449  15.793   5.175  31.354  0.0005 -0.1886 -0.1894
70533W        W13450  16.126   3.633  27.522  0.2833  0.1250  0.1016
70534W        W13451  18.804   5.454  31.365  0.0595 -0.1526 -0.0286
70535W        W13452  16.230   2.790  28.949  0.2535  0.0862 -0.2209
70536W        W13453  14.264   6.382  28.675  0.0261  0.0415 -0.1112
70537W        W13454  16.503   6.636  30.068  0.2310  0.3019 -0.0005
70538W        W13455  16.014   4.107  27.267  0.0118 -0.1699  0.1609
70539W        W13456  15.855   7.085  28.321  0.5652  0.0370  0.0868
70540W        W13457  13.088   3.931  30.923 -0.1256  0.0225  0.0110
70541W        W13458  18.881   7.150  29.566  0.3080  0.0954  0.1941
70542W        W13459  16.631   4.270  27.871 -0.2095 -0.0360  0.1379
70543W        W13460  14.184   1.462  29.435 -0.2477  0.3124  0.4742
70544W        W13461  15.330   5.768  28.518  0.1479  0.0217 -0.0001
70545W        W13462  17.534   6.124  30.539 -0.1432 -0.1814 -0.0059
70546W        W13463  17.387   3.787  29.917 -0.0198  0.0660 -0.2145
70547W        W13464  14.945   6.020  29.536  0.1627  0.0402  0.2319
70548W        W13465  16.085   2.547  29.750 -0.3426 -0.2537  0.1323
70549W        W13466  15.481   8.470  28.357  0.1542  0.1840 -0.0985
70550W        W13467  17.686   6.472   0.024  0.1536 -0.0610  0.0188
70551W        W13468  16.722   3.169  27.633  0.0667  0.2475 -0.2434
70552W        W13469  13.731   5.961  31.024  0.0023 -0.0317  0.0411
70553W        W13470  14.374   6.322  28.113 -0.1693 -0.0932  0.3906
70554W        W13471  15.818   5.484  30.375  0.0344  0.3123 -0.2029
70555W        W13472  15.066   5.248  31.533 -0.2591  0.2376 -0.1938
70556W        W13473  16.740   5.323  27.349 -0.0426  0.0416  0.2455
70557W        W13474  14.668   6.388  30.383 -0.5638  0.0324 -0.0055
70558W        W13475  19.141   4.146  28.115  0.1029  0.1819  0.0618
70559W        W13476  15.641   4.878  28.816  0.2121  0.2067 -0.0415
70560W        W13477  16.054   4.541  28.943 -0.2800  0.0901 -0.0564
70561W        W13478  17.694   6.317  31.495  0.1355  0.3284 -0.1947
70562W        W13479  18.066   7.367  28.569  0.2298  0.2664  0.1468
70563W        W13480  16.053   3.337  31.327  0.0121  0.1658  0.1549
70564W        W13481  15.061   2.600  28.280 -0.3247  0.2481  0.2338
70565W        W13482  18.143   6.058  30.026  0.1714 -0.0384 -0.4154
70566W        W13483  16.043   6.036  29.128 -0.0899  0.4962 -0.1077
70567W        W13484  17.445   6.670   1.342  0.3042  0.1056  0.0512
70568W        W13485  13.597   3.823  29.578 -0.2566 -0.0405  0.2802
70569W        W13486  15.875   3.143  27.385 -0.1025 -0.1115 -0.1725
70570W        W13487  15.079   3.465  26.760 -0.0640 -0.1108  0.1901
70571W        W13488  15.459   5.961   0.355  0.4178 -0.0892 -0.1064
70572W        W13489  19.320   5.847  29.608  0.1089 -0.1731 -0.3755
70573W        W13490  16.067   5.026  28.997 -0.1627  0.0182  0.0044
70574W        W13491  16.260   5.382  28.629 -0.0238  0.1604 -0.0052
70575W        W13492  14.568   5.771   0.527  0.0830 -0.0604 -0.0387
70576W        W13493  17.865   5.347  28.392  0.1746  0.0368  0.1648
70577W        W13494  17.385   5.170  29.313  0.0478  0.0510 -0.0598
70578W        W13495  16.294   5.439  30.525  0.4326 -0.1382 -0.1233
70579W        W13496  16.229   3.812  31.600  0.1979  0.2146 -0.0454
70580W        W13497  18.578   5.285  29.587  0.0947 -0.2720 -0.0640
70581W        W13498  16.929   2.870  27.202  0.0538 -0.1414  0.1023
70582W        W13499  16.689   4.504  29.595  0.3249  0.0002 -0.0193
70583W        W13500  17.611   3.404  30.591 -0.0005  0.1753 -0.1432
70584W        W13501  18.330   4.259  30.163  0.0771 -0.0874 -0.0578
70585W        W13502  16.226   5.720  29.581 -0.1951 -0.0010  0.1424
70586W        W13503  18.059   7.234  29.139 -0.2959  0.0172 -0.0127
70587W        W13504  18.129   3.493  29.703 -0.1058 -0.1584 -0.0434
70588W        W13505  17.914   4.372  30.519 -0.5547 -0.0868  0.2491
70589W        W13506  17.970   3.797  29.296  0.1848 -0.1036 -0.1812
70590W        W13507  18.153   6.758  28.993  0.0234 -0.2944 -0.1780
70591W        W13508  14.623   3.588  31.103 -0.1716  0.3447  0.0212
70592W        W13509  16.512   5.126   0.425 -0.1026 -0.2061 -0.1380
70593W        W13510  16.437   3.206  28.200 -0.1301  0.2612 -0.2956
70594W        W13511  16.260   3.913  31.090 -0.2221  0.0904  0.1986
70595W        W13512  16.537   7.571  28.605 -0.1236 -0.0272 -0.2600
70596W        W13513  16.997   7.622  31.325  0.1848  0.2725 -0.2239
70597W        W13514  17.346   4.640  27.370 -0.0282  0.1555 -0.2124
70598W        W13515  13.070   3.699  27.242  0.0207 -0.1716 -0.1284
70599W        W13516  15.110   5.425  29.608  0.0309  0.1161 -0.0772
70600W        W13517  14.908   3.864  28.492 -0.2004 -0.2207 -0.1227
70601W        W13518  18.843   5.760  28.332  0.1086 -0.0109  0.1383
70602W        W13519  16.899   6.446  30.450  0.3708  0.3838 -0.0074
70603W        W13520  17.734   5.860   0.687 -0.0136 -0.1923 -0.0482
70604W        W13521  18.796   3.082  27.305  0.2307 -0.1858  0.0226
70605W        W13522  16.889   3.443  30.496  0.2790 -0.1644  0.1132
70606W        W13523  15.861   4.250  29.308 -0.0158  0.1433 -0.0738
70607W        W13524  14.977   4.566  31.514  0.0153  0.1038  0.1269
70608W        W13525  16.185   5.866  30.339  0.2473  0.0530  0.0494
70609W        W13526  15.726   5.709  30.845 -0.0229  0.1690  0.1513
70610W        W13527  15.648   6.294  27.429  0.0369 -0.0257  0.5183
70611W        W13528  17.575   1.936  28.733  0.1238  0.1665 -0.1012
70612W        W13529  18.323   5.644  28.266  0.0977  0.2748 -0.0223
70613W        W13530  17.205   6.050  30.889 -0.1632 -0.3853 -0.0793
70614W        W13531  17.597   4.711   0.375  0.2467 -0.1230 -0.0808
70615W        W13532  17.045   5.473  30.214 -0.1144  0.1259 -0.1474
70616W        W13533  15.347   6.845  30.845 -0.0903 -0.1072 -0.0040
70617W        W13534  16.593   7.137  30.815  0.1338  0.0599  0.1956
70618W        W13535  17.734   6.550  29.240  0.0704 -0.0627  0.2768
70619W        W13536  16.626   5.504  29.743 -0.0726 -0.1003 -0.1272
70620W        W13537  14.775   2.573  31.086 -0.1073 -0.0057  0.2016
70621W        W13538  17.074   4.179  29.674  0.0278 -0.2735  0.1953
70622W        W13539  15.509   5.320  29.321 -0.3186  0.1137 -0.1210
70623W        W13540  15.355   3.025  28.128  0.0258  0.1653  0.1221
70624W        W13541  15.703   7.859  28.222  0.0143 -0.0552 -0.4866
70625W        W13542  15.384   7.663  30.371  0.0803  0.1920 -0.0306
70626W        W13543  15.772   7.065  29.756  0.2550  0.0999 -0.0037
70627W        W13544  15.760   6.208  28.582  0.0777 -0.2339  0.2826
70628W        W13545  17.877   4.612  30.021 -0.0761  0.0018  0.2359
70629W        W13546  17.122   5.943  30.267  0.0793 -0.1071 -0.2830
70630W        W13547  17.545   8.205  29.520  0.2658  0.0867  0.0765
70631W        W13548  16.726   3.677  28.933 -0.2986 -0.1183  0.2664
70632W        W13549  13.229   5.290  29.741  0.1170 -0.0194  0.0350
70633W        W13550  14.688   8.651  27.790 -0.0915  0.1135  0.0002
70634W        W13551  17.022   8.250  28.208  0.0599 -0.1645 -0.4279
70635W        W13552  16.017   7.272  28.855 -0.1922 -0.1345 -0.5972
70636W        W13553  17.183   6.483  29.145  0.1632 -0.2575 -0.0415
70637W        W13554  18.221   3.202  28.156  0.3156 -0.0612 -0.2733
70638W        W13555  15.379   6.949  28.643  0.2755 -0.1695 -0.1612
70639W        W13556  17.625   5.521  30.234 -0.0022  0.0797 -0.3103
70640W        W13557  18.091   4.015   1.468 -0.1771  0.0158  0.0647
70641W        W13558  18.397   4.613  28.393 -0.1796  0.0898 -0.1242
70642W        W13559  16.575   3.618  27.853 -0.0569  0.0792 -0.0484
70643W        W13560  16.169   5.419  29.991 -0.0364  0.3279  0.2129
70644W        W13561  15.195   4.569  30.279 -0.2265  0.0098 -0.1388
70645W        W13562  14.612   7.477  29.213 -0.1503 -0.3770  0.0220
70646W        W13563  15.727   7.963  26.595  0.1444 -0.3499 -0.0301
70647W        W13564  16.078   4.571  27.909 -0.4710 -0.1356  0.0566
70648W        W13565  14.655   4.814  31.218 -0.2119 -0.1832  0.1953
70649W        W13566  19.722   4.479  29.404  0.0379  0.0656  0.0609
70650W        W13567  16.932   8.038  29.942  0.3783 -0.3088  0.0406
70651W        W13568  15.405   3.599  29.682 -0.0654  0.1989  0.1858
70652W        W13569  15.981   8.576  27.641 -0.0583 -0.2033  0.0527
70653W        W13570  16.206   6.117  31.491 -0.1502  0.1792  0.2399
70654W        W13571  15.781   7.368  30.234  0.0918  0.1426 -0.0819
70655W        W13572  16.390   4.133  25.994 -0.0491 -0.0897  0.0180
70656W        W13573  20.668   5.506  29.286 -0.0990  0.0870  0.1627
70657W        W13574  16.324   4.863  29.901  0.0841 -0.1569  0.0277
70658W        W13575  20.821   4.886  30.298  0.1057 -0.0730  0.2684
70659W        W13576  14.594   4.198  29.820  0.0262  0.2668  0.3629
70660W        W13577  19.225   4.598  26.939 -0.1256  0.1598  0.1639
70661W        W13578  18.283   6.748  30.944  0.0478  0.0786  0.2929
70662W        W13579  15.111   4.951  31.052 -0.0691 -0.2618 -0.1368
70663W        W13580  15.705   7.264  27.041 -0.3914  0.1981 -0.1535
70664W        W13581  18.766   4.825  29.853  0.2149 -0.1929  0.1545
70665W        W13582  15.919   5.684  26.357 -0.0166  0.0484  0.3435
70666W        W13583  17.876   6.740   1.005  0.2194 -0.0565  0.0954
70667W        W13584  15.055   2.621  30.612  0.1405  0.1747  0.0938
70668W        W13585  16.475   4.991  28.779 -0.2083 -0.3505 -0.2418
70669W        W13586  14.764   5.150  29.989  0.0203 -0.1434 -0.0679
70670W        W13587  16.205   6.804  30.711 -0.2428  0.1326 -0.1013
70671W        W13588  18.314   6.067  30.828  0.0464  0.1911 -0.1612
70672W        W13589  15.963   4.124  28.274  0.2248  0.3142 -0.3570
70673W        W13590  17.961   6.199  28.440 -0.0187 -0.1015  0.0042
70674W        W13591  16.700   2.998  28.582  0.1752  0.0514 -0.1360
70675W        W13592  17.050   7.914  26.501 -0.1081  0.2057  0.0456
70676W        W13593  16.217   6.363  28.676 -0.3129 -0.0244  0.0719
70677W        W13594  17.715   7.285  29.660  0.3946 -0.1215  0.0087
70678W        W13595  14.401   3.868  30.741  0.1033 -0.1526  0.2806
70679W        W13596  17.880   7.336  30.627 -0.2075  0.1108  0.0718
70680W        W13597  19.188   6.748  31.111 -0.0207  0.0082 -0.0844
70681W        W13598  17.922   4.351  27.643  0.1181 -0.1380  0.0944
70682W        W13599  15.365   4.986  29.698 -0.0903  0.2727 -0.3674
70683W        W13600  13.123   7.141  25.342 -0.1306  0.0802  0.2200
70684W        W13601  18.993   3.963  26.841  0.0380  0.0700 -0.2343
70685W        W13602  15.678   2.349   0.461 -0.0812 -0.3202  0.0915
70686W        W13603  17.805   6.648  26.646 -0.0098  0.0172 -0.0817
70687W        W13604  17.547   3.518  29.493 -0.0668  0.1050 -0.0635
70688W        W13605  16.583   7.098  31.940  0.0602  0.3343  0.1165
70689W        W13606  17.362   6.457  30.234 -0.0725 -0.0197  0.0732
70690W        W13607  15.816   7.462  29.411  0.0065  0.3805 -0.2996
70691W        W13608  17.207   6.945  31.259 -0.2478 -0.0130 -0.0980
70692W        W13609  14.747   6.439  28.947 -0.6265  0.0429 -0.0927
70693W        W13610  16.271   8.706  27.239 -0.0056 -0.0414 -0.1631
70694W        W13611  16.171   7.773  30.191  0.3573  0.1575 -0.0818
70695W        W13612  16.256   5.506  29.106 -0.0618  0.2813  0.0014
70696W        W13613  16.810   8.685  28.840  0.0525 -0.0353  0.0031
70697W        W13614  13.975   4.533  29.581 -0.0645 -0.0800 -0.4735
70698W        W13615  18.841   4.245  29.999  0.2135  0.1889  0.1635
70699W        W13616  18.440   5.709  27.317  0.0259  0.1524  0.0145
70700W        W13617  14.516   6.614   0.049 -0.2794  0.0864 -0.1754
70701W        W13618  14.481   5.970  25.777 -0.0640  0.0826  0.1983
70702W        W13619  15.241   6.626  27.444 -0.5175 -0.1254  0.3839
70703W        W13620  13.474   4.377  30.065  0.2438  0.0286 -0.0975
70704W        W13621  16.551   3.321  31.192 -0.1029  0.0346  0.2216
70705W        W13622  15.632   5.627   0.698  0.0023 -0.2860 -0.0057
70706W        W13623  15.513   2.882  29.258 -0.2782  0.1617 -0.2912
70707W        W13624  14.946   2.784  27.846  0.3861  0.0306  0.1651
70708W        W13625  16.811   7.479  30.506 -0.0825 -0.1703  0.2087
70709W        W13626  15.078   3.759  29.040 -0.0261  0.1051 -0.0165
70710W        W13627  16.159   3.654  28.108  0.0184 -0.3301 -0.2402
70711W        W13628  18.092   6.858  28.465 -0.0055 -0.2667  0.1514
70712W        W13629  17.034   5.195  29.747  0.2528  0.1771 -0.1989
70713W        W13630  14.240   2.879  29.885  0.1655 -0.2345  0.1553
70714W        W13631  16.553   7.597   0.195 -0.2269 -0.2689 -0.0266
70715W        W13632  13.790   6.035  27.012  0.2197 -0.0258 -0.2840
70716W        W13633  17.118   5.661  31.148 -0.2258  0.0606 -0.0926
70717W        W13634  14.179   4.725  31.065 -0.0494 -0.3299  0.0175
70718W        W13635  14.341   3.223  26.282  0.0664 -0.1924  0.2502
70719W        W13636  16.409   6.740  28.836  0.1298  0.0720 -0.0451
70720W        W13637  17.275   7.254  30.500  0.1614  0.0298  0.0760
70721W        W13638  16.364   8.299  27.489 -0.2349 -0.0786 -0.0872
70722W        W13639  16.395   5.085  30.835  0.0125 -0.0196 -0.1782
70723W        W13640  15.677   6.827   0.867  0.5828  0.0499  0.1678
70724W        W13641  13.986   6.470  31.047  0.0625 -0.0618 -0.2609
70725W        W13642  17.598   4.956  27.059  0.4660 -0.0506 -0.1062
70726W        W13643  16.494   6.140  29.902  0.0220 -0.4236  0.0790
70727W        W13644  18.962   5.646  29.364  0.1294  0.1139 -0.1533
70728W        W13645  17.611   5.551  29.180 -0.0468  0.1961  0.0717
70729W        W13646  15.693   5.437  29.921  0.0237  0.0565 -0.0872
70730W        W13647  16.835   6.290  29.513 -0.1858  0.1466  0.0361
70731W        W13648  15.266   4.154  28.730  0.0616 -0.2054  0.3719
70732W        W13649  18.395   5.647  30.216  0.0817 -0.0624  0.1728
70733W        W13650  16.356   1.763  28.234 -0.0297  0.1027 -0.2145
70734W        W13651  17.314   5.436  28.377  0.1670  0.1174  0.0002
70735W        W13652  17.270   6.940  30.119  0.0142 -0.3215  0.1731
70736W        W13653  15.013   4.914  30.569  0.0265  0.1451 -0.0444
70737W        W13654  16.986   4.660  25.801 -0.2537 -0.0768 -0.2306
70738W        W13655  17.401   4.668  30.887 -0.0985  0.2979  0.0390
70739W        W13656  18.047   6.895  29.596 -0.1219  0.0920 -0.0614
70740W        W13657  18.128   5.141  30.940  0.1108  0.1684 -0.0781
70741W        W13658  16.290   3.857  26.905  0.0363  0.3232  0.2777
70742W        W13659  19.332   5.555  27.916 -0.0296 -0.0157 -0.2118
70743W        W13660  16.110   8.317  31.683  0.1137 -0.0400  0.4350
70744W        W13661  17.038   7.910  31.940 -0.2829  0.1948  0.0636
70745W        W13662  15.802   6.892   1.387 -0.0780  0.2928 -0.2523
70746W        W13663  16.706   5.864  29.345 -0.3078 -0.0374 -0.1145
70747W        W13664  14.381   1.788  29.795  0.2194  0.0094  0.1795
70748W        W13665  15.964   4.835  26.087 -0.4150 -0.0874 -0.1147
70749W        W13666  16.668   7.172  29.911  0.2971  0.4680 -0.0824
70750W        W13667  16.922   5.430  29.325  0.0395  0.1772 -0.2812
70751W        W13668  14.514   3.796  29.328 -0.0308 -0.0201 -0.0108
70752W        W13669  16.930   4.252  27.389 -0.0728 -0.1428  0.2896
70753W        W13670  15.583   7.706  31.042  0.4386  0.1796  0.2828
70754W        W13671  19.807   5.928  29.547  0.0102  0.0154 -0.0470
70755W        W13672  17.238   3.623  30.767 -0.1833 -0.3434 -0.1481
70756W        W13673  15.411   5.082   0.897 -0.0684  0.0935 -0.0946
70757W        W13674  14.895   5.550  31.115 -0.0919  0.0841 -0.0919
70758W        W13675  15.287   5.244  30.119  0.3567  0.1142  0.3086
70759W        W13676  16.267   8.276  30.378  0.2448 -0.0276 -0.1356
70760W        W13677  16.115   5.263   0.134 -0.1437  0.0091  0.0222
70761W        W13678  16.720   6.673  30.981 -0.1560 -0.0180  0.1433
70762W        W13679  17.300   6.678   0.289  0.1593  0.3607  0.0395
70763W        W13680  18.438   4.440   1.539  0.1539 -0.0651 -0.0648
70764W        W13681  16.774   7.212   0.440  0.1078  0.0494 -0.2852
70765W        W13682  17.440   5.230   1.538 -0.0168  0.0057  0.1606
70766W        W13683  13.708   3.143  30.018  0.1662 -0.2900  0.0121
70767W        W13684  15.561   5.437   1.706 -0.4143  0.2238 -0.0940
70768W        W13685  14.514   4.794  31.726  0.0319  0.1563  0.0046
70769W        W13686  16.105   5.620  31.196 -0.3923 -0.1537 -0.4091
70770W        W13687  15.337   6.777  31.393 -0.2406 -0.2887  0.1878
70771W        W13688  12.808   5.588   1.265  0.2181 -0.2148  0.0129
70772W        W13689  17.461   4.019  31.938  0.0491  0.0411  0.0183
70773W        W13690  13.646   6.177  31.876  0.0355  0.0913  0.1395
70774W        W13691  14.895   5.382  30.414  0.1600 -0.2741 -0.0240
70775W        W13692  13.430   5.500  31.042  0.1130  0.4193 -0.0823
70776W        W13693  14.154   7.425  31.947 -0.3606  0.0723 -0.1477
70777W        W13694  19.253   3.462   0.464  0.0058 -0.1820  0.0206
70778W        W13695  15.133   3.637  30.088  0.1155  0.1422  0.2057
70779W        W13696  15.937   4.635  30.746 -0.0993  0.2581 -0.0448
70780W        W13697  17.096   4.321   0.276  0.2607 -0.0169  0.1732
70781W        W13698  14.091   5.821  28.874 -0.0686 -0.0050 -0.0621
70782W        W13699  16.252   5.991  30.883 -0.0030 -0.2464  0.2365
70783W        W13700  17.490   5.134  30.610 -0.0250 -0.0802  0.2127
70784W        W13701  16.741   5.961  30.590  0.0356 -0.2515  0.3577
70785W        W13702  18.115   5.629  31.263  0.0897 -0.0762 -0.0659
70786W        W13703  14.634   4.659  30.063  0.0480  0.0974 -0.3395
70787W        W13704  17.634   5.545  31.031 -0.0285  0.0189 -0.1022
70788W        W13705  15.530   4.208  29.898  0.0102 -0.5838  0.1554
70789W        W13706  16.259   4.510  30.226  0.2729  0.0061  0.2085
70790W        W13707  15.946   6.029   0.482 -0.1070 -0.0810 -0.1361
70791W        W13708  14.853   6.228  31.784 -0.2714 -0.2656  0.3701
70792W        W13709  18.433   3.365  31.330  0.0147  0.0393 -0.0534
70793W        W13710  16.572   3.664   0.027  0.3338 -0.2330  0.2009
70794W        W13711  17.479   5.348  31.489  0.2378 -0.1095 -0.4195
70795W        W13712  17.932   3.850  30.608  0.1391  0.1195 -0.2989
70796W        W13713  15.775   5.694   0.162 -0.0236  0.0177  0.0867
70797W        W13714  14.354   2.961   0.250 -0.1231  0.1889  0.0932
70798W        W13715  16.202   5.713   1.036 -0.5385 -0.1006 -0.0823
70799W        W13716  15.220   6.353  30.617 -0.0077  0.2354 -0.0349
70800W        W13717  15.294   6.852   1.331 -0.0313  0.2092 -0.1526
70801W        W13718  17.008   2.992   0.551 -0.1077  0.0383 -0.0446
70802W        W13719  14.426   5.428   1.751  0.4015 -0.2525  0.0680
70803W        W13720  17.201   5.038   0.417  0.1263  0.1604  0.1135
70804W        W13721  13.265   5.445   0.975  0.1135  0.0889 -0.0805
70805W        W13722  17.590   7.215  31.051  0.0119  0.1278 -0.0757
70806W        W13723  17.649   4.057  30.217  0.1288  0.1528 -0.1480
70807W        W13724  14.990   5.154   0.538 -0.0447  0.0416  0.0052
70808W        W13725  15.861   4.744  31.689 -0.0408 -0.1092 -0.0412
70809W        W13726  16.791   7.411   0.966 -0.1934  0.0331  0.1155
70810W        W13727  17.418   4.226  30.631  0.2591 -0.3279  0.0025
70811W        W13728  16.594   5.693  31.109  0.0228 -0.1940 -0.0873
70812W        W13729  16.359   7.579   0.700 -0.0951  0.1960  0.0744
70813W        W13730  17.258   4.712  29.822 -0.0789  0.3179 -0.3159
70814W        W13731  17.357   5.953  31.587  0.0458 -0.0215  0.2680
70815W        W13732  14.463   5.078  30.370 -0.0097 -0.2137 -0.0876
70816W        W13733  15.069   6.107  30.092  0.0405 -0.0758  0.1917
70817W        W13734  13.500   7.055  31.784 -0.1132 -0.0678  0.1812
70818W        W13735  13.998   3.565  30.385 -0.0881 -0.1536  0.1087
70819W        W13736  16.683   6.616   2.757 -0.0692  0.0144 -0.1972
70820W        W13737  16.294   6.475  31.113  0.1044  0.2100 -0.2161
70821W        W13738  18.855   5.551  30.417  0.1404 -0.0334 -0.1341
70822W        W13739  15.512   8.419  17.253 -0.0104  0.1513  0.1510
70823W        W13740  14.431   6.926  17.338  0.0705  0.0153  0.0776
70824W        W13741  16.452   8.840  15.820  0.0776  0.0230 -0.3310
70825W        W13742  17.660   6.529  16.672 -0.0048 -0.3910  0.0667
70826W        W13743  11.737   9.698  17.594  0.1753  0.1721  0.0945
70827W        W13744  16.085  10.761  16.770  0.2316 -0.0487 -0.1758
70828W        W13745  14.573   6.368  17.169  0.0521  0.0576 -0.1005
70829W        W13746  19.119   9.576  17.247 -0.1698 -0.1397 -0.1304
70830W        W13747  17.071   8.484  19.787 -0.1974  0.1210  0.0936
70831W        W13748  15.765   9.726  14.978 -0.3607  0.1523  0.0173
70832W        W13749  15.534   8.705  19.196  0.2125 -0.0390 -0.0393
70833W        W13750  15.400  10.885  16.102 -0.0785  0.0304  0.0317
70834W        W13751  15.920   8.167  15.255  0.1399 -0.0575 -0.2464
70835W        W13752  15.305   6.687  18.326 -0.1377  0.0772  0.0792
70836W        W13753  14.912   9.797  18.708  0.1718 -0.0064  0.3843
70837W        W13754  15.272   8.765  16.494  0.2105 -0.0214  0.1252
70838W        W13755  14.634   7.285  18.155  0.0282 -0.2285 -0.0891
70839W        W13756  16.482   8.637  16.293  0.1556 -0.1167  0.2832
70840W        W13757  15.809   9.773  17.133  0.0500  0.2660 -0.0610
70841W        W13758  14.877   8.207  18.996  0.1497 -0.1936 -0.2149
70842W        W13759  15.763   7.840  19.424 -0.4254 -0.2037  0.1793
70843W        W13760  15.007   9.270  15.511 -0.0290 -0.0195 -0.1149
70844W        W13761  14.530   9.040  15.664 -0.2455 -0.0801 -0.1019
70845W        W13762  13.065   9.497  16.620 -0.2805 -0.0193  0.2206
70846W        W13763  15.725   6.904  17.791  0.2643  0.1319  0.1318
70847W        W13764  19.056   6.016  17.192  0.0599  0.1479 -0.2549
70848W        W13765  16.573  10.849  16.013 -0.0980  0.2299  0.0498
70849W        W13766  13.944  10.024  18.321 -0.1199  0.4944 -0.0859
70850W        W13767  17.574   9.729  17.406 -0.0941  0.0096 -0.0545
70851W        W13768  16.331   7.640  18.366 -0.0183 -0.1469  0.1525
70852W        W13769  13.867   9.609  17.852  0.1823  0.4240  0.2746
70853W        W13770  13.682  10.178  16.472  0.0957 -0.0578  0.1199
70854W        W13771  14.851   9.147  16.476 -0.1353  0.1350 -0.0355
70855W        W13772  20.427  10.690  18.364 -0.3756  0.0854 -0.0107
70856W        W13773  16.161   9.410  16.754  0.0799 -0.1672 -0.2181
70857W        W13774  14.427   9.113  17.742 -0.2197 -0.1188 -0.2916
70858W        W13775  14.692   8.987  15.211 -0.1382  0.1039  0.0825
70859W        W13776  17.282   9.159  17.035 -0.1118  0.1468  0.0128
70860W        W13777  15.808  10.168  18.035  0.1138  0.2447 -0.1170
70861W        W13778  15.620   8.795  16.841  0.5724  0.2409  0.0731
70862W        W13779  17.699   8.874  17.838  0.2983 -0.0354  0.1034
70863W        W13780  18.274   9.739  15.899 -0.1519 -0.1043  0.0698
70864W        W13781  16.154   9.068  17.146  0.1863  0.0007  0.4588
70865W        W13782  15.084   8.927  19.306 -0.1130 -0.0120  0.2460
70866W        W13783  14.368   9.807  17.870  0.0655 -0.2753 -0.2406
70867W        W13784  16.957   8.268  18.907  0.0217 -0.1125  0.1879
70868W        W13785  14.487  10.042  15.375 -0.1592  0.0017 -0.1412
70869W        W13786  17.259   8.891  16.530  0.0139 -0.0303  0.1036
70870W        W13787  16.091   6.220  17.265 -0.2275  0.2113 -0.2014
70871W        W13788  16.965   9.649  16.214  0.4055 -0.1492 -0.1247
70872W        W13789  15.674   6.607  16.491 -0.2724  0.2661 -0.3325
70873W        W13790  15.450  10.480  15.638 -0.0389  0.3831 -0.1309
70874W        W13791  15.283   6.829  18.904  0.1208 -0.2262 -0.3325
70875W        W13792  18.086   9.617  17.590 -0.2734  0.3267 -0.1505
70876W        W13793  16.545   9.960  16.239 -0.0626 -0.0019  0.0785
70877W        W13794  16.805   8.791  18.733  0.0175 -0.1921  0.1455
70878W        W13795  15.332   7.499  19.586 -0.0085 -0.0199 -0.0709
70879W        W13796  16.115   8.432  16.568  0.0716 -0.1286  0.0992
70880W        W13797  19.218   9.514  15.942 -0.1214 -0.0115 -0.4126
70881W        W13798  19.661   9.405  17.219 -0.0108 -0.3627  0.2144
70882W        W13799  16.676  10.771  15.077 -0.1464 -0.0776  0.0536
70883W        W13800  14.849   7.381  15.745 -0.0855 -0.1182 -0.2216
70884W        W13801  15.107   8.411  19.414  0.1094  0.1513  0.0526
70885W        W13802  14.139   8.134  19.593 -0.0229  0.1078 -0.1069
70886W        W13803  14.508   8.107  15.396  0.2418  0.0003  0.0620
70887W        W13804  18.278   8.592  18.600  0.3220  0.0642  0.1568
70888W        W13805  13.786  10.680  19.270  0.3016  0.2684  0.3618
70889W        W13806  17.402   6.329  18.961  0.0458 -0.1255 -0.0384
70890W        W13807  14.448  10.178  18.563 -0.2381  0.0712 -0.1680
70891W        W13808  16.772   9.787  15.708  0.3487  0.2691 -0.0034
70892W        W13809  17.232  10.373  15.702 -0.0668  0.2311  0.3270
70893W        W13810  15.753   6.145  18.887 -0.2630 -0.0887  0.1557
70894W        W13811  17.280   5.990  17.198  0.0424 -0.1986 -0.1038
70895W        W13812  16.417   9.091  15.299  0.1256  0.0181  0.0337
70896W        W13813  16.890   8.617  16.034 -0.0024 -0.4416  0.3573
70897W        W13814  17.756   9.376  17.945 -0.1408  0.1073 -0.0133
70898W        W13815  16.484  10.464  16.271  0.0910  0.2006 -0.1273
70899W        W13816  13.892   7.935  18.080  0.2238 -0.0433  0.0102
70900W        W13817  16.999   8.496  17.736  0.1896 -0.1049 -0.2750
70901W        W13818  15.435   9.171  22.137 -0.0366  0.1107  0.1573
70902W        W13819  13.908  12.666  16.557 -0.0843 -0.0153 -0.2036
70903W        W13820  12.010   9.858  16.571 -0.1526  0.0022  0.2147
70904W        W13821  15.674   8.572  15.606  0.2132  0.2105 -0.1403
70905W        W13822  15.870   7.440  18.307  0.1321 -0.0277 -0.0223
70906W        W13823  14.838   8.562  16.466 -0.1449 -0.0843 -0.0167
70907W        W13824  17.218   6.823  16.874  0.1625 -0.1151 -0.0427
70908W        W13825  14.945   6.005  18.318 -0.0669 -0.0457  0.1533
70909W        W13826  18.236   7.705  16.794 -0.1065  0.2980  0.0082
70910W        W13827  15.080  10.612  15.172  0.1603  0.0849 -0.2229
70911W        W13828  17.312  11.425  15.674  0.0070  0.1023  0.1989
70912W        W13829  17.444   9.633  16.234 -0.1513 -0.0223 -0.1219
70913W        W13830  17.659   9.189  16.359  0.0580  0.2188  0.0938
70914W        W13831  13.194   8.753  17.292  0.0006  0.1649  0.2330
70915W        W13832  14.958   8.012  15.133  0.4746  0.1370  0.0036
70916W        W13833  15.099   8.066  20.342  0.1516 -0.0007 -0.0974
70917W        W13834  15.239   8.094  17.619  0.2582  0.1946  0.3632
70918W        W13835  16.737   6.965  18.727  0.1326 -0.0482 -0.0612
70919W        W13836  15.632   8.382  16.458  0.3177  0.3047 -0.0814
70920W        W13837  16.961  10.605  16.211  0.4243  0.2032  0.1190
70921W        W13838  16.698   8.671  15.224  0.3352  0.1224  0.3295
70922W        W13839  14.076   9.126  15.373  0.3205 -0.1921 -0.0864
70923W        W13840  17.502   7.686  18.733 -0.1864  0.0669 -0.1377
70924W        W13841  15.904  11.891  15.319 -0.3465  0.0286 -0.0706
70925W        W13842  17.686   9.818  18.457 -0.2451  0.2220  0.0061
70926W        W13843  16.225  11.067  16.405 -0.1881 -0.1423 -0.3712
70927W        W13844  14.930   7.598  17.495 -0.0008  0.1751 -0.1684
70928W        W13845  14.384   7.520  15.776  0.1119  0.2735  0.0887
70929W        W13846  16.158  11.548  17.283 -0.0006  0.2254  0.1583
70930W        W13847  14.994   7.692  16.564  0.1503 -0.2759  0.0568
70931W        W13848  12.464   8.651  17.177  0.1629 -0.2348 -0.2272
70932W        W13849  17.671  11.779  15.612  0.0841 -0.2555 -0.0015
70933W        W13850  16.671   9.091  14.866  0.4701 -0.2313 -0.3075
70934W        W13851  14.221   8.273  17.742  0.3577  0.0835 -0.2025
70935W        W13852  16.147   7.644  18.797  0.2356  0.0270  0.0622
70936W        W13853  17.682   6.988  17.169 -0.2234  0.3361  0.2325
70937W        W13854  17.750   8.244  17.394  0.1207  0.0698 -0.0076
70938W        W13855  13.951   7.852  16.359  0.1297 -0.1979 -0.3258
70939W        W13856  16.798  10.696  15.595 -0.1532 -0.1291 -0.2280
70940W        W13857  13.242   9.530  17.054 -0.1252  0.2930  0.1278
70941W        W13858  13.803   9.124  16.780  0.1945 -0.1410  0.1551
70942W        W13859  17.339  11.386  16.635 -0.1099 -0.1771  0.1542
70943W        W13860  16.585   8.005  18.657 -0.2099  0.1701  0.1612
70944W        W13861  16.752   8.981  19.743 -0.0763 -0.1774 -0.2273
70945W        W13862  17.133   9.814  19.331  0.2022 -0.1311  0.0164
70946W        W13863  12.364   8.208  16.065  0.1020 -0.1794 -0.0719
70947W        W13864  14.569   8.544  17.047  0.0622 -0.2443 -0.5923
70948W        W13865  17.190   7.451  16.853  0.3245 -0.2038  0.0177
70949W        W13866  17.188   8.679  15.658  0.1222 -0.0574 -0.3092
70950W        W13867  15.463  10.117  19.212  0.1684  0.1680 -0.0495
70951W        W13868  16.879   7.715  17.668 -0.2113  0.4035 -0.0268
70952W        W13869  16.370   7.126  16.638 -0.0425  0.0554  0.0290
70953W        W13870  16.503   8.143  15.251  0.4421  0.0744  0.0324
70954W        W13871  15.355   8.035  19.210  0.4162 -0.1263  0.1018
70955W        W13872  15.582   9.756  16.165 -0.0330  0.0418  0.0437
70956W        W13873  15.172   9.022  18.829  0.0527  0.1779  0.0764
70957W        W13874  17.050   8.390  17.212 -0.1138  0.0980 -0.2104
70958W        W13875  18.375   9.034  16.509  0.0462 -0.0557  0.0221
70959W        W13876  13.528   8.150  16.529 -0.1536 -0.0652 -0.0521
70960W        W13877  17.663   8.529  21.769  0.2071  0.3889 -0.0680
70961W        W13878  16.662   7.462  18.733  0.0338 -0.1246  0.0405
70962W        W13879  16.107   8.110  18.576  0.0985  0.1292 -0.2158
70963W        W13880  15.926   7.706  16.014  0.3580  0.2447 -0.2690
70964W        W13881  14.873   7.161  17.228  0.2848  0.2769  0.1775
70965W        W13882  14.037  10.220  15.265 -0.0435 -0.0387 -0.0217
70966W        W13883  16.653  10.078  19.494 -0.1301  0.0487 -0.3791
70967W        W13884  17.205   9.096  18.042 -0.1178  0.1951 -0.2663
70968W        W13885  13.867   6.273  21.234  0.0775  0.2838  0.1058
70969W        W13886  17.804   8.843  20.437  0.0050 -0.0047 -0.2619
70970W        W13887  18.781   9.259  17.449 -0.0249  0.2329  0.1961
70971W        W13888  17.158   8.413  16.431 -0.0732 -0.0233 -0.0294
70972W        W13889  15.207   8.410  16.853 -0.1705  0.1394 -0.0174
70973W        W13890  15.840   6.594  20.144  0.0643  0.1152 -0.0491
70974W        W13891  15.496  10.186  17.108 -0.1379  0.2977 -0.2334
70975W        W13892  14.140   8.296  17.245  0.0143  0.1057  0.2747
70976W        W13893  18.119   9.048  18.271 -0.2409 -0.0321  0.0507
70977W        W13894  19.377   8.323  18.370  0.1734  0.2706  0.1070
70978W        W13895  15.180   7.627  17.990  0.1769  0.1124 -0.3633
70979W        W13896  15.675   8.747  14.982 -0.1683  0.4522 -0.1153
70980W        W13897  16.115  10.110  15.991 -0.2461  0.2694  0.2726
70981W        W13898  14.868  10.119  16.546 -0.1289  0.0670  0.2082
70982W        W13899  15.781   6.060  18.340 -0.0734  0.3707  0.1903
70983W        W13900  15.993   9.435  17.448 -0.0018 -0.1140  0.0367
70984W        W13901  14.969  10.118  15.140  0.1347  0.0362  0.2164
70985W        W13902  18.517   7.726  18.416  0.1548 -0.1367  0.1500
70986W        W13903  15.486   9.074  15.698  0.0574  0.0151  0.0099
70987W        W13904  15.889   6.959  18.270 -0.0514 -0.0276 -0.0376
70988W        W13905  12.973  10.413  17.089 -0.2270  0.0444  0.0723
70989W        W13906  15.307   7.498  15.867 -0.3912 -0.0515 -0.0134
70990W        W13907  12.896   8.274  17.023  0.2574 -0.0441 -0.1534
70991W        W13908  17.048   7.161  17.900 -0.2348 -0.0180 -0.1095
70992W        W13909  17.853  10.707  16.452 -0.0569 -0.1138  0.0290
70993W        W13910  15.340   9.479  19.573 -0.0096 -0.3468  0.0939
70994W        W13911  15.779   8.141  18.997 -0.0900  0.0051 -0.1187
70995W        W13912  14.203  11.529  18.388  0.1582 -0.0311  0.1011
70996W        W13913  15.876  10.485  17.639 -0.3078 -0.1768  0.1680
70997W        W13914  17.545   7.366  15.498  0.2392 -0.0107 -0.1718
70998W        W13915  15.295   8.137  18.404  0.2496 -0.0620  0.0417
70999W        W13916  16.187   7.029  20.576  0.1706 -0.0730  0.0758
71000W        W13917  12.465   7.817  16.779 -0.1004  0.0801 -0.0437
71001W        W13918  16.269   7.654  17.841 -0.2608  0.3123 -0.1091
71002W        W13919  13.178   7.580  17.536 -0.2847 -0.0352 -0.0842
71003W        W13920  15.393  12.204  16.365 -0.0526  0.1046 -0.0445
71004W        W13921  16.026  10.269  17.155 -0.2752 -0.2190  0.0200
71005W        W13922  16.794   9.561  17.347  0.0224 -0.0357 -0.0471
71006W        W13923  14.471   9.326  17.198 -0.1860 -0.2160 -0.1264
71007W        W13924  16.819   8.547  19.354 -0.2655 -0.0566  0.0796
71008W        W13925  16.771   8.441  16.686 -0.0882 -0.2258 -0.0268
71009W        W13926  16.389   7.129  18.386  0.2312 -0.0801  0.0770
71010W        W13927  14.428   8.019  15.963 -0.1692  0.3296 -0.1651
71011W        W13928  16.150   8.095  18.078 -0.4014  0.0156 -0.2745
71012W        W13929  15.801  10.584  15.153  0.1655 -0.1012 -0.1282
71013W        W13930  15.238   6.384  21.379  0.0501  0.0783 -0.1546
71014W        W13931  14.472   9.714  18.491  0.1840  0.3483  0.1694
71015W        W13932  17.905   6.835  18.140 -0.0539 -0.1170  0.2167
71016W        W13933  18.997   9.136  18.508 -0.0384 -0.3865 -0.4527
71017W        W13934  16.710   8.641  20.244  0.1469  0.1200  0.0018
71018W        W13935  17.241   9.656  17.040 -0.1116  0.2397 -0.0384
71019W        W13936  14.710   8.284  17.806  0.1822 -0.3126 -0.0027
71020W        W13937  15.818   8.201  15.964  0.2238 -0.0714 -0.1293
71021W        W13938  16.888   6.840  18.271 -0.0272 -0.1184 -0.4703
71022W        W13939  14.804  10.011  17.110  0.0800 -0.0641  0.0094
71023W        W13940  15.688   9.255  14.781 -0.1574 -0.1747 -0.4114
71024W        W13941  15.196   8.832  17.202  0.0716 -0.1178  0.1387
71025W        W13942  17.422   8.724  16.049 -0.1438  0.1452 -0.0699
71026W        W13943  15.952   9.301  15.327  0.1271  0.1461  0.0755
71027W        W13944  17.849   7.957  16.842  0.0038 -0.0421  0.1758
71028W        W13945  17.410   6.552  18.089 -0.1041 -0.1279  0.2084
71029W        W13946  17.153  10.935  16.721 -0.0316  0.0717 -0.2909
71030W        W13947  15.319   6.755  20.162 -0.0730 -0.0654  0.3646
71031W        W13948  16.019   8.916  16.567  0.3016 -0.1261  0.0146
71032W        W13949  19.408  11.164  18.209 -0.0818  0.1673  0.2828
71033W        W13950  14.690   6.781  16.915 -0.2016  0.2340  0.2096
71034W        W13951  18.903  10.372  20.017 -0.1206  0.1799  0.0218
71035W        W13952  14.558   6.942  18.523  0.0377 -0.0360  0.0356
71036W        W13953  18.296   9.551  17.116 -0.1512  0.0565 -0.0164
71037W        W13954  12.036   8.009  16.590  0.1429 -0.0809  0.1290
71038W        W13955  16.551   9.420  16.405  0.1483 -0.2036 -0.1318
71039W        W13956  16.296  10.183  16.617 -0.0403 -0.0695  0.1711
71040W        W13957  13.626  10.902  15.444 -0.3607  0.2124  0.0087
71041W        W13958  18.150   8.533  17.457 -0.0584  0.1554 -0.1418
71042W        W13959  15.604   9.668  17.852 -0.2158  0.3515 -0.0077
71043W        W13960  16.881   9.036  16.318 -0.0235 -0.1086 -0.0911
71044W        W13961  16.376  10.030  15.588 -0.0686  0.0417 -0.0192
71045W        W13962  13.721   7.231  16.907 -0.0506  0.2290  0.0055
71046W        W13963  14.518   8.109  21.079  0.0503  0.1542  0.0772
71047W        W13964  16.297   9.787  17.285 -0.1050  0.1095  0.1714
71048W        W13965  15.907   7.910  17.372 -0.0670 -0.3505 -0.0847
71049W        W13966  18.082   9.085  17.534  0.0824 -0.0587  0.3720
71050W        W13967  18.010   9.614  19.953  0.0642 -0.2874  0.1091
71051W        W13968  15.149   9.620  20.464 -0.1506  0.1844 -0.2189
71052W        W13969  14.435   9.093  18.292 -0.0235  0.1816  0.0297
71053W        W13970  17.436  10.257  19.389  0.4037  0.2770  0.1784
71054W        W13971  18.456   9.122  17.879 -0.0229  0.0666  0.0748
71055W        W13972  15.965   8.935  19.103 -0.0204  0.0454 -0.0106
71056W        W13973  18.399   7.651  17.412  0.1556  0.2407  0.1653
71057W        W13974  16.936   7.920  16.640  0.2101  0.2197  0.1088
71058W        W13975  14.876   9.139  17.526  0.0072 -0.0333 -0.1172
71059W        W13976  16.256   8.196  17.622  0.0277  0.1661 -0.2483
71060W        W13977  16.774   7.849  15.732  0.1120  0.2439  0.3633
71061W        W13978  14.253   6.244  20.131 -0.0739  0.2720  0.0425
71062W        W13979  15.828  11.034  15.010 -0.0513 -0.0219 -0.0861
71063W        W13980  18.099   9.444  16.682 -0.3359  0.2781  0.1224
71064W        W13981  17.294   7.588  16.409  0.1470  0.2733  0.2177
71065W        W13982  14.994   9.345  15.055 -0.0186  0.1620 -0.0131
71066W        W13983  13.930  10.137  17.684 -0.1304  0.3026 -0.0586
71067W        W13984  13.565   7.477  16.213 -0.1843  0.0714  0.1554
71068W        W13985  13.754   8.661  15.606  0.2643 -0.5300 -0.1648
71069W        W13986  16.259   9.281  19.171  0.4510 -0.1198  0.1372
71070W        W13987  16.441   9.475  17.673 -0.0442  0.1494 -0.2833
71071W        W13988  15.323   6.256  17.432  0.0131  0.1087 -0.3141
71072W        W13989  17.244   8.099  17.555  0.1010 -0.0862  0.2017
71073W        W13990  14.323   9.534  15.806  0.1709 -0.2207 -0.0489
71074W        W13991  16.404   5.379  18.429 -0.1425  0.2833  0.1021
71075W        W13992  14.918  10.665  15.911 -0.3079 -0.0838 -0.1221
71076W        W13993  15.077   9.174  18.261 -0.0090  0.1285  0.0659
71077W        W13994  16.579  10.321  14.755 -0.0266  0.0131 -0.1563
71078W        W13995  15.613   7.604  18.977  0.2619  0.1555 -0.0427
71079W        W13996  15.603   7.698  16.910  0.1170  0.3062  0.0048
71080W        W13997  15.708   9.303  17.033  0.3136  0.4064 -0.0136
71081W        W13998  17.321   8.869  19.030  0.1274  0.3296 -0.2158
71082W        W13999  15.438   9.310  17.524  0.3384 -0.1438  0.0632
71083W        W14000  15.409  10.108  16.541  0.0141 -0.4230  0.0206
71084W        W14001  18.213  10.504  17.760 -0.0760 -0.1401 -0.2482
71085W        W14002  16.547   9.810  16.830 -0.2270  0.0161  0.4047
71086W        W14003  15.245  10.057  17.936  0.0049  0.0474  0.1985
71087W        W14004  14.652   7.809  17.870 -0.1204 -0.0631  0.0322
71088W        W14005  15.483   8.749  18.391 -0.0383 -0.0750 -0.1136
71089W        W14006  16.709  10.269  15.843 -0.0111  0.1477 -0.2906
71090W        W14007  14.547   7.361  16.301  0.2512 -0.1172  0.0167
71091W        W14008  16.735   8.195  16.191  0.2099  0.0587 -0.1358
71092W        W14009  13.698  11.145  17.419 -0.2299 -0.0179 -0.2139
71093W        W14010  14.111   7.739  17.020 -0.1272 -0.1439 -0.2210
71094W        W14011  17.762  10.496  17.430  0.0037  0.1163  0.1666
71095W        W14012  15.497  10.174  15.182 -0.0644 -0.0956 -0.0668
71096W        W14013  16.077   9.623  16.316 -0.1049 -0.2005  0.1286
71097W        W14014  16.785   8.957  17.799  0.0714 -0.1105  0.1550
71098W        W14015  15.996   6.714  15.991 -0.1183  0.1081  0.1573
71099W        W14016  14.756   8.973  17.045  0.2055 -0.2547  0.2279
71100W        W14017  13.453   9.460  15.829  0.2561  0.3421  0.1840
71101W        W14018  16.470  11.649  14.855  0.2004  0.1013  0.0589
71102W        W14019  14.351   8.489  16.236 -0.3324  0.1287 -0.2503
71103W        W14020  21.371   9.152  19.172  0.0708  0.2125  0.5125
71104W        W14021  17.151   7.958  16.025 -0.1037  0.1393  0.2730
71105W        W14022  16.615   9.863  17.995  0.1451  0.2160 -0.2919
71106W        W14023  18.505   7.120  17.716 -0.0154 -0.0248 -0.4702
71107W        W14024  16.793  10.320  16.639  0.0188  0.0509 -0.0338
71108W        W14025  14.698   8.690  19.037 -0.2741 -0.3708  0.0970
71109W        W14026  15.092   6.431  16.866  0.1891 -0.2457 -0.0038
71110W        W14027  15.893   8.595  18.715  0.2791  0.0527  0.1119
71111W        W14028  20.531   8.620  20.213 -0.1072  0.0924 -0.1753
71112W        W14029  14.876  10.698  19.782  0.3876  0.2215  0.1485
71113W        W14030  18.214  11.288  17.156 -0.1185  0.3223  0.0431
71114W        W14031  13.858   8.518  18.002 -0.3422 -0.2187 -0.2923
71115W        W14032  14.851   8.266  15.888 -0.0307 -0.2914  0.0977
71116W        W14033  17.319   7.520  18.208  0.2561 -0.2500  0.2944
71117W        W14034  14.887   9.760  15.525 -0.1654 -0.1363  0.0004
71118W        W14035  16.364   6.162  19.050  0.1179  0.0001  0.3828
71119W        W14036  14.423  10.442  15.709 -0.0612  0.0460 -0.0051
71120W        W14037  15.139  10.944  17.116 -0.0556  0.1180  0.1483
71121W        W14038  15.364  10.930  18.468 -0.1059  0.1765  0.1531
71122W        W14039  13.469   8.745  16.458  0.0703 -0.1623  0.3200
71123W        W14040  19.618   7.660  18.758  0.1445  0.0900 -0.1238
71124W        W14041  14.819   8.761  18.020 -0.2341 -0.1312  0.0980
71125W        W14042  16.840   7.815  19.058  0.1996  0.2402  0.0451
71126W        W14043  15.852  10.159  16.727  0.1331 -0.0406 -0.0289
71127W        W14044  18.366   6.864  17.366 -0.0288  0.1873  0.0910
71128W        W14045  16.296   8.954  18.743  0.0985  0.2176  0.3324
71129W        W14046  16.051   8.570  17.332 -0.2309  0.3113 -0.1140
71130W        W14047  15.624   7.805  15.523  0.0881 -0.0721  0.2407
71131W        W14048  18.891   8.764  19.565  0.2947 -0.1996  0.1785
71132W        W14049  17.947   8.971  16.736 -0.2515  0.3112  0.1034
71133W        W14050  15.950  10.165  19.337 -0.1957  0.2021 -0.1395
71134W        W14051  15.109   8.164  16.387  0.2747 -0.0703 -0.0733
71135W        W14052  16.426   8.030  16.511  0.2224 -0.3381 -0.1416
71136W        W14053  13.910   9.383  16.086  0.0174 -0.0755 -0.1388
71137W        W14054  17.021   9.166  18.520 -0.1131  0.1164  0.0268
71138W        W14055  16.788   9.150  19.106 -0.0700  0.4146  0.0117
71139W        W14056  15.471   7.609  16.326 -0.0889 -0.2932  0.2952
71140W        W14057  18.140   9.921  16.656  0.2385 -0.1519  0.1359
71141W        W14058  16.057   8.617  17.840 -0.1012 -0.0324  0.1080
71142W        W14059  15.311   9.004  15.246  0.2398 -0.2497 -0.1388
71143W        W14060  17.780   8.498  18.876  0.0642  0.0971 -0.1375
71144W        W14061  17.908   9.884  17.112 -0.1634 -0.0682 -0.0353
71145W        W14062  15.054   7.297  16.231 -0.1153  0.0739  0.3240
71146W        W14063  17.053  10.474  17.031 -0.1141 -0.1873  0.1254
71147W        W14064  17.677  10.102  16.318  0.1026  0.2441  0.0234
71148W        W14065  15.580   6.365  16.998  0.2349  0.2166  0.0168
71149W        W14066  16.210   9.031  17.657 -0.2503  0.0343  0.0216
71150W        W14067  15.442  11.742  16.612 -0.4130 -0.0643  0.2384
71151W        W14068  18.959   8.309  19.831  0.0583 -0.0435 -0.0539
71152W        W14069  17.597   8.964  18.427 -0.1159  0.2854  0.2141
71153W        W14070  17.249   9.789  15.797 -0.1906 -0.1954  0.0348
71154W        W14071  18.109   9.184  19.684  0.0972  0.4622  0.0389
71155W        W14072  16.401   9.113  20.786  0.2113 -0.1927 -0.0394
71156W        W14073  15.131   9.546  21.139 -0.1192 -0.2086 -0.2293
71157W        W14074  15.263   9.589  15.841  0.1151  0.0017  0.0632
71158W        W14075  15.362   9.947  20.031  0.2019  0.2529 -0.0956
71159W        W14076  16.187   9.155  16.113  0.0845 -0.1627  0.2021
71160W        W14077  16.642  11.375  14.422  0.1896 -0.1816  0.2052
71161W        W14078  16.712  11.312  15.166 -0.0941 -0.0530 -0.1312
71162W        W14079  15.772   8.399  18.249 -0.0209  0.0370 -0.1236
71163W        W14080  16.269  11.911  16.261  0.2974  0.2818  0.1039
71164W        W14081  17.535   6.459  17.193 -0.6001 -0.1499 -0.2318
71165W        W14082  18.405   5.390  17.545  0.0243  0.0867  0.2396
71166W        W14083  16.493   6.059  17.709  0.1115 -0.1114 -0.0568
71167W        W14084  14.976   8.742  20.381  0.0010 -0.0979  0.0705
71168W        W14085  12.561   8.275  16.622  0.0650 -0.1258  0.0494
71169W        W14086  15.782   9.746  14.441  0.1407  0.1278 -0.3532
71170W        W14087  15.574   9.296  18.236  0.2952  0.3917 -0.0044
71171W        W14088  14.976   7.335  20.748  0.0238 -0.0042  0.1501
71172W        W14089  15.250   7.312  20.035  0.1214 -0.1223  0.2442
71173W        W14090  13.682   6.757  19.055 -0.1048  0.4429  0.3694
71174W        W14091  16.566   7.606  16.783  0.0195 -0.0255 -0.0481
71175W        W14092  17.494  10.577  16.085  0.0563 -0.0257 -0.2367
71176W        W14093  14.928   6.351  17.831  0.0533 -0.0323 -0.0224
71177W        W14094  16.245   6.907  17.499  0.1462  0.2443 -0.1171
71178W        W14095  17.204   9.957  18.481  0.0323  0.0688  0.0299
71179W        W14096  17.128  10.978  15.851  0.0629 -0.1403 -0.1224
71180W        W14097  15.824   7.315  17.163 -0.0783 -0.0297  0.0003
71181W        W14098  18.385   9.835  20.923  0.0604  0.1460 -0.2814
71182W        W14099  14.742   8.787  16.009  0.2925 -0.1315 -0.0054
71183W        W14100  16.828   9.448  20.131 -0.1423  0.1159  0.0280
71184W        W14101  15.129   7.449  21.331  0.2270  0.2635  0.0072
71185W        W14102  14.829   7.753  16.097  0.0516 -0.4262  0.2828
71186W        W14103  16.540   9.488  18.703  0.1913 -0.2370 -0.2002
71187W        W14104  16.553  11.963  15.839  0.0519  0.2115 -0.0056
71188W        W14105  16.949  11.772  15.605 -0.1227 -0.0572 -0.0400
71189W        W14106  17.384  11.313  19.703  0.0139  0.0363 -0.0662
71190W        W14107  16.634  10.002  18.608 -0.1881 -0.3320  0.3110
71191W        W14108  14.448   6.365  19.578 -0.3694  0.0625  0.0879
71192W        W14109  17.300   9.315  15.517 -0.1548 -0.0561  0.2142
71193W        W14110  16.696   9.494  19.444  0.0267 -0.1730  0.0637
71194W        W14111  17.326  11.218  17.163  0.3705 -0.1124 -0.0552
71195W        W14112  17.989   7.582  18.558  0.0500  0.1086  0.1005
71196W        W14113  17.366   8.451  16.873  0.0663 -0.0454  0.2768
71197W        W14114  13.915   7.255  20.476 -0.0529  0.0382  0.1674
71198W        W14115  14.044  10.703  17.439  0.1337 -0.2235 -0.0288
71199W        W14116  16.371  10.621  17.448 -0.3058 -0.2494  0.2452
71200W        W14117  14.767   8.145  16.864  0.0589 -0.1534 -0.1983
71201W        W14118  17.890   8.426  16.873 -0.0097  0.2222  0.1185
71202W        W14119  15.919   9.830  15.455 -0.3597  0.0621 -0.2040
71203W        W14120  14.976   8.417  17.351 -0.0049  0.0160  0.1599
71204W        W14121  16.763   7.733  16.223  0.1162 -0.0543 -0.4345
71205W        W14122  16.387   8.441  18.784 -0.0198 -0.2762 -0.2099
71206W        W14123  14.379   8.490  15.726 -0.3371  0.1454 -0.0886
71207W        W14124  17.291   7.493  19.306 -0.0188  0.1034  0.3597
71208W        W14125  16.907   8.263  18.378  0.2133 -0.2625  0.0972
71209W        W14126  16.592   6.441  18.543 -0.0596  0.0111 -0.0095
71210W        W14127  16.653  11.071  19.400  0.0179 -0.3427 -0.1838
71211W        W14128  17.289   8.969  19.619 -0.1294  0.1564  0.1465
71212W        W14129  17.060  10.012  17.466  0.2169 -0.0352  0.0217
71213W        W14130  15.165   7.812  18.805 -0.0595 -0.0415 -0.2868
71214W        W14131  14.192   7.216  19.555  0.0554 -0.2877  0.0465
71215W        W14132  14.819   9.397  15.978  0.0272 -0.2953  0.0935
71216W        W14133  15.243   8.438  18.026  0.0735  0.2030  0.0679
71217W        W14134  16.421   9.671  19.854  0.1625  0.2817  0.1039
71218W        W14135  17.423   8.615  17.524  0.2697  0.2527  0.1050
71219W        W14136  17.244   9.256  16.032  0.0387 -0.0549 -0.1057
71220W        W14137  14.542  10.056  15.981 -0.0915  0.3692 -0.2023
71221W        W14138  13.589   7.835  18.856 -0.2861  0.1538  0.0628
71222W        W14139  17.097   9.185  24.436 -0.0735 -0.3150 -0.1936
71223W        W14140  15.406   7.701  20.372 -0.1071 -0.2068 -0.3697
71224W        W14141  15.664   7.820  18.528 -0.1948 -0.1246  0.0778
71225W        W14142  17.719   7.988  20.811  0.1885  0.3431  0.0558
71226W        W14143  14.667   7.595  21.116  0.0308 -0.1161  0.1427
71227W        W14144  17.017   9.544  18.855  0.1063  0.2139 -0.2691
71228W        W14145  12.810   4.861  22.867 -0.0210 -0.0685 -0.2305
71229W        W14146  17.314   9.738  21.666  0.0238  0.1447  0.1237
71230W        W14147  18.586  10.754  21.919 -0.0528  0.0214 -0.0158
71231W        W14148  16.098   9.483  21.744 -0.0506  0.0162 -0.0712
71232W        W14149  14.796   5.409  21.660  0.1006 -0.2365 -0.1875
71233W        W14150  13.026   9.274  22.592  0.0272  0.1956  0.2643
71234W        W14151  14.152   5.179  18.074 -0.0603 -0.2241  0.0416
71235W        W14152  15.448   7.989  23.485 -0.2345 -0.0613 -0.0544
71236W        W14153  17.053   8.783  21.504  0.1097  0.2266  0.0082
71237W        W14154  14.443   7.922  20.441 -0.1358  0.0858 -0.0875
71238W        W14155  15.529   8.621  22.230  0.0560  0.2514 -0.0674
71239W        W14156  13.238   8.569  21.271  0.0895  0.1028 -0.2537
71240W        W14157  14.796  10.406  20.586  0.0104  0.1620 -0.2056
71241W        W14158  14.775   5.997  22.372  0.0563  0.2398 -0.3169
71242W        W14159  15.088   6.115  22.969 -0.4462  0.0258  0.0099
71243W        W14160  13.750   9.391  21.185 -0.0423  0.0383 -0.0404
71244W        W14161  13.002  10.201  19.795 -0.0516  0.3232 -0.1329
71245W        W14162  14.346   7.683  22.141  0.0280  0.0502  0.1480
71246W        W14163  14.960   7.902  23.393 -0.0319 -0.0401  0.0834
71247W        W14164  15.984   7.502  20.704 -0.3315  0.2445  0.3994
71248W        W14165  16.161   7.204  21.142 -0.3127  0.0752 -0.1846
71249W        W14166  13.564  11.720  22.781 -0.4338  0.0570 -0.0351
71250W        W14167  15.096   8.891  22.332 -0.1708 -0.0821 -0.2334
71251W        W14168  16.730   8.094  24.066 -0.2938 -0.1691  0.0676
71252W        W14169  14.887   9.769  22.731  0.0320 -0.1008 -0.2310
71253W        W14170  13.874   9.985  21.832 -0.3744 -0.1036  0.1679
71254W        W14171  16.846  11.291  19.779  0.1537  0.1843 -0.1387
71255W        W14172  18.822   8.701  21.749  0.1864  0.1077  0.0627
71256W        W14173  16.590   9.786  22.077  0.0062 -0.0744 -0.1772
71257W        W14174  15.644  11.252  23.284  0.1985  0.0660 -0.0172
71258W        W14175  15.923  10.051  20.181  0.0922 -0.0431  0.1125
71259W        W14176  15.851  10.795  22.505  0.0481  0.1986  0.1768
71260W        W14177  13.988  11.484  21.797 -0.0709  0.0518  0.2839
71261W        W14178  15.417   8.959  20.271  0.2128  0.0629 -0.2622
71262W        W14179  17.317   7.806  20.609 -0.0853  0.0035 -0.3610
71263W        W14180  16.214   9.776  19.411  0.0092 -0.0630 -0.0212
71264W        W14181  15.708   9.315  20.468  0.0528 -0.2259 -0.0811
71265W        W14182  13.406   9.571  22.440 -0.2729  0.0666  0.0469
71266W        W14183  12.937  10.553  22.010  0.1986  0.0233  0.2347
71267W        W14184  18.363   7.789  23.438 -0.0171 -0.1325 -0.1858
71268W        W14185  14.001   8.720  17.488 -0.0777  0.0042 -0.1386
71269W        W14186  16.452   7.336  20.191  0.2499 -0.1540 -0.0861
71270W        W14187  15.545   7.170  18.595  0.4148  0.0361 -0.1483
71271W        W14188  14.227   8.596  19.542  0.0743 -0.0073  0.2744
71272W        W14189  16.921   8.187  21.287  0.3171  0.0953  0.1575
71273W        W14190  13.832   9.531  20.643  0.0545 -0.0634 -0.2662
71274W        W14191  15.047   5.615  21.987  0.1227 -0.2082 -0.3871
71275W        W14192  17.143   8.121  22.522 -0.2216 -0.0080  0.0362
71276W        W14193  15.893   8.457  21.914 -0.0004 -0.1229  0.1473
71277W        W14194  16.117   6.385  21.617  0.1218  0.1581  0.0734
71278W        W14195  13.473   8.096  22.606  0.0462 -0.0013 -0.0209
71279W        W14196  14.897   7.039  20.350  0.0314 -0.1052 -0.4749
71280W        W14197  16.548  10.199  22.409 -0.1105 -0.2093  0.1404
71281W        W14198  18.401  10.557  20.462  0.0932 -0.1143  0.3632
71282W        W14199  18.107   9.845  20.482 -0.0684 -0.0583 -0.2804
71283W        W14200  16.380   8.144  21.088  0.0654  0.1068  0.3811
71284W        W14201  14.468   7.689  22.676  0.1252  0.1860  0.1289
71285W        W14202  14.213   7.358  23.467  0.1210  0.3148  0.0381
71286W        W14203  16.061   7.632  20.267 -0.0093  0.1523  0.0217
71287W        W14204  19.888   8.536  22.647  0.1153 -0.0132 -0.0790
71288W        W14205  13.356   9.511  22.939  0.2965  0.0778  0.1390
71289W        W14206  15.810   8.080  20.519  0.2160 -0.0303 -0.0103
71290W        W14207  16.728   7.211  22.285  0.1145  0.3826  0.0568
71291W        W14208  17.880  12.123  19.486  0.1758  0.1330  0.0135
71292W        W14209  17.149   8.794  22.313  0.6167  0.0620 -0.0401
71293W        W14210  15.699   7.404  21.338  0.0478 -0.4193 -0.3013
71294W        W14211  16.076   4.185  22.466  0.1931  0.0501  0.1131
71295W        W14212  14.773   9.943  18.163  0.1252 -0.1942 -0.1493
71296W        W14213  16.040   8.352  19.782  0.0998  0.1622  0.0870
71297W        W14214  17.880  11.583  22.734  0.1901  0.0780 -0.0804
71298W        W14215  18.831   9.272  20.249 -0.0025 -0.0968  0.1045
71299W        W14216  14.449   9.502  19.822 -0.0868  0.2740 -0.0070
71300W        W14217  16.096   7.827  22.725  0.3501 -0.5139 -0.0651
71301W        W14218  18.195   9.351  23.995  0.2874 -0.1652 -0.1207
71302W        W14219  14.272  11.372  19.304  0.0372  0.0645 -0.1848
71303W        W14220  15.204   8.134  21.730 -0.0441 -0.1237 -0.1087
71304W        W14221  13.979  10.475  20.683  0.2336 -0.2365 -0.0214
71305W        W14222  13.104   5.064  19.937  0.2082 -0.1723  0.0923
71306W        W14223  14.173   9.599  24.284  0.2466 -0.2060  0.0234
71307W        W14224  19.857   7.863  24.029  0.1657  0.0996 -0.2067
71308W        W14225  14.151   8.199  22.858 -0.1369  0.2951 -0.3147
71309W        W14226  17.543   9.016  21.449  0.1537 -0.2412  0.1583
71310W        W14227  13.261   9.039  22.249 -0.2243  0.0615  0.0544
71311W        W14228  15.896  10.562  18.399 -0.0499  0.0174  0.1427
71312W        W14229  19.510   9.789  22.603 -0.1118  0.1576 -0.0043
71313W        W14230  16.876   9.218  20.593 -0.2933  0.2436  0.1592
71314W        W14231  13.881   6.884  21.242  0.1602 -0.0566  0.0188
71315W        W14232  14.951   7.587  22.048  0.2749 -0.0938 -0.0759
71316W        W14233  12.858   7.641  23.934  0.1057 -0.0180  0.1728
71317W        W14234  15.108   6.636  21.791 -0.0083 -0.0918 -0.0235
71318W        W14235  15.572  10.969  22.883  0.0685  0.0905 -0.3644
71319W        W14236  14.862   7.822  20.734  0.2200  0.0828  0.2313
71320W        W14237  16.906   7.661  22.311 -0.1738 -0.0811 -0.1090
71321W        W14238  12.873   5.369  20.343  0.2129 -0.1438  0.1925
71322W        W14239  13.705   9.272  21.721 -0.2896  0.0845  0.2380
71323W        W14240  17.196   8.488  22.944  0.0917  0.2842  0.2097
71324W        W14241  18.652   9.108  21.130 -0.1567 -0.5155  0.1206
71325W        W14242  17.770   9.343  21.844 -0.1468 -0.1690 -0.0202
71326W        W14243  14.862   8.768  21.550  0.1975 -0.1810 -0.0027
71327W        W14244  14.325   5.701  23.929  0.0598 -0.3585 -0.1904
71328W        W14245  15.460   6.898  21.658  0.1347 -0.0088 -0.1822
71329W        W14246  15.078  10.318  21.577 -0.2058  0.0084 -0.0573
71330W        W14247  16.370   8.722  20.556  0.2038 -0.0257 -0.1317
71331W        W14248  16.049   8.273  21.454  0.0519  0.0807 -0.2233
71332W        W14249  18.815  11.308  21.566  0.0874 -0.1377  0.0485
71333W        W14250  14.502  10.666  21.377  0.2829 -0.1142 -0.0090
71334W        W14251  14.857   7.731  21.578  0.0700 -0.0214  0.0147
71335W        W14252  16.077   7.176  22.964 -0.1591 -0.3148 -0.0192
71336W        W14253  15.529  10.993  22.152 -0.3750  0.1437  0.0140
71337W        W14254  17.073   9.304  21.491 -0.3276 -0.0441  0.3264
71338W        W14255  15.439   8.767  20.783  0.1444  0.2480 -0.3063
71339W        W14256  19.005  10.476  21.079 -0.3301 -0.1913 -0.1480
71340W        W14257  14.587  10.437  18.986  0.0597  0.0648  0.0428
71341W        W14258  13.732   7.820  21.399  0.1277 -0.1987  0.0339
71342W        W14259  13.799  10.460  21.644  0.2648  0.1194 -0.1237
71343W        W14260  17.527   7.170  22.257  0.1686  0.1456 -0.0275
71344W        W14261  13.931   7.896  24.669  0.0832 -0.2102  0.1908
71345W        W14262  16.367   7.682  23.172 -0.3405 -0.1521 -0.2436
71346W        W14263  13.477   9.682  21.972  0.0874  0.2511 -0.0606
71347W        W14264  14.078   9.198  23.345 -0.0989  0.1707  0.0780
71348W        W14265  16.679   5.286  21.381  0.0037  0.1149 -0.1060
71349W        W14266  17.382   8.634  20.240 -0.1270  0.4420 -0.2523
71350W        W14267  15.782   8.505  22.694 -0.0023 -0.3453  0.0706
71351W        W14268  17.778   9.414  20.470 -0.0296  0.3666 -0.0760
71352W        W14269  17.072   7.548  19.916 -0.0401  0.0613 -0.2563
71353W        W14270  14.719   8.545  21.085  0.1746  0.0267  0.0691
71354W        W14271  13.149   8.916  23.014  0.1126  0.1869 -0.1505
71355W        W14272  16.806   7.774  21.020 -0.1261 -0.1935 -0.0425
71356W        W14273  14.509   8.705  22.887  0.0943 -0.0169  0.3726
71357W        W14274  15.039   7.993  21.182 -0.0247  0.0622  0.4053
71358W        W14275  17.854  10.213  19.120 -0.1014 -0.1800 -0.1814
71359W        W14276  13.649   8.007  21.969  0.2339 -0.2540 -0.2347
71360W        W14277  15.400   9.944  22.555  0.0106  0.1387  0.0273
71361W        W14278  15.755  11.407  21.202  0.1140 -0.5384 -0.2365
71362W        W14279  14.125   8.246  21.366  0.4339 -0.0480  0.2751
71363W        W14280  14.176   9.246  20.843 -0.0634  0.1275 -0.1282
71364W        W14281  16.554   8.462  21.418 -0.2474  0.1222  0.0396
71365W        W14282  13.540  10.573  20.383 -0.2389  0.1369 -0.1781
71366W        W14283  17.480   6.332  21.545 -0.0129  0.0247  0.1036
71367W        W14284  15.977   6.821  23.294  0.0287  0.0717 -0.2070
71368W        W14285  13.215   8.004  21.043  0.1617  0.2322  0.0745
71369W        W14286  17.985   8.384  22.118  0.0130 -0.0788  0.4027
71370W        W14287  16.879   9.929  19.938  0.2987  0.1166 -0.1482
71371W        W14288  18.043   9.037  21.456 -0.1306  0.1971 -0.0602
71372W        W14289  14.005   7.766  20.511 -0.0063 -0.1367 -0.1349
71373W        W14290  16.678   8.837  22.393  0.3063 -0.1143 -0.1242
71374W        W14291  14.233   8.706  22.376 -0.0543  0.0825  0.2486
71375W        W14292  14.810   9.906  22.244 -0.0534 -0.0509  0.2778
71376W        W14293  16.522  11.671  22.056 -0.1901 -0.1404 -0.2190
71377W        W14294  16.297   8.193  20.211 -0.2425 -0.0699 -0.3461
71378W        W14295  16.881   9.299  22.108  0.0777  0.1144 -0.3185
71379W        W14296  15.680   6.076  20.021  0.1551 -0.0043  0.0438
71380W        W14297  15.229   9.670  19.080  0.2577  0.2600 -0.0631
71381W        W14298  13.955   8.331  15.992  0.0546 -0.0033 -0.1024
71382W        W14299  15.864   5.308  22.619  0.1799 -0.2725  0.1162
71383W        W14300  12.715   9.781  21.205 -0.2751  0.3724 -0.1074
71384W        W14301  16.289   9.687  18.328  0.1572  0.3258 -0.1152
71385W        W14302  17.308   9.028  21.880 -0.0392 -0.1658 -0.2707
71386W        W14303  14.031  10.997  21.157 -0.0343 -0.0517  0.2162
71387W        W14304  15.648   6.483  21.757 -0.0976 -0.3199 -0.3065
71388W        W14305  13.495   6.724  22.427  0.2807 -0.0178 -0.0654
71389W        W14306  14.554   8.898  20.735 -0.1977 -0.1613 -0.0739
71390W        W14307  12.687   7.756  19.322 -0.0242 -0.0225  0.2071
71391W        W14308  16.138   6.998  20.005 -0.0524  0.1378 -0.0746
71392W        W14309  16.619  10.398  20.001  0.1188  0.1480 -0.0571
71393W        W14310  12.934   6.233  22.333  0.2280  0.1653 -0.0677
71394W        W14311  15.870   4.917  23.313  0.0084  0.0252 -0.1162
71395W        W14312  15.415   8.957  22.834  0.1340  0.0997 -0.1474
71396W        W14313  16.204  10.627  22.223 -0.0597  0.1353 -0.2076
71397W        W14314  13.228   7.169  17.910 -0.0640  0.0210  0.1198
71398W        W14315  17.341   7.402  20.295 -0.1914 -0.1398 -0.0424
71399W        W14316  14.673   8.119  22.920 -0.1361 -0.0685 -0.2390
71400W        W14317  12.421   8.752  18.969 -0.0153  0.1166 -0.0162
71401W        W14318  16.531   7.768  21.983 -0.1470  0.0020  0.1865
71402W        W14319  14.733   5.852  23.232  0.2853 -0.0753  0.1982
71403W        W14320  13.727  11.445  21.353  0.1914  0.3077  0.3089
71404W        W14321  15.834   8.984  21.839  0.1250 -0.0288  0.2717
71405W        W14322  17.281   9.552  20.652 -0.3694 -0.0860 -0.1294
71406W        W14323  14.370   9.641  20.660 -0.0879 -0.1009 -0.2676
71407W        W14324  13.568   9.114  22.707  0.1052 -0.2218 -0.4928
71408W        W14325  17.022  10.927  23.266 -0.0257 -0.0575  0.0703
71409W        W14326  15.295   8.450  22.593  0.2205  0.0332 -0.1506
71410W        W14327  15.722   8.649  21.398  0.0923 -0.0128  0.2105
71411W        W14328  16.230   7.840  19.767 -0.0138  0.2390  0.1159
71412W        W14329  14.225   8.645  20.448  0.3369 -0.1409 -0.3062
71413W        W14330  15.738   7.937  21.900  0.0612 -0.0006  0.1328
71414W        W14331  13.254   7.688  23.590  0.1368  0.2640  0.1167
71415W        W14332  13.816   6.151  22.291 -0.1543  0.1708 -0.3013
71416W        W14333  19.120  10.010  17.698 -0.0319 -0.1755  0.1949
71417W        W14334  16.521   9.573  23.101  0.0400 -0.1002 -0.0738
71418W        W14335  16.247   9.174  19.681  0.0574  0.2367 -0.1131
71419W        W14336  15.056   7.160  21.727  0.1352 -0.1102 -0.0833
71420W        W14337  15.836   9.074  19.962 -0.1136  0.0148 -0.0730
71421W        W14338  14.520   5.698  21.246  0.1397  0.1663 -0.0978
71422W        W14339  14.368   7.798  21.459  0.3650 -0.2710  0.2982
71423W        W14340  18.178   9.203  20.200  0.0311  0.1305 -0.3931
71424W        W14341  14.141   8.056  21.851  0.1218  0.3957 -0.1689
71425W        W14342  15.953   7.050  19.402  0.1705 -0.1633 -0.1118
71426W        W14343  16.835  10.170  21.818  0.0341 -0.0397 -0.0486
71427W        W14344  14.896   5.981  21.308  0.1123  0.2221  0.0571
71428W        W14345  17.611   8.241  25.157  0.0960  0.2010  0.0614
71429W        W14346  15.387   7.608  21.776 -0.0227  0.1896 -0.1278
71430W        W14347  17.184   7.248  23.749 -0.2006 -0.3070 -0.0141
71431W        W14348  15.027   8.152  23.905 -0.0144  0.2310 -0.1928
71432W        W14349  18.334   8.161  21.078  0.0292 -0.3144 -0.0087
71433W        W14350  15.114   8.487  23.523 -0.1647 -0.0036 -0.0836
71434W        W14351  17.798  10.760  23.517 -0.0543  0.3751  0.0673
71435W        W14352  14.731  10.030  23.455  0.2048 -0.0562  0.1149
71436W        W14353  15.647   6.626  21.252  0.3392  0.1528 -0.1670
71437W        W14354  14.803   7.042  19.027 -0.0070 -0.2484  0.3681
71438W        W14355  16.308  10.071  24.090 -0.1411 -0.3092 -0.0162
71439W        W14356  17.164  10.348  21.293 -0.1185  0.0234 -0.1940
71440W        W14357  15.768   9.713  19.115 -0.0561  0.2473  0.1457
71441W        W14358  18.477   5.997  21.828 -0.0187 -0.0391 -0.1775
71442W        W14359  14.436   9.182  21.779 -0.0001 -0.0558 -0.2806
71443W        W14360  19.393   7.063  21.231  0.1761  0.1753 -0.1750
71444W        W14361  15.388   9.405  20.026 -0.0521 -0.2130  0.3553
71445W        W14362  13.798  11.535  20.531  0.1127 -0.3146  0.1460
71446W        W14363  13.814   5.752  23.000 -0.0084  0.1152  0.0084
71447W        W14364  16.562   7.852  21.493 -0.4867  0.0171 -0.1589
71448W        W14365  16.461   6.421  21.240 -0.0638  0.2101 -0.1698
71449W        W14366  17.676   8.238  22.821 -0.0385 -0.1261  0.1091
71450W        W14367  17.685   8.930  22.190 -0.1435  0.2837  0.0954
71451W        W14368  14.528   7.944  25.503 -0.0913 -0.1685  0.0398
71452W        W14369  13.976   7.154  23.892  0.0079  0.0550  0.3241
71453W        W14370  18.141   8.737  21.827 -0.0365 -0.1232 -0.0363
71454W        W14371  17.363   9.322  19.217 -0.0814 -0.3463 -0.3430
71455W        W14372  17.451   8.095  21.563 -0.0719 -0.3814 -0.2869
71456W        W14373  18.523   9.608  20.505 -0.2086 -0.2224 -0.2161
71457W        W14374  16.433   8.801  19.340 -0.2741 -0.3237 -0.4571
71458W        W14375  14.452   7.236  22.970  0.1057 -0.0370 -0.1599
71459W        W14376  17.622   9.401  23.093  0.1991  0.1377  0.2458
71460W        W14377  15.672   9.077  18.703  0.2158  0.2760 -0.4175
71461W        W14378  15.563   9.254  23.326 -0.3066  0.5081  0.0333
71462W        W14379  14.251  10.193  21.589 -0.0012  0.1890  0.2882
71463W        W14380  16.313   8.771  19.970  0.0013  0.0248  0.0821
71464W        W14381  15.270   9.206  20.745  0.0466 -0.1147  0.1327
71465W        W14382  15.145   7.413  22.555 -0.1399  0.2596  0.4286
71466W        W14383  13.886   7.853  22.544 -0.1472  0.2150  0.0707
71467W        W14384  14.937   8.971  20.997  0.1256  0.1962 -0.6449
71468W        W14385  15.099   8.725  19.880  0.3164 -0.0338  0.0521
71469W        W14386  15.607  10.034  21.429  0.1100  0.1054  0.2757
71470W        W14387  16.312   8.821  21.659 -0.5689 -0.3136  0.0299
71471W        W14388  16.866   6.124  18.926 -0.0654  0.1159 -0.1374
71472W        W14389  18.501   8.074  23.904 -0.0289  0.3033 -0.3978
71473W        W14390  14.640   8.918  22.147  0.0059  0.0699  0.1131
71474W        W14391  18.796   7.008  21.386 -0.2857  0.0888  0.0843
71475W        W14392  15.539  10.425  22.814  0.0930 -0.0628 -0.1367
71476W        W14393  12.976   8.169  22.637  0.2455 -0.0319  0.1983
71477W        W14394  13.028  13.105  19.557  0.1923  0.0912  0.0481
71478W        W14395  17.661   7.611  21.530 -0.2629  0.2322  0.2708
71479W        W14396  15.660   7.070  20.979  0.1510 -0.3881  0.1044
71480W        W14397  17.036   9.981  20.857 -0.2597 -0.1467  0.5467
71481W        W14398  15.507  10.433  22.317  0.1218  0.2033 -0.1503
71482W        W14399  16.186   8.814  22.175  0.0278 -0.1264 -0.1635
71483W        W14400  14.881   9.574  23.183 -0.0740 -0.3215  0.2573
71484W        W14401  16.594   9.285  21.704  0.1390 -0.2361  0.1075
71485W        W14402  18.148  10.678  21.049 -0.3029 -0.3628  0.1693
71486W        W14403  14.178  10.552  21.921  0.1206  0.0985 -0.2044
71487W        W14404  13.565   5.725  22.439 -0.2201  0.0596 -0.1979
71488W        W14405  13.780   7.355  22.216  0.0624 -0.1232 -0.3228
71489W        W14406  17.852   9.521  21.388  0.0135 -0.1798  0.0137
71490W        W14407  15.328   6.264  18.113 -0.1327 -0.0370 -0.0179
71491W        W14408  16.434   9.142  20.271 -0.1269 -0.0274 -0.0270
71492W        W14409  13.660   9.469  23.672  0.0205  0.1952  0.0665
71493W        W14410  14.745   8.521  22.523 -0.2998  0.0107  0.1259
71494W        W14411  14.088  10.989  20.632  0.0422  0.1290  0.1932
71495W        W14412  15.214   9.613  22.135  0.3569 -0.1924  0.1271
71496W        W14413  15.937   8.784  19.580 -0.3827 -0.3429 -0.1595
71497W        W14414  16.900   9.449  20.985 -0.0529  0.0544  0.0168
71498W        W14415  16.666   7.670  19.540  0.1468 -0.0251  0.1206
71499W        W14416  14.473   9.414  22.687 -0.1847 -0.3504  0.0920
71500W        W14417  12.863  10.079  19.254  0.1157  0.0605 -0.0183
71501W        W14418  15.634   8.916  17.946 -0.1235  0.1830  0.2675
71502W        W14419  16.129  10.404  20.511 -0.4243  0.1584 -0.1777
71503W        W14420  16.706  10.912  23.747  0.4856 -0.0295 -0.1927
71504W        W14421  14.552   8.035  17.398 -0.3444 -0.1701  0.0387
71505W        W14422  17.529   8.896  22.681 -0.0666  0.3975 -0.0430
71506W        W14423  16.374   7.040  21.939 -0.3966  0.0281 -0.0078
71507W        W14424  16.372   9.630  23.781  0.3913 -0.3115 -0.2790
71508W        W14425  15.000   8.634  22.936  0.0231  0.3577  0.2655
71509W        W14426  14.510   4.539  21.153  0.0704  0.2422  0.3710
71510W        W14427  14.458   6.802  22.356  0.0419  0.0398  0.0782
71511W        W14428  17.137   7.257  22.693  0.0728  0.0134 -0.0896
71512W        W14429  14.083   8.355  24.405  0.2084  0.2078 -0.1417
71513W        W14430  15.052  10.879  20.807  0.0553  0.3501  0.2269
71514W        W14431  15.454   8.167  20.892  0.0082  0.0298 -0.0396
71515W        W14432  17.106   8.251  20.819 -0.2017  0.0704 -0.1383
71516W        W14433  18.278   6.383  20.634 -0.1140 -0.0791 -0.2065
71517W        W14434  15.567   8.585  19.852 -0.0857 -0.3168  0.0112
71518W        W14435  15.021   8.466  22.079 -0.1659  0.2351 -0.1194
71519W        W14436  14.740   9.393  22.275  0.0607 -0.0992 -0.0754
71520W        W14437  15.348   7.889  22.669 -0.0858 -0.2545  0.2386
71521W        W14438  17.168  10.349  22.967  0.5560  0.1978 -0.0283
71522W        W14439  12.431   8.302  21.825  0.0560 -0.1063  0.3202
71523W        W14440  18.324   7.109  21.961  0.0778  0.1086  0.3554
71524W        W14441  12.861   8.103  23.700  0.0032  0.1881  0.0974
71525W        W14442  17.714   7.939  24.288 -0.0655 -0.0909  0.0480
71526W        W14443  15.378   7.294  23.979  0.0288 -0.3247  0.2127
71527W        W14444  16.577   8.253  20.638  0.1047 -0.1840 -0.1748
71528W        W14445  16.109   9.923  22.060 -0.3454 -0.1725  0.2178
71529W        W14446  17.006   8.127  23.293  0.3251  0.1448 -0.0746
71530W        W14447  16.182   9.529  20.502  0.1459  0.3338 -0.0393
71531W        W14448  16.369   9.249  22.276  0.1163  0.4111 -0.0080
71532W        W14449  16.023   9.454  18.708 -0.2979 -0.2910 -0.0398
71533W        W14450  19.776   9.710  23.392  0.4181 -0.1072 -0.0562
71534W        W14451  13.655   6.984  20.152 -0.1907 -0.0265  0.0336
71535W        W14452  15.957   7.002  18.773 -0.1787  0.1390  0.0248
71536W        W14453  13.931   9.029  20.500  0.0752 -0.1808 -0.0783
71537W        W14454  15.511   9.790  23.371 -0.0834 -0.1547 -0.0453
71538W        W14455  16.336   9.276  22.743 -0.1301  0.1035 -0.0223
71539W        W14456  15.310   8.145  19.785  0.2370 -0.2546  0.0254
71540W        W14457  19.290  12.198  21.644 -0.1368  0.1476 -0.2858
71541W        W14458  17.095   9.808  22.132  0.0454  0.0729  0.1062
71542W        W14459  14.960   9.717  19.845  0.1328 -0.1680 -0.1749
71543W        W14460  16.771   8.603  20.951 -0.1671 -0.4495 -0.0125
71544W        W14461  15.891   8.364  23.451 -0.2404 -0.2478 -0.0036
71545W        W14462  14.385   8.151  22.362 -0.0099  0.2362 -0.3115
71546W        W14463  15.877   9.383  22.164 -0.0244  0.1223  0.0196
71547W        W14464  18.160  10.194  22.008  0.3185  0.0930 -0.0395
71548W        W14465  15.534   5.597  19.528  0.0501 -0.3670  0.1536
71549W        W14466  14.564   7.289  21.692 -0.0725  0.0160 -0.0660
71550W        W14467  14.664   9.792  20.270  0.4086 -0.2964  0.1351
71551W        W14468  16.778   7.299  21.725  0.0909  0.1624 -0.0364
71552W        W14469  16.117   9.154  23.979  0.1284 -0.1055 -0.1158
71553W        W14470  14.720   9.694  21.738 -0.1482  0.1100 -0.1951
71554W        W14471  16.931   7.780  24.786  0.2185 -0.3881 -0.2750
71555W        W14472  14.948   9.170  23.632 -0.2611 -0.1974 -0.0820
71556W        W14473  15.149   9.380  22.588  0.1080 -0.3607 -0.0743
71557W        W14474  15.704  10.280  21.908 -0.1275 -0.1285 -0.3874
71558W        W14475  13.226   7.968  24.060 -0.0843  0.0532  0.1134
71559W        W14476  14.755   8.205  21.489 -0.0823 -0.1900  0.3369
71560W        W14477  15.344   9.062  21.241 -0.0496 -0.1953  0.1919
71561W        W14478  17.513  11.759  20.949  0.0030 -0.1965 -0.3046
71562W        W14479  17.034   5.652  20.732  0.1334 -0.4183 -0.1126
71563W        W14480  18.667  10.080  21.305 -0.1755 -0.1399 -0.2186
71564W        W14481  14.958   6.956  23.828  0.0311 -0.0377  0.1255
71565W        W14482  20.202   7.710  19.966 -0.1512 -0.1899 -0.1377
71566W        W14483  16.337   6.522  19.959 -0.0825 -0.2303 -0.2770
71567W        W14484  15.619   7.443  22.783 -0.0156 -0.1765 -0.2981
71568W        W14485  13.844   8.907  19.480 -0.3067 -0.0348 -0.4988
71569W        W14486  14.435   8.480  18.555  0.0856 -0.1325 -0.2500
71570W        W14487  14.107   9.530  21.912 -0.0539  0.0875  0.2398
71571W        W14488  16.005   7.768  21.556  0.0920  0.0080 -0.0024
71572W        W14489  14.628   8.392  23.311  0.0424 -0.1184 -0.0193
71573W        W14490  14.786   8.046  22.021  0.0018  0.2658  0.5230
71574W        W14491  12.302   7.005  18.891  0.0549  0.3565  0.4132
71575W        W14492  17.823   8.666  21.222 -0.0188  0.2109 -0.0059
71576W        W14493  14.190   6.002  23.269 -0.3526 -0.2862 -0.0356
71577W        W14494  13.278   7.456  21.169  0.0803 -0.3072  0.0550
71578W        W14495  16.454   9.868  21.559  0.3390  0.1558 -0.1983
71579W        W14496  17.942   9.840  22.608  0.0585 -0.3202 -0.0253
71580W        W14497  15.665   8.344  19.461 -0.1980 -0.1198 -0.1857
71581W        W14498  17.861  11.051  22.995 -0.0422  0.2913  0.0771
71582W        W14499  14.619   8.383  20.422 -0.1767  0.1879  0.1884
71583W        W14500  16.206   9.199  23.380  0.1388 -0.0114  0.0124
71584W        W14501  15.589   6.586  24.220 -0.0419 -0.0316 -0.1061
71585W        W14502  14.268   6.989  20.760  0.2086 -0.0483 -0.1264
71586W        W14503  16.361   8.753  23.289  0.1734  0.2267  0.2922
71587W        W14504  15.883   9.411  20.934  0.0023  0.0960 -0.1635
71588W        W14505  18.522   9.105  18.678 -0.1619 -0.1791  0.1718
71589W        W14506  14.884  10.053  23.970  0.0453  0.0814 -0.2399
71590W        W14507  14.154   8.175  23.389 -0.0985 -0.2142 -0.3466
71591W        W14508  13.604   5.261  22.542 -0.0492  0.0034  0.0386
71592W        W14509  16.342   8.268  21.924 -0.0282  0.0640  0.2895
71593W        W14510  16.181   8.613  24.216 -0.0218  0.4523 -0.0161
71594W        W14511  18.292  11.499  20.632  0.0824  0.0920  0.1819
71595W        W14512  16.976   6.222  21.531  0.1565 -0.1271 -0.2271
71596W        W14513  16.133   9.756  22.699 -0.0318 -0.4022 -0.1296
71597W        W14514  15.576   6.232  22.803 -0.0897 -0.0233 -0.0677
71598W        W14515  16.241   8.794  24.792  0.0918  0.1736  0.3798
71599W        W14516  19.556   9.896  22.026  0.1176 -0.2972 -0.0423
71600W        W14517  15.799   8.072  22.390  0.1072  0.3652  0.1494
71601W        W14518  18.579   8.572  21.034 -0.3130 -0.0587  0.3070
71602W        W14519  19.051   7.803  19.676  0.3068 -0.0449 -0.1006
71603W        W14520  14.887   7.898  22.526 -0.0526 -0.0314 -0.0098
71604W        W14521  16.739   6.846  20.997 -0.0386 -0.2233  0.0351
71605W        W14522  15.566   7.625  22.271 -0.1058 -0.2028 -0.2548
71606W        W14523  14.651   9.009  23.220 -0.1004  0.1239 -0.2246
71607W        W14524  17.719  11.908  22.380 -0.0453 -0.0954  0.1182
71608W        W14525  16.675   9.699  20.547 -0.1076 -0.1932  0.0195
71609W        W14526  18.297   6.920  21.300 -0.1307  0.2651  0.4205
71610W        W14527  17.160  10.829  21.784 -0.3002 -0.0300  0.0495
71611W        W14528  17.989   9.054  23.044  0.1714 -0.0306 -0.0557
71612W        W14529  17.569  11.427  20.163  0.0787  0.0072  0.0697
71613W        W14530  16.633   8.140  25.006 -0.0752 -0.0733  0.1193
71614W        W14531  12.694   5.416  22.328  0.7520  0.2586 -0.1050
71615W        W14532  15.929   8.587  20.278  0.0985 -0.1097 -0.2428
71616W        W14533  14.092   9.802  21.340  0.3522  0.0584 -0.0627
71617W        W14534  17.508   8.239  23.281  0.0314 -0.2656 -0.0658
71618W        W14535  14.667   8.115  19.447  0.0639  0.0260  0.0864
71619W        W14536  17.989   7.696  21.180 -0.3098  0.0653  0.1011
71620W        W14537  15.534  11.769  22.638  0.1088  0.1724 -0.1830
71621W        W14538  16.293   9.371  21.244  0.6447  0.2400 -0.4827
71622W        W14539  14.984   9.436  27.678 -0.2879 -0.0307 -0.0187
71623W        W14540  17.198   9.772  24.992 -0.1866 -0.0990  0.1253
71624W        W14541  18.027   8.154  23.269  0.1196  0.2100 -0.2536
71625W        W14542  17.433   8.353  24.363  0.2417  0.0471  0.0019
71626W        W14543  15.694   8.943  24.655  0.0084 -0.0339  0.1814
71627W        W14544  15.779  10.141  24.300  0.2843 -0.1536 -0.1235
71628W        W14545  14.373   7.401  26.168  0.0203  0.0102 -0.1164
71629W        W14546  18.083  10.571  25.130 -0.2699 -0.3291  0.1040
71630W        W14547  17.457  10.672  25.070 -0.1480 -0.3180  0.0897
71631W        W14548  14.598   7.085  21.168  0.1770  0.2683 -0.1651
71632W        W14549  14.880   6.493  26.866 -0.1636 -0.2783 -0.1051
71633W        W14550  14.932  10.526  26.107  0.2056 -0.1848 -0.0905
71634W        W14551  15.023   5.929  23.917  0.3209 -0.0861  0.0227
71635W        W14552  16.209   6.963  24.457  0.2520  0.3263  0.3444
71636W        W14553  17.255   8.731  24.645 -0.2991  0.5533 -0.2724
71637W        W14554  13.771   8.014  24.199 -0.3184  0.2166 -0.0178
71638W        W14555  15.698   8.238  26.042  0.0709 -0.1263 -0.0596
71639W        W14556  15.004   8.137  24.643  0.1251  0.0671  0.0114
71640W        W14557  16.371  10.604  23.379  0.2560 -0.1020  0.1251
71641W        W14558  15.106   8.060  25.591 -0.2613 -0.0979 -0.0288
71642W        W14559  17.092   7.750  27.003 -0.0118 -0.1617 -0.1238
71643W        W14560  14.994   7.673  22.956 -0.3726  0.1668  0.0475
71644W        W14561  15.036   6.177  23.440 -0.0688 -0.0022 -0.1505
71645W        W14562  14.302   9.498  24.758 -0.1948  0.0960  0.0252
71646W        W14563  16.471   9.207  26.564  0.0908  0.0168 -0.0723
71647W        W14564  16.622   7.680  25.355  0.1351 -0.4425  0.0662
71648W        W14565  16.429   8.544  25.155  0.1498  0.2170  0.3515
71649W        W14566  17.917   9.411  23.547  0.1715 -0.3847  0.0189
71650W        W14567  16.322  12.598  23.309 -0.1670 -0.1286  0.1155
71651W        W14568  17.737   7.841  28.523  0.0605  0.2116  0.1263
71652W        W14569  11.906   9.647  22.442 -0.0437 -0.1279  0.3108
71653W        W14570  16.142  10.193  23.002 -0.0597  0.0496 -0.0216
71654W        W14571  15.256   8.936  24.423 -0.3594  0.3373  0.3110
71655W        W14572  17.903  12.082  24.967 -0.1459 -0.0721 -0.1192
71656W        W14573  16.797  12.470  24.290 -0.0468  0.3043  0.1148
71657W        W14574  15.019  10.586  25.453 -0.1625  0.0988  0.1822
71658W        W14575  13.056   9.226  23.912 -0.0130  0.1135 -0.3634
71659W        W14576  15.906  10.323  27.021 -0.1321 -0.0421 -0.0467
71660W        W14577  15.266   7.220  25.577 -0.0881 -0.0231  0.0676
71661W        W14578  15.643   6.630  26.119 -0.0848  0.1033 -0.1235
71662W        W14579  16.484   7.051  26.090  0.0715  0.2432  0.1786
71663W        W14580  17.433   9.679  23.530  0.0823 -0.2414  0.1973
71664W        W14581  14.443   9.920  23.828 -0.1578 -0.1681 -0.0070
71665W        W14582  15.560  10.000  27.143 -0.0617  0.0061  0.1318
71666W        W14583  14.536   8.944  23.696  0.0304  0.0605 -0.5152
71667W        W14584  17.184   6.842  28.226  0.0350 -0.1036 -0.1804
71668W        W14585  16.359  12.801  21.313 -0.0548 -0.2451 -0.0384
71669W        W14586  16.552  10.560  22.867 -0.0472 -0.2410  0.1923
71670W        W14587  14.469   7.049  23.859 -0.2236  0.0929  0.1334
71671W        W14588  16.570   8.900  24.418  0.0220 -0.0702 -0.3982
71672W        W14589  15.224   5.116  25.989 -0.0439 -0.0707  0.3007
71673W        W14590  15.982  10.805  25.197  0.1322 -0.0134  0.1003
71674W        W14591  15.400  10.444  25.076 -0.0742 -0.3249 -0.1780
71675W        W14592  16.981   9.234  27.787 -0.3853 -0.1923  0.2975
71676W        W14593  15.635   6.768  22.981 -0.2135 -0.2435  0.1181
71677W        W14594  15.857   7.721  25.051  0.0993 -0.0335 -0.2324
71678W        W14595  15.449  10.861  25.349 -0.1137 -0.0336 -0.0979
71679W        W14596  14.435  10.236  26.005  0.0832 -0.1054 -0.0532
71680W        W14597  17.775  10.653  24.045 -0.0577  0.1476  0.0839
71681W        W14598  19.045  10.316  25.761 -0.0815 -0.2612  0.1310
71682W        W14599  18.228  10.796  23.315 -0.2919 -0.2425  0.1240
71683W        W14600  15.399   7.712  25.294  0.3665 -0.0139 -0.3599
71684W        W14601  13.978   8.502  26.738  0.0052 -0.2587  0.2531
71685W        W14602  13.804   9.007  25.376  0.1630 -0.0301  0.4643
71686W        W14603  15.492   8.370  23.817 -0.1365 -0.2227 -0.0376
71687W        W14604  17.300  11.996  25.439  0.1762  0.1262  0.2505
71688W        W14605  13.807   9.122  27.978  0.0350 -0.1448 -0.1073
71689W        W14606  16.067   7.010  26.718 -0.0002 -0.2725 -0.1773
71690W        W14607  14.413   7.517  24.002  0.1702 -0.0089  0.0165
71691W        W14608  16.553  10.520  23.995 -0.0996  0.0652  0.0129
71692W        W14609  17.748  11.686  25.452  0.1272 -0.3170 -0.1670
71693W        W14610  17.830   8.600  23.084 -0.3768 -0.1452  0.0083
71694W        W14611  16.248   7.164  25.667 -0.1345  0.1466  0.1311
71695W        W14612  16.918  11.181  25.079 -0.0316 -0.0682  0.2514
71696W        W14613  15.125   8.192  23.034  0.0059  0.1702 -0.0964
71697W        W14614  17.802  12.583  25.814  0.1969  0.0189  0.1627
71698W        W14615  17.142   9.003  21.050  0.2265  0.2593 -0.1580
71699W        W14616  14.076   8.739  24.054  0.0996  0.3078  0.3222
71700W        W14617  15.928  10.320  24.772  0.0810  0.1124 -0.0609
71701W        W14618  16.158  10.082  25.104 -0.3521  0.4159  0.0376
71702W        W14619  15.188   8.944  23.280  0.0238 -0.0443  0.0072
71703W        W14620  14.348   6.609  26.108 -0.0713  0.0243 -0.0488
71704W        W14621  14.592   9.506  23.566  0.1145 -0.1727 -0.0281
71705W        W14622  13.278   6.698  26.211  0.0818 -0.1599 -0.1473
71706W        W14623  13.971   6.901  26.390 -0.0407 -0.0914 -0.0605
71707W        W14624  16.927   9.548  22.613  0.2385 -0.2334  0.1674
71708W        W14625  14.379   7.231  27.221 -0.0672  0.0211  0.2473
71709W        W14626  17.133   6.864  22.343  0.1290  0.0644 -0.2128
71710W        W14627  13.177   9.765  23.905 -0.0235  0.0336 -0.1871
71711W        W14628  18.811  11.103  24.788  0.0151  0.1836  0.2094
71712W        W14629  17.733   9.774  23.936  0.0922 -0.1770  0.4480
71713W        W14630  18.264  10.241  23.333 -0.0830  0.0115  0.0498
71714W        W14631  13.121  10.066  24.576 -0.1271 -0.0735 -0.0881
71715W        W14632  18.107   8.665  25.431  0.0404 -0.1661  0.1874
71716W        W14633  16.204   7.843  26.697  0.0305 -0.3340  0.1698
71717W        W14634  14.596   6.074  24.821 -0.1661  0.1624  0.0336
71718W        W14635  17.020   8.039  25.917 -0.3124 -0.1316 -0.1083
71719W        W14636  15.991   7.563  24.158  0.0833  0.3492  0.0908
71720W        W14637  16.441   7.465  22.632 -0.2265  0.0373  0.0099
71721W        W14638  15.358   8.427  25.733  0.2661  0.2030 -0.3668
71722W        W14639  12.478   9.330  24.117 -0.1219 -0.2728 -0.0767
71723W        W14640  18.927   7.917  26.863  0.2328  0.1596 -0.1142
71724W        W14641  16.623  11.505  22.753 -0.2283 -0.0952 -0.0805
71725W        W14642  20.045  12.555  25.085  0.2211 -0.0966  0.2445
71726W        W14643  16.953  11.338  24.561 -0.2463 -0.0723  0.1773
71727W        W14644  15.661   7.922  25.669 -0.0033  0.0134  0.1338
71728W        W14645  15.403   6.364  24.605  0.3770 -0.1528 -0.5090
71729W        W14646  16.055  10.888  24.692  0.2161 -0.0551  0.2214
71730W        W14647  14.946  10.109  25.815  0.2581  0.0488 -0.0076
71731W        W14648  16.942   6.113  24.064 -0.0900  0.0162  0.0013
71732W        W14649  16.474  13.356  25.619 -0.1701 -0.0797  0.4069
71733W        W14650  16.921  10.085  24.333 -0.1217 -0.1560 -0.1840
71734W        W14651  15.614   8.161  25.201 -0.0680  0.0169 -0.0968
71735W        W14652  16.445   9.085  29.538 -0.3392 -0.1050 -0.0785
71736W        W14653  15.726   7.225  25.212 -0.4714  0.1116 -0.2966
71737W        W14654  19.188   9.512  25.232 -0.1395  0.0341  0.1806
71738W        W14655  15.655   5.388  25.978 -0.0899 -0.3396  0.0942
71739W        W14656  17.177  11.416  23.690 -0.0669  0.0320  0.0863
71740W        W14657  13.445   8.875  23.662 -0.1885 -0.0692 -0.0317
71741W        W14658  13.154   8.484  23.455 -0.0270  0.4131 -0.1272
71742W        W14659  16.373  10.473  24.985 -0.0037  0.0896 -0.1327
71743W        W14660  16.145   6.718  26.332 -0.0198 -0.3861 -0.0483
71744W        W14661  14.562  10.517  27.086  0.1138  0.0623  0.1820
71745W        W14662  17.063   9.162  24.909 -0.2139 -0.4123  0.0713
71746W        W14663  16.032  10.460  23.792 -0.0839  0.0033 -0.0084
71747W        W14664  13.741  10.037  25.058  0.0176 -0.0833  0.3237
71748W        W14665  16.579   6.838  26.530 -0.1455  0.5267 -0.1813
71749W        W14666  17.357   9.297  22.327 -0.2592  0.0182 -0.1769
71750W        W14667  15.196   8.856  26.814 -0.0568  0.1597 -0.0516
71751W        W14668  19.843   9.286  24.407  0.2683  0.1410  0.3133
71752W        W14669  15.163   7.189  23.017  0.0919  0.3010  0.2130
71753W        W14670  14.909   6.481  24.708 -0.3056  0.1389 -0.0417
71754W        W14671  13.920   9.777  26.573  0.2236 -0.1998 -0.2806
71755W        W14672  16.384  13.234  23.030  0.0595  0.2562 -0.0421
71756W        W14673  15.098   9.397  24.314 -0.0221  0.1831 -0.0235
71757W        W14674  15.677   8.986  24.035 -0.1115  0.0822 -0.2349
71758W        W14675  17.045  10.459  23.469  0.4453 -0.0327  0.0400
71759W        W14676  14.585   9.799  25.559 -0.0075  0.1535 -0.2367
71760W        W14677  17.208  10.983  26.406 -0.1495 -0.2826 -0.1296
71761W        W14678  18.230   9.883  23.781  0.3677  0.2573 -0.1417
71762W        W14679  16.128   8.270  26.376  0.1309 -0.0866 -0.0985
71763W        W14680  15.819   7.645  23.204 -0.0460  0.0700  0.0901
71764W        W14681  16.220   7.965  24.738  0.3657  0.0387  0.0203
71765W        W14682  13.046   9.986  22.106 -0.4844 -0.0364  0.0144
71766W        W14683  17.374   8.353  25.695 -0.1405 -0.0019 -0.1271
71767W        W14684  16.424   7.381  27.566  0.1389 -0.2761  0.0118
71768W        W14685  15.770   5.795  25.544 -0.1303  0.1226 -0.2901
71769W        W14686  19.715   9.302  27.123 -0.3639 -0.1792 -0.0726
71770W        W14687  17.367   9.837  23.000 -0.0101  0.2517  0.2097
71771W        W14688  16.124   9.051  25.746  0.0295 -0.0464  0.0066
71772W        W14689  16.714   7.808  23.585  0.0389  0.1091  0.0656
71773W        W14690  16.215  10.549  24.398 -0.1071 -0.2436  0.1035
71774W        W14691  14.242   7.958  25.090  0.0463  0.2400  0.1573
71775W        W14692  13.667  10.779  25.313  0.0882 -0.0535 -0.0723
71776W        W14693  16.233  11.729  25.600  0.0353 -0.2149  0.1533
71777W        W14694  16.534  10.912  22.471 -0.2441  0.1645 -0.1385
71778W        W14695  15.952   8.117  24.109 -0.1975 -0.1663 -0.0694
71779W        W14696  15.352   9.300  23.882 -0.0796  0.0974 -0.1092
71780W        W14697  15.706  11.317  23.862  0.6501  0.1511 -0.1092
71781W        W14698  15.189   8.455  21.220 -0.0267 -0.1361 -0.0446
71782W        W14699  14.481   6.288  25.338  0.1968  0.0274  0.2317
71783W        W14700  18.377  10.788  24.722 -0.2566  0.2594 -0.0341
71784W        W14701  15.923  10.276  22.477 -0.0333  0.1026  0.0643
71785W        W14702  16.762  10.394  25.854  0.1498  0.0813  0.0221
71786W        W14703  13.659   8.716  22.288 -0.1638 -0.3682 -0.2583
71787W        W14704  15.605   7.328  24.563  0.0673 -0.2746  0.3555
71788W        W14705  15.920   8.351  24.553 -0.0268 -0.0475  0.0471
71789W        W14706  14.546   8.935  25.025  0.0610 -0.0902 -0.2428
71790W        W14707  11.009   7.318  22.713 -0.0843 -0.1479 -0.4379
71791W        W14708  16.528   8.700  23.891  0.0812  0.1085 -0.4319
71792W        W14709  17.370  10.537  22.580  0.3375  0.1694 -0.0724
71793W        W14710  14.012   5.877  26.052 -0.2243 -0.0274 -0.3324
71794W        W14711  17.186   7.927  24.327  0.0642  0.2691  0.0850
71795W        W14712  14.143  11.007  27.541 -0.0918  0.4022 -0.1830
71796W        W14713  17.584   8.913  26.086  0.1597  0.0971 -0.1454
71797W        W14714  17.135   7.052  23.157  0.1356 -0.0631 -0.2050
71798W        W14715  16.567  10.942  24.760  0.1643  0.0707  0.0791
71799W        W14716  15.086   8.533  27.476 -0.0748 -0.0846  0.0232
71800W        W14717  13.825   8.756  24.506 -0.1183 -0.1590  0.1118
71801W        W14718  15.803   9.139  26.170 -0.0381 -0.1387  0.0080
71802W        W14719  14.711   6.789  23.413  0.1335  0.0900 -0.0580
71803W        W14720  15.187  10.240  23.508  0.3549  0.0796  0.1084
71804W        W14721  15.120   9.687  23.711  0.1598  0.1909 -0.0337
71805W        W14722  17.776   8.970  23.766  0.1717  0.1757  0.0476
71806W        W14723  16.080   9.752  23.316  0.0381  0.0308  0.3488
71807W        W14724  15.501   7.833  26.170 -0.0526 -0.0095 -0.2534
71808W        W14725  17.281  10.234  24.720 -0.0618 -0.0771 -0.3402
71809W        W14726  16.165   7.050  25.012  0.1548 -0.1801  0.1223
71810W        W14727  16.029   8.744  23.742 -0.3430  0.2356 -0.1256
71811W        W14728  15.591   6.866  24.756 -0.1809 -0.3281 -0.2021
71812W        W14729  17.341   9.403  25.333  0.0629 -0.0645 -0.1159
71813W        W14730  15.474   8.461  24.787 -0.3890 -0.2048  0.1457
71814W        W14731  18.307   8.760  30.322  0.0761 -0.0425 -0.0189
71815W        W14732  16.846   6.339  27.385  0.1004 -0.3213 -0.0649
71816W        W14733  17.266  10.911  23.669 -0.3033  0.2824  0.1986
71817W        W14734  15.377   6.684  25.422  0.1568 -0.0524 -0.4022
71818W        W14735  13.941   8.823  23.609  0.0044 -0.2295 -0.1349
71819W        W14736  13.679   8.385  25.994 -0.0344 -0.4590  0.0227
71820W        W14737  15.178   9.116  25.532  0.2111  0.2867  0.1184
71821W        W14738  15.076   8.481  24.315  0.0466 -0.0803 -0.0725
71822W        W14739  15.516   9.870  23.948  0.4298  0.0479 -0.2711
71823W        W14740  17.654  10.211  22.789 -0.2001  0.0177  0.0224
71824W        W14741  14.703   9.144  24.594  0.0344  0.0762 -0.2286
71825W        W14742  17.164   7.583  23.352  0.0337 -0.1394 -0.0745
71826W        W14743  16.853   9.561  23.694  0.2501 -0.1034  0.4831
71827W        W14744  16.999   7.438  24.456 -0.1484  0.0680 -0.0490
71828W        W14745  17.475   6.664  26.255 -0.1328  0.3360  0.0865
71829W        W14746  15.510   9.547  26.865 -0.1307  0.1027  0.1937
71830W        W14747  14.862   8.462  26.444  0.0072 -0.4523  0.0516
71831W        W14748  16.176   7.548  25.360  0.0284  0.1798 -0.1882
71832W        W14749  16.624   8.167  25.522  0.2418  0.2192 -0.0131
71833W        W14750  16.479   6.042  27.599  0.0555  0.1098 -0.2172
71834W        W14751  15.634  11.700  28.101 -0.0233 -0.2820  0.3600
71835W        W14752  15.161   7.752  28.792 -0.1661 -0.0955 -0.0615
71836W        W14753  15.911   6.088  25.054  0.0618  0.2243 -0.1087
71837W        W14754  15.752   7.055  24.196 -0.0286  0.3143  0.0179
71838W        W14755  14.328   8.772  26.543  0.1408 -0.2328  0.3202
71839W        W14756  16.504  10.264  26.259  0.0633  0.1613  0.2257
71840W        W14757  17.191   8.403  21.982 -0.0577  0.0108 -0.0952
71841W        W14758  17.478   8.819  24.144  0.2596 -0.1740 -0.2183
71842W        W14759  14.923   9.555  24.794 -0.3667 -0.0828 -0.2446
71843W        W14760  15.883   9.403  22.994  0.0664  0.3142 -0.1367
71844W        W14761  16.679   9.074  21.199  0.1652  0.0556 -0.0683
71845W        W14762  16.039   9.271  24.961 -0.0588  0.0468  0.0523
71846W        W14763  16.476   5.982  27.048 -0.0607 -0.0217  0.0412
71847W        W14764  17.595   9.915  25.565  0.1514 -0.1638  0.0582
71848W        W14765  16.297   8.498  25.639 -0.2617 -0.0780  0.1077
71849W        W14766  17.560   9.116  24.588  0.0755 -0.2497  0.1151
71850W        W14767  16.177   6.361  27.374  0.3258  0.0893  0.2614
71851W        W14768  16.841   8.561  25.702  0.0661 -0.0127 -0.3026
71852W        W14769  16.270   6.470  26.817  0.1779  0.1333  0.0405
71853W        W14770  17.377  11.917  26.371  0.0337 -0.2446 -0.1695
71854W        W14771  18.379   8.064  22.448  0.0103 -0.2424  0.2900
71855W        W14772  17.940   8.087  28.118 -0.1022  0.0443  0.0197
71856W        W14773  17.853   8.521  23.590 -0.3960  0.2389 -0.0755
71857W        W14774  17.537   6.723  25.700 -0.2129 -0.1205  0.1704
71858W        W14775  17.337   6.442  23.880  0.3030 -0.0551 -0.2351
71859W        W14776  15.324   9.829  24.503  0.2055  0.1279  0.3134
71860W        W14777  14.635   8.348  24.234  0.3493 -0.1895 -0.3767
71861W        W14778  16.154   8.236  29.030  0.3168  0.3249 -0.0403
71862W        W14779  15.425  11.477  22.163 -0.3633  0.0945  0.1825
71863W        W14780  18.134  11.000  24.141  0.0971  0.1332  0.1946
71864W        W14781  15.911   8.502  25.063 -0.0862 -0.1892  0.0542
71865W        W14782  14.112   9.036  22.829  0.1804  0.1030 -0.1468
71866W        W14783  13.550   7.425  27.531  0.0411 -0.2620 -0.1241
71867W        W14784  14.428   7.730  23.296  0.0730 -0.2100 -0.0901
71868W        W14785  14.213   7.356  21.283  0.0145 -0.0333  0.0824
71869W        W14786  16.602  10.844  25.313  0.0210  0.1368  0.4111
71870W        W14787  17.282  10.202  25.201 -0.0697 -0.0242 -0.1353
71871W        W14788  15.678   8.070  22.971  0.1966 -0.0844 -0.2239
71872W        W14789  16.420   6.477  27.849 -0.0698  0.1855  0.1770
71873W        W14790  12.699   9.574  23.758 -0.3006 -0.2926  0.3973
71874W        W14791  15.244   6.145  27.093 -0.3238 -0.1475  0.0072
71875W        W14792  15.409  10.387  25.759  0.0117 -0.0657 -0.1363
71876W        W14793  14.278   9.692  26.061 -0.0186 -0.0661 -0.0287
71877W        W14794  15.818   8.406  25.581 -0.0625  0.0568  0.0243
71878W        W14795  17.161   8.388  25.237 -0.1346  0.2592  0.0128
71879W        W14796  14.084   9.297  23.876  0.0330  0.0478 -0.3393
71880W        W14797  15.683   8.803  26.586 -0.4506 -0.0422  0.0571
71881W        W14798  17.488   7.795  28.110  0.1358  0.0364 -0.0989
71882W        W14799  17.756  10.731  26.561  0.0023 -0.0631 -0.1864
71883W        W14800  15.394   7.540  26.587  0.1651  0.1032 -0.0248
71884W        W14801  15.481   9.468  27.367 -0.1703  0.1253 -0.0461
71885W        W14802  17.327  12.500  24.347  0.1979  0.0559 -0.1358
71886W        W14803  15.183   9.680  26.180  0.1552 -0.2812  0.0108
71887W        W14804  14.595   8.363  26.084 -0.1415 -0.0717 -0.0563
71888W        W14805  15.537   8.819  27.493 -0.3133  0.2569  0.0165
71889W        W14806  16.716  10.511  24.567  0.1533 -0.1813  0.0688
71890W        W14807  14.937   5.620  25.518  0.2038  0.1211  0.1795
71891W        W14808  17.166  10.923  25.433 -0.3494  0.1990  0.0372
71892W        W14809  16.402  10.709  26.414  0.3715  0.2647 -0.0834
71893W        W14810  16.931   9.525  25.752  0.3093 -0.1519  0.1580
71894W        W14811  15.787  11.238  21.691 -0.1576  0.0912 -0.1178
71895W        W14812  18.825  10.190  22.686  0.1703 -0.3589 -0.0185
71896W        W14813  17.503   9.386  24.154 -0.1513  0.2726  0.1247
71897W        W14814  15.291  12.128  24.213 -0.2065  0.2284 -0.5181
71898W        W14815  16.863   9.637  24.665 -0.0552 -0.1669  0.1215
71899W        W14816  13.990  10.200  22.331 -0.1739  0.1577  0.5528
71900W        W14817  12.243   7.459  22.555 -0.0315  0.0332 -0.3312
71901W        W14818  17.463  10.775  23.039 -0.3389 -0.0715  0.3289
71902W        W14819  16.531  11.348  25.434  0.0726 -0.1100 -0.0450
71903W        W14820  16.992  12.904  24.093  0.0721 -0.0508  0.1277
71904W        W14821  18.734   9.107  22.232 -0.0682 -0.2600 -0.0360
71905W        W14822  18.278   6.556  27.609  0.2591 -0.1612  0.0489
71906W        W14823  18.104   8.964  26.227  0.0705 -0.3362 -0.2546
71907W        W14824  15.066   9.768  27.166 -0.3509  0.2672 -0.1324
71908W        W14825  15.883   6.386  24.557  0.0585  0.1442 -0.1801
71909W        W14826  16.597   7.984  22.856 -0.0737 -0.1170  0.0210
71910W        W14827  16.307   9.355  25.357  0.1740 -0.1559  0.1056
71911W        W14828  18.068   7.041  26.508  0.0451  0.0525  0.1575
71912W        W14829  15.882   9.119  27.509  0.0170  0.1202  0.4653
71913W        W14830  18.719  10.705  24.219  0.3906  0.2048  0.2236
71914W        W14831  14.067   8.458  24.914  0.2136 -0.1089 -0.0015
71915W        W14832  16.195  10.988  25.576  0.0651  0.0758 -0.0584
71916W        W14833  18.558   7.491  25.851  0.1249 -0.1585 -0.2445
71917W        W14834  15.560   8.788  23.594  0.1165 -0.0786 -0.0977
71918W        W14835  15.522   7.853  23.944  0.0766 -0.3193 -0.1411
71919W        W14836  15.970  10.006  23.711  0.0940  0.2483 -0.0263
71920W        W14837  14.996   9.518  25.711  0.1479 -0.0908  0.1095
71921W        W14838  15.141  10.813  22.629 -0.1070  0.2047 -0.0426
71922W        W14839  16.834   5.733  25.473  0.1334  0.3778  0.4556
71923W        W14840  18.682   8.165  26.041 -0.0074 -0.0152 -0.0133
71924W        W14841  15.349   6.435  26.676 -0.1725 -0.3291  0.1362
71925W        W14842  16.809   8.029  27.327 -0.2914 -0.0895 -0.0795
71926W        W14843  14.955   8.684  24.783 -0.1560 -0.2012 -0.2762
71927W        W14844  16.109   7.717  26.196 -0.0729 -0.0716  0.1745
71928W        W14845  15.429   9.298  25.894  0.1406 -0.0905 -0.2359
71929W        W14846  13.996   7.655  25.905 -0.2282 -0.0134 -0.0944
71930W        W14847  16.166   8.249  23.000 -0.1218  0.1356  0.0665
71931W        W14848  17.538   9.054  27.988 -0.1588 -0.0534 -0.0660
71932W        W14849  15.741   9.270  21.462  0.1155 -0.2189 -0.0292
71933W        W14850  15.615  11.779  26.724  0.0470 -0.1528 -0.0595
71934W        W14851  14.135   5.243  25.237  0.0299  0.0179 -0.2494
71935W        W14852  16.305   8.230  22.462 -0.0193 -0.3890 -0.3321
71936W        W14853  14.405   8.720  24.591  0.1501 -0.1914 -0.2527
71937W        W14854  14.955   7.567  25.477 -0.0527  0.0916 -0.1321
71938W        W14855  16.666  13.224  24.341 -0.2655  0.0026 -0.2984
71939W        W14856  15.243   6.918  24.293  0.0156  0.0159 -0.0550
71940W        W14857  18.321  11.233  24.975 -0.0929 -0.0133 -0.4440
71941W        W14858  18.443   8.826  25.035  0.2663  0.0332 -0.0303
71942W        W14859  15.812  11.370  22.516  0.4090  0.2146 -0.0668
71943W        W14860  18.206   8.650  24.440 -0.0295  0.4518  0.2276
71944W        W14861  17.345  13.202  25.931  0.4385  0.4307  0.0665
71945W        W14862  13.587   7.688  26.629 -0.1140  0.0852 -0.1366
71946W        W14863  16.190  10.272  26.640 -0.1397 -0.0195 -0.1352
71947W        W14864  16.611   9.981  25.296  0.3554  0.2212  0.0583
71948W        W14865  17.106   5.800  24.407 -0.2173 -0.0134  0.0111
71949W        W14866  15.915   7.137  26.096  0.1004  0.1304 -0.1549
71950W        W14867  14.608  10.497  23.688  0.1248 -0.0485  0.1733
71951W        W14868  13.821   7.873  23.747  0.0752 -0.1642  0.3232
71952W        W14869  15.425   8.715  26.152  0.2673 -0.0102 -0.2178
71953W        W14870  16.672   9.203  23.414 -0.2061  0.1167  0.5802
71954W        W14871  15.117   7.063  26.462  0.1460  0.0433 -0.0294
71955W        W14872  15.749  10.261  25.386 -0.1851 -0.0926 -0.0856
71956W        W14873  16.790   9.526  25.193 -0.0488  0.1475 -0.2015
71957W        W14874  16.534   8.317  24.511 -0.1341  0.1217  0.1460
71958W        W14875  14.404   9.226  26.819 -0.1456 -0.1433 -0.2296
71959W        W14876  16.288  11.381  22.368 -0.1210  0.1423  0.1361
71960W        W14877  18.868  13.220  25.558  0.3051  0.2385  0.0089
71961W        W14878  17.634  10.959  26.138 -0.2374  0.1341  0.1613
71962W        W14879  15.670   6.965  23.729  0.0843  0.0300 -0.2053
71963W        W14880  17.603  12.399  25.415 -0.0171  0.0091 -0.2292
71964W        W14881  16.311   5.550  25.363  0.2787  0.2223  0.0274
71965W        W14882  18.272   7.142  22.918 -0.1631  0.1048 -0.1080
71966W        W14883  18.078   7.166  25.722 -0.0086 -0.2625  0.1254
71967W        W14884  16.500   9.221  27.834  0.0954 -0.2107  0.0032
71968W        W14885  15.875   9.059  22.607  0.1051  0.3231  0.0786
71969W        W14886  13.755   8.658  22.837 -0.3908  0.0936  0.1219
71970W        W14887  14.492   7.523  25.116  0.0082  0.0649  0.2575
71971W        W14888  16.001   7.621  27.512 -0.2189  0.3580  0.5430
71972W        W14889  13.021   7.088  27.348  0.0682 -0.2627 -0.0013
71973W        W14890  13.660   8.591  23.290 -0.3042  0.1492  0.3008
71974W        W14891  16.240   6.549  25.367 -0.0031  0.1754 -0.1058
71975W        W14892  18.231   8.601  23.910 -0.0444  0.0156  0.2356
71976W        W14893  14.918   6.592  25.251  0.4406 -0.0112 -0.1433
71977W        W14894  14.281   7.094  24.320 -0.1467 -0.0949 -0.1019
71978W        W14895  17.329   8.513  23.694 -0.0122 -0.2017  0.0005
71979W        W14896  17.019   8.295  24.693  0.5044  0.1191 -0.2009
71980W        W14897  13.065   8.053  23.235  0.1042 -0.1159  0.0784
71981W        W14898  16.630  10.927  25.928 -0.0078  0.0249  0.0750
71982W        W14899  16.383   9.687  24.959  0.4471 -0.1011  0.1499
71983W        W14900  15.694  10.012  26.675  0.0122 -0.1990  0.0586
71984W        W14901  15.790   8.097  27.420  0.0692 -0.1554  0.0587
71985W        W14902  16.349   6.611  24.832  0.2486  0.1097  0.0498
71986W        W14903  15.979   9.696  24.125 -0.3287  0.4202 -0.0183
71987W        W14904  18.876  11.418  23.529 -0.1531 -0.2920 -0.0229
71988W        W14905  17.669  11.045  22.025 -0.2190 -0.0457 -0.0513
71989W        W14906  15.430   8.412  26.554  0.1116 -0.0415  0.0529
71990W        W14907  16.813   9.725  27.794  0.0641 -0.0877 -0.0026
71991W        W14908  14.456   6.105  26.357 -0.2071  0.2167 -0.1786
71992W        W14909  17.194  10.492  24.198  0.1851 -0.0516 -0.0944
71993W        W14910  16.507  10.481  28.230 -0.2573 -0.1405  0.0173
71994W        W14911  17.949   9.579  24.427 -0.0307  0.1600 -0.0597
71995W        W14912  19.018   7.839  25.769  0.0168  0.0070  0.1562
71996W        W14913  16.017   8.919  25.288  0.4888 -0.0703 -0.2072
71997W        W14914  15.304   5.385  26.857 -0.0800  0.1698 -0.0894
71998W        W14915  15.338  10.968  24.031 -0.4568  0.0326 -0.1214
71999W        W14916  17.489  11.266  24.672  0.0273  0.1393 -0.3094
72000W        W14917  14.574   6.888  25.724  0.2010  0.0343 -0.4836
72001W        W14918  17.073   9.405  23.158 -0.0712 -0.0378 -0.0184
72002W        W14919  16.619  10.056  22.948 -0.0904 -0.3813 -0.3129
72003W        W14920  14.805   9.387  25.227  0.1177  0.0825  0.1835
72004W        W14921  16.073   7.382  24.616 -0.0277  0.1436  0.0954
72005W        W14922  15.372   7.907  24.833  0.1830 -0.3812  0.0164
72006W        W14923  15.257   7.685  24.291  0.2563 -0.2148 -0.0734
72007W        W14924  17.727  10.128  25.007 -0.1199  0.1772  0.1613
72008W        W14925  15.738   9.929  22.946 -0.1805  0.3186 -0.0345
72009W        W14926  18.178   8.147  24.313  0.1848 -0.0827 -0.0376
72010W        W14927  17.465  11.290  25.245  0.1710  0.0195  0.1294
72011W        W14928  17.128  10.924  25.930  0.4436 -0.0807 -0.1803
72012W        W14929  16.375  11.957  25.126 -0.2844 -0.2415 -0.1830
72013W        W14930  16.727  10.027  23.836 -0.0845 -0.0873 -0.1322
72014W        W14931  16.748   6.310  28.530  0.1627  0.1296 -0.0161
72015W        W14932  12.771   8.320  24.811  0.2755 -0.2076  0.0377
72016W        W14933  13.552   8.735  24.972 -0.0384 -0.1189  0.0827
72017W        W14934  17.104   9.807  26.772 -0.3074  0.1458 -0.0946
72018W        W14935  15.466  10.447  26.835  0.3589 -0.3190  0.0350
72019W        W14936  16.691   5.590  24.557  0.1704  0.0484 -0.2016
72020W        W14937  14.915   9.562  26.720 -0.2776  0.1434  0.1436
72021W        W14938  16.755   8.812  28.174 -0.3487 -0.0258 -0.1343
72022W        W14939  14.882   8.778  30.426 -0.0944  0.0233  0.0792
72023W        W14940  16.912   8.893  27.431 -0.0178  0.0575 -0.3519
72024W        W14941  15.920   9.881  29.415  0.2230  0.0026  0.1715
72025W        W14942  17.607   9.099  29.108 -0.1553  0.2320 -0.0074
72026W        W14943  13.632   5.649  28.634  0.4610 -0.3106 -0.1086
72027W        W14944  16.035  10.313  28.111  0.5177  0.1331 -0.0473
72028W        W14945  16.047   5.831  28.520 -0.2697  0.2300  0.0315
72029W        W14946  16.407   9.529  27.092  0.1060  0.3257 -0.0511
72030W        W14947  16.429  11.780  30.791 -0.0484  0.2703  0.1130
72031W        W14948  16.476  10.990  24.202  0.1776  0.1266  0.2424
72032W        W14949  14.134  10.129  29.622 -0.0987  0.0752  0.0228
72033W        W14950  15.556   8.980  29.408  0.1077 -0.1327 -0.1397
72034W        W14951  15.045   7.189  28.260  0.0868 -0.0157  0.0854
72035W        W14952  13.212   7.300  29.480  0.3743 -0.0863  0.0829
72036W        W14953  17.057   8.091  29.320  0.0695 -0.3263  0.2085
72037W        W14954  14.464   9.660  27.674 -0.1139  0.3749 -0.0264
72038W        W14955  14.424   8.878  27.459 -0.0982  0.4685 -0.1568
72039W        W14956  14.209   8.636  27.899 -0.0980 -0.1365  0.0599
72040W        W14957  16.516  10.456  27.141  0.2981 -0.0926 -0.1446
72041W        W14958  14.894   5.965  30.536 -0.1182  0.1412  0.2426
72042W        W14959  15.784   8.117  30.316  0.2925  0.0997  0.2763
72043W        W14960  17.880   8.558  29.372 -0.1267  0.3338 -0.0822
72044W        W14961  14.666   8.453  27.315 -0.0379 -0.0097  0.4049
72045W        W14962  14.301   9.003  28.325 -0.0089  0.2088 -0.0072
72046W        W14963  16.132   8.763  28.083 -0.2172  0.2758 -0.1946
72047W        W14964  15.562   8.076  28.668  0.0419 -0.1846 -0.0468
72048W        W14965  17.421   8.782  29.516 -0.2533 -0.0082  0.1058
72049W        W14966  15.167   9.910  28.376  0.1495  0.0710 -0.2057
72050W        W14967  16.564  10.472  29.528  0.2808  0.0347  0.1558
72051W        W14968  17.434   7.937  31.448 -0.1043  0.0734  0.0527
72052W        W14969  14.782   8.105  28.853  0.1859  0.1022 -0.1035
72053W        W14970  14.912  11.353  27.612  0.2502 -0.2404  0.0211
72054W        W14971  14.849   9.939  27.887  0.1370  0.2862 -0.1602
72055W        W14972  15.672  10.683  28.364  0.0125 -0.2680  0.0673
72056W        W14973  15.075  11.565  30.207 -0.0457 -0.0147 -0.0656
72057W        W14974  15.001  11.409  31.111  0.0274 -0.1660  0.1391
72058W        W14975  14.624  10.408  28.619  0.1246  0.0655 -0.1224
72059W        W14976  16.553  11.158  29.057  0.1304 -0.0144 -0.1080
72060W        W14977  16.399   9.568  29.441  0.3656 -0.1439  0.2134
72061W        W14978  15.758   8.915  30.704 -0.2848 -0.1027  0.0587
72062W        W14979  17.382   7.718  29.658 -0.0725 -0.1957 -0.2613
72063W        W14980  15.367   8.932  28.337 -0.0462  0.0007 -0.0563
72064W        W14981  15.968   8.863  29.596 -0.0886 -0.1280  0.3618
72065W        W14982  15.778   8.616  30.250 -0.0432 -0.0060  0.1336
72066W        W14983  14.526   9.762  29.237 -0.0128  0.0470 -0.1605
72067W        W14984  20.624   6.472   0.370  0.1176 -0.1073  0.0601
72068W        W14985  16.405  10.081  29.229 -0.2508 -0.1286  0.1626
72069W        W14986  15.942   9.504  26.619  0.1716  0.1780 -0.0766
72070W        W14987  15.946   9.219  28.007 -0.2727  0.2311  0.0231
72071W        W14988  16.332   9.309  26.087 -0.0184 -0.1245  0.2787
72072W        W14989  14.848   7.293  25.948  0.0192 -0.1186  0.0000
72073W        W14990  14.665  11.659  28.533 -0.1249  0.2552  0.1322
72074W        W14991  16.869   6.977  29.263  0.0217 -0.1358  0.0033
72075W        W14992  17.548   9.745  29.102 -0.1890  0.0192  0.1923
72076W        W14993  17.068   7.763  28.464  0.4372 -0.2052  0.0519
72077W        W14994  16.261   9.540  28.834 -0.2181  0.0907  0.2627
72078W        W14995  15.326   9.118  30.307 -0.2099 -0.0766  0.0775
72079W        W14996  13.450   7.651  29.145  0.0998  0.0149  0.0330
72080W        W14997  14.798   9.033  26.544  0.1510 -0.1639 -0.2588
72081W        W14998  15.902  11.935  29.496 -0.1276 -0.1634 -0.2558
72082W        W14999  15.208  10.870  28.061  0.0295 -0.0285  0.0420
72083W        W15000  14.420   9.723  26.611 -0.1829  0.1971  0.0652
72084W        W15001  14.699  11.160  30.423 -0.1636 -0.2181  0.1199
72085W        W15002  14.207   9.511  31.304 -0.3839  0.0210 -0.0909
72086W        W15003  14.713   5.590  26.580 -0.0348  0.1412 -0.2137
72087W        W15004  19.335   8.063  31.015 -0.2255  0.1655  0.1677
72088W        W15005  13.955  11.483  28.991 -0.2984 -0.1913  0.1221
72089W        W15006  17.950  10.036  29.885 -0.1731 -0.2318 -0.1489
72090W        W15007  16.668   9.285  30.042 -0.1233  0.0942  0.1647
72091W        W15008  17.038   9.243  30.361 -0.1669  0.1978 -0.0173
72092W        W15009  16.881  10.617  26.289 -0.2427 -0.1081  0.0154
72093W        W15010  16.845   7.817  28.996  0.0512  0.0810  0.4453
72094W        W15011  16.567   8.977  30.426  0.2531  0.0271  0.1655
72095W        W15012  16.172  10.506  28.637  0.2217 -0.0043 -0.0520
72096W        W15013  16.524   8.728  27.739 -0.0323 -0.0925  0.1163
72097W        W15014  18.545   9.124  30.910  0.0803  0.1202  0.1219
72098W        W15015  17.119   9.241  26.593  0.0916 -0.0482  0.1566
72099W        W15016  15.620  11.308  29.611  0.2427 -0.0998 -0.1053
72100W        W15017  17.600   8.554  29.908 -0.0578 -0.1549  0.2875
72101W        W15018  15.979   8.815  31.809  0.1479  0.2074 -0.1612
72102W        W15019  16.347  10.422  25.449 -0.0783  0.0006 -0.1251
72103W        W15020  14.170   8.615  28.744 -0.0912  0.2736 -0.0439
72104W        W15021  14.220   9.465  28.059 -0.2748  0.1204  0.0816
72105W        W15022  15.903   6.766  28.760  0.0591  0.3083 -0.0968
72106W        W15023  16.424  11.141  31.156 -0.1335  0.2445  0.0579
72107W        W15024  16.606   9.801  26.661 -0.2331  0.1775  0.0933
72108W        W15025  15.339   8.246   0.247 -0.1476  0.0598 -0.2568
72109W        W15026  17.990   8.147  29.151  0.1032 -0.2520 -0.0138
72110W        W15027  12.812   8.069  28.964  0.0634 -0.3943 -0.1484
72111W        W15028  17.969   9.423  27.699  0.1204  0.2845 -0.3879
72112W        W15029  17.333   9.242  25.807  0.1144  0.4278 -0.0009
72113W        W15030  17.332  10.294  28.262 -0.0259  0.3101 -0.5018
72114W        W15031  14.575   8.546  28.381 -0.0855  0.1594 -0.0538
72115W        W15032  14.392   7.233  29.797 -0.0733  0.0426 -0.4093
72116W        W15033  13.311   8.563   0.032 -0.1759 -0.0776  0.0738
72117W        W15034  15.035   8.431  28.589 -0.0427 -0.1234  0.1506
72118W        W15035  19.897   6.704  30.305  0.1231  0.0252 -0.0356
72119W        W15036  15.769   7.733  27.064  0.3250 -0.1669  0.2894
72120W        W15037  17.999   8.613  31.032 -0.2619 -0.1499 -0.0809
72121W        W15038  16.164   7.812  29.640 -0.0651  0.1539  0.1700
72122W        W15039  14.982   8.732  25.879 -0.2485 -0.2435 -0.0030
72123W        W15040  18.928   9.042  31.222 -0.2715  0.0667  0.1328
72124W        W15041  18.182  10.550  26.361  0.0103 -0.0679 -0.0273
72125W        W15042  17.546  12.218  31.344  0.2233  0.2006  0.2333
72126W        W15043  16.266  11.192  29.826 -0.1412 -0.0728  0.2772
72127W        W15044  14.869   8.527  29.077 -0.0884  0.1200  0.0175
72128W        W15045  16.313  10.082  28.455 -0.1132 -0.0703 -0.1360
72129W        W15046  15.447  10.825  26.486  0.2428 -0.0150 -0.2482
72130W        W15047  14.885   7.862  26.972 -0.2455 -0.0748 -0.1069
72131W        W15048  14.217   6.538  30.106  0.0716  0.0079  0.0821
72132W        W15049  17.846  10.828  28.929 -0.1709  0.1531  0.3659
72133W        W15050  14.851   7.522  26.471  0.1137  0.3365  0.2894
72134W        W15051  14.382   7.764  28.920  0.0436 -0.1111 -0.1756
72135W        W15052  15.900   8.250   0.263 -0.1782 -0.3223  0.3508
72136W        W15053  16.889  10.160  29.154  0.1185 -0.3858  0.2848
72137W        W15054  16.460   8.205  29.916 -0.0623 -0.2989  0.1285
72138W        W15055  13.607   6.953  27.202  0.1271 -0.4011 -0.1979
72139W        W15056  16.152   9.903  26.280  0.0150  0.0120  0.3176
72140W        W15057  14.355   9.512  28.598 -0.1643  0.2510  0.2076
72141W        W15058  14.423   8.031  27.095 -0.2542  0.2231  0.1908
72142W        W15059  16.096  10.411  30.742 -0.0804  0.0249  0.0589
72143W        W15060  16.796  10.327  29.985 -0.0498 -0.1402 -0.0766
72144W        W15061  15.329   8.612   0.642  0.1501  0.2012 -0.0472
72145W        W15062  16.701   6.712   0.265  0.0554 -0.0741  0.0099
72146W        W15063  14.004  10.001  29.117  0.1330 -0.3310  0.2147
72147W        W15064  14.443   9.572  30.322 -0.1464  0.3373  0.2766
72148W        W15065  15.673   8.820  27.988  0.0206  0.0101 -0.1489
72149W        W15066  15.680  11.012  30.480 -0.2516 -0.1464  0.2901
72150W        W15067  18.394   9.097  29.890  0.0801  0.1448 -0.0935
72151W        W15068  16.668   8.594  29.518  0.1035 -0.4127  0.5705
72152W        W15069  19.083   8.702  27.439 -0.1028  0.0627  0.0581
72153W        W15070  16.732   8.470  27.187 -0.0868 -0.1916  0.0177
72154W        W15071  15.871   9.656  27.740  0.1911  0.1540  0.0014
72155W        W15072  16.986   8.932  29.257 -0.0955  0.0295 -0.1100
72156W        W15073  15.098   9.115  29.202 -0.1308  0.2064  0.1536
72157W        W15074  14.196   7.145  26.768 -0.1031 -0.0236  0.2390
72158W        W15075  15.567   8.298  27.829  0.2041 -0.0534 -0.0565
72159W        W15076  14.296   7.785  31.495  0.2022 -0.1715  0.0827
72160W        W15077  15.792   9.423  30.469 -0.1735  0.2351  0.0434
72161W        W15078  15.874  11.605  28.765 -0.2048  0.1499 -0.0763
72162W        W15079  15.926   8.308  30.782  0.0838 -0.0227  0.0425
72163W        W15080  15.580   8.598  27.024 -0.1999 -0.3383 -0.0027
72164W        W15081  16.572   7.222  28.925  0.0405 -0.0953  0.0541
72165W        W15082  15.036  10.727  27.551 -0.2980 -0.0360 -0.0839
72166W        W15083  19.143   8.477  29.880  0.2132  0.0133  0.2536
72167W        W15084  16.300   7.760  29.129  0.2578 -0.1127 -0.3895
72168W        W15085  15.532   7.184  31.860  0.3655  0.1400 -0.1739
72169W        W15086  18.569   9.199  29.175  0.1338 -0.0037 -0.2607
72170W        W15087  15.921  10.060  25.819  0.4426  0.0588  0.1005
72171W        W15088  17.220   8.690  31.387  0.1123 -0.0688 -0.0622
72172W        W15089  14.496   8.335  26.747 -0.1962  0.1654 -0.0236
72173W        W15090  16.484   8.089  31.269 -0.1975 -0.0570 -0.0239
72174W        W15091  14.593   9.790  31.102  0.2049 -0.0299 -0.1014
72175W        W15092  14.241  13.324  30.994  0.3864  0.2924 -0.0048
72176W        W15093  15.582   9.059  31.249 -0.0430  0.1287  0.2394
72177W        W15094  17.212  10.739  29.907  0.2944 -0.2483 -0.2374
72178W        W15095  16.956   7.390  31.770  0.2420  0.0111  0.1640
72179W        W15096  17.227  10.466  30.286 -0.0741  0.0063  0.2854
72180W        W15097  14.005  10.441  28.233 -0.0891 -0.0585 -0.1457
72181W        W15098  17.295   8.731  28.351 -0.2336 -0.1058  0.1943
72182W        W15099  15.460   8.098  29.586  0.2617 -0.0863 -0.2295
72183W        W15100  17.297  10.023  30.808 -0.1004  0.0348 -0.1406
72184W        W15101  15.175  10.904  25.806  0.0964  0.1634 -0.2809
72185W        W15102  15.855  10.756  31.053  0.0501  0.1660 -0.0843
72186W        W15103  16.047  10.630  27.445  0.0856 -0.1129  0.0961
72187W        W15104  16.713   8.998   0.103  0.0133 -0.0742 -0.1402
72188W        W15105  15.210   9.685  30.482  0.0617  0.3107  0.0374
72189W        W15106  14.890   6.487  27.802 -0.0413 -0.0783  0.0278
72190W        W15107  14.088   8.057  26.667 -0.4340 -0.1320  0.0585
72191W        W15108  16.156   6.721  28.267  0.1235  0.1557  0.5395
72192W        W15109  17.268   9.810  28.352  0.0868  0.0505 -0.2420
72193W        W15110  13.708   7.740  28.068 -0.1338  0.0059 -0.0139
72194W        W15111  17.623  10.279  31.087 -0.2738  0.1750  0.1349
72195W        W15112  14.272  10.902  30.433  0.3767  0.0034  0.1790
72196W        W15113  19.141   7.904  30.054 -0.1489 -0.0865  0.0243
72197W        W15114  13.373   7.717  27.093  0.0725  0.2107 -0.0497
72198W        W15115  15.702  11.422  27.146 -0.0984  0.0448 -0.0013
72199W        W15116  13.971   8.170  29.640 -0.0213 -0.1149  0.2739
72200W        W15117  15.337   6.916  26.944  0.1237 -0.2178 -0.0208
72201W        W15118  18.939   8.670  30.308  0.0672 -0.3159  0.3125
72202W        W15119  16.640   7.666  26.862 -0.2535 -0.2651 -0.1313
72203W        W15120  16.111  11.851  26.874  0.4143 -0.0086  0.1127
72204W        W15121  15.934   9.733  29.964 -0.1297  0.0571  0.1782
72205W        W15122  14.726  10.994  27.896  0.2408 -0.2429  0.1064
72206W        W15123  16.560   9.831  30.119  0.1729  0.3204  0.1535
72207W        W15124  15.788  10.152  27.609  0.0165  0.1413 -0.0836
72208W        W15125  16.477   8.585  31.460 -0.0538 -0.4161 -0.2569
72209W        W15126  15.225   7.954  27.879  0.1292 -0.2240 -0.2384
72210W        W15127  16.000   5.708  27.975 -0.1451 -0.2389 -0.1699
72211W        W15128  15.717   9.410  29.630 -0.0526 -0.0529  0.0726
72212W        W15129  16.808   8.392  30.249 -0.0909  0.1280 -0.1954
72213W        W15130  16.342   7.970  30.771  0.1422 -0.2401 -0.2766
72214W        W15131  15.157   9.180  31.434 -0.0522  0.1665 -0.0785
72215W        W15132  15.326   7.156  29.477  0.3235 -0.0122 -0.0507
72216W        W15133  18.030   8.294  28.612  0.2272 -0.1414 -0.0445
72217W        W15134  18.342   6.367  30.383 -0.0842  0.2945  0.1300
72218W        W15135  14.805   9.267  30.046 -0.3223 -0.0147 -0.2802
72219W        W15136  14.407   8.551  30.377 -0.2534 -0.1444 -0.1215
72220W        W15137  13.918  10.220  28.628 -0.5026 -0.0086  0.2289
72221W        W15138  16.340   8.678  29.973 -0.0081 -0.1039 -0.0852
72222W        W15139  15.398  10.675  30.641 -0.0239 -0.1032  0.2982
72223W        W15140  13.996   7.918  27.346 -0.0075 -0.3733  0.0017
72224W        W15141  13.772   9.073  30.016 -0.2608  0.0678 -0.0846
72225W        W15142  17.649   9.946  28.120  0.2001 -0.0855 -0.2651
72226W        W15143  17.695  11.181  26.824 -0.2130  0.0034 -0.0331
72227W        W15144  15.877   7.458  26.560 -0.2011  0.2082  0.1495
72228W        W15145  19.049   7.460  30.781  0.2342  0.2693  0.2514
72229W        W15146  17.721   8.933  28.535 -0.2309  0.3243 -0.1873
72230W        W15147  17.898   7.597  31.289 -0.0941 -0.1772  0.1972
72231W        W15148  16.883   8.358  27.679  0.2139  0.0751 -0.3496
72232W        W15149  18.382   7.924  29.410 -0.1879  0.0809  0.3761
72233W        W15150  15.095   9.532  31.044  0.3668 -0.0903  0.1574
72234W        W15151  16.014  11.083  31.413  0.1700  0.2140  0.1745
72235W        W15152  15.999   9.739  31.168  0.0644 -0.2389  0.0251
72236W        W15153  14.578   7.246  27.690 -0.1531 -0.0289  0.2549
72237W        W15154  15.463   3.651  28.695  0.2040 -0.1656 -0.1587
72238W        W15155  14.794   8.151  27.670 -0.6062  0.1393 -0.3081
72239W        W15156  16.499  10.486  30.451 -0.0639 -0.1157 -0.0052
72240W        W15157  15.698  11.237  29.107 -0.0875  0.1874  0.2617
72241W        W15158  17.633   8.227  30.553 -0.3384 -0.2135  0.2860
72242W        W15159  14.663   6.855  28.025  0.0600 -0.0545  0.0048
72243W        W15160  19.096   7.756  29.542 -0.1665  0.0847 -0.0326
72244W        W15161  17.199   8.500  27.341  0.2258 -0.1877 -0.2268
72245W        W15162  15.572   9.115  27.040 -0.1169  0.0136 -0.0533
72246W        W15163  17.267   9.243   0.167 -0.1885  0.3229  0.1933
72247W        W15164  16.314  10.133  31.051  0.0538  0.0368 -0.0150
72248W        W15165  18.354   8.416  29.516  0.0648  0.0128 -0.1811
72249W        W15166  17.353   9.290  29.485 -0.0181  0.2006  0.2007
72250W        W15167  17.159   8.334  30.666  0.0865 -0.0969 -0.3793
72251W        W15168  15.400   9.251  30.782  0.0308 -0.1401  0.3553
72252W        W15169  15.283   9.198  29.715 -0.1057 -0.3428 -0.2330
72253W        W15170  15.030  10.108  29.652 -0.2945 -0.3200  0.0206
72254W        W15171  17.059   8.205  28.707 -0.2307 -0.0175 -0.4773
72255W        W15172  18.950   6.625  29.185 -0.1320 -0.3077 -0.0929
72256W        W15173  18.002   7.685  26.666 -0.0881  0.1407  0.1169
72257W        W15174  17.488   7.107  26.596 -0.2336  0.1794 -0.0471
72258W        W15175  16.143   7.072  29.356 -0.2509 -0.0127 -0.2307
72259W        W15176  18.547   6.998  29.241  0.0253 -0.2490 -0.1876
72260W        W15177  16.652   7.111  27.053 -0.3008 -0.1839  0.0541
72261W        W15178  18.804   7.186  31.869  0.0433 -0.2303  0.3586
72262W        W15179  15.138   8.923  27.795  0.0740  0.2719 -0.2551
72263W        W15180  16.733  11.539  28.797  0.2038  0.0160  0.2963
72264W        W15181  16.481   8.797  26.169  0.1509  0.2890  0.1967
72265W        W15182  13.596   9.334  29.412 -0.0843  0.1469  0.2887
72266W        W15183  15.247  10.266  30.096  0.1784 -0.1611  0.1335
72267W        W15184  14.558   8.903  26.101 -0.1009  0.1575  0.0131
72268W        W15185  14.091   8.872  27.000  0.1672 -0.1038 -0.1045
72269W        W15186  16.639   8.360  30.712  0.0474 -0.1407 -0.1448
72270W        W15187  18.233   7.828  30.374  0.0008 -0.1666 -0.1031
72271W        W15188  15.241   4.380  27.063  0.0244 -0.0824  0.0795
72272W        W15189  17.212   7.879  30.439 -0.0783  0.0771 -0.0078
72273W        W15190  15.134  10.343  28.603  0.1773  0.0595  0.0723
72274W        W15191  15.872   7.613  30.695 -0.2328  0.0017 -0.3125
72275W        W15192  16.397   9.601  31.426  0.2311 -0.1676  0.0896
72276W        W15193  14.106   8.017  31.048 -0.3386 -0.0735  0.1293
72277W        W15194  15.143  11.386  29.209 -0.3624  0.0119  0.4284
72278W        W15195  15.207   7.127   0.260 -0.0008 -0.0279  0.2389
72279W        W15196  17.516   9.674  26.555 -0.3270  0.0280 -0.1153
72280W        W15197  16.913  10.679  29.156 -0.0535  0.2383 -0.0620
72281W        W15198  16.999   7.287  30.964 -0.0288  0.2644 -0.1668
72282W        W15199  17.195   8.677  30.143 -0.2426  0.2095 -0.0635
72283W        W15200  14.411   6.728  29.673  0.1483  0.3736 -0.0599
72284W        W15201  15.687  10.284  29.399  0.3519 -0.4248  0.0871
72285W        W15202  18.721   7.695  30.420 -0.2702 -0.3040 -0.1350
72286W        W15203  16.677   9.788  26.125 -0.1909 -0.0690 -0.1071
72287W        W15204  13.278   7.147  29.015 -0.0558 -0.2853  0.0268
72288W        W15205  17.105   8.782  31.893 -0.1101 -0.0807  0.2025
72289W        W15206  15.510   8.621  31.541  0.0141  0.0630 -0.0596
72290W        W15207  12.640   8.396  28.481  0.3691 -0.0008 -0.0495
72291W        W15208  16.703   9.519  28.241  0.1545  0.0559  0.0045
72292W        W15209  14.115   9.653  29.563 -0.0808 -0.1104  0.1435
72293W        W15210  13.758  10.021   1.236 -0.0226  0.1714 -0.2129
72294W        W15211  14.906  10.651  29.518  0.0662  0.2322  0.0095
72295W        W15212  16.042   9.812  30.622 -0.0602  0.0247 -0.3006
72296W        W15213  16.569  10.988  28.119  0.0171  0.0264 -0.0105
72297W        W15214  16.355   9.496  30.418  0.0237 -0.0698 -0.0538
72298W        W15215  14.606   6.961  26.302  0.0378 -0.0552 -0.1600
72299W        W15216  15.822  11.598  27.642  0.0880 -0.0359  0.7600
72300W        W15217  15.513   8.746  25.206 -0.0619 -0.0914 -0.0003
72301W        W15218  14.981  10.459  26.630 -0.0207  0.0241  0.0878
72302W        W15219  15.709  11.148  28.067 -0.3028 -0.0679 -0.1138
72303W        W15220  18.044   9.247  31.766  0.2233 -0.2523  0.1323
72304W        W15221  15.740   7.418  25.700 -0.1548 -0.4260  0.0663
72305W        W15222  16.903   9.628  30.707  0.1364  0.2586  0.3441
72306W        W15223  17.902   9.380  28.822 -0.0148  0.2145 -0.2635
72307W        W15224  15.044   9.734  30.035  0.1767 -0.1413 -0.2417
72308W        W15225  16.161   9.291  29.861  0.0671  0.0995 -0.1067
72309W        W15226  15.014   7.492  27.600  0.0492 -0.1970  0.4196
72310W        W15227  15.465   9.868  29.663  0.0352 -0.2263 -0.1691
72311W        W15228  17.822   8.728  30.339  0.2207 -0.1781  0.0364
72312W        W15229  14.221   9.894  30.705  0.3659  0.1022 -0.1650
72313W        W15230  16.360  12.250  25.543  0.2207 -0.0126 -0.0759
72314W        W15231  13.623   8.131  28.420  0.3377  0.0898  0.3661
72315W        W15232  16.280   8.753  29.109  0.0789  0.0981  0.0520
72316W        W15233  19.602   6.847  29.892 -0.0730 -0.0097  0.0839
72317W        W15234  13.964   6.927  27.543 -0.2978 -0.1065  0.0335
72318W        W15235  16.908   9.572  29.109  0.0563 -0.1673  0.1677
72319W        W15236  14.889  10.401  28.178  0.5033 -0.1041  0.2425
72320W        W15237  16.648  12.410  27.680 -0.2595  0.2301  0.1937
72321W        W15238  17.169  12.465  27.554  0.1944 -0.0321  0.1132
72322W        W15239  13.897   7.480  27.085  0.1134  0.2593 -0.0761
72323W        W15240  17.846   9.074  29.584 -0.3188 -0.0932 -0.1313
72324W        W15241  14.396   7.904  29.566  0.0040  0.1903  0.0601
72325W        W15242  18.180   8.449  27.894 -0.1803  0.2815 -0.4023
72326W        W15243  14.853   8.970  28.245 -0.0278 -0.1252 -0.1740
72327W        W15244  19.126   9.205  29.281 -0.0284 -0.0497 -0.0819
72328W        W15245  17.975  11.156  30.047  0.2624 -0.0436  0.1535
72329W        W15246  15.774   8.482  29.306  0.2088  0.2991 -0.0810
72330W        W15247  16.352   9.163  27.388 -0.1986 -0.0589  0.4097
72331W        W15248  19.214  10.282  29.047 -0.0233 -0.0049  0.0658
72332W        W15249  16.181   8.580  28.621  0.3300 -0.0604  0.0223
72333W        W15250  14.945  10.196  30.482 -0.1103  0.2864 -0.0060
72334W        W15251  15.157   8.888  28.762  0.1900  0.2840  0.1873
72335W        W15252  16.914   9.237  28.671 -0.1408 -0.2386  0.1522
72336W        W15253  16.059   9.235  29.176  0.3291  0.0037  0.1714
72337W        W15254  14.867   7.624  28.103  0.1364  0.1125  0.1306
72338W        W15255  15.631  10.644  31.476  0.3582 -0.0497 -0.2592
72339W        W15256  14.433   6.693  27.626 -0.2378 -0.2094 -0.0988
72340W        W15257  16.087  10.965  27.795 -0.2261  0.0614 -0.1743
72341W        W15258  18.293   7.393  29.589 -0.1554  0.0448 -0.0986
72342W        W15259  14.793   9.994  25.002  0.0794  0.2614 -0.0559
72343W        W15260  19.670   8.489  29.613  0.4835 -0.2211 -0.2346
72344W        W15261  16.814   8.985  31.478 -0.2951  0.0933  0.2013
72345W        W15262  15.765   6.656  30.528  0.0062 -0.1064 -0.2164
72346W        W15263  16.986  11.411  30.407  0.1837  0.1297 -0.4996
72347W        W15264  17.176  10.019  28.776  0.0454 -0.2404 -0.1194
72348W        W15265  16.068   9.082  26.899  0.0722 -0.0453 -0.0806
72349W        W15266  14.735   9.387  29.017 -0.1716 -0.1310  0.0903
72350W        W15267  16.350   9.631  27.561 -0.0176  0.1384  0.1021
72351W        W15268  19.228   8.792  29.504 -0.0476  0.0148 -0.0985
72352W        W15269  19.528   9.084  30.637 -0.0528 -0.2893  0.0130
72353W        W15270  15.094   9.048  27.289  0.1817  0.0734 -0.2527
72354W        W15271  17.358   8.005   0.425  0.1173  0.3136  0.0062
72355W        W15272  15.140  10.010  30.970 -0.1824  0.2384 -0.0319
72356W        W15273  14.394   8.474  29.569 -0.2127  0.0743 -0.0663
72357W        W15274  14.783   6.922  27.298  0.2291 -0.0295  0.0874
72358W        W15275  15.000   9.368   0.325  0.2706  0.1203 -0.2019
72359W        W15276  15.153   8.014  27.346  0.0270 -0.0188  0.3450
72360W        W15277  17.349  10.726  27.889 -0.2980 -0.0917  0.2477
72361W        W15278  17.703   9.467  29.784 -0.1944 -0.1015 -0.3321
72362W        W15279  17.712   8.496  31.567 -0.1227 -0.0229  0.2456
72363W        W15280  16.842   9.931  29.612  0.1043 -0.0891 -0.0905
72364W        W15281  15.525   7.457  28.470  0.2220 -0.1880 -0.1384
72365W        W15282  19.656   5.891  30.055 -0.2094  0.1293  0.3698
72366W        W15283  17.371   7.900  29.022 -0.0310  0.1410 -0.1091
72367W        W15284  16.118  10.926  30.304 -0.0489  0.0427  0.1690
72368W        W15285  14.335   8.192  27.662 -0.1262  0.1585  0.0144
72369W        W15286  14.102   7.221  28.480  0.1474 -0.0762 -0.0117
72370W        W15287  14.061  10.715  28.693  0.1294  0.1819  0.2540
72371W        W15288  16.717   8.313  31.774  0.0635 -0.1317  0.2711
72372W        W15289  14.271   8.161  29.127 -0.1386  0.4005 -0.0222
72373W        W15290  13.050   7.980  27.591  0.0596 -0.4946 -0.4382
72374W        W15291  13.965   6.944  29.852 -0.2269 -0.1908 -0.0662
72375W        W15292  16.281  10.927  29.388 -0.0528 -0.1143 -0.1914
72376W        W15293  14.923   7.446  29.584  0.2363 -0.0395 -0.1878
72377W        W15294  15.285   8.352  30.193  0.2033  0.1521 -0.3353
72378W        W15295  16.715  10.280  26.678 -0.0821 -0.1557 -0.2536
72379W        W15296  16.174  11.110  26.545  0.1710  0.3472 -0.1066
72380W        W15297  15.023   6.017  26.614  0.3212  0.1456 -0.1473
72381W        W15298  16.401  11.940  26.034 -0.0079 -0.2161  0.2848
72382W        W15299  14.206   7.049  27.965  0.3429  0.2121 -0.4066
72383W        W15300  16.849   8.960   2.019  0.1742  0.1810  0.0786
72384W        W15301  15.834   8.772   0.413  0.1090 -0.3791 -0.2229
72385W        W15302  14.344   8.155  28.645 -0.0291  0.0013  0.2822
72386W        W15303  15.308   7.651  29.365  0.3627  0.1886 -0.2903
72387W        W15304  15.570   9.182  28.883  0.0897 -0.1949  0.0407
72388W        W15305  16.121  15.130  25.615  0.2378  0.1977  0.1934
72389W        W15306  14.530   7.823  30.328 -0.1018 -0.0681 -0.0896
72390W        W15307  17.048  12.790  31.892  0.0675 -0.0364 -0.1591
72391W        W15308  16.178   7.318  29.930 -0.1182 -0.1123 -0.2369
72392W        W15309  17.459   9.037  29.964 -0.2220  0.0292 -0.0251
72393W        W15310  14.858   7.277  30.288 -0.2520  0.3242  0.1908
72394W        W15311  18.346  10.130  27.386 -0.3849  0.2495 -0.1973
72395W        W15312  19.027   7.360  29.065 -0.2223 -0.1955 -0.0292
72396W        W15313  16.584   8.225  26.663 -0.0676 -0.0291  0.1348
72397W        W15314  16.649   7.904  30.365 -0.3751  0.1170  0.2481
72398W        W15315  16.246  10.453   0.076  0.3450 -0.0208 -0.3124
72399W        W15316  19.794   9.138  29.761  0.2619  0.2016 -0.0066
72400W        W15317  17.137   8.430  29.699 -0.0804 -0.2428  0.1665
72401W        W15318  18.422   8.054  28.818  0.2141  0.2202  0.0594
72402W        W15319  17.270  10.008  27.849 -0.1687 -0.3054 -0.0801
72403W        W15320  14.641   8.867  30.871  0.0464 -0.2073  0.0221
72404W        W15321  16.015   8.073  27.875 -0.0283 -0.1484 -0.0081
72405W        W15322  16.667   8.276  29.138 -0.2400 -0.1801 -0.0740
72406W        W15323  18.378   9.707  30.920 -0.0298  0.2547 -0.0698
72407W        W15324  16.953   8.819  30.615  0.0134 -0.4311 -0.0847
72408W        W15325  16.588   9.135  29.020 -0.0220 -0.1960  0.0405
72409W        W15326  17.124   8.751  27.854 -0.1470  0.1339 -0.0136
72410W        W15327  16.951  11.848  30.684  0.0873 -0.0858  0.1498
72411W        W15328  16.101  10.418   0.647 -0.1878 -0.0513 -0.2596
72412W        W15329  16.529  11.456  29.463 -0.3372 -0.0779  0.2040
72413W        W15330  20.279   6.995  29.695  0.0697 -0.0604  0.3293
72414W        W15331  15.664   6.617  28.321 -0.2210  0.1332 -0.5729
72415W        W15332  16.300  10.054  29.746  0.0994  0.0988 -0.0241
72416W        W15333  17.381   9.918  30.107 -0.0101 -0.0191 -0.3905
72417W        W15334  16.415   7.353  31.522  0.3811 -0.1652 -0.4014
72418W        W15335  15.960   8.327  29.884 -0.0440  0.1050  0.0856
72419W        W15336  17.983   8.904  28.081  0.0409 -0.0934 -0.0951
72420W        W15337  15.499  12.553  29.625 -0.2074  0.1930 -0.0782
72421W        W15338  17.238   8.516  29.122 -0.1323  0.0665 -0.2395
72422W        W15339  17.498   8.379  31.084  0.0121  0.5806  0.2217
72423W        W15340  17.472   8.751  30.701 -0.2310  0.3145 -0.1259
72424W        W15341  13.927   7.774   0.289  0.2389  0.0219 -0.2298
72425W        W15342  13.488  11.095   0.438  0.0696  0.0486 -0.1370
72426W        W15343  16.205   9.895   0.774  0.1905  0.0809  0.2587
72427W        W15344  15.957  10.342  31.384 -0.0364  0.4077 -0.2185
72428W        W15345  16.674   9.213  30.821 -0.0782 -0.0985  0.0215
72429W        W15346  15.126   7.894  29.963  0.3683  0.0931 -0.4468
72430W        W15347  17.596   6.908  30.506 -0.2064 -0.2189  0.0445
72431W        W15348  15.547   9.134  31.734 -0.4094 -0.2196  0.0585
72432W        W15349  15.202   8.494  29.461 -0.1069  0.0934  0.0933
72433W        W15350  16.246   7.122   0.506 -0.1844  0.0757 -0.1998
72434W        W15351  17.953   8.798  31.953  0.1454  0.0845  0.1630
72435W        W15352  16.668   8.507   1.627  0.0639  0.0354  0.0472
72436W        W15353  17.412   7.163  31.960  0.0546 -0.0582 -0.2817
72437W        W15354  13.487  11.965  31.244 -0.2600  0.0065 -0.1065
72438W        W15355  16.329   9.543   0.357  0.1898 -0.0748  0.0996
72439W        W15356  17.600   7.414  29.153  0.1740  0.2659 -0.1116
72440W        W15357  15.086   6.683  30.212  0.0614  0.1950  0.1339
72441W        W15358  15.752   8.177   0.731 -0.2169 -0.1582  0.0840
72442W        W15359  14.147   8.691   0.309 -0.0359  0.1441  0.0565
72443W        W15360  15.394   9.776   0.264 -0.0658  0.0212 -0.1164
72444W        W15361  16.444   7.577   1.277  0.0665  0.0535  0.0289
72445W        W15362  17.012   8.394   0.236 -0.2925  0.1934  0.0653
72446W        W15363  16.531   8.437   0.541 -0.3190 -0.0277  0.1727
72447W        W15364  15.524   7.988  31.751  0.1623  0.0294  0.2063
72448W        W15365  14.436   7.437   2.221 -0.0348  0.3485 -0.5144
72449W        W15366  15.057   9.650   2.026  0.1856  0.2126  0.0124
72450W        W15367  16.447   8.617   0.083  0.1323  0.0844 -0.1756
72451W        W15368  15.531   7.201  31.222  0.0261  0.0583  0.2233
72452W        W15369  15.489   9.503  30.114  0.1591  0.1408  0.0297
72453W        W15370  16.658   9.482   0.751 -0.2204  0.0485 -0.3211
72454W        W15371  17.627   9.561  31.875  0.1978  0.0118 -0.0401
72455W        W15372  16.993   8.230   1.264 -0.0012 -0.0175  0.2121
72456W        W15373  12.503   6.561  31.160  0.1139  0.0343  0.0196
72457W        W15374  16.626  10.453   0.668  0.0753  0.0859  0.0336
72458W        W15375  14.868   8.142   0.171  0.0705  0.0486  0.3763
72459W        W15376  16.625   9.463   1.244 -0.1499  0.2332 -0.0998
72460W        W15377  18.135   7.472   0.426 -0.0951 -0.2033  0.0274
72461W        W15378  15.252   7.353  29.954  0.1874 -0.1119 -0.1429
72462W        W15379  18.525   7.499  29.077  0.0827 -0.0433  0.0394
72463W        W15380  17.223   8.615   2.518  0.2681  0.0798 -0.1496
72464W        W15381  14.841   8.353  29.885  0.3067  0.1872  0.3420
72465W        W15382  15.484   8.679   0.089  0.2965  0.1599  0.0089
72466W        W15383  14.544   9.107   0.096  0.1553  0.2152 -0.1095
72467W        W15384  14.497   7.798   0.104  0.1977  0.0542  0.0657
72468W        W15385  16.693   6.501  31.424  0.2612  0.1043 -0.0740
72469W        W15386  16.408   9.600  30.962 -0.1925  0.3567 -0.0966
72470W        W15387  17.142   9.410   1.164 -0.2791 -0.0987 -0.2210
72471W        W15388  14.686   8.602  31.835  0.1991  0.4861 -0.1691
72472W        W15389  18.065  10.385   0.105  0.1613  0.0704 -0.0408
72473W        W15390  15.351   6.764   0.528 -0.0485 -0.2320 -0.2085
72474W        W15391  15.149   5.938  31.410  0.0261  0.1026 -0.3062
72475W        W15392  15.579   8.582  29.767  0.1744  0.0317 -0.3296
72476W        W15393  15.396   8.112  30.692  0.1986  0.0750 -0.0347
72477W        W15394  17.224   9.441  29.938 -0.0277  0.0701 -0.1676
72478W        W15395  18.609   8.189  30.310  0.0732  0.0585 -0.2638
72479W        W15396  15.227  10.369  29.207 -0.0629  0.0118 -0.2241
72480W        W15397  16.115  12.241  31.804 -0.0163  0.2241 -0.0808
72481W        W15398  14.910   9.498   0.799 -0.2357  0.1382 -0.1904
72482W        W15399  12.094   9.297   0.196 -0.0118  0.1562  0.1482
72483W        W15400  13.713  11.513  31.250 -0.0227 -0.1157 -0.1661
72484W        W15401  14.675   8.996   0.560 -0.3876 -0.1353  0.1209
72485W        W15402  15.200   7.355  30.857 -0.0729 -0.4320 -0.1279
72486W        W15403  16.415  10.970   0.009 -0.1189  0.1608 -0.0883
72487W        W15404  17.259  10.821   0.076 -0.0022  0.2111 -0.0133
72488W        W15405  19.442   8.245  30.260  0.0094 -0.2684  0.4263
72489W        W15406  15.335  14.078  16.574 -0.1007  0.1806 -0.1044
72490W        W15407  13.754  10.428  15.678  0.0294 -0.0256  0.2018
72491W        W15408  18.445  11.136  15.956  0.1754 -0.0455 -0.1400
72492W        W15409  16.965  12.767  16.949  0.0582 -0.2049  0.1008
72493W        W15410  15.061  11.629  17.066  0.1959 -0.0817  0.1571
72494W        W15411  15.799  11.918  16.030 -0.1490  0.2369  0.4497
72495W        W15412  15.300   9.769  17.390  0.0121 -0.1212 -0.0641
72496W        W15413  16.101  14.421  14.446 -0.0854 -0.0814  0.0488
72497W        W15414  17.577  15.771  15.940  0.1353 -0.0777  0.0043
72498W        W15415  15.999  13.026  14.634 -0.2106  0.1579 -0.2867
72499W        W15416  15.109  10.356  17.383  0.0001  0.2855  0.0245
72500W        W15417  14.996  13.211  17.211  0.2116 -0.0457 -0.1311
72501W        W15418  16.688   9.320  15.937  0.0067  0.0332 -0.4788
72502W        W15419  12.968   8.808  17.820  0.1752  0.3166  0.0220
72503W        W15420  16.603  10.868  18.156  0.1510 -0.1368 -0.0484
72504W        W15421  16.022  14.119  15.405  0.1491 -0.1255 -0.2606
72505W        W15422  15.964  11.324  16.890  0.0852 -0.0786 -0.4456
72506W        W15423  14.504  11.450  15.425  0.0448  0.0921 -0.0910
72507W        W15424  15.636  13.355  14.638  0.0215  0.3980  0.0084
72508W        W15425  16.898  10.862  17.275 -0.0041  0.1963  0.4861
72509W        W15426  18.055  10.556  18.283  0.3527  0.0392 -0.2537
72510W        W15427  15.668  14.477  13.275 -0.0805  0.4450  0.0803
72511W        W15428  14.668  11.801  14.608  0.0310  0.0452  0.0762
72512W        W15429  15.188  12.249  14.059 -0.1610 -0.3388 -0.0772
72513W        W15430  14.582  11.470  17.150 -0.3325 -0.1160 -0.3666
72514W        W15431  14.835  11.427  17.949 -0.1927 -0.1135 -0.1262
72515W        W15432  17.392  11.928  16.397 -0.1533 -0.0773 -0.0204
72516W        W15433  16.188  14.632  16.512  0.3619 -0.1642  0.2190
72517W        W15434  15.398  11.688  17.460 -0.0441  0.3894 -0.1711
72518W        W15435  17.128   7.386  18.819  0.1750  0.2723  0.2799
72519W        W15436  13.998  13.131  15.789 -0.0619 -0.0482 -0.0628
72520W        W15437  14.331  13.569  16.458 -0.1106 -0.0534  0.2421
72521W        W15438  15.405  12.089  15.736  0.3439 -0.2449  0.2256
72522W        W15439  16.451  13.709  16.251  0.0457  0.0420 -0.0725
72523W        W15440  14.387  13.234  17.251 -0.2517 -0.0917  0.1777
72524W        W15441  14.650  13.242  17.714 -0.0504  0.0469  0.0024
72525W        W15442  15.012  14.930  13.999 -0.0569 -0.0765 -0.0262
72526W        W15443  17.426  10.189  17.094  0.0562 -0.0990 -0.1973
72527W        W15444  12.698  14.379  17.523 -0.1311  0.1532 -0.2994
72528W        W15445  14.967  12.657  20.480 -0.2082  0.3137 -0.2585
72529W        W15446  12.505  10.206  18.911 -0.0056 -0.2432 -0.1192
72530W        W15447  16.122  13.561  14.721  0.0086 -0.4677 -0.0464
72531W        W15448  13.938  13.757  14.964 -0.0031  0.2802  0.0213
72532W        W15449  14.000  12.163  19.037 -0.1153 -0.2821 -0.1446
72533W        W15450  14.511  12.569  14.846  0.1534 -0.4863 -0.0931
72534W        W15451  17.847   8.551  18.325 -0.0360  0.0552  0.1826
72535W        W15452  13.731  13.186  13.807  0.0961  0.2255  0.0348
72536W        W15453  15.946  11.543  16.383  0.2346 -0.0196 -0.1366
72537W        W15454  16.282  10.908  15.396 -0.1438  0.1773  0.2422
72538W        W15455  17.284  12.009  15.320 -0.1898 -0.1143 -0.0189
72539W        W15456  14.478  10.969  15.888 -0.0635  0.0939 -0.1776
72540W        W15457  14.422  12.367  16.131 -0.0521 -0.0446  0.0244
72541W        W15458  16.962  12.293  15.604  0.3285 -0.1613 -0.1507
72542W        W15459  20.436  13.060  18.390  0.0174 -0.0672 -0.0219
72543W        W15460  16.206  12.394  16.278 -0.2252 -0.0856  0.2010
72544W        W15461  16.617  10.848  16.571 -0.2965  0.0079 -0.1351
72545W        W15462  15.693  13.351  16.878 -0.0630  0.1965  0.0802
72546W        W15463  14.295  12.998  14.733  0.1243 -0.0393  0.3859
72547W        W15464  18.383  12.908  14.131  0.1020  0.3713 -0.0813
72548W        W15465  15.791  14.321  16.480 -0.2383 -0.3528  0.4782
72549W        W15466  17.567  12.298  16.685  0.3410  0.2401  0.0517
72550W        W15467  15.908  11.527  14.855  0.0506 -0.0583  0.0921
72551W        W15468  14.191  12.265  16.763 -0.1383 -0.0795 -0.0935
72552W        W15469  15.420  12.908  18.060  0.1332 -0.1987  0.1128
72553W        W15470  16.015   8.977  15.656  0.1705  0.0274  0.2044
72554W        W15471  18.656  11.961  19.872 -0.2570 -0.3897  0.0889
72555W        W15472  15.295  13.069  16.757  0.0419 -0.0971 -0.2766
72556W        W15473  17.407  12.828  15.959  0.3648 -0.0623 -0.2194
72557W        W15474  12.973  12.045  18.456  0.0550  0.1397 -0.0387
72558W        W15475  15.567  10.301  16.102  0.0910 -0.2082  0.1511
72559W        W15476  17.374  13.272  16.266 -0.1890 -0.0597  0.1168
72560W        W15477  14.375   9.164  16.207 -0.0740 -0.1143 -0.1115
72561W        W15478  17.691  11.476  16.015 -0.0827 -0.1472 -0.0985
72562W        W15479  15.644  14.267  14.279 -0.0697 -0.0554 -0.2283
72563W        W15480  17.101  13.708  15.974 -0.2169  0.0508  0.2669
72564W        W15481  16.662  12.612  16.511 -0.1046  0.2117 -0.0284
72565W        W15482  18.267  10.469  16.557  0.3499  0.2689 -0.1381
72566W        W15483  14.450  12.854  16.909 -0.0836 -0.1845  0.0811
72567W        W15484  13.826  12.126  17.837  0.0067  0.1011 -0.0391
72568W        W15485  13.032  13.408  18.044  0.1059 -0.1858  0.3031
72569W        W15486  14.096  13.938  13.814  0.1875 -0.1970  0.1356
72570W        W15487  14.038  12.677  16.042 -0.2619  0.0006  0.4070
72571W        W15488  14.595  10.595  15.213 -0.3361  0.0115  0.0832
72572W        W15489  13.193  11.643  17.899  0.0672 -0.2861 -0.4219
72573W        W15490  15.948  13.870  16.562  0.0012 -0.0165 -0.1476
72574W        W15491  18.711  11.643  18.485 -0.2794  0.1194  0.3239
72575W        W15492  15.219   9.868  16.892 -0.1304  0.1644 -0.2198
72576W        W15493  18.045  11.136  16.233  0.2263  0.2549  0.2444
72577W        W15494  15.627  13.974  16.165 -0.0495 -0.1349  0.1969
72578W        W15495  16.527  12.368  15.342  0.1987  0.0707  0.0768
72579W        W15496  18.427  11.757  17.081  0.1549 -0.0113 -0.0011
72580W        W15497  17.673  12.757  14.532  0.1106 -0.0591  0.1247
72581W        W15498  12.891  11.534  18.403  0.3952  0.0233 -0.1743
72582W        W15499  13.507  12.488  16.301 -0.2774  0.2978 -0.0438
72583W        W15500  15.645  10.922  17.984  0.0796  0.0464  0.2056
72584W        W15501  15.862  10.787  15.715  0.0572 -0.1867 -0.0094
72585W        W15502  17.562   9.266  17.489 -0.1751 -0.4346 -0.1117
72586W        W15503  15.595  10.130  14.648 -0.0685 -0.0894 -0.0646
72587W        W15504  18.030  12.196  16.647  0.1133  0.3337  0.0097
72588W        W15505  17.049  12.331  16.665  0.2792 -0.0603  0.0888
72589W        W15506  14.104  13.885  14.372  0.3963 -0.2010  0.0494
72590W        W15507  19.167   9.874  21.282 -0.1422  0.0402 -0.1048
72591W        W15508  14.096  15.447  16.357 -0.4472 -0.0129 -0.1609
72592W        W15509  18.313  14.173  16.641  0.0672 -0.0515 -0.0369
72593W        W15510  17.490  14.140  13.991 -0.2928 -0.0347  0.0887
72594W        W15511  14.370  10.596  19.879  0.0629  0.3549  0.0407
72595W        W15512  14.988  11.247  15.940  0.1455 -0.1700  0.2444
72596W        W15513  13.757  11.822  15.693 -0.2621 -0.2564 -0.1046
72597W        W15514  15.832  12.233  17.309 -0.0205 -0.2253  0.0496
72598W        W15515  16.137  11.669  15.757  0.0251  0.0642  0.2090
72599W        W15516  16.605  12.406  15.892  0.2340 -0.1681  0.0661
72600W        W15517  16.181  11.763  16.782  0.0232 -0.0749  0.0524
72601W        W15518  12.419  14.322  19.295 -0.0050 -0.2351 -0.1497
72602W        W15519  17.340  10.476  16.561  0.2228 -0.0677 -0.3488
72603W        W15520  17.856  13.141  14.881 -0.1010 -0.1414  0.0441
72604W        W15521  17.318  12.059  15.864 -0.1777 -0.1512  0.0976
72605W        W15522  13.695   9.233  14.973  0.2848 -0.3048 -0.2959
72606W        W15523  15.025  10.422  16.871 -0.1989 -0.2827 -0.0443
72607W        W15524  13.909  13.512  15.457 -0.0811  0.0496  0.0409
72608W        W15525  16.240  13.690  15.272  0.0203 -0.1420 -0.0433
72609W        W15526  16.448  14.449  15.119 -0.0895 -0.0690 -0.2220
72610W        W15527  19.330  12.012  17.253 -0.1478 -0.1756 -0.0939
72611W        W15528  15.364  12.410  18.612  0.0012  0.1779 -0.0693
72612W        W15529  15.792   9.474  15.834  0.1626 -0.1069 -0.0278
72613W        W15530  15.477  11.859  13.932 -0.0090 -0.5362 -0.1804
72614W        W15531  15.002  12.036  19.287  0.0332 -0.0938 -0.3340
72615W        W15532  15.481   9.978  15.661 -0.0650  0.0535  0.2466
72616W        W15533  17.562  10.590  15.352  0.1998  0.3169 -0.1523
72617W        W15534  14.964  10.149  19.124 -0.1152 -0.0712  0.0131
72618W        W15535  17.780  12.787  16.267 -0.1906 -0.2155 -0.0934
72619W        W15536  18.267  12.397  15.120  0.2128 -0.0081  0.0428
72620W        W15537  16.093  11.992  14.745 -0.0867  0.0565  0.0857
72621W        W15538  14.634  12.810  19.337 -0.2418  0.0992  0.0815
72622W        W15539  17.025  12.292  16.191 -0.4318  0.1441  0.0299
72623W        W15540  14.979  14.147  17.656 -0.1441 -0.0170 -0.0733
72624W        W15541  15.909  10.294  15.524  0.0584  0.1837  0.0009
72625W        W15542  18.548  11.986  15.005 -0.0426  0.3613 -0.0997
72626W        W15543  15.050  12.256  17.099 -0.0453 -0.3834  0.3444
72627W        W15544  15.179  11.787  18.334  0.0782  0.2918 -0.0729
72628W        W15545  15.708  14.800  14.610  0.0095 -0.5349 -0.0425
72629W        W15546  19.174  10.492  17.734 -0.2718 -0.0391 -0.4867
72630W        W15547  14.982  10.203  14.579  0.1285  0.2273  0.1398
72631W        W15548  15.718  10.016  17.537  0.0751 -0.3715 -0.1385
72632W        W15549  13.888  15.293  14.032 -0.2533 -0.1625  0.2346
72633W        W15550  17.587  10.687  16.957 -0.0707  0.1357 -0.0052
72634W        W15551  17.052  10.839  17.900  0.1048 -0.0404  0.2617
72635W        W15552  16.046  10.957  20.428  0.0868 -0.3409 -0.0256
72636W        W15553  17.431   9.808  18.934 -0.2967  0.0262 -0.1068
72637W        W15554  18.630  13.089  15.261 -0.2286 -0.0590  0.0039
72638W        W15555  17.524  11.880  17.491 -0.1695 -0.0373  0.1650
72639W        W15556  16.966  11.103  16.286 -0.0903  0.1928  0.0337
72640W        W15557  16.425  10.274  19.050  0.2138  0.0648 -0.0686
72641W        W15558  14.752  11.106  19.126  0.1488  0.0580  0.1136
72642W        W15559  14.754  13.587  18.218  0.0332  0.0552  0.0466
72643W        W15560  17.111  13.464  18.547  0.0323 -0.0591  0.2530
72644W        W15561  15.432  13.602  14.235  0.0431 -0.0144  0.0178
72645W        W15562  15.722  11.747  17.029 -0.1179  0.2472 -0.2776
72646W        W15563  18.641  11.551  16.226  0.1748  0.1082 -0.0508
72647W        W15564  17.153  16.380  14.212 -0.1465  0.1522  0.2484
72648W        W15565  16.008  13.278  15.159  0.2118  0.0500 -0.0266
72649W        W15566  14.471  10.700  17.770 -0.2128  0.0247  0.1661
72650W        W15567  17.067  14.445  15.915 -0.0800  0.2641 -0.2025
72651W        W15568  15.225  13.783  15.231  0.0269 -0.2558  0.2514
72652W        W15569  14.858  10.838  18.705  0.1071 -0.0995 -0.2006
72653W        W15570  14.524  13.290  15.902 -0.0185  0.1492  0.3007
72654W        W15571  15.107   9.598  17.842 -0.0331  0.0334 -0.0519
72655W        W15572  14.744  13.822  15.360 -0.1900 -0.0778  0.2218
72656W        W15573  15.185  12.665  14.376  0.1662 -0.2902 -0.0759
72657W        W15574  14.263  12.767  13.873  0.0136  0.4287  0.3829
72658W        W15575  14.697  10.656  17.268 -0.3244  0.3049  0.0786
72659W        W15576  17.889  12.610  15.361 -0.3017 -0.0354 -0.0204
72660W        W15577  13.517   9.440  18.238 -0.4709 -0.1022 -0.1500
72661W        W15578  15.433  11.071  15.680 -0.3028 -0.3607  0.2179
72662W        W15579  13.657  12.375  20.052 -0.0805 -0.1172 -0.1335
72663W        W15580  17.588  13.678  17.877 -0.0741 -0.0260  0.3376
72664W        W15581  17.641  11.067  15.772 -0.4754  0.0622 -0.1194
72665W        W15582  14.686   9.451  18.032  0.0416  0.2930 -0.1803
72666W        W15583  14.714  10.228  17.735  0.2877 -0.0049 -0.1911
72667W        W15584  13.923  11.508  15.309 -0.0838  0.0647  0.0120
72668W        W15585  17.107  11.679  17.223 -0.0874  0.2526 -0.3319
72669W        W15586  15.346  11.877  15.309  0.2272 -0.1159  0.4012
72670W        W15587  14.756  15.087  14.812 -0.1138 -0.3114  0.1292
72671W        W15588  14.507  12.309  17.185  0.2613  0.3566 -0.0690
72672W        W15589  15.781  12.826  15.558 -0.0443  0.0154 -0.2176
72673W        W15590  15.957  13.590  16.088 -0.0285  0.0303  0.2104
72674W        W15591  16.919   8.725  18.245  0.3247 -0.2171 -0.0077
72675W        W15592  16.245  12.024  17.181  0.0084  0.2072  0.2385
72676W        W15593  16.444  11.129  17.129  0.1727 -0.2056 -0.1086
72677W        W15594  14.059  10.456  16.667  0.0905  0.1092  0.0966
72678W        W15595  16.215  10.639  17.980  0.2350 -0.0265 -0.2130
72679W        W15596  15.855  12.024  16.522 -0.0162  0.2775  0.2284
72680W        W15597  13.785  11.953  18.627 -0.1639  0.1826  0.3103
72681W        W15598  14.853   8.735  18.531 -0.3245 -0.0006  0.1881
72682W        W15599  17.022   9.491  17.796 -0.3022 -0.1332  0.2972
72683W        W15600  18.197  12.985  15.153  0.1353 -0.0408 -0.2519
72684W        W15601  13.740  11.329  19.243  0.2129  0.0260  0.1533
72685W        W15602  15.524  13.350  15.468  0.3343  0.0854  0.1165
72686W        W15603  14.630  11.937  16.147  0.0184  0.0156  0.1232
72687W        W15604  15.483  13.569  15.904 -0.2602 -0.0256 -0.0019
72688W        W15605  16.020  10.656  16.195  0.0457 -0.1800 -0.2729
72689W        W15606  14.031  14.742  15.040 -0.0370 -0.0124 -0.1616
72690W        W15607  15.396  14.223  13.829 -0.0412  0.1065 -0.1436
72691W        W15608  14.685  12.745  17.993 -0.1695  0.0103  0.2889
72692W        W15609  17.154  10.997  15.361 -0.0204 -0.4258 -0.0918
72693W        W15610  16.500  13.218  14.889  0.1263  0.1453 -0.3449
72694W        W15611  16.739  11.334  15.666  0.3166 -0.0276 -0.4433
72695W        W15612  16.965  11.270  18.846  0.0417  0.2030 -0.0003
72696W        W15613  16.625  12.421  14.388  0.1999 -0.1358  0.0537
72697W        W15614  17.637  10.239  18.179 -0.0342 -0.0273 -0.0096
72698W        W15615  16.825   9.335  16.937 -0.1408  0.4226  0.1782
72699W        W15616  16.685  11.418  17.412  0.0052 -0.1320  0.0811
72700W        W15617  15.705  11.036  16.434  0.0716  0.1167 -0.4636
72701W        W15618  16.778  12.108  17.504 -0.3082  0.1388  0.0364
72702W        W15619  15.284  10.521  18.817 -0.1262 -0.0244  0.2295
72703W        W15620  16.927  11.817  16.668 -0.0377 -0.0345  0.3658
72704W        W15621  17.355  10.345  17.693 -0.5202 -0.0172 -0.1111
72705W        W15622  14.787  12.501  17.551  0.0683 -0.1914  0.2581
72706W        W15623  16.827  14.709  14.871  0.1593  0.1018  0.3588
72707W        W15624  15.999  12.347  15.074 -0.2186 -0.3435 -0.2448
72708W        W15625  17.686  10.691  17.867 -0.1997 -0.1264  0.1042
72709W        W15626  13.728  12.810  17.644 -0.3072 -0.0445  0.2151
72710W        W15627  16.322  11.185  14.809  0.4539  0.1011  0.0572
72711W        W15628  16.079  12.273  15.623 -0.0247  0.2296 -0.1052
72712W        W15629  14.653  11.897  16.875  0.0293  0.0156  0.1839
72713W        W15630  15.915  11.244  15.938 -0.1432  0.1811 -0.0565
72714W        W15631  16.555  13.840  14.521  0.0463  0.1926  0.1067
72715W        W15632  16.668  12.694  17.970 -0.1098  0.3315  0.2253
72716W        W15633  15.995  10.859  17.327 -0.1486  0.2046 -0.0088
72717W        W15634  15.618  10.880  16.966 -0.1681 -0.0805 -0.2743
72718W        W15635  14.958  12.358  18.900 -0.0415 -0.1283  0.0734
72719W        W15636  15.215   9.793  18.329  0.0607 -0.0149  0.1367
72720W        W15637  16.763  13.574  17.470  0.1268  0.1999 -0.1841
72721W        W15638  17.428  12.459  15.470  0.2011 -0.0150  0.2104
72722W        W15639  17.555  10.996  18.287  0.1293 -0.3164  0.0188
72723W        W15640  17.988  12.027  15.307  0.0608 -0.1162  0.2744
72724W        W15641  15.276  11.059  15.124 -0.0744  0.0355  0.0733
72725W        W15642  12.815  11.173  16.988  0.0782 -0.0417 -0.1821
72726W        W15643  19.080  10.489  19.578  0.2312  0.0210  0.0036
72727W        W15644  14.408  10.874  14.598 -0.2108  0.1943 -0.0291
72728W        W15645  16.963  10.517  19.310 -0.0518 -0.0211  0.1797
72729W        W15646  15.923  14.610  15.471  0.2338  0.1666 -0.0805
72730W        W15647  16.962  13.955  14.315 -0.4680  0.0745 -0.0249
72731W        W15648  16.537  10.622  16.978 -0.0290 -0.2886  0.0123
72732W        W15649  14.356  10.254  17.180 -0.0106 -0.0553 -0.0503
72733W        W15650  13.546  14.839  17.547 -0.1412  0.2849  0.2282
72734W        W15651  15.509  12.485  14.774 -0.1672 -0.0575  0.3589
72735W        W15652  15.372  12.978  14.724  0.3475 -0.4281  0.0104
72736W        W15653  16.651  10.178  17.236  0.1227 -0.1448  0.0744
72737W        W15654  17.302  12.404  17.554 -0.1252 -0.1947  0.2526
72738W        W15655  15.111  10.480  16.346  0.0580 -0.0576  0.0836
72739W        W15656  17.026  10.134  17.993  0.1062 -0.1090 -0.0550
72740W        W15657  15.441  13.033  14.230  0.1521 -0.0648  0.0438
72741W        W15658  16.558   8.545  17.930 -0.2198 -0.0721  0.4193
72742W        W15659  13.245  14.206  18.036 -0.3236 -0.2644  0.2832
72743W        W15660  16.472  13.261  15.447  0.6244 -0.0279 -0.0285
72744W        W15661  15.278  15.080  14.877 -0.0706  0.0540  0.0137
72745W        W15662  17.266   9.393  16.601 -0.0182 -0.0618 -0.0949
72746W        W15663  17.926  10.929  17.487 -0.1727 -0.0549 -0.0729
72747W        W15664  13.643  10.918  18.176  0.1518 -0.0944 -0.0949
72748W        W15665  17.988  11.010  18.129  0.1559  0.0994  0.0826
72749W        W15666  15.390  11.365  17.859 -0.1786 -0.2448  0.3952
72750W        W15667  16.413  14.164  16.503 -0.2609  0.1140  0.1616
72751W        W15668  16.425  13.019  18.315 -0.2612 -0.3158  0.1289
72752W        W15669  18.582   9.584  18.753  0.0912 -0.0724  0.0462
72753W        W15670  14.873  12.853  16.598  0.2207 -0.0719  0.0032
72754W        W15671  14.942  10.820  17.621 -0.0809  0.1966 -0.2635
72755W        W15672  14.667  11.715  18.274 -0.1455 -0.1939  0.0577
72756W        W15673  18.425  13.019  17.414 -0.2228 -0.1162 -0.1007
72757W        W15674  14.425   8.883  16.612 -0.0249 -0.0427 -0.0644
72758W        W15675  16.376  13.325  14.387 -0.0270  0.0185  0.2224
72759W        W15676  14.199  12.536  18.103 -0.0541  0.0978  0.0270
72760W        W15677  13.931  12.479  18.565  0.1431  0.0903  0.2316
72761W        W15678  14.937  14.113  14.874 -0.1294 -0.4349 -0.0306
72762W        W15679  16.218  14.008  14.886  0.2050 -0.0378 -0.2993
72763W        W15680  16.988  12.393  15.041 -0.0822  0.1855 -0.1770
72764W        W15681  15.579  13.015  17.468  0.1313  0.2200 -0.1969
72765W        W15682  16.368  10.420  15.259  0.1192 -0.2165 -0.2732
72766W        W15683  14.756  13.090  14.836  0.2090 -0.0730 -0.0484
72767W        W15684  13.182  16.263  14.540  0.2250 -0.0842 -0.0884
72768W        W15685  16.756  12.961  14.300  0.1288  0.0502 -0.0557
72769W        W15686  13.265  14.453  15.315  0.2615 -0.1229  0.0691
72770W        W15687  15.934  10.697  19.477 -0.1719 -0.2292  0.0795
72771W        W15688  16.992  11.570  14.756  0.4261 -0.0541 -0.1190
72772W        W15689  16.394  14.481  15.624  0.0900 -0.1564  0.3209
72773W        W15690  18.901  12.082  16.389  0.2036  0.2779 -0.1232
72774W        W15691  16.381  11.835  17.672  0.0690 -0.0093 -0.2116
72775W        W15692  16.577  11.337  16.218 -0.0694  0.1437  0.0791
72776W        W15693  17.193  11.514  15.227  0.0217 -0.1138 -0.1519
72777W        W15694  15.227  11.010  19.995 -0.1405  0.2002 -0.0368
72778W        W15695  19.538  11.348  19.296 -0.0825 -0.0981 -0.1609
72779W        W15696  13.423  12.207  18.357 -0.2302 -0.0709  0.1782
72780W        W15697  18.355  13.841  13.969  0.1072 -0.1195  0.1559
72781W        W15698  14.994  12.224  14.556 -0.0169  0.1071 -0.2901
72782W        W15699  15.409  11.354  16.868 -0.0063 -0.1273  0.1568
72783W        W15700  18.899  10.333  15.908 -0.5249  0.1545 -0.1345
72784W        W15701  14.029  13.081  14.188  0.1034 -0.3524 -0.2124
72785W        W15702  16.823  11.290  17.986 -0.1077  0.2559  0.1660
72786W        W15703  16.197  12.866  16.474 -0.0981 -0.0824  0.0668
72787W        W15704  14.126  11.206  17.131  0.0007  0.2057  0.2521
72788W        W15705  16.567  13.873  16.994 -0.0553 -0.0991  0.0251
72789W        W15706  14.558  11.467  16.077 -0.1064 -0.1332  0.0785
72790W        W15707  18.150  11.606  16.151  0.0650  0.1537 -0.1712
72791W        W15708  16.295  10.527  15.734 -0.0332  0.2297  0.1388
72792W        W15709  17.719  10.746  20.779  0.2146 -0.2209  0.2329
72793W        W15710  14.483  12.749  15.722 -0.0471  0.1034 -0.1025
72794W        W15711  16.555  12.334  18.900 -0.1487  0.0311  0.0106
72795W        W15712  16.583  13.110  16.727  0.3943 -0.0071 -0.1566
72796W        W15713  16.084  11.097  18.169  0.0811  0.1750 -0.0318
72797W        W15714  16.109  11.362  15.314 -0.0032 -0.1366 -0.2644
72798W        W15715  17.163  11.454  18.429  0.3453  0.0949  0.0555
72799W        W15716  14.840  11.874  15.086  0.1878 -0.1214 -0.3032
72800W        W15717  16.140  14.199  16.970 -0.0473  0.1574  0.0943
72801W        W15718  16.055  11.290  17.676 -0.1870  0.0299  0.1999
72802W        W15719  15.379   9.494  18.644  0.0667  0.1774 -0.0143
72803W        W15720  15.232  10.886  16.626 -0.0104  0.1092 -0.1103
72804W        W15721  13.425  10.467  18.248 -0.0210 -0.2920 -0.1185
72805W        W15722  17.096  14.275  17.999 -0.1238  0.1296  0.0923
72806W        W15723  14.258  11.856  16.487 -0.0021 -0.1508  0.2041
72807W        W15724  17.538  12.711  15.010  0.4214 -0.1696  0.2548
72808W        W15725  16.312  10.206  17.691  0.2907 -0.0062 -0.0056
72809W        W15726  13.335  14.188  14.124  0.0792 -0.2326 -0.2671
72810W        W15727  17.930  11.404  14.851  0.0891 -0.1668 -0.0193
72811W        W15728  16.445  12.245  19.462 -0.1987 -0.0608  0.2273
72812W        W15729  14.737  10.998  16.818 -0.2563  0.0090  0.1988
72813W        W15730  16.406  12.897  17.621  0.0018 -0.1374 -0.0581
72814W        W15731  17.824  12.339  17.710  0.1192 -0.2126 -0.1011
72815W        W15732  14.887  10.943  15.481 -0.0571  0.0043  0.0523
72816W        W15733  14.992  11.971  16.565 -0.0364  0.0765  0.1026
72817W        W15734  14.599  13.772  16.072 -0.1753 -0.0604  0.1664
72818W        W15735  17.487  13.270  17.113  0.1891 -0.0181 -0.1526
72819W        W15736  15.503  10.895  17.520 -0.2427  0.2322 -0.2288
72820W        W15737  14.566  13.888  14.595  0.3189 -0.3892  0.1170
72821W        W15738  17.487   9.832  17.918  0.0364 -0.3438  0.1242
72822W        W15739  14.911  12.249  18.369  0.0152 -0.4419 -0.1131
72823W        W15740  12.887  12.866  14.612  0.1024 -0.1035  0.0492
72824W        W15741  15.893  13.320  14.183 -0.0026  0.0543 -0.0329
72825W        W15742  16.500  12.181  16.654  0.2034  0.3353  0.0437
72826W        W15743  15.598  13.096  15.946  0.3124  0.0267 -0.0213
72827W        W15744  14.965  12.735  17.065 -0.1005  0.1261  0.2330
72828W        W15745  15.641  10.565  16.555 -0.0427 -0.3050  0.4242
72829W        W15746  15.646  11.580  15.664 -0.1707  0.0772 -0.0769
72830W        W15747  15.673  13.614  15.082  0.0053  0.1062  0.3522
72831W        W15748  14.377   9.772  16.962 -0.0249  0.1505 -0.0338
72832W        W15749  18.278  10.953  16.787 -0.3088  0.0074  0.0249
72833W        W15750  18.004  10.935  15.376  0.0459  0.0038  0.2529
72834W        W15751  14.802  13.842  18.711  0.2460  0.1360 -0.1014
72835W        W15752  14.378  13.484  14.951 -0.2215  0.1533  0.0257
72836W        W15753  15.276  12.512  16.731 -0.0465  0.0444 -0.4337
72837W        W15754  16.647  10.973  17.646 -0.0691 -0.3773 -0.2261
72838W        W15755  17.047   8.744  20.575  0.0028  0.0951 -0.2690
72839W        W15756  14.191  11.373  19.794 -0.1054  0.1755  0.1020
72840W        W15757  15.922  11.592  18.068 -0.1989  0.0440  0.0379
72841W        W15758  13.754  12.137  13.870  0.0641  0.0825  0.0073
72842W        W15759  16.719  13.668  14.993  0.0854  0.2222 -0.0044
72843W        W15760  13.860  11.938  17.254 -0.1234 -0.4097 -0.3579
72844W        W15761  14.528  10.426  16.263 -0.1199  0.2513  0.2544
72845W        W15762  15.711  14.617  13.894  0.0131 -0.4389  0.0223
72846W        W15763  17.090  11.175  17.573 -0.1037  0.1682  0.1305
72847W        W15764  15.622  11.415  15.198  0.0418  0.2127  0.1436
72848W        W15765  17.569  13.666  15.691  0.1815 -0.0911  0.2511
72849W        W15766  14.121  14.260  14.751 -0.2958  0.1485 -0.0416
72850W        W15767  18.716  11.884  19.288  0.0612 -0.3130  0.0761
72851W        W15768  14.287   9.862  19.496  0.2125  0.1267  0.0509
72852W        W15769  15.245  11.818  14.398  0.2997 -0.1132 -0.0402
72853W        W15770  16.136  12.458  16.805  0.1076 -0.0180 -0.0072
72854W        W15771  16.745  14.208  14.823  0.1089  0.2130  0.1451
72855W        W15772  17.908  13.949  13.777 -0.0221 -0.1952 -0.0939
72856W        W15773  14.360  12.737  17.561 -0.0901  0.0601 -0.2992
72857W        W15774  14.115  11.951  18.151 -0.1331 -0.1362 -0.1647
72858W        W15775  14.295  11.494  17.934  0.4220  0.0024  0.3203
72859W        W15776  16.506  12.708  14.771 -0.4131 -0.2146 -0.1904
72860W        W15777  15.753  12.712  18.937  0.2163 -0.0353  0.2002
72861W        W15778  15.730  12.878  15.053  0.2165 -0.5011 -0.0283
72862W        W15779  17.952   9.586  16.229  0.1765  0.2325 -0.0605
72863W        W15780  17.754  13.181  15.965  0.1200 -0.0418  0.3113
72864W        W15781  14.139   9.441  19.300 -0.1269  0.0413 -0.0963
72865W        W15782  13.331  11.286  18.943 -0.0988 -0.3217  0.0046
72866W        W15783  16.990  11.733  17.756 -0.2184 -0.1916  0.0294
72867W        W15784  15.517  11.441  16.137 -0.1876  0.2358  0.0946
72868W        W15785  17.395  10.824  17.438 -0.0432 -0.1958 -0.0018
72869W        W15786  17.695  15.720  15.461  0.1219 -0.1824  0.0984
72870W        W15787  14.757  12.843  15.330 -0.3112 -0.1180 -0.0812
72871W        W15788  15.998  13.243  15.727  0.2758 -0.0674  0.2670
72872W        W15789  16.617   9.807  19.096 -0.0181  0.0639  0.0060
72873W        W15790  15.175  13.168  15.745 -0.1996  0.2174 -0.0948
72874W        W15791  18.183  12.772  19.065 -0.2622 -0.0352  0.2803
72875W        W15792  16.104  13.409  16.527  0.1059 -0.0642  0.2743
72876W        W15793  17.801  11.969  16.137 -0.0628  0.0103 -0.2523
72877W        W15794  17.176  14.394  17.172  0.0723  0.1118  0.1877
72878W        W15795  16.218  14.059  17.448 -0.0487 -0.1785  0.0557
72879W        W15796  13.504  13.966  15.168  0.1602  0.0919  0.2300
72880W        W15797  18.214  12.700  17.774 -0.1628  0.0944 -0.0622
72881W        W15798  14.584   9.667  16.326 -0.2942  0.0083 -0.1614
72882W        W15799  15.507  12.161  16.951 -0.0045  0.1891  0.1774
72883W        W15800  15.450  13.951  17.815 -0.1904 -0.0550 -0.2618
72884W        W15801  18.297  10.541  17.136 -0.0743  0.2914 -0.0825
72885W        W15802  14.995  11.331  17.467 -0.0707 -0.0207 -0.0342
72886W        W15803  18.078  11.916  14.786  0.0500  0.1399  0.1736
72887W        W15804  16.115  14.173  16.095  0.0558  0.0738 -0.0485
72888W        W15805  17.128  13.846  15.280 -0.0160 -0.1734  0.0924
72889W        W15806  14.314  11.515  21.349 -0.1073 -0.2963  0.1222
72890W        W15807  12.208  12.683  18.791  0.0201 -0.0576 -0.3869
72891W        W15808  17.147  10.432  18.390  0.0246 -0.3393 -0.1267
72892W        W15809  20.058  11.990  22.008 -0.2702 -0.1044 -0.0490
72893W        W15810  13.573  10.471  20.931  0.0558 -0.0800  0.1483
72894W        W15811  15.993  12.370  19.210 -0.3151 -0.1613  0.1040
72895W        W15812  13.989  10.706  22.356 -0.2093  0.4343 -0.0923
72896W        W15813  18.259  12.420  18.676 -0.3147 -0.0741  0.2162
72897W        W15814  19.925  13.483  19.084 -0.0305  0.5199 -0.2283
72898W        W15815  14.597  11.147  18.394  0.2774  0.1832  0.0341
72899W        W15816  17.491  11.772  20.453 -0.0109 -0.0617 -0.1911
72900W        W15817  11.883  13.515  19.540 -0.1655 -0.3919  0.0399
72901W        W15818  15.933  10.359  21.330  0.0390  0.3139  0.1227
72902W        W15819  13.492  10.047  22.301  0.3375  0.2400 -0.0882
72903W        W15820  16.869  10.881  20.185  0.0757 -0.5210  0.0417
72904W        W15821  14.027  13.044  18.545  0.0021 -0.0352  0.2059
72905W        W15822  14.716  10.061  21.407  0.0907  0.0914 -0.0687
72906W        W15823  14.773   9.402  20.793 -0.2174  0.1759 -0.0417
72907W        W15824  17.069  13.706  17.118 -0.1827  0.2297 -0.0557
72908W        W15825  17.446  10.793  21.271  0.0614  0.4457  0.0950
72909W        W15826  17.173  11.009  24.140  0.1107  0.2187 -0.0843
72910W        W15827  16.083  14.236  17.869  0.1607 -0.5454  0.0073
72911W        W15828  12.448  11.489  19.788  0.3404  0.2425  0.1735
72912W        W15829  13.148  10.744  20.804 -0.1393  0.1879 -0.0598
72913W        W15830  16.840  10.231  20.421 -0.0815 -0.0809 -0.3053
72914W        W15831  15.096  11.284  20.393  0.1025  0.4836 -0.1580
72915W        W15832  15.195  11.086  19.437 -0.0053 -0.1446 -0.1828
72916W        W15833  13.888  13.538  18.551  0.1186  0.2345 -0.2254
72917W        W15834  16.109  13.091  16.909 -0.3492 -0.1152 -0.3320
72918W        W15835  16.552  11.028  23.149 -0.0997 -0.2443 -0.0560
72919W        W15836  13.239  13.669  20.062  0.1676  0.1101  0.4721
72920W        W15837  13.805  15.902  18.162  0.3723  0.5421 -0.3883
72921W        W15838  14.451  11.099  17.464  0.0716  0.2534 -0.4094
72922W        W15839  18.759  13.922  18.659 -0.1638  0.2722  0.2248
72923W        W15840  18.098  13.952  19.427 -0.1977 -0.1163 -0.2116
72924W        W15841  15.285  14.727  18.470 -0.2623 -0.0907  0.0496
72925W        W15842  12.937  13.463  17.344 -0.0667 -0.2019 -0.0769
72926W        W15843  14.316  13.928  18.408  0.1856 -0.0788  0.2873
72927W        W15844  15.068  12.649  19.946  0.2264  0.1335  0.2434
72928W        W15845  14.990  10.863  21.332  0.1101  0.5513  0.1702
72929W        W15846  14.800  13.733  17.228 -0.0493 -0.3645  0.1280
72930W        W15847  15.290  11.998  19.723 -0.0084 -0.0558  0.2007
72931W        W15848  14.940  13.771  20.609  0.2317  0.1280  0.2226
72932W        W15849  14.654  13.298  19.137  0.1111  0.0593 -0.1627
72933W        W15850  19.181  11.638  23.232 -0.0482  0.0256  0.4291
72934W        W15851  14.582  12.557  19.818  0.1548  0.0106 -0.2619
72935W        W15852  16.249  10.184  18.323 -0.0293 -0.1325 -0.3215
72936W        W15853  15.423  10.509  17.822 -0.2678  0.1226 -0.0376
72937W        W15854  18.215   9.708  19.461  0.0457 -0.3215 -0.1859
72938W        W15855  15.054  10.289  22.578 -0.0874  0.2664  0.2322
72939W        W15856  14.475  10.691  18.368 -0.1994 -0.0308  0.1221
72940W        W15857  16.076  11.641  20.890  0.2161 -0.1506  0.0707
72941W        W15858  18.630  13.304  21.251 -0.0304  0.2188  0.1256
72942W        W15859  15.042  11.026  18.056 -0.2108 -0.1414 -0.1469
72943W        W15860  15.018  11.195  22.200 -0.0578 -0.0012 -0.0681
72944W        W15861  15.866  13.018  21.632 -0.1139  0.0125 -0.1687
72945W        W15862  12.308  12.216  18.885  0.1332 -0.0645  0.3251
72946W        W15863  16.889  13.157  17.767  0.1386 -0.0588  0.5580
72947W        W15864  17.335  12.872  18.352 -0.1966 -0.2421 -0.2005
72948W        W15865  16.928  14.595  16.355  0.0131  0.1117 -0.1645
72949W        W15866  15.633   9.792  20.480  0.0463 -0.2141  0.1939
72950W        W15867  15.176  12.843  23.963  0.0094 -0.4588 -0.0105
72951W        W15868  12.784  12.584  22.739 -0.0248 -0.3203  0.1432
72952W        W15869  15.971   9.595  19.972 -0.0098 -0.2137 -0.1316
72953W        W15870  17.407  12.522  20.238  0.0043 -0.0530  0.0810
72954W        W15871  14.880  13.916  21.737 -0.0917  0.0574 -0.0522
72955W        W15872  17.810  10.404  21.569 -0.0543 -0.0096  0.1425
72956W        W15873  14.035  10.530  21.186 -0.0922 -0.1339 -0.1635
72957W        W15874  17.655  12.972  20.015  0.0324  0.0248  0.2679
72958W        W15875  17.436  12.045  18.574  0.1064 -0.0250 -0.4094
72959W        W15876  16.535   9.804  21.036  0.0191  0.1382 -0.1429
72960W        W15877  19.019   8.792  21.274  0.1159  0.2976 -0.2737
72961W        W15878  16.128  11.468  18.566 -0.0592 -0.0757  0.0776
72962W        W15879  15.037  11.360  18.641  0.1941 -0.0855 -0.3252
72963W        W15880  19.141  13.476  21.052 -0.1704  0.3310 -0.1093
72964W        W15881  17.846  11.135  19.682 -0.0462 -0.0766  0.0309
72965W        W15882  13.809  13.438  19.523 -0.1924  0.0951 -0.1493
72966W        W15883  16.069  11.593  21.898 -0.0190  0.0543  0.2705
72967W        W15884  14.427  11.904  20.099 -0.0396 -0.2692  0.0035
72968W        W15885  13.118  14.705  17.128  0.0015  0.2023 -0.0802
72969W        W15886  12.376  10.043  19.413 -0.2877 -0.0763  0.4287
72970W        W15887  16.724  11.878  19.721 -0.4765  0.1615  0.0587
72971W        W15888  14.473  11.918  19.115  0.1642 -0.1624  0.2628
72972W        W15889  14.460  10.772  19.424 -0.0172 -0.1839  0.2894
72973W        W15890  18.981  10.013  21.715  0.3313 -0.2251  0.0767
72974W        W15891  16.312  10.356  21.740 -0.1321  0.1541  0.1272
72975W        W15892  18.369  11.537  21.513  0.2999  0.1228 -0.0796
72976W        W15893  13.531  14.051  18.648 -0.0937  0.0980  0.3151
72977W        W15894  17.765  14.962  18.225 -0.1571 -0.0373  0.0403
72978W        W15895  17.979  10.624  19.568 -0.3729 -0.0719  0.2340
72979W        W15896  16.431  12.774  17.107  0.0862  0.0350 -0.1731
72980W        W15897  15.377  12.345  20.888 -0.1896 -0.0252 -0.1207
72981W        W15898  13.093  11.188  19.818  0.0192 -0.2468 -0.1147
72982W        W15899  13.124  10.674  20.094 -0.2639 -0.1861  0.1771
72983W        W15900  16.222  11.344  21.431  0.2982 -0.1404 -0.0963
72984W        W15901  19.116  10.973  20.762 -0.2794 -0.0938 -0.0389
72985W        W15902  15.842   9.340  19.487  0.2616  0.2248 -0.0786
72986W        W15903  15.707  10.467  20.290 -0.1541  0.1674  0.0151
72987W        W15904  15.222  10.142  21.130  0.1163  0.1545  0.0063
72988W        W15905  12.483   9.979  19.889  0.0014 -0.0687  0.3587
72989W        W15906  16.950  10.464  20.876 -0.0995  0.3020 -0.1383
72990W        W15907  15.436  13.019  19.805  0.0578 -0.2947  0.1461
72991W        W15908  19.910  11.127  21.490 -0.2969 -0.1141  0.1267
72992W        W15909  18.456  13.232  16.931  0.0858  0.0255 -0.0052
72993W        W15910  16.867  10.752  21.417  0.1660 -0.0755 -0.0969
72994W        W15911  14.837  11.884  17.447  0.0298  0.1104  0.3660
72995W        W15912  13.794  14.372  17.399 -0.0504  0.0614 -0.1799
72996W        W15913  14.668  11.516  19.964  0.0464  0.0671 -0.0587
72997W        W15914  16.195  10.152  19.786  0.1764  0.0145  0.1684
72998W        W15915  18.321  14.450  18.612  0.1979 -0.3489  0.7070
72999W        W15916  16.297  12.461  18.432  0.1302  0.0103  0.0239
73000W        W15917  14.355  13.675  19.911  0.1705 -0.2790  0.0653
73001W        W15918  17.025  10.432  22.186 -0.2612  0.1452 -0.0048
73002W        W15919  16.456  10.991  19.875  0.2800 -0.0863  0.3414
73003W        W15920  15.337  11.876  21.132  0.2817 -0.0902  0.0782
73004W        W15921  16.234   9.881  18.853  0.0287  0.0952  0.0088
73005W        W15922  16.816  12.675  17.436 -0.2342  0.0964 -0.1406
73006W        W15923  16.579  14.045  17.886 -0.2854  0.1675 -0.0621
73007W        W15924  12.243  11.894  20.710 -0.1378 -0.1068  0.0187
73008W        W15925  15.782  12.344  20.190  0.2055 -0.4578 -0.0073
73009W        W15926  18.934  12.601  21.604 -0.1335 -0.3937 -0.0944
73010W        W15927  15.396  12.820  20.789 -0.1383 -0.0355 -0.0494
73011W        W15928  15.304  10.220  20.464 -0.2494  0.0886  0.0565
73012W        W15929  14.938  10.674  19.274  0.0231  0.1547 -0.2135
73013W        W15930  13.669  13.484  20.483 -0.0885  0.0507 -0.3094
73014W        W15931  15.597   9.449  22.557 -0.2813  0.1386  0.0761
73015W        W15932  19.876  12.777  18.576  0.0904  0.2861 -0.1087
73016W        W15933  14.012  11.656  19.008 -0.2422 -0.0548 -0.0079
73017W        W15934  15.441  10.046  18.721  0.2854 -0.1530 -0.1213
73018W        W15935  17.801  11.676  19.782  0.1448  0.0080 -0.1013
73019W        W15936  16.440  11.034  18.656 -0.0770  0.1316 -0.1389
73020W        W15937  14.055  12.439  21.696 -0.0379  0.0053 -0.5351
73021W        W15938  16.920  12.000  18.761 -0.4725 -0.0326 -0.1776
73022W        W15939  14.572  12.895  20.216 -0.1072 -0.2029 -0.1423
73023W        W15940  17.517  11.282  21.038 -0.0413 -0.2058  0.0198
73024W        W15941  18.817  12.754  19.463 -0.1590  0.0453 -0.4006
73025W        W15942  13.204  12.026  19.360  0.0146 -0.1682 -0.1830
73026W        W15943  15.901  12.895  18.474 -0.0888 -0.1945 -0.0505
73027W        W15944  17.183  11.421  21.868  0.2145  0.0556  0.0799
73028W        W15945  16.340  11.940  18.560 -0.1663 -0.2904  0.1476
73029W        W15946  17.308  10.000  20.394 -0.0320  0.0539 -0.2195
73030W        W15947  13.428  13.520  17.392 -0.2453 -0.1477 -0.0859
73031W        W15948  17.653  10.580  22.021  0.0428  0.1568  0.2466
73032W        W15949  17.884  10.399  22.405  0.2078 -0.3685 -0.0643
73033W        W15950  15.198  12.803  22.469 -0.0185 -0.1253  0.1360
73034W        W15951  17.950  10.872  21.458  0.0034 -0.0888  0.1686
73035W        W15952  18.208  10.861  19.962  0.1158  0.1297 -0.2212
73036W        W15953  15.128  11.753  20.128 -0.0281  0.0151 -0.0646
73037W        W15954  13.663  11.372  19.722 -0.1346  0.0707 -0.0961
73038W        W15955  16.857  11.738  21.707 -0.0573 -0.1209 -0.1342
73039W        W15956  14.882  12.854  21.524 -0.1678 -0.2493  0.0900
73040W        W15957  14.066  14.538  19.672  0.0928 -0.2744 -0.0223
73041W        W15958  16.763  10.753  18.929  0.0122 -0.0698 -0.3023
73042W        W15959  15.286  11.513  19.767 -0.1515  0.3236  0.2315
73043W        W15960  16.713  11.497  23.616  0.0927 -0.2972  0.2625
73044W        W15961  17.418  11.696  19.382 -0.2336 -0.1447 -0.0883
73045W        W15962  14.821  11.823  18.709  0.3060 -0.1103 -0.0166
73046W        W15963  15.680  12.569  17.733  0.1021  0.2655 -0.1404
73047W        W15964  14.560  10.360  22.403  0.1816  0.1603 -0.2754
73048W        W15965  17.398  12.153  19.098  0.0478 -0.1353 -0.1229
73049W        W15966  14.282  11.008  18.935  0.0102  0.0742 -0.3033
73050W        W15967  15.885  10.864  21.386 -0.0667  0.2130  0.2727
73051W        W15968  15.238  14.453  17.299 -0.2022  0.1802  0.0106
73052W        W15969  18.771  11.574  22.101  0.1125 -0.1746 -0.1413
73053W        W15970  13.430  12.802  18.484 -0.2686  0.0542 -0.3616
73054W        W15971  16.550  10.162  20.769 -0.1588 -0.0778 -0.2859
73055W        W15972  13.820  11.990  21.586 -0.0613 -0.0941  0.1923
73056W        W15973  17.788   9.811  20.881 -0.0285 -0.0197  0.1909
73057W        W15974  17.118  10.909  18.443  0.4235 -0.2273 -0.1181
73058W        W15975  15.244  11.082  21.764  0.2732 -0.0236 -0.0984
73059W        W15976  14.400  10.249  20.997  0.1473 -0.2005  0.0764
73060W        W15977  14.504  12.928  18.816  0.0161 -0.1383  0.0845
73061W        W15978  17.243  11.659  18.933  0.2950 -0.1422 -0.2174
73062W        W15979  17.567  10.009  21.298 -0.3915 -0.0459 -0.2026
73063W        W15980  18.432  12.514  20.426  0.2290 -0.0354  0.0748
73064W        W15981  14.293  12.050  21.372 -0.1025  0.0412 -0.4354
73065W        W15982  14.843  10.229  20.093  0.0256 -0.0624  0.0966
73066W        W15983  17.767  11.373  19.215 -0.0707 -0.4127 -0.2457
73067W        W15984  15.623  11.767  21.775 -0.3859  0.1277 -0.0731
73068W        W15985  15.220  10.164  19.624 -0.2010  0.0334  0.0953
73069W        W15986  14.120  13.197  17.629 -0.1906  0.1694  0.1296
73070W        W15987  14.736   8.714  19.535  0.0075 -0.0087  0.1012
73071W        W15988  13.601  13.160  18.842 -0.2481  0.0933 -0.3213
73072W        W15989  14.096  12.059  20.538 -0.0986 -0.1287  0.3132
73073W        W15990  15.597  11.346  18.830  0.1603 -0.0594  0.4392
73074W        W15991  16.629  10.279  21.326 -0.2708  0.2391  0.0028
73075W        W15992  16.545  10.689  20.450 -0.4874  0.1016 -0.1739
73076W        W15993  13.938  11.076  20.103  0.0004  0.0607 -0.0913
73077W        W15994  15.312  12.217  20.174  0.0588 -0.1484  0.0917
73078W        W15995  15.529  11.376  20.167 -0.0075  0.1509  0.1951
73079W        W15996  14.863  12.238  20.998 -0.2292  0.2229 -0.4035
73080W        W15997  16.467  10.669  21.015  0.1172  0.2016 -0.3623
73081W        W15998  19.653  13.970  18.908 -0.2919  0.0072  0.1309
73082W        W15999  17.302  12.478  21.876  0.3151  0.0789 -0.3369
73083W        W16000  13.566  11.797  19.102  0.0177 -0.0604 -0.0514
73084W        W16001  13.786  12.859  20.131 -0.2155 -0.2445  0.1536
73085W        W16002  14.326  12.308  20.883 -0.0815 -0.0889 -0.1778
73086W        W16003  16.216  11.067  20.876 -0.0252 -0.0944  0.0533
73087W        W16004  15.205  12.434  17.972 -0.2223 -0.1159  0.1763
73088W        W16005  15.447  12.766  19.351  0.0522 -0.1518  0.0486
73089W        W16006  14.923  13.734  19.198 -0.0470 -0.1466  0.0917
73090W        W16007  18.269  11.723  19.413 -0.1095  0.1484 -0.2249
73091W        W16008  16.018   9.390  17.965 -0.0889 -0.0332 -0.2260
73092W        W16009  16.747  11.209  21.677  0.0168 -0.0824 -0.1234
73093W        W16010  18.699  11.533  22.600 -0.4722  0.0522 -0.0227
73094W        W16011  17.511  10.828  19.540  0.0755  0.0813  0.2031
73095W        W16012  16.977  10.815  22.704 -0.2328  0.0369 -0.0040
73096W        W16013  13.555  10.515  22.144  0.0175 -0.1461  0.0987
73097W        W16014  17.239  10.806  18.974 -0.1072 -0.1409 -0.0211
73098W        W16015  14.223  13.104  21.478 -0.1525 -0.0162 -0.2442
73099W        W16016  14.393  11.803  22.907  0.0448  0.0692 -0.0207
73100W        W16017  15.686  11.035  19.216 -0.2196 -0.6904  0.1014
73101W        W16018  11.949  11.014  19.879  0.1076 -0.2870 -0.1096
73102W        W16019  12.916  13.582  19.263 -0.1559  0.0915  0.3138
73103W        W16020  18.921  13.769  20.518  0.0597 -0.1147 -0.0143
73104W        W16021  14.945  10.527  18.128 -0.2089 -0.2631  0.0466
73105W        W16022  16.143  10.604  20.024  0.0480 -0.3194 -0.1141
73106W        W16023  14.593  11.805  20.984  0.2540 -0.1187  0.1819
73107W        W16024  16.527  11.389  18.947  0.1488  0.1748 -0.1469
73108W        W16025  18.183  11.491  18.113  0.2930 -0.0397 -0.2146
73109W        W16026  14.485  11.452  18.869 -0.1111  0.1249  0.1502
73110W        W16027  16.110  11.070  23.514  0.3106 -0.3179 -0.2868
73111W        W16028  15.828  11.851  17.633 -0.2405  0.3021  0.0750
73112W        W16029  15.691   9.762  21.840  0.0738 -0.2391 -0.0462
73113W        W16030  17.396  11.734  21.533 -0.1714  0.2016  0.0318
73114W        W16031  18.080  11.889  20.813 -0.1559  0.0050 -0.3147
73115W        W16032  14.439  10.696  20.873 -0.2055  0.2451  0.0565
73116W        W16033  16.272  11.133  21.869 -0.1622 -0.2582  0.2373
73117W        W16034  18.914  12.823  20.426  0.2310  0.0892 -0.0248
73118W        W16035  18.659  10.242  21.996 -0.3442  0.0128 -0.0623
73119W        W16036  16.924  11.863  18.275  0.0831 -0.4581 -0.1675
73120W        W16037  18.090  12.327  22.084  0.1242  0.0823 -0.1686
73121W        W16038  15.882  10.765  21.895 -0.1461 -0.1805  0.0048
73122W        W16039  14.333  10.108  20.447  0.2206  0.0762  0.2846
73123W        W16040  17.286  11.963  22.003  0.2248 -0.3455 -0.1342
73124W        W16041  14.778   9.639  17.494 -0.3018 -0.1203 -0.1876
73125W        W16042  16.291  12.960  21.902 -0.0277  0.3000  0.1378
73126W        W16043  15.753  13.671  18.589 -0.2972 -0.2788 -0.2310
73127W        W16044  16.513  10.625  19.562 -0.1490  0.3408  0.2584
73128W        W16045  16.866  10.455  17.643  0.2537 -0.3690 -0.0597
73129W        W16046  14.849  11.676  22.746 -0.2779 -0.1184  0.1864
73130W        W16047  13.328  12.453  21.963  0.2603 -0.0914 -0.0332
73131W        W16048  13.624  12.326  19.426 -0.0027 -0.2021 -0.1925
73132W        W16049  15.444  10.616  19.491  0.1031  0.2284  0.1603
73133W        W16050  17.799  12.987  19.560  0.4290 -0.0560 -0.0825
73134W        W16051  17.771  12.701  21.872 -0.2918  0.1674 -0.3676
73135W        W16052  16.066   9.938  20.737 -0.2232 -0.1672  0.2174
73136W        W16053  19.261  10.273  23.424  0.3556  0.0946  0.1472
73137W        W16054  11.575  13.934  17.579 -0.1397 -0.1199 -0.3877
73138W        W16055  17.609  11.216  21.570  0.5401  0.1911 -0.4576
73139W        W16056  12.558  13.333  19.642 -0.1101  0.0777 -0.0423
73140W        W16057  13.017  12.335  22.358  0.0404 -0.1837  0.2103
73141W        W16058  15.380  11.673  19.269  0.1631  0.0637 -0.2430
73142W        W16059  15.431  10.594  21.093  0.0418 -0.2529 -0.1039
73143W        W16060  18.886  10.544  21.548  0.0136  0.0028  0.1905
73144W        W16061  14.225  11.438  20.815  0.2793 -0.0595 -0.2737
73145W        W16062  20.107  12.133  22.539  0.0853 -0.0058  0.0076
73146W        W16063  16.578  12.232  18.081  0.0564  0.1085  0.3908
73147W        W16064  17.112   9.414  19.686  0.2960  0.1144  0.0489
73148W        W16065  17.552  13.835  19.183  0.0383  0.1765  0.0305
73149W        W16066  16.235  12.725  18.880 -0.0893 -0.2920  0.3702
73150W        W16067  15.120  11.963  20.612  0.1693 -0.1957 -0.0879
73151W        W16068  13.877  13.510  21.463 -0.2115 -0.0267  0.0101
73152W        W16069  15.765  11.513  19.585  0.5167 -0.1134  0.2517
73153W        W16070  15.834  11.790  18.877 -0.0869 -0.0014 -0.2119
73154W        W16071  14.104  11.050  18.389  0.1363  0.1958  0.1386
73155W        W16072  15.238  15.051  17.871  0.0072 -0.1948  0.1044
73156W        W16073  15.133  12.587  21.953 -0.2164 -0.3351 -0.0048
73157W        W16074  14.690  11.219  21.616  0.1632 -0.2397 -0.0718
73158W        W16075  13.655  15.316  19.294 -0.2021  0.0563  0.1440
73159W        W16076  16.870  12.164  19.223 -0.0907  0.0073  0.0747
73160W        W16077  15.381  10.339  18.343 -0.1375  0.1167  0.0599
73161W        W16078  15.973  13.329  17.391 -0.0718  0.0219 -0.2422
73162W        W16079  16.497   9.150  18.285 -0.1303  0.1901 -0.0604
73163W        W16080  14.449  13.431  18.584  0.2132 -0.0453 -0.1751
73164W        W16081  13.722  12.370  17.442 -0.0226  0.3823 -0.2007
73165W        W16082  16.712  11.433  18.481  0.2175 -0.2364 -0.2334
73166W        W16083  15.420  14.106  18.605  0.0934 -0.2352  0.1990
73167W        W16084  17.512  12.632  18.738 -0.1388  0.1605 -0.1491
73168W        W16085  19.701  11.586  20.241  0.3415 -0.0108  0.1554
73169W        W16086  16.603  11.868  20.302  0.1787 -0.0049  0.0304
73170W        W16087  18.756  10.395  17.218  0.0333  0.1167 -0.0536
73171W        W16088  16.303  11.996  21.769  0.0139  0.3057 -0.2686
73172W        W16089  14.719   9.250  21.402 -0.2039 -0.3039  0.2076
73173W        W16090  13.801  10.942  21.953  0.0597 -0.0101  0.1009
73174W        W16091  18.205  10.813  22.748 -0.0406  0.2063 -0.0070
73175W        W16092  14.183  14.860  21.681  0.1559  0.0586 -0.1455
73176W        W16093  16.402  13.375  17.886 -0.0444  0.0954  0.1011
73177W        W16094  14.760   9.772  19.355 -0.1774  0.0292  0.2527
73178W        W16095  13.521  10.469  19.795  0.2657  0.0613  0.2046
73179W        W16096  18.806   9.736  23.680 -0.1870 -0.1807  0.0030
73180W        W16097  15.453  11.971  17.927 -0.1257 -0.2469 -0.0474
73181W        W16098  16.154  11.126  19.513  0.3074 -0.0063  0.4899
73182W        W16099  15.059  14.268  15.384  0.1235  0.2500  0.3128
73183W        W16100  14.473  14.435  18.591  0.0820 -0.0035 -0.1515
73184W        W16101  14.842  13.594  19.720  0.0208  0.0118  0.0578
73185W        W16102  13.957  10.368  20.159 -0.3559 -0.0230 -0.1750
73186W        W16103  18.476  10.955  21.433  0.4568  0.2045 -0.2118
73187W        W16104  16.627  11.260  21.172  0.0363 -0.3199 -0.0468
73188W        W16105  18.710  11.907  21.584  0.1664  0.2476 -0.0368
73189W        W16106  15.031  12.877  19.033 -0.1972  0.0169 -0.1653
73190W        W16107  17.502  11.217  18.831  0.3772  0.1407  0.0573
73191W        W16108  15.675  11.870  20.018  0.0439  0.3048 -0.1899
73192W        W16109  14.454  12.608  21.301  0.2026  0.2533 -0.1715
73193W        W16110  17.918  12.222  20.497  0.0460  0.0968  0.1529
73194W        W16111  18.725  12.600  20.863 -0.2534  0.0140 -0.1096
73195W        W16112  18.489  11.885  18.123 -0.0699 -0.1315 -0.1505
73196W        W16113  12.856  10.193  21.473 -0.1572  0.1749  0.0271
73197W        W16114  16.999  10.836  19.662  0.1015  0.0658  0.0727
73198W        W16115  14.705  11.125  19.593 -0.0279 -0.1065 -0.1876
73199W        W16116  15.871   8.933  20.689  0.1046 -0.2262 -0.3276
73200W        W16117  17.999  12.533  21.482  0.1882 -0.0353  0.1164
73201W        W16118  13.610  10.652  22.735 -0.2105  0.3406 -0.0366
73202W        W16119  15.756  12.018  19.480 -0.3212 -0.0269 -0.0298
73203W        W16120  16.432  11.554  19.464 -0.0318  0.0591 -0.4410
73204W        W16121  15.311  15.450  17.031  0.3336 -0.1402  0.4010
73205W        W16122  17.107  10.387  19.950  0.1742 -0.1238  0.2142
73206W        W16123  14.989  12.498  19.465  0.0552 -0.2159  0.0379
73207W        W16124  14.639  10.317  19.522  0.0069 -0.0739 -0.0467
73208W        W16125  18.208  15.397  17.191 -0.1945  0.0209  0.3298
73209W        W16126  18.442  13.637  18.989  0.2387 -0.0357 -0.2270
73210W        W16127  16.920   9.792  21.390 -0.1694 -0.0162  0.2035
73211W        W16128  13.958  11.754  20.008  0.0089 -0.3375  0.2037
73212W        W16129  10.950  14.240  18.370  0.1438  0.0289  0.0558
73213W        W16130  16.685  12.357  20.455 -0.0132 -0.4022  0.0742
73214W        W16131  17.835  11.462  20.710  0.1771  0.2151 -0.2976
73215W        W16132  13.864  13.161  17.226  0.0061  0.1988  0.1294
73216W        W16133  19.442   9.960  23.056  0.0994 -0.3106 -0.0802
73217W        W16134  15.431  12.289  19.119  0.0327  0.0770  0.4744
73218W        W16135  14.258  10.296  18.106  0.1595  0.2875 -0.2358
73219W        W16136  15.335  11.465  21.506 -0.0218 -0.2406  0.1330
73220W        W16137  15.711   9.864  19.663 -0.1341  0.1232 -0.1309
73221W        W16138  14.346  13.466  19.476  0.2990  0.1827  0.0467
73222W        W16139  17.466  14.547  18.152 -0.0590 -0.1390 -0.1715
73223W        W16140  14.877  10.467  21.076 -0.0307 -0.0070  0.0782
73224W        W16141  17.946  13.188  18.160 -0.1413  0.4295  0.2229
73225W        W16142  12.693  10.472  21.035  0.0581 -0.1345 -0.1272
73226W        W16143  16.079  12.070  18.140 -0.0094 -0.4447  0.1620
73227W        W16144  16.393   9.973  20.214  0.1436 -0.0697 -0.1368
73228W        W16145  14.959  13.286  22.440 -0.2903  0.2679  0.1693
73229W        W16146  13.349  11.738  18.422  0.0216  0.0925 -0.2317
73230W        W16147  13.079  10.550  19.452 -0.2391 -0.1144  0.3250
73231W        W16148  16.036  12.448  19.701 -0.1047 -0.0485  0.1482
73232W        W16149  18.593  10.172  24.003 -0.0238 -0.1167  0.2371
73233W        W16150  14.160   8.642  23.231  0.2445 -0.0555 -0.1602
73234W        W16151  13.426  11.107  20.147 -0.0696 -0.0215 -0.1643
73235W        W16152  13.539   9.974  18.561 -0.2748 -0.0729  0.2060
73236W        W16153  18.748  13.320  17.953 -0.1784  0.1772 -0.3796
73237W        W16154  15.186  10.130  22.047 -0.1951  0.0857 -0.3475
73238W        W16155  14.370   9.904  22.050  0.0068 -0.1294  0.3811
73239W        W16156  16.403  11.599  18.101  0.0481  0.1243 -0.2256
73240W        W16157  17.076  14.632  17.650 -0.1962 -0.1398 -0.2824
73241W        W16158  15.718  10.357  19.815  0.0068 -0.1389  0.0676
73242W        W16159  21.002  12.447  20.023 -0.0600  0.2462  0.0399
73243W        W16160  14.419  12.296  19.414 -0.1367 -0.1093  0.0927
73244W        W16161  14.834  11.896  21.471  0.0781 -0.2305  0.0764
73245W        W16162  14.551  11.105  20.587 -0.1738  0.0540 -0.2133
73246W        W16163  15.759   9.754  18.318 -0.0028  0.1167 -0.0981
73247W        W16164  17.531  10.466  20.405  0.0953  0.1887  0.4713
73248W        W16165  15.240  10.991  18.986  0.0230 -0.1004 -0.0183
73249W        W16166  16.909  13.080  18.292  0.2650  0.0419  0.3210
73250W        W16167  14.966  12.794  21.002 -0.0396  0.3264  0.2393
73251W        W16168  16.217  13.824  18.235 -0.0945  0.0669 -0.1064
73252W        W16169  14.676  10.246  21.881 -0.1357  0.1098  0.0430
73253W        W16170  16.488  11.894  19.090  0.3418  0.0492 -0.1124
73254W        W16171  15.674  11.980  20.531 -0.1448 -0.0419  0.0665
73255W        W16172  17.083  12.497  18.955  0.2131 -0.0724  0.1291
73256W        W16173  20.086  12.420  20.696 -0.1620 -0.0627  0.1688
73257W        W16174  16.755  11.048  20.750  0.0541  0.0566 -0.1549
73258W        W16175  15.610  11.947  23.746 -0.1941  0.0068  0.0900
73259W        W16176  13.884  12.900  21.854 -0.1861  0.1628  0.0764
73260W        W16177  18.030  10.301  20.690 -0.0303  0.1348 -0.0697
73261W        W16178  12.621  10.755  22.334 -0.3349 -0.3317 -0.1819
73262W        W16179  17.636   9.370  19.731 -0.2226 -0.0550  0.1466
73263W        W16180  16.172  11.933  19.772 -0.1661 -0.3865  0.0358
73264W        W16181  13.583  12.571  20.930 -0.1891  0.0521 -0.2601
73265W        W16182  15.580   9.803  20.980 -0.3439 -0.1355 -0.2851
73266W        W16183  15.842  12.884  20.070  0.0653 -0.1218  0.1192
73267W        W16184  15.692  10.285  20.793  0.0764 -0.0374  0.0699
73268W        W16185  17.830  12.234  18.789  0.0177 -0.2927  0.0515
73269W        W16186  13.674  10.918  18.717  0.2589  0.1051 -0.0484
73270W        W16187  19.151  11.444  18.523 -0.1123  0.0206  0.2492
73271W        W16188  18.737  12.423  19.980 -0.1879 -0.0640  0.2178
73272W        W16189  15.679  11.886  18.380  0.0191 -0.1006 -0.1802
73273W        W16190  17.721  12.134  21.797  0.0387 -0.1019  0.0643
73274W        W16191  13.753  11.564  22.338  0.0149 -0.0058  0.0046
73275W        W16192  15.441  10.884  20.423 -0.0197 -0.1394 -0.1318
73276W        W16193  15.449   9.009  19.637  0.5392  0.3538  0.2864
73277W        W16194  17.111  11.241  21.320  0.0590 -0.2713 -0.1336
73278W        W16195  15.146   9.273  21.704  0.0191  0.1053 -0.1374
73279W        W16196  14.205   9.152  21.340 -0.1968  0.0095  0.1832
73280W        W16197  15.449  14.628  17.790 -0.0454  0.0899 -0.2331
73281W        W16198  15.966  13.372  18.225  0.2747  0.2609 -0.3019
73282W        W16199  16.988  13.432  24.995  0.0695 -0.2543 -0.2010
73283W        W16200  15.586  11.913  23.286  0.4208  0.0312 -0.0595
73284W        W16201  17.161  10.931  22.271  0.0537 -0.0829  0.0620
73285W        W16202  16.568  11.523  20.713 -0.0187  0.1428 -0.0542
73286W        W16203  15.092  12.798  23.478  0.0944  0.0271 -0.2541
73287W        W16204  15.946   9.684  25.264  0.2023  0.0769 -0.3201
73288W        W16205  16.253  11.898  22.552  0.1493  0.1819  0.1005
73289W        W16206  16.034  11.231  20.000 -0.0717  0.0635 -0.1926
73290W        W16207  16.017  10.920  24.094  0.2131 -0.1734 -0.2690
73291W        W16208  15.725  13.680  22.798  0.0401 -0.1086  0.2297
73292W        W16209  14.706  12.066  23.498  0.2056  0.2191 -0.0876
73293W        W16210  15.525  13.345  23.211  0.0729  0.0313 -0.1138
73294W        W16211  18.752  13.390  26.542  0.2268 -0.1628  0.1350
73295W        W16212  15.497  12.369  22.407  0.0309 -0.1852 -0.2088
73296W        W16213  15.631  12.443  25.164 -0.0248 -0.0422  0.1417
73297W        W16214  15.216  12.556  22.905 -0.1808 -0.0150 -0.0667
73298W        W16215  16.874  14.082  20.537  0.4524 -0.1016  0.1183
73299W        W16216  17.491  12.660  23.857 -0.0205  0.3419  0.0099
73300W        W16217  15.772  12.176  26.050  0.1043  0.2380  0.0233
73301W        W16218  14.435  11.438  22.542  0.1294  0.2669 -0.0384
73302W        W16219  14.844  11.162  26.046  0.0746 -0.2387 -0.0879
73303W        W16220  14.742  11.468  23.761 -0.0481  0.0364  0.0248
73304W        W16221  16.877  11.806  23.964  0.4252  0.1900 -0.0102
73305W        W16222  17.384  13.099  23.666  0.1606 -0.1226  0.3148
73306W        W16223  14.722  12.629  22.278  0.1024 -0.1735  0.1129
73307W        W16224  17.087  12.525  22.291  0.0092 -0.0096  0.0263
73308W        W16225  17.311  11.488  24.194 -0.1979 -0.0253  0.1641
73309W        W16226  15.098  13.599  22.799 -0.2115 -0.1600  0.0570
73310W        W16227  15.049  14.456  22.456  0.1963 -0.1553 -0.3735
73311W        W16228  14.135  13.049  22.773 -0.0492  0.0039 -0.2010
73312W        W16229  16.119  13.340  25.065 -0.0471 -0.1260  0.0686
73313W        W16230  13.438  12.118  21.308 -0.2066  0.0487 -0.0557
73314W        W16231  16.699  14.067  23.227 -0.1697  0.4752 -0.1656
73315W        W16232  15.341  14.468  26.560 -0.0368  0.5431  0.1375
73316W        W16233  17.211  12.392  23.013 -0.0463  0.1062 -0.0565
73317W        W16234  17.530  11.748  23.305 -0.2602  0.0103  0.2296
73318W        W16235  14.692  13.391  20.241  0.1581 -0.0716  0.1057
73319W        W16236  16.945  13.376  23.071  0.2460  0.1884  0.0327
73320W        W16237  15.311  12.803  25.190  0.0531  0.2274  0.0160
73321W        W16238  13.042  13.228  22.749  0.2135 -0.0204  0.0400
73322W        W16239  17.134  12.933  25.147  0.3848  0.0008  0.1929
73323W        W16240  15.203  13.118  20.322  0.0996 -0.1873 -0.1856
73324W        W16241  14.955  11.647  21.938  0.3043  0.1845 -0.1490
73325W        W16242  17.990  11.795  20.303  0.2724  0.0087  0.2038
73326W        W16243  17.022  11.415  23.188  0.1740 -0.1841  0.2525
73327W        W16244  17.068  12.335  23.784 -0.0126  0.1049  0.0693
73328W        W16245  16.899  12.029  25.037  0.1295 -0.0738  0.0347
73329W        W16246  19.189  13.729  24.279  0.0174  0.0656  0.2093
73330W        W16247  15.415  11.047  21.218  0.1865 -0.0052  0.3687
73331W        W16248  18.338  11.741  23.558 -0.0105 -0.0854  0.0228
73332W        W16249  15.368  14.622  23.579  0.1296 -0.3333 -0.0924
73333W        W16250  15.062  11.049  23.105  0.2057  0.1514 -0.2577
73334W        W16251  18.194  12.877  20.790 -0.2529  0.0536  0.0745
73335W        W16252  17.532  12.657  22.763 -0.1701 -0.3101 -0.1275
73336W        W16253  15.910  12.086  20.973 -0.1813 -0.0903  0.1073
73337W        W16254  13.655  13.737  23.129  0.2891 -0.0266 -0.1515
73338W        W16255  14.473  14.014  23.520 -0.0477 -0.1661 -0.1197
73339W        W16256  15.370  13.899  23.143 -0.3038 -0.0245  0.2031
73340W        W16257  13.180  12.104  20.259 -0.2202 -0.0793 -0.0251
73341W        W16258  18.674  13.708  25.669 -0.1460 -0.1469 -0.1741
73342W        W16259  15.026  13.898  27.325  0.0611 -0.0048 -0.1803
73343W        W16260  18.539  13.096  24.931  0.3496  0.1765  0.2869
73344W        W16261  16.441  13.199  23.946  0.1164  0.2493  0.0299
73345W        W16262  18.355  12.742  20.014 -0.3121 -0.0675  0.2700
73346W        W16263  15.943  11.760  25.202  0.0075  0.1553 -0.0457
73347W        W16264  18.814  11.694  24.290  0.0221 -0.1007 -0.1495
73348W        W16265  15.869  12.148  22.795  0.1807  0.1357 -0.4362
73349W        W16266  14.609  12.838  22.719  0.2694  0.3580 -0.2452
73350W        W16267  17.946  14.191  23.996 -0.0275  0.3841  0.0067
73351W        W16268  16.459  11.740  21.268 -0.1494 -0.0762  0.0428
73352W        W16269  13.387  14.969  25.350  0.3073 -0.0624 -0.1150
73353W        W16270  15.995  11.815  24.022  0.0411 -0.0242  0.1989
73354W        W16271  17.405  13.668  25.719 -0.3549 -0.1860 -0.0301
73355W        W16272  15.462  13.124  22.182  0.0644 -0.2353 -0.0351
73356W        W16273  14.564  10.332  25.450  0.0916 -0.3049  0.1430
73357W        W16274  13.998  11.798  20.990 -0.1412  0.3286  0.4391
73358W        W16275  14.688  10.655  22.728 -0.0217 -0.2020 -0.1854
73359W        W16276  15.296  11.582  23.006 -0.0492  0.0508 -0.0278
73360W        W16277  16.159  12.211  20.422  0.2269  0.2001 -0.2169
73361W        W16278  15.441  12.248  26.487  0.1607  0.0371 -0.1554
73362W        W16279  18.038  11.279  25.380  0.1528 -0.0155 -0.5077
73363W        W16280  15.900  13.132  22.985  0.2157 -0.1973 -0.0406
73364W        W16281  17.813  14.747  21.233  0.0574  0.0178 -0.0939
73365W        W16282  18.018  11.523  24.106 -0.1423  0.1858  0.0039
73366W        W16283  17.291  12.288  19.581 -0.0004 -0.1338  0.2422
73367W        W16284  14.958  12.322  22.593 -0.1008 -0.0469  0.0174
73368W        W16285  14.794  12.100  22.119 -0.1052 -0.0099 -0.0030
73369W        W16286  15.292   9.132  26.426 -0.0493 -0.0066  0.0160
73370W        W16287  16.677  11.595  24.944 -0.0877 -0.2684  0.5314
73371W        W16288  18.321  13.415  25.923  0.0327 -0.1475 -0.1551
73372W        W16289  14.321  10.780  23.243 -0.1568 -0.1177 -0.0811
73373W        W16290  17.231  12.939  21.737 -0.2157 -0.2744 -0.0372
73374W        W16291  14.496  12.365  22.648 -0.3028 -0.0967  0.1026
73375W        W16292  16.689  12.140  21.442  0.1701  0.2374  0.4646
73376W        W16293  18.336  13.667  26.394  0.4380 -0.1142  0.2028
73377W        W16294  16.660  13.705  20.309  0.2267  0.0066  0.0424
73378W        W16295  18.335  13.392  23.948 -0.0258 -0.1165 -0.2171
73379W        W16296  15.716  10.918  25.723  0.0145 -0.3462  0.1944
73380W        W16297  15.941  11.672  22.972  0.1242  0.0635 -0.1973
73381W        W16298  15.635  12.132  21.408 -0.0190 -0.1521 -0.0379
73382W        W16299  16.504  12.584  22.219  0.4977  0.4158 -0.0872
73383W        W16300  15.219   9.802  21.642  0.0906  0.2543 -0.1773
73384W        W16301  16.081  12.373  22.366 -0.2298 -0.1459  0.1436
73385W        W16302  13.931  14.117  23.423  0.0112  0.0395 -0.2026
73386W        W16303  16.981  10.554  24.990  0.4095 -0.0452 -0.4078
73387W        W16304  18.986  12.285  25.139 -0.1428 -0.1242  0.0276
73388W        W16305  19.543  13.918  26.933 -0.2234 -0.0223 -0.0737
73389W        W16306  14.070   8.901  21.921  0.1169  0.0559 -0.1731
73390W        W16307  14.456  13.529  20.732  0.2185 -0.2798 -0.0924
73391W        W16308  14.777  13.811  21.074 -0.1473 -0.2059  0.0510
73392W        W16309  17.396  11.407  22.308 -0.1392  0.2841  0.0434
73393W        W16310  15.573  14.387  24.423  0.0271 -0.1164 -0.2081
73394W        W16311  17.907   9.351  26.677  0.1749  0.2109  0.0601
73395W        W16312  14.982  11.369  21.230  0.4344  0.0546 -0.4064
73396W        W16313  15.287  11.255  26.310  0.0808  0.0308  0.0917
73397W        W16314  16.969  11.755  21.190 -0.0524  0.0700 -0.0109
73398W        W16315  19.440   9.862  20.815  0.1181  0.1660  0.2085
73399W        W16316  17.417  12.966  24.298  0.2135  0.3016  0.0651
73400W        W16317  15.180  10.064  23.041 -0.0486  0.3202  0.0324
73401W        W16318  17.445  11.203  22.807 -0.1918 -0.1946 -0.1090
73402W        W16319  14.846  12.278  26.770 -0.0445 -0.0338  0.3957
73403W        W16320  16.089  11.510  20.379 -0.0744 -0.0446  0.2029
73404W        W16321  18.341  12.728  24.650  0.1959  0.1271 -0.1208
73405W        W16322  15.366  11.463  20.833 -0.2984  0.0661 -0.1771
73406W        W16323  17.667  12.082  20.063  0.1877 -0.0172  0.0124
73407W        W16324  15.700  14.278  22.390  0.1905 -0.0020  0.1819
73408W        W16325  18.053  12.158  25.493  0.0054 -0.0233  0.0088
73409W        W16326  15.060  11.704  24.436 -0.1725  0.2817  0.1973
73410W        W16327  15.419  12.938  21.250  0.0284  0.0590 -0.3402
73411W        W16328  14.441  11.221  23.098 -0.0708 -0.0298  0.0755
73412W        W16329  13.521  13.877  21.603 -0.1977 -0.3963 -0.0735
73413W        W16330  18.041  11.880  25.934 -0.1924 -0.3306  0.3387
73414W        W16331  18.134  13.569  23.427  0.0651  0.1495  0.2098
73415W        W16332  16.989  11.580  25.314  0.0192  0.0509  0.3446
73416W        W16333  18.656  10.943  27.623  0.3425 -0.1756 -0.3634
73417W        W16334  17.394  10.766  24.557 -0.1394 -0.0489  0.0414
73418W        W16335  15.995  12.660  23.764 -0.0653 -0.2168 -0.0249
73419W        W16336  13.531  10.885  21.186  0.0415 -0.1659 -0.3025
73420W        W16337  16.076  13.089  25.451 -0.0916  0.0378 -0.0236
73421W        W16338  15.797  13.941  23.325  0.1978  0.0612 -0.0653
73422W        W16339  13.782  14.477  23.171  0.3464  0.1084  0.1088
73423W        W16340  17.404  12.251  24.981  0.0557  0.0329  0.0342
73424W        W16341  19.432  11.884  24.252  0.0480 -0.0112  0.1737
73425W        W16342  16.262  11.329  25.944 -0.0494 -0.1516  0.0916
73426W        W16343  14.375   9.886  22.535 -0.0867 -0.0053 -0.0343
73427W        W16344  15.728  13.411  21.356  0.4567  0.0990 -0.3007
73428W        W16345  14.403  11.863  19.615  0.1333  0.1136  0.0084
73429W        W16346  15.399  10.336  24.591 -0.0597  0.4121  0.4335
73430W        W16347  17.003  12.492  24.806 -0.2580 -0.2345  0.2257
73431W        W16348  16.304  12.652  20.851 -0.2397  0.0645 -0.0718
73432W        W16349  17.816  11.012  25.018 -0.1605  0.0746 -0.1527
73433W        W16350  14.616  13.653  22.098  0.2971  0.3270 -0.0506
73434W        W16351  14.061  12.749  21.060 -0.0914 -0.0562  0.1104
73435W        W16352  15.838  12.697  22.664  0.0024  0.2571 -0.1425
73436W        W16353  17.055  13.579  23.557 -0.0043 -0.2269 -0.3348
73437W        W16354  18.392  12.031  20.470 -0.0093 -0.0040 -0.0975
73438W        W16355  15.165  13.267  24.901  0.0047 -0.1971  0.0854
73439W        W16356  16.980  10.487  25.469 -0.0630  0.3081 -0.2067
73440W        W16357  11.857  13.853  25.130  0.0388  0.6123  0.3486
73441W        W16358  17.301  13.069  23.107  0.3990 -0.0884 -0.1347
73442W        W16359  16.660  12.128  22.440  0.1240 -0.2917  0.0847
73443W        W16360  19.022  12.638  24.101 -0.2927 -0.0217  0.4213
73444W        W16361  16.015  11.686  26.308 -0.0801  0.0230  0.1960
73445W        W16362  14.571  11.386  22.064  0.0924  0.1754 -0.1276
73446W        W16363  18.528  12.546  25.152 -0.0930  0.0109  0.1815
73447W        W16364  15.062  13.636  24.564  0.1478  0.1123  0.0403
73448W        W16365  14.084  14.009  22.259 -0.2171 -0.2536 -0.2171
73449W        W16366  17.279  13.383  22.506 -0.1114 -0.3290 -0.3277
73450W        W16367  15.257  11.299  22.618  0.0780 -0.1940 -0.0679
73451W        W16368  15.797  14.129  21.890  0.0272  0.0738  0.0566
73452W        W16369  15.882  10.140  28.948  0.0191 -0.0121  0.0756
73453W        W16370  17.876  11.994  23.692  0.1138 -0.0219  0.1641
73454W        W16371  15.856  12.165  25.524 -0.1693  0.3801  0.0844
73455W        W16372  15.800  11.899  22.245  0.0830 -0.1413 -0.1125
73456W        W16373  17.480  11.790  23.860  0.0720  0.0545 -0.2247
73457W        W16374  15.818  13.960  24.401 -0.0096 -0.1361  0.2905
73458W        W16375  16.721  13.295  21.706  0.1482  0.1059 -0.1794
73459W        W16376  15.124  14.855  23.211 -0.0694  0.2872  0.0740
73460W        W16377  16.473   9.280  24.705  0.0569  0.0772 -0.2329
73461W        W16378  16.166  13.575  23.766  0.2072  0.0388 -0.0953
73462W        W16379  16.795  12.827  23.053  0.1034  0.2559  0.4304
73463W        W16380  13.748  13.721  23.798 -0.3051  0.4832 -0.2396
73464W        W16381  13.664  11.936  24.153 -0.0752 -0.0856  0.0132
73465W        W16382  17.971  12.577  23.615  0.0115  0.2371 -0.2387
73466W        W16383  15.907  13.374  22.238  0.1058  0.2711  0.0688
73467W        W16384  14.216  12.467  20.157 -0.2558 -0.2694 -0.1145
73468W        W16385  15.741  12.383  23.247 -0.4280  0.0687 -0.0910
73469W        W16386  18.942  10.117  24.395 -0.1153  0.2114 -0.2022
73470W        W16387  14.870  12.128  19.960 -0.3021 -0.1206  0.3993
73471W        W16388  15.836  12.255  21.848 -0.1343  0.1504  0.0791
73472W        W16389  18.905  13.372  23.797 -0.2268 -0.2060 -0.0452
73473W        W16390  17.172  12.093  22.469 -0.4653  0.0496 -0.0671
73474W        W16391  16.528  11.971  23.594  0.1405 -0.1606  0.2171
73475W        W16392  15.846  10.737  23.170 -0.1159 -0.1881 -0.0993
73476W        W16393  18.767  13.800  23.658 -0.0503  0.4428  0.1478
73477W        W16394  14.810  11.518  23.238 -0.4001  0.2960  0.0493
73478W        W16395  17.243  14.028  23.300  0.1331 -0.1093 -0.0879
73479W        W16396  15.042  14.005  26.849 -0.1038 -0.3779  0.2302
73480W        W16397  16.890  11.985  22.890 -0.2884  0.3487  0.0488
73481W        W16398  14.725  12.120  23.002 -0.0412  0.0089 -0.2108
73482W        W16399  15.664  12.886  23.397 -0.3009 -0.1807 -0.2098
73483W        W16400  18.269  12.876  21.744 -0.0243 -0.2032  0.1935
73484W        W16401  15.153  12.266  21.403 -0.2280  0.0133  0.0610
73485W        W16402  17.065  12.403  25.326 -0.1050  0.1783  0.0022
73486W        W16403  15.091  12.451  24.922 -0.3897  0.0505  0.1744
73487W        W16404  17.631  11.165  24.006 -0.2479 -0.4268 -0.0257
73488W        W16405  15.218  12.055  21.871  0.2428 -0.4329  0.4836
73489W        W16406  15.808  12.724  22.099  0.1788  0.0346 -0.1024
73490W        W16407  16.333  12.220  24.033  0.2821  0.1918  0.1346
73491W        W16408  17.504  11.239  23.362  0.1225  0.0240 -0.1703
73492W        W16409  17.320  11.712  22.816 -0.1116 -0.1666  0.2738
73493W        W16410  17.030  11.422  26.172  0.1786  0.0518 -0.0968
73494W        W16411  17.589  12.121  22.874 -0.1531  0.1596 -0.2359
73495W        W16412  17.143  13.369  24.539 -0.1730  0.2479 -0.2156
73496W        W16413  16.906   9.251  26.162 -0.2992  0.2422 -0.0659
73497W        W16414  18.490  11.393  23.873 -0.0305 -0.1836  0.0307
73498W        W16415  18.286  11.747  25.039  0.0938  0.0997 -0.0959
73499W        W16416  16.553  11.648  24.304  0.0380 -0.0602 -0.0260
73500W        W16417  16.797  12.295  23.359  0.0487  0.2310 -0.0513
73501W        W16418  13.435  11.178  25.493 -0.1470 -0.0012 -0.1176
73502W        W16419  17.952  13.032  24.748  0.3385  0.0079 -0.1605
73503W        W16420  15.475  10.654  21.605 -0.2148 -0.0404  0.0442
73504W        W16421  17.282  11.744  24.917  0.1293  0.1038 -0.1393
73505W        W16422  17.375  10.126  23.844  0.2118 -0.1482  0.1403
73506W        W16423  14.990  11.717  25.217  0.2413 -0.1510  0.0166
73507W        W16424  14.862  15.198  24.988  0.2413 -0.0617  0.0041
73508W        W16425  15.521  12.633  21.630  0.1948 -0.1306  0.0482
73509W        W16426  16.756  12.777  21.877  0.0510  0.3574 -0.4275
73510W        W16427  16.808  13.701  24.590  0.0346 -0.3296  0.1587
73511W        W16428  15.466  14.055  23.646 -0.3526 -0.0058  0.2093
73512W        W16429  17.068  11.444  20.819 -0.1103 -0.0433 -0.0963
73513W        W16430  18.777  12.510  25.580  0.2127 -0.1562 -0.1955
73514W        W16431  15.342  13.794  21.419 -0.0531  0.0031  0.2269
73515W        W16432  17.115  11.879  23.448  0.0012 -0.1181 -0.1107
73516W        W16433  15.344  14.015  22.021  0.3251 -0.0500 -0.1163
73517W        W16434  15.422  13.104  26.571 -0.1944 -0.2009  0.2243
73518W        W16435  16.189  13.891  21.678 -0.0049 -0.1711 -0.0527
73519W        W16436  15.054  10.612  22.133 -0.0842  0.0238  0.0933
73520W        W16437  18.390  12.503  22.470 -0.1563 -0.0072 -0.2726
73521W        W16438  17.469  12.919  22.228  0.4362  0.0795  0.1522
73522W        W16439  17.785  13.294  24.144 -0.1419  0.1447  0.2854
73523W        W16440  18.003  11.189  23.692  0.0836 -0.0631 -0.3389
73524W        W16441  16.566  13.731  21.920 -0.0344 -0.2411  0.0226
73525W        W16442  17.675  14.040  22.987  0.0485  0.0180 -0.1097
73526W        W16443  17.906  12.653  24.404 -0.1145 -0.1878 -0.3726
73527W        W16444  14.692  13.742  23.070  0.2868 -0.4226 -0.0078
73528W        W16445  14.429  11.298  26.385 -0.2356 -0.0213 -0.1888
73529W        W16446  18.073  11.951  23.114  0.0307  0.0151 -0.0222
73530W        W16447  16.320  12.447  21.710  0.1035  0.0105 -0.0253
73531W        W16448  16.053  11.162  22.920 -0.0900  0.0420 -0.1479
73532W        W16449  15.621  16.340  24.195  0.1619  0.1227  0.0088
73533W        W16450  14.959  12.610  26.396  0.0548 -0.0051  0.0041
73534W        W16451  14.190  13.189  19.908 -0.0272 -0.0126  0.2405
73535W        W16452  17.462  11.119  20.527  0.0048 -0.2291 -0.2355
73536W        W16453  17.611  13.582  23.448 -0.0354 -0.0274  0.2939
73537W        W16454  16.063  12.133  23.557  0.3948 -0.1441 -0.1123
73538W        W16455  14.426  15.307  25.129 -0.0452 -0.1668  0.0010
73539W        W16456  13.556  13.987  17.079 -0.0065  0.3026  0.1865
73540W        W16457  16.407  13.346  19.979  0.0237 -0.0285  0.0867
73541W        W16458  16.082  14.426  21.529  0.1482 -0.2324  0.0551
73542W        W16459  17.255  13.400  24.052 -0.0084 -0.2689  0.1181
73543W        W16460  18.249  10.035  25.203 -0.3159 -0.1233 -0.0862
73544W        W16461  18.599  12.903  24.188  0.4337  0.1417  0.0008
73545W        W16462  17.813  11.584  24.997 -0.0324 -0.2865  0.1378
73546W        W16463  16.227  14.042  23.545  0.0500  0.0611 -0.2234
73547W        W16464  16.325  11.518  23.233  0.0466  0.0446  0.0788
73548W        W16465  16.026   9.859  21.284 -0.1477  0.3609  0.1410
73549W        W16466  15.861  12.755  24.621 -0.1690  0.0418 -0.0343
73550W        W16467  16.627  12.474  25.176 -0.1029  0.0982 -0.0102
73551W        W16468  16.497  14.215  24.633  0.0038 -0.2417  0.2394
73552W        W16469  15.386  11.455  25.302 -0.2850 -0.2085  0.1333
73553W        W16470  15.095  13.493  21.915 -0.2634  0.1465  0.1992
73554W        W16471  17.669  12.897  26.968  0.0083 -0.1723  0.1137
73555W        W16472  14.650  11.648  20.480  0.1037 -0.0568  0.1380
73556W        W16473  17.668  12.822  23.296  0.1211 -0.0854  0.1805
73557W        W16474  16.571  14.504  20.716 -0.1624 -0.3832 -0.1011
73558W        W16475  14.441  13.186  24.238  0.0931 -0.1800 -0.2182
73559W        W16476  15.775  10.270  23.353  0.1963  0.0931 -0.0415
73560W        W16477  19.428  12.289  23.248 -0.0816  0.0132 -0.1990
73561W        W16478  14.717  11.188  26.970 -0.0893 -0.1027  0.0727
73562W        W16479  17.231  12.436  26.504  0.0686 -0.0181 -0.5953
73563W        W16480  15.275  12.020  25.831 -0.0279 -0.0025 -0.1386
73564W        W16481  19.581  12.875  23.637  0.0695 -0.3959 -0.0011
73565W        W16482  16.532  13.201  24.813  0.2853  0.1781 -0.0365
73566W        W16483  16.434  13.338  22.173 -0.0414  0.0894 -0.0687
73567W        W16484  14.748  12.606  23.157  0.2616 -0.0860 -0.2507
73568W        W16485  17.882  13.927  24.851 -0.1040 -0.0198 -0.1715
73569W        W16486  16.234  10.817  19.104 -0.3760 -0.1093 -0.0413
73570W        W16487  14.672  12.103  25.103  0.2784  0.2528  0.4222
73571W        W16488  16.401  10.895  21.466 -0.0832 -0.0195  0.2443
73572W        W16489  13.830  12.343  23.234  0.0678  0.2125 -0.1785
73573W        W16490  15.197  13.303  25.385  0.1976  0.0517 -0.1626
73574W        W16491  18.170  15.061  23.983  0.3465 -0.1810 -0.1698
73575W        W16492  16.642   9.259  23.990 -0.5439  0.1432 -0.0293
73576W        W16493  16.043  11.429  19.153 -0.0899 -0.2834  0.1197
73577W        W16494  18.311  11.973  24.084 -0.1348  0.1931  0.4977
73578W        W16495  15.367  13.462  19.979  0.0932  0.1642  0.1357
73579W        W16496  17.557  10.299  23.336 -0.0069 -0.0891 -0.4294
73580W        W16497  16.149  13.505  22.654  0.1222 -0.2323  0.0313
73581W        W16498  15.792  13.950  24.912 -0.0367  0.1375 -0.0096
73582W        W16499  16.629  13.524  22.678  0.3389  0.0806  0.0059
73583W        W16500  15.211  11.966  22.340 -0.2683 -0.0157 -0.0022
73584W        W16501  15.666  13.596  23.706 -0.2823  0.0995 -0.1029
73585W        W16502  14.957  13.271  20.724  0.1863 -0.2183  0.0671
73586W        W16503  18.832  13.911  26.082  0.3840 -0.3164 -0.1627
73587W        W16504  18.991  12.584  26.940 -0.1132  0.2509  0.0560
73588W        W16505  15.510  12.472  19.775 -0.1923  0.0794  0.0287
73589W        W16506  18.633  10.641  28.093  0.1391 -0.2903  0.0279
73590W        W16507  16.229  14.368  23.130  0.1355 -0.0138  0.0485
73591W        W16508  16.224  14.415  25.628 -0.1801  0.0325  0.0212
73592W        W16509  14.475   9.563  21.129  0.3569 -0.1003 -0.0370
73593W        W16510  17.848  13.502  24.577  0.0460 -0.1981  0.0231
73594W        W16511  15.895  12.698  21.234 -0.0473  0.0472 -0.1365
73595W        W16512  15.359  14.061  22.625  0.1502  0.2251  0.1203
73596W        W16513  17.894  13.301  22.101  0.1550 -0.0659  0.4008
73597W        W16514  15.877  12.618  20.664  0.2888  0.1240 -0.1238
73598W        W16515  19.279  13.067  24.054 -0.2142 -0.2409  0.4233
73599W        W16516  14.321  12.365  22.103  0.1886  0.0898  0.0976
73600W        W16517  19.090  12.077  25.654  0.0107  0.2278 -0.0511
73601W        W16518  18.137  10.239  24.718  0.0288 -0.1465  0.0223
73602W        W16519  15.735  11.316  26.069  0.0152 -0.2020  0.2742
73603W        W16520  14.289  10.236  23.252 -0.1568 -0.0670  0.0874
73604W        W16521  14.028  12.219  19.717 -0.2574  0.0441 -0.0489
73605W        W16522  14.702  14.431  23.649 -0.0007  0.0692 -0.0522
73606W        W16523  16.757  10.786  26.807  0.1463  0.1239 -0.2277
73607W        W16524  15.419  10.284  28.192 -0.0132 -0.1551  0.0499
73608W        W16525  15.651  13.569  21.874  0.0368 -0.0749 -0.1185
73609W        W16526  14.920  10.465  24.790  0.0467  0.3021  0.0044
73610W        W16527  15.495  12.299  24.649 -0.3525  0.5418 -0.1593
73611W        W16528  15.267  12.065  22.927  0.2052  0.0531  0.1716
73612W        W16529  15.129  13.370  21.312  0.1232 -0.2877 -0.3092
73613W        W16530  16.120  11.353  24.400  0.0563 -0.0998  0.1621
73614W        W16531  20.112  13.337  26.537  0.0341  0.1956  0.0103
73615W        W16532  12.980  12.147  21.854 -0.2615  0.0106  0.2849
73616W        W16533  16.544  13.610  23.398  0.3390 -0.0670 -0.0601
73617W        W16534  16.026  14.490  24.482 -0.0092 -0.0666  0.4077
73618W        W16535  14.731   8.830  24.181 -0.0593 -0.3009 -0.0024
73619W        W16536  16.784  12.160  21.932  0.3693 -0.0271  0.3142
73620W        W16537  16.421  11.545  19.966  0.0038 -0.3128  0.1168
73621W        W16538  17.282  12.747  19.813 -0.0836 -0.2453  0.3026
73622W        W16539  17.166  12.680  23.402  0.2197  0.0640  0.0207
73623W        W16540  16.279  13.662  24.679 -0.1020  0.0785 -0.0451
73624W        W16541  15.092  10.336  27.142 -0.1546  0.3351  0.0594
73625W        W16542  18.415  13.287  23.077  0.4818 -0.0391 -0.1531
73626W        W16543  15.872  16.137  25.661 -0.4570  0.0873 -0.1481
73627W        W16544  17.017  11.285  22.644 -0.1300  0.1190  0.3539
73628W        W16545  17.899  12.547  24.881 -0.3007  0.0771 -0.1934
73629W        W16546  16.894  12.610  21.402  0.0520 -0.0886 -0.0804
73630W        W16547  15.959   9.743  24.651 -0.4731  0.0803  0.0605
73631W        W16548  14.688  14.504  24.180 -0.2540 -0.1246 -0.2808
73632W        W16549  16.731  13.170  23.457 -0.0828 -0.0392 -0.0101
73633W        W16550  16.280  11.334  23.922  0.2678 -0.2087 -0.0837
73634W        W16551  16.319  12.591  22.750  0.1116 -0.1130  0.1075
73635W        W16552  15.405  13.986  24.155 -0.0772 -0.0024  0.0803
73636W        W16553  16.998  11.944  20.592 -0.3987 -0.4209  0.2592
73637W        W16554  17.942  13.257  25.603  0.1438 -0.2456  0.2135
73638W        W16555  17.944  12.417  23.155  0.2110  0.0269 -0.0068
73639W        W16556  18.551  13.729  24.314 -0.0985 -0.1204 -0.0116
73640W        W16557  15.443  13.387  24.189  0.1104  0.2222 -0.0977
73641W        W16558  16.354  12.180  23.040  0.3532  0.0857 -0.3571
73642W        W16559  17.107  12.935  22.598 -0.2082 -0.2820 -0.0763
73643W        W16560  13.069   9.925  25.284 -0.1740 -0.1581 -0.0423
73644W        W16561  16.176  13.006  22.471 -0.1264 -0.1676  0.1455
73645W        W16562  16.250  12.291  21.251 -0.0570 -0.1994 -0.0528
73646W        W16563  16.795  12.490  22.730 -0.2506 -0.0008 -0.1598
73647W        W16564  15.813  13.119  23.844 -0.0157 -0.0465  0.1771
73648W        W16565  17.325   9.230  23.676 -0.0283  0.0828  0.1563
73649W        W16566  14.968  13.085  23.086 -0.0226  0.0437 -0.0704
73650W        W16567  16.737  13.600  24.000  0.3931  0.1780 -0.0346
73651W        W16568  15.115  12.860  25.680  0.0641 -0.2670  0.2802
73652W        W16569  14.191  10.883  25.453  0.0922 -0.2869  0.0260
73653W        W16570  17.134  11.830  25.898  0.1928  0.0846 -0.1971
73654W        W16571  15.393  12.689  26.177  0.1191 -0.2289 -0.1255
73655W        W16572  13.719  11.486  29.446 -0.1185  0.0085  0.0590
73656W        W16573  17.980  16.440  26.966  0.0960  0.1811  0.1953
73657W        W16574  14.362  11.173  30.867  0.2807 -0.1149 -0.4206
73658W        W16575  15.037  14.585  28.905 -0.1421 -0.1286 -0.1626
73659W        W16576  16.392  14.136  31.273 -0.1186  0.1822  0.0732
73660W        W16577  16.958  12.940  24.669  0.0657  0.0517 -0.0099
73661W        W16578  14.712  14.418  29.256 -0.2490  0.0334 -0.3199
73662W        W16579  15.316  12.001  28.372 -0.0389 -0.0035 -0.1774
73663W        W16580  15.784  10.204  29.901  0.0328 -0.0554 -0.3636
73664W        W16581  14.670   9.940  28.345  0.2988  0.0276 -0.2577
73665W        W16582  16.688  12.758  27.286  0.1648 -0.2787  0.1795
73666W        W16583  15.783  11.941  27.245 -0.0522  0.0207 -0.1847
73667W        W16584  15.318  10.957  31.115  0.3821  0.1285 -0.0061
73668W        W16585  15.796  13.456  25.732  0.1238 -0.1033 -0.0509
73669W        W16586  16.233  15.299  24.567  0.1462 -0.0113  0.0748
73670W        W16587  15.842  11.111   0.799 -0.0549 -0.0523  0.0131
73671W        W16588  15.560  10.066  31.295 -0.3196  0.0731  0.1376
73672W        W16589  15.750  14.460  23.967  0.0661 -0.0702 -0.2011
73673W        W16590  14.322  14.824  24.884 -0.2393  0.1358 -0.0310
73674W        W16591  14.732  14.314  27.194 -0.2118 -0.0935  0.0446
73675W        W16592  14.550  12.114  28.825 -0.0585  0.4373 -0.0432
73676W        W16593  16.128  12.390  29.740 -0.2915  0.1555 -0.0022
73677W        W16594  16.424  12.761  25.667  0.1038 -0.2406 -0.0933
73678W        W16595  18.060  14.596  26.102  0.1639  0.0620 -0.1039
73679W        W16596  16.142  13.104  25.939  0.1717  0.1571 -0.0870
73680W        W16597  16.051  12.490  30.228 -0.0493 -0.0129 -0.2622
73681W        W16598  15.657  15.393  26.279  0.0062 -0.0393 -0.1102
73682W        W16599  14.052  14.513  26.924  0.1871  0.1629 -0.0627
73683W        W16600  15.754  15.331  24.357  0.1022 -0.0366 -0.1761
73684W        W16601  16.947  14.202  25.914  0.0320 -0.1752 -0.0021
73685W        W16602  16.461  15.765  26.233 -0.0973  0.3185  0.0239
73686W        W16603  14.593  14.921  29.159  0.0645  0.1514  0.1524
73687W        W16604  13.104  14.503  26.810 -0.0764 -0.1131  0.0030
73688W        W16605  17.675  14.973  30.660 -0.3658  0.1404  0.0094
73689W        W16606  14.227  15.244  29.832 -0.1154  0.0684  0.0070
73690W        W16607  17.032  12.966  28.257 -0.0193 -0.2838  0.0017
73691W        W16608  16.602  14.833  25.947  0.4133 -0.2110 -0.0554
73692W        W16609  15.224  13.255  23.713 -0.0711  0.0075  0.0650
73693W        W16610  17.947  15.329  24.974 -0.2962  0.0855 -0.2361
73694W        W16611  16.668  13.173  29.923  0.4624  0.3202 -0.4078
73695W        W16612  15.973  12.377  27.436 -0.2792  0.0198  0.1267
73696W        W16613  17.392   9.622  30.534  0.0619 -0.3676  0.2436
73697W        W16614  15.058  13.799  25.561 -0.1103  0.1478  0.1214
73698W        W16615  17.176  12.891  26.741 -0.1955  0.1902 -0.0416
73699W        W16616  16.529  12.681  23.841 -0.1097 -0.1610  0.2068
73700W        W16617  16.631   9.977  27.103  0.2111  0.1782  0.3738
73701W        W16618  16.398   9.171  28.466  0.1200 -0.1933  0.1733
73702W        W16619  16.910  14.559  25.474  0.0244  0.1677 -0.1184
73703W        W16620  15.608  13.023  25.627  0.1779  0.0631  0.2341
73704W        W16621  15.012  12.700  27.316  0.0795  0.0939 -0.0076
73705W        W16622  16.800  12.038  25.619 -0.2337 -0.3536 -0.2264
73706W        W16623  16.738  14.252  24.131  0.0071 -0.0979 -0.0844
73707W        W16624  16.525  12.707  28.959  0.0333  0.0254  0.0020
73708W        W16625  15.539  11.701  29.277  0.1163 -0.1335 -0.2567
73709W        W16626  17.051  15.170  26.027  0.0500 -0.1102  0.2122
73710W        W16627  19.368  16.114  26.880  0.0556  0.2039 -0.0303
73711W        W16628  17.300  16.091  25.552 -0.0380  0.2562 -0.0248
73712W        W16629  15.350  11.351  27.824  0.0918  0.0565 -0.0201
73713W        W16630  14.940  15.462  31.385  0.2636 -0.1837  0.1227
73714W        W16631  16.556  14.650  31.181 -0.1938  0.1294 -0.3046
73715W        W16632  15.378  11.866  24.990 -0.1177  0.0982  0.0779
73716W        W16633  16.161  12.143  30.574 -0.3624  0.1348  0.1128
73717W        W16634  15.900  13.868  28.612  0.3895 -0.1619 -0.1421
73718W        W16635  17.271  13.364  28.753  0.2281 -0.1576  0.2029
73719W        W16636  17.146  12.480  27.003  0.0062  0.1763 -0.0052
73720W        W16637  14.789  15.252  28.381  0.0430  0.2399 -0.1751
73721W        W16638  16.543  14.526  27.088  0.2437 -0.1052  0.4246
73722W        W16639  16.058  10.500  29.548 -0.2796  0.2777 -0.0053
73723W        W16640  15.740   9.461  28.448  0.1013  0.0634 -0.4342
73724W        W16641  15.702  14.295  26.223 -0.0420 -0.1726 -0.0243
73725W        W16642  15.344  13.519  25.904  0.1039  0.2957  0.2153
73726W        W16643  15.269  13.224  28.461  0.0067  0.2088 -0.1561
73727W        W16644  19.648  12.747  25.418 -0.0821  0.3670 -0.1194
73728W        W16645  15.707  13.589  29.752  0.1952  0.1959 -0.1262
73729W        W16646  13.643  13.378  30.128 -0.1831 -0.2610 -0.2145
73730W        W16647  14.313  12.728  27.235 -0.4294 -0.1191 -0.3109
73731W        W16648  15.046  12.694  28.314 -0.0402  0.1403  0.3493
73732W        W16649  15.407  12.245  27.505 -0.3054  0.3666 -0.0557
73733W        W16650  16.063  13.789  26.508  0.2571 -0.0393  0.4387
73734W        W16651  15.664  13.438  25.183  0.0863 -0.1043 -0.0418
73735W        W16652  15.846  14.396  29.341 -0.1506 -0.3176  0.1583
73736W        W16653  15.914  12.813  26.280  0.1450  0.1605  0.1009
73737W        W16654  14.542   9.734  29.894  0.3582 -0.1487 -0.1438
73738W        W16655  16.716  11.087  26.403 -0.2626 -0.2292  0.2870
73739W        W16656  17.399  13.360  25.361 -0.0533 -0.0815  0.0041
73740W        W16657  20.073  13.596  27.858  0.0354  0.1222  0.0687
73741W        W16658  16.859  14.016  25.031 -0.1759  0.0420 -0.0253
73742W        W16659  19.371  13.887  27.669  0.2503  0.0835  0.0315
73743W        W16660  13.995  13.115  29.196  0.0102  0.0138 -0.2012
73744W        W16661  15.727  12.193  30.010  0.1938 -0.0792  0.3618
73745W        W16662  15.607  11.388  31.164 -0.0391  0.0361  0.0873
73746W        W16663  16.262  11.334  28.560 -0.1302 -0.1348  0.0435
73747W        W16664  17.434  13.284  29.287  0.0496  0.2707  0.1516
73748W        W16665  15.530  10.505  28.829  0.2234  0.2134  0.0815
73749W        W16666  16.480  10.600  29.045  0.0636  0.1712  0.0657
73750W        W16667  16.935  15.050  25.507  0.2557 -0.1885 -0.1346
73751W        W16668  13.883  14.041  26.813  0.3296 -0.4279  0.2092
73752W        W16669  16.663  12.309   0.425  0.0191  0.0373  0.1513
73753W        W16670  16.537  13.986  25.616 -0.1250  0.1787 -0.2534
73754W        W16671  18.267  13.606  27.387  0.1806 -0.1875 -0.1850
73755W        W16672  19.277  15.187  25.539 -0.1070  0.2689 -0.0008
73756W        W16673  15.906  11.723  30.344  0.0764  0.1720  0.0990
73757W        W16674  15.137  10.027  25.375  0.0607  0.0829 -0.3568
73758W        W16675  15.469  15.420  24.754 -0.0505 -0.0351  0.0724
73759W        W16676  16.173  12.766  26.728  0.0484 -0.0575  0.1124
73760W        W16677  15.147  12.143  25.371  0.3582 -0.0754 -0.1305
73761W        W16678  18.785  14.209  29.363 -0.0535  0.1980 -0.1225
73762W        W16679  17.110  13.893  24.144  0.1744 -0.1095  0.1057
73763W        W16680  15.993  13.968  29.573 -0.0805 -0.0758 -0.1480
73764W        W16681  17.046  10.997  27.087  0.1682  0.0464  0.1549
73765W        W16682  16.779  11.939  29.135  0.1401 -0.1778  0.1701
73766W        W16683  17.724  13.965  28.013 -0.1645  0.0267  0.1023
73767W        W16684  14.513  11.503  27.341 -0.2355  0.1604  0.0231
73768W        W16685  15.097  13.129  26.156 -0.0699 -0.0966  0.0548
73769W        W16686  15.221  14.453  27.087  0.1548 -0.0079  0.3033
73770W        W16687  14.932   9.887  28.826 -0.2415  0.1455 -0.0659
73771W        W16688  16.412  15.343  26.846  0.0252 -0.1605 -0.2262
73772W        W16689  16.648  12.998  25.244  0.0950  0.0419 -0.1564
73773W        W16690  15.932  13.517  31.686 -0.2280  0.0273 -0.1245
73774W        W16691  16.282  10.341   1.112  0.0932  0.2474 -0.0568
73775W        W16692  14.419  10.864  29.004  0.0999 -0.0096 -0.0680
73776W        W16693  15.340  14.431  30.085 -0.0468 -0.2949 -0.1570
73777W        W16694  15.920  12.289  26.905 -0.0004 -0.1704  0.3677
73778W        W16695  18.913  12.024  27.012  0.1499  0.0874 -0.1560
73779W        W16696  18.553  14.056  28.938 -0.0101 -0.1092 -0.1262
73780W        W16697  17.313  12.877  27.309 -0.2338 -0.1647 -0.0070
73781W        W16698  17.253  11.476  27.320  0.1948  0.2353  0.0185
73782W        W16699  15.466  12.514  23.666 -0.0124  0.0873 -0.0373
73783W        W16700  15.626  12.636  27.736 -0.1383 -0.1575 -0.0795
73784W        W16701  16.932  13.086  25.698  0.2633  0.3339 -0.1948
73785W        W16702  14.546  11.213  28.322  0.1086 -0.3088 -0.0730
73786W        W16703  16.149   9.895  26.940 -0.0213  0.1286  0.1392
73787W        W16704  17.808  12.300  28.805  0.1169 -0.1006  0.1285
73788W        W16705  15.447  12.442  25.618  0.1057  0.0266 -0.0689
73789W        W16706  17.175  14.793  30.794 -0.1686  0.0412 -0.0603
73790W        W16707  18.257  15.672  27.171  0.0347  0.1148 -0.1562
73791W        W16708  13.746  13.253  31.176  0.1547 -0.0473  0.3560
73792W        W16709  16.371  14.111  25.144  0.2184  0.0460  0.2595
73793W        W16710  14.882  10.715  28.959 -0.0738  0.3185 -0.0470
73794W        W16711  15.834  10.816  26.186  0.1731  0.0169  0.1609
73795W        W16712  17.622  11.542  28.349  0.0212 -0.0335 -0.0138
73796W        W16713  18.260  12.793  27.765 -0.2596 -0.0595  0.3554
73797W        W16714  16.326  10.579  29.973 -0.2633 -0.1574  0.1830
73798W        W16715  16.758   9.861  31.845  0.1649 -0.0501  0.0599
73799W        W16716  17.785  14.717  24.095 -0.1602  0.1319  0.1001
73800W        W16717  15.892  13.497  29.220 -0.0556 -0.3337  0.1253
73801W        W16718  16.984  10.667  28.436  0.4185 -0.2743  0.0122
73802W        W16719  17.075  11.138  28.294 -0.2202  0.0166  0.0642
73803W        W16720  15.684  14.262  31.805 -0.0005  0.0094 -0.2250
73804W        W16721  14.441  12.923  27.657 -0.1576  0.0874 -0.2675
73805W        W16722  16.223  12.691  30.742  0.0900  0.0632  0.0753
73806W        W16723  17.829  13.100  27.617  0.3812 -0.0168 -0.1370
73807W        W16724  16.932  11.362  29.763 -0.3479  0.2668 -0.1609
73808W        W16725  15.507  10.500  27.396  0.0928  0.3571  0.3708
73809W        W16726  17.060  13.783  22.804 -0.2917  0.0593 -0.2073
73810W        W16727  15.969  13.505  24.211 -0.0663 -0.0043  0.1420
73811W        W16728  17.887  14.255  27.184  0.1407 -0.1991 -0.1376
73812W        W16729  15.623  13.204  27.664 -0.1630  0.1409 -0.0585
73813W        W16730  14.848  12.099  28.227 -0.1411 -0.2600 -0.0197
73814W        W16731  16.725  13.111  26.664 -0.2832 -0.0843  0.2341
73815W        W16732  15.395  14.027  25.902 -0.0176 -0.0733  0.2173
73816W        W16733  15.783   9.953  28.478  0.1686 -0.1625  0.0289
73817W        W16734  14.902  15.360  26.126  0.3073 -0.0597  0.1163
73818W        W16735  16.511  11.274  26.935 -0.1385  0.0312  0.1511
73819W        W16736  14.754  12.228  24.378  0.2918  0.0613  0.0520
73820W        W16737  16.105  11.459  28.057  0.3715  0.1905  0.1134
73821W        W16738  16.027  13.729  25.373 -0.1646  0.2338  0.1821
73822W        W16739  15.629  13.062   0.010  0.0260 -0.3668  0.1472
73823W        W16740  17.645  12.300  30.302  0.0930  0.0087 -0.0330
73824W        W16741  13.394  15.722  28.059  0.0250  0.3273 -0.2021
73825W        W16742  18.049   9.136  30.883 -0.0291  0.0486 -0.2710
73826W        W16743  18.309  11.121  27.250  0.0153 -0.0656  0.1914
73827W        W16744  17.449  12.947  27.874  0.0671  0.0844  0.2955
73828W        W16745  17.268  13.893  31.344  0.0611  0.0472  0.0336
73829W        W16746  14.470  10.401  26.494 -0.0100  0.1353 -0.1240
73830W        W16747  16.511  10.902  28.620 -0.1607 -0.0365 -0.3575
73831W        W16748  16.606  11.801  26.936 -0.1093  0.0665  0.2072
73832W        W16749  15.811  14.804  26.403  0.0192 -0.1885  0.1559
73833W        W16750  17.525  14.102  26.794 -0.1356 -0.0280 -0.2324
73834W        W16751  15.178  13.531  26.441  0.0534  0.0855 -0.0365
73835W        W16752  16.035  12.367  26.437 -0.2764  0.6339 -0.1723
73836W        W16753  14.727  14.735  28.352  0.0186 -0.1869 -0.0310
73837W        W16754  15.062  13.206  30.811 -0.0954 -0.1449  0.0252
73838W        W16755  16.024  12.206  24.877 -0.1730 -0.0221  0.0813
73839W        W16756  16.724  10.871  29.676  0.0963 -0.1462 -0.2096
73840W        W16757  14.994  11.709  26.123 -0.0128 -0.2518  0.1174
73841W        W16758  16.713  14.175  29.051 -0.0325 -0.2078  0.1665
73842W        W16759  15.481  13.633  28.712  0.3942 -0.2886  0.0051
73843W        W16760  14.986  13.763  30.840 -0.1908 -0.1936  0.1452
73844W        W16761  16.829  10.855  31.079  0.3002 -0.3075  0.2926
73845W        W16762  18.229  17.252  25.724 -0.3084  0.4057  0.5667
73846W        W16763  16.951  11.953  28.557  0.0477 -0.0165  0.0526
73847W        W16764  16.052  14.088  27.214 -0.0779 -0.0716 -0.4443
73848W        W16765  12.418  15.621  26.900 -0.1459 -0.0831  0.0693
73849W        W16766  15.599  15.734  25.600 -0.0898  0.2113 -0.1550
73850W        W16767  16.570  16.074  29.954  0.1354  0.1475 -0.1972
73851W        W16768  15.676  12.710  30.654 -0.1507  0.0124 -0.2237
73852W        W16769  14.885  15.018  26.576  0.1474 -0.2040  0.0212
73853W        W16770  14.605  13.279  30.090  0.3586 -0.5412  0.1480
73854W        W16771  17.563  12.782  26.391 -0.0308  0.0266 -0.1758
73855W        W16772  17.849  13.221  23.104  0.1480 -0.0251  0.1005
73856W        W16773  16.388  12.321  27.082  0.1911  0.0386 -0.0509
73857W        W16774  16.549  12.106  31.531  0.0827 -0.3118 -0.0438
73858W        W16775  16.953  13.563  25.517  0.0215  0.1655 -0.1221
73859W        W16776  18.437  12.167  30.844 -0.2587 -0.1501  0.0267
73860W        W16777  15.672  10.674  27.853 -0.1050 -0.0743  0.2553
73861W        W16778  17.274  14.751  25.779  0.3260 -0.2439 -0.3092
73862W        W16779  14.167  11.656  29.818 -0.2477 -0.2310  0.1973
73863W        W16780  15.508  11.726   0.939  0.0570  0.1661  0.1759
73864W        W16781  15.317  13.597  31.191 -0.3653  0.2151 -0.3331
73865W        W16782  17.089  12.335  29.013 -0.1044  0.1579 -0.3047
73866W        W16783  15.915   8.658  25.957 -0.2406 -0.1292  0.0669
73867W        W16784  16.069  12.495  29.211  0.0058 -0.0309  0.0219
73868W        W16785  17.331  14.727  29.122 -0.0258 -0.0071  0.2501
73869W        W16786  15.160  15.802  24.873  0.0343 -0.1537 -0.2759
73870W        W16787  18.127  13.272  28.868  0.3971 -0.1582 -0.0892
73871W        W16788  15.695  15.586   0.293 -0.0251 -0.0935  0.2178
73872W        W16789  16.582  13.274  26.155  0.0200  0.3486 -0.0504
73873W        W16790  15.257  11.460  23.993  0.1643 -0.0762  0.0440
73874W        W16791  16.153  14.631  26.042 -0.3503  0.3570 -0.0883
73875W        W16792  16.187  11.746  31.674  0.1054 -0.0018  0.2806
73876W        W16793  17.850  15.656  27.504 -0.1351 -0.0544  0.0966
73877W        W16794  17.590  15.083  24.720  0.1215 -0.0447 -0.0238
73878W        W16795  15.920  12.321  30.984  0.0139 -0.0166 -0.1701
73879W        W16796  15.234  12.232  29.984 -0.1234 -0.2503 -0.1646
73880W        W16797  16.207  13.023   0.058  0.0445 -0.1685 -0.1024
73881W        W16798  14.906   9.601  29.580  0.1386  0.0443  0.1862
73882W        W16799  16.056  15.487  27.192  0.1375 -0.2326  0.0021
73883W        W16800  18.504  11.431  27.732 -0.1708 -0.0405  0.0844
73884W        W16801  16.366  14.225  29.415  0.0985 -0.1330 -0.2421
73885W        W16802  17.321  11.999  27.439  0.0528 -0.0139 -0.2787
73886W        W16803  15.861  13.249  24.637 -0.0576  0.4049 -0.3595
73887W        W16804  14.851  11.866  29.851  0.1966  0.4100  0.1214
73888W        W16805  17.303  12.432  29.674 -0.1346  0.0550 -0.0997
73889W        W16806  17.196  11.354  25.680  0.0312 -0.3241 -0.0142
73890W        W16807  16.764   9.882  31.132  0.2946 -0.2439  0.1322
73891W        W16808  15.375  16.081  25.884 -0.0719  0.0862  0.1298
73892W        W16809  17.834  14.461  26.578  0.0443  0.0693 -0.2862
73893W        W16810  16.243  12.440  25.981 -0.0462 -0.0175  0.2911
73894W        W16811  15.749   9.653  28.963  0.0152  0.0889 -0.1744
73895W        W16812  15.278  13.480  30.526 -0.2994 -0.1177 -0.1428
73896W        W16813  15.379  10.173  26.235  0.0330 -0.0120 -0.1756
73897W        W16814  15.890  13.996  23.888 -0.1600 -0.1817 -0.0721
73898W        W16815  15.715  14.285  27.572  0.1146  0.2020 -0.1470
73899W        W16816  17.473  12.139  31.801  0.0352  0.1025 -0.0506
73900W        W16817  16.615   8.973  26.975 -0.1890  0.5091  0.0597
73901W        W16818  18.347  11.027  29.315 -0.2545  0.1466  0.3203
73902W        W16819  14.264  15.091  26.810  0.0714 -0.1853 -0.0967
73903W        W16820  17.361  12.047  27.932  0.3132 -0.3574  0.1289
73904W        W16821  14.918  12.832  27.879  0.0332  0.2085  0.1887
73905W        W16822  14.179  12.756  29.504  0.2108  0.1992 -0.2728
73906W        W16823  17.855  14.924  25.752 -0.4178  0.1198 -0.0646
73907W        W16824  15.081  11.855  28.925  0.1045 -0.0012  0.2415
73908W        W16825  16.544  12.834  28.089 -0.3401 -0.0543 -0.1044
73909W        W16826  17.354  13.365  28.164  0.2454 -0.1743  0.1960
73910W        W16827  18.446  12.078  27.276 -0.0003 -0.0972 -0.1104
73911W        W16828  15.579  14.518  30.812  0.3524 -0.1060  0.0160
73912W        W16829  15.709  12.050  27.817  0.0645 -0.1901  0.1087
73913W        W16830  17.836  16.100  28.075  0.1089  0.2293  0.1009
73914W        W16831  18.746  13.890  26.572 -0.0794 -0.0217 -0.0224
73915W        W16832  16.519  13.623  25.149 -0.2706  0.0615 -0.0040
73916W        W16833  13.797  11.745  31.645  0.1586  0.1262 -0.0530
73917W        W16834  17.539  12.831  29.504  0.1913  0.1157 -0.1780
73918W        W16835  18.154  13.768  28.056  0.0144  0.1452  0.5843
73919W        W16836  16.920  12.143  26.694  0.0111 -0.0015  0.2133
73920W        W16837  15.882  14.442  23.505  0.0043  0.2442 -0.0521
73921W        W16838  14.765  14.208  28.362 -0.2209  0.0681  0.1351
73922W        W16839  14.274  12.992  31.955  0.0766 -0.0023 -0.2437
73923W        W16840  15.527  12.623  27.214  0.0550 -0.0530 -0.1462
73924W        W16841  17.426  14.651  24.607 -0.1787 -0.1062 -0.0692
73925W        W16842  16.980  14.384  26.809  0.0150  0.0910 -0.0047
73926W        W16843  16.189  12.757  27.686  0.0787  0.1748 -0.1006
73927W        W16844  14.798  11.574  25.635 -0.3539 -0.1020 -0.1416
73928W        W16845  17.812  13.422  28.054  0.2550 -0.1022 -0.0287
73929W        W16846  15.062  16.152  24.458 -0.0254  0.2340 -0.1506
73930W        W16847  14.659  15.272  27.015  0.0151 -0.0193 -0.3075
73931W        W16848  14.924  14.591  25.123  0.2806 -0.0235 -0.0914
73932W        W16849  17.131  15.389  29.672 -0.0092  0.3155  0.0162
73933W        W16850  16.879  13.713  26.004  0.0505  0.2571 -0.0316
73934W        W16851  18.679  13.578  27.014 -0.1486  0.0175  0.2892
73935W        W16852  18.168  11.435  26.864 -0.1947 -0.3618 -0.1605
73936W        W16853  15.982  13.775  30.085 -0.3480  0.3679  0.3071
73937W        W16854  15.133  13.248  29.993  0.0807  0.0405 -0.0057
73938W        W16855  16.190  10.545  25.952  0.2669  0.2192 -0.0282
73939W        W16856  14.439  12.550  31.673 -0.0993  0.0676 -0.1138
73940W        W16857  18.414  10.443  31.665 -0.3114 -0.2047 -0.1441
73941W        W16858  14.424  14.626  26.594 -0.1072 -0.0544  0.0804
73942W        W16859  16.508  14.913  24.008 -0.2566 -0.0120 -0.0348
73943W        W16860  14.693  12.755  26.895 -0.2471  0.1833 -0.1365
73944W        W16861  15.483  11.782  29.773 -0.1325 -0.0486 -0.1869
73945W        W16862  16.819  10.045  28.244 -0.2099  0.0799  0.1474
73946W        W16863  15.759  12.998  25.057 -0.0434  0.0548 -0.4066
73947W        W16864  16.236  11.401  27.397 -0.1039  0.2669 -0.0201
73948W        W16865  16.487  15.510  24.958 -0.0780  0.1159  0.2485
73949W        W16866  17.163  14.291  28.212 -0.0320 -0.0797 -0.0856
73950W        W16867  16.907  13.404  27.988 -0.0121  0.0300 -0.3478
73951W        W16868  15.320   9.899  27.614  0.0582  0.0733  0.0794
73952W        W16869  18.861  11.120  28.059 -0.0054 -0.2256 -0.0575
73953W        W16870  15.864  12.043  29.017 -0.2022 -0.3620 -0.2483
73954W        W16871  17.904  10.338  31.577  0.0011  0.0621  0.3316
73955W        W16872  13.393  12.324  30.879  0.1389  0.0002 -0.3051
73956W        W16873  17.891  13.553  26.114 -0.3321 -0.0761 -0.1552
73957W        W16874  16.238  13.208  26.508  0.1254  0.2839  0.1314
73958W        W16875  15.147  12.690  30.847  0.0572  0.0150 -0.1920
73959W        W16876  17.421  13.948  23.769 -0.1164  0.0232  0.1577
73960W        W16877  16.392  12.165  29.019  0.1062  0.3706 -0.0824
73961W        W16878  16.077  12.621  25.185 -0.4970  0.1801  0.3059
73962W        W16879  16.855  13.085  29.379  0.0235 -0.2537 -0.1452
73963W        W16880  16.538  10.564  27.717  0.1088 -0.0480 -0.0490
73964W        W16881  15.914  12.335  24.380 -0.2455  0.0336 -0.0514
73965W        W16882  15.158  14.572  24.272 -0.0761 -0.1092  0.1585
73966W        W16883  16.315  11.605  29.048 -0.2394  0.0513 -0.2109
73967W        W16884  16.847  12.129  27.301 -0.0859  0.1422  0.0267
73968W        W16885  14.584  11.750  26.893 -0.0012  0.2055  0.3677
73969W        W16886  17.666  12.856  25.216  0.3111 -0.1781 -0.3143
73970W        W16887  16.956  12.951  28.774  0.0924  0.0703  0.1033
73971W        W16888  15.172  14.416  24.742  0.1777  0.1786 -0.1956
73972W        W16889  16.117  12.898  24.220  0.0441  0.0414  0.3131
73973W        W16890  18.164  16.749  28.869  0.0080  0.0916 -0.0159
73974W        W16891  14.059  10.495  27.746  0.0315 -0.1877  0.2656
73975W        W16892  17.677  14.435  29.349  0.3863  0.0572 -0.0796
73976W        W16893  17.219  13.862  27.978 -0.2013 -0.4748  0.3135
73977W        W16894  16.691  11.101  30.109  0.1618  0.1079  0.2799
73978W        W16895  15.602  13.672  26.789 -0.0885 -0.2229  0.1644
73979W        W16896  14.649  13.652  27.036 -0.1940 -0.1798  0.1823
73980W        W16897  18.538  12.950  26.984  0.2213  0.1765  0.0961
73981W        W16898  17.500   9.540  30.992 -0.0783  0.1283  0.3350
73982W        W16899  16.639  13.034  22.575  0.1285 -0.1745 -0.0336
73983W        W16900  15.665  11.304   1.253  0.0872 -0.0667 -0.1739
73984W        W16901  16.741  14.155  27.366  0.3174  0.1956 -0.3778
73985W        W16902  13.956  14.840  31.487 -0.0885 -0.2095  0.1966
73986W        W16903  17.045  14.243  24.597  0.0421 -0.0925  0.2846
73987W        W16904  16.990  12.915  27.719 -0.1374  0.1495  0.0371
73988W        W16905  15.524  13.546  24.695 -0.0689 -0.1195  0.0829
73989W        W16906  17.878  16.170  25.481 -0.3736 -0.1277  0.1446
73990W        W16907  18.701  15.868  27.344 -0.1536  0.2017  0.1026
73991W        W16908  14.171  11.841  27.621 -0.0761  0.2236 -0.1566
73992W        W16909  16.587  14.504  26.485  0.1256  0.1918 -0.1141
73993W        W16910  16.626  11.867  28.054  0.1853  0.1685 -0.2106
73994W        W16911  18.232  12.080  29.660  0.1361 -0.0813 -0.2220
73995W        W16912  16.022  11.403  29.389 -0.1406 -0.0096 -0.1188
73996W        W16913  15.687  14.595  28.317 -0.1507  0.1447  0.0755
73997W        W16914  14.503  12.404  26.192  0.0187 -0.0369 -0.0661
73998W        W16915  15.168  16.590  24.123  0.0710  0.1633 -0.2451
73999W        W16916  17.362  13.619  26.689 -0.0099  0.0307  0.2060
74000W        W16917  16.878  10.779  31.606 -0.0151 -0.1125 -0.1552
74001W        W16918  15.641  11.918  31.225 -0.0323 -0.0102  0.1195
74002W        W16919  15.002  12.395  25.957  0.0293  0.3641 -0.0610
74003W        W16920  16.180  11.762  24.676 -0.0747  0.1630  0.1156
74004W        W16921  17.847  13.244  26.631  0.4386 -0.0991 -0.1341
74005W        W16922  14.267  11.976  29.269 -0.0370  0.2300  0.3742
74006W        W16923  15.312   9.573  29.296  0.0386  0.0633  0.2460
74007W        W16924  16.451  14.198  26.105 -0.0774 -0.0811 -0.0148
74008W        W16925  17.261  14.894  25.028  0.0937 -0.1733 -0.0866
74009W        W16926  14.793  10.215  29.225 -0.2573  0.2504 -0.0671
74010W        W16927  16.067  11.627  29.818 -0.2783 -0.2190  0.0873
74011W        W16928  15.716  11.303  26.587  0.0068  0.2675  0.4298
74012W        W16929  15.373  11.887   0.311 -0.3744 -0.0642 -0.1910
74013W        W16930  15.294  12.951  30.410 -0.2970 -0.1431  0.2074
74014W        W16931  14.347  13.223  27.283 -0.2050  0.0592  0.1744
74015W        W16932  13.674  11.276  30.030  0.2352  0.1358 -0.1114
74016W        W16933  16.571  16.075  27.644 -0.1661 -0.0649  0.0675
74017W        W16934  17.583  13.842  24.268  0.1021  0.3596 -0.0986
74018W        W16935  13.176  11.257  30.740  0.3720  0.2222  0.2243
74019W        W16936  17.798  12.614  31.154 -0.1396  0.1720  0.0153
74020W        W16937  15.167   8.790  29.988 -0.3152 -0.0897 -0.4417
74021W        W16938  17.247  14.019  27.232 -0.0770  0.0162  0.2693
74022W        W16939  15.676  14.222  30.294 -0.1220  0.0538 -0.0183
74023W        W16940  18.299  14.299  24.860  0.0657 -0.2495 -0.2483
74024W        W16941  15.815  10.767  29.934  0.1487 -0.1179 -0.2391
74025W        W16942  18.342  12.733  23.268  0.0992 -0.2635 -0.0293
74026W        W16943  14.979  10.527   0.020  0.0459 -0.2709  0.1420
74027W        W16944  12.945  12.958  29.836 -0.1721  0.0386 -0.2009
74028W        W16945  16.728  13.419  28.967  0.5916  0.2212 -0.0345
74029W        W16946  15.340  11.537  28.659 -0.0371  0.4686 -0.0775
74030W        W16947  16.271  13.641  26.032  0.1033 -0.3304  0.0883
74031W        W16948  14.819  10.901  26.514  0.0697  0.0714  0.0332
74032W        W16949  16.499  11.366  27.784  0.0763  0.1294  0.0673
74033W        W16950  17.482  12.132  26.883 -0.1508  0.0300  0.1996
74034W        W16951  14.715  10.308  29.986  0.0392 -0.2441 -0.1742
74035W        W16952  16.583  14.111  26.793  0.0225  0.5214  0.0657
74036W        W16953  16.778  12.006  30.218  0.1697  0.1362 -0.0139
74037W        W16954  16.565  11.547  26.493  0.1233 -0.0807  0.0933
74038W        W16955  17.476  13.289  24.869  0.1987 -0.0318  0.1316
74039W        W16956  18.275  14.210  28.387 -0.0300  0.2695  0.0032
74040W        W16957  15.805  14.162  31.248 -0.4333 -0.0485 -0.2025
74041W        W16958  16.418  12.799  30.108  0.0862  0.1204  0.0174
74042W        W16959  14.787  12.908  30.482  0.0448 -0.1178 -0.2704
74043W        W16960  15.367  11.697  27.430  0.1213 -0.1740 -0.2246
74044W        W16961  15.789  11.414  24.908  0.2095  0.0146 -0.1685
74045W        W16962  17.091  12.802  26.208  0.1262 -0.0338  0.2744
74046W        W16963  16.926  13.741  26.902 -0.1595  0.2275 -0.0096
74047W        W16964  14.710  12.885  31.118  0.0335 -0.0200 -0.0590
74048W        W16965  14.859  13.716  26.037  0.1222 -0.2412  0.1256
74049W        W16966  15.905  12.862  28.821 -0.0751 -0.0259  0.1807
74050W        W16967  17.643  13.482  29.844  0.4343 -0.0086 -0.1320
74051W        W16968  17.762  10.668  30.277  0.0173  0.0590 -0.0656
74052W        W16969  17.242  12.070  30.062  0.2237  0.3734 -0.1004
74053W        W16970  16.083  10.840   0.400 -0.1277  0.1488 -0.2295
74054W        W16971  14.411  14.520  31.294 -0.0357  0.1722  0.0709
74055W        W16972  16.739  14.601  29.418 -0.1528  0.0075 -0.2097
74056W        W16973  14.933  14.722  31.434 -0.3321 -0.1362 -0.0345
74057W        W16974  16.591  12.354  29.881 -0.0826  0.2655 -0.1421
74058W        W16975  15.201  12.113  29.507 -0.0945  0.1203  0.0568
74059W        W16976  17.488  11.829  30.467  0.1465  0.0310 -0.2038
74060W        W16977  16.641  13.891  30.708 -0.0364 -0.3055  0.1097
74061W        W16978  16.491  12.286  30.941 -0.1292  0.0932 -0.0855
74062W        W16979  14.008  10.383  31.220  0.0414 -0.1056 -0.0630
74063W        W16980  15.596  13.239  30.802  0.3939  0.2749  0.2694
74064W        W16981  15.143  11.576   0.113  0.0850 -0.2518  0.4595
74065W        W16982  17.401  11.382  29.588 -0.2179 -0.0421 -0.4025
74066W        W16983  16.710  14.004  30.201  0.1549 -0.1455  0.1305
74067W        W16984  15.829  13.373   0.363  0.2011  0.3218  0.2011
74068W        W16985  15.891  12.773   0.388  0.2052  0.2966 -0.1264
74069W        W16986  13.770  10.169   0.264 -0.1896  0.1548  0.4240
74070W        W16987  14.490  10.349   0.115 -0.0048 -0.3157  0.0662
74071W        W16988  14.258  13.113  31.446 -0.2266 -0.0209 -0.0656
74072W        W16989  16.675  14.942  30.814 -0.0752 -0.0141 -0.1494
74073W        W16990  16.441  10.578  31.141 -0.0860 -0.2538 -0.1062
74074W        W16991  15.504  11.370  30.145  0.0898 -0.2260 -0.0236
74075W        W16992  14.265  11.016  29.945  0.2335  0.0066  0.1020
74076W        W16993  15.980  10.732  29.039  0.1133  0.0248 -0.0349
74077W        W16994  15.242  11.792  30.894 -0.1691  0.1819 -0.0402
74078W        W16995  12.299  14.492  29.290  0.0294 -0.0166  0.0331
74079W        W16996  15.208  10.427   0.918  0.3912 -0.2962  0.1892
74080W        W16997  15.461  10.524   0.012 -0.2065  0.1058  0.1479
74081W        W16998  15.488  12.382  28.164 -0.1781  0.2808  0.3542
74082W        W16999  16.128  11.539  31.199  0.3383 -0.1999 -0.0793
74083W        W17000  17.530  14.535  30.532 -0.0086 -0.0753  0.1042
74084W        W17001  16.315  10.715  31.592 -0.2275  0.1815 -0.0704
74085W        W17002  15.267  11.657  31.440 -0.1027 -0.1075 -0.0306
74086W        W17003  14.201  13.682  31.943 -0.1319 -0.0215  0.0424
74087W        W17004  15.282  10.888  30.139  0.0234  0.3566  0.1693
74088W        W17005  15.346  12.767   0.908  0.3717 -0.0527  0.3000
74089W        W17006  17.053  12.392  31.552 -0.1611 -0.0337  0.1366
74090W        W17007  17.074  10.221   0.351  0.2624 -0.0844 -0.0476
74091W        W17008  16.147  13.304  29.823  0.1446 -0.5722  0.2335
74092W        W17009  18.165  12.452  30.071  0.0953 -0.1254  0.2766
74093W        W17010  14.150   9.419  29.133 -0.1884 -0.0459 -0.1424
74094W        W17011  16.054  14.608  31.178  0.0401 -0.2184 -0.1050
74095W        W17012  14.261  11.720  30.717  0.1315  0.0328 -0.0713
74096W        W17013  15.638  12.817  31.199  0.3939  0.1430  0.1610
74097W        W17014  14.641  11.308  31.875  0.2579 -0.1235  0.0147
74098W        W17015  15.081  13.253   1.265  0.3775 -0.1365 -0.1920
74099W        W17016  15.953  12.868  29.876  0.0191  0.1947 -0.0413
74100W        W17017  14.340  14.065  29.223 -0.1611 -0.1038  0.2344
74101W        W17018  17.129  13.801  30.616  0.0340 -0.0911  0.0295
74102W        W17019  16.875  10.846  30.539 -0.1032 -0.2228  0.0485
74103W        W17020  15.132  11.321  29.735 -0.0628 -0.2994 -0.1267
74104W        W17021  15.616  13.242  31.496 -0.0974 -0.0227 -0.1600
74105W        W17022  16.131  12.336   0.402  0.3453  0.2783  0.1628
74106W        W17023  14.502  11.711  30.274 -0.1467 -0.0875  0.2009
74107W        W17024  17.848  13.844  29.436 -0.0615 -0.1383 -0.0001
74108W        W17025  15.637  15.099  29.858  0.0945 -0.1478  0.1717
74109W        W17026  16.348  13.560  29.377  0.3415 -0.1258 -0.1812
74110W        W17027  14.332  15.003   0.240 -0.2381  0.0530  0.1336
74111W        W17028  13.659  12.795  29.465 -0.1647 -0.1362  0.1180
74112W        W17029  15.667  13.228  30.096 -0.0057 -0.0297 -0.1486
74113W        W17030  14.282  14.968  30.979 -0.2635  0.0336 -0.1533
74114W        W17031  14.809  11.683  31.590  0.3594  0.1665 -0.1779
74115W        W17032  16.477  11.362  30.487  0.1945  0.5143 -0.2277
74116W        W17033  16.067  13.092  31.026 -0.1476 -0.1092 -0.2594
74117W        W17034  15.911  13.085   0.779 -0.1890  0.0941  0.0117
74118W        W17035  15.556  16.703  15.604 -0.3198  0.0653 -0.0300
74119W        W17036  14.935  16.249  14.023  0.0483  0.1303 -0.1765
74120W        W17037  16.611  15.131  13.836 -0.3694  0.0308  0.0417
74121W        W17038  17.382  16.687  13.872  0.3935  0.0393  0.2454
74122W        W17039  14.467  13.380  14.479 -0.0516  0.1074 -0.0061
74123W        W17040  15.426  17.658  16.074 -0.0233 -0.1475  0.1297
74124W        W17041  11.296  12.889  16.969  0.2111 -0.1602 -0.0229
74125W        W17042  18.664  16.916  17.456 -0.0263 -0.1467 -0.1247
74126W        W17043  17.849  18.842  15.740 -0.0577 -0.0849 -0.1531
74127W        W17044  15.402  17.364  13.493  0.0681 -0.0816  0.1462
74128W        W17045  14.019  14.982  15.450  0.0702  0.6248 -0.0338
74129W        W17046  20.479  18.958  15.519 -0.1326 -0.2515 -0.2820
74130W        W17047  14.456  16.356  13.717  0.0806  0.1583  0.1784
74131W        W17048  12.363  14.631  18.152  0.2000 -0.2039  0.0690
74132W        W17049  17.621  18.317  16.357 -0.1184  0.1019 -0.0346
74133W        W17050  14.729  15.830  15.437  0.0914  0.0961 -0.1892
74134W        W17051  16.695  16.712  15.336 -0.0253  0.3722  0.1161
74135W        W17052  14.941  15.410  15.222 -0.1680  0.2484  0.0038
74136W        W17053  15.170  20.677  16.605 -0.0465  0.0733 -0.2168
74137W        W17054  13.948  12.231  16.299 -0.0285  0.1062  0.0854
74138W        W17055  14.587  12.255  17.965  0.0013 -0.3825 -0.3574
74139W        W17056  16.780  17.341  14.600 -0.0520  0.2154 -0.2385
74140W        W17057  13.983  14.843  13.693 -0.3320  0.2499  0.2345
74141W        W17058  14.565  16.786  15.899 -0.0152  0.2661  0.0130
74142W        W17059  15.182  13.566  16.755 -0.0030 -0.2238  0.2794
74143W        W17060  16.499  14.489  16.125  0.2008  0.0722 -0.0130
74144W        W17061  17.018  15.546  13.152 -0.1033  0.1655 -0.1410
74145W        W17062  17.145  18.265  14.810 -0.5137  0.0556  0.2260
74146W        W17063  17.000  15.540  13.645  0.2167  0.0945  0.4829
74147W        W17064  16.761  14.865  15.824  0.2631 -0.1213  0.3409
74148W        W17065  13.920  17.365  14.968  0.2954 -0.1206  0.0092
74149W        W17066  13.531  17.363  15.363 -0.3094  0.1564 -0.2853
74150W        W17067  15.857  16.141  14.824 -0.2259  0.1216  0.1152
74151W        W17068  16.853  16.786  14.257 -0.1510 -0.0234  0.0709
74152W        W17069  16.645  16.030  16.918 -0.1466 -0.0582 -0.0127
74153W        W17070  13.696  19.698  17.310 -0.0370  0.0230  0.1473
74154W        W17071  14.825  17.946  14.824 -0.0284  0.1172 -0.0358
74155W        W17072  16.972  17.068  16.593 -0.0539  0.0911  0.1774
74156W        W17073  14.513  15.973  15.031  0.0515 -0.0740 -0.1658
74157W        W17074  14.604  16.367  15.509 -0.0985 -0.2457 -0.0650
74158W        W17075  15.042  16.012  15.900 -0.4433  0.2098 -0.1286
74159W        W17076  15.618  17.706  13.751 -0.1322 -0.4758 -0.0946
74160W        W17077  15.858  17.264  13.680 -0.1012  0.0319 -0.1516
74161W        W17078  14.668  15.058  15.711 -0.0551 -0.3126 -0.0148
74162W        W17079  13.306  16.096  16.072  0.0817 -0.3453  0.0478
74163W        W17080  18.829  15.124  17.117 -0.2290  0.3027  0.0465
74164W        W17081  15.670  16.734  13.485 -0.1676  0.1205  0.4130
74165W        W17082  16.557  14.558  14.348 -0.0712 -0.2567  0.2187
74166W        W17083  16.701  15.175  13.362  0.0593  0.2247  0.0710
74167W        W17084  17.715  16.306  15.994 -0.0645 -0.0024  0.0620
74168W        W17085  15.319  14.909  15.978 -0.3247  0.0053  0.1160
74169W        W17086  15.203  16.467  14.694 -0.1149 -0.1212 -0.0196
74170W        W17087  14.519  16.057  14.158  0.1460  0.0513  0.4531
74171W        W17088  19.451  16.731  15.936  0.1489 -0.0791 -0.0654
74172W        W17089  15.129  16.733  15.239 -0.1444 -0.0096 -0.1193
74173W        W17090  16.854  13.312  16.239  0.0134 -0.0192  0.1989
74174W        W17091  13.805  17.912  16.869 -0.2559 -0.4618 -0.0180
74175W        W17092  15.582  14.268  17.004 -0.1990  0.0816 -0.2415
74176W        W17093  16.175  20.138  14.504 -0.3085 -0.3197  0.3280
74177W        W17094  17.845  18.806  15.175 -0.1060 -0.0978  0.0642
74178W        W17095  17.088  17.506  13.831  0.0752 -0.0491  0.1229
74179W        W17096  16.095  15.182  16.632 -0.0371  0.0717  0.2311
74180W        W17097  15.652  15.523  15.635 -0.0614 -0.3022  0.4565
74181W        W17098  13.263  15.607  16.280 -0.1103 -0.2240 -0.0245
74182W        W17099  14.476  16.688  14.805 -0.1568 -0.1251  0.3459
74183W        W17100  18.631  15.898  16.643  0.0661 -0.0725  0.2715
74184W        W17101  16.326  15.693  15.915  0.1677  0.1660 -0.1381
74185W        W17102  16.645  15.573  15.497  0.1216  0.4774  0.0711
74186W        W17103  15.821  15.238  15.173 -0.1506 -0.1426  0.0065
74187W        W17104  18.157  20.104  15.690  0.0592  0.0812  0.1232
74188W        W17105  16.548  16.316  14.175 -0.4237  0.3313  0.2320
74189W        W17106  15.620  15.516  14.165  0.1663 -0.0226  0.2216
74190W        W17107  15.688  10.616  19.060  0.0863  0.5671 -0.0087
74191W        W17108  14.751  17.444  14.927 -0.0989  0.0585  0.1973
74192W        W17109  16.396  16.958  14.356 -0.0863  0.0045 -0.0260
74193W        W17110  16.543  16.398  15.927  0.1239  0.1467  0.1000
74194W        W17111  17.695  14.965  13.872  0.2656 -0.2244  0.3709
74195W        W17112  13.363  16.810  17.479 -0.1998 -0.0238 -0.0710
74196W        W17113  15.792  15.888  15.269  0.2942 -0.3936  0.1302
74197W        W17114  14.688  17.817  15.309  0.2641  0.3844  0.0490
74198W        W17115  15.542  15.922  16.907 -0.0009  0.0439 -0.3782
74199W        W17116  13.096  14.841  16.161  0.0617  0.3770 -0.1511
74200W        W17117  15.427  15.954  14.612  0.3423  0.1894  0.0999
74201W        W17118  13.188  13.954  15.877  0.1476 -0.0116 -0.1038
74202W        W17119  16.360  16.772  16.614  0.2563 -0.1768  0.1949
74203W        W17120  15.888  14.419  14.925  0.2481  0.3072 -0.1361
74204W        W17121  14.706  13.316  16.774 -0.1168 -0.0785 -0.1619
74205W        W17122  15.919  12.274  18.700 -0.0572  0.1919  0.2631
74206W        W17123  14.185  17.081  16.369 -0.3972  0.0143  0.0953
74207W        W17124  17.395  19.421  14.050 -0.1495  0.1423 -0.3121
74208W        W17125  17.946  15.375  14.065  0.0219 -0.3473  0.3098
74209W        W17126  16.402  17.293  13.691 -0.2539 -0.0000 -0.1086
74210W        W17127  12.030  17.937  17.006 -0.1472  0.1764  0.0422
74211W        W17128  13.622  15.540  16.719 -0.0413  0.0513  0.0128
74212W        W17129  12.993  15.935  17.279  0.1875 -0.1048  0.2766
74213W        W17130  15.826  15.032  15.669  0.1777  0.0657 -0.1869
74214W        W17131  17.432  16.241  15.398  0.0280 -0.1356  0.1797
74215W        W17132  13.274  13.455  16.331  0.0728  0.3051  0.1601
74216W        W17133  17.406  15.505  14.834 -0.1452  0.3788  0.2599
74217W        W17134  16.322  15.157  15.538 -0.2707 -0.2122  0.0504
74218W        W17135  16.255  18.139  14.515 -0.0014 -0.1999  0.2888
74219W        W17136  19.158  15.067  15.617 -0.2515 -0.0360  0.3947
74220W        W17137  17.296  18.015  14.013 -0.1469 -0.3321 -0.0788
74221W        W17138  17.364  18.270  17.241 -0.2094 -0.1695  0.0674
74222W        W17139  19.150  18.450  14.882 -0.1271 -0.1090 -0.1727
74223W        W17140  16.143  15.578  15.437 -0.0967 -0.5103  0.1559
74224W        W17141  14.354  14.677  14.554 -0.1335 -0.2544  0.0017
74225W        W17142  12.660  16.213  16.882 -0.1734 -0.0890  0.0140
74226W        W17143  15.395  17.239  14.744 -0.1254 -0.0958 -0.2502
74227W        W17144  15.676  16.639  14.912 -0.0974 -0.2203 -0.0317
74228W        W17145  18.015  18.457  16.040  0.0926 -0.1644 -0.2891
74229W        W17146  15.896  15.977  15.823  0.0022  0.0003 -0.2177
74230W        W17147  15.139  17.732  15.151  0.0258 -0.0691 -0.1101
74231W        W17148  14.927  14.303  18.492 -0.1962 -0.1883  0.0504
74232W        W17149  17.330  14.270  16.432  0.2414 -0.2267  0.1232
74233W        W17150  16.518  15.037  16.207  0.1603  0.3413  0.4762
74234W        W17151  14.264  15.508  14.266 -0.1310  0.2689  0.0552
74235W        W17152  17.206  18.157  16.681 -0.0831  0.2527  0.2406
74236W        W17153  14.544  17.376  15.402  0.0990 -0.0727 -0.0698
74237W        W17154  13.631  14.496  14.917 -0.1578 -0.0055  0.2495
74238W        W17155  16.296  18.505  14.944 -0.2866  0.1361  0.0308
74239W        W17156  16.804  12.805  15.184  0.0666 -0.1860 -0.2282
74240W        W17157  14.010  14.525  16.252  0.2199  0.0019  0.0323
74241W        W17158  17.652  13.703  17.371  0.1181 -0.0991  0.3703
74242W        W17159  14.345  17.544  14.474 -0.3373  0.2062  0.3017
74243W        W17160  14.143  15.813  15.908 -0.1644  0.2661 -0.0154
74244W        W17161  15.771  13.084  16.411 -0.2803 -0.1196 -0.2477
74245W        W17162  18.035  13.831  14.797  0.2059  0.1991  0.1522
74246W        W17163  17.970  15.126  16.263  0.0495  0.1542 -0.0061
74247W        W17164  16.871  17.002  14.999 -0.3140 -0.1770 -0.3439
74248W        W17165  15.552  16.229  13.451 -0.2342  0.2122 -0.2235
74249W        W17166  17.382  13.675  14.207  0.0491  0.1903 -0.0185
74250W        W17167  13.017  16.476  18.306 -0.2973  0.0961  0.0658
74251W        W17168  16.352  17.026  14.919 -0.2778 -0.2626 -0.0909
74252W        W17169  15.714  18.216  14.608  0.1703 -0.1578  0.3822
74253W        W17170  16.800  14.586  13.850  0.0494 -0.0746  0.0707
74254W        W17171  17.759  18.754  17.224  0.2348 -0.0633 -0.5297
74255W        W17172  12.051  15.998  16.761  0.1545  0.0023  0.1592
74256W        W17173  16.051  15.282  16.064  0.0147 -0.2651 -0.2257
74257W        W17174  16.125  16.574  14.594 -0.0736  0.2136 -0.2139
74258W        W17175  14.792  14.174  16.321  0.3018 -0.2852  0.2396
74259W        W17176  15.235  15.683  16.262  0.1034  0.2246  0.0807
74260W        W17177  16.707  12.332  17.079 -0.1620 -0.0433  0.1179
74261W        W17178  13.390  17.646  16.739 -0.0706 -0.0576 -0.0528
74262W        W17179  16.219  15.496  14.433 -0.2967  0.0504 -0.1503
74263W        W17180  15.779  14.879  17.440  0.0969  0.1725 -0.0645
74264W        W17181  14.884  14.098  15.784  0.0652  0.0988  0.0172
74265W        W17182  16.182  14.584  17.375 -0.0802 -0.0951  0.1038
74266W        W17183  18.902  15.514  16.369  0.3611  0.0621 -0.1758
74267W        W17184  16.661  17.204  16.248 -0.1692  0.4018  0.0523
74268W        W17185  14.944  16.954  14.774 -0.0447 -0.2475  0.0629
74269W        W17186  13.625  15.073  15.024  0.0384 -0.2589  0.2073
74270W        W17187  16.480  17.373  16.659 -0.3415 -0.3408 -0.1450
74271W        W17188  15.107  15.827  16.815 -0.0466 -0.2698  0.3750
74272W        W17189  15.947  16.233  17.034 -0.0503  0.0785 -0.0310
74273W        W17190  17.590  19.022  14.361 -0.3471 -0.0754  0.0946
74274W        W17191  16.383  16.112  15.577  0.1783 -0.0733  0.1327
74275W        W17192  15.569  14.259  15.286 -0.0156  0.0179 -0.0107
74276W        W17193  17.533  18.066  15.868 -0.2751  0.2494 -0.0645
74277W        W17194  15.694  19.081  15.410  0.0712 -0.3726 -0.0507
74278W        W17195  13.579  12.528  17.989 -0.0960 -0.0395  0.2109
74279W        W17196  16.877  17.787  16.222 -0.6484 -0.0844 -0.0227
74280W        W17197  14.556  17.790  14.027  0.2155 -0.4045  0.2131
74281W        W17198  18.484  15.635  14.788 -0.0436  0.0458 -0.0692
74282W        W17199  14.358  17.135  15.033 -0.0162  0.1050 -0.2272
74283W        W17200  16.604  14.068  15.855  0.3057 -0.1517 -0.1557
74284W        W17201  12.319  15.370  16.653 -0.0074  0.0030  0.0013
74285W        W17202  15.170  16.539  13.638  0.2076 -0.1053  0.3098
74286W        W17203  14.993  14.649  14.783 -0.0255  0.1506 -0.1334
74287W        W17204  17.032  12.789  14.682  0.1519  0.0367 -0.1885
74288W        W17205  17.043  18.432  14.324  0.0209 -0.0623 -0.0206
74289W        W17206  16.130  13.624  16.977  0.2248  0.0075  0.0566
74290W        W17207  15.854  13.689  15.613 -0.2774 -0.0676 -0.0211
74291W        W17208  13.517  16.796  15.315 -0.1704  0.2162  0.1373
74292W        W17209  15.446  16.204  15.057  0.2177  0.0695  0.2854
74293W        W17210  18.355  15.458  13.780 -0.1387 -0.1650  0.1485
74294W        W17211  17.644  16.473  14.781  0.2000  0.1133 -0.0625
74295W        W17212  15.423  14.590  16.669 -0.0010  0.1716  0.0229
74296W        W17213  14.867  13.607  14.889  0.0777 -0.0952  0.0986
74297W        W17214  17.380  14.016  16.919  0.0613 -0.3053  0.1546
74298W        W17215  14.515  14.529  14.975  0.0320  0.3567  0.2111
74299W        W17216  14.706  18.899  16.947  0.1360  0.1352 -0.1367
74300W        W17217  17.102  16.349  14.925 -0.1211 -0.1687 -0.1681
74301W        W17218  14.147  16.360  15.787  0.1845  0.1769 -0.0315
74302W        W17219  15.792  15.621  16.415 -0.1731 -0.2605  0.3162
74303W        W17220  14.935  15.069  16.188  0.2457  0.1136 -0.0097
74304W        W17221  17.226  16.136  15.875  0.0912 -0.0992 -0.0697
74305W        W17222  15.246  14.618  13.575  0.1157 -0.0432 -0.2108
74306W        W17223  13.884  14.722  14.509  0.0843 -0.1333 -0.2581
74307W        W17224  15.746  14.494  15.976 -0.1874 -0.5328  0.1607
74308W        W17225  17.285  16.035  14.645  0.0256 -0.1737  0.0322
74309W        W17226  15.024  15.911  15.003 -0.0677  0.1263  0.1313
74310W        W17227  15.114  18.792  16.201  0.0738  0.1629  0.0211
74311W        W17228  14.723  14.379  14.451  0.0949 -0.2185 -0.0277
74312W        W17229  17.431  20.681  15.382  0.0470  0.0612 -0.1950
74313W        W17230  17.187  14.232  14.964 -0.0014  0.0189 -0.0708
74314W        W17231  15.949  16.883  14.149  0.0651 -0.0273 -0.4741
74315W        W17232  14.641  15.745  14.591 -0.0066  0.0117 -0.0525
74316W        W17233  14.871  17.624  14.386  0.0321  0.7059 -0.1051
74317W        W17234  17.083  14.768  16.815 -0.0649 -0.4417  0.2629
74318W        W17235  13.758  17.066  17.033 -0.3922 -0.5948  0.0169
74319W        W17236  15.363  17.726  14.219  0.0203  0.1893 -0.1595
74320W        W17237  10.800  15.448  16.137 -0.2650  0.1899 -0.0915
74321W        W17238  17.037  13.285  15.065 -0.0990  0.0454  0.1110
74322W        W17239  15.302  18.211  14.146  0.0560 -0.0825  0.0983
74323W        W17240  15.241  13.925  17.325 -0.0328  0.0723  0.4365
74324W        W17241  18.410  12.904  18.220  0.1378 -0.0465  0.1343
74325W        W17242  15.920  15.918  14.419  0.0944 -0.1170  0.1463
74326W        W17243  17.477  15.220  15.941  0.2599 -0.2014  0.2620
74327W        W17244  16.311  13.260  16.094 -0.0060  0.0938 -0.1473
74328W        W17245  16.059  16.344  14.135  0.0950 -0.1675 -0.1580
74329W        W17246  14.795  12.812  16.074  0.1882  0.0310  0.0567
74330W        W17247  16.438  18.236  15.330  0.4155 -0.2336 -0.6561
74331W        W17248  15.791  13.820  17.332  0.1835  0.0479  0.0493
74332W        W17249  18.549  15.382  16.791 -0.4798  0.3594  0.1731
74333W        W17250  15.164  14.069  14.371 -0.0563 -0.1490 -0.1453
74334W        W17251  18.312  15.054  15.927  0.0221 -0.2080  0.0824
74335W        W17252  18.630  15.652  17.229  0.5502 -0.1486 -0.0789
74336W        W17253  15.857  16.352  15.309 -0.1441 -0.1591  0.1798
74337W        W17254  17.438  14.844  16.277 -0.1531 -0.1441  0.0973
74338W        W17255  15.682  16.371  16.602 -0.0977 -0.2853  0.0437
74339W        W17256  18.240  16.877  14.990  0.0144  0.0557 -0.0541
74340W        W17257  15.662  15.319  14.629  0.2084  0.0255 -0.2162
74341W        W17258  13.720  14.025  15.640  0.0325 -0.1242  0.0170
74342W        W17259  15.214  16.728  16.479 -0.1425  0.1404 -0.0323
74343W        W17260  16.795  16.463  13.683 -0.0188 -0.1327 -0.0502
74344W        W17261  15.830  14.172  13.648  0.0216 -0.0381 -0.0436
74345W        W17262  16.368  13.658  15.757  0.0097 -0.0928  0.2258
74346W        W17263  16.140  14.795  15.968 -0.0740  0.0085 -0.0994
74347W        W17264  16.924  14.259  16.765 -0.2737  0.0553  0.2877
74348W        W17265  14.576  14.727  16.249 -0.1336 -0.1219 -0.3207
74349W        W17266  15.994  17.125  15.577 -0.1997  0.2004  0.0263
74350W        W17267  17.641  16.053  13.441  0.2039 -0.0460  0.2501
74351W        W17268  16.636  14.887  15.310  0.3861  0.1108 -0.0494
74352W        W17269  16.646  15.551  14.026  0.3144 -0.5835 -0.0126
74353W        W17270  18.132  16.269  13.606 -0.0636  0.1209  0.1769
74354W        W17271  12.390  14.538  15.601  0.0337 -0.1265  0.1643
74355W        W17272  17.001  16.298  17.262 -0.2413 -0.0259 -0.1922
74356W        W17273  14.619  17.097  14.442 -0.1316  0.2556 -0.0818
74357W        W17274  17.964  14.541  16.106  0.1454 -0.2326 -0.1134
74358W        W17275  16.127  18.040  15.018  0.1574  0.1544 -0.0206
74359W        W17276  16.878  14.393  15.414  0.1860 -0.0722 -0.1143
74360W        W17277  17.530  14.601  14.203  0.0850  0.1933  0.2552
74361W        W17278  13.753  15.887  16.240 -0.1608 -0.2457  0.0491
74362W        W17279  13.728  17.266  16.560  0.0472  0.0575  0.0570
74363W        W17280  13.046  13.721  15.144  0.0623 -0.0719  0.1055
74364W        W17281  13.907  16.861  14.988  0.1047 -0.1702  0.2604
74365W        W17282  16.800  15.908  15.890  0.0688  0.2415  0.2579
74366W        W17283  18.659  14.760  18.066 -0.1630 -0.1064  0.1030
74367W        W17284  15.759  13.911  14.585  0.2109 -0.1726  0.0344
74368W        W17285  19.114  13.800  17.061 -0.1213 -0.1554 -0.1417
74369W        W17286  13.100  16.541  15.016 -0.1553  0.0296  0.0441
74370W        W17287  15.255  13.332  15.036 -0.0678 -0.3279 -0.0538
74371W        W17288  13.631  16.913  16.229  0.0799 -0.1591 -0.2587
74372W        W17289  12.321  17.506  16.427  0.0652  0.0900 -0.1066
74373W        W17290  14.460  18.239  15.719 -0.0435 -0.1344 -0.2885
74374W        W17291  19.222  15.333  14.667 -0.1034  0.3525 -0.1552
74375W        W17292  16.388  15.295  15.029  0.0896 -0.1136 -0.2698
74376W        W17293  15.411  14.612  15.584  0.1459 -0.0718  0.1244
74377W        W17294  18.401  15.519  16.358 -0.0286 -0.4153 -0.0319
74378W        W17295  18.571  16.662  15.670 -0.0108 -0.0564  0.3018
74379W        W17296  13.999  15.565  14.762  0.0511 -0.1064  0.4184
74380W        W17297  13.739  16.326  15.330  0.0343 -0.0787 -0.1310
74381W        W17298  19.273  17.171  14.990  0.1561 -0.1213  0.2254
74382W        W17299  13.792  15.538  17.308 -0.1018  0.1566  0.0627
74383W        W17300  13.989  15.281  16.891 -0.0633 -0.1112  0.1367
74384W        W17301  18.462  16.381  16.871  0.1476 -0.3004  0.0007
74385W        W17302  14.831  16.645  14.409  0.3508  0.1933  0.1312
74386W        W17303  15.723  15.108  13.913  0.1283  0.0932  0.1135
74387W        W17304  15.559  17.035  15.205  0.2370 -0.1355  0.1666
74388W        W17305  12.506  18.183  16.829 -0.1428  0.2474 -0.0958
74389W        W17306  13.691  15.433  16.097  0.0402 -0.2623  0.0415
74390W        W17307  13.884  17.559  15.623  0.1869 -0.0537  0.0480
74391W        W17308  16.734  15.451  14.634  0.0943 -0.1998 -0.1069
74392W        W17309  14.192  16.617  15.335 -0.1180 -0.0274 -0.0700
74393W        W17310  15.938  17.060  14.649 -0.1975 -0.3294 -0.1284
74394W        W17311  15.619  16.523  13.914 -0.5598 -0.2104 -0.0417
74395W        W17312  11.985  15.344  15.975  0.2351  0.2809 -0.6064
74396W        W17313  14.689  17.803  13.518  0.1226 -0.1116 -0.0719
74397W        W17314  17.099  17.884  13.549  0.5026  0.2181 -0.3629
74398W        W17315  15.470  15.561  15.031 -0.1924  0.0846 -0.0419
74399W        W17316  20.609  15.462  15.453 -0.0689 -0.2239  0.0631
74400W        W17317  17.280  14.515  13.734 -0.2056 -0.2310 -0.1266
74401W        W17318  17.119  15.773  15.163  0.0093  0.0589  0.0393
74402W        W17319  16.328  12.364  17.498 -0.1414  0.0597  0.0746
74403W        W17320  17.879  15.480  15.021 -0.2041  0.2137  0.0337
74404W        W17321  16.840  16.243  15.427  0.3584  0.1164  0.0213
74405W        W17322  15.268  15.086  14.335 -0.3731 -0.1328  0.3283
74406W        W17323  13.128  14.177  16.862  0.1914  0.2235  0.0808
74407W        W17324  16.497  13.346  17.151 -0.1088 -0.0891 -0.0741
74408W        W17325  13.876  17.391  16.108 -0.1054 -0.0820 -0.0398
74409W        W17326  17.868  19.151  14.716  0.1389  0.1190 -0.2517
74410W        W17327  13.570  16.517  14.268 -0.0342  0.0084  0.2089
74411W        W17328  15.023  15.443  15.876  0.0303 -0.4754 -0.3112
74412W        W17329  16.953  13.192  17.210  0.2779 -0.2240 -0.2064
74413W        W17330  15.206  16.632  14.142 -0.0978  0.1427 -0.0766
74414W        W17331  14.824  16.805  13.934 -0.1157  0.0225  0.1722
74415W        W17332  16.813  17.960  14.413  0.0024  0.3517  0.0331
74416W        W17333  15.473  16.833  16.895  0.2236 -0.1316  0.1706
74417W        W17334  14.571  19.285  15.434 -0.1735  0.0046  0.0228
74418W        W17335  13.675  16.053  14.613 -0.0140 -0.1649 -0.0649
74419W        W17336  17.607  15.053  14.887 -0.0932 -0.1730  0.0382
74420W        W17337  13.144  15.452  16.812 -0.1642  0.1608  0.1411
74421W        W17338  17.263  13.439  17.537  0.2212 -0.0090 -0.3375
74422W        W17339  14.522  16.049  15.912  0.0725  0.0398 -0.0240
74423W        W17340  17.478  14.073  14.571  0.1555  0.1709 -0.1754
74424W        W17341  16.754  15.431  16.025 -0.0760 -0.0689 -0.1497
74425W        W17342  14.268  15.980  15.425  0.1953 -0.1185 -0.3039
74426W        W17343  14.432  14.338  13.637 -0.4114 -0.0439  0.1384
74427W        W17344  17.615  15.476  16.354  0.0568  0.0291 -0.2684
74428W        W17345  15.014  15.487  14.745  0.2863  0.1305  0.1193
74429W        W17346  16.475  17.209  15.361  0.2130 -0.1835 -0.1158
74430W        W17347  16.557  14.443  17.008 -0.0134 -0.0617 -0.0458
74431W        W17348  16.298  15.884  14.075  0.2559 -0.1441  0.2825
74432W        W17349  14.578  15.786  17.517 -0.2563  0.0837 -0.1207
74433W        W17350  18.185  14.882  17.398  0.5135 -0.0347 -0.1630
74434W        W17351  16.858  14.043  16.256  0.0120  0.1430  0.0826
74435W        W17352  11.382  14.087  14.975 -0.2129  0.0785 -0.1884
74436W        W17353  16.459  16.548  13.347 -0.2217 -0.2395  0.1569
74437W        W17354  16.969  14.133  13.756 -0.0632  0.1932  0.0739
74438W        W17355  16.223  18.477  14.053  0.0142  0.1196  0.1026
74439W        W17356  17.114  15.444  14.236 -0.3387 -0.3028  0.1147
74440W        W17357  17.157  16.817  14.654 -0.0006 -0.0396  0.2077
74441W        W17358  15.853  14.683  16.929  0.0996  0.3013 -0.0256
74442W        W17359  14.843  16.090  17.169 -0.2631 -0.0301  0.0457
74443W        W17360  16.800  16.622  16.299  0.0253  0.1877  0.3181
74444W        W17361  16.588  14.028  15.341 -0.2048 -0.2573  0.0197
74445W        W17362  15.790  14.870  16.356  0.3498 -0.1528  0.0449
74446W        W17363  13.990  18.516  14.437 -0.0823  0.3671  0.1558
74447W        W17364  17.204  14.821  15.227  0.0494  0.2276 -0.1326
74448W        W17365  14.728  15.252  14.342  0.2428 -0.0807  0.4545
74449W        W17366  15.884  19.104  14.546 -0.1568 -0.2413  0.1841
74450W        W17367  17.392  13.857  18.690  0.0362 -0.1157 -0.1967
74451W        W17368  14.950  16.092  14.499  0.0488 -0.2411  0.2383
74452W        W17369  14.270  17.286  15.827 -0.0365  0.1511  0.4866
74453W        W17370  15.240  14.565  14.344 -0.2969  0.1355  0.0815
74454W        W17371  12.235  16.678  15.666  0.0803  0.1129  0.1450
74455W        W17372  17.097  17.444  15.342  0.0316 -0.3028 -0.0701
74456W        W17373  15.651  19.991  15.061  0.2112 -0.0847 -0.2652
74457W        W17374  16.981  15.263  15.120 -0.0435 -0.1368 -0.0537
74458W        W17375  16.977  14.727  13.347  0.2317  0.1277  0.1364
74459W        W17376  18.046  16.404  17.093  0.1345 -0.0065 -0.2191
74460W        W17377  14.483  15.064  15.228  0.1845 -0.1750  0.4763
74461W        W17378  16.178  12.814  15.183 -0.2566 -0.0341 -0.1610
74462W        W17379  17.399  14.587  14.667 -0.1139  0.0411  0.3400
74463W        W17380  14.620  16.884  15.368  0.1536 -0.2092  0.0777
74464W        W17381  14.065  15.304  15.851 -0.2849  0.0594 -0.1163
74465W        W17382  14.996  17.667  13.850  0.0491  0.1856  0.1355
74466W        W17383  12.320  16.182  15.511  0.4370 -0.2823  0.1542
74467W        W17384  14.932  14.744  15.344 -0.2254 -0.2168  0.1435
74468W        W17385  12.587  13.889  18.935 -0.2965 -0.1991  0.0887
74469W        W17386  15.513  16.856  14.489  0.0513  0.0677 -0.1401
74470W        W17387  13.228  15.251  15.903  0.1206 -0.1910  0.0170
74471W        W17388  17.575  16.609  14.297 -0.0449 -0.0907  0.0322
74472W        W17389  15.436  13.988  15.673 -0.0982  0.0774 -0.1917
74473W        W17390  13.707  15.638  14.342 -0.1700 -0.3473 -0.0585
74474W        W17391  16.092  16.782  15.231  0.0181 -0.0868  0.2305
74475W        W17392  16.697  15.955  13.809 -0.1168  0.1128  0.1516
74476W        W17393  16.848  13.607  16.663  0.0733  0.4765  0.2165
74477W        W17394  15.450  16.139  15.744  0.0853 -0.0110  0.0787
74478W        W17395  13.954  17.655  14.136  0.2754 -0.0865 -0.0266
74479W        W17396  17.783  15.573  17.112  0.2764 -0.0052 -0.2315
74480W        W17397  17.418  15.669  16.817  0.1142  0.0448  0.3701
74481W        W17398  14.577  15.430  13.905 -0.0594 -0.0027 -0.2332
74482W        W17399  13.348  14.765  14.563  0.0306 -0.0518 -0.1819
74483W        W17400  17.248  20.084  14.709 -0.0942  0.2017 -0.0306
74484W        W17401  15.991  17.356  15.130  0.2508 -0.2648 -0.2381
74485W        W17402  15.003  16.547  17.259  0.1837  0.0099 -0.0467
74486W        W17403  14.671  16.069  16.665 -0.0242  0.3458 -0.0854
74487W        W17404  12.115  13.960  16.240  0.0610 -0.3818  0.0941
74488W        W17405  17.735  16.984  14.619  0.1772 -0.1044  0.1139
74489W        W17406  15.357  15.135  16.620 -0.1301 -0.1943 -0.3081
74490W        W17407  16.817  18.804  15.561  0.0971  0.1829  0.0794
74491W        W17408  15.274  14.349  16.187  0.0443  0.3010 -0.2134
74492W        W17409  15.609  17.336  14.158 -0.0032 -0.0014 -0.2471
74493W        W17410  13.497  15.813  17.630  0.2256  0.2501 -0.0252
74494W        W17411  14.508  15.540  16.784  0.0425 -0.0853  0.0047
74495W        W17412  19.078  16.007  16.520  0.0734  0.1765  0.1211
74496W        W17413  14.029  12.600  17.082  0.2719 -0.1160  0.1893
74497W        W17414  16.625  16.063  13.331  0.2929  0.2006  0.2031
74498W        W17415  14.339  16.967  13.624 -0.0379  0.2852 -0.4176
74499W        W17416  14.857  14.624  15.845 -0.0398  0.0122 -0.0134
74500W        W17417  15.809  15.926  13.912  0.0842 -0.0482 -0.0217
74501W        W17418  19.524  14.333  16.138 -0.2747  0.4068 -0.0052
74502W        W17419  17.573  18.384  14.305 -0.2080  0.1925 -0.1878
74503W        W17420  18.410  15.151  14.952 -0.0106  0.2011  0.0316
74504W        W17421  17.423  14.688  15.686 -0.1090  0.2205  0.1001
74505W        W17422  19.124  16.410  15.896 -0.2447  0.3423  0.1563
74506W        W17423  14.805  16.400  15.023  0.4136 -0.1165  0.1031
74507W        W17424  15.278  17.687  17.270  0.0077  0.1688  0.0806
74508W        W17425  15.602  18.547  15.529 -0.0717  0.0695  0.0081
74509W        W17426  16.424  16.304  16.572 -0.0153 -0.2523  0.3074
74510W        W17427  14.202  13.943  15.555 -0.2245  0.1001 -0.4628
74511W        W17428  16.053  16.499  15.828  0.2400  0.3477  0.1257
74512W        W17429  16.921  17.958  15.253  0.2809  0.2810  0.3067
74513W        W17430  19.013  14.156  16.011 -0.1430 -0.1103 -0.1887
74514W        W17431  15.199  12.644  15.741  0.1608  0.0315  0.3267
74515W        W17432  15.316  13.754  14.753 -0.2129  0.4058  0.1884
74516W        W17433  13.024  18.880  15.720  0.1558 -0.0581 -0.2873
74517W        W17434  19.685  15.090  15.589  0.3118 -0.0395  0.0705
74518W        W17435  14.770  17.349  17.846 -0.1461 -0.3248 -0.0750
74519W        W17436  12.178  15.160  17.672 -0.0548 -0.1789  0.0983
74520W        W17437  17.329  13.221  17.974 -0.1831 -0.1304  0.1081
74521W        W17438  18.721  14.663  16.690 -0.1717  0.1828 -0.0383
74522W        W17439  11.524  13.791  19.797 -0.1013  0.2087  0.2097
74523W        W17440  17.620  16.897  17.287 -0.0751 -0.1182 -0.0627
74524W        W17441  13.805  13.949  18.220 -0.2029 -0.3400 -0.0242
74525W        W17442  15.958  18.689  16.714 -0.2057  0.2694  0.0546
74526W        W17443  16.741  16.688  17.444  0.0887 -0.3556  0.1920
74527W        W17444  15.465  13.453  17.320 -0.0041 -0.1612  0.0614
74528W        W17445  15.725  16.948  16.470 -0.1164  0.0069 -0.1479
74529W        W17446  15.196  13.209  17.690  0.1853  0.0381  0.0576
74530W        W17447  12.581  15.382  18.617  0.2678 -0.1928  0.1500
74531W        W17448  18.185  14.980  17.899  0.0205  0.4237  0.0535
74532W        W17449  14.772  16.604  16.609 -0.0510  0.1654  0.2288
74533W        W17450  14.091  15.764  17.743  0.0508  0.2432  0.1110
74534W        W17451  13.659  14.871  18.969  0.3069  0.1674  0.2009
74535W        W17452  16.132  21.089  18.257  0.0507  0.0921  0.2120
74536W        W17453  16.476  14.093  18.630 -0.1856 -0.1188 -0.1101
74537W        W17454  17.070  17.618  16.686  0.0460  0.1346  0.4314
74538W        W17455  13.152  13.945  19.034 -0.2876  0.0960  0.2615
74539W        W17456  12.202  13.072  21.008 -0.5653 -0.0017 -0.1032
74540W        W17457  13.341  15.113  19.661 -0.2430 -0.0141 -0.2039
74541W        W17458  16.961  14.684  18.251  0.1047  0.0217  0.1141
74542W        W17459  16.655  14.613  17.870 -0.4062  0.1409 -0.0568
74543W        W17460  13.704  18.579  17.781 -0.2739 -0.0160  0.3166
74544W        W17461  15.505  18.130  17.090 -0.1946 -0.1724 -0.2250
74545W        W17462  16.044  15.850  19.889  0.0361 -0.0951  0.1363
74546W        W17463  13.021  17.172  18.429 -0.2664  0.0799  0.1221
74547W        W17464  15.262  17.507  17.701  0.0701 -0.4907 -0.0555
74548W        W17465  16.358  16.845  16.071 -0.3246 -0.1820  0.2023
74549W        W17466  17.274  19.964  17.095  0.2136 -0.1732 -0.0321
74550W        W17467  15.167  17.590  15.675 -0.0980 -0.3532 -0.0407
74551W        W17468  15.299  18.498  19.134  0.0489 -0.0865  0.1708
74552W        W17469  14.905  17.228  18.742 -0.0979 -0.1866  0.2311
74553W        W17470  16.180  15.626  17.865  0.1439 -0.3122 -0.3697
74554W        W17471  14.420  14.937  17.562  0.0307  0.2176 -0.2267
74555W        W17472  13.841  16.381  16.205  0.1205  0.0129 -0.2901
74556W        W17473  16.844  15.653  16.603  0.0469 -0.2719  0.1440
74557W        W17474  14.533  16.450  16.978  0.0964  0.1971  0.1408
74558W        W17475  17.543  14.357  18.936 -0.1014 -0.0787  0.2245
74559W        W17476  15.302  17.187  16.638  0.1965 -0.0350  0.5060
74560W        W17477  16.873  15.133  17.867  0.3571 -0.0263  0.0928
74561W        W17478  16.047  14.949  14.302  0.0149 -0.1682  0.1585
74562W        W17479  17.293  13.793  16.438 -0.2756 -0.0443 -0.3015
74563W        W17480  14.059  13.615  17.381 -0.0021 -0.0607 -0.2655
74564W        W17481  16.572  18.854  16.484  0.3101 -0.4659  0.2705
74565W        W17482  13.472  15.299  17.721  0.1404 -0.2952  0.0854
74566W        W17483  17.309  16.924  18.621  0.0324  0.0359 -0.1788
74567W        W17484  16.115  14.752  17.836 -0.0866  0.1692 -0.0397
74568W        W17485  14.113  17.468  16.784 -0.0191 -0.0786  0.0419
74569W        W17486  14.326  15.381  17.297 -0.2246 -0.0972  0.1358
74570W        W17487  17.001  16.589  15.837 -0.0546  0.0518  0.0447
74571W        W17488  18.524  16.735  16.149 -0.0868 -0.0879 -0.1575
74572W        W17489  18.575  16.090  14.975  0.0521  0.0863 -0.0257
74573W        W17490  13.754  13.589  16.470 -0.1778  0.1963  0.2543
74574W        W17491  14.700  15.925  19.319 -0.1846 -0.0370 -0.1297
74575W        W17492  13.761  13.554  16.965  0.2144 -0.2016  0.0586
74576W        W17493  19.407  14.177  18.191  0.1624 -0.0434 -0.0436
74577W        W17494  16.036  16.877  18.269  0.0537 -0.2035 -0.1642
74578W        W17495  17.656  14.297  17.326  0.2460 -0.1249 -0.0532
74579W        W17496  16.866  13.916  18.391  0.0170  0.1798  0.0506
74580W        W17497  14.031  15.408  15.250 -0.1312  0.0650 -0.1033
74581W        W17498  17.231  13.955  17.555  0.3037 -0.1295  0.1025
74582W        W17499  16.513  15.359  16.845  0.0197 -0.2358  0.1789
74583W        W17500  14.252  17.112  17.999  0.1740 -0.0630  0.1840
74584W        W17501  14.582  17.698  15.819 -0.2859 -0.0161  0.3069
74585W        W17502  13.643  18.862  17.373  0.1039  0.3136  0.0113
74586W        W17503  15.492  15.327  17.516  0.1478 -0.1522 -0.2053
74587W        W17504  14.467  14.702  19.151  0.0163 -0.0644 -0.1098
74588W        W17505  20.154  12.022  20.393 -0.3233 -0.1135  0.1158
74589W        W17506  12.853  14.063  20.683 -0.2615  0.0454 -0.0192
74590W        W17507  17.970  12.680  20.320  0.1475  0.2211 -0.2351
74591W        W17508  14.246  15.943  16.381  0.2102  0.0288 -0.3909
74592W        W17509  17.695  16.353  16.704 -0.2492 -0.3056 -0.0279
74593W        W17510  18.010  13.932  17.637  0.1038  0.0946  0.1378
74594W        W17511  18.053  14.679  16.606 -0.1529  0.0782  0.1599
74595W        W17512  13.253  14.700  19.304  0.3768  0.1031 -0.1211
74596W        W17513  14.246  16.805  17.635  0.4211 -0.0563  0.0519
74597W        W17514  15.333  15.141  19.450 -0.1181 -0.2901  0.0392
74598W        W17515  13.491  13.284  18.299 -0.0293 -0.0141  0.2724
74599W        W17516  16.434  16.148  19.857  0.0830  0.1664  0.2233
74600W        W17517  13.685  14.405  17.927 -0.0019  0.0622 -0.3486
74601W        W17518  17.328  13.869  18.219 -0.1038 -0.0032 -0.1949
74602W        W17519  14.222  14.823  15.866  0.0556  0.1071  0.0075
74603W        W17520  12.976  16.464  17.223  0.1004  0.0822  0.1045
74604W        W17521  16.056  18.626  14.577  0.0373  0.0169  0.2320
74605W        W17522  17.573  17.929  18.939 -0.0304 -0.0978  0.0975
74606W        W17523  17.737  17.190  15.441  0.2847 -0.1434  0.1081
74607W        W17524  14.249  13.806  16.943 -0.2266  0.2497 -0.2261
74608W        W17525  16.849  18.599  16.075 -0.4725  0.1588  0.2289
74609W        W17526  14.811  15.580  17.127  0.0109 -0.1968  0.0195
74610W        W17527  16.276  14.995  17.095  0.0099  0.0155 -0.1815
74611W        W17528  15.572  18.952  16.632 -0.1195 -0.1653 -0.1914
74612W        W17529  15.522  16.372  17.194 -0.1488 -0.0501 -0.0728
74613W        W17530  14.440  15.396  17.833 -0.0368 -0.1760  0.1555
74614W        W17531  16.959  13.638  17.923 -0.0390  0.1491  0.1501
74615W        W17532  16.711  14.541  18.610 -0.3330 -0.0990 -0.2674
74616W        W17533  14.899  14.577  18.061 -0.0305 -0.0398  0.2278
74617W        W17534  15.663  17.597  16.958  0.2488 -0.2089 -0.0104
74618W        W17535  13.757  16.425  17.551  0.0567 -0.2492 -0.2229
74619W        W17536  12.004  16.247  18.580 -0.2746  0.0669  0.0099
74620W        W17537  16.852  18.163  17.048  0.0184  0.0000 -0.1653
74621W        W17538  17.554  14.523  16.779 -0.2654 -0.1501  0.1288
74622W        W17539  14.151  15.070  18.149 -0.0894  0.3388 -0.1343
74623W        W17540  16.357  15.684  17.149  0.0235  0.0111  0.3605
74624W        W17541  17.439  14.802  17.261  0.0409  0.0214  0.1866
74625W        W17542  15.316  17.022  18.614  0.0327  0.1386 -0.1970
74626W        W17543  18.114  15.804  18.033 -0.1245 -0.0926 -0.3265
74627W        W17544  16.167  16.060  16.281 -0.0061  0.2196 -0.1898
74628W        W17545  15.687  12.435  18.210  0.1287  0.0964  0.2112
74629W        W17546  17.229  16.620  17.632  0.0476  0.1157 -0.1607
74630W        W17547  16.961  15.225  17.000 -0.1835 -0.0036 -0.0659
74631W        W17548  19.333  18.579  16.258 -0.3500 -0.1952  0.2701
74632W        W17549  14.377  17.388  17.241  0.0694  0.2641  0.0970
74633W        W17550  16.664  16.551  14.706  0.2288 -0.3621 -0.0212
74634W        W17551  15.211  12.752  17.607 -0.0931  0.2798  0.2803
74635W        W17552  17.432  15.031  17.776 -0.0251 -0.2247  0.2067
74636W        W17553  14.394  14.624  17.999 -0.1656 -0.0977  0.2895
74637W        W17554  12.803  17.200  17.947  0.0991 -0.0596 -0.0336
74638W        W17555  12.999  13.202  18.621 -0.2169  0.1477  0.1788
74639W        W17556  17.331  16.129  17.592 -0.1089  0.0948  0.1082
74640W        W17557  12.086  15.585  17.996  0.2589  0.4159 -0.1545
74641W        W17558  16.445  14.674  19.834  0.1061 -0.2601 -0.1271
74642W        W17559  16.738  16.329  17.776 -0.1132  0.1650 -0.1248
74643W        W17560  16.526  15.177  19.900 -0.3573  0.0031  0.1348
74644W        W17561  18.273  12.135  19.155 -0.0590 -0.0681  0.4098
74645W        W17562  15.686  16.840  17.381  0.0214  0.1033  0.0140
74646W        W17563  17.810  16.264  17.533  0.2733 -0.0388 -0.1210
74647W        W17564  15.489  13.158  19.035  0.1255 -0.0694 -0.2755
74648W        W17565  16.683  15.573  17.734  0.5230 -0.1012  0.1291
74649W        W17566  16.585  14.908  16.685  0.1669 -0.0958  0.2844
74650W        W17567  16.613  17.072  18.984 -0.3144 -0.2612  0.1361
74651W        W17568  15.377  15.086  15.442  0.3279 -0.1767  0.3801
74652W        W17569  17.962  14.163  18.975 -0.0129  0.1299  0.1714
74653W        W17570  13.608  16.307  17.060  0.2074  0.0644  0.0677
74654W        W17571  14.957  14.780  16.625  0.0422  0.0733  0.1094
74655W        W17572  12.494  16.363  17.410 -0.3215  0.2655 -0.1433
74656W        W17573  15.588  13.482  17.837  0.4632 -0.0758 -0.1430
74657W        W17574  19.571  13.817  17.832 -0.0283  0.0647 -0.0544
74658W        W17575  13.609  14.000  17.666  0.0728 -0.2630 -0.3324
74659W        W17576  15.197  13.824  18.258  0.0082  0.5090  0.1141
74660W        W17577  13.264  18.515  17.483 -0.1853  0.1841  0.0075
74661W        W17578  17.708  16.591  18.925 -0.1663  0.0164 -0.2220
74662W        W17579  15.938  12.983  17.854  0.0176 -0.0541  0.3770
74663W        W17580  16.396  18.363  18.352  0.0349  0.4507 -0.0773
74664W        W17581  15.648  15.568  19.790  0.0741 -0.1349  0.1065
74665W        W17582  13.976  14.531  19.096  0.0978  0.0182  0.0288
74666W        W17583  17.586  15.918  17.998 -0.1555  0.1107  0.2799
74667W        W17584  15.615  14.777  15.127  0.2896 -0.0293  0.0552
74668W        W17585  12.899  18.778  17.731 -0.0080  0.1673  0.0219
74669W        W17586  18.807  17.372  16.606 -0.1186  0.2698 -0.2062
74670W        W17587  14.989  16.157  17.622 -0.0044  0.0812 -0.1167
74671W        W17588  13.534  16.629  15.796  0.0208  0.0102 -0.0308
74672W        W17589  15.161  16.057  19.311  0.1681  0.1810  0.0241
74673W        W17590  17.266  16.298  18.934 -0.2191 -0.1023 -0.4092
74674W        W17591  13.950  14.231  15.220 -0.1216  0.1021 -0.0533
74675W        W17592  15.781  15.175  17.907  0.1193  0.0303  0.1440
74676W        W17593  16.830  16.716  18.077 -0.1557 -0.0301 -0.1579
74677W        W17594  16.970  15.749  17.214 -0.0047  0.3281 -0.1099
74678W        W17595  16.150  12.547  17.951  0.2645 -0.0819  0.0834
74679W        W17596  16.278  18.731  17.956 -0.0592  0.0567 -0.0262
74680W        W17597  15.752  16.149  19.079 -0.1257 -0.0055 -0.0945
74681W        W17598  14.506  16.876  17.240 -0.2158  0.1049 -0.0534
74682W        W17599  13.210  17.724  19.115 -0.1903 -0.0552  0.1088
74683W        W17600  15.062  16.199  15.419 -0.0190 -0.2808 -0.1824
74684W        W17601  15.141  14.234  19.041  0.3336  0.0947 -0.1471
74685W        W17602  14.573  17.233  16.700  0.1865  0.2139 -0.1573
74686W        W17603  16.357  16.685  17.877 -0.1582  0.0278 -0.3069
74687W        W17604  12.003  17.091  18.450 -0.0826 -0.1969  0.0448
74688W        W17605  18.310  14.142  18.000 -0.0414  0.1441 -0.3472
74689W        W17606  14.937  15.097  17.108  0.0770  0.2127  0.2301
74690W        W17607  17.627  14.156  17.903 -0.1593 -0.2155  0.3956
74691W        W17608  18.128  13.598  16.820 -0.0590 -0.4023 -0.0012
74692W        W17609  17.311  14.262  19.403 -0.0905 -0.0950 -0.2152
74693W        W17610  16.251  14.916  18.314 -0.2441 -0.0810  0.2001
74694W        W17611  18.165  15.959  17.290  0.0953 -0.1093  0.1094
74695W        W17612  12.116  14.116  18.938  0.1435  0.0541 -0.0594
74696W        W17613  17.369  15.311  17.211  0.2079 -0.1820  0.0235
74697W        W17614  14.138  14.093  17.852  0.0959 -0.1107  0.0299
74698W        W17615  17.324  16.724  16.689 -0.0907  0.4471 -0.1738
74699W        W17616  15.300  17.782  16.625 -0.1717  0.3816 -0.0718
74700W        W17617  17.782  15.426  17.989  0.0130  0.4647 -0.0036
74701W        W17618  14.392  15.969  17.060  0.1552  0.0466 -0.1717
74702W        W17619  14.887  12.745  18.498 -0.2729  0.0042  0.1008
74703W        W17620  16.349  14.915  14.677  0.1459  0.1605 -0.2096
74704W        W17621  14.473  16.311  17.577 -0.0351 -0.0483  0.2045
74705W        W17622  16.275  17.766  17.659 -0.0559 -0.1266  0.2019
74706W        W17623  14.981  13.652  17.668 -0.0555  0.0110  0.2068
74707W        W17624  16.770  14.185  17.411  0.1084 -0.4499  0.0601
74708W        W17625  17.511  15.541  19.286 -0.2390 -0.1100  0.0611
74709W        W17626  21.305  14.704  17.437 -0.1014 -0.5330  0.0353
74710W        W17627  17.384  15.296  18.213 -0.0203  0.2380 -0.1132
74711W        W17628  19.279  14.751  16.912  0.0351  0.0132  0.1525
74712W        W17629  16.354  16.415  17.105 -0.1195 -0.2714 -0.2573
74713W        W17630  14.983  16.676  17.777 -0.0673  0.0586  0.4536
74714W        W17631  17.477  15.738  19.784  0.0679  0.1043  0.1786
74715W        W17632  14.533  14.324  17.635  0.1459 -0.0742 -0.0513
74716W        W17633  16.184  16.899  17.259  0.4851 -0.2442  0.4495
74717W        W17634  16.618  15.263  17.356 -0.1452  0.1873  0.1594
74718W        W17635  18.529  15.040  16.413 -0.4065 -0.2110  0.0493
74719W        W17636  11.829  13.997  19.341 -0.3286 -0.0663 -0.2652
74720W        W17637  13.983  14.671  16.761  0.2020  0.0749 -0.2652
74721W        W17638  15.856  15.647  17.112 -0.1498 -0.0692 -0.0438
74722W        W17639  15.111  18.633  17.674 -0.1303 -0.0251 -0.0509
74723W        W17640  17.642  16.058  19.365 -0.1195 -0.3650  0.1608
74724W        W17641  13.090  12.578  18.718  0.0507  0.2423  0.1703
74725W        W17642  15.517  19.441  16.808 -0.1469 -0.1213  0.0331
74726W        W17643  17.606  13.590  16.786 -0.3054 -0.3105 -0.3653
74727W        W17644  12.967  18.194  18.716 -0.1531  0.0383 -0.0008
74728W        W17645  16.404  17.958  17.178  0.0717 -0.0413 -0.2798
74729W        W17646  17.718  16.082  18.852  0.1238 -0.0487 -0.0399
74730W        W17647  13.955  16.020  17.311 -0.0468  0.0682  0.1345
74731W        W17648  16.808  18.011  18.553  0.0195 -0.5542 -0.2211
74732W        W17649  19.504  15.736  16.921  0.2120  0.0110  0.1212
74733W        W17650  17.193  17.373  15.985 -0.2692  0.0227  0.3530
74734W        W17651  13.296  14.476  18.869  0.0765  0.3067 -0.0242
74735W        W17652  16.334  16.789  18.718  0.1288  0.0983  0.1585
74736W        W17653  15.913  16.665  16.908 -0.2723  0.1632  0.1293
74737W        W17654  12.995  12.957  19.067 -0.1409  0.0941 -0.2370
74738W        W17655  16.091  15.342  17.460 -0.0243 -0.2003  0.1081
74739W        W17656  13.391  16.695  18.539 -0.3073  0.4693  0.0537
74740W        W17657  14.227  18.690  16.589 -0.3334  0.0609 -0.3397
74741W        W17658  17.189  16.132  16.801 -0.1589  0.1718  0.1307
74742W        W17659  17.452  16.453  17.196  0.1354  0.1695  0.1270
74743W        W17660  15.603  18.440  17.612  0.0750 -0.0023 -0.1952
74744W        W17661  15.749  15.203  17.018  0.0500 -0.0246 -0.0756
74745W        W17662  15.210  16.394  16.816  0.1064 -0.3573 -0.1668
74746W        W17663  13.689  15.396  18.145  0.0131 -0.0573  0.0344
74747W        W17664  16.663  16.036  18.142 -0.1958  0.0223  0.0755
74748W        W17665  15.021  18.085  17.088 -0.1591 -0.2603 -0.0219
74749W        W17666  17.055  16.698  19.130 -0.0598 -0.0725 -0.2152
74750W        W17667  17.984  13.330  16.404 -0.0332 -0.0806 -0.0543
74751W        W17668  19.331  15.578  17.383  0.2974 -0.2818 -0.0016
74752W        W17669  18.146  13.924  18.580 -0.1753  0.2627  0.1017
74753W        W17670  16.654  18.581  18.706  0.2710 -0.1071  0.3198
74754W        W17671  16.837  14.769  17.227  0.4844 -0.0510  0.1920
74755W        W17672  14.781  16.284  18.146  0.1772  0.1074 -0.0629
74756W        W17673  18.263  13.260  19.861 -0.2337  0.0996 -0.0654
74757W        W17674  14.211  17.727  18.648  0.0893  0.2748 -0.0429
74758W        W17675  16.316  19.342  17.222 -0.0022  0.1201 -0.1366
74759W        W17676  13.060  15.321  18.213  0.5015 -0.0441  0.0603
74760W        W17677  14.997  16.944  16.917  0.1373  0.1200  0.7549
74761W        W17678  19.587  13.663  19.632  0.0630 -0.3757  0.0685
74762W        W17679  16.117  15.899  16.725  0.3638 -0.1316  0.0230
74763W        W17680  16.402  15.164  17.824  0.2399 -0.2180  0.1127
74764W        W17681  16.640  18.062  15.750  0.3777  0.0567 -0.0739
74765W        W17682  14.454  19.903  18.635 -0.0281  0.2303 -0.3179
74766W        W17683  13.882  18.971  18.009  0.2636 -0.0005 -0.0261
74767W        W17684  11.153  14.561  19.530 -0.2289  0.1900 -0.0152
74768W        W17685  21.329  15.234  18.338  0.2568 -0.1983  0.1588
74769W        W17686  13.662  14.599  18.516 -0.1139  0.0970 -0.1116
74770W        W17687  17.084  12.378  18.427  0.0741  0.1079 -0.1038
74771W        W17688  14.280  16.620  18.144 -0.1947  0.2016  0.0415
74772W        W17689  18.246  14.373  17.523 -0.1015 -0.0663 -0.2253
74773W        W17690  16.152  17.383  18.028  0.0777  0.2621 -0.3116
74774W        W17691  11.435  15.588  21.121  0.1038  0.1891 -0.1927
74775W        W17692  14.673  14.046  18.064  0.1397  0.3518  0.2734
74776W        W17693  18.100  16.610  18.660 -0.0247 -0.1225  0.0919
74777W        W17694  15.243  15.747  15.455  0.1833  0.0764 -0.0178
74778W        W17695  15.382  14.873  17.125 -0.1180  0.0576  0.2963
74779W        W17696  17.193  14.298  18.486 -0.0265 -0.0862 -0.1429
74780W        W17697  12.608  16.372  19.002 -0.2734 -0.2327 -0.0632
74781W        W17698  17.889  14.953  17.039  0.2218  0.1708  0.0489
74782W        W17699  12.588  13.342  18.942 -0.2285 -0.2642 -0.3045
74783W        W17700  16.111  17.829  16.766  0.0919  0.0081 -0.3427
74784W        W17701  16.600  17.000  16.971  0.0222  0.0671 -0.1940
74785W        W17702  16.037  16.469  17.495  0.2993 -0.1476 -0.1909
74786W        W17703  18.145  18.100  16.763  0.3158 -0.5192 -0.0395
74787W        W17704  14.637  12.374  21.719  0.1817 -0.1307  0.2194
74788W        W17705  16.787  17.919  17.533  0.1571  0.1184  0.3254
74789W        W17706  15.986  12.708  17.312 -0.1610 -0.0314  0.0367
74790W        W17707  14.248  16.848  16.808 -0.2697  0.0393  0.1399
74791W        W17708  13.332  18.092  17.110 -0.1924 -0.2064  0.3074
74792W        W17709  18.524  15.909  17.661 -0.2893 -0.0294  0.1654
74793W        W17710  13.625  18.235  14.772 -0.0084 -0.0285 -0.3036
74794W        W17711  17.069  13.024  18.797  0.3049 -0.1048 -0.1300
74795W        W17712  15.058  14.217  16.893 -0.0324 -0.0789 -0.0836
74796W        W17713  15.112  17.129  18.155 -0.1521  0.1822  0.1251
74797W        W17714  18.752  17.534  15.962 -0.2288 -0.2853  0.0286
74798W        W17715  16.027  16.516  16.322  0.1210 -0.2041 -0.0449
74799W        W17716  17.238  15.581  17.667 -0.1521 -0.0120 -0.0683
74800W        W17717  13.688  14.182  16.592  0.3678 -0.0096  0.1829
74801W        W17718  17.112  17.157  17.585  0.2680 -0.2373 -0.1810
74802W        W17719  13.244  14.413  17.523  0.0370 -0.2960  0.1268
74803W        W17720  18.379  14.953  16.914  0.1276 -0.0889 -0.4039
74804W        W17721  16.888  12.824  16.081  0.1528 -0.1406 -0.1026
74805W        W17722  16.309  16.108  17.856  0.1080 -0.0520  0.3686
74806W        W17723  11.566  15.735  17.745 -0.7133  0.4389 -0.4187
74807W        W17724  14.740  15.726  16.252  0.2945 -0.0874  0.0673
74808W        W17725  14.503  15.305  16.104  0.2506  0.0405 -0.1057
74809W        W17726  15.675  13.391  19.442  0.1434 -0.2292 -0.0790
74810W        W17727  12.748  14.469  18.952 -0.1132  0.1364 -0.0411
74811W        W17728  11.776  13.462  21.986 -0.1627  0.0928 -0.0683
74812W        W17729  13.144  14.730  17.914 -0.1702 -0.0548  0.0735
74813W        W17730  16.384  15.555  16.397 -0.1234 -0.0562  0.0996
74814W        W17731  15.310  14.297  18.173 -0.2178  0.2481 -0.1250
74815W        W17732  11.818  14.532  18.949 -0.1989  0.2694 -0.1220
74816W        W17733  15.383  17.202  17.151 -0.0140 -0.3211 -0.1469
74817W        W17734  17.524  15.992  16.454 -0.0630 -0.3141 -0.2096
74818W        W17735  14.152  13.562  18.093 -0.0358 -0.0830  0.0317
74819W        W17736  18.309  18.071  19.282  0.0061 -0.1198  0.3275
74820W        W17737  15.638  16.016  16.238 -0.1857 -0.0472 -0.0226
74821W        W17738  15.605  14.499  18.851  0.1579 -0.1240  0.0672
74822W        W17739  12.135  13.466  20.547 -0.1605  0.2388  0.2743
74823W        W17740  17.420  17.840  16.316 -0.1391  0.1973 -0.0404
74824W        W17741  16.375  18.567  15.881 -0.0610  0.1340 -0.2428
74825W        W17742  17.129  16.283  18.077  0.1205 -0.1206  0.1147
74826W        W17743  19.522  15.345  16.014 -0.2236  0.2165 -0.1676
74827W        W17744  17.582  13.159  18.721  0.2747 -0.1040 -0.2600
74828W        W17745  17.058  15.740  18.189 -0.0565  0.2050 -0.1124
74829W        W17746  14.607  14.210  19.023 -0.1820  0.1312 -0.0473
74830W        W17747  17.603  16.432  17.944 -0.1442 -0.1656 -0.0147
74831W        W17748  15.413  12.895  18.589  0.3146 -0.2925 -0.0909
74832W        W17749  15.441  13.372  18.360 -0.0618 -0.1650  0.1589
74833W        W17750  18.675  18.872  16.361  0.1198 -0.1109  0.4029
74834W        W17751  12.818  16.752  18.661  0.0662 -0.0528  0.0135
74835W        W17752  15.475  12.536  17.257  0.0663  0.1349 -0.3922
74836W        W17753  17.273  18.635  16.799 -0.1290  0.2061 -0.1255
74837W        W17754  17.159  16.036  19.457 -0.0455  0.2341 -0.0467
74838W        W17755  14.920  14.760  17.567  0.3321 -0.1381  0.0850
74839W        W17756  19.606  16.255  15.016 -0.1147  0.0506 -0.1479
74840W        W17757  17.547  18.417  19.151 -0.2372 -0.0507 -0.2957
74841W        W17758  17.475  15.079  16.771 -0.1674  0.2920 -0.1411
74842W        W17759  13.766  13.548  17.786  0.0168  0.4240 -0.2615
74843W        W17760  14.074  16.256  17.885  0.1245 -0.0261 -0.0049
74844W        W17761  16.579  16.044  17.434  0.2745  0.0493  0.0725
74845W        W17762  16.053  15.385  18.339  0.0991  0.0433 -0.4952
74846W        W17763  16.170  14.854  15.137 -0.0954 -0.1900  0.4612
74847W        W17764  16.047  17.140  16.881 -0.2960 -0.3484 -0.0250
74848W        W17765  15.422  15.399  20.407  0.2266  0.0751 -0.0270
74849W        W17766  17.012  15.466  19.743 -0.0487  0.2442  0.3452
74850W        W17767  17.611  16.741  19.908  0.4401  0.2085 -0.0390
74851W        W17768  14.671  15.631  24.716 -0.0392  0.2615  0.1020
74852W        W17769  17.665  17.363  20.440 -0.1126  0.0217  0.3515
74853W        W17770  15.742  17.439  22.085 -0.1981 -0.2016  0.2870
74854W        W17771  15.099  14.307  23.327  0.0280 -0.0167  0.1002
74855W        W17772  16.916  16.885  21.760 -0.1423  0.0059  0.2093
74856W        W17773  14.498  15.225  21.747  0.0709  0.0553  0.1693
74857W        W17774  14.756  18.384  20.043  0.0393  0.0847 -0.1660
74858W        W17775  13.741  15.755  21.831 -0.0177 -0.1663 -0.3596
74859W        W17776  16.162  16.311  22.921 -0.1755  0.0813 -0.2561
74860W        W17777  16.906  14.808  21.751  0.0947 -0.0721  0.1257
74861W        W17778  18.442  14.548  21.550 -0.0758 -0.0576  0.0358
74862W        W17779  15.814  17.449  21.469  0.0442 -0.0065  0.0932
74863W        W17780  16.628  15.086  23.544 -0.0185 -0.1938  0.3439
74864W        W17781  14.415  17.225  20.670 -0.0511 -0.0530  0.0467
74865W        W17782  15.226  18.343  20.444 -0.1737 -0.0745 -0.2045
74866W        W17783  18.005  17.470  22.529  0.0068 -0.3339 -0.0286
74867W        W17784  16.123  18.881  22.495  0.0979  0.1068 -0.0042
74868W        W17785  16.015  18.051  22.655  0.0550 -0.1232  0.0308
74869W        W17786  15.201  16.724  22.120  0.0870 -0.1841  0.2759
74870W        W17787  15.759  16.600  20.761 -0.0154  0.0117  0.2596
74871W        W17788  14.541  16.756  21.006 -0.2245  0.1129  0.4236
74872W        W17789  17.885  14.049  23.445  0.3324  0.3578  0.0336
74873W        W17790  14.831  17.708  19.422  0.3353  0.0570  0.2079
74874W        W17791  17.183  15.766  19.011 -0.1431 -0.0547  0.0305
74875W        W17792  15.443  15.618  19.268  0.0170 -0.0748 -0.1203
74876W        W17793  16.225  14.677  21.006 -0.0885 -0.5094 -0.3718
74877W        W17794  13.460  15.377  26.099 -0.1601  0.1646 -0.0948
74878W        W17795  17.928  15.353  21.727 -0.1697  0.0231 -0.1070
74879W        W17796  13.799  14.405  21.786  0.4793 -0.0682 -0.1775
74880W        W17797  17.668  17.654  19.694 -0.0373  0.0271 -0.1928
74881W        W17798  14.262  15.885  25.324 -0.2169  0.3573 -0.1403
74882W        W17799  15.171  16.869  25.280  0.3566  0.1448  0.1631
74883W        W17800  17.288  16.865  22.344 -0.1517 -0.0312  0.0491
74884W        W17801  14.903  15.928  22.856 -0.2085  0.2604  0.3612
74885W        W17802  17.651  15.115  20.867  0.0360 -0.0853  0.1892
74886W        W17803  15.377  16.553  21.107  0.2866  0.1450 -0.3370
74887W        W17804  16.862  17.696  22.197  0.0107  0.1896  0.0090
74888W        W17805  16.788  16.595  19.541 -0.0138 -0.0579 -0.1319
74889W        W17806  16.939  14.592  21.284  0.1499  0.1058 -0.1191
74890W        W17807  17.466  13.549  22.950 -0.0864  0.0535  0.0673
74891W        W17808  15.226  16.585  20.571 -0.0653 -0.0033  0.0497
74892W        W17809  17.527  17.087  21.724 -0.1892  0.1322 -0.1551
74893W        W17810  18.486  16.335  19.786 -0.2042  0.2140 -0.3088
74894W        W17811  16.418  15.940  22.572  0.0512  0.6347 -0.0103
74895W        W17812  15.740  17.610  23.040 -0.1055 -0.1487  0.1212
74896W        W17813  14.461  18.399  19.588 -0.0223  0.0642  0.2114
74897W        W17814  15.414  17.003  20.923 -0.0499  0.0437 -0.1385
74898W        W17815  14.903  16.975  20.714  0.1109  0.0453  0.2442
74899W        W17816  14.958  14.079  24.391  0.0300  0.1338 -0.1786
74900W        W17817  15.161  15.943  21.225  0.1826 -0.3148  0.1458
74901W        W17818  15.802  14.753  25.357 -0.0203  0.1184  0.3742
74902W        W17819  14.085  16.338  20.190 -0.0518  0.1253 -0.2661
74903W        W17820  17.285  15.132  19.458  0.3739  0.0243  0.2063
74904W        W17821  16.150  14.580  25.074  0.3461  0.2433 -0.0874
74905W        W17822  14.938  15.068  21.072 -0.0366 -0.2278 -0.0645
74906W        W17823  14.618  14.827  21.360 -0.0011 -0.2093  0.0808
74907W        W17824  13.540  14.249  19.253 -0.0430  0.2543 -0.1249
74908W        W17825  16.869  15.131  21.381  0.0892 -0.0367  0.0533
74909W        W17826  16.502  16.220  20.704 -0.1012 -0.1029  0.0615
74910W        W17827  12.970  15.351  21.861  0.1595 -0.2895 -0.1393
74911W        W17828  16.516  17.945  20.616  0.2255 -0.1242  0.0772
74912W        W17829  18.125  17.962  22.179 -0.2436  0.3443  0.2098
74913W        W17830  18.101  17.457  21.293  0.0743  0.2684 -0.1455
74914W        W17831  15.790  15.633  20.702 -0.2287  0.2561 -0.2373
74915W        W17832  17.993  17.885  21.022  0.2137  0.0616  0.0677
74916W        W17833  18.570  14.193  24.410 -0.3407 -0.0595 -0.0551
74917W        W17834  18.040  16.142  22.198  0.1237  0.1959 -0.4332
74918W        W17835  13.985  14.129  18.747  0.2904 -0.0719 -0.4119
74919W        W17836  17.162  18.346  20.443 -0.1216 -0.2263  0.3674
74920W        W17837  13.296  18.632  19.496  0.1950 -0.1893  0.2357
74921W        W17838  12.304  17.405  22.336 -0.1849 -0.1195 -0.1916
74922W        W17839  16.990  17.355  20.272  0.2833  0.1585  0.3744
74923W        W17840  18.034  15.244  21.224  0.0315 -0.0433  0.2198
74924W        W17841  14.226  16.326  23.521  0.0403 -0.0836  0.0569
74925W        W17842  17.474  15.131  25.392 -0.0259 -0.0996 -0.2112
74926W        W17843  16.900  15.300  19.069  0.1032 -0.2763  0.1266
74927W        W17844  16.891  15.949  19.846  0.0751 -0.0039 -0.6687
74928W        W17845  16.830  14.943  19.546 -0.1315  0.0566 -0.0313
74929W        W17846  16.539  17.040  21.021 -0.3773  0.0585 -0.0191
74930W        W17847  15.894  16.987  21.775  0.0427 -0.4370  0.0956
74931W        W17848  17.130  15.035  19.984 -0.1150 -0.0971  0.1475
74932W        W17849  15.555  16.044  19.714  0.0112  0.1335 -0.1637
74933W        W17850  17.111  14.526  20.684 -0.3043 -0.1492  0.1850
74934W        W17851  14.850  14.051  22.728  0.0640 -0.0669 -0.3435
74935W        W17852  16.496  16.747  21.545  0.0451  0.2920  0.0173
74936W        W17853  14.927  15.573  19.044 -0.1969 -0.2908  0.1047
74937W        W17854  14.286  14.621  24.433  0.2801  0.2158  0.0484
74938W        W17855  14.232  15.657  24.361  0.0419  0.0935  0.0352
74939W        W17856  14.874  18.095  19.675  0.1684 -0.0671 -0.4334
74940W        W17857  16.939  13.148  22.214  0.3397 -0.0788 -0.2589
74941W        W17858  15.104  15.700  19.640  0.0271 -0.0740  0.0325
74942W        W17859  13.042  15.492  19.922 -0.0474  0.1967  0.1091
74943W        W17860  17.264  14.964  21.149  0.1198 -0.1301  0.0706
74944W        W17861  17.062  16.769  19.883 -0.0806 -0.0849 -0.2010
74945W        W17862  13.473  16.403  22.402 -0.2098 -0.1642  0.0085
74946W        W17863  14.721  16.909  22.454  0.1707  0.1942  0.1131
74947W        W17864  17.318  16.589  21.860 -0.1632  0.1181  0.0023
74948W        W17865  16.370  15.212  21.186 -0.3015 -0.1426 -0.1016
74949W        W17866  16.005  15.168  26.095 -0.0709  0.0105  0.0113
74950W        W17867  15.355  16.671  22.579  0.1702 -0.3014 -0.1089
74951W        W17868  15.799  14.825  21.352  0.0084 -0.1908 -0.1346
74952W        W17869  17.245  15.617  22.928 -0.3681  0.3004  0.2757
74953W        W17870  18.358  18.175  19.979 -0.0640  0.0480  0.1240
74954W        W17871  16.957  16.446  22.497 -0.0221 -0.1635 -0.1255
74955W        W17872  15.114  16.629  20.093  0.0223  0.1799 -0.1749
74956W        W17873  16.384  15.315  22.644  0.1095 -0.2431 -0.1335
74957W        W17874  14.965  16.719  21.314 -0.0338 -0.2178  0.0645
74958W        W17875  17.822  13.540  19.509 -0.0603  0.0729 -0.3297
74959W        W17876  17.900  14.654  22.649  0.1357 -0.0192 -0.3546
74960W        W17877  16.204  16.281  19.470 -0.2851  0.3427 -0.3525
74961W        W17878  17.456  12.732  24.795 -0.1682 -0.2646  0.1334
74962W        W17879  18.193  17.109  20.861  0.2909  0.0123 -0.0646
74963W        W17880  14.507  14.981  23.114  0.1975 -0.2151  0.3779
74964W        W17881  17.174  15.501  20.217 -0.0325  0.0431  0.1509
74965W        W17882  15.413  14.241  19.983  0.1642 -0.0739 -0.0472
74966W        W17883  17.506  16.292  22.315  0.3965  0.4794 -0.1752
74967W        W17884  17.432  14.467  21.427  0.1882 -0.0723 -0.0994
74968W        W17885  16.967  16.368  20.254  0.0615  0.2494 -0.2363
74969W        W17886  15.909  17.049  19.484 -0.0899 -0.0775  0.0674
74970W        W17887  15.471  16.024  20.666  0.1757  0.3481  0.0194
74971W        W17888  17.315  16.378  19.783  0.1067 -0.0901 -0.3750
74972W        W17889  16.825  14.940  20.859 -0.2239  0.0228 -0.1241
74973W        W17890  15.793  14.285  22.925 -0.2534 -0.3500 -0.2746
74974W        W17891  15.973  17.386  23.630 -0.1288 -0.2319  0.3003
74975W        W17892  14.425  14.583  25.620  0.0576  0.0043 -0.1271
74976W        W17893  17.157  18.547  22.558  0.1285  0.0107  0.0702
74977W        W17894  16.793  14.362  19.517  0.1009 -0.2852 -0.1326
74978W        W17895  13.716  14.884  20.619  0.1308  0.1730 -0.3727
74979W        W17896  15.288  14.712  19.143  0.0640  0.2513 -0.0070
74980W        W17897  16.264  17.774  19.779 -0.1884  0.1805  0.2871
74981W        W17898  16.733  17.489  21.239  0.2457  0.1100 -0.1661
74982W        W17899  11.301  14.039  24.237 -0.2288 -0.2030  0.5464
74983W        W17900  15.012  17.923  22.673 -0.0712  0.2959  0.0180
74984W        W17901  15.876  13.353  19.906  0.3747 -0.1615 -0.0694
74985W        W17902  17.636  15.804  22.139 -0.1533  0.2671 -0.0452
74986W        W17903  13.980  18.267  20.229  0.2504  0.1274  0.2858
74987W        W17904  15.441  17.878  21.262 -0.4488 -0.1504  0.0152
74988W        W17905  17.517  15.046  21.568  0.1923  0.3066 -0.0943
74989W        W17906  16.774  16.808  22.253 -0.1824  0.1995  0.0536
74990W        W17907  16.619  17.288  21.703 -0.0851 -0.2391  0.0494
74991W        W17908  13.300  17.191  25.101  0.3336  0.2433 -0.4076
74992W        W17909  16.498  17.202  20.428 -0.1409  0.0261 -0.0940
74993W        W17910  16.163  17.350  20.006  0.0472 -0.0441  0.1337
74994W        W17911  15.028  17.638  21.199 -0.0491 -0.1313 -0.0265
74995W        W17912  18.173  17.473  20.465 -0.2679  0.3631 -0.2285
74996W        W17913  18.320  14.418  19.418 -0.1872 -0.1395  0.5268
74997W        W17914  17.350  16.076  20.182  0.2282  0.2104  0.2977
74998W        W17915  17.594  15.457  21.227 -0.1111  0.0264 -0.0067
74999W        W17916  15.330  15.790  21.699  0.3485  0.1031 -0.1661
75000W        W17917  16.118  16.693  24.841 -0.0649 -0.0797 -0.1375
75001W        W17918  17.367  14.291  26.282  0.2234 -0.1825 -0.3051
75002W        W17919  14.421  18.520  23.646  0.0357 -0.1948 -0.1083
75003W        W17920  17.996  16.910  20.153 -0.0741 -0.0412  0.0652
75004W        W17921  18.626  14.081  21.726 -0.4113 -0.2257  0.0167
75005W        W17922  15.923  15.545  21.846 -0.3521  0.0199  0.0413
75006W        W17923  14.427  18.331  20.425 -0.0438 -0.1427 -0.3025
75007W        W17924  14.850  17.395  21.621 -0.1826  0.1573 -0.1415
75008W        W17925  14.453  14.591  20.061  0.1369 -0.2233  0.0148
75009W        W17926  15.954  17.196  23.165  0.2530 -0.1599 -0.2168
75010W        W17927  14.487  15.571  22.063  0.1308  0.4314  0.1121
75011W        W17928  16.796  16.414  21.950  0.0924 -0.1069  0.0142
75012W        W17929  16.457  15.072  18.819 -0.1898  0.2712 -0.0510
75013W        W17930  16.058  14.943  20.102  0.0361  0.0469 -0.1618
75014W        W17931  14.448  16.303  20.810 -0.0056  0.1404 -0.1083
75015W        W17932  15.603  15.766  22.141  0.2189 -0.2276  0.2171
75016W        W17933  14.376  11.895  22.418  0.0806 -0.0858 -0.1250
75017W        W17934  17.447  17.530  19.186  0.2008 -0.1343 -0.1259
75018W        W17935  18.620  16.246  21.621  0.1074 -0.3543  0.0460
75019W        W17936  15.808  18.338  19.977 -0.5648 -0.0085 -0.3450
75020W        W17937  13.833  14.814  24.698  0.0870 -0.1118  0.1251
75021W        W17938  17.590  17.757  22.095 -0.0615  0.1565  0.0133
75022W        W17939  14.677  14.789  22.531 -0.0082  0.0557  0.1898
75023W        W17940  18.780  15.728  21.520  0.0374 -0.0714 -0.2412
75024W        W17941  17.830  14.577  21.717  0.0687  0.0460 -0.1525
75025W        W17942  14.964  17.163  22.024 -0.1467 -0.0985 -0.1484
75026W        W17943  15.414  17.134  22.324 -0.0090 -0.0830  0.4622
75027W        W17944  18.399  16.346  21.176  0.0043  0.2865  0.4352
75028W        W17945  13.704  14.910  18.022 -0.1184 -0.1378 -0.1437
75029W        W17946  16.883  14.017  23.704  0.0331 -0.1038 -0.1720
75030W        W17947  14.408  15.256  22.652  0.3334  0.0749 -0.0901
75031W        W17948  14.729  14.634  20.581  0.2346 -0.0773 -0.1914
75032W        W17949  18.033  17.031  19.241  0.2314  0.0082  0.0898
75033W        W17950  13.350  14.638  21.849  0.0688  0.0799 -0.1792
75034W        W17951  17.739  17.468  20.922 -0.0857  0.3167 -0.5523
75035W        W17952  16.092  14.587  20.514 -0.1555 -0.2177  0.0673
75036W        W17953  14.488  16.548  20.048  0.0424 -0.2303  0.4040
75037W        W17954  16.887  15.948  22.712  0.0561 -0.1210  0.4103
75038W        W17955  15.498  13.188  22.645 -0.0602 -0.3698 -0.2258
75039W        W17956  13.997  14.033  21.414  0.3293 -0.0101  0.1106
75040W        W17957  16.902  17.912  20.359 -0.0019  0.0590 -0.1822
75041W        W17958  17.466  18.115  20.084  0.0806 -0.1091 -0.0953
75042W        W17959  15.229  17.500  23.083 -0.2442 -0.0588 -0.0815
75043W        W17960  14.013  13.417  22.362 -0.0533  0.1736 -0.3161
75044W        W17961  17.078  15.401  25.115 -0.1017  0.2855 -0.0557
75045W        W17962  17.886  16.595  22.513 -0.0442 -0.0038  0.0625
75046W        W17963  16.481  14.772  21.460  0.1621  0.0550  0.1335
75047W        W17964  13.748  15.098  22.096 -0.2919 -0.0054  0.3550
75048W        W17965  16.439  16.510  22.515 -0.1499  0.2067  0.0381
75049W        W17966  16.228  17.147  21.378  0.0871  0.2997 -0.1829
75050W        W17967  17.076  16.661  23.030  0.2185 -0.1865 -0.1389
75051W        W17968  16.605  17.794  21.576 -0.0001  0.2066  0.0791
75052W        W17969  15.225  13.805  25.084 -0.1229  0.1858 -0.2065
75053W        W17970  16.001  15.396  20.250 -0.3401  0.0857 -0.0490
75054W        W17971  14.966  16.302  20.893 -0.1470  0.3611 -0.1901
75055W        W17972  17.131  14.600  19.820 -0.2914 -0.1315  0.0214
75056W        W17973  15.527  18.169  22.475  0.1866 -0.1310  0.2438
75057W        W17974  16.180  16.723  20.990  0.0788 -0.1163  0.0788
75058W        W17975  15.373  15.563  27.693 -0.1974 -0.0961 -0.0610
75059W        W17976  16.048  15.571  25.397 -0.0271 -0.2483 -0.3244
75060W        W17977  16.370  14.770  24.654 -0.2473 -0.1869  0.0189
75061W        W17978  13.274  17.611  29.101 -0.0853  0.1325  0.0743
75062W        W17979  16.485  18.593  27.403  0.0638 -0.1338  0.5540
75063W        W17980  17.572  17.754  28.129 -0.3481 -0.0698 -0.1238
75064W        W17981  17.111  16.780  23.712  0.1086 -0.0842 -0.2704
75065W        W17982  16.139  14.709  26.805  0.0527 -0.0927  0.0727
75066W        W17983  17.090  16.069  29.953 -0.0719 -0.1692 -0.1862
75067W        W17984  16.922  15.723  26.039 -0.1442 -0.0829  0.3762
75068W        W17985  16.700  14.632  27.606 -0.1490 -0.1188 -0.3118
75069W        W17986  17.611  17.410  25.400  0.1921 -0.0085  0.0671
75070W        W17987  14.417  16.519  24.757 -0.4154 -0.1529 -0.1638
75071W        W17988  16.025  14.917  29.290  0.1363 -0.1726 -0.0163
75072W        W17989  14.606  16.027  25.600  0.1217 -0.0703 -0.1226
75073W        W17990  15.937  18.724  25.261 -0.1920 -0.2269 -0.1981
75074W        W17991  17.194  15.685  26.501  0.4509  0.3008 -0.1588
75075W        W17992  16.049  12.796  27.204 -0.2530 -0.1733  0.0425
75076W        W17993  16.998  17.213  26.032  0.0850 -0.3377 -0.0792
75077W        W17994  14.197  17.313  26.021 -0.1418 -0.0270 -0.1788
75078W        W17995  15.619  17.296  25.752  0.1720  0.3828  0.2111
75079W        W17996  14.967  16.437  29.385 -0.0066  0.2380  0.0640
75080W        W17997  17.647  16.359  24.664 -0.1031 -0.2827 -0.1344
75081W        W17998  17.351  16.882  24.761  0.0597 -0.1097 -0.0761
75082W        W17999  16.890  16.639  28.277 -0.3343  0.0752  0.2560
75083W        W18000  17.027  16.911  26.534  0.5059  0.0100 -0.2212
75084W        W18001  17.415  15.822  29.625  0.1523  0.2750  0.0732
75085W        W18002  15.268  16.965  24.758 -0.2483  0.2413  0.2088
75086W        W18003  16.367  20.064  25.568  0.2090  0.0276  0.1141
75087W        W18004  16.654  18.492  24.623 -0.0963 -0.1254  0.3995
75088W        W18005  17.733  17.410  27.211  0.0767  0.2685  0.1528
75089W        W18006  15.426  17.005  28.838 -0.0287 -0.0419 -0.1773
75090W        W18007  16.668  19.166  25.405  0.1341 -0.3175  0.0930
75091W        W18008  15.848  15.804  29.322 -0.0609  0.0112 -0.1562
75092W        W18009  16.908  16.624  27.401  0.0841  0.0942 -0.0499
75093W        W18010  16.794  16.120  24.379 -0.0395  0.0077  0.2364
75094W        W18011  16.287  16.243  26.045  0.1335 -0.1727  0.0722
75095W        W18012  17.771  16.557  29.912  0.2947 -0.0160 -0.1028
75096W        W18013  15.528  17.734  26.009  0.0846 -0.0693  0.0955
75097W        W18014  17.443  16.294  30.236 -0.4385  0.1492 -0.0114
75098W        W18015  15.887  15.794  24.271  0.0434  0.0054 -0.0906
75099W        W18016  16.200  13.850  23.071 -0.0195  0.1066 -0.1403
75100W        W18017  15.900  16.623  25.739  0.3597  0.1490 -0.1537
75101W        W18018  17.415  15.596  24.831 -0.2384 -0.1834  0.3194
75102W        W18019  16.108  18.097  25.213  0.2868 -0.0382 -0.1103
75103W        W18020  17.177  17.101  29.053  0.0056  0.0559  0.1203
75104W        W18021  18.214  17.473  26.884 -0.2026  0.1199  0.1321
75105W        W18022  15.474  16.399  25.472  0.1582 -0.0803  0.0895
75106W        W18023  16.773  13.958  27.950  0.0054 -0.3232 -0.0318
75107W        W18024  14.985  17.662  28.470  0.1538  0.0874  0.0206
75108W        W18025  15.401  18.125  27.807  0.0468  0.3618 -0.1402
75109W        W18026  16.525  16.675  25.895 -0.2504 -0.0858  0.1478
75110W        W18027  14.429  15.679  26.001 -0.1597  0.0246  0.1828
75111W        W18028  14.521  13.586  28.511 -0.0861 -0.1619  0.0387
75112W        W18029  16.131  15.148  25.085 -0.1665  0.0072 -0.0920
75113W        W18030  17.149  17.427  26.751 -0.0285  0.0907  0.2026
75114W        W18031  14.366  16.533  30.551  0.0943  0.0328  0.0304
75115W        W18032  17.533  16.036  25.037 -0.0259 -0.0004 -0.1804
75116W        W18033  16.378  16.427  28.967  0.1382 -0.1067  0.2057
75117W        W18034  17.590  16.805  26.344 -0.2439 -0.3798 -0.1584
75118W        W18035  17.347  16.150  22.827 -0.1239 -0.1201 -0.1406
75119W        W18036  16.991  15.369  26.999 -0.2032  0.2152  0.0585
75120W        W18037  17.475  16.909  27.527 -0.2113 -0.2685  0.0377
75121W        W18038  16.059  17.185  24.146  0.1199 -0.1244  0.0094
75122W        W18039  15.311  14.935  24.780  0.0979 -0.1381  0.1319
75123W        W18040  17.651  17.844  28.621  0.1875  0.1725  0.1445
75124W        W18041  17.817  16.220  23.150  0.0172 -0.0282  0.1092
75125W        W18042  15.871  15.303  27.602  0.2756  0.2629 -0.2073
75126W        W18043  15.284  14.318  29.321 -0.0205 -0.3692  0.1450
75127W        W18044  16.773  15.956  26.608  0.1894  0.0287 -0.0742
75128W        W18045  16.128  17.031  26.540  0.2396 -0.0038  0.0451
75129W        W18046  15.764  17.336  27.617  0.2464 -0.0162 -0.1384
75130W        W18047  14.617  12.516  30.734 -0.0060 -0.3817  0.0799
75131W        W18048  16.395  17.672  25.301 -0.1169 -0.1880  0.2213
75132W        W18049  16.214  13.383  28.371 -0.1339 -0.2983 -0.0579
75133W        W18050  15.497  13.868  28.240 -0.1220  0.2889  0.0270
75134W        W18051  16.309  16.556  27.408  0.2377  0.0923 -0.2012
75135W        W18052  13.420  14.839  27.065  0.1244  0.0108 -0.1815
75136W        W18053  17.370  14.404  24.109 -0.1108 -0.0814 -0.2253
75137W        W18054  15.602  13.981  29.142  0.1015 -0.0242  0.0787
75138W        W18055  15.533  14.813  29.371 -0.0971 -0.2826  0.0068
75139W        W18056  17.656  15.493  26.429 -0.0120  0.0287  0.0362
75140W        W18057  13.318  16.770  27.484 -0.2915 -0.1952 -0.2730
75141W        W18058  16.198  18.166  24.720 -0.1354  0.5396 -0.1160
75142W        W18059  14.207  15.933  23.912  0.0878 -0.3156  0.1914
75143W        W18060  17.133  15.662  29.242  0.0097 -0.0464 -0.0146
75144W        W18061  18.091  17.875  30.212 -0.0307  0.3511  0.0767
75145W        W18062  16.343  13.501  27.924 -0.0511 -0.1523 -0.3775
75146W        W18063  15.727  15.708  26.703 -0.3971  0.0065 -0.3701
75147W        W18064  14.301  15.808  28.100  0.0405 -0.0093  0.0245
75148W        W18065  16.383  18.778  26.321 -0.1069  0.3554  0.0451
75149W        W18066  15.824  17.882  24.890 -0.2982 -0.1628 -0.3465
75150W        W18067  19.099  17.909  25.364  0.2347 -0.2951 -0.2553
75151W        W18068  15.266  17.772  26.955  0.4329 -0.0563  0.3095
75152W        W18069  18.873  15.031  28.604  0.1224 -0.1534 -0.0431
75153W        W18070  16.671  16.498  25.268  0.1890 -0.0039  0.0395
75154W        W18071  16.889  13.245  27.095 -0.0331 -0.2066 -0.0997
75155W        W18072  15.251  15.899  26.789 -0.0282  0.0901  0.1664
75156W        W18073  17.159  16.059  26.944 -0.0311  0.0712 -0.4034
75157W        W18074  15.130  18.298  25.805 -0.4266 -0.3676  0.1545
75158W        W18075  15.959  17.468  25.151 -0.1223  0.0006 -0.0205
75159W        W18076  17.089  17.321  25.490 -0.0790 -0.0899  0.0593
75160W        W18077  17.925  15.886  26.858 -0.1815 -0.1860  0.1055
75161W        W18078  16.286  15.862  29.045 -0.0906 -0.1409 -0.0471
75162W        W18079  15.854  13.583  28.033  0.0854  0.2509 -0.4125
75163W        W18080  15.563  14.884  24.363  0.1596 -0.0824 -0.0757
75164W        W18081  13.757  17.676  29.203 -0.1639 -0.0124  0.1814
75165W        W18082  15.370  14.893  26.722 -0.0895 -0.0806 -0.3755
75166W        W18083  15.344  15.709  24.279  0.0123  0.3311 -0.0878
75167W        W18084  14.244  16.726  27.722  0.2161 -0.3382 -0.0928
75168W        W18085  17.244  14.389  23.650  0.0221  0.5110  0.0581
75169W        W18086  13.906  16.322  29.494  0.1528 -0.2565  0.0749
75170W        W18087  16.736  16.458  24.016 -0.2745  0.0601  0.1302
75171W        W18088  16.589  16.361  26.955  0.1665 -0.1902 -0.2465
75172W        W18089  15.334  15.781  26.304 -0.0360 -0.3415 -0.3102
75173W        W18090  17.337  17.722  29.399 -0.0532  0.2745 -0.0294
75174W        W18091  18.494  18.469  27.694 -0.1929 -0.2087  0.1152
75175W        W18092  16.534  14.751  28.484 -0.0599  0.0157  0.3470
75176W        W18093  15.660  14.538  24.882  0.0129  0.2589  0.2223
75177W        W18094  15.942  15.618  24.777  0.0791 -0.0644  0.0004
75178W        W18095  14.121  18.278  26.577  0.0654  0.1412  0.0176
75179W        W18096  16.502  15.511  27.403 -0.3976 -0.0748 -0.2037
75180W        W18097  16.000  13.075  28.061 -0.1833  0.2918 -0.1488
75181W        W18098  15.692  14.377  28.804  0.0202 -0.0587  0.3520
75182W        W18099  17.489  17.320  28.388 -0.0686  0.0059  0.0276
75183W        W18100  16.664  17.405  24.818  0.1886 -0.0669 -0.0514
75184W        W18101  17.640  17.831  27.572 -0.1346 -0.4158  0.0439
75185W        W18102  14.457  14.109  26.826  0.1007 -0.2099  0.1759
75186W        W18103  15.766  14.839  27.812  0.0076  0.1790 -0.0247
75187W        W18104  14.805  16.414  27.693  0.2971  0.1301  0.0407
75188W        W18105  15.112  16.185  28.938  0.0786  0.2709  0.1133
75189W        W18106  17.826  17.340  26.102 -0.1458 -0.0840 -0.0102
75190W        W18107  16.615  17.195  25.752 -0.2367 -0.1553 -0.0905
75191W        W18108  14.174  13.155  28.270 -0.0617 -0.0225  0.1685
75192W        W18109  16.458  14.807  25.379  0.3022  0.0382  0.3965
75193W        W18110  14.119  17.165  26.493 -0.0811  0.2071 -0.3633
75194W        W18111  15.523  13.978  27.226 -0.1928 -0.0003  0.0477
75195W        W18112  16.836  16.022  29.054  0.0941  0.3274 -0.2047
75196W        W18113  16.923  16.437  30.555 -0.0231 -0.1182  0.0574
75197W        W18114  17.972  16.908  26.062 -0.3204  0.1154  0.0678
75198W        W18115  16.897  15.693  24.753 -0.2034 -0.2705 -0.1774
75199W        W18116  14.822  17.548  28.003 -0.2751  0.0934 -0.3801
75200W        W18117  14.949  16.982  24.300  0.1299 -0.0941  0.0448
75201W        W18118  14.954  16.155  26.394 -0.0578  0.0340 -0.2891
75202W        W18119  17.520  15.308  25.959 -0.4881  0.0460 -0.1079
75203W        W18120  16.452  16.496  24.500 -0.1900  0.0315  0.1400
75204W        W18121  15.751  14.183  26.758  0.3943  0.0197  0.0498
75205W        W18122  16.971  12.959  30.326 -0.1015  0.2232  0.0217
75206W        W18123  13.463  16.804  29.526  0.3715  0.0210 -0.0447
75207W        W18124  17.263  16.298  26.163 -0.2946 -0.0798  0.1712
75208W        W18125  16.906  15.228  23.921  0.0625 -0.0064 -0.0561
75209W        W18126  19.022  18.262  27.554  0.0959  0.1523  0.1199
75210W        W18127  16.391  15.893  28.089 -0.2005  0.0729 -0.1608
75211W        W18128  16.643  15.471  25.461 -0.1055 -0.2309  0.2695
75212W        W18129  16.796  16.168  25.646  0.3511 -0.0472  0.3724
75213W        W18130  15.184  17.326  26.080 -0.2586  0.1569 -0.1868
75214W        W18131  15.060  19.891  25.950  0.0364 -0.0706 -0.2938
75215W        W18132  16.516  19.309  24.966 -0.0892 -0.1070 -0.0866
75216W        W18133  14.299  16.894  24.448  0.3849 -0.0870  0.0715
75217W        W18134  16.064  16.198  26.551 -0.2024 -0.0764  0.0283
75218W        W18135  17.491  14.604  25.384  0.1568  0.1306 -0.1863
75219W        W18136  16.931  17.001  25.084  0.0316 -0.0355 -0.2014
75220W        W18137  16.308  15.816  26.841  0.0723 -0.1379 -0.1175
75221W        W18138  16.711  15.053  24.998 -0.1563  0.0226 -0.2932
75222W        W18139  16.466  15.811  24.490 -0.0400 -0.0571 -0.3060
75223W        W18140  17.481  18.280  27.745  0.4635  0.0917 -0.0181
75224W        W18141  15.722  15.326  29.299  0.1978  0.0716 -0.1483
75225W        W18142  16.463  16.353  28.360 -0.0199  0.1012 -0.3968
75226W        W18143  16.904  14.025  26.432 -0.1821 -0.2734  0.0717
75227W        W18144  16.205  14.661  29.698  0.2762 -0.0308  0.2055
75228W        W18145  16.628  17.558  28.192  0.1976 -0.2521 -0.3295
75229W        W18146  16.527  16.707  27.891 -0.2843  0.0642  0.0632
75230W        W18147  14.399  17.318  27.021 -0.2994 -0.1244  0.0523
75231W        W18148  16.517  17.015  27.473  0.1240 -0.2974  0.1239
75232W        W18149  18.989  14.908  26.280 -0.1133 -0.1698  0.1254
75233W        W18150  16.333  13.151  26.992  0.2241  0.2363  0.2190
75234W        W18151  18.083  14.269  28.829 -0.0924 -0.2654 -0.0461
75235W        W18152  17.427  16.448  23.397  0.2080 -0.0391  0.0008
75236W        W18153  15.669  12.221  30.541 -0.1706 -0.3208 -0.2321
75237W        W18154  15.112  15.872  28.512 -0.2971  0.4214 -0.0298
75238W        W18155  16.979  16.756  25.560 -0.1809  0.0365  0.3363
75239W        W18156  14.030  15.935  29.251 -0.0610  0.1687  0.1837
75240W        W18157  16.163  19.307  28.825  0.1885 -0.1343 -0.0403
75241W        W18158  16.463  16.108  29.483  0.0854 -0.1707  0.0392
75242W        W18159  16.486  15.933  25.253 -0.0015  0.1444  0.0305
75243W        W18160  14.808  15.304  27.488 -0.3743  0.0738  0.0088
75244W        W18161  17.282  18.141  28.320 -0.2100  0.0116  0.1065
75245W        W18162  16.749  18.366  26.432  0.0965  0.1214  0.2962
75246W        W18163  16.901  16.603  24.803 -0.1727 -0.2982  0.0605
75247W        W18164  17.983  15.209  26.142 -0.2299 -0.1421  0.3450
75248W        W18165  16.320  16.845  28.405  0.3342 -0.0128  0.4624
75249W        W18166  16.611  16.196  24.874  0.0842 -0.2310  0.1557
75250W        W18167  15.673  16.550  24.934 -0.2356  0.2012  0.0002
75251W        W18168  15.115  17.137  27.584 -0.1873 -0.0135  0.0536
75252W        W18169  16.843  14.871  26.687  0.1001 -0.1233 -0.1972
75253W        W18170  17.059  16.185  27.445 -0.1605 -0.1629  0.2937
75254W        W18171  17.459  16.439  26.747 -0.2390  0.0318  0.2331
75255W        W18172  17.244  14.360  28.709  0.0036 -0.1789  0.2974
75256W        W18173  17.565  14.861  28.359  0.2219  0.3341 -0.0032
75257W        W18174  16.732  15.831  27.083  0.2475  0.0201  0.0789
75258W        W18175  14.012  14.596  28.622 -0.0464  0.2143  0.0983
75259W        W18176  19.144  18.996  26.684  0.1591  0.0824  0.1561
75260W        W18177  17.794  16.287  26.019  0.0039 -0.2951 -0.0582
75261W        W18178  18.259  16.488  25.248 -0.2881 -0.3512 -0.0041
75262W        W18179  15.829  16.787  23.841  0.0426 -0.1164  0.0437
75263W        W18180  14.983  14.904  27.131  0.2571 -0.2095  0.3154
75264W        W18181  16.803  15.589  28.263 -0.2701  0.0134 -0.2407
75265W        W18182  14.843  14.973  23.616 -0.0143  0.1391 -0.0398
75266W        W18183  16.437  13.734  29.877  0.1766  0.1433 -0.1673
75267W        W18184  16.213  18.464  22.798  0.0876  0.2930  0.1472
75268W        W18185  17.366  18.350  27.280 -0.1787 -0.0741 -0.2692
75269W        W18186  16.642  18.574  27.933  0.2359  0.0785 -0.3688
75270W        W18187  15.184  16.721  31.194  0.3433  0.2238 -0.0148
75271W        W18188  16.437  15.846  25.735  0.0331 -0.2007  0.2636
75272W        W18189  17.186  16.092  24.678 -0.2890 -0.1266  0.0415
75273W        W18190  17.101  17.714  28.566  0.1087  0.0098 -0.2261
75274W        W18191  16.005  16.102  28.369  0.2401  0.3038  0.0746
75275W        W18192  16.686  14.500  25.025 -0.0879  0.1991  0.1969
75276W        W18193  15.553  15.724  28.391  0.1270  0.1456 -0.1767
75277W        W18194  14.117  17.356  24.496  0.3070 -0.1199  0.1873
75278W        W18195  17.440  16.051  27.808 -0.1376  0.0272  0.0097
75279W        W18196  14.796  18.651  26.781  0.3069 -0.3577 -0.1317
75280W        W18197  14.584  16.597  28.114  0.0517 -0.2023  0.1054
75281W        W18198  16.565  17.620  24.340  0.0232 -0.1589  0.2737
75282W        W18199  18.396  12.846  28.299 -0.0243 -0.0719 -0.3015
75283W        W18200  15.600  15.618  27.133 -0.0564 -0.2666 -0.0925
75284W        W18201  15.937  16.604  26.332 -0.1894 -0.0814 -0.0361
75285W        W18202  16.295  19.611  29.802  0.3023  0.1225 -0.2355
75286W        W18203  17.414  17.013  26.960  0.2214  0.1629 -0.0241
75287W        W18204  15.841  15.183  26.836  0.1272 -0.1365 -0.1447
75288W        W18205  17.170  18.052  28.931 -0.1212  0.1436  0.1945
75289W        W18206  18.266  16.884  29.916 -0.2686  0.0550  0.5021
75290W        W18207  15.630  18.392  25.000  0.0102 -0.3278 -0.4097
75291W        W18208  11.994  15.965  27.772  0.0354  0.0281  0.2777
75292W        W18209  15.966  14.896  27.286  0.4374  0.2930 -0.0277
75293W        W18210  18.439  16.981  26.900  0.1711  0.1667 -0.0897
75294W        W18211  16.938  14.764  24.648 -0.2047  0.1755  0.0224
75295W        W18212  14.407  16.104  27.606 -0.3912 -0.2282 -0.0602
75296W        W18213  13.898  15.874  28.755  0.2521 -0.0324 -0.2789
75297W        W18214  14.555  17.443  26.548 -0.0733  0.3733  0.0512
75298W        W18215  16.630  18.057  26.066  0.0964  0.0989  0.1251
75299W        W18216  17.292  18.495  28.777  0.2213 -0.0222  0.0626
75300W        W18217  16.356  17.166  25.143 -0.0382 -0.1160 -0.0965
75301W        W18218  14.346  16.445  25.301 -0.3603  0.2490 -0.0214
75302W        W18219  17.393  16.960  23.319  0.0713 -0.0821  0.0316
75303W        W18220  14.983  17.455  24.684  0.4554 -0.0724 -0.1726
75304W        W18221  16.950  17.481  30.973 -0.0819  0.0756 -0.1035
75305W        W18222  17.133  15.553  25.588 -0.0315 -0.1849 -0.3746
75306W        W18223  18.478  14.573  25.789 -0.3560  0.2028 -0.0159
75307W        W18224  15.112  15.229  29.667 -0.0286 -0.0772  0.4410
75308W        W18225  16.306  16.300  25.572  0.2924 -0.1763  0.1503
75309W        W18226  15.632  15.311  25.249  0.1213 -0.1880 -0.1631
75310W        W18227  16.321  15.024  27.746  0.3128  0.2524 -0.1505
75311W        W18228  17.295  13.760  29.340 -0.3004  0.1926  0.0803
75312W        W18229  13.081  15.772  28.675 -0.0689 -0.2096  0.0992
75313W        W18230  17.533  17.917  24.450 -0.1502 -0.3582  0.0829
75314W        W18231  14.927  15.855  25.920 -0.1118 -0.0582  0.1334
75315W        W18232  17.298  16.935  28.076 -0.3043 -0.0411  0.0091
75316W        W18233  15.971  15.549  28.096 -0.0708 -0.2735 -0.2740
75317W        W18234  16.446  17.293  23.907 -0.1151  0.1463  0.1321
75318W        W18235  17.037  14.776  28.433 -0.0101 -0.1821  0.2468
75319W        W18236  16.377  17.535  26.080 -0.2982 -0.2724  0.0695
75320W        W18237  15.801  17.583  28.062  0.1437 -0.2093  0.0919
75321W        W18238  16.750  17.512  27.649 -0.0789 -0.1808 -0.0795
75322W        W18239  15.903  14.081  28.006  0.0853  0.0396 -0.0716
75323W        W18240  18.347  15.100  28.603  0.3131  0.0781  0.0801
75324W        W18241  14.573  16.459  29.816 -0.0546 -0.2584 -0.1310
75325W        W18242  17.287  15.209  30.515  0.0016 -0.3883  0.1818
75326W        W18243  13.883  15.006  28.313  0.0133 -0.0338  0.0628
75327W        W18244  16.170  17.001  26.016  0.0170  0.1271  0.1024
75328W        W18245  17.227  17.463  27.432 -0.1421  0.0708 -0.0092
75329W        W18246  16.215  12.380  28.637 -0.1553 -0.2985  0.2362
75330W        W18247  17.673  17.470  26.707  0.2064  0.1186 -0.2523
75331W        W18248  16.696  18.279  28.749  0.0560 -0.0659  0.3404
75332W        W18249  15.436  16.305  27.169 -0.2579  0.1065 -0.0834
75333W        W18250  16.078  15.809  27.631 -0.1852  0.2139  0.0249
75334W        W18251  17.960  14.469  28.040 -0.0706  0.1994 -0.0019
75335W        W18252  19.362  17.448  27.251  0.0404  0.0929  0.1181
75336W        W18253  16.214  14.405  23.940 -0.0444  0.1418  0.0151
75337W        W18254  18.026  16.161  24.963  0.2120  0.0026 -0.0449
75338W        W18255  15.106  18.188  25.295  0.0733  0.1622  0.3303
75339W        W18256  16.789  17.686  25.805 -0.2194 -0.0486  0.2155
75340W        W18257  15.614  16.058  27.550  0.1292  0.1877 -0.0417
75341W        W18258  15.901  18.835  29.923 -0.1026 -0.2386 -0.1054
75342W        W18259  20.018  16.509  25.040  0.0031 -0.2389  0.0818
75343W        W18260  15.400  14.010  24.660 -0.0499 -0.1368 -0.1351
75344W        W18261  14.051  14.963  28.965 -0.0194 -0.2836  0.5278
75345W        W18262  17.439  19.062  27.258  0.0364  0.1620  0.0767
75346W        W18263  17.976  17.340  30.173  0.5003  0.1193 -0.0136
75347W        W18264  17.671  16.347  30.732 -0.1128  0.1652 -0.1165
75348W        W18265  16.760  18.151  25.582 -0.2625  0.2130  0.1795
75349W        W18266  13.626  16.495  31.767  0.0145 -0.0089 -0.0622
75350W        W18267  15.529  16.254  28.623 -0.1232 -0.2156  0.0927
75351W        W18268  16.210  17.622  24.763  0.2876 -0.0936  0.0634
75352W        W18269  18.648  18.039  25.651  0.0033 -0.1485 -0.0306
75353W        W18270  17.862  17.873  26.189  0.1946  0.0142 -0.0754
75354W        W18271  17.507  15.741  28.385  0.0749  0.0718 -0.0958
75355W        W18272  15.671  14.570  27.012 -0.1591 -0.4239 -0.5806
75356W        W18273  16.992  17.230  28.574  0.1526 -0.0753 -0.2693
75357W        W18274  15.881  14.952  24.705  0.0946  0.2404  0.1990
75358W        W18275  18.261  19.007  27.686  0.2641  0.0755  0.1785
75359W        W18276  15.674  15.974  23.754  0.0913 -0.0773 -0.1362
75360W        W18277  13.938  18.000  29.575  0.2192 -0.1242  0.1694
75361W        W18278  18.210  14.468  29.353  0.0175  0.0347  0.4051
75362W        W18279  13.663  15.658  31.779 -0.2086 -0.1292  0.0121
75363W        W18280  16.354  18.145  27.299 -0.1321 -0.0749  0.1325
75364W        W18281  16.518  13.110  27.667  0.0822 -0.0956 -0.1212
75365W        W18282  16.141  14.314  26.529  0.0921 -0.0159  0.1900
75366W        W18283  16.993  15.876  25.175  0.0734 -0.3493 -0.2458
75367W        W18284  16.723  16.968  29.397 -0.0126  0.2197  0.1697
75368W        W18285  17.997  14.781  24.645  0.2741  0.1235  0.1268
75369W        W18286  17.182  16.441  25.178  0.2342 -0.0239  0.1051
75370W        W18287  14.972  16.320  31.426  0.0770  0.0356  0.1427
75371W        W18288  16.262  13.924  28.247 -0.1115 -0.0064  0.2444
75372W        W18289  13.208  13.319  25.348  0.1367  0.0482 -0.1122
75373W        W18290  17.521  17.055  25.852 -0.0531 -0.1914 -0.1882
75374W        W18291  15.980  16.633  24.267 -0.0032 -0.0435 -0.1339
75375W        W18292  17.163  18.903  23.407 -0.0943 -0.2255 -0.3759
75376W        W18293  16.399  17.829  31.959 -0.0706 -0.0883 -0.0375
75377W        W18294  16.639  17.107  28.152 -0.0498  0.0882 -0.1597
75378W        W18295  16.222  14.223  28.631 -0.2120 -0.1604 -0.1540
75379W        W18296  15.883  15.734  28.773 -0.3202  0.2593  0.1340
75380W        W18297  18.160  15.491  26.581  0.1296 -0.0338  0.0598
75381W        W18298  16.382  18.550  25.530 -0.3335  0.1929  0.1011
75382W        W18299  14.604  16.461  28.987  0.0081 -0.2188 -0.1599
75383W        W18300  13.792  16.422  28.979  0.1488 -0.2916  0.2702
75384W        W18301  18.489  15.998  26.697 -0.0956 -0.1848  0.2343
75385W        W18302  15.308  15.425  26.647 -0.3399  0.3173 -0.1171
75386W        W18303  16.054  15.097  28.342 -0.3189  0.1656  0.0474
75387W        W18304  13.913  15.331  26.539  0.1083  0.2005  0.3112
75388W        W18305  15.057  15.478  23.741 -0.2321 -0.0722 -0.3089
75389W        W18306  14.632  16.878  27.373  0.0651 -0.0036  0.1504
75390W        W18307  16.362  17.068  24.537  0.0311  0.0532  0.2943
75391W        W18308  17.257  16.567  27.799  0.2027 -0.1098  0.3771
75392W        W18309  16.029  16.218  24.569 -0.1269 -0.2232 -0.2956
75393W        W18310  17.831  18.491  26.987 -0.5423  0.1819 -0.3889
75394W        W18311  17.520  17.241  29.425  0.3440 -0.3128  0.0259
75395W        W18312  16.976  16.407  26.517  0.1885 -0.1002  0.4957
75396W        W18313  18.652  17.386  25.989  0.1045 -0.2402  0.1403
75397W        W18314  16.048  13.218  27.415  0.4360  0.2524 -0.1371
75398W        W18315  15.532  16.053  24.659  0.0456  0.1311  0.0568
75399W        W18316  17.366  15.553  27.911 -0.3446 -0.0851 -0.2302
75400W        W18317  16.818  15.329  26.408 -0.0175  0.2333 -0.1858
75401W        W18318  16.265  16.786  25.460  0.0975 -0.0155 -0.1499
75402W        W18319  17.231  14.367  25.016 -0.2250  0.2551 -0.0012
75403W        W18320  17.421  15.796  25.988  0.1110  0.3504  0.2896
75404W        W18321  18.296  16.148  25.825  0.0350  0.1063 -0.1491
75405W        W18322  16.404  17.512  27.205 -0.2032  0.1212 -0.0661
75406W        W18323  15.101  16.719  27.300 -0.1981  0.0363  0.0869
75407W        W18324  16.509  15.006  27.222  0.0093 -0.1099  0.0016
75408W        W18325  15.710  14.785  30.394 -0.2620 -0.2866 -0.1044
75409W        W18326  15.559  15.393  30.533 -0.2094 -0.0735 -0.0258
75410W        W18327  15.712  16.709  31.242 -0.1124  0.1175 -0.1800
75411W        W18328  15.091  13.592  29.005 -0.4484 -0.0425  0.0805
75412W        W18329  16.152  14.921  30.559  0.0561 -0.1419  0.2279
75413W        W18330  17.369  16.755  30.443 -0.0024  0.0878  0.0430
75414W        W18331  17.020  16.205  29.466 -0.0289  0.2658 -0.1191
75415W        W18332  16.950  18.608  28.403 -0.0367  0.0225  0.1366
75416W        W18333  17.659  13.140  28.484 -0.0922  0.3402 -0.1831
75417W        W18334  16.323  17.753  30.916 -0.1678 -0.0030  0.0637
75418W        W18335  15.231  14.868  28.372  0.1895 -0.0609  0.1646
75419W        W18336  16.389  15.057  31.666 -0.4012 -0.1573 -0.0458
75420W        W18337  14.428  15.942  28.935  0.2979  0.0811 -0.1911
75421W        W18338  13.475  15.824  29.119  0.0575  0.1391 -0.0107
75422W        W18339  15.510  16.266  29.992 -0.3005 -0.1728 -0.0175
75423W        W18340  13.389  14.032  31.622 -0.2148 -0.0069 -0.1289
75424W        W18341  15.195  14.082  28.877 -0.2326  0.0239  0.0412
75425W        W18342  14.431  14.884  30.250  0.0426 -0.4824 -0.0796
75426W        W18343  15.321  16.731  28.460  0.1851  0.0014 -0.0986
75427W        W18344  17.959  15.636  29.452 -0.2078  0.1578 -0.2083
75428W        W18345  16.480  14.985  28.943  0.1596 -0.1188  0.0153
75429W        W18346  16.699  13.046   0.199  0.3079 -0.0504  0.2448
75430W        W18347  16.515  13.751  28.636  0.4411 -0.1456 -0.0334
75431W        W18348  16.648  15.537  29.124 -0.0646  0.0019 -0.2189
75432W        W18349  14.902  16.642  30.393  0.1842 -0.0396  0.0808
75433W        W18350  15.244  14.278  28.437  0.2193 -0.0177  0.0845
75434W        W18351  14.857  15.861  31.737  0.2235 -0.2965 -0.3910
75435W        W18352  15.536  16.859   0.581 -0.1322 -0.2007  0.1303
75436W        W18353  14.019  15.476  30.845  0.4234  0.0024  0.2725
75437W        W18354  17.608  16.012  26.482  0.2725  0.1439 -0.1662
75438W        W18355  17.931  17.031  27.660 -0.3485 -0.0740  0.0796
75439W        W18356  15.314  15.083  27.754 -0.0612 -0.0182  0.0686
75440W        W18357  13.953  16.132  30.147  0.2767 -0.1044 -0.1173
75441W        W18358  15.318  16.285  30.466 -0.1770  0.0047  0.1180
75442W        W18359  15.085  18.111  28.634  0.1223 -0.0113  0.2785
75443W        W18360  16.796  18.150  30.195 -0.1620  0.2234 -0.1385
75444W        W18361  15.835  17.688  28.602 -0.1575  0.3883 -0.1584
75445W        W18362  15.294  15.336  28.615 -0.1164 -0.1114  0.3173
75446W        W18363  15.594  15.210  28.183 -0.0493  0.1858 -0.0161
75447W        W18364  14.782  16.924  29.974  0.0985  0.1533  0.0598
75448W        W18365  15.759  17.863  29.096  0.0348 -0.2689  0.2413
75449W        W18366  16.753  14.270  28.492  0.2222  0.0659 -0.0845
75450W        W18367  16.125  15.740  30.100 -0.4844 -0.0870 -0.1074
75451W        W18368  19.551  14.874  28.979 -0.1312  0.2287  0.2939
75452W        W18369  16.035  16.274  27.785  0.0642  0.0784  0.0687
75453W        W18370  16.951  16.989  31.801  0.2544  0.0776 -0.1192
75454W        W18371  14.135  17.028  27.335 -0.1652  0.2667 -0.2196
75455W        W18372  16.155  18.100  28.703 -0.1478  0.0924 -0.0390
75456W        W18373  16.125  13.974  29.093 -0.1099  0.0957  0.1162
75457W        W18374  14.551  13.810  31.228 -0.0700 -0.4148 -0.2155
75458W        W18375  16.748  16.578  29.723 -0.2006  0.3935  0.0555
75459W        W18376  16.796  17.928  30.831  0.1930  0.2408  0.0192
75460W        W18377  14.085  14.661  30.530 -0.0234  0.5089 -0.4605
75461W        W18378  16.029  16.703  30.312  0.0985 -0.0872 -0.1681
75462W        W18379  14.232  18.439  30.304  0.1547  0.1829 -0.1349
75463W        W18380  17.360  16.563  27.218 -0.1128  0.0784 -0.0101
75464W        W18381  14.625  17.665  30.555  0.1058  0.2129 -0.1210
75465W        W18382  13.063  14.074  31.080 -0.5096 -0.0961 -0.0683
75466W        W18383  14.088  16.341  28.013  0.1047 -0.0295  0.0740
75467W        W18384  15.832  16.533  28.191 -0.2532  0.1328  0.0281
75468W        W18385  15.455  14.265  27.996  0.3474 -0.2936  0.1862
75469W        W18386  15.552  18.966  31.637 -0.2278 -0.0410  0.1479
75470W        W18387  16.710  17.420  30.033 -0.0323 -0.1415  0.2109
75471W        W18388  17.888  17.345  31.011 -0.0561 -0.1422 -0.1272
75472W        W18389  16.112  23.997  17.334  0.3022  0.0627 -0.0845
75473W        W18390  14.638  18.465  14.952  0.0426  0.0335  0.4091
75474W        W18391  17.972  19.329  15.700 -0.2187  0.0326  0.2288
75475W        W18392  15.862  19.729  15.920  0.1416  0.1367 -0.0524
75476W        W18393  11.747  21.186  16.226  0.1557  0.0239 -0.1840
75477W        W18394  16.925  21.413  15.020 -0.0010 -0.3093 -0.0235
75478W        W18395  13.275  17.123  16.937  0.0725 -0.2046  0.1172
75479W        W18396  16.397  21.819  16.683 -0.1204 -0.0664 -0.4118
75480W        W18397  18.729  21.394  17.919 -0.0849 -0.1232  0.0387
75481W        W18398  16.333  21.529  15.866  0.0481 -0.0900 -0.0797
75482W        W18399  15.761  19.925  17.423  0.0636  0.2660  0.2223
75483W        W18400  13.595  21.113  16.917  0.0194 -0.0289 -0.2099
75484W        W18401  14.742  18.764  15.365  0.0058  0.2334 -0.2680
75485W        W18402  12.500  16.347  15.976 -0.1274 -0.2064  0.3141
75486W        W18403  17.348  22.534  16.250 -0.1224 -0.2797  0.3271
75487W        W18404  14.273  19.685  15.191  0.1314 -0.0039  0.1331
75488W        W18405  15.479  21.720  18.189  0.2266  0.0122  0.0782
75489W        W18406  16.026  20.399  14.955  0.3792  0.1288  0.1114
75490W        W18407  16.355  21.955  18.120 -0.3543  0.1787 -0.0080
75491W        W18408  17.225  16.890  16.130 -0.2259  0.2339 -0.0749
75492W        W18409  12.753  15.717  16.881 -0.0915  0.1467 -0.0424
75493W        W18410  15.884  21.427  15.790 -0.2176 -0.1630  0.1542
75494W        W18411  13.416  20.467  14.678 -0.0434 -0.0201  0.0317
75495W        W18412  14.749  20.257  16.571  0.0029  0.0545  0.1768
75496W        W18413  16.308  21.597  18.494  0.2596  0.0310  0.0890
75497W        W18414  18.032  21.104  16.346  0.0420 -0.0978 -0.3731
75498W        W18415  18.347  20.979  15.942 -0.0810 -0.2921  0.2383
75499W        W18416  14.188  22.683  15.694 -0.0141  0.1993 -0.4507
75500W        W18417  18.300  21.493  17.622 -0.2296  0.2360 -0.1059
75501W        W18418  17.779  19.731  17.243  0.2515 -0.0003 -0.0034
75502W        W18419  12.731  21.469  17.096 -0.0913 -0.1188 -0.1266
75503W        W18420  10.518  21.502  16.736  0.2623  0.0382 -0.1098
75504W        W18421  16.319  21.180  15.177  0.1395  0.1201 -0.1837
75505W        W18422  17.672  20.715  16.407 -0.0781  0.1462  0.1004
75506W        W18423  15.668  22.230  19.858  0.2302 -0.0130  0.1103
75507W        W18424  13.841  22.819  18.228 -0.1356  0.1207  0.0422
75508W        W18425  16.137  19.840  14.078  0.3365  0.2083 -0.0403
75509W        W18426  15.658  22.884  18.490 -0.1650 -0.2423 -0.0693
75510W        W18427  13.798  20.635  17.051 -0.0517 -0.0116  0.1872
75511W        W18428  16.082  19.681  15.367 -0.2919 -0.1744 -0.0984
75512W        W18429  14.940  21.641  18.766  0.0406  0.0827 -0.0086
75513W        W18430  15.486  22.259  14.701 -0.1749 -0.3289  0.0330
75514W        W18431  16.618  21.570  16.329 -0.4452 -0.0102  0.3773
75515W        W18432  14.308  22.501  16.696  0.0335  0.2635 -0.2915
75516W        W18433  13.686  20.216  15.939 -0.0337  0.0382 -0.3266
75517W        W18434  14.997  19.276  15.213 -0.0959 -0.3120 -0.0727
75518W        W18435  15.944  22.567  14.916 -0.0170  0.0817 -0.0898
75519W        W18436  15.977  18.987  14.989  0.3018  0.1181  0.3146
75520W        W18437  15.543  18.763  14.776 -0.0817 -0.0276  0.2739
75521W        W18438  15.363  17.048  16.131 -0.2861  0.3333  0.1372
75522W        W18439  12.837  18.275  15.045 -0.4202 -0.0847  0.3475
75523W        W18440  17.083  20.331  15.209  0.3516 -0.1323  0.1598
75524W        W18441  15.853  17.882  16.264 -0.0139 -0.0899 -0.0534
75525W        W18442  18.908  21.609  18.643  0.0759  0.0355 -0.3468
75526W        W18443  14.736  21.066  15.506  0.2293 -0.1635 -0.2126
75527W        W18444  17.429  21.799  16.739  0.1209 -0.0496  0.0026
75528W        W18445  14.819  22.550  17.387  0.0579  0.0995  0.1815
75529W        W18446  14.207  20.993  15.566  0.2135 -0.0710  0.1224
75530W        W18447  18.284  22.517  17.015  0.2456 -0.1640  0.0163
75531W        W18448  17.295  22.026  16.221  0.0879 -0.1002 -0.1119
75532W        W18449  17.265  22.016  15.720  0.4008 -0.0925  0.1117
75533W        W18450  13.707  21.831  15.252  0.0725 -0.3121 -0.2073
75534W        W18451  13.209  21.737  17.441 -0.0640  0.1586  0.2587
75535W        W18452  16.118  22.017  19.522  0.4079  0.0647  0.2114
75536W        W18453  14.433  18.423  14.038  0.1571  0.2678  0.0701
75537W        W18454  16.601  22.913  20.002  0.1102 -0.1418 -0.3518
75538W        W18455  14.742  23.813  17.425  0.2530  0.1719  0.0507
75539W        W18456  18.589  19.190  15.327 -0.3028 -0.0344 -0.2064
75540W        W18457  17.324  21.566  16.071 -0.2270  0.0360 -0.0230
75541W        W18458  17.722  20.654  18.673 -0.3305  0.0960  0.2736
75542W        W18459  17.616  20.005  15.899  0.0612  0.1939  0.4442
75543W        W18460  18.179  18.453  15.103  0.5016  0.1751  0.1319
75544W        W18461  17.880  17.827  16.365 -0.0585  0.3991  0.1932
75545W        W18462  12.986  20.729  15.925 -0.1993  0.0748 -0.0639
75546W        W18463  16.184  19.198  15.390  0.4357 -0.0297 -0.1556
75547W        W18464  19.027  19.856  16.337 -0.3992 -0.2117  0.2022
75548W        W18465  18.145  21.089  14.905 -0.1224 -0.2934 -0.1108
75549W        W18466  15.345  22.651  17.269  0.3826  0.0439  0.0493
75550W        W18467  16.032  18.369  16.222 -0.1545 -0.3900  0.0153
75551W        W18468  16.724  21.625  18.881  0.0625  0.1774 -0.4139
75552W        W18469  14.324  22.455  14.513  0.0564  0.1827  0.0446
75553W        W18470  14.726  20.891  17.551  0.0935 -0.0788 -0.0650
75554W        W18471  13.894  21.245  15.024  0.0215  0.0767  0.0661
75555W        W18472  13.303  19.836  16.069 -0.3711  0.2485 -0.4489
75556W        W18473  16.195  20.472  16.648  0.0793  0.3266 -0.0281
75557W        W18474  17.187  19.624  15.052 -0.1294  0.2586 -0.0131
75558W        W18475  15.218  19.065  16.990  0.3698  0.2388 -0.1715
75559W        W18476  16.735  15.990  14.921 -0.2366  0.0490  0.3110
75560W        W18477  15.437  21.286  15.506  0.3238  0.0835  0.3712
75561W        W18478  16.956  23.915  16.719 -0.0519  0.1670 -0.0860
75562W        W18479  17.357  19.310  16.439 -0.2678 -0.0797 -0.0774
75563W        W18480  16.901  24.099  15.771 -0.2797  0.0552  0.1931
75564W        W18481  13.256  21.845  16.367 -0.2382 -0.1480 -0.1393
75565W        W18482  14.758  20.767  16.297 -0.0113  0.0572  0.1354
75566W        W18483  14.210  20.615  16.809  0.1166  0.3007  0.2083
75567W        W18484  13.035  17.876  15.434  0.2965 -0.2452 -0.2016
75568W        W18485  18.496  20.033  16.071 -0.4688 -0.1959  0.0776
75569W        W18486  15.371  17.992  15.580  0.3602 -0.0063  0.3751
75570W        W18487  16.634  18.111  14.856  0.0010  0.0459 -0.3221
75571W        W18488  15.416  21.476  17.166 -0.2625  0.0999  0.2520
75572W        W18489  14.891  18.383  16.322  0.0397 -0.3272  0.0960
75573W        W18490  19.213  21.517  17.875 -0.2227 -0.7378 -0.0274
75574W        W18491  17.230  23.121  17.015 -0.1165  0.1133 -0.0812
75575W        W18492  18.871  20.509  15.348  0.0423 -0.1708  0.0527
75576W        W18493  16.990  22.726  15.946  0.0009  0.0971 -0.2591
75577W        W18494  14.206  19.647  16.909 -0.3009 -0.2300  0.1023
75578W        W18495  13.308  17.481  15.854  0.0150 -0.1796  0.1811
75579W        W18496  14.263  20.867  15.023  0.2469  0.4989 -0.2508
75580W        W18497  15.876  21.043  16.089  0.0456  0.1673  0.0763
75581W        W18498  14.493  18.693  14.482  0.0554 -0.0383  0.0813
75582W        W18499  19.556  19.678  15.306  0.3069  0.0862  0.1110
75583W        W18500  15.060  19.319  14.661 -0.2089 -0.2934  0.0611
75584W        W18501  14.674  22.177  17.003  0.1491 -0.2911 -0.1170
75585W        W18502  16.409  17.675  14.508  0.0567  0.1895  0.0298
75586W        W18503  18.118  20.556  16.502  0.0874  0.3074  0.0942
75587W        W18504  16.531  21.794  14.951 -0.1420 -0.0255 -0.0050
75588W        W18505  14.856  17.247  15.819 -0.0925  0.2637 -0.2115
75589W        W18506  18.207  20.495  17.832  0.3559  0.1450 -0.1444
75590W        W18507  14.719  22.380  15.800  0.0871  0.2456  0.4310
75591W        W18508  14.740  19.162  16.028 -0.0423  0.0162  0.1638
75592W        W18509  15.888  22.790  17.203 -0.1331 -0.0506 -0.3680
75593W        W18510  17.346  17.027  15.687  0.0238  0.0451  0.0522
75594W        W18511  14.158  20.926  18.781 -0.3187  0.2987  0.1571
75595W        W18512  19.453  20.482  17.582  0.2447  0.0880 -0.0193
75596W        W18513  12.356  22.713  17.172  0.1775 -0.2365  0.0098
75597W        W18514  14.778  21.853  15.959  0.0650 -0.1598 -0.1868
75598W        W18515  16.479  17.528  15.007  0.3105  0.0113  0.1226
75599W        W18516  17.503  19.789  14.380 -0.4352  0.0204 -0.1155
75600W        W18517  16.512  22.045  17.193  0.0589  0.1936 -0.2456
75601W        W18518  17.576  21.184  15.453 -0.2137  0.1868  0.1516
75602W        W18519  15.840  20.072  15.537  0.3623  0.1260 -0.4187
75603W        W18520  16.118  18.870  16.285 -0.1950 -0.1753  0.2343
75604W        W18521  13.611  21.445  17.378 -0.0067 -0.2640  0.2526
75605W        W18522  17.281  20.875  15.811 -0.3312  0.1508 -0.2635
75606W        W18523  16.436  21.326  16.800  0.1629  0.0692 -0.5731
75607W        W18524  15.725  18.254  16.639  0.0645 -0.3465 -0.2525
75608W        W18525  19.634  21.652  17.066 -0.1442  0.1704 -0.0122
75609W        W18526  14.103  21.066  16.852  0.1109 -0.1633  0.6268
75610W        W18527  17.156  21.942  18.885  0.0345 -0.1759  0.0120
75611W        W18528  14.976  21.364  15.930  0.0439 -0.2393 -0.1194
75612W        W18529  15.728  17.432  16.428  0.0852  0.0906  0.1833
75613W        W18530  15.761  19.488  15.042 -0.4513  0.2029 -0.0329
75614W        W18531  16.449  20.120  16.274  0.4684  0.0084 -0.0322
75615W        W18532  13.938  22.504  17.806  0.0114  0.2296 -0.3170
75616W        W18533  17.095  17.859  15.697 -0.0708 -0.1338 -0.2739
75617W        W18534  16.500  19.070  15.914  0.1758  0.0380  0.0528
75618W        W18535  14.145  17.807  15.993  0.1466  0.4329 -0.2663
75619W        W18536  19.189  18.199  17.374 -0.0282  0.2207  0.0420
75620W        W18537  16.684  19.185  16.830  0.0459 -0.1603  0.1341
75621W        W18538  16.743  19.288  15.425 -0.0708  0.2893  0.4955
75622W        W18539  14.070  17.966  15.491  0.0026  0.3714 -0.1030
75623W        W18540  15.015  18.225  15.234  0.3840 -0.2008  0.2964
75624W        W18541  18.660  23.582  19.924 -0.3207 -0.2589  0.1342
75625W        W18542  13.488  23.566  17.117 -0.1425 -0.2758  0.2314
75626W        W18543  16.965  22.579  20.026  0.1511 -0.1534  0.1199
75627W        W18544  16.408  20.679  15.203  0.0334 -0.3250 -0.1737
75628W        W18545  17.055  19.104  15.859 -0.2754 -0.0619 -0.1152
75629W        W18546  15.316  20.174  16.525  0.0584  0.3240 -0.0413
75630W        W18547  16.351  20.969  15.655 -0.2270 -0.0917 -0.0466
75631W        W18548  16.030  20.499  15.457 -0.1052 -0.1894 -0.3140
75632W        W18549  15.986  19.202  15.847 -0.0932  0.0204 -0.0167
75633W        W18550  13.596  21.431  16.400  0.0840 -0.1279 -0.2541
75634W        W18551  15.283  21.696  15.197 -0.1912 -0.0859 -0.1122
75635W        W18552  17.592  20.859  17.796  0.1950 -0.0471  0.1041
75636W        W18553  15.670  21.755  15.487  0.1221 -0.2163 -0.0587
75637W        W18554  17.070  16.850  17.138 -0.4025  0.2789  0.0764
75638W        W18555  13.606  22.135  15.988 -0.3247  0.0884 -0.2661
75639W        W18556  15.823  17.629  14.783  0.1394 -0.0079  0.0441
75640W        W18557  12.286  20.581  16.630  0.0560  0.2897  0.0263
75641W        W18558  17.376  18.696  14.684  0.1554  0.0160 -0.1019
75642W        W18559  15.315  20.304  14.871  0.0856  0.2248  0.0750
75643W        W18560  13.959  17.273  17.572  0.0086  0.0244 -0.0941
75644W        W18561  16.920  20.245  17.208 -0.0992 -0.0474 -0.0314
75645W        W18562  14.626  20.987  16.719 -0.0426 -0.1186 -0.1510
75646W        W18563  17.194  21.077  15.170  0.3483  0.0179 -0.1946
75647W        W18564  16.573  19.624  15.782  0.1195 -0.3821  0.0140
75648W        W18565  15.848  21.184  17.177 -0.4590 -0.1911  0.1355
75649W        W18566  14.659  21.493  16.521  0.0303 -0.2359 -0.0976
75650W        W18567  14.597  19.480  14.852 -0.0521  0.1706 -0.0774
75651W        W18568  16.740  19.360  17.843  0.2507  0.0198  0.0298
75652W        W18569  15.360  21.917  17.740  0.1529  0.0746  0.0800
75653W        W18570  14.828  21.566  15.437 -0.1660 -0.2218  0.1438
75654W        W18571  16.798  21.977  17.751 -0.2531 -0.3741 -0.1042
75655W        W18572  15.428  19.130  16.129 -0.2982 -0.3441  0.1310
75656W        W18573  14.636  20.576  15.882 -0.0655 -0.0390  0.0313
75657W        W18574  15.930  20.568  18.194  0.0085  0.1575  0.2858
75658W        W18575  17.813  20.623  16.909  0.3314  0.3164  0.3332
75659W        W18576  15.556  19.720  16.394 -0.1605  0.2870 -0.0308
75660W        W18577  13.550  17.905  15.613  0.2245 -0.2617 -0.0710
75661W        W18578  16.459  19.834  17.056 -0.3152  0.1024 -0.1013
75662W        W18579  17.306  20.085  16.529  0.1337  0.0235  0.1937
75663W        W18580  14.689  18.933  16.465 -0.1443 -0.0491 -0.2595
75664W        W18581  14.590  23.458  18.219  0.0088 -0.0751 -0.2631
75665W        W18582  15.853  17.031  16.015 -0.0760 -0.2108 -0.0684
75666W        W18583  18.980  21.559  16.200  0.0264 -0.0623 -0.0457
75667W        W18584  17.711  20.336  17.770 -0.2260 -0.0290 -0.1974
75668W        W18585  14.477  21.437  15.753 -0.1273 -0.0566 -0.2518
75669W        W18586  13.843  20.711  15.254  0.1044  0.1851 -0.1031
75670W        W18587  15.872  19.332  16.350 -0.1171 -0.3492 -0.2305
75671W        W18588  16.972  19.662  16.444  0.2848  0.1129 -0.3974
75672W        W18589  16.302  23.879  18.147  0.0056  0.0517  0.0755
75673W        W18590  16.277  19.976  14.915  0.3120  0.1908 -0.1546
75674W        W18591  14.774  21.182  18.002 -0.1403 -0.0349  0.1240
75675W        W18592  18.294  20.870  16.990 -0.0562  0.1057 -0.0163
75676W        W18593  17.078  21.942  15.193 -0.0176  0.0743 -0.0296
75677W        W18594  15.520  20.372  17.197  0.1408 -0.1947  0.1519
75678W        W18595  18.018  17.974  15.833  0.1465  0.2083  0.0933
75679W        W18596  15.712  20.044  14.601 -0.1393 -0.0837 -0.1580
75680W        W18597  16.836  17.045  15.723 -0.2145 -0.0872 -0.0287
75681W        W18598  15.645  17.606  15.407 -0.0225  0.2560 -0.0617
75682W        W18599  16.284  20.655  17.831  0.0968  0.0249  0.1659
75683W        W18600  12.884  20.921  16.406 -0.1333 -0.2160  0.1235
75684W        W18601  16.919  22.579  17.654 -0.2614 -0.2273 -0.1392
75685W        W18602  14.032  20.704  17.796 -0.2509  0.3540  0.2083
75686W        W18603  17.507  17.631  15.553 -0.0251 -0.1905  0.2060
75687W        W18604  14.711  19.972  14.833 -0.1318  0.1126 -0.0370
75688W        W18605  18.806  20.299  16.394 -0.0801 -0.0122 -0.0798
75689W        W18606  18.292  19.837  17.113  0.0693  0.1457 -0.1485
75690W        W18607  15.223  19.976  15.409 -0.2560 -0.0717  0.2832
75691W        W18608  19.702  21.054  16.868  0.0051  0.2343 -0.2183
75692W        W18609  14.660  20.545  17.881 -0.2251 -0.1356  0.2309
75693W        W18610  18.275  21.835  14.779 -0.3329 -0.0580  0.0088
75694W        W18611  16.618  21.440  15.425 -0.1828  0.1425 -0.2218
75695W        W18612  15.154  19.709  15.000 -0.1400 -0.1824 -0.2899
75696W        W18613  14.956  22.258  17.786  0.1093  0.1363  0.2404
75697W        W18614  17.037  19.659  14.495  0.1641 -0.2892  0.0054
75698W        W18615  14.284  18.467  15.345 -0.1674 -0.1513 -0.0418
75699W        W18616  18.097  19.118  16.547  0.3436 -0.0575 -0.1118
75700W        W18617  16.452  20.413  17.111  0.1104 -0.1925 -0.1084
75701W        W18618  14.219  20.711  17.330 -0.0752  0.1102  0.1947
75702W        W18619  12.961  21.512  19.064  0.3236 -0.1038  0.0828
75703W        W18620  17.457  21.195  16.364  0.0328 -0.0424 -0.1241
75704W        W18621  16.556  18.516  14.465  0.0881 -0.0534  0.2102
75705W        W18622  17.759  20.476  15.701  0.0142 -0.2125 -0.0836
75706W        W18623  19.004  21.135  16.516 -0.4893  0.0704  0.1174
75707W        W18624  16.772  21.038  15.939 -0.0576 -0.2859  0.3147
75708W        W18625  12.381  19.111  16.490  0.0556  0.1350  0.1604
75709W        W18626  15.561  21.005  17.575  0.0493 -0.0848  0.3000
75710W        W18627  14.986  18.859  14.846  0.0989  0.3779  0.0423
75711W        W18628  17.634  17.922  16.948 -0.1542 -0.2078  0.1493
75712W        W18629  17.104  21.692  17.404  0.2802 -0.0176  0.1954
75713W        W18630  16.678  19.757  15.077 -0.4421 -0.0301 -0.2104
75714W        W18631  16.963  19.927  15.494 -0.2394 -0.1625 -0.0588
75715W        W18632  13.346  21.021  16.289  0.0972  0.2573  0.1557
75716W        W18633  16.434  22.391  18.358 -0.2306 -0.1213 -0.0243
75717W        W18634  15.030  17.222  15.249  0.3250  0.0502 -0.3196
75718W        W18635  15.991  20.178  17.044 -0.0344  0.0386 -0.0370
75719W        W18636  15.974  20.711  17.073 -0.1352  0.2144 -0.1914
75720W        W18637  16.604  20.631  16.347  0.1660 -0.1167  0.1218
75721W        W18638  16.553  18.179  16.283 -0.2080 -0.1679 -0.0080
75722W        W18639  15.197  20.882  17.983  0.2054 -0.0101 -0.2650
75723W        W18640  12.852  21.803  15.322 -0.0828 -0.0030 -0.0695
75724W        W18641  18.996  19.570  15.299 -0.0889 -0.0428  0.0696
75725W        W18642  16.328  24.080  19.324  0.2029  0.0492  0.0563
75726W        W18643  14.190  22.081  17.766  0.0037  0.1267 -0.1141
75727W        W18644  16.183  20.588  16.036 -0.4194  0.1404  0.4298
75728W        W18645  17.693  18.933  16.280 -0.0222 -0.0456  0.0066
75729W        W18646  17.391  18.103  15.363 -0.1659 -0.0880  0.1723
75730W        W18647  15.778  20.253  16.239 -0.0581 -0.0908 -0.0244
75731W        W18648  18.127  19.133  17.056  0.2127  0.0188 -0.3103
75732W        W18649  16.781  22.515  18.716 -0.0526 -0.0189 -0.1455
75733W        W18650  13.671  21.911  18.591 -0.0800 -0.0302  0.0910
75734W        W18651  17.742  22.336  17.950  0.0871  0.1142  0.0623
75735W        W18652  18.029  20.335  15.226 -0.2012 -0.2555 -0.2076
75736W        W18653  14.480  21.521  16.995 -0.1979 -0.0441 -0.1858
75737W        W18654  14.056  19.258  15.819  0.0332 -0.3871  0.1408
75738W        W18655  15.909  21.618  16.846 -0.1138 -0.2208  0.0614
75739W        W18656  15.101  20.886  15.938 -0.1653  0.1736  0.0499
75740W        W18657  15.831  18.503  15.060 -0.0833 -0.0154 -0.3037
75741W        W18658  16.570  20.478  15.780  0.0387 -0.3173 -0.3889
75742W        W18659  13.899  24.620  18.093 -0.2148 -0.2114  0.0239
75743W        W18660  14.655  20.489  17.002 -0.1599 -0.2436 -0.0548
75744W        W18661  15.189  21.783  15.726 -0.3811  0.0269  0.0636
75745W        W18662  18.505  21.415  16.393  0.1678 -0.0317  0.1957
75746W        W18663  15.237  18.379  14.809  0.0549 -0.0377 -0.2081
75747W        W18664  16.856  22.068  16.444 -0.1265  0.1156 -0.3523
75748W        W18665  14.992  20.479  14.558 -0.4488  0.1328 -0.0097
75749W        W18666  15.522  20.798  16.277  0.0971 -0.1627 -0.0627
75750W        W18667  13.168  20.862  14.608  0.4227 -0.3318 -0.1538
75751W        W18668  16.703  22.494  16.823  0.1654  0.3504  0.3318
75752W        W18669  15.049  21.214  17.455 -0.2576  0.3268  0.0749
75753W        W18670  16.141  22.810  19.295 -0.2658 -0.0618 -0.0974
75754W        W18671  16.006  19.596  16.994 -0.1278 -0.0359  0.2826
75755W        W18672  20.241  22.046  17.818  0.1838 -0.2123  0.1368
75756W        W18673  17.843  20.173  16.327  0.1537  0.4055 -0.1392
75757W        W18674  18.688  20.932  15.550 -0.4379  0.0488  0.0471
75758W        W18675  15.208  23.995  17.724 -0.2604  0.0276  0.0089
75759W        W18676  15.432  19.184  14.970  0.1549 -0.0921  0.3189
75760W        W18677  14.117  20.350  15.050  0.0706  0.1082 -0.1019
75761W        W18678  16.207  17.445  17.223 -0.1460 -0.0588 -0.2134
75762W        W18679  12.187  21.699  18.212  0.3212 -0.0379  0.0422
75763W        W18680  15.775  19.407  17.421 -0.0907  0.3229 -0.0438
75764W        W18681  15.153  19.520  15.730  0.0638 -0.0082 -0.0653
75765W        W18682  15.397  21.061  16.910 -0.1731  0.4465 -0.0654
75766W        W18683  15.909  17.852  17.289  0.2003  0.1776  0.0027
75767W        W18684  14.900  18.214  13.796  0.0392  0.0613  0.0633
75768W        W18685  17.289  19.452  15.557 -0.1136  0.3295 -0.0359
75769W        W18686  16.370  20.127  15.430 -0.2327  0.0526  0.3200
75770W        W18687  14.860  21.208  18.530 -0.4176  0.3247 -0.2849
75771W        W18688  15.723  22.400  16.212  0.0421  0.1145 -0.0620
75772W        W18689  14.072  16.830  15.878  0.1407  0.2821 -0.0937
75773W        W18690  17.724  20.985  14.476 -0.1105 -0.1526 -0.2893
75774W        W18691  15.309  22.010  18.645 -0.0171  0.1628  0.1150
75775W        W18692  17.379  17.098  15.088  0.0460 -0.2802  0.0413
75776W        W18693  15.048  20.384  16.144 -0.0364  0.3572 -0.0668
75777W        W18694  15.636  20.531  15.867 -0.0838  0.0056 -0.0913
75778W        W18695  17.212  22.207  17.488  0.0297 -0.1996  0.4241
75779W        W18696  15.077  20.812  17.136  0.0600  0.2343 -0.2331
75780W        W18697  17.576  21.654  15.611 -0.0873  0.1058 -0.2860
75781W        W18698  20.377  20.622  17.899 -0.0737 -0.0555 -0.0512
75782W        W18699  15.544  18.588  16.282  0.1777 -0.0472 -0.0591
75783W        W18700  17.758  23.757  17.823 -0.1613  0.0067 -0.2358
75784W        W18701  15.533  18.100  15.087 -0.2605  0.0381 -0.0742
75785W        W18702  16.250  19.494  14.935  0.1749  0.2872  0.0628
75786W        W18703  15.616  19.640  15.462  0.0357  0.1216 -0.4440
75787W        W18704  15.258  22.238  18.171  0.2402 -0.0790  0.0522
75788W        W18705  16.921  23.415  18.603  0.0728  0.0363  0.2045
75789W        W18706  15.072  19.727  16.226 -0.1603  0.2400 -0.0144
75790W        W18707  16.502  20.590  14.662 -0.0488 -0.2289  0.2777
75791W        W18708  18.403  20.540  18.742 -0.2893  0.2440  0.0195
75792W        W18709  16.183  21.660  15.413  0.0671  0.0016 -0.1135
75793W        W18710  16.029  19.342  14.094 -0.0535  0.0051 -0.1923
75794W        W18711  16.812  21.061  16.543  0.0082 -0.0095  0.1600
75795W        W18712  15.098  18.655  16.708 -0.0520 -0.0300 -0.3030
75796W        W18713  19.418  21.716  15.986  0.1948  0.2646 -0.0915
75797W        W18714  18.566  20.809  16.463  0.1796  0.2459 -0.0882
75798W        W18715  17.057  18.383  15.630 -0.0054  0.4732 -0.1771
75799W        W18716  14.368  20.537  16.349  0.0548  0.0236  0.1078
75800W        W18717  13.258  22.560  15.486 -0.0499  0.4173 -0.1699
75801W        W18718  18.317  19.202  17.940  0.1364  0.0932 -0.0918
75802W        W18719  19.319  19.680  16.787 -0.0358  0.0639  0.2060
75803W        W18720  14.156  19.501  14.631  0.0419 -0.0329 -0.0794
75804W        W18721  16.351  17.339  15.866  0.2281  0.1683 -0.2806
75805W        W18722  14.686  23.068  17.690  0.0290 -0.1888  0.1023
75806W        W18723  13.485  22.897  20.037 -0.1156 -0.1846 -0.0766
75807W        W18724  14.600  18.691  16.059 -0.1502  0.2196  0.1202
75808W        W18725  15.537  21.980  16.514  0.0080 -0.2451 -0.1012
75809W        W18726  14.597  19.599  15.943 -0.2355  0.1436 -0.0502
75810W        W18727  14.459  22.141  16.322 -0.0968  0.1808 -0.1534
75811W        W18728  17.657  22.542  18.946  0.0460  0.1331  0.5001
75812W        W18729  17.044  20.144  16.088  0.2259 -0.0645  0.1051
75813W        W18730  17.424  21.389  17.102  0.2146 -0.0635 -0.0911
75814W        W18731  14.624  20.284  17.460  0.1771  0.1357  0.2275
75815W        W18732  18.692  18.059  15.815  0.2419  0.0455  0.2465
75816W        W18733  18.041  18.652  16.486  0.0088  0.0677 -0.1275
75817W        W18734  15.138  18.425  15.856  0.2302 -0.0336  0.3097
75818W        W18735  14.654  20.260  14.341  0.0310  0.2623 -0.3308
75819W        W18736  14.413  21.331  15.224  0.1431  0.1975 -0.1202
75820W        W18737  12.066  20.378  17.128 -0.0958  0.2081  0.0250
75821W        W18738  14.710  13.801  16.678 -0.0989  0.1168 -0.0664
75822W        W18739  15.668  21.027  18.085 -0.1407 -0.0599  0.1705
75823W        W18740  13.819  20.423  16.525  0.5197  0.2784 -0.0764
75824W        W18741  15.328  17.856  14.694 -0.0068 -0.1149 -0.0375
75825W        W18742  18.295  22.221  15.241 -0.1744  0.1268 -0.2708
75826W        W18743  14.929  17.969  16.075  0.0916 -0.1206 -0.0329
75827W        W18744  11.452  19.995  17.157 -0.4556  0.2178 -0.1514
75828W        W18745  15.813  20.944  15.566  0.1788 -0.0597 -0.0735
75829W        W18746  17.568  22.377  15.803  0.0559  0.3677  0.2237
75830W        W18747  16.126  18.633  15.431 -0.0922 -0.1786  0.1372
75831W        W18748  16.135  22.468  19.634  0.1928  0.0927 -0.0752
75832W        W18749  14.305  21.265  14.716 -0.0844 -0.1347 -0.2543
75833W        W18750  18.529  18.396  16.622  0.1657 -0.2905 -0.1497
75834W        W18751  14.629  18.351  16.798  0.2303 -0.2002 -0.3645
75835W        W18752  14.214  18.073  14.310  0.0038  0.0942 -0.1900
75836W        W18753  15.417  19.965  15.862 -0.0408 -0.1935  0.3446
75837W        W18754  15.043  22.696  15.657 -0.1766  0.1032 -0.0949
75838W        W18755  17.541  22.928  16.629  0.0135  0.0275  0.1064
75839W        W18756  16.438  22.003  16.112 -0.0805 -0.0542 -0.1716
75840W        W18757  15.743  22.301  18.606 -0.0365 -0.1122 -0.1131
75841W        W18758  12.995  18.132  17.762  0.0073 -0.0951  0.2028
75842W        W18759  16.778  19.249  14.825 -0.0934  0.3870  0.0321
75843W        W18760  16.118  22.912  18.302 -0.2753 -0.2568 -0.2443
75844W        W18761  16.248  23.124  17.333 -0.0024 -0.1191  0.1484
75845W        W18762  16.836  18.459  15.208 -0.3028  0.0209 -0.2327
75846W        W18763  16.865  20.576  16.761  0.1722 -0.4592 -0.1571
75847W        W18764  15.878  17.590  15.829 -0.0627  0.0014  0.1945
75848W        W18765  15.844  21.789  18.575 -0.3320 -0.4671  0.0608
75849W        W18766  18.197  21.046  17.836  0.4098  0.2318  0.0112
75850W        W18767  13.225  16.585  16.809  0.0744  0.0893 -0.1379
75851W        W18768  17.120  19.627  16.006 -0.3782 -0.0328 -0.0561
75852W        W18769  16.573  21.930  15.537 -0.1171 -0.1167 -0.0011
75853W        W18770  15.175  20.413  15.682  0.0745 -0.0786 -0.2710
75854W        W18771  15.437  19.124  14.383  0.0468  0.0985  0.1634
75855W        W18772  15.715  21.508  17.625  0.1155 -0.2529 -0.0435
75856W        W18773  17.662  21.158  14.972  0.0538 -0.0295  0.0720
75857W        W18774  17.150  19.096  15.170  0.0607  0.2334 -0.1664
75858W        W18775  15.912  18.714  15.894  0.1023  0.0082 -0.3355
75859W        W18776  17.459  21.595  15.089 -0.1276 -0.1797 -0.0382
75860W        W18777  15.435  23.539  17.671  0.3007  0.0638 -0.0156
75861W        W18778  17.572  21.151  18.809 -0.0598 -0.2212  0.0766
75862W        W18779  18.414  21.920  17.230 -0.0994 -0.0376  0.1126
75863W        W18780  19.221  20.811  15.772  0.1057  0.0093 -0.1234
75864W        W18781  15.410  18.102  16.285 -0.1274  0.4530  0.0884
75865W        W18782  14.569  20.483  14.832 -0.0714  0.3199  0.0507
75866W        W18783  15.095  20.249  16.975  0.0102 -0.0461 -0.1581
75867W        W18784  14.164  19.637  16.180  0.0726  0.1098  0.0066
75868W        W18785  15.066  19.016  15.663 -0.4560 -0.0066  0.3977
75869W        W18786  17.414  20.449  16.059 -0.1280  0.0414 -0.2235
75870W        W18787  17.754  22.199  18.510 -0.1411 -0.0468 -0.4808
75871W        W18788  15.022  20.264  18.062 -0.2017  0.1101 -0.2348
75872W        W18789  14.793  22.237  19.819  0.2501 -0.1198 -0.0281
75873W        W18790  15.243  21.012  19.422  0.0378 -0.2169 -0.0726
75874W        W18791  17.451  19.549  16.863  0.1135 -0.0929 -0.0811
75875W        W18792  19.657  20.090  18.849 -0.1150 -0.3027  0.0594
75876W        W18793  13.938  19.305  17.178 -0.0123  0.0216 -0.1609
75877W        W18794  16.673  24.736  19.656 -0.0019  0.1803  0.1152
75878W        W18795  16.581  22.952  19.004  0.2682  0.2353 -0.2111
75879W        W18796  16.349  22.983  20.854 -0.0516 -0.0186  0.0260
75880W        W18797  16.354  21.158  16.210 -0.1747 -0.1157 -0.1161
75881W        W18798  16.648  22.048  19.509  0.2156  0.0120  0.0675
75882W        W18799  15.561  17.911  17.629  0.0510 -0.0719 -0.0512
75883W        W18800  15.975  16.974  17.769 -0.1979  0.2124 -0.0265
75884W        W18801  16.248  21.341  20.181 -0.3225  0.2524  0.2673
75885W        W18802  14.103  21.280  17.336 -0.0738  0.2201 -0.1147
75886W        W18803  16.265  19.772  17.674 -0.2257 -0.2465 -0.0025
75887W        W18804  13.397  18.444  16.519 -0.1491 -0.3740  0.1638
75888W        W18805  16.140  22.500  20.647 -0.0704 -0.0526 -0.0771
75889W        W18806  15.206  19.448  18.270  0.0306 -0.2293 -0.0006
75890W        W18807  16.444  19.055  18.643  0.1842 -0.1461 -0.0236
75891W        W18808  16.633  20.985  17.776  0.1873 -0.0412  0.0901
75892W        W18809  13.061  21.410  16.195 -0.1988 -0.2601 -0.0776
75893W        W18810  12.657  18.429  17.499 -0.2014 -0.4594  0.0583
75894W        W18811  13.345  21.560  19.985 -0.1799 -0.1189 -0.0205
75895W        W18812  16.836  20.356  18.512  0.0256 -0.0796  0.2579
75896W        W18813  17.837  19.346  18.161 -0.1134  0.1331  0.0506
75897W        W18814  15.273  22.309  20.242 -0.2623 -0.0435 -0.1225
75898W        W18815  14.738  22.459  19.280  0.1238 -0.2979 -0.1215
75899W        W18816  12.434  20.836  18.776  0.0187 -0.0100  0.0439
75900W        W18817  13.693  23.330  19.570 -0.0035 -0.1407 -0.2130
75901W        W18818  17.058  20.652  19.841 -0.1763  0.1765 -0.3868
75902W        W18819  20.210  21.283  19.606  0.1265 -0.1711 -0.0085
75903W        W18820  18.480  22.959  19.930 -0.0459  0.4424  0.2294
75904W        W18821  16.679  21.057  19.771  0.0299  0.2660 -0.1883
75905W        W18822  16.033  22.821  17.712 -0.1766  0.1805 -0.0416
75906W        W18823  16.026  22.531  20.177  0.1357 -0.3503 -0.0659
75907W        W18824  14.684  21.384  20.795  0.0228 -0.2685 -0.0911
75908W        W18825  14.162  21.476  18.954  0.1505 -0.3111  0.1642
75909W        W18826  15.812  18.726  17.991  0.0368  0.2371 -0.1867
75910W        W18827  14.135  23.989  20.026 -0.0715  0.3290 -0.2369
75911W        W18828  15.466  20.383  18.307  0.0369 -0.0511  0.0176
75912W        W18829  15.420  20.475  18.875 -0.0232  0.2681  0.0249
75913W        W18830  12.464  22.061  20.372 -0.0177 -0.1618 -0.0170
75914W        W18831  16.679  21.223  18.435 -0.0222 -0.1536  0.2798
75915W        W18832  15.426  23.561  19.213 -0.1020  0.0767 -0.3263
75916W        W18833  17.059  21.519  16.658 -0.3629  0.3758 -0.0988
75917W        W18834  15.671  18.233  15.877 -0.0809 -0.0574 -0.1872
75918W        W18835  15.989  18.415  17.154 -0.0800 -0.1734  0.1370
75919W        W18836  14.149  19.501  18.151  0.1085 -0.2342 -0.1247
75920W        W18837  15.685  22.614  19.497 -0.1731  0.2251 -0.0717
75921W        W18838  14.046  20.224  19.293 -0.2446 -0.1852 -0.0770
75922W        W18839  18.775  21.715  19.612  0.3122 -0.0024 -0.0818
75923W        W18840  15.004  21.726  17.274  0.1745  0.0466 -0.1748
75924W        W18841  13.792  23.428  20.531  0.0987  0.0266 -0.0058
75925W        W18842  13.732  17.666  17.723  0.0098  0.1356 -0.0093
75926W        W18843  19.546  23.066  19.343  0.0606  0.2883  0.0489
75927W        W18844  18.146  21.312  19.505 -0.0580 -0.0750  0.1036
75928W        W18845  17.143  22.987  18.753 -0.0766  0.0071  0.1238
75929W        W18846  13.290  21.514  18.584 -0.2799 -0.0573  0.1672
75930W        W18847  14.603  20.360  21.109 -0.1785  0.0795 -0.1044
75931W        W18848  14.044  20.731  19.557 -0.0928  0.1979  0.1485
75932W        W18849  15.521  16.512  16.097  0.1271 -0.3654  0.2910
75933W        W18850  18.132  21.485  20.493 -0.1514  0.0489  0.0938
75934W        W18851  13.183  21.062  19.144 -0.0981 -0.2421 -0.0825
75935W        W18852  15.367  21.301  18.421  0.0827 -0.0810  0.0181
75936W        W18853  13.732  19.841  19.106  0.2145  0.1364  0.0152
75937W        W18854  16.944  22.273  20.674 -0.0198 -0.0737  0.0613
75938W        W18855  15.133  21.673  16.306 -0.2941  0.0150  0.0542
75939W        W18856  16.833  18.695  17.060  0.1261 -0.1081 -0.2325
75940W        W18857  16.820  21.693  18.312 -0.2644  0.1153  0.0056
75941W        W18858  14.627  22.908  15.785 -0.0846  0.0101  0.2061
75942W        W18859  17.888  22.381  20.522 -0.3950  0.0798  0.2214
75943W        W18860  17.160  20.562  17.636  0.0467  0.0126  0.1094
75944W        W18861  13.326  20.698  20.238  0.1302 -0.2445 -0.1942
75945W        W18862  15.525  21.567  18.844 -0.1895 -0.1016 -0.3557
75946W        W18863  14.541  22.126  18.090 -0.0253  0.0250 -0.1519
75947W        W18864  13.898  23.535  19.960  0.0992  0.2271  0.3340
75948W        W18865  12.749  20.020  19.099  0.1029 -0.1367 -0.5242
75949W        W18866  12.974  20.232  17.215  0.2633 -0.2210 -0.2337
75950W        W18867  14.723  22.120  20.320  0.5090  0.1895  0.1461
75951W        W18868  17.649  20.212  17.283 -0.3559 -0.0696 -0.2715
75952W        W18869  13.284  19.505  18.190 -0.1030  0.0637 -0.1475
75953W        W18870  17.092  18.826  18.474 -0.2448 -0.0840 -0.1658
75954W        W18871  13.030  22.451  17.997 -0.2133 -0.1856  0.2115
75955W        W18872  17.486  22.041  19.495  0.2899  0.1641  0.0508
75956W        W18873  18.117  21.794  18.639  0.2970 -0.2409 -0.1569
75957W        W18874  14.905  22.086  16.552 -0.0373  0.1980 -0.1539
75958W        W18875  12.444  20.254  17.451  0.1817 -0.3054 -0.3675
75959W        W18876  12.897  19.306  17.000 -0.0459 -0.3098 -0.0828
75960W        W18877  14.233  20.396  18.794 -0.1497 -0.2875 -0.0119
75961W        W18878  15.595  19.910  16.907 -0.1177 -0.1678  0.2754
75962W        W18879  14.475  19.346  17.248 -0.1999  0.4882 -0.5047
75963W        W18880  14.105  20.482  15.720 -0.0743 -0.1801 -0.0779
75964W        W18881  15.724  21.522  20.262  0.1222 -0.0994 -0.1031
75965W        W18882  16.737  20.780  17.319 -0.0510  0.0334 -0.2006
75966W        W18883  17.851  24.155  22.952  0.0110 -0.0562 -0.0926
75967W        W18884  18.011  23.716  21.322  0.2588  0.1193  0.0745
75968W        W18885  14.469  21.087  16.089 -0.0602 -0.1767  0.0975
75969W        W18886  15.724  23.853  20.202 -0.2755  0.0514 -0.0790
75970W        W18887  16.040  22.971  19.780  0.1188  0.0035  0.0337
75971W        W18888  14.733  17.756  17.501  0.0027  0.0167 -0.2755
75972W        W18889  16.044  24.224  20.329  0.3432  0.0875  0.4787
75973W        W18890  14.365  22.396  18.719  0.3054 -0.1359 -0.0511
75974W        W18891  12.858  21.258  22.206 -0.0667 -0.0720 -0.2577
75975W        W18892  16.996  18.415  17.546  0.3250 -0.1149 -0.0993
75976W        W18893  17.600  21.078  19.274 -0.0966  0.0143 -0.2294
75977W        W18894  15.137  22.769  17.708  0.4703  0.0449 -0.1222
75978W        W18895  15.322  19.558  17.221 -0.1816  0.2764  0.1433
75979W        W18896  17.534  22.401  19.841 -0.1992 -0.0519  0.1926
75980W        W18897  14.887  21.730  17.783  0.2749 -0.1342  0.0042
75981W        W18898  13.496  20.205  20.189 -0.1203  0.3506  0.0423
75982W        W18899  14.239  23.122  17.999  0.1725 -0.0681 -0.3649
75983W        W18900  18.061  20.127  18.116  0.1608 -0.2142 -0.1465
75984W        W18901  14.085  19.597  19.540 -0.0406  0.0535 -0.2189
75985W        W18902  13.437  19.301  18.930  0.2895  0.0363  0.0966
75986W        W18903  16.179  20.994  19.859  0.0731  0.0547 -0.0941
75987W        W18904  15.965  18.802  17.481 -0.1780  0.0864 -0.3532
75988W        W18905  17.183  19.139  16.928  0.2305 -0.3148  0.2088
75989W        W18906  16.335  21.208  18.833 -0.4366 -0.1778 -0.0944
75990W        W18907  19.272  20.347  18.635 -0.0176  0.0530  0.1574
75991W        W18908  17.861  21.746  18.194  0.0496  0.0287 -0.2011
75992W        W18909  16.156  18.003  15.838  0.2631 -0.2691 -0.1238
75993W        W18910  14.094  20.472  21.272  0.1310 -0.2518  0.0851
75994W        W18911  15.581  19.139  17.912 -0.0250  0.2653 -0.0545
75995W        W18912  15.328  23.728  18.399 -0.2018 -0.1144 -0.0525
75996W        W18913  16.800  19.218  16.304 -0.2516 -0.0045  0.2457
75997W        W18914  20.053  21.245  17.866 -0.0039  0.0801  0.1627
75998W        W18915  13.703  20.435  20.615  0.1531  0.1957  0.1269
75999W        W18916  15.932  21.582  18.161  0.0128  0.3008 -0.1735
76000W        W18917  15.699  23.697  18.103  0.0862  0.2505 -0.2506
76001W        W18918  17.366  21.452  18.222  0.0223  0.0350 -0.1992
76002W        W18919  13.715  20.208  18.757 -0.1974 -0.2647  0.0345
76003W        W18920  14.512  22.516  17.760  0.2386  0.0581  0.0400
76004W        W18921  15.001  21.758  18.280  0.1631  0.2784  0.0505
76005W        W18922  16.611  20.814  18.801 -0.2486  0.1272 -0.2038
76006W        W18923  18.781  20.186  18.660 -0.0098 -0.0685  0.1624
76007W        W18924  13.311  24.223  19.402  0.0134 -0.0809  0.1469
76008W        W18925  16.432  19.578  16.668 -0.0737 -0.0662 -0.3693
76009W        W18926  11.844  20.603  20.707  0.1383  0.1931  0.0697
76010W        W18927  13.563  22.443  19.890 -0.1325  0.1376 -0.2879
76011W        W18928  16.688  22.446  21.469  0.2156 -0.0264 -0.0922
76012W        W18929  18.501  20.411  17.346  0.3260  0.1198 -0.0815
76013W        W18930  15.132  20.763  18.494  0.0539 -0.0384  0.1640
76014W        W18931  18.619  22.303  21.055  0.2632  0.2231  0.0057
76015W        W18932  15.344  23.366  21.682  0.0659  0.1371  0.1838
76016W        W18933  14.366  19.064  18.182 -0.3544 -0.3515 -0.0804
76017W        W18934  12.487  21.465  21.713  0.3941 -0.0992  0.0698
76018W        W18935  17.607  22.886  18.020 -0.1684 -0.2666 -0.0100
76019W        W18936  18.039  22.866  20.382 -0.4609  0.1065 -0.1933
76020W        W18937  12.435  22.730  21.004  0.0934 -0.1752 -0.0546
76021W        W18938  17.061  18.853  17.974 -0.1453  0.0562  0.0527
76022W        W18939  13.699  21.416  20.436 -0.2021  0.1456  0.0393
76023W        W18940  15.404  19.031  17.431  0.1278  0.0348 -0.1250
76024W        W18941  14.570  20.064  16.144 -0.0467 -0.1670 -0.2209
76025W        W18942  17.711  17.430  16.894  0.2330 -0.0907 -0.2335
76026W        W18943  18.859  20.807  19.808 -0.0182  0.1360 -0.0335
76027W        W18944  12.216  19.607  18.269  0.1543  0.1616 -0.0416
76028W        W18945  17.094  20.100  17.723  0.1980 -0.3613 -0.2796
76029W        W18946  13.333  21.017  18.526 -0.1973 -0.2860  0.2381
76030W        W18947  16.729  22.045  18.659  0.0007  0.2793  0.0149
76031W        W18948  14.644  19.936  17.014 -0.0498 -0.1536  0.0414
76032W        W18949  15.694  22.428  17.614  0.0080  0.1542  0.0350
76033W        W18950  16.287  21.646  20.578 -0.1893 -0.0062 -0.0008
76034W        W18951  13.051  20.450  16.724  0.2313  0.3665  0.0398
76035W        W18952  17.025  19.304  18.252  0.0577 -0.0041 -0.0729
76036W        W18953  15.532  18.668  17.085  0.2506  0.3035 -0.0890
76037W        W18954  14.641  21.226  19.009  0.1645  0.0762  0.2267
76038W        W18955  15.711  23.106  20.143 -0.4371 -0.0323  0.2551
76039W        W18956  16.203  21.786  17.651  0.1959 -0.1149 -0.1517
76040W        W18957  14.487  21.857  19.971 -0.2938  0.0050 -0.0658
76041W        W18958  15.938  22.039  20.268 -0.0457  0.0606  0.2501
76042W        W18959  13.811  19.352  17.659 -0.2714  0.3649  0.0032
76043W        W18960  15.003  18.558  17.172 -0.3614  0.1811  0.3243
76044W        W18961  13.420  20.112  17.536  0.2056  0.0140 -0.1287
76045W        W18962  16.998  21.474  17.877 -0.0303 -0.1606  0.4579
76046W        W18963  13.649  20.716  21.109 -0.0604 -0.0461 -0.0364
76047W        W18964  16.827  20.080  16.767  0.1206  0.0090  0.2767
76048W        W18965  19.220  22.651  19.405 -0.0248  0.3811 -0.5069
76049W        W18966  15.708  20.526  19.866  0.1140 -0.2021 -0.3770
76050W        W18967  14.418  21.564  19.576  0.2076  0.0650 -0.0080
76051W        W18968  14.371  21.251  18.382  0.0544  0.0144 -0.1427
76052W        W18969  14.334  21.065  17.754  0.1457  0.1303  0.4553
76053W        W18970  14.996  20.575  20.950  0.0765  0.0660 -0.2441
76054W        W18971  16.222  22.095  18.707  0.1223 -0.0729  0.1176
76055W        W18972  13.882  21.267  18.412  0.0154  0.0162  0.2361
76056W        W18973  17.099  20.813  16.267  0.0026 -0.1827  0.1164
76057W        W18974  17.897  21.941  17.665 -0.1098  0.0843  0.1863
76058W        W18975  14.523  20.331  18.334  0.0055 -0.0149  0.1085
76059W        W18976  16.517  20.750  18.258  0.0917 -0.0241  0.0810
76060W        W18977  15.666  22.646  19.001 -0.4047  0.0070 -0.2549
76061W        W18978  14.436  17.963  18.281 -0.1029  0.0192  0.2142
76062W        W18979  18.427  21.495  19.998 -0.3040  0.1042 -0.1893
76063W        W18980  15.404  23.453  22.302  0.1689  0.0901  0.1742
76064W        W18981  14.300  18.568  17.942  0.1052  0.0750 -0.0072
76065W        W18982  17.685  18.960  16.789 -0.1914  0.1441  0.1121
76066W        W18983  14.561  18.703  17.433  0.1347  0.1212  0.0256
76067W        W18984  15.573  20.589  19.351 -0.0965 -0.1269 -0.2565
76068W        W18985  19.575  22.908  22.098 -0.1640 -0.3225  0.1009
76069W        W18986  15.692  20.786  18.578  0.3125 -0.5934 -0.2155
76070W        W18987  15.502  20.361  17.819  0.0040  0.1944 -0.0552
76071W        W18988  14.214  21.199  20.696  0.0092 -0.0143 -0.1277
76072W        W18989  17.874  21.718  19.467  0.2824 -0.2872 -0.3599
76073W        W18990  16.970  21.187  17.029  0.4777 -0.0409  0.0136
76074W        W18991  13.854  21.200  17.868  0.1395 -0.1941 -0.1567
76075W        W18992  15.722  18.516  19.420 -0.1201  0.0177 -0.0300
76076W        W18993  15.212  23.567  19.753  0.0658 -0.2942 -0.2076
76077W        W18994  16.281  18.829  17.116 -0.0041 -0.1582 -0.1447
76078W        W18995  16.317  17.677  16.279  0.0771  0.0179  0.0397
76079W        W18996  15.202  22.158  17.112 -0.0612 -0.0176  0.3815
76080W        W18997  14.686  19.759  19.573  0.2625 -0.0446  0.2096
76081W        W18998  13.590  20.195  21.453 -0.0251  0.0207 -0.1905
76082W        W18999  18.441  24.161  20.223  0.0274  0.1784 -0.0061
76083W        W19000  17.154  20.059  18.199 -0.1414  0.1320  0.0161
76084W        W19001  17.476  20.839  17.334 -0.2283  0.0387 -0.1091
76085W        W19002  18.840  23.136  19.614 -0.2103 -0.0449 -0.1731
76086W        W19003  17.025  22.904  20.405  0.0013 -0.0541  0.1084
76087W        W19004  13.761  18.841  16.640  0.0559  0.0645  0.0584
76088W        W19005  16.165  20.734  18.623  0.4249  0.0094  0.4115
76089W        W19006  14.827  19.404  16.967  0.1069 -0.0493 -0.2214
76090W        W19007  13.409  23.117  18.406 -0.1258 -0.0944 -0.0214
76091W        W19008  16.006  20.109  17.967  0.1878  0.1156 -0.0195
76092W        W19009  18.512  20.022  17.664  0.2104 -0.2736  0.2165
76093W        W19010  13.143  18.111  18.257  0.0867 -0.0859  0.0484
76094W        W19011  16.581  20.828  20.196 -0.0207 -0.1860 -0.0323
76095W        W19012  15.109  19.268  16.558 -0.0980 -0.2021  0.0284
76096W        W19013  17.325  20.419  16.900  0.1162  0.0978  0.0213
76097W        W19014  15.906  22.206  19.083 -0.4166  0.1749 -0.2375
76098W        W19015  19.739  19.350  19.553 -0.0584  0.0544  0.0645
76099W        W19016  16.276  19.636  16.177  0.0572 -0.0217  0.0605
76100W        W19017  17.154  21.205  19.537  0.1603 -0.0294  0.1176
76101W        W19018  15.237  21.237  20.235 -0.2624 -0.1271 -0.0754
76102W        W19019  14.564  19.496  16.511 -0.3744 -0.1266  0.2361
76103W        W19020  15.850  21.815  20.768  0.0310 -0.0005 -0.0395
76104W        W19021  14.695  20.176  19.224  0.1723  0.0158  0.1398
76105W        W19022  15.186  20.211  19.216  0.3655  0.1896  0.0559
76106W        W19023  16.708  19.871  17.936 -0.3250 -0.1713  0.1807
76107W        W19024  15.119  19.746  16.722 -0.1805 -0.1427 -0.2673
76108W        W19025  17.420  20.672  19.069 -0.1060  0.0663  0.1030
76109W        W19026  15.347  20.752  20.114  0.1451  0.0989 -0.0970
76110W        W19027  14.948  19.793  17.887  0.0880 -0.1838 -0.2805
76111W        W19028  16.239  21.385  19.409  0.0618  0.1686 -0.0024
76112W        W19029  17.165  21.666  19.763  0.1362 -0.2980  0.0595
76113W        W19030  16.613  21.513  17.539 -0.0409 -0.1952  0.2338
76114W        W19031  12.272  20.201  19.187  0.0755 -0.0978  0.0858
76115W        W19032  15.214  20.397  19.685 -0.2653 -0.3000 -0.1202
76116W        W19033  16.838  22.250  18.152 -0.1211  0.3943 -0.1357
76117W        W19034  14.710  18.815  17.895  0.1836 -0.1585  0.4525
76118W        W19035  13.983  21.349  19.673 -0.4459  0.1640 -0.1858
76119W        W19036  12.400  21.806  21.295 -0.1375  0.0216 -0.3584
76120W        W19037  13.876  20.518  20.008  0.0580 -0.1075  0.1925
76121W        W19038  14.580  24.093  19.271 -0.1206  0.0894 -0.1613
76122W        W19039  17.541  20.939  18.311  0.1435  0.0664 -0.2334
76123W        W19040  18.262  22.188  18.320 -0.3113  0.2609 -0.2519
76124W        W19041  14.863  20.842  19.952 -0.1738 -0.0916  0.2149
76125W        W19042  16.372  21.114  17.295  0.0312 -0.0731 -0.0398
76126W        W19043  15.530  23.231  18.104 -0.3446  0.0474  0.1778
76127W        W19044  14.159  21.760  17.319  0.0249  0.1108 -0.1941
76128W        W19045  17.502  23.248  19.516 -0.0467 -0.0961  0.2169
76129W        W19046  11.580  21.743  19.521  0.1679 -0.1870 -0.0412
76130W        W19047  18.004  21.898  20.832 -0.1909  0.0866  0.2709
76131W        W19048  16.987  17.672  14.870 -0.0165  0.2703 -0.3848
76132W        W19049  20.066  22.987  20.301 -0.3231 -0.0258  0.0898
76133W        W19050  19.819  17.188  17.300 -0.2044  0.1188 -0.2108
76134W        W19051  16.796  21.026  21.982  0.3570  0.3295 -0.1347
76135W        W19052  14.228  21.295  20.176  0.0551 -0.1668  0.0715
76136W        W19053  16.496  18.426  17.304 -0.2844 -0.0775 -0.0086
76137W        W19054  14.193  20.826  20.286  0.1453  0.2974 -0.0843
76138W        W19055  12.870  21.276  21.441 -0.2680 -0.2780  0.2232
76139W        W19056  18.065  22.769  21.374  0.0270  0.0764 -0.1377
76140W        W19057  13.843  19.387  16.519 -0.0127  0.0643 -0.2628
76141W        W19058  13.715  20.302  17.917 -0.0877  0.1304 -0.0756
76142W        W19059  16.479  23.161  18.508  0.0307 -0.2577  0.0049
76143W        W19060  17.040  22.509  19.163 -0.0662 -0.0892  0.0477
76144W        W19061  14.350  23.443  20.291 -0.2822 -0.2198  0.2088
76145W        W19062  15.292  21.082  18.906  0.3119  0.1549  0.0720
76146W        W19063  14.301  21.724  20.608 -0.1882 -0.1663 -0.4634
76147W        W19064  13.727  19.842  16.298 -0.4771  0.0266 -0.0467
76148W        W19065  14.341  22.208  19.162  0.1994 -0.2493  0.1391
76149W        W19066  13.049  21.685  21.170  0.0878 -0.1571 -0.0665
76150W        W19067  13.970  19.788  18.673  0.3120  0.1326 -0.0695
76151W        W19068  17.623  19.230  17.196  0.2644 -0.0746  0.0653
76152W        W19069  16.424  20.851  19.299  0.0167  0.3266 -0.0463
76153W        W19070  12.490  20.959  21.576 -0.0036 -0.0799 -0.0699
76154W        W19071  17.285  20.942  16.761  0.1744 -0.0152 -0.2454
76155W        W19072  17.355  21.867  22.428  0.0931 -0.1070 -0.1961
76156W        W19073  13.700  19.820  16.782  0.1637 -0.0490 -0.1896
76157W        W19074  14.207  22.846  18.672  0.2365  0.1862 -0.0217
76158W        W19075  16.173  17.187  16.355  0.0574  0.2360  0.0792
76159W        W19076  15.800  20.941  19.030  0.0076  0.2120 -0.2002
76160W        W19077  12.977  19.618  18.820 -0.1530 -0.5683 -0.2184
76161W        W19078  12.862  19.537  22.293  0.2088  0.1488  0.1980
76162W        W19079  15.399  21.846  20.587 -0.0354  0.1649  0.0001
76163W        W19080  15.205  16.225  16.334 -0.0967  0.2551  0.1526
76164W        W19081  19.703  21.174  19.506  0.0338 -0.1000  0.2478
76165W        W19082  15.363  19.554  17.728 -0.1830 -0.1576  0.1370
76166W        W19083  18.404  23.915  18.649 -0.2059 -0.3185 -0.2422
76167W        W19084  16.838  19.763  17.438  0.0767 -0.0357 -0.3719
76168W        W19085  19.626  22.318  21.649 -0.0113 -0.1348 -0.2167
76169W        W19086  13.433  19.089  17.930 -0.2065  0.1923  0.3344
76170W        W19087  17.244  23.119  22.090  0.1530  0.1472 -0.2472
76171W        W19088  18.188  22.990  23.131  0.1119 -0.0719 -0.0732
76172W        W19089  15.743  19.085  17.069 -0.1882 -0.2349  0.5303
76173W        W19090  13.909  20.678  19.114  0.1715  0.2605  0.1316
76174W        W19091  14.514  23.004  20.037 -0.3585 -0.1753 -0.2330
76175W        W19092  18.351  20.277  19.628 -0.1012  0.1561  0.2065
76176W        W19093  17.456  20.636  19.579  0.1287  0.0984 -0.2417
76177W        W19094  17.992  22.933  19.837  0.1552  0.0232  0.0345
76178W        W19095  14.723  21.346  19.951 -0.0850 -0.0304  0.1391
76179W        W19096  15.641  22.473  22.919 -0.1277  0.1598 -0.4204
76180W        W19097  14.906  19.896  18.439 -0.1028 -0.0334  0.4777
76181W        W19098  14.734  21.185  19.515  0.1744 -0.2344 -0.0493
76182W        W19099  14.783  23.247  20.393  0.1786 -0.2216  0.0833
76183W        W19100  15.627  20.123  19.662  0.0543 -0.2091  0.1740
76184W        W19101  18.712  21.586  19.108  0.0935 -0.3383  0.0742
76185W        W19102  17.979  20.936  18.986 -0.0657 -0.1194 -0.3110
76186W        W19103  18.771  20.940  18.885  0.0791 -0.0823  0.1319
76187W        W19104  13.496  18.076  17.906 -0.2457  0.2599  0.1572
76188W        W19105  16.879  20.525  18.024  0.1257 -0.1145 -0.0020
76189W        W19106  16.610  17.811  16.724 -0.0556  0.0301 -0.2434
76190W        W19107  15.356  21.542  19.624  0.0400  0.2835 -0.1186
76191W        W19108  14.264  19.795  17.397 -0.2323 -0.0177 -0.3477
76192W        W19109  16.019  22.469  18.111 -0.0315 -0.1145  0.0297
76193W        W19110  13.895  22.911  20.818 -0.0227 -0.2076  0.2624
76194W        W19111  14.320  19.761  19.147 -0.0298 -0.2289 -0.2285
76195W        W19112  13.753  20.923  20.583  0.1553  0.1145  0.2135
76196W        W19113  14.927  17.518  16.838 -0.2888  0.0227 -0.2891
76197W        W19114  18.098  23.287  20.628 -0.1589 -0.1030 -0.3498
76198W        W19115  16.120  19.112  18.269 -0.0867 -0.0287  0.3387
76199W        W19116  14.168  18.236  17.017  0.0805 -0.1560 -0.0946
76200W        W19117  16.155  19.169  16.715 -0.1604 -0.0151 -0.0077
76201W        W19118  18.627  22.161  19.432  0.0512 -0.1937 -0.0399
76202W        W19119  16.118  19.231  17.749 -0.1354  0.3841  0.1945
76203W        W19120  17.085  23.124  22.557 -0.0972 -0.1117  0.1191
76204W        W19121  15.380  22.278  19.053 -0.0255 -0.2366 -0.4475
76205W        W19122  15.635  21.159  19.915 -0.0658  0.1333  0.3188
76206W        W19123  13.788  18.796  16.148 -0.0925  0.1672  0.0481
76207W        W19124  15.799  19.557  17.994  0.1788 -0.2299  0.1418
76208W        W19125  17.508  22.527  19.386 -0.0052 -0.0401  0.1346
76209W        W19126  19.604  24.183  18.398  0.1147 -0.3085  0.0866
76210W        W19127  17.076  21.119  20.091  0.0364  0.0053 -0.1919
76211W        W19128  15.926  21.654  19.112 -0.0164 -0.2052 -0.3408
76212W        W19129  14.783  18.186  19.196 -0.0494 -0.2088  0.0257
76213W        W19130  17.433  21.532  19.098  0.2202 -0.0481 -0.0299
76214W        W19131  17.920  21.090  19.918  0.1540  0.0432 -0.0310
76215W        W19132  18.765  21.807  20.147 -0.0915 -0.1297 -0.1712
76216W        W19133  16.929  19.566  16.966  0.1500 -0.1093 -0.3933
76217W        W19134  17.074  21.127  17.515 -0.1966 -0.0972  0.2032
76218W        W19135  14.430  20.691  19.207  0.1351 -0.2304  0.1277
76219W        W19136  18.917  23.176  20.888 -0.0968  0.1203 -0.1711
76220W        W19137  15.300  17.015  17.647  0.0370 -0.0571  0.0115
76221W        W19138  17.219  17.252  16.964 -0.1559 -0.1517  0.0231
76222W        W19139  16.488  22.974  17.816 -0.0790  0.0867 -0.2520
76223W        W19140  13.733  19.310  18.402  0.3152  0.0608 -0.1210
76224W        W19141  14.765  17.939  16.506 -0.4669 -0.0052  0.0365
76225W        W19142  13.639  19.936  19.745  0.0139 -0.0841  0.0701
76226W        W19143  15.643  20.996  20.534  0.0668 -0.2608  0.0938
76227W        W19144  16.314  23.289  21.220 -0.0186  0.1961 -0.1070
76228W        W19145  14.344  21.573  17.879  0.2747 -0.1920 -0.1636
76229W        W19146  16.245  21.586  17.183  0.2674 -0.2216 -0.0191
76230W        W19147  16.505  22.348  19.899 -0.1656  0.0512  0.0564
76231W        W19148  17.381  24.477  23.520 -0.2321 -0.4212  0.0303
76232W        W19149  14.328  23.221  20.753  0.4732  0.0456 -0.0094
76233W        W19150  16.985  21.710  19.311 -0.3301 -0.2184 -0.4445
76234W        W19151  14.855  22.187  18.497  0.1198 -0.1549 -0.0981
76235W        W19152  15.685  21.260  19.388 -0.1447  0.0757  0.2642
76236W        W19153  17.945  21.413  19.027  0.0598 -0.0577  0.1362
76237W        W19154  16.537  18.916  17.566 -0.2614 -0.0308  0.3661
76238W        W19155  16.858  16.534  16.795 -0.0449 -0.0475  0.1392
76239W        W19156  15.152  22.438  21.217  0.1144 -0.1231  0.2317
76240W        W19157  16.135  23.239  18.959 -0.0172  0.2364 -0.2547
76241W        W19158  13.410  21.112  22.267  0.0752  0.3728 -0.2089
76242W        W19159  14.757  20.567  19.568 -0.0491  0.0680 -0.0062
76243W        W19160  16.572  18.732  19.238  0.0850  0.0042 -0.1032
76244W        W19161  19.118  20.425  25.194  0.2482 -0.1712 -0.0525
76245W        W19162  15.240  18.369  22.829  0.2372  0.4080  0.1677
76246W        W19163  17.450  22.307  23.803  0.0517  0.1906  0.0317
76247W        W19164  19.823  21.456  22.849 -0.0232  0.2401  0.6577
76248W        W19165  16.101  20.496  19.525  0.2727 -0.1211  0.1466
76249W        W19166  15.703  19.438  21.554 -0.1471 -0.1058  0.1935
76250W        W19167  14.676  21.345  22.173 -0.0954  0.4594  0.0433
76251W        W19168  15.312  18.243  19.972 -0.0054  0.1053 -0.3499
76252W        W19169  13.383  17.828  22.725  0.0565  0.2867 -0.1571
76253W        W19170  13.972  20.128  20.911  0.0009 -0.1388 -0.0361
76254W        W19171  15.875  19.282  22.416  0.1599 -0.1486  0.1548
76255W        W19172  15.415  20.594  20.766  0.2512  0.1212 -0.1262
76256W        W19173  17.337  22.580  24.203 -0.1046  0.0320  0.2598
76257W        W19174  14.792  19.942  23.177  0.1580  0.2310 -0.4240
76258W        W19175  17.379  22.181  20.425 -0.0012 -0.2934 -0.1998
76259W        W19176  14.330  21.906  21.228  0.2673 -0.3126  0.1787
76260W        W19177  14.275  19.938  21.345 -0.0129 -0.2329 -0.2764
76261W        W19178  17.011  17.859  21.336 -0.1666 -0.2134 -0.2280
76262W        W19179  16.756  23.299  23.498  0.0422  0.1954  0.0896
76263W        W19180  17.282  22.672  22.247 -0.1718  0.1521 -0.1566
76264W        W19181  13.175  20.335  22.837 -0.0041 -0.1960 -0.1048
76265W        W19182  13.368  21.683  24.400 -0.0319  0.1419  0.3074
76266W        W19183  16.542  22.355  19.133  0.1628 -0.3781 -0.0820
76267W        W19184  18.513  22.779  24.220 -0.2122  0.1075 -0.0930
76268W        W19185  16.044  21.849  23.534  0.1923  0.2386 -0.2606
76269W        W19186  14.996  22.937  23.937 -0.3032  0.0658 -0.2419
76270W        W19187  13.551  21.753  21.229 -0.0026 -0.1033  0.3159
76271W        W19188  18.095  21.439  22.187 -0.0038  0.0738 -0.0035
76272W        W19189  13.911  20.623  23.073 -0.1359  0.0939 -0.3737
76273W        W19190  16.451  20.704  20.720 -0.0477 -0.2591 -0.3215
76274W        W19191  14.906  20.312  18.733  0.2537  0.2594 -0.1942
76275W        W19192  15.831  21.895  22.932  0.1353  0.2193  0.0583
76276W        W19193  13.632  20.189  26.195 -0.1992  0.1148  0.0796
76277W        W19194  14.647  21.221  23.554 -0.1238 -0.1245  0.1939
76278W        W19195  18.280  19.277  22.604  0.1546  0.0336  0.0055
76279W        W19196  14.775  22.557  20.541 -0.2037  0.3119 -0.2853
76280W        W19197  17.594  21.360  19.691 -0.1580  0.0199 -0.4650
76281W        W19198  15.639  21.592  21.248 -0.0510  0.0169  0.0040
76282W        W19199  15.470  19.138  21.215 -0.3500 -0.1352 -0.2226
76283W        W19200  18.308  20.898  23.147 -0.0073 -0.1438  0.0396
76284W        W19201  15.376  20.125  20.157 -0.3060 -0.1371 -0.0494
76285W        W19202  14.588  21.174  26.324 -0.1484  0.1248  0.0803
76286W        W19203  16.760  21.775  20.674 -0.1541 -0.3510  0.3017
76287W        W19204  16.938  21.651  24.441 -0.0257 -0.2464 -0.0157
76288W        W19205  18.341  22.513  22.981 -0.0835 -0.0758  0.1280
76289W        W19206  13.432  20.269  25.157 -0.2604 -0.3646  0.0696
76290W        W19207  13.954  19.410  23.282  0.3131 -0.1832  0.1597
76291W        W19208  16.901  22.334  21.972 -0.1153 -0.1840 -0.2251
76292W        W19209  15.951  20.698  25.075  0.3493  0.0038  0.0688
76293W        W19210  17.941  19.428  20.363 -0.0822 -0.0135  0.1296
76294W        W19211  14.862  21.710  22.848  0.0629  0.1476  0.3229
76295W        W19212  18.331  20.932  23.744  0.0173 -0.1236  0.2926
76296W        W19213  16.924  22.064  20.104  0.0742  0.4811  0.1159
76297W        W19214  16.968  18.730  21.507  0.3222  0.2316 -0.1869
76298W        W19215  14.689  21.083  20.365 -0.2117 -0.3273  0.0234
76299W        W19216  14.866  20.619  21.544  0.1522  0.0393  0.0199
76300W        W19217  17.520  21.263  23.478 -0.2588 -0.0511 -0.1725
76301W        W19218  19.200  20.800  20.750 -0.0272  0.1637 -0.1524
76302W        W19219  13.891  21.484  24.293 -0.0058  0.2021 -0.1870
76303W        W19220  16.578  18.728  22.545 -0.0229  0.0949 -0.0033
76304W        W19221  15.836  19.762  23.923 -0.1294  0.1950 -0.1213
76305W        W19222  16.230  22.767  22.311  0.1346  0.2196  0.2605
76306W        W19223  13.695  20.817  21.629  0.1619  0.1616 -0.1725
76307W        W19224  16.715  21.474  20.127  0.2220 -0.0917 -0.2306
76308W        W19225  15.006  20.447  24.287  0.1036  0.1191 -0.3867
76309W        W19226  14.253  17.914  22.302 -0.1812 -0.1638 -0.0496
76310W        W19227  17.160  18.918  20.537  0.0577  0.2353 -0.0229
76311W        W19228  14.071  22.569  21.355 -0.2512  0.0525  0.1268
76312W        W19229  18.449  22.027  22.281  0.1055 -0.1026  0.0505
76313W        W19230  16.312  21.719  21.292  0.0749  0.1418  0.1083
76314W        W19231  14.994  19.407  21.941 -0.2178 -0.2189  0.0194
76315W        W19232  14.905  18.724  22.578 -0.3252  0.0057 -0.2032
76316W        W19233  14.645  18.713  21.153 -0.0676 -0.1808  0.0105
76317W        W19234  17.525  19.822  22.437  0.0352  0.0848 -0.0318
76318W        W19235  16.702  21.236  19.268  0.3689 -0.0404  0.1474
76319W        W19236  14.249  21.256  21.681  0.0429  0.0218 -0.2401
76320W        W19237  17.290  18.498  23.068  0.1644 -0.0455 -0.1308
76321W        W19238  19.071  21.237  22.584  0.0485 -0.3166  0.1121
76322W        W19239  17.482  21.960  25.659 -0.0981  0.0054  0.2391
76323W        W19240  16.940  22.339  22.985  0.1322  0.1843  0.1755
76324W        W19241  15.082  19.061  19.783  0.1673  0.0636  0.0790
76325W        W19242  15.027  21.808  22.382  0.1915 -0.1185  0.0001
76326W        W19243  17.445  21.133  21.326 -0.0038  0.0057  0.0723
76327W        W19244  15.496  18.769  19.764  0.1313 -0.1575 -0.0437
76328W        W19245  18.812  21.659  22.432  0.2127  0.2881 -0.2514
76329W        W19246  17.333  22.511  21.757 -0.1491 -0.2663  0.2673
76330W        W19247  14.452  20.052  20.740 -0.1909  0.1492 -0.4368
76331W        W19248  16.849  19.141  21.169 -0.4172  0.3907  0.3323
76332W        W19249  17.769  19.359  22.995 -0.2856  0.0969 -0.2684
76333W        W19250  17.201  19.571  21.076  0.3753 -0.0676 -0.3217
76334W        W19251  17.824  22.856  21.985  0.2176  0.1059  0.1628
76335W        W19252  14.435  21.398  21.252 -0.0595 -0.1165 -0.0942
76336W        W19253  14.534  20.497  20.458 -0.0782 -0.1203  0.0535
76337W        W19254  15.877  23.128  21.627  0.0081  0.0595  0.0991
76338W        W19255  14.227  22.013  26.710 -0.2071  0.0234 -0.1670
76339W        W19256  16.378  19.528  18.177  0.3836  0.0521  0.0556
76340W        W19257  14.191  20.793  23.535  0.0409  0.1222  0.3381
76341W        W19258  16.533  21.928  23.780 -0.1415  0.1121  0.1925
76342W        W19259  17.002  19.450  25.125 -0.0012 -0.0125 -0.0289
76343W        W19260  16.310  19.152  19.108 -0.0206  0.1694  0.1215
76344W        W19261  17.514  22.093  21.390  0.2709  0.0119  0.1985
76345W        W19262  14.476  20.317  21.612 -0.0505  0.0192  0.1143
76346W        W19263  18.077  22.903  24.081  0.2569 -0.1385  0.0194
76347W        W19264  14.281  22.789  20.457 -0.0719 -0.2839  0.1553
76348W        W19265  16.418  19.377  21.213  0.2118 -0.1835 -0.0053
76349W        W19266  16.905  19.078  22.617  0.1954 -0.0556  0.1036
76350W        W19267  17.104  21.387  22.271 -0.1345 -0.0740 -0.0583
76351W        W19268  16.298  18.974  22.964 -0.2715 -0.0201 -0.1541
76352W        W19269  14.612  21.037  22.602  0.0426 -0.2341 -0.1544
76353W        W19270  14.300  21.719  24.143  0.1237  0.0270 -0.0216
76354W        W19271  17.560  21.946  23.433  0.3113 -0.2498 -0.4495
76355W        W19272  16.887  20.936  20.897  0.0751 -0.2156  0.0094
76356W        W19273  16.902  18.264  23.396  0.3156 -0.2174  0.5130
76357W        W19274  16.074  22.246  22.670  0.2677 -0.0572  0.0395
76358W        W19275  15.147  21.548  20.901  0.1570 -0.1326  0.1891
76359W        W19276  17.043  22.002  23.457  0.0425  0.1186 -0.2198
76360W        W19277  14.905  22.689  20.091  0.0119 -0.1196 -0.0719
76361W        W19278  14.756  21.922  20.791 -0.1164  0.1811 -0.1729
76362W        W19279  17.392  18.469  21.598 -0.1149  0.0719 -0.2700
76363W        W19280  13.580  22.861  25.288  0.1594 -0.3912  0.1797
76364W        W19281  17.180  18.315  21.175 -0.1107 -0.0087 -0.0070
76365W        W19282  17.529  21.604  20.681  0.3500  0.0250 -0.1429
76366W        W19283  14.747  18.975  21.735 -0.1946 -0.0312 -0.1856
76367W        W19284  14.125  21.219  25.382 -0.3101 -0.4324  0.0326
76368W        W19285  16.631  18.237  19.080 -0.4337 -0.2453  0.1000
76369W        W19286  16.066  20.975  23.913  0.0362 -0.2386 -0.1610
76370W        W19287  17.752  19.685  21.321 -0.2355  0.0815 -0.0846
76371W        W19288  12.974  20.503  20.504  0.1124  0.1871  0.0388
76372W        W19289  16.625  18.823  26.862 -0.1645  0.1365  0.0433
76373W        W19290  15.252  22.513  18.593 -0.1222 -0.1643  0.0273
76374W        W19291  15.017  19.657  22.786 -0.1352 -0.3185  0.3388
76375W        W19292  17.591  20.133  22.785 -0.1421 -0.0533 -0.1805
76376W        W19293  16.243  20.712  21.782 -0.3621  0.1758 -0.0353
76377W        W19294  17.404  20.580  21.830 -0.1418  0.1643  0.1268
76378W        W19295  14.442  20.772  23.097  0.0351  0.1189  0.3314
76379W        W19296  18.540  22.602  22.429 -0.1625 -0.0579  0.0843
76380W        W19297  15.867  18.817  23.148 -0.1293 -0.1017 -0.2718
76381W        W19298  12.923  20.015  20.340  0.4483  0.0268  0.2362
76382W        W19299  14.490  22.837  23.855 -0.1326 -0.0789  0.0473
76383W        W19300  17.881  21.292  20.846  0.0262  0.1298 -0.0291
76384W        W19301  16.947  21.630  22.678  0.2893  0.0034 -0.3253
76385W        W19302  14.750  21.963  24.215  0.1374 -0.1398  0.1343
76386W        W19303  15.110  23.184  24.323 -0.2510  0.4841  0.1753
76387W        W19304  16.769  19.308  19.182  0.0461 -0.0367 -0.1184
76388W        W19305  16.045  21.385  21.006  0.1306  0.2240  0.0476
76389W        W19306  15.824  21.070  21.417  0.1034  0.1483  0.1327
76390W        W19307  17.825  18.765  21.968  0.1371  0.1941  0.3760
76391W        W19308  18.422  21.119  19.154  0.3925 -0.5409  0.1112
76392W        W19309  16.822  18.808  23.051 -0.1606 -0.1135 -0.0038
76393W        W19310  15.382  19.134  21.729 -0.1388 -0.1853  0.0556
76394W        W19311  18.325  22.099  21.788 -0.3232  0.4507 -0.1048
76395W        W19312  14.424  18.175  23.244 -0.1056  0.1231  0.2724
76396W        W19313  15.987  20.906  25.669 -0.4306  0.3776 -0.0484
76397W        W19314  13.879  20.097  23.124 -0.3278  0.1030  0.0734
76398W        W19315  18.023  21.753  22.681  0.1351  0.0528 -0.0517
76399W        W19316  12.549  21.161  22.588  0.0446  0.0142  0.0082
76400W        W19317  14.824  20.325  22.063  0.1208  0.2176  0.2475
76401W        W19318  15.512  20.460  21.341 -0.0770 -0.0364 -0.0741
76402W        W19319  13.709  21.765  21.858  0.3597 -0.0893 -0.2641
76403W        W19320  15.954  19.320  22.974  0.1759  0.1518  0.1511
76404W        W19321  16.312  21.061  23.486 -0.3215  0.0868  0.2317
76405W        W19322  16.932  18.703  20.928 -0.2240  0.1012 -0.1115
76406W        W19323  16.597  19.248  21.663  0.3730 -0.4287  0.1231
76407W        W19324  17.049  19.881  22.261 -0.1279 -0.2113  0.1584
76408W        W19325  14.936  20.431  22.953  0.1033 -0.1414 -0.0049
76409W        W19326  13.937  18.242  24.127 -0.0830 -0.1162 -0.0720
76410W        W19327  17.502  21.950  24.174 -0.1363 -0.0220  0.0970
76411W        W19328  17.288  20.387  18.686  0.2373  0.2024 -0.0972
76412W        W19329  17.902  20.620  19.972  0.3390  0.2454  0.1485
76413W        W19330  16.378  20.099  19.979 -0.2659  0.1718  0.3615
76414W        W19331  15.089  18.557  19.599 -0.1663 -0.0328  0.2404
76415W        W19332  16.696  18.334  22.832  0.0711  0.1894  0.0144
76416W        W19333  17.034  22.004  21.607  0.0537 -0.0203  0.2478
76417W        W19334  15.047  20.538  24.792 -0.0548  0.1455 -0.0189
76418W        W19335  15.599  21.387  20.819  0.1966  0.0893 -0.2239
76419W        W19336  15.801  21.159  22.378  0.1084 -0.2309  0.0418
76420W        W19337  13.865  22.849  21.862 -0.1147 -0.0040  0.3989
76421W        W19338  13.480  22.154  24.143  0.1050  0.0822  0.1623
76422W        W19339  13.285  21.660  23.410 -0.0547 -0.2897 -0.2341
76423W        W19340  15.695  23.205  20.743 -0.0462 -0.0557  0.3035
76424W        W19341  15.504  20.808  22.334  0.1009 -0.1196  0.0674
76425W        W19342  16.540  20.791  23.028  0.0322 -0.0392 -0.0045
76426W        W19343  15.393  20.660  23.035 -0.1371  0.0049 -0.0154
76427W        W19344  18.232  21.699  23.924  0.0023 -0.0412  0.2240
76428W        W19345  16.109  21.531  24.522  0.1423 -0.0235 -0.1362
76429W        W19346  14.112  18.248  24.626 -0.0837 -0.3302 -0.2733
76430W        W19347  17.133  21.165  22.870  0.1062  0.2981  0.0657
76431W        W19348  15.930  23.887  20.678 -0.1885  0.2074  0.3226
76432W        W19349  16.140  20.220  25.170 -0.3572 -0.5295  0.2627
76433W        W19350  15.104  21.319  22.439  0.0001 -0.0310 -0.0080
76434W        W19351  13.746  24.513  24.704  0.2935 -0.0330 -0.0956
76435W        W19352  17.148  21.407  20.925 -0.3084  0.1083  0.1041
76436W        W19353  17.574  21.687  18.660 -0.0519  0.2335 -0.0038
76437W        W19354  18.697  22.249  22.669  0.1311 -0.3566 -0.1110
76438W        W19355  16.052  21.964  24.204  0.0752  0.2371  0.0971
76439W        W19356  13.600  20.544  22.613 -0.0739  0.1030  0.1430
76440W        W19357  17.396  21.642  21.244 -0.1847 -0.0849  0.1678
76441W        W19358  15.497  21.614  23.428 -0.2383 -0.1770  0.0753
76442W        W19359  17.295  20.301  24.016 -0.1474 -0.1849 -0.0592
76443W        W19360  16.935  21.506  24.910 -0.0036  0.1774 -0.0210
76444W        W19361  15.092  20.720  22.005  0.1237  0.0697 -0.0833
76445W        W19362  14.686  20.610  23.527  0.1977 -0.0231 -0.3722
76446W        W19363  17.574  18.477  23.498  0.3565  0.1043  0.0515
76447W        W19364  15.285  20.022  22.983  0.0701 -0.0574 -0.4140
76448W        W19365  18.274  23.714  22.286 -0.0558 -0.2444 -0.0695
76449W        W19366  14.195  20.181  20.214 -0.1897 -0.0921 -0.1738
76450W        W19367  15.229  22.324  19.538  0.1397  0.0712 -0.0240
76451W        W19368  15.442  20.986  21.074 -0.2347  0.0688 -0.0409
76452W        W19369  13.931  21.733  22.698  0.2189 -0.0244 -0.1344
76453W        W19370  15.313  22.053  23.906  0.0021  0.1556 -0.0075
76454W        W19371  17.286  18.981  22.323 -0.0003 -0.2296 -0.0967
76455W        W19372  16.354  20.280  21.014 -0.0140  0.1340 -0.2909
76456W        W19373  15.329  19.716  21.729  0.1650 -0.1087 -0.1146
76457W        W19374  15.728  20.159  19.142 -0.0176 -0.0433 -0.0470
76458W        W19375  17.890  22.358  24.441 -0.0418 -0.1411 -0.1375
76459W        W19376  14.223  20.699  21.820  0.0723 -0.1863  0.3007
76460W        W19377  14.440  18.332  20.919 -0.0443 -0.2864 -0.1219
76461W        W19378  17.319  21.067  20.598 -0.0907 -0.0863  0.0570
76462W        W19379  16.458  21.427  21.781  0.0263 -0.1836  0.1343
76463W        W19380  16.406  20.340  20.433  0.1523  0.2994 -0.2333
76464W        W19381  17.913  21.212  21.609 -0.3725 -0.2963  0.0258
76465W        W19382  16.775  22.574  22.500 -0.2208 -0.0009 -0.2357
76466W        W19383  18.316  20.926  21.720 -0.0725 -0.0567 -0.0739
76467W        W19384  12.774  20.409  23.411  0.6071 -0.0488  0.1588
76468W        W19385  17.822  19.163  21.642  0.3756  0.2228 -0.0311
76469W        W19386  17.387  18.902  21.777  0.1603  0.0116 -0.1194
76470W        W19387  14.802  21.648  20.380 -0.2455  0.1587  0.0445
76471W        W19388  15.537  22.090  23.385 -0.2087  0.4398 -0.2756
76472W        W19389  14.269  20.766  24.448  0.0577 -0.0417  0.0744
76473W        W19390  13.404  20.590  19.748  0.2143 -0.0835 -0.0292
76474W        W19391  15.964  21.504  23.183 -0.2113 -0.0278 -0.0937
76475W        W19392  14.980  20.688  20.458 -0.0508  0.2721 -0.1011
76476W        W19393  15.781  22.413  22.322  0.1833  0.3929 -0.2851
76477W        W19394  15.979  21.182  21.901 -0.1688 -0.3646  0.2103
76478W        W19395  16.072  20.449  21.351  0.2806  0.3918 -0.0018
76479W        W19396  18.292  21.393  21.256 -0.1252 -0.2451  0.4007
76480W        W19397  14.931  19.117  21.090  0.2165 -0.0145 -0.1645
76481W        W19398  15.073  21.103  20.678  0.0309  0.2290 -0.0087
76482W        W19399  14.582  20.877  20.829 -0.0009 -0.0246  0.0675
76483W        W19400  15.429  22.693  22.170  0.0373  0.0280  0.1819
76484W        W19401  16.835  18.297  22.301 -0.1551  0.1264  0.0839
76485W        W19402  14.786  21.131  21.704 -0.1173  0.1899  0.0681
76486W        W19403  13.269  19.137  19.539  0.0476  0.0299  0.0389
76487W        W19404  18.315  21.900  21.346  0.0231 -0.2953  0.3255
76488W        W19405  14.717  18.401  21.605 -0.2506  0.0657 -0.1388
76489W        W19406  17.172  21.946  20.936  0.4268  0.1187 -0.0878
76490W        W19407  20.237  21.833  23.664 -0.2382  0.1484 -0.1192
76491W        W19408  17.756  23.361  23.908 -0.2348 -0.1697 -0.2315
76492W        W19409  13.431  21.391  21.588  0.1648  0.1471  0.2921
76493W        W19410  16.831  19.579  22.744 -0.2632 -0.2276  0.1783
76494W        W19411  16.322  19.336  22.619 -0.2061  0.6038  0.3166
76495W        W19412  16.765  23.503  22.417  0.4484 -0.1994  0.0293
76496W        W19413  16.299  21.188  21.379  0.2123 -0.0118  0.0080
76497W        W19414  15.253  21.367  21.426 -0.2174  0.0584  0.0565
76498W        W19415  16.588  22.139  24.256 -0.0007 -0.2736  0.1306
76499W        W19416  16.898  21.564  21.318 -0.0044  0.0269 -0.0683
76500W        W19417  16.237  21.935  26.038 -0.3257  0.3181  0.0322
76501W        W19418  18.720  22.751  21.850 -0.1160 -0.0199  0.1040
76502W        W19419  15.382  18.603  23.315 -0.0468  0.0014  0.0172
76503W        W19420  14.491  20.131  25.380 -0.0029 -0.2838 -0.1213
76504W        W19421  14.979  18.638  20.839 -0.1280  0.3094 -0.1324
76505W        W19422  16.130  21.572  22.664  0.0085 -0.1214 -0.0889
76506W        W19423  14.583  20.457  22.603 -0.2610 -0.1541  0.4498
76507W        W19424  15.995  19.835  19.755  0.3496 -0.4111  0.0213
76508W        W19425  17.229  20.888  23.286  0.1124 -0.0679 -0.2434
76509W        W19426  17.354  19.726  23.005 -0.1800  0.1357 -0.0420
76510W        W19427  17.270  21.256  24.123 -0.0431  0.0404  0.0587
76511W        W19428  19.154  20.589  26.042  0.0845 -0.2572 -0.0063
76512W        W19429  15.825  21.250  23.585  0.0862  0.0257 -0.1934
76513W        W19430  15.472  17.488  24.886  0.0018  0.0392 -0.5161
76514W        W19431  15.080  20.218  20.600  0.0639  0.2353  0.2935
76515W        W19432  15.993  20.866  21.007  0.1871  0.1860  0.0302
76516W        W19433  16.996  17.896  20.852 -0.0665  0.1593  0.0168
76517W        W19434  14.457  18.847  20.697 -0.2192 -0.1057 -0.0428
76518W        W19435  16.395  18.178  20.111  0.0732 -0.0532 -0.1298
76519W        W19436  16.811  20.853  25.413  0.2975 -0.1316 -0.1985
76520W        W19437  16.805  21.188  23.315 -0.1362  0.0035  0.0559
76521W        W19438  16.240  21.388  29.317 -0.0667 -0.1051  0.3467
76522W        W19439  17.076  19.287  23.109  0.0992  0.3751 -0.0326
76523W        W19440  14.477  17.894  27.266 -0.2444  0.2603  0.1636
76524W        W19441  15.319  21.606  25.654 -0.2136 -0.0410  0.1802
76525W        W19442  14.131  18.338  29.253  0.2513  0.1706  0.0818
76526W        W19443  17.838  20.817  28.446  0.1406  0.1476 -0.2330
76527W        W19444  18.264  21.178  28.317 -0.4312 -0.1409 -0.1314
76528W        W19445  14.894  19.802  30.790 -0.2706  0.0082 -0.0751
76529W        W19446  15.412  20.925  26.331 -0.2195 -0.1500  0.0024
76530W        W19447  15.879  19.983  25.692  0.1696  0.1731  0.0946
76531W        W19448  16.573  16.895  26.889  0.0479  0.1706 -0.2419
76532W        W19449  17.718  19.450  28.714 -0.0551 -0.0671 -0.0612
76533W        W19450  15.043  18.743  25.507  0.0619  0.2576 -0.1317
76534W        W19451  14.577  17.080  27.885  0.0967 -0.0891 -0.0159
76535W        W19452  16.247  18.527  26.720  0.1559 -0.0725 -0.0805
76536W        W19453  14.723  19.784  24.868 -0.1772  0.0998 -0.3299
76537W        W19454  14.169  16.726  29.194 -0.2528 -0.1993  0.2279
76538W        W19455  17.348  17.806  27.050  0.3277  0.2643 -0.0292
76539W        W19456  13.128  18.465  28.912 -0.0135 -0.0517 -0.0276
76540W        W19457  14.347  20.741  25.933 -0.3835  0.2012  0.0236
76541W        W19458  13.707  18.131  27.942  0.1379  0.0093  0.1131
76542W        W19459  14.994  19.110  26.699 -0.0866  0.0421 -0.2850
76543W        W19460  16.465  17.894  26.469  0.4956  0.0160 -0.1798
76544W        W19461  15.881  18.933  28.994  0.2392 -0.1993 -0.2975
76545W        W19462  15.605  21.046  31.499  0.2787  0.0020 -0.0183
76546W        W19463  16.065  22.124  27.618 -0.1614  0.0722 -0.0273
76547W        W19464  17.314  18.969  29.595 -0.0003 -0.0532 -0.0373
76548W        W19465  13.411  18.529  26.975  0.0407  0.2654  0.2202
76549W        W19466  14.043  20.389  26.783 -0.2246 -0.1209 -0.0440
76550W        W19467  15.383  20.156  27.417 -0.0020 -0.1802 -0.2307
76551W        W19468  17.213  18.362  25.650  0.0818 -0.0399  0.3901
76552W        W19469  16.717  20.271  27.810  0.2342 -0.1839 -0.2764
76553W        W19470  17.059  21.963  30.095  0.2651  0.2965  0.0056
76554W        W19471  15.558  19.208  26.705 -0.2782 -0.1210  0.2058
76555W        W19472  16.534  20.585  29.049 -0.0814  0.0398 -0.0768
76556W        W19473  16.178  21.699  27.995  0.1098 -0.1163  0.2698
76557W        W19474  17.425  18.902  26.754  0.0654  0.0181  0.0376
76558W        W19475  14.834  19.061  26.094  0.1496 -0.2305 -0.0106
76559W        W19476  16.189  21.039  22.780 -0.0597  0.3031  0.2072
76560W        W19477  16.011  19.743  25.275 -0.0135 -0.2409  0.1628
76561W        W19478  15.977  19.990  29.103  0.0722  0.0971 -0.1234
76562W        W19479  15.104  20.176  29.529 -0.3240 -0.0164  0.2508
76563W        W19480  16.707  20.278  26.754 -0.1449 -0.1465 -0.1977
76564W        W19481  15.395  19.919  24.306 -0.1292  0.1784 -0.2510
76565W        W19482  15.723  18.385  22.946 -0.1496 -0.0454  0.1478
76566W        W19483  15.374  17.654  25.359 -0.0281  0.0211 -0.1963
76567W        W19484  15.998  20.853  27.539 -0.0210 -0.1819  0.1755
76568W        W19485  17.822  18.193  28.141 -0.4409  0.1980  0.4246
76569W        W19486  19.057  20.144  28.829 -0.2490  0.2148 -0.0788
76570W        W19487  16.286  18.874  28.594 -0.1739  0.0854  0.0770
76571W        W19488  15.467  20.824  28.733  0.0862  0.1518  0.0382
76572W        W19489  15.171  19.239  27.190 -0.2965 -0.1694  0.3573
76573W        W19490  18.624  19.496  25.592  0.1659  0.2565 -0.0303
76574W        W19491  16.392  19.317  26.809 -0.0106 -0.0365  0.0398
76575W        W19492  13.803  19.448  25.046 -0.2886 -0.0479  0.1810
76576W        W19493  18.014  19.504  27.593  0.0359 -0.2340 -0.2289
76577W        W19494  15.639  17.576  30.023  0.0652  0.4168  0.0357
76578W        W19495  17.409  21.074  27.579  0.2491  0.0539  0.1231
76579W        W19496  15.734  19.843  27.747  0.1175  0.1299 -0.2518
76580W        W19497  17.302  19.366  27.833  0.0720  0.0280  0.3939
76581W        W19498  14.917  19.822  29.173  0.0853 -0.1782 -0.2572
76582W        W19499  17.127  20.737  24.261  0.2950 -0.0974  0.0209
76583W        W19500  15.409  19.975  23.471  0.3711 -0.3570  0.1055
76584W        W19501  18.800  18.596  26.399  0.0268  0.3220  0.0848
76585W        W19502  15.440  20.275  23.925 -0.1869 -0.1390  0.1516
76586W        W19503  16.797  21.146  24.374  0.0986 -0.0801 -0.0969
76587W        W19504  15.545  20.447  26.519 -0.0205 -0.0103  0.1746
76588W        W19505  17.339  19.356  23.565  0.0666  0.1680  0.0099
76589W        W19506  15.918  21.272  28.004 -0.2238 -0.0796 -0.2620
76590W        W19507  15.722  17.175  26.800  0.0461  0.2056 -0.0760
76591W        W19508  16.333  19.558   0.128  0.1380  0.4140  0.1083
76592W        W19509  14.928  19.076  25.201 -0.2535  0.2481  0.1361
76593W        W19510  15.057  19.356  27.963  0.0508 -0.2926  0.1670
76594W        W19511  14.734  20.627  28.574 -0.2902 -0.4004  0.1026
76595W        W19512  13.537  17.268  29.312 -0.0361  0.0778 -0.0060
76596W        W19513  16.365  22.257  28.816 -0.3027 -0.1275 -0.4920
76597W        W19514  15.690  16.438  30.792  0.1544  0.2878 -0.0176
76598W        W19515  17.422  17.534  25.857  0.0286 -0.1998 -0.2775
76599W        W19516  15.970  18.427  27.188  0.0785 -0.0004  0.2728
76600W        W19517  18.250  20.192  24.926 -0.0812  0.1228  0.0388
76601W        W19518  15.529  19.602  25.396  0.0222  0.3291  0.2180
76602W        W19519  14.167  19.122  26.899  0.0894  0.1543  0.2086
76603W        W19520  12.927  18.615  25.863 -0.0435  0.3373 -0.1325
76604W        W19521  16.118  19.035  27.657 -0.3214 -0.1711 -0.0109
76605W        W19522  16.185  17.343  28.456 -0.2994  0.0762  0.3900
76606W        W19523  17.137  19.378  28.601 -0.4156  0.0677  0.0462
76607W        W19524  14.676  17.834  25.290 -0.5087 -0.0314  0.0272
76608W        W19525  17.727  18.719  27.418  0.0159  0.0604 -0.0516
76609W        W19526  16.152  19.785  24.326  0.1497 -0.1181 -0.1112
76610W        W19527  15.270  20.067  24.780 -0.0004 -0.1988  0.1748
76611W        W19528  17.815  18.579  28.547 -0.0987 -0.1773 -0.1575
76612W        W19529  14.584  20.731  24.919  0.0627  0.1540 -0.1491
76613W        W19530  16.923  20.592  28.674 -0.0860 -0.0962 -0.0195
76614W        W19531  17.358  21.205  25.628  0.0607  0.3178 -0.3215
76615W        W19532  14.192  18.332  28.203  0.0003  0.4986  0.4998
76616W        W19533  14.222  20.091  27.403 -0.0039  0.1222 -0.1173
76617W        W19534  14.341  19.744  26.316 -0.1882  0.0653 -0.1888
76618W        W19535  15.018  19.490  24.499  0.4107  0.0685  0.2087
76619W        W19536  17.359  22.330  27.325  0.0721 -0.2819 -0.1295
76620W        W19537  16.777  20.313  25.447 -0.2359 -0.1433 -0.1169
76621W        W19538  16.711  20.070  27.205  0.0102 -0.0032 -0.2758
76622W        W19539  16.922  17.617  29.006 -0.0546  0.2900  0.1422
76623W        W19540  19.368  20.033  27.714  0.1705 -0.1678  0.1521
76624W        W19541  17.380  20.279  27.975 -0.1084 -0.0437  0.3754
76625W        W19542  16.204  19.750  24.825 -0.1236  0.1309  0.0862
76626W        W19543  14.647  19.448  26.862 -0.0245 -0.1982 -0.1659
76627W        W19544  15.079  17.742  25.760  0.0700  0.0734 -0.0175
76628W        W19545  14.822  21.318  29.173 -0.0505 -0.4442 -0.0225
76629W        W19546  18.138  18.248  25.030 -0.5144  0.0459  0.0584
76630W        W19547  14.895  20.116  31.438  0.1322 -0.0500 -0.2326
76631W        W19548  18.114  19.903  27.971 -0.0669 -0.0088 -0.0944
76632W        W19549  15.169  19.571  25.010  0.1911 -0.0939 -0.1424
76633W        W19550  14.823  21.120  29.618  0.0041 -0.1637  0.0581
76634W        W19551  15.910  18.502  28.487  0.4252  0.1946 -0.0126
76635W        W19552  17.749  21.172  23.948  0.1755 -0.1149 -0.3985
76636W        W19553  16.183  19.182  25.355  0.4395  0.0277 -0.0243
76637W        W19554  15.768  18.390  26.612 -0.0724 -0.0438  0.0375
76638W        W19555  15.852  20.789  26.652  0.1775 -0.1386 -0.1258
76639W        W19556  17.098  17.998  26.018 -0.1311  0.2737  0.1316
76640W        W19557  16.580  21.453  26.087  0.2053 -0.1407  0.0309
76641W        W19558  14.576  20.350  27.008 -0.0451 -0.0760  0.0929
76642W        W19559  15.808  22.369  29.564  0.1465 -0.0680 -0.1467
76643W        W19560  14.846  21.618  26.178  0.0831 -0.1616  0.0145
76644W        W19561  15.291  16.821  29.334 -0.0279 -0.0255 -0.0773
76645W        W19562  15.758  19.834  23.115 -0.1897  0.1238 -0.1411
76646W        W19563  19.262  18.110  27.977 -0.0509  0.0381  0.0502
76647W        W19564  15.633  18.899  24.291 -0.2184 -0.4087 -0.2201
76648W        W19565  18.130  17.687  27.435  0.2936 -0.3113  0.1025
76649W        W19566  17.174  19.708  27.075  0.0682 -0.1408 -0.0852
76650W        W19567  16.203  17.684  29.020  0.1521 -0.2228 -0.0931
76651W        W19568  16.442  20.022  29.632  0.0665 -0.1111  0.3471
76652W        W19569  17.794  19.508  26.294 -0.0965 -0.1313  0.0778
76653W        W19570  14.498  19.971  22.754  0.2678  0.4402 -0.0471
76654W        W19571  16.996  17.423  29.467  0.2583  0.1086  0.0641
76655W        W19572  15.486  20.039  28.361  0.5689  0.2455 -0.2050
76656W        W19573  13.521  21.210  28.355  0.1668  0.1571  0.0213
76657W        W19574  16.707  16.867  28.772  0.1798  0.1514  0.1333
76658W        W19575  16.970  18.822  26.467 -0.2163  0.1108 -0.2765
76659W        W19576  16.101  19.265  29.420 -0.0587 -0.0079  0.1057
76660W        W19577  16.145  21.517  23.885  0.0115 -0.1943  0.2306
76661W        W19578  16.295  20.246  24.538 -0.0120 -0.2512 -0.1030
76662W        W19579  14.922  17.845  26.493  0.0268  0.0141 -0.0780
76663W        W19580  15.101  19.504  28.429  0.2573 -0.1387  0.2624
76664W        W19581  15.680  20.356  23.267 -0.0339 -0.0032 -0.0772
76665W        W19582  18.444  19.671  27.432  0.0079  0.2887  0.2566
76666W        W19583  14.653  20.273  24.672  0.2205 -0.2309 -0.2004
76667W        W19584  16.046  17.132  27.171 -0.2608  0.1116 -0.0469
76668W        W19585  13.841  19.776  27.530  0.1128 -0.0648  0.0273
76669W        W19586  15.136  21.110  25.547  0.3048  0.0758  0.1320
76670W        W19587  16.259  19.274  26.275 -0.4479  0.2953  0.1298
76671W        W19588  17.496  19.600  24.820  0.2048 -0.2127  0.1412
76672W        W19589  15.280  18.392  26.820  0.0774 -0.3873  0.0516
76673W        W19590  17.737  19.037  27.885  0.3750 -0.1251  0.1888
76674W        W19591  13.451  20.038  29.752 -0.1829  0.0784 -0.0067
76675W        W19592  17.864  18.273  25.455  0.0225 -0.0534  0.2221
76676W        W19593  16.399  18.510  23.230  0.0457  0.1332  0.2267
76677W        W19594  17.294  20.529  28.355 -0.1833 -0.0722  0.1705
76678W        W19595  15.962  20.832  28.585  0.2354  0.3352  0.0245
76679W        W19596  13.508  19.641  23.088 -0.1740  0.2939  0.3372
76680W        W19597  19.722  18.269  27.626 -0.0662 -0.0519 -0.1695
76681W        W19598  14.577  20.592  25.425 -0.1063 -0.0184  0.1369
76682W        W19599  14.702  18.605  25.870  0.1039  0.1087 -0.1611
76683W        W19600  16.277  19.434  28.372 -0.2117  0.0291 -0.0473
76684W        W19601  15.708  20.984  27.074 -0.1176 -0.1629 -0.2715
76685W        W19602  14.828  18.325  29.001 -0.1204  0.0191  0.0059
76686W        W19603  17.164  19.601  30.162 -0.0550  0.0911  0.1641
76687W        W19604  15.217  19.829  27.819  0.2568  0.2479 -0.1381
76688W        W19605  15.631  18.109  27.058  0.3662 -0.1414  0.2304
76689W        W19606  15.949  18.903  26.586 -0.0101  0.1939 -0.2524
76690W        W19607  16.199  19.713  26.980  0.0718 -0.2673  0.1964
76691W        W19608  16.524  19.060  29.176  0.0565  0.2686 -0.0390
76692W        W19609  14.857  21.501  28.683  0.1799  0.1411  0.0680
76693W        W19610  16.131  19.131  24.668  0.2306  0.1126  0.1236
76694W        W19611  14.910  20.276  25.149  0.4435 -0.1223 -0.3241
76695W        W19612  16.247  18.571  28.984  0.0583  0.1882 -0.2851
76696W        W19613  16.170  20.289  26.906  0.2318  0.2824 -0.2846
76697W        W19614  14.566  18.105  26.754  0.1116  0.2536 -0.1997
76698W        W19615  15.536  19.112  25.433  0.1232 -0.0430  0.4473
76699W        W19616  15.481  19.056  27.983 -0.2287  0.3068  0.1117
76700W        W19617  16.715  19.560  26.427  0.1623 -0.2482 -0.0859
76701W        W19618  13.523  21.632  27.122  0.2631  0.1693  0.0828
76702W        W19619  15.491  19.939  29.221  0.0585 -0.1182 -0.0223
76703W        W19620  17.498  19.670  25.816  0.1919  0.3441 -0.2620
76704W        W19621  17.870  21.518  27.530  0.1159  0.1420  0.1381
76705W        W19622  19.472  17.533  29.461 -0.0305  0.1666  0.2375
76706W        W19623  18.064  18.170  28.653  0.2308 -0.2488 -0.0813
76707W        W19624  16.241  17.433  27.648 -0.1658  0.0373 -0.3649
76708W        W19625  16.635  19.912  25.054 -0.1534 -0.2332 -0.3805
76709W        W19626  13.390  18.888  29.159  0.0210  0.1841  0.1352
76710W        W19627  15.632  22.972  30.811  0.2677 -0.2953  0.0542
76711W        W19628  15.639  20.512  28.355 -0.0020  0.0364  0.0725
76712W        W19629  16.336  19.935  26.576  0.0092  0.0037 -0.1938
76713W        W19630  15.748  19.240  28.596 -0.1522 -0.1256  0.2494
76714W        W19631  18.325  17.829  25.981  0.2278 -0.1441  0.2620
76715W        W19632  17.742  19.712  24.338 -0.3695 -0.0931  0.0960
76716W        W19633  14.557  19.222  27.983 -0.1474  0.1526  0.1684
76717W        W19634  16.464  19.608  25.424  0.0386 -0.3426 -0.0916
76718W        W19635  16.264  20.591  24.179 -0.3439 -0.1379 -0.2486
76719W        W19636  16.311  19.826  28.753  0.2123 -0.1436  0.2109
76720W        W19637  16.109  17.507  26.712  0.1835 -0.0873  0.0821
76721W        W19638  17.238  19.382  26.332 -0.2477  0.1442 -0.3442
76722W        W19639  17.352  18.646  25.165  0.0663 -0.2520 -0.3110
76723W        W19640  17.611  19.176  25.940 -0.1369 -0.0206 -0.0914
76724W        W19641  16.649  17.412  26.813  0.1991 -0.2096  0.3367
76725W        W19642  16.323  18.407  26.011  0.2747 -0.1771  0.4240
76726W        W19643  14.027  17.197  27.835 -0.1863  0.0120  0.1520
76727W        W19644  17.909  19.085  27.160  0.0538 -0.4206  0.3393
76728W        W19645  18.223  19.057  23.058 -0.2756 -0.2807 -0.0109
76729W        W19646  18.185  17.781  28.395  0.0120 -0.5018  0.0147
76730W        W19647  17.009  19.340  24.686 -0.2985 -0.1167  0.0001
76731W        W19648  16.079  17.941  26.075  0.0920 -0.1395 -0.2240
76732W        W19649  18.259  19.878  28.849 -0.2622  0.2575  0.0171
76733W        W19650  18.693  19.294  28.425  0.2338  0.1115  0.1091
76734W        W19651  16.075  21.723  27.280 -0.0690  0.2141 -0.3045
76735W        W19652  16.120  18.050  26.866 -0.0131 -0.0916  0.0961
76736W        W19653  16.889  19.438  24.236 -0.0377  0.1946 -0.0427
76737W        W19654  15.507  20.663  27.541  0.3618 -0.2378 -0.1002
76738W        W19655  15.686  23.604  30.110  0.3046  0.1361  0.2134
76739W        W19656  15.590  20.807  24.045 -0.2567  0.0343  0.0209
76740W        W19657  15.989  19.491  27.456  0.2215 -0.1880 -0.0475
76741W        W19658  15.861  20.362  27.720 -0.1689  0.0234 -0.1775
76742W        W19659  16.351  18.978  25.829 -0.0690  0.0043 -0.1156
76743W        W19660  16.778  17.514  31.853  0.2844  0.1293 -0.1791
76744W        W19661  15.993  19.429  27.952  0.0494  0.0615  0.1250
76745W        W19662  17.185  17.823  25.563 -0.3166  0.1505 -0.0304
76746W        W19663  14.177  21.945  28.715 -0.0702  0.1444  0.1882
76747W        W19664  15.326  21.001  30.848  0.0731 -0.0781 -0.0372
76748W        W19665  14.398  21.602  27.069  0.0813 -0.0739 -0.1330
76749W        W19666  17.170  18.410  26.779  0.2731 -0.2147  0.0020
76750W        W19667  17.223  18.779  27.740  0.0143 -0.4354  0.2502
76751W        W19668  16.462  19.426  24.459 -0.0814  0.0127  0.0391
76752W        W19669  19.005  18.906  28.179 -0.1337  0.0776 -0.1282
76753W        W19670  15.085  21.166  28.315 -0.1271  0.4118  0.0872
76754W        W19671  15.519  17.719  27.430  0.1127 -0.1109 -0.2064
76755W        W19672  15.244  21.509  29.527  0.2488 -0.3331 -0.0309
76756W        W19673  17.218  19.813  24.285 -0.1167  0.1017  0.4254
76757W        W19674  15.525  18.564  25.512 -0.1169  0.0460 -0.1209
76758W        W19675  14.962  20.494  27.717  0.0297  0.0160  0.3882
76759W        W19676  15.348  19.041  28.910  0.0006 -0.2796  0.3209
76760W        W19677  16.005  18.900  28.117  0.2240  0.0690  0.5258
76761W        W19678  15.375  17.990  24.943  0.2026  0.0341  0.1049
76762W        W19679  16.258  21.057  24.449 -0.2196  0.1243  0.1780
76763W        W19680  14.826  20.694  30.592 -0.0858  0.1866  0.2858
76764W        W19681  15.468  20.513  29.271  0.1759  0.1375  0.0774
76765W        W19682  15.463  20.543  25.134 -0.1008 -0.0490  0.1850
76766W        W19683  16.698  21.406  23.829 -0.4324  0.0911 -0.0861
76767W        W19684  16.769  18.924  27.598  0.1190 -0.1163 -0.1830
76768W        W19685  16.337  23.072  30.075  0.2104 -0.1564 -0.1303
76769W        W19686  14.142  22.092  27.666 -0.1838 -0.0164  0.4026
76770W        W19687  17.118  19.899  24.896 -0.1253  0.0538  0.2133
76771W        W19688  15.318  21.627  28.514 -0.1472  0.0769 -0.0840
76772W        W19689  15.399  18.532  29.283 -0.4178  0.2987  0.1875
76773W        W19690  17.623  19.986  26.196 -0.1613 -0.1560 -0.1270
76774W        W19691  17.037  19.376  25.849 -0.2551 -0.1246  0.1240
76775W        W19692  16.003  21.646   0.224  0.2406  0.0591  0.0810
76776W        W19693  16.675  19.710  26.902 -0.2315  0.2186  0.0083
76777W        W19694  16.042  23.213  28.961  0.4646 -0.2700 -0.2598
76778W        W19695  18.044  17.806  29.375 -0.0555 -0.2869  0.1965
76779W        W19696  14.604  21.041   0.580  0.3059 -0.2341 -0.0225
76780W        W19697  16.449  21.563  23.373 -0.0105 -0.1876 -0.2745
76781W        W19698  15.140  19.607  26.791  0.0170 -0.2047 -0.4307
76782W        W19699  16.937  18.245  27.523  0.0578  0.0902  0.2913
76783W        W19700  17.974  17.180  28.336  0.0385 -0.0467  0.0442
76784W        W19701  15.465  20.925  24.720  0.0921 -0.1038 -0.1903
76785W        W19702  16.645  18.478  29.270 -0.1620  0.0510  0.0136
76786W        W19703  16.606  19.673  25.945  0.1818  0.1082  0.3302
76787W        W19704  17.442  19.790  26.615  0.0953  0.1547 -0.3656
76788W        W19705  15.228  22.121  28.212 -0.0392 -0.1858  0.3339
76789W        W19706  15.893  17.685  25.658  0.1219  0.3053  0.0567
76790W        W19707  17.333  17.748  26.389 -0.1802 -0.0120 -0.4887
76791W        W19708  15.538  19.582  28.121 -0.3028 -0.0895  0.3144
76792W        W19709  19.278  17.911  28.953 -0.0272  0.1277 -0.2762
76793W        W19710  15.720  18.518  27.907 -0.0024  0.0513  0.1151
76794W        W19711  16.081  19.540  25.766  0.3881  0.0980  0.2484
76795W        W19712  16.694  19.239  28.702 -0.0879 -0.0733  0.2971
76796W        W19713  15.340  18.066  29.128  0.0003 -0.3044 -0.1405
76797W        W19714  16.529  19.541  23.896  0.1984  0.2951 -0.1632
76798W        W19715  15.742  20.686  29.658 -0.0353 -0.0024  0.0203
76799W        W19716  16.399  19.379  23.209  0.0051 -0.3144 -0.1143
76800W        W19717  16.667  21.534  26.623  0.2957 -0.1796 -0.1272
76801W        W19718  15.055  16.351  26.819  0.2005  0.0452 -0.0513
76802W        W19719  16.848  18.714  25.386 -0.0766 -0.0049  0.2421
76803W        W19720  14.621  19.011  25.600 -0.2251  0.0947 -0.3020
76804W        W19721  15.620  20.247  28.828 -0.3801 -0.1592 -0.1303
76805W        W19722  17.255  22.043  26.122  0.0161 -0.1383  0.0558
76806W        W19723  16.651  18.312  25.093  0.3060 -0.1266  0.1565
76807W        W19724  19.375  21.723  23.976  0.1343  0.0474 -0.3738
76808W        W19725  17.778  20.344  28.306  0.1263 -0.1250  0.0278
76809W        W19726  13.210  19.938  26.040  0.2738 -0.3592  0.1846
76810W        W19727  19.411  20.615  26.816  0.1320 -0.1415  0.2795
76811W        W19728  18.863  18.950  25.458 -0.0574  0.0005 -0.2016
76812W        W19729  15.882  18.635  26.122 -0.0569 -0.1140  0.1262
76813W        W19730  16.203  21.239  27.134 -0.3705  0.1411  0.0771
76814W        W19731  16.928  19.354  27.336 -0.0838  0.3232 -0.0986
76815W        W19732  16.971  17.960  26.722 -0.0165 -0.3074 -0.1355
76816W        W19733  14.440  21.678  27.805  0.3859  0.3068 -0.1194
76817W        W19734  18.212  19.357  28.561  0.3405  0.2047 -0.0261
76818W        W19735  18.523  18.825  28.080  0.3698  0.0069  0.0611
76819W        W19736  15.604  21.503  25.077  0.1551 -0.2959 -0.2569
76820W        W19737  16.701  18.301  26.962  0.4002  0.2880  0.0112
76821W        W19738  13.950  19.727  28.400  0.0628  0.1765 -0.1015
76822W        W19739  17.882  20.996  27.318  0.1486 -0.1022  0.0892
76823W        W19740  14.076  20.801  22.601 -0.1264 -0.0930  0.1179
76824W        W19741  17.926  23.323  29.292  0.1379  0.2165  0.3356
76825W        W19742  14.690  21.513  27.450 -0.1903 -0.1219 -0.1855
76826W        W19743  14.687  18.677  25.129 -0.4634 -0.0855 -0.0573
76827W        W19744  17.533  20.261  25.531  0.1107  0.0950 -0.1575
76828W        W19745  17.015  20.007  26.356  0.1464  0.1323  0.2042
76829W        W19746  17.886  20.858  26.386 -0.1491 -0.1315 -0.1384
76830W        W19747  16.871  17.722  25.176 -0.3417  0.1490  0.2100
76831W        W19748  19.177  18.416  25.052  0.2410  0.0274  0.1232
76832W        W19749  14.977  20.335  29.020  0.2558 -0.1459 -0.0974
76833W        W19750  14.728  20.160  26.258  0.1494  0.0022  0.0970
76834W        W19751  13.870  18.845  25.355  0.0497 -0.1863  0.0923
76835W        W19752  16.260  20.246  27.417  0.0110 -0.0353 -0.0524
76836W        W19753  16.293  17.998  25.668  0.0505  0.0394 -0.0166
76837W        W19754  14.708  18.387  28.410 -0.0549 -0.0946  0.1915
76838W        W19755  15.413  17.846  28.276  0.0153 -0.2811 -0.3789
76839W        W19756  14.376  20.320  24.251 -0.2713 -0.0976 -0.1485
76840W        W19757  17.751  18.344  25.981 -0.2330  0.2190 -0.0094
76841W        W19758  15.405  17.555  28.813 -0.1466 -0.1154  0.0628
76842W        W19759  15.287  16.827  26.779  0.1509 -0.0660 -0.1350
76843W        W19760  16.226  19.951  26.059  0.0679 -0.0713  0.3702
76844W        W19761  15.352  18.961  25.933  0.1188 -0.0120 -0.3057
76845W        W19762  15.758  19.403  24.993  0.1158 -0.1437 -0.1435
76846W        W19763  16.036  22.640  30.884 -0.1236  0.0181  0.0303
76847W        W19764  15.339  20.173  25.625  0.1274  0.1062  0.0277
76848W        W19765  15.899  17.633  27.139  0.1494 -0.0650  0.0556
76849W        W19766  16.227  16.902  28.973  0.1986  0.1737 -0.1088
76850W        W19767  14.410  18.879  24.506  0.0034  0.1504  0.3418
76851W        W19768  17.035  19.286  26.781 -0.0004  0.0648  0.0855
76852W        W19769  17.139  20.315  24.581  0.2394 -0.3908  0.0842
76853W        W19770  17.163  20.258  27.054  0.2517 -0.1132  0.0620
76854W        W19771  14.724  19.902  29.804 -0.1651 -0.0512 -0.2892
76855W        W19772  13.465  22.404  31.209  0.2208 -0.0717  0.1953
76856W        W19773  15.637  18.061  25.354 -0.2133  0.1171  0.0403
76857W        W19774  16.741  18.655  25.921 -0.1266  0.1166 -0.1114
76858W        W19775  17.135  20.505  27.575 -0.2567 -0.1176  0.1564
76859W        W19776  17.195  20.652  25.710 -0.0340 -0.3747  0.0324
76860W        W19777  17.604  18.058  26.632  0.0394  0.1975 -0.4788
76861W        W19778  16.737  20.379  24.925  0.0180 -0.2104  0.0103
76862W        W19779  14.155  19.233  28.280  0.0422  0.0846  0.1032
76863W        W19780  16.605  21.845  27.786  0.0095 -0.1162  0.3017
76864W        W19781  18.174  20.654  28.116 -0.2087  0.2416  0.1483
76865W        W19782  14.492  19.510  24.387  0.3728  0.0754 -0.1040
76866W        W19783  18.227  18.332  25.849  0.0705 -0.0464  0.1479
76867W        W19784  17.945  20.974  24.491 -0.0871 -0.1247 -0.0475
76868W        W19785  15.877  18.600  29.425  0.0605 -0.0903  0.1873
76869W        W19786  15.105  18.737  27.146  0.0084 -0.2841 -0.0636
76870W        W19787  16.593  18.012  29.167 -0.0168  0.0189  0.0210
76871W        W19788  17.766  18.998  26.364  0.1591  0.0345  0.0983
76872W        W19789  16.894  20.942  28.999  0.0538  0.0807 -0.1164
76873W        W19790  16.338  20.874  26.168  0.1355  0.5255 -0.1166
76874W        W19791  16.461  20.686  27.584 -0.3330 -0.0266 -0.0052
76875W        W19792  15.582  21.220  28.422  0.0691  0.3647  0.0298
76876W        W19793  17.526  20.666  29.302  0.1387 -0.0309  0.1384
76877W        W19794  13.933  16.843  29.653 -0.2023  0.0212 -0.1082
76878W        W19795  15.461  20.459  24.508 -0.1140  0.1421  0.4410
76879W        W19796  15.134  20.417  23.443  0.1158 -0.1196  0.1208
76880W        W19797  18.877  19.004  26.111  0.3351 -0.0156  0.1804
76881W        W19798  14.540  18.507  24.185 -0.4371 -0.0461  0.1760
76882W        W19799  16.415  18.831  25.036 -0.2672  0.2382  0.0540
76883W        W19800  14.826  22.753  29.318  0.0556  0.3483  0.2070
76884W        W19801  15.114  17.388  26.632  0.3932 -0.1671 -0.2758
76885W        W19802  17.805  19.088  29.492  0.3113 -0.1023 -0.0700
76886W        W19803  14.826  20.911  31.102 -0.2196  0.1849  0.0854
76887W        W19804  14.035  17.716  28.706  0.0030  0.2725 -0.0680
76888W        W19805  13.686  19.088  29.525 -0.1968  0.2807  0.0773
76889W        W19806  15.198  21.985  29.695  0.2220 -0.0894 -0.0319
76890W        W19807  14.792  21.304  30.840  0.1414 -0.2883 -0.0274
76891W        W19808  15.181  18.449  30.799  0.0235  0.1263 -0.1518
76892W        W19809  14.440  19.722  28.979 -0.2011  0.0851 -0.2439
76893W        W19810  15.268  18.618  27.815  0.1944  0.0606 -0.1385
76894W        W19811  17.549  20.361  28.886  0.2753 -0.1892 -0.2605
76895W        W19812  15.486  22.076  29.285  0.3059  0.4052  0.2071
76896W        W19813  16.930  17.842  29.776 -0.1473 -0.1155  0.2107
76897W        W19814  16.777  21.389  29.187 -0.0037  0.1376 -0.2255
76898W        W19815  15.253  20.602  29.883 -0.2450 -0.0008 -0.2464
76899W        W19816  16.306  19.056  31.392  0.0490 -0.0455  0.2710
76900W        W19817  13.513  21.501  29.830 -0.2347  0.2464  0.2037
76901W        W19818  14.191  20.040  28.725 -0.1710 -0.0258 -0.2096
76902W        W19819  18.026  19.784  28.448 -0.1975  0.0917 -0.0815
76903W        W19820  14.493  17.508  28.816  0.1501 -0.0641  0.1720
76904W        W19821  16.188  16.917  29.524  0.2376  0.0722  0.2331
76905W        W19822  15.320  18.996  28.416  0.3011 -0.1735  0.2004
76906W        W19823  12.114  22.839  31.247 -0.0473 -0.1427 -0.0369
76907W        W19824  17.677  18.147  30.506 -0.2137 -0.1601 -0.3306
76908W        W19825  17.118  18.308  29.420  0.0599  0.3686  0.2816
76909W        W19826  16.989  16.640  26.929  0.0603 -0.0862 -0.3104
76910W        W19827  15.497  19.427  27.522  0.0157 -0.0879 -0.0820
76911W        W19828  15.454  19.762  29.710  0.0699 -0.1851  0.0404
76912W        W19829  14.913  23.383  29.670 -0.0911  0.0718  0.3680
76913W        W19830  14.735  20.809  26.794  0.2356 -0.1015 -0.1506
76914W        W19831  16.025  19.651  30.251  0.0504  0.1260 -0.1503
76915W        W19832  15.807  22.180  30.067  0.1406  0.2450  0.4225
76916W        W19833  14.562  19.146  29.011 -0.0215  0.2698 -0.0098
76917W        W19834  17.613  21.912  28.834 -0.0273  0.1100 -0.0338
76918W        W19835  16.093  20.313  29.445 -0.2869 -0.0405 -0.0835
76919W        W19836  14.292  18.461  31.299 -0.1486  0.0645 -0.2132
76920W        W19837  15.279  20.502  30.371  0.1641 -0.0653 -0.0504
76921W        W19838  16.057  20.339  28.641 -0.1565 -0.3332  0.1080
76922W        W19839  16.545  21.506  28.248  0.2078  0.1989  0.1894
76923W        W19840  16.227  19.169  30.885 -0.1418  0.5334  0.4639
76924W        W19841  16.231  19.828  27.792  0.3685  0.0429 -0.2949
76925W        W19842  17.096  18.993  30.100  0.0494  0.0092  0.4947
76926W        W19843  15.013  18.302  29.482 -0.1262 -0.2285 -0.1548
76927W        W19844  13.644  18.459  28.867 -0.1901 -0.0806 -0.0026
76928W        W19845  14.829  20.017  26.814  0.1203 -0.0824  0.3412
76929W        W19846  13.255  17.234  28.392  0.2108  0.3123  0.0978
76930W        W19847  16.201  18.437  29.983  0.0149  0.0342  0.0146
76931W        W19848  15.350  17.314  28.366 -0.4521 -0.2958  0.1753
76932W        W19849  15.880  19.721  29.484 -0.0900 -0.1689  0.2592
76933W        W19850  18.855  21.779  29.892 -0.0598 -0.3780 -0.1036
76934W        W19851  13.653  21.185  30.158  0.2454  0.0241  0.1365
76935W        W19852  15.704  22.136  30.541  0.1414  0.1670  0.1400
76936W        W19853  16.638  18.284  29.757 -0.1074  0.0087  0.1873
76937W        W19854  15.582  16.141  28.062  0.3050 -0.0045 -0.2909
76938W        W19855  16.930  20.206  28.297 -0.2039 -0.0992 -0.0597
76939W        W19856  15.830  19.197  30.362 -0.1025 -0.0798  0.4475
76940W        W19857  16.576  20.249  28.687 -0.0316  0.2422  0.0982
76941W        W19858  16.971  22.108  27.156  0.1774  0.1422  0.1955
76942W        W19859  14.593  21.452  30.303  0.2188  0.1109 -0.1045
76943W        W19860  17.338  22.711  29.674  0.2933 -0.0430 -0.0324
76944W        W19861  15.136  17.633  30.065  0.1936 -0.0222 -0.2208
76945W        W19862  13.244  17.848  30.716  0.0278 -0.2117 -0.1202
76946W        W19863  16.082  21.287  28.511  0.1061  0.1393  0.0009
76947W        W19864  14.728  20.038  28.647  0.0286 -0.1090  0.2834
76948W        W19865  11.776  17.276  30.962  0.0006 -0.3017  0.2587
76949W        W19866  17.425  21.109  28.339  0.0673 -0.2818 -0.0562
76950W        W19867  16.865  22.356  27.572 -0.0177 -0.4501 -0.1246
76951W        W19868  17.425  20.013  28.467 -0.0538 -0.2114  0.0412
76952W        W19869  14.812  25.207  20.353  0.2707 -0.3190  0.0729
76953W        W19870  15.253  24.563  15.832 -0.0628  0.0197  0.2103
76954W        W19871  18.189  23.241  16.016 -0.2940 -0.0744  0.1048
76955W        W19872  17.417  23.254  17.621 -0.4117 -0.1632 -0.1140
76956W        W19873  16.003  23.051  16.395  0.0093  0.2854 -0.0642
76957W        W19874  16.499  23.417  16.522 -0.0268 -0.0261  0.0674
76958W        W19875  15.266  23.081  18.734 -0.3201 -0.0176  0.2895
76959W        W19876  18.158  25.787  18.860  0.0754 -0.2069 -0.1506
76960W        W19877  17.409  25.163  17.924 -0.1871  0.0186 -0.0469
76961W        W19878  16.585  24.238  16.641 -0.2146  0.0365 -0.1751
76962W        W19879  14.965  24.963  15.999  0.0300 -0.1362  0.1091
76963W        W19880  13.852  23.226  18.620 -0.1704 -0.1623 -0.0767
76964W        W19881  14.871  20.305  15.179  0.1577  0.2687 -0.0295
76965W        W19882  12.826  22.113  17.586 -0.4692 -0.2764 -0.2488
76966W        W19883  17.375  27.324  19.215 -0.2249 -0.2181  0.2927
76967W        W19884  13.502  24.716  15.652  0.4768  0.0824 -0.1092
76968W        W19885  14.997  23.167  18.186 -0.1042 -0.0585  0.1158
76969W        W19886  14.500  24.103  15.822  0.2225  0.0849  0.2517
76970W        W19887  14.848  26.261  17.241  0.0354  0.1203  0.0952
76971W        W19888  17.079  22.255  19.576 -0.1777 -0.1545 -0.1825
76972W        W19889  18.124  23.322  20.158  0.1579  0.1661 -0.1099
76973W        W19890  15.018  26.221  16.773 -0.0816 -0.2962 -0.0360
76974W        W19891  14.737  23.547  15.110 -0.1384  0.1495  0.0435
76975W        W19892  13.963  25.698  17.228 -0.0584  0.0521  0.0581
76976W        W19893  14.042  23.294  19.187  0.0174 -0.0057 -0.0069
76977W        W19894  15.780  22.683  16.653 -0.1419 -0.2978  0.0589
76978W        W19895  16.648  25.176  17.155  0.0072  0.0075 -0.0634
76979W        W19896  15.660  27.609  18.720 -0.0935  0.1243  0.1316
76980W        W19897  16.102  24.319  17.875  0.0609  0.1456  0.0138
76981W        W19898  16.094  23.517  19.427  0.2788  0.1236  0.2394
76982W        W19899  13.461  25.390  15.157 -0.1605  0.4181  0.1721
76983W        W19900  14.628  24.162  17.042 -0.1875 -0.2829 -0.0130
76984W        W19901  15.369  26.545  16.748 -0.0398 -0.0158  0.0584
76985W        W19902  17.916  23.829  16.632  0.0703 -0.0493  0.1292
76986W        W19903  16.055  26.362  18.000 -0.1727  0.0043 -0.0789
76987W        W19904  14.762  24.824  17.719  0.1527  0.1657 -0.3511
76988W        W19905  15.819  26.158  15.941 -0.1371  0.1566  0.2633
76989W        W19906  15.068  25.191  17.619 -0.1068  0.0321  0.0882
76990W        W19907  14.752  23.558  19.950  0.2240  0.1958 -0.2092
76991W        W19908  14.009  24.853  18.955  0.0486 -0.1634  0.1568
76992W        W19909  16.039  23.539  15.434  0.0077  0.5286 -0.1132
76993W        W19910  14.667  25.527  15.888 -0.2056  0.2347 -0.1617
76994W        W19911  14.264  22.365  17.349 -0.2596  0.2408  0.0107
76995W        W19912  14.412  24.495  16.725 -0.2107 -0.1779  0.1348
76996W        W19913  15.846  26.682  18.322 -0.1209 -0.0212  0.1584
76997W        W19914  21.337  22.926  18.820 -0.0241  0.0787  0.0053
76998W        W19915  16.120  26.028  15.425 -0.2154  0.1551  0.0140
76999W        W19916  17.046  22.870  16.495 -0.2966  0.2032 -0.0769
77000W        W19917  15.100  23.238  16.394 -0.1437 -0.1256 -0.2356
77001W        W19918  15.900  23.180  15.805  0.0239 -0.0197  0.3023
77002W        W19919  16.513  22.516  17.890 -0.0462  0.2071  0.0145
77003W        W19920  13.988  26.235  16.588 -0.1011 -0.0774  0.2985
77004W        W19921  15.828  22.004  17.885 -0.0926  0.3637 -0.3069
77005W        W19922  19.316  26.021  20.701 -0.0478 -0.0962 -0.3048
77006W        W19923  15.560  22.682  15.744  0.0407  0.1320 -0.0138
77007W        W19924  19.179  22.721  19.898 -0.0913  0.2225 -0.0706
77008W        W19925  14.061  24.301  17.740 -0.2509 -0.3902 -0.0665
77009W        W19926  14.608  22.882  16.564  0.0291 -0.0163 -0.1424
77010W        W19927  15.967  26.538  15.666 -0.0768  0.2080  0.1462
77011W        W19928  14.789  25.256  16.365  0.1381 -0.2391  0.0170
77012W        W19929  16.599  24.285  17.149 -0.2912  0.1493  0.1649
77013W        W19930  13.042  24.602  15.422 -0.4227 -0.2840 -0.0339
77014W        W19931  13.714  25.056  17.982 -0.1175 -0.0983  0.2042
77015W        W19932  15.564  23.001  17.644  0.0406 -0.0107 -0.0319
77016W        W19933  14.997  22.610  15.186 -0.2246 -0.1956  0.0959
77017W        W19934  19.080  24.965  20.773 -0.1583  0.0757  0.2311
77018W        W19935  15.627  26.704  19.283 -0.0640 -0.4773  0.0554
77019W        W19936  17.441  24.021  16.925  0.1469 -0.1188  0.2000
77020W        W19937  14.868  23.699  16.616  0.0279 -0.0148  0.2525
77021W        W19938  18.110  26.230  17.206 -0.0510 -0.1461 -0.1417
77022W        W19939  17.882  25.265  18.010 -0.0339 -0.3594  0.1366
77023W        W19940  18.700  22.890  17.154  0.4109 -0.0491 -0.3083
77024W        W19941  14.408  23.564  17.800  0.1828 -0.0207  0.1604
77025W        W19942  15.624  25.178  16.165  0.0815 -0.1400  0.2711
77026W        W19943  14.524  22.926  15.291  0.0172 -0.2008 -0.1014
77027W        W19944  18.314  26.676  17.008 -0.2767  0.1698  0.2102
77028W        W19945  17.245  22.447  18.087  0.0190  0.0631 -0.1809
77029W        W19946  16.161  24.315  16.960  0.2682  0.1278 -0.4590
77030W        W19947  15.506  22.824  16.237 -0.0421  0.0196 -0.1297
77031W        W19948  17.027  24.076  17.261  0.1063 -0.2556 -0.0085
77032W        W19949  14.362  25.897  15.470  0.1262 -0.1845 -0.0295
77033W        W19950  13.007  23.885  15.999  0.0661 -0.0009  0.2298
77034W        W19951  12.355  24.781  16.334  0.0111  0.2047  0.1978
77035W        W19952  13.272  23.562  18.110  0.1652 -0.0523 -0.0760
77036W        W19953  13.759  24.903  18.451  0.2296 -0.0124  0.1302
77037W        W19954  16.387  22.357  15.697  0.1387 -0.3339 -0.3229
77038W        W19955  14.063  21.427  16.484 -0.0945 -0.0455  0.2918
77039W        W19956  14.912  22.581  16.865 -0.0136  0.0174 -0.4236
77040W        W19957  14.388  24.744  18.651 -0.3020  0.1582 -0.0644
77041W        W19958  16.533  27.750  18.578  0.2704  0.1807 -0.2171
77042W        W19959  18.759  23.578  18.510  0.0160  0.0366 -0.0112
77043W        W19960  15.637  25.799  15.306 -0.1025 -0.2059 -0.1862
77044W        W19961  14.498  24.009  17.895 -0.0824  0.3441  0.1151
77045W        W19962  15.555  23.281  17.232  0.1603  0.2982  0.0450
77046W        W19963  13.698  21.918  17.661  0.1482  0.2005  0.0858
77047W        W19964  14.459  22.830  17.116 -0.2618 -0.0467 -0.0745
77048W        W19965  19.673  21.936  18.663 -0.2479  0.0626 -0.1742
77049W        W19966  15.505  22.207  15.696 -0.0436 -0.6161 -0.0442
77050W        W19967  15.989  22.039  16.607  0.3618  0.2348  0.0887
77051W        W19968  15.354  24.513  15.334  0.3858 -0.2585  0.4070
77052W        W19969  14.618  23.735  14.485 -0.0248  0.0891 -0.1201
77053W        W19970  19.903  22.884  18.982  0.0721  0.1159 -0.2470
77054W        W19971  16.205  25.567  16.451 -0.2387 -0.0317  0.2320
77055W        W19972  15.315  25.792  17.595 -0.0145  0.0939  0.0662
77056W        W19973  18.535  24.993  17.989  0.0468  0.1729 -0.1727
77057W        W19974  17.552  22.407  17.086 -0.2251 -0.0371 -0.0400
77058W        W19975  14.136  22.271  15.892 -0.1136  0.1090 -0.2095
77059W        W19976  15.742  26.056  18.973  0.0347 -0.3697  0.0960
77060W        W19977  15.758  23.175  16.782  0.3031  0.0275  0.0558
77061W        W19978  14.805  23.844  16.129 -0.1811  0.0131  0.2484
77062W        W19979  16.521  26.278  18.023  0.2636 -0.1517  0.0369
77063W        W19980  15.670  23.851  16.026 -0.1723 -0.2110 -0.1611
77064W        W19981  14.120  23.781  18.683  0.1067  0.2153  0.4925
77065W        W19982  17.072  23.340  20.661 -0.1105  0.3575 -0.0526
77066W        W19983  17.245  25.653  17.422 -0.0173  0.1184  0.0958
77067W        W19984  17.110  22.978  17.879  0.3478  0.2156 -0.2512
77068W        W19985  16.224  22.450  16.468  0.2357 -0.0349  0.0114
77069W        W19986  15.225  24.681  16.305 -0.1040  0.1165 -0.2748
77070W        W19987  14.424  25.598  17.356 -0.0159  0.3951  0.2245
77071W        W19988  14.917  24.859  19.613 -0.2181  0.1201  0.3619
77072W        W19989  16.930  24.772  17.249 -0.2796  0.3570  0.3016
77073W        W19990  17.530  24.021  18.177  0.2061  0.0769 -0.1543
77074W        W19991  14.619  22.944  18.448 -0.1445 -0.2699 -0.2644
77075W        W19992  15.837  24.067  18.370  0.4718 -0.0479 -0.2318
77076W        W19993  13.387  23.657  17.595  0.0114 -0.2847  0.0932
77077W        W19994  14.475  24.527  17.978  0.2352 -0.0128 -0.1644
77078W        W19995  17.714  23.369  18.240  0.0647  0.1392  0.2579
77079W        W19996  17.347  22.777  15.314  0.1034 -0.1313 -0.1017
77080W        W19997  17.741  26.659  19.988 -0.1169  0.0688 -0.1369
77081W        W19998  16.928  26.219  18.295  0.1789  0.1618  0.3991
77082W        W19999  17.776  23.074  17.254 -0.1859 -0.0135  0.1869
77083W        W20000  16.538  23.555  17.824  0.0450  0.0767  0.3477
77084W        W20001  14.200  26.491  18.422 -0.1538 -0.5032 -0.0048
77085W        W20002  16.136  23.996  15.024 -0.1049 -0.1201 -0.0441
77086W        W20003  16.965  23.223  19.307 -0.0308  0.1329  0.2264
77087W        W20004  14.224  24.502  16.224  0.1613  0.1523  0.2894
77088W        W20005  17.263  26.774  16.660  0.1590 -0.0684 -0.0926
77089W        W20006  13.496  26.560  16.364  0.0278  0.0286 -0.0551
77090W        W20007  18.353  25.476  16.883  0.2653  0.2331  0.1139
77091W        W20008  16.492  24.651  17.472  0.2077 -0.0237  0.2417
77092W        W20009  16.025  23.304  17.909  0.1909 -0.1692  0.1228
77093W        W20010  16.101  23.723  15.859 -0.2474  0.0561 -0.0965
77094W        W20011  17.913  24.609  17.282  0.0950 -0.0839  0.1064
77095W        W20012  13.828  26.699  15.240 -0.0479 -0.1392  0.1827
77096W        W20013  17.906  22.381  17.416  0.0928 -0.1789 -0.1080
77097W        W20014  16.971  22.070  17.006 -0.2624 -0.0830 -0.0200
77098W        W20015  13.835  22.219  19.014  0.1245 -0.2869 -0.4298
77099W        W20016  18.397  22.536  20.641  0.0335 -0.1310 -0.2179
77100W        W20017  17.196  23.910  17.762 -0.0811 -0.2769 -0.1952
77101W        W20018  17.589  24.220  20.100  0.2603  0.0122  0.0734
77102W        W20019  15.517  23.204  14.885  0.0587 -0.0416  0.1570
77103W        W20020  15.963  24.495  17.468 -0.0815 -0.0994  0.1030
77104W        W20021  13.805  23.854  17.720 -0.2476 -0.0655 -0.3057
77105W        W20022  16.085  26.400  19.300  0.0441  0.0486 -0.0442
77106W        W20023  17.549  23.135  20.539  0.2366  0.1679  0.0114
77107W        W20024  17.425  25.913  18.451  0.0108  0.1605 -0.1912
77108W        W20025  14.496  22.971  19.141  0.1107 -0.2503 -0.0773
77109W        W20026  15.671  22.334  16.985 -0.0611  0.1786 -0.0844
77110W        W20027  14.682  25.781  16.698 -0.4093  0.0393 -0.3431
77111W        W20028  13.915  24.881  16.331  0.0142  0.0913  0.0086
77112W        W20029  16.191  22.618  18.798 -0.1912  0.2791 -0.1024
77113W        W20030  14.555  24.675  17.179  0.1033 -0.0094  0.0747
77114W        W20031  15.710  26.441  16.384 -0.1968  0.1698 -0.1055
77115W        W20032  17.941  23.636  17.315 -0.1121 -0.0875 -0.0112
77116W        W20033  15.245  26.328  16.238  0.0461 -0.2549  0.1062
77117W        W20034  18.587  22.785  16.675 -0.0271 -0.1050  0.5803
77118W        W20035  14.174  25.059  18.226 -0.0058  0.1564  0.1421
77119W        W20036  15.152  23.538  14.583 -0.0558 -0.2458  0.0937
77120W        W20037  13.164  23.783  15.038  0.0265 -0.1583  0.3136
77121W        W20038  18.005  20.709  17.355  0.2728  0.0425 -0.1599
77122W        W20039  18.038  24.764  16.809  0.0165  0.1305 -0.3045
77123W        W20040  16.654  21.562  19.660  0.2179  0.1304 -0.2032
77124W        W20041  16.028  24.110  16.395 -0.0866  0.0173  0.2057
77125W        W20042  14.217  25.843  19.214 -0.2757 -0.0512  0.1749
77126W        W20043  18.665  24.783  17.528 -0.0569 -0.2122  0.0610
77127W        W20044  17.000  23.400  16.663  0.3870  0.0522  0.1237
77128W        W20045  15.392  23.583  16.707  0.0755  0.1597 -0.1207
77129W        W20046  12.840  23.812  18.880 -0.4481 -0.1012  0.0959
77130W        W20047  14.474  22.452  15.236 -0.0328  0.1139  0.1186
77131W        W20048  18.702  20.898  17.371  0.1563  0.1397 -0.1786
77132W        W20049  14.363  23.734  16.858 -0.3090  0.0185  0.1139
77133W        W20050  15.027  27.314  16.524  0.3413  0.0576 -0.2813
77134W        W20051  17.538  24.816  17.558 -0.0369  0.0792  0.1069
77135W        W20052  13.959  24.954  15.776 -0.1239  0.1971 -0.0048
77136W        W20053  15.234  26.550  15.052 -0.1036 -0.0069  0.0063
77137W        W20054  17.792  24.428  18.312 -0.0130  0.0679  0.1280
77138W        W20055  17.647  25.426  19.615 -0.1491  0.1031  0.0786
77139W        W20056  13.964  24.062  15.815 -0.1294 -0.0221  0.2346
77140W        W20057  15.631  21.792  16.055  0.1040  0.1587  0.2949
77141W        W20058  17.046  22.654  17.163  0.1570  0.2397  0.2850
77142W        W20059  17.283  26.865  18.900 -0.0558 -0.0445 -0.1461
77143W        W20060  17.196  22.384  16.687  0.1376 -0.1847  0.0571
77144W        W20061  17.523  24.076  19.274 -0.2624 -0.3315 -0.0693
77145W        W20062  15.087  20.558  17.610 -0.0770  0.0025 -0.1113
77146W        W20063  19.177  24.728  16.814  0.1424 -0.0332  0.0878
77147W        W20064  17.067  24.249  18.110 -0.0871 -0.2671  0.0562
77148W        W20065  14.870  24.994  16.812 -0.1831  0.3337  0.0922
77149W        W20066  14.344  25.361  17.776 -0.1147 -0.1718  0.3188
77150W        W20067  15.143  25.415  16.029  0.1540  0.3281 -0.2555
77151W        W20068  16.853  23.017  17.424 -0.0971  0.1014 -0.1121
77152W        W20069  13.743  25.921  19.289 -0.1476 -0.1330 -0.1833
77153W        W20070  13.595  24.490  16.429 -0.2228 -0.3739  0.0504
77154W        W20071  13.541  24.556  18.917 -0.0630  0.0084 -0.3746
77155W        W20072  19.272  22.683  15.990 -0.0320  0.0413 -0.0636
77156W        W20073  17.529  23.473  15.523  0.2959 -0.0815  0.1897
77157W        W20074  17.482  22.708  17.548 -0.2367  0.0862 -0.1266
77158W        W20075  17.414  23.478  18.663 -0.3370 -0.1343 -0.0488
77159W        W20076  15.353  23.141  15.804  0.0075 -0.1755 -0.1441
77160W        W20077  16.839  24.247  18.540 -0.0668  0.2110 -0.3308
77161W        W20078  16.504  23.695  18.548  0.4343 -0.3741 -0.2228
77162W        W20079  17.028  26.817  16.241 -0.1098  0.3183  0.0883
77163W        W20080  13.976  23.058  15.441 -0.1080 -0.2753 -0.0063
77164W        W20081  18.331  25.739  19.757 -0.1187  0.0465 -0.3206
77165W        W20082  14.831  22.562  18.130 -0.0459 -0.0035 -0.4051
77166W        W20083  16.613  23.581  15.784 -0.2735  0.2099  0.0884
77167W        W20084  14.907  24.370  16.065 -0.1501 -0.0524 -0.0431
77168W        W20085  15.320  24.277  18.211  0.2181 -0.0102 -0.1723
77169W        W20086  16.604  24.317  17.924 -0.1485  0.1589  0.1374
77170W        W20087  17.312  25.298  16.639 -0.0011 -0.3052 -0.0577
77171W        W20088  18.291  23.351  19.685  0.3191  0.0008  0.3155
77172W        W20089  12.925  24.472  16.271 -0.3490  0.0668 -0.0149
77173W        W20090  16.556  23.821  16.982  0.0451 -0.1969 -0.1778
77174W        W20091  13.587  25.886  17.721 -0.1739 -0.4415 -0.2698
77175W        W20092  14.383  25.117  16.066 -0.0395 -0.1168  0.2352
77176W        W20093  18.187  24.874  18.375 -0.0398  0.1887 -0.1446
77177W        W20094  18.722  25.492  18.103 -0.1176  0.0062 -0.1175
77178W        W20095  16.217  22.984  16.846 -0.2531  0.0677  0.0256
77179W        W20096  19.123  23.580  19.564 -0.2476  0.0931  0.0845
77180W        W20097  17.541  23.139  19.038  0.0631 -0.0943  0.1329
77181W        W20098  14.815  24.411  18.342 -0.1421  0.2080  0.2152
77182W        W20099  16.153  24.225  21.098 -0.3232  0.0632  0.1601
77183W        W20100  17.826  25.253  16.769 -0.3388  0.1271  0.0044
77184W        W20101  17.984  22.360  16.159 -0.0168  0.3171  0.0167
77185W        W20102  16.863  23.237  16.171  0.0959 -0.2122  0.1727
77186W        W20103  17.679  24.820  16.510 -0.0322  0.1846 -0.1515
77187W        W20104  17.256  23.134  18.318 -0.0710 -0.1062 -0.0037
77188W        W20105  15.918  22.240  15.399 -0.1071 -0.1838 -0.1718
77189W        W20106  18.073  24.081  18.012 -0.0644  0.1863  0.0292
77190W        W20107  16.020  25.048  16.432  0.2080  0.1524  0.0145
77191W        W20108  17.724  21.102  16.890  0.0527 -0.2730 -0.3415
77192W        W20109  15.635  24.528  16.546 -0.3989  0.2233  0.1272
77193W        W20110  17.329  23.199  16.213 -0.0288  0.0342  0.0118
77194W        W20111  15.144  24.000  16.956  0.0930 -0.2313 -0.0641
77195W        W20112  13.608  23.860  15.331  0.0686 -0.1514  0.4490
77196W        W20113  14.679  25.635  19.057  0.0551  0.3086 -0.2487
77197W        W20114  15.157  24.272  14.985  0.0971 -0.0553  0.0042
77198W        W20115  16.723  24.818  16.378  0.1577  0.0468  0.0339
77199W        W20116  16.612  23.939  17.500  0.2757 -0.0223  0.3224
77200W        W20117  15.766  24.377  19.902 -0.1728 -0.1228  0.1020
77201W        W20118  17.954  21.981  15.503 -0.0994 -0.0859  0.1407
77202W        W20119  18.283  21.805  19.177 -0.2376 -0.2030  0.1189
77203W        W20120  14.918  25.802  16.274 -0.1749  0.2208  0.0989
77204W        W20121  16.423  21.421  18.010 -0.2536  0.0094  0.1602
77205W        W20122  15.699  23.405  18.716 -0.0421 -0.0849 -0.2228
77206W        W20123  13.174  26.128  20.152 -0.3032  0.0868  0.0939
77207W        W20124  16.153  24.585  16.539  0.0436  0.3437  0.0854
77208W        W20125  18.593  24.833  20.643  0.1456  0.1040 -0.2213
77209W        W20126  19.136  22.054  18.506 -0.0821 -0.2188 -0.0315
77210W        W20127  16.511  23.836  16.234 -0.0123 -0.1642  0.1233
77211W        W20128  16.539  22.497  20.989  0.1729  0.2672 -0.3490
77212W        W20129  17.238  23.555  18.119 -0.2435  0.1632  0.1224
77213W        W20130  14.341  25.540  16.328 -0.0516  0.0391 -0.1778
77214W        W20131  16.843  24.927  17.773 -0.1794  0.0711  0.1730
77215W        W20132  16.581  26.058  16.545 -0.4447 -0.2112 -0.2444
77216W        W20133  17.950  24.115  17.038 -0.0332  0.1416  0.0053
77217W        W20134  13.373  21.492  19.469  0.2013  0.3990  0.0680
77218W        W20135  15.692  23.985  17.706 -0.0118  0.1181 -0.4212
77219W        W20136  16.661  23.424  17.224 -0.1267 -0.2433  0.0537
77220W        W20137  16.054  19.935  16.533 -0.1150  0.2604  0.1107
77221W        W20138  16.334  23.285  16.050 -0.1637  0.3231  0.0674
77222W        W20139  15.051  24.328  20.122 -0.0543  0.0121 -0.1008
77223W        W20140  14.366  22.689  16.166 -0.0708 -0.0161  0.0041
77224W        W20141  15.030  26.364  15.812  0.0512  0.3054 -0.0042
77225W        W20142  16.475  24.004  15.529 -0.1588 -0.1384 -0.1457
77226W        W20143  15.246  23.632  16.125  0.1030 -0.2774 -0.0353
77227W        W20144  16.887  26.565  19.030 -0.3496  0.2325  0.1381
77228W        W20145  15.639  24.226  16.921 -0.1738  0.0410  0.1098
77229W        W20146  15.011  24.314  17.346 -0.0411  0.1058 -0.1105
77230W        W20147  13.235  23.206  15.023 -0.1919 -0.1487  0.1945
77231W        W20148  18.868  24.452  17.175 -0.0132 -0.2530 -0.0145
77232W        W20149  16.051  26.855  17.702  0.0769  0.1868  0.1676
77233W        W20150  18.578  23.431  18.036  0.2390 -0.2328 -0.0994
77234W        W20151  17.764  21.938  15.938 -0.3499  0.3299  0.2179
77235W        W20152  18.587  22.684  18.132 -0.1498 -0.1048  0.2831
77236W        W20153  17.156  23.671  16.070  0.1561 -0.0503 -0.2975
77237W        W20154  18.421  26.097  17.936  0.2881  0.0766  0.0358
77238W        W20155  13.292  25.539  17.364  0.1034  0.3428 -0.1998
77239W        W20156  16.006  22.734  15.479 -0.0186 -0.2586 -0.3311
77240W        W20157  15.426  23.142  19.560 -0.0466  0.0779 -0.2254
77241W        W20158  19.449  22.780  18.861 -0.0008  0.1510  0.2959
77242W        W20159  11.781  23.464  18.913  0.2394  0.2165  0.2866
77243W        W20160  19.531  24.487  17.121  0.1279 -0.0434  0.4090
77244W        W20161  14.504  21.859  15.154 -0.0458  0.1450 -0.2266
77245W        W20162  12.516  25.710  18.522 -0.2260  0.1431  0.0797
77246W        W20163  16.154  22.422  16.967 -0.2785 -0.2391 -0.0602
77247W        W20164  16.085  24.309  15.891  0.0645 -0.2753  0.0385
77248W        W20165  17.226  24.749  18.028  0.3145 -0.0445 -0.2706
77249W        W20166  14.629  25.139  17.351 -0.2518 -0.0798  0.1827
77250W        W20167  15.903  23.543  17.474 -0.4058 -0.1683 -0.1377
77251W        W20168  14.114  25.144  19.739  0.4003  0.4355  0.3706
77252W        W20169  14.845  23.231  15.499 -0.4701  0.3753  0.2112
77253W        W20170  18.189  23.122  16.926  0.0536  0.0945  0.3683
77254W        W20171  14.924  24.206  15.569  0.3206 -0.2382 -0.1370
77255W        W20172  16.160  22.706  16.006 -0.0117  0.3259  0.0599
77256W        W20173  16.747  23.009  16.897  0.0634  0.0077 -0.1895
77257W        W20174  16.228  23.455  16.933 -0.2686 -0.0573  0.1718
77258W        W20175  17.951  22.620  18.320 -0.3317  0.1861 -0.2685
77259W        W20176  15.507  23.870  17.246 -0.0557  0.0509  0.0715
77260W        W20177  16.051  23.614  16.377 -0.0042 -0.0904  0.0179
77261W        W20178  18.217  25.112  17.671  0.1467  0.1341 -0.3846
77262W        W20179  16.892  22.971  15.328 -0.1300 -0.3103 -0.2483
77263W        W20180  17.928  24.719  17.896  0.4729  0.2636 -0.0141
77264W        W20181  16.086  21.096  17.707 -0.2623 -0.0485 -0.0307
77265W        W20182  17.827  23.285  16.396  0.0648  0.0173 -0.6148
77266W        W20183  13.707  26.096  16.998  0.0178 -0.0751 -0.3821
77267W        W20184  15.374  25.085  16.603  0.0099 -0.4521 -0.1074
77268W        W20185  18.646  25.430  16.471 -0.2991 -0.0597 -0.1680
77269W        W20186  14.410  21.936  15.659 -0.1038 -0.2465  0.5218
77270W        W20187  17.967  26.026  16.264  0.2164 -0.1277 -0.0200
77271W        W20188  19.923  22.049  17.266  0.2069 -0.0984  0.1501
77272W        W20189  15.712  25.336  17.057 -0.2240 -0.0704  0.0069
77273W        W20190  18.930  26.039  17.824 -0.2886 -0.0160 -0.0224
77274W        W20191  16.691  25.608  17.435 -0.0512  0.2257  0.1575
77275W        W20192  14.180  22.959  17.547  0.2873  0.1353 -0.1420
77276W        W20193  15.523  25.311  18.891 -0.1220 -0.2705 -0.0714
77277W        W20194  15.026  24.809  17.304  0.0930  0.0767 -0.2306
77278W        W20195  14.525  24.331  17.535 -0.0735 -0.2724  0.1463
77279W        W20196  16.927  25.260  18.845  0.2588 -0.0492 -0.4061
77280W        W20197  13.842  25.530  18.010 -0.1161  0.0251  0.1324
77281W        W20198  18.600  25.678  17.661  0.0178 -0.0374 -0.2925
77282W        W20199  16.796  23.835  18.143 -0.0395 -0.3007  0.1274
77283W        W20200  15.367  26.193  17.238  0.1506 -0.1336  0.2717
77284W        W20201  17.546  19.912  17.938 -0.1416  0.1116  0.0843
77285W        W20202  17.051  23.680  18.999  0.3146  0.1192  0.0276
77286W        W20203  16.949  25.871  20.183 -0.1461  0.3189  0.1056
77287W        W20204  13.450  24.958  16.089  0.0393 -0.0459 -0.3486
77288W        W20205  15.498  24.856  18.495 -0.3952  0.0680  0.1305
77289W        W20206  16.787  25.240  16.599 -0.1354  0.0325  0.3515
77290W        W20207  15.778  26.736  16.942 -0.1280  0.1450 -0.0874
77291W        W20208  16.961  25.430  17.843 -0.0778  0.1332 -0.1441
77292W        W20209  17.562  21.955  17.277  0.3210  0.3625  0.0499
77293W        W20210  17.739  23.280  15.905 -0.2904  0.0200  0.0364
77294W        W20211  15.252  21.403  17.856  0.1735 -0.5090 -0.0545
77295W        W20212  18.339  23.912  17.322 -0.0326 -0.1204 -0.2244
77296W        W20213  16.192  20.132  15.895 -0.0479  0.4522  0.2620
77297W        W20214  15.153  25.296  17.118 -0.0407  0.0626 -0.4072
77298W        W20215  12.458  23.438  16.612  0.0918  0.3635  0.1466
77299W        W20216  12.825  24.127  16.992 -0.1533 -0.1263 -0.1168
77300W        W20217  14.945  26.734  17.104 -0.1140  0.4221 -0.4785
77301W        W20218  17.274  21.981  18.378  0.1465 -0.2850  0.0935
77302W        W20219  14.148  25.279  22.057 -0.1429  0.2067  0.4010
77303W        W20220  15.842  23.757  16.873 -0.1202 -0.2987 -0.1883
77304W        W20221  15.304  24.140  19.277  0.1415 -0.1141  0.0916
77305W        W20222  18.690  24.052  17.668 -0.0768 -0.0661 -0.0954
77306W        W20223  15.487  24.431  17.320  0.2198  0.0652  0.2246
77307W        W20224  15.480  21.316  16.001 -0.0328 -0.2059 -0.2455
77308W        W20225  17.930  24.346  16.451 -0.0980  0.2160 -0.1986
77309W        W20226  17.218  26.831  17.473  0.0337 -0.1035  0.1884
77310W        W20227  14.890  22.082  15.398  0.1935  0.2402  0.2440
77311W        W20228  19.360  25.786  16.955  0.1142  0.1935 -0.0391
77312W        W20229  12.606  25.072  15.983  0.2592 -0.0825  0.2214
77313W        W20230  16.292  25.036  18.419  0.0838 -0.1422  0.3267
77314W        W20231  16.560  23.475  19.040  0.2255 -0.0131 -0.5018
77315W        W20232  12.278  20.963  16.240  0.0581  0.0136  0.0169
77316W        W20233  15.211  24.206  16.489 -0.3764  0.0030  0.2577
77317W        W20234  15.582  24.937  15.673  0.0354  0.2069 -0.1745
77318W        W20235  17.366  25.824  16.697 -0.0735  0.2329 -0.4127
77319W        W20236  16.211  25.304  16.889 -0.1657  0.2912 -0.2144
77320W        W20237  14.646  24.548  19.270 -0.0428  0.0695 -0.0233
77321W        W20238  13.697  22.746  18.773 -0.0264  0.4061  0.1859
77322W        W20239  17.333  24.498  17.238 -0.0764  0.2298 -0.1754
77323W        W20240  14.914  23.428  18.732 -0.2090 -0.0140  0.0985
77324W        W20241  16.967  24.418  17.618 -0.1651 -0.0620 -0.2749
77325W        W20242  16.244  24.397  18.353 -0.2268  0.1200 -0.1818
77326W        W20243  14.004  25.238  16.655  0.0276 -0.2218  0.2980
77327W        W20244  13.465  21.980  19.325 -0.1397 -0.0761  0.0457
77328W        W20245  12.936  24.034  17.833 -0.2490 -0.0951 -0.1081
77329W        W20246  18.937  24.527  17.846 -0.0342  0.1361  0.1324
77330W        W20247  15.651  20.529  16.721 -0.1766  0.1049  0.1894
77331W        W20248  16.990  23.503  17.642 -0.0990  0.3330 -0.0841
77332W        W20249  16.461  25.231  16.168  0.2641 -0.2106  0.3004
77333W        W20250  14.103  23.636  18.170 -0.0129  0.2008 -0.0450
77334W        W20251  17.602  24.043  17.393 -0.0084 -0.0025 -0.1447
77335W        W20252  14.391  26.014  18.624 -0.0392 -0.0527 -0.1063
77336W        W20253  15.664  25.444  16.594 -0.0080  0.0481 -0.1535
77337W        W20254  17.574  23.603  19.116 -0.0967 -0.2627  0.3168
77338W        W20255  15.705  23.705  15.161  0.0966  0.2349 -0.1889
77339W        W20256  15.905  24.795  16.938  0.1818 -0.1441  0.3551
77340W        W20257  17.262  26.380  17.014  0.0568 -0.4777  0.0885
77341W        W20258  20.039  25.137  18.275 -0.1982 -0.0782  0.0650
77342W        W20259  15.706  25.407  17.563 -0.1000 -0.0221  0.0696
77343W        W20260  17.892  23.252  17.762 -0.1045  0.0364  0.0370
77344W        W20261  15.360  24.070  19.808 -0.0058 -0.3527 -0.1127
77345W        W20262  15.289  24.088  15.883 -0.0411  0.0618 -0.0949
77346W        W20263  14.387  24.988  16.540 -0.0308 -0.1755  0.1834
77347W        W20264  18.652  24.840  19.495  0.2387 -0.2352  0.1436
77348W        W20265  13.028  23.716  17.221  0.0366 -0.3192 -0.0661
77349W        W20266  16.163  22.266  17.482  0.1423  0.1778 -0.2729
77350W        W20267  14.916  24.342  17.866  0.0065  0.0858  0.2006
77351W        W20268  18.014  24.454  19.980  0.0139 -0.4000 -0.1676
77352W        W20269  15.383  23.973  22.633 -0.1103 -0.0632  0.0777
77353W        W20270  13.726  20.941  17.457 -0.0270  0.1464 -0.4599
77354W        W20271  18.849  22.860  19.073  0.2375  0.0682  0.4472
77355W        W20272  16.967  23.801  20.630 -0.0148  0.0557 -0.3091
77356W        W20273  15.239  22.765  19.187  0.1402 -0.0289  0.1553
77357W        W20274  14.791  24.046  19.821  0.0871 -0.3651  0.1081
77358W        W20275  14.886  22.637  21.720 -0.2337  0.1358 -0.2743
77359W        W20276  15.630  24.588  21.260 -0.2374 -0.0914  0.1160
77360W        W20277  17.336  28.119  21.878 -0.1171  0.3282 -0.0891
77361W        W20278  15.843  24.969  17.831 -0.1146 -0.2032 -0.0845
77362W        W20279  16.032  23.236  22.505  0.1780 -0.0537 -0.1841
77363W        W20280  16.400  26.166  21.499  0.1599 -0.0094 -0.2858
77364W        W20281  14.537  24.170  21.305 -0.3903  0.0289 -0.2677
77365W        W20282  12.496  20.493  20.644  0.2467 -0.0816  0.0067
77366W        W20283  18.308  24.638  22.513 -0.0421  0.0713 -0.3072
77367W        W20284  13.863  22.361  18.476  0.1719 -0.0378  0.0000
77368W        W20285  14.682  22.343  21.062 -0.4427 -0.3201 -0.0757
77369W        W20286  15.572  24.732  18.979  0.0455  0.0128 -0.1076
77370W        W20287  13.700  29.116  23.019 -0.4060 -0.1506  0.3097
77371W        W20288  15.212  22.825  20.513 -0.1986  0.2069 -0.0985
77372W        W20289  17.015  20.704  20.405  0.1686  0.2708  0.2861
77373W        W20290  17.669  24.985  18.317 -0.2247 -0.0524 -0.4120
77374W        W20291  13.340  24.719  20.284 -0.2921  0.1996  0.0736
77375W        W20292  16.093  23.785  23.166 -0.1712  0.0462  0.2412
77376W        W20293  14.187  23.178  19.652  0.1294  0.2328  0.1604
77377W        W20294  17.944  22.237  19.447 -0.0472 -0.0222  0.0528
77378W        W20295  15.318  26.667  19.959 -0.3479  0.0659 -0.0175
77379W        W20296  15.322  24.714  21.718  0.0542 -0.2711  0.1196
77380W        W20297  15.744  25.197  22.204  0.1832 -0.1088  0.2058
77381W        W20298  16.211  24.520  22.530  0.0516  0.0298  0.3715
77382W        W20299  15.059  24.395  19.609  0.2231 -0.2345 -0.2286
77383W        W20300  16.275  26.488  21.104  0.1890  0.0723  0.0924
77384W        W20301  14.565  25.689  19.581  0.0607 -0.0054 -0.1541
77385W        W20302  17.137  25.451  20.312  0.2676 -0.0368 -0.0404
77386W        W20303  18.258  25.451  21.755 -0.0316 -0.0892  0.1175
77387W        W20304  14.049  24.439  23.252  0.0251  0.2236 -0.0109
77388W        W20305  15.404  24.741  16.941  0.1556 -0.2139 -0.0311
77389W        W20306  14.408  22.447  22.922  0.0139 -0.1048  0.1287
77390W        W20307  12.972  26.659  21.920  0.1140 -0.0633  0.0690
77391W        W20308  14.614  22.310  22.052  0.0171 -0.0966 -0.2232
77392W        W20309  17.025  24.113  19.473 -0.1411 -0.2152 -0.1423
77393W        W20310  18.285  23.612  17.711  0.0038 -0.1786  0.5149
77394W        W20311  17.839  24.811  20.940  0.2636  0.0234  0.1123
77395W        W20312  17.888  23.804  21.867  0.1751  0.2975 -0.0734
77396W        W20313  12.656  25.791  22.021 -0.1842  0.2842 -0.2435
77397W        W20314  16.551  21.339  20.963 -0.3649  0.4518  0.1652
77398W        W20315  14.189  25.275  19.168 -0.2634 -0.2675  0.1910
77399W        W20316  17.004  24.287  20.806  0.0620  0.0608  0.5203
77400W        W20317  14.785  22.978  20.834 -0.1616  0.1754 -0.1982
77401W        W20318  14.855  23.895  18.299  0.1833 -0.3048  0.1538
77402W        W20319  17.071  23.180  19.940  0.0219  0.1233  0.0613
77403W        W20320  15.943  26.008  19.584 -0.1076 -0.0744  0.0209
77404W        W20321  16.321  24.595  20.125  0.1175  0.2217  0.0186
77405W        W20322  17.279  26.877  23.767  0.0822  0.0254  0.0263
77406W        W20323  13.631  23.912  20.176 -0.0215 -0.1359  0.0147
77407W        W20324  16.641  23.435  20.892 -0.1298 -0.2828  0.0314
77408W        W20325  13.722  24.904  20.008 -0.1961 -0.3988 -0.0706
77409W        W20326  12.880  24.486  21.069 -0.2117 -0.1238  0.3031
77410W        W20327  16.508  26.287  19.551 -0.3438 -0.0127  0.0656
77411W        W20328  17.782  26.324  21.944 -0.0750  0.2888 -0.2384
77412W        W20329  15.160  24.763  18.112  0.0405  0.1211  0.0695
77413W        W20330  13.208  23.691  20.568  0.2820 -0.0428 -0.1352
77414W        W20331  15.985  25.394  22.603  0.2527 -0.0937  0.0094
77415W        W20332  12.694  23.800  23.458  0.2882 -0.0238 -0.4422
77416W        W20333  13.116  23.275  17.503  0.2585  0.0662 -0.1499
77417W        W20334  19.125  25.056  22.877 -0.3103  0.1129  0.0856
77418W        W20335  15.307  26.469  22.184  0.1708  0.2764  0.2100
77419W        W20336  18.095  24.301  22.181 -0.1246 -0.0959 -0.3232
77420W        W20337  16.643  25.336  19.843 -0.1144  0.0046 -0.2702
77421W        W20338  18.124  26.563  18.104 -0.2565  0.3249 -0.2537
77422W        W20339  15.557  24.525  17.799  0.3251 -0.1351 -0.1207
77423W        W20340  17.699  23.607  20.393 -0.0768  0.2411  0.1469
77424W        W20341  15.872  21.991  21.373  0.1756  0.1006 -0.0310
77425W        W20342  15.750  24.924  20.851 -0.0693  0.0830 -0.0523
77426W        W20343  16.156  23.850  19.874 -0.0070 -0.0213 -0.0573
77427W        W20344  17.585  26.328  20.975 -0.0091  0.0860 -0.1297
77428W        W20345  18.242  24.695  21.156 -0.1364  0.0224 -0.0478
77429W        W20346  15.925  22.754  21.909 -0.1113  0.1152  0.0350
77430W        W20347  14.437  20.891  21.328  0.3306 -0.2171 -0.0309
77431W        W20348  14.260  25.016  25.140 -0.0338 -0.0379  0.1035
77432W        W20349  15.988  25.571  20.065  0.3190  0.0643  0.1598
77433W        W20350  15.877  25.369  19.599 -0.1481 -0.0833  0.1122
77434W        W20351  16.210  25.311  20.984  0.3546  0.2340 -0.2982
77435W        W20352  14.909  23.188  23.028 -0.1138  0.2120  0.0364
77436W        W20353  15.175  26.091  21.803  0.0434  0.0870 -0.4030
77437W        W20354  18.779  21.492  17.412  0.0243  0.0174 -0.2751
77438W        W20355  14.895  21.120  21.163  0.3297  0.2458  0.0477
77439W        W20356  17.715  23.438  19.912  0.0577  0.0588  0.0336
77440W        W20357  15.163  25.644  18.941 -0.0463  0.1864 -0.4281
77441W        W20358  18.459  26.905  21.055  0.1820 -0.2706 -0.0568
77442W        W20359  17.227  22.499  18.641 -0.0392  0.0149 -0.0323
77443W        W20360  17.408  24.404  17.785  0.0522  0.2621 -0.1184
77444W        W20361  13.632  23.014  22.378  0.2254 -0.1023 -0.0595
77445W        W20362  12.997  23.183  20.072 -0.0235  0.0891 -0.0088
77446W        W20363  15.386  22.795  20.977  0.2414  0.2578  0.1442
77447W        W20364  13.122  22.733  19.788  0.0597  0.0280 -0.0376
77448W        W20365  16.714  22.013  21.147  0.2315  0.3988  0.0162
77449W        W20366  16.777  22.763  18.240  0.0111  0.1370 -0.2196
77450W        W20367  17.946  23.914  19.949  0.0728  0.0492  0.5538
77451W        W20368  17.044  25.781  21.281 -0.2094 -0.1211 -0.0250
77452W        W20369  12.379  23.194  17.691 -0.1429 -0.0106 -0.0880
77453W        W20370  17.078  23.695  21.098  0.2889  0.0891 -0.0481
77454W        W20371  17.970  27.020  20.776 -0.1107  0.2585  0.1009
77455W        W20372  19.665  23.972  22.447 -0.3961  0.0126  0.0187
77456W        W20373  17.266  25.166  19.244 -0.3548  0.4518 -0.1265
77457W        W20374  15.680  22.339  20.815 -0.0707  0.0089 -0.5657
77458W        W20375  14.394  22.711  19.580  0.0695 -0.0463 -0.1674
77459W        W20376  14.920  24.991  21.722 -0.0737  0.2430  0.0272
77460W        W20377  15.538  25.727  21.972 -0.1337  0.0757 -0.2680
77461W        W20378  15.514  22.658  18.046 -0.2993  0.0420  0.2445
77462W        W20379  18.392  26.195  20.236  0.0559 -0.2634  0.0085
77463W        W20380  16.377  23.376  19.905 -0.0393 -0.2787 -0.3510
77464W        W20381  14.807  24.104  22.220 -0.0354  0.4225 -0.0697
77465W        W20382  16.171  24.088  22.372 -0.0608  0.0532 -0.2962
77466W        W20383  14.596  23.857  20.329  0.3437 -0.1032 -0.1239
77467W        W20384  15.794  25.156  21.257 -0.0641 -0.0006 -0.0047
77468W        W20385  15.768  23.902  19.447 -0.1544  0.0972 -0.3973
77469W        W20386  16.694  25.331  20.551  0.0588  0.1335  0.1652
77470W        W20387  14.211  26.329  20.042  0.2539  0.1089 -0.1224
77471W        W20388  13.727  23.634  18.991  0.1390  0.0609 -0.2111
77472W        W20389  14.440  25.171  21.616 -0.0646  0.6370  0.2311
77473W        W20390  14.835  22.068  21.674  0.0628  0.2923  0.1479
77474W        W20391  15.128  22.324  24.333 -0.1719  0.2203  0.4177
77475W        W20392  16.663  24.672  24.201  0.2296  0.0086 -0.1683
77476W        W20393  17.335  24.805  20.097  0.0171 -0.4178  0.1392
77477W        W20394  14.637  24.783  20.578 -0.0528  0.3127  0.0394
77478W        W20395  17.169  22.816  19.635  0.2040 -0.0789  0.3205
77479W        W20396  18.820  23.928  20.531  0.1165  0.0902 -0.4434
77480W        W20397  16.434  22.261  22.142  0.1687 -0.3080 -0.2011
77481W        W20398  14.587  24.523  19.773 -0.2619 -0.0391 -0.0102
77482W        W20399  15.383  23.640  20.976 -0.1306 -0.2658  0.1901
77483W        W20400  16.162  22.978  20.324 -0.1460  0.3103 -0.0829
77484W        W20401  14.555  24.848  22.038 -0.0882  0.0841 -0.2410
77485W        W20402  16.634  24.503  21.098 -0.2118  0.0543 -0.3066
77486W        W20403  17.106  24.834  21.886 -0.0676  0.1253  0.1555
77487W        W20404  13.612  23.334  20.986 -0.1561  0.0606  0.1520
77488W        W20405  16.945  22.834  21.850 -0.0436 -0.2336 -0.3221
77489W        W20406  14.139  23.701  23.707 -0.2655 -0.1965 -0.0349
77490W        W20407  16.130  24.725  23.140 -0.2006  0.0738 -0.1210
77491W        W20408  17.646  26.287  19.555 -0.3154 -0.0815 -0.4089
77492W        W20409  16.558  20.549  19.679 -0.2900  0.2121 -0.2984
77493W        W20410  17.442  25.736  17.960 -0.1080 -0.0859 -0.1160
77494W        W20411  18.544  23.211  20.468  0.0168 -0.0661 -0.0051
77495W        W20412  14.284  24.319  18.942  0.3029  0.1049  0.1282
77496W        W20413  16.611  23.298  20.372  0.0898 -0.0290 -0.2996
77497W        W20414  15.034  23.234  19.206  0.1545 -0.0015  0.1554
77498W        W20415  16.269  22.052  20.901  0.2788  0.0917  0.1996
77499W        W20416  18.102  24.807  24.530  0.1256 -0.1380 -0.0366
77500W        W20417  19.608  24.530  21.600  0.0478 -0.2126 -0.0092
77501W        W20418  14.562  24.968  21.128 -0.2350  0.0588 -0.1930
77502W        W20419  17.567  24.129  18.796 -0.0340 -0.2749  0.1003
77503W        W20420  15.912  20.770  23.261  0.0514 -0.0644 -0.0686
77504W        W20421  13.427  23.419  20.078  0.2463 -0.3377  0.1392
77505W        W20422  14.612  24.663  23.125  0.0005  0.1152 -0.5535
77506W        W20423  17.056  24.712  21.379  0.0865  0.2614 -0.0278
77507W        W20424  16.647  24.467  19.251  0.1989  0.1552 -0.0804
77508W        W20425  15.867  23.617  21.165 -0.0806 -0.2074 -0.1841
77509W        W20426  13.822  22.345  19.472 -0.2015  0.0153  0.1555
77510W        W20427  14.441  25.661  20.278 -0.1745  0.0012 -0.1936
77511W        W20428  16.063  23.469  18.400 -0.2302  0.1252  0.0681
77512W        W20429  14.337  22.694  20.928  0.0494  0.0606  0.1438
77513W        W20430  14.852  26.140  22.373  0.0201 -0.0558  0.0513
77514W        W20431  17.175  25.155  17.439 -0.3173  0.0860 -0.0928
77515W        W20432  15.523  22.440  21.760 -0.1770 -0.2749  0.1059
77516W        W20433  15.484  25.640  19.770 -0.2904  0.0470 -0.1089
77517W        W20434  19.162  23.010  21.820 -0.0419 -0.3994  0.3279
77518W        W20435  15.193  26.329  20.314  0.0278  0.1392 -0.0865
77519W        W20436  16.244  24.863  19.316 -0.3038  0.0599 -0.0451
77520W        W20437  12.272  24.277  19.710 -0.2121 -0.4385 -0.3562
77521W        W20438  15.567  24.540  19.415 -0.0835 -0.0638  0.3997
77522W        W20439  17.465  26.035  21.481 -0.0862 -0.6023 -0.1736
77523W        W20440  12.665  25.007  21.187 -0.1147  0.1118 -0.2375
77524W        W20441  15.372  22.702  19.874  0.0108  0.1531  0.0487
77525W        W20442  16.192  25.881  22.651  0.0442  0.2678 -0.0327
77526W        W20443  14.995  24.196  20.623  0.3698 -0.0697 -0.1038
77527W        W20444  19.265  21.687  19.728  0.0062  0.0261  0.1169
77528W        W20445  17.355  25.941  22.414  0.0578 -0.1370  0.3469
77529W        W20446  16.608  23.638  21.458  0.0014 -0.0008 -0.1834
77530W        W20447  14.969  25.080  20.819 -0.3894  0.2969 -0.0642
77531W        W20448  17.067  24.602  19.414  0.0293 -0.1090  0.1313
77532W        W20449  14.641  23.127  22.138  0.2622  0.0612  0.0869
77533W        W20450  15.460  25.064  19.472  0.0095  0.0720 -0.1133
77534W        W20451  15.251  23.791  21.937 -0.1013  0.0880 -0.0534
77535W        W20452  15.917  22.813  21.028  0.3557 -0.0582 -0.3275
77536W        W20453  14.027  25.013  21.446 -0.0965 -0.1955 -0.1142
77537W        W20454  16.192  25.009  22.333  0.1813 -0.0194  0.3007
77538W        W20455  16.835  24.723  22.765 -0.2966 -0.0058 -0.2579
77539W        W20456  15.756  23.518  19.795 -0.2918 -0.1623 -0.2284
77540W        W20457  15.789  22.460  21.368 -0.1124 -0.1467  0.2569
77541W        W20458  15.649  24.067  21.070 -0.4181 -0.0622 -0.0075
77542W        W20459  17.256  23.539  20.222  0.2657 -0.0819  0.0790
77543W        W20460  15.744  22.746  20.512  0.0791 -0.0809 -0.0671
77544W        W20461  14.026  23.417  23.059 -0.0536  0.2766 -0.1214
77545W        W20462  16.666  23.649  19.562  0.3048  0.0567 -0.1522
77546W        W20463  19.844  25.184  20.162 -0.2974  0.0490 -0.3282
77547W        W20464  18.889  24.361  21.930 -0.2095 -0.2520 -0.1310
77548W        W20465  16.614  25.826  19.683  0.2377  0.0211  0.5013
77549W        W20466  14.908  23.959  21.611  0.0923 -0.1912 -0.3028
77550W        W20467  16.380  25.193  18.857 -0.4888  0.0482 -0.1590
77551W        W20468  14.583  21.739  19.057 -0.1971  0.2254 -0.0750
77552W        W20469  13.868  23.882  25.824 -0.0225 -0.0839  0.0179
77553W        W20470  15.334  24.872  20.378 -0.0694 -0.2006  0.2610
77554W        W20471  15.826  24.429  20.777 -0.0555 -0.1320 -0.0955
77555W        W20472  18.540  20.666  19.330  0.0339  0.1264 -0.1542
77556W        W20473  17.095  24.247  19.015 -0.0123  0.0804 -0.0195
77557W        W20474  14.937  22.803  19.598  0.1984 -0.2241 -0.0464
77558W        W20475  17.118  21.647  20.300  0.2246  0.3286 -0.1043
77559W        W20476  17.712  22.921  18.592  0.1231  0.2489 -0.0280
77560W        W20477  15.581  23.708  23.094 -0.1771  0.1672 -0.2952
77561W        W20478  14.342  22.209  20.709  0.0027 -0.0996  0.3046
77562W        W20479  16.999  24.842  20.546 -0.1069  0.1814 -0.4515
77563W        W20480  15.724  23.134  22.121  0.3644  0.2837 -0.3327
77564W        W20481  17.303  27.459  23.714 -0.2459 -0.0585 -0.0049
77565W        W20482  15.670  24.668  23.462  0.0195 -0.1978 -0.2366
77566W        W20483  13.724  23.901  20.652  0.1524 -0.2581 -0.4000
77567W        W20484  13.864  21.978  20.677  0.2913  0.2837  0.1065
77568W        W20485  16.883  23.919  22.131  0.1952 -0.2308  0.1651
77569W        W20486  16.660  24.700  21.728  0.0997 -0.0154 -0.1725
77570W        W20487  15.461  24.221  20.315 -0.0061 -0.5019  0.0068
77571W        W20488  17.450  25.161  18.778 -0.1701  0.1567  0.1656
77572W        W20489  14.980  23.423  21.174  0.1836 -0.0632 -0.1200
77573W        W20490  16.164  24.716  21.058 -0.1234  0.0204 -0.2458
77574W        W20491  18.573  24.732  20.110 -0.0128 -0.1489 -0.1735
77575W        W20492  14.060  24.789  21.863  0.3485  0.2519  0.2457
77576W        W20493  15.814  21.659  19.780  0.0260  0.2657  0.0596
77577W        W20494  16.325  23.705  22.661  0.2721  0.2171  0.0906
77578W        W20495  15.530  21.908  19.298  0.0974  0.0355  0.3062
77579W        W20496  15.211  22.438  22.624 -0.0170  0.0448 -0.1667
77580W        W20497  16.598  24.239  21.565 -0.0951  0.1939 -0.2040
77581W        W20498  15.184  23.255  20.740 -0.2976  0.3621 -0.2702
77582W        W20499  13.920  22.246  22.832 -0.4610  0.3598  0.0295
77583W        W20500  17.050  24.472  19.906  0.0511  0.2095  0.0320
77584W        W20501  18.774  23.015  21.366  0.1578  0.1974  0.3329
77585W        W20502  17.358  24.614  20.831 -0.1828  0.0279  0.3860
77586W        W20503  18.731  25.232  21.028  0.0750 -0.0694 -0.1016
77587W        W20504  18.442  23.571  20.899  0.3415  0.0684  0.0234
77588W        W20505  14.250  24.602  21.028  0.3222  0.1648  0.2894
77589W        W20506  17.855  25.202  23.761 -0.2261  0.0963  0.1324
77590W        W20507  14.569  23.487  19.130  0.1363 -0.1681 -0.0706
77591W        W20508  17.380  22.583  20.712 -0.2618  0.2148 -0.0720
77592W        W20509  17.785  25.319  20.925  0.0683  0.0137 -0.2378
77593W        W20510  16.239  24.993  20.468  0.3078  0.1057  0.1858
77594W        W20511  17.026  25.088  19.655 -0.1300  0.0556  0.0986
77595W        W20512  14.227  25.393  21.226  0.1431  0.2827  0.1022
77596W        W20513  13.937  24.418  22.345 -0.1493 -0.1000 -0.2565
77597W        W20514  15.800  24.585  18.271 -0.2478  0.0858 -0.1358
77598W        W20515  16.378  24.306  18.813 -0.1646 -0.1188 -0.1484
77599W        W20516  17.223  24.412  20.369  0.1990  0.0545  0.0356
77600W        W20517  18.567  23.953  23.333 -0.0038  0.0333  0.1883
77601W        W20518  18.429  23.031  20.921 -0.0517 -0.2211  0.0313
77602W        W20519  19.054  23.712  22.697  0.1167 -0.3796  0.1059
77603W        W20520  15.570  26.078  20.664 -0.1943  0.1606  0.1687
77604W        W20521  16.085  20.753  20.313  0.3260  0.2080  0.1773
77605W        W20522  14.129  25.298  23.851 -0.2463  0.0034  0.0404
77606W        W20523  12.938  24.823  22.455 -0.1664  0.2069  0.1159
77607W        W20524  16.128  25.874  21.798  0.3005  0.0386 -0.1175
77608W        W20525  15.691  22.853  22.598 -0.1241  0.1286  0.3723
77609W        W20526  13.519  24.814  21.627 -0.2518  0.0460 -0.0396
77610W        W20527  14.636  25.171  23.058 -0.2324  0.1936 -0.1085
77611W        W20528  17.063  25.056  21.014 -0.0974  0.0045 -0.0238
77612W        W20529  16.001  22.987  23.434  0.3425  0.3443  0.3541
77613W        W20530  15.447  25.194  21.725 -0.0104 -0.0825 -0.2235
77614W        W20531  15.672  24.426  22.506 -0.0825 -0.1677  0.2033
77615W        W20532  17.513  24.983  21.241  0.3150  0.0370 -0.1855
77616W        W20533  15.485  23.286  22.768 -0.1488 -0.0320  0.3189
77617W        W20534  14.853  25.698  20.700  0.0553  0.2461 -0.1279
77618W        W20535  13.880  23.876  22.429  0.1551 -0.1396 -0.1156
77619W        W20536  17.340  25.981  20.513 -0.0880 -0.0554  0.4026
77620W        W20537  14.150  24.241  19.600 -0.0484 -0.2951  0.1389
77621W        W20538  18.651  24.736  18.812  0.1420  0.0284 -0.2320
77622W        W20539  13.640  25.305  23.662 -0.2116 -0.2026  0.0243
77623W        W20540  15.411  26.188  21.258 -0.1143  0.0530 -0.2476
77624W        W20541  15.578  26.915  20.676  0.2240 -0.1488  0.3877
77625W        W20542  17.783  24.327  20.872  0.0127  0.0563  0.3156
77626W        W20543  17.519  23.988  21.097 -0.3404  0.0151  0.1741
77627W        W20544  15.230  25.079  22.195  0.3316 -0.0004  0.0810
77628W        W20545  19.206  22.624  21.455 -0.4260 -0.1490 -0.3235
77629W        W20546  14.997  26.208  20.927  0.0995 -0.0847  0.2554
77630W        W20547  13.794  25.424  19.483  0.0791  0.3591  0.2875
77631W        W20548  19.391  24.974  21.676  0.0180 -0.2049  0.0766
77632W        W20549  14.438  26.816  20.555  0.1070 -0.2487 -0.1122
77633W        W20550  17.634  26.248  23.452  0.1672 -0.1186 -0.2991
77634W        W20551  18.484  19.965  18.269 -0.2775 -0.3127 -0.2586
77635W        W20552  17.865  23.244  21.104 -0.2106  0.2822 -0.2111
77636W        W20553  14.303  23.254  21.785  0.0127  0.0292  0.1083
77637W        W20554  16.229  23.632  22.118 -0.0599  0.1283 -0.2361
77638W        W20555  14.404  22.529  20.070  0.1624  0.0228 -0.0228
77639W        W20556  13.672  23.825  19.444 -0.1371  0.1453  0.1733
77640W        W20557  13.934  25.385  22.596 -0.2434  0.2064  0.2058
77641W        W20558  18.899  21.534  24.333  0.2211  0.0340 -0.0926
77642W        W20559  13.113  26.065  23.326 -0.1512  0.1523 -0.1840
77643W        W20560  16.919  27.145  20.625 -0.1270 -0.1575  0.2211
77644W        W20561  15.065  23.792  20.219  0.0540  0.0026  0.1812
77645W        W20562  16.119  23.431  20.808 -0.0761  0.1239  0.0304
77646W        W20563  15.954  25.437  21.677 -0.0217  0.2478  0.1473
77647W        W20564  17.511  24.621  19.210 -0.0629 -0.0197 -0.0152
77648W        W20565  14.923  23.925  21.067  0.0499 -0.0841 -0.3546
77649W        W20566  16.599  26.965  21.502  0.1010 -0.1722 -0.4817
77650W        W20567  14.955  25.733  22.065  0.1723 -0.0680  0.0935
77651W        W20568  17.697  24.403  22.478  0.0849 -0.1728  0.0516
77652W        W20569  13.950  23.068  20.212 -0.1813  0.0410 -0.0274
77653W        W20570  16.426  23.170  19.471  0.0307 -0.3746 -0.0917
77654W        W20571  14.616  24.434  22.520 -0.3079 -0.3688 -0.2455
77655W        W20572  16.459  22.144  20.416  0.1688 -0.0999 -0.0233
77656W        W20573  14.391  23.734  21.490 -0.0746  0.1890 -0.3117
77657W        W20574  17.916  23.347  19.270 -0.0568  0.1590 -0.3016
77658W        W20575  17.957  25.784  23.254  0.1647 -0.0318 -0.1098
77659W        W20576  14.844  24.451  21.712 -0.2654  0.1619 -0.0271
77660W        W20577  16.334  25.447  19.373 -0.1150  0.0642 -0.0117
77661W        W20578  17.071  24.319  21.828 -0.2330  0.1147 -0.2622
77662W        W20579  16.688  23.982  19.006  0.2026  0.0329  0.0531
77663W        W20580  16.820  27.034  23.741  0.1360  0.0756 -0.0642
77664W        W20581  13.091  22.339  20.135 -0.0668  0.3381  0.0764
77665W        W20582  19.998  22.052  19.234  0.4650 -0.0873 -0.1080
77666W        W20583  15.102  24.638  19.203 -0.1489  0.1811 -0.0765
77667W        W20584  16.222  24.057  21.833 -0.1527  0.0756 -0.1100
77668W        W20585  16.565  26.128  21.073  0.1999 -0.1622  0.2293
77669W        W20586  12.527  23.360  18.924 -0.0342  0.3996  0.0243
77670W        W20587  14.321  22.187  19.642 -0.1699  0.0073 -0.0699
77671W        W20588  17.835  25.534  22.246  0.0791  0.1835 -0.0455
77672W        W20589  15.361  24.338  18.687  0.0539  0.2233  0.2586
77673W        W20590  15.895  24.347  19.085 -0.0425 -0.3312 -0.5745
77674W        W20591  16.961  25.222  22.637 -0.3571  0.2573 -0.0449
77675W        W20592  14.422  24.195  20.781 -0.2588 -0.2400  0.1114
77676W        W20593  17.239  25.060  24.419 -0.0069  0.1508  0.1730
77677W        W20594  18.772  26.206  21.525 -0.0607  0.2119  0.0007
77678W        W20595  17.919  22.805  19.367  0.1130  0.0869 -0.3109
77679W        W20596  13.167  24.582  21.954  0.2322  0.0216 -0.0015
77680W        W20597  15.306  25.311  21.243 -0.1502 -0.0703  0.1743
77681W        W20598  16.624  23.046  21.543 -0.2153 -0.0623 -0.1433
77682W        W20599  15.717  23.164  19.195 -0.0265 -0.3003  0.2347
77683W        W20600  15.646  23.895  18.838 -0.4019 -0.0532  0.2138
77684W        W20601  16.152  21.132  20.619 -0.0708 -0.1454  0.3095
77685W        W20602  16.647  26.386  21.959  0.0074  0.1991 -0.0216
77686W        W20603  14.427  24.879  24.173  0.2102 -0.0659  0.0538
77687W        W20604  12.477  23.284  20.117 -0.2401 -0.1485  0.0381
77688W        W20605  16.475  24.337  22.936  0.0709  0.2123 -0.1078
77689W        W20606  15.854  24.685  20.267  0.2660 -0.0987  0.1786
77690W        W20607  17.817  26.110  19.090  0.1053 -0.0343 -0.1272
77691W        W20608  18.388  26.435  21.286  0.0081 -0.3325  0.0880
77692W        W20609  14.508  24.351  20.237  0.0828 -0.1876 -0.1057
77693W        W20610  17.579  25.326  20.127  0.0442 -0.2569 -0.1444
77694W        W20611  16.634  22.735  19.465 -0.2843 -0.0719 -0.0120
77695W        W20612  18.883  22.187  21.518 -0.0478  0.1730 -0.0581
77696W        W20613  19.293  21.116  19.793 -0.3495  0.1215 -0.4789
77697W        W20614  15.139  24.818  21.248  0.1154 -0.1075 -0.0771
77698W        W20615  15.111  23.847  18.901 -0.2344 -0.0804  0.2438
77699W        W20616  17.539  24.951  19.607  0.1641  0.0255 -0.1663
77700W        W20617  15.587  24.725  22.158 -0.1102 -0.0986 -0.1147
77701W        W20618  17.490  23.517  21.851  0.0633 -0.0680 -0.0485
77702W        W20619  15.394  22.010  21.125 -0.3166 -0.0640  0.0118
77703W        W20620  15.706  25.149  20.088  0.1421 -0.0066 -0.3194
77704W        W20621  13.315  22.005  19.793 -0.3746  0.0646 -0.0738
77705W        W20622  17.719  25.532  18.982  0.0606 -0.1859 -0.0038
77706W        W20623  14.347  23.166  21.269 -0.1684 -0.1766  0.2350
77707W        W20624  14.023  23.873  21.854 -0.0034  0.0617 -0.1441
77708W        W20625  17.689  24.589  20.443 -0.1542  0.1743 -0.1409
77709W        W20626  18.094  25.925  21.819  0.3004  0.3409 -0.4203
77710W        W20627  15.435  23.441  20.324  0.0251  0.0268  0.0370
77711W        W20628  18.695  25.729  23.567  0.1644 -0.2044  0.3835
77712W        W20629  14.352  23.334  18.669  0.0555  0.0117 -0.3196
77713W        W20630  16.832  23.349  21.915  0.1181 -0.0025  0.2903
77714W        W20631  16.279  22.236  21.336 -0.1694 -0.1040 -0.0552
77715W        W20632  14.330  22.603  18.259  0.2143 -0.1120 -0.0201
77716W        W20633  15.353  24.430  20.885 -0.1508  0.0421 -0.0386
77717W        W20634  16.634  25.648  18.957  0.3675  0.1915 -0.0317
77718W        W20635  17.012  26.093  19.762  0.0431  0.4551  0.1327
77719W        W20636  15.294  24.254  22.124  0.0229 -0.1156 -0.0597
77720W        W20637  15.009  24.667  22.249  0.0547  0.2621 -0.1847
77721W        W20638  12.736  20.574  21.468 -0.0974  0.0838 -0.0637
77722W        W20639  17.151  25.011  18.451  0.1554 -0.3307  0.3050
77723W        W20640  13.674  24.859  21.106  0.2334 -0.2270 -0.0197
77724W        W20641  17.975  23.839  18.940  0.1451 -0.3305  0.2693
77725W        W20642  20.296  21.615  21.441  0.1003  0.0722 -0.0598
77726W        W20643  16.840  21.237  20.522 -0.0545  0.1454 -0.0517
77727W        W20644  11.992  20.724  22.219 -0.3152 -0.1018  0.0379
77728W        W20645  15.888  23.336  23.033  0.1449 -0.1294  0.1574
77729W        W20646  16.684  24.838  22.301 -0.1299  0.3304 -0.1873
77730W        W20647  14.160  23.751  20.622  0.2301  0.0062 -0.3049
77731W        W20648  18.266  21.892  19.724 -0.1241 -0.0776 -0.1494
77732W        W20649  17.407  25.416  18.352 -0.0013 -0.1603  0.0973
77733W        W20650  14.672  22.928  23.397  0.2622 -0.2978 -0.2827
77734W        W20651  16.500  25.024  21.358  0.3389 -0.2690  0.0348
77735W        W20652  16.417  23.101  23.867  0.3810  0.2273 -0.3032
77736W        W20653  17.476  23.739  24.103 -0.0117  0.0931 -0.2038
77737W        W20654  17.388  23.082  21.084 -0.1524  0.1809 -0.0480
77738W        W20655  15.747  23.974  22.156  0.1812  0.0747 -0.1985
77739W        W20656  18.593  21.464  20.545  0.0097  0.0564  0.2767
77740W        W20657  15.714  25.905  22.690  0.1038  0.1808  0.2087
77741W        W20658  17.884  25.710  21.452 -0.0658 -0.0585 -0.1157
77742W        W20659  14.944  23.584  22.448 -0.3618  0.0224  0.0621
77743W        W20660  16.702  24.918  20.102 -0.0306 -0.3034 -0.2198
77744W        W20661  13.094  22.786  20.364  0.3977  0.1042 -0.2329
77745W        W20662  14.893  23.747  19.454 -0.0683 -0.1105  0.0432
77746W        W20663  14.679  24.935  18.280 -0.0632 -0.0566 -0.1145
77747W        W20664  16.831  23.710  20.017 -0.2543 -0.0142 -0.0775
77748W        W20665  15.140  23.137  20.014  0.2851 -0.0392 -0.4875
77749W        W20666  17.716  21.998  19.020 -0.0387 -0.0579  0.1758
77750W        W20667  13.650  26.212  23.377 -0.0598 -0.1336  0.2164
77751W        W20668  13.159  24.473  21.497 -0.1582 -0.2635  0.0258
77752W        W20669  17.570  26.522  23.905 -0.0645 -0.1366 -0.0800
77753W        W20670  16.302  21.201  22.249 -0.1342 -0.3328 -0.1764
77754W        W20671  16.606  24.255  19.811  0.0462 -0.5750 -0.1796
77755W        W20672  16.584  23.912  23.138 -0.0864 -0.1287 -0.0486
77756W        W20673  15.286  21.184  21.966 -0.0625 -0.0609 -0.2448
77757W        W20674  15.398  24.179  23.751 -0.3495  0.1665 -0.1243
77758W        W20675  16.469  22.697  21.877  0.0635  0.1849 -0.1269
77759W        W20676  17.132  23.809  26.134 -0.0255  0.0666 -0.0056
77760W        W20677  18.497  25.371  26.761 -0.1661 -0.0569 -0.0027
77761W        W20678  16.138  24.475  19.594  0.1267 -0.1509 -0.0638
77762W        W20679  14.110  21.758  23.189  0.1089  0.1973  0.2207
77763W        W20680  14.489  23.384  26.235 -0.1676 -0.1366 -0.2214
77764W        W20681  15.662  21.960  22.059  0.1354  0.0747  0.0347
77765W        W20682  14.300  20.327  22.156  0.1700  0.1024  0.1294
77766W        W20683  18.541  21.917  25.058 -0.1533  0.3053 -0.1469
77767W        W20684  14.889  24.823  23.917  0.2190 -0.1592 -0.1434
77768W        W20685  15.924  21.143  24.848 -0.2086 -0.2201 -0.3125
77769W        W20686  17.658  24.400  21.898  0.2531  0.1347 -0.0418
77770W        W20687  16.776  30.179  25.522  0.2829 -0.2123  0.0344
77771W        W20688  16.549  24.372  22.088 -0.0002 -0.1070  0.0264
77772W        W20689  17.023  23.306  26.474 -0.1947 -0.0827 -0.3873
77773W        W20690  14.401  25.002  23.557  0.1133 -0.1519  0.2679
77774W        W20691  15.896  22.731  23.888  0.4804  0.0065  0.0207
77775W        W20692  17.373  22.251  25.163 -0.2521  0.0402  0.1137
77776W        W20693  18.182  22.408  25.120  0.1786  0.1026  0.3364
77777W        W20694  18.117  23.675  23.684  0.2935  0.2516  0.2756
77778W        W20695  16.827  24.602  26.142  0.1028  0.1265  0.4158
77779W        W20696  17.520  26.386  24.465 -0.1203  0.0943  0.1186
77780W        W20697  16.110  24.706  25.549  0.0900  0.1588 -0.1511
77781W        W20698  16.569  23.207  25.467  0.1415 -0.0904  0.0986
77782W        W20699  15.421  27.201  24.704  0.4258  0.0310 -0.2836
77783W        W20700  14.059  27.063  25.069 -0.1668  0.1492 -0.1720
77784W        W20701  13.461  24.757  23.284 -0.2662 -0.0386 -0.0382
77785W        W20702  17.814  24.625  25.280  0.1475  0.1005  0.1950
77786W        W20703  16.568  24.326  27.425 -0.0033  0.3356  0.1058
77787W        W20704  14.047  26.361  26.566  0.2601 -0.0127 -0.3179
77788W        W20705  15.038  25.314  22.698 -0.1330  0.2457 -0.0491
77789W        W20706  15.697  27.304  26.001 -0.0066 -0.0996  0.0308
77790W        W20707  15.837  24.726  24.873 -0.0749  0.2055  0.1774
77791W        W20708  15.431  24.650  24.024 -0.3825  0.0360  0.1414
77792W        W20709  16.683  23.422  23.033  0.2793  0.2226  0.1784
77793W        W20710  13.919  24.909  23.484 -0.1449  0.2383  0.5483
77794W        W20711  15.628  24.532  25.782 -0.2149  0.1380 -0.1112
77795W        W20712  16.243  23.881  26.334  0.1696  0.0837  0.0046
77796W        W20713  14.409  23.764  24.176  0.3432 -0.1228 -0.2643
77797W        W20714  18.905  21.983  25.394  0.1473 -0.3966  0.1286
77798W        W20715  14.450  23.496  22.826 -0.2865 -0.1619  0.0675
77799W        W20716  14.568  21.842  22.212  0.1219 -0.1049 -0.1428
77800W        W20717  15.983  22.264  21.813 -0.2578 -0.0076  0.1099
77801W        W20718  16.901  22.701  24.507  0.3208 -0.0441  0.1806
77802W        W20719  14.212  21.161  22.246  0.0990  0.0510 -0.0479
77803W        W20720  14.918  26.303  22.794 -0.1634  0.1668  0.1323
77804W        W20721  16.092  22.211  25.397 -0.4104  0.0233  0.0330
77805W        W20722  15.672  25.600  26.000 -0.0532 -0.0437 -0.1957
77806W        W20723  15.312  24.118  25.452 -0.1538 -0.1108 -0.0913
77807W        W20724  17.014  22.827  23.136 -0.0528  0.2356 -0.0574
77808W        W20725  14.691  25.563  24.645  0.0856 -0.0668  0.0253
77809W        W20726  15.247  23.607  24.677 -0.2313 -0.2534  0.1625
77810W        W20727  19.664  26.795  23.112  0.1036 -0.0161 -0.1704
77811W        W20728  18.279  25.046  23.954  0.0821  0.1063  0.0381
77812W        W20729  15.674  24.544  22.983  0.3837 -0.1112  0.1858
77813W        W20730  16.559  23.805  23.650  0.1147  0.1258  0.0893
77814W        W20731  15.521  23.461  27.041  0.4266 -0.1792  0.1785
77815W        W20732  14.155  22.253  24.305 -0.2149  0.1475  0.0281
77816W        W20733  16.461  23.793  20.500  0.0927 -0.1012  0.1330
77817W        W20734  17.172  24.066  25.608  0.0462  0.0857 -0.1230
77818W        W20735  15.623  22.534  25.464 -0.1576 -0.0100 -0.0818
77819W        W20736  18.919  22.693  23.651 -0.0240  0.3394 -0.0871
77820W        W20737  17.826  22.686  22.932 -0.0454 -0.2605  0.0768
77821W        W20738  17.350  24.777  24.835  0.0771  0.1572  0.0441
77822W        W20739  17.138  24.563  24.415  0.1413  0.1003 -0.0632
77823W        W20740  20.279  24.959  25.038  0.0760  0.0056 -0.3945
77824W        W20741  15.467  21.404  24.584  0.0989  0.1112  0.0021
77825W        W20742  16.106  23.636  21.596  0.1731  0.0064 -0.0620
77826W        W20743  15.648  24.348  21.802  0.0966  0.3233  0.1675
77827W        W20744  18.883  24.334  24.188 -0.1454 -0.1795  0.2592
77828W        W20745  19.078  24.796  23.932  0.0972  0.3334  0.0779
77829W        W20746  15.607  23.330  24.429 -0.1108  0.2778 -0.0982
77830W        W20747  15.156  21.851  24.689 -0.1988  0.0809 -0.0410
77831W        W20748  16.128  24.591  27.465  0.3428 -0.0448 -0.1939
77832W        W20749  13.127  25.225  23.840 -0.1439  0.0254  0.1177
77833W        W20750  14.829  25.164  24.426  0.4049  0.0683 -0.6315
77834W        W20751  14.487  24.826  24.714 -0.2009  0.1263  0.0215
77835W        W20752  14.077  21.047  26.284 -0.1396 -0.1421  0.2179
77836W        W20753  15.590  25.186  24.805 -0.1143  0.1556 -0.1967
77837W        W20754  17.762  23.221  23.022 -0.1217  0.1555  0.2091
77838W        W20755  16.661  22.738  27.202  0.3159  0.4773 -0.2249
77839W        W20756  18.721  23.288  21.836 -0.0420 -0.1842  0.0449
77840W        W20757  14.894  24.995  23.449 -0.0533 -0.3355  0.0380
77841W        W20758  16.848  26.213  25.345  0.2379 -0.1510  0.1963
77842W        W20759  16.548  25.513  22.544  0.1420  0.1445  0.1244
77843W        W20760  17.714  25.745  23.815  0.2028  0.2143  0.2103
77844W        W20761  12.163  23.911  24.551  0.4362 -0.2308  0.0239
77845W        W20762  16.995  24.232  22.875  0.0077  0.0343  0.1712
77846W        W20763  15.021  20.733  25.278 -0.3271 -0.2849  0.2172
77847W        W20764  14.947  22.730  24.640  0.0617 -0.0482  0.0331
77848W        W20765  15.956  25.103  25.161 -0.1181 -0.1857 -0.1064
77849W        W20766  13.109  21.195  23.208 -0.4035 -0.6631  0.1190
77850W        W20767  17.382  23.484  22.358  0.2774  0.2669  0.0016
77851W        W20768  16.632  23.049  22.246 -0.3056  0.0667 -0.1800
77852W        W20769  14.465  22.099  23.798  0.0576  0.1946  0.0066
77853W        W20770  16.783  21.358  25.363 -0.0137  0.1389  0.0402
77854W        W20771  14.598  26.469  25.821  0.0293 -0.0653 -0.0395
77855W        W20772  17.484  23.549  24.813  0.1113  0.1153 -0.0763
77856W        W20773  16.111  26.958  25.263  0.3750  0.2682  0.0680
77857W        W20774  14.617  21.709  23.308  0.2214 -0.2554  0.0083
77858W        W20775  13.498  23.753  21.991  0.5991 -0.4119  0.4875
77859W        W20776  14.870  26.547  24.829 -0.0654 -0.1603  0.0545
77860W        W20777  16.659  26.083  26.521 -0.2819 -0.0412 -0.2036
77861W        W20778  15.524  23.215  21.212  0.1011  0.2260 -0.2581
77862W        W20779  17.440  23.081  25.684 -0.1597  0.4918 -0.0609
77863W        W20780  17.431  24.238  24.078  0.0307  0.1940 -0.0178
77864W        W20781  16.279  21.327  27.671  0.0021  0.0932 -0.2911
77865W        W20782  17.570  21.435  22.698 -0.0474 -0.2155  0.1289
77866W        W20783  19.009  24.160  25.150  0.2418  0.2968  0.0915
77867W        W20784  15.803  22.248  23.774 -0.1696 -0.1211  0.0481
77868W        W20785  14.147  23.073  22.248 -0.1619  0.0956 -0.0512
77869W        W20786  17.318  24.298  26.037  0.0477  0.0687 -0.2733
77870W        W20787  13.097  24.473  23.472  0.2485 -0.1392 -0.0812
77871W        W20788  14.699  21.207  23.044 -0.0791  0.1422 -0.0457
77872W        W20789  14.538  25.438  23.464 -0.0746 -0.0506 -0.1818
77873W        W20790  18.324  23.643  24.622  0.0377  0.4413 -0.0214
77874W        W20791  16.124  23.034  25.671  0.0876 -0.1085  0.0475
77875W        W20792  14.630  22.613  25.111 -0.1546  0.0186 -0.3573
77876W        W20793  14.312  21.418  22.681  0.1957 -0.1024  0.1125
77877W        W20794  16.622  23.658  26.161 -0.2075 -0.1276  0.2077
77878W        W20795  16.604  22.632  20.436 -0.2289  0.0340 -0.2332
77879W        W20796  17.917  22.159  23.890 -0.0514  0.1198  0.0499
77880W        W20797  15.935  23.664  25.267  0.1050 -0.0807  0.2657
77881W        W20798  19.379  24.453  24.139 -0.0490  0.1515 -0.3448
77882W        W20799  17.483  22.367  23.164 -0.0819  0.1816 -0.2184
77883W        W20800  16.865  23.503  23.958 -0.1185 -0.2307  0.0497
77884W        W20801  16.719  24.095  25.954  0.2500 -0.0046 -0.1349
77885W        W20802  16.442  26.170  24.398  0.1278  0.2101 -0.1015
77886W        W20803  17.292  25.538  25.396 -0.1071 -0.1091 -0.0335
77887W        W20804  15.230  21.908  19.982 -0.1045 -0.1230 -0.0025
77888W        W20805  18.681  25.474  23.987  0.2074  0.1514  0.0812
77889W        W20806  14.464  22.587  26.415 -0.3319  0.1410  0.0998
77890W        W20807  15.913  22.643  25.066 -0.3614 -0.0664 -0.3942
77891W        W20808  16.461  25.043  25.581 -0.1110 -0.4555  0.1504
77892W        W20809  15.276  20.874  21.504  0.0808 -0.0787 -0.0661
77893W        W20810  14.736  23.578  21.948  0.1199  0.0415 -0.1308
77894W        W20811  16.084  25.207  23.380  0.1546 -0.0648  0.2320
77895W        W20812  13.239  24.986  22.817 -0.1578  0.0542 -0.3785
77896W        W20813  17.991  19.211  24.986 -0.2264 -0.0142  0.2352
77897W        W20814  18.636  23.869  24.257  0.2795 -0.0589  0.0031
77898W        W20815  15.026  21.248  26.508 -0.1784 -0.0242 -0.1938
77899W        W20816  17.963  20.524  25.544 -0.1647 -0.0746  0.0659
77900W        W20817  19.357  23.737  25.015  0.0082 -0.1493  0.0219
77901W        W20818  17.744  22.663  25.043 -0.1812 -0.1194 -0.1058
77902W        W20819  17.131  24.526  22.378 -0.0238 -0.1061  0.0216
77903W        W20820  14.911  21.447  24.504  0.1097 -0.0976  0.0939
77904W        W20821  15.113  24.514  23.453 -0.2475 -0.1158  0.2319
77905W        W20822  16.081  23.625  24.389  0.0888  0.0321 -0.1922
77906W        W20823  15.691  24.659  27.196 -0.0677 -0.2236  0.1242
77907W        W20824  15.578  25.260  23.584 -0.2122  0.0779  0.1814
77908W        W20825  18.059  21.500  27.092 -0.0599  0.0969  0.0107
77909W        W20826  15.188  22.448  23.143  0.2697 -0.0716 -0.1409
77910W        W20827  16.025  24.482  24.028  0.0353  0.0393  0.0899
77911W        W20828  13.291  26.386  23.722 -0.3344 -0.2310 -0.1138
77912W        W20829  16.717  23.174  24.375 -0.1245  0.0465  0.1990
77913W        W20830  17.019  23.985  23.829 -0.1108  0.0125 -0.2775
77914W        W20831  14.528  24.545  23.657  0.4271  0.0824 -0.0749
77915W        W20832  18.722  23.873  26.336 -0.0861  0.0399  0.3955
77916W        W20833  13.645  24.361  23.623  0.1217  0.0433 -0.1714
77917W        W20834  16.685  20.610  24.432 -0.0826  0.1165  0.0183
77918W        W20835  12.901  25.193  24.514  0.4173  0.2010 -0.0396
77919W        W20836  16.652  24.105  22.533 -0.1170  0.0870  0.0270
77920W        W20837  15.361  22.557  23.873 -0.0880 -0.3347  0.3932
77921W        W20838  17.911  23.700  25.496 -0.4886 -0.0740  0.0900
77922W        W20839  18.591  24.619  24.623 -0.2110 -0.1536  0.3714
77923W        W20840  14.604  22.753  21.344  0.3741 -0.2053  0.4929
77924W        W20841  17.257  21.581  23.125 -0.2863  0.0128 -0.0299
77925W        W20842  14.358  24.115  23.574  0.1068 -0.0216  0.0039
77926W        W20843  17.201  23.340  23.175 -0.2736 -0.1119  0.0091
77927W        W20844  17.689  23.451  23.429  0.1991 -0.0658  0.3186
77928W        W20845  16.264  24.561  24.589  0.2018  0.1530  0.0194
77929W        W20846  14.173  20.597  27.299  0.1545  0.2532  0.2100
77930W        W20847  14.843  23.982  22.744  0.2565 -0.0778  0.0375
77931W        W20848  16.578  21.212  24.789 -0.1648  0.0673 -0.1490
77932W        W20849  17.473  22.907  23.293 -0.0025  0.2196  0.2318
77933W        W20850  14.220  25.832  24.444 -0.0644  0.5207  0.2844
77934W        W20851  16.280  25.020  24.198 -0.0955  0.1391 -0.1791
77935W        W20852  14.560  23.649  23.272 -0.5371 -0.1912 -0.0824
77936W        W20853  14.150  25.036  23.034 -0.0122  0.1018  0.2778
77937W        W20854  15.616  22.066  25.171 -0.1860  0.3685  0.2259
77938W        W20855  18.002  20.465  24.553 -0.1330 -0.0773  0.1940
77939W        W20856  15.304  21.959  22.944 -0.1381 -0.0839 -0.2804
77940W        W20857  14.862  22.680  22.858  0.2277 -0.1279 -0.0701
77941W        W20858  18.505  22.230  26.410 -0.0497 -0.0600  0.1747
77942W        W20859  16.237  24.722  23.643 -0.1751 -0.2676 -0.0146
77943W        W20860  16.255  23.404  28.165 -0.2543  0.2228 -0.1212
77944W        W20861  15.476  23.561  27.916 -0.0909  0.0648 -0.0025
77945W        W20862  15.827  20.709  22.728 -0.2235  0.1845  0.0952
77946W        W20863  18.146  26.869  23.851  0.0106 -0.1609 -0.0269
77947W        W20864  16.419  22.622  24.371  0.1853 -0.2757  0.1453
77948W        W20865  15.507  22.900  23.071  0.1683  0.4999  0.0445
77949W        W20866  15.273  24.130  24.795  0.2200  0.0968 -0.2688
77950W        W20867  15.086  23.650  22.952 -0.4344 -0.2094  0.1841
77951W        W20868  16.528  21.623  22.384 -0.0638  0.1897  0.1696
77952W        W20869  15.189  25.018  25.201 -0.1566  0.0914  0.1427
77953W        W20870  14.921  22.705  22.210 -0.3345  0.0069 -0.1645
77954W        W20871  14.929  23.233  26.343 -0.0936  0.0515  0.2004
77955W        W20872  17.806  22.371  22.151 -0.1300 -0.0944  0.2487
77956W        W20873  16.240  22.762  21.423 -0.3057 -0.3849 -0.0923
77957W        W20874  16.538  21.421  22.897  0.1463 -0.0626 -0.2886
77958W        W20875  16.784  22.442  23.904  0.0905 -0.0238  0.0605
77959W        W20876  15.415  22.877  21.648  0.0858 -0.3002  0.3208
77960W        W20877  16.739  21.921  26.061  0.2556  0.4805  0.1808
77961W        W20878  14.671  22.256  24.631  0.0005  0.2744 -0.0753
77962W        W20879  16.187  25.131  24.696  0.1691  0.3081 -0.2378
77963W        W20880  16.363  22.772  25.271 -0.2764 -0.2889  0.1093
77964W        W20881  16.831  24.023  27.094  0.2090  0.0786 -0.0634
77965W        W20882  15.691  21.523  24.014 -0.1500 -0.1768 -0.3063
77966W        W20883  15.014  21.619  21.849  0.2878  0.2918 -0.1143
77967W        W20884  13.810  23.015  21.340  0.0098  0.2227 -0.4391
77968W        W20885  18.526  22.208  23.558 -0.1755  0.0629 -0.0869
77969W        W20886  16.048  24.015  23.776 -0.0235  0.0704 -0.1671
77970W        W20887  15.558  23.051  23.661  0.0719  0.0083  0.0812
77971W        W20888  16.994  21.588  21.823  0.0075  0.0973 -0.0696
77972W        W20889  14.957  22.525  25.511  0.2824 -0.2569 -0.2485
77973W        W20890  17.958  25.461  24.231 -0.0711  0.3205 -0.0729
77974W        W20891  15.815  24.781  24.368  0.0139 -0.0713 -0.1141
77975W        W20892  15.519  22.298  24.753  0.1242  0.0890 -0.0118
77976W        W20893  14.954  22.422  26.278 -0.1113  0.0803  0.3414
77977W        W20894  16.222  23.875  24.800  0.2535 -0.1489 -0.2692
77978W        W20895  17.684  22.925  24.436 -0.0719  0.0977 -0.0950
77979W        W20896  16.608  22.377  24.773  0.2525 -0.1582 -0.2317
77980W        W20897  18.347  22.278  24.204  0.0541  0.0942 -0.0040
77981W        W20898  17.072  22.184  24.440  0.1325  0.0406 -0.0008
77982W        W20899  17.242  18.771  26.011  0.3636 -0.2482 -0.2297
77983W        W20900  16.132  24.181  25.616 -0.0503  0.0844  0.4965
77984W        W20901  17.451  24.951  22.388  0.1869 -0.1228 -0.0448
77985W        W20902  17.128  22.526  23.518  0.1026 -0.2014 -0.1179
77986W        W20903  17.498  23.843  23.618 -0.3794  0.0718  0.0894
77987W        W20904  17.380  24.089  23.152 -0.0093 -0.1787  0.2010
77988W        W20905  15.955  20.072  23.548  0.0600  0.1967 -0.2127
77989W        W20906  18.314  24.542  25.909 -0.0685  0.0216  0.0429
77990W        W20907  16.266  23.167  21.935 -0.2275 -0.4331 -0.0521
77991W        W20908  17.172  22.850  26.473 -0.1496 -0.0363 -0.1183
77992W        W20909  14.923  23.618  24.243 -0.0190 -0.0168  0.3467
77993W        W20910  13.956  24.025  24.950  0.0426 -0.2097  0.3166
77994W        W20911  17.570  22.924  23.924  0.1344  0.1783  0.2774
77995W        W20912  13.419  21.199  24.199 -0.1649 -0.0771  0.0239
77996W        W20913  14.856  25.813  25.025  0.6086  0.3247 -0.0450
77997W        W20914  14.391  23.566  22.314 -0.3069 -0.2080 -0.1125
77998W        W20915  14.041  24.304  21.575 -0.1493 -0.0820 -0.2515
77999W        W20916  14.905  24.242  23.854 -0.3630  0.1609 -0.1393
78000W        W20917  16.934  22.854  25.628  0.2772 -0.4621 -0.1258
78001W        W20918  16.330  22.647  23.648  0.1708  0.2129 -0.1602
78002W        W20919  16.096  22.629  26.895 -0.1420  0.1357 -0.0296
78003W        W20920  13.392  25.341  24.331 -0.0112  0.2554  0.1172
78004W        W20921  17.128  22.352  21.161  0.1192 -0.0125 -0.2497
78005W        W20922  14.327  25.830  24.987  0.1558 -0.1246  0.1845
78006W        W20923  15.315  23.384  23.918 -0.1992 -0.4470 -0.1354
78007W        W20924  15.151  22.836  23.462 -0.5018 -0.0907  0.0090
78008W        W20925  15.585  21.511  21.757  0.0615 -0.3540 -0.0432
78009W        W20926  16.089  22.767  22.906  0.0492 -0.1711 -0.1056
78010W        W20927  17.062  24.820  23.210  0.0156 -0.0129 -0.1575
78011W        W20928  19.405  21.463  24.430  0.1141 -0.1156 -0.0353
78012W        W20929  16.703  23.960  24.706 -0.3856  0.1809  0.2396
78013W        W20930  14.601  23.377  25.392  0.0831  0.0316  0.1984
78014W        W20931  15.779  23.911  26.999  0.3091 -0.0080  0.0730
78015W        W20932  18.997  24.027  23.826  0.0338  0.1249 -0.1009
78016W        W20933  15.858  23.561  26.657 -0.1041 -0.2105  0.3527
78017W        W20934  16.380  20.713  24.841  0.0097 -0.0927  0.3013
78018W        W20935  17.734  22.373  25.488 -0.0914 -0.0948 -0.0193
78019W        W20936  16.482  22.501  22.868 -0.3201  0.1261 -0.5858
78020W        W20937  15.370  21.958  21.646 -0.0115  0.2580 -0.2625
78021W        W20938  15.347  23.599  25.744  0.1654 -0.0574  0.1456
78022W        W20939  16.126  23.405  26.159  0.0582  0.3860 -0.1246
78023W        W20940  15.879  24.281  24.506 -0.1842 -0.2194 -0.0732
78024W        W20941  16.181  25.535  26.156  0.1345 -0.2715  0.0585
78025W        W20942  17.848  23.382  22.160  0.1368 -0.0713 -0.1810
78026W        W20943  15.242  24.143  23.071  0.1825  0.0577 -0.2416
78027W        W20944  16.761  28.992  25.769  0.0212 -0.2163 -0.0624
78028W        W20945  15.362  23.311  23.269 -0.0372  0.2170  0.1001
78029W        W20946  15.815  25.121  25.874 -0.3342 -0.2335 -0.0215
78030W        W20947  15.377  24.194  24.289  0.1665  0.1937 -0.0068
78031W        W20948  15.928  24.906  22.748 -0.0026 -0.2928  0.0546
78032W        W20949  16.853  25.118  26.282 -0.0977  0.1014  0.0141
78033W        W20950  16.102  22.335  24.607 -0.0306 -0.0851 -0.1447
78034W        W20951  15.807  23.764  22.604  0.0924  0.0374 -0.0313
78035W        W20952  19.172  25.865  24.887  0.0381  0.1870  0.2142
78036W        W20953  16.975  22.908  23.990  0.0052  0.1944  0.2720
78037W        W20954  14.923  23.401  23.538  0.2306  0.0348 -0.1663
78038W        W20955  16.079  21.694  21.736 -0.3353  0.2047 -0.0934
78039W        W20956  15.516  22.943  24.192  0.1753  0.0023 -0.2375
78040W        W20957  15.613  22.347  26.200  0.4510 -0.1694 -0.1665
78041W        W20958  20.407  21.500  25.341  0.1972  0.2397  0.0894
78042W        W20959  11.670  24.882  26.121  0.1584  0.1647 -0.1002
78043W        W20960  16.482  25.172  23.702  0.3464  0.3431 -0.0950
78044W        W20961  13.218  22.477  21.709 -0.1455 -0.0705  0.0388
78045W        W20962  17.262  21.204  25.157  0.0306 -0.1601 -0.0785
78046W        W20963  17.957  24.330  26.165  0.1825  0.2546 -0.0352
78047W        W20964  14.428  24.288  21.919  0.2930 -0.2036 -0.2029
78048W        W20965  17.205  23.240  24.336  0.0735  0.1261 -0.0031
78049W        W20966  15.326  27.029  22.571  0.2546 -0.0562 -0.2434
78050W        W20967  14.929  23.762  25.056 -0.1090 -0.2084  0.0122
78051W        W20968  17.431  24.509  22.945  0.1690 -0.3322  0.0581
78052W        W20969  15.495  21.581  22.250 -0.1892 -0.2000 -0.0296
78053W        W20970  17.356  24.172  24.693 -0.2355 -0.2424  0.0505
78054W        W20971  17.176  21.554  23.686 -0.2871  0.0119  0.1343
78055W        W20972  16.564  21.956  21.743 -0.2108 -0.0317  0.1372
78056W        W20973  16.130  21.903  22.225 -0.0090 -0.2293 -0.1233
78057W        W20974  17.847  22.613  23.493  0.1201  0.1830 -0.1281
78058W        W20975  17.274  23.006  24.989  0.3354  0.1368 -0.0920
78059W        W20976  14.888  23.712  26.117 -0.0697 -0.3752 -0.0765
78060W        W20977  15.460  26.192  24.807  0.5337 -0.0961 -0.2448
78061W        W20978  19.295  23.665  26.158 -0.1233 -0.0041 -0.0330
78062W        W20979  16.572  22.303  23.385  0.0152 -0.0293 -0.0238
78063W        W20980  16.905  25.742  26.790 -0.0272 -0.0516  0.0120
78064W        W20981  15.566  22.019  22.528 -0.2593 -0.2009  0.0500
78065W        W20982  14.898  24.832  22.680 -0.0949 -0.1931  0.3355
78066W        W20983  15.976  21.937  24.879 -0.0543  0.2401  0.1438
78067W        W20984  16.510  22.288  25.765  0.1046 -0.1635  0.2700
78068W        W20985  18.310  24.190  26.978 -0.0465 -0.1503  0.0152
78069W        W20986  15.506  21.149  23.207  0.2376  0.1604  0.1736
78070W        W20987  16.258  24.281  23.377  0.1215  0.1698 -0.0114
78071W        W20988  18.144  22.585  26.305  0.0789  0.2859 -0.0857
78072W        W20989  16.027  24.185  22.859  0.2263  0.1016  0.0339
78073W        W20990  18.660  23.673  23.727  0.0926 -0.1144 -0.4170
78074W        W20991  17.706  24.168  25.644  0.1447  0.0178 -0.1587
78075W        W20992  15.884  20.754  24.525 -0.1096 -0.1190 -0.0112
78076W        W20993  15.252  23.919  27.108 -0.3601 -0.1656  0.2655
78077W        W20994  16.190  23.242  25.189  0.0514  0.0354  0.1772
78078W        W20995  16.804  21.843  23.096  0.0601  0.4033  0.0318
78079W        W20996  14.805  21.670  23.798  0.1538 -0.0047 -0.1462
78080W        W20997  12.126  26.333  23.384  0.4826  0.2238 -0.4356
78081W        W20998  16.997  22.114  25.611  0.0969 -0.1672 -0.0283
78082W        W20999  16.619  21.937  25.251 -0.2635 -0.1963  0.0741
78083W        W21000  14.998  25.445  21.670 -0.3646 -0.1590 -0.0475
78084W        W21001  16.716  20.757  23.590  0.2584  0.2456  0.0226
78085W        W21002  15.534  25.740  24.584 -0.0976 -0.0518  0.3532
78086W        W21003  15.447  23.742  28.988 -0.0052 -0.3630 -0.1839
78087W        W21004  13.458  22.479  22.776 -0.3477  0.1740  0.0954
78088W        W21005  17.004  22.756  27.983  0.1133 -0.0300 -0.2514
78089W        W21006  15.418  24.614  24.558  0.1781 -0.0602  0.0883
78090W        W21007  15.862  26.103  24.258  0.0398  0.0581  0.0928
78091W        W21008  17.861  24.195  27.164 -0.3349 -0.0330  0.1680
78092W        W21009  15.084  21.947  23.415  0.2868  0.1100 -0.1015
78093W        W21010  19.421  26.203  25.211 -0.2753 -0.0269  0.0228
78094W        W21011  14.286  21.599  23.614  0.0981 -0.0274  0.3448
78095W        W21012  18.640  25.256  22.585 -0.1615 -0.1123 -0.0730
78096W        W21013  17.002  22.021  23.984 -0.0440  0.0298  0.4344
78097W        W21014  15.174  23.334  28.773  0.0794  0.2509  0.1429
78098W        W21015  14.345  24.025  22.445 -0.2416 -0.2506  0.1797
78099W        W21016  15.854  24.971  23.905  0.1679  0.0856  0.1536
78100W        W21017  15.749  24.154  25.213 -0.3255  0.0504  0.2717
78101W        W21018  17.610  20.423  26.012  0.0035  0.0318 -0.0607
78102W        W21019  15.395  23.650  25.236  0.1380  0.0553 -0.1423
78103W        W21020  14.732  23.794  23.811 -0.2122  0.2034 -0.2349
78104W        W21021  15.744  22.417  24.251  0.3469 -0.1177 -0.3685
78105W        W21022  18.076  25.420  24.841 -0.0569 -0.2285 -0.3177
78106W        W21023  14.573  23.052  24.911  0.2312 -0.0295 -0.0298
78107W        W21024  14.503  23.897  25.230  0.4472 -0.1908  0.0228
78108W        W21025  17.406  23.782  25.251 -0.2423  0.0709 -0.1317
78109W        W21026  17.450  25.342  24.000  0.2291 -0.1393 -0.1236
78110W        W21027  16.079  24.535  22.065  0.3573 -0.2791 -0.1782
78111W        W21028  17.910  23.602  26.541 -0.0628  0.2232  0.0054
78112W        W21029  13.267  25.205  23.335 -0.0898 -0.0458  0.2460
78113W        W21030  16.395  21.874  26.905 -0.2502  0.0991  0.0658
78114W        W21031  16.345  21.541  25.061 -0.0089  0.0272 -0.1528
78115W        W21032  14.059  22.129  23.525  0.0772  0.1660  0.1791
78116W        W21033  15.469  20.777  23.554 -0.0391 -0.0821  0.2022
78117W        W21034  17.395  24.071  22.635  0.1384  0.0474  0.1474
78118W        W21035  18.371  25.247  24.485 -0.2324  0.0634  0.3727
78119W        W21036  16.238  23.556  23.916  0.0424 -0.2225  0.3465
78120W        W21037  16.890  24.394  24.797  0.1229 -0.2770 -0.1551
78121W        W21038  12.636  21.603  27.643  0.0913  0.0263  0.1202
78122W        W21039  16.845  24.880  24.724 -0.2015 -0.1309 -0.0311
78123W        W21040  16.483  23.677  25.220 -0.2736  0.2082 -0.2157
78124W        W21041  18.810  25.616  24.475 -0.2545  0.1198  0.1068
78125W        W21042  17.139  22.275  22.530 -0.3506 -0.0453  0.1821
78126W        W21043  17.116  23.676  22.737 -0.1388  0.1418 -0.1148
78127W        W21044  15.886  20.228  24.268  0.0436 -0.0039  0.2571
78128W        W21045  15.578  23.799  23.948  0.1952  0.1462  0.2573
78129W        W21046  16.855  24.493  25.628  0.2342 -0.3498  0.1302
78130W        W21047  15.269  21.222  23.714  0.1872  0.1941 -0.0631
78131W        W21048  16.531  22.901  23.231  0.0509 -0.0897 -0.1620
78132W        W21049  18.030  24.192  21.327  0.0893  0.0166  0.0290
78133W        W21050  13.529  24.164  23.153 -0.0338  0.2579  0.0435
78134W        W21051  16.293  21.912  23.053 -0.0496  0.1585  0.0129
78135W        W21052  18.019  21.501  24.833  0.1333  0.0672  0.0311
78136W        W21053  16.286  23.434  23.401 -0.1832  0.2947 -0.1695
78137W        W21054  16.294  22.865  24.776  0.3575 -0.0560  0.3920
78138W        W21055  16.176  23.073  26.526  0.0287 -0.0879 -0.1259
78139W        W21056  16.811  24.804  23.651 -0.0191 -0.2410 -0.1094
78140W        W21057  16.786  25.325  25.316  0.2702  0.1365 -0.1107
78141W        W21058  16.619  24.873  26.980 -0.0367 -0.1154 -0.1130
78142W        W21059  15.769  23.504  23.510 -0.2074 -0.1159  0.2720
78143W        W21060  17.053  23.716  23.398  0.1593 -0.3695 -0.2139
78144W        W21061  15.084  21.438  23.264  0.2390 -0.0914 -0.0383
78145W        W21062  17.979  21.857  24.353  0.2424  0.3057 -0.1577
78146W        W21063  14.895  23.339  25.800 -0.1225  0.0200 -0.2322
78147W        W21064  16.538  24.313  25.128  0.0602  0.1285 -0.0436
78148W        W21065  15.180  21.041  22.859  0.1726  0.0653 -0.4390
78149W        W21066  16.672  22.078  22.683  0.0817  0.0266  0.0779
78150W        W21067  14.053  22.237  25.724  0.0847  0.0340 -0.0448
78151W        W21068  16.307  24.084  24.251 -0.1598  0.0170  0.5176
78152W        W21069  16.212  24.736  29.449  0.3719  0.0463  0.2532
78153W        W21070  14.140  20.220  25.727  0.2486 -0.0124  0.1618
78154W        W21071  17.090  21.627  26.360 -0.0333  0.2488 -0.1891
78155W        W21072  16.658  22.358  26.396 -0.0784  0.2758  0.0530
78156W        W21073  14.552  23.146  28.042 -0.3598 -0.0052  0.0246
78157W        W21074  16.689  24.978  28.853 -0.0919 -0.0761 -0.3084
78158W        W21075  15.729  20.491  27.032  0.3184  0.1396  0.2417
78159W        W21076  16.801  25.716  28.364  0.2838  0.3151  0.0011
78160W        W21077  19.077  23.165  30.067 -0.0357  0.1225  0.2603
78161W        W21078  16.640  23.153  26.267 -0.2050  0.0183 -0.1237
78162W        W21079  16.297  25.146  29.097 -0.2498 -0.0359 -0.2504
78163W        W21080  16.254  25.832  27.969  0.2735 -0.0295  0.0421
78164W        W21081  15.047  19.338  25.704 -0.1680 -0.1636 -0.0515
78165W        W21082  15.231  21.508  27.449  0.0675  0.1291 -0.0514
78166W        W21083  17.701  21.483  25.417  0.0589 -0.0909 -0.1844
78167W        W21084  15.163  22.024  25.406  0.0082  0.1253 -0.2183
78168W        W21085  15.688  22.855  28.647 -0.2352 -0.0322  0.0297
78169W        W21086  15.379  24.226  28.912 -0.2462  0.0461 -0.1969
78170W        W21087  16.012  27.786  29.469  0.0755 -0.0017 -0.1380
78171W        W21088  16.645  21.546  27.220  0.0695  0.4434  0.1448
78172W        W21089  16.093  23.303  29.732 -0.2144 -0.1979  0.2008
78173W        W21090  15.785  24.595  26.593  0.0209  0.1424  0.2931
78174W        W21091  14.222  21.691  25.181 -0.1724 -0.1224  0.0227
78175W        W21092  12.503  24.134  29.656 -0.1817 -0.0891 -0.0766
78176W        W21093  17.026  24.739  29.715  0.2905  0.1092 -0.1802
78177W        W21094  17.185  21.717  25.304  0.2334  0.1504  0.0933
78178W        W21095  17.964  22.289  28.005  0.3172  0.4914 -0.0325
78179W        W21096  15.659  25.865  27.402  0.1283  0.2312 -0.1434
78180W        W21097  17.023  23.128  29.061  0.3922 -0.2791  0.1076
78181W        W21098  17.922  24.499  30.261 -0.0877  0.3021  0.0905
78182W        W21099  12.673  25.328  27.605  0.0525  0.1846 -0.0866
78183W        W21100  13.329  23.591  28.185  0.0241  0.2388  0.1427
78184W        W21101  14.684  26.393  28.646  0.0937  0.1634  0.3047
78185W        W21102  16.882  21.979  26.645  0.2611 -0.1688  0.2410
78186W        W21103  17.643  24.747  31.149  0.0003 -0.3591  0.0364
78187W        W21104  16.052  25.036  29.822  0.3682  0.1786  0.1103
78188W        W21105  13.858  22.814  28.885  0.0709  0.0230  0.0393
78189W        W21106  17.031  26.618  29.861 -0.1794  0.0016 -0.0488
78190W        W21107  15.736  21.828  31.766  0.0243 -0.1978 -0.0019
78191W        W21108  16.914  21.125  28.357 -0.0950  0.2094  0.0423
78192W        W21109  15.245  22.763  28.322 -0.1733  0.0262 -0.1062
78193W        W21110  14.036  24.247  28.142  0.3594  0.0715  0.2551
78194W        W21111  16.068  22.668  30.157  0.1742 -0.3608  0.0944
78195W        W21112  15.952  22.655   1.617 -0.1805 -0.0881 -0.3093
78196W        W21113  15.141  25.003  28.187  0.2334  0.0303 -0.0467
78197W        W21114  16.942  24.627  28.257 -0.1635 -0.1511  0.0417
78198W        W21115  15.894  24.202  26.080  0.1358  0.2441  0.0531
78199W        W21116  16.482  23.345  24.810 -0.0597  0.2767 -0.0949
78200W        W21117  15.307  20.761  26.836  0.0174  0.0297 -0.0315
78201W        W21118  18.896  23.445  25.909  0.0453 -0.1274 -0.0636
78202W        W21119  16.170  20.425  25.945 -0.0805  0.4651 -0.0713
78203W        W21120  17.841  25.462  26.762 -0.2122  0.0692 -0.4762
78204W        W21121  14.568  21.842  28.983 -0.0686 -0.3748  0.1135
78205W        W21122  16.845  23.750  29.951  0.2115  0.0221 -0.0561
78206W        W21123  15.721  23.090  25.341 -0.0140  0.0150 -0.0732
78207W        W21124  15.691  23.261  29.469  0.2045 -0.5458  0.2215
78208W        W21125  15.173  24.614  28.598  0.1110  0.1448  0.3185
78209W        W21126  13.878  26.199  30.052 -0.1785 -0.1024 -0.1255
78210W        W21127  17.042  24.495  27.061  0.0814  0.3454 -0.3656
78211W        W21128  16.867  25.164  28.367  0.2006  0.0399  0.0188
78212W        W21129  15.908  24.706  26.126  0.0365  0.1139 -0.2843
78213W        W21130  13.202  21.919  27.484  0.0056 -0.0965 -0.1113
78214W        W21131  14.872  24.368  29.922 -0.1379  0.0239 -0.0647
78215W        W21132  15.200  22.907  29.707 -0.3411 -0.3052 -0.3489
78216W        W21133  14.796  19.638  26.316 -0.2616 -0.2892  0.1575
78217W        W21134  18.205  22.730  31.899  0.5012 -0.4124  0.1988
78218W        W21135  14.694  25.160  29.093 -0.3155 -0.0761  0.1848
78219W        W21136  17.533  20.616  24.660  0.0165 -0.0037 -0.6992
78220W        W21137  15.892  24.526  29.107  0.1097 -0.0657  0.0958
78221W        W21138  16.802  24.477  30.120 -0.1629  0.0244  0.0468
78222W        W21139  15.291  22.682  25.062 -0.2063 -0.0050 -0.1054
78223W        W21140  16.696  20.165  25.931 -0.1680 -0.3931  0.0678
78224W        W21141  16.472  19.642  27.377  0.0488 -0.3555  0.0739
78225W        W21142  16.404  25.442  27.588  0.0610  0.0711 -0.3226
78226W        W21143  17.123  22.810  27.404  0.1721 -0.0554  0.0408
78227W        W21144  16.717  25.423  29.219 -0.0060  0.0588 -0.2544
78228W        W21145  17.458  22.267  27.827 -0.1414 -0.0836 -0.1848
78229W        W21146  15.319  24.532  30.451 -0.1656 -0.3092 -0.1266
78230W        W21147  13.876  24.043   0.185  0.1494 -0.0127  0.0926
78231W        W21148  15.986  25.478  30.049  0.0044  0.1708 -0.1265
78232W        W21149  16.028  24.364  26.968  0.0929  0.0599  0.0433
78233W        W21150  14.920  20.781  26.346  0.1082 -0.0264 -0.1749
78234W        W21151  13.847  22.953  25.681 -0.0332 -0.2253 -0.1020
78235W        W21152  15.297  22.290  28.798 -0.0131  0.3491 -0.2016
78236W        W21153  15.213  23.711  31.775 -0.1156 -0.1843  0.0855
78237W        W21154  16.010  22.372  25.877  0.2275  0.1830  0.3156
78238W        W21155  16.254  21.020  28.945  0.0845  0.0380 -0.2411
78239W        W21156  19.171  21.582  25.747 -0.4174  0.1472 -0.1864
78240W        W21157  15.867  23.319  27.775 -0.0993 -0.1082  0.0744
78241W        W21158  17.233  25.374  30.077  0.2753  0.3570 -0.1876
78242W        W21159  17.536  21.339  27.157  0.2606  0.1630  0.3080
78243W        W21160  17.599  26.594  26.553 -0.1409 -0.1857  0.0665
78244W        W21161  13.003  22.149  31.001  0.1274 -0.1734  0.2840
78245W        W21162  17.371  23.268  27.842 -0.1332  0.0329 -0.1058
78246W        W21163  15.651  24.080  29.318  0.0858 -0.0535 -0.1074
78247W        W21164  16.763  22.572  28.564 -0.2613 -0.0718  0.0551
78248W        W21165  14.910  21.816  27.041  0.1304  0.3683 -0.2539
78249W        W21166  14.521  22.557  25.821  0.2706 -0.1285  0.3574
78250W        W21167  17.658  22.478  26.457  0.2116 -0.0122  0.1775
78251W        W21168  15.401  23.063  27.835 -0.0096  0.1625 -0.4793
78252W        W21169  13.056  23.532  27.580  0.3147  0.2355  0.0582
78253W        W21170  16.688  20.710  28.069  0.0403  0.0376  0.0320
78254W        W21171  17.225  23.608  27.469  0.0641  0.0292 -0.1886
78255W        W21172  18.642  28.325  30.365  0.2560 -0.2109  0.2895
78256W        W21173  16.955  25.988  26.114  0.0987 -0.0734 -0.2047
78257W        W21174  16.817  20.602  27.141  0.2230  0.1786 -0.0844
78258W        W21175  14.648  20.707  27.425 -0.3499 -0.0811 -0.0051
78259W        W21176  16.455  24.994  27.429  0.1833 -0.0691  0.0239
78260W        W21177  15.177  23.858  30.646 -0.1821  0.1264  0.0204
78261W        W21178  13.686  19.055  25.864  0.2208  0.1620  0.4319
78262W        W21179  18.750  25.607  30.360 -0.0436 -0.3036  0.1682
78263W        W21180  15.224  23.146  27.377 -0.1846  0.0995  0.1011
78264W        W21181  15.648  22.939  29.102 -0.4861 -0.2981 -0.1335
78265W        W21182  14.263  23.410  31.670  0.1741  0.0056  0.2905
78266W        W21183  17.497  21.821  27.348  0.0975  0.1882 -0.3849
78267W        W21184  17.893  19.971  26.685 -0.3750 -0.0657 -0.0817
78268W        W21185  13.713  22.408  27.508  0.1732 -0.1882 -0.1284
78269W        W21186  15.997  24.989  30.387 -0.0514 -0.3587  0.0760
78270W        W21187  14.353  23.688  26.922 -0.1335 -0.1879 -0.2094
78271W        W21188  15.115  23.673  28.237  0.0058  0.1929 -0.4599
78272W        W21189  16.860  25.191  27.827  0.1206  0.0101  0.1363
78273W        W21190  18.863  22.828  26.071 -0.2249 -0.0143  0.0777
78274W        W21191  15.679  24.656  30.788 -0.0915 -0.0810  0.1197
78275W        W21192  16.134  22.685  28.984  0.0435 -0.0815 -0.2488
78276W        W21193  17.329  22.575  24.771 -0.4055 -0.1001 -0.0962
78277W        W21194  13.950  24.298  30.428 -0.0468 -0.1129  0.1016
78278W        W21195  18.366  20.944  26.999 -0.0436 -0.2821  0.0700
78279W        W21196  18.160  22.763  27.974 -0.0023 -0.4077  0.0409
78280W        W21197  16.740  24.891  29.353  0.0267  0.1082  0.2963
78281W        W21198  16.558  22.371  26.906  0.0572 -0.0343 -0.0768
78282W        W21199  16.888  22.430  25.272  0.4267 -0.2525 -0.0143
78283W        W21200  17.399  22.280  26.815 -0.1153  0.0549 -0.1082
78284W        W21201  15.259  26.327  31.300  0.0108 -0.0151 -0.2294
78285W        W21202  15.509  23.720  27.445 -0.2168  0.0555 -0.0585
78286W        W21203  16.313  26.350  27.064 -0.2086  0.3994 -0.1166
78287W        W21204  15.732  22.134  26.586  0.2037  0.0678  0.1534
78288W        W21205  17.484  26.034  27.406  0.1873  0.3424  0.1800
78289W        W21206  15.925  23.654  29.197 -0.0318 -0.1984  0.1314
78290W        W21207  17.437  24.392  29.714 -0.2294  0.0055  0.2770
78291W        W21208  16.508  24.976  29.831  0.1044  0.0726 -0.3462
78292W        W21209  17.076  21.892  27.723  0.2325  0.0735  0.1101
78293W        W21210  16.079  21.435  25.955 -0.2662  0.0813 -0.1684
78294W        W21211  15.816  20.714  26.108  0.1462  0.1342 -0.0350
78295W        W21212  14.248  25.219  25.636 -0.0714 -0.3328 -0.0853
78296W        W21213  18.049  23.768  30.004  0.0333 -0.1597 -0.0723
78297W        W21214  17.065  21.636  26.927 -0.1253 -0.1309 -0.3604
78298W        W21215  16.253  20.721  27.097  0.0212 -0.2956  0.0538
78299W        W21216  17.287  24.015  30.988  0.2221  0.0119 -0.0023
78300W        W21217  17.356  22.556  25.881  0.2742 -0.3284 -0.6291
78301W        W21218  16.891  21.195  25.821 -0.1053 -0.2728  0.4790
78302W        W21219  12.685  24.266  25.741 -0.0581 -0.1182 -0.3395
78303W        W21220  18.220  21.780  31.038  0.1879  0.5047 -0.0646
78304W        W21221  14.452  24.691  29.846  0.3097  0.1429 -0.1221
78305W        W21222  16.117  25.985  29.447 -0.3470 -0.5752 -0.0370
78306W        W21223  16.254  24.989  31.668 -0.0636  0.0518 -0.2461
78307W        W21224  17.498  22.770  27.032  0.4008 -0.1512  0.1023
78308W        W21225  16.829  22.274  29.724 -0.0714 -0.1401 -0.1554
78309W        W21226  16.114  19.291  24.039  0.0748  0.2604  0.0899
78310W        W21227  13.682  23.827  27.745 -0.1694 -0.1472  0.0062
78311W        W21228  16.031  22.993  24.335 -0.1898  0.0830  0.0620
78312W        W21229  16.873  20.987  27.530 -0.0562  0.3075 -0.1449
78313W        W21230  15.721  24.349  28.552  0.3347  0.1352 -0.1582
78314W        W21231  16.325  23.649  28.656 -0.0287  0.2338 -0.2410
78315W        W21232  15.868  23.811  29.717 -0.1522  0.0617  0.1896
78316W        W21233  14.470  25.529  26.533  0.1556 -0.1339 -0.0529
78317W        W21234  16.329  20.611  25.465 -0.1236  0.1537  0.1680
78318W        W21235  13.359  24.741  27.247 -0.1716 -0.1402 -0.3543
78319W        W21236  14.980  21.060  24.856 -0.0028  0.3462 -0.0291
78320W        W21237  13.575  23.885  29.224 -0.1042 -0.1011  0.2628
78321W        W21238  17.299  20.354  25.064 -0.1221  0.0148 -0.0191
78322W        W21239  16.448  21.608  25.617 -0.0251  0.2214  0.0709
78323W        W21240  15.089  23.329  30.921 -0.0498  0.1286 -0.3575
78324W        W21241  17.271  22.721  28.799 -0.0299  0.0383 -0.1056
78325W        W21242  16.264  21.822  28.503 -0.1357 -0.3175 -0.0431
78326W        W21243  17.416  24.204  27.995  0.0624  0.3402  0.1869
78327W        W21244  16.439  23.554  27.081 -0.2104 -0.1934  0.2855
78328W        W21245  17.442  23.538  29.257 -0.1579 -0.3003  0.0020
78329W        W21246  17.807  23.263   0.600 -0.1518 -0.0606 -0.2025
78330W        W21247  13.072  21.647  26.408  0.0947  0.0653 -0.3984
78331W        W21248  17.091  20.114  28.790 -0.1025  0.1076 -0.3081
78332W        W21249  17.043  20.492  26.202  0.0462 -0.3041  0.0211
78333W        W21250  15.289  25.447  28.013  0.0470  0.0742  0.0532
78334W        W21251  17.275  25.892  28.432 -0.0446 -0.1998  0.4374
78335W        W21252  15.066  21.423  25.178 -0.1516  0.1924  0.2844
78336W        W21253  14.200  24.634  27.828 -0.2873  0.0790 -0.0105
78337W        W21254  16.708  22.234  30.381 -0.1360  0.0533  0.1159
78338W        W21255  19.210  22.419  29.546 -0.2462  0.0432 -0.1195
78339W        W21256  16.761  23.338  30.346  0.1195 -0.0359  0.0956
78340W        W21257  14.445  21.723  24.646 -0.3564  0.3036  0.0666
78341W        W21258  17.678  21.844  27.892 -0.1986  0.2749 -0.0133
78342W        W21259  16.409  24.903  28.411 -0.2739  0.0961  0.2308
78343W        W21260  15.857  21.771  31.076 -0.3278  0.0440 -0.3323
78344W        W21261  14.779  24.602  30.389  0.0750  0.1002 -0.0480
78345W        W21262  15.677  19.705  26.164  0.2613  0.2160  0.3517
78346W        W21263  16.245  24.222  27.791 -0.1037  0.3989 -0.0075
78347W        W21264  15.664  21.621  29.220  0.2659 -0.1166 -0.1726
78348W        W21265  14.406  24.056  29.608 -0.1143  0.2843  0.2860
78349W        W21266  14.609  22.178  25.424  0.2782  0.2055 -0.2549
78350W        W21267  14.324  24.746  28.338  0.2936  0.0716  0.2467
78351W        W21268  16.655  23.337  29.720 -0.0373 -0.1312  0.0361
78352W        W21269  15.668  24.809  29.545 -0.1420  0.0612  0.0767
78353W        W21270  16.174  22.950  27.909  0.2002  0.3177 -0.1066
78354W        W21271  12.151  24.166  30.299 -0.0229  0.0392 -0.2060
78355W        W21272  17.488  20.739  25.296  0.0303 -0.0261 -0.0230
78356W        W21273  16.424  23.489  26.565 -0.2689 -0.1261  0.0817
78357W        W21274  16.845  21.772  28.779  0.0804 -0.0391  0.0472
78358W        W21275  17.094  20.494  29.146  0.2306  0.1592  0.0613
78359W        W21276  16.895  22.667  26.107  0.1831  0.1001  0.4415
78360W        W21277  16.352  21.091  28.140 -0.0985  0.2833  0.0417
78361W        W21278  17.636  22.953  28.531  0.4924 -0.2925 -0.0031
78362W        W21279  15.491  24.105  27.975 -0.2631  0.1476  0.0022
78363W        W21280  14.694  23.735  27.989 -0.1843  0.0788  0.2534
78364W        W21281  17.277  25.413  31.564  0.1547  0.2594 -0.0094
78365W        W21282  14.171  24.975  31.078 -0.0631  0.0613 -0.0578
78366W        W21283  16.200  22.159  26.490 -0.3350  0.2827  0.1351
78367W        W21284  15.016  20.419  26.639 -0.0365 -0.0545  0.2833
78368W        W21285  16.337  22.472  27.862  0.0212  0.0614  0.2721
78369W        W21286  17.080  24.573  29.217  0.1455 -0.1647 -0.2277
78370W        W21287  15.863  25.014  27.482  0.3175 -0.2653 -0.1588
78371W        W21288  17.516  21.578  24.903  0.0722 -0.2318  0.0748
78372W        W21289  15.848  24.173  27.396 -0.3087  0.0622  0.1665
78373W        W21290  15.987  21.329  25.391  0.0986 -0.0913  0.1547
78374W        W21291  17.826  23.151  24.838 -0.0763  0.1853 -0.1344
78375W        W21292  14.368  22.841  29.063  0.0248  0.1697 -0.1159
78376W        W21293  17.275  21.509  30.775  0.0941  0.0658 -0.0964
78377W        W21294  16.290  23.943  26.856  0.0651 -0.0111 -0.5057
78378W        W21295  15.823  20.036  27.261  0.1033  0.4784 -0.0349
78379W        W21296  15.666  23.775  28.354 -0.0870  0.1432  0.1383
78380W        W21297  17.165  21.389  28.790  0.1448  0.1361 -0.2253
78381W        W21298  15.852  23.841  31.142 -0.0124  0.0501 -0.2731
78382W        W21299  13.384  24.186  31.461  0.0583 -0.1004 -0.3407
78383W        W21300  18.268  24.723  29.541 -0.1001 -0.0963  0.3000
78384W        W21301  18.392  21.611  26.250  0.1442  0.3825 -0.0152
78385W        W21302  17.609  21.953  29.981 -0.1992  0.0115  0.0339
78386W        W21303  16.957  21.993  24.897  0.2037 -0.0483  0.0334
78387W        W21304  16.586  22.159  28.308 -0.1923 -0.5551 -0.0227
78388W        W21305  14.758  22.941  28.633  0.1126 -0.1063 -0.0373
78389W        W21306  17.612  23.339  29.740  0.2021 -0.2916  0.0762
78390W        W21307  14.545  19.850  25.795  0.0443 -0.1917 -0.3347
78391W        W21308  17.092  22.370  30.683 -0.0528  0.1999  0.0751
78392W        W21309  13.676  24.536  26.624  0.2808  0.0701 -0.0377
78393W        W21310  16.914  24.184  29.677 -0.0287  0.3409 -0.2957
78394W        W21311  16.856  23.306  27.386  0.3037  0.0350 -0.1079
78395W        W21312  14.237  23.011  27.649 -0.0464 -0.3520  0.0903
78396W        W21313  14.418  25.430  28.255 -0.0394 -0.1440 -0.0306
78397W        W21314  16.343  21.059  25.199  0.0065 -0.1255 -0.0654
78398W        W21315  16.150  21.616  26.412 -0.0977 -0.0125 -0.3622
78399W        W21316  15.778  25.023  29.081 -0.0938  0.0866 -0.0320
78400W        W21317  16.491  23.787  28.035  0.1372  0.1699 -0.0450
78401W        W21318  15.769  20.049  26.709 -0.1299 -0.1630 -0.0732
78402W        W21319  16.542  23.194  28.754  0.0065 -0.0017  0.1818
78403W        W21320  15.453  24.391  26.254 -0.0648 -0.0820 -0.3196
78404W        W21321  16.232  22.579  28.430 -0.0883  0.1190 -0.0658
78405W        W21322  16.954  26.533  29.021  0.0213 -0.3865  0.2225
78406W        W21323  16.313  25.301  30.780  0.2624 -0.0162 -0.0085
78407W        W21324  15.571  26.363  30.015  0.1377 -0.5394 -0.0891
78408W        W21325  15.554  22.160  27.561  0.1005  0.1611 -0.4498
78409W        W21326  16.067  20.370  26.445 -0.1672 -0.1494  0.0143
78410W        W21327  16.255  25.779  30.522  0.4968 -0.0668  0.1900
78411W        W21328  16.907  22.864  29.842  0.3126 -0.0488  0.0502
78412W        W21329  16.856  26.192  28.628 -0.2845  0.2525 -0.1755
78413W        W21330  15.996  24.834  31.222 -0.0675 -0.0685 -0.1861
78414W        W21331  17.390  23.811  29.749 -0.2160  0.2383  0.0206
78415W        W21332  18.853  22.596  28.792 -0.1876 -0.2209  0.1766
78416W        W21333  15.226  23.165  29.250 -0.0499 -0.0681 -0.2952
78417W        W21334  15.718  23.000  27.351 -0.0740 -0.2112  0.1307
78418W        W21335  17.298  23.113  30.055  0.1583  0.2089 -0.2939
78419W        W21336  16.123  23.074  28.501  0.3675  0.3142  0.0254
78420W        W21337  15.582  22.094  25.695  0.0569  0.2290  0.1483
78421W        W21338  15.698  23.165  26.304  0.0842 -0.2535 -0.0452
78422W        W21339  15.551  24.989  31.441  0.1194  0.2001 -0.0623
78423W        W21340  13.913  24.556  30.861 -0.2228  0.1128 -0.1381
78424W        W21341  13.071  24.575  25.884 -0.1447  0.0660  0.0266
78425W        W21342  16.267  23.893  27.388 -0.2503 -0.1213 -0.3292
78426W        W21343  15.041  22.740  30.182 -0.0665  0.0257 -0.0854
78427W        W21344  16.097  24.721  28.717 -0.1625  0.0814  0.2707
78428W        W21345  15.796  20.451  25.503 -0.0233 -0.3570 -0.0116
78429W        W21346  14.408  22.709  28.427  0.2830 -0.1724 -0.3457
78430W        W21347  14.838  22.098  25.863  0.0779 -0.1384  0.1041
78431W        W21348  17.770  22.607  27.630 -0.1101  0.0716  0.0368
78432W        W21349  15.508  23.223  28.296  0.1306 -0.0956  0.1765
78433W        W21350  20.491  26.631  28.773 -0.2007 -0.2014 -0.2294
78434W        W21351  17.114  23.379  25.370 -0.1473  0.0652  0.2746
78435W        W21352  17.164  23.096  26.924 -0.0140  0.1276  0.1050
78436W        W21353  16.705  20.692  25.861  0.4822 -0.3012 -0.1623
78437W        W21354  17.291  26.717  30.524  0.1623 -0.1617  0.3446
78438W        W21355  16.538  22.973  28.296 -0.0366  0.5402 -0.3176
78439W        W21356  15.585  20.066  25.196 -0.2628  0.0721 -0.1216
78440W        W21357  14.928  25.553  29.520  0.1706  0.0289 -0.3419
78441W        W21358  18.215  21.272  28.850  0.1958  0.0498 -0.0414
78442W        W21359  14.397  23.790  30.429  0.0130  0.2865  0.0288
78443W        W21360  15.521  23.277  24.929 -0.0945 -0.2397  0.1476
78444W        W21361  14.901  22.450  28.486 -0.1229  0.1627  0.3047
78445W        W21362  16.197  24.179  29.281 -0.0358  0.2562 -0.1474
78446W        W21363  17.447  21.835  26.592  0.0296  0.3750 -0.2676
78447W        W21364  16.256  25.867  27.348  0.3377  0.2027  0.0342
78448W        W21365  14.139  21.449  28.379  0.1238 -0.0686 -0.0575
78449W        W21366  15.929  24.623  28.108 -0.0761  0.3099  0.2813
78450W        W21367  16.264  25.672  28.980 -0.0672 -0.0551  0.1693
78451W        W21368  17.581  28.299  29.973 -0.2478 -0.2106 -0.1810
78452W        W21369  13.806  20.896  27.641 -0.2006  0.1230 -0.3995
78453W        W21370  16.510  21.821  24.666 -0.0743  0.1682 -0.0045
78454W        W21371  14.030  23.866  29.931 -0.1925 -0.1330  0.1176
78455W        W21372  19.166  21.834  28.687  0.1518 -0.1673  0.2229
78456W        W21373  15.945  23.808  27.771 -0.0665  0.0419 -0.0837
78457W        W21374  18.079  22.333  26.704  0.1264 -0.0293  0.0006
78458W        W21375  17.922  22.553  30.426 -0.1949 -0.0311 -0.4662
78459W        W21376  14.552  22.974  30.341  0.0481  0.0568  0.3099
78460W        W21377  16.568  23.355  29.210  0.1446  0.0924 -0.0348
78461W        W21378  15.861  23.892  28.763  0.2724  0.1903  0.1408
78462W        W21379  15.945  23.168  26.945  0.0508 -0.1785 -0.1366
78463W        W21380  16.556  27.757  29.220  0.0926  0.2717 -0.1227
78464W        W21381  16.009  22.175  27.099  0.4316 -0.1906  0.2059
78465W        W21382  16.431  21.094  25.677  0.1141 -0.1582  0.0919
78466W        W21383  14.719  23.289  29.040  0.3771  0.2415 -0.4991
78467W        W21384  17.851  22.927  29.689  0.0559 -0.0754  0.1123
78468W        W21385  16.528  26.114  31.928  0.1185 -0.3561  0.1261
78469W        W21386  16.335  21.180  26.605  0.0991 -0.0985 -0.1754
78470W        W21387  17.057  23.740  24.426 -0.1000 -0.0009 -0.1254
78471W        W21388  16.738  23.809  27.503  0.0585  0.0903  0.0590
78472W        W21389  17.252  25.484  26.481 -0.1325  0.2268  0.0857
78473W        W21390  17.107  23.104  28.318  0.1377 -0.0215  0.3753
78474W        W21391  16.767  24.746  30.755  0.0365  0.1874 -0.0477
78475W        W21392  15.015  22.477  31.129 -0.0567 -0.2521  0.0727
78476W        W21393  16.438  24.257  29.756 -0.2652 -0.0806 -0.0228
78477W        W21394  18.324  22.306  28.676 -0.2981 -0.2684  0.0711
78478W        W21395  15.528  21.117  25.862 -0.0213  0.2372  0.0985
78479W        W21396  15.262  21.961  26.104 -0.0477  0.1877 -0.2360
78480W        W21397  14.564  24.165  29.137  0.0404  0.0100  0.1870
78481W        W21398  14.978  19.797  25.440  0.0389 -0.0018  0.0920
78482W        W21399  16.368  23.775  29.662 -0.0307  0.1309  0.1407
78483W        W21400  15.774  21.811  26.130  0.3459 -0.0153 -0.3044
78484W        W21401  18.121  20.363  28.807  0.0822  0.0210 -0.0532
78485W        W21402  16.738  26.212  29.973  0.0297  0.4553  0.0131
78486W        W21403  16.048  24.717   1.497 -0.1185 -0.0202  0.1713
78487W        W21404  14.759  22.330  26.797  0.0811 -0.0257  0.1955
78488W        W21405  17.468  23.702  31.431  0.1548  0.0705  0.1825
78489W        W21406  16.465  26.398  28.951 -0.1658  0.0359  0.0709
78490W        W21407  15.953  25.481  27.317 -0.0903  0.0435  0.1336
78491W        W21408  15.767  25.338  29.537  0.0699 -0.1247 -0.3486
78492W        W21409  16.540  20.432  26.292  0.1901 -0.0896 -0.1029
78493W        W21410  18.353  21.991  27.769  0.2989 -0.0010 -0.0948
78494W        W21411  15.693  23.416  28.697 -0.2021  0.0944 -0.1388
78495W        W21412  18.425  20.931  24.715  0.2141 -0.5348  0.0994
78496W        W21413  17.987  19.947  25.350 -0.3138  0.0301  0.0035
78497W        W21414  16.605  25.440  30.164 -0.1277 -0.3217  0.0308
78498W        W21415  13.666  23.896  28.285 -0.2399 -0.2736 -0.0445
78499W        W21416  16.211  23.020  27.352 -0.0603  0.1347  0.0356
78500W        W21417  13.736  24.597  28.419  0.0649 -0.1951 -0.0466
78501W        W21418  15.435  21.548  30.968  0.2802  0.0267  0.2538
78502W        W21419  15.176  23.793   0.670 -0.0878  0.1726  0.0144
78503W        W21420  15.010  25.597  27.331  0.1260  0.4955  0.0129
78504W        W21421  16.663  23.175  26.912  0.2316  0.1116 -0.1981
78505W        W21422  17.054  22.595  26.977 -0.1169  0.2132  0.0210
78506W        W21423  14.956  21.539  27.881  0.1019 -0.2155 -0.2167
78507W        W21424  15.912  19.250  27.033  0.1811  0.1155 -0.0672
78508W        W21425  16.101  23.970  28.281 -0.1413 -0.0894  0.0820
78509W        W21426  18.701  26.570  28.700  0.3057  0.0519 -0.1896
78510W        W21427  16.827  21.075  26.278 -0.1324 -0.1275  0.1055
78511W        W21428  17.797  24.705  29.814 -0.1369  0.0343 -0.1453
78512W        W21429  16.624  22.938  27.716  0.0235 -0.0189  0.0880
78513W        W21430  16.750  21.033  30.490 -0.4254  0.0212  0.0073
78514W        W21431  15.763  21.658  28.317 -0.3494 -0.1228  0.1553
78515W        W21432  15.858  20.317  24.793  0.3160  0.0375  0.2477
78516W        W21433  15.205  21.073  29.921  0.1416 -0.2835  0.2515
78517W        W21434  18.348  22.888  26.785 -0.1384 -0.1775 -0.2058
78518W        W21435  15.315  23.246  26.055  0.1008  0.5565 -0.3821
78519W        W21436  17.004  24.912  30.266  0.0781 -0.4866 -0.2191
78520W        W21437  17.644  25.143  29.011  0.2267 -0.1684 -0.2239
78521W        W21438  14.262  21.175  29.980 -0.3866 -0.0829 -0.1019
78522W        W21439  14.777  23.697  26.627 -0.1772  0.1779 -0.3208
78523W        W21440  18.445  24.108  30.118  0.0406  0.4444 -0.0499
78524W        W21441  17.772  22.271  26.018 -0.0019  0.1026  0.0600
78525W        W21442  15.928  21.456  26.800 -0.1358  0.1144 -0.0429
78526W        W21443  17.958  22.600  28.416 -0.0911  0.0328  0.1789
78527W        W21444  13.509  22.888  29.309 -0.1278  0.1720 -0.0669
78528W        W21445  14.784  24.960  28.608 -0.1576 -0.0846 -0.1461
78529W        W21446  18.223  24.542  31.038  0.1028  0.2873 -0.2444
78530W        W21447  14.790  20.048  27.620  0.1260 -0.0247  0.0309
78531W        W21448  17.089  23.776  27.946 -0.0516  0.0211 -0.0081
78532W        W21449  15.263  23.875  26.437 -0.0776  0.1480 -0.4690
78533W        W21450  12.956  23.824  29.877  0.0800  0.3286 -0.2057
78534W        W21451  16.830  21.396  27.870 -0.1989 -0.1667  0.0712
78535W        W21452  15.527  24.142  30.865 -0.2192  0.1324  0.1766
78536W        W21453  17.822  24.710  27.272 -0.2970  0.2734  0.1820
78537W        W21454  17.042  22.669  29.313  0.0019  0.2341  0.2502
78538W        W21455  16.361  23.448  27.632  0.1500 -0.2379 -0.0888
78539W        W21456  18.923  23.435  24.121  0.0352 -0.0149 -0.2065
78540W        W21457  18.431  23.891  29.650  0.1634  0.2134  0.0880
78541W        W21458  18.948  25.218  30.605  0.1925 -0.0100  0.0926
78542W        W21459  16.569  26.385  29.467 -0.0834 -0.0686  0.1703
78543W        W21460  15.988  22.837  29.479  0.0175  0.0659 -0.1001
78544W        W21461  15.372  20.381  27.948  0.1500  0.2390  0.2402
78545W        W21462  15.153  22.763  28.887 -0.2446 -0.2548  0.0870
78546W        W21463  15.636  25.110  26.861  0.0742 -0.3044  0.2362
78547W        W21464  17.532  20.570  27.182  0.0302  0.0805  0.0737
78548W        W21465  15.661  22.498  27.106  0.5449 -0.1202 -0.0340
78549W        W21466  17.278  21.206  24.641 -0.0640 -0.0275  0.0420
78550W        W21467  15.741  22.380  28.554  0.1688 -0.0063  0.2575
78551W        W21468  16.332  23.437  30.687 -0.0810  0.0805 -0.3324
78552W        W21469  17.159  23.208  29.540  0.3917  0.0647  0.2914
78553W        W21470  17.722  22.426  29.991 -0.0737 -0.1771  0.0501
78554W        W21471  15.009  23.169  28.302 -0.0276 -0.0225  0.3602
78555W        W21472  13.956  26.508   0.095 -0.0266 -0.3635 -0.0389
78556W        W21473  16.206  27.936  31.495 -0.2505 -0.0560 -0.0339
78557W        W21474  15.717  22.988  31.739  0.1556 -0.2420  0.0910
78558W        W21475  18.281  22.500  27.604  0.4229 -0.5186  0.1891
78559W        W21476  14.163  23.794  31.273 -0.1658 -0.2184  0.2388
78560W        W21477  16.720  23.750  31.807  0.0091  0.0366  0.0015
78561W        W21478  17.769  24.493  28.166 -0.0801 -0.0037 -0.0332
78562W        W21479  15.934  25.004   1.017 -0.1332 -0.1678  0.2027
78563W        W21480  14.149  22.050  31.681 -0.1649 -0.1988  0.2239
78564W        W21481  17.598  22.862  28.007 -0.3337 -0.1116 -0.2057
78565W        W21482  16.572  23.124   0.449 -0.1748 -0.2265  0.1814
78566W        W21483  17.907  23.842  29.370  0.2108 -0.3239 -0.1408
78567W        W21484  16.631  27.027  29.711 -0.1243  0.2864 -0.0685
78568W        W21485  15.218  24.622  29.686 -0.1148 -0.0760 -0.3354
78569W        W21486  17.808  24.971  31.627  0.1545 -0.1019  0.0091
78570W        W21487  14.803  21.984  30.122 -0.3972  0.0958  0.3665
78571W        W21488  15.713  21.963  28.844  0.0000  0.2247  0.1539
78572W        W21489  15.340  18.925  30.451 -0.0115  0.2145  0.0316
78573W        W21490  14.086  26.082  30.785  0.3130 -0.1463 -0.0497
78574W        W21491  16.506  22.316  29.323 -0.0275 -0.1809 -0.1426
78575W        W21492  18.860  22.358  29.878  0.4295 -0.1786  0.2748
78576W        W21493  17.132  20.839  27.956  0.3053 -0.1472 -0.2856
78577W        W21494  16.281  22.151  30.887  0.0198 -0.3204 -0.0068
78578W        W21495  17.146  23.861  28.447 -0.1450 -0.0418 -0.0663
78579W        W21496  15.700  25.162  30.905  0.2798 -0.1680 -0.2820
78580W        W21497  15.283  23.046  30.483  0.3604  0.2021  0.3221
78581W        W21498  18.537  23.312  31.403  0.0419  0.1963  0.0250
78582W        W21499  16.317  25.476  29.609 -0.0692  0.2249  0.1934
78583W        W21500  14.450  23.635  29.355  0.0484  0.4183  0.1243
78584W        W21501  18.330  24.903  30.628  0.0025  0.0963 -0.0074
78585W        W21502  16.174  21.831  29.627 -0.0319  0.2648  0.1422
78586W        W21503  16.226  23.501  31.887  0.2740  0.3905  0.0670
78587W        W21504  15.808  24.172   0.650 -0.0432  0.0853  0.0694
78588W        W21505  16.605  23.591   0.307  0.0789 -0.3586  0.0944
78589W        W21506  16.256  24.624  30.109 -0.0679  0.0702 -0.3433
78590W        W21507  19.245  23.448  29.262 -0.1040 -0.0463  0.0833
78591W        W21508  16.472  24.974  30.381 -0.0936 -0.0122  0.0022
78592W        W21509  17.504  21.744  29.310 -0.0521  0.0651  0.3246
78593W        W21510  16.063  23.199   0.366 -0.0178 -0.0307  0.2247
78594W        W21511  15.348  22.617  29.345 -0.0299 -0.2600 -0.1467
78595W        W21512  16.666  25.680   0.741  0.2200  0.2569  0.0242
78596W        W21513  16.449  24.380  28.309  0.3052  0.0686 -0.3473
78597W        W21514  17.104  24.165   0.732  0.1615  0.2928  0.2499
78598W        W21515  14.701  22.901  29.816  0.3729 -0.0407 -0.1565
78599W        W21516  15.379  23.048   0.208 -0.3260  0.0244  0.1737
78600W        W21517  19.849  25.082  31.476  0.0679  0.0248  0.1971
78601W        W21518  15.041  24.698   0.841  0.2916  0.5115  0.1393
78602W        W21519  16.684  24.292  31.012  0.1104 -0.0055 -0.0084
78603W        W21520  17.341  21.466  27.892 -0.0476  0.1673 -0.1197
78604W        W21521  14.559  24.303   0.031  0.1443 -0.2211 -0.0681
78605W        W21522  16.312  24.181  28.770  0.1268 -0.0775 -0.1732
78606W        W21523  17.547  21.715  30.432 -0.0460  0.3972 -0.1176
78607W        W21524  16.367  26.430  30.248  0.2188  0.0567  0.0692
78608W        W21525  15.524  23.254  31.259 -0.0083 -0.2007 -0.0855
78609W        W21526  15.065  24.999  31.665 -0.0611  0.0774 -0.4572
78610W        W21527  16.301  23.720  31.339  0.0318 -0.1842  0.3673
78611W        W21528  15.598  22.416  30.948 -0.2684  0.1826 -0.0652
78612W        W21529  14.958  22.198  29.208 -0.0663  0.1800  0.1783
78613W        W21530  14.720  23.445   0.570  0.0589  0.2747 -0.2627
78614W        W21531  14.453  23.396  29.902  0.1343 -0.0689 -0.0757
78615W        W21532  15.124  22.953  31.292  0.0302  0.1750 -0.0079
78616W        W21533  17.999  23.971  31.419  0.3109 -0.0431 -0.1604
78617W        W21534  17.985  26.643  31.212 -0.0810 -0.3629 -0.0270
78618W        W21535  16.191  22.228  30.399 -0.0385 -0.4418 -0.1781
78619W        W21536  15.274  26.060  18.629 -0.0110 -0.2012 -0.2028
78620W        W21537  15.375  25.832  16.567 -0.0002  0.2375 -0.1047
78621W        W21538  16.835  26.071  15.982 -0.1367  0.2961 -0.2474
78622W        W21539  15.807  25.884  17.339  0.1807  0.1062  0.2686
78623W        W21540  14.945  27.818  18.092 -0.0378  0.1669  0.1559
78624W        W21541  17.530  28.918  16.614  0.0714 -0.0749 -0.0097
78625W        W21542  15.638  25.771  18.495  0.0216 -0.1068 -0.2568
78626W        W21543  15.216  28.868  18.924 -0.0285  0.0302 -0.0715
78627W        W21544  17.940  26.465  16.037  0.0780 -0.1331 -0.0174
78628W        W21545  17.186  27.195  15.872  0.1816  0.1859 -0.0815
78629W        W21546  15.305  27.026  16.901  0.2421  0.0150  0.0097
78630W        W21547  15.946  29.853  19.408  0.0601 -0.1172 -0.3768
78631W        W21548  13.823  25.405  16.229  0.1057  0.0070 -0.0083
78632W        W21549  13.671  28.517  16.406 -0.0815  0.2497  0.3465
78633W        W21550  17.210  26.794  18.058  0.0978  0.1566 -0.3186
78634W        W21551  14.481  28.682  16.648  0.0405  0.4980 -0.2856
78635W        W21552  15.495  26.915  16.483  0.2880 -0.0916 -0.0498
78636W        W21553  14.877  25.684  17.169 -0.1804 -0.4531  0.2853
78637W        W21554  15.992  29.979  16.389 -0.2120 -0.2986  0.2791
78638W        W21555  16.324  27.916  18.092  0.4312  0.2886 -0.1655
78639W        W21556  18.853  24.530  18.370  0.2460  0.0694  0.2111
78640W        W21557  16.812  29.202  16.146  0.0984 -0.0085 -0.0137
78641W        W21558  14.054  27.779  15.544  0.1429  0.0738 -0.0041
78642W        W21559  14.477  25.388  16.900 -0.1993 -0.2372 -0.0397
78643W        W21560  16.515  26.011  18.484 -0.0518  0.1908  0.3334
78644W        W21561  15.351  27.766  16.826  0.2819 -0.0530 -0.1565
78645W        W21562  17.183  27.366  17.444 -0.2135 -0.0784  0.1400
78646W        W21563  15.843  30.828  18.372 -0.2326 -0.0031  0.0702
78647W        W21564  16.509  30.320  18.104 -0.1217  0.0000  0.1248
78648W        W21565  18.126  26.417  17.619 -0.1564 -0.0858  0.1341
78649W        W21566  14.940  29.973  16.478  0.0360 -0.0588 -0.1293
78650W        W21567  14.472  29.207  17.759 -0.0858  0.3661  0.0095
78651W        W21568  16.018  28.670  15.947  0.1619 -0.0282 -0.1285
78652W        W21569  19.435  27.978  16.975 -0.0557 -0.2306  0.2411
78653W        W21570  18.264  27.346  18.333 -0.1431  0.3526  0.1025
78654W        W21571  14.251  29.112  19.934 -0.0071 -0.0709  0.0964
78655W        W21572  15.280  28.812  16.232  0.2833  0.1938 -0.3029
78656W        W21573  16.493  27.647  19.612  0.0614  0.2550 -0.2785
78657W        W21574  17.125  28.677  17.459  0.1519  0.1037 -0.2463
78658W        W21575  16.134  27.318  18.795 -0.1100 -0.2462 -0.4366
78659W        W21576  15.630  28.555  20.530  0.0770  0.1412 -0.2165
78660W        W21577  16.201  30.456  15.593  0.0791  0.1352  0.1547
78661W        W21578  16.179  29.622  15.459 -0.1085  0.2772  0.2266
78662W        W21579  14.461  27.874  19.771  0.2856  0.3652 -0.0564
78663W        W21580  14.036  28.964  17.299  0.1788 -0.2745 -0.4785
78664W        W21581  18.518  26.579  20.673  0.0185 -0.1539 -0.2638
78665W        W21582  14.647  29.441  15.860 -0.0729 -0.3401 -0.1124
78666W        W21583  16.419  27.259  15.556 -0.3221  0.2227 -0.0566
78667W        W21584  14.633  25.568  15.237  0.0993 -0.2978 -0.0730
78668W        W21585  16.642  27.961  17.132 -0.2315 -0.1457  0.0397
78669W        W21586  14.800  25.365  18.121 -0.1972  0.0249 -0.2550
78670W        W21587  15.267  31.169  16.208 -0.1471  0.3257  0.1253
78671W        W21588  15.546  27.005  17.332 -0.0865  0.1310  0.0802
78672W        W21589  17.760  27.570  18.543  0.2688 -0.2237 -0.0251
78673W        W21590  16.238  27.320  16.056 -0.1111  0.2837 -0.0338
78674W        W21591  15.420  27.607  17.834  0.0144 -0.0608 -0.1046
78675W        W21592  15.683  28.796  18.119 -0.0011  0.4683 -0.0770
78676W        W21593  16.025  26.742  18.880 -0.2405  0.0120 -0.1621
78677W        W21594  17.738  29.450  15.929 -0.0008 -0.1093  0.1585
78678W        W21595  16.649  29.424  16.617 -0.1543 -0.1754 -0.1970
78679W        W21596  17.076  28.880  16.381 -0.0863  0.3947  0.0798
78680W        W21597  17.693  28.618  17.611  0.0014  0.0876 -0.1108
78681W        W21598  14.872  28.282  17.839 -0.0626  0.3563 -0.1556
78682W        W21599  15.880  27.980  17.831  0.3884  0.2436  0.2091
78683W        W21600  16.306  24.783  17.979 -0.2646 -0.1690  0.2063
78684W        W21601  15.439  28.733  19.600 -0.0015  0.1957  0.1051
78685W        W21602  13.290  29.275  19.040 -0.0815  0.1581  0.2064
78686W        W21603  16.441  27.894  17.636  0.0042  0.0356 -0.1811
78687W        W21604  17.303  27.520  16.746  0.0215 -0.4355  0.2156
78688W        W21605  17.459  28.000  18.615 -0.3092 -0.1763 -0.0415
78689W        W21606  17.877  27.028  16.365  0.0003 -0.1023  0.0172
78690W        W21607  13.805  25.371  18.474 -0.0657 -0.0072  0.0459
78691W        W21608  15.601  26.784  17.813 -0.1803 -0.0979 -0.0000
78692W        W21609  15.521  27.289  15.560 -0.0210 -0.1421 -0.0677
78693W        W21610  15.833  29.670  16.831 -0.0049  0.1616  0.0396
78694W        W21611  19.161  28.627  18.653 -0.0294  0.0003 -0.0165
78695W        W21612  18.526  28.813  18.157 -0.1881 -0.1211  0.5171
78696W        W21613  13.826  30.440  18.251  0.0805 -0.1776 -0.1387
78697W        W21614  16.670  26.783  18.077 -0.3239 -0.2413  0.0170
78698W        W21615  15.596  29.127  20.344  0.0660  0.2880  0.0465
78699W        W21616  14.996  29.205  17.661  0.0312  0.1727  0.0045
78700W        W21617  15.608  28.132  18.770  0.1378 -0.4825 -0.0915
78701W        W21618  14.069  28.689  15.284 -0.3065  0.1689 -0.0065
78702W        W21619  14.839  28.557  16.320  0.1296  0.0463 -0.0739
78703W        W21620  13.227  28.032  20.598 -0.0460  0.0371 -0.0135
78704W        W21621  16.178  25.525  17.349 -0.2228 -0.0745 -0.2424
78705W        W21622  14.918  24.758  18.731 -0.2879  0.1431  0.1392
78706W        W21623  18.332  28.098  16.639  0.0213  0.1667 -0.2791
78707W        W21624  14.987  29.127  15.942  0.0637 -0.1285 -0.2133
78708W        W21625  16.843  29.460  18.825 -0.2498 -0.1491  0.1274
78709W        W21626  18.078  26.533  16.503  0.0893  0.0150  0.0136
78710W        W21627  18.002  28.933  16.810  0.0460 -0.0069 -0.2157
78711W        W21628  14.578  28.724  18.034  0.0494  0.1752  0.2961
78712W        W21629  15.717  29.134  16.872 -0.1783 -0.0100 -0.0942
78713W        W21630  13.746  24.421  19.372  0.0560  0.3696  0.0406
78714W        W21631  14.135  26.278  18.962  0.1338 -0.0434 -0.0226
78715W        W21632  17.749  27.128  19.022 -0.3536  0.0791  0.3141
78716W        W21633  13.728  27.788  14.850 -0.0946 -0.0420 -0.0251
78717W        W21634  16.946  26.723  18.530 -0.0560 -0.1183  0.3403
78718W        W21635  14.776  27.814  16.713 -0.1517  0.0791 -0.2236
78719W        W21636  14.584  29.685  16.647 -0.3546 -0.1713 -0.0043
78720W        W21637  18.047  24.719  19.534 -0.0297  0.3916 -0.0607
78721W        W21638  15.122  28.844  17.960 -0.0992  0.1466 -0.3074
78722W        W21639  17.078  28.130  20.849 -0.0468  0.1759  0.2945
78723W        W21640  17.176  28.971  15.871  0.1104  0.2686 -0.1985
78724W        W21641  14.807  25.645  17.686 -0.0672 -0.2114 -0.0828
78725W        W21642  16.056  27.913  17.309  0.1046  0.1276  0.0282
78726W        W21643  13.668  29.614  16.327  0.0412 -0.2237  0.1293
78727W        W21644  15.655  30.057  17.354  0.0044 -0.2399 -0.0049
78728W        W21645  13.627  27.300  17.681 -0.3036 -0.2476  0.1687
78729W        W21646  17.638  30.339  17.056  0.1772  0.1906 -0.4187
78730W        W21647  16.175  25.958  17.710  0.1817 -0.3395  0.1540
78731W        W21648  15.152  26.840  18.982  0.0420 -0.0046 -0.4758
78732W        W21649  15.879  25.232  19.159 -0.2489  0.1836 -0.3333
78733W        W21650  19.365  24.573  18.220 -0.3486 -0.1955  0.1312
78734W        W21651  17.102  28.475  17.928  0.0498  0.1621  0.0563
78735W        W21652  14.579  25.113  15.577 -0.0245  0.2306 -0.0476
78736W        W21653  15.476  29.530  19.598  0.1140 -0.0086  0.2621
78737W        W21654  13.544  30.020  16.058  0.3995 -0.2660  0.1621
78738W        W21655  14.355  27.050  15.937  0.0777 -0.1073 -0.2311
78739W        W21656  13.858  29.298  16.851 -0.2048  0.1103  0.2127
78740W        W21657  17.854  28.016  16.425  0.1843 -0.0004 -0.0909
78741W        W21658  16.172  26.702  19.727 -0.2414 -0.4094  0.0087
78742W        W21659  15.821  25.303  18.348  0.1647 -0.0292  0.0677
78743W        W21660  13.936  26.784  15.748 -0.1578  0.4097 -0.0826
78744W        W21661  15.607  30.419  18.334 -0.2576 -0.0043 -0.0230
78745W        W21662  14.985  24.530  16.855  0.2122  0.1443 -0.0367
78746W        W21663  16.362  27.059  16.873  0.5107 -0.0552 -0.0753
78747W        W21664  16.078  24.712  18.751  0.1908  0.2296 -0.3495
78748W        W21665  17.085  27.463  16.255  0.1976  0.1951 -0.0179
78749W        W21666  17.251  25.888  16.195 -0.0175 -0.1900  0.2261
78750W        W21667  15.717  24.701  16.101 -0.1461 -0.1779 -0.1913
78751W        W21668  15.563  28.309  18.290  0.2712 -0.1871 -0.0109
78752W        W21669  15.813  29.378  18.060 -0.3005  0.0366  0.1741
78753W        W21670  16.135  28.819  17.870 -0.0697  0.0739 -0.2320
78754W        W21671  16.135  26.372  16.652  0.2386 -0.1145  0.3257
78755W        W21672  16.005  29.834  17.716 -0.0035  0.1018 -0.2308
78756W        W21673  14.844  29.169  18.166  0.0774 -0.0854  0.1018
78757W        W21674  16.084  27.512  18.282  0.5631 -0.1576  0.0232
78758W        W21675  18.789  28.154  17.143 -0.2096 -0.2956 -0.2695
78759W        W21676  18.991  25.606  19.124  0.1011 -0.1988  0.1577
78760W        W21677  16.071  28.685  15.440  0.1170  0.0362 -0.0564
78761W        W21678  16.464  26.942  16.381 -0.1818  0.1286 -0.0871
78762W        W21679  15.240  29.457  15.500 -0.0024 -0.0370 -0.4396
78763W        W21680  17.649  26.696  18.218 -0.2856  0.2657  0.1274
78764W        W21681  16.911  27.892  16.141  0.0212 -0.4126  0.1702
78765W        W21682  15.375  25.745  17.087  0.4804  0.2050  0.0371
78766W        W21683  16.978  27.657  20.300  0.0705  0.0219  0.1147
78767W        W21684  16.519  28.202  16.042 -0.0369 -0.2457  0.2661
78768W        W21685  18.250  26.846  19.780  0.1156  0.0134  0.1273
78769W        W21686  15.169  27.984  15.517 -0.2909  0.0613  0.2886
78770W        W21687  16.038  27.037  19.330 -0.3998  0.0266  0.1122
78771W        W21688  16.021  25.753  16.880 -0.1101  0.1442 -0.3356
78772W        W21689  14.085  28.559  18.160  0.4511  0.0311  0.1521
78773W        W21690  15.639  27.755  18.252 -0.1836  0.0226  0.1074
78774W        W21691  17.413  28.172  17.673 -0.1363  0.0609 -0.0023
78775W        W21692  15.541  24.979  17.365 -0.3395  0.1541 -0.0722
78776W        W21693  17.602  25.952  17.163  0.1552  0.0981  0.2943
78777W        W21694  15.375  30.343  16.091 -0.0244 -0.1797  0.3442
78778W        W21695  16.641  29.062  15.667  0.2193  0.1025 -0.3464
78779W        W21696  15.204  26.357  19.038  0.0058 -0.0599  0.1227
78780W        W21697  15.316  28.292  17.016 -0.3849  0.3318 -0.1036
78781W        W21698  14.355  30.809  17.050 -0.1404 -0.3183 -0.0739
78782W        W21699  16.966  27.878  18.913 -0.3110  0.1190  0.3680
78783W        W21700  16.580  29.630  15.714  0.1979 -0.1410 -0.2960
78784W        W21701  16.928  26.494  17.784  0.2128 -0.0093  0.2920
78785W        W21702  12.619  28.240  18.032 -0.1678  0.0623  0.2302
78786W        W21703  15.718  28.415  16.678  0.3635 -0.0688 -0.4132
78787W        W21704  14.209  26.828  14.953 -0.1406  0.0914 -0.1981
78788W        W21705  15.589  26.166  17.820  0.0200  0.2029 -0.1820
78789W        W21706  16.474  28.640  16.432 -0.0401  0.1045 -0.3772
78790W        W21707  13.510  25.647  16.845  0.0679  0.0259  0.0381
78791W        W21708  14.977  26.000  19.370 -0.1498 -0.1578  0.1446
78792W        W21709  14.236  29.440  17.255 -0.2388  0.1255  0.0252
78793W        W21710  17.010  27.466  19.699 -0.0378  0.3949 -0.1828
78794W        W21711  16.259  26.043  16.121 -0.3465 -0.2956 -0.5227
78795W        W21712  16.317  31.098  16.775 -0.0606  0.1424  0.3086
78796W        W21713  14.816  28.999  19.896  0.0616  0.0742 -0.2234
78797W        W21714  13.387  27.471  15.187  0.1798 -0.0641 -0.4126
78798W        W21715  18.222  27.571  17.787  0.1286  0.3486 -0.0171
78799W        W21716  16.334  29.094  16.367  0.3652 -0.3857 -0.1050
78800W        W21717  16.034  29.655  17.281 -0.2493  0.2605 -0.2700
78801W        W21718  16.850  28.177  17.591  0.2014  0.1490  0.3072
78802W        W21719  14.366  29.228  16.777 -0.1714 -0.1985 -0.2071
78803W        W21720  15.139  29.613  16.766 -0.0602 -0.1733  0.1239
78804W        W21721  15.587  25.634  19.261  0.0753  0.2285 -0.1938
78805W        W21722  16.755  27.288  20.081 -0.0110 -0.3067 -0.1647
78806W        W21723  17.777  28.182  17.233  0.0633 -0.1758 -0.0525
78807W        W21724  14.596  27.546  17.949 -0.1963 -0.2811 -0.0264
78808W        W21725  18.035  28.593  17.276 -0.0207  0.0577 -0.1028
78809W        W21726  17.586  28.765  17.139  0.1534 -0.0361  0.0241
78810W        W21727  17.878  28.354  16.795 -0.3140  0.2190  0.1091
78811W        W21728  13.234  28.191  19.113 -0.3940  0.0699  0.0158
78812W        W21729  16.536  27.159  18.402  0.0819  0.1047  0.1591
78813W        W21730  18.845  30.155  17.783  0.1747  0.0997  0.3190
78814W        W21731  20.268  25.440  19.366 -0.2586 -0.0246  0.3401
78815W        W21732  15.358  25.895  15.941 -0.0725 -0.2114 -0.1934
78816W        W21733  17.204  27.809  17.219  0.0798 -0.0423 -0.1480
78817W        W21734  15.362  27.486  17.375  0.2926 -0.1825 -0.0690
78818W        W21735  16.304  28.071  19.967 -0.3263  0.0715  0.3360
78819W        W21736  14.367  29.856  17.898  0.0795 -0.0546  0.2806
78820W        W21737  15.617  28.962  17.638 -0.1351  0.2715  0.2034
78821W        W21738  14.214  30.215  18.580  0.4189  0.2610 -0.2755
78822W        W21739  16.783  26.466  17.185  0.0842  0.2439 -0.2307
78823W        W21740  16.283  29.629  16.232  0.1330 -0.1128 -0.2890
78824W        W21741  16.238  27.402  17.748 -0.2498  0.2303 -0.1323
78825W        W21742  18.607  24.078  18.219  0.0020 -0.0622 -0.0703
78826W        W21743  15.359  27.226  16.051  0.1281 -0.2962  0.0807
78827W        W21744  17.834  24.923  20.044  0.3575 -0.0887  0.4095
78828W        W21745  14.717  24.176  16.532  0.0375 -0.0668 -0.0247
78829W        W21746  16.820  28.381  16.861  0.1979  0.1211 -0.2611
78830W        W21747  14.587  27.009  17.869  0.0621  0.1128 -0.0890
78831W        W21748  15.442  29.602  20.450 -0.1554  0.3794  0.1225
78832W        W21749  17.205  26.135  21.932 -0.0211 -0.1623  0.0854
78833W        W21750  16.230  27.950  16.788  0.0624  0.1865 -0.2046
78834W        W21751  13.681  27.157  15.533 -0.0358  0.0416  0.1766
78835W        W21752  12.572  28.726  19.020  0.0329  0.0801  0.1168
78836W        W21753  16.691  28.990  17.590 -0.1484 -0.0546 -0.2261
78837W        W21754  15.598  28.461  16.219  0.0799 -0.2981 -0.2028
78838W        W21755  16.412  26.382  17.544 -0.1161 -0.0018 -0.1397
78839W        W21756  13.470  28.332  20.095 -0.0922 -0.1401  0.3170
78840W        W21757  17.527  28.901  20.196 -0.1265 -0.0749 -0.1536
78841W        W21758  15.731  27.248  17.951  0.0061  0.2656  0.0352
78842W        W21759  14.770  30.123  17.984  0.1879 -0.0561 -0.0030
78843W        W21760  16.943  27.003  19.257  0.1588  0.4286  0.2250
78844W        W21761  18.336  28.563  16.737  0.3041 -0.0829 -0.0628
78845W        W21762  14.230  29.742  18.896 -0.0082 -0.1308 -0.1039
78846W        W21763  16.232  25.320  17.999  0.3279  0.0969 -0.1193
78847W        W21764  17.011  27.810  18.401  0.0551  0.1124  0.1970
78848W        W21765  16.833  25.853  20.719  0.1914  0.1212 -0.2912
78849W        W21766  14.522  28.047  18.233 -0.3134 -0.0187  0.1176
78850W        W21767  16.101  29.026  20.266  0.3369 -0.0393 -0.1365
78851W        W21768  17.353  27.759  15.947 -0.2660 -0.1359 -0.0350
78852W        W21769  18.007  27.884  18.206  0.0247 -0.1876 -0.0517
78853W        W21770  16.054  27.393  19.717  0.1294  0.1482  0.0267
78854W        W21771  14.938  25.891  15.646 -0.0020  0.0113  0.2178
78855W        W21772  15.093  25.186  18.530 -0.0748 -0.2516 -0.3614
78856W        W21773  15.443  28.187  20.991  0.2419  0.3011  0.2256
78857W        W21774  16.431  25.770  15.776 -0.1021  0.1217 -0.0912
78858W        W21775  15.071  26.213  17.758  0.4185 -0.0964  0.4501
78859W        W21776  15.436  29.837  16.399  0.1960  0.1626 -0.0106
78860W        W21777  18.209  28.569  17.772  0.1122  0.1908 -0.1962
78861W        W21778  18.988  26.777  18.418 -0.0210  0.0038  0.1723
78862W        W21779  14.748  27.156  15.568  0.1319 -0.2023 -0.0963
78863W        W21780  14.498  28.780  20.246  0.2034 -0.0921 -0.1835
78864W        W21781  14.552  26.057  15.939 -0.1115 -0.0735  0.0354
78865W        W21782  15.448  29.568  17.166 -0.4532  0.2045 -0.1862
78866W        W21783  15.138  29.830  17.587  0.0510  0.1230 -0.3006
78867W        W21784  17.609  28.362  20.004 -0.5365 -0.0286  0.1834
78868W        W21785  16.297  26.591  17.112 -0.1187 -0.2267  0.0437
78869W        W21786  16.775  28.083  18.045  0.2095  0.1676 -0.1889
78870W        W21787  14.153  30.354  17.359 -0.0195  0.2576 -0.1619
78871W        W21788  14.688  28.124  18.686  0.0508 -0.0967  0.1692
78872W        W21789  16.216  29.242  16.924  0.0698  0.0040 -0.3520
78873W        W21790  14.152  30.765  18.341 -0.1431 -0.0378  0.5711
78874W        W21791  14.659  31.579  17.945 -0.2582 -0.0892  0.1406
78875W        W21792  17.365  26.392  18.566 -0.2651 -0.2568 -0.0024
78876W        W21793  16.564  28.077  16.495  0.0289  0.2676 -0.0737
78877W        W21794  15.861  29.486  16.361  0.2391  0.0590  0.4026
78878W        W21795  15.241  27.450  18.354  0.2081  0.3928  0.0080
78879W        W21796  16.181  28.830  19.834  0.2260 -0.0659  0.1767
78880W        W21797  15.759  27.162  18.480  0.0337  0.0071  0.1456
78881W        W21798  14.283  29.013  18.933 -0.0014 -0.0219 -0.0544
78882W        W21799  18.229  27.440  16.409  0.0662 -0.0607  0.0202
78883W        W21800  14.213  27.995  18.900  0.0731  0.2746  0.1384
78884W        W21801  15.664  27.466  19.294  0.0165  0.0146 -0.1810
78885W        W21802  14.643  25.117  19.267  0.2577  0.0820 -0.0509
78886W        W21803  18.037  27.777  16.871  0.1662 -0.0986 -0.2747
78887W        W21804  17.012  24.383  16.832  0.2559 -0.2840 -0.1621
78888W        W21805  14.676  30.252  15.920 -0.1970  0.0442 -0.0189
78889W        W21806  13.924  29.220  18.710  0.1020  0.4052 -0.3943
78890W        W21807  13.997  29.785  18.454  0.0086 -0.3831 -0.0911
78891W        W21808  13.909  27.476  16.783 -0.0357 -0.2918  0.0865
78892W        W21809  17.635  27.587  17.147 -0.1040 -0.4333  0.3843
78893W        W21810  16.936  28.366  16.299  0.1113 -0.0587  0.1422
78894W        W21811  18.320  29.870  18.527 -0.1970  0.1279 -0.2046
78895W        W21812  15.737  26.486  17.436 -0.0411  0.2140  0.0209
78896W        W21813  16.062  28.736  16.823 -0.2308  0.2501  0.1851
78897W        W21814  14.084  29.988  16.008  0.0354 -0.3033 -0.0327
78898W        W21815  17.297  28.459  16.651  0.0757 -0.2226 -0.1167
78899W        W21816  15.328  28.886  15.613  0.0714 -0.2041  0.0284
78900W        W21817  18.031  27.688  17.375  0.1566  0.5025 -0.0375
78901W        W21818  19.026  26.889  17.832  0.1407 -0.2467 -0.0779
78902W        W21819  17.260  28.799  18.249 -0.0204  0.1708  0.0550
78903W        W21820  16.676  26.491  16.217 -0.0160 -0.2020 -0.0195
78904W        W21821  16.617  27.441  17.420 -0.0228  0.0212  0.0396
78905W        W21822  17.758  28.344  18.235 -0.1685  0.1736 -0.2561
78906W        W21823  16.002  26.948  16.502 -0.2184 -0.2102 -0.2496
78907W        W21824  16.497  26.939  17.425 -0.1597  0.0464 -0.2154
78908W        W21825  19.029  24.961  18.035  0.0797 -0.1616  0.3128
78909W        W21826  15.184  28.809  20.334 -0.0425  0.3204  0.0148
78910W        W21827  15.643  27.903  16.402 -0.0484  0.2729 -0.0498
78911W        W21828  14.669  24.668  16.351  0.1431  0.0039 -0.1020
78912W        W21829  16.176  30.338  18.516  0.1450  0.0743  0.1394
78913W        W21830  16.889  27.138  16.602 -0.1883 -0.1427 -0.0391
78914W        W21831  16.645  27.474  18.080  0.1952  0.2314  0.0455
78915W        W21832  16.049  27.104  17.266 -0.1815  0.0504 -0.5160
78916W        W21833  15.211  30.857  16.967  0.5611 -0.1007  0.0650
78917W        W21834  16.642  28.584  17.298  0.1605 -0.0787 -0.0363
78918W        W21835  15.654  30.294  19.552  0.0877 -0.0928 -0.1392
78919W        W21836  15.115  26.792  16.058 -0.0496 -0.1427  0.2085
78920W        W21837  18.541  28.760  18.750 -0.1041  0.1794  0.0841
78921W        W21838  17.671  27.180  19.876 -0.1620 -0.0686 -0.2651
78922W        W21839  17.220  25.693  18.922  0.0545 -0.0504 -0.2882
78923W        W21840  16.875  26.963  17.066 -0.0285  0.0461 -0.0337
78924W        W21841  17.736  26.775  16.826 -0.0127  0.2182  0.0144
78925W        W21842  17.095  28.850  16.955 -0.1778  0.1366  0.2337
78926W        W21843  14.552  25.873  18.036 -0.0145 -0.2505 -0.1194
78927W        W21844  16.474  26.313  15.677 -0.1404  0.0055  0.1318
78928W        W21845  17.913  28.248  19.121 -0.3616 -0.2152  0.0593
78929W        W21846  15.506  26.323  15.517  0.3181 -0.1245  0.2588
78930W        W21847  16.737  29.953  18.642  0.2683  0.0288  0.0226
78931W        W21848  13.598  27.451  16.302  0.0243 -0.5160 -0.0818
78932W        W21849  19.143  27.110  16.677 -0.1573  0.4248  0.2791
78933W        W21850  14.121  29.451  16.425 -0.1092 -0.4683  0.0961
78934W        W21851  17.049  28.343  18.456 -0.0891  0.0010 -0.1895
78935W        W21852  17.957  28.974  19.963 -0.1084 -0.0118 -0.0952
78936W        W21853  13.244  26.257  16.846 -0.0733  0.2437  0.3383
78937W        W21854  18.104  28.100  17.671 -0.2339 -0.1032  0.0949
78938W        W21855  18.407  27.804  20.006 -0.3081 -0.0177  0.2045
78939W        W21856  15.831  29.550  15.825 -0.2676  0.0589  0.0669
78940W        W21857  17.078  29.170  18.552  0.0534  0.0546 -0.0769
78941W        W21858  15.629  29.949  19.034  0.4404  0.0055 -0.3388
78942W        W21859  15.272  26.681  17.481 -0.1871  0.0603 -0.1970
78943W        W21860  15.131  30.000  18.349  0.1301 -0.2844  0.0355
78944W        W21861  17.777  29.473  18.450  0.4200 -0.1445  0.1544
78945W        W21862  18.323  25.624  15.987 -0.1569 -0.1564 -0.0291
78946W        W21863  14.096  25.996  18.246 -0.0924 -0.0666 -0.2999
78947W        W21864  13.937  29.439  17.763  0.3393  0.0052  0.0292
78948W        W21865  17.823  27.342  16.759  0.3034  0.1068 -0.1133
78949W        W21866  18.691  26.870  17.451  0.1493  0.1904  0.3954
78950W        W21867  15.625  28.485  15.654 -0.0654 -0.2066 -0.0066
78951W        W21868  17.650  26.525  17.300  0.1778  0.1910  0.1589
78952W        W21869  16.705  30.792  19.062 -0.3934  0.0029 -0.0612
78953W        W21870  15.331  28.879  20.857 -0.0730  0.2138  0.2384
78954W        W21871  15.751  27.381  16.972  0.0977  0.0418 -0.1860
78955W        W21872  16.266  28.390  17.565 -0.0449 -0.1909  0.0928
78956W        W21873  16.159  27.775  16.170  0.0501  0.0008 -0.1100
78957W        W21874  15.786  30.497  15.162  0.1942  0.2245  0.2996
78958W        W21875  15.469  29.642  18.612  0.1702 -0.1241 -0.2551
78959W        W21876  17.121  29.243  17.348 -0.0235 -0.1329 -0.0423
78960W        W21877  17.511  27.948  16.856  0.2727 -0.1482 -0.0829
78961W        W21878  13.729  25.369  18.949 -0.0430 -0.0640  0.0710
78962W        W21879  18.396  25.855  16.514  0.0800 -0.0674  0.1184
78963W        W21880  15.861  25.931  16.430  0.0511  0.2903  0.0263
78964W        W21881  16.027  27.920  18.552 -0.0994  0.1526 -0.1280
78965W        W21882  12.932  29.559  16.948 -0.2837 -0.1006 -0.2640
78966W        W21883  16.291  27.539  17.069  0.0401 -0.1132 -0.1464
78967W        W21884  14.027  29.074  15.870 -0.2565  0.2831  0.2113
78968W        W21885  18.340  25.582  22.287  0.0448 -0.0247 -0.1381
78969W        W21886  15.708  26.179  16.882 -0.1119  0.1863  0.0974
78970W        W21887  16.350  29.246  18.061  0.1833 -0.0280 -0.2100
78971W        W21888  15.951  25.592  16.060 -0.0528  0.1294 -0.1043
78972W        W21889  18.136  28.818  16.320  0.0514  0.0729 -0.0093
78973W        W21890  16.919  25.658  18.328  0.2868  0.2013  0.4373
78974W        W21891  13.066  25.956  17.488 -0.2488  0.1057 -0.2703
78975W        W21892  15.608  29.479  17.601 -0.1534  0.3414  0.0595
78976W        W21893  17.867  29.254  16.411  0.1462 -0.3859  0.0938
78977W        W21894  14.882  27.072  17.472 -0.1019  0.6002 -0.1740
78978W        W21895  18.528  29.130  19.869  0.0301 -0.2576 -0.0050
78979W        W21896  16.175  29.183  15.789 -0.0515  0.1049  0.1773
78980W        W21897  16.574  26.644  20.669 -0.2394  0.4063  0.2885
78981W        W21898  16.733  24.659  18.332  0.1163 -0.4651  0.0905
78982W        W21899  14.072  25.900  15.861 -0.1658 -0.1173  0.2377
78983W        W21900  16.850  26.024  19.280  0.1843  0.4634 -0.0961
78984W        W21901  17.577  29.272  17.091  0.0411  0.0526 -0.3050
78985W        W21902  15.807  28.943  16.433 -0.0852  0.0636 -0.2217
78986W        W21903  15.068  29.943  20.300 -0.0479  0.0539  0.6500
78987W        W21904  15.951  28.781  19.374  0.2702  0.3345 -0.1317
78988W        W21905  15.378  26.876  18.311  0.1993 -0.0990  0.0148
78989W        W21906  15.684  27.567  15.973  0.1589 -0.1343 -0.3351
78990W        W21907  14.845  29.620  18.045  0.1115 -0.0670 -0.4805
78991W        W21908  17.638  28.932  16.108 -0.1196 -0.3565 -0.1191
78992W        W21909  15.356  28.159  17.839 -0.2982  0.2587  0.2970
78993W        W21910  14.914  28.042  15.976 -0.2718  0.1536 -0.1576
78994W        W21911  13.320  25.612  19.624  0.2220  0.0862  0.0312
78995W        W21912  13.736  27.226  18.269 -0.1569  0.2592 -0.3525
78996W        W21913  17.174  28.381  19.832 -0.1582 -0.0956  0.0971
78997W        W21914  15.182  25.707  18.324 -0.0812 -0.1537  0.0697
78998W        W21915  16.739  26.642  16.717 -0.1500  0.0107 -0.0908
78999W        W21916  14.732  28.733  17.595  0.2158  0.3164  0.1827
79000W        W21917  14.977  28.395  18.335 -0.3762 -0.2980 -0.1549
79001W        W21918  16.383  26.102  17.077  0.1311 -0.0250  0.1623
79002W        W21919  15.342  26.366  18.223 -0.0572 -0.0570 -0.0784
79003W        W21920  16.718  28.366  20.142 -0.0660 -0.0441  0.1326
79004W        W21921  17.287  27.342  20.129 -0.2735 -0.1606 -0.2491
79005W        W21922  16.065  28.301  16.328 -0.0166 -0.0848  0.0869
79006W        W21923  16.686  27.149  15.965 -0.1346 -0.0691  0.1205
79007W        W21924  17.343  29.863  19.067  0.1273 -0.1718  0.2820
79008W        W21925  17.893  30.424  19.891 -0.4027  0.1532 -0.3026
79009W        W21926  17.408  30.393  18.294 -0.0246  0.1491  0.1719
79010W        W21927  17.442  27.957  18.146 -0.0755  0.1511 -0.1964
79011W        W21928  13.887  24.096  18.236 -0.1336 -0.2783  0.0863
79012W        W21929  16.617  28.518  17.902  0.0681 -0.3781 -0.3614
79013W        W21930  15.591  29.143  16.051  0.2150 -0.2699  0.1904
79014W        W21931  16.537  27.112  19.603 -0.2918 -0.1903  0.2133
79015W        W21932  15.011  27.428  17.031  0.3659 -0.0570  0.1366
79016W        W21933  16.129  25.016  17.351 -0.1558  0.1900  0.2715
79017W        W21934  17.669  29.416  18.959 -0.1732 -0.0634  0.0844
79018W        W21935  16.597  29.126  19.827 -0.4523  0.2345  0.4031
79019W        W21936  13.561  27.811  20.164 -0.0098 -0.0492  0.1608
79020W        W21937  15.875  26.467  20.725  0.2581 -0.1437 -0.1716
79021W        W21938  18.148  26.182  19.495  0.1746  0.3490 -0.2056
79022W        W21939  16.142  26.942  20.675  0.0439  0.3616  0.2189
79023W        W21940  16.523  27.095  20.965 -0.2306  0.2199  0.0888
79024W        W21941  15.813  30.475  20.454  0.0475 -0.2672 -0.0892
79025W        W21942  14.678  23.311  23.935 -0.0134 -0.0742  0.0182
79026W        W21943  16.857  29.687  21.609  0.1836  0.0851 -0.3079
79027W        W21944  17.189  29.623  23.121 -0.3298  0.0671  0.0457
79028W        W21945  16.902  26.060  18.788 -0.1144  0.0180 -0.0121
79029W        W21946  14.848  26.660  20.709  0.0695 -0.0029  0.3757
79030W        W21947  14.489  29.536  23.252 -0.0121  0.2555 -0.0382
79031W        W21948  16.817  25.248  21.952  0.2289  0.2275 -0.2247
79032W        W21949  16.062  26.072  20.925  0.0565 -0.1232  0.1719
79033W        W21950  17.308  27.948  22.357 -0.1694  0.1723  0.0139
79034W        W21951  15.107  25.102  19.030  0.0523 -0.1979 -0.1764
79035W        W21952  14.824  25.523  21.157  0.1211 -0.0241  0.1065
79036W        W21953  16.689  25.489  21.041  0.0692  0.0623 -0.0503
79037W        W21954  16.302  30.245  20.207 -0.2526 -0.1713 -0.2500
79038W        W21955  16.428  25.695  23.481 -0.1023 -0.0362  0.0520
79039W        W21956  15.132  24.383  22.602  0.1492  0.0870 -0.3739
79040W        W21957  14.711  26.571  19.022 -0.2938 -0.0216  0.0985
79041W        W21958  16.464  26.322  18.919 -0.1259 -0.1738  0.1255
79042W        W21959  14.193  27.228  20.313 -0.3271  0.0916 -0.2355
79043W        W21960  15.729  26.533  23.248 -0.0879  0.1071 -0.2438
79044W        W21961  18.152  27.256  23.535  0.2576 -0.5167 -0.0544
79045W        W21962  17.526  29.377  22.356 -0.0727  0.1771 -0.2701
79046W        W21963  14.381  29.026  22.250  0.1526 -0.0926 -0.2447
79047W        W21964  14.760  28.832  20.633  0.2567  0.1375 -0.2462
79048W        W21965  16.095  27.242  23.879  0.2156  0.1260 -0.0698
79049W        W21966  14.760  27.143  20.698  0.0378  0.0223 -0.3032
79050W        W21967  15.094  29.364  22.707 -0.1031  0.1717  0.0687
79051W        W21968  15.190  27.315  20.914  0.0422 -0.0687  0.1128
79052W        W21969  16.359  29.702  20.653 -0.0593  0.0202  0.5301
79053W        W21970  16.455  29.019  22.439  0.1868  0.0050 -0.2009
79054W        W21971  13.997  29.922  23.985 -0.1063  0.0758 -0.3597
79055W        W21972  13.989  28.643  18.790 -0.1304  0.2989 -0.0014
79056W        W21973  14.759  29.003  23.016  0.0532 -0.1813 -0.1061
79057W        W21974  13.549  29.106  21.285 -0.0010  0.1373 -0.1857
79058W        W21975  16.054  26.769  22.327  0.1840 -0.1689 -0.3700
79059W        W21976  15.927  27.539  21.380 -0.0015  0.0113 -0.0201
79060W        W21977  11.376  29.073  19.520  0.0743 -0.1614 -0.2101
79061W        W21978  16.743  27.417  21.391 -0.0181  0.2694 -0.2274
79062W        W21979  14.944  29.798  22.295 -0.0457 -0.1984 -0.2359
79063W        W21980  14.271  28.784  22.789 -0.0925  0.0003 -0.0869
79064W        W21981  15.297  25.071  24.297  0.0208 -0.0731 -0.0898
79065W        W21982  13.005  27.847  19.515 -0.3222 -0.1261  0.0407
79066W        W21983  17.347  26.291  20.069 -0.0136 -0.0176 -0.0885
79067W        W21984  14.893  26.119  18.316 -0.0067  0.0771 -0.2058
79068W        W21985  18.190  27.375  19.878 -0.0259 -0.2319 -0.0909
79069W        W21986  13.310  25.219  20.842  0.0897  0.4069  0.2771
79070W        W21987  14.872  30.797  24.688 -0.0515  0.1538  0.0537
79071W        W21988  14.374  24.903  20.128 -0.0153  0.0847  0.0678
79072W        W21989  15.634  30.292  20.892  0.4877  0.0659 -0.4240
79073W        W21990  17.439  26.438  22.263 -0.0625  0.0399  0.0751
79074W        W21991  16.784  25.883  21.798 -0.1675 -0.3096 -0.0741
79075W        W21992  12.747  30.341  20.437 -0.0005 -0.0532 -0.0223
79076W        W21993  13.611  23.748  18.478  0.1301  0.0752  0.1353
79077W        W21994  18.555  29.983  20.296 -0.2680 -0.1001 -0.0830
79078W        W21995  17.713  28.822  22.268  0.0080 -0.2011  0.0834
79079W        W21996  16.751  28.133  19.636 -0.1315 -0.0670  0.1956
79080W        W21997  14.865  28.370  22.160  0.2477 -0.0746 -0.1395
79081W        W21998  12.717  28.783  19.931 -0.0480  0.0197 -0.2848
79082W        W21999  15.146  27.074  23.450  0.1911  0.2323  0.1188
79083W        W22000  15.353  26.527  20.736  0.0360 -0.1586  0.0629
79084W        W22001  19.625  26.759  22.189 -0.1675  0.1904 -0.0864
79085W        W22002  14.399  31.414  21.904 -0.0846 -0.1761  0.1147
79086W        W22003  19.758  26.251  21.938 -0.0243  0.0007  0.4241
79087W        W22004  14.434  29.867  20.930 -0.0188 -0.1787  0.4587
79088W        W22005  16.530  29.618  22.217  0.1979  0.0404 -0.0761
79089W        W22006  16.935  28.962  20.750 -0.0665  0.1756 -0.0441
79090W        W22007  18.132  26.640  22.676 -0.0536 -0.0452 -0.1640
79091W        W22008  17.994  25.122  21.419  0.2006 -0.0080  0.4021
79092W        W22009  14.257  27.905  21.186  0.0649 -0.0059  0.3241
79093W        W22010  15.775  27.173  21.000 -0.0456  0.1042  0.1277
79094W        W22011  17.675  30.902  22.907  0.0859  0.1340 -0.2339
79095W        W22012  18.052  27.871  20.434  0.2251 -0.2278  0.2402
79096W        W22013  14.741  29.068  23.492  0.0267 -0.1871  0.2327
79097W        W22014  14.020  26.339  22.945 -0.1370  0.1034  0.3201
79098W        W22015  15.983  26.303  22.851 -0.0963  0.1517  0.3482
79099W        W22016  15.082  27.934  21.763  0.2128  0.1929 -0.3096
79100W        W22017  13.529  29.700  20.244 -0.0799  0.0435  0.2161
79101W        W22018  15.048  27.500  20.403  0.2849  0.0165 -0.2342
79102W        W22019  14.462  26.923  21.783 -0.2830 -0.1606  0.0282
79103W        W22020  14.731  27.661  22.233  0.1319  0.3427 -0.2341
79104W        W22021  15.894  27.754  20.155  0.0568  0.0239  0.4287
79105W        W22022  13.696  25.219  23.112 -0.1994 -0.1381  0.0405
79106W        W22023  17.286  24.479  18.511 -0.1634 -0.0712  0.1576
79107W        W22024  15.545  27.459  20.634 -0.3074 -0.2530  0.5209
79108W        W22025  18.522  27.719  20.655 -0.0066 -0.1904 -0.2471
79109W        W22026  16.667  26.265  20.095 -0.3145 -0.0223 -0.0062
79110W        W22027  15.730  29.548  20.058  0.0086  0.3607  0.0841
79111W        W22028  14.291  25.540  22.921  0.0330  0.1254  0.0337
79112W        W22029  14.941  25.959  21.380  0.1989 -0.0100  0.0122
79113W        W22030  16.079  28.173  22.411 -0.1430  0.0345  0.1651
79114W        W22031  16.981  25.710  22.200  0.0574  0.0853 -0.0237
79115W        W22032  16.298  27.670  22.657 -0.2415  0.2294  0.1950
79116W        W22033  14.828  24.306  18.876 -0.0269 -0.0800 -0.2237
79117W        W22034  16.206  27.066  20.140  0.4021 -0.1119 -0.0906
79118W        W22035  17.239  28.369  21.418 -0.1727  0.0095  0.0400
79119W        W22036  13.830  28.615  19.446 -0.0548  0.0296  0.1057
79120W        W22037  17.936  27.888  24.482  0.1257 -0.2724  0.1640
79121W        W22038  16.512  29.224  20.708  0.1496 -0.1536  0.0057
79122W        W22039  16.314  28.614  23.298  0.0973  0.1177 -0.0269
79123W        W22040  16.606  31.259  21.274  0.1988  0.1989  0.2133
79124W        W22041  14.033  28.755  22.046 -0.1638 -0.3357  0.0373
79125W        W22042  13.073  24.519  18.627 -0.0669  0.0765 -0.0109
79126W        W22043  14.830  28.336  21.559 -0.2713 -0.4186 -0.0395
79127W        W22044  15.052  29.028  19.422  0.3006  0.0618  0.0551
79128W        W22045  16.593  24.931  20.857 -0.0666  0.0574  0.2563
79129W        W22046  18.727  29.309  22.307  0.1495 -0.3278  0.1022
79130W        W22047  15.635  27.130  18.998 -0.0735  0.0115 -0.2030
79131W        W22048  13.794  28.126  21.244 -0.2959  0.2761 -0.0192
79132W        W22049  16.498  26.332  22.928 -0.1473 -0.0223  0.1359
79133W        W22050  17.286  28.913  22.526 -0.3586 -0.0125 -0.0941
79134W        W22051  15.819  27.384  21.880  0.0158  0.1930  0.2313
79135W        W22052  15.263  26.146  19.849  0.0693  0.0428  0.2848
79136W        W22053  16.002  29.746  21.416 -0.1906  0.0819  0.1126
79137W        W22054  13.756  27.318  20.632 -0.0000  0.1271 -0.0923
79138W        W22055  14.081  27.805  20.184  0.1183 -0.0586 -0.0487
79139W        W22056  15.246  29.294  20.083 -0.1764 -0.0641  0.1504
79140W        W22057  18.054  25.778  20.928 -0.5076  0.0264  0.0325
79141W        W22058  14.567  27.547  22.839 -0.4560  0.0148 -0.0024
79142W        W22059  15.654  26.029  23.192 -0.1916  0.1441 -0.2635
79143W        W22060  14.918  26.897  19.796 -0.0987  0.3014  0.2178
79144W        W22061  13.318  28.796  22.428 -0.3371  0.1005  0.0490
79145W        W22062  17.545  25.973  22.976 -0.0567 -0.2245  0.1957
79146W        W22063  16.902  25.498  19.366 -0.1705 -0.1114 -0.1122
79147W        W22064  14.739  28.729  22.517  0.1905 -0.2247 -0.0392
79148W        W22065  17.150  26.708  20.785 -0.1516  0.1583  0.2330
79149W        W22066  14.732  27.625  20.824 -0.0267  0.0377  0.1345
79150W        W22067  16.500  25.716  18.011 -0.0801 -0.0893 -0.0780
79151W        W22068  14.359  27.341  22.493 -0.0465  0.0126  0.2631
79152W        W22069  16.075  28.360  19.081  0.2081  0.1832  0.1181
79153W        W22070  15.085  29.160  22.189 -0.1078 -0.1558 -0.2173
79154W        W22071  16.446  25.528  18.486  0.1782  0.0009 -0.1006
79155W        W22072  17.032  29.481  20.227  0.2858  0.1174 -0.1219
79156W        W22073  14.159  29.537  21.213 -0.2456 -0.0354  0.0960
79157W        W22074  16.761  27.833  22.644  0.0681 -0.0337 -0.1983
79158W        W22075  16.843  28.468  20.583  0.0375 -0.1154  0.0330
79159W        W22076  14.936  26.440  24.337  0.1293 -0.3271 -0.0816
79160W        W22077  16.168  27.067  21.301  0.0162  0.1439  0.1580
79161W        W22078  14.711  27.135  22.151 -0.2236  0.0222 -0.1568
79162W        W22079  12.901  28.793  22.150  0.1262  0.2268  0.1284
79163W        W22080  16.342  27.294  23.146  0.0240 -0.1637  0.0202
79164W        W22081  15.673  26.842  21.999 -0.3703 -0.0007  0.3002
79165W        W22082  17.463  25.515  24.436 -0.1161 -0.0922  0.2330
79166W        W22083  17.047  28.261  23.924  0.0088  0.2908  0.1754
79167W        W22084  16.491  27.946  19.150 -0.1442 -0.1648 -0.2712
79168W        W22085  19.184  28.069  22.040  0.0847 -0.1745  0.0044
79169W        W22086  15.440  26.093  19.406  0.0754  0.0746  0.3944
79170W        W22087  15.121  28.167  23.289  0.1468  0.0030 -0.3422
79171W        W22088  14.395  28.418  22.362 -0.1232 -0.0783 -0.1515
79172W        W22089  13.802  29.891  22.361 -0.0894 -0.1166  0.0634
79173W        W22090  16.640  30.543  21.946  0.0058  0.2271 -0.2816
79174W        W22091  14.505  27.585  20.284 -0.1531  0.2395  0.1208
79175W        W22092  14.179  25.259  24.350 -0.1986  0.1859 -0.1022
79176W        W22093  16.347  26.640  18.475  0.1687  0.0696  0.2363
79177W        W22094  14.100  31.072  18.826  0.2721  0.3559 -0.1296
79178W        W22095  14.586  29.392  18.608 -0.2535 -0.0676  0.0412
79179W        W22096  16.246  25.038  21.816 -0.1157 -0.5987  0.0619
79180W        W22097  15.959  28.263  22.987  0.0106 -0.0698  0.0585
79181W        W22098  14.777  30.156  19.714 -0.2948  0.0012 -0.3470
79182W        W22099  15.584  27.731  23.929 -0.0281 -0.0482  0.0955
79183W        W22100  15.608  29.385  21.380  0.0732  0.1930  0.1647
79184W        W22101  15.385  25.537  22.481  0.3823 -0.2436  0.3108
79185W        W22102  15.352  28.417  22.098  0.0184 -0.0491  0.0615
79186W        W22103  17.101  27.067  21.640 -0.0838 -0.0859  0.0765
79187W        W22104  16.389  26.200  20.509 -0.0654 -0.0261 -0.0794
79188W        W22105  17.535  26.770  21.835 -0.1590  0.1385  0.1429
79189W        W22106  17.779  28.197  22.167 -0.3567  0.2478 -0.0585
79190W        W22107  16.567  24.928  23.242  0.1361  0.1133  0.0885
79191W        W22108  17.870  24.802  22.755 -0.2761  0.0443  0.0613
79192W        W22109  16.228  31.207  20.861  0.1394  0.3444  0.1614
79193W        W22110  15.731  28.733  21.823  0.0258 -0.4223  0.0185
79194W        W22111  16.651  28.001  20.586 -0.1713 -0.0227 -0.2639
79195W        W22112  16.323  29.120  23.403  0.1642 -0.1550  0.1664
79196W        W22113  14.403  26.463  23.260  0.0304 -0.0136  0.0251
79197W        W22114  14.142  23.824  19.206 -0.4815 -0.2086 -0.1105
79198W        W22115  16.948  26.285  21.490 -0.1160 -0.3740 -0.1518
79199W        W22116  15.614  27.086  21.509 -0.1738  0.2432  0.1444
79200W        W22117  11.743  29.033  21.775 -0.1193 -0.3727 -0.0384
79201W        W22118  16.644  28.461  23.686 -0.2132  0.0498  0.0064
79202W        W22119  13.085  26.064  21.143  0.1904 -0.1697  0.5177
79203W        W22120  14.997  26.540  18.581 -0.0236 -0.0502  0.0077
79204W        W22121  13.716  26.207  24.107  0.1888 -0.0290 -0.3007
79205W        W22122  15.372  27.412  22.166  0.1820 -0.1678 -0.2951
79206W        W22123  15.619  25.051  23.092  0.1388  0.1508 -0.1177
79207W        W22124  15.179  27.870  20.763 -0.2137  0.0839 -0.2014
79208W        W22125  16.358  25.914  19.275  0.2225  0.0068 -0.0565
79209W        W22126  18.573  29.105  20.965  0.2139 -0.0839  0.2314
79210W        W22127  13.137  25.602  22.139 -0.1757 -0.3736  0.0258
79211W        W22128  14.137  28.233  22.798 -0.1122  0.2872 -0.2096
79212W        W22129  16.215  25.046  19.923 -0.1474  0.2198 -0.0977
79213W        W22130  16.944  29.903  22.450  0.1902  0.4382 -0.0738
79214W        W22131  18.263  28.346  23.832  0.0307 -0.2288  0.1809
79215W        W22132  15.598  28.459  19.134 -0.3227 -0.1514  0.0669
79216W        W22133  13.072  27.858  21.383 -0.0575 -0.3161  0.0960
79217W        W22134  16.328  27.572  20.167 -0.4653 -0.2748  0.5917
79218W        W22135  15.395  26.343  22.815 -0.1448 -0.1084  0.0071
79219W        W22136  14.817  27.927  20.429 -0.0021  0.0242 -0.0951
79220W        W22137  15.044  26.735  17.940  0.3094 -0.0251 -0.0027
79221W        W22138  14.586  27.904  23.987  0.1973 -0.1791  0.0779
79222W        W22139  17.548  25.842  21.004  0.2583  0.1713 -0.1247
79223W        W22140  16.103  27.852  21.839 -0.2445  0.0390 -0.0818
79224W        W22141  15.479  25.733  21.456 -0.0530  0.2550 -0.2197
79225W        W22142  17.656  27.123  23.934  0.0600  0.1510  0.6239
79226W        W22143  17.941  26.012  20.447 -0.0494  0.0648 -0.0539
79227W        W22144  16.333  25.518  23.054  0.0663  0.0922 -0.1754
79228W        W22145  11.987  26.072  22.456  0.0697 -0.1307  0.1143
79229W        W22146  17.041  27.070  21.090 -0.0315  0.1644 -0.1776
79230W        W22147  13.963  26.762  23.175  0.1542  0.1625  0.0791
79231W        W22148  15.771  28.788  23.102 -0.1929  0.1822  0.2605
79232W        W22149  15.914  26.143  21.376  0.1044 -0.0990  0.1402
79233W        W22150  16.487  28.249  20.996 -0.1733  0.0961 -0.5076
79234W        W22151  13.924  25.468  21.657  0.0571 -0.2744 -0.1004
79235W        W22152  16.187  26.146  19.995 -0.1070 -0.0799  0.2843
79236W        W22153  18.351  29.099  21.598 -0.1767 -0.1440  0.2829
79237W        W22154  16.174  29.423  19.845 -0.5334 -0.1171  0.0660
79238W        W22155  18.380  27.057  20.189  0.4084  0.0418 -0.2415
79239W        W22156  13.624  27.118  21.136  0.2495 -0.0205 -0.0758
79240W        W22157  18.574  25.861  21.925 -0.1038 -0.0517  0.0450
79241W        W22158  13.705  27.751  18.755 -0.0980  0.0100 -0.3013
79242W        W22159  14.907  27.446  21.343 -0.0036  0.1632 -0.1324
79243W        W22160  14.521  24.331  24.130  0.0386 -0.1760 -0.2153
79244W        W22161  18.058  27.850  20.910 -0.1099  0.0570 -0.0118
79245W        W22162  17.854  26.013  22.344 -0.0028 -0.0520  0.0854
79246W        W22163  14.103  26.427  23.665 -0.0162 -0.3226 -0.0963
79247W        W22164  16.255  28.577  22.697 -0.2914  0.1824  0.0463
79248W        W22165  15.524  26.916  25.404  0.0369  0.0814 -0.0832
79249W        W22166  12.794  25.661  24.714 -0.0520  0.4645  0.0438
79250W        W22167  17.014  28.768  20.198 -0.1467 -0.1761  0.0104
79251W        W22168  16.902  27.607  21.794  0.1070  0.3462 -0.0603
79252W        W22169  15.391  26.028  22.385  0.0020  0.1836 -0.1360
79253W        W22170  16.507  29.108  21.910 -0.0902  0.0529  0.2491
79254W        W22171  17.422  27.177  20.792 -0.0863 -0.2496 -0.0995
79255W        W22172  13.735  26.427  22.359 -0.1377  0.1634 -0.1943
79256W        W22173  16.414  26.897  24.017 -0.0508 -0.0515 -0.1492
79257W        W22174  17.332  29.227  20.531 -0.0200 -0.4845 -0.1908
79258W        W22175  16.180  26.030  23.242  0.1348 -0.0375  0.3245
79259W        W22176  16.501  30.313  20.681 -0.1093  0.1391 -0.1839
79260W        W22177  14.742  27.436  19.814  0.2153  0.1669 -0.1757
79261W        W22178  15.387  27.636  22.594 -0.2506  0.0262 -0.4065
79262W        W22179  15.161  27.706  19.543  0.0593  0.0268  0.0711
79263W        W22180  15.706  29.375  22.436 -0.1336  0.0318  0.1039
79264W        W22181  16.630  24.780  18.822 -0.0904  0.3756 -0.0800
79265W        W22182  15.145  27.966  18.574 -0.1626  0.2255 -0.2673
79266W        W22183  15.708  29.795  20.936 -0.0211 -0.0428  0.1349
79267W        W22184  17.939  27.785  23.039 -0.5070 -0.0515  0.0067
79268W        W22185  16.292  25.461  22.094 -0.0052  0.2542 -0.0798
79269W        W22186  17.106  25.715  22.880  0.3607  0.1781  0.1950
79270W        W22187  14.381  29.661  20.463  0.3067  0.1665  0.0656
79271W        W22188  16.481  28.124  23.327 -0.0817  0.0541  0.0948
79272W        W22189  15.632  29.595  23.359 -0.1371 -0.1489 -0.0315
79273W        W22190  13.285  29.174  22.682  0.1344  0.1325 -0.4296
79274W        W22191  14.387  28.267  20.121  0.0861  0.0694 -0.2499
79275W        W22192  15.150  26.109  23.371 -0.2607 -0.0471 -0.1328
79276W        W22193  16.219  27.315  22.208  0.0855  0.1260 -0.4191
79277W        W22194  15.935  26.576  21.616 -0.2215  0.1968  0.2277
79278W        W22195  17.019  27.557  22.235  0.1994  0.4897  0.2210
79279W        W22196  16.136  30.497  21.115 -0.2728  0.2479  0.1322
79280W        W22197  13.871  27.299  21.564  0.0705 -0.0580  0.0616
79281W        W22198  16.858  28.658  22.513  0.1222 -0.5781  0.0023
79282W        W22199  18.663  29.658  21.586 -0.0942 -0.3010  0.1690
79283W        W22200  14.709  27.123  20.195  0.1418  0.1249 -0.2431
79284W        W22201  14.097  27.053  23.587 -0.0765  0.0407  0.4009
79285W        W22202  15.185  25.362  23.229 -0.1301 -0.0788 -0.0181
79286W        W22203  16.706  28.412  21.474  0.1552 -0.1306  0.1585
79287W        W22204  16.116  24.516  21.533  0.0627  0.1952 -0.1329
79288W        W22205  17.382  28.706  20.652 -0.0690  0.0638  0.1074
79289W        W22206  14.130  27.903  24.185 -0.2350 -0.0424  0.1963
79290W        W22207  11.450  26.650  23.820 -0.3188  0.0681 -0.2791
79291W        W22208  13.744  27.928  20.723 -0.1191 -0.1773 -0.0078
79292W        W22209  15.713  28.750  20.062  0.1227  0.1710  0.0644
79293W        W22210  16.984  27.950  21.364  0.1770  0.3316  0.1705
79294W        W22211  17.988  29.895  24.156 -0.0951  0.1240  0.1960
79295W        W22212  16.711  25.172  18.169 -0.1666  0.2217 -0.0196
79296W        W22213  15.723  28.502  21.301 -0.5434  0.0996  0.1762
79297W        W22214  13.809  26.681  18.860  0.0835 -0.1002 -0.0418
79298W        W22215  20.029  28.059  19.660 -0.3950  0.2144 -0.0096
79299W        W22216  15.598  29.267  20.826 -0.1437  0.0561  0.2103
79300W        W22217  18.941  28.691  25.006 -0.1283 -0.0044  0.0373
79301W        W22218  15.978  28.408  20.876  0.1677 -0.0657  0.0806
79302W        W22219  16.571  26.877  22.764 -0.5086 -0.2288 -0.0958
79303W        W22220  18.973  26.731  22.458  0.0384  0.0331  0.0191
79304W        W22221  16.891  27.528  24.659 -0.1004 -0.0336  0.1595
79305W        W22222  16.753  25.973  22.638 -0.2876 -0.1276 -0.0837
79306W        W22223  16.515  26.918  18.852 -0.1840 -0.0893 -0.0440
79307W        W22224  15.601  28.906  23.886  0.0422  0.1949 -0.1625
79308W        W22225  17.583  24.891  21.790  0.0080 -0.0837  0.3149
79309W        W22226  13.011  30.987  23.086  0.0575 -0.0575 -0.1039
79310W        W22227  17.916  29.176  21.840 -0.1269  0.3281 -0.5252
79311W        W22228  16.682  25.969  23.201  0.0131 -0.2877 -0.1113
79312W        W22229  16.409  27.401  21.734  0.0340 -0.0630 -0.1442
79313W        W22230  18.805  26.623  23.232 -0.2229  0.0368  0.2632
79314W        W22231  16.579  28.293  18.454  0.4790  0.1538  0.3705
79315W        W22232  14.537  25.983  20.972 -0.0021  0.0250 -0.5854
79316W        W22233  14.354  28.493  19.639  0.1516 -0.2001  0.1745
79317W        W22234  15.993  29.236  21.650 -0.4167  0.2008 -0.3793
79318W        W22235  15.855  30.129  21.814 -0.0543  0.1343 -0.0316
79319W        W22236  14.408  26.540  20.986 -0.3381  0.1788 -0.0747
79320W        W22237  19.412  26.664  20.438 -0.4804 -0.0486 -0.2244
79321W        W22238  15.076  27.782  23.024  0.2469 -0.0534  0.0790
79322W        W22239  18.127  27.716  21.389  0.1250 -0.0134  0.1461
79323W        W22240  16.206  29.468  22.566 -0.2283  0.0908 -0.1148
79324W        W22241  18.941  26.418  20.385 -0.0436 -0.2117 -0.1631
79325W        W22242  14.384  27.390  21.185  0.0649  0.2260 -0.0634
79326W        W22243  14.007  28.047  23.235 -0.1210  0.2184  0.3184
79327W        W22244  15.534  27.647  21.111 -0.1078  0.0152 -0.2329
79328W        W22245  16.992  27.543  25.670  0.0426 -0.1481  0.4535
79329W        W22246  16.472  28.611  18.798  0.2015  0.1075  0.1508
79330W        W22247  17.843  28.516  24.863  0.1911  0.1070 -0.0643
79331W        W22248  16.027  25.617  18.790 -0.3171 -0.3145 -0.1383
79332W        W22249  17.969  27.296  19.410 -0.2437 -0.0298  0.1245
79333W        W22250  14.450  25.794  21.487  0.2317 -0.2027  0.0174
79334W        W22251  14.849  26.586  21.847 -0.0269  0.0254 -0.2989
79335W        W22252  17.119  28.178  22.799  0.1350 -0.0973  0.1503
79336W        W22253  14.238  27.463  20.739 -0.1913  0.2010 -0.0615
79337W        W22254  16.032  27.777  19.107 -0.0051 -0.1455 -0.0683
79338W        W22255  17.037  26.617  21.861  0.0961  0.2228  0.2260
79339W        W22256  14.824  28.828  18.599 -0.1773  0.0628  0.1273
79340W        W22257  17.066  28.929  22.110  0.2512 -0.0102  0.0252
79341W        W22258  16.898  30.010  21.967 -0.2320 -0.0244 -0.1364
79342W        W22259  15.925  25.889  22.262  0.1661  0.1208 -0.1612
79343W        W22260  16.376  28.239  21.905  0.1364 -0.1690  0.0679
79344W        W22261  17.571  28.492  22.657  0.6065 -0.1919 -0.0293
79345W        W22262  18.159  28.339  21.378  0.2747 -0.1287  0.1448
79346W        W22263  13.368  28.662  21.254  0.1009 -0.0080  0.0741
79347W        W22264  14.450  28.762  21.039 -0.0829 -0.0283 -0.1899
79348W        W22265  16.115  27.781  23.085 -0.0390  0.3080 -0.3456
79349W        W22266  17.258  26.524  23.329  0.3274  0.3506  0.2054
79350W        W22267  16.158  28.005  20.515  0.2832  0.1321 -0.0268
79351W        W22268  17.563  26.822  23.074 -0.0640  0.0932 -0.1992
79352W        W22269  15.048  27.912  21.257 -0.2648 -0.1137 -0.0896
79353W        W22270  13.911  30.353  24.603  0.0353 -0.2913  0.0248
79354W        W22271  14.470  28.399  19.046 -0.1219 -0.0421  0.0164
79355W        W22272  15.303  28.903  23.210 -0.2366 -0.0465 -0.0991
79356W        W22273  15.154  28.406  20.633 -0.1173 -0.1467  0.0847
79357W        W22274  15.850  28.286  21.826 -0.1436 -0.1600  0.0033
79358W        W22275  16.265  29.965  22.586  0.4155 -0.0186  0.1260
79359W        W22276  17.902  25.092  23.167  0.0708 -0.2016  0.0462
79360W        W22277  17.069  30.104  22.962 -0.1132  0.0172 -0.1870
79361W        W22278  14.101  26.853  21.439  0.0493 -0.0509  0.2038
79362W        W22279  17.590  26.466  20.460  0.0139 -0.2119  0.0780
79363W        W22280  17.108  24.798  18.905 -0.2653  0.1259  0.0995
79364W        W22281  14.670  26.936  21.238 -0.2018  0.5554 -0.1779
79365W        W22282  15.540  26.615  18.763 -0.2111 -0.0421 -0.0939
79366W        W22283  13.587  29.972  19.323 -0.0557  0.1012 -0.0480
79367W        W22284  14.421  27.538  23.407 -0.1089 -0.2926 -0.1835
79368W        W22285  17.006  27.859  23.558 -0.2176 -0.0838 -0.1792
79369W        W22286  16.137  26.329  22.018  0.0653 -0.0595 -0.0908
79370W        W22287  11.897  28.623  22.630 -0.1742  0.0283 -0.0475
79371W        W22288  14.144  26.198  19.530 -0.1233  0.0175  0.0592
79372W        W22289  15.673  27.966  21.469 -0.2672  0.0584  0.1421
79373W        W22290  12.609  25.667  23.838 -0.2762  0.1556  0.0151
79374W        W22291  15.177  27.446  18.919 -0.0899 -0.2056  0.0222
79375W        W22292  17.092  26.208  20.992 -0.5207  0.0481  0.0118
79376W        W22293  17.780  30.033  21.785  0.0394  0.1343  0.1143
79377W        W22294  16.183  28.247  21.427  0.1138  0.0493  0.2074
79378W        W22295  16.558  28.345  24.177 -0.0387 -0.4071  0.0807
79379W        W22296  14.655  29.264  20.323  0.0059  0.1668  0.1332
79380W        W22297  15.021  27.351  22.471 -0.0399  0.1288  0.0708
79381W        W22298  14.622  28.260  23.675 -0.1171  0.2979 -0.0754
79382W        W22299  13.150  23.719  19.323  0.1826 -0.2718 -0.2873
79383W        W22300  16.045  28.678  22.227  0.0353 -0.1997  0.0205
79384W        W22301  14.584  28.416  20.592  0.0262  0.3786  0.2067
79385W        W22302  17.664  30.224  20.288  0.1016  0.0195  0.3511
79386W        W22303  15.654  27.708  22.974 -0.2049  0.3127  0.1812
79387W        W22304  15.719  29.103  23.442  0.0174 -0.3511 -0.2201
79388W        W22305  12.974  25.791  24.229 -0.2890  0.1214  0.1248
79389W        W22306  15.315  28.318  21.617  0.2117  0.0513  0.1781
79390W        W22307  13.651  27.701  23.912  0.1190  0.1434  0.1267
79391W        W22308  16.532  28.953  22.913  0.0036 -0.2649 -0.0755
79392W        W22309  17.195  25.631  21.729  0.1352  0.1166  0.1726
79393W        W22310  16.719  27.152  21.991  0.1532  0.0420 -0.1810
79394W        W22311  13.409  25.820  23.878 -0.0718 -0.3467  0.1560
79395W        W22312  13.319  26.620  24.146 -0.0609 -0.0785  0.1301
79396W        W22313  16.535  27.881  21.606 -0.0656 -0.0012  0.1620
79397W        W22314  14.600  26.114  21.968 -0.0672  0.2629 -0.3449
79398W        W22315  17.586  27.168  21.528  0.0718 -0.0187  0.0703
79399W        W22316  16.025  27.416  20.586 -0.2301  0.2110 -0.0941
79400W        W22317  13.765  29.376  22.137 -0.0524 -0.1837  0.0546
79401W        W22318  18.385  24.945  22.988  0.1311  0.3038 -0.1451
79402W        W22319  15.609  28.904  22.277  0.0417  0.1444 -0.2699
79403W        W22320  16.498  30.530  22.527  0.2206 -0.2365 -0.3495
79404W        W22321  14.405  27.402  21.725  0.3006  0.0707 -0.2365
79405W        W22322  17.984  28.767  21.583  0.1875  0.0254  0.1078
79406W        W22323  18.280  29.927  21.858  0.1507  0.1823  0.2395
79407W        W22324  14.808  29.669  21.822 -0.1762 -0.1308  0.0187
79408W        W22325  19.278  28.748  24.577  0.0263 -0.1447 -0.0766
79409W        W22326  15.227  28.040  23.808 -0.1168  0.1950 -0.1606
79410W        W22327  17.656  27.328  22.857  0.0578  0.0168  0.1148
79411W        W22328  13.435  26.619  23.178  0.0456  0.1092 -0.2118
79412W        W22329  14.062  28.054  18.428 -0.0861 -0.0982 -0.1154
79413W        W22330  15.688  26.609  20.234 -0.1281  0.5513 -0.1170
79414W        W22331  15.108  27.987  22.300 -0.1450  0.1583 -0.0701
79415W        W22332  14.062  24.615  23.842  0.0993 -0.1802 -0.4917
79416W        W22333  17.289  26.675  21.363 -0.2214  0.1597  0.0820
79417W        W22334  14.739  29.241  25.040 -0.1489  0.0191 -0.2457
79418W        W22335  15.042  29.416  23.206  0.1023 -0.3474  0.0530
79419W        W22336  14.608  27.374  26.530 -0.0101  0.2002  0.1300
79420W        W22337  15.032  26.004  24.598 -0.0967  0.1948  0.1010
79421W        W22338  13.892  25.629  24.109 -0.2122  0.1841  0.3486
79422W        W22339  16.604  26.376  23.971 -0.1302 -0.2566  0.0327
79423W        W22340  13.625  26.815  24.900 -0.0005  0.0430  0.1514
79424W        W22341  17.481  27.430  25.512 -0.2703  0.4666  0.2936
79425W        W22342  14.838  26.294  25.340 -0.1982  0.0351  0.1288
79426W        W22343  17.681  27.974  24.931  0.1988  0.1045  0.0362
79427W        W22344  18.533  28.330  22.689  0.2615 -0.2483  0.0411
79428W        W22345  14.325  29.464  24.229  0.2774 -0.2369  0.1305
79429W        W22346  14.899  24.248  25.190  0.0879 -0.1504 -0.2604
79430W        W22347  14.958  26.372  27.616 -0.1010  0.0248  0.2222
79431W        W22348  13.763  26.721  22.762  0.1842 -0.1562 -0.1004
79432W        W22349  14.937  24.064  24.437  0.0190 -0.0935 -0.2723
79433W        W22350  16.283  30.305  27.225 -0.1585  0.2124 -0.2585
79434W        W22351  15.208  28.260  25.305  0.2943 -0.0913 -0.0549
79435W        W22352  15.186  25.509  25.867 -0.0664  0.0190 -0.1440
79436W        W22353  16.082  28.333  24.230 -0.0767  0.1368 -0.5354
79437W        W22354  16.628  29.473  25.732  0.0687  0.3465  0.0886
79438W        W22355  15.346  26.024  24.201  0.1101  0.4383  0.0575
79439W        W22356  14.992  24.694  24.814  0.1411 -0.1197 -0.1787
79440W        W22357  15.846  28.695  25.816  0.0892  0.2041 -0.0673
79441W        W22358  14.607  26.209  23.667  0.1665  0.1419 -0.0934
79442W        W22359  15.026  26.378  23.828  0.3456  0.0922 -0.0865
79443W        W22360  15.986  28.235  26.250  0.2524 -0.2806 -0.1247
79444W        W22361  16.933  26.525  25.700 -0.1014 -0.3270 -0.1393
79445W        W22362  17.415  28.467  25.796 -0.2371  0.0004  0.0964
79446W        W22363  16.413  30.047  25.114 -0.0969 -0.2337 -0.1226
79447W        W22364  16.343  28.254  25.094  0.1047 -0.1078 -0.2236
79448W        W22365  16.724  26.636  25.152  0.4837 -0.0932 -0.1278
79449W        W22366  15.452  27.910  24.955  0.5540 -0.0752 -0.1396
79450W        W22367  15.334  25.725  23.642  0.2393  0.0805  0.0118
79451W        W22368  17.926  29.209  24.045  0.1274  0.0083 -0.1155
79452W        W22369  18.221  28.879  23.660  0.0627  0.1325 -0.1476
79453W        W22370  16.595  27.570  26.499 -0.3375 -0.1942 -0.1139
79454W        W22371  15.698  29.135  25.524  0.0835  0.1569  0.1700
79455W        W22372  14.009  27.858  21.611 -0.0811  0.0307  0.1086
79456W        W22373  16.927  28.552  25.918 -0.1120 -0.2981 -0.2000
79457W        W22374  16.787  28.909  26.453  0.0297 -0.3123 -0.2481
79458W        W22375  16.736  28.557  24.968  0.0774  0.0388 -0.0444
79459W        W22376  15.789  26.648  25.028  0.2068  0.3139  0.4255
79460W        W22377  14.834  26.951  22.715  0.1114  0.0312 -0.2869
79461W        W22378  15.897  26.758  23.788 -0.0732 -0.0358  0.0567
79462W        W22379  14.817  28.853  26.647 -0.0920 -0.3820 -0.0291
79463W        W22380  13.473  28.930  26.208  0.1462  0.1623  0.3156
79464W        W22381  18.734  24.814  25.885 -0.0151 -0.0131 -0.1341
79465W        W22382  17.391  28.704  24.759 -0.2459  0.0851 -0.4091
79466W        W22383  15.679  27.027  23.381 -0.4554  0.0045 -0.3659
79467W        W22384  14.017  28.419  20.837  0.1194  0.0367  0.0831
79468W        W22385  15.667  24.151  23.332 -0.1362 -0.1840 -0.1610
79469W        W22386  17.831  30.956  26.069 -0.1180 -0.1041  0.3818
79470W        W22387  16.020  28.827  24.229  0.1681  0.0885 -0.0003
79471W        W22388  17.069  25.967  25.652  0.1731 -0.1115 -0.1588
79472W        W22389  17.339  26.923  25.708 -0.1369 -0.0194 -0.0429
79473W        W22390  15.208  28.449  22.554  0.1053 -0.1218  0.2006
79474W        W22391  16.310  25.927  25.191  0.0124 -0.2796 -0.2598
79475W        W22392  14.352  29.572  24.994 -0.0544  0.0897  0.1735
79476W        W22393  15.025  26.815  25.478  0.0630 -0.2867 -0.1441
79477W        W22394  16.773  26.552  23.467  0.2384 -0.3157 -0.1127
79478W        W22395  18.447  28.091  26.590  0.0256 -0.0551  0.1259
79479W        W22396  15.422  28.480  23.551  0.0339 -0.1680  0.0182
79480W        W22397  14.799  25.993  24.137  0.0759  0.0829 -0.1190
79481W        W22398  14.815  27.294  28.032  0.0414  0.0124 -0.3596
79482W        W22399  15.577  25.459  25.532 -0.0570 -0.0492  0.3202
79483W        W22400  13.889  24.834  20.634  0.1730 -0.3137  0.0726
79484W        W22401  18.473  30.067  27.736 -0.0479  0.2090 -0.0495
79485W        W22402  16.167  28.530  27.137 -0.2463 -0.2273 -0.0900
79486W        W22403  17.540  25.963  25.886 -0.0958  0.0431  0.2116
79487W        W22404  16.265  27.761  24.769  0.1731 -0.0536 -0.0153
79488W        W22405  18.243  29.852  27.360  0.2115 -0.1001  0.0501
79489W        W22406  15.321  28.472  24.054  0.0299 -0.1188  0.0144
79490W        W22407  16.079  26.002  24.775  0.0820 -0.3226 -0.3088
79491W        W22408  18.496  25.264  25.329 -0.0816  0.1942 -0.1534
79492W        W22409  14.939  28.741  23.867  0.1073  0.3206  0.0148
79493W        W22410  17.107  26.397  23.821  0.0253 -0.2897  0.0677
79494W        W22411  17.347  27.792  26.823 -0.1853 -0.0413 -0.0340
79495W        W22412  18.190  26.908  25.388  0.0624 -0.0132  0.1716
79496W        W22413  14.211  29.058  23.332 -0.1181 -0.1521 -0.2582
79497W        W22414  15.003  28.629  26.260 -0.3736 -0.0659  0.2500
79498W        W22415  15.002  28.918  27.192 -0.3086  0.3315  0.1464
79499W        W22416  14.316  27.985  20.709 -0.3465 -0.1254  0.2482
79500W        W22417  15.539  27.333  25.184 -0.2740 -0.0642 -0.0397
79501W        W22418  14.922  28.523  22.928  0.1136  0.0065  0.0061
79502W        W22419  15.385  26.583  23.571  0.0676  0.0120 -0.1154
79503W        W22420  14.993  29.103  24.621 -0.1873 -0.0728  0.1719
79504W        W22421  16.881  25.152  24.017  0.2242 -0.1729  0.3075
79505W        W22422  15.413  25.452  26.453  0.1274  0.1732 -0.0237
79506W        W22423  18.057  26.328  24.573 -0.0470  0.1607  0.1061
79507W        W22424  14.297  25.884  23.370 -0.0520 -0.1826  0.2192
79508W        W22425  17.488  28.211  23.652  0.0009 -0.1009 -0.1127
79509W        W22426  17.200  24.733  23.921 -0.2547  0.2831  0.1032
79510W        W22427  14.977  28.074  24.701  0.1028 -0.0959 -0.0062
79511W        W22428  14.171  26.092  27.484 -0.0116  0.0264  0.0704
79512W        W22429  15.456  26.840  25.886 -0.2512 -0.0625 -0.1734
79513W        W22430  17.829  28.343  25.447  0.0142 -0.1919 -0.3487
79514W        W22431  15.883  25.569  24.889  0.3872 -0.0625  0.1152
79515W        W22432  19.512  27.112  27.152  0.0304 -0.0888  0.2000
79516W        W22433  14.004  25.477  23.377 -0.2113 -0.0280 -0.2219
79517W        W22434  17.802  26.491  27.157  0.3030 -0.0588 -0.1168
79518W        W22435  16.339  28.839  24.951 -0.0920  0.0289  0.0673
79519W        W22436  13.676  27.783  25.009 -0.0446  0.1736 -0.0972
79520W        W22437  18.328  23.895  25.195  0.1123  0.0859 -0.3228
79521W        W22438  17.029  29.752  25.592 -0.1515  0.5195 -0.0390
79522W        W22439  17.266  28.749  26.758 -0.0510  0.1549  0.1214
79523W        W22440  17.751  29.658  27.563 -0.0220 -0.1137  0.2613
79524W        W22441  14.102  24.601  26.722 -0.0652 -0.4262 -0.3999
79525W        W22442  14.676  25.600  22.530  0.2519  0.0068 -0.3783
79526W        W22443  16.049  27.431  25.200 -0.1654  0.0276  0.3471
79527W        W22444  16.661  27.171  24.338 -0.2605  0.0657 -0.0966
79528W        W22445  13.995  24.956  22.351  0.2697 -0.0076  0.4474
79529W        W22446  17.618  29.759  26.009  0.0030  0.0585 -0.0291
79530W        W22447  16.143  26.736  23.053  0.0583 -0.1659 -0.2533
79531W        W22448  15.058  26.926  26.966  0.1186  0.1400 -0.0890
79532W        W22449  18.769  25.476  25.687 -0.0282  0.1077 -0.0224
79533W        W22450  17.581  28.338  26.719 -0.0641 -0.0554 -0.1573
79534W        W22451  17.297  28.349  26.282 -0.0703  0.2232 -0.0275
79535W        W22452  12.900  26.783  22.936 -0.1456 -0.0680 -0.0630
79536W        W22453  17.158  30.752  24.337  0.0853 -0.0865 -0.2898
79537W        W22454  15.493  28.820  24.480  0.2861 -0.0293 -0.0031
79538W        W22455  15.698  27.339  24.313  0.0057  0.0831 -0.0905
79539W        W22456  15.984  26.440  24.599 -0.0334  0.2860  0.3463
79540W        W22457  15.943  25.712  23.537 -0.0146  0.2776 -0.1418
79541W        W22458  15.355  24.971  27.463  0.0088  0.1958 -0.0685
79542W        W22459  16.262  26.440  27.929 -0.0680 -0.0267 -0.2430
79543W        W22460  11.805  25.972  24.266  0.1670 -0.0109  0.4696
79544W        W22461  15.850  28.922  28.429  0.2669 -0.0071 -0.1305
79545W        W22462  17.712  27.705  23.558  0.4101 -0.1532  0.0579
79546W        W22463  16.432  26.412  22.470 -0.0639  0.1214 -0.0434
79547W        W22464  16.532  24.790  26.499  0.1174  0.1837  0.1347
79548W        W22465  15.990  25.863  20.480  0.3807 -0.1060  0.2250
79549W        W22466  16.254  26.510  23.563 -0.1650  0.2816  0.1690
79550W        W22467  16.282  26.793  24.822 -0.0370  0.0869 -0.1494
79551W        W22468  15.463  27.273  27.118  0.0092 -0.0291 -0.2001
79552W        W22469  15.741  28.232  25.765  0.0869  0.2998  0.2785
79553W        W22470  17.384  27.740  24.641 -0.1380 -0.1154 -0.1349
79554W        W22471  15.731  26.830  22.766 -0.3268 -0.0458 -0.0311
79555W        W22472  18.139  28.084  25.772  0.4256 -0.0592  0.1125
79556W        W22473  15.130  25.527  25.321  0.0801 -0.0252 -0.0420
79557W        W22474  14.979  27.204  27.371  0.1399 -0.0132  0.0194
79558W        W22475  16.931  28.990  24.827  0.3166 -0.1899  0.1332
79559W        W22476  16.287  26.036  26.239 -0.3342  0.1436 -0.0710
79560W        W22477  13.404  27.934  23.501 -0.3284  0.1319  0.3551
79561W        W22478  16.164  26.437  25.301  0.0873 -0.2699  0.0225
79562W        W22479  14.701  29.144  21.902  0.2233  0.0193 -0.2975
79563W        W22480  16.410  26.746  25.590  0.1288  0.0181  0.1810
79564W        W22481  17.427  25.190  25.696 -0.1577  0.1614 -0.2931
79565W        W22482  16.802  26.314  27.003  0.0518  0.0454  0.2052
79566W        W22483  16.082  25.432  25.534  0.1933  0.1321 -0.1358
79567W        W22484  15.845  25.579  23.105 -0.0927  0.1980 -0.1429
79568W        W22485  16.706  28.021  25.719 -0.1854 -0.1916 -0.0187
79569W        W22486  12.676  25.202  23.991 -0.0931 -0.2123  0.1834
79570W        W22487  14.296  26.323  27.101  0.1823 -0.1616 -0.0706
79571W        W22488  15.884  27.892  24.335 -0.1585 -0.3148 -0.0350
79572W        W22489  13.890  30.303  25.829 -0.0222  0.1682  0.0904
79573W        W22490  17.192  26.695  25.063  0.1495  0.2694  0.0992
79574W        W22491  17.191  28.070  25.526 -0.0771  0.0740 -0.2041
79575W        W22492  16.485  27.304  25.409  0.1797  0.1479 -0.2208
79576W        W22493  17.725  24.986  24.221  0.1235  0.1031  0.0880
79577W        W22494  13.806  28.983  22.506  0.3100 -0.0653  0.3191
79578W        W22495  14.803  29.756  22.791  0.2942 -0.3112  0.2918
79579W        W22496  14.631  25.366  24.015 -0.0604  0.2289 -0.2124
79580W        W22497  16.830  29.007  26.930  0.1717  0.0158 -0.0629
79581W        W22498  14.993  27.397  21.835 -0.1967  0.0634 -0.2398
79582W        W22499  15.689  26.229  26.413 -0.1299 -0.0331 -0.0024
79583W        W22500  15.554  28.281  24.510 -0.0673  0.2046 -0.1730
79584W        W22501  17.071  24.770  26.601 -0.2490  0.0409 -0.1292
79585W        W22502  14.210  28.200  24.813  0.0214  0.1461  0.2343
79586W        W22503  15.065  25.816  22.792 -0.2371  0.1663 -0.0258
79587W        W22504  14.331  27.822  22.533  0.0573 -0.2495 -0.1160
79588W        W22505  17.521  25.924  24.252  0.0952 -0.1062 -0.1824
79589W        W22506  18.537  27.784  22.663  0.1687  0.1733 -0.0981
79590W        W22507  16.307  27.289  24.722  0.2166 -0.0316 -0.2390
79591W        W22508  15.499  25.769  25.121  0.4042 -0.0757 -0.0396
79592W        W22509  15.886  27.918  25.257  0.0438 -0.1408  0.0728
79593W        W22510  16.505  27.497  27.358  0.0248 -0.2358  0.2155
79594W        W22511  15.534  26.492  24.068  0.1583 -0.4224 -0.0966
79595W        W22512  16.773  27.046  25.856  0.0804  0.1506 -0.0653
79596W        W22513  13.984  26.211  25.988 -0.2823  0.0133  0.2033
79597W        W22514  15.508  27.211  23.845 -0.0375 -0.0673 -0.1046
79598W        W22515  18.483  27.098  26.312  0.0218 -0.3949 -0.0242
79599W        W22516  14.552  27.891  25.554  0.0752  0.1392 -0.0859
79600W        W22517  15.216  29.161  25.078  0.1817  0.3282 -0.0468
79601W        W22518  16.596  27.630  25.074 -0.1813 -0.2362 -0.2053
79602W        W22519  14.462  26.071  22.813 -0.0654 -0.0818 -0.2171
79603W        W22520  14.972  28.319  26.678 -0.0299 -0.0421  0.2379
79604W        W22521  16.349  25.018  26.072 -0.0658  0.3694 -0.2227
79605W        W22522  16.730  26.730  27.234  0.3488 -0.1952 -0.2379
79606W        W22523  15.797  26.082  25.342  0.1255 -0.0442 -0.1494
79607W        W22524  15.752  27.590  24.745  0.4291  0.2077 -0.2254
79608W        W22525  14.245  25.593  27.405  0.1437 -0.1507  0.0456
79609W        W22526  19.288  27.028  25.623  0.1206  0.2170 -0.0303
79610W        W22527  17.192  24.272  26.534 -0.0929 -0.1654  0.2002
79611W        W22528  15.354  25.884  26.133  0.1472  0.0508 -0.1441
79612W        W22529  14.925  22.841  25.977 -0.1351 -0.0947  0.1324
79613W        W22530  18.740  29.020  23.989  0.0893 -0.0898  0.0088
79614W        W22531  17.800  27.784  29.258 -0.0342  0.1856  0.2953
79615W        W22532  16.232  27.469  24.296 -0.1293 -0.0002 -0.2747
79616W        W22533  14.395  28.780  23.835  0.0071 -0.2958 -0.1624
79617W        W22534  15.409  28.905  22.699  0.3077  0.0454 -0.0273
79618W        W22535  14.977  26.798  26.008  0.2382 -0.2193 -0.1326
79619W        W22536  15.510  28.026  27.088  0.1563  0.4599  0.0032
79620W        W22537  17.613  29.006  24.383  0.2512  0.3324  0.1605
79621W        W22538  14.773  28.673  27.600 -0.1324  0.0854 -0.0344
79622W        W22539  16.323  26.843  26.091 -0.0379  0.0163  0.2049
79623W        W22540  15.787  29.695  22.790 -0.1254 -0.2269  0.0315
79624W        W22541  15.172  26.817  24.032  0.0884 -0.2251 -0.0255
79625W        W22542  18.254  24.424  25.008 -0.2386 -0.1628 -0.2298
79626W        W22543  14.664  26.697  23.892 -0.3093 -0.2906 -0.4592
79627W        W22544  17.434  25.069  26.678  0.1484  0.1645  0.1606
79628W        W22545  17.154  25.352  23.564 -0.1482  0.0673  0.0166
79629W        W22546  16.039  28.125  23.574 -0.2359  0.0771  0.1958
79630W        W22547  15.304  26.434  26.177  0.0094 -0.0764  0.1120
79631W        W22548  17.772  30.080  29.628  0.0679 -0.1314 -0.0939
79632W        W22549  14.140  26.899  26.389 -0.2190  0.1569  0.0536
79633W        W22550  16.256  28.310  25.714 -0.1060 -0.0574 -0.2967
79634W        W22551  13.581  26.177  24.989 -0.0814  0.0617  0.0733
79635W        W22552  17.251  29.649  26.335  0.0425 -0.1997  0.2797
79636W        W22553  18.041  27.365  25.268  0.1392 -0.1053 -0.1455
79637W        W22554  16.732  26.565  24.600  0.0384  0.3654  0.2662
79638W        W22555  17.874  26.564  25.591  0.0017  0.2109 -0.1638
79639W        W22556  13.427  27.443  25.352 -0.0085 -0.3367  0.2076
79640W        W22557  16.463  26.295  24.930 -0.2105  0.1638  0.2325
79641W        W22558  16.428  25.946  22.236  0.0830 -0.0881 -0.1533
79642W        W22559  15.965  28.636  23.724  0.1717  0.1882 -0.0980
79643W        W22560  16.617  25.824  25.568 -0.0543  0.2149  0.1697
79644W        W22561  15.456  26.428  25.319  0.3189 -0.2920  0.0648
79645W        W22562  17.384  26.405  25.424  0.4144  0.0296  0.0548
79646W        W22563  16.306  23.753  25.702 -0.2398  0.0029 -0.1752
79647W        W22564  19.803  26.881  26.868 -0.0871  0.2918  0.1519
79648W        W22565  15.339  27.053  28.058 -0.2126  0.0403  0.0669
79649W        W22566  14.179  25.901  26.733 -0.0837  0.1412  0.1739
79650W        W22567  18.098  27.014  27.051  0.1797 -0.0026  0.2523
79651W        W22568  16.551  28.270  22.412  0.1772  0.4275  0.2235
79652W        W22569  18.897  26.956  27.687 -0.2476  0.0647 -0.1613
79653W        W22570  15.865  26.176  23.738 -0.1621 -0.1673 -0.2463
79654W        W22571  15.913  28.094  24.767  0.0223 -0.0667  0.1062
79655W        W22572  12.982  28.079  26.185 -0.0144 -0.0265  0.1184
79656W        W22573  17.437  28.208  27.141 -0.0785 -0.0911  0.0890
79657W        W22574  13.710  27.134  23.868 -0.1196  0.3132 -0.0354
79658W        W22575  17.719  26.215  24.990 -0.1920 -0.1066  0.0093
79659W        W22576  18.686  30.782  23.935  0.0715  0.1225  0.3707
79660W        W22577  15.181  29.164  23.614 -0.3323 -0.1264  0.0756
79661W        W22578  16.296  25.990  23.949 -0.1190 -0.3187 -0.4121
79662W        W22579  14.521  26.019  27.945  0.0748  0.0891  0.1136
79663W        W22580  14.147  28.619  24.530 -0.0940  0.0047 -0.0179
79664W        W22581  14.251  27.175  23.080  0.2793  0.1477  0.1934
79665W        W22582  15.147  28.792  21.789 -0.2316 -0.1556 -0.1995
79666W        W22583  16.843  30.508  26.529  0.2817  0.3358 -0.1807
79667W        W22584  17.025  27.434  27.493  0.2453 -0.0408  0.1472
79668W        W22585  17.140  25.709  24.015 -0.2273 -0.2690 -0.0441
79669W        W22586  17.887  27.048  27.622  0.2238 -0.0877  0.0386
79670W        W22587  13.304  28.430  23.257 -0.1807 -0.0657  0.0581
79671W        W22588  16.981  26.276  24.838 -0.3782  0.0718  0.0346
79672W        W22589  15.051  29.849  25.732 -0.2433 -0.2689 -0.0733
79673W        W22590  15.499  29.349  24.653  0.1470  0.0934  0.1659
79674W        W22591  15.788  29.270  24.171 -0.0769 -0.0127  0.1276
79675W        W22592  15.938  22.648  26.417  0.2508  0.0455 -0.1604
79676W        W22593  16.516  27.859  24.335 -0.1329  0.0699  0.5185
79677W        W22594  15.097  27.409  26.755  0.0568  0.3743 -0.2750
79678W        W22595  19.944  26.866  25.761  0.1118  0.0298 -0.0545
79679W        W22596  17.890  28.660  25.868  0.1556  0.3156 -0.2622
79680W        W22597  16.044  26.973  24.287  0.3683 -0.0431 -0.2577
79681W        W22598  17.271  29.679  27.449 -0.0672  0.1654 -0.1247
79682W        W22599  17.142  26.840  26.251 -0.0390  0.1273 -0.0973
79683W        W22600  17.106  28.945  24.347 -0.2963 -0.2175  0.0520
79684W        W22601  14.257  24.448  24.988 -0.0924  0.2011 -0.2446
79685W        W22602  16.404  25.240  26.518  0.1726  0.2325 -0.1488
79686W        W22603  17.159  28.001  26.007 -0.1890 -0.2663  0.5789
79687W        W22604  16.970  25.581  24.464 -0.1250  0.0487 -0.0167
79688W        W22605  16.919  26.322  22.335 -0.1539  0.0849  0.2667
79689W        W22606  16.197  30.543  27.709 -0.2831 -0.1340 -0.0010
79690W        W22607  13.726  25.349  27.660 -0.1373  0.0654 -0.2976
79691W        W22608  13.811  30.358  23.110  0.1572 -0.3530 -0.4148
79692W        W22609  17.613  30.412  23.139  0.0672 -0.0144  0.0939
79693W        W22610  16.630  25.569  23.977  0.3810 -0.2275 -0.2830
79694W        W22611  18.251  28.169  25.312  0.3674  0.1288  0.2465
79695W        W22612  15.470  25.019  22.592  0.0145 -0.0799 -0.0905
79696W        W22613  15.335  27.775  24.486  0.3473  0.2242  0.0664
79697W        W22614  14.571  28.863  24.325 -0.1951 -0.2901 -0.3696
79698W        W22615  16.737  28.478  22.968 -0.3052 -0.2491 -0.0171
79699W        W22616  14.508  30.140  27.139  0.0317 -0.2363  0.1456
79700W        W22617  18.113  27.848  28.141  0.3012  0.1608  0.2409
79701W        W22618  16.794  25.382  23.215  0.0745 -0.1475  0.0838
79702W        W22619  18.574  27.580  23.768 -0.5106 -0.1449 -0.3139
79703W        W22620  18.318  28.261  24.362 -0.1140  0.1886  0.1676
79704W        W22621  15.728  26.707  27.229  0.1228 -0.2138 -0.0139
79705W        W22622  16.347  25.379  25.064  0.0259 -0.2526  0.0697
79706W        W22623  15.197  24.841  23.054  0.0444  0.1884 -0.0745
79707W        W22624  14.970  26.511  26.552  0.0456 -0.0402 -0.0039
79708W        W22625  18.233  25.774  27.264 -0.0983 -0.0852 -0.0902
79709W        W22626  14.096  28.812  25.054 -0.4219  0.0252 -0.0200
79710W        W22627  18.910  28.498  23.598 -0.0542 -0.2027 -0.4409
79711W        W22628  14.794  25.240  22.214  0.0623 -0.1310  0.1543
79712W        W22629  15.987  28.849  26.287  0.3068  0.0304  0.0506
79713W        W22630  18.086  25.538  25.380  0.0560  0.3768  0.1074
79714W        W22631  14.561  28.662  21.894  0.3413 -0.0992  0.2751
79715W        W22632  18.626  25.728  26.407  0.0087 -0.2443  0.1536
79716W        W22633  15.328  27.631  23.421 -0.3113 -0.0504 -0.2932
79717W        W22634  17.544  27.831  26.256 -0.1338  0.1000  0.0730
79718W        W22635  16.223  29.087  25.802 -0.1095  0.0774 -0.1047
79719W        W22636  14.911  27.612  24.886  0.0189 -0.3130  0.2657
79720W        W22637  15.547  26.744  24.529  0.1426 -0.2622  0.0778
79721W        W22638  15.823  24.032  26.556 -0.0590  0.1217 -0.1297
79722W        W22639  15.263  25.018  25.825 -0.1551  0.1511 -0.1033
79723W        W22640  13.798  25.561  25.750 -0.1323 -0.1404  0.0126
79724W        W22641  16.538  26.300  25.869  0.0536  0.0924 -0.2450
79725W        W22642  18.550  26.235  26.551  0.2021 -0.0162  0.3506
79726W        W22643  16.568  25.421  25.855 -0.0289  0.1053  0.1177
79727W        W22644  17.254  27.631  22.786  0.2690  0.3067 -0.1247
79728W        W22645  18.858  26.260  25.375 -0.3109 -0.3999  0.2327
79729W        W22646  16.484  25.486  21.633  0.0493  0.0465  0.1129
79730W        W22647  17.066  28.027  28.044  0.1580  0.1047  0.1495
79731W        W22648  13.712  27.300  24.799 -0.0376 -0.0107  0.0145
79732W        W22649  17.195  25.953  23.370  0.2250 -0.2350  0.2944
79733W        W22650  11.756  26.226  25.395 -0.0821  0.0302  0.0223
79734W        W22651  16.646  27.059  26.359 -0.2295 -0.1283  0.2151
79735W        W22652  18.119  29.014  26.734 -0.0387  0.2526 -0.0357
79736W        W22653  13.315  27.127  25.775 -0.0391 -0.0909 -0.2533
79737W        W22654  18.021  27.608  22.562 -0.0202 -0.1081 -0.0459
79738W        W22655  18.661  27.641  27.247  0.0558 -0.1964 -0.0642
79739W        W22656  14.969  31.471  24.400 -0.1787 -0.1486  0.1702
79740W        W22657  15.982  29.006  22.688  0.0325  0.1935 -0.0719
79741W        W22658  17.996  26.349  26.667 -0.2032 -0.2451  0.0188
79742W        W22659  13.871  25.996  25.501  0.1353  0.1835  0.0873
79743W        W22660  17.161  29.705  26.893 -0.0710 -0.1140 -0.0029
79744W        W22661  17.986  25.834  26.196  0.0214  0.1520 -0.0401
79745W        W22662  16.090  25.965  25.788  0.0743  0.1881 -0.0526
79746W        W22663  13.720  29.043  24.688  0.0701  0.2668  0.1201
79747W        W22664  14.784  27.283  23.179  0.1605  0.0105  0.0138
79748W        W22665  18.298  26.544  26.254  0.1262 -0.0605 -0.0119
79749W        W22666  16.403  26.661  26.597  0.1390 -0.1583  0.0394
79750W        W22667  16.846  27.801  23.117 -0.0348 -0.1548 -0.0867
79751W        W22668  17.858  25.439  25.856 -0.1105 -0.0050  0.2017
79752W        W22669  16.440  28.636  26.040 -0.0853  0.2772 -0.3553
79753W        W22670  13.576  25.756  27.920 -0.1489 -0.1680  0.1122
79754W        W22671  14.396  25.201  22.486  0.1286 -0.0058 -0.0357
79755W        W22672  15.287  27.379  25.672 -0.0465 -0.3256 -0.1647
79756W        W22673  18.095  30.066  23.680 -0.0102  0.0513 -0.1398
79757W        W22674  17.207  28.955  25.513  0.2481 -0.0908  0.1487
79758W        W22675  18.641  27.907  24.603 -0.1893 -0.1392  0.1343
79759W        W22676  18.391  26.625  26.830  0.0703 -0.1550 -0.2481
79760W        W22677  19.117  28.197  22.588 -0.2029  0.3108 -0.0205
79761W        W22678  15.823  26.597  25.614  0.2182  0.0305 -0.2518
79762W        W22679  17.978  26.740  24.283  0.0071 -0.1497  0.1236
79763W        W22680  16.947  26.789  24.168  0.0829  0.1277 -0.1837
79764W        W22681  15.028  27.706  27.148  0.0563  0.0932 -0.0990
79765W        W22682  14.083  27.470  23.987 -0.1621  0.4689 -0.1442
79766W        W22683  15.747  28.534  22.619 -0.0552  0.1255 -0.0755
79767W        W22684  14.478  27.373  25.259  0.1326 -0.0440 -0.1806
79768W        W22685  16.244  24.393  26.480 -0.0319  0.3354 -0.3149
79769W        W22686  16.116  27.155  25.740 -0.0514  0.0528 -0.0070
79770W        W22687  14.932  27.030  26.462 -0.0209 -0.1172 -0.0742
79771W        W22688  16.139  26.489  24.122 -0.0256 -0.0667 -0.0487
79772W        W22689  19.250  28.980  25.206  0.2113 -0.1063  0.1807
79773W        W22690  15.608  24.901  25.476 -0.2969 -0.0193  0.0040
79774W        W22691  13.339  27.065  26.804  0.0339  0.1440  0.0491
79775W        W22692  16.593  27.994  23.809  0.0119  0.1154  0.1676
79776W        W22693  18.985  28.828  25.606 -0.0308 -0.1850  0.4772
79777W        W22694  17.116  25.542  25.945  0.0759  0.1576 -0.0501
79778W        W22695  17.633  28.270  28.040  0.1718  0.1392  0.0835
79779W        W22696  14.987  27.724  25.381 -0.1745 -0.0299 -0.2651
79780W        W22697  14.699  26.056  26.579  0.0915 -0.0744  0.1854
79781W        W22698  14.879  25.681  26.300 -0.2446 -0.0262  0.0382
79782W        W22699  12.769  25.141  23.412 -0.1451  0.0146  0.2190
79783W        W22700  16.077  27.276  26.276 -0.1184 -0.0811  0.1849
79784W        W22701  16.372  28.259  24.623  0.1449 -0.0342  0.2679
79785W        W22702  18.954  27.887  23.961  0.1037 -0.0072  0.1042
79786W        W22703  14.742  31.101  25.208 -0.1065 -0.3824  0.1758
79787W        W22704  16.529  27.519  25.924 -0.3251  0.3111  0.0943
79788W        W22705  14.823  24.089  23.321  0.0698  0.3095 -0.2192
79789W        W22706  16.825  25.977  23.717 -0.0258  0.1914  0.1091
79790W        W22707  16.112  27.812  25.938 -0.0238  0.2452 -0.2725
79791W        W22708  18.338  27.111  21.930 -0.0910 -0.2148 -0.1403
79792W        W22709  18.477  26.502  27.864 -0.1379  0.0448  0.2933
79793W        W22710  16.856  27.608  23.987 -0.0653 -0.0822 -0.1971
79794W        W22711  15.231  22.944  25.604  0.1072  0.1467 -0.1970
79795W        W22712  15.464  26.590  26.712  0.0963 -0.0707  0.0477
79796W        W22713  17.844  27.337  26.238  0.1296  0.1773  0.0853
79797W        W22714  15.722  26.391  22.408  0.0790 -0.0658  0.3277
79798W        W22715  16.366  26.994  23.544  0.1393 -0.2779 -0.2750
79799W        W22716  17.143  27.459  23.268  0.1303 -0.1035  0.0444
79800W        W22717  14.900  28.841  25.424 -0.1669  0.0790  0.1243
79801W        W22718  17.482  24.972  23.429 -0.2463  0.0308  0.0050
79802W        W22719  17.199  27.285  26.641 -0.0705 -0.1440 -0.1038
79803W        W22720  15.776  27.598  25.598 -0.4346  0.1006 -0.0701
79804W        W22721  18.310  29.249  27.372  0.0286  0.0396 -0.0505
79805W        W22722  15.830  27.512  23.486  0.3620  0.1547 -0.3992
79806W        W22723  17.515  27.482  22.390 -0.2505 -0.0419 -0.2420
79807W        W22724  16.491  29.756  28.034 -0.0075 -0.4198 -0.4853
79808W        W22725  18.600  28.973  26.884  0.0047 -0.0077  0.0955
79809W        W22726  17.098  28.541  25.314 -0.1808  0.0560  0.1397
79810W        W22727  18.519  27.623  26.517  0.0231  0.3937  0.0681
79811W        W22728  14.307  24.253  26.058  0.0913 -0.1345 -0.1475
79812W        W22729  15.407  28.745  25.377 -0.2021 -0.2250  0.1727
79813W        W22730  13.030  26.114  27.144  0.0231  0.2472 -0.3386
79814W        W22731  16.918  26.705  26.698  0.1942  0.2130  0.3319
79815W        W22732  14.227  27.733  26.500 -0.2025  0.0578  0.3084
79816W        W22733  16.988  26.173  24.321 -0.3075 -0.1722  0.0123
79817W        W22734  17.130  30.739  26.046  0.2030  0.0643  0.1721
79818W        W22735  15.635  27.789  26.197 -0.1909 -0.2621  0.1289
79819W        W22736  14.849  27.330  30.248 -0.0855 -0.0211  0.1182
79820W        W22737  15.154  26.031  27.183 -0.0440 -0.0039 -0.0294
79821W        W22738  17.655  25.618  27.264 -0.0561  0.2984  0.1515
79822W        W22739  18.214  25.822  26.711 -0.0621 -0.0784  0.2940
79823W        W22740  15.580  24.958  27.986 -0.2169 -0.1936 -0.1947
79824W        W22741  18.169  28.976  29.507  0.3937  0.3247 -0.4079
79825W        W22742  15.079  24.882  30.083 -0.3418  0.1169  0.0731
79826W        W22743  17.605  28.692  31.158  0.1512  0.1167 -0.1285
79827W        W22744  18.947  28.846  30.674  0.0022  0.2065 -0.1115
79828W        W22745  17.084  28.306  26.823 -0.3472 -0.0033 -0.2131
79829W        W22746  16.461  26.942  28.027 -0.0107  0.1435 -0.0761
79830W        W22747  16.239  29.783  30.378 -0.1314 -0.3973  0.3089
79831W        W22748  15.080  23.963  27.737 -0.0498 -0.1920  0.3000
79832W        W22749  13.835  24.966  26.968  0.0340  0.0275  0.1461
79833W        W22750  16.398  28.579  31.926 -0.1548  0.0774 -0.0037
79834W        W22751  15.604  26.253  27.049 -0.1512  0.0849  0.1325
79835W        W22752  15.350  24.313  27.410  0.0457 -0.0440  0.1137
79836W        W22753  15.899  26.069  30.251  0.1252  0.1208 -0.3130
79837W        W22754  17.180  29.130  28.908 -0.1937 -0.2484  0.4945
79838W        W22755  19.256  27.183  29.559  0.0978 -0.0286  0.1320
79839W        W22756  16.375  26.770  31.264 -0.2104 -0.1702 -0.0958
79840W        W22757  16.767  29.848  27.369  0.3773 -0.1441  0.3656
79841W        W22758  13.454  25.328  27.004  0.0915 -0.0522 -0.0115
79842W        W22759  16.702  28.854  28.932 -0.0920  0.0718  0.3729
79843W        W22760  17.386  27.655  28.946 -0.3238 -0.0163  0.0784
79844W        W22761  17.644  26.380  30.238  0.0018  0.1603 -0.1132
79845W        W22762  17.913  28.215  28.568  0.1409  0.0157  0.1301
79846W        W22763  17.524  27.091  28.719 -0.0835  0.1254 -0.1201
79847W        W22764  15.838  29.447  29.191 -0.0022  0.3622 -0.2511
79848W        W22765  16.458  28.254  30.012 -0.3046 -0.1128 -0.1754
79849W        W22766  16.094  26.490  29.277  0.1337  0.1886 -0.1630
79850W        W22767  15.630  28.120  26.569 -0.0228  0.0392 -0.3418
79851W        W22768  16.100  27.683  28.197 -0.0770  0.2585 -0.2005
79852W        W22769  21.385  29.252  26.275  0.1323 -0.1944 -0.1188
79853W        W22770  17.518  30.452  31.066 -0.2905  0.0143 -0.3167
79854W        W22771  17.222  29.644  31.913  0.2701 -0.2617 -0.2963
79855W        W22772  14.842  26.322  28.159 -0.1401 -0.1102 -0.1871
79856W        W22773  15.102  28.747  31.875  0.0500  0.0974  0.2793
79857W        W22774  15.630  30.290  30.957  0.2415  0.0240 -0.0302
79858W        W22775  17.023  27.019  27.955  0.1013  0.1755 -0.0390
79859W        W22776  14.712  27.790  26.753  0.3188 -0.1295 -0.1032
79860W        W22777  16.233  28.431  27.709 -0.1001  0.2176 -0.0345
79861W        W22778  16.702  28.431  27.470  0.1454  0.1412 -0.1750
79862W        W22779  15.614  27.827  28.385  0.2304 -0.1380  0.0176
79863W        W22780  15.273  27.572  27.628  0.0423 -0.0431  0.1895
79864W        W22781  18.069  24.841  29.069  0.1265  0.2295  0.1630
79865W        W22782  15.794  27.628  26.905 -0.3909 -0.3037 -0.1206
79866W        W22783  17.764  26.671  28.502  0.0772 -0.1291  0.0300
79867W        W22784  17.002  26.251  27.466 -0.0932  0.0353  0.5162
79868W        W22785  18.005  25.028  26.657  0.0274 -0.1598  0.0570
79869W        W22786  17.108  22.108  28.471  0.0187 -0.2544  0.0027
79870W        W22787  16.480  28.464  28.633  0.1415  0.1495  0.0191
79871W        W22788  16.592  26.910  28.718 -0.2398 -0.0315  0.0421
79872W        W22789  19.530  27.750  30.020  0.0527 -0.1290  0.0236
79873W        W22790  16.942  29.364  27.270  0.0494 -0.2362 -0.0876
79874W        W22791  17.595  26.944  26.993 -0.0207  0.2751  0.1115
79875W        W22792  15.610  27.633  30.600  0.1160  0.2737  0.3746
79876W        W22793  16.318  27.662  26.946 -0.0906 -0.0329 -0.1456
79877W        W22794  17.293  29.415  25.801 -0.0874  0.0261 -0.2255
79878W        W22795  20.821  28.513  28.311  0.0139 -0.0692  0.0488
79879W        W22796  17.596  28.015  25.762  0.1597  0.0831 -0.0728
79880W        W22797  15.425  24.534  28.220  0.2627 -0.1885 -0.5634
79881W        W22798  15.997  25.290  28.706  0.0750 -0.1246  0.1573
79882W        W22799  16.145  26.888  28.880  0.1549 -0.3567  0.1637
79883W        W22800  17.781  25.921  25.466 -0.1448 -0.0732  0.3618
79884W        W22801  20.089  26.495  31.210  0.0061 -0.0767  0.1086
79885W        W22802  16.438  27.946  28.643  0.0467  0.1738  0.2847
79886W        W22803  16.501  28.006  27.272  0.0189  0.1786  0.2367
79887W        W22804  13.969  26.784  29.026 -0.2131  0.0091 -0.2017
79888W        W22805  18.847  29.008  31.593  0.0799 -0.0492 -0.3317
79889W        W22806  18.138  25.879  28.947 -0.1844 -0.0053 -0.0029
79890W        W22807  15.866  27.235  30.785 -0.4399 -0.2924  0.2701
79891W        W22808  15.060  24.250  31.947  0.0051 -0.0167 -0.1292
79892W        W22809  15.176  26.422  29.030 -0.1433  0.2187 -0.0113
79893W        W22810  15.282  27.711  29.649  0.0469 -0.1833  0.2663
79894W        W22811  19.896  30.144  31.599  0.1037 -0.0258  0.0667
79895W        W22812  18.392  27.521  28.843  0.2025 -0.0049 -0.1958
79896W        W22813  16.502  27.451  27.924  0.0440  0.0998  0.1575
79897W        W22814  14.352  26.110  30.255 -0.0453 -0.1561 -0.2543
79898W        W22815  17.393  28.349  31.955 -0.0888  0.0821 -0.1059
79899W        W22816  12.852  31.067  27.017  0.2448 -0.3295  0.3023
79900W        W22817  13.913  27.577  28.386  0.1499 -0.1911 -0.2540
79901W        W22818  14.625  25.306  27.323 -0.0316  0.1532  0.1054
79902W        W22819  15.158  25.370  30.239 -0.2053 -0.0165  0.1559
79903W        W22820  16.043  27.512  30.244  0.0537  0.0095  0.0374
79904W        W22821  15.902  25.499  27.772 -0.2033  0.0506 -0.2640
79905W        W22822  13.928  26.740  30.814  0.0689 -0.0599 -0.0729
79906W        W22823  17.367  24.938  28.129 -0.0498 -0.0507  0.1278
79907W        W22824  13.886  27.114  28.624 -0.3491  0.4285 -0.4889
79908W        W22825  19.222  29.663  28.783  0.1123  0.1259  0.0560
79909W        W22826  18.624  27.671  28.196  0.1146  0.0970 -0.2327
79910W        W22827  17.405  28.836  27.636  0.0991 -0.1857  0.1166
79911W        W22828  14.948  24.478  29.040 -0.0914 -0.2585  0.0751
79912W        W22829  15.166  24.533  25.676  0.2059 -0.1629 -0.0507
79913W        W22830  16.435  25.459  28.553  0.1905 -0.0419  0.1214
79914W        W22831  15.483  24.154  29.784 -0.2739  0.1474 -0.1803
79915W        W22832  19.132  28.789  31.162 -0.0989  0.0540 -0.0224
79916W        W22833  14.791  26.267  26.997 -0.2886 -0.0755 -0.1328
79917W        W22834  16.110  26.842  27.617 -0.1685  0.3303 -0.0545
79918W        W22835  15.259  26.964  29.505 -0.0237  0.3451  0.0648
79919W        W22836  16.041  27.745  26.487 -0.0945 -0.1918 -0.0214
79920W        W22837  16.341  28.626  29.217  0.0261 -0.0179 -0.0195
79921W        W22838  17.828  26.544  29.714  0.0951  0.2469  0.0244
79922W        W22839  20.033  29.248  29.962 -0.1310 -0.4343  0.0075
79923W        W22840  18.452  28.952  29.086 -0.2160 -0.0259 -0.2358
79924W        W22841  15.713  27.174  30.002  0.0657 -0.0774  0.2471
79925W        W22842  16.386  25.742  26.704 -0.0844 -0.1506 -0.0248
79926W        W22843  15.121  28.920  29.289 -0.2800 -0.2533 -0.0438
79927W        W22844  16.364  28.680  29.734 -0.0885 -0.3706  0.1306
79928W        W22845  15.333  24.027  25.939  0.1030 -0.3977 -0.0055
79929W        W22846  18.489  28.918  28.568 -0.3884  0.1292  0.0705
79930W        W22847  18.385  26.059  28.584  0.1110  0.1693  0.0645
79931W        W22848  15.210  26.617  28.045  0.4618 -0.1233 -0.2205
79932W        W22849  17.802  25.936  31.044 -0.0143 -0.2502 -0.1421
79933W        W22850  18.474  29.037  30.415  0.0361 -0.2973 -0.0038
79934W        W22851  15.854  25.737  26.440  0.0854  0.0214  0.1542
79935W        W22852  13.776  25.634  26.690 -0.2467  0.0317  0.0126
79936W        W22853  15.835  29.442  29.731 -0.1518 -0.2477 -0.0972
79937W        W22854  13.385  28.669  29.396  0.1842  0.0927 -0.2413
79938W        W22855  14.279  26.858  27.216 -0.1092  0.1243  0.2104
79939W        W22856  18.273  30.159  28.422  0.0088  0.1822  0.1097
79940W        W22857  18.755  26.981  26.738 -0.1309 -0.0880  0.1303
79941W        W22858  13.513  27.163  31.796  0.1026 -0.5434  0.0130
79942W        W22859  16.644  28.284  29.098 -0.0907 -0.0104 -0.1449
79943W        W22860  15.417  25.380  28.494  0.0553  0.0172 -0.2375
79944W        W22861  16.502  30.588  29.834 -0.2561  0.2796 -0.3548
79945W        W22862  16.470  25.379  27.029 -0.1747 -0.2527 -0.1846
79946W        W22863  16.783  25.820  27.278 -0.2442  0.6240  0.1817
79947W        W22864  16.350  28.293   0.398 -0.2031  0.1828  0.1121
79948W        W22865  18.956  28.491  28.147 -0.1957  0.0858  0.0399
79949W        W22866  16.645  25.610  26.298 -0.3163 -0.2191 -0.1344
79950W        W22867  16.627  25.204  24.451  0.2422 -0.0026  0.0578
79951W        W22868  13.609  27.346  29.567 -0.0982  0.0662  0.1771
79952W        W22869  19.525  28.947  29.518 -0.0898  0.4941 -0.2434
79953W        W22870  16.591  29.015  29.415  0.3417  0.2521  0.2920
79954W        W22871  17.184  26.746  27.545 -0.0201  0.2043 -0.0149
79955W        W22872  18.436  26.966  29.044 -0.2247 -0.0215 -0.0771
79956W        W22873  14.560  28.024  30.323 -0.1075  0.1307  0.0305
79957W        W22874  15.949  28.514  30.641  0.2641  0.2644  0.2089
79958W        W22875  18.112  30.989  28.880  0.0186 -0.0653  0.0019
79959W        W22876  14.219  25.622  30.286 -0.0510 -0.0189  0.0189
79960W        W22877  17.170  27.726  25.171  0.0810  0.0214  0.2422
79961W        W22878  16.918  24.960  25.743  0.0958  0.6740 -0.1246
79962W        W22879  16.769  29.549  26.473 -0.0114 -0.2138 -0.0691
79963W        W22880  18.599  26.027  29.601  0.0036 -0.1466  0.1240
79964W        W22881  16.833  25.244  27.318  0.0947  0.1572  0.0887
79965W        W22882  14.836  24.057  30.284 -0.1811  0.0005 -0.0993
79966W        W22883  17.389  27.931  31.623 -0.1039 -0.2118 -0.0926
79967W        W22884  16.701  26.508  26.286 -0.0486 -0.0113 -0.1000
79968W        W22885  16.658  27.516  29.971  0.3113  0.3981 -0.2533
79969W        W22886  15.855  26.839  26.155  0.1286 -0.2419 -0.0484
79970W        W22887  14.970  27.826  30.545 -0.3820  0.0829 -0.0977
79971W        W22888  15.034  29.002  29.863  0.0462  0.2526  0.0050
79972W        W22889  14.946  28.122  29.551 -0.2168  0.1054  0.2344
79973W        W22890  19.730  29.434  29.565  0.2529 -0.2044 -0.0728
79974W        W22891  18.424  26.983  27.654  0.2276 -0.1880 -0.3454
79975W        W22892  16.902  25.326  30.554  0.1091  0.0941  0.0002
79976W        W22893  16.473  26.537  28.414 -0.2431  0.1873 -0.1745
79977W        W22894  16.800  28.427  26.405 -0.0174 -0.2867  0.4089
79978W        W22895  16.610  29.533  26.909 -0.0458  0.0131  0.4970
79979W        W22896  18.417  25.163  29.218 -0.1910 -0.2341 -0.0822
79980W        W22897  16.004  28.060  28.503 -0.5574 -0.0164 -0.1184
79981W        W22898  15.174  27.897  26.555  0.1779  0.0514  0.1359
79982W        W22899  16.218  28.351  31.113  0.1058 -0.0567  0.2263
79983W        W22900  16.248  29.731  28.844 -0.0830  0.4060  0.0163
79984W        W22901  16.198  26.808  29.756  0.1497  0.2382 -0.0796
79985W        W22902  15.206  27.927  29.121  0.1389 -0.0201 -0.1974
79986W        W22903  14.749  25.143  25.624  0.0178  0.2953  0.0907
79987W        W22904  13.029  25.633  28.065 -0.3672 -0.2466 -0.0204
79988W        W22905  16.703  26.177  28.131  0.0651 -0.0331 -0.1274
79989W        W22906  17.729  27.694  28.545 -0.0545 -0.1624 -0.0092
79990W        W22907  15.754  27.195   0.586 -0.1678 -0.2807  0.5742
79991W        W22908  15.689  27.017  28.711 -0.0828 -0.0701  0.3548
79992W        W22909  15.998  28.952  30.005  0.0199 -0.2944  0.1359
79993W        W22910  18.102  27.816   0.148 -0.0626 -0.1080 -0.0532
79994W        W22911  15.953  23.454  27.311  0.4185 -0.1576 -0.1191
79995W        W22912  16.715  28.131  30.893 -0.0507 -0.0547  0.4566
79996W        W22913  14.886  28.298  30.137 -0.1765 -0.2896 -0.3028
79997W        W22914  12.813  26.343  27.650  0.0422  0.0812  0.1535
79998W        W22915  15.456  28.478  30.730  0.1680 -0.3843  0.1287
79999W        W22916  15.657  27.702  27.913  0.1854  0.2963 -0.1172
80000W        W22917  16.877  29.502  28.195  0.3125 -0.1637  0.2993
80001W        W22918  18.543  28.283  29.410  0.0671 -0.0805 -0.2415
80002W        W22919  15.932  26.483  26.783  0.0996 -0.2368  0.1340
80003W        W22920  16.623  28.453  26.978 -0.2003 -0.1323  0.1001
80004W        W22921  13.765  26.967   0.199 -0.1842 -0.2673 -0.0258
80005W        W22922  17.105  28.260  30.120 -0.1261 -0.0817 -0.1244
80006W        W22923  15.875  26.194  28.147 -0.0534 -0.0151  0.0029
80007W        W22924  16.102  26.230  30.738  0.1321  0.1335 -0.1271
80008W        W22925  17.400  28.273  28.556 -0.0269  0.1085  0.1709
80009W        W22926  16.678  27.714  31.537  0.0752  0.1799 -0.0127
80010W        W22927  16.327  25.850  30.023 -0.1983 -0.2344  0.1221
80011W        W22928  15.123  26.802  31.389  0.1631 -0.0175  0.1170
80012W        W22929  16.896  24.766  27.464 -0.2507 -0.0191  0.1673
80013W        W22930  19.108  28.857  27.604 -0.0109 -0.0096  0.0035
80014W        W22931  16.160  28.617  28.159 -0.1762 -0.2548 -0.3947
80015W        W22932  16.444  27.974  26.255  0.0028  0.3778 -0.1217
80016W        W22933  15.919  25.224  28.220 -0.0944  0.1124 -0.1863
80017W        W22934  16.884  28.938  27.511 -0.1616 -0.2487 -0.1482
80018W        W22935  16.259  26.033  28.445  0.3224 -0.0975 -0.1645
80019W        W22936  15.204  26.394  28.492  0.0861  0.0064 -0.1254
80020W        W22937  13.987  26.927  27.727 -0.1222 -0.0626 -0.2383
80021W        W22938  14.474  27.075  30.023  0.3915  0.2625  0.1990
80022W        W22939  17.155  24.162  27.527  0.0981 -0.0667  0.1379
80023W        W22940  16.500  28.876  27.763  0.3229  0.0053 -0.2861
80024W        W22941  17.249  26.071  26.971 -0.0011  0.2421  0.1734
80025W        W22942  17.956  27.351  28.916 -0.1653  0.0115 -0.1628
80026W        W22943  14.503  26.484  26.345  0.1321 -0.0343 -0.1785
80027W        W22944  18.277  26.634  30.731  0.0577 -0.0954 -0.1390
80028W        W22945  15.756  25.873  28.577  0.2046  0.0828 -0.0816
80029W        W22946  17.102  28.552  30.879 -0.0794 -0.2780 -0.2684
80030W        W22947  16.433  25.291  28.086 -0.0032  0.2168  0.1489
80031W        W22948  18.520  30.597   0.070  0.0622  0.0388  0.1480
80032W        W22949  13.699  27.641  31.105  0.3143  0.0187  0.3226
80033W        W22950  15.579  26.695  28.372  0.1196 -0.2400 -0.1336
80034W        W22951  15.671  24.488  27.719 -0.2712  0.1799 -0.1751
80035W        W22952  15.637  28.227  28.782  0.2468 -0.0681 -0.0104
80036W        W22953  17.458  29.107  30.095  0.2527  0.2164  0.0809
80037W        W22954  16.390  28.623  26.598  0.1310 -0.0369  0.3663
80038W        W22955  17.594  25.678  30.092 -0.1386 -0.0677 -0.2321
80039W        W22956  14.518  26.094  29.065  0.2247  0.1427 -0.1291
80040W        W22957  17.854  26.874  29.047 -0.0274  0.1769 -0.1544
80041W        W22958  15.967  26.308  27.407 -0.0480  0.0254 -0.1270
80042W        W22959  16.302  29.362  29.544  0.2140 -0.0188 -0.0261
80043W        W22960  13.720  25.816  30.509  0.3006  0.1798 -0.1738
80044W        W22961  17.841  29.191  28.460  0.3746 -0.0650 -0.0227
80045W        W22962  16.029  26.928  28.286 -0.1359  0.0747 -0.1149
80046W        W22963  17.161  26.202  30.264 -0.0585 -0.2239 -0.1231
80047W        W22964  17.060  27.705  29.419 -0.6502  0.2592  0.1039
80048W        W22965  17.554  26.760  28.045  0.3645  0.1848  0.3690
80049W        W22966  14.541  24.246  27.867 -0.0824 -0.3371 -0.2280
80050W        W22967  15.475  29.296  28.632  0.0600  0.2628  0.0941
80051W        W22968  16.037  26.400  26.016  0.1737  0.1906  0.2089
80052W        W22969  16.954  29.135  30.264 -0.0607 -0.0905  0.2545
80053W        W22970  17.242  28.360  27.665 -0.0173 -0.4354 -0.2237
80054W        W22971  17.138  27.132  27.153 -0.2638  0.1266  0.1103
80055W        W22972  15.123  25.946  29.824 -0.1657 -0.0495  0.0212
80056W        W22973  15.503  28.597   0.205  0.2959  0.1540  0.2603
80057W        W22974  14.145  25.405  26.978  0.2215 -0.2290 -0.2268
80058W        W22975  17.503  26.349   0.752 -0.0556  0.0409 -0.1359
80059W        W22976  17.569  29.265  26.812  0.0141 -0.0187 -0.0487
80060W        W22977  17.485  28.402  29.510 -0.0037 -0.1559  0.2238
80061W        W22978  17.570  28.847  29.208 -0.0226  0.2019  0.1352
80062W        W22979  17.013  27.979  28.755  0.1595 -0.0768  0.2485
80063W        W22980  16.322  28.812  30.923 -0.1471  0.0580  0.0388
80064W        W22981  15.608  26.131  25.829 -0.0655 -0.0982  0.1539
80065W        W22982  15.291  25.914  25.562  0.1636  0.2209  0.0978
80066W        W22983  16.756  29.197  28.608  0.3346 -0.0863 -0.1340
80067W        W22984  17.437  27.872  30.202  0.0921 -0.4098 -0.0549
80068W        W22985  16.493  22.069  27.378  0.3791  0.4060  0.0549
80069W        W22986  15.985  26.712  30.863  0.0649  0.1723 -0.2056
80070W        W22987  16.214  29.962  26.872 -0.0293 -0.0745 -0.0997
80071W        W22988  15.575  26.150  29.397 -0.1485  0.0780  0.1375
80072W        W22989  15.047  29.331  28.150  0.2324 -0.1089 -0.0673
80073W        W22990  15.715  27.709  29.893  0.2858 -0.3645  0.1488
80074W        W22991  17.214  30.164  28.691 -0.2077 -0.1106 -0.0936
80075W        W22992  17.167  24.492  30.986  0.0933 -0.2048  0.1598
80076W        W22993  15.994  25.963  26.890  0.1571  0.1635  0.0504
80077W        W22994  16.671  27.126  26.890  0.1226  0.1417 -0.1951
80078W        W22995  18.126  26.672  30.156  0.1086  0.1812  0.2976
80079W        W22996  18.798  29.255  31.136 -0.3042  0.0876 -0.1392
80080W        W22997  16.149  28.134  29.009 -0.1429 -0.1454 -0.2051
80081W        W22998  16.276  31.083  31.258 -0.0690 -0.2302 -0.3323
80082W        W22999  19.231  27.428  28.824  0.0672  0.2774 -0.0409
80083W        W23000  14.500  27.573  29.868  0.1962 -0.0515  0.1517
80084W        W23001  14.614  25.055  30.133 -0.1459 -0.0021 -0.0805
80085W        W23002  17.122  26.529  31.505  0.3372 -0.1235 -0.2275
80086W        W23003  17.776  26.329  29.094  0.0029  0.0415 -0.0562
80087W        W23004  14.999  25.651  26.807  0.0797  0.1235  0.0693
80088W        W23005  16.887  27.534  27.000  0.2016  0.1616  0.0685
80089W        W23006  15.137  27.928  31.409  0.0641  0.2420 -0.0955
80090W        W23007  13.808  26.719  31.641 -0.1929 -0.0226 -0.0780
80091W        W23008  14.744  30.842  29.562 -0.2147  0.0541 -0.0869
80092W        W23009  16.037  29.533  26.871 -0.0038  0.2704 -0.2696
80093W        W23010  17.578  28.657  28.764 -0.2363  0.3008 -0.1742
80094W        W23011  17.015  30.683  29.912  0.1480 -0.1003 -0.1783
80095W        W23012  15.502  25.612  26.970  0.1929  0.3191  0.0768
80096W        W23013  15.207  26.968  28.958  0.0465  0.1338 -0.1141
80097W        W23014  14.880  27.632  28.572 -0.1085 -0.2407  0.0776
80098W        W23015  18.969  28.849  28.505  0.0531 -0.1793 -0.1447
80099W        W23016  14.862  29.876  28.936 -0.3481 -0.0369 -0.0307
80100W        W23017  19.485  29.646   0.322 -0.1430 -0.2242 -0.2488
80101W        W23018  17.840  25.991  26.984 -0.0397  0.0254  0.2347
80102W        W23019  18.038  28.846  28.740  0.0172  0.3601  0.2026
80103W        W23020  17.459  27.192  27.686 -0.1241  0.0110 -0.0516
80104W        W23021  17.073  26.465   0.451  0.2002 -0.0405  0.0864
80105W        W23022  17.981  28.574  29.202  0.0870 -0.1930 -0.1839
80106W        W23023  16.135  24.810  26.877  0.1221  0.1671  0.2630
80107W        W23024  14.939  27.783  29.993 -0.1902  0.0030  0.0315
80108W        W23025  16.974  26.839  29.397 -0.3494  0.2724  0.3348
80109W        W23026  14.735  29.171   0.329 -0.2331  0.0080  0.0485
80110W        W23027  18.145  27.345  27.928  0.2461 -0.0615 -0.1433
80111W        W23028  16.855  25.237  26.760  0.4130  0.2010  0.1611
80112W        W23029  16.475  26.843  29.235 -0.0134 -0.1426  0.1376
80113W        W23030  17.073  27.297  29.684  0.0802 -0.1263 -0.1718
80114W        W23031  15.974  28.084  27.235  0.5095 -0.1270  0.1323
80115W        W23032  15.719  27.292  28.240  0.3028  0.0269 -0.0247
80116W        W23033  16.842  30.459  28.838 -0.2537 -0.0449 -0.0791
80117W        W23034  14.867  29.250  28.959 -0.0239 -0.0702  0.0185
80118W        W23035  15.522  28.084  29.448  0.2233 -0.1457  0.0426
80119W        W23036  15.097  25.905  27.730 -0.1285  0.0481 -0.1024
80120W        W23037  17.944  23.565  28.388 -0.0248 -0.0198 -0.1567
80121W        W23038  15.558  28.714  31.657 -0.2293 -0.0961 -0.1049
80122W        W23039  15.976  26.986  29.380  0.0453 -0.1856 -0.0172
80123W        W23040  17.201  25.597  27.501  0.0126 -0.1597 -0.0298
80124W        W23041  17.530  25.987  26.511  0.1480 -0.1058 -0.2106
80125W        W23042  17.335  29.210  30.686 -0.0470  0.0128  0.1427
80126W        W23043  15.779  25.867  29.771  0.0074  0.3962 -0.0737
80127W        W23044  16.693  27.952  26.797 -0.2320  0.1808 -0.2208
80128W        W23045  17.884  28.825  30.796  0.4059  0.2651  0.1497
80129W        W23046  15.707  28.548  27.759 -0.0603  0.2034  0.3158
80130W        W23047  18.659  28.639   0.509 -0.1189  0.2484 -0.0957
80131W        W23048  14.179  23.636  28.418  0.0774 -0.0952  0.2288
80132W        W23049  18.169  27.003  29.468  0.2593 -0.0665 -0.0491
80133W        W23050  14.250  27.522  30.265  0.1836  0.0633  0.1152
80134W        W23051  15.855  27.584  31.142  0.0328  0.3391 -0.0627
80135W        W23052  19.123  28.239  30.174  0.1553 -0.0266  0.1538
80136W        W23053  15.514  24.300  26.890  0.3080  0.0034 -0.0907
80137W        W23054  16.279  28.941  28.633 -0.1441  0.4207  0.1559
80138W        W23055  17.443  26.914  29.715  0.1139  0.1793  0.1240
80139W        W23056  16.263  29.693  27.444  0.1200  0.0963 -0.0249
80140W        W23057  19.012  27.250  28.126  0.1034  0.0345 -0.0556
80141W        W23058  16.591  30.292  29.221  0.1306 -0.3289 -0.0576
80142W        W23059  14.715  26.469  29.491  0.2438 -0.0934 -0.0217
80143W        W23060  15.631  30.632  30.014  0.0569  0.0656  0.0757
80144W        W23061  19.402  30.253  30.536 -0.0653 -0.0011  0.0646
80145W        W23062  15.916  26.046  28.997  0.2022  0.0892 -0.1226
80146W        W23063  16.306  27.270  28.515  0.2056 -0.1715 -0.0891
80147W        W23064  15.843  28.548  26.662 -0.3241  0.0052 -0.0958
80148W        W23065  18.743  26.189  28.228 -0.1317 -0.1517  0.1746
80149W        W23066  16.900  25.788  31.602 -0.1247 -0.1571  0.0562
80150W        W23067  15.743  27.658  27.414  0.0651 -0.1837  0.1082
80151W        W23068  17.168  28.147  29.223 -0.1512  0.0594  0.0109
80152W        W23069  16.778  27.977  30.383 -0.3577 -0.0629 -0.1611
80153W        W23070  15.867  28.052  30.308 -0.2126 -0.0877  0.0085
80154W        W23071  15.194  25.241  27.012  0.2204  0.2103 -0.0141
80155W        W23072  16.785  28.694  29.995 -0.2793  0.2114  0.1018
80156W        W23073  17.774  29.225  30.441 -0.0662 -0.1184  0.1366
80157W        W23074  15.779  27.019  26.833  0.1998  0.1835 -0.1446
80158W        W23075  19.589  29.425  31.793  0.0622  0.2609 -0.1625
80159W        W23076  14.316  26.781  28.646  0.4802 -0.1219 -0.1444
80160W        W23077  15.592  26.706  29.137  0.2578  0.1078  0.2955
80161W        W23078  16.624  27.014  27.577  0.2423  0.1413 -0.0418
80162W        W23079  17.266  25.441  26.997 -0.1937 -0.0084  0.0614
80163W        W23080  19.223  25.537  28.403 -0.2026 -0.0228  0.2933
80164W        W23081  16.035  26.461  28.578  0.0553  0.0902 -0.0939
80165W        W23082  14.998  25.992  29.300 -0.0643  0.0694  0.0032
80166W        W23083  16.062  27.255  27.878 -0.0825  0.1843  0.0973
80167W        W23084  16.511  26.156  27.618 -0.2024 -0.2685 -0.0803
80168W        W23085  17.827  27.471   0.372 -0.1450 -0.3605  0.2351
80169W        W23086  13.339  26.690  31.391  0.2350  0.0799  0.1232
80170W        W23087  15.274  25.200  29.318 -0.0688 -0.0423 -0.0624
80171W        W23088  15.072  24.698  27.113  0.0558  0.2469 -0.2612
80172W        W23089  17.609  31.145  28.868 -0.2831  0.0556  0.1339
80173W        W23090  17.169  24.609  27.846 -0.1192  0.2302 -0.2259
80174W        W23091  14.934  24.351  28.173 -0.0865 -0.0783  0.0460
80175W        W23092  17.112  27.492  30.243 -0.0261  0.2942 -0.1142
80176W        W23093  17.523  27.432  27.268 -0.0825  0.1315  0.0445
80177W        W23094  17.056  27.503  28.017 -0.1228  0.0380 -0.1343
80178W        W23095  19.022  29.476  31.554 -0.0621  0.1268 -0.1655
80179W        W23096  13.918  25.983  28.250  0.0990  0.2364 -0.2402
80180W        W23097  17.112  29.059  31.147 -0.0896 -0.0524  0.1590
80181W        W23098  16.579  27.073  30.217 -0.2868 -0.0203  0.0726
80182W        W23099  16.239  22.525  27.377  0.2176  0.3237 -0.1913
80183W        W23100  17.698  27.255  28.267  0.1073  0.3555 -0.0828
80184W        W23101  16.790  29.437  29.098  0.2310 -0.1180  0.2167
80185W        W23102  20.686  29.649  27.390 -0.1873  0.1925  0.0953
80186W        W23103  15.227  28.440  31.318 -0.0722 -0.2102 -0.4439
80187W        W23104  17.484  27.733  30.725  0.2437  0.3272  0.4425
80188W        W23105  14.251  27.405  31.067  0.2054 -0.0201 -0.3597
80189W        W23106  17.696  25.696  27.769  0.0011  0.3329 -0.0312
80190W        W23107  14.496  27.959  30.818  0.0922  0.2048  0.2441
80191W        W23108  16.832  28.428  27.922 -0.0813 -0.1035 -0.0788
80192W        W23109  17.253  26.071  28.934  0.2197 -0.1812 -0.0208
80193W        W23110  16.193  26.822  27.059 -0.2171  0.0428 -0.2149
80194W        W23111  15.622  24.931  28.541  0.0606 -0.0122  0.2936
80195W        W23112  14.576  27.092  29.395  0.1284  0.2634 -0.2803
80196W        W23113  16.977  26.131  29.393  0.1009 -0.1143 -0.0558
80197W        W23114  15.614  24.631  30.051  0.1279  0.0851 -0.0827
80198W        W23115  17.251  27.584  28.478  0.0131 -0.2443 -0.3459
80199W        W23116  17.542  30.243  26.764  0.0113  0.0763  0.2774
80200W        W23117  13.840  28.662  30.857 -0.2166 -0.1051 -0.1432
80201W        W23118  17.687  28.275  29.016  0.0600 -0.1150  0.1371
80202W        W23119  14.958  28.695  30.948 -0.1166  0.0058  0.0863
80203W        W23120  17.556  29.254  31.131  0.3019  0.2123  0.1132
80204W        W23121  15.690  26.684  29.665  0.1056  0.2067 -0.3262
80205W        W23122  15.483  24.980  26.269 -0.0826 -0.0475  0.0694
80206W        W23123  17.730  26.218  28.035  0.0277 -0.2682  0.2498
80207W        W23124  17.749  29.629  29.418 -0.2037 -0.1668  0.1452
80208W        W23125  18.872  27.693   2.337  0.0358  0.0277 -0.0719
80209W        W23126  17.737  29.734  30.635 -0.0421 -0.0619  0.2557
80210W        W23127  17.238  29.565  28.726  0.4785 -0.0038  0.0703
80211W        W23128  13.536  25.072  29.132 -0.2631 -0.1106 -0.0455
80212W        W23129  17.206  28.633  27.257  0.0192  0.0647 -0.1777
80213W        W23130  17.081  28.560  28.927 -0.2227  0.0644 -0.0216
80214W        W23131  16.127  26.299  29.819 -0.2922 -0.2487  0.2407
80215W        W23132  17.159  25.151  29.167 -0.1717  0.1172  0.1888
80216W        W23133  15.159  24.645  27.803  0.3895 -0.1156 -0.3311
80217W        W23134  16.061  29.814  29.491 -0.0488 -0.2354 -0.0793
80218W        W23135  17.300  29.264  28.362  0.0784 -0.1048 -0.0223
80219W        W23136  15.466  27.510  28.714  0.0685  0.1858  0.1545
80220W        W23137  19.093  28.573  31.679 -0.1209 -0.0408 -0.1336
80221W        W23138  16.914  27.357   0.567  0.2397 -0.0074 -0.2085
80222W        W23139  14.441  28.579  31.023 -0.0259  0.2551  0.1160
80223W        W23140  16.388  27.297  31.345  0.1151  0.1383 -0.2356
80224W        W23141  15.324  29.029  30.728 -0.0580  0.0721 -0.0507
80225W        W23142  17.397  26.167  29.861  0.1158 -0.0122 -0.0405
80226W        W23143  13.440  27.889  30.426  0.2501  0.2296  0.1081
80227W        W23144  18.386  27.408  29.868 -0.0796  0.0057 -0.1529
80228W        W23145  17.945  29.083  31.306 -0.0956  0.0159 -0.1751
80229W        W23146  16.864  29.481  30.695  0.1590  0.2606 -0.1583
80230W        W23147  14.765  26.827  30.409 -0.1207  0.0452 -0.0036
80231W        W23148  16.335  27.185  30.833 -0.1264  0.0527  0.0081
80232W        W23149  15.771  26.689  27.921  0.0689 -0.1058  0.0063
80233W        W23150  19.166  27.717  31.371 -0.3081 -0.0202  0.1284
80234W        W23151  14.733  29.112  31.255 -0.1530 -0.1360  0.1766
80235W        W23152  14.043  29.266  31.802  0.4942  0.0755 -0.1189
80236W        W23153  18.892  27.687  29.879  0.2936  0.0541  0.1114
80237W        W23154  16.625  23.859  30.391 -0.3586  0.0815 -0.2847
80238W        W23155  14.787  26.340  30.183 -0.4616  0.0439 -0.2919
80239W        W23156  14.946  26.167  30.711 -0.2193 -0.1020  0.1136
80240W        W23157  15.492  27.057  31.519 -0.0627 -0.2008 -0.5474
80241W        W23158  16.826  27.352  31.160 -0.0454  0.1601  0.0858
80242W        W23159  16.334  23.942  30.859 -0.2888  0.0751  0.1430
80243W        W23160  18.286  24.351  30.598 -0.1618  0.1349 -0.2446
80244W        W23161  16.515  27.505  30.470 -0.2808 -0.2165  0.0585
80245W        W23162  15.923  27.052  31.240  0.1224  0.1753  0.0381
80246W        W23163  16.733  28.475  30.544  0.2308 -0.0996 -0.0131
80247W        W23164  15.377  26.536  31.753  0.1558 -0.0517 -0.1777
80248W        W23165  15.499  26.950  30.500 -0.1235 -0.0020  0.1729
80249W        W23166  15.470  27.643  31.701  0.0648  0.0562  0.2084
80250W        W23167  15.344  28.133  29.932 -0.1422  0.1786 -0.0891
80251W        W23168  18.566  26.840  31.274 -0.2831 -0.2556  0.0038
80252W        W23169  15.257  27.552  28.175 -0.0686  0.2096 -0.2036
80253W        W23170  12.279  25.724  31.331  0.1564 -0.1526 -0.0566
80254W        W23171  14.677  25.481  29.932 -0.2083  0.0747  0.3032
80255W        W23172  16.432  28.529   0.895  0.1239 -0.0870  0.2490
80256W        W23173  16.089  27.890   0.318  0.1849 -0.4195 -0.0164
80257W        W23174  18.364  27.983  31.100 -0.0900  0.2133  0.1420
80258W        W23175  17.156  28.772  28.480  0.0432 -0.0938  0.1775
80259W        W23176  17.779  27.319  29.536  0.0933 -0.1459  0.0029
80260W        W23177  18.260  27.334  30.361 -0.3716 -0.2535  0.4739
80261W        W23178  15.419  26.834  31.018  0.1092  0.0910  0.0412
80262W        W23179  18.603  28.480  30.867  0.0604 -0.1340 -0.0736
80263W        W23180  12.864  25.773  29.511 -0.2442 -0.1562 -0.1957
80264W        W23181  15.779  28.590  29.279  0.3953 -0.1795 -0.0187
80265W        W23182  15.790  25.483   1.096 -0.2042 -0.2535  0.0852
80266W        W23183  16.739  26.959   1.424 -0.1882  0.0676  0.1955
80267W        W23184  17.885  28.126  30.766 -0.1252 -0.1893 -0.0867
80268W        W23185  16.170  29.088  28.095  0.0384  0.2463 -0.3043
80269W        W23186  19.166  29.421  30.868  0.1607 -0.0361  0.1507
80270W        W23187  15.749  25.734   0.186  0.2956  0.0798 -0.2549
80271W        W23188  14.962  28.290  30.626 -0.0654  0.1965 -0.2056
80272W        W23189  14.547  27.408  30.671  0.1291  0.2244  0.3730
80273W        W23190  17.101  27.019  30.166  0.2916  0.0415  0.2853
80274W        W23191  16.759  25.727   0.273  0.1354 -0.1386 -0.1119
80275W        W23192  19.439  28.141  31.550 -0.2788 -0.2084  0.1629
80276W        W23193  17.531  27.380  29.971 -0.0772  0.1521  0.0460
80277W        W23194  16.999  26.143   0.074 -0.0622  0.0403  0.1117
80278W        W23195  13.639  27.285   1.326  0.1869 -0.0871  0.0213
80279W        W23196  14.017  26.481  30.429 -0.0652 -0.2855  0.3190
80280W        W23197  15.641  28.039  31.272 -0.3525 -0.0286 -0.0653
80281W        W23198  14.786  28.184  31.139  0.1610  0.0859 -0.1231
80282W        W23199  13.025  26.314  31.800  0.2843  0.0547 -0.0671
80283W        W23200  18.966  27.850  30.411 -0.1079 -0.1041 -0.1660
80284W        W23201  18.328  27.212  30.986 -0.0402  0.0620  0.2644
80285W        W23202  17.642  27.308  31.543 -0.3192 -0.2661 -0.2356
80286W        W23203  16.787  32.862  18.041  0.2408  0.0650  0.1734
80287W        W23204  13.705  29.408  17.280 -0.1941 -0.2715 -0.3937
80288W        W23205  17.522  30.896  16.225  0.0239 -0.0428  0.0924
80289W        W23206  15.233  32.305  18.122 -0.1813 -0.1285 -0.1552
80290W        W23207  15.020  31.268  17.984 -0.2357  0.1237  0.0760
80291W        W23208  17.912  32.120  16.177  0.0016  0.3977 -0.1975
80292W        W23209  16.006  28.874  20.721  0.0477 -0.2707  0.2670
80293W        W23210  19.084  31.937  17.366  0.1102 -0.0117 -0.1689
80294W        W23211  18.242  33.158  18.927  0.1904  0.2798 -0.1566
80295W        W23212  16.797  31.900  16.764 -0.1365  0.2148 -0.2309
80296W        W23213  16.334  31.510  17.076  0.0238  0.2882  0.1057
80297W        W23214  16.989  30.925  17.609  0.1156 -0.0092  0.2337
80298W        W23215  15.190  30.266  17.300  0.1689  0.1945  0.0666
80299W        W23216  14.920  29.728  18.808 -0.1902 -0.1858 -0.0568
80300W        W23217  15.230  32.390  17.628  0.1033  0.5766 -0.0538
80301W        W23218  15.897  31.542  16.025 -0.1924 -0.0137  0.0720
80302W        W23219  15.314  31.342  17.202 -0.1658 -0.1299 -0.0072
80303W        W23220  15.972  31.937  16.429  0.0191 -0.1854  0.0389
80304W        W23221  16.582  32.765  17.430  0.0476  0.1949 -0.1072
80305W        W23222  15.336  29.354  18.097  0.1200 -0.2128 -0.2539
80306W        W23223  18.450  31.284  18.879 -0.1191  0.1776  0.0023
80307W        W23224  16.858  33.473  16.103  0.4962 -0.3679 -0.1829
80308W        W23225  14.146  29.608  15.058 -0.1903  0.1707  0.1244
80309W        W23226  16.010  31.250  17.784  0.1063 -0.3914  0.0079
80310W        W23227  14.760  32.113  15.435  0.0024 -0.0498 -0.0628
80311W        W23228  18.075  30.943  19.330  0.0063 -0.0277  0.1122
80312W        W23229  18.473  30.439  16.873 -0.0420 -0.0729 -0.3636
80313W        W23230  15.667   0.558  16.715 -0.0998  0.0060 -0.1408
80314W        W23231  16.456  32.472  19.777  0.1618  0.0696  0.0900
80315W        W23232  16.997  30.125  19.544 -0.0183  0.1160 -0.0710
80316W        W23233  13.213  32.220  17.929  0.0371 -0.1887  0.0230
80317W        W23234  14.705  33.231  16.072 -0.1032 -0.0690 -0.4502
80318W        W23235  16.617  30.769  16.603  0.0668 -0.0659  0.3272
80319W        W23236  17.743  31.357  16.195 -0.0112 -0.0713  0.2969
80320W        W23237  17.692  30.829  17.250 -0.0295  0.0929 -0.3447
80321W        W23238  14.866  32.628  17.898  0.2781 -0.0226 -0.0885
80322W        W23239  16.434  31.232  15.774 -0.0476  0.2510 -0.0253
80323W        W23240  15.945  34.363  19.889  0.0259 -0.0946  0.1367
80324W        W23241  16.489  30.841  18.585  0.0054 -0.1286 -0.1038
80325W        W23242  14.105  28.341  16.808 -0.0669 -0.0698  0.3333
80326W        W23243  16.183  28.925  17.307  0.1014 -0.4028 -0.0897
80327W        W23244  15.299  30.751  16.455  0.1180  0.0256  0.0938
80328W        W23245  15.639  30.516  15.663 -0.3698  0.0469  0.0038
80329W        W23246  15.390  32.514  19.134 -0.0344 -0.1041  0.2406
80330W        W23247  14.777  32.381  17.405 -0.3167 -0.1703  0.1970
80331W        W23248  15.707  29.136  19.789 -0.3009  0.1186  0.0631
80332W        W23249  15.644  32.000  15.992  0.0851  0.1834 -0.2712
80333W        W23250  15.598  30.302  17.765  0.0984  0.1389  0.3300
80334W        W23251  15.759  31.323  18.328  0.0453  0.3357  0.0981
80335W        W23252  15.391  29.983  16.907 -0.2138  0.0050  0.1206
80336W        W23253  14.868  30.626  17.336 -0.0450 -0.0501 -0.4691
80337W        W23254  16.828  31.340  16.734  0.1871  0.0381 -0.1028
80338W        W23255  14.907  29.473  17.197  0.0933 -0.0888 -0.0717
80339W        W23256  17.182  32.744  18.300  0.2057  0.0924 -0.0533
80340W        W23257  15.121  30.490  19.199 -0.3557 -0.0111  0.0687
80341W        W23258  15.898  29.574  18.925  0.2515  0.0385  0.1006
80342W        W23259  12.686  32.400  18.595  0.2875 -0.0551  0.0129
80343W        W23260  14.009  31.307  16.340  0.3647 -0.1489  0.2098
80344W        W23261  19.409  33.346  16.919  0.0174  0.2658 -0.0842
80345W        W23262  19.031  32.627  17.167 -0.0497 -0.1448  0.1011
80346W        W23263  16.768  33.855  15.761 -0.1628 -0.0383 -0.0488
80347W        W23264  13.659  31.878  18.073  0.1654 -0.0176 -0.2000
80348W        W23265  14.257  30.279  15.646  0.5095  0.3155 -0.0524
80349W        W23266  15.675  30.759  19.363  0.2745  0.1671  0.0224
80350W        W23267  16.775  30.067  15.849  0.0063 -0.3476  0.0549
80351W        W23268  17.598  30.464  17.794  0.2653 -0.2107  0.1556
80352W        W23269  14.322  32.699  16.957 -0.0511  0.0709 -0.1645
80353W        W23270  19.418  31.993  17.811  0.0344  0.1908  0.1467
80354W        W23271  17.394  31.249  17.077  0.0027  0.1640 -0.0975
80355W        W23272  16.718  31.207  18.370  0.0655  0.1295 -0.2372
80356W        W23273  17.934  31.121  15.830  0.0612  0.0549 -0.1503
80357W        W23274  17.539  28.921  19.641 -0.2855 -0.0011 -0.1166
80358W        W23275  17.117  27.793  17.814  0.1479 -0.0302 -0.1453
80359W        W23276  15.787  32.500  14.998  0.0729  0.3428 -0.1772
80360W        W23277  16.877  32.512  16.691 -0.0440 -0.0788  0.1690
80361W        W23278  17.946  32.180  20.110 -0.1202  0.0178 -0.3969
80362W        W23279  16.960  30.462  17.860  0.0597  0.2145  0.0298
80363W        W23280  15.968  32.208  18.138  0.0729  0.0666  0.0558
80364W        W23281  15.935  28.941  21.203 -0.3896  0.2660 -0.0331
80365W        W23282  16.985  31.542  17.536  0.1977  0.4222 -0.3137
80366W        W23283  14.667  32.827  14.901 -0.0517 -0.2054 -0.1726
80367W        W23284  13.950  32.567  16.628  0.1334  0.1537 -0.1372
80368W        W23285  14.711  30.730  16.700 -0.1749  0.0470 -0.1247
80369W        W23286  14.931  31.769  18.674 -0.0705  0.0225  0.4205
80370W        W23287  15.443  31.541  17.709 -0.2283 -0.0237 -0.2260
80371W        W23288  18.200  29.153  18.477  0.1641  0.2000 -0.3250
80372W        W23289  12.967  27.649  18.068  0.3098  0.0202 -0.0949
80373W        W23290  17.707  27.779  17.792 -0.3867 -0.2573 -0.1190
80374W        W23291  17.424  31.791  16.220  0.4059  0.1989  0.0854
80375W        W23292  17.611  30.854  19.119 -0.3024  0.2895  0.0930
80376W        W23293  17.002  29.127  17.918 -0.0632  0.1469 -0.1884
80377W        W23294  17.312  32.894  17.809 -0.2099  0.1134 -0.0897
80378W        W23295  14.664  32.146  17.878 -0.0500  0.2013  0.0171
80379W        W23296  13.474  31.345  17.867 -0.1806 -0.0043  0.1867
80380W        W23297  14.322  31.178  18.053  0.1563  0.1398 -0.0076
80381W        W23298  14.054  29.913  17.495 -0.1481  0.2402  0.1214
80382W        W23299  15.085  29.264  20.574  0.0077 -0.0575 -0.0661
80383W        W23300  13.175  29.684  15.946  0.1177 -0.0176 -0.1487
80384W        W23301  17.472  31.652  17.398  0.1684  0.0745 -0.0488
80385W        W23302  15.550  31.637  16.364  0.1714  0.2523  0.1647
80386W        W23303  16.014  30.929  15.799 -0.2162 -0.1849  0.0966
80387W        W23304  19.797  28.547  19.268 -0.0585 -0.3359 -0.2729
80388W        W23305  18.423  32.740  16.310 -0.2104 -0.0894 -0.6255
80389W        W23306  18.534  32.977  20.642  0.0733  0.3857  0.1041
80390W        W23307  17.339  33.740  20.112  0.0181  0.1308 -0.0233
80391W        W23308  16.815  30.354  20.010  0.1911 -0.0182  0.0996
80392W        W23309  13.571  29.087  17.738 -0.0146 -0.1658 -0.0799
80393W        W23310  16.706  33.086  17.037 -0.0646  0.4873  0.2339
80394W        W23311  14.127  32.710  15.710 -0.0144 -0.2468 -0.0449
80395W        W23312  15.565  32.036  17.742  0.0170 -0.2511  0.1000
80396W        W23313  16.713  33.646  18.559 -0.2313  0.0261 -0.0435
80397W        W23314  17.761  31.561  17.008  0.2335  0.2526 -0.0923
80398W        W23315  15.970  31.774  18.504 -0.0827 -0.0265  0.3706
80399W        W23316  14.845  30.669  21.210 -0.2303 -0.2379 -0.1273
80400W        W23317  18.135  31.935  17.845  0.1173  0.0458  0.2664
80401W        W23318  14.544  29.864  18.400 -0.0124 -0.0595 -0.2643
80402W        W23319  14.286  30.356  16.293  0.1681 -0.0437  0.0831
80403W        W23320  16.210  33.180  17.174  0.0993 -0.1810 -0.0430
80404W        W23321  16.499  31.785  15.573 -0.1295  0.0774  0.2357
80405W        W23322  13.668  31.609  15.088 -0.1965 -0.0768 -0.0386
80406W        W23323  13.607  32.139  16.571  0.1342 -0.0774 -0.0622
80407W        W23324  16.024  30.304  18.028  0.0659 -0.0174  0.1587
80408W        W23325  12.533  29.077  19.586 -0.0160  0.2999  0.1223
80409W        W23326  14.648  31.104  21.485 -0.1194 -0.1641  0.1791
80410W        W23327  14.872  30.458  16.277  0.2685  0.0144  0.0832
80411W        W23328  15.638  32.315  18.666  0.3743  0.1128  0.2982
80412W        W23329  16.713  31.240  17.211 -0.0478  0.1341  0.1239
80413W        W23330  16.969  29.849  16.670  0.1386 -0.2577  0.2503
80414W        W23331  15.598  31.978  19.920 -0.2465  0.2600 -0.3750
80415W        W23332  17.220  31.357  16.145  0.1102 -0.0970 -0.0781
80416W        W23333  17.126  29.367  16.742 -0.0019  0.1467  0.2795
80417W        W23334  16.507  30.354  16.882 -0.0133  0.0679  0.4716
80418W        W23335  15.531  33.408  18.952  0.1558  0.3305  0.1219
80419W        W23336  15.974  32.773  15.967  0.3346  0.1873  0.0626
80420W        W23337  15.777  32.275  19.570  0.1574  0.1762 -0.0063
80421W        W23338  16.835  29.702  16.248 -0.1925 -0.1302  0.2262
80422W        W23339  17.481  33.535  15.458 -0.0803 -0.2570 -0.0482
80423W        W23340  14.103  32.248  18.650  0.1984 -0.1572  0.1618
80424W        W23341  16.455  29.611  19.402 -0.3581 -0.1753  0.2534
80425W        W23342  18.279  33.310  16.607  0.1790  0.0220 -0.0544
80426W        W23343  16.359  28.393  19.485 -0.0448  0.0574 -0.1242
80427W        W23344  15.531  32.485  16.051  0.0892 -0.2154  0.2312
80428W        W23345  14.648  29.680  17.551  0.1658  0.0349 -0.2353
80429W        W23346  14.878  32.819  15.491 -0.0222 -0.1669  0.3615
80430W        W23347  18.982  29.497  18.377  0.1166  0.0529  0.0914
80431W        W23348  15.886  30.169  16.902  0.4141 -0.0410 -0.1892
80432W        W23349  15.177  29.167  16.947  0.0189  0.2928  0.1367
80433W        W23350  18.012  32.847  21.821  0.1773  0.0575 -0.1011
80434W        W23351  16.182  30.674  16.951 -0.2008  0.1919 -0.1853
80435W        W23352  15.914  30.724  17.857 -0.1227  0.0043 -0.0269
80436W        W23353  14.462  29.860  15.641 -0.1384 -0.1485 -0.4587
80437W        W23354  16.631  29.100  17.091  0.0780 -0.3065 -0.0606
80438W        W23355  14.433  33.102  18.763 -0.1153 -0.0182 -0.1838
80439W        W23356  15.184  32.653  18.510  0.4545 -0.2687  0.1159
80440W        W23357  15.710  31.217  18.810 -0.0991 -0.0075 -0.3139
80441W        W23358  18.357  29.830  17.529 -0.1583 -0.0640 -0.1116
80442W        W23359  17.222  31.707  19.478  0.1975  0.4945 -0.1796
80443W        W23360  15.619  30.306  16.514  0.0408  0.3163 -0.0361
80444W        W23361  15.909  32.971  17.529  0.3538 -0.2672 -0.0285
80445W        W23362  16.517  32.705  16.392 -0.0196  0.1966 -0.2991
80446W        W23363  15.870  30.516  16.092  0.1133  0.1117  0.1014
80447W        W23364  16.219  32.206  19.318  0.1765 -0.1487  0.0346
80448W        W23365  14.931  32.323  19.289  0.0627  0.0755  0.0685
80449W        W23366  17.381  32.745  16.318 -0.2278 -0.2178  0.0293
80450W        W23367  13.442  30.502  18.574 -0.2713 -0.2425 -0.0332
80451W        W23368  18.342  29.146  18.998 -0.0756 -0.1678 -0.0655
80452W        W23369  16.385  31.622  16.134 -0.2525  0.0146 -0.0635
80453W        W23370  15.331  29.518  15.968  0.3718  0.0605 -0.0192
80454W        W23371  14.914  31.035  15.391 -0.2760  0.1609 -0.0441
80455W        W23372  16.261  28.345  17.042  0.0499  0.1848 -0.1485
80456W        W23373  18.313  30.895  18.029 -0.2201  0.1033  0.0839
80457W        W23374  14.728  31.318  17.106  0.2193  0.1576 -0.0758
80458W        W23375  13.417  31.780  17.601 -0.1346 -0.0942 -0.0288
80459W        W23376  15.186  32.122  18.828 -0.0749  0.1800 -0.0383
80460W        W23377  18.053  29.893  18.084 -0.0180  0.0631  0.5276
80461W        W23378  16.780  29.663  17.133 -0.4075 -0.1647  0.2634
80462W        W23379  15.893  32.812  16.994  0.2789  0.0108  0.0495
80463W        W23380  14.192  31.427  18.517  0.0740  0.2802 -0.0117
80464W        W23381  13.348  31.559  15.722 -0.3553 -0.0139  0.2259
80465W        W23382  17.551  31.193  19.472  0.0202 -0.2659  0.2998
80466W        W23383  15.305  32.830  16.897  0.0790 -0.1201  0.2081
80467W        W23384  12.502  31.331  15.613 -0.2289  0.1747  0.0632
80468W        W23385  14.440  32.333  19.492 -0.1980 -0.3330  0.1696
80469W        W23386  12.626  29.966  17.037 -0.0595 -0.0966 -0.0288
80470W        W23387  13.447  32.721  17.393 -0.0445 -0.0022  0.2834
80471W        W23388  14.442  28.930  19.386  0.0212 -0.2059  0.1627
80472W        W23389  16.877  32.242  18.981 -0.1160 -0.2308  0.0489
80473W        W23390  16.638  30.112  16.407  0.3220  0.1340  0.3057
80474W        W23391  15.339  29.482  19.080  0.1780  0.1863 -0.1839
80475W        W23392  17.763  31.248  19.912  0.0772 -0.0709 -0.2408
80476W        W23393  15.537  31.927  18.302 -0.2022 -0.2123  0.1491
80477W        W23394  16.209  30.974  17.353 -0.0144 -0.0631  0.1458
80478W        W23395  14.309  32.433  18.145  0.0309 -0.3934 -0.0951
80479W        W23396  14.266  29.415  18.164  0.0686  0.2008  0.0817
80480W        W23397  19.283  33.105  17.334 -0.3744  0.1227  0.0502
80481W        W23398  16.669  32.063  19.962  0.2082  0.2359 -0.2196
80482W        W23399  15.735  31.785  15.521 -0.0716  0.0377 -0.1360
80483W        W23400  14.130  31.792  20.223 -0.1201  0.1587 -0.1074
80484W        W23401  15.862  31.566  17.474 -0.1437 -0.0126  0.1552
80485W        W23402  14.875  28.175  17.297  0.0582 -0.2608 -0.1012
80486W        W23403  15.237  30.633  17.797  0.2326 -0.1249  0.1093
80487W        W23404  16.796  31.541  15.882 -0.0877  0.0986  0.1829
80488W        W23405  16.025  32.022  17.587  0.2626 -0.0458  0.2602
80489W        W23406  16.355  30.091  17.384 -0.1268  0.1460 -0.0756
80490W        W23407  17.995  34.474  15.943  0.3289 -0.0466 -0.0121
80491W        W23408  16.481  31.877  19.024 -0.1465  0.0086 -0.1118
80492W        W23409  16.515  28.827  20.458  0.1091  0.0527 -0.0945
80493W        W23410  17.814  29.955  17.629  0.0787  0.0070 -0.1357
80494W        W23411  15.322  30.673  21.014 -0.0247 -0.0735 -0.2307
80495W        W23412  13.408  31.357  18.348 -0.2650 -0.1538  0.2432
80496W        W23413  17.466  33.053  17.227 -0.2320  0.1763  0.1433
80497W        W23414  15.907  29.359  19.401  0.0624  0.1988  0.1499
80498W        W23415  16.421  31.772  20.282 -0.1159 -0.0291 -0.3146
80499W        W23416  15.399  29.817  21.433 -0.2443 -0.1802 -0.2481
80500W        W23417  15.959  31.337  16.528  0.1585  0.0694  0.2844
80501W        W23418  14.852  32.410  16.145 -0.1572  0.0814  0.1250
80502W        W23419  16.167  32.077  17.055  0.0281 -0.1503  0.1013
80503W        W23420  17.750  33.294  19.123  0.1071  0.1807 -0.0472
80504W        W23421  16.259  30.885  16.288 -0.0570 -0.0102 -0.0924
80505W        W23422  18.601  31.313  18.316  0.1978  0.1358 -0.0758
80506W        W23423  16.240  31.237  20.305  0.1846 -0.2516  0.1128
80507W        W23424  16.421  30.675  17.692 -0.4405  0.2585 -0.1407
80508W        W23425  17.233  32.173  16.559  0.0454  0.1312  0.0294
80509W        W23426  15.147  32.266  17.146 -0.1186  0.1994 -0.2036
80510W        W23427  15.680  29.982  20.303  0.0215 -0.3263  0.0049
80511W        W23428  16.873  32.284  18.236  0.3144  0.1142  0.1950
80512W        W23429  14.614  30.216  17.464 -0.0398  0.0117  0.0193
80513W        W23430  16.182  29.891  19.829  0.1622 -0.1893 -0.0135
80514W        W23431  17.635  30.794  19.707  0.0969  0.1090  0.0612
80515W        W23432  14.839  31.943  19.566  0.0374  0.0420 -0.0798
80516W        W23433  15.139  31.038  19.446 -0.1800 -0.1866 -0.0289
80517W        W23434  17.768  33.458  16.438 -0.1323 -0.1463  0.1970
80518W        W23435  19.618  31.194  17.213 -0.2612 -0.3640 -0.1124
80519W        W23436  17.445  31.016  18.631 -0.1439 -0.3803 -0.1210
80520W        W23437  15.784  30.787  16.656  0.1389  0.2355 -0.2842
80521W        W23438  15.843  31.508  15.026  0.1953 -0.2482  0.0045
80522W        W23439  14.616  30.273  16.682  0.1935  0.0827 -0.0297
80523W        W23440  15.565  33.091  19.879 -0.2347  0.0011 -0.0803
80524W        W23441  14.542  29.794  16.145  0.0259  0.1304 -0.1158
80525W        W23442  17.758  31.644  19.512  0.0535  0.0511 -0.1244
80526W        W23443  16.460  32.606  15.910 -0.1227  0.2442 -0.0052
80527W        W23444  16.396  30.881  15.388 -0.0510 -0.0621  0.1776
80528W        W23445  17.204  30.610  16.007 -0.1089 -0.1060  0.1439
80529W        W23446  13.910  31.697  17.344  0.1295  0.3756  0.0577
80530W        W23447  15.436  31.667  18.746  0.2106 -0.0120  0.2872
80531W        W23448  15.670  31.695  16.823  0.0572  0.1906 -0.0306
80532W        W23449  16.165  30.442  16.512 -0.1101 -0.2087  0.1102
80533W        W23450  15.855  29.912  18.323 -0.1566 -0.2439 -0.2290
80534W        W23451  15.999  31.628  20.609  0.0930 -0.2085 -0.2927
80535W        W23452  16.326  29.843  18.134 -0.2029  0.0537  0.1077
80536W        W23453  15.369  29.974  19.892 -0.3276  0.1633 -0.0653
80537W        W23454  16.968  32.971  16.146  0.0627 -0.0137  0.0735
80538W        W23455  18.341  28.319  18.832  0.1851  0.0880  0.3798
80539W        W23456  15.324  34.378  18.074  0.0363 -0.1432 -0.1703
80540W        W23457  13.127  31.622  19.678 -0.0168 -0.4305 -0.0913
80541W        W23458  18.821  32.316  16.376 -0.1136 -0.2219 -0.1818
80542W        W23459  16.006  30.508  17.419 -0.0316  0.1116  0.1522
80543W        W23460  16.261  31.257  19.803  0.0571  0.0607 -0.0851
80544W        W23461  14.461  31.759  17.454  0.3929  0.0203  0.0201
80545W        W23462  16.155  28.509  20.247  0.0654 -0.3533  0.0498
80546W        W23463  15.969  33.175  20.661 -0.1688  0.0844 -0.0930
80547W        W23464  15.189  31.682  16.725 -0.0732 -0.2495  0.1119
80548W        W23465  17.779  32.163  19.242  0.2679  0.1220 -0.0807
80549W        W23466  18.533  30.327  17.351 -0.1181 -0.5091 -0.1492
80550W        W23467  16.333  31.769  16.643  0.1068  0.3786 -0.0663
80551W        W23468  14.049  31.437  19.316  0.2086 -0.2956 -0.2052
80552W        W23469  14.659  30.855  19.668  0.2271 -0.0453 -0.1130
80553W        W23470  16.231  30.989  18.154 -0.0435  0.0756 -0.1237
80554W        W23471  16.797  31.920  17.827  0.0116  0.1442 -0.2627
80555W        W23472  14.120  31.380  17.687 -0.1805 -0.1409  0.0468
80556W        W23473  13.344  32.481  18.349  0.1128  0.2261  0.0383
80557W        W23474  14.102  32.765  17.763  0.0411  0.1397 -0.2030
80558W        W23475  13.769  34.035  15.207 -0.0309  0.0609 -0.1787
80559W        W23476  14.090  32.734  18.480 -0.3285  0.0573 -0.0106
80560W        W23477  17.011  33.102  17.440  0.1020  0.0549  0.2493
80561W        W23478  16.430  31.218  18.982 -0.3196  0.0520 -0.2924
80562W        W23479  15.114  30.907  14.989  0.1654  0.0183  0.0740
80563W        W23480  14.272  33.063  16.614  0.3762  0.3060  0.0447
80564W        W23481  13.686  31.646  16.519  0.2203  0.0921 -0.0277
80565W        W23482  16.881  31.009  15.806 -0.2064 -0.0753 -0.0461
80566W        W23483  17.448  31.124  17.607  0.4040 -0.3270 -0.0782
80567W        W23484  17.413  31.979  20.838  0.1297 -0.0023 -0.4393
80568W        W23485  17.853  31.702  15.880  0.0831  0.0725 -0.1606
80569W        W23486  17.365  31.683  17.905  0.2464 -0.0061 -0.1198
80570W        W23487  16.126  29.524  18.459  0.1372  0.0244  0.0619
80571W        W23488  17.846  32.288  18.066 -0.0826 -0.0916 -0.0417
80572W        W23489  15.707  31.231  20.481 -0.2344 -0.2380 -0.1510
80573W        W23490  14.836  29.173  15.485  0.0786  0.1487 -0.1432
80574W        W23491  16.363  29.425  18.984  0.1842  0.1472  0.0382
80575W        W23492  17.040  30.038  18.167  0.2066 -0.3688 -0.2928
80576W        W23493  14.587  30.968  18.594  0.0710 -0.0293 -0.0766
80577W        W23494  16.686  32.234  15.682  0.3378  0.0778 -0.0363
80578W        W23495  14.151  29.508  15.847  0.0419  0.1328 -0.1648
80579W        W23496  16.964  33.746  17.683  0.1301  0.0823 -0.0415
80580W        W23497  17.522  29.521  17.572 -0.0876  0.0910 -0.2503
80581W        W23498  16.698  30.763  18.113 -0.1889 -0.1319 -0.1752
80582W        W23499  16.090  29.405  20.967 -0.2702 -0.1528  0.2595
80583W        W23500  16.432  33.085  16.062  0.4660  0.2093 -0.0835
80584W        W23501  17.036  32.706  17.174 -0.0898  0.4606  0.0975
80585W        W23502  16.309  29.926  18.900 -0.0057  0.1388 -0.1156
80586W        W23503  14.686  30.734  15.661  0.0614  0.3115  0.4945
80587W        W23504  18.462  30.020  16.488  0.1023  0.0283  0.1356
80588W        W23505  14.640  31.121  17.636 -0.2907 -0.1019  0.0384
80589W        W23506  16.765  30.429  18.504 -0.1787  0.3891  0.2090
80590W        W23507  15.681  32.004  14.950  0.1828  0.0030 -0.1510
80591W        W23508  17.666  29.960  18.508  0.2230 -0.0466  0.2831
80592W        W23509  15.249  29.917  19.346  0.0780 -0.2617 -0.1358
80593W        W23510  14.473  32.410  16.573  0.1267  0.2626 -0.2393
80594W        W23511  17.265  30.518  17.424  0.1879  0.0986  0.1131
80595W        W23512  15.467  30.508  20.070 -0.2012 -0.1155  0.1414
80596W        W23513  17.971  30.626  16.869  0.0621  0.4247  0.2031
80597W        W23514  17.134  33.877  18.730 -0.4016  0.2297 -0.1158
80598W        W23515  13.252  33.061  16.168  0.1428 -0.5070  0.1108
80599W        W23516  17.785  31.779  16.525 -0.1373 -0.0810  0.1765
80600W        W23517  14.199  32.569  14.980 -0.0774  0.0592 -0.3226
80601W        W23518  16.303  31.584  19.399  0.1918 -0.3412 -0.1986
80602W        W23519  17.047  31.322  19.718 -0.2111 -0.0007  0.3586
80603W        W23520  13.561  29.499  18.071  0.2831 -0.1435 -0.0789
80604W        W23521  18.674  32.658  16.787  0.1806  0.0048  0.1436
80605W        W23522  18.368  29.197  16.598  0.0379 -0.1735  0.1605
80606W        W23523  16.693  31.152  16.235 -0.0825 -0.0681 -0.0328
80607W        W23524  17.886  30.498  19.371  0.3558 -0.3237 -0.0051
80608W        W23525  17.810  32.660  17.655  0.1756 -0.0511  0.2457
80609W        W23526  12.996  30.375  21.036  0.0891  0.1976  0.0709
80610W        W23527  16.836  29.798  19.187 -0.0117  0.1272  0.1651
80611W        W23528  17.460  32.336  16.092  0.1287  0.4285 -0.0989
80612W        W23529  15.569  30.510  17.108 -0.1159  0.1393  0.1554
80613W        W23530  14.738  32.839  16.405 -0.0928  0.0024  0.0055
80614W        W23531  16.346  32.729  16.893 -0.1604 -0.0181  0.0600
80615W        W23532  17.229  29.589  19.623  0.0887  0.2528 -0.2557
80616W        W23533  17.247  30.525  19.399  0.0955 -0.0354  0.0681
80617W        W23534  14.219  31.280  17.152 -0.1108  0.1473  0.0282
80618W        W23535  15.925  27.920  21.021  0.0475 -0.2430 -0.1131
80619W        W23536  18.039  33.639  18.783  0.3593  0.1664  0.1140
80620W        W23537  17.338  31.475  18.977  0.1877  0.0552 -0.0522
80621W        W23538  14.865  31.786  17.144  0.3166 -0.1373 -0.0853
80622W        W23539  16.026  30.301  19.146  0.0699  0.1680 -0.1652
80623W        W23540  17.151  30.138  17.015  0.0790  0.1203  0.0828
80624W        W23541  16.420  32.274  16.692  0.1503 -0.0480 -0.2881
80625W        W23542  17.020  33.498  17.135  0.1379 -0.2377  0.1084
80626W        W23543  16.426  31.589  18.635 -0.0370 -0.2765  0.4341
80627W        W23544  17.975  32.543  19.580  0.3156  0.1237 -0.0082
80628W        W23545  16.379  31.651  17.609  0.0062  0.1974 -0.1931
80629W        W23546  17.942  29.061  17.415  0.1761 -0.1416  0.2886
80630W        W23547  17.528  28.931  15.568  0.1488  0.1818  0.0224
80631W        W23548  15.431  31.439  19.220  0.1505 -0.1508  0.1826
80632W        W23549  12.613  30.645  15.191  0.0291  0.1644 -0.2878
80633W        W23550  17.124  30.175  16.222 -0.1936 -0.1268  0.1882
80634W        W23551  14.953  31.145  16.621  0.0466  0.0644  0.2518
80635W        W23552  16.731  28.419  19.199  0.0709  0.4240 -0.0319
80636W        W23553  15.110  30.362  16.775 -0.0641  0.1931 -0.2834
80637W        W23554  15.062  31.905  17.637 -0.5791  0.0070  0.2329
80638W        W23555  14.438  31.184  16.666  0.4936 -0.1514 -0.1954
80639W        W23556  18.769  32.003  15.604  0.1441 -0.1055  0.0087
80640W        W23557  15.524  31.087  17.972  0.0687  0.1299  0.0781
80641W        W23558  15.521  31.275  19.741 -0.1642 -0.1673 -0.3966
80642W        W23559  19.417  33.051  16.511  0.0008  0.1394  0.3618
80643W        W23560  17.708  31.791  15.333  0.2515 -0.1208 -0.1767
80644W        W23561  15.345  30.878  18.993 -0.1205 -0.1444  0.0459
80645W        W23562  17.275  30.718  21.116  0.1029  0.3056  0.0532
80646W        W23563  14.548  31.738  15.704 -0.1070 -0.2014 -0.0562
80647W        W23564  16.722  29.976  20.274 -0.0007 -0.2013  0.4084
80648W        W23565  15.220  30.255  21.271 -0.4015 -0.1126  0.1741
80649W        W23566  15.451  31.257  16.682  0.0481  0.1545  0.1042
80650W        W23567  17.811  30.724  18.269 -0.0313 -0.0074 -0.0136
80651W        W23568  16.490  32.279  17.668 -0.0414 -0.2894  0.0830
80652W        W23569  19.224  31.425  16.080 -0.2976 -0.0377 -0.5460
80653W        W23570  15.362  32.838  17.923  0.0245 -0.1472 -0.0028
80654W        W23571  16.899  31.752  18.749 -0.1701 -0.1474 -0.2539
80655W        W23572  15.068  28.382  18.851  0.3170 -0.0212  0.0647
80656W        W23573  17.817  31.486  17.753 -0.0177 -0.0212 -0.2367
80657W        W23574  16.940  31.171  18.836  0.0374  0.0187  0.1391
80658W        W23575  18.236  31.734  16.302 -0.2507  0.3138 -0.1784
80659W        W23576  15.610  29.156  18.662 -0.3324 -0.3771  0.1208
80660W        W23577  17.999  30.129  16.676 -0.0136 -0.0770 -0.1497
80661W        W23578  14.069  28.930  17.839  0.1274 -0.2570 -0.3247
80662W        W23579  13.843  31.247  20.316 -0.1568 -0.0961 -0.0045
80663W        W23580  18.364  30.493  19.604  0.3555  0.0854  0.2913
80664W        W23581  17.063  30.924  17.007  0.1418  0.0301  0.0265
80665W        W23582  15.679  30.889  17.430 -0.0092 -0.0865 -0.3278
80666W        W23583  15.773  30.997  16.198  0.3250  0.1010  0.0704
80667W        W23584  12.596  31.455  18.833 -0.0808 -0.0880 -0.0410
80668W        W23585  14.937  32.127  16.695  0.4394 -0.0528 -0.0777
80669W        W23586  14.778  30.989  19.138  0.0986 -0.0032  0.0642
80670W        W23587  16.140  32.509  17.379 -0.0843 -0.2277 -0.2108
80671W        W23588  16.957  30.263  19.037  0.0900  0.0595 -0.1323
80672W        W23589  15.158  32.554  16.512  0.0040 -0.0752 -0.2885
80673W        W23590  19.891  31.360  17.572  0.4681 -0.1608  0.1365
80674W        W23591  18.205  33.324  19.471 -0.2726 -0.1152  0.0227
80675W        W23592  16.951  33.059  19.587  0.1674 -0.0998  0.1702
80676W        W23593  16.346  31.940  18.154 -0.2051  0.3122  0.0727
80677W        W23594  18.047  31.200  18.323  0.3363 -0.2091  0.1930
80678W        W23595  13.541  30.924  18.210 -0.2680  0.2593 -0.0246
80679W        W23596  16.176  33.616  17.483  0.0195  0.2652 -0.1948
80680W        W23597  17.053  30.885  16.423  0.2274  0.1374  0.0598
80681W        W23598  17.240  32.361  18.580 -0.3201 -0.3271  0.2105
80682W        W23599  14.206  30.813  15.518 -0.1146 -0.2990 -0.3043
80683W        W23600  17.083  28.003  16.635  0.0567  0.0968 -0.4425
80684W        W23601  16.681  34.123  18.107  0.4397 -0.1400  0.0709
80685W        W23602  15.480  29.904  17.995  0.0762 -0.1497  0.2512
80686W        W23603  13.901  31.893  23.537 -0.0417  0.1523 -0.0748
80687W        W23604  15.560  30.594  22.145 -0.2364 -0.2457  0.0409
80688W        W23605  16.505  30.157  21.625 -0.2358 -0.0021  0.1315
80689W        W23606  18.519  29.933  19.426 -0.1193 -0.2967  0.1460
80690W        W23607  14.834  30.206  20.675  0.2412 -0.3024  0.0906
80691W        W23608  17.985  32.740  19.022  0.2047  0.1843 -0.3336
80692W        W23609  15.417  30.808  24.080  0.1102  0.1765 -0.0587
80693W        W23610  18.699  32.458  21.844 -0.2513  0.2717 -0.2798
80694W        W23611  15.324  33.987  20.853  0.1714 -0.3158  0.2631
80695W        W23612  16.185  32.227  20.751  0.1310  0.0397 -0.0765
80696W        W23613  14.746  29.254  24.045  0.0525  0.0157  0.1201
80697W        W23614  16.183  32.642  21.511 -0.0805 -0.1981  0.0344
80698W        W23615  17.253  30.152  18.684 -0.1997 -0.0175  0.1600
80699W        W23616  14.905  30.764  22.884  0.0147  0.3658  0.1265
80700W        W23617  18.239  30.323  24.310 -0.1339 -0.0379 -0.0965
80701W        W23618  14.324  31.062  19.365 -0.3744  0.0573  0.1679
80702W        W23619  14.538  30.136  22.490  0.0915 -0.0113 -0.2072
80703W        W23620  16.155  31.556  22.780  0.1218  0.1294  0.1766
80704W        W23621  17.298  31.993  21.466  0.1003 -0.1900  0.2013
80705W        W23622  15.193  29.794  23.525 -0.1505  0.0158  0.1851
80706W        W23623  16.287  29.371  24.311 -0.1070 -0.0432 -0.2936
80707W        W23624  15.804  32.285  22.707  0.1871 -0.1305  0.0792
80708W        W23625  14.644  32.267  18.853  0.2538  0.0251 -0.0174
80709W        W23626  13.163  31.640  22.805  0.0957  0.1372 -0.1653
80710W        W23627  13.691  32.519  22.684 -0.0662 -0.1342  0.0697
80711W        W23628  16.420  28.132  22.855  0.0333 -0.1425 -0.1121
80712W        W23629  16.002  31.375  22.355 -0.2846  0.0504 -0.1670
80713W        W23630  16.211   0.301  21.779  0.1011  0.2408  0.1584
80714W        W23631  15.059  33.076  18.334  0.1219 -0.0638 -0.3768
80715W        W23632  17.210  31.134  24.688  0.0518 -0.1852 -0.0119
80716W        W23633  15.799  30.726  24.991 -0.0248  0.0962  0.1289
80717W        W23634  14.249  30.902  20.233  0.1228 -0.1293  0.0939
80718W        W23635  16.391  32.375  20.265 -0.0008  0.1990 -0.3364
80719W        W23636  18.567  32.938  22.053 -0.1848 -0.0645  0.0251
80720W        W23637  17.905  34.139  23.377  0.2733 -0.4509 -0.0651
80721W        W23638  15.572  32.255  24.761 -0.0337  0.0391 -0.1085
80722W        W23639  13.950  32.010  19.388 -0.3830 -0.1843 -0.1359
80723W        W23640  17.338  31.478  23.382 -0.1922  0.0933 -0.1494
80724W        W23641  15.278  32.878  21.798  0.3046  0.0467 -0.1462
80725W        W23642  17.779  31.942  21.303 -0.1681 -0.1935 -0.3645
80726W        W23643  16.425  33.290  20.452 -0.1900 -0.0559 -0.1154
80727W        W23644  15.954  31.596  19.019  0.2100  0.0719  0.1486
80728W        W23645  16.174  30.874  22.766 -0.3073 -0.2393 -0.1944
80729W        W23646  15.122  32.904  25.560  0.4119  0.0752  0.1226
80730W        W23647  14.235  31.583  24.052  0.1379  0.2668  0.0591
80731W        W23648  17.888  28.887  22.763  0.0586  0.2220  0.0753
80732W        W23649  16.355  33.324  20.970  0.3145 -0.3399  0.0608
80733W        W23650  16.616  31.121  19.461  0.2042  0.1032  0.2697
80734W        W23651  15.822  28.637  18.643 -0.0675 -0.2152  0.0808
80735W        W23652  16.652  30.504  21.254  0.1716 -0.2962  0.2820
80736W        W23653  12.708  27.655  19.930  0.1100  0.3127  0.0954
80737W        W23654  15.645  32.882  20.310 -0.0880  0.1355  0.0792
80738W        W23655  14.848  30.136  23.774  0.1402 -0.5384  0.0928
80739W        W23656  15.287  31.279  23.929  0.0133 -0.0803 -0.0143
80740W        W23657  18.271  30.287  19.066 -0.1897 -0.3919  0.0233
80741W        W23658  18.251  31.151  22.349  0.0852 -0.0142  0.0372
80742W        W23659  15.549  31.831  22.730  0.0736  0.1328 -0.2739
80743W        W23660  15.278  31.511  22.280  0.0777 -0.1673  0.0122
80744W        W23661  19.279  31.401  21.039  0.2338 -0.1684  0.0881
80745W        W23662  19.452  34.364  21.634 -0.2506 -0.2387  0.2550
80746W        W23663  17.283  34.515  19.335  0.1031 -0.0508 -0.2139
80747W        W23664  15.071  31.984  20.550  0.0236 -0.4830  0.1408
80748W        W23665  14.721  30.651  22.440 -0.0607 -0.0769  0.0336
80749W        W23666  12.941  32.052  21.699 -0.1946 -0.4103  0.0652
80750W        W23667  13.282  29.043  18.183 -0.2462  0.2155 -0.0991
80751W        W23668  15.728  33.305  24.999  0.0220  0.0162 -0.0562
80752W        W23669  15.089  31.542  21.335  0.1672 -0.0209  0.1244
80753W        W23670  17.143  32.059  19.831 -0.3169  0.0396  0.2586
80754W        W23671  17.210  30.344  22.075 -0.0347  0.0283  0.0521
80755W        W23672  17.196  31.705  22.871  0.0527 -0.0371  0.0463
80756W        W23673  14.625  30.421  19.278  0.1293 -0.1979 -0.0473
80757W        W23674  17.495  28.306  24.411 -0.1898 -0.0776  0.1800
80758W        W23675  18.030  29.829  23.141 -0.1775  0.2838 -0.0552
80759W        W23676  15.224  31.657  19.672  0.1065 -0.1690  0.3688
80760W        W23677  15.325  30.386  23.605 -0.0132  0.0628 -0.0856
80761W        W23678  18.166  33.050  23.050 -0.3611 -0.0676 -0.1010
80762W        W23679  18.105  31.227  20.250  0.1104  0.0007 -0.0546
80763W        W23680  15.015  32.369  23.396 -0.2870  0.1874  0.0379
80764W        W23681  16.338  30.130  22.080  0.1973  0.1377  0.3910
80765W        W23682  17.089  31.348  22.548 -0.1573  0.0671 -0.0193
80766W        W23683  16.231  32.927  18.752 -0.2655 -0.0327  0.0095
80767W        W23684  15.862  31.039  21.882  0.2003  0.2802 -0.2620
80768W        W23685  15.491  32.527  19.860  0.1908 -0.2815  0.0674
80769W        W23686  15.206  29.953  20.844  0.2238 -0.0066  0.1410
80770W        W23687  14.715  33.336  22.417 -0.0113 -0.1646 -0.1711
80771W        W23688  17.524  30.821  20.188  0.0571 -0.0919 -0.1788
80772W        W23689  14.387  28.374  24.132  0.1526 -0.2183 -0.0209
80773W        W23690  17.647  29.527  24.341 -0.3139 -0.1562 -0.0079
80774W        W23691  13.866  33.119  20.731 -0.0268  0.1770 -0.1716
80775W        W23692  18.011  31.338  21.766 -0.0099  0.0893  0.1833
80776W        W23693  18.217  30.114  21.370  0.1789 -0.1300  0.3928
80777W        W23694  15.797  31.358  21.128 -0.0033 -0.0686 -0.1598
80778W        W23695  14.081  30.262  19.190 -0.2910 -0.0493 -0.0684
80779W        W23696  14.217  30.654  21.273 -0.2933 -0.4505 -0.0779
80780W        W23697  15.718  28.179  23.907 -0.0109  0.0260 -0.3051
80781W        W23698  14.817  31.736  22.299  0.1270 -0.2350 -0.1393
80782W        W23699  17.494  31.544  24.433  0.2614  0.1546 -0.1135
80783W        W23700  14.365  30.665  18.875  0.1209  0.3215  0.1449
80784W        W23701  16.448  31.286  21.723 -0.0179 -0.1818 -0.2499
80785W        W23702  15.822  31.212  22.938  0.1349 -0.3447 -0.3051
80786W        W23703  14.812  29.684  20.681 -0.0929 -0.1169  0.0069
80787W        W23704  17.237  29.609  23.645  0.0852  0.2286 -0.4223
80788W        W23705  17.993  33.060  21.344 -0.5191  0.0580 -0.1502
80789W        W23706  15.707  33.643  20.743  0.3227 -0.0834  0.2074
80790W        W23707  17.546  31.375  22.009  0.0240  0.4345  0.1269
80791W        W23708  15.470  30.081  22.236  0.4012  0.0332 -0.1619
80792W        W23709  15.131  29.280  18.649 -0.0109  0.2028  0.1753
80793W        W23710  14.725  31.376  18.411 -0.1408 -0.0649  0.0259
80794W        W23711  14.985  31.473  20.488  0.0437  0.0368  0.1467
80795W        W23712  13.523  31.413  21.488  0.1022 -0.2898  0.3301
80796W        W23713  16.395  34.367  22.124  0.0029  0.1817 -0.0826
80797W        W23714  15.114  29.233  21.502  0.1666  0.1845  0.0362
80798W        W23715  17.164  32.568  21.664  0.0737  0.0022 -0.0882
80799W        W23716  16.800  27.329  22.944 -0.5003  0.1764 -0.3008
80800W        W23717  16.285  29.993  21.085  0.0923 -0.1754 -0.1343
80801W        W23718  17.193  30.217  20.408  0.2821  0.1301  0.1656
80802W        W23719  14.979  32.877  17.350  0.0122  0.2845  0.2292
80803W        W23720  17.037  32.269  21.103 -0.2561  0.2098 -0.0633
80804W        W23721  14.520  32.071  19.969  0.1003  0.2768  0.0389
80805W        W23722  14.471  30.490  22.865 -0.0920 -0.1368  0.2484
80806W        W23723  16.211  32.653  22.041 -0.1129 -0.1471  0.0465
80807W        W23724  17.498  29.249  22.900 -0.0640 -0.2081 -0.1754
80808W        W23725  14.064  30.951  23.645  0.2924  0.0366  0.1256
80809W        W23726  15.712  30.187  23.287  0.1646  0.1459 -0.3281
80810W        W23727  14.643  29.722  19.251  0.0763 -0.1847  0.2770
80811W        W23728  13.911  32.534  20.868  0.1103 -0.3216  0.0204
80812W        W23729  18.728  28.904  21.368 -0.0434 -0.1306 -0.2273
80813W        W23730  16.591  30.865  20.889  0.0209 -0.0211 -0.2055
80814W        W23731  16.143  30.379  22.914 -0.0816 -0.1187  0.2255
80815W        W23732  18.721  31.728  18.694  0.0176 -0.0925 -0.2338
80816W        W23733  16.371  29.052  19.363 -0.1559 -0.1303 -0.4152
80817W        W23734  16.079  30.347  19.795 -0.1761  0.0146 -0.1079
80818W        W23735  16.078  30.720  24.038  0.4088  0.0180  0.2738
80819W        W23736  16.454  32.817  20.494  0.0718  0.2663 -0.0398
80820W        W23737  16.741  30.970  22.759 -0.2215  0.1484  0.1516
80821W        W23738  17.083  29.106  19.801  0.2063  0.1435  0.1430
80822W        W23739  17.211  31.743  21.864  0.3932  0.1339  0.0740
80823W        W23740  13.774  33.486  24.860  0.0827  0.0269 -0.0897
80824W        W23741  14.314  32.507  25.471  0.0859  0.0663 -0.0966
80825W        W23742  17.036  32.859  20.403  0.1167 -0.0043  0.3076
80826W        W23743  15.663  28.901  24.975 -0.0740 -0.0546 -0.4966
80827W        W23744  15.925  31.220  19.394 -0.1275  0.0373  0.5050
80828W        W23745  17.456  30.001  20.824 -0.1336  0.0042  0.3777
80829W        W23746  12.932  32.948  18.801 -0.1025  0.0203 -0.1702
80830W        W23747  17.020  29.010  22.928  0.0734 -0.1230  0.3768
80831W        W23748  17.699  30.418  22.109  0.2297  0.0499  0.2552
80832W        W23749  16.733  29.570  23.724 -0.0827  0.0002 -0.3161
80833W        W23750  16.905  32.237  24.677  0.2604 -0.1820 -0.1816
80834W        W23751  18.449  31.253  21.539  0.0256 -0.0731 -0.2370
80835W        W23752  15.158  30.073  21.789 -0.0686 -0.0614 -0.0005
80836W        W23753  15.476  30.459  21.675  0.2508  0.2843 -0.2362
80837W        W23754  15.218  30.945  25.436 -0.0613 -0.0472  0.0152
80838W        W23755  15.339  31.927  21.748  0.0461 -0.2946 -0.2848
80839W        W23756  14.940  33.177  21.966 -0.0283  0.0290 -0.3840
80840W        W23757  17.407  32.152  22.849 -0.1558 -0.2262 -0.1252
80841W        W23758  19.222  32.060  21.236 -0.1883  0.0570  0.1666
80842W        W23759  15.686  29.623  25.513 -0.0202 -0.0035 -0.1910
80843W        W23760  15.336  30.326  20.509 -0.1560 -0.1513 -0.2847
80844W        W23761  14.098  33.357  21.288  0.1111  0.0861  0.0307
80845W        W23762  16.436  30.180  19.445  0.4376 -0.1048 -0.2660
80846W        W23763  13.775  29.052  18.265  0.0264 -0.1417  0.2141
80847W        W23764  15.080  32.035  21.135  0.0468  0.1765  0.0811
80848W        W23765  16.842  32.704  21.225  0.2532 -0.1532 -0.2444
80849W        W23766  17.556  31.110  24.267  0.1039 -0.1271 -0.1739
80850W        W23767  15.294   0.271  19.328  0.3219  0.2154  0.1207
80851W        W23768  17.479  29.910  22.185  0.3977  0.1575  0.0730
80852W        W23769  13.001  33.042  21.222 -0.2423 -0.1856  0.2451
80853W        W23770  16.255  30.736  20.548  0.0260  0.0576  0.1982
80854W        W23771  13.874  28.665  21.238 -0.2265  0.0943  0.2902
80855W        W23772  18.501  31.111  20.967  0.1336  0.0819  0.3204
80856W        W23773  16.605  31.166  17.770 -0.0232 -0.1754  0.0955
80857W        W23774  15.698  29.782  24.813 -0.1773  0.0295  0.2135
80858W        W23775  15.607  29.949  23.756 -0.1349  0.2250  0.3074
80859W        W23776  14.300  31.352  20.002  0.2032  0.0226  0.1526
80860W        W23777  17.307  30.951  23.880 -0.2081 -0.1397  0.0517
80861W        W23778  16.709  29.794  19.818  0.1190 -0.2873 -0.3113
80862W        W23779  16.920  32.753  24.674 -0.0401  0.0670 -0.0080
80863W        W23780  15.674  31.662  23.870  0.0144  0.2144 -0.1732
80864W        W23781  13.620  30.705  22.348 -0.0077  0.0327  0.0370
80865W        W23782  18.048  30.531  21.752  0.2287  0.0275  0.0595
80866W        W23783  16.041  30.114  20.651  0.1765  0.2501  0.0425
80867W        W23784  14.908  31.424  21.815 -0.0529 -0.0744 -0.1539
80868W        W23785  16.076  33.082  21.678  0.0742  0.0519  0.1068
80869W        W23786  15.072  31.258  18.801  0.3586  0.1833  0.2955
80870W        W23787  14.600  30.013  20.149  0.0816 -0.3570  0.1687
80871W        W23788  14.209  29.310  22.865 -0.0095  0.2326  0.2279
80872W        W23789  17.431  31.497  23.917  0.0858  0.0145  0.0117
80873W        W23790  16.522  29.567  21.186  0.0222 -0.0032  0.1499
80874W        W23791  16.233  30.646  21.623 -0.3017 -0.0826 -0.1739
80875W        W23792  15.756  31.779  22.035  0.3484  0.1358  0.2350
80876W        W23793  16.730  31.671  22.015  0.1716 -0.0592 -0.0594
80877W        W23794  16.280  30.184  23.907  0.1553  0.0646  0.0436
80878W        W23795  15.453  32.715  25.901  0.1000  0.2810 -0.1503
80879W        W23796  14.611  29.344  19.618  0.2401  0.0831 -0.0808
80880W        W23797  18.751  32.001  21.645  0.3871 -0.3650  0.2181
80881W        W23798  17.050  29.320  22.514 -0.0516 -0.0136  0.1720
80882W        W23799  12.924  30.598  17.674  0.0655 -0.1647 -0.0755
80883W        W23800  14.134  30.576  21.787  0.0446 -0.0984 -0.1450
80884W        W23801  15.214  31.028  21.351  0.0449 -0.1076 -0.2944
80885W        W23802  15.661  30.198  22.758 -0.3090  0.1768  0.1806
80886W        W23803  13.641  32.569  21.582 -0.1646 -0.0849 -0.4703
80887W        W23804  14.299  30.779  17.522 -0.1118  0.1408  0.2540
80888W        W23805  17.003  29.412  25.145  0.0802  0.1073  0.0049
80889W        W23806  19.059  29.352  21.269  0.0667  0.1599  0.1062
80890W        W23807  14.568  30.129  18.912  0.0978 -0.2198  0.2851
80891W        W23808  18.676  30.797  22.668  0.1548 -0.4153 -0.2483
80892W        W23809  16.863  28.714  24.041 -0.1015 -0.0425  0.2194
80893W        W23810  15.891  30.905  20.064 -0.2548 -0.0576  0.0975
80894W        W23811  17.148  27.303  24.217  0.1892  0.5096 -0.2586
80895W        W23812  14.847  30.484  23.339 -0.0825 -0.3318  0.1136
80896W        W23813  18.266  31.701  24.910 -0.0732  0.0964 -0.2318
80897W        W23814  14.910  29.070  21.065 -0.2219  0.1636 -0.1358
80898W        W23815  16.609  33.779  24.688  0.0229  0.1262 -0.0894
80899W        W23816  15.442  32.017  23.632  0.4098 -0.1746  0.0017
80900W        W23817  15.553  27.930  22.008  0.0951 -0.2360  0.0324
80901W        W23818  15.315  31.121  20.802 -0.0026 -0.4745  0.1050
80902W        W23819  15.382  31.719  24.827 -0.1449  0.3934 -0.0664
80903W        W23820  16.525  32.279  21.159  0.2725 -0.2183 -0.1234
80904W        W23821  16.069  32.108  23.587 -0.3310 -0.0658  0.0705
80905W        W23822  15.895  32.794  19.586 -0.2835  0.1140  0.1554
80906W        W23823  15.863  30.152  25.276  0.1182  0.3312  0.1038
80907W        W23824  17.591  30.574  20.744 -0.1110 -0.0440  0.1076
80908W        W23825  15.484  33.590  19.833  0.1957  0.0370  0.2305
80909W        W23826  15.962  29.428  20.495  0.1685  0.0148 -0.0929
80910W        W23827  15.305  29.861  23.007  0.0362 -0.0902 -0.0071
80911W        W23828  15.784  30.901  22.483  0.1875 -0.1706  0.0298
80912W        W23829  17.516  29.602  21.798 -0.1855  0.1612 -0.1180
80913W        W23830  15.913  27.751  22.277 -0.0864  0.0953  0.0218
80914W        W23831  17.350  29.085  21.045  0.3303 -0.0454 -0.1304
80915W        W23832  14.143  31.098  24.123 -0.1008 -0.3778 -0.2905
80916W        W23833  14.456  31.394  19.006  0.2443 -0.0097  0.0410
80917W        W23834  18.572  33.359  23.382 -0.0306  0.2847 -0.2275
80918W        W23835  18.565  29.690  19.826  0.0234 -0.0252 -0.1295
80919W        W23836  18.896  32.211  24.094  0.1154  0.0083  0.3416
80920W        W23837  19.807  32.178  23.052 -0.0593  0.0817  0.2608
80921W        W23838  17.721  29.434  19.511 -0.2878 -0.1455 -0.0315
80922W        W23839  14.902  31.362  22.570  0.2526  0.0225  0.1226
80923W        W23840  17.249  32.913  24.341 -0.2066  0.2386  0.1900
80924W        W23841  14.088  30.244  22.697  0.0354  0.2508  0.0161
80925W        W23842  15.580  29.705  24.255 -0.1759  0.2808 -0.0107
80926W        W23843  18.334  32.063  18.718 -0.0503 -0.0270  0.0355
80927W        W23844  17.800  33.647  19.545 -0.3289  0.0924 -0.0231
80928W        W23845  16.163  31.103  21.341 -0.1640 -0.3284 -0.0139
80929W        W23846  14.434  30.974  22.723  0.3275  0.0620  0.0136
80930W        W23847  14.486  31.461  22.803  0.1020  0.0892  0.1839
80931W        W23848  12.156  30.254  18.724  0.2576  0.3158  0.2160
80932W        W23849  14.431  32.600  20.020 -0.0267 -0.1060  0.0373
80933W        W23850  16.064  29.313  23.766  0.0012  0.2396  0.0341
80934W        W23851  17.179  32.896  25.088  0.3039  0.1139  0.1306
80935W        W23852  16.464  28.774  20.987  0.0505 -0.0925 -0.0297
80936W        W23853  17.265  29.130  23.388 -0.2548  0.0298  0.0894
80937W        W23854  13.510  30.663  19.717 -0.0966 -0.0017  0.2586
80938W        W23855  14.754  28.141  20.971  0.1161 -0.0787  0.1821
80939W        W23856  14.835  32.667  21.163 -0.0325 -0.0893  0.0495
80940W        W23857  14.919  31.403  23.524  0.1081  0.0360 -0.0548
80941W        W23858  13.651  32.810  18.030 -0.4896  0.1370 -0.1849
80942W        W23859  15.192  31.811  24.096 -0.2344 -0.0563  0.2337
80943W        W23860  16.609  30.211  22.968 -0.1591 -0.0554 -0.0247
80944W        W23861  15.934  32.684  22.475 -0.0745 -0.1744  0.0092
80945W        W23862  18.761  31.303  23.704  0.1094 -0.3029 -0.1822
80946W        W23863  15.296  31.485  23.005  0.3561  0.0981 -0.0472
80947W        W23864  15.903  31.598  20.046  0.1542  0.1225  0.0681
80948W        W23865  15.463  33.220  21.366 -0.3006 -0.0460 -0.1399
80949W        W23866  18.250  31.753  21.672 -0.1246  0.1555 -0.1326
80950W        W23867  16.868  30.890  23.443  0.0860  0.0008 -0.0230
80951W        W23868  14.529  29.301  20.962 -0.2750  0.0054  0.0236
80952W        W23869  14.534  33.307  24.371  0.0008 -0.0349 -0.1070
80953W        W23870  16.624  31.763  21.449  0.4316 -0.1545 -0.1001
80954W        W23871  13.044  29.550  18.293  0.3264 -0.0912  0.2897
80955W        W23872  16.659  31.629  19.816  0.3830  0.1361  0.0307
80956W        W23873  14.569  32.441  24.788 -0.2454 -0.1381  0.2519
80957W        W23874  14.044  30.469  20.825 -0.0186  0.0189  0.0134
80958W        W23875  16.099   0.311  20.800  0.0725  0.0487  0.1763
80959W        W23876  17.549  29.363  20.045  0.3778  0.2303  0.0719
80960W        W23877  16.030  33.472  20.232  0.2491 -0.0353  0.2381
80961W        W23878  15.682  32.510  20.989  0.0540  0.2561  0.0179
80962W        W23879  16.317  30.698  20.033 -0.1868  0.1457  0.0944
80963W        W23880  14.815  32.790  20.619  0.1723 -0.0146 -0.4019
80964W        W23881  14.239  32.588  18.998  0.0350  0.0386 -0.1214
80965W        W23882  18.104  30.604  20.866 -0.1945 -0.2771 -0.2480
80966W        W23883  14.256  32.957  20.345  0.4715  0.1663 -0.0349
80967W        W23884  18.135  30.360  23.226 -0.0080 -0.4756 -0.2584
80968W        W23885  15.650  28.006  20.567 -0.2688 -0.1575 -0.2370
80969W        W23886  16.249  30.340  23.375  0.1463  0.1028 -0.3188
80970W        W23887  17.994  29.031  19.397  0.1947 -0.2040 -0.1527
80971W        W23888  16.502  31.245  23.617  0.0179 -0.2312  0.0806
80972W        W23889  16.572  31.583  20.755 -0.0877 -0.0288  0.3867
80973W        W23890  15.190  29.469  21.010  0.1027  0.1979  0.1919
80974W        W23891  14.968  30.235  22.691  0.0961  0.0723  0.0349
80975W        W23892  18.760  30.286  24.325  0.0233 -0.0393 -0.0762
80976W        W23893  13.534  33.950  21.680 -0.0180 -0.0765  0.0508
80977W        W23894  17.799  32.475  20.541  0.1141  0.1299 -0.1633
80978W        W23895  14.544  29.349  21.465 -0.3188  0.2129 -0.1781
80979W        W23896  15.507  31.235  25.007 -0.1937  0.4718  0.0605
80980W        W23897  17.499  31.121  20.989  0.0380  0.2942 -0.3640
80981W        W23898  18.704  33.007  18.735  0.0500 -0.3287 -0.3067
80982W        W23899  16.618  29.664  22.825 -0.1044  0.0073  0.3050
80983W        W23900  16.744  33.087  19.123  0.2038  0.0615 -0.2487
80984W        W23901  15.322  32.771  21.240 -0.1851 -0.0115 -0.1565
80985W        W23902  14.741  32.732  23.210 -0.1734 -0.1162  0.2219
80986W        W23903  15.341  27.919  20.188  0.0639  0.1402 -0.2966
80987W        W23904  17.988  31.247  21.282  0.3240 -0.0661 -0.2244
80988W        W23905  16.061  30.350  24.732  0.2150  0.0339  0.1837
80989W        W23906  21.402  28.165  23.076 -0.4542  0.4174  0.2151
80990W        W23907  15.322  31.459  20.136 -0.0542  0.0591  0.0462
80991W        W23908  16.759  31.176  20.499  0.2582 -0.2331  0.0798
80992W        W23909  15.556  32.371  20.362  0.0231 -0.0146  0.1054
80993W        W23910  13.533  29.740  21.883  0.1687  0.1238 -0.0671
80994W        W23911  16.091  32.225  21.778  0.0367  0.1614 -0.0350
80995W        W23912  16.408  31.364  24.639 -0.0046 -0.0053  0.1288
80996W        W23913  13.741  30.081  18.772 -0.1270  0.0820 -0.2120
80997W        W23914  16.120  31.545  24.283 -0.6155  0.0074 -0.1306
80998W        W23915  15.478  29.209  21.867  0.4674  0.0842 -0.1006
80999W        W23916  17.139  31.029  19.277  0.1007 -0.1062 -0.1118
81000W        W23917  13.817  29.410  21.652  0.1123 -0.1390 -0.1980
81001W        W23918  16.764  30.680  20.406 -0.3204 -0.2040 -0.2328
81002W        W23919  18.337  32.319  23.486  0.2829 -0.2009 -0.1225
81003W        W23920  12.746  28.912  20.462  0.1394 -0.3879 -0.0059
81004W        W23921  18.550  30.986  19.549 -0.2947 -0.0368  0.1137
81005W        W23922  17.289  29.683  22.666  0.0653  0.0238 -0.2023
81006W        W23923  16.357  32.924  19.388  0.0184  0.1050  0.1708
81007W        W23924  16.587  31.317  22.397 -0.1392  0.3884  0.0855
81008W        W23925  18.715  33.699  21.917 -0.0822 -0.0259  0.0824
81009W        W23926  14.523  30.257  22.008  0.1268 -0.1346  0.1430
81010W        W23927  16.836  33.498  21.852  0.1681 -0.1143  0.1834
81011W        W23928  18.304  32.044  22.988 -0.2332  0.0592 -0.1904
81012W        W23929  17.124  30.825  19.853 -0.0155  0.0067  0.0043
81013W        W23930  14.689  29.352  22.486  0.1701  0.0468  0.1842
81014W        W23931  14.721  32.688  18.666  0.0521 -0.0936 -0.1159
81015W        W23932  17.319  30.252  21.201 -0.0477 -0.3663 -0.0329
81016W        W23933  16.664  29.832  23.312 -0.0086 -0.2177 -0.3857
81017W        W23934  15.042  33.354  19.775  0.2765  0.2715 -0.2868
81018W        W23935  18.695  28.033  23.516  0.0486 -0.1955  0.0386
81019W        W23936  14.340  32.391  22.161  0.0400  0.1947  0.0671
81020W        W23937  13.350  33.153  25.310  0.2438 -0.0925  0.0148
81021W        W23938  12.830  31.957  21.135 -0.1171 -0.1461  0.0660
81022W        W23939  14.885  31.228  23.056 -0.1989  0.0873  0.0347
81023W        W23940  15.330  30.866  20.390 -0.2198  0.1095 -0.0669
81024W        W23941  15.774  30.867  20.950 -0.0203  0.2167 -0.3687
81025W        W23942  16.208  32.144  23.107  0.0125  0.2878 -0.1321
81026W        W23943  17.059  31.228  23.054  0.5018 -0.1731 -0.2506
81027W        W23944  19.181  30.009  22.314 -0.1504  0.2047 -0.0914
81028W        W23945  16.192  29.884  23.066 -0.1695 -0.0720  0.0902
81029W        W23946  17.728  31.853  21.832  0.1230  0.0821  0.0474
81030W        W23947  16.317  30.930  22.177 -0.0579  0.3046 -0.2877
81031W        W23948  15.589  31.257  25.560 -0.1957  0.0825 -0.1194
81032W        W23949  11.746  30.616  20.326  0.0843  0.0589 -0.2311
81033W        W23950  15.038  31.716  19.136  0.1309  0.2927 -0.2051
81034W        W23951  15.010  30.679  21.686 -0.0289  0.1106  0.3673
81035W        W23952  14.850  27.769  23.471  0.0229  0.4280 -0.0273
81036W        W23953  14.365  30.908  24.833  0.0031  0.1082 -0.1998
81037W        W23954  16.028  31.152  23.438 -0.2043 -0.3358 -0.1704
81038W        W23955  13.979  28.172  19.832  0.1553  0.2257  0.0033
81039W        W23956  15.786  31.700  19.546 -0.1392 -0.0269  0.3066
81040W        W23957  14.373  31.881  22.138 -0.0395 -0.0351 -0.0535
81041W        W23958  14.148  30.136  21.304 -0.1759 -0.1126 -0.0867
81042W        W23959  16.811  33.158  20.756 -0.0438  0.0780  0.1165
81043W        W23960  16.288  32.302  22.581  0.2297 -0.2591  0.0705
81044W        W23961  15.742  30.193  21.356 -0.0643 -0.0407  0.3934
81045W        W23962  18.507  34.338  22.988  0.2116 -0.0095  0.1638
81046W        W23963  13.579  29.474  18.544 -0.1427  0.0225 -0.0442
81047W        W23964  16.142  30.840  24.542  0.1010  0.0055 -0.1569
81048W        W23965  14.571  31.178  23.858 -0.1237  0.1894  0.0992
81049W        W23966  13.545  30.484  20.996  0.0760 -0.1123  0.0884
81050W        W23967  16.015  29.384  23.102  0.0847 -0.1973 -0.3627
81051W        W23968  16.972  31.390  21.577  0.2682 -0.1047  0.0631
81052W        W23969  16.401  32.450  18.110 -0.0674  0.1469 -0.3454
81053W        W23970  16.966  30.431  22.587 -0.3101  0.1185  0.0396
81054W        W23971  16.961  32.692  22.083  0.2382  0.2976  0.0074
81055W        W23972  13.654  29.626  21.028 -0.0891 -0.2598  0.1632
81056W        W23973  15.572  31.770  20.435  0.0136  0.1944  0.1724
81057W        W23974  18.334  33.315  21.748  0.0346 -0.3632 -0.0401
81058W        W23975  18.132  32.028  22.166  0.0149  0.0622 -0.0175
81059W        W23976  18.442  28.859  22.679 -0.0238  0.0221  0.1051
81060W        W23977  15.978  32.609  20.563  0.1715  0.0892  0.0802
81061W        W23978  13.813  30.856  24.488 -0.3473  0.0897  0.2687
81062W        W23979  14.317  33.351  25.113  0.1572 -0.3189  0.3299
81063W        W23980  17.055  29.529  22.067 -0.2389  0.0051 -0.4666
81064W        W23981  14.546  30.859  21.950  0.0066 -0.0899 -0.1631
81065W        W23982  16.766  30.596  19.532 -0.2917 -0.0827 -0.1930
81066W        W23983  16.916  30.005  20.754  0.0962  0.1485 -0.0280
81067W        W23984  15.068  31.924  20.078  0.1326 -0.2162 -0.1292
81068W        W23985  15.731  32.675  21.541 -0.3180  0.1974 -0.0964
81069W        W23986  16.591  29.098  25.311 -0.1876  0.0944  0.1451
81070W        W23987  16.867  32.116  21.773  0.1017  0.0770 -0.0777
81071W        W23988  17.169  30.058  23.460 -0.0015  0.1061  0.0262
81072W        W23989  15.747  30.777  21.454  0.2469  0.0315  0.0037
81073W        W23990  15.981  31.539  21.564  0.0061 -0.0070  0.0313
81074W        W23991  16.357  31.639  23.292 -0.0068 -0.1494  0.1159
81075W        W23992  15.648  32.850  24.755 -0.1775 -0.0401 -0.1275
81076W        W23993  16.766  30.392  23.409  0.1732  0.1935  0.0267
81077W        W23994  16.980  29.069  23.758 -0.0690  0.0348 -0.0694
81078W        W23995  16.033  30.430  22.458  0.0423 -0.3269  0.0003
81079W        W23996  16.328  30.712  19.438  0.1531 -0.0663 -0.1745
81080W        W23997  15.625  31.809  21.334 -0.1180  0.5899 -0.0906
81081W        W23998  16.990  30.398  21.595  0.2954 -0.0158 -0.0765
81082W        W23999  15.876  30.735  23.188  0.2182  0.1506 -0.1089
81083W        W24000  17.513  27.752  20.429 -0.0286 -0.1659 -0.3071
81084W        W24001  15.320  31.109  22.554  0.0347  0.0945 -0.2232
81085W        W24002  15.947  31.881  22.461 -0.3459  0.0811 -0.1440
81086W        W24003  16.836  33.321  26.943 -0.1730  0.0802 -0.2778
81087W        W24004  16.765  27.991  24.782  0.1790 -0.1900 -0.0244
81088W        W24005  20.283  28.787  24.421  0.1115  0.1327  0.2690
81089W        W24006  16.941  30.265  24.485 -0.0041  0.2810  0.2988
81090W        W24007  14.622  30.305  25.617 -0.1343  0.0425  0.2377
81091W        W24008  17.636  30.509  25.394  0.2339  0.0724  0.0766
81092W        W24009  14.597  27.452  27.115 -0.4250 -0.5030 -0.1795
81093W        W24010  17.824  30.582  26.551  0.2903  0.0339 -0.3162
81094W        W24011  17.868  32.080  25.071  0.2888 -0.2421 -0.0372
81095W        W24012  15.504  29.479  23.815  0.0936  0.1180  0.2470
81096W        W24013  17.316  30.172  25.580 -0.1225  0.0044 -0.0767
81097W        W24014  16.597  33.348  27.476 -0.3149  0.4009  0.0477
81098W        W24015  16.133  27.796  23.939  0.1304 -0.0577  0.0966
81099W        W24016  15.336  29.846  25.240 -0.4782  0.1746 -0.1004
81100W        W24017  18.260  29.666  28.290 -0.0630  0.0676 -0.3691
81101W        W24018  15.322  31.040  24.522  0.1612 -0.4413  0.4567
81102W        W24019  13.319  29.865  25.635 -0.0939 -0.2494  0.4387
81103W        W24020  16.122  28.683  25.358  0.2069  0.6215  0.0130
81104W        W24021  16.025  31.326  25.093 -0.2908  0.1122  0.1991
81105W        W24022  14.478  29.091  26.952 -0.1488  0.0473 -0.3510
81106W        W24023  18.260  28.762  27.678  0.3862  0.0617  0.1080
81107W        W24024  14.575  32.146  25.989 -0.1970  0.1545 -0.2549
81108W        W24025  15.230  30.507  24.535  0.2812 -0.0317  0.1585
81109W        W24026  13.742  29.717  25.382 -0.0316  0.2314 -0.1410
81110W        W24027  15.232  30.296  26.841 -0.0560 -0.2490 -0.0483
81111W        W24028  17.408  31.952  26.995 -0.1977  0.2028 -0.2336
81112W        W24029  18.544  30.853  24.411  0.1283  0.1334 -0.0835
81113W        W24030  16.120  32.543  25.844 -0.0266  0.1313 -0.1783
81114W        W24031  17.711  32.690  24.115  0.1723 -0.1000  0.2928
81115W        W24032  17.906  29.373  27.116  0.0656  0.1016  0.0010
81116W        W24033  13.559  30.362  24.159 -0.3379  0.0384 -0.1715
81117W        W24034  14.164  31.487  25.311 -0.2069  0.0039  0.1500
81118W        W24035  14.987  32.042  25.445 -0.1012  0.0749  0.0846
81119W        W24036  17.439  32.864  22.856 -0.2389  0.1775 -0.3328
81120W        W24037  17.883  31.741  26.054 -0.0240  0.1169  0.1920
81121W        W24038  17.314  32.366  28.532  0.0399  0.0168 -0.1131
81122W        W24039  16.634  32.128  23.476 -0.1204  0.1168  0.0807
81123W        W24040  17.221  32.524  29.007 -0.1025 -0.0825  0.0545
81124W        W24041  14.014  31.914  24.411  0.0562  0.2299 -0.1690
81125W        W24042  16.053  30.453  25.722 -0.0577 -0.0163  0.4832
81126W        W24043  15.102  29.653  24.019 -0.0866  0.3008 -0.0200
81127W        W24044  15.033  31.274  26.513 -0.1106  0.0045  0.0227
81128W        W24045  17.098  31.320  27.495 -0.3173 -0.2146 -0.0348
81129W        W24046  15.072  32.694  29.094 -0.0064  0.2653  0.0323
81130W        W24047  15.099  31.681  27.016  0.0713  0.1010  0.0049
81131W        W24048  19.202  29.693  27.105  0.0359  0.2701 -0.1141
81132W        W24049  12.499  33.341  23.917  0.0060 -0.2352 -0.2441
81133W        W24050  16.973  31.297  23.739 -0.1496 -0.0045  0.2324
81134W        W24051  14.934  28.620  23.407  0.2228  0.2004 -0.2296
81135W        W24052  19.386  31.485  24.040 -0.0098  0.2166  0.1376
81136W        W24053  18.048  28.791  25.381 -0.0415 -0.2627 -0.0026
81137W        W24054  15.356  32.635  25.191  0.4609 -0.3816 -0.1410
81138W        W24055  17.397  29.323  24.686  0.3075  0.2433  0.0792
81139W        W24056  17.516  31.571  28.491  0.1106  0.0457  0.1397
81140W        W24057  16.930  31.858  25.687  0.4576 -0.2229  0.2262
81141W        W24058  15.955  31.687  25.987  0.1912 -0.2209  0.2390
81142W        W24059  17.144  33.761  26.523  0.4482 -0.0039  0.0731
81143W        W24060  14.581  31.799  24.366  0.0232 -0.1662 -0.0394
81144W        W24061  17.845  32.258  23.251 -0.0522 -0.0617 -0.1630
81145W        W24062  18.826  33.214  26.900 -0.1329 -0.0780  0.4176
81146W        W24063  16.773  31.797  24.414  0.0489  0.2387  0.0816
81147W        W24064  14.448  30.706  24.375 -0.4235 -0.0055 -0.0911
81148W        W24065  15.890  29.368  26.106  0.3314  0.2351  0.0952
81149W        W24066  14.284  31.802  27.663  0.3609 -0.0310  0.0307
81150W        W24067  14.136  29.862  24.554  0.1476  0.0197 -0.3539
81151W        W24068  18.843  34.612  26.803 -0.0450  0.0564  0.2746
81152W        W24069  12.556  33.311  27.406  0.1397 -0.1166  0.0437
81153W        W24070  18.746  31.624  24.750 -0.1757 -0.1674  0.1384
81154W        W24071  15.444  29.561  25.976 -0.0619  0.1448 -0.0850
81155W        W24072  16.820  31.083  26.310 -0.1562 -0.0053  0.0050
81156W        W24073  15.704  32.291  26.050 -0.1087 -0.3668  0.2121
81157W        W24074  16.907  30.260  25.053 -0.0922  0.1422 -0.0888
81158W        W24075  17.223  28.180  24.817  0.2290 -0.0805 -0.3198
81159W        W24076  14.766  32.214  23.027  0.2822 -0.1691  0.2462
81160W        W24077  15.573  30.877  23.618  0.3478 -0.1418  0.0723
81161W        W24078  17.489  31.569  24.949 -0.3363 -0.0295  0.0822
81162W        W24079  17.035  31.337  24.266 -0.0904 -0.0377 -0.4268
81163W        W24080  14.798  33.269  25.274  0.0012 -0.0517  0.0305
81164W        W24081  15.631  30.541  26.513 -0.0222 -0.2588  0.0535
81165W        W24082  17.921  33.650  24.762 -0.1316 -0.2708  0.1882
81166W        W24083  16.232  31.714  22.056 -0.1987  0.3722  0.1891
81167W        W24084  14.861  29.677  25.272 -0.4116 -0.1479  0.1090
81168W        W24085  15.282  32.285  22.809 -0.2870  0.2465 -0.1784
81169W        W24086  14.559  27.958  25.074  0.1049 -0.1155  0.0792
81170W        W24087  14.485  31.416  24.899 -0.0720 -0.0394  0.1427
81171W        W24088  18.798  31.304  24.220  0.2710  0.0670 -0.0620
81172W        W24089  15.136  28.296  27.140  0.2077  0.1420 -0.0026
81173W        W24090  17.658  29.083  25.677 -0.3183  0.1546  0.0182
81174W        W24091  15.859  31.146  23.956 -0.0515 -0.0655  0.0573
81175W        W24092  17.456  32.381  24.441 -0.1448 -0.3543 -0.0651
81176W        W24093  17.824  29.014  24.835 -0.0427  0.2050  0.0377
81177W        W24094  15.803  32.266  22.209  0.1153  0.3302  0.2603
81178W        W24095  14.509  30.527  27.901 -0.1307 -0.2986 -0.0686
81179W        W24096  13.279  31.343  23.848  0.0550  0.0017 -0.1557
81180W        W24097  14.282  30.015  27.658 -0.0984 -0.1558  0.0073
81181W        W24098  14.679  29.483  24.594 -0.2565  0.0655 -0.0933
81182W        W24099  19.057  31.036  27.183  0.0663 -0.0574  0.1269
81183W        W24100  14.931  30.295  24.834 -0.2393 -0.2842 -0.0605
81184W        W24101  15.268  30.963  25.990 -0.0862 -0.0983  0.2156
81185W        W24102  15.499  30.234  24.864 -0.0102 -0.1323 -0.1365
81186W        W24103  14.973  32.211  24.489 -0.2055  0.1103  0.1859
81187W        W24104  19.212  29.383  27.595 -0.0136  0.1360 -0.0790
81188W        W24105  17.371  32.781  23.693  0.2350 -0.2080  0.1519
81189W        W24106  17.352  31.770  25.919  0.0426 -0.0057  0.2128
81190W        W24107  15.372  34.077  25.161 -0.0192  0.0367 -0.0561
81191W        W24108  16.060  28.863  27.555  0.0804  0.0673 -0.0122
81192W        W24109  15.288  30.603  22.605  0.1246 -0.0979 -0.2538
81193W        W24110  13.390  32.059  26.623 -0.0456  0.1032 -0.2409
81194W        W24111  16.896  31.494  26.043  0.2499 -0.0705 -0.0812
81195W        W24112  16.306  27.782  25.480  0.3626 -0.2338  0.1590
81196W        W24113  18.130  31.639  26.774 -0.1693  0.0672  0.2384
81197W        W24114  16.399  31.126  24.093 -0.3201 -0.0534 -0.1509
81198W        W24115  12.240  31.954  26.855 -0.4291 -0.1006  0.0555
81199W        W24116  17.764  29.548  25.458 -0.2390 -0.1351 -0.3116
81200W        W24117  18.428  31.220  26.728  0.2284  0.0912 -0.2091
81201W        W24118  17.277  30.100  26.067  0.1653 -0.2776 -0.0831
81202W        W24119  14.536  31.287  24.373  0.0184 -0.0189 -0.0011
81203W        W24120  17.775  31.371  25.670 -0.2155  0.0238 -0.0397
81204W        W24121  14.539  30.956  26.646 -0.0371 -0.0315 -0.0065
81205W        W24122  16.362  30.065  25.829  0.2131 -0.0269 -0.0371
81206W        W24123  16.037  32.361  25.062  0.2879  0.0569 -0.5801
81207W        W24124  16.133  29.664  25.118 -0.1635  0.1368 -0.0077
81208W        W24125  14.363  28.606  28.189 -0.0179 -0.2340 -0.0985
81209W        W24126  17.119  30.095  26.491  0.1271 -0.1336  0.2261
81210W        W24127  12.448  32.009  24.698 -0.2071  0.0367 -0.1991
81211W        W24128  15.195  32.348  27.366 -0.1793 -0.0443 -0.3777
81212W        W24129  17.001  27.980  24.353 -0.1542  0.3936 -0.1562
81213W        W24130  16.372  28.859  23.860 -0.0126  0.1070 -0.1760
81214W        W24131  15.209  31.147  26.983  0.3523 -0.1961 -0.0695
81215W        W24132  16.663  32.604  21.683  0.0659  0.2297  0.3008
81216W        W24133  15.528  28.087  22.598  0.0390 -0.4136 -0.4468
81217W        W24134  16.838  31.604  23.365  0.3127  0.0272  0.0729
81218W        W24135  15.502  31.815  26.211 -0.1393 -0.1224 -0.0539
81219W        W24136  16.288  32.875  24.367 -0.0801 -0.1683  0.0919
81220W        W24137  15.604  31.580  27.722 -0.0116 -0.0432  0.1142
81221W        W24138  15.596  31.542  24.339  0.0745 -0.0787 -0.0911
81222W        W24139  19.467  34.193  24.468 -0.0511 -0.2301 -0.1304
81223W        W24140  13.830  31.355  26.941 -0.0447 -0.0430  0.0710
81224W        W24141  18.562  31.883  26.040  0.0846 -0.1627 -0.1986
81225W        W24142  18.492  31.595  25.340 -0.3711  0.1448 -0.0905
81226W        W24143  14.747  29.600  23.663  0.0076  0.3315 -0.0073
81227W        W24144  16.821  30.881  23.963 -0.1046  0.2696  0.0215
81228W        W24145  16.686  29.863  24.759  0.2412  0.1935  0.0234
81229W        W24146  14.214  32.825  25.133  0.2357  0.0244  0.2999
81230W        W24147  16.859  31.980  26.216 -0.2470  0.0517  0.2253
81231W        W24148  16.706  30.573  27.153  0.0934  0.0864  0.6525
81232W        W24149  18.530  30.530  25.595  0.2044  0.0385 -0.0639
81233W        W24150  18.962  30.637  27.469  0.0219  0.0679 -0.0153
81234W        W24151  17.137  30.571  25.357  0.0915  0.3484  0.0192
81235W        W24152  16.462  30.008  26.491 -0.1930  0.0260  0.0342
81236W        W24153  14.486  32.395  21.662  0.0128  0.0506 -0.4691
81237W        W24154  17.651  29.383  28.879 -0.0447  0.1929  0.0225
81238W        W24155  14.866  32.301  26.384  0.0930  0.0359  0.0965
81239W        W24156  15.206  33.744  26.128 -0.0561  0.2216 -0.0487
81240W        W24157  17.412  31.532  27.952 -0.0580 -0.1323 -0.3634
81241W        W24158  16.856  32.011  25.138 -0.1099  0.0809 -0.1053
81242W        W24159  19.604  29.004  27.778 -0.0799  0.3592  0.0976
81243W        W24160  18.194  30.630  23.847 -0.0265  0.0047 -0.5329
81244W        W24161  15.557  33.087  25.410 -0.0624 -0.1352 -0.0422
81245W        W24162  18.278  32.722  23.973  0.0587  0.1198 -0.0080
81246W        W24163  15.369  28.679  26.721 -0.0746 -0.1579 -0.0537
81247W        W24164  16.075  32.270  26.963 -0.0588 -0.1653 -0.0456
81248W        W24165  15.505  33.364  24.248 -0.1221 -0.2073 -0.2581
81249W        W24166  18.417  31.219  28.031  0.1986  0.1041  0.1797
81250W        W24167  14.670  32.088  23.982 -0.2077  0.0399 -0.0021
81251W        W24168  16.121  31.573  25.517  0.0063 -0.1163 -0.0880
81252W        W24169  14.069  32.841  25.902  0.1321 -0.3833  0.1635
81253W        W24170  15.702  29.381  25.114  0.0904  0.1610  0.1828
81254W        W24171  14.568  31.421  26.247 -0.4332 -0.2811  0.0550
81255W        W24172  18.544  30.309  27.173  0.2013 -0.1346 -0.0555
81256W        W24173  18.118  32.743  24.540  0.2104 -0.1304  0.2146
81257W        W24174  14.329  30.393  24.811  0.0050 -0.1940 -0.0116
81258W        W24175  15.327  28.642  28.597 -0.1453 -0.5244 -0.1956
81259W        W24176  15.083  32.063  25.990 -0.0954  0.3516 -0.2565
81260W        W24177  16.512  32.528  26.160  0.1150 -0.0042 -0.0025
81261W        W24178  17.905  29.981  24.660  0.0938  0.2125 -0.1087
81262W        W24179  19.244  32.849  26.465  0.1385 -0.2797  0.0281
81263W        W24180  15.956  31.984  26.483  0.0405 -0.0467 -0.1822
81264W        W24181  14.421  31.761  23.613  0.2059 -0.3160 -0.0568
81265W        W24182  18.240  30.273  26.307  0.0311  0.2925  0.0446
81266W        W24183  16.076  29.795  24.171  0.1881 -0.4560  0.4229
81267W        W24184  17.324  29.265  24.036 -0.3692 -0.1051 -0.2342
81268W        W24185  15.660  31.278  26.078 -0.0190  0.1790  0.4560
81269W        W24186  14.916  30.854  24.188 -0.1991  0.2528 -0.1169
81270W        W24187  15.488  32.127  27.779  0.2405  0.0463  0.0212
81271W        W24188  15.526  30.639  28.541  0.3072  0.0650  0.2651
81272W        W24189  16.610  31.914  27.927 -0.0556  0.1881  0.3513
81273W        W24190  15.617  29.995  26.822 -0.2409  0.4054  0.0647
81274W        W24191  14.033  29.829  26.428 -0.0038 -0.1586 -0.1280
81275W        W24192  18.855  30.078  26.240 -0.1819  0.2240 -0.1127
81276W        W24193  16.630  31.546  26.567 -0.0836 -0.2112  0.0137
81277W        W24194  15.819  30.252  24.162  0.4857 -0.0304  0.2515
81278W        W24195  15.397  32.780  27.010 -0.2254 -0.0831  0.0230
81279W        W24196  16.675  27.125  25.008  0.1358 -0.2299  0.0688
81280W        W24197  17.867  32.395  25.616 -0.0236  0.1483  0.2130
81281W        W24198  18.036  31.711  27.269 -0.1806 -0.1024  0.1802
81282W        W24199  17.821  33.126  24.959  0.1464  0.1820  0.0366
81283W        W24200  14.607  29.003  28.021 -0.1297 -0.2576 -0.0761
81284W        W24201  16.499  31.600  25.059 -0.0168 -0.1274  0.0521
81285W        W24202  18.516  29.169  26.402 -0.4496 -0.2006  0.1220
81286W        W24203  15.594  30.056  26.351 -0.2465  0.0207 -0.0981
81287W        W24204  16.868  31.452  25.344 -0.0285  0.0408  0.0802
81288W        W24205  14.851  33.656  26.889 -0.0532  0.1544  0.0958
81289W        W24206  18.167  29.529  24.456 -0.1398  0.1706 -0.0153
81290W        W24207  17.049  33.433  23.123  0.1200 -0.0492 -0.0106
81291W        W24208  16.255  30.832  27.196  0.1239  0.0610  0.0388
81292W        W24209  19.062  29.118  28.022  0.2957 -0.0396 -0.1656
81293W        W24210  16.721  31.534  22.872 -0.0135  0.2855  0.2821
81294W        W24211  18.589  30.949  27.107 -0.3069 -0.0705 -0.1025
81295W        W24212  14.864  28.590  28.348  0.0832  0.0266  0.0035
81296W        W24213  16.772  30.084  23.774 -0.0189  0.1289  0.0455
81297W        W24214  14.544  29.584  26.892  0.0983 -0.4202  0.0999
81298W        W24215  18.190  32.467  27.232  0.2205 -0.1699 -0.0006
81299W        W24216  15.206  33.145  27.326  0.0436 -0.2760  0.2973
81300W        W24217  15.523  30.525  25.577 -0.0252  0.0690  0.0213
81301W        W24218  13.863  31.756  25.684  0.1234  0.1506  0.0222
81302W        W24219  16.514  30.765  25.765  0.3198  0.2432  0.0765
81303W        W24220  18.783  30.070  25.623 -0.1258 -0.1421  0.1280
81304W        W24221  16.093  32.853  25.108  0.0268 -0.0985  0.1124
81305W        W24222  19.554  29.581  26.746 -0.3743 -0.2536 -0.1825
81306W        W24223  15.998  31.786  26.961  0.1554 -0.3028 -0.0634
81307W        W24224  16.755  30.974  24.471  0.1864 -0.2352  0.0418
81308W        W24225  17.911  31.557  22.228  0.1241 -0.2055  0.0825
81309W        W24226  15.893  29.871  25.945  0.0508 -0.0654 -0.0476
81310W        W24227  17.661  29.861  27.079  0.2111  0.1487 -0.0791
81311W        W24228  15.501  32.144  25.243  0.0741 -0.0483 -0.2260
81312W        W24229  16.144  29.784  23.588  0.3263  0.0549 -0.3457
81313W        W24230  18.030  29.984  26.642 -0.0926  0.2898 -0.1431
81314W        W24231  18.109  30.921  26.937 -0.3564 -0.1713  0.1296
81315W        W24232  16.000  29.805  26.450 -0.0155  0.0320 -0.1384
81316W        W24233  14.640  29.804  26.446  0.2359 -0.1813 -0.0769
81317W        W24234  17.295  33.006  26.336 -0.2170  0.0679  0.2006
81318W        W24235  17.113  30.378  23.991 -0.2728 -0.1304 -0.1030
81319W        W24236  17.584  29.212  26.200  0.1687  0.2967 -0.3360
81320W        W24237  17.940  31.437  24.172  0.1582  0.0893 -0.1321
81321W        W24238  16.422  30.729  23.685 -0.1214  0.1171 -0.0166
81322W        W24239  11.849  31.128  27.058 -0.0632 -0.2855  0.0145
81323W        W24240  19.542  28.998  26.632  0.4972 -0.1314 -0.0718
81324W        W24241  14.538  28.848  24.847 -0.2201  0.2779  0.0512
81325W        W24242  18.035  31.712  28.187 -0.1322  0.3992  0.1912
81326W        W24243  16.385  32.595  23.784 -0.2075  0.1653  0.3357
81327W        W24244  18.041  32.550  25.039 -0.1502 -0.1524 -0.0361
81328W        W24245  17.726  31.002  25.215 -0.2465 -0.2642  0.1002
81329W        W24246  14.275  30.981  25.331  0.1026 -0.1567 -0.1816
81330W        W24247  15.975  33.981  25.696 -0.3070 -0.2417 -0.0815
81331W        W24248  14.783  29.969  23.293 -0.0431  0.4655  0.0206
81332W        W24249  16.488  30.719  23.154  0.0661 -0.0060 -0.1880
81333W        W24250  16.752  32.194  29.380 -0.4821 -0.1511  0.1125
81334W        W24251  16.891  31.086  25.785  0.1535  0.1848  0.0426
81335W        W24252  17.869  28.527  23.463 -0.1389 -0.2021  0.2325
81336W        W24253  18.909  29.747  27.566  0.2837 -0.2726  0.2049
81337W        W24254  16.019  32.447  26.422 -0.1156  0.0704  0.0133
81338W        W24255  17.041  27.909  26.468  0.2347  0.2033 -0.0599
81339W        W24256  14.517  33.330  26.010  0.1803  0.1297  0.2322
81340W        W24257  15.963  30.800  26.154  0.1314 -0.0879 -0.1079
81341W        W24258  16.305  33.573  25.737 -0.0020  0.0717  0.0223
81342W        W24259  14.988  29.562  26.147  0.0091 -0.2495  0.2657
81343W        W24260  16.381  30.450  26.712 -0.2227 -0.0081 -0.2762
81344W        W24261  15.591  31.464  27.213 -0.0281  0.0101 -0.0997
81345W        W24262  18.652  28.474  27.748 -0.0767 -0.3246 -0.1393
81346W        W24263  18.061  32.693  28.465  0.0478  0.2311  0.0979
81347W        W24264  16.182  29.606  25.600  0.0989  0.0334 -0.0405
81348W        W24265  17.734  31.937  25.609 -0.0968  0.0179  0.1693
81349W        W24266  17.887  31.292  23.194  0.1253  0.1400 -0.0345
81350W        W24267  17.599  33.565  25.633 -0.0816  0.2712  0.2363
81351W        W24268  14.140  30.458  27.494  0.0429 -0.5330  0.0617
81352W        W24269  17.491  29.936  27.834 -0.2144 -0.0667  0.0162
81353W        W24270  15.268  30.732  25.025  0.0585  0.2213  0.3195
81354W        W24271  17.854  29.082  27.606 -0.0611 -0.1404 -0.0502
81355W        W24272  15.344  32.962  23.952  0.1164  0.1602 -0.1532
81356W        W24273  12.514  32.797  27.552 -0.2909 -0.0507  0.1268
81357W        W24274  16.546  31.672  27.044 -0.1505 -0.1483 -0.0409
81358W        W24275  15.560  32.519  23.714  0.5038 -0.0142 -0.0401
81359W        W24276  16.142  33.406  23.629 -0.0891 -0.0183  0.2471
81360W        W24277  16.150  32.563  27.418  0.0743  0.0663  0.0712
81361W        W24278  16.443  31.960  25.509  0.1703  0.1146 -0.1234
81362W        W24279  16.576  29.605  25.268  0.1240 -0.0221 -0.2734
81363W        W24280  14.492  32.579  26.704 -0.2411 -0.1960  0.3818
81364W        W24281  15.043  30.881  23.516  0.0612 -0.0051  0.0834
81365W        W24282  17.770  32.802  23.262  0.1475  0.0938  0.0555
81366W        W24283  17.546  32.537  27.247  0.3894 -0.0821  0.0824
81367W        W24284  18.183  31.905  26.391 -0.1474  0.0660  0.0286
81368W        W24285  18.640  29.149  23.495  0.0344 -0.0763  0.0041
81369W        W24286  16.595  31.606  23.910 -0.0784  0.1996  0.0198
81370W        W24287  19.036  30.782  24.445  0.1038 -0.0195  0.0227
81371W        W24288  18.002   0.130  25.692 -0.2241  0.1976 -0.0219
81372W        W24289  16.122  29.200  25.255 -0.0651  0.1005  0.1272
81373W        W24290  15.990  31.970  24.525 -0.0099 -0.0277  0.0832
81374W        W24291  16.098  33.568  27.608  0.3705 -0.1113  0.1456
81375W        W24292  17.983  29.495  26.384  0.1820  0.4318 -0.1322
81376W        W24293  14.410  33.344  27.946 -0.1189 -0.1577 -0.1131
81377W        W24294  19.652  31.643  24.465 -0.0840  0.1558 -0.0300
81378W        W24295  14.272  30.492  23.325 -0.0700 -0.1682 -0.0769
81379W        W24296  17.107  32.641  27.510  0.1375  0.0172  0.3357
81380W        W24297  19.637  29.996  26.358  0.3081  0.0558 -0.1807
81381W        W24298  15.432  31.387  23.458 -0.0771 -0.0242  0.4745
81382W        W24299  18.468  28.600  25.635 -0.0769 -0.0937  0.0300
81383W        W24300  13.508  33.271  23.938 -0.4400  0.3314  0.0442
81384W        W24301  14.950  31.901  23.574  0.0230 -0.2077  0.1114
81385W        W24302  17.341  33.976  25.533  0.1067  0.2794 -0.5370
81386W        W24303  12.580  30.076  23.470  0.0083  0.0388 -0.1612
81387W        W24304  17.946  30.671  22.483  0.0718  0.0066  0.1433
81388W        W24305  15.435  30.131  27.750 -0.2087 -0.1389 -0.1442
81389W        W24306  16.813  29.878  26.033 -0.1129  0.2442 -0.1739
81390W        W24307  16.229  29.827  24.656 -0.0838 -0.0390 -0.3965
81391W        W24308  16.588  28.645  25.479  0.1072 -0.0705 -0.0149
81392W        W24309  15.927  34.338  28.291 -0.3598  0.1565  0.2808
81393W        W24310  15.072  29.393  27.350  0.1102  0.1199 -0.0499
81394W        W24311  15.303  32.048  22.356 -0.2471 -0.3091  0.2465
81395W        W24312  16.973  27.514  26.190 -0.0198  0.3312 -0.1879
81396W        W24313  17.074  30.688  23.071  0.5829  0.0546  0.2466
81397W        W24314  18.300  33.132  26.840  0.1099 -0.2617 -0.0740
81398W        W24315  15.177  29.122  26.384 -0.0440  0.0389  0.0390
81399W        W24316  16.302  30.942  24.990 -0.0105 -0.0155 -0.0099
81400W        W24317  15.724  30.676  24.435 -0.1601  0.0383  0.1384
81401W        W24318  17.618  29.755  26.589  0.0191  0.1750 -0.2365
81402W        W24319  17.711  32.717  27.679 -0.2058 -0.3555 -0.0990
81403W        W24320  14.556  30.951  23.380 -0.0078  0.0708  0.0878
81404W        W24321  15.973  32.484  24.546  0.1238  0.1275  0.1455
81405W        W24322  19.399  32.158  25.542 -0.1412 -0.0372 -0.3224
81406W        W24323  15.774  32.587  25.458 -0.2371 -0.1510 -0.1192
81407W        W24324  18.500  30.179  25.183 -0.0853  0.0904  0.3669
81408W        W24325  16.461  31.587  25.836  0.0135  0.0517 -0.2021
81409W        W24326  14.626  29.393  25.629 -0.2954 -0.0489  0.4175
81410W        W24327  18.218  32.925  27.596  0.0313  0.1521  0.0978
81411W        W24328  19.289  32.114  24.975 -0.3185  0.0181  0.0271
81412W        W24329  15.252  30.233  24.105 -0.1867  0.1672  0.1289
81413W        W24330  15.480  30.490  26.073 -0.1020 -0.4540  0.1174
81414W        W24331  14.985  29.115  25.918 -0.0299  0.2374  0.1997
81415W        W24332  18.580  30.755  27.913 -0.1137  0.0379  0.1195
81416W        W24333  16.060  30.299  26.326 -0.0063 -0.2030  0.0545
81417W        W24334  15.211  33.097  24.489  0.0337 -0.0505  0.2611
81418W        W24335  18.212  29.178  28.190  0.1810  0.2779 -0.0097
81419W        W24336  17.196  33.865  27.680  0.1710 -0.0157  0.3044
81420W        W24337  15.822  31.952  27.402  0.2610  0.1630 -0.0242
81421W        W24338  14.817  30.387  24.276 -0.1576  0.4363  0.2210
81422W        W24339  15.656  29.183  26.477 -0.1719 -0.4356  0.1752
81423W        W24340  15.394  31.813  25.717 -0.1093 -0.2578 -0.1065
81424W        W24341  15.654  31.682  25.293  0.2063 -0.0017  0.3470
81425W        W24342  16.348  31.180  26.323 -0.3334 -0.1075 -0.1354
81426W        W24343  16.465  30.157  24.415 -0.2811 -0.1537  0.1904
81427W        W24344  16.451  32.069  24.800 -0.0991 -0.0149  0.1332
81428W        W24345  14.049  29.014  24.235  0.1012 -0.0469  0.0032
81429W        W24346  19.059  32.761  27.039  0.0452 -0.2954 -0.2056
81430W        W24347  20.108  29.396  26.063  0.0057  0.4108  0.4020
81431W        W24348  16.745  32.319  25.793  0.0328 -0.0288  0.3651
81432W        W24349  14.185  33.186  23.145  0.5906 -0.0191  0.0882
81433W        W24350  13.728  32.717  23.914  0.1810 -0.2558  0.0302
81434W        W24351  16.300  33.083  27.150 -0.1315 -0.0481 -0.1080
81435W        W24352  15.945  30.130  27.552 -0.0827  0.0137  0.0152
81436W        W24353  16.462  32.082  26.529  0.1968  0.2067 -0.0818
81437W        W24354  14.392  32.272  24.374 -0.3406  0.0981  0.0971
81438W        W24355  14.181  30.432  25.392 -0.1926 -0.0413  0.1290
81439W        W24356  17.403  32.282  23.791 -0.2189 -0.1024  0.0112
81440W        W24357  15.521  28.550  26.275 -0.0364 -0.1248  0.0772
81441W        W24358  15.233  33.419  26.608 -0.0905  0.0570 -0.1253
81442W        W24359  15.145  31.458  26.066  0.1834  0.2404  0.1062
81443W        W24360  18.309  33.453  23.864 -0.2225  0.0771 -0.0823
81444W        W24361  17.053  29.703  24.078 -0.3826  0.0913  0.1980
81445W        W24362  18.769  33.750  27.037  0.1103 -0.1486 -0.0869
81446W        W24363  15.316  30.966  23.106  0.0159 -0.0136  0.3495
81447W        W24364  17.359  30.721  26.478  0.0549  0.0172 -0.1061
81448W        W24365  17.772  27.491  26.777 -0.1808 -0.3034 -0.4034
81449W        W24366  13.822  30.026  23.518 -0.1309 -0.0008  0.2026
81450W        W24367  15.762  28.411  25.137  0.0193 -0.0696  0.0914
81451W        W24368  18.297  33.120  24.235 -0.1110 -0.0180 -0.1665
81452W        W24369  16.310  34.129  24.787  0.0144  0.0549 -0.0105
81453W        W24370  15.323  30.301  28.208 -0.0871 -0.3867 -0.0747
81454W        W24371  16.853  31.399  27.930 -0.0403 -0.2238  0.0814
81455W        W24372  14.965  29.310  26.883 -0.1206  0.0390  0.4996
81456W        W24373  17.412  31.717  22.382  0.0522 -0.0754  0.0622
81457W        W24374  16.419  30.688  26.275  0.0562  0.4317 -0.1530
81458W        W24375  19.381  30.423  23.255 -0.1532 -0.1194  0.2936
81459W        W24376  16.703  30.793  25.314 -0.0591  0.1398  0.1542
81460W        W24377  15.018  32.651  24.750 -0.3759  0.0240 -0.3200
81461W        W24378  17.618  30.528  27.356 -0.0666  0.2569  0.2641
81462W        W24379  15.498  33.067  26.367 -0.1349 -0.2005  0.2899
81463W        W24380  19.168  33.529  27.188  0.0108 -0.0589  0.1242
81464W        W24381  16.599  29.731  24.229 -0.2552  0.0344  0.0832
81465W        W24382  16.038  30.937  25.447 -0.1308  0.1520 -0.1757
81466W        W24383  16.508  32.599  24.875  0.0243 -0.5751 -0.1591
81467W        W24384  18.089  31.191  27.393 -0.0462 -0.3504  0.2846
81468W        W24385  17.095  31.811  23.741 -0.1385  0.1881 -0.0434
81469W        W24386  17.195  30.166  27.170  0.1373  0.1314  0.0228
81470W        W24387  18.792  32.685  26.252  0.1897  0.0132 -0.5173
81471W        W24388  20.022  30.020  26.762  0.2859 -0.1341  0.1037
81472W        W24389  16.575  30.542  24.787  0.1574 -0.0712 -0.1690
81473W        W24390  17.627  28.291  23.089  0.2178 -0.3423 -0.1655
81474W        W24391  16.238  33.972  27.865  0.0253  0.1218  0.0140
81475W        W24392  17.679  34.255  23.896  0.2210 -0.1411 -0.2466
81476W        W24393  16.895  32.381  26.495 -0.1395 -0.2024 -0.0315
81477W        W24394  19.511  30.990  26.202 -0.0014 -0.1482 -0.1922
81478W        W24395  16.223  28.116  26.735 -0.0207  0.0091  0.1213
81479W        W24396  17.580  28.717  25.241 -0.0797 -0.0578 -0.0002
81480W        W24397  16.244  30.497  25.215  0.0088 -0.2174  0.1419
81481W        W24398  17.681  31.157  26.588  0.4402  0.3605  0.0764
81482W        W24399  13.642  32.096  24.728 -0.0110 -0.2316 -0.0593
81483W        W24400  16.736  29.217  24.151  0.3752  0.1214 -0.2440
81484W        W24401  17.124  32.349  27.070  0.0188 -0.0932 -0.0860
81485W        W24402  15.434  30.729  26.930 -0.0778  0.0994  0.1797
81486W        W24403  15.246  32.222  28.249  0.1344  0.1056 -0.0779
81487W        W24404  14.524  30.979  28.137 -0.1087  0.1513  0.2499
81488W        W24405  18.378  28.447  28.961 -0.0350 -0.0324  0.1227
81489W        W24406  17.620  31.611  29.966  0.2245  0.3230  0.1985
81490W        W24407  14.276  28.999  26.285  0.0358  0.1810 -0.5304
81491W        W24408  17.089  33.285  28.666 -0.1056 -0.2142 -0.1973
81492W        W24409  14.496  28.320  28.643 -0.2417  0.0436  0.2079
81493W        W24410  16.020  30.212  30.174 -0.3809  0.1532 -0.0126
81494W        W24411  18.402  34.017  30.210  0.0590 -0.3091 -0.2598
81495W        W24412  18.313  29.583  27.745 -0.3896 -0.1362  0.0533
81496W        W24413  16.857  29.951  30.736 -0.1538 -0.1589 -0.0837
81497W        W24414  15.294  31.300  30.847 -0.2608 -0.1241  0.2014
81498W        W24415  16.729  27.889  27.726 -0.1499 -0.1116 -0.2073
81499W        W24416  12.685  28.424  30.176  0.1940 -0.0851 -0.0310
81500W        W24417  17.598  32.246  31.145  0.0023 -0.2229 -0.4006
81501W        W24418  15.067  31.735  28.729 -0.0767 -0.1747 -0.2353
81502W        W24419  16.522  30.198  30.308 -0.0755  0.1531 -0.1144
81503W        W24420  16.850  30.027  28.272  0.1713 -0.1774  0.1608
81504W        W24421  17.675  34.355  27.018  0.1749  0.2905  0.4055
81505W        W24422  15.941  28.362   0.667 -0.2109  0.1443 -0.2299
81506W        W24423  17.551  29.750  31.489 -0.1654 -0.2230  0.1150
81507W        W24424  17.077  31.425  29.000 -0.1214  0.2493 -0.0893
81508W        W24425  16.289  31.294  26.871 -0.0439 -0.0802  0.1498
81509W        W24426  14.915  30.071  28.430 -0.1548  0.1154 -0.1055
81510W        W24427  15.949  30.815  28.091 -0.0262 -0.1323 -0.0846
81511W        W24428  15.972  28.525  28.634 -0.3848 -0.0156  0.3795
81512W        W24429  17.483  30.946  29.781  0.0966  0.2484  0.1895
81513W        W24430  16.414  34.034  29.179  0.1120  0.0778 -0.0452
81514W        W24431  16.992  33.222  31.401  0.2926  0.3049  0.1085
81515W        W24432  18.919  30.335  30.533  0.1759 -0.0947 -0.0869
81516W        W24433  15.812  30.249  28.688 -0.3879 -0.3513 -0.2693
81517W        W24434  12.354  31.396  30.576 -0.0699 -0.1051 -0.3183
81518W        W24435  16.533   0.124  27.058 -0.4548 -0.2601  0.0543
81519W        W24436  18.934  31.375  29.897  0.2089 -0.0707  0.2954
81520W        W24437  15.667  31.318  31.733  0.1859 -0.0997  0.3130
81521W        W24438  15.300  32.277  29.407  0.0514 -0.0159 -0.2721
81522W        W24439  14.472  32.252  27.732 -0.3079  0.2740  0.1807
81523W        W24440  16.377  33.963  31.664  0.0630 -0.1517  0.2066
81524W        W24441  17.043  31.846  30.237 -0.4095  0.1550  0.0244
81525W        W24442  17.589  32.521  29.988 -0.2848 -0.1964  0.1469
81526W        W24443  15.694  31.361  28.958 -0.2509  0.0968  0.0880
81527W        W24444  16.436  31.368  28.207 -0.1805  0.1381  0.1364
81528W        W24445  18.022  32.724  30.445  0.0878  0.0235 -0.2832
81529W        W24446  16.523  31.765  30.710  0.0197  0.2644 -0.4352
81530W        W24447  15.220  32.108  30.302 -0.0990  0.0026  0.0526
81531W        W24448  18.717  32.036  31.769 -0.0907  0.1916  0.0932
81532W        W24449  14.488  31.558  28.141 -0.3011 -0.0581  0.2231
81533W        W24450  16.722  31.052  29.770  0.0334  0.1013  0.3436
81534W        W24451  17.537  29.221  25.201  0.1124 -0.0476 -0.0994
81535W        W24452  16.771  29.789  28.664  0.0664  0.0710  0.1637
81536W        W24453  16.463  29.198  27.277 -0.1400  0.0987 -0.1034
81537W        W24454  15.426  33.231  27.901  0.2511  0.0695 -0.0548
81538W        W24455  15.095  30.655  29.849 -0.1864  0.0354  0.3747
81539W        W24456  18.678  32.884  30.948  0.0578 -0.1166 -0.2452
81540W        W24457  16.972  30.558  31.139  0.2020 -0.0831 -0.1980
81541W        W24458  17.374  31.547  30.430  0.0330 -0.3245  0.1183
81542W        W24459  13.624  30.353  29.910  0.0558  0.0059  0.1713
81543W        W24460  15.224  31.078  28.855  0.1511  0.0576 -0.0032
81544W        W24461  17.036  33.138  29.545  0.2482  0.0316 -0.1004
81545W        W24462  18.317  33.983  29.251  0.1000 -0.2900  0.3350
81546W        W24463  17.001  33.432  27.796 -0.0397 -0.1187 -0.1644
81547W        W24464  15.702  32.422  27.318 -0.2225 -0.2509  0.2803
81548W        W24465  14.952  30.825  31.121  0.0447  0.1112  0.1485
81549W        W24466  12.668  31.886  31.804 -0.2504 -0.2531  0.1292
81550W        W24467  18.767  28.313  25.302 -0.1271  0.0676 -0.3279
81551W        W24468  18.597  34.091  31.390  0.1493 -0.2166  0.1289
81552W        W24469  15.546  31.597   0.163  0.0903 -0.3018 -0.1027
81553W        W24470  20.038  29.025  26.904  0.2445  0.1285 -0.0865
81554W        W24471  15.148  30.815  28.296  0.0428  0.0351  0.2723
81555W        W24472  18.146  33.682  30.526 -0.0991 -0.0997 -0.1452
81556W        W24473  16.890  30.727  29.371 -0.0880  0.0371  0.2068
81557W        W24474  17.326  29.518  29.810  0.0364  0.2789  0.1491
81558W        W24475  18.502  29.970  30.445  0.1019 -0.4573  0.0903
81559W        W24476  15.145  32.750  28.200 -0.0220  0.0817  0.0653
81560W        W24477  16.707  30.517  28.106 -0.0707  0.0541  0.1063
81561W        W24478  16.602   0.205  30.680  0.3208 -0.1867 -0.0468
81562W        W24479  18.324  32.043  30.287  0.0521 -0.1197  0.2083
81563W        W24480  16.218  30.281  29.635  0.4135 -0.1642  0.0727
81564W        W24481  16.973  29.912  29.140  0.1466 -0.1475  0.1640
81565W        W24482  14.941  31.151  30.574 -0.0683 -0.2844 -0.2796
81566W        W24483  16.179  31.922  28.279 -0.0191 -0.0352 -0.0945
81567W        W24484  14.124  31.204  27.969  0.0489 -0.2467 -0.0879
81568W        W24485  16.323  31.980  27.387  0.0873 -0.1729  0.0556
81569W        W24486  14.975  28.327   0.188 -0.1512  0.0743  0.2998
81570W        W24487  14.832  32.942  26.982 -0.2682  0.2707  0.0245
81571W        W24488  18.665  30.142  26.672  0.2900  0.0113 -0.0121
81572W        W24489  16.790  29.657  30.207  0.5838 -0.1702 -0.0753
81573W        W24490  17.232  29.392  27.825  0.0095  0.3023  0.1794
81574W        W24491  17.901  31.648  27.696 -0.0646  0.1533  0.0621
81575W        W24492  16.535  32.441  28.048  0.1285  0.1511 -0.2340
81576W        W24493  18.356  29.505  29.157  0.2024 -0.0465  0.0783
81577W        W24494  19.168  33.581  29.126  0.3205  0.1018 -0.1808
81578W        W24495  15.960  32.251  27.766  0.1541  0.1865  0.1670
81579W        W24496  15.932  28.109  27.984 -0.2593 -0.0532  0.1453
81580W        W24497  15.706  31.472  30.414  0.0059  0.2697 -0.1484
81581W        W24498  16.277  31.247  29.533 -0.0293 -0.2605  0.2717
81582W        W24499  18.869  31.750  30.212  0.2608  0.0863  0.1109
81583W        W24500  14.668  29.134  27.553  0.2340  0.1406 -0.2119
81584W        W24501  17.813  30.802  31.318  0.1819  0.3331  0.1024
81585W        W24502  14.714  30.494  28.308 -0.0084 -0.0472 -0.0103
81586W        W24503  14.979  32.810  26.512 -0.1762 -0.0499  0.2295
81587W        W24504  15.204  33.199  31.754  0.0391 -0.0889 -0.3846
81588W        W24505  16.386  33.430  28.002 -0.2216 -0.0469  0.1583
81589W        W24506  17.688  32.599   1.283 -0.2562 -0.0109  0.1805
81590W        W24507  17.809  33.907  30.771  0.0470  0.0353 -0.0619
81591W        W24508  14.890  30.139  29.561  0.1143 -0.2190  0.0712
81592W        W24509  15.381  30.668  27.854  0.0428  0.4296 -0.0976
81593W        W24510  16.660  34.532  29.912  0.3806 -0.3453 -0.2067
81594W        W24511  17.843  32.080  27.912 -0.0480  0.1597 -0.0712
81595W        W24512  16.964  30.919  28.109  0.0015 -0.0541 -0.2017
81596W        W24513  18.436  34.443  29.690  0.0548 -0.2135  0.1093
81597W        W24514  16.712  32.276  27.592  0.2445 -0.3581 -0.1829
81598W        W24515  14.995  31.656  30.574  0.2042 -0.2421 -0.2494
81599W        W24516  17.016  31.414  31.583 -0.0656  0.2249 -0.3535
81600W        W24517  19.311  30.707  30.728  0.0003 -0.1249 -0.1137
81601W        W24518  17.090  32.330  29.957 -0.0627  0.3276 -0.0375
81602W        W24519  15.490  28.985  25.999 -0.0556  0.1338 -0.1477
81603W        W24520  16.988   0.223  25.585 -0.0969 -0.0349 -0.2189
81604W        W24521  14.690  31.017  27.328  0.3175 -0.2443 -0.1474
81605W        W24522  14.158  29.373  26.637 -0.1232 -0.0044  0.1962
81606W        W24523  16.409  30.893  28.186  0.0690 -0.2480  0.1616
81607W        W24524  17.258  30.361  28.096  0.0282  0.3399 -0.2575
81608W        W24525  16.695  30.974  30.269 -0.3178 -0.4176  0.1754
81609W        W24526  18.393  32.856  31.707 -0.3037  0.0019 -0.2414
81610W        W24527  14.438  28.918  29.196  0.1156 -0.2327  0.0384
81611W        W24528  14.804  32.785  29.944  0.1379 -0.2806 -0.2859
81612W        W24529  17.208  30.653  28.507  0.2388  0.2858 -0.0957
81613W        W24530  18.317  28.741  29.979 -0.1377 -0.0682  0.3175
81614W        W24531  16.766  31.000  31.143  0.1344  0.0915 -0.0198
81615W        W24532  18.192  32.268  28.239 -0.1278 -0.0112 -0.2712
81616W        W24533  16.496  29.789  29.255  0.0331  0.0040 -0.2857
81617W        W24534  15.800  30.301  28.081 -0.0062 -0.0941  0.0466
81618W        W24535  14.268  32.847  30.801 -0.0309  0.0730  0.0396
81619W        W24536  16.596  31.559  27.559 -0.0849 -0.0449 -0.1669
81620W        W24537  16.475  32.345  31.228  0.3554  0.0809 -0.0622
81621W        W24538  17.294  29.815  28.270 -0.2616  0.3357  0.0502
81622W        W24539  17.129  31.204  29.430  0.1431  0.1763 -0.1453
81623W        W24540  16.453  30.166  28.703  0.2015 -0.0466 -0.0724
81624W        W24541  15.964  32.100  30.664  0.3869 -0.1054  0.1200
81625W        W24542  18.052  33.047  29.455  0.0387 -0.0391  0.0078
81626W        W24543  17.241  29.622  30.372  0.1672 -0.2587 -0.1616
81627W        W24544  17.990  29.947  28.025 -0.1560 -0.5516 -0.3084
81628W        W24545  17.559  28.950  28.061 -0.1220  0.1183  0.0523
81629W        W24546  14.595  33.427  28.422  0.3461 -0.1063 -0.0801
81630W        W24547  16.648  30.123  31.157 -0.2992  0.1363 -0.1047
81631W        W24548  16.080  30.115  29.116 -0.1742  0.1405 -0.1083
81632W        W24549  15.376  29.717  31.688 -0.0772  0.0530 -0.1748
81633W        W24550  19.114  31.577  30.629 -0.3641  0.3139  0.0674
81634W        W24551  18.025  30.894  27.852  0.1031 -0.1915 -0.0682
81635W        W24552  17.969  31.212  29.817 -0.0446 -0.0255  0.2775
81636W        W24553  15.646  32.346  26.753  0.0229 -0.1027 -0.0023
81637W        W24554  17.757  29.544   0.856  0.3669  0.2053  0.0822
81638W        W24555  16.218  32.279   0.598 -0.0189 -0.1811 -0.2086
81639W        W24556  13.765  32.761  30.947  0.1026  0.5542  0.2250
81640W        W24557  19.606  33.627  30.580 -0.0564  0.1598  0.1360
81641W        W24558  16.559  30.463  30.791  0.0911  0.2469  0.1752
81642W        W24559  18.415  30.488  30.684 -0.1046  0.0063 -0.0585
81643W        W24560  17.142  31.067  26.747  0.1045 -0.1330 -0.3527
81644W        W24561  15.956  33.849  29.089 -0.0397  0.2049  0.1192
81645W        W24562  16.164  31.667  27.787  0.0422 -0.0501 -0.2800
81646W        W24563  16.884  29.197  29.734  0.0047  0.0470 -0.1641
81647W        W24564  15.880  32.943  30.030 -0.4214  0.0844 -0.0727
81648W        W24565  18.032  34.287  27.403 -0.1384  0.0001  0.1385
81649W        W24566  15.655  30.694   0.386  0.0012  0.2273  0.1182
81650W        W24567  14.431  33.611  28.854  0.0464  0.1663 -0.0200
81651W        W24568  18.055  29.205  29.983  0.3733 -0.0570  0.1609
81652W        W24569  15.637  33.175  26.878  0.0061  0.1257  0.0934
81653W        W24570  15.940  31.486  26.461  0.1369  0.2755  0.3755
81654W        W24571  14.193  31.374  26.568 -0.4248 -0.0285  0.0574
81655W        W24572  17.663  31.226  30.780 -0.0607  0.2460 -0.0707
81656W        W24573  17.141  30.866  28.999 -0.0299 -0.0859 -0.0887
81657W        W24574  15.466  29.433  26.995 -0.2350 -0.5298  0.2151
81658W        W24575  15.578  29.866  28.175  0.1404  0.2645  0.2272
81659W        W24576  14.644  34.150  30.515  0.2513 -0.2040  0.3084
81660W        W24577  17.194  32.235  30.574  0.0175  0.3986 -0.3627
81661W        W24578  17.298  29.464  29.268  0.0471  0.0608  0.2306
81662W        W24579  16.013  31.635  30.792  0.2443  0.0450 -0.2115
81663W        W24580  16.213  30.661  30.421 -0.1389  0.2120  0.1003
81664W        W24581  13.990  31.663  28.392 -0.1210 -0.2282 -0.1378
81665W        W24582  18.138  29.906  30.832 -0.1478 -0.3485  0.0279
81666W        W24583  15.865  31.182  27.704 -0.1947 -0.0684  0.2743
81667W        W24584  13.695  29.305  28.351 -0.1322 -0.2460  0.2720
81668W        W24585  16.005  31.001  29.111 -0.1434 -0.2831 -0.1216
81669W        W24586  15.769  29.795  27.232 -0.1741  0.0623  0.1067
81670W        W24587  16.147  32.995  28.282  0.0833 -0.1772  0.1631
81671W        W24588  15.919  29.913  31.863 -0.0073  0.0649  0.1167
81672W        W24589  18.789  32.719  29.055  0.1952  0.0450 -0.1170
81673W        W24590  15.720  31.150  30.048 -0.2767 -0.2034  0.2059
81674W        W24591  15.416  31.203  28.054  0.1614  0.0002  0.0486
81675W        W24592  17.617  30.865  28.184  0.0771 -0.1503 -0.3238
81676W        W24593  16.888  31.400  30.423 -0.2844  0.1425  0.3258
81677W        W24594  15.213  30.497  30.716  0.1082  0.2108 -0.2629
81678W        W24595  15.877  32.480  31.326 -0.3270  0.0960 -0.4492
81679W        W24596  15.770  31.932  30.166  0.0870 -0.1506  0.0637
81680W        W24597  20.582  32.618  27.955  0.1880  0.1279 -0.1795
81681W        W24598  15.911  31.050  30.623  0.0825  0.0255 -0.0877
81682W        W24599  14.279  30.892  27.606  0.0479 -0.2318  0.2081
81683W        W24600  14.841  31.347  29.645  0.2530 -0.2022  0.1739
81684W        W24601  13.715  30.119  28.249 -0.2688 -0.1165  0.0176
81685W        W24602  16.370  32.463  29.439 -0.0148  0.2733  0.1412
81686W        W24603  14.661  31.486  26.793  0.3243 -0.1581  0.0691
81687W        W24604  16.641  33.833  27.505  0.2310  0.1742  0.4911
81688W        W24605  13.728  30.890  28.916  0.0395 -0.0644  0.1868
81689W        W24606  17.446  29.227  27.281  0.0258  0.1716  0.1216
81690W        W24607  18.091  31.376  26.357 -0.2700 -0.1584 -0.2031
81691W        W24608  16.295  29.249  29.048 -0.0605  0.1366 -0.0431
81692W        W24609  17.901  30.495  29.772  0.1693 -0.3293 -0.0379
81693W        W24610  17.878  32.980  27.157 -0.0543 -0.1034 -0.1262
81694W        W24611  17.081  28.933  29.328 -0.1260  0.1891 -0.0962
81695W        W24612  16.146  29.205  31.292  0.0719 -0.4204 -0.1637
81696W        W24613  16.637  31.312  28.681  0.2703 -0.0126 -0.1356
81697W        W24614  16.792  27.937  29.735  0.0132  0.0453  0.2474
81698W        W24615  16.753  31.536  29.492 -0.0555  0.2145 -0.0997
81699W        W24616  16.593  32.795  30.125  0.0608 -0.1124  0.2274
81700W        W24617  16.848  30.264  29.628 -0.0323  0.0498  0.1236
81701W        W24618  16.090  29.002  27.003 -0.0080  0.2252 -0.0376
81702W        W24619  15.081  30.652  29.325  0.0021 -0.0286  0.0861
81703W        W24620  17.123  33.030  30.898  0.0685  0.0436 -0.0769
81704W        W24621  17.452  31.650  27.444 -0.1921  0.1291 -0.0185
81705W        W24622  16.087  31.012  28.566  0.0335  0.3691 -0.1909
81706W        W24623  16.213  31.079  30.008 -0.1418  0.0120  0.2038
81707W        W24624  16.593  31.688  29.037 -0.0711 -0.1823  0.1949
81708W        W24625  14.953  32.117  29.026 -0.0439 -0.0262  0.0288
81709W        W24626  15.772  31.072  27.003 -0.0485 -0.0115  0.2226
81710W        W24627  16.932  28.478  31.793  0.1750  0.1908  0.3295
81711W        W24628  16.055  31.596  29.872  0.3544 -0.0409 -0.1373
81712W        W24629  15.110  29.810  27.967  0.1186 -0.0746 -0.0715
81713W        W24630  17.531  28.132  31.116  0.2419  0.2351 -0.0928
81714W        W24631  16.560  31.516  29.962 -0.1272 -0.1115  0.0850
81715W        W24632  14.801  29.906  30.086  0.0536  0.4614  0.1565
81716W        W24633  14.081  30.201  29.427 -0.3549 -0.1090  0.2048
81717W        W24634  16.357  32.389  30.761  0.2336 -0.0613 -0.2332
81718W        W24635  20.642  29.825  27.851  0.0923  0.2732  0.0658
81719W        W24636  16.840  30.612  31.640  0.0802 -0.0547 -0.0644
81720W        W24637  18.503  31.983  28.567  0.0139 -0.0304  0.0935
81721W        W24638  18.252  31.031  29.352 -0.2690  0.4137 -0.0068
81722W        W24639  13.204  30.378  27.232  0.0946 -0.1890 -0.2079
81723W        W24640  15.832  32.867  28.746 -0.1068 -0.0881  0.4899
81724W        W24641  17.584  29.951  29.030  0.5002  0.0695 -0.2632
81725W        W24642  17.365  30.785  30.714 -0.1849 -0.0233 -0.1783
81726W        W24643  18.545  32.277  26.381  0.3402  0.0638  0.2530
81727W        W24644  15.752  32.690  30.829  0.0898  0.2452 -0.0966
81728W        W24645  16.091  32.350  30.170  0.1273 -0.0072  0.0453
81729W        W24646  14.690  29.535  27.869  0.1890 -0.0652 -0.0720
81730W        W24647  14.329  31.889  31.782 -0.0060 -0.1433 -0.0128
81731W        W24648  16.555  30.910  26.735 -0.0079 -0.2993  0.0374
81732W        W24649  14.581  32.799  27.895  0.2230  0.0977 -0.1311
81733W        W24650  15.439  33.183  30.075  0.0868  0.0842 -0.1526
81734W        W24651  17.678  31.286  31.267 -0.0180 -0.2943  0.4768
81735W        W24652  15.945  29.297  27.342 -0.1188  0.2001 -0.0921
81736W        W24653  19.096  29.834  29.650  0.1003  0.0342  0.0466
81737W        W24654  13.672  32.072  29.454 -0.0584 -0.0780  0.1975
81738W        W24655  17.396  30.373  29.749 -0.1876 -0.4074  0.2100
81739W        W24656  16.057  33.584   0.356  0.3041 -0.0872  0.0396
81740W        W24657  13.049  30.192  28.729  0.1629 -0.0049  0.2403
81741W        W24658  18.210  30.840  31.011  0.2290  0.0127  0.0970
81742W        W24659  16.475  29.973  29.884  0.0025  0.2460  0.0115
81743W        W24660  18.023  33.033  30.821 -0.0295  0.2591 -0.2167
81744W        W24661  16.939  31.914  29.759  0.1169 -0.1768 -0.1500
81745W        W24662  17.633  32.588  31.508 -0.0822  0.1418 -0.0424
81746W        W24663  16.195  32.788  31.028 -0.0420  0.1357  0.0780
81747W        W24664  16.042  31.906  29.119  0.0696  0.1456 -0.2407
81748W        W24665  17.040  31.740  30.787 -0.2611  0.0950 -0.3556
81749W        W24666  18.047  31.484  29.193  0.0417  0.2304 -0.3065
81750W        W24667  15.549  30.706  29.088  0.1440  0.0361  0.0258
81751W        W24668  15.256  28.534  29.660  0.2092 -0.1467  0.1609
81752W        W24669  16.871  32.146   0.154 -0.0440  0.0735 -0.2452
81753W        W24670  18.400  30.969  30.545 -0.1402  0.3395 -0.0768
81754W        W24671  16.288  30.219  28.119  0.1428 -0.1056 -0.0980
81755W        W24672  17.681  32.403  28.230  0.0672 -0.1112 -0.0822
81756W        W24673  14.644  32.196  30.515 -0.0598 -0.2965 -0.0638
81757W        W24674  14.484  32.611  31.608  0.1425  0.1315  0.0852
81758W        W24675  14.312  34.378  28.573  0.1046  0.0378 -0.1943
81759W        W24676  17.173  31.917  28.705 -0.3410 -0.2124  0.1071
81760W        W24677  16.568  30.216  27.691  0.0591 -0.2510 -0.1472
81761W        W24678  19.224  33.226  31.586 -0.1857 -0.1027 -0.3723
81762W        W24679  16.357  29.566  26.201 -0.2229  0.0491 -0.1330
81763W        W24680  13.241  30.379  27.721  0.3023 -0.0739 -0.2867
81764W        W24681  15.271   0.051  28.032  0.0481  0.0495 -0.2581
81765W        W24682  17.155  33.688  25.938 -0.3168  0.0050  0.3591
81766W        W24683  15.889  33.303  27.995 -0.2254 -0.0474 -0.1636
81767W        W24684  17.161  32.280  31.458  0.0184  0.1713  0.1895
81768W        W24685  18.692  29.569  28.083 -0.1021 -0.0175 -0.3844
81769W        W24686  17.300  29.949  29.507  0.2641 -0.0935  0.0998
81770W        W24687  19.160  28.736  26.929 -0.1789 -0.1637 -0.2971
81771W        W24688  14.726  33.328  31.552  0.0986 -0.1798 -0.2896
81772W        W24689  15.150  31.805  29.628  0.1489  0.1981 -0.2767
81773W        W24690  14.955  32.364  27.818  0.3100  0.0476  0.1382
81774W        W24691  14.478  31.103  30.530 -0.1521 -0.1268  0.0831
81775W        W24692  18.141  29.960  29.304 -0.0389  0.0931  0.1163
81776W        W24693  15.015  30.693  30.289 -0.0701 -0.0540  0.1519
81777W        W24694  16.962  32.736  28.562 -0.2984 -0.2130  0.0782
81778W        W24695  16.298  31.748  29.487 -0.2004  0.0610 -0.1533
81779W        W24696  14.278  29.814  25.522 -0.1646 -0.1211  0.3124
81780W        W24697  16.529  29.216  31.035  0.2417 -0.1964  0.3155
81781W        W24698  16.090  31.416  27.316 -0.2260  0.1270  0.1183
81782W        W24699  17.827  31.841  29.498  0.1727  0.2626  0.0930
81783W        W24700  16.803  31.660  28.398 -0.0380  0.1330  0.2955
81784W        W24701  17.086  32.795  30.365 -0.1060  0.1753 -0.2270
81785W        W24702  15.680  32.503  30.360 -0.2251  0.0143 -0.1903
81786W        W24703  14.907  29.890  27.496  0.2702  0.0373  0.2630
81787W        W24704  16.977  29.902  27.808  0.3142  0.1892  0.0763
81788W        W24705  15.074  30.865   0.127  0.0255  0.0031  0.0421
81789W        W24706  16.498  29.056  30.000  0.2651  0.0342 -0.1662
81790W        W24707  15.283  29.892  31.183  0.0701 -0.2490 -0.2302
81791W        W24708  18.175  29.470  29.603  0.0806 -0.1366 -0.1290
81792W        W24709  17.519  32.880  31.122 -0.0439  0.1525  0.3308
81793W        W24710  15.660  31.899  28.224 -0.0412  0.1408  0.1998
81794W        W24711  17.147  31.143  28.567 -0.1865  0.1468  0.0225
81795W        W24712  18.577  33.409  30.816  0.1784  0.0342 -0.5359
81796W        W24713  15.773  30.664  27.391  0.0027  0.0968  0.1935
81797W        W24714  16.119  32.135  31.642 -0.0055 -0.0552 -0.0351
81798W        W24715  16.192  27.760  27.702 -0.2650  0.1454 -0.1485
81799W        W24716  16.517  30.818  28.681  0.0237 -0.0541 -0.2212
81800W        W24717  14.666  30.732  30.736  0.0150 -0.0931 -0.0970
81801W        W24718  15.799  31.347  29.539 -0.0181 -0.1005 -0.3313
81802W        W24719  16.523  33.149   0.201 -0.0348  0.1455  0.0032
81803W        W24720  15.119  28.170  28.639  0.1780  0.0590 -0.2326
81804W        W24721  17.174  32.992  27.171  0.1987 -0.1261  0.0759
81805W        W24722  17.579  30.014  30.141 -0.0142  0.4309 -0.2049
81806W        W24723  16.091  31.578  28.678  0.1875 -0.1270  0.1431
81807W        W24724  17.558  31.743  30.870 -0.2957 -0.3861 -0.3870
81808W        W24725  16.759  33.184  30.407  0.1511 -0.2182  0.0985
81809W        W24726  15.453  30.995  27.461  0.0754 -0.1732 -0.0007
81810W        W24727  16.096  32.108  29.716  0.0405  0.2998  0.1389
81811W        W24728  17.892  31.735  30.385  0.2008  0.5296 -0.1947
81812W        W24729  17.139  28.924  26.114 -0.0246 -0.0521  0.1380
81813W        W24730  15.817  29.439  28.210 -0.3389 -0.1487 -0.1978
81814W        W24731  14.677  32.434  28.244  0.0252  0.0365 -0.1230
81815W        W24732  19.446  29.887  28.413 -0.2394 -0.0549 -0.0663
81816W        W24733  19.284  30.510  30.125  0.0725  0.0751  0.0591
81817W        W24734  17.109  32.513  28.070 -0.2692 -0.0269  0.1495
81818W        W24735  18.552  27.209  31.663 -0.2662  0.1348 -0.0433
81819W        W24736  14.647  30.981  30.025  0.1207  0.2852  0.1021
81820W        W24737  16.300  32.625  31.574  0.1215  0.1414  0.0371
81821W        W24738  15.124  29.064  27.728  0.0559  0.0283  0.1284
81822W        W24739  15.204  30.239  30.216  0.0358  0.2451 -0.1103
81823W        W24740  15.195  32.783  29.560  0.1404  0.0290 -0.2776
81824W        W24741  15.247  33.837  27.946 -0.2005 -0.1844 -0.1385
81825W        W24742  17.528  33.067  30.252  0.2131  0.4503  0.0648
81826W        W24743  15.729  32.982  27.348 -0.0857 -0.1145  0.0260
81827W        W24744  17.416  32.084  29.689 -0.1753  0.1513 -0.0123
81828W        W24745  16.088  33.532  27.081  0.1032 -0.1743 -0.2536
81829W        W24746  18.423  27.890  27.735 -0.1974  0.1181  0.0150
81830W        W24747  18.252  29.291  28.740 -0.2555  0.1057  0.2491
81831W        W24748  16.352  30.759  29.412 -0.3081 -0.3326 -0.3344
81832W        W24749  14.157  27.229  26.810  0.1185 -0.1309  0.3064
81833W        W24750  15.030  32.417  28.600  0.0154 -0.3373  0.0240
81834W        W24751  16.166  30.537  28.466  0.3327  0.2680  0.2466
81835W        W24752  17.004  30.614   0.230  0.0447 -0.0879  0.0978
81836W        W24753  16.387  30.646  31.496  0.1985  0.1747  0.1552
81837W        W24754  14.686  31.411  28.735 -0.1151 -0.0122 -0.1704
81838W        W24755  13.740  30.167  27.685 -0.1404 -0.0789  0.0325
81839W        W24756  17.148  34.124  26.222 -0.0578 -0.1584 -0.0523
81840W        W24757  16.019  29.752  27.874 -0.1855 -0.1332  0.0506
81841W        W24758  13.968  28.451  27.839  0.0013  0.3278  0.2434
81842W        W24759  16.460  31.930  28.652 -0.1478 -0.2334 -0.3496
81843W        W24760  16.347  31.153  27.678 -0.2509  0.1072  0.1063
81844W        W24761  17.788  29.755  28.535 -0.0077 -0.0027  0.1350
81845W        W24762  19.058  32.515  30.622 -0.0246  0.0008 -0.1061
81846W        W24763  15.139  30.809  26.474  0.3517  0.0049 -0.0069
81847W        W24764  15.957  30.841  29.693  0.1792  0.1992 -0.3115
81848W        W24765  15.795  30.418  29.437 -0.0484  0.0191  0.0667
81849W        W24766  14.454  29.572  27.361  0.0610 -0.0180 -0.0379
81850W        W24767  17.298  30.988  31.225 -0.1894  0.2007  0.2330
81851W        W24768  15.780  32.776  29.590 -0.3527 -0.0004  0.2299
81852W        W24769  17.820  31.989  28.548  0.1006  0.1758  0.0278
81853W        W24770  14.401  30.659  30.327  0.0605  0.2112 -0.1658
81854W        W24771  16.374  32.182   1.224  0.2785  0.1293 -0.0206
81855W        W24772  14.038  28.794  28.735 -0.3430  0.0457 -0.2260
81856W        W24773  15.544  30.251  27.260 -0.0957  0.0545  0.2431
81857W        W24774  15.211  30.552  27.422  0.0931  0.1199  0.0843
81858W        W24775  17.827  32.133  27.373  0.2626  0.1255 -0.0186
81859W        W24776  18.923  29.777  31.215  0.0632 -0.2774 -0.2425
81860W        W24777  16.024  32.429  28.195  0.1316  0.0567  0.1215
81861W        W24778  16.328  28.768  31.436 -0.2323  0.1384  0.1368
81862W        W24779  15.744  31.960  31.126  0.1359 -0.0671  0.0631
81863W        W24780  18.076  30.839  30.202 -0.3172 -0.2298  0.1736
81864W        W24781  14.431  27.651  28.180 -0.1854 -0.1540  0.1027
81865W        W24782  16.713  29.430  27.718 -0.2275 -0.0052 -0.0955
81866W        W24783  16.971  31.940  27.341  0.0184  0.0081 -0.4538
81867W        W24784  13.829  28.827  30.266  0.0521 -0.0688 -0.0952
81868W        W24785  17.744  30.611  28.825 -0.1179 -0.3842 -0.1406
81869W        W24786  16.076  30.658  30.939  0.1418  0.1701  0.2627
81870W        W24787  15.050  33.088  30.291 -0.0423  0.0101  0.3022
81871W        W24788  18.544  33.276   0.821 -0.2228 -0.1529 -0.2784
81872W        W24789  16.308  29.141  26.579  0.0495 -0.4374  0.1542
81873W        W24790  18.644  29.163  27.704 -0.0969  0.1759  0.1127
81874W        W24791  16.684  32.768  30.743 -0.0953  0.2046  0.3419
81875W        W24792  17.937  32.553  30.902  0.1361 -0.0763 -0.1590
81876W        W24793  16.397  32.234  29.025 -0.1422  0.3782  0.1769
81877W        W24794  18.372  32.370  30.748  0.1636  0.0801  0.0634
81878W        W24795  15.240  28.414  29.070 -0.3663  0.0306  0.3562
81879W        W24796  16.408  31.001  30.799  0.2426 -0.0535 -0.1180
81880W        W24797  15.209  31.830  27.486 -0.0454 -0.2398 -0.0184
81881W        W24798  18.073  29.324  30.870 -0.0078  0.2309  0.2005
81882W        W24799  15.921  31.396  28.179  0.1847 -0.0502  0.3507
81883W        W24800  19.458  30.499  27.584  0.1846  0.2032 -0.3286
81884W        W24801  15.446  30.965  29.553  0.1190 -0.0649  0.0837
81885W        W24802  17.135  31.860   0.494 -0.1423 -0.2235  0.0851
81886W        W24803  16.427  30.193  31.669  0.3274  0.3056  0.0725
81887W        W24804  16.404  31.378   0.096  0.0744  0.3739  0.4527
81888W        W24805  16.038  29.335  30.759 -0.3377  0.2715 -0.1728
81889W        W24806  12.320  32.243  31.771  0.3885  0.1362 -0.1480
81890W        W24807  16.005  32.561   1.028 -0.1810 -0.0471 -0.0593
81891W        W24808  15.136  33.135   0.839 -0.1079  0.1222 -0.0270
81892W        W24809  16.366   0.562  31.290  0.0085  0.1403  0.2376
81893W        W24810  16.858  29.715  29.658  0.2022  0.1348  0.2700
81894W        W24811  18.207  30.019  31.302 -0.5662  0.2048  0.3973
81895W        W24812  17.444  31.226  31.719 -0.0840  0.3857 -0.0503
81896W        W24813  15.166   0.450  31.479 -0.0152  0.0114 -0.2019
81897W        W24814  16.196  31.428  30.381 -0.0183 -0.0729 -0.1125
81898W        W24815  17.341  32.195  31.910  0.1657 -0.4914  0.0992
81899W        W24816  15.236  31.600  30.075 -0.1519  0.0226 -0.0554
81900W        W24817  18.822  32.409  31.076  0.1512 -0.3298  0.1370
81901W        W24818  13.192  31.000  30.894 -0.1095  0.2890 -0.0405
81902W        W24819  14.478  30.103  31.680 -0.3113  0.3282  0.2259
81903W        W24820  16.686  33.166  29.860 -0.1226 -0.2736 -0.1553
81904W        W24821  18.104  29.189   0.063 -0.0528 -0.2107 -0.2179
81905W        W24822  14.130  29.786  30.688 -0.0067  0.4609  0.1026
81906W        W24823  14.038  29.014   2.192  0.3552  0.0888  0.0248
81907W        W24824  14.257  33.862   1.374  0.1305  0.3560  0.1833
81908W        W24825  18.089  28.794  31.667 -0.1428 -0.1611 -0.1336
81909W        W24826  16.560  31.688  31.709  0.1701 -0.1878  0.3010
81910W        W24827  19.532  29.232  30.011 -0.0473  0.0791  0.1103
81911W        W24828  18.817  31.832   0.963 -0.1055  0.2242 -0.0975
81912W        W24829  16.586  31.218  31.632 -0.0773  0.1129 -0.3397
81913W        W24830  15.106  33.585   1.132  0.3303 -0.0381 -0.4371
81914W        W24831  15.430  30.941  30.435  0.1378 -0.0365 -0.5142
81915W        W24832  14.581  32.243   0.097 -0.2840  0.2123 -0.0038
81916W        W24833  15.226  32.651  30.253 -0.0433  0.3100  0.1439
81917W        W24834  15.147  31.104  30.050 -0.1584  0.1188  0.0060
81918W        W24835  18.104  33.845   0.961 -0.0072  0.2292 -0.0558
81919W        W24836  19.892  31.022   0.381  0.0020 -0.0856  0.0835
81920W        W24837  14.735  29.106  30.715  0.0890 -0.0609  0.2340
81921W        W24838  14.596  31.741   0.675  0.1213  0.1540 -0.0488
81922W        W24839  16.296  31.877  31.153  0.2164 -0.1267  0.1534
81923W        W24840  18.114  32.425  31.834  0.5139 -0.0192  0.0977
81924W        W24841  16.839  31.949   1.187  0.0879  0.0151 -0.0559
81925W        W24842  15.509  33.392  31.425  0.0991  0.0420  0.0523
81926W        W24843  18.035  33.222  29.993  0.0681  0.0197 -0.2052
81927W        W24844  18.222  29.490   0.611  0.0937 -0.1843  0.2481
81928W        W24845  15.727  28.076  30.812 -0.2970 -0.0189 -0.2658
81929W        W24846  15.044   0.896  31.235  0.1750  0.2328 -0.0834
81930W        W24847  14.937  29.526  30.395  0.2446 -0.0015  0.0739
81931W        W24848  15.628  29.961  29.295 -0.1483  0.1668 -0.2704
81932W        W24849  17.459  31.641   0.150  0.0913 -0.1782 -0.0288
81933W        W24850  15.930  32.444   0.042  0.2256  0.0498 -0.0080
81934W        W24851  17.143  31.246  30.790  0.1996 -0.2586 -0.1300
81935W        W24852  12.771  30.911   0.005 -0.1682  0.1437  0.1258
81936W        W24853  15.920  34.594   0.646 -0.3553 -0.1404  0.1931
81937W        W24854  17.863  30.205  30.580 -0.4020 -0.0582  0.3285
81938W        W24855  18.748  30.179  31.513  0.0767  0.1998  0.1422
81939W        W24856  16.580  31.457  31.071 -0.1830  0.0437 -0.0290
81940W        W24857  17.629  31.400   0.625  0.4058 -0.0211  0.2212
81941W        W24858  16.147  30.822   0.359 -0.0354  0.0932 -0.0112
81942W        W24859  18.238  31.383  30.920 -0.0172 -0.0141  0.0630
81943W        W24860  15.258  31.954   1.612 -0.1264  0.4657 -0.0140
81944W        W24861  15.575  33.581   0.602  0.0571 -0.3102  0.1884
81945W        W24862  15.527  30.792  30.912 -0.4076 -0.0712 -0.0634
81946W        W24863  16.642  31.110  29.169  0.3766  0.3550  0.1225
81947W        W24864  16.431  29.224  30.510 -0.0438  0.1034  0.0331
81948W        W24865  15.753  30.073  29.778  0.1849  0.0858 -0.0304
81949W        W24866  15.447  29.487  30.586 -0.0921 -0.3500 -0.0977
81950W        W24867  16.142  32.766  30.484 -0.2584  0.0713 -0.0251
81951W        W24868  16.329  30.703   0.802 -0.0727 -0.1632 -0.1390
81952W        W24869  18.012  32.008   0.138  0.4441  0.0891  0.2882
81953W        W24870  14.705  33.314  14.669  0.0037  0.0131  0.1223
81954W        W24871  19.830  33.599  16.497  0.0577  0.1373 -0.2642
81955W        W24872  16.918   1.404  16.951 -0.1657 -0.3115  0.0139
81956W        W24873  16.159   0.218  16.769 -0.1119 -0.2094  0.1902
81957W        W24874  13.230  32.836  16.947  0.4155 -0.5165 -0.0973
81958W        W24875  16.062   0.871  16.266  0.2251 -0.1845  0.2318
81959W        W24876  13.812   0.772  17.079  0.0567 -0.1122  0.2529
81960W        W24877  15.920  33.330  15.910  0.0215 -0.2267  0.0482
81961W        W24878  14.571  33.812  14.723  0.1117  0.3419  0.0531
81962W        W24879  16.392  33.869  16.606 -0.1321 -0.2425 -0.0229
81963W        W24880  15.673  32.634  16.588  0.2818 -0.2155  0.0060
81964W        W24881  16.885  31.696  16.343 -0.0740 -0.3075  0.1122
81965W        W24882  13.806  31.372  15.838  0.0853 -0.1556 -0.2052
81966W        W24883  14.636  30.668  17.841 -0.1077  0.1082 -0.0120
81967W        W24884  17.385  31.973  18.970  0.3526  0.0520  0.0135
81968W        W24885  13.189  33.809  14.998 -0.0560 -0.0443 -0.2373
81969W        W24886  14.746  34.490  17.219  0.0972 -0.2850  0.0763
81970W        W24887  15.717  34.200  17.003 -0.0121 -0.3416 -0.2612
81971W        W24888  16.612  33.592  19.032  0.0731  0.1345  0.0679
81972W        W24889  17.304   0.092  18.216  0.0608 -0.1971  0.1654
81973W        W24890  18.605  34.308  19.906  0.2616  0.0124  0.0257
81974W        W24891  15.871   0.524  17.161  0.1974  0.1898 -0.0287
81975W        W24892  16.553  33.256  18.247  0.0051  0.2384 -0.2338
81976W        W24893  18.440  32.847  23.419  0.2324  0.0529 -0.1935
81977W        W24894  17.212  34.416  16.489 -0.2779  0.2424 -0.0892
81978W        W24895  17.333   0.631  17.430  0.0820 -0.0333  0.4582
81979W        W24896  18.336  33.387  17.187 -0.0581  0.0104 -0.0005
81980W        W24897  16.945  34.339  16.036 -0.1213 -0.1829 -0.2708
81981W        W24898  15.687  32.328  17.240 -0.2851 -0.0213 -0.2664
81982W        W24899  15.974  33.854  17.992  0.2109 -0.0121 -0.1179
81983W        W24900  15.692  33.970  15.422 -0.5186 -0.2389  0.0113
81984W        W24901  14.323  34.311  15.437  0.0789  0.2581  0.0181
81985W        W24902  15.188  33.368  16.994 -0.2239 -0.0807  0.0215
81986W        W24903  17.583   0.151  19.032 -0.5173 -0.1952 -0.2482
81987W        W24904  14.570  33.475  19.443  0.1018 -0.3067  0.1873
81988W        W24905  17.306  31.681  16.774  0.2266 -0.0440  0.1766
81989W        W24906  20.372  33.476  18.179 -0.1971  0.0748 -0.1415
81990W        W24907  18.126  33.811  20.763  0.3868 -0.2783  0.1321
81991W        W24908  15.709  33.633  18.566  0.1238 -0.0551  0.0225
81992W        W24909  18.767   0.052  17.155 -0.1681 -0.3337 -0.0722
81993W        W24910  16.807  33.108  18.640 -0.1279 -0.3856 -0.1426
81994W        W24911  14.681  33.079  16.889 -0.0652 -0.1753  0.1753
81995W        W24912  17.169  34.370  16.956 -0.1015 -0.1851  0.0756
81996W        W24913  14.915   0.387  17.954 -0.0048  0.0053  0.1071
81997W        W24914  19.191  33.639  17.974  0.0921 -0.0247  0.3373
81998W        W24915  17.679   1.397  17.124 -0.0622  0.0549  0.0011
81999W        W24916  15.765   0.167  15.318  0.1506 -0.3079 -0.0771
82000W        W24917  13.861   1.054  18.405 -0.2456  0.1815 -0.0735
82001W        W24918  15.421  33.967  18.324 -0.2752 -0.0360 -0.1598
82002W        W24919  16.504  33.156  16.579 -0.0160 -0.1253  0.2445
82003W        W24920  16.847  34.505  19.127 -0.1639  0.0250  0.1613
82004W        W24921  14.429  32.037  14.911 -0.0687  0.1555 -0.0357
82005W        W24922  17.570  32.943  18.735  0.1846  0.2628 -0.0614
82006W        W24923  14.416  34.558  15.011 -0.1532  0.1237 -0.3811
82007W        W24924  16.460  33.794  20.246  0.0106 -0.1032 -0.1286
82008W        W24925  14.917  31.471  17.540 -0.1135 -0.1135  0.1510
82009W        W24926  15.540  33.137  15.725 -0.2308 -0.1183  0.1444
82010W        W24927  15.551  32.995  16.219 -0.1861  0.2672  0.3840
82011W        W24928  16.954  32.348  20.243 -0.1073  0.0524 -0.0125
82012W        W24929  17.180   0.311  16.621  0.2064 -0.0196 -0.0629
82013W        W24930  15.408  31.382  15.317  0.0167  0.1563  0.1736
82014W        W24931  13.136   0.858  15.864 -0.1012  0.3228  0.0601
82015W        W24932  18.539  33.864  17.059  0.0267 -0.3282 -0.2097
82016W        W24933  12.444   1.261  18.970 -0.1960  0.0256  0.1426
82017W        W24934  17.130  34.263  18.339  0.1238 -0.2020  0.0282
82018W        W24935  15.140  33.156  16.554  0.2144 -0.0517  0.3227
82019W        W24936  16.855  33.938  16.315 -0.0892 -0.1245 -0.3166
82020W        W24937  17.852   0.400  17.385  0.0658 -0.0399 -0.0984
82021W        W24938  18.056  33.103  16.157 -0.1487  0.0305  0.0217
82022W        W24939  16.626  33.630  15.261  0.0515 -0.0727 -0.0252
82023W        W24940  17.054   0.123  16.182 -0.0487  0.2049  0.1717
82024W        W24941  17.459  32.461  17.338  0.1174 -0.0424  0.0409
82025W        W24942  16.329  33.991  15.589 -0.0747 -0.3220 -0.2572
82026W        W24943  17.697  33.473  15.975 -0.1292 -0.0528 -0.3234
82027W        W24944  16.994  32.738  18.931  0.1381 -0.5287  0.0042
82028W        W24945  17.873  31.709  18.193  0.3347  0.0523 -0.0899
82029W        W24946  16.321  33.782  18.333  0.0554  0.0382 -0.1916
82030W        W24947  18.069  33.946  19.187 -0.0567 -0.0210  0.2223
82031W        W24948  19.839  33.414  19.528  0.2380 -0.4253 -0.1288
82032W        W24949  16.093   0.096  17.698 -0.1117 -0.0130 -0.3368
82033W        W24950  14.143  34.470  14.396  0.1504  0.2398 -0.0142
82034W        W24951  16.178   1.168  18.666  0.0117  0.3314  0.0035
82035W        W24952  15.457  34.311  20.085  0.1178  0.1107 -0.2859
82036W        W24953  16.184  33.477  16.322 -0.0337 -0.2539  0.0160
82037W        W24954  16.390  33.523  15.787 -0.1380 -0.0154  0.0161
82038W        W24955  19.138   0.791  17.680 -0.0851 -0.2392  0.0206
82039W        W24956  15.327  32.782  15.217  0.0399  0.0317 -0.3760
82040W        W24957  13.863   0.422  15.181 -0.0268 -0.0293  0.0865
82041W        W24958  18.152  33.713  18.201  0.0875 -0.0962 -0.0826
82042W        W24959  15.115  32.401  15.683 -0.4235 -0.5357  0.2657
82043W        W24960  15.928  34.122  17.476  0.1541 -0.4639  0.4110
82044W        W24961  16.932   0.769  17.105  0.1665 -0.0224 -0.1770
82045W        W24962  18.233   0.091  16.848  0.0404 -0.1763  0.0552
82046W        W24963  15.603  34.516  17.574  0.0928 -0.0546  0.1284
82047W        W24964  13.481   1.112  15.409 -0.0756  0.0218 -0.0145
82048W        W24965  18.440  33.582  19.063 -0.0487 -0.2397  0.2153
82049W        W24966  16.366  33.897  16.101  0.0290 -0.1187 -0.0919
82050W        W24967  15.468  34.221  16.508  0.0359 -0.2832  0.0407
82051W        W24968  14.600  33.908  16.366 -0.0274  0.2382 -0.0005
82052W        W24969  17.301  33.923  17.351 -0.2158  0.1043  0.0459
82053W        W24970  15.625  32.574  18.222 -0.1312 -0.0064  0.4369
82054W        W24971  16.760   0.036  16.671  0.2767  0.1539 -0.0570
82055W        W24972  16.677  31.806  17.260  0.0546  0.2833 -0.4346
82056W        W24973  16.667  32.324  17.155  0.2167 -0.1763  0.1039
82057W        W24974  17.582   1.890  19.963  0.4514  0.0717 -0.1510
82058W        W24975  16.238  32.779  17.801  0.0320 -0.1973 -0.1394
82059W        W24976  18.525  34.136  18.184  0.0392  0.3430 -0.1641
82060W        W24977  17.257  34.265  17.832  0.0480  0.1884 -0.0571
82061W        W24978  17.249  32.991  19.978  0.2257 -0.1813 -0.0514
82062W        W24979  17.205   0.079  15.279  0.2835  0.0666 -0.2975
82063W        W24980  18.119  32.064  19.545 -0.0463  0.2756 -0.2440
82064W        W24981  16.107  32.025  15.831  0.1976 -0.2942 -0.1612
82065W        W24982  15.525   0.327  18.535 -0.1423  0.4851  0.0746
82066W        W24983  16.695  34.159  20.525  0.0066 -0.1766  0.3987
82067W        W24984  16.682  32.832  20.065 -0.2692 -0.2323  0.2568
82068W        W24985  16.361  31.710  15.090 -0.3693  0.0835  0.2261
82069W        W24986  13.452   0.139  17.613  0.2433  0.0500  0.3354
82070W        W24987  16.298  34.276  17.743  0.0750 -0.3771 -0.4023
82071W        W24988  16.198  32.862  18.296 -0.1204  0.2493  0.0467
82072W        W24989  17.853   0.659  18.427 -0.0779 -0.2502  0.3098
82073W        W24990  16.148   0.854  18.225  0.1850  0.1811 -0.2766
82074W        W24991  15.965  33.563  16.767  0.0448  0.0488  0.1060
82075W        W24992  16.995  33.279  17.900  0.1600  0.2217 -0.1463
82076W        W24993  16.882  34.307  17.456  0.3417 -0.1124  0.0177
82077W        W24994  15.625   0.085  18.952  0.0585  0.2261  0.1198
82078W        W24995  14.306  33.650  18.568  0.1507  0.0404 -0.4085
82079W        W24996  17.421  33.426  16.821  0.2157  0.2817 -0.0959
82080W        W24997  17.341  33.009  19.246 -0.0054  0.1517  0.3747
82081W        W24998  18.937   1.768  17.943  0.1198 -0.1324 -0.1155
82082W        W24999  16.782   1.006  15.881  0.1626  0.2737 -0.0748
82083W        W25000  15.296  34.215  15.218 -0.0898  0.0723  0.1371
82084W        W25001  18.954   1.926  21.672  0.1400 -0.0909  0.1053
82085W        W25002  15.531  34.465  15.573 -0.0003 -0.0110  0.1871
82086W        W25003  16.436  34.003  19.294 -0.0503  0.0250  0.1318
82087W        W25004  18.723   1.044  17.399  0.0583 -0.1620  0.0500
82088W        W25005  12.531   1.154  16.583 -0.1707  0.0114  0.0254
82089W        W25006  16.043  32.423  16.294  0.3009 -0.0204  0.1174
82090W        W25007  15.673  33.501  16.328 -0.1091 -0.2111 -0.2287
82091W        W25008  18.208  31.954  15.662  0.1510 -0.1172  0.0354
82092W        W25009  17.762  34.044  18.534 -0.0100  0.0501  0.3222
82093W        W25010  17.895  32.623  16.209 -0.1826 -0.2164 -0.1616
82094W        W25011  17.055  33.871  16.848 -0.1746 -0.0809  0.2198
82095W        W25012  16.675  34.053  18.867  0.1215 -0.0557  0.0095
82096W        W25013  15.249  33.491  18.563 -0.0009  0.2674  0.0582
82097W        W25014  16.737  33.761  19.651  0.2140 -0.0516 -0.2246
82098W        W25015  14.298  33.029  15.255  0.1764  0.0214  0.5077
82099W        W25016  15.043  34.021  20.022 -0.0756  0.1078  0.0454
82100W        W25017  16.457  32.133  16.205  0.0694 -0.0965 -0.2550
82101W        W25018  15.913  33.819  15.899 -0.2013  0.1337 -0.0122
82102W        W25019  17.174  32.019  17.549  0.1336  0.2706 -0.1305
82103W        W25020  17.868   1.678  20.443 -0.0011 -0.0489 -0.2557
82104W        W25021  16.373  34.494  19.006  0.4733 -0.0919  0.1593
82105W        W25022  15.940  32.086  18.918 -0.0933 -0.2521 -0.1975
82106W        W25023  15.520  31.159  14.893  0.1318  0.3482 -0.0237
82107W        W25024  15.632   0.545  18.979 -0.1968 -0.4743  0.1710
82108W        W25025  19.120  33.935  21.659 -0.1009 -0.0791  0.4625
82109W        W25026  13.557   0.606  15.533  0.1847  0.0672 -0.1175
82110W        W25027  16.466  33.743  17.863 -0.0795  0.4172  0.0339
82111W        W25028  19.210  34.038  20.240 -0.0347 -0.1179 -0.1550
82112W        W25029  18.176  32.688  17.924  0.2733 -0.1265  0.1391
82113W        W25030  14.069  32.251  15.433 -0.3681 -0.1705 -0.0502
82114W        W25031  18.255   1.309  17.462  0.3418 -0.0208 -0.0607
82115W        W25032  14.616   0.092  16.741  0.0701  0.0222  0.0803
82116W        W25033  17.617  33.691  20.529 -0.2688  0.0224  0.1800
82117W        W25034  16.407  34.390  15.907  0.0689  0.1768 -0.0848
82118W        W25035  17.974  33.752  16.904  0.1437 -0.0272 -0.2260
82119W        W25036  14.485  32.810  17.431  0.1318  0.2401 -0.0433
82120W        W25037  17.515  34.240  16.127  0.2216  0.0659  0.1988
82121W        W25038  18.452  34.187  19.412 -0.2170 -0.2604 -0.5287
82122W        W25039  16.197  34.002  17.060  0.0527 -0.0218 -0.2769
82123W        W25040  13.736  34.375  16.535  0.2748 -0.0567  0.1226
82124W        W25041  17.777  32.301  16.660  0.0430  0.3884  0.0658
82125W        W25042  14.070   0.582  15.720  0.1858 -0.1307  0.2583
82126W        W25043  15.923  34.270  18.926 -0.2585 -0.1512  0.0822
82127W        W25044  15.351  32.287  15.224 -0.0248 -0.5063  0.1299
82128W        W25045  17.331  34.173  20.399  0.0631  0.0831  0.0105
82129W        W25046  17.280   0.181  17.172 -0.1082  0.1257  0.2730
82130W        W25047  13.561  33.488  16.190 -0.0406  0.0777  0.1226
82131W        W25048  18.679  33.326  16.224 -0.1199  0.0984 -0.1303
82132W        W25049  16.467  33.559  16.975  0.2247 -0.1257  0.3643
82133W        W25050  17.164  33.397  18.865  0.0476  0.1645 -0.2977
82134W        W25051  16.704  32.625  18.523 -0.3054 -0.5638 -0.0335
82135W        W25052  16.847  31.531  19.226 -0.2891 -0.4553  0.1411
82136W        W25053  14.776  32.323  18.333  0.1504 -0.5089 -0.2034
82137W        W25054  14.507  32.169  17.015 -0.1975 -0.0945  0.2843
82138W        W25055  16.925  32.446  17.671  0.2700 -0.1399 -0.0301
82139W        W25056  17.683  32.938  16.634  0.0199 -0.3162  0.0143
82140W        W25057  14.301   0.048  19.148  0.1124  0.2311 -0.0261
82141W        W25058  14.572  34.329  14.581 -0.1278 -0.0053 -0.3663
82142W        W25059  16.052  32.963  16.400 -0.3311 -0.1903  0.1061
82143W        W25060  13.612  32.338  17.700  0.1646  0.2047 -0.2676
82144W        W25061  15.077   0.537  18.862 -0.0524 -0.2547  0.5192
82145W        W25062  16.026  34.538  16.249 -0.1212  0.1608 -0.1007
82146W        W25063  13.676  31.564  18.699 -0.0023 -0.3665  0.1903
82147W        W25064  15.239  33.567  17.934  0.2484  0.2185  0.1613
82148W        W25065  15.411  32.101  16.736 -0.1083 -0.4745  0.0082
82149W        W25066  16.277   0.674  19.475 -0.2573  0.3416 -0.3537
82150W        W25067  15.993  33.305  19.763  0.0565  0.0091 -0.0373
82151W        W25068  15.448  33.562  15.886  0.0611 -0.1394 -0.2969
82152W        W25069  15.550  33.023  19.271  0.5679 -0.0356  0.0314
82153W        W25070  12.164  32.159  17.067  0.1114  0.2457  0.0731
82154W        W25071  20.163  33.642  20.290 -0.0016 -0.1992  0.0291
82155W        W25072  16.743  34.270  15.458  0.1064 -0.1122  0.0051
82156W        W25073  14.622  34.631  18.494  0.1102 -0.0180  0.1201
82157W        W25074  17.382  33.333  19.652 -0.2976 -0.3009 -0.0443
82158W        W25075  15.423   0.410  16.183  0.1208  0.1392  0.1940
82159W        W25076  15.628  33.798  17.257 -0.1155  0.2993  0.0599
82160W        W25077  15.474   0.003  14.891 -0.0479 -0.0754  0.1204
82161W        W25078  16.787   0.963  17.926  0.0699 -0.2479 -0.3706
82162W        W25079  14.342   0.148  16.327 -0.0486  0.0537  0.1991
82163W        W25080  15.725   1.421  17.339  0.0202  0.2023 -0.3126
82164W        W25081  15.532  33.218  18.271 -0.0580 -0.2447 -0.0722
82165W        W25082  15.809  34.323  15.070  0.1487  0.1703  0.4531
82166W        W25083  15.580  34.134  16.051 -0.2442 -0.0164  0.0685
82167W        W25084  16.545  32.140  18.585 -0.0810 -0.1157  0.1513
82168W        W25085  17.609  34.115  16.935 -0.1061  0.4808 -0.1097
82169W        W25086  16.931  32.359  16.184 -0.2006  0.1297  0.0007
82170W        W25087  14.488   0.129  20.208  0.0637 -0.0663  0.1671
82171W        W25088  17.417  33.767  19.181 -0.0083 -0.1330 -0.5754
82172W        W25089  16.559   1.134  19.496  0.1606 -0.0304  0.0651
82173W        W25090  15.171   0.203  21.625 -0.1596  0.0086  0.1123
82174W        W25091  14.451  31.216  22.332  0.4207  0.2601 -0.1820
82175W        W25092  16.294  34.583  21.024  0.2863 -0.0280 -0.1345
82176W        W25093  16.993  33.163  22.253  0.4817 -0.1300  0.0401
82177W        W25094  16.318  33.393  18.689 -0.0311 -0.2062  0.1259
82178W        W25095  12.639   0.222  22.269  0.3132  0.1336  0.3166
82179W        W25096  17.083  33.157  23.872 -0.1986 -0.0808 -0.1399
82180W        W25097  13.269  34.546  19.936  0.0656 -0.1149 -0.0979
82181W        W25098  15.726  32.740  22.029  0.4428  0.0150 -0.1518
82182W        W25099  15.565  33.181  22.072 -0.0722  0.2400  0.1952
82183W        W25100  13.841  34.138  22.074  0.0339 -0.3798  0.1794
82184W        W25101  15.101  33.155  23.518  0.0599  0.3745 -0.2976
82185W        W25102  15.322  33.237  17.529  0.1358 -0.3199 -0.1514
82186W        W25103  16.295  34.412  20.234  0.2976  0.1534 -0.2188
82187W        W25104  15.381  33.355  20.428 -0.2082  0.1301 -0.2025
82188W        W25105  17.360   0.284  21.768  0.0316  0.0392 -0.2896
82189W        W25106  15.586   0.289  20.690  0.1508  0.0941  0.3355
82190W        W25107  13.957  33.795  22.393  0.2596  0.0503  0.2082
82191W        W25108  16.739  32.865  24.127 -0.0260 -0.1872 -0.3015
82192W        W25109  15.231   1.344  22.013  0.0846  0.2128 -0.0706
82193W        W25110  17.253  33.628  22.167  0.0280 -0.0692  0.1155
82194W        W25111  16.385  33.478  21.451 -0.0165 -0.1920  0.0665
82195W        W25112  16.039  33.364  18.315  0.3809  0.0316  0.1101
82196W        W25113  17.233  33.284  20.408  0.0106  0.2031 -0.1886
82197W        W25114  16.791  34.511  20.941 -0.0570 -0.3387  0.0710
82198W        W25115  17.319  33.622  21.549  0.0359 -0.2381 -0.0453
82199W        W25116  16.184  33.694  20.663 -0.1920  0.0596  0.0199
82200W        W25117  15.275   1.303  22.558 -0.3948 -0.1256 -0.0860
82201W        W25118  16.472  33.076  21.932  0.1364  0.0613  0.1156
82202W        W25119  14.288  31.983  20.924  0.2504  0.0475  0.1328
82203W        W25120  15.246  33.121  25.025 -0.0384  0.2867  0.1698
82204W        W25121  15.106   0.073  23.535  0.4027  0.0145 -0.2094
82205W        W25122  16.457  30.401  18.942  0.1286  0.1076 -0.1702
82206W        W25123  17.090  33.952  20.766 -0.1325  0.0864  0.3180
82207W        W25124  16.965  32.933  22.678 -0.1974  0.1517  0.3925
82208W        W25125  14.997  31.868  22.734  0.0709 -0.5467  0.2207
82209W        W25126  16.480   0.107  20.558  0.2186  0.0327 -0.1389
82210W        W25127  14.543  32.922  22.731  0.1188  0.0132  0.2639
82211W        W25128  14.611  33.227  20.078 -0.0232 -0.1639 -0.0825
82212W        W25129  17.815  33.408  21.633  0.3004 -0.3542 -0.1170
82213W        W25130  18.748  32.632  21.113  0.0825 -0.1607 -0.0220
82214W        W25131  17.215   0.519  19.903 -0.1609  0.1303 -0.2547
82215W        W25132  15.284   1.915  19.609  0.0488  0.1959  0.4274
82216W        W25133  14.856  33.939  21.765  0.1375 -0.0122  0.0750
82217W        W25134  14.425  34.044  19.430  0.0505  0.3614 -0.1687
82218W        W25135  13.981  32.068  22.512 -0.1536 -0.1243 -0.0441
82219W        W25136  14.884  34.422  21.670  0.3096  0.0414  0.0704
82220W        W25137  17.769   0.822  22.873  0.1358  0.3775  0.2009
82221W        W25138  16.041  32.182  21.275  0.0776 -0.0517 -0.1050
82222W        W25139  15.425  34.118  22.249 -0.3024 -0.1670 -0.0440
82223W        W25140  15.835   2.085  20.842  0.2439  0.1206 -0.1273
82224W        W25141  16.707  33.566  22.410 -0.1304 -0.1832 -0.0702
82225W        W25142  14.272  32.820  23.523 -0.3441  0.1674  0.0009
82226W        W25143  16.735   0.795  18.405  0.3964  0.0061 -0.0431
82227W        W25144  14.333   0.559  17.732  0.1440  0.2359  0.1052
82228W        W25145  15.532  32.156  24.103 -0.0032  0.0654 -0.1286
82229W        W25146  16.979  34.562  20.483 -0.0932  0.1586  0.0936
82230W        W25147  16.443  32.507  18.931 -0.0729 -0.0904 -0.3828
82231W        W25148  13.727  32.527  18.808 -0.0396  0.0689  0.0135
82232W        W25149  17.687  34.346  21.449 -0.0114  0.3248 -0.2031
82233W        W25150  14.336  32.464  23.024 -0.1810  0.0107 -0.2264
82234W        W25151  15.738  33.107  23.221 -0.0968  0.1425 -0.0501
82235W        W25152  16.915   0.169  19.622  0.1147 -0.3355 -0.2844
82236W        W25153  15.597  33.908  21.329 -0.2169 -0.0088 -0.3299
82237W        W25154  16.844  33.869  21.460 -0.3177  0.1323 -0.2852
82238W        W25155  17.055  32.531  19.804 -0.1300  0.0583  0.0696
82239W        W25156  15.029  33.265  19.279  0.2380  0.0899  0.1584
82240W        W25157  16.916  33.706  20.367  0.0241 -0.1948  0.0811
82241W        W25158  17.555  31.457  21.452  0.4168 -0.3661 -0.0103
82242W        W25159  16.786   0.784  20.144  0.1464 -0.2447 -0.1751
82243W        W25160  18.285  33.832  23.469 -0.1978 -0.1870 -0.1177
82244W        W25161  16.630  34.285  21.349  0.0130  0.1188  0.2951
82245W        W25162  17.583  32.326  21.166 -0.2420  0.0405 -0.0613
82246W        W25163  15.845  31.779  23.155  0.2446  0.1222  0.0702
82247W        W25164  18.912   0.172  25.446 -0.0676 -0.0052  0.1340
82248W        W25165  16.392   1.797  20.823  0.0274  0.3409 -0.2504
82249W        W25166  15.973  33.984  22.954 -0.2199  0.0472 -0.0645
82250W        W25167  16.848   0.719  19.542 -0.0855 -0.3092 -0.1420
82251W        W25168  15.415  32.319  21.377 -0.1913 -0.0221 -0.2365
82252W        W25169  15.864  33.615  23.253  0.0250  0.2522 -0.1067
82253W        W25170  15.654  33.005  18.699 -0.1165  0.2230 -0.0136
82254W        W25171  15.418  32.538  22.416 -0.3215  0.3209 -0.1257
82255W        W25172  16.980  31.729  21.131  0.0519 -0.0726 -0.0403
82256W        W25173  16.155   0.113  19.866  0.1508  0.1718 -0.1208
82257W        W25174  14.458  31.290  20.576 -0.1514  0.0404  0.0310
82258W        W25175  16.605   1.484  20.501 -0.0202 -0.4366 -0.1848
82259W        W25176  15.898  33.848  19.803 -0.2901  0.3753  0.1058
82260W        W25177  14.788  33.144  20.989  0.0072  0.1302 -0.0190
82261W        W25178  16.107   0.258  22.729  0.0792 -0.2394 -0.0374
82262W        W25179  17.162  31.501  20.605 -0.1272 -0.1231  0.2477
82263W        W25180  14.879   0.099  22.059  0.1840 -0.1158  0.1249
82264W        W25181  13.359  32.787  19.001  0.0520 -0.1793  0.2070
82265W        W25182  16.402   0.749  24.365 -0.1348 -0.2354 -0.0343
82266W        W25183  15.761  34.387  21.188  0.1211  0.3045 -0.2178
82267W        W25184  15.570   1.087  20.599  0.1931  0.1871  0.1605
82268W        W25185  16.027   0.070  18.588 -0.2709  0.1220  0.0821
82269W        W25186  16.780  32.385  22.433  0.2455 -0.2938  0.3707
82270W        W25187  17.574  34.413  20.845 -0.1351 -0.0115 -0.0239
82271W        W25188  15.864  34.451  22.047 -0.0356 -0.5956 -0.1191
82272W        W25189  16.247   1.767  23.152 -0.2465  0.0584 -0.1052
82273W        W25190  14.122   0.797  21.181 -0.1567  0.1751 -0.0241
82274W        W25191  16.768  34.531  24.098 -0.0578  0.1611  0.3258
82275W        W25192  14.444  32.889  21.351 -0.0138  0.4727 -0.2168
82276W        W25193  17.227   0.994  20.371 -0.3725 -0.3134 -0.0623
82277W        W25194  16.406   1.032  20.477  0.0592 -0.0263  0.3786
82278W        W25195  17.974  33.579  24.233 -0.1252 -0.0954 -0.1329
82279W        W25196  16.005   0.227  21.261 -0.1335 -0.0328  0.0190
82280W        W25197  17.586  33.263  24.001  0.0075  0.0540  0.2694
82281W        W25198  15.207  33.203  22.398  0.5102 -0.1031  0.0631
82282W        W25199  12.855  33.084  25.024 -0.1149 -0.1920 -0.2386
82283W        W25200  13.876  33.640  21.705  0.2198  0.2737  0.0091
82284W        W25201  17.336  32.470  20.657  0.1923  0.2309  0.0359
82285W        W25202  13.391  32.132  20.476  0.0108  0.1138  0.0167
82286W        W25203  13.717   0.239  21.482 -0.1891 -0.4471 -0.0532
82287W        W25204  15.659   0.099  19.813  0.0212 -0.3195 -0.1637
82288W        W25205  14.617  34.030  21.228  0.1157  0.0457  0.1151
82289W        W25206  14.915   0.432  21.082 -0.1645 -0.3087 -0.1712
82290W        W25207  15.670  33.157  22.561 -0.2317 -0.1473 -0.2740
82291W        W25208  15.992  33.541  22.437  0.1041  0.0004  0.0261
82292W        W25209  16.371   0.800  21.857 -0.1020 -0.0707  0.2136
82293W        W25210  16.527  32.914  22.403  0.1144 -0.0332  0.0007
82294W        W25211  17.032  32.553  22.987 -0.0291 -0.1653  0.0534
82295W        W25212  14.696  32.726  24.346 -0.0165 -0.1097  0.0741
82296W        W25213  16.931   0.313  20.249 -0.3131  0.2741 -0.3555
82297W        W25214  16.813  33.692  23.617 -0.0307  0.2704  0.0699
82298W        W25215  17.606   1.226  21.320  0.3875 -0.2083 -0.1295
82299W        W25216  17.103   1.308  21.148 -0.0695 -0.0032  0.0245
82300W        W25217  14.165  32.054  23.936 -0.2702  0.2897  0.0554
82301W        W25218  15.473   0.532  22.622  0.1073 -0.1277 -0.0477
82302W        W25219  16.396   0.521  20.307 -0.0932 -0.0816  0.0344
82303W        W25220  15.810  30.457  23.680  0.2868 -0.2781 -0.3250
82304W        W25221  16.478  33.322  19.837 -0.3187 -0.1743  0.1502
82305W        W25222  16.043  34.213  19.431  0.1240  0.2924 -0.0933
82306W        W25223  16.994   0.830  19.039 -0.2883 -0.1173  0.0705
82307W        W25224  17.731   0.634  20.949  0.0907 -0.1129  0.0731
82308W        W25225  16.378  31.458  18.101  0.0206 -0.2579 -0.0223
82309W        W25226  16.198  33.531  22.928 -0.3442  0.1588 -0.1047
82310W        W25227  16.989  33.423  19.959  0.0657  0.2052  0.0982
82311W        W25228  16.720  33.649  20.877 -0.2456  0.1140  0.1271
82312W        W25229  17.167   2.280  20.971 -0.0744  0.1540  0.3164
82313W        W25230  17.066  34.567  21.402 -0.0857 -0.1636 -0.0562
82314W        W25231  16.130  34.495  23.059 -0.3246 -0.2298  0.2392
82315W        W25232  15.337  34.529  22.029 -0.2167 -0.1464 -0.0853
82316W        W25233  16.146  33.087  22.740 -0.0688  0.1895  0.0619
82317W        W25234  16.164  33.922  21.320  0.3904 -0.2014 -0.1082
82318W        W25235  16.304  33.479  19.397 -0.5426 -0.1279 -0.0882
82319W        W25236  17.652  33.318  20.138 -0.0424 -0.2117  0.1761
82320W        W25237  15.578   2.456  22.218  0.1572  0.2197  0.0235
82321W        W25238  20.428   1.434  21.863  0.0522  0.1753 -0.0232
82322W        W25239  15.946  33.490  21.137 -0.0504  0.0910  0.1042
82323W        W25240  16.783  32.540  19.372 -0.0224  0.1463 -0.1141
82324W        W25241  14.633  33.455  21.342  0.0772 -0.2445  0.0059
82325W        W25242  16.408  33.104  24.838 -0.0247  0.0804  0.5034
82326W        W25243  15.084   0.718  19.814  0.3587  0.0679 -0.2857
82327W        W25244  15.978  33.206  19.057 -0.1262 -0.1832  0.2458
82328W        W25245  19.977  32.378  22.646 -0.0872  0.0180 -0.0099
82329W        W25246  16.483  32.994  21.329 -0.0268 -0.1579  0.2680
82330W        W25247  15.492  31.966  19.225 -0.3123  0.0914  0.0389
82331W        W25248  18.274   0.389  21.611 -0.0839  0.0036 -0.0104
82332W        W25249  15.085  33.719  21.293 -0.1945 -0.0687 -0.0774
82333W        W25250  18.432  34.065  21.436  0.0865  0.3276 -0.1359
82334W        W25251  16.518   0.084  21.478  0.0770 -0.0385 -0.0879
82335W        W25252  17.643   0.143  21.129  0.0631  0.0354 -0.0915
82336W        W25253  14.735  34.155  22.206 -0.0640  0.2651  0.1162
82337W        W25254  16.286  32.669  20.962  0.0392 -0.0094  0.0052
82338W        W25255  15.545   0.138  23.788  0.0738 -0.1565 -0.2320
82339W        W25256  15.368   0.088  20.228 -0.1010 -0.2703  0.0716
82340W        W25257  15.336  33.887  20.390  0.2845 -0.0510 -0.0832
82341W        W25258  17.556  34.642  20.342 -0.0911 -0.2799  0.1104
82342W        W25259  13.839  33.611  18.955  0.0998  0.3086  0.0366
82343W        W25260  15.918   0.582  22.184  0.1883 -0.0036 -0.0211
82344W        W25261  15.789  33.701  19.336  0.0435 -0.0542  0.1367
82345W        W25262  17.806   0.165  21.610 -0.1326 -0.1397  0.2143
82346W        W25263  21.049   0.264  21.530  0.1528 -0.0219 -0.0825
82347W        W25264  15.263  34.439  20.644 -0.0289 -0.1476  0.1143
82348W        W25265  17.982  34.309  21.088 -0.1096 -0.1525  0.4118
82349W        W25266  14.329  33.800  21.489  0.0781  0.0605  0.0397
82350W        W25267  17.166  34.164  22.256 -0.0148 -0.0069  0.1096
82351W        W25268  15.409  34.095  21.731 -0.1657  0.0000  0.1122
82352W        W25269  17.179  32.121  22.170 -0.0177  0.1811  0.0671
82353W        W25270  15.155   1.125  20.129  0.0950  0.1326  0.1880
82354W        W25271  15.907  34.051  21.748  0.0606  0.0367 -0.1479
82355W        W25272  19.346  33.132  22.474 -0.3783  0.0813  0.1434
82356W        W25273  16.664   0.253  21.952  0.1787  0.2070  0.2427
82357W        W25274  14.511  33.257  23.563 -0.1251  0.4287  0.1526
82358W        W25275  13.884   0.259  19.457 -0.2840 -0.3426 -0.1577
82359W        W25276  16.127  31.548  23.743 -0.1623 -0.3187 -0.1251
82360W        W25277  15.398  33.538  25.274  0.0179  0.1847  0.5334
82361W        W25278  16.641   0.350  19.269 -0.0162  0.1173  0.1109
82362W        W25279  15.234  33.655  19.329  0.0473  0.0765  0.1763
82363W        W25280  15.280   0.078  21.086  0.2009  0.1283  0.1045
82364W        W25281  14.255  33.132  19.265  0.1416 -0.2187  0.0591
82365W        W25282  14.762  33.662  20.939 -0.3849  0.1214  0.1806
82366W        W25283  16.712  33.765  22.907  0.3151 -0.0168 -0.0267
82367W        W25284  15.121  32.153  24.968  0.0309  0.3117  0.1108
82368W        W25285  13.131  33.159  19.294  0.0351  0.1229 -0.0987
82369W        W25286  17.258  32.977  20.878  0.1043 -0.1020  0.3871
82370W        W25287  14.583  32.174  25.231 -0.0259 -0.0291  0.2196
82371W        W25288  17.198  34.042  21.778  0.0299  0.0410  0.0822
82372W        W25289  14.746  33.342  17.339  0.2908 -0.1879 -0.0047
82373W        W25290  15.302  32.990  20.744  0.1275 -0.3041 -0.1508
82374W        W25291  15.354  32.389  21.923  0.1170 -0.0491  0.1373
82375W        W25292  16.384  34.152  19.830  0.1422 -0.1466 -0.2418
82376W        W25293  17.117   0.579  22.295  0.0693  0.2288 -0.3059
82377W        W25294  16.162  33.816  18.876 -0.0203  0.1080  0.4613
82378W        W25295  15.025   0.020  24.835  0.3438 -0.1033  0.0280
82379W        W25296  15.858   0.035  19.376 -0.3360  0.1111 -0.0799
82380W        W25297  17.909   0.614  19.589  0.3877 -0.2200  0.3208
82381W        W25298  15.118  33.027  18.846 -0.0505 -0.0339  0.1621
82382W        W25299  13.785  33.111  19.553  0.1279 -0.0324 -0.1401
82383W        W25300  17.080   1.232  21.677 -0.1049 -0.0358  0.0183
82384W        W25301  16.329  33.500  22.004  0.0144 -0.2296 -0.2151
82385W        W25302  15.238  33.452  20.914  0.4443  0.0108  0.0996
82386W        W25303  16.771  32.451  20.681  0.2817  0.0540 -0.0089
82387W        W25304  15.068  33.910  24.778 -0.0936 -0.1657  0.0153
82388W        W25305  17.310  31.390  25.584  0.1945 -0.0838  0.1925
82389W        W25306  17.555  34.055  25.990  0.1396  0.0152  0.2649
82390W        W25307  15.574  32.753  22.821  0.3491  0.1626 -0.0894
82391W        W25308  16.000  33.832  28.378 -0.0283  0.2175  0.1064
82392W        W25309  16.059  33.939  23.860 -0.2490  0.0382  0.0557
82393W        W25310  16.363   0.531  27.325 -0.3013  0.0032  0.0456
82394W        W25311  16.011  32.612  23.062  0.2803 -0.0397  0.0057
82395W        W25312  13.793  31.693  26.559  0.1088  0.0479 -0.3063
82396W        W25313  16.483   0.929  28.230 -0.0775  0.0631  0.0495
82397W        W25314  14.500  32.737  26.143  0.1810 -0.0965 -0.0175
82398W        W25315  16.400  33.291  26.191  0.0013  0.2161  0.1426
82399W        W25316  18.018   0.611  24.948  0.4653  0.1407  0.1159
82400W        W25317  15.771  33.333  29.021 -0.0459  0.0340 -0.0610
82401W        W25318  17.132  32.468  26.097 -0.1947 -0.1381 -0.1279
82402W        W25319  12.895  32.833  22.564  0.0763 -0.0842 -0.0703
82403W        W25320  16.941  31.903  26.807 -0.1579  0.0883  0.2928
82404W        W25321  15.304   1.721  26.291 -0.1634  0.0147 -0.1325
82405W        W25322  16.545  33.466  23.932 -0.1862  0.0507  0.1518
82406W        W25323  18.488   0.659  24.605 -0.2841  0.2941  0.1579
82407W        W25324  17.418   0.296  27.309  0.2062  0.0348  0.2041
82408W        W25325  17.266   0.259  27.754  0.0020  0.2972  0.1339
82409W        W25326  16.444   1.723  26.602  0.1024  0.1084  0.0661
82410W        W25327  18.309  32.910  28.079 -0.4276 -0.0488 -0.0244
82411W        W25328  17.814   0.675  28.576  0.1843 -0.1462  0.2826
82412W        W25329  16.609  33.013  23.603 -0.0941 -0.0244  0.0721
82413W        W25330  17.482  34.420  23.198 -0.0891  0.1064 -0.1191
82414W        W25331  16.909  33.339  24.325  0.0537 -0.1831  0.1486
82415W        W25332  16.890  33.368  26.336  0.1815 -0.1002 -0.2262
82416W        W25333  18.282  33.894  25.138 -0.0632  0.1309 -0.1112
82417W        W25334  15.655  34.467  30.033 -0.0301 -0.0028  0.0595
82418W        W25335  16.728  33.300  25.780 -0.1301  0.0119 -0.2955
82419W        W25336  15.563   0.071  24.861 -0.2278  0.1617 -0.1389
82420W        W25337  15.717   0.172  26.001 -0.1491  0.0727  0.0944
82421W        W25338  14.690  34.152  26.746  0.1278 -0.0395  0.1975
82422W        W25339  16.008  32.781  23.531 -0.0834  0.0846  0.0214
82423W        W25340  17.436   1.071  25.840  0.2096  0.0909  0.0257
82424W        W25341  17.971   0.103  25.174  0.2868 -0.1653  0.3803
82425W        W25342  15.343  32.454  26.364  0.0332 -0.0726 -0.2299
82426W        W25343  17.197   1.144  23.372 -0.2617 -0.2990 -0.1871
82427W        W25344  16.914   0.646  27.998 -0.0516 -0.1018  0.0364
82428W        W25345  14.714  33.242  26.507  0.1768 -0.2618  0.0213
82429W        W25346  17.636  32.731  24.748 -0.2080  0.0494 -0.1229
82430W        W25347  14.885  31.773  26.389 -0.1142  0.0872  0.0166
82431W        W25348  16.476  31.196  25.467  0.0970  0.1940 -0.0357
82432W        W25349  17.689  34.667  24.757  0.2178 -0.1134  0.0359
82433W        W25350  14.381   0.190  27.282 -0.1444 -0.0245 -0.1724
82434W        W25351  16.220  33.320  25.232  0.1427 -0.2424  0.1772
82435W        W25352  16.417  32.537  28.523 -0.1498 -0.0082 -0.2426
82436W        W25353  15.146  34.443  27.054  0.0318 -0.2264  0.1831
82437W        W25354  16.565   0.205  27.682 -0.1941 -0.1061 -0.0260
82438W        W25355  16.454  33.160  26.653 -0.2767 -0.2735  0.0441
82439W        W25356  16.087   0.567  26.054 -0.0885  0.0111  0.1620
82440W        W25357  16.488   0.013  23.680 -0.2511 -0.3142  0.1147
82441W        W25358  17.013  34.190  29.018  0.2123  0.0126  0.0505
82442W        W25359  15.568   0.705  26.029 -0.0350  0.2469 -0.1581
82443W        W25360  16.058  33.087  22.212  0.1256 -0.1284 -0.0023
82444W        W25361  15.174  31.524  25.347 -0.0694 -0.2439 -0.2731
82445W        W25362  16.959   0.417  27.002 -0.0183  0.1041  0.2606
82446W        W25363  17.368  33.388  26.777  0.0512 -0.0725 -0.1301
82447W        W25364  14.311  32.913  22.221 -0.1774  0.0558  0.1619
82448W        W25365  13.318  33.540  24.395  0.1530  0.1604  0.1125
82449W        W25366  17.194  34.249  26.712 -0.1117  0.0252  0.1107
82450W        W25367  13.945  33.003  27.222 -0.0396  0.3063 -0.3848
82451W        W25368  15.713   1.542  26.081 -0.2358  0.0666 -0.1198
82452W        W25369  17.291  33.022  23.291  0.4164 -0.0896 -0.0639
82453W        W25370  16.673  32.996  25.221 -0.0074 -0.1240 -0.0190
82454W        W25371  16.933   0.291  24.277  0.1863 -0.0438  0.1243
82455W        W25372  16.840  33.768  25.575 -0.0799  0.0591 -0.0606
82456W        W25373  17.899  32.131  23.811 -0.3109  0.0402  0.2840
82457W        W25374  15.237  31.951  23.162 -0.3642 -0.2884  0.0546
82458W        W25375  15.962  32.898  26.106  0.1385 -0.2712  0.0444
82459W        W25376  15.740  32.862  24.241  0.0286 -0.0100 -0.1476
82460W        W25377  16.746  30.405  26.025 -0.4779 -0.2291  0.0017
82461W        W25378  17.115   0.805  25.559 -0.2051  0.2004 -0.3705
82462W        W25379  17.306   0.108  24.032  0.0752 -0.0386 -0.0189
82463W        W25380  16.365  32.972  28.743  0.0488 -0.0352 -0.0185
82464W        W25381  15.964  33.350  28.564 -0.1221 -0.1415 -0.0143
82465W        W25382  16.235  33.828  25.275 -0.0376 -0.0046  0.3623
82466W        W25383  16.817  34.168  27.919 -0.0078  0.1898 -0.3961
82467W        W25384  15.535  33.856  23.674  0.0968  0.1046 -0.2986
82468W        W25385  17.538  33.641  26.220 -0.0405  0.2180  0.1015
82469W        W25386  17.005  34.097  28.412  0.2495 -0.0854  0.0941
82470W        W25387  15.365  33.493  24.718  0.2849 -0.0991  0.3438
82471W        W25388  16.653  34.546  25.542 -0.1478  0.2555  0.3198
82472W        W25389  17.568  33.937  26.772  0.1674  0.4968 -0.0568
82473W        W25390  16.317   0.531  24.866  0.2699  0.2856  0.0886
82474W        W25391  15.848  33.826  25.029 -0.1506  0.1788  0.1103
82475W        W25392  16.708  34.472  26.184 -0.2566 -0.1726 -0.0481
82476W        W25393  16.148  34.355  27.034  0.0274 -0.4283 -0.2218
82477W        W25394  19.027  31.838  26.171 -0.0947 -0.0502 -0.1240
82478W        W25395  16.982   0.942  26.068 -0.0671  0.0617  0.1171
82479W        W25396  16.461  34.095  25.699 -0.0813 -0.0265  0.2393
82480W        W25397  15.103  33.461  25.711 -0.0797 -0.0501 -0.0797
82481W        W25398  16.963  33.045  21.653 -0.0005  0.3585  0.1390
82482W        W25399  17.553  33.437  27.966 -0.0493 -0.0439 -0.1877
82483W        W25400  14.964  33.106  26.091 -0.2143 -0.0895 -0.0592
82484W        W25401  17.161  33.761  23.977 -0.0655 -0.3234 -0.1586
82485W        W25402  17.468  33.397  24.673  0.0098 -0.3963 -0.2221
82486W        W25403  17.213  34.457  25.452 -0.5318 -0.0661 -0.0754
82487W        W25404  15.625  32.688  27.884 -0.0934 -0.1971  0.3129
82488W        W25405  15.382   1.231  25.925 -0.0962 -0.1601 -0.0684
82489W        W25406  16.502   1.044  27.360 -0.2610 -0.1221 -0.0578
82490W        W25407  14.726  30.901  26.110  0.2925 -0.0904 -0.0963
82491W        W25408  16.500  33.663  26.520 -0.0823 -0.0670 -0.3691
82492W        W25409  17.128   0.391  25.142 -0.1372 -0.0662  0.1401
82493W        W25410  18.645  32.500  24.470  0.1867  0.0811  0.2429
82494W        W25411  17.352  32.132  26.553 -0.2054  0.1290  0.2752
82495W        W25412  17.253  32.240  25.626 -0.1091  0.1567 -0.3504
82496W        W25413  18.809   0.625  22.433 -0.1332  0.1089 -0.0273
82497W        W25414  17.856  33.574  26.654 -0.0946  0.1602 -0.1335
82498W        W25415  15.122  33.631  27.490  0.3302  0.0070 -0.2305
82499W        W25416  12.719  34.107  25.359 -0.1504  0.1128 -0.3190
82500W        W25417  15.462  33.996  27.487  0.3428  0.1953 -0.3350
82501W        W25418  18.022  32.979  25.470  0.1824  0.2592 -0.0336
82502W        W25419  13.303  33.275  24.823  0.2024  0.0513  0.1372
82503W        W25420  17.350   0.604  24.010  0.0391  0.2266 -0.2943
82504W        W25421  17.756  34.628  27.737 -0.0864  0.2532  0.2286
82505W        W25422  15.476  33.826  25.668 -0.1890  0.0457 -0.2219
82506W        W25423  17.904  32.247  24.284  0.1617  0.0925  0.0364
82507W        W25424  15.930  33.934  26.655  0.2960 -0.1104  0.0693
82508W        W25425  18.008  34.287  24.880  0.2191  0.1791 -0.2744
82509W        W25426  15.749   0.017  27.026  0.2946  0.2209  0.3796
82510W        W25427  16.977  34.073  30.007 -0.1269  0.3154  0.2520
82511W        W25428  17.069   1.179  28.227 -0.0369 -0.1640  0.0012
82512W        W25429  13.736  33.879  26.571  0.0738  0.2259  0.1023
82513W        W25430  15.279  33.192  22.923 -0.1596  0.0939 -0.1208
82514W        W25431  17.933  34.339  26.104  0.3273 -0.5041 -0.3538
82515W        W25432  19.400   0.358  25.595  0.3275  0.3146  0.1040
82516W        W25433  17.232  34.196  24.276 -0.0840 -0.1437 -0.1706
82517W        W25434  14.179  34.085  26.675 -0.4099 -0.1505 -0.2228
82518W        W25435  17.949  33.707  28.017 -0.1280 -0.3488  0.2696
82519W        W25436  16.673  32.094  22.915 -0.1377  0.0385  0.1200
82520W        W25437  15.584  33.037  28.354  0.1060 -0.2665  0.0270
82521W        W25438  16.727  34.349  26.985  0.0288 -0.1362  0.3103
82522W        W25439  16.355  34.586  24.962 -0.0696 -0.0299 -0.3139
82523W        W25440  16.460  32.537  23.341 -0.1591 -0.3521 -0.1269
82524W        W25441  15.622  32.279  23.177 -0.0431 -0.0545  0.1292
82525W        W25442  17.143  34.167  25.081 -0.4791  0.0620  0.0742
82526W        W25443  18.130   1.701  26.265 -0.0314 -0.0778  0.2054
82527W        W25444  18.283  32.777  26.331  0.0678 -0.0125 -0.0326
82528W        W25445  16.555   0.387  26.654 -0.2069  0.3008 -0.0709
82529W        W25446  17.257  34.671  26.965  0.0251 -0.1306  0.2388
82530W        W25447  16.828   0.291  26.089  0.1799  0.2725 -0.2077
82531W        W25448  18.242  34.496  29.268  0.1757  0.1459  0.0922
82532W        W25449  15.339  32.769  23.254  0.1975  0.0504  0.2457
82533W        W25450  16.900   0.625  27.458 -0.1260  0.1114 -0.1114
82534W        W25451  15.736  33.719  24.515 -0.0752 -0.0606 -0.1649
82535W        W25452  14.715  33.041  24.767  0.1322  0.0315 -0.0835
82536W        W25453  18.640  32.876  22.931  0.1329 -0.2290  0.2674
82537W        W25454  17.496   0.516  28.092  0.1200 -0.0350 -0.0974
82538W        W25455  18.057  33.459  25.293 -0.1929 -0.1476  0.0305
82539W        W25456  16.673  33.791  26.058  0.1565 -0.0580  0.0144
82540W        W25457  15.359  32.572  24.349  0.0564 -0.0086  0.0080
82541W        W25458  15.321   1.536  26.751 -0.1412 -0.0139  0.1249
82542W        W25459  18.248  33.506  29.103 -0.1493  0.1468 -0.2344
82543W        W25460  12.622  31.685  23.613  0.0176  0.3449 -0.1069
82544W        W25461  15.921  34.228  24.543 -0.0675 -0.1680 -0.2949
82545W        W25462  19.540  32.576  26.256 -0.2434 -0.2177 -0.2067
82546W        W25463  18.301  33.373  26.253  0.0291  0.0096 -0.1951
82547W        W25464  13.819  33.357  24.347  0.1304  0.0962 -0.2598
82548W        W25465  16.908  34.598  25.092  0.3691  0.0107 -0.3457
82549W        W25466  15.872  33.507  25.515  0.2177 -0.0016  0.0277
82550W        W25467  18.386  33.702  26.624 -0.0502 -0.0290  0.2677
82551W        W25468  15.253  32.371  25.626  0.0278 -0.0568 -0.2562
82552W        W25469  17.336  33.670  25.059  0.2313  0.2865  0.3472
82553W        W25470  15.677  33.297  25.895  0.2884 -0.1621 -0.1289
82554W        W25471  15.969  32.101  25.554 -0.1450 -0.0204  0.1478
82555W        W25472  17.939   2.388  25.013 -0.1218 -0.0348  0.0592
82556W        W25473  16.483  32.910  25.697  0.1198  0.2168 -0.1082
82557W        W25474  15.975  32.785  26.825 -0.0615 -0.1090 -0.0024
82558W        W25475  17.121  33.313  25.381  0.1400  0.2389  0.3239
82559W        W25476  14.164   0.250  25.863 -0.1561 -0.1024  0.0352
82560W        W25477  17.432   1.611  26.231  0.0328  0.2480  0.0370
82561W        W25478  12.743  33.356  25.906  0.0394 -0.3506 -0.1854
82562W        W25479  16.486   0.845  26.896 -0.1166  0.2147 -0.1327
82563W        W25480  18.176   2.227  26.434  0.1926  0.0818  0.1007
82564W        W25481  16.104  33.726  26.172 -0.0499  0.2576  0.3061
82565W        W25482  16.986  33.321  24.877  0.0259  0.1269 -0.3671
82566W        W25483  15.789  34.588  25.533 -0.1281 -0.1890  0.2352
82567W        W25484  17.561  33.118  25.469 -0.3191 -0.1351 -0.0202
82568W        W25485  17.121  33.811  24.628 -0.1300 -0.2421 -0.1526
82569W        W25486  17.545  32.747  25.782  0.2288 -0.0122 -0.3682
82570W        W25487  16.315  32.104  26.008  0.1369 -0.2059  0.2289
82571W        W25488  16.399  33.930  26.933 -0.1033  0.1009  0.1503
82572W        W25489  17.576  33.812  24.386 -0.0894  0.0521 -0.2548
82573W        W25490  17.364  32.284  25.080 -0.0260 -0.1273 -0.0499
82574W        W25491  14.263  34.353  25.838  0.0327  0.0177 -0.1092
82575W        W25492  14.992  33.547  24.366  0.3437  0.2584  0.2144
82576W        W25493  17.193  33.583  27.279  0.1476  0.0717  0.1891
82577W        W25494  14.852  34.572  26.527 -0.0497 -0.0446  0.2907
82578W        W25495  14.490   1.443  26.353 -0.0476  0.0340 -0.2406
82579W        W25496  14.524  33.637  25.484  0.1027  0.1199  0.4287
82580W        W25497  15.523  31.947  27.052  0.2253  0.1520  0.3477
82581W        W25498  15.930  33.226  24.533 -0.0104  0.0492 -0.3859
82582W        W25499  16.533  32.662  22.849  0.0232 -0.0747  0.2635
82583W        W25500  16.765  32.958  27.705  0.4233  0.2642 -0.0652
82584W        W25501  15.658  33.449  27.436 -0.0782 -0.1056 -0.1924
82585W        W25502  12.991  32.117  22.723 -0.2282  0.1764  0.0404
82586W        W25503  17.629  34.408  25.171  0.0687  0.1429  0.2723
82587W        W25504  16.692  32.688  27.278  0.1835  0.0989  0.2175
82588W        W25505  16.764   0.785  25.211  0.1090 -0.2440  0.1676
82589W        W25506  18.983  33.925  25.748  0.2457  0.0934  0.1466
82590W        W25507  13.526  33.711  27.491  0.0896 -0.0211  0.1382
82591W        W25508  15.949  34.103  27.435 -0.0100 -0.1106  0.0690
82592W        W25509  16.152  31.184  25.877 -0.1081  0.1324 -0.1171
82593W        W25510  16.145   0.056  27.339 -0.4522  0.0133  0.2571
82594W        W25511  17.656  34.408  24.353  0.0754 -0.3558 -0.0273
82595W        W25512  17.224  33.084  28.171  0.2055 -0.0240 -0.1029
82596W        W25513  16.719  34.218  22.612 -0.0728 -0.0805  0.0405
82597W        W25514  18.018  34.566  23.153 -0.1127 -0.1523 -0.1748
82598W        W25515  13.216  33.873  26.531 -0.0248  0.0364 -0.1480
82599W        W25516  15.620   0.975  25.082  0.2131  0.1394 -0.0795
82600W        W25517  16.932  32.497  25.237 -0.0153  0.0114  0.3623
82601W        W25518  17.698   0.153  26.107 -0.1572 -0.0093 -0.0857
82602W        W25519  14.722  33.743  26.384  0.3837 -0.1532  0.2383
82603W        W25520  18.706  32.986  24.606 -0.0706 -0.2632  0.0800
82604W        W25521  14.756  33.369  27.259  0.0673  0.0381  0.0927
82605W        W25522  17.369  34.500  28.203  0.1561  0.2353 -0.4494
82606W        W25523  16.282   0.938  30.185 -0.2129 -0.0078 -0.0269
82607W        W25524  13.721  34.110  29.087 -0.0153  0.1513  0.1326
82608W        W25525  13.298  32.301  28.460  0.0767 -0.1108  0.1276
82609W        W25526  15.549   0.497  29.800 -0.1267  0.2747 -0.3343
82610W        W25527  14.966  34.242  28.217  0.1358 -0.3191 -0.0130
82611W        W25528  14.168  32.422  28.054 -0.1324  0.0972 -0.0395
82612W        W25529  14.615  34.594  30.263 -0.1588 -0.1447 -0.0699
82613W        W25530  17.848  32.398  29.468  0.0609 -0.0784 -0.0121
82614W        W25531  14.529  34.367  27.598 -0.0341 -0.2237  0.1048
82615W        W25532  16.092  33.771  29.519  0.0471  0.3351  0.0833
82616W        W25533  15.109  32.376  29.888 -0.1992 -0.3310 -0.1745
82617W        W25534  16.874  31.823  31.274 -0.1591  0.1522 -0.1486
82618W        W25535  16.539  32.286  29.871  0.0168 -0.0273 -0.2054
82619W        W25536  14.617  33.999  28.524 -0.0189 -0.0682 -0.2885
82620W        W25537  13.738  30.684  29.398  0.3173 -0.2024 -0.2562
82621W        W25538  14.421  31.792  30.908  0.3204  0.1362 -0.0198
82622W        W25539  15.417  34.466  26.619 -0.2265  0.0308 -0.0953
82623W        W25540  15.554  34.445  29.451  0.0165  0.0117  0.1931
82624W        W25541  17.120  33.308  30.135  0.0257 -0.0015 -0.0205
82625W        W25542  16.664  33.651  29.530 -0.1934  0.2327  0.2692
82626W        W25543  15.096  34.220  29.393 -0.3154 -0.0758  0.0542
82627W        W25544  16.694  33.301  28.966  0.0483 -0.1087 -0.1143
82628W        W25545  17.688  33.381  28.940 -0.3670  0.1645  0.1635
82629W        W25546  17.320  33.725  28.780  0.0907  0.0957 -0.0908
82630W        W25547  16.675   0.428  29.558  0.2678 -0.0641  0.4160
82631W        W25548  15.894  32.150  28.618  0.0642 -0.0610 -0.1531
82632W        W25549  16.217   0.404  29.360 -0.2074  0.1664 -0.0474
82633W        W25550  13.340   0.319  29.398  0.0710 -0.3123 -0.1069
82634W        W25551  16.086  34.649  30.499  0.0296  0.2483 -0.3351
82635W        W25552  15.089  34.334  27.657 -0.0002  0.0436  0.1295
82636W        W25553  13.940  32.202  26.573  0.4573 -0.3494  0.0898
82637W        W25554  13.817  34.290   0.174 -0.1506 -0.2111  0.0059
82638W        W25555  16.331  34.129  30.740  0.1002 -0.0529  0.0146
82639W        W25556  15.198  34.021  26.572 -0.0709 -0.1490 -0.4498
82640W        W25557  16.792   0.446  31.103 -0.0036  0.0719 -0.1578
82641W        W25558  19.746  32.123  31.030 -0.0874 -0.1236 -0.0687
82642W        W25559  18.907  33.563  30.409 -0.1144  0.3042 -0.0167
82643W        W25560  16.845   0.968  28.637  0.3276 -0.0154 -0.1065
82644W        W25561  14.979   0.507  30.814 -0.1298  0.0230  0.1349
82645W        W25562  16.721  32.334  30.335 -0.0988  0.1443  0.2171
82646W        W25563  15.827   0.288  30.137 -0.3262  0.0650 -0.1790
82647W        W25564  16.291  33.254  30.148  0.1192  0.0896  0.0100
82648W        W25565  20.409  33.215  29.623 -0.0351 -0.2339 -0.0138
82649W        W25566  16.550  34.502  28.220  0.2304 -0.0428 -0.4763
82650W        W25567  13.994  32.916  29.720  0.0962  0.1570 -0.3297
82651W        W25568  13.757  31.068  28.287  0.2793 -0.0638 -0.0714
82652W        W25569  13.274  32.773  29.113 -0.2033 -0.1639 -0.0268
82653W        W25570  14.899  33.782  28.964 -0.0693 -0.0307  0.0989
82654W        W25571  17.850   0.192  31.537 -0.2236 -0.1770  0.0196
82655W        W25572  15.547  32.516  28.420 -0.0545  0.2003 -0.2735
82656W        W25573  16.193   0.352  30.904 -0.1648 -0.0167  0.4419
82657W        W25574  13.390  33.317  27.732  0.0576  0.1909 -0.0391
82658W        W25575  18.220   0.002   0.439  0.1142  0.3166 -0.2042
82659W        W25576  14.532  32.967  31.223  0.1194 -0.0184 -0.4290
82660W        W25577  14.343  34.325  29.415  0.1303  0.1195 -0.0054
82661W        W25578  15.410  33.674  27.038 -0.1157  0.2045 -0.2149
82662W        W25579  17.972  31.695  31.266 -0.1302 -0.1768 -0.0970
82663W        W25580  17.750  34.629  30.355  0.3425 -0.0862  0.0366
82664W        W25581  15.166  32.761  27.668  0.1154 -0.0328  0.0894
82665W        W25582  13.068  34.530  26.291  0.0270  0.0004  0.0075
82666W        W25583  19.315  33.961  30.166 -0.2855 -0.1260  0.0427
82667W        W25584  13.553  32.663  31.384  0.1016  0.0013  0.0110
82668W        W25585  16.803  33.443  30.815  0.3489 -0.0997  0.2246
82669W        W25586  15.672  34.665  27.668  0.0338 -0.0300 -0.1577
82670W        W25587  17.364  34.451  28.753  0.0752 -0.0178  0.2058
82671W        W25588  18.745  33.282  28.827  0.0527  0.0762  0.0608
82672W        W25589  18.273   0.753  28.933  0.2573 -0.0423  0.1522
82673W        W25590  18.211   0.622  27.431 -0.0698  0.1344  0.0153
82674W        W25591  15.073   0.651  29.293  0.0102 -0.1899  0.0073
82675W        W25592  17.531  32.059  30.227 -0.2582 -0.1077 -0.1021
82676W        W25593  15.651  34.172  27.003  0.4890  0.2473  0.2465
82677W        W25594  17.756  32.835  29.100  0.1515 -0.1196  0.1961
82678W        W25595  15.178   0.062   0.242  0.1203 -0.2988  0.1419
82679W        W25596  16.854  32.271  28.874 -0.0359 -0.0127  0.1771
82680W        W25597  15.949  33.663  30.894 -0.0789  0.1425 -0.0425
82681W        W25598  17.692  34.378  30.763  0.0828 -0.0815 -0.1861
82682W        W25599  16.432  34.647  29.510 -0.0870  0.2270  0.1741
82683W        W25600  14.030   0.237  30.070 -0.2398  0.2227 -0.0669
82684W        W25601  15.763   1.040  28.635  0.0487  0.0397 -0.0335
82685W        W25602  15.609  34.335  31.477  0.2105  0.0766  0.1534
82686W        W25603  15.455  34.425   0.006 -0.0548 -0.2262  0.0292
82687W        W25604  16.188  34.423  30.012  0.1634  0.1048 -0.1875
82688W        W25605  16.435  34.096  29.761  0.0656 -0.2467 -0.1200
82689W        W25606  16.325  31.876  30.209  0.0484  0.1940 -0.0318
82690W        W25607  14.768   0.499  28.345 -0.2133  0.0488 -0.1034
82691W        W25608  14.934  33.950  30.093  0.3081 -0.1287 -0.1948
82692W        W25609  16.713  33.651  30.044  0.1817 -0.2091  0.0513
82693W        W25610  16.260  33.730  30.038  0.1042 -0.2317 -0.0006
82694W        W25611  16.109  33.270  29.632 -0.1203  0.4145 -0.1258
82695W        W25612  15.628   0.179  31.634  0.0941  0.0420 -0.1592
82696W        W25613  16.835  33.753  28.726  0.1238 -0.1779 -0.4093
82697W        W25614  16.009   1.302  29.924  0.1151 -0.0266 -0.0516
82698W        W25615  12.061  34.244  28.438  0.0603  0.1391  0.1509
82699W        W25616  13.596  34.654  29.146 -0.0665 -0.0758 -0.3506
82700W        W25617  16.472  32.661  26.838 -0.3369  0.0201 -0.1900
82701W        W25618  12.921  34.571  28.599 -0.0642 -0.0893 -0.0952
82702W        W25619  15.105  33.066  31.289 -0.0185  0.1549  0.0001
82703W        W25620  16.891  30.831  30.684  0.2254 -0.1520  0.0717
82704W        W25621  14.736  32.917  28.498  0.0774  0.0503  0.2131
82705W        W25622  14.410  33.103  28.832  0.0968  0.2314 -0.1081
82706W        W25623  17.099   1.650   0.046 -0.1603  0.4255  0.1223
82707W        W25624  16.025  34.233  29.497 -0.1127 -0.0356 -0.3393
82708W        W25625  17.122   0.849   0.363  0.4136  0.0234 -0.1035
82709W        W25626  17.115  33.633  29.750 -0.2046 -0.1002  0.0649
82710W        W25627  17.461   0.334  28.952  0.0308 -0.0966  0.0863
82711W        W25628  17.065   0.147  29.745  0.1080  0.0921  0.2434
82712W        W25629  17.358  31.733  31.646  0.3554  0.1091  0.1314
82713W        W25630  17.897   0.258  29.361 -0.1231  0.2954  0.0834
82714W        W25631  17.298   0.336  31.638  0.2121 -0.2516 -0.0586
82715W        W25632  14.786  32.485  29.490  0.0039  0.1569 -0.1759
82716W        W25633  15.768  33.553  29.950  0.1318  0.1825 -0.1080
82717W        W25634  15.147   0.988  31.809 -0.0274 -0.2891 -0.2509
82718W        W25635  14.692   0.940  30.467 -0.0048 -0.2018  0.2290
82719W        W25636  14.397  34.543  26.851 -0.3832  0.0386  0.0541
82720W        W25637  13.830   0.321  31.410  0.1788  0.1964  0.1629
82721W        W25638  16.210   0.231  31.634  0.0428 -0.3480  0.1193
82722W        W25639  12.309  34.065  29.846 -0.3490  0.3919 -0.2976
82723W        W25640  15.929   0.046  29.656 -0.0291 -0.0260  0.0097
82724W        W25641  14.660  31.439  30.129 -0.0803  0.0788  0.0831
82725W        W25642  15.477  33.962  30.251 -0.0053  0.0905 -0.1850
82726W        W25643  15.330   0.232  30.186 -0.0758  0.0548 -0.0971
82727W        W25644  16.605   0.733  29.904  0.0487  0.0771 -0.1979
82728W        W25645  14.988   2.214   0.060  0.0333 -0.0223  0.0109
82729W        W25646  15.264  33.611  29.914 -0.2692  0.0993  0.3439
82730W        W25647  18.722  32.341  27.286  0.0237 -0.0229  0.1865
82731W        W25648  18.722  34.058  29.581  0.1187  0.3085  0.2482
82732W        W25649  19.673   0.619  30.157 -0.1227 -0.0901  0.1237
82733W        W25650  15.065  33.779  28.493  0.1388 -0.0389  0.6033
82734W        W25651  14.982  32.135  30.896  0.0050 -0.2131 -0.1955
82735W        W25652  16.475   1.417  29.209  0.0963 -0.1503 -0.0037
82736W        W25653  16.663  32.956  28.196 -0.0520 -0.1299 -0.0873
82737W        W25654  16.728  34.202  31.908  0.0318  0.2668  0.0132
82738W        W25655  16.398   2.037  29.215 -0.2356 -0.0044  0.5234
82739W        W25656  11.996  31.058  31.650  0.0943 -0.0367  0.0762
82740W        W25657  15.648  33.620  26.312  0.2460 -0.0778 -0.0840
82741W        W25658  15.131   2.489  27.086 -0.2568 -0.1417  0.1370
82742W        W25659  16.428   0.754  27.787  0.1145 -0.0717 -0.2182
82743W        W25660  17.306  33.791  30.757  0.0028 -0.1145 -0.4030
82744W        W25661  17.744  32.868  28.128  0.2130 -0.1910  0.4300
82745W        W25662  15.334  32.424  30.678  0.0361  0.3774 -0.0468
82746W        W25663  15.135  33.624  29.418 -0.0225 -0.1623  0.2403
82747W        W25664  15.061  33.183  29.771 -0.1641  0.2555 -0.0284
82748W        W25665  17.441   0.126  31.212 -0.2618  0.0215 -0.2395
82749W        W25666  15.426  32.249  28.863  0.1896  0.1451  0.2919
82750W        W25667  14.910   0.095  28.599  0.0923 -0.1793  0.0419
82751W        W25668  15.873  34.044  29.913 -0.1430  0.0876 -0.4019
82752W        W25669  15.296   0.543  28.239 -0.1249 -0.1149 -0.2404
82753W        W25670  18.316  32.617  29.275  0.0080  0.1985  0.0292
82754W        W25671  16.216   0.511  30.393 -0.1092 -0.1463  0.0218
82755W        W25672  16.284   0.317  29.946 -0.0809 -0.2841 -0.3949
82756W        W25673  16.640   0.880   0.547 -0.0860  0.0218  0.0026
82757W        W25674  15.414  34.579  28.474  0.1980  0.1610 -0.0264
82758W        W25675  15.099   1.399   0.179  0.4302  0.2706 -0.2890
82759W        W25676  17.952  34.094  31.607 -0.0274 -0.0714 -0.0446
82760W        W25677  14.013   0.565  29.497  0.2083  0.2195  0.3231
82761W        W25678  16.578  34.229  28.646 -0.2927  0.0657 -0.1111
82762W        W25679  20.248  34.344  31.705 -0.0230  0.4578 -0.0364
82763W        W25680  15.609  33.240  29.547 -0.0096 -0.1911  0.0684
82764W        W25681  14.249  32.873  28.296 -0.0363 -0.1746  0.1166
82765W        W25682  18.914  34.301  30.930 -0.0672 -0.1567 -0.1694
82766W        W25683  15.392  33.508  30.411  0.0765 -0.0186 -0.1536
82767W        W25684  19.848  34.625  30.726  0.0366  0.0361 -0.3322
82768W        W25685  16.941  33.529  28.262 -0.1259  0.1464  0.0520
82769W        W25686  16.001   2.257  28.326  0.1075 -0.2378  0.0376
82770W        W25687  14.881   0.426  30.329 -0.0146 -0.1320  0.1747
82771W        W25688  15.761  33.770  27.911  0.1629 -0.1599 -0.0178
82772W        W25689  15.769   1.047   0.034  0.1541  0.1175 -0.1651
82773W        W25690  18.856  33.377  29.470 -0.1150  0.3502 -0.0695
82774W        W25691  15.375  33.949  29.059 -0.0448 -0.1987 -0.4907
82775W        W25692  16.090  32.934  29.236 -0.3074 -0.0114 -0.3410
82776W        W25693  13.144  33.042  28.030 -0.0294 -0.3445  0.0475
82777W        W25694  16.546  33.097  29.390 -0.1325  0.0826  0.1760
82778W        W25695  13.506  33.389  26.633  0.3199  0.2139  0.2708
82779W        W25696  18.844  34.059  30.452  0.1091  0.0927 -0.0675
82780W        W25697  17.832   1.477  27.619 -0.1421  0.1096 -0.0584
82781W        W25698  16.447  33.441   0.678 -0.0099 -0.2856 -0.0834
82782W        W25699  17.555  32.534  30.564 -0.2629 -0.1014 -0.0380
82783W        W25700  14.991  33.552  31.175 -0.0451 -0.3411 -0.4101
82784W        W25701  16.797  34.618  31.180 -0.2856  0.0484 -0.2047
82785W        W25702  20.762  33.054   0.297  0.4054  0.0886  0.1685
82786W        W25703  16.569  34.129  30.234  0.1962 -0.0899 -0.2642
82787W        W25704  15.038  33.264  28.276  0.2863 -0.1191  0.3138
82788W        W25705  16.296  32.811  29.721  0.3127  0.0346  0.0744
82789W        W25706  18.597  33.845  28.173  0.1115 -0.0580 -0.0263
82790W        W25707  17.210  33.001  29.081 -0.1380 -0.0891 -0.0537
82791W        W25708  16.155  34.112  31.168  0.2914  0.2752 -0.0855
82792W        W25709  14.160  33.162  29.249 -0.2114  0.1977  0.2029
82793W        W25710  16.492  32.534   0.077  0.1030 -0.1981  0.0670
82794W        W25711  17.374  33.846   0.482  0.0975  0.2079 -0.1125
82795W        W25712  14.434  34.145  28.971  0.3770 -0.1716  0.0824
82796W        W25713  13.799  33.012  26.759  0.3747 -0.0335  0.0460
82797W        W25714  16.284  33.457  29.184 -0.0387 -0.0540  0.0922
82798W        W25715  13.331  32.790  28.616 -0.0265  0.0287  0.2937
82799W        W25716  14.864  34.038  27.208 -0.1963 -0.0857  0.1102
82800W        W25717  17.083  34.008  31.587  0.2093  0.1518 -0.1400
82801W        W25718  13.999  33.821   0.418  0.0847 -0.2030  0.4042
82802W        W25719  12.711  32.378  27.248 -0.1442  0.2776 -0.0868
82803W        W25720  16.458  33.653  30.563 -0.0982  0.0058 -0.1974
82804W        W25721  14.589  31.069   0.048 -0.1741  0.2066 -0.2103
82805W        W25722  18.532  33.043  29.327  0.2314  0.0928 -0.1190
82806W        W25723  15.309   0.315  28.758  0.0169 -0.1309 -0.3427
82807W        W25724  13.728  33.413  29.669 -0.1438  0.2166 -0.0218
82808W        W25725  14.740  34.351  29.801 -0.2096  0.1624 -0.2465
82809W        W25726  15.634   1.088  30.584  0.1511 -0.1217 -0.0126
82810W        W25727  15.494  31.805  30.767 -0.2962 -0.0608  0.0673
82811W        W25728  13.199  34.460  29.400  0.0237  0.1860  0.0373
82812W        W25729  17.237  34.358  31.067  0.1186 -0.1267  0.0197
82813W        W25730  16.324  34.162  26.291 -0.1282 -0.0066 -0.1083
82814W        W25731  17.167   0.607  30.001 -0.1472  0.2971  0.1613
82815W        W25732  15.653  32.343  29.876  0.0179 -0.0610 -0.0198
82816W        W25733  13.580  33.917  29.505  0.1148  0.3646 -0.1577
82817W        W25734  13.914   0.511  30.521 -0.5496 -0.1994 -0.2466
82818W        W25735  16.327  33.184  30.624  0.0075 -0.1186 -0.1207
82819W        W25736  16.770   0.365  30.173 -0.3167 -0.0838  0.0449
82820W        W25737  17.244  34.185  27.204 -0.1124 -0.1566  0.1655
82821W        W25738  18.817  33.651  31.511 -0.0354  0.4166  0.0007
82822W        W25739  15.638   0.075   1.150  0.0505 -0.0826 -0.3277
82823W        W25740  14.782  32.144  31.640 -0.0038 -0.0615  0.1427
82824W        W25741  18.047  34.583  31.925 -0.1481  0.1164  0.2117
82825W        W25742  15.473  33.981   0.943 -0.3053 -0.0406  0.0839
82826W        W25743  18.308   1.382   1.613  0.6139 -0.0013 -0.0196
82827W        W25744  14.671  31.544  31.772  0.0784  0.1437 -0.3864
82828W        W25745  19.409  34.649   1.109 -0.1507 -0.1718 -0.0805
82829W        W25746  15.875  31.182   0.231  0.6280 -0.1122  0.1688
82830W        W25747  15.160  33.201  29.194  0.0699 -0.0277  0.1592
82831W        W25748  15.023  32.752  31.913  0.0170  0.1512  0.2401
82832W        W25749  18.278  34.560  31.456  0.1029 -0.1960 -0.1785
82833W        W25750  15.850  33.694  30.438 -0.1803  0.0467 -0.4085
82834W        W25751  15.356   0.098   0.747 -0.1861  0.1845 -0.0573
82835W        W25752  17.410   1.624  31.231 -0.1743 -0.3102 -0.1504
82836W        W25753  15.332   0.671  30.454  0.1011 -0.0851  0.0012
82837W        W25754  15.073   0.956  30.116 -0.1362  0.0919  0.0224
82838W        W25755  16.915  33.971   0.521  0.0794  0.1867  0.2034
82839W        W25756  17.023  33.786   0.076  0.2364  0.0448  0.3411
82840W        W25757  14.562  33.879  30.927  0.2546  0.0287  0.0012
82841W        W25758  16.492  33.635   0.169  0.0997 -0.3358 -0.0760
82842W        W25759  19.160  33.506   0.126 -0.0440 -0.2676  0.3200
82843W        W25760  15.691   0.312   0.464  0.0399  0.3774  0.0102
82844W        W25761  15.672  33.047  30.497 -0.0238  0.0164  0.0291
82845W        W25762  15.751  33.202  30.990  0.3387  0.1902  0.0890
82846W        W25763  15.113  33.488   0.192  0.0459 -0.1504  0.3456
82847W        W25764  16.039  33.028   1.946  0.0977  0.0383  0.0467
82848W        W25765  18.580  31.940  31.239  0.1381  0.0934 -0.0290
82849W        W25766  16.761  33.558  31.684  0.0272  0.1853  0.0262
82850W        W25767  16.236  34.296   0.140  0.0846  0.3679 -0.3537
82851W        W25768  15.542  34.537  30.555  0.1427 -0.1488  0.1549
82852W        W25769  15.643  31.979  31.707 -0.0313 -0.2066 -0.0372
82853W        W25770  16.794  32.172  30.912  0.0450  0.3789 -0.2634
82854W        W25771  17.954   1.985  30.327 -0.1297  0.0593 -0.1842
82855W        W25772  18.005   2.687  17.089  0.1647 -0.1252 -0.0446
82856W        W25773  19.002   1.226  16.234 -0.2996 -0.0749 -0.1236
82857W        W25774  20.702   1.183  16.247  0.0615  0.4242 -0.2610
82858W        W25775  21.505   1.782  18.348 -0.2039  0.2358  0.1797
82859W        W25776  18.135   0.756  16.443 -0.2360  0.0644 -0.4929
82860W        W25777  20.198   2.791  19.429 -0.1877  0.1323  0.0692
82861W        W25778  21.350  34.246  20.559 -0.0587  0.1777 -0.0207
82862W        W25779  19.869   1.626  18.819 -0.0968  0.1135 -0.0704
82863W        W25780  20.348   3.668  17.431 -0.0866  0.0446 -0.0418
82864W        W25781  21.052   1.611  16.333 -0.0270 -0.0724 -0.0633
82865W        W25782  19.501   2.998  18.080  0.0258  0.0760 -0.1804
82866W        W25783  21.014   2.060  18.583  0.2718  0.1250  0.2597
82867W        W25784  19.979  33.939  16.046 -0.2090  0.1931 -0.0771
82868W        W25785  16.717   1.673  17.350  0.0162  0.0388  0.1106
82869W        W25786  17.443   1.091  19.033 -0.0862  0.0404  0.1982
82870W        W25787  17.063   2.208  16.683  0.1094 -0.3267 -0.0726
82871W        W25788  18.060   0.251  18.761 -0.1916  0.0325 -0.1505
82872W        W25789  20.092   2.580  18.804  0.0760  0.2390 -0.0684
82873W        W25790  21.133   6.095  17.035 -0.1807 -0.2933 -0.0838
82874W        W25791  17.820   0.699  18.932 -0.1271  0.0108  0.2022
82875W        W25792  19.468   0.406  19.864  0.0907 -0.1243 -0.1880
82876W        W25793  19.108   3.007  16.160 -0.0771 -0.2145  0.0409
82877W        W25794  17.378   1.151  16.812 -0.0328  0.0786  0.0387
82878W        W25795  17.835   1.171  18.692  0.2511  0.1424  0.0419
82879W        W25796  18.610   2.621  17.589 -0.1791  0.0694 -0.1810
82880W        W25797  20.707   0.880  20.640  0.2204 -0.1940  0.0951
82881W        W25798  22.981   2.260  17.083  0.0239  0.2860 -0.2280
82882W        W25799  18.883   2.908  19.278 -0.0129  0.2587  0.1634
82883W        W25800  20.309   3.065  17.448 -0.3062  0.3304  0.0310
82884W        W25801  21.368   1.834  18.790 -0.2410  0.1642  0.0590
82885W        W25802  18.330   3.617  17.225  0.0026 -0.1815 -0.1284
82886W        W25803  18.500   4.449  18.207 -0.0024  0.0810 -0.3272
82887W        W25804  19.316   3.356  17.519 -0.2376  0.3015  0.0979
82888W        W25805  21.262   2.881  16.608  0.1924  0.1467  0.0378
82889W        W25806  22.092   3.233  18.876 -0.0288 -0.1572  0.0195
82890W        W25807  19.365   5.623  20.186  0.0603  0.0735 -0.0410
82891W        W25808  16.375   2.972  16.560  0.0547  0.1338  0.2406
82892W        W25809  17.398   4.831  18.100 -0.0325 -0.4427 -0.2342
82893W        W25810  19.729   4.931  17.575 -0.0500  0.1226 -0.2744
82894W        W25811  20.417   1.660  18.047 -0.0222  0.4222 -0.0462
82895W        W25812  22.318   1.834  20.102  0.1324 -0.2587 -0.0384
82896W        W25813  19.590   1.070  17.510 -0.0215 -0.0751 -0.1769
82897W        W25814  19.389   1.199  18.096 -0.1880 -0.2783 -0.2119
82898W        W25815  18.461   3.615  19.074 -0.1724 -0.0097 -0.1269
82899W        W25816  16.082   2.584  17.854 -0.0796  0.0094  0.1074
82900W        W25817  23.503  33.083  17.895 -0.2422  0.1531 -0.0104
82901W        W25818  17.091   3.807  17.720 -0.2018  0.2767  0.1021
82902W        W25819  21.888   0.433  19.030  0.0139  0.0311  0.0177
82903W        W25820  20.489   1.413  17.233  0.0001 -0.1666  0.2261
82904W        W25821  19.401   1.526  17.196  0.3096 -0.3087 -0.1242
82905W        W25822  20.239  34.566  16.465  0.1054 -0.1455 -0.0146
82906W        W25823  16.343   2.594  18.398 -0.1849  0.0059  0.0883
82907W        W25824  19.487  34.054  17.636 -0.1362 -0.1769 -0.1762
82908W        W25825  22.625   1.217  19.394 -0.0547  0.0489 -0.0588
82909W        W25826  20.206   1.189  18.204 -0.1018 -0.3461 -0.0691
82910W        W25827  19.078   0.325  18.918 -0.1539  0.1374  0.1582
82911W        W25828  20.311   4.252  17.160 -0.5391 -0.1973 -0.2474
82912W        W25829  18.053   3.091  16.283  0.2328  0.2527 -0.3802
82913W        W25830  21.016   3.377  16.556 -0.1208  0.0735 -0.1000
82914W        W25831  21.981   5.210  17.226  0.0739 -0.3996 -0.1061
82915W        W25832  19.308   2.314  17.209 -0.0887  0.0597  0.1442
82916W        W25833  18.686   3.013  16.990  0.0666 -0.1232  0.0093
82917W        W25834  17.506   2.375  19.941  0.0149  0.0280 -0.1932
82918W        W25835  17.536   2.858  20.206 -0.2136  0.0153  0.0894
82919W        W25836  19.096   0.129  16.621  0.0081  0.0131  0.0216
82920W        W25837  22.393   1.652  19.394 -0.2504 -0.1580 -0.0426
82921W        W25838  18.505   2.774  20.178  0.0854 -0.1440  0.0332
82922W        W25839  21.208   1.810  16.906 -0.1843 -0.2469 -0.0137
82923W        W25840  18.127   4.148  17.856  0.1150 -0.1135  0.0060
82924W        W25841  24.775   3.304  18.730  0.1638  0.2806  0.1117
82925W        W25842  20.564   1.772  16.315 -0.2951  0.1570 -0.2247
82926W        W25843  20.087  34.023  17.211 -0.0528 -0.0105 -0.2436
82927W        W25844  20.685   2.240  17.696 -0.0446  0.2305 -0.1654
82928W        W25845  19.472   1.479  16.672 -0.2234 -0.0448 -0.1053
82929W        W25846  18.704   3.396  17.487  0.2251 -0.1700 -0.0749
82930W        W25847  21.291   2.169  18.001 -0.1288 -0.1633  0.0549
82931W        W25848  21.430   1.147  17.486  0.0853 -0.1317 -0.3029
82932W        W25849  19.167   3.254  17.049  0.0257 -0.2813  0.1140
82933W        W25850  19.973   0.542  18.734  0.1375 -0.1260 -0.0683
82934W        W25851  20.310   2.295  17.361  0.1674 -0.1439  0.1209
82935W        W25852  17.688   3.471  15.477 -0.1036  0.1619  0.0413
82936W        W25853  18.673   2.319  18.424 -0.0339 -0.0757  0.4195
82937W        W25854  17.917   2.613  16.614  0.0039 -0.0158  0.0514
82938W        W25855  19.034   1.520  18.332  0.0150  0.1532  0.0799
82939W        W25856  20.245   2.109  16.299 -0.2046  0.1368  0.1713
82940W        W25857  22.266   1.063  19.689  0.1695  0.1486 -0.3742
82941W        W25858  16.829  34.646  18.151 -0.0660  0.1907  0.1239
82942W        W25859  22.569   0.109  19.301 -0.1034  0.0971 -0.0465
82943W        W25860  19.211   3.634  18.898  0.1530 -0.0700  0.1761
82944W        W25861  22.020   3.079  17.576  0.0201  0.2024 -0.1204
82945W        W25862  19.664   2.576  18.566  0.0660 -0.3464  0.1637
82946W        W25863  21.173   3.395  16.010  0.2148  0.1768 -0.0593
82947W        W25864  17.425   1.618  19.184 -0.0990  0.1937 -0.0201
82948W        W25865  17.572   3.532  17.759 -0.0991 -0.1260 -0.0699
82949W        W25866  17.272   1.559  19.748 -0.3052  0.0031  0.2163
82950W        W25867  17.732   0.972  19.972  0.2762  0.1042 -0.0906
82951W        W25868  21.087   0.419  20.868  0.0459 -0.1773  0.2066
82952W        W25869  19.155   0.069  18.491 -0.1894  0.2477  0.0201
82953W        W25870  20.535   1.039  19.086  0.0477 -0.1343 -0.3517
82954W        W25871  18.336   1.972  17.272  0.1019 -0.0243  0.0360
82955W        W25872  17.226   2.505  16.329 -0.2951  0.1240 -0.0253
82956W        W25873  19.354   1.152  19.374  0.0006 -0.0587 -0.2126
82957W        W25874  20.731   3.750  15.988 -0.0042 -0.0507  0.3341
82958W        W25875  20.797   4.961  18.601  0.2352  0.0000 -0.0621
82959W        W25876  19.525   3.739  18.457 -0.0753 -0.0395  0.0241
82960W        W25877  17.815  34.355  18.084 -0.1993  0.2082  0.1333
82961W        W25878  17.150   2.671  16.948  0.2280  0.1297 -0.1632
82962W        W25879  17.840   3.513  16.925 -0.2998 -0.2123 -0.2839
82963W        W25880  19.911   3.399  18.651 -0.4115 -0.1355 -0.1728
82964W        W25881  18.502   0.416  16.546  0.1814  0.0867 -0.3178
82965W        W25882  20.954   3.220  18.828 -0.4358 -0.3800 -0.0347
82966W        W25883  19.001   4.125  18.116  0.2654 -0.4732  0.0067
82967W        W25884  18.516   3.344  18.271 -0.0701  0.3831  0.0733
82968W        W25885  18.747   0.508  19.337 -0.0427 -0.0578 -0.2252
82969W        W25886  21.780   0.867  17.787 -0.2297  0.3151 -0.2237
82970W        W25887  19.680   1.862  17.421  0.0780  0.1684  0.0635
82971W        W25888  18.469   1.907  17.778  0.3078  0.2446 -0.3680
82972W        W25889  19.862   4.537  19.075  0.1809  0.0398  0.1621
82973W        W25890  18.008   2.612  15.994 -0.1272  0.1387  0.0240
82974W        W25891  17.532   1.989  18.299  0.3724  0.0585 -0.1471
82975W        W25892  19.096   4.455  16.380 -0.0161 -0.3078 -0.1902
82976W        W25893  22.344   0.874  17.967 -0.0238  0.3249 -0.4403
82977W        W25894  17.827   3.535  19.961 -0.1033  0.0500 -0.4748
82978W        W25895  20.449  34.613  22.248 -0.0189  0.1891  0.1306
82979W        W25896  19.889   1.439  17.911 -0.0086 -0.1921 -0.1262
82980W        W25897  18.692   3.952  18.725  0.2790  0.2817 -0.1132
82981W        W25898  22.413   0.077  18.680  0.1764  0.2985 -0.3820
82982W        W25899  20.814   0.893  18.265  0.1401 -0.2862  0.4729
82983W        W25900  21.159   2.930  17.822 -0.1432 -0.3877  0.1157
82984W        W25901  20.899   2.553  15.912  0.0406 -0.0694  0.3433
82985W        W25902  20.130   0.405  16.439 -0.0408  0.0711  0.0745
82986W        W25903  20.649   0.967  17.044  0.2109 -0.2037  0.0791
82987W        W25904  17.988   3.259  17.863 -0.4394 -0.0734 -0.2210
82988W        W25905  21.508   1.765  17.451  0.1482  0.2046  0.0588
82989W        W25906  20.302   2.516  16.575 -0.1303 -0.3668 -0.2317
82990W        W25907  19.596   1.014  16.421 -0.0641 -0.0027  0.0464
82991W        W25908  20.979   5.046  16.703  0.0574 -0.1683 -0.2686
82992W        W25909  18.172   2.329  17.640  0.1562  0.1745 -0.1868
82993W        W25910  20.108   2.049  18.604 -0.0791  0.0834  0.1836
82994W        W25911  20.727   1.618  17.645  0.0137  0.0695 -0.2670
82995W        W25912  20.345  34.644  18.973 -0.1026  0.0733 -0.2779
82996W        W25913  19.018  34.588  17.561  0.1137  0.0078 -0.1601
82997W        W25914  21.555   0.090  16.595  0.0186  0.2327 -0.2087
82998W        W25915  18.058   3.671  18.144  0.2689 -0.2926 -0.1941
82999W        W25916  22.708   1.484  18.983  0.1144 -0.0285 -0.1958
83000W        W25917  19.651   1.147  19.003  0.2366  0.0515  0.1614
83001W        W25918  20.110  33.691  19.815  0.1189  0.3932 -0.3758
83002W        W25919  21.222   2.045  19.713  0.4009 -0.0650 -0.3197
83003W        W25920  22.963   1.697  18.214  0.2286  0.1572 -0.0881
83004W        W25921  21.196   0.445  16.994  0.0913 -0.1117  0.1611
83005W        W25922  17.748   1.925  15.450 -0.0902  0.0353 -0.0660
83006W        W25923  19.895   0.963  17.890 -0.0516  0.1200 -0.5233
83007W        W25924  20.329   1.229  17.643  0.1084  0.1892  0.4024
83008W        W25925  18.400   4.244  17.351  0.1347 -0.0102  0.1839
83009W        W25926  18.921   1.219  20.190  0.1252 -0.1888 -0.4240
83010W        W25927  21.941   2.620  17.878 -0.2156  0.3789  0.1071
83011W        W25928  19.980   1.147  19.987 -0.0767 -0.3464 -0.0580
83012W        W25929  19.096   1.084  16.701  0.0275  0.2558  0.2466
83013W        W25930  17.218   2.978  16.530 -0.2166  0.0701  0.0259
83014W        W25931  17.076   3.320  17.657  0.0183  0.0602  0.0007
83015W        W25932  19.036  34.636  19.466 -0.2602 -0.1575 -0.2343
83016W        W25933  20.852   2.966  18.259 -0.0168  0.0677 -0.0955
83017W        W25934  19.964   2.885  16.613 -0.3275 -0.0064  0.0588
83018W        W25935  19.913   1.863  19.847 -0.0674 -0.7066 -0.1172
83019W        W25936  17.536   3.946  15.582  0.0136  0.0617  0.1384
83020W        W25937  23.644   0.127  19.616 -0.2308 -0.2969 -0.1296
83021W        W25938  18.028   3.983  18.801 -0.0975  0.0325  0.0786
83022W        W25939  19.956   2.067  17.887 -0.3044  0.0455 -0.0235
83023W        W25940  18.858   2.370  16.935 -0.1813 -0.1039 -0.2455
83024W        W25941  21.889   0.509  17.484  0.2296  0.0723  0.0890
83025W        W25942  20.498   2.642  17.138  0.0226  0.2056  0.1599
83026W        W25943  18.691  33.805  18.536 -0.1376 -0.0828 -0.3331
83027W        W25944  21.245   1.046  18.334  0.1522 -0.0997  0.2122
83028W        W25945  17.533   5.298  16.577 -0.1541  0.0410  0.0332
83029W        W25946  21.484   1.342  18.615  0.0934  0.1157 -0.3471
83030W        W25947  20.594   0.252  16.636  0.2479  0.4113  0.1947
83031W        W25948  19.330   3.241  19.137  0.2080  0.1047  0.1608
83032W        W25949  18.013   2.763  17.594 -0.0872  0.0013 -0.1201
83033W        W25950  16.348   2.602  16.215  0.2269  0.0098  0.0984
83034W        W25951  19.080   1.641  19.974  0.3405 -0.1435  0.2735
83035W        W25952  20.596   1.207  18.637  0.3673 -0.2525  0.3120
83036W        W25953  18.108   3.072  16.768  0.0319  0.3265 -0.3607
83037W        W25954  19.890   2.914  17.662  0.0912  0.1834 -0.0874
83038W        W25955  17.318   2.383  17.655 -0.2495 -0.2045  0.0492
83039W        W25956  19.445   3.534  16.457  0.0539 -0.0885  0.1352
83040W        W25957  18.993   0.925  19.644 -0.1935  0.1751  0.1602
83041W        W25958  21.854   1.932  18.822 -0.3903 -0.2571 -0.3180
83042W        W25959  19.536  34.367  19.660 -0.1298  0.3541 -0.3778
83043W        W25960  19.569   1.460  19.970  0.1076 -0.1796  0.2878
83044W        W25961  20.359   1.561  19.055 -0.0069  0.0053 -0.0274
83045W        W25962  21.660   2.235  19.777 -0.3432 -0.3335 -0.0199
83046W        W25963  19.578  34.432  17.370  0.1819  0.1666 -0.1361
83047W        W25964  18.538   3.745  19.612  0.1290  0.0704 -0.0798
83048W        W25965  20.048  34.626  19.454  0.1351  0.1774 -0.0754
83049W        W25966  22.184   2.124  16.610  0.2116 -0.0045 -0.1076
83050W        W25967  20.663   1.858  20.485  0.0057  0.1470 -0.2647
83051W        W25968  18.128   1.536  16.978 -0.2761 -0.0661 -0.0047
83052W        W25969  17.730   3.980  16.160  0.0362  0.0566 -0.2462
83053W        W25970  19.373   3.709  16.982 -0.1409  0.2167 -0.0428
83054W        W25971  20.482   0.632  17.411 -0.2139 -0.1640 -0.2086
83055W        W25972  18.756   4.452  17.686 -0.0329 -0.0645  0.1792
83056W        W25973  17.378   3.573  17.247 -0.1856  0.0927 -0.2330
83057W        W25974  18.402   3.477  16.775  0.1397  0.2527 -0.2653
83058W        W25975  19.509   1.764  15.794  0.0517  0.2593  0.1196
83059W        W25976  20.868   2.529  16.696 -0.0294 -0.3673  0.3490
83060W        W25977  18.649   0.894  16.430  0.1459  0.3116 -0.0381
83061W        W25978  21.651  33.881  20.782  0.1888  0.0376  0.1531
83062W        W25979  20.770   1.315  18.093  0.0527 -0.1785  0.1653
83063W        W25980  19.935   1.272  20.585 -0.1693 -0.3561  0.1197
83064W        W25981  19.623   0.559  17.794 -0.0424 -0.0491  0.1127
83065W        W25982  22.213   2.574  17.450 -0.0092 -0.0705 -0.1197
83066W        W25983  19.333   1.499  20.456 -0.3783 -0.0205  0.1411
83067W        W25984  19.503   4.010  17.342 -0.4388  0.0720 -0.1276
83068W        W25985  18.534   0.906  20.142  0.0192  0.1667  0.1456
83069W        W25986  19.318   2.735  19.164 -0.0962 -0.1787 -0.1909
83070W        W25987  18.302   1.208  18.359  0.0908 -0.1044 -0.1810
83071W        W25988  19.452   2.794  15.857 -0.0695 -0.0339  0.0684
83072W        W25989  19.888   1.405  17.365 -0.0694  0.2326  0.0024
83073W        W25990  19.283   3.487  18.109 -0.0160  0.2986  0.3442
83074W        W25991  23.401   2.728  19.014  0.1999  0.0270  0.5275
83075W        W25992  17.597   1.224  19.526  0.1429 -0.1208 -0.3874
83076W        W25993  21.188   1.676  17.941  0.0016 -0.2828  0.2568
83077W        W25994  20.150   1.874  17.072  0.0231  0.3178 -0.1525
83078W        W25995  17.614   3.358  16.492 -0.2005 -0.0585 -0.1226
83079W        W25996  20.997  33.867  19.311 -0.0508 -0.0050 -0.0675
83080W        W25997  20.766  34.417  16.703  0.0307  0.0797  0.0062
83081W        W25998  19.930   2.995  18.397 -0.2634 -0.2265  0.0799
83082W        W25999  19.539   0.160  19.404  0.2753 -0.1302  0.0812
83083W        W26000  18.468   0.650  19.720 -0.0970  0.0904 -0.3829
83084W        W26001  19.252   2.778  18.552 -0.1460 -0.1109 -0.1321
83085W        W26002  19.489   1.963  20.034  0.0081  0.3120 -0.1433
83086W        W26003  22.218   5.369  20.559  0.1567  0.0713  0.0299
83087W        W26004  22.299   1.522  16.436 -0.2014  0.3659 -0.1677
83088W        W26005  23.671   1.707  19.957  0.0366 -0.2861  0.0382
83089W        W26006  21.831   1.740  19.288 -0.2625 -0.1927 -0.0329
83090W        W26007  19.172   2.570  17.671  0.2899 -0.2768 -0.2006
83091W        W26008  19.154   1.329  18.911 -0.1170  0.1419 -0.3223
83092W        W26009  22.095   3.434  20.827 -0.2158  0.0453  0.0704
83093W        W26010  17.777   0.414  16.655 -0.0280  0.0467 -0.2069
83094W        W26011  18.934   1.810  20.475 -0.2008  0.3039 -0.0661
83095W        W26012  17.769   3.477  15.961  0.0204 -0.0970  0.0985
83096W        W26013  20.949   1.553  18.483  0.1324  0.2873 -0.2491
83097W        W26014  19.764   3.569  17.485 -0.3264 -0.0663  0.2114
83098W        W26015  18.139   1.251  16.528  0.1663  0.0791 -0.1472
83099W        W26016  17.726   4.866  17.688 -0.1847  0.1124 -0.1566
83100W        W26017  18.077   1.964  16.009 -0.0446 -0.2080  0.1097
83101W        W26018  18.890   0.506  18.416 -0.3536 -0.0805  0.0652
83102W        W26019  20.824   3.591  18.232  0.0313  0.0546 -0.1517
83103W        W26020  22.326   2.800  18.705  0.0753 -0.0251  0.3517
83104W        W26021  19.773  34.326  16.285  0.1436 -0.0902  0.2509
83105W        W26022  21.971   1.474  18.365  0.0582 -0.4424 -0.1531
83106W        W26023  18.054   3.638  16.443 -0.1102 -0.1127 -0.1019
83107W        W26024  20.065  34.086  16.652  0.1630 -0.0170  0.1089
83108W        W26025  17.110   2.954  18.029  0.3779 -0.1817 -0.0806
83109W        W26026  18.532   0.089  19.361 -0.1031 -0.0325  0.3351
83110W        W26027  19.428   5.239  16.495  0.4177 -0.0646  0.4754
83111W        W26028  17.937   1.124  19.210 -0.0672 -0.0126  0.3293
83112W        W26029  19.394   1.806  18.600  0.1758 -0.2536 -0.2945
83113W        W26030  20.285   3.706  19.876 -0.1978  0.2132 -0.1457
83114W        W26031  20.140   2.195  20.468  0.0018  0.1196  0.0576
83115W        W26032  18.373   0.208  18.342 -0.0314  0.2225 -0.0206
83116W        W26033  18.218   1.726  16.498 -0.1729 -0.0162  0.1159
83117W        W26034  19.847   1.715  18.338 -0.1463  0.1960 -0.0015
83118W        W26035  23.168   2.289  18.767 -0.1812 -0.1894  0.0959
83119W        W26036  20.450   2.202  18.166 -0.0413  0.4916  0.1233
83120W        W26037  17.886  34.383  18.977  0.0270  0.0574  0.0466
83121W        W26038  20.029   4.698  19.577  0.0913  0.2427  0.0320
83122W        W26039  21.034   1.291  18.891  0.1009 -0.1191 -0.0847
83123W        W26040  18.360   1.078  16.946  0.0784  0.0302  0.0892
83124W        W26041  21.548   6.197  17.296 -0.2746  0.0228  0.1365
83125W        W26042  18.978   4.721  18.194 -0.0685 -0.0233  0.0900
83126W        W26043  15.738   1.280  18.420 -0.1089 -0.1818 -0.0768
83127W        W26044  18.932   3.580  15.371 -0.0032  0.1458 -0.2920
83128W        W26045  20.422   3.062  16.602 -0.2326  0.0083 -0.1122
83129W        W26046  21.102   4.502  17.040  0.0336 -0.0473 -0.1131
83130W        W26047  20.690   3.845  17.730  0.0204  0.1265  0.1308
83131W        W26048  17.753   1.554  16.622  0.1375  0.3897 -0.1553
83132W        W26049  19.765   4.708  18.408 -0.1987  0.3279 -0.0547
83133W        W26050  16.164   2.451  15.056 -0.0028 -0.2819  0.2003
83134W        W26051  20.665   2.761  17.832 -0.1886  0.0246 -0.2101
83135W        W26052  18.898   5.239  18.046  0.2532  0.0214 -0.1605
83136W        W26053  22.132   3.857  16.991 -0.1559  0.2978 -0.0485
83137W        W26054  20.065   1.253  16.299 -0.1263 -0.0153 -0.1275
83138W        W26055  22.769   0.739  19.185 -0.2392 -0.3249 -0.2304
83139W        W26056  22.406   1.078  16.992 -0.0835  0.1171 -0.3874
83140W        W26057  21.573   2.657  19.556 -0.0216 -0.2815  0.1106
83141W        W26058  22.568   3.717  17.348 -0.0733 -0.1124  0.1291
83142W        W26059  18.980   0.831  15.970 -0.0604 -0.1281 -0.0084
83143W        W26060  19.156  34.130  19.512 -0.0422  0.1007 -0.0205
83144W        W26061  21.860  34.213  21.565 -0.0676 -0.0319  0.0904
83145W        W26062  17.399   3.751  19.917 -0.0515 -0.0247 -0.3205
83146W        W26063  21.114   3.563  16.986 -0.2946 -0.0024 -0.1385
83147W        W26064  17.886  33.936  16.305  0.0563 -0.2794 -0.1319
83148W        W26065  19.312   0.710  18.186  0.0268  0.2748  0.0941
83149W        W26066  21.770  33.570  19.636 -0.2966 -0.0461 -0.0118
83150W        W26067  18.894   3.426  16.645  0.2334 -0.1054  0.1851
83151W        W26068  21.176   2.466  17.661  0.0672 -0.3212 -0.1556
83152W        W26069  20.183   3.122  19.037  0.0975 -0.0375 -0.2591
83153W        W26070  19.231   4.407  17.721 -0.2010  0.1742 -0.2018
83154W        W26071  19.368   3.259  18.552  0.1695  0.2229 -0.1691
83155W        W26072  17.296   1.719  16.783 -0.1537 -0.1048  0.1381
83156W        W26073  22.000   1.905  17.452 -0.2359  0.0528 -0.1204
83157W        W26074  17.799   2.353  18.528 -0.0276  0.0355 -0.2981
83158W        W26075  20.017   1.900  19.259  0.2653 -0.1643  0.3548
83159W        W26076  20.495   1.745  18.571  0.0154  0.3574  0.0836
83160W        W26077  23.141   2.569  18.363 -0.2851 -0.2014  0.1475
83161W        W26078  20.616   2.823  18.674  0.1240  0.0944 -0.0685
83162W        W26079  19.327   2.488  18.161  0.0645 -0.0666 -0.0672
83163W        W26080  18.032   1.445  16.038  0.0598 -0.0149 -0.3671
83164W        W26081  20.807   3.604  19.214 -0.1779 -0.0673 -0.0942
83165W        W26082  19.104   2.499  16.203 -0.1136  0.0535  0.3001
83166W        W26083  22.517   3.186  17.376 -0.1910  0.0708  0.2578
83167W        W26084  17.742   3.256  17.398 -0.3543 -0.2850 -0.1616
83168W        W26085  18.614   1.390  16.492 -0.4677 -0.2861 -0.0450
83169W        W26086  18.048   2.199  16.912 -0.0928  0.3365 -0.0375
83170W        W26087  19.874   3.559  19.629 -0.0803 -0.0219  0.0563
83171W        W26088  22.139   3.389  19.451  0.3222  0.3684 -0.0007
83172W        W26089  16.255   1.302  16.317 -0.0466  0.3126  0.2209
83173W        W26090  20.399   3.413  15.839 -0.0664 -0.1708 -0.1376
83174W        W26091  18.204   2.079  18.607  0.1233 -0.0458 -0.0257
83175W        W26092  19.458   3.620  15.413 -0.1170  0.0647  0.1140
83176W        W26093  19.453   1.705  17.999 -0.0920  0.2040  0.1363
83177W        W26094  19.878   4.045  19.294 -0.0654 -0.0063 -0.1829
83178W        W26095  17.667   1.898  17.044 -0.0102 -0.1730 -0.3830
83179W        W26096  20.439   3.270  18.480  0.0119  0.1802  0.2738
83180W        W26097  21.587   2.782  17.521  0.4065  0.0659 -0.3120
83181W        W26098  19.305   2.306  16.623  0.1915  0.0092 -0.2347
83182W        W26099  19.493   2.199  17.852  0.0660  0.1752 -0.0735
83183W        W26100  18.250   3.125  17.263 -0.1820 -0.0588  0.0896
83184W        W26101  22.096   1.478  18.837  0.2978 -0.0684  0.1474
83185W        W26102  20.886   2.489  18.235  0.3394  0.0057 -0.0757
83186W        W26103  20.219   3.994  16.645  0.1023  0.0785  0.1211
83187W        W26104  21.568   1.274  18.005 -0.2659 -0.1330 -0.0658
83188W        W26105  19.376   0.831  18.723  0.2600 -0.2196  0.5056
83189W        W26106  15.694   5.229  19.903 -0.0285  0.0465 -0.2488
83190W        W26107  18.816   2.163  17.399  0.2428  0.0742 -0.2158
83191W        W26108  19.788   2.710  19.691 -0.1614  0.1122  0.1222
83192W        W26109  19.021   3.103  18.186 -0.2304  0.2569 -0.2298
83193W        W26110  19.473   2.928  17.335  0.2960 -0.0866  0.0602
83194W        W26111  20.780   3.899  16.476  0.0126 -0.0891  0.1131
83195W        W26112  20.079   0.484  17.724 -0.3067  0.0068 -0.2099
83196W        W26113  24.396   3.438  19.660 -0.1743 -0.1687  0.3531
83197W        W26114  18.693   0.782  18.869 -0.0992 -0.1249 -0.0578
83198W        W26115  22.703   0.213  19.851 -0.0910 -0.2006  0.1111
83199W        W26116  19.361   0.563  16.808  0.3174 -0.0787  0.1489
83200W        W26117  19.116   2.051  18.288 -0.0880 -0.1261  0.2057
83201W        W26118  17.150   1.407  15.860  0.1214 -0.0777  0.0824
83202W        W26119  18.387   2.654  16.387  0.0245 -0.0409 -0.2756
83203W        W26120  18.221   0.513  19.215  0.0516  0.1990 -0.1226
83204W        W26121  19.594  34.386  20.237  0.0471  0.2301 -0.0216
83205W        W26122  19.256   0.139  20.197 -0.0808  0.0534  0.0177
83206W        W26123  19.726   3.283  17.065  0.4378 -0.2247  0.1953
83207W        W26124  18.708   2.734  18.065 -0.0287  0.1466  0.3227
83208W        W26125  20.516   3.641  16.882  0.2010  0.0037 -0.0584
83209W        W26126  20.265   0.146  18.503  0.3135 -0.2512  0.1362
83210W        W26127  18.990   1.884  18.814 -0.0630  0.1709  0.2778
83211W        W26128  20.830   0.309  18.807 -0.4315  0.1238  0.1689
83212W        W26129  20.913   2.899  17.416  0.4384 -0.0431  0.0202
83213W        W26130  18.600   1.862  16.797  0.4138  0.1288  0.0167
83214W        W26131  22.035   2.825  19.283  0.0561 -0.1424 -0.0842
83215W        W26132  16.733   2.269  16.195 -0.0289 -0.1099  0.0398
83216W        W26133  21.846  34.667  21.910  0.0069 -0.1734 -0.0115
83217W        W26134  18.718  34.362  18.550 -0.0611  0.0297  0.0461
83218W        W26135  18.046   0.360  16.167 -0.0714 -0.0666  0.0641
83219W        W26136  20.614   0.743  16.516 -0.0437 -0.0051 -0.2433
83220W        W26137  20.906   2.401  19.701  0.0258 -0.1495  0.2895
83221W        W26138  21.105   4.886  17.360  0.0816 -0.1107 -0.2034
83222W        W26139  19.677   2.165  18.334  0.0235  0.1052 -0.4731
83223W        W26140  18.953   1.477  19.385 -0.1638 -0.3083  0.0066
83224W        W26141  16.653   1.165  18.906  0.1907  0.0272  0.1406
83225W        W26142  20.464   5.706  18.358  0.0342  0.2726  0.4411
83226W        W26143  18.582   1.911  19.869 -0.0522  0.1489  0.2966
83227W        W26144  20.739   1.578  16.743 -0.0891  0.1160  0.1104
83228W        W26145  20.443   2.035  19.025 -0.2563 -0.1498 -0.3451
83229W        W26146  23.416   2.075  16.963  0.0249  0.0756 -0.0531
83230W        W26147  18.153  34.600  20.309 -0.1384 -0.1091  0.1863
83231W        W26148  19.055   4.297  19.038 -0.1639  0.0251 -0.0846
83232W        W26149  21.931   2.285  19.278  0.1040 -0.1287  0.0185
83233W        W26150  16.524   1.034  16.877 -0.1986 -0.1458  0.1120
83234W        W26151  20.398   2.241  15.845 -0.2340 -0.0736 -0.1107
83235W        W26152  19.853   3.757  16.973 -0.0347  0.1547  0.0231
83236W        W26153  17.865   0.954  16.837  0.1529 -0.1801 -0.0799
83237W        W26154  19.593   2.658  16.867  0.1345  0.1034  0.3675
83238W        W26155  19.568   0.442  18.465  0.1967  0.2027 -0.3529
83239W        W26156  18.169   4.245  16.297 -0.0252 -0.2137 -0.4007
83240W        W26157  20.505   2.162  16.875  0.0999  0.0420 -0.4425
83241W        W26158  19.644   1.951  16.964  0.3383 -0.2942  0.1485
83242W        W26159  23.553   2.421  17.301  0.1865  0.1556 -0.0469
83243W        W26160  21.453   1.294  20.231 -0.0186 -0.1817  0.2558
83244W        W26161  19.503   4.056  18.933 -0.0006  0.2390  0.2875
83245W        W26162  21.461   2.127  19.231 -0.0750  0.1527 -0.1221
83246W        W26163  22.449   2.909  17.982  0.1959 -0.4940 -0.1054
83247W        W26164  19.800  34.364  20.796  0.0157  0.3326  0.0292
83248W        W26165  20.056   0.605  18.206 -0.2595  0.3184  0.2160
83249W        W26166  18.744   3.226  15.782 -0.0054 -0.0068 -0.2787
83250W        W26167  20.556   2.556  19.146 -0.2247  0.1337  0.3136
83251W        W26168  21.076   0.253  17.461 -0.0878  0.0733 -0.2292
83252W        W26169  19.236  34.401  16.962 -0.1335 -0.0536  0.0858
83253W        W26170  17.780   1.292  17.659 -0.0371  0.0133  0.1676
83254W        W26171  21.291   0.938  17.101  0.1823 -0.1446  0.1246
83255W        W26172  19.036   2.009  22.209  0.3564 -0.0337  0.0560
83256W        W26173  18.143   0.651  20.076  0.3168  0.0035 -0.2767
83257W        W26174  21.026   2.314  19.052  0.3240 -0.1288  0.1730
83258W        W26175  21.951   2.222  20.182 -0.0393 -0.2995  0.2581
83259W        W26176  17.693   3.670  21.375 -0.1099  0.3666  0.2022
83260W        W26177  19.510   3.072  20.193 -0.0355  0.0609  0.1466
83261W        W26178  18.708  34.416  22.376  0.0097 -0.0634 -0.1350
83262W        W26179  20.327   1.021  20.935  0.0341 -0.1164 -0.0128
83263W        W26180  18.847   3.686  20.951 -0.0269  0.0688 -0.0866
83264W        W26181  20.356   3.738  19.376 -0.3098  0.1167 -0.3129
83265W        W26182  21.575  34.581  20.883  0.0236  0.0006 -0.0607
83266W        W26183  19.129   4.487  21.572 -0.1319 -0.0765  0.0727
83267W        W26184  19.995   0.385  19.276 -0.2333 -0.2618 -0.2376
83268W        W26185  16.734  33.980  22.118  0.0187  0.3797 -0.0996
83269W        W26186  22.019   2.077  22.381 -0.2625  0.2147 -0.4041
83270W        W26187  18.253   1.427  18.963  0.0636 -0.1610  0.2114
83271W        W26188  19.923   1.520  23.065  0.1977 -0.0010  0.0850
83272W        W26189  19.589   2.075  19.528 -0.0916  0.0749 -0.0014
83273W        W26190  19.347   2.336  21.919  0.0040  0.3328 -0.2180
83274W        W26191  19.165   0.443  22.852 -0.0905  0.2674  0.1281
83275W        W26192  18.340   0.619  23.241 -0.0969  0.0857 -0.2105
83276W        W26193  17.992   3.095  20.230 -0.0496  0.1721  0.0308
83277W        W26194  16.718   4.784  20.107 -0.2071  0.0543 -0.1955
83278W        W26195  16.841   0.856  21.152 -0.0952 -0.1096 -0.3325
83279W        W26196  15.861   0.844  22.594  0.3595 -0.0757  0.3883
83280W        W26197  21.169   0.903  21.091  0.0567 -0.0196 -0.0533
83281W        W26198  21.003   2.727  20.571 -0.0084  0.3094  0.3979
83282W        W26199  18.853   2.485  20.044  0.4809 -0.1478 -0.0086
83283W        W26200  18.677   3.611  21.718  0.0705 -0.0677 -0.0694
83284W        W26201  22.101   1.143  22.682 -0.0063  0.0603 -0.2722
83285W        W26202  19.190   4.354  19.825 -0.2967 -0.0440  0.2786
83286W        W26203  19.817   3.751  23.162 -0.1240  0.2006  0.4627
83287W        W26204  18.595   4.791  21.635 -0.0818  0.0280 -0.2311
83288W        W26205  21.676   2.187  21.589  0.3074  0.1609  0.1055
83289W        W26206  20.524   2.234  24.248  0.0341  0.3048 -0.3932
83290W        W26207  20.333   3.763  23.347 -0.0844 -0.1673  0.0439
83291W        W26208  19.675   3.007  18.863 -0.0284 -0.0696 -0.1287
83292W        W26209  19.585   4.349  23.486 -0.0816  0.1386 -0.2981
83293W        W26210  19.818   3.651  21.885  0.0251  0.0633  0.1508
83294W        W26211  18.652   2.219  21.981 -0.1031  0.0193  0.2965
83295W        W26212  20.429   2.728  21.823 -0.1517 -0.0193 -0.1519
83296W        W26213  20.787   3.802  18.743  0.2227 -0.0264 -0.2898
83297W        W26214  19.404   1.527  22.321 -0.0511 -0.2126 -0.3289
83298W        W26215  19.329   3.867  23.421 -0.0224  0.0148  0.1745
83299W        W26216  18.961   2.188  24.211  0.3203  0.0672 -0.0987
83300W        W26217  20.562   1.635  23.739  0.0738 -0.0014 -0.0420
83301W        W26218  20.341   4.667  20.192  0.1557 -0.1853  0.0029
83302W        W26219  18.650   0.209  21.105 -0.0728 -0.1649  0.0366
83303W        W26220  19.474  34.464  17.863  0.1095  0.0662 -0.1175
83304W        W26221  19.383   1.999  20.600  0.1650  0.0466 -0.0805
83305W        W26222  19.552   0.911  21.436 -0.0463 -0.0904  0.3255
83306W        W26223  16.967   5.157  20.927 -0.1762 -0.0248 -0.2348
83307W        W26224  20.092   0.320  20.317  0.1065  0.0296  0.0882
83308W        W26225  21.308   2.671  22.302 -0.2552  0.4924  0.0760
83309W        W26226  20.152   3.645  20.992  0.5124  0.2614  0.0164
83310W        W26227  20.282   0.268  19.722 -0.2108 -0.0895  0.1500
83311W        W26228  21.131   2.953  23.481 -0.0406 -0.0950  0.0801
83312W        W26229  19.398   1.781  21.882  0.1547  0.1051  0.1897
83313W        W26230  21.765   3.623  19.810  0.3217  0.1605  0.1296
83314W        W26231  21.991   1.638  22.791  0.1342  0.1740 -0.1620
83315W        W26232  21.078   4.457  19.662  0.2467 -0.0792 -0.0967
83316W        W26233  19.426   1.013  20.929  0.2806  0.0364  0.0115
83317W        W26234  20.482   0.464  22.735 -0.1041 -0.0157 -0.0444
83318W        W26235  17.219   1.084  22.138 -0.2182 -0.0757 -0.0151
83319W        W26236  18.966   0.601  20.190  0.5113 -0.0929 -0.4803
83320W        W26237  23.440   2.408  23.077  0.1816 -0.5480 -0.2986
83321W        W26238  18.776   2.081  22.675  0.2408  0.0634  0.0898
83322W        W26239  24.083   3.284  21.140 -0.0962  0.1123  0.0182
83323W        W26240  21.602   0.850  21.433 -0.1620 -0.1152 -0.1661
83324W        W26241  20.164   4.339  22.533  0.0425 -0.0821  0.4870
83325W        W26242  21.853   3.029  19.739 -0.1666 -0.0291  0.2347
83326W        W26243  19.534  33.971  21.983 -0.0439  0.2351 -0.0273
83327W        W26244  21.046   0.421  22.068 -0.1955 -0.1900  0.3711
83328W        W26245  18.208   1.453  20.682  0.2064 -0.1825  0.0617
83329W        W26246  20.004   3.129  20.875  0.2995 -0.1386 -0.0407
83330W        W26247  22.390   2.998  22.836 -0.1263 -0.3804  0.0773
83331W        W26248  19.764   2.093  20.904 -0.0076  0.2506  0.1673
83332W        W26249  17.657   5.006  22.792  0.1456 -0.2614  0.0289
83333W        W26250  19.788   0.626  22.196  0.5850 -0.1333  0.1695
83334W        W26251  18.664   3.378  22.515  0.0136  0.0729  0.1600
83335W        W26252  17.930   3.316  18.947 -0.0334 -0.2643 -0.1452
83336W        W26253  17.452   2.127  23.847  0.0620  0.3273 -0.0251
83337W        W26254  19.388   3.385  19.696 -0.2239 -0.0041 -0.0374
83338W        W26255  15.855  33.495  21.808  0.0653  0.1457 -0.1999
83339W        W26256  18.464   3.916  20.740 -0.1570 -0.0773 -0.0043
83340W        W26257  19.303  34.602  22.827  0.0480 -0.0674 -0.2326
83341W        W26258  18.763   0.058  22.863 -0.1621  0.2174  0.0291
83342W        W26259  22.674   0.494  22.377  0.0202 -0.3450 -0.2451
83343W        W26260  18.939   1.342  23.148  0.1867 -0.5265  0.3739
83344W        W26261  21.623   3.402  24.070 -0.0872  0.0116 -0.1745
83345W        W26262  20.488   1.283  20.518 -0.0280  0.2663  0.0651
83346W        W26263  21.508   3.093  18.782 -0.1023 -0.2035 -0.0179
83347W        W26264  16.273   1.161  22.581  0.0998  0.2877 -0.0144
83348W        W26265  19.920   0.712  20.854  0.1363  0.1228  0.1967
83349W        W26266  20.255   1.873  22.902  0.1273 -0.0490 -0.0945
83350W        W26267  16.740   1.593  21.911  0.0829 -0.0388 -0.0656
83351W        W26268  18.552   3.142  21.802 -0.3925 -0.1884 -0.0212
83352W        W26269  16.802  34.321  19.598  0.0936 -0.0523 -0.1458
83353W        W26270  19.344   3.571  20.181  0.2332 -0.4871 -0.1307
83354W        W26271  19.636   1.955  23.154 -0.0671  0.1420  0.1688
83355W        W26272  20.238   4.094  21.918  0.1144 -0.2557 -0.0012
83356W        W26273  20.859   0.338  23.509  0.2505  0.2547  0.2111
83357W        W26274  17.756   4.097  19.776 -0.1359 -0.0151  0.0932
83358W        W26275  21.702   2.239  22.791  0.2214 -0.1166 -0.0375
83359W        W26276  20.411   4.609  20.818  0.0755  0.3698  0.2107
83360W        W26277  19.338   2.746  22.791 -0.1949  0.1961 -0.1409
83361W        W26278  19.158   2.135  19.210 -0.1614  0.1149 -0.0130
83362W        W26279  18.593   1.771  23.386 -0.1430 -0.4392  0.1135
83363W        W26280  17.816   2.964  22.080 -0.1297  0.1764  0.2133
83364W        W26281  17.712   0.333  20.032 -0.1980  0.1889 -0.1082
83365W        W26282  20.187   5.443  21.195  0.0869 -0.0899 -0.0364
83366W        W26283  20.796   1.323  22.484  0.1687 -0.2030 -0.1200
83367W        W26284  18.861   3.871  22.536 -0.2951 -0.2364  0.1584
83368W        W26285  22.320   3.168  20.474  0.0398  0.0044  0.2726
83369W        W26286  19.473   1.402  21.383  0.0418 -0.1477 -0.2369
83370W        W26287  22.014   2.433  21.914 -0.0268  0.0440 -0.0418
83371W        W26288  17.380   0.479  20.390  0.0052  0.0599  0.0762
83372W        W26289  20.684   4.735  21.726  0.2248 -0.0397  0.1809
83373W        W26290  19.880   2.390  20.076  0.2433 -0.0166 -0.1249
83374W        W26291  15.504   3.047  18.318 -0.0818 -0.3274  0.2972
83375W        W26292  19.665   2.765  21.142  0.0058 -0.1671  0.0813
83376W        W26293  21.281   0.281  23.253  0.5070  0.3554 -0.2477
83377W        W26294  20.268   1.197  23.499 -0.2431  0.0966  0.0874
83378W        W26295  21.398   1.783  21.948 -0.0481  0.2013 -0.0382
83379W        W26296  17.614   2.092  19.363  0.0013  0.2989  0.2007
83380W        W26297  16.619   3.461  24.180  0.0124 -0.0036 -0.3810
83381W        W26298  20.841   1.238  20.937  0.3167 -0.0063 -0.0161
83382W        W26299  21.059   0.074  20.189  0.2358  0.0661 -0.0997
83383W        W26300  19.338   2.866  21.696 -0.3058 -0.0210 -0.1157
83384W        W26301  20.451   3.051  21.080 -0.2843 -0.3253  0.0042
83385W        W26302  20.448   1.377  21.202 -0.1607 -0.0073  0.3478
83386W        W26303  17.490   0.366  18.570 -0.1028 -0.0029  0.0713
83387W        W26304  18.773   4.101  22.989  0.0121 -0.0199 -0.2429
83388W        W26305  19.149   4.254  22.385 -0.0195  0.1539 -0.1632
83389W        W26306  20.384   4.681  23.036  0.0174 -0.0230  0.2794
83390W        W26307  20.487   0.070  20.192 -0.0313 -0.2339  0.1104
83391W        W26308  22.218  34.526  19.642 -0.1460  0.0288 -0.3610
83392W        W26309  19.060   2.005  23.210  0.0334  0.1473  0.1483
83393W        W26310  23.281   1.944  24.541  0.0801 -0.1017  0.0334
83394W        W26311  21.033   0.773  21.632  0.0197 -0.2486 -0.2267
83395W        W26312  16.296  33.019  23.205 -0.0451  0.2646  0.0936
83396W        W26313  18.431   1.702  20.257  0.2726  0.1916  0.0050
83397W        W26314  19.837   0.115  19.901 -0.0351 -0.1321  0.0499
83398W        W26315  18.669   4.171  20.031 -0.2076  0.2435  0.1143
83399W        W26316  20.797   1.678  22.144 -0.2138  0.3329 -0.2155
83400W        W26317  19.381  33.997  22.997 -0.3427  0.1932  0.2480
83401W        W26318  19.022   0.410  21.990  0.0260  0.0449  0.0996
83402W        W26319  21.242   2.343  21.423  0.2656  0.0670  0.0925
83403W        W26320  21.563   2.454  20.642 -0.0191 -0.1014 -0.1793
83404W        W26321  20.455   2.831  20.477 -0.1014 -0.0596 -0.0329
83405W        W26322  18.545   1.389  19.845 -0.2608 -0.0520  0.2369
83406W        W26323  20.684   0.949  22.034 -0.2398 -0.1195  0.4418
83407W        W26324  17.015   2.057  23.600 -0.3133 -0.0766 -0.0095
83408W        W26325  20.147   2.138  22.508  0.2668  0.0800  0.3399
83409W        W26326  20.949   2.195  23.080 -0.1087  0.0222  0.1234
83410W        W26327  21.248   4.060  22.285 -0.0127 -0.1283  0.3871
83411W        W26328  21.636   0.742  24.154 -0.0733 -0.0422 -0.0495
83412W        W26329  18.113  33.220  20.896  0.1493 -0.0437 -0.0197
83413W        W26330  19.874   4.208  21.496 -0.0839 -0.0937  0.1744
83414W        W26331  18.888   2.564  18.878  0.0472 -0.1099 -0.2963
83415W        W26332  20.513   0.592  20.025  0.1018  0.0689 -0.0680
83416W        W26333  19.136   0.934  22.873  0.0787  0.0043 -0.0161
83417W        W26334  20.291   2.651  19.936 -0.1027 -0.4275  0.3666
83418W        W26335  20.165   2.586  20.939  0.1433 -0.1660  0.2701
83419W        W26336  18.495   2.208  20.307  0.0394  0.1369  0.2649
83420W        W26337  21.495   1.701  22.858  0.1623 -0.1145 -0.2591
83421W        W26338  16.636   2.080  20.471 -0.1906  0.0031  0.0575
83422W        W26339  19.746   3.076  19.398 -0.1347 -0.1671 -0.1235
83423W        W26340  19.128   0.688  21.158 -0.2748  0.0672  0.0563
83424W        W26341  21.200  33.720  20.973  0.0367 -0.0965  0.1930
83425W        W26342  22.087   2.506  19.723  0.0112  0.2476 -0.0739
83426W        W26343  17.381  34.499  21.883  0.0289  0.2170 -0.0041
83427W        W26344  19.975   0.506  23.049 -0.1304  0.1390  0.3597
83428W        W26345  17.940   3.220  21.210  0.0735 -0.0314  0.0629
83429W        W26346  19.266   2.493  20.810 -0.2623 -0.1203 -0.1092
83430W        W26347  22.186   0.331  21.004  0.1117 -0.0091  0.1554
83431W        W26348  19.549   1.215  22.866 -0.1202  0.0754 -0.0142
83432W        W26349  19.283   6.069  21.502  0.0224  0.0136 -0.0781
83433W        W26350  16.916   1.107  20.707 -0.0023  0.1133 -0.0646
83434W        W26351  21.556   2.227  22.227 -0.0695  0.3736  0.2426
83435W        W26352  20.806   1.126  21.429  0.2184  0.0949  0.3395
83436W        W26353  19.883   1.177  21.119  0.0631 -0.0692  0.2501
83437W        W26354  20.169   5.236  22.380  0.1161  0.1683 -0.2854
83438W        W26355  18.441   4.452  22.007  0.0824  0.0783  0.2789
83439W        W26356  20.872   4.510  20.639  0.1220 -0.1674  0.1768
83440W        W26357  18.845   0.908  23.868 -0.3957 -0.2247 -0.0248
83441W        W26358  20.988   1.687  22.950 -0.0568  0.3870 -0.2831
83442W        W26359  21.800   1.425  21.918  0.3722 -0.3599 -0.1711
83443W        W26360  18.079   2.060  20.083 -0.1742  0.1341 -0.1398
83444W        W26361  18.130   2.330  22.089 -0.2966 -0.2249 -0.1440
83445W        W26362  20.837   3.962  22.891  0.1399  0.0581  0.0207
83446W        W26363  21.070   1.370  21.897 -0.1480 -0.3645  0.0482
83447W        W26364  17.054   3.311  22.931 -0.3997 -0.0133  0.0239
83448W        W26365  20.878   2.556  22.714  0.0443  0.1622 -0.2590
83449W        W26366  20.191   4.183  19.664 -0.1943 -0.0785 -0.0159
83450W        W26367  20.192   3.851  22.346  0.1926  0.1945  0.0383
83451W        W26368  18.714   2.907  18.546  0.6094 -0.0087  0.2849
83452W        W26369  18.053   1.511  22.054  0.0625 -0.1521  0.0759
83453W        W26370  19.430   4.230  21.248  0.1141  0.0254  0.1242
83454W        W26371  20.828   0.434  20.468  0.0930  0.0916  0.2135
83455W        W26372  18.953   4.755  20.664  0.0034  0.1924 -0.2280
83456W        W26373  18.540   2.191  20.772  0.0796  0.1110  0.0107
83457W        W26374  16.587   1.525  22.771  0.1240 -0.3477 -0.0481
83458W        W26375  21.860  33.467  20.080  0.1917 -0.2607  0.0723
83459W        W26376  22.815   2.774  18.815 -0.4738  0.0624  0.0492
83460W        W26377  20.786   3.573  21.576 -0.0658  0.2034 -0.2686
83461W        W26378  22.421  33.929  21.970  0.1196  0.1213  0.0491
83462W        W26379  19.795   2.453  19.234 -0.2294  0.0887 -0.0943
83463W        W26380  19.703   0.838  24.013 -0.0105  0.3309 -0.1984
83464W        W26381  19.990   1.094  21.902 -0.1172 -0.1812 -0.1077
83465W        W26382  21.759   2.994  21.729  0.2103 -0.1497  0.0485
83466W        W26383  18.229   1.791  23.757 -0.1644  0.3888  0.0354
83467W        W26384  20.103   3.698  23.761  0.2615  0.0934 -0.0646
83468W        W26385  19.869   1.915  22.183  0.4646 -0.0702  0.0209
83469W        W26386  22.640   0.570  20.758  0.0477 -0.2566 -0.0490
83470W        W26387  19.384   1.615  19.575  0.1370 -0.0626  0.2172
83471W        W26388  20.222   2.086  21.145  0.0341  0.0978 -0.2371
83472W        W26389  22.503   3.181  21.128 -0.2093  0.2938  0.1210
83473W        W26390  19.875   1.462  19.487 -0.0404 -0.3883 -0.2737
83474W        W26391  21.010   0.866  20.221  0.0129  0.0203 -0.2753
83475W        W26392  17.670   2.300  22.298  0.0524 -0.1761  0.0792
83476W        W26393  22.317   0.228  21.940 -0.0731  0.1259 -0.0684
83477W        W26394  20.821   1.939  19.439  0.1517  0.0720 -0.3311
83478W        W26395  19.137  34.526  21.973 -0.2200 -0.3272 -0.1726
83479W        W26396  19.655   0.745  22.786 -0.0485  0.1234 -0.1151
83480W        W26397  21.628   2.772  21.264 -0.1306 -0.2895 -0.0657
83481W        W26398  21.037   1.607  20.652 -0.1128  0.2546 -0.0452
83482W        W26399  21.605  33.982  22.430 -0.1276  0.0431 -0.1959
83483W        W26400  22.320   1.616  21.805  0.0655  0.1059  0.0481
83484W        W26401  19.042   1.361  21.905 -0.0832  0.0588 -0.2395
83485W        W26402  17.525   1.005  23.791  0.1392 -0.1931 -0.1937
83486W        W26403  21.930   1.875  21.927 -0.2389 -0.2404  0.0241
83487W        W26404  20.456   1.091  20.036 -0.2280 -0.0632  0.1183
83488W        W26405  22.495   3.731  24.511  0.0450  0.3277  0.0837
83489W        W26406  20.906   1.760  18.987 -0.2658  0.0364 -0.1926
83490W        W26407  22.106   1.305  19.283  0.0462  0.1128 -0.3128
83491W        W26408  18.273   0.189  22.885 -0.0598 -0.0187 -0.1113
83492W        W26409  20.188   3.261  23.561  0.2055  0.2011  0.4065
83493W        W26410  19.636  33.917  21.054 -0.2237  0.1151 -0.0584
83494W        W26411  21.409   1.058  23.825 -0.2495  0.2731 -0.2765
83495W        W26412  18.946   2.314  20.476 -0.2079 -0.0652  0.1658
83496W        W26413  19.373   1.907  21.385 -0.0360  0.0543  0.0146
83497W        W26414  21.444   0.378  21.231  0.0884 -0.2264 -0.2568
83498W        W26415  17.719   0.889  22.371 -0.5224 -0.0634 -0.1088
83499W        W26416  18.588   5.116  22.975 -0.0742  0.1306 -0.0428
83500W        W26417  20.013  34.172  19.588  0.3403  0.0075 -0.0010
83501W        W26418  19.845   1.726  20.384 -0.0155 -0.0796 -0.0689
83502W        W26419  21.670   4.206  23.003  0.1369 -0.4084 -0.2318
83503W        W26420  21.911   3.118  23.091 -0.0989 -0.2492  0.0045
83504W        W26421  18.812  33.197  19.298  0.1431  0.1019  0.0215
83505W        W26422  21.924   2.475  20.992  0.0635 -0.0242  0.2299
83506W        W26423  21.466   0.648  22.272 -0.4572 -0.2588  0.0634
83507W        W26424  21.547   1.727  19.858  0.0558  0.1537 -0.2001
83508W        W26425  18.509   4.911  23.552 -0.0244  0.0350  0.0492
83509W        W26426  18.906   2.523  22.933  0.1658 -0.1685  0.0027
83510W        W26427  18.452   2.550  19.386 -0.2174 -0.1361 -0.0053
83511W        W26428  22.829  33.279  20.928 -0.1939 -0.0113 -0.0303
83512W        W26429  22.736   1.297  21.814 -0.0712  0.0824  0.0065
83513W        W26430  21.283   3.586  22.204 -0.1760  0.1715  0.1538
83514W        W26431  21.872   0.673  22.837  0.2291 -0.0417 -0.0141
83515W        W26432  20.014   2.999  21.944  0.2953  0.2134 -0.1899
83516W        W26433  20.965   1.954  21.751 -0.1748 -0.2335 -0.0859
83517W        W26434  18.525   3.323  21.317 -0.3090  0.0904 -0.0002
83518W        W26435  19.647   3.915  20.456  0.2571  0.0173 -0.1348
83519W        W26436  18.447   1.135  22.124  0.2914 -0.1419 -0.3825
83520W        W26437  17.032   1.378  22.486 -0.0331  0.0178  0.0385
83521W        W26438  20.376   2.502  22.929  0.0930 -0.1577 -0.1229
83522W        W26439  21.351   1.813  21.444 -0.0913 -0.0989 -0.0156
83523W        W26440  18.328  34.602  20.801 -0.0988 -0.0880 -0.0813
83524W        W26441  18.854   3.885  19.195 -0.0229  0.1734 -0.2028
83525W        W26442  16.671   4.870  22.193  0.0352 -0.0148 -0.2438
83526W        W26443  20.420   1.403  22.844  0.3047 -0.2371 -0.0933
83527W        W26444  21.633   1.142  21.074 -0.1370 -0.1402  0.0908
83528W        W26445  22.692   4.018  16.953 -0.1681 -0.0529  0.1685
83529W        W26446  19.074   1.366  20.817  0.1821 -0.2010  0.1481
83530W        W26447  21.407   3.839  22.749 -0.1133  0.0467 -0.2256
83531W        W26448  18.240   0.922  20.607 -0.0863 -0.0014  0.0832
83532W        W26449  17.194   3.261  22.386  0.0266  0.0988 -0.2067
83533W        W26450  19.030   2.940  20.191 -0.1081 -0.2625  0.0771
83534W        W26451  22.807   2.118  20.389 -0.0974 -0.0888 -0.0566
83535W        W26452  17.521   4.754  21.072 -0.0702  0.2336  0.2389
83536W        W26453  21.381   2.097  23.271 -0.2528 -0.0246 -0.0315
83537W        W26454  19.843  34.250  21.341  0.1921  0.3193 -0.2796
83538W        W26455  22.258   2.818  20.863 -0.1165 -0.2558  0.2298
83539W        W26456  21.491   0.389  21.819 -0.2738  0.1479  0.0145
83540W        W26457  20.285   2.360  21.559 -0.0973 -0.3915 -0.3951
83541W        W26458  20.359   1.649  22.352  0.0095  0.1984 -0.5199
83542W        W26459  20.511  33.963  20.004  0.0617 -0.1194 -0.3323
83543W        W26460  17.499   2.317  22.745 -0.0560 -0.4021  0.1523
83544W        W26461  22.082  33.773  22.341 -0.1059 -0.0559 -0.1705
83545W        W26462  16.866   5.366  24.173 -0.0029 -0.1645  0.2362
83546W        W26463  23.599   3.489  20.442 -0.0467 -0.0417 -0.1450
83547W        W26464  17.014  33.995  19.267 -0.0615  0.2266 -0.0702
83548W        W26465  19.758   2.526  20.687 -0.0174  0.0748  0.1807
83549W        W26466  22.788   0.370  24.130 -0.2841 -0.0181 -0.3939
83550W        W26467  20.474  34.481  17.968  0.3992 -0.0815 -0.2864
83551W        W26468  19.957   1.567  21.834 -0.0701 -0.1381 -0.0314
83552W        W26469  19.112   3.408  20.638 -0.0113 -0.4344 -0.2843
83553W        W26470  18.866   3.018  22.183  0.1459 -0.2021  0.3861
83554W        W26471  18.042   4.322  22.342 -0.1088  0.1494 -0.0746
83555W        W26472  19.898   1.705  21.346 -0.0458 -0.0811  0.0574
83556W        W26473  21.834   1.368  23.197  0.1938  0.1365 -0.0733
83557W        W26474  19.416   2.842  22.281 -0.0360  0.0640  0.0018
83558W        W26475  20.766   1.303  23.224  0.1127  0.0115 -0.3331
83559W        W26476  21.488   1.348  21.560  0.1390 -0.2051 -0.0484
83560W        W26477  22.220   1.141  21.963  0.3241 -0.2427 -0.0559
83561W        W26478  18.589   1.941  21.284  0.0342 -0.1445 -0.0252
83562W        W26479  18.563   1.043  23.396 -0.2239 -0.2549 -0.0650
83563W        W26480  20.859   1.605  21.450 -0.0335  0.1231 -0.4349
83564W        W26481  21.129   2.460  23.647  0.0564 -0.1248 -0.0869
83565W        W26482  19.843   0.021  18.886  0.1793  0.0271 -0.1323
83566W        W26483  18.786   3.838  23.559  0.1908  0.1101 -0.0212
83567W        W26484  18.793   0.633  21.539 -0.0195  0.2212 -0.0707
83568W        W26485  18.806   1.047  21.066 -0.0697 -0.0214 -0.0472
83569W        W26486  20.651   2.153  21.357  0.0992  0.1102 -0.2252
83570W        W26487  21.444   0.788  22.988  0.0358  0.3914  0.2274
83571W        W26488  19.549   3.038  24.631 -0.0060  0.1634  0.0306
83572W        W26489  19.008   0.129  22.391  0.0334 -0.0512  0.1182
83573W        W26490  20.903   1.357  19.368 -0.0894  0.2239  0.1590
83574W        W26491  20.977  34.562  20.688  0.1562 -0.4726 -0.0710
83575W        W26492  18.850   3.296  18.892 -0.1747 -0.1727  0.2806
83576W        W26493  20.931   3.140  20.205  0.0586  0.1284 -0.1290
83577W        W26494  19.587   3.551  20.820  0.0903 -0.1094  0.1548
83578W        W26495  19.467   0.204  22.132 -0.3286 -0.0825 -0.1052
83579W        W26496  20.681   2.150  23.523 -0.1118  0.2862  0.0210
83580W        W26497  20.611   4.070  22.388  0.0522  0.0117  0.3401
83581W        W26498  18.856   3.124  20.949  0.5691 -0.1595 -0.3496
83582W        W26499  18.244   1.907  23.046 -0.0247 -0.3516  0.1410
83583W        W26500  17.701   3.893  20.301 -0.1224 -0.0595  0.4160
83584W        W26501  21.745   0.280  23.209  0.2546  0.0519 -0.0030
83585W        W26502  20.963   0.729  23.167 -0.0015  0.0850  0.0484
83586W        W26503  18.342   5.565  20.068 -0.2295  0.4412  0.0216
83587W        W26504  20.851   0.302  25.057 -0.1412 -0.2134  0.2447
83588W        W26505  20.149   4.570  21.784  0.1428  0.3264 -0.1314
83589W        W26506  20.496   0.941  22.930  0.0636 -0.0132  0.1515
83590W        W26507  18.050   2.357  19.076  0.0036  0.1868  0.1502
83591W        W26508  17.471   3.934  22.252  0.0779  0.2672  0.1698
83592W        W26509  20.221   3.367  21.384  0.0032 -0.2587  0.0421
83593W        W26510  19.474   2.372  21.289 -0.0010  0.2043 -0.0687
83594W        W26511  20.324   3.537  21.865 -0.1370 -0.1257 -0.2170
83595W        W26512  19.585   0.433  21.191  0.0175 -0.0527  0.0358
83596W        W26513  21.122   2.578  20.996 -0.0499  0.0979  0.0647
83597W        W26514  20.375   1.809  21.545 -0.0966  0.0239  0.0636
83598W        W26515  22.114  34.517  20.700 -0.0477 -0.1683  0.0198
83599W        W26516  22.454  33.478  21.735  0.0704 -0.1825  0.1297
83600W        W26517  20.927   2.494  21.811  0.2662 -0.1922  0.2332
83601W        W26518  17.622   1.409  20.094  0.1219 -0.2103  0.1623
83602W        W26519  18.413   1.591  19.386 -0.0120  0.0670  0.2531
83603W        W26520  18.602   2.766  21.248  0.1947 -0.1379  0.1490
83604W        W26521  18.648  34.644  24.124 -0.0640 -0.0242 -0.1307
83605W        W26522  16.282   2.273  23.042  0.0761  0.3551 -0.1719
83606W        W26523  17.914   2.822  24.454 -0.0485  0.1794  0.0097
83607W        W26524  19.058   1.891  21.033 -0.1281 -0.3253  0.3385
83608W        W26525  21.607   1.577  20.668 -0.0326 -0.2194 -0.1560
83609W        W26526  17.920   1.610  21.517 -0.0994  0.0115  0.1487
83610W        W26527  18.069   1.205  22.467 -0.0587  0.2810 -0.3427
83611W        W26528  21.787   1.081  22.224  0.1441 -0.0279 -0.2108
83612W        W26529  21.045   3.796  19.908  0.0325  0.2527 -0.0243
83613W        W26530  21.073   2.185  20.572 -0.4772 -0.0005 -0.0722
83614W        W26531  20.907   2.903  25.502 -0.1051 -0.0425  0.0199
83615W        W26532  17.802   2.915  20.679 -0.1224 -0.3057 -0.1720
83616W        W26533  19.769   2.497  22.701 -0.0755  0.3264  0.5015
83617W        W26534  17.045  34.006  23.212  0.4188  0.0916  0.2828
83618W        W26535  17.654  34.215  19.369  0.0312  0.1494 -0.0593
83619W        W26536  21.401   0.126  22.220 -0.0420  0.2150  0.1681
83620W        W26537  21.027   3.306  21.194  0.0111  0.0529  0.0930
83621W        W26538  20.388   4.222  17.709  0.3019  0.1615  0.0097
83622W        W26539  19.268   2.157  22.824  0.3838 -0.1780  0.0857
83623W        W26540  20.564   2.100  21.987  0.3285 -0.0035  0.2506
83624W        W26541  18.815  32.216  22.612  0.1284 -0.2818  0.1008
83625W        W26542  18.892   3.398  19.447  0.0121 -0.1118  0.0727
83626W        W26543  18.830   1.783  24.502  0.1472 -0.1980  0.1439
83627W        W26544  21.317   3.671  18.424 -0.1473  0.3749  0.0131
83628W        W26545  21.643   2.035  21.097  0.0146 -0.1663 -0.0004
83629W        W26546  19.061   2.375  21.529  0.1641 -0.1862 -0.3120
83630W        W26547  17.099  34.486  22.854  0.0506  0.0954  0.0020
83631W        W26548  18.950   3.595  22.115  0.0026  0.2495  0.2083
83632W        W26549  19.549   4.617  23.045 -0.4740 -0.0684  0.3007
83633W        W26550  17.781   1.157  20.741 -0.2151 -0.2381 -0.2413
83634W        W26551  21.339   0.488  20.199  0.1295  0.2216 -0.0510
83635W        W26552  19.274   4.368  20.729 -0.0719 -0.2023  0.1616
83636W        W26553  20.322   1.103  22.373  0.0674 -0.3679 -0.0553
83637W        W26554  19.419   2.549  20.333  0.3270  0.0825  0.0481
83638W        W26555  19.352   2.873  23.533 -0.0472  0.2783  0.1258
83639W        W26556  20.865   3.212  20.705  0.2692 -0.1014 -0.1125
83640W        W26557  21.517   2.028  20.315  0.0337  0.3351 -0.1181
83641W        W26558  18.418   3.080  19.131 -0.1022  0.0148  0.0407
83642W        W26559  21.808   0.860  19.520 -0.4884 -0.0736  0.1747
83643W        W26560  19.037   5.745  20.656 -0.0753  0.3375  0.3380
83644W        W26561  19.544   4.241  25.232  0.1279 -0.0405  0.1329
83645W        W26562  20.807   4.567  21.167 -0.0260 -0.1791 -0.1736
83646W        W26563  21.550   0.591  20.702 -0.0054  0.4941 -0.0506
83647W        W26564  18.365   1.398  21.644 -0.0595  0.0496 -0.0596
83648W        W26565  18.728   1.995  19.391 -0.0441 -0.0153 -0.2649
83649W        W26566  21.278   3.097  21.921  0.1221 -0.1550 -0.1008
83650W        W26567  19.816   0.092  21.493  0.1312 -0.1510  0.0941
83651W        W26568  22.223   0.436  23.378 -0.0432  0.0595 -0.3510
83652W        W26569  19.310   0.615  22.369 -0.0164 -0.2543 -0.3762
83653W        W26570  18.418   3.814  22.251  0.0489  0.2041  0.1230
83654W        W26571  19.303   3.528  21.700  0.1079  0.1252  0.3595
83655W        W26572  18.763   0.718  29.019 -0.0016 -0.0959  0.2958
83656W        W26573  18.980   0.869  24.775 -0.0426  0.0935  0.2008
83657W        W26574  21.680   0.430  25.284  0.0373 -0.0160 -0.2573
83658W        W26575  22.013   2.283  25.975 -0.2186  0.2682  0.1556
83659W        W26576  17.203   1.196  24.443 -0.2331 -0.1030  0.1749
83660W        W26577  22.087   2.768  24.626  0.1591 -0.1488 -0.2210
83661W        W26578  18.918   0.383  26.987 -0.1068 -0.1994  0.0057
83662W        W26579  21.956   2.923  27.864 -0.0979 -0.0998 -0.2658
83663W        W26580  21.467   1.572  27.590 -0.0250 -0.2367  0.0338
83664W        W26581  21.600   1.238  22.723  0.2630 -0.0945 -0.0636
83665W        W26582  20.762   1.804  27.285 -0.0834  0.2037  0.1520
83666W        W26583  18.004   4.140  26.652  0.3051 -0.0307  0.0240
83667W        W26584  18.116   1.826  24.398 -0.3814 -0.0036 -0.1323
83668W        W26585  17.754  34.572  29.014 -0.1497 -0.0559 -0.0208
83669W        W26586  22.291   1.030  27.860  0.1232 -0.1823  0.1389
83670W        W26587  18.547   3.135  24.255  0.1020 -0.0747  0.4062
83671W        W26588  17.441   0.423  24.661 -0.1443  0.1625  0.2700
83672W        W26589  19.145   1.086  23.511 -0.0052 -0.0269  0.0620
83673W        W26590  18.450   2.106  24.130 -0.0871 -0.2861 -0.0987
83674W        W26591  18.874   1.245  25.234 -0.2902 -0.0840  0.2805
83675W        W26592  19.322   2.418  27.746  0.2624 -0.0935 -0.1360
83676W        W26593  20.004   2.437  24.141  0.1669  0.0966  0.0415
83677W        W26594  17.140   2.192  20.228 -0.2001  0.0392 -0.0264
83678W        W26595  17.787   0.505  27.647  0.0211  0.0581 -0.0441
83679W        W26596  18.109   2.999  26.609 -0.4963  0.1463 -0.2465
83680W        W26597  19.178   0.383  24.625  0.0015 -0.1149  0.0998
83681W        W26598  20.904   1.686  26.339 -0.5014 -0.2319  0.0976
83682W        W26599  18.455   1.509  25.210 -0.1453 -0.0114 -0.0775
83683W        W26600  20.524   1.425  25.966  0.1853 -0.1132  0.0982
83684W        W26601  22.042   0.801  27.453  0.0096  0.1157 -0.1948
83685W        W26602  19.763   2.396  25.712  0.0208 -0.0396 -0.2514
83686W        W26603  17.725   3.353  26.636 -0.1056  0.0671 -0.0064
83687W        W26604  18.131   3.473  23.719  0.2181 -0.2817  0.0320
83688W        W26605  21.029   2.587  24.952  0.0572 -0.1664 -0.0506
83689W        W26606  19.552   3.309  25.577  0.1334  0.5006 -0.1355
83690W        W26607  20.142   3.198  26.147  0.0804 -0.2098 -0.2297
83691W        W26608  15.477   0.497  24.169  0.0958  0.0909  0.2904
83692W        W26609  21.620   2.281  25.616  0.3985 -0.1663  0.1515
83693W        W26610  19.158   2.858  26.855 -0.0534 -0.2083 -0.0014
83694W        W26611  19.790   1.517  25.398  0.0804  0.0523 -0.3953
83695W        W26612  20.598   2.409  24.714 -0.0236 -0.0587 -0.0690
83696W        W26613  19.757   1.831  24.230  0.0749 -0.2759  0.1030
83697W        W26614  19.920   2.892  25.563  0.2045 -0.0994  0.0817
83698W        W26615  19.945   1.866  27.093  0.0796  0.0789 -0.1339
83699W        W26616  17.679   4.968  23.315 -0.1259  0.3158  0.2051
83700W        W26617  22.526   2.562  26.212  0.1851 -0.0813 -0.0826
83701W        W26618  19.246   3.299  22.469 -0.1313 -0.4260 -0.1205
83702W        W26619  21.353   1.757  24.719  0.1647  0.1404 -0.1108
83703W        W26620  20.637   1.522  24.442 -0.0340 -0.0241  0.3524
83704W        W26621  18.737   1.872  24.990  0.0663 -0.2689 -0.0121
83705W        W26622  20.314  33.095  23.258  0.2346  0.0059  0.0073
83706W        W26623  18.266   4.405  24.408 -0.2259 -0.1693  0.0691
83707W        W26624  20.763   1.009  25.755  0.1641 -0.1613 -0.0443
83708W        W26625  19.581   2.604  26.837  0.0553  0.0353 -0.1015
83709W        W26626  19.766   2.575  23.716 -0.0938 -0.1801  0.2455
83710W        W26627  20.022   2.546  26.581  0.0140 -0.1060  0.0098
83711W        W26628  18.729   1.560  25.885  0.4058 -0.0891  0.2663
83712W        W26629  19.053   1.947  25.939 -0.0284  0.0318  0.0930
83713W        W26630  20.966   2.292  22.251 -0.4660  0.0126 -0.0874
83714W        W26631  22.985   3.768  26.177  0.2563  0.0740  0.3479
83715W        W26632  19.564   3.230  22.052  0.1738 -0.1260  0.2511
83716W        W26633  20.691   3.363  23.299  0.3906 -0.0446 -0.2503
83717W        W26634  17.672   2.556  25.879  0.0964  0.0172 -0.1062
83718W        W26635  18.322   2.492  25.980  0.1358 -0.0061  0.0255
83719W        W26636  18.848   0.614  23.344  0.0243  0.3464 -0.2058
83720W        W26637  20.854   2.830  26.026  0.1287  0.0429 -0.1323
83721W        W26638  18.871   4.059  26.209  0.2325 -0.2213  0.1399
83722W        W26639  20.964   3.372  25.712  0.1363 -0.0292  0.2155
83723W        W26640  17.661   2.335  24.595  0.6845  0.0133  0.0142
83724W        W26641  21.416   2.194  26.751 -0.2316 -0.1489 -0.3406
83725W        W26642  22.766   2.021  23.640  0.3399 -0.0496 -0.1836
83726W        W26643  21.239  33.847  25.600 -0.3403 -0.0560  0.0005
83727W        W26644  19.066   1.343  24.501 -0.1475  0.1106 -0.1509
83728W        W26645  19.176   0.885  24.222 -0.0280 -0.3786  0.0699
83729W        W26646  21.503   2.601  21.823 -0.0571 -0.0432 -0.0608
83730W        W26647  21.544   3.372  26.629 -0.1122 -0.1571  0.2834
83731W        W26648  21.385   1.743  25.728 -0.4193  0.1166 -0.0724
83732W        W26649  16.983   1.956  25.912 -0.1194  0.4466  0.3792
83733W        W26650  18.855  33.633  27.640 -0.1454  0.0089 -0.2469
83734W        W26651  20.089   3.756  29.430 -0.1773  0.1000 -0.3116
83735W        W26652  17.784   3.625  24.026 -0.2184 -0.1310  0.1418
83736W        W26653  18.480   1.057  25.521  0.2005 -0.0907  0.1127
83737W        W26654  16.848   2.924  25.501  0.0078 -0.2170 -0.3104
83738W        W26655  19.934   0.554  25.302  0.0304  0.0836 -0.2011
83739W        W26656  19.727   3.860  27.076 -0.0134 -0.1775 -0.2342
83740W        W26657  18.760   0.132  24.572  0.0464 -0.1533  0.0663
83741W        W26658  19.725   0.418  27.820  0.0874  0.1833 -0.0454
83742W        W26659  22.099   1.488  25.128  0.1025  0.0480 -0.0261
83743W        W26660  19.855   3.694  25.308 -0.0676 -0.1974 -0.0982
83744W        W26661  22.634   3.479  25.927 -0.1302 -0.1576  0.0015
83745W        W26662  20.935   1.960  24.426  0.3331  0.1468  0.0908
83746W        W26663  19.547   2.264  24.146 -0.0071  0.0001 -0.2564
83747W        W26664  19.310   0.992  26.083 -0.2479 -0.1069 -0.3864
83748W        W26665  18.647   2.364  25.165 -0.0145 -0.0905 -0.1430
83749W        W26666  19.298   0.820  28.967  0.4160 -0.0698  0.2061
83750W        W26667  18.395   0.775  26.940 -0.0383 -0.0755  0.1950
83751W        W26668  20.639   1.747  25.249  0.0520 -0.3568 -0.1851
83752W        W26669  17.957   0.464  22.442  0.0728 -0.0733 -0.1247
83753W        W26670  18.855   2.433  26.245  0.2045 -0.2066 -0.1992
83754W        W26671  19.269   1.702  24.207 -0.0728  0.2458  0.2359
83755W        W26672  19.530   1.887  26.103  0.0266  0.0325 -0.1132
83756W        W26673  21.319   1.926  27.954 -0.1439  0.2231 -0.0361
83757W        W26674  18.678   2.641  24.202 -0.2471  0.0018 -0.2461
83758W        W26675  21.527   4.096  28.926  0.2173  0.0842 -0.1496
83759W        W26676  20.181   2.770  22.530 -0.0952  0.1455 -0.1887
83760W        W26677  19.426   1.839  25.511 -0.2389  0.0639  0.0842
83761W        W26678  17.712   0.994  24.904 -0.1909  0.1124 -0.1075
83762W        W26679  18.601   3.188  25.145 -0.3393  0.2681  0.0727
83763W        W26680  19.323   3.752  26.256  0.0163  0.1502  0.1056
83764W        W26681  18.337   0.379  24.077  0.2512 -0.1957  0.1639
83765W        W26682  20.088   3.389  25.682  0.1103  0.1662  0.3989
83766W        W26683  19.943   2.865  24.970 -0.0414  0.0781  0.1407
83767W        W26684  19.015   2.915  25.903  0.2027  0.4428 -0.0806
83768W        W26685  19.472   0.328  26.057  0.1742  0.1363 -0.0093
83769W        W26686  21.187   0.918  27.036 -0.1158 -0.3567 -0.0424
83770W        W26687  20.906   1.576  25.710 -0.0261 -0.2975 -0.1078
83771W        W26688  17.540   1.376  22.454  0.0952  0.0823 -0.2438
83772W        W26689  18.585   3.083  25.689  0.0557 -0.2120  0.2567
83773W        W26690  18.962   5.062  23.832  0.3453 -0.1772 -0.1793
83774W        W26691  17.687   3.999  25.887  0.2040  0.3654 -0.0778
83775W        W26692  20.399   2.998  23.057  0.1817  0.0973 -0.0649
83776W        W26693  20.620   0.886  26.235 -0.5558 -0.2500 -0.1029
83777W        W26694  18.428   2.411  27.393  0.1984 -0.1925 -0.1731
83778W        W26695  19.607   0.119  28.823 -0.0839  0.0470 -0.0106
83779W        W26696  19.758   3.259  21.484 -0.0073 -0.2972  0.3419
83780W        W26697  19.254   2.311  29.025  0.1820 -0.0754  0.4963
83781W        W26698  19.525   0.886  25.533  0.0793  0.2412 -0.2677
83782W        W26699  19.006   1.559  23.591 -0.4938 -0.4294  0.2661
83783W        W26700  19.633   2.799  28.312  0.0789  0.0024 -0.0734
83784W        W26701  21.088   2.951  22.987  0.1578  0.1628 -0.0982
83785W        W26702  18.160   2.166  23.453  0.2093  0.0172  0.3085
83786W        W26703  18.854  33.504  23.816  0.0463  0.0524 -0.2403
83787W        W26704  18.675   3.337  30.361 -0.0927 -0.0221 -0.0040
83788W        W26705  20.046   2.205  26.070  0.0932  0.0329 -0.0265
83789W        W26706  18.777   0.482  27.602 -0.0773 -0.0937  0.0747
83790W        W26707  19.509   1.552  23.813  0.3666  0.0153  0.1295
83791W        W26708  20.689   2.478  25.753  0.1164  0.1905  0.2098
83792W        W26709  18.479   1.970  25.439  0.3141  0.0927 -0.1605
83793W        W26710  19.881   3.109  27.539  0.1862  0.1405  0.1764
83794W        W26711  19.870   4.330  25.829 -0.2429  0.1623  0.2056
83795W        W26712  20.098   1.141  26.971  0.3772  0.2551 -0.1147
83796W        W26713  19.934   1.409  22.556 -0.1338 -0.2593  0.2638
83797W        W26714  18.789  34.443  25.705 -0.0659 -0.0715  0.3296
83798W        W26715  19.369   3.233  23.056 -0.3393  0.1182 -0.1743
83799W        W26716  20.425   1.935  26.231 -0.1504  0.0047 -0.1018
83800W        W26717  18.713   0.017  27.389  0.0966  0.0507  0.1113
83801W        W26718  20.479   0.891  26.789 -0.0929  0.0437  0.1198
83802W        W26719  22.274   0.528  26.577 -0.3387  0.0256  0.0353
83803W        W26720  23.154   1.509  24.719  0.3293  0.3001 -0.3103
83804W        W26721  18.474   4.003  25.812  0.1310  0.1975  0.1464
83805W        W26722  19.383   3.800  22.351 -0.0291  0.1049 -0.1625
83806W        W26723  19.611   2.105  27.422  0.1397  0.2145  0.1311
83807W        W26724  19.398   1.345  28.692  0.2880 -0.0656 -0.1220
83808W        W26725  17.669   3.311  25.137 -0.3152  0.0623 -0.1459
83809W        W26726  22.430   3.788  28.814  0.0696  0.0062  0.1450
83810W        W26727  19.233   1.653  22.836 -0.0215  0.0428 -0.0288
83811W        W26728  20.373   1.652  26.788  0.0794  0.1483 -0.1975
83812W        W26729  18.337   1.543  22.737  0.3315  0.2088 -0.0531
83813W        W26730  18.768   3.430  23.850 -0.1682  0.0424 -0.2340
83814W        W26731  20.204   2.696  23.395  0.0520  0.1021 -0.0812
83815W        W26732  20.947   0.671  25.444 -0.3822 -0.2380  0.0269
83816W        W26733  18.059   3.088  23.994  0.0418  0.2903  0.1750
83817W        W26734  20.052   1.812  23.462  0.2851  0.1609 -0.2146
83818W        W26735  20.443   2.898  26.412 -0.0523 -0.0869 -0.1640
83819W        W26736  19.380   2.601  25.030 -0.2934 -0.0527 -0.3156
83820W        W26737  22.465   1.170  23.551  0.0082 -0.0397  0.1741
83821W        W26738  18.120   4.223  26.150  0.0216  0.0430  0.2665
83822W        W26739  19.247   2.557  23.909  0.0080 -0.2184 -0.2484
83823W        W26740  18.218  34.412  25.493 -0.0110  0.0363  0.1349
83824W        W26741  21.707  33.652  25.930 -0.1368  0.2553 -0.0757
83825W        W26742  19.527   2.126  25.052  0.0705  0.0450 -0.1467
83826W        W26743  18.562   2.218  24.604  0.1608  0.1840  0.1187
83827W        W26744  19.461   0.897  27.973 -0.3658 -0.0626 -0.0921
83828W        W26745  18.539   2.046  26.137  0.0038  0.1069  0.2998
83829W        W26746  20.509   3.243  26.939 -0.2935  0.0265 -0.0399
83830W        W26747  20.920   1.422  23.929 -0.0693  0.0428  0.1121
83831W        W26748  21.650   2.423  27.754 -0.2652  0.0223  0.0886
83832W        W26749  20.254   3.577  28.039  0.0215  0.0078  0.0413
83833W        W26750  17.771   0.244  24.037 -0.2280 -0.0119  0.2880
83834W        W26751  21.014   2.093  25.492  0.4119 -0.1930  0.0441
83835W        W26752  19.201  34.628  24.370 -0.0324  0.0184  0.0708
83836W        W26753  17.990   2.133  25.890  0.1131 -0.0659  0.0168
83837W        W26754  18.564   1.685  26.961  0.1525  0.4586 -0.0307
83838W        W26755  19.501   2.218  22.382 -0.0666 -0.4265  0.1411
83839W        W26756  18.954   2.994  23.238  0.2585 -0.2431  0.1428
83840W        W26757  17.414   2.336  27.643 -0.2422  0.2123  0.2377
83841W        W26758  23.218   1.272  25.887  0.3214 -0.0352  0.1755
83842W        W26759  20.633   1.989  25.753  0.3158  0.0945 -0.3734
83843W        W26760  17.810   0.640  27.129  0.0096 -0.1732 -0.1775
83844W        W26761  18.680   3.558  25.997  0.0475 -0.3210 -0.0137
83845W        W26762  23.028   3.279  27.800  0.0504  0.0129  0.1079
83846W        W26763  22.016   1.366  26.827 -0.0313  0.0481  0.0493
83847W        W26764  17.692   1.900  29.938 -0.2342 -0.1346  0.0489
83848W        W26765  19.700   0.382  26.502 -0.2317  0.1063 -0.1029
83849W        W26766  19.472   3.912  24.324  0.0220  0.2858  0.3677
83850W        W26767  20.164   2.770  27.858 -0.0320  0.3506  0.0032
83851W        W26768  17.220   3.969  24.515  0.0330  0.1666  0.2279
83852W        W26769  19.005   2.318  24.851  0.1025  0.0163 -0.1390
83853W        W26770  18.814   1.537  27.352 -0.0654  0.0612 -0.1104
83854W        W26771  19.734   0.882  26.252 -0.0358  0.1582 -0.2466
83855W        W26772  17.655   3.055  25.621  0.3720 -0.0155 -0.1713
83856W        W26773  17.357   2.568  24.948 -0.2349 -0.0328 -0.1813
83857W        W26774  17.501   2.182  25.229 -0.2536 -0.3263 -0.1300
83858W        W26775  20.846  33.535  25.277  0.2636  0.0255  0.0231
83859W        W26776  20.155   1.117  25.929 -0.1762  0.0742  0.0622
83860W        W26777  19.410   0.445  24.207 -0.2086 -0.1765  0.0123
83861W        W26778  22.508   2.826  26.675  0.0269 -0.0058 -0.2375
83862W        W26779  21.013   3.189  25.100  0.0999  0.0454 -0.3669
83863W        W26780  20.981   0.704  29.787 -0.1307 -0.0309 -0.1295
83864W        W26781  17.309   0.160  26.407  0.3201 -0.1231  0.0609
83865W        W26782  23.508   1.489  26.761 -0.0600 -0.2256  0.1863
83866W        W26783  19.201   0.285  27.432 -0.3575 -0.3413  0.1030
83867W        W26784  20.432   3.602  26.408  0.1484 -0.0176  0.3527
83868W        W26785  18.331   3.346  27.280  0.0239  0.1169 -0.1116
83869W        W26786  21.111   1.447  24.401  0.0895  0.3677 -0.2311
83870W        W26787  18.119   2.533  23.026  0.3033 -0.1353 -0.2735
83871W        W26788  21.260   2.092  27.201  0.2274  0.0116  0.1655
83872W        W26789  21.895   2.508  25.204 -0.1224  0.0072  0.3927
83873W        W26790  19.993   1.013  23.084 -0.2652  0.4936  0.1515
83874W        W26791  20.080   2.714  26.035 -0.0148 -0.0273  0.0038
83875W        W26792  18.071   2.959  25.864 -0.1088 -0.2083  0.0075
83876W        W26793  21.115   1.164  22.817  0.0485  0.1737  0.2145
83877W        W26794  20.130   1.891  25.598  0.3324 -0.1467 -0.0824
83878W        W26795  18.291   3.805  23.326  0.1146 -0.1392  0.0810
83879W        W26796  19.214  34.118  29.683  0.1901  0.1742 -0.3189
83880W        W26797  22.002   2.600  26.866  0.1990 -0.1615  0.2106
83881W        W26798  19.977   0.516  24.403 -0.3434  0.1657  0.2564
83882W        W26799  20.160   0.297  27.623 -0.0149 -0.0719 -0.0782
83883W        W26800  22.184   1.855  28.574  0.1266 -0.0521  0.0709
83884W        W26801  21.328   1.865  26.432 -0.0814  0.0568  0.1510
83885W        W26802  18.679   1.620  28.784  0.4321 -0.2723 -0.0400
83886W        W26803  20.145   3.311  25.199  0.1960  0.1616 -0.1069
83887W        W26804  20.274   0.683  22.057 -0.0456  0.0036 -0.0976
83888W        W26805  22.230  34.165  27.567  0.1201 -0.1943 -0.2365
83889W        W26806  19.691   1.090  23.574 -0.0614 -0.0525 -0.2150
83890W        W26807  19.212   0.627  23.778  0.2844  0.0101  0.3726
83891W        W26808  18.864   2.795  25.321  0.0251 -0.1112 -0.2773
83892W        W26809  22.598   0.871  27.397 -0.1251  0.1263  0.2753
83893W        W26810  18.597   2.209  23.192  0.1718  0.1745  0.0017
83894W        W26811  20.627   1.395  28.120  0.0224 -0.0376 -0.0284
83895W        W26812  19.333   3.480  24.776  0.0618  0.0610 -0.1150
83896W        W26813  20.484   2.730  26.844 -0.2427 -0.0165  0.0247
83897W        W26814  19.565   1.610  24.741  0.2354  0.1290  0.3951
83898W        W26815  18.372   0.263  27.064 -0.1455 -0.0183  0.0271
83899W        W26816  18.552   5.233  27.063  0.0587 -0.0727 -0.0739
83900W        W26817  19.192   2.126  23.687  0.0395  0.0122  0.1849
83901W        W26818  20.285   1.855  24.097  0.0244  0.0783 -0.0431
83902W        W26819  19.431   2.120  26.960 -0.2523  0.0500 -0.3224
83903W        W26820  22.928   0.735  26.477 -0.0949  0.0170  0.1573
83904W        W26821  17.659  34.434  25.649  0.1993  0.0962 -0.2548
83905W        W26822  20.906   2.153  26.522 -0.2714  0.1416 -0.2238
83906W        W26823  17.741   1.857  23.491 -0.2230 -0.0920 -0.1126
83907W        W26824  20.933   0.956  23.611 -0.0589  0.2392 -0.0975
83908W        W26825  19.530   1.775  26.622  0.0899  0.1283  0.2263
83909W        W26826  17.530   2.258  29.600 -0.1036 -0.1037  0.2822
83910W        W26827  17.922   2.929  24.968 -0.0521 -0.2538  0.0747
83911W        W26828  19.832  33.706  28.528 -0.1179 -0.0001  0.0208
83912W        W26829  20.431   2.936  25.786 -0.1173  0.0793 -0.1878
83913W        W26830  20.895   1.524  24.846  0.0056  0.0939  0.0025
83914W        W26831  21.530   2.100  26.062  0.0265  0.3957 -0.0608
83915W        W26832  19.674   2.624  27.331 -0.1242 -0.5378  0.1416
83916W        W26833  18.594   0.446  26.597  0.1122  0.2498  0.0188
83917W        W26834  20.620   3.960  27.858 -0.1441  0.0034 -0.0444
83918W        W26835  23.489   0.559  26.418  0.0133  0.0632  0.1929
83919W        W26836  20.001   1.851  26.523 -0.3089  0.0831 -0.0105
83920W        W26837  18.132   3.604  26.812  0.0577  0.3061 -0.1742
83921W        W26838  21.537   2.495  27.157  0.0942  0.0690  0.1766
83922W        W26839  22.795   1.976  24.187 -0.0933 -0.1067 -0.0585
83923W        W26840  18.278   2.605  23.831  0.0411  0.0388  0.2120
83924W        W26841  22.005   1.000  24.455  0.1940  0.1599  0.1207
83925W        W26842  19.143   4.313  27.523 -0.1843 -0.2592 -0.0781
83926W        W26843  18.997   3.144  24.581  0.2927  0.2418  0.1792
83927W        W26844  18.920   3.537  25.078  0.0026 -0.0107  0.1145
83928W        W26845  21.473   3.879  23.439  0.0013 -0.0607  0.1683
83929W        W26846  22.361   0.310  24.810  0.0877 -0.2053 -0.1462
83930W        W26847  19.894   3.520  26.593  0.0900  0.2228 -0.0405
83931W        W26848  19.749   0.277  24.881 -0.1891  0.0011 -0.0451
83932W        W26849  20.285   4.320  25.548 -0.0635 -0.0571 -0.0173
83933W        W26850  18.458   2.959  23.034  0.2331  0.0760  0.0701
83934W        W26851  21.770   2.449  23.277  0.1459 -0.0433 -0.2881
83935W        W26852  16.998   3.743  23.981 -0.4047 -0.2635 -0.1978
83936W        W26853  20.815   3.274  26.374  0.0741 -0.1947  0.2806
83937W        W26854  21.728   1.758  25.327 -0.0654 -0.1787 -0.0030
83938W        W26855  21.990   0.938  26.383 -0.0459  0.2720  0.1067
83939W        W26856  19.550   0.838  24.511  0.0331 -0.1078 -0.0761
83940W        W26857  20.587   4.471  27.084 -0.0772 -0.1305  0.1518
83941W        W26858  19.223   2.064  26.421  0.0203 -0.0396  0.0706
83942W        W26859  18.329   0.785  22.549  0.1051 -0.2885  0.1365
83943W        W26860  18.895   2.128  27.766  0.0977 -0.1150 -0.0920
83944W        W26861  21.480   1.448  28.102 -0.0418  0.2859 -0.1548
83945W        W26862  18.239   5.632  26.796 -0.0702  0.1293  0.2946
83946W        W26863  20.653   3.882  24.688 -0.2260  0.0850 -0.1103
83947W        W26864  20.745   3.050  22.643  0.0650  0.2098 -0.1248
83948W        W26865  19.986   2.296  23.191 -0.3279  0.2407 -0.1830
83949W        W26866  21.653   0.024  25.669 -0.3940  0.1535  0.1187
83950W        W26867  18.462   1.539  24.230  0.2580  0.1470  0.1448
83951W        W26868  21.563   0.909  28.091  0.0272  0.3350 -0.0758
83952W        W26869  19.577   3.578  22.780  0.2083 -0.2601 -0.0814
83953W        W26870  19.289   2.718  26.387  0.3853  0.2397 -0.0042
83954W        W26871  18.477   3.902  26.541 -0.1413 -0.3300 -0.0056
83955W        W26872  18.512   1.387  24.742  0.0904 -0.1147 -0.0107
83956W        W26873  21.589   1.473  23.627 -0.0948  0.2497 -0.6266
83957W        W26874  19.321   3.216  26.452 -0.0047  0.2568 -0.4261
83958W        W26875  20.396   0.139  26.878 -0.4543  0.0108 -0.2595
83959W        W26876  19.647   2.775  24.166 -0.2820 -0.2068 -0.1814
83960W        W26877  20.218   2.377  25.614 -0.2919 -0.2245 -0.1953
83961W        W26878  20.322   2.287  27.903 -0.0857  0.2357 -0.1531
83962W        W26879  17.259   2.439  26.122  0.0055  0.0611  0.1574
83963W        W26880  19.948   0.631  23.525  0.1528  0.3065  0.0364
83964W        W26881  22.563   1.677  28.190 -0.3146  0.1217 -0.1006
83965W        W26882  21.976   2.267  24.184 -0.1187  0.1122 -0.2323
83966W        W26883  19.546   4.056  28.470 -0.0984 -0.2253  0.0347
83967W        W26884  19.481  34.605  28.034  0.3470 -0.1035  0.1029
83968W        W26885  21.178  34.643  24.449  0.0501 -0.1570  0.1877
83969W        W26886  18.324   1.254  26.058 -0.0238  0.1418 -0.1299
83970W        W26887  18.850   4.250  25.549  0.1196 -0.0192 -0.0679
83971W        W26888  22.292   1.767  26.855 -0.0723 -0.1528 -0.4432
83972W        W26889  18.824   1.122  26.182 -0.2443  0.0110 -0.1271
83973W        W26890  21.040   2.801  24.033  0.1589 -0.0750  0.1017
83974W        W26891  22.028   1.283  23.719  0.0232  0.2140 -0.0825
83975W        W26892  19.676   4.071  23.882 -0.2668  0.1173  0.1686
83976W        W26893  21.174   1.710  25.261 -0.2305 -0.2320 -0.2059
83977W        W26894  20.689   3.554  23.817 -0.0984  0.0154  0.0332
83978W        W26895  19.561   1.403  25.852  0.0079 -0.1157  0.1464
83979W        W26896  20.428   2.888  24.784 -0.0372 -0.0817 -0.0623
83980W        W26897  22.519   3.714  26.384 -0.1260 -0.2155 -0.0146
83981W        W26898  18.899   1.730  25.466 -0.0777 -0.0067  0.3745
83982W        W26899  19.607   1.592  27.404 -0.3714 -0.2774 -0.1340
83983W        W26900  16.421   2.731  24.940  0.0814 -0.2106  0.1326
83984W        W26901  21.476   2.196  25.125  0.0631 -0.0479  0.0329
83985W        W26902  20.988   1.195  26.115 -0.3284  0.1413  0.3004
83986W        W26903  20.178   0.759  23.922  0.3553  0.0396 -0.4155
83987W        W26904  21.353  34.224  28.108  0.1788  0.2020  0.0399
83988W        W26905  18.644   2.137  26.612 -0.2919 -0.2314  0.3310
83989W        W26906  20.620   3.337  28.329 -0.2144 -0.3840 -0.0793
83990W        W26907  17.995   1.076  25.287  0.2765  0.0620  0.1595
83991W        W26908  18.548   2.895  26.168  0.0916 -0.1372  0.1509
83992W        W26909  18.869   2.999  26.494  0.3871  0.0071  0.3055
83993W        W26910  17.505   1.897  24.299  0.1544  0.1069 -0.1291
83994W        W26911  20.956   2.012  24.902  0.2156 -0.0626  0.2990
83995W        W26912  21.672   1.073  26.719  0.1293 -0.0344  0.1377
83996W        W26913  20.530   2.731  24.321  0.0514  0.2065  0.0281
83997W        W26914  18.693   1.670  26.412  0.0296 -0.1156 -0.1742
83998W        W26915  21.180  34.138  24.239 -0.1711  0.3250  0.0816
83999W        W26916  19.412   1.489  23.297  0.1081  0.2549 -0.1100
84000W        W26917  18.273   2.862  27.114 -0.0885 -0.1365  0.0290
84001W        W26918  18.796   2.803  24.830  0.1925  0.2974  0.0992
84002W        W26919  18.217   4.795  23.109  0.0241  0.1791  0.1988
84003W        W26920  19.004   3.249  25.515  0.0421 -0.1609 -0.0004
84004W        W26921  19.700   0.274  29.788  0.0865 -0.3516 -0.2804
84005W        W26922  18.524   0.240  28.960 -0.1022 -0.2660  0.0132
84006W        W26923  16.744   5.155  22.553 -0.1277  0.1159  0.1406
84007W        W26924  19.129   2.233  25.330 -0.0766 -0.2316 -0.1239
84008W        W26925  20.779   4.783  25.027  0.1592 -0.2193  0.0767
84009W        W26926  19.327   1.261  26.639 -0.0882 -0.0506 -0.0096
84010W        W26927  18.647   0.034  26.320  0.4465 -0.2298  0.2879
84011W        W26928  20.997   2.447  24.425 -0.0257  0.0036  0.0074
84012W        W26929  20.671   2.016  22.576 -0.1088  0.1624 -0.1313
84013W        W26930  19.332   1.336  25.379 -0.0484  0.0433  0.2985
84014W        W26931  20.514   3.097  27.635 -0.3644  0.1609 -0.3709
84015W        W26932  17.042   2.267  24.287 -0.1371  0.1203  0.3426
84016W        W26933  19.118   0.351  28.887  0.1491 -0.1142  0.1670
84017W        W26934  20.109   1.895  28.746  0.0294 -0.2599 -0.0790
84018W        W26935  16.874   1.450  23.672 -0.1377  0.0578  0.2525
84019W        W26936  18.833   1.655  28.000 -0.1787 -0.1189 -0.0863
84020W        W26937  18.996   4.549  24.721  0.0696 -0.2000 -0.1163
84021W        W26938  21.610   4.369  23.658  0.2132  0.0664 -0.0244
84022W        W26939  20.023   4.951  27.155 -0.1033  0.0025  0.2377
84023W        W26940  20.725   2.632  27.690  0.0638  0.1586 -0.2429
84024W        W26941  18.985   0.888  28.059 -0.1522  0.1164  0.0605
84025W        W26942  20.893   1.027  24.807 -0.0648 -0.0566  0.0430
84026W        W26943  21.264   4.068  28.525 -0.0943  0.1047  0.1954
84027W        W26944  20.983   3.647  24.297 -0.3260  0.2632 -0.1646
84028W        W26945  19.786   1.094  28.388 -0.0463  0.2322  0.2442
84029W        W26946  20.570   3.296  25.378  0.3386  0.1559 -0.1024
84030W        W26947  19.346  34.552  29.887  0.0849 -0.0528 -0.1005
84031W        W26948  18.344   5.769  26.224 -0.0312  0.0792 -0.4503
84032W        W26949  21.710   3.194  26.205 -0.2251 -0.2268 -0.0219
84033W        W26950  19.148   1.547  26.180 -0.1005 -0.0366  0.0129
84034W        W26951  20.082   0.823  24.852  0.0403 -0.1042  0.0719
84035W        W26952  22.389   2.551  25.608 -0.0550 -0.0072  0.1893
84036W        W26953  19.638   1.377  27.946 -0.1911 -0.0282 -0.0560
84037W        W26954  19.850   0.626  27.363 -0.0995  0.0766 -0.0358
84038W        W26955  20.043   2.897  27.016 -0.3893 -0.2918 -0.0942
84039W        W26956  19.735   3.394  24.319  0.2430 -0.0851 -0.0918
84040W        W26957  20.536   2.267  28.638  0.0929  0.2099 -0.2534
84041W        W26958  20.133   2.425  24.741 -0.1817 -0.3207 -0.0664
84042W        W26959  20.153   3.371  24.632  0.0940  0.3175 -0.0240
84043W        W26960  19.383   3.685  26.790 -0.2849 -0.1720  0.1446
84044W        W26961  20.578   1.973  28.275 -0.2185 -0.1441 -0.2632
84045W        W26962  21.681   2.020  27.511  0.0799 -0.1472  0.1400
84046W        W26963  21.036   1.797  26.878  0.2167 -0.0326  0.2707
84047W        W26964  18.518   0.346  25.703  0.1570 -0.1316 -0.1126
84048W        W26965  19.151  34.265  24.038 -0.2484 -0.1232 -0.1280
84049W        W26966  20.229   2.788  23.922 -0.1115 -0.0066  0.1373
84050W        W26967  21.160   2.239  28.494 -0.0040 -0.4511 -0.1802
84051W        W26968  19.687   2.256  26.399  0.0255  0.1869  0.1481
84052W        W26969  19.130   1.631  25.011 -0.2776  0.0433  0.0860
84053W        W26970  18.171   4.000  27.142  0.0404 -0.3617 -0.2006
84054W        W26971  19.156   1.905  27.460 -0.1766 -0.0931  0.1847
84055W        W26972  19.577   3.187  29.002  0.1422 -0.1549 -0.0164
84056W        W26973  16.713  34.121  31.291  0.0440  0.0330 -0.0136
84057W        W26974  19.999   0.774  28.843 -0.1145 -0.1316  0.2745
84058W        W26975  21.861   2.186  29.479  0.0988  0.0515 -0.2783
84059W        W26976  18.721   2.827  28.501 -0.1878  0.3068 -0.0568
84060W        W26977  23.134   2.839  29.323  0.1230 -0.1971 -0.4972
84061W        W26978  19.207   0.772  30.491  0.0162  0.0195  0.1624
84062W        W26979  21.528   2.403  29.163 -0.0333  0.0963 -0.0762
84063W        W26980  22.500   2.168  30.925  0.1341  0.2828  0.0337
84064W        W26981  21.130   0.967  27.584 -0.1661 -0.0733 -0.1870
84065W        W26982  18.049   1.020  31.082 -0.0049  0.1231 -0.1365
84066W        W26983  22.022   3.521  30.139 -0.3041  0.1040 -0.1904
84067W        W26984  19.338  33.471  27.691  0.1053 -0.3417 -0.1841
84068W        W26985  14.848   3.059  30.877 -0.1866  0.1397  0.1324
84069W        W26986  22.172   3.009  29.211  0.1305  0.0702  0.1212
84070W        W26987  17.290   1.724  29.097  0.0742 -0.1143  0.0242
84071W        W26988  19.764   2.200  31.190  0.0985  0.1949 -0.0646
84072W        W26989  18.800   2.943  29.553 -0.1194  0.1335 -0.1456
84073W        W26990  20.161   3.429  28.558  0.2986  0.3059  0.0457
84074W        W26991  17.973   0.626  30.705 -0.2741  0.0603  0.1836
84075W        W26992  20.495   1.185  31.683 -0.0358 -0.1876 -0.0399
84076W        W26993  20.057   1.802  29.235 -0.0585  0.5219 -0.0270
84077W        W26994  18.090   0.112  28.097 -0.0763  0.4970 -0.1067
84078W        W26995  18.942   1.954  30.260 -0.0916 -0.1609  0.0704
84079W        W26996  17.347   1.476  30.719 -0.2466  0.0897  0.2264
84080W        W26997  19.745   0.500  29.205  0.0637  0.0470 -0.2054
84081W        W26998  20.735   2.465  28.224 -0.2357  0.2110 -0.0356
84082W        W26999  20.656   4.159  31.413 -0.3127  0.0821  0.1661
84083W        W27000  20.775   2.571  29.627  0.0721 -0.2733 -0.2218
84084W        W27001  22.044   3.365  28.829  0.2045  0.1380 -0.0969
84085W        W27002  18.523   1.895  28.333 -0.2119 -0.2537 -0.1698
84086W        W27003  19.008   3.095  27.756 -0.0157 -0.2761  0.1975
84087W        W27004  18.667   4.460  28.042  0.0634 -0.0601 -0.0793
84088W        W27005  19.590   1.094  30.252 -0.1925  0.0489  0.4038
84089W        W27006  22.701   2.973  30.372  0.0637  0.2589 -0.0242
84090W        W27007  19.186   1.454  30.169 -0.0143 -0.1162 -0.2513
84091W        W27008  18.415   2.038  28.892  0.1764  0.0605  0.1365
84092W        W27009  20.326   3.778  29.875 -0.1007  0.0138 -0.0137
84093W        W27010  19.615   4.348  30.399  0.3285 -0.2865 -0.1109
84094W        W27011  20.592   2.919  28.097 -0.0040 -0.0330  0.0689
84095W        W27012  16.961   1.359  31.117 -0.4289 -0.0101  0.2514
84096W        W27013  21.523   2.786  26.765  0.1325 -0.1205  0.0310
84097W        W27014  17.900   2.794  28.288  0.1307 -0.3502 -0.2828
84098W        W27015  17.425   1.749   0.518  0.0032 -0.0841 -0.4205
84099W        W27016  18.166   4.392  28.840 -0.1040 -0.0467  0.1445
84100W        W27017  21.480   1.170   1.159  0.1205 -0.0590 -0.3385
84101W        W27018  18.157   3.515  25.927 -0.1678 -0.2543  0.1741
84102W        W27019  21.625   0.666  29.200 -0.2588 -0.3400  0.4776
84103W        W27020  20.735   2.891  27.256  0.4435  0.0170 -0.0432
84104W        W27021  21.766   1.201  27.679  0.1094  0.1236  0.0885
84105W        W27022  19.065  32.875  29.543 -0.0070  0.1960 -0.0484
84106W        W27023  20.062   2.441  28.460  0.0566 -0.1056 -0.1161
84107W        W27024  19.291   0.773  31.446 -0.0946 -0.0602  0.0016
84108W        W27025  21.652   1.761  28.449  0.2906  0.1047 -0.0682
84109W        W27026  20.613   0.545  27.680  0.1957 -0.3643 -0.4485
84110W        W27027  20.846   0.682  30.782  0.1380  0.2595  0.1298
84111W        W27028  21.188   3.439  30.426  0.0752  0.1933  0.0754
84112W        W27029  17.785  34.096  30.303  0.1295  0.0815  0.0254
84113W        W27030  20.944   3.347  29.037 -0.2460  0.0434 -0.2123
84114W        W27031  23.043   1.597  28.220 -0.3526 -0.2074  0.1709
84115W        W27032  19.995   2.421  27.059  0.1593 -0.0426 -0.1465
84116W        W27033  18.943   0.530  29.436 -0.1389  0.1870  0.2815
84117W        W27034  17.605   2.372  30.299  0.0263 -0.0800  0.2553
84118W        W27035  20.014  33.874  31.747 -0.0867 -0.0215  0.1217
84119W        W27036  20.042   1.637  25.982  0.1252 -0.1193 -0.0518
84120W        W27037  22.667   3.071  29.513  0.4752  0.0728  0.1823
84121W        W27038  19.118   3.364  29.822  0.2110 -0.2823 -0.1649
84122W        W27039  24.238  34.587  28.527  0.2136  0.0730 -0.1378
84123W        W27040  16.846   4.045  29.218  0.1021  0.2689  0.1805
84124W        W27041  22.838   3.479  28.721  0.0396  0.0180  0.0246
84125W        W27042  19.038   2.464  29.434 -0.1501 -0.0755 -0.3467
84126W        W27043  20.257  34.642  30.389  0.2341 -0.2853  0.3942
84127W        W27044  19.518   0.098   0.596  0.2030  0.5521 -0.0501
84128W        W27045  18.788   2.149  27.132 -0.1096  0.4354  0.2435
84129W        W27046  20.047   1.984  28.228 -0.3432 -0.0174 -0.0637
84130W        W27047  23.304   0.239  30.598  0.0037  0.3550 -0.0465
84131W        W27048  18.896   0.804  26.735  0.2158 -0.3114 -0.1007
84132W        W27049  18.313   2.834  29.643 -0.1868  0.0183 -0.0594
84133W        W27050  19.238   1.899  29.874  0.0635  0.3677 -0.0449
84134W        W27051  19.887   2.982  29.326  0.2592  0.0794  0.1451
84135W        W27052  17.388   3.972  29.354  0.3318 -0.0370  0.0874
84136W        W27053  18.162   3.092  29.985  0.0059 -0.0899 -0.1455
84137W        W27054  18.008   2.148  27.460  0.2076 -0.2833  0.1607
84138W        W27055  17.167   0.994  30.731 -0.4232 -0.1715  0.1888
84139W        W27056  20.579   1.677  29.369 -0.0141  0.2092 -0.0508
84140W        W27057  18.807   0.031  29.341  0.1456  0.0132  0.0566
84141W        W27058  18.850   0.797  31.808 -0.1697  0.0714 -0.3612
84142W        W27059  21.671   1.928  30.619 -0.0578 -0.1018  0.0060
84143W        W27060  18.706   1.314  28.283 -0.5829  0.1579 -0.0480
84144W        W27061  23.470   4.142  29.337  0.1485  0.0010 -0.3798
84145W        W27062  21.120   1.667  28.344  0.2423 -0.0658 -0.4045
84146W        W27063  20.800   3.419  27.858  0.0832  0.0491 -0.1965
84147W        W27064  17.070   4.924  31.518  0.1038 -0.1620 -0.1641
84148W        W27065  18.961   1.086  28.677 -0.2758  0.1363  0.0432
84149W        W27066  19.225   1.646   1.036  0.2772  0.4207 -0.1941
84150W        W27067  18.704   1.613  29.975 -0.0237  0.1246 -0.2372
84151W        W27068  19.871   2.188  30.513  0.3665  0.0641 -0.1980
84152W        W27069  17.170   0.074  30.771 -0.0806 -0.0178 -0.1889
84153W        W27070  20.289  34.268  30.782 -0.0080 -0.2353 -0.1093
84154W        W27071  17.676   2.842  28.993 -0.0039 -0.0682 -0.5393
84155W        W27072  16.244   3.096  29.879  0.0854 -0.0649  0.1031
84156W        W27073  21.572   0.027  29.760  0.0957 -0.0232 -0.0499
84157W        W27074  21.333   3.419  29.378  0.0777  0.2254  0.1638
84158W        W27075  22.052   4.729   0.023 -0.0294  0.0736 -0.2210
84159W        W27076  23.184   2.293  29.316 -0.0164  0.0809 -0.3097
84160W        W27077  17.059   3.294  31.180  0.1603  0.1441  0.0580
84161W        W27078  18.057   1.079  28.647 -0.1245  0.0326  0.0868
84162W        W27079  18.144   4.667  31.219  0.0083  0.0804  0.0115
84163W        W27080  22.316   2.413  29.285 -0.1661  0.2204  0.0916
84164W        W27081  19.106   1.335  29.688  0.0383 -0.1090 -0.2427
84165W        W27082  22.346   1.663  30.963  0.2080 -0.1849 -0.0935
84166W        W27083  20.198   1.517  28.411 -0.1179  0.0270 -0.1160
84167W        W27084  20.092   3.491  30.995 -0.2805  0.2689  0.1046
84168W        W27085  21.257   0.998  30.613 -0.0613 -0.0658  0.0005
84169W        W27086  21.147   2.291  31.619  0.0027  0.0170  0.0932
84170W        W27087  18.417   2.031  29.961  0.0092  0.1818 -0.0536
84171W        W27088  17.576   0.292  29.772 -0.4150  0.3523  0.0147
84172W        W27089  23.524   2.693  30.232  0.0813  0.3888 -0.0636
84173W        W27090  19.068   1.756  26.930 -0.0496 -0.2027  0.1571
84174W        W27091  17.819   1.482  30.375  0.0331  0.0310  0.1244
84175W        W27092  18.301   3.439  28.578  0.1763  0.0857 -0.5108
84176W        W27093  19.743   3.591  30.645 -0.0189 -0.1654 -0.1402
84177W        W27094  16.925   2.931  31.622 -0.0321  0.0570  0.0427
84178W        W27095  19.775   0.825   0.883 -0.0161  0.0404 -0.1995
84179W        W27096  18.246   2.373  28.388  0.3317  0.1446 -0.0558
84180W        W27097  20.524   4.160  29.464  0.3147 -0.0913  0.0458
84181W        W27098  20.108  33.691  29.535  0.1062  0.2587  0.1980
84182W        W27099  20.849   2.135  27.718  0.3704 -0.0015 -0.2884
84183W        W27100  20.355   1.166   1.543 -0.0328  0.1530 -0.0766
84184W        W27101  19.210   1.421  28.219 -0.0635  0.0985  0.2011
84185W        W27102  19.680   1.644  28.415 -0.0232  0.1580 -0.0296
84186W        W27103  18.489   0.303  30.224  0.6105  0.1936  0.1107
84187W        W27104  19.838   3.977  30.035 -0.0099  0.1306 -0.2171
84188W        W27105  21.189   2.459  27.999  0.2282 -0.2013  0.0259
84189W        W27106  19.927   1.316  28.828 -0.2601 -0.2200  0.2892
84190W        W27107  19.455   2.349  29.694 -0.1949  0.1514 -0.4231
84191W        W27108  21.912   3.453  28.312 -0.1970 -0.4738 -0.3717
84192W        W27109  19.873   2.550  29.593  0.0636 -0.1103  0.0095
84193W        W27110  20.588   2.862  31.539  0.5575 -0.3385  0.0440
84194W        W27111  21.199   3.267  27.494  0.0713  0.1285 -0.2167
84195W        W27112  19.994   1.473   0.518  0.0306 -0.0207 -0.0492
84196W        W27113  19.575   5.844  28.258 -0.0186  0.1548  0.1527
84197W        W27114  20.114   1.591  31.906 -0.1267  0.0028  0.1899
84198W        W27115  16.429   4.939  28.155 -0.1135 -0.1261  0.0170
84199W        W27116  21.184   0.914  28.854  0.0237 -0.4582  0.0934
84200W        W27117  20.288   1.147   0.195  0.2942 -0.0577  0.2818
84201W        W27118  19.930  33.073   0.375  0.1379 -0.0050  0.0197
84202W        W27119  21.072   3.578   0.758  0.3860 -0.2225  0.0237
84203W        W27120  20.305   1.308  30.621 -0.1567 -0.1051  0.0686
84204W        W27121  21.049   1.524  30.487  0.0713  0.1096  0.0592
84205W        W27122  18.376   1.546  27.754  0.0700 -0.1238 -0.2419
84206W        W27123  20.933   3.000  31.110 -0.1060  0.2728 -0.1455
84207W        W27124  18.475   2.942  29.163  0.0387 -0.1442  0.5778
84208W        W27125  17.238   4.344  30.169 -0.0115 -0.1325 -0.1775
84209W        W27126  22.766   0.803  29.614 -0.2634  0.0064 -0.4463
84210W        W27127  21.925   2.666  28.953  0.1551  0.0777  0.0155
84211W        W27128  20.357   2.163  30.619  0.1058  0.1591 -0.1432
84212W        W27129  20.178   2.413  30.047  0.0296  0.0695  0.0159
84213W        W27130  20.176   4.682  26.658 -0.1816 -0.0253  0.0829
84214W        W27131  18.397   4.051  28.474 -0.1357  0.1586 -0.2111
84215W        W27132  19.115   0.332  30.876 -0.3531  0.2338  0.4743
84216W        W27133  22.425   3.571   0.966 -0.1149  0.0609  0.1395
84217W        W27134  19.738   4.609  26.918 -0.2098  0.3102  0.3275
84218W        W27135  19.626   1.407  31.315  0.1221  0.1276  0.4517
84219W        W27136  18.958   3.627  27.423 -0.2319  0.1179 -0.1721
84220W        W27137  22.057  34.665  29.492  0.0826  0.1513 -0.1827
84221W        W27138  20.318   3.560  27.485  0.1026  0.2629  0.0636
84222W        W27139  18.500   2.682  26.652  0.0325  0.2810  0.2375
84223W        W27140  16.940   4.294  28.270 -0.1523  0.0342 -0.1745
84224W        W27141  21.465   2.050  28.793 -0.2240  0.4140 -0.0667
84225W        W27142  21.608   3.726  30.301  0.0838  0.0557 -0.1884
84226W        W27143  18.186   0.129  30.554  0.1598  0.1237  0.0693
84227W        W27144  19.970  33.020  31.231  0.1454  0.1074  0.0336
84228W        W27145  19.042   4.653  29.082  0.3739  0.0495 -0.2459
84229W        W27146  20.645   0.373  31.776 -0.2540  0.0827  0.0585
84230W        W27147  20.647   0.302  29.716 -0.0986  0.0085  0.1661
84231W        W27148  20.917   3.026  30.570  0.2803 -0.1474  0.0552
84232W        W27149  20.905   0.838   2.276  0.0397  0.0479 -0.0518
84233W        W27150  18.600   0.458  28.091  0.2046 -0.1095 -0.0585
84234W        W27151  22.168   0.562  31.589 -0.1065 -0.0467  0.1218
84235W        W27152  17.784   0.476  30.258 -0.1260  0.1301  0.0914
84236W        W27153  18.789   2.203  28.617 -0.1459 -0.0494 -0.0045
84237W        W27154  21.265   2.609  29.509 -0.1885  0.2466 -0.1681
84238W        W27155  19.456   3.441  27.230  0.0020 -0.1049  0.1309
84239W        W27156  18.627   4.855  28.822 -0.1631  0.0689  0.1948
84240W        W27157  18.284   1.065  31.543 -0.2260  0.0292 -0.0129
84241W        W27158  21.984   2.404  28.506 -0.1928 -0.1345  0.1004
84242W        W27159  20.477   1.415  30.155  0.1350 -0.0794 -0.0916
84243W        W27160  20.634   1.634  30.794  0.4262 -0.1110 -0.1392
84244W        W27161  19.646   1.657  29.580  0.0664  0.2539  0.1873
84245W        W27162  21.538   2.291  29.813  0.2309  0.2581  0.1760
84246W        W27163  18.587   1.348   0.540 -0.0390 -0.2262  0.2558
84247W        W27164  15.524   3.229  31.371 -0.1587 -0.3203  0.0526
84248W        W27165  22.428  34.140  31.085  0.0123  0.1279  0.0153
84249W        W27166  22.617   2.739  28.426  0.1745 -0.1069  0.3316
84250W        W27167  19.275   2.325  30.242  0.2475 -0.2430  0.1792
84251W        W27168  16.811   0.859  30.307 -0.0434 -0.0228  0.1527
84252W        W27169  19.964   1.811  27.747  0.2238  0.0559 -0.0474
84253W        W27170  18.830   3.971  29.272 -0.1213  0.1655  0.0195
84254W        W27171  22.504   2.378  31.439 -0.0140  0.2079  0.0338
84255W        W27172  20.671   2.766  28.597  0.2119  0.0202 -0.0091
84256W        W27173  19.615   2.293  28.205 -0.1152 -0.1489 -0.2879
84257W        W27174  23.906   1.927  30.895  0.2601 -0.0307 -0.0429
84258W        W27175  22.582   0.193  28.568 -0.0185  0.1740 -0.0717
84259W        W27176  19.745   2.965  26.465  0.0237  0.2034 -0.0146
84260W        W27177  20.183   1.844  30.249 -0.2327  0.1619 -0.2450
84261W        W27178  25.015   0.926  30.466  0.1591  0.1042 -0.2365
84262W        W27179  19.817   1.017  29.313  0.1586 -0.0489 -0.0500
84263W        W27180  20.078   3.449  30.187 -0.1762  0.1365 -0.2209
84264W        W27181  17.936   0.403   0.035  0.2079  0.0131 -0.4047
84265W        W27182  20.239   0.420  29.478 -0.0453 -0.1073 -0.1431
84266W        W27183  16.908   2.870  29.551  0.1954 -0.0185 -0.2073
84267W        W27184  23.862   2.780  31.717 -0.0912 -0.2269 -0.0459
84268W        W27185  20.181   0.685   1.188 -0.0256  0.1379  0.0018
84269W        W27186  21.173   1.018  29.365 -0.1488  0.3369 -0.0035
84270W        W27187  19.573  33.253  28.241  0.1824  0.2672 -0.3332
84271W        W27188  16.643   2.482  31.562 -0.1062  0.0378  0.0238
84272W        W27189  20.011   2.505  29.075 -0.1229  0.1674 -0.2200
84273W        W27190  19.353   0.239  29.315 -0.0988 -0.2408 -0.2729
84274W        W27191  22.929   0.983  29.223 -0.1982  0.0219  0.4449
84275W        W27192  19.836   3.754  28.683 -0.1237 -0.0994  0.0138
84276W        W27193  22.109   0.145  28.186 -0.1181  0.1021  0.1104
84277W        W27194  20.695   4.015  27.359  0.1486  0.0080  0.0148
84278W        W27195  19.198   0.391  29.881 -0.1254  0.1209  0.0871
84279W        W27196  19.796   0.681  31.247  0.4633 -0.3009  0.1063
84280W        W27197  22.275   1.755  29.165 -0.0984  0.1601  0.3230
84281W        W27198  21.563   1.463  30.668 -0.1668  0.0599  0.0963
84282W        W27199  19.246   0.670   0.049 -0.1392  0.0142  0.0935
84283W        W27200  22.364   1.259  31.268  0.0614 -0.0931 -0.1900
84284W        W27201  19.143   1.623  31.240 -0.2188  0.1840  0.0721
84285W        W27202  18.323   0.700   0.065 -0.2091  0.3726 -0.1588
84286W        W27203  23.890   3.823  29.298  0.0905 -0.2094 -0.2260
84287W        W27204  21.317   0.792  25.090  0.1858 -0.2227 -0.0949
84288W        W27205  21.923   0.404  29.953 -0.0483  0.1422  0.0719
84289W        W27206  20.772  34.278  30.537  0.0105 -0.0113  0.0595
84290W        W27207  19.179   1.324  27.739 -0.0587 -0.1865  0.1013
84291W        W27208  16.888   1.849  30.470  0.1341 -0.2908 -0.0501
84292W        W27209  22.945   3.461  30.553  0.1187 -0.0270 -0.0761
84293W        W27210  17.850  34.028  28.926 -0.1689 -0.0355 -0.1825
84294W        W27211  21.188   0.135  31.746  0.0288 -0.1070 -0.1345
84295W        W27212  19.711   3.416  26.095  0.0854 -0.1070 -0.1657
84296W        W27213  20.190   1.765  29.746 -0.2030 -0.3244  0.4639
84297W        W27214  21.115   3.879  30.128  0.0197  0.1461 -0.0252
84298W        W27215  16.689   1.597  28.535  0.2709 -0.1492 -0.1643
84299W        W27216  16.941   1.982   1.337 -0.0460  0.0874  0.1696
84300W        W27217  20.288   1.041  28.368  0.1262  0.2385  0.0891
84301W        W27218  19.815   3.614  27.519  0.1360  0.3298 -0.2571
84302W        W27219  21.402   2.978  30.282  0.2201 -0.0671  0.3280
84303W        W27220  22.975   2.286  31.669 -0.0025 -0.0384  0.0504
84304W        W27221  19.705  34.515  29.409  0.0182 -0.1053 -0.0219
84305W        W27222  23.557   3.509  31.477 -0.2844  0.1994 -0.1828
84306W        W27223  19.141   2.841  28.115  0.0972 -0.1341 -0.0778
84307W        W27224  20.500   0.808  29.834  0.4336 -0.1847 -0.0287
84308W        W27225  19.900   2.535   1.066 -0.1614 -0.0111  0.0221
84309W        W27226  19.716   3.263  28.519 -0.0053  0.0484 -0.0903
84310W        W27227  20.146   1.302  27.841 -0.0758 -0.1311 -0.0437
84311W        W27228  20.481   1.635  28.867  0.0946  0.2956 -0.2780
84312W        W27229  22.114   2.572  30.925 -0.0295  0.1610  0.0920
84313W        W27230  19.301   1.925  29.341 -0.3315 -0.0000  0.1706
84314W        W27231  21.826   1.117  30.484  0.1650  0.0466 -0.2584
84315W        W27232  20.087   1.879  30.942  0.0083 -0.1123  0.1109
84316W        W27233  17.646   0.764  31.543  0.2494 -0.0447  0.3227
84317W        W27234  24.020   3.208  31.533  0.4089 -0.3178 -0.1813
84318W        W27235  21.771   2.734  30.047 -0.1732 -0.4281  0.0323
84319W        W27236  19.589   3.231  30.997  0.0368  0.0128  0.1066
84320W        W27237  17.021   1.010  31.899 -0.0464  0.1573  0.2588
84321W        W27238  18.878   2.324  29.866 -0.0694  0.0311 -0.0933
84322W        W27239  19.590   1.717  28.971 -0.1353 -0.1345 -0.1171
84323W        W27240  19.068   0.319  30.355 -0.1016 -0.3909 -0.3781
84324W        W27241  19.583   4.869  26.511  0.0453  0.0911 -0.0732
84325W        W27242  21.647   3.976   0.422  0.1633 -0.0881 -0.0820
84326W        W27243  17.747   3.779  31.561 -0.2321  0.0216 -0.1630
84327W        W27244  20.170   4.004  27.675 -0.2681  0.3268 -0.3687
84328W        W27245  19.511   2.896  27.804 -0.1952  0.3598 -0.0576
84329W        W27246  19.713   2.183  28.740  0.3577  0.0855 -0.1126
84330W        W27247  20.058   2.977  30.108 -0.0487 -0.1404 -0.1381
84331W        W27248  19.742   2.194  29.325  0.0198 -0.2426  0.0740
84332W        W27249  18.439   2.523  28.848 -0.0215  0.2758  0.1554
84333W        W27250  16.214   3.164  27.776 -0.0724  0.1208  0.2321
84334W        W27251  21.312   5.017  30.145 -0.1141  0.0522  0.1012
84335W        W27252  19.968   4.107  28.110 -0.0562 -0.0434  0.3873
84336W        W27253  23.591   2.334  30.784  0.1424  0.0336  0.1176
84337W        W27254  20.788   2.321  27.265 -0.0675 -0.3282 -0.3215
84338W        W27255  20.386   0.038  31.409  0.0134  0.2466 -0.1554
84339W        W27256  23.478   0.459  28.686  0.0784 -0.1049 -0.1980
84340W        W27257  21.190   3.793   0.305 -0.0407 -0.1326 -0.0858
84341W        W27258  19.442   1.844  30.370  0.2372  0.1676 -0.4207
84342W        W27259  17.789  34.384  29.894 -0.1685 -0.2030  0.1750
84343W        W27260  18.510   2.391  30.841  0.3725 -0.0761  0.0516
84344W        W27261  22.626  33.459   0.552  0.1939 -0.0330 -0.0596
84345W        W27262  17.235   3.750  31.304  0.1715 -0.1214 -0.0626
84346W        W27263  21.084   3.759  27.596 -0.0242 -0.0285  0.0904
84347W        W27264  19.253   1.191  27.141  0.0725  0.1110  0.0225
84348W        W27265  18.688   2.882  30.047 -0.1210 -0.1045 -0.4391
84349W        W27266  22.919   0.146  31.427 -0.1700 -0.1074  0.2788
84350W        W27267  18.528   3.234  26.830  0.1974  0.1378  0.1541
84351W        W27268  18.442   0.755  30.422  0.1242  0.1586  0.2353
84352W        W27269  21.450   4.448  30.155  0.1268 -0.3310 -0.0945
84353W        W27270  16.722   1.901  31.017  0.0401  0.2961  0.0374
84354W        W27271  19.153   3.569  29.188  0.0565  0.1823 -0.1456
84355W        W27272  16.959   2.767  30.505  0.2681 -0.0639 -0.2998
84356W        W27273  22.207   0.844  26.950 -0.0111  0.0867  0.0253
84357W        W27274  18.791   2.215  31.231  0.4699  0.1524  0.1407
84358W        W27275  19.391  34.034  29.188  0.1692 -0.3603 -0.2211
84359W        W27276  17.895   1.839  31.250  0.2271  0.1635  0.0377
84360W        W27277  22.013   1.619  29.652  0.2127  0.0775  0.2712
84361W        W27278  20.680   1.866  30.359 -0.1656 -0.1281  0.1537
84362W        W27279  17.980   2.287  29.785 -0.0369  0.1270  0.2053
84363W        W27280  19.175   2.556  28.588  0.0967 -0.0797 -0.3413
84364W        W27281  22.625   2.669  30.915 -0.2061  0.0413 -0.2601
84365W        W27282  20.988   3.057  29.569 -0.3652 -0.0090  0.1521
84366W        W27283  21.409   5.238   0.553 -0.0439 -0.2521  0.3802
84367W        W27284  17.583   0.301  30.703  0.1143  0.0859 -0.1330
84368W        W27285  20.372   0.553  28.469  0.1425  0.2550 -0.0842
84369W        W27286  18.882   1.478  29.227  0.1074 -0.0950  0.0506
84370W        W27287  20.244   1.340  29.267 -0.1568  0.0759  0.1534
84371W        W27288  19.705   3.781  31.191  0.4398 -0.0450  0.2282
84372W        W27289  17.555   1.411  29.923 -0.0734 -0.0804 -0.0594
84373W        W27290  20.270   3.881  28.903 -0.3356 -0.0203 -0.1354
84374W        W27291  20.526   2.174  29.855  0.0558 -0.0936  0.0081
84375W        W27292  20.124   4.438  27.153 -0.1952  0.0266 -0.0923
84376W        W27293  21.241   1.932  29.187  0.2703  0.2659  0.2846
84377W        W27294  22.713   3.687  29.526 -0.1543 -0.0399 -0.0109
84378W        W27295  18.434   0.402  29.423  0.0677  0.2187 -0.2821
84379W        W27296  22.055   3.105  29.727  0.2699 -0.0586  0.2752
84380W        W27297  22.504   2.758  31.770 -0.0448  0.1611  0.1842
84381W        W27298  19.807   1.476  30.727  0.1576  0.0749  0.0289
84382W        W27299  20.081   3.382  29.070 -0.2797  0.0558 -0.0651
84383W        W27300  18.837   3.827  28.335 -0.1386  0.1701  0.1951
84384W        W27301  22.746   1.186  30.039  0.2564  0.2141 -0.0885
84385W        W27302  21.657   2.966  31.090 -0.2120 -0.1809 -0.1971
84386W        W27303  20.409   2.178  26.893 -0.0282 -0.0049  0.1208
84387W        W27304  21.399   1.970  30.215  0.2900  0.1145  0.0614
84388W        W27305  20.734   3.465  30.769 -0.3861 -0.0072 -0.2423
84389W        W27306  20.459   3.156  30.368  0.1824 -0.4419 -0.2463
84390W        W27307  18.301   1.458  28.480 -0.0502 -0.1103 -0.4652
84391W        W27308  19.603   2.711  28.813 -0.1732  0.3546 -0.3610
84392W        W27309  18.810   4.087  27.310 -0.1763  0.0171 -0.0638
84393W        W27310  19.697   4.262  27.356  0.1062 -0.1864  0.1863
84394W        W27311  22.533   4.495  29.333 -0.3759 -0.0625 -0.0247
84395W        W27312  17.795   0.084  28.532 -0.0185  0.2306  0.0392
84396W        W27313  23.440   3.494  29.003 -0.0173  0.1869 -0.0311
84397W        W27314  21.198   2.057  30.711 -0.2673 -0.0493  0.0070
84398W        W27315  23.217  34.515  26.857  0.0302 -0.2987  0.0968
84399W        W27316  21.528   2.118  31.317 -0.1021 -0.0118  0.1342
84400W        W27317  20.343   2.717  29.700 -0.0107  0.0400 -0.3999
84401W        W27318  17.306   0.999  29.069  0.0918  0.1643  0.4123
84402W        W27319  19.205   2.420  27.246  0.2310 -0.0629  0.0354
84403W        W27320  19.540   4.416  28.837  0.3180 -0.0958  0.1668
84404W        W27321  19.126  34.159  31.398 -0.0193 -0.1426 -0.1366
84405W        W27322  18.792   2.903  30.632  0.1306  0.0508  0.2802
84406W        W27323  20.825   3.742  28.628 -0.1990 -0.1163 -0.0930
84407W        W27324  17.981   0.486  26.615  0.1022 -0.1117 -0.0792
84408W        W27325  20.151   2.918  28.819 -0.0809 -0.0930  0.0743
84409W        W27326  19.397   1.004  30.991 -0.2783  0.0834 -0.2288
84410W        W27327  18.668   1.126  29.852  0.2149  0.1880  0.1370
84411W        W27328  19.792   1.530  30.062  0.0310  0.0212 -0.2241
84412W        W27329  21.586   2.232  28.241  0.0499 -0.2662  0.1904
84413W        W27330  20.211   1.284  29.776  0.0254 -0.3178  0.0864
84414W        W27331  21.919   2.309  30.472  0.4302 -0.0849 -0.0335
84415W        W27332  17.863   3.564  27.385  0.1246 -0.2935 -0.3036
84416W        W27333  21.053   2.810   1.951 -0.0157  0.1198 -0.1521
84417W        W27334  18.169  34.492   1.037 -0.0900  0.1697  0.1907
84418W        W27335  18.393   0.439  31.084 -0.3653 -0.1221 -0.0311
84419W        W27336  20.064  34.595  29.840 -0.4070  0.1308 -0.1123
84420W        W27337  22.330   3.483  29.256 -0.0381  0.5838  0.0611
84421W        W27338  20.181   3.966  27.132  0.1582  0.1743 -0.3528
84422W        W27339  22.435   3.466  29.896 -0.0751  0.1112 -0.2747
84423W        W27340  19.611   3.522  29.937 -0.0069 -0.2494 -0.3277
84424W        W27341  16.856  34.524  30.395  0.1495  0.1946  0.1926
84425W        W27342  20.591   0.854  29.341 -0.1160  0.0944  0.0595
84426W        W27343  20.965   2.260  30.122  0.0262 -0.0160 -0.0585
84427W        W27344  22.598   3.106  29.020 -0.2420 -0.0930  0.1224
84428W        W27345  22.022   0.246  31.266 -0.2390  0.0910  0.0280
84429W        W27346  19.109   2.095  28.205 -0.2704 -0.0184 -0.1446
84430W        W27347  19.589   0.563  30.773  0.0842  0.0416 -0.3207
84431W        W27348  20.107   3.319  29.623 -0.0535 -0.3490  0.0527
84432W        W27349  24.008   1.804  29.923  0.3353  0.1102  0.0906
84433W        W27350  19.244   0.898  29.944 -0.0665  0.4015 -0.0721
84434W        W27351  20.955  34.245  27.792  0.3252 -0.2096 -0.0556
84435W        W27352  19.977   4.287  31.563  0.0920  0.1218 -0.2624
84436W        W27353  20.258   2.265  29.466 -0.0848 -0.0118 -0.0794
84437W        W27354  17.433   0.724  30.421 -0.0980 -0.0428  0.1478
84438W        W27355  21.363   0.468  30.774  0.1825  0.0670  0.1249
84439W        W27356  20.503   2.069  29.062 -0.3511  0.5754  0.1435
84440W        W27357  20.978   4.362  30.271 -0.0544 -0.2749  0.0493
84441W        W27358  19.821  34.657  28.353  0.3559  0.0419  0.0292
84442W        W27359  20.790   1.205  29.700 -0.0242 -0.1804 -0.0063
84443W        W27360  22.577   3.145  31.127  0.2157  0.0553  0.2733
84444W        W27361  19.503   2.708  29.313  0.1868 -0.0980  0.0597
84445W        W27362  20.239   2.659  30.487  0.1267 -0.0483  0.0753
84446W        W27363  20.830   1.040  30.165  0.0145  0.1259 -0.1477
84447W        W27364  18.833   0.744  30.818  0.1991 -0.0891  0.3711
84448W        W27365  16.321   1.615  29.634  0.0994 -0.1183 -0.0026
84449W        W27366  19.291   3.952  27.253  0.1656  0.1284 -0.0556
84450W        W27367  20.403   0.730  30.942  0.0626  0.1146  0.0872
84451W        W27368  17.692   1.082  30.743 -0.1282 -0.3718 -0.1445
84452W        W27369  19.680  33.638  29.310  0.3432 -0.2696  0.0529
84453W        W27370  20.180   4.248  29.795  0.1768  0.0017  0.0106
84454W        W27371  20.329  34.014  28.953 -0.2073  0.0481 -0.3858
84455W        W27372  23.079   3.559  31.036  0.3358 -0.0644 -0.1670
84456W        W27373  19.497   2.261  31.650  0.0169 -0.1573  0.2333
84457W        W27374  19.384   0.631   0.527 -0.3506  0.1547  0.2111
84458W        W27375  17.631   2.864  30.406 -0.0345 -0.1321 -0.1250
84459W        W27376  18.462   2.482   1.840  0.1305  0.2192  0.1422
84460W        W27377  18.710   3.610   0.612  0.0060  0.1129  0.0330
84461W        W27378  23.016   2.535  30.229 -0.1324  0.0984 -0.0488
84462W        W27379  18.853   0.795   0.440 -0.1750 -0.1571 -0.0275
84463W        W27380  21.930   2.521  31.912  0.1609  0.4966 -0.2891
84464W        W27381  22.288   3.347   0.131 -0.1252 -0.1913  0.0245
84465W        W27382  19.799   3.327   0.017  0.2187  0.0120  0.0401
84466W        W27383  19.347   0.252  31.687 -0.1190 -0.0830 -0.1779
84467W        W27384  20.096   0.491   0.079 -0.0092 -0.1511  0.0431
84468W        W27385  19.288   1.136   0.311  0.0185 -0.1403  0.0380
84469W        W27386  21.050   1.350   0.812 -0.1766  0.1812 -0.0002
84470W        W27387  18.562   3.575   2.638  0.1777 -0.0784  0.0757
84471W        W27388  17.047   2.169  31.303  0.0066  0.3126 -0.3086
84472W        W27389  21.282   2.796  30.838 -0.2503 -0.1561  0.0679
84473W        W27390  19.278  33.240   1.441 -0.1543 -0.1621 -0.2426
84474W        W27391  16.588  34.651   3.201  0.0016 -0.1825  0.1858
84475W        W27392  16.317  34.568  31.066 -0.1410 -0.0937  0.1874
84476W        W27393  16.606   4.565   0.233 -0.0499  0.2989  0.1222
84477W        W27394  21.718   1.508  31.640 -0.2731  0.1209  0.0471
84478W        W27395  19.637   1.300   0.795  0.2888  0.1083 -0.1549
84479W        W27396  20.694   0.814  31.954  0.4001  0.0871 -0.0832
84480W        W27397  20.698   2.185  31.000 -0.1183  0.0019 -0.0412
84481W        W27398  19.974   1.127  31.686 -0.2089 -0.1899  0.2039
84482W        W27399  19.546   2.745  31.215  0.2358 -0.0061 -0.2337
84483W        W27400  18.409   1.076  30.808 -0.1441 -0.0745 -0.1650
84484W        W27401  20.953   2.700   1.056  0.0032  0.1558  0.1000
84485W        W27402  19.341   3.618  28.574  0.0209 -0.1895 -0.0043
84486W        W27403  17.683  34.130   1.172 -0.0122  0.2259  0.2535
84487W        W27404  22.531   0.560  31.234  0.1318  0.0178  0.0079
84488W        W27405  20.278   2.433  31.012  0.2190 -0.1835 -0.1595
84489W        W27406  18.016   2.031   0.178  0.2616  0.0867 -0.0282
84490W        W27407  18.337   2.132  31.259 -0.0483  0.1827  0.2055
84491W        W27408  18.510   2.034  30.440 -0.1645  0.2815 -0.1584
84492W        W27409  19.209   1.524  31.900 -0.0294 -0.0637 -0.4297
84493W        W27410  20.621   3.550   1.613 -0.0243 -0.0294 -0.2404
84494W        W27411  20.348   2.065  31.886 -0.0353  0.2227 -0.2648
84495W        W27412  21.618   2.433  30.928  0.3912  0.2786 -0.4354
84496W        W27413  20.771   1.150  30.661 -0.1643  0.0163  0.2956
84497W        W27414  20.175  33.465  31.418 -0.0672  0.3019 -0.1092
84498W        W27415  19.478   4.002  30.791 -0.0707 -0.3357 -0.1520
84499W        W27416  18.479  33.504  30.094  0.0257  0.0925  0.3439
84500W        W27417  17.109   0.738  31.451  0.2294  0.3106 -0.0374
84501W        W27418  18.944   0.167   1.176  0.0295 -0.1263 -0.0383
84502W        W27419  22.639   3.613  31.324  0.2851  0.0379  0.1786
84503W        W27420  21.332   3.110   0.991 -0.0703  0.1363 -0.0297
84504W        W27421  19.408   1.268  29.256 -0.4276 -0.1072  0.0155
84505W        W27422  20.714   3.923   0.639 -0.1884 -0.2499 -0.3515
84506W        W27423  19.993   1.771  31.458 -0.1841  0.1510 -0.0150
84507W        W27424  19.113  33.975   0.242 -0.2797  0.1986  0.3534
84508W        W27425  19.454   2.302  30.757 -0.0037  0.2994  0.2553
84509W        W27426  19.435   1.778  31.575  0.1219  0.3878 -0.0989
84510W        W27427  19.389   3.310  31.527 -0.0865  0.0501  0.2901
84511W        W27428  20.471   2.607   0.078  0.0776 -0.3222 -0.1251
84512W        W27429  19.316   2.833  30.652 -0.1515  0.3671  0.3074
84513W        W27430  19.645   3.159  30.371 -0.1354 -0.3053 -0.1379
84514W        W27431  18.401   1.032   1.292 -0.1492  0.2969  0.1219
84515W        W27432  18.119   0.258   2.297  0.1379  0.0825  0.0955
84516W        W27433  19.534   3.332   3.492 -0.0458  0.0674 -0.0823
84517W        W27434  17.474   2.065  31.454  0.0529  0.0993 -0.0219
84518W        W27435  20.062   1.141  31.139 -0.0074  0.3439 -0.0592
84519W        W27436  20.360   4.418  31.898 -0.1045  0.0472  0.0553
84520W        W27437  21.419   4.173  31.880 -0.1225 -0.5521  0.2267
84521W        W27438  23.153   2.555  30.812 -0.4484 -0.0996  0.1049
84522W        W27439  19.855   5.429  20.105 -0.0756  0.0801  0.0346
84523W        W27440  20.767   4.630  17.964  0.0972 -0.2753 -0.2597
84524W        W27441  22.081   4.863  16.917 -0.3268  0.0040  0.0482
84525W        W27442  20.002   2.372  16.952 -0.1077  0.2678 -0.1424
84526W        W27443  20.135   5.593  16.961  0.2235  0.0758  0.0970
84527W        W27444  19.372   5.724  17.379 -0.1457 -0.2565 -0.0016
84528W        W27445  18.079   3.216  18.463 -0.0826 -0.0959  0.2793
84529W        W27446  21.694   7.294  19.075  0.0908  0.4699  0.0171
84530W        W27447  20.308   7.014  16.647 -0.1952 -0.2995 -0.1676
84531W        W27448  19.351   4.853  16.202 -0.2807  0.0430  0.2654
84532W        W27449  20.084   5.480  19.536  0.1028  0.1866  0.0003
84533W        W27450  18.658   7.824  20.046 -0.2702 -0.2458 -0.0083
84534W        W27451  19.843   2.558  18.112 -0.1579 -0.4409 -0.2131
84535W        W27452  18.733   3.930  17.552  0.0800 -0.2092  0.1224
84536W        W27453  18.204   5.419  19.306  0.0406  0.1051  0.2507
84537W        W27454  17.014   5.341  18.274 -0.0155 -0.1380 -0.1221
84538W        W27455  18.045   4.915  19.334  0.3043  0.0129  0.0784
84539W        W27456  19.251   4.000  16.502 -0.4227  0.0189 -0.2010
84540W        W27457  19.894   5.637  18.058  0.0344 -0.1071  0.2002
84541W        W27458  18.821   3.736  17.002 -0.5185 -0.1144 -0.0926
84542W        W27459  20.005   4.160  18.091  0.3114 -0.0995  0.0943
84543W        W27460  19.393   6.149  18.212  0.0398 -0.3018  0.0778
84544W        W27461  17.376   5.248  16.024  0.1936 -0.0510 -0.1415
84545W        W27462  19.410   4.662  19.301 -0.3124 -0.0635 -0.0091
84546W        W27463  19.710   5.131  19.706  0.1028  0.1426 -0.2636
84547W        W27464  20.885   4.987  19.535  0.1302  0.2388 -0.0446
84548W        W27465  22.030   5.869  17.184 -0.0428 -0.2319 -0.0064
84549W        W27466  18.017   7.093  17.743 -0.2434 -0.1107  0.0659
84550W        W27467  20.577   8.337  19.061  0.0173  0.2049 -0.2139
84551W        W27468  20.459   5.414  20.232  0.0627 -0.2231  0.1344
84552W        W27469  17.947   7.079  18.614 -0.0208  0.2993 -0.0623
84553W        W27470  18.473   7.093  18.631  0.2206  0.1215  0.1568
84554W        W27471  19.906   5.526  16.499  0.2034  0.0449 -0.0120
84555W        W27472  20.881   5.455  19.298 -0.1416 -0.0914  0.0934
84556W        W27473  22.695   6.583  17.385  0.1491 -0.0945 -0.0713
84557W        W27474  18.039   8.066  19.924 -0.1983  0.0097 -0.2003
84558W        W27475  20.151   6.389  18.013 -0.4169 -0.2308  0.0335
84559W        W27476  19.953   7.373  16.624  0.0062  0.0747  0.2494
84560W        W27477  20.850   7.300  19.431  0.1062 -0.0700  0.2257
84561W        W27478  18.875   4.765  19.001  0.0604 -0.1859 -0.0957
84562W        W27479  19.433   4.911  15.637 -0.1736 -0.0113 -0.1617
84563W        W27480  19.466   5.717  15.916  0.0246 -0.1241 -0.2113
84564W        W27481  21.418   5.099  17.027  0.0614 -0.0230  0.1936
84565W        W27482  18.774   6.010  19.349 -0.1047 -0.3260 -0.2229
84566W        W27483  17.408   5.375  19.880  0.0250 -0.0914 -0.2077
84567W        W27484  22.539   6.192  21.434  0.3189 -0.0110 -0.0178
84568W        W27485  19.247   7.083  15.166 -0.0155 -0.1112 -0.1034
84569W        W27486  21.276   5.665  17.970  0.0474 -0.3017  0.0673
84570W        W27487  19.731   3.914  16.292 -0.2038 -0.2718  0.1698
84571W        W27488  20.238   1.818  17.577 -0.2090 -0.0903 -0.1656
84572W        W27489  18.589   0.250  18.877  0.2460  0.3270 -0.3202
84573W        W27490  19.403   6.659  18.887  0.0371  0.2358 -0.1816
84574W        W27491  19.110   4.245  17.267 -0.0582  0.0093  0.0787
84575W        W27492  21.160   6.384  19.578  0.0384  0.0593 -0.0773
84576W        W27493  18.972   6.359  18.074 -0.0618  0.1098  0.3285
84577W        W27494  19.799   7.681  19.376 -0.1656  0.2145  0.2483
84578W        W27495  16.037   5.828  19.164  0.0791  0.1624 -0.2568
84579W        W27496  19.052   5.819  19.757 -0.0145  0.2831  0.0295
84580W        W27497  20.778   6.823  16.336 -0.3432 -0.0048 -0.2850
84581W        W27498  22.297   6.480  18.305  0.1907 -0.3302  0.1392
84582W        W27499  19.738   5.386  15.530  0.2324 -0.1129  0.0583
84583W        W27500  19.089   6.360  18.578  0.1322  0.0761 -0.0863
84584W        W27501  17.761   7.338  18.161 -0.0998  0.0769  0.1270
84585W        W27502  19.391   4.065  21.816 -0.1094 -0.0588  0.2314
84586W        W27503  18.778   2.237  16.422 -0.1658 -0.1427 -0.0952
84587W        W27504  20.186   7.915  20.895 -0.0233  0.0456  0.1475
84588W        W27505  18.544   8.848  19.934 -0.3245 -0.0422  0.0101
84589W        W27506  21.228   4.638  17.810  0.3001  0.2335  0.1360
84590W        W27507  20.317   8.139  19.483 -0.0518  0.3716 -0.0960
84591W        W27508  21.734   5.360  18.084  0.2267 -0.2515 -0.1021
84592W        W27509  20.996   4.294  16.103  0.0863 -0.0044 -0.2269
84593W        W27510  18.885   3.493  16.126 -0.0945 -0.0278  0.0204
84594W        W27511  20.335   5.114  18.385 -0.0173  0.3438 -0.4776
84595W        W27512  17.795   4.256  17.098  0.0639  0.0121 -0.0834
84596W        W27513  19.506   6.634  16.695 -0.2546  0.1614 -0.2377
84597W        W27514  20.886   7.982  18.768 -0.2187 -0.1267 -0.0264
84598W        W27515  21.578   5.888  16.848 -0.2208  0.0688  0.0291
84599W        W27516  19.936   7.195  19.397 -0.1318 -0.0763 -0.2274
84600W        W27517  18.940   5.345  18.898 -0.2256 -0.1057 -0.0969
84601W        W27518  18.538   6.049  19.844  0.1313 -0.5884 -0.0408
84602W        W27519  17.120   6.103  16.271 -0.0172  0.1005 -0.1697
84603W        W27520  16.485   6.838  19.600  0.0824  0.1928 -0.0869
84604W        W27521  18.341   6.000  17.190  0.2010 -0.0706 -0.3073
84605W        W27522  18.808   3.563  17.976 -0.1125  0.0162 -0.3610
84606W        W27523  19.406   7.404  19.539  0.1139  0.0788 -0.1902
84607W        W27524  20.060   4.763  17.170  0.0350 -0.2889 -0.2068
84608W        W27525  18.096   5.271  20.513 -0.0669  0.3328 -0.0459
84609W        W27526  19.381   4.720  17.250  0.1605  0.1415 -0.0167
84610W        W27527  19.695   6.791  15.869 -0.0567 -0.0484  0.0181
84611W        W27528  21.708   7.657  17.883  0.2028  0.1576  0.0072
84612W        W27529  22.048   4.942  16.321 -0.1506  0.0072  0.2659
84613W        W27530  19.256   6.756  15.532  0.2140  0.0920  0.1531
84614W        W27531  18.646   4.945  17.502  0.0934  0.1018  0.0437
84615W        W27532  19.032   3.811  19.767 -0.0860 -0.1240  0.0830
84616W        W27533  19.241   5.372  19.699  0.0968  0.1868 -0.3227
84617W        W27534  17.728   2.983  18.160 -0.1083 -0.0883 -0.1101
84618W        W27535  21.772   7.110  19.609 -0.1000 -0.1661  0.0209
84619W        W27536  18.137   4.993  16.832 -0.0605 -0.5328  0.1031
84620W        W27537  20.013   5.034  15.728  0.0972  0.1042  0.0708
84621W        W27538  20.735   5.832  16.719  0.0566  0.1166  0.1216
84622W        W27539  17.681   5.273  17.048  0.0343  0.0552 -0.1382
84623W        W27540  21.182   2.839  21.496 -0.2366 -0.1267  0.3036
84624W        W27541  20.327   6.245  16.103  0.0416 -0.2222  0.1445
84625W        W27542  22.105   8.602  18.982 -0.1145 -0.3479  0.0137
84626W        W27543  20.780   5.796  17.220  0.2890  0.0816 -0.1957
84627W        W27544  17.791   4.363  17.588 -0.1035 -0.1224 -0.0047
84628W        W27545  17.331   4.446  16.839 -0.1969  0.0918  0.0849
84629W        W27546  19.547   7.255  16.838 -0.0022 -0.1004 -0.2650
84630W        W27547  21.514   6.422  16.731 -0.0498  0.4527  0.0469
84631W        W27548  19.674   3.156  16.245  0.1238 -0.0778  0.2514
84632W        W27549  20.781   9.269  18.521  0.0076 -0.0556  0.1564
84633W        W27550  21.192   5.534  16.913  0.3312 -0.3890  0.0189
84634W        W27551  20.189   7.940  19.044  0.0152 -0.0103 -0.0430
84635W        W27552  21.828   3.700  18.920  0.2010  0.1087  0.0572
84636W        W27553  20.226   4.795  18.774  0.4436  0.1362  0.2368
84637W        W27554  22.172   4.780  17.415  0.1422 -0.2771 -0.0804
84638W        W27555  17.063   4.156  16.345  0.0816  0.2634 -0.1904
84639W        W27556  20.115   6.833  17.786 -0.1107 -0.0196  0.2258
84640W        W27557  17.210   7.069  16.259  0.1601 -0.0959  0.0585
84641W        W27558  17.600   6.173  16.284  0.0379  0.2880  0.1499
84642W        W27559  20.791   6.415  17.196 -0.1564 -0.0304  0.1109
84643W        W27560  20.599   6.153  18.062  0.0057 -0.1054 -0.0064
84644W        W27561  17.968   6.712  20.309 -0.0065 -0.2890  0.0258
84645W        W27562  19.012   5.225  20.407  0.0315 -0.3553 -0.2527
84646W        W27563  18.336   4.721  17.158 -0.0011 -0.1373 -0.2919
84647W        W27564  17.641   5.213  19.135  0.0651  0.2544  0.0768
84648W        W27565  19.049   5.712  16.757  0.1081 -0.0485  0.1227
84649W        W27566  20.003   3.472  16.589  0.0540 -0.2105 -0.0088
84650W        W27567  19.715   5.787  19.719 -0.1081 -0.2508 -0.1523
84651W        W27568  19.366   4.370  16.830 -0.0370 -0.0963 -0.3499
84652W        W27569  21.150   4.292  16.568 -0.1410  0.0112 -0.0505
84653W        W27570  21.505   5.675  17.269 -0.1503 -0.1783 -0.1723
84654W        W27571  15.340   4.637  19.773  0.1304  0.1371  0.4215
84655W        W27572  20.265   6.035  16.598  0.1215  0.0185 -0.1730
84656W        W27573  19.548   6.317  17.260  0.0680 -0.1415  0.0251
84657W        W27574  21.397   4.582  16.072  0.0055  0.0889 -0.1156
84658W        W27575  20.433   6.500  16.530  0.4726 -0.2617  0.0473
84659W        W27576  14.598   5.628  17.907 -0.2609  0.2642 -0.0248
84660W        W27577  19.955   5.484  19.007 -0.1070 -0.0331  0.0041
84661W        W27578  20.802   5.453  18.779  0.0025 -0.3728  0.0575
84662W        W27579  19.574   4.055  17.978 -0.1312  0.4599 -0.0249
84663W        W27580  21.188   3.851  16.228 -0.2074  0.1420 -0.1856
84664W        W27581  19.474   1.333  18.569  0.0392  0.1234  0.2141
84665W        W27582  18.943   7.238  15.664  0.1765  0.1269  0.0854
84666W        W27583  22.302   3.640  18.590  0.0035 -0.0137  0.2037
84667W        W27584  19.962   6.063  20.210 -0.0202  0.2232 -0.0433
84668W        W27585  20.754   3.370  19.766  0.2424  0.0917 -0.1061
84669W        W27586  20.244   4.553  18.281  0.0182  0.2597  0.0425
84670W        W27587  18.603   4.806  16.669  0.1061 -0.1969  0.3236
84671W        W27588  20.085   6.945  18.978 -0.2111 -0.2587  0.1179
84672W        W27589  17.792   5.764  16.941 -0.2828  0.0850 -0.0868
84673W        W27590  19.771   4.157  18.539  0.3811 -0.1379  0.2359
84674W        W27591  19.992   5.946  19.238 -0.1884 -0.2536  0.0003
84675W        W27592  18.262   6.011  19.368 -0.0246  0.0303  0.0499
84676W        W27593  21.351   6.257  18.617 -0.1876  0.3052  0.0016
84677W        W27594  19.708   6.558  18.054 -0.1614 -0.0427  0.0867
84678W        W27595  21.667   3.966  20.632 -0.0709 -0.3944 -0.0363
84679W        W27596  19.607   5.202  15.978 -0.3296 -0.0248 -0.0064
84680W        W27597  18.793   7.088  16.295  0.1380 -0.2080  0.2722
84681W        W27598  18.163   5.492  17.095  0.1235  0.1179 -0.3597
84682W        W27599  19.973   2.857  17.165  0.1016  0.0084  0.4527
84683W        W27600  19.650   6.862  17.565 -0.2726  0.0008  0.2269
84684W        W27601  19.826   7.390  15.284  0.2429  0.3458  0.1970
84685W        W27602  21.228   5.381  20.931  0.0339  0.0516  0.1138
84686W        W27603  19.896   6.869  16.860  0.4258 -0.2763  0.0141
84687W        W27604  22.624   3.953  21.464  0.0604 -0.2065 -0.1278
84688W        W27605  17.836   7.794  17.299  0.1006 -0.3044  0.5319
84689W        W27606  19.898   4.308  16.876 -0.1521  0.0693 -0.2477
84690W        W27607  18.682   6.086  18.489  0.1960  0.2517 -0.2135
84691W        W27608  20.721   3.331  17.293 -0.1848  0.0897 -0.1417
84692W        W27609  21.729   6.100  16.400 -0.2548 -0.1198 -0.2440
84693W        W27610  17.108   5.746  18.610  0.0001  0.0462  0.1112
84694W        W27611  19.164   4.897  17.679  0.0717 -0.0166 -0.1288
84695W        W27612  16.013   9.038  18.324 -0.1269  0.2231  0.0760
84696W        W27613  20.768   5.930  18.720  0.0494  0.2133  0.1243
84697W        W27614  20.224   4.698  16.045  0.2204  0.2507 -0.2661
84698W        W27615  21.859   6.638  19.500  0.0486  0.2285  0.0741
84699W        W27616  18.720   5.125  19.387  0.1770  0.1400 -0.2029
84700W        W27617  18.728   4.995  18.526 -0.2077 -0.2670 -0.0197
84701W        W27618  19.637   5.049  18.783 -0.0358  0.2211 -0.3531
84702W        W27619  20.778   5.695  17.802  0.3262 -0.2151 -0.1015
84703W        W27620  19.620   5.972  18.779  0.0735  0.0091 -0.3050
84704W        W27621  20.405   6.101  17.101 -0.1231  0.1647  0.1808
84705W        W27622  18.502   5.587  16.756  0.2005 -0.0030 -0.2057
84706W        W27623  17.486   5.611  18.368 -0.1541 -0.0626 -0.2081
84707W        W27624  17.605   4.158  18.397 -0.2188  0.0797 -0.1337
84708W        W27625  19.056   6.359  19.091  0.0004  0.1583 -0.1344
84709W        W27626  19.908   4.990  16.306  0.0984 -0.1427 -0.0350
84710W        W27627  17.993   5.424  16.619 -0.2512 -0.0768  0.2079
84711W        W27628  20.391   5.390  17.958 -0.0269  0.2275 -0.0225
84712W        W27629  19.932   6.006  18.381  0.2687 -0.0867  0.1399
84713W        W27630  19.025   5.927  18.843  0.1276  0.3497  0.1087
84714W        W27631  19.726   7.004  20.229 -0.0446  0.2394  0.0512
84715W        W27632  19.826   2.407  17.519 -0.1451  0.2048  0.2016
84716W        W27633  22.565   7.312  18.290  0.0607 -0.1089  0.1018
84717W        W27634  20.855   7.097  18.975 -0.1361  0.1166 -0.1329
84718W        W27635  20.417   5.541  16.422 -0.2179 -0.0328  0.1037
84719W        W27636  17.800   5.062  18.303 -0.2917 -0.1461 -0.3021
84720W        W27637  19.865   5.577  17.561  0.0552  0.1463 -0.0233
84721W        W27638  18.812   4.419  18.621 -0.0671  0.1473 -0.3290
84722W        W27639  19.052   6.406  19.674 -0.3153 -0.1364  0.1285
84723W        W27640  18.542   6.624  16.200  0.0230  0.2547 -0.2467
84724W        W27641  17.945   6.334  18.955 -0.2820 -0.2267  0.0619
84725W        W27642  18.778   1.398  16.995  0.3327 -0.1213 -0.0762
84726W        W27643  20.400   6.268  15.610  0.0175  0.0546  0.0922
84727W        W27644  21.103   5.470  17.478  0.0492 -0.1459 -0.2591
84728W        W27645  22.739   3.474  21.522 -0.1432 -0.0061 -0.4014
84729W        W27646  18.560   3.753  16.420 -0.1265 -0.1687  0.2146
84730W        W27647  20.632   4.278  18.817  0.0917  0.0475 -0.1231
84731W        W27648  19.222   4.081  20.239  0.0713  0.0528  0.0619
84732W        W27649  22.561   5.652  18.264 -0.2758 -0.2020  0.0792
84733W        W27650  16.941   6.125  19.841  0.1150 -0.3737 -0.2548
84734W        W27651  19.069   6.966  19.121  0.2423 -0.2665 -0.3343
84735W        W27652  20.488   7.198  20.659  0.0573 -0.1176  0.0217
84736W        W27653  17.482   6.086  16.781  0.2456 -0.3285 -0.0618
84737W        W27654  18.893   4.065  16.119 -0.0082 -0.0813  0.1626
84738W        W27655  18.669   5.918  16.243 -0.1737  0.1319 -0.1716
84739W        W27656  20.241   6.737  18.360 -0.1069 -0.0877  0.2451
84740W        W27657  19.686   4.394  16.411  0.1931  0.0698 -0.2224
84741W        W27658  20.014   5.447  18.528 -0.2180  0.0994  0.1858
84742W        W27659  19.469   8.034  19.775  0.3688 -0.1785 -0.1723
84743W        W27660  20.781   4.659  16.475 -0.2708 -0.1029 -0.3423
84744W        W27661  19.415   4.222  16.037  0.2448  0.3024 -0.0178
84745W        W27662  19.375   5.673  17.903  0.1072  0.1225 -0.3847
84746W        W27663  18.982   3.002  17.633 -0.2263  0.2419  0.1978
84747W        W27664  20.360   5.608  17.406 -0.3219 -0.0182  0.0361
84748W        W27665  21.679   5.794  17.759  0.0839 -0.1401  0.0068
84749W        W27666  20.914   4.016  20.400  0.2368  0.0474  0.2212
84750W        W27667  19.576   5.572  19.291  0.1598  0.0111 -0.0011
84751W        W27668  21.297   3.612  21.524 -0.1318 -0.3480  0.1130
84752W        W27669  20.037   5.001  20.475 -0.0142 -0.1712  0.2762
84753W        W27670  21.332   7.281  18.693  0.0295 -0.1263 -0.1540
84754W        W27671  21.533   3.351  16.336 -0.2241  0.0985 -0.1306
84755W        W27672  20.787   6.763  20.653  0.3392  0.1332 -0.1009
84756W        W27673  21.293   4.744  16.580  0.0251  0.1894 -0.0419
84757W        W27674  21.527   4.490  18.314  0.0308  0.6549  0.1973
84758W        W27675  16.747   3.828  16.501  0.0723 -0.2709 -0.1099
84759W        W27676  20.107   6.924  22.625  0.1143  0.2711  0.0016
84760W        W27677  18.888   5.230  16.608  0.3305 -0.2282 -0.1415
84761W        W27678  22.563   3.610  18.164 -0.0795 -0.1060  0.2077
84762W        W27679  19.486   6.549  16.213 -0.0815 -0.1347 -0.1067
84763W        W27680  20.849   5.213  18.210  0.0881 -0.0272 -0.1092
84764W        W27681  20.785   3.929  17.162  0.0896  0.1038 -0.1797
84765W        W27682  19.227   6.662  17.733  0.0039 -0.0764 -0.0036
84766W        W27683  17.984   4.864  20.228  0.1002 -0.1880 -0.2382
84767W        W27684  17.347   4.737  15.792 -0.2592  0.1361 -0.2499
84768W        W27685  21.221   3.994  15.735  0.0896  0.2064  0.2911
84769W        W27686  19.813   6.542  20.451 -0.1919 -0.2583  0.1518
84770W        W27687  19.964   4.540  20.595  0.0616  0.1148 -0.2066
84771W        W27688  21.640   3.227  15.798 -0.3595  0.4000  0.3041
84772W        W27689  22.674   6.116  20.177 -0.1470  0.3059 -0.2476
84773W        W27690  18.087   7.225  19.222  0.2631  0.0706  0.1021
84774W        W27691  20.650   3.023  19.257 -0.1844 -0.0018  0.2601
84775W        W27692  19.915   7.092  18.518  0.0060 -0.1217  0.0442
84776W        W27693  19.443   7.288  18.461  0.0679 -0.0937  0.1528
84777W        W27694  20.219   6.768  16.094  0.2230 -0.0340 -0.1077
84778W        W27695  19.676   2.121  18.862  0.0127  0.1566  0.1427
84779W        W27696  20.772   5.086  17.692  0.1487 -0.0121  0.0184
84780W        W27697  20.115   3.939  18.889  0.2105 -0.0045 -0.0386
84781W        W27698  22.725   7.149  19.829 -0.1159 -0.1962  0.0509
84782W        W27699  20.182   9.600  19.245 -0.3314  0.2451  0.2168
84783W        W27700  20.190   5.146  17.526  0.2722  0.0912  0.2310
84784W        W27701  20.964   7.711  20.424 -0.1413  0.0553  0.2032
84785W        W27702  21.348   4.051  17.001  0.2048  0.0664 -0.0554
84786W        W27703  18.354   3.667  17.738 -0.0791 -0.2954 -0.0273
84787W        W27704  17.239   4.912  19.064 -0.0094 -0.3411  0.1882
84788W        W27705  20.712   7.757  19.821  0.2478  0.1310  0.2027
84789W        W27706  19.553   5.338  18.293 -0.1263 -0.1249  0.3677
84790W        W27707  19.834   4.563  17.922  0.0954 -0.4467 -0.0119
84791W        W27708  17.124   5.010  16.911 -0.2140  0.2478 -0.0638
84792W        W27709  18.540   5.661  18.922 -0.2101  0.1563  0.0302
84793W        W27710  17.086   6.279  18.386  0.0216 -0.1435  0.0712
84794W        W27711  18.922   7.554  17.581  0.1859  0.0959  0.0761
84795W        W27712  21.970   6.440  16.075 -0.1421  0.0865 -0.3210
84796W        W27713  21.511   5.090  16.282 -0.1306  0.0400  0.3634
84797W        W27714  22.902   6.871  20.274  0.0977 -0.1982 -0.0557
84798W        W27715  18.430   5.498  18.043  0.0275 -0.0715 -0.0693
84799W        W27716  19.526   6.909  19.429 -0.1524 -0.0353 -0.0009
84800W        W27717  16.822   6.805  16.545 -0.1433 -0.1149 -0.1517
84801W        W27718  20.908   6.381  16.708  0.0470  0.1812  0.0665
84802W        W27719  20.096   7.019  17.331  0.3546 -0.1464  0.1408
84803W        W27720  21.482   7.232  20.672  0.0759 -0.0851  0.1563
84804W        W27721  20.242   4.653  16.582 -0.1004 -0.0971 -0.1827
84805W        W27722  21.397   5.115  19.544  0.0468  0.0349  0.0147
84806W        W27723  22.429   4.240  17.347 -0.2481 -0.2233 -0.1910
84807W        W27724  22.123   7.512  19.309  0.1240 -0.4349  0.2503
84808W        W27725  18.152   4.509  16.791 -0.1381 -0.2570  0.0722
84809W        W27726  20.233   2.518  17.786  0.3565 -0.2137  0.2545
84810W        W27727  18.920   6.277  20.178  0.0756 -0.0191  0.0942
84811W        W27728  21.430   4.095  19.968  0.0484 -0.4276 -0.1651
84812W        W27729  19.594   6.589  19.777 -0.0174 -0.2585  0.0162
84813W        W27730  21.032   5.737  19.654 -0.0025 -0.0516  0.2557
84814W        W27731  18.526   6.141  18.935 -0.0919  0.2104  0.3408
84815W        W27732  19.232   4.996  18.534  0.4093 -0.1210  0.0775
84816W        W27733  22.563   3.089  19.174 -0.0323  0.3018 -0.0162
84817W        W27734  19.183   5.268  17.040 -0.2636  0.0879  0.1325
84818W        W27735  21.271   6.555  17.142 -0.1578 -0.0372 -0.1467
84819W        W27736  20.079   6.468  17.426  0.2935  0.1430  0.0303
84820W        W27737  21.074   7.414  19.887  0.5685  0.1945  0.0866
84821W        W27738  17.594   7.850  17.779 -0.1188  0.2138  0.1157
84822W        W27739  19.414   6.212  15.786 -0.0135 -0.1351  0.0245
84823W        W27740  22.194   5.328  18.419  0.0959 -0.1864 -0.0619
84824W        W27741  20.071   6.420  18.857  0.0811 -0.1079 -0.0164
84825W        W27742  21.226   3.777  20.916 -0.2321  0.2898  0.0563
84826W        W27743  17.096   5.652  19.124  0.0274 -0.0082  0.0800
84827W        W27744  21.128   2.681  19.351  0.5681  0.1674  0.1507
84828W        W27745  21.186   4.134  18.573  0.0806  0.1845  0.0787
84829W        W27746  17.538   5.301  17.893 -0.1292  0.0310  0.2283
84830W        W27747  19.527   5.603  16.902 -0.0166 -0.0042  0.0062
84831W        W27748  21.002   3.956  21.352  0.0861 -0.1658 -0.0735
84832W        W27749  18.601   5.147  17.023 -0.0033 -0.2566  0.3112
84833W        W27750  20.948   6.013  19.258  0.0405 -0.0090  0.1241
84834W        W27751  16.861   2.238  17.549  0.1069  0.1477  0.0115
84835W        W27752  20.068   3.082  15.712  0.1794 -0.2460 -0.1748
84836W        W27753  18.251   7.259  18.188 -0.0907  0.2518  0.0100
84837W        W27754  19.750   8.243  18.856 -0.3543  0.0561 -0.0699
84838W        W27755  20.783   6.233  20.550  0.2875 -0.0794 -0.0610
84839W        W27756  19.176   4.823  16.707 -0.0465  0.0684 -0.0041
84840W        W27757  22.166   7.423  17.038 -0.2300  0.2887  0.1858
84841W        W27758  20.195   5.905  17.775  0.0761 -0.2757 -0.3292
84842W        W27759  20.376   7.723  16.614 -0.0980 -0.0530  0.0582
84843W        W27760  20.604   4.655  17.441  0.4025 -0.2517  0.3178
84844W        W27761  21.022   6.943  17.437  0.0535  0.2094  0.0306
84845W        W27762  16.375   4.891  18.177  0.0994  0.1589  0.1375
84846W        W27763  20.849   6.860  16.898  0.1444  0.0923 -0.0363
84847W        W27764  21.903   7.610  17.432  0.1462  0.0030 -0.3301
84848W        W27765  18.224   4.708  16.372 -0.2039 -0.2595 -0.3367
84849W        W27766  17.799   6.030  18.441 -0.1503  0.0182  0.1187
84850W        W27767  18.151   7.558  15.737 -0.0133 -0.1173 -0.0491
84851W        W27768  20.365   6.262  18.517  0.1006  0.0162 -0.0325
84852W        W27769  22.268   5.200  20.024  0.3496 -0.1693 -0.1700
84853W        W27770  19.228   6.102  16.266 -0.0675  0.1547  0.1380
84854W        W27771  22.230   5.286  21.147  0.0553  0.1817  0.3627
84855W        W27772  19.480   8.697  18.613 -0.1020  0.0890  0.2211
84856W        W27773  20.964   8.083  20.149 -0.0453 -0.0736  0.1533
84857W        W27774  19.356   6.188  16.838  0.1590 -0.2382  0.1839
84858W        W27775  18.832   6.983  19.594  0.1944 -0.0981 -0.1114
84859W        W27776  21.448   7.888  19.572 -0.4325  0.1081  0.0922
84860W        W27777  20.493   7.316  16.290 -0.1213  0.3577 -0.3946
84861W        W27778  20.944   7.560  18.539 -0.0960  0.0607  0.0249
84862W        W27779  21.627   5.315  17.607  0.0144  0.0649  0.1200
84863W        W27780  23.617   6.481  21.184  0.3191  0.3792 -0.2764
84864W        W27781  19.180   4.039  18.581  0.0589 -0.0266 -0.0103
84865W        W27782  20.541   2.320  18.641 -0.0862  0.2312  0.1419
84866W        W27783  19.772   3.572  19.098  0.1424 -0.3161  0.0905
84867W        W27784  20.796   4.090  19.439 -0.0895  0.0565  0.0092
84868W        W27785  18.087   5.093  17.371 -0.0812 -0.0653 -0.0409
84869W        W27786  17.833   5.981  15.885  0.1846 -0.1000 -0.0225
84870W        W27787  17.548   6.970  17.804 -0.0486 -0.1035  0.1260
84871W        W27788  20.199   3.317  17.019 -0.3879 -0.1281  0.0112
84872W        W27789  17.563   4.835  20.014  0.1474 -0.0025  0.0076
84873W        W27790  17.438   5.973  18.083 -0.1085  0.0606  0.1354
84874W        W27791  18.809   6.155  15.776 -0.3290 -0.0022 -0.1277
84875W        W27792  23.228   7.919  17.668  0.2977  0.1915  0.1938
84876W        W27793  17.199   4.352  18.632 -0.1150  0.3374  0.1225
84877W        W27794  17.839   4.089  16.642  0.0282 -0.1840 -0.2167
84878W        W27795  20.929   5.482  16.448  0.0631  0.1746 -0.4328
84879W        W27796  22.278   5.384  16.834  0.0565  0.3155  0.0736
84880W        W27797  19.674   4.788  16.763  0.0629 -0.0500  0.0676
84881W        W27798  22.168   6.812  21.393 -0.1725  0.0179  0.1255
84882W        W27799  18.254   8.033  15.848 -0.0193 -0.1924 -0.0529
84883W        W27800  19.432   2.972  20.651 -0.0805 -0.0410  0.0768
84884W        W27801  20.771   4.076  20.913  0.0371 -0.1211  0.3453
84885W        W27802  18.852   4.714  17.090 -0.0690  0.1008  0.1468
84886W        W27803  20.359   4.864  17.888  0.0142 -0.1886  0.2736
84887W        W27804  19.933   6.347  16.926 -0.0978  0.0333  0.1533
84888W        W27805  21.776   6.747  17.369  0.1658  0.0886  0.4515
84889W        W27806  19.843   8.019  17.999 -0.2959 -0.1118  0.2431
84890W        W27807  20.482   8.136  20.086 -0.0538 -0.2000  0.5416
84891W        W27808  19.957   4.007  17.650 -0.1285  0.2193  0.1540
84892W        W27809  21.969   6.283  17.517  0.0104  0.0667  0.0270
84893W        W27810  18.150   8.069  18.668 -0.0115  0.0521 -0.1751
84894W        W27811  21.314   6.410  15.465  0.1385  0.2097  0.0462
84895W        W27812  20.212   3.071  18.005  0.0303  0.1359 -0.1409
84896W        W27813  18.941   5.502  17.619 -0.1836 -0.0383  0.2455
84897W        W27814  17.888   4.458  18.726 -0.1940 -0.0460 -0.1010
84898W        W27815  18.801   4.274  20.538 -0.2915 -0.0245  0.0260
84899W        W27816  20.438   6.741  20.298 -0.2069  0.0993  0.1602
84900W        W27817  19.291   3.003  16.644 -0.2022  0.1177  0.1833
84901W        W27818  22.243   3.226  18.288  0.0006  0.0349  0.0065
84902W        W27819  20.487   4.925  15.531 -0.2903  0.0172 -0.0395
84903W        W27820  19.392   4.420  18.311 -0.3286  0.1613 -0.1558
84904W        W27821  19.728   4.426  17.437 -0.0244 -0.1613 -0.1456
84905W        W27822  19.383   4.175  19.393  0.0883  0.0729  0.3652
84906W        W27823  19.356   8.009  19.234  0.0234 -0.0883  0.0048
84907W        W27824  19.864   5.906  17.211 -0.0914 -0.0445  0.1241
84908W        W27825  19.185   6.129  17.690 -0.1466  0.0931  0.1405
84909W        W27826  21.480   5.617  16.383 -0.2616 -0.0280  0.2360
84910W        W27827  21.322   6.768  19.786  0.2077 -0.0981  0.1764
84911W        W27828  21.908   5.545  20.223  0.0179  0.1694  0.3465
84912W        W27829  19.650   6.183  17.761  0.2218 -0.3107  0.0035
84913W        W27830  20.090   7.469  18.954 -0.2026  0.3200 -0.0223
84914W        W27831  18.204   4.653  17.676 -0.2058 -0.1667  0.2949
84915W        W27832  19.986   5.135  16.838 -0.3056 -0.0746 -0.2662
84916W        W27833  21.276   5.113  17.875 -0.2598  0.0293  0.1179
84917W        W27834  21.276   3.323  19.850  0.1628  0.0668  0.1792
84918W        W27835  19.436   4.604  18.766 -0.1079 -0.0009 -0.0550
84919W        W27836  20.003   3.572  16.074  0.2591  0.0050 -0.0754
84920W        W27837  17.916   6.337  18.053 -0.2880  0.0829 -0.3115
84921W        W27838  20.521   6.729  18.775  0.2137 -0.0554 -0.3332
84922W        W27839  19.352   6.520  21.746 -0.0549  0.0995 -0.1100
84923W        W27840  20.572   4.562  23.648  0.1919  0.0706 -0.1495
84924W        W27841  20.283   4.118  21.044 -0.2458 -0.0515 -0.1495
84925W        W27842  22.415   6.010  22.249 -0.1238 -0.0053  0.1607
84926W        W27843  18.117   4.870  20.844 -0.0963  0.0103 -0.0799
84927W        W27844  18.787   8.265  21.416  0.0637  0.2598  0.0097
84928W        W27845  18.655   5.396  22.524  0.0896 -0.0835  0.1203
84929W        W27846  18.460   7.894  22.888 -0.3168 -0.0790  0.2527
84930W        W27847  19.874   6.742  25.556  0.2241  0.0598 -0.0837
84931W        W27848  19.561   4.970  20.880  0.3554  0.0806 -0.3118
84932W        W27849  18.487   4.968  22.204 -0.2972  0.1322  0.0302
84933W        W27850  19.820   5.639  22.230 -0.1911 -0.1421  0.2448
84934W        W27851  21.377   2.690  18.253  0.0091 -0.0296 -0.0440
84935W        W27852  18.432   2.688  22.051 -0.2291  0.1575  0.1458
84936W        W27853  19.658   7.253  22.621 -0.0022 -0.1282  0.2328
84937W        W27854  17.662   6.789  18.954  0.1711 -0.2857  0.1967
84938W        W27855  20.312   3.243  22.255  0.0676  0.1142  0.0640
84939W        W27856  20.181   3.765  20.492  0.2144 -0.0381  0.0977
84940W        W27857  20.683   7.736  20.896  0.0806  0.1182  0.0661
84941W        W27858  18.587   6.040  23.748 -0.2677  0.0398 -0.0886
84942W        W27859  21.965   2.672  22.878 -0.1906 -0.0668  0.0494
84943W        W27860  20.751   5.398  21.068 -0.1193  0.2222 -0.0563
84944W        W27861  19.407   4.895  20.306  0.5279  0.0558  0.1041
84945W        W27862  17.930   6.314  19.722  0.1621 -0.0723  0.0726
84946W        W27863  18.041   5.741  22.301  0.2024  0.0044 -0.1025
84947W        W27864  20.701   5.809  20.846  0.1305 -0.2272  0.0059
84948W        W27865  20.287   5.923  21.130  0.0694  0.1604 -0.3001
84949W        W27866  19.531   8.415  24.848  0.1254  0.5016 -0.1871
84950W        W27867  20.009   7.581  22.300 -0.2129 -0.4670 -0.0479
84951W        W27868  20.363   4.535  21.360 -0.1475 -0.1494  0.4142
84952W        W27869  19.423   6.866  23.812 -0.1228  0.1501 -0.0233
84953W        W27870  16.689   6.702  22.293 -0.1328  0.0953  0.1363
84954W        W27871  18.675   5.507  21.060  0.1588  0.0721  0.1848
84955W        W27872  21.353   6.709  22.146  0.0463 -0.1377  0.4249
84956W        W27873  20.470   5.872  22.867  0.4010  0.1526  0.1981
84957W        W27874  18.902   7.820  23.614  0.0371 -0.0980 -0.0119
84958W        W27875  18.737   6.116  20.634 -0.2557 -0.3762  0.2092
84959W        W27876  17.882   7.327  22.665 -0.0870 -0.0726 -0.0261
84960W        W27877  18.685   5.601  21.561 -0.0014  0.0029 -0.0975
84961W        W27878  22.302   3.182  21.635  0.0705 -0.2039 -0.1885
84962W        W27879  18.382   2.359  19.822  0.0900 -0.2144  0.0975
84963W        W27880  18.603   7.795  20.544 -0.0880  0.1349 -0.0397
84964W        W27881  20.697   5.473  22.163 -0.0695 -0.1237  0.1663
84965W        W27882  19.730   6.109  23.073 -0.0912 -0.4836 -0.1875
84966W        W27883  17.942   6.746  22.373  0.1332 -0.0061 -0.1969
84967W        W27884  22.608   2.402  23.393 -0.0497 -0.3311  0.4000
84968W        W27885  18.794   5.776  20.214  0.0086 -0.0861  0.0639
84969W        W27886  20.862   5.425  20.485  0.1191  0.2913  0.1605
84970W        W27887  20.413   5.685  19.172 -0.3374 -0.0284  0.1557
84971W        W27888  20.071   4.996  21.005  0.2163 -0.0207 -0.1440
84972W        W27889  19.780   2.535  21.646 -0.1276  0.2959 -0.0825
84973W        W27890  19.794   6.011  21.306 -0.1811  0.0699 -0.0041
84974W        W27891  19.270   6.643  20.294 -0.0398 -0.0845 -0.0073
84975W        W27892  20.784   5.758  23.619 -0.3138  0.0742  0.0200
84976W        W27893  19.297   3.695  21.222  0.1640  0.2437  0.0386
84977W        W27894  21.753   5.923  23.182 -0.1007  0.3148 -0.2882
84978W        W27895  20.453   8.852  23.808  0.1864  0.5525 -0.0910
84979W        W27896  20.271   5.502  21.894  0.1746 -0.0031  0.0372
84980W        W27897  21.234   7.166  21.942  0.1254  0.3748 -0.5633
84981W        W27898  20.449   6.935  21.229 -0.0807  0.0784 -0.0408
84982W        W27899  22.586   6.765  21.149  0.1146  0.1639 -0.0677
84983W        W27900  19.687   7.787  20.729 -0.2631  0.3307  0.2262
84984W        W27901  18.921   7.553  24.028  0.0603  0.0070 -0.0532
84985W        W27902  18.333   5.657  23.543 -0.1240  0.0478 -0.1780
84986W        W27903  18.963   2.477  19.539 -0.1884  0.0418 -0.2119
84987W        W27904  23.256   7.185  21.756 -0.1698  0.2156  0.3416
84988W        W27905  19.472   7.496  21.527  0.0243 -0.0924 -0.1273
84989W        W27906  19.275   4.895  19.805 -0.1358  0.0999  0.0818
84990W        W27907  18.998   5.784  22.539 -0.4616 -0.0335  0.0673
84991W        W27908  21.738   3.446  23.564 -0.1809  0.1157 -0.0832
84992W        W27909  20.580   5.431  19.670  0.0253 -0.1999  0.5466
84993W        W27910  22.028   5.771  22.459 -0.2017 -0.1310 -0.1225
84994W        W27911  19.937   2.534  22.163 -0.0899  0.3946  0.0500
84995W        W27912  18.286   4.203  19.632  0.0024 -0.0749 -0.0205
84996W        W27913  17.371   7.853  21.131  0.1770  0.0223 -0.0964
84997W        W27914  20.219   5.200  22.923 -0.0553  0.2098  0.0118
84998W        W27915  22.688   4.950  22.600 -0.0031  0.0407  0.5936
84999W        W27916  18.533   6.450  22.668 -0.3511 -0.0480  0.2103
85000W        W27917  18.742   5.944  24.676 -0.1829  0.1840  0.3695
85001W        W27918  19.130   7.973  23.052 -0.3057 -0.0241 -0.0209
85002W        W27919  19.854   6.373  20.943  0.1087  0.1132 -0.1991
85003W        W27920  17.018   8.237  20.284  0.0205  0.0017 -0.0246
85004W        W27921  17.095   6.601  17.670  0.0098  0.4637  0.1805
85005W        W27922  17.911   3.865  21.965  0.1320  0.2228  0.0919
85006W        W27923  18.039   6.688  21.634 -0.0972 -0.4437  0.2806
85007W        W27924  21.189   3.594  20.394 -0.1359 -0.0045 -0.1209
85008W        W27925  20.834   2.800  22.208 -0.0295  0.1855 -0.1105
85009W        W27926  21.675   3.964  21.872  0.0404 -0.0318 -0.0942
85010W        W27927  16.263   7.894  20.624  0.0805 -0.1123  0.1333
85011W        W27928  22.071   6.637  20.916  0.1846  0.2845 -0.0727
85012W        W27929  21.668   3.458  21.876 -0.1562  0.1140  0.0717
85013W        W27930  22.507   7.193  20.309 -0.3110  0.1197  0.3428
85014W        W27931  18.379   4.745  22.663 -0.0236 -0.2120  0.0059
85015W        W27932  18.040   5.238  23.059  0.0604 -0.1560 -0.0154
85016W        W27933  20.080   6.187  22.128 -0.0503  0.0530 -0.1599
85017W        W27934  19.800   4.001  22.633 -0.1115  0.0286  0.2722
85018W        W27935  22.021   6.315  23.804  0.1252  0.3165 -0.0456
85019W        W27936  19.325   3.699  19.345 -0.1851  0.2119 -0.2239
85020W        W27937  19.557   5.129  21.401 -0.2853 -0.3308 -0.1013
85021W        W27938  16.025   5.251  19.529  0.1809 -0.0102 -0.1523
85022W        W27939  19.008   6.290  22.630 -0.2661 -0.1882 -0.1192
85023W        W27940  21.204   5.324  22.830 -0.1467  0.1842  0.0905
85024W        W27941  20.020   6.287  19.678 -0.2013 -0.2746 -0.0431
85025W        W27942  21.322   8.699  22.275  0.3424  0.2321  0.0453
85026W        W27943  21.743   6.641  21.718 -0.0057 -0.1807  0.3195
85027W        W27944  17.731   4.434  21.926 -0.0586  0.1599 -0.0087
85028W        W27945  19.043   5.612  19.316 -0.3001 -0.1250  0.1106
85029W        W27946  18.713   7.344  20.260 -0.2662  0.1014 -0.2013
85030W        W27947  20.626   6.831  18.061 -0.0148 -0.0208  0.0099
85031W        W27948  19.253   2.909  19.700  0.2482  0.1564  0.3073
85032W        W27949  19.587   6.570  24.184  0.2422  0.5137 -0.0371
85033W        W27950  20.162   5.124  19.983 -0.0757  0.1183  0.0170
85034W        W27951  18.555   5.985  22.351 -0.1406 -0.1518  0.0976
85035W        W27952  18.253   4.216  22.844  0.1989 -0.1590 -0.0356
85036W        W27953  23.467   5.127  23.598 -0.2465  0.0242  0.3553
85037W        W27954  18.938   5.883  21.918 -0.1748 -0.1627 -0.4493
85038W        W27955  18.797   6.728  20.497  0.2960 -0.0951 -0.1092
85039W        W27956  20.140   7.411  22.773 -0.2025  0.1692 -0.1145
85040W        W27957  21.026   7.196  20.548 -0.0989  0.1821  0.1854
85041W        W27958  16.779   4.839  19.246 -0.2455  0.3244 -0.0721
85042W        W27959  20.823   7.220  21.062 -0.0527  0.2006 -0.0556
85043W        W27960  21.715   6.141  22.253  0.3486  0.0198 -0.2324
85044W        W27961  17.383   5.949  23.348 -0.0386 -0.0844  0.0277
85045W        W27962  21.623   3.402  22.709 -0.1907 -0.2877 -0.1592
85046W        W27963  17.771   5.650  20.195 -0.1749 -0.2189 -0.0343
85047W        W27964  17.505   7.767  22.952  0.0802  0.1372 -0.0592
85048W        W27965  18.977   3.183  21.477  0.1663 -0.1814 -0.1768
85049W        W27966  23.795   2.148  20.302  0.0221  0.1974  0.0412
85050W        W27967  20.985   5.465  21.695  0.1640 -0.1572 -0.1453
85051W        W27968  21.164   7.623  20.844 -0.1199 -0.0380  0.1304
85052W        W27969  20.124   2.841  21.374  0.1182  0.1504 -0.2485
85053W        W27970  17.649   4.692  19.169 -0.3093 -0.2424 -0.0355
85054W        W27971  17.385   6.517  23.058 -0.3197 -0.1555  0.0431
85055W        W27972  19.147   7.849  20.688 -0.1685 -0.1232 -0.0716
85056W        W27973  18.716   6.003  21.195  0.1413  0.2521 -0.3496
85057W        W27974  20.286   3.721  18.449 -0.0398  0.1666  0.0378
85058W        W27975  21.172   5.909  20.778 -0.1441 -0.1673  0.2929
85059W        W27976  20.218   6.124  21.599 -0.0722 -0.0903 -0.1871
85060W        W27977  18.589   6.963  25.467  0.0056 -0.0963  0.3566
85061W        W27978  19.844   7.698  21.821  0.1298 -0.2464 -0.2128
85062W        W27979  18.525   5.581  20.566 -0.0350 -0.5234 -0.2619
85063W        W27980  18.232   5.956  20.851  0.2942  0.2471 -0.0268
85064W        W27981  18.846   3.431  20.084 -0.4049 -0.1901 -0.1210
85065W        W27982  17.800   6.775  19.855 -0.1940  0.1720  0.0552
85066W        W27983  18.838   4.056  22.004 -0.1100  0.1451 -0.1987
85067W        W27984  19.982   6.277  23.960 -0.1915  0.3256 -0.2013
85068W        W27985  22.645   4.625  22.987 -0.0251  0.0684 -0.0502
85069W        W27986  22.066   6.356  23.315  0.0325 -0.3320  0.1897
85070W        W27987  20.523   5.121  20.680 -0.0999 -0.1847 -0.0191
85071W        W27988  19.036   4.598  20.179  0.0635  0.0421  0.0246
85072W        W27989  19.086   6.340  20.863 -0.4714 -0.4696 -0.0747
85073W        W27990  20.875   4.172  24.290 -0.0449  0.0378 -0.1147
85074W        W27991  17.933   5.747  23.257  0.1671  0.0429 -0.1840
85075W        W27992  17.965   6.796  23.302 -0.2606  0.2797  0.0915
85076W        W27993  18.730   6.375  23.357  0.2965  0.0249  0.1965
85077W        W27994  19.872   5.585  21.629 -0.1298  0.1445  0.4122
85078W        W27995  20.122   4.151  24.643 -0.1505  0.0836  0.1713
85079W        W27996  21.758   3.949  18.481 -0.1958 -0.0275  0.3817
85080W        W27997  18.549   8.329  20.165 -0.2340 -0.1360 -0.0840
85081W        W27998  17.603   7.134  19.461  0.0536  0.2686 -0.1108
85082W        W27999  19.829   4.765  20.120 -0.0847  0.1583 -0.2810
85083W        W28000  19.228   7.892  24.069 -0.2516 -0.3750  0.0759
85084W        W28001  20.145   6.498  21.303  0.0844  0.3195 -0.0586
85085W        W28002  19.361   5.065  21.887  0.2057  0.1013  0.0045
85086W        W28003  21.192   8.149  20.703 -0.1113  0.0325 -0.0364
85087W        W28004  20.924   4.264  23.450 -0.0471 -0.0031  0.0464
85088W        W28005  17.953   5.243  21.524 -0.1033  0.0804  0.2758
85089W        W28006  18.332   5.049  19.741  0.3100  0.1869  0.0257
85090W        W28007  18.331   6.656  19.781 -0.3303  0.0257  0.2135
85091W        W28008  21.226   4.161  21.715 -0.1353 -0.0055 -0.1688
85092W        W28009  21.365   6.245  20.421  0.1625  0.2005 -0.2284
85093W        W28010  18.202   5.442  23.979 -0.2498  0.3706  0.0349
85094W        W28011  19.457   4.895  22.381 -0.0780  0.0750 -0.4125
85095W        W28012  17.565   8.033  22.115  0.2235  0.0444  0.0386
85096W        W28013  21.638   5.184  23.166  0.2395 -0.0611 -0.0566
85097W        W28014  21.818   3.681  21.184  0.4865 -0.0650  0.0620
85098W        W28015  19.511   5.678  22.722 -0.0444  0.0259  0.3826
85099W        W28016  20.782   5.649  24.179  0.0495  0.2392 -0.0195
85100W        W28017  16.999   4.859  18.586  0.0155 -0.1379  0.1516
85101W        W28018  21.311   5.025  24.282 -0.2125  0.3184  0.1340
85102W        W28019  16.946   3.931  19.155  0.1402 -0.0145  0.0718
85103W        W28020  18.405   6.408  22.092  0.2530  0.0214  0.0629
85104W        W28021  19.855   6.929  21.154 -0.0834 -0.3018 -0.1412
85105W        W28022  18.720   5.561  18.449 -0.1611 -0.1633 -0.0860
85106W        W28023  19.235   7.799  20.160 -0.1387  0.0360  0.1536
85107W        W28024  17.318   5.728  25.310  0.0773 -0.2713  0.2048
85108W        W28025  20.314   5.744  24.308  0.3057  0.0148  0.1336
85109W        W28026  19.844   3.366  20.331  0.0396 -0.0714 -0.3231
85110W        W28027  19.069   4.996  21.520  0.0239 -0.1008  0.1561
85111W        W28028  20.398   4.761  22.536 -0.2257  0.1103  0.1449
85112W        W28029  21.585   5.419  22.548 -0.2589 -0.1449 -0.4384
85113W        W28030  22.374   3.813  23.184  0.1137 -0.2309  0.2527
85114W        W28031  17.552   5.755  22.370 -0.1979 -0.0191 -0.1783
85115W        W28032  19.301   5.123  22.798  0.2127 -0.0856 -0.0623
85116W        W28033  22.021   8.395  22.000 -0.0601 -0.1297  0.2159
85117W        W28034  19.180   7.339  22.324  0.1096  0.3197 -0.1894
85118W        W28035  19.751   8.208  20.953  0.1163  0.0982 -0.2549
85119W        W28036  17.402   5.403  20.483 -0.2995 -0.1503  0.1159
85120W        W28037  17.970   5.659  21.797  0.2258 -0.3531 -0.2790
85121W        W28038  20.683   3.536  22.412 -0.0011  0.2246  0.0118
85122W        W28039  18.221   6.417  23.709  0.0818 -0.1277  0.2629
85123W        W28040  16.870   7.220  19.419 -0.0309  0.0384  0.2709
85124W        W28041  19.504   7.291  25.215 -0.2468  0.1655 -0.1123
85125W        W28042  21.817   3.611  23.140 -0.3185  0.1250  0.0243
85126W        W28043  20.782   6.628  19.351 -0.1737  0.0196 -0.0077
85127W        W28044  20.316   5.864  20.462 -0.0377 -0.0812 -0.0202
85128W        W28045  21.866   4.375  22.575  0.0175  0.0906  0.0180
85129W        W28046  21.755   5.324  20.869 -0.1203  0.1119 -0.0986
85130W        W28047  21.612   2.586  26.050  0.3009  0.0579 -0.0056
85131W        W28048  18.376   3.338  20.010  0.3089 -0.2012  0.1051
85132W        W28049  20.454   6.137  23.320 -0.1082 -0.1046 -0.0243
85133W        W28050  17.044   5.038  21.815  0.1223  0.0596  0.0407
85134W        W28051  20.489   6.322  22.406  0.3705 -0.0025 -0.2556
85135W        W28052  19.334   5.379  22.338 -0.0651 -0.0400 -0.0371
85136W        W28053  22.268   4.584  22.622 -0.1149  0.2200 -0.1387
85137W        W28054  17.858   2.826  18.786  0.1057  0.0451 -0.0298
85138W        W28055  19.576   7.737  22.470 -0.0234 -0.1113  0.3036
85139W        W28056  20.079   5.034  21.515 -0.2036  0.1319  0.0620
85140W        W28057  20.608   5.756  21.507 -0.3141  0.1736 -0.1511
85141W        W28058  20.526   4.982  21.173 -0.1394  0.1524  0.2679
85142W        W28059  17.162   7.666  21.554 -0.1349 -0.0518 -0.3035
85143W        W28060  22.501   4.674  22.178  0.2207  0.2551  0.0197
85144W        W28061  20.200   6.666  19.369 -0.2190  0.1135 -0.2690
85145W        W28062  19.730   6.424  19.271  0.3102  0.5470  0.5378
85146W        W28063  19.938   4.788  22.722  0.1707 -0.1854  0.1326
85147W        W28064  18.883   4.248  21.048 -0.0177  0.0025  0.1009
85148W        W28065  20.397   3.200  20.153  0.1014 -0.1086  0.0033
85149W        W28066  19.549   3.888  19.806 -0.0285 -0.0812  0.2108
85150W        W28067  22.226   4.048  22.771  0.2720 -0.2926  0.1935
85151W        W28068  18.965   5.471  22.914 -0.1275  0.0797 -0.3984
85152W        W28069  19.651   3.487  23.587  0.3018  0.2315  0.2564
85153W        W28070  20.505   6.454  21.009  0.4484  0.1372  0.0031
85154W        W28071  19.894   5.008  19.205  0.2092  0.2138  0.0337
85155W        W28072  22.877   4.458  22.537  0.2060 -0.3056 -0.1281
85156W        W28073  22.241   7.040  20.712  0.1306  0.1018 -0.0076
85157W        W28074  17.737   5.210  20.862  0.0648  0.1408  0.1113
85158W        W28075  17.810   5.656  21.100 -0.2997  0.2153 -0.2572
85159W        W28076  19.825   6.487  23.420  0.0781 -0.2417 -0.2017
85160W        W28077  19.023   2.759  17.190 -0.1666  0.1376 -0.0499
85161W        W28078  19.226   5.869  24.428 -0.2834  0.1646  0.3239
85162W        W28079  21.217   8.146  19.114  0.1095  0.0807 -0.0579
85163W        W28080  20.518   4.540  22.129 -0.0661 -0.2401 -0.2116
85164W        W28081  21.554   3.265  21.362 -0.0593  0.0861 -0.2130
85165W        W28082  19.561   4.398  20.284  0.0513  0.0923  0.1292
85166W        W28083  20.841   7.112  24.172  0.3591 -0.1064  0.0329
85167W        W28084  17.896   5.824  19.719 -0.0141 -0.0915  0.0670
85168W        W28085  16.688   5.878  21.340 -0.0010 -0.0790  0.1169
85169W        W28086  19.705   8.010  23.170  0.1778  0.1373  0.1734
85170W        W28087  21.324   5.825  22.785  0.0058  0.0057 -0.0577
85171W        W28088  20.323   3.274  19.518  0.0171 -0.3408  0.1694
85172W        W28089  21.557   4.929  22.382 -0.1158 -0.5046 -0.0487
85173W        W28090  19.020   6.957  20.892 -0.1168  0.0569 -0.0664
85174W        W28091  19.288   5.143  19.276  0.2070  0.2161  0.1521
85175W        W28092  18.920   6.812  22.386  0.2290  0.3544 -0.1316
85176W        W28093  16.280   7.036  22.482 -0.0266  0.0095  0.1303
85177W        W28094  20.114   6.426  23.009 -0.1669  0.2268  0.3024
85178W        W28095  19.880   2.038  21.668 -0.2908  0.0581  0.2047
85179W        W28096  19.736   5.243  22.616  0.0415  0.2637 -0.2020
85180W        W28097  17.866   6.934  20.829 -0.1120 -0.1453 -0.1229
85181W        W28098  22.896   5.717  24.823 -0.1064 -0.0994  0.1434
85182W        W28099  19.822   5.203  21.992  0.0168 -0.2616 -0.2158
85183W        W28100  19.766   5.965  21.835  0.0915  0.0325 -0.2306
85184W        W28101  18.858   7.754  22.561  0.0349 -0.0177  0.3162
85185W        W28102  21.854   5.762  21.985 -0.2536 -0.0670  0.1041
85186W        W28103  18.392   5.214  21.766 -0.0999  0.0413  0.0962
85187W        W28104  17.966   4.028  24.220 -0.0069 -0.2542  0.0687
85188W        W28105  19.024   6.583  23.738 -0.2316 -0.3578 -0.2177
85189W        W28106  22.667   8.686  22.719 -0.0424  0.2870  0.2161
85190W        W28107  18.767   3.039  19.771 -0.1380  0.1192 -0.1986
85191W        W28108  20.030   6.699  19.959 -0.3690  0.1163  0.2005
85192W        W28109  17.523   7.265  24.310  0.1227 -0.0267  0.3908
85193W        W28110  19.598   6.397  22.126 -0.3003 -0.2537  0.0832
85194W        W28111  17.130   7.376  20.881 -0.0200  0.2444 -0.1029
85195W        W28112  19.191   5.469  21.432  0.1145  0.1777 -0.0218
85196W        W28113  22.637   3.700  21.960 -0.0245 -0.3231 -0.0796
85197W        W28114  20.282   7.200  22.151 -0.2053 -0.1240  0.0554
85198W        W28115  17.667   1.901  18.829 -0.2637 -0.1451  0.1196
85199W        W28116  17.578   8.481  22.408  0.1977 -0.1929  0.0999
85200W        W28117  18.297   8.520  21.430  0.1307 -0.1159 -0.1282
85201W        W28118  21.632   5.739  20.636  0.2574  0.0059 -0.1393
85202W        W28119  17.540   5.729  21.521 -0.3922 -0.2023 -0.0287
85203W        W28120  20.126   4.784  24.320 -0.0802 -0.1413  0.1045
85204W        W28121  22.707   3.219  22.031  0.1755  0.0522  0.2709
85205W        W28122  20.053   5.617  22.780  0.0875 -0.1649 -0.2874
85206W        W28123  21.201   4.583  21.486  0.0628 -0.0947  0.0458
85207W        W28124  20.566   5.990  24.659 -0.0163 -0.2590 -0.1799
85208W        W28125  18.945   4.738  21.994  0.2362 -0.1430  0.1578
85209W        W28126  18.291   3.870  20.195 -0.2287  0.2397  0.1191
85210W        W28127  19.187   7.523  23.368 -0.0712  0.0481  0.1936
85211W        W28128  22.190   2.647  23.825 -0.0577 -0.1485 -0.2127
85212W        W28129  17.288   7.242  21.372  0.1019  0.2058 -0.1146
85213W        W28130  23.030   7.629  21.887  0.4003 -0.0246 -0.0559
85214W        W28131  18.940   4.660  19.484 -0.1673  0.0802  0.0602
85215W        W28132  21.177   6.734  20.320  0.1412  0.0953 -0.0372
85216W        W28133  20.695   2.646  21.369 -0.2296  0.0783 -0.3572
85217W        W28134  19.810   7.991  20.228  0.0942  0.0682 -0.0838
85218W        W28135  22.269   5.737  21.440  0.1067 -0.1123  0.3597
85219W        W28136  17.835   7.198  21.247  0.0267  0.1111 -0.0208
85220W        W28137  17.974   7.943  21.866 -0.2546  0.0593 -0.1745
85221W        W28138  18.982   8.308  23.951 -0.2900  0.3804  0.0746
85222W        W28139  17.708   7.163  20.168  0.1598 -0.1159 -0.1046
85223W        W28140  21.329   6.246  23.121 -0.1748  0.4497  0.3378
85224W        W28141  19.549   5.476  24.391  0.0513  0.1176  0.0637
85225W        W28142  21.862   1.690  21.423 -0.1573 -0.1608  0.3354
85226W        W28143  17.974   6.154  21.615 -0.2129 -0.1832  0.0141
85227W        W28144  22.148   6.414  22.377 -0.1290  0.0674  0.1352
85228W        W28145  18.514   5.553  22.075  0.2577 -0.3223 -0.1367
85229W        W28146  19.409   4.534  22.068 -0.0232  0.3152 -0.2178
85230W        W28147  20.383   4.273  19.219  0.0281  0.2834 -0.1867
85231W        W28148  21.738   7.402  23.978 -0.1613  0.0450  0.0563
85232W        W28149  19.432   5.475  18.836 -0.2444  0.2053 -0.2625
85233W        W28150  20.335   5.649  23.306  0.1919 -0.0243  0.1592
85234W        W28151  17.039   4.106  21.662 -0.0581  0.0190 -0.1969
85235W        W28152  21.469   4.591  19.373  0.1091  0.1994  0.2122
85236W        W28153  18.529   7.365  19.811  0.0117 -0.5289 -0.0004
85237W        W28154  19.904   5.552  23.807  0.3941 -0.1126 -0.2376
85238W        W28155  20.385   6.511  23.721  0.0280 -0.1702 -0.0171
85239W        W28156  19.059   2.061  19.763  0.2060  0.1790 -0.0088
85240W        W28157  21.472   6.234  21.852 -0.0098 -0.0931 -0.0010
85241W        W28158  20.561   5.262  21.554  0.0800 -0.0264  0.0998
85242W        W28159  17.667   8.373  19.897  0.0906  0.0249 -0.2219
85243W        W28160  21.906   6.224  21.409  0.1440  0.5084 -0.2503
85244W        W28161  22.344   8.377  22.907 -0.1176  0.0074 -0.1571
85245W        W28162  17.559   5.258  22.354  0.1502 -0.0345  0.2331
85246W        W28163  21.341   7.937  22.635 -0.0290 -0.0500 -0.2338
85247W        W28164  22.100   7.141  21.769 -0.0837 -0.0506 -0.0468
85248W        W28165  20.775   2.617  20.156 -0.0603  0.0122 -0.1664
85249W        W28166  19.386   5.947  22.250 -0.2437  0.2838 -0.0351
85250W        W28167  16.546   8.228  19.740 -0.0008 -0.0282  0.2871
85251W        W28168  23.184   4.719  23.356 -0.1780  0.3205 -0.0582
85252W        W28169  20.871   3.790  22.002  0.1435 -0.0365 -0.0466
85253W        W28170  22.102   7.010  19.197  0.0513  0.1593 -0.0655
85254W        W28171  19.377   5.047  24.096  0.0043  0.1503 -0.1490
85255W        W28172  21.869   3.912  23.807 -0.0214 -0.1183  0.3036
85256W        W28173  19.816   7.619  24.959  0.2455  0.0719 -0.0819
85257W        W28174  19.447   5.614  21.905  0.3523 -0.0014  0.0835
85258W        W28175  19.629   7.025  21.621  0.1566  0.1650 -0.0982
85259W        W28176  19.425   7.384  20.743  0.0757 -0.1191 -0.1771
85260W        W28177  19.218   7.158  20.355 -0.0707 -0.0688 -0.0840
85261W        W28178  20.383   7.464  21.199  0.0074 -0.2325 -0.3477
85262W        W28179  21.122   4.137  19.062  0.1338 -0.1294  0.1517
85263W        W28180  22.595   7.200  21.605  0.1530 -0.2812  0.1386
85264W        W28181  18.559   5.607  19.572 -0.0630  0.2077 -0.0934
85265W        W28182  20.832   4.581  19.141  0.0416  0.3834  0.3325
85266W        W28183  20.409   4.214  20.449  0.1023  0.1132 -0.0845
85267W        W28184  20.021   7.347  21.527 -0.2095  0.0617 -0.2637
85268W        W28185  18.555   4.803  21.141  0.0529  0.0016 -0.0448
85269W        W28186  17.386   7.941  20.046  0.0094  0.0215  0.0715
85270W        W28187  20.446   6.227  20.070  0.0133 -0.0256  0.2309
85271W        W28188  18.400   3.987  23.848  0.1227 -0.1636 -0.3488
85272W        W28189  18.278   4.345  21.051 -0.0674  0.2604  0.1465
85273W        W28190  20.565   5.961  19.552  0.1308  0.1492 -0.1552
85274W        W28191  18.003   4.150  20.608 -0.0591 -0.1456 -0.2918
85275W        W28192  21.807   7.077  21.020 -0.1234  0.1328  0.2896
85276W        W28193  18.954   4.308  23.494  0.1818 -0.1545 -0.0539
85277W        W28194  18.245   2.520  21.066 -0.2119 -0.2516 -0.0225
85278W        W28195  21.125   5.752  21.256  0.2084 -0.1104 -0.1317
85279W        W28196  21.755   7.000  24.268 -0.0417  0.3199 -0.0427
85280W        W28197  18.254   3.342  19.497  0.1436  0.4150 -0.0404
85281W        W28198  22.254   4.480  21.706 -0.0818  0.0450 -0.2596
85282W        W28199  18.436   4.604  19.325  0.0251 -0.2001 -0.0942
85283W        W28200  21.024   4.188  24.880 -0.1931  0.0606 -0.0661
85284W        W28201  19.777   4.415  24.335 -0.0428 -0.1239  0.0251
85285W        W28202  18.400   4.636  18.744  0.4043 -0.1155 -0.0207
85286W        W28203  18.851   5.782  23.368 -0.1880 -0.0242 -0.3165
85287W        W28204  19.607   9.242  21.669 -0.2086  0.0765 -0.3350
85288W        W28205  21.212   5.727  20.246 -0.0366 -0.1078  0.2647
85289W        W28206  20.186   6.830  20.806  0.0469  0.0241  0.0939
85290W        W28207  19.124   7.204  21.699  0.1872  0.0259 -0.3212
85291W        W28208  17.212   4.728  24.822  0.0293 -0.0966  0.1580
85292W        W28209  20.323   6.365  20.545 -0.0501  0.4406 -0.0955
85293W        W28210  17.821   6.470  24.138  0.1253 -0.1247  0.1823
85294W        W28211  22.040   5.536  22.950  0.2204  0.2914  0.1210
85295W        W28212  19.731   5.348  20.613 -0.1679  0.1190 -0.2582
85296W        W28213  21.293   4.421  20.956  0.0847 -0.2403  0.1532
85297W        W28214  19.598   5.102  23.636 -0.0702  0.3166  0.0231
85298W        W28215  19.098   6.049  23.759  0.3230 -0.1319  0.0797
85299W        W28216  21.321   6.332  22.625  0.1380  0.0683  0.0431
85300W        W28217  17.354   4.242  20.657 -0.3092  0.0070  0.2330
85301W        W28218  18.815   4.213  19.543 -0.2970 -0.2750 -0.0053
85302W        W28219  19.317   6.160  20.430  0.0892 -0.0726  0.2575
85303W        W28220  17.267   6.315  20.303 -0.2791 -0.1503  0.1333
85304W        W28221  18.783   3.821  20.357  0.3514 -0.2099 -0.3290
85305W        W28222  19.917   7.287  20.677 -0.3330  0.3868 -0.1666
85306W        W28223  20.892   6.164  21.129 -0.4098  0.0736  0.1303
85307W        W28224  19.928   4.265  23.065 -0.2704 -0.2566 -0.2673
85308W        W28225  19.234   3.898  20.760 -0.4744  0.1405  0.0130
85309W        W28226  23.468   6.662  21.593 -0.3404 -0.3377 -0.0885
85310W        W28227  19.487   6.780  24.713  0.0321 -0.0450  0.2457
85311W        W28228  20.199   7.326  23.272 -0.0239 -0.0566  0.0878
85312W        W28229  19.599   7.043  24.288  0.0746  0.3252 -0.0068
85313W        W28230  21.487   4.802  21.199  0.1553  0.0486  0.2147
85314W        W28231  16.698   4.743  24.050  0.2363  0.1408  0.1851
85315W        W28232  20.301   5.027  21.969 -0.1394 -0.1512 -0.1265
85316W        W28233  19.742   4.598  21.179  0.0326  0.5571  0.1274
85317W        W28234  21.870   4.815  23.509  0.0711  0.1324  0.1237
85318W        W28235  18.071   4.314  20.119 -0.0067 -0.2869 -0.0066
85319W        W28236  22.774   3.859  19.318  0.0910 -0.0942 -0.1634
85320W        W28237  18.833   7.183  22.776  0.1096  0.2665 -0.0076
85321W        W28238  20.588   4.542  19.641  0.3525  0.0292 -0.2191
85322W        W28239  17.341   6.013  28.524  0.0721  0.2014 -0.1884
85323W        W28240  18.235   5.351  25.225  0.3604  0.0611  0.1400
85324W        W28241  21.113   4.488  23.963 -0.0723 -0.1745  0.0935
85325W        W28242  21.450   6.281  26.650 -0.0243 -0.1200 -0.0803
85326W        W28243  16.907   1.804  24.079 -0.1091 -0.0336  0.0296
85327W        W28244  18.950   4.738  25.507  0.1852 -0.0947 -0.1094
85328W        W28245  18.851   5.743  26.039 -0.0871 -0.1497 -0.3353
85329W        W28246  19.331   8.534  25.315 -0.0071 -0.0373 -0.0616
85330W        W28247  19.821   7.210  29.607  0.1264  0.1772  0.1071
85331W        W28248  18.029   5.521  25.658 -0.2675  0.0966  0.0163
85332W        W28249  18.236   6.126  24.737 -0.2468 -0.0387 -0.1909
85333W        W28250  17.937   5.921  27.250 -0.2237 -0.0126  0.0005
85334W        W28251  19.138   3.354  23.521 -0.1196  0.1814 -0.0209
85335W        W28252  17.477   4.004  24.137  0.3242  0.0508  0.1349
85336W        W28253  20.276   6.657  25.949  0.0939 -0.0945 -0.0012
85337W        W28254  18.040   5.160  23.604 -0.0880 -0.4386  0.2780
85338W        W28255  18.665   3.787  28.825  0.0208  0.1507  0.0709
85339W        W28256  21.567   4.699  22.869  0.3859 -0.1236  0.1667
85340W        W28257  17.067   8.904  25.352 -0.0501 -0.0727  0.2850
85341W        W28258  18.572   5.181  26.500 -0.0495 -0.1783 -0.0482
85342W        W28259  19.447   4.998  28.043 -0.2080  0.0401 -0.4195
85343W        W28260  19.714   8.607  25.700 -0.0614  0.1112 -0.2725
85344W        W28261  16.522   4.871  21.557 -0.2004  0.0168  0.3232
85345W        W28262  16.366   3.826  24.417 -0.0398 -0.3766 -0.1114
85346W        W28263  18.439   6.162  28.175 -0.3730  0.1399 -0.3964
85347W        W28264  18.283   3.398  26.350  0.0610  0.1541  0.1372
85348W        W28265  21.359   4.011  25.731  0.0564  0.3249  0.1529
85349W        W28266  17.589   8.788  25.549  0.1059 -0.1329 -0.3382
85350W        W28267  19.750   7.393  26.098  0.3416 -0.3208  0.3254
85351W        W28268  19.539   5.852  26.983  0.1040 -0.0818 -0.1700
85352W        W28269  17.706   4.568  25.065 -0.0575  0.1133  0.1769
85353W        W28270  16.449   9.652  24.324  0.0682 -0.2566  0.0261
85354W        W28271  17.559   6.780  24.585 -0.4165 -0.0192 -0.0110
85355W        W28272  20.110   5.128  25.068 -0.0042  0.0832  0.0560
85356W        W28273  20.629   6.642  26.784  0.0005  0.0080 -0.1690
85357W        W28274  19.770   7.711  28.393  0.2809 -0.2353 -0.3009
85358W        W28275  18.434   7.463  22.556  0.1013  0.1362 -0.1851
85359W        W28276  20.574   7.665  27.687  0.2406  0.1906 -0.1667
85360W        W28277  18.840   6.453  26.892  0.1012  0.1587  0.2849
85361W        W28278  19.298   2.685  25.551 -0.1077 -0.0669  0.1722
85362W        W28279  19.469   6.560  26.336  0.4790 -0.1308 -0.1807
85363W        W28280  20.268   7.911  23.309 -0.0627 -0.1718 -0.1167
85364W        W28281  20.430   7.649  26.537  0.0298  0.2760  0.1399
85365W        W28282  18.926   5.039  26.785  0.0701  0.1281 -0.1870
85366W        W28283  15.907   6.726  27.806  0.1932 -0.1037 -0.1725
85367W        W28284  22.136   3.816  27.508  0.1344 -0.3057 -0.0108
85368W        W28285  18.119   7.571  23.798 -0.0303  0.0679 -0.0731
85369W        W28286  22.557   4.229  23.270 -0.0481  0.0116 -0.0692
85370W        W28287  19.203   2.566  24.411  0.0158 -0.1635 -0.1113
85371W        W28288  19.983   3.815  24.311  0.1981  0.0156  0.0162
85372W        W28289  21.172   4.329  23.003  0.0588 -0.1805  0.1256
85373W        W28290  17.732   7.244  23.701  0.2813  0.4017  0.0962
85374W        W28291  20.196   3.760  24.950  0.1984  0.0745  0.3957
85375W        W28292  19.731   4.450  26.334  0.3760  0.2513 -0.4086
85376W        W28293  17.829   4.774  22.278  0.0008 -0.1951  0.1724
85377W        W28294  18.661   4.889  29.336 -0.1444 -0.1328 -0.1248
85378W        W28295  17.263   6.110  24.800 -0.2606 -0.1630  0.2158
85379W        W28296  19.453   5.001  25.660  0.1548  0.1072  0.0973
85380W        W28297  18.776   7.421  26.675  0.0246 -0.1103 -0.0441
85381W        W28298  21.536   5.419  26.516  0.1222  0.0487 -0.0445
85382W        W28299  20.493   7.136  23.796 -0.0452  0.5419 -0.0228
85383W        W28300  19.914   3.479  22.491  0.2463 -0.1457 -0.0570
85384W        W28301  17.983   6.720  25.925  0.0754 -0.0495  0.1363
85385W        W28302  18.854   6.563  26.381  0.0107  0.1920 -0.0628
85386W        W28303  19.597   4.474  22.533  0.1021  0.0915  0.2130
85387W        W28304  20.654   7.834  28.167  0.0330  0.0396 -0.2046
85388W        W28305  17.926   3.996  25.047 -0.1913 -0.1259 -0.1882
85389W        W28306  22.059   3.762  26.014 -0.1527 -0.2687 -0.4363
85390W        W28307  19.150   7.219  24.281 -0.1872 -0.0465 -0.0467
85391W        W28308  19.575   5.299  26.052  0.1344  0.0023  0.1022
85392W        W28309  20.199   4.251  24.056 -0.0980  0.1369  0.1179
85393W        W28310  21.939   4.123  27.123 -0.0119  0.2778  0.2201
85394W        W28311  22.898   4.300  26.162  0.1424  0.1104  0.0436
85395W        W28312  18.784   8.977  23.359 -0.3221 -0.2019 -0.0106
85396W        W28313  19.438   5.833  23.363  0.1292 -0.2577 -0.0708
85397W        W28314  22.684   5.671  26.975  0.1545 -0.1784  0.1375
85398W        W28315  21.248   3.202  24.287  0.0814 -0.2115  0.0580
85399W        W28316  17.948   7.472  26.112 -0.1774 -0.2217 -0.1237
85400W        W28317  20.430   5.003  26.892 -0.2243  0.2049 -0.2646
85401W        W28318  19.260   5.820  26.383 -0.2390  0.1318  0.2672
85402W        W28319  16.991   8.899  23.868 -0.2168 -0.0741  0.2533
85403W        W28320  18.177   5.978  25.251 -0.0130 -0.0840  0.3943
85404W        W28321  20.594   4.080  23.847  0.2131  0.1222 -0.1033
85405W        W28322  19.325   4.803  26.103  0.1254 -0.0518  0.2287
85406W        W28323  19.074   4.065  25.156 -0.0177  0.0300 -0.2308
85407W        W28324  20.984   3.799  25.302  0.5506  0.1865  0.0645
85408W        W28325  17.192   6.318  28.111 -0.1274  0.0111 -0.3447
85409W        W28326  23.550   4.037  25.458  0.1305  0.1086  0.3562
85410W        W28327  18.883   5.809  25.489 -0.2407 -0.1285 -0.0952
85411W        W28328  22.226   6.615  26.126 -0.0790  0.0829 -0.0102
85412W        W28329  22.362   5.064  23.066  0.1179  0.1783  0.3145
85413W        W28330  19.408   6.770  25.251 -0.0930 -0.1096  0.0727
85414W        W28331  17.285   5.237  25.080 -0.0119  0.0605  0.1263
85415W        W28332  17.578   4.447  23.559  0.1521 -0.2061  0.1525
85416W        W28333  19.132   5.428  27.040  0.2411 -0.3651  0.2677
85417W        W28334  17.616   3.081  24.113 -0.1548 -0.1311  0.1730
85418W        W28335  23.064   6.962  27.320  0.1574 -0.2537 -0.1816
85419W        W28336  17.756   4.536  24.160 -0.0430 -0.1356 -0.2402
85420W        W28337  21.177   2.494  25.806  0.0511 -0.0302  0.2428
85421W        W28338  18.753   5.853  24.185 -0.1420  0.3084 -0.2671
85422W        W28339  18.584   5.695  25.100  0.0227  0.0196 -0.2962
85423W        W28340  21.249   2.975  27.136 -0.5984  0.1242  0.0344
85424W        W28341  20.625   8.404  24.074  0.1627  0.0450 -0.1589
85425W        W28342  21.230   6.655  26.979  0.0577  0.2147 -0.0840
85426W        W28343  19.811   5.797  25.856  0.0378  0.2980  0.3501
85427W        W28344  18.490   4.496  26.364  0.1519 -0.3650 -0.0386
85428W        W28345  17.630   6.233  24.521  0.2514 -0.2897 -0.2831
85429W        W28346  18.621   7.404  23.663 -0.3156  0.0465  0.1512
85430W        W28347  19.614   6.185  26.034  0.1104 -0.2546  0.1038
85431W        W28348  19.817   2.474  25.194 -0.0310 -0.4471 -0.1739
85432W        W28349  19.764   8.848  28.816 -0.2645 -0.0120  0.1116
85433W        W28350  20.731   6.381  24.136  0.2714  0.1388 -0.0864
85434W        W28351  19.703   4.953  28.609 -0.0909 -0.1545  0.0347
85435W        W28352  20.666   4.382  28.600  0.2743  0.0908 -0.1067
85436W        W28353  21.720   5.334  27.012  0.2428  0.1334 -0.0038
85437W        W28354  20.143   3.800  25.906 -0.3523  0.3732 -0.1076
85438W        W28355  18.869   4.574  23.918  0.2954 -0.3305  0.1083
85439W        W28356  19.175   8.251  27.658  0.1207 -0.5168 -0.3229
85440W        W28357  19.384   7.725  26.090 -0.2796 -0.0673  0.2327
85441W        W28358  16.555   6.489  26.170 -0.1983  0.0990  0.2474
85442W        W28359  18.619   6.416  24.597  0.1008 -0.1008 -0.2819
85443W        W28360  21.250   4.482  25.849  0.1500 -0.1072 -0.3695
85444W        W28361  19.027   7.210  28.559 -0.2467 -0.4032 -0.0359
85445W        W28362  21.121   6.054  27.372  0.0056 -0.3693  0.1910
85446W        W28363  20.130   4.188  23.565  0.0367  0.0527 -0.1136
85447W        W28364  18.392   6.643  26.569 -0.0537  0.0173 -0.0802
85448W        W28365  18.985   3.374  26.950  0.0612 -0.2746  0.1490
85449W        W28366  19.154   5.968  22.982  0.3763 -0.0362 -0.3768
85450W        W28367  18.838   6.759  28.704 -0.2811  0.3691  0.1475
85451W        W28368  20.573   7.167  25.838 -0.1212 -0.1169 -0.0729
85452W        W28369  20.499   3.403  22.849 -0.0576 -0.0040  0.3269
85453W        W28370  18.815   5.279  23.396 -0.1132  0.0079 -0.0013
85454W        W28371  15.842   5.408  26.837  0.1484 -0.1062 -0.1195
85455W        W28372  19.298   2.378  26.035  0.0295 -0.1070  0.1607
85456W        W28373  18.956   6.180  25.815  0.0232 -0.1728  0.5753
85457W        W28374  20.606   3.358  24.811 -0.0775 -0.1787  0.0984
85458W        W28375  21.485   5.653  24.951  0.1484  0.2144 -0.2389
85459W        W28376  18.777   6.618  27.368  0.0833 -0.3440 -0.2836
85460W        W28377  21.026   6.302  28.336 -0.1322 -0.0371  0.1851
85461W        W28378  19.698   6.235  25.540  0.0117 -0.0646 -0.0903
85462W        W28379  19.813   5.403  27.106  0.1776  0.3070 -0.1058
85463W        W28380  18.074   5.633  24.824  0.1193  0.0663  0.0206
85464W        W28381  18.497   2.654  23.418 -0.0613  0.0173 -0.1987
85465W        W28382  19.142   7.895  24.726  0.0864  0.3138 -0.1007
85466W        W28383  20.701   4.894  28.706 -0.0224 -0.3116  0.0342
85467W        W28384  18.389   4.345  23.404 -0.1815 -0.0770 -0.3571
85468W        W28385  21.517   3.002  29.741  0.0231  0.1041  0.2847
85469W        W28386  17.911   4.700  24.643  0.1713 -0.1324 -0.0008
85470W        W28387  19.987   4.717  23.329 -0.1369 -0.0666  0.0212
85471W        W28388  19.821   3.935  26.282 -0.1711  0.2151 -0.3633
85472W        W28389  19.122   4.843  23.413  0.0085 -0.3585 -0.1331
85473W        W28390  19.068   7.078  25.561 -0.3876  0.0938 -0.1134
85474W        W28391  18.280   6.156  26.631  0.1573  0.1995  0.1152
85475W        W28392  18.474   6.250  27.201 -0.0274 -0.2159 -0.0600
85476W        W28393  19.228   7.650  28.409 -0.0139  0.3280  0.2648
85477W        W28394  18.023   4.655  23.516  0.0070  0.0770 -0.0386
85478W        W28395  20.953   6.189  26.353  0.1708 -0.0087 -0.2620
85479W        W28396  20.542   1.742  23.272  0.0103  0.0268  0.0512
85480W        W28397  17.070   7.580  25.706 -0.0477 -0.2630  0.1077
85481W        W28398  16.643   6.760  25.594 -0.0197  0.3547 -0.0861
85482W        W28399  19.651   2.409  24.648 -0.0429  0.1389 -0.1592
85483W        W28400  17.381   5.885  26.191 -0.1176 -0.0360  0.1044
85484W        W28401  20.067   6.215  24.831 -0.0872 -0.3418  0.0150
85485W        W28402  20.632   4.538  26.518 -0.4140 -0.3312 -0.0488
85486W        W28403  18.558   5.229  24.882 -0.4800  0.0804  0.5307
85487W        W28404  21.381   1.439  26.105 -0.2064  0.3296  0.1869
85488W        W28405  17.292   7.186  27.056  0.0812 -0.3134 -0.0650
85489W        W28406  18.940   4.598  26.513  0.2459  0.1745 -0.1427
85490W        W28407  17.885   3.640  25.532  0.1134  0.1130 -0.0072
85491W        W28408  20.048   4.170  25.182  0.1627 -0.0503 -0.1029
85492W        W28409  22.348   5.405  22.531 -0.1392 -0.1124 -0.0337
85493W        W28410  17.237   4.731  26.287 -0.0469 -0.0775  0.1770
85494W        W28411  21.608   4.796  24.649 -0.0191  0.1283 -0.0078
85495W        W28412  16.982   6.788  27.276  0.0002 -0.1623 -0.0201
85496W        W28413  19.046   5.295  25.774 -0.0192 -0.4815 -0.1911
85497W        W28414  20.845   5.280  25.229  0.1125  0.4800 -0.1335
85498W        W28415  19.542   7.409  28.116  0.0689  0.1364 -0.1487
85499W        W28416  18.468   4.779  26.767 -0.3742 -0.0270 -0.0271
85500W        W28417  16.528   5.906  23.584 -0.0570  0.1003 -0.0578
85501W        W28418  19.539   7.073  25.653 -0.0413 -0.1165  0.1544
85502W        W28419  18.320   2.700  25.019 -0.1060  0.0199 -0.3523
85503W        W28420  17.498   6.884  23.996 -0.0899 -0.2632  0.1929
85504W        W28421  19.433   4.975  25.046  0.1822  0.1768  0.1784
85505W        W28422  18.756   7.088  23.249  0.0597 -0.2876  0.0909
85506W        W28423  18.632   4.693  24.301  0.4444 -0.2241  0.0795
85507W        W28424  17.017   7.875  27.892 -0.2265 -0.0119  0.0689
85508W        W28425  19.222   4.463  24.307 -0.2092 -0.0403  0.0533
85509W        W28426  18.194   4.384  24.877  0.1985 -0.0902  0.2192
85510W        W28427  17.700   5.078  25.462 -0.2372  0.1944 -0.2555
85511W        W28428  17.646   3.713  24.700 -0.2681 -0.1479 -0.0179
85512W        W28429  19.200   4.563  25.153  0.4118  0.0909  0.0881
85513W        W28430  19.610   2.903  25.989 -0.0273  0.0571  0.0949
85514W        W28431  19.400   6.932  28.978 -0.2765 -0.0960  0.0555
85515W        W28432  18.682   4.999  25.956  0.0069  0.0828  0.1096
85516W        W28433  20.215   4.833  23.815  0.0809 -0.0449 -0.0100
85517W        W28434  21.075   3.187  28.318  0.1925  0.1792 -0.1422
85518W        W28435  18.711   5.536  23.810  0.3318 -0.0411 -0.0147
85519W        W28436  17.097   4.976  26.695 -0.2068  0.5808 -0.2772
85520W        W28437  18.381   8.336  25.713  0.1596 -0.0633  0.1605
85521W        W28438  19.042   4.941  24.446  0.0325 -0.1050  0.2751
85522W        W28439  17.701   5.715  28.677  0.1981  0.1767 -0.0747
85523W        W28440  17.848   7.543  22.169 -0.0348 -0.0531  0.0436
85524W        W28441  17.949   6.354  26.264  0.3817  0.0528  0.1266
85525W        W28442  21.075   3.592  24.791  0.2288  0.0294 -0.2660
85526W        W28443  20.356   4.559  25.123  0.2744 -0.0031 -0.0814
85527W        W28444  18.771   2.360  25.664 -0.2094 -0.0565  0.0770
85528W        W28445  22.691   3.316  25.368 -0.0580 -0.0509 -0.0398
85529W        W28446  21.021   5.244  25.747 -0.0188 -0.2062 -0.1086
85530W        W28447  21.255   4.606  28.370  0.4166 -0.0682  0.1015
85531W        W28448  17.378   3.481  25.641 -0.1566 -0.1303  0.2981
85532W        W28449  19.459   8.241  28.164 -0.3490  0.1122  0.1749
85533W        W28450  17.218   5.818  29.315  0.0579  0.0130 -0.1226
85534W        W28451  19.273   5.993  27.507 -0.0352  0.0953 -0.2007
85535W        W28452  18.777   6.030  26.446 -0.1512  0.1555 -0.1113
85536W        W28453  19.681   3.217  25.068 -0.1770 -0.3065 -0.2836
85537W        W28454  17.901   7.309  25.226  0.4922  0.0560 -0.3557
85538W        W28455  18.965   5.419  24.665  0.1644 -0.2309  0.0121
85539W        W28456  18.650   7.789  25.043  0.1548 -0.4102  0.2678
85540W        W28457  20.070   7.254  25.202  0.1780  0.3275 -0.0229
85541W        W28458  19.712   5.450  24.926 -0.1017  0.1050  0.0710
85542W        W28459  18.034   5.276  26.509  0.0613 -0.1502 -0.0705
85543W        W28460  18.985   3.766  25.613 -0.2332 -0.1779  0.3339
85544W        W28461  19.324   3.580  23.967 -0.1320  0.2734 -0.3209
85545W        W28462  22.248   4.178  25.395 -0.1963 -0.1178 -0.1757
85546W        W28463  20.690   5.702  25.627 -0.1856  0.0076  0.1707
85547W        W28464  19.641   3.896  25.715  0.1467 -0.0584  0.0023
85548W        W28465  22.138   2.265  27.672 -0.0769  0.0196  0.3008
85549W        W28466  20.903   2.799  26.569 -0.4582  0.2761  0.0970
85550W        W28467  19.570   5.475  26.657 -0.1059 -0.1266 -0.3554
85551W        W28468  21.183   6.011  27.907  0.1565 -0.2916 -0.0314
85552W        W28469  18.530   5.233  28.000  0.1345 -0.1501 -0.1363
85553W        W28470  20.075   6.218  25.892 -0.0436 -0.0831  0.3190
85554W        W28471  20.970   4.468  21.989 -0.0781  0.3050  0.1413
85555W        W28472  18.906   4.516  26.017 -0.2220 -0.0552  0.0478
85556W        W28473  20.903   5.005  26.246  0.0116 -0.0302 -0.0446
85557W        W28474  20.489   5.396  23.819  0.1188  0.0506 -0.3548
85558W        W28475  18.572   5.453  25.628  0.0190 -0.0733 -0.0336
85559W        W28476  21.745   4.157  27.562  0.0704 -0.0079 -0.1748
85560W        W28477  18.720   4.160  24.761  0.1593 -0.2633 -0.1599
85561W        W28478  20.409   5.031  26.378 -0.2165  0.1277 -0.2153
85562W        W28479  19.668   6.217  24.544  0.3386  0.1543  0.1288
85563W        W28480  21.866   4.692  26.133  0.0942  0.1049 -0.0847
85564W        W28481  21.959   3.050  26.629  0.0714  0.0893 -0.0185
85565W        W28482  18.243   3.887  24.680  0.1709  0.2600  0.4375
85566W        W28483  18.720   6.944  26.862 -0.3616  0.1570  0.0750
85567W        W28484  20.631   3.089  21.522  0.0777 -0.2195  0.4211
85568W        W28485  19.297   5.278  23.296  0.0501  0.1666 -0.0675
85569W        W28486  20.001   5.290  24.589  0.1045  0.1820 -0.0579
85570W        W28487  21.572   5.920  27.408 -0.2033  0.1230 -0.2435
85571W        W28488  20.030   1.403  23.895  0.0156  0.1287  0.1218
85572W        W28489  21.039   3.224  26.778  0.0015  0.1099  0.0303
85573W        W28490  17.519   8.083  26.597  0.0534  0.0605 -0.1150
85574W        W28491  20.459   3.696  24.231  0.1379  0.0542  0.2981
85575W        W28492  17.873   8.223  25.609 -0.1473 -0.2312  0.0609
85576W        W28493  17.707   6.231  27.938  0.2343 -0.1374 -0.0280
85577W        W28494  19.329   5.489  23.769  0.2329  0.0611  0.1039
85578W        W28495  20.955   3.748  26.000  0.0489  0.1335 -0.1123
85579W        W28496  20.404   4.158  26.747  0.0217  0.0090 -0.1385
85580W        W28497  20.190   5.814  25.490  0.1137 -0.2717 -0.0172
85581W        W28498  21.616   5.431  27.590  0.0641 -0.1508  0.0389
85582W        W28499  19.408   4.533  25.621  0.1639 -0.3497  0.0890
85583W        W28500  17.240   5.961  25.717 -0.0911  0.0824 -0.1607
85584W        W28501  19.389   7.561  25.644  0.0105  0.2345  0.1032
85585W        W28502  19.963   4.627  24.796  0.0303 -0.0893 -0.5080
85586W        W28503  19.133   6.280  24.233  0.0400  0.1016 -0.0785
85587W        W28504  17.637   6.461  28.739  0.2873  0.0697 -0.1759
85588W        W28505  19.821   4.806  26.034 -0.3725  0.1217 -0.2129
85589W        W28506  17.616   6.267  25.863 -0.2796  0.0874 -0.1011
85590W        W28507  20.724   4.424  22.750  0.0805  0.0847 -0.4186
85591W        W28508  19.800   7.595  23.520 -0.1492  0.0228  0.2406
85592W        W28509  16.461   7.467  29.497  0.1508 -0.0206 -0.2065
85593W        W28510  18.222   4.272  25.420  0.3202  0.4328 -0.0481
85594W        W28511  19.230   8.413  23.501 -0.1088  0.0197 -0.3972
85595W        W28512  20.848   5.553  23.090  0.0696  0.0520  0.1873
85596W        W28513  20.677   5.778  25.098 -0.1309  0.2860 -0.1473
85597W        W28514  19.628   9.615  27.768  0.2619 -0.1209 -0.3323
85598W        W28515  18.535   3.893  25.184 -0.0794 -0.1729  0.1409
85599W        W28516  19.324   7.013  26.106 -0.0940 -0.0662  0.2720
85600W        W28517  19.270   6.921  23.289  0.0497  0.0231  0.1812
85601W        W28518  19.544   8.078  27.413 -0.1826 -0.0165 -0.4916
85602W        W28519  17.742   8.693  24.530 -0.2274  0.0795 -0.2092
85603W        W28520  20.023   5.550  26.380 -0.0641  0.0858  0.0134
85604W        W28521  21.562   2.903  23.296  0.0276  0.0180 -0.1953
85605W        W28522  18.156   4.866  24.054  0.1901 -0.0947  0.4925
85606W        W28523  21.972   5.126  27.391 -0.1263 -0.0705  0.2406
85607W        W28524  18.854   7.926  27.448 -0.4088 -0.3344  0.1413
85608W        W28525  20.085   5.271  25.982  0.0031 -0.2305 -0.0142
85609W        W28526  20.509   5.457  24.713 -0.3658  0.0251  0.0070
85610W        W28527  20.291   5.398  27.310  0.0431  0.2041 -0.4825
85611W        W28528  21.494   2.934  29.198  0.1197  0.1401 -0.0522
85612W        W28529  17.929   6.296  26.949 -0.1529 -0.0233 -0.0079
85613W        W28530  20.498   6.778  24.364 -0.1183  0.0675 -0.0510
85614W        W28531  18.340   3.033  24.660 -0.2183 -0.0363 -0.0855
85615W        W28532  18.709   4.192  24.221  0.2911 -0.1675  0.0115
85616W        W28533  22.575   2.131  27.838 -0.0397  0.1559  0.3782
85617W        W28534  20.135   5.215  23.478 -0.0586 -0.1629 -0.2846
85618W        W28535  21.284   3.013  26.385 -0.2002  0.0562  0.1116
85619W        W28536  18.501   5.941  25.743 -0.3223 -0.3546 -0.3195
85620W        W28537  19.435   7.220  27.021 -0.1609  0.0419  0.2307
85621W        W28538  19.322   4.257  26.060 -0.0312  0.1385 -0.2161
85622W        W28539  18.554   4.243  22.447 -0.1833 -0.1506  0.0886
85623W        W28540  21.994   4.381  24.651  0.0388  0.1920  0.1092
85624W        W28541  17.226   6.128  27.646  0.1763  0.1107 -0.0287
85625W        W28542  20.972   2.347  29.097  0.1755 -0.0635 -0.2770
85626W        W28543  19.061   5.464  24.224  0.0268  0.2378 -0.0313
85627W        W28544  20.362   5.332  25.395  0.1097  0.1987 -0.1826
85628W        W28545  19.220   6.164  25.374  0.1132 -0.0414  0.0536
85629W        W28546  17.729   5.093  24.955 -0.0679  0.3175  0.0648
85630W        W28547  21.200   3.379  23.698  0.0901 -0.0915 -0.0652
85631W        W28548  21.526   4.423  26.970  0.4200 -0.0804 -0.3368
85632W        W28549  21.472   4.537  22.096 -0.0669  0.0326  0.2116
85633W        W28550  21.092   7.904  28.466 -0.2529 -0.3286  0.2379
85634W        W28551  17.269   4.530  23.964  0.2582  0.5331 -0.2173
85635W        W28552  20.499   4.212  23.191  0.0558 -0.2099 -0.0229
85636W        W28553  16.999   5.663  24.919 -0.0228  0.4472 -0.3875
85637W        W28554  17.754   5.110  26.039  0.1708 -0.0048  0.1755
85638W        W28555  22.001   7.402  28.058 -0.2741  0.0182 -0.2884
85639W        W28556  16.364   2.271  24.988  0.2061 -0.1105 -0.0274
85640W        W28557  21.265   6.894  24.483  0.1092  0.1515  0.2036
85641W        W28558  21.425   4.951  27.096 -0.0308 -0.0877  0.0883
85642W        W28559  17.009   7.714  22.776  0.0092  0.1574  0.1136
85643W        W28560  18.366   5.709  24.429 -0.2321 -0.3856 -0.1822
85644W        W28561  22.055   6.142  26.662 -0.0004 -0.4298 -0.0192
85645W        W28562  17.563   4.999  26.550 -0.0487 -0.0434  0.0125
85646W        W28563  18.110   7.568  28.109 -0.2468 -0.0284  0.0859
85647W        W28564  20.861   7.962  26.350  0.1082  0.0161 -0.2480
85648W        W28565  20.998   3.441  22.852  0.3246 -0.0920 -0.2095
85649W        W28566  19.352   4.648  23.838  0.0282 -0.0643 -0.0070
85650W        W28567  18.643   6.160  25.269  0.0122 -0.0408 -0.2535
85651W        W28568  20.604   4.102  25.158 -0.0201  0.1470 -0.0206
85652W        W28569  20.164   6.332  27.733 -0.3061 -0.0588  0.0595
85653W        W28570  18.379   6.205  24.223  0.1343 -0.0322  0.3586
85654W        W28571  21.096   2.527  26.945  0.1952 -0.0982 -0.2094
85655W        W28572  18.527   6.510  25.705 -0.0719 -0.0485  0.1277
85656W        W28573  18.143   6.735  27.018  0.2764  0.2214 -0.1816
85657W        W28574  18.291   6.090  23.242  0.0290 -0.2135 -0.2913
85658W        W28575  17.896   5.872  25.993 -0.4550  0.0816  0.2567
85659W        W28576  17.986   7.056  24.391 -0.1707  0.2086 -0.1132
85660W        W28577  19.881   6.471  21.736  0.3546  0.0774 -0.0297
85661W        W28578  20.433   6.361  26.349  0.2672 -0.1114 -0.0299
85662W        W28579  19.782   3.097  23.865  0.3499  0.0294 -0.0092
85663W        W28580  21.102   5.460  26.249 -0.0878  0.0221  0.0583
85664W        W28581  18.853   6.665  24.991  0.0652 -0.0636  0.0802
85665W        W28582  19.919   1.973  24.744 -0.4797 -0.1330  0.0813
85666W        W28583  21.465   3.887  24.127  0.0471  0.1340  0.0779
85667W        W28584  18.451   6.301  26.133  0.0612  0.3057  0.0454
85668W        W28585  17.679   6.320  23.474 -0.0644 -0.2246  0.4283
85669W        W28586  19.900   7.219  24.650 -0.0220  0.0226  0.2140
85670W        W28587  19.367   6.551  25.790 -0.3909  0.1487  0.1737
85671W        W28588  20.007   5.185  26.715 -0.0224  0.1435  0.2571
85672W        W28589  19.298   6.253  26.803 -0.1622  0.3258 -0.2672
85673W        W28590  16.532   5.126  26.845 -0.2368 -0.1066 -0.0218
85674W        W28591  17.570   6.093  26.754 -0.3536 -0.3321  0.0011
85675W        W28592  21.370   6.843  25.235 -0.0123  0.2244 -0.2295
85676W        W28593  18.575   5.005  25.385 -0.1621  0.0158  0.0272
85677W        W28594  18.145   5.151  24.672 -0.2652 -0.1457  0.0332
85678W        W28595  19.834   7.704  25.446  0.0749  0.0779 -0.3183
85679W        W28596  22.778   7.393  27.195 -0.0415  0.2358  0.1067
85680W        W28597  19.172   3.077  25.089 -0.2608  0.0311  0.2355
85681W        W28598  18.368   7.399  25.307  0.1925 -0.1921 -0.3256
85682W        W28599  18.045   7.618  23.051 -0.1211  0.0771  0.0429
85683W        W28600  21.023   4.309  27.213 -0.0443 -0.0626  0.2313
85684W        W28601  18.620   4.506  25.152 -0.2431  0.4747 -0.3293
85685W        W28602  19.280   1.998  24.636 -0.1297 -0.1212  0.3591
85686W        W28603  21.149   3.643  26.443 -0.1353  0.1093  0.2113
85687W        W28604  18.376   6.515  25.047 -0.1940 -0.1401 -0.1489
85688W        W28605  21.204   6.421  24.039 -0.2663  0.0923  0.0518
85689W        W28606  20.317   5.685  25.960  0.1152  0.0088  0.0800
85690W        W28607  17.238   7.164  27.576  0.0865 -0.0628 -0.0410
85691W        W28608  18.989   3.539  27.914 -0.0465  0.1333 -0.1658
85692W        W28609  19.246   5.799  24.918 -0.0802  0.0917  0.2045
85693W        W28610  17.410   5.655  27.245  0.1434  0.1235  0.1805
85694W        W28611  18.842   7.073  26.333  0.1973 -0.2726  0.2031
85695W        W28612  20.637   4.017  25.666 -0.1218 -0.0981  0.1929
85696W        W28613  21.007   3.751  23.345 -0.5060 -0.2434  0.2211
85697W        W28614  17.796   4.644  25.778  0.1980 -0.1104 -0.1732
85698W        W28615  19.366   3.651  25.251 -0.3375 -0.3410 -0.0631
85699W        W28616  22.578   7.958  26.256 -0.2746 -0.0317 -0.4888
85700W        W28617  19.709   5.063  23.102 -0.4320  0.3453  0.2142
85701W        W28618  19.676   2.011  23.756  0.0022 -0.0389 -0.4177
85702W        W28619  20.698   6.252  25.809 -0.1390 -0.0006 -0.1357
85703W        W28620  18.386   4.485  23.868  0.0180 -0.0261 -0.2083
85704W        W28621  20.738   1.280  26.595 -0.2572 -0.1410 -0.0854
85705W        W28622  18.833   5.654  26.724 -0.0848 -0.0701  0.1201
85706W        W28623  19.037   7.364  25.958  0.0804  0.3733  0.3857
85707W        W28624  19.221   6.877  26.617 -0.2710 -0.2336  0.0735
85708W        W28625  17.717   5.909  25.533 -0.2750 -0.3403  0.1488
85709W        W28626  21.111   5.223  23.304  0.0545  0.5708  0.2125
85710W        W28627  20.364   7.748  27.076  0.2068  0.2128 -0.3207
85711W        W28628  20.041   7.190  25.720  0.0624 -0.2748 -0.1655
85712W        W28629  19.366   7.987  26.537 -0.3046 -0.1057  0.2816
85713W        W28630  22.006   7.130  26.375  0.1201 -0.1824 -0.1088
85714W        W28631  19.129   5.298  26.425 -0.1693  0.1114  0.3297
85715W        W28632  17.720   5.977  25.009  0.0357 -0.0005 -0.0902
85716W        W28633  18.915   3.557  24.333 -0.0325  0.3404  0.0693
85717W        W28634  20.005   4.932  25.594 -0.1779 -0.3050  0.0790
85718W        W28635  18.679   3.444  23.230  0.0563 -0.3619 -0.1528
85719W        W28636  20.194   3.278  24.058 -0.0121 -0.0783  0.3664
85720W        W28637  19.917   7.715  27.344 -0.6774  0.0673  0.2750
85721W        W28638  19.657   4.956  24.486 -0.0417  0.0356  0.2883
85722W        W28639  19.420   5.429  28.914 -0.3321  0.0390  0.0962
85723W        W28640  20.258   4.815  30.869 -0.1781 -0.0892  0.1013
85724W        W28641  20.889   5.186  27.209  0.1242  0.0481 -0.1891
85725W        W28642  19.979   5.234  28.250 -0.0999 -0.2671 -0.2632
85726W        W28643  17.854   3.089  29.555 -0.0962  0.1000 -0.4621
85727W        W28644  20.988   5.723  31.585 -0.0416 -0.0747 -0.0245
85728W        W28645  19.905   5.058  29.497  0.1411  0.2755 -0.1914
85729W        W28646  19.421   4.810  31.360  0.2000  0.2409  0.1563
85730W        W28647  22.574   6.803  30.407  0.0491  0.0040  0.3394
85731W        W28648  21.027   6.551  26.071  0.3417  0.0190  0.0802
85732W        W28649  20.790   6.836  30.869 -0.0161  0.0540 -0.0663
85733W        W28650  18.468   6.118   0.113  0.4409  0.0700  0.1402
85734W        W28651  19.805   5.449  29.829  0.2531 -0.1145  0.0691
85735W        W28652  19.556   5.066  30.091  0.0186 -0.2669 -0.0302
85736W        W28653  23.824   4.512  29.386  0.2113 -0.1322 -0.1165
85737W        W28654  19.837   5.588  28.651  0.2596 -0.0856  0.0032
85738W        W28655  19.691   5.182  31.699 -0.0423 -0.0028 -0.0987
85739W        W28656  20.626   4.603  29.908 -0.1231 -0.1073  0.0117
85740W        W28657  20.753   6.988  29.536  0.0029 -0.2588  0.0857
85741W        W28658  22.191   4.712  29.642 -0.0029  0.3960 -0.0831
85742W        W28659  21.593   2.948   0.527 -0.1276 -0.1348 -0.1256
85743W        W28660  21.792   5.465  29.766 -0.2887  0.0741 -0.1739
85744W        W28661  18.411   7.043  27.354 -0.1095 -0.1680  0.0600
85745W        W28662  17.564   6.676  31.051 -0.0918 -0.2697 -0.3098
85746W        W28663  19.488   4.886  29.138 -0.2447  0.0374  0.1850
85747W        W28664  21.532   4.798  30.588 -0.0360 -0.0597  0.1403
85748W        W28665  18.991   5.673  28.814  0.2169  0.3863  0.0876
85749W        W28666  19.190   6.542  30.238 -0.0785 -0.0612  0.0680
85750W        W28667  20.237   5.404  30.811 -0.1227 -0.1366 -0.2481
85751W        W28668  22.044   3.652  29.684  0.0392 -0.0153 -0.1542
85752W        W28669  18.077   5.678  28.954 -0.0033 -0.1599  0.0311
85753W        W28670  18.609   6.215  29.937 -0.0966  0.1233  0.0261
85754W        W28671  20.131   7.912  30.299 -0.0681  0.2492 -0.1133
85755W        W28672  21.089   5.086  28.277  0.0597  0.1750  0.0729
85756W        W28673  19.743   5.603  30.949 -0.0979 -0.2700 -0.3745
85757W        W28674  21.244   5.573   0.186  0.2872  0.2172  0.3322
85758W        W28675  17.622   5.775  27.645  0.2557 -0.2036  0.5566
85759W        W28676  21.841   7.231  29.938  0.1227  0.1923  0.1206
85760W        W28677  19.276   5.552  30.014 -0.0071  0.3349 -0.4096
85761W        W28678  20.083   6.907  30.729 -0.2191  0.0091  0.1723
85762W        W28679  22.131   5.103  29.912  0.1049  0.0323 -0.1060
85763W        W28680  19.092   6.028  27.974  0.2299 -0.0976 -0.2970
85764W        W28681  20.901   6.335  28.835 -0.1762 -0.2876  0.1549
85765W        W28682  19.627   3.832   1.234 -0.0092 -0.2746 -0.0140
85766W        W28683  20.477   5.385  30.387  0.1241  0.1802  0.0379
85767W        W28684  21.275   4.712  31.011  0.0053 -0.0713  0.1474
85768W        W28685  20.147   5.800  28.286  0.0718  0.2383  0.0870
85769W        W28686  20.978   3.748  28.167 -0.0012 -0.0910 -0.1554
85770W        W28687  20.066   4.468  27.704 -0.1987  0.0806 -0.1442
85771W        W28688  21.066   4.491  28.895  0.0949 -0.2533  0.2537
85772W        W28689  18.959   0.994  29.399  0.0851  0.1068  0.1379
85773W        W28690  19.941   8.110  29.529 -0.2577 -0.0747 -0.1812
85774W        W28691  21.538   3.477   0.533  0.1520  0.0632 -0.0462
85775W        W28692  23.684   5.272  31.592  0.1688 -0.2518  0.3514
85776W        W28693  20.993   4.725  27.429  0.1260 -0.2311 -0.1370
85777W        W28694  20.679   5.309  31.627 -0.1591 -0.1009 -0.2502
85778W        W28695  18.478   5.209  30.070  0.0656 -0.0421  0.3123
85779W        W28696  18.431   3.625  30.760  0.0439  0.2218 -0.1299
85780W        W28697  22.324   6.289  29.172 -0.1659  0.1841  0.2202
85781W        W28698  20.619   5.847  28.445 -0.0066 -0.1555  0.1171
85782W        W28699  19.864   7.077  28.905  0.0994 -0.0663 -0.2305
85783W        W28700  19.090   4.746  27.783 -0.0127 -0.0473  0.0390
85784W        W28701  18.073   6.700  31.473  0.2116 -0.1133 -0.0667
85785W        W28702  18.171   4.022   0.642  0.0754  0.2408 -0.1371
85786W        W28703  19.369   4.165  26.573 -0.1111  0.3291 -0.0749
85787W        W28704  21.919   5.109  31.417 -0.1700 -0.0981  0.1279
85788W        W28705  19.752   7.782  30.978 -0.1922  0.2030  0.0174
85789W        W28706  21.169   5.218  26.755 -0.2886 -0.0626  0.0886
85790W        W28707  19.029   5.284  30.859 -0.0092 -0.2411  0.0196
85791W        W28708  19.520   6.473  31.403  0.3268 -0.1615  0.1807
85792W        W28709  22.075   6.335  28.252 -0.1923  0.0071 -0.0735
85793W        W28710  23.326   3.602  30.223 -0.0742 -0.1079 -0.1551
85794W        W28711  21.978   4.234  31.840  0.3048 -0.1198 -0.1685
85795W        W28712  19.881   4.749  28.183  0.1331  0.2973  0.3325
85796W        W28713  18.689   5.722  27.885  0.2376  0.0384 -0.0184
85797W        W28714  20.920   5.963  31.171  0.0978  0.0797  0.3599
85798W        W28715  19.821   5.895  25.159 -0.1984 -0.0528 -0.0681
85799W        W28716  19.404   8.890  30.079  0.1325 -0.2105 -0.0783
85800W        W28717  21.731   3.895  30.718 -0.0241  0.0344 -0.1646
85801W        W28718  20.852   8.142  31.934  0.1711 -0.0640  0.0090
85802W        W28719  17.583   6.831  27.221 -0.0766 -0.0323 -0.3660
85803W        W28720  18.529   5.464  30.956  0.4471  0.1667  0.0601
85804W        W28721  17.414   5.627  29.725 -0.0236  0.0791 -0.0396
85805W        W28722  15.938   4.464  29.776  0.2380  0.0685  0.0130
85806W        W28723  19.871   6.099  28.573  0.0992  0.1190 -0.0823
85807W        W28724  22.795   3.943  30.478 -0.2270 -0.1020  0.0919
85808W        W28725  21.226   6.294  29.429  0.1208  0.0982 -0.3709
85809W        W28726  22.792   4.535  28.600  0.1202 -0.2792 -0.2166
85810W        W28727  16.014   6.614  29.763  0.3245 -0.1187 -0.1382
85811W        W28728  22.430   7.576  29.514  0.0272  0.4173  0.1104
85812W        W28729  22.540   5.418  28.442  0.1343 -0.5221 -0.1533
85813W        W28730  18.982   5.951  27.098  0.0030  0.1659  0.1008
85814W        W28731  18.806   5.686  29.819  0.1527 -0.0838 -0.1653
85815W        W28732  19.460   4.687  27.412 -0.0558  0.0356  0.3052
85816W        W28733  18.573   2.452  29.352 -0.1254  0.0050 -0.0307
85817W        W28734  18.213   4.123  27.979 -0.0520 -0.1103 -0.1433
85818W        W28735  22.689   4.745  30.587  0.1778  0.0214 -0.1288
85819W        W28736  18.744   4.618  27.167 -0.2674  0.1044 -0.0346
85820W        W28737  21.135   5.944  29.062  0.2699  0.3729  0.1489
85821W        W28738  22.213   3.762  31.671  0.3243  0.0641  0.1427
85822W        W28739  19.969   7.472  30.521  0.1462 -0.2156 -0.0399
85823W        W28740  21.317   4.315  30.655 -0.1887 -0.0469 -0.2337
85824W        W28741  21.016   9.900  27.542  0.1762  0.1116 -0.1781
85825W        W28742  20.344   6.843  31.130 -0.0705  0.2321 -0.0194
85826W        W28743  21.041   8.960  31.419  0.3241 -0.0245 -0.1645
85827W        W28744  16.661   4.626  31.538  0.2936  0.1345  0.0565
85828W        W28745  20.405   6.986  28.348 -0.0896 -0.0178  0.0139
85829W        W28746  16.974   7.598  29.432 -0.1500 -0.0133  0.1616
85830W        W28747  19.420   5.206  27.532 -0.1706 -0.0349 -0.1960
85831W        W28748  19.104   4.025  28.825 -0.1063  0.3860  0.1225
85832W        W28749  20.187   5.896  31.206  0.1112  0.0317  0.1741
85833W        W28750  19.713   6.591  27.413  0.2309 -0.0504  0.0085
85834W        W28751  18.338   6.101  29.530  0.3162  0.0878  0.1492
85835W        W28752  24.386   3.518  29.589  0.0596 -0.0254 -0.0510
85836W        W28753  22.163   4.782  30.519  0.0527  0.0258  0.0986
85837W        W28754  22.525   4.287  29.855  0.1222 -0.1078 -0.1576
85838W        W28755  15.912   6.194  26.991 -0.3057  0.0688 -0.0736
85839W        W28756  21.290   5.271  30.598  0.1088 -0.3711 -0.0074
85840W        W28757  17.484   6.764  29.670  0.0282 -0.1522 -0.4054
85841W        W28758  18.578   5.822  29.111 -0.0030 -0.3334 -0.0552
85842W        W28759  18.801   7.294  31.391 -0.2461  0.2214 -0.2209
85843W        W28760  23.243   4.971  28.907  0.0848 -0.3034 -0.0788
85844W        W28761  18.087   5.470  30.639 -0.1178  0.2839  0.0940
85845W        W28762  20.794   3.440   0.252  0.2179  0.0351  0.0717
85846W        W28763  19.337   5.973  28.634  0.1292 -0.0314 -0.3785
85847W        W28764  18.719   5.333  28.617  0.1846 -0.0012  0.0961
85848W        W28765  20.954   2.088  29.579 -0.1147 -0.0652  0.0865
85849W        W28766  23.391   8.930  28.362 -0.1950 -0.0494 -0.0353
85850W        W28767  19.431   5.276  31.223 -0.1315  0.1437 -0.0099
85851W        W28768  20.401   5.439  27.942 -0.0143 -0.3257  0.1037
85852W        W28769  19.346   4.627  28.342 -0.0732 -0.1137  0.2305
85853W        W28770  17.685   4.484  26.359  0.1639 -0.2178 -0.0957
85854W        W28771  19.396   5.377  30.476  0.2714 -0.0741 -0.3495
85855W        W28772  20.548   7.422  29.697 -0.1341  0.1294  0.0533
85856W        W28773  20.508   6.575  29.738  0.3358 -0.5176  0.1955
85857W        W28774  21.900   6.836  28.097 -0.1455  0.1651  0.2180
85858W        W28775  20.752   6.557  29.275  0.1955 -0.0202 -0.1064
85859W        W28776  17.815   5.922  29.486 -0.1176 -0.2459 -0.0166
85860W        W28777  19.015   7.713  31.183 -0.2445  0.3887  0.0791
85861W        W28778  19.203   6.311  30.871  0.0887  0.0800 -0.1104
85862W        W28779  18.893   3.759  30.625  0.1460  0.4453 -0.0357
85863W        W28780  21.051   4.691  26.841 -0.2554  0.0541 -0.2936
85864W        W28781  19.836   5.323  27.791 -0.1520  0.1411 -0.4067
85865W        W28782  16.596   7.908  28.211  0.1784  0.0273  0.0464
85866W        W28783  22.968   3.959  29.992 -0.1209 -0.0535  0.0842
85867W        W28784  19.648   3.679  29.203  0.1934  0.0129  0.1477
85868W        W28785  21.731   4.676  31.113  0.0509 -0.0146 -0.1189
85869W        W28786  22.350   5.819   0.577  0.0634  0.0295 -0.2374
85870W        W28787  20.352   3.971  28.405 -0.0778 -0.1024 -0.0823
85871W        W28788  20.451   4.601  29.044 -0.3321  0.3141 -0.2433
85872W        W28789  19.765   6.637  26.927  0.1609  0.3887 -0.1217
85873W        W28790  20.469   2.887  30.871 -0.0146 -0.0040 -0.0492
85874W        W28791  20.565   3.629  29.329  0.1819 -0.3137 -0.2941
85875W        W28792  18.771   8.646  30.745  0.2904 -0.4304 -0.1584
85876W        W28793  19.332   9.126   0.055  0.2239 -0.0377 -0.0317
85877W        W28794  20.351   5.360  28.655  0.0928 -0.1821 -0.4086
85878W        W28795  19.426   2.550   0.100 -0.2004  0.0885  0.0629
85879W        W28796  19.673   2.916  29.831 -0.0875 -0.3810 -0.1208
85880W        W28797  20.201   8.528  28.676 -0.1140 -0.1620 -0.1104
85881W        W28798  19.146   6.779  28.081  0.1079 -0.1018  0.0535
85882W        W28799  18.532   3.873  29.705 -0.0582  0.0319 -0.0827
85883W        W28800  18.737   4.667  30.418  0.1659 -0.2641  0.0947
85884W        W28801  20.010   8.303  27.238 -0.1077  0.1962  0.0558
85885W        W28802  20.276   5.174  31.888  0.1824  0.0200  0.0777
85886W        W28803  18.441   8.213  28.269  0.2148 -0.0160 -0.0517
85887W        W28804  20.911   3.236  31.735  0.0903  0.1234  0.5379
85888W        W28805  18.550   6.426  29.047 -0.2948 -0.0751 -0.0256
85889W        W28806  20.330   4.639  29.552  0.1529 -0.0121  0.0389
85890W        W28807  16.486   5.956  28.768  0.0276  0.0181  0.0120
85891W        W28808  22.945   4.181  29.548  0.1566 -0.0960 -0.0713
85892W        W28809  21.440   4.040  27.251 -0.0325  0.1472  0.0020
85893W        W28810  20.316   5.158  29.942 -0.1258  0.0382 -0.1437
85894W        W28811  21.116   3.412  29.927  0.2461 -0.0785  0.2741
85895W        W28812  18.230   6.879  30.436 -0.2471  0.0045 -0.1459
85896W        W28813  19.359   6.483   0.372 -0.0239 -0.1321  0.0359
85897W        W28814  21.558   4.623  29.040 -0.2180  0.0662  0.2808
85898W        W28815  19.243   8.401  31.813  0.2195  0.0543  0.3090
85899W        W28816  19.818   5.731  30.504 -0.1424  0.0043  0.0158
85900W        W28817  18.306   4.492  29.669  0.2207  0.2022  0.2565
85901W        W28818  22.383   2.473  30.533  0.2564  0.0600  0.1770
85902W        W28819  19.951   5.249  30.463  0.0417 -0.0605  0.0997
85903W        W28820  18.709   7.618  28.629 -0.3314 -0.2662 -0.2013
85904W        W28821  20.702   7.789  30.591  0.1287  0.0610 -0.0685
85905W        W28822  19.695   6.366  29.079  0.1756  0.0846 -0.1070
85906W        W28823  20.041   5.801  26.957  0.2826 -0.1190 -0.0735
85907W        W28824  17.544   3.378  31.167 -0.1798 -0.2161 -0.0885
85908W        W28825  20.325   6.191  28.785 -0.1423  0.2204  0.1341
85909W        W28826  20.792   4.694  31.175 -0.3430 -0.1313  0.1514
85910W        W28827  19.313   3.681  30.372  0.0814  0.3298  0.2717
85911W        W28828  19.439   3.930  27.728 -0.0322 -0.1112 -0.0845
85912W        W28829  20.495   6.272  31.091 -0.5587 -0.1094  0.3610
85913W        W28830  22.359   4.802  30.973  0.2660 -0.0087 -0.1840
85914W        W28831  18.270   6.296  31.240  0.0131 -0.0599  0.0448
85915W        W28832  21.465   2.986  31.792 -0.0538  0.0982  0.0434
85916W        W28833  22.645   7.364  29.092  0.0903  0.0854  0.2904
85917W        W28834  19.019   3.934  31.647  0.2244  0.2046 -0.0024
85918W        W28835  18.706   6.512  27.929 -0.0945  0.1783  0.2513
85919W        W28836  18.298   5.087  28.410 -0.0204 -0.4415 -0.0055
85920W        W28837  20.276   4.887  27.803 -0.1336 -0.0495 -0.0841
85921W        W28838  19.660   2.926  31.691 -0.2487 -0.2935 -0.1788
85922W        W28839  18.717   6.645  30.228  0.0598 -0.0375  0.0542
85923W        W28840  19.898   6.660  28.669  0.2004  0.0746 -0.0564
85924W        W28841  19.376   6.577  29.441  0.1202  0.0783 -0.0733
85925W        W28842  21.751   3.959  28.413 -0.0251  0.0138  0.0507
85926W        W28843  19.829   6.103  26.548 -0.0396  0.1687 -0.1382
85927W        W28844  20.863   4.480  29.324  0.4309  0.1956 -0.1089
85928W        W28845  24.039   3.025  29.806 -0.2849  0.2190  0.1163
85929W        W28846  21.975   4.711  28.190 -0.1841  0.2482  0.1466
85930W        W28847  21.610   4.205  31.118 -0.0121  0.1586 -0.0277
85931W        W28848  19.321   4.107  30.068 -0.2014  0.2769 -0.3228
85932W        W28849  20.400   5.053  31.282  0.0574  0.1191 -0.2121
85933W        W28850  17.842   2.325  31.110 -0.2603 -0.0401  0.0853
85934W        W28851  18.965   8.679   0.204  0.1089  0.2015  0.1524
85935W        W28852  16.061   6.556  29.238 -0.0064  0.0379 -0.1742
85936W        W28853  21.990   4.247  29.737 -0.1288  0.2497 -0.2000
85937W        W28854  18.500   3.320  27.744 -0.1252  0.0375  0.0900
85938W        W28855  19.353   5.862  30.670  0.0330 -0.1828  0.1032
85939W        W28856  20.376   4.269  31.013 -0.1044 -0.3765 -0.0006
85940W        W28857  21.318   3.576  27.075  0.3613  0.3002 -0.0148
85941W        W28858  24.028   4.151  29.683  0.2221  0.2030 -0.0726
85942W        W28859  19.147   4.962  28.734 -0.1337  0.0713 -0.0675
85943W        W28860  21.089   4.745  29.781 -0.0229 -0.1412 -0.0877
85944W        W28861  19.273   6.680  27.088  0.3929  0.1029  0.1207
85945W        W28862  19.300   5.949  29.147 -0.2448 -0.1104  0.2194
85946W        W28863  19.090   1.953  30.786 -0.2202  0.1017  0.2436
85947W        W28864  20.120   6.159  30.279  0.1645  0.0765  0.0970
85948W        W28865  20.547   5.022  28.212  0.0654 -0.4923  0.0831
85949W        W28866  22.022   4.380  30.763 -0.0395 -0.0067  0.0642
85950W        W28867  20.688   4.104  29.977 -0.0755 -0.0527 -0.2605
85951W        W28868  19.839   4.497  30.881 -0.0401  0.1351  0.1467
85952W        W28869  17.972   5.606  29.861 -0.4519 -0.1259  0.0297
85953W        W28870  21.862   7.672  31.563  0.0818  0.0698  0.3302
85954W        W28871  21.998   5.622  27.389 -0.0265  0.0862 -0.0998
85955W        W28872  21.835   3.389  30.596  0.2762 -0.2792 -0.0289
85956W        W28873  19.135   3.859  29.643 -0.1429 -0.1295  0.2701
85957W        W28874  21.046   4.225  27.672  0.2497  0.0294 -0.1991
85958W        W28875  20.555   4.399  27.614  0.0354  0.0695 -0.0664
85959W        W28876  20.091   5.686   0.694  0.1549 -0.1962  0.0692
85960W        W28877  19.547   4.403  27.868 -0.0499 -0.1044 -0.4285
85961W        W28878  20.847   5.127  29.667 -0.0439  0.5207  0.1568
85962W        W28879  19.664   7.157  27.685  0.1412 -0.1367  0.2590
85963W        W28880  20.491   4.866  27.347  0.1110  0.2052  0.0900
85964W        W28881  22.280   5.322  28.868  0.0216  0.3415  0.1512
85965W        W28882  20.878   2.210   0.102 -0.3109  0.3167  0.1661
85966W        W28883  19.956   7.336  31.091 -0.2860  0.2358 -0.1705
85967W        W28884  17.879   5.720  26.467 -0.0499 -0.1139 -0.3178
85968W        W28885  19.290   7.740  27.106 -0.2257 -0.0265 -0.3140
85969W        W28886  20.222   5.485  29.523  0.0003  0.3078 -0.1085
85970W        W28887  21.267   5.232   1.015  0.0114  0.2134 -0.2003
85971W        W28888  20.987   4.197  31.008 -0.1378  0.0631  0.0825
85972W        W28889  22.875   4.728  29.731  0.3328 -0.1408 -0.2737
85973W        W28890  19.141   6.984  30.662  0.0452  0.2312  0.0354
85974W        W28891  21.196   3.775  30.768  0.1985 -0.2624 -0.1397
85975W        W28892  19.082   6.971  30.072 -0.1030 -0.1814 -0.0449
85976W        W28893  18.340   7.028  31.721  0.2030  0.4349  0.0608
85977W        W28894  18.537   6.601  29.570  0.1145  0.2316  0.0339
85978W        W28895  21.265   4.821  29.332  0.1264 -0.0567  0.0351
85979W        W28896  21.946   5.528  28.581  0.0207  0.0946  0.1920
85980W        W28897  18.817   5.636   0.131  0.0513  0.0525  0.2769
85981W        W28898  21.780   6.060  30.529  0.3614  0.0838 -0.1589
85982W        W28899  19.210   4.325  29.667 -0.0511  0.0464 -0.0033
85983W        W28900  17.585   4.703  31.392  0.1986 -0.2247  0.1151
85984W        W28901  21.028   8.157  30.396 -0.0841  0.1538  0.3414
85985W        W28902  21.180   6.738  29.720  0.0866 -0.0104  0.0432
85986W        W28903  19.622   6.233  30.475 -0.1797  0.0652  0.1468
85987W        W28904  19.859   6.242   0.127 -0.0030  0.1373 -0.1954
85988W        W28905  19.452   4.252  31.396  0.1259 -0.0487  0.0243
85989W        W28906  20.910   4.299  28.150 -0.0177  0.0949  0.2410
85990W        W28907  20.181   2.962  28.322  0.1914 -0.2310 -0.1126
85991W        W28908  20.871   7.360  27.439  0.0168 -0.0404 -0.1508
85992W        W28909  19.374   6.049  31.728 -0.3520  0.1708  0.4641
85993W        W28910  18.873   5.808  30.830 -0.0864 -0.0794  0.0672
85994W        W28911  17.088   8.246  26.894 -0.3650 -0.1863 -0.2767
85995W        W28912  19.751   5.729  29.123  0.2009  0.1351 -0.2422
85996W        W28913  19.070   5.184  29.174  0.0939 -0.1892 -0.2783
85997W        W28914  20.403   6.867  30.312 -0.2727 -0.2787  0.1333
85998W        W28915  19.387   3.376  27.687  0.3419 -0.1913  0.1074
85999W        W28916  18.970   5.569  27.504 -0.0749  0.0210 -0.1621
86000W        W28917  16.505   6.778  29.480 -0.1295  0.2220  0.3647
86001W        W28918  21.419   6.343  28.842 -0.2664  0.0615  0.1445
86002W        W28919  17.418   6.956  29.226 -0.2869 -0.0226  0.1467
86003W        W28920  22.863   5.399  31.893  0.0589 -0.1136 -0.1077
86004W        W28921  21.374   3.644  28.850 -0.1319  0.4985  0.1966
86005W        W28922  22.773   5.460  30.514  0.1270  0.2063 -0.0582
86006W        W28923  22.311   4.480  26.826  0.1389  0.1389  0.1335
86007W        W28924  19.993   7.159   0.042 -0.1897  0.0848 -0.3474
86008W        W28925  20.692   4.829  31.801 -0.1000  0.2475  0.1238
86009W        W28926  20.169   5.812  27.806  0.2585  0.0445 -0.0498
86010W        W28927  18.540   4.967  31.146  0.0963  0.1447 -0.0990
86011W        W28928  21.277   3.254  31.401  0.3361  0.1096 -0.0390
86012W        W28929  18.377   5.245  31.516  0.0955 -0.2551 -0.0904
86013W        W28930  20.902   7.851  27.343 -0.0008  0.0631  0.1885
86014W        W28931  19.454   5.070  27.008 -0.3771 -0.2141  0.2450
86015W        W28932  18.799   4.421  29.451  0.0603  0.2292  0.1091
86016W        W28933  22.329   3.915  30.124 -0.0339  0.2375  0.0669
86017W        W28934  19.872   5.399  25.467 -0.3303 -0.0560 -0.0990
86018W        W28935  23.141   4.380  28.980 -0.3070  0.2697  0.0156
86019W        W28936  17.809   6.433  29.769 -0.0739  0.0511  0.0198
86020W        W28937  19.395   6.337  28.197  0.0179 -0.0501  0.0388
86021W        W28938  20.502   6.895   0.631 -0.2016 -0.0079 -0.2051
86022W        W28939  18.841   6.174  29.429 -0.1103 -0.0939  0.3940
86023W        W28940  21.798   5.546  30.671  0.0582  0.1698  0.2882
86024W        W28941  19.834   5.212  29.010 -0.1608  0.0669 -0.4027
86025W        W28942  23.298   2.823  31.743  0.0377 -0.0630  0.2054
86026W        W28943  19.661   4.016  29.574 -0.1627 -0.1719 -0.1762
86027W        W28944  20.202   4.832  28.570  0.1157 -0.0603  0.0869
86028W        W28945  20.670   5.565  29.786 -0.0711 -0.0150 -0.0597
86029W        W28946  19.089   5.168  29.662  0.0588  0.2217 -0.0116
86030W        W28947  19.288   6.481  28.809 -0.1721 -0.2030  0.1546
86031W        W28948  21.523   5.922  31.812 -0.4333  0.0249  0.1826
86032W        W28949  22.359   3.641  27.136 -0.3359 -0.2406  0.0685
86033W        W28950  18.690   8.396   1.807  0.0437  0.2514  0.0360
86034W        W28951  19.364   4.867  30.500  0.0736  0.5718  0.0720
86035W        W28952  19.879   4.161  26.749 -0.2571 -0.3514 -0.0083
86036W        W28953  18.408   5.980  28.662  0.1003  0.0935 -0.3402
86037W        W28954  20.768   5.090  30.794 -0.0649  0.0120  0.2100
86038W        W28955  20.676   7.275  30.496 -0.2402  0.1408 -0.0622
86039W        W28956  19.601   3.128  26.898  0.1080 -0.0115  0.1772
86040W        W28957  20.761   5.117  27.723  0.0946 -0.2116  0.2641
86041W        W28958  20.872   3.534  31.269  0.1151  0.1099 -0.1753
86042W        W28959  19.656   6.162  27.804  0.0430 -0.4351  0.2034
86043W        W28960  20.727   5.947  30.198 -0.0518  0.1888  0.0265
86044W        W28961  22.066   6.757  29.889 -0.1889  0.2319 -0.3253
86045W        W28962  17.303   5.085  31.090 -0.1117  0.0634  0.0681
86046W        W28963  18.751   6.172  30.564 -0.2159 -0.1424  0.0688
86047W        W28964  21.691   7.131  30.669 -0.0408  0.3789  0.0008
86048W        W28965  18.433   3.539  29.193  0.3676 -0.2185 -0.1823
86049W        W28966  18.039   6.197  29.025 -0.2659 -0.3569 -0.2043
86050W        W28967  17.635   6.622  28.244  0.0942 -0.1091 -0.2311
86051W        W28968  21.234   5.989  29.972 -0.0747 -0.1158 -0.1516
86052W        W28969  20.850   6.799   1.823  0.1388  0.0865  0.0510
86053W        W28970  21.209   6.767  28.131 -0.0673 -0.2551  0.3673
86054W        W28971  22.419   3.458  30.374 -0.2438 -0.0060 -0.1302
86055W        W28972  20.976   8.668  30.322  0.0013  0.0731 -0.2667
86056W        W28973  16.994   5.843   1.350 -0.0048 -0.1781 -0.1641
86057W        W28974  18.105   5.533  27.747 -0.3581 -0.3356  0.0945
86058W        W28975  20.803   6.112  29.730  0.1145 -0.0874  0.1865
86059W        W28976  23.245   7.016  27.797  0.1082  0.0729 -0.0564
86060W        W28977  19.852   6.119  27.258  0.0218 -0.3891  0.0384
86061W        W28978  20.343   7.414  30.837  0.1938 -0.1194  0.0823
86062W        W28979  22.463   4.592  27.980  0.0978  0.1118 -0.3060
86063W        W28980  20.228   5.565  31.552 -0.2923 -0.0904  0.4214
86064W        W28981  18.976   5.083  30.281  0.2244 -0.1704  0.1165
86065W        W28982  22.231   3.901  30.607  0.1475 -0.1247  0.0270
86066W        W28983  21.900   3.774  29.157  0.5974 -0.0583  0.0806
86067W        W28984  19.537   6.689  30.653  0.0596 -0.3168 -0.2902
86068W        W28985  17.653   4.685  28.976  0.0804  0.1844 -0.1222
86069W        W28986  17.420   6.688  27.791  0.0563 -0.1661  0.2398
86070W        W28987  20.522   6.041  26.693  0.0336  0.0441 -0.0898
86071W        W28988  19.966   4.390  28.588  0.1024 -0.1500  0.1408
86072W        W28989  19.534   3.294  29.523  0.2981 -0.0168  0.0025
86073W        W28990  18.205   4.706  29.193 -0.2951  0.1520 -0.2843
86074W        W28991  20.312   6.035  29.706  0.2342  0.1392 -0.1864
86075W        W28992  20.997   6.405  30.113  0.2976  0.0536  0.1580
86076W        W28993  20.499   4.548  30.569  0.2876  0.0839  0.0621
86077W        W28994  17.181   2.602  30.048  0.2558  0.0641 -0.1763
86078W        W28995  21.163   4.253  29.782 -0.0340  0.0271  0.1060
86079W        W28996  21.803   6.824  29.066  0.1156 -0.0915  0.4452
86080W        W28997  19.631   3.678  28.091 -0.0551  0.0744 -0.1709
86081W        W28998  21.322   7.351  31.520 -0.2213  0.0883 -0.1480
86082W        W28999  17.371   6.190  29.601  0.2106  0.0601  0.1653
86083W        W29000  20.660   5.563   0.132  0.0026 -0.2343 -0.0885
86084W        W29001  20.543   5.874   1.043  0.0968  0.2087  0.0094
86085W        W29002  18.403   3.655  28.150  0.1970 -0.0516 -0.0990
86086W        W29003  21.818   3.330  29.319  0.6357  0.0217 -0.1029
86087W        W29004  21.237   5.846  28.469 -0.3123 -0.1321 -0.3680
86088W        W29005  22.642   7.263  28.072 -0.0582 -0.0210 -0.2145
86089W        W29006  19.027   4.903  31.157 -0.0143 -0.1011  0.0626
86090W        W29007  19.232   8.192  29.343 -0.0086 -0.1529 -0.3138
86091W        W29008  19.317   4.157  29.222 -0.3735  0.0603  0.2948
86092W        W29009  22.229   4.322  28.405  0.3850  0.3249 -0.0964
86093W        W29010  19.494   6.745  31.924 -0.1059  0.1188 -0.0318
86094W        W29011  20.445   4.526  28.103  0.1782  0.3189 -0.3138
86095W        W29012  24.652   4.129  30.471  0.2486  0.0502 -0.3904
86096W        W29013  20.960   4.595  30.665 -0.1740 -0.3515 -0.0767
86097W        W29014  19.142   3.011  29.224 -0.1899  0.4356 -0.0971
86098W        W29015  18.326   4.684  30.669 -0.1176  0.1598 -0.1940
86099W        W29016  21.322   7.199  31.070  0.1587  0.1459  0.0044
86100W        W29017  19.722   5.696  27.529  0.0663 -0.1965  0.0743
86101W        W29018  20.343   6.714  29.015 -0.1904 -0.2618 -0.1485
86102W        W29019  20.621   5.829  27.590 -0.0243  0.1162  0.0741
86103W        W29020  16.780   4.550  30.117  0.0529 -0.2926  0.1228
86104W        W29021  21.624   3.621  27.479  0.2109  0.0073  0.2935
86105W        W29022  18.530   4.321  31.258 -0.1592 -0.1352  0.2544
86106W        W29023  20.796   4.979  29.188  0.2017 -0.1094  0.0659
86107W        W29024  20.579   6.450   0.950  0.0588 -0.0281 -0.2374
86108W        W29025  20.705   5.792  26.241 -0.2061  0.0634  0.0378
86109W        W29026  21.205   6.771  28.660  0.0305 -0.5086  0.1944
86110W        W29027  20.584   7.845  31.130  0.3000 -0.1842  0.3117
86111W        W29028  22.614   8.114   1.163 -0.0161  0.0357 -0.1395
86112W        W29029  20.377   7.401  31.341  0.0580  0.0786  0.1649
86113W        W29030  19.895   4.772  31.292 -0.1129  0.0420 -0.1841
86114W        W29031  18.591   3.886  31.101 -0.1847 -0.1260  0.0261
86115W        W29032  18.420   5.249  29.041  0.1735 -0.1317  0.0923
86116W        W29033  17.822   5.806  28.136  0.0010  0.1541  0.0262
86117W        W29034  23.721   4.145  30.677  0.0548  0.1241 -0.2044
86118W        W29035  20.790   4.013  30.568  0.2044 -0.1565  0.0209
86119W        W29036  19.868   3.212  28.015  0.0509  0.2938 -0.1833
86120W        W29037  18.618   8.269   0.011 -0.1733 -0.0288 -0.3062
86121W        W29038  19.969   4.728  29.014  0.1529  0.1306  0.1651
86122W        W29039  19.985   3.118   2.188 -0.0084  0.1662  0.2616
86123W        W29040  19.757   6.743   0.410  0.0498 -0.0012  0.1509
86124W        W29041  19.151   4.617   0.565 -0.0702  0.1134  0.4533
86125W        W29042  18.301   5.049   1.032 -0.1939  0.3372 -0.1259
86126W        W29043  20.804   6.900   1.032 -0.2599 -0.1741  0.0132
86127W        W29044  18.768   8.107  30.947 -0.3682  0.0637  0.3900
86128W        W29045  20.087   3.814  31.820 -0.1229 -0.0531 -0.1351
86129W        W29046  19.784   4.987  30.886  0.0742 -0.3860 -0.2510
86130W        W29047  20.728   6.239   1.915 -0.1034  0.3752  0.4230
86131W        W29048  21.248   9.043  30.639  0.2057  0.1182 -0.0195
86132W        W29049  22.115   8.558  31.213 -0.1327  0.1132 -0.3897
86133W        W29050  20.329   3.703  30.582  0.0514 -0.0675  0.1348
86134W        W29051  19.770   7.571   0.385 -0.1728 -0.1001  0.1220
86135W        W29052  17.706   4.476  31.915  0.0341  0.4506  0.1853
86136W        W29053  21.708   6.479   1.027 -0.1511  0.2348  0.1836
86137W        W29054  17.034   4.834  30.415 -0.3504 -0.2989  0.1040
86138W        W29055  19.270   7.379  31.794  0.0943  0.2444 -0.3188
86139W        W29056  20.856   5.630  30.668  0.3735 -0.0764 -0.1083
86140W        W29057  18.129   5.129   0.484  0.1340  0.2359  0.0097
86141W        W29058  19.208   3.534   0.007 -0.1793  0.1106 -0.1363
86142W        W29059  18.093   4.831  31.769  0.0505  0.0064 -0.0937
86143W        W29060  19.337   7.777   0.417  0.0257 -0.1111 -0.0670
86144W        W29061  21.827   5.556   0.071 -0.1426  0.0336 -0.0628
86145W        W29062  19.036   4.233  30.441 -0.1223  0.2645 -0.0289
86146W        W29063  16.449   5.864   1.398 -0.0362  0.4576 -0.2328
86147W        W29064  19.350   3.054   0.134 -0.0100  0.1184 -0.2105
86148W        W29065  19.044   6.994   0.273  0.2812  0.2842 -0.3067
86149W        W29066  16.548   7.582  31.104  0.2171 -0.1421  0.0685
86150W        W29067  19.937   5.320  31.280 -0.1728 -0.1332 -0.0980
86151W        W29068  19.985   7.512   0.953  0.1683 -0.0517  0.0397
86152W        W29069  19.019   4.500  31.468 -0.3016 -0.3236  0.0600
86153W        W29070  18.338   3.807  31.598  0.0573  0.0223 -0.0248
86154W        W29071  21.637   3.562  31.070  0.0499  0.0008 -0.3796
86155W        W29072  21.636   2.344   1.557 -0.1025  0.2261 -0.0515
86156W        W29073  18.192   4.152  30.937  0.0307 -0.0775  0.0584
86157W        W29074  19.548   7.326   0.774 -0.0584 -0.2149 -0.2378
86158W        W29075  20.978   7.688  31.348 -0.1587  0.1031  0.0598
86159W        W29076  21.147   8.647  29.733 -0.3551 -0.0813  0.2564
86160W        W29077  19.567   5.569   0.610  0.0090 -0.0495 -0.1219
86161W        W29078  20.903   7.164  31.428 -0.0255  0.1852 -0.2093
86162W        W29079  19.485   4.234   0.364 -0.3796  0.2799  0.1158
86163W        W29080  19.434   3.190   0.852  0.2689  0.1635 -0.0729
86164W        W29081  19.078   4.088  31.090 -0.0725  0.0333  0.0201
86165W        W29082  19.908   6.453  29.843 -0.0114  0.1280  0.3238
86166W        W29083  18.123   2.937   0.120 -0.1432 -0.3779 -0.2335
86167W        W29084  21.233   7.006   1.295  0.0307 -0.0772  0.0888
86168W        W29085  21.505   4.966   0.118 -0.0682  0.2452  0.1403
86169W        W29086  20.237   5.858   0.120 -0.1362 -0.1420 -0.1762
86170W        W29087  19.709   5.784  31.408 -0.0680 -0.0819  0.3976
86171W        W29088  18.540   4.088  30.558  0.0308 -0.1693 -0.0229
86172W        W29089  21.011   8.390   0.926  0.2149 -0.0867 -0.0281
86173W        W29090  21.766   6.436   0.410 -0.0051  0.1749 -0.1843
86174W        W29091  19.215   3.579  31.003 -0.0500 -0.0072 -0.0077
86175W        W29092  18.991   5.980  30.182  0.1928 -0.4364  0.1129
86176W        W29093  19.988   4.735  31.770  0.2950 -0.1915 -0.0917
86177W        W29094  20.485   4.858   0.768  0.1742  0.0751 -0.1816
86178W        W29095  20.556   5.944  31.618 -0.1168 -0.2081  0.0691
86179W        W29096  20.005   8.428   0.881 -0.0612  0.2427 -0.0038
86180W        W29097  20.300   7.342  30.190 -0.0932  0.1433  0.1743
86181W        W29098  19.587   7.109  30.386 -0.1145 -0.1771  0.0124
86182W        W29099  18.709   7.825  31.779  0.0327  0.0982  0.1915
86183W        W29100  17.443   7.651  30.860  0.3481  0.1861 -0.0640
86184W        W29101  19.082   7.352   0.684 -0.0642  0.2101 -0.1594
86185W        W29102  17.504   2.056   0.009 -0.1286 -0.0873  0.0577
86186W        W29103  19.855   8.245  31.153 -0.0734 -0.4603 -0.2113
86187W        W29104  19.743   7.160  31.551  0.0817  0.1107 -0.0642
86188W        W29105  22.556   6.080   1.288  0.1105  0.2326 -0.4216
86189W        W29106  17.420   9.114  20.492  0.0778  0.0535  0.4919
86190W        W29107  18.610   7.799  17.903  0.0956  0.1457  0.0238
86191W        W29108  21.633   6.897  16.878 -0.0563 -0.1365  0.0041
86192W        W29109  19.586   7.522  17.254 -0.0995  0.0809  0.1951
86193W        W29110  19.238   5.721  18.462  0.2298  0.0075 -0.0014
86194W        W29111  20.763   8.596  16.177 -0.0707  0.3131 -0.2898
86195W        W29112  16.219   6.622  18.908 -0.1585  0.0167  0.1140
86196W        W29113  21.663  10.566  18.692  0.0177  0.0039  0.0137
86197W        W29114  21.532   7.676  20.267 -0.2584 -0.2064  0.2256
86198W        W29115  19.819   9.047  16.172 -0.2911 -0.1311  0.4457
86199W        W29116  19.813   9.524  18.894  0.0537 -0.0621  0.0185
86200W        W29117  20.248   9.557  18.662  0.0438 -0.0146  0.0736
86201W        W29118  18.519   6.863  16.811 -0.1905 -0.0370  0.0981
86202W        W29119  17.099   4.905  17.766 -0.1362  0.4753 -0.0222
86203W        W29120  20.421  11.003  16.836  0.0461 -0.2976 -0.0227
86204W        W29121  18.576   9.172  16.956  0.1158 -0.4468  0.0944
86205W        W29122  19.447   9.143  18.976  0.1760 -0.1836 -0.1348
86206W        W29123  18.555   8.220  16.240 -0.0918  0.1202 -0.0367
86207W        W29124  19.432   9.954  18.180  0.0532 -0.1724  0.1732
86208W        W29125  17.046   7.834  18.533 -0.1097  0.3054 -0.0090
86209W        W29126  19.490   9.884  18.891  0.2956  0.1826  0.0312
86210W        W29127  20.254   8.005  17.202  0.3333 -0.1253  0.0358
86211W        W29128  16.503   9.007  16.635  0.3280  0.4353  0.1690
86212W        W29129  19.161   8.923  19.997 -0.1035 -0.4937  0.2000
86213W        W29130  19.782   8.651  20.733 -0.0126 -0.0223 -0.1984
86214W        W29131  20.552   6.137  17.573 -0.2166  0.2995  0.2288
86215W        W29132  20.195   7.190  18.093  0.1887  0.0920 -0.0738
86216W        W29133  20.729   9.920  17.928  0.1400 -0.0764 -0.3108
86217W        W29134  19.481  10.602  18.135  0.2646 -0.0013 -0.0858
86218W        W29135  20.899   7.695  21.397 -0.1792 -0.1964  0.2180
86219W        W29136  17.836  11.122  16.838 -0.0504 -0.0591 -0.2250
86220W        W29137  18.379  11.103  17.736 -0.0113 -0.0784 -0.1089
86221W        W29138  19.942  10.397  18.058  0.0474 -0.1190 -0.2983
86222W        W29139  21.595   9.162  15.983 -0.0998  0.0302  0.1204
86223W        W29140  22.440  10.309  19.915 -0.0564 -0.1796  0.3182
86224W        W29141  20.053  10.836  17.160  0.2366  0.0701  0.1570
86225W        W29142  17.641   8.646  16.503  0.2981 -0.0214 -0.0705
86226W        W29143  18.584   9.233  19.599 -0.1041  0.5193 -0.0256
86227W        W29144  20.625   9.349  21.257 -0.0316  0.1191 -0.0557
86228W        W29145  21.102   9.601  19.173  0.2616 -0.0913  0.2167
86229W        W29146  17.813   8.345  17.852 -0.2728 -0.0276  0.4797
86230W        W29147  20.058   8.955  17.428 -0.3989  0.3599 -0.0904
86231W        W29148  18.257   8.266  19.234  0.1886  0.1615 -0.0085
86232W        W29149  19.776  10.174  20.555  0.3540 -0.0357  0.0358
86233W        W29150  18.016   9.697  18.978  0.2190  0.0176 -0.1948
86234W        W29151  21.305   7.692  22.150  0.0959 -0.1474 -0.2609
86235W        W29152  18.568  10.962  17.286  0.0856  0.0925 -0.2818
86236W        W29153  22.372  10.754  16.709  0.0092  0.0564  0.4271
86237W        W29154  18.194   8.575  16.467  0.2314  0.1212  0.1068
86238W        W29155  22.060   7.132  17.503 -0.1098  0.2279 -0.1448
86239W        W29156  21.317   6.649  18.160  0.0525 -0.3190  0.0516
86240W        W29157  18.883   8.617  18.569 -0.3889 -0.0524  0.2600
86241W        W29158  18.593   8.790  17.568 -0.1333 -0.0210 -0.0450
86242W        W29159  20.552   8.800  21.806 -0.1163  0.1345 -0.0978
86243W        W29160  19.813   8.645  16.536  0.0454  0.3903 -0.1372
86244W        W29161  19.016   7.492  18.234  0.0493 -0.1222 -0.2828
86245W        W29162  17.483   9.384  18.742 -0.0984 -0.2494  0.0390
86246W        W29163  18.645   8.835  18.200  0.1859  0.0253  0.2702
86247W        W29164  20.438  10.666  16.031 -0.1793  0.2388 -0.0685
86248W        W29165  21.461  10.290  18.150  0.0684  0.2817 -0.1260
86249W        W29166  21.119   9.347  16.601  0.0524  0.0020  0.0128
86250W        W29167  19.684   7.145  18.047  0.0716 -0.2842 -0.0081
86251W        W29168  17.152   8.003  19.462 -0.1573 -0.0952 -0.0797
86252W        W29169  18.930   8.375  19.278  0.0222  0.3726 -0.1548
86253W        W29170  19.523   8.285  16.720 -0.0626 -0.4189 -0.2173
86254W        W29171  21.261   8.116  21.553 -0.1869  0.1955 -0.0324
86255W        W29172  18.529   9.115  20.648 -0.0202 -0.2722 -0.2089
86256W        W29173  21.301   7.975  17.901 -0.3378 -0.4908  0.1117
86257W        W29174  17.405  10.346  18.923  0.0480  0.0060 -0.5546
86258W        W29175  19.105   8.489  17.527  0.0412 -0.0533 -0.1666
86259W        W29176  21.319  11.144  16.815  0.3311  0.0629 -0.1664
86260W        W29177  20.536   6.678  17.543 -0.2036 -0.1975 -0.2018
86261W        W29178  21.076   8.479  16.521 -0.4897  0.1126 -0.0860
86262W        W29179  19.292   9.076  15.737 -0.0234 -0.2734  0.1183
86263W        W29180  18.751   8.732  15.555 -0.1470  0.0906 -0.3523
86264W        W29181  24.155   9.009  17.350 -0.2676  0.2176  0.2015
86265W        W29182  22.003   9.545  16.175 -0.1366  0.1384  0.0447
86266W        W29183  16.651   8.028  17.927 -0.0168 -0.3621  0.1963
86267W        W29184  20.003   8.279  19.863 -0.2454  0.1370 -0.0714
86268W        W29185  17.324  10.256  21.766  0.0825 -0.1013 -0.0040
86269W        W29186  17.995  10.677  15.842 -0.0489 -0.1721  0.0055
86270W        W29187  17.853  10.092  17.740 -0.1217 -0.0052 -0.1786
86271W        W29188  18.658   8.670  16.627 -0.1261 -0.1824 -0.1582
86272W        W29189  18.546   6.420  17.100  0.1322 -0.2926 -0.0782
86273W        W29190  19.108   8.979  17.920  0.3281 -0.1056 -0.3559
86274W        W29191  20.772   6.481  18.387 -0.0669 -0.4475 -0.1170
86275W        W29192  16.384   7.201  19.044  0.0652  0.2071  0.3663
86276W        W29193  20.964   8.186  16.925 -0.1227 -0.0652 -0.2673
86277W        W29194  18.043   9.888  15.492  0.4020 -0.2345  0.3763
86278W        W29195  21.927  10.613  15.735  0.2170 -0.1133 -0.0883
86279W        W29196  22.393   8.879  15.572 -0.0156  0.1068 -0.1750
86280W        W29197  20.291  10.517  16.520  0.3287  0.0705 -0.0884
86281W        W29198  18.679   8.749  18.977 -0.0300  0.2363 -0.1969
86282W        W29199  17.207   6.718  18.689 -0.1233  0.1918  0.1398
86283W        W29200  21.160   9.767  18.714 -0.0777  0.1023  0.0736
86284W        W29201  16.155   4.838  17.675 -0.2652  0.1908 -0.2171
86285W        W29202  20.070   8.309  17.621  0.1869 -0.0268 -0.3703
86286W        W29203  17.561   7.136  16.660 -0.0411  0.0523  0.0961
86287W        W29204  19.192   8.313  18.871  0.0199  0.0086  0.1363
86288W        W29205  19.025   8.336  16.556  0.0533 -0.4144 -0.3908
86289W        W29206  17.977   9.230  18.668 -0.2244 -0.1703 -0.2628
86290W        W29207  20.410   7.623  17.442  0.3522  0.0808 -0.1668
86291W        W29208  22.309  11.048  18.842 -0.1794  0.1216 -0.1109
86292W        W29209  20.401  10.577  19.476 -0.0304  0.0700 -0.2501
86293W        W29210  20.789  10.735  16.480 -0.1069  0.2185 -0.0762
86294W        W29211  16.337   8.600  16.966 -0.1372 -0.1857 -0.0559
86295W        W29212  17.425   8.048  17.109  0.2729 -0.0762 -0.1730
86296W        W29213  18.561  11.125  16.419  0.2460  0.0695 -0.0277
86297W        W29214  19.872   9.185  19.472 -0.0008  0.1290  0.1100
86298W        W29215  19.091   7.413  16.080  0.4607  0.2109 -0.1947
86299W        W29216  20.056  10.151  19.876 -0.2034 -0.1477 -0.1595
86300W        W29217  19.132   6.544  17.049 -0.1475  0.1567  0.1947
86301W        W29218  18.527   8.324  19.644  0.2447  0.1768 -0.0520
86302W        W29219  20.189   5.877  18.784 -0.2226  0.1483 -0.2878
86303W        W29220  22.393   9.371  18.911  0.0161 -0.1967 -0.1093
86304W        W29221  22.501   6.670  20.063  0.0514 -0.3990 -0.1415
86305W        W29222  18.358   6.236  16.610 -0.0293  0.2339  0.2038
86306W        W29223  19.164   8.762  19.093  0.3405  0.0944 -0.0173
86307W        W29224  20.540  10.236  17.547 -0.0775 -0.3869  0.2963
86308W        W29225  18.337   7.641  16.245  0.0446 -0.1780 -0.1798
86309W        W29226  19.885  10.207  15.812  0.0412  0.4320 -0.1495
86310W        W29227  20.277   8.266  16.162 -0.0956  0.3479  0.0556
86311W        W29228  14.283   8.227  16.732 -0.0027  0.2244  0.0772
86312W        W29229  21.267   8.643  16.971 -0.0558  0.1024 -0.0406
86313W        W29230  16.594   8.596  17.418 -0.0818  0.1112  0.0904
86314W        W29231  19.054   9.777  20.279 -0.2751 -0.0560 -0.1676
86315W        W29232  20.688   4.774  16.973 -0.3164 -0.2048 -0.0386
86316W        W29233  19.792   8.194  16.302  0.2864  0.0639 -0.1358
86317W        W29234  20.713   8.813  19.726  0.1459 -0.0262 -0.0021
86318W        W29235  21.834   9.298  15.536  0.2771 -0.0734  0.1011
86319W        W29236  19.292   9.102  16.252 -0.1830 -0.0223  0.0159
86320W        W29237  20.871   7.609  15.993  0.1273  0.0230 -0.0103
86321W        W29238  17.742  10.818  19.086  0.2316  0.0189 -0.2569
86322W        W29239  19.828   8.894  16.942  0.1851 -0.2242 -0.3032
86323W        W29240  20.034   9.922  17.836 -0.0280 -0.0789 -0.0237
86324W        W29241  19.974   7.737  16.261  0.0631 -0.2634  0.1740
86325W        W29242  22.623  11.745  16.460  0.1750 -0.0041 -0.1484
86326W        W29243  18.091   8.859  18.954 -0.2390 -0.3714 -0.1074
86327W        W29244  18.923  10.041  18.693 -0.1861  0.0454  0.1971
86328W        W29245  22.729  10.033  16.638  0.0952 -0.0742 -0.0339
86329W        W29246  20.353   7.574  19.446 -0.1042  0.0590 -0.2061
86330W        W29247  19.152   7.916  17.336 -0.2295 -0.0142 -0.0836
86331W        W29248  19.536   7.547  16.409  0.1541 -0.0105  0.1436
86332W        W29249  17.136  10.151  16.150 -0.1162 -0.1754 -0.2519
86333W        W29250  21.961   8.579  20.158 -0.1711 -0.1575 -0.1272
86334W        W29251  19.847   9.333  18.412  0.3517  0.1147 -0.1339
86335W        W29252  21.970   7.204  18.032 -0.0503  0.0367  0.1255
86336W        W29253  22.039   7.536  20.985 -0.1159  0.1690  0.3559
86337W        W29254  22.298   9.052  16.440 -0.2062  0.0091  0.0264
86338W        W29255  18.300   8.701  20.343 -0.1898 -0.0794 -0.1568
86339W        W29256  18.819   9.210  16.377  0.2812 -0.0803 -0.5221
86340W        W29257  18.941   8.154  20.329 -0.0456 -0.2920  0.0726
86341W        W29258  19.815   9.898  19.549 -0.1596 -0.1885 -0.0389
86342W        W29259  19.048  12.053  18.362 -0.0331  0.1458  0.2339
86343W        W29260  21.548   9.700  19.549  0.2581  0.1329 -0.2075
86344W        W29261  21.324   8.978  16.390 -0.1613 -0.1979  0.0508
86345W        W29262  17.879   7.878  18.214 -0.0496  0.3248  0.2256
86346W        W29263  21.406   8.075  16.646  0.2572 -0.1841  0.0794
86347W        W29264  19.530  11.350  16.540  0.2724  0.0781 -0.0363
86348W        W29265  19.037   8.495  18.044 -0.5106  0.1505  0.1096
86349W        W29266  20.462   7.785  18.571  0.2268 -0.2475  0.2708
86350W        W29267  21.116  10.256  18.894 -0.0134 -0.1757  0.0382
86351W        W29268  19.422   7.671  17.767 -0.3608 -0.1124  0.1224
86352W        W29269  20.077   9.146  18.982 -0.0331 -0.0826 -0.1190
86353W        W29270  18.681   9.384  18.229 -0.2061 -0.2807  0.2355
86354W        W29271  20.458   8.421  17.374 -0.1590 -0.0750 -0.4144
86355W        W29272  17.156   9.049  17.535 -0.2340  0.2053  0.4132
86356W        W29273  18.705   6.659  17.628  0.5042  0.0011 -0.1069
86357W        W29274  17.179   9.958  16.593 -0.0886 -0.0330 -0.2180
86358W        W29275  20.975   7.580  17.825  0.0635  0.1073 -0.0427
86359W        W29276  21.187  10.487  16.248 -0.1074  0.0963  0.2200
86360W        W29277  16.869   7.654  20.490 -0.1521 -0.0265 -0.0400
86361W        W29278  22.609   7.447  17.289  0.2009 -0.0355 -0.0889
86362W        W29279  19.200  11.393  17.022 -0.5248 -0.0651 -0.1916
86363W        W29280  22.517   8.648  19.945  0.0512  0.1362 -0.0137
86364W        W29281  21.748   7.274  16.187 -0.3150 -0.0722 -0.0806
86365W        W29282  20.882   7.935  18.178 -0.1523  0.2534 -0.1206
86366W        W29283  20.519   8.914  17.367  0.0706 -0.2451 -0.0323
86367W        W29284  17.620   7.413  17.617  0.1703  0.3021 -0.2877
86368W        W29285  21.009   8.652  17.404  0.0888  0.1220  0.1628
86369W        W29286  18.507   6.198  18.015 -0.1398  0.1290 -0.2816
86370W        W29287  19.865  10.057  16.377 -0.0502  0.1523  0.2436
86371W        W29288  21.036   8.408  18.000  0.0382  0.1146 -0.3813
86372W        W29289  19.356   9.049  17.273 -0.1826  0.0752  0.0709
86373W        W29290  19.226  10.552  17.008  0.0957  0.4093 -0.2096
86374W        W29291  20.190   9.122  20.851  0.0160  0.0533  0.2426
86375W        W29292  20.615   9.866  18.910  0.1876 -0.1436 -0.1451
86376W        W29293  18.883   7.845  19.114 -0.0372 -0.3025  0.2545
86377W        W29294  19.300   7.115  17.770 -0.0280  0.3278  0.0962
86378W        W29295  20.294   8.877  16.046 -0.0666  0.1161  0.0574
86379W        W29296  20.870   8.905  16.601 -0.1029 -0.2121 -0.0658
86380W        W29297  20.883   8.694  19.259  0.1398 -0.0625 -0.1066
86381W        W29298  18.250  10.421  18.917 -0.2517 -0.5376  0.0475
86382W        W29299  18.930   7.049  17.403  0.1274  0.0741  0.2513
86383W        W29300  21.217  11.002  16.279 -0.3244 -0.3564 -0.0162
86384W        W29301  18.806   8.112  18.337  0.3489 -0.1290 -0.0689
86385W        W29302  18.857   8.844  17.178  0.1176 -0.1209 -0.2713
86386W        W29303  19.833   8.256  19.380  0.3407  0.1661  0.2114
86387W        W29304  17.372   9.492  18.283  0.1540  0.1216  0.1020
86388W        W29305  18.983   7.013  16.890  0.3824  0.0478  0.0270
86389W        W29306  18.668   9.877  17.322  0.1534 -0.0493  0.1467
86390W        W29307  19.537   8.151  17.651  0.0255 -0.1199 -0.1066
86391W        W29308  17.538  11.010  16.258  0.1732  0.0848 -0.0542
86392W        W29309  21.411   7.261  17.201 -0.0127  0.1740  0.3743
86393W        W29310  19.545   9.193  17.681 -0.0870  0.0421  0.1768
86394W        W29311  19.125   7.463  17.156 -0.1482  0.0081 -0.1844
86395W        W29312  22.088   9.032  17.308 -0.2758 -0.1737 -0.1692
86396W        W29313  20.628   9.615  16.190  0.1017 -0.2481  0.1784
86397W        W29314  22.438   7.597  20.598  0.1764  0.1479  0.0132
86398W        W29315  17.961   7.752  19.041 -0.1847 -0.2324 -0.0765
86399W        W29316  21.164   9.492  16.105  0.2093 -0.2072  0.0468
86400W        W29317  17.199   6.935  19.115 -0.0995 -0.1943 -0.0234
86401W        W29318  20.424  11.601  23.309 -0.0580  0.2828 -0.0206
86402W        W29319  17.272   8.548  18.608  0.0078 -0.1016  0.3987
86403W        W29320  18.754   7.809  16.965 -0.3347 -0.1631  0.1487
86404W        W29321  18.056   7.176  16.749  0.3229  0.0746 -0.0586
86405W        W29322  19.353   8.519  19.493 -0.1148 -0.1421  0.1414
86406W        W29323  20.441   8.535  17.886 -0.1951  0.3302  0.0752
86407W        W29324  18.962  10.200  16.678 -0.4496 -0.2317 -0.2438
86408W        W29325  19.862   7.847  16.764 -0.1500  0.3660 -0.2842
86409W        W29326  20.662   9.758  18.418  0.0911 -0.0729  0.0517
86410W        W29327  18.612   8.230  18.871  0.1215 -0.0722 -0.0389
86411W        W29328  19.888   7.347  17.642 -0.0632 -0.0161  0.2006
86412W        W29329  19.829  10.425  17.006  0.2496  0.2477  0.1006
86413W        W29330  19.000   6.569  21.287  0.0574  0.2695 -0.3216
86414W        W29331  19.585   8.051  17.153 -0.0350  0.2456 -0.2254
86415W        W29332  20.459   7.837  16.082  0.0258 -0.3398  0.0250
86416W        W29333  19.954   7.591  18.405 -0.1501 -0.0754 -0.1859
86417W        W29334  20.749   7.930  19.284 -0.3707  0.1926  0.2790
86418W        W29335  20.421   9.505  20.610  0.0043  0.0407  0.0023
86419W        W29336  17.657   9.731  16.665 -0.1083 -0.1845  0.1108
86420W        W29337  22.111  10.762  20.781  0.1531 -0.1035  0.3410
86421W        W29338  20.625   8.241  15.418  0.4624 -0.1427 -0.2276
86422W        W29339  21.270   6.443  20.873  0.0636  0.1668  0.1098
86423W        W29340  22.504   8.316  16.591  0.1262 -0.0298  0.0694
86424W        W29341  20.963   7.393  15.513  0.2935  0.0381  0.0195
86425W        W29342  18.877   7.393  18.799  0.0381  0.1740  0.3766
86426W        W29343  21.019   9.073  20.041  0.1673 -0.0436 -0.2243
86427W        W29344  19.346   7.099  16.357  0.1977  0.1102 -0.2899
86428W        W29345  20.609   7.533  18.957  0.1313  0.5328 -0.0254
86429W        W29346  20.366   8.930  16.848  0.1306 -0.1541  0.1363
86430W        W29347  19.142   7.891  18.690  0.1619 -0.1412 -0.1021
86431W        W29348  20.081   7.471  17.140  0.1315  0.2296  0.2194
86432W        W29349  18.297   6.671  17.926  0.2227 -0.2583 -0.1658
86433W        W29350  19.045  10.257  18.248 -0.1010 -0.2269 -0.0112
86434W        W29351  17.754   7.874  15.916 -0.3780 -0.1397  0.0747
86435W        W29352  19.220   8.008  16.228 -0.0027  0.0078 -0.1464
86436W        W29353  22.385  10.004  19.335 -0.1604  0.1353  0.0724
86437W        W29354  19.585   9.104  20.163  0.1395 -0.0964  0.0430
86438W        W29355  21.484   6.820  15.660  0.1702  0.1099  0.1451
86439W        W29356  21.850   9.611  19.976  0.0393  0.1353  0.3863
86440W        W29357  18.470  10.163  16.892  0.0007  0.0851  0.1188
86441W        W29358  21.871   6.795  16.470 -0.0189 -0.0268 -0.0400
86442W        W29359  18.891   6.929  18.088  0.1455  0.0120 -0.0941
86443W        W29360  16.856   9.554  18.298  0.2549  0.0106  0.2624
86444W        W29361  19.320  10.877  19.344 -0.0603  0.0520 -0.1110
86445W        W29362  21.739   7.849  19.189 -0.0688  0.2146 -0.0989
86446W        W29363  20.666   8.399  18.296 -0.2317 -0.1286  0.2877
86447W        W29364  18.251  10.068  17.415  0.1034  0.0461 -0.0726
86448W        W29365  19.970   8.930  18.040  0.2420 -0.0074 -0.3606
86449W        W29366  20.533   8.847  18.800 -0.1575 -0.1233 -0.0303
86450W        W29367  19.168  10.071  17.213  0.0974  0.1476  0.5073
86451W        W29368  19.054   9.580  18.858 -0.2660  0.0338 -0.1176
86452W        W29369  21.647  11.273  15.984 -0.1690 -0.0736  0.0382
86453W        W29370  19.035   9.700  18.343  0.1768  0.2189  0.0026
86454W        W29371  18.091   7.584  17.862  0.1962 -0.2860 -0.0996
86455W        W29372  21.721   8.400  19.295 -0.1942 -0.2031  0.1050
86456W        W29373  18.525   7.002  19.189 -0.1118 -0.0674  0.0000
86457W        W29374  19.496   5.745  16.456  0.0526 -0.0545 -0.1177
86458W        W29375  18.118   9.581  18.385  0.1336 -0.0170  0.2422
86459W        W29376  19.085  10.089  19.228 -0.1080  0.1655 -0.1511
86460W        W29377  17.226   7.980  18.032  0.1585 -0.0463  0.1853
86461W        W29378  19.802   9.707  16.802 -0.0206  0.2921 -0.2003
86462W        W29379  21.354  10.137  16.563 -0.3150  0.1679  0.0676
86463W        W29380  20.034   9.318  17.729  0.0725 -0.0455  0.0804
86464W        W29381  21.128   9.775  18.212 -0.3289 -0.0740 -0.2565
86465W        W29382  19.529   7.741  15.968 -0.2946 -0.1581  0.0517
86466W        W29383  18.192   8.642  17.960 -0.1915  0.2854  0.0146
86467W        W29384  18.627   9.884  18.166 -0.0292 -0.0242  0.1033
86468W        W29385  18.665  12.376  18.263 -0.0216  0.0263  0.0962
86469W        W29386  18.886  11.282  18.057 -0.0260  0.3547 -0.1787
86470W        W29387  22.437  11.790  20.069  0.1606  0.1125 -0.1579
86471W        W29388  22.005   7.222  16.592  0.3697 -0.2010 -0.3594
86472W        W29389  22.345   9.047  17.752 -0.2399  0.0790  0.0836
86473W        W29390  21.023   7.240  16.287 -0.2371 -0.0701 -0.2279
86474W        W29391  21.551  11.294  20.598  0.2230  0.1968  0.0661
86475W        W29392  20.846   7.445  17.370  0.0353  0.2513  0.1461
86476W        W29393  19.781   6.954  16.358  0.1661 -0.7573  0.0666
86477W        W29394  20.591   9.325  19.011  0.1199 -0.3581 -0.2236
86478W        W29395  22.214   7.131  19.748  0.0085 -0.0328 -0.0116
86479W        W29396  19.335   8.751  20.491  0.0078 -0.0881 -0.2189
86480W        W29397  20.431  11.817  16.263  0.0801 -0.2178  0.0409
86481W        W29398  18.239   5.782  18.458 -0.0322  0.0729  0.3289
86482W        W29399  19.080   6.986  18.578  0.0605 -0.1077 -0.0097
86483W        W29400  21.115   6.043  17.558 -0.0115 -0.0282  0.3292
86484W        W29401  19.828   9.728  15.983 -0.1014 -0.1133 -0.3295
86485W        W29402  20.326   6.692  17.038 -0.0353  0.0635 -0.5124
86486W        W29403  21.401   8.377  17.667  0.0222 -0.5222  0.1810
86487W        W29404  17.798   9.388  17.057 -0.1372  0.1426 -0.0241
86488W        W29405  20.892  10.758  18.159 -0.3782 -0.2801 -0.0043
86489W        W29406  17.049   5.413  17.728 -0.0746  0.2060  0.0812
86490W        W29407  21.547   8.770  17.326  0.2895 -0.2403 -0.0996
86491W        W29408  21.334   8.720  18.431  0.1426 -0.3569  0.3177
86492W        W29409  20.919   6.515  17.830 -0.2916 -0.2309 -0.0152
86493W        W29410  20.292   8.098  18.187 -0.2436 -0.0227 -0.1888
86494W        W29411  21.167   9.187  15.691  0.0628  0.0173 -0.0971
86495W        W29412  22.132   9.466  18.115 -0.2509 -0.1214 -0.1794
86496W        W29413  18.652   8.399  17.115  0.2070  0.2218  0.0477
86497W        W29414  19.286   7.882  16.736  0.0625 -0.1688  0.0357
86498W        W29415  22.549  10.439  20.846 -0.0023 -0.0106  0.0826
86499W        W29416  19.772   8.362  15.439 -0.0335  0.0514 -0.1251
86500W        W29417  20.648  10.387  20.539  0.1292 -0.1180  0.1032
86501W        W29418  19.426   6.924  17.128  0.0741  0.0247  0.0506
86502W        W29419  19.934   6.486  16.433 -0.0559 -0.3754  0.1851
86503W        W29420  17.819  10.296  16.804 -0.0727  0.4460  0.0944
86504W        W29421  18.146  10.080  18.106 -0.1806 -0.0312  0.2075
86505W        W29422  21.834  10.293  19.064 -0.1372  0.3482 -0.3718
86506W        W29423  18.022   6.435  17.059 -0.0843  0.2946 -0.1537
86507W        W29424  21.118  10.295  15.669  0.0894 -0.1594 -0.0343
86508W        W29425  22.065   9.663  20.781 -0.1167 -0.1256  0.0099
86509W        W29426  19.714   9.556  18.017 -0.1257 -0.3380  0.0840
86510W        W29427  19.896  10.877  17.645  0.1475 -0.1350  0.1525
86511W        W29428  20.525   9.434  17.156 -0.1664  0.0745  0.1999
86512W        W29429  16.289   7.344  19.666  0.0484  0.4005 -0.1299
86513W        W29430  18.291   8.163  18.191  0.1662 -0.0657 -0.0912
86514W        W29431  22.164   9.263  21.693  0.1720 -0.3308 -0.0762
86515W        W29432  20.228   8.220  16.638  0.0529 -0.1658 -0.2427
86516W        W29433  18.431   8.186  16.734 -0.1539  0.0166  0.3012
86517W        W29434  18.421   9.656  16.374 -0.0702  0.0281 -0.2047
86518W        W29435  21.679   8.045  18.263 -0.1119 -0.0924  0.0284
86519W        W29436  20.357   9.556  18.063  0.0597  0.1775  0.0076
86520W        W29437  19.640  11.388  17.788  0.0180 -0.3465 -0.5486
86521W        W29438  20.269   7.677  17.958  0.0646  0.1129  0.1007
86522W        W29439  20.881  10.431  17.194 -0.2302 -0.0803  0.1906
86523W        W29440  18.652  12.524  19.105  0.3261 -0.0658 -0.2651
86524W        W29441  18.301   8.697  16.997  0.0584 -0.0375  0.0829
86525W        W29442  20.591   9.316  19.870 -0.2489  0.0909  0.0538
86526W        W29443  19.617  10.002  17.149  0.1986 -0.0164  0.2368
86527W        W29444  19.576  10.597  17.374 -0.2170 -0.1570  0.1154
86528W        W29445  21.838   9.132  17.734 -0.1123 -0.0457 -0.2839
86529W        W29446  19.404   8.557  16.295  0.1758  0.1604 -0.0144
86530W        W29447  20.466   9.672  17.600 -0.0975 -0.0223  0.1932
86531W        W29448  18.795   5.603  17.135 -0.0487 -0.1831  0.0455
86532W        W29449  24.354   6.569  19.579 -0.1977  0.3279  0.2272
86533W        W29450  20.380   5.252  18.889  0.3169  0.0273  0.3303
86534W        W29451  21.220   8.564  21.302  0.1104  0.0973  0.2533
86535W        W29452  17.578  11.197  15.282 -0.1920  0.3194 -0.0534
86536W        W29453  18.663   9.664  16.829  0.1128  0.0380  0.2014
86537W        W29454  16.764  11.866  16.249  0.3821  0.1675  0.2558
86538W        W29455  20.885   8.139  21.114 -0.4185  0.1393  0.2262
86539W        W29456  17.842   9.243  19.220 -0.1251  0.1285 -0.0907
86540W        W29457  18.588   7.271  17.110 -0.1887  0.1622  0.1140
86541W        W29458  18.712   5.971  17.596 -0.1049 -0.0198 -0.0315
86542W        W29459  20.099   9.391  16.932 -0.0028 -0.0565  0.2958
86543W        W29460  17.775   8.299  19.385 -0.2921 -0.0468  0.1060
86544W        W29461  17.476   8.099  19.044  0.2874 -0.1387 -0.0847
86545W        W29462  20.725   8.583  17.006 -0.3552 -0.0004 -0.1487
86546W        W29463  19.969   8.824  18.615  0.0827  0.3547  0.2870
86547W        W29464  18.078   8.063  16.373  0.4907  0.4450 -0.1314
86548W        W29465  22.101  10.197  20.818  0.0551  0.0780 -0.1340
86549W        W29466  18.652   8.312  17.751  0.1722 -0.1010 -0.1933
86550W        W29467  19.478   9.564  20.290  0.2357  0.2468  0.1541
86551W        W29468  17.331   8.464  19.303  0.3282  0.2863 -0.2747
86552W        W29469  17.743   8.841  17.219  0.1423  0.3138 -0.0794
86553W        W29470  18.254   8.071  17.179  0.2817 -0.2941  0.1406
86554W        W29471  21.621   9.671  18.284 -0.0830 -0.3341  0.0369
86555W        W29472  21.705   9.064  18.264 -0.1321 -0.1771  0.0219
86556W        W29473  20.261  10.083  18.481  0.0780 -0.0341  0.0635
86557W        W29474  19.430   9.522  18.521 -0.2996 -0.0564  0.0748
86558W        W29475  17.076   6.537  21.173  0.1861  0.2267  0.3656
86559W        W29476  20.466  11.254  18.306  0.2007 -0.2642  0.0859
86560W        W29477  19.685   8.750  19.216 -0.1605 -0.0539 -0.2541
86561W        W29478  20.938   9.823  16.489 -0.0595 -0.0104  0.2330
86562W        W29479  22.054   9.834  19.024 -0.4623  0.1564  0.0072
86563W        W29480  20.013   7.217  16.008  0.1807 -0.0217 -0.2648
86564W        W29481  19.525   9.034  18.200  0.1252 -0.1092  0.1685
86565W        W29482  17.668   8.960  19.969 -0.0246  0.1072  0.0087
86566W        W29483  21.342   9.713  20.184  0.1236 -0.2359  0.0862
86567W        W29484  19.083   7.448  16.593  0.1244  0.1279 -0.2943
86568W        W29485  22.633   6.137  16.026  0.3267  0.0645 -0.0476
86569W        W29486  20.719   7.711  16.990 -0.1553 -0.2020 -0.1380
86570W        W29487  19.085   8.004  17.931 -0.1695  0.0931 -0.2004
86571W        W29488  18.503   7.291  15.908  0.0745  0.0755 -0.3029
86572W        W29489  22.020   9.386  19.578  0.0643 -0.0167  0.2058
86573W        W29490  21.565   8.581  16.591  0.1312  0.3015  0.0651
86574W        W29491  21.652   9.579  19.048  0.1802  0.2391  0.0076
86575W        W29492  20.408   8.631  16.465 -0.2257  0.1162  0.2900
86576W        W29493  20.704   8.212  15.905  0.1656 -0.0332  0.1322
86577W        W29494  22.039  12.648  18.369  0.1387  0.5150  0.0949
86578W        W29495  20.264  10.652  22.036 -0.0894  0.2196  0.1120
86579W        W29496  18.696  10.455  19.217 -0.2488 -0.1800  0.0663
86580W        W29497  19.199   8.755  16.870 -0.0539 -0.0306 -0.0301
86581W        W29498  19.300   6.703  18.249  0.0644 -0.1091  0.0533
86582W        W29499  19.336   9.075  19.495 -0.2728 -0.2093 -0.1006
86583W        W29500  18.145   8.037  17.651 -0.2546  0.0825  0.2200
86584W        W29501  22.267   9.566  17.577  0.2623  0.0553 -0.0096
86585W        W29502  21.304   8.393  19.573 -0.0053  0.3244  0.1288
86586W        W29503  20.509   7.188  17.061 -0.2326 -0.1548 -0.0737
86587W        W29504  19.552   8.669  17.808 -0.0503 -0.2066  0.0124
86588W        W29505  17.802   8.803  19.499 -0.1521  0.1689 -0.1588
86589W        W29506  20.606  12.034  23.441 -0.0828  0.0517  0.2750
86590W        W29507  20.074   8.226  21.577 -0.2754 -0.0830 -0.3908
86591W        W29508  21.470   7.423  21.154 -0.0034  0.0613 -0.2365
86592W        W29509  21.702   9.338  20.310  0.0362  0.1620  0.1477
86593W        W29510  18.470   7.891  21.506 -0.3821 -0.5083 -0.3805
86594W        W29511  21.148  10.486  20.804 -0.1554 -0.1376  0.0257
86595W        W29512  18.781   7.429  24.566 -0.0720  0.0385 -0.0434
86596W        W29513  21.003   9.130  23.082  0.3570 -0.2725 -0.2904
86597W        W29514  21.991  10.168  22.601  0.2104  0.1379 -0.3649
86598W        W29515  20.681   9.568  22.239 -0.4637  0.0984  0.0949
86599W        W29516  19.128   8.839  24.144 -0.0167  0.1103 -0.2085
86600W        W29517  20.508  10.298  26.220 -0.1320 -0.0052  0.1394
86601W        W29518  18.546   8.291  20.651 -0.0335 -0.3819  0.1036
86602W        W29519  17.882   8.149  21.337 -0.1863 -0.1939  0.0593
86603W        W29520  20.060   8.968  23.500 -0.0957  0.0098 -0.0504
86604W        W29521  17.512   6.602  19.421  0.1048 -0.4285 -0.2322
86605W        W29522  18.663   8.469  24.261  0.0360 -0.1798 -0.0251
86606W        W29523  21.352   8.629  19.088  0.0847  0.1081 -0.3341
86607W        W29524  20.921   8.796  20.492 -0.1310  0.1671  0.2039
86608W        W29525  20.359   8.109  23.756 -0.1873  0.2289  0.3871
86609W        W29526  20.172   6.856  21.699  0.0136 -0.2137  0.0017
86610W        W29527  20.151   9.547  21.185  0.0405 -0.3025  0.3635
86611W        W29528  17.647   8.241  20.422 -0.1041 -0.1432 -0.0909
86612W        W29529  18.189   8.922  20.937 -0.0354 -0.2674 -0.0559
86613W        W29530  18.194   9.425  22.288 -0.0713 -0.0136 -0.1814
86614W        W29531  19.655   8.870  24.998 -0.1118 -0.0201 -0.0987
86615W        W29532  19.144  10.711  23.833 -0.0905 -0.0236  0.0236
86616W        W29533  19.508  11.254  21.894  0.1188 -0.0706  0.0504
86617W        W29534  21.979  10.993  19.549  0.1585  0.1899 -0.2007
86618W        W29535  20.169   8.479  26.002  0.2391  0.1178 -0.3850
86619W        W29536  17.359   9.589  21.131 -0.1677 -0.1764  0.1308
86620W        W29537  18.392  10.397  21.626 -0.1563 -0.1916  0.0058
86621W        W29538  20.236   8.351  18.707 -0.0280 -0.1972  0.0755
86622W        W29539  21.771   8.378  20.626 -0.1590  0.2070  0.3036
86623W        W29540  22.329   8.663  25.438  0.2030 -0.2528  0.2609
86624W        W29541  19.626  11.578  23.622  0.1907  0.0097 -0.2450
86625W        W29542  19.421   9.597  19.286 -0.1338 -0.0767  0.1800
86626W        W29543  21.877   9.745  22.941 -0.0559 -0.0548  0.0943
86627W        W29544  20.003   9.850  24.239 -0.1412 -0.1572 -0.2246
86628W        W29545  19.374   8.803  23.732 -0.0704 -0.2827 -0.3696
86629W        W29546  20.311   8.678  20.724 -0.0763 -0.1384  0.3212
86630W        W29547  21.172   9.952  19.695 -0.1044 -0.1246  0.0873
86631W        W29548  19.417   8.935  21.005  0.1476  0.1609  0.0347
86632W        W29549  18.294  10.468  24.277 -0.1756 -0.0399  0.0487
86633W        W29550  18.231  10.231  22.732  0.1581  0.2975  0.0774
86634W        W29551  21.308   8.248  22.048 -0.0914 -0.1444  0.0264
86635W        W29552  17.833  10.082  19.664  0.2655 -0.1996 -0.0438
86636W        W29553  20.030   9.228  20.399  0.0122  0.0144  0.2887
86637W        W29554  18.107   7.651  19.548  0.1427  0.1598  0.1660
86638W        W29555  19.537  10.225  21.464 -0.1129 -0.1443  0.2448
86639W        W29556  19.106   6.360  22.142  0.1799  0.0541  0.3148
86640W        W29557  20.154   9.343  21.669 -0.1142  0.1105  0.2852
86641W        W29558  18.806   9.183  25.052  0.1358 -0.1960  0.2448
86642W        W29559  20.731   9.383  23.640 -0.0797  0.2650 -0.3047
86643W        W29560  18.349   9.749  21.883 -0.0805  0.0454 -0.0617
86644W        W29561  20.855   8.030  24.537  0.0891 -0.0065  0.0849
86645W        W29562  18.908   9.936  23.216 -0.1436  0.2702  0.1374
86646W        W29563  20.630   7.406  20.151  0.1759 -0.2289  0.2542
86647W        W29564  20.505  10.349  18.819 -0.1674 -0.0050  0.3963
86648W        W29565  22.560  10.702  21.287  0.0700 -0.2445  0.1081
86649W        W29566  21.475  10.067  21.462  0.2513  0.1209  0.2803
86650W        W29567  18.169   7.449  21.582 -0.3308 -0.2400 -0.0068
86651W        W29568  18.601   9.601  25.191  0.3149  0.0294 -0.3627
86652W        W29569  20.998   9.833  23.796  0.2611 -0.0472 -0.1627
86653W        W29570  19.400   8.453  20.072  0.2838 -0.1291  0.4667
86654W        W29571  20.534   8.624  22.558 -0.0633 -0.0818 -0.0331
86655W        W29572  17.533  10.123  22.154 -0.2485  0.0628 -0.4201
86656W        W29573  20.796   8.688  20.948 -0.1286 -0.2272 -0.0772
86657W        W29574  20.523  10.207  23.700 -0.4543  0.0042 -0.0610
86658W        W29575  22.876  10.507  23.897  0.2958 -0.1646 -0.1247
86659W        W29576  20.922   8.506  18.737  0.2780 -0.1239  0.2082
86660W        W29577  19.931   9.873  21.618  0.2826 -0.3052  0.2414
86661W        W29578  20.444   8.478  23.440 -0.3915 -0.3995  0.3333
86662W        W29579  19.914   7.821  17.518 -0.1132  0.0297  0.0692
86663W        W29580  17.674  10.665  18.645 -0.1484  0.1005 -0.1660
86664W        W29581  19.742   8.883  23.075  0.0231 -0.2401 -0.0628
86665W        W29582  19.307   8.456  21.817  0.2910  0.0702 -0.0962
86666W        W29583  18.771  10.782  22.584  0.0608 -0.2590 -0.0117
86667W        W29584  19.872   8.997  23.966 -0.2464  0.0287  0.0139
86668W        W29585  20.113   9.185  22.161 -0.4668  0.1025  0.1913
86669W        W29586  18.433  10.047  18.545  0.0953 -0.2168 -0.1968
86670W        W29587  19.985   9.742  22.943 -0.1439 -0.2618  0.0008
86671W        W29588  17.370   9.409  20.137 -0.1797  0.1295 -0.2459
86672W        W29589  15.466   6.347  20.374 -0.1340  0.0083  0.0116
86673W        W29590  19.302   9.314  22.607 -0.0143  0.0562 -0.1655
86674W        W29591  20.418   7.849  21.486  0.2123  0.0417  0.2741
86675W        W29592  17.846   8.436  24.098  0.0670  0.3338  0.4473
86676W        W29593  20.541   6.795  22.323 -0.0294 -0.5147 -0.2720
86677W        W29594  19.427  10.506  24.236  0.0385 -0.2836 -0.1181
86678W        W29595  20.379   8.833  21.207 -0.1706 -0.4107  0.2097
86679W        W29596  20.916   7.718  23.958 -0.1356 -0.3883  0.3466
86680W        W29597  20.448  10.325  18.036  0.2742  0.0219  0.0489
86681W        W29598  18.600   8.666  22.588 -0.0568 -0.1037  0.1592
86682W        W29599  18.988   9.399  23.245  0.4400  0.1362  0.1082
86683W        W29600  18.084   9.575  22.983 -0.2552  0.2169 -0.1860
86684W        W29601  18.325   8.370  22.916  0.0330  0.1413  0.0098
86685W        W29602  19.741   9.540  23.913  0.2501  0.1204 -0.1096
86686W        W29603  17.591   7.505  19.845 -0.1715  0.1477  0.0553
86687W        W29604  20.115   8.266  24.266  0.0698  0.1150 -0.1805
86688W        W29605  20.687   9.154  20.814  0.0626  0.4745 -0.3029
86689W        W29606  17.598   7.364  20.717 -0.1863 -0.0789 -0.0345
86690W        W29607  22.691   6.962  22.009  0.1433 -0.2073 -0.1663
86691W        W29608  22.393   8.818  21.878 -0.1643  0.0869  0.0834
86692W        W29609  22.013  10.817  24.333 -0.0098  0.1555 -0.0954
86693W        W29610  21.198   9.117  21.002 -0.0182  0.1850  0.0304
86694W        W29611  19.624   8.841  26.216 -0.1344 -0.0855 -0.0809
86695W        W29612  16.500   6.480  20.748  0.0424  0.0208  0.1045
86696W        W29613  18.566  10.552  23.048 -0.0310  0.2024  0.3311
86697W        W29614  18.626  10.783  20.962 -0.0627  0.0397 -0.1975
86698W        W29615  19.498   6.157  19.981  0.0238 -0.1435  0.1759
86699W        W29616  22.897   9.584  20.702 -0.0217  0.1033 -0.2707
86700W        W29617  20.162   9.454  23.557  0.0536 -0.2421  0.0520
86701W        W29618  19.994  10.704  23.322 -0.4604 -0.1863 -0.6489
86702W        W29619  21.214   7.834  23.490  0.0588  0.0847  0.0875
86703W        W29620  19.654   9.197  23.520 -0.0210 -0.3175  0.2660
86704W        W29621  19.049   9.146  21.646 -0.0901 -0.0291  0.2171
86705W        W29622  19.681   8.808  19.743 -0.2214  0.1424 -0.2468
86706W        W29623  19.907  10.292  22.002  0.0437  0.1571  0.3432
86707W        W29624  17.491  10.333  20.883  0.0212  0.2641 -0.0156
86708W        W29625  18.068   8.434  20.750  0.0144  0.1310 -0.1602
86709W        W29626  20.478  10.172  24.230  0.1653 -0.0423 -0.2144
86710W        W29627  21.672   9.124  24.869  0.0841 -0.3429 -0.0744
86711W        W29628  16.931   9.982  23.315 -0.0407  0.1966 -0.1448
86712W        W29629  21.057   7.145  25.500  0.0094 -0.3847 -0.2317
86713W        W29630  18.132   7.977  20.474 -0.1030  0.1374  0.0195
86714W        W29631  20.854  11.217  23.821 -0.1086 -0.3043 -0.0855
86715W        W29632  22.356   7.605  20.096  0.2579 -0.0440 -0.0036
86716W        W29633  22.528   7.750  19.625 -0.0815  0.3731  0.1142
86717W        W29634  18.956  11.030  25.394  0.0322 -0.0087  0.1908
86718W        W29635  21.764   9.951  20.401  0.1348 -0.0173  0.3151
86719W        W29636  20.352   9.037  19.390  0.0698 -0.1459  0.1194
86720W        W29637  19.791   8.466  21.893 -0.1918  0.1896  0.0346
86721W        W29638  18.810   7.196  22.069  0.0778  0.0752  0.1965
86722W        W29639  20.653   9.331  21.742 -0.1320  0.1166 -0.2258
86723W        W29640  21.210   8.718  24.047  0.2309  0.3068 -0.2514
86724W        W29641  18.436   8.205  21.891  0.0299 -0.0066 -0.3237
86725W        W29642  23.293   9.098  22.281 -0.1335  0.1540 -0.0635
86726W        W29643  19.712   8.895  22.088  0.0148 -0.1527 -0.0562
86727W        W29644  20.901   8.612  23.648 -0.1798 -0.0488 -0.0714
86728W        W29645  21.419   9.609  20.723  0.2248 -0.0543  0.0672
86729W        W29646  18.787   8.214  22.727 -0.2664 -0.1197  0.0116
86730W        W29647  18.915   9.170  19.183  0.2776  0.0031  0.0757
86731W        W29648  20.208   7.161  20.211  0.3991  0.1332  0.1655
86732W        W29649  18.501   9.128  21.751  0.0899 -0.2493 -0.0575
86733W        W29650  19.313   6.901  22.641 -0.0420 -0.1377  0.0247
86734W        W29651  19.402   7.999  22.033  0.2328  0.0356 -0.0300
86735W        W29652  20.423   6.010  23.838 -0.0938 -0.2536 -0.2637
86736W        W29653  19.905   7.358  24.048  0.2436 -0.0902 -0.1987
86737W        W29654  20.516   9.117  20.315 -0.0679 -0.1862 -0.3914
86738W        W29655  19.849   8.092  23.588 -0.0639 -0.0034 -0.1878
86739W        W29656  19.074   7.850  21.518  0.1882  0.4716 -0.0007
86740W        W29657  20.346   7.266  24.359  0.0695  0.0330 -0.1154
86741W        W29658  16.645  10.754  21.945 -0.0108 -0.1917 -0.0311
86742W        W29659  19.623  10.430  22.913  0.2005 -0.1132 -0.2695
86743W        W29660  21.641   9.299  21.964  0.0388  0.0234  0.3006
86744W        W29661  20.831  10.590  19.162 -0.0353  0.0267 -0.0848
86745W        W29662  19.955   6.674  24.557 -0.1387  0.1645  0.0396
86746W        W29663  19.747   7.411  21.127 -0.0322 -0.1320  0.2836
86747W        W29664  19.807   9.869  18.541  0.2014  0.0558 -0.1591
86748W        W29665  19.487   9.447  23.093  0.2050 -0.2538 -0.2830
86749W        W29666  20.027   7.918  22.749  0.1062  0.0470  0.0569
86750W        W29667  21.143   9.510  23.356  0.1207 -0.1525 -0.1319
86751W        W29668  19.496  10.357  19.122 -0.0517 -0.0129 -0.3044
86752W        W29669  21.318   9.501  24.065  0.0976  0.1259 -0.2453
86753W        W29670  18.055  11.229  22.267  0.0504  0.2541 -0.2743
86754W        W29671  19.917   7.810  21.310  0.0996 -0.0749  0.1623
86755W        W29672  21.334  11.767  22.548  0.2143 -0.0537 -0.3555
86756W        W29673  19.050   8.328  20.829  0.2496 -0.1702  0.0266
86757W        W29674  19.230  10.367  21.874 -0.0854  0.1162 -0.1062
86758W        W29675  19.365   6.898  22.160 -0.1287  0.0308 -0.0684
86759W        W29676  21.341   8.660  20.739 -0.1084 -0.0044 -0.1132
86760W        W29677  18.844   8.873  24.551 -0.0602  0.0196  0.4032
86761W        W29678  19.145   8.336  24.399  0.1374  0.1012 -0.2139
86762W        W29679  19.728  10.557  22.401 -0.1347  0.1544 -0.0946
86763W        W29680  20.189   9.250  23.070 -0.0248 -0.0188 -0.0836
86764W        W29681  20.624   7.277  21.585  0.2039  0.0222  0.1039
86765W        W29682  21.075   8.356  22.641 -0.3062 -0.0901 -0.0884
86766W        W29683  21.704   8.565  23.724 -0.0507  0.1873 -0.2468
86767W        W29684  18.773   9.604  21.476  0.0872 -0.0546 -0.1414
86768W        W29685  20.886   8.603  23.038 -0.0664  0.0123  0.1638
86769W        W29686  18.837   9.512  20.955 -0.5116  0.0253  0.0342
86770W        W29687  19.740  10.484  20.098 -0.3701 -0.1417 -0.3614
86771W        W29688  20.048   8.545  23.825 -0.0848  0.0266 -0.0410
86772W        W29689  19.517   8.282  20.530 -0.0658 -0.1930  0.1881
86773W        W29690  19.477   8.828  22.667 -0.0787  0.1251 -0.0697
86774W        W29691  21.114   7.348  25.013 -0.1863 -0.1195  0.3327
86775W        W29692  20.422   8.159  22.393  0.1513 -0.0411 -0.4093
86776W        W29693  19.581   8.095  21.588 -0.0579 -0.0594 -0.2313
86777W        W29694  17.453   6.805  20.387 -0.1049  0.3747  0.0746
86778W        W29695  18.903  10.003  20.846 -0.3303  0.0528 -0.1645
86779W        W29696  21.517   7.246  23.342 -0.1656  0.1335  0.2273
86780W        W29697  20.276   9.501  24.997 -0.1833  0.2676  0.0511
86781W        W29698  18.696  10.397  23.568  0.2347 -0.0322  0.1493
86782W        W29699  20.519   6.415  24.949 -0.0877  0.2521 -0.2567
86783W        W29700  21.802  12.605  21.292 -0.1498  0.2342 -0.0886
86784W        W29701  22.725   9.573  24.677  0.0251  0.1242 -0.0920
86785W        W29702  21.627  10.445  20.714 -0.0702 -0.1149  0.0915
86786W        W29703  18.909   9.065  22.844 -0.1826 -0.0042  0.1409
86787W        W29704  19.680   9.331  20.803  0.5013 -0.3168  0.0165
86788W        W29705  19.424   7.803  21.154  0.1080 -0.2787 -0.2136
86789W        W29706  19.238   8.858  22.042 -0.2800  0.0853 -0.0454
86790W        W29707  18.771   9.514  21.967 -0.4495 -0.0208  0.0737
86791W        W29708  19.842  10.198  23.313  0.1353  0.0164  0.2988
86792W        W29709  22.459   8.045  20.599 -0.0766 -0.1063  0.3097
86793W        W29710  21.129   9.450  19.669 -0.0140 -0.0313 -0.3099
86794W        W29711  20.395   7.653  21.948  0.0262  0.2041 -0.1703
86795W        W29712  19.952   6.453  22.545  0.0859 -0.5664 -0.3301
86796W        W29713  20.983   9.599  21.011  0.0748 -0.1828 -0.1477
86797W        W29714  21.089   7.396  23.186  0.0446 -0.0130  0.1079
86798W        W29715  17.958   7.808  22.565 -0.1772 -0.3527 -0.1837
86799W        W29716  21.035   7.938  23.036  0.0122 -0.1681 -0.0278
86800W        W29717  19.429   8.432  23.050  0.3959 -0.0357  0.1276
86801W        W29718  21.044  10.476  23.277 -0.0716  0.1205 -0.3096
86802W        W29719  18.805  10.474  24.737  0.1166 -0.1182 -0.1811
86803W        W29720  19.477   6.686  20.788 -0.0179 -0.0424 -0.1821
86804W        W29721  16.227   7.676  19.286  0.2020  0.1167 -0.1008
86805W        W29722  20.558   9.070  22.328 -0.2276  0.0522  0.0721
86806W        W29723  21.967  10.620  23.481  0.1674 -0.0279 -0.2624
86807W        W29724  21.651   9.165  20.789 -0.0527  0.4441 -0.0446
86808W        W29725  20.865   8.960  21.429 -0.1719 -0.0089 -0.1242
86809W        W29726  20.487   8.160  21.921 -0.3509  0.3623  0.1710
86810W        W29727  19.950  10.403  18.713  0.1447  0.0725 -0.1410
86811W        W29728  20.799   9.788  19.987  0.2283  0.0014  0.0193
86812W        W29729  19.778  10.779  21.867 -0.5221 -0.3758  0.0228
86813W        W29730  20.440   8.096  24.737  0.1339  0.1471 -0.2984
86814W        W29731  22.866  10.012  22.050 -0.1017 -0.1165  0.2566
86815W        W29732  20.978   8.964  22.069  0.1227 -0.2361  0.0665
86816W        W29733  19.388   7.953  23.567 -0.2592  0.1644  0.2293
86817W        W29734  20.148   8.590  26.497 -0.0740  0.0090 -0.0658
86818W        W29735  20.512   8.317  25.255  0.2424  0.3105  0.1017
86819W        W29736  18.312   7.357  24.765  0.1154 -0.0398  0.0206
86820W        W29737  20.794  11.053  25.632  0.4468 -0.0890  0.0428
86821W        W29738  20.209   7.659  20.486  0.1322 -0.2141  0.2414
86822W        W29739  22.447   7.536  24.471  0.0886  0.0684  0.1238
86823W        W29740  20.663   8.266  20.642 -0.0450 -0.3768  0.0615
86824W        W29741  21.584   8.841  20.327 -0.1616 -0.1606  0.2854
86825W        W29742  17.883  10.543  23.077  0.0848 -0.2037 -0.2546
86826W        W29743  20.314  11.059  23.407 -0.5536  0.1780 -0.0754
86827W        W29744  20.851   7.003  20.040  0.1296  0.1660  0.4279
86828W        W29745  20.867   6.091  23.068  0.0107 -0.0177 -0.2736
86829W        W29746  21.743  10.904  20.311 -0.1632  0.0414  0.2623
86830W        W29747  21.647   7.893  21.762 -0.0177  0.1266  0.5576
86831W        W29748  20.142   8.681  22.207 -0.1025  0.1956 -0.1511
86832W        W29749  16.526   7.413  20.710 -0.2167 -0.0318  0.1623
86833W        W29750  17.023  10.041  22.628 -0.1153 -0.1331 -0.1115
86834W        W29751  18.827   8.690  20.355 -0.0742  0.2704  0.0859
86835W        W29752  20.043   8.816  21.666 -0.1668 -0.1211 -0.0155
86836W        W29753  19.716   8.626  24.404 -0.0327 -0.2789  0.0940
86837W        W29754  21.030   9.473  24.644  0.3275 -0.2690  0.1668
86838W        W29755  18.709   6.672  18.837  0.3814 -0.2324 -0.3331
86839W        W29756  21.893   8.267  25.092  0.1843 -0.2363  0.0605
86840W        W29757  19.602  10.001  20.169  0.0064  0.3549 -0.1552
86841W        W29758  20.337   9.476  22.614  0.0143 -0.1154  0.1782
86842W        W29759  20.242  10.856  22.932 -0.1974  0.0643  0.2094
86843W        W29760  19.065   8.597  22.472  0.1590  0.1315  0.0235
86844W        W29761  18.136   9.418  20.825 -0.3531  0.0067 -0.3086
86845W        W29762  19.848   5.573  23.285 -0.2582  0.0770  0.2198
86846W        W29763  20.517   8.170  22.896  0.0646  0.0214 -0.0102
86847W        W29764  18.959  10.940  21.250 -0.2877 -0.0329 -0.1017
86848W        W29765  21.967   9.791  23.820  0.1706  0.3318  0.0981
86849W        W29766  21.812   9.708  24.856  0.0951  0.0188 -0.2843
86850W        W29767  19.387  10.806  22.124  0.1327  0.0436  0.2074
86851W        W29768  21.780   9.301  24.407  0.0213  0.0428  0.3986
86852W        W29769  22.452   8.773  21.377 -0.1630  0.1434  0.2222
86853W        W29770  19.292   9.722  23.527 -0.2391  0.0003  0.1918
86854W        W29771  15.800   9.437  23.755  0.1950 -0.1804 -0.0426
86855W        W29772  19.734   9.781  25.988 -0.2851  0.5051 -0.2387
86856W        W29773  22.435   8.242  23.369  0.0382 -0.1069  0.1764
86857W        W29774  17.751   7.680  20.349  0.1194 -0.2085 -0.1590
86858W        W29775  19.925   8.598  20.215 -0.1275  0.0530  0.0512
86859W        W29776  18.091  10.757  22.123  0.2146 -0.2129 -0.2797
86860W        W29777  18.551   9.701  24.223 -0.1199 -0.0488 -0.0947
86861W        W29778  18.020  10.202  21.170 -0.1169 -0.4838 -0.4249
86862W        W29779  22.070  10.047  21.292 -0.1720 -0.0490  0.4356
86863W        W29780  18.696  10.119  20.411 -0.1391  0.1774  0.0415
86864W        W29781  20.715  10.342  22.871  0.0051 -0.1116  0.0872
86865W        W29782  19.959   9.704  20.197  0.0047  0.3351  0.1308
86866W        W29783  17.632   9.149  20.980  0.0636 -0.2641  0.1741
86867W        W29784  16.104   8.495  19.195  0.2661  0.0530 -0.0122
86868W        W29785  20.207  10.319  21.326  0.2595 -0.0942  0.1928
86869W        W29786  19.159   9.378  20.598  0.1544 -0.1059  0.2854
86870W        W29787  21.675   8.817  24.473  0.1778  0.0277  0.0050
86871W        W29788  21.679   7.181  20.122  0.0314 -0.4170 -0.0303
86872W        W29789  21.246   9.173  20.540  0.0773  0.0765  0.0736
86873W        W29790  21.438   9.058  21.601  0.0798  0.1990 -0.1449
86874W        W29791  21.576  11.858  24.287 -0.0307 -0.2913 -0.0919
86875W        W29792  19.338   8.382  21.250 -0.1100  0.1446 -0.1010
86876W        W29793  17.376   9.906  19.815 -0.1233  0.1084  0.0078
86877W        W29794  20.027   9.936  23.750  0.1609  0.4518 -0.3661
86878W        W29795  20.829   7.060  24.702  0.2361  0.3629  0.0458
86879W        W29796  18.188  12.304  20.029 -0.1558  0.0495  0.0628
86880W        W29797  21.374   9.580  22.877  0.2567 -0.2974  0.2041
86881W        W29798  19.856  10.004  21.113  0.1691  0.1325  0.0900
86882W        W29799  18.391   7.653  22.062 -0.0807 -0.1785 -0.0852
86883W        W29800  23.646   6.054  21.008 -0.3295  0.0444 -0.1201
86884W        W29801  18.542  10.395  18.145  0.0786 -0.0565 -0.1107
86885W        W29802  18.240   5.823  21.318 -0.0898 -0.0154  0.2177
86886W        W29803  20.250  10.120  22.289 -0.1230  0.0374 -0.2407
86887W        W29804  20.555  10.298  19.947 -0.1399  0.0795  0.0568
86888W        W29805  19.166  11.328  22.408 -0.3620 -0.1382 -0.1658
86889W        W29806  16.462   8.180  19.196  0.0019  0.0851  0.2096
86890W        W29807  20.389   8.338  21.110  0.0521 -0.0758 -0.2527
86891W        W29808  20.809   9.493  24.197 -0.1991 -0.0777  0.0297
86892W        W29809  19.503   6.330  23.756 -0.0945  0.3716  0.0103
86893W        W29810  19.075   9.680  22.826 -0.5152 -0.0307  0.1311
86894W        W29811  19.937   8.577  21.224 -0.1963  0.2150  0.0131
86895W        W29812  22.105   7.486  22.229  0.5089  0.1086  0.0911
86896W        W29813  18.788   7.917  21.022  0.1280 -0.0712  0.1438
86897W        W29814  19.732  10.678  20.682  0.3103  0.1443  0.0606
86898W        W29815  20.603   9.280  24.671  0.0590  0.2135 -0.0813
86899W        W29816  21.754   8.248  19.849  0.2538 -0.0734  0.3565
86900W        W29817  21.635   8.113  23.412 -0.2004  0.0011  0.3363
86901W        W29818  19.984   8.076  22.160  0.2676  0.1230  0.3065
86902W        W29819  19.533   9.418  22.197 -0.5308 -0.2519 -0.0976
86903W        W29820  19.686   8.549  23.445 -0.1969  0.3773  0.1074
86904W        W29821  19.432   7.480  23.912 -0.1174  0.4328  0.1096
86905W        W29822  20.790  11.845  24.445 -0.4179  0.0147  0.0922
86906W        W29823  15.365   7.113  20.500  0.1713  0.0333 -0.1701
86907W        W29824  20.365  10.035  19.513 -0.0642 -0.1099  0.0109
86908W        W29825  20.788   8.358  21.567 -0.2447  0.1369  0.0358
86909W        W29826  19.697  11.712  19.573  0.2217 -0.0560  0.1628
86910W        W29827  19.849   9.414  22.604  0.2569 -0.0502 -0.1135
86911W        W29828  20.679   6.866  21.813 -0.4700 -0.1402 -0.3721
86912W        W29829  17.875   9.298  22.615 -0.1323  0.1830  0.5147
86913W        W29830  21.994   8.816  22.901 -0.1959  0.1622  0.6221
86914W        W29831  19.390  10.831  21.529 -0.0511  0.0487  0.0473
86915W        W29832  19.960   6.726  22.158 -0.3270  0.0988 -0.0180
86916W        W29833  17.662   6.683  21.967  0.0583  0.3094 -0.2335
86917W        W29834  17.764   9.977  20.205 -0.1727  0.1770  0.2243
86918W        W29835  21.524   6.251  23.669 -0.3440 -0.1171 -0.2668
86919W        W29836  21.385   9.132  25.958 -0.0124 -0.0763  0.0623
86920W        W29837  20.451   9.971  20.880 -0.2272  0.0206 -0.1398
86921W        W29838  19.271   7.457  22.823  0.2111  0.0490  0.0862
86922W        W29839  20.198  10.500  22.642  0.1068 -0.1067  0.1261
86923W        W29840  20.411  10.215  24.694  0.2223  0.0963 -0.1192
86924W        W29841  17.461   8.135  18.485  0.1653 -0.1466  0.0409
86925W        W29842  19.593  10.540  25.162 -0.0889  0.0632  0.0212
86926W        W29843  19.663   9.575  21.244 -0.1335  0.3111  0.0999
86927W        W29844  20.262  10.829  19.904  0.0917  0.0378  0.1863
86928W        W29845  22.435  10.067  21.843 -0.3090  0.0536  0.1490
86929W        W29846  19.559   6.591  22.973 -0.0797 -0.1143  0.1445
86930W        W29847  21.848  10.330  23.905  0.0255 -0.1389  0.1906
86931W        W29848  19.347   5.941  21.065 -0.1099 -0.1774 -0.0926
86932W        W29849  20.566   9.085  22.809  0.0327  0.1159  0.1478
86933W        W29850  23.366   7.618  18.500  0.2768 -0.1318  0.3458
86934W        W29851  19.102  10.500  22.998 -0.1948 -0.2425 -0.2412
86935W        W29852  18.980   8.939  20.812  0.2350  0.2899  0.2514
86936W        W29853  19.985   9.732  20.720  0.1964  0.3205  0.0764
86937W        W29854  16.908   8.039  21.777  0.1059 -0.2321  0.2130
86938W        W29855  19.732   7.570  23.019 -0.1647  0.2250 -0.1551
86939W        W29856  21.032   8.674  25.274  0.0290  0.2932 -0.0513
86940W        W29857  19.558   8.393  22.308 -0.0010 -0.0983  0.0914
86941W        W29858  18.397   7.367  21.096 -0.0899 -0.3333 -0.0115
86942W        W29859  19.267   8.982  23.167 -0.0596 -0.2089 -0.0172
86943W        W29860  18.800   7.423  19.321  0.0250  0.0456 -0.1933
86944W        W29861  17.565   8.568  20.837  0.0278 -0.1992  0.0006
86945W        W29862  22.176  10.495  21.589 -0.0706  0.0383 -0.1166
86946W        W29863  21.847   7.970  22.213 -0.1558  0.3513 -0.1440
86947W        W29864  19.719   7.274  22.096 -0.3303 -0.1454 -0.1554
86948W        W29865  19.743   7.061  23.081 -0.1407 -0.1422 -0.1791
86949W        W29866  17.398   8.463  21.270 -0.2991  0.0184  0.1233
86950W        W29867  18.750   7.141  25.036  0.1886 -0.0839 -0.0019
86951W        W29868  18.928   8.285  22.062  0.1565 -0.3739 -0.2248
86952W        W29869  16.607   7.827  20.075  0.1455 -0.1432  0.0624
86953W        W29870  19.516   6.508  21.252  0.0473  0.1804  0.2210
86954W        W29871  22.273  11.231  21.553 -0.1006 -0.0221  0.4036
86955W        W29872  20.576   9.891  21.412 -0.3815 -0.3121  0.2014
86956W        W29873  19.513  10.347  20.993 -0.2815  0.0469 -0.0104
86957W        W29874  22.159   8.809  24.690  0.2322 -0.1895  0.0927
86958W        W29875  19.526   6.201  22.625  0.0026 -0.3288  0.2166
86959W        W29876  21.624   8.889  21.163 -0.1729 -0.0408 -0.0380
86960W        W29877  20.926  10.603  25.976 -0.3915  0.0021  0.0265
86961W        W29878  19.935   9.073  21.241  0.0408  0.1134 -0.1992
86962W        W29879  20.524   7.586  22.504  0.0643 -0.2171 -0.1452
86963W        W29880  21.583   9.482  21.165 -0.0239 -0.1437  0.1480
86964W        W29881  18.313   9.462  21.346 -0.0676 -0.1338  0.2978
86965W        W29882  20.805  10.495  24.470 -0.1145 -0.1887 -0.0872
86966W        W29883  22.165   9.245  23.230 -0.0452  0.2300 -0.1184
86967W        W29884  20.256   7.598  23.824  0.1944  0.0849 -0.1995
86968W        W29885  20.901   9.433  22.655 -0.2967 -0.1691 -0.1668
86969W        W29886  20.207   9.675  19.794 -0.2519  0.2918 -0.2677
86970W        W29887  20.344   9.733  21.909 -0.2667  0.2040 -0.2285
86971W        W29888  21.012   9.016  18.863 -0.0364 -0.2215  0.0180
86972W        W29889  21.097   9.085  23.725  0.0279 -0.0083  0.2507
86973W        W29890  18.466   8.838  23.051  0.0638  0.1184  0.1878
86974W        W29891  20.397  11.900  25.736  0.4623 -0.1451 -0.1481
86975W        W29892  20.141   8.238  20.496 -0.0972 -0.3818 -0.2970
86976W        W29893  21.558   9.210  19.856 -0.1020 -0.1855 -0.2354
86977W        W29894  19.398   9.222  24.197 -0.2162  0.1007 -0.0754
86978W        W29895  20.546  11.127  25.151  0.0431 -0.3263  0.0276
86979W        W29896  20.985   9.872  22.869  0.0908 -0.3538  0.1499
86980W        W29897  20.934   6.912  22.975  0.0837 -0.0908 -0.2349
86981W        W29898  16.736   8.375  22.254 -0.1090  0.1066 -0.1625
86982W        W29899  18.540   6.503  21.048  0.1503  0.1186  0.2148
86983W        W29900  21.217   8.901  19.596  0.0511  0.0835  0.0515
86984W        W29901  19.874  10.091  22.597 -0.2256 -0.0737 -0.2348
86985W        W29902  18.527   8.626  22.125  0.2246  0.0178 -0.1479
86986W        W29903  21.550   9.973  23.675  0.0143 -0.0997 -0.0114
86987W        W29904  20.359  10.351  23.240  0.3534  0.0088  0.2451
86988W        W29905  18.998   8.577  22.988 -0.1910 -0.1180  0.0022
86989W        W29906  19.003  11.159  25.897  0.1836  0.0211  0.0275
86990W        W29907  21.040   9.010  24.868  0.0035 -0.3872 -0.0274
86991W        W29908  21.982   7.400  23.115  0.2552 -0.1300 -0.1021
86992W        W29909  21.322   8.289  25.400  0.1348 -0.1372 -0.1164
86993W        W29910  16.870   6.604  23.247  0.0246 -0.2409 -0.0928
86994W        W29911  19.568  10.094  23.803 -0.2577 -0.1458  0.2096
86995W        W29912  19.234   6.459  27.731 -0.1271  0.0087 -0.1783
86996W        W29913  18.403  10.067  26.498  0.2679  0.0860 -0.0130
86997W        W29914  20.526  10.513  26.692 -0.0224 -0.0022  0.3402
86998W        W29915  21.309   9.122  24.419  0.1843 -0.1288 -0.3042
86999W        W29916  18.750  10.446  27.576 -0.1969  0.2223 -0.2828
87000W        W29917  16.819  10.177  27.579  0.0144 -0.2673 -0.0445
87001W        W29918  18.686   7.957  24.355 -0.1775  0.1059 -0.3276
87002W        W29919  18.893   6.746  25.891 -0.5786 -0.0266  0.3361
87003W        W29920  20.955   8.101  26.855  0.0064 -0.0969  0.3864
87004W        W29921  20.618   8.599  24.655  0.0065  0.3441  0.0995
87005W        W29922  15.620   8.600  24.283 -0.0117 -0.0440 -0.3554
87006W        W29923  19.766   8.124  25.181  0.0012 -0.0191  0.1003
87007W        W29924  21.434  11.783  23.196  0.0513 -0.1419  0.0068
87008W        W29925  18.934   8.206  26.449  0.0071  0.1665 -0.4664
87009W        W29926  20.208   7.521  26.023  0.0861 -0.0167 -0.0935
87010W        W29927  19.237   8.832  25.736  0.0951  0.0882  0.1195
87011W        W29928  17.446   8.829  23.336 -0.2714  0.2433  0.1159
87012W        W29929  16.564   8.965  25.177 -0.2052  0.1250  0.1052
87013W        W29930  18.921   9.626  27.114  0.0259  0.0657  0.0737
87014W        W29931  20.033   7.396  26.807  0.4605 -0.0391  0.0263
87015W        W29932  20.935   7.786  25.396 -0.0651  0.0196  0.0846
87016W        W29933  17.956   9.076  25.721  0.0206  0.0921 -0.0297
87017W        W29934  20.253  12.055  24.243  0.0196 -0.0620  0.4854
87018W        W29935  22.098   9.252  28.065 -0.4084 -0.1551 -0.1884
87019W        W29936  17.831  10.259  23.725  0.3655  0.1179  0.1559
87020W        W29937  17.621  12.063  25.774 -0.0114  0.1710  0.2198
87021W        W29938  18.542   8.357  25.217  0.0934 -0.0453 -0.2230
87022W        W29939  21.145  11.314  24.836  0.1311 -0.2865  0.2088
87023W        W29940  18.285  10.866  26.799  0.0499  0.3602 -0.1519
87024W        W29941  19.116  10.801  27.748 -0.0745 -0.0165 -0.0472
87025W        W29942  16.418   7.348  26.569 -0.1235  0.0957  0.1503
87026W        W29943  20.456   9.625  28.715  0.2314 -0.4218 -0.0877
87027W        W29944  18.373  11.911  28.089 -0.2718 -0.0166 -0.3434
87028W        W29945  19.332   9.765  26.421 -0.2724  0.0301 -0.0451
87029W        W29946  18.660  12.072  25.391  0.0533  0.0187 -0.0043
87030W        W29947  17.018  10.137  26.256 -0.0279  0.0823 -0.3649
87031W        W29948  20.224   9.567  26.820  0.1525  0.4077 -0.1268
87032W        W29949  17.148  10.026  25.794  0.3194 -0.0230 -0.1318
87033W        W29950  16.992  11.337  26.740 -0.2862  0.0300  0.1561
87034W        W29951  21.336   9.657  28.443 -0.0530  0.1103  0.0072
87035W        W29952  20.582   9.566  25.627 -0.0555  0.2777  0.0413
87036W        W29953  19.980   6.775  24.046  0.4653 -0.0457  0.0510
87037W        W29954  21.289   9.218  22.343 -0.3155  0.1178  0.2088
87038W        W29955  20.104   9.075  24.757 -0.3073 -0.3262 -0.2055
87039W        W29956  19.742   9.104  25.459 -0.0197  0.0462 -0.3063
87040W        W29957  18.330  11.087  28.106  0.2705 -0.1526 -0.0423
87041W        W29958  17.685   7.274  23.184 -0.1456  0.1309  0.1629
87042W        W29959  21.541  10.108  28.180 -0.0199 -0.2145  0.5341
87043W        W29960  17.789   8.031  23.777  0.3247  0.2424  0.0237
87044W        W29961  18.298   8.204  27.272  0.0461 -0.1011  0.1774
87045W        W29962  21.450  12.182  26.724 -0.1081 -0.0010 -0.1079
87046W        W29963  16.820   8.680  24.852 -0.1065 -0.5435 -0.2149
87047W        W29964  21.816   9.976  24.384 -0.1815  0.1102  0.0293
87048W        W29965  22.705  11.032  27.546  0.2097  0.1488 -0.1330
87049W        W29966  18.731  11.512  25.255 -0.1445  0.2159  0.0225
87050W        W29967  17.826   8.052  24.730  0.0791  0.0633  0.0229
87051W        W29968  16.481  12.227  24.639 -0.1077 -0.1382  0.2329
87052W        W29969  16.955   8.370  26.317 -0.2147 -0.1025  0.3805
87053W        W29970  19.165   6.272  24.756 -0.1871 -0.0925 -0.4412
87054W        W29971  20.032  10.494  27.832  0.0754 -0.3502 -0.2000
87055W        W29972  15.583  10.882  27.079 -0.1991 -0.0558  0.1456
87056W        W29973  22.639   9.023  24.571  0.1610  0.3998 -0.2080
87057W        W29974  17.950   9.880  26.832  0.2365  0.2235 -0.2055
87058W        W29975  22.231   9.749  26.852  0.0650 -0.0949  0.2112
87059W        W29976  21.085   9.833  25.581  0.1227  0.3070  0.0806
87060W        W29977  17.970   7.678  25.562 -0.0651  0.3455 -0.3241
87061W        W29978  20.219   6.816  27.913  0.0028 -0.0234 -0.1294
87062W        W29979  20.277   9.286  24.036 -0.1158  0.1926 -0.1536
87063W        W29980  21.208  10.796  25.597  0.0521 -0.3274  0.0011
87064W        W29981  19.286   9.991  26.992 -0.0649  0.2040 -0.3099
87065W        W29982  23.557   9.533  24.303 -0.0042 -0.0306 -0.3594
87066W        W29983  18.118  11.353  25.903 -0.1073  0.0971  0.1242
87067W        W29984  17.491   8.060  27.180  0.0876 -0.1676  0.1808
87068W        W29985  18.618  10.774  26.452  0.0787 -0.2265  0.0203
87069W        W29986  18.709   9.485  22.566  0.1415  0.0159  0.0220
87070W        W29987  17.595   9.979  26.044 -0.0600 -0.0246 -0.1259
87071W        W29988  18.027   9.006  24.807  0.0433 -0.2148 -0.2212
87072W        W29989  18.783   6.112  27.542  0.3872 -0.1180 -0.4318
87073W        W29990  18.584   9.814  28.426  0.0906 -0.0118  0.1149
87074W        W29991  21.730   8.567  25.460  0.0516 -0.2836 -0.1247
87075W        W29992  17.801   7.820  27.749 -0.1502  0.0024 -0.1313
87076W        W29993  21.642   6.841  26.139 -0.0463  0.0254 -0.1696
87077W        W29994  18.243   8.944  23.516  0.0784  0.0000  0.1391
87078W        W29995  21.684  12.315  23.964  0.0427  0.3259  0.0853
87079W        W29996  20.928   9.170  26.357 -0.3895 -0.3254 -0.2809
87080W        W29997  18.485   9.586  25.660  0.2036 -0.0544  0.0138
87081W        W29998  17.582   8.490  26.904  0.1368 -0.1041 -0.1230
87082W        W29999  18.108   8.435  24.894  0.1515 -0.1659 -0.0924
87083W        W30000  21.731   6.047  28.408  0.1038  0.1035  0.2539
87084W        W30001  17.469   7.281  25.477 -0.0384  0.0493 -0.1248
87085W        W30002  21.565   8.291  28.311 -0.0237 -0.0771  0.1968
87086W        W30003  17.700  10.852  22.501 -0.0408  0.2213  0.1643
87087W        W30004  20.284   7.998  26.184 -0.1418 -0.1837 -0.2581
87088W        W30005  18.682   7.097  24.090 -0.0046 -0.2110 -0.0291
87089W        W30006  17.435   9.789  24.512 -0.1151 -0.1220  0.0784
87090W        W30007  20.748   6.706  28.119  0.0056  0.0025 -0.3417
87091W        W30008  20.644   9.864  25.216  0.1574  0.0296  0.0657
87092W        W30009  19.530  10.415  26.045  0.1717  0.2321  0.0775
87093W        W30010  19.031   9.775  28.134 -0.1000  0.2706 -0.2028
87094W        W30011  16.328   8.724  26.646 -0.0093 -0.1657 -0.0129
87095W        W30012  18.341   8.467  23.433 -0.1106  0.2255 -0.0727
87096W        W30013  18.491  10.190  25.619  0.1606 -0.2168 -0.2537
87097W        W30014  18.816  10.251  27.136  0.3066 -0.0677  0.0659
87098W        W30015  19.197   9.639  24.052  0.2695 -0.0315 -0.0569
87099W        W30016  19.974  11.247  26.948 -0.1080 -0.0349 -0.0105
87100W        W30017  19.631  10.174  26.561 -0.1032  0.1917  0.1744
87101W        W30018  16.316  10.075  24.582 -0.1804  0.1147 -0.1607
87102W        W30019  21.017   7.034  26.080 -0.3414 -0.0466  0.1505
87103W        W30020  19.746   9.745  26.848  0.1182  0.0201  0.1126
87104W        W30021  19.326   8.399  25.989 -0.0016  0.1754 -0.1120
87105W        W30022  17.423   9.748  22.482 -0.1418  0.0438 -0.1106
87106W        W30023  20.735  11.921  25.419 -0.1447  0.1620 -0.0618
87107W        W30024  19.448  11.064  24.143 -0.2009 -0.0194  0.1907
87108W        W30025  17.936   9.029  24.235  0.0174 -0.1765  0.0522
87109W        W30026  18.639  10.407  26.728  0.0352 -0.0121 -0.2525
87110W        W30027  22.177   7.598  26.132 -0.0003  0.0436  0.2349
87111W        W30028  17.407  11.424  26.466  0.1223  0.0171 -0.0179
87112W        W30029  20.747   8.688  28.525 -0.4221  0.0424  0.1280
87113W        W30030  16.923   9.613  24.193 -0.1718  0.1375 -0.1709
87114W        W30031  17.859  11.749  26.600 -0.0650 -0.0466 -0.1139
87115W        W30032  20.015   9.786  26.410 -0.2053  0.1938 -0.0069
87116W        W30033  20.976   8.175  25.015  0.0074  0.2807 -0.0716
87117W        W30034  18.248   9.818  28.831  0.1372  0.2084 -0.2296
87118W        W30035  23.166   9.952  24.017 -0.2126  0.2753 -0.0072
87119W        W30036  20.105   6.907  23.495  0.2856 -0.0095  0.0130
87120W        W30037  20.051   8.543  24.819 -0.0633  0.2128 -0.0224
87121W        W30038  18.299  11.925  26.843 -0.0721 -0.0735  0.1477
87122W        W30039  17.137   8.771  26.047 -0.1076  0.1050  0.2076
87123W        W30040  18.323   9.113  25.388 -0.2241  0.0333  0.2946
87124W        W30041  21.953   5.529  24.996 -0.0818 -0.1606 -0.2291
87125W        W30042  23.460   7.463  24.402  0.2415 -0.2816 -0.2425
87126W        W30043  17.458  10.569  25.652  0.0025 -0.1180 -0.0206
87127W        W30044  21.756  10.062  27.014  0.0275 -0.0637 -0.0313
87128W        W30045  19.734  10.326  27.074 -0.0800 -0.1814 -0.0458
87129W        W30046  19.259   7.428  26.534 -0.3840 -0.1714 -0.1049
87130W        W30047  18.167   5.269  22.594  0.0184 -0.1430  0.0945
87131W        W30048  17.513   7.747  25.780  0.0961  0.1115 -0.1541
87132W        W30049  19.037   9.835  22.346 -0.1121 -0.1795  0.1213
87133W        W30050  21.947   8.454  27.719  0.3980  0.2041  0.2929
87134W        W30051  20.527   8.901  26.519  0.0219 -0.0019  0.1767
87135W        W30052  18.297   7.890  27.789 -0.5051 -0.3458  0.0659
87136W        W30053  23.932   7.727  28.166  0.2188 -0.2411 -0.0591
87137W        W30054  22.074   7.927  23.192  0.1532  0.2259  0.0890
87138W        W30055  18.884   9.019  27.775  0.0852 -0.0035 -0.4074
87139W        W30056  19.288   9.066  24.729 -0.0258 -0.1175  0.1304
87140W        W30057  20.104   8.070  28.161  0.1701 -0.4365  0.0696
87141W        W30058  17.376  10.522  26.210  0.0769 -0.2609 -0.0241
87142W        W30059  17.817  11.280  27.370  0.1636  0.0065 -0.2085
87143W        W30060  19.944  10.270  25.555  0.3095  0.1275  0.1553
87144W        W30061  20.897  10.364  24.977  0.0727  0.3424 -0.1182
87145W        W30062  19.564   8.495  29.122 -0.0104  0.2516 -0.0142
87146W        W30063  19.663   5.892  24.082 -0.0914 -0.1006 -0.1761
87147W        W30064  19.624   9.676  25.461 -0.0441 -0.2749  0.3046
87148W        W30065  18.870   9.886  26.691  0.1584 -0.0860  0.1501
87149W        W30066  18.401   7.007  26.089 -0.1077  0.0158 -0.2259
87150W        W30067  18.388   8.549  26.332  0.0282 -0.2023  0.2877
87151W        W30068  19.592   8.306  23.920 -0.0096 -0.2135 -0.0683
87152W        W30069  19.293   8.543  26.538 -0.0308  0.0644 -0.0715
87153W        W30070  17.251   8.011  23.676 -0.1697  0.0084  0.3848
87154W        W30071  21.354   8.704  28.562 -0.0868  0.1365  0.0288
87155W        W30072  17.886   9.636  25.305  0.2077  0.3336  0.1026
87156W        W30073  18.014   8.654  22.626 -0.2660  0.3259  0.0033
87157W        W30074  16.666   8.469  22.743  0.0044  0.0566 -0.1757
87158W        W30075  21.605   7.831  25.070 -0.0344 -0.1412 -0.0715
87159W        W30076  19.308   9.344  25.667 -0.1737 -0.2140  0.1008
87160W        W30077  17.162   9.798  27.395 -0.0310 -0.3268  0.1269
87161W        W30078  18.757   7.572  23.142  0.1678  0.1314 -0.0030
87162W        W30079  18.671  11.716  26.623  0.3059 -0.0392  0.3072
87163W        W30080  21.330   8.162  26.405 -0.1252 -0.2300 -0.1509
87164W        W30081  20.208   7.140  26.344  0.2384 -0.2674 -0.4525
87165W        W30082  21.056   8.366  27.368  0.1799  0.0720  0.1266
87166W        W30083  17.946   7.395  27.460 -0.0464 -0.1115 -0.1084
87167W        W30084  15.766   7.430  23.730 -0.2902  0.2582 -0.0226
87168W        W30085  21.895  11.478  26.141 -0.3294 -0.2804  0.1323
87169W        W30086  19.031   7.175  23.691 -0.1620 -0.0605  0.2191
87170W        W30087  18.598  10.357  26.075  0.0645 -0.2560 -0.1646
87171W        W30088  19.813  10.797  25.595  0.3499  0.1200  0.1097
87172W        W30089  20.593   8.135  25.710 -0.2473  0.0623 -0.3175
87173W        W30090  20.585   8.866  25.082  0.2169 -0.1159  0.1852
87174W        W30091  18.777   8.416  27.174  0.0820  0.0873  0.0924
87175W        W30092  18.795   8.705  26.654 -0.0844 -0.1247  0.1996
87176W        W30093  18.861   9.204  26.744 -0.0216 -0.0580 -0.3397
87177W        W30094  18.020   6.837  23.801 -0.1382  0.2361 -0.1098
87178W        W30095  20.516   8.496  26.889  0.1435  0.0476  0.0991
87179W        W30096  21.371   8.443  27.862  0.1151  0.2471 -0.2793
87180W        W30097  18.659   8.208  27.805  0.1152  0.2415  0.0192
87181W        W30098  16.830  11.867  26.244  0.0291 -0.3639 -0.0047
87182W        W30099  17.496   7.669  23.920  0.0298 -0.0134 -0.0449
87183W        W30100  20.126   9.059  26.810  0.4204 -0.0581  0.2279
87184W        W30101  18.231   9.409  26.065  0.1689  0.0332  0.0814
87185W        W30102  18.824   9.250  24.168 -0.1206 -0.1330 -0.0223
87186W        W30103  16.931   9.405  27.192 -0.1398  0.1639 -0.1228
87187W        W30104  17.771  10.186  26.494  0.1837 -0.2388  0.1386
87188W        W30105  18.270   7.909  25.947 -0.1357 -0.1155 -0.0832
87189W        W30106  18.905   9.945  25.424 -0.0184  0.1713 -0.1751
87190W        W30107  16.937   9.053  22.832 -0.2788 -0.2341  0.2283
87191W        W30108  18.436  11.022  26.064 -0.2729  0.1918 -0.1386
87192W        W30109  20.768   6.194  25.282  0.0341 -0.0738 -0.0429
87193W        W30110  21.090  11.797  24.976 -0.0149  0.0405 -0.1680
87194W        W30111  19.730   8.343  26.769  0.0909  0.1432 -0.0403
87195W        W30112  22.360   7.817  27.186  0.1510 -0.0737 -0.0012
87196W        W30113  21.443   8.349  25.911 -0.1510  0.3136  0.1484
87197W        W30114  20.886   8.491  25.711 -0.3032 -0.2088  0.2478
87198W        W30115  19.471   6.852  28.429 -0.2356 -0.2905 -0.1721
87199W        W30116  19.813  10.112  27.589 -0.0980  0.2433 -0.0903
87200W        W30117  18.451   7.612  27.394  0.1343  0.0290 -0.1142
87201W        W30118  18.545   9.609  27.977  0.2068 -0.3464 -0.0377
87202W        W30119  17.284   8.874  28.820  0.1283 -0.0223  0.0431
87203W        W30120  20.376   6.927  24.860  0.0185  0.0300 -0.1871
87204W        W30121  19.550   7.600  24.415  0.0312 -0.1484  0.0708
87205W        W30122  18.121   8.781  27.540  0.1145  0.0125 -0.1904
87206W        W30123  19.219   9.809  25.912  0.1376 -0.3050 -0.2155
87207W        W30124  18.840   7.745  26.255  0.3439  0.0733  0.0499
87208W        W30125  21.235   6.703  26.506 -0.0439  0.1297 -0.0010
87209W        W30126  17.493  11.583  27.703  0.1277  0.0618 -0.0185
87210W        W30127  21.479   7.768  26.062  0.0943  0.0748  0.3148
87211W        W30128  21.226   9.262  25.347  0.0569  0.2136 -0.1385
87212W        W30129  16.562   7.862  26.375  0.0601 -0.0562  0.1557
87213W        W30130  16.707   7.430  28.012  0.1794 -0.1462  0.0540
87214W        W30131  19.427   9.654  27.324 -0.2082  0.0856  0.1278
87215W        W30132  18.873   9.495  24.672 -0.1392  0.2153 -0.1206
87216W        W30133  20.182   6.368  26.876 -0.0891 -0.2883  0.1758
87217W        W30134  19.106  10.716  28.321 -0.2037  0.0553 -0.0687
87218W        W30135  18.454   7.835  26.938  0.0423 -0.0564 -0.2670
87219W        W30136  17.120   8.808  26.995  0.2359  0.5785 -0.0933
87220W        W30137  22.281  11.425  25.257 -0.0785 -0.0865  0.0559
87221W        W30138  20.652   7.597  22.980  0.0278  0.1828  0.0759
87222W        W30139  21.330   9.442  26.426  0.3740 -0.3175 -0.2795
87223W        W30140  20.864   6.712  25.662  0.1079 -0.0527 -0.1960
87224W        W30141  20.316   7.450  24.823 -0.0676  0.2076 -0.3342
87225W        W30142  17.548   7.145  26.083  0.0303 -0.2400  0.2508
87226W        W30143  21.910  10.137  28.621 -0.2302  0.0224  0.0053
87227W        W30144  18.458   7.026  22.444 -0.2199  0.0632 -0.0201
87228W        W30145  19.443   8.641  27.899 -0.2704  0.2309 -0.1759
87229W        W30146  18.621   9.302  23.720  0.1728  0.1539 -0.1626
87230W        W30147  19.354   9.698  24.736  0.1045  0.0227 -0.3565
87231W        W30148  18.409   7.477  26.396 -0.0637 -0.0583 -0.0221
87232W        W30149  16.179   7.962  25.727 -0.2289 -0.2081  0.1580
87233W        W30150  18.485  12.949  25.491  0.0150 -0.1310  0.0615
87234W        W30151  19.112   9.271  23.711 -0.3000 -0.1207 -0.1514
87235W        W30152  17.831   7.955  26.219 -0.3396  0.1130 -0.0575
87236W        W30153  18.684   9.059  26.322  0.1388  0.1902 -0.2362
87237W        W30154  22.820  10.100  28.006  0.0532  0.0229 -0.2700
87238W        W30155  19.239   8.109  22.528  0.0916 -0.0965 -0.0676
87239W        W30156  23.496   9.523  25.182  0.0398  0.1307 -0.0948
87240W        W30157  18.590  10.923  23.766 -0.2287  0.0291  0.2930
87241W        W30158  18.892   8.627  26.097 -0.2614  0.4088 -0.1440
87242W        W30159  18.286  12.582  25.785 -0.2372 -0.1543  0.5403
87243W        W30160  16.827   8.798  26.563 -0.1372 -0.1559 -0.3702
87244W        W30161  19.098  10.324  25.205 -0.2912  0.0965 -0.1868
87245W        W30162  19.364   7.100  29.487 -0.0401 -0.1038 -0.2053
87246W        W30163  19.869   7.744  26.474 -0.2335  0.1079 -0.0617
87247W        W30164  18.482   8.832  27.096  0.0329 -0.0567 -0.3688
87248W        W30165  21.343  10.340  26.912  0.1540 -0.0386  0.1523
87249W        W30166  18.476   9.838  26.996  0.1917  0.1150 -0.4634
87250W        W30167  19.182   9.021  25.279 -0.0538 -0.0635  0.1351
87251W        W30168  17.430   9.424  28.695  0.0808  0.1313  0.0839
87252W        W30169  20.905  11.418  25.290  0.3051 -0.0380  0.1890
87253W        W30170  18.283  11.700  25.527  0.1946  0.0344  0.1245
87254W        W30171  16.267   7.595  28.124  0.2446 -0.0812  0.0417
87255W        W30172  20.016   9.885  27.981 -0.0994  0.1901 -0.1017
87256W        W30173  19.251   8.343  27.015 -0.0330 -0.1499  0.0916
87257W        W30174  18.938   8.330  25.632 -0.0719  0.3158  0.0621
87258W        W30175  20.302  10.636  24.380 -0.2819  0.1269  0.0496
87259W        W30176  18.610  12.545  27.391 -0.3089 -0.0760  0.0863
87260W        W30177  16.553   8.301  26.055 -0.1302  0.0944  0.2612
87261W        W30178  18.358   9.765  24.710  0.0857 -0.1290  0.0145
87262W        W30179  21.164  11.107  25.960  0.0928  0.3545  0.1291
87263W        W30180  19.691   8.844  26.781 -0.0083 -0.0326 -0.1758
87264W        W30181  20.384  12.072  26.608  0.0908  0.1053  0.0529
87265W        W30182  19.903   8.077  24.752  0.0576  0.4101 -0.3706
87266W        W30183  16.619   9.073  25.729 -0.2229  0.0185  0.1511
87267W        W30184  19.020   7.429  21.256 -0.0124  0.1798  0.2286
87268W        W30185  21.872  10.754  26.396 -0.1238 -0.0164 -0.2262
87269W        W30186  16.721  10.104  24.831  0.1868 -0.1166  0.2858
87270W        W30187  20.523  10.567  28.235  0.0383  0.2503 -0.3487
87271W        W30188  21.731   6.801  23.524  0.3077 -0.0188  0.2227
87272W        W30189  21.210   9.512  27.298 -0.0622  0.0793  0.2490
87273W        W30190  22.535   8.836  25.012 -0.0613 -0.1683  0.2817
87274W        W30191  19.745  11.966  28.038  0.0895  0.1336 -0.0525
87275W        W30192  17.788   7.228  26.945 -0.0155  0.1364  0.0937
87276W        W30193  20.087   8.351  23.125 -0.1733  0.2338 -0.1429
87277W        W30194  17.695   9.793  27.480 -0.0765 -0.0708  0.1746
87278W        W30195  20.550   7.279  27.953 -0.0651 -0.2023  0.0267
87279W        W30196  18.800  13.742  27.519 -0.1111  0.1228  0.1445
87280W        W30197  22.506   9.997  26.071 -0.3267 -0.0027  0.2677
87281W        W30198  16.017   7.853  23.599  0.0684 -0.0961  0.4221
87282W        W30199  17.649   7.688  23.451 -0.1452 -0.1088 -0.0958
87283W        W30200  22.065   7.151  25.476 -0.1573 -0.2022  0.2052
87284W        W30201  18.353   8.808  25.861 -0.2105  0.2154 -0.2499
87285W        W30202  18.102   6.213  25.677  0.2452 -0.1333 -0.0524
87286W        W30203  18.153  10.129  25.991  0.0860  0.1234 -0.1555
87287W        W30204  16.962   8.501  24.225  0.0031  0.0568 -0.3950
87288W        W30205  18.075  12.648  25.340 -0.4218  0.1026 -0.0058
87289W        W30206  15.465   8.149  24.378 -0.0260  0.1435 -0.3175
87290W        W30207  21.305  10.474  25.195 -0.0460  0.4289  0.3190
87291W        W30208  17.695   9.465  26.113 -0.0173 -0.1955  0.2809
87292W        W30209  21.679   7.341  25.892 -0.0292  0.5530  0.1255
87293W        W30210  16.142   8.069  25.254  0.0087 -0.0536  0.1510
87294W        W30211  20.271   9.184  25.423 -0.2842  0.0909  0.0572
87295W        W30212  18.976   8.363  28.207 -0.2744  0.2649  0.3213
87296W        W30213  18.050   8.597  27.099 -0.0097  0.0252 -0.2192
87297W        W30214  19.735   8.323  26.272  0.2772  0.1398 -0.0455
87298W        W30215  20.718   9.072  28.167  0.2033 -0.1106 -0.2855
87299W        W30216  19.725   9.359  25.013  0.3694 -0.0398 -0.0223
87300W        W30217  18.920   9.510  26.301  0.1764  0.1747 -0.1144
87301W        W30218  15.957   7.125  27.530  0.1906  0.2011 -0.0274
87302W        W30219  21.667   9.139  25.482  0.2585 -0.1152 -0.1498
87303W        W30220  18.725   8.760  23.811  0.2182  0.1039  0.0967
87304W        W30221  17.868   8.293  27.547  0.1132 -0.1900 -0.1886
87305W        W30222  20.426  10.091  27.567 -0.2507  0.3314  0.1446
87306W        W30223  18.333   7.850  24.675 -0.0685 -0.1351  0.1407
87307W        W30224  20.998   8.569  26.676  0.2558  0.1022  0.0275
87308W        W30225  20.592   8.742  27.328 -0.2319 -0.1308  0.1669
87309W        W30226  19.168  10.821  24.506  0.1101  0.1041  0.0436
87310W        W30227  19.809  10.403  24.596  0.1875  0.0449  0.1208
87311W        W30228  20.544  10.097  25.620  0.6126  0.3618  0.1934
87312W        W30229  16.861   7.451  26.138  0.0627  0.0623  0.1748
87313W        W30230  20.683  11.498  24.771  0.1299  0.3429 -0.2065
87314W        W30231  22.207  11.043  26.195  0.3486 -0.1357  0.0890
87315W        W30232  19.010   6.729  24.469 -0.1819 -0.4955  0.1164
87316W        W30233  18.202   8.966  26.722  0.0914 -0.3005  0.2142
87317W        W30234  17.584  11.610  26.015 -0.2060 -0.2435 -0.1214
87318W        W30235  19.308   7.765  25.187 -0.2965 -0.0113  0.0873
87319W        W30236  22.998   7.448  28.482 -0.3050 -0.0195 -0.2675
87320W        W30237  18.349   8.020  26.424 -0.0214  0.0546 -0.3552
87321W        W30238  20.656   7.720  26.023  0.2716 -0.1081 -0.1075
87322W        W30239  17.217  12.326  25.994  0.1468  0.1130 -0.1655
87323W        W30240  18.219  12.120  26.366 -0.2053 -0.1819 -0.2174
87324W        W30241  18.421   9.704  23.389 -0.3896  0.1405 -0.1775
87325W        W30242  17.842  10.315  28.497 -0.4210  0.0535  0.3040
87326W        W30243  19.475  10.183  25.504 -0.0902  0.0496 -0.1974
87327W        W30244  21.155  11.048  23.253 -0.1710 -0.2023  0.0517
87328W        W30245  18.780  10.716  25.777  0.1737  0.2798  0.2034
87329W        W30246  17.341   8.808  26.526 -0.0641  0.2351 -0.4212
87330W        W30247  23.280  11.679  26.629 -0.2200  0.0052  0.0064
87331W        W30248  17.935   7.552  24.554 -0.0422  0.0980 -0.0019
87332W        W30249  20.082   8.736  25.241  0.1557  0.0373 -0.2019
87333W        W30250  18.599   8.277  24.694 -0.0044  0.1047  0.0600
87334W        W30251  18.091   9.380  29.269  0.0350 -0.0433  0.2259
87335W        W30252  16.913   8.724  23.311 -0.1244  0.1492 -0.1109
87336W        W30253  18.379   7.490  24.256 -0.0519 -0.1209 -0.1839
87337W        W30254  18.386   9.555  26.581 -0.1397 -0.1347  0.2356
87338W        W30255  20.717   8.218  27.722 -0.2192 -0.1683 -0.1481
87339W        W30256  19.515   7.941  29.736 -0.0225 -0.1115 -0.1672
87340W        W30257  17.969   8.171  26.844  0.0544  0.1274 -0.0441
87341W        W30258  18.997   8.624  24.934  0.2684  0.0815 -0.0397
87342W        W30259  20.954   9.796  26.414  0.2272  0.0117 -0.2672
87343W        W30260  18.056   6.654  25.415  0.0793  0.0537  0.0197
87344W        W30261  16.011   5.878  27.457  0.3642 -0.0129 -0.0060
87345W        W30262  19.916  10.923  24.300  0.0987  0.2950 -0.1090
87346W        W30263  20.992  11.371  26.435 -0.0207  0.1241 -0.0222
87347W        W30264  18.987   8.131  25.183 -0.1075 -0.4387  0.0769
87348W        W30265  20.786  11.981  28.230  0.1758 -0.0057  0.1894
87349W        W30266  18.532   9.332  23.077  0.2900 -0.3392  0.0464
87350W        W30267  17.470   9.126  26.918  0.2301  0.0361 -0.1476
87351W        W30268  18.259   7.792  28.463  0.0846  0.0739 -0.0533
87352W        W30269  14.565   8.441  25.140  0.1661  0.0278  0.0356
87353W        W30270  18.018   9.777  26.325 -0.0349 -0.4596  0.0624
87354W        W30271  19.052  11.313  26.995  0.1739 -0.4031 -0.1548
87355W        W30272  21.609  11.373  24.005  0.0611  0.1035  0.2548
87356W        W30273  18.327  10.116  29.547 -0.2630 -0.3303  0.0355
87357W        W30274  20.118  10.114  25.986 -0.2806  0.0618 -0.1139
87358W        W30275  17.169   6.272  26.454 -0.2883 -0.0693  0.0803
87359W        W30276  21.500   9.801  25.990  0.1354  0.2956  0.0463
87360W        W30277  19.022   8.849  28.391 -0.0999  0.2336 -0.1093
87361W        W30278  23.348   8.346  24.209  0.1828  0.1916  0.0753
87362W        W30279  21.057   7.518  25.871 -0.0634 -0.2609  0.1105
87363W        W30280  20.854   9.132  25.638  0.0790 -0.2438 -0.0187
87364W        W30281  18.777   6.968  27.763 -0.0627  0.2192 -0.1746
87365W        W30282  17.800  10.478  26.002 -0.1957 -0.0876  0.0119
87366W        W30283  20.229   9.406  26.023 -0.1784 -0.0399 -0.2559
87367W        W30284  17.478   8.392  26.169  0.0294 -0.3883 -0.0214
87368W        W30285  19.655  10.028  25.052  0.1880  0.1468 -0.0879
87369W        W30286  19.529   9.981  24.306 -0.0798  0.0712 -0.1143
87370W        W30287  17.360   7.570  26.252 -0.1242  0.0012  0.0167
87371W        W30288  20.292   7.652  25.556 -0.0992  0.0097 -0.1111
87372W        W30289  20.250   8.952  28.376  0.2018  0.1205  0.2996
87373W        W30290  20.769   9.390  25.190 -0.1118  0.1718  0.1544
87374W        W30291  19.625   8.606  27.219 -0.2112 -0.1097 -0.0922
87375W        W30292  18.869   9.144  25.898 -0.2244 -0.1174 -0.0048
87376W        W30293  22.115   9.116  27.078  0.2377 -0.2184 -0.1011
87377W        W30294  19.015  10.204  26.322 -0.2152  0.0656  0.1233
87378W        W30295  21.227  11.394  29.459  0.0848 -0.0362  0.1509
87379W        W30296  18.020   9.769  25.730 -0.2046  0.0875  0.2336
87380W        W30297  20.033   8.917  25.819  0.0037  0.1208  0.3705
87381W        W30298  19.707   6.724  28.018  0.0721 -0.0583  0.1927
87382W        W30299  17.953   8.504  26.004 -0.0109  0.2841 -0.0866
87383W        W30300  18.428   8.947  24.142 -0.0407  0.0753 -0.0458
87384W        W30301  19.479   8.090  25.634 -0.1392  0.1778  0.3645
87385W        W30302  17.024   6.996  25.892 -0.0189  0.0162 -0.0354
87386W        W30303  20.312   6.298  24.355  0.0448 -0.0533 -0.0344
87387W        W30304  19.024   9.517  27.633  0.2502 -0.0403  0.2854
87388W        W30305  19.234   8.925  26.967 -0.0174  0.1616  0.0916
87389W        W30306  17.395   9.555  27.868 -0.0223  0.0894  0.1122
87390W        W30307  15.790   8.813  28.494 -0.0533 -0.0743  0.1052
87391W        W30308  20.678   9.082  26.963 -0.0378 -0.2735 -0.0547
87392W        W30309  23.698   8.403  28.647  0.0500 -0.0008 -0.0063
87393W        W30310  17.900  10.165  29.005  0.0739 -0.0166 -0.0520
87394W        W30311  19.719  10.747  27.281 -0.0273 -0.1573 -0.1916
87395W        W30312  19.953   4.817  29.957 -0.2838  0.1478 -0.2010
87396W        W30313  19.938   8.698  28.027  0.0614 -0.1295  0.2019
87397W        W30314  20.832  10.762  30.561  0.1040 -0.2519 -0.1227
87398W        W30315  20.759   9.226  27.467  0.0613 -0.2261 -0.0704
87399W        W30316  19.871   9.182  27.988  0.2500  0.1309  0.0913
87400W        W30317  17.851  10.520  30.741  0.1760 -0.2258  0.3345
87401W        W30318  19.736   8.389  28.535  0.1324 -0.2545  0.0535
87402W        W30319  18.601   6.965  29.919 -0.0096  0.1491  0.1473
87403W        W30320  20.449  10.094  28.501 -0.3158  0.0015  0.1482
87404W        W30321  17.311  10.380  27.509 -0.1837  0.0810  0.3984
87405W        W30322  19.602   9.682  30.488 -0.1547  0.3229  0.0808
87406W        W30323  20.092   7.490  27.907 -0.1931 -0.2205  0.2326
87407W        W30324  17.537  11.198  27.977  0.1766 -0.0642  0.1370
87408W        W30325  20.194   6.322  29.291 -0.2236  0.1193  0.0843
87409W        W30326  21.252   7.130  30.339 -0.0139 -0.3029 -0.0029
87410W        W30327  20.242   9.591  27.675 -0.2175 -0.1567 -0.0053
87411W        W30328  16.236  12.068  27.773 -0.0560  0.1248 -0.0493
87412W        W30329  20.319   9.017  29.596 -0.0664  0.1959  0.0096
87413W        W30330  18.497   9.998  31.364 -0.2105 -0.0067  0.0292
87414W        W30331  20.119   8.525   0.390  0.1480  0.0553 -0.0133
87415W        W30332  21.127   9.403  28.063  0.0061 -0.0482  0.3051
87416W        W30333  16.362  11.870  27.381  0.1099  0.0534 -0.0311
87417W        W30334  18.824   7.889  29.171 -0.2468 -0.0600  0.1190
87418W        W30335  20.722   9.366  29.621 -0.1381 -0.0530  0.0896
87419W        W30336  18.738   8.771  29.484 -0.0607  0.2337  0.2114
87420W        W30337  17.679  11.679  27.108  0.2620  0.3089 -0.1293
87421W        W30338  18.599   8.647  28.080 -0.4054  0.0090  0.0766
87422W        W30339  19.431  10.827  28.750 -0.0159  0.2712 -0.1973
87423W        W30340  20.368  12.924  30.484  0.3126 -0.1891 -0.0476
87424W        W30341  19.471  11.942  30.771  0.0131  0.2983 -0.0104
87425W        W30342  18.111   9.689  27.281  0.0226 -0.0363  0.1493
87426W        W30343  18.810  10.921  31.520 -0.1415 -0.0250 -0.2005
87427W        W30344  18.045  10.689  29.836  0.0219 -0.1286 -0.0691
87428W        W30345  18.699   9.115  30.348  0.4495 -0.1309  0.4515
87429W        W30346  21.264   7.700  29.101  0.0137 -0.0834  0.0341
87430W        W30347  18.773  10.823  26.963  0.0146 -0.1706 -0.0893
87431W        W30348  17.908  10.791  27.180  0.1438 -0.2189 -0.0034
87432W        W30349  19.329  11.175   0.284 -0.0913  0.0673 -0.1187
87433W        W30350  17.191  10.960  29.420 -0.3902  0.1414  0.2347
87434W        W30351  19.694   8.659  30.426  0.4045  0.2794  0.4106
87435W        W30352  19.634  11.504  28.160  0.1793  0.0743 -0.2906
87436W        W30353  20.257   9.318  27.247 -0.3274  0.2230  0.2164
87437W        W30354  21.498   7.195  28.141 -0.2759  0.1165 -0.0935
87438W        W30355  20.295   8.549  27.674 -0.2276  0.1274  0.0509
87439W        W30356  19.734   6.878  31.138  0.2243 -0.2596  0.1615
87440W        W30357  19.904  10.488  29.430 -0.2736 -0.0893  0.2132
87441W        W30358  20.113   7.606  29.420 -0.3094 -0.1574  0.0159
87442W        W30359  21.319   8.532  31.464  0.1439  0.2099 -0.0104
87443W        W30360  20.679   9.725  27.232 -0.1724  0.2525  0.0961
87444W        W30361  23.822   7.939  30.578  0.1402 -0.6196 -0.3720
87445W        W30362  18.451  10.925  31.889 -0.0149 -0.0808  0.0542
87446W        W30363  16.846   9.372  29.604 -0.2701  0.1552 -0.1730
87447W        W30364  21.146  11.611  28.413  0.0409 -0.0114  0.0792
87448W        W30365  20.948  11.035  29.276  0.2581  0.0124 -0.0283
87449W        W30366  22.524  10.779  27.102  0.0111  0.2463  0.2124
87450W        W30367  18.059  10.006  27.831  0.2551 -0.0993  0.0925
87451W        W30368  17.894   7.760  29.950 -0.2004 -0.0589  0.4745
87452W        W30369  19.882  10.751  31.217  0.1792 -0.2214  0.6589
87453W        W30370  19.390   7.538  27.574  0.4306  0.2178 -0.0598
87454W        W30371  22.254   9.314  30.190 -0.1332 -0.4034 -0.1473
87455W        W30372  17.354  10.683  30.728  0.0218  0.0435  0.0383
87456W        W30373  21.794  10.931  28.014 -0.1209  0.0204 -0.1456
87457W        W30374  18.783   9.956  27.696 -0.4095 -0.0197 -0.0516
87458W        W30375  19.699  11.230  29.053  0.1271 -0.1125 -0.2530
87459W        W30376  20.660   6.897  27.602 -0.0979  0.0966  0.0860
87460W        W30377  23.192   7.246  29.158  0.0332  0.3405 -0.1203
87461W        W30378  21.157   7.167  29.352 -0.2699 -0.1616  0.1777
87462W        W30379  17.726   8.594  28.919  0.5817 -0.0143 -0.4101
87463W        W30380  18.670  11.567  27.118 -0.3306 -0.1454 -0.1725
87464W        W30381  21.801   9.489  31.580 -0.0185  0.4141  0.1638
87465W        W30382  20.962   8.205  29.424  0.1739  0.0480  0.1295
87466W        W30383  17.631  10.211  30.395  0.1502 -0.0071  0.2172
87467W        W30384  21.065   9.168  28.498 -0.2382 -0.0949  0.2875
87468W        W30385  20.138  10.290  28.839  0.1148 -0.0163  0.0813
87469W        W30386  19.879  12.307  27.151  0.0119  0.2067 -0.1132
87470W        W30387  17.153  10.372  29.587 -0.0364  0.0646  0.2117
87471W        W30388  18.590   7.327  28.249  0.2888  0.0658 -0.1057
87472W        W30389  18.328   7.537  31.496  0.0608 -0.3550  0.1506
87473W        W30390  18.723  10.886  30.732  0.0299 -0.0677  0.0476
87474W        W30391  20.677   6.075  29.262 -0.0608  0.2652 -0.0854
87475W        W30392  19.832   6.734  29.368  0.1220 -0.0747 -0.0487
87476W        W30393  20.931   6.236  30.576 -0.0600  0.1556  0.2007
87477W        W30394  17.824  11.060  30.595 -0.2267  0.1546  0.1342
87478W        W30395  21.434  10.765  27.188  0.2807  0.2741 -0.2513
87479W        W30396  19.999   9.381  28.667 -0.2433 -0.0247  0.4286
87480W        W30397  19.179   9.029  26.390 -0.1101  0.1076 -0.1650
87481W        W30398  17.807   6.878  30.015 -0.0330  0.0936 -0.0709
87482W        W30399  17.159   9.268  28.262 -0.1582 -0.1489  0.2272
87483W        W30400  18.740   7.143  30.434  0.1071  0.2876  0.1764
87484W        W30401  18.620   8.529  29.926  0.0199  0.0989 -0.3652
87485W        W30402  21.651   9.841  29.581  0.1021 -0.0485 -0.2642
87486W        W30403  20.374   6.669  27.283 -0.4681 -0.0773 -0.2197
87487W        W30404  19.392   9.130  27.591  0.0700 -0.0627  0.1350
87488W        W30405  19.270   9.235  28.047  0.2185 -0.1756  0.0348
87489W        W30406  15.252  10.975  28.663 -0.2215  0.1494  0.1350
87490W        W30407  21.558   6.329  29.794 -0.0684  0.0166  0.2583
87491W        W30408  20.338   9.044  27.778  0.0307 -0.3725 -0.0423
87492W        W30409  20.020  10.010  31.213  0.0498 -0.4404 -0.3471
87493W        W30410  20.545  11.415  27.974  0.0261  0.1087  0.3080
87494W        W30411  19.135   7.359  30.308  0.0951 -0.0114  0.0036
87495W        W30412  20.974   8.395  28.198  0.1016  0.1876  0.1291
87496W        W30413  17.366   9.838  29.560  0.1389 -0.0607 -0.1822
87497W        W30414  16.238   9.653  28.189 -0.0343 -0.3718  0.0263
87498W        W30415  19.465   7.317  28.665  0.4131 -0.2939 -0.2200
87499W        W30416  20.594  11.108  28.392  0.0054  0.1547 -0.3033
87500W        W30417  19.595   9.540  28.358 -0.3106 -0.0210 -0.0079
87501W        W30418  18.937  11.696   0.247 -0.2353  0.3296  0.2052
87502W        W30419  22.364   8.291  30.283 -0.5094 -0.3041  0.0754
87503W        W30420  22.454  11.384  29.685  0.2386  0.2337  0.2734
87504W        W30421  20.691   8.543  29.059 -0.3707  0.1241  0.1570
87505W        W30422  18.974   6.354  28.433 -0.1219  0.0612 -0.0181
87506W        W30423  20.452   9.873  29.742  0.4558 -0.2027 -0.2381
87507W        W30424  18.170  10.328  26.902  0.1266 -0.2053  0.2386
87508W        W30425  16.685  10.232  28.728 -0.1819 -0.1112  0.1093
87509W        W30426  20.536   8.481  29.530  0.1174 -0.2875  0.1495
87510W        W30427  20.501   7.929  29.463 -0.0194  0.2364 -0.0573
87511W        W30428  17.100   8.362   0.804  0.3927 -0.3597 -0.2174
87512W        W30429  20.060   8.018  28.676  0.0980  0.1696 -0.0626
87513W        W30430  17.601  10.373  29.857  0.0239 -0.0656 -0.1861
87514W        W30431  16.835   9.543   0.289  0.2274  0.1288  0.0362
87515W        W30432  21.551   6.482  28.402 -0.0710 -0.1122 -0.0549
87516W        W30433  21.506   8.591  27.375 -0.1376  0.1343 -0.1100
87517W        W30434  21.191   9.881  31.560  0.0031 -0.2608 -0.2222
87518W        W30435  20.821   9.592  31.492 -0.0508  0.0334 -0.3893
87519W        W30436  20.846   6.988  28.996  0.0128  0.2361  0.0568
87520W        W30437  18.738   9.276  28.235  0.1334 -0.1346  0.1843
87521W        W30438  18.437  11.015  29.881 -0.0164 -0.0733  0.0387
87522W        W30439  17.448  10.934  27.467 -0.0444  0.0405  0.1522
87523W        W30440  17.671   9.168  30.556  0.3068  0.1881 -0.2833
87524W        W30441  19.668   7.853  27.884 -0.1694  0.0243 -0.4003
87525W        W30442  22.230  11.786  25.847 -0.0121  0.2449  0.1811
87526W        W30443  18.348   8.295  30.694  0.1791 -0.5847 -0.2026
87527W        W30444  18.889   9.503  31.066 -0.0481  0.1207  0.1219
87528W        W30445  19.688   9.691  29.874  0.1314  0.0748 -0.1331
87529W        W30446  20.798   8.256  29.954  0.1589 -0.3389  0.1714
87530W        W30447  17.763  10.394  27.956  0.0249 -0.1770 -0.0045
87531W        W30448  20.246   8.101  26.699  0.0261  0.1732 -0.1900
87532W        W30449  17.771  10.297  27.414 -0.0597  0.1915 -0.0028
87533W        W30450  22.241   7.744  29.069 -0.0974  0.2110  0.1684
87534W        W30451  22.488   7.482  28.583  0.2625 -0.1712 -0.1553
87535W        W30452  19.627   6.135  31.002 -0.4272  0.0541 -0.0729
87536W        W30453  21.577   6.784  30.091 -0.2631  0.0243 -0.1105
87537W        W30454  21.085   8.340  28.760  0.1037  0.0191  0.1759
87538W        W30455  18.761   7.793  28.179 -0.0383 -0.0297 -0.1520
87539W        W30456  18.548   8.304  26.767 -0.2081 -0.4006 -0.0071
87540W        W30457  19.985   9.701  30.831 -0.1652 -0.0225 -0.0464
87541W        W30458  18.289   9.355  30.462  0.0135  0.1091  0.3239
87542W        W30459  17.945  13.305  29.411  0.1596 -0.1365  0.0501
87543W        W30460  22.171   9.039  29.507  0.2620  0.3354 -0.1587
87544W        W30461  19.652   9.367  26.479  0.0723 -0.1426  0.0127
87545W        W30462  21.296   6.779  30.763 -0.0000  0.2952  0.1023
87546W        W30463  19.930   7.074  28.260 -0.2025  0.0692 -0.1146
87547W        W30464  18.244   8.716  28.515 -0.1807  0.1836 -0.0912
87548W        W30465  18.756   7.510  27.764  0.0434 -0.3584 -0.0811
87549W        W30466  18.066   7.665  29.018  0.0545 -0.1013  0.0148
87550W        W30467  19.550   9.426  28.852  0.0457 -0.2848  0.2101
87551W        W30468  18.172  11.666  27.377  0.1508 -0.0561 -0.0296
87552W        W30469  21.045   9.627  29.893  0.2341  0.1951  0.2098
87553W        W30470  16.728   9.704  28.675 -0.2601 -0.0448  0.1416
87554W        W30471  20.565   7.784  30.077  0.2069 -0.0947  0.3618
87555W        W30472  16.980   8.164  31.154 -0.0020  0.0068  0.0862
87556W        W30473  18.477   9.338  27.015  0.1647  0.0766  0.0643
87557W        W30474  20.855   7.113  30.028  0.2630  0.0686  0.0253
87558W        W30475  21.203   7.996  29.952 -0.1022 -0.1776  0.1760
87559W        W30476  21.880  10.518  26.847 -0.1122  0.0889 -0.0430
87560W        W30477  19.877   8.245  30.010  0.0646 -0.0218  0.1718
87561W        W30478  17.091   7.322  28.972  0.1447 -0.1614 -0.5547
87562W        W30479  17.829  11.142  29.333 -0.2174 -0.0109 -0.3396
87563W        W30480  20.028   9.677  30.225 -0.2147  0.0970  0.1520
87564W        W30481  21.632   9.045  29.070  0.1827 -0.0941  0.0091
87565W        W30482  21.609   9.745  30.069 -0.1578 -0.0545 -0.2575
87566W        W30483  19.321  10.226   0.693  0.0395  0.0760  0.1621
87567W        W30484  18.163   9.000  28.959 -0.0292 -0.0272  0.1079
87568W        W30485  21.771   7.432  28.572  0.0625 -0.1260  0.0895
87569W        W30486  17.395   9.292  27.459 -0.1591 -0.0212 -0.3247
87570W        W30487  18.245   9.602  29.757 -0.3312  0.1297 -0.0817
87571W        W30488  17.715   9.437  28.257 -0.2248 -0.2299  0.0202
87572W        W30489  17.918   9.152  27.286  0.2710 -0.2187  0.1384
87573W        W30490  17.425  10.122  27.097 -0.1864  0.1957 -0.0266
87574W        W30491  18.779   8.527  31.598  0.0993  0.1611 -0.0909
87575W        W30492  20.820  10.187  29.703 -0.5285  0.3467 -0.1762
87576W        W30493  20.027   6.413  31.278  0.3904  0.1050  0.2060
87577W        W30494  19.152   9.348  28.546 -0.0292  0.0349  0.2361
87578W        W30495  18.891   8.987  29.878 -0.1756 -0.0159  0.3060
87579W        W30496  20.590   8.748  29.985  0.1655 -0.2258 -0.1602
87580W        W30497  19.451   6.288  29.853 -0.3642 -0.1200  0.0996
87581W        W30498  19.107  10.840  31.090  0.0864 -0.0185 -0.1340
87582W        W30499  20.702   7.450  29.244 -0.0405  0.1538  0.0947
87583W        W30500  23.009   9.949  27.444  0.1749  0.1381 -0.1510
87584W        W30501  20.976   9.663  30.966  0.1402 -0.1336  0.1946
87585W        W30502  20.497  10.029  28.044  0.3616  0.0893 -0.1929
87586W        W30503  18.794   8.152  29.630  0.1301  0.1556 -0.1951
87587W        W30504  18.332  11.660  26.326 -0.1277  0.0673 -0.2724
87588W        W30505  19.000   6.296  31.354  0.1471 -0.2823 -0.2292
87589W        W30506  17.552   9.926  31.450  0.1707  0.0123  0.1181
87590W        W30507  17.620   8.728  25.076 -0.4744  0.2367  0.1159
87591W        W30508  16.569  11.592  30.011 -0.1280  0.0056 -0.3800
87592W        W30509  21.659   7.369  29.424  0.1878  0.0029  0.1975
87593W        W30510  17.561   9.592  27.041 -0.3634 -0.2782 -0.2892
87594W        W30511  19.219   8.427  28.647  0.2561 -0.2667  0.2138
87595W        W30512  21.118   9.469  31.910 -0.2523  0.1679  0.1805
87596W        W30513  20.755   8.738  27.836  0.0380  0.1981  0.0107
87597W        W30514  23.398  10.455  31.366 -0.1361 -0.0604 -0.1167
87598W        W30515  20.332   8.204  29.855 -0.3926 -0.0337 -0.0118
87599W        W30516  19.293   8.877  28.972 -0.0186  0.0016  0.0950
87600W        W30517  18.523   7.872  29.896  0.3030  0.1114 -0.4192
87601W        W30518  18.850  11.404  30.735 -0.1305  0.0017  0.1792
87602W        W30519  20.877   9.701  30.431 -0.0498 -0.2373  0.0935
87603W        W30520  19.846   9.462  29.342  0.0744  0.3593  0.1654
87604W        W30521  20.041   8.603  29.281  0.1250  0.1953 -0.1924
87605W        W30522  19.988   9.171  30.694  0.0211 -0.2486 -0.1817
87606W        W30523  21.492   9.814  29.088  0.1178 -0.0282 -0.0871
87607W        W30524  19.069  11.282  27.575  0.2225  0.1700  0.0605
87608W        W30525  20.894   7.953  28.963  0.2280 -0.0311 -0.0740
87609W        W30526  18.070   9.852  31.697  0.1437 -0.2781  0.0914
87610W        W30527  20.701   9.570  27.824 -0.0566 -0.1938  0.0007
87611W        W30528  22.659  10.502  28.384  0.1678  0.4519 -0.1564
87612W        W30529  17.511  11.074  28.628  0.0488  0.0095  0.0732
87613W        W30530  19.026   6.372  31.916  0.0701 -0.2377  0.0891
87614W        W30531  20.724  10.061  31.275 -0.0875 -0.2409  0.1656
87615W        W30532  21.693   6.955  27.653 -0.2326 -0.2874 -0.1917
87616W        W30533  19.811   9.114   0.179 -0.3977  0.1206  0.0703
87617W        W30534  21.491   8.573  30.649 -0.0245 -0.2350 -0.1382
87618W        W30535  20.273   9.072  30.253 -0.0721 -0.1268  0.0120
87619W        W30536  18.394   7.397  30.629 -0.0567  0.4560 -0.2031
87620W        W30537  19.003  10.488  30.748 -0.1560 -0.0085  0.1871
87621W        W30538  19.779   8.329  27.753  0.1225 -0.2136 -0.2306
87622W        W30539  21.820   8.199  27.231 -0.0681  0.3001 -0.0303
87623W        W30540  20.863   9.537  26.817  0.1147 -0.1285 -0.0435
87624W        W30541  21.694   9.480  28.771 -0.2076  0.3096 -0.0142
87625W        W30542  16.209   8.366  29.496  0.0907  0.3547  0.2106
87626W        W30543  21.205   9.610   0.457  0.0356 -0.0763 -0.0138
87627W        W30544  16.475   8.367  28.112  0.0792 -0.1056  0.2554
87628W        W30545  21.298   7.494  28.581 -0.1244  0.0538 -0.0836
87629W        W30546  20.031   9.883  28.481  0.4302 -0.0376  0.1183
87630W        W30547  19.069   9.903  30.414  0.1641 -0.0630  0.1494
87631W        W30548  21.283   9.434  30.280  0.0650  0.2179  0.1702
87632W        W30549  17.595   9.048  31.681  0.0626 -0.1463  0.2320
87633W        W30550  17.883  11.808  28.758 -0.3071 -0.0326 -0.1070
87634W        W30551  15.078   8.008  28.332  0.0321  0.1211 -0.0902
87635W        W30552  18.686   8.507  28.655  0.3078  0.0001 -0.1126
87636W        W30553  19.982  10.102  30.042  0.0354 -0.2716  0.5102
87637W        W30554  19.606   8.035   0.064 -0.0595  0.0165 -0.0675
87638W        W30555  19.854   7.566  28.933 -0.1189 -0.0241  0.1062
87639W        W30556  20.764   9.697  28.318  0.2067  0.0742 -0.1949
87640W        W30557  18.463  10.228  29.061 -0.2064 -0.4363  0.0559
87641W        W30558  19.708   8.023  29.088 -0.5967 -0.2208  0.0414
87642W        W30559  17.322  10.999  31.593  0.1344 -0.1932 -0.2090
87643W        W30560  17.479   8.278  28.395 -0.2689 -0.0406  0.0589
87644W        W30561  18.392  10.271  28.523  0.2489 -0.1210  0.0433
87645W        W30562  20.027   8.709  29.935 -0.3343  0.3620 -0.3538
87646W        W30563  20.431   8.468  28.165 -0.1942  0.3457  0.2711
87647W        W30564  18.008   8.180  29.736  0.0148 -0.0068 -0.1916
87648W        W30565  21.531   8.308  29.613  0.2889 -0.2923 -0.0201
87649W        W30566  19.423   9.059  31.157  0.0552  0.5249 -0.1061
87650W        W30567  18.901   9.531  28.881 -0.0388  0.0016  0.4518
87651W        W30568  20.092  12.429  30.831 -0.2115  0.3884 -0.5104
87652W        W30569  21.177  10.003  30.172 -0.1808 -0.1577  0.1456
87653W        W30570  16.534  10.071   0.371  0.0628  0.1654 -0.4391
87654W        W30571  18.612   5.928  31.196  0.0314  0.0419  0.0717
87655W        W30572  20.629   8.724  30.700  0.3701 -0.1566  0.1586
87656W        W30573  19.442   9.558  31.026 -0.1386  0.0155 -0.1087
87657W        W30574  20.323   7.690  28.974 -0.3220 -0.1514 -0.2152
87658W        W30575  19.345  12.201  29.074  0.0985 -0.1637 -0.2894
87659W        W30576  17.644  10.065   0.045 -0.1836  0.1599 -0.1895
87660W        W30577  18.136  10.342  30.262  0.2974 -0.0846 -0.0521
87661W        W30578  20.857  12.647  25.957  0.1157  0.0428 -0.2710
87662W        W30579  17.649   8.533  27.979  0.0647  0.1849  0.0966
87663W        W30580  20.117   8.746  27.202 -0.1971  0.2545 -0.1197
87664W        W30581  20.629   9.204  28.680 -0.1951 -0.0560 -0.0260
87665W        W30582  18.312   8.528  29.029  0.1523  0.1539  0.0897
87666W        W30583  15.469  10.202  30.709 -0.3426 -0.0808 -0.2028
87667W        W30584  17.206   9.643  26.183  0.0522  0.1185  0.2497
87668W        W30585  20.377  10.405  29.885  0.2911  0.1070 -0.0681
87669W        W30586  18.522   9.444  27.510 -0.0003  0.0324  0.2875
87670W        W30587  19.688   9.012  29.337 -0.1351  0.2049 -0.3618
87671W        W30588  20.208   8.019  27.633  0.0495  0.1240 -0.1994
87672W        W30589  20.989   7.669  29.609  0.0764  0.1270  0.0382
87673W        W30590  22.184   7.889  28.440  0.0952 -0.0821  0.0041
87674W        W30591  20.566   8.762  31.389  0.0485  0.1767  0.0837
87675W        W30592  19.541   7.867   0.946  0.1592 -0.2619 -0.4001
87676W        W30593  20.768   7.515  28.702 -0.1770  0.1090 -0.0323
87677W        W30594  19.818   8.237  30.635 -0.2254  0.2250 -0.1001
87678W        W30595  20.876   8.295  31.305  0.2185  0.0238  0.0052
87679W        W30596  16.561   9.983  30.612 -0.1267 -0.5607  0.1465
87680W        W30597  19.080  10.383  28.002 -0.1831 -0.2408  0.1078
87681W        W30598  17.288   7.325  28.135 -0.0069  0.0446 -0.1640
87682W        W30599  19.305  10.706  25.618 -0.2682  0.0441  0.2266
87683W        W30600  21.350   5.367  31.732  0.2808  0.2015  0.1747
87684W        W30601  20.299   9.474  28.155  0.0473  0.0210  0.2380
87685W        W30602  20.201   6.745   0.206 -0.1025 -0.0113  0.1866
87686W        W30603  20.933  10.804  28.178 -0.0248  0.1099  0.0360
87687W        W30604  18.825   8.945  28.842  0.1767  0.0094 -0.1379
87688W        W30605  19.272  11.046  30.149  0.0337  0.1248  0.1457
87689W        W30606  15.999   8.340  26.994  0.1020 -0.1002  0.0438
87690W        W30607  19.883   7.579  29.963 -0.4289  0.2628  0.1180
87691W        W30608  19.717   9.273  30.226  0.1793 -0.0522 -0.0170
87692W        W30609  22.705   9.150  27.754 -0.1955  0.1145 -0.1060
87693W        W30610  18.878   8.386  29.071  0.0276  0.1986 -0.3565
87694W        W30611  20.155   9.475  29.736  0.4045  0.0438  0.0961
87695W        W30612  20.412   8.916  29.088  0.1129  0.3505 -0.0060
87696W        W30613  17.232   7.191  29.628  0.1715  0.0490 -0.0412
87697W        W30614  17.414   8.176  27.632 -0.2574 -0.1148  0.1171
87698W        W30615  21.284   9.118  29.387 -0.0388  0.0739 -0.4263
87699W        W30616  19.053   7.310  28.059  0.2823  0.1615 -0.0098
87700W        W30617  20.918  11.324  29.824  0.1991  0.3155  0.0310
87701W        W30618  18.739   7.412  29.993  0.1247 -0.3562 -0.2037
87702W        W30619  19.530   7.587  29.346  0.1384 -0.1410  0.2465
87703W        W30620  17.498  11.382  29.051 -0.1677 -0.2751 -0.1486
87704W        W30621  20.337   9.001  30.949  0.2553 -0.1625 -0.2461
87705W        W30622  21.953   9.011  31.342  0.2681  0.2624  0.2228
87706W        W30623  18.487   9.225  28.661 -0.0715 -0.1725 -0.0507
87707W        W30624  21.810  11.073  26.792 -0.1154 -0.2723 -0.1975
87708W        W30625  18.986   6.512  29.787 -0.3171 -0.1688  0.2544
87709W        W30626  19.094  11.131  26.448 -0.1050  0.2352  0.2433
87710W        W30627  21.898   9.703  30.477  0.1910 -0.0623 -0.1195
87711W        W30628  20.321   9.360  29.206 -0.0540  0.2518  0.0933
87712W        W30629  17.947   9.154  30.131 -0.0438  0.3243 -0.0821
87713W        W30630  18.816  10.841  29.714 -0.6697 -0.0320  0.2756
87714W        W30631  20.985  11.700  30.214  0.0181  0.1509  0.1297
87715W        W30632  20.548   8.167  28.637 -0.1513  0.2899  0.1115
87716W        W30633  18.041   8.702  29.893 -0.1458 -0.0990  0.2138
87717W        W30634  16.453  10.047  27.913 -0.0699  0.1020  0.2005
87718W        W30635  21.688   6.791  31.073 -0.1291  0.0404  0.1240
87719W        W30636  21.343   7.564  30.714  0.1631 -0.0980 -0.0881
87720W        W30637  19.213   9.886  28.606  0.0327  0.2389 -0.1230
87721W        W30638  21.330   6.764  29.131 -0.0586  0.2906  0.0085
87722W        W30639  20.591  11.160  30.715 -0.0596  0.4120 -0.3305
87723W        W30640  19.088  10.314  29.912 -0.1661  0.1062 -0.0528
87724W        W30641  18.275   8.927  29.431 -0.1084 -0.1812 -0.0700
87725W        W30642  18.095  10.814   0.342 -0.0837 -0.0745 -0.0860
87726W        W30643  19.668  10.153  28.853 -0.1882  0.3561 -0.0567
87727W        W30644  18.262  10.492  27.741  0.0804  0.1641  0.0289
87728W        W30645  21.574   9.316  29.835  0.0411 -0.0103  0.3832
87729W        W30646  21.326  10.523  28.341  0.1635 -0.1160 -0.1626
87730W        W30647  22.422  10.878  29.323  0.0496 -0.1366  0.1220
87731W        W30648  18.009   8.287  30.241 -0.1030 -0.2404  0.2484
87732W        W30649  21.201   8.878  28.038  0.2476  0.0843  0.2293
87733W        W30650  21.845   8.130  29.953  0.1492 -0.1145  0.0212
87734W        W30651  19.340   9.783  29.116  0.2166 -0.3549  0.2880
87735W        W30652  17.844   8.599  26.507  0.0005 -0.1010  0.3210
87736W        W30653  18.722   9.440  29.623 -0.1548  0.0766 -0.1230
87737W        W30654  18.636  10.225  30.334 -0.0582 -0.2257 -0.2176
87738W        W30655  20.159   8.434   1.451  0.1273  0.1692 -0.0375
87739W        W30656  18.177   7.326  30.197 -0.1725 -0.1502  0.2751
87740W        W30657  19.342   7.769  28.885  0.2319 -0.2439 -0.1541
87741W        W30658  17.944   7.460  31.941 -0.3648 -0.2186 -0.1240
87742W        W30659  21.050  10.125  30.771  0.0761 -0.5730 -0.1237
87743W        W30660  18.906   6.139  28.902  0.0879 -0.1631  0.0304
87744W        W30661  17.749   7.227  27.946 -0.0941 -0.1559  0.0449
87745W        W30662  19.315   9.988  27.704  0.0326  0.0910 -0.0679
87746W        W30663  20.855  11.716  27.303  0.0562 -0.2192  0.0328
87747W        W30664  19.558   8.973  28.374 -0.0393  0.2369 -0.1441
87748W        W30665  21.461  12.022  30.195  0.2502  0.0429 -0.1622
87749W        W30666  17.871  10.872  25.671 -0.0981  0.0015 -0.0499
87750W        W30667  22.498   7.925   1.604 -0.2764 -0.0246 -0.1748
87751W        W30668  19.281   7.115  31.384 -0.1408  0.1032 -0.0604
87752W        W30669  18.929   7.429  27.122 -0.1948 -0.2701 -0.3144
87753W        W30670  19.873   8.866  27.603  0.0019  0.2749  0.0999
87754W        W30671  19.108  11.544  27.976  0.0274  0.0056  0.1973
87755W        W30672  20.195  10.570  27.343 -0.0003  0.1315 -0.1132
87756W        W30673  18.719   9.574  30.597 -0.0926  0.0480 -0.1288
87757W        W30674  20.387  11.803  30.453 -0.0122  0.0260  0.1234
87758W        W30675  15.645   7.060  29.089  0.0035  0.2063  0.1764
87759W        W30676  21.390  11.055  29.004 -0.0592 -0.2362 -0.0509
87760W        W30677  18.106  10.054  30.702 -0.1698  0.0494 -0.4357
87761W        W30678  22.667   9.884  27.123  0.1930  0.2661  0.1586
87762W        W30679  20.293   8.181  29.091  0.2070 -0.0205  0.0037
87763W        W30680  19.250   7.402  29.859  0.3593 -0.1512 -0.0376
87764W        W30681  17.678   7.301  30.155 -0.2729 -0.1455 -0.2626
87765W        W30682  17.372  10.638  28.796  0.2000 -0.0975  0.0366
87766W        W30683  20.075  10.075  30.528 -0.0393 -0.1314  0.2600
87767W        W30684  18.871   8.072  28.613  0.1028  0.1339  0.1277
87768W        W30685  21.698   8.489  28.911  0.3281  0.0206  0.2356
87769W        W30686  18.601   8.661  27.562 -0.1510  0.3541  0.1427
87770W        W30687  20.372  10.316  29.352 -0.3191  0.0042  0.1361
87771W        W30688  20.296   5.762  29.124  0.1138  0.0245 -0.2993
87772W        W30689  20.823   9.163  31.003  0.2757  0.0411 -0.1392
87773W        W30690  18.493  10.167  28.050  0.0017 -0.2297  0.1583
87774W        W30691  21.075   8.652  30.995 -0.1175 -0.0742 -0.1306
87775W        W30692  19.187   7.087  27.410 -0.1157 -0.0837 -0.1675
87776W        W30693  22.738  10.379  27.360  0.0658  0.1111  0.1877
87777W        W30694  19.610  12.591  30.721 -0.3037  0.2145  0.2060
87778W        W30695  21.913  12.102  29.923  0.0554 -0.1314 -0.0170
87779W        W30696  20.880  10.550  30.099 -0.0287 -0.1329  0.0348
87780W        W30697  19.490   7.754  30.487  0.1871 -0.1644 -0.2447
87781W        W30698  20.232   7.508  28.414 -0.0219 -0.1923 -0.3169
87782W        W30699  17.816   9.688  30.217  0.1902 -0.2932  0.3101
87783W        W30700  17.589  10.736  28.291  0.1196  0.3006 -0.2795
87784W        W30701  20.276   7.204  29.252 -0.3713  0.1642  0.4935
87785W        W30702  17.713   7.765  30.402 -0.1487 -0.1971 -0.2462
87786W        W30703  21.203   7.067  27.726 -0.0122 -0.5239  0.0833
87787W        W30704  20.543   9.466  30.112  0.0428  0.2211 -0.1288
87788W        W30705  18.506   9.616  31.852 -0.0105  0.1439 -0.4049
87789W        W30706  21.718   7.949  27.769 -0.1762  0.2449  0.1125
87790W        W30707  18.852  10.537   1.334  0.0423  0.1833  0.0741
87791W        W30708  19.305   8.543  30.644  0.0531  0.0508  0.1375
87792W        W30709  19.698  10.682   0.741 -0.0993  0.1132 -0.0340
87793W        W30710  19.830  10.992   0.315  0.0647 -0.1303  0.1236
87794W        W30711  18.515  10.562   0.248  0.2298  0.0360  0.1382
87795W        W30712  21.504   8.946  31.029  0.2317  0.0788 -0.0847
87796W        W30713  20.198   7.606   0.196  0.0463 -0.1623  0.0528
87797W        W30714  19.979   8.487  31.751 -0.3625  0.0999 -0.0659
87798W        W30715  21.376  13.300  30.984  0.3304 -0.0201  0.0297
87799W        W30716  17.407  11.837  30.962 -0.0527 -0.2205 -0.2921
87800W        W30717  17.922   6.937   0.225  0.0258  0.0863  0.1587
87801W        W30718  21.704  10.854  30.478  0.4311 -0.0650 -0.0899
87802W        W30719  20.174   9.357  31.813  0.2485  0.1320  0.1050
87803W        W30720  20.872  10.786   1.109 -0.1776  0.0998  0.0900
87804W        W30721  17.912  11.741  30.929  0.1476  0.0132 -0.1810
87805W        W30722  17.970   8.704   0.499  0.2270  0.1044 -0.0500
87806W        W30723  20.586   9.586  31.914 -0.0118  0.2033 -0.2813
87807W        W30724  18.977   8.083  31.455 -0.2494 -0.1085  0.0065
87808W        W30725  17.993   7.752   0.831  0.0434  0.0735 -0.1475
87809W        W30726  19.028   6.790  31.679 -0.3112 -0.0609 -0.1633
87810W        W30727  18.330  10.827  31.402  0.1952  0.0295 -0.2535
87811W        W30728  21.140   8.109   0.438 -0.2771  0.2301  0.1725
87812W        W30729  20.792   9.185  30.470  0.1789 -0.0041  0.3143
87813W        W30730  18.481   7.665  31.072 -0.1999 -0.0535 -0.0586
87814W        W30731  20.202   7.954  30.852 -0.1495  0.3056 -0.1869
87815W        W30732  17.675   8.131  31.882 -0.1127 -0.2244  0.1289
87816W        W30733  16.234  10.828   0.917 -0.0949  0.0464 -0.0235
87817W        W30734  18.539   7.514   0.668 -0.0425  0.0954  0.2102
87818W        W30735  20.445   9.907  30.236 -0.0091  0.0584  0.4719
87819W        W30736  19.606   8.668   0.215  0.0258 -0.1712 -0.1975
87820W        W30737  19.507   8.433   0.977 -0.1035  0.1379 -0.0759
87821W        W30738  22.090   8.862  30.011 -0.2297  0.0970  0.2039
87822W        W30739  20.351   7.923  31.736 -0.2216  0.1625  0.1546
87823W        W30740  18.512   8.706  31.183 -0.4027 -0.0390 -0.0306
87824W        W30741  17.945   9.584  30.768  0.1635  0.1546 -0.2385
87825W        W30742  18.130  10.354  31.115 -0.1558 -0.0449  0.0714
87826W        W30743  19.440  10.741   0.144  0.0604 -0.3388  0.2999
87827W        W30744  21.554  10.102  30.692 -0.2982 -0.0805 -0.1821
87828W        W30745  19.813   8.737  30.942  0.1906 -0.0238  0.1607
87829W        W30746  21.031   9.089  29.985  0.1913  0.3807 -0.1779
87830W        W30747  17.588   6.776  31.583  0.0855  0.1745 -0.0220
87831W        W30748  20.572   8.819   0.374  0.2291 -0.0268  0.0085
87832W        W30749  18.636   9.954  29.902  0.0731 -0.0803 -0.2419
87833W        W30750  17.163   7.822   0.894  0.2408 -0.2059  0.0760
87834W        W30751  18.904  10.531  31.876  0.1528  0.2129  0.3003
87835W        W30752  20.367   8.765   1.089 -0.0982  0.1524  0.1706
87836W        W30753  19.537  10.393  31.269  0.3627 -0.0226 -0.0155
87837W        W30754  19.313  10.548  30.284 -0.0217 -0.2582  0.0707
87838W        W30755  18.386  10.474  30.693 -0.0903  0.2180  0.0810
87839W        W30756  20.434  12.109  31.063  0.0374 -0.0712  0.1514
87840W        W30757  19.986   9.403  31.234  0.2468 -0.1141  0.2022
87841W        W30758  19.483   7.265  30.951  0.3201 -0.3623  0.1058
87842W        W30759  19.037   9.863  31.434  0.1544  0.1401 -0.2371
87843W        W30760  20.478  10.172   0.313 -0.0395 -0.1545 -0.0154
87844W        W30761  20.188   8.626  30.436 -0.2748 -0.0477  0.1483
87845W        W30762  20.293   8.888  31.793 -0.1784  0.1862 -0.0944
87846W        W30763  19.805  10.215  31.706  0.3638 -0.2326  0.0066
87847W        W30764  19.032  10.363  31.394  0.0187  0.1885 -0.2026
87848W        W30765  19.519   9.388  31.508 -0.1004  0.0661  0.0983
87849W        W30766  17.875   7.180  31.561  0.0926 -0.2148 -0.0942
87850W        W30767  18.110   9.924  28.295  0.0543  0.1435  0.0509
87851W        W30768  17.234   8.310  31.714 -0.0018 -0.1849  0.2557
87852W        W30769  18.247   6.610  29.949 -0.2175  0.2873  0.3628
87853W        W30770  20.759  10.046  31.832 -0.0274 -0.0063 -0.1842
87854W        W30771  21.214  10.327  31.815 -0.1913 -0.0728 -0.0225
87855W        W30772  22.786  10.578  30.194 -0.0404  0.3487 -0.1406
87856W        W30773  17.969  12.818  18.511  0.1195  0.0236 -0.1696
87857W        W30774  17.793  12.254  15.737  0.2007  0.0950 -0.3464
87858W        W30775  19.967  10.572  16.156 -0.3986  0.0236  0.1369
87859W        W30776  20.393  12.853  16.266  0.2743  0.1052  0.1731
87860W        W30777  18.693  11.328  16.864 -0.2101 -0.0393  0.3951
87861W        W30778  19.587  14.946  14.649  0.0384  0.0424  0.1564
87862W        W30779  19.311   9.644  21.692 -0.0805  0.0760  0.0398
87863W        W30780  20.360  13.564  15.400 -0.0604 -0.3659 -0.1798
87864W        W30781  19.495  13.167  15.753  0.3957  0.0499  0.0095
87865W        W30782  19.014  11.789  16.028 -0.1452 -0.0878 -0.1766
87866W        W30783  18.678  10.697  17.771  0.4048  0.0876 -0.1784
87867W        W30784  18.787  13.322  18.718 -0.3113 -0.0550  0.1197
87868W        W30785  18.486  10.640  16.133 -0.0131 -0.1084  0.0161
87869W        W30786  20.433  10.521  17.015  0.4903 -0.0005  0.1328
87870W        W30787  20.267  12.245  19.718 -0.3227 -0.0143  0.1589
87871W        W30788  18.429  13.128  14.742 -0.0283  0.2574  0.4543
87872W        W30789  20.092  11.168  19.360  0.0070  0.0353  0.1869
87873W        W30790  19.664  11.616  17.245 -0.1743  0.0357  0.1127
87874W        W30791  19.935  13.216  16.015  0.0933 -0.1259  0.1954
87875W        W30792  19.072  10.579  18.906  0.4583  0.4139  0.1497
87876W        W30793  19.823   8.470  18.300  0.1088  0.3885  0.2771
87877W        W30794  20.254  14.083  15.775 -0.0270 -0.0250 -0.0158
87878W        W30795  18.514  12.105  16.079  0.0527 -0.0510  0.2373
87879W        W30796  17.049  12.224  17.920  0.3527 -0.0895 -0.0044
87880W        W30797  18.542  11.481  19.070  0.2480 -0.0170  0.0846
87881W        W30798  20.583  12.876  17.302 -0.5908  0.4927 -0.3943
87882W        W30799  21.685  11.502  17.231 -0.1801 -0.2095 -0.2770
87883W        W30800  19.162  14.934  14.908  0.0479  0.0455 -0.3534
87884W        W30801  19.047  13.893  15.042 -0.1317 -0.3913  0.0145
87885W        W30802  20.679  12.441  17.542  0.0693  0.0546  0.0593
87886W        W30803  15.702  11.328  17.330 -0.1386  0.2552  0.0319
87887W        W30804  18.494  12.726  16.884  0.1510  0.1358 -0.1352
87888W        W30805  19.978  13.500  16.441  0.2758 -0.0280  0.2999
87889W        W30806  19.803  14.103  14.413  0.3165 -0.0447  0.1060
87890W        W30807  22.794  14.175  19.038 -0.1233  0.1453 -0.0877
87891W        W30808  21.322  14.424  18.344  0.1277 -0.2804 -0.0377
87892W        W30809  19.280  12.287  16.787 -0.3920 -0.4892 -0.0087
87893W        W30810  19.633  12.644  15.490 -0.1368  0.0775  0.2730
87894W        W30811  18.285  14.470  15.591  0.0722  0.1030  0.1570
87895W        W30812  19.462  12.932  20.285  0.1711 -0.2991 -0.0602
87896W        W30813  19.268  11.670  18.101 -0.1489  0.0423  0.0791
87897W        W30814  18.047  13.981  15.806 -0.1362  0.1145  0.0146
87898W        W30815  22.323  12.188  17.381  0.0005 -0.2240 -0.1644
87899W        W30816  19.607  11.074  20.168  0.2598  0.0068 -0.1089
87900W        W30817  17.607  14.007  15.045  0.0225 -0.0250 -0.2547
87901W        W30818  21.950  11.800  19.299 -0.0694 -0.4431 -0.0376
87902W        W30819  19.062  13.287  16.471 -0.1572  0.0817 -0.2160
87903W        W30820  21.866  11.767  19.790 -0.2260 -0.0679 -0.0176
87904W        W30821  19.520  11.840  16.737 -0.2966  0.1127  0.3716
87905W        W30822  20.029  10.912  18.108 -0.4931  0.2816 -0.2520
87906W        W30823  20.677   9.972  17.090  0.0639 -0.2279 -0.0317
87907W        W30824  18.392  12.211  17.754 -0.0503 -0.1741  0.2108
87908W        W30825  19.035  13.121  18.311 -0.1774  0.2827 -0.0411
87909W        W30826  22.863  14.049  17.717  0.0403 -0.2202  0.2919
87910W        W30827  21.582  13.827  17.467  0.0031 -0.1374 -0.0830
87911W        W30828  20.943   9.940  17.485 -0.2710 -0.0337 -0.2492
87912W        W30829  17.822  12.825  17.419  0.0478  0.1808  0.1983
87913W        W30830  19.397  10.939  17.709  0.0793  0.1097  0.1183
87914W        W30831  20.744  13.476  15.075 -0.0830 -0.1932 -0.1892
87915W        W30832  20.549  13.183  15.875 -0.1633  0.1713 -0.1133
87916W        W30833  18.302  12.406  15.672 -0.0901  0.0524  0.1023
87917W        W30834  15.750  12.526  16.483  0.1952  0.3522 -0.4283
87918W        W30835  18.226  11.844  18.708 -0.0088 -0.0616 -0.1403
87919W        W30836  19.287  12.289  20.082 -0.1209 -0.2186  0.0445
87920W        W30837  19.107  11.023  16.711 -0.0547  0.2221 -0.0119
87921W        W30838  23.915  13.126  19.439  0.3707  0.1812 -0.1564
87922W        W30839  18.539  13.442  16.471  0.1516 -0.2867  0.4948
87923W        W30840  21.248  11.548  16.370 -0.2413 -0.1965 -0.1249
87924W        W30841  21.751  13.140  18.200 -0.0232  0.0076  0.0394
87925W        W30842  21.472  12.583  18.424  0.1994  0.0792  0.1281
87926W        W30843  19.066  12.996  16.039  0.0113  0.0357  0.0562
87927W        W30844  21.181   9.566  17.171 -0.3135  0.0799 -0.0658
87928W        W30845  21.180  11.532  18.733 -0.1838 -0.1193 -0.1226
87929W        W30846  20.369  11.985  16.713 -0.0229  0.0395 -0.0623
87930W        W30847  18.439  12.232  17.002 -0.0246 -0.0693  0.0836
87931W        W30848  20.346  13.407  19.209 -0.3361  0.1567 -0.1679
87932W        W30849  20.137  14.125  14.805  0.1064 -0.2407  0.2628
87933W        W30850  17.217  13.751  14.811 -0.2254 -0.0544  0.0252
87934W        W30851  19.705  10.806  19.036  0.1875 -0.1016 -0.1181
87935W        W30852  19.305  13.751  20.151 -0.1042  0.0726 -0.1158
87936W        W30853  17.862  13.789  14.230  0.1350  0.2615  0.4122
87937W        W30854  19.385  13.001  18.683 -0.0013  0.1432  0.0276
87938W        W30855  17.907  12.643  16.755  0.0612 -0.1791 -0.1056
87939W        W30856  19.521  12.158  18.298 -0.3706  0.1883  0.0179
87940W        W30857  21.326  13.504  18.774 -0.0786  0.3668 -0.0210
87941W        W30858  19.201   9.510  17.934  0.0928  0.1366  0.0293
87942W        W30859  19.122  11.209  19.025 -0.1669  0.2527  0.0567
87943W        W30860  23.116  11.115  17.487  0.0449  0.0800  0.0040
87944W        W30861  17.471  12.737  17.022  0.0567  0.1841 -0.1750
87945W        W30862  20.123  14.577  14.600  0.1620  0.0016  0.1378
87946W        W30863  20.812  11.730  16.510 -0.0399  0.1830 -0.2944
87947W        W30864  20.189  14.301  14.152 -0.1381  0.2216  0.1781
87948W        W30865  19.601  11.262  18.777  0.1384 -0.2033  0.0842
87949W        W30866  20.195  12.715  17.712 -0.0120  0.0006 -0.0662
87950W        W30867  18.776  12.819  17.865  0.1169 -0.0591 -0.1509
87951W        W30868  18.884  12.277  17.817 -0.0889  0.3491 -0.1540
87952W        W30869  22.734  12.176  19.518 -0.1558 -0.0117  0.2225
87953W        W30870  18.357  10.409  15.682  0.3035  0.1959 -0.1057
87954W        W30871  19.002  13.343  15.087 -0.2115 -0.1228 -0.1139
87955W        W30872  20.926  12.590  18.507 -0.0854 -0.1500 -0.1275
87956W        W30873  16.616  15.066  14.313  0.2465  0.0320 -0.0012
87957W        W30874  21.974  10.072  19.964  0.2178 -0.3372 -0.0504
87958W        W30875  18.072  14.313  15.197 -0.1981 -0.2632  0.3650
87959W        W30876  20.694  13.389  21.723 -0.1504  0.0380 -0.4722
87960W        W30877  22.139  14.713  16.936  0.2948  0.1323 -0.0181
87961W        W30878  19.564  10.218  17.720  0.0584  0.3622 -0.1234
87962W        W30879  18.841  10.867  15.897 -0.0222 -0.1725  0.1110
87963W        W30880  17.179  12.116  17.115 -0.0334  0.2196  0.2368
87964W        W30881  20.197  11.568  20.614 -0.0596 -0.0713  0.3492
87965W        W30882  19.906  11.678  16.407 -0.3639  0.0845  0.1861
87966W        W30883  21.606  10.331  19.617 -0.0308 -0.0044  0.1787
87967W        W30884  19.535  12.373  16.362  0.2834  0.0628 -0.1295
87968W        W30885  18.767  11.444  17.380  0.1073  0.0259  0.0142
87969W        W30886  19.284  11.258  21.363 -0.2098  0.3675  0.1700
87970W        W30887  21.798  15.030  19.825  0.0166 -0.0021 -0.0788
87971W        W30888  23.099  12.350  18.766 -0.0343 -0.3455  0.0680
87972W        W30889  19.110   8.277  17.038 -0.0331 -0.0634 -0.3134
87973W        W30890  19.820  12.569  18.029  0.0028 -0.0584  0.1286
87974W        W30891  16.997  13.278  15.683  0.0518  0.3363  0.0494
87975W        W30892  17.746  11.429  17.223  0.5413 -0.0404 -0.2266
87976W        W30893  17.603  13.015  15.482 -0.2354 -0.4091  0.1395
87977W        W30894  20.972  11.156  18.424 -0.2842 -0.0497  0.0478
87978W        W30895  19.272  12.951  19.447 -0.1604 -0.3294  0.1475
87979W        W30896  19.760  13.322  18.627 -0.1575 -0.1844 -0.4690
87980W        W30897  19.393  12.760  17.162  0.0467 -0.2726  0.4029
87981W        W30898  19.403  13.496  18.186 -0.0447  0.3005 -0.0015
87982W        W30899  19.517   8.547  17.162 -0.0716  0.1144 -0.0045
87983W        W30900  21.966  10.809  16.226  0.0727  0.0786 -0.1722
87984W        W30901  21.127  13.221  21.467 -0.0582  0.1967 -0.3351
87985W        W30902  21.304  14.396  16.371 -0.2137  0.0006  0.1198
87986W        W30903  20.852  10.751  17.593  0.0307  0.0977  0.1153
87987W        W30904  20.222  10.007  16.840  0.0625  0.0022 -0.0801
87988W        W30905  18.211  13.307  17.774 -0.0154  0.3706  0.0615
87989W        W30906  19.046  14.733  16.282  0.5123  0.0455 -0.1702
87990W        W30907  20.218  10.455  20.307 -0.0218  0.4511  0.0062
87991W        W30908  19.653  11.344  16.000  0.0479 -0.0283 -0.2782
87992W        W30909  20.422  14.048  15.227 -0.0963 -0.0793 -0.1329
87993W        W30910  17.282  12.752  16.531 -0.4377  0.1710 -0.0457
87994W        W30911  21.755  12.881  18.742  0.1854  0.0187  0.1465
87995W        W30912  21.837  14.589  16.481  0.0220  0.0489 -0.0956
87996W        W30913  19.969  12.857  16.499  0.0169 -0.1598 -0.2035
87997W        W30914  18.757  12.537  15.337 -0.0195  0.2168 -0.0109
87998W        W30915  19.958  11.336  16.827 -0.0959  0.1009  0.4088
87999W        W30916  17.454  13.217  13.715 -0.3532  0.1827  0.0368
88000W        W30917  21.955  11.360  19.020  0.0547 -0.4735  0.0233
88001W        W30918  21.299  11.534  18.251  0.1879 -0.4448 -0.1315
88002W        W30919  20.864   8.836  18.178  0.0957  0.0886 -0.1117
88003W        W30920  21.200  10.989  19.425  0.4782  0.1159 -0.0186
88004W        W30921  19.416  11.870  16.259 -0.3861  0.0725 -0.0511
88005W        W30922  18.876  11.792  17.812 -0.1069  0.0416  0.0720
88006W        W30923  17.096  11.521  16.144  0.2394 -0.2932 -0.1074
88007W        W30924  19.002  10.818  18.223 -0.0267  0.0679  0.0208
88008W        W30925  19.894  13.203  19.548  0.0883 -0.0168 -0.0497
88009W        W30926  17.546  15.189  15.359 -0.0756  0.1870  0.0630
88010W        W30927  22.130  13.751  19.368  0.0491 -0.0818  0.0733
88011W        W30928  22.366  14.907  17.887 -0.2214  0.0253  0.3600
88012W        W30929  22.214  13.554  18.859  0.0672  0.1932 -0.0676
88013W        W30930  19.062  10.613  16.354  0.4110 -0.1724  0.0701
88014W        W30931  18.505  13.514  15.483 -0.2657  0.1139 -0.0285
88015W        W30932  18.376  12.943  15.646 -0.0336  0.1341 -0.2396
88016W        W30933  19.723  11.475  18.362 -0.0184 -0.1093 -0.0120
88017W        W30934  19.148  13.335  17.092 -0.0375 -0.1287 -0.2595
88018W        W30935  18.645  13.570  14.851  0.0306  0.1484  0.0919
88019W        W30936  20.659  10.993  19.305  0.2052  0.1963  0.4204
88020W        W30937  18.380  11.914  16.488 -0.0872 -0.0775  0.0400
88021W        W30938  19.764  10.863  18.514 -0.0679 -0.0839  0.0991
88022W        W30939  16.918  13.375  14.541  0.1237 -0.4052 -0.1444
88023W        W30940  19.241  12.369  15.217  0.1070 -0.1980 -0.4411
88024W        W30941  18.170  11.887  15.768 -0.0333  0.0872 -0.0754
88025W        W30942  20.251  11.657  18.499 -0.0500 -0.1072  0.0652
88026W        W30943  21.539  12.582  16.313 -0.0582 -0.2191 -0.1389
88027W        W30944  19.716  13.337  17.829  0.2372  0.1517  0.2838
88028W        W30945  21.606  12.334  17.530 -0.1252 -0.0913 -0.1501
88029W        W30946  17.630  12.495  18.250  0.2382  0.0434  0.1423
88030W        W30947  19.015  12.893  18.972 -0.0440  0.1108  0.1695
88031W        W30948  20.941  12.130  18.210 -0.1647  0.0398 -0.1547
88032W        W30949  21.837  12.187  18.388  0.2195  0.3903 -0.0298
88033W        W30950  21.372  13.240  17.847  0.1565 -0.0049 -0.0359
88034W        W30951  19.478  10.387  16.187  0.2069 -0.3516  0.1913
88035W        W30952  21.011  10.354  17.857  0.0996 -0.1079  0.0589
88036W        W30953  18.397  11.724  17.624 -0.0788 -0.4939 -0.1881
88037W        W30954  17.198  11.185  19.312 -0.0647  0.0334  0.2230
88038W        W30955  20.462  13.023  16.765  0.0936 -0.0558  0.1395
88039W        W30956  19.630  12.247  15.880 -0.2191  0.2123  0.2274
88040W        W30957  18.580  12.563  17.447 -0.1312  0.2475  0.0654
88041W        W30958  19.455  12.516  18.716 -0.1110  0.2931  0.2162
88042W        W30959  20.544  11.251  17.797  0.2701  0.1152 -0.0130
88043W        W30960  18.088  12.398  16.201 -0.3363  0.1384 -0.0568
88044W        W30961  19.172  11.357  17.633 -0.0289 -0.1019 -0.0561
88045W        W30962  17.873  13.149  19.133 -0.1825  0.1573 -0.1681
88046W        W30963  20.472  14.700  14.980 -0.0642 -0.2556  0.1282
88047W        W30964  20.722  12.212  16.364  0.1386 -0.2139  0.1810
88048W        W30965  19.536  13.205  17.346 -0.3414 -0.1140 -0.2182
88049W        W30966  20.821   9.410  18.016  0.1366 -0.2390 -0.0809
88050W        W30967  22.305  14.272  15.225  0.0510  0.2274 -0.0315
88051W        W30968  21.093  11.441  19.681 -0.1870 -0.0223 -0.2700
88052W        W30969  17.531  12.375  16.177  0.1095  0.1338  0.1324
88053W        W30970  18.119  10.158  16.149  0.0128 -0.0652 -0.0584
88054W        W30971  20.563  13.721  18.329 -0.2408  0.2226 -0.4857
88055W        W30972  17.645   9.708  19.379 -0.1412 -0.0798  0.1589
88056W        W30973  19.831  12.474  20.041 -0.2085 -0.0122  0.3497
88057W        W30974  17.628  13.523  14.637  0.0403 -0.2475 -0.1057
88058W        W30975  19.062  12.245  18.973  0.3646 -0.0996  0.2571
88059W        W30976  20.532   9.647  16.711 -0.0641 -0.0029  0.2829
88060W        W30977  19.409  12.698  15.998 -0.0763 -0.0171  0.1751
88061W        W30978  19.196  14.523  15.707 -0.3675  0.0453  0.1235
88062W        W30979  23.799  11.503  18.068  0.1735 -0.0121  0.0796
88063W        W30980  18.942  12.947  16.826 -0.0381  0.1764 -0.0639
88064W        W30981  21.213  10.674  21.760  0.0718 -0.0556  0.1615
88065W        W30982  20.224  10.814  18.988 -0.1352 -0.1336  0.0281
88066W        W30983  21.097  12.242  17.313 -0.3183  0.2049 -0.0640
88067W        W30984  17.614  10.459  19.930 -0.4735 -0.0244  0.2589
88068W        W30985  22.410  15.006  18.681  0.0036 -0.0330 -0.1852
88069W        W30986  18.975  11.489  19.402  0.2301  0.0643 -0.0514
88070W        W30987  20.580  11.199  17.320 -0.0692 -0.1839  0.0906
88071W        W30988  19.726  12.327  17.423  0.4386 -0.0916 -0.0986
88072W        W30989  18.099  12.014  17.364  0.1253  0.2419  0.1576
88073W        W30990  22.321  12.311  18.217 -0.1764 -0.1920 -0.1474
88074W        W30991  19.595  14.480  14.752  0.4183 -0.0935 -0.2409
88075W        W30992  20.058  12.401  15.536 -0.1541  0.0461  0.0250
88076W        W30993  19.654  12.912  19.876 -0.0004 -0.0545  0.0344
88077W        W30994  22.692  10.789  17.685  0.1379  0.1834 -0.1326
88078W        W30995  22.289  12.089  16.293  0.0878  0.0476 -0.2571
88079W        W30996  17.429  11.797  16.871 -0.1173 -0.1535  0.0197
88080W        W30997  21.616  10.050  18.679  0.0705  0.1032 -0.2518
88081W        W30998  21.341  13.071  18.525 -0.1249  0.1387  0.0484
88082W        W30999  21.793  11.740  18.087 -0.0738 -0.1147 -0.1753
88083W        W31000  19.480  10.316  18.544 -0.2636  0.0865 -0.0767
88084W        W31001  20.113  11.415  18.045 -0.0386 -0.1666  0.1920
88085W        W31002  20.846  10.088  19.307  0.2854  0.2847 -0.0416
88086W        W31003  18.336   9.277  19.135 -0.0985  0.1033 -0.1566
88087W        W31004  21.984  12.146  20.085 -0.0755  0.0010  0.1224
88088W        W31005  21.630  11.664  16.742 -0.3760  0.0436 -0.1580
88089W        W31006  21.396  12.249  19.249 -0.0942  0.0568 -0.1018
88090W        W31007  21.632  11.105  17.541  0.0966 -0.0373 -0.1279
88091W        W31008  21.355  10.816  18.307  0.0337 -0.0334 -0.1134
88092W        W31009  17.691  12.789  17.891 -0.0342 -0.2110  0.1647
88093W        W31010  20.432  11.657  20.033  0.0568 -0.5037  0.2546
88094W        W31011  20.805  11.652  17.342 -0.2188 -0.1462 -0.1181
88095W        W31012  21.745   8.922  19.386  0.1142  0.0988  0.1332
88096W        W31013  18.926  12.952  17.357 -0.0166  0.0763 -0.1287
88097W        W31014  20.751  13.699  16.700 -0.0153 -0.2211 -0.2467
88098W        W31015  19.968  14.088  17.122 -0.2432 -0.0803  0.1303
88099W        W31016  18.849  11.961  16.879 -0.2032  0.1709 -0.1608
88100W        W31017  17.980  13.228  17.167  0.0466  0.0455 -0.1594
88101W        W31018  18.925   9.668  16.403  0.0118  0.0112 -0.0192
88102W        W31019  19.709  12.793  17.632  0.3044  0.0168 -0.1477
88103W        W31020  19.204  12.616  18.083 -0.0723 -0.0911  0.1995
88104W        W31021  21.314  11.814  20.832 -0.1193 -0.2837  0.0857
88105W        W31022  19.962   9.496  16.425  0.0503 -0.1015  0.0210
88106W        W31023  21.399   9.961  17.819 -0.3123 -0.2051  0.2873
88107W        W31024  16.838  11.862  15.138  0.2270 -0.1422  0.1417
88108W        W31025  21.343  10.760  17.766 -0.1703  0.1201  0.0179
88109W        W31026  18.007  15.911  14.706  0.3384  0.0065 -0.0044
88110W        W31027  16.438  12.837  15.668 -0.1722  0.0171 -0.0298
88111W        W31028  19.232  13.036  17.813  0.0325  0.1208  0.4695
88112W        W31029  20.735  12.579  16.028  0.0175  0.2787 -0.0637
88113W        W31030  20.044  13.063  18.080  0.0954 -0.3026  0.0073
88114W        W31031  19.671  14.596  16.495 -0.1487  0.2260 -0.1747
88115W        W31032  20.982  10.276  20.106  0.1331 -0.0726 -0.0505
88116W        W31033  21.363  13.463  20.297  0.0462 -0.2262  0.0076
88117W        W31034  17.136  13.191  16.760 -0.2076  0.3229 -0.1828
88118W        W31035  21.470  13.714  16.997 -0.0080 -0.1195  0.3364
88119W        W31036  20.044  12.997  17.299  0.0473 -0.0045 -0.0443
88120W        W31037  19.372  12.112  17.803  0.3501 -0.0462  0.1013
88121W        W31038  18.740   9.656  17.770  0.0932 -0.0892 -0.1145
88122W        W31039  20.052  11.278  17.453  0.1346 -0.0084  0.0726
88123W        W31040  20.897  12.946  18.846 -0.4770  0.0644  0.0497
88124W        W31041  20.373  11.732  17.675 -0.0989  0.0201  0.4077
88125W        W31042  17.999  15.233  14.615 -0.1677 -0.1119  0.1298
88126W        W31043  16.635  10.391  18.092 -0.1977 -0.4473  0.1959
88127W        W31044  18.197  13.230  18.709 -0.1277 -0.2513  0.2487
88128W        W31045  20.555  13.443  16.316 -0.0386  0.0910 -0.2833
88129W        W31046  20.690  13.949  14.821  0.0809  0.2470 -0.0832
88130W        W31047  19.384  13.626  15.332  0.0701 -0.0287  0.1027
88131W        W31048  21.813  14.140  16.993  0.3157 -0.1873  0.0765
88132W        W31049  18.903  12.498  17.088  0.0413  0.0231 -0.0473
88133W        W31050  18.580  14.010  15.108  0.1238  0.0840 -0.2011
88134W        W31051  18.013  13.271  15.486 -0.0884  0.0553 -0.0053
88135W        W31052  19.606  13.898  14.852  0.0994  0.1927  0.2317
88136W        W31053  19.330  13.862  14.181  0.0816 -0.1393  0.0202
88137W        W31054  21.596  12.259  21.645  0.0543  0.0208  0.0002
88138W        W31055  20.742  11.847  15.435 -0.2349  0.1438 -0.0033
88139W        W31056  21.802  12.293  19.589 -0.1812  0.0262  0.0978
88140W        W31057  22.370   9.935  17.996  0.0186 -0.0401  0.4284
88141W        W31058  20.519  11.279  19.726 -0.0452  0.1004 -0.4066
88142W        W31059  19.550  11.040  17.108  0.1199  0.0016  0.2514
88143W        W31060  20.008  12.679  16.011 -0.1347  0.1395 -0.1107
88144W        W31061  20.230  11.620  19.517 -0.0409  0.0812 -0.0672
88145W        W31062  22.663  11.044  23.889 -0.1677 -0.0873 -0.0523
88146W        W31063  18.199  12.984  16.079 -0.1431  0.0838  0.0041
88147W        W31064  19.928  14.111  16.553  0.0431  0.1024 -0.2206
88148W        W31065  18.724  10.775  16.837 -0.0357 -0.1975  0.0921
88149W        W31066  19.978  11.906  18.141  0.0296 -0.2210  0.2688
88150W        W31067  21.463  10.597  19.221 -0.0816 -0.2318  0.0349
88151W        W31068  21.191  11.716  16.955  0.1936 -0.0006 -0.2186
88152W        W31069  22.903  11.817  19.025 -0.0959  0.1174  0.2500
88153W        W31070  17.906  16.193  15.550  0.0901 -0.1611  0.0397
88154W        W31071  17.668  13.082  16.677 -0.0017 -0.1076 -0.1220
88155W        W31072  17.942  11.752  16.921  0.0716 -0.0068 -0.1165
88156W        W31073  18.485  11.149  15.435  0.0634 -0.2851  0.0654
88157W        W31074  21.326  12.648  16.918  0.1517 -0.0118  0.0814
88158W        W31075  16.602  11.738  17.026 -0.3173 -0.0330 -0.1355
88159W        W31076  23.222  11.320  19.502 -0.1023  0.0356  0.0542
88160W        W31077  20.025  10.906  16.594 -0.3900  0.0652 -0.1217
88161W        W31078  21.045  12.602  16.467  0.0137 -0.1315  0.2558
88162W        W31079  20.163  12.794  19.883 -0.0815 -0.0133 -0.0533
88163W        W31080  18.122  12.537  17.201 -0.4083 -0.1328 -0.2664
88164W        W31081  22.033  12.521  16.299  0.0111 -0.1242  0.0658
88165W        W31082  21.620  13.579  19.341 -0.1717  0.2639 -0.2016
88166W        W31083  19.772  12.172  15.189  0.5128 -0.0083  0.0845
88167W        W31084  23.232  13.831  18.971 -0.0531 -0.0165  0.0871
88168W        W31085  18.651  13.689  16.891  0.1700  0.0802 -0.1797
88169W        W31086  20.319  11.592  17.123 -0.2204  0.3290  0.0224
88170W        W31087  18.711  12.085  15.536 -0.0568 -0.1833  0.3143
88171W        W31088  20.160  11.177  18.676 -0.0384  0.0481  0.0873
88172W        W31089  23.290  14.248  17.996 -0.0139  0.1637  0.1377
88173W        W31090  19.140  11.158  16.198  0.1728  0.1101 -0.0486
88174W        W31091  19.592  13.403  14.853 -0.1814 -0.1383  0.4575
88175W        W31092  21.255   9.232  18.286  0.1825 -0.3132  0.2344
88176W        W31093  18.988  13.833  15.530  0.3151  0.1868  0.1603
88177W        W31094  20.300  14.310  16.840 -0.0152 -0.0672 -0.0256
88178W        W31095  21.447  14.618  16.740  0.1612 -0.1055 -0.0612
88179W        W31096  17.796  11.579  16.495 -0.2153 -0.0092  0.1312
88180W        W31097  19.517  11.993  21.227  0.0146 -0.0308  0.2468
88181W        W31098  20.180  13.026  18.940 -0.1869 -0.1299  0.0415
88182W        W31099  19.505   9.737  17.609 -0.0796 -0.1835 -0.1035
88183W        W31100  18.660  13.246  15.956  0.0892  0.0146  0.0014
88184W        W31101  18.548  12.455  14.712  0.0616 -0.2627 -0.1578
88185W        W31102  23.504  12.261  17.820 -0.0309  0.1782 -0.1128
88186W        W31103  20.021  10.303  17.507 -0.5048  0.2788  0.4933
88187W        W31104  18.757  13.233  14.345 -0.3432 -0.2263  0.0170
88188W        W31105  20.883   9.935  20.644  0.0610  0.0826 -0.1352
88189W        W31106  21.935  14.058  17.864 -0.3392 -0.1067  0.0980
88190W        W31107  20.751  14.317  18.470  0.0330  0.1003  0.1644
88191W        W31108  17.611  12.248  15.043  0.0024  0.3313  0.2598
88192W        W31109  19.265  13.548  18.667  0.2021 -0.2235 -0.1483
88193W        W31110  19.096  14.407  14.918 -0.0397 -0.1620  0.1463
88194W        W31111  19.354  14.184  15.302  0.0148  0.3379  0.1184
88195W        W31112  20.451  12.049  18.114 -0.0327 -0.2067 -0.0517
88196W        W31113  20.185  12.487  17.233  0.1874  0.1406  0.1645
88197W        W31114  21.629  12.912  17.199  0.0469  0.0755 -0.2252
88198W        W31115  19.273  12.015  15.619 -0.0409 -0.0268 -0.2885
88199W        W31116  20.831  11.615  18.170  0.1199  0.1292  0.1527
88200W        W31117  20.876  11.249  16.614 -0.0597 -0.0515  0.2471
88201W        W31118  19.392  10.794  19.827  0.1875 -0.2637  0.1700
88202W        W31119  19.519   9.196  16.706  0.1571 -0.0675 -0.0974
88203W        W31120  19.032  12.312  15.962 -0.0161  0.1080 -0.1594
88204W        W31121  19.203  12.553  17.577 -0.0157  0.0931 -0.3493
88205W        W31122  19.297  10.895  18.641  0.1346  0.1585 -0.0998
88206W        W31123  19.046  10.955  17.266  0.1355  0.2764  0.0064
88207W        W31124  17.897  12.703  15.829  0.2126  0.3399  0.0305
88208W        W31125  18.596  10.155  16.255 -0.1196  0.0245  0.1829
88209W        W31126  22.856  13.799  16.337  0.2476  0.1755  0.0241
88210W        W31127  18.240  11.412  16.613 -0.0634  0.1837 -0.0381
88211W        W31128  16.853  11.333  16.860  0.0785 -0.1554 -0.1757
88212W        W31129  20.936  12.830  15.594 -0.3185 -0.0678  0.1284
88213W        W31130  22.455  14.662  17.354 -0.2981 -0.3235  0.0663
88214W        W31131  19.467  10.230  16.683 -0.0749 -0.2750 -0.2577
88215W        W31132  22.440  12.984  17.573 -0.0089 -0.1723  0.0333
88216W        W31133  17.567  13.531  15.134  0.2039 -0.0260  0.1751
88217W        W31134  20.077  12.437  18.942 -0.0878 -0.2762  0.2076
88218W        W31135  18.806   9.649  19.380 -0.0292 -0.0004  0.0266
88219W        W31136  18.762   9.744  15.923  0.0674 -0.0920 -0.1118
88220W        W31137  19.154  12.842  15.409  0.0071  0.0508 -0.3663
88221W        W31138  21.324  12.683  18.873 -0.2336  0.6364  0.1527
88222W        W31139  20.275  13.662  14.954 -0.1203  0.1467 -0.0849
88223W        W31140  19.692  13.797  18.416  0.0020 -0.2395  0.2568
88224W        W31141  17.174  12.701  17.941 -0.2298  0.0544 -0.1894
88225W        W31142  19.049   9.234  16.858 -0.3054 -0.0419 -0.1771
88226W        W31143  19.058  12.613  16.386 -0.0960  0.0822 -0.1552
88227W        W31144  18.859  10.971  19.531 -0.1059  0.0933  0.0199
88228W        W31145  21.250  13.660  15.735 -0.0083 -0.1863  0.0149
88229W        W31146  20.475  11.448  19.077 -0.0165  0.1211  0.3180
88230W        W31147  19.009  13.346  15.620 -0.2556 -0.0894  0.0194
88231W        W31148  20.871  10.872  19.798 -0.1607 -0.0748 -0.1182
88232W        W31149  20.030  10.374  19.242 -0.2167  0.3532 -0.0687
88233W        W31150  21.822  13.314  17.081  0.1820 -0.1410  0.1041
88234W        W31151  19.836  11.909  17.692  0.1031  0.1458 -0.0414
88235W        W31152  20.481  11.691  15.787  0.1759  0.1276 -0.1552
88236W        W31153  20.285  13.792  14.451  0.1753 -0.1550  0.1711
88237W        W31154  19.073  11.507  16.572 -0.2399 -0.2607  0.0060
88238W        W31155  20.193  12.233  17.748  0.0447 -0.0851  0.3641
88239W        W31156  18.962  10.920  20.147  0.2529 -0.1663 -0.2375
88240W        W31157  21.372  11.809  17.416  0.0722 -0.5816  0.3111
88241W        W31158  22.237  14.614  20.583  0.1130 -0.1677 -0.0911
88242W        W31159  18.751  12.050  17.406  0.0411 -0.2211  0.0914
88243W        W31160  23.088  12.776  16.402  0.2712  0.1200 -0.1411
88244W        W31161  22.221  11.786  18.465  0.0453  0.2074 -0.1477
88245W        W31162  24.462  13.436  17.688 -0.0856  0.0257 -0.0943
88246W        W31163  21.959  13.747  18.393  0.0807  0.3351  0.0465
88247W        W31164  22.549  12.997  18.092 -0.4773  0.1518  0.0877
88248W        W31165  18.328   8.757  19.410 -0.3948  0.0356  0.2558
88249W        W31166  18.704  12.681  15.969  0.1699  0.3675  0.0196
88250W        W31167  18.213  13.501  15.096 -0.0696 -0.1641  0.5394
88251W        W31168  19.567  10.321  19.654  0.0495 -0.0424  0.2248
88252W        W31169  18.689  12.138  18.712  0.1898 -0.0662  0.1553
88253W        W31170  21.267  10.311  17.438  0.1033 -0.1850 -0.0736
88254W        W31171  19.867  13.563  15.644  0.0007 -0.1427  0.0208
88255W        W31172  22.793  11.871  18.150  0.2195  0.1279  0.1381
88256W        W31173  20.184  13.035  23.145 -0.1415 -0.0209 -0.1794
88257W        W31174  19.019  12.887  21.177 -0.0199 -0.2491  0.0398
88258W        W31175  21.879  12.670  19.966 -0.1272  0.2022  0.0805
88259W        W31176  22.170  12.897  20.361  0.1145 -0.0915 -0.1426
88260W        W31177  19.547   8.785  21.532  0.1838  0.0372 -0.0345
88261W        W31178  21.923  13.257  19.131 -0.0219 -0.0232  0.1807
88262W        W31179  21.440  11.277  22.964  0.1986  0.1835 -0.0860
88263W        W31180  22.756  13.144  21.338  0.0703 -0.1717 -0.2390
88264W        W31181  21.228  12.057  20.415  0.0830  0.0449  0.1280
88265W        W31182  19.735  11.724  20.735 -0.0083  0.0656  0.1809
88266W        W31183  18.939  12.123  23.974  0.0390  0.1204  0.2082
88267W        W31184  21.358  14.477  22.470  0.0436  0.0777  0.1724
88268W        W31185  19.090  11.425  20.335  0.0349  0.1962 -0.3455
88269W        W31186  17.793   9.926  21.757  0.1010 -0.1659  0.3528
88270W        W31187  21.075  11.421  20.994 -0.2822  0.0990 -0.1170
88271W        W31188  16.507  10.539  18.556  0.0081  0.1209 -0.0756
88272W        W31189  18.539  10.304  20.861  0.2083 -0.3022  0.3282
88273W        W31190  20.615  11.868  19.595  0.0343  0.3316  0.1781
88274W        W31191  21.066  13.655  17.779  0.3061  0.1108 -0.0173
88275W        W31192  19.984   9.696  22.242  0.1419  0.0088 -0.2260
88276W        W31193  20.634   9.510  23.103 -0.1344  0.0698 -0.0981
88277W        W31194  18.702  14.319  17.760  0.0270 -0.2747 -0.0912
88278W        W31195  20.123   9.983  18.931 -0.1585 -0.0737  0.0616
88279W        W31196  16.437  12.141  20.811  0.0220  0.1820 -0.1462
88280W        W31197  20.892  12.843  21.819  0.0406 -0.0257  0.1897
88281W        W31198  22.684  11.439  21.898  0.1692 -0.0440 -0.0676
88282W        W31199  18.275  10.273  19.414  0.1176 -0.0371 -0.0882
88283W        W31200  18.677  10.547  18.592 -0.0037 -0.0707 -0.2072
88284W        W31201  22.947  13.580  22.139 -0.0089  0.1033  0.0052
88285W        W31202  19.681  11.153  22.318 -0.2256 -0.0557 -0.2903
88286W        W31203  18.547  12.066  22.166 -0.0469  0.0070 -0.3480
88287W        W31204  18.592  13.851  19.463  0.2370 -0.0664 -0.0989
88288W        W31205  19.753  13.907  20.000  0.0081 -0.1147 -0.1006
88289W        W31206  21.932  14.854  18.325 -0.0770  0.0212 -0.0563
88290W        W31207  21.909  12.852  22.366  0.0344 -0.2359 -0.0683
88291W        W31208  20.014  12.815  21.537  0.1378 -0.2843  0.0003
88292W        W31209  17.823  14.955  15.765 -0.3000  0.0083 -0.0353
88293W        W31210  18.167  12.073  21.319 -0.0150 -0.0275 -0.0811
88294W        W31211  20.672  13.039  21.380  0.4342 -0.0718  0.0898
88295W        W31212  20.897  10.848  22.834  0.0499  0.1285  0.1259
88296W        W31213  21.158  12.916  20.233 -0.0069  0.0773 -0.3925
88297W        W31214  18.684  12.945  16.358 -0.1023  0.0994  0.1688
88298W        W31215  22.128  11.308  20.708  0.0171  0.0608  0.1642
88299W        W31216  19.102  11.851  22.293 -0.2319 -0.0622 -0.0503
88300W        W31217  20.128  11.969  20.985  0.4333 -0.2737  0.1651
88301W        W31218  21.809  10.380  25.977  0.0519 -0.3051 -0.0544
88302W        W31219  19.687  13.372  20.075  0.4272 -0.0786  0.3556
88303W        W31220  20.870  12.431  19.038 -0.0304 -0.0600 -0.3274
88304W        W31221  21.400  10.039  19.220 -0.1349 -0.2836 -0.0224
88305W        W31222  18.731  10.094  19.618  0.5233 -0.0392 -0.0773
88306W        W31223  20.401   9.948  20.403 -0.0200 -0.1586  0.1212
88307W        W31224  21.239  14.045  19.728 -0.0987 -0.0040 -0.1003
88308W        W31225  20.100   8.970  22.616 -0.0410 -0.2500 -0.0306
88309W        W31226  22.425  11.877  21.648 -0.0619 -0.1373 -0.2006
88310W        W31227  21.533  13.973  18.582  0.0536 -0.3410  0.2332
88311W        W31228  21.150   9.461  21.937 -0.0550  0.0140 -0.1051
88312W        W31229  21.079  13.143  20.714  0.1710 -0.1444 -0.2229
88313W        W31230  18.724  11.444  20.031  0.0013  0.2043  0.0829
88314W        W31231  21.052  13.660  20.701 -0.0236  0.0931  0.0454
88315W        W31232  21.197  15.362  20.170  0.0201 -0.0006 -0.1906
88316W        W31233  20.565  13.375  19.679  0.0150  0.2867  0.0478
88317W        W31234  17.721  12.207  21.109  0.3051 -0.1433 -0.0372
88318W        W31235  18.502  12.210  23.012 -0.1754  0.1528 -0.0613
88319W        W31236  19.599  12.560  20.546 -0.2719  0.0944 -0.1419
88320W        W31237  20.474  10.852  20.934  0.2737  0.0465  0.0373
88321W        W31238  22.339  13.845  21.763 -0.2401 -0.2986 -0.0533
88322W        W31239  19.397  14.255  22.334  0.0315 -0.0027 -0.1719
88323W        W31240  19.435  12.354  19.248  0.0157  0.2609 -0.0075
88324W        W31241  20.524  12.253  20.795 -0.0793 -0.1319  0.1935
88325W        W31242  23.345  11.426  21.052  0.1638 -0.1142  0.1970
88326W        W31243  21.536  12.722  17.905  0.2420 -0.2243 -0.0613
88327W        W31244  21.493  12.082  22.138 -0.0125 -0.0982 -0.0856
88328W        W31245  20.986   8.927  22.617 -0.1404  0.2133  0.3806
88329W        W31246  18.519  12.849  18.721  0.0832 -0.1679 -0.0454
88330W        W31247  20.622  12.902  20.130 -0.2038 -0.1430  0.0555
88331W        W31248  19.651  13.194  21.467  0.0146  0.2171  0.1212
88332W        W31249  20.826  11.010  21.575 -0.1680  0.1047 -0.1339
88333W        W31250  20.359  14.236  20.251 -0.0113 -0.0702  0.0092
88334W        W31251  20.422   9.915  22.819 -0.1193  0.0016  0.1344
88335W        W31252  20.213  12.575  22.778 -0.0558  0.1485 -0.1950
88336W        W31253  17.966  11.863  17.886  0.3146  0.1410 -0.4171
88337W        W31254  20.035  13.615  20.348  0.0785  0.0381 -0.1954
88338W        W31255  18.135  12.393  18.163 -0.0376  0.0909 -0.1369
88339W        W31256  15.708  10.867  19.895  0.1601  0.2153  0.2257
88340W        W31257  20.730  12.435  22.389 -0.1070 -0.1984  0.1072
88341W        W31258  21.749  11.262  19.867  0.1704 -0.0842 -0.1890
88342W        W31259  17.209  10.910  20.896 -0.1455  0.1312 -0.0907
88343W        W31260  22.221  11.048  20.332 -0.2038  0.0562 -0.0145
88344W        W31261  20.849  13.764  19.650  0.1275  0.2213  0.1201
88345W        W31262  22.744  15.656  20.922  0.0729 -0.1824  0.2199
88346W        W31263  20.583  12.109  20.055 -0.0623  0.1087  0.0242
88347W        W31264  20.981  13.812  18.629  0.1339 -0.1784 -0.2334
88348W        W31265  18.725  11.292  20.988 -0.2570 -0.0159  0.0356
88349W        W31266  19.110  11.748  21.355  0.0758 -0.1863 -0.0870
88350W        W31267  20.130  11.831  22.974 -0.1049  0.0530  0.3276
88351W        W31268  18.178  11.376  20.112 -0.0233 -0.1918 -0.0878
88352W        W31269  22.006  11.568  23.688  0.0933 -0.1363  0.0866
88353W        W31270  17.830  11.009  20.217 -0.1981  0.1873 -0.0866
88354W        W31271  20.748  11.859  20.980 -0.2137 -0.2728 -0.3555
88355W        W31272  20.949  10.854  21.097  0.0213  0.1346  0.1454
88356W        W31273  17.574  13.479  18.363 -0.0037 -0.2426 -0.0274
88357W        W31274  20.617   8.971  23.343  0.2371 -0.1517  0.1716
88358W        W31275  20.806  14.660  15.639 -0.0575 -0.0656  0.1381
88359W        W31276  21.058  14.828  22.658  0.0596  0.0630 -0.2094
88360W        W31277  22.610  13.889  19.502  0.0035 -0.3233 -0.1068
88361W        W31278  19.715  12.383  24.700 -0.0135  0.0294  0.2940
88362W        W31279  18.046  10.434  20.197 -0.1975 -0.1178  0.2117
88363W        W31280  20.566  13.786  20.095 -0.0861  0.1457 -0.0719
88364W        W31281  21.711  11.868  20.460 -0.2733 -0.1193  0.0132
88365W        W31282  19.243  10.226  20.467 -0.0211 -0.2131  0.1777
88366W        W31283  23.251  15.607  19.348  0.1139 -0.0059  0.2181
88367W        W31284  21.808  13.354  18.667  0.0100 -0.3011  0.0157
88368W        W31285  18.463  12.772  21.279 -0.1928  0.2485  0.2901
88369W        W31286  22.103  11.133  23.894 -0.1803  0.2010  0.0081
88370W        W31287  22.928  12.786  22.440  0.3822 -0.0582  0.1457
88371W        W31288  20.517  11.828  21.769  0.1420  0.2791 -0.0904
88372W        W31289  19.365  10.725  20.369  0.1590 -0.2121 -0.1245
88373W        W31290  23.566  15.871  19.771  0.0459 -0.1153 -0.1602
88374W        W31291  17.898  13.999  16.949  0.5207  0.0216  0.3005
88375W        W31292  19.032  12.276  19.577  0.0446 -0.1801  0.1355
88376W        W31293  21.116  14.652  21.695  0.1422 -0.0288  0.1546
88377W        W31294  22.742  10.967  20.202  0.1595  0.2249 -0.0846
88378W        W31295  19.172  13.351  20.441  0.3615  0.3529 -0.2792
88379W        W31296  21.470  11.186  21.886  0.2746  0.1414  0.1488
88380W        W31297  18.808  13.178  20.122 -0.2893  0.2180  0.0065
88381W        W31298  19.385  11.826  22.710 -0.0814 -0.3355  0.3311
88382W        W31299  20.923  10.256  21.546  0.0715 -0.1978 -0.0498
88383W        W31300  22.588  10.931  19.474 -0.0559  0.3749  0.1199
88384W        W31301  22.329  11.188  22.802  0.1990 -0.2331  0.0434
88385W        W31302  20.981  11.883  19.923  0.1327  0.6785  0.1339
88386W        W31303  22.164  12.245  18.702  0.3207 -0.1073 -0.1772
88387W        W31304  19.976  12.063  18.598  0.3318 -0.0622  0.0940
88388W        W31305  17.749  12.532  19.762 -0.0329  0.2621  0.2249
88389W        W31306  20.702  13.049  19.317  0.1393 -0.2046  0.0951
88390W        W31307  20.942  11.907  22.078  0.0290  0.2130  0.4564
88391W        W31308  18.838  11.068  18.622  0.2264 -0.0162  0.3396
88392W        W31309  21.078  11.902  19.044  0.3676  0.1511  0.4087
88393W        W31310  16.473  11.172  20.331  0.2803 -0.0222  0.0612
88394W        W31311  21.299  13.868  22.473 -0.0503 -0.0273 -0.1988
88395W        W31312  22.377  14.522  21.282  0.1887  0.0388 -0.0773
88396W        W31313  21.425  12.731  19.799  0.1137  0.1132 -0.1559
88397W        W31314  20.337  11.952  18.996  0.2249 -0.1924  0.2415
88398W        W31315  19.975  11.316  19.814 -0.1784  0.0077 -0.2196
88399W        W31316  17.894  13.580  18.859 -0.0192 -0.1233 -0.1567
88400W        W31317  21.315  10.535  21.275  0.0087 -0.0401  0.1439
88401W        W31318  20.616  10.904  20.407  0.1787  0.0692 -0.0393
88402W        W31319  20.297  12.248  23.766  0.0668  0.3141 -0.1514
88403W        W31320  19.627  11.654  22.233  0.0192  0.3536  0.1061
88404W        W31321  21.675  13.155  20.206 -0.0762  0.1747 -0.0109
88405W        W31322  21.521  12.614  22.111  0.2291 -0.1901 -0.0347
88406W        W31323  17.966  11.250  18.607 -0.0387 -0.1378 -0.1493
88407W        W31324  19.709  11.490  24.146 -0.0372 -0.2647  0.2322
88408W        W31325  18.392  13.364  21.675 -0.2779 -0.0637 -0.1443
88409W        W31326  19.861  14.022  19.393  0.2394  0.0093  0.0638
88410W        W31327  22.005  12.368  23.550 -0.1166  0.3517  0.1413
88411W        W31328  20.878  12.575  20.512 -0.1243 -0.1197 -0.0801
88412W        W31329  20.050  11.601  22.459 -0.3495  0.1024 -0.2240
88413W        W31330  21.133  10.701  20.336 -0.1098  0.0860 -0.3325
88414W        W31331  18.776  14.059  17.343  0.1652 -0.4099 -0.2164
88415W        W31332  19.227  13.319  19.870 -0.1294  0.3527 -0.1283
88416W        W31333  20.207  10.434  20.837  0.1354 -0.0204  0.2947
88417W        W31334  21.434  12.729  22.666 -0.1461 -0.2415 -0.0406
88418W        W31335  17.257  12.936  17.483 -0.0188  0.2839  0.1296
88419W        W31336  22.551  13.225  22.270  0.0371  0.2577 -0.1857
88420W        W31337  18.493  12.364  19.552 -0.3175  0.2471 -0.0985
88421W        W31338  21.727   9.561  23.415  0.0103 -0.0522 -0.0484
88422W        W31339  17.776  14.207  18.407 -0.1435  0.1771  0.4208
88423W        W31340  18.873  10.573  20.562 -0.2345  0.0131 -0.4394
88424W        W31341  18.693  10.186  17.747 -0.2517  0.1518  0.0544
88425W        W31342  22.762  10.897  22.551  0.4132 -0.0624 -0.1125
88426W        W31343  21.267  11.149  20.126  0.2224 -0.2777  0.3289
88427W        W31344  20.878   9.870  21.871 -0.0924 -0.0935 -0.2702
88428W        W31345  20.639  10.999  22.081 -0.1730 -0.0722  0.0176
88429W        W31346  17.710  11.712  18.812 -0.0121  0.0440  0.0027
88430W        W31347  21.970  11.953  21.829 -0.0179 -0.1606  0.1831
88431W        W31348  22.396  10.565  19.036 -0.0350 -0.0270  0.1603
88432W        W31349  23.262  12.652  20.921 -0.1177  0.2117 -0.0735
88433W        W31350  19.800  11.123  23.824  0.1159  0.2245 -0.0135
88434W        W31351  18.306  10.893  18.663  0.0696  0.2856 -0.1824
88435W        W31352  20.754  10.707  24.059  0.0061 -0.0417 -0.0168
88436W        W31353  20.481  12.033  21.320 -0.0236 -0.2453 -0.1627
88437W        W31354  16.704  12.678  18.599 -0.3626  0.3522  0.0074
88438W        W31355  21.978  13.350  22.375 -0.3814 -0.3694 -0.0013
88439W        W31356  19.320  11.835  20.417 -0.0204  0.0287  0.1325
88440W        W31357  17.906  11.974  18.394  0.0552  0.0405 -0.0021
88441W        W31358  18.164   9.985  24.260 -0.1935 -0.3832 -0.0598
88442W        W31359  20.695  11.361  20.659 -0.1551 -0.2607  0.1565
88443W        W31360  19.243  11.516  20.868  0.0388 -0.0030  0.1680
88444W        W31361  19.038  13.884  19.091  0.0106 -0.0349 -0.1334
88445W        W31362  20.518  11.659  22.722  0.1419 -0.1094  0.2989
88446W        W31363  20.003  11.987  21.450 -0.0486  0.0129 -0.0818
88447W        W31364  19.393  12.734  21.750  0.2635  0.0301  0.1682
88448W        W31365  18.141  13.205  21.307 -0.0716  0.2509  0.0629
88449W        W31366  21.788  10.445  23.017  0.4620  0.0184 -0.2673
88450W        W31367  22.808  14.199  19.821 -0.1934  0.0387  0.0278
88451W        W31368  21.255  11.360  21.462  0.1253 -0.3190  0.1249
88452W        W31369  18.993  11.687  18.917 -0.0035 -0.2007 -0.0169
88453W        W31370  18.514  10.954  18.209  0.1082 -0.0605  0.0450
88454W        W31371  20.223  13.254  20.096 -0.2578  0.0616  0.3025
88455W        W31372  20.166  11.335  22.874 -0.0871  0.1470 -0.3357
88456W        W31373  20.382  14.339  23.307 -0.1995 -0.3606  0.1229
88457W        W31374  19.213  11.920  19.351 -0.0378 -0.0214 -0.0995
88458W        W31375  17.676  11.519  18.286  0.1867 -0.2141  0.4709
88459W        W31376  22.018  11.025  21.160 -0.1286  0.0612  0.0010
88460W        W31377  20.096  13.880  21.178 -0.1772  0.0506  0.2440
88461W        W31378  18.575  11.924  20.978 -0.2618  0.2199 -0.0211
88462W        W31379  21.318  12.165  22.890 -0.0015 -0.0361 -0.1170
88463W        W31380  20.011  11.125  20.879 -0.2994  0.2021 -0.0884
88464W        W31381  21.710   9.227  22.990 -0.3088  0.1750  0.2431
88465W        W31382  20.831  10.063  23.341  0.0255  0.1151 -0.0804
88466W        W31383  22.407  11.775  19.537  0.2225  0.0818  0.2142
88467W        W31384  16.937  11.497  20.273 -0.1123 -0.1346  0.2615
88468W        W31385  21.836  14.351  23.096 -0.3844  0.0441  0.1028
88469W        W31386  20.230  10.684  23.795  0.0334  0.2066 -0.0484
88470W        W31387  18.448  11.227  19.673  0.1725  0.0547 -0.0187
88471W        W31388  18.480   9.595  19.991  0.0028 -0.2625  0.1545
88472W        W31389  20.891  12.741  21.047 -0.1282 -0.1955  0.2997
88473W        W31390  22.268  14.248  19.667 -0.0792  0.1198 -0.0007
88474W        W31391  18.996  14.755  18.421  0.2647  0.1762 -0.2357
88475W        W31392  22.149  12.380  22.195 -0.1149 -0.0360 -0.2406
88476W        W31393  19.532  12.354  22.761 -0.1178  0.0274 -0.0470
88477W        W31394  22.172  13.029  21.928  0.5327 -0.1202 -0.5310
88478W        W31395  19.855  10.730  19.629 -0.2236  0.1867  0.3333
88479W        W31396  21.105  11.584  20.485 -0.2430  0.0688 -0.0920
88480W        W31397  21.585  10.948  23.490  0.1508  0.2694 -0.1180
88481W        W31398  22.514  13.189  20.671 -0.2196  0.1178  0.1827
88482W        W31399  19.730  11.548  21.267 -0.2930  0.0082  0.1168
88483W        W31400  20.332   9.831  23.294  0.0611 -0.1290 -0.2594
88484W        W31401  21.176  12.402  21.875 -0.3592 -0.1036 -0.0654
88485W        W31402  21.618  13.319  21.038 -0.1495  0.0336 -0.2174
88486W        W31403  17.183  11.940  24.409  0.0923  0.0999 -0.2317
88487W        W31404  22.507  14.106  20.761  0.0740 -0.1033 -0.1648
88488W        W31405  21.276  13.675  21.152  0.1079 -0.3157  0.0512
88489W        W31406  22.699  10.437  22.749  0.1142  0.1398 -0.1565
88490W        W31407  21.898  12.453  20.462 -0.0139 -0.3528 -0.0166
88491W        W31408  20.456   9.029  17.812 -0.0594  0.1213  0.0602
88492W        W31409  18.268  11.265  22.793 -0.0387 -0.3438  0.1998
88493W        W31410  20.718  12.186  23.960  0.0890  0.5361  0.4276
88494W        W31411  20.620  10.638  22.459 -0.2113  0.1838  0.0496
88495W        W31412  20.583  11.491  22.261  0.4755 -0.1129 -0.0140
88496W        W31413  21.041  13.830  19.148 -0.0108  0.1752  0.2633
88497W        W31414  22.496  11.834  20.925  0.1699 -0.0339  0.0454
88498W        W31415  22.858  15.126  18.569  0.1873  0.1891  0.1727
88499W        W31416  18.803  11.675  20.612 -0.0676 -0.3044 -0.1434
88500W        W31417  21.165  13.290  21.966 -0.0610  0.2887 -0.5576
88501W        W31418  20.393  11.286  21.659  0.4229 -0.0619 -0.0681
88502W        W31419  20.641  11.846  20.468 -0.0484  0.1983 -0.2462
88503W        W31420  20.168  13.281  21.287  0.3179 -0.1860 -0.1153
88504W        W31421  23.706  14.500  21.333 -0.2909 -0.1128  0.0056
88505W        W31422  18.153  11.033  20.627 -0.1130  0.0496  0.0264
88506W        W31423  21.974  10.990  22.406  0.0012  0.0299  0.0871
88507W        W31424  20.161  14.257  19.781 -0.1087  0.1769  0.1881
88508W        W31425  21.425  10.087  22.707 -0.1904 -0.1134 -0.1586
88509W        W31426  21.124  13.665  21.647  0.0057 -0.3393  0.1239
88510W        W31427  20.943  12.006  21.536 -0.2407 -0.1935 -0.0534
88511W        W31428  20.310  14.259  21.377  0.1510  0.1352 -0.0031
88512W        W31429  20.630  11.199  23.022  0.1492  0.2926  0.0771
88513W        W31430  21.117  10.097  21.102  0.1849 -0.0572  0.2861
88514W        W31431  21.937  12.601  21.782 -0.3363  0.0937 -0.1096
88515W        W31432  21.657  11.589  22.126  0.1736 -0.1399 -0.0373
88516W        W31433  20.277  12.478  20.233 -0.0302  0.1200  0.0841
88517W        W31434  20.677  12.493  21.434 -0.2127 -0.0386  0.1282
88518W        W31435  19.803  12.928  22.043  0.0528 -0.0679  0.1333
88519W        W31436  22.315  12.726  21.473  0.1524  0.0595 -0.3476
88520W        W31437  17.733  12.644  19.211  0.2245  0.3819  0.1196
88521W        W31438  16.811  11.259  22.122  0.1771  0.0435  0.2467
88522W        W31439  19.331  13.932  22.929  0.0120  0.0452 -0.1493
88523W        W31440  21.492  13.207  22.366  0.0229 -0.1119  0.0801
88524W        W31441  18.612  11.157  20.473  0.0121 -0.0135 -0.3257
88525W        W31442  19.690  11.995  19.064 -0.0341  0.0223 -0.1447
88526W        W31443  18.810  12.168  22.544 -0.0581  0.0567  0.1875
88527W        W31444  18.994  12.322  22.087 -0.2295 -0.1332  0.0860
88528W        W31445  20.482  12.592  18.672 -0.0612 -0.1087  0.1852
88529W        W31446  22.304  13.839  19.907  0.0263  0.0712  0.0603
88530W        W31447  19.864  12.387  21.133  0.4350 -0.1501 -0.0234
88531W        W31448  22.333  14.851  19.705  0.0801 -0.0413 -0.0423
88532W        W31449  18.557  10.649  19.675 -0.0548 -0.0835 -0.1552
88533W        W31450  19.732  13.281  20.560 -0.1090  0.1207 -0.1294
88534W        W31451  16.045  13.714  17.790 -0.1857 -0.1092  0.0231
88535W        W31452  21.966  13.492  21.812  0.1111 -0.0532 -0.3788
88536W        W31453  18.788  13.249  19.650 -0.1475 -0.1487  0.1264
88537W        W31454  21.024  13.336  22.544 -0.2522 -0.3748 -0.1842
88538W        W31455  21.546  11.337  19.325 -0.1190 -0.0611  0.2822
88539W        W31456  22.766  13.623  19.076 -0.1457 -0.1221  0.0030
88540W        W31457  21.093  10.479  22.505  0.1862 -0.0710  0.0221
88541W        W31458  20.618  13.268  22.222 -0.4341 -0.2374 -0.2440
88542W        W31459  19.969  13.811  22.293  0.1641 -0.1752  0.0856
88543W        W31460  21.108  10.478  19.598  0.3261  0.0447 -0.1840
88544W        W31461  19.293  11.741  21.835  0.1910 -0.1132  0.1241
88545W        W31462  21.187  10.857  23.735 -0.0842 -0.2579 -0.0199
88546W        W31463  22.398  12.880  19.935  0.0695 -0.0865  0.3144
88547W        W31464  18.824  13.358  22.750  0.3959 -0.1504  0.0627
88548W        W31465  21.928  14.637  17.829  0.0383 -0.1247 -0.0279
88549W        W31466  22.886   9.704  21.175 -0.0868 -0.2233  0.2227
88550W        W31467  18.652  10.894  19.052  0.3962 -0.0976 -0.4934
88551W        W31468  19.747  12.387  21.628  0.2589 -0.0334 -0.0903
88552W        W31469  20.288  13.446  18.648  0.0931 -0.2474 -0.0563
88553W        W31470  18.799  13.190  20.756  0.0844  0.2890  0.0668
88554W        W31471  20.465  14.753  20.947 -0.2765  0.1083  0.2048
88555W        W31472  22.923   9.615  23.321 -0.0714  0.0636 -0.1946
88556W        W31473  21.202   9.569  21.464 -0.0675 -0.3966 -0.1153
88557W        W31474  19.852  10.641  21.234 -0.1066  0.0094 -0.0565
88558W        W31475  23.581  11.080  20.681  0.2504  0.0376  0.0681
88559W        W31476  19.890  11.579  21.750  0.2912 -0.0261  0.2103
88560W        W31477  19.954  11.587  19.029  0.0031 -0.1286  0.3704
88561W        W31478  20.375  13.727  21.548  0.2993  0.0802  0.0580
88562W        W31479  21.311  14.560  19.578  0.0284  0.0621  0.0723
88563W        W31480  18.862  12.200  20.502  0.1964  0.0122 -0.3192
88564W        W31481  23.091  12.803  22.952  0.0638 -0.1771  0.3782
88565W        W31482  17.738  13.260  17.675  0.0179 -0.3275  0.1207
88566W        W31483  20.981  14.663  19.195  0.0597  0.1642 -0.1335
88567W        W31484  19.521  10.910  21.062  0.2923  0.0717 -0.0146
88568W        W31485  21.441  11.666  20.068  0.1803 -0.0320  0.2701
88569W        W31486  18.182  11.286  21.085  0.1036 -0.0527 -0.1095
88570W        W31487  20.183  13.402  22.814 -0.1401  0.0498 -0.1095
88571W        W31488  21.661  15.938  22.085  0.1233 -0.0705  0.0513
88572W        W31489  19.118  11.998  20.923 -0.1100 -0.1017  0.2346
88573W        W31490  20.632  12.065  18.639  0.0328  0.1830  0.2706
88574W        W31491  21.600  13.386  21.537 -0.0672 -0.0486  0.1106
88575W        W31492  18.885  14.469  18.778 -0.0740  0.0048  0.1235
88576W        W31493  22.605  14.194  18.517  0.1393 -0.1080  0.1598
88577W        W31494  21.717  15.088  21.400 -0.2925 -0.1413  0.0624
88578W        W31495  19.539  12.109  22.186  0.2534  0.3961  0.2288
88579W        W31496  20.491  13.848  20.605 -0.1978  0.3210  0.2543
88580W        W31497  22.627  12.705  22.065  0.0665 -0.0020 -0.1073
88581W        W31498  23.238   8.740  22.647 -0.1690  0.1353 -0.1171
88582W        W31499  18.448  10.457  22.372  0.1051  0.1135  0.0487
88583W        W31500  19.504  13.789  22.513 -0.0720  0.2704  0.1445
88584W        W31501  19.391  11.889  18.707  0.1839  0.1826  0.2613
88585W        W31502  18.554  11.166  22.268 -0.2291  0.0111  0.0704
88586W        W31503  23.465  13.883  18.368 -0.2116  0.0243  0.0158
88587W        W31504  22.569   9.213  24.061  0.0436  0.0518  0.0810
88588W        W31505  21.193  12.406  21.371  0.0100  0.2846 -0.0197
88589W        W31506  20.597  14.359  19.017 -0.0129  0.2628 -0.1067
88590W        W31507  18.234  11.084  19.237 -0.1416  0.3107  0.0422
88591W        W31508  21.832  14.292  24.248  0.0956  0.2539 -0.0403
88592W        W31509  19.272  12.997  20.786  0.1764 -0.1588 -0.0383
88593W        W31510  18.573  13.043  19.189  0.1313  0.0282 -0.0440
88594W        W31511  21.044  13.912  20.137  0.2983 -0.1735 -0.0504
88595W        W31512  19.568  11.187  20.657  0.1133  0.1776  0.0452
88596W        W31513  23.011  14.712  20.148  0.1023  0.0084  0.5242
88597W        W31514  19.899  10.343  24.097  0.0748 -0.0118 -0.1092
88598W        W31515  22.439   9.540  22.040 -0.3070 -0.0605  0.0893
88599W        W31516  21.223  10.223  21.964 -0.4236 -0.0972  0.0369
88600W        W31517  20.251  12.333  21.654 -0.0467 -0.1477 -0.2272
88601W        W31518  18.273  10.096  19.883 -0.3596 -0.1384 -0.3094
88602W        W31519  18.991  12.586  18.611 -0.0863 -0.2848 -0.1636
88603W        W31520  18.345  11.885  22.671 -0.0762  0.0825 -0.0615
88604W        W31521  19.681  10.861  24.778 -0.2651  0.2718  0.3050
88605W        W31522  18.740  12.289  21.270  0.2658 -0.0481  0.0004
88606W        W31523  19.278  11.245  19.759 -0.0473 -0.2794  0.3948
88607W        W31524  19.054   9.424  19.827 -0.0758  0.2441 -0.2113
88608W        W31525  20.355  13.897  19.361  0.1421  0.0503 -0.0133
88609W        W31526  18.132  11.857  21.812 -0.1355  0.1128  0.0872
88610W        W31527  20.141  10.951  22.450  0.0800  0.0497  0.2026
88611W        W31528  22.569  11.462  20.622  0.0640  0.0043 -0.2451
88612W        W31529  21.724  14.397  18.818  0.0801 -0.2158  0.1683
88613W        W31530  19.697  13.353  22.368  0.2603 -0.2357  0.0985
88614W        W31531  21.617  13.572  24.988 -0.0998  0.0349 -0.2212
88615W        W31532  17.491  12.070  18.009 -0.0037 -0.0490  0.1868
88616W        W31533  20.701  10.754  23.510  0.1956 -0.1356  0.0484
88617W        W31534  19.354  11.208  22.993  0.5012 -0.0143 -0.6482
88618W        W31535  17.397  11.389  17.884 -0.0166 -0.0866  0.2791
88619W        W31536  20.738  11.500  21.316 -0.0856  0.2275 -0.1126
88620W        W31537  22.851  14.633  17.721 -0.0040  0.3938  0.1422
88621W        W31538  21.527  14.743  18.051 -0.3478 -0.0109 -0.2941
88622W        W31539  21.193  12.327  22.445 -0.0663  0.0760 -0.1638
88623W        W31540  20.832  11.443  21.841 -0.0995  0.2573 -0.0691
88624W        W31541  17.882  11.705  21.371  0.0193  0.0348  0.2355
88625W        W31542  20.971  13.015  19.768  0.2267 -0.1781 -0.1556
88626W        W31543  20.706  12.266  21.876 -0.1804 -0.0622  0.4189
88627W        W31544  22.193  10.244  18.716 -0.0500 -0.3044 -0.1822
88628W        W31545  18.186  11.145  21.831  0.3509 -0.0904 -0.2924
88629W        W31546  19.549   9.482  19.743  0.0187  0.1723  0.0706
88630W        W31547  20.622  12.616  23.698  0.2380  0.2033  0.1340
88631W        W31548  18.777  13.046  21.774 -0.2996  0.1528 -0.2232
88632W        W31549  24.243  12.414  21.675 -0.1602  0.0440 -0.2666
88633W        W31550  19.559  12.206  19.709  0.1967  0.0577 -0.0581
88634W        W31551  20.436  10.740  21.557  0.0208  0.1834 -0.2801
88635W        W31552  21.164  14.323  18.831  0.3111  0.0862  0.0254
88636W        W31553  18.501   9.991  19.035  0.1543 -0.0645  0.0162
88637W        W31554  18.355  13.044  20.389 -0.1894 -0.1316 -0.1851
88638W        W31555  19.365  12.654  22.248 -0.2353 -0.0330  0.0398
88639W        W31556  21.068  12.264  20.909  0.2516  0.3206  0.1235
88640W        W31557  21.336  11.738  21.772 -0.1720 -0.0597 -0.0703
88641W        W31558  17.918  10.199  18.619 -0.0104  0.0825 -0.0076
88642W        W31559  23.018  10.397  21.091 -0.0802  0.4519 -0.0721
88643W        W31560  20.197  13.434  20.753  0.0014  0.0109 -0.1245
88644W        W31561  23.920  15.432  23.790  0.1559  0.0673  0.2742
88645W        W31562  21.667  13.057  21.894  0.3687 -0.0803  0.0173
88646W        W31563  21.592  13.676  20.706 -0.1117 -0.2953  0.0723
88647W        W31564  16.938  10.155  18.914  0.0397  0.0552 -0.1180
88648W        W31565  19.185   9.925  19.787 -0.2551 -0.0626  0.1571
88649W        W31566  19.929  12.471  22.064 -0.0048 -0.1521 -0.2489
88650W        W31567  21.492  10.422  23.481 -0.2305 -0.2589 -0.1176
88651W        W31568  19.130  11.745  19.940 -0.0192 -0.3483  0.0282
88652W        W31569  20.641  10.383  21.125 -0.0347  0.0621  0.1233
88653W        W31570  19.189  13.220  21.509 -0.0461 -0.1095  0.1522
88654W        W31571  22.026  12.915  20.869 -0.1067 -0.0348  0.0515
88655W        W31572  20.117  13.877  26.838  0.0280 -0.0837  0.2842
88656W        W31573  19.208  11.489  23.931  0.1925  0.0861 -0.2750
88657W        W31574  19.767  13.012  24.097 -0.2974  0.0648  0.0568
88658W        W31575  21.904  11.451  22.593  0.3585 -0.1990  0.0608
88659W        W31576  17.687  12.184  24.119  0.1546  0.4082 -0.0654
88660W        W31577  21.339  12.619  23.183 -0.2701 -0.1167  0.1934
88661W        W31578  18.452  12.120  25.917 -0.1845 -0.1278  0.0887
88662W        W31579  20.031  13.414  21.824  0.3623 -0.0259 -0.2439
88663W        W31580  21.714  14.595  25.264 -0.0506  0.0648  0.0734
88664W        W31581  17.963  12.823  22.317 -0.3216 -0.0550 -0.0995
88665W        W31582  19.806  11.774  26.443  0.1786  0.0083  0.4128
88666W        W31583  19.377  12.363  24.139  0.3035 -0.0254  0.0675
88667W        W31584  19.099  10.087  23.864 -0.1946 -0.0045 -0.3735
88668W        W31585  18.463  11.237  25.621 -0.1685 -0.0844 -0.1919
88669W        W31586  23.667  12.476  25.774  0.0568 -0.0353 -0.2353
88670W        W31587  18.438  12.397  21.705  0.1355  0.0222 -0.0338
88671W        W31588  18.915  13.679  24.686  0.1495  0.0719  0.2146
88672W        W31589  19.365  12.889  24.961  0.2307  0.4270 -0.3113
88673W        W31590  19.715  13.539  21.030 -0.1278  0.2121  0.0256
88674W        W31591  18.629  11.223  26.674  0.0520 -0.0448 -0.2721
88675W        W31592  19.900  11.603  27.296  0.1394 -0.1565  0.1966
88676W        W31593  19.315  13.420  22.949 -0.1540 -0.1423  0.0911
88677W        W31594  18.987  11.039  21.985  0.1396  0.0834  0.1420
88678W        W31595  18.283  11.740  24.512 -0.0009  0.0708  0.1052
88679W        W31596  18.238  13.969  25.279  0.1459 -0.0010 -0.0267
88680W        W31597  20.432  10.610  25.823  0.0299  0.0096  0.0416
88681W        W31598  22.155  13.237  24.643 -0.2069  0.2526 -0.0455
88682W        W31599  19.408  13.777  25.987  0.0377 -0.0945  0.0347
88683W        W31600  21.250  14.913  22.113 -0.1815  0.0472 -0.1363
88684W        W31601  20.959  10.846  26.475 -0.0476 -0.0295 -0.6196
88685W        W31602  16.779  12.749  20.885  0.1967 -0.1820  0.5244
88686W        W31603  18.424  14.017  23.390  0.0334  0.0270 -0.0820
88687W        W31604  19.744  13.794  23.446  0.1797  0.1093 -0.2796
88688W        W31605  22.759  15.333  24.360 -0.1212  0.2455  0.0044
88689W        W31606  20.448  14.031  24.006 -0.1944  0.3465 -0.2304
88690W        W31607  18.575  12.961  26.008 -0.0947 -0.3279 -0.2381
88691W        W31608  16.420  12.760  24.611 -0.1888  0.0546 -0.1704
88692W        W31609  20.408  13.656  22.054  0.0512  0.3911 -0.1536
88693W        W31610  22.003  13.286  28.250  0.0286 -0.0826 -0.2552
88694W        W31611  18.701  11.414  26.179 -0.1845  0.0689 -0.1519
88695W        W31612  19.708  13.172  22.846 -0.0962  0.1805 -0.0436
88696W        W31613  17.951  11.445  23.239 -0.2656  0.0421 -0.1438
88697W        W31614  19.570  13.442  24.302 -0.3009 -0.3741 -0.0120
88698W        W31615  19.503  13.284  27.654  0.1245 -0.1640  0.1339
88699W        W31616  18.830  12.053  23.459 -0.0685 -0.0138  0.1283
88700W        W31617  21.987  11.496  29.726 -0.2903  0.0051 -0.1103
88701W        W31618  17.800  12.614  20.881 -0.2981  0.0378  0.0736
88702W        W31619  19.453  11.818  24.835 -0.0634 -0.0065 -0.0094
88703W        W31620  19.852  11.207  23.305  0.3186  0.1483 -0.2277
88704W        W31621  20.259  11.128  24.673  0.0761 -0.2502 -0.1653
88705W        W31622  18.451   9.235  24.576  0.0223  0.3004 -0.1692
88706W        W31623  17.821  13.777  26.553 -0.1020 -0.0679 -0.1934
88707W        W31624  21.367  16.631  24.311 -0.0592 -0.2917 -0.1140
88708W        W31625  20.275  10.990  25.568  0.1790 -0.2838  0.0377
88709W        W31626  19.541  10.923  26.013  0.2863 -0.2863  0.1049
88710W        W31627  18.862  12.852  24.622 -0.5771 -0.2341 -0.3862
88711W        W31628  19.198  12.483  24.631 -0.0174 -0.1849 -0.1367
88712W        W31629  20.690  14.177  22.900 -0.0941 -0.1313  0.0397
88713W        W31630  20.542  14.724  23.647 -0.2789  0.1158  0.2131
88714W        W31631  21.784  16.923  24.284  0.3349 -0.0407  0.0347
88715W        W31632  18.831   9.987  24.915  0.0509 -0.0512  0.0958
88716W        W31633  19.237  14.437  24.136  0.1699 -0.0245 -0.1593
88717W        W31634  19.824  13.496  26.993 -0.2621  0.0445  0.1457
88718W        W31635  18.476   9.925  22.308 -0.2081 -0.0204 -0.0823
88719W        W31636  22.533  13.282  26.055  0.1698 -0.1933 -0.2148
88720W        W31637  18.281  14.543  25.288 -0.1185 -0.4093  0.2245
88721W        W31638  22.710  11.806  26.589 -0.2167 -0.1825 -0.0975
88722W        W31639  21.034  13.500  23.331 -0.0122  0.1723 -0.1866
88723W        W31640  22.803  13.541  25.136 -0.1066 -0.2364 -0.0485
88724W        W31641  21.775  11.905  22.846  0.1645 -0.1245  0.2388
88725W        W31642  21.280  12.517  25.648  0.2074 -0.0735  0.0596
88726W        W31643  21.136  12.763  26.690  0.2561 -0.0370  0.0033
88727W        W31644  17.830   9.912  23.318  0.0865 -0.0648 -0.0107
88728W        W31645  18.957  11.092  24.064  0.0342 -0.0310  0.3069
88729W        W31646  18.146  12.922  23.988  0.1998  0.0348 -0.0099
88730W        W31647  20.472  14.895  24.486  0.2139  0.1313 -0.0246
88731W        W31648  18.034  12.787  22.843  0.2471  0.1218 -0.0287
88732W        W31649  19.953  12.010  27.541  0.0323  0.2255  0.0277
88733W        W31650  19.536  15.728  26.585  0.3636  0.1461 -0.1588
88734W        W31651  19.242  13.062  22.589 -0.0607  0.0587 -0.0709
88735W        W31652  19.398  13.751  21.998  0.0712 -0.2081  0.0747
88736W        W31653  19.437  12.428  25.131  0.2769 -0.3603 -0.1937
88737W        W31654  17.893  13.711  23.902 -0.1711 -0.1804 -0.1735
88738W        W31655  20.855  11.453  23.358 -0.2377  0.0839 -0.3147
88739W        W31656  20.264  11.943  25.244 -0.4266 -0.2815  0.1074
88740W        W31657  19.838  11.169  26.465 -0.1353 -0.0550  0.2223
88741W        W31658  16.889  12.262  20.985  0.2221  0.0677 -0.0338
88742W        W31659  20.898  14.150  22.429  0.1640  0.0750 -0.0706
88743W        W31660  20.234  12.118  24.733  0.2355 -0.1040  0.1106
88744W        W31661  22.427  12.806  22.544 -0.1387  0.2347  0.0053
88745W        W31662  19.878  14.103  22.691 -0.1148 -0.2065  0.1297
88746W        W31663  18.117  11.123  26.452  0.0736 -0.1904 -0.1218
88747W        W31664  19.202  10.426  26.762  0.0804  0.0687  0.1289
88748W        W31665  18.558  11.233  24.337  0.1923  0.2119 -0.2247
88749W        W31666  22.970  13.643  25.675 -0.2237 -0.0116  0.1322
88750W        W31667  17.901  10.299  25.561  0.2763 -0.0005 -0.1654
88751W        W31668  22.425  12.503  25.154  0.3297  0.0349  0.1566
88752W        W31669  16.875  11.601  19.288 -0.2021  0.0948  0.0087
88753W        W31670  18.257  12.353  20.914 -0.0496 -0.1224 -0.0070
88754W        W31671  19.146  11.713  26.522  0.0948 -0.0336  0.0921
88755W        W31672  20.067  14.039  21.816 -0.4500  0.0619 -0.1525
88756W        W31673  23.120  15.126  25.692  0.2139 -0.0538  0.1874
88757W        W31674  20.548  15.106  23.995 -0.1013 -0.0705 -0.0707
88758W        W31675  16.773  11.426  27.343 -0.1036 -0.1773 -0.0104
88759W        W31676  19.480  10.806  23.293 -0.1115  0.2210  0.0589
88760W        W31677  18.745  14.409  23.812  0.4612  0.1080 -0.1272
88761W        W31678  19.592  13.964  24.602  0.0170  0.1113  0.0502
88762W        W31679  19.063  12.947  23.618 -0.0488  0.0951 -0.2296
88763W        W31680  19.518  14.947  24.068 -0.0304 -0.3114  0.0366
88764W        W31681  18.862  12.845  22.309  0.3189 -0.0878 -0.1327
88765W        W31682  18.468  13.452  25.332 -0.1108 -0.1623 -0.3661
88766W        W31683  18.929   9.157  27.262  0.3274  0.1293  0.0235
88767W        W31684  21.709  11.093  25.872  0.0107  0.0003 -0.3001
88768W        W31685  22.447  12.923  24.267 -0.0193  0.1020 -0.0452
88769W        W31686  18.975  10.533  22.208 -0.0083 -0.3876  0.0261
88770W        W31687  20.942  14.495  20.930  0.1997  0.0947 -0.1323
88771W        W31688  17.473  12.246  23.467  0.0255 -0.2193 -0.1951
88772W        W31689  21.124  11.413  22.252  0.2155 -0.1163 -0.0091
88773W        W31690  21.998  13.284  24.181 -0.2052  0.1696  0.0287
88774W        W31691  18.001  13.009  26.012  0.0225 -0.0984 -0.0637
88775W        W31692  19.185  12.769  26.538 -0.2000 -0.0389  0.0795
88776W        W31693  16.960  11.692  22.333  0.0970  0.1133 -0.0420
88777W        W31694  18.261  11.668  22.249  0.0438  0.2823  0.2872
88778W        W31695  18.614   9.879  26.041  0.1515 -0.2265  0.2700
88779W        W31696  20.557  13.096  23.517  0.0208  0.3650 -0.0859
88780W        W31697  19.912  12.809  26.349  0.0455  0.3142 -0.1532
88781W        W31698  20.615  13.004  22.620 -0.2523 -0.1202  0.2497
88782W        W31699  21.934  10.043  23.411  0.0491 -0.0788  0.5225
88783W        W31700  21.146  12.530  23.717 -0.0333 -0.0798  0.2596
88784W        W31701  19.661  14.441  25.241 -0.2081  0.1176 -0.0615
88785W        W31702  19.930  12.233  23.071  0.1183 -0.1841 -0.0568
88786W        W31703  19.793  13.061  25.752  0.1595 -0.1978  0.0256
88787W        W31704  21.230  11.087  24.190  0.0641  0.1027  0.0193
88788W        W31705  20.769  13.466  24.282  0.1127 -0.1222 -0.2519
88789W        W31706  19.235  13.969  24.984 -0.2139  0.0356  0.0514
88790W        W31707  21.577  15.493  26.834 -0.2433 -0.0901 -0.3747
88791W        W31708  19.767  15.105  23.661 -0.0826 -0.3763  0.0655
88792W        W31709  18.683  12.507  26.119 -0.1421 -0.0267  0.0338
88793W        W31710  17.706  11.590  21.892  0.0166 -0.0145  0.1654
88794W        W31711  18.922  13.217  23.207  0.2387 -0.3087 -0.1124
88795W        W31712  17.228  11.761  19.975  0.1229 -0.1179  0.2516
88796W        W31713  19.399  11.384  26.192  0.0225  0.0111 -0.3645
88797W        W31714  19.510  12.005  26.928 -0.2702 -0.2663 -0.0913
88798W        W31715  18.620  10.414  25.220 -0.1543  0.1296 -0.0299
88799W        W31716  19.765  13.125  25.139 -0.1363  0.0544  0.1449
88800W        W31717  19.839  11.970  23.913 -0.2606 -0.2335 -0.1056
88801W        W31718  18.912  12.841  25.167  0.1497  0.1788  0.0373
88802W        W31719  21.100  13.012  22.895 -0.0622 -0.2812 -0.0855
88803W        W31720  19.741  13.850  25.196 -0.7415 -0.0155 -0.0013
88804W        W31721  21.038  13.637  26.429  0.1314  0.1919  0.2360
88805W        W31722  19.046  14.185  24.548  0.2352  0.0437  0.1553
88806W        W31723  20.825  13.401  25.375  0.0501  0.1133 -0.0376
88807W        W31724  20.585  11.735  23.777 -0.0169 -0.0195 -0.2876
88808W        W31725  19.156  10.856  27.250  0.0663  0.0611 -0.0709
88809W        W31726  20.956  11.401  22.697  0.0611 -0.0939  0.1307
88810W        W31727  20.493  11.989  22.255 -0.1064 -0.2150  0.2101
88811W        W31728  19.286  10.231  22.483 -0.0781 -0.0091  0.6169
88812W        W31729  19.138  10.673  26.179 -0.1330 -0.1563  0.1022
88813W        W31730  19.677  14.520  24.363 -0.4431  0.4992 -0.1485
88814W        W31731  19.762  13.661  22.992  0.0927  0.1380  0.0980
88815W        W31732  20.030  12.692  24.588 -0.0016 -0.1151 -0.0510
88816W        W31733  20.329  12.742  22.180  0.0564  0.0143  0.1162
88817W        W31734  21.186  11.913  26.402  0.1052 -0.2269 -0.1490
88818W        W31735  18.912  10.855  23.338  0.3154  0.0520 -0.1725
88819W        W31736  17.249  12.166  21.343  0.0924  0.0980 -0.0308
88820W        W31737  20.792  11.456  25.929  0.0293  0.0862 -0.2046
88821W        W31738  21.508  11.153  22.451 -0.1285  0.2220  0.0964
88822W        W31739  19.569  12.656  26.810 -0.2293  0.0849 -0.2413
88823W        W31740  20.826  10.184  26.854  0.2001  0.2384  0.0734
88824W        W31741  19.222  14.065  23.683 -0.0071 -0.1201  0.4937
88825W        W31742  20.881  13.225  26.816 -0.3483 -0.2026  0.3359
88826W        W31743  19.908   9.802  24.716  0.0165 -0.1425  0.1016
88827W        W31744  21.294  13.349  25.314 -0.0147  0.1066 -0.0098
88828W        W31745  18.311  14.577  24.118  0.1211  0.0257  0.3678
88829W        W31746  17.735  11.784  24.502  0.0227  0.0268  0.1018
88830W        W31747  21.577  12.015  28.166  0.1616  0.0889 -0.0999
88831W        W31748  19.211  12.692  25.580  0.0686 -0.0515 -0.1483
88832W        W31749  17.588  12.388  22.286  0.2273  0.1670 -0.1279
88833W        W31750  21.440  14.033  24.008  0.0075  0.0488 -0.0615
88834W        W31751  18.642  13.283  22.191 -0.2919  0.1567  0.1450
88835W        W31752  19.812  12.708  22.509  0.0509  0.1700  0.2980
88836W        W31753  19.270  14.071  26.476 -0.2881  0.0090 -0.0492
88837W        W31754  21.509  13.291  28.348  0.0750  0.2207  0.0527
88838W        W31755  19.581  12.307  25.635 -0.3627 -0.1821  0.1310
88839W        W31756  19.236  11.533  25.620  0.0360  0.2261  0.1063
88840W        W31757  18.332  12.247  23.482  0.2875 -0.0902  0.1370
88841W        W31758  19.162  12.439  23.637 -0.0769  0.1419 -0.0785
88842W        W31759  18.689  12.366  24.380  0.0709  0.0896 -0.4908
88843W        W31760  18.425  14.929  24.415  0.4621 -0.1472 -0.0169
88844W        W31761  20.097   9.728  25.643 -0.0516  0.0256 -0.0186
88845W        W31762  21.777  12.403  23.094 -0.3020 -0.3780  0.1855
88846W        W31763  20.258  13.289  25.532 -0.1718 -0.0105  0.1511
88847W        W31764  19.137  12.759  19.902 -0.0127  0.0233  0.2319
88848W        W31765  18.008  12.290  22.654  0.3285  0.1621 -0.0202
88849W        W31766  18.575  12.872  22.735  0.0546 -0.1173 -0.1513
88850W        W31767  19.733  12.061  25.139 -0.0561 -0.1202  0.3147
88851W        W31768  19.218  13.249  26.373 -0.2070 -0.0315 -0.0847
88852W        W31769  19.351  11.171  23.572  0.0821 -0.1983 -0.0542
88853W        W31770  17.719  14.390  24.965 -0.2522 -0.3795 -0.0246
88854W        W31771  21.260  10.602  24.167 -0.1085  0.3172 -0.0428
88855W        W31772  20.031  11.913  23.427 -0.3053 -0.0183 -0.0320
88856W        W31773  18.775   8.745  25.436 -0.1734  0.1514  0.0992
88857W        W31774  20.904  10.873  27.441 -0.0452 -0.1787  0.0996
88858W        W31775  22.519  10.796  23.048  0.1750 -0.1370 -0.3589
88859W        W31776  21.194  12.034  27.418  0.0145  0.0281  0.0036
88860W        W31777  20.011  11.846  26.878  0.0158 -0.1443 -0.3204
88861W        W31778  20.280  13.892  22.950  0.0709  0.1966  0.1452
88862W        W31779  16.842  12.591  25.824  0.1252 -0.0314 -0.0139
88863W        W31780  19.246  14.236  26.006 -0.1311  0.0804  0.1016
88864W        W31781  17.816  14.725  26.997  0.1071 -0.1467  0.0407
88865W        W31782  20.132  11.495  25.016  0.0501  0.1352 -0.0189
88866W        W31783  19.130  11.334  24.485  0.1184 -0.0743 -0.3713
88867W        W31784  19.285  12.459  26.067 -0.2745  0.0562  0.1742
88868W        W31785  19.933  15.323  24.743 -0.2193 -0.0892 -0.0397
88869W        W31786  20.135  13.893  23.667 -0.2288 -0.0906  0.1033
88870W        W31787  20.953  10.105  25.978  0.3442  0.0527 -0.3376
88871W        W31788  17.783  13.713  22.531  0.2342 -0.1683  0.3145
88872W        W31789  19.549  12.791  24.463  0.3629  0.0213  0.2354
88873W        W31790  18.814  13.325  24.315 -0.0713 -0.1934  0.1383
88874W        W31791  18.530  11.625  23.071 -0.2047 -0.0132 -0.1744
88875W        W31792  19.425  11.117  25.399 -0.1860 -0.1879  0.0411
88876W        W31793  19.275  12.838  23.163 -0.0885 -0.0629  0.1190
88877W        W31794  20.407  12.425  25.838 -0.1400  0.0748  0.1821
88878W        W31795  21.416  11.521  26.041 -0.1183  0.0606 -0.1397
88879W        W31796  20.738  12.235  27.539  0.0266 -0.1225  0.1196
88880W        W31797  18.856  11.860  27.580 -0.0197  0.0060  0.0192
88881W        W31798  18.786  13.820  25.191 -0.0257 -0.2235 -0.2642
88882W        W31799  19.410  15.520  23.920  0.1406  0.2404 -0.4274
88883W        W31800  20.927  11.869  23.090 -0.2848  0.0499 -0.0609
88884W        W31801  21.885  11.278  27.707 -0.1745  0.1973 -0.2724
88885W        W31802  20.829  11.121  24.460 -0.0611 -0.0366 -0.0188
88886W        W31803  19.645  11.740  23.115 -0.3187 -0.3972 -0.2985
88887W        W31804  19.997  11.021  25.098  0.1645  0.0830 -0.3086
88888W        W31805  20.941  13.065  26.324  0.2408  0.0077  0.2088
88889W        W31806  20.424   9.762  23.935  0.0045 -0.1242 -0.3151
88890W        W31807  19.544  11.482  26.769  0.0906  0.2799 -0.1880
88891W        W31808  22.890  14.068  21.700  0.0542  0.0945 -0.0561
88892W        W31809  19.763  14.142  25.644 -0.1271  0.2295 -0.0345
88893W        W31810  19.324  13.290  25.856 -0.2697 -0.1872 -0.3070
88894W        W31811  19.789  12.689  23.137  0.0008  0.0078  0.1661
88895W        W31812  19.453  13.534  23.821  0.0771 -0.2767  0.0214
88896W        W31813  18.522   9.836  22.899  0.2463 -0.2549 -0.0336
88897W        W31814  21.922  11.927  23.319  0.0294  0.1811 -0.0272
88898W        W31815  20.547  13.519  23.814 -0.0324 -0.2359 -0.1107
88899W        W31816  21.877  13.451  26.394 -0.0414  0.0143 -0.0679
88900W        W31817  22.927   8.610  24.170  0.1510  0.3247  0.2963
88901W        W31818  23.072  11.284  25.637  0.3149 -0.2220 -0.1633
88902W        W31819  19.667  11.430  22.706  0.0190 -0.3093  0.2418
88903W        W31820  19.656  11.480  25.228 -0.2777 -0.6813 -0.0847
88904W        W31821  19.651  14.555  23.730  0.0566  0.0932 -0.0588
88905W        W31822  17.878  14.100  26.188 -0.2597 -0.0204 -0.2213
88906W        W31823  17.690  13.134  22.618 -0.0247 -0.1197 -0.3062
88907W        W31824  19.307   9.421  26.857 -0.1676 -0.0655  0.1852
88908W        W31825  17.991  11.315  24.598  0.0837 -0.0977 -0.6112
88909W        W31826  20.484  10.583  25.330 -0.2330  0.0295 -0.1011
88910W        W31827  19.390  13.163  25.407  0.0804 -0.4054  0.3175
88911W        W31828  20.543  13.367  26.386  0.0595 -0.3437 -0.2962
88912W        W31829  17.994  13.122  23.569 -0.0961 -0.1546 -0.3958
88913W        W31830  19.809  11.806  25.612  0.0752  0.1452  0.3712
88914W        W31831  21.013  13.419  25.943  0.2465  0.1301 -0.1886
88915W        W31832  18.079  12.191  24.479 -0.2201 -0.0360  0.0345
88916W        W31833  18.625  13.265  27.427 -0.1928 -0.2926  0.0284
88917W        W31834  20.243  14.372  25.379 -0.1698  0.0297 -0.1426
88918W        W31835  22.079  12.848  25.531 -0.1814  0.1091 -0.1594
88919W        W31836  20.201  10.009  25.113  0.4175  0.0975  0.0760
88920W        W31837  21.277  14.413  24.408 -0.0318  0.2299  0.2740
88921W        W31838  19.469  14.832  23.193  0.2101  0.0487  0.0502
88922W        W31839  19.172  13.627  25.452 -0.0704 -0.0579 -0.1224
88923W        W31840  20.363  13.070  21.783  0.1262 -0.1019  0.2916
88924W        W31841  19.824  12.374  23.579  0.0932  0.0727 -0.1906
88925W        W31842  20.032  13.715  24.632 -0.0639 -0.0433 -0.2187
88926W        W31843  22.275   9.556  24.261 -0.2592  0.0893  0.2180
88927W        W31844  17.939  13.294  20.410  0.4132  0.1577  0.0178
88928W        W31845  23.246  13.466  22.606 -0.1337  0.1207  0.2535
88929W        W31846  17.742  13.133  21.648  0.2272 -0.0047 -0.0475
88930W        W31847  20.335  12.643  24.142 -0.1492 -0.0141 -0.0487
88931W        W31848  20.978  10.909  25.183 -0.0814  0.0593 -0.1520
88932W        W31849  19.792  11.281  25.691  0.1486 -0.2598 -0.0571
88933W        W31850  21.963  11.122  24.794  0.1822  0.2205  0.2274
88934W        W31851  19.911  13.711  24.078 -0.0928  0.2063 -0.0838
88935W        W31852  18.720  11.610  24.775 -0.1189 -0.0013  0.0323
88936W        W31853  20.913  13.733  22.134  0.0579  0.0761 -0.0168
88937W        W31854  20.011  12.993  26.905 -0.0870 -0.4009  0.0846
88938W        W31855  21.686  12.357  27.198  0.1319  0.0319 -0.0502
88939W        W31856  17.498  14.247  25.792 -0.1353  0.2739 -0.0140
88940W        W31857  22.383  14.533  23.168 -0.0796 -0.0025  0.0125
88941W        W31858  19.181  11.374  25.002 -0.2281  0.2780 -0.1103
88942W        W31859  20.772  13.902  23.433  0.0425 -0.2701 -0.0484
88943W        W31860  21.457  11.021  25.059 -0.3425 -0.0490 -0.1878
88944W        W31861  19.315  11.946  23.585  0.0279  0.1542  0.1076
88945W        W31862  20.140  12.774  25.528  0.0926 -0.3435 -0.1653
88946W        W31863  19.940  14.194  23.221 -0.1355  0.1981  0.0630
88947W        W31864  19.309  14.148  25.438 -0.0431 -0.0367  0.0288
88948W        W31865  19.170  13.587  23.432  0.0680  0.1712  0.0533
88949W        W31866  18.828  11.180  22.898  0.3088 -0.1822 -0.0834
88950W        W31867  22.034  12.664  27.196  0.1008  0.0791 -0.0765
88951W        W31868  19.918  12.301  26.554  0.0466  0.2441  0.0081
88952W        W31869  22.374  11.853  26.966 -0.1215  0.0119  0.3069
88953W        W31870  19.851  11.855  24.571 -0.4183 -0.1828 -0.0974
88954W        W31871  18.482  10.880  25.257 -0.1343  0.1750 -0.5157
88955W        W31872  18.725  12.859  26.527 -0.1090  0.2077  0.3784
88956W        W31873  19.903  12.558  25.927  0.4442  0.2041  0.1269
88957W        W31874  18.623  12.134  24.899  0.0231  0.1183 -0.2079
88958W        W31875  21.453  13.705  26.744 -0.1341 -0.1846  0.0377
88959W        W31876  20.771  10.515  21.977 -0.0385 -0.0733 -0.1573
88960W        W31877  19.978  14.533  25.803 -0.2424  0.0652 -0.2483
88961W        W31878  19.067  12.930  26.033 -0.2729  0.1184  0.2051
88962W        W31879  20.905  10.391  25.530 -0.0719 -0.1503  0.1179
88963W        W31880  18.480  13.069  23.608  0.0402 -0.0535 -0.2846
88964W        W31881  20.336  13.035  25.069 -0.1575 -0.2204 -0.4837
88965W        W31882  21.846  16.415  24.561 -0.1042 -0.0003  0.1359
88966W        W31883  17.687  10.215  24.288 -0.5099  0.0593 -0.1770
88967W        W31884  22.259  13.654  24.346 -0.1277 -0.2133  0.1163
88968W        W31885  22.515  14.020  25.301 -0.2043  0.0369 -0.2603
88969W        W31886  19.027  12.078  22.973 -0.0388  0.2734  0.0122
88970W        W31887  18.359  13.985  23.926  0.3408 -0.4318  0.0302
88971W        W31888  21.192  14.314  22.880 -0.0327  0.3294 -0.2934
88972W        W31889  18.249  12.453  24.078 -0.0657 -0.2171  0.1196
88973W        W31890  20.243  15.221  23.611  0.1954  0.0797  0.2504
88974W        W31891  20.513  13.875  24.559 -0.0771 -0.0420  0.0849
88975W        W31892  19.289  10.868  22.606  0.2122  0.0616 -0.3056
88976W        W31893  18.884  12.555  23.197 -0.0026  0.1611 -0.2041
88977W        W31894  20.101  10.262  26.599  0.1119  0.1268 -0.0606
88978W        W31895  22.336  12.299  27.350 -0.0007  0.0847  0.0467
88979W        W31896  19.760  13.714  21.524  0.0640  0.1626  0.1032
88980W        W31897  22.400  11.394  27.784 -0.0606 -0.2335  0.4869
88981W        W31898  20.948  14.890  24.379 -0.0218 -0.3324 -0.1385
88982W        W31899  19.867  15.784  24.502 -0.1097  0.0014 -0.0842
88983W        W31900  18.189  13.234  22.572 -0.2065  0.0698  0.0927
88984W        W31901  18.600  11.789  28.700 -0.0330 -0.3230 -0.1620
88985W        W31902  19.022  12.584  22.730 -0.1979  0.1212 -0.2943
88986W        W31903  21.621  11.432  21.048  0.0643 -0.0185  0.0577
88987W        W31904  20.088  11.550  26.027 -0.0366  0.3108  0.0488
88988W        W31905  20.386   9.662  24.467 -0.1175  0.1268  0.0637
88989W        W31906  21.294  13.461  24.101  0.2316  0.1828  0.0119
88990W        W31907  20.045  12.262  25.520  0.1861  0.1636 -0.1286
88991W        W31908  21.640  12.648  26.740  0.3685  0.2467  0.1564
88992W        W31909  21.313  10.329  25.736  0.2053 -0.0954 -0.0645
88993W        W31910  19.531  12.223  28.412  0.0534  0.1703  0.0737
88994W        W31911  19.170  10.816  25.015  0.1769 -0.0111  0.0219
88995W        W31912  18.220  10.518  23.810  0.0774  0.4972 -0.3792
88996W        W31913  18.393  13.626  24.780  0.0808  0.1792  0.0687
88997W        W31914  20.343  11.028  26.497 -0.1156  0.0773 -0.3590
88998W        W31915  17.931  13.551  25.143 -0.1331  0.0531 -0.1984
88999W        W31916  19.497  13.427  24.876 -0.3368 -0.0131 -0.3299
89000W        W31917  18.240  10.604  25.802  0.0231 -0.0236 -0.2960
89001W        W31918  20.990  13.754  22.878 -0.0992 -0.1107 -0.1364
89002W        W31919  16.720  11.611  25.811 -0.0427  0.1535  0.0557
89003W        W31920  17.829  10.655  24.656  0.1006  0.1526  0.0458
89004W        W31921  21.106  14.784  23.886 -0.0117 -0.0004 -0.1832
89005W        W31922  20.041  12.756  23.749  0.0691  0.0664 -0.1594
89006W        W31923  19.026  11.984  24.655 -0.0614 -0.2465  0.0410
89007W        W31924  20.888  13.107  24.923 -0.1141 -0.1282  0.0097
89008W        W31925  18.464  11.198  23.309 -0.1008  0.0775 -0.2133
89009W        W31926  19.465  10.984  26.882 -0.1377 -0.1866 -0.0092
89010W        W31927  19.051  13.354  25.031 -0.2076  0.4813  0.1503
89011W        W31928  19.637  10.605  23.726 -0.1480 -0.0752  0.3001
89012W        W31929  21.255  12.114  24.663 -0.1100  0.0846 -0.0821
89013W        W31930  20.884  12.479  22.828 -0.2100  0.1015 -0.3310
89014W        W31931  23.473  14.755  23.605  0.3426  0.3037 -0.1689
89015W        W31932  19.220  13.212  24.529  0.1372  0.2485  0.2465
89016W        W31933  19.896  14.755  24.788  0.1842  0.1568 -0.1698
89017W        W31934  19.461  11.932  26.020 -0.1603 -0.2775  0.0414
89018W        W31935  22.209  12.037  25.363  0.0675  0.0789 -0.2907
89019W        W31936  20.192  13.325  26.024 -0.3774 -0.1040 -0.0235
89020W        W31937  21.217  12.253  24.178 -0.1124  0.0196 -0.0152
89021W        W31938  20.270  11.532  26.545  0.0597 -0.1008  0.1344
89022W        W31939  20.610  11.010  26.078 -0.0216  0.0547 -0.0921
89023W        W31940  16.797  11.335  24.060 -0.0629  0.0775  0.3508
89024W        W31941  18.307  13.215  24.442  0.2790  0.0280  0.2686
89025W        W31942  22.416  14.561  24.676 -0.0578 -0.1198 -0.1464
89026W        W31943  19.315  10.312  24.752 -0.0913  0.3976 -0.1203
89027W        W31944  21.343  11.224  25.502  0.0428  0.0159  0.1572
89028W        W31945  21.503  11.859  21.325 -0.2056  0.1094 -0.0628
89029W        W31946  19.226  11.740  27.274  0.2396  0.0793  0.3697
89030W        W31947  20.665   9.016  24.259 -0.0549 -0.0324 -0.2161
89031W        W31948  20.237  12.565  23.333 -0.3519  0.0946  0.0447
89032W        W31949  19.711  11.430  24.707  0.0180 -0.0885  0.1826
89033W        W31950  21.863  12.459  25.286  0.1984 -0.0596 -0.0025
89034W        W31951  20.077  10.551  25.054  0.1033 -0.3811 -0.0225
89035W        W31952  19.767  10.953  22.776  0.1020 -0.0725 -0.0060
89036W        W31953  19.982  14.200  24.829  0.0569  0.0358 -0.0459
89037W        W31954  20.670  15.276  26.025  0.1087  0.0250 -0.0094
89038W        W31955  18.914  14.163  23.233  0.2755  0.2083  0.2645
89039W        W31956  21.566  13.385  25.721 -0.2512 -0.2681 -0.1394
89040W        W31957  16.698  11.451  28.311  0.0707  0.0083  0.1606
89041W        W31958  18.349  13.771  21.310 -0.1325 -0.0024 -0.2947
89042W        W31959  20.666  13.870  25.421 -0.2530  0.0668  0.3553
89043W        W31960  21.361  12.652  24.361  0.1720  0.3816 -0.1047
89044W        W31961  18.665  12.575  23.667 -0.1228  0.0884 -0.4325
89045W        W31962  19.707   9.297  26.030  0.0877  0.1468 -0.0017
89046W        W31963  18.379  13.706  22.575  0.2697  0.0992  0.1846
89047W        W31964  19.997  12.083  26.043 -0.4653  0.0223  0.1848
89048W        W31965  17.434  15.313  27.413  0.0800  0.2413  0.0870
89049W        W31966  17.824  12.444  26.714  0.2784 -0.1356  0.2108
89050W        W31967  19.567  11.660  27.701  0.3172 -0.1403  0.0112
89051W        W31968  20.515  12.316  28.461 -0.0379 -0.0442 -0.3357
89052W        W31969  18.250  12.107  28.585  0.3614 -0.2434  0.2548
89053W        W31970  21.140  13.877  25.706  0.0889 -0.0034  0.1138
89054W        W31971  18.458  10.023   0.386  0.0925  0.2005  0.0603
89055W        W31972  21.585  13.502  30.561  0.2167  0.2483  0.5245
89056W        W31973  20.582  15.924  28.304 -0.3670  0.0294  0.1654
89057W        W31974  20.919  12.650  24.120  0.2354  0.0588 -0.2613
89058W        W31975  17.878  11.947  28.194  0.0829 -0.1772  0.1668
89059W        W31976  19.719  14.368  30.227  0.0292 -0.2617  0.1862
89060W        W31977  21.312  11.706  27.058 -0.0788 -0.1295 -0.0095
89061W        W31978  15.914   9.570  27.195  0.0438  0.0010  0.1219
89062W        W31979  22.789  12.956  29.173 -0.0599 -0.1533  0.1074
89063W        W31980  18.108  13.149  27.220 -0.0580 -0.1163  0.2792
89064W        W31981  19.733  13.970  28.001 -0.1823  0.1153  0.0473
89065W        W31982  19.170  11.869  29.636  0.1246 -0.5316 -0.1312
89066W        W31983  20.598  15.760  26.479  0.0313  0.2722 -0.0862
89067W        W31984  19.722  11.762  28.703  0.1748  0.1281  0.0393
89068W        W31985  21.880  11.523  30.706 -0.0644  0.0786  0.0008
89069W        W31986  19.819  15.377  25.243  0.1470 -0.2847  0.0096
89070W        W31987  19.146  11.828  25.214 -0.1851  0.0335 -0.2328
89071W        W31988  16.901  10.359  30.806 -0.0250  0.1768 -0.0272
89072W        W31989  19.862  15.072  27.233 -0.0210  0.0098  0.4089
89073W        W31990  17.625   8.904  31.180 -0.0564 -0.0238 -0.1605
89074W        W31991  19.133  13.882  28.116  0.2391 -0.3919  0.1377
89075W        W31992  20.396  12.953  26.639 -0.1324 -0.0268 -0.0359
89076W        W31993  17.753  13.691  27.586 -0.0423 -0.4885 -0.0066
89077W        W31994  21.567  11.082  29.602  0.3232 -0.3410  0.0063
89078W        W31995  19.102  13.126  28.813  0.0793 -0.1004  0.0822
89079W        W31996  18.179  13.588  29.780 -0.3017 -0.1009  0.0309
89080W        W31997  18.042  12.442  28.285 -0.3762 -0.1052 -0.2471
89081W        W31998  22.141  14.790  28.011  0.3015  0.1905  0.2549
89082W        W31999  22.046  13.453  29.290  0.0017  0.0454  0.0793
89083W        W32000  18.729  13.855  28.394 -0.2253 -0.3187  0.0618
89084W        W32001  19.482  13.085  27.191 -0.1728  0.1149 -0.2113
89085W        W32002  21.052  14.811  29.861  0.1091  0.0493  0.1188
89086W        W32003  18.715  15.571  29.290  0.0904  0.3664 -0.1570
89087W        W32004  21.146  13.152  28.756 -0.2271  0.0027 -0.1583
89088W        W32005  19.375  14.314  27.287  0.2487 -0.0729 -0.1337
89089W        W32006  18.806  12.817  29.615 -0.1172  0.4944  0.1800
89090W        W32007  16.974  11.750  27.651  0.1321 -0.0680  0.1983
89091W        W32008  19.085  12.471  30.580 -0.4201 -0.1176 -0.2182
89092W        W32009  16.971  14.759  27.136 -0.0967 -0.0898  0.2750
89093W        W32010  20.989  12.404  29.499 -0.2497  0.1576  0.3443
89094W        W32011  19.036  13.267  27.757  0.1377  0.2543 -0.0353
89095W        W32012  19.428  11.648  29.204 -0.2034  0.2736  0.0701
89096W        W32013  19.267  12.645  28.758 -0.0601 -0.0092 -0.0906
89097W        W32014  19.104   9.844  29.788 -0.1694  0.0443 -0.1909
89098W        W32015  20.555  10.555  28.709 -0.2221 -0.3086 -0.0951
89099W        W32016  19.903  13.741  28.454 -0.3124 -0.1460 -0.1090
89100W        W32017  18.616  10.547  29.397  0.2812  0.1669  0.1388
89101W        W32018  20.567  13.937  29.608  0.1508 -0.1384 -0.4614
89102W        W32019  20.007  12.339  29.969 -0.0042  0.1845 -0.0202
89103W        W32020  20.427  11.793  27.556 -0.0169  0.1653  0.1156
89104W        W32021  18.228  12.700  29.645  0.0563 -0.0958  0.0777
89105W        W32022  17.808  11.993  27.646 -0.0683  0.0577  0.0054
89106W        W32023  20.916  15.738  25.179 -0.2708 -0.1240 -0.0254
89107W        W32024  19.301  14.668  28.531 -0.1795  0.0884 -0.2203
89108W        W32025  20.115  14.687  27.007  0.1117 -0.0644 -0.0075
89109W        W32026  16.984  13.665  27.533  0.0940 -0.0494  0.2394
89110W        W32027  17.449  12.784  30.030  0.1212  0.0008  0.1199
89111W        W32028  19.031  11.650  30.039  0.2360 -0.1954 -0.0660
89112W        W32029  18.788  11.960  28.279  0.0972 -0.2277  0.0671
89113W        W32030  20.431  13.497  29.951 -0.0505 -0.2404 -0.1932
89114W        W32031  19.051  15.601  27.736 -0.0826  0.1095  0.2114
89115W        W32032  19.544  10.406  29.867 -0.1370 -0.1063 -0.3929
89116W        W32033  18.538  13.012  28.822 -0.0839  0.0177 -0.2691
89117W        W32034  18.590  14.126  27.987  0.0087 -0.0149  0.1099
89118W        W32035  20.247  12.586  26.914 -0.1248  0.1436 -0.2367
89119W        W32036  20.011  10.752  29.002  0.0392  0.1128 -0.2338
89120W        W32037  21.022  10.592  30.969  0.2467 -0.3464  0.0700
89121W        W32038  19.811  12.962  29.045 -0.0668  0.1670  0.0168
89122W        W32039  18.426  11.292  28.790 -0.1043  0.0185  0.0815
89123W        W32040  20.483  15.043  28.733  0.0901  0.1613 -0.3137
89124W        W32041  20.878  13.746  27.379 -0.0862 -0.1711 -0.1182
89125W        W32042  16.210  14.531  27.535 -0.1881  0.2295  0.0312
89126W        W32043  20.502  13.490  28.262  0.0620  0.1508  0.2160
89127W        W32044  17.986  14.405  31.932 -0.1862 -0.0867  0.1506
89128W        W32045  19.413  14.381  27.800 -0.0198  0.2887 -0.3426
89129W        W32046  17.046  13.346  26.318 -0.0938  0.0798  0.0330
89130W        W32047  17.156  14.022  25.447  0.0790  0.2256  0.1146
89131W        W32048  16.947  10.472  27.993 -0.1952 -0.0589 -0.0640
89132W        W32049  17.353  15.022  27.023 -0.0680 -0.2470  0.2451
89133W        W32050  19.964   9.975  29.435 -0.0770  0.2899 -0.1190
89134W        W32051  17.420  12.147  28.492 -0.3135  0.2216 -0.0552
89135W        W32052  21.866  10.378  27.891  0.1345  0.2148  0.1165
89136W        W32053  16.427  12.106  26.608  0.0213 -0.2886  0.2530
89137W        W32054  21.265  14.261  29.710 -0.3700  0.2125  0.0063
89138W        W32055  22.040  11.286  28.188 -0.0315  0.0906  0.1266
89139W        W32056  20.446  12.602  24.787 -0.0017  0.1072  0.0615
89140W        W32057  18.504  12.430  27.969  0.1602 -0.0521  0.0978
89141W        W32058  18.313  14.656  26.978  0.2019 -0.0985 -0.2755
89142W        W32059  16.323  11.815  28.532 -0.0301  0.1528  0.1737
89143W        W32060  18.142  13.386  28.420  0.1230 -0.0163 -0.2645
89144W        W32061  19.740  12.514  27.940 -0.0367 -0.1427  0.4404
89145W        W32062  18.716  14.364  26.780  0.1020 -0.1996  0.3144
89146W        W32063  19.513  10.710  29.239  0.1275 -0.2063 -0.1374
89147W        W32064  18.151  11.552  28.387 -0.1267 -0.2115  0.1672
89148W        W32065  19.929  14.228  27.188  0.1012  0.1041 -0.0151
89149W        W32066  21.313  12.429  30.411 -0.2636  0.1617  0.0990
89150W        W32067  19.011  14.687  25.851  0.0998  0.0523  0.0015
89151W        W32068  20.437  15.113  30.466 -0.1393 -0.3307  0.0089
89152W        W32069  20.601  14.902  28.257  0.2189 -0.1811  0.0135
89153W        W32070  17.149  11.618  28.109 -0.0608 -0.0432  0.0510
89154W        W32071  17.004  10.424  27.131  0.2733  0.1747  0.2461
89155W        W32072  19.791  14.542  28.604 -0.0561 -0.2594  0.0701
89156W        W32073  19.322  11.371  28.786 -0.3125 -0.1716 -0.2661
89157W        W32074  19.966  10.576  26.099  0.1334  0.0586 -0.4819
89158W        W32075  20.904  15.550  28.568 -0.1830 -0.1575  0.1798
89159W        W32076  18.173  12.627  26.307 -0.2974 -0.1347  0.2499
89160W        W32077  20.542  11.598  28.680  0.1415 -0.0684 -0.0294
89161W        W32078  20.448  11.523  30.029  0.5337  0.3012 -0.0011
89162W        W32079  23.786  14.366  30.880 -0.1679  0.0941  0.2250
89163W        W32080  18.733  12.351  28.521 -0.1934  0.0344 -0.0114
89164W        W32081  16.687  12.636  26.736 -0.1414  0.0650  0.0522
89165W        W32082  19.437  14.258  28.863 -0.2838  0.3047 -0.0963
89166W        W32083  17.843  13.598  27.126  0.1964 -0.0762  0.0601
89167W        W32084  17.368  13.791  24.788  0.0463  0.4113 -0.0094
89168W        W32085  19.774  12.847  27.529  0.0683  0.0444 -0.1597
89169W        W32086  20.794  12.002  28.756  0.1517  0.2166 -0.2574
89170W        W32087  16.112  10.955  28.287  0.1197 -0.0255 -0.2123
89171W        W32088  20.097  13.744  31.218  0.2205  0.0897  0.0233
89172W        W32089  19.509  11.276  27.267  0.3374 -0.0256  0.1217
89173W        W32090  17.464  12.546  28.186 -0.0933  0.5508 -0.3012
89174W        W32091  17.930   9.824  29.439  0.2433 -0.1269  0.1066
89175W        W32092  22.645  12.047  27.585  0.0746  0.1708  0.0749
89176W        W32093  18.508  11.945  31.328 -0.2457  0.0267 -0.3545
89177W        W32094  20.434  15.610  25.335  0.3514 -0.2689 -0.3066
89178W        W32095  19.376  12.600  27.317 -0.0449 -0.0974  0.0157
89179W        W32096  20.608  10.424  27.165  0.1758 -0.1726  0.1485
89180W        W32097  18.750  13.609  29.277 -0.2020  0.2157  0.0164
89181W        W32098  21.253  14.208  28.401  0.1446 -0.1848 -0.3093
89182W        W32099  19.882  14.669  27.573  0.1785 -0.1629 -0.0644
89183W        W32100  19.516  11.148  27.794  0.2613 -0.0297 -0.0205
89184W        W32101  20.464  14.593  27.366 -0.1217 -0.2604 -0.3990
89185W        W32102  18.554  14.898  27.323  0.2897  0.2210  0.1526
89186W        W32103  20.211  14.751  29.490 -0.3384 -0.3362 -0.3367
89187W        W32104  21.327  13.681  28.668 -0.1190 -0.0480  0.1230
89188W        W32105  17.946  11.313  28.784 -0.1985 -0.0344 -0.0213
89189W        W32106  20.738  11.738  26.804  0.0669  0.3302  0.2857
89190W        W32107  18.841  10.231  28.417  0.2694  0.1383 -0.0496
89191W        W32108  17.638  13.948  25.280  0.0924 -0.1392 -0.0396
89192W        W32109  21.384  12.009  28.728 -0.3006 -0.2721  0.3033
89193W        W32110  20.079  10.774  28.516  0.0236  0.3760 -0.0652
89194W        W32111  20.054   9.757  28.966 -0.0420 -0.1748 -0.1494
89195W        W32112  20.689  12.634  29.810  0.0175 -0.0745  0.2868
89196W        W32113  20.154  12.361  29.117 -0.4490 -0.0965  0.2454
89197W        W32114  20.215  11.615  29.120 -0.1657  0.5001 -0.3053
89198W        W32115  20.921  12.591  24.810  0.2272 -0.0143 -0.2106
89199W        W32116  20.785  11.914  30.714 -0.1432 -0.1721 -0.1319
89200W        W32117  18.478   9.717  29.257  0.3067  0.1607  0.2309
89201W        W32118  20.048  15.617  27.473  0.0621  0.2791  0.1995
89202W        W32119  20.496  11.294  29.402 -0.0916  0.0431  0.0566
89203W        W32120  21.590  13.857  27.224 -0.0474  0.0821  0.1578
89204W        W32121  18.613  11.142  31.148 -0.2686 -0.1894 -0.0361
89205W        W32122  18.653  11.492  28.280  0.1741 -0.1064  0.0350
89206W        W32123  19.223  12.598  28.216  0.0694  0.0470 -0.0919
89207W        W32124  19.148  14.594  25.230  0.1252  0.1084 -0.0085
89208W        W32125  19.077  12.173  30.012  0.0427  0.0423 -0.1452
89209W        W32126  20.154  13.090  27.821  0.0629  0.2100 -0.3360
89210W        W32127  20.669  13.574  24.940 -0.1718 -0.0246  0.0889
89211W        W32128  20.326  14.121  30.023 -0.1197  0.0967  0.3551
89212W        W32129  17.630  12.455  27.255 -0.1373  0.1508  0.2646
89213W        W32130  20.034  11.861  30.036 -0.0055 -0.0801 -0.3014
89214W        W32131  17.773  15.294  28.367  0.0749 -0.1734 -0.0045
89215W        W32132  21.678  14.218  26.883  0.3285 -0.1250  0.4034
89216W        W32133  18.329  13.974  25.875 -0.4191 -0.4025 -0.0221
89217W        W32134  20.767  14.840  26.302  0.0887  0.1402  0.4425
89218W        W32135  20.453  15.603  28.806  0.0384  0.1146 -0.0694
89219W        W32136  19.765  12.395  28.850  0.0211 -0.1027 -0.0326
89220W        W32137  19.252   9.328  29.771 -0.2079  0.0397 -0.2239
89221W        W32138  17.519  16.591  25.623  0.1113  0.1792  0.0868
89222W        W32139  19.538  11.870  30.143  0.0643 -0.0412  0.1880
89223W        W32140  19.531  10.523  27.793 -0.0554  0.2261 -0.0471
89224W        W32141  20.633  14.448  30.710  0.2410  0.0989 -0.1396
89225W        W32142  19.155  13.634  30.017  0.1022 -0.1088 -0.1254
89226W        W32143  17.425  10.641  27.000  0.1483 -0.2382 -0.0802
89227W        W32144  21.120  12.714  31.288 -0.3402 -0.0368  0.4015
89228W        W32145  18.411  12.512  28.868  0.1064 -0.0179 -0.2458
89229W        W32146  19.012  12.932  27.352 -0.0561  0.1742 -0.2094
89230W        W32147  19.296  13.453  29.241 -0.0502  0.2576 -0.2597
89231W        W32148  19.072  12.015  28.726 -0.0354  0.2038 -0.1388
89232W        W32149  16.932  16.150  28.098 -0.0696 -0.4764  0.1282
89233W        W32150  18.674  13.471  31.234 -0.4229 -0.2475  0.2358
89234W        W32151  18.931  14.164  27.627  0.3385  0.0722 -0.1162
89235W        W32152  20.255  12.679  28.724  0.0047 -0.1858  0.1265
89236W        W32153  20.584  11.279  27.438 -0.1571  0.5313 -0.0644
89237W        W32154  20.760  10.162  28.935 -0.0803 -0.0491  0.0467
89238W        W32155  19.853  14.431  28.116  0.2516  0.0968 -0.0461
89239W        W32156  19.554  13.137  30.897 -0.0491  0.2053  0.1251
89240W        W32157  18.768  13.317  30.225 -0.0477 -0.1857  0.1125
89241W        W32158  19.595  10.014  28.100  0.0948 -0.1791 -0.0871
89242W        W32159  20.188  13.765  25.491  0.0182 -0.0888 -0.0630
89243W        W32160  20.721  13.447  27.810  0.1391  0.1376  0.0039
89244W        W32161  19.209  13.553  27.294  0.1916  0.1187 -0.0966
89245W        W32162  16.950  12.810  29.758  0.2360 -0.1197 -0.3146
89246W        W32163  18.295  13.932  26.834 -0.3968 -0.1180 -0.2139
89247W        W32164  21.292  11.545  28.986  0.0406 -0.3276 -0.1022
89248W        W32165  18.140  12.296  27.656  0.0178 -0.0239 -0.0394
89249W        W32166  17.695  12.258  26.235  0.3367  0.1037 -0.2286
89250W        W32167  15.762  12.354  31.439  0.1246 -0.1516  0.2427
89251W        W32168  20.108  11.492  28.371 -0.0448  0.0961 -0.3217
89252W        W32169  20.039  15.034  24.237  0.2080  0.2026 -0.0795
89253W        W32170  17.011  11.260  27.786 -0.1335  0.0423  0.3020
89254W        W32171  21.851  11.683  31.757 -0.3183 -0.1175 -0.1819
89255W        W32172  19.282  12.190  26.525  0.1642  0.1226  0.0099
89256W        W32173  18.296  11.304  30.583 -0.1087  0.1487 -0.0422
89257W        W32174  17.359  11.524  30.076  0.0900  0.1506  0.3306
89258W        W32175  21.798  13.107  27.349  0.1284 -0.1018  0.0431
89259W        W32176  17.380  10.270  29.162  0.1450 -0.0324 -0.0035
89260W        W32177  20.496  13.492  29.359 -0.0322  0.5624 -0.2143
89261W        W32178  18.813  11.764  31.730 -0.0222  0.1189  0.0638
89262W        W32179  19.039  12.963  30.589  0.0454 -0.1289  0.0682
89263W        W32180  18.000  11.548  27.902 -0.2388 -0.0117  0.0703
89264W        W32181  18.795  12.820  28.044 -0.1124  0.0889  0.3057
89265W        W32182  20.862  13.524  29.749 -0.0157 -0.1307  0.0208
89266W        W32183  18.848  13.415  26.059  0.0577 -0.0035 -0.0155
89267W        W32184  21.451  11.572  27.631  0.0805 -0.1130 -0.0746
89268W        W32185  19.513  13.497  28.180  0.4919  0.0778  0.0957
89269W        W32186  18.838  11.551  29.049 -0.2149 -0.2933 -0.1679
89270W        W32187  21.268  14.269  27.277  0.0826 -0.0755  0.1903
89271W        W32188  18.663  13.613  27.969 -0.3715 -0.0884 -0.1707
89272W        W32189  18.676   9.551  30.129  0.1477 -0.0314  0.0992
89273W        W32190  19.021  14.340  28.094  0.0514 -0.1967 -0.0673
89274W        W32191  19.725  11.705  29.636 -0.2675  0.2709  0.0183
89275W        W32192  20.298  13.298  30.819  0.2237 -0.2962 -0.1713
89276W        W32193  18.463  12.895  30.047 -0.2519 -0.0704 -0.1141
89277W        W32194  18.706  13.256  28.318 -0.1456 -0.0382 -0.1198
89278W        W32195  18.143  12.008  30.493 -0.2893  0.1317  0.0094
89279W        W32196  20.942  14.851  30.515  0.1668  0.0174 -0.2067
89280W        W32197  20.379  11.554  27.114  0.1259  0.0518  0.1303
89281W        W32198  21.227  12.343  31.607 -0.0674  0.2053  0.0672
89282W        W32199  22.449  14.136  25.836 -0.0812  0.0453 -0.0660
89283W        W32200  21.279  16.123  27.372  0.0213 -0.0278 -0.2489
89284W        W32201  17.699  12.528  27.775 -0.3523 -0.1991  0.2714
89285W        W32202  19.864  13.884  30.179 -0.0444 -0.1516  0.1192
89286W        W32203  20.402  13.832  28.642 -0.2390 -0.1608  0.1482
89287W        W32204  18.908  12.720  30.176 -0.0186 -0.0087 -0.0169
89288W        W32205  19.840  14.227  26.232 -0.1355 -0.1754 -0.3223
89289W        W32206  19.360  14.844  29.453  0.2416 -0.1348 -0.2018
89290W        W32207  21.261  13.783  28.142 -0.1505  0.1083 -0.2646
89291W        W32208  16.535  10.955  27.343 -0.1555 -0.3346 -0.2127
89292W        W32209  17.007  11.060  28.836 -0.1597 -0.0164 -0.1341
89293W        W32210  19.578  13.147  26.651 -0.0093  0.1498 -0.1875
89294W        W32211  20.672  12.827  27.675 -0.0842 -0.1085  0.5792
89295W        W32212  20.267  13.930  29.215 -0.2561 -0.0321  0.1244
89296W        W32213  20.732  12.535  28.817  0.2804  0.3384 -0.4637
89297W        W32214  20.013  12.331  28.323  0.3804  0.0317  0.1509
89298W        W32215  21.293  13.178  31.498 -0.0226  0.0853 -0.1366
89299W        W32216  19.398  14.583  26.308  0.1962  0.1955  0.1487
89300W        W32217  20.018   9.766  27.312  0.1424 -0.1591  0.1737
89301W        W32218  20.173  15.649  27.970 -0.0842  0.1849 -0.0002
89302W        W32219  16.609  12.427  30.396  0.1079  0.0518 -0.1566
89303W        W32220  18.765  13.532  28.805 -0.2111  0.1898  0.1551
89304W        W32221  18.924  10.587  28.784 -0.0940  0.0939  0.2762
89305W        W32222  19.572  13.227  28.647 -0.1258 -0.1255 -0.1483
89306W        W32223  18.256  13.309  27.897  0.4300  0.3628 -0.0725
89307W        W32224  19.613  12.561  29.348  0.0820  0.2846 -0.0636
89308W        W32225  20.040  12.785  29.495 -0.0708  0.1060  0.1841
89309W        W32226  18.061  14.603  27.558  0.0900  0.0938  0.0411
89310W        W32227  19.677  13.632  29.608  0.1646  0.2449 -0.3843
89311W        W32228  21.554  14.672  29.629 -0.0215 -0.0160 -0.1485
89312W        W32229  17.952  13.074  29.885 -0.0096 -0.1520  0.0573
89313W        W32230  17.173  13.255  29.786  0.3002  0.0420 -0.0517
89314W        W32231  20.854  12.419  30.816  0.0288 -0.1679  0.0426
89315W        W32232  19.730  13.018  28.088  0.0324  0.2928 -0.0581
89316W        W32233  17.908  11.122  28.331  0.0783 -0.1066 -0.2477
89317W        W32234  20.240  14.026  28.190  0.0971 -0.4224 -0.0449
89318W        W32235  16.247  13.756   0.357 -0.1103  0.3746  0.1264
89319W        W32236  15.564  13.462  27.252  0.4889 -0.3147 -0.0132
89320W        W32237  19.812  15.047  25.762  0.0021 -0.0820  0.1299
89321W        W32238  20.748  14.370  27.039 -0.1019  0.4449  0.0114
89322W        W32239  20.445  14.319  28.863 -0.0662 -0.0359  0.0422
89323W        W32240  19.271  12.650  29.834 -0.0633 -0.3547 -0.1753
89324W        W32241  17.889  10.827  27.809  0.0320 -0.1954  0.0162
89325W        W32242  18.856  12.797  28.513 -0.0204 -0.0742 -0.0784
89326W        W32243  18.302  13.151  26.362  0.1545  0.0712  0.2998
89327W        W32244  21.309  14.318  25.508  0.0608  0.0841  0.1040
89328W        W32245  16.971  14.606  26.183  0.0635 -0.1429  0.0286
89329W        W32246  21.277  10.914  30.085 -0.1125  0.1450  0.1517
89330W        W32247  20.104  11.037  26.057  0.0703 -0.1917  0.2089
89331W        W32248  20.992  13.365  28.292  0.2508 -0.0176 -0.0383
89332W        W32249  21.153  13.068  27.924  0.2323 -0.2587  0.0321
89333W        W32250  21.592  14.621  31.306 -0.1008 -0.4013  0.2424
89334W        W32251  20.156  11.256  30.339 -0.1450 -0.1308 -0.2087
89335W        W32252  18.750  11.702  25.749 -0.1502 -0.0766 -0.2033
89336W        W32253  18.059  12.457  30.655 -0.0905 -0.1198  0.0938
89337W        W32254  21.760  12.063  30.591  0.1310 -0.0227 -0.1148
89338W        W32255  16.729  15.177  28.535  0.0471  0.0954 -0.3607
89339W        W32256  19.710  13.499  25.521  0.0376  0.2856  0.3551
89340W        W32257  16.961  10.766  27.528  0.0779  0.1027  0.0298
89341W        W32258  18.345  14.837  26.517  0.0590 -0.1647  0.0876
89342W        W32259  20.861  13.571  28.820  0.0292  0.3404 -0.3001
89343W        W32260  20.320  14.333  26.727 -0.1050 -0.1853 -0.0830
89344W        W32261  18.493  12.043   0.274  0.2566 -0.1892  0.0320
89345W        W32262  20.055  15.803  25.081 -0.2800 -0.1632  0.3022
89346W        W32263  18.745  11.161  30.293  0.1656 -0.1443 -0.2383
89347W        W32264  19.961  13.453  29.261 -0.2027  0.2354 -0.0873
89348W        W32265  18.124  12.652  27.215 -0.0092 -0.1798 -0.1013
89349W        W32266  19.626  10.781  28.243 -0.0777 -0.1628 -0.0260
89350W        W32267  18.795  13.126  29.249 -0.1697 -0.0338  0.2362
89351W        W32268  21.029  11.151  27.819  0.1805 -0.1261  0.2685
89352W        W32269  16.740  13.322  28.469 -0.0974  0.1983  0.3280
89353W        W32270  20.203  13.352  28.769 -0.1583 -0.2310 -0.1191
89354W        W32271  21.826  13.649  28.561  0.1816  0.1696  0.2930
89355W        W32272  17.572  10.674  29.337  0.1987  0.0250 -0.2593
89356W        W32273  21.419  13.720  26.111  0.0708  0.1893 -0.0905
89357W        W32274  21.723  13.645  30.092 -0.0715  0.0819 -0.0407
89358W        W32275  20.028  11.493  27.771  0.0162  0.2929  0.1663
89359W        W32276  20.416  15.676  29.279  0.0001 -0.1600 -0.0514
89360W        W32277  18.213   9.433  28.307 -0.2345 -0.2349  0.0410
89361W        W32278  21.594  11.478  28.607  0.0808 -0.0451  0.0592
89362W        W32279  18.260  12.920  29.202  0.1201  0.0718  0.1082
89363W        W32280  17.885  11.810  29.330 -0.0108  0.1295 -0.3180
89364W        W32281  19.757  14.603  29.710  0.2604 -0.3053  0.1998
89365W        W32282  16.283  10.080  27.409  0.1441  0.0616 -0.0672
89366W        W32283  20.262  14.690  27.875 -0.1822 -0.1411 -0.1180
89367W        W32284  21.476  11.321  28.083  0.2119 -0.5160 -0.0647
89368W        W32285  20.991  14.929  25.812  0.1553  0.0320  0.1696
89369W        W32286  21.824  14.911  29.972 -0.0984 -0.1492 -0.3149
89370W        W32287  22.191  14.458  28.921  0.0446 -0.0315  0.1228
89371W        W32288  17.914  13.349  30.267  0.1034  0.3816 -0.1803
89372W        W32289  20.186  12.739  28.157 -0.2741  0.2083  0.0099
89373W        W32290  20.956  14.081  28.840  0.0317  0.0908 -0.1372
89374W        W32291  20.141  10.957  29.434  0.1749 -0.5232  0.5135
89375W        W32292  16.450  12.035  29.497 -0.0326 -0.1957  0.0277
89376W        W32293  19.908  13.285  27.414 -0.0243 -0.0479  0.0755
89377W        W32294  20.727  13.085  30.130 -0.1500 -0.2413 -0.1684
89378W        W32295  19.088  10.522  29.462 -0.3781 -0.4124 -0.1928
89379W        W32296  20.130  13.531  25.086 -0.4569 -0.0610  0.0887
89380W        W32297  18.096  13.731  30.620  0.0020 -0.0760  0.1447
89381W        W32298  19.658  16.015  29.629  0.1505 -0.3386 -0.1960
89382W        W32299  18.987  12.414  27.719 -0.1076 -0.1112 -0.2601
89383W        W32300  18.965  12.021  26.125 -0.0076  0.1130  0.2623
89384W        W32301  18.501  13.195  29.625 -0.0096 -0.3317  0.0769
89385W        W32302  18.878  12.418  29.008 -0.4726 -0.1275  0.3615
89386W        W32303  20.604  13.560  25.807  0.1234  0.0761 -0.0662
89387W        W32304  20.426  15.996  27.566  0.3151 -0.1072  0.4303
89388W        W32305  19.200  13.128  28.287  0.2795  0.1205 -0.0628
89389W        W32306  20.276  15.675  26.958  0.2511 -0.2209 -0.2053
89390W        W32307  18.348   9.120  27.841  0.0120  0.0003  0.2183
89391W        W32308  21.118   9.593  29.379  0.1054 -0.0853  0.0876
89392W        W32309  21.969  10.849  27.294 -0.3028 -0.1719  0.0605
89393W        W32310  19.177  12.785  29.259 -0.1608 -0.2507 -0.2417
89394W        W32311  15.458  11.788  26.251  0.1533  0.0981  0.1587
89395W        W32312  18.783  12.188  26.546 -0.4844  0.1104  0.2231
89396W        W32313  16.256  12.021  30.047  0.2259 -0.0361  0.1693
89397W        W32314  20.502  12.126  30.013 -0.0476  0.3188  0.1696
89398W        W32315  18.800  11.437  29.615  0.0350  0.1722 -0.0961
89399W        W32316  18.299  13.377  26.841 -0.3201  0.1358  0.0872
89400W        W32317  18.761  10.912  29.129 -0.2623 -0.0160  0.3277
89401W        W32318  20.302  14.088  25.837  0.1325  0.1393 -0.3632
89402W        W32319  18.066  10.501  29.336 -0.0303  0.1827  0.0763
89403W        W32320  16.432  12.808  26.248 -0.0701  0.1418 -0.0365
89404W        W32321  19.843  15.186  27.724  0.0877  0.0194  0.2545
89405W        W32322  21.496  15.055  28.672  0.1448  0.0593 -0.3507
89406W        W32323  20.949  10.192  28.445 -0.2469  0.3835 -0.2106
89407W        W32324  19.046  15.533  30.696 -0.0937  0.0606 -0.0615
89408W        W32325  17.928  13.726  25.638  0.2215 -0.0271  0.1737
89409W        W32326  17.403  13.579  30.258  0.0859  0.0792  0.3160
89410W        W32327  17.006  10.070  30.399  0.0985 -0.0149 -0.1804
89411W        W32328  17.218  10.384  26.667  0.1640  0.0202  0.0982
89412W        W32329  18.176  14.129  27.656  0.4843 -0.0573 -0.1704
89413W        W32330  20.039  14.810  25.321 -0.2312  0.0476 -0.1319
89414W        W32331  19.263  15.178  25.039 -0.0184 -0.1897  0.0087
89415W        W32332  18.204  15.891  28.397  0.0841 -0.0935  0.4015
89416W        W32333  18.007  13.805  28.616  0.1284 -0.0641 -0.1920
89417W        W32334  19.169  10.015  30.930  0.1459  0.2159 -0.2608
89418W        W32335  19.574  12.184  29.734  0.2213  0.2024  0.0322
89419W        W32336  18.837  11.951  29.297 -0.0632 -0.0502 -0.1266
89420W        W32337  19.044  15.829  26.616  0.1185  0.1759 -0.1566
89421W        W32338  19.278  11.367  29.710 -0.1131 -0.0235  0.2109
89422W        W32339  20.385  13.423  26.968 -0.1005 -0.0012 -0.0158
89423W        W32340  17.338  11.043  30.296 -0.0320 -0.2304 -0.1200
89424W        W32341  18.339  10.762  28.830 -0.2296 -0.1534 -0.1316
89425W        W32342  20.576  14.548  29.771 -0.0023  0.0899 -0.3327
89426W        W32343  18.157  10.621  28.284 -0.2236  0.2064  0.0438
89427W        W32344  20.864  10.554  29.261  0.0803 -0.1350 -0.5846
89428W        W32345  19.027  14.019  27.053  0.1759  0.0996  0.2851
89429W        W32346  19.261  11.681  28.424  0.1439 -0.1744  0.1155
89430W        W32347  19.282  11.173  28.314 -0.2135  0.0177  0.1499
89431W        W32348  17.447  12.001  29.478 -0.3401  0.1802 -0.1813
89432W        W32349  18.845  10.021  28.892 -0.2442  0.4044  0.1981
89433W        W32350  21.705  14.058  28.166 -0.2268 -0.1973  0.0246
89434W        W32351  18.470  12.464  26.857  0.0885 -0.2814  0.0239
89435W        W32352  19.242  12.106  28.059  0.1626  0.0792 -0.0329
89436W        W32353  22.222  14.707  30.313  0.0185 -0.3088 -0.0402
89437W        W32354  21.197  16.757  30.544 -0.0171  0.2586 -0.0852
89438W        W32355  19.740  14.598  30.798 -0.3351 -0.0051 -0.0545
89439W        W32356  21.321  12.961  27.167 -0.2035 -0.3243  0.0598
89440W        W32357  17.550  12.445  29.200  0.2107  0.2781  0.1777
89441W        W32358  20.214  11.232  28.822  0.2964 -0.2658 -0.2288
89442W        W32359  19.216  13.613  26.748 -0.1916  0.1799  0.1758
89443W        W32360  21.832  12.649  28.924  0.2091 -0.0479  0.3832
89444W        W32361  18.826  11.064  28.593  0.3974  0.0906 -0.1439
89445W        W32362  18.412  10.644  27.257  0.1199  0.0086  0.1912
89446W        W32363  20.356  15.378  28.396 -0.1447  0.3845  0.0411
89447W        W32364  21.922  14.411  29.376  0.1308 -0.0162  0.1443
89448W        W32365  21.260  11.981  30.633  0.0186  0.3280 -0.0506
89449W        W32366  19.971  12.924  30.807  0.3366  0.0072 -0.0720
89450W        W32367  17.223  11.540  28.657  0.0890  0.1348 -0.0491
89451W        W32368  18.271  14.069  30.024 -0.3360  0.0173  0.0615
89452W        W32369  19.858  11.950  29.145 -0.4306 -0.3091 -0.1667
89453W        W32370  17.756  12.338  29.793 -0.0278 -0.3507 -0.2205
89454W        W32371  18.506  10.450  29.936 -0.0242 -0.1047  0.0809
89455W        W32372  19.182  11.048  30.640 -0.0337  0.1192  0.2950
89456W        W32373  19.191  12.080  31.885 -0.1642 -0.0935  0.0530
89457W        W32374  21.345  14.173  29.190 -0.2372 -0.3592  0.1375
89458W        W32375  19.357  11.458  30.422  0.0652 -0.0645  0.3398
89459W        W32376  18.095  11.583  31.372  0.1937 -0.0491 -0.2942
89460W        W32377  20.033  13.262  29.734  0.1451 -0.0999 -0.2516
89461W        W32378  18.900  12.217  31.441 -0.1356  0.3502 -0.1106
89462W        W32379  21.375  13.985  30.156  0.0527  0.3688  0.2478
89463W        W32380  19.795  15.512  29.876 -0.2448 -0.0186  0.0830
89464W        W32381  17.920  13.848  31.123  0.0215 -0.1620  0.0958
89465W        W32382  16.953  11.867  29.671 -0.2402  0.0111 -0.0632
89466W        W32383  18.203  10.920   0.840  0.1568 -0.0757 -0.0280
89467W        W32384  17.608  10.956  29.720  0.0499 -0.1388 -0.1825
89468W        W32385  16.170  12.058  31.256  0.1524 -0.1154  0.1046
89469W        W32386  17.632  13.855  30.677 -0.2234  0.3484  0.0001
89470W        W32387  19.824  13.449  30.660  0.0376  0.2336 -0.1474
89471W        W32388  21.672  12.228  31.371 -0.1499 -0.2271  0.0145
89472W        W32389  18.307  11.540  29.918  0.0824 -0.1209  0.0642
89473W        W32390  18.319  13.561   0.226  0.1010  0.0286 -0.4435
89474W        W32391  16.754  14.247  31.609  0.0920 -0.0082  0.1774
89475W        W32392  19.132  13.889  29.568  0.0137  0.1024 -0.0303
89476W        W32393  18.368  13.151  30.501 -0.0368 -0.1541 -0.1481
89477W        W32394  17.459  11.969  29.005 -0.0626  0.1301 -0.1029
89478W        W32395  19.139  12.740  31.120 -0.4020 -0.2504  0.0307
89479W        W32396  17.731  11.709  31.780 -0.1839  0.2155  0.0815
89480W        W32397  21.105  14.650  30.991  0.1128  0.0664  0.4115
89481W        W32398  20.742  13.016  31.525 -0.4266  0.2149 -0.0987
89482W        W32399  19.834  11.527  30.565 -0.1339 -0.2820  0.0664
89483W        W32400  18.893  15.125  29.535 -0.0414  0.1150 -0.2594
89484W        W32401  18.676  13.478  30.749  0.1751 -0.0967 -0.0099
89485W        W32402  18.665  12.384  31.920 -0.0274 -0.1145 -0.2688
89486W        W32403  20.482  13.022  29.609 -0.3577 -0.0562 -0.2461
89487W        W32404  19.799  12.109  30.431  0.0745 -0.1860  0.2445
89488W        W32405  20.911  11.974  31.238  0.4267 -0.2376 -0.0489
89489W        W32406  21.839  11.880  31.079 -0.2548  0.0952 -0.0979
89490W        W32407  18.099   8.936  31.426  0.1541 -0.0586  0.1474
89491W        W32408  20.138  11.808  31.352  0.0518 -0.2051 -0.1159
89492W        W32409  17.407  11.409  30.731  0.5058 -0.3187 -0.1317
89493W        W32410  18.313  11.967  29.052 -0.0704  0.0364  0.0224
89494W        W32411  18.604  12.178  30.337  0.3869  0.1994 -0.1590
89495W        W32412  21.324  12.690  28.755  0.1007  0.1158  0.1757
89496W        W32413  21.847  11.056   0.277  0.0818  0.0659 -0.3982
89497W        W32414  16.402  14.277  29.906 -0.1830  0.0964  0.0277
89498W        W32415  19.537  15.155  31.392  0.0456 -0.1528  0.1907
89499W        W32416  22.267  11.060  31.642 -0.0007 -0.2651 -0.0551
89500W        W32417  18.302  12.677  31.323  0.1824 -0.1254  0.2318
89501W        W32418  18.043  12.369  29.242 -0.0065 -0.3817 -0.0954
89502W        W32419  17.277  13.115   1.085  0.0077 -0.2256 -0.2940
89503W        W32420  20.804  13.516  30.291  0.0148  0.0968  0.0742
89504W        W32421  19.562  13.874  30.596 -0.1871  0.0977 -0.2646
89505W        W32422  19.296  13.425  30.459 -0.0470 -0.1920 -0.0422
89506W        W32423  19.516  13.656  31.021  0.2929 -0.0317 -0.4633
89507W        W32424  17.934  12.838  30.310  0.0153 -0.1761 -0.0333
89508W        W32425  17.938  12.124  27.110  0.1564 -0.0876  0.0370
89509W        W32426  17.640  12.704  30.702  0.0167 -0.0264 -0.1507
89510W        W32427  18.355  11.634  29.402 -0.0822  0.3864 -0.0325
89511W        W32428  16.942  11.279  31.438  0.1183  0.0246 -0.3741
89512W        W32429  21.692  14.327  30.860 -0.0177  0.1626  0.0695
89513W        W32430  23.426  14.104  27.481  0.3279 -0.0877 -0.6668
89514W        W32431  20.275  12.790  29.993 -0.2535 -0.2284  0.2630
89515W        W32432  20.202  16.437  15.164  0.1873 -0.2404  0.1096
89516W        W32433  18.021  15.508  15.948 -0.0596 -0.1854  0.3387
89517W        W32434  19.424  16.698  14.637  0.1875 -0.0831 -0.0769
89518W        W32435  22.568  16.593  17.321 -0.1527 -0.3337 -0.1139
89519W        W32436  18.260  16.142  15.893  0.1195  0.0104  0.2442
89520W        W32437  21.798  18.594  17.874  0.0148 -0.0422  0.3361
89521W        W32438  18.712  13.922  16.430  0.0817  0.0920 -0.1329
89522W        W32439  22.020  17.975  17.760  0.1053  0.1417  0.0240
89523W        W32440  20.095  18.238  16.296 -0.1812  0.1468 -0.3870
89524W        W32441  20.176  15.738  14.875 -0.0881  0.0081  0.1664
89525W        W32442  20.646  13.371  17.986  0.0744  0.1557 -0.0043
89526W        W32443  21.034  19.056  17.640 -0.0927  0.1238 -0.1195
89527W        W32444  20.335  15.010  14.521 -0.0231  0.3278 -0.2106
89528W        W32445  17.919  13.786  15.358 -0.1282 -0.1181  0.1128
89529W        W32446  23.076  16.863  18.133  0.3337  0.1025 -0.3300
89530W        W32447  15.992  15.630  14.882 -0.0401 -0.1189 -0.1698
89531W        W32448  18.773  14.835  17.538 -0.1532  0.3219 -0.1771
89532W        W32449  18.732  14.807  15.181  0.2675 -0.1283  0.1282
89533W        W32450  20.364  17.178  15.633  0.2004  0.1128 -0.2318
89534W        W32451  20.813  14.197  16.399 -0.1426  0.2124 -0.1828
89535W        W32452  19.139  13.999  17.744 -0.1043  0.0597  0.0709
89536W        W32453  21.800  15.669  16.788  0.1749  0.1950 -0.0576
89537W        W32454  16.329  14.723  13.979 -0.1796 -0.0281  0.2566
89538W        W32455  17.151  15.006  13.985 -0.0279  0.1856 -0.0204
89539W        W32456  21.049  15.413  15.679 -0.2515 -0.2234 -0.1604
89540W        W32457  21.733  16.015  16.321 -0.0437  0.0201 -0.0873
89541W        W32458  22.246  16.094  15.404 -0.1858  0.1024  0.1705
89542W        W32459  17.217  15.638  15.637  0.1739 -0.1546 -0.1093
89543W        W32460  20.713  16.822  17.890 -0.2254  0.0553  0.0590
89544W        W32461  21.929  15.021  16.137 -0.1356 -0.1029  0.0963
89545W        W32462  16.386  16.364  15.135 -0.1972  0.2597 -0.0291
89546W        W32463  18.251  17.566  13.878  0.0612 -0.1670 -0.1080
89547W        W32464  17.152  18.255  16.154  0.1391 -0.1870  0.1388
89548W        W32465  22.359  16.790  15.976  0.1450  0.1333  0.2472
89549W        W32466  20.273  20.764  18.806 -0.0879  0.1899 -0.1313
89550W        W32467  19.304  17.343  16.041  0.1501 -0.0270  0.2531
89551W        W32468  18.222  16.419  14.639 -0.0068 -0.2970  0.3191
89552W        W32469  19.214  17.325  15.532  0.1097  0.1298  0.2752
89553W        W32470  20.862  19.418  15.907 -0.2539 -0.0480  0.0387
89554W        W32471  20.805  16.049  15.829 -0.2131 -0.0574  0.0716
89555W        W32472  22.099  15.517  16.362  0.1305 -0.1086 -0.0845
89556W        W32473  19.206  18.198  14.368 -0.1898  0.1114  0.0513
89557W        W32474  20.200  16.295  15.695  0.2386 -0.1884 -0.5490
89558W        W32475  20.084  13.586  18.158 -0.3001  0.1791  0.3079
89559W        W32476  18.371  17.192  16.299  0.2576  0.3001  0.2757
89560W        W32477  22.095  15.074  17.448  0.0864 -0.0096  0.1981
89561W        W32478  18.664  18.564  15.067 -0.2104  0.4351  0.1776
89562W        W32479  20.552  16.126  14.852  0.0242  0.1400 -0.2663
89563W        W32480  18.392  15.201  14.292 -0.0605 -0.1026 -0.0043
89564W        W32481  20.946  14.899  14.805  0.0799  0.2653  0.2765
89565W        W32482  20.401  11.401  16.584  0.1162  0.1608  0.0760
89566W        W32483  19.073  17.805  15.602 -0.0941 -0.2115  0.0029
89567W        W32484  19.894  15.369  14.651 -0.2810  0.1174 -0.0355
89568W        W32485  22.340  15.903  18.557  0.0733  0.0938  0.1141
89569W        W32486  20.465  15.710  15.858  0.0351 -0.1223 -0.0449
89570W        W32487  23.186  15.837  17.542 -0.2181 -0.0139 -0.0954
89571W        W32488  18.317  17.238  14.552 -0.0241 -0.0305  0.1770
89572W        W32489  18.087  17.524  15.609  0.5344  0.1731  0.1211
89573W        W32490  20.907  18.513  15.502 -0.2221 -0.5494 -0.0450
89574W        W32491  20.944  17.886  14.421 -0.5358  0.0787 -0.0555
89575W        W32492  20.213  17.282  14.941 -0.1816  0.4549  0.1282
89576W        W32493  18.297  15.718  14.216 -0.1183 -0.1449  0.3664
89577W        W32494  18.332  14.088  17.142 -0.3021 -0.0044 -0.2263
89578W        W32495  18.383  18.047  16.199 -0.1785  0.2654 -0.0382
89579W        W32496  20.418  15.486  14.513  0.3497 -0.0336 -0.0265
89580W        W32497  24.490  17.112  20.557 -0.2159 -0.2547  0.0873
89581W        W32498  18.804  18.546  17.586  0.3296  0.1030 -0.0629
89582W        W32499  21.744  15.067  15.392 -0.1880  0.3335 -0.0025
89583W        W32500  21.557  15.927  17.195 -0.0480 -0.2520  0.1208
89584W        W32501  20.060  17.329  16.463  0.1594 -0.2445  0.0138
89585W        W32502  22.333  16.299  15.849 -0.6345  0.3285 -0.1556
89586W        W32503  21.130  16.468  15.786  0.3295  0.0139  0.0847
89587W        W32504  19.584  13.050  18.221 -0.1528 -0.1428  0.2896
89588W        W32505  17.743  17.033  14.090 -0.1438 -0.2084  0.4799
89589W        W32506  18.533  16.759  14.649  0.0822 -0.0335  0.2395
89590W        W32507  21.111  18.058  16.580 -0.3775 -0.1883  0.0274
89591W        W32508  20.199  16.501  13.869  0.2226 -0.3068  0.0780
89592W        W32509  17.937  17.088  15.939 -0.1059 -0.4143 -0.1456
89593W        W32510  19.528  14.238  16.868 -0.0339 -0.0582  0.2033
89594W        W32511  19.828  16.453  17.905 -0.3572 -0.3536  0.1615
89595W        W32512  18.346  18.113  13.961 -0.1001  0.0511 -0.3048
89596W        W32513  19.977  17.391  15.922  0.0080  0.1358  0.0062
89597W        W32514  18.983  15.091  16.626 -0.0923  0.4257 -0.2276
89598W        W32515  17.960  14.766  14.336  0.3767  0.0889  0.1845
89599W        W32516  19.903  14.594  15.663  0.2812 -0.3814  0.1213
89600W        W32517  20.495  16.709  15.559 -0.1194 -0.0535 -0.1753
89601W        W32518  17.133  12.810  15.540 -0.0893 -0.1947  0.1000
89602W        W32519  23.265  15.419  18.433 -0.0061 -0.0710  0.1760
89603W        W32520  17.438  17.189  13.726 -0.1978  0.0182  0.0770
89604W        W32521  18.630  16.581  15.176 -0.1487 -0.0897  0.0829
89605W        W32522  20.480  16.018  15.376 -0.1193 -0.1065  0.1903
89606W        W32523  19.501  18.204  15.291 -0.1041  0.0804  0.1029
89607W        W32524  20.331  14.619  17.320 -0.0027 -0.1052 -0.0729
89608W        W32525  18.219  12.890  16.526 -0.0169  0.2105  0.0813
89609W        W32526  19.742  15.000  17.205  0.1527  0.1790 -0.0271
89610W        W32527  15.380  14.281  14.793 -0.0831 -0.4134  0.2146
89611W        W32528  21.398  11.991  17.890  0.2137  0.3842 -0.0330
89612W        W32529  17.557  14.116  15.999  0.0865  0.1264 -0.0964
89613W        W32530  18.215  13.490  15.933  0.0829  0.0718  0.1703
89614W        W32531  19.473  14.846  15.995  0.1832  0.2753 -0.0848
89615W        W32532  18.748  16.354  13.859  0.2073 -0.0607 -0.2488
89616W        W32533  22.443  16.388  18.778 -0.0714 -0.1197 -0.3337
89617W        W32534  18.918  19.786  15.876  0.3638 -0.1288  0.1595
89618W        W32535  23.286  17.890  18.147 -0.0085 -0.2295 -0.2460
89619W        W32536  21.281  17.156  16.850  0.3152 -0.3515  0.1937
89620W        W32537  19.819  15.168  16.713  0.1059  0.0304  0.0581
89621W        W32538  18.940  15.802  14.766 -0.4266 -0.1458  0.1577
89622W        W32539  18.873  16.638  17.141  0.3069  0.0632 -0.1675
89623W        W32540  19.994  16.773  17.507  0.2350 -0.0695 -0.3681
89624W        W32541  18.241  14.747  14.783  0.3447  0.0959 -0.0044
89625W        W32542  20.947  18.087  18.583  0.2308 -0.0635 -0.2837
89626W        W32543  20.782  15.777  15.066 -0.0275 -0.2648  0.1838
89627W        W32544  19.285  16.441  16.341 -0.2439 -0.3685  0.1537
89628W        W32545  20.906  14.511  17.188  0.3381 -0.1351 -0.0454
89629W        W32546  22.905  14.525  18.199 -0.0414  0.0223  0.2255
89630W        W32547  23.723  16.165  15.816  0.0761 -0.1168  0.3906
89631W        W32548  17.562  15.084  14.311  0.1475  0.0308  0.1987
89632W        W32549  19.274  17.928  16.076  0.2765  0.1517  0.0501
89633W        W32550  17.270  17.079  14.247  0.2833  0.2982 -0.0876
89634W        W32551  20.083  15.457  15.376  0.1014 -0.1060  0.0459
89635W        W32552  18.327  17.978  14.927  0.1893  0.1113 -0.0420
89636W        W32553  20.766  14.075  16.954  0.0430  0.1488 -0.2553
89637W        W32554  20.468  14.176  18.025 -0.0591  0.1081  0.3582
89638W        W32555  19.239  16.452  17.441 -0.0818  0.2814 -0.5708
89639W        W32556  17.421  17.350  14.644 -0.1707 -0.1079  0.0767
89640W        W32557  18.505  17.378  17.348 -0.0877 -0.0942 -0.0312
89641W        W32558  20.380  13.968  16.270  0.1101 -0.2183 -0.0513
89642W        W32559  21.606  15.856  14.042 -0.1352 -0.3251  0.2836
89643W        W32560  22.102  16.686  18.553  0.0216  0.0875 -0.0841
89644W        W32561  21.023  16.667  16.253  0.2282 -0.1935 -0.1344
89645W        W32562  18.853  14.375  15.349 -0.2887 -0.0480  0.3076
89646W        W32563  21.005  14.354  14.818  0.0975 -0.1695  0.3296
89647W        W32564  19.373  16.924  17.316  0.1347 -0.0306 -0.3870
89648W        W32565  20.020  15.369  15.877  0.0550  0.1919 -0.3184
89649W        W32566  21.021  15.718  16.710 -0.0869 -0.1674  0.2511
89650W        W32567  18.724  14.948  14.614  0.2043 -0.0533 -0.3018
89651W        W32568  21.637  19.400  15.031 -0.1012 -0.0577  0.0861
89652W        W32569  18.918  16.463  16.679  0.1766  0.0999  0.0944
89653W        W32570  21.791  16.420  17.874  0.0822 -0.0223  0.3110
89654W        W32571  19.746  16.073  15.745 -0.3007  0.0305  0.0418
89655W        W32572  19.664  14.089  15.645 -0.4516  0.1313 -0.3553
89656W        W32573  17.644  14.570  15.135  0.2879 -0.1519  0.1623
89657W        W32574  20.797  14.730  16.148 -0.1020  0.2582  0.1566
89658W        W32575  18.342  17.750  14.437  0.0827  0.1743  0.0209
89659W        W32576  22.802  16.219  17.603 -0.0420 -0.1648 -0.2718
89660W        W32577  22.470  16.145  17.159 -0.0498  0.0921 -0.0310
89661W        W32578  20.956  13.404  20.046  0.0948  0.0037  0.2535
89662W        W32579  20.795  14.577  16.692 -0.3880  0.0636 -0.0589
89663W        W32580  21.641  17.291  15.279  0.0482  0.1274  0.1360
89664W        W32581  22.862  17.105  15.891 -0.2512  0.0772  0.2447
89665W        W32582  17.833  17.892  14.134 -0.1287 -0.1972 -0.0168
89666W        W32583  18.729  16.247  16.249  0.2760  0.2403 -0.0785
89667W        W32584  21.000  16.886  17.232  0.1740  0.1944 -0.0805
89668W        W32585  19.005  15.986  17.485 -0.0373  0.5483  0.0108
89669W        W32586  20.461  18.626  18.836  0.0463  0.0058  0.3563
89670W        W32587  20.349  16.869  14.749 -0.0019  0.3478 -0.1777
89671W        W32588  20.183  15.972  16.165 -0.1430  0.1195 -0.0631
89672W        W32589  18.011  15.893  16.244 -0.0476  0.2243  0.3861
89673W        W32590  17.920  17.770  14.780 -0.0103  0.1760 -0.0085
89674W        W32591  17.896  17.932  15.240  0.0427 -0.0514  0.0145
89675W        W32592  19.439  12.926  16.680  0.1477 -0.0045  0.1960
89676W        W32593  20.455  18.293  17.011 -0.2367 -0.1756 -0.2925
89677W        W32594  21.231  14.360  15.882  0.1852  0.0575 -0.2311
89678W        W32595  17.273  16.400  16.344  0.0680 -0.1437  0.0128
89679W        W32596  17.760  16.784  15.130 -0.2503 -0.2488 -0.1018
89680W        W32597  21.592  15.490  17.977 -0.1214 -0.1398 -0.1480
89681W        W32598  17.487  20.135  15.407 -0.1541  0.2240  0.2888
89682W        W32599  21.048  15.502  16.196  0.1823 -0.2543  0.0688
89683W        W32600  18.336  16.220  14.081  0.1032 -0.5171  0.1652
89684W        W32601  21.113  13.322  16.071  0.0601  0.1375  0.2320
89685W        W32602  22.973  16.596  16.613 -0.1179 -0.0141  0.2991
89686W        W32603  17.325  14.225  15.527  0.1220 -0.1958 -0.1831
89687W        W32604  17.771  16.126  14.317 -0.0762  0.1111 -0.4522
89688W        W32605  17.522  17.923  14.553  0.0631 -0.4660  0.3336
89689W        W32606  19.803  12.639  19.488 -0.1970  0.3005 -0.1245
89690W        W32607  22.053  15.619  15.363 -0.1054 -0.0875  0.2620
89691W        W32608  20.454  17.093  18.510 -0.1544  0.2586  0.0942
89692W        W32609  20.801  14.969  17.464  0.0402  0.1749  0.2250
89693W        W32610  18.559  14.717  14.176  0.1122 -0.1350  0.0756
89694W        W32611  22.412  15.916  16.180  0.0996 -0.0841 -0.0252
89695W        W32612  19.366  15.539  16.521  0.0283  0.3397 -0.0086
89696W        W32613  16.826  16.122  16.335  0.3547  0.1925 -0.2434
89697W        W32614  18.349  17.667  16.587  0.1687  0.1498 -0.1079
89698W        W32615  18.020  18.188  14.528 -0.2705  0.1701  0.0240
89699W        W32616  20.046  18.050  15.517 -0.0661 -0.2343 -0.0982
89700W        W32617  21.101  15.724  18.545 -0.0132 -0.2701  0.0788
89701W        W32618  20.540  15.982  16.884  0.0957 -0.1451  0.2221
89702W        W32619  20.622  14.286  15.967 -0.0916  0.0278 -0.3336
89703W        W32620  18.829  15.487  14.397 -0.0398 -0.1919  0.2771
89704W        W32621  20.579  16.636  16.181  0.0723  0.1727 -0.3101
89705W        W32622  21.058  16.191  14.894 -0.0107  0.2168 -0.2280
89706W        W32623  21.631  15.499  16.173  0.2805 -0.0430  0.2838
89707W        W32624  18.796  17.356  17.753  0.3106  0.2312  0.0367
89708W        W32625  19.597  15.232  15.089  0.2505 -0.0080 -0.1261
89709W        W32626  20.894  19.368  16.403  0.2966 -0.0799 -0.3632
89710W        W32627  21.656  16.795  18.181 -0.2632  0.1934  0.1591
89711W        W32628  19.830  17.513  14.635 -0.0214  0.1625  0.1785
89712W        W32629  17.655  16.045  17.125 -0.1864 -0.1732 -0.2268
89713W        W32630  18.876  15.985  15.831  0.0623  0.0030 -0.1532
89714W        W32631  21.441  14.016  18.052 -0.0091 -0.2390 -0.0320
89715W        W32632  18.465  15.667  15.771 -0.4057  0.0771  0.3591
89716W        W32633  18.098  16.386  15.111  0.2278 -0.0292 -0.1682
89717W        W32634  19.318  16.720  16.831  0.2087  0.1153 -0.3383
89718W        W32635  19.874  13.881  16.077 -0.0221  0.0050  0.2549
89719W        W32636  20.196  17.581  15.407  0.3234 -0.1309  0.1466
89720W        W32637  19.030  15.541  16.855  0.1774  0.1049 -0.3425
89721W        W32638  23.086  15.924  19.862  0.0555  0.0485  0.1319
89722W        W32639  21.112  17.315  15.121  0.1862 -0.0672 -0.3327
89723W        W32640  23.483  14.437  18.442 -0.1442  0.1788 -0.2179
89724W        W32641  19.323  15.784  14.414  0.1227 -0.0874  0.3259
89725W        W32642  20.477  15.509  16.673 -0.1928  0.1942  0.3597
89726W        W32643  18.537  12.403  16.520 -0.1957 -0.2398 -0.0682
89727W        W32644  20.273  19.065  17.731 -0.0340 -0.0048 -0.1190
89728W        W32645  19.422  15.264  16.988 -0.1409  0.0985  0.0584
89729W        W32646  18.631  14.500  17.200 -0.1620 -0.0504 -0.1641
89730W        W32647  16.608  14.659  13.007  0.1667 -0.0592 -0.0361
89731W        W32648  21.709  16.029  15.423 -0.1944  0.2673  0.0511
89732W        W32649  22.565  16.995  18.676  0.2569  0.0910 -0.1136
89733W        W32650  20.201  16.828  16.483 -0.0223 -0.2705  0.0495
89734W        W32651  22.558  14.304  15.664  0.2474  0.1562 -0.0453
89735W        W32652  20.730  15.016  15.274  0.1091 -0.3182  0.2439
89736W        W32653  20.646  15.147  15.798 -0.0385 -0.0398 -0.0382
89737W        W32654  21.542  16.045  14.958 -0.1694  0.0340 -0.0070
89738W        W32655  20.314  15.068  16.561 -0.1075 -0.1983  0.2506
89739W        W32656  18.923  13.736  18.204  0.0034 -0.0098 -0.0739
89740W        W32657  22.130  13.836  17.355  0.0397 -0.0071  0.1728
89741W        W32658  19.972  15.035  14.179  0.1069 -0.2826  0.0068
89742W        W32659  21.350  14.271  17.176 -0.1008 -0.4166  0.1903
89743W        W32660  20.554  12.560  18.078  0.0073  0.3024 -0.1037
89744W        W32661  21.599  17.310  18.209  0.2600  0.1852 -0.3016
89745W        W32662  18.034  13.683  18.102  0.0929  0.1837 -0.0213
89746W        W32663  20.594  18.047  16.590  0.1066  0.0424 -0.0071
89747W        W32664  20.133  17.092  14.332 -0.0506 -0.1599 -0.1349
89748W        W32665  20.728  15.944  17.726  0.1289 -0.1771  0.4053
89749W        W32666  21.677  16.978  17.142  0.3293 -0.2231 -0.1147
89750W        W32667  19.481  16.724  15.128  0.0329  0.0469 -0.0074
89751W        W32668  18.546  13.910  15.836  0.0093  0.0796 -0.3822
89752W        W32669  22.946  14.813  17.214 -0.2433 -0.0668  0.2002
89753W        W32670  19.174  14.619  14.462  0.0329  0.0923 -0.0306
89754W        W32671  21.571  14.293  17.654  0.4228 -0.2909 -0.0216
89755W        W32672  21.673  17.521  17.185 -0.0297 -0.2563  0.1913
89756W        W32673  19.690  16.552  15.512  0.0871 -0.2376  0.4037
89757W        W32674  20.697  16.399  14.401 -0.0201 -0.1550  0.0759
89758W        W32675  18.835  15.175  15.976 -0.1251 -0.2167 -0.1205
89759W        W32676  19.244  17.177  16.581 -0.2020  0.0435  0.1816
89760W        W32677  18.843  15.485  13.572 -0.3032  0.1175  0.1225
89761W        W32678  19.602  15.783  14.912 -0.1255  0.1147  0.0647
89762W        W32679  21.478  14.034  15.405 -0.0961 -0.1271  0.0596
89763W        W32680  23.740  18.449  20.499  0.1164  0.2038 -0.0020
89764W        W32681  18.742  14.629  15.868 -0.0395 -0.4020 -0.1387
89765W        W32682  22.282  14.606  16.247 -0.1874  0.0069  0.0161
89766W        W32683  18.125  16.603  15.957  0.0746  0.0860 -0.0352
89767W        W32684  20.255  12.843  19.366  0.2464  0.1244 -0.1184
89768W        W32685  18.446  19.453  16.739 -0.0051 -0.0020 -0.0903
89769W        W32686  19.006  16.963  15.813 -0.0849  0.0195  0.2177
89770W        W32687  19.895  17.916  15.059 -0.1484 -0.3803  0.1680
89771W        W32688  18.724  13.447  17.508  0.0429  0.1310  0.1105
89772W        W32689  19.243  14.103  14.585 -0.0314 -0.0167  0.0691
89773W        W32690  20.266  15.697  17.945 -0.1640  0.1946  0.1717
89774W        W32691  20.903  16.291  16.599 -0.1776 -0.3671 -0.0876
89775W        W32692  18.767  17.598  14.727 -0.2850  0.1080 -0.0283
89776W        W32693  21.084  16.903  15.480 -0.0024  0.0343  0.3597
89777W        W32694  21.330  19.603  19.008  0.0550  0.1686 -0.1984
89778W        W32695  22.390  13.911  18.093  0.1974 -0.1756  0.0300
89779W        W32696  18.239  17.424  15.064 -0.1561 -0.0391  0.0894
89780W        W32697  17.011  15.207  16.456 -0.0086  0.2728  0.1508
89781W        W32698  20.218  15.160  17.742  0.0378 -0.1052  0.0999
89782W        W32699  20.396  14.467  15.484  0.0154 -0.2159  0.2092
89783W        W32700  18.934  13.654  16.008  0.0085  0.1620 -0.2441
89784W        W32701  19.373  17.854  14.835  0.2357 -0.2561  0.0117
89785W        W32702  17.627  16.719  16.331  0.3443  0.0907  0.3036
89786W        W32703  17.701  16.671  15.648 -0.2931 -0.2355 -0.1315
89787W        W32704  18.332  18.812  15.551 -0.0826 -0.1024  0.0254
89788W        W32705  20.789  16.567  14.851 -0.0525 -0.0082 -0.2586
89789W        W32706  21.388  16.056  16.706  0.0872 -0.0132 -0.2940
89790W        W32707  17.737  18.382  15.533  0.1246  0.0370 -0.0536
89791W        W32708  17.458  15.739  13.960  0.1823 -0.0209  0.3360
89792W        W32709  17.683  17.537  15.980  0.2723  0.1579  0.1012
89793W        W32710  17.329  18.596  15.171  0.0900 -0.0947  0.1330
89794W        W32711  20.980  17.860  15.298 -0.0199 -0.0608 -0.0310
89795W        W32712  18.748  18.105  14.673 -0.0922 -0.0296  0.2875
89796W        W32713  23.258  17.989  18.679 -0.2436 -0.0106  0.5431
89797W        W32714  22.196  15.114  14.560  0.1383 -0.0617 -0.0081
89798W        W32715  22.409  15.312  18.245  0.4110 -0.0078  0.0079
89799W        W32716  21.347  15.241  14.701  0.2602  0.0052 -0.0174
89800W        W32717  21.794  16.385  18.928  0.0473 -0.1918  0.0276
89801W        W32718  22.214  17.048  16.362  0.0954 -0.0441 -0.1727
89802W        W32719  19.559  15.364  14.297 -0.5127  0.0814 -0.1006
89803W        W32720  17.143  15.672  16.213  0.1323 -0.1012 -0.0331
89804W        W32721  22.681  15.730  17.394  0.0507 -0.0115 -0.1068
89805W        W32722  17.934  19.049  17.615  0.0234 -0.4456 -0.1009
89806W        W32723  20.484  17.113  16.233 -0.1716 -0.1272  0.0924
89807W        W32724  17.784  14.355  15.566 -0.1741 -0.1991 -0.0259
89808W        W32725  18.753  15.763  15.281 -0.1264  0.2920 -0.1677
89809W        W32726  24.039  15.381  17.548 -0.0212  0.1079 -0.0873
89810W        W32727  20.040  16.177  14.758  0.4986 -0.1578  0.0562
89811W        W32728  20.201  13.782  16.809  0.2593  0.1580  0.1347
89812W        W32729  17.982  15.351  16.686  0.3235  0.2035  0.0753
89813W        W32730  19.201  16.254  14.612  0.1251  0.2525 -0.0532
89814W        W32731  19.067  16.604  15.355  0.0667  0.1171  0.1460
89815W        W32732  17.403  13.092  14.759  0.2168 -0.1964  0.2361
89816W        W32733  21.959  14.190  15.554  0.4386  0.3042  0.1954
89817W        W32734  19.908  16.117  16.973  0.1711  0.0758  0.2814
89818W        W32735  20.216  13.356  17.664  0.1473  0.0085 -0.2083
89819W        W32736  19.229  15.538  15.268  0.0586 -0.0782 -0.0905
89820W        W32737  22.935  16.069  17.014  0.2253  0.0636 -0.2136
89821W        W32738  20.392  16.255  17.283  0.0459 -0.3914 -0.0136
89822W        W32739  18.132  15.374  15.514  0.0185 -0.1169 -0.0486
89823W        W32740  20.321  16.020  14.359  0.0145 -0.2359  0.1467
89824W        W32741  21.089  15.621  17.995 -0.2179 -0.0523  0.1137
89825W        W32742  21.522  16.420  14.125 -0.1412  0.0209 -0.1388
89826W        W32743  19.645  18.314  17.636  0.0499 -0.0525  0.1961
89827W        W32744  19.847  12.626  16.919 -0.1053  0.0752  0.1273
89828W        W32745  19.434  14.904  14.006 -0.2160 -0.2041  0.0123
89829W        W32746  17.005  15.911  14.243 -0.0807  0.3041 -0.0682
89830W        W32747  20.324  14.728  15.923  0.0025  0.0164 -0.3187
89831W        W32748  22.924  16.392  18.254 -0.0751  0.1027  0.3367
89832W        W32749  17.821  14.171  16.470  0.1639 -0.0143 -0.1043
89833W        W32750  22.166  17.773  16.062  0.1313 -0.2150 -0.1688
89834W        W32751  21.097  14.358  15.340 -0.1880  0.0206 -0.0402
89835W        W32752  17.617  20.389  14.365 -0.0705  0.2373  0.1542
89836W        W32753  20.005  14.358  16.115  0.2635  0.3175  0.0284
89837W        W32754  19.021  16.837  16.307  0.0003 -0.0384  0.1291
89838W        W32755  18.302  14.047  14.432 -0.1890  0.2141 -0.0615
89839W        W32756  21.318  19.381  17.181 -0.1322 -0.3114  0.2355
89840W        W32757  20.653  15.886  16.333  0.1370 -0.2618 -0.1398
89841W        W32758  17.738  13.664  16.200  0.3071 -0.0020 -0.3460
89842W        W32759  17.650  15.581  14.417  0.3041  0.3060  0.0890
89843W        W32760  17.668  18.245  14.940 -0.1256  0.3458 -0.1931
89844W        W32761  21.320  14.964  14.334  0.4455 -0.0979 -0.4265
89845W        W32762  21.104  14.078  17.492 -0.2113 -0.0565  0.1776
89846W        W32763  18.942  17.630  15.167  0.1592  0.0358 -0.3884
89847W        W32764  23.071  15.950  18.512 -0.0157  0.0573  0.0446
89848W        W32765  20.171  17.944  16.782  0.1221  0.1586  0.0395
89849W        W32766  19.809  18.633  16.333 -0.0202 -0.0159 -0.1187
89850W        W32767  18.847  15.387  14.983 -0.3287  0.2365  0.0789
89851W        W32768  17.125  15.163  15.619 -0.1026  0.1474 -0.2148
89852W        W32769  18.669  15.293  15.504  0.0049  0.0147  0.0677
89853W        W32770  18.877  16.536  14.353  0.2439 -0.2705 -0.1156
89854W        W32771  21.329  18.679  15.319 -0.0174  0.0116 -0.0449
89855W        W32772  19.256  16.017  15.541 -0.0651 -0.3245  0.3548
89856W        W32773  20.600  17.414  15.186 -0.1728  0.2793  0.2095
89857W        W32774  18.224  15.853  15.299 -0.2360 -0.3192  0.1174
89858W        W32775  20.747  13.708  15.948  0.1954  0.1499  0.2177
89859W        W32776  21.406  16.386  15.295  0.0991 -0.3700  0.2403
89860W        W32777  20.419  15.344  16.198  0.1344  0.0625  0.4494
89861W        W32778  18.569  16.217  15.485  0.2118 -0.1784 -0.0504
89862W        W32779  17.915  17.482  14.365 -0.1223 -0.0414  0.4178
89863W        W32780  17.229  16.709  15.309 -0.5639  0.0267 -0.1350
89864W        W32781  21.501  14.824  18.601  0.1256 -0.0862 -0.1085
89865W        W32782  19.924  14.025  18.068  0.0975  0.4015 -0.0157
89866W        W32783  17.610  15.950  15.005  0.0221  0.3898 -0.1906
89867W        W32784  16.383  11.830  15.315 -0.3116 -0.1311  0.2205
89868W        W32785  20.878  16.452  15.312  0.0373  0.1933  0.1091
89869W        W32786  17.036  14.458  14.280 -0.4509 -0.0118  0.0195
89870W        W32787  16.014  12.840  16.023 -0.0530 -0.1947  0.1143
89871W        W32788  21.368  17.059  14.735 -0.2457  0.2815  0.1415
89872W        W32789  22.171  19.898  16.870  0.0812 -0.0970 -0.1373
89873W        W32790  17.917  14.326  14.675 -0.1078  0.0115 -0.0870
89874W        W32791  22.064  18.724  18.797  0.0757  0.1046 -0.0564
89875W        W32792  16.717  18.717  14.010 -0.1949 -0.1832  0.2092
89876W        W32793  22.528  13.700  18.541 -0.0230 -0.1191  0.2823
89877W        W32794  19.292  13.914  16.323  0.0991 -0.0476  0.0780
89878W        W32795  17.114  15.074  14.577  0.0332  0.2651  0.2258
89879W        W32796  20.084  15.078  15.050 -0.1302 -0.0862 -0.0376
89880W        W32797  21.175  16.510  18.080 -0.0253 -0.1581  0.0616
89881W        W32798  20.295  17.753  16.302 -0.2008  0.0937 -0.0329
89882W        W32799  19.843  15.565  16.403 -0.0994  0.1145  0.3169
89883W        W32800  22.377  17.036  17.603 -0.2356 -0.2082 -0.2516
89884W        W32801  19.560  14.753  15.217 -0.2400 -0.3558  0.1307
89885W        W32802  22.653  18.259  17.618  0.1916  0.0419  0.0424
89886W        W32803  20.720  16.374  18.056 -0.0227  0.3572  0.0263
89887W        W32804  21.211  15.838  15.340  0.2676 -0.1834  0.1502
89888W        W32805  22.111  15.680  18.076 -0.2988 -0.0341 -0.0237
89889W        W32806  21.280  16.374  17.132  0.0843 -0.1508  0.1708
89890W        W32807  19.418  13.670  15.845  0.1668  0.2275  0.0263
89891W        W32808  20.747  16.463  17.003 -0.1601  0.1319 -0.0969
89892W        W32809  20.834  15.363  17.029 -0.1123 -0.0225 -0.1462
89893W        W32810  19.936  14.424  15.186  0.1408  0.1827  0.1659
89894W        W32811  18.676  14.443  14.671  0.0008 -0.0542 -0.0868
89895W        W32812  20.937  17.175  16.460  0.0436 -0.2764 -0.2306
89896W        W32813  19.985  16.038  15.290 -0.1087 -0.1882 -0.2081
89897W        W32814  19.208  15.498  13.998  0.1390 -0.0702 -0.0420
89898W        W32815  20.783  16.723  18.416  0.1374  0.0003 -0.0080
89899W        W32816  19.661  15.623  15.534 -0.1056 -0.0062  0.1254
89900W        W32817  23.061  17.162  18.641  0.2594 -0.1248 -0.0546
89901W        W32818  18.609  16.077  14.475  0.1599 -0.0689 -0.1223
89902W        W32819  20.670  16.889  14.243  0.0290 -0.2857 -0.1309
89903W        W32820  19.669  19.255  16.803  0.0616  0.1784  0.2317
89904W        W32821  21.544  22.469  18.984 -0.0556  0.0611  0.1359
89905W        W32822  18.786  17.124  17.037 -0.2057 -0.1500  0.0550
89906W        W32823  20.805  17.832  17.012  0.3368  0.4203  0.3223
89907W        W32824  17.658  12.279  17.198 -0.0421 -0.0626 -0.1396
89908W        W32825  20.095  16.998  15.279 -0.1593 -0.2718  0.2642
89909W        W32826  19.978  14.884  16.269  0.0241  0.0603  0.0009
89910W        W32827  21.318  14.937  16.299 -0.0523  0.2013  0.1031
89911W        W32828  17.972  14.947  15.223 -0.0978 -0.0221  0.0567
89912W        W32829  20.604  15.282  14.903  0.0722 -0.5689 -0.1694
89913W        W32830  20.306  17.155  17.640 -0.3138 -0.2303  0.2226
89914W        W32831  21.512  15.118  17.611  0.1767  0.0651 -0.2746
89915W        W32832  20.637  14.223  17.515  0.1551  0.1902 -0.3453
89916W        W32833  21.810  15.462  17.344  0.0284  0.1511 -0.3358
89917W        W32834  21.869  17.611  18.668  0.1819  0.2815 -0.0004
89918W        W32835  22.054  14.315  18.347  0.1426 -0.3752 -0.0098
89919W        W32836  23.419  19.494  18.219  0.3384  0.0788  0.0847
89920W        W32837  19.932  11.992  19.941 -0.1907  0.3759  0.2376
89921W        W32838  22.739  17.404  19.374  0.0999 -0.0030  0.1953
89922W        W32839  21.807  16.501  21.446 -0.0377  0.0212 -0.3731
89923W        W32840  21.309  17.911  18.871 -0.4196  0.1980 -0.1091
89924W        W32841  19.806  16.876  18.814 -0.0323  0.0525 -0.1012
89925W        W32842  19.465  18.116  18.474  0.1185 -0.1713  0.2056
89926W        W32843  22.830  14.680  18.741  0.1006 -0.0366 -0.1910
89927W        W32844  19.973  12.845  20.380 -0.0902 -0.0060  0.3414
89928W        W32845  23.055  18.075  20.236 -0.1191  0.0249  0.1315
89929W        W32846  21.927  14.514  17.339  0.0492  0.0808 -0.2215
89930W        W32847  21.099  15.576  19.063  0.1652 -0.4998  0.1563
89931W        W32848  22.509  16.089  18.075 -0.1994  0.1839  0.0668
89932W        W32849  20.190  17.135  16.993 -0.0830 -0.1679  0.2173
89933W        W32850  22.260  17.172  19.063 -0.0539  0.1812 -0.1155
89934W        W32851  19.888  17.865  15.998 -0.0905 -0.2736 -0.0904
89935W        W32852  18.201  13.841  16.276  0.0374  0.1094  0.0694
89936W        W32853  17.767  14.603  17.716 -0.1152  0.1070 -0.2816
89937W        W32854  20.286  16.206  18.252 -0.1391  0.0787 -0.0626
89938W        W32855  22.108  15.378  21.350 -0.2641  0.0177 -0.5505
89939W        W32856  22.170  15.513  20.280 -0.1792 -0.3581  0.0715
89940W        W32857  20.259  15.997  18.886 -0.0425  0.1332  0.2126
89941W        W32858  22.250  19.936  20.907 -0.2551  0.1638  0.0005
89942W        W32859  21.399  15.604  20.591  0.0377 -0.2790  0.0730
89943W        W32860  21.936  15.355  18.413 -0.4083 -0.0263 -0.2540
89944W        W32861  16.409  20.869  16.830 -0.2162  0.1029  0.1396
89945W        W32862  19.089  18.172  16.788  0.1435 -0.1526 -0.2546
89946W        W32863  23.045  16.599  20.603  0.0051  0.0491  0.1439
89947W        W32864  22.478  18.672  19.433  0.2351 -0.1744  0.2607
89948W        W32865  20.380  19.675  19.220 -0.1367  0.0587 -0.0751
89949W        W32866  20.368  14.516  16.415  0.3117  0.1232 -0.1138
89950W        W32867  20.614  19.192  19.451  0.0534 -0.3605 -0.1932
89951W        W32868  19.530  17.832  17.976 -0.1304 -0.3544 -0.0179
89952W        W32869  19.949  16.358  18.955 -0.1775 -0.0914  0.1034
89953W        W32870  21.199  16.988  17.976 -0.0389  0.3651 -0.0830
89954W        W32871  19.201  17.700  16.684 -0.1873  0.0617  0.0543
89955W        W32872  20.868  20.092  18.563 -0.1762 -0.4500 -0.1899
89956W        W32873  19.283  16.307  19.414 -0.1067 -0.4724  0.0205
89957W        W32874  19.319  17.362  17.564  0.1455 -0.1317 -0.1670
89958W        W32875  21.929  17.297  20.351  0.3132  0.2216 -0.2522
89959W        W32876  19.012  19.950  17.714 -0.2701  0.3300 -0.0150
89960W        W32877  22.286  16.945  19.512 -0.0601  0.2379  0.2326
89961W        W32878  21.329  15.677  17.556 -0.2025  0.2898  0.1338
89962W        W32879  23.872  16.545  20.641  0.1760 -0.2957  0.2073
89963W        W32880  22.544  13.548  22.984 -0.0483 -0.1704  0.0342
89964W        W32881  20.057  17.984  17.706 -0.1591 -0.0480 -0.0576
89965W        W32882  20.807  14.246  19.461  0.2491  0.1421 -0.0205
89966W        W32883  22.436  16.967  21.576 -0.3127  0.1070  0.1084
89967W        W32884  21.025  14.859  18.231 -0.1061  0.0239  0.3281
89968W        W32885  21.477  16.014  18.868  0.0894  0.2407 -0.0955
89969W        W32886  19.280  17.611  18.469  0.0180 -0.1948 -0.3216
89970W        W32887  18.445  14.502  16.291  0.3580  0.2938  0.0445
89971W        W32888  22.996  16.523  18.748  0.0163  0.0563  0.3070
89972W        W32889  23.405  17.317  21.102  0.4302 -0.2043  0.1844
89973W        W32890  21.503  18.818  19.197 -0.1622  0.2437 -0.2333
89974W        W32891  19.445  15.035  16.436  0.0360 -0.0575 -0.1034
89975W        W32892  19.355  16.885  19.684  0.0565  0.1568  0.1887
89976W        W32893  18.843  15.936  19.701  0.1494  0.1079  0.2188
89977W        W32894  18.761  14.289  18.271 -0.1163  0.0696  0.1130
89978W        W32895  23.082  15.393  22.704 -0.2590 -0.1147 -0.2464
89979W        W32896  23.320  13.460  20.743  0.0326  0.0045 -0.2447
89980W        W32897  18.540  17.931  17.375 -0.2269 -0.2401 -0.2693
89981W        W32898  20.252  16.297  16.555 -0.0998 -0.0090 -0.2675
89982W        W32899  21.286  17.719  18.416  0.0666  0.1354 -0.0199
89983W        W32900  22.243  12.432  20.826 -0.1698 -0.1022  0.0372
89984W        W32901  21.006  15.899  19.448  0.0330  0.0885 -0.3089
89985W        W32902  19.893  14.752  17.751  0.0322 -0.2637  0.3925
89986W        W32903  19.871  17.605  16.879  0.1314  0.1454  0.1029
89987W        W32904  20.914  19.011  20.261 -0.0420  0.0029  0.1842
89988W        W32905  22.903  17.467  21.028 -0.1853  0.1366  0.0667
89989W        W32906  18.436  18.691  17.917  0.1053  0.2324 -0.2474
89990W        W32907  17.912  17.324  16.452 -0.1769 -0.2472  0.2157
89991W        W32908  18.184  17.662  17.076 -0.0232  0.0626  0.0895
89992W        W32909  20.045  15.681  16.861 -0.1276 -0.2232  0.0170
89993W        W32910  19.820  14.512  19.489 -0.0093 -0.2621  0.2803
89994W        W32911  20.536  19.085  18.985  0.0222 -0.1177  0.0836
89995W        W32912  23.725  16.820  19.375  0.2241  0.1958  0.2041
89996W        W32913  19.957  14.869  18.533  0.0892  0.0930 -0.1122
89997W        W32914  21.713  14.632  20.682  0.2905  0.1334 -0.2086
89998W        W32915  19.448  16.867  17.850  0.0329  0.0721 -0.2883
89999W        W32916  22.297  18.021  18.592  0.2433 -0.2236  0.0232
90000W        W32917  21.702  16.102  20.187  0.0421 -0.0764  0.4246
90001W        W32918  20.490  16.765  17.369 -0.2213 -0.2198  0.5408
90002W        W32919  19.122  14.576  17.893  0.2967  0.2014  0.1266
90003W        W32920  20.647  15.257  17.939 -0.2433 -0.2803  0.3730
90004W        W32921  19.027  14.143  20.004  0.0983  0.1657 -0.0214
90005W        W32922  17.820  14.452  19.386  0.1287  0.0829 -0.0569
90006W        W32923  22.763  16.338  22.748 -0.0468 -0.1289 -0.1336
90007W        W32924  18.910  13.439  19.216 -0.2580  0.1623  0.4447
90008W        W32925  23.173  16.490  21.089 -0.1860  0.1083 -0.0454
90009W        W32926  20.012  13.852  17.603  0.0496  0.1608  0.5658
90010W        W32927  18.319  15.443  17.689 -0.4979  0.2663  0.1581
90011W        W32928  21.431  14.254  20.914  0.1054  0.0880 -0.0918
90012W        W32929  19.994  18.447  16.738 -0.0917 -0.1067 -0.1050
90013W        W32930  23.087  17.522  21.556  0.1990  0.0229  0.1488
90014W        W32931  22.317  18.753  21.272  0.2936 -0.0445  0.4418
90015W        W32932  20.475  14.935  18.296  0.0886  0.0500  0.2433
90016W        W32933  18.210  18.609  17.024  0.3286  0.0930 -0.1301
90017W        W32934  19.779  16.505  16.676  0.0531 -0.1798  0.0454
90018W        W32935  23.195  14.576  19.724 -0.0027  0.0230  0.1289
90019W        W32936  22.159  18.643  19.907  0.0320 -0.3611  0.0288
90020W        W32937  22.571  15.756  19.954  0.1771  0.0757  0.1350
90021W        W32938  19.389  17.158  18.779  0.4168  0.0792 -0.1328
90022W        W32939  20.874  14.197  20.519  0.1973 -0.0932  0.1246
90023W        W32940  23.183  17.081  20.144 -0.0210 -0.1101 -0.0823
90024W        W32941  20.299  15.261  17.133 -0.3074  0.2528  0.0693
90025W        W32942  18.001  11.446  17.652  0.2376 -0.2992 -0.0409
90026W        W32943  21.294  20.077  20.298  0.3473 -0.1473  0.2133
90027W        W32944  17.519  17.871  17.453 -0.1928 -0.1256 -0.1148
90028W        W32945  20.542  14.620  17.778 -0.0668  0.1031 -0.0188
90029W        W32946  20.795  18.849  18.526  0.0474 -0.1815 -0.1043
90030W        W32947  20.811  14.733  18.699  0.0132 -0.1061  0.0951
90031W        W32948  19.496  15.492  19.955 -0.0229  0.2428  0.1464
90032W        W32949  21.460  16.037  19.754  0.1487  0.2658 -0.0342
90033W        W32950  17.719  15.724  17.570 -0.0088 -0.2024  0.1493
90034W        W32951  22.437  14.677  18.338 -0.0165 -0.0663  0.1944
90035W        W32952  23.314  17.119  19.507  0.1299 -0.2361 -0.1512
90036W        W32953  20.457  18.104  18.754  0.1380 -0.1647 -0.2094
90037W        W32954  24.379  16.603  18.881 -0.2346  0.4079 -0.1833
90038W        W32955  23.151  15.838  20.350 -0.3446  0.1139 -0.0631
90039W        W32956  19.742  14.366  18.546 -0.1433 -0.1919 -0.4890
90040W        W32957  19.768  18.370  18.087  0.3423 -0.0306  0.2050
90041W        W32958  19.695  16.927  16.349  0.2444  0.1008 -0.2231
90042W        W32959  21.396  16.660  17.631  0.2521 -0.1311  0.3217
90043W        W32960  23.333  17.453  18.343  0.0677  0.0064 -0.1443
90044W        W32961  20.244  17.708  19.007 -0.0222  0.0010 -0.0080
90045W        W32962  20.842  17.670  19.273 -0.1615 -0.1055 -0.0653
90046W        W32963  20.995  14.518  20.099 -0.0321  0.0872 -0.0042
90047W        W32964  19.755  16.546  17.172 -0.0131  0.2413  0.0766
90048W        W32965  21.606  14.740  21.725  0.0957  0.0099  0.1961
90049W        W32966  17.750  16.914  16.812  0.1177 -0.1405 -0.1638
90050W        W32967  21.227  14.059  23.291  0.1354 -0.2930 -0.2095
90051W        W32968  22.486  14.490  20.120 -0.1034  0.1550  0.0737
90052W        W32969  20.483  14.608  19.968 -0.2501 -0.2300 -0.1333
90053W        W32970  21.655  15.616  21.004 -0.2139 -0.1368 -0.0486
90054W        W32971  19.447  17.434  17.018 -0.0577 -0.2444 -0.1584
90055W        W32972  21.875  14.571  19.603  0.2187  0.0614 -0.1691
90056W        W32973  19.594  14.332  17.729 -0.0423  0.1843  0.0273
90057W        W32974  20.554  13.177  20.934 -0.0002 -0.3035  0.2348
90058W        W32975  20.981  16.129  18.998  0.3056  0.0586  0.3292
90059W        W32976  18.911  18.319  16.208 -0.0369 -0.1592 -0.0563
90060W        W32977  21.409  18.249  19.206  0.0751  0.5351 -0.0590
90061W        W32978  20.360  14.570  18.614  0.1210 -0.5458  0.0935
90062W        W32979  22.276  18.202  19.546 -0.3429 -0.0507 -0.0665
90063W        W32980  21.108  15.151  17.860 -0.0581  0.1239  0.0847
90064W        W32981  18.043  15.925  16.768 -0.1040  0.1209  0.0019
90065W        W32982  20.741  17.318  18.133 -0.0261 -0.1390  0.0951
90066W        W32983  21.981  14.272  21.726  0.3575  0.0516 -0.1178
90067W        W32984  19.993  18.354  18.558 -0.1835  0.1673 -0.0692
90068W        W32985  22.599  17.126  18.180 -0.0056 -0.2344  0.2469
90069W        W32986  22.684  16.693  19.064 -0.2834  0.3131  0.0491
90070W        W32987  20.124  17.313  18.141  0.3244 -0.1517 -0.0743
90071W        W32988  21.905  13.667  20.202  0.1269 -0.2040  0.3356
90072W        W32989  16.652  18.940  18.276  0.2750 -0.1125  0.1686
90073W        W32990  18.638  13.806  17.772  0.1807 -0.1174  0.1427
90074W        W32991  19.572  13.571  16.750  0.2288 -0.0050  0.5497
90075W        W32992  23.156  14.826  20.687  0.1134 -0.2909  0.6389
90076W        W32993  23.028  15.420  21.253  0.1044 -0.1224 -0.0269
90077W        W32994  19.165  15.864  17.957  0.0234  0.2444 -0.0625
90078W        W32995  21.888  16.982  19.853  0.0854 -0.1316 -0.3154
90079W        W32996  23.846  15.762  21.924 -0.3097  0.1516  0.0914
90080W        W32997  22.616  14.509  19.432  0.1444  0.0795 -0.0467
90081W        W32998  21.449  17.432  20.465 -0.3205  0.1141 -0.0069
90082W        W32999  20.220  16.613  18.581  0.3348 -0.0341  0.2067
90083W        W33000  20.200  16.661  16.957 -0.0295 -0.0949 -0.2626
90084W        W33001  21.949  16.538  20.055 -0.2393  0.1871 -0.1026
90085W        W33002  19.773  14.487  17.247  0.2139 -0.0032  0.0288
90086W        W33003  19.516  19.136  17.340 -0.0103  0.1231  0.0459
90087W        W33004  22.260  17.712  18.996  0.1628 -0.1542  0.0380
90088W        W33005  19.215  14.063  18.608 -0.2802 -0.0513 -0.2803
90089W        W33006  18.676  19.499  17.781 -0.0511  0.2081  0.0681
90090W        W33007  21.457  14.149  19.273  0.1377  0.1001  0.0358
90091W        W33008  22.064  17.759  18.205 -0.0508  0.1974 -0.0139
90092W        W33009  20.830  15.298  18.449 -0.2262  0.0438  0.0577
90093W        W33010  20.240  14.112  18.502  0.1946 -0.2775  0.1542
90094W        W33011  19.363  15.446  18.040  0.1441  0.1891  0.1051
90095W        W33012  21.666  17.544  19.697  0.1141 -0.0624 -0.1151
90096W        W33013  19.849  16.903  19.665 -0.1874 -0.1567 -0.2596
90097W        W33014  21.147  12.726  19.328 -0.1870 -0.0771 -0.0056
90098W        W33015  22.563  18.812  20.358 -0.2156 -0.4003 -0.2779
90099W        W33016  21.336  16.323  19.326 -0.0639 -0.0199  0.2672
90100W        W33017  20.536  17.432  16.647  0.4217 -0.1068  0.1800
90101W        W33018  20.641  16.935  16.757  0.0548 -0.1550  0.2469
90102W        W33019  19.546  14.675  18.150  0.0096  0.0527 -0.0741
90103W        W33020  19.083  16.153  15.063 -0.0646  0.1316 -0.0943
90104W        W33021  18.885  17.810  18.112 -0.1424 -0.0212  0.3316
90105W        W33022  23.719  14.150  18.759  0.2492 -0.0397 -0.0520
90106W        W33023  22.744  17.479  18.876 -0.2186 -0.0404  0.3069
90107W        W33024  21.523  14.958  20.262 -0.0673 -0.0272 -0.0592
90108W        W33025  22.089  14.964  24.564  0.3244  0.0399 -0.3833
90109W        W33026  22.756  17.386  20.181 -0.4006 -0.0058  0.0712
90110W        W33027  22.459  14.355  21.763 -0.2826  0.1122  0.0564
90111W        W33028  21.188  15.001  16.956 -0.3671 -0.0902 -0.2858
90112W        W33029  22.861  15.902  19.443 -0.1531  0.2172 -0.2376
90113W        W33030  22.247  13.678  20.590 -0.2809 -0.1199  0.0303
90114W        W33031  20.981  13.982  18.116 -0.0884  0.0597 -0.1146
90115W        W33032  20.678  15.767  18.246 -0.0822 -0.1048  0.1609
90116W        W33033  22.868  17.057  19.720 -0.0941  0.0340  0.1063
90117W        W33034  19.765  16.420  18.419  0.1516  0.0758  0.1600
90118W        W33035  21.859  17.033  19.309 -0.0224 -0.0773  0.0468
90119W        W33036  21.322  13.583  18.298  0.0200 -0.1943  0.0244
90120W        W33037  21.016  14.436  17.857  0.0416 -0.0810 -0.0594
90121W        W33038  18.625  16.884  16.640 -0.0361  0.2334  0.3359
90122W        W33039  20.003  12.892  20.887  0.1162  0.1945 -0.0435
90123W        W33040  21.023  16.207  18.410  0.1401 -0.1836  0.2970
90124W        W33041  21.708  15.365  19.440  0.1601  0.3025 -0.0236
90125W        W33042  22.678  15.072  21.437 -0.2638 -0.1145 -0.2480
90126W        W33043  22.174  16.011  21.393 -0.0211 -0.1209  0.1482
90127W        W33044  22.155  19.099  19.709 -0.1541 -0.0799  0.1914
90128W        W33045  21.998  15.451  15.803 -0.1586 -0.3863 -0.1157
90129W        W33046  21.501  15.808  19.317 -0.2596 -0.0239 -0.1235
90130W        W33047  22.481  16.688  19.954 -0.1531  0.0885  0.0949
90131W        W33048  21.920  17.191  20.865  0.0835  0.1317 -0.0151
90132W        W33049  19.304  14.303  19.037 -0.0921 -0.2035  0.0327
90133W        W33050  21.442  14.760  19.109  0.3785 -0.2923 -0.0971
90134W        W33051  18.156  14.524  17.045 -0.1194 -0.1219 -0.0068
90135W        W33052  21.106  16.572  18.793 -0.3368 -0.2142 -0.0173
90136W        W33053  19.034  17.771  17.138 -0.1274  0.1484 -0.0753
90137W        W33054  21.362  17.349  18.837  0.0145  0.1940  0.0320
90138W        W33055  21.946  14.871  18.867  0.3249 -0.1375 -0.0666
90139W        W33056  19.237  14.236  17.315 -0.1953 -0.0432 -0.1029
90140W        W33057  19.186  13.508  17.673 -0.1353 -0.0111  0.2257
90141W        W33058  20.136  14.588  18.123  0.1663  0.0398 -0.0482
90142W        W33059  21.685  16.612  19.605 -0.2123 -0.1453 -0.1211
90143W        W33060  22.406  16.249  20.994  0.0671 -0.3729  0.1689
90144W        W33061  20.758  12.950  17.726  0.3048 -0.1691 -0.1497
90145W        W33062  21.318  16.090  21.716 -0.1104 -0.1219 -0.0745
90146W        W33063  20.131  14.799  16.901 -0.1434 -0.1313 -0.2290
90147W        W33064  23.053  11.708  22.131 -0.1929 -0.2345  0.1446
90148W        W33065  19.603  17.409  18.157  0.0129 -0.2518 -0.1892
90149W        W33066  18.007  17.167  17.906  0.1247  0.4544  0.1279
90150W        W33067  22.903  18.886  18.582 -0.1084  0.0790  0.0837
90151W        W33068  20.103  14.376  19.052 -0.0998  0.1350  0.3238
90152W        W33069  20.846  15.526  17.482  0.1216  0.2209 -0.2162
90153W        W33070  20.841  18.276  19.182 -0.2981  0.1286  0.1361
90154W        W33071  22.324  17.501  18.533  0.1911 -0.0253 -0.1306
90155W        W33072  21.498  18.738  20.247 -0.0495 -0.0134 -0.1969
90156W        W33073  22.669  15.625  17.902 -0.1993  0.0237  0.2888
90157W        W33074  21.256  17.843  20.777 -0.0359 -0.1767 -0.0997
90158W        W33075  23.220  17.801  21.136  0.1644 -0.0897 -0.0911
90159W        W33076  18.120  15.743  19.076  0.1122 -0.0194  0.1125
90160W        W33077  21.146  15.183  19.320  0.0520  0.0441 -0.2350
90161W        W33078  21.841  18.427  19.324  0.0951 -0.1028  0.0942
90162W        W33079  22.871  14.374  20.528  0.1695  0.2509 -0.1816
90163W        W33080  21.997  15.857  19.864 -0.1003 -0.0085  0.1571
90164W        W33081  17.804  15.192  17.429  0.0049 -0.0536  0.1508
90165W        W33082  20.937  18.297  17.322  0.0024  0.1806 -0.2152
90166W        W33083  22.744  15.636  18.399  0.1456 -0.0413 -0.1611
90167W        W33084  22.446  20.380  19.784 -0.1283  0.0132 -0.0440
90168W        W33085  20.866  15.137  16.534 -0.1103 -0.2852  0.0804
90169W        W33086  19.312  18.692  17.600 -0.2769 -0.3577  0.2627
90170W        W33087  17.431  17.269  16.443 -0.0180 -0.2149  0.0898
90171W        W33088  22.765  17.919  21.336 -0.1942  0.1892 -0.2493
90172W        W33089  17.134  17.765  17.180 -0.0367 -0.0505 -0.0904
90173W        W33090  24.546  16.690  21.230 -0.1862 -0.1100  0.4295
90174W        W33091  21.950  15.190  17.911  0.0882 -0.1159  0.0047
90175W        W33092  22.069  14.902  21.024 -0.1577 -0.0205  0.0721
90176W        W33093  24.078  16.015  19.945  0.1229  0.1339 -0.0787
90177W        W33094  19.086  15.064  17.936 -0.0281  0.1738  0.0179
90178W        W33095  23.366  16.663  19.027 -0.3617  0.1284 -0.0531
90179W        W33096  22.423  13.179  23.474  0.1230  0.3110  0.1946
90180W        W33097  22.667  18.698  18.965 -0.1664  0.2069  0.0124
90181W        W33098  19.577  15.212  17.649  0.2110  0.0232  0.1613
90182W        W33099  21.074  12.976  18.115  0.0705  0.2268 -0.0518
90183W        W33100  21.768  13.109  22.926  0.0703  0.2905  0.1410
90184W        W33101  19.719  15.675  17.761  0.1859  0.0386  0.0332
90185W        W33102  21.912  15.297  20.667 -0.1920 -0.0025  0.0882
90186W        W33103  19.875  16.447  16.146  0.1485  0.0445  0.2628
90187W        W33104  21.543  20.179  18.867 -0.0136  0.0806  0.0516
90188W        W33105  20.337  16.468  17.739  0.0017 -0.2586  0.0453
90189W        W33106  18.502  14.142  19.019 -0.3884  0.1730 -0.2758
90190W        W33107  22.185  16.393  19.644 -0.2203  0.3027 -0.0248
90191W        W33108  21.287  14.975  19.823  0.2160 -0.1982 -0.0272
90192W        W33109  23.269  13.093  22.138 -0.1896 -0.2408  0.0167
90193W        W33110  20.565  13.864  18.866 -0.1109  0.0602  0.0209
90194W        W33111  23.392  16.291  20.113  0.1034 -0.0101  0.2847
90195W        W33112  21.641  18.442  18.814 -0.0142 -0.1019 -0.0395
90196W        W33113  19.463  16.391  18.895  0.1584 -0.0227  0.0670
90197W        W33114  21.499  16.466  18.504  0.1766  0.1241  0.0267
90198W        W33115  22.370  17.090  22.093  0.0553  0.1180 -0.1109
90199W        W33116  20.800  16.413  17.511 -0.3389 -0.0561  0.1781
90200W        W33117  22.605  21.016  21.357  0.2542  0.3485  0.1222
90201W        W33118  19.281  14.891  17.446  0.1395 -0.0320 -0.3642
90202W        W33119  21.643  17.564  19.168  0.0978 -0.1467 -0.1262
90203W        W33120  19.832  15.565  17.273  0.0976  0.1429  0.1281
90204W        W33121  19.786  15.117  18.082  0.0996 -0.0908  0.1162
90205W        W33122  21.872  18.553  20.854  0.2237 -0.3012 -0.0138
90206W        W33123  20.150  13.682  19.727 -0.2959 -0.1030  0.0145
90207W        W33124  21.989  19.917  19.606 -0.3595 -0.0417  0.0638
90208W        W33125  21.587  18.750  21.629  0.2101  0.0887  0.1786
90209W        W33126  18.842  17.857  16.410  0.2131 -0.1358  0.0107
90210W        W33127  22.511  15.136  20.975  0.2564  0.3808 -0.0392
90211W        W33128  22.699  18.975  21.614 -0.4286 -0.1370 -0.0154
90212W        W33129  21.166  18.629  18.918  0.1108 -0.2220 -0.0578
90213W        W33130  21.844  15.789  20.559 -0.0463 -0.0727  0.4329
90214W        W33131  22.415  15.682  19.463  0.0106  0.1226 -0.0803
90215W        W33132  16.743  17.423  17.210  0.2273  0.1008  0.0064
90216W        W33133  21.987  13.881  22.113 -0.2120  0.2489 -0.0142
90217W        W33134  20.692  15.809  18.763  0.0558 -0.1113 -0.1023
90218W        W33135  21.871  18.053  19.016 -0.1064 -0.0791 -0.4880
90219W        W33136  21.951  13.312  20.583  0.2225  0.0555 -0.2051
90220W        W33137  20.382  18.095  18.271 -0.2081 -0.2533  0.1382
90221W        W33138  19.125  18.046  19.530 -0.1176 -0.2207 -0.1582
90222W        W33139  18.064  14.539  18.135  0.0802  0.1300  0.0569
90223W        W33140  19.854  17.480  18.619  0.2040  0.3068 -0.1739
90224W        W33141  22.036  18.892  19.229  0.0251  0.1258 -0.0834
90225W        W33142  21.597  19.623  18.151  0.1365 -0.0841 -0.2848
90226W        W33143  24.283  17.065  21.531  0.2816 -0.1484  0.1830
90227W        W33144  20.121  14.306  17.676 -0.3754 -0.0521  0.1166
90228W        W33145  22.398  18.575  20.759  0.4044 -0.1371  0.0108
90229W        W33146  20.393  12.639  21.078 -0.1393 -0.2811  0.1616
90230W        W33147  22.205  15.168  19.345 -0.1041 -0.1365 -0.3837
90231W        W33148  21.939  14.242  19.279  0.2083 -0.0827  0.1572
90232W        W33149  20.558  17.230  19.072 -0.0794  0.0494 -0.0703
90233W        W33150  19.398  16.232  16.959  0.0841 -0.0361  0.0634
90234W        W33151  18.849  16.160  17.079 -0.0830 -0.0676 -0.2065
90235W        W33152  20.651  14.937  16.979  0.0876 -0.2739  0.1303
90236W        W33153  21.541  13.519  19.850  0.0762  0.1316 -0.1489
90237W        W33154  18.401  15.530  19.527 -0.0332 -0.3403 -0.0097
90238W        W33155  18.481  13.505  18.331  0.0167 -0.1290  0.0978
90239W        W33156  20.873  17.596  18.769  0.3913  0.3021 -0.3111
90240W        W33157  21.796  15.833  18.476 -0.1926 -0.0320  0.1126
90241W        W33158  19.394  14.201  19.582  0.0444 -0.0623  0.2094
90242W        W33159  19.661  18.740  18.507  0.0363  0.1120 -0.1462
90243W        W33160  20.293  15.695  17.391 -0.1228  0.3537  0.1390
90244W        W33161  20.826  13.398  18.944 -0.0511 -0.0987 -0.0962
90245W        W33162  22.147  19.034  22.186  0.1719 -0.0210  0.1892
90246W        W33163  19.387  15.834  16.075  0.1418  0.0444  0.0497
90247W        W33164  20.964  15.940  20.698 -0.0413  0.0010 -0.0803
90248W        W33165  22.861  14.457  22.988  0.0538  0.2762  0.0844
90249W        W33166  19.003  14.233  16.724 -0.0268  0.0791  0.1715
90250W        W33167  22.051  16.238  18.327  0.1522  0.3642 -0.1039
90251W        W33168  22.683  18.411  19.865  0.0070 -0.1500  0.2250
90252W        W33169  22.297  20.041  20.095  0.0763 -0.0886  0.2737
90253W        W33170  19.812  17.947  18.796  0.3252 -0.0713 -0.0116
90254W        W33171  21.194  17.525  17.935 -0.0370  0.1699  0.1621
90255W        W33172  18.301  13.375  19.402  0.1040  0.3013  0.0862
90256W        W33173  22.130  15.907  19.000  0.0471  0.1698  0.2893
90257W        W33174  22.362  16.222  20.131  0.0991 -0.1616 -0.1633
90258W        W33175  24.027  13.914  21.434 -0.2166 -0.0599 -0.0220
90259W        W33176  22.246  15.456  18.867  0.0056  0.1424 -0.0561
90260W        W33177  20.437  12.801  20.610 -0.0378 -0.1602  0.2365
90261W        W33178  19.745  16.922  18.320  0.0917  0.1617 -0.1595
90262W        W33179  22.586  17.433  21.510 -0.1488  0.1169  0.0691
90263W        W33180  19.432  13.375  19.117 -0.0391 -0.0416  0.1032
90264W        W33181  22.769  16.240  21.310 -0.2060  0.1163  0.2416
90265W        W33182  20.410  17.649  17.882 -0.0862 -0.1488 -0.2000
90266W        W33183  21.729  15.595  18.941 -0.2512 -0.0156 -0.1176
90267W        W33184  22.473  16.055  21.843 -0.2734 -0.2423  0.2140
90268W        W33185  23.166  17.545  19.152  0.0053  0.1352 -0.0782
90269W        W33186  21.087  17.116  19.226 -0.2369 -0.1477 -0.2735
90270W        W33187  18.307  13.631  17.382  0.3082 -0.2826  0.3383
90271W        W33188  23.190  17.499  20.422 -0.0200 -0.0898 -0.0413
90272W        W33189  21.667  18.876  19.761  0.0189  0.0450 -0.1839
90273W        W33190  19.884  19.459  20.522 -0.0079 -0.0941 -0.2202
90274W        W33191  21.061  19.152  18.867 -0.3362 -0.1077  0.0803
90275W        W33192  21.260  16.989  18.461 -0.2291  0.2294  0.2416
90276W        W33193  19.551  12.771  21.160 -0.1651 -0.1452  0.0613
90277W        W33194  20.054  16.056  17.621 -0.0299 -0.0990 -0.0459
90278W        W33195  20.932  15.942  17.167  0.3949 -0.2077  0.0116
90279W        W33196  20.217  15.256  18.654  0.0038  0.0980  0.0445
90280W        W33197  20.123  10.992  20.391 -0.5858 -0.0521  0.1692
90281W        W33198  21.437  15.971  18.193  0.2205  0.1411 -0.1262
90282W        W33199  18.977  18.690  16.690  0.0433 -0.2491  0.0773
90283W        W33200  20.709  19.362  18.519 -0.0729  0.1491 -0.2677
90284W        W33201  19.561  15.875  20.969  0.0734 -0.0313  0.3285
90285W        W33202  20.785  14.083  21.293 -0.1551  0.0271 -0.0413
90286W        W33203  22.989  17.396  22.975 -0.0078  0.0893  0.4571
90287W        W33204  18.838  14.960  20.799  0.0496  0.1565  0.1860
90288W        W33205  19.920  13.746  25.946 -0.0804  0.1264  0.2211
90289W        W33206  22.881  16.973  23.324  0.0746  0.0663 -0.1847
90290W        W33207  20.782  14.424  24.609  0.1362  0.2313 -0.1619
90291W        W33208  20.362  17.291  22.461 -0.3310 -0.1355  0.0621
90292W        W33209  19.325  13.175  22.035 -0.3723 -0.0189  0.0704
90293W        W33210  22.773  17.812  24.530  0.1797 -0.2466  0.2297
90294W        W33211  18.759  16.161  20.250  0.0322 -0.0500 -0.1138
90295W        W33212  19.994  15.296  20.557  0.1146 -0.3882 -0.2578
90296W        W33213  20.598  15.250  22.894 -0.1048  0.1818  0.0565
90297W        W33214  19.309  15.839  24.308 -0.3045 -0.4279 -0.0266
90298W        W33215  18.132  16.837  21.236  0.2464 -0.0802 -0.1977
90299W        W33216  19.886  17.826  21.137 -0.2885 -0.3187 -0.0147
90300W        W33217  19.351  15.873  21.392  0.0226 -0.0252  0.1378
90301W        W33218  17.938  17.978  20.002  0.1833  0.0960  0.0181
90302W        W33219  19.884  17.183  20.861 -0.3849  0.1454 -0.0450
90303W        W33220  22.037  16.968  22.745 -0.0602 -0.1439 -0.1815
90304W        W33221  21.603  16.229  22.520  0.0836 -0.0732  0.0857
90305W        W33222  18.338  16.804  22.822  0.0338 -0.0732 -0.1873
90306W        W33223  20.538  16.270  21.767  0.2993 -0.1370 -0.1265
90307W        W33224  21.808  14.369  21.239  0.2168  0.0528  0.3805
90308W        W33225  19.604  16.863  23.660  0.2655  0.1182  0.3973
90309W        W33226  20.338  14.561  24.891  0.2159  0.0826  0.2968
90310W        W33227  22.249  15.619  20.947 -0.2936  0.2840  0.0669
90311W        W33228  20.591  15.182  20.591 -0.1939 -0.1750 -0.0565
90312W        W33229  22.262  14.257  22.261  0.2014  0.0729  0.1683
90313W        W33230  19.952  13.256  23.689  0.0789 -0.1087  0.0296
90314W        W33231  19.569  13.284  23.330 -0.5582 -0.3645 -0.0564
90315W        W33232  20.761  16.214  24.740 -0.2360  0.1259  0.1037
90316W        W33233  21.254  15.895  20.205  0.3320  0.3023 -0.3757
90317W        W33234  18.800  17.308  22.556 -0.0754  0.2529  0.3747
90318W        W33235  22.218  17.481  19.507 -0.1151  0.1398 -0.1375
90319W        W33236  22.716  18.437  21.506  0.0831  0.0324 -0.1708
90320W        W33237  20.423  17.637  18.511 -0.3759 -0.0568 -0.1604
90321W        W33238  19.118  16.142  20.768 -0.1089  0.2745 -0.1687
90322W        W33239  17.624  16.624  22.958 -0.0934  0.1158  0.3394
90323W        W33240  18.581  15.915  22.808  0.2584  0.0491 -0.0977
90324W        W33241  19.972  13.962  20.682 -0.1427 -0.0508 -0.1008
90325W        W33242  24.166  17.412  26.563 -0.0486 -0.0397 -0.2736
90326W        W33243  22.094  15.806  25.362  0.1358 -0.2702  0.2943
90327W        W33244  19.889  16.184  21.250 -0.0150 -0.1326 -0.3104
90328W        W33245  22.266  16.394  22.726 -0.0533  0.0289  0.1345
90329W        W33246  20.878  14.464  23.355  0.0394 -0.3024 -0.1941
90330W        W33247  21.382  16.148  24.538 -0.1454 -0.2179  0.1310
90331W        W33248  19.052  15.710  20.126 -0.3092  0.1426 -0.0962
90332W        W33249  19.228  16.300  20.333 -0.4050 -0.0446 -0.1589
90333W        W33250  23.159  18.077  23.496 -0.3685 -0.1374 -0.0152
90334W        W33251  22.654  14.870  20.510 -0.1742  0.0840  0.1259
90335W        W33252  19.258  17.486  21.927  0.0587  0.0295  0.2700
90336W        W33253  18.827  14.984  25.346 -0.0449 -0.1650 -0.1335
90337W        W33254  18.348  18.530  19.128  0.2233  0.3426  0.2236
90338W        W33255  17.887  16.668  22.038 -0.0611  0.1343  0.6040
90339W        W33256  18.519  14.114  22.921 -0.1402  0.1264  0.0053
90340W        W33257  21.788  15.710  25.698  0.0220  0.1318  0.0122
90341W        W33258  18.077  13.919  24.399 -0.1663 -0.1777 -0.1649
90342W        W33259  21.464  14.785  25.708 -0.1071 -0.1068  0.0419
90343W        W33260  18.972  17.127  21.107  0.4124 -0.0858 -0.0230
90344W        W33261  23.846  16.166  22.959  0.2086  0.0163 -0.2109
90345W        W33262  23.485  15.258  23.665  0.0254 -0.2742  0.0246
90346W        W33263  22.542  18.281  20.390 -0.0779 -0.0020 -0.0189
90347W        W33264  18.971  15.338  21.861 -0.3981  0.0285 -0.1502
90348W        W33265  19.049  13.802  19.590  0.0371  0.0429  0.3329
90349W        W33266  21.150  15.328  25.533  0.0389  0.2472 -0.0234
90350W        W33267  20.580  20.396  20.392 -0.5878  0.1182  0.0672
90351W        W33268  21.170  17.394  23.763 -0.1259 -0.2225  0.1416
90352W        W33269  21.171  18.473  21.623 -0.2259  0.2863  0.0255
90353W        W33270  19.689  18.140  20.816  0.0132 -0.1814  0.0940
90354W        W33271  19.472  15.855  20.332  0.2018 -0.2073  0.1570
90355W        W33272  20.955  17.779  23.553 -0.3320 -0.0645  0.0186
90356W        W33273  21.699  16.636  20.985 -0.0321 -0.0511 -0.2355
90357W        W33274  17.980  16.995  21.699  0.0250  0.1641 -0.1298
90358W        W33275  20.898  14.026  24.202 -0.1302 -0.1102 -0.2172
90359W        W33276  23.026  16.620  24.911 -0.0999 -0.3757 -0.2562
90360W        W33277  21.314  16.404  21.179 -0.2408 -0.1551  0.1356
90361W        W33278  19.254  13.804  21.438  0.2368 -0.0238 -0.2375
90362W        W33279  18.752  17.819  19.875 -0.1681  0.1027  0.3172
90363W        W33280  21.228  15.343  24.443 -0.1249 -0.2224 -0.0296
90364W        W33281  20.682  14.519  24.117  0.2793  0.1128 -0.0722
90365W        W33282  21.735  14.544  24.693  0.0919  0.0002  0.4902
90366W        W33283  21.639  17.875  22.937  0.0062  0.2248  0.2169
90367W        W33284  20.843  14.975  20.189 -0.0045  0.1981  0.2325
90368W        W33285  22.056  14.773  21.584 -0.1419 -0.1150  0.1960
90369W        W33286  18.386  17.291  22.856 -0.1234 -0.0139  0.4136
90370W        W33287  20.324  17.337  20.529  0.0645  0.1887  0.0270
90371W        W33288  20.269  17.459  21.025  0.3151 -0.2326 -0.1775
90372W        W33289  23.699  14.471  23.259  0.1157 -0.1713  0.0419
90373W        W33290  22.772  17.832  23.820 -0.0716  0.0980  0.1838
90374W        W33291  17.133  17.287  22.022  0.0216  0.2063 -0.1745
90375W        W33292  20.356  18.163  24.671 -0.3485 -0.0542 -0.0208
90376W        W33293  21.877  17.603  22.082  0.0747  0.0818  0.0749
90377W        W33294  18.921  13.849  22.730  0.2960  0.4203  0.2687
90378W        W33295  20.097  15.109  19.499 -0.0315  0.2022  0.2638
90379W        W33296  18.663  18.227  19.602  0.0224  0.2607  0.0537
90380W        W33297  21.897  15.239  21.851 -0.1467  0.2412 -0.3934
90381W        W33298  19.824  14.377  22.131 -0.1186  0.1867 -0.2727
90382W        W33299  19.746  13.237  26.194  0.1494 -0.3239  0.1312
90383W        W33300  20.372  15.416  24.400 -0.1073 -0.2372  0.2235
90384W        W33301  21.904  16.066  19.375  0.1097 -0.0239 -0.0093
90385W        W33302  19.539  14.041  24.078  0.0976 -0.0003 -0.0418
90386W        W33303  19.290  16.385  22.511  0.0229  0.0437  0.1268
90387W        W33304  17.707  17.065  21.286  0.1515  0.1054  0.4068
90388W        W33305  21.275  17.560  21.780 -0.0705  0.2537  0.1955
90389W        W33306  20.644  13.316  20.394 -0.2260  0.4136 -0.2774
90390W        W33307  19.571  16.781  19.249  0.0175  0.0325  0.0608
90391W        W33308  20.417  13.357  24.624  0.0668 -0.0303  0.0992
90392W        W33309  20.721  16.935  24.227 -0.0187 -0.1114 -0.0048
90393W        W33310  21.070  14.270  23.768 -0.1506 -0.1144 -0.0960
90394W        W33311  18.008  17.513  21.840 -0.1629 -0.1054 -0.2394
90395W        W33312  20.387  14.667  19.470  0.1080 -0.1632  0.1426
90396W        W33313  22.603  14.758  23.795 -0.0051 -0.2136  0.5298
90397W        W33314  22.593  16.935  25.012 -0.2021  0.1365 -0.2663
90398W        W33315  18.902  14.066  24.102 -0.1910  0.1806  0.0890
90399W        W33316  17.834  14.339  24.478 -0.3184 -0.1291  0.0382
90400W        W33317  22.749  15.736  22.121 -0.1762  0.2883 -0.2288
90401W        W33318  22.305  16.086  23.932 -0.2256 -0.0203  0.0725
90402W        W33319  19.019  17.134  20.646 -0.2467  0.0427  0.0171
90403W        W33320  20.005  15.296  19.969  0.1745 -0.0727 -0.3921
90404W        W33321  18.455  15.460  24.732  0.2069  0.1780  0.3475
90405W        W33322  21.615  17.214  21.829 -0.2776  0.1953  0.0076
90406W        W33323  19.792  15.719  22.097 -0.2710  0.0403 -0.1144
90407W        W33324  19.246  15.609  20.700 -0.2574 -0.2379 -0.1509
90408W        W33325  21.173  15.284  22.862  0.1500 -0.1268  0.1798
90409W        W33326  19.970  14.274  24.000 -0.3308  0.0937  0.2001
90410W        W33327  23.136  18.736  21.439 -0.1461  0.0926 -0.0548
90411W        W33328  18.705  16.392  20.764 -0.0083  0.1357 -0.0010
90412W        W33329  20.379  14.135  22.473 -0.1541  0.2344  0.0167
90413W        W33330  19.949  17.427  19.698 -0.1518 -0.0135 -0.4065
90414W        W33331  17.174  17.328  21.513  0.1206 -0.1972 -0.1561
90415W        W33332  21.319  14.111  21.443 -0.2942 -0.1067  0.2025
90416W        W33333  22.556  16.468  26.825 -0.1184 -0.3802  0.0151
90417W        W33334  21.259  14.546  20.529  0.2799  0.1286  0.1550
90418W        W33335  18.767  14.279  24.943  0.0321  0.1691  0.1607
90419W        W33336  19.652  14.574  22.732  0.2744 -0.1673  0.1622
90420W        W33337  20.976  17.970  20.206  0.2121 -0.0952  0.0943
90421W        W33338  21.133  13.770  23.742  0.0513 -0.0270  0.1358
90422W        W33339  19.214  12.418  21.174  0.0096  0.0483 -0.0773
90423W        W33340  21.015  15.760  24.657  0.0579 -0.2274 -0.0685
90424W        W33341  21.072  16.825  20.145 -0.0306  0.4081  0.1008
90425W        W33342  23.504  16.488  25.824 -0.0618  0.0219 -0.1722
90426W        W33343  17.707  16.896  20.596 -0.0421  0.0075  0.0416
90427W        W33344  22.574  16.967  23.951  0.0428  0.1045 -0.1044
90428W        W33345  18.955  16.113  21.258 -0.2008 -0.0816 -0.3162
90429W        W33346  19.860  13.213  24.612  0.1386 -0.0462 -0.1207
90430W        W33347  20.279  13.506  23.344  0.2434  0.0450 -0.1385
90431W        W33348  22.049  14.835  22.980 -0.4241 -0.2110  0.1872
90432W        W33349  21.726  15.283  22.724  0.0324 -0.1858  0.0964
90433W        W33350  19.402  15.698  22.466 -0.1475 -0.3829 -0.1089
90434W        W33351  22.984  15.647  24.089  0.0743 -0.1123 -0.0474
90435W        W33352  20.445  14.829  23.123 -0.0374  0.3324 -0.2807
90436W        W33353  22.598  15.716  22.652  0.1898  0.1295  0.3621
90437W        W33354  20.615  14.614  20.464  0.1415 -0.2086  0.0184
90438W        W33355  20.052  15.592  26.520  0.0213 -0.1611  0.2544
90439W        W33356  21.712  14.139  25.113  0.2828  0.1338 -0.3280
90440W        W33357  20.806  15.296  24.667 -0.2939  0.1121  0.2028
90441W        W33358  20.914  14.190  21.765 -0.2693 -0.2502 -0.3788
90442W        W33359  21.030  16.920  23.249  0.2717 -0.0325 -0.2176
90443W        W33360  20.138  13.135  22.363  0.0850  0.0082 -0.1528
90444W        W33361  20.421  14.005  25.034 -0.0429 -0.3696  0.0239
90445W        W33362  20.271  15.515  22.326 -0.1382 -0.0379 -0.4952
90446W        W33363  21.695  17.334  23.672 -0.1426  0.1691 -0.1518
90447W        W33364  22.609  17.388  23.483  0.1085  0.0726 -0.2403
90448W        W33365  18.356  14.630  22.882  0.0186  0.1276  0.4051
90449W        W33366  19.206  14.090  20.847 -0.0227  0.0398  0.1234
90450W        W33367  18.090  15.750  23.145  0.2548 -0.0434  0.0501
90451W        W33368  18.968  17.439  20.264  0.0062 -0.0788 -0.1671
90452W        W33369  21.371  15.514  19.733 -0.2354  0.2820 -0.0292
90453W        W33370  21.792  16.121  21.062  0.0882  0.1104  0.1440
90454W        W33371  20.869  14.764  19.689  0.2183  0.1298  0.1854
90455W        W33372  18.413  17.525  22.273  0.2632 -0.0185  0.0463
90456W        W33373  21.886  20.110  20.415 -0.0216 -0.1016 -0.0732
90457W        W33374  19.287  17.971  20.487 -0.2565  0.0921 -0.1151
90458W        W33375  22.073  17.217  24.029 -0.1026  0.0524  0.0540
90459W        W33376  20.360  15.530  19.636 -0.0763  0.4350 -0.2381
90460W        W33377  22.865  17.357  24.261 -0.0115  0.2145 -0.2315
90461W        W33378  21.430  15.776  25.323 -0.0122  0.2393 -0.0634
90462W        W33379  20.446  14.233  20.866  0.1583  0.2238  0.0711
90463W        W33380  22.069  16.546  27.091  0.1235 -0.0474 -0.0387
90464W        W33381  22.426  17.347  20.620  0.3532  0.0766 -0.0056
90465W        W33382  19.490  14.631  25.695  0.4340  0.0404  0.0769
90466W        W33383  20.012  19.018  20.379  0.2425 -0.0227 -0.0333
90467W        W33384  20.215  18.251  20.722  0.1614 -0.2235 -0.1716
90468W        W33385  23.379  16.410  22.814 -0.2387  0.0150  0.1664
90469W        W33386  19.372  15.656  24.802  0.1964  0.0520 -0.0577
90470W        W33387  19.608  16.307  20.683 -0.1793 -0.1661  0.1881
90471W        W33388  20.633  15.120  19.347 -0.2651  0.0195 -0.2267
90472W        W33389  21.838  16.208  22.976  0.0670 -0.2174  0.1211
90473W        W33390  21.065  14.966  20.721 -0.0214 -0.2305 -0.4284
90474W        W33391  21.623  15.075  23.165 -0.0245 -0.1656  0.0376
90475W        W33392  21.650  16.589  20.480  0.1113  0.2981  0.0809
90476W        W33393  21.193  18.570  22.444  0.2772 -0.0957 -0.1164
90477W        W33394  20.581  14.639  22.657  0.1142  0.0336  0.1028
90478W        W33395  19.987  14.480  21.095 -0.1099 -0.0628  0.0966
90479W        W33396  19.882  15.728  21.566  0.5100 -0.1343  0.0546
90480W        W33397  19.762  16.363  22.741  0.2473  0.0342  0.1893
90481W        W33398  21.523  16.939  23.319 -0.0852  0.0730 -0.2427
90482W        W33399  19.523  13.778  20.582 -0.1101 -0.0736 -0.3285
90483W        W33400  22.405  17.617  24.114 -0.3353  0.1604 -0.1331
90484W        W33401  21.259  15.883  21.191 -0.1631 -0.0148  0.0774
90485W        W33402  22.167  15.641  21.761  0.0631 -0.0636 -0.0799
90486W        W33403  21.915  15.764  22.725  0.2977 -0.1869  0.3058
90487W        W33404  21.779  17.700  20.739  0.0793  0.1862 -0.1416
90488W        W33405  20.890  14.600  22.228  0.0383  0.0750  0.2562
90489W        W33406  20.170  15.970  21.894  0.0686  0.1223 -0.1493
90490W        W33407  22.960  14.767  23.431  0.3066 -0.0404 -0.0418
90491W        W33408  22.216  15.469  22.278  0.0834  0.0195 -0.0232
90492W        W33409  20.576  15.973  24.317 -0.0601 -0.4219 -0.1560
90493W        W33410  20.913  17.113  22.462  0.1345  0.1006 -0.0825
90494W        W33411  18.846  17.936  23.814 -0.0007 -0.1625 -0.1386
90495W        W33412  19.971  16.973  22.665  0.0888  0.4319 -0.1957
90496W        W33413  19.870  18.596  20.683 -0.0644 -0.1568  0.0505
90497W        W33414  23.460  18.844  25.455  0.0036 -0.1457  0.3206
90498W        W33415  21.554  17.567  21.326  0.2259 -0.3963 -0.1008
90499W        W33416  20.257  14.964  20.312  0.3273 -0.1837 -0.0417
90500W        W33417  22.037  13.564  23.091 -0.1722  0.0961 -0.0295
90501W        W33418  22.677  14.303  24.024 -0.0404 -0.1731  0.2364
90502W        W33419  19.666  16.703  22.385 -0.3191  0.0441  0.0375
90503W        W33420  18.796  15.779  20.595  0.0126  0.0406 -0.0609
90504W        W33421  19.395  16.383  21.168  0.1756  0.0627  0.0477
90505W        W33422  18.110  12.880  26.736 -0.3393 -0.4119  0.0610
90506W        W33423  22.025  18.927  22.953 -0.1175 -0.1776  0.0547
90507W        W33424  18.933  14.390  21.573  0.0129 -0.0403 -0.4907
90508W        W33425  21.669  17.826  20.216 -0.0763  0.0754  0.1647
90509W        W33426  22.687  14.591  20.946  0.0286 -0.1405 -0.0736
90510W        W33427  20.540  18.020  25.242  0.0366  0.1803 -0.4064
90511W        W33428  18.912  16.659  19.333  0.0480  0.0571 -0.2377
90512W        W33429  20.070  14.758  23.861 -0.1767  0.2100  0.2615
90513W        W33430  18.281  12.837  19.542 -0.1945  0.1347  0.2038
90514W        W33431  20.446  19.281  20.409 -0.0168  0.2398 -0.1964
90515W        W33432  19.984  17.063  21.468 -0.2312 -0.0124 -0.1890
90516W        W33433  18.010  15.252  24.433 -0.3576 -0.3103 -0.1134
90517W        W33434  19.449  17.663  23.481 -0.1755 -0.0430 -0.3740
90518W        W33435  22.403  16.907  23.433 -0.0151  0.4478 -0.0449
90519W        W33436  21.932  15.950  24.813 -0.1339 -0.0482  0.0251
90520W        W33437  20.879  15.548  20.456 -0.1276  0.2344  0.0534
90521W        W33438  18.996  14.798  23.466 -0.0706 -0.2064 -0.3895
90522W        W33439  21.714  15.431  24.011 -0.0886 -0.1764 -0.0402
90523W        W33440  20.375  15.479  20.219  0.1147  0.0240  0.0650
90524W        W33441  19.360  15.702  21.860 -0.1215  0.0850 -0.0656
90525W        W33442  20.452  15.071  19.870  0.1517  0.0840 -0.1576
90526W        W33443  20.288  16.536  22.601  0.1253 -0.2510  0.1055
90527W        W33444  21.432  16.491  23.004 -0.0796 -0.0457  0.1667
90528W        W33445  19.901  15.821  20.573  0.0826  0.1573  0.0247
90529W        W33446  23.713  18.036  25.277 -0.0511  0.1408  0.1148
90530W        W33447  20.555  17.297  23.762 -0.1433  0.2571  0.0105
90531W        W33448  20.838  18.310  21.964  0.3986 -0.3147  0.2295
90532W        W33449  21.454  16.127  20.708 -0.2355  0.1210 -0.0005
90533W        W33450  18.837  14.218  25.563  0.0377 -0.2689  0.1366
90534W        W33451  19.624  15.416  21.016 -0.1975  0.3545  0.0835
90535W        W33452  20.398  15.648  20.693  0.1816  0.0625 -0.1301
90536W        W33453  19.482  14.364  23.181 -0.2312  0.1491  0.1299
90537W        W33454  21.343  14.714  21.225 -0.0508 -0.3728  0.0488
90538W        W33455  17.697  17.132  28.843 -0.2027  0.0154  0.1267
90539W        W33456  19.879  16.261  28.450 -0.1924 -0.0876 -0.1947
90540W        W33457  20.906  16.749  24.677 -0.1789 -0.1334 -0.1911
90541W        W33458  21.932  17.680  24.943 -0.2679  0.0859 -0.0620
90542W        W33459  17.884  14.830  25.116  0.2470  0.2183  0.0750
90543W        W33460  20.649  18.740  25.936  0.2954  0.0997 -0.2857
90544W        W33461  19.269  15.716  29.928 -0.3159  0.1449 -0.0911
90545W        W33462  18.763  16.732  27.193 -0.0829 -0.1062 -0.2039
90546W        W33463  20.926  16.161  28.545  0.1259 -0.2941 -0.1043
90547W        W33464  21.630  15.008  25.007  0.0555 -0.0557  0.2529
90548W        W33465  17.408  14.656  26.655  0.2898  0.1533 -0.0756
90549W        W33466  19.044  17.792  28.333 -0.0265  0.2509  0.2073
90550W        W33467  20.877  13.224  27.362  0.4313  0.0978  0.1558
90551W        W33468  17.387  13.426  27.712 -0.0509 -0.0705 -0.0156
90552W        W33469  20.731  16.731  29.645 -0.0313 -0.0141 -0.2586
90553W        W33470  18.251  15.108  25.352 -0.4626  0.0203  0.4582
90554W        W33471  19.136  15.468  26.230 -0.0084  0.0175 -0.0221
90555W        W33472  20.176  14.275  27.701 -0.0766  0.1566  0.1389
90556W        W33473  18.524  17.416  25.112  0.2443  0.2463 -0.3052
90557W        W33474  18.211  16.608  27.834  0.0170 -0.1249 -0.0678
90558W        W33475  20.272  14.548  28.439 -0.0406  0.0369 -0.2893
90559W        W33476  17.990  15.421  25.668 -0.1209 -0.1227 -0.2361
90560W        W33477  18.697  13.683  29.868 -0.4353 -0.1566  0.1463
90561W        W33478  20.448  16.083  28.757  0.0181 -0.0391  0.0217
90562W        W33479  20.141  17.038  29.684  0.0367  0.4554 -0.1207
90563W        W33480  20.017  16.614  27.532 -0.1540 -0.3848 -0.0694
90564W        W33481  18.933  17.695  27.354  0.3102 -0.3613  0.0380
90565W        W33482  19.535  18.119  30.551 -0.0261  0.2465 -0.0035
90566W        W33483  18.682  18.024  25.014 -0.2264  0.0534 -0.0168
90567W        W33484  19.255  16.227  24.769  0.2221 -0.1408  0.2048
90568W        W33485  21.600  17.809  27.834  0.1469  0.1745  0.1731
90569W        W33486  22.162  18.435  27.003  0.0187 -0.0575 -0.0307
90570W        W33487  19.543  15.697  28.616 -0.2195  0.1302  0.0831
90571W        W33488  18.857  16.966  22.913 -0.2268 -0.0297  0.1338
90572W        W33489  19.041  15.495  28.374  0.0508 -0.0057  0.2627
90573W        W33490  17.561  17.362  27.794 -0.0586 -0.1281  0.2887
90574W        W33491  18.636  15.653  28.108  0.0912  0.1955 -0.3084
90575W        W33492  19.862  16.803  29.075 -0.2679  0.2663  0.4595
90576W        W33493  18.862  16.274  26.909  0.1071 -0.0890  0.1799
90577W        W33494  21.298  17.274  31.893 -0.1609 -0.0347 -0.2058
90578W        W33495  18.451  16.945  25.301 -0.1165  0.3744 -0.2568
90579W        W33496  23.208  15.465  30.952 -0.2516  0.0676 -0.0445
90580W        W33497  19.056  16.671  24.554 -0.3138  0.1584  0.0862
90581W        W33498  18.831  14.609  24.377  0.0025  0.2084  0.1936
90582W        W33499  19.024  15.576  25.147  0.0500 -0.0476 -0.3308
90583W        W33500  20.302  14.448  26.250  0.1597 -0.2007  0.0708
90584W        W33501  19.774  16.127  24.831 -0.1276  0.1381 -0.0081
90585W        W33502  17.918  12.918  28.109 -0.1653  0.0957  0.0513
90586W        W33503  20.763  18.031  27.343  0.5216 -0.3546  0.4431
90587W        W33504  18.559  17.441  27.603  0.2194 -0.0444 -0.0293
90588W        W33505  19.453  14.827  27.113 -0.1198  0.0086  0.0418
90589W        W33506  19.476  15.383  27.415  0.0297  0.0376  0.1179
90590W        W33507  19.936  16.395  25.953  0.0816  0.0156  0.0847
90591W        W33508  21.454  17.315  22.397  0.1603 -0.0720 -0.0456
90592W        W33509  20.279  16.806  25.916  0.0140 -0.0662 -0.4075
90593W        W33510  20.088  17.584  24.619  0.0750 -0.3527  0.1951
90594W        W33511  17.747  13.983  30.179  0.0701 -0.0762 -0.2340
90595W        W33512  18.067  16.126  27.643  0.2348 -0.0279  0.1557
90596W        W33513  18.903  15.742  24.673 -0.0025  0.2514  0.2580
90597W        W33514  20.652  15.256  29.143  0.2031 -0.0340 -0.0346
90598W        W33515  19.743  17.314  25.751 -0.2346  0.1206  0.0378
90599W        W33516  22.212  13.815  30.121  0.0409  0.0702  0.2766
90600W        W33517  19.848  15.965  27.012  0.0757 -0.2137  0.1989
90601W        W33518  21.317  15.976  28.779  0.0897  0.0891  0.1161
90602W        W33519  19.524  16.453  25.209 -0.1079  0.2440  0.0026
90603W        W33520  18.820  14.828  26.843 -0.2625  0.0749 -0.2489
90604W        W33521  20.739  16.241  30.896  0.1704  0.2765  0.1289
90605W        W33522  19.585  15.813  25.247  0.1785 -0.2095  0.0284
90606W        W33523  22.368  16.356  28.775 -0.0561 -0.0355 -0.0987
90607W        W33524  20.245  15.309  25.669 -0.0278  0.0549  0.2451
90608W        W33525  18.113  17.898  26.620 -0.1374 -0.2180  0.3670
90609W        W33526  18.881  17.221  31.075  0.0530 -0.0126  0.2463
90610W        W33527  20.953  16.494  28.083 -0.4194  0.0731  0.1818
90611W        W33528  18.933  17.963  23.251  0.2524 -0.1973  0.2681
90612W        W33529  18.307  16.214  27.159  0.0133 -0.1165 -0.1013
90613W        W33530  18.373  15.206  26.919  0.2131  0.0012  0.0480
90614W        W33531  19.054  17.673  26.791 -0.1488  0.0861 -0.0892
90615W        W33532  20.076  13.246  28.320 -0.0485 -0.2989  0.1099
90616W        W33533  17.088  14.309  27.747 -0.2335 -0.1142  0.1180
90617W        W33534  22.308  15.220  30.145  0.1672 -0.0961 -0.0955
90618W        W33535  19.925  17.263  24.039  0.2156  0.3241  0.0067
90619W        W33536  20.457  16.418  28.361  0.3611  0.1499  0.1550
90620W        W33537  20.196  17.691  23.769 -0.0181 -0.0515 -0.1564
90621W        W33538  17.094  13.897  28.849 -0.2330  0.2894  0.1946
90622W        W33539  19.102  16.816  27.671  0.1713  0.2304  0.0543
90623W        W33540  18.576  16.084  30.550 -0.1046  0.1461 -0.1349
90624W        W33541  19.080  13.119  26.902  0.0719 -0.0934  0.0544
90625W        W33542  20.949  16.039  27.789  0.1192  0.3359  0.2644
90626W        W33543  19.862  13.804  27.509  0.2241 -0.1783 -0.1371
90627W        W33544  19.005  15.190  27.227 -0.2097 -0.0999 -0.0473
90628W        W33545  19.557  14.893  28.201 -0.0471 -0.1558  0.0227
90629W        W33546  19.956  15.610  29.369  0.0683 -0.3241 -0.0858
90630W        W33547  20.261  17.177  26.405  0.0668 -0.2246 -0.0899
90631W        W33548  21.102  17.707  30.698 -0.0741 -0.2598  0.3940
90632W        W33549  21.004  17.621  25.997  0.0329 -0.2361 -0.3393
90633W        W33550  17.524  15.310  29.150 -0.2259  0.0568 -0.0001
90634W        W33551  19.121  15.732  27.147 -0.3338  0.0637 -0.2045
90635W        W33552  18.398  17.907  24.580 -0.1248 -0.1020 -0.0106
90636W        W33553  17.151  15.546  28.719  0.0324 -0.1154 -0.0298
90637W        W33554  18.641  15.408  27.427  0.3219  0.0845 -0.0543
90638W        W33555  22.176  16.776  29.102  0.1531 -0.1436 -0.3271
90639W        W33556  19.309  17.232  25.990 -0.2930 -0.0490 -0.0145
90640W        W33557  17.596  16.586  28.977 -0.5410  0.2099 -0.3197
90641W        W33558  19.526  14.805  30.179  0.3060  0.1168 -0.0682
90642W        W33559  20.556  15.114  27.786  0.0963  0.0609  0.2368
90643W        W33560  20.793  15.259  27.079 -0.0223  0.0574  0.0424
90644W        W33561  20.224  13.882  26.373 -0.0132  0.5352 -0.1983
90645W        W33562  20.326  16.169  25.713  0.1459 -0.0705 -0.1839
90646W        W33563  19.211  16.585  25.576 -0.0935 -0.0166 -0.3627
90647W        W33564  17.610  15.716  25.557 -0.2209 -0.0382  0.0295
90648W        W33565  19.747  16.206  26.401  0.2822 -0.0981 -0.0453
90649W        W33566  20.031  14.975  28.158 -0.2365  0.2055  0.2202
90650W        W33567  17.400  16.374  28.289 -0.0258 -0.2879 -0.0173
90651W        W33568  21.225  17.985  26.868 -0.1374  0.0641 -0.0362
90652W        W33569  18.904  16.213  25.861  0.0387  0.0524  0.0106
90653W        W33570  17.052  17.077  29.852 -0.1063  0.0999 -0.1725
90654W        W33571  19.263  15.232  23.459  0.1142 -0.1872  0.0216
90655W        W33572  20.562  14.847  26.836 -0.2682  0.0501 -0.1329
90656W        W33573  19.301  17.615  30.478  0.0133 -0.0756  0.0523
90657W        W33574  21.680  16.501  27.434 -0.1057 -0.2037  0.0608
90658W        W33575  20.812  14.296  27.539  0.0779  0.1252  0.2040
90659W        W33576  19.933  14.958  22.968 -0.0191 -0.4493  0.0380
90660W        W33577  17.176  15.241  28.312 -0.0673 -0.1199 -0.0517
90661W        W33578  18.979  17.158  25.290 -0.0347 -0.3580  0.0252
90662W        W33579  19.427  16.938  27.313  0.1662  0.5834  0.0599
90663W        W33580  20.516  15.650  23.839 -0.0842  0.0104 -0.2515
90664W        W33581  20.283  16.371  27.234  0.3163  0.0463 -0.0673
90665W        W33582  17.757  16.597  28.045  0.5442  0.2782  0.1088
90666W        W33583  20.558  17.110  30.043 -0.1936 -0.3327  0.1072
90667W        W33584  19.511  16.125  25.672 -0.1967  0.1850  0.0531
90668W        W33585  17.423  13.793  28.473  0.1529  0.1059  0.0729
90669W        W33586  18.910  14.823  24.859 -0.0606 -0.3263 -0.0408
90670W        W33587  21.467  15.160  29.719  0.1127  0.1301 -0.1266
90671W        W33588  20.697  16.062  27.060  0.1831 -0.2513  0.3700
90672W        W33589  16.738  15.546  30.736 -0.0203 -0.1576 -0.1143
90673W        W33590  19.413  15.242  28.501 -0.2497 -0.0736 -0.2337
90674W        W33591  19.742  17.448  26.330 -0.0037  0.1794 -0.2257
90675W        W33592  18.453  15.452  29.683  0.0479 -0.1887  0.0207
90676W        W33593  19.816  15.119  29.383  0.2657  0.2119  0.0360
90677W        W33594  18.227  13.688  29.124  0.2761 -0.0372  0.1057
90678W        W33595  18.403  16.871  26.324 -0.0829  0.1029 -0.1839
90679W        W33596  20.837  18.157  31.901  0.0447  0.2807  0.0855
90680W        W33597  20.452  17.555  25.022 -0.0530 -0.1015  0.1605
90681W        W33598  21.138  13.386  29.242 -0.0839 -0.4526 -0.2681
90682W        W33599  19.330  14.446  24.826 -0.0204 -0.1330 -0.0220
90683W        W33600  18.074  17.353  25.256 -0.0569 -0.2559  0.1711
90684W        W33601  17.965  14.318  25.580 -0.0065  0.1490  0.1066
90685W        W33602  18.449  17.922  28.969  0.0811  0.4498  0.0481
90686W        W33603  19.187  17.117  23.722 -0.0123  0.2359 -0.0444
90687W        W33604  21.468  14.672  30.600 -0.0352  0.0851 -0.0349
90688W        W33605  19.551  15.874  29.082  0.3037 -0.3007 -0.2670
90689W        W33606  17.860  16.976  25.477 -0.3306  0.4557 -0.1147
90690W        W33607  19.100  15.219  24.211 -0.1178  0.1408 -0.0119
90691W        W33608  17.147  16.646  24.325  0.0907  0.0819  0.0420
90692W        W33609  20.745  16.648  26.039  0.0360  0.0729  0.1719
90693W        W33610  20.073  15.753  23.593  0.2976  0.2194 -0.0456
90694W        W33611  17.797  14.990  26.563  0.0588  0.0124 -0.3104
90695W        W33612  18.889  15.224  24.638  0.1396  0.6115 -0.1866
90696W        W33613  18.348  18.370  28.271 -0.0906 -0.0154  0.1132
90697W        W33614  18.644  16.429  27.525  0.0705 -0.0996 -0.2034
90698W        W33615  19.884  14.843  26.269  0.1886  0.1824  0.2102
90699W        W33616  20.898  16.843  27.687 -0.1216  0.2511  0.2474
90700W        W33617  20.778  17.367  27.672 -0.2717  0.0650 -0.1680
90701W        W33618  18.067  15.690  25.297 -0.0544  0.0690 -0.1790
90702W        W33619  18.908  14.539  27.254 -0.2540  0.1572 -0.0175
90703W        W33620  18.674  15.331  26.508 -0.1039  0.0408 -0.2917
90704W        W33621  17.000  16.694  26.068 -0.0799  0.0060 -0.0780
90705W        W33622  18.954  17.478  29.245  0.2004 -0.0537 -0.2817
90706W        W33623  19.816  14.401  26.703 -0.2120  0.0828 -0.0973
90707W        W33624  18.602  17.457  28.251  0.0107 -0.1401 -0.1664
90708W        W33625  19.419  15.462  30.277 -0.1469 -0.1638  0.2032
90709W        W33626  19.916  17.135  27.661  0.0466  0.1636 -0.0952
90710W        W33627  19.059  16.255  28.880  0.1409 -0.4679 -0.1392
90711W        W33628  18.046  14.739  28.473  0.1206  0.1715 -0.0017
90712W        W33629  18.741  16.785  30.037 -0.2581 -0.1729  0.0005
90713W        W33630  19.841  17.016  26.160 -0.0155  0.2298 -0.2000
90714W        W33631  18.579  15.974  28.914 -0.2770  0.3962  0.4231
90715W        W33632  18.203  16.667  27.361  0.3298 -0.3892 -0.2235
90716W        W33633  19.428  17.221  27.739 -0.1517 -0.0574 -0.2707
90717W        W33634  21.761  18.696  25.835  0.1579 -0.0518 -0.2192
90718W        W33635  21.734  15.290  29.135 -0.3087 -0.2654  0.1353
90719W        W33636  17.949  15.826  25.924  0.1741  0.0791 -0.1067
90720W        W33637  19.788  17.080  24.610  0.0693 -0.1929  0.1019
90721W        W33638  18.159  15.243  27.476  0.1057  0.0837  0.1360
90722W        W33639  18.728  16.640  27.983 -0.1480 -0.0061 -0.0535
90723W        W33640  20.564  16.857  23.462  0.1169 -0.2090 -0.0696
90724W        W33641  18.615  15.908  25.500  0.0193  0.3849  0.1004
90725W        W33642  19.450  14.883  27.612  0.2440 -0.2746  0.0744
90726W        W33643  19.635  16.601  24.735  0.0085  0.0754  0.0448
90727W        W33644  18.443  14.920  24.944 -0.1321 -0.1644  0.0691
90728W        W33645  22.390  15.153  30.660 -0.3440  0.0894 -0.0018
90729W        W33646  18.593  15.935  25.001  0.1319 -0.0183 -0.1422
90730W        W33647  18.600  14.553  28.744 -0.0591 -0.2015  0.0965
90731W        W33648  19.379  15.356  27.988  0.1085 -0.1011 -0.1239
90732W        W33649  20.476  16.492  27.789 -0.0626  0.1425  0.3001
90733W        W33650  18.690  15.591  26.924 -0.1887  0.0735  0.0233
90734W        W33651  20.653  16.735  30.996 -0.1368 -0.4275 -0.0053
90735W        W33652  19.068  14.885  28.119 -0.2292  0.2295 -0.1195
90736W        W33653  18.887  15.166  25.843 -0.1605  0.0892  0.0768
90737W        W33654  17.376  13.375  27.172  0.0246  0.0485  0.5853
90738W        W33655  19.118  16.337  27.853  0.1222 -0.2109 -0.1414
90739W        W33656  19.448  18.326  26.643 -0.1530  0.0708 -0.1992
90740W        W33657  20.446  16.613  24.848  0.1429  0.1079 -0.1553
90741W        W33658  21.118  15.406  29.474 -0.2814  0.1829 -0.1563
90742W        W33659  16.321  15.418  28.700  0.2085  0.5789  0.0914
90743W        W33660  20.769  15.210  23.455  0.1227 -0.1493  0.1532
90744W        W33661  18.207  16.123  26.298 -0.0300  0.1669 -0.2660
90745W        W33662  18.683  15.788  26.299  0.4951 -0.3285 -0.2970
90746W        W33663  17.225  12.826  29.131  0.2465  0.2042  0.1675
90747W        W33664  20.700  17.129  25.891  0.3715 -0.0308  0.0477
90748W        W33665  19.990  15.748  28.904  0.2676  0.2211 -0.1194
90749W        W33666  19.637  13.699  28.891 -0.2119 -0.1062 -0.2061
90750W        W33667  21.164  14.813  28.285 -0.0423  0.0106 -0.0405
90751W        W33668  20.134  14.246  29.562 -0.0585 -0.1572 -0.0453
90752W        W33669  16.836  14.632  28.856 -0.2622  0.1203 -0.1148
90753W        W33670  21.634  15.853  28.382  0.1833  0.0525 -0.0770
90754W        W33671  20.851  16.199  25.522  0.0269  0.2304  0.0315
90755W        W33672  20.706  16.022  29.515  0.0393 -0.0236 -0.0120
90756W        W33673  19.212  18.084  27.130 -0.0765 -0.2684 -0.1096
90757W        W33674  18.738  13.671  23.147  0.1860 -0.1901  0.3314
90758W        W33675  19.910  16.107  27.481 -0.0463  0.2812 -0.0319
90759W        W33676  22.332  17.177  29.320  0.2324  0.2137  0.1549
90760W        W33677  17.357  12.821  25.604 -0.1444  0.1783 -0.0693
90761W        W33678  20.235  14.249  31.459 -0.0894  0.0241  0.1253
90762W        W33679  19.392  17.407  25.182 -0.0706 -0.2701 -0.0141
90763W        W33680  20.405  19.212  28.703  0.0249 -0.0767  0.0219
90764W        W33681  19.842  16.489  26.944  0.3445 -0.0122 -0.1441
90765W        W33682  16.550  15.352  25.972 -0.0070  0.3568  0.1500
90766W        W33683  18.256  18.229  27.035  0.0981 -0.1000  0.1204
90767W        W33684  20.322  16.328  29.225  0.0105  0.0423  0.1002
90768W        W33685  20.164  16.873  30.941  0.1153 -0.1068 -0.1498
90769W        W33686  17.374  14.507  27.235 -0.0183 -0.0989  0.0992
90770W        W33687  20.433  17.129  30.533  0.0584  0.1083  0.0498
90771W        W33688  19.111  15.700  25.698  0.2853 -0.0820  0.0682
90772W        W33689  17.193  20.110  25.881  0.1494 -0.0829  0.1051
90773W        W33690  17.851  16.132  29.710 -0.2442 -0.2650 -0.0945
90774W        W33691  20.812  16.450  26.735  0.1031  0.2581  0.2079
90775W        W33692  18.231  15.378  28.182 -0.2321 -0.0305  0.1403
90776W        W33693  19.719  15.489  26.967 -0.0246  0.1757  0.1187
90777W        W33694  19.309  17.113  31.366  0.1031 -0.0444 -0.0099
90778W        W33695  19.852  15.402  28.255 -0.2401 -0.1587 -0.0605
90779W        W33696  18.849  16.009  28.518  0.2616 -0.1282  0.1807
90780W        W33697  19.051  16.161  25.210  0.0060 -0.2143 -0.0882
90781W        W33698  20.811  17.750  26.754  0.2248 -0.1124  0.1689
90782W        W33699  20.715  15.608  27.942  0.1737  0.2517 -0.2385
90783W        W33700  18.612  14.707  28.289  0.1005 -0.0850  0.2237
90784W        W33701  17.717  14.620  28.819  0.0882 -0.1089 -0.0852
90785W        W33702  20.277  15.274  29.565 -0.0308  0.0431  0.2184
90786W        W33703  19.520  16.601  26.606 -0.1883  0.0741 -0.0804
90787W        W33704  20.148  15.131  26.789  0.1080 -0.1572  0.2944
90788W        W33705  19.845  16.786  24.225 -0.3146  0.1972  0.0643
90789W        W33706  19.152  17.189  26.870  0.0922  0.3371 -0.0818
90790W        W33707  17.652  14.848  27.500  0.2691 -0.0403  0.0958
90791W        W33708  20.551  16.082  25.148 -0.4278 -0.0789  0.2955
90792W        W33709  17.407  16.951  25.268 -0.0997  0.1056  0.3405
90793W        W33710  17.970  19.006  28.317 -0.0003  0.2618 -0.0467
90794W        W33711  18.846  14.414  26.280 -0.0207 -0.1490  0.0688
90795W        W33712  19.593  16.955  25.045  0.2847 -0.0486  0.0528
90796W        W33713  18.850  17.460  23.429  0.4026  0.0151  0.1749
90797W        W33714  20.411  16.344  26.200 -0.1331 -0.3506  0.0537
90798W        W33715  18.244  17.190  27.289 -0.0930  0.1608 -0.0229
90799W        W33716  19.209  16.806  28.114  0.0008  0.0686 -0.0445
90800W        W33717  20.663  14.427  25.840  0.6245 -0.0126  0.1447
90801W        W33718  21.207  14.096  26.431 -0.0375  0.2332 -0.1014
90802W        W33719  18.679  15.104  27.883  0.0757  0.1067  0.5010
90803W        W33720  22.189  16.823  29.663  0.0537 -0.3767  0.2068
90804W        W33721  18.367  16.112  28.015 -0.2614  0.0048 -0.1007
90805W        W33722  20.193  16.051  23.996  0.3113 -0.0878 -0.0770
90806W        W33723  17.583  14.213  27.573  0.1348 -0.3600  0.1998
90807W        W33724  21.004  15.033  28.705 -0.1789 -0.1062 -0.0783
90808W        W33725  18.564  18.037  27.476 -0.0401  0.2997 -0.3711
90809W        W33726  20.778  16.091  23.832  0.1074  0.0190  0.0415
90810W        W33727  17.841  15.623  28.011  0.1302 -0.0599  0.2244
90811W        W33728  20.870  15.184  30.111 -0.1897 -0.1385 -0.2068
90812W        W33729  21.199  17.075  24.453 -0.1124 -0.0168 -0.1435
90813W        W33730  20.907  16.796  29.098  0.1273  0.0659  0.2163
90814W        W33731  19.256  17.944  24.677 -0.3299 -0.0544  0.1226
90815W        W33732  18.293  19.110  25.389 -0.0108 -0.1854 -0.0536
90816W        W33733  19.973  19.322  25.270  0.3123  0.2728  0.0703
90817W        W33734  18.532  14.541  27.791 -0.2220 -0.1316 -0.0112
90818W        W33735  23.185  14.654  28.079 -0.0450  0.0323 -0.0549
90819W        W33736  18.984  14.751  27.670  0.1917  0.1153 -0.3915
90820W        W33737  19.999  14.940  30.336  0.3914  0.4335 -0.0874
90821W        W33738  18.907  17.212  27.954  0.4014  0.0055 -0.1064
90822W        W33739  19.344  15.013  25.994  0.0800  0.3330  0.1196
90823W        W33740  21.040  17.129  29.477  0.1457  0.3320  0.0796
90824W        W33741  17.305  15.182  26.538 -0.1832  0.3645 -0.3774
90825W        W33742  22.445  15.447  29.661  0.0125 -0.2352 -0.0763
90826W        W33743  19.281  14.825  24.518 -0.1383 -0.0310 -0.0835
90827W        W33744  20.317  16.196  26.683 -0.1775  0.4012  0.3337
90828W        W33745  16.142  17.268  25.601  0.0059  0.0571 -0.4861
90829W        W33746  21.255  15.972  25.854 -0.1067 -0.0275  0.0521
90830W        W33747  18.601  17.570  25.542 -0.2256 -0.0377  0.7906
90831W        W33748  17.195  14.714  30.202  0.2412 -0.0545 -0.1415
90832W        W33749  19.531  17.967  26.341 -0.1983 -0.1603  0.1240
90833W        W33750  17.427  13.743  26.200  0.0502  0.2382 -0.5100
90834W        W33751  21.526  17.499  25.125  0.0383  0.0200 -0.1192
90835W        W33752  22.588  14.749  29.003  0.1882  0.1222  0.0099
90836W        W33753  20.191  18.198  23.870  0.0516 -0.3588 -0.1131
90837W        W33754  19.583  15.519  25.685 -0.0716  0.0689  0.0220
90838W        W33755  20.762  18.194  28.047  0.4947  0.0004 -0.2033
90839W        W33756  19.182  15.348  26.803 -0.1712  0.0438  0.3253
90840W        W33757  20.399  16.821  29.284 -0.0864  0.2560  0.0816
90841W        W33758  21.491  16.075  27.918 -0.3887 -0.1732  0.0004
90842W        W33759  21.545  16.141  26.429  0.0560  0.0294 -0.2189
90843W        W33760  20.336  13.565  27.458  0.2845 -0.1113  0.2342
90844W        W33761  18.971  17.567  24.899 -0.0004 -0.1939 -0.0528
90845W        W33762  19.431  16.505  29.322 -0.2172  0.2836  0.1708
90846W        W33763  19.077  13.921  28.982 -0.1766 -0.0882  0.0683
90847W        W33764  18.710  16.994  24.873 -0.4110 -0.2448  0.2467
90848W        W33765  21.354  14.226  31.281 -0.0603  0.2286 -0.0797
90849W        W33766  18.526  16.455  29.043 -0.1020 -0.0851 -0.0671
90850W        W33767  16.738  18.795  28.826 -0.2062 -0.1033 -0.0169
90851W        W33768  18.228  16.360  24.519  0.0126  0.1010  0.0717
90852W        W33769  19.472  17.889  27.508  0.0638 -0.1636  0.1883
90853W        W33770  18.448  15.042  26.096 -0.1256 -0.1456  0.0123
90854W        W33771  19.181  17.114  24.734  0.1462 -0.2286 -0.2324
90855W        W33772  22.215  17.832  28.579  0.0621 -0.2340  0.0636
90856W        W33773  19.558  14.954  26.642 -0.0835  0.3296  0.5778
90857W        W33774  20.784  15.271  25.210  0.2796  0.2217 -0.0715
90858W        W33775  18.532  16.427  26.140 -0.1225 -0.1146 -0.2570
90859W        W33776  20.812  14.342  25.159 -0.0696 -0.2098 -0.0577
90860W        W33777  20.637  14.383  28.016 -0.4154 -0.0507 -0.0039
90861W        W33778  19.903  16.464  29.562  0.1680 -0.0361 -0.1317
90862W        W33779  18.731  16.523  24.983 -0.0825  0.0349  0.0038
90863W        W33780  19.486  12.463  30.250 -0.1816  0.1980 -0.1534
90864W        W33781  17.405  12.729  28.641  0.1345  0.1450  0.0428
90865W        W33782  18.359  14.291  26.408  0.3084  0.0750 -0.0965
90866W        W33783  18.572  15.337  24.169 -0.3859  0.0433 -0.0328
90867W        W33784  19.344  15.979  26.116 -0.0225 -0.0713  0.2036
90868W        W33785  20.159  14.748  28.981  0.0201  0.1057  0.0768
90869W        W33786  18.523  14.242  27.215  0.1279 -0.0409 -0.3254
90870W        W33787  18.891  16.794  26.636 -0.1128  0.0496 -0.4616
90871W        W33788  20.328  15.754  25.988 -0.2487 -0.1337 -0.4101
90872W        W33789  19.274  14.435  26.832 -0.0532  0.0396 -0.2161
90873W        W33790  23.963  17.760  30.938  0.2926 -0.2037 -0.3333
90874W        W33791  18.794  16.928  30.526 -0.1220  0.0962 -0.2813
90875W        W33792  19.656  14.101  29.751  0.3121 -0.0335  0.0121
90876W        W33793  17.552  16.069  27.329  0.3407  0.1438  0.0763
90877W        W33794  18.542  16.970  27.654 -0.2790 -0.3049 -0.4831
90878W        W33795  18.707  16.507  25.484  0.2730 -0.4154  0.1265
90879W        W33796  19.380  17.071  25.518 -0.0349  0.0134  0.2271
90880W        W33797  21.109  14.552  29.372  0.1492  0.1648  0.2739
90881W        W33798  18.102  17.561  28.832  0.0405 -0.1756 -0.3537
90882W        W33799  18.280  16.708  25.745 -0.3013  0.2038  0.0831
90883W        W33800  19.999  17.852  25.000  0.1758 -0.1891 -0.1575
90884W        W33801  19.487  16.359  28.140 -0.0468  0.0687  0.0325
90885W        W33802  20.993  16.876  23.760  0.2109  0.0841 -0.1433
90886W        W33803  21.236  14.555  28.814  0.0131 -0.0219  0.1873
90887W        W33804  19.489  16.666  26.100  0.2825  0.1888  0.0446
90888W        W33805  17.855  15.262  27.054  0.3308 -0.0796  0.0860
90889W        W33806  18.146  14.757  28.962 -0.2369 -0.3386 -0.0232
90890W        W33807  21.549  16.037  29.289 -0.1178  0.2145 -0.0088
90891W        W33808  20.639  13.800  26.642 -0.0226  0.4186 -0.0078
90892W        W33809  19.713  13.746  26.426 -0.0261  0.0814  0.3786
90893W        W33810  19.120  16.736  25.121 -0.0364 -0.0094  0.2661
90894W        W33811  17.162  15.691  27.323  0.2505 -0.0933 -0.0797
90895W        W33812  19.082  16.326  26.427 -0.1468 -0.1179 -0.1165
90896W        W33813  19.077  15.669  28.884 -0.1440 -0.2544  0.0663
90897W        W33814  19.821  17.294  27.193 -0.2253 -0.0631 -0.1812
90898W        W33815  19.719  17.586  28.948  0.3114 -0.0353  0.3104
90899W        W33816  18.448  15.438  25.745 -0.1684  0.0678  0.0285
90900W        W33817  21.117  17.151  24.935  0.1363 -0.1004  0.1460
90901W        W33818  19.216  18.738  25.816 -0.1556  0.0855 -0.1483
90902W        W33819  21.550  16.398  30.806  0.3220  0.3396 -0.1278
90903W        W33820  21.113  17.154  28.001 -0.0306 -0.0488  0.1875
90904W        W33821  20.136  15.277  26.150 -0.0022  0.0340 -0.4397
90905W        W33822  18.189  14.930  28.007 -0.0867 -0.0784  0.0644
90906W        W33823  20.741  15.003  29.524 -0.0016  0.0675 -0.2638
90907W        W33824  20.365  15.145  27.294  0.1586 -0.5535 -0.0890
90908W        W33825  19.458  15.898  27.682 -0.3221  0.2539  0.0242
90909W        W33826  19.988  15.483  24.019  0.0670 -0.0976  0.1840
90910W        W33827  19.297  18.608  27.829  0.0180 -0.0113 -0.1526
90911W        W33828  18.934  17.196  27.365 -0.3881  0.1147  0.0289
90912W        W33829  20.694  15.880  30.003  0.1572  0.2103 -0.1024
90913W        W33830  18.773  16.001  27.786 -0.1296  0.2333 -0.1927
90914W        W33831  16.953  14.924  29.803 -0.0685  0.1431 -0.1720
90915W        W33832  18.409  19.270  27.168  0.1584 -0.2286 -0.2791
90916W        W33833  18.147  19.022  26.689  0.2967  0.1886 -0.0192
90917W        W33834  17.260  16.776  28.662 -0.1319  0.1336 -0.0655
90918W        W33835  21.285  15.483  28.960  0.3838 -0.2323  0.0286
90919W        W33836  19.230  13.497  31.944 -0.1175 -0.1960  0.1145
90920W        W33837  21.696  15.381   0.445 -0.3343  0.2217  0.2168
90921W        W33838  20.950  15.787  29.099  0.0351  0.0482 -0.2928
90922W        W33839  19.292  17.983  29.513 -0.1565 -0.1081  0.3025
90923W        W33840  17.709  15.141  27.898 -0.3806 -0.0260  0.0993
90924W        W33841  19.112  16.667  31.839  0.3507 -0.1543  0.0843
90925W        W33842  18.396  17.180  28.644 -0.1583 -0.2094 -0.1508
90926W        W33843  21.245  16.365  31.764  0.0650 -0.1176 -0.2017
90927W        W33844  17.998  18.592  27.929  0.1142 -0.0839  0.0516
90928W        W33845  19.105  17.637  27.831  0.0510  0.3208 -0.1421
90929W        W33846  20.526  18.004  29.482 -0.0559 -0.0823  0.0180
90930W        W33847  17.064  14.482   0.043 -0.2532  0.2072  0.0012
90931W        W33848  16.797  13.526  29.573  0.0249 -0.0457  0.2903
90932W        W33849  17.487  15.518  26.922  0.0157 -0.0578 -0.1612
90933W        W33850  16.794  18.067  28.270 -0.0416 -0.1461 -0.1596
90934W        W33851  20.870  13.186  30.638 -0.0546  0.2574  0.2479
90935W        W33852  19.989  17.026   0.137 -0.2462  0.0130  0.0836
90936W        W33853  18.340  13.552  30.250 -0.2562 -0.0983  0.2884
90937W        W33854  19.615  15.387  29.004 -0.0163  0.1194 -0.1864
90938W        W33855  18.827  15.863  29.862  0.2726 -0.0158  0.1604
90939W        W33856  17.874  16.971  27.084 -0.0481  0.0486 -0.1779
90940W        W33857  17.223  14.798  27.798  0.0659  0.1412  0.2422
90941W        W33858  19.205  16.217  29.922 -0.2595 -0.0785 -0.2424
90942W        W33859  18.670  17.399  27.038  0.0452 -0.1656 -0.1777
90943W        W33860  17.553  14.869  31.201 -0.2156 -0.0275 -0.1150
90944W        W33861  19.924  18.411  30.211  0.0598 -0.2304 -0.0509
90945W        W33862  20.436  15.015  29.936 -0.1580  0.1379  0.2298
90946W        W33863  18.030  16.533  26.465  0.1910 -0.1383  0.1610
90947W        W33864  18.707  16.779  28.685  0.0170  0.0111 -0.1159
90948W        W33865  18.488  15.535   0.883  0.2017 -0.1777 -0.1017
90949W        W33866  19.247  16.935  28.681 -0.4241 -0.2762 -0.1290
90950W        W33867  19.839  16.777  28.405  0.1305  0.0059  0.0099
90951W        W33868  19.216  15.587  31.162  0.0523  0.0867  0.1294
90952W        W33869  18.687  15.629  30.985 -0.0043  0.0225  0.1284
90953W        W33870  21.120  15.908  31.845 -0.3036 -0.1756  0.2746
90954W        W33871  18.183  13.357  31.008 -0.0399 -0.0742 -0.0475
90955W        W33872  18.230  19.413  31.780 -0.1984 -0.4430 -0.1915
90956W        W33873  17.624  14.237  28.445  0.1538  0.0047  0.5596
90957W        W33874  19.928  15.040  29.873 -0.0267 -0.2864  0.0192
90958W        W33875  19.288  16.602  30.879 -0.4452  0.0836 -0.2695
90959W        W33876  20.372  15.799  30.622  0.0906  0.2673 -0.1129
90960W        W33877  19.829  17.722  30.867 -0.2813 -0.3208  0.0929
90961W        W33878  18.093  17.449  27.954 -0.0863 -0.0906  0.0808
90962W        W33879  21.413  16.775  28.108  0.0926  0.0015  0.1298
90963W        W33880  21.458  15.010  30.978  0.2736  0.1006  0.0171
90964W        W33881  19.966  14.080  28.824 -0.1596  0.2112  0.3116
90965W        W33882  20.685  14.255  29.289 -0.2518  0.0148  0.2928
90966W        W33883  19.190  15.953  28.200  0.2224 -0.2485  0.1682
90967W        W33884  19.950  16.357  27.942 -0.1941 -0.1840 -0.1739
90968W        W33885  20.135  18.068  30.570  0.2818 -0.0597 -0.1506
90969W        W33886  19.305  19.206  29.700  0.0863 -0.2651 -0.2481
90970W        W33887  20.170  16.821  28.004  0.0096 -0.1736  0.0565
90971W        W33888  16.695  14.978  28.046  0.1133 -0.0145 -0.3408
90972W        W33889  17.711  15.615  28.851  0.1733  0.0391  0.0236
90973W        W33890  17.751  17.157  31.499  0.1214  0.0838 -0.0050
90974W        W33891  17.106  17.411  28.049 -0.0373 -0.2297  0.1541
90975W        W33892  18.997  14.235  28.623  0.0008 -0.1311  0.0777
90976W        W33893  19.750  18.181  27.012 -0.3731 -0.3858  0.0007
90977W        W33894  20.088  17.399  26.786  0.3804  0.2366  0.0022
90978W        W33895  22.521  15.012  29.454 -0.1006  0.0304 -0.0116
90979W        W33896  19.577  21.206  17.960  0.0299  0.1779 -0.2511
90980W        W33897  20.302  19.481  14.875  0.0975  0.1550  0.2381
90981W        W33898  20.097  18.727  14.626 -0.2238 -0.0540  0.1659
90982W        W33899  21.966  22.485  18.073 -0.0959  0.0943 -0.0249
90983W        W33900  19.827  18.580  15.461  0.2781 -0.0409  0.2220
90984W        W33901  21.973  19.992  15.686 -0.0888  0.0533  0.1047
90985W        W33902  17.779  18.453  16.848  0.1018 -0.3867  0.2119
90986W        W33903  21.393  20.419  16.431  0.2004 -0.5410  0.2403
90987W        W33904  20.698  22.113  17.593 -0.3131  0.1658  0.2090
90988W        W33905  20.598  20.422  15.055  0.2246  0.0235 -0.1032
90989W        W33906  19.558  18.741  16.733 -0.0923 -0.2002  0.1004
90990W        W33907  21.265  21.272  19.648  0.0243  0.0590  0.0200
90991W        W33908  17.614  19.771  14.865  0.2873 -0.1192  0.0731
90992W        W33909  19.302  18.647  15.436 -0.1123  0.1112  0.3103
90993W        W33910  21.298  20.770  17.593 -0.0136  0.2370 -0.0250
90994W        W33911  18.651  20.481  15.883 -0.3840 -0.1976 -0.3253
90995W        W33912  18.991  18.933  15.189 -0.0574 -0.0067 -0.0728
90996W        W33913  19.647  18.318  14.818 -0.2217  0.1760 -0.2090
90997W        W33914  21.387  22.142  16.358  0.3238  0.1591 -0.1086
90998W        W33915  20.174  18.613  17.339  0.0860  0.2124  0.0266
90999W        W33916  21.600  18.157  16.550  0.1271  0.0843  0.2238
91000W        W33917  19.078  21.280  15.687  0.1953  0.2232 -0.2093
91001W        W33918  20.371  19.313  15.930 -0.4093 -0.0467  0.1513
91002W        W33919  19.111  20.811  18.015  0.0430 -0.1983  0.1335
91003W        W33920  21.591  18.222  17.538  0.0484 -0.2180 -0.1629
91004W        W33921  20.961  19.058  16.769 -0.2142  0.2188  0.1516
91005W        W33922  21.697  18.962  16.883 -0.0714  0.2397  0.4789
91006W        W33923  19.820  20.471  16.720  0.0172 -0.1420 -0.0309
91007W        W33924  20.959  20.575  16.702 -0.1534 -0.0775  0.0091
91008W        W33925  22.034  20.714  19.597 -0.1447 -0.1939  0.2985
91009W        W33926  18.625  21.504  15.851 -0.0937 -0.0989 -0.0331
91010W        W33927  17.868  21.586  16.972  0.3312 -0.1954  0.0626
91011W        W33928  18.656  21.104  15.070 -0.4904 -0.3875 -0.2819
91012W        W33929  21.745  20.712  15.151 -0.2596 -0.1900 -0.2019
91013W        W33930  22.784  22.103  17.735  0.0730  0.1761 -0.0318
91014W        W33931  21.843  21.455  19.022  0.0120 -0.0158 -0.0221
91015W        W33932  19.995  21.849  16.759 -0.1008  0.1736 -0.0449
91016W        W33933  19.787  20.526  18.674 -0.2475  0.1872 -0.1879
91017W        W33934  23.040  22.049  19.073 -0.2401 -0.1835 -0.0483
91018W        W33935  20.100  18.985  16.668 -0.1955 -0.0732  0.0571
91019W        W33936  20.611  18.609  15.931  0.0381 -0.1101 -0.0309
91020W        W33937  20.417  22.771  15.636 -0.2316  0.1645 -0.0616
91021W        W33938  20.426  20.742  15.540  0.0779  0.0414 -0.0877
91022W        W33939  21.376  21.994  18.846 -0.0904 -0.2436  0.2129
91023W        W33940  19.697  22.724  19.862  0.0219  0.0075 -0.1041
91024W        W33941  24.175  18.917  19.802  0.2765 -0.0963 -0.3051
91025W        W33942  19.794  19.948  16.852 -0.3169  0.0727  0.3140
91026W        W33943  20.967  19.067  15.560  0.0829 -0.0882  0.2550
91027W        W33944  20.071  19.783  14.547  0.1374 -0.0437 -0.2573
91028W        W33945  20.470  18.010  17.436 -0.0355  0.1339 -0.1080
91029W        W33946  19.664  18.009  16.432 -0.2065 -0.0172 -0.0889
91030W        W33947  20.945  21.200  16.108  0.3906 -0.4064  0.1170
91031W        W33948  19.736  19.460  15.784  0.2923 -0.0489 -0.1957
91032W        W33949  21.606  21.015  17.323 -0.0615  0.1073  0.1586
91033W        W33950  18.512  19.362  16.240 -0.2990  0.0394 -0.1412
91034W        W33951  21.136  19.631  18.459  0.0142  0.2721  0.1605
91035W        W33952  19.914  21.279  17.415 -0.1695 -0.2887 -0.1600
91036W        W33953  17.857  19.457  14.277  0.0626  0.0844  0.0250
91037W        W33954  20.997  21.048  16.609  0.0926 -0.1687  0.3286
91038W        W33955  23.351  21.777  16.339 -0.0539 -0.1625  0.0912
91039W        W33956  20.745  19.295  17.264 -0.2582 -0.0056  0.0651
91040W        W33957  17.986  20.180  14.649  0.0877  0.3504 -0.0495
91041W        W33958  18.578  20.273  16.823  0.3268 -0.1542  0.0298
91042W        W33959  18.222  19.467  17.457 -0.1442 -0.0549  0.0058
91043W        W33960  19.009  16.734  14.894 -0.1030 -0.0275 -0.1088
91044W        W33961  21.245  20.423  19.304  0.1270 -0.2396  0.3354
91045W        W33962  19.799  22.553  19.378 -0.2754  0.0525  0.0278
91046W        W33963  22.942  19.487  18.362 -0.1444  0.0791 -0.1697
91047W        W33964  20.149  21.938  18.611 -0.3268  0.2506  0.4183
91048W        W33965  22.733  22.101  18.608  0.4124 -0.4033 -0.0874
91049W        W33966  20.508  20.717  14.290 -0.0564  0.3500  0.3548
91050W        W33967  21.935  18.015  17.242  0.3473  0.1268 -0.3049
91051W        W33968  20.041  19.070  17.195  0.2199  0.2884 -0.0714
91052W        W33969  20.100  20.402  15.147 -0.0587  0.1423 -0.1453
91053W        W33970  19.230  19.450  16.005 -0.2952  0.1928  0.5525
91054W        W33971  21.589  20.561  18.453 -0.4214  0.0350 -0.0008
91055W        W33972  20.128  18.945  15.103 -0.3445  0.2710  0.0977
91056W        W33973  17.828  19.745  15.479 -0.1117 -0.0137 -0.1804
91057W        W33974  21.170  19.883  18.019 -0.0592  0.2070  0.2748
91058W        W33975  22.197  21.347  18.537  0.1145 -0.2385  0.0972
91059W        W33976  19.716  21.216  15.752 -0.2836  0.2308 -0.1480
91060W        W33977  19.528  20.622  15.453 -0.0663  0.3546 -0.1573
91061W        W33978  19.525  22.656  16.803 -0.1188  0.2372 -0.3181
91062W        W33979  17.575  19.727  16.337  0.2300 -0.2078 -0.1821
91063W        W33980  21.468  21.163  16.703  0.1775 -0.1603  0.0971
91064W        W33981  21.632  17.770  16.099 -0.2482  0.0967 -0.2356
91065W        W33982  17.770  20.951  15.864 -0.0862  0.0948 -0.1555
91066W        W33983  20.010  16.883  15.826 -0.1641  0.2044 -0.0126
91067W        W33984  20.037  19.800  15.196  0.1429 -0.1212 -0.1489
91068W        W33985  21.169  21.890  17.595 -0.3332  0.3629  0.0765
91069W        W33986  21.902  19.077  15.807  0.2010 -0.1613 -0.0539
91070W        W33987  20.601  21.232  14.814  0.0579 -0.1601 -0.1631
91071W        W33988  19.045  18.903  15.969  0.0083 -0.0378 -0.0767
91072W        W33989  18.732  19.499  14.340  0.0631  0.0994 -0.0057
91073W        W33990  19.229  21.196  18.356 -0.2101  0.1701  0.1043
91074W        W33991  15.619  21.905  17.271 -0.2679 -0.1630  0.0536
91075W        W33992  21.056  20.818  18.021 -0.3016  0.1429 -0.0770
91076W        W33993  17.293  19.238  14.708 -0.0261  0.0751 -0.1568
91077W        W33994  22.361  17.796  17.451  0.1955  0.1655 -0.2842
91078W        W33995  23.655  20.582  18.511  0.0688 -0.1414  0.1511
91079W        W33996  19.967  20.818  15.948  0.0932 -0.1039  0.2262
91080W        W33997  22.204  19.043  17.975  0.1690  0.3167 -0.2776
91081W        W33998  19.944  20.890  15.390 -0.0500 -0.0529 -0.0027
91082W        W33999  20.642  20.243  16.368 -0.2901 -0.0143  0.1106
91083W        W34000  20.339  21.165  15.248  0.0154  0.0072  0.1999
91084W        W34001  19.603  17.495  16.443  0.1857 -0.0929  0.1997
91085W        W34002  18.519  18.549  15.970 -0.0890 -0.1025  0.4508
91086W        W34003  17.761  22.046  16.440  0.4417 -0.1354 -0.2787
91087W        W34004  19.363  21.492  16.725  0.0003 -0.1289 -0.2176
91088W        W34005  18.278  18.907  14.960 -0.0493  0.1256  0.1885
91089W        W34006  22.410  20.620  17.447 -0.0129  0.0996 -0.0439
91090W        W34007  17.909  19.555  16.704 -0.1971 -0.1840  0.2022
91091W        W34008  18.997  22.542  18.531  0.0820 -0.1391 -0.1596
91092W        W34009  22.942  19.986  18.322  0.1381 -0.1551 -0.0541
91093W        W34010  22.657  22.409  19.571 -0.2599  0.0924 -0.0653
91094W        W34011  19.831  19.323  14.898  0.4003 -0.1422 -0.2320
91095W        W34012  17.819  17.329  14.941  0.0075 -0.2466 -0.3243
91096W        W34013  21.075  22.232  17.109  0.1062  0.0418 -0.0230
91097W        W34014  18.811  21.017  16.007 -0.1788 -0.0357  0.0986
91098W        W34015  19.177  20.670  16.238 -0.1061  0.4059  0.0537
91099W        W34016  19.701  21.098  18.512 -0.1781 -0.1612  0.1175
91100W        W34017  18.981  17.816  17.623 -0.1495  0.0245 -0.0057
91101W        W34018  18.640  17.930  16.900  0.2240 -0.2471  0.2347
91102W        W34019  20.715  19.059  18.060  0.1575  0.1423  0.0945
91103W        W34020  18.387  18.531  14.577 -0.2333 -0.1679 -0.1061
91104W        W34021  19.557  20.344  15.903  0.0091 -0.1674  0.0491
91105W        W34022  21.778  17.706  16.671 -0.1790 -0.1642 -0.2775
91106W        W34023  20.381  18.087  15.882 -0.1410 -0.1979  0.1522
91107W        W34024  20.469  21.420  16.321  0.1258  0.0544  0.0815
91108W        W34025  20.541  20.904  16.587  0.4562  0.0214 -0.0046
91109W        W34026  20.524  18.866  17.068  0.0529 -0.0571  0.0430
91110W        W34027  19.626  18.801  15.024  0.0241 -0.0797 -0.1631
91111W        W34028  16.731  21.626  17.037 -0.0274 -0.0323  0.3428
91112W        W34029  22.189  21.249  18.017  0.1386  0.1371  0.0947
91113W        W34030  20.653  21.086  18.826  0.0596 -0.1710  0.1234
91114W        W34031  19.668  17.126  15.622  0.1694  0.0493  0.1553
91115W        W34032  20.860  20.840  15.768  0.3016 -0.3747  0.1503
91116W        W34033  16.630  22.512  16.192 -0.2568 -0.2923 -0.0456
91117W        W34034  20.676  19.751  18.131 -0.2319 -0.0662  0.0393
91118W        W34035  21.316  19.125  15.902 -0.2125  0.0064  0.0492
91119W        W34036  17.458  17.686  15.060 -0.1193 -0.1730 -0.0263
91120W        W34037  20.752  19.608  14.922 -0.0980 -0.1554  0.2235
91121W        W34038  20.874  18.345  16.226  0.0603  0.5386  0.1735
91122W        W34039  18.111  19.303  15.134  0.2156 -0.0312  0.0423
91123W        W34040  21.298  18.602  16.352  0.2235  0.1747  0.0937
91124W        W34041  18.775  18.535  15.549 -0.4529  0.0641  0.0314
91125W        W34042  19.206  18.368  15.794  0.3357 -0.0228  0.1858
91126W        W34043  20.236  19.550  17.312  0.3574  0.1296  0.0590
91127W        W34044  20.083  19.524  16.663  0.0097 -0.0962  0.2175
91128W        W34045  20.953  21.459  19.020 -0.1014 -0.1212  0.0170
91129W        W34046  22.471  20.144  17.232  0.1457  0.0988 -0.0524
91130W        W34047  18.241  16.825  17.161 -0.4677  0.0603  0.0828
91131W        W34048  20.630  21.695  19.896 -0.1314 -0.2385 -0.0573
91132W        W34049  19.980  22.235  19.726 -0.4830  0.1465 -0.0129
91133W        W34050  21.133  18.672  15.882 -0.3937 -0.0030  0.3054
91134W        W34051  20.566  19.734  16.391 -0.1394 -0.0278 -0.1667
91135W        W34052  20.204  16.836  18.075 -0.1029 -0.3284 -0.1566
91136W        W34053  21.133  17.485  17.227 -0.1088  0.2666  0.2674
91137W        W34054  19.790  22.688  15.891 -0.1064 -0.0782  0.0096
91138W        W34055  19.017  21.147  17.652 -0.1661 -0.1078  0.0300
91139W        W34056  21.329  18.507  16.917  0.1259 -0.1121 -0.0153
91140W        W34057  19.190  22.372  17.654  0.0176 -0.3564  0.0149
91141W        W34058  20.209  21.283  15.809  0.1964  0.1094  0.3262
91142W        W34059  20.337  20.051  17.047 -0.3209  0.0354  0.0295
91143W        W34060  19.098  22.469  16.762  0.1751  0.0671 -0.0516
91144W        W34061  20.858  17.753  16.227 -0.1155  0.0162  0.2459
91145W        W34062  18.516  22.595  18.662 -0.1402 -0.1129  0.1117
91146W        W34063  19.461  18.685  14.484  0.1148 -0.1422 -0.2058
91147W        W34064  17.049  20.429  15.690 -0.0912 -0.1760  0.0833
91148W        W34065  22.117  18.474  15.554 -0.1637 -0.2633  0.0407
91149W        W34066  20.473  18.766  16.472 -0.0247 -0.1147  0.0767
91150W        W34067  16.469  20.233  17.562  0.0959  0.2854 -0.0818
91151W        W34068  18.177  16.900  15.479 -0.0669 -0.1419  0.3237
91152W        W34069  19.093  20.451  17.197  0.0975 -0.0382 -0.0792
91153W        W34070  22.039  18.206  16.146 -0.0125 -0.0376 -0.0069
91154W        W34071  19.638  20.008  16.340  0.0622 -0.3581  0.0436
91155W        W34072  22.551  21.957  16.971  0.3429  0.0172  0.0069
91156W        W34073  20.143  20.904  17.072 -0.4423  0.0446 -0.2538
91157W        W34074  18.403  19.593  15.630  0.0242 -0.2795  0.1596
91158W        W34075  22.366  20.161  17.727  0.0904 -0.0481 -0.1327
91159W        W34076  18.497  17.769  15.432  0.1880  0.1991 -0.3102
91160W        W34077  19.650  20.673  16.312 -0.2502 -0.0311  0.0436
91161W        W34078  20.043  19.829  17.914  0.5232  0.0725  0.0982
91162W        W34079  22.048  21.024  17.654 -0.0768 -0.3067  0.0973
91163W        W34080  20.119  20.422  16.257 -0.3912 -0.1640  0.0667
91164W        W34081  20.834  20.292  18.041 -0.3781 -0.1096  0.1905
91165W        W34082  21.108  23.967  19.627  0.2394  0.0910 -0.1786
91166W        W34083  19.707  18.261  15.803  0.1192  0.2989 -0.0474
91167W        W34084  18.938  18.143  15.282 -0.2510 -0.2221 -0.2813
91168W        W34085  19.634  17.864  17.451  0.1171 -0.0478  0.3197
91169W        W34086  22.024  19.748  17.421  0.1265  0.0661  0.0258
91170W        W34087  18.519  17.186  15.738 -0.3494 -0.0626 -0.0397
91171W        W34088  18.870  18.968  17.875  0.0946 -0.2305  0.3106
91172W        W34089  18.871  20.119  15.071  0.1597  0.0798  0.0419
91173W        W34090  22.110  22.886  17.456 -0.2032 -0.0313 -0.1125
91174W        W34091  19.821  20.775  17.696 -0.4577  0.1892  0.0379
91175W        W34092  18.654  20.035  15.478  0.0514  0.2650 -0.0035
91176W        W34093  19.712  19.087  15.447  0.0518 -0.0520 -0.1637
91177W        W34094  20.876  18.923  16.228  0.0938  0.1818  0.1126
91178W        W34095  19.878  19.358  17.691  0.1663 -0.1925  0.0007
91179W        W34096  19.953  21.476  15.307 -0.0394 -0.0505  0.1072
91180W        W34097  19.068  20.261  15.924 -0.3225  0.4923 -0.0011
91181W        W34098  18.850  20.716  16.882  0.1176  0.1043 -0.2282
91182W        W34099  20.907  17.437  15.597  0.0913  0.2934 -0.0445
91183W        W34100  19.892  21.689  15.775 -0.0903 -0.0569 -0.0067
91184W        W34101  21.097  18.825  17.212 -0.1558 -0.0970  0.0251
91185W        W34102  23.198  16.458  17.309 -0.0395 -0.1843  0.5013
91186W        W34103  20.995  20.713  14.268  0.2760 -0.1710  0.0587
91187W        W34104  22.720  19.930  19.840  0.0611  0.1711  0.2284
91188W        W34105  20.462  21.573  17.624 -0.1234  0.0470 -0.0391
91189W        W34106  22.603  21.557  18.378  0.1643 -0.3994  0.3435
91190W        W34107  19.553  18.056  16.970  0.0756  0.2970 -0.1376
91191W        W34108  20.987  23.285  18.952 -0.2511 -0.2334  0.0129
91192W        W34109  19.342  20.852  17.282 -0.0221  0.3322  0.1340
91193W        W34110  20.519  17.612  15.874 -0.1441  0.3299 -0.1445
91194W        W34111  20.497  17.954  15.302  0.2415  0.2120  0.0056
91195W        W34112  19.789  20.524  17.232 -0.2528  0.0516  0.2053
91196W        W34113  23.378  20.268  17.160  0.2587 -0.2409  0.2284
91197W        W34114  19.714  20.162  15.375 -0.0901 -0.0710  0.0084
91198W        W34115  23.812  19.031  18.448 -0.0087 -0.0371 -0.0006
91199W        W34116  19.395  22.305  18.948  0.0537  0.3672 -0.2515
91200W        W34117  20.684  19.601  15.379  0.0066  0.1531 -0.1770
91201W        W34118  21.658  20.391  15.544 -0.1503  0.1832 -0.0598
91202W        W34119  18.730  21.966  15.121 -0.3667  0.0426  0.1155
91203W        W34120  21.408  19.179  18.455  0.2008  0.3061  0.0884
91204W        W34121  21.991  19.108  16.432  0.2804  0.1812  0.3212
91205W        W34122  21.562  20.811  18.002 -0.1759 -0.0164 -0.0216
91206W        W34123  19.645  17.706  15.547  0.0487  0.1699 -0.1075
91207W        W34124  22.750  20.586  16.983  0.2658  0.1058  0.0510
91208W        W34125  19.635  19.615  18.116 -0.2771  0.1970 -0.1453
91209W        W34126  19.264  19.069  16.457 -0.1940  0.1031 -0.1223
91210W        W34127  21.111  21.043  19.200  0.1367  0.0700 -0.1539
91211W        W34128  21.781  18.070  15.719  0.3044 -0.2810 -0.1672
91212W        W34129  23.883  18.780  18.992 -0.1959 -0.1359  0.1780
91213W        W34130  22.910  20.071  16.969  0.0006  0.1982 -0.2206
91214W        W34131  20.803  20.282  17.145 -0.0515 -0.2340  0.1993
91215W        W34132  20.234  17.600  17.266  0.3050  0.1189 -0.0567
91216W        W34133  22.367  18.272  19.095  0.2186 -0.1024 -0.0012
91217W        W34134  18.736  18.966  14.341 -0.0294  0.1660 -0.1564
91218W        W34135  21.805  19.261  17.298  0.1874 -0.3415 -0.0922
91219W        W34136  19.511  20.043  17.842 -0.2024 -0.4292  0.0906
91220W        W34137  20.562  20.458  15.891 -0.4640 -0.1267 -0.1471
91221W        W34138  22.085  18.090  16.671  0.0555  0.0471  0.0711
91222W        W34139  19.073  18.924  14.672 -0.0042  0.1735  0.0328
91223W        W34140  19.819  23.155  17.857 -0.1710 -0.1245  0.0889
91224W        W34141  17.723  18.281  13.821  0.5640 -0.0583  0.0517
91225W        W34142  18.224  21.120  15.493  0.1047  0.1291  0.0631
91226W        W34143  21.740  21.279  18.206 -0.0021 -0.1395 -0.2246
91227W        W34144  21.680  19.760  17.029 -0.0076 -0.0491  0.2035
91228W        W34145  18.672  19.427  17.207  0.2482 -0.1864 -0.3348
91229W        W34146  20.673  20.666  18.408 -0.0828 -0.0079 -0.2214
91230W        W34147  18.378  22.368  17.477 -0.1883 -0.1953 -0.0625
91231W        W34148  19.345  19.257  15.056  0.1592  0.1147 -0.0982
91232W        W34149  19.733  22.662  18.032  0.3868 -0.2552  0.0424
91233W        W34150  17.359  21.835  17.914  0.3540  0.3495 -0.3469
91234W        W34151  20.892  22.170  16.473  0.0473  0.2923 -0.1083
91235W        W34152  19.776  17.434  15.150  0.1130 -0.0827  0.0576
91236W        W34153  22.326  20.402  18.446  0.0545  0.2317 -0.0506
91237W        W34154  21.612  20.068  16.060  0.0732 -0.1733  0.4627
91238W        W34155  22.311  19.183  17.416  0.0486  0.0186  0.3514
91239W        W34156  19.886  22.117  18.234  0.2762 -0.1758 -0.1665
91240W        W34157  18.024  19.495  16.137  0.1222 -0.0208 -0.2603
91241W        W34158  21.139  22.401  19.348  0.0526 -0.1294 -0.1305
91242W        W34159  20.954  20.643  16.212  0.0214  0.1502  0.0914
91243W        W34160  21.627  22.679  18.435 -0.0190 -0.1681  0.2519
91244W        W34161  18.259  19.992  16.581 -0.2785 -0.0502  0.0228
91245W        W34162  21.381  23.395  19.667 -0.0457  0.0284  0.0629
91246W        W34163  20.431  19.254  16.458  0.5557  0.0004 -0.3313
91247W        W34164  18.804  17.901  14.220  0.4685 -0.5381 -0.3394
91248W        W34165  18.044  20.629  14.799  0.1520  0.3831  0.2433
91249W        W34166  18.771  21.792  18.214 -0.1254 -0.0001  0.0947
91250W        W34167  18.582  20.756  17.878 -0.1368  0.0037 -0.2492
91251W        W34168  19.683  21.905  16.355 -0.1075 -0.1078  0.4225
91252W        W34169  22.592  19.061  16.617 -0.1225 -0.1078 -0.0397
91253W        W34170  19.183  21.825  15.188  0.0087  0.0727 -0.0826
91254W        W34171  21.443  23.044  18.128 -0.1606 -0.1620  0.1078
91255W        W34172  19.786  20.109  14.765 -0.1440 -0.3707 -0.0096
91256W        W34173  19.227  21.919  16.560  0.0270  0.0416 -0.1519
91257W        W34174  18.068  21.520  15.795 -0.3445 -0.0361  0.1088
91258W        W34175  20.459  22.782  17.554 -0.2739  0.0702 -0.0229
91259W        W34176  18.069  20.161  18.629  0.1239  0.1311  0.1248
91260W        W34177  22.235  24.001  19.465 -0.1334  0.1631 -0.2405
91261W        W34178  21.363  17.742  15.650  0.2786 -0.0402  0.2971
91262W        W34179  23.734  20.056  17.502 -0.1020 -0.1557 -0.0792
91263W        W34180  20.889  17.038  15.936 -0.2726  0.3965  0.0171
91264W        W34181  22.214  22.483  19.795  0.3013 -0.1260 -0.0074
91265W        W34182  20.838  18.544  16.711  0.2000 -0.3088 -0.1273
91266W        W34183  20.881  18.063  15.806  0.1995 -0.2189 -0.0810
91267W        W34184  20.018  21.990  20.565 -0.1594  0.2231  0.2932
91268W        W34185  23.615  17.697  18.915 -0.3395  0.1572  0.1424
91269W        W34186  15.950  20.375  17.531 -0.4238 -0.2041 -0.1492
91270W        W34187  20.093  20.359  15.732 -0.4309 -0.0079  0.1633
91271W        W34188  17.570  19.361  15.974 -0.0221  0.0055 -0.1112
91272W        W34189  19.569  18.780  15.837  0.0588 -0.3139  0.0484
91273W        W34190  24.082  17.878  17.304 -0.0057  0.1528 -0.0118
91274W        W34191  20.338  21.721  15.513  0.1318 -0.2113 -0.1007
91275W        W34192  21.285  19.881  19.522 -0.1629  0.2709  0.2279
91276W        W34193  17.812  22.828  16.146 -0.1327 -0.4223 -0.1192
91277W        W34194  18.713  23.689  16.579 -0.0987 -0.3460  0.0923
91278W        W34195  19.051  21.817  15.654 -0.1612  0.2910  0.0294
91279W        W34196  19.268  19.197  15.597  0.0457  0.1028  0.0116
91280W        W34197  20.830  17.705  17.571  0.0037 -0.1170 -0.1343
91281W        W34198  20.257  21.227  18.530 -0.3112 -0.1825 -0.0649
91282W        W34199  21.399  17.250  15.763 -0.2144  0.1273  0.0957
91283W        W34200  19.565  19.534  16.338  0.1736 -0.3189  0.2312
91284W        W34201  20.949  19.917  16.681 -0.2394 -0.2614  0.3739
91285W        W34202  19.504  20.022  18.343  0.1041  0.1109  0.1863
91286W        W34203  20.059  20.967  16.463  0.0057 -0.0895 -0.1816
91287W        W34204  18.893  19.302  14.856 -0.0709  0.3286 -0.4855
91288W        W34205  21.069  20.038  19.042  0.2193 -0.1341 -0.3924
91289W        W34206  20.879  20.435  15.493  0.1749 -0.1554  0.0164
91290W        W34207  21.466  22.063  19.351  0.0362 -0.0761 -0.1303
91291W        W34208  17.781  20.001  16.820  0.2716 -0.1477 -0.0599
91292W        W34209  19.082  20.967  15.301 -0.3433  0.0893 -0.1148
91293W        W34210  18.077  16.803  16.413  0.0808 -0.1769  0.3174
91294W        W34211  20.379  21.026  17.513  0.1099 -0.2050  0.1739
91295W        W34212  21.431  22.581  20.922 -0.0058  0.2630  0.0593
91296W        W34213  20.094  18.569  15.899  0.0208  0.3037 -0.0142
91297W        W34214  20.451  20.940  16.106 -0.1141 -0.2085  0.0484
91298W        W34215  23.449  22.091  19.334  0.0671  0.4422 -0.0074
91299W        W34216  20.705  25.321  17.119 -0.2225  0.0609  0.1170
91300W        W34217  21.196  21.383  17.136 -0.0014  0.1382 -0.0428
91301W        W34218  20.673  22.486  15.987  0.0827  0.2549  0.1031
91302W        W34219  19.056  19.163  17.487 -0.2888 -0.2832 -0.1417
91303W        W34220  19.328  23.189  18.376 -0.0173  0.0896 -0.0771
91304W        W34221  20.649  20.845  17.101  0.2656 -0.0988 -0.2445
91305W        W34222  19.145  15.545  15.775  0.0319 -0.0101  0.2143
91306W        W34223  17.611  19.230  15.206 -0.0096 -0.1169  0.1430
91307W        W34224  19.425  22.458  17.247  0.0603  0.0348  0.2780
91308W        W34225  24.038  19.981  17.973 -0.0304  0.2247 -0.1232
91309W        W34226  20.372  20.491  17.366 -0.1449  0.0990  0.0025
91310W        W34227  18.430  20.250  14.875 -0.0274 -0.1869  0.3778
91311W        W34228  21.145  18.098  17.814 -0.1312 -0.5236  0.2681
91312W        W34229  20.274  22.512  19.340 -0.2962 -0.0102  0.0005
91313W        W34230  19.474  22.120  19.426  0.0209 -0.0361  0.1023
91314W        W34231  19.202  20.115  15.420 -0.0653 -0.0546  0.0738
91315W        W34232  20.141  20.760  18.362  0.0033  0.2045 -0.1679
91316W        W34233  17.129  21.434  15.525 -0.0716 -0.0497 -0.1487
91317W        W34234  21.957  20.875  19.162  0.2515 -0.0240  0.2459
91318W        W34235  23.755  20.442  17.933 -0.1102 -0.2339  0.0557
91319W        W34236  21.890  18.536  17.067 -0.0189 -0.0113  0.0394
91320W        W34237  22.823  21.166  18.577 -0.0547  0.0216 -0.1598
91321W        W34238  18.288  18.966  16.020  0.0099 -0.1886  0.1754
91322W        W34239  20.417  18.445  15.455  0.3177  0.2243 -0.1520
91323W        W34240  20.004  19.238  14.426  0.0244 -0.2145  0.1525
91324W        W34241  19.396  20.097  17.285  0.3036  0.0737 -0.0044
91325W        W34242  18.705  18.517  14.206  0.1388  0.0694  0.3622
91326W        W34243  19.885  21.446  16.259  0.3209  0.2920  0.0371
91327W        W34244  20.711  21.611  18.637 -0.0142  0.1377 -0.2225
91328W        W34245  21.285  17.982  17.105 -0.0468  0.0787  0.3223
91329W        W34246  19.429  19.882  15.830  0.0677  0.1941  0.3698
91330W        W34247  19.144  19.689  17.271  0.3068  0.1856  0.0261
91331W        W34248  18.768  19.266  15.769  0.0090 -0.0492 -0.0686
91332W        W34249  21.340  20.478  15.916 -0.1100 -0.0206  0.2029
91333W        W34250  16.419  18.350  16.832 -0.2076 -0.2119 -0.1520
91334W        W34251  16.711  17.566  15.656 -0.2590  0.0356 -0.0437
91335W        W34252  20.162  21.330  16.779 -0.0248  0.1670 -0.0955
91336W        W34253  23.578  21.697  17.624  0.0066 -0.2367 -0.0173
91337W        W34254  17.906  18.648  14.559  0.1733  0.0538  0.0510
91338W        W34255  23.182  24.123  19.951  0.2315 -0.1391 -0.1171
91339W        W34256  17.923  20.818  15.266 -0.0184  0.7062 -0.3388
91340W        W34257  20.832  21.240  17.408  0.1170 -0.0345 -0.1987
91341W        W34258  20.630  17.333  17.169 -0.3109  0.3966  0.2729
91342W        W34259  18.118  19.617  14.656  0.1526 -0.2251 -0.0704
91343W        W34260  18.056  20.015  17.522  0.2041  0.1594 -0.0106
91344W        W34261  20.677  19.825  17.287 -0.1058 -0.1690  0.2480
91345W        W34262  19.477  21.103  16.171  0.0070 -0.0141  0.1235
91346W        W34263  18.822  20.084  17.299 -0.1366  0.0498 -0.0385
91347W        W34264  21.571  22.467  19.607  0.1971 -0.2013 -0.0935
91348W        W34265  17.383  18.657  15.872 -0.5452  0.0514 -0.0667
91349W        W34266  21.339  21.488  16.365  0.2051 -0.3750  0.2541
91350W        W34267  17.991  24.353  19.042 -0.1654 -0.0633 -0.0641
91351W        W34268  22.407  22.364  17.247  0.0162  0.0001  0.1436
91352W        W34269  21.361  18.407  18.257  0.2036 -0.0063 -0.0465
91353W        W34270  19.923  19.923  15.777  0.2770  0.0137  0.0440
91354W        W34271  15.889  18.105  15.447 -0.0406  0.0096  0.4199
91355W        W34272  18.264  20.862  18.361 -0.1273  0.0881  0.2051
91356W        W34273  20.712  21.365  16.875  0.2954 -0.1176 -0.1308
91357W        W34274  19.936  20.308  17.670 -0.1705 -0.1720  0.2490
91358W        W34275  19.649  16.064  16.476 -0.1659  0.0395 -0.1430
91359W        W34276  20.651  21.351  15.628 -0.2755 -0.2555 -0.0339
91360W        W34277  20.052  19.635  16.154 -0.0261  0.1568  0.0668
91361W        W34278  16.918  18.775  14.714  0.0381  0.0753 -0.1655
91362W        W34279  20.477  20.054  17.693 -0.2008  0.1565  0.0490
91363W        W34280  20.764  21.763  17.222 -0.0202  0.1812  0.0948
91364W        W34281  21.139  20.463  18.405  0.2317 -0.0151  0.1763
91365W        W34282  20.650  18.711  17.642  0.0685  0.1093  0.1157
91366W        W34283  19.719  20.614  14.721  0.1171  0.0175  0.0634
91367W        W34284  21.761  21.708  19.538  0.0397  0.1064  0.1752
91368W        W34285  23.132  22.215  20.404  0.1718 -0.3670 -0.2228
91369W        W34286  19.970  19.111  16.117 -0.0652 -0.0310 -0.2837
91370W        W34287  21.138  19.416  18.025  0.1006  0.0836 -0.0231
91371W        W34288  17.915  18.138  17.287 -0.1438  0.1991 -0.3653
91372W        W34289  17.183  18.858  16.337  0.1740  0.0665  0.1560
91373W        W34290  21.560  20.710  16.887 -0.0086 -0.2128 -0.2892
91374W        W34291  22.471  20.883  19.415 -0.2381  0.3160 -0.1210
91375W        W34292  16.593  18.894  15.113 -0.1392 -0.2129 -0.2225
91376W        W34293  20.830  17.879  18.133 -0.2117  0.2083 -0.0894
91377W        W34294  19.462  21.759  18.292 -0.1065  0.1203 -0.0146
91378W        W34295  20.739  22.592  19.793  0.1785  0.0809  0.1091
91379W        W34296  18.900  23.191  20.100 -0.2776 -0.1635 -0.0409
91380W        W34297  20.589  21.464  19.305  0.2657  0.1342  0.0998
91381W        W34298  22.354  19.108  18.969  0.2546  0.3167  0.2564
91382W        W34299  24.114  17.861  21.138 -0.0100 -0.0399 -0.0917
91383W        W34300  18.497  19.016  17.443  0.1053  0.0366 -0.0166
91384W        W34301  21.062  23.693  22.083 -0.2093  0.1332 -0.5013
91385W        W34302  20.761  22.359  20.270 -0.1325 -0.1145  0.1482
91386W        W34303  22.093  19.585  22.252  0.2447  0.0277 -0.0866
91387W        W34304  19.658  19.560  17.172  0.1094  0.0330 -0.1783
91388W        W34305  20.432  19.894  18.593  0.0898  0.0347 -0.1695
91389W        W34306  20.840  22.295  21.730  0.0003  0.2135 -0.0104
91390W        W34307  20.667  18.238  17.789  0.2431 -0.0245 -0.1210
91391W        W34308  18.528  18.073  17.872  0.2991 -0.0652  0.1633
91392W        W34309  22.057  21.000  21.017 -0.0715 -0.3374  0.0386
91393W        W34310  20.882  22.711  20.635 -0.4688  0.2201  0.2502
91394W        W34311  19.837  22.403  20.185 -0.2624  0.1262 -0.1315
91395W        W34312  18.149  19.644  17.950  0.2949  0.0196 -0.0846
91396W        W34313  19.098  22.296  21.031  0.0447 -0.0902 -0.1099
91397W        W34314  19.991  18.893  18.091  0.1227 -0.3058  0.1990
91398W        W34315  21.184  19.450  21.491  0.1733  0.2296 -0.0873
91399W        W34316  21.756  22.752  20.006 -0.1480 -0.0857  0.2573
91400W        W34317  18.703  18.388  17.092  0.2848 -0.2520 -0.2202
91401W        W34318  19.707  18.587  17.182  0.4128 -0.4138 -0.1711
91402W        W34319  17.513  21.403  20.181  0.0759  0.0016 -0.0842
91403W        W34320  20.339  18.712  19.304 -0.0613  0.4070  0.1316
91404W        W34321  21.748  21.619  21.287  0.0280  0.2573  0.0267
91405W        W34322  20.240  22.791  20.852 -0.2693 -0.1885 -0.1340
91406W        W34323  20.582  20.960  19.319 -0.0949  0.0472  0.0997
91407W        W34324  22.066  21.308  21.535 -0.0433  0.0719 -0.1763
91408W        W34325  19.639  21.562  20.546 -0.0266 -0.2668 -0.1999
91409W        W34326  18.317  22.523  20.160 -0.1047  0.2832 -0.0690
91410W        W34327  20.269  21.943  20.991  0.0574  0.1481 -0.2087
91411W        W34328  21.930  23.311  20.112 -0.0172  0.3212 -0.2453
91412W        W34329  19.989  22.526  24.177 -0.0852  0.1744 -0.0977
91413W        W34330  18.262  24.058  22.742  0.1322 -0.0688 -0.1285
91414W        W34331  20.251  20.349  18.634 -0.0069  0.3245  0.0811
91415W        W34332  20.048  20.925  22.564 -0.3009  0.2489 -0.3634
91416W        W34333  19.803  22.673  20.659 -0.1791 -0.3095  0.2676
91417W        W34334  22.208  21.364  22.297 -0.1826 -0.0848  0.1839
91418W        W34335  21.475  20.060  18.377  0.0525 -0.0354 -0.1005
91419W        W34336  20.672  21.625  23.067  0.3706 -0.3199 -0.0010
91420W        W34337  20.936  20.632  19.655 -0.1754  0.2737  0.1202
91421W        W34338  20.448  20.845  19.850 -0.1313  0.0029 -0.0531
91422W        W34339  17.593  22.671  20.234  0.1198  0.0637  0.3601
91423W        W34340  20.590  20.345  19.906  0.1313  0.1771  0.1117
91424W        W34341  17.719  19.465  17.626 -0.1907 -0.0372 -0.0665
91425W        W34342  23.004  18.406  18.762 -0.2777 -0.1224 -0.0427
91426W        W34343  20.029  18.156  17.238 -0.4242 -0.0155  0.0699
91427W        W34344  22.758  20.394  17.908 -0.1580 -0.0906  0.2483
91428W        W34345  20.289  19.485  18.268 -0.1662  0.0378  0.3768
91429W        W34346  19.162  22.629  20.444 -0.2253 -0.1185 -0.1641
91430W        W34347  20.207  20.047  19.482 -0.2204 -0.2058  0.1227
91431W        W34348  21.278  24.149  22.038 -0.2107  0.2931  0.1431
91432W        W34349  21.846  18.594  22.134 -0.3612 -0.0330  0.2525
91433W        W34350  21.347  18.311  22.079 -0.3036 -0.1051  0.1844
91434W        W34351  19.253  20.842  18.788 -0.0276 -0.1225  0.5405
91435W        W34352  19.226  21.408  19.214  0.1913 -0.1005 -0.1287
91436W        W34353  22.247  22.034  17.702 -0.0708  0.0806 -0.0568
91437W        W34354  22.319  21.202  19.013 -0.1950  0.2381 -0.1942
91438W        W34355  22.653  21.741  19.962 -0.1150  0.3135 -0.0479
91439W        W34356  18.289  22.554  19.645  0.1906 -0.1714 -0.3642
91440W        W34357  17.598  22.220  20.910 -0.3098 -0.1423 -0.1015
91441W        W34358  19.347  21.110  20.328  0.1597  0.0071  0.0791
91442W        W34359  21.202  18.560  17.723  0.1437  0.2497  0.3830
91443W        W34360  22.377  19.165  22.604  0.0475  0.0570 -0.3031
91444W        W34361  19.737  21.830  20.952  0.0459  0.3030  0.0167
91445W        W34362  21.554  19.615  20.446 -0.1541 -0.2189 -0.4246
91446W        W34363  21.469  21.111  20.337 -0.3716 -0.0246  0.2589
91447W        W34364  21.127  20.778  20.620  0.0530 -0.1878 -0.0213
91448W        W34365  21.492  21.696  18.006  0.0387  0.0334  0.0123
91449W        W34366  23.665  20.153  20.988 -0.0863 -0.1334 -0.0796
91450W        W34367  22.105  19.615  20.519 -0.1233  0.0216  0.1168
91451W        W34368  20.681  22.148  19.414  0.0261  0.0245  0.0550
91452W        W34369  20.238  21.229  19.029 -0.2554 -0.1465  0.3972
91453W        W34370  21.437  22.764  20.443 -0.0868  0.1741  0.1243
91454W        W34371  22.694  19.117  19.324 -0.1557  0.0301 -0.1709
91455W        W34372  18.470  22.474  21.482  0.0663  0.1837 -0.0451
91456W        W34373  20.580  19.283  19.936 -0.1637  0.3959 -0.2598
91457W        W34374  18.423  23.314  23.462 -0.0716  0.1293  0.4473
91458W        W34375  21.147  21.890  18.435  0.0135  0.0227  0.0378
91459W        W34376  18.339  21.988  20.390 -0.1417 -0.0736 -0.1735
91460W        W34377  18.120  22.214  18.839  0.0325 -0.2563  0.0110
91461W        W34378  21.359  21.353  18.733 -0.2717  0.2817 -0.0832
91462W        W34379  23.096  20.566  21.537  0.1511 -0.1141 -0.0312
91463W        W34380  19.509  19.024  17.955  0.1339 -0.1738 -0.3110
91464W        W34381  22.069  17.570  21.204  0.3305 -0.1809  0.2768
91465W        W34382  19.805  23.769  18.705  0.3003 -0.2478  0.1811
91466W        W34383  19.777  23.246  20.680 -0.4991  0.3471  0.1358
91467W        W34384  22.242  20.626  17.949  0.1138  0.1807  0.0088
91468W        W34385  21.712  21.400  20.021 -0.0310  0.0192 -0.0684
91469W        W34386  18.592  21.971  18.676  0.1536 -0.0215 -0.1259
91470W        W34387  19.573  19.097  18.876  0.2766  0.0956  0.1818
91471W        W34388  19.244  19.815  18.844  0.0548  0.2682 -0.3111
91472W        W34389  18.757  21.130  18.335 -0.0134  0.0842  0.3597
91473W        W34390  21.926  19.281  21.355  0.2211 -0.3200 -0.0778
91474W        W34391  18.284  16.294  16.417 -0.0591  0.0474 -0.2310
91475W        W34392  19.895  20.350  18.165  0.2849  0.0818 -0.0099
91476W        W34393  20.293  21.771  19.498 -0.0755 -0.1131  0.1059
91477W        W34394  22.276  21.633  19.203 -0.0689  0.1112 -0.2599
91478W        W34395  22.446  18.458  22.035 -0.0715  0.0875  0.1161
91479W        W34396  19.194  24.522  20.091  0.0613 -0.2017  0.1128
91480W        W34397  20.815  21.234  24.089 -0.1015 -0.3508 -0.3017
91481W        W34398  22.433  21.440  21.864 -0.1652 -0.0146  0.3739
91482W        W34399  19.707  19.577  18.873 -0.0713 -0.3092 -0.0378
91483W        W34400  18.377  18.277  15.496  0.1291 -0.0719 -0.0510
91484W        W34401  17.481  23.562  21.322 -0.0771 -0.0677  0.1302
91485W        W34402  22.216  20.495  20.268 -0.2309  0.0842 -0.0829
91486W        W34403  18.060  20.450  19.057 -0.0479 -0.0729  0.1486
91487W        W34404  21.070  24.002  20.918  0.0779 -0.0580 -0.0697
91488W        W34405  21.877  22.270  18.688 -0.0887 -0.1495 -0.1757
91489W        W34406  19.128  21.834  20.761  0.0150  0.0962  0.2151
91490W        W34407  21.320  19.178  20.527  0.1152  0.0560  0.1243
91491W        W34408  21.348  21.349  21.572  0.0203 -0.0248  0.1505
91492W        W34409  21.046  19.553  20.109 -0.2582 -0.0542 -0.0385
91493W        W34410  19.168  19.284  16.995 -0.0982 -0.0768 -0.2107
91494W        W34411  21.230  21.616  21.129 -0.1997 -0.1036 -0.3916
91495W        W34412  17.629  20.184  18.379 -0.1266 -0.3445 -0.0437
91496W        W34413  19.283  20.201  16.643 -0.0856  0.4304  0.0442
91497W        W34414  20.220  23.306  20.955 -0.1785  0.0855  0.0826
91498W        W34415  21.344  20.671  22.557  0.2441  0.1449 -0.0671
91499W        W34416  18.766  21.219  19.516 -0.0972 -0.0594 -0.1689
91500W        W34417  21.196  20.814  21.612 -0.1722 -0.2490  0.0244
91501W        W34418  20.959  23.081  19.877 -0.1430  0.4720  0.0662
91502W        W34419  18.671  21.294  20.986 -0.2147 -0.0984  0.4596
91503W        W34420  20.564  16.274  18.660  0.0138  0.2234  0.1283
91504W        W34421  22.979  18.767  19.560 -0.1576 -0.0488 -0.0953
91505W        W34422  20.787  20.951  20.231 -0.0066 -0.2657 -0.3516
91506W        W34423  23.110  23.339  19.988  0.1578  0.1376  0.2219
91507W        W34424  22.868  18.448  18.033  0.0595 -0.0009  0.4288
91508W        W34425  20.821  20.708  17.610 -0.1808 -0.2223  0.0650
91509W        W34426  19.124  21.132  21.151  0.1306 -0.1934 -0.0673
91510W        W34427  19.428  23.063  20.238  0.2524  0.0489 -0.1661
91511W        W34428  21.086  21.388  20.165 -0.1599 -0.0060 -0.0888
91512W        W34429  21.039  19.568  17.586  0.0033 -0.4081  0.0907
91513W        W34430  23.340  20.530  21.036  0.1330 -0.3539  0.0280
91514W        W34431  16.144  23.845  18.894 -0.0832  0.0779  0.2404
91515W        W34432  22.626  20.134  21.198  0.3414 -0.1377  0.0963
91516W        W34433  21.971  20.608  18.775  0.0272 -0.0247  0.0213
91517W        W34434  21.472  20.690  18.958 -0.2881 -0.0104  0.1233
91518W        W34435  21.962  20.209  18.179  0.1780  0.1949 -0.1548
91519W        W34436  19.961  17.854  18.206 -0.2670 -0.1161  0.2392
91520W        W34437  18.352  21.327  18.720  0.2056  0.1765  0.1485
91521W        W34438  22.018  20.113  23.028 -0.0767  0.2640 -0.1310
91522W        W34439  21.303  18.479  19.626  0.0852 -0.1980 -0.2668
91523W        W34440  19.302  19.038  19.261 -0.1335  0.0616 -0.1753
91524W        W34441  24.274  19.002  21.874  0.0603 -0.0742  0.0130
91525W        W34442  20.565  21.045  18.061 -0.1881  0.0189  0.3508
91526W        W34443  23.356  21.092  19.903  0.0803 -0.2264 -0.1982
91527W        W34444  18.878  20.652  18.452 -0.2101  0.2073 -0.1324
91528W        W34445  20.837  18.785  19.236  0.0668 -0.1590 -0.1219
91529W        W34446  19.570  20.726  19.707 -0.0834  0.2060 -0.0800
91530W        W34447  17.874  22.363  21.644  0.0798  0.0386  0.3250
91531W        W34448  22.903  21.408  21.259 -0.1720 -0.0558 -0.0489
91532W        W34449  22.211  19.390  20.960 -0.1067 -0.1445 -0.0196
91533W        W34450  20.748  20.733  21.338  0.0870 -0.3132 -0.0764
91534W        W34451  19.069  18.745  17.181  0.3433  0.0991 -0.1360
91535W        W34452  20.181  23.553  21.860 -0.2034  0.0419  0.2761
91536W        W34453  20.070  22.163  21.449  0.0544  0.0018 -0.0736
91537W        W34454  17.167  18.890  17.395 -0.1372 -0.0907 -0.0214
91538W        W34455  19.784  20.603  21.016  0.1204  0.1484  0.1406
91539W        W34456  20.956  22.543  21.170 -0.0680 -0.0572  0.5298
91540W        W34457  21.634  21.075  21.328 -0.1685  0.2241 -0.2048
91541W        W34458  18.363  21.030  20.730 -0.0051 -0.0931 -0.0403
91542W        W34459  21.769  19.423  19.550  0.2538  0.0375 -0.2153
91543W        W34460  19.046  24.619  21.557 -0.0662 -0.2931  0.2265
91544W        W34461  22.616  19.473  19.716  0.0352 -0.0359 -0.3633
91545W        W34462  16.370  21.853  19.142  0.0392  0.2178 -0.0327
91546W        W34463  21.191  20.884  19.931  0.3518 -0.0201  0.1568
91547W        W34464  23.073  20.851  17.986  0.3306  0.1795 -0.1815
91548W        W34465  21.648  20.501  20.356  0.0248  0.1224 -0.1302
91549W        W34466  22.405  20.848  19.945  0.0330  0.0035  0.1462
91550W        W34467  20.089  19.226  19.159 -0.0503 -0.0414 -0.0388
91551W        W34468  21.363  22.937  21.571 -0.4147 -0.1045  0.0436
91552W        W34469  22.122  17.080  18.174 -0.1591 -0.4997 -0.0095
91553W        W34470  21.467  21.517  22.035  0.1174  0.2279 -0.3748
91554W        W34471  20.748  21.229  19.703 -0.0539  0.0047  0.1963
91555W        W34472  20.561  19.436  17.704  0.0137 -0.3068  0.0050
91556W        W34473  23.871  20.637  21.039 -0.0980 -0.1846 -0.1521
91557W        W34474  19.466  19.789  19.772  0.0871  0.0877 -0.0116
91558W        W34475  18.374  21.043  20.205 -0.0160  0.3144  0.1662
91559W        W34476  18.602  24.129  22.328 -0.2164  0.1398 -0.2023
91560W        W34477  17.055  21.013  18.973  0.0635  0.1050 -0.0847
91561W        W34478  18.741  22.686  19.595 -0.1882  0.0127 -0.0425
91562W        W34479  18.522  20.225  19.131  0.0430 -0.0991 -0.0318
91563W        W34480  23.208  20.989  21.243 -0.1135  0.1102 -0.2073
91564W        W34481  18.679  19.012  16.848  0.2259  0.0313 -0.2526
91565W        W34482  16.803  19.254  17.349  0.0427  0.0179  0.0908
91566W        W34483  19.131  19.371  18.021  0.4250  0.3100  0.2119
91567W        W34484  22.844  20.568  21.027 -0.4463  0.0359 -0.0739
91568W        W34485  21.431  19.261  19.958 -0.0982 -0.1541  0.2992
91569W        W34486  17.363  21.962  22.928 -0.2049 -0.2545  0.2503
91570W        W34487  21.951  19.201  18.473 -0.0009  0.3965 -0.1899
91571W        W34488  21.538  23.940  20.499 -0.2013  0.1958 -0.2319
91572W        W34489  21.415  21.692  20.507  0.1715 -0.4119 -0.0469
91573W        W34490  18.919  20.490  17.653 -0.0829 -0.0932 -0.3081
91574W        W34491  17.579  21.830  19.959  0.0391  0.1403  0.2988
91575W        W34492  19.189  20.930  19.349  0.2474 -0.0161 -0.0719
91576W        W34493  20.194  18.475  17.807  0.1460  0.1899 -0.1638
91577W        W34494  17.682  20.181  18.943  0.1076  0.6147  0.2162
91578W        W34495  19.922  22.345  18.824 -0.0994  0.0068 -0.0677
91579W        W34496  17.494  24.459  21.428  0.0129  0.1064  0.0224
91580W        W34497  20.779  19.571  18.937  0.0990  0.1362 -0.2124
91581W        W34498  20.258  20.377  22.548  0.1373 -0.1039  0.0991
91582W        W34499  19.869  19.726  19.310  0.2975  0.0971 -0.0791
91583W        W34500  20.291  19.012  18.472  0.2087  0.1753  0.1565
91584W        W34501  23.075  19.784  18.818 -0.2000  0.1652  0.0454
91585W        W34502  21.138  18.930  21.473 -0.2208  0.1530  0.0486
91586W        W34503  20.085  18.260  19.101  0.1571  0.0265 -0.1986
91587W        W34504  22.660  21.463  19.489 -0.0522 -0.7750  0.1007
91588W        W34505  19.718  23.418  25.156 -0.0246  0.0389 -0.0716
91589W        W34506  19.059  20.368  19.605 -0.0383 -0.0586 -0.1925
91590W        W34507  22.747  20.259  19.400 -0.0926  0.2467 -0.2778
91591W        W34508  18.190  17.576  16.082  0.2736 -0.0791 -0.0729
91592W        W34509  21.478  20.781  19.503 -0.0270  0.1968  0.0030
91593W        W34510  22.687  19.174  20.817  0.0517  0.1167 -0.0751
91594W        W34511  20.990  21.794  19.470 -0.1598 -0.0159  0.3438
91595W        W34512  21.900  20.961  20.475 -0.0294  0.0883 -0.0996
91596W        W34513  17.900  21.288  18.470 -0.1046  0.0954 -0.0033
91597W        W34514  22.532  21.295  20.895  0.0170  0.1195  0.2154
91598W        W34515  22.004  20.905  18.313 -0.0256  0.1955  0.3638
91599W        W34516  21.696  19.222  18.937  0.0001 -0.0163  0.3213
91600W        W34517  21.122  18.945  19.717  0.0499  0.1688  0.3704
91601W        W34518  23.476  21.078  19.382 -0.0377 -0.0114 -0.0163
91602W        W34519  21.076  21.322  20.718  0.1230 -0.0403 -0.0689
91603W        W34520  19.219  18.526  18.482  0.2427 -0.2791  0.2040
91604W        W34521  20.642  18.790  19.750  0.1670  0.0897  0.3790
91605W        W34522  20.234  19.463  18.787  0.0075  0.0471  0.2390
91606W        W34523  20.970  20.288  21.682 -0.1883 -0.0594 -0.0251
91607W        W34524  21.496  22.480  22.447  0.2154 -0.0177  0.2343
91608W        W34525  23.030  19.211  19.750 -0.0437  0.2529  0.0463
91609W        W34526  23.313  21.767  21.443 -0.0243  0.1927 -0.1223
91610W        W34527  22.890  21.605  21.766 -0.0701  0.0544 -0.2957
91611W        W34528  22.194  20.383  21.171 -0.1718 -0.0666 -0.1111
91612W        W34529  19.354  19.583  19.317 -0.0748 -0.0324 -0.0329
91613W        W34530  21.386  21.812  19.853 -0.0037 -0.0535 -0.3798
91614W        W34531  19.806  18.823  17.629 -0.1059 -0.1663  0.0259
91615W        W34532  20.867  18.508  20.115 -0.1894  0.0024  0.0841
91616W        W34533  20.924  23.492  19.561  0.0600 -0.1902  0.0672
91617W        W34534  20.018  20.409  19.175 -0.1009  0.0367 -0.0598
91618W        W34535  21.816  21.463  20.469  0.2068 -0.1921 -0.0420
91619W        W34536  18.843  19.798  16.866  0.1099  0.1781  0.0929
91620W        W34537  19.597  23.297  23.534 -0.1113  0.1311  0.0506
91621W        W34538  17.172  21.383  18.685  0.0714  0.2315 -0.2385
91622W        W34539  20.908  21.991  18.953  0.0777 -0.0997  0.0970
91623W        W34540  20.137  20.925  20.744 -0.1957  0.1865  0.3111
91624W        W34541  21.058  20.274  22.953  0.0872  0.1195  0.5349
91625W        W34542  21.699  19.740  18.653 -0.1841 -0.0802  0.2279
91626W        W34543  22.613  18.017  21.829  0.0451  0.1353 -0.1199
91627W        W34544  17.124  20.963  17.975 -0.0041 -0.2995 -0.1176
91628W        W34545  20.942  20.031  19.917  0.1055 -0.2536  0.0142
91629W        W34546  20.132  21.875  21.850  0.0338  0.1794  0.1561
91630W        W34547  17.885  22.818  20.807  0.1220  0.0156 -0.0591
91631W        W34548  21.506  22.015  20.956  0.0308 -0.0195 -0.0267
91632W        W34549  19.598  18.430  18.911 -0.2085 -0.3239  0.2264
91633W        W34550  22.526  20.315  20.713 -0.2203 -0.1192 -0.5061
91634W        W34551  19.060  20.289  18.115  0.1055 -0.1905  0.0171
91635W        W34552  20.825  19.834  21.973 -0.0105  0.0358 -0.1423
91636W        W34553  19.904  22.434  22.033 -0.1202 -0.1954  0.1103
91637W        W34554  20.519  22.064  21.391 -0.0549 -0.1399  0.1508
91638W        W34555  19.656  21.996  22.194  0.1735 -0.0949  0.3987
91639W        W34556  23.669  19.547  21.842  0.0112 -0.0196 -0.2427
91640W        W34557  20.235  22.465  20.480 -0.0512  0.0715  0.2966
91641W        W34558  17.064  20.814  18.476 -0.0251 -0.1364 -0.1891
91642W        W34559  19.894  19.932  19.915 -0.2010  0.1829  0.2114
91643W        W34560  22.435  20.816  20.752 -0.2609 -0.1367 -0.1071
91644W        W34561  19.433  19.604  17.658  0.2204 -0.2155 -0.2024
91645W        W34562  19.320  23.165  19.771 -0.0638  0.2108  0.2129
91646W        W34563  19.828  25.224  21.344 -0.2093  0.2229  0.2253
91647W        W34564  19.387  20.492  21.373 -0.1895  0.0813 -0.0125
91648W        W34565  19.677  21.715  19.129  0.0406  0.2976 -0.1533
91649W        W34566  19.496  21.485  21.217  0.2070 -0.2922  0.0405
91650W        W34567  20.623  20.219  21.232 -0.1192 -0.1157  0.0731
91651W        W34568  19.795  21.748  19.620 -0.0062 -0.0053  0.0597
91652W        W34569  18.893  19.406  16.525 -0.1928  0.3412  0.1197
91653W        W34570  18.005  24.625  21.666  0.0440 -0.0607  0.2511
91654W        W34571  17.278  19.504  17.375 -0.0650 -0.0420 -0.0791
91655W        W34572  21.806  22.640  21.629  0.2800 -0.2508  0.1216
91656W        W34573  18.091  22.341  21.094 -0.1809 -0.0828 -0.1807
91657W        W34574  23.035  20.629  23.306 -0.1163 -0.2913  0.1452
91658W        W34575  25.463  21.507  20.879  0.1821 -0.0919 -0.0534
91659W        W34576  22.521  21.807  20.869 -0.0580 -0.1647 -0.1384
91660W        W34577  21.753  21.059  18.723 -0.0346  0.2792  0.2881
91661W        W34578  20.643  22.049  22.178 -0.0707  0.1095  0.0710
91662W        W34579  20.994  23.127  20.351  0.0804  0.0601 -0.1900
91663W        W34580  19.005  19.791  18.339  0.1622 -0.0222 -0.0439
91664W        W34581  17.544  22.593  21.214 -0.1347  0.0726  0.0772
91665W        W34582  22.364  18.223  21.245 -0.2725  0.1877 -0.0407
91666W        W34583  18.381  23.700  20.348  0.2229 -0.0837  0.1711
91667W        W34584  21.042  22.929  19.335  0.0263 -0.0582 -0.0490
91668W        W34585  18.476  20.441  18.235 -0.2166  0.1116 -0.3192
91669W        W34586  20.552  20.160  19.015  0.1951 -0.1612  0.0712
91670W        W34587  22.046  18.519  20.369 -0.5843 -0.1303  0.3468
91671W        W34588  22.977  21.344  18.099  0.1601 -0.0609  0.1477
91672W        W34589  19.295  19.413  18.515  0.1239  0.0346 -0.2513
91673W        W34590  17.819  24.433  24.304 -0.2211 -0.2988  0.0413
91674W        W34591  21.045  20.507  20.174 -0.1108 -0.3298 -0.0584
91675W        W34592  20.754  21.665  23.607  0.1446  0.0919 -0.2033
91676W        W34593  18.280  17.213  16.863  0.2021 -0.2116  0.0914
91677W        W34594  23.270  18.726  22.378 -0.0186 -0.0127  0.0798
91678W        W34595  19.997  18.782  18.798  0.2296 -0.3950  0.0222
91679W        W34596  23.635  18.648  21.325  0.0052 -0.0669  0.0048
91680W        W34597  18.340  20.858  19.759  0.3149  0.0119  0.1896
91681W        W34598  20.832  19.030  20.767  0.1517 -0.0436 -0.0765
91682W        W34599  20.571  20.603  20.888 -0.0777  0.1960  0.3346
91683W        W34600  20.460  22.217  19.885 -0.3236  0.1867 -0.0980
91684W        W34601  21.000  20.054  17.571 -0.1377 -0.2740  0.1888
91685W        W34602  22.186  22.965  24.603  0.0789  0.0753  0.1840
91686W        W34603  19.959  19.953  17.358  0.2166 -0.1652 -0.0853
91687W        W34604  19.127  19.932  26.056 -0.0987  0.0673 -0.1202
91688W        W34605  20.392  20.160  18.184  0.2293  0.2644  0.0440
91689W        W34606  21.375  19.674  16.707  0.2166  0.0580  0.2508
91690W        W34607  20.882  21.824  20.824 -0.2800 -0.2882 -0.1458
91691W        W34608  22.088  19.970  21.475 -0.2391 -0.0167  0.0015
91692W        W34609  20.772  22.570  22.290 -0.2929  0.1728  0.3132
91693W        W34610  20.054  20.873  19.376 -0.2729  0.1846  0.0404
91694W        W34611  22.270  21.881  18.597  0.2868  0.0701 -0.2765
91695W        W34612  22.589  20.531  21.589 -0.3271  0.3084  0.3446
91696W        W34613  20.674  23.848  19.818  0.0091 -0.0204  0.1243
91697W        W34614  22.475  18.743  17.590  0.0125 -0.0413 -0.1760
91698W        W34615  22.726  20.294  20.204 -0.0559 -0.0685 -0.1392
91699W        W34616  17.260  19.462  17.827  0.1611  0.0392  0.2962
91700W        W34617  21.395  22.206  20.287 -0.0610 -0.2386  0.2975
91701W        W34618  21.535  22.831  24.104  0.1147  0.2023 -0.0092
91702W        W34619  22.643  19.784  20.437 -0.2456  0.4238  0.0495
91703W        W34620  19.720  20.113  20.999  0.1027  0.3707 -0.2446
91704W        W34621  18.411  24.450  19.729 -0.3657 -0.0954  0.1150
91705W        W34622  20.890  21.795  21.672 -0.0448  0.0306 -0.3436
91706W        W34623  22.347  17.642  22.173 -0.1475 -0.0591 -0.3853
91707W        W34624  19.690  24.023  21.249 -0.2229  0.0041  0.0636
91708W        W34625  21.829  17.946  19.486 -0.0630  0.1607 -0.1679
91709W        W34626  21.115  21.608  22.768 -0.1028  0.0651 -0.0301
91710W        W34627  18.137  22.706  24.715  0.0242 -0.1056 -0.2691
91711W        W34628  21.132  21.362  18.313 -0.0574  0.2703  0.2345
91712W        W34629  21.569  19.900  19.926 -0.1708  0.0059  0.2367
91713W        W34630  17.164  23.911  18.532 -0.1478 -0.0969 -0.1027
91714W        W34631  19.590  22.417  21.171 -0.1154  0.0061  0.0025
91715W        W34632  20.981  21.866  20.300 -0.3636  0.0968  0.4376
91716W        W34633  21.181  20.897  18.618  0.4035 -0.0086  0.1732
91717W        W34634  22.486  22.611  21.547  0.0913 -0.0379 -0.0360
91718W        W34635  18.320  17.574  17.813 -0.0717 -0.0732 -0.2409
91719W        W34636  22.300  19.305  20.172 -0.0656 -0.1924 -0.1015
91720W        W34637  21.517  18.919  17.510 -0.0403 -0.2865  0.2952
91721W        W34638  19.410  20.190  20.051 -0.2584  0.0145 -0.1290
91722W        W34639  17.329  20.545  18.107  0.4346 -0.0008 -0.0447
91723W        W34640  21.067  22.203  19.852  0.2444  0.0645 -0.1590
91724W        W34641  18.998  20.500  19.088 -0.1309 -0.1199 -0.1527
91725W        W34642  20.540  18.699  20.440  0.0335 -0.0176  0.1678
91726W        W34643  19.114  22.270  19.676  0.0071  0.2308  0.3485
91727W        W34644  20.130  19.986  18.941  0.0918 -0.0567  0.1482
91728W        W34645  22.846  20.225  18.777  0.0046 -0.1883  0.1840
91729W        W34646  19.511  20.559  19.165  0.3216 -0.0983 -0.2285
91730W        W34647  17.467  19.029  17.769  0.3065 -0.0730  0.0120
91731W        W34648  21.691  21.169  19.383 -0.0587 -0.1294 -0.1386
91732W        W34649  23.411  19.689  21.051 -0.2007 -0.0870  0.0819
91733W        W34650  17.984  17.194  17.312 -0.2801 -0.1593  0.1048
91734W        W34651  21.260  20.747  23.323 -0.0763  0.2467  0.0775
91735W        W34652  19.697  20.989  18.992 -0.0709  0.0336  0.4528
91736W        W34653  19.657  20.221  19.554 -0.0217 -0.0411 -0.1548
91737W        W34654  20.818  18.546  18.143  0.0148 -0.1234 -0.2002
91738W        W34655  16.245  17.625  15.502 -0.1877  0.2123 -0.2715
91739W        W34656  20.841  19.631  19.618 -0.0378 -0.2131  0.2389
91740W        W34657  21.133  23.580  20.568 -0.0093  0.0835 -0.1137
91741W        W34658  20.582  23.938  19.282 -0.0804 -0.0562 -0.0126
91742W        W34659  20.847  21.079  23.591  0.1366  0.1849 -0.2378
91743W        W34660  19.595  22.076  24.291  0.0758 -0.0405 -0.4190
91744W        W34661  21.895  20.339  19.937  0.1752 -0.0956  0.1098
91745W        W34662  19.878  20.072  21.474  0.2027 -0.2677 -0.0501
91746W        W34663  22.036  20.090  18.669 -0.0882  0.2309 -0.1131
91747W        W34664  22.488  17.761  19.783  0.2964  0.0701 -0.2077
91748W        W34665  20.862  20.578  18.969 -0.4892  0.1206  0.0372
91749W        W34666  19.937  21.001  19.903  0.0819  0.2705 -0.0584
91750W        W34667  21.033  22.080  21.251 -0.1079 -0.1314  0.1606
91751W        W34668  19.946  17.518  17.771  0.0751 -0.2350 -0.0898
91752W        W34669  22.714  19.660  19.236 -0.1839  0.1958  0.2898
91753W        W34670  21.116  22.283  20.744  0.4217  0.0460  0.0255
91754W        W34671  20.190  21.496  20.549  0.1896 -0.2768  0.0756
91755W        W34672  20.521  23.217  20.545  0.2111 -0.0231 -0.1853
91756W        W34673  23.458  19.855  20.533 -0.0786  0.1826  0.2979
91757W        W34674  21.442  23.190  20.179  0.0810 -0.1668 -0.1679
91758W        W34675  21.274  22.436  21.571  0.0412 -0.2208 -0.0869
91759W        W34676  19.963  19.917  18.416  0.0336 -0.0262 -0.1137
91760W        W34677  21.406  20.364  19.804  0.1332 -0.4439 -0.2442
91761W        W34678  19.878  22.899  24.986  0.0518  0.2554 -0.2036
91762W        W34679  20.980  23.794  23.562 -0.2056  0.1363 -0.0208
91763W        W34680  20.326  22.914  24.010  0.0828 -0.0003  0.0254
91764W        W34681  22.803  19.278  20.216 -0.2972 -0.0641 -0.1020
91765W        W34682  19.826  19.261  18.441 -0.0390 -0.0613  0.3351
91766W        W34683  21.312  19.293  19.406  0.0489 -0.0098 -0.1417
91767W        W34684  22.223  19.442  19.315  0.1199  0.0284 -0.2304
91768W        W34685  18.583  19.491  18.303 -0.2118 -0.0139 -0.0978
91769W        W34686  20.416  19.848  19.917 -0.0039  0.0241 -0.1079
91770W        W34687  20.982  21.724  24.177  0.2250 -0.0199  0.3600
91771W        W34688  23.853  20.288  19.932  0.2649 -0.1173  0.0216
91772W        W34689  18.207  23.559  24.145  0.2447  0.1662 -0.0524
91773W        W34690  19.784  19.957  20.552 -0.0143 -0.1015 -0.0749
91774W        W34691  24.140  19.511  21.666  0.1524  0.0705  0.2330
91775W        W34692  20.464  20.072  24.062 -0.0514  0.2188  0.0827
91776W        W34693  19.232  21.336  22.123  0.1706  0.0696  0.0605
91777W        W34694  21.697  20.491  22.255 -0.1423 -0.0007 -0.2475
91778W        W34695  21.902  21.351  27.503  0.0181 -0.0580  0.0981
91779W        W34696  20.758  19.918  20.374  0.2998  0.1298  0.2513
91780W        W34697  20.864  19.034  25.545  0.0004  0.1985 -0.1863
91781W        W34698  20.212  19.508  19.621 -0.2664  0.2711  0.6015
91782W        W34699  20.245  19.609  23.864  0.0476 -0.0114  0.0159
91783W        W34700  19.251  21.065  21.695 -0.0533 -0.0575 -0.4265
91784W        W34701  19.173  23.071  24.389 -0.0740  0.0403 -0.0269
91785W        W34702  20.544  18.045  23.577  0.0852  0.3057  0.1090
91786W        W34703  18.738  21.862  21.856  0.3115  0.1319  0.3994
91787W        W34704  18.070  19.247  21.163  0.1941  0.3414 -0.0179
91788W        W34705  22.915  17.860  23.080 -0.1838  0.1595  0.0132
91789W        W34706  21.619  20.327  23.399 -0.0913 -0.1663  0.1101
91790W        W34707  18.081  23.139  26.374 -0.1571  0.0470 -0.2057
91791W        W34708  19.432  23.119  24.848 -0.0495 -0.2594  0.0643
91792W        W34709  19.268  20.976  23.445 -0.2542  0.3521  0.0147
91793W        W34710  18.723  21.256  21.999  0.1329 -0.1211 -0.1553
91794W        W34711  18.700  24.958  24.261 -0.1578  0.1649 -0.0092
91795W        W34712  21.970  21.355  22.832  0.1353  0.0453 -0.0159
91796W        W34713  21.069  21.230  23.176 -0.1853 -0.2106 -0.0691
91797W        W34714  21.500  21.842  24.279 -0.0518  0.0461  0.2584
91798W        W34715  19.390  22.705  26.841 -0.1236 -0.1538  0.0111
91799W        W34716  18.963  21.762  22.949  0.1037 -0.0682 -0.0862
91800W        W34717  18.412  19.637  25.184 -0.0723 -0.0017  0.0769
91801W        W34718  17.725  21.670  23.863  0.1784 -0.2234 -0.2669
91802W        W34719  21.607  19.236  21.694 -0.1133 -0.0140  0.0826
91803W        W34720  20.688  20.727  21.810 -0.1642  0.2829 -0.0862
91804W        W34721  19.674  21.545  21.950 -0.1516  0.1930  0.2048
91805W        W34722  19.777  20.487  22.376 -0.0403  0.0113  0.3947
91806W        W34723  19.377  21.806  25.321 -0.4144  0.0027 -0.0658
91807W        W34724  19.142  21.323  23.848 -0.0239  0.4626  0.0953
91808W        W34725  20.337  18.333  27.016  0.1812  0.1257 -0.2252
91809W        W34726  19.472  22.801  23.984 -0.0003  0.2543  0.5881
91810W        W34727  22.015  20.510  20.714  0.0682  0.4095 -0.1464
91811W        W34728  20.052  20.516  19.719 -0.1168  0.0196 -0.1259
91812W        W34729  22.115  20.467  21.774 -0.2277  0.3248 -0.0114
91813W        W34730  19.623  18.288  21.283 -0.0166  0.2680  0.1275
91814W        W34731  20.593  21.660  22.524  0.0801  0.2591 -0.1025
91815W        W34732  20.860  20.002  22.601  0.1856 -0.2417  0.0117
91816W        W34733  21.093  20.580  24.245 -0.1331  0.2322  0.1493
91817W        W34734  20.231  20.489  21.447  0.2067 -0.1554  0.2012
91818W        W34735  21.184  19.309  22.014 -0.2455 -0.3869  0.4706
91819W        W34736  20.128  20.744  24.761  0.2000 -0.1467  0.1655
91820W        W34737  21.185  22.974  23.759 -0.0706  0.1030  0.0696
91821W        W34738  22.830  22.725  26.099 -0.1180 -0.0723 -0.2366
91822W        W34739  19.512  22.553  24.919 -0.2215 -0.0562 -0.0023
91823W        W34740  18.964  19.915  19.609 -0.0299 -0.0975  0.0429
91824W        W34741  21.313  18.598  23.395  0.0219  0.1896  0.0584
91825W        W34742  17.786  21.952  25.260 -0.0139  0.0375 -0.0866
91826W        W34743  22.930  19.885  24.901  0.1751 -0.0070  0.3394
91827W        W34744  19.955  20.425  20.574 -0.0144 -0.3971 -0.1779
91828W        W34745  21.154  19.502  25.122 -0.0150  0.0065 -0.0093
91829W        W34746  21.805  20.992  22.485 -0.0246 -0.0251 -0.1063
91830W        W34747  22.909  17.544  25.029  0.0286  0.0629  0.2878
91831W        W34748  19.341  19.945  21.232 -0.1017  0.1013 -0.1517
91832W        W34749  17.941  22.123  23.033  0.0369 -0.5393 -0.0547
91833W        W34750  23.281  20.241  26.262  0.0412 -0.1017 -0.3429
91834W        W34751  22.079  20.813  21.454 -0.2684  0.0377 -0.4956
91835W        W34752  19.409  21.668  22.474  0.2255 -0.1154 -0.1064
91836W        W34753  20.526  20.755  22.805 -0.2854  0.0499  0.1445
91837W        W34754  18.898  22.542  24.101  0.0034  0.0745 -0.2357
91838W        W34755  16.908  21.903  22.227 -0.0069  0.1149 -0.3044
91839W        W34756  19.281  20.663  20.083  0.2782  0.0176  0.0082
91840W        W34757  18.457  17.700  21.635  0.2946 -0.1755  0.0966
91841W        W34758  21.238  19.835  22.875  0.0129 -0.1814  0.3191
91842W        W34759  21.690  20.714  21.792  0.3019  0.1884 -0.1704
91843W        W34760  22.736  19.101  22.109 -0.2478  0.0296  0.0709
91844W        W34761  20.058  20.026  23.679 -0.2793 -0.0230 -0.4124
91845W        W34762  20.597  22.610  26.243  0.0966  0.1627  0.3306
91846W        W34763  23.249  19.851  22.827  0.2169  0.1119 -0.1574
91847W        W34764  20.219  20.749  20.312 -0.2901  0.1097  0.3499
91848W        W34765  18.213  19.527  21.574 -0.1174  0.1654 -0.1542
91849W        W34766  19.078  18.938  23.315 -0.2367  0.1243 -0.1292
91850W        W34767  21.945  18.830  23.405 -0.2176 -0.1095  0.1235
91851W        W34768  20.320  19.801  21.250 -0.5382 -0.0841 -0.1181
91852W        W34769  21.502  20.299  22.890 -0.1590  0.0626  0.3533
91853W        W34770  17.966  20.731  19.435  0.0225 -0.3961  0.1413
91854W        W34771  22.781  19.492  25.695  0.0471  0.1642 -0.1271
91855W        W34772  19.651  21.997  23.625  0.3748  0.1019  0.1341
91856W        W34773  20.469  20.667  26.924 -0.0001 -0.2798 -0.2912
91857W        W34774  20.878  21.464  24.602  0.0868  0.2805  0.2805
91858W        W34775  19.874  19.599  21.491 -0.1066  0.1985 -0.1011
91859W        W34776  18.841  21.784  26.508  0.0109 -0.3326 -0.0989
91860W        W34777  20.942  19.636  24.124  0.2014 -0.3222 -0.3011
91861W        W34778  19.049  22.064  24.390  0.0302 -0.0674 -0.0150
91862W        W34779  20.055  20.306  22.020  0.0050 -0.0514 -0.2312
91863W        W34780  19.827  19.869  25.121 -0.1335  0.2798  0.0374
91864W        W34781  21.508  18.972  25.433  0.2057 -0.0870 -0.4071
91865W        W34782  21.504  19.767  24.210  0.0340  0.0251 -0.3325
91866W        W34783  21.078  19.233  23.848  0.0594  0.0221 -0.0474
91867W        W34784  20.859  22.566  25.712  0.0209  0.0325 -0.0890
91868W        W34785  19.184  22.037  21.934  0.0447  0.0356  0.1389
91869W        W34786  18.367  20.288  20.145  0.0118  0.0535 -0.0717
91870W        W34787  20.487  20.150  21.744 -0.0153 -0.1214  0.2891
91871W        W34788  21.414  17.818  22.199  0.0162 -0.0529 -0.0381
91872W        W34789  19.674  18.880  27.661  0.0289  0.2819 -0.2314
91873W        W34790  20.362  21.278  20.106 -0.0315  0.0140 -0.0484
91874W        W34791  18.109  21.367  23.592 -0.1073  0.0009  0.1392
91875W        W34792  20.746  19.395  21.176 -0.2023  0.2142 -0.1423
91876W        W34793  20.942  21.592  22.184 -0.0811 -0.1330  0.0938
91877W        W34794  19.339  21.278  22.966 -0.1070 -0.1141 -0.1848
91878W        W34795  21.545  20.412  23.941 -0.2105  0.0053  0.1865
91879W        W34796  23.400  20.343  23.099 -0.2608 -0.2867 -0.2062
91880W        W34797  20.288  19.852  20.512  0.1306 -0.1517 -0.4919
91881W        W34798  20.823  21.364  25.106 -0.1800  0.0354 -0.0152
91882W        W34799  21.099  20.419  21.131  0.2753 -0.3165  0.1729
91883W        W34800  21.840  20.018  22.206  0.2163 -0.2334 -0.1049
91884W        W34801  21.261  22.469  23.795  0.1229 -0.1098 -0.1048
91885W        W34802  19.148  21.585  21.699  0.1767  0.1473  0.0671
91886W        W34803  20.526  19.570  24.403  0.1772  0.2108  0.1762
91887W        W34804  19.529  20.561  24.491 -0.0958  0.2941  0.3372
91888W        W34805  18.826  21.010  20.419  0.2917  0.2536 -0.0679
91889W        W34806  19.922  19.684  21.002 -0.1776 -0.2065 -0.1403
91890W        W34807  19.773  23.291  22.960  0.0088 -0.0289  0.1883
91891W        W34808  20.026  18.793  22.571 -0.1774 -0.0320 -0.0574
91892W        W34809  22.251  19.537  24.330  0.2824  0.0077 -0.1321
91893W        W34810  21.632  19.822  23.312  0.2868 -0.0756 -0.0423
91894W        W34811  20.646  20.644  24.637  0.1878 -0.2405 -0.0811
91895W        W34812  17.948  20.060  25.805 -0.1287 -0.4473  0.1119
91896W        W34813  19.095  22.263  24.840  0.1643 -0.1536 -0.1252
91897W        W34814  20.348  20.726  22.199 -0.0342  0.1355 -0.0535
91898W        W34815  21.321  19.071  23.456 -0.1796  0.1160  0.0661
91899W        W34816  19.278  20.131  19.220 -0.1227  0.1995  0.3789
91900W        W34817  20.405  22.494  24.864  0.2508 -0.3232 -0.0895
91901W        W34818  20.434  21.115  21.608 -0.1738  0.3122  0.4014
91902W        W34819  18.992  21.237  24.755 -0.2162  0.4205  0.0713
91903W        W34820  18.119  23.749  23.083  0.1644 -0.0077  0.0477
91904W        W34821  21.334  21.482  24.802  0.1151 -0.1587 -0.0393
91905W        W34822  18.757  21.210  21.519 -0.1041 -0.2593  0.2801
91906W        W34823  18.750  21.915  23.988  0.4022  0.4220 -0.0981
91907W        W34824  21.089  18.069  22.606  0.1374 -0.0802  0.0676
91908W        W34825  24.864  21.503  24.536 -0.0604 -0.0375 -0.0223
91909W        W34826  19.258  18.920  22.356  0.0811  0.1495 -0.5068
91910W        W34827  20.777  20.154  19.445  0.0592  0.1973 -0.2203
91911W        W34828  19.889  21.418  24.685  0.2644  0.2914  0.3357
91912W        W34829  20.834  18.535  25.173  0.1168 -0.0069  0.3942
91913W        W34830  21.002  19.454  23.084 -0.3091 -0.0558 -0.1960
91914W        W34831  20.495  21.112  24.550  0.1414  0.0315 -0.0519
91915W        W34832  17.852  20.613  18.136 -0.2121  0.2468 -0.2214
91916W        W34833  21.370  18.959  25.958  0.3311  0.0883 -0.1743
91917W        W34834  21.972  20.486  22.684 -0.3543  0.0806 -0.1002
91918W        W34835  18.884  21.676  21.257  0.3043 -0.0100 -0.0841
91919W        W34836  21.711  19.863  22.697  0.1004 -0.2752 -0.0292
91920W        W34837  19.107  21.878  19.038  0.3499  0.5140 -0.1546
91921W        W34838  20.195  20.865  23.339 -0.0677 -0.0277  0.1614
91922W        W34839  19.871  18.740  25.315 -0.0276 -0.2886 -0.1871
91923W        W34840  20.212  20.887  26.096  0.2958 -0.2816  0.3182
91924W        W34841  19.585  21.141  24.032 -0.0820 -0.1774  0.1990
91925W        W34842  20.075  21.206  24.194  0.1683 -0.1735  0.1475
91926W        W34843  19.204  20.984  24.335  0.2107 -0.1123 -0.2408
91927W        W34844  19.774  20.053  24.671  0.0884 -0.0260 -0.2649
91928W        W34845  20.448  18.592  22.402 -0.1279  0.2584 -0.3874
91929W        W34846  20.250  22.960  24.512 -0.1073 -0.2247  0.0924
91930W        W34847  20.612  20.697  26.326 -0.1601 -0.3492 -0.0417
91931W        W34848  17.473  22.045  21.941 -0.2469 -0.1077 -0.1623
91932W        W34849  18.139  20.026  21.577 -0.1955 -0.0513  0.0777
91933W        W34850  19.647  20.781  20.555  0.0260 -0.2336 -0.0446
91934W        W34851  20.634  21.101  23.151 -0.3613 -0.2279 -0.1862
91935W        W34852  20.642  21.942  24.530 -0.2227 -0.1758 -0.0104
91936W        W34853  19.250  23.781  22.207 -0.0930  0.1544  0.0119
91937W        W34854  19.210  20.272  22.056 -0.1327 -0.0082  0.2881
91938W        W34855  20.909  19.854  21.342  0.0355  0.2257 -0.2723
91939W        W34856  20.683  21.398  20.437  0.0442 -0.1048  0.3210
91940W        W34857  22.550  19.008  25.333  0.1261  0.2615 -0.2017
91941W        W34858  21.250  20.448  22.071 -0.0879 -0.2399 -0.1136
91942W        W34859  20.346  17.153  25.491  0.2766  0.0244  0.1123
91943W        W34860  21.840  19.670  25.777  0.0816 -0.0434  0.0908
91944W        W34861  21.539  20.331  26.461 -0.1187  0.0944  0.1521
91945W        W34862  19.081  20.835  22.987 -0.1370  0.4344 -0.2819
91946W        W34863  21.241  19.832  20.810 -0.1476 -0.3569  0.4591
91947W        W34864  20.276  21.410  23.315  0.0018 -0.0332 -0.1589
91948W        W34865  19.518  21.457  24.997 -0.1934  0.0685  0.2784
91949W        W34866  19.792  21.770  21.466  0.0193  0.0196  0.3059
91950W        W34867  21.878  19.312  23.445 -0.0722  0.1863 -0.1991
91951W        W34868  20.532  19.613  21.670 -0.1750  0.2882  0.1041
91952W        W34869  21.108  21.755  23.265 -0.1487  0.0089 -0.2422
91953W        W34870  20.773  20.317  22.135  0.1989  0.1640  0.2518
91954W        W34871  17.877  23.269  21.616  0.0602  0.1873  0.0410
91955W        W34872  19.900  21.122  20.352  0.3641  0.2269 -0.2930
91956W        W34873  21.702  17.951  21.730  0.1003 -0.1453 -0.2619
91957W        W34874  20.169  17.148  24.923  0.2168 -0.0153  0.1280
91958W        W34875  21.583  18.666  24.371 -0.0573  0.0677 -0.1648
91959W        W34876  20.422  19.382  26.103 -0.4993  0.0132 -0.1998
91960W        W34877  22.627  19.562  22.336  0.1565  0.0693  0.2733
91961W        W34878  22.485  18.102  22.897 -0.0014 -0.0118  0.2244
91962W        W34879  21.137  19.297  22.514 -0.3637  0.2076 -0.0030
91963W        W34880  21.692  20.208  21.781  0.1516  0.0059  0.1991
91964W        W34881  20.857  17.412  24.234 -0.0543  0.1143  0.1443
91965W        W34882  19.338  19.267  19.816 -0.2594  0.0454  0.2882
91966W        W34883  21.055  18.064  25.355 -0.1350  0.2667  0.0209
91967W        W34884  20.015  23.081  22.483 -0.2289  0.0975 -0.1187
91968W        W34885  20.157  22.122  22.365  0.1215 -0.1344  0.1908
91969W        W34886  22.550  20.590  23.454 -0.0944  0.3771  0.1104
91970W        W34887  18.533  19.208  21.445  0.1661  0.0856  0.2454
91971W        W34888  18.955  20.556  24.186  0.0108 -0.2175  0.0447
91972W        W34889  18.848  19.566  20.037  0.0874 -0.0394 -0.0425
91973W        W34890  20.903  21.105  21.989 -0.0661  0.0825  0.0006
91974W        W34891  21.665  20.849  26.237 -0.0748  0.0960  0.0491
91975W        W34892  21.437  19.994  29.340  0.0871  0.1627  0.0579
91976W        W34893  21.578  20.772  24.333 -0.2558  0.1745 -0.0649
91977W        W34894  19.761  20.526  20.114  0.0745 -0.0131  0.4976
91978W        W34895  22.229  21.077  28.539 -0.0670 -0.2583  0.0654
91979W        W34896  20.643  19.422  22.690 -0.0374  0.1296 -0.0187
91980W        W34897  20.722  20.136  23.637 -0.1315  0.0848  0.0974
91981W        W34898  20.936  19.493  20.598  0.0155 -0.1352 -0.2506
91982W        W34899  21.028  20.785  22.902  0.1140  0.3718 -0.2835
91983W        W34900  21.405  19.151  26.428 -0.3337 -0.1558  0.1745
91984W        W34901  20.421  19.989  25.669 -0.1094 -0.0940 -0.1900
91985W        W34902  19.110  22.837  25.066  0.3849  0.1030  0.0492
91986W        W34903  21.148  18.588  25.674  0.2989 -0.0473  0.0028
91987W        W34904  20.698  20.709  23.951 -0.3530 -0.0706  0.2226
91988W        W34905  20.447  21.529  21.980  0.0396  0.0197  0.0782
91989W        W34906  19.394  18.845  25.248  0.2546  0.0862  0.0245
91990W        W34907  20.403  22.393  25.475  0.1901  0.1709 -0.0225
91991W        W34908  18.895  18.494  19.935  0.2438  0.3900  0.1218
91992W        W34909  19.541  20.794  22.773  0.0880 -0.2507  0.0161
91993W        W34910  17.803  21.940  26.977  0.0394 -0.0167  0.2884
91994W        W34911  18.877  22.271  23.150 -0.2870 -0.2787 -0.1120
91995W        W34912  19.703  21.048  23.199  0.3487  0.0823 -0.4232
91996W        W34913  21.152  20.003  23.444 -0.1926 -0.1037  0.0571
91997W        W34914  18.935  21.421  25.275 -0.0533 -0.0920  0.2854
91998W        W34915  20.163  20.227  20.198  0.0935  0.0155 -0.1467
91999W        W34916  19.063  22.655  22.454  0.3957  0.1631 -0.0872
92000W        W34917  18.311  21.571  21.732  0.1602 -0.4144 -0.1760
92001W        W34918  20.465  21.060  25.001  0.0227 -0.4192  0.1766
92002W        W34919  18.980  23.228  22.799 -0.1118 -0.0811 -0.4466
92003W        W34920  22.320  19.390  26.077 -0.1870  0.3066 -0.0460
92004W        W34921  21.615  18.948  21.152 -0.1091 -0.0660 -0.1407
92005W        W34922  20.740  19.705  24.863 -0.3921  0.1407 -0.0510
92006W        W34923  22.226  19.510  21.787 -0.1081  0.2133  0.2262
92007W        W34924  20.727  20.109  24.476  0.1408 -0.1406  0.1961
92008W        W34925  20.591  17.707  24.568 -0.2339  0.2964 -0.0934
92009W        W34926  17.593  21.465  22.000 -0.1097 -0.1205 -0.1473
92010W        W34927  20.763  22.889  24.328 -0.2844 -0.0082 -0.2184
92011W        W34928  20.072  20.850  21.791 -0.0089  0.0099 -0.0347
92012W        W34929  23.302  17.772  25.441  0.0288 -0.2790 -0.1426
92013W        W34930  19.825  22.773  22.915 -0.0192  0.0913 -0.0369
92014W        W34931  22.215  18.379  23.345  0.1364 -0.1220 -0.2064
92015W        W34932  19.462  21.023  24.767  0.0955  0.1188 -0.3116
92016W        W34933  20.458  22.526  27.687  0.0836 -0.1979  0.0020
92017W        W34934  18.556  20.459  23.882  0.2061  0.4200 -0.3149
92018W        W34935  18.495  19.478  19.126 -0.2873 -0.0057 -0.0843
92019W        W34936  20.493  18.941  22.853  0.0706 -0.0150 -0.0646
92020W        W34937  18.804  20.953  23.897 -0.1260 -0.0393  0.1892
92021W        W34938  20.829  18.567  22.860 -0.0865 -0.0424 -0.0894
92022W        W34939  19.443  20.314  20.582  0.3527 -0.1469  0.1355
92023W        W34940  21.840  18.344  22.938 -0.3776 -0.0189 -0.3353
92024W        W34941  20.912  19.820  25.452  0.1698  0.0067 -0.0859
92025W        W34942  20.412  19.946  22.263  0.3953  0.1324  0.2158
92026W        W34943  20.285  19.036  24.443 -0.0401 -0.0506 -0.1814
92027W        W34944  21.766  20.308  19.277  0.2354  0.3283 -0.0890
92028W        W34945  21.764  21.691  25.013 -0.0178  0.1227 -0.0999
92029W        W34946  18.638  18.668  20.400  0.3236 -0.1754  0.0107
92030W        W34947  20.684  19.839  20.855  0.2630  0.0869  0.3197
92031W        W34948  22.041  18.141  22.139  0.0266  0.1862  0.3119
92032W        W34949  20.232  21.480  27.262  0.4155 -0.2638 -0.1458
92033W        W34950  21.859  23.394  23.946 -0.2631  0.2175 -0.2234
92034W        W34951  20.536  19.473  22.160  0.0366 -0.0692  0.2103
92035W        W34952  18.410  25.102  22.138  0.0339 -0.2760 -0.1760
92036W        W34953  22.821  20.678  22.718 -0.0226  0.0898 -0.0702
92037W        W34954  22.618  22.838  24.890  0.1320  0.2233 -0.2976
92038W        W34955  19.419  20.655  23.969 -0.0772 -0.1126  0.1734
92039W        W34956  20.881  21.300  27.124  0.0580  0.0223  0.1450
92040W        W34957  17.798  21.855  20.390  0.1225 -0.2162 -0.0187
92041W        W34958  22.352  18.543  25.164 -0.1468 -0.1770 -0.2390
92042W        W34959  21.345  20.062  22.425 -0.3651  0.2191  0.1180
92043W        W34960  18.581  21.843  20.867  0.3153  0.2263 -0.1257
92044W        W34961  21.705  17.397  22.821 -0.1213  0.0114 -0.0055
92045W        W34962  19.944  22.230  25.073  0.0736 -0.2281  0.0648
92046W        W34963  21.191  19.017  24.991  0.3561 -0.1632  0.0834
92047W        W34964  18.885  21.326  20.012  0.1845 -0.2721  0.0110
92048W        W34965  20.092  21.219  22.147 -0.0981 -0.0421  0.3430
92049W        W34966  18.721  20.978  23.420 -0.3144 -0.0432 -0.1670
92050W        W34967  20.090  22.054  24.582 -0.1361 -0.1024  0.0191
92051W        W34968  20.329  20.511  23.691  0.0208  0.2085  0.2421
92052W        W34969  21.233  19.901  26.771 -0.1937 -0.1932  0.1349
92053W        W34970  19.060  20.214  20.925  0.0657 -0.1025  0.0084
92054W        W34971  21.737  18.256  23.466  0.1256  0.2241  0.0796
92055W        W34972  21.575  18.161  20.680  0.1621 -0.2416  0.2058
92056W        W34973  20.019  22.054  24.048 -0.1633 -0.2991 -0.1502
92057W        W34974  18.293  19.697  21.105  0.1327  0.0665  0.1508
92058W        W34975  21.072  20.997  24.606 -0.2151 -0.1021 -0.0043
92059W        W34976  19.165  18.462  21.473 -0.1866  0.2010 -0.1236
92060W        W34977  22.092  20.556  23.776 -0.0733 -0.2885 -0.0898
92061W        W34978  20.934  20.829  25.032  0.2052 -0.0661 -0.3052
92062W        W34979  20.185  20.716  24.191  0.1342 -0.1549  0.0616
92063W        W34980  18.253  22.510  22.035  0.3394 -0.2081  0.3277
92064W        W34981  20.312  19.916  24.807 -0.0060  0.0042  0.0399
92065W        W34982  19.846  21.653  24.276 -0.0148  0.0496 -0.0144
92066W        W34983  19.868  20.768  23.706 -0.0731  0.1671  0.0503
92067W        W34984  18.926  23.208  23.552 -0.1528  0.2621 -0.0963
92068W        W34985  19.341  20.196  25.664 -0.1160  0.2415 -0.2942
92069W        W34986  18.639  20.545  24.969 -0.0017 -0.0946 -0.0626
92070W        W34987  18.678  18.042  22.368 -0.0104 -0.1996  0.0021
92071W        W34988  19.853  22.508  23.705  0.0930  0.2233 -0.0582
92072W        W34989  22.032  22.581  23.811  0.0263  0.2803 -0.4187
92073W        W34990  21.926  18.990  20.211  0.0614  0.1308  0.1166
92074W        W34991  20.526  22.100  22.677 -0.0147  0.2025  0.1268
92075W        W34992  22.860  18.463  24.552  0.1895 -0.3136 -0.0530
92076W        W34993  19.348  18.517  20.891 -0.0410  0.1697  0.0317
92077W        W34994  22.914  19.798  23.796  0.2737  0.1479  0.1644
92078W        W34995  19.500  22.002  23.147  0.2313 -0.0852 -0.3494
92079W        W34996  19.399  20.817  22.305  0.2003 -0.2291  0.0144
92080W        W34997  20.724  20.573  23.326 -0.2383  0.0984 -0.1272
92081W        W34998  20.252  19.814  23.297 -0.0726  0.3001 -0.1182
92082W        W34999  21.559  21.236  23.360  0.3815 -0.2635 -0.2095
92083W        W35000  21.951  18.312  24.331 -0.1866  0.2583  0.2659
92084W        W35001  18.846  19.803  19.101 -0.2580  0.1262 -0.1306
92085W        W35002  19.586  20.633  21.810 -0.0249  0.2698 -0.0368
92086W        W35003  19.560  20.595  25.098 -0.1615 -0.0133  0.2712
92087W        W35004  20.993  20.362  25.367  0.1284 -0.0139 -0.1924
92088W        W35005  19.440  20.536  23.263  0.3473  0.3473  0.0293
92089W        W35006  20.739  19.623  23.552 -0.6217 -0.2192 -0.0557
92090W        W35007  21.450  19.959  21.294 -0.0012 -0.0632 -0.0812
92091W        W35008  18.924  20.716  21.993 -0.3934  0.0472 -0.0082
92092W        W35009  23.726  18.574  25.138 -0.0387 -0.0025 -0.1560
92093W        W35010  19.649  21.211  22.390  0.0126 -0.0189  0.2447
92094W        W35011  19.592  21.898  24.772 -0.1593  0.1252 -0.0481
92095W        W35012  20.480  22.445  24.320 -0.1935  0.1982 -0.2222
92096W        W35013  20.207  19.917  27.924  0.1863 -0.2817 -0.0131
92097W        W35014  18.593  19.218  26.540  0.1959 -0.0520  0.0018
92098W        W35015  20.814  18.173  24.830  0.2000 -0.0646 -0.0016
92099W        W35016  21.830  19.211  29.009 -0.3028  0.1788 -0.4092
92100W        W35017  19.681  18.660  28.180  0.0478  0.0590 -0.0829
92101W        W35018  19.794  20.206  29.222  0.0068  0.2798 -0.0156
92102W        W35019  18.990  16.749  26.127  0.1586 -0.0347  0.1753
92103W        W35020  19.366  20.210  30.259 -0.2815  0.0088  0.1500
92104W        W35021  20.725  20.654  29.577 -0.1433 -0.1379  0.3116
92105W        W35022  20.377  21.597  24.254 -0.1115  0.2961 -0.1505
92106W        W35023  19.393  18.264  30.125 -0.0660  0.1289  0.3082
92107W        W35024  19.245  19.936  28.247  0.0155  0.3833  0.1940
92108W        W35025  17.534  14.865  26.197  0.2282 -0.0282  0.3111
92109W        W35026  17.722  16.590  25.164  0.0921 -0.0491  0.0529
92110W        W35027  19.731  17.161  28.673 -0.1569  0.1546 -0.0197
92111W        W35028  18.199  19.231  26.236  0.1389  0.1654 -0.4529
92112W        W35029  17.203  20.958  27.124  0.2048 -0.1794  0.0792
92113W        W35030  20.583  18.637  27.998  0.0996  0.1452  0.3644
92114W        W35031  19.537  22.335  28.678 -0.3244  0.1230  0.0564
92115W        W35032  20.094  17.782  26.343  0.0434 -0.2144 -0.0337
92116W        W35033  19.189  17.167  29.589 -0.3156  0.0311 -0.1670
92117W        W35034  20.431  19.747  25.239  0.1422 -0.0979  0.0482
92118W        W35035  18.509  19.720  28.413  0.1431 -0.0699 -0.2723
92119W        W35036  19.076  19.388  25.771  0.2627 -0.1055  0.0008
92120W        W35037  22.023  15.762  29.373  0.0572  0.0078  0.3479
92121W        W35038  20.234  18.568  25.648  0.0940 -0.0884 -0.3822
92122W        W35039  17.708  20.877  25.847 -0.1862  0.0725 -0.1316
92123W        W35040  19.785  19.916  27.425  0.3712  0.1939  0.2234
92124W        W35041  19.346  17.292  28.273  0.1401 -0.2571 -0.1059
92125W        W35042  17.713  19.228  24.582  0.0341  0.0668  0.0807
92126W        W35043  17.451  20.301  26.558 -0.5775 -0.1575  0.0012
92127W        W35044  18.925  20.044  24.484 -0.1520  0.2369  0.0869
92128W        W35045  19.936  20.593  28.796  0.2787 -0.1266  0.1047
92129W        W35046  19.974  20.274  28.188 -0.4075  0.0378 -0.1172
92130W        W35047  18.976  21.641  30.395 -0.0740  0.2574  0.1492
92131W        W35048  18.938  19.945  25.545  0.1328  0.0123  0.0055
92132W        W35049  18.722  20.410  26.233  0.0059 -0.1307 -0.1972
92133W        W35050  18.182  21.793  28.839 -0.0533  0.2240 -0.1408
92134W        W35051  19.606  17.665  28.022 -0.0280 -0.0192  0.4306
92135W        W35052  19.480  18.772  28.660 -0.2172  0.1019 -0.2266
92136W        W35053  18.265  22.254  25.904 -0.0571  0.0080 -0.0151
92137W        W35054  20.060  18.579  27.813 -0.0834 -0.2009 -0.1507
92138W        W35055  18.895  20.191  27.917 -0.1884 -0.0953 -0.2313
92139W        W35056  18.092  18.873  25.765  0.0710 -0.0653  0.0739
92140W        W35057  21.305  17.608  28.187  0.2543  0.2779 -0.1541
92141W        W35058  17.953  21.017  25.414 -0.0114  0.0827 -0.1021
92142W        W35059  21.447  16.949  23.863 -0.1316 -0.1015 -0.1857
92143W        W35060  19.078  18.809  24.737  0.0566 -0.0352  0.0362
92144W        W35061  20.402  18.858  26.402  0.3813  0.2178  0.1160
92145W        W35062  20.831  18.421  28.477 -0.0390 -0.2369  0.1027
92146W        W35063  20.205  19.050  25.841 -0.0305 -0.0128  0.1845
92147W        W35064  18.709  17.599  28.775 -0.0168  0.3623  0.2045
92148W        W35065  20.439  18.907  30.315 -0.1169  0.1711  0.0972
92149W        W35066  19.538  19.196  25.627 -0.3325  0.1623 -0.1023
92150W        W35067  22.331  19.870  29.888  0.0616  0.0682 -0.4000
92151W        W35068  18.089  21.102  29.930  0.0390 -0.3527  0.3511
92152W        W35069  17.128  18.181  25.245  0.1050  0.0151 -0.0345
92153W        W35070  21.169  20.472  24.763 -0.1959  0.0756  0.2954
92154W        W35071  21.269  20.139  30.234 -0.1392  0.1497 -0.1266
92155W        W35072  19.574  21.582  26.013 -0.0821  0.0258  0.3833
92156W        W35073  19.121  20.575  27.208  0.1807  0.1200 -0.0172
92157W        W35074  19.755  21.307  27.211  0.0151 -0.0112  0.2585
92158W        W35075  17.668  19.347  26.767 -0.0142  0.3779  0.1573
92159W        W35076  21.035  19.479   0.244 -0.1258  0.0994 -0.1152
92160W        W35077  18.365  20.878  29.021 -0.0857  0.0661  0.0126
92161W        W35078  19.876  17.341  25.257  0.0342 -0.0529 -0.1384
92162W        W35079  19.694  18.303  25.980  0.1092 -0.0080  0.2377
92163W        W35080  20.423  19.441  29.200 -0.1878  0.1323  0.2103
92164W        W35081  22.293  19.981  25.765 -0.0959  0.0285 -0.2724
92165W        W35082  20.870  18.729  28.924 -0.1085  0.0108 -0.1609
92166W        W35083  19.169  17.578  23.893 -0.2303  0.4084 -0.0440
92167W        W35084  19.097  20.903  25.089  0.0239  0.0864  0.2062
92168W        W35085  18.351  20.680  26.601 -0.4445 -0.2119 -0.0957
92169W        W35086  20.658  21.368  30.376 -0.1923  0.0273  0.1533
92170W        W35087  21.330  19.127  24.229  0.1068  0.0928 -0.2727
92171W        W35088  20.286  21.548  27.798 -0.4086 -0.1976  0.1285
92172W        W35089  18.651  17.250  29.714  0.2076 -0.1527  0.0894
92173W        W35090  20.536  20.774  29.146  0.0641 -0.2558 -0.1420
92174W        W35091  17.624  21.269  26.484  0.2762  0.1773  0.1565
92175W        W35092  19.128  19.451  28.115 -0.1441 -0.0576 -0.2479
92176W        W35093  18.900  21.453  26.156  0.0779 -0.3451  0.0661
92177W        W35094  17.966  18.255  27.499  0.2441 -0.4248  0.2340
92178W        W35095  18.416  21.152  29.492  0.1194 -0.3738 -0.1585
92179W        W35096  20.013  18.540  24.422  0.0290  0.0095 -0.2717
92180W        W35097  18.816  17.986  26.128 -0.4427  0.1341 -0.2580
92181W        W35098  22.662  16.798  29.455 -0.0513 -0.0336 -0.1145
92182W        W35099  17.071  19.847  25.475 -0.0979 -0.3141  0.0922
92183W        W35100  20.272  19.957  28.464 -0.0151  0.0365 -0.3257
92184W        W35101  21.659  18.299  26.140  0.0320 -0.3180  0.1231
92185W        W35102  20.764  19.192  24.246  0.3300 -0.0886 -0.1910
92186W        W35103  16.734  19.112  26.130 -0.2704  0.0619 -0.1174
92187W        W35104  18.836  18.981  27.085  0.4558 -0.1054  0.0541
92188W        W35105  17.633  18.096  29.558  0.0862  0.0726 -0.3257
92189W        W35106  19.538  19.162  28.229  0.1481  0.3775 -0.0447
92190W        W35107  20.984  17.684  29.390  0.1122 -0.0355  0.1414
92191W        W35108  21.024  19.382  27.517 -0.1340 -0.1320 -0.0393
92192W        W35109  18.929  20.198  26.798 -0.3642  0.0911  0.1725
92193W        W35110  18.695  21.084  24.347 -0.0560  0.2573  0.0350
92194W        W35111  21.052  18.613  29.487  0.2025 -0.2601 -0.0663
92195W        W35112  18.794  20.570  28.915 -0.2284  0.3106 -0.1110
92196W        W35113  20.813  20.566  30.856  0.1599  0.0013 -0.4246
92197W        W35114  19.775  21.485  29.047  0.0446 -0.1070 -0.1822
92198W        W35115  19.997  18.113  28.817  0.0160  0.0664 -0.0166
92199W        W35116  19.490  19.098  26.098  0.1930  0.0788 -0.0221
92200W        W35117  18.868  20.940  26.122  0.0863  0.1798  0.2705
92201W        W35118  17.097  21.186  26.676 -0.0172 -0.2705  0.1703
92202W        W35119  19.618  19.629  24.496 -0.1168 -0.0578 -0.1310
92203W        W35120  21.064  24.337  29.877  0.0439  0.1183 -0.0144
92204W        W35121  19.523  20.117  28.607 -0.0364 -0.3094 -0.1479
92205W        W35122  17.520  20.880  26.757  0.0046  0.2763 -0.0802
92206W        W35123  19.971  18.254  26.537  0.1465  0.1186  0.1806
92207W        W35124  20.748  21.022  29.938  0.4133 -0.4472 -0.1533
92208W        W35125  18.689  18.456  27.241  0.0385  0.0753 -0.1803
92209W        W35126  19.332  22.808  28.535  0.2344  0.1027 -0.0974
92210W        W35127  17.641  20.119  24.725  0.0481  0.1322 -0.0092
92211W        W35128  17.968  19.715  24.851 -0.0065 -0.0496  0.2032
92212W        W35129  20.148  21.066  27.001 -0.1711  0.3420  0.2342
92213W        W35130  19.274  17.915  25.821  0.1691  0.2717  0.1794
92214W        W35131  16.049  22.030  29.197  0.1605  0.5518  0.1427
92215W        W35132  17.919  19.205  30.218  0.0558 -0.1843  0.2059
92216W        W35133  18.820  20.123  27.415  0.0448 -0.1359  0.0488
92217W        W35134  17.418  20.472  29.740  0.1097 -0.1943  0.2026
92218W        W35135  19.919  20.397  23.375 -0.1524  0.0052  0.1448
92219W        W35136  20.346  17.356  24.209  0.2120  0.2119  0.1799
92220W        W35137  20.111  18.360  28.363  0.1955  0.2114 -0.0076
92221W        W35138  21.561  19.554  28.132  0.0846  0.1622  0.2438
92222W        W35139  20.037  17.937  24.293 -0.1486 -0.0617 -0.2573
92223W        W35140  19.295  17.981  24.102 -0.2994 -0.1230  0.5172
92224W        W35141  18.105  22.065  30.131  0.1706 -0.0994  0.1508
92225W        W35142  20.730  20.819  28.187 -0.1073 -0.2703  0.2030
92226W        W35143  20.247  20.674  28.207  0.1784 -0.0932 -0.0438
92227W        W35144  18.636  20.018  25.955 -0.3472  0.2101 -0.3312
92228W        W35145  19.252  21.353  28.875  0.0229  0.4402 -0.0970
92229W        W35146  18.700  20.176  31.471 -0.0157  0.1560  0.1969
92230W        W35147  20.866  19.729  29.964 -0.1787 -0.3203  0.0515
92231W        W35148  17.898  18.483  26.458 -0.0047  0.0472  0.0496
92232W        W35149  20.419  20.333  23.069  0.0717  0.1431  0.2692
92233W        W35150  20.888  19.197  28.066  0.2958 -0.0767  0.1251
92234W        W35151  17.589  21.517  24.428  0.0364  0.0173 -0.0305
92235W        W35152  21.743  17.774  29.491  0.0154  0.2299  0.0977
92236W        W35153  19.225  16.543  27.058 -0.3370  0.0347  0.3898
92237W        W35154  20.177  17.749  28.206  0.1781 -0.0003 -0.2177
92238W        W35155  20.751  18.668  29.920  0.1669  0.0291  0.3460
92239W        W35156  20.207  18.762  23.958  0.0878  0.2391  0.0746
92240W        W35157  18.840  18.830  27.608 -0.2319 -0.0253  0.3126
92241W        W35158  19.276  20.183  24.749 -0.1748 -0.4026 -0.1841
92242W        W35159  19.266  18.804  27.312 -0.3389 -0.0884  0.2486
92243W        W35160  19.610  19.827  29.431 -0.1516  0.0413  0.0408
92244W        W35161  17.953  21.558  29.247  0.1219 -0.0186  0.3007
92245W        W35162  19.202  19.321  30.227  0.0418 -0.3561 -0.0126
92246W        W35163  22.027  17.979  26.063  0.1327  0.2454 -0.0382
92247W        W35164  21.204  16.685  28.551  0.0844  0.0326  0.2361
92248W        W35165  17.411  17.249  26.322  0.3217  0.0503  0.3381
92249W        W35166  17.776  21.135  24.941 -0.0371  0.1406  0.0825
92250W        W35167  17.632  19.871  28.001 -0.0327 -0.2600 -0.0266
92251W        W35168  18.939  18.429  25.485  0.1763  0.1205 -0.0065
92252W        W35169  18.126  19.874  29.344 -0.1617 -0.3246  0.0016
92253W        W35170  18.906  20.705  26.731 -0.2950 -0.2234  0.2147
92254W        W35171  22.258  19.316  29.277  0.0940  0.0020 -0.1900
92255W        W35172  18.160  19.996  24.492  0.1662  0.1758 -0.0368
92256W        W35173  21.367  17.471  26.906 -0.1618 -0.1433 -0.0490
92257W        W35174  15.676  20.253  26.075 -0.0936  0.0050  0.0393
92258W        W35175  20.515  19.141  23.775  0.0172  0.0021  0.0506
92259W        W35176  19.805  19.658  23.127  0.0917  0.1472 -0.1048
92260W        W35177  17.307  18.337  26.282  0.1778 -0.1068  0.3579
92261W        W35178  18.791  17.223  26.434  0.1526  0.1098  0.0015
92262W        W35179  19.261  19.818  27.300  0.1531 -0.3027  0.0196
92263W        W35180  19.691  20.852  27.857 -0.0118 -0.3092 -0.1365
92264W        W35181  22.131  19.022  25.003  0.3683  0.0645  0.0477
92265W        W35182  22.685  16.838  30.463  0.1123  0.1851  0.1069
92266W        W35183  18.207  20.044  27.062 -0.1077 -0.1049  0.2684
92267W        W35184  21.849  19.977  29.723  0.0176  0.2484  0.3184
92268W        W35185  19.423  19.570  28.545 -0.0320 -0.1372 -0.0541
92269W        W35186  19.217  21.110  26.973  0.0509 -0.2549  0.2910
92270W        W35187  19.212  20.860  28.165  0.0488 -0.1523  0.4208
92271W        W35188  18.550  19.734  24.668  0.3202  0.1106 -0.0919
92272W        W35189  16.590  20.766  26.676 -0.2172 -0.0994 -0.0658
92273W        W35190  18.351  18.578  26.736  0.1798 -0.1210 -0.0426
92274W        W35191  20.061  19.489  27.490 -0.3616  0.0070 -0.1611
92275W        W35192  19.535  19.325  26.577 -0.1560  0.0441 -0.1570
92276W        W35193  18.707  19.266  24.562 -0.1644 -0.0021 -0.1372
92277W        W35194  20.553  20.189  27.046  0.1219 -0.1213  0.1436
92278W        W35195  21.881  20.674  30.446  0.3776  0.0676 -0.3469
92279W        W35196  20.881  19.287  28.847 -0.1410  0.0589  0.0702
92280W        W35197  19.005  20.393  28.384 -0.1422  0.2392 -0.0797
92281W        W35198  18.280  17.357  26.350 -0.1566  0.0404 -0.0546
92282W        W35199  20.561  20.496  27.477  0.0445 -0.2941 -0.4271
92283W        W35200  18.056  18.189  31.410 -0.1214 -0.0349  0.3520
92284W        W35201  18.942  19.622  25.150  0.1297 -0.0510  0.1542
92285W        W35202  15.983  19.530  26.596 -0.1296 -0.2124  0.0669
92286W        W35203  19.013  20.628  24.648  0.1880 -0.0487 -0.0119
92287W        W35204  19.101  19.141  28.654  0.0665  0.2727 -0.0066
92288W        W35205  17.584  20.030  27.146 -0.2705  0.1477  0.0957
92289W        W35206  17.710  20.253  24.267  0.4396  0.0836  0.0773
92290W        W35207  17.178  20.023  27.480  0.1253  0.2804 -0.1845
92291W        W35208  20.155  17.612  25.497 -0.0590 -0.1554  0.1170
92292W        W35209  19.458  19.255  24.224 -0.1021  0.0361  0.6164
92293W        W35210  20.481  18.096  26.577 -0.2209  0.1123  0.1378
92294W        W35211  21.912  18.199  30.472 -0.1079 -0.2281 -0.1130
92295W        W35212  20.737  18.178  24.310 -0.0225  0.1954  0.0482
92296W        W35213  20.242  16.564  28.770 -0.1578  0.0249 -0.1610
92297W        W35214  19.827  20.038  26.492  0.1481  0.1482  0.3568
92298W        W35215  20.115  19.997  26.925 -0.0812 -0.0928 -0.1092
92299W        W35216  18.591  20.020  30.196  0.1188 -0.0445 -0.1759
92300W        W35217  19.153  19.935  29.405 -0.1718 -0.1132 -0.0560
92301W        W35218  17.366  19.736  28.967 -0.1283  0.0104 -0.0300
92302W        W35219  19.613  19.067  24.745  0.0562 -0.0460  0.1744
92303W        W35220  18.508  23.138  27.194 -0.0285 -0.0572  0.0907
92304W        W35221  21.017  21.267  29.104  0.1762  0.4179 -0.2084
92305W        W35222  18.845  19.858  26.415 -0.2219 -0.2845  0.0553
92306W        W35223  20.602  18.566  30.662 -0.0727  0.3325  0.0405
92307W        W35224  18.570  19.805  27.946  0.2009  0.0037 -0.0612
92308W        W35225  19.189  18.299  26.132 -0.4494  0.0687 -0.2449
92309W        W35226  19.456  19.572  26.042 -0.0335  0.1275  0.0837
92310W        W35227  17.503  19.878  25.213  0.2098  0.2992  0.1405
92311W        W35228  18.842  18.380  28.097 -0.1714  0.2282 -0.0032
92312W        W35229  21.655  19.339  28.555  0.3756  0.5033 -0.0400
92313W        W35230  18.689  17.967  26.988 -0.3276 -0.3249 -0.2064
92314W        W35231  21.485  17.008  27.003 -0.0488  0.3447 -0.1414
92315W        W35232  19.654  16.774  27.861  0.2252 -0.0820  0.1863
92316W        W35233  20.148  17.651  29.818 -0.0779  0.1267  0.3567
92317W        W35234  16.408  17.854  29.683  0.1181  0.0988 -0.2989
92318W        W35235  20.259  21.618  28.808  0.2253  0.1534  0.1220
92319W        W35236  19.746  18.133  24.617 -0.2222  0.1552  0.1642
92320W        W35237  22.017  21.298  29.370  0.0755 -0.0394  0.0162
92321W        W35238  21.311  19.953  25.657 -0.1728  0.0790  0.1180
92322W        W35239  18.980  19.453  26.849 -0.0513 -0.1063 -0.0301
92323W        W35240  18.182  17.927  27.874 -0.0157  0.0121 -0.2881
92324W        W35241  18.963  20.758  30.304 -0.4733  0.1688  0.1911
92325W        W35242  19.352  19.339  23.634 -0.2740  0.0740 -0.2623
92326W        W35243  18.675  19.474  26.095  0.3011  0.2456  0.1097
92327W        W35244  19.842  21.573  25.571  0.2026 -0.1165 -0.0921
92328W        W35245  20.390  20.270  29.395 -0.1427  0.1126 -0.3375
92329W        W35246  19.486  18.423  25.486 -0.0007 -0.1705 -0.1533
92330W        W35247  18.538  19.443  28.902  0.0747  0.0411  0.2459
92331W        W35248  16.591  21.344  28.734  0.0230  0.2110  0.3382
92332W        W35249  19.190  19.697  24.097  0.1360 -0.0043 -0.1972
92333W        W35250  19.378  20.428  29.086 -0.2094 -0.1327  0.1699
92334W        W35251  20.104  18.744  30.620  0.0533  0.2385 -0.1464
92335W        W35252  19.543  17.570  24.717 -0.0682  0.4763  0.0725
92336W        W35253  20.153  18.932  28.236 -0.0088  0.0307  0.0799
92337W        W35254  17.409  19.151  25.013  0.0762  0.2401  0.0923
92338W        W35255  18.922  19.445  27.358  0.2424  0.1046 -0.2400
92339W        W35256  19.061  21.174  27.771 -0.0822 -0.1067 -0.2130
92340W        W35257  17.628  20.877  27.927 -0.1338 -0.0237 -0.3785
92341W        W35258  18.442  18.621  25.412 -0.1458 -0.2903 -0.1274
92342W        W35259  20.431  16.960  27.569  0.0464 -0.1815 -0.1324
92343W        W35260  21.347  18.801  27.463 -0.1278  0.0484 -0.5415
92344W        W35261  21.107  19.121  29.713  0.0835  0.1646  0.2186
92345W        W35262  21.087  19.572  29.499 -0.0330 -0.3518  0.4569
92346W        W35263  18.542  21.072  27.847  0.1560 -0.0519  0.0864
92347W        W35264  17.985  20.406  27.314 -0.2625 -0.2572  0.0930
92348W        W35265  19.539  20.871  27.353 -0.0360 -0.1363 -0.2512
92349W        W35266  21.586  18.827  29.429 -0.5032  0.2357  0.0578
92350W        W35267  18.524  20.390  27.035 -0.0286 -0.1097  0.2549
92351W        W35268  17.988  20.520  29.302 -0.1520  0.3492 -0.0547
92352W        W35269  18.434  18.658  30.719  0.2482  0.0760 -0.2872
92353W        W35270  19.606  18.716  29.182 -0.2438 -0.0545 -0.0367
92354W        W35271  18.654  18.536  25.884 -0.2929  0.0511 -0.1424
92355W        W35272  20.114  19.233  26.631 -0.1157  0.0125 -0.0220
92356W        W35273  17.529  19.420  28.238  0.1994  0.2444 -0.5411
92357W        W35274  18.234  18.652  27.264 -0.0457  0.0855 -0.0882
92358W        W35275  20.036  21.449  26.622 -0.1365 -0.0336  0.2283
92359W        W35276  21.329  19.323  30.103 -0.2268 -0.0060  0.0504
92360W        W35277  19.845  20.261  24.033  0.0788 -0.2474  0.3952
92361W        W35278  20.533  19.474  28.306 -0.1490 -0.3766 -0.0025
92362W        W35279  19.443  19.437  25.184  0.0582  0.3475  0.2567
92363W        W35280  17.602  22.065  24.735 -0.2759  0.0905 -0.4720
92364W        W35281  18.647  21.410  23.850  0.0182  0.0862 -0.1448
92365W        W35282  20.088  19.719  24.328  0.0582  0.0788 -0.0926
92366W        W35283  18.665  19.073  25.001  0.0207 -0.0915 -0.1160
92367W        W35284  19.552  20.529  30.577 -0.1929  0.1472 -0.0373
92368W        W35285  21.000  17.101  27.242  0.0124 -0.2002  0.2865
92369W        W35286  21.978  20.187  27.840  0.0344  0.1188  0.3785
92370W        W35287  21.826  16.529  27.927 -0.0266  0.2022 -0.0050
92371W        W35288  19.392  19.895  31.329  0.1629  0.1511  0.0125
92372W        W35289  19.510  18.313  28.844  0.0521  0.1311 -0.0130
92373W        W35290  19.993  19.481  28.525  0.1688  0.2962  0.1400
92374W        W35291  20.718  17.650  25.600  0.0254 -0.0202 -0.2723
92375W        W35292  20.684  19.223  29.936  0.3131  0.0423 -0.0782
92376W        W35293  21.848  17.783  23.376 -0.2018 -0.2170 -0.2080
92377W        W35294  18.728  19.859  29.132 -0.2621 -0.4507  0.6132
92378W        W35295  22.357  16.383  28.176  0.0425 -0.0843 -0.1648
92379W        W35296  19.987  20.591  22.908 -0.2964  0.1324 -0.1769
92380W        W35297  20.566  17.841  27.715 -0.0414  0.0105 -0.1380
92381W        W35298  19.058  22.549  27.200  0.1881 -0.0483 -0.1446
92382W        W35299  18.622  21.544  28.705  0.0202  0.2461  0.0771
92383W        W35300  19.322  20.283  26.480  0.4453  0.2014 -0.0115
92384W        W35301  20.825  18.551  27.176  0.0263  0.0537 -0.0239
92385W        W35302  18.560  19.962  29.672 -0.0463 -0.0699  0.2010
92386W        W35303  20.680  17.569  28.142 -0.1428  0.1388  0.0738
92387W        W35304  20.056  18.709  26.747 -0.1495  0.1568 -0.0572
92388W        W35305  19.381  19.785  26.509 -0.1944  0.3802 -0.0216
92389W        W35306  19.177  17.643  26.286 -0.0747  0.3167 -0.0968
92390W        W35307  16.351  18.715  29.580  0.1935 -0.0453  0.0077
92391W        W35308  20.354  18.981  25.359  0.2246 -0.0522 -0.1204
92392W        W35309  22.667  20.298  30.015  0.3597 -0.0464 -0.0144
92393W        W35310  19.387  20.123  24.256 -0.1280  0.3593 -0.0408
92394W        W35311  20.047  20.720  29.273  0.3005  0.2933  0.0241
92395W        W35312  17.769  19.362  25.427 -0.0405 -0.1865 -0.0691
92396W        W35313  20.287  16.932  24.499  0.0252 -0.0059  0.4332
92397W        W35314  17.053  18.807  27.183 -0.2387  0.0160  0.4393
92398W        W35315  19.842  18.629  27.220  0.1651 -0.2013 -0.1490
92399W        W35316  21.597  20.576  27.973 -0.2825 -0.2093 -0.1123
92400W        W35317  17.814  17.083  24.914 -0.3054  0.1172  0.1165
92401W        W35318  21.093  19.603  26.420  0.1568 -0.2961 -0.3406
92402W        W35319  19.854  18.311  30.910  0.0760  0.2175  0.1600
92403W        W35320  19.062  20.510  23.637 -0.1503 -0.1233 -0.3963
92404W        W35321  21.115  19.645  27.942 -0.0518 -0.0292  0.1788
92405W        W35322  18.752  21.162  29.009  0.4221 -0.0691 -0.1483
92406W        W35323  18.742  18.585  24.985 -0.2000 -0.0999  0.0604
92407W        W35324  20.853  19.673  25.958  0.2516  0.0017 -0.0391
92408W        W35325  22.087  19.474  29.687  0.1264 -0.0513  0.0627
92409W        W35326  20.117  18.050  27.387 -0.1304  0.1637 -0.2574
92410W        W35327  18.567  20.151  28.628  0.2148 -0.4042 -0.0090
92411W        W35328  17.857  20.306  27.831  0.0584 -0.1436  0.2042
92412W        W35329  22.944  18.374  29.592 -0.0467 -0.0118  0.4220
92413W        W35330  21.017  18.334  27.640 -0.1571  0.3313  0.0932
92414W        W35331  21.669  18.903  24.844  0.2092  0.0825 -0.1155
92415W        W35332  21.414  16.304  28.389  0.0629  0.1820  0.0427
92416W        W35333  21.220  18.666  30.825 -0.0584  0.0531  0.0672
92417W        W35334  19.938  19.439  29.631  0.0113  0.1970 -0.1486
92418W        W35335  18.518  20.438  24.433 -0.1086  0.1630 -0.3533
92419W        W35336  18.361  21.994  28.294  0.1247 -0.1646 -0.1532
92420W        W35337  19.207  19.129  27.675 -0.2318  0.0693  0.1453
92421W        W35338  20.463  19.435  25.586  0.1652 -0.0528 -0.0276
92422W        W35339  20.650  21.139  29.443 -0.2390  0.2570 -0.0992
92423W        W35340  18.053  20.287  26.338 -0.0467  0.1941 -0.1392
92424W        W35341  23.046  22.252  29.528 -0.2648  0.1512 -0.0393
92425W        W35342  18.515  19.042  25.818 -0.4041  0.1242 -0.1343
92426W        W35343  19.565  18.741  26.860 -0.1465  0.2210  0.1197
92427W        W35344  19.642  17.633  24.216  0.1220 -0.1010 -0.1278
92428W        W35345  17.902  20.540  26.835  0.1585 -0.1127 -0.1489
92429W        W35346  18.154  20.710  24.153  0.0117 -0.1417 -0.0393
92430W        W35347  19.713  21.061  26.746 -0.0931  0.1455 -0.0583
92431W        W35348  18.784  20.453  29.898  0.4550 -0.1821 -0.1718
92432W        W35349  20.428  16.626  25.432  0.0458 -0.0650  0.2064
92433W        W35350  18.170  19.451  25.812 -0.0529  0.0552  0.1211
92434W        W35351  18.414  20.250  28.122 -0.1380 -0.0533 -0.2119
92435W        W35352  18.985  18.902  24.238  0.1398  0.0148  0.2432
92436W        W35353  20.804  20.325  29.109 -0.0886 -0.1062  0.2353
92437W        W35354  18.339  18.772  26.264  0.0202  0.1536 -0.0205
92438W        W35355  17.968  17.060  26.577  0.1184  0.1226  0.2120
92439W        W35356  20.290  21.434  29.326  0.1011 -0.0326 -0.0657
92440W        W35357  20.437  19.557  29.664 -0.0653  0.1097  0.1164
92441W        W35358  19.662  17.632  26.818 -0.2183  0.0518  0.0350
92442W        W35359  20.775  20.784   0.648 -0.0034 -0.0069  0.2477
92443W        W35360  19.559  19.773  30.402 -0.1881  0.2053  0.1736
92444W        W35361  20.759  17.832  29.002 -0.0820  0.1940  0.1315
92445W        W35362  17.412  18.950  22.864 -0.4383 -0.2024  0.1828
92446W        W35363  19.454  19.343  27.271 -0.1061  0.1226 -0.2534
92447W        W35364  20.036  20.947  27.445  0.1293 -0.1768 -0.0881
92448W        W35365  22.974  20.495  29.085  0.0719  0.1780  0.2053
92449W        W35366  19.345  19.748  28.994  0.0957 -0.0907  0.0269
92450W        W35367  19.550  19.359  29.333  0.1457  0.1124  0.2412
92451W        W35368  17.891  19.635  27.071 -0.2668 -0.0158 -0.0209
92452W        W35369  19.910  18.721  26.294  0.0948 -0.0612  0.1139
92453W        W35370  19.838  19.718  28.995  0.0445  0.1761  0.0444
92454W        W35371  21.816  20.367  29.347  0.0850  0.1586 -0.3109
92455W        W35372  20.178  18.743  31.131  0.0186  0.2853 -0.0631
92456W        W35373  18.195  19.752  26.314  0.0428 -0.1068  0.1157
92457W        W35374  16.911  19.473  29.090  0.1622  0.1259  0.1138
92458W        W35375  18.995  19.749  27.747 -0.0104 -0.1339  0.2794
92459W        W35376  23.636  22.293  30.668 -0.0281  0.0744  0.2516
92460W        W35377  19.740  17.756  25.930  0.1772 -0.0774 -0.2177
92461W        W35378  18.909  18.292  24.638  0.3127  0.0205  0.2418
92462W        W35379  21.469  20.421  25.272  0.2178  0.3408  0.2483
92463W        W35380  18.374  20.185  27.639  0.0719 -0.0213  0.1666
92464W        W35381  19.485  20.055  26.902 -0.0004  0.0250 -0.1433
92465W        W35382  22.142  16.884  28.098  0.1864  0.0532  0.1070
92466W        W35383  19.953  20.097  25.531 -0.3081 -0.0355  0.0199
92467W        W35384  19.601  18.668  31.853  0.1988 -0.4093 -0.0142
92468W        W35385  19.207  19.417  24.705  0.1285  0.1732 -0.0685
92469W        W35386  20.334  17.310  27.966  0.3478 -0.0807 -0.0343
92470W        W35387  20.439  20.584  29.949 -0.0813  0.0895  0.1388
92471W        W35388  19.853  20.129  30.432  0.1120 -0.0701  0.0060
92472W        W35389  18.753  20.678  28.061  0.0456 -0.2932  0.0168
92473W        W35390  22.058  19.608  28.772 -0.2334  0.0865 -0.2266
92474W        W35391  18.715  19.256  27.853 -0.2927  0.1392 -0.1040
92475W        W35392  20.058  19.363  24.811 -0.1129  0.0961 -0.0583
92476W        W35393  18.306  19.569  26.744  0.2004 -0.0328  0.4274
92477W        W35394  20.794  18.402  26.257 -0.0093 -0.2498 -0.0782
92478W        W35395  19.272  21.100  26.473 -0.2138 -0.0447  0.2035
92479W        W35396  18.419  18.255  26.326 -0.4019  0.5378  0.1459
92480W        W35397  18.335  22.067  29.236 -0.0959 -0.2949 -0.1819
92481W        W35398  17.688  18.346  30.024 -0.1540 -0.1821 -0.0318
92482W        W35399  20.858  18.129  31.403  0.1531 -0.1695  0.0589
92483W        W35400  20.119  18.394  29.198 -0.2116  0.1932  0.0135
92484W        W35401  17.842  18.957  28.980 -0.0759  0.1308  0.1690
92485W        W35402  16.562  22.613  30.158  0.0510 -0.1417  0.5599
92486W        W35403  17.171  19.053  28.209  0.0926 -0.1212 -0.2109
92487W        W35404  18.802  20.933  29.741 -0.0842  0.1483  0.0762
92488W        W35405  20.640  18.313  28.978  0.3832  0.0276 -0.1068
92489W        W35406  20.016  17.666  27.729  0.4851 -0.0803  0.0120
92490W        W35407  19.049  18.569  28.871 -0.0970 -0.3039 -0.1954
92491W        W35408  22.200  20.520   0.422  0.3400 -0.1371 -0.2980
92492W        W35409  19.585  20.681  29.496  0.2333 -0.1053  0.3745
92493W        W35410  18.634  17.931  28.037 -0.1916  0.1316 -0.0133
92494W        W35411  19.058  20.942  29.335 -0.0186 -0.3082 -0.1787
92495W        W35412  16.723  19.769  27.917  0.1959  0.0145  0.1802
92496W        W35413  20.148  17.538  28.707  0.0856 -0.1913 -0.0409
92497W        W35414  18.634  21.948  30.767 -0.3132 -0.1119 -0.3708
92498W        W35415  18.760  21.161  30.493  0.0013  0.0867  0.0465
92499W        W35416  20.267  22.676  30.886  0.0472  0.0692 -0.0998
92500W        W35417  16.342  18.363  28.333  0.0469  0.2748  0.1586
92501W        W35418  18.553  18.502  29.126 -0.1333 -0.0509 -0.1151
92502W        W35419  17.726  17.655  29.770  0.1717  0.0610 -0.0894
92503W        W35420  18.799  21.310  26.646  0.0279  0.1395  0.3143
92504W        W35421  20.050  18.847  29.357  0.1500  0.0005 -0.0100
92505W        W35422  19.585  17.825  28.556 -0.0435 -0.1088 -0.1250
92506W        W35423  19.718  18.015  29.262  0.1668 -0.0516 -0.1199
92507W        W35424  19.011  18.312  29.829  0.0810  0.3372 -0.0034
92508W        W35425  21.098  18.666  28.032 -0.4789  0.0114  0.1203
92509W        W35426  16.685  20.532   1.452 -0.1012  0.0902  0.0278
92510W        W35427  17.796  19.929  28.937  0.0277 -0.0793  0.1160
92511W        W35428  19.573  19.547  30.947  0.1882 -0.0557 -0.2493
92512W        W35429  20.626  19.742  28.737 -0.0833 -0.0649 -0.0015
92513W        W35430  18.019  18.593  29.609  0.0082  0.2753 -0.2724
92514W        W35431  18.773  19.057  31.632  0.1535 -0.0247 -0.0974
92515W        W35432  21.289  17.917  29.725 -0.2878  0.0053  0.0334
92516W        W35433  18.006  19.422  29.077  0.1765 -0.0663  0.1756
92517W        W35434  18.941  19.602  29.767 -0.0831 -0.1501  0.1169
92518W        W35435  17.691  20.906  30.683 -0.0106 -0.1312 -0.2747
92519W        W35436  20.045  20.841  30.542 -0.2293  0.1961 -0.1357
92520W        W35437  20.048  17.351  31.150 -0.1257 -0.1490 -0.1943
92521W        W35438  19.537  19.150  30.591 -0.0948 -0.1880 -0.2056
92522W        W35439  20.983  18.175  29.298 -0.1111  0.1556 -0.0667
92523W        W35440  18.628  17.683  26.533  0.1126  0.2913  0.1338
92524W        W35441  17.487  18.989  28.611  0.0632 -0.1900  0.1853
92525W        W35442  20.312  21.982  29.700  0.1713  0.1509  0.2151
92526W        W35443  19.219  18.418  28.416 -0.0781 -0.1541 -0.4049
92527W        W35444  18.679  19.895  30.704  0.3339 -0.2664 -0.1508
92528W        W35445  19.020  18.140  30.368  0.1757  0.0703  0.1982
92529W        W35446  19.171  18.978  29.138  0.0175 -0.1550 -0.3776
92530W        W35447  20.383  19.114   0.074  0.1393 -0.3565 -0.1016
92531W        W35448  18.514  21.589  29.193 -0.0206  0.1849  0.2041
92532W        W35449  22.091  21.883  30.987 -0.0732  0.0075 -0.1448
92533W        W35450  18.969  16.732  29.131  0.1852 -0.2302  0.3279
92534W        W35451  18.988  18.113  26.598 -0.3482  0.2228 -0.1316
92535W        W35452  16.342  19.094  30.236  0.2114  0.1311 -0.0856
92536W        W35453  19.218  16.748  30.269 -0.4597  0.1398 -0.3896
92537W        W35454  19.233  17.826  29.958 -0.2403  0.1324  0.0597
92538W        W35455  20.970  18.837  30.402 -0.2736  0.0197 -0.0577
92539W        W35456  18.826  18.107  28.658 -0.2822 -0.0314 -0.0231
92540W        W35457  19.390  21.578  29.896  0.1363  0.0382 -0.2070
92541W        W35458  17.141  19.730  28.174 -0.0770  0.0072  0.0083
92542W        W35459  15.317  20.026  31.041 -0.2068 -0.2860  0.2353
92543W        W35460  17.369  19.872  29.795  0.1013 -0.3096  0.0249
92544W        W35461  17.861  20.681  29.884 -0.0317 -0.1140  0.1938
92545W        W35462  15.783  18.343  29.038 -0.0867 -0.1142 -0.1480
92546W        W35463  20.488  20.634  28.685 -0.1135  0.0333 -0.0240
92547W        W35464  20.196  18.683  29.848  0.2195 -0.3343  0.2843
92548W        W35465  18.391  18.138  29.407 -0.2642 -0.4060  0.2256
92549W        W35466  18.165  23.663  18.285  0.1580 -0.0555 -0.0241
92550W        W35467  18.684  24.000  17.012 -0.2315  0.0716  0.1424
92551W        W35468  20.813  23.543  17.097  0.0336  0.0761  0.0557
92552W        W35469  21.809  23.942  16.452  0.0090  0.0022  0.1629
92553W        W35470  17.890  25.161  17.255 -0.0674 -0.2715  0.1262
92554W        W35471  21.193  24.016  17.157 -0.0608  0.0755 -0.1935
92555W        W35472  16.471  22.650  17.370 -0.1177 -0.1687 -0.1258
92556W        W35473  20.004  25.512  15.655 -0.2866  0.2423 -0.1944
92557W        W35474  21.853  27.408  19.173 -0.1675 -0.0663  0.1027
92558W        W35475  21.649  24.024  15.747 -0.0189 -0.0288  0.0097
92559W        W35476  18.378  22.326  16.479  0.3945 -0.0237 -0.1179
92560W        W35477  20.854  25.505  19.827  0.1228  0.1431  0.0380
92561W        W35478  21.111  23.044  16.540 -0.1398 -0.2775  0.2815
92562W        W35479  18.195  20.471  16.027  0.0143 -0.2179 -0.2237
92563W        W35480  19.953  25.995  18.542  0.0015 -0.2431  0.0706
92564W        W35481  17.648  23.736  16.079  0.1930  0.1147 -0.2631
92565W        W35482  19.081  24.156  18.173  0.2014 -0.1355  0.2934
92566W        W35483  21.145  22.685  16.187  0.3064 -0.1867  0.1805
92567W        W35484  20.258  27.275  18.046  0.0582  0.1915  0.0097
92568W        W35485  20.693  22.077  18.429 -0.0981 -0.0327  0.1217
92569W        W35486  22.278  22.371  18.439  0.0613 -0.2122  0.1122
92570W        W35487  20.365  23.125  16.706  0.3133 -0.2120 -0.1670
92571W        W35488  18.688  23.472  16.058 -0.1112 -0.1599  0.1955
92572W        W35489  18.422  23.929  19.661  0.1658  0.2867 -0.0664
92573W        W35490  18.858  22.259  18.030  0.1156  0.3666 -0.2189
92574W        W35491  20.162  20.000  16.545  0.2534 -0.1560 -0.0194
92575W        W35492  20.716  22.518  17.916  0.1406 -0.2348 -0.1764
92576W        W35493  18.916  25.301  17.708  0.1538 -0.0242 -0.3307
92577W        W35494  21.041  24.981  18.046  0.1464 -0.1253 -0.0550
92578W        W35495  20.775  24.733  18.951 -0.1501 -0.2257  0.0308
92579W        W35496  18.287  21.469  18.177  0.0247 -0.2242 -0.0794
92580W        W35497  16.873  27.116  17.784 -0.2404  0.1404 -0.0627
92581W        W35498  19.750  25.945  17.950  0.3161 -0.1510  0.1903
92582W        W35499  21.508  24.802  16.329 -0.2831  0.3165  0.0740
92583W        W35500  22.986  26.683  20.370 -0.1083  0.1741 -0.2856
92584W        W35501  20.203  26.601  20.720  0.0165 -0.1238  0.3908
92585W        W35502  19.663  26.626  16.839 -0.1825  0.1301 -0.1386
92586W        W35503  20.733  26.689  19.878 -0.0554 -0.3585  0.3010
92587W        W35504  21.194  27.139  19.077 -0.1675 -0.0937  0.6481
92588W        W35505  20.555  21.779  16.674  0.1008 -0.1051 -0.1657
92589W        W35506  20.220  21.907  16.265  0.0022  0.0376  0.1041
92590W        W35507  18.623  26.571  17.901  0.1449  0.1798  0.3628
92591W        W35508  20.759  24.925  15.769 -0.1145  0.3248 -0.1057
92592W        W35509  20.932  23.857  18.801  0.1177 -0.1743 -0.1480
92593W        W35510  18.470  26.315  16.741  0.0057 -0.1726  0.2253
92594W        W35511  20.205  23.970  21.473 -0.1376  0.2421 -0.1195
92595W        W35512  19.633  24.757  16.583 -0.1999 -0.2377  0.3457
92596W        W35513  21.850  21.389  16.458  0.3459 -0.0899 -0.0513
92597W        W35514  20.609  24.429  16.359  0.0304 -0.0449 -0.0010
92598W        W35515  21.638  21.787  16.146 -0.2781  0.0636  0.2258
92599W        W35516  19.350  20.708  16.786  0.3387 -0.2601  0.0589
92600W        W35517  17.539  24.939  16.977 -0.1185 -0.1330  0.0462
92601W        W35518  19.261  22.691  18.118  0.0643 -0.0362 -0.0497
92602W        W35519  19.477  25.636  19.330 -0.2342  0.0395  0.0389
92603W        W35520  18.837  22.248  18.956  0.1222 -0.2769 -0.2845
92604W        W35521  20.195  21.648  17.181  0.2486 -0.2133  0.0383
92605W        W35522  18.311  24.890  17.192 -0.1398  0.1131  0.0440
92606W        W35523  17.032  25.493  17.022 -0.0163 -0.0688  0.1895
92607W        W35524  20.637  26.371  17.385  0.0520 -0.0092  0.2731
92608W        W35525  20.448  22.400  18.881 -0.0485  0.0902 -0.0691
92609W        W35526  20.759  28.075  18.301  0.1032 -0.1810 -0.3226
92610W        W35527  19.864  23.508  17.396  0.1003 -0.2104  0.3544
92611W        W35528  19.947  23.425  21.402  0.0417 -0.2052 -0.1053
92612W        W35529  18.637  23.564  19.401 -0.1620 -0.3222  0.4452
92613W        W35530  18.296  21.814  16.600  0.0652  0.2292  0.1032
92614W        W35531  22.127  26.871  20.126 -0.1466  0.0615 -0.1737
92615W        W35532  16.537  25.645  16.875 -0.0536 -0.0571 -0.2563
92616W        W35533  21.912  21.959  15.783  0.2017  0.0984  0.1223
92617W        W35534  20.692  24.773  16.905 -0.5119  0.0100 -0.0034
92618W        W35535  18.880  25.851  19.623  0.3847  0.0675  0.0970
92619W        W35536  22.417  23.642  16.519 -0.1865 -0.0011 -0.1748
92620W        W35537  20.211  22.701  19.849 -0.0911 -0.0149  0.1136
92621W        W35538  21.113  22.182  18.042  0.2021 -0.2457  0.2525
92622W        W35539  18.673  24.612  15.928 -0.0073  0.0488 -0.0067
92623W        W35540  19.987  23.044  17.085  0.0320 -0.2647  0.2187
92624W        W35541  20.652  25.953  18.679  0.2204 -0.1586 -0.0993
92625W        W35542  19.975  22.488  17.000 -0.1890  0.3152 -0.0438
92626W        W35543  19.080  25.599  16.483  0.0489  0.1488 -0.2830
92627W        W35544  20.148  23.523  20.382 -0.0155 -0.1552 -0.0457
92628W        W35545  19.307  25.014  20.305 -0.0738 -0.0462  0.1559
92629W        W35546  19.955  24.504  16.877 -0.3488  0.2226  0.1367
92630W        W35547  19.484  25.143  18.232  0.1912  0.4531  0.0577
92631W        W35548  20.044  25.854  16.664 -0.2962  0.1091  0.1008
92632W        W35549  18.035  22.119  16.849 -0.3159  0.0463 -0.2046
92633W        W35550  16.481  22.906  16.385 -0.1563 -0.0828  0.0701
92634W        W35551  21.500  19.528  17.647 -0.1869  0.3760  0.1020
92635W        W35552  21.744  23.126  18.511  0.2118  0.1518 -0.2131
92636W        W35553  22.620  21.136  17.675 -0.1278 -0.1581 -0.0611
92637W        W35554  18.993  25.061  16.459 -0.2513  0.0017 -0.0132
92638W        W35555  20.404  24.335  16.826 -0.2877 -0.0380 -0.3679
92639W        W35556  20.381  25.555  16.446 -0.0928  0.0829 -0.0831
92640W        W35557  22.145  25.828  17.565 -0.0392 -0.1100  0.0227
92641W        W35558  17.940  25.224  18.660  0.1484  0.1493  0.2797
92642W        W35559  18.980  23.705  17.853  0.3362  0.0154 -0.1904
92643W        W35560  19.924  21.485  18.751  0.2706 -0.0818  0.2316
92644W        W35561  18.427  21.960  17.861 -0.1519 -0.1666  0.0363
92645W        W35562  21.225  24.792  18.834 -0.2955  0.2753 -0.1977
92646W        W35563  19.119  19.812  14.275  0.3358 -0.1061 -0.2856
92647W        W35564  20.671  23.043  18.011  0.1913 -0.0235  0.0692
92648W        W35565  21.078  23.445  17.933 -0.0342  0.0230  0.3697
92649W        W35566  18.398  23.308  16.461 -0.0698 -0.0265 -0.0781
92650W        W35567  21.059  27.121  18.519  0.0836  0.4398  0.5107
92651W        W35568  20.131  26.507  17.110 -0.0786 -0.0054  0.2135
92652W        W35569  21.248  28.128  18.465  0.1314 -0.0933  0.1427
92653W        W35570  21.323  25.734  16.177 -0.1855 -0.0014  0.3750
92654W        W35571  21.632  24.698  19.265 -0.0933 -0.0966 -0.1584
92655W        W35572  18.306  21.868  16.068  0.0734 -0.1381 -0.0325
92656W        W35573  20.500  26.670  17.875  0.3498 -0.0701  0.0063
92657W        W35574  20.197  24.486  17.807 -0.0986  0.0507  0.0903
92658W        W35575  18.730  22.608  17.601 -0.3166  0.1388 -0.1338
92659W        W35576  23.632  26.458  18.523 -0.6435  0.2134 -0.0844
92660W        W35577  19.359  23.621  17.427 -0.1477 -0.0620  0.0589
92661W        W35578  18.424  24.505  18.059  0.0903 -0.1054  0.1202
92662W        W35579  19.741  23.329  19.993 -0.1388 -0.1725 -0.0911
92663W        W35580  20.685  23.500  18.502 -0.1999  0.0930  0.0338
92664W        W35581  22.474  23.064  17.896 -0.1556  0.0460  0.1059
92665W        W35582  19.378  22.292  15.080 -0.2211 -0.0666  0.0240
92666W        W35583  20.600  27.137  17.730  0.1276  0.0452 -0.1298
92667W        W35584  20.687  26.916  18.946 -0.2441 -0.0644 -0.0739
92668W        W35585  18.281  22.769  16.252  0.2375 -0.1063  0.2320
92669W        W35586  19.148  22.873  17.078  0.1429 -0.1398 -0.2535
92670W        W35587  21.596  23.396  19.133 -0.1193  0.0657  0.1025
92671W        W35588  18.415  22.957  19.386 -0.0515  0.2573  0.3484
92672W        W35589  20.545  23.022  19.593  0.1799  0.2124  0.0475
92673W        W35590  19.280  21.423  17.333 -0.1158  0.0992 -0.0476
92674W        W35591  18.698  21.921  16.332  0.0222 -0.1922 -0.0183
92675W        W35592  20.861  22.691  18.904  0.0670  0.0052  0.2238
92676W        W35593  22.836  21.608  18.908 -0.0526 -0.1056 -0.1270
92677W        W35594  20.140  26.301  18.051  0.1633 -0.1869  0.0765
92678W        W35595  20.275  23.200  17.637  0.3062 -0.2643  0.1015
92679W        W35596  21.626  21.319  15.885 -0.0843 -0.3496  0.2123
92680W        W35597  20.402  22.233  16.598  0.0816  0.2032  0.1009
92681W        W35598  17.767  25.078  19.134 -0.0276  0.1470 -0.2705
92682W        W35599  20.791  25.199  16.581  0.2622 -0.1828 -0.2271
92683W        W35600  20.100  25.637  17.687 -0.0952  0.2755 -0.4140
92684W        W35601  20.169  22.684  16.574 -0.2071  0.0618 -0.3126
92685W        W35602  21.863  24.487  15.529 -0.3062 -0.0322  0.1484
92686W        W35603  18.048  23.315  18.686  0.0058  0.1151 -0.0260
92687W        W35604  18.819  23.739  18.977 -0.2147  0.2376 -0.1745
92688W        W35605  20.287  24.791  15.534 -0.0054  0.0031  0.0353
92689W        W35606  20.654  22.635  18.406 -0.2930 -0.1565  0.1336
92690W        W35607  19.526  23.143  16.226  0.1196  0.1678  0.1477
92691W        W35608  18.990  23.169  17.491  0.0584 -0.1160 -0.1250
92692W        W35609  19.770  24.803  17.959  0.3395  0.1836  0.0642
92693W        W35610  19.914  24.592  19.367 -0.3781 -0.0504  0.0502
92694W        W35611  22.156  21.548  17.530  0.3305  0.1103 -0.2190
92695W        W35612  19.520  22.389  18.471 -0.2819 -0.1110 -0.3386
92696W        W35613  21.915  24.036  21.390 -0.3463 -0.3138 -0.2730
92697W        W35614  21.650  23.004  16.698 -0.0953  0.0350 -0.1595
92698W        W35615  20.566  23.080  18.739  0.0721  0.0017  0.0661
92699W        W35616  19.524  23.618  16.410  0.1932 -0.0633 -0.2743
92700W        W35617  20.185  24.634  18.336  0.1979  0.5136  0.1608
92701W        W35618  22.044  23.362  18.202 -0.2184 -0.2915  0.1484
92702W        W35619  18.977  25.495  17.081  0.0302 -0.0029 -0.5105
92703W        W35620  19.629  23.717  17.879  0.3928  0.0427 -0.3194
92704W        W35621  20.501  22.743  17.071  0.0195  0.2631  0.0815
92705W        W35622  19.628  23.512  19.529  0.2895 -0.4378  0.2686
92706W        W35623  21.336  22.749  17.075 -0.1647  0.0111 -0.4761
92707W        W35624  19.542  24.999  17.169 -0.0503 -0.1968  0.0511
92708W        W35625  19.162  24.642  16.317 -0.0636  0.1517 -0.0572
92709W        W35626  19.921  21.548  18.266  0.2083 -0.0843 -0.2084
92710W        W35627  19.478  24.761  18.988 -0.1924  0.0771  0.0245
92711W        W35628  18.898  24.299  16.622  0.0209  0.1085  0.0609
92712W        W35629  18.815  25.295  19.533  0.3644  0.1812 -0.0748
92713W        W35630  18.049  27.582  18.953 -0.0269  0.0408  0.2452
92714W        W35631  21.639  23.738  20.031 -0.3182  0.0439 -0.2125
92715W        W35632  19.579  23.818  16.879  0.4904 -0.0783 -0.3159
92716W        W35633  20.420  23.591  16.238  0.1865 -0.2227  0.0615
92717W        W35634  19.062  23.113  15.891  0.0231  0.1564 -0.1688
92718W        W35635  21.069  23.886  18.299  0.2699  0.0538 -0.1718
92719W        W35636  22.638  24.196  16.011 -0.1441  0.1396  0.3290
92720W        W35637  17.530  21.451  17.558 -0.0557 -0.1092  0.1631
92721W        W35638  18.021  22.778  17.742 -0.2139  0.0103 -0.3033
92722W        W35639  17.698  25.500  17.584 -0.1400  0.0440  0.0665
92723W        W35640  20.781  23.256  17.568  0.3617  0.3112 -0.0863
92724W        W35641  19.553  23.190  16.744 -0.0567  0.1730 -0.1137
92725W        W35642  20.550  25.146  18.163 -0.0544 -0.0574 -0.3326
92726W        W35643  19.361  23.304  17.906  0.2514 -0.1785  0.0096
92727W        W35644  14.921  23.488  17.759 -0.1523 -0.3047  0.2331
92728W        W35645  19.493  23.347  18.867 -0.0091  0.0220  0.2477
92729W        W35646  20.233  22.175  15.782 -0.0129  0.3699 -0.1507
92730W        W35647  20.053  24.458  16.390  0.0712  0.2612 -0.1192
92731W        W35648  21.833  26.444  18.158  0.1465  0.2993 -0.2867
92732W        W35649  18.488  24.559  16.871 -0.0248  0.3475  0.2487
92733W        W35650  18.296  23.601  16.893 -0.1419 -0.1288 -0.1205
92734W        W35651  21.129  23.671  20.001  0.3085  0.0972 -0.1353
92735W        W35652  20.280  25.414  20.387  0.0193 -0.3086  0.2625
92736W        W35653  20.046  24.046  18.041 -0.1083 -0.0148  0.3460
92737W        W35654  18.947  21.196  17.024  0.0519  0.0879  0.0523
92738W        W35655  19.397  22.081  17.938 -0.0005  0.1741  0.1181
92739W        W35656  21.628  24.065  16.932  0.3456 -0.0546 -0.0234
92740W        W35657  20.278  25.023  19.139 -0.1074 -0.1440  0.2422
92741W        W35658  18.920  25.022  19.916 -0.3500  0.0759 -0.0332
92742W        W35659  21.015  23.123  18.428  0.1264  0.0313  0.2607
92743W        W35660  23.361  26.062  17.834 -0.0837  0.2082 -0.4834
92744W        W35661  18.915  24.456  19.614 -0.2985 -0.2608  0.1259
92745W        W35662  18.455  23.530  15.613 -0.1073  0.0417  0.2055
92746W        W35663  18.137  24.709  20.409  0.3719  0.1793 -0.0235
92747W        W35664  20.139  25.922  17.169  0.0132 -0.0330  0.0836
92748W        W35665  18.993  23.187  18.715  0.3819 -0.1688 -0.0850
92749W        W35666  18.890  21.937  17.652  0.2478  0.0736  0.1566
92750W        W35667  16.496  25.208  17.631  0.1811  0.0040 -0.1595
92751W        W35668  19.785  26.139  16.948  0.0852  0.2574  0.2316
92752W        W35669  21.082  21.742  16.737  0.1251  0.0793  0.3332
92753W        W35670  21.211  24.425  16.430 -0.1947 -0.1015 -0.0616
92754W        W35671  17.949  21.204  17.415  0.0125 -0.3298  0.2874
92755W        W35672  21.414  26.219  18.313  0.1002 -0.0280 -0.1572
92756W        W35673  22.473  25.060  17.410  0.0313 -0.2425  0.0653
92757W        W35674  22.005  23.943  20.392  0.2192  0.1068 -0.0531
92758W        W35675  20.355  22.363  15.290  0.0127  0.2549  0.1108
92759W        W35676  20.636  25.273  16.102 -0.0713 -0.3405 -0.0150
92760W        W35677  16.815  22.905  20.964 -0.0992  0.2024 -0.0203
92761W        W35678  21.769  24.709  19.931 -0.0606 -0.1298  0.2593
92762W        W35679  18.732  24.233  18.770 -0.2279  0.1777  0.0474
92763W        W35680  19.422  21.907  17.450 -0.1070  0.3126 -0.1890
92764W        W35681  19.824  22.329  17.681  0.2596  0.0357  0.3110
92765W        W35682  20.501  24.167  18.325 -0.0031 -0.1236 -0.0261
92766W        W35683  21.937  22.439  17.583 -0.0911  0.0329  0.0602
92767W        W35684  21.279  24.877  15.845  0.0312  0.1007  0.1067
92768W        W35685  20.290  23.238  18.267  0.1178 -0.1702  0.0189
92769W        W35686  20.682  23.693  18.018  0.2542  0.1693  0.2106
92770W        W35687  19.999  22.362  16.232  0.0831 -0.0405 -0.0211
92771W        W35688  20.336  24.735  16.067  0.0253  0.1329 -0.1210
92772W        W35689  20.116  24.045  17.549 -0.2629  0.2461 -0.1304
92773W        W35690  18.727  23.017  16.233  0.2367 -0.0040 -0.0028
92774W        W35691  20.910  25.026  17.578 -0.1138  0.1740 -0.0877
92775W        W35692  20.223  23.701  18.405  0.0402 -0.3036  0.1420
92776W        W35693  21.843  20.575  17.520  0.0909  0.0380 -0.0895
92777W        W35694  21.575  24.047  18.196  0.1634  0.2655  0.0682
92778W        W35695  20.338  22.930  19.157  0.3158 -0.2353  0.0110
92779W        W35696  20.125  21.716  19.956 -0.1962  0.2380 -0.1050
92780W        W35697  20.566  25.428  17.590 -0.4025 -0.3253  0.4415
92781W        W35698  21.586  23.499  16.477  0.2944  0.0690  0.1232
92782W        W35699  22.886  23.322  19.450  0.0449  0.1704 -0.1370
92783W        W35700  21.906  22.768  17.019  0.1145 -0.0055  0.1727
92784W        W35701  19.731  25.431  17.913  0.3130 -0.0266 -0.0285
92785W        W35702  19.519  21.929  15.483 -0.0917  0.1094  0.2033
92786W        W35703  19.729  26.808  18.781 -0.0940  0.0008 -0.1260
92787W        W35704  17.957  22.591  16.596  0.0788  0.0815  0.0326
92788W        W35705  20.507  23.400  19.227 -0.1712  0.0446  0.0285
92789W        W35706  21.153  24.868  16.692  0.0010  0.0860 -0.1211
92790W        W35707  21.689  26.265  17.704  0.0918  0.1648  0.3337
92791W        W35708  20.762  23.370  16.630 -0.0680 -0.0209  0.3380
92792W        W35709  19.670  24.011  17.391  0.3235 -0.0292  0.1367
92793W        W35710  18.278  27.010  16.675 -0.2139  0.0954 -0.2880
92794W        W35711  19.406  21.436  15.362 -0.0468 -0.0443 -0.1456
92795W        W35712  20.265  25.477  16.902  0.0300  0.0367 -0.0510
92796W        W35713  19.258  24.081  17.696  0.1287 -0.0384 -0.0681
92797W        W35714  20.207  24.070  20.127 -0.2590 -0.1409 -0.3684
92798W        W35715  19.546  22.074  16.861 -0.1947 -0.0281  0.1731
92799W        W35716  20.592  24.162  17.770  0.0694  0.1124 -0.0662
92800W        W35717  19.909  24.634  17.434  0.2404  0.2627  0.2432
92801W        W35718  17.791  21.317  17.933 -0.0648 -0.2312  0.1043
92802W        W35719  20.103  26.451  17.597 -0.0002 -0.0039  0.1158
92803W        W35720  18.264  24.430  18.633 -0.1015 -0.2657 -0.1792
92804W        W35721  19.761  24.068  16.400  0.1316  0.2088 -0.0816
92805W        W35722  19.360  23.746  19.145  0.3377  0.2161 -0.1567
92806W        W35723  21.600  23.556  18.181  0.0319  0.0625 -0.3979
92807W        W35724  21.706  25.128  19.529  0.1737  0.2415  0.1020
92808W        W35725  21.382  24.512  19.653 -0.1681 -0.0793  0.0837
92809W        W35726  17.955  26.223  19.994  0.3176 -0.0512  0.2485
92810W        W35727  18.925  23.028  17.997 -0.1246 -0.1201  0.1569
92811W        W35728  18.016  25.658  19.401  0.2265  0.3585  0.1476
92812W        W35729  21.797  21.471  17.126 -0.0349  0.0285 -0.0218
92813W        W35730  19.353  24.528  17.563 -0.1010 -0.1137 -0.1332
92814W        W35731  19.539  23.606  20.456  0.1945 -0.0704  0.0537
92815W        W35732  18.402  24.011  19.163  0.2154 -0.1890 -0.0984
92816W        W35733  20.390  24.956  17.568  0.0076  0.1593  0.2593
92817W        W35734  18.325  21.333  16.837 -0.2321 -0.0044 -0.4908
92818W        W35735  19.426  25.188  16.256 -0.0427 -0.2444 -0.2608
92819W        W35736  19.952  26.907  18.364  0.1155 -0.1648  0.1162
92820W        W35737  19.223  23.932  18.705 -0.0770 -0.1463 -0.2536
92821W        W35738  18.732  24.966  16.943  0.1147 -0.1036 -0.1320
92822W        W35739  20.569  23.418  15.721  0.0440 -0.1052 -0.1434
92823W        W35740  21.019  24.386  16.889  0.2210 -0.1620  0.0095
92824W        W35741  19.621  26.516  18.397  0.2356 -0.0041 -0.2991
92825W        W35742  19.166  23.472  16.996 -0.1742 -0.0285  0.3708
92826W        W35743  19.059  25.017  17.327  0.1837 -0.3505 -0.3373
92827W        W35744  17.629  25.589  16.296  0.0741 -0.2194  0.0650
92828W        W35745  20.030  23.217  15.782 -0.2078  0.0917  0.1227
92829W        W35746  18.844  24.027  19.370 -0.1670 -0.2686  0.0324
92830W        W35747  19.947  25.524  22.218 -0.0488  0.2383 -0.0742
92831W        W35748  21.623  22.336  16.937  0.2460 -0.0853  0.0209
92832W        W35749  20.129  23.586  17.913  0.2549 -0.0891 -0.0708
92833W        W35750  21.455  21.893  17.143 -0.2446 -0.1305  0.1099
92834W        W35751  20.074  24.586  18.849  0.1430 -0.1559 -0.1020
92835W        W35752  18.344  24.373  17.285 -0.0042  0.2407  0.2345
92836W        W35753  18.831  22.433  16.340  0.0965 -0.2074 -0.2449
92837W        W35754  18.593  23.057  18.469  0.2490 -0.1015  0.2042
92838W        W35755  21.699  22.161  21.433 -0.4220  0.0073 -0.2368
92839W        W35756  18.091  25.708  17.803  0.2562  0.0418  0.0804
92840W        W35757  22.303  26.513  18.234  0.0295  0.0239  0.0711
92841W        W35758  17.579  22.160  15.300  0.1573  0.1946  0.1449
92842W        W35759  20.336  22.323  18.217  0.0259  0.0067  0.1255
92843W        W35760  23.110  22.930  19.151  0.0749  0.3701 -0.0106
92844W        W35761  22.527  26.048  17.304  0.2754  0.0420  0.1464
92845W        W35762  20.349  20.450  16.771 -0.1734  0.1069  0.1770
92846W        W35763  17.716  26.722  17.727  0.0452  0.2273  0.0353
92847W        W35764  18.689  23.259  16.844 -0.2902  0.2792  0.1476
92848W        W35765  19.267  24.891  19.423  0.0191  0.1369 -0.1207
92849W        W35766  19.061  22.911  15.422  0.0148 -0.0045  0.0023
92850W        W35767  19.646  24.253  17.847  0.0768  0.1309  0.1819
92851W        W35768  20.226  26.004  18.955  0.0176 -0.2232  0.4418
92852W        W35769  21.498  24.598  18.410  0.0774  0.1435  0.1261
92853W        W35770  19.152  22.143  16.029  0.2300 -0.0065  0.1841
92854W        W35771  21.123  22.549  16.684 -0.1968  0.4130  0.0092
92855W        W35772  19.267  24.439  18.686 -0.0901 -0.2768 -0.1579
92856W        W35773  18.282  25.359  18.285 -0.1302 -0.2249  0.0212
92857W        W35774  20.253  22.809  16.088  0.2239  0.0872  0.1366
92858W        W35775  21.617  22.881  19.245 -0.0969  0.4316  0.0218
92859W        W35776  19.629  22.221  15.900  0.0059 -0.2833  0.0215
92860W        W35777  19.159  24.961  18.592 -0.1006  0.1570  0.1535
92861W        W35778  19.161  22.883  16.490 -0.1125 -0.3302 -0.0515
92862W        W35779  18.682  22.119  16.798 -0.0317 -0.1421 -0.0106
92863W        W35780  18.223  24.807  19.059 -0.0865 -0.0958  0.0018
92864W        W35781  18.562  25.852  17.167  0.0282  0.1146 -0.4429
92865W        W35782  21.389  25.848  17.979  0.0727 -0.1262  0.0156
92866W        W35783  17.985  21.587  16.288 -0.1921  0.1794 -0.0679
92867W        W35784  21.725  25.245  16.388  0.1153  0.1139  0.4096
92868W        W35785  19.704  24.247  18.875  0.0416 -0.1226 -0.4506
92869W        W35786  19.999  27.842  16.287 -0.1766  0.2858 -0.0140
92870W        W35787  19.695  25.844  17.481 -0.0657  0.0402  0.0315
92871W        W35788  21.834  26.745  17.527  0.0858  0.0498  0.0788
92872W        W35789  19.780  23.787  20.016  0.2700 -0.1138  0.2037
92873W        W35790  20.168  26.863  18.922 -0.0398 -0.0413 -0.0817
92874W        W35791  19.017  24.561  19.137 -0.1891 -0.2259  0.1749
92875W        W35792  22.054  23.255  16.377 -0.1899  0.1863  0.3496
92876W        W35793  19.387  25.031  17.680 -0.2580 -0.1036 -0.0942
92877W        W35794  17.565  25.491  17.078  0.2849  0.1762 -0.1584
92878W        W35795  21.250  20.752  15.299  0.1837  0.1504  0.0184
92879W        W35796  20.463  23.738  18.851 -0.0329  0.1276  0.1263
92880W        W35797  19.464  26.801  17.561 -0.2482 -0.2333  0.2996
92881W        W35798  23.281  24.161  19.378 -0.1302  0.0372  0.3696
92882W        W35799  17.853  26.128  18.607 -0.0935 -0.1080  0.3380
92883W        W35800  18.688  27.059  16.999  0.0399  0.0770  0.0225
92884W        W35801  19.397  24.323  16.652 -0.0660 -0.1288 -0.3065
92885W        W35802  20.211  24.231  19.644 -0.1617 -0.4232 -0.2072
92886W        W35803  17.699  23.417  16.870 -0.1042 -0.1239 -0.1131
92887W        W35804  20.359  24.902  16.527  0.0148  0.3237  0.4004
92888W        W35805  20.542  27.637  17.883  0.1395 -0.0513 -0.1572
92889W        W35806  20.022  23.593  16.674 -0.0671  0.2126 -0.0611
92890W        W35807  21.062  24.307  18.643 -0.0335 -0.0072  0.3384
92891W        W35808  19.069  21.879  17.115 -0.1830  0.1379  0.2480
92892W        W35809  23.544  22.760  17.173  0.1105  0.1977 -0.0446
92893W        W35810  21.616  21.090  14.918  0.0410  0.0664 -0.0391
92894W        W35811  20.383  24.731  21.033  0.1665 -0.0264 -0.1035
92895W        W35812  17.088  24.864  16.759  0.2902  0.1227  0.0795
92896W        W35813  19.871  25.218  16.751 -0.1468 -0.1883  0.0520
92897W        W35814  18.439  23.363  17.285 -0.0820  0.1341  0.0140
92898W        W35815  21.645  23.811  19.550 -0.1369  0.0177 -0.1167
92899W        W35816  19.470  20.543  18.196 -0.2695 -0.1580 -0.0222
92900W        W35817  17.335  23.607  17.229 -0.0024 -0.0346 -0.1638
92901W        W35818  16.855  21.634  15.886 -0.0731  0.0671  0.0266
92902W        W35819  21.333  25.771  15.662 -0.1548  0.2051  0.2525
92903W        W35820  18.442  23.004  17.712  0.0496  0.0675  0.2153
92904W        W35821  18.272  25.910  18.384  0.2069  0.1881  0.0174
92905W        W35822  21.898  24.857  16.689  0.1750  0.0906  0.2760
92906W        W35823  21.067  26.946  16.632  0.1877  0.3962 -0.1255
92907W        W35824  21.961  20.980  17.028 -0.2274 -0.1850  0.2173
92908W        W35825  20.877  25.741  17.797  0.1517 -0.1859 -0.1425
92909W        W35826  19.358  25.934  18.278 -0.0295  0.0294  0.0918
92910W        W35827  20.127  26.149  20.893 -0.1509 -0.0155  0.3018
92911W        W35828  20.555  22.324  20.897 -0.1812  0.0068  0.1839
92912W        W35829  18.427  21.824  15.516  0.1806  0.2155 -0.1200
92913W        W35830  20.185  22.702  18.564 -0.0131  0.3179 -0.2087
92914W        W35831  21.024  26.234  17.906 -0.0952 -0.0773 -0.1641
92915W        W35832  20.011  26.877  17.865  0.0997 -0.0055  0.2044
92916W        W35833  18.948  25.111  19.064  0.1669 -0.3222 -0.0435
92917W        W35834  21.380  26.591  17.945 -0.2496 -0.0333  0.1771
92918W        W35835  19.391  21.457  18.753  0.1939 -0.1706  0.0597
92919W        W35836  19.657  25.647  16.520  0.2375  0.2711  0.2411
92920W        W35837  18.492  23.236  18.981 -0.1917 -0.2897 -0.1750
92921W        W35838  21.953  24.422  16.950 -0.3290 -0.4483 -0.1490
92922W        W35839  22.023  24.099  18.686  0.3282 -0.1317  0.0903
92923W        W35840  18.812  23.627  17.288  0.1687  0.1328 -0.0139
92924W        W35841  20.394  21.770  18.975  0.2498 -0.0771  0.1255
92925W        W35842  19.256  21.648  20.286  0.2941  0.0102 -0.3056
92926W        W35843  20.526  25.538  18.983 -0.0519 -0.0673  0.2302
92927W        W35844  19.543  23.032  15.628  0.2088  0.2333 -0.1733
92928W        W35845  21.477  22.358  17.428  0.0291  0.2834  0.0163
92929W        W35846  18.714  25.089  18.470  0.0151  0.0461  0.1549
92930W        W35847  18.762  24.759  21.163  0.0733  0.1395  0.0263
92931W        W35848  18.777  22.605  15.861  0.1575  0.2374  0.1366
92932W        W35849  19.288  23.628  20.042  0.0239 -0.2170  0.2875
92933W        W35850  19.511  23.135  17.276  0.2533  0.0583  0.1117
92934W        W35851  21.181  24.379  18.068 -0.0040 -0.0289  0.1423
92935W        W35852  19.149  23.874  16.644  0.1123 -0.1138  0.0018
92936W        W35853  20.699  23.079  16.126 -0.0476  0.0299  0.1669
92937W        W35854  19.193  24.065  17.177 -0.0708  0.0343  0.2240
92938W        W35855  22.095  27.980  20.140  0.1335  0.0614  0.2055
92939W        W35856  20.491  26.829  18.349 -0.1082  0.1648  0.1950
92940W        W35857  19.970  25.210  17.477 -0.3083 -0.3881  0.2484
92941W        W35858  16.799  23.288  18.139 -0.2439 -0.0842 -0.4775
92942W        W35859  19.083  23.377  16.437 -0.0916  0.3509 -0.2716
92943W        W35860  21.169  25.508  17.432 -0.4344 -0.2607  0.3252
92944W        W35861  20.991  24.315  19.171 -0.3473 -0.1105 -0.1090
92945W        W35862  19.751  22.969  18.426 -0.4210  0.1194 -0.2397
92946W        W35863  19.429  22.382  16.397  0.0361 -0.1061  0.0566
92947W        W35864  18.300  25.975  21.405  0.3115  0.0119  0.1170
92948W        W35865  19.413  22.830  17.608 -0.1035 -0.1138  0.0776
92949W        W35866  19.509  23.499  22.599 -0.2394  0.0216  0.0520
92950W        W35867  19.788  23.966  19.384 -0.0365 -0.1884 -0.0539
92951W        W35868  21.751  21.892  17.550  0.2521 -0.1754 -0.1581
92952W        W35869  20.357  23.781  20.771 -0.0600 -0.0660  0.2235
92953W        W35870  18.806  23.532  21.394  0.3694  0.5333 -0.2987
92954W        W35871  22.330  27.877  18.588 -0.2011 -0.1843 -0.3676
92955W        W35872  20.008  21.395  21.028  0.1212  0.0938  0.1874
92956W        W35873  21.801  23.646  24.401  0.4242 -0.0664 -0.4063
92957W        W35874  23.242  25.324  24.360  0.0988  0.0647 -0.0610
92958W        W35875  19.787  23.066  21.111 -0.2167  0.1975  0.1908
92959W        W35876  17.979  21.917  22.121 -0.0264 -0.1910 -0.0898
92960W        W35877  17.999  26.259  23.035 -0.0332  0.2230 -0.1429
92961W        W35878  18.840  22.704  20.856 -0.3194 -0.3287  0.2261
92962W        W35879  16.041  23.482  20.312  0.0723  0.1529  0.1826
92963W        W35880  22.148  25.584  22.155 -0.1756  0.1415  0.3870
92964W        W35881  20.823  24.554  20.631  0.0670  0.0289  0.2760
92965W        W35882  20.653  22.797  21.816  0.1321 -0.1999  0.4559
92966W        W35883  19.143  23.501  21.774  0.2789 -0.0883  0.3300
92967W        W35884  18.780  26.256  22.261  0.1501  0.1018  0.2836
92968W        W35885  19.954  24.439  23.924  0.0440 -0.0604 -0.2960
92969W        W35886  19.491  26.398  24.021  0.1997  0.1685 -0.1445
92970W        W35887  20.264  25.358  21.762 -0.1055 -0.0195  0.2678
92971W        W35888  19.737  24.350  20.173  0.0140 -0.1484 -0.0202
92972W        W35889  17.199  26.469  19.459 -0.0471  0.2787  0.0986
92973W        W35890  18.347  25.430  21.267 -0.0903  0.0367  0.0162
92974W        W35891  22.406  22.360  24.616  0.1979 -0.0227 -0.3161
92975W        W35892  19.748  25.904  22.633  0.0517 -0.2352 -0.0831
92976W        W35893  18.103  25.269  22.597 -0.2141 -0.3433  0.0756
92977W        W35894  21.894  27.231  21.151  0.0378 -0.0546 -0.0809
92978W        W35895  19.727  24.374  22.914 -0.3736 -0.1281  0.1659
92979W        W35896  17.465  24.001  20.595  0.0072 -0.2603 -0.2594
92980W        W35897  18.657  25.814  21.101  0.1385 -0.0705 -0.0751
92981W        W35898  19.103  25.523  20.710  0.1184 -0.1318 -0.2226
92982W        W35899  21.144  25.028  20.812  0.0065 -0.1082 -0.0292
92983W        W35900  21.496  27.061  25.098  0.0172 -0.1174  0.1318
92984W        W35901  18.491  26.364  22.858 -0.0664 -0.0307  0.0380
92985W        W35902  19.190  26.337  19.845  0.1372  0.1194 -0.2318
92986W        W35903  21.379  26.251  22.222  0.0359  0.3214  0.0413
92987W        W35904  19.506  25.210  22.106 -0.1123 -0.1015  0.0058
92988W        W35905  20.267  25.855  22.894  0.2873  0.2319  0.2282
92989W        W35906  19.391  23.982  19.675 -0.1216  0.3428 -0.1784
92990W        W35907  17.939  25.164  20.484 -0.2992 -0.1419  0.1979
92991W        W35908  21.852  25.334  23.927  0.3776 -0.1172 -0.2173
92992W        W35909  19.844  26.326  24.409 -0.1717 -0.0447 -0.1398
92993W        W35910  20.787  26.184  22.355  0.0008 -0.0628 -0.1079
92994W        W35911  21.092  23.651  24.042  0.1667  0.1879 -0.2549
92995W        W35912  19.857  25.523  19.643  0.1504 -0.0851 -0.1177
92996W        W35913  21.909  24.568  18.174  0.3389 -0.2558  0.1746
92997W        W35914  20.365  23.107  21.528  0.2421  0.2731 -0.0398
92998W        W35915  21.829  24.182  20.894  0.1378  0.1819  0.0632
92999W        W35916  21.550  22.729  23.240  0.0876 -0.5491  0.0172
93000W        W35917  19.889  26.197  23.011 -0.1299  0.2474  0.4103
93001W        W35918  19.892  21.277  21.535  0.2861  0.1938  0.0802
93002W        W35919  21.607  25.477  22.319  0.2782 -0.0291 -0.4014
93003W        W35920  18.896  24.139  21.419 -0.0663 -0.2638  0.4220
93004W        W35921  20.428  24.421  22.338 -0.1979  0.1833  0.1545
93005W        W35922  19.863  25.007  22.392 -0.0634  0.2736  0.0886
93006W        W35923  17.019  24.193  21.260 -0.1457  0.3240 -0.0427
93007W        W35924  20.073  24.683  20.036 -0.0226 -0.1468 -0.1862
93008W        W35925  22.756  24.341  22.273 -0.1781 -0.0453 -0.1901
93009W        W35926  20.447  25.996  17.754  0.0443 -0.2989  0.1680
93010W        W35927  18.104  22.850  18.887 -0.3376  0.0299 -0.1991
93011W        W35928  20.672  25.694  22.633  0.2478  0.0592 -0.0268
93012W        W35929  17.604  25.837  21.935 -0.2185  0.1285 -0.0907
93013W        W35930  20.481  21.904  20.345 -0.0016 -0.0494 -0.0794
93014W        W35931  22.373  25.207  23.909  0.0837  0.1561  0.1184
93015W        W35932  17.708  26.842  21.130 -0.0799 -0.2162  0.2211
93016W        W35933  20.331  22.471  23.736  0.1019 -0.2834  0.0950
93017W        W35934  20.266  23.778  23.118 -0.1919  0.2105  0.3266
93018W        W35935  21.364  25.658  24.069  0.3072  0.0975  0.0261
93019W        W35936  19.357  25.473  17.416  0.1183 -0.2551 -0.1979
93020W        W35937  18.801  22.230  20.561 -0.0915 -0.0972 -0.1176
93021W        W35938  20.915  23.042  21.440  0.0668  0.1669 -0.3427
93022W        W35939  20.027  25.078  20.811  0.0021 -0.0629 -0.1532
93023W        W35940  20.565  25.142  20.797 -0.2347  0.1632 -0.0662
93024W        W35941  21.398  23.327  25.351 -0.1062  0.0966 -0.0368
93025W        W35942  21.354  24.164  20.050  0.3623 -0.1917  0.2356
93026W        W35943  19.770  27.245  23.349  0.0611 -0.0794 -0.0956
93027W        W35944  20.206  25.234  23.247  0.1484  0.1145 -0.1329
93028W        W35945  18.733  26.814  25.465 -0.3465  0.0243 -0.1827
93029W        W35946  18.614  25.285  17.329 -0.1639  0.3895  0.2891
93030W        W35947  18.481  25.548  20.720  0.0030  0.0877  0.1178
93031W        W35948  18.798  24.430  20.523 -0.2529 -0.0569  0.0768
93032W        W35949  16.738  24.144  20.303 -0.0091  0.0188 -0.1768
93033W        W35950  20.869  25.229  21.196 -0.2274 -0.0804  0.1561
93034W        W35951  21.769  22.920  21.167  0.2821  0.3208  0.1266
93035W        W35952  19.081  21.350  20.686 -0.1890 -0.0915 -0.1534
93036W        W35953  21.972  25.197  21.028 -0.0909 -0.1011  0.0444
93037W        W35954  17.462  25.078  20.641  0.0130 -0.3142 -0.5563
93038W        W35955  21.055  26.398  20.970  0.2475 -0.4049 -0.2581
93039W        W35956  20.684  25.133  19.404 -0.0700 -0.3064 -0.1176
93040W        W35957  21.046  25.241  19.056  0.1431  0.3138  0.0974
93041W        W35958  17.760  23.854  22.360  0.0724  0.2188  0.0381
93042W        W35959  19.326  23.678  21.354  0.0580 -0.0566  0.3807
93043W        W35960  18.040  23.431  22.642 -0.1645 -0.0409  0.0843
93044W        W35961  15.040  22.925  21.267 -0.2563 -0.0917 -0.0947
93045W        W35962  18.437  26.006  23.261 -0.1999 -0.1203  0.1369
93046W        W35963  20.568  22.781  20.227  0.3440  0.1814 -0.0588
93047W        W35964  20.113  23.657  22.560 -0.1212 -0.1043  0.1059
93048W        W35965  19.550  22.218  20.645 -0.2437 -0.0963  0.2314
93049W        W35966  18.336  24.102  20.821  0.1294 -0.1555 -0.0729
93050W        W35967  22.090  20.786  22.138 -0.0500 -0.1153 -0.0875
93051W        W35968  22.372  27.032  21.070 -0.0374  0.2431  0.4822
93052W        W35969  22.162  27.214  23.901 -0.2224 -0.0452 -0.0899
93053W        W35970  21.194  24.706  21.976  0.0789  0.0095 -0.4399
93054W        W35971  18.813  23.045  22.332  0.1205 -0.1351  0.0387
93055W        W35972  19.251  25.409  21.184  0.3814  0.1403 -0.1986
93056W        W35973  18.377  25.290  18.898  0.0249  0.0403 -0.2112
93057W        W35974  18.253  25.103  20.888 -0.0030 -0.0229 -0.0108
93058W        W35975  19.879  23.983  20.541  0.0545 -0.2257 -0.0604
93059W        W35976  21.140  24.460  22.423  0.0145 -0.0363 -0.0626
93060W        W35977  20.788  23.452  21.716  0.0977 -0.0073  0.1061
93061W        W35978  19.056  24.025  23.249  0.3734 -0.1947  0.0242
93062W        W35979  19.532  24.088  23.844  0.0984  0.3026  0.1668
93063W        W35980  20.133  25.419  23.837 -0.2142 -0.2541  0.1200
93064W        W35981  20.194  24.862  21.603  0.1410 -0.1136 -0.0197
93065W        W35982  20.092  23.285  18.763  0.1761 -0.2031 -0.1915
93066W        W35983  21.145  24.799  19.327 -0.4005 -0.5876 -0.3705
93067W        W35984  20.036  26.726  19.679 -0.0821  0.2050 -0.0393
93068W        W35985  18.956  25.104  21.512  0.0930 -0.1027  0.1947
93069W        W35986  22.027  24.984  23.584 -0.1037  0.2085  0.0096
93070W        W35987  20.430  23.546  21.306 -0.0981 -0.1175  0.1418
93071W        W35988  17.359  23.966  22.051 -0.0883 -0.0612  0.0301
93072W        W35989  18.860  23.597  23.228 -0.0005 -0.1202  0.1530
93073W        W35990  17.933  22.178  19.975  0.2718  0.0341  0.0140
93074W        W35991  16.375  25.686  20.732 -0.0338  0.1486  0.2126
93075W        W35992  23.416  20.990  20.788  0.2055 -0.0705  0.0724
93076W        W35993  21.085  24.654  20.161  0.2684 -0.0810  0.1983
93077W        W35994  19.633  24.854  23.844 -0.0765  0.0621 -0.2053
93078W        W35995  20.660  26.100  21.728 -0.2937  0.6115 -0.1650
93079W        W35996  20.181  23.711  19.776  0.3640  0.2601 -0.0794
93080W        W35997  21.033  24.339  21.671 -0.1412  0.1659  0.0735
93081W        W35998  17.131  26.236  22.872  0.1057  0.1840 -0.1525
93082W        W35999  19.944  23.663  23.479 -0.0646  0.2271  0.0299
93083W        W36000  21.276  25.441  18.679  0.2173  0.1126  0.1685
93084W        W36001  19.830  23.676  20.918  0.1832 -0.4513  0.3238
93085W        W36002  19.671  23.851  21.915 -0.1089 -0.0572  0.0275
93086W        W36003  16.254  25.696  21.257  0.2654  0.0895 -0.2006
93087W        W36004  21.054  26.877  24.904  0.0485  0.3493 -0.0813
93088W        W36005  20.944  25.867  21.259  0.0144  0.2923 -0.0629
93089W        W36006  19.669  22.575  22.455  0.0651 -0.0727 -0.0955
93090W        W36007  17.788  24.745  18.727  0.1642 -0.0196 -0.3251
93091W        W36008  20.219  24.087  24.494 -0.1331  0.1082 -0.0465
93092W        W36009  18.520  24.470  19.188 -0.0313 -0.2930 -0.4855
93093W        W36010  20.823  23.948  21.357  0.2667  0.1063 -0.0135
93094W        W36011  20.141  24.115  22.717 -0.1914 -0.0095 -0.0656
93095W        W36012  18.309  23.201  22.167  0.2671 -0.1500  0.1338
93096W        W36013  21.013  25.663  23.710  0.0129  0.0219 -0.1964
93097W        W36014  19.599  24.796  19.867  0.0042 -0.0132 -0.0179
93098W        W36015  20.029  24.395  21.866 -0.5998  0.3132 -0.1696
93099W        W36016  18.870  24.047  19.902  0.2374  0.0654 -0.4041
93100W        W36017  18.303  22.959  21.752  0.1583  0.3038 -0.3552
93101W        W36018  18.134  24.178  23.600  0.0213  0.2008  0.0918
93102W        W36019  17.073  23.806  21.629  0.0425  0.2239  0.0875
93103W        W36020  21.551  25.555  23.214  0.2781  0.2025  0.1650
93104W        W36021  20.771  24.837  22.379  0.0067  0.1236  0.1327
93105W        W36022  19.920  24.479  22.411  0.0481  0.0020 -0.1211
93106W        W36023  18.309  23.316  21.317 -0.1395 -0.0942 -0.1283
93107W        W36024  18.951  26.991  20.261 -0.1869 -0.1124 -0.0300
93108W        W36025  18.884  26.005  20.100  0.1537  0.2069  0.2524
93109W        W36026  21.568  21.301  20.873  0.1520 -0.0618  0.0785
93110W        W36027  20.495  26.104  21.259  0.0991 -0.1837  0.1627
93111W        W36028  19.636  26.150  18.907 -0.1509 -0.0463 -0.0584
93112W        W36029  20.988  25.686  21.834  0.4732 -0.0612  0.0859
93113W        W36030  19.266  23.679  18.236 -0.1887  0.1154  0.2579
93114W        W36031  19.426  22.403  22.885  0.1747 -0.1402  0.0794
93115W        W36032  16.477  25.745  20.217  0.0775 -0.0020 -0.2223
93116W        W36033  18.707  22.783  20.370 -0.0350  0.1594  0.3066
93117W        W36034  20.324  27.011  21.021  0.1608  0.0258 -0.0039
93118W        W36035  21.924  22.248  22.393  0.1364  0.2411 -0.0210
93119W        W36036  21.996  23.243  18.903 -0.0243 -0.0090  0.0772
93120W        W36037  18.433  24.619  22.009 -0.2789  0.1328  0.1562
93121W        W36038  21.101  23.592  22.973 -0.1866  0.0464  0.0516
93122W        W36039  17.780  26.813  23.524  0.1526 -0.0833  0.3510
93123W        W36040  21.687  24.343  22.397  0.2459 -0.0346 -0.3363
93124W        W36041  19.387  23.426  20.886  0.4107 -0.1490  0.0863
93125W        W36042  20.454  26.217  24.460  0.2031  0.2472  0.0969
93126W        W36043  18.355  24.333  24.257  0.0716 -0.0824 -0.1093
93127W        W36044  18.455  22.498  19.142 -0.0810 -0.2291  0.1819
93128W        W36045  20.366  22.119  23.258 -0.0018  0.0055  0.1995
93129W        W36046  20.582  21.160  22.402 -0.0991 -0.1407  0.3817
93130W        W36047  19.669  26.615  21.592  0.2628 -0.1108  0.1387
93131W        W36048  20.454  24.663  24.168 -0.0146  0.0530 -0.1109
93132W        W36049  21.607  22.275  21.963  0.1496 -0.2359  0.1980
93133W        W36050  18.114  25.818  22.739 -0.1033 -0.1612 -0.1290
93134W        W36051  19.573  25.353  24.025  0.0841 -0.3087 -0.3786
93135W        W36052  20.759  24.425  22.747  0.0968 -0.0252 -0.3908
93136W        W36053  18.790  23.658  25.162 -0.0686  0.1372  0.1054
93137W        W36054  19.333  24.513  20.668  0.1451 -0.0050  0.1986
93138W        W36055  19.353  24.014  20.789 -0.0685  0.0419  0.2904
93139W        W36056  20.472  25.731  24.518  0.1870 -0.0827  0.0754
93140W        W36057  19.449  23.480  24.052 -0.2451 -0.1097 -0.0156
93141W        W36058  19.087  26.904  23.793 -0.2344 -0.3089  0.1352
93142W        W36059  19.287  23.189  21.284 -0.0552 -0.0571  0.1905
93143W        W36060  23.085  23.730  19.658  0.1093  0.0002 -0.0274
93144W        W36061  18.551  25.941  23.991  0.1930 -0.1293  0.1204
93145W        W36062  17.975  24.104  19.473 -0.1649 -0.1014 -0.0624
93146W        W36063  16.989  26.350  20.462 -0.0094 -0.2333 -0.1762
93147W        W36064  20.591  25.588  21.481 -0.2210 -0.0769  0.0664
93148W        W36065  20.231  23.292  23.284  0.0552  0.0328 -0.0469
93149W        W36066  20.346  24.821  22.648 -0.0199 -0.1269 -0.3059
93150W        W36067  18.874  24.903  21.960 -0.1438 -0.3048 -0.2013
93151W        W36068  18.101  27.629  24.863 -0.0881  0.0838 -0.3496
93152W        W36069  20.779  23.534  20.942  0.2086  0.1303 -0.1409
93153W        W36070  19.711  24.784  18.558  0.0276  0.1536  0.2782
93154W        W36071  21.422  23.149  22.239  0.2461 -0.1968 -0.0478
93155W        W36072  20.290  22.944  22.893 -0.5684 -0.1224 -0.1134
93156W        W36073  20.370  25.880  19.513  0.2226  0.1338  0.1161
93157W        W36074  21.568  23.525  24.881 -0.0824 -0.1710  0.0321
93158W        W36075  19.289  23.242  22.288 -0.0490  0.2197  0.0422
93159W        W36076  22.132  22.781  22.548  0.1861  0.3639 -0.2796
93160W        W36077  18.442  23.051  22.690 -0.2605 -0.2310  0.1238
93161W        W36078  20.566  25.694  23.985 -0.1901 -0.1208  0.1839
93162W        W36079  19.233  24.259  22.436  0.3487 -0.1881  0.0234
93163W        W36080  19.385  23.570  23.111  0.0140 -0.0738 -0.0782
93164W        W36081  19.664  21.936  20.071  0.2443  0.2136 -0.3338
93165W        W36082  20.663  25.359  23.448 -0.2410 -0.1211 -0.2980
93166W        W36083  21.843  24.580  23.270  0.1057  0.1998  0.2742
93167W        W36084  22.221  24.478  22.894  0.2533 -0.2304  0.3561
93168W        W36085  21.676  25.070  22.559  0.1196 -0.3534 -0.0083
93169W        W36086  17.476  25.457  21.360 -0.4055  0.1255 -0.4049
93170W        W36087  19.360  22.817  20.892 -0.1224  0.0851  0.0236
93171W        W36088  20.729  25.157  21.913  0.0166 -0.0378 -0.1270
93172W        W36089  19.894  24.719  21.243  0.1348 -0.0997  0.2593
93173W        W36090  20.053  22.367  21.020 -0.1730 -0.1805 -0.0742
93174W        W36091  23.132  24.228  23.941  0.2096  0.0826  0.0715
93175W        W36092  20.293  22.653  22.337  0.2509 -0.2853 -0.2142
93176W        W36093  21.048  20.128  24.074 -0.1277  0.3319  0.0369
93177W        W36094  20.483  24.989  23.809  0.3037  0.0391  0.0029
93178W        W36095  19.481  24.782  22.623 -0.1249 -0.0632 -0.4391
93179W        W36096  18.317  24.771  23.486  0.0928 -0.1582  0.1399
93180W        W36097  23.139  26.800  23.170  0.3838 -0.2550  0.1837
93181W        W36098  21.794  24.102  21.966  0.2460 -0.5559  0.3952
93182W        W36099  19.219  23.902  24.312 -0.1209 -0.0790 -0.0581
93183W        W36100  19.293  24.055  20.244  0.0684 -0.2493 -0.0255
93184W        W36101  19.996  23.144  19.500 -0.1028  0.0571 -0.2865
93185W        W36102  17.088  22.791  21.376  0.1291 -0.1384  0.0082
93186W        W36103  19.246  24.499  23.053 -0.1857  0.2300  0.0530
93187W        W36104  18.127  23.117  18.200  0.0114 -0.0869  0.0797
93188W        W36105  20.837  21.374  21.365 -0.1356  0.3042 -0.1839
93189W        W36106  19.523  27.581  21.358  0.0306  0.4017 -0.0176
93190W        W36107  21.121  24.984  22.672 -0.4128 -0.0314  0.0065
93191W        W36108  19.048  23.311  19.192  0.0066  0.1757  0.2698
93192W        W36109  16.552  23.920  20.965 -0.0462  0.0978 -0.0946
93193W        W36110  19.486  28.386  24.866  0.0510  0.2010  0.2292
93194W        W36111  18.800  22.362  17.178  0.1892 -0.3301  0.0554
93195W        W36112  20.843  25.539  20.313  0.0448  0.0617  0.1707
93196W        W36113  20.122  24.728  23.094 -0.0111 -0.0378  0.0533
93197W        W36114  19.952  25.227  26.284  0.0016  0.1748  0.0990
93198W        W36115  21.134  22.096  22.041 -0.0541 -0.0065 -0.2037
93199W        W36116  20.482  26.033  25.045 -0.0777  0.1628 -0.0429
93200W        W36117  20.784  27.232  19.346  0.2067 -0.1563  0.0733
93201W        W36118  20.756  23.035  20.984  0.1481  0.0618  0.3376
93202W        W36119  18.537  27.038  23.304  0.0488  0.4506  0.1695
93203W        W36120  15.800  24.852  21.743  0.2273 -0.1445  0.1403
93204W        W36121  18.373  25.494  23.062  0.1612  0.1402 -0.1436
93205W        W36122  19.437  22.595  23.381 -0.0186 -0.0592  0.0253
93206W        W36123  20.043  23.958  23.860 -0.2599 -0.2988 -0.3095
93207W        W36124  18.635  24.123  24.768  0.1377  0.0513  0.0493
93208W        W36125  22.084  23.443  24.834  0.0967 -0.0012 -0.2260
93209W        W36126  20.247  25.036  24.580  0.3052 -0.0977 -0.2551
93210W        W36127  20.287  25.991  22.442 -0.2992 -0.0665  0.1202
93211W        W36128  19.706  25.969  23.921 -0.0180  0.1557 -0.2264
93212W        W36129  21.000  23.413  22.555 -0.1509 -0.2896  0.1748
93213W        W36130  19.761  25.520  21.734  0.3211  0.1810 -0.3829
93214W        W36131  17.058  23.308  21.453 -0.0478  0.0906 -0.2157
93215W        W36132  16.468  25.046  22.796  0.0107 -0.1493  0.0253
93216W        W36133  21.243  25.284  19.543 -0.4570 -0.1378  0.0828
93217W        W36134  18.759  22.336  22.056 -0.0444 -0.2723 -0.0455
93218W        W36135  20.708  26.610  22.554  0.1552  0.1050 -0.2283
93219W        W36136  16.949  24.825  25.212  0.3080  0.0021  0.1848
93220W        W36137  18.888  26.376  21.047 -0.0254  0.1797 -0.2040
93221W        W36138  17.528  24.395  19.652  0.0527 -0.1239 -0.0722
93222W        W36139  20.689  24.831  21.448  0.1015 -0.0886  0.0867
93223W        W36140  20.586  24.249  18.809 -0.1159 -0.0644 -0.1659
93224W        W36141  19.153  26.164  23.727 -0.2718  0.2054  0.1915
93225W        W36142  20.261  24.876  22.133 -0.2001 -0.0813  0.1002
93226W        W36143  20.073  25.758  21.447  0.1746 -0.2079 -0.1771
93227W        W36144  18.380  27.440  21.026 -0.0488 -0.0735 -0.0705
93228W        W36145  19.808  26.027  19.336  0.1465 -0.0535 -0.0830
93229W        W36146  17.227  25.473  20.836 -0.0205 -0.2512 -0.1623
93230W        W36147  20.083  24.835  23.569 -0.1383 -0.2691  0.2462
93231W        W36148  22.512  23.479  20.057  0.0629  0.1009 -0.2935
93232W        W36149  22.407  25.591  22.966 -0.1368 -0.1914 -0.1205
93233W        W36150  21.861  22.342  20.777 -0.1755  0.2902  0.1513
93234W        W36151  21.396  25.921  23.571 -0.0481  0.2123  0.0161
93235W        W36152  19.322  25.359  23.269  0.0466  0.1464  0.0391
93236W        W36153  20.510  21.490  20.976 -0.2309  0.3594  0.0822
93237W        W36154  18.865  24.163  22.791 -0.1450  0.0697 -0.0788
93238W        W36155  20.590  23.640  22.357 -0.2062 -0.1687 -0.0686
93239W        W36156  19.375  27.266  23.670  0.2009  0.0929 -0.2938
93240W        W36157  20.483  26.477  21.998  0.1010 -0.0358  0.2438
93241W        W36158  19.620  21.443  20.000  0.0530 -0.0906 -0.4292
93242W        W36159  18.486  24.957  21.552 -0.2485 -0.0373 -0.0724
93243W        W36160  21.495  23.347  22.671 -0.2765  0.0360  0.3441
93244W        W36161  19.824  24.781  20.441  0.0683  0.1247  0.1062
93245W        W36162  21.214  22.605  22.062  0.0186  0.0589 -0.0280
93246W        W36163  20.177  26.292  21.589 -0.1100 -0.1234  0.0652
93247W        W36164  21.464  26.735  21.850 -0.3287 -0.1110  0.0622
93248W        W36165  20.163  26.880  23.190 -0.1551  0.2332 -0.1111
93249W        W36166  19.767  21.677  17.793  0.0280  0.2767  0.2239
93250W        W36167  21.187  23.513  21.362 -0.1790 -0.1483  0.1867
93251W        W36168  20.102  23.993  22.145  0.0023 -0.3562  0.0074
93252W        W36169  21.259  22.259  23.324  0.1923  0.1458  0.3261
93253W        W36170  17.903  24.868  22.258 -0.2718  0.2775  0.1649
93254W        W36171  23.512  23.082  22.638 -0.0237 -0.0284  0.1474
93255W        W36172  19.873  25.400  24.447  0.0641 -0.0647  0.2304
93256W        W36173  19.304  24.718  22.092 -0.2569  0.0645  0.0642
93257W        W36174  18.400  26.233  19.108 -0.2352  0.2643  0.2691
93258W        W36175  18.678  26.342  23.677 -0.0447  0.2056  0.0750
93259W        W36176  20.082  24.192  18.532 -0.1796 -0.0245 -0.1233
93260W        W36177  18.889  27.337  26.320 -0.5477 -0.0234  0.1808
93261W        W36178  20.163  22.449  22.734  0.1755  0.4323 -0.0413
93262W        W36179  20.642  24.624  21.917 -0.3050 -0.1107 -0.0209
93263W        W36180  20.066  24.312  20.982  0.1172  0.1433  0.1651
93264W        W36181  19.733  25.249  23.532  0.2376  0.0630  0.3757
93265W        W36182  20.941  25.998  24.047 -0.0768  0.1762  0.0298
93266W        W36183  19.257  24.043  21.765  0.0696  0.1867 -0.1056
93267W        W36184  20.346  25.220  21.260  0.0328 -0.2896 -0.0209
93268W        W36185  22.899  23.175  22.613 -0.2420 -0.0556  0.1995
93269W        W36186  20.367  25.073  19.978  0.1759 -0.1786 -0.2158
93270W        W36187  20.453  24.472  19.186  0.1028  0.0064 -0.0836
93271W        W36188  23.302  26.608  25.765 -0.2532 -0.0407  0.3182
93272W        W36189  16.352  24.456  20.637 -0.2748  0.1140 -0.0871
93273W        W36190  22.837  25.099  21.732 -0.0286  0.2317 -0.1873
93274W        W36191  22.638  22.828  22.373  0.0258 -0.1452 -0.1892
93275W        W36192  20.097  22.661  21.604  0.0270 -0.1050 -0.2487
93276W        W36193  19.635  22.837  21.624 -0.3957 -0.4067  0.0872
93277W        W36194  19.404  25.844  19.822  0.0350  0.1253 -0.0546
93278W        W36195  20.596  23.459  22.843 -0.1259  0.2322 -0.0892
93279W        W36196  19.916  24.666  24.491  0.2454  0.1716  0.1616
93280W        W36197  21.034  26.335  20.387  0.0022 -0.0358 -0.0427
93281W        W36198  20.315  21.337  22.783  0.2703  0.0537  0.1863
93282W        W36199  20.941  25.519  20.792 -0.2313  0.1810 -0.0390
93283W        W36200  19.416  26.201  23.007 -0.0986  0.0452  0.0594
93284W        W36201  17.447  23.784  19.735 -0.4669 -0.0565  0.0322
93285W        W36202  18.624  27.021  23.802  0.1609  0.1195 -0.1702
93286W        W36203  19.320  25.718  23.614 -0.2891  0.0053  0.2636
93287W        W36204  20.114  25.927  24.186  0.1660 -0.4389 -0.0232
93288W        W36205  21.321  25.421  22.752 -0.1069 -0.1196 -0.0588
93289W        W36206  20.446  25.274  22.358 -0.0783  0.3789  0.0508
93290W        W36207  21.637  26.747  20.426  0.4185  0.0975  0.0637
93291W        W36208  20.588  24.566  20.026 -0.1611 -0.0834  0.1093
93292W        W36209  21.292  23.041  21.051  0.2125 -0.1343  0.3213
93293W        W36210  22.171  21.254  20.147  0.0330 -0.0355  0.3295
93294W        W36211  19.792  23.802  22.945 -0.2040 -0.0395  0.0041
93295W        W36212  18.900  24.202  20.959  0.2409  0.0722 -0.1425
93296W        W36213  19.475  25.598  20.272  0.3420 -0.1078 -0.1717
93297W        W36214  18.326  25.207  19.426 -0.0364 -0.1015 -0.0458
93298W        W36215  17.261  23.210  23.673  0.4788  0.1486 -0.0684
93299W        W36216  15.912  24.045  21.466  0.0748  0.0476  0.0372
93300W        W36217  18.764  23.512  22.280 -0.1548  0.2048 -0.0214
93301W        W36218  17.510  23.507  20.823 -0.2485 -0.0813 -0.2249
93302W        W36219  19.887  26.408  20.210  0.1206  0.0582  0.1727
93303W        W36220  19.419  22.995  22.724  0.0513  0.0343 -0.0391
93304W        W36221  18.785  22.424  20.043  0.0913  0.2329 -0.4232
93305W        W36222  20.562  25.680  22.143 -0.1180  0.0460 -0.0708
93306W        W36223  20.261  24.426  20.537 -0.1008  0.3936 -0.1034
93307W        W36224  19.398  24.465  21.169  0.3831 -0.1195  0.1704
93308W        W36225  23.063  25.712  25.718  0.0498  0.1318  0.3528
93309W        W36226  19.072  23.424  20.479 -0.1768 -0.1306 -0.0190
93310W        W36227  20.596  23.080  22.551 -0.1387  0.0651  0.1602
93311W        W36228  19.320  21.966  21.302  0.1189 -0.0228 -0.1578
93312W        W36229  18.119  20.271  17.045 -0.2110 -0.1126  0.0548
93313W        W36230  18.673  24.320  25.563  0.0939  0.4380  0.0830
93314W        W36231  18.342  23.612  21.728  0.1038  0.4040  0.2509
93315W        W36232  20.438  26.425  20.273  0.2198 -0.3394 -0.0958
93316W        W36233  21.726  24.729  22.026  0.1750 -0.1726  0.0030
93317W        W36234  21.952  25.604  20.661  0.2119 -0.0862  0.0530
93318W        W36235  18.806  23.838  21.869  0.1429  0.0486 -0.0615
93319W        W36236  22.205  25.167  22.567  0.1638  0.2095  0.1313
93320W        W36237  19.200  25.492  21.740 -0.2209  0.0702 -0.0349
93321W        W36238  22.387  24.824  20.649  0.0536  0.5242  0.1636
93322W        W36239  20.777  23.038  23.026  0.1447 -0.0087 -0.0985
93323W        W36240  20.976  22.717  23.420 -0.1789 -0.2725 -0.0304
93324W        W36241  17.841  21.755  21.610 -0.6456 -0.0329 -0.3283
93325W        W36242  17.611  25.511  22.697 -0.0162 -0.0644 -0.1324
93326W        W36243  21.745  23.932  23.938 -0.1271 -0.3172 -0.1576
93327W        W36244  18.484  24.393  21.460 -0.0508  0.0339  0.0627
93328W        W36245  19.461  24.380  19.408 -0.2598 -0.1285  0.1648
93329W        W36246  19.385  27.149  20.560 -0.2223 -0.2488  0.0139
93330W        W36247  19.426  24.950  21.116  0.0357 -0.1035 -0.1660
93331W        W36248  18.935  23.715  20.955  0.2581 -0.2778 -0.0989
93332W        W36249  18.560  24.544  23.853  0.0437 -0.3106  0.0675
93333W        W36250  21.564  25.020  23.079 -0.0195 -0.0614  0.2371
93334W        W36251  19.844  25.682  23.157  0.1432 -0.4781 -0.3723
93335W        W36252  20.055  23.561  19.160 -0.2000  0.2302 -0.0022
93336W        W36253  22.266  23.964  21.737  0.4661 -0.0979 -0.0106
93337W        W36254  22.662  26.701  25.026  0.2094  0.1464 -0.0220
93338W        W36255  21.379  26.279  24.895 -0.0695 -0.1569  0.0739
93339W        W36256  18.822  25.383  23.068 -0.1626  0.1510 -0.1698
93340W        W36257  21.031  26.083  24.576  0.2355 -0.0605  0.0948
93341W        W36258  17.949  23.758  20.797  0.0684  0.0223  0.3033
93342W        W36259  19.608  25.339  20.687 -0.0980  0.2095  0.2023
93343W        W36260  19.183  22.158  20.233  0.1534 -0.0216  0.0283
93344W        W36261  22.178  22.910  22.020  0.1182  0.0827 -0.0342
93345W        W36262  19.613  20.927  21.347 -0.0603 -0.0191 -0.1671
93346W        W36263  20.356  23.286  20.006  0.1439  0.0662  0.1540
93347W        W36264  19.058  26.006  21.885 -0.0709 -0.2467 -0.2450
93348W        W36265  19.705  24.591  23.378  0.0068  0.1449 -0.3940
93349W        W36266  19.565  24.306  26.350 -0.5210  0.4117 -0.3179
93350W        W36267  19.372  26.132  24.405  0.0229  0.3461  0.0304
93351W        W36268  17.855  24.051  25.143 -0.3631 -0.2716  0.0696
93352W        W36269  21.062  25.719  26.753 -0.4790  0.1785 -0.1064
93353W        W36270  19.285  24.907  23.456  0.1667 -0.3205 -0.2472
93354W        W36271  18.760  24.369  26.110  0.2161  0.0465 -0.0322
93355W        W36272  19.358  19.938  25.209  0.1737 -0.2314 -0.1922
93356W        W36273  22.517  22.946  27.882 -0.3519 -0.1103  0.1017
93357W        W36274  22.073  24.577  26.993 -0.1909 -0.0716  0.3010
93358W        W36275  21.621  24.394  24.051 -0.1275  0.2292  0.2399
93359W        W36276  19.318  21.114  25.973  0.0341  0.1677  0.1469
93360W        W36277  20.633  23.041  26.471  0.0047  0.1629  0.1964
93361W        W36278  18.917  21.425  23.390 -0.0470 -0.0363 -0.2996
93362W        W36279  18.041  22.815  22.435  0.1901  0.2613  0.0199
93363W        W36280  19.538  22.224  26.699  0.2270 -0.1045  0.1442
93364W        W36281  18.787  24.597  22.369 -0.0699  0.0654  0.1244
93365W        W36282  18.240  21.257  24.175 -0.0750 -0.1313  0.3807
93366W        W36283  19.603  25.001  23.087 -0.4985 -0.3192  0.3588
93367W        W36284  18.387  25.016  24.926 -0.5594 -0.1317  0.2071
93368W        W36285  18.798  20.454  25.718  0.5705  0.0592 -0.1361
93369W        W36286  18.084  20.761  25.005  0.0388 -0.1220  0.0163
93370W        W36287  21.523  26.361  26.904 -0.1277  0.1995  0.2680
93371W        W36288  17.460  22.994  21.615 -0.0924  0.1318 -0.0887
93372W        W36289  18.436  20.162  25.438 -0.0947 -0.2834  0.2636
93373W        W36290  19.340  23.084  23.190 -0.3235 -0.0873  0.0783
93374W        W36291  20.275  21.832  26.389 -0.0891 -0.0653 -0.0291
93375W        W36292  21.828  24.215  24.442  0.2962  0.2067  0.0687
93376W        W36293  17.795  25.790  24.645 -0.1118  0.2545  0.2418
93377W        W36294  19.783  26.220  24.881  0.1053 -0.0726  0.3846
93378W        W36295  21.042  20.785  27.240  0.0688 -0.2921 -0.1842
93379W        W36296  18.047  22.969  25.318  0.3838 -0.3878 -0.2458
93380W        W36297  16.597  24.295  23.756 -0.2063 -0.1452 -0.0637
93381W        W36298  20.596  26.219  25.536  0.1635  0.0262 -0.0103
93382W        W36299  20.290  23.438  24.400  0.0801  0.1310  0.0214
93383W        W36300  21.618  22.651  28.553 -0.1994  0.2078 -0.0039
93384W        W36301  19.672  23.484  25.724 -0.0382 -0.3884  0.2540
93385W        W36302  17.805  24.720  25.901  0.0878  0.1007 -0.0472
93386W        W36303  18.541  22.935  27.698 -0.1568  0.0450  0.1940
93387W        W36304  20.238  23.845  26.545  0.0233 -0.0491  0.0681
93388W        W36305  20.385  24.482  25.885  0.0284 -0.1537 -0.2101
93389W        W36306  20.003  24.113  27.146 -0.0483  0.0808  0.1078
93390W        W36307  18.995  26.207  26.338  0.0525 -0.0911 -0.1064
93391W        W36308  19.835  26.277  26.091 -0.2475 -0.4754  0.1279
93392W        W36309  18.709  22.036  28.852 -0.2363  0.0869  0.1420
93393W        W36310  18.407  26.182  27.125  0.1438 -0.2460 -0.2002
93394W        W36311  21.233  21.010  28.121  0.1393 -0.3538  0.0301
93395W        W36312  19.081  25.220  24.210 -0.0463  0.2211  0.0143
93396W        W36313  19.887  22.513  24.635 -0.0344  0.1854  0.0418
93397W        W36314  19.579  24.383  25.088  0.2642 -0.1483 -0.0973
93398W        W36315  20.028  24.920  24.089  0.0437 -0.0613 -0.1430
93399W        W36316  18.873  23.684  24.598 -0.1709 -0.3011  0.0749
93400W        W36317  19.450  25.611  27.109 -0.1272  0.0486  0.1157
93401W        W36318  19.480  21.536  23.481 -0.3702 -0.1405  0.2813
93402W        W36319  21.010  22.345  27.953  0.1535 -0.0677 -0.0713
93403W        W36320  19.647  22.935  24.417 -0.2831 -0.0967 -0.1061
93404W        W36321  20.675  19.308  25.170 -0.1622  0.0866  0.0020
93405W        W36322  17.365  22.724  25.359 -0.3314  0.0342 -0.0465
93406W        W36323  17.568  25.047  25.227  0.0475  0.1151  0.2042
93407W        W36324  21.885  25.925  23.932 -0.1590  0.3184 -0.2541
93408W        W36325  19.330  26.985  26.469  0.0796 -0.0129  0.0682
93409W        W36326  19.049  24.103  25.829 -0.1827  0.0529 -0.3278
93410W        W36327  19.355  25.377  24.685  0.2618  0.2056 -0.2716
93411W        W36328  16.882  23.929  25.178  0.0700  0.1441 -0.2450
93412W        W36329  17.387  20.803  26.315  0.1284  0.0407  0.0047
93413W        W36330  17.554  24.007  21.590  0.0278 -0.0278 -0.0855
93414W        W36331  21.509  24.315  27.819  0.3200 -0.1492  0.0408
93415W        W36332  17.697  24.792  27.822 -0.1759  0.0690  0.2135
93416W        W36333  20.636  24.718  23.217 -0.3036  0.0712  0.1937
93417W        W36334  20.391  22.880  25.816 -0.0649 -0.0420 -0.3629
93418W        W36335  23.684  26.272  26.241 -0.1228  0.1308  0.2670
93419W        W36336  20.893  24.176  23.929  0.1174 -0.0218  0.1801
93420W        W36337  21.236  22.713  24.557  0.0819 -0.1194 -0.1802
93421W        W36338  20.271  23.195  26.948  0.0309 -0.0360  0.0378
93422W        W36339  19.513  25.734  22.138 -0.1008 -0.4663  0.1906
93423W        W36340  19.075  21.861  23.605  0.1599 -0.1870 -0.4411
93424W        W36341  20.283  25.616  26.614  0.1055  0.1657 -0.2681
93425W        W36342  20.567  25.316  25.669 -0.0128  0.1308  0.1180
93426W        W36343  18.787  24.567  25.059  0.0412  0.1238  0.0468
93427W        W36344  19.230  23.048  26.444  0.0236 -0.0585 -0.0208
93428W        W36345  20.043  25.440  28.315 -0.0823 -0.0300  0.5476
93429W        W36346  19.572  25.384  22.600  0.1963 -0.4361 -0.3490
93430W        W36347  16.833  24.175  24.291  0.1700 -0.3934 -0.0614
93431W        W36348  19.306  23.666  23.610 -0.0036 -0.1183 -0.2670
93432W        W36349  16.873  24.360  23.341  0.4882  0.0312 -0.0831
93433W        W36350  19.195  24.297  24.658 -0.0133  0.2224 -0.1044
93434W        W36351  19.568  24.844  24.804  0.0157  0.1137  0.1425
93435W        W36352  18.043  22.005  26.289  0.3598 -0.0945 -0.0750
93436W        W36353  19.083  23.726  25.536  0.2257 -0.1046  0.1873
93437W        W36354  17.723  25.229  26.270  0.1588 -0.0746 -0.1247
93438W        W36355  19.321  27.115  24.885  0.0467  0.1217 -0.1913
93439W        W36356  21.385  24.000  24.731 -0.2759  0.0766 -0.2730
93440W        W36357  22.603  24.255  24.435 -0.2370  0.0877  0.1303
93441W        W36358  17.993  23.609  25.029 -0.0319  0.0723 -0.0099
93442W        W36359  18.791  24.878  23.402  0.2438  0.0722  0.2741
93443W        W36360  18.386  23.437  26.663  0.2384 -0.1346 -0.2790
93444W        W36361  19.440  23.510  24.543 -0.4713  0.1318  0.1270
93445W        W36362  21.055  21.959  28.321 -0.1214  0.0607 -0.0684
93446W        W36363  19.903  21.705  23.275 -0.0599  0.1559 -0.4390
93447W        W36364  19.694  23.156  26.314  0.1501 -0.5541 -0.3159
93448W        W36365  20.665  24.314  24.396 -0.3293 -0.0706 -0.0758
93449W        W36366  18.327  24.131  21.822 -0.0486 -0.0156 -0.3073
93450W        W36367  20.057  22.235  27.315  0.1120  0.0549 -0.1004
93451W        W36368  19.684  25.114  25.739 -0.0160 -0.0476  0.1190
93452W        W36369  20.654  26.769  27.438  0.1690  0.0088  0.0841
93453W        W36370  20.094  24.109  26.129  0.1310 -0.3787  0.2894
93454W        W36371  19.614  20.650  26.337 -0.1352 -0.1991 -0.2084
93455W        W36372  19.088  25.030  22.373  0.1455 -0.1392  0.1338
93456W        W36373  17.795  28.654  23.891 -0.3162  0.1954 -0.1571
93457W        W36374  17.568  24.637  26.349 -0.1635  0.2097  0.0243
93458W        W36375  19.292  22.225  23.924  0.1202 -0.1888  0.1391
93459W        W36376  19.468  24.300  28.361  0.2896 -0.0607  0.1400
93460W        W36377  20.463  23.692  26.098  0.2705  0.1128 -0.3105
93461W        W36378  16.815  23.713  25.637  0.2561 -0.0507 -0.0522
93462W        W36379  19.786  21.836  26.405  0.1989 -0.0456  0.2326
93463W        W36380  20.151  23.325  24.820 -0.0543  0.2068  0.0568
93464W        W36381  19.771  23.923  25.352  0.5290 -0.1809  0.1791
93465W        W36382  19.625  23.300  21.786  0.0082  0.1587  0.3014
93466W        W36383  20.114  25.162  26.790 -0.2088  0.0510  0.1639
93467W        W36384  19.657  26.392  25.649 -0.0612  0.0175  0.0492
93468W        W36385  17.786  23.495  24.420  0.0996  0.1358 -0.1147
93469W        W36386  20.072  24.296  26.610  0.1638 -0.0644 -0.1593
93470W        W36387  20.905  22.585  26.653 -0.1764  0.2203  0.0107
93471W        W36388  17.949  22.766  25.817 -0.0634  0.3011 -0.0927
93472W        W36389  20.285  19.994  27.459  0.0524 -0.1611 -0.0998
93473W        W36390  18.757  24.373  23.460  0.0646  0.0852  0.0863
93474W        W36391  17.952  22.517  27.214 -0.1044 -0.0877 -0.2202
93475W        W36392  20.545  20.606  25.232  0.0094  0.0164 -0.0732
93476W        W36393  22.870  24.587  26.589  0.1612  0.0413 -0.4834
93477W        W36394  20.217  22.509  28.557  0.1703 -0.1090 -0.0536
93478W        W36395  20.424  22.017  25.125  0.0541  0.1366 -0.1069
93479W        W36396  19.603  24.363  22.059 -0.2573 -0.0816  0.3409
93480W        W36397  20.807  22.249  23.526 -0.0572  0.1732  0.0017
93481W        W36398  18.395  23.412  25.534  0.0106  0.2752 -0.0495
93482W        W36399  22.538  27.013  24.686  0.1425 -0.1838  0.0677
93483W        W36400  18.231  23.925  27.424  0.0268 -0.1217 -0.1049
93484W        W36401  19.039  25.814  24.050 -0.0582 -0.0773 -0.0412
93485W        W36402  21.448  21.678  29.949 -0.0727  0.0060  0.1511
93486W        W36403  17.647  22.961  26.223 -0.1584  0.1623 -0.0576
93487W        W36404  21.120  21.636  26.825  0.3364  0.0928  0.1862
93488W        W36405  19.161  22.011  27.029  0.1931  0.0643 -0.1398
93489W        W36406  18.429  22.716  23.633 -0.0131  0.2740  0.0064
93490W        W36407  19.854  25.258  24.964  0.2925 -0.0502  0.0979
93491W        W36408  19.376  24.183  25.498  0.0810  0.0586 -0.1976
93492W        W36409  18.282  26.420  24.038  0.1471  0.0186  0.1355
93493W        W36410  20.614  21.743  26.997  0.0370  0.0635  0.1317
93494W        W36411  20.604  22.123  26.651  0.1475  0.0330  0.1080
93495W        W36412  21.220  22.378  25.448 -0.1600 -0.1830 -0.1387
93496W        W36413  22.747  22.710  28.298 -0.0695 -0.1995 -0.0052
93497W        W36414  20.641  26.197  22.879  0.1394  0.0449  0.2913
93498W        W36415  20.676  23.808  25.312 -0.1005 -0.1763 -0.4225
93499W        W36416  17.657  23.279  25.301  0.2016 -0.0111  0.1309
93500W        W36417  20.207  20.263  25.132  0.0461 -0.1515  0.0084
93501W        W36418  18.735  22.496  25.167 -0.0512 -0.3224  0.0126
93502W        W36419  19.590  24.790  26.222  0.3768 -0.0592 -0.2540
93503W        W36420  21.265  23.691  27.926 -0.0890  0.0793  0.3793
93504W        W36421  21.313  24.777  24.829  0.0681 -0.2695  0.4664
93505W        W36422  19.650  22.919  27.222 -0.0563  0.0793 -0.3968
93506W        W36423  19.103  24.796  24.651 -0.2309  0.2163 -0.1006
93507W        W36424  21.620  25.712  24.906  0.3061  0.0508  0.0034
93508W        W36425  19.467  24.911  24.331 -0.0610  0.0575 -0.3322
93509W        W36426  20.608  22.008  26.040  0.0293 -0.0987 -0.0278
93510W        W36427  18.872  23.042  26.849  0.2869 -0.0362  0.2484
93511W        W36428  20.152  25.083  25.521 -0.0652  0.0829  0.1123
93512W        W36429  20.913  23.415  27.709 -0.0198 -0.2222 -0.2063
93513W        W36430  19.721  25.821  25.762 -0.1899 -0.0133  0.0197
93514W        W36431  20.068  22.700  27.443 -0.2321 -0.1218  0.0790
93515W        W36432  17.762  24.419  24.826 -0.0253 -0.0564 -0.2168
93516W        W36433  17.651  22.365  22.658  0.1342 -0.2160  0.2391
93517W        W36434  15.817  23.327  23.979  0.0758  0.2022  0.0241
93518W        W36435  22.445  22.247  25.987  0.1500  0.1725 -0.2182
93519W        W36436  21.010  25.515  25.444 -0.0056  0.0699 -0.0478
93520W        W36437  18.555  21.701  23.503  0.2232 -0.2114 -0.3321
93521W        W36438  19.997  23.150  25.527  0.1091  0.1087  0.2626
93522W        W36439  19.034  25.497  25.217 -0.2673  0.2734  0.2209
93523W        W36440  19.341  22.105  28.243  0.1182  0.0173 -0.1763
93524W        W36441  17.939  24.654  23.833  0.2079  0.1154 -0.0064
93525W        W36442  20.973  23.004  29.223 -0.2185 -0.1525 -0.0007
93526W        W36443  21.355  22.770  29.455 -0.0280  0.2524 -0.2268
93527W        W36444  17.287  22.714  22.757  0.2059 -0.3057  0.0770
93528W        W36445  20.561  22.852  27.149 -0.0582  0.2495  0.0217
93529W        W36446  18.454  21.973  23.072  0.1016 -0.1170 -0.0055
93530W        W36447  17.313  25.989  25.200 -0.1392 -0.0948 -0.2122
93531W        W36448  19.289  24.558  26.634 -0.1234 -0.2838 -0.1741
93532W        W36449  18.424  24.390  23.102  0.0561  0.1314  0.1533
93533W        W36450  17.188  24.316  25.173  0.0577  0.3020 -0.2762
93534W        W36451  18.154  21.233  26.644  0.2556  0.2579  0.0853
93535W        W36452  19.547  22.333  27.214 -0.0399  0.0618  0.0897
93536W        W36453  20.923  23.010  25.362 -0.0087  0.1450 -0.0506
93537W        W36454  17.391  25.114  22.948 -0.0825 -0.0415  0.1580
93538W        W36455  19.716  18.868  24.253 -0.0338 -0.0636  0.0629
93539W        W36456  20.481  22.341  27.128  0.2125  0.0326  0.2554
93540W        W36457  20.283  20.488  25.637  0.0463 -0.0368  0.0323
93541W        W36458  15.581  22.877  24.688  0.1775  0.4103 -0.1650
93542W        W36459  18.778  20.060  24.991  0.3302 -0.2797  0.2815
93543W        W36460  21.727  25.659  26.129  0.3154 -0.1423  0.2159
93544W        W36461  20.724  23.021  28.544 -0.1545 -0.1991  0.2575
93545W        W36462  18.574  23.844  25.774 -0.1404 -0.0699  0.0192
93546W        W36463  17.603  23.058  22.472 -0.1712  0.0932 -0.0410
93547W        W36464  18.381  22.683  25.493 -0.2891 -0.2275  0.0601
93548W        W36465  18.620  21.096  25.171 -0.1710  0.0027  0.0801
93549W        W36466  18.470  24.805  25.444  0.1559  0.1643 -0.1181
93550W        W36467  20.056  24.211  23.376 -0.0357 -0.0535 -0.0829
93551W        W36468  17.927  24.029  24.020 -0.0082 -0.3371 -0.0338
93552W        W36469  20.503  23.875  24.114 -0.1614  0.1844 -0.1439
93553W        W36470  20.958  24.662  24.030  0.1422  0.0261  0.2778
93554W        W36471  18.946  23.270  24.956  0.1767  0.1667  0.1333
93555W        W36472  22.553  20.078  27.546  0.0376  0.3926  0.2767
93556W        W36473  18.792  24.655  22.877 -0.1635  0.1033  0.1155
93557W        W36474  20.012  20.704  25.265 -0.0562 -0.3536 -0.1016
93558W        W36475  19.689  22.142  25.504  0.3155 -0.1921  0.2862
93559W        W36476  20.454  24.323  27.386  0.1123  0.3139  0.1472
93560W        W36477  18.013  23.025  27.375  0.1931 -0.1656 -0.2755
93561W        W36478  21.158  24.314  28.724  0.0406  0.1105 -0.1880
93562W        W36479  18.585  24.364  28.881 -0.0347 -0.3311  0.1326
93563W        W36480  20.154  23.771  25.729  0.1457 -0.1357 -0.1434
93564W        W36481  19.757  22.065  22.684  0.0826 -0.3384 -0.0664
93565W        W36482  19.548  24.806  25.342 -0.4403 -0.1165 -0.0600
93566W        W36483  21.869  26.610  26.096  0.0132 -0.1275  0.0126
93567W        W36484  17.312  24.710  25.526 -0.2272 -0.1426 -0.3354
93568W        W36485  20.460  24.263  23.120  0.0479  0.1101  0.0519
93569W        W36486  19.905  23.485  27.964 -0.1319 -0.1531  0.1444
93570W        W36487  21.230  21.414  23.626  0.1621 -0.1411  0.2217
93571W        W36488  19.840  23.639  26.228 -0.0282  0.0649  0.0615
93572W        W36489  19.076  24.580  25.441  0.1537 -0.2166  0.1632
93573W        W36490  17.910  21.654  26.596 -0.1291  0.3502 -0.0040
93574W        W36491  20.895  24.084  23.160 -0.0380 -0.1544  0.0080
93575W        W36492  21.598  25.221  24.881  0.0586  0.0199 -0.0752
93576W        W36493  19.772  21.828  27.362 -0.1359 -0.1152 -0.0146
93577W        W36494  20.418  22.653  26.727  0.1463  0.0726 -0.1374
93578W        W36495  18.862  22.352  25.756 -0.0407 -0.0517  0.0195
93579W        W36496  19.388  21.248  25.393  0.2279  0.2176 -0.0887
93580W        W36497  20.384  25.654  25.360  0.0215  0.1768 -0.1918
93581W        W36498  21.385  25.333  23.604 -0.4266 -0.0549 -0.0413
93582W        W36499  20.552  24.216  26.847 -0.0258  0.0322  0.3862
93583W        W36500  20.643  24.865  25.555 -0.2797 -0.1413 -0.0431
93584W        W36501  18.975  27.371  23.940  0.1722  0.0627 -0.3271
93585W        W36502  18.531  22.869  24.970 -0.2427 -0.2209  0.2116
93586W        W36503  21.953  23.623  27.135  0.2872 -0.2999  0.1183
93587W        W36504  19.380  24.074  22.835  0.0160  0.0270  0.2702
93588W        W36505  21.182  21.920  27.779  0.1343  0.2099 -0.1762
93589W        W36506  20.532  25.170  26.527  0.0033 -0.2603 -0.1286
93590W        W36507  19.211  24.563  25.938  0.1082  0.1898 -0.1108
93591W        W36508  17.617  23.690  22.834 -0.3162  0.0028  0.1640
93592W        W36509  18.225  23.112  24.475 -0.1838 -0.0932  0.0611
93593W        W36510  16.401  22.702  26.102  0.0659  0.1244  0.0057
93594W        W36511  17.366  25.371  22.125 -0.0805 -0.1447  0.0416
93595W        W36512  19.033  25.284  23.712  0.1888 -0.1934  0.2349
93596W        W36513  18.939  22.965  27.366  0.0702 -0.0669 -0.4257
93597W        W36514  20.550  22.741  28.112 -0.0334 -0.2102 -0.2277
93598W        W36515  20.185  21.802  22.865  0.2645  0.1710 -0.2848
93599W        W36516  20.677  21.565  25.789 -0.0520 -0.0707 -0.3727
93600W        W36517  16.901  25.794  25.087 -0.0154 -0.0738  0.0269
93601W        W36518  19.852  21.479  23.805 -0.0384 -0.0606 -0.1541
93602W        W36519  19.110  25.647  26.248 -0.3107 -0.0376 -0.0064
93603W        W36520  18.158  25.195  27.106 -0.0334 -0.0721  0.5619
93604W        W36521  20.172  26.021  25.834 -0.0694 -0.0964  0.0113
93605W        W36522  18.889  22.746  24.580  0.0112  0.3436 -0.1023
93606W        W36523  19.318  21.957  26.291  0.0101 -0.0883  0.1696
93607W        W36524  22.233  25.588  24.357  0.4162  0.0271 -0.0456
93608W        W36525  20.969  22.630  27.161  0.0335 -0.1674  0.0691
93609W        W36526  21.409  23.873  26.896 -0.0352 -0.3333 -0.2521
93610W        W36527  17.704  25.081  24.726 -0.2088 -0.1942  0.0053
93611W        W36528  20.542  25.602  29.237 -0.0317  0.0929 -0.3007
93612W        W36529  20.329  25.903  27.290  0.0302  0.0637 -0.1821
93613W        W36530  19.198  25.072  25.964  0.1884  0.0329 -0.0499
93614W        W36531  16.479  21.539  24.245 -0.0053 -0.1803 -0.2032
93615W        W36532  19.258  22.553  26.256 -0.1931  0.0464 -0.1998
93616W        W36533  20.612  25.219  25.202 -0.3549  0.0262 -0.1934
93617W        W36534  18.105  21.917  23.466  0.0770  0.0885  0.1594
93618W        W36535  22.817  25.406  25.236 -0.0246  0.0871  0.2113
93619W        W36536  18.000  25.067  25.482  0.0448 -0.2165  0.0141
93620W        W36537  18.164  24.242  25.510 -0.1633  0.1153  0.1188
93621W        W36538  20.832  27.219  25.917 -0.3493  0.2191 -0.2202
93622W        W36539  19.219  25.055  25.090  0.0223 -0.1905 -0.0378
93623W        W36540  19.884  25.516  25.425 -0.0928  0.0833  0.0690
93624W        W36541  21.360  23.267  25.946  0.0485 -0.1094  0.0158
93625W        W36542  20.212  22.370  25.958 -0.0616 -0.0702  0.3781
93626W        W36543  20.430  25.587  26.101 -0.1254 -0.0860 -0.1142
93627W        W36544  17.840  24.549  23.280 -0.1182 -0.3105  0.0745
93628W        W36545  21.910  24.645  25.680 -0.0807  0.2136 -0.2401
93629W        W36546  16.555  23.640  24.354 -0.1719  0.2391 -0.1461
93630W        W36547  21.589  23.937  27.459 -0.1094  0.0373 -0.0620
93631W        W36548  21.994  24.838  24.063  0.0532  0.2837  0.1298
93632W        W36549  19.566  24.007  23.381  0.3057  0.0152  0.0298
93633W        W36550  20.059  24.172  24.999 -0.0307 -0.0872 -0.0127
93634W        W36551  19.730  24.712  27.975  0.2403 -0.0966  0.1065
93635W        W36552  20.152  23.286  25.995  0.1981 -0.0568 -0.0142
93636W        W36553  18.038  23.105  23.589 -0.0268 -0.5742 -0.1162
93637W        W36554  19.269  22.092  27.540  0.1085 -0.0952  0.0760
93638W        W36555  21.729  18.786  26.326 -0.3473  0.0681  0.1001
93639W        W36556  18.399  22.761  28.457 -0.0523  0.0695  0.1578
93640W        W36557  23.044  25.865  25.230  0.2461  0.0349 -0.0144
93641W        W36558  19.262  24.430  23.577 -0.2011 -0.2093  0.2240
93642W        W36559  20.418  24.468  25.190  0.0011 -0.1338 -0.1919
93643W        W36560  21.549  21.918  26.798  0.2888 -0.2726 -0.1252
93644W        W36561  18.294  25.774  24.521 -0.0932  0.1449  0.0322
93645W        W36562  18.687  22.180  26.932 -0.0399 -0.0537 -0.0084
93646W        W36563  18.629  28.395  24.720  0.2097 -0.1262  0.0715
93647W        W36564  19.197  24.010  26.554  0.1591  0.2099 -0.1246
93648W        W36565  17.367  23.617  25.726  0.0633  0.2004  0.0068
93649W        W36566  18.144  22.309  22.545 -0.2395 -0.1642  0.1195
93650W        W36567  21.189  22.475  26.238  0.0999  0.0082  0.2067
93651W        W36568  20.081  22.331  26.467  0.1498  0.4223  0.1134
93652W        W36569  20.870  22.371  24.666  0.2326 -0.1226  0.0904
93653W        W36570  20.449  25.100  26.058  0.1776  0.2139 -0.0772
93654W        W36571  18.305  21.485  23.142  0.1112 -0.1717 -0.2036
93655W        W36572  18.278  22.109  27.204 -0.0176  0.0285  0.1299
93656W        W36573  18.418  21.970  25.530 -0.0537 -0.1661  0.0242
93657W        W36574  19.223  22.517  22.007  0.0686  0.0670  0.0399
93658W        W36575  20.417  22.935  25.293 -0.0948 -0.0226  0.1654
93659W        W36576  22.103  25.150  24.434 -0.1671 -0.2924  0.1925
93660W        W36577  22.060  23.160  28.674  0.0255 -0.0605  0.0160
93661W        W36578  16.954  23.426  24.856 -0.1559 -0.4602  0.2681
93662W        W36579  20.210  23.612  25.223  0.0196 -0.0340  0.1351
93663W        W36580  18.217  25.575  23.840  0.2129 -0.0442 -0.2890
93664W        W36581  20.932  23.912  26.731  0.1828 -0.0213 -0.0683
93665W        W36582  21.223  23.472  26.571 -0.1152  0.0173 -0.0930
93666W        W36583  18.445  23.333  25.011  0.1453 -0.4109  0.0400
93667W        W36584  22.681  26.356  24.550 -0.0317 -0.1687 -0.0013
93668W        W36585  19.902  23.226  24.051  0.1661  0.2012 -0.3247
93669W        W36586  19.008  26.521  24.129  0.1679 -0.1612  0.4127
93670W        W36587  20.441  24.725  26.657  0.0543 -0.0399 -0.0433
93671W        W36588  20.868  24.743  26.229  0.0095 -0.1611 -0.0914
93672W        W36589  17.807  21.549  23.172  0.0750 -0.0650  0.2888
93673W        W36590  19.617  26.288  29.284 -0.1476  0.4222  0.1608
93674W        W36591  20.089  24.585  27.568 -0.3977  0.3255  0.1769
93675W        W36592  18.544  23.565  22.745 -0.1680 -0.1126 -0.1921
93676W        W36593  19.351  22.500  24.370 -0.1332  0.2217  0.1724
93677W        W36594  17.730  25.383  21.815  0.1883  0.1550 -0.0860
93678W        W36595  21.137  21.309  26.422 -0.2817  0.0785 -0.1396
93679W        W36596  21.540  22.701  28.049 -0.1906  0.2465 -0.2469
93680W        W36597  18.835  25.142  24.757 -0.0743  0.0614 -0.1347
93681W        W36598  20.572  21.153  26.693  0.1774 -0.0689 -0.0942
93682W        W36599  20.588  20.935  27.284  0.0662 -0.0470 -0.2045
93683W        W36600  19.910  24.693  29.197 -0.2048  0.2330 -0.0894
93684W        W36601  18.539  25.283  23.495 -0.2451  0.2074  0.0813
93685W        W36602  18.542  21.454  24.756  0.2121  0.0319  0.0041
93686W        W36603  20.073  23.983  27.676 -0.1203  0.1042  0.0099
93687W        W36604  18.593  26.184  24.415 -0.1450 -0.1083  0.0813
93688W        W36605  19.303  25.460  25.710  0.0041 -0.0109 -0.1354
93689W        W36606  19.908  22.586  26.953 -0.2638  0.1874 -0.0843
93690W        W36607  21.067  25.155  26.920 -0.1183  0.0257  0.0233
93691W        W36608  19.075  22.852  25.527 -0.0290  0.3444  0.0894
93692W        W36609  21.364  22.239  24.875 -0.0487 -0.1100 -0.0890
93693W        W36610  20.735  20.189  24.953  0.5002 -0.1347  0.2093
93694W        W36611  20.584  24.324  28.378  0.1927 -0.0887  0.0451
93695W        W36612  18.088  26.060  23.672  0.0073 -0.1404  0.0038
93696W        W36613  18.534  25.577  24.911 -0.3253  0.1201  0.1577
93697W        W36614  17.688  23.883  26.103 -0.0711 -0.2637  0.1079
93698W        W36615  20.737  19.933  28.174  0.2523  0.0462 -0.1139
93699W        W36616  19.305  22.053  25.797  0.2470  0.0284 -0.1056
93700W        W36617  19.867  23.709  24.267 -0.1779 -0.0599  0.1913
93701W        W36618  19.587  21.165  20.857 -0.2637  0.2195 -0.0195
93702W        W36619  19.356  22.920  25.975 -0.0401  0.0546 -0.1879
93703W        W36620  18.554  23.156  23.922  0.0469  0.1319 -0.1612
93704W        W36621  17.766  23.926  24.629 -0.4065  0.0532 -0.1739
93705W        W36622  20.517  23.337  25.582 -0.0630 -0.1162  0.0568
93706W        W36623  21.301  26.060  26.194  0.1877  0.1056  0.3095
93707W        W36624  19.096  22.123  22.409  0.2328  0.0102  0.0571
93708W        W36625  21.542  22.678  26.009  0.1643 -0.0352  0.1650
93709W        W36626  18.572  24.917  26.633 -0.2221  0.0797 -0.0780
93710W        W36627  19.651  20.068  26.009  0.0264  0.2457  0.0027
93711W        W36628  19.927  20.470  26.805  0.0898 -0.1237  0.0329
93712W        W36629  18.833  25.395  22.087  0.2739 -0.1204  0.1397
93713W        W36630  21.103  21.517  28.028  0.0033 -0.2887  0.1806
93714W        W36631  18.829  24.431  26.608  0.0434  0.0765  0.0149
93715W        W36632  20.269  26.939  25.243  0.2797  0.4541 -0.2220
93716W        W36633  18.363  21.331  27.430 -0.2345  0.0197 -0.0233
93717W        W36634  18.237  24.705  27.012  0.1879 -0.2202 -0.1086
93718W        W36635  20.169  22.854  26.318 -0.4117 -0.1750  0.0233
93719W        W36636  21.232  24.906  21.469 -0.0593  0.1277  0.2945
93720W        W36637  17.475  23.454  26.260 -0.3116  0.0628 -0.3448
93721W        W36638  21.721  24.836  24.513 -0.3320  0.0954 -0.0718
93722W        W36639  22.817  20.354  25.026 -0.4869  0.4360  0.1514
93723W        W36640  19.888  23.736  24.797 -0.3267  0.0311  0.0542
93724W        W36641  18.337  20.448  25.893  0.1251 -0.3830  0.1160
93725W        W36642  18.765  23.999  26.831 -0.2274  0.2282 -0.1209
93726W        W36643  21.003  23.584  25.629 -0.1879  0.0153  0.0964
93727W        W36644  19.032  22.709  23.090 -0.0027 -0.1028  0.2495
93728W        W36645  20.860  23.340  24.527 -0.1072  0.1807  0.1857
93729W        W36646  19.979  24.366  25.435  0.2818  0.1867  0.0549
93730W        W36647  18.734  23.136  25.409 -0.1219  0.0271  0.1858
93731W        W36648  19.642  24.163  24.380  0.1140  0.2738  0.0591
93732W        W36649  22.743  23.504  25.949  0.1283  0.0660 -0.4522
93733W        W36650  19.838  24.637  25.813 -0.0043  0.1562 -0.1600
93734W        W36651  20.883  23.102  26.900 -0.0094 -0.0312 -0.0786
93735W        W36652  19.878  22.826  25.928 -0.1798 -0.3435 -0.1073
93736W        W36653  21.236  23.088  22.971  0.3972  0.1434  0.2372
93737W        W36654  19.983  26.759  27.538 -0.1881 -0.0558  0.1046
93738W        W36655  21.969  25.143  28.863  0.1207  0.1311  0.2440
93739W        W36656  19.228  23.223  27.056  0.0203  0.1980 -0.1717
93740W        W36657  20.522  24.160  29.426  0.1979  0.0176 -0.1782
93741W        W36658  17.259  19.029  25.503  0.1029  0.0547  0.0548
93742W        W36659  19.116  26.536  25.706 -0.1127 -0.0220  0.1016
93743W        W36660  18.783  25.266  26.250 -0.1935 -0.0627 -0.0745
93744W        W36661  19.101  21.736  24.755  0.2970 -0.0026 -0.2632
93745W        W36662  18.578  22.318  24.659  0.0580  0.2469 -0.0687
93746W        W36663  18.680  23.230  24.477  0.1031 -0.1003  0.0729
93747W        W36664  18.384  24.470  26.415 -0.0300  0.0837 -0.0567
93748W        W36665  19.385  23.538  26.672 -0.0630 -0.1117 -0.4026
93749W        W36666  16.706  25.916  29.044  0.1064 -0.1329  0.0656
93750W        W36667  18.506  22.588  27.141 -0.1119 -0.0064 -0.1266
93751W        W36668  21.490  22.193  28.278  0.0403 -0.1365  0.0050
93752W        W36669  21.581  24.541  28.694 -0.3123 -0.3330  0.1499
93753W        W36670  17.075  20.650  26.701 -0.1698 -0.2785 -0.3336
93754W        W36671  18.642  25.051  27.126 -0.1418 -0.0583 -0.2802
93755W        W36672  19.576  19.233  28.835  0.0787 -0.0596  0.0423
93756W        W36673  19.283  22.772  29.109  0.0936  0.2904 -0.1344
93757W        W36674  21.896  26.041  29.951 -0.1515  0.0746 -0.2443
93758W        W36675  21.573  21.708  28.056 -0.0184 -0.2805 -0.0552
93759W        W36676  21.628  22.244  30.620  0.1148  0.0291 -0.1593
93760W        W36677  17.633  25.293  31.189  0.3741  0.1963  0.4077
93761W        W36678  19.897  19.102  27.046  0.0042  0.1442 -0.2361
93762W        W36679  18.508  22.461  28.026 -0.0384 -0.1436 -0.1536
93763W        W36680  20.762  23.746  31.163 -0.1592  0.1608  0.1163
93764W        W36681  16.801  22.858  25.015  0.2026 -0.1406  0.0174
93765W        W36682  18.598  20.381  30.931 -0.2675  0.1000 -0.5282
93766W        W36683  19.628  21.364  27.712  0.0211  0.3296  0.0587
93767W        W36684  20.337  24.603  29.415  0.0739  0.1076 -0.0562
93768W        W36685  18.334  23.031  29.311  0.0160  0.0853 -0.2849
93769W        W36686  20.460  22.197  28.990  0.0827 -0.1258  0.2088
93770W        W36687  19.296  23.652  29.802  0.0018  0.2555 -0.2626
93771W        W36688  18.012  21.879  25.779  0.0453  0.2249 -0.0883
93772W        W36689  19.020  24.449  28.593  0.1492 -0.1131  0.3991
93773W        W36690  19.478  22.800  28.053  0.0556 -0.0927 -0.2264
93774W        W36691  20.224  23.326  29.900 -0.0698  0.4353  0.1767
93775W        W36692  20.456  21.758  30.760  0.0008  0.1437 -0.0920
93776W        W36693  18.646  24.335  28.244  0.3487  0.0972  0.0568
93777W        W36694  21.095  24.702  29.229  0.3252 -0.2518 -0.4489
93778W        W36695  17.916  21.765  31.547 -0.1188  0.0829 -0.1804
93779W        W36696  17.725  24.059  26.641 -0.0467  0.0358  0.0799
93780W        W36697  19.484  25.219  29.001 -0.4590 -0.0286  0.1100
93781W        W36698  19.230  25.137  29.751 -0.0713  0.1244  0.1180
93782W        W36699  22.166  22.566  30.019 -0.0872 -0.1588 -0.2082
93783W        W36700  20.317  22.885  28.902  0.1395 -0.2766 -0.0597
93784W        W36701  18.209  25.149  28.388 -0.1311  0.1232 -0.0794
93785W        W36702  19.533  25.417  28.032  0.0326  0.0675 -0.0416
93786W        W36703  17.027  24.133  29.075 -0.2378  0.3245  0.0712
93787W        W36704  17.746  22.473  28.909  0.0575  0.0315  0.3211
93788W        W36705  19.816  23.762  29.171  0.0098 -0.2667  0.2919
93789W        W36706  19.015  24.403  29.261  0.0565  0.1867  0.1403
93790W        W36707  20.485  24.862  29.006 -0.1231  0.2947  0.2227
93791W        W36708  19.722  23.083  27.641  0.0091 -0.0642  0.3194
93792W        W36709  19.370  22.261  31.232  0.0224  0.1895  0.0024
93793W        W36710  17.071  23.573  26.987 -0.2063 -0.1586  0.0636
93794W        W36711  20.111  24.991  29.790 -0.0383  0.0594 -0.4065
93795W        W36712  20.189  23.353  26.473  0.1995  0.2046  0.0973
93796W        W36713  21.685  21.145  27.921 -0.1142 -0.1681  0.1544
93797W        W36714  18.765  21.953  26.044 -0.0451  0.0256 -0.3902
93798W        W36715  20.376  21.315  26.235  0.1626  0.2549 -0.1669
93799W        W36716  18.053  21.052  27.794 -0.2539  0.1877  0.0215
93800W        W36717  17.417  26.642  28.910  0.3956  0.0366  0.4253
93801W        W36718  18.368  21.840  26.699  0.2535 -0.0838 -0.1684
93802W        W36719  22.135  24.942  29.479 -0.3484  0.0419  0.0202
93803W        W36720  19.166  23.421  27.529  0.2114 -0.0717 -0.1558
93804W        W36721  19.425  23.981  29.409 -0.1482 -0.0377  0.0568
93805W        W36722  16.856  23.329  27.876 -0.0181 -0.0713 -0.1431
93806W        W36723  20.407  20.876  27.781 -0.0016 -0.2144 -0.2500
93807W        W36724  19.407  23.352  27.996  0.0412 -0.0159  0.2735
93808W        W36725  22.418  24.978  28.662 -0.0035 -0.0634 -0.1090
93809W        W36726  21.383  23.915  28.471  0.2069 -0.0039 -0.0625
93810W        W36727  19.812  21.096  25.664 -0.0963 -0.1831  0.0398
93811W        W36728  18.221  21.516  27.895 -0.1379 -0.0454 -0.1746
93812W        W36729  19.269  21.557  26.666 -0.2248  0.2984  0.1305
93813W        W36730  19.354  20.749  25.579 -0.1197  0.1831  0.2037
93814W        W36731  21.606  23.463  29.747 -0.4341  0.1456  0.3365
93815W        W36732  18.651  25.954  31.283  0.1068 -0.0188 -0.1337
93816W        W36733  20.111  22.335  30.209 -0.0071  0.0144 -0.2983
93817W        W36734  20.249  24.999  28.380  0.1623 -0.0742  0.1552
93818W        W36735  19.770  22.953  28.992 -0.0872 -0.1481 -0.4015
93819W        W36736  21.365  22.700  27.491  0.0354  0.0308 -0.0844
93820W        W36737  21.070  20.725  28.526 -0.0363 -0.0134  0.4619
93821W        W36738  20.150  21.141  28.985  0.3483  0.1639  0.2516
93822W        W36739  19.529  23.939  27.899  0.0078 -0.2503  0.0166
93823W        W36740  19.869  25.653  28.733 -0.0142 -0.0038  0.1274
93824W        W36741  21.055  24.617  30.915  0.0497 -0.1143 -0.0382
93825W        W36742  20.703  19.814  26.709 -0.1527 -0.0002  0.1662
93826W        W36743  18.540  25.372  29.687 -0.0719  0.0200 -0.0209
93827W        W36744  21.492  21.490  31.606 -0.1625 -0.0966  0.1503
93828W        W36745  18.569  23.706  31.091 -0.0694  0.1469 -0.3625
93829W        W36746  17.326  23.796  26.615 -0.1640 -0.3145 -0.1715
93830W        W36747  17.186  24.835  28.785 -0.0781 -0.0913  0.1549
93831W        W36748  18.729  22.665  26.584 -0.1801  0.1517  0.0749
93832W        W36749  18.215  22.948  30.035 -0.0248 -0.1950 -0.1424
93833W        W36750  19.447  22.689  27.566 -0.0049 -0.1786  0.1966
93834W        W36751  20.833  20.578  25.751  0.0607 -0.1476 -0.3960
93835W        W36752  18.491  21.384  30.081 -0.0837  0.1764 -0.3747
93836W        W36753  23.718  22.635  30.261 -0.1050  0.2132  0.0111
93837W        W36754  18.551  21.875  24.432 -0.0740  0.0655 -0.1712
93838W        W36755  21.457  26.130  29.739  0.0066  0.1985 -0.0077
93839W        W36756  20.744  21.389  27.644  0.1394 -0.1334  0.2853
93840W        W36757  19.759  25.396  29.847 -0.0940 -0.0062  0.0462
93841W        W36758  17.547  22.989  29.259  0.2099 -0.0117  0.1119
93842W        W36759  18.334  20.730  27.537 -0.2688  0.1928 -0.1171
93843W        W36760  19.965  23.683  30.167  0.3410 -0.2526  0.2981
93844W        W36761  18.818  22.529  27.625 -0.1757 -0.1436 -0.1013
93845W        W36762  19.278  22.107  30.028 -0.0395  0.1119  0.0844
93846W        W36763  18.263  20.924  26.068  0.0632 -0.2813  0.0644
93847W        W36764  20.423  24.026  28.825 -0.2991  0.0472 -0.2223
93848W        W36765  17.291  21.211  26.105 -0.0638  0.1993  0.0863
93849W        W36766  18.633  23.155  26.380  0.1571 -0.1125 -0.0862
93850W        W36767  19.988  21.539  30.934  0.0055 -0.0990 -0.4448
93851W        W36768  20.065  27.170  29.115  0.1986  0.2958 -0.2009
93852W        W36769  20.853  24.045  31.510  0.0809 -0.4223  0.2588
93853W        W36770  21.582  25.285  30.477 -0.0225  0.0376 -0.1159
93854W        W36771  17.776  20.406  25.090 -0.3042  0.3231  0.0631
93855W        W36772  18.754  23.075  28.551 -0.1584  0.4943 -0.0512
93856W        W36773  17.522  23.895  28.792 -0.0746  0.4685  0.0077
93857W        W36774  19.709  23.291  29.358  0.0067  0.2856  0.0977
93858W        W36775  18.655  19.825  27.028  0.1157 -0.2633  0.1391
93859W        W36776  20.526  25.901  29.991  0.1715 -0.4093 -0.0689
93860W        W36777  19.516  23.777  28.327  0.3687  0.1932 -0.0956
93861W        W36778  18.503  23.897  29.000 -0.0522  0.1531 -0.0024
93862W        W36779  19.245  20.778  28.674 -0.1595 -0.3405  0.3486
93863W        W36780  21.399  26.988  29.811 -0.0000 -0.2240  0.0219
93864W        W36781  19.466  22.586  29.916  0.1343  0.1591 -0.2368
93865W        W36782  18.168  22.018  24.816  0.1225  0.2904 -0.1380
93866W        W36783  19.123  25.501  28.870 -0.0768 -0.3696  0.2012
93867W        W36784  15.782  23.370  25.781  0.0483  0.1851 -0.1249
93868W        W36785  17.889  22.823  26.741  0.0043 -0.1592  0.1778
93869W        W36786  20.411  22.250  28.113 -0.0432 -0.1268  0.0892
93870W        W36787  22.928  22.044  30.013 -0.2492  0.0832  0.0583
93871W        W36788  16.639  23.954  28.462 -0.3548 -0.2433  0.0472
93872W        W36789  20.350  22.582  29.836 -0.3950  0.0863  0.0265
93873W        W36790  19.013  22.257  26.583 -0.1796  0.2613  0.1816
93874W        W36791  18.466  23.449  28.714  0.1385  0.1475 -0.4215
93875W        W36792  21.412  19.460  25.561 -0.0484 -0.4177  0.2421
93876W        W36793  20.845  19.976  27.628 -0.2822 -0.1160 -0.1788
93877W        W36794  17.898  23.310  30.113  0.0676 -0.0116  0.1984
93878W        W36795  19.367  23.936  30.237 -0.0361 -0.0712 -0.2174
93879W        W36796  19.849  22.750  28.367  0.2735  0.0363  0.0665
93880W        W36797  20.818  22.516  25.204 -0.1121 -0.1890  0.0894
93881W        W36798  17.813  24.753  30.649 -0.2800 -0.0428 -0.1059
93882W        W36799  20.430  22.606  29.341  0.0532 -0.0635 -0.0197
93883W        W36800  20.968  22.135  29.040  0.0249  0.1897 -0.0439
93884W        W36801  20.018  20.483  27.728  0.1831  0.2447  0.0456
93885W        W36802  23.788  25.141  29.836  0.1527 -0.1290  0.1875
93886W        W36803  15.441  25.149  29.856 -0.1098 -0.0380  0.1382
93887W        W36804  19.389  23.688   0.156  0.1197  0.2602  0.1447
93888W        W36805  17.317  25.059  27.638 -0.4930  0.2862  0.2379
93889W        W36806  20.911  21.312  28.469 -0.0490 -0.1636 -0.3356
93890W        W36807  18.626  21.530  25.698 -0.0518 -0.1534 -0.1652
93891W        W36808  21.081  22.479  28.493 -0.1107 -0.0802 -0.0439
93892W        W36809  15.419  23.013  26.803 -0.0565 -0.3021  0.0614
93893W        W36810  19.897  23.131  31.701  0.1009 -0.0148 -0.0331
93894W        W36811  19.981  21.211  28.060  0.0596 -0.2598 -0.1634
93895W        W36812  20.625  22.557  31.391  0.0048 -0.3499 -0.0563
93896W        W36813  22.811  23.780  31.074  0.2654  0.1542  0.0963
93897W        W36814  20.097  22.029  27.800 -0.2052  0.3540 -0.1394
93898W        W36815  18.183  22.474  29.730 -0.0475 -0.0027 -0.1830
93899W        W36816  20.643  24.238  27.851 -0.0692 -0.0987  0.2472
93900W        W36817  18.657  23.160  31.868  0.0276  0.2113  0.1175
93901W        W36818  15.726  22.432  29.031 -0.0676  0.0180  0.4190
93902W        W36819  16.756  23.493  28.309 -0.2524  0.2738  0.4394
93903W        W36820  19.681  24.058  29.851  0.0054 -0.2237  0.2289
93904W        W36821  19.667  24.989  29.503  0.0260 -0.1288  0.4916
93905W        W36822  19.423  21.003  30.258 -0.1644  0.2394 -0.2095
93906W        W36823  17.911  22.107  28.450 -0.0992 -0.0896 -0.0687
93907W        W36824  18.610  25.190  30.190 -0.1472 -0.1051  0.3074
93908W        W36825  19.204  25.014  28.372  0.0668 -0.2632  0.3002
93909W        W36826  18.779  22.080  29.475  0.2230  0.2109 -0.0227
93910W        W36827  18.483  25.359  30.736 -0.1858 -0.2533 -0.2716
93911W        W36828  18.654  24.523  27.764 -0.0886 -0.0135 -0.1968
93912W        W36829  19.862  23.651  29.641  0.1781  0.1872  0.1632
93913W        W36830  18.238  24.420  27.475  0.1121  0.0731 -0.1898
93914W        W36831  21.495  20.914  30.041  0.0436 -0.1798 -0.4327
93915W        W36832  18.491  23.736  28.285  0.1851 -0.0753  0.0141
93916W        W36833  17.859  23.494  27.426 -0.0610 -0.1360  0.0831
93917W        W36834  21.285  22.550  29.032  0.4094  0.0779 -0.3778
93918W        W36835  21.663  22.082  29.841 -0.2983 -0.0298  0.1020
93919W        W36836  21.737  21.896  27.558  0.1955  0.0417 -0.2919
93920W        W36837  18.427  20.718  25.445 -0.3131  0.1104 -0.0184
93921W        W36838  18.652  21.624  27.141  0.0841 -0.0089 -0.0459
93922W        W36839  19.297  24.125  28.872 -0.1713 -0.2788  0.4883
93923W        W36840  19.793  22.800   0.393 -0.0113 -0.3596  0.0991
93924W        W36841  20.948  20.834  27.759  0.0516  0.1653  0.4195
93925W        W36842  21.414  23.441  28.710 -0.0791  0.6097  0.0857
93926W        W36843  17.038  23.617  28.917  0.2511 -0.2688  0.2070
93927W        W36844  15.858  21.731  25.612 -0.0695 -0.2791  0.0717
93928W        W36845  21.250  23.273  31.471 -0.1885 -0.1074 -0.1113
93929W        W36846  19.687  21.716  26.886 -0.2169 -0.2410  0.5817
93930W        W36847  16.697  24.188  26.440 -0.0524  0.3516  0.1288
93931W        W36848  21.271  23.675  31.213 -0.0792  0.1170 -0.0852
93932W        W36849  19.034  23.481  28.380 -0.1280  0.1066  0.3139
93933W        W36850  18.877  23.550  28.912  0.2227 -0.2379  0.0612
93934W        W36851  20.221  21.784  28.225  0.2944  0.1137  0.0544
93935W        W36852  17.922  23.026  30.580  0.3547 -0.0657  0.2430
93936W        W36853  18.853  23.868  29.879 -0.1688 -0.1229 -0.0673
93937W        W36854  20.126  21.969  26.869 -0.0819 -0.0888 -0.0663
93938W        W36855  19.054  23.922  28.177  0.1199  0.0280 -0.0246
93939W        W36856  20.349  22.927  30.237 -0.1519  0.3205  0.0305
93940W        W36857  19.338  21.920  29.491  0.0481  0.2219  0.0466
93941W        W36858  17.929  23.279  27.940 -0.5459  0.0888 -0.3192
93942W        W36859  18.721  21.557  27.703  0.0336 -0.0293 -0.1210
93943W        W36860  21.206  26.448  28.273  0.0713 -0.3505 -0.2628
93944W        W36861  18.795  25.142  31.668 -0.3803  0.0778  0.1826
93945W        W36862  18.326  23.379  27.685  0.0274  0.1044  0.0039
93946W        W36863  17.928  23.339  25.914  0.1519  0.2299  0.0739
93947W        W36864  18.912  25.166  29.294 -0.0301  0.1737 -0.3128
93948W        W36865  18.271  20.408  29.874 -0.1958 -0.1246 -0.0203
93949W        W36866  20.116  23.496  28.776  0.2354 -0.1800 -0.1039
93950W        W36867  18.347  23.525  26.141  0.1185  0.2290 -0.1193
93951W        W36868  17.318  24.850  30.646  0.1084  0.0327 -0.3317
93952W        W36869  21.993  19.179  25.762  0.2230 -0.0480  0.2057
93953W        W36870  20.666  21.708  29.140 -0.2444 -0.3299  0.0580
93954W        W36871  18.191  24.195  28.075  0.0061 -0.2640  0.2068
93955W        W36872  19.932  22.693  30.528 -0.0826  0.1614 -0.0032
93956W        W36873  22.311  20.980  27.552 -0.2871  0.2614  0.0159
93957W        W36874  20.220  20.090  28.930 -0.3343 -0.0065  0.0459
93958W        W36875  18.350  21.634  29.675  0.0472  0.1015  0.0659
93959W        W36876  21.777  21.915  30.265  0.1043  0.2508  0.1977
93960W        W36877  18.488  23.484  29.275  0.3093 -0.2577  0.1581
93961W        W36878  20.778  23.133  30.517  0.2326  0.0189 -0.2092
93962W        W36879  16.623  22.734  29.011 -0.4548 -0.4527 -0.1391
93963W        W36880  20.189  23.165  28.315 -0.2451 -0.0836  0.1581
93964W        W36881  18.855  21.003  25.611  0.2894  0.0435 -0.2058
93965W        W36882  18.265  22.253  30.565  0.0391  0.1137  0.1174
93966W        W36883  20.707  21.608  29.711  0.0535 -0.0600  0.2187
93967W        W36884  19.507  25.816  29.026 -0.2446  0.1986  0.2001
93968W        W36885  22.889  20.725  28.181  0.2874 -0.0986 -0.0449
93969W        W36886  16.518  24.524  29.063 -0.0801 -0.0690  0.0984
93970W        W36887  21.103  22.090  29.722 -0.1571 -0.1222  0.0721
93971W        W36888  17.635  23.574  26.985  0.3528  0.5370 -0.0181
93972W        W36889  17.945  22.920  29.004  0.0408 -0.2441  0.0554
93973W        W36890  16.989  21.885  29.310 -0.0654  0.1677  0.3437
93974W        W36891  19.741  24.981  30.114  0.0128 -0.0522 -0.0613
93975W        W36892  19.186  21.484  28.330 -0.6480 -0.1162  0.0573
93976W        W36893  19.991  20.340  29.636  0.1153 -0.1108  0.3318
93977W        W36894  18.673  24.743  29.213  0.1183  0.5172  0.3107
93978W        W36895  18.158  22.526  29.155  0.1995 -0.0174 -0.2827
93979W        W36896  19.408  22.595  30.764  0.2196  0.1598  0.0781
93980W        W36897  20.764  27.244  30.112 -0.0395  0.1163 -0.0532
93981W        W36898  22.569  22.503  29.358 -0.0078  0.2975 -0.2179
93982W        W36899  23.254  22.943  30.052 -0.0453  0.2577 -0.0700
93983W        W36900  19.851  22.251  28.225 -0.5150 -0.2290 -0.0560
93984W        W36901  19.258  22.388  25.329  0.1339 -0.0194 -0.1751
93985W        W36902  19.788  21.151  26.279 -0.0477 -0.0259 -0.2551
93986W        W36903  20.087  23.766  30.681 -0.0691 -0.1456  0.0452
93987W        W36904  17.743  22.533  29.460  0.1678  0.1925 -0.2920
93988W        W36905  19.886  24.774  31.027 -0.1609  0.1348  0.1713
93989W        W36906  18.985  24.935  28.804  0.1466  0.2287 -0.3387
93990W        W36907  20.633  23.493  28.590  0.0819  0.1280  0.0342
93991W        W36908  22.453  21.416  28.826 -0.0981  0.1436  0.2361
93992W        W36909  18.335  21.165  25.624 -0.1057 -0.3353 -0.3128
93993W        W36910  18.094  23.769  27.923  0.3107  0.3258  0.1030
93994W        W36911  17.922  21.295  26.044  0.0893 -0.3012  0.0675
93995W        W36912  20.298  21.925  25.631  0.0942 -0.1191 -0.1520
93996W        W36913  20.411  25.458  29.727 -0.1793  0.3776  0.0346
93997W        W36914  21.195  24.353  31.290 -0.2849  0.0729 -0.3481
93998W        W36915  19.979  21.179  25.179 -0.2673  0.1270  0.4272
93999W        W36916  22.170  23.664  31.956  0.1597 -0.0322  0.3363
94000W        W36917  16.024  25.426  26.836  0.1202  0.2460  0.2388
94001W        W36918  21.867  20.321  28.295  0.0014  0.1588  0.3553
94002W        W36919  17.503  23.167  27.340  0.1421  0.4867 -0.1134
94003W        W36920  18.035  24.481  31.496 -0.0147  0.2425 -0.3313
94004W        W36921  17.394  24.602  27.441 -0.1828 -0.0865  0.4401
94005W        W36922  20.961  20.881  30.408 -0.0500  0.1088  0.1850
94006W        W36923  22.685  20.827  28.786  0.0432  0.3331  0.2605
94007W        W36924  21.275  22.539  29.942  0.3243 -0.0208 -0.0914
94008W        W36925  19.893  22.886  30.003 -0.0436 -0.0813 -0.0698
94009W        W36926  19.476  22.913  30.381  0.3444  0.0766  0.1737
94010W        W36927  18.849  23.061  29.102 -0.0083  0.0506  0.2741
94011W        W36928  22.452  24.168  30.802  0.1116 -0.1020 -0.0100
94012W        W36929  22.379  23.545  28.567  0.0969 -0.0149  0.1532
94013W        W36930  17.430  24.241  30.555 -0.2743  0.0540 -0.0501
94014W        W36931  17.934  20.988  29.443  0.0929  0.2320  0.3254
94015W        W36932  18.031  21.548  30.183 -0.1613 -0.2460  0.0789
94016W        W36933  19.831  23.524  26.908  0.0226  0.3630 -0.1698
94017W        W36934  20.120  20.425  27.240 -0.1439 -0.4725  0.0572
94018W        W36935  18.475  24.878  28.700  0.1738 -0.1977  0.0724
94019W        W36936  17.681  26.237  31.402 -0.4351  0.0769 -0.0637
94020W        W36937  19.681  22.668  26.466 -0.2579 -0.2414 -0.1147
94021W        W36938  18.103  23.729  26.998  0.1103  0.1380  0.1386
94022W        W36939  19.630  24.444  29.515 -0.1194  0.1756 -0.1621
94023W        W36940  20.633  22.981  29.623  0.1558 -0.0974 -0.0655
94024W        W36941  21.139  24.803  30.025 -0.2477  0.0899 -0.0042
94025W        W36942  19.598  18.602  24.827  0.0817  0.2353 -0.2917
94026W        W36943  17.832  24.516  29.355  0.1601 -0.4251 -0.2380
94027W        W36944  18.723  24.916  29.733  0.2230 -0.3983 -0.1568
94028W        W36945  21.811  26.435  28.302  0.2920  0.0410 -0.1068
94029W        W36946  17.594  23.198  26.664 -0.0690  0.0006 -0.6274
94030W        W36947  20.587  24.411  29.982 -0.2118  0.1232 -0.1270
94031W        W36948  20.118  20.332  26.083  0.0537 -0.1646  0.1445
94032W        W36949  20.208  23.548  31.724 -0.0162 -0.0756  0.0127
94033W        W36950  19.759  24.348  28.868  0.0185  0.0131 -0.2252
94034W        W36951  18.681  23.332  30.803  0.1908 -0.1074 -0.0380
94035W        W36952  18.810  22.235  28.418  0.0098  0.2301  0.3729
94036W        W36953  19.289  21.522  27.349 -0.0639 -0.0483  0.0221
94037W        W36954  17.879  22.079  27.500  0.1291  0.1657 -0.2226
94038W        W36955  19.551  22.383  29.258  0.1248 -0.0653 -0.0978
94039W        W36956  17.397  25.313  30.697 -0.2776  0.0058  0.1318
94040W        W36957  20.207  24.538  28.764 -0.1977  0.4743  0.1728
94041W        W36958  18.351  21.498  25.263 -0.1346 -0.1105  0.1184
94042W        W36959  19.771  23.057  26.797 -0.0872 -0.2929  0.2325
94043W        W36960  20.125  22.393  31.432  0.2058 -0.3256  0.3532
94044W        W36961  18.845  21.986  28.014  0.3284  0.1853  0.3250
94045W        W36962  19.737  22.359  27.712  0.0593  0.0614 -0.0908
94046W        W36963  17.460  24.364  28.509 -0.2720  0.0702  0.2307
94047W        W36964  18.126  24.302  29.801  0.0362 -0.2125  0.1416
94048W        W36965  18.258  24.094  28.576 -0.0312 -0.1378 -0.1789
94049W        W36966  17.587  23.913  27.514 -0.0276  0.0576 -0.2219
94050W        W36967  20.319  23.675  29.422 -0.0111 -0.3559 -0.1712
94051W        W36968  17.566  21.181  29.186  0.1188 -0.0628  0.1867
94052W        W36969  20.271  23.948  29.825 -0.0013  0.1149 -0.0114
94053W        W36970  16.803  23.755  26.663  0.3668  0.0503  0.2258
94054W        W36971  20.674  21.785  27.991 -0.2452  0.1079 -0.4813
94055W        W36972  21.135  23.131  29.828  0.1039 -0.0601 -0.0968
94056W        W36973  15.815  21.220  26.381 -0.0367 -0.1233 -0.2999
94057W        W36974  18.385  23.056  25.904 -0.0666 -0.0472  0.2246
94058W        W36975  20.943  23.608  30.641  0.0862  0.0620 -0.0311
94059W        W36976  19.802  22.072  25.987 -0.1112  0.0261 -0.1077
94060W        W36977  19.467  25.868  29.963  0.1402  0.0369 -0.2144
94061W        W36978  19.078  23.835  27.208 -0.3708 -0.2594 -0.2177
94062W        W36979  20.001  19.227  29.061 -0.2179  0.1117 -0.1478
94063W        W36980  17.615  23.725  28.012  0.0704 -0.0154 -0.1859
94064W        W36981  20.553  23.314  29.033 -0.2129  0.3947 -0.0132
94065W        W36982  20.815  25.203   0.380  0.0735 -0.3611  0.0748
94066W        W36983  19.620  19.735  25.559  0.1610 -0.1227  0.1623
94067W        W36984  20.423  23.564  27.828  0.2128 -0.0273 -0.0228
94068W        W36985  19.423  23.266  30.921 -0.0485  0.1196  0.0960
94069W        W36986  20.733  24.357  29.004 -0.0483  0.1261 -0.0660
94070W        W36987  17.451  20.154  29.314 -0.0699  0.1505  0.0727
94071W        W36988  20.988  25.828  29.427  0.2058 -0.1819  0.2581
94072W        W36989  17.506  22.422  28.480 -0.2248  0.2320 -0.0759
94073W        W36990  20.187  25.936  29.603  0.2989 -0.4471 -0.0112
94074W        W36991  23.046  25.497  28.402 -0.2251  0.0413 -0.0258
94075W        W36992  19.391  18.688  26.358 -0.0439 -0.1746 -0.1902
94076W        W36993  17.778  21.372  28.041  0.3602 -0.3306 -0.1119
94077W        W36994  19.101  24.032  27.682 -0.1126 -0.2377 -0.1336
94078W        W36995  19.767  21.246  28.587  0.1971 -0.3617 -0.3747
94079W        W36996  21.939  22.631  30.550  0.0132  0.0431 -0.2680
94080W        W36997  21.837  24.140  26.893  0.0414 -0.0496  0.0823
94081W        W36998  20.599  21.911  28.550  0.1979  0.0109 -0.1540
94082W        W36999  18.797  23.988  28.616 -0.0776 -0.0084 -0.0069
94083W        W37000  17.861  23.502  31.138 -0.2104  0.2698  0.1086
94084W        W37001  17.522  24.596  26.882  0.2403 -0.3010  0.0348
94085W        W37002  19.130  23.470  31.736  0.2154 -0.1336  0.1354
94086W        W37003  19.345  24.194  30.725  0.0416 -0.4982  0.2682
94087W        W37004  19.602  23.701  30.647  0.0045  0.2361  0.0949
94088W        W37005  19.183  24.675  29.611 -0.0012 -0.2266  0.0599
94089W        W37006  19.633  23.232  28.429  0.0702  0.2271  0.0176
94090W        W37007  20.701  25.771  28.725 -0.0491  0.2927  0.0172
94091W        W37008  20.035  22.465  29.079  0.0729 -0.1343 -0.0815
94092W        W37009  21.693  21.272  29.707  0.0204 -0.3068 -0.0563
94093W        W37010  20.395  19.113  27.830  0.0489  0.0652  0.0246
94094W        W37011  18.974  25.530  29.849 -0.2470 -0.4758  0.3263
94095W        W37012  16.333  24.402  26.001  0.2193  0.0707  0.2137
94096W        W37013  16.608  22.795  26.608 -0.0487  0.2166  0.0456
94097W        W37014  17.784  24.023  28.368 -0.0569  0.2838 -0.0916
94098W        W37015  21.417  19.024  28.257 -0.2092 -0.1971  0.1646
94099W        W37016  18.772  22.075  27.439  0.1003 -0.0888 -0.1721
94100W        W37017  19.107  22.540  28.165  0.1706  0.1474  0.4501
94101W        W37018  19.758  21.748  28.016 -0.2887  0.1047 -0.0867
94102W        W37019  21.510  24.211  29.650  0.2599 -0.1796  0.2285
94103W        W37020  18.457  22.507  30.156 -0.1481 -0.3313  0.0508
94104W        W37021  17.486  21.691  28.352 -0.0886 -0.1609  0.3011
94105W        W37022  21.230  25.147  29.701  0.0525 -0.0804  0.0484
94106W        W37023  20.275  23.946  31.326 -0.0144  0.0385  0.2105
94107W        W37024  19.761  19.751  28.153 -0.0084  0.0644  0.1332
94108W        W37025  18.000  25.223  30.768  0.0247  0.0784  0.0211
94109W        W37026  18.395  23.204  28.150 -0.4598  0.1055 -0.0437
94110W        W37027  18.475  20.675  29.443  0.2872 -0.0541  0.1212
94111W        W37028  21.694  21.117  30.686  0.0261  0.3272  0.1432
94112W        W37029  17.115  21.654  25.861  0.0574 -0.0191 -0.1936
94113W        W37030  21.018  21.683  28.799 -0.5139 -0.1373 -0.1666
94114W        W37031  20.254  25.143  29.321 -0.0768 -0.3728 -0.2470
94115W        W37032  20.648  23.856  27.486  0.1178 -0.4328  0.1574
94116W        W37033  21.590  24.698  29.495  0.0848 -0.1953 -0.0675
94117W        W37034  20.742  25.274  28.725 -0.1664 -0.2247  0.1790
94118W        W37035  16.890  22.259  29.030  0.2226  0.4657  0.2905
94119W        W37036  19.815  24.212  30.275 -0.1904  0.1887  0.0660
94120W        W37037  17.381  23.367  31.016 -0.1924  0.1926 -0.1460
94121W        W37038  22.799  21.834  28.607 -0.3810  0.1773  0.2010
94122W        W37039  19.895  22.817  29.518 -0.0426  0.0903 -0.1562
94123W        W37040  20.836  22.720  30.123 -0.4473 -0.1541 -0.0667
94124W        W37041  19.806  20.871  29.939 -0.0804 -0.2088 -0.0815
94125W        W37042  19.158  22.273  29.023  0.2755  0.4664  0.1067
94126W        W37043  19.164  24.209  29.787 -0.1762  0.2074  0.0709
94127W        W37044  19.340  20.539  27.671 -0.1373  0.2858 -0.0884
94128W        W37045  19.590  21.741  28.520 -0.0001  0.5466 -0.2461
94129W        W37046  19.403  26.121  27.032 -0.1974 -0.1344 -0.1047
94130W        W37047  18.739  24.216  27.340  0.0602  0.4100  0.4109
94131W        W37048  20.227  21.084  28.521  0.2262  0.4554 -0.0320
94132W        W37049  17.943  21.925  29.653  0.0214 -0.0003  0.0355
94133W        W37050  19.079  22.931  27.808 -0.0673  0.3528  0.0271
94134W        W37051  22.273  22.823   0.664  0.0746 -0.1928 -0.0620
94135W        W37052  18.025  23.262  26.975 -0.2442 -0.0471  0.0903
94136W        W37053  22.014  21.721  26.567 -0.0907  0.0606  0.1643
94137W        W37054  20.672  24.794  28.553  0.1848  0.1977  0.2064
94138W        W37055  21.045  25.182  31.769  0.3161  0.3624 -0.0025
94139W        W37056  20.211  23.925  28.137  0.3879  0.3200 -0.2457
94140W        W37057  21.372  25.170  30.915 -0.0552  0.0886 -0.2227
94141W        W37058  17.916  19.948  27.505  0.0574  0.2479 -0.0223
94142W        W37059  19.496  21.867  29.035  0.2522 -0.1730  0.1726
94143W        W37060  18.828  23.403  27.945  0.4632 -0.2936  0.0582
94144W        W37061  19.749  22.234  29.724 -0.1678  0.0409 -0.0278
94145W        W37062  20.105  21.888  29.191  0.2379  0.0261 -0.0832
94146W        W37063  20.684  23.215  28.086 -0.0529  0.1119  0.0170
94147W        W37064  18.271  24.282  29.275  0.0952  0.0588 -0.1144
94148W        W37065  19.510  23.144  29.768 -0.1458  0.0475 -0.1047
94149W        W37066  19.500  21.683  30.400 -0.3356  0.0655  0.1473
94150W        W37067  20.949  24.359  31.881  0.0543  0.3874  0.3074
94151W        W37068  19.680  21.136  30.738  0.2493  0.0693  0.3102
94152W        W37069  17.448  24.825  29.446 -0.2130 -0.1917  0.0818
94153W        W37070  18.924  23.845  29.396  0.0744 -0.1116  0.0832
94154W        W37071  18.822  24.496  30.012  0.0177  0.0768  0.2347
94155W        W37072  18.566  22.731   1.832 -0.0598  0.0598 -0.1332
94156W        W37073  19.187  22.134  30.762  0.3065 -0.1654 -0.0290
94157W        W37074  19.644  22.625  31.519  0.1810 -0.0029 -0.3417
94158W        W37075  19.740  26.597  30.244  0.0338  0.2090 -0.0578
94159W        W37076  18.928  25.426   2.302 -0.0785  0.0600  0.2083
94160W        W37077  18.676  22.608  29.354  0.0881  0.1347 -0.0135
94161W        W37078  21.149  23.835   0.933 -0.0084 -0.1405  0.2240
94162W        W37079  19.455  22.901  31.960 -0.0182 -0.2337 -0.0984
94163W        W37080  22.159  24.033   0.842  0.1308  0.4097 -0.0424
94164W        W37081  20.434  25.020  30.524  0.0527 -0.1442 -0.1247
94165W        W37082  17.384  24.586  30.157  0.0323  0.0290  0.2618
94166W        W37083  21.279  23.853  30.016 -0.3162 -0.0245  0.3731
94167W        W37084  17.491  21.029  29.707  0.0263 -0.1269  0.2682
94168W        W37085  17.987  20.650  30.374 -0.1675 -0.2774  0.0715
94169W        W37086  17.029  21.687  28.256 -0.1734 -0.1223 -0.2402
94170W        W37087  18.858  25.653  30.898 -0.1256  0.5235 -0.2006
94171W        W37088  19.199  21.093  31.190 -0.2697 -0.0465 -0.1018
94172W        W37089  21.420  23.266   0.227  0.0475 -0.0426  0.0326
94173W        W37090  21.067  19.447  31.521  0.1045  0.1977  0.0879
94174W        W37091  19.768  21.985   0.162 -0.2124  0.3284 -0.1036
94175W        W37092  18.480  23.582  30.112 -0.0796 -0.0475 -0.1557
94176W        W37093  17.935  26.214  30.664 -0.3250 -0.1487 -0.1312
94177W        W37094  17.110  21.490  27.421 -0.0097 -0.0947 -0.0950
94178W        W37095  18.016  23.517  30.608 -0.2496 -0.2652  0.1541
94179W        W37096  18.913  25.996  30.073  0.1698  0.5061  0.1960
94180W        W37097  19.950  22.012  28.709  0.2575 -0.1790 -0.2274
94181W        W37098  21.567  24.651  31.035  0.1389  0.2726 -0.1331
94182W        W37099  20.674  22.185  29.452 -0.1444  0.4110  0.1650
94183W        W37100  17.735  21.472  29.703 -0.0313 -0.0006 -0.1712
94184W        W37101  18.925  24.028  30.416 -0.2656  0.2993 -0.2235
94185W        W37102  17.160  24.067  30.139  0.1042  0.1802  0.2707
94186W        W37103  18.670  24.278  29.575 -0.1312  0.2277 -0.2299
94187W        W37104  21.269  23.804   0.327  0.2685 -0.2332  0.1407
94188W        W37105  18.358  22.803  30.543 -0.1575  0.1369  0.0006
94189W        W37106  22.091  22.781  31.419  0.1943  0.4169 -0.0178
94190W        W37107  17.944  22.250   0.020  0.1047 -0.2019 -0.4156
94191W        W37108  19.416  21.407  29.412  0.2328 -0.0980  0.1202
94192W        W37109  18.879  22.380   0.495  0.1477  0.0541  0.3463
94193W        W37110  19.649  22.201  30.437 -0.3109 -0.1273 -0.1164
94194W        W37111  18.711  22.471  30.672 -0.3713  0.0996  0.0555
94195W        W37112  20.122  19.839  29.391  0.0134 -0.0639  0.0808
94196W        W37113  20.519  23.056  31.828  0.1102 -0.1426  0.2040
94197W        W37114  20.589  23.155   0.531  0.0723  0.1856 -0.1965
94198W        W37115  17.152  23.743  30.550 -0.0535 -0.4295 -0.0371
94199W        W37116  20.894  25.146  30.703  0.3195  0.3853 -0.0317
94200W        W37117  21.124  21.805  31.892 -0.1551 -0.1571 -0.1133
94201W        W37118  18.456  20.276  29.173 -0.0695  0.2876  0.1948
94202W        W37119  18.466  22.288  31.095 -0.1419  0.0669  0.2513
94203W        W37120  17.767  21.317  28.705  0.1015 -0.1962  0.1948
94204W        W37121  21.555  22.648  30.873  0.4375 -0.1866  0.1523
94205W        W37122  21.464  25.457  31.669  0.1742 -0.2266 -0.1121
94206W        W37123  20.660  26.273  30.408 -0.0712 -0.0443 -0.1427
94207W        W37124  20.753  23.393  29.997 -0.3381 -0.0293  0.1362
94208W        W37125  20.686  24.588  30.435 -0.3066  0.0653 -0.0730
94209W        W37126  17.317  23.345  31.926  0.1828 -0.0371 -0.0568
94210W        W37127  18.793  23.364  29.630 -0.2518  0.1970 -0.2780
94211W        W37128  17.170  22.484  30.133  0.1976 -0.1492 -0.0339
94212W        W37129  16.518  20.997  29.669  0.0724 -0.1041 -0.2048
94213W        W37130  20.590  25.331  31.851 -0.1310  0.0479 -0.1069
94214W        W37131  19.089  23.499  30.455 -0.1089 -0.3553  0.1821
94215W        W37132  20.625  20.339  31.807  0.3481  0.0134  0.0946
94216W        W37133  19.744  30.114  17.543 -0.1214  0.0791 -0.0680
94217W        W37134  18.555  27.128  18.011  0.0968  0.2863  0.1299
94218W        W37135  20.567  28.366  17.270 -0.1401  0.3545 -0.0114
94219W        W37136  20.678  27.953  17.002  0.2453 -0.0545  0.0865
94220W        W37137  19.517  27.693  17.958 -0.0859 -0.2592  0.0851
94221W        W37138  21.186  29.161  17.541  0.2764 -0.1691 -0.0487
94222W        W37139  19.831  23.432  18.292  0.3013  0.4116  0.4052
94223W        W37140  22.292  28.773  17.279 -0.0801  0.2693  0.0232
94224W        W37141  19.509  30.185  17.073  0.1127  0.0516  0.1302
94225W        W37142  20.451  26.756  16.158 -0.0869  0.0251  0.0122
94226W        W37143  19.614  27.699  18.809  0.1848 -0.0741  0.1123
94227W        W37144  20.267  28.955  19.948 -0.1243 -0.1882  0.2710
94228W        W37145  19.662  26.426  17.307  0.3441 -0.2993 -0.1355
94229W        W37146  18.110  25.631  17.284 -0.0700  0.1545  0.1620
94230W        W37147  21.591  27.839  18.911 -0.1171 -0.0034  0.2826
94231W        W37148  18.902  29.135  16.812  0.4040 -0.0737  0.1686
94232W        W37149  17.440  27.810  20.933 -0.2166 -0.2405  0.2997
94233W        W37150  20.827  27.085  16.232  0.0163 -0.1902 -0.2816
94234W        W37151  18.141  29.327  17.059  0.2212 -0.0685  0.0469
94235W        W37152  19.812  25.687  18.879 -0.0803 -0.0620  0.1211
94236W        W37153  21.817  27.222  20.547  0.1627 -0.1008  0.2340
94237W        W37154  19.172  27.376  17.062  0.0094 -0.0663  0.1390
94238W        W37155  19.631  27.521  16.232 -0.2137  0.1556 -0.2689
94239W        W37156  17.188  27.950  19.394 -0.0152 -0.0526  0.1329
94240W        W37157  17.307  27.509  18.715 -0.0454  0.1202 -0.1069
94241W        W37158  21.158  25.388  16.928 -0.3796 -0.1402  0.2213
94242W        W37159  23.633  28.877  18.353  0.1131  0.1137 -0.1283
94243W        W37160  19.275  28.832  17.145 -0.1098  0.0170  0.2998
94244W        W37161  18.955  30.234  17.166  0.0647  0.0284 -0.2951
94245W        W37162  20.568  28.040  21.402 -0.2249  0.2531 -0.0175
94246W        W37163  20.205  28.582  18.561 -0.2681  0.1322  0.0843
94247W        W37164  15.752  28.538  17.153 -0.0547  0.0495 -0.2135
94248W        W37165  18.968  29.172  16.323 -0.0417 -0.2490  0.0061
94249W        W37166  22.004  26.336  20.571  0.0250  0.0840 -0.2585
94250W        W37167  20.707  28.009  22.401  0.1072  0.0211 -0.2699
94251W        W37168  17.176  31.174  20.171  0.0557 -0.1868 -0.1651
94252W        W37169  18.636  28.391  17.898  0.1032  0.0188  0.1500
94253W        W37170  19.324  27.709  19.280 -0.1193  0.0814 -0.0556
94254W        W37171  20.257  28.803  21.365  0.1488 -0.1011 -0.3414
94255W        W37172  21.237  27.321  18.070 -0.2019 -0.1547 -0.2171
94256W        W37173  20.021  27.781  17.780 -0.2532 -0.1581  0.1885
94257W        W37174  17.617  29.628  16.728  0.2467  0.2137 -0.0130
94258W        W37175  21.534  27.982  17.988  0.2037 -0.0402 -0.0393
94259W        W37176  19.013  27.699  18.755  0.3491 -0.1764  0.0304
94260W        W37177  18.257  28.314  18.280  0.0686  0.0678  0.2619
94261W        W37178  20.705  26.027  20.044 -0.3286  0.1362 -0.0775
94262W        W37179  18.570  28.528  17.431  0.0033 -0.0021  0.0891
94263W        W37180  21.313  26.866  17.120  0.0548  0.3006  0.2420
94264W        W37181  18.570  25.100  16.162 -0.1466 -0.1880 -0.1893
94265W        W37182  21.209  26.440  16.801 -0.0705 -0.1697 -0.0151
94266W        W37183  20.261  24.958  17.063 -0.2994  0.1324 -0.1192
94267W        W37184  19.895  29.425  16.924 -0.4509  0.3351  0.0610
94268W        W37185  20.579  26.229  18.267  0.1142  0.2461 -0.0011
94269W        W37186  22.699  26.836  19.579  0.2076 -0.1365 -0.1173
94270W        W37187  20.979  26.639  16.264  0.0494 -0.0393  0.1731
94271W        W37188  21.605  26.263  20.314 -0.1626  0.0747  0.0211
94272W        W37189  19.082  28.443  17.385 -0.1621  0.1881 -0.0142
94273W        W37190  18.182  26.928  17.534 -0.0844  0.0042 -0.0723
94274W        W37191  23.072  28.623  20.654 -0.0223  0.2717  0.1262
94275W        W37192  21.968  29.240  17.237 -0.1680 -0.0320 -0.2465
94276W        W37193  19.019  29.636  16.955  0.0583  0.3328 -0.1871
94277W        W37194  18.935  27.154  18.728 -0.0577  0.0420 -0.2447
94278W        W37195  16.037  28.389  18.252  0.0539 -0.0023 -0.3115
94279W        W37196  15.641  28.000  19.241 -0.0767 -0.1579 -0.1440
94280W        W37197  19.341  25.256  16.750 -0.0988 -0.0928  0.1395
94281W        W37198  20.865  29.603  18.089 -0.1874 -0.0081 -0.1451
94282W        W37199  17.017  28.774  21.657  0.1810  0.0579  0.1498
94283W        W37200  21.666  26.960  18.055 -0.2007 -0.0403 -0.0753
94284W        W37201  20.498  27.783  19.154 -0.1752 -0.4126  0.0125
94285W        W37202  20.878  29.565  19.487 -0.0659  0.5407  0.1304
94286W        W37203  21.269  27.430  16.480  0.0985  0.1436  0.2545
94287W        W37204  21.216  26.471  17.481  0.1695 -0.4466 -0.1908
94288W        W37205  21.304  26.758  22.388 -0.1399  0.1938  0.2291
94289W        W37206  20.222  28.054  18.384 -0.0685  0.3372  0.0041
94290W        W37207  20.113  27.318  16.476  0.0840 -0.2273 -0.4228
94291W        W37208  18.854  28.294  18.569 -0.2120 -0.1004 -0.1468
94292W        W37209  20.937  26.603  15.726 -0.1406 -0.0350 -0.2065
94293W        W37210  18.488  27.577  16.789 -0.2513  0.0414  0.0669
94294W        W37211  20.323  26.968  20.126 -0.2293  0.2211 -0.1535
94295W        W37212  18.052  28.063  19.550  0.1059  0.0876  0.0878
94296W        W37213  18.962  30.174  16.188 -0.2152  0.0545  0.1820
94297W        W37214  19.499  28.216  19.679  0.1262  0.2715  0.3152
94298W        W37215  16.899  26.753  15.741  0.2468 -0.0466 -0.1527
94299W        W37216  17.374  26.292  18.000  0.0418  0.3496 -0.1954
94300W        W37217  17.765  27.855  19.992  0.3813 -0.0573  0.2546
94301W        W37218  22.030  25.188  18.379  0.0512  0.1718  0.0744
94302W        W37219  18.520  25.735  19.269  0.3280  0.2163 -0.1357
94303W        W37220  19.697  25.581  18.354 -0.2047 -0.1175 -0.0656
94304W        W37221  19.541  27.274  17.535  0.4737 -0.3143  0.3361
94305W        W37222  19.753  30.945  18.790  0.1906  0.1906 -0.3235
94306W        W37223  21.734  27.271  16.274 -0.2430 -0.0772 -0.0667
94307W        W37224  18.285  28.138  17.153  0.4213  0.2793 -0.0088
94308W        W37225  17.740  27.266  20.377  0.0317 -0.3364  0.1569
94309W        W37226  19.326  27.544  18.404 -0.2325 -0.0694  0.0470
94310W        W37227  18.804  25.923  18.337  0.0422 -0.1562 -0.1820
94311W        W37228  16.556  27.545  16.583 -0.0457 -0.0290  0.3417
94312W        W37229  21.962  26.957  18.455  0.0200 -0.0114 -0.2620
94313W        W37230  19.106  25.992  17.337  0.1879 -0.0304 -0.2024
94314W        W37231  22.429  27.583  16.936  0.0379 -0.1541 -0.2118
94315W        W37232  19.258  27.055  16.170 -0.1690  0.2820  0.1145
94316W        W37233  16.834  27.308  18.786  0.0998 -0.1678 -0.0452
94317W        W37234  20.139  26.476  18.591  0.1014  0.1023 -0.1348
94318W        W37235  19.762  28.343  16.733 -0.3468 -0.1596 -0.1190
94319W        W37236  21.327  28.284  21.620 -0.0613  0.1523  0.0081
94320W        W37237  20.914  30.020  18.271  0.1803  0.1824 -0.0826
94321W        W37238  17.319  26.187  19.054 -0.0802 -0.3018 -0.2795
94322W        W37239  17.649  26.239  16.695 -0.0477 -0.0088 -0.0407
94323W        W37240  16.525  29.514  17.669 -0.1905 -0.1964 -0.1519
94324W        W37241  16.835  29.567  18.108 -0.1449  0.1063  0.1416
94325W        W37242  17.646  26.076  17.656 -0.1031  0.2375 -0.3457
94326W        W37243  22.778  29.896  17.698 -0.0453 -0.2651 -0.0094
94327W        W37244  22.763  27.622  18.832  0.2394  0.3600  0.0246
94328W        W37245  18.060  28.600  19.645  0.0866 -0.1330  0.0150
94329W        W37246  21.941  26.167  19.989  0.0113 -0.1962 -0.4726
94330W        W37247  23.023  28.289  20.131  0.1838  0.0489 -0.0133
94331W        W37248  22.580  25.657  17.600  0.1582 -0.0697 -0.1561
94332W        W37249  18.568  26.338  17.364  0.1629 -0.1958  0.2409
94333W        W37250  19.145  29.617  18.861  0.1078 -0.0207  0.0347
94334W        W37251  19.714  27.933  18.368  0.0071  0.0157 -0.0227
94335W        W37252  20.680  27.069  15.731  0.2911 -0.1003 -0.0543
94336W        W37253  20.906  28.365  17.594 -0.2174  0.2927 -0.0132
94337W        W37254  21.629  26.360  18.855 -0.0630 -0.0462 -0.0828
94338W        W37255  16.520  26.685  19.294 -0.1526  0.0853  0.1759
94339W        W37256  20.483  26.810  19.437  0.3044 -0.1532 -0.4183
94340W        W37257  19.006  27.314  17.524 -0.1965 -0.2759  0.1557
94341W        W37258  19.004  28.345  21.682  0.1455 -0.3719 -0.0191
94342W        W37259  21.480  25.599  16.624  0.1432  0.1248 -0.1517
94343W        W37260  22.553  26.929  16.622  0.0844 -0.1689 -0.1261
94344W        W37261  20.098  26.853  16.763  0.0690 -0.0611 -0.2721
94345W        W37262  21.111  27.666  16.989  0.1542  0.4327 -0.0896
94346W        W37263  19.122  25.775  15.678 -0.0204 -0.0319 -0.1299
94347W        W37264  20.531  27.513  17.353 -0.1081  0.2410  0.2769
94348W        W37265  19.277  29.343  22.221 -0.2704 -0.3169 -0.1435
94349W        W37266  19.666  27.711  19.690  0.1569 -0.0791 -0.2998
94350W        W37267  22.483  28.115  20.356 -0.1636 -0.1877 -0.0871
94351W        W37268  19.723  26.633  16.222 -0.0314  0.1122  0.1287
94352W        W37269  21.578  28.960  17.393 -0.0031  0.1792 -0.2306
94353W        W37270  17.262  28.304  19.025  0.0650  0.2412  0.3972
94354W        W37271  16.718  28.645  19.706  0.0577  0.1355  0.4252
94355W        W37272  21.790  29.218  18.722  0.0007 -0.0434  0.3022
94356W        W37273  19.802  25.562  17.079  0.1466 -0.1984 -0.0900
94357W        W37274  20.659  26.309  16.037 -0.1214  0.3405  0.1618
94358W        W37275  21.560  25.627  17.111 -0.0786 -0.2679 -0.1904
94359W        W37276  17.399  30.740  16.718  0.0065 -0.0630 -0.0301
94360W        W37277  20.193  28.649  16.642  0.0208 -0.2014  0.1295
94361W        W37278  21.888  27.948  18.411  0.3623  0.1748  0.1503
94362W        W37279  19.823  27.440  19.242  0.2356 -0.2193  0.1910
94363W        W37280  21.859  27.863  17.509 -0.0497 -0.0275  0.0640
94364W        W37281  20.331  25.696  15.915 -0.0285  0.3150  0.0196
94365W        W37282  20.532  27.047  16.669  0.2667 -0.0493 -0.1758
94366W        W37283  18.455  27.372  15.976 -0.0867 -0.3197 -0.1599
94367W        W37284  18.443  26.611  19.429 -0.3759  0.0248 -0.0410
94368W        W37285  20.174  27.498  19.625 -0.0732  0.0518  0.0148
94369W        W37286  18.745  26.587  18.800  0.2169 -0.1275 -0.3817
94370W        W37287  19.377  27.049  18.462 -0.1305  0.0745  0.0743
94371W        W37288  21.502  28.768  18.559  0.1888  0.0609 -0.0977
94372W        W37289  22.722  25.786  18.592 -0.0636  0.0302 -0.0718
94373W        W37290  20.770  25.771  16.158 -0.0418  0.0047 -0.2875
94374W        W37291  18.751  30.823  17.277  0.0874 -0.1274 -0.0974
94375W        W37292  19.408  29.327  16.833 -0.1361 -0.1958 -0.0389
94376W        W37293  18.568  26.241  19.753 -0.0469 -0.0082 -0.1590
94377W        W37294  17.627  27.809  19.069  0.1608 -0.0481  0.1131
94378W        W37295  19.599  29.097  17.779  0.1535 -0.2655  0.0748
94379W        W37296  20.436  29.108  18.743 -0.0838 -0.1387 -0.4529
94380W        W37297  18.541  27.327  17.483 -0.2353 -0.0877 -0.0869
94381W        W37298  21.173  25.985  17.490  0.1971  0.0758  0.1829
94382W        W37299  19.080  28.918  17.856 -0.0626 -0.2029 -0.0720
94383W        W37300  19.403  26.719  15.814  0.0159 -0.1355 -0.1977
94384W        W37301  17.715  28.502  16.369 -0.2037 -0.0231 -0.1602
94385W        W37302  19.801  27.481  20.146 -0.0842  0.2305 -0.1150
94386W        W37303  21.386  26.970  17.621  0.0088 -0.0973 -0.0291
94387W        W37304  20.179  27.368  16.955 -0.1870 -0.1315  0.2153
94388W        W37305  20.651  26.474  18.694  0.0960  0.1683 -0.0388
94389W        W37306  17.684  29.893  21.293 -0.2589  0.0223  0.0720
94390W        W37307  18.478  27.860  18.593 -0.1534 -0.1718  0.4406
94391W        W37308  20.242  25.538  18.559  0.0760 -0.0876 -0.0175
94392W        W37309  18.728  30.437  18.623  0.0625  0.0141  0.0318
94393W        W37310  18.174  26.552  18.653  0.2256 -0.0843  0.0582
94394W        W37311  18.718  26.812  16.552  0.1717 -0.1953 -0.0343
94395W        W37312  21.498  27.214  19.536 -0.1301 -0.1700 -0.1279
94396W        W37313  18.801  25.573  18.676 -0.0082 -0.0600  0.0227
94397W        W37314  17.848  26.037  18.115  0.2095 -0.1780 -0.2009
94398W        W37315  22.449  28.265  18.240  0.0499  0.0910 -0.1021
94399W        W37316  17.429  27.064  18.472 -0.0518  0.1815  0.2049
94400W        W37317  19.984  28.274  17.640  0.1320 -0.0272 -0.2977
94401W        W37318  19.268  26.090  19.302 -0.3341  0.3557  0.0487
94402W        W37319  21.006  27.639  18.356  0.2120  0.1407 -0.2185
94403W        W37320  18.801  26.028  18.926  0.0579 -0.0863 -0.3029
94404W        W37321  20.891  26.155  16.524  0.0038  0.2399 -0.3773
94405W        W37322  21.915  27.482  18.703 -0.2451 -0.2076 -0.1001
94406W        W37323  22.344  27.158  20.514 -0.0054 -0.0009  0.1522
94407W        W37324  19.165  26.942  21.980 -0.1765  0.0644 -0.2481
94408W        W37325  18.511  28.527  19.649 -0.2149 -0.0871 -0.1519
94409W        W37326  21.488  27.572  17.314  0.3218  0.0318 -0.0338
94410W        W37327  21.574  29.518  17.335 -0.2764 -0.1503  0.4118
94411W        W37328  20.694  29.477  19.027  0.0685  0.0815  0.0712
94412W        W37329  18.756  27.824  15.880 -0.2118  0.0986  0.0423
94413W        W37330  18.846  28.060  18.983  0.0283  0.5971 -0.1107
94414W        W37331  19.504  28.615  17.694  0.1538 -0.2130 -0.2571
94415W        W37332  19.339  26.539  19.084 -0.0451 -0.0008 -0.1058
94416W        W37333  18.962  28.072  19.520 -0.0869  0.1402 -0.1597
94417W        W37334  20.148  29.067  16.353 -0.2098 -0.1178 -0.0034
94418W        W37335  17.581  28.391  19.504 -0.1572  0.3521 -0.0339
94419W        W37336  21.989  26.265  16.680 -0.1034  0.0152 -0.3528
94420W        W37337  19.863  27.785  16.825  0.0288  0.0828 -0.0010
94421W        W37338  21.006  26.876  17.960 -0.1551 -0.1414  0.1829
94422W        W37339  20.689  26.204  19.233 -0.0975 -0.1772  0.0778
94423W        W37340  22.413  26.704  17.382 -0.1397  0.0066 -0.1343
94424W        W37341  21.880  26.084  18.471  0.1316  0.2641 -0.2501
94425W        W37342  19.503  25.915  21.667  0.0551 -0.0442 -0.0786
94426W        W37343  23.230  26.161  18.752 -0.0454 -0.1438 -0.0922
94427W        W37344  20.056  27.667  21.451  0.3236 -0.0969  0.0207
94428W        W37345  19.048  29.775  19.959  0.1691  0.0045 -0.1554
94429W        W37346  16.751  24.988  19.243  0.2068  0.2094  0.0263
94430W        W37347  19.085  26.440  17.530  0.0208  0.2634 -0.0926
94431W        W37348  19.900  26.891  17.356 -0.1263  0.3028  0.0598
94432W        W37349  20.650  27.778  19.637  0.2330 -0.0571  0.0570
94433W        W37350  21.299  27.507  18.808  0.1786 -0.1541 -0.1379
94434W        W37351  18.544  26.400  18.383  0.0606 -0.0665 -0.0713
94435W        W37352  21.491  26.663  18.468  0.1789  0.1523 -0.0309
94436W        W37353  19.075  28.487  18.161  0.0470  0.2649 -0.0431
94437W        W37354  22.980  29.793  18.253 -0.1960  0.0277  0.1372
94438W        W37355  20.192  27.917  17.317  0.3137  0.1368  0.3206
94439W        W37356  20.103  27.298  17.556 -0.3448 -0.0902 -0.2972
94440W        W37357  19.141  25.439  18.353 -0.1965  0.0262  0.0290
94441W        W37358  21.412  28.885  19.755  0.2633  0.0616 -0.1193
94442W        W37359  21.489  24.542  16.905 -0.0490  0.1677  0.1286
94443W        W37360  19.392  27.166  18.965 -0.2738 -0.1919  0.2260
94444W        W37361  22.048  28.033  18.934  0.1110 -0.1117  0.0579
94445W        W37362  18.243  26.968  18.926 -0.0472  0.2193 -0.0959
94446W        W37363  18.436  25.154  19.915  0.1388 -0.2947 -0.4112
94447W        W37364  20.417  29.810  19.321 -0.1015 -0.3230 -0.0512
94448W        W37365  20.165  26.267  15.947 -0.0165 -0.1090  0.1442
94449W        W37366  22.309  26.172  19.061  0.1076 -0.0083 -0.1009
94450W        W37367  22.259  27.401  17.490  0.1083 -0.0105 -0.1258
94451W        W37368  21.540  27.332  16.909 -0.1315 -0.1448 -0.3003
94452W        W37369  20.085  27.541  18.399 -0.2644  0.1334 -0.0740
94453W        W37370  19.080  28.544  19.549  0.0007 -0.2078  0.0627
94454W        W37371  20.374  28.157  17.915  0.1293  0.1240  0.0778
94455W        W37372  20.952  27.906  18.838  0.1729 -0.1597 -0.2005
94456W        W37373  20.895  28.830  17.820  0.0759 -0.3028 -0.0615
94457W        W37374  21.519  28.543  17.123  0.1559  0.1692 -0.0926
94458W        W37375  22.992  28.332  18.986 -0.2237  0.1779 -0.2156
94459W        W37376  19.323  26.297  16.090  0.0648  0.0520 -0.1815
94460W        W37377  20.378  29.837  21.721  0.1303 -0.4039  0.1550
94461W        W37378  17.090  26.243  16.519  0.1696  0.1561  0.1718
94462W        W37379  21.528  28.279  17.591  0.0312 -0.0892  0.0032
94463W        W37380  19.921  27.274  18.818 -0.0918 -0.0440 -0.0332
94464W        W37381  23.255  28.265  18.526 -0.1603  0.1103  0.4170
94465W        W37382  20.477  27.465  16.098 -0.2517 -0.0422 -0.2020
94466W        W37383  21.088  27.618  19.298  0.2299 -0.0247 -0.1974
94467W        W37384  16.859  27.534  16.948  0.1382 -0.0859  0.2144
94468W        W37385  17.918  27.032  18.548  0.0498 -0.4574 -0.3752
94469W        W37386  19.386  30.032  20.310 -0.0785 -0.0114  0.1255
94470W        W37387  16.547  27.543  20.567 -0.3520 -0.0028 -0.3241
94471W        W37388  19.790  27.971  19.238 -0.0040 -0.0975  0.1547
94472W        W37389  19.982  26.970  21.880 -0.1368 -0.2097  0.4515
94473W        W37390  20.405  29.621  17.764  0.0944 -0.2783  0.0194
94474W        W37391  19.666  29.143  17.257  0.2709  0.1268  0.0258
94475W        W37392  23.987  26.805  18.370  0.2065  0.0474 -0.0132
94476W        W37393  18.368  27.620  19.443 -0.1594  0.0413 -0.0831
94477W        W37394  18.912  27.468  19.170 -0.0313  0.2558  0.4282
94478W        W37395  20.069  27.852  18.840 -0.0199  0.1247 -0.1191
94479W        W37396  22.957  27.151  18.601 -0.2153  0.0153  0.2192
94480W        W37397  19.714  29.849  18.010  0.1777 -0.1431 -0.0098
94481W        W37398  18.450  26.916  18.462  0.3561 -0.1866 -0.1005
94482W        W37399  20.936  27.581  20.451 -0.2457  0.2104  0.1283
94483W        W37400  19.024  28.121  17.815  0.1487  0.1676  0.0028
94484W        W37401  18.516  27.420  18.821 -0.0634  0.0856 -0.2261
94485W        W37402  18.773  28.268  16.643 -0.3228 -0.0228 -0.0455
94486W        W37403  17.829  28.875  20.755 -0.1628  0.0890  0.2142
94487W        W37404  20.977  27.846  17.900 -0.0090 -0.1254 -0.1014
94488W        W37405  18.909  28.944  18.347 -0.1644 -0.1769 -0.2253
94489W        W37406  22.081  27.314  16.627 -0.4636  0.2415 -0.1274
94490W        W37407  19.941  28.750  17.491 -0.0408 -0.1736 -0.0709
94491W        W37408  21.203  26.414  19.928  0.2205 -0.1590 -0.0161
94492W        W37409  19.262  26.864  17.111 -0.0365  0.1123 -0.0923
94493W        W37410  15.312  28.755  18.446 -0.2053 -0.0819 -0.3059
94494W        W37411  17.238  28.330  17.103 -0.4416  0.2367 -0.1251
94495W        W37412  22.267  29.069  16.826 -0.1669  0.0039 -0.0900
94496W        W37413  17.345  30.056  17.597  0.1074 -0.0551  0.0450
94497W        W37414  22.535  29.598  19.633 -0.1661  0.1279  0.0476
94498W        W37415  22.835  25.983  16.957  0.1116 -0.0609 -0.0899
94499W        W37416  22.004  28.171  17.965 -0.0122  0.1655  0.1026
94500W        W37417  21.209  27.947  17.453  0.0404  0.1382 -0.0324
94501W        W37418  18.978  27.943  20.405 -0.1537  0.0926 -0.0046
94502W        W37419  18.972  27.833  16.802 -0.0495 -0.0566 -0.1380
94503W        W37420  19.311  25.811  18.733  0.4976 -0.2024  0.1496
94504W        W37421  18.803  28.437  21.245 -0.0477 -0.2023 -0.3377
94505W        W37422  20.407  26.343  19.684  0.0598  0.1137  0.2045
94506W        W37423  18.234  30.780  21.357 -0.5677  0.0769 -0.2571
94507W        W37424  22.727  30.236  18.079  0.0315  0.2234 -0.2578
94508W        W37425  19.531  28.356  17.239  0.0531  0.0008  0.0843
94509W        W37426  19.658  27.109  17.002  0.0893 -0.0606  0.1295
94510W        W37427  21.325  23.941  16.129  0.1766 -0.1809 -0.2936
94511W        W37428  19.964  28.612  17.988  0.4314 -0.1622 -0.2735
94512W        W37429  21.119  28.428  18.063  0.0970 -0.1822  0.1071
94513W        W37430  19.912  29.822  16.527  0.0613 -0.2573 -0.0988
94514W        W37431  17.055  29.688  17.663  0.0395  0.1127 -0.1472
94515W        W37432  17.725  28.892  18.086 -0.1424 -0.0637  0.1806
94516W        W37433  17.034  27.239  18.267  0.0102 -0.1445  0.1157
94517W        W37434  22.685  27.652  18.264  0.1643  0.1482  0.1155
94518W        W37435  18.954  29.695  22.013  0.0942  0.1879 -0.2266
94519W        W37436  21.500  27.632  18.380 -0.1643 -0.1455  0.2394
94520W        W37437  19.188  27.278  18.053  0.0456 -0.1067 -0.2236
94521W        W37438  21.806  26.347  16.207  0.0636 -0.0316  0.0914
94522W        W37439  17.823  27.329  17.685 -0.0942  0.2137 -0.0184
94523W        W37440  16.911  27.533  19.230  0.0969 -0.1707  0.1397
94524W        W37441  19.701  27.009  16.514  0.1704 -0.1507  0.2036
94525W        W37442  22.883  25.545  19.977  0.1934 -0.3316  0.1919
94526W        W37443  19.580  27.979  17.528  0.0752  0.1292 -0.0128
94527W        W37444  19.951  29.634  19.406 -0.4181 -0.1287  0.1241
94528W        W37445  20.414  26.889  17.276  0.0001  0.0742  0.4601
94529W        W37446  21.406  26.191  16.451  0.2522 -0.0970  0.2820
94530W        W37447  17.829  27.042  17.244  0.2598  0.1018  0.1570
94531W        W37448  19.201  27.225  19.535  0.0139  0.0487  0.2662
94532W        W37449  19.773  29.179  19.019  0.0446 -0.3321 -0.0173
94533W        W37450  18.305  26.843  16.189  0.0535  0.1832  0.0433
94534W        W37451  20.609  28.814  16.417  0.1187  0.0410 -0.0605
94535W        W37452  22.766  28.944  18.798 -0.1327 -0.1610 -0.0817
94536W        W37453  18.850  28.630  16.944 -0.0373  0.1351 -0.0119
94537W        W37454  22.319  26.549  16.922 -0.0070  0.1847  0.2638
94538W        W37455  20.360  27.211  18.619  0.0372 -0.0323 -0.1125
94539W        W37456  18.019  27.038  18.032  0.2863 -0.1283 -0.0199
94540W        W37457  20.007  29.915  18.455  0.0112 -0.1138 -0.3963
94541W        W37458  22.173  27.686  17.896  0.0740 -0.0988  0.5369
94542W        W37459  19.125  27.856  17.414 -0.0709  0.0560 -0.1688
94543W        W37460  18.730  27.432  18.342  0.0285  0.0562 -0.0807
94544W        W37461  18.613  29.372  18.641 -0.1833  0.0619 -0.3767
94545W        W37462  21.910  27.407  18.221  0.1106 -0.0140  0.2176
94546W        W37463  22.106  25.351  19.341 -0.0074 -0.2455  0.2826
94547W        W37464  18.728  27.301  16.417  0.3692  0.1117  0.0688
94548W        W37465  20.423  25.644  18.099  0.0050 -0.2225 -0.0038
94549W        W37466  20.188  28.268  19.139  0.1976  0.0723 -0.0422
94550W        W37467  19.437  29.458  19.390  0.2142 -0.2901  0.3714
94551W        W37468  17.402  27.133  16.956  0.1008  0.2351 -0.0200
94552W        W37469  18.896  26.354  19.417 -0.1271 -0.1702 -0.0053
94553W        W37470  19.762  27.321  18.118 -0.3173  0.0314  0.1650
94554W        W37471  19.117  29.344  17.377 -0.1536  0.0116  0.1842
94555W        W37472  22.424  27.285  19.537 -0.3126 -0.1229  0.3398
94556W        W37473  19.509  28.192  17.966  0.1444 -0.1215 -0.0166
94557W        W37474  22.794  27.900  17.022  0.0900 -0.0480 -0.4484
94558W        W37475  17.933  26.655  19.388  0.1098  0.0264 -0.1504
94559W        W37476  21.803  27.221  17.471  0.3391  0.0143 -0.1501
94560W        W37477  20.734  23.927  16.772  0.0332  0.1506  0.1822
94561W        W37478  18.539  25.681  20.237  0.0122 -0.0030  0.1728
94562W        W37479  18.628  27.153  19.484 -0.2574  0.0894  0.0208
94563W        W37480  18.237  27.283  17.080 -0.2158 -0.1707 -0.2291
94564W        W37481  19.317  28.111  18.671 -0.0283  0.2180 -0.1479
94565W        W37482  20.642  26.212  20.829  0.0976 -0.0969  0.0907
94566W        W37483  18.885  26.811  19.666  0.1021  0.2852  0.2099
94567W        W37484  16.040  27.950  19.573  0.1253  0.2154 -0.0484
94568W        W37485  17.917  25.721  16.766 -0.0889  0.1634  0.0735
94569W        W37486  21.638  27.517  17.807 -0.0668  0.3177 -0.2826
94570W        W37487  17.498  27.435  18.087  0.0488  0.2906  0.1196
94571W        W37488  18.849  26.610  17.044 -0.4271  0.3400 -0.1217
94572W        W37489  20.401  26.011  16.377  0.0377  0.3219 -0.0178
94573W        W37490  20.453  26.210  16.889 -0.1041 -0.0900  0.0862
94574W        W37491  19.260  25.651  17.895  0.0346 -0.2785  0.1811
94575W        W37492  19.700  29.997  19.944 -0.0327  0.2683  0.2488
94576W        W37493  17.418  28.084  16.296 -0.1926 -0.1504  0.1523
94577W        W37494  18.579  26.845  21.573  0.0698  0.0979 -0.0667
94578W        W37495  20.376  24.723  19.613  0.0925  0.0401 -0.1147
94579W        W37496  16.478  24.787  16.873  0.1056 -0.2807 -0.0396
94580W        W37497  20.357  27.334  19.105  0.0829  0.1509  0.0950
94581W        W37498  17.214  29.658  18.516 -0.0242  0.0207  0.1022
94582W        W37499  20.340  29.520  18.435  0.2890 -0.3368 -0.2853
94583W        W37500  20.093  28.797  19.005  0.0717  0.1385  0.1886
94584W        W37501  20.420  30.665  19.034 -0.1745 -0.1704 -0.4297
94585W        W37502  16.930  25.954  17.834  0.1068 -0.0053 -0.2010
94586W        W37503  20.828  26.761  17.023 -0.0387 -0.0278 -0.1115
94587W        W37504  16.896  27.616  20.902 -0.0769  0.3517 -0.0040
94588W        W37505  22.791  28.668  17.245  0.0570 -0.2201 -0.1444
94589W        W37506  19.393  26.124  16.564 -0.1896  0.0032 -0.2637
94590W        W37507  18.925  26.274  16.489  0.3795 -0.0213  0.1066
94591W        W37508  18.857  25.952  16.816 -0.0785  0.2476 -0.0569
94592W        W37509  19.095  28.798  20.920 -0.0754 -0.1822 -0.0672
94593W        W37510  21.022  27.368  17.480  0.1209  0.0049  0.0237
94594W        W37511  17.549  24.475  16.769  0.1311 -0.0987 -0.1220
94595W        W37512  23.345  26.085  19.341 -0.3124 -0.1102  0.1699
94596W        W37513  20.914  26.874  17.488 -0.0561  0.0525  0.0786
94597W        W37514  19.505  26.831  18.049  0.4483 -0.2745  0.1673
94598W        W37515  21.947  25.474  16.786  0.1110 -0.0564 -0.0403
94599W        W37516  19.674  28.537  20.251 -0.0432  0.1104 -0.1062
94600W        W37517  19.431  30.463  18.457 -0.0246  0.2604 -0.0017
94601W        W37518  21.234  28.418  20.563  0.1269 -0.0269  0.0230
94602W        W37519  19.245  26.662  16.525  0.0397 -0.1043  0.2525
94603W        W37520  20.607  26.589  16.604  0.2074 -0.0510  0.1250
94604W        W37521  19.609  26.398  17.874 -0.1971 -0.1476  0.2165
94605W        W37522  19.260  31.144  18.942 -0.0473 -0.0504 -0.1543
94606W        W37523  19.932  29.633  17.520  0.0070 -0.1809  0.0435
94607W        W37524  22.687  25.499  18.178  0.1826  0.0240  0.0688
94608W        W37525  16.888  25.970  17.085  0.0281 -0.1184  0.0587
94609W        W37526  19.241  26.373  16.985  0.1760  0.2334  0.2303
94610W        W37527  18.718  27.653  17.198 -0.0650 -0.0611  0.1964
94611W        W37528  21.237  29.512  19.802  0.0014 -0.0279 -0.1797
94612W        W37529  19.182  26.380  18.115 -0.0755  0.3436  0.2234
94613W        W37530  21.641  26.085  15.861  0.2987 -0.0075 -0.1013
94614W        W37531  19.684  28.797  18.724  0.0538 -0.0707  0.1697
94615W        W37532  21.788  28.969  16.825  0.1751 -0.1251 -0.2803
94616W        W37533  17.293  28.490  22.223 -0.1611 -0.1156 -0.0899
94617W        W37534  16.808  26.827  20.289 -0.1977 -0.2346  0.1175
94618W        W37535  19.765  25.881  20.596  0.1789 -0.0370 -0.2443
94619W        W37536  21.922  27.014  19.463  0.1311  0.0636 -0.1088
94620W        W37537  16.411  27.723  21.050  0.0385 -0.3316 -0.0548
94621W        W37538  19.858  29.129  21.652 -0.0488  0.1013 -0.0261
94622W        W37539  19.251  26.319  21.538  0.0906 -0.0841  0.0195
94623W        W37540  19.210  30.513  23.974  0.0604  0.2020 -0.0594
94624W        W37541  21.384  27.477  21.266  0.1423  0.4030  0.2051
94625W        W37542  18.517  27.876  18.081  0.2414  0.0038  0.0126
94626W        W37543  20.772  27.130  20.286  0.0191 -0.2064  0.0282
94627W        W37544  19.340  28.970  23.003  0.1793 -0.1638  0.2253
94628W        W37545  18.131  28.340  20.861  0.1364  0.2527 -0.3272
94629W        W37546  20.581  25.311  22.958  0.0938  0.1214  0.0989
94630W        W37547  22.087  27.700  23.423 -0.0500 -0.2605 -0.0534
94631W        W37548  17.898  26.283  21.408 -0.0867  0.3239 -0.1850
94632W        W37549  19.874  27.463  21.826 -0.1085 -0.1639 -0.1116
94633W        W37550  19.867  27.945  21.890  0.1792 -0.0121  0.2197
94634W        W37551  18.836  30.195  22.004 -0.0160  0.1149  0.1231
94635W        W37552  20.316  26.319  23.397 -0.2129  0.1195  0.2362
94636W        W37553  20.942  27.212  22.640  0.1707 -0.2380 -0.3469
94637W        W37554  18.791  28.918  20.488  0.0595 -0.1619 -0.0924
94638W        W37555  17.350  25.861  19.438 -0.0190  0.0897  0.0213
94639W        W37556  18.354  26.146  20.748 -0.1769  0.1312  0.1289
94640W        W37557  18.097  27.842  21.931  0.2368 -0.0505  0.2794
94641W        W37558  20.423  28.278  20.903  0.0152  0.1243  0.3573
94642W        W37559  22.058  26.847  20.742 -0.0868 -0.1344 -0.0699
94643W        W37560  18.548  28.681  20.154 -0.3091 -0.0803  0.1633
94644W        W37561  20.639  27.447  23.140  0.0346 -0.1647 -0.3032
94645W        W37562  20.946  26.973  24.391 -0.2108  0.1657 -0.1114
94646W        W37563  18.134  29.389  21.121  0.0018 -0.1261 -0.3106
94647W        W37564  16.836  29.124  21.212 -0.3722 -0.3260 -0.1258
94648W        W37565  18.036  26.538  20.898 -0.2528  0.4208  0.1747
94649W        W37566  20.257  30.645  20.623 -0.0588 -0.3269 -0.1332
94650W        W37567  20.524  27.162  22.427 -0.1133 -0.0355  0.4315
94651W        W37568  19.649  28.851  23.365 -0.0765  0.2130  0.1243
94652W        W37569  17.537  28.836  21.739  0.0295 -0.0633 -0.3437
94653W        W37570  19.280  28.200  23.819  0.0821 -0.4140 -0.2127
94654W        W37571  19.525  28.976  22.491  0.1016 -0.1952 -0.1240
94655W        W37572  19.294  29.272  20.833 -0.2569 -0.1351 -0.2857
94656W        W37573  20.998  26.489  22.033  0.2282  0.1876  0.1829
94657W        W37574  19.232  28.831  21.492  0.2920 -0.0372 -0.1756
94658W        W37575  19.736  26.920  20.858  0.3884  0.0114 -0.1817
94659W        W37576  19.900  28.109  23.321 -0.0176 -0.5199 -0.0077
94660W        W37577  20.834  28.267  23.735 -0.0052 -0.2476  0.2398
94661W        W37578  22.611  26.951  23.834  0.0820  0.2347 -0.2377
94662W        W37579  20.426  28.421  22.229  0.3017  0.0770  0.1330
94663W        W37580  20.445  29.766  20.351 -0.0137  0.0200 -0.0318
94664W        W37581  18.008  28.034  18.657  0.0470 -0.1303 -0.0903
94665W        W37582  20.368  25.602  19.928  0.1459  0.0108  0.1279
94666W        W37583  19.964  27.693  20.553 -0.0779  0.0471 -0.0888
94667W        W37584  20.280  29.682  22.532  0.0481  0.2074 -0.1936
94668W        W37585  18.344  26.399  21.768  0.1824 -0.1016  0.0547
94669W        W37586  21.306  26.716  24.072  0.1302 -0.4376 -0.0010
94670W        W37587  18.155  26.595  20.323  0.3589 -0.4285 -0.1093
94671W        W37588  20.604  27.131  21.816  0.0552  0.1200  0.1524
94672W        W37589  18.781  28.707  24.365 -0.0014 -0.0232 -0.0898
94673W        W37590  16.895  30.026  21.251  0.1594  0.1962 -0.0333
94674W        W37591  19.799  29.032  20.938  0.0431 -0.2389  0.1098
94675W        W37592  23.153  30.031  21.578  0.0713  0.0936 -0.0062
94676W        W37593  20.614  31.192  19.199 -0.0948 -0.1446 -0.0174
94677W        W37594  17.211  28.158  20.359 -0.1289 -0.0255  0.1076
94678W        W37595  17.588  26.407  22.736 -0.1105 -0.1161  0.4458
94679W        W37596  21.229  26.372  23.192  0.0322 -0.0487 -0.0059
94680W        W37597  21.040  25.760  18.945  0.1352 -0.0649  0.1729
94681W        W37598  22.506  26.521  27.749  0.1425  0.1276 -0.1650
94682W        W37599  18.780  28.407  22.179 -0.1000  0.1506  0.0248
94683W        W37600  22.065  25.035  23.030  0.2101  0.1191 -0.0754
94684W        W37601  17.886  29.253  20.431 -0.0137 -0.0923 -0.0750
94685W        W37602  21.616  28.641  21.961  0.0420  0.0447  0.0301
94686W        W37603  21.104  28.897  20.268 -0.1663 -0.0984 -0.1545
94687W        W37604  20.851  28.474  23.140  0.1056  0.1634 -0.1740
94688W        W37605  20.075  28.020  21.113  0.0332  0.2000  0.2275
94689W        W37606  14.318  27.660  19.320 -0.0318  0.0789 -0.0648
94690W        W37607  19.221  28.414  20.062  0.2888 -0.0010 -0.0647
94691W        W37608  22.842  28.227  23.456  0.0956  0.0147 -0.1024
94692W        W37609  21.778  25.368  21.752 -0.0184 -0.0685  0.2172
94693W        W37610  19.444  27.714  24.014  0.1227  0.2621 -0.0288
94694W        W37611  17.811  27.177  22.064  0.1118 -0.1003 -0.0865
94695W        W37612  19.339  27.731  22.700 -0.3911 -0.0845 -0.3578
94696W        W37613  18.602  28.612  20.879  0.1038  0.1258  0.0618
94697W        W37614  16.514  27.734  22.182  0.0630  0.1011  0.5057
94698W        W37615  16.774  28.754  18.396  0.1439 -0.2127 -0.0372
94699W        W37616  16.787  26.651  21.176 -0.2957 -0.1356 -0.3320
94700W        W37617  22.298  27.554  21.086 -0.0429  0.1846 -0.1449
94701W        W37618  22.154  24.654  22.435 -0.3783 -0.2485 -0.1643
94702W        W37619  20.841  26.123  23.462 -0.1452 -0.1788 -0.0289
94703W        W37620  22.061  27.148  22.035  0.1548 -0.1377  0.0543
94704W        W37621  18.204  28.025  22.383  0.0646  0.0648  0.3569
94705W        W37622  21.823  30.142  18.683 -0.0308 -0.1413  0.3464
94706W        W37623  21.053  28.103  21.068  0.0874 -0.1999 -0.1302
94707W        W37624  19.923  28.212  20.612 -0.0328 -0.0715 -0.4238
94708W        W37625  17.704  29.284  21.411 -0.3020  0.2455 -0.0359
94709W        W37626  18.046  25.577  20.126 -0.2922  0.1061 -0.2257
94710W        W37627  18.176  27.129  22.500 -0.0371 -0.2382 -0.1649
94711W        W37628  17.399  27.519  21.878 -0.0057  0.1006  0.1440
94712W        W37629  21.320  25.344  21.953  0.2816  0.0805 -0.2904
94713W        W37630  19.788  26.950  20.208 -0.4285  0.2799  0.1443
94714W        W37631  21.048  28.722  21.662 -0.2494 -0.2172  0.2011
94715W        W37632  18.754  27.639  21.295 -0.2300  0.0003 -0.0977
94716W        W37633  18.971  29.097  18.911  0.0790  0.2713 -0.2577
94717W        W37634  20.004  25.836  24.642 -0.0623 -0.0115 -0.0078
94718W        W37635  19.740  30.637  21.563  0.0846  0.1815  0.1582
94719W        W37636  21.442  29.809  21.536 -0.2641  0.0247 -0.0122
94720W        W37637  22.450  26.903  21.713 -0.0553 -0.0867 -0.0382
94721W        W37638  19.522  27.120  21.664 -0.0110 -0.1818  0.1331
94722W        W37639  17.847  25.630  18.439 -0.0839 -0.1769 -0.4328
94723W        W37640  19.997  29.706  23.053  0.1708 -0.0116  0.0548
94724W        W37641  20.831  28.098  20.632 -0.2434  0.1663  0.0530
94725W        W37642  17.211  25.534  19.755 -0.1603  0.0107 -0.2805
94726W        W37643  22.645  29.046  23.832  0.0393 -0.2613  0.1431
94727W        W37644  21.588  27.836  21.800  0.1772 -0.2008 -0.3464
94728W        W37645  18.704  28.328  24.035  0.2771  0.2199 -0.2757
94729W        W37646  22.212  24.340  25.967  0.1594 -0.0469 -0.1571
94730W        W37647  20.366  27.907  24.483 -0.1156 -0.0035 -0.0914
94731W        W37648  19.351  29.335  21.755 -0.0766 -0.5260 -0.0490
94732W        W37649  17.550  25.845  20.020 -0.2556 -0.3000 -0.0475
94733W        W37650  21.861  27.641  21.390 -0.2270 -0.2639  0.1428
94734W        W37651  18.500  30.008  20.800  0.1866  0.0583  0.0250
94735W        W37652  16.842  28.095  21.949  0.0428  0.1851 -0.3593
94736W        W37653  20.646  28.784  21.950  0.1613  0.0053  0.1379
94737W        W37654  21.712  26.234  25.266  0.2541 -0.0770  0.0710
94738W        W37655  18.097  28.030  23.493 -0.2203  0.1940 -0.0809
94739W        W37656  20.206  26.460  25.041 -0.1262 -0.1755 -0.2138
94740W        W37657  18.268  28.686  19.191 -0.0651 -0.0226 -0.0491
94741W        W37658  19.122  30.568  22.851  0.0016 -0.0846  0.1113
94742W        W37659  21.777  26.649  19.849 -0.0156  0.1956 -0.2209
94743W        W37660  18.872  27.569  19.709  0.0984  0.0132 -0.0034
94744W        W37661  21.047  28.672  24.054 -0.0177 -0.2492  0.0692
94745W        W37662  20.251  28.818  22.735 -0.2537 -0.0792 -0.0938
94746W        W37663  20.999  28.577  19.314  0.3248  0.1707  0.0225
94747W        W37664  18.879  27.175  21.155 -0.0782  0.0581 -0.2945
94748W        W37665  19.828  27.646  23.027  0.1219 -0.0271  0.1997
94749W        W37666  23.547  27.442  22.970  0.0425  0.1043  0.1262
94750W        W37667  20.440  28.261  19.890  0.3314 -0.3670 -0.1063
94751W        W37668  19.713  27.198  19.704  0.2700 -0.0722 -0.2547
94752W        W37669  22.739  27.968  25.198 -0.0508 -0.1020 -0.2329
94753W        W37670  20.401  27.621  22.644  0.1993 -0.1828 -0.4921
94754W        W37671  20.575  28.049  25.447  0.0283 -0.1927  0.2326
94755W        W37672  21.099  27.836  21.507 -0.2807  0.0356  0.1042
94756W        W37673  22.095  26.007  21.901 -0.2192  0.0766 -0.1236
94757W        W37674  18.182  28.228  20.007 -0.3186 -0.2645  0.2172
94758W        W37675  19.947  26.836  22.702  0.2056 -0.2594  0.3134
94759W        W37676  19.703  28.725  21.362  0.1485 -0.1852  0.0105
94760W        W37677  20.427  27.018  24.501 -0.0030  0.0353 -0.0756
94761W        W37678  20.356  27.471  20.180  0.1637  0.2033 -0.0273
94762W        W37679  20.464  26.154  23.868 -0.0246  0.0796  0.0781
94763W        W37680  19.040  28.936  22.216 -0.0561 -0.0954 -0.0422
94764W        W37681  19.365  26.834  19.840  0.0392  0.0937  0.0130
94765W        W37682  20.681  26.722  20.573 -0.0269 -0.0063  0.2984
94766W        W37683  16.190  26.617  20.281  0.1226 -0.1227 -0.2381
94767W        W37684  20.052  27.182  22.329  0.4341  0.0150 -0.2636
94768W        W37685  18.054  26.911  23.075 -0.0978  0.1729  0.1847
94769W        W37686  17.745  28.928  23.221 -0.2910  0.3015  0.1465
94770W        W37687  19.233  28.429  25.489  0.0369 -0.2042 -0.0956
94771W        W37688  18.401  27.882  19.040 -0.0894  0.2282  0.0931
94772W        W37689  20.535  27.523  24.679  0.1560  0.0007 -0.2902
94773W        W37690  19.731  26.356  20.729 -0.0488  0.1551  0.0336
94774W        W37691  17.238  30.844  22.634  0.2350  0.2368 -0.0763
94775W        W37692  20.515  29.792  21.000  0.3870 -0.2710  0.1612
94776W        W37693  19.621  26.403  19.616 -0.0789  0.2990  0.1445
94777W        W37694  18.168  27.209  21.450 -0.1617 -0.1702  0.1957
94778W        W37695  19.923  29.790  20.334 -0.0089  0.0200  0.0129
94779W        W37696  20.130  28.889  23.902  0.0195  0.1050 -0.0251
94780W        W37697  19.275  29.753  20.998  0.1015  0.2424 -0.0848
94781W        W37698  21.111  26.710  22.862 -0.3720 -0.1562 -0.0843
94782W        W37699  15.523  29.294  22.952 -0.1311  0.0549 -0.3076
94783W        W37700  17.338  26.885  20.258  0.1236  0.2359  0.1380
94784W        W37701  21.128  28.933  22.430  0.3072 -0.1233 -0.0912
94785W        W37702  20.118  25.886  21.902 -0.0678  0.1997 -0.0826
94786W        W37703  18.927  29.249  19.592 -0.1039 -0.0733 -0.2233
94787W        W37704  17.633  27.278  23.342 -0.2313 -0.1231  0.1838
94788W        W37705  21.214  25.780  22.344 -0.1856  0.0061  0.2501
94789W        W37706  18.562  29.568  23.082 -0.0242  0.1752  0.4544
94790W        W37707  20.700  28.707  22.582 -0.3519  0.0020  0.1273
94791W        W37708  20.967  26.445  18.336 -0.3156 -0.3400 -0.1368
94792W        W37709  19.863  28.113  22.812  0.1654  0.0139  0.0270
94793W        W37710  20.638  27.076  24.005 -0.1766  0.0693 -0.0982
94794W        W37711  17.146  26.153  17.432  0.1909 -0.3494  0.1033
94795W        W37712  20.175  26.979  23.660  0.1481 -0.1646 -0.3149
94796W        W37713  17.607  28.288  21.036 -0.2195 -0.0044 -0.1943
94797W        W37714  19.296  28.548  22.328 -0.3632 -0.2391  0.0383
94798W        W37715  19.404  27.589  20.467 -0.2862  0.1899  0.2605
94799W        W37716  18.089  28.500  21.959  0.0557 -0.0305 -0.0900
94800W        W37717  18.711  27.924  22.008 -0.0653  0.0719  0.1605
94801W        W37718  17.551  27.820  21.450 -0.3382  0.0032  0.3005
94802W        W37719  19.535  27.978  25.424  0.2590  0.0847 -0.0461
94803W        W37720  18.325  28.917  22.131 -0.0383 -0.1150 -0.0635
94804W        W37721  18.975  25.513  19.957 -0.3757  0.2271 -0.2116
94805W        W37722  18.918  28.473  20.534  0.0868 -0.0450 -0.2261
94806W        W37723  20.722  28.008  22.976 -0.0979  0.0148  0.2849
94807W        W37724  21.064  25.753  23.193 -0.3755  0.1406  0.1166
94808W        W37725  17.327  28.702  23.590 -0.2616 -0.1497 -0.0155
94809W        W37726  20.239  26.404  22.714  0.0767 -0.2640 -0.0533
94810W        W37727  20.282  30.663  19.602  0.1659 -0.0947  0.1173
94811W        W37728  19.941  27.481  23.858 -0.0779  0.1782  0.0431
94812W        W37729  18.904  28.588  19.105 -0.0346 -0.0559 -0.2043
94813W        W37730  15.946  29.842  22.254  0.1987 -0.0231 -0.2153
94814W        W37731  17.669  31.249  20.539  0.2119  0.1782 -0.2375
94815W        W37732  19.157  25.873  21.272 -0.2850  0.1510 -0.2922
94816W        W37733  19.715  26.237  23.489  0.4165 -0.3422  0.0447
94817W        W37734  19.337  29.309  19.912  0.1714  0.1753 -0.0626
94818W        W37735  19.079  27.302  21.585  0.2570 -0.2084 -0.4187
94819W        W37736  19.649  25.701  21.209  0.0377 -0.0794 -0.0239
94820W        W37737  20.801  27.420  18.891 -0.0261  0.0397 -0.1170
94821W        W37738  19.708  26.398  22.540 -0.0542  0.1152  0.0074
94822W        W37739  22.879  24.967  23.547  0.0564  0.2529 -0.3050
94823W        W37740  21.168  29.111  19.406  0.0568  0.3534 -0.1090
94824W        W37741  20.571  26.582  23.741 -0.1886 -0.1499 -0.1521
94825W        W37742  18.630  25.932  22.684 -0.4223  0.2110 -0.0330
94826W        W37743  21.523  29.232  20.123  0.0518 -0.3380 -0.2764
94827W        W37744  15.461  28.947  21.326  0.0326 -0.1820 -0.1115
94828W        W37745  19.711  26.631  25.140  0.0720 -0.0471  0.4537
94829W        W37746  19.524  27.266  22.239  0.4207  0.1648  0.2686
94830W        W37747  18.495  28.595  21.680  0.3900 -0.0537 -0.0685
94831W        W37748  19.953  25.710  20.130 -0.0966  0.3212 -0.0980
94832W        W37749  21.165  26.236  22.652  0.0092  0.1534 -0.1101
94833W        W37750  22.311  27.591  22.398 -0.1085  0.1354  0.2059
94834W        W37751  22.056  28.501  20.279 -0.0636  0.0814 -0.1659
94835W        W37752  23.169  26.440  21.308  0.1655  0.3040 -0.1035
94836W        W37753  16.726  26.778  22.305  0.1739  0.1485 -0.0934
94837W        W37754  24.440  28.379  19.967  0.1209 -0.1186  0.1456
94838W        W37755  19.581  28.668  20.738 -0.0820 -0.3518  0.2282
94839W        W37756  20.765  27.688  20.971  0.0400  0.0762  0.0951
94840W        W37757  20.967  24.492  21.166  0.0279  0.3391 -0.2921
94841W        W37758  20.261  28.019  24.995  0.2681  0.1126  0.1667
94842W        W37759  18.989  27.777  22.399 -0.3834  0.1632  0.0513
94843W        W37760  18.328  27.087  24.900 -0.2875 -0.0378 -0.1650
94844W        W37761  22.352  25.331  23.400  0.1095 -0.0598 -0.1397
94845W        W37762  20.695  26.560  24.736  0.3326  0.0806  0.1034
94846W        W37763  19.430  26.518  21.101  0.4492  0.3856  0.0483
94847W        W37764  19.774  30.614  23.965 -0.2196  0.4256  0.1174
94848W        W37765  21.594  28.049  21.181  0.0770  0.1448  0.0202
94849W        W37766  20.897  27.912  24.779 -0.0090 -0.0572  0.1622
94850W        W37767  18.491  28.208  20.403  0.1216  0.1344 -0.1749
94851W        W37768  18.653  26.599  20.080 -0.2659 -0.0827 -0.2284
94852W        W37769  19.829  27.635  22.423  0.0357 -0.2767  0.4967
94853W        W37770  21.728  26.562  24.364 -0.0079  0.0689 -0.0558
94854W        W37771  17.782  26.587  18.899  0.3095  0.1933  0.0042
94855W        W37772  20.197  26.711  22.334 -0.0401  0.1128 -0.1675
94856W        W37773  20.988  29.833  20.597  0.1230  0.0662  0.0387
94857W        W37774  21.471  27.174  22.688 -0.3290 -0.0926  0.1352
94858W        W37775  21.661  26.897  19.018 -0.2586 -0.0461  0.0641
94859W        W37776  20.155  27.927  20.189  0.0374  0.2340 -0.1313
94860W        W37777  19.397  30.134  22.798  0.1318 -0.1741 -0.0707
94861W        W37778  20.114  25.369  22.794  0.0817  0.0926  0.0529
94862W        W37779  20.276  27.560  21.008  0.1454  0.3223 -0.1715
94863W        W37780  21.680  26.537  22.868  0.3282  0.0799 -0.0201
94864W        W37781  22.266  26.593  24.690  0.3465 -0.2047 -0.3091
94865W        W37782  20.052  25.614  20.982 -0.2274 -0.0010  0.0515
94866W        W37783  18.598  27.145  20.630  0.1330 -0.0552  0.1192
94867W        W37784  18.345  30.347  22.128 -0.0354  0.1042  0.1426
94868W        W37785  21.520  24.784  23.621  0.4156  0.0028 -0.3402
94869W        W37786  18.962  29.953  23.186  0.1247  0.1615  0.1362
94870W        W37787  19.673  26.872  23.715  0.0888  0.2943  0.0007
94871W        W37788  16.682  28.611  22.085  0.0458  0.1312 -0.0773
94872W        W37789  21.133  27.597  23.102  0.0915  0.1275  0.1813
94873W        W37790  20.548  26.592  21.075  0.1588  0.1771 -0.0048
94874W        W37791  21.469  27.008  21.396  0.0247  0.2113 -0.1317
94875W        W37792  21.565  27.756  23.407  0.2766 -0.2821 -0.1035
94876W        W37793  22.235  30.231  23.184  0.2512  0.0323 -0.1056
94877W        W37794  19.080  25.594  22.459  0.3175 -0.0219  0.2483
94878W        W37795  21.368  28.638  21.212 -0.2878  0.3057  0.5059
94879W        W37796  22.042  28.010  21.052 -0.2737 -0.1263  0.1095
94880W        W37797  20.865  28.249  21.768 -0.2670 -0.2346 -0.0825
94881W        W37798  17.187  26.661  22.650  0.1356  0.3041 -0.2537
94882W        W37799  20.581  27.032  23.451 -0.2046  0.1078  0.3764
94883W        W37800  20.671  27.613  21.739 -0.0099 -0.1166 -0.1939
94884W        W37801  19.228  26.090  22.478  0.0758  0.1977 -0.3634
94885W        W37802  20.444  27.770  20.610 -0.0023  0.0354  0.0259
94886W        W37803  18.214  29.830  26.013 -0.0365 -0.0464  0.0035
94887W        W37804  16.636  27.313  22.468 -0.2199  0.1920  0.0629
94888W        W37805  17.288  28.648  23.028 -0.5258 -0.0056 -0.0336
94889W        W37806  20.337  28.683  19.481 -0.0589 -0.0942  0.0509
94890W        W37807  18.996  29.960  20.632  0.1888 -0.3124 -0.0491
94891W        W37808  20.304  27.579  22.113 -0.1028  0.1024  0.2257
94892W        W37809  18.970  26.903  19.200  0.0774  0.2349 -0.0999
94893W        W37810  17.986  28.614  20.326 -0.0148 -0.0076 -0.2681
94894W        W37811  16.386  29.138  21.418 -0.1866  0.1614  0.2948
94895W        W37812  18.905  29.373  20.247  0.0790 -0.1769  0.0827
94896W        W37813  18.276  27.338  22.942 -0.2355 -0.0909 -0.3668
94897W        W37814  20.270  27.803  23.089 -0.2525 -0.2042  0.3005
94898W        W37815  22.630  26.495  19.942 -0.0624  0.2549 -0.2693
94899W        W37816  22.159  27.496  22.917 -0.0041  0.2626  0.2393
94900W        W37817  22.829  25.893  22.774  0.1102 -0.3754 -0.1481
94901W        W37818  20.459  29.137  22.327  0.2341  0.1758 -0.0117
94902W        W37819  17.727  28.313  21.642  0.1269  0.0484  0.3154
94903W        W37820  18.782  25.203  20.342  0.1420  0.0694 -0.0401
94904W        W37821  19.007  26.433  22.837 -0.1525 -0.2275  0.0441
94905W        W37822  23.455  26.691  25.220  0.1037 -0.4157 -0.1778
94906W        W37823  18.937  27.810  23.001 -0.3297  0.3841 -0.4848
94907W        W37824  22.813  28.342  20.981 -0.1959 -0.0703 -0.0469
94908W        W37825  17.103  29.254  21.663 -0.1065 -0.1448 -0.1154
94909W        W37826  18.829  27.459  20.253 -0.0578  0.0498  0.5586
94910W        W37827  23.257  25.524  22.631  0.0250 -0.1335 -0.0721
94911W        W37828  20.690  27.225  20.817 -0.0621 -0.1582 -0.1599
94912W        W37829  20.876  26.487  24.114  0.2559 -0.2534 -0.3008
94913W        W37830  19.488  28.811  19.797 -0.1233  0.0565 -0.1066
94914W        W37831  18.847  26.592  21.907  0.1080  0.0467  0.1293
94915W        W37832  18.088  31.822  23.382 -0.0992 -0.0313 -0.1235
94916W        W37833  17.524  26.869  19.332  0.3057  0.1732 -0.1126
94917W        W37834  21.011  26.893  21.627  0.0101 -0.1467  0.2499
94918W        W37835  17.609  26.897  22.539  0.4635  0.0342  0.2470
94919W        W37836  23.191  25.739  22.111 -0.2437  0.0469 -0.0421
94920W        W37837  18.521  27.539  21.691 -0.2966  0.1756  0.0188
94921W        W37838  21.003  26.889  21.102  0.1166  0.2056  0.4986
94922W        W37839  20.159  27.291  22.899  0.1047 -0.3530 -0.1272
94923W        W37840  15.786  27.221  22.421  0.0677  0.1715  0.0465
94924W        W37841  22.510  26.678  19.141 -0.0276 -0.0591 -0.0660
94925W        W37842  20.232  26.536  26.727  0.2445 -0.0976 -0.1674
94926W        W37843  19.813  27.592  17.256 -0.1163 -0.3585  0.1872
94927W        W37844  20.686  30.723  22.990  0.1369 -0.1857  0.0144
94928W        W37845  16.949  25.249  21.457  0.0131  0.0193 -0.0308
94929W        W37846  19.891  26.075  19.811 -0.1950 -0.0236  0.0544
94930W        W37847  18.173  28.809  21.090 -0.1612  0.2448 -0.3985
94931W        W37848  18.962  26.733  21.351  0.2253 -0.0948  0.1021
94932W        W37849  23.250  29.132  21.642 -0.2118  0.0995  0.1865
94933W        W37850  18.820  25.938  20.625 -0.1040  0.2270 -0.0297
94934W        W37851  19.521  28.061  21.507 -0.0175 -0.0761  0.1723
94935W        W37852  21.264  27.174  20.375  0.0418 -0.0286  0.2618
94936W        W37853  17.644  28.237  20.520  0.1184  0.2728 -0.5345
94937W        W37854  21.506  27.128  22.176 -0.1907 -0.1148  0.3772
94938W        W37855  20.754  28.555  21.233 -0.0236 -0.0757  0.0115
94939W        W37856  17.260  27.461  21.281  0.1675  0.0709 -0.0541
94940W        W37857  20.363  28.481  23.728 -0.2011 -0.0510  0.0639
94941W        W37858  24.478  27.424  21.557 -0.0286 -0.0580  0.1917
94942W        W37859  17.964  26.665  22.210 -0.1072  0.0252 -0.0544
94943W        W37860  18.542  28.095  20.950 -0.0135 -0.0085  0.0239
94944W        W37861  17.518  30.478  21.659  0.2310 -0.0865  0.5026
94945W        W37862  19.954  28.507  23.075 -0.3299 -0.1564  0.2286
94946W        W37863  21.441  26.159  24.149  0.0081  0.2344  0.2225
94947W        W37864  20.137  29.650  18.877 -0.5556  0.0497  0.1664
94948W        W37865  21.304  25.661  25.884 -0.0206 -0.1026 -0.4864
94949W        W37866  20.368  29.305  22.917  0.1181  0.1158 -0.3805
94950W        W37867  19.668  27.273  22.763  0.2415  0.1603 -0.2950
94951W        W37868  17.200  26.982  19.708  0.1352 -0.1893 -0.0150
94952W        W37869  19.050  27.871  21.590 -0.0827  0.0042  0.1166
94953W        W37870  19.497  29.782  22.003 -0.2381  0.0437  0.2853
94954W        W37871  20.547  27.683  18.564  0.1513  0.2547 -0.3322
94955W        W37872  22.928  29.737  19.923  0.0759  0.0130  0.2616
94956W        W37873  18.209  27.382  20.521 -0.0489  0.1036 -0.0609
94957W        W37874  21.902  27.401  22.500 -0.4459  0.1756 -0.0950
94958W        W37875  19.797  24.859  21.925 -0.2505 -0.0507  0.2763
94959W        W37876  20.104  27.222  20.569 -0.0909  0.1592 -0.2558
94960W        W37877  22.219  25.278  19.838 -0.0110  0.1158 -0.1175
94961W        W37878  20.983  27.032  22.159  0.2561  0.1536  0.2107
94962W        W37879  17.076  28.610  21.043 -0.4297 -0.1092 -0.2167
94963W        W37880  18.987  27.534  20.812  0.1707  0.0287 -0.2827
94964W        W37881  19.285  27.275  20.054 -0.0957 -0.0632 -0.2272
94965W        W37882  21.416  26.510  21.322 -0.1383 -0.3436 -0.0859
94966W        W37883  18.790  25.630  21.531  0.0515 -0.1103  0.0643
94967W        W37884  16.806  29.328  23.256  0.0242 -0.3285  0.1245
94968W        W37885  20.945  25.344  22.357  0.0723  0.1159  0.1585
94969W        W37886  21.652  27.124  20.049  0.1045  0.2601  0.0435
94970W        W37887  18.457  23.936  21.275 -0.0180  0.0122  0.0089
94971W        W37888  19.382  27.115  21.163 -0.0258  0.1349  0.0041
94972W        W37889  21.642  27.626  20.361  0.0464 -0.0574  0.2943
94973W        W37890  20.804  28.454  20.153 -0.1309 -0.2113  0.0352
94974W        W37891  19.052  26.851  20.747 -0.2051  0.0015  0.0274
94975W        W37892  22.169  27.180  23.431 -0.0474  0.2277 -0.1049
94976W        W37893  14.971  28.588  21.074 -0.2659 -0.4980 -0.1478
94977W        W37894  19.631  25.769  25.068 -0.0809 -0.1637  0.0935
94978W        W37895  20.341  27.518  23.579  0.0628 -0.0587  0.0794
94979W        W37896  17.696  25.619  20.530 -0.0848  0.2304 -0.2532
94980W        W37897  19.653  27.780  23.533 -0.0242  0.1144  0.1653
94981W        W37898  19.745  29.121  20.198 -0.2499  0.1916 -0.0390
94982W        W37899  20.374  28.382  20.391  0.0649 -0.1163 -0.4131
94983W        W37900  19.480  29.559  20.422 -0.1556  0.1404  0.0238
94984W        W37901  20.032  30.682  24.414  0.1648  0.2446  0.2272
94985W        W37902  18.332  26.185  22.299  0.4385  0.3789 -0.1171
94986W        W37903  19.774  26.158  21.301 -0.2257 -0.3246 -0.1003
94987W        W37904  19.428  27.623  21.876  0.1987 -0.1989 -0.0174
94988W        W37905  22.153  27.856  19.436  0.1302 -0.0633  0.3134
94989W        W37906  22.572  24.209  22.703  0.4105 -0.0229 -0.2667
94990W        W37907  19.377  28.308  19.133 -0.1128 -0.2217 -0.0525
94991W        W37908  20.338  24.912  20.421 -0.0958  0.0981 -0.2197
94992W        W37909  19.594  27.533  24.938 -0.1259  0.0072  0.2219
94993W        W37910  21.044  28.288  22.670 -0.1140 -0.2404  0.0687
94994W        W37911  17.629  28.707  21.229  0.1007 -0.1210  0.2430
94995W        W37912  21.218  26.140  21.752 -0.1358  0.0346 -0.0626
94996W        W37913  18.292  30.921  21.911 -0.0164  0.1921  0.4762
94997W        W37914  17.127  27.160  22.662  0.2190 -0.0112  0.2735
94998W        W37915  20.410  26.775  21.523 -0.2865  0.4488 -0.0478
94999W        W37916  19.991  28.749  25.660 -0.1285  0.0391  0.0151
95000W        W37917  19.962  28.491  21.012 -0.0866  0.0991 -0.2221
95001W        W37918  20.035  28.825  20.524  0.0195 -0.5073  0.1096
95002W        W37919  20.440  24.417  21.493  0.1084  0.3709  0.2311
95003W        W37920  22.341  26.402  21.483  0.0629 -0.1627 -0.1444
95004W        W37921  20.548  29.524  21.420  0.0106  0.2572 -0.1483
95005W        W37922  21.322  31.362  22.239 -0.4829 -0.2765 -0.0011
95006W        W37923  20.999  29.188  23.860  0.2079  0.0330 -0.0732
95007W        W37924  21.815  28.154  22.115 -0.3950  0.2085  0.1011
95008W        W37925  17.769  27.419  21.063 -0.2493  0.0436  0.1261
95009W        W37926  18.292  28.897  20.591  0.1466  0.3213  0.0221
95010W        W37927  19.041  27.939  21.047  0.1722 -0.0185 -0.1583
95011W        W37928  20.827  26.447  21.440 -0.0925 -0.1062 -0.1621
95012W        W37929  19.432  26.151  20.238  0.0756 -0.0226 -0.1518
95013W        W37930  19.147  26.333  18.655 -0.0806  0.3012 -0.1040
95014W        W37931  19.565  28.907  26.140 -0.0437  0.1029 -0.1449
95015W        W37932  21.934  26.878  21.523 -0.0994  0.0776 -0.1971
95016W        W37933  20.879  29.149  25.859 -0.0737 -0.0974  0.6389
95017W        W37934  18.530  25.839  25.398  0.0887  0.3122  0.0625
95018W        W37935  20.054  25.474  25.846  0.0160  0.1104  0.0082
95019W        W37936  19.540  25.459  26.149  0.1785  0.2575 -0.0042
95020W        W37937  19.333  26.525  23.455  0.0363  0.0971 -0.1313
95021W        W37938  19.365  29.465  24.177 -0.0794 -0.2860  0.3365
95022W        W37939  19.130  24.604  27.470  0.0519  0.0779 -0.0211
95023W        W37940  20.377  27.557  27.032  0.0535 -0.0884  0.1995
95024W        W37941  21.433  30.206  25.601 -0.1022  0.1352  0.1579
95025W        W37942  19.291  27.427  23.124  0.1215  0.4169 -0.0738
95026W        W37943  20.118  26.394  27.234  0.3128 -0.0124 -0.0145
95027W        W37944  19.992  28.529  28.247  0.1233 -0.2856  0.0174
95028W        W37945  19.115  26.783  27.154  0.0876  0.4652 -0.2202
95029W        W37946  16.194  25.729  24.342  0.1931  0.2833 -0.0769
95030W        W37947  20.301  28.008  27.981  0.1944 -0.0308 -0.1688
95031W        W37948  18.565  27.279  25.323  0.0016  0.1118  0.1751
95032W        W37949  19.167  27.428  27.701  0.0465  0.0886  0.3078
95033W        W37950  18.178  24.862  26.235 -0.1440 -0.0232 -0.0205
95034W        W37951  19.043  27.358  25.228 -0.4391 -0.0309 -0.2221
95035W        W37952  17.829  28.547  27.579 -0.0056  0.0335 -0.2242
95036W        W37953  20.020  24.454  28.309 -0.2684  0.2094  0.0044
95037W        W37954  19.446  28.427  22.868  0.2762  0.1311 -0.0577
95038W        W37955  16.230  26.971  21.881  0.2869  0.1401  0.0360
95039W        W37956  17.070  27.054  24.680  0.0458  0.3569 -0.0575
95040W        W37957  19.781  27.528  26.459  0.0826 -0.0526  0.0511
95041W        W37958  21.719  27.386  25.345  0.0234 -0.1058  0.3315
95042W        W37959  21.815  28.039  25.454 -0.0777 -0.0819 -0.0072
95043W        W37960  19.480  27.798  27.820  0.0418  0.0928  0.2310
95044W        W37961  20.731  29.042  25.376  0.0345 -0.1730 -0.1492
95045W        W37962  21.510  27.105  27.704 -0.0712  0.1082  0.2770
95046W        W37963  15.596  28.040  23.319  0.0004 -0.2124 -0.2098
95047W        W37964  18.099  30.498  25.879  0.1614  0.2355 -0.2126
95048W        W37965  21.003  28.646  25.442  0.0822 -0.4842  0.1146
95049W        W37966  21.545  26.937  26.476 -0.1219  0.1402 -0.0710
95050W        W37967  23.403  29.781  27.916 -0.1314  0.1834 -0.1992
95051W        W37968  20.124  28.224  27.058  0.1693  0.1900 -0.1963
95052W        W37969  18.273  30.448  22.753  0.1386  0.0705  0.1802
95053W        W37970  20.533  29.668  25.150  0.0907  0.0914  0.0224
95054W        W37971  18.294  29.957  25.564 -0.1541  0.2665  0.0511
95055W        W37972  19.987  27.602  25.270 -0.1294  0.0106  0.1422
95056W        W37973  21.353  28.312  25.450  0.2004  0.0499 -0.0038
95057W        W37974  19.207  28.539  26.055 -0.3190 -0.0646  0.1896
95058W        W37975  17.968  29.332  22.960 -0.3805 -0.2248  0.0708
95059W        W37976  19.202  27.810  27.175 -0.2424  0.2436  0.1957
95060W        W37977  17.889  28.069  24.000 -0.1102  0.1619 -0.0345
95061W        W37978  20.392  23.770  27.031 -0.1547 -0.0297 -0.1757
95062W        W37979  19.123  27.519  24.418 -0.2957 -0.0958 -0.0717
95063W        W37980  21.828  25.686  21.306 -0.0771  0.2210 -0.2996
95064W        W37981  18.958  26.436  24.715 -0.0884 -0.0380  0.0795
95065W        W37982  21.681  25.384  24.423  0.1228 -0.0282 -0.1289
95066W        W37983  18.673  26.410  25.834 -0.0679  0.0088 -0.0345
95067W        W37984  19.391  28.441  26.520 -0.1537 -0.0530  0.3288
95068W        W37985  20.219  28.501  25.290  0.2176 -0.3410 -0.0151
95069W        W37986  22.159  27.379  25.583  0.2967  0.0598  0.2336
95070W        W37987  20.436  30.057  25.533  0.3766  0.2620 -0.0873
95071W        W37988  22.435  25.277  26.610 -0.4107 -0.0172 -0.0281
95072W        W37989  18.887  29.340  24.944 -0.2032 -0.3534  0.3309
95073W        W37990  18.266  27.508  26.954  0.3726  0.0041 -0.0898
95074W        W37991  19.556  28.100  22.394 -0.0804  0.0126  0.3811
95075W        W37992  21.279  28.980  24.371  0.2041  0.0222 -0.1934
95076W        W37993  20.752  28.805  23.517 -0.1675  0.0504 -0.2263
95077W        W37994  18.461  26.543  24.832  0.1860  0.1085  0.2783
95078W        W37995  20.839  25.792  27.541 -0.1653  0.0297  0.0626
95079W        W37996  19.801  25.981  27.213  0.1007 -0.1100 -0.1800
95080W        W37997  18.423  27.544  22.241 -0.0919 -0.1054 -0.1280
95081W        W37998  21.053  29.534  27.779  0.0899  0.2045  0.0653
95082W        W37999  18.334  28.368  26.124 -0.0056 -0.2301 -0.0132
95083W        W38000  18.579  27.474  27.723  0.0250  0.0433 -0.2178
95084W        W38001  18.893  27.318  23.439  0.0082  0.1765  0.2411
95085W        W38002  23.238  28.544  26.461  0.1356  0.0875  0.1708
95086W        W38003  20.145  26.452  25.564 -0.2487 -0.0069 -0.0822
95087W        W38004  20.932  25.240  27.550 -0.0596  0.0397 -0.1414
95088W        W38005  18.304  24.924  27.521 -0.0182 -0.0727  0.0107
95089W        W38006  18.339  27.814  24.173  0.0522 -0.0220 -0.0133
95090W        W38007  17.429  27.774  24.122 -0.2385  0.1573 -0.2284
95091W        W38008  19.067  27.520  25.760  0.1835 -0.1331  0.2369
95092W        W38009  20.898  27.513  24.221  0.2694 -0.2204  0.4857
95093W        W38010  19.029  28.931  26.466 -0.0248 -0.0633  0.0617
95094W        W38011  19.513  24.825  27.218 -0.2566 -0.1144 -0.1597
95095W        W38012  21.652  29.309  26.965 -0.0534 -0.4168 -0.0961
95096W        W38013  18.052  28.533  22.485  0.0868 -0.0589  0.2578
95097W        W38014  19.207  28.822  24.064 -0.2697 -0.2164 -0.3956
95098W        W38015  17.360  28.658  24.073  0.1601 -0.1008  0.2789
95099W        W38016  19.489  25.996  26.368  0.0362  0.2831 -0.0481
95100W        W38017  19.896  27.374  27.014  0.1223 -0.3880 -0.1647
95101W        W38018  19.915  27.664  24.591 -0.0880  0.2939  0.0957
95102W        W38019  18.218  25.413  26.285 -0.1627  0.0591  0.3580
95103W        W38020  19.638  24.381  26.964  0.1893 -0.1531  0.0219
95104W        W38021  19.155  26.940  22.980  0.0072 -0.0834 -0.0421
95105W        W38022  18.012  29.348  25.919 -0.1472  0.1836 -0.0878
95106W        W38023  18.629  27.272  24.273 -0.0049 -0.2206  0.0892
95107W        W38024  21.196  27.065  25.601 -0.2659  0.1084 -0.0726
95108W        W38025  18.847  26.652  26.257  0.0436  0.1268  0.2139
95109W        W38026  16.486  25.682  24.738 -0.2224 -0.1111 -0.2498
95110W        W38027  21.604  24.741  27.013 -0.1480  0.0583 -0.2052
95111W        W38028  17.506  25.522  23.237  0.2615  0.5191  0.0687
95112W        W38029  22.202  28.195  25.779  0.2350 -0.2338  0.1418
95113W        W38030  18.130  27.244  24.291 -0.0078  0.2744 -0.1306
95114W        W38031  20.665  27.641  28.572  0.2155 -0.2578  0.0359
95115W        W38032  20.105  25.506  27.122 -0.2009 -0.0351 -0.2356
95116W        W38033  17.052  28.286  23.347 -0.2559  0.1533 -0.1328
95117W        W38034  20.783  24.638  27.128  0.0201 -0.0185 -0.2026
95118W        W38035  20.823  28.399  25.041 -0.0245 -0.0835 -0.3530
95119W        W38036  21.510  30.128  26.616 -0.0941 -0.1956  0.0836
95120W        W38037  19.169  31.011  24.002 -0.4083  0.0742 -0.0313
95121W        W38038  18.904  25.781  27.746  0.2885 -0.0576  0.0511
95122W        W38039  19.014  25.985  23.240 -0.1078 -0.2328  0.0619
95123W        W38040  18.956  30.059  23.718  0.1151  0.0540  0.3494
95124W        W38041  19.387  29.238  25.828  0.0102 -0.1549  0.1169
95125W        W38042  17.723  28.031  22.656 -0.2023  0.2192  0.4172
95126W        W38043  21.744  28.599  27.235  0.0103 -0.0325  0.0318
95127W        W38044  19.140  27.703  24.878 -0.0463  0.1193  0.0034
95128W        W38045  18.308  25.680  25.854 -0.0843 -0.0478 -0.0757
95129W        W38046  19.960  23.918  28.567 -0.1948 -0.3057  0.0714
95130W        W38047  21.873  26.851  27.058 -0.1757  0.1975  0.1646
95131W        W38048  19.587  27.540  27.412  0.1394  0.2615 -0.2023
95132W        W38049  19.403  26.780  22.605 -0.2773 -0.0811 -0.1572
95133W        W38050  19.584  29.185  23.789  0.0107  0.1711 -0.0862
95134W        W38051  17.160  29.241  26.538 -0.0502 -0.2292 -0.1040
95135W        W38052  19.996  29.025  26.411  0.1403 -0.1272 -0.3596
95136W        W38053  19.999  26.987  26.236 -0.1409  0.1252 -0.0696
95137W        W38054  21.665  23.971  26.402  0.5098 -0.3722 -0.0098
95138W        W38055  18.326  26.763  25.865  0.0289  0.0146  0.1138
95139W        W38056  20.188  27.655  29.165  0.1703 -0.0875  0.3690
95140W        W38057  17.626  27.370  24.332 -0.0272 -0.2269  0.0248
95141W        W38058  19.799  29.183  27.386  0.1002 -0.1020 -0.0600
95142W        W38059  20.129  27.281  24.887 -0.3241 -0.0920 -0.0906
95143W        W38060  19.998  26.377  23.870  0.0683  0.5794  0.0709
95144W        W38061  20.795  27.802  27.730 -0.1821 -0.3779 -0.3252
95145W        W38062  21.376  28.045  25.985 -0.0028 -0.3503  0.3932
95146W        W38063  17.898  27.069  24.679  0.1255 -0.0924  0.1980
95147W        W38064  20.806  24.765  25.014  0.1499 -0.0463 -0.5909
95148W        W38065  18.978  24.787  26.351  0.1117  0.0140 -0.2946
95149W        W38066  20.377  28.021  25.948  0.0503  0.0198 -0.2093
95150W        W38067  18.300  27.986  27.135  0.0059 -0.1176 -0.2729
95151W        W38068  19.290  26.418  26.694  0.0884  0.0249  0.1735
95152W        W38069  22.350  28.187  23.328 -0.0186 -0.1288  0.0021
95153W        W38070  17.653  26.840  26.115 -0.0126  0.0347  0.0885
95154W        W38071  21.502  29.513  27.410 -0.0189  0.0539 -0.1355
95155W        W38072  20.623  28.539  25.769  0.3439  0.1494 -0.1924
95156W        W38073  18.607  23.991  27.779  0.1663 -0.3104  0.1882
95157W        W38074  19.038  28.202  24.890  0.0782 -0.0902  0.3157
95158W        W38075  19.679  27.221  25.364 -0.1308 -0.0795 -0.2485
95159W        W38076  18.244  28.825  24.645 -0.1839 -0.1198  0.2268
95160W        W38077  22.042  26.228  26.963 -0.0885  0.3970 -0.2065
95161W        W38078  21.827  23.581  25.297 -0.0285 -0.0499  0.0646
95162W        W38079  19.328  25.150  26.533  0.0721  0.0067  0.0968
95163W        W38080  21.059  27.593  28.229  0.3295  0.1225  0.0335
95164W        W38081  20.277  25.439  24.905  0.6186 -0.1326  0.3632
95165W        W38082  20.863  28.131  26.363 -0.2085  0.1028  0.2459
95166W        W38083  19.917  26.841  24.687  0.0041 -0.1505 -0.0400
95167W        W38084  21.506  25.392  26.659 -0.1103  0.1976 -0.2377
95168W        W38085  20.102  27.214  28.205  0.0019 -0.0201 -0.3515
95169W        W38086  20.092  27.800  26.726  0.0609  0.1041  0.0377
95170W        W38087  21.638  28.629  24.960 -0.1453  0.4196  0.0100
95171W        W38088  20.264  28.848  23.239  0.1117  0.0376 -0.1666
95172W        W38089  20.394  28.826  28.396 -0.1975  0.3093 -0.0238
95173W        W38090  18.678  26.876  22.794  0.1342 -0.0041 -0.3397
95174W        W38091  20.008  28.102  25.560 -0.0448 -0.0208 -0.1394
95175W        W38092  17.424  26.849  24.306 -0.2866 -0.1299  0.0458
95176W        W38093  18.256  28.341  27.447  0.2940  0.1263 -0.2846
95177W        W38094  20.417  28.766  26.736  0.3035 -0.1519 -0.0471
95178W        W38095  19.137  27.766  23.514  0.3204  0.0748  0.1370
95179W        W38096  20.868  30.048  25.233  0.0053  0.1419 -0.1123
95180W        W38097  18.576  28.619  26.547  0.0485  0.0173 -0.3174
95181W        W38098  20.280  25.432  28.779  0.1255  0.1248  0.2249
95182W        W38099  16.558  27.596  23.538  0.1182 -0.1059  0.2014
95183W        W38100  18.513  27.622  23.295  0.1424  0.0745 -0.0433
95184W        W38101  18.551  26.724  24.338 -0.0309 -0.0234  0.1412
95185W        W38102  21.544  25.169  25.642  0.1399 -0.2176  0.0838
95186W        W38103  22.412  27.140  26.873  0.1273 -0.0582  0.2193
95187W        W38104  18.644  26.570  27.354  0.0786 -0.2368  0.1701
95188W        W38105  19.654  25.218  27.512 -0.1438  0.0728 -0.1215
95189W        W38106  16.802  28.121  25.256  0.0662 -0.1638  0.1733
95190W        W38107  20.644  26.267  27.505  0.2758 -0.2353 -0.1393
95191W        W38108  19.681  24.001  25.887  0.1496  0.1860 -0.2825
95192W        W38109  19.429  27.493  26.844  0.1610 -0.1547 -0.0135
95193W        W38110  16.692  27.718  28.306  0.5939 -0.0411 -0.2674
95194W        W38111  18.294  27.333  25.829  0.1986  0.0235 -0.0064
95195W        W38112  19.764  26.372  26.609  0.1280  0.2701 -0.0425
95196W        W38113  19.300  25.721  22.893 -0.2175 -0.0046 -0.0731
95197W        W38114  17.910  28.568  24.385 -0.4476 -0.0984 -0.3080
95198W        W38115  20.958  28.166  25.734 -0.0767  0.0035 -0.0581
95199W        W38116  19.157  27.238  22.541  0.1774 -0.0476  0.3428
95200W        W38117  17.018  27.095  25.395 -0.1650  0.1647 -0.1483
95201W        W38118  20.293  27.051  27.200  0.1864 -0.0534 -0.2479
95202W        W38119  21.729  29.390  24.084  0.1483  0.0973 -0.1256
95203W        W38120  21.618  25.823  25.555 -0.2111 -0.0250 -0.0411
95204W        W38121  18.864  26.996  25.923 -0.2376 -0.5959  0.0016
95205W        W38122  19.129  25.894  25.458 -0.1367 -0.1743 -0.0836
95206W        W38123  18.383  25.141  25.846  0.1917  0.2476  0.0942
95207W        W38124  20.360  26.569  27.839 -0.1986 -0.0990 -0.1235
95208W        W38125  20.561  27.743  29.460  0.2524  0.1264 -0.1722
95209W        W38126  19.155  26.242  27.465 -0.2625  0.0647 -0.2178
95210W        W38127  20.427  28.414  24.699 -0.1168 -0.1058  0.0654
95211W        W38128  20.478  29.256  26.458 -0.0713 -0.0794  0.2905
95212W        W38129  17.879  27.804  25.378  0.0585  0.0444  0.2136
95213W        W38130  18.165  28.479  22.964 -0.4761  0.3176 -0.2128
95214W        W38131  17.654  27.486  24.963  0.0126  0.4989  0.0091
95215W        W38132  19.856  28.497  29.569  0.1852 -0.0141  0.0925
95216W        W38133  19.398  27.941  26.493 -0.0035  0.0053 -0.2816
95217W        W38134  19.805  28.602  26.995 -0.1488 -0.5754  0.1856
95218W        W38135  18.790  28.256  25.821 -0.3115 -0.0046  0.0761
95219W        W38136  20.921  26.584  25.698 -0.2262  0.0019  0.0450
95220W        W38137  21.336  28.605  23.418 -0.0776  0.2657 -0.1186
95221W        W38138  20.464  26.879  25.779 -0.2846 -0.2136  0.1876
95222W        W38139  20.500  26.009  26.794  0.2552 -0.1153  0.0443
95223W        W38140  20.088  28.083  22.361  0.0048 -0.0444  0.1032
95224W        W38141  20.940  27.172  27.022  0.0234  0.1882 -0.1348
95225W        W38142  17.235  26.545  27.027  0.0905  0.2374  0.0209
95226W        W38143  21.015  28.418  24.550  0.2904 -0.2020 -0.2084
95227W        W38144  19.151  28.035  28.132  0.1679 -0.1173 -0.0606
95228W        W38145  21.094  29.227  27.378  0.0983  0.0250 -0.1261
95229W        W38146  18.923  27.970  26.831 -0.2964  0.1209  0.3972
95230W        W38147  19.412  26.518  26.172 -0.0458  0.0459  0.4037
95231W        W38148  19.445  26.646  24.744 -0.2185 -0.0901 -0.1797
95232W        W38149  18.724  27.424  24.776 -0.0417  0.1524  0.1180
95233W        W38150  18.539  27.751  25.156 -0.0258 -0.0606  0.1237
95234W        W38151  20.381  29.482  25.579  0.2618 -0.0536  0.2287
95235W        W38152  20.242  26.156  26.371 -0.2604  0.0643 -0.1110
95236W        W38153  18.914  27.477  26.853 -0.0101  0.3599 -0.1363
95237W        W38154  20.851  27.607  26.790  0.2407 -0.0464  0.1829
95238W        W38155  18.346  29.049  25.745 -0.0778  0.1558  0.0013
95239W        W38156  17.682  27.052  25.155 -0.5310  0.2988 -0.0587
95240W        W38157  19.082  26.416  27.949  0.2961 -0.2152  0.2602
95241W        W38158  21.266  26.516  25.327 -0.0952  0.1335  0.1210
95242W        W38159  19.981  28.218  24.553  0.2519 -0.2475 -0.1343
95243W        W38160  20.928  25.398  26.310  0.0226 -0.2518 -0.0697
95244W        W38161  21.056  27.358  28.735  0.2171 -0.4358  0.2665
95245W        W38162  20.062  26.098  27.678 -0.0563 -0.2220 -0.2338
95246W        W38163  17.819  24.294  27.709  0.2327 -0.1168 -0.0182
95247W        W38164  20.191  30.352  26.341  0.2714  0.1255  0.1822
95248W        W38165  20.290  27.462  24.238 -0.3119  0.0327 -0.2951
95249W        W38166  19.255  23.298  25.360  0.3850 -0.1478  0.0471
95250W        W38167  20.928  26.687  26.485  0.1007  0.3835 -0.0235
95251W        W38168  21.990  26.180  24.791 -0.2256 -0.0213  0.3801
95252W        W38169  17.954  26.668  25.014  0.1993  0.2543 -0.1027
95253W        W38170  21.340  28.966  26.710  0.0098  0.0586 -0.4482
95254W        W38171  20.487  25.808  23.330 -0.1223 -0.1115 -0.1381
95255W        W38172  18.596  25.667  28.237  0.2104 -0.1189  0.1514
95256W        W38173  17.865  27.580  25.832 -0.2174 -0.2671  0.0379
95257W        W38174  19.798  28.029  25.018 -0.1939 -0.1078  0.0575
95258W        W38175  20.235  27.269  26.612  0.3286 -0.0558  0.1862
95259W        W38176  19.501  26.878  24.294 -0.0445  0.3917 -0.1526
95260W        W38177  18.565  28.151  28.102  0.0513 -0.3196  0.1120
95261W        W38178  20.725  25.279  24.717 -0.5517  0.2059 -0.3137
95262W        W38179  18.576  28.084  21.534 -0.1939 -0.2920 -0.3290
95263W        W38180  19.263  28.001  25.885 -0.1313 -0.0480 -0.2044
95264W        W38181  22.931  29.771  28.199  0.2917 -0.0605  0.1224
95265W        W38182  19.226  26.030  25.918  0.1349  0.0749 -0.2292
95266W        W38183  22.857  26.877  27.021 -0.1679  0.0743  0.0884
95267W        W38184  16.496  28.781  24.480  0.0703 -0.4352 -0.1948
95268W        W38185  17.972  24.460  26.704  0.0247  0.1061  0.1583
95269W        W38186  18.837  29.311  27.240  0.2467  0.1657 -0.1244
95270W        W38187  18.109  27.818  26.222 -0.0272  0.2342 -0.1266
95271W        W38188  20.105  29.841  26.228 -0.1543 -0.1291 -0.2395
95272W        W38189  21.018  25.176  25.865  0.1814  0.0742  0.1687
95273W        W38190  20.469  25.026  27.070 -0.0130 -0.2227 -0.0938
95274W        W38191  20.942  29.362  24.332  0.0863 -0.0604  0.0824
95275W        W38192  18.672  25.781  26.992  0.3208  0.1977 -0.2172
95276W        W38193  20.740  30.227  27.416 -0.3922 -0.3057  0.0153
95277W        W38194  18.322  26.446  25.338 -0.0659 -0.2896  0.1055
95278W        W38195  19.809  29.798  24.079 -0.1463  0.0532  0.3560
95279W        W38196  21.228  28.598  25.884 -0.0762 -0.3594 -0.0713
95280W        W38197  19.960  29.784  25.488 -0.1706 -0.3090 -0.0827
95281W        W38198  17.987  26.973  26.540 -0.2974 -0.2731  0.0009
95282W        W38199  20.539  28.516  27.213 -0.1193 -0.1863 -0.1236
95283W        W38200  20.744  26.673  25.253 -0.0618  0.2091  0.2788
95284W        W38201  21.789  26.112  25.920  0.0513 -0.0828  0.2109
95285W        W38202  20.589  27.636  25.690 -0.1812 -0.1830 -0.2795
95286W        W38203  16.780  25.693  27.889  0.3107 -0.0997  0.0701
95287W        W38204  17.888  25.251  27.549 -0.4463 -0.2191  0.0784
95288W        W38205  17.663  29.601  23.837 -0.3704 -0.1418  0.0850
95289W        W38206  20.357  26.606  24.177 -0.0126 -0.1594 -0.1833
95290W        W38207  21.590  26.975  25.966  0.3085  0.1630  0.0113
95291W        W38208  21.240  28.424  26.346  0.1834 -0.1697  0.2948
95292W        W38209  19.773  27.660  25.740 -0.1750 -0.1689 -0.1894
95293W        W38210  18.066  30.361  27.035 -0.2163  0.1967 -0.2186
95294W        W38211  19.108  28.897  23.405 -0.2418  0.0940 -0.1368
95295W        W38212  20.520  26.967  22.857 -0.0734 -0.2791 -0.0028
95296W        W38213  18.392  28.061  23.070 -0.3821 -0.1428 -0.2491
95297W        W38214  21.435  25.377  27.607  0.1564 -0.0717  0.0562
95298W        W38215  22.000  26.492  25.594 -0.1197 -0.4246 -0.0003
95299W        W38216  21.961  28.304  26.928  0.0523 -0.1267  0.1413
95300W        W38217  19.947  27.000  24.184 -0.2521 -0.0865 -0.3039
95301W        W38218  21.080  28.125  26.863  0.3030  0.1451 -0.0829
95302W        W38219  18.622  27.809  25.663  0.2658 -0.2337  0.4433
95303W        W38220  19.068  28.107  24.404 -0.2123 -0.0788  0.1520
95304W        W38221  18.969  25.072  25.497  0.0600 -0.2084 -0.0213
95305W        W38222  21.827  23.937  28.003 -0.0100  0.1242  0.0918
95306W        W38223  17.283  26.381  26.031 -0.1786 -0.1131  0.1152
95307W        W38224  19.973  28.414  24.089 -0.1339 -0.0125 -0.2054
95308W        W38225  20.698  26.564  23.239  0.0647 -0.0099 -0.1333
95309W        W38226  19.835  29.332  25.605 -0.0315  0.2629  0.3615
95310W        W38227  20.881  23.937  28.608  0.1357 -0.0631 -0.0493
95311W        W38228  22.702  26.743  22.902  0.0989 -0.1335 -0.5062
95312W        W38229  19.214  25.941  28.084  0.0167  0.2113  0.7238
95313W        W38230  19.871  28.034  26.188 -0.1621  0.1177 -0.1229
95314W        W38231  19.176  29.628  26.123  0.0704 -0.2156  0.1662
95315W        W38232  19.536  29.420  25.274 -0.0595  0.1613 -0.0527
95316W        W38233  17.036  26.972  23.146  0.0705 -0.0375 -0.0543
95317W        W38234  22.862  28.261  26.585  0.1774  0.1219  0.0956
95318W        W38235  19.375  28.290  27.052  0.3721 -0.0776  0.0775
95319W        W38236  20.615  25.510  27.044 -0.1010  0.1992  0.0253
95320W        W38237  17.715  25.614  25.121  0.1267 -0.1645  0.1784
95321W        W38238  21.720  27.543  25.840 -0.0410 -0.2057  0.2441
95322W        W38239  20.476  27.764  26.458  0.2347  0.0742 -0.0040
95323W        W38240  18.232  25.666  27.765  0.2516 -0.3264  0.2951
95324W        W38241  22.599  27.876  26.247  0.1107 -0.1206  0.1363
95325W        W38242  20.838  26.341  26.131 -0.3017  0.0669 -0.1723
95326W        W38243  19.913  28.528  22.383 -0.1861 -0.3455  0.1466
95327W        W38244  22.199  30.676  26.691 -0.1418  0.1571 -0.1649
95328W        W38245  18.810  26.962  24.967  0.0004  0.0351  0.2040
95329W        W38246  19.921  25.735  26.228  0.0679  0.0146  0.0405
95330W        W38247  18.659  26.062  24.969 -0.1805 -0.0962  0.2366
95331W        W38248  20.587  26.905  26.797  0.1699  0.1733 -0.2528
95332W        W38249  20.217  31.481  27.197 -0.2283  0.0748 -0.0163
95333W        W38250  19.696  28.466  25.299 -0.1467  0.1841 -0.2615
95334W        W38251  22.420  28.617  24.287 -0.0676 -0.0408 -0.1173
95335W        W38252  21.549  25.862  26.641  0.2082  0.1593 -0.0932
95336W        W38253  19.930  28.630  24.817  0.2862 -0.1642  0.1705
95337W        W38254  19.018  27.254  27.302  0.1679  0.1024 -0.0016
95338W        W38255  21.605  29.214  25.764 -0.3057  0.0916  0.2343
95339W        W38256  18.799  27.327  22.871  0.1820 -0.2077  0.1510
95340W        W38257  20.591  27.980  26.934  0.0488 -0.0796  0.1729
95341W        W38258  21.805  29.642  26.258  0.0004 -0.0288 -0.0361
95342W        W38259  18.274  26.513  23.351 -0.1280 -0.3075 -0.0932
95343W        W38260  19.644  27.165  25.948 -0.1500 -0.0481  0.0665
95344W        W38261  18.797  29.189  25.918 -0.1713  0.1351 -0.0705
95345W        W38262  20.756  27.113  28.351 -0.2694  0.2938  0.0022
95346W        W38263  19.688  25.524  26.634 -0.2101  0.0239 -0.1338
95347W        W38264  19.933  28.552  19.781 -0.3242  0.1249 -0.1644
95348W        W38265  21.692  25.741  27.180  0.0277  0.2822  0.1828
95349W        W38266  19.660  28.388  25.822  0.0647  0.1237 -0.2386
95350W        W38267  18.748  26.698  28.236  0.1377  0.0948  0.0741
95351W        W38268  18.811  27.829  26.103  0.0020  0.1424  0.2372
95352W        W38269  20.965  27.827  27.231 -0.2515 -0.1255  0.0469
95353W        W38270  17.384  27.913  23.243  0.2306 -0.1570  0.1050
95354W        W38271  19.972  25.992  25.353  0.0014  0.1297  0.0096
95355W        W38272  21.461  27.810  25.141 -0.2990 -0.2425  0.0771
95356W        W38273  19.059  26.928  24.442 -0.0225  0.0355  0.0117
95357W        W38274  20.241  27.341  25.573  0.0341  0.1561  0.1132
95358W        W38275  20.788  25.765  25.818  0.0449 -0.0688  0.1740
95359W        W38276  22.058  25.464  24.829 -0.0948 -0.3888  0.0565
95360W        W38277  21.547  26.694  27.388  0.1518 -0.0472 -0.4350
95361W        W38278  19.270  27.956  28.979  0.0454  0.1883  0.0704
95362W        W38279  18.481  26.676  22.284 -0.0718 -0.0702  0.1780
95363W        W38280  19.576  27.344  24.499  0.1471  0.0271 -0.0261
95364W        W38281  20.164  28.825  27.356  0.0027  0.0578 -0.0882
95365W        W38282  21.189  25.488  28.500 -0.3265 -0.0895 -0.2054
95366W        W38283  19.148  26.424  28.491 -0.1808  0.1220  0.3045
95367W        W38284  18.137  26.028  25.103 -0.1347 -0.3592 -0.0884
95368W        W38285  18.040  26.020  24.163  0.2793 -0.4938  0.2294
95369W        W38286  21.584  28.035  26.667 -0.0109 -0.1134 -0.1570
95370W        W38287  19.096  25.893  26.695  0.0085  0.0854 -0.0894
95371W        W38288  17.289  25.923  24.713  0.2195  0.1114  0.0395
95372W        W38289  19.496  27.933  24.517 -0.3759  0.2374  0.1027
95373W        W38290  19.858  27.858  24.136  0.3041 -0.1843 -0.0008
95374W        W38291  17.195  25.453  24.916  0.4103  0.2868 -0.0488
95375W        W38292  21.881  27.780  26.958  0.0719 -0.0456 -0.0083
95376W        W38293  17.981  26.706  21.595  0.2552 -0.0746 -0.1172
95377W        W38294  18.279  26.082  28.025  0.1213  0.1132 -0.3539
95378W        W38295  18.261  23.959  26.447 -0.1523 -0.1288  0.1280
95379W        W38296  17.962  27.496  23.922 -0.4223 -0.3258 -0.0350
95380W        W38297  17.793  26.382  26.141  0.0730 -0.0005  0.2663
95381W        W38298  20.329  28.902  26.055  0.2492  0.0103  0.0649
95382W        W38299  21.339  28.185  24.874  0.1197  0.0169 -0.0218
95383W        W38300  19.698  27.878  27.031  0.0643 -0.0209 -0.0002
95384W        W38301  20.330  28.224  26.522  0.0221  0.2235  0.2372
95385W        W38302  15.107  25.284  23.837 -0.1418  0.0557 -0.0211
95386W        W38303  20.087  25.891  23.605 -0.1229 -0.1240 -0.0148
95387W        W38304  20.069  29.468  26.651  0.3201 -0.1180  0.4008
95388W        W38305  19.904  28.510  23.617  0.0643  0.0786  0.1622
95389W        W38306  21.455  26.463  26.371  0.3033  0.2625 -0.0153
95390W        W38307  21.033  25.204  23.990 -0.1330 -0.2262 -0.1006
95391W        W38308  19.551  23.894  27.249 -0.0883  0.2536  0.0729
95392W        W38309  18.165  26.646  27.434 -0.3420  0.0028  0.0201
95393W        W38310  22.017  25.697  26.804 -0.1269 -0.4525  0.0304
95394W        W38311  19.413  26.862  27.607  0.1160  0.0496 -0.0486
95395W        W38312  22.602  27.326  26.267  0.5244  0.1929 -0.3323
95396W        W38313  19.304  27.545  26.203 -0.0674  0.0579  0.1639
95397W        W38314  18.189  26.220  25.848 -0.0294  0.0859 -0.1197
95398W        W38315  18.544  26.076  27.568 -0.1988  0.1330  0.0082
95399W        W38316  19.620  26.574  27.216  0.1255 -0.2690 -0.2835
95400W        W38317  20.187  27.513  26.118  0.1160  0.1151 -0.2661
95401W        W38318  22.321  29.463  26.420 -0.0272  0.1901 -0.1751
95402W        W38319  19.031  27.919  25.381  0.1601  0.1947 -0.2118
95403W        W38320  21.471  26.969  24.566  0.2077  0.1398  0.4144
95404W        W38321  19.489  28.347  24.278 -0.0879 -0.0483  0.2028
95405W        W38322  21.402  29.613  28.307  0.0079 -0.0220  0.0507
95406W        W38323  18.176  28.854  26.201 -0.1748  0.2713 -0.2417
95407W        W38324  21.742  28.350  25.966  0.1006 -0.1032  0.0408
95408W        W38325  16.556  24.408  26.888 -0.1373 -0.0235 -0.0933
95409W        W38326  19.256  26.460  22.187 -0.2970  0.0886  0.0160
95410W        W38327  18.890  28.265  26.389 -0.1786  0.0848 -0.0774
95411W        W38328  22.105  25.911  25.642 -0.0725 -0.0496 -0.1780
95412W        W38329  17.277  24.964  26.122  0.2863  0.0593  0.0040
95413W        W38330  19.130  26.586  25.178  0.0154 -0.0129 -0.0920
95414W        W38331  19.655  29.703  25.915  0.1133  0.0115  0.1653
95415W        W38332  19.356  28.421  23.382  0.1057 -0.3535  0.0280
95416W        W38333  18.602  26.874  30.400  0.2904  0.1679  0.3452
95417W        W38334  17.474  25.285  28.509 -0.1016  0.0092  0.2153
95418W        W38335  20.731  26.325  28.432 -0.1018  0.1411 -0.4624
95419W        W38336  18.806  27.080  28.544  0.1590  0.1928  0.2338
95420W        W38337  16.997  23.348  25.924 -0.1651 -0.0653  0.0824
95421W        W38338  20.381  28.303  28.421 -0.3134  0.2234 -0.1374
95422W        W38339  18.372  26.224  30.358  0.1417 -0.6126 -0.2270
95423W        W38340  20.997  29.643  29.380 -0.1279  0.2926  0.3498
95424W        W38341  21.336  30.065  29.336  0.0818  0.4829 -0.4157
95425W        W38342  18.442  28.458  26.991 -0.0128 -0.0643  0.1146
95426W        W38343  21.100  27.229  30.578 -0.0890 -0.0278 -0.0363
95427W        W38344  18.941  27.878  27.703  0.1044 -0.1239  0.2456
95428W        W38345  19.707  23.913  26.625  0.2017 -0.3498 -0.0332
95429W        W38346  16.137  24.997  27.865 -0.0640  0.0759 -0.0753
95430W        W38347  20.530  26.411  29.866 -0.1110 -0.1467 -0.0000
95431W        W38348  18.822  24.951  27.674  0.2996 -0.1076 -0.0527
95432W        W38349  19.423  27.291  30.017  0.1041  0.3869  0.0524
95433W        W38350  19.134  24.466  27.962 -0.0086  0.0125 -0.4612
95434W        W38351  19.833  28.968  29.087  0.1747  0.1723 -0.0040
95435W        W38352  19.819  25.582  30.540 -0.0235 -0.0657  0.1347
95436W        W38353  20.894  24.695  31.469  0.0594  0.0866 -0.3591
95437W        W38354  18.160  26.483  29.305 -0.0981 -0.0201  0.2489
95438W        W38355  17.336  26.368  28.336  0.3176 -0.0034  0.0780
95439W        W38356  17.954  26.045  29.497 -0.2352  0.1422  0.1972
95440W        W38357  19.476  25.993  28.562 -0.1247 -0.1500 -0.1579
95441W        W38358  20.418  24.661  27.999 -0.1338  0.2654  0.2465
95442W        W38359  21.590  26.102  27.952 -0.2145 -0.0991  0.2413
95443W        W38360  20.192  28.595  29.971 -0.1440  0.0657 -0.4532
95444W        W38361  22.030  28.050  29.445  0.0426  0.0574  0.1548
95445W        W38362  18.978  26.670  31.213  0.0112  0.5237 -0.1230
95446W        W38363  18.463  29.654  29.995  0.2028  0.1093  0.0842
95447W        W38364  19.560  27.123  29.141 -0.0214  0.5217  0.0885
95448W        W38365  20.301  26.771  28.350 -0.3434  0.1659  0.1401
95449W        W38366  23.384  29.882  29.496 -0.1093  0.0032 -0.0736
95450W        W38367  22.004  26.472  30.657 -0.1490 -0.3496  0.1540
95451W        W38368  19.695  28.045  31.959 -0.1293  0.0282 -0.1695
95452W        W38369  22.731  29.171  27.501  0.2734  0.2535  0.1057
95453W        W38370  19.667  28.229  30.966 -0.0645 -0.4014  0.0766
95454W        W38371  18.777  27.328  28.998  0.0206  0.1486 -0.0509
95455W        W38372  19.052  26.828  28.997  0.0764  0.1120  0.5891
95456W        W38373  20.286  25.858  28.490 -0.2142  0.1140  0.3489
95457W        W38374  17.627  28.700  26.349 -0.1516 -0.1616  0.0593
95458W        W38375  16.772  27.239  28.388  0.2231  0.0575 -0.2134
95459W        W38376  19.764  27.963   0.543  0.1145 -0.0341  0.0948
95460W        W38377  19.905  28.159  31.387  0.4336 -0.0362 -0.0812
95461W        W38378  20.485  23.568  30.431  0.2393 -0.3357 -0.5472
95462W        W38379  18.408  28.444  28.468  0.1428 -0.0200  0.0454
95463W        W38380  19.630  25.229  28.529  0.1852 -0.1713 -0.4316
95464W        W38381  19.325  26.854  28.091 -0.1125  0.0637 -0.2542
95465W        W38382  18.083  24.590  28.553 -0.0625 -0.0876 -0.2309
95466W        W38383  21.510  27.564  28.973  0.4514 -0.1025 -0.0900
95467W        W38384  19.564  29.327  28.273  0.1351 -0.3861  0.1474
95468W        W38385  19.196  23.190  28.775 -0.1179 -0.2718  0.0467
95469W        W38386  22.000  27.560  28.272  0.0957 -0.2060  0.1414
95470W        W38387  18.116  26.856  28.034  0.1212  0.3969 -0.0662
95471W        W38388  19.719  25.878  28.163 -0.0459 -0.2035 -0.2729
95472W        W38389  21.886  29.908  29.028 -0.0666 -0.1562  0.0611
95473W        W38390  16.914  25.465  28.753 -0.0198  0.0370  0.2272
95474W        W38391  20.545  30.053  26.032  0.0143  0.2904 -0.2024
95475W        W38392  21.927  29.964  28.424 -0.0466  0.3262 -0.1565
95476W        W38393  21.321  29.206  29.499  0.0729  0.0973 -0.2854
95477W        W38394  17.974  27.700  29.736 -0.0597 -0.1440  0.1279
95478W        W38395  16.680  27.485  28.787 -0.3255 -0.3759  0.0971
95479W        W38396  18.714  26.629  29.296 -0.2488 -0.0998  0.1648
95480W        W38397  18.154  23.965  25.920  0.0927  0.1550  0.0893
95481W        W38398  23.427  27.411  31.232  0.1429 -0.2529  0.0473
95482W        W38399  19.729  28.803  29.984 -0.2526 -0.2434  0.0305
95483W        W38400  22.056  25.919  28.206 -0.2674 -0.0531 -0.1954
95484W        W38401  18.314  25.693  29.349 -0.1433 -0.1038 -0.1550
95485W        W38402  22.030  27.660  31.298  0.0696 -0.0975 -0.3076
95486W        W38403  23.649  30.180  27.644  0.2148 -0.0099  0.3171
95487W        W38404  20.605  24.970  29.962  0.1413 -0.1803 -0.1620
95488W        W38405  19.393  25.564  31.223 -0.4149 -0.0554  0.1490
95489W        W38406  18.481  25.203  27.900 -0.0251  0.0661  0.2042
95490W        W38407  18.864  26.269  26.975 -0.0285 -0.1760  0.1970
95491W        W38408  21.704  28.245  31.365  0.0373 -0.2252  0.0817
95492W        W38409  22.279  29.912  26.257  0.1551  0.5648  0.0184
95493W        W38410  18.952  27.664  29.390 -0.2048 -0.0086  0.0493
95494W        W38411  20.882  26.782  29.862  0.1855  0.3263 -0.2383
95495W        W38412  22.712  26.909  29.248  0.2931 -0.0195 -0.1034
95496W        W38413  18.677  27.969  29.039  0.1617 -0.0010 -0.0305
95497W        W38414  18.139  26.907  28.641  0.1525  0.3770 -0.1471
95498W        W38415  18.925  29.916  28.392 -0.0297  0.1917  0.1859
95499W        W38416  17.899  25.046  29.460 -0.1215  0.0072  0.1527
95500W        W38417  17.989  26.972  30.541  0.1237 -0.2869 -0.0041
95501W        W38418  19.274  28.424  27.736  0.0279  0.1782 -0.0011
95502W        W38419  19.189  28.555  29.740  0.0310 -0.2938  0.2291
95503W        W38420  21.340  26.243  29.216 -0.1842  0.1212  0.3062
95504W        W38421  16.376  28.186  29.502 -0.0205 -0.3485  0.0497
95505W        W38422  19.963  31.834  28.858 -0.0757 -0.0107 -0.2908
95506W        W38423  21.505  26.628  27.884  0.1968  0.1725 -0.2816
95507W        W38424  20.178  29.853  29.648 -0.2097  0.0292  0.0900
95508W        W38425  18.225  26.457  28.327 -0.1413  0.2972  0.1442
95509W        W38426  17.882  24.235  28.873  0.1581  0.0716 -0.1425
95510W        W38427  17.338  26.507  29.499 -0.0942 -0.3242 -0.2934
95511W        W38428  17.286  25.694  31.122 -0.3176 -0.0338  0.0720
95512W        W38429  22.980  29.571  29.668  0.0942 -0.1387 -0.0682
95513W        W38430  17.349  24.025  27.083 -0.1539  0.0154  0.0699
95514W        W38431  23.615  26.854  29.956 -0.1653  0.0732  0.2402
95515W        W38432  17.821  27.827  27.140  0.1229 -0.2083 -0.0438
95516W        W38433  18.044  25.670  28.334  0.0042 -0.2513 -0.1074
95517W        W38434  22.402  26.923  30.419 -0.1886  0.1333  0.3664
95518W        W38435  20.097  27.867  28.438  0.3990  0.0595 -0.0347
95519W        W38436  22.152  30.421  28.324 -0.1203  0.1455  0.0702
95520W        W38437  20.235  28.629  29.215  0.1123 -0.2184 -0.1636
95521W        W38438  18.165  27.978  29.064  0.1144 -0.0743  0.2440
95522W        W38439  19.152  25.199  27.364 -0.1357  0.0127  0.0720
95523W        W38440  19.351  26.990  28.553 -0.2047  0.1606 -0.1334
95524W        W38441  19.627  28.252  28.501 -0.0918  0.0877 -0.0594
95525W        W38442  18.871  23.506  26.652  0.2621  0.0058  0.0119
95526W        W38443  23.657  30.115  29.861 -0.0623  0.0244 -0.0749
95527W        W38444  19.824  27.528  30.455 -0.3158  0.0149 -0.1805
95528W        W38445  18.143  26.429  28.810 -0.1489  0.0624 -0.0082
95529W        W38446  19.415  24.684  29.083 -0.1586  0.0039  0.1807
95530W        W38447  21.564  28.402  29.440  0.2373 -0.2784 -0.0479
95531W        W38448  20.314  23.096  27.660  0.4681 -0.1273 -0.1569
95532W        W38449  16.842  24.198  27.993 -0.2453  0.1236 -0.1537
95533W        W38450  21.213  27.861  28.682 -0.0904  0.0247 -0.1653
95534W        W38451  17.861  26.083  28.496 -0.3809 -0.1469  0.4542
95535W        W38452  17.797  25.264  28.105 -0.0912  0.2178  0.0439
95536W        W38453  18.824  27.186  29.985  0.1712 -0.4929  0.0413
95537W        W38454  21.476  24.983  29.108 -0.0803 -0.1336  0.1577
95538W        W38455  19.062  26.410   0.851  0.1638 -0.2310  0.0851
95539W        W38456  18.221  27.485  29.350 -0.1642  0.1842 -0.1482
95540W        W38457  17.938  28.386  27.067 -0.2779  0.1855 -0.0640
95541W        W38458  20.603  27.915  30.873 -0.2467 -0.0617 -0.1410
95542W        W38459  18.599  23.636  27.132 -0.3717  0.1744 -0.1978
95543W        W38460  20.598  24.843  27.548 -0.1661  0.1288  0.0615
95544W        W38461  21.708  27.727  30.329  0.3281 -0.0407 -0.1768
95545W        W38462  20.878  28.797  27.604  0.3718  0.0090 -0.1515
95546W        W38463  21.277  29.736  26.154 -0.1131  0.1716 -0.1776
95547W        W38464  19.596  24.348  27.575 -0.1856  0.1064  0.1449
95548W        W38465  19.604  29.029  31.097  0.0740  0.1876  0.0024
95549W        W38466  20.928  28.290  28.739  0.1555 -0.2291 -0.0340
95550W        W38467  20.031  26.642  29.000 -0.0067 -0.3807  0.2645
95551W        W38468  18.993  25.365  28.013  0.0842 -0.3589 -0.0855
95552W        W38469  23.207  28.911  28.277  0.0225 -0.0424 -0.1447
95553W        W38470  16.082  26.836  30.298 -0.0010 -0.2768  0.6374
95554W        W38471  20.740  26.028  31.844 -0.0076 -0.3518  0.0866
95555W        W38472  22.987  29.586  27.595 -0.1692 -0.0144 -0.3665
95556W        W38473  21.992  28.849  27.767 -0.0594 -0.4551 -0.2283
95557W        W38474  18.549  27.093  27.194 -0.3913  0.1192  0.1936
95558W        W38475  20.408  27.960  30.372 -0.1602  0.2839 -0.4887
95559W        W38476  19.666  29.416  28.845  0.0301 -0.0524  0.0311
95560W        W38477  22.076  24.992  30.021 -0.2080 -0.1443 -0.2140
95561W        W38478  20.454  27.044  27.858  0.1774 -0.1369 -0.0803
95562W        W38479  18.612  23.104  30.302 -0.2374 -0.1350  0.0017
95563W        W38480  22.336  27.158  29.498 -0.1335  0.2559  0.1295
95564W        W38481  19.545  26.401  28.199 -0.0462  0.2092  0.1253
95565W        W38482  21.409  27.333  29.456  0.1024 -0.2191 -0.1272
95566W        W38483  18.174  27.529  27.463  0.0566  0.1837 -0.0201
95567W        W38484  19.355  25.539  30.701  0.1260 -0.5224  0.0280
95568W        W38485  21.203  27.531  31.835 -0.3004  0.2705  0.1801
95569W        W38486  19.597  27.010  30.452 -0.0383 -0.3378  0.1296
95570W        W38487  22.917  27.048  30.428 -0.2723 -0.1486  0.1162
95571W        W38488  21.736  28.450  28.102  0.0987 -0.1332 -0.0241
95572W        W38489  18.637  24.654  31.892 -0.0754  0.1506  0.0975
95573W        W38490  18.094  25.353  28.797 -0.3430  0.1598 -0.0268
95574W        W38491  18.670  28.769  27.337 -0.0787 -0.0431  0.0249
95575W        W38492  19.591  28.114  27.470 -0.0952 -0.0104 -0.1125
95576W        W38493  20.953  26.177  29.794 -0.0268  0.0146 -0.2713
95577W        W38494  20.365  27.300  29.759 -0.0179 -0.1627  0.1337
95578W        W38495  18.227  28.101  24.839 -0.0440  0.1294  0.0339
95579W        W38496  20.828  29.284  30.963 -0.1069  0.1576 -0.1688
95580W        W38497  19.428  28.786  28.229 -0.0430 -0.1221 -0.0390
95581W        W38498  21.675  26.294  30.324 -0.0007 -0.0023 -0.2060
95582W        W38499  18.863  29.398  29.512  0.1351  0.1265 -0.0669
95583W        W38500  19.924  25.933  26.739  0.0872  0.0159 -0.0671
95584W        W38501  17.202  26.135  27.881 -0.2165 -0.0838 -0.2351
95585W        W38502  21.706  25.787  30.314  0.2181 -0.2217 -0.4802
95586W        W38503  21.475  27.535  28.010 -0.2328 -0.2517 -0.1680
95587W        W38504  18.739  26.485  30.156 -0.0693  0.1555  0.3885
95588W        W38505  20.206  26.424  29.472 -0.1674  0.0289  0.1843
95589W        W38506  21.603  28.834  29.791 -0.0125 -0.0546 -0.0784
95590W        W38507  20.407  28.167  29.883 -0.0963 -0.1600 -0.1263
95591W        W38508  20.063  27.816  27.360 -0.0650 -0.3364 -0.1910
95592W        W38509  20.706  25.136  29.444  0.2026  0.0894  0.1243
95593W        W38510  19.752  29.226   0.290  0.2309 -0.0212  0.1239
95594W        W38511  17.146  26.285  26.545 -0.4625 -0.0980 -0.1544
95595W        W38512  18.742  28.186  29.908 -0.2945 -0.2709  0.1805
95596W        W38513  19.279  25.417  30.253  0.1234 -0.1665  0.2351
95597W        W38514  19.204  30.127  29.245 -0.0503 -0.3047 -0.0825
95598W        W38515  20.002  28.862   1.041 -0.0840  0.1143 -0.2427
95599W        W38516  17.212  25.430  28.082 -0.2149 -0.2786  0.0617
95600W        W38517  17.364  27.215  29.242 -0.0790  0.0262 -0.0385
95601W        W38518  18.288  26.341  29.771 -0.0092  0.1666 -0.0052
95602W        W38519  21.858  27.081  29.467  0.2498  0.1824  0.0223
95603W        W38520  20.593  25.388  30.214  0.2902 -0.0493 -0.1155
95604W        W38521  19.379  25.681  27.585 -0.2992 -0.1013 -0.2392
95605W        W38522  20.941  26.820  28.743  0.3446  0.3629  0.1129
95606W        W38523  20.137  26.275  30.297 -0.2230 -0.2044 -0.1668
95607W        W38524  17.965  25.536  29.713 -0.0569  0.1031  0.0403
95608W        W38525  22.401  29.089  31.202 -0.2703 -0.2843 -0.3617
95609W        W38526  18.712  24.419  30.922 -0.1741 -0.0255 -0.1610
95610W        W38527  22.280  30.061  27.465 -0.3526 -0.0303 -0.1053
95611W        W38528  20.435  26.170  28.958 -0.0507  0.0245  0.0008
95612W        W38529  17.616  26.545  27.608  0.0813  0.1252  0.1314
95613W        W38530  17.393  27.170  30.604 -0.0440 -0.1646 -0.0491
95614W        W38531  16.970  26.683  28.369 -0.0408 -0.1514 -0.1353
95615W        W38532  20.793  24.649  29.617  0.0849  0.1560 -0.1738
95616W        W38533  19.605  28.320  29.930  0.1827  0.0340  0.0132
95617W        W38534  17.796  27.123  25.702 -0.1242 -0.1580  0.0363
95618W        W38535  20.067  27.662  29.881  0.1574 -0.3295 -0.0748
95619W        W38536  22.141  26.507  30.198 -0.0865 -0.0016 -0.1147
95620W        W38537  20.473  26.871  26.277 -0.1535  0.1235 -0.3414
95621W        W38538  17.606  25.136  27.164 -0.2236 -0.2646 -0.2068
95622W        W38539  21.198  26.305  30.533  0.1046  0.1140  0.5764
95623W        W38540  19.769  27.469  28.813  0.0438  0.3606  0.0340
95624W        W38541  20.980  26.435   1.131 -0.0828 -0.3227 -0.0561
95625W        W38542  18.512  23.847  30.573  0.0590 -0.0328  0.5327
95626W        W38543  21.199  27.795  26.518 -0.0639  0.1979 -0.0214
95627W        W38544  17.451  27.904  27.562  0.2536 -0.2109  0.2711
95628W        W38545  23.216  30.992  30.493  0.0355  0.2109 -0.5035
95629W        W38546  16.532  27.791   0.446  0.0463 -0.0577 -0.3232
95630W        W38547  22.099  25.699  28.617 -0.1905  0.1400  0.2168
95631W        W38548  17.595  21.700  26.154 -0.3394 -0.1672 -0.0441
95632W        W38549  19.810  26.843  28.525 -0.0071  0.0982  0.1689
95633W        W38550  23.511  28.273  28.347 -0.0097 -0.1823  0.0614
95634W        W38551  21.104  29.540  26.940  0.0278 -0.2323 -0.0340
95635W        W38552  23.951  27.235  30.072 -0.0214 -0.2056  0.0574
95636W        W38553  20.368  27.444  30.326  0.2280  0.0466 -0.0210
95637W        W38554  20.247  27.364  28.659 -0.0939 -0.1302  0.2086
95638W        W38555  20.729  27.303  26.396 -0.0117  0.2313  0.1863
95639W        W38556  19.200  27.991  29.669  0.1577  0.1424  0.1573
95640W        W38557  18.792  26.542  30.722 -0.1458 -0.2184 -0.1101
95641W        W38558  21.623  27.793  28.439 -0.2902  0.1081 -0.0983
95642W        W38559  21.025  24.650  27.752 -0.0179  0.2415  0.0664
95643W        W38560  19.604  26.335  29.815  0.0737  0.1582  0.5346
95644W        W38561  19.674  27.294  30.891 -0.0161 -0.2509 -0.1144
95645W        W38562  18.273  25.898  31.608 -0.0965  0.3149 -0.5368
95646W        W38563  15.770  25.537  29.047  0.0851  0.1022 -0.2147
95647W        W38564  21.356  29.171  31.180 -0.1353 -0.0142 -0.0445
95648W        W38565  22.155  27.939  27.372  0.2265 -0.0702  0.2368
95649W        W38566  24.023  26.753  29.659  0.0962  0.0110 -0.0961
95650W        W38567  20.652  27.349  27.472 -0.1492 -0.1363  0.2707
95651W        W38568  20.366  28.617  27.900  0.3107  0.1924 -0.1365
95652W        W38569  18.152  25.120  29.917  0.1797  0.0537  0.1826
95653W        W38570  19.657  25.871  29.508  0.1084 -0.3145 -0.3251
95654W        W38571  19.254  24.930  27.884  0.4219 -0.3132  0.1205
95655W        W38572  21.071  26.069  30.949  0.3699 -0.0052 -0.0572
95656W        W38573  21.921  29.434  28.289  0.2305  0.1375 -0.0316
95657W        W38574  22.211  29.576  28.678  0.1412 -0.1659  0.1620
95658W        W38575  19.986  25.983  29.155 -0.1569  0.6478  0.3986
95659W        W38576  17.622  25.742  28.828  0.1426  0.1868 -0.1496
95660W        W38577  21.371  28.135  30.399  0.0436  0.0372 -0.0735
95661W        W38578  18.237  24.713  28.063  0.2295 -0.1521 -0.0908
95662W        W38579  19.532  27.801  28.402 -0.4559  0.1361  0.0914
95663W        W38580  18.549  26.233  29.042  0.0649 -0.0872 -0.1025
95664W        W38581  23.309  25.865   0.049 -0.3335 -0.3407 -0.1599
95665W        W38582  21.636  25.636  28.300  0.1774 -0.0434 -0.1074
95666W        W38583  21.856  26.217  29.365  0.0273  0.1131 -0.0746
95667W        W38584  17.393  27.340  26.017 -0.0816 -0.1245 -0.2020
95668W        W38585  21.088  25.342  29.160 -0.0270  0.0767  0.2745
95669W        W38586  20.714  27.924  28.996 -0.2967  0.0797  0.0791
95670W        W38587  17.799  28.747  30.216  0.0047 -0.3065 -0.1197
95671W        W38588  17.686  27.693  27.930  0.0904  0.0982  0.0548
95672W        W38589  19.545  24.538  29.994 -0.2488  0.2129  0.2580
95673W        W38590  19.799  27.950  28.867 -0.1568 -0.0764 -0.2010
95674W        W38591  18.492  27.811  30.188 -0.1416  0.0378 -0.0175
95675W        W38592  21.348  27.771  30.787  0.0175  0.2544  0.0884
95676W        W38593  19.575  26.840  29.888  0.1682  0.3301  0.1125
95677W        W38594  18.226  28.218  29.961  0.0490  0.1309  0.0701
95678W        W38595  21.868  27.534  30.795  0.1830  0.1952 -0.4971
95679W        W38596  23.808  25.782  27.215 -0.0867  0.1451  0.1761
95680W        W38597  17.289  28.704  29.835  0.0043  0.0243 -0.0628
95681W        W38598  17.896  28.203  29.603  0.0216 -0.3132 -0.0564
95682W        W38599  21.127  27.948  31.184 -0.0309  0.0585  0.0793
95683W        W38600  20.574  28.904  29.457  0.0249 -0.2363 -0.1768
95684W        W38601  20.916  25.104  28.284  0.0689 -0.1194 -0.4030
95685W        W38602  21.213  29.160  28.421 -0.1478 -0.2520 -0.2557
95686W        W38603  20.715  28.542  29.807 -0.0572 -0.0731 -0.0254
95687W        W38604  19.465  27.313  31.369 -0.1911 -0.0588  0.0114
95688W        W38605  20.545  29.621  28.748 -0.5636  0.2546  0.1278
95689W        W38606  20.929  28.266  27.895  0.1743 -0.0622 -0.0945
95690W        W38607  21.229  25.597  27.185  0.0952  0.1923  0.1051
95691W        W38608  21.320  29.469  30.171 -0.2385 -0.0315  0.1419
95692W        W38609  17.977  26.105  27.577 -0.2607  0.0501  0.0413
95693W        W38610  19.066  28.298  29.321 -0.1929 -0.0184 -0.0575
95694W        W38611  18.515  27.124  28.143 -0.0201 -0.1000 -0.3275
95695W        W38612  20.235  29.403  27.279  0.0490 -0.1835  0.2170
95696W        W38613  19.188  29.672  28.015  0.2543  0.0252  0.2809
95697W        W38614  22.959  26.483  30.405  0.1023  0.1754  0.1023
95698W        W38615  23.786  26.680  27.015 -0.0232  0.0954 -0.2457
95699W        W38616  20.514  25.202  27.938  0.1993 -0.2853  0.0756
95700W        W38617  22.155  25.821  29.495 -0.0454 -0.2910 -0.3081
95701W        W38618  23.143  26.678  30.837  0.0609 -0.0228  0.4327
95702W        W38619  18.998  24.819  26.923  0.1135 -0.1662 -0.0865
95703W        W38620  19.018  25.392  26.900  0.2414  0.1299 -0.1935
95704W        W38621  20.324  26.476  30.719  0.0865 -0.2704 -0.1134
95705W        W38622  21.246  27.035  29.098  0.0113  0.1556 -0.0517
95706W        W38623  19.540  30.761  28.853 -0.0066  0.1335  0.0697
95707W        W38624  21.947  31.059  25.829  0.1715 -0.0886 -0.1438
95708W        W38625  16.753  26.562  27.841 -0.0631  0.1014  0.1763
95709W        W38626  17.734  27.446  30.383 -0.2991 -0.1079  0.3108
95710W        W38627  22.522  24.348   1.176 -0.0781  0.2357  0.1134
95711W        W38628  20.992  26.153  26.601  0.1174 -0.2617 -0.1926
95712W        W38629  19.551  26.626  28.882 -0.1194 -0.0859  0.1006
95713W        W38630  18.438  29.780  28.783  0.1622  0.1166 -0.0088
95714W        W38631  19.364  29.336  29.269  0.1402  0.2431 -0.3119
95715W        W38632  19.243  28.739  29.171  0.4622  0.0381  0.1663
95716W        W38633  17.177  24.982  27.114  0.0667 -0.2945  0.1240
95717W        W38634  22.127  27.827  30.125  0.0000 -0.1008  0.1310
95718W        W38635  18.355  25.755  29.948  0.1406  0.1303  0.2232
95719W        W38636  21.625  26.669  29.267 -0.0811 -0.2370 -0.0504
95720W        W38637  19.941  27.137  30.068  0.0683  0.2313  0.1649
95721W        W38638  19.986  25.066  28.882  0.1400 -0.0738 -0.3042
95722W        W38639  19.581  28.324  29.184 -0.2686 -0.0680 -0.3257
95723W        W38640  17.449  29.104  29.569  0.1078  0.0034 -0.2505
95724W        W38641  19.718  27.203  27.805  0.1127 -0.1657  0.0604
95725W        W38642  22.120  25.897  31.657 -0.3032 -0.2457 -0.2138
95726W        W38643  22.561  25.459  27.084 -0.2929  0.0406 -0.0126
95727W        W38644  21.323  27.389  31.190  0.0691 -0.0793 -0.3273
95728W        W38645  18.465  27.875  29.690 -0.1897  0.2740  0.0584
95729W        W38646  20.011  25.594  27.598 -0.1544  0.0476  0.0523
95730W        W38647  18.617  25.696  28.832 -0.3177 -0.2506  0.1124
95731W        W38648  20.057  27.963  30.775  0.0531 -0.0962  0.0249
95732W        W38649  23.361  26.689  31.499  0.0155  0.4465  0.0112
95733W        W38650  18.793  24.696  30.477  0.0999 -0.0978 -0.0737
95734W        W38651  21.633  31.522  27.987  0.1435 -0.3531  0.4627
95735W        W38652  21.885  27.565  29.321  0.0137  0.0100  0.0633
95736W        W38653  20.734  29.991  26.999 -0.2293 -0.0684  0.0385
95737W        W38654  21.226  28.683  28.574  0.3663 -0.2781 -0.3203
95738W        W38655  20.807  30.717  28.749  0.3451 -0.1191  0.0397
95739W        W38656  18.661  27.203  29.493 -0.4190  0.0405 -0.1187
95740W        W38657  21.781  27.925  27.966  0.0487 -0.0003 -0.2846
95741W        W38658  21.254  26.965  28.209  0.1650  0.1325 -0.0655
95742W        W38659  19.765  24.762  26.699 -0.0258 -0.0967 -0.0282
95743W        W38660  19.585  26.398  27.679  0.0215 -0.0349 -0.0464
95744W        W38661  17.557  28.347  30.479 -0.2957 -0.0578  0.0497
95745W        W38662  22.797  27.511  30.648  0.1631 -0.0056  0.0775
95746W        W38663  20.303  25.797  30.556 -0.1015 -0.0225 -0.0063
95747W        W38664  21.796  30.116  25.202 -0.3960  0.0605  0.1991
95748W        W38665  21.268  23.859  29.005 -0.0560 -0.1005  0.0397
95749W        W38666  20.830  27.145  29.520  0.3224  0.0109  0.2200
95750W        W38667  20.088  28.848   0.004  0.0595 -0.2731  0.1571
95751W        W38668  17.457  27.831  29.695  0.0730 -0.0861 -0.0049
95752W        W38669  19.491  27.592  29.254 -0.1426 -0.2478  0.1064
95753W        W38670  19.916  25.497  29.212 -0.1847  0.0237  0.0695
95754W        W38671  20.175  27.415  27.599 -0.1908 -0.0407  0.2599
95755W        W38672  20.289  28.087  28.904 -0.0690 -0.0219  0.1772
95756W        W38673  20.423  28.174  27.522 -0.1335 -0.0572  0.2288
95757W        W38674  22.405  29.676  28.193 -0.1429  0.3206  0.1683
95758W        W38675  18.205  27.441  28.429  0.2151 -0.4031 -0.1088
95759W        W38676  20.032  25.003  27.300 -0.0302  0.0469  0.0344
95760W        W38677  21.517  23.368  27.022  0.1225 -0.0862  0.4617
95761W        W38678  20.565  27.306  31.137  0.3537  0.1875  0.1196
95762W        W38679  18.994  25.993  28.676 -0.2114 -0.3606 -0.1765
95763W        W38680  19.924  27.644  27.999  0.0751  0.0523 -0.1746
95764W        W38681  19.325  27.494  30.490  0.0410 -0.1296  0.0204
95765W        W38682  20.433  23.379  31.291  0.1473  0.3673  0.0497
95766W        W38683  19.741  27.753  31.152 -0.0305  0.0900 -0.2758
95767W        W38684  17.705  29.453  28.014 -0.0499  0.3163  0.0721
95768W        W38685  17.625  25.198  29.841  0.1524 -0.1383  0.1929
95769W        W38686  21.583  30.216  26.088 -0.3561 -0.0555  0.0719
95770W        W38687  20.457  26.816  29.441 -0.2297 -0.0777  0.3189
95771W        W38688  17.621  24.853  28.549 -0.0980 -0.0297 -0.0600
95772W        W38689  20.098  29.035  27.940  0.0279  0.0713 -0.2338
95773W        W38690  20.150  31.427  28.542  0.3705  0.0050  0.3130
95774W        W38691  18.789  24.877  28.145  0.1523  0.0528  0.1888
95775W        W38692  20.257  28.435  31.048 -0.2535 -0.0316  0.0225
95776W        W38693  17.967  28.684  28.260  0.2142  0.0288 -0.1821
95777W        W38694  20.644  26.215  29.371  0.0169  0.0560 -0.0456
95778W        W38695  17.697  23.384  28.803 -0.1703  0.2559 -0.0147
95779W        W38696  15.678  22.806  25.906 -0.0361 -0.2472 -0.5725
95780W        W38697  21.023  27.615  29.211 -0.3016 -0.2054  0.0818
95781W        W38698  21.219  28.695  28.061  0.0682 -0.2842 -0.2470
95782W        W38699  20.653  29.543  26.061 -0.1961 -0.1568 -0.0940
95783W        W38700  19.425  25.835  31.702 -0.1084  0.1325 -0.0602
95784W        W38701  20.328  28.629   1.350 -0.1963 -0.1832 -0.0899
95785W        W38702  16.936  25.303  29.648 -0.0023  0.1932  0.2616
95786W        W38703  19.356  25.466  29.436 -0.1549 -0.0682 -0.1104
95787W        W38704  19.548  28.084  30.426  0.3311 -0.0930 -0.1304
95788W        W38705  21.501  29.585  26.616  0.0923 -0.2106  0.0853
95789W        W38706  20.163  28.129  29.416 -0.1926 -0.3161 -0.1282
95790W        W38707  20.829  28.536  26.798  0.0828  0.2585  0.4150
95791W        W38708  19.193  25.934  30.466  0.0256 -0.0997  0.1863
95792W        W38709  19.292  26.966  30.924 -0.0339  0.2347 -0.1641
95793W        W38710  20.168  29.084  31.203  0.1324  0.0632 -0.0770
95794W        W38711  18.755  25.312  28.500  0.0691  0.1574 -0.0999
95795W        W38712  18.933  25.735  29.333  0.4934  0.2250 -0.0104
95796W        W38713  20.655  28.285  29.390  0.0611  0.3297  0.0165
95797W        W38714  16.752  27.280  29.287  0.1662 -0.0216 -0.1601
95798W        W38715  20.154  26.305  28.255  0.1821 -0.0418 -0.3131
95799W        W38716  19.109  26.979  30.370 -0.0664 -0.0903 -0.5645
95800W        W38717  21.298  30.598  27.552 -0.0682  0.3035  0.0806
95801W        W38718  22.569  26.561  30.767 -0.0408 -0.0383 -0.2043
95802W        W38719  19.019  25.820  27.293 -0.2572  0.3536  0.1464
95803W        W38720  21.169  27.426  27.487 -0.0290 -0.1418  0.1911
95804W        W38721  19.874  29.346  30.405  0.2885 -0.0705 -0.1488
95805W        W38722  21.199  27.547  30.221  0.1617 -0.0853  0.1720
95806W        W38723  22.613  27.970  31.885 -0.1005 -0.0326  0.0831
95807W        W38724  21.392  26.836  28.618 -0.0857  0.2351 -0.0475
95808W        W38725  18.612  25.457  27.388 -0.2624 -0.1112  0.1465
95809W        W38726  17.923  28.006  27.669  0.4669  0.4119 -0.0671
95810W        W38727  17.439  25.637  29.606 -0.2947 -0.2756  0.0469
95811W        W38728  21.566  26.448  28.811 -0.4392 -0.0716 -0.1797
95812W        W38729  18.852  28.752  30.166 -0.1581  0.2828 -0.0243
95813W        W38730  20.779  23.805  28.142  0.0968 -0.1427 -0.1001
95814W        W38731  22.486  29.918  29.749 -0.0630 -0.1023 -0.3848
95815W        W38732  20.920  26.126  27.951 -0.0161  0.1502  0.1515
95816W        W38733  21.294  25.710  30.712  0.2105 -0.0645  0.0778
95817W        W38734  22.782  25.658  30.509  0.1072 -0.1181  0.2769
95818W        W38735  17.954  27.878  30.235  0.2151 -0.2001 -0.0974
95819W        W38736  17.017  27.054  28.877  0.1308  0.1818 -0.2600
95820W        W38737  19.834  28.570  30.397  0.1460  0.0010  0.4915
95821W        W38738  19.505  28.673   0.572 -0.0569  0.2861  0.3151
95822W        W38739  20.009  27.662  31.672  0.3860  0.2976  0.3028
95823W        W38740  17.477  24.093  29.238 -0.0775 -0.0475  0.3176
95824W        W38741  21.848  24.890  31.639 -0.0157 -0.1344 -0.1072
95825W        W38742  22.861  27.580   2.686  0.0114  0.1021 -0.2495
95826W        W38743  20.064  26.665  29.878  0.0077  0.5357 -0.4013
95827W        W38744  17.898  25.523  29.214 -0.0368  0.1870 -0.0250
95828W        W38745  22.740  27.842   1.546  0.0984  0.1931 -0.3936
95829W        W38746  20.913  27.521  30.937 -0.0772  0.2999  0.1560
95830W        W38747  21.704  27.156  30.167  0.1777  0.3456 -0.4719
95831W        W38748  18.991  28.115  31.815 -0.1056 -0.2139  0.1181
95832W        W38749  19.313  31.437   0.138 -0.1083 -0.0739 -0.3350
95833W        W38750  20.409  28.483  30.406 -0.5034 -0.1937  0.0866
95834W        W38751  18.275  25.825  30.903 -0.2467 -0.0847  0.1089
95835W        W38752  17.066  24.036  31.418  0.1375 -0.0581  0.1338
95836W        W38753  19.315  25.070  31.671  0.1387  0.3177 -0.1714
95837W        W38754  19.019  27.281   0.530 -0.0978  0.0464  0.2141
95838W        W38755  20.937  27.151  31.533  0.0969  0.0369  0.0804
95839W        W38756  22.233  25.616  31.170  0.0853  0.0729 -0.3269
95840W        W38757  21.335  26.489  30.978  0.2023 -0.1664  0.0569
95841W        W38758  20.526  27.895   0.818  0.1270  0.0335  0.2046
95842W        W38759  19.925  25.997  31.901  0.3697  0.3697 -0.0618
95843W        W38760  17.463  28.011   1.192  0.1643 -0.1312 -0.2867
95844W        W38761  17.980  26.582   1.144 -0.1427  0.0706  0.2220
95845W        W38762  21.338  27.372   0.317  0.3072  0.2519  0.0731
95846W        W38763  18.817  27.974  30.925 -0.0867  0.2534 -0.0180
95847W        W38764  20.067  25.273  31.944 -0.0556  0.2945 -0.1295
95848W        W38765  19.186  26.235  31.519 -0.0427  0.0456 -0.0604
95849W        W38766  21.427  25.997   1.116  0.0058 -0.3172 -0.0580
95850W        W38767  18.682  25.996  30.656 -0.2176 -0.2002 -0.0233
95851W        W38768  20.699  25.706  31.383  0.2045 -0.0098 -0.4858
95852W        W38769  21.278  26.503  30.048 -0.2636 -0.0193 -0.0809
95853W        W38770  22.639  28.252  30.608 -0.1997 -0.0232  0.0327
95854W        W38771  20.282  25.356  31.435  0.0660  0.0045 -0.1339
95855W        W38772  19.472  27.293   0.243 -0.0481 -0.0114 -0.0677
95856W        W38773  20.763  25.193  31.359 -0.0189 -0.0911 -0.1000
95857W        W38774  19.731  26.306   0.257  0.0882 -0.0840  0.1530
95858W        W38775  18.568  26.765  29.762  0.0193  0.0989  0.0594
95859W        W38776  20.834  28.191  30.305  0.0222  0.4927 -0.3276
95860W        W38777  19.580  26.036  30.891 -0.2603 -0.0605  0.0663
95861W        W38778  19.335  26.683  29.451 -0.0837  0.2210  0.1327
95862W        W38779  19.080  24.970  30.177 -0.0081  0.0470  0.3186
95863W        W38780  21.746  28.733  30.859 -0.2948  0.0110  0.0092
95864W        W38781  22.658  28.456  31.184  0.1677 -0.3521  0.0903
95865W        W38782  19.413  29.513  31.277  0.0114 -0.0430 -0.1763
95866W        W38783  20.858  29.743   1.446 -0.2299  0.0690  0.0588
95867W        W38784  19.203  24.717  30.887  0.1702  0.1019 -0.3746
95868W        W38785  19.037  26.274  29.681 -0.5267 -0.1313 -0.0419
95869W        W38786  20.303  26.914  31.004 -0.0560  0.4746 -0.0149
95870W        W38787  19.936  26.676   0.525 -0.2056  0.2435  0.4632
95871W        W38788  19.839  26.795  29.444  0.0034 -0.3005  0.1260
95872W        W38789  19.341  29.066  31.524  0.0153 -0.0288  0.0268
95873W        W38790  20.487  27.751  31.806 -0.0181 -0.1779 -0.0220
95874W        W38791  21.967  26.185   0.118  0.0330  0.0294 -0.1255
95875W        W38792  19.965  27.656   0.201 -0.0664 -0.0058 -0.0942
95876W        W38793  18.955  27.186  31.319  0.1944  0.0714 -0.1046
95877W        W38794  20.394  27.448   0.317  0.1008 -0.3312 -0.2105
95878W        W38795  21.312  28.307  30.925  0.3202  0.0275 -0.0589
95879W        W38796  18.159  25.606  30.415 -0.0904  0.1571  0.2773
95880W        W38797  21.009  26.604  31.347 -0.2150  0.0206  0.1223
95881W        W38798  22.548  26.133  30.349  0.0650  0.3319  0.1026
95882W        W38799  23.775  28.088   0.754 -0.0818 -0.1776  0.0649
95883W        W38800  18.239  31.396  19.439  0.2120  0.0982 -0.3203
95884W        W38801  17.499  29.833  18.019 -0.1283 -0.0938 -0.0706
95885W        W38802  22.403  30.055  16.325  0.0229 -0.1368  0.3318
95886W        W38803  18.491  31.112  17.646  0.3253  0.0959 -0.3762
95887W        W38804  18.318  32.322  16.573 -0.0409  0.1544 -0.0393
95888W        W38805  20.185  32.053  18.780 -0.1131  0.3656  0.2865
95889W        W38806  17.593  27.630  19.603 -0.0800  0.0129 -0.0729
95890W        W38807  21.175  31.132  19.230 -0.0641  0.0744  0.1929
95891W        W38808  19.971  31.354  18.161  0.2317 -0.2726 -0.1906
95892W        W38809  20.471  32.435  16.859  0.0135 -0.2240 -0.1442
95893W        W38810  20.467  31.320  18.190  0.1290  0.1006  0.1535
95894W        W38811  20.027  32.090  20.192  0.6893 -0.1965  0.0644
95895W        W38812  18.334  30.856  16.120  0.0970 -0.0939  0.0045
95896W        W38813  17.452  29.056  17.661 -0.2424  0.0823 -0.2807
95897W        W38814  20.773  29.282  17.731  0.1826  0.0093 -0.3191
95898W        W38815  17.743  32.451  18.651  0.4151  0.0622  0.1748
95899W        W38816  17.488  30.059  19.543  0.1254  0.2346 -0.2154
95900W        W38817  20.747  32.168  17.179  0.0383 -0.1680  0.1102
95901W        W38818  18.125  34.023  17.342  0.1280 -0.0933  0.1639
95902W        W38819  17.574  29.049  18.638  0.4004  0.0313 -0.1748
95903W        W38820  18.567  28.229  19.321 -0.0011 -0.0670  0.0888
95904W        W38821  19.454  31.532  17.544 -0.0341  0.2754 -0.0214
95905W        W38822  18.213  32.083  17.000 -0.0227 -0.1038  0.1899
95906W        W38823  19.591  34.586  18.345 -0.0754 -0.2729  0.2185
95907W        W38824  17.968  29.915  20.874  0.1294  0.2093 -0.0558
95908W        W38825  17.229  29.183  19.078 -0.1626 -0.0494 -0.0832
95909W        W38826  20.886  30.483  18.000 -0.0894  0.3164 -0.1391
95910W        W38827  19.624  32.803  18.392  0.2645  0.1095  0.1568
95911W        W38828  20.747  32.048  18.808 -0.1512  0.1561  0.0126
95912W        W38829  19.715  31.661  20.876 -0.1311  0.2454  0.0448
95913W        W38830  18.509  31.833  19.286 -0.2011 -0.1107 -0.2092
95914W        W38831  19.131  32.425  17.663 -0.1012  0.3251 -0.1035
95915W        W38832  19.369  33.195  17.946  0.4325 -0.1382  0.0374
95916W        W38833  19.583  32.965  19.344 -0.0799 -0.0314  0.1925
95917W        W38834  19.721  33.042  18.786  0.4224 -0.2366  0.0795
95918W        W38835  18.062  32.961  18.523 -0.0155  0.0522 -0.0249
95919W        W38836  18.434  32.312  18.069 -0.0913  0.2255  0.2613
95920W        W38837  18.729  32.387  19.463  0.0171  0.1060  0.1899
95921W        W38838  18.341  33.489  21.289  0.2973 -0.0875  0.0480
95922W        W38839  18.763  30.355  19.300  0.2550  0.3222  0.2778
95923W        W38840  21.249  31.169  18.072 -0.0481  0.2192  0.0585
95924W        W38841  18.521  31.344  17.200 -0.1202  0.0146  0.1576
95925W        W38842  18.566  32.141  21.124 -0.1280 -0.0347  0.0114
95926W        W38843  17.949  32.580  21.398 -0.3240 -0.3156 -0.2108
95927W        W38844  20.685  31.640  20.829 -0.1797 -0.1159 -0.1213
95928W        W38845  21.933  30.004  19.857 -0.1944  0.1519  0.2359
95929W        W38846  19.078  31.198  18.224  0.0270 -0.3060  0.2163
95930W        W38847  19.059  31.645  16.535  0.0157  0.2036  0.0276
95931W        W38848  16.667  30.715  17.232  0.1077 -0.2270 -0.1007
95932W        W38849  21.140  29.131  16.514 -0.1267 -0.0759  0.1200
95933W        W38850  20.638  27.956  17.496 -0.0984  0.3801 -0.2240
95934W        W38851  19.286  34.336  20.623 -0.0344  0.1396  0.0516
95935W        W38852  20.204  30.103  17.936  0.2702 -0.0744  0.1329
95936W        W38853  21.611  31.607  17.965 -0.2862 -0.0580 -0.0738
95937W        W38854  20.470  32.435  18.861  0.1057 -0.0039 -0.0382
95938W        W38855  18.608  29.918  18.917  0.0050 -0.2392 -0.1989
95939W        W38856  18.619  32.632  17.632 -0.2125  0.3645 -0.1275
95940W        W38857  17.725  29.826  19.912  0.0911 -0.0273 -0.1635
95941W        W38858  20.520  32.907  18.981 -0.1320 -0.3845  0.1483
95942W        W38859  21.926  30.601  18.897 -0.1021 -0.1170 -0.3188
95943W        W38860  21.317  32.357  16.459 -0.2528 -0.2714  0.2194
95944W        W38861  18.479  31.682  17.586  0.1535 -0.1605 -0.0496
95945W        W38862  16.938  31.996  20.588  0.1383 -0.1986 -0.0852
95946W        W38863  17.645  28.803  19.165 -0.0570  0.0053 -0.0825
95947W        W38864  18.459  28.900  17.053 -0.1781 -0.1514  0.0878
95948W        W38865  21.036  31.284  19.716 -0.1373  0.1038  0.0667
95949W        W38866  18.570  32.538  18.806 -0.1721 -0.0912 -0.4196
95950W        W38867  20.377  28.625  17.699 -0.1041  0.1874  0.0335
95951W        W38868  18.948  31.155  16.889  0.0111 -0.2626 -0.1007
95952W        W38869  19.716  31.128  20.197  0.1839  0.0095  0.1147
95953W        W38870  19.238  30.914  17.195 -0.2254 -0.0404  0.2438
95954W        W38871  19.387  29.840  18.421  0.2314 -0.0081 -0.0726
95955W        W38872  19.945  29.381  18.011 -0.1086  0.1653  0.1349
95956W        W38873  18.112  30.417  17.827 -0.0135  0.2200  0.0179
95957W        W38874  21.008  31.400  17.533  0.0069  0.2893  0.0811
95958W        W38875  21.267  31.935  18.733  0.1155  0.1265 -0.0522
95959W        W38876  20.714  29.908  16.434  0.0666  0.2212  0.0663
95960W        W38877  19.233  33.045  18.882  0.1166 -0.0214  0.4159
95961W        W38878  17.837  31.320  19.075  0.0282  0.0251 -0.0421
95962W        W38879  16.689  32.000  19.447  0.1832  0.0054  0.0833
95963W        W38880  19.945  33.086  16.774  0.2119  0.1354 -0.1143
95964W        W38881  17.105  32.143  17.043 -0.0556  0.0885  0.1010
95965W        W38882  18.852  32.053  17.868 -0.1203  0.0532  0.1561
95966W        W38883  19.808  28.276  18.809  0.0855  0.0243  0.0942
95967W        W38884  16.612  34.253  16.894 -0.1819 -0.2081  0.4037
95968W        W38885  20.583  28.940  17.409  0.1131 -0.0441  0.1815
95969W        W38886  16.812  29.321  19.357 -0.1214  0.0347  0.0720
95970W        W38887  19.055  27.923  18.264  0.0739 -0.0410 -0.2461
95971W        W38888  18.051  32.313  17.471  0.1822 -0.2544 -0.2432
95972W        W38889  22.210  33.358  19.307  0.3464 -0.0031 -0.2479
95973W        W38890  19.861  30.303  16.758 -0.0705  0.0597 -0.3011
95974W        W38891  20.014  31.668  16.276 -0.1773 -0.0664  0.2574
95975W        W38892  19.047  30.316  18.194 -0.2023 -0.3650  0.1355
95976W        W38893  18.479  29.946  17.012  0.1030  0.2878  0.0712
95977W        W38894  18.079  28.660  18.626 -0.2456  0.1839  0.2190
95978W        W38895  18.651  28.934  19.368 -0.1667  0.0511 -0.2942
95979W        W38896  20.803  30.849  16.979 -0.3912 -0.1478 -0.0057
95980W        W38897  16.175  28.878  18.377 -0.0249  0.2797  0.1196
95981W        W38898  21.753  30.331  17.916  0.0686  0.2550  0.0497
95982W        W38899  19.682  30.239  16.314 -0.3404  0.4258 -0.1242
95983W        W38900  17.486  31.251  16.566 -0.4730  0.0309  0.0879
95984W        W38901  20.545  29.828  19.814  0.0956 -0.0558 -0.4485
95985W        W38902  20.718  33.499  16.669  0.0929  0.2867 -0.0145
95986W        W38903  21.235  31.667  20.891  0.2863  0.0283  0.2615
95987W        W38904  19.547  32.476  19.155  0.4839 -0.1374  0.0488
95988W        W38905  18.719  29.498  19.146 -0.1224 -0.2796  0.2588
95989W        W38906  18.621  29.424  17.049  0.3757 -0.0145 -0.1462
95990W        W38907  19.791  32.098  21.104  0.0103  0.0724 -0.0579
95991W        W38908  20.574  31.442  18.768 -0.0201  0.1874 -0.2752
95992W        W38909  18.473  30.911  16.823  0.1123 -0.3143  0.0177
95993W        W38910  21.404  31.941  18.273 -0.2692  0.1307  0.1611
95994W        W38911  20.959  32.520  16.779 -0.5905  0.2509  0.1295
95995W        W38912  18.256  32.318  19.160  0.0024 -0.0634 -0.4022
95996W        W38913  19.869  31.013  20.778  0.1118  0.1365  0.1325
95997W        W38914  20.808  30.826  19.581 -0.1463  0.0669  0.2854
95998W        W38915  20.819  31.050  17.843 -0.1002 -0.0751  0.2001
95999W        W38916  19.162  28.739  15.860 -0.4056 -0.0332 -0.3683
96000W        W38917  21.336  32.480  17.370  0.4247  0.2137 -0.0185
96001W        W38918  17.332  33.283  16.268 -0.2077 -0.1799 -0.3073
96002W        W38919  17.663  32.035  17.665 -0.1640  0.0524  0.1106
96003W        W38920  18.985  31.460  17.382 -0.1458 -0.1573  0.3757
96004W        W38921  18.265  31.445  17.966 -0.0352 -0.0775  0.2119
96005W        W38922  17.379  31.616  19.929 -0.0828  0.1679 -0.0695
96006W        W38923  21.895  30.882  20.597  0.2184  0.1373 -0.0807
96007W        W38924  19.038  32.892  17.701  0.0121  0.0599 -0.3189
96008W        W38925  17.470  32.749  22.071  0.0131  0.3070  0.1330
96009W        W38926  18.955  29.369  17.909 -0.0036 -0.1111  0.2139
96010W        W38927  21.067  28.538  18.765  0.2367 -0.0772 -0.1870
96011W        W38928  19.862  30.851  18.228 -0.3451  0.2566 -0.1378
96012W        W38929  23.486  32.007  17.260 -0.0412  0.0398 -0.3476
96013W        W38930  20.341  30.510  16.804 -0.0284 -0.3430  0.1082
96014W        W38931  18.017  29.100  15.877  0.0472  0.0522 -0.0083
96015W        W38932  18.837  30.737  18.252  0.2135  0.3604 -0.0022
96016W        W38933  19.966  32.174  18.198  0.2496  0.0433 -0.2653
96017W        W38934  18.487  31.824  18.152 -0.0260  0.0853 -0.0409
96018W        W38935  19.140  31.037  17.747  0.1943 -0.0060 -0.1615
96019W        W38936  21.581  33.813  17.153  0.2003  0.2260  0.0128
96020W        W38937  20.170  31.109  18.644 -0.0060 -0.3231 -0.2222
96021W        W38938  19.676  31.766  18.895 -0.0627  0.0674 -0.2234
96022W        W38939  21.330  33.009  20.309 -0.2192  0.0595 -0.2971
96023W        W38940  19.369  30.728  18.082  0.0223  0.2761 -0.1225
96024W        W38941  18.739  33.049  17.288  0.1433  0.0911  0.1402
96025W        W38942  19.446  29.529  17.701 -0.1146  0.3028 -0.4588
96026W        W38943  17.364  32.586  16.849  0.0641  0.2718 -0.1805
96027W        W38944  19.473  29.685  17.228  0.0396  0.3837  0.2398
96028W        W38945  19.938  30.584  19.164  0.1732 -0.2699 -0.2472
96029W        W38946  20.786  29.283  18.440  0.1270  0.1257  0.1256
96030W        W38947  19.522  31.435  21.743 -0.1501  0.2138 -0.1734
96031W        W38948  18.807  29.686  17.548 -0.2126 -0.1351  0.4598
96032W        W38949  21.821  30.779  17.202 -0.1392  0.0889  0.1647
96033W        W38950  17.964  32.419  15.775  0.0312  0.3760 -0.2441
96034W        W38951  18.231  31.615  18.537  0.5584 -0.2162 -0.0452
96035W        W38952  18.974  30.699  19.800  0.0611  0.1254 -0.3060
96036W        W38953  18.355  32.818  19.399 -0.0045 -0.0628 -0.0067
96037W        W38954  20.576  30.351  17.195 -0.0194 -0.1812 -0.0328
96038W        W38955  21.485  32.846  16.572 -0.0659 -0.1243 -0.0620
96039W        W38956  18.817  31.003  21.790  0.0800  0.0586  0.1445
96040W        W38957  20.359  29.953  16.813  0.2969 -0.1353  0.3709
96041W        W38958  19.461  32.682  17.932  0.0219 -0.1705  0.0009
96042W        W38959  20.752  31.353  16.787 -0.0565 -0.1104  0.2392
96043W        W38960  17.263  27.906  19.909 -0.1429 -0.1036 -0.0120
96044W        W38961  19.968  32.842  19.604 -0.1069  0.1356 -0.1775
96045W        W38962  19.529  32.785  16.965  0.0331  0.1655 -0.2821
96046W        W38963  20.597  32.154  20.187 -0.1853  0.1040 -0.1894
96047W        W38964  18.615  31.928  16.585  0.1119  0.1196 -0.2505
96048W        W38965  20.413  29.070  17.965  0.1653 -0.0874 -0.2669
96049W        W38966  19.933  32.110  19.240 -0.3818  0.0866  0.2230
96050W        W38967  18.907  30.674  16.781  0.1721 -0.1889 -0.2521
96051W        W38968  17.007  30.430  16.630  0.1925  0.0043 -0.1299
96052W        W38969  18.685  29.761  18.057 -0.0561 -0.0867  0.0243
96053W        W38970  21.304  31.316  16.694  0.1194  0.0872 -0.1754
96054W        W38971  18.840  28.905  17.357 -0.0851 -0.3014 -0.2186
96055W        W38972  19.290  30.251  19.857  0.0911 -0.0212  0.4831
96056W        W38973  17.051  30.845  18.445 -0.0643  0.0663 -0.0516
96057W        W38974  20.227  31.858  17.507 -0.2417 -0.1043 -0.1931
96058W        W38975  22.308  30.064  17.711  0.1784  0.0785 -0.2419
96059W        W38976  19.611  31.308  18.536  0.2535 -0.0623  0.2492
96060W        W38977  17.880  31.937  20.568  0.0066 -0.1313  0.1798
96061W        W38978  17.403  29.359  18.123 -0.2550 -0.0676 -0.0030
96062W        W38979  22.338  29.876  20.593 -0.2878  0.3425  0.1004
96063W        W38980  20.742  30.030  17.790 -0.0530  0.0018  0.1572
96064W        W38981  19.140  32.548  18.620  0.3178 -0.0346 -0.3588
96065W        W38982  20.129  31.568  18.995  0.0872  0.2195  0.1579
96066W        W38983  19.683  30.739  16.397 -0.1920 -0.0642 -0.1887
96067W        W38984  17.593  31.276  18.124  0.2813 -0.1529 -0.3020
96068W        W38985  18.767  30.225  19.749  0.0514 -0.0438  0.0679
96069W        W38986  20.659  31.213  21.607 -0.2463  0.2420 -0.3308
96070W        W38987  19.988  30.523  17.814  0.0102 -0.2541  0.0130
96071W        W38988  18.026  29.966  19.458 -0.0106 -0.0359  0.3003
96072W        W38989  21.614  31.280  17.136  0.0803 -0.1912 -0.1948
96073W        W38990  22.027  32.740  18.061  0.1736  0.1530  0.2213
96074W        W38991  20.108  29.438  22.081  0.1240 -0.0905 -0.0128
96075W        W38992  19.062  32.337  20.847 -0.3693 -0.0968 -0.0399
96076W        W38993  20.552  28.622  18.222  0.1112  0.2369 -0.0687
96077W        W38994  20.358  32.325  17.862  0.0581 -0.0906  0.1856
96078W        W38995  18.610  30.604  17.761  0.0595 -0.2935 -0.1337
96079W        W38996  19.753  31.914  17.269 -0.0703 -0.1388  0.1147
96080W        W38997  17.192  30.674  18.876 -0.0311 -0.0123 -0.0998
96081W        W38998  19.263  32.025  18.672 -0.2678  0.1792 -0.0539
96082W        W38999  19.381  29.176  18.657  0.1940 -0.4226 -0.3467
96083W        W39000  19.401  32.290  17.083 -0.1754  0.0992  0.0225
96084W        W39001  19.749  33.490  18.989  0.0828  0.4115 -0.0571
96085W        W39002  16.779  31.721  18.289  0.0417  0.0606 -0.0108
96086W        W39003  21.248  30.306  16.853 -0.0893  0.2751 -0.1285
96087W        W39004  21.648  32.463  16.861  0.1761 -0.0795 -0.0699
96088W        W39005  19.620  30.956  17.691 -0.1210 -0.3374  0.1718
96089W        W39006  21.047  30.671  17.453 -0.3884  0.2606  0.0989
96090W        W39007  21.378  29.235  16.957 -0.0561 -0.0620  0.1424
96091W        W39008  20.008  30.724  20.041  0.0146 -0.0904 -0.2410
96092W        W39009  16.559  29.429  20.243  0.0872 -0.0002  0.3860
96093W        W39010  22.780  30.896  17.314  0.1807 -0.2532  0.0301
96094W        W39011  17.474  32.593  19.598  0.0114 -0.0384 -0.0981
96095W        W39012  20.204  34.473  19.886 -0.0607 -0.0006  0.0748
96096W        W39013  15.586  29.051  19.166 -0.0712 -0.0347 -0.3312
96097W        W39014  18.870  31.443  17.862  0.1376  0.0962 -0.0396
96098W        W39015  18.576  27.910  17.600  0.2416 -0.0627 -0.2692
96099W        W39016  18.670  31.461  19.702 -0.2160  0.0212 -0.1334
96100W        W39017  19.748  31.221  21.236 -0.0117  0.0502 -0.2584
96101W        W39018  19.875  31.220  16.400  0.1087 -0.1574 -0.1312
96102W        W39019  20.140  30.984  17.811  0.0140 -0.1818  0.0029
96103W        W39020  17.396  32.336  17.895  0.0345  0.0297 -0.0812
96104W        W39021  22.563  30.348  19.000  0.0382 -0.0029  0.1520
96105W        W39022  19.611  33.812  17.090  0.1027 -0.1563  0.1957
96106W        W39023  19.927  32.239  17.696 -0.0191  0.2220  0.2723
96107W        W39024  17.411  30.390  19.898  0.2349 -0.1295  0.3345
96108W        W39025  20.536  30.501  17.665 -0.2801  0.1431 -0.1671
96109W        W39026  19.623  30.097  19.397  0.1055 -0.1074  0.0057
96110W        W39027  19.124  29.962  19.449  0.3615  0.1261 -0.1865
96111W        W39028  20.100  30.523  18.681  0.1217 -0.1298 -0.2362
96112W        W39029  19.970  29.517  19.904 -0.0217  0.2750 -0.2736
96113W        W39030  18.117  29.467  19.903 -0.2754  0.1335 -0.0894
96114W        W39031  21.008  32.846  19.767 -0.4074  0.2022 -0.1989
96115W        W39032  23.120  31.015  16.984  0.0092  0.0201  0.0023
96116W        W39033  22.088  29.126  17.746 -0.0635  0.3193  0.0875
96117W        W39034  23.305  29.593  17.101  0.0746  0.3160 -0.1830
96118W        W39035  18.790  31.684  16.993  0.0247  0.2054 -0.0290
96119W        W39036  17.993  30.935  18.775 -0.2691 -0.1855  0.0781
96120W        W39037  18.474  30.726  19.128  0.0997  0.3296  0.0556
96121W        W39038  18.815  32.201  17.050  0.0583 -0.3903  0.5435
96122W        W39039  18.760  29.777  21.130 -0.1192  0.0795  0.2025
96123W        W39040  19.621  32.652  17.430  0.1102  0.1645 -0.1499
96124W        W39041  20.940  33.195  19.209 -0.1625 -0.1083  0.0470
96125W        W39042  21.632  29.228  17.829  0.3304 -0.0117 -0.0609
96126W        W39043  19.707  30.195  18.775 -0.0553 -0.0520 -0.3104
96127W        W39044  17.598  32.898  20.401 -0.2262  0.0141  0.0839
96128W        W39045  18.573  29.772  16.059  0.0466 -0.2261  0.1342
96129W        W39046  20.284  29.467  17.185  0.0183  0.2488 -0.0631
96130W        W39047  19.754  30.511  19.684 -0.0050  0.0575  0.1897
96131W        W39048  19.941  30.982  21.902 -0.0935  0.0613 -0.0513
96132W        W39049  18.256  31.612  16.842 -0.1340 -0.3178  0.0707
96133W        W39050  20.251  29.234  19.232  0.0106  0.0912  0.1388
96134W        W39051  18.024  31.786  17.366  0.0743 -0.2039  0.0010
96135W        W39052  19.633  28.432  18.384 -0.0001  0.0787 -0.0662
96136W        W39053  18.227  32.941  17.474 -0.1185  0.1263 -0.0910
96137W        W39054  15.823  31.241  17.072 -0.0871 -0.1409 -0.3168
96138W        W39055  18.925  32.844  16.288  0.0978 -0.1861  0.4016
96139W        W39056  21.988  28.965  20.147  0.0915 -0.0281 -0.1295
96140W        W39057  20.957  30.303  18.675 -0.0596  0.2491 -0.0639
96141W        W39058  20.544  32.864  17.798 -0.3050  0.1407 -0.0682
96142W        W39059  20.476  30.808  18.090 -0.0560  0.0445  0.3606
96143W        W39060  19.252  32.270  18.213  0.0137 -0.0749  0.0306
96144W        W39061  18.490  30.334  18.220  0.3021 -0.1050  0.1455
96145W        W39062  19.692  31.699  20.365  0.0494 -0.1985  0.0257
96146W        W39063  21.702  32.172  18.657 -0.1044  0.0634 -0.0744
96147W        W39064  17.788  29.700  17.204 -0.1586 -0.0214 -0.2168
96148W        W39065  16.503  29.222  18.539  0.0989  0.0495  0.3922
96149W        W39066  18.179  30.029  19.953  0.1674  0.0705 -0.0338
96150W        W39067  20.684  31.873  17.664  0.0343  0.0191  0.2552
96151W        W39068  16.710  30.023  17.770 -0.1835 -0.1917 -0.1339
96152W        W39069  21.567  33.286  17.909 -0.1683 -0.2306  0.1104
96153W        W39070  18.422  31.781  22.564 -0.0829  0.0692 -0.1083
96154W        W39071  17.229  31.440  18.508  0.0398  0.2071 -0.2534
96155W        W39072  20.797  32.605  18.203 -0.3253  0.0368  0.0761
96156W        W39073  21.054  30.911  20.107 -0.2306  0.0916 -0.2004
96157W        W39074  20.104  31.083  19.163  0.0200  0.3244 -0.2055
96158W        W39075  21.023  32.926  18.704  0.1035  0.2806  0.2270
96159W        W39076  19.581  30.589  17.368  0.3393  0.2073  0.1669
96160W        W39077  19.566  31.774  18.365  0.1813 -0.1202 -0.3602
96161W        W39078  17.351  31.593  15.700 -0.2084  0.0393 -0.1230
96162W        W39079  20.940  34.135  17.203 -0.0648 -0.1366 -0.1831
96163W        W39080  19.453  33.280  18.424 -0.0337  0.1804  0.2466
96164W        W39081  19.456  33.013  20.383 -0.2515  0.0894 -0.0856
96165W        W39082  20.804  29.965  16.952  0.1047  0.1358  0.2304
96166W        W39083  21.540  30.539  19.224 -0.0372  0.1935  0.1037
96167W        W39084  22.012  30.284  17.352 -0.5438 -0.0910  0.0805
96168W        W39085  17.554  32.876  21.550 -0.3136  0.2999  0.1680
96169W        W39086  19.856  31.751  17.873  0.0436  0.1466 -0.1750
96170W        W39087  18.122  30.208  17.160  0.1545  0.1331 -0.3452
96171W        W39088  19.165  31.737  19.147  0.1186 -0.1297 -0.0276
96172W        W39089  23.544  29.283  17.529  0.0122  0.3944  0.2201
96173W        W39090  16.851   0.632  20.645  0.0375 -0.0865  0.1117
96174W        W39091  20.782  31.733  18.362  0.0717 -0.1131 -0.0578
96175W        W39092  17.955  30.887  16.431 -0.1490  0.1681  0.1262
96176W        W39093  19.371  30.957  19.704 -0.2530  0.3328  0.0558
96177W        W39094  23.154  27.643  18.442  0.0660  0.0076  0.3297
96178W        W39095  20.319  31.590  16.706  0.0814  0.1873  0.1209
96179W        W39096  19.323  28.967  20.412  0.2376  0.0616 -0.0413
96180W        W39097  17.175  32.218  19.360  0.0801 -0.3548 -0.5129
96181W        W39098  19.962  32.681  19.059 -0.0274  0.0451  0.2720
96182W        W39099  19.650  33.887  19.331 -0.1622 -0.1855 -0.1793
96183W        W39100  18.793  31.085  16.262  0.2454  0.0045 -0.1657
96184W        W39101  21.138  32.002  17.461  0.2873 -0.1210  0.0231
96185W        W39102  18.396  30.831  18.514  0.0481 -0.2021  0.0097
96186W        W39103  24.341  27.410  20.220  0.3129 -0.2661 -0.0162
96187W        W39104  19.477  31.384  18.002 -0.2493  0.0943 -0.2212
96188W        W39105  22.452  30.832  19.685  0.4065  0.0184 -0.0203
96189W        W39106  18.838  31.415  19.191  0.1386  0.2868  0.0981
96190W        W39107  15.120  31.013  22.104 -0.1441  0.1313  0.1810
96191W        W39108  22.185  30.662  16.868  0.1257 -0.0530  0.1309
96192W        W39109  21.016  31.884  19.842  0.2416  0.2825 -0.0953
96193W        W39110  19.449  30.673  16.817  0.2808 -0.1546 -0.0161
96194W        W39111  20.911  34.169  19.723  0.0762  0.0496 -0.0662
96195W        W39112  19.441  29.397  18.141 -0.1360 -0.1747 -0.0033
96196W        W39113  20.029  30.930  17.236  0.1092  0.0439 -0.1075
96197W        W39114  17.804  31.969  18.686 -0.0499  0.1475  0.1042
96198W        W39115  20.283  29.993  17.426 -0.3277 -0.0862  0.0725
96199W        W39116  21.253  30.473  19.695  0.1266  0.0129  0.0129
96200W        W39117  17.073  31.279  17.959  0.0399 -0.0316 -0.0217
96201W        W39118  22.638  33.003  16.830 -0.2564 -0.0597 -0.1069
96202W        W39119  20.743  30.377  19.896 -0.0248 -0.3853 -0.1538
96203W        W39120  20.370  33.852  17.625  0.2003  0.3446  0.0635
96204W        W39121  23.191  32.238  17.686  0.1480 -0.2174  0.0286
96205W        W39122  20.712  31.618  19.486  0.0824  0.2854 -0.0316
96206W        W39123  18.197  30.730  17.377  0.4260  0.1271 -0.0125
96207W        W39124  20.518  31.699  21.419  0.0791 -0.4442 -0.0450
96208W        W39125  20.170  31.629  18.518 -0.1654  0.0363  0.0245
96209W        W39126  19.285  32.107  16.613  0.0224  0.0956 -0.4799
96210W        W39127  18.856  30.155  16.733 -0.0903  0.1353 -0.1299
96211W        W39128  18.543  34.425  17.536 -0.1990  0.0947  0.1594
96212W        W39129  19.256  29.980  17.559  0.1837 -0.2487  0.2306
96213W        W39130  20.859  30.794  20.668  0.1634 -0.1476  0.0154
96214W        W39131  20.427  33.238  17.032  0.0472 -0.1468 -0.3304
96215W        W39132  19.076  30.279  21.047 -0.1820 -0.0899  0.0311
96216W        W39133  19.004  32.266  19.871  0.1101 -0.3356 -0.0054
96217W        W39134  18.203  32.490  22.166 -0.0323 -0.4981 -0.0485
96218W        W39135  18.065  31.172  16.848  0.0304 -0.0986  0.3802
96219W        W39136  19.131  30.623  21.426  0.4482 -0.0926 -0.0746
96220W        W39137  19.298  31.639  16.995 -0.0477 -0.0049 -0.3443
96221W        W39138  18.931  34.145  17.263 -0.1631  0.0240 -0.1068
96222W        W39139  18.931  33.376  18.218 -0.0108  0.0004 -0.3243
96223W        W39140  19.545  31.614  16.456  0.0889  0.0166  0.0188
96224W        W39141  20.029  31.595  19.953 -0.2270  0.1452  0.0941
96225W        W39142  19.047  30.562  17.557 -0.3548 -0.2676  0.0972
96226W        W39143  22.609  29.000  17.649 -0.0471 -0.0915 -0.2002
96227W        W39144  20.640  28.354  16.680 -0.2762  0.0847 -0.3427
96228W        W39145  18.185  31.624  19.870  0.2497 -0.5331  0.3746
96229W        W39146  16.346  29.835  16.850  0.0242 -0.1926 -0.0717
96230W        W39147  18.881  29.946  18.509  0.0836 -0.2102  0.3311
96231W        W39148  20.375  30.378  18.305 -0.3448  0.1613 -0.1532
96232W        W39149  17.218  30.950  21.532  0.0996 -0.0330  0.2072
96233W        W39150  20.106  33.175  19.169 -0.0623 -0.1859 -0.0422
96234W        W39151  17.832  32.759  17.157 -0.1261 -0.1775  0.1670
96235W        W39152  18.172  29.642  16.675 -0.1233 -0.1921  0.3478
96236W        W39153  22.322  33.665  16.581 -0.1316 -0.2068  0.0474
96237W        W39154  19.244  30.087  18.920 -0.0892 -0.1493 -0.0434
96238W        W39155  16.802  30.240  17.342 -0.0347  0.0257 -0.2122
96239W        W39156  20.517  33.830  19.509 -0.0919 -0.0833  0.0814
96240W        W39157  18.952  30.832  19.244 -0.1827  0.0923 -0.2688
96241W        W39158  19.171  30.628  16.349 -0.1987  0.0400  0.3828
96242W        W39159  22.033  33.058  19.776 -0.1095 -0.1838 -0.1075
96243W        W39160  19.190  32.600  16.665 -0.0118  0.0161  0.3159
96244W        W39161  18.885  31.017  21.210 -0.3440 -0.1236  0.2409
96245W        W39162  20.147  30.152  19.061  0.3111  0.1067  0.0589
96246W        W39163  17.298  29.672  17.129 -0.0375 -0.3758  0.0412
96247W        W39164  19.854  30.326  18.219 -0.1790  0.0236 -0.1080
96248W        W39165  20.165  31.433  17.181 -0.0597 -0.0327  0.1388
96249W        W39166  20.610  32.775  17.254  0.0345  0.1429  0.1169
96250W        W39167  18.126  33.411  19.949 -0.0947 -0.2012 -0.0920
96251W        W39168  17.822  34.151  20.447  0.1463 -0.2891 -0.0159
96252W        W39169  17.017  29.524  20.916  0.3667 -0.0130  0.2570
96253W        W39170  22.928  30.704  18.724 -0.2084 -0.3924  0.1481
96254W        W39171  17.609  30.568  18.710 -0.0355  0.2494  0.1971
96255W        W39172  23.596  29.949  16.302 -0.0824  0.0169 -0.2319
96256W        W39173  21.850  30.777  17.672  0.2417 -0.0571  0.1827
96257W        W39174  20.010  30.399  17.233  0.3304 -0.2277  0.1601
96258W        W39175  20.180  29.316  20.320  0.1736 -0.4172  0.1231
96259W        W39176  17.880  30.956  17.846 -0.0818 -0.2989  0.1868
96260W        W39177  21.235  32.377  19.567 -0.0641 -0.0634  0.0833
96261W        W39178  18.911  27.631  17.874 -0.1683  0.0783 -0.0659
96262W        W39179  20.217  30.147  16.331  0.0191  0.0530  0.0934
96263W        W39180  20.995  30.471  19.248 -0.1201  0.0060  0.0165
96264W        W39181  18.497  32.163  17.407  0.0843 -0.0656  0.1696
96265W        W39182  21.276  30.153  17.907 -0.1462  0.0997  0.0331
96266W        W39183  18.458  28.978  17.687 -0.2878  0.2791 -0.0795
96267W        W39184  18.973  33.556  17.167  0.1113 -0.1401  0.1324
96268W        W39185  21.257  32.381  18.453  0.1979 -0.4554  0.0231
96269W        W39186  19.321  30.517  19.417 -0.0583  0.0789 -0.0237
96270W        W39187  21.097  31.657  17.022 -0.0572  0.1537  0.2496
96271W        W39188  20.222   1.012  21.450 -0.3474  0.0937 -0.0330
96272W        W39189  19.479  33.008  19.867  0.0287  0.2955 -0.3768
96273W        W39190  19.888  32.965  21.044  0.2919  0.1739  0.0462
96274W        W39191  19.310  30.916  18.529 -0.0611  0.0022 -0.4132
96275W        W39192  19.246  27.769  20.033 -0.3185  0.3994  0.0869
96276W        W39193  19.817  31.571  16.902 -0.1593  0.0747  0.3447
96277W        W39194  17.859  29.348  17.943 -0.3041 -0.1435 -0.3703
96278W        W39195  19.774  29.480  18.569  0.0644 -0.2205 -0.2067
96279W        W39196  18.433  29.318  18.073 -0.0787  0.0087 -0.1645
96280W        W39197  19.393  28.888  18.244 -0.0464  0.1197  0.1126
96281W        W39198  18.217  32.943  19.838  0.1885 -0.3873  0.1090
96282W        W39199  21.950  31.698  17.370 -0.1799  0.1074  0.1212
96283W        W39200  17.696  30.556  23.801 -0.0668  0.1044  0.0615
96284W        W39201  18.829  29.233  21.735  0.2367  0.3246 -0.3642
96285W        W39202  18.000  30.734  20.379 -0.2002  0.1792 -0.1161
96286W        W39203  21.210  30.445  22.021  0.0029  0.0566  0.0696
96287W        W39204  18.580  30.439  21.123  0.2445 -0.2256 -0.0494
96288W        W39205  19.940  29.621  21.608 -0.0424  0.2645  0.1923
96289W        W39206  19.677  30.231  24.306 -0.2045 -0.0940  0.0276
96290W        W39207  21.210  32.676  22.864  0.1210  0.1171  0.0554
96291W        W39208  18.964  31.793  22.359 -0.4427 -0.0699  0.0439
96292W        W39209  19.199  31.353  19.504  0.1301 -0.2164  0.2762
96293W        W39210  19.417  30.863  22.536  0.1569 -0.2476 -0.1544
96294W        W39211  19.136  30.465  22.360 -0.2043  0.0848 -0.1651
96295W        W39212  17.470  29.745  20.372  0.1902 -0.0772 -0.1328
96296W        W39213  18.947  30.836  23.508 -0.0850  0.0223 -0.1007
96297W        W39214  20.347  30.732  21.624  0.4705 -0.3731 -0.0115
96298W        W39215  17.386  31.943  20.362 -0.2464 -0.0975  0.0114
96299W        W39216  18.844  33.079  22.543  0.1362  0.0870  0.1549
96300W        W39217  17.790  31.628  20.230  0.2052 -0.1605  0.0141
96301W        W39218  20.352  34.368  21.140 -0.2276 -0.1639 -0.1454
96302W        W39219  17.527  30.430  24.326 -0.0374 -0.0459  0.2147
96303W        W39220  22.544  29.166  23.022  0.0356 -0.2177  0.0245
96304W        W39221  20.637  32.510  20.966  0.1887 -0.1280  0.0235
96305W        W39222  17.182  28.730  18.786 -0.0712  0.0494  0.3338
96306W        W39223  16.824  30.828  22.278 -0.1419 -0.3579 -0.0284
96307W        W39224  19.152  32.321  22.107  0.2659 -0.0481 -0.2581
96308W        W39225  19.374  28.410  21.161  0.1596 -0.1972  0.0355
96309W        W39226  20.668  30.244  21.909  0.0457 -0.2273 -0.3889
96310W        W39227  19.437  32.487  21.120  0.3767  0.0647 -0.1413
96311W        W39228  18.935  32.038  20.312  0.0757 -0.4040  0.4695
96312W        W39229  20.867  30.291  20.913 -0.0128 -0.0231  0.1204
96313W        W39230  19.425  33.059  23.584 -0.0114  0.0148  0.2616
96314W        W39231  19.776  33.452  22.046  0.2250 -0.1399 -0.3174
96315W        W39232  18.029  33.645  23.086  0.0167  0.2843  0.1336
96316W        W39233  19.765  31.169  23.231 -0.0216 -0.0018  0.2094
96317W        W39234  19.072  33.388  23.383 -0.0297 -0.1189 -0.0303
96318W        W39235  19.303  34.436  23.537 -0.0398 -0.0653  0.0834
96319W        W39236  19.432  32.043  23.414 -0.3551 -0.0399 -0.2557
96320W        W39237  20.333  32.070  22.716  0.0967 -0.3429 -0.2258
96321W        W39238  16.819  34.258  24.686 -0.0005  0.2080  0.1848
96322W        W39239  21.771  31.082  22.294  0.1386 -0.0268 -0.0373
96323W        W39240  20.990  32.188  21.691  0.0844 -0.0122  0.4232
96324W        W39241  20.835  33.382  20.812 -0.0920  0.5165  0.0519
96325W        W39242  19.631  32.702  21.628 -0.1561 -0.0977 -0.2412
96326W        W39243  19.346  32.561  23.283 -0.2383 -0.3255 -0.0474
96327W        W39244  17.839  32.836  22.455 -0.1902 -0.0430 -0.2898
96328W        W39245  22.310  31.865  22.386  0.4218 -0.0300 -0.2830
96329W        W39246  18.845  31.774  20.716  0.1191 -0.0015  0.0612
96330W        W39247  20.087  30.101  19.583 -0.0589  0.0544 -0.2208
96331W        W39248  17.717  30.174  18.971 -0.1244  0.2809  0.0626
96332W        W39249  19.398  31.071  20.556 -0.0238  0.0325 -0.0359
96333W        W39250  19.995  29.904  22.154  0.0894 -0.0195  0.3019
96334W        W39251  17.801  32.424  22.772  0.2808 -0.1018  0.0435
96335W        W39252  20.154  28.033  23.793  0.0519 -0.1626 -0.1114
96336W        W39253  19.877  32.718  22.317  0.1164 -0.0239  0.2745
96337W        W39254  20.699  31.780  21.860  0.0027 -0.1328 -0.1179
96338W        W39255  19.829  31.789  22.500 -0.0156 -0.0915 -0.1794
96339W        W39256  17.811  33.104  24.410 -0.0900 -0.2196 -0.1391
96340W        W39257  18.362  29.403  22.019 -0.0705  0.1764  0.3740
96341W        W39258  23.312  32.580  19.315  0.0764  0.0629  0.0679
96342W        W39259  19.750  32.557  20.156 -0.1358 -0.0254 -0.0202
96343W        W39260  19.285  29.760  21.525  0.2489 -0.1152 -0.0732
96344W        W39261  16.955  30.531  20.842 -0.4945  0.2845  0.0489
96345W        W39262  16.895  32.544  23.583  0.1478  0.3756 -0.2365
96346W        W39263  20.782  29.619  23.776 -0.3357  0.1451  0.1763
96347W        W39264  17.699  29.517  20.780  0.1216  0.0824  0.1534
96348W        W39265  20.141  31.555  24.031  0.2997  0.0309 -0.0015
96349W        W39266  17.000  31.249  22.058  0.2211 -0.1032  0.0678
96350W        W39267  21.539  30.936  21.010  0.1532  0.1312 -0.3793
96351W        W39268  15.437  31.411  21.716 -0.1621 -0.0975  0.0320
96352W        W39269  20.411  32.535  22.444  0.0372  0.0287  0.0567
96353W        W39270  18.548  33.506  20.666  0.2265 -0.0173  0.0101
96354W        W39271  19.523  30.636  20.093  0.3324  0.1645 -0.3650
96355W        W39272  21.624  30.187  22.577 -0.0781  0.0720  0.0144
96356W        W39273  18.851  31.246  20.573  0.1325 -0.0309 -0.0126
96357W        W39274  18.132  30.222  20.529  0.0900 -0.2651  0.0127
96358W        W39275  21.748  32.333  22.518 -0.2429  0.1288 -0.1361
96359W        W39276  20.149  30.336  21.356  0.0685 -0.1861  0.2612
96360W        W39277  17.293  32.549  22.496  0.4736  0.1556 -0.0445
96361W        W39278  19.801  32.397  23.554  0.4798 -0.0333 -0.0788
96362W        W39279  19.992  31.374  25.144  0.0631  0.2397  0.2276
96363W        W39280  20.411  32.223  21.899  0.0879 -0.2091  0.1043
96364W        W39281  16.044  29.160  22.174  0.0990 -0.1026 -0.0518
96365W        W39282  18.463  33.661  20.165 -0.2818  0.0936  0.3036
96366W        W39283  18.680  27.175  22.394  0.0526 -0.2990 -0.0766
96367W        W39284  20.269  32.039  25.191 -0.0834 -0.0868 -0.2970
96368W        W39285  19.607  29.372  21.251  0.0159  0.2271  0.0744
96369W        W39286  17.671  29.482  23.321  0.0574  0.1165 -0.2012
96370W        W39287  21.178  28.923  20.856 -0.4165 -0.1127  0.1513
96371W        W39288  17.502  31.320  22.831 -0.1261  0.0022  0.0857
96372W        W39289  20.559  32.065  20.707  0.1903 -0.0318  0.0673
96373W        W39290  20.689  31.094  21.142 -0.1057 -0.2683 -0.2283
96374W        W39291  19.163  31.487  18.602  0.3395  0.2598 -0.0478
96375W        W39292  18.410  28.668  25.096  0.1646  0.4150 -0.0552
96376W        W39293  17.942  29.659  22.127  0.0176  0.1047 -0.3164
96377W        W39294  19.790  28.966  25.187  0.0582 -0.0982 -0.3359
96378W        W39295  19.501  30.206  23.658 -0.0760 -0.2975  0.0626
96379W        W39296  21.457  29.670  21.039 -0.0374  0.0668  0.1143
96380W        W39297  16.677  31.096  20.017  0.2082  0.0571 -0.0361
96381W        W39298  21.477  30.003  20.700  0.0392  0.0117  0.0944
96382W        W39299  17.664  32.323  22.238  0.5631 -0.1262 -0.0089
96383W        W39300  18.413  32.031  20.193 -0.0110  0.0054 -0.2527
96384W        W39301  20.534  31.299  23.768  0.0524  0.0315  0.1201
96385W        W39302  19.675  32.399  20.675 -0.1046 -0.3656 -0.2748
96386W        W39303  21.320  34.256  23.251 -0.1427  0.3730  0.1781
96387W        W39304  22.521  34.338  21.202 -0.0032  0.3405 -0.1279
96388W        W39305  19.722  31.191  24.291 -0.0803  0.2400 -0.2079
96389W        W39306  18.030  29.638  21.570  0.0963  0.3222 -0.1089
96390W        W39307  17.172  33.423  22.648  0.3998  0.4547 -0.0309
96391W        W39308  20.282  30.034  22.822 -0.3652 -0.1150  0.1268
96392W        W39309  18.527  30.502  21.709 -0.1360  0.1453  0.2746
96393W        W39310  21.210  33.698  22.297 -0.1062 -0.0644 -0.1057
96394W        W39311  18.718  31.527  21.151 -0.0328 -0.3443  0.4225
96395W        W39312  18.355  31.159  24.014 -0.1205  0.0875  0.0171
96396W        W39313  21.022  28.547  22.184 -0.0465 -0.1342 -0.0777
96397W        W39314  23.553  30.599  22.064 -0.2972 -0.1234 -0.2763
96398W        W39315  18.421  30.902  20.457 -0.0361  0.0443  0.0514
96399W        W39316  18.389  29.322  20.309 -0.1848 -0.0305  0.0825
96400W        W39317  20.872  33.327  22.620  0.0834 -0.0529 -0.2748
96401W        W39318  18.108   0.318  21.142  0.0801 -0.2499 -0.0279
96402W        W39319  19.854  30.297  22.591 -0.1669 -0.0231  0.2971
96403W        W39320  18.708  30.708  22.209  0.1641 -0.1340  0.1306
96404W        W39321  21.944  28.995  22.674 -0.0565  0.0347  0.1831
96405W        W39322  16.769  31.156  24.922 -0.0314 -0.1260  0.3514
96406W        W39323  20.637  32.558  23.891  0.1192 -0.2135  0.1892
96407W        W39324  18.219  29.476  19.417  0.3134  0.1061  0.0786
96408W        W39325  19.816  33.183  22.526  0.2549 -0.0533 -0.0607
96409W        W39326  19.625  30.922  19.274 -0.1144  0.2040  0.3689
96410W        W39327  20.244  31.354  21.020  0.0098 -0.0885  0.0188
96411W        W39328  19.699  30.738  22.953 -0.2482 -0.1130  0.0039
96412W        W39329  18.287  32.663  21.000  0.0565  0.1512 -0.0672
96413W        W39330  18.401  30.539  20.155 -0.0271  0.0769  0.0375
96414W        W39331  20.293  30.247  20.018 -0.2357  0.1668  0.1296
96415W        W39332  17.563  31.941  23.506 -0.0093  0.1081  0.0496
96416W        W39333  18.205  31.740  21.147  0.1659 -0.3616 -0.0605
96417W        W39334  20.683  30.219  22.996 -0.0957  0.3223  0.0749
96418W        W39335  19.297  30.471  20.562  0.0828 -0.1777  0.1216
96419W        W39336  20.290  32.564  19.869  0.0067 -0.0113 -0.1079
96420W        W39337  18.221  30.986  22.941  0.1334 -0.2950 -0.3713
96421W        W39338  18.999  30.671  25.335  0.0139 -0.0708  0.0036
96422W        W39339  19.277  32.579  20.358  0.1281 -0.0239 -0.0208
96423W        W39340  20.220  29.623  23.856 -0.2203  0.0197 -0.0569
96424W        W39341  19.794  30.358  20.447  0.0344 -0.2587 -0.0528
96425W        W39342  20.991  29.890  21.133 -0.0579  0.1837 -0.2695
96426W        W39343  17.322  30.866  17.977  0.0847 -0.1145  0.0061
96427W        W39344  20.912  27.557  22.285 -0.4127 -0.1587  0.1490
96428W        W39345  18.918  28.655  22.647  0.0139 -0.0953  0.1797
96429W        W39346  22.045  30.433  22.652  0.0775 -0.0833 -0.1187
96430W        W39347  22.123  33.064  21.783 -0.2878  0.0032 -0.2109
96431W        W39348  19.385  31.583  22.240  0.0827 -0.3823  0.0213
96432W        W39349  19.775  30.094  21.668 -0.0908 -0.0560  0.2219
96433W        W39350  19.422  29.843  23.188 -0.0198 -0.3132  0.0405
96434W        W39351  21.360  29.113  23.315 -0.2763  0.2151  0.2706
96435W        W39352  18.699  30.672  23.132 -0.1223  0.0099  0.2543
96436W        W39353  18.525  33.763  24.244 -0.1689 -0.0077 -0.0947
96437W        W39354  20.157  32.713  25.080  0.3161 -0.0043  0.1119
96438W        W39355  18.409  31.831  23.765  0.1604  0.4661 -0.0417
96439W        W39356  20.233  30.238  24.224 -0.0983 -0.1845  0.0569
96440W        W39357  16.941  31.731  20.174  0.0386  0.1187 -0.2021
96441W        W39358  20.365  32.927  20.808  0.2827 -0.2004 -0.2697
96442W        W39359  21.690  31.869  21.002 -0.2147  0.1127 -0.0259
96443W        W39360  18.370  29.359  24.011  0.2872 -0.0289 -0.0699
96444W        W39361  19.210  31.061  21.555 -0.0216  0.0481  0.0918
96445W        W39362  20.039  31.979  20.648 -0.1312 -0.0110  0.0101
96446W        W39363  21.881  31.589  22.301  0.0560  0.0009  0.1558
96447W        W39364  17.236  34.128  21.243 -0.0288  0.2367  0.3111
96448W        W39365  20.013  29.257  23.467  0.0095 -0.3922 -0.0910
96449W        W39366  17.116  32.049  23.317 -0.1312  0.1034  0.3177
96450W        W39367  17.793  31.524  20.914 -0.0320  0.2191  0.0624
96451W        W39368  19.332  30.211  21.721  0.1944  0.1841 -0.1800
96452W        W39369  20.611  30.736  18.543 -0.1605  0.0922 -0.1711
96453W        W39370  19.932  30.794  22.448 -0.2462 -0.0388 -0.6229
96454W        W39371  17.784  29.700  22.672 -0.0759  0.1875  0.1642
96455W        W39372  19.857  30.517  23.428 -0.2564  0.0233 -0.1257
96456W        W39373  17.693  32.403  21.739 -0.0107 -0.0048  0.2722
96457W        W39374  20.665  31.344  23.096  0.0973  0.5344  0.1264
96458W        W39375  19.345  31.954  20.675  0.0869 -0.0314 -0.3607
96459W        W39376  20.321  30.542  22.616  0.0602  0.1439 -0.0761
96460W        W39377  19.134  31.841  26.659 -0.2618 -0.0192  0.0625
96461W        W39378  17.640  28.482  18.741  0.0357  0.0209 -0.1764
96462W        W39379  21.442  32.457  21.582  0.2629  0.2428 -0.2728
96463W        W39380  19.189  31.879  21.872  0.0854 -0.1690 -0.2730
96464W        W39381  17.469  32.414  20.111  0.3178 -0.1568 -0.2521
96465W        W39382  18.754  31.219  22.230 -0.1412  0.0071  0.0303
96466W        W39383  16.751  30.876  21.603 -0.0904  0.0250  0.0473
96467W        W39384  19.680  29.575  24.610  0.0991 -0.1754  0.2248
96468W        W39385  18.584  30.729  25.117  0.2603 -0.2161 -0.1250
96469W        W39386  20.785  32.977  21.144 -0.3463 -0.1105  0.3906
96470W        W39387  18.833  29.179  22.813 -0.0520 -0.2089  0.3351
96471W        W39388  19.154  30.677  21.915  0.1259 -0.4176 -0.0576
96472W        W39389  19.114  32.515  21.499  0.1366  0.1188 -0.4007
96473W        W39390  20.303  33.232  21.183 -0.1468  0.2408 -0.0118
96474W        W39391  20.973  31.134  23.942  0.0857  0.0095 -0.1256
96475W        W39392  19.037  33.869  24.568  0.0724  0.1219 -0.0806
96476W        W39393  20.756  29.915  22.531  0.1395 -0.1905  0.0579
96477W        W39394  22.486  33.257  22.686 -0.0976  0.1705 -0.2127
96478W        W39395  19.482  30.582  25.111 -0.0162 -0.4678 -0.0855
96479W        W39396  17.814  32.764  20.962  0.1235 -0.0618 -0.1742
96480W        W39397  16.903  28.440  24.496 -0.3253  0.0126  0.1707
96481W        W39398  18.752  28.801  23.079 -0.1295 -0.2370 -0.0532
96482W        W39399  20.377  29.123  21.674  0.1154  0.0325 -0.0717
96483W        W39400  17.672  31.123  22.436 -0.4027  0.0670  0.3489
96484W        W39401  20.100  32.604  21.883 -0.0038 -0.0744  0.1407
96485W        W39402  18.837  30.134  22.722  0.3232 -0.0406  0.0509
96486W        W39403  18.868  29.464  20.749  0.0821  0.3488  0.0677
96487W        W39404  18.103  30.925  19.821  0.3945  0.1191  0.3664
96488W        W39405  18.503  29.944  22.294  0.0434  0.1196  0.1679
96489W        W39406  22.927  30.974  22.829  0.2178  0.1111  0.0645
96490W        W39407  17.179  29.932  19.981 -0.4526  0.0349 -0.2984
96491W        W39408  19.249  31.238  24.465  0.0029  0.1139  0.1410
96492W        W39409  19.227  29.931  24.222 -0.0227 -0.2128  0.0903
96493W        W39410  21.948  30.749  21.879  0.2822 -0.1930  0.1541
96494W        W39411  17.455  30.985  23.393 -0.2877  0.1860  0.1351
96495W        W39412  20.700  34.542  24.254  0.2864  0.3848 -0.3271
96496W        W39413  18.781  31.178  23.190 -0.0815  0.0436  0.0526
96497W        W39414  18.029  31.073  20.774  0.1390  0.1123  0.3320
96498W        W39415  18.314  29.905  22.738  0.0391  0.2732  0.1819
96499W        W39416  20.365  34.179  24.008 -0.1914  0.3250 -0.1810
96500W        W39417  22.650  31.460  22.031  0.1256 -0.2486  0.0079
96501W        W39418  20.406  31.342  21.998  0.1357 -0.0657 -0.1468
96502W        W39419  19.473  28.898  21.971 -0.3802  0.2279 -0.1110
96503W        W39420  18.179  31.385  23.609 -0.2246  0.0626  0.0207
96504W        W39421  20.359  30.792  22.130  0.0792 -0.1331 -0.0265
96505W        W39422  18.786  31.558  21.848 -0.1838  0.3702 -0.0698
96506W        W39423  18.180  32.252  21.703  0.0185  0.0753 -0.1400
96507W        W39424  21.052  30.707  24.190 -0.1432  0.0925 -0.2094
96508W        W39425  18.603  32.062  22.146  0.2170 -0.1031  0.2090
96509W        W39426  21.656  29.381  20.567 -0.3295  0.4418  0.2504
96510W        W39427  20.380  30.149  22.296  0.1943 -0.0147  0.3498
96511W        W39428  21.426  30.488  23.805  0.0104 -0.1479  0.4068
96512W        W39429  20.578  33.334  24.360  0.1907  0.1800 -0.1311
96513W        W39430  17.466  30.284  22.572 -0.0758  0.0776  0.0421
96514W        W39431  21.866  32.129  24.345  0.1686  0.0841 -0.0391
96515W        W39432  19.399  28.848  19.099  0.1774 -0.1318 -0.3146
96516W        W39433  21.848  28.888  23.485  0.1489 -0.3247  0.0077
96517W        W39434  18.978  30.772  20.788  0.0522  0.0853 -0.4075
96518W        W39435  20.652  27.912  20.147  0.2203  0.0248 -0.0486
96519W        W39436  18.465  28.436  23.372  0.0033  0.3316  0.0185
96520W        W39437  20.831  32.915  24.206 -0.0067  0.1092  0.0018
96521W        W39438  18.400  31.554  22.140  0.2815  0.0137 -0.1351
96522W        W39439  20.760  28.980  22.984 -0.1120 -0.0067 -0.0736
96523W        W39440  22.167  33.306  22.236 -0.2245 -0.0599 -0.1344
96524W        W39441  21.126  30.310  21.413 -0.1692 -0.1396 -0.2009
96525W        W39442  17.902  32.586  23.635  0.0504  0.1213  0.3148
96526W        W39443  15.976  29.132  24.663  0.2044  0.0375 -0.3022
96527W        W39444  18.353  30.941  26.283  0.0330 -0.4050  0.0691
96528W        W39445  18.178  29.690  18.939 -0.2309 -0.1290  0.3144
96529W        W39446  19.591  29.729  19.001 -0.0297  0.1249  0.2163
96530W        W39447  20.156  30.338  21.898 -0.1789 -0.2624 -0.0285
96531W        W39448  23.064  33.614  25.011  0.1095  0.0096  0.0196
96532W        W39449  18.659  30.452  20.587 -0.0672 -0.0092  0.2125
96533W        W39450  21.502  29.202  22.835  0.2230 -0.3086  0.0214
96534W        W39451  19.271  32.973  23.034  0.2539 -0.0609 -0.0806
96535W        W39452  20.833  32.950  20.525 -0.0368  0.4262  0.4247
96536W        W39453  18.389  31.477  23.104  0.1233 -0.2059 -0.0299
96537W        W39454  18.771  31.116  24.793 -0.2262 -0.1455  0.0964
96538W        W39455  19.452  31.461  19.980  0.1713  0.1887 -0.0705
96539W        W39456  21.176  31.126  21.385 -0.1057 -0.0035  0.1312
96540W        W39457  21.989  29.467  20.115  0.2083 -0.1307  0.5952
96541W        W39458  19.846  30.185  23.066 -0.0646 -0.0135 -0.0266
96542W        W39459  22.741  30.511  23.915 -0.0996  0.0587  0.2502
96543W        W39460  21.343  34.306  22.203  0.0892 -0.0170  0.2525
96544W        W39461  17.322  30.044  21.662  0.3004 -0.0407 -0.0917
96545W        W39462  21.536  32.326  23.953  0.1583 -0.1473  0.0956
96546W        W39463  22.263  31.130  21.952  0.2444  0.2076  0.0986
96547W        W39464  18.274  32.401  22.643 -0.1115  0.4069 -0.1324
96548W        W39465  17.353  29.918  24.555 -0.1579 -0.0531  0.1901
96549W        W39466  19.564  31.116  25.267 -0.3814 -0.0170  0.0357
96550W        W39467  18.885  30.109  21.492  0.1996 -0.0532  0.0075
96551W        W39468  19.602  27.887  20.959 -0.3709 -0.1506 -0.1750
96552W        W39469  18.892  32.178  18.985  0.0687  0.4470  0.1262
96553W        W39470  18.286  31.752  24.339  0.1475  0.0979 -0.1981
96554W        W39471  16.458  31.828  22.510  0.3673  0.2240 -0.1052
96555W        W39472  18.371  34.573  21.406  0.0151  0.1266  0.1007
96556W        W39473  22.370  31.709  20.290  0.0110  0.1737 -0.0524
96557W        W39474  21.173  30.099  22.412  0.2071  0.3663 -0.2501
96558W        W39475  20.558  32.769  21.996 -0.0690  0.1921 -0.1124
96559W        W39476  17.308  30.808  22.027  0.1512  0.0336  0.0232
96560W        W39477  16.858  33.383  21.318 -0.1907  0.0520 -0.0889
96561W        W39478  19.040  32.842  20.760  0.1916 -0.3461  0.2934
96562W        W39479  20.680  29.055  19.397 -0.2641 -0.1191 -0.1116
96563W        W39480  18.097  32.209  20.957 -0.3107 -0.1604 -0.0446
96564W        W39481  20.920  32.213  24.121 -0.0020  0.1300 -0.1956
96565W        W39482  21.029  29.997  19.662 -0.3546  0.3890 -0.0239
96566W        W39483  22.766  31.454  22.561 -0.0716  0.1481  0.0971
96567W        W39484  20.795  28.614  20.678  0.2648  0.0156 -0.2095
96568W        W39485  21.174   0.865  24.194 -0.3172  0.0138  0.0673
96569W        W39486  17.904  31.842  22.643 -0.2857  0.2651  0.2925
96570W        W39487  18.752  28.129  19.983  0.0702  0.2517 -0.1928
96571W        W39488  18.852  31.678  22.864 -0.3290  0.0060 -0.0679
96572W        W39489  22.093  28.912  25.060 -0.1164  0.1010  0.2248
96573W        W39490  19.653  33.034  24.746  0.0055  0.0615 -0.1482
96574W        W39491  21.049  33.568  21.763 -0.0120 -0.3206  0.2314
96575W        W39492  16.989  31.199  20.968  0.3579  0.1850 -0.2072
96576W        W39493  18.846  32.628  22.349 -0.1928  0.1754  0.3303
96577W        W39494  21.047  30.506  23.295 -0.1702 -0.1287  0.0099
96578W        W39495  19.699  31.547  19.465 -0.0797  0.1636 -0.3127
96579W        W39496  17.988  29.282  22.391 -0.3735  0.0762 -0.0803
96580W        W39497  19.108  31.248  22.576 -0.0963  0.0293 -0.1448
96581W        W39498  17.681  34.048  21.871  0.1651  0.3183  0.0849
96582W        W39499  17.612  34.086  22.814 -0.1467 -0.0149 -0.2729
96583W        W39500  17.108  28.695  19.382 -0.0181 -0.0042  0.0248
96584W        W39501  20.387  29.548  23.420 -0.0640 -0.2757  0.2249
96585W        W39502  19.796  29.738  23.495 -0.3234 -0.1295 -0.0263
96586W        W39503  20.669  29.669  22.098  0.0722  0.1440  0.1612
96587W        W39504  19.860  29.349  22.546  0.1909 -0.0493 -0.0159
96588W        W39505  21.033  30.713  21.138  0.1612  0.1881 -0.1242
96589W        W39506  18.921  32.852  23.357 -0.0019 -0.1470  0.0421
96590W        W39507  17.944  30.809  23.396  0.0653 -0.2488 -0.0347
96591W        W39508  18.880  30.950  18.689 -0.0486  0.0156 -0.0668
96592W        W39509  22.157  31.698  22.805 -0.2973  0.0708  0.2323
96593W        W39510  19.290  30.604  18.940 -0.1260 -0.0582  0.1957
96594W        W39511  22.189  33.722  23.032  0.2097  0.1833  0.2577
96595W        W39512  18.956  27.424  22.048  0.0491  0.0461  0.1197
96596W        W39513  20.096  28.637  21.812 -0.0530 -0.2660 -0.2272
96597W        W39514  17.685  30.898  21.456  0.1162  0.2601  0.0729
96598W        W39515  19.476  31.589  25.345  0.1183 -0.1026  0.0181
96599W        W39516  21.060  33.350  24.131 -0.1230  0.1559  0.0370
96600W        W39517  18.394  29.394  22.647  0.0480 -0.3234  0.1507
96601W        W39518  21.106  31.458  21.750  0.0223  0.0693  0.0312
96602W        W39519  19.660  28.406  21.946 -0.4359  0.2535 -0.2953
96603W        W39520  19.655  31.914  19.848 -0.0901  0.2120 -0.0103
96604W        W39521  20.913  32.436  22.105  0.0569  0.1868 -0.1964
96605W        W39522  20.817  31.509  22.293 -0.0394  0.0573  0.0587
96606W        W39523  17.211  30.927  20.606 -0.1860 -0.1048 -0.1240
96607W        W39524  22.562  32.927  22.270  0.0937 -0.1496  0.2438
96608W        W39525  21.689  31.626  22.883 -0.0331  0.0440 -0.1607
96609W        W39526  18.939  30.269  20.206 -0.0642  0.2988 -0.1144
96610W        W39527  18.564  30.363  23.640  0.2426  0.0797 -0.1950
96611W        W39528  18.752  32.554  20.186 -0.3142  0.0958  0.5298
96612W        W39529  23.742  30.102  23.015 -0.0260  0.3081 -0.2325
96613W        W39530  21.082  29.984  21.911  0.2494  0.2220  0.0228
96614W        W39531  19.480  32.021  19.379  0.0566  0.0372  0.0852
96615W        W39532  21.772  28.366  23.408 -0.2898 -0.1526  0.2815
96616W        W39533  19.395  31.643  22.700  0.0550  0.2184 -0.2055
96617W        W39534  19.304  33.450  22.983  0.0726  0.2306  0.0169
96618W        W39535  18.071  33.020  20.399  0.3276  0.0724 -0.0833
96619W        W39536  20.210  31.001  22.871 -0.2180 -0.4011  0.2279
96620W        W39537  19.458  32.128  20.232 -0.4168  0.1099  0.2477
96621W        W39538  19.248  33.511  21.315 -0.0623  0.0948 -0.0152
96622W        W39539  21.128  34.029  21.477  0.1127  0.0110  0.2685
96623W        W39540  16.473  32.194  22.071  0.2600  0.1834 -0.1873
96624W        W39541  20.092  32.036  21.546  0.2024  0.0483  0.4043
96625W        W39542  19.351  28.220  20.576  0.1216  0.2585 -0.0405
96626W        W39543  21.847  29.669  21.339 -0.2859  0.0865  0.0500
96627W        W39544  17.941  30.130  22.375 -0.3986  0.1806 -0.1159
96628W        W39545  19.110  32.097  22.981  0.0053  0.0848 -0.1854
96629W        W39546  17.820  30.404  21.254 -0.1054 -0.4097  0.0220
96630W        W39547  19.637  32.413  21.992 -0.0174  0.0236 -0.2276
96631W        W39548  18.073  31.412  22.737 -0.3763 -0.1933  0.3429
96632W        W39549  20.656  27.868  23.437 -0.2597  0.0459  0.0297
96633W        W39550  19.258  29.762  25.521  0.0814 -0.1885  0.2003
96634W        W39551  17.647  31.758  23.064 -0.3287  0.1577  0.0067
96635W        W39552  19.013  29.465  23.321  0.1596 -0.1610  0.1339
96636W        W39553  21.263  31.274  20.400  0.2085  0.0791 -0.3308
96637W        W39554  18.854  29.685  22.640 -0.2323  0.1159  0.0834
96638W        W39555  19.001  28.880  19.976 -0.2583  0.0260  0.3035
96639W        W39556  21.395  33.344  19.896  0.0266  0.0970 -0.1753
96640W        W39557  20.703  32.665  20.131 -0.1747 -0.2615 -0.1255
96641W        W39558  18.064  29.727  20.415 -0.0783 -0.2837 -0.2478
96642W        W39559  20.041   0.055  23.525  0.2079  0.0489 -0.2228
96643W        W39560  18.368  32.921  22.531  0.1963 -0.3430 -0.0584
96644W        W39561  20.253  30.059  23.346 -0.0944  0.4879 -0.0137
96645W        W39562  19.324  31.305  23.597 -0.0285  0.1274 -0.3035
96646W        W39563  18.528  31.114  20.061  0.1146  0.0140 -0.0349
96647W        W39564  19.233  31.147  22.093  0.0634  0.0189  0.0945
96648W        W39565  19.810  32.362  19.638 -0.0990  0.2688  0.2525
96649W        W39566  22.280   0.007  22.416 -0.5035 -0.0952  0.2494
96650W        W39567  18.229  32.206  24.644  0.0990  0.0859 -0.3239
96651W        W39568  20.137  33.106  22.031 -0.2868 -0.1721 -0.0212
96652W        W39569  16.830  28.806  23.360 -0.2389 -0.0999 -0.0474
96653W        W39570  20.196  31.283  22.481  0.1913 -0.1264  0.1592
96654W        W39571  18.213  31.063  25.107 -0.0421 -0.0564  0.2463
96655W        W39572  18.938  32.716  19.197 -0.1814 -0.0190  0.1791
96656W        W39573  21.337  29.061  21.974  0.0630  0.1454  0.1057
96657W        W39574  20.675  30.189  21.442  0.2300  0.0167  0.0519
96658W        W39575  17.795  29.533  24.847  0.1239  0.0685  0.2414
96659W        W39576  19.126  31.614  23.234 -0.0317 -0.2226  0.0680
96660W        W39577  21.403  32.483  21.012 -0.3851  0.0848  0.1458
96661W        W39578  18.899  28.353  23.090 -0.3512  0.0913  0.0411
96662W        W39579  22.060  29.584  20.847  0.0829 -0.0059  0.1325
96663W        W39580  19.039  31.175  20.048 -0.0351  0.1915  0.0651
96664W        W39581  17.472  30.036  24.063 -0.0274  0.0500 -0.0918
96665W        W39582  17.252  29.581  21.320  0.1671  0.0624 -0.2134
96666W        W39583  20.628  32.119  22.350 -0.2290  0.0127  0.1851
96667W        W39584  19.770  31.708  21.390 -0.2225 -0.1258  0.2557
96668W        W39585  21.054  31.986  23.591  0.3194 -0.1732 -0.0495
96669W        W39586  17.819  30.925  21.989 -0.5100 -0.1284  0.1678
96670W        W39587  19.705  31.864  21.932  0.2153  0.1994  0.0345
96671W        W39588  19.973  33.730  22.759 -0.2069 -0.0666 -0.2203
96672W        W39589  20.877  34.118  22.411  0.1075  0.2729  0.2707
96673W        W39590  18.865  33.800  21.276  0.1595  0.1999  0.0174
96674W        W39591  21.330  30.481  20.842 -0.0870 -0.1661  0.2107
96675W        W39592  19.589  29.770  22.519 -0.0335  0.1240  0.0138
96676W        W39593  18.037  33.156  22.186 -0.0094  0.0679  0.1414
96677W        W39594  18.443  32.775  21.543  0.1838 -0.2523 -0.2083
96678W        W39595  19.630  30.392  22.127  0.2989  0.1634  0.0429
96679W        W39596  17.552  29.946  23.086 -0.1304 -0.2788 -0.2589
96680W        W39597  19.885  29.009  19.545 -0.0160 -0.0952  0.3356
96681W        W39598  19.942  33.105  23.615  0.1525 -0.0519 -0.0492
96682W        W39599  21.520  31.885  22.452  0.0541 -0.2112 -0.0263
96683W        W39600  20.142  29.574  27.779 -0.1122  0.3094 -0.1572
96684W        W39601  19.342  29.681  23.659  0.0200  0.2253 -0.3103
96685W        W39602  20.471  28.844  24.979  0.0920  0.0675  0.2383
96686W        W39603  19.320  30.143  24.693  0.0712 -0.2533  0.0578
96687W        W39604  18.639  29.644  25.819 -0.0070 -0.1693  0.0866
96688W        W39605  19.497  33.697  25.357 -0.1748 -0.1270  0.1472
96689W        W39606  18.847  28.303  27.245  0.2523  0.2525  0.1552
96690W        W39607  20.030  33.035  25.726 -0.0504 -0.1281 -0.2292
96691W        W39608  19.360  34.025  27.025  0.1930 -0.0955  0.0854
96692W        W39609  20.797  30.562  22.373 -0.0291 -0.1096  0.0999
96693W        W39610  17.608  31.174  27.506 -0.4333 -0.0549  0.3479
96694W        W39611  20.185  32.304  27.109 -0.0840  0.0262 -0.1776
96695W        W39612  21.444  28.840  25.453  0.3521 -0.0454  0.0307
96696W        W39613  18.271  28.758  24.132  0.2750  0.3094 -0.2027
96697W        W39614  20.433  33.933  26.652  0.1494  0.3196  0.0156
96698W        W39615  19.586  32.614  22.835 -0.2194  0.0419  0.1331
96699W        W39616  22.377  28.701  25.758  0.0598 -0.1880  0.0984
96700W        W39617  20.036  30.891  25.817 -0.0632 -0.1299 -0.2904
96701W        W39618  18.977   1.350  24.016  0.2496  0.0848 -0.3375
96702W        W39619  18.232  30.412  27.991  0.0288  0.2800 -0.1534
96703W        W39620  20.939  29.432  26.436  0.1627 -0.0413  0.2536
96704W        W39621  20.309  31.720  22.327 -0.0680 -0.0221  0.0888
96705W        W39622  17.493  30.941  25.629 -0.1488 -0.0180  0.2315
96706W        W39623  17.075  30.689  24.849  0.0825  0.0535 -0.0107
96707W        W39624  18.682  30.483  26.062 -0.0194 -0.1344 -0.1101
96708W        W39625  19.873  32.262  25.474 -0.2683 -0.1914  0.1640
96709W        W39626  20.652  30.325  26.570  0.0828  0.0091  0.3952
96710W        W39627  18.393  32.584  25.453 -0.1605 -0.2948 -0.0640
96711W        W39628  19.227  32.783  25.466  0.0017  0.1997  0.1722
96712W        W39629  22.090  32.293  25.848  0.1206 -0.2481 -0.0697
96713W        W39630  18.747  34.060  23.862 -0.1765 -0.0564 -0.0568
96714W        W39631  18.617  33.975  24.805  0.1851  0.0142  0.0227
96715W        W39632  18.847  32.361  25.294  0.1420 -0.1016 -0.1688
96716W        W39633  20.502  31.901  24.077  0.3992  0.0529  0.0750
96717W        W39634  21.264  33.387  27.883 -0.1049  0.1147 -0.0812
96718W        W39635  21.661  32.086  26.031 -0.1947  0.2572  0.1145
96719W        W39636  18.881  31.859  25.239 -0.1570 -0.0211 -0.1458
96720W        W39637  20.139  34.543  27.284 -0.2596 -0.0684  0.4086
96721W        W39638  17.985  33.310  28.290  0.0890 -0.0757 -0.2966
96722W        W39639  21.075  29.578  28.674  0.0605 -0.1311  0.1580
96723W        W39640  18.407  31.999  27.125  0.0165 -0.2710 -0.0078
96724W        W39641  17.207  31.975  24.173  0.0394  0.2704 -0.1643
96725W        W39642  19.972  34.014  26.974  0.3739 -0.1312  0.0903
96726W        W39643  18.981  31.846  28.865 -0.1937  0.1341  0.1472
96727W        W39644  17.812  30.789  24.748 -0.0105  0.1793 -0.1370
96728W        W39645  21.657  30.633  26.509  0.0805 -0.0376 -0.2591
96729W        W39646  19.952  33.592  25.478 -0.0035  0.0509  0.0390
96730W        W39647  19.488  30.808  23.633 -0.1661  0.0524 -0.4049
96731W        W39648  20.468  30.465  24.689 -0.2913 -0.2636  0.1410
96732W        W39649  21.289  31.186  25.182  0.0044 -0.0705 -0.0970
96733W        W39650  19.230  31.239  25.684 -0.0876 -0.1522 -0.2918
96734W        W39651  18.225  33.398  25.758 -0.1382 -0.0466 -0.2227
96735W        W39652  19.688  30.509  26.153  0.1063 -0.1312  0.0753
96736W        W39653  21.765  33.150  26.630  0.0298  0.1723  0.3076
96737W        W39654  20.464  32.329  24.302 -0.1103  0.4844 -0.1874
96738W        W39655  20.086  31.562  26.632 -0.3274  0.0827 -0.0677
96739W        W39656  20.083  31.796  26.097 -0.2210  0.1529 -0.0528
96740W        W39657  16.920  31.843  22.475 -0.2928 -0.0237 -0.0741
96741W        W39658  20.146  31.494  23.404  0.3241 -0.0409 -0.4335
96742W        W39659  23.200  31.383  25.055  0.2213 -0.0105  0.1834
96743W        W39660  20.106  32.903  22.803 -0.0792  0.2527 -0.0681
96744W        W39661  19.514  32.114  24.474 -0.0597  0.3255 -0.2075
96745W        W39662  18.445  32.455  28.758  0.0873  0.0863  0.0921
96746W        W39663  17.715  30.418  27.940 -0.2180 -0.1861 -0.6247
96747W        W39664  19.524  29.318  23.294 -0.2813 -0.1414  0.1904
96748W        W39665  20.060  33.992  27.978  0.1523 -0.0181 -0.0973
96749W        W39666  17.706  31.748  26.524 -0.0482 -0.4739 -0.1272
96750W        W39667  21.591  31.893  25.565  0.0650 -0.1749  0.1471
96751W        W39668  19.586  34.146  26.579  0.2806 -0.2691 -0.4684
96752W        W39669  19.321  31.927  28.018 -0.1338  0.1447 -0.2031
96753W        W39670  21.332  32.222  24.623 -0.0777 -0.2143 -0.1210
96754W        W39671  22.017  28.614  24.647  0.0275  0.2657 -0.1799
96755W        W39672  22.708  28.300  27.053  0.0215  0.2272  0.0244
96756W        W39673  19.218  32.627  24.953 -0.5573  0.0626 -0.0752
96757W        W39674  21.069  32.645  21.327  0.0617  0.1938  0.0585
96758W        W39675  20.950  31.259  26.095  0.2085  0.0687  0.0894
96759W        W39676  20.270  34.347  23.049 -0.2914  0.0966 -0.0219
96760W        W39677  17.302  31.937  24.699  0.0042  0.4141  0.1627
96761W        W39678  21.050  30.127  27.937 -0.0514 -0.1506  0.0670
96762W        W39679  22.092  33.278  27.675 -0.1133 -0.1469  0.0302
96763W        W39680  17.293  31.820  25.324 -0.2856 -0.1670 -0.1451
96764W        W39681  18.042  30.887  24.336 -0.0820  0.2841 -0.1942
96765W        W39682  19.320  33.432  24.624  0.1257 -0.0673  0.0771
96766W        W39683  19.478  30.579  26.641 -0.2223  0.1704 -0.2255
96767W        W39684  18.817  30.953  26.515  0.1956  0.1783  0.3959
96768W        W39685  22.018  28.143  23.812  0.0642  0.0459  0.1079
96769W        W39686  17.128  30.865  27.293 -0.1936  0.0924  0.0443
96770W        W39687  20.480  29.181  23.678  0.0354  0.2162 -0.1085
96771W        W39688  18.399  30.606  26.731 -0.0994  0.2042  0.0762
96772W        W39689  21.420  32.909  23.314 -0.1207 -0.2272  0.1446
96773W        W39690  21.927  29.574  24.849 -0.2293 -0.2785  0.0478
96774W        W39691  20.911  32.545  24.522  0.0292  0.1774 -0.1324
96775W        W39692  16.998  30.434  27.644  0.0266  0.1522  0.2261
96776W        W39693  18.536  31.102  25.491 -0.2412 -0.0249  0.3239
96777W        W39694  18.994  27.787  28.581  0.0221  0.1297 -0.0979
96778W        W39695  19.076  30.158  27.171  0.3044 -0.0348 -0.0438
96779W        W39696  20.753  32.360  27.106  0.1267 -0.1920 -0.2512
96780W        W39697  18.258  28.967  23.170 -0.0191  0.0081  0.0857
96781W        W39698  19.325  31.054  26.698  0.0131  0.3092 -0.2054
96782W        W39699  18.491  29.908  24.542 -0.0856  0.0701  0.2147
96783W        W39700  20.540  30.097  23.801  0.4745 -0.0290  0.0289
96784W        W39701  20.275  30.682  28.361 -0.0296 -0.0753 -0.0080
96785W        W39702  20.445  32.328  27.596 -0.2354 -0.1740 -0.1168
96786W        W39703  19.248  33.883  26.199  0.3030 -0.2000 -0.1107
96787W        W39704  21.453  33.072  24.311 -0.1215 -0.0791 -0.2729
96788W        W39705  18.834  31.546  27.905 -0.0541  0.1574  0.3081
96789W        W39706  18.513  30.422  24.739 -0.1311 -0.3428  0.3885
96790W        W39707  20.649  33.265  27.148  0.0747 -0.3475 -0.0044
96791W        W39708  19.140  33.411  26.245  0.1343 -0.5658  0.0004
96792W        W39709  19.297  29.708  24.913 -0.1147  0.1178 -0.2028
96793W        W39710  21.283  33.431  26.068 -0.1298 -0.0008 -0.1126
96794W        W39711  20.611  31.570  25.895 -0.1142 -0.1029 -0.0513
96795W        W39712  18.503  31.909  28.008  0.1859  0.0141  0.0935
96796W        W39713  20.945  28.965  26.325 -0.0742 -0.5653  0.0777
96797W        W39714  21.169  32.367  26.763  0.0194  0.0101  0.0848
96798W        W39715  19.388  29.226  27.040 -0.1258 -0.1070 -0.2252
96799W        W39716  17.989  30.846  25.555  0.1593  0.0900 -0.0449
96800W        W39717  18.357  34.606  25.918  0.1058 -0.0834  0.2200
96801W        W39718  19.143   0.100  23.899  0.4588  0.2316  0.1457
96802W        W39719  15.502  30.060  25.693 -0.1768  0.2437 -0.0155
96803W        W39720  18.494  33.272  25.204  0.1110 -0.1070  0.1978
96804W        W39721  21.367  31.495  23.841  0.0249  0.1758  0.2363
96805W        W39722  17.994  32.158  26.894 -0.2799  0.3247  0.2061
96806W        W39723  19.847  33.131  26.787  0.0277  0.2502 -0.0992
96807W        W39724  19.805  31.805  23.659  0.1814  0.0969  0.2462
96808W        W39725  16.888  32.141  28.324 -0.3014  0.0019  0.0098
96809W        W39726  19.979  29.145  24.740 -0.0561 -0.2265  0.6251
96810W        W39727  21.530  32.292  23.377  0.0781 -0.0592  0.0348
96811W        W39728  18.718  33.327  25.853 -0.3181  0.1133  0.4814
96812W        W39729  20.707  32.364  25.512 -0.1330  0.0327  0.1772
96813W        W39730  20.237  31.912  24.549  0.2267  0.0133  0.0652
96814W        W39731  21.444  31.050  24.066  0.3291 -0.0488 -0.0770
96815W        W39732  16.602  32.204  27.017  0.0531 -0.0079  0.0040
96816W        W39733  18.843  33.397  24.292 -0.1738  0.2701 -0.2538
96817W        W39734  19.720  31.453  26.237 -0.2754 -0.0430  0.0954
96818W        W39735  20.844  29.050  21.371  0.1191 -0.1561 -0.3352
96819W        W39736  20.333  34.076  22.121 -0.3726  0.0085  0.2728
96820W        W39737  19.516  31.527  26.704  0.1180  0.3756 -0.1716
96821W        W39738  19.999  32.741  27.121  0.0200  0.0164 -0.1384
96822W        W39739  20.501  33.199  23.804 -0.2750 -0.0610 -0.0383
96823W        W39740  21.307  27.381  26.047  0.3918 -0.0156  0.0031
96824W        W39741  19.857  32.527  24.057 -0.0538  0.0933 -0.0101
96825W        W39742  19.112  29.259  23.738  0.0426 -0.1314  0.1323
96826W        W39743  20.017  32.720  26.146 -0.0833 -0.1226 -0.2367
96827W        W39744  19.886  29.286  24.189 -0.2492 -0.1906  0.0796
96828W        W39745  20.098  32.425  27.991  0.1841  0.1372  0.0630
96829W        W39746  23.061  30.187  26.807  0.0044 -0.1716  0.0680
96830W        W39747  20.577  31.399  26.544 -0.2598 -0.2453 -0.0666
96831W        W39748  21.831  31.360  21.864  0.0544 -0.1160  0.1018
96832W        W39749  19.675   0.173  27.286  0.0409  0.0685 -0.0537
96833W        W39750  17.217  31.150  25.168  0.0863 -0.1597  0.0766
96834W        W39751  20.654  28.582  26.284  0.2160 -0.2544  0.2374
96835W        W39752  17.838  30.094  25.754 -0.1446  0.2831 -0.2167
96836W        W39753  18.943  31.095  28.097 -0.1753  0.1074  0.3840
96837W        W39754  22.080  31.091  25.169  0.0574 -0.3612  0.1677
96838W        W39755  18.643  31.428  26.294 -0.1363  0.0041  0.0573
96839W        W39756  18.872  30.590  26.903  0.0740 -0.1128 -0.1045
96840W        W39757  19.031  29.177  24.401 -0.0692  0.0304 -0.2148
96841W        W39758  17.482   0.263  25.547  0.0794  0.1200 -0.1118
96842W        W39759  20.084  33.343  24.067 -0.3495 -0.0965 -0.0821
96843W        W39760  18.243  29.771  24.992 -0.0263 -0.1245  0.3838
96844W        W39761  19.754  34.588  26.259 -0.2565  0.1851 -0.1507
96845W        W39762  19.970  32.429  26.674  0.0486  0.1696  0.0154
96846W        W39763  20.713   0.771  28.158 -0.4421  0.0385 -0.0815
96847W        W39764  18.582  32.440  25.869  0.3041  0.1377  0.4928
96848W        W39765  20.540  29.280  24.821  0.0194 -0.0610  0.1021
96849W        W39766  17.388  31.951  28.203 -0.0484 -0.6602  0.0429
96850W        W39767  21.400  31.262  24.579 -0.1216  0.1377  0.2620
96851W        W39768  19.054  29.294  25.490 -0.0312  0.0737 -0.0096
96852W        W39769  19.530  30.824  25.645  0.0217 -0.1045 -0.0214
96853W        W39770  21.411  32.813  26.545  0.1123 -0.1712  0.1313
96854W        W39771  21.149  28.772  27.161  0.0830 -0.0056  0.2240
96855W        W39772  19.521  28.851  25.608  0.1984 -0.3454  0.4332
96856W        W39773  18.920  30.940  26.025 -0.0906 -0.1400  0.2073
96857W        W39774  18.736  28.708  26.085 -0.2023 -0.1340 -0.3377
96858W        W39775  19.329  29.390  22.710 -0.1496 -0.0363 -0.3601
96859W        W39776  21.869  31.554  26.688  0.1353  0.0480  0.0967
96860W        W39777  20.606  31.041  25.828  0.0319  0.0791  0.1353
96861W        W39778  18.081  29.477  23.602 -0.0813 -0.0029  0.0769
96862W        W39779  20.689  30.517  25.169 -0.0651  0.1834  0.0532
96863W        W39780  19.129  31.777  24.448 -0.0919  0.0408  0.2031
96864W        W39781  17.566  30.514  25.962 -0.1536 -0.0057  0.0043
96865W        W39782  20.660  34.046  27.384 -0.4293 -0.0148 -0.1880
96866W        W39783  19.482  32.604  24.458 -0.0002 -0.0335  0.2517
96867W        W39784  17.216  31.566  26.436  0.1057 -0.3785 -0.1104
96868W        W39785  19.884  31.055  26.931 -0.0321 -0.1941  0.1677
96869W        W39786  22.436  31.828  27.341  0.2466  0.1347 -0.2028
96870W        W39787  18.722  29.777  27.026  0.0013 -0.3716  0.0197
96871W        W39788  19.828  28.242  26.660 -0.1391  0.2444  0.0880
96872W        W39789  19.834  33.282  23.024  0.4442  0.1651 -0.0481
96873W        W39790  20.589  29.509  26.918 -0.3843 -0.2298 -0.1162
96874W        W39791  21.513  29.843  27.022  0.3861  0.0097 -0.0526
96875W        W39792  18.585  32.916  27.276 -0.0545  0.1703 -0.4811
96876W        W39793  21.947  29.185  24.491  0.0026 -0.5557  0.1436
96877W        W39794  19.520   0.240  23.133  0.3492 -0.3098  0.0256
96878W        W39795  19.631  33.569  26.414  0.1800 -0.0725  0.0891
96879W        W39796  21.598  28.480  23.839 -0.3620  0.0912  0.0026
96880W        W39797  21.418  32.055  27.717  0.2562  0.0730  0.1821
96881W        W39798  18.813  31.443  25.794 -0.2743 -0.1105  0.1611
96882W        W39799  19.734  29.653  27.245  0.1899  0.2414 -0.1980
96883W        W39800  18.018  32.653  26.768 -0.0143 -0.0023 -0.2365
96884W        W39801  19.349  31.508  24.860  0.0234 -0.0639 -0.0312
96885W        W39802  17.868  31.889  24.605 -0.1107 -0.2012 -0.0307
96886W        W39803  22.881  28.443  25.090  0.0229  0.3368  0.1390
96887W        W39804  21.193  32.201  25.530 -0.0715 -0.0434  0.0876
96888W        W39805  19.798  31.950  26.507  0.0515 -0.1478 -0.2434
96889W        W39806  21.957  30.128  27.087 -0.0275  0.1331  0.1633
96890W        W39807  21.130  31.724  24.733  0.0964 -0.2839 -0.2959
96891W        W39808  21.595  29.038  27.591 -0.0957 -0.1346  0.0815
96892W        W39809  17.737  30.166  26.286 -0.1198 -0.2937  0.0772
96893W        W39810  20.191   0.196  26.358 -0.2168 -0.0437  0.1260
96894W        W39811  17.966  27.940  26.685 -0.0210 -0.0821  0.0677
96895W        W39812  19.751  32.965  29.039 -0.1374 -0.0548 -0.0086
96896W        W39813  19.514  33.132  27.213 -0.2817  0.3481 -0.0334
96897W        W39814  21.146  28.069  22.133 -0.1817  0.3871 -0.0304
96898W        W39815  18.594  29.632  23.592 -0.1526 -0.1014  0.1030
96899W        W39816  22.271  31.859  26.316  0.1060  0.0743  0.2336
96900W        W39817  20.460  30.630  25.579  0.0698  0.1577 -0.0738
96901W        W39818  20.242  32.814  24.100 -0.1190 -0.1673 -0.2129
96902W        W39819  20.666  32.618  25.972 -0.1428  0.1216  0.0846
96903W        W39820  18.157  28.799  27.175  0.0999  0.1149 -0.0135
96904W        W39821  20.202  30.066  25.061  0.2629 -0.2298 -0.2694
96905W        W39822  20.418  31.020  24.829  0.0457  0.1432  0.3931
96906W        W39823  19.892  31.730  25.494 -0.2363 -0.1027 -0.2770
96907W        W39824  20.248  29.886  27.371  0.0530  0.2058  0.3392
96908W        W39825  20.384  33.666  26.223  0.0965  0.1147 -0.1103
96909W        W39826  19.003  30.491  24.847 -0.2808  0.3088 -0.2700
96910W        W39827  21.061  30.850  25.706  0.1396 -0.0301  0.0275
96911W        W39828  20.493  31.230  28.215  0.1198 -0.2294 -0.1433
96912W        W39829  18.122  32.469  27.800 -0.1046 -0.0327 -0.1140
96913W        W39830  18.157  28.310  27.993 -0.1690  0.0327 -0.0265
96914W        W39831  20.376  31.525  24.874 -0.0938  0.2559 -0.0053
96915W        W39832  19.826  31.193  23.743  0.1145 -0.2331  0.4441
96916W        W39833  20.079  31.400  24.500 -0.0228  0.1314  0.0311
96917W        W39834  20.389  32.621  26.529 -0.1279 -0.0010  0.4496
96918W        W39835  18.221  31.275  25.895  0.0417 -0.2467  0.2219
96919W        W39836  19.221  30.954  24.904  0.3655 -0.1747 -0.1165
96920W        W39837  20.760  30.622  26.061 -0.1255 -0.1172  0.1067
96921W        W39838  18.918  29.625  24.005 -0.0827  0.0417 -0.0653
96922W        W39839  20.851  29.079  26.824 -0.4077 -0.2750 -0.1781
96923W        W39840  19.058  32.961  21.829  0.0533  0.0785 -0.3601
96924W        W39841  19.317  33.242  26.760 -0.0254 -0.2353  0.0574
96925W        W39842  22.678  31.013  24.787  0.1889 -0.3986 -0.0377
96926W        W39843  16.976  31.562  24.786 -0.0515  0.1333 -0.1691
96927W        W39844  18.895  32.198  27.813 -0.3008 -0.0252 -0.1542
96928W        W39845  19.030  31.360  25.229  0.1399  0.0473  0.0122
96929W        W39846  20.072  31.615  22.933 -0.0788  0.0867 -0.0880
96930W        W39847  17.688  32.677  26.259  0.0246  0.2209 -0.0091
96931W        W39848  20.436  31.327  25.426  0.1767 -0.0538 -0.0851
96932W        W39849  17.689  29.065  23.658  0.0947 -0.3604  0.0349
96933W        W39850  22.306  31.424  24.851  0.2957  0.0098 -0.1947
96934W        W39851  18.488  32.640  24.941  0.1535  0.1468  0.1289
96935W        W39852  22.549  29.221  25.867  0.4147  0.3559  0.3071
96936W        W39853  19.136  33.039  25.962 -0.1804 -0.0818  0.0315
96937W        W39854  18.672  30.426  29.491 -0.0586 -0.0602 -0.1204
96938W        W39855  19.436  31.737  25.896 -0.2162 -0.0228  0.0363
96939W        W39856  19.791  28.108  28.036 -0.0520 -0.2126 -0.2785
96940W        W39857  19.660  31.407  27.225  0.1972 -0.0413  0.0128
96941W        W39858  20.118  30.029  27.859  0.1650  0.1827 -0.4494
96942W        W39859  21.139  30.495  26.651  0.0446 -0.3595  0.2192
96943W        W39860  19.588  33.724  28.058  0.0005  0.0821  0.2385
96944W        W39861  18.804  32.142  24.810  0.1342  0.5131  0.1321
96945W        W39862  18.878   0.569  28.537  0.0540  0.0904 -0.0692
96946W        W39863  20.775  32.069  25.985 -0.1306 -0.1169  0.0701
96947W        W39864  20.361  33.011  26.830  0.0042  0.0431  0.1233
96948W        W39865  16.769  30.948  27.658  0.1022  0.1256 -0.0439
96949W        W39866  20.414  31.515  28.945 -0.2577  0.1678 -0.0250
96950W        W39867  18.266  31.936  25.619  0.1634 -0.3647 -0.1838
96951W        W39868  18.563  29.202  24.476 -0.0476 -0.0402  0.1160
96952W        W39869  19.646  31.658  23.157  0.3019 -0.0128  0.1749
96953W        W39870  18.592  30.906  28.442 -0.0471  0.0409 -0.1750
96954W        W39871  19.179  32.498  25.865  0.0250 -0.0749  0.1340
96955W        W39872  20.485  32.796  24.558  0.1614 -0.0817  0.0047
96956W        W39873  20.542  31.893  27.144 -0.3299 -0.4618 -0.4423
96957W        W39874  21.143  30.563  22.782  0.1106  0.1458  0.0306
96958W        W39875  17.916  33.109  26.440 -0.1084  0.3587 -0.0409
96959W        W39876  19.756  31.257  22.730  0.2532  0.1234 -0.1413
96960W        W39877  17.616  32.668  25.241  0.2466  0.2768  0.3921
96961W        W39878  16.753  32.162  23.959 -0.2163 -0.0158  0.0375
96962W        W39879  20.989  31.408  25.566 -0.0358  0.3004  0.0328
96963W        W39880  18.446  34.245  26.326 -0.0675  0.1249 -0.2021
96964W        W39881  20.968  32.618  26.381  0.2265 -0.2354 -0.0175
96965W        W39882  19.785  28.852  24.361  0.2613 -0.0936 -0.0472
96966W        W39883  21.092  30.230  26.169 -0.1793 -0.1575 -0.0891
96967W        W39884  19.549  30.666  24.623  0.2429 -0.1790 -0.2416
96968W        W39885  20.753  33.538  27.532  0.0257 -0.0909  0.1064
96969W        W39886  20.599  29.032  27.237 -0.0422  0.2059  0.0564
96970W        W39887  18.462  30.985  23.499  0.2266  0.1986  0.1034
96971W        W39888  18.505  31.470  27.162 -0.1786  0.1568  0.1978
96972W        W39889  22.921  31.050  28.344 -0.1292  0.2936 -0.0957
96973W        W39890  18.187  33.797  27.120 -0.0693  0.1257 -0.1113
96974W        W39891  21.328  33.390  25.524 -0.1997 -0.0876  0.0035
96975W        W39892  18.489  30.017  23.223 -0.0179 -0.0997  0.0074
96976W        W39893  19.243  30.037  25.903  0.1777  0.0575 -0.0776
96977W        W39894  20.142  30.892  25.216 -0.0994 -0.0483  0.1261
96978W        W39895  19.890  32.023  24.174 -0.1265 -0.0332 -0.3203
96979W        W39896  19.970  29.589  25.036 -0.0930 -0.4431 -0.0992
96980W        W39897  18.856  32.959  25.104  0.1035 -0.0530  0.0941
96981W        W39898  21.093  31.522  26.504 -0.2314 -0.0897 -0.1181
96982W        W39899  19.387  33.206  25.062  0.3117 -0.2716  0.0577
96983W        W39900  17.267  30.555  23.504  0.2895  0.4239  0.1706
96984W        W39901  21.962  31.717  25.099  0.1351 -0.0405  0.0434
96985W        W39902  18.398  31.503  27.622  0.3338  0.0456 -0.1662
96986W        W39903  21.019  30.527  24.723 -0.2440 -0.1614 -0.0180
96987W        W39904  19.070  31.754  23.698 -0.1148 -0.0112  0.1255
96988W        W39905  19.139  30.197  25.209  0.2835  0.2372 -0.2707
96989W        W39906  20.008  33.225  28.588  0.0373  0.0641 -0.2781
96990W        W39907  19.485  32.674  27.412 -0.2060 -0.1063 -0.0843
96991W        W39908  20.574  31.765  23.624 -0.2115 -0.0324  0.0205
96992W        W39909  19.708  31.286  25.747 -0.0053  0.0765 -0.0911
96993W        W39910  19.963  28.974  22.182 -0.1210 -0.1412 -0.0194
96994W        W39911  19.671  32.800  28.531 -0.2207 -0.1526  0.1892
96995W        W39912  18.871  30.023  24.863 -0.0526 -0.1266  0.1113
96996W        W39913  19.458  29.165  24.704  0.0433  0.0055 -0.1859
96997W        W39914  18.341  31.270  24.516 -0.1652  0.0946  0.0036
96998W        W39915  19.218  32.274  27.288  0.1097  0.1478 -0.0822
96999W        W39916  23.000  31.439  26.570 -0.1738 -0.0771  0.0612
97000W        W39917  18.623  29.063  25.279 -0.1302  0.0136  0.1385
97001W        W39918  21.788  33.432  25.031 -0.2779 -0.1403  0.0368
97002W        W39919  22.585  31.803  24.787  0.0060  0.0560 -0.0404
97003W        W39920  19.750  34.643  24.463 -0.3365 -0.0793  0.2597
97004W        W39921  19.017  34.352  27.168  0.2107 -0.0090  0.0060
97005W        W39922  19.351  34.323  25.934  0.2900  0.3187  0.1410
97006W        W39923  17.391  29.924  25.074  0.0244 -0.2212  0.0548
97007W        W39924  19.852  32.214  26.084  0.1360 -0.1312  0.0284
97008W        W39925  22.246  34.335  26.497 -0.2556 -0.0048 -0.0401
97009W        W39926  17.808  31.060  23.771  0.1423  0.0781  0.0288
97010W        W39927  18.935  32.005  25.714  0.2457  0.1917  0.2530
97011W        W39928  19.255  33.072  24.054 -0.1583 -0.2735  0.0464
97012W        W39929  22.067  31.936  25.497  0.0246  0.4493 -0.0553
97013W        W39930  21.378  29.849  25.304  0.2970  0.2718 -0.0952
97014W        W39931  18.370  34.305  23.510  0.3597  0.3108 -0.1125
97015W        W39932  21.427  28.524  27.649 -0.1836  0.0102 -0.2466
97016W        W39933  20.381  33.327  25.347 -0.2331 -0.0480 -0.0182
97017W        W39934  17.368  32.658  26.701 -0.2381  0.1242  0.0513
97018W        W39935  17.638  30.072  23.595 -0.0156 -0.1086 -0.0092
97019W        W39936  19.385  30.003  27.585 -0.1513 -0.2016 -0.2072
97020W        W39937  18.970  32.711  24.134  0.0058  0.2361 -0.0259
97021W        W39938  19.874  31.040  24.766  0.1166  0.3105  0.1862
97022W        W39939  19.229  31.406  26.338  0.2738  0.1294 -0.0149
97023W        W39940  18.269  29.219  25.004  0.0580  0.2353  0.1417
97024W        W39941  23.682  32.514  26.273 -0.3043  0.1244 -0.1779
97025W        W39942  18.115  28.519  26.569  0.0025 -0.2311 -0.0476
97026W        W39943  21.741  29.745  23.062 -0.5209  0.3280  0.5013
97027W        W39944  18.281  29.452  25.476 -0.1677  0.2013  0.1365
97028W        W39945  20.313  32.003  25.716 -0.1682 -0.3065  0.3552
97029W        W39946  18.117  30.517  25.067  0.1499 -0.1254  0.0250
97030W        W39947  17.332  33.500  23.563  0.0485  0.0896  0.1359
97031W        W39948  17.896  31.372  24.698  0.0723  0.4779  0.0150
97032W        W39949  19.540  30.755  27.193  0.1211  0.1495  0.1434
97033W        W39950  19.267  31.521  27.581  0.4311  0.1547  0.0793
97034W        W39951  17.593  30.943  27.061  0.0344 -0.0935 -0.0871
97035W        W39952  17.810  28.199  26.234 -0.0684  0.1277  0.0837
97036W        W39953  19.978  34.080  26.179  0.0862  0.0601 -0.1494
97037W        W39954  16.931  29.463  24.538 -0.0979 -0.0716  0.1130
97038W        W39955  18.660  29.637  26.310 -0.0548  0.2139 -0.0202
97039W        W39956  19.969  33.473  26.054 -0.2229  0.2309  0.1092
97040W        W39957  21.009  32.477  27.618 -0.3329 -0.1431 -0.3078
97041W        W39958  19.075  30.560  25.778 -0.2192  0.2687 -0.3123
97042W        W39959  18.948  32.092  28.325  0.1923 -0.2554 -0.2052
97043W        W39960  18.350  32.203  24.088 -0.0909 -0.1908  0.0223
97044W        W39961  19.670  29.511  27.759  0.2004  0.0594 -0.1898
97045W        W39962  21.114  29.893  27.440 -0.1365  0.1799  0.4003
97046W        W39963  18.458  29.982  24.015  0.1510 -0.1820  0.0403
97047W        W39964  18.776  31.165  27.597 -0.0736  0.0806  0.2391
97048W        W39965  19.818   0.079  25.348 -0.0198  0.1202  0.3094
97049W        W39966  21.505  31.763  23.442  0.2503  0.3595  0.1329
97050W        W39967  17.321  31.247  26.077  0.1381 -0.0792 -0.0503
97051W        W39968  19.602  33.102  26.124 -0.0094  0.0152 -0.1714
97052W        W39969  17.026  27.925  27.286 -0.2063 -0.2196  0.0208
97053W        W39970  20.232  32.506  25.691 -0.1323  0.3516  0.0084
97054W        W39971  19.698  33.946  25.758  0.0567 -0.1390 -0.0304
97055W        W39972  23.661  31.620  25.251  0.0577  0.1605 -0.1638
97056W        W39973  21.735  31.951  28.198  0.1889 -0.0212 -0.0505
97057W        W39974  21.268  30.083  22.977  0.2106  0.1942 -0.3122
97058W        W39975  18.335  27.949  28.623 -0.3203 -0.2209  0.3122
97059W        W39976  18.491  31.466  28.440 -0.3400 -0.1758  0.2114
97060W        W39977  20.921  33.198  25.719  0.2181  0.0848  0.1645
97061W        W39978  17.903  30.036  25.243  0.3877 -0.0745  0.0455
97062W        W39979  18.931  29.684  24.496  0.0660  0.1075  0.0161
97063W        W39980  20.271  33.709  24.419 -0.1288  0.1355  0.0389
97064W        W39981  20.225  29.160  25.242 -0.3631 -0.1511  0.0237
97065W        W39982  21.887  30.286  23.623 -0.1550  0.2889  0.0897
97066W        W39983  20.849  31.952  26.728  0.2061  0.1696 -0.0287
97067W        W39984  18.748  32.877  25.646 -0.1062 -0.0054  0.1257
97068W        W39985  19.161  30.492  26.271  0.0116 -0.2522  0.1213
97069W        W39986  20.845  30.007  23.412 -0.4254  0.1225  0.0191
97070W        W39987  21.416  31.659  25.130  0.0907  0.3640  0.1981
97071W        W39988  18.446  34.058  25.873  0.2664 -0.0466  0.0770
97072W        W39989  21.065  33.801  28.103 -0.2271  0.1218  0.0169
97073W        W39990  18.985   0.150  25.975  0.2269  0.1073 -0.0874
97074W        W39991  20.261  33.126  26.395  0.1516 -0.2198 -0.1252
97075W        W39992  18.343  29.599  26.747 -0.3541 -0.1157  0.0662
97076W        W39993  20.605  33.430  26.606 -0.1216 -0.1227  0.0565
97077W        W39994  19.472  32.175  26.824  0.2335  0.1662 -0.2383
97078W        W39995  21.948  31.614  25.932  0.2496 -0.2978 -0.2785
97079W        W39996  17.544  30.373  24.826 -0.1130  0.2138  0.0258
97080W        W39997  22.609  28.873  25.249 -0.1169 -0.0154  0.0611
97081W        W39998  19.343  33.568  25.834 -0.2808  0.1555  0.1588
97082W        W39999  18.636  32.687  26.756 -0.2701  0.0307  0.0912
97083W        W40000  16.161  31.463  29.136  0.1575  0.3853 -0.1429
97084W        W40001  18.078  29.916  30.222 -0.2327  0.0810 -0.0976
97085W        W40002  19.557  30.240  25.568  0.2157 -0.0401 -0.0751
97086W        W40003  18.635  29.884  29.531  0.2350 -0.1696  0.1082
97087W        W40004  19.589  28.608  27.404 -0.0446 -0.0868 -0.2562
97088W        W40005  21.453  33.764  29.743 -0.4661  0.1630 -0.0946
97089W        W40006  21.580  29.588  31.019 -0.1272 -0.2080 -0.1639
97090W        W40007  21.461  32.308  29.094 -0.2546  0.2654  0.2670
97091W        W40008  22.848  33.610  30.575  0.1731 -0.1844 -0.0254
97092W        W40009  20.317  32.209  26.220  0.2101 -0.1382 -0.2616
97093W        W40010  20.656  29.775  29.773 -0.0162  0.3470  0.2129
97094W        W40011  21.434  28.683  31.290 -0.1752  0.0001 -0.2431
97095W        W40012  20.411  29.861  28.287  0.0607  0.4222 -0.1558
97096W        W40013  18.843  28.625  28.975 -0.0774 -0.2490  0.2544
97097W        W40014  20.618  30.284  29.240 -0.1155  0.1540 -0.0860
97098W        W40015  16.690  31.126  27.156 -0.0166 -0.0337 -0.2723
97099W        W40016  19.337  31.510  30.184  0.0965 -0.0946 -0.1630
97100W        W40017  19.149  30.832  28.546  0.0284 -0.0197  0.0787
97101W        W40018  22.375  33.858  29.599  0.2775  0.0276 -0.0995
97102W        W40019  20.264  27.763  31.253 -0.0007 -0.0951  0.2741
97103W        W40020  22.768  29.044  30.163  0.2659 -0.0436 -0.1882
97104W        W40021  18.362  30.689  29.808 -0.0146 -0.0993  0.1421
97105W        W40022  18.018  31.552  28.685 -0.0513 -0.3349 -0.0458
97106W        W40023  17.891  31.573  31.765 -0.1546 -0.2097 -0.1247
97107W        W40024  19.624  30.313  31.004  0.1237  0.1063 -0.0568
97108W        W40025  21.853  29.635  30.551 -0.0699 -0.0140  0.2795
97109W        W40026  19.863  30.285  27.402  0.1646  0.0078  0.0659
97110W        W40027  19.434  31.977  30.005 -0.1460  0.1263 -0.1474
97111W        W40028  20.523  30.651  29.557  0.0589  0.0927 -0.1634
97112W        W40029  22.485  29.726  29.119 -0.1512 -0.1608  0.3570
97113W        W40030  18.175  33.118  28.809  0.1863 -0.0503 -0.1232
97114W        W40031  18.620  32.874  28.596  0.2930  0.2944  0.2660
97115W        W40032  20.143  31.550  30.365  0.6206  0.0237  0.2730
97116W        W40033  20.902  31.833  28.598 -0.0565  0.0156 -0.0690
97117W        W40034  21.296  33.180   0.632 -0.3067  0.1242  0.1922
97118W        W40035  21.109  33.533  31.227  0.0122 -0.2341  0.1582
97119W        W40036  18.582  32.565  27.719  0.2503 -0.3296  0.0442
97120W        W40037  21.337  31.241  31.142  0.0980  0.1168 -0.0339
97121W        W40038  20.305  33.468   0.003  0.2990  0.4569  0.4335
97122W        W40039  20.783  30.782  30.521  0.0636  0.0890 -0.0118
97123W        W40040  22.282  31.010  28.633  0.3022 -0.0850  0.0345
97124W        W40041  17.406  32.230  27.695  0.1544  0.0721 -0.0102
97125W        W40042  20.890  30.118  31.187 -0.1261 -0.0515 -0.0432
97126W        W40043  20.829  29.978  28.457 -0.2085 -0.0803  0.1594
97127W        W40044  18.030  31.997  29.096 -0.0195 -0.2583 -0.0750
97128W        W40045  19.298  29.134  28.755 -0.1744  0.1917  0.0930
97129W        W40046  17.830  33.636  29.351 -0.1658  0.1952 -0.0625
97130W        W40047  20.437  30.880  27.911 -0.0299 -0.0105  0.0844
97131W        W40048  21.699  29.508  28.708 -0.0721 -0.1532 -0.1688
97132W        W40049  19.889  31.855  29.888 -0.0963  0.1316 -0.0328
97133W        W40050  18.806  29.752  29.114 -0.0377 -0.0423  0.0308
97134W        W40051  20.352  32.572  30.315  0.3151  0.2780  0.3887
97135W        W40052  21.394  27.938  29.917  0.3568  0.1642 -0.1502
97136W        W40053  20.664  30.698  30.037  0.2220 -0.0978  0.0142
97137W        W40054  19.588  31.935  27.416  0.2119 -0.0568  0.1290
97138W        W40055  20.813  28.749  30.255 -0.0796 -0.3671 -0.0383
97139W        W40056  19.149  34.399  29.016  0.3480  0.1258  0.2651
97140W        W40057  18.064  30.663  28.399  0.0699 -0.0784  0.0975
97141W        W40058  19.752  31.607  27.729  0.1320  0.2757 -0.1795
97142W        W40059  20.782   0.166  28.813 -0.0688  0.1315 -0.0742
97143W        W40060  19.231  32.132  29.280  0.2030  0.2675  0.0786
97144W        W40061  19.279  31.150  29.039 -0.1139  0.3130 -0.1534
97145W        W40062  18.726  32.017  30.768 -0.0803 -0.2240 -0.0254
97146W        W40063  18.526  31.080  31.800 -0.2180 -0.1824  0.0955
97147W        W40064  21.633  29.252  25.259  0.1874 -0.2430 -0.0723
97148W        W40065  21.676  30.972  30.890  0.0403  0.2656  0.2429
97149W        W40066  16.746   0.353  31.602 -0.1277 -0.0562 -0.1150
97150W        W40067  22.312  29.572  27.654 -0.0796  0.0628 -0.0676
97151W        W40068  20.139  32.206  29.682 -0.0238  0.2310  0.0711
97152W        W40069  20.735  32.791  30.462  0.0677 -0.2964 -0.1779
97153W        W40070  19.876  32.383  27.517  0.4276 -0.3083  0.2116
97154W        W40071  20.873  29.942  28.947 -0.0072  0.1204 -0.1697
97155W        W40072  23.564  30.447  28.618 -0.3173  0.0758 -0.0009
97156W        W40073  18.523  28.806  28.115  0.0950 -0.2778  0.0580
97157W        W40074  20.839  33.000  28.080  0.1468 -0.2957 -0.0001
97158W        W40075  21.325  31.849  31.028  0.1829  0.2281  0.0536
97159W        W40076  21.067  33.175  27.385 -0.0489  0.0755  0.1969
97160W        W40077  18.635  32.509  29.636 -0.1762 -0.2451 -0.3501
97161W        W40078  20.193  30.014  30.182  0.1181 -0.1008 -0.4414
97162W        W40079  20.838  30.150  30.148 -0.0656 -0.2556 -0.0078
97163W        W40080  19.252  34.434  27.627  0.1373  0.2560 -0.0428
97164W        W40081  18.291  30.176  29.761 -0.1302 -0.1143 -0.3944
97165W        W40082  18.967  31.482  28.419 -0.2584 -0.4687 -0.0109
97166W        W40083  20.340  30.151  31.384  0.0678 -0.0807  0.1889
97167W        W40084  18.606  32.525  28.233 -0.1819 -0.0216 -0.3604
97168W        W40085  21.792  31.334  28.499 -0.1602  0.1973  0.0304
97169W        W40086  16.355  28.727  30.379 -0.1848 -0.3016 -0.0851
97170W        W40087  20.463  27.502  28.102 -0.5175  0.0283 -0.1367
97171W        W40088  18.757  30.835  28.929 -0.1965  0.1363  0.0696
97172W        W40089  20.710  34.161  28.309 -0.1594 -0.1043  0.0555
97173W        W40090  20.367  31.057  26.851 -0.1598  0.0810 -0.0701
97174W        W40091  20.787  33.230  26.177  0.1295  0.1509 -0.2740
97175W        W40092  18.380  29.170  31.494 -0.2049 -0.0186 -0.2401
97176W        W40093  20.263  29.116  28.820  0.1758 -0.2655  0.0070
97177W        W40094  19.671  29.437  30.874 -0.1589  0.0721 -0.1994
97178W        W40095  18.866  29.222  28.992  0.4906 -0.0691  0.1629
97179W        W40096  23.233  29.314  30.965 -0.0207  0.5685 -0.1820
97180W        W40097  18.945  29.353  26.752  0.1688 -0.1526 -0.1574
97181W        W40098  20.506  29.024  29.922  0.0813  0.0583 -0.1449
97182W        W40099  19.386  32.319  27.751  0.0005  0.2192 -0.0190
97183W        W40100  18.033  30.550  29.214 -0.1390  0.0039  0.0875
97184W        W40101  20.620  30.525  31.481  0.4446 -0.0167  0.2129
97185W        W40102  19.558  32.343  28.311  0.0965 -0.1826 -0.1877
97186W        W40103  21.378  34.154   0.714  0.0605  0.0379  0.0906
97187W        W40104  20.884  32.611  30.065 -0.0268  0.3664 -0.2172
97188W        W40105  19.292  29.149   0.490 -0.0727 -0.0799 -0.2711
97189W        W40106  17.640  28.787  27.056 -0.0816 -0.2572 -0.4023
97190W        W40107  19.456  32.466  30.090 -0.0223  0.1175 -0.2448
97191W        W40108  18.480  32.654  30.212 -0.1780 -0.0111 -0.2913
97192W        W40109  20.558  30.920  27.345  0.2892  0.0281 -0.5942
97193W        W40110  20.354  31.899  30.097  0.1336 -0.3704 -0.2665
97194W        W40111  17.535  31.669  29.066  0.0323 -0.1644 -0.1345
97195W        W40112  17.207  31.012  30.269 -0.0894 -0.2136 -0.1241
97196W        W40113  21.942  29.490  31.938 -0.1009 -0.1460 -0.1304
97197W        W40114  20.211  31.447  27.914 -0.0432  0.1978  0.0371
97198W        W40115  20.080  31.156  27.533  0.1220 -0.0554 -0.0015
97199W        W40116  22.540  29.591  27.237 -0.0295  0.3697 -0.3824
97200W        W40117  19.803  31.874  29.294 -0.1444 -0.0064 -0.3159
97201W        W40118  18.653  31.799  26.682  0.0140 -0.0982 -0.0044
97202W        W40119  17.728  30.261  28.430 -0.1974 -0.3536 -0.1250
97203W        W40120  21.642  33.693  29.277 -0.3859  0.0649  0.3527
97204W        W40121  22.328  30.567  31.125  0.0651 -0.1563  0.5131
97205W        W40122  17.736  30.052   0.014  0.3564  0.1147  0.0423
97206W        W40123  20.921  29.331  29.773 -0.4884  0.0773 -0.1778
97207W        W40124  17.718  31.470  26.977  0.2381 -0.1692 -0.1045
97208W        W40125  18.165  34.279  30.612  0.3005 -0.1277 -0.0276
97209W        W40126  19.910  27.377  29.497  0.1972  0.0878 -0.3016
97210W        W40127  22.048  30.846  27.310  0.1741  0.0210  0.0525
97211W        W40128  18.924  30.774  29.827 -0.0364 -0.1874  0.0310
97212W        W40129  19.151  31.663  27.102 -0.4324  0.3556  0.2899
97213W        W40130  19.071  30.650  27.945 -0.2142 -0.0622 -0.1837
97214W        W40131  19.652  29.423  26.314  0.1120  0.2273 -0.1274
97215W        W40132  18.035  33.344   0.842 -0.1562 -0.0048 -0.2714
97216W        W40133  21.345  32.933  30.287 -0.0719 -0.1757  0.2442
97217W        W40134  20.427  32.333  31.112 -0.4067  0.2243 -0.0587
97218W        W40135  18.813  31.772  27.454 -0.1500 -0.3480  0.0988
97219W        W40136  19.878  31.356  29.034 -0.0910 -0.0144  0.2450
97220W        W40137  18.770  30.822  30.825 -0.0939 -0.0651  0.1875
97221W        W40138  21.572  31.481   0.730 -0.0934  0.0681  0.2266
97222W        W40139  20.622  31.665  31.952  0.1202  0.2707 -0.0880
97223W        W40140  21.141  28.739  29.496  0.3020  0.3870 -0.1215
97224W        W40141  20.526  30.286  28.096  0.1270  0.0130  0.1971
97225W        W40142  18.808  28.794  29.453 -0.3343 -0.2645  0.0547
97226W        W40143  17.562  32.885  28.619 -0.0699 -0.0651 -0.2179
97227W        W40144  22.517  28.379  29.285  0.2756 -0.1520 -0.2244
97228W        W40145  20.610  28.742  31.272  0.0924  0.1374  0.0539
97229W        W40146  21.023  28.926  31.508  0.0238 -0.1119 -0.2985
97230W        W40147  20.199  28.978  30.322 -0.0310 -0.2509  0.1304
97231W        W40148  21.719  30.415  28.549  0.2036 -0.3223 -0.0275
97232W        W40149  19.891  29.763   0.045  0.2805  0.2672 -0.0581
97233W        W40150  18.752  31.053  29.440 -0.0968  0.0927  0.1450
97234W        W40151  21.481  29.953  28.680 -0.1341  0.1405 -0.5025
97235W        W40152  20.828  32.039   0.354  0.0304 -0.3138  0.0948
97236W        W40153  21.028  32.559  28.273 -0.0128  0.1341 -0.0052
97237W        W40154  20.863  31.555  30.902  0.2253  0.1807  0.0011
97238W        W40155  18.522  31.135  30.043  0.5320 -0.2380  0.2449
97239W        W40156  22.781  29.579  30.895 -0.0014 -0.0408 -0.0938
97240W        W40157  22.143  29.484  25.940  0.0512  0.1252  0.2571
97241W        W40158  19.275  33.965  27.496 -0.4277  0.1286  0.0981
97242W        W40159  19.412  31.267  28.193 -0.0053  0.0595  0.2763
97243W        W40160  21.883  28.333  30.557 -0.1158 -0.0423  0.0986
97244W        W40161  20.429  33.062  31.665 -0.2925 -0.1779  0.0168
97245W        W40162  20.614  31.318  27.646 -0.0855  0.1341  0.1796
97246W        W40163  20.517  29.775  29.289  0.2813  0.0994  0.1891
97247W        W40164  18.667  33.129  26.417 -0.0748 -0.0212 -0.1115
97248W        W40165  21.271  28.457  30.034 -0.0814  0.0372 -0.2847
97249W        W40166  19.210  33.386  30.732  0.3356  0.0385 -0.2311
97250W        W40167  19.931  29.702  28.259 -0.0018 -0.0063  0.0952
97251W        W40168  18.256  30.372  30.214  0.0770 -0.0591 -0.0116
97252W        W40169  20.892  32.004  28.077 -0.2717  0.0221 -0.0945
97253W        W40170  21.583  31.659  26.299  0.0375  0.2468 -0.0235
97254W        W40171  20.041  28.962  29.586 -0.2443  0.1180  0.0344
97255W        W40172  19.606  29.942  29.595 -0.0005  0.0947  0.1184
97256W        W40173  19.861  34.086  29.164  0.0600  0.2385 -0.2574
97257W        W40174  19.829  32.690  29.763 -0.2163  0.0256  0.0977
97258W        W40175  22.634  29.894  27.792  0.3335 -0.1034  0.0050
97259W        W40176  21.728  30.911  28.810 -0.0703 -0.1531 -0.1769
97260W        W40177  19.226  29.809  31.848  0.1148  0.2332 -0.0542
97261W        W40178  19.524  30.039  26.930  0.3121  0.3526  0.2601
97262W        W40179  17.771  28.570   0.513 -0.1274  0.0952  0.1464
97263W        W40180  19.435  29.062  30.531 -0.0413 -0.0492 -0.1292
97264W        W40181  17.671  31.109  30.260 -0.2622 -0.1215 -0.2265
97265W        W40182  19.656  33.508  31.600 -0.0997 -0.2486  0.0766
97266W        W40183  20.006  28.393  27.627  0.2774  0.2404 -0.0890
97267W        W40184  18.463  30.198  29.041  0.0123 -0.1158  0.2396
97268W        W40185  19.975  33.144  31.810 -0.1196  0.1656 -0.0327
97269W        W40186  22.454  29.920  31.041 -0.0530  0.3306 -0.0881
97270W        W40187  19.210  30.697  29.187  0.0667  0.0761 -0.0157
97271W        W40188  19.516  31.067  27.645 -0.2780  0.2992  0.0261
97272W        W40189  17.950  30.206  27.540  0.1128 -0.0849  0.0329
97273W        W40190  20.100  32.934  28.127  0.3095  0.0123  0.0880
97274W        W40191  20.201  29.353  30.766 -0.2202 -0.0563  0.0227
97275W        W40192  17.890  32.158  30.568  0.0382  0.1359  0.2998
97276W        W40193  20.721  28.430  30.801 -0.0945 -0.3244 -0.1362
97277W        W40194  21.418  33.394  28.417  0.0376 -0.0031 -0.1684
97278W        W40195  20.477  30.398  30.432  0.1028 -0.0778 -0.1936
97279W        W40196  19.048  31.493  29.309 -0.1102  0.0387 -0.0746
97280W        W40197  20.018  29.861  28.698 -0.0535 -0.0418  0.1073
97281W        W40198  18.854  32.238  26.824 -0.0450  0.2680  0.5861
97282W        W40199  17.958  29.108  29.138 -0.3094  0.0794  0.3308
97283W        W40200  18.160  32.688  29.844  0.0707 -0.1531  0.0241
97284W        W40201  19.095  32.553  28.116  0.0891 -0.0627 -0.0729
97285W        W40202  18.914   0.458  31.399 -0.2038 -0.2840  0.3315
97286W        W40203  20.742  29.084  28.644  0.2766  0.1165 -0.1347
97287W        W40204  19.610  34.185  27.814 -0.0177 -0.2209 -0.1124
97288W        W40205  19.757  30.653  28.412 -0.0152  0.2202  0.6363
97289W        W40206  21.856  29.112  31.165 -0.2312  0.1467 -0.1257
97290W        W40207  22.466  31.334  26.566 -0.3911 -0.0121 -0.1580
97291W        W40208  20.158  30.595  31.126  0.2026 -0.0452 -0.0654
97292W        W40209  21.461  27.809  29.434  0.1864 -0.0411  0.1634
97293W        W40210  21.150  31.603  27.709  0.0768 -0.2010 -0.1717
97294W        W40211  19.974  28.908  30.778 -0.1301 -0.0127 -0.0764
97295W        W40212  21.248  32.412  31.032  0.0659  0.0720 -0.1180
97296W        W40213  19.353  29.634  30.475  0.0044 -0.2579  0.1767
97297W        W40214  20.643  29.327  29.180 -0.5304  0.0112  0.3660
97298W        W40215  20.388  30.415  27.041  0.0113 -0.1569 -0.1227
97299W        W40216  20.948  32.939  31.243 -0.0585  0.0663 -0.1867
97300W        W40217  21.369  31.318  28.809 -0.3150 -0.2582  0.3311
97301W        W40218  17.522  30.681  29.328 -0.4203  0.0238  0.0569
97302W        W40219  21.377  31.115  28.331 -0.1270 -0.0033 -0.0772
97303W        W40220  19.005  29.887  30.660 -0.2392 -0.0176  0.0825
97304W        W40221  20.902  30.182  30.636  0.4722  0.1589 -0.0312
97305W        W40222  18.532  31.696  29.120 -0.1621 -0.3854  0.0173
97306W        W40223  19.000  30.354  28.825  0.3306  0.0500  0.1131
97307W        W40224  19.332  28.672  30.282 -0.2110  0.0622 -0.1870
97308W        W40225  20.007  30.208  28.404 -0.1507 -0.0525  0.3375
97309W        W40226  20.969  31.042  27.976  0.3336  0.0720 -0.2333
97310W        W40227  20.331  29.318  28.309  0.0038 -0.0669  0.1381
97311W        W40228  19.059  30.249  31.001 -0.0052  0.0808  0.0274
97312W        W40229  21.246  30.782  28.753  0.2368 -0.1177  0.0544
97313W        W40230  18.234  30.696  31.626 -0.0686 -0.3659  0.2185
97314W        W40231  20.874   0.208  30.400 -0.0780 -0.1586  0.0925
97315W        W40232  20.056  30.719  27.288  0.0183 -0.2713  0.1235
97316W        W40233  20.532  29.811  30.624 -0.1052 -0.2904  0.0556
97317W        W40234  21.114  32.430  29.558  0.0771  0.0447 -0.0077
97318W        W40235  20.156  31.875  27.568  0.2009  0.2447 -0.0834
97319W        W40236  19.416  28.636  30.787 -0.1524 -0.2762  0.2187
97320W        W40237  21.324  30.045  29.921  0.2279 -0.0073  0.1429
97321W        W40238  19.092  29.855  26.635 -0.0413  0.0891  0.0581
97322W        W40239  20.366  30.187  30.906 -0.0120  0.0827 -0.2126
97323W        W40240  19.159  33.686  26.687  0.1077 -0.0914 -0.1124
97324W        W40241  20.046  30.443  29.561  0.2053 -0.0122 -0.1036
97325W        W40242  20.413  30.259  28.711 -0.1580 -0.3344  0.0118
97326W        W40243  17.362  30.820  27.747  0.0056 -0.0063  0.0890
97327W        W40244  18.490  31.500  29.593 -0.1223 -0.2227 -0.1240
97328W        W40245  19.922  30.537  26.854 -0.0557  0.2437  0.0285
97329W        W40246  20.070  32.832  27.639  0.1743 -0.4542  0.2526
97330W        W40247  19.860  33.328  30.278 -0.3802  0.5577  0.1424
97331W        W40248  22.651  31.123   0.433  0.1526 -0.0389 -0.1162
97332W        W40249  19.566  27.315  28.289  0.0442 -0.1074  0.1271
97333W        W40250  23.388  28.966   0.289 -0.1330 -0.0663  0.1989
97334W        W40251  17.978  30.137  28.848 -0.0569  0.0485  0.1553
97335W        W40252  20.546  28.572  28.856 -0.6262 -0.0190  0.0443
97336W        W40253  18.985  32.465  28.615  0.2368 -0.0932 -0.0952
97337W        W40254  16.818  32.655  31.410 -0.1598  0.0096 -0.2838
97338W        W40255  17.263  31.666  29.480  0.2532 -0.1088  0.0947
97339W        W40256  22.378  30.206   0.473  0.2298  0.2041 -0.0033
97340W        W40257  20.754  30.626  28.287  0.0265 -0.0489 -0.2599
97341W        W40258  18.989  30.113  27.930  0.2643  0.3756  0.0105
97342W        W40259  23.874  28.513   1.080  0.4137  0.2961 -0.2764
97343W        W40260  19.608  30.682  29.638 -0.2678  0.3797 -0.3677
97344W        W40261  22.194  30.172  29.269 -0.1520  0.1982 -0.2258
97345W        W40262  21.734  31.654  30.155  0.4084 -0.0265  0.2116
97346W        W40263  23.390  32.607  29.246  0.1673 -0.1956  0.0314
97347W        W40264  18.057  31.293  30.454 -0.2819  0.2950  0.0906
97348W        W40265  20.330  29.776  31.697  0.1936 -0.0681 -0.2131
97349W        W40266  21.878  30.805  30.417 -0.0903  0.1885 -0.2105
97350W        W40267  20.062  30.930  29.776  0.1303  0.0932  0.4006
97351W        W40268  18.903  29.405  28.505 -0.2575 -0.1607  0.3448
97352W        W40269  21.379  31.875  26.734 -0.0730 -0.4838  0.0493
97353W        W40270  19.002  32.799  31.343  0.1189  0.1998  0.2379
97354W        W40271  19.183  33.040  28.992 -0.0227 -0.0359 -0.2048
97355W        W40272  17.377  33.833  28.188 -0.0955 -0.0760 -0.2856
97356W        W40273  20.857  33.310  29.386 -0.0439 -0.1484 -0.1103
97357W        W40274  21.214  32.082  27.191  0.1612  0.0077 -0.1526
97358W        W40275  19.481  32.639  29.390  0.0089 -0.1439  0.0609
97359W        W40276  17.659  31.331  29.487  0.0553 -0.2905  0.2246
97360W        W40277  19.332  32.551  28.936 -0.6213  0.0418 -0.2748
97361W        W40278  21.136  31.984  30.590 -0.3455 -0.3861  0.0816
97362W        W40279  22.390  32.303  28.468  0.2607 -0.1027  0.1055
97363W        W40280  19.222   1.453  30.690  0.0009 -0.0522 -0.0621
97364W        W40281  23.153  30.578  30.844  0.1818  0.3397  0.3585
97365W        W40282  23.107  30.141  27.793  0.0246 -0.2001  0.1671
97366W        W40283  22.409  31.052  26.984  0.0212  0.4691 -0.0279
97367W        W40284  21.537  30.166  28.150 -0.0901  0.1230 -0.3634
97368W        W40285  21.965  32.409  29.471  0.2078 -0.2139 -0.0544
97369W        W40286  18.268  32.063  27.600  0.2636  0.0556 -0.5453
97370W        W40287  20.917  30.583  27.823  0.1917  0.0108 -0.0739
97371W        W40288  17.959  32.147  29.995  0.1114 -0.1093  0.2778
97372W        W40289  21.739  28.033  30.914  0.3332 -0.1944  0.1067
97373W        W40290  19.133  32.357  29.753  0.1820 -0.0940  0.0443
97374W        W40291  21.174  33.794  27.589 -0.0746  0.1141 -0.1018
97375W        W40292  18.262  33.433  29.621  0.0415  0.4146  0.3103
97376W        W40293  17.001  30.372  30.414  0.0366 -0.1544  0.0230
97377W        W40294  23.031  29.606  29.111 -0.1791 -0.5557  0.2080
97378W        W40295  17.113  31.820  27.779  0.0735  0.0729  0.0600
97379W        W40296  19.621  31.655  30.765 -0.0717 -0.0555  0.2528
97380W        W40297  19.667  33.585  26.980  0.1668 -0.6539 -0.4433
97381W        W40298  16.785  32.663  29.572 -0.0805 -0.1626  0.1839
97382W        W40299  18.445  31.625  30.460  0.3101  0.0618  0.0192
97383W        W40300  20.943  28.793  29.026  0.1425  0.0128 -0.0812
97384W        W40301  21.608  30.365  30.263 -0.1198 -0.0426 -0.1228
97385W        W40302  18.658  30.651  30.242  0.3204 -0.0953 -0.3293
97386W        W40303  22.679  30.300  30.771  0.1660  0.1159  0.0451
97387W        W40304  19.829  30.194  29.960 -0.2483  0.1844 -0.0792
97388W        W40305  18.172  31.613  29.967  0.1354  0.3276 -0.1382
97389W        W40306  20.253  31.193  29.411  0.0711 -0.1443  0.0941
97390W        W40307  20.378  29.504  30.225 -0.3132  0.2821 -0.1186
97391W        W40308  20.453  31.793  28.428 -0.5773 -0.5136 -0.0438
97392W        W40309  21.578  32.186  30.384 -0.0870 -0.1344 -0.3049
97393W        W40310  20.132  32.752  29.366 -0.1523 -0.0693  0.1361
97394W        W40311  21.579  33.794  31.011  0.1609  0.2075 -0.0125
97395W        W40312  21.616  30.458  26.973  0.0245 -0.1225 -0.1412
97396W        W40313  19.302  31.797  28.498 -0.2088  0.1704  0.0546
97397W        W40314  17.100  29.994  30.016  0.0384  0.0638  0.1140
97398W        W40315  19.915  29.044  28.378  0.1281 -0.0729 -0.3021
97399W        W40316  21.572  33.368   0.102 -0.3025 -0.4135  0.0101
97400W        W40317  19.388  28.649  28.705  0.0346  0.0631 -0.1492
97401W        W40318  21.188  32.070  26.311  0.0951 -0.3719 -0.0631
97402W        W40319  19.634  31.242  28.616  0.2912  0.0579  0.5429
97403W        W40320  19.183  33.422  28.542  0.0752  0.1126 -0.1152
97404W        W40321  22.061  32.230  28.013  0.1472 -0.5932  0.3348
97405W        W40322  21.724  29.893  30.134  0.0588 -0.1966 -0.2678
97406W        W40323  17.847  30.772  30.654 -0.1992  0.2096  0.0746
97407W        W40324  20.330  30.843  30.750 -0.1705  0.2830 -0.1282
97408W        W40325  19.859  32.713  30.374 -0.2400 -0.0084  0.0756
97409W        W40326  21.072  29.899  26.618  0.1246  0.1760 -0.1169
97410W        W40327  18.580  29.158  29.870 -0.1726 -0.0160  0.1772
97411W        W40328  16.746  32.738  29.036  0.2064 -0.0046 -0.1230
97412W        W40329  21.195  31.897  28.964  0.2086  0.1390  0.4256
97413W        W40330  22.775  30.831  30.706  0.3492  0.0016 -0.1424
97414W        W40331  16.775  34.098  26.520  0.2693 -0.1409 -0.0204
97415W        W40332  19.788  29.713  30.126  0.2480  0.4284 -0.0026
97416W        W40333  20.458  31.326  30.696  0.0797 -0.0164  0.3716
97417W        W40334  20.197  31.600  31.667  0.0818 -0.2971 -0.0287
97418W        W40335  17.934  31.238  28.350  0.1337  0.0933 -0.0907
97419W        W40336  20.151  31.762  30.897 -0.0022 -0.0132 -0.2050
97420W        W40337  18.763  31.293  28.862 -0.0200 -0.1102 -0.4045
97421W        W40338  19.975  32.050  28.383 -0.1090 -0.3323 -0.2394
97422W        W40339  21.124  33.722  29.388 -0.1036  0.0204  0.0536
97423W        W40340  20.055  29.498  29.155  0.2994 -0.2408  0.0286
97424W        W40341  20.616  33.422  28.012 -0.0753 -0.2225  0.0410
97425W        W40342  21.184  29.258  29.047  0.2386  0.0751 -0.0016
97426W        W40343  22.004  29.661  27.268  0.0558  0.0218 -0.0412
97427W        W40344  21.737  28.910  29.336  0.0128 -0.0159 -0.2169
97428W        W40345  17.352  32.632  29.437  0.2732  0.0260  0.1470
97429W        W40346  20.307  30.436  27.581 -0.1181  0.0447  0.0343
97430W        W40347  18.634  32.208  29.156  0.2272 -0.3012  0.1746
97431W        W40348  19.902  30.530  27.918  0.0583 -0.1276 -0.1776
97432W        W40349  20.604  29.322  31.467  0.0268  0.1400  0.2208
97433W        W40350  18.913  28.259  28.662  0.1452 -0.1926 -0.2864
97434W        W40351  18.974  29.215  30.331  0.1462  0.1598 -0.2768
97435W        W40352  18.943  29.756  30.150 -0.2810 -0.0193  0.1866
97436W        W40353  20.600   0.169  27.341  0.3607  0.3268 -0.0098
97437W        W40354  20.393  28.526   0.246 -0.2936 -0.0781 -0.0844
97438W        W40355  18.816  30.184  29.940  0.1574  0.1815  0.3624
97439W        W40356  21.423  31.167  26.421 -0.1796 -0.1256 -0.0409
97440W        W40357  20.525  32.070  28.843 -0.2782  0.1479  0.2812
97441W        W40358  19.522  31.194  30.590  0.1660  0.2822 -0.0668
97442W        W40359  20.881  32.809  31.717 -0.0684  0.2474 -0.0397
97443W        W40360  18.742  33.744  26.248 -0.1083 -0.0589  0.1465
97444W        W40361  21.292  27.978   0.172 -0.0486 -0.1968 -0.3862
97445W        W40362  18.710  29.514  30.687 -0.1624 -0.0293  0.0710
97446W        W40363  18.110  30.676  27.416 -0.0171 -0.1448  0.3495
97447W        W40364  19.794  30.803  30.827  0.1112  0.3424  0.3940
97448W        W40365  20.348  31.980  28.012 -0.0751  0.1038 -0.1118
97449W        W40366  20.513  32.737  27.256 -0.0925  0.1138  0.0876
97450W        W40367  19.797  31.234  30.157 -0.0812 -0.2347 -0.2645
97451W        W40368  21.549  31.658  30.623  0.1623  0.3546 -0.0701
97452W        W40369  18.477  29.655  31.121  0.0288  0.0890 -0.3069
97453W        W40370  18.933  31.396  26.737 -0.1607  0.3515  0.0278
97454W        W40371  18.740  31.300  30.726  0.0195  0.2760  0.0059
97455W        W40372  21.222  32.415  25.962 -0.0583 -0.1717  0.0938
97456W        W40373  19.840  30.921  29.292  0.2596 -0.1244 -0.0362
97457W        W40374  19.653  29.831  29.111  0.0596 -0.1910  0.0537
97458W        W40375  19.178  29.278   0.022  0.0394  0.3688 -0.1544
97459W        W40376  19.972  30.368  30.584  0.0709 -0.0059 -0.0420
97460W        W40377  22.306  30.986   0.090  0.2642  0.2202 -0.2479
97461W        W40378  21.517  28.538  28.946 -0.1275 -0.3828  0.0682
97462W        W40379  21.628  28.911  28.249  0.0312  0.0544  0.1793
97463W        W40380  20.936  31.187  26.966  0.1619  0.0872 -0.1181
97464W        W40381  19.563  30.147  28.032 -0.3140  0.0479  0.2171
97465W        W40382  19.802  32.050  27.905 -0.3420 -0.0329 -0.1925
97466W        W40383  19.445  31.601  29.016 -0.1669 -0.2222 -0.1854
97467W        W40384  20.692  31.441  30.269  0.0582 -0.0637 -0.1320
97468W        W40385  22.474  32.127  31.431  0.1819 -0.2087 -0.2174
97469W        W40386  18.666  30.387  28.240 -0.2655 -0.3193 -0.0527
97470W        W40387  21.117  31.553  28.196 -0.1705 -0.1410  0.2600
97471W        W40388  18.953  30.998  30.383  0.0112  0.1172  0.0178
97472W        W40389  22.147  30.126  30.488 -0.5519  0.0321 -0.1008
97473W        W40390  21.133  32.426   0.054  0.1293 -0.3039 -0.1932
97474W        W40391  20.738  32.170  30.291 -0.0056 -0.1834  0.0935
97475W        W40392  20.019  28.566  28.745 -0.2797 -0.0608 -0.0241
97476W        W40393  19.344  30.036  31.412 -0.0620  0.1951 -0.0380
97477W        W40394  18.402  30.543  28.704 -0.0823 -0.0381 -0.0345
97478W        W40395  22.117  29.713  29.933  0.4840  0.1135  0.1426
97479W        W40396  20.433  30.241  29.792  0.0246 -0.1071  0.0037
97480W        W40397  20.100  30.048  29.140  0.1976  0.0992  0.1926
97481W        W40398  18.953  32.712  30.037 -0.2422  0.1331 -0.0048
97482W        W40399  21.440  29.206  30.584 -0.4305  0.1531 -0.0476
97483W        W40400  22.147  30.153   1.097 -0.2423 -0.1830  0.3315
97484W        W40401  19.507  28.897   0.086  0.2958  0.1080 -0.1567
97485W        W40402  20.874  31.051  30.969 -0.2133 -0.3360 -0.0210
97486W        W40403  19.881  32.497  31.461 -0.1195  0.0929 -0.4316
97487W        W40404  20.324  31.923   0.327 -0.2485  0.0189  0.3193
97488W        W40405  20.654  34.092  31.837  0.0886 -0.1490  0.2057
97489W        W40406  20.376  28.463   0.780  0.0355  0.1259 -0.0270
97490W        W40407  19.400  29.871  30.937 -0.0722  0.0560  0.1470
97491W        W40408  21.241  29.146   0.891 -0.0682  0.0582  0.0984
97492W        W40409  19.674  34.051   1.797 -0.0466 -0.0023  0.1319
97493W        W40410  21.092  31.614   0.174  0.0612  0.0480  0.0998
97494W        W40411  19.410  27.640  31.785 -0.2029  0.2119 -0.0810
97495W        W40412  21.444  29.935  31.435  0.1496  0.2427  0.3273
97496W        W40413  18.916  31.542  31.125 -0.1146  0.1318 -0.0693
97497W        W40414  21.514  30.861  29.893 -0.0333  0.1308 -0.0023
97498W        W40415  19.527  33.165   0.028  0.0346 -0.1069  0.2028
97499W        W40416  19.579  32.266   0.004  0.2607 -0.0883  0.1288
97500W        W40417  19.627  32.262  29.646  0.2614  0.0625  0.2329
97501W        W40418  18.581  29.166   0.467  0.0142  0.1005  0.1275
97502W        W40419  20.386  32.258   0.692 -0.0964  0.0309 -0.0958
97503W        W40420  19.764  29.897  30.585 -0.4468  0.1702 -0.3213
97504W        W40421  19.862  31.805   0.391 -0.0280 -0.2729 -0.3831
97505W        W40422  21.775  29.347  30.053  0.2170  0.0073  0.3267
97506W        W40423  20.995  30.405   0.131 -0.1585 -0.1693 -0.0918
97507W        W40424  18.457  30.467  31.260  0.2587  0.2196 -0.3082
97508W        W40425  20.172  30.572  30.100  0.1661  0.0737  0.2432
97509W        W40426  21.297  30.587  31.100 -0.0888  0.0832 -0.0577
97510W        W40427  18.721  32.197  30.029 -0.0558 -0.0311  0.0165
97511W        W40428  18.607  31.048  31.207 -0.3283  0.0734 -0.4365
97512W        W40429  18.528  32.997  29.797  0.1439  0.0197 -0.0908
97513W        W40430  18.940  31.906  29.629  0.1048 -0.1021 -0.1273
97514W        W40431  16.791  27.497   0.066  0.0555 -0.3894  0.1809
97515W        W40432  19.928  29.942  31.050  0.3437  0.1353  0.0095
97516W        W40433  19.585  28.593  31.286  0.5381  0.0701  0.0030
97517W        W40434  19.371  31.002  30.056 -0.0969  0.1043 -0.1832
97518W        W40435  20.657  33.315  31.316  0.0701 -0.0206  0.0333
97519W        W40436  20.969  31.617   1.123 -0.3088 -0.3072 -0.3821
97520W        W40437  18.933  28.874   0.787 -0.4141 -0.3312  0.0734
97521W        W40438  20.915  30.223  29.628  0.1154 -0.1805 -0.0608
97522W        W40439  19.254  30.353  29.641  0.3089  0.1388  0.0233
97523W        W40440  20.921  29.660  30.294  0.1254 -0.0824  0.2298
97524W        W40441  19.500  31.130  31.085  0.1739  0.1579  0.0541
97525W        W40442  19.602  30.261   0.061  0.2265 -0.3419 -0.1493
97526W        W40443  21.121  33.461   0.297 -0.1032 -0.0551 -0.0706
97527W        W40444  19.611  31.955  31.482 -0.3631  0.2481 -0.0416
97528W        W40445  20.452  32.829  31.162 -0.0530  0.2881 -0.2708
97529W        W40446  20.635  29.351   1.701  0.2206  0.1261 -0.1020
97530W        W40447  20.481  29.714  31.139 -0.0462  0.4242  0.2794
97531W        W40448  20.596  31.856  31.397 -0.3708  0.2126 -0.0164
97532W        W40449  20.813  33.033   2.108 -0.1604  0.1636  0.0012
97533W        W40450  21.267  32.942   0.145 -0.0551  0.1254  0.0459
97534W        W40451  21.984  30.016  30.978  0.1723  0.1162 -0.0861
97535W        W40452  18.393  29.827   1.216  0.1352  0.0181  0.2195
97536W        W40453  20.700  30.590  30.972  0.1314  0.3091 -0.0337
97537W        W40454  20.471  30.330  31.957  0.0703  0.0537  0.0069
97538W        W40455  22.557  29.233  28.903 -0.0291 -0.1110 -0.0611
97539W        W40456  21.235  31.250  30.657 -0.1435  0.0324 -0.0770
97540W        W40457  20.647  32.529   0.246  0.0451  0.0984 -0.2265
97541W        W40458  19.801  31.956  30.446 -0.1127  0.0450 -0.1322
97542W        W40459  18.958  29.592   0.386  0.0362  0.0144 -0.1784
97543W        W40460  19.204  30.328  28.337 -0.2144  0.0686 -0.0027
97544W        W40461  16.938  31.629   0.057  0.1027 -0.0419  0.0632
97545W        W40462  20.086  30.600  31.649 -0.1731  0.1415  0.1397
97546W        W40463  18.139  28.759   0.283  0.1530 -0.3796 -0.0443
97547W        W40464  20.726  31.350  31.587  0.0134 -0.1354  0.2187
97548W        W40465  23.321  30.355   0.009 -0.1977  0.1772 -0.4372
97549W        W40466  23.456  29.279   0.686 -0.0458  0.1596  0.0507
97550W        W40467  19.763   0.026  16.577  0.1503  0.2066 -0.1281
97551W        W40468  22.384  32.052  17.948  0.0301 -0.1077  0.0423
97552W        W40469  19.504   1.453  16.175 -0.3019  0.3661 -0.0756
97553W        W40470  18.320  34.057  18.757 -0.0692 -0.2341  0.2348
97554W        W40471  17.737  33.002  19.550  0.1748  0.0362 -0.1498
97555W        W40472  19.562   0.490  15.877  0.0110  0.0296 -0.1830
97556W        W40473  20.180  31.998  19.680 -0.0794  0.0225  0.0857
97557W        W40474  19.061  34.208  15.924 -0.2304 -0.0720  0.4198
97558W        W40475  17.722  32.791  18.164  0.1008  0.0064 -0.2167
97559W        W40476  21.863   1.386  17.285  0.2122  0.0301 -0.2640
97560W        W40477  17.314   0.820  18.335 -0.3862  0.2193 -0.1322
97561W        W40478  19.229  34.045  19.040  0.0238 -0.0117  0.3410
97562W        W40479  21.098  33.312  17.823 -0.0560 -0.0990  0.0882
97563W        W40480  20.233   0.780  20.381 -0.2696  0.0226  0.1043
97564W        W40481  20.603   0.261  19.357  0.1020 -0.1026 -0.4865
97565W        W40482  18.536   1.414  16.003  0.0921  0.3595  0.2547
97566W        W40483  17.510  33.288  18.008 -0.1772  0.1283 -0.2254
97567W        W40484  18.250  33.508  17.697 -0.1965 -0.2099  0.0139
97568W        W40485  19.898  33.194  18.236  0.1029  0.3354 -0.0426
97569W        W40486  21.109  34.590  17.073 -0.2867 -0.1050  0.3514
97570W        W40487  19.720   0.644  17.281 -0.0691 -0.2365  0.2759
97571W        W40488  21.745   1.786  17.891  0.0690 -0.2069  0.2183
97572W        W40489  19.316  34.391  16.400 -0.1641  0.1874  0.0691
97573W        W40490  20.963  33.468  19.656 -0.2381 -0.1033  0.0139
97574W        W40491  20.946  33.266  17.167  0.2672  0.1426 -0.1634
97575W        W40492  19.630  33.332  16.128 -0.2564 -0.0850 -0.0820
97576W        W40493  19.354  33.582  17.508 -0.1672  0.1189 -0.0380
97577W        W40494  18.364  32.582  17.139  0.1631 -0.0231  0.1808
97578W        W40495  16.170  33.002  20.113 -0.0267 -0.1533 -0.2510
97579W        W40496  20.314  34.422  17.402 -0.0823  0.0343 -0.1145
97580W        W40497  20.848  33.267  18.315 -0.1924  0.1805 -0.2418
97581W        W40498  19.894   0.465  16.838 -0.0361  0.1646 -0.2075
97582W        W40499  19.683  33.642  18.034  0.1988  0.1375  0.4345
97583W        W40500  17.289   0.485  17.955 -0.0895  0.0023 -0.3555
97584W        W40501  15.972   0.635  18.664  0.0535 -0.0770  0.2866
97585W        W40502  18.432  34.024  16.536 -0.0493 -0.3001 -0.0683
97586W        W40503  22.270  32.533  17.710 -0.2406 -0.0114  0.3047
97587W        W40504  20.231  33.664  16.900  0.0576  0.0008  0.0032
97588W        W40505  19.766   0.950  18.447  0.1027 -0.2598  0.0476
97589W        W40506  19.208   1.876  17.555  0.0056  0.2104  0.2092
97590W        W40507  20.226   0.545  21.249  0.2877  0.0224 -0.0192
97591W        W40508  18.510  32.866  18.295 -0.1002  0.1925  0.4939
97592W        W40509  20.525  32.878  16.676 -0.3213  0.3462 -0.1480
97593W        W40510  17.321   0.896  20.945  0.0283 -0.0020  0.0514
97594W        W40511  20.094  32.568  18.497 -0.1597 -0.2319  0.0364
97595W        W40512  19.102   1.328  17.649  0.4333  0.4296 -0.0848
97596W        W40513  18.882   0.382  17.468  0.0915 -0.0069 -0.2585
97597W        W40514  19.862  33.651  17.577 -0.0275  0.0643  0.1369
97598W        W40515  18.099  34.530  19.400  0.0399 -0.3626 -0.3520
97599W        W40516  18.992  34.031  17.740 -0.0627 -0.1349 -0.2175
97600W        W40517  22.656  32.205  19.074 -0.0376 -0.2013 -0.1360
97601W        W40518  18.118  32.793  16.771  0.1490 -0.1918 -0.1318
97602W        W40519  21.279  34.660  18.476 -0.0030  0.0532 -0.3616
97603W        W40520  17.501  33.941  18.113  0.0320  0.1000 -0.1090
97604W        W40521  20.401   0.404  20.794 -0.3817 -0.1487 -0.0798
97605W        W40522  17.888   0.223  20.651 -0.1702 -0.1087 -0.3701
97606W        W40523  17.346  33.864  16.438 -0.1405  0.1789  0.1745
97607W        W40524  18.732  33.277  15.621  0.1240  0.1437 -0.1900
97608W        W40525  19.331  32.557  19.593 -0.0570 -0.0509  0.0164
97609W        W40526  21.523  34.404  18.955  0.1487 -0.2229  0.0618
97610W        W40527  19.962  33.348  17.180  0.0734 -0.1038 -0.1160
97611W        W40528  18.716  34.451  16.710 -0.2485 -0.1497 -0.1627
97612W        W40529  21.310  34.343  17.458 -0.1762  0.2406 -0.2310
97613W        W40530  17.042  33.439  19.342  0.2462 -0.1675  0.1319
97614W        W40531  20.174   0.929  17.197  0.1351 -0.0107  0.1888
97615W        W40532  17.477  34.422  17.368  0.0739 -0.1837  0.0055
97616W        W40533  17.860  33.281  16.947 -0.0418 -0.0533 -0.0093
97617W        W40534  19.397   0.274  17.474 -0.2248 -0.1246 -0.4092
97618W        W40535  19.710  34.289  16.884  0.0955 -0.1301  0.2035
97619W        W40536  17.611  32.061  17.095  0.2004 -0.1556 -0.1385
97620W        W40537  19.061  33.958  16.813 -0.1301 -0.1488  0.1587
97621W        W40538  20.393  31.757  18.019  0.1865  0.2917  0.1598
97622W        W40539  19.161   0.677  16.393  0.0157 -0.2921  0.0536
97623W        W40540  19.027  32.932  18.329 -0.2813  0.1387 -0.1613
97624W        W40541  21.475  34.207  21.163 -0.0060 -0.0380  0.0466
97625W        W40542  19.330  33.687  19.668  0.1596 -0.1078  0.2191
97626W        W40543  20.829  32.441  17.623 -0.0628  0.3290 -0.0276
97627W        W40544  21.313  34.281  19.418 -0.2256 -0.3023 -0.0822
97628W        W40545  20.474  34.125  16.928 -0.1066  0.0568  0.1859
97629W        W40546  21.281  32.826  17.046  0.1098 -0.1440 -0.0359
97630W        W40547  18.722  33.563  16.632 -0.0569  0.0516 -0.1344
97631W        W40548  17.814  33.168  17.604 -0.1232 -0.1860  0.1129
97632W        W40549  19.606  34.369  19.173  0.3702 -0.1698  0.0009
97633W        W40550  19.626  32.567  16.483  0.1313 -0.3016 -0.1382
97634W        W40551  19.968  33.224  20.006 -0.2121 -0.0860 -0.0396
97635W        W40552  21.159  30.661  18.374  0.1268  0.0663  0.1179
97636W        W40553  18.547  33.914  17.579 -0.1285 -0.1448  0.0290
97637W        W40554  19.019  33.027  16.866  0.2251  0.0810  0.5592
97638W        W40555  21.194   0.959  19.428 -0.0206 -0.0785 -0.3067
97639W        W40556  18.060  33.505  20.404  0.1457 -0.0848  0.1696
97640W        W40557  18.846  32.531  18.072 -0.0733 -0.1380 -0.2247
97641W        W40558  23.687  33.348  19.352  0.1271  0.0551  0.1419
97642W        W40559  21.257  32.134  16.939 -0.1111  0.1841  0.1994
97643W        W40560  18.550  33.129  17.860  0.3143  0.2525 -0.1032
97644W        W40561  18.372  34.172  16.084 -0.0916  0.1589  0.1941
97645W        W40562  21.849  34.228  17.391  0.2001  0.4061  0.0359
97646W        W40563  18.786  32.175  18.464 -0.0255  0.0119  0.0251
97647W        W40564  18.340  34.136  20.329  0.1465  0.0006 -0.0163
97648W        W40565  17.652  33.535  18.448  0.1986  0.1205 -0.0937
97649W        W40566  19.041  34.054  18.287 -0.0406  0.1852  0.2672
97650W        W40567  18.110  33.177  18.061  0.1511 -0.2123  0.0732
97651W        W40568  20.421   0.834  17.913 -0.0312  0.0114 -0.1096
97652W        W40569  19.301  33.716  18.542  0.0198 -0.1682  0.0898
97653W        W40570  18.047  34.229  19.814  0.1454  0.3410 -0.0260
97654W        W40571  19.405  33.509  20.224 -0.3020 -0.2124 -0.0961
97655W        W40572  19.158   0.992  17.197  0.0613 -0.1357  0.0190
97656W        W40573  21.993  33.491  16.898  0.0208  0.0171  0.0416
97657W        W40574  18.635  33.664  18.023  0.2605 -0.0001  0.0225
97658W        W40575  20.081  32.549  20.980  0.1346 -0.3150  0.1618
97659W        W40576  21.890   1.021  18.804  0.1033 -0.0678 -0.1520
97660W        W40577  18.775  32.796  19.748 -0.0859 -0.0482  0.2549
97661W        W40578  16.916  34.144  20.005 -0.0765  0.1639 -0.0304
97662W        W40579  17.655  33.464  21.149 -0.1254 -0.0363 -0.0836
97663W        W40580  20.205  34.610  20.657  0.0682 -0.0069 -0.0215
97664W        W40581  19.689  34.042  18.822 -0.0324 -0.0761  0.1468
97665W        W40582  19.737  33.155  17.583 -0.3332 -0.0863  0.1365
97666W        W40583  18.151  34.035  17.843 -0.0820 -0.1828  0.0158
97667W        W40584  18.567   2.192  18.916  0.3150 -0.1281 -0.0125
97668W        W40585  20.005   0.976  19.428 -0.0796 -0.1321  0.0842
97669W        W40586  20.751  34.577  16.198  0.1552  0.2698  0.3340
97670W        W40587  17.214  33.525  20.838  0.0235  0.3089  0.0309
97671W        W40588  20.444  33.009  19.510 -0.0441 -0.0842 -0.1179
97672W        W40589  20.955   1.434  17.138 -0.1678  0.0458 -0.2515
97673W        W40590  20.179  33.211  18.696 -0.2916 -0.1729 -0.2221
97674W        W40591  19.351   0.516  20.565  0.1416  0.0422  0.5066
97675W        W40592  17.587  33.682  22.563 -0.1829  0.1386 -0.0199
97676W        W40593  20.135  34.541  16.965  0.1949 -0.1569 -0.2217
97677W        W40594  21.324  34.381  18.031 -0.2467  0.2783  0.1827
97678W        W40595  21.296  34.312  16.494 -0.1852  0.0795 -0.0376
97679W        W40596  20.849   0.602  17.871 -0.1465 -0.1643  0.1521
97680W        W40597  19.242  33.529  16.426 -0.2061 -0.0498 -0.1191
97681W        W40598  20.430   0.763  19.550 -0.1609 -0.0680  0.0331
97682W        W40599  20.125  32.555  16.510 -0.2265  0.1339 -0.0424
97683W        W40600  21.252  33.505  20.512  0.2514 -0.1523 -0.0129
97684W        W40601  18.865   0.613  16.915  0.0231  0.0530 -0.3602
97685W        W40602  17.376  33.520  17.605 -0.1170  0.0146  0.1259
97686W        W40603  19.102  33.220  16.002  0.1004  0.1260 -0.1658
97687W        W40604  19.874   0.113  16.087 -0.0282  0.1269  0.0178
97688W        W40605  20.847  33.974  17.639  0.0393 -0.3748  0.0398
97689W        W40606  20.455  34.191  18.540 -0.0912  0.1844  0.0860
97690W        W40607  20.081   0.234  17.252 -0.2310  0.1820  0.1675
97691W        W40608  20.789  34.605  18.443  0.2881  0.0912  0.0130
97692W        W40609  21.682  33.753  18.112  0.1713 -0.3503 -0.0870
97693W        W40610  20.352   0.540  16.966 -0.2020 -0.2756 -0.0773
97694W        W40611  21.496   0.276  17.706 -0.1037 -0.0229 -0.0879
97695W        W40612  19.136   0.767  19.131 -0.0739 -0.0542  0.1472
97696W        W40613  17.858  33.838  20.052  0.0451  0.2397 -0.1716
97697W        W40614  18.345   0.247  17.405  0.0761 -0.3444 -0.0149
97698W        W40615  18.189  32.463  18.466 -0.0641  0.2040 -0.2702
97699W        W40616  21.503  32.068  17.817  0.2581  0.0966  0.2572
97700W        W40617  22.141  33.978  19.436  0.0908  0.1222  0.0500
97701W        W40618  21.074   0.120  16.613  0.0325 -0.2588  0.3399
97702W        W40619  18.623   1.269  17.893  0.3019  0.1536  0.0084
97703W        W40620  18.283   0.809  17.406 -0.0048  0.0764  0.3455
97704W        W40621  18.444   0.705  21.026  0.4635  0.2274  0.1451
97705W        W40622  20.227  31.842  21.072  0.0566 -0.1271 -0.0314
97706W        W40623  18.211  34.543  17.882 -0.1422 -0.3863 -0.1038
97707W        W40624  17.793  33.673  17.836  0.0059  0.1819 -0.1049
97708W        W40625  20.961  32.063  19.254 -0.1965  0.2838  0.0399
97709W        W40626  18.557   1.721  18.274 -0.3903  0.1627 -0.2903
97710W        W40627  17.648  32.971  15.967 -0.1751  0.4838 -0.1561
97711W        W40628  20.784   1.034  17.512 -0.0848 -0.0622  0.0499
97712W        W40629  18.602  33.366  19.718  0.0149  0.1529 -0.3432
97713W        W40630  21.717  34.495  17.781  0.2047  0.0947  0.1150
97714W        W40631  20.410  32.907  18.329  0.3650  0.0257 -0.0013
97715W        W40632  21.436   0.651  18.024  0.0245  0.0384 -0.0971
97716W        W40633  18.721  33.984  19.031 -0.2025 -0.1925  0.0150
97717W        W40634  19.949  34.358  17.746  0.3304 -0.0515 -0.0550
97718W        W40635  20.584  34.034  21.441  0.0778 -0.1023  0.0987
97719W        W40636  20.727   0.214  17.129  0.1296  0.3325 -0.0507
97720W        W40637  16.891  33.479  16.578  0.1396 -0.1969  0.1066
97721W        W40638  18.961  34.010  16.330 -0.0751  0.0445  0.1212
97722W        W40639  21.063   0.482  18.409 -0.3387 -0.2976 -0.1199
97723W        W40640  19.967  34.357  18.519 -0.2645 -0.1789 -0.1572
97724W        W40641  18.164  30.394  18.577  0.3895 -0.3306 -0.1099
97725W        W40642  22.581  33.710  19.490 -0.1122 -0.0253  0.0041
97726W        W40643  22.962   1.590  19.459  0.2940 -0.3376 -0.0662
97727W        W40644  17.247  33.254  18.395  0.1330  0.0374  0.4269
97728W        W40645  19.941  32.440  16.959  0.0396  0.0109  0.0301
97729W        W40646  19.042  33.226  19.853  0.1836  0.1771 -0.0888
97730W        W40647  20.108  33.785  18.667 -0.0779  0.1024 -0.1280
97731W        W40648  20.119  34.058  18.101  0.0054  0.1345 -0.0565
97732W        W40649  20.980  33.943  20.602  0.2262 -0.1614  0.0704
97733W        W40650  19.662  34.062  18.301 -0.3358 -0.0744 -0.1566
97734W        W40651  17.406  31.982  18.333 -0.1080  0.2900 -0.2105
97735W        W40652  22.055  34.035  16.839  0.0877  0.1834 -0.2379
97736W        W40653  20.917  34.320  19.171  0.0270 -0.2222 -0.0676
97737W        W40654  18.971  34.478  18.120  0.0518  0.1031  0.2721
97738W        W40655  17.305   1.946  16.277 -0.2293 -0.2042 -0.1116
97739W        W40656  19.453  30.834  21.065 -0.0368 -0.0927  0.2505
97740W        W40657  20.350  33.052  20.292 -0.4391 -0.0516  0.4294
97741W        W40658  18.219   2.201  16.413  0.1125  0.2443 -0.1352
97742W        W40659  17.795  34.377  16.541 -0.2265  0.1000  0.1878
97743W        W40660  19.076  31.736  19.865 -0.2418  0.0241 -0.1041
97744W        W40661  18.865  33.414  17.588 -0.0129  0.0274 -0.2102
97745W        W40662  20.164  33.763  19.210 -0.0454  0.0921  0.0351
97746W        W40663  18.595  31.958  19.780  0.0690 -0.0581  0.1925
97747W        W40664  18.991  33.428  22.250 -0.1380 -0.1841 -0.1237
97748W        W40665  18.458  33.714  15.410  0.1533  0.1536 -0.0659
97749W        W40666  17.990  34.549  17.433  0.3024  0.2028  0.0531
97750W        W40667  17.632  32.116  19.719 -0.1891 -0.3931 -0.0654
97751W        W40668  21.608  33.946  19.195 -0.0472  0.0394 -0.2158
97752W        W40669  20.492   0.332  18.111 -0.1325 -0.1716  0.2503
97753W        W40670  18.242  32.495  20.374 -0.0655  0.0230 -0.0766
97754W        W40671  17.760  33.651  17.348  0.1601  0.2663 -0.2402
97755W        W40672  18.036  31.243  17.414 -0.0809  0.3260 -0.0333
97756W        W40673  17.413   1.345  16.303 -0.1630 -0.2370 -0.1189
97757W        W40674  19.547   0.150  17.008 -0.2760  0.1141  0.1914
97758W        W40675  20.045  33.872  20.724 -0.1233  0.0604 -0.1598
97759W        W40676  21.193  33.636  17.354  0.2037 -0.1607 -0.4649
97760W        W40677  19.411   1.951  16.262  0.2811 -0.0236 -0.4002
97761W        W40678  17.658  33.255  20.729 -0.0622  0.0814  0.2045
97762W        W40679  17.265   1.198  17.308 -0.0683  0.0983 -0.1415
97763W        W40680  18.877   2.707  16.605 -0.1446  0.2238  0.1581
97764W        W40681  20.896   0.819  18.733  0.0043  0.1550 -0.4004
97765W        W40682  20.100  32.873  17.315 -0.1012  0.0741  0.2472
97766W        W40683  19.907  32.973  16.290  0.0618  0.0869  0.0047
97767W        W40684  17.035   1.198  19.416 -0.1682  0.2063 -0.0655
97768W        W40685  20.256  32.519  20.433 -0.1939  0.0234  0.4030
97769W        W40686  20.689   0.106  21.026 -0.0596 -0.0187  0.1296
97770W        W40687  17.230   0.231  20.797 -0.2376  0.0719  0.2972
97771W        W40688  17.522  33.701  23.087  0.0070 -0.1658  0.0879
97772W        W40689  19.458   1.003  19.859 -0.0838 -0.0901  0.0762
97773W        W40690  20.680  32.884  22.843  0.1194 -0.0188  0.2434
97774W        W40691  19.680   0.155  20.569  0.2439  0.4714 -0.0952
97775W        W40692  18.814   0.227  20.462 -0.2411  0.0357 -0.2670
97776W        W40693  21.679  33.302  23.154 -0.1580 -0.3193  0.0190
97777W        W40694  18.411   2.392  21.591 -0.0408 -0.2558  0.2194
97778W        W40695  20.906  34.062  21.927 -0.0710  0.1218 -0.1035
97779W        W40696  20.363  34.352  21.726 -0.1832  0.1017  0.0088
97780W        W40697  18.898  33.583  22.713 -0.5029 -0.0909  0.2518
97781W        W40698  19.582  32.234  21.544 -0.2736  0.2208  0.0343
97782W        W40699  18.577  33.136  20.167 -0.0162 -0.2465 -0.2201
97783W        W40700  18.018  33.860  21.414 -0.0025  0.1560  0.2318
97784W        W40701  18.098   0.753  22.018 -0.2914  0.0510  0.1651
97785W        W40702  22.801  34.650  21.519  0.3811  0.1392 -0.0856
97786W        W40703  21.656  32.487  20.136  0.0017  0.1898  0.1404
97787W        W40704  19.712  34.435  23.240 -0.3572 -0.1191 -0.0691
97788W        W40705  18.538   0.548  21.977  0.1177  0.0967  0.2181
97789W        W40706  21.163   1.460  19.764  0.0847  0.0714  0.1242
97790W        W40707  20.984   0.176  23.975 -0.2068 -0.1676  0.1974
97791W        W40708  19.923  33.911  22.325 -0.0999 -0.0857  0.1183
97792W        W40709  21.391  33.839  19.656  0.0773 -0.1892 -0.2311
97793W        W40710  19.288  34.333  18.673  0.1806 -0.0876 -0.1778
97794W        W40711  18.664  31.878  23.356 -0.1128 -0.0721 -0.3926
97795W        W40712  17.918  33.934  22.324  0.2663 -0.1125 -0.0912
97796W        W40713  18.907  34.311  21.410 -0.2481 -0.0848 -0.0271
97797W        W40714  17.395   0.453  22.693  0.0900 -0.1449 -0.1634
97798W        W40715  15.796   2.279  21.339  0.0523  0.1239  0.0250
97799W        W40716  18.508  33.428  22.289 -0.0213  0.1675  0.0869
97800W        W40717  17.089   0.019  22.319  0.2519  0.0444 -0.0521
97801W        W40718  18.127  34.401  21.799 -0.1640  0.0103  0.1031
97802W        W40719  18.062  31.734  19.053 -0.0397 -0.3180  0.2125
97803W        W40720  20.120   0.305  22.410 -0.2908 -0.1520 -0.1685
97804W        W40721  20.980  32.824  22.415  0.3015  0.0700  0.1836
97805W        W40722  18.200  32.558  23.100 -0.1876 -0.3095  0.0225
97806W        W40723  20.956   0.495  19.811  0.5350 -0.3977  0.2610
97807W        W40724  21.414  34.647  23.659 -0.3124 -0.2653 -0.1270
97808W        W40725  17.746  33.526  22.096 -0.0256 -0.4497  0.1486
97809W        W40726  21.956  34.108  22.735  0.1261  0.0976  0.1655
97810W        W40727  18.964  32.246  23.508 -0.1431 -0.0280 -0.2625
97811W        W40728  22.378  34.226  22.997 -0.3155  0.0700  0.2078
97812W        W40729  22.199  32.039  21.067  0.1263  0.0349  0.1253
97813W        W40730  15.291  33.549  21.714 -0.2792  0.0829 -0.0916
97814W        W40731  18.578  31.320  22.689  0.2170 -0.1547  0.0946
97815W        W40732  17.665   0.039  22.801 -0.1508 -0.0000 -0.0723
97816W        W40733  16.416  32.387  24.239 -0.0475  0.1402  0.0348
97817W        W40734  22.548   0.699  23.796  0.1711 -0.3090 -0.1443
97818W        W40735  16.658  34.609  19.974  0.0381  0.0981 -0.3144
97819W        W40736  18.913  33.673  19.378 -0.0385  0.0394  0.1828
97820W        W40737  17.366  33.945  19.684 -0.0786  0.1370 -0.2653
97821W        W40738  21.102  33.631  23.685 -0.2702 -0.1386 -0.0120
97822W        W40739  18.819  33.855  20.439 -0.0484  0.0035 -0.3503
97823W        W40740  18.227  33.889  21.933  0.0435 -0.2163  0.0786
97824W        W40741  19.280  33.344  19.342  0.1304  0.0196  0.0070
97825W        W40742  19.321  32.674  22.409  0.1099 -0.3036  0.1197
97826W        W40743  18.943   1.462  21.359  0.3115  0.2477  0.1308
97827W        W40744  18.479  34.120  20.831 -0.1082  0.2577  0.0748
97828W        W40745  18.822   0.933  21.970 -0.1104  0.1235 -0.2245
97829W        W40746  22.216  32.933  24.016  0.0048 -0.1236 -0.4496
97830W        W40747  15.957  34.015  22.256 -0.0955  0.1358  0.0363
97831W        W40748  22.600   0.061  23.119 -0.0435  0.2780  0.0656
97832W        W40749  18.850  33.790  19.865  0.0407  0.1149  0.0777
97833W        W40750  19.064  34.202  22.631  0.1957  0.0627  0.1381
97834W        W40751  20.333   0.107  21.454  0.0185 -0.0364  0.0547
97835W        W40752  20.609  33.658  18.588 -0.1448  0.2588  0.1735
97836W        W40753  18.380  34.503  18.970 -0.0048 -0.3215  0.1748
97837W        W40754  18.846   0.143  21.538 -0.1799 -0.1806  0.1036
97838W        W40755  18.178  34.536  23.949 -0.0787  0.1598 -0.2948
97839W        W40756  18.987  33.495  18.893  0.4055  0.0001 -0.1582
97840W        W40757  19.489  33.765  22.562 -0.0151  0.2994  0.0984
97841W        W40758  21.211  34.623  22.846 -0.0783  0.3326 -0.1363
97842W        W40759  22.820  32.240  20.719 -0.0940 -0.1470 -0.0227
97843W        W40760  20.540  33.077  21.596  0.2532  0.3770  0.3554
97844W        W40761  23.220  33.676  24.041 -0.1291  0.1698  0.4430
97845W        W40762  20.426  34.204  20.497 -0.0494 -0.1792  0.0424
97846W        W40763  20.226  33.519  22.376 -0.1540 -0.0405  0.0506
97847W        W40764  18.459  33.341  18.468  0.0375 -0.1162  0.1916
97848W        W40765  18.545   0.144  23.290 -0.2914  0.1371 -0.2113
97849W        W40766  19.355  32.540  23.808  0.0151  0.1171 -0.1344
97850W        W40767  19.428  33.166  20.873  0.0958 -0.1032 -0.0181
97851W        W40768  20.232  32.447  23.071 -0.0573  0.2599 -0.0325
97852W        W40769  20.084  33.423  21.598  0.0070  0.1644  0.2682
97853W        W40770  20.492  34.368  19.492 -0.3918 -0.3574  0.2520
97854W        W40771  16.405  33.929  21.767 -0.0619  0.1085 -0.0758
97855W        W40772  23.075  34.196  20.214  0.0194  0.2575 -0.0839
97856W        W40773  16.846  34.404  21.816  0.0495  0.5419 -0.2530
97857W        W40774  19.943  34.234  24.269  0.2039 -0.2288  0.1463
97858W        W40775  22.246   0.277  22.816  0.1289 -0.0624  0.0562
97859W        W40776  21.528  33.776  18.669  0.2738  0.1031  0.0779
97860W        W40777  19.127   1.093  22.351 -0.0361  0.1393 -0.2175
97861W        W40778  17.457  32.468  19.057 -0.0504  0.0256  0.1544
97862W        W40779  22.468  32.906  20.951 -0.1529 -0.0397  0.1295
97863W        W40780  19.638   1.059  22.347 -0.0776  0.1421 -0.1064
97864W        W40781  20.274  32.456  19.387 -0.2228  0.0177  0.1749
97865W        W40782  19.182  33.741  24.121 -0.1289 -0.0704  0.0244
97866W        W40783  19.942   0.039  22.929 -0.1465  0.1481  0.1036
97867W        W40784  19.763  33.416  21.141  0.1053 -0.1441 -0.0816
97868W        W40785  21.587   0.025  19.355 -0.1853  0.1298 -0.0723
97869W        W40786  18.668   0.591  22.880 -0.0362 -0.1603 -0.0996
97870W        W40787  18.688  32.381  23.094  0.2135  0.0402  0.1686
97871W        W40788  20.448   0.629  23.362  0.0683  0.2233  0.0327
97872W        W40789  20.028  34.097  20.212  0.0546  0.0353  0.0013
97873W        W40790  23.937  33.848  20.760 -0.2997 -0.1327 -0.5262
97874W        W40791  18.361  32.467  19.876 -0.0434  0.4126 -0.0036
97875W        W40792  20.950  34.531  23.435  0.2730 -0.0513  0.0803
97876W        W40793  18.693   0.158  19.942  0.1529 -0.0836  0.0728
97877W        W40794  20.306  34.059  23.500  0.2791 -0.0606 -0.2479
97878W        W40795  19.058  33.946  22.183  0.0642  0.0665  0.1277
97879W        W40796  17.167  33.966  22.727 -0.3599 -0.2471  0.3187
97880W        W40797  16.324  33.944  22.605  0.1263  0.1550 -0.1708
97881W        W40798  19.371  34.400  21.120 -0.3502  0.0447  0.0064
97882W        W40799  17.580  33.899  20.950 -0.2628  0.0950  0.0073
97883W        W40800  18.461   1.277  23.788 -0.2281  0.1978  0.3167
97884W        W40801  23.667   0.005  20.748 -0.0051  0.0648 -0.0192
97885W        W40802  16.948   0.245  22.813  0.1601  0.0439  0.0322
97886W        W40803  20.936  34.211  21.061  0.0953  0.2881  0.2321
97887W        W40804  19.192  32.960  24.562 -0.0648 -0.1809 -0.0454
97888W        W40805  21.901  33.304  21.400 -0.1350 -0.1422 -0.0012
97889W        W40806  19.653  33.740  21.550  0.0874  0.0330  0.2591
97890W        W40807  20.607   0.419  22.280  0.1372  0.1805  0.1186
97891W        W40808  19.740   1.840  22.663 -0.0609 -0.6958  0.0299
97892W        W40809  18.081  33.030  23.658  0.0167  0.0438  0.2502
97893W        W40810  21.036  33.777  20.046  0.3903 -0.1259  0.3306
97894W        W40811  21.733   1.356  24.160 -0.1686  0.1628  0.3180
97895W        W40812  22.395  34.195  22.384  0.1675 -0.0610  0.1600
97896W        W40813  19.944   0.607  19.848  0.0409 -0.0753  0.3065
97897W        W40814  18.064  34.486  22.662 -0.0861  0.3840  0.1034
97898W        W40815  20.091   0.751  22.608  0.0768 -0.2250 -0.3019
97899W        W40816  19.647  33.869  20.474  0.0799 -0.0280  0.3254
97900W        W40817  19.848   0.598  21.676 -0.4371 -0.1715  0.3777
97901W        W40818  20.642  33.559  20.365 -0.2612 -0.3741  0.1380
97902W        W40819  19.069  33.951  20.865 -0.1159 -0.1255  0.0418
97903W        W40820  19.187  32.929  21.226 -0.2141 -0.3146 -0.1286
97904W        W40821  18.340   0.340  20.451 -0.1209 -0.3906 -0.1187
97905W        W40822  18.817  33.211  21.045  0.4241 -0.3374  0.1579
97906W        W40823  21.709  34.532  22.924 -0.0230  0.2236  0.3308
97907W        W40824  21.205  33.187  22.170  0.0034 -0.3227  0.0887
97908W        W40825  21.447  32.728  22.398 -0.2523 -0.4659 -0.0969
97909W        W40826  20.515  33.388  19.906 -0.0869 -0.3387  0.1292
97910W        W40827  21.490  33.866  21.897  0.3465 -0.0948  0.2785
97911W        W40828  22.708   1.499  22.246  0.0653 -0.0395 -0.1059
97912W        W40829  20.550   2.278  20.783 -0.2049  0.0997  0.0850
97913W        W40830  17.472  33.119  22.356  0.0789  0.2244  0.2976
97914W        W40831  20.787  34.478  21.477  0.1922 -0.0863  0.2660
97915W        W40832  17.410   0.754  19.422 -0.0576 -0.4158 -0.2927
97916W        W40833  22.304  33.446  19.800  0.0462  0.2234  0.0725
97917W        W40834  21.276   0.535  23.784  0.2641 -0.1244 -0.0848
97918W        W40835  22.651   0.019  20.813  0.0165 -0.0773 -0.2243
97919W        W40836  19.638   0.686  19.436 -0.3994 -0.1957 -0.2907
97920W        W40837  20.906  33.227  20.114  0.3259  0.0791  0.1494
97921W        W40838  18.786  34.514  23.671  0.0114  0.1454  0.2349
97922W        W40839  21.589  33.832  23.123 -0.2341  0.2961  0.0449
97923W        W40840  17.311   0.704  21.406 -0.1449  0.0783  0.0361
97924W        W40841  21.939  34.162  20.370 -0.1994  0.1816  0.0695
97925W        W40842  21.403  33.709  24.057  0.0016 -0.0955 -0.2408
97926W        W40843  18.617   0.005  21.959  0.0379 -0.0480 -0.0195
97927W        W40844  18.621   1.679  20.903 -0.1175 -0.2536  0.1173
97928W        W40845  24.415  34.417  21.988  0.0598 -0.0466 -0.0849
97929W        W40846  16.567  33.397  23.267  0.1625 -0.3413 -0.4039
97930W        W40847  20.683  33.427  23.267  0.1366  0.0821  0.0160
97931W        W40848  18.661  33.915  22.478  0.0841  0.0457 -0.1921
97932W        W40849  20.008  33.906  21.772  0.0327  0.1237  0.0772
97933W        W40850  17.479   0.726  23.225  0.1052 -0.0044  0.2443
97934W        W40851  19.407   0.784  21.900 -0.3565  0.3277  0.0168
97935W        W40852  20.823   0.171  22.990 -0.2588  0.0205 -0.2260
97936W        W40853  20.687   0.700  21.158 -0.0397 -0.2462 -0.1617
97937W        W40854  18.572  32.244  20.652 -0.4817 -0.3401  0.3645
97938W        W40855  21.102  33.169  21.458 -0.0728 -0.2717  0.1303
97939W        W40856  17.547  34.314  19.960 -0.2757 -0.0682  0.4951
97940W        W40857  20.966  34.552  22.011 -0.0181  0.1362  0.0591
97941W        W40858  19.833  34.200  22.837 -0.2522 -0.1946 -0.1221
97942W        W40859  24.248  34.061  22.358  0.1057 -0.0372 -0.0215
97943W        W40860  21.355  33.509  22.742 -0.1554 -0.2176 -0.1389
97944W        W40861  18.116   0.106  22.122  0.1343 -0.2328  0.0584
97945W        W40862  19.924  32.857  20.511 -0.1474 -0.2021  0.0764
97946W        W40863  21.939  34.206  21.067  0.0528 -0.1219  0.2129
97947W        W40864  23.546  33.673  21.152 -0.2448  0.3160 -0.0327
97948W        W40865  20.373  33.331  22.842 -0.0018  0.1261  0.3997
97949W        W40866  20.415  33.067  22.439 -0.0412 -0.1374  0.2470
97950W        W40867  20.931   0.072  22.457  0.0478  0.1696 -0.1123
97951W        W40868  19.261   0.131  20.842  0.0763  0.0180  0.0697
97952W        W40869  21.535   0.371  22.742 -0.0522 -0.0474 -0.0381
97953W        W40870  22.100   0.961  23.241  0.4136  0.0626  0.1264
97954W        W40871  20.113   1.679  20.856  0.3042 -0.1954 -0.2265
97955W        W40872  16.401  34.568  19.506  0.2628  0.2663 -0.3895
97956W        W40873  20.130   0.188  21.912 -0.1581 -0.0433 -0.0714
97957W        W40874  18.690  32.575  23.771 -0.0549  0.2905 -0.2360
97958W        W40875  18.876   2.367  21.085 -0.2630  0.0223 -0.1459
97959W        W40876  17.366   1.428  20.704  0.1224 -0.0360  0.0050
97960W        W40877  18.514  33.351  22.869 -0.1103  0.1387 -0.1500
97961W        W40878  19.509  34.340  22.401  0.3483  0.0897 -0.1934
97962W        W40879  20.719  33.514  21.286 -0.1259  0.2996 -0.0857
97963W        W40880  20.829  31.995  21.151  0.0588 -0.1073 -0.3899
97964W        W40881  18.829  33.323  21.579 -0.0099  0.2573 -0.0010
97965W        W40882  17.886  32.697  20.061  0.1333 -0.3128  0.1173
97966W        W40883  19.736   0.734  20.296 -0.0370 -0.1424  0.1568
97967W        W40884  17.350  33.232  21.866 -0.4235 -0.1230 -0.1171
97968W        W40885  22.890  33.484  22.846  0.0946 -0.0133  0.2676
97969W        W40886  18.733  34.405  20.396 -0.0837 -0.4724 -0.2991
97970W        W40887  18.977  33.817  25.100  0.3378 -0.0016  0.0199
97971W        W40888  19.929  31.443  22.079 -0.0220 -0.2326 -0.1452
97972W        W40889  19.068  33.382  20.562  0.0464  0.1815  0.0113
97973W        W40890  19.546   1.273  21.850  0.0445 -0.3393  0.0075
97974W        W40891  20.145  33.834  21.220 -0.0394  0.0078  0.1187
97975W        W40892  19.666   0.273  22.590 -0.1060 -0.4681  0.3048
97976W        W40893  18.232   0.864  18.769  0.0213  0.0330  0.1527
97977W        W40894  21.993   1.196  20.582 -0.0158  0.0910 -0.1742
97978W        W40895  17.080  32.498  24.132 -0.0766 -0.2689  0.0345
97979W        W40896  19.094  34.457  19.931  0.2545  0.0684  0.2568
97980W        W40897  19.963   0.160  21.014  0.2556  0.0457 -0.2978
97981W        W40898  22.622   0.807  23.295 -0.0993 -0.1917  0.3905
97982W        W40899  20.658  33.701  22.312  0.0221 -0.0036 -0.1026
97983W        W40900  20.692  33.274  22.061 -0.1109  0.0012  0.1646
97984W        W40901  16.677   0.083  24.605  0.3319  0.4680  0.1390
97985W        W40902  19.934  34.317  22.010  0.1715  0.3125 -0.0908
97986W        W40903  20.975   1.944  23.899 -0.3197  0.1877 -0.2861
97987W        W40904  16.636  34.139  25.159 -0.0237  0.0020 -0.0474
97988W        W40905  18.543  33.680  25.510 -0.0832 -0.2420 -0.0135
97989W        W40906  19.590   0.739  25.007 -0.1977  0.2793 -0.2451
97990W        W40907  20.939   0.035  26.834 -0.2697  0.1964  0.3745
97991W        W40908  19.488  32.178  22.475 -0.1341 -0.3578 -0.2235
97992W        W40909  16.997  32.761  25.642 -0.1817 -0.0868  0.0412
97993W        W40910  20.839  34.665  25.812 -0.0353 -0.0333 -0.0382
97994W        W40911  16.037   0.234  23.350 -0.1236 -0.1032  0.0727
97995W        W40912  18.123  32.309  26.041  0.0223  0.5127 -0.0089
97996W        W40913  20.023  34.509  22.466 -0.0602  0.1027 -0.2295
97997W        W40914  17.504  33.422  28.415  0.1027 -0.2460  0.2841
97998W        W40915  18.392  33.420  27.988 -0.0394 -0.0166  0.0929
97999W        W40916  17.382   1.426  24.026  0.1270  0.1765 -0.1480
98000W        W40917  18.460   0.799  25.945 -0.0608  0.0042 -0.1268
98001W        W40918  17.484   0.509  26.821  0.1113 -0.1651 -0.0806
98002W        W40919  19.204  33.823  23.478  0.1100  0.0761 -0.0449
98003W        W40920  20.406   1.306  25.472 -0.1346  0.0033  0.0678
98004W        W40921  20.552  33.945  27.828  0.1570 -0.2782 -0.0989
98005W        W40922  19.091   0.768  25.224 -0.0552 -0.0169  0.0746
98006W        W40923  20.150   0.702  26.385  0.2832  0.0475  0.2343
98007W        W40924  21.212  34.040  27.153  0.4175 -0.2443 -0.1299
98008W        W40925  19.587  34.588  24.007 -0.2029 -0.0815  0.2123
98009W        W40926  16.658  34.171  23.759  0.1273  0.0040  0.3065
98010W        W40927  23.545   0.935  22.319 -0.0130 -0.0816 -0.3775
98011W        W40928  20.535  32.883  25.536  0.4513 -0.0843  0.0921
98012W        W40929  18.118  34.672  26.357  0.2575 -0.0518  0.0764
98013W        W40930  19.756   1.433  26.390  0.1892  0.1447  0.2517
98014W        W40931  19.765  34.643  25.798  0.0120 -0.1850  0.0054
98015W        W40932  18.119  34.614  24.424  0.1007 -0.2747 -0.2266
98016W        W40933  17.688  33.487  27.151  0.0519 -0.3727  0.1458
98017W        W40934  18.021   1.163  29.184 -0.2791  0.0207 -0.1130
98018W        W40935  17.669   0.965  28.190 -0.3634  0.2590 -0.0845
98019W        W40936  17.752  33.954  25.356 -0.3423 -0.0569 -0.1460
98020W        W40937  20.210  32.789  21.439 -0.0233  0.0711 -0.1656
98021W        W40938  19.001  33.372  25.353 -0.2238  0.0665  0.1310
98022W        W40939  19.258  34.557  26.397  0.0035  0.1394  0.1550
98023W        W40940  20.487   0.284  25.388 -0.1265  0.1971  0.1708
98024W        W40941  19.325  34.622  26.906  0.1250  0.4557 -0.0138
98025W        W40942  16.816   1.067  27.769  0.1378 -0.0369 -0.1186
98026W        W40943  20.103  33.804  23.942  0.0444  0.0991  0.0440
98027W        W40944  18.145  34.333  27.895 -0.0183  0.0193 -0.0561
98028W        W40945  20.880   1.230  25.273 -0.3646  0.3410  0.4227
98029W        W40946  20.179  32.684  23.635 -0.0912 -0.0277 -0.1915
98030W        W40947  18.255   0.131  27.581 -0.1627 -0.0898 -0.1328
98031W        W40948  19.066   0.152  23.332  0.2987 -0.2245  0.1425
98032W        W40949  17.403  34.469  29.362 -0.0956  0.2002 -0.0710
98033W        W40950  16.331  33.753  28.779 -0.0496 -0.2203  0.0614
98034W        W40951  21.387  33.969  26.256 -0.0758  0.1621 -0.1111
98035W        W40952  17.893  31.569  25.241 -0.2516 -0.0964  0.1896
98036W        W40953  20.683  33.807  24.862 -0.2232  0.0806  0.1196
98037W        W40954  18.442   0.073  25.272  0.4123  0.0894 -0.0522
98038W        W40955  18.591  34.135  26.765  0.1742 -0.1110 -0.0924
98039W        W40956  19.067  33.711  28.068  0.2224 -0.1218 -0.0227
98040W        W40957  17.595  34.662  23.619 -0.2175 -0.0253  0.0777
98041W        W40958  15.883  34.089  23.428  0.0099 -0.0291  0.0130
98042W        W40959  20.337  34.270  25.013  0.1342 -0.1425  0.2395
98043W        W40960  20.572   0.469  26.552  0.0883 -0.2325  0.2571
98044W        W40961  17.409  32.495  23.303  0.0811 -0.2016 -0.0100
98045W        W40962  16.123  34.476  27.783 -0.0830  0.0002 -0.1523
98046W        W40963  20.119  34.628  24.033 -0.0184 -0.0307  0.3757
98047W        W40964  16.998   0.638  26.527  0.3217 -0.1436 -0.2929
98048W        W40965  18.859   0.014  27.906 -0.0706 -0.2076 -0.0549
98049W        W40966  18.656   1.094  24.364  0.0632 -0.3315  0.0674
98050W        W40967  18.430  32.085  25.144 -0.4700  0.0856 -0.0073
98051W        W40968  21.782   0.370  23.837  0.2302 -0.0491 -0.0874
98052W        W40969  19.101  32.553  22.834  0.1630 -0.0881 -0.0385
98053W        W40970  19.764  32.795  23.246 -0.2554 -0.2735 -0.2598
98054W        W40971  20.519   1.126  23.956 -0.1167 -0.1433  0.0700
98055W        W40972  20.637  34.142  26.164 -0.1190 -0.1977 -0.1716
98056W        W40973  17.779  33.269  23.317  0.0178 -0.2508  0.1043
98057W        W40974  19.730  33.675  24.319 -0.3904  0.0665 -0.2810
98058W        W40975  20.066  33.556  26.689  0.1610 -0.0634  0.1557
98059W        W40976  19.520  32.709  26.877  0.1090  0.3631 -0.1968
98060W        W40977  19.050   0.292  26.517  0.0230  0.1056 -0.1013
98061W        W40978  19.152   0.864  27.564 -0.1134 -0.0150 -0.0945
98062W        W40979  22.162   1.703  24.032  0.0608  0.1577  0.1042
98063W        W40980  20.342   1.321  24.829  0.0044 -0.1494  0.1220
98064W        W40981  16.583   0.004  22.508  0.1368  0.1129  0.1108
98065W        W40982  19.867  34.131  25.323  0.0665  0.0394  0.1125
98066W        W40983  17.842  34.662  26.726  0.5288 -0.1952 -0.0310
98067W        W40984  20.705  34.569  24.748  0.2392  0.1381 -0.5152
98068W        W40985  18.154  33.997  23.940  0.2457  0.1050  0.0760
98069W        W40986  19.462  33.986  24.933 -0.2539  0.0232  0.0859
98070W        W40987  18.482   0.178  22.436 -0.3084  0.0853  0.1459
98071W        W40988  17.984   1.249  24.168  0.0876  0.0423 -0.0010
98072W        W40989  19.611  33.510  23.431 -0.2106 -0.1443 -0.1467
98073W        W40990  19.747  33.189  27.729  0.0326  0.1451  0.1905
98074W        W40991  21.871  33.369  25.525  0.3574 -0.1319  0.3292
98075W        W40992  19.795  34.614  26.837  0.1512  0.0551 -0.1237
98076W        W40993  19.838   1.220  24.699 -0.1371 -0.2076  0.0606
98077W        W40994  18.518  34.534  28.319 -0.2324  0.0413  0.0427
98078W        W40995  16.569  34.173  23.071 -0.1326 -0.0620  0.2776
98079W        W40996  20.878  33.704  25.875 -0.1561 -0.3098  0.1616
98080W        W40997  17.772  33.212  25.982  0.0959 -0.3264 -0.0397
98081W        W40998  17.443  33.996  23.540  0.4206 -0.1494  0.0193
98082W        W40999  19.063  34.151  26.636  0.0708 -0.1944  0.1632
98083W        W41000  19.698  33.532  24.895  0.3686 -0.1588 -0.1892
98084W        W41001  19.670  32.608  25.756 -0.0468  0.0622 -0.4453
98085W        W41002  19.810  33.966  23.259 -0.2325  0.3548  0.0102
98086W        W41003  20.068   0.521  26.814  0.0431 -0.3096 -0.0993
98087W        W41004  20.878   0.531  26.971 -0.0834 -0.1672 -0.0318
98088W        W41005  19.854   2.381  27.786 -0.3211  0.3058  0.0247
98089W        W41006  17.885   0.151  27.234  0.3229  0.3029 -0.0318
98090W        W41007  19.343   0.088  25.162 -0.0688 -0.1901 -0.1064
98091W        W41008  17.549  34.380  26.380  0.1281 -0.1534  0.1263
98092W        W41009  20.108  34.131  28.559 -0.0479  0.1608 -0.2784
98093W        W41010  19.841  34.415  24.935  0.0816 -0.0625  0.1207
98094W        W41011  21.847  33.548  26.991 -0.0770  0.1043  0.4444
98095W        W41012  17.638  33.965  27.466 -0.1325 -0.0227  0.0296
98096W        W41013  18.503   0.876  28.482  0.0711 -0.1923  0.3577
98097W        W41014  18.807   0.704  30.105  0.3514 -0.0016  0.1623
98098W        W41015  18.537  33.393  27.340  0.3575  0.2220 -0.2300
98099W        W41016  18.131  33.508  22.585  0.1200 -0.1228 -0.0878
98100W        W41017  19.198   0.450  27.927 -0.0409  0.1837 -0.0169
98101W        W41018  20.386   0.726  25.694 -0.0557 -0.0861 -0.1115
98102W        W41019  16.946   1.442  26.026 -0.1879  0.3256  0.1015
98103W        W41020  21.275  33.754  25.011  0.5065  0.1261 -0.0577
98104W        W41021  20.023  33.305  27.268  0.0118  0.1665  0.0314
98105W        W41022  20.623   0.409  26.045 -0.1407  0.0025  0.2911
98106W        W41023  18.548  34.111  27.317 -0.0493 -0.0859 -0.0357
98107W        W41024  20.245  34.525  25.992  0.1166  0.4119  0.1211
98108W        W41025  18.744   0.990  27.243  0.3308 -0.2129  0.2103
98109W        W41026  20.463  32.993  28.480  0.1503 -0.2835  0.1129
98110W        W41027  20.418   0.009  22.714  0.2878 -0.1365 -0.1655
98111W        W41028  21.445   1.076  24.565  0.0862  0.0665  0.2329
98112W        W41029  19.856   0.352  23.962  0.0526 -0.1059 -0.3989
98113W        W41030  19.333   0.645  23.279 -0.0873  0.1646 -0.2288
98114W        W41031  18.035  34.168  26.625  0.0915  0.0338  0.1310
98115W        W41032  19.701   1.103  27.553 -0.2255  0.0162  0.5108
98116W        W41033  19.866  34.251  23.695 -0.2071 -0.0946 -0.0316
98117W        W41034  20.681  34.362  28.837 -0.2801 -0.0017  0.2745
98118W        W41035  20.460  33.326  25.839  0.0015  0.0715  0.1843
98119W        W41036  18.302  32.923  25.868  0.0675 -0.3361  0.0334
98120W        W41037  20.244  34.635  24.501  0.3996 -0.2010  0.2363
98121W        W41038  18.715   0.366  23.732 -0.1057  0.5319 -0.3367
98122W        W41039  16.570   0.056  23.108  0.2444  0.0489 -0.1825
98123W        W41040  21.676  33.698  27.559  0.0573  0.0329  0.2320
98124W        W41041  20.260  34.510  25.491 -0.1054  0.0578 -0.5357
98125W        W41042  20.880   0.170  27.781 -0.0562  0.0727 -0.1160
98126W        W41043  21.947  34.335  24.583 -0.1128 -0.0755  0.1405
98127W        W41044  21.077   0.896  26.584 -0.0417 -0.0201 -0.2666
98128W        W41045  22.819  32.832  26.961  0.1731 -0.0398 -0.0066
98129W        W41046  18.539   1.932  27.470  0.1032  0.2196  0.0173
98130W        W41047  18.332  33.907  27.758  0.2758  0.2282 -0.0846
98131W        W41048  18.603  34.277  24.413  0.3237  0.3121 -0.4259
98132W        W41049  20.651  34.200  25.662 -0.0708 -0.3933 -0.2302
98133W        W41050  23.179  34.651  23.495  0.1864 -0.2653  0.5416
98134W        W41051  20.633  34.632  26.439 -0.2594 -0.1099 -0.0909
98135W        W41052  21.626  34.533  24.188  0.0019 -0.0395 -0.0901
98136W        W41053  18.543   0.967  27.809 -0.1539  0.0507 -0.0105
98137W        W41054  20.959   0.409  24.498 -0.2229 -0.0390 -0.3398
98138W        W41055  18.192  34.511  28.748  0.1988 -0.2020  0.2392
98139W        W41056  20.030  33.439  28.066 -0.0064 -0.2525  0.0558
98140W        W41057  17.790  33.279  22.816  0.0589 -0.2669 -0.1278
98141W        W41058  19.575  33.938  23.917  0.2515  0.0642 -0.0950
98142W        W41059  20.931  34.241  26.587  0.0054 -0.3580  0.0053
98143W        W41060  21.194  34.573  24.988  0.0569  0.4231 -0.2365
98144W        W41061  17.011   0.154  23.666  0.2945 -0.1983  0.0419
98145W        W41062  20.083   1.588  24.499  0.1182  0.3535 -0.0657
98146W        W41063  17.918  33.719  28.517  0.0646  0.3894 -0.3315
98147W        W41064  21.119  33.039  25.169 -0.2208  0.1158 -0.1428
98148W        W41065  18.647  33.854  23.141  0.0365 -0.2286  0.0159
98149W        W41066  19.949   1.066  25.341  0.2066  0.2180  0.1488
98150W        W41067  17.881  33.692  30.095 -0.2182 -0.2908 -0.0083
98151W        W41068  18.131   0.281  23.567 -0.2695  0.0255  0.1873
98152W        W41069  21.431   0.113  26.664  0.1221 -0.2028  0.1970
98153W        W41070  20.045   1.030  24.305 -0.0287  0.2543 -0.0468
98154W        W41071  18.174  34.063  24.426  0.0908  0.4282 -0.0282
98155W        W41072  20.707  33.780  24.154  0.0949  0.0738  0.2684
98156W        W41073  18.487  34.481  24.867 -0.1351  0.0679  0.1463
98157W        W41074  19.708   1.456  26.904 -0.1312  0.0026  0.0389
98158W        W41075  18.321  33.310  24.701  0.1335  0.1285  0.0039
98159W        W41076  20.452  33.868  25.306 -0.2097 -0.2860  0.1908
98160W        W41077  21.005  34.180  24.704  0.4166  0.0500  0.0069
98161W        W41078  18.323  34.469  27.030 -0.1482  0.1679 -0.2054
98162W        W41079  19.536  33.007  22.038 -0.0322 -0.2486 -0.0804
98163W        W41080  17.227   0.731  28.445  0.0309 -0.0366 -0.0153
98164W        W41081  21.057   1.387  27.317  0.2390 -0.1556 -0.0475
98165W        W41082  20.124  33.545  23.544 -0.0584  0.0167  0.0655
98166W        W41083  21.362  32.982  28.130  0.1103  0.1842  0.2695
98167W        W41084  18.339   0.404  26.191  0.0361 -0.0782 -0.1429
98168W        W41085  19.382   1.146  24.921  0.1404  0.0890  0.0017
98169W        W41086  21.697  34.500  25.154 -0.0044  0.1634 -0.0246
98170W        W41087  19.732  33.040  24.227 -0.0605  0.2163  0.1188
98171W        W41088  19.405   0.814  28.474 -0.3028 -0.1341 -0.0539
98172W        W41089  19.010  34.319  23.150  0.0806  0.1470 -0.1023
98173W        W41090  20.245  33.857  25.755  0.0668  0.1876  0.1297
98174W        W41091  17.855   0.953  30.318  0.1401 -0.2531 -0.1989
98175W        W41092  16.890   0.039  26.648  0.0815 -0.1219 -0.1657
98176W        W41093  19.593  33.240  25.548 -0.0555  0.1485 -0.0381
98177W        W41094  18.001   0.808  26.214  0.1116 -0.2829 -0.0276
98178W        W41095  16.384  33.420  24.401  0.3255  0.1751  0.1605
98179W        W41096  21.192  34.028  22.783 -0.1830 -0.0797  0.0127
98180W        W41097  20.606   1.288  27.626  0.1390  0.0419 -0.3430
98181W        W41098  20.222  33.639  27.617 -0.2033  0.1599 -0.1094
98182W        W41099  18.815  33.439  24.829 -0.0520  0.1234  0.0150
98183W        W41100  18.223   1.165  27.380  0.0581  0.1408 -0.2700
98184W        W41101  18.825  33.815  29.978 -0.1482  0.0443  0.0185
98185W        W41102  19.636  32.745  25.163  0.1853 -0.0792  0.0595
98186W        W41103  20.520   0.588  24.653  0.0529 -0.1371 -0.0792
98187W        W41104  16.912  33.854  26.984  0.3333 -0.5193 -0.1781
98188W        W41105  19.106  34.287  25.216 -0.0550  0.3758  0.0720
98189W        W41106  20.672  32.698  23.331 -0.1008  0.0475 -0.0183
98190W        W41107  17.291   0.234  28.439 -0.2324 -0.1300 -0.2020
98191W        W41108  18.074  33.897  26.194  0.2639 -0.1098 -0.1245
98192W        W41109  18.282   0.407  28.518 -0.0725  0.0579 -0.1304
98193W        W41110  16.647  33.296  22.780 -0.0416  0.4284  0.0546
98194W        W41111  20.693   0.602  23.947 -0.0574  0.0644 -0.0299
98195W        W41112  19.585  32.761  28.020 -0.0392  0.2017  0.0773
98196W        W41113  18.826   1.821  23.986  0.2284  0.2335  0.2919
98197W        W41114  19.526   0.245  23.612  0.1927  0.1136 -0.2949
98198W        W41115  20.248   1.230  26.482  0.0738 -0.0891  0.3747
98199W        W41116  17.268  33.133  25.869  0.0769  0.0188 -0.0978
98200W        W41117  21.808  34.495  22.436  0.1594  0.0574 -0.1925
98201W        W41118  18.337   0.670  29.859 -0.1965  0.1938  0.0178
98202W        W41119  20.072  33.198  24.548 -0.2676 -0.1009 -0.2457
98203W        W41120  21.033  33.515  28.949 -0.1128  0.0261 -0.3031
98204W        W41121  17.126  33.496  29.190  0.2393  0.1624  0.1087
98205W        W41122  20.240  31.065  30.267 -0.0911  0.1551 -0.2454
98206W        W41123  20.125   1.487  27.375  0.2522  0.1182 -0.5808
98207W        W41124  18.824  33.746  28.696 -0.3166 -0.1218  0.0193
98208W        W41125  19.322  33.906  28.694 -0.0456 -0.1348 -0.0324
98209W        W41126  19.315  33.646  31.272 -0.1186 -0.1687 -0.2006
98210W        W41127  20.545   0.648  30.355 -0.1784  0.7073  0.0907
98211W        W41128  17.045   0.129  29.156 -0.3593  0.0235  0.7434
98212W        W41129  19.518   0.283  31.206 -0.1810  0.1797 -0.2011
98213W        W41130  19.218  34.157  28.103  0.0822  0.0654 -0.0074
98214W        W41131  21.220  34.292  31.926 -0.1608  0.2579 -0.2202
98215W        W41132  20.238  34.243   0.268  0.0225  0.1081  0.1631
98216W        W41133  17.826   0.981  27.673 -0.1774 -0.1115  0.0470
98217W        W41134  16.490   1.412  30.098 -0.1989  0.2270 -0.3078
98218W        W41135  19.976  34.433  31.184  0.0121  0.0311  0.2068
98219W        W41136  20.913  34.113  29.971 -0.4547  0.1236 -0.2505
98220W        W41137  20.870   1.346  29.108  0.2743 -0.3269 -0.1475
98221W        W41138  20.979   2.141   0.594  0.0845 -0.0800  0.2130
98222W        W41139  20.893   0.866  31.519  0.0245 -0.0123  0.0183
98223W        W41140  19.776  33.654  31.055 -0.4485 -0.0310  0.0844
98224W        W41141  21.680  32.195  30.898  0.4207 -0.0861  0.5516
98225W        W41142  20.156  34.114  27.510  0.0152  0.1011 -0.0471
98226W        W41143  19.326  34.449  28.515 -0.2274 -0.0772 -0.0970
98227W        W41144  20.424   0.391  29.021 -0.2108 -0.0300 -0.1848
98228W        W41145  19.534  32.076  28.815 -0.0287 -0.3448  0.1785
98229W        W41146  20.232   0.379  30.060 -0.1318 -0.2251 -0.1681
98230W        W41147  20.488   1.089  28.891  0.1673  0.1435  0.0310
98231W        W41148  22.481  32.933   0.243  0.0506  0.0299 -0.0429
98232W        W41149  15.778  34.205  30.894  0.2083  0.2748  0.1644
98233W        W41150  17.331   1.339  27.430 -0.0072  0.1998 -0.0052
98234W        W41151  20.744  34.511  31.665 -0.0200 -0.1375 -0.2816
98235W        W41152  18.914   0.317   0.030  0.0782  0.1871  0.1678
98236W        W41153  18.654  33.081  27.737  0.1642  0.2185 -0.1500
98237W        W41154  20.994  34.140  29.146 -0.0094  0.2295 -0.2655
98238W        W41155  20.199  31.433  29.876 -0.0440  0.2348 -0.0758
98239W        W41156  19.923  32.598  30.935  0.3985  0.0130  0.1627
98240W        W41157  20.082   0.455  30.590  0.2542  0.2659  0.1211
98241W        W41158  21.476  33.890   0.165  0.1266 -0.2691  0.1598
98242W        W41159  20.164  33.981  31.238 -0.3842 -0.2140 -0.0998
98243W        W41160  20.538  33.468  28.770  0.0406  0.2337 -0.0292
98244W        W41161  18.978   0.206   0.584 -0.0468  0.1628  0.3217
98245W        W41162  19.664  34.164  28.371  0.1273  0.2916  0.0561
98246W        W41163  20.877   1.163  28.499  0.2225 -0.0227 -0.2121
98247W        W41164  18.843  34.374  30.000 -0.3437 -0.0043 -0.2467
98248W        W41165  20.586  33.060  27.627  0.1422 -0.1080  0.4427
98249W        W41166  20.425  31.794   0.841 -0.0167 -0.3572  0.2195
98250W        W41167  18.191  32.810   0.165 -0.1947  0.1890 -0.0902
98251W        W41168  21.545   0.217  30.236  0.2880 -0.1933 -0.0023
98252W        W41169  17.156  31.482  27.028  0.1366  0.0244  0.0747
98253W        W41170  19.949   0.210  31.603  0.2945 -0.2108  0.2451
98254W        W41171  16.536  33.864  28.275  0.1958  0.0464 -0.3754
98255W        W41172  21.567  33.935  30.462  0.1556 -0.1875 -0.1126
98256W        W41173  20.533  34.294  31.218  0.1417 -0.0181 -0.1267
98257W        W41174  17.584  30.541  30.279  0.2040 -0.1453 -0.1437
98258W        W41175  20.785  33.867  28.739  0.1828 -0.0235 -0.3347
98259W        W41176  20.450  34.434   0.691  0.2438 -0.0175  0.0190
98260W        W41177  20.103  33.873  30.496  0.1475  0.1791  0.2561
98261W        W41178  19.053  32.630  27.627  0.2057  0.1982  0.1775
98262W        W41179  17.486  33.370  31.125 -0.0218 -0.0592 -0.1982
98263W        W41180  20.398  33.291  30.381  0.0182  0.1532 -0.3360
98264W        W41181  16.200   1.619   0.302  0.2559 -0.1214 -0.2700
98265W        W41182  20.458  34.164   1.116 -0.0956  0.0706  0.0789
98266W        W41183  18.050  33.408  27.548 -0.0321  0.1276  0.1609
98267W        W41184  17.685  34.191  27.926  0.0667  0.3183 -0.1729
98268W        W41185  20.032   0.828  28.000 -0.0108 -0.2214 -0.3428
98269W        W41186  20.497  32.289  28.378 -0.0619  0.0996 -0.3098
98270W        W41187  19.658  34.341  27.275 -0.5440  0.0955 -0.3364
98271W        W41188  19.919  34.549  27.749  0.0518  0.2405 -0.1932
98272W        W41189  19.542  33.190  31.215  0.4368 -0.0934  0.0531
98273W        W41190  19.396   0.521  26.961 -0.0671  0.2341  0.1497
98274W        W41191  17.387  33.117  27.597  0.1055  0.1833  0.1935
98275W        W41192  21.554  33.296  29.948 -0.0388  0.0656  0.0078
98276W        W41193  19.959  33.247  29.370  0.1101  0.1227 -0.0825
98277W        W41194  21.462  33.231  31.102 -0.0961 -0.0260 -0.3015
98278W        W41195  22.838  33.423   1.366 -0.0364  0.1412  0.0280
98279W        W41196  20.998  34.522  27.328  0.0877  0.1263 -0.3417
98280W        W41197  19.789   0.099  30.244 -0.2954  0.0048 -0.2249
98281W        W41198  20.377   0.018  28.571 -0.2821 -0.1854 -0.0655
98282W        W41199  20.751   1.285   0.222  0.2470 -0.0202 -0.1248
98283W        W41200  20.308  32.855   0.173 -0.2510 -0.0458  0.0832
98284W        W41201  19.741  33.840  27.492 -0.0005  0.1271 -0.0177
98285W        W41202  20.659  33.760  29.759  0.0053 -0.4170 -0.1217
98286W        W41203  20.824   0.649  28.630  0.3860 -0.4893 -0.0051
98287W        W41204  17.253   0.529  26.042  0.1030 -0.0619 -0.0361
98288W        W41205  17.393  33.972  29.220  0.1039 -0.2103 -0.2606
98289W        W41206  20.359  33.721  28.312 -0.0223 -0.1806  0.1205
98290W        W41207  20.148  32.995  30.008 -0.0151  0.1144 -0.2810
98291W        W41208  19.971  31.287  30.857 -0.1425  0.2014  0.2296
98292W        W41209  21.015  34.013   0.319 -0.0048 -0.2366 -0.0600
98293W        W41210  20.193  32.258  29.192  0.1703  0.4327  0.1350
98294W        W41211  18.753  34.554  31.698 -0.3028  0.0926 -0.1319
98295W        W41212  17.734   0.748  29.120 -0.0736  0.2151 -0.0813
98296W        W41213  21.191   0.611  31.820  0.3337 -0.0235  0.0584
98297W        W41214  17.275  34.418  29.896 -0.1639  0.1700  0.0326
98298W        W41215  17.285  34.403  27.655  0.0276  0.0595 -0.0195
98299W        W41216  19.878  33.553   0.853  0.1655  0.2197 -0.1617
98300W        W41217  19.345   0.503   1.001 -0.2812  0.0751 -0.1573
98301W        W41218  21.655  33.217  30.602 -0.0563  0.0752 -0.0159
98302W        W41219  21.594  34.294  31.030 -0.0873  0.0647 -0.1848
98303W        W41220  19.908  33.060   0.936 -0.0178 -0.0528 -0.0895
98304W        W41221  19.348  29.994  30.062 -0.0830 -0.0026 -0.0893
98305W        W41222  22.251   0.083  31.786  0.0608 -0.0932 -0.0999
98306W        W41223  19.761  34.037   0.377  0.0387 -0.0520  0.0736
98307W        W41224  20.938  33.697  26.853 -0.0093  0.0568  0.2582
98308W        W41225  20.518  34.142  29.402  0.1097 -0.0933 -0.0879
98309W        W41226  21.126  30.529  30.075  0.0744  0.2123  0.1290
98310W        W41227  20.290   2.124  27.463  0.4031  0.1290 -0.0329
98311W        W41228  21.223  34.632   0.471 -0.2858  0.0205 -0.1205
98312W        W41229  18.891   0.048  28.535 -0.0529  0.2812 -0.0972
98313W        W41230  17.851  34.245  29.424 -0.0219  0.1346 -0.0370
98314W        W41231  18.864  33.735  30.981  0.1551 -0.0267  0.0929
98315W        W41232  20.504  34.440  27.656  0.0335  0.1984  0.0522
98316W        W41233  17.504  32.146  29.094  0.0001 -0.3349 -0.1012
98317W        W41234  20.336  33.270   0.575 -0.1254  0.0417 -0.0201
98318W        W41235  22.910  33.368  30.175 -0.0768  0.1785  0.0703
98319W        W41236  17.408   1.050  31.172 -0.2379  0.0683 -0.0509
98320W        W41237  20.184  34.098  29.783  0.0694  0.1097  0.2663
98321W        W41238  21.736  34.556  30.541 -0.1245  0.2581  0.0924
98322W        W41239  19.803  33.350  29.822  0.1176 -0.0218  0.2942
98323W        W41240  20.283   0.311   0.709 -0.1237 -0.0179 -0.2328
98324W        W41241  20.678  32.204  29.781 -0.3337 -0.0968 -0.0998
98325W        W41242  19.361  33.391  30.237 -0.1579 -0.0981 -0.0088
98326W        W41243  17.726  33.492  30.539  0.1084  0.5241 -0.1204
98327W        W41244  21.199   1.578  28.822  0.1151 -0.4965 -0.0539
98328W        W41245  20.878  33.331  31.845  0.0966 -0.0137 -0.0106
98329W        W41246  21.493   0.617  29.782  0.0992  0.0837 -0.1794
98330W        W41247  20.278  32.008  26.696  0.0879 -0.2783  0.0326
98331W        W41248  17.675  34.174  28.478 -0.1325 -0.1197 -0.0467
98332W        W41249  22.525   0.226   0.261  0.0554  0.0470 -0.2196
98333W        W41250  20.078  33.547  28.986  0.0540  0.3200 -0.1950
98334W        W41251  20.998  34.227  30.982  0.0852  0.2861  0.2385
98335W        W41252  19.237  34.496  30.405 -0.0305  0.0515  0.0542
98336W        W41253  17.588  33.422  29.771 -0.0099 -0.3217 -0.0422
98337W        W41254  19.041  33.097  27.428 -0.1715  0.1526 -0.0056
98338W        W41255  18.081   1.564  29.968 -0.0976 -0.0774 -0.1620
98339W        W41256  19.467  33.190  29.426 -0.0605 -0.1887 -0.1850
98340W        W41257  20.745  31.706  29.865  0.0120 -0.2807  0.0860
98341W        W41258  18.805  33.055  30.477 -0.2534 -0.1255  0.1479
98342W        W41259  20.286  33.609  30.022 -0.0063  0.0714 -0.1777
98343W        W41260  21.089   1.571  29.505 -0.2912 -0.1840  0.2892
98344W        W41261  19.718  34.110  29.662  0.4559 -0.1879 -0.3017
98345W        W41262  21.649   0.725  31.345 -0.1229  0.0565  0.2221
98346W        W41263  20.310   0.768  31.501 -0.1915  0.2591  0.0387
98347W        W41264  18.358  33.932  28.790 -0.1647 -0.0378 -0.1658
98348W        W41265  19.592  33.381  28.810 -0.3143  0.1117 -0.1023
98349W        W41266  20.733  33.703  30.329  0.1762 -0.2219 -0.1159
98350W        W41267  22.138  33.711  27.867 -0.0207 -0.0995  0.0466
98351W        W41268  21.929  34.565  27.713 -0.0438  0.0951 -0.0030
98352W        W41269  21.196  32.773  29.164  0.0678  0.0344  0.0957
98353W        W41270  18.525   0.406   0.509  0.0726 -0.0931 -0.0490
98354W        W41271  20.556  34.360  26.946  0.2114  0.0613  0.0134
98355W        W41272  20.323  32.915  30.713 -0.2195 -0.5724 -0.0290
98356W        W41273  21.034  32.003  31.794  0.1750 -0.0130  0.2000
98357W        W41274  18.176  33.972  29.770  0.2913  0.0754  0.2163
98358W        W41275  20.601   0.543   0.361  0.0648 -0.0631  0.2291
98359W        W41276  20.981  33.215  30.440  0.2353 -0.2056 -0.0188
98360W        W41277  20.647  33.793  31.048 -0.2428 -0.1634  0.0658
98361W        W41278  19.480  32.996  29.924  0.0294 -0.1385 -0.0419
98362W        W41279  21.200   0.809  28.403 -0.0476  0.0495 -0.2488
98363W        W41280  18.406   0.218   0.022  0.2444 -0.0092 -0.1815
98364W        W41281  21.551   0.097  31.121 -0.1275  0.0819  0.2331
98365W        W41282  18.011   0.311  28.925  0.1905  0.1423 -0.1027
98366W        W41283  20.426  34.209  30.209  0.2492 -0.0108 -0.0941
98367W        W41284  19.060   0.018  31.306 -0.2736 -0.0007 -0.0622
98368W        W41285  18.860  33.990  29.118 -0.2682  0.0824  0.0045
98369W        W41286  21.884   1.363  31.041 -0.0523  0.4444 -0.0220
98370W        W41287  20.285  34.432  28.112 -0.0172  0.3578  0.0350
98371W        W41288  18.742  33.204  28.279  0.1564 -0.2729 -0.0374
98372W        W41289  20.908  33.025  28.697 -0.1477 -0.4077 -0.0543
98373W        W41290  17.549  33.967  29.756  0.0971  0.3288  0.1236
98374W        W41291  19.778  33.611   0.142 -0.1136 -0.1162 -0.0866
98375W        W41292  18.315  31.996  29.504 -0.1838 -0.0225 -0.0987
98376W        W41293  21.169   0.835  31.119 -0.2807 -0.0393  0.1694
98377W        W41294  21.399   0.938  26.191  0.1881  0.1347  0.1361
98378W        W41295  19.272  33.990  30.676  0.5272  0.0022 -0.1193
98379W        W41296  19.935  32.302  30.101  0.1811 -0.1119  0.0649
98380W        W41297  15.993   0.720  29.774  0.0940  0.0786  0.1516
98381W        W41298  19.637   0.254   0.134  0.1013 -0.1787 -0.1360
98382W        W41299  21.189  34.481  30.252 -0.0269  0.0663  0.0281
98383W        W41300  19.266  31.079  29.578  0.0588  0.1652 -0.2651
98384W        W41301  19.311  33.640  29.703 -0.0541 -0.1040 -0.3972
98385W        W41302  19.318  34.510   0.150 -0.3755 -0.0006  0.0816
98386W        W41303  22.393  33.757  30.686 -0.0216 -0.1808 -0.0941
98387W        W41304  20.092   1.023  30.198 -0.2782  0.0823 -0.1625
98388W        W41305  18.432   0.028   1.407 -0.1493  0.0533  0.0825
98389W        W41306  16.938  34.284  29.494  0.0962  0.2016 -0.2583
98390W        W41307  21.668  33.289   1.340  0.1560  0.2955  0.1986
98391W        W41308  18.275  33.210  30.451 -0.0833  0.3243  0.1191
98392W        W41309  20.303  34.632  29.324 -0.1408 -0.0931  0.2193
98393W        W41310  19.167  33.058  27.954 -0.1118 -0.2650 -0.1553
98394W        W41311  18.675  34.427  28.928  0.3293  0.0967 -0.1269
98395W        W41312  18.864  34.197  28.536  0.2293 -0.2551  0.1372
98396W        W41313  20.397  33.089  29.145  0.2696  0.0475 -0.1671
98397W        W41314  21.492   1.662  31.104 -0.1370  0.2558 -0.0548
98398W        W41315  20.329  32.587  31.590 -0.1038  0.1029  0.3084
98399W        W41316  18.837  34.131  27.780  0.0308 -0.0140 -0.0560
98400W        W41317  19.738  31.307  29.594 -0.0160  0.2383 -0.0657
98401W        W41318  17.860  32.439  28.864 -0.0167 -0.0131 -0.1966
98402W        W41319  20.850  32.600  30.915 -0.0552  0.2808  0.1870
98403W        W41320  20.730  33.072  30.014 -0.6177 -0.1443  0.1164
98404W        W41321  20.864  32.071  31.019  0.0640  0.1278 -0.2109
98405W        W41322  19.992  34.489  28.835  0.0356  0.1759 -0.2289
98406W        W41323  19.449   0.712  29.526  0.2992  0.0015 -0.1143
98407W        W41324  19.309  32.942  30.422  0.0757 -0.2365 -0.1179
98408W        W41325  18.380  33.497  28.540  0.1412  0.0144  0.1643
98409W        W41326  19.770   0.998   0.357  0.1334  0.4051 -0.0165
98410W        W41327  18.231  34.489  30.159  0.1646 -0.1647 -0.1116
98411W        W41328  22.318  34.670  29.012  0.2033  0.0522 -0.1727
98412W        W41329  18.902  33.267  31.233 -0.1439 -0.0930  0.1007
98413W        W41330  16.748   0.903  31.114 -0.1737 -0.2962 -0.0255
98414W        W41331  20.551  33.658  29.196 -0.0082  0.1918 -0.0067
98415W        W41332  20.290   0.927  27.553 -0.0279  0.2464 -0.1420
98416W        W41333  19.169  32.897  28.476  0.1807 -0.0311 -0.1446
98417W        W41334  20.885   1.964  28.741  0.2211 -0.0034 -0.3038
98418W        W41335  21.233  32.932  30.769  0.0591  0.2707 -0.0711
98419W        W41336  21.106  33.709  30.733 -0.3797 -0.0293 -0.2195
98420W        W41337  18.726  34.521   0.290  0.0014  0.1788  0.2061
98421W        W41338  19.840  34.490   0.091  0.3261  0.2946 -0.2382
98422W        W41339  18.885  34.108  31.787 -0.1019  0.0205 -0.3797
98423W        W41340  23.064  33.537  31.422  0.0045 -0.1256  0.2871
98424W        W41341  20.171  33.411  30.804  0.1340  0.0364 -0.2374
98425W        W41342  20.052  34.099   0.825 -0.0952 -0.2726  0.0964
98426W        W41343  18.638  34.593   0.803 -0.1364  0.1452  0.0059
98427W        W41344  20.703  34.335   2.156  0.1755  0.0172 -0.3341
98428W        W41345  20.666  33.649   0.362  0.2637  0.1072  0.0048
98429W        W41346  22.042  33.500  31.015  0.0779  0.2192  0.0778
98430W        W41347  21.012   0.311   0.257 -0.1194  0.2276  0.1710
98431W        W41348  19.893  33.293   1.382 -0.1068  0.1394 -0.0493
98432W        W41349  20.644   0.020   1.078 -0.0048 -0.3748  0.1011
98433W        W41350  20.164  33.744   0.487 -0.1155  0.2151  0.1072
98434W        W41351  16.885   0.398   0.526  0.1703 -0.1132  0.1236
98435W        W41352  19.822   0.390   1.465  0.1538  0.0004  0.0739
98436W        W41353  20.891  32.326  31.471 -0.0781 -0.0417 -0.0301
98437W        W41354  16.248   2.271  30.261  0.3278  0.1323  0.3466
98438W        W41355  19.822   0.295   0.962  0.0356 -0.1193  0.0269
98439W        W41356  22.878  33.956   0.473 -0.3090  0.2291 -0.2240
98440W        W41357  20.715  34.653   1.728  0.2532 -0.0447  0.3138
98441W        W41358  20.343  33.180   1.146  0.0742 -0.4652 -0.3478
98442W        W41359  19.830  33.785  30.015  0.1374  0.0071 -0.0336
98443W        W41360  18.170  33.218   2.232 -0.0787 -0.0163 -0.0475
98444W        W41361  20.566  33.675  31.622 -0.0535  0.1786  0.1013
98445W        W41362  21.508  33.652   0.602  0.2352  0.0690 -0.1552
98446W        W41363  20.827  34.498   0.229  0.4516  0.3843 -0.1702
98447W        W41364  20.183   0.789   0.525 -0.1454  0.0492 -0.0548
98448W        W41365  20.797  32.187   1.440  0.0357  0.3782 -0.2072
98449W        W41366  18.465  34.555  31.000 -0.0314  0.1137 -0.0533
98450W        W41367  18.078  32.224  31.250 -0.4075 -0.2060  0.3650
98451W        W41368  22.238   2.065  31.740 -0.0202  0.3401 -0.0556
98452W        W41369  22.186   3.374  20.019 -0.0769 -0.1611 -0.0822
98453W        W41370  23.098  34.245  19.274  0.2397  0.0411 -0.0660
98454W        W41371  23.848   1.949  16.703  0.1459  0.0081 -0.0509
98455W        W41372  26.291   1.469  17.405  0.1218  0.2444  0.0850
98456W        W41373  22.268   1.042  18.425 -0.2940 -0.1387 -0.1097
98457W        W41374  23.723   5.066  17.569  0.0288 -0.1241 -0.2816
98458W        W41375  21.449   0.884  19.861 -0.0837 -0.0667  0.1188
98459W        W41376  24.515   3.480  17.864 -0.3797 -0.3310 -0.1286
98460W        W41377  24.311   4.191  18.471 -0.3090  0.3212 -0.0791
98461W        W41378  24.226   1.131  16.479  0.0813 -0.0206 -0.2514
98462W        W41379  25.124  34.210  17.926 -0.1454  0.0797 -0.1695
98463W        W41380  22.964   2.394  19.274 -0.5112  0.0556 -0.1324
98464W        W41381  22.103  34.555  19.141  0.1360 -0.0339  0.1167
98465W        W41382  22.327  34.458  20.157 -0.2293  0.0080  0.0308
98466W        W41383  24.657   2.487  19.629  0.0530  0.1440  0.2483
98467W        W41384  22.732   0.669  17.197 -0.3063  0.1804  0.3411
98468W        W41385  23.998   2.715  18.331 -0.0825 -0.1829  0.2008
98469W        W41386  24.619   0.803  17.492  0.1357  0.0089 -0.0943
98470W        W41387  22.104   4.134  18.901 -0.1054 -0.1092 -0.1918
98471W        W41388  22.040   0.332  19.477 -0.0377 -0.0826  0.1079
98472W        W41389  25.363  32.414  19.095 -0.0819  0.4384  0.1013
98473W        W41390  23.408   1.761  16.539 -0.0524 -0.0390  0.2231
98474W        W41391  20.947   2.315  17.144 -0.1460 -0.0483 -0.1793
98475W        W41392  22.763   1.967  19.925 -0.0157 -0.0876 -0.1108
98476W        W41393  25.617   0.302  17.668 -0.0436  0.0900 -0.2434
98477W        W41394  22.893   1.302  18.472 -0.3359 -0.2551  0.2456
98478W        W41395  23.055   2.867  19.862  0.4353 -0.1914 -0.1537
98479W        W41396  21.272   3.205  18.379  0.2586  0.4752  0.0092
98480W        W41397  23.562   5.394  18.109  0.1494 -0.0026 -0.0632
98481W        W41398  24.362  34.039  20.394  0.3892 -0.0064 -0.0046
98482W        W41399  23.200   0.862  17.361  0.3508 -0.1732 -0.0990
98483W        W41400  21.178   3.784  17.462  0.0286  0.1387  0.1508
98484W        W41401  22.598   1.907  17.753  0.1906 -0.1130  0.0137
98485W        W41402  23.563   4.328  17.266 -0.1854  0.1233 -0.1402
98486W        W41403  22.884   4.369  18.622 -0.3113 -0.1474  0.0485
98487W        W41404  25.011   4.263  19.868 -0.2381  0.1270  0.1221
98488W        W41405  20.457   3.526  16.319  0.0474  0.1284  0.0821
98489W        W41406  22.884   4.208  20.144 -0.0419  0.0335 -0.0526
98490W        W41407  23.489   3.625  21.032 -0.1150 -0.0302  0.0520
98491W        W41408  23.968   3.806  18.456  0.0169  0.1615 -0.1232
98492W        W41409  25.164   0.949  18.157 -0.0009  0.0363 -0.1292
98493W        W41410  24.666   3.854  19.290 -0.4631  0.3315  0.2415
98494W        W41411  22.110   2.249  17.096  0.0245 -0.1642  0.1723
98495W        W41412  20.343   1.773  19.550  0.1041  0.0135  0.0259
98496W        W41413  23.195   3.128  18.742 -0.1289  0.0914 -0.0259
98497W        W41414  27.700   0.208  19.265 -0.1106  0.2427 -0.3456
98498W        W41415  22.328   3.088  16.571  0.0216  0.1766 -0.2882
98499W        W41416  25.236   1.154  16.190  0.1427 -0.0893  0.1429
98500W        W41417  22.564   1.775  17.293  0.0402  0.0127 -0.2377
98501W        W41418  24.600   0.796  16.639 -0.1649 -0.2696 -0.0570
98502W        W41419  23.130   0.964  18.885 -0.0598  0.1353 -0.2394
98503W        W41420  21.735   3.564  17.789 -0.0779 -0.0931 -0.1517
98504W        W41421  22.508   2.193  19.517 -0.0456 -0.3059  0.0549
98505W        W41422  23.265   3.332  19.571 -0.0840  0.0791  0.1601
98506W        W41423  23.065   3.581  16.855 -0.2064 -0.0167  0.4303
98507W        W41424  24.431  34.073  17.046 -0.0938 -0.0417  0.0907
98508W        W41425  22.688   4.290  21.868 -0.0655  0.1500 -0.3011
98509W        W41426  25.059   1.512  17.300  0.1657  0.2163 -0.2357
98510W        W41427  24.562   1.410  17.374 -0.2827  0.3936 -0.2220
98511W        W41428  23.401   2.991  17.581  0.1839  0.1181  0.2446
98512W        W41429  24.851   2.941  16.369  0.2969 -0.0323  0.0303
98513W        W41430  23.387  34.623  17.829  0.1223  0.0948  0.2892
98514W        W41431  22.331   1.998  19.042 -0.1414  0.2481 -0.0640
98515W        W41432  22.551   1.680  18.547  0.1642 -0.0340 -0.1723
98516W        W41433  21.628  34.323  16.940  0.2651 -0.0191  0.0818
98517W        W41434  23.221   1.476  19.043  0.3391 -0.0247  0.0206
98518W        W41435  22.633   3.896  18.811  0.1871 -0.3404 -0.3197
98519W        W41436  25.315   2.180  19.283  0.2706  0.3075 -0.2677
98520W        W41437  23.877   2.644  19.159  0.0695  0.4880 -0.0167
98521W        W41438  24.589   3.231  17.454 -0.0542 -0.2135  0.0220
98522W        W41439  23.785   2.459  16.867  0.0499  0.0425  0.0353
98523W        W41440  25.782   1.448  19.259 -0.3296  0.2064 -0.1044
98524W        W41441  26.185   0.746  18.313 -0.3571  0.0947  0.0235
98525W        W41442  23.106   1.319  16.625 -0.1680 -0.0850  0.2407
98526W        W41443  22.939   2.704  16.624  0.1662  0.0013 -0.1670
98527W        W41444  25.624   3.169  17.739  0.1246 -0.1329  0.3240
98528W        W41445  24.981   1.277  16.648 -0.3728 -0.0364 -0.2663
98529W        W41446  20.945   4.238  17.591 -0.0050  0.1631  0.0573
98530W        W41447  23.867   0.556  19.400  0.1828  0.2267  0.0268
98531W        W41448  22.663   3.328  19.603 -0.3735  0.1942  0.1509
98532W        W41449  21.795   4.301  15.798 -0.2244 -0.1111 -0.0634
98533W        W41450  21.218   2.748  17.069  0.0994  0.0174 -0.1524
98534W        W41451  22.561   0.619  16.618  0.0363  0.3468 -0.3494
98535W        W41452  20.445   0.680  18.523 -0.3204  0.2387  0.0599
98536W        W41453  21.426   0.509  19.417 -0.2282 -0.1018 -0.2672
98537W        W41454  24.348   0.716  17.071 -0.0036 -0.5561 -0.0124
98538W        W41455  22.460   1.055  18.921  0.0385 -0.0360  0.0675
98539W        W41456  25.278   0.100  16.187  0.3408 -0.0507 -0.2616
98540W        W41457  22.893   3.917  16.502  0.0493  0.0653  0.3456
98541W        W41458  23.461   3.893  19.658  0.0586  0.2173 -0.0452
98542W        W41459  24.478   2.198  17.567 -0.1638  0.1831 -0.0786
98543W        W41460  25.673   2.815  17.388  0.1306  0.0641  0.1904
98544W        W41461  22.751   2.976  18.374  0.3825  0.2414 -0.1102
98545W        W41462  23.381   1.275  18.106  0.0768 -0.0413 -0.0056
98546W        W41463  20.911   1.374  20.247  0.5507 -0.1386 -0.1383
98547W        W41464  23.850   2.312  19.590 -0.2566  0.1818 -0.0051
98548W        W41465  27.866   2.825  19.407  0.0333  0.0153 -0.3423
98549W        W41466  20.119  34.214  19.132 -0.1438  0.0643  0.0286
98550W        W41467  23.317  34.560  18.786 -0.0820 -0.2957  0.0822
98551W        W41468  23.994   1.018  16.877  0.1774  0.0310  0.2076
98552W        W41469  21.039   1.182  16.673 -0.1054 -0.1213  0.0308
98553W        W41470  24.592  34.654  18.405  0.1756  0.1291 -0.0358
98554W        W41471  21.934   4.402  17.642 -0.2273  0.2408 -0.2692
98555W        W41472  25.489   4.414  18.560 -0.0355  0.1462 -0.1616
98556W        W41473  25.063   3.462  17.751 -0.0903 -0.0354 -0.2687
98557W        W41474  21.925   4.061  20.094 -0.0566 -0.0875 -0.0954
98558W        W41475  24.858   1.966  17.221 -0.0954  0.1206  0.1151
98559W        W41476  20.708   1.873  17.208  0.0282  0.0738 -0.2312
98560W        W41477  23.547   1.065  16.606  0.1265 -0.0414 -0.1410
98561W        W41478  23.244   0.790  18.425 -0.2149  0.2026 -0.0222
98562W        W41479  25.243   3.461  18.608  0.1367 -0.3591 -0.2688
98563W        W41480  21.519   3.984  17.918  0.0305 -0.0274  0.0186
98564W        W41481  24.048   0.163  20.265 -0.2346 -0.2104  0.4403
98565W        W41482  25.968  34.443  20.681  0.1124 -0.3106 -0.0627
98566W        W41483  22.630   2.272  18.772 -0.5047  0.1097 -0.1918
98567W        W41484  22.877   0.455  17.600 -0.3301  0.0735  0.0187
98568W        W41485  21.266   2.907  16.114 -0.1808  0.1909 -0.3519
98569W        W41486  24.322   3.490  18.852  0.1903 -0.0440 -0.1054
98570W        W41487  22.575   2.425  16.454 -0.1575  0.1816 -0.0071
98571W        W41488  21.131   2.739  18.718  0.1056 -0.1936  0.3838
98572W        W41489  23.028   3.864  17.330 -0.3559  0.2521 -0.0318
98573W        W41490  23.638   0.706  18.824  0.1845 -0.0029 -0.0619
98574W        W41491  22.868   3.140  17.795  0.0227  0.1335 -0.0757
98575W        W41492  22.290   0.786  20.098  0.0607 -0.1935 -0.1185
98576W        W41493  21.721   1.941  17.060 -0.1529 -0.4378  0.2745
98577W        W41494  22.105   3.835  18.120  0.0281 -0.2301  0.2057
98578W        W41495  25.391   0.171  17.126  0.4028  0.0899  0.1338
98579W        W41496  26.275  34.312  19.269 -0.1626 -0.0489  0.0498
98580W        W41497  23.443   3.959  17.588  0.0209  0.0425 -0.2904
98581W        W41498  25.526  34.482  17.656  0.0318  0.0379 -0.3741
98582W        W41499  24.338   0.233  16.034  0.1075  0.2282 -0.0177
98583W        W41500  23.399   0.252  17.012  0.0056  0.1665 -0.0454
98584W        W41501  21.751   2.885  20.635  0.0200  0.0791  0.3245
98585W        W41502  24.225   3.111  16.089  0.1816  0.3213 -0.0180
98586W        W41503  22.087   2.373  18.806 -0.1819 -0.0947  0.2449
98587W        W41504  23.401   0.377  17.549  0.2027 -0.3970  0.1848
98588W        W41505  25.103   3.734  17.377  0.1142 -0.2587  0.0787
98589W        W41506  22.179   1.951  16.173 -0.3321 -0.1645 -0.0380
98590W        W41507  23.578   5.635  18.912 -0.1018  0.3108 -0.1019
98591W        W41508  24.140   5.581  17.973 -0.1374 -0.0476 -0.0019
98592W        W41509  23.704   0.520  19.965 -0.1936  0.0664  0.0813
98593W        W41510  22.041   0.752  16.754  0.1230  0.0671  0.0382
98594W        W41511  21.316  34.265  19.983 -0.1384 -0.2333 -0.0831
98595W        W41512  19.838   1.728  16.440  0.3343 -0.0565 -0.0829
98596W        W41513  26.415  34.423  17.246 -0.0669  0.0048 -0.1461
98597W        W41514  21.627   1.332  19.571 -0.0736  0.1169  0.1516
98598W        W41515  24.069  33.113  19.500  0.2944  0.1168 -0.0939
98599W        W41516  25.539   0.953  18.957 -0.0079 -0.0074 -0.2474
98600W        W41517  25.654   1.237  15.893 -0.0032 -0.3157 -0.3305
98601W        W41518  25.167  34.561  16.729 -0.2402 -0.0903  0.0219
98602W        W41519  22.734   0.804  18.581  0.0151  0.1427 -0.2925
98603W        W41520  22.725  33.443  18.867 -0.0386 -0.0825  0.0081
98604W        W41521  23.180   1.911  21.065  0.4408 -0.6796  0.2839
98605W        W41522  20.662   3.601  20.226  0.0264  0.1723 -0.2342
98606W        W41523  23.376   5.097  19.111 -0.0245 -0.0403  0.1127
98607W        W41524  23.907   2.027  19.083  0.2001 -0.1995  0.0837
98608W        W41525  23.977  34.029  20.096  0.1491  0.0989 -0.1530
98609W        W41526  24.220   1.446  16.022  0.0758  0.1780 -0.0141
98610W        W41527  23.879   4.708  17.178 -0.0008 -0.1306 -0.2509
98611W        W41528  23.016   1.680  16.946  0.0620  0.4055 -0.2451
98612W        W41529  21.116  32.438  18.935  0.1276  0.0586  0.0279
98613W        W41530  22.343   1.054  16.441 -0.1551 -0.4511  0.0498
98614W        W41531  20.179   3.108  16.184 -0.0760  0.0344 -0.2287
98615W        W41532  23.389   4.331  20.006  0.1911 -0.3654 -0.1400
98616W        W41533  23.207   2.811  17.123  0.1735  0.1977  0.0175
98617W        W41534  25.266  34.404  19.895  0.0575  0.1538 -0.1597
98618W        W41535  24.075   3.349  17.350 -0.2179  0.2077 -0.1557
98619W        W41536  21.308   2.321  16.829  0.1129  0.1758 -0.2747
98620W        W41537  22.277   0.476  17.101  0.0406 -0.2133  0.1071
98621W        W41538  25.761  33.523  17.149 -0.4035  0.0493  0.0149
98622W        W41539  23.330   1.675  17.307  0.0809  0.0005 -0.1844
98623W        W41540  21.901  34.069  18.862  0.3553 -0.0656  0.0879
98624W        W41541  25.083   0.881  19.636 -0.3553 -0.3038 -0.3871
98625W        W41542  22.483   2.645  16.903 -0.2708  0.2639  0.0019
98626W        W41543  22.376   3.608  19.078 -0.0965  0.1521  0.1552
98627W        W41544  22.885   0.345  18.429 -0.1371 -0.1765 -0.0231
98628W        W41545  23.934   4.184  18.131  0.0528  0.3436 -0.1629
98629W        W41546  22.768   1.385  21.144  0.0207  0.2294 -0.0958
98630W        W41547  21.446   1.404  16.968  0.2207  0.1895 -0.1372
98631W        W41548  25.361   1.517  19.025 -0.0610  0.2319 -0.2726
98632W        W41549  21.779   0.875  17.183 -0.1129  0.0258 -0.1836
98633W        W41550  21.574   3.752  16.609 -0.1031  0.1078  0.3544
98634W        W41551  22.615   4.769  20.135  0.0822  0.0168  0.0142
98635W        W41552  23.862   1.961  17.216  0.2648  0.0854  0.2358
98636W        W41553  23.287   3.479  17.890  0.1109  0.2128  0.1655
98637W        W41554  21.419   0.280  18.947  0.1582  0.0764 -0.0033
98638W        W41555  24.517   4.446  20.796  0.0335 -0.0266  0.1045
98639W        W41556  23.763   0.539  20.477 -0.1644 -0.0688  0.1213
98640W        W41557  22.461  33.903  20.209 -0.0925 -0.0974 -0.1037
98641W        W41558  25.240   1.614  18.094  0.1277  0.0249  0.0217
98642W        W41559  25.200   1.755  18.601  0.1343 -0.4529 -0.0481
98643W        W41560  23.455   0.282  18.228 -0.0359  0.1455  0.1566
98644W        W41561  22.887   3.794  17.809 -0.2029 -0.2438 -0.0072
98645W        W41562  24.489  32.053  17.752 -0.0365  0.1575  0.0234
98646W        W41563  25.780   3.977  16.394 -0.0521 -0.0219 -0.0000
98647W        W41564  23.201   0.200  19.912  0.2678 -0.2306  0.0772
98648W        W41565  22.380   1.333  17.459  0.1030  0.3151  0.1169
98649W        W41566  21.681   3.108  17.140 -0.0060 -0.4227 -0.2523
98650W        W41567  21.991   4.418  17.124  0.0745  0.4473  0.1484
98651W        W41568  23.002   0.306  20.560 -0.1689 -0.0260  0.2649
98652W        W41569  22.756   3.384  16.483  0.1916 -0.0866 -0.1730
98653W        W41570  23.209   3.530  16.231 -0.1741 -0.0183  0.1518
98654W        W41571  21.082   3.157  19.370 -0.1880 -0.1167 -0.1268
98655W        W41572  22.920   0.324  19.022  0.1208 -0.0842 -0.0916
98656W        W41573  22.774   3.136  16.951  0.1424 -0.1839  0.3095
98657W        W41574  23.816   0.645  16.531 -0.0512 -0.0085  0.2488
98658W        W41575  25.050   1.501  20.437 -0.0618  0.0173  0.0754
98659W        W41576  24.698   3.025  17.960  0.3183  0.0342 -0.0680
98660W        W41577  24.265  34.399  20.069 -0.0483 -0.0129  0.2896
98661W        W41578  21.827  33.552  19.057 -0.1884  0.2831 -0.2898
98662W        W41579  24.545   1.145  16.997 -0.0553 -0.0529 -0.1790
98663W        W41580  24.211   0.857  17.892  0.2094  0.1861  0.0551
98664W        W41581  25.422   4.244  23.031 -0.2658  0.0558 -0.0486
98665W        W41582  22.602   1.474  19.814  0.1188 -0.1455 -0.0285
98666W        W41583  24.622   0.388  18.653 -0.2214 -0.1981 -0.1185
98667W        W41584  24.104  33.745  16.697 -0.0814 -0.1223 -0.0660
98668W        W41585  23.298   0.369  18.724  0.2950 -0.2392  0.0291
98669W        W41586  23.769   0.756  17.601  0.0690 -0.2205  0.0423
98670W        W41587  23.191   3.163  16.589  0.1374  0.3715 -0.0269
98671W        W41588  25.302   2.651  19.035 -0.1668 -0.0295 -0.3102
98672W        W41589  22.073   1.994  19.672 -0.4074  0.2615  0.0555
98673W        W41590  25.121   1.037  17.142  0.0496 -0.0166 -0.0772
98674W        W41591  25.432   1.003  16.659  0.0667 -0.4693 -0.2151
98675W        W41592  23.675   2.104  17.684  0.3185  0.1809 -0.2149
98676W        W41593  24.169   1.821  20.133 -0.0021 -0.0338  0.1576
98677W        W41594  23.138   2.031  19.604  0.1867  0.2064 -0.1661
98678W        W41595  24.302  34.104  18.447  0.1450 -0.1176  0.0029
98679W        W41596  25.250  34.339  18.401 -0.0561  0.1294  0.2346
98680W        W41597  25.010   0.155  20.296 -0.1567 -0.1917 -0.1023
98681W        W41598  22.187   2.178  17.789 -0.1311 -0.1313  0.1491
98682W        W41599  22.070   0.707  20.636 -0.1379  0.0511  0.0517
98683W        W41600  24.096   5.829  18.889  0.1063  0.1546  0.0125
98684W        W41601  25.935   1.849  17.286 -0.1353 -0.1093  0.0248
98685W        W41602  24.839   2.012  19.583  0.1308 -0.4383  0.1897
98686W        W41603  25.108   0.033  17.616  0.0561 -0.0220  0.2594
98687W        W41604  23.013  34.306  16.578 -0.0696 -0.2531 -0.2517
98688W        W41605  22.587   2.253  17.394 -0.1503  0.0085 -0.0894
98689W        W41606  23.678   3.148  20.735 -0.1157 -0.3763  0.2652
98690W        W41607  23.866   1.417  16.425  0.1672  0.0911  0.1711
98691W        W41608  26.073   0.178  18.921 -0.2701  0.1874 -0.0130
98692W        W41609  25.029   1.644  16.347  0.1322  0.0030 -0.2228
98693W        W41610  24.194   3.106  17.890 -0.2514  0.0569  0.1523
98694W        W41611  26.123  34.022  18.248 -0.1595 -0.0672 -0.2665
98695W        W41612  21.543   0.970  16.670 -0.2770  0.1086 -0.1847
98696W        W41613  23.764   3.082  18.896  0.0789 -0.1559  0.0169
98697W        W41614  20.460   2.687  16.169 -0.0638  0.1436 -0.0686
98698W        W41615  22.168   0.296  16.537 -0.0387 -0.1240  0.0603
98699W        W41616  22.674   3.375  18.698  0.0331 -0.2100 -0.1171
98700W        W41617  24.565   1.265  19.316  0.0057  0.0250  0.0679
98701W        W41618  26.361  33.578  18.396  0.0987  0.1999 -0.1735
98702W        W41619  23.848   1.166  17.924  0.0444  0.2743  0.1021
98703W        W41620  21.811   2.666  18.520  0.0168  0.0138 -0.0775
98704W        W41621  23.919  34.167  17.082  0.0073 -0.2228  0.0510
98705W        W41622  21.531   7.077  18.213 -0.0935 -0.1018  0.0311
98706W        W41623  23.400   4.514  19.020 -0.1928 -0.2117  0.0618
98707W        W41624  24.048   2.229  18.153  0.0759 -0.0439 -0.0804
98708W        W41625  23.583  33.233  18.467 -0.1988  0.0862 -0.2127
98709W        W41626  23.074   2.178  18.013 -0.2533 -0.1196 -0.0097
98710W        W41627  24.244   1.498  18.665 -0.3188  0.3001 -0.1345
98711W        W41628  22.852   1.963  19.126  0.1534  0.0398  0.1520
98712W        W41629  23.101   3.632  18.770  0.0660  0.1048 -0.2957
98713W        W41630  23.336   1.534  18.538  0.1211  0.3854  0.0804
98714W        W41631  22.495   4.042  20.489  0.0119  0.3600 -0.1549
98715W        W41632  26.079   3.061  17.584  0.2772 -0.2371  0.1485
98716W        W41633  23.170   2.559  17.699  0.2207  0.0796 -0.1704
98717W        W41634  20.630   0.453  21.700 -0.1010 -0.2028  0.0626
98718W        W41635  24.835   3.340  20.119  0.0161  0.0910 -0.1725
98719W        W41636  24.235   1.745  18.229 -0.2693 -0.3268  0.1515
98720W        W41637  23.727   1.125  17.279  0.0737 -0.0593  0.2051
98721W        W41638  24.307   2.767  17.106  0.1469  0.3255 -0.1603
98722W        W41639  24.374   2.653  20.081 -0.3525 -0.0515  0.2994
98723W        W41640  22.370   3.758  22.361 -0.2338  0.0343  0.3934
98724W        W41641  21.291   3.256  17.424  0.0256 -0.1266  0.1438
98725W        W41642  25.627   3.125  16.710  0.2111 -0.0722  0.1863
98726W        W41643  24.758   2.079  16.554  0.0357 -0.0500 -0.0576
98727W        W41644  22.661   2.475  17.846  0.0582 -0.0774  0.0527
98728W        W41645  21.986   1.355  17.756  0.1733  0.1345 -0.1139
98729W        W41646  23.458   2.195  19.277  0.2370 -0.1381  0.2835
98730W        W41647  20.840   1.931  18.155  0.2059 -0.3508  0.1962
98731W        W41648  24.259   2.846  18.698 -0.1504 -0.1352 -0.0475
98732W        W41649  22.645   2.078  18.277 -0.0898 -0.0042 -0.1594
98733W        W41650  23.316   2.961  20.368  0.0843  0.2601 -0.2426
98734W        W41651  24.782   0.459  16.284 -0.1006  0.0628  0.1510
98735W        W41652  26.065   2.162  16.924  0.0497  0.2886 -0.0914
98736W        W41653  26.810   2.636  17.906 -0.1586 -0.1168  0.3489
98737W        W41654  23.992   5.287  19.038 -0.0511 -0.0319 -0.6587
98738W        W41655  24.276   0.078  17.896 -0.5860 -0.1301  0.0089
98739W        W41656  22.233   0.865  17.413  0.0002  0.0354 -0.0023
98740W        W41657  20.667   3.300  17.863  0.0013 -0.3032 -0.0443
98741W        W41658  26.943  33.895  19.888  0.1669 -0.2829 -0.1959
98742W        W41659  23.132   3.312  17.340 -0.1218  0.2324 -0.0789
98743W        W41660  22.952   4.947  16.664 -0.1956  0.0459 -0.0116
98744W        W41661  19.803   2.252  16.511 -0.0967  0.1231 -0.1299
98745W        W41662  25.235   3.112  18.969  0.3336 -0.1678 -0.2152
98746W        W41663  26.564  34.647  19.412  0.3719 -0.1408 -0.3175
98747W        W41664  21.775   2.971  16.678  0.0012  0.2968  0.0572
98748W        W41665  26.391   1.418  17.918  0.1786 -0.3842  0.1577
98749W        W41666  24.812   2.552  17.720 -0.1979  0.2143 -0.1437
98750W        W41667  23.510   3.859  18.106  0.1040 -0.1434  0.0726
98751W        W41668  24.254   2.383  18.957  0.2573 -0.3610 -0.0749
98752W        W41669  21.693   2.336  17.419  0.4698  0.1077 -0.5087
98753W        W41670  26.182   0.551  16.790  0.0042  0.2425 -0.1952
98754W        W41671  22.529   4.604  19.619 -0.1412 -0.0578 -0.1125
98755W        W41672  24.751   0.293  20.727 -0.2085  0.4311 -0.0614
98756W        W41673  22.173   2.049  18.448 -0.3453  0.3485 -0.0730
98757W        W41674  24.154   1.486  17.023 -0.1342 -0.1869  0.0190
98758W        W41675  22.448   1.786  21.371 -0.3000  0.0509  0.1497
98759W        W41676  22.130  33.710  20.531 -0.1151  0.2018 -0.1050
98760W        W41677  23.631   1.492  16.885  0.1361  0.4218  0.1791
98761W        W41678  24.901   2.716  20.142 -0.3589 -0.2905 -0.0958
98762W        W41679  24.377   3.228  16.958 -0.2038 -0.0616  0.1012
98763W        W41680  25.056   5.063  22.071 -0.1227  0.1814 -0.1024
98764W        W41681  24.664   1.739  17.755  0.3250  0.1767  0.1573
98765W        W41682  23.404   0.783  17.890 -0.0570  0.1717 -0.1391
98766W        W41683  21.589   2.636  19.013  0.2597  0.0129  0.0127
98767W        W41684  24.595   2.447  18.554 -0.0777  0.0284 -0.2123
98768W        W41685  23.902   2.539  20.015 -0.1125 -0.1306  0.1184
98769W        W41686  21.571  33.506  16.251  0.0389 -0.2165  0.1373
98770W        W41687  23.938   3.456  16.889  0.1609 -0.0324  0.0535
98771W        W41688  23.739   1.483  18.906 -0.4562  0.2344  0.2266
98772W        W41689  23.467   2.782  16.723  0.0244  0.0246  0.0001
98773W        W41690  24.718   2.465  17.208  0.1149 -0.1267  0.0482
98774W        W41691  23.913   4.617  17.715  0.0299 -0.2246 -0.1924
98775W        W41692  22.341   1.596  18.098  0.0386  0.2607  0.0868
98776W        W41693  23.523   3.449  18.425  0.1103  0.2604  0.0142
98777W        W41694  25.620   2.353  20.030  0.0426  0.0784  0.0458
98778W        W41695  23.355   1.791  17.873 -0.2735 -0.2130  0.0428
98779W        W41696  22.952   1.596  17.607  0.1357 -0.0205  0.0082
98780W        W41697  22.195   1.703  16.899 -0.0391 -0.1000  0.1381
98781W        W41698  25.865   1.911  16.494  0.3769  0.1139  0.1582
98782W        W41699  25.030   0.002  19.354 -0.1478 -0.0085  0.1745
98783W        W41700  23.883   3.975  16.466 -0.0109 -0.0729 -0.2077
98784W        W41701  24.665   0.407  19.165 -0.0257 -0.0832  0.1469
98785W        W41702  20.684   2.865  19.696 -0.0453  0.0042 -0.4097
98786W        W41703  24.113   4.429  19.274 -0.1304 -0.3110  0.0254
98787W        W41704  22.144   2.582  16.410  0.2641  0.0942  0.0373
98788W        W41705  21.455   2.279  18.555  0.2080 -0.4626 -0.0292
98789W        W41706  23.388   3.993  16.370  0.2115  0.5607  0.1102
98790W        W41707  22.474   3.510  16.903 -0.0202 -0.0079 -0.1057
98791W        W41708  23.754   5.630  19.340 -0.1204  0.0046  0.1548
98792W        W41709  25.636   2.319  17.152 -0.0872 -0.1732 -0.0031
98793W        W41710  24.882   3.538  18.256 -0.1958 -0.1293  0.2579
98794W        W41711  22.194   0.795  19.236  0.1749 -0.0762 -0.0876
98795W        W41712  25.612  34.369  16.808  0.2474  0.4998  0.5163
98796W        W41713  23.350   0.585  16.446  0.1154  0.1236  0.0662
98797W        W41714  22.859   2.429  19.743 -0.3179 -0.1793  0.0452
98798W        W41715  18.910   1.014  18.284 -0.4602  0.0259 -0.2485
98799W        W41716  21.993   3.451  16.681  0.0848 -0.0343  0.0437
98800W        W41717  22.713   1.309  17.966 -0.0195 -0.1657  0.1445
98801W        W41718  23.038   0.210  22.537 -0.0316  0.0466  0.1487
98802W        W41719  22.658   2.684  20.266  0.0394  0.2294 -0.0859
98803W        W41720  21.771   2.625  17.040 -0.0547  0.1692  0.1685
98804W        W41721  22.934  34.143  17.101  0.4234 -0.0158 -0.1499
98805W        W41722  25.520   3.465  15.110  0.0446  0.0474 -0.1205
98806W        W41723  21.420   0.795  18.970 -0.0137  0.1945  0.2115
98807W        W41724  21.137   1.080  17.832 -0.1703 -0.0862  0.2024
98808W        W41725  24.732   3.181  19.189 -0.2089  0.1597 -0.2433
98809W        W41726  24.047   5.039  17.957  0.0710 -0.3704  0.0613
98810W        W41727  23.945   1.895  18.639 -0.3093 -0.0584 -0.2959
98811W        W41728  26.259   1.843  21.201  0.3975  0.0098 -0.0112
98812W        W41729  19.127   1.889  17.031 -0.0958 -0.0354  0.0106
98813W        W41730  23.996   3.776  19.863  0.3465 -0.4957 -0.0080
98814W        W41731  23.996  34.476  19.536 -0.2721 -0.0296 -0.2130
98815W        W41732  20.370   2.674  18.290 -0.2310 -0.0928 -0.0433
98816W        W41733  24.133   0.518  18.762 -0.0484 -0.1331 -0.3762
98817W        W41734  22.885   3.935  18.351 -0.0197  0.0082 -0.3223
98818W        W41735  25.055   2.568  15.920  0.0660 -0.1629 -0.1996
98819W        W41736  23.557   1.701  19.325  0.2057 -0.2379  0.1038
98820W        W41737  22.448   3.767  19.691 -0.0099  0.1290 -0.1348
98821W        W41738  22.558  34.235  19.309  0.1568 -0.2059  0.0715
98822W        W41739  24.383   1.151  15.561  0.0617  0.0390  0.0062
98823W        W41740  23.343   4.633  18.437 -0.2264  0.1201 -0.1726
98824W        W41741  24.691   3.445  16.073 -0.1424  0.2359  0.1142
98825W        W41742  25.186   2.144  18.210  0.2401  0.0705 -0.2200
98826W        W41743  25.583   1.903  16.886 -0.2491  0.2044  0.0983
98827W        W41744  23.330  32.924  18.884  0.0869 -0.0691 -0.0084
98828W        W41745  20.324   2.273  19.503  0.1902 -0.0952  0.0798
98829W        W41746  25.824   3.889  19.325 -0.2962  0.3925 -0.0434
98830W        W41747  24.264   0.531  18.284 -0.2323  0.0232  0.2330
98831W        W41748  25.198   0.524  16.626  0.1073 -0.0166  0.0812
98832W        W41749  23.964   3.209  18.433  0.1478  0.2631 -0.0182
98833W        W41750  23.351   2.483  19.628 -0.1076 -0.0679 -0.1152
98834W        W41751  22.834   1.273  17.263 -0.1387 -0.1857 -0.0148
98835W        W41752  23.043   2.937  19.298  0.1189 -0.1028 -0.4684
98836W        W41753  22.421   5.482  19.033  0.2733  0.2412  0.0513
98837W        W41754  23.472   0.796  19.654 -0.1194  0.0614  0.4471
98838W        W41755  22.619   1.478  16.823 -0.1105  0.0146 -0.2316
98839W        W41756  25.363   1.895  17.389  0.2052 -0.1609 -0.0863
98840W        W41757  24.374   4.823  19.621 -0.0065 -0.1156 -0.0795
98841W        W41758  24.024   4.029  21.821  0.1833  0.0847  0.0880
98842W        W41759  22.983   1.675  20.692 -0.2483  0.1798  0.0216
98843W        W41760  23.475   4.802  20.207  0.1845  0.3983 -0.2712
98844W        W41761  21.989   0.544  18.116  0.0555 -0.0664  0.0262
98845W        W41762  23.814   0.154  18.631  0.0707  0.0554  0.1194
98846W        W41763  25.105   1.818  16.817 -0.4770  0.2289  0.2161
98847W        W41764  25.575   0.877  17.759 -0.1026  0.2015  0.2340
98848W        W41765  25.461   3.024  19.416 -0.0577 -0.2301 -0.0432
98849W        W41766  23.291   1.212  17.076  0.3488 -0.2510 -0.1460
98850W        W41767  23.002   1.847  18.656 -0.1111 -0.2096 -0.0237
98851W        W41768  23.470   2.016  18.316  0.2242 -0.2637 -0.2257
98852W        W41769  25.327   4.719  24.672 -0.1222 -0.0144  0.2158
98853W        W41770  24.696  33.566  21.621 -0.2086 -0.1909  0.0692
98854W        W41771  24.072  33.793  18.820  0.1801  0.0129 -0.2436
98855W        W41772  24.906   3.751  19.711 -0.2459  0.0327 -0.3028
98856W        W41773  23.010   0.662  21.545 -0.0320  0.1755  0.0566
98857W        W41774  23.660   3.650  23.342  0.1614 -0.1878 -0.4578
98858W        W41775  21.476  34.228  24.629 -0.0198 -0.0602  0.4405
98859W        W41776  23.608   3.031  21.962 -0.0662  0.0055 -0.0778
98860W        W41777  23.381   4.305  23.864 -0.2584 -0.1676 -0.1126
98861W        W41778  26.012   0.573  17.821 -0.0579 -0.1052 -0.0114
98862W        W41779  24.144   1.604  23.043  0.0682  0.0072 -0.1105
98863W        W41780  23.154   2.961  23.655 -0.1163  0.1040  0.1703
98864W        W41781  23.389   0.356  20.881  0.1375  0.1515 -0.2567
98865W        W41782  23.073   0.029  22.994 -0.1159  0.0482  0.0260
98866W        W41783  25.989   3.295  25.322  0.0433  0.0243 -0.3319
98867W        W41784  22.401   2.317  20.032  0.1702 -0.3011 -0.0148
98868W        W41785  24.119   2.350  24.412  0.3507  0.2245 -0.1731
98869W        W41786  22.232   0.293  19.952 -0.2133  0.0797 -0.2052
98870W        W41787  21.489   4.901  20.686  0.1193  0.2595 -0.1476
98871W        W41788  21.821   1.473  24.653  0.2707  0.1875  0.0540
98872W        W41789  24.824   2.314  23.678 -0.0144 -0.0155  0.1831
98873W        W41790  21.704   2.651  20.136 -0.2051  0.2065 -0.1006
98874W        W41791  20.869   1.017  19.801 -0.1469 -0.3694 -0.2183
98875W        W41792  23.925   0.844  21.991  0.3712 -0.1055 -0.1368
98876W        W41793  22.277   0.763  21.580  0.0997  0.3657  0.0718
98877W        W41794  26.523  33.186  21.350  0.0606 -0.3365  0.0340
98878W        W41795  24.663   2.569  21.585 -0.0055  0.0224  0.0202
98879W        W41796  24.301   4.720  22.552 -0.3135 -0.3243 -0.3811
98880W        W41797  24.424   4.948  24.661  0.0654  0.1234  0.0611
98881W        W41798  24.447   2.016  21.560 -0.0437 -0.1953  0.0514
98882W        W41799  22.632   2.652  21.215 -0.2071  0.0681 -0.2125
98883W        W41800  22.353   2.570  22.526 -0.2498  0.1647 -0.2237
98884W        W41801  23.366   2.001  22.777  0.1325  0.1235 -0.2810
98885W        W41802  25.811   2.926  22.691 -0.2421 -0.2396  0.0464
98886W        W41803  25.727   4.931  25.728  0.2204  0.2422  0.0759
98887W        W41804  22.528   1.900  23.104  0.1271  0.0532  0.1152
98888W        W41805  23.454   1.913  18.862 -0.2162  0.1136 -0.2218
98889W        W41806  23.747   2.789  24.385  0.3327 -0.0284  0.3776
98890W        W41807  22.330   2.764  25.101 -0.3392 -0.4144 -0.1296
98891W        W41808  25.019   3.413  23.799 -0.0670  0.1040 -0.2181
98892W        W41809  23.087   2.774  21.291  0.0099 -0.0219 -0.0431
98893W        W41810  21.773   2.251  18.157  0.0320 -0.1750  0.1302
98894W        W41811  24.068   2.473  23.353  0.0731 -0.1083  0.1789
98895W        W41812  21.706   2.538  23.842  0.3933 -0.1750  0.0046
98896W        W41813  21.067   1.854  20.186 -0.1237 -0.0067  0.1504
98897W        W41814  25.595   3.213  26.197 -0.1670  0.3180  0.0186
98898W        W41815  20.609   4.151  19.975  0.0922 -0.0834 -0.0112
98899W        W41816  23.349   0.605  19.234 -0.1451 -0.1568 -0.0334
98900W        W41817  23.308   2.778  20.802  0.0513 -0.2239  0.2558
98901W        W41818  24.875   0.616  20.071  0.1238 -0.0191  0.0864
98902W        W41819  23.378  34.533  21.604  0.0652  0.1138 -0.0317
98903W        W41820  22.972   2.137  23.141 -0.1252 -0.2258 -0.1625
98904W        W41821  23.101  34.601  21.137 -0.0092 -0.2570  0.0961
98905W        W41822  25.530   4.171  23.576  0.1104  0.2820  0.3190
98906W        W41823  24.212   0.666  20.169 -0.1344 -0.2239 -0.0307
98907W        W41824  24.026   0.471  22.290  0.0991 -0.0576  0.1121
98908W        W41825  24.549   2.720  22.303 -0.0302  0.1353  0.3088
98909W        W41826  21.412  34.492  21.714  0.3437  0.1851 -0.2353
98910W        W41827  25.233   3.546  20.020 -0.1688 -0.2556 -0.1611
98911W        W41828  24.906   3.274  21.539 -0.0398  0.0733  0.0771
98912W        W41829  24.452   1.589  19.651  0.0119  0.0595 -0.2992
98913W        W41830  22.135   2.706  21.525  0.2692 -0.3474  0.1115
98914W        W41831  20.365   0.186  23.206 -0.0763 -0.1765  0.0578
98915W        W41832  22.522   1.764  24.940 -0.0255  0.0122 -0.0608
98916W        W41833  23.358  33.519  19.672 -0.0163  0.1125 -0.2656
98917W        W41834  26.420   2.871  25.498  0.1699 -0.1962 -0.0074
98918W        W41835  20.500   2.441  22.317  0.0462  0.0032 -0.0436
98919W        W41836  26.579  33.903  21.146 -0.1663 -0.1631  0.2244
98920W        W41837  23.021   3.259  21.150  0.2283  0.1562 -0.1662
98921W        W41838  24.451   2.354  22.005 -0.2074  0.2471 -0.0568
98922W        W41839  25.048   2.757  19.517 -0.2107  0.1850  0.1574
98923W        W41840  23.660  33.362  20.724  0.1045  0.1337 -0.1388
98924W        W41841  24.128   0.921  21.268 -0.2384  0.0762  0.0175
98925W        W41842  23.287   0.817  20.499  0.3797 -0.0421  0.0059
98926W        W41843  23.044   2.403  20.957 -0.0183  0.1833  0.1114
98927W        W41844  25.082   4.193  24.266  0.2921 -0.3483  0.1955
98928W        W41845  23.079   1.071  19.425 -0.0004  0.1008  0.1852
98929W        W41846  22.020   3.080  23.613  0.3185 -0.0133  0.1833
98930W        W41847  24.503   1.730  24.346  0.1340 -0.0728  0.0775
98931W        W41848  26.473   4.070  25.304  0.0909  0.1123  0.3770
98932W        W41849  20.598   3.565  21.079 -0.3050 -0.2231 -0.0255
98933W        W41850  22.608   2.416  20.733 -0.1536 -0.1581  0.1680
98934W        W41851  22.102   3.632  21.771 -0.0532 -0.2439  0.0918
98935W        W41852  21.479  33.303  21.172  0.0014  0.2108 -0.2710
98936W        W41853  23.924   3.103  21.608 -0.0784  0.0136 -0.0263
98937W        W41854  24.683   0.510  19.632 -0.5534  0.1500  0.1383
98938W        W41855  22.722   2.143  24.624 -0.0299 -0.0481  0.0163
98939W        W41856  25.992   0.225  21.120  0.1745 -0.2114 -0.0574
98940W        W41857  23.490   1.509  21.519 -0.1815  0.3089 -0.0019
98941W        W41858  25.334   3.918  20.996 -0.0694  0.0737 -0.0951
98942W        W41859  23.157   3.492  20.710  0.0878  0.0319  0.0057
98943W        W41860  25.267   4.029  19.528 -0.0931 -0.1551 -0.2237
98944W        W41861  22.015   0.848  21.094 -0.0531  0.0217 -0.2764
98945W        W41862  22.659   0.866  21.176 -0.0376 -0.1929  0.3910
98946W        W41863  23.193  33.121  23.900 -0.0103  0.0576 -0.1256
98947W        W41864  21.875   1.142  19.996 -0.2862 -0.2032 -0.0171
98948W        W41865  25.161   2.252  24.640 -0.2109  0.1098  0.3310
98949W        W41866  21.979  33.633  21.065 -0.2821 -0.0024 -0.0575
98950W        W41867  24.143   3.924  23.723 -0.0815 -0.2018 -0.1765
98951W        W41868  21.918   0.398  21.459  0.0938 -0.3143  0.0514
98952W        W41869  21.969   3.083  22.586 -0.2650 -0.0622  0.1334
98953W        W41870  24.810   0.945  24.199  0.1108  0.1922 -0.1037
98954W        W41871  24.045   1.376  20.418 -0.4187  0.2453  0.1480
98955W        W41872  24.907   2.705  24.514  0.0965 -0.0086  0.0754
98956W        W41873  22.217   2.249  22.979  0.2971 -0.1954  0.3602
98957W        W41874  23.423   0.819  23.600 -0.0773 -0.1507  0.3312
98958W        W41875  23.189   1.431  19.867  0.1164 -0.0694  0.1339
98959W        W41876  23.128   3.585  23.602 -0.1568 -0.0266  0.0865
98960W        W41877  24.600   3.001  23.846  0.1684  0.0747 -0.0354
98961W        W41878  24.074   1.350  19.924  0.0148  0.1869 -0.0947
98962W        W41879  24.680   3.977  23.103 -0.0304  0.1403  0.3165
98963W        W41880  23.990   3.621  19.308  0.0311 -0.0559 -0.1254
98964W        W41881  23.139   3.511  22.063  0.0072 -0.2909 -0.2473
98965W        W41882  24.627   1.774  22.202 -0.3357  0.0941  0.1940
98966W        W41883  25.558   1.762  22.691 -0.4426 -0.3399  0.1161
98967W        W41884  26.751  34.364  19.986 -0.0538 -0.0355 -0.1091
98968W        W41885  20.883   0.630  19.224  0.0853 -0.3858  0.0033
98969W        W41886  24.504   2.698  23.339  0.0124 -0.3749  0.2426
98970W        W41887  21.700   4.385  21.650 -0.0008 -0.1990  0.0588
98971W        W41888  21.899   1.632  20.280  0.1665 -0.2868 -0.4560
98972W        W41889  24.094   3.441  23.267  0.1720  0.0507  0.4103
98973W        W41890  23.989  33.868  21.273 -0.0916 -0.0809 -0.3335
98974W        W41891  22.563   1.736  25.975 -0.1563 -0.1591  0.0090
98975W        W41892  24.477   1.332  22.721 -0.0621  0.3395  0.0103
98976W        W41893  21.061   2.016  21.043  0.3775 -0.1116 -0.1899
98977W        W41894  23.064   2.556  23.389 -0.0038 -0.0827 -0.2746
98978W        W41895  24.403   0.539  21.108  0.0292 -0.0453  0.0132
98979W        W41896  23.182  33.250  20.594 -0.1242 -0.1607  0.0383
98980W        W41897  24.002   3.144  24.135  0.0161 -0.0419 -0.2187
98981W        W41898  24.326   3.089  22.550 -0.3177  0.1194 -0.1384
98982W        W41899  23.478   0.172  20.290  0.0430 -0.0793 -0.2953
98983W        W41900  22.532   0.970  20.550  0.2585 -0.1269 -0.3034
98984W        W41901  22.194   1.567  22.303  0.2103 -0.1215  0.0840
98985W        W41902  22.577   2.838  19.667 -0.1118 -0.3643  0.2609
98986W        W41903  25.136   4.322  23.737 -0.1044  0.0589 -0.0535
98987W        W41904  22.484   0.534  19.542  0.0495  0.2016 -0.2643
98988W        W41905  24.628   3.498  20.514 -0.1923  0.0334 -0.0851
98989W        W41906  22.703   2.939  21.628 -0.0314  0.3970  0.1619
98990W        W41907  23.630   2.498  24.844 -0.0304 -0.1040  0.1158
98991W        W41908  23.154   3.876  22.779  0.5262  0.3855  0.0114
98992W        W41909  23.084   0.715  22.488  0.0798  0.1146 -0.1016
98993W        W41910  23.034   4.798  20.512 -0.0237 -0.1000 -0.1199
98994W        W41911  23.393   1.445  20.960  0.0500 -0.1292 -0.1122
98995W        W41912  21.224   2.376  20.111 -0.0322 -0.1439  0.0951
98996W        W41913  24.345   0.488  22.699 -0.2666 -0.0775  0.0896
98997W        W41914  22.411  33.500  21.224  0.0185  0.2428 -0.5721
98998W        W41915  23.974  34.324  22.727 -0.3557  0.0526 -0.2043
98999W        W41916  25.330   3.804  25.701 -0.1800  0.1329  0.2467
99000W        W41917  23.735   1.725  20.544  0.0966  0.0239  0.1069
99001W        W41918  24.164   2.638  21.746  0.1102 -0.3433 -0.0887
99002W        W41919  20.492   2.071  20.008 -0.1105  0.0019  0.3101
99003W        W41920  22.953   1.087  23.724 -0.0987  0.0398 -0.0218
99004W        W41921  23.608   3.322  23.770 -0.3956  0.3548 -0.2652
99005W        W41922  23.531   1.240  21.899  0.2075  0.0607  0.0277
99006W        W41923  25.393   2.508  25.003  0.0671 -0.1330 -0.0347
99007W        W41924  23.566   2.688  21.415 -0.1314 -0.0444  0.1119
99008W        W41925  23.961   1.447  24.035 -0.0381  0.0292 -0.1428
99009W        W41926  23.144   0.837  21.069  0.2292  0.0199  0.0250
99010W        W41927  23.646   3.515  21.919  0.0269  0.4462  0.0212
99011W        W41928  25.550   0.505  18.713  0.0622 -0.1791  0.0317
99012W        W41929  22.957  33.112  22.490 -0.1494  0.0256 -0.0218
99013W        W41930  23.711   2.989  22.562 -0.6353 -0.0464 -0.0708
99014W        W41931  24.196  34.455  21.498 -0.0473  0.2509 -0.1911
99015W        W41932  25.440   1.246  24.603  0.1441  0.2084  0.1481
99016W        W41933  23.210   1.950  20.159  0.0530  0.4525 -0.0741
99017W        W41934  24.704  34.050  21.782  0.2921  0.0498  0.1139
99018W        W41935  22.234   2.727  23.313 -0.4380 -0.1760 -0.0149
99019W        W41936  21.984   1.176  21.473 -0.2172  0.2346 -0.0257
99020W        W41937  22.196   2.826  20.079  0.3056  0.1938 -0.0566
99021W        W41938  22.161  32.602  20.462 -0.0977 -0.3242 -0.0518
99022W        W41939  24.369   2.703  20.809  0.1624  0.1611 -0.1787
99023W        W41940  23.115   0.893  22.949  0.1681 -0.1591 -0.1548
99024W        W41941  26.122   1.786  20.752  0.0309  0.2248  0.3656
99025W        W41942  19.175   4.754  21.091 -0.1985  0.1560  0.2727
99026W        W41943  24.023   3.671  24.282 -0.0573 -0.2518 -0.2340
99027W        W41944  23.760   2.664  20.531  0.3880 -0.0155  0.0362
99028W        W41945  24.993   2.755  21.255 -0.1587  0.1500  0.1010
99029W        W41946  24.259   0.811  24.572  0.3364 -0.0496 -0.0907
99030W        W41947  21.356   0.128  19.816 -0.2174 -0.1137 -0.0554
99031W        W41948  24.872   0.614  23.390 -0.3762 -0.0428  0.1850
99032W        W41949  23.644   1.495  23.088 -0.1082 -0.4096  0.1119
99033W        W41950  22.114   2.569  20.470  0.3909 -0.1317  0.0620
99034W        W41951  24.977   1.538  23.485  0.1548 -0.1229  0.0966
99035W        W41952  23.516   1.118  19.220 -0.4218 -0.3220  0.0153
99036W        W41953  22.486   0.336  21.435  0.2095  0.1847  0.1751
99037W        W41954  22.344   1.197  20.977  0.1973 -0.3749  0.2261
99038W        W41955  25.212   3.094  24.273  0.2284  0.0414  0.0715
99039W        W41956  25.178   0.540  20.628  0.1193 -0.3979  0.4115
99040W        W41957  22.038   1.595  20.918  0.1369 -0.1869  0.4793
99041W        W41958  25.210  34.268  21.159  0.0098  0.0973  0.1376
99042W        W41959  24.885   1.528  22.971 -0.0919  0.2285 -0.1397
99043W        W41960  25.372   1.933  25.234 -0.0327 -0.0281 -0.0278
99044W        W41961  22.660   3.154  24.905  0.4083 -0.3705  0.0058
99045W        W41962  21.899   0.409  22.399  0.1366 -0.4473 -0.3912
99046W        W41963  24.943   3.437  24.720 -0.0531 -0.0505  0.2496
99047W        W41964  25.567   0.115  25.094  0.3328 -0.2176 -0.5135
99048W        W41965  22.629   3.999  21.000 -0.2738  0.3110  0.0952
99049W        W41966  19.932   2.880  20.409 -0.2860  0.0630 -0.1175
99050W        W41967  24.710   2.225  23.152  0.0998  0.0892  0.1260
99051W        W41968  23.383   1.225  22.743 -0.1810 -0.2338  0.1545
99052W        W41969  24.358   3.843  21.080 -0.0603  0.0934  0.0884
99053W        W41970  22.759   2.779  17.441  0.0151 -0.0788  0.1825
99054W        W41971  23.126   2.496  22.622 -0.0914  0.0693  0.1360
99055W        W41972  24.286   0.442  20.599 -0.1121  0.3480  0.3582
99056W        W41973  24.835   1.502  21.868 -0.2543 -0.1695 -0.2059
99057W        W41974  23.143  34.364  22.459  0.0935  0.2369 -0.0176
99058W        W41975  24.674   0.839  22.426 -0.0546  0.0024 -0.0226
99059W        W41976  23.593   1.020  20.783  0.0640 -0.4157  0.2421
99060W        W41977  25.240   0.310  25.529  0.1352 -0.2168  0.2203
99061W        W41978  21.410   0.997  21.880 -0.1128  0.0420  0.0728
99062W        W41979  26.341   1.797  21.667 -0.0426  0.0760  0.3181
99063W        W41980  22.208   2.185  21.420  0.0682 -0.1242 -0.2138
99064W        W41981  25.631   3.722  24.415 -0.2870  0.1406  0.0211
99065W        W41982  20.731   1.622  19.855  0.0866 -0.1682  0.0753
99066W        W41983  23.740   0.305  21.947 -0.2494 -0.2578  0.0074
99067W        W41984  22.410  32.980  19.026  0.0441 -0.3293 -0.0084
99068W        W41985  24.211   2.980  23.007  0.2983  0.4092 -0.2041
99069W        W41986  24.576   3.553  22.429 -0.0156 -0.0545  0.3534
99070W        W41987  24.454   3.983  20.531 -0.0042 -0.0452 -0.0456
99071W        W41988  26.372  34.222  20.794 -0.1145 -0.2674  0.1016
99072W        W41989  23.636   1.054  21.297 -0.1217 -0.0796  0.1743
99073W        W41990  24.961   2.225  21.329  0.1709 -0.0603  0.0574
99074W        W41991  22.783   2.888  20.784 -0.0694  0.0757 -0.0896
99075W        W41992  22.494   2.084  22.219  0.0314  0.3293 -0.0310
99076W        W41993  22.198   0.680  25.170  0.0048  0.0610 -0.2987
99077W        W41994  24.543   1.084  21.149  0.1903 -0.1632  0.2714
99078W        W41995  23.913   1.329  20.929  0.0263 -0.0194 -0.2723
99079W        W41996  25.130  33.923  21.520 -0.2779 -0.1127 -0.2100
99080W        W41997  24.031   1.566  26.064 -0.1690 -0.1723 -0.3139
99081W        W41998  23.791   1.886  20.985 -0.2349 -0.1325 -0.0077
99082W        W41999  22.492   1.745  22.643 -0.2884  0.1406  0.0883
99083W        W42000  25.994   3.548  22.714 -0.1848  0.1929  0.0350
99084W        W42001  22.986   1.205  20.711 -0.0856 -0.3289 -0.0042
99085W        W42002  25.054   0.918  22.679 -0.0378 -0.2768 -0.0996
99086W        W42003  23.831   0.434  21.113 -0.0793  0.1679  0.3994
99087W        W42004  24.990   3.863  20.380 -0.1627  0.1625 -0.0539
99088W        W42005  22.586  34.268  20.537 -0.1067 -0.0291  0.1041
99089W        W42006  26.949   2.739  24.669  0.2459  0.5133 -0.0108
99090W        W42007  21.698   0.846  20.319 -0.1115  0.0227 -0.0340
99091W        W42008  25.160   0.314  24.848  0.0690 -0.0204 -0.1691
99092W        W42009  24.132   2.838  19.682  0.3414 -0.1961 -0.1492
99093W        W42010  23.991   1.346  22.169  0.0536 -0.0784 -0.0028
99094W        W42011  24.599   0.107  19.987 -0.0674  0.0280 -0.1815
99095W        W42012  21.279   1.115  20.666 -0.1704 -0.0985 -0.0109
99096W        W42013  22.697   2.241  22.672  0.1782  0.2179 -0.0754
99097W        W42014  21.054   0.487  22.704  0.2648 -0.1414 -0.1859
99098W        W42015  25.320  34.490  20.604 -0.0532 -0.1386 -0.0709
99099W        W42016  24.210   1.488  23.584 -0.1417 -0.2416  0.0796
99100W        W42017  26.156   2.410  26.265  0.0109 -0.2575 -0.0333
99101W        W42018  22.786   0.628  20.174 -0.3211 -0.1237 -0.2118
99102W        W42019  24.494  34.667  23.557 -0.1395  0.2976  0.1455
99103W        W42020  21.498   5.361  21.935 -0.0898  0.0765 -0.3606
99104W        W42021  25.512  32.167  21.305  0.0809  0.0035 -0.2109
99105W        W42022  20.404   3.372  20.676  0.1482 -0.2480  0.0324
99106W        W42023  21.896   2.612  22.380 -0.0042 -0.4213 -0.0623
99107W        W42024  23.145   1.562  22.008 -0.0030  0.0426 -0.1241
99108W        W42025  25.120   1.782  22.415 -0.1131  0.6855  0.1857
99109W        W42026  25.185   0.174  20.979 -0.2932  0.1449 -0.0506
99110W        W42027  23.263   3.495  23.138  0.0036  0.3385 -0.0611
99111W        W42028  24.324   2.668  24.725 -0.3331  0.0188 -0.0579
99112W        W42029  26.386   4.798  24.813  0.0251 -0.0162  0.2106
99113W        W42030  23.616   2.229  23.718  0.3723  0.4288 -0.0628
99114W        W42031  25.156   3.605  24.276  0.3274  0.0668 -0.0831
99115W        W42032  23.128   2.308  23.786  0.2622  0.4209  0.0660
99116W        W42033  22.533   2.449  21.761  0.1130  0.1173 -0.2126
99117W        W42034  22.686  34.515  22.670  0.1441  0.6350 -0.1303
99118W        W42035  24.278   0.261  24.537  0.1515 -0.0548  0.0883
99119W        W42036  23.763   2.039  23.175 -0.2527  0.1018 -0.3226
99120W        W42037  22.792  33.434  19.897  0.2946 -0.0274 -0.3120
99121W        W42038  21.293   3.601  18.936  0.2525 -0.2550 -0.0007
99122W        W42039  20.653   4.249  21.685 -0.0786  0.1228  0.0128
99123W        W42040  21.790   0.555  19.918 -0.0461 -0.0116  0.1360
99124W        W42041  21.533   5.763  21.610 -0.4110  0.0817  0.1623
99125W        W42042  24.649   2.817  22.880  0.0054  0.2617 -0.0262
99126W        W42043  25.571   0.925  22.621  0.0501  0.1317 -0.0300
99127W        W42044  25.030   4.219  22.700 -0.0911  0.2240  0.0479
99128W        W42045  22.674   1.004  19.872  0.1442  0.3251 -0.1453
99129W        W42046  22.013   4.193  22.123  0.0901  0.2873  0.0627
99130W        W42047  20.806   3.284  22.017 -0.2076  0.0756  0.2101
99131W        W42048  22.970   3.678  19.758 -0.1066  0.1658 -0.0431
99132W        W42049  22.715   4.446  20.628 -0.3135 -0.2365  0.0061
99133W        W42050  27.155   2.607  25.169 -0.1286 -0.1628  0.1764
99134W        W42051  27.245   1.125  20.630 -0.0703 -0.2020  0.0088
99135W        W42052  23.567   2.351  21.056 -0.0363 -0.0962  0.3216
99136W        W42053  24.804  34.255  20.638 -0.0689  0.1497 -0.0678
99137W        W42054  24.202   3.812  24.988  0.0962  0.3671 -0.2511
99138W        W42055  24.086   0.889  20.644  0.1284  0.0816 -0.2711
99139W        W42056  22.330  33.903  20.949  0.0332  0.1051 -0.1459
99140W        W42057  21.246   1.561  22.365  0.2757 -0.3279  0.0140
99141W        W42058  25.087  34.532  25.209 -0.1608  0.0274 -0.0716
99142W        W42059  22.808   3.764  23.311 -0.2477  0.0881  0.2379
99143W        W42060  24.244   2.048  22.992  0.0545  0.0294 -0.3643
99144W        W42061  21.873   0.345  20.356  0.0427 -0.4230 -0.1886
99145W        W42062  23.399   1.357  20.424 -0.0039 -0.1643 -0.2662
99146W        W42063  23.422  34.196  23.618  0.0478 -0.1419  0.2957
99147W        W42064  24.177   3.232  20.653 -0.1442 -0.0371 -0.1496
99148W        W42065  22.996  34.414  19.705 -0.3076  0.2021  0.2696
99149W        W42066  23.081   1.598  22.903 -0.0956 -0.2339  0.0928
99150W        W42067  22.083   2.223  23.581 -0.2133  0.1918  0.1798
99151W        W42068  23.560   3.901  24.444  0.1213  0.1293  0.1830
99152W        W42069  19.940   3.102  19.884 -0.2145  0.1505 -0.0899
99153W        W42070  24.099  34.037  21.751 -0.0618  0.0625 -0.4097
99154W        W42071  24.330   1.131  21.829 -0.0957 -0.1448 -0.0769
99155W        W42072  23.346   0.351  21.397  0.0262  0.2896 -0.1621
99156W        W42073  24.166   0.973  18.420  0.1060 -0.0175  0.0087
99157W        W42074  24.154   0.362  19.790  0.2595 -0.3217  0.0993
99158W        W42075  22.769   1.506  23.279 -0.1055 -0.1295 -0.3337
99159W        W42076  20.784   2.670  23.287 -0.5490 -0.1888 -0.1667
99160W        W42077  23.253   2.088  21.865  0.0922 -0.1408  0.0257
99161W        W42078  24.953   1.988  21.809 -0.0899 -0.1684 -0.1980
99162W        W42079  22.289  33.914  18.348 -0.1546 -0.2159  0.0434
99163W        W42080  24.562   6.012  24.047  0.0761 -0.1340  0.5332
99164W        W42081  23.744   0.935  20.244  0.2473  0.1830  0.1084
99165W        W42082  23.232  34.085  21.306  0.2217 -0.2777 -0.0218
99166W        W42083  22.712   1.922  21.791  0.2632 -0.0010  0.2189
99167W        W42084  25.705   0.961  23.861 -0.0529  0.2234  0.1815
99168W        W42085  23.310   1.842  23.270 -0.2684 -0.1859  0.0327
99169W        W42086  23.391  33.327  22.746  0.0360 -0.0908 -0.0423
99170W        W42087  24.430   1.982  19.321  0.4573  0.1104  0.0460
99171W        W42088  25.193   2.032  23.437  0.0395  0.1305 -0.1043
99172W        W42089  22.568   4.849  19.139  0.2534  0.0248 -0.1560
99173W        W42090  25.330   3.378  21.764 -0.0492  0.0440 -0.1222
99174W        W42091  23.931   6.080  24.587  0.1209  0.1775  0.3541
99175W        W42092  21.167   1.057  22.304  0.0264 -0.1142 -0.1841
99176W        W42093  25.189   4.670  24.162  0.0493  0.1253 -0.1274
99177W        W42094  25.216   3.008  22.983  0.2467 -0.1777 -0.1776
99178W        W42095  23.239   0.018  22.098  0.0174 -0.4653 -0.0144
99179W        W42096  22.774   2.677  22.959 -0.0305 -0.0615  0.0965
99180W        W42097  20.591   5.394  22.663  0.1148  0.1284  0.1013
99181W        W42098  24.891   1.195  25.560  0.2018  0.1832 -0.0219
99182W        W42099  25.926  34.640  25.479 -0.1485  0.2202  0.0133
99183W        W42100  23.324   4.412  20.475 -0.0854 -0.3153  0.0232
99184W        W42101  25.035   0.299  22.457 -0.0040 -0.1083 -0.1386
99185W        W42102  24.194   4.479  23.821  0.1267 -0.0140  0.3050
99186W        W42103  21.665   4.381  24.187 -0.0629  0.0447 -0.4721
99187W        W42104  22.346   1.319  20.204 -0.4397  0.2949 -0.2069
99188W        W42105  25.475   2.670  24.524  0.0025 -0.0887 -0.1034
99189W        W42106  23.829   1.830  22.729  0.0164 -0.0927  0.1318
99190W        W42107  22.481   4.221  22.319 -0.2213  0.2030 -0.0264
99191W        W42108  26.419   3.273  20.961  0.5039 -0.0378 -0.1465
99192W        W42109  23.387   2.275  20.606 -0.1413 -0.0937 -0.2225
99193W        W42110  25.626   3.483  21.081  0.1134  0.0183  0.0373
99194W        W42111  24.210   0.941  22.408 -0.0947 -0.2971  0.1972
99195W        W42112  25.642  33.695  21.666 -0.0647 -0.2739 -0.0192
99196W        W42113  24.452   0.375  23.201 -0.2027  0.2122 -0.4007
99197W        W42114  23.708   1.684  21.901 -0.0890 -0.2022 -0.1588
99198W        W42115  21.295   3.009  20.879 -0.0028 -0.0774  0.2433
99199W        W42116  22.327   3.623  21.285  0.0257 -0.0524  0.2545
99200W        W42117  23.056   1.704  21.506  0.0284  0.3604 -0.0159
99201W        W42118  23.555   0.124  24.207  0.0263 -0.1548  0.2461
99202W        W42119  22.428   3.269  22.460 -0.1760  0.1766  0.0680
99203W        W42120  21.865   2.001  20.644  0.0879  0.0776  0.0032
99204W        W42121  24.069   0.852  19.757 -0.1619 -0.3192  0.2033
99205W        W42122  23.851   4.197  24.052  0.1907 -0.1170 -0.0702
99206W        W42123  22.785   0.465  22.884  0.0794  0.0101  0.0661
99207W        W42124  22.823  33.987  22.294  0.0837 -0.0407 -0.0198
99208W        W42125  23.606   2.441  21.777  0.0714 -0.0209 -0.0875
99209W        W42126  24.828   4.080  22.265 -0.2417 -0.3225  0.0271
99210W        W42127  22.525   1.604  20.657 -0.0489  0.1172  0.2140
99211W        W42128  27.219   2.205  25.575 -0.0159 -0.2471 -0.1097
99212W        W42129  21.253   2.801  19.891 -0.1321 -0.0427  0.0467
99213W        W42130  23.574   3.084  24.860 -0.0928 -0.1583 -0.1121
99214W        W42131  23.664  34.643  23.663 -0.1515  0.1826 -0.1585
99215W        W42132  23.191  34.489  20.581  0.0366 -0.1291 -0.0775
99216W        W42133  24.145   2.009  24.000  0.1612 -0.2298  0.2214
99217W        W42134  24.438   3.462  21.439 -0.0208  0.0596 -0.0994
99218W        W42135  22.034   4.312  19.609 -0.0151  0.0260 -0.1849
99219W        W42136  24.958   0.132  23.289 -0.1220 -0.3589  0.0767
99220W        W42137  22.640   3.459  22.938  0.2065  0.0937  0.0767
99221W        W42138  22.380   1.150  24.055  0.0015 -0.1812  0.1523
99222W        W42139  24.880   3.540  22.005 -0.0022 -0.2105  0.2047
99223W        W42140  24.396   3.481  24.705 -0.1130  0.1004  0.0192
99224W        W42141  25.363   2.868  19.890  0.0089  0.2156  0.1469
99225W        W42142  23.795  33.734  22.749 -0.1335 -0.2538  0.0792
99226W        W42143  25.198   3.159  22.274  0.2557 -0.1533 -0.0116
99227W        W42144  22.037   0.785  23.849 -0.2924  0.0160  0.0133
99228W        W42145  23.360   2.664  24.026  0.3901 -0.0675 -0.2563
99229W        W42146  25.095   3.443  23.242 -0.1129  0.0327 -0.1086
99230W        W42147  24.786   0.841  20.614  0.1237 -0.2006  0.3410
99231W        W42148  24.342   1.555  21.243  0.4143 -0.0678 -0.0326
99232W        W42149  23.764   1.590  17.635 -0.0717  0.3303  0.0927
99233W        W42150  23.136   1.175  21.514 -0.2560  0.2190 -0.1068
99234W        W42151  22.799  34.579  20.209  0.0742 -0.2233  0.0203
99235W        W42152  26.430   1.096  24.376  0.0649 -0.1392 -0.2600
99236W        W42153  24.901   2.073  25.128 -0.0981  0.2651 -0.2009
99237W        W42154  25.048   4.166  25.395 -0.2728  0.0643  0.1574
99238W        W42155  24.851   2.575  20.754  0.0797  0.1369 -0.4607
99239W        W42156  23.940   1.815  21.467  0.0321  0.3201  0.0081
99240W        W42157  25.389   1.789  21.965  0.4532  0.2177 -0.0545
99241W        W42158  24.761   4.566  24.534 -0.3424  0.0594 -0.0395
99242W        W42159  25.130   2.001  22.870 -0.2379  0.1921  0.2892
99243W        W42160  25.924   2.716  25.335  0.0953 -0.2660  0.0425
99244W        W42161  22.014  33.046  22.908  0.2216  0.1763  0.1749
99245W        W42162  25.411   1.651  23.173 -0.1753  0.3838  0.2132
99246W        W42163  23.491  34.638  22.641  0.2519 -0.0474 -0.2656
99247W        W42164  23.826   1.171  23.465  0.1388  0.2610 -0.0427
99248W        W42165  23.104   0.524  21.986 -0.2075 -0.2215  0.1453
99249W        W42166  25.596   0.497  21.105  0.3086  0.5532  0.3079
99250W        W42167  19.808   4.079  20.903 -0.2936 -0.1668  0.1383
99251W        W42168  24.193   2.016  23.510 -0.0014  0.0155 -0.0971
99252W        W42169  23.355   2.870  27.938 -0.0718  0.2093  0.0669
99253W        W42170  23.739   1.685  23.572 -0.2567  0.2021  0.0100
99254W        W42171  24.044   2.123  21.826 -0.1849  0.0153 -0.0504
99255W        W42172  24.144   3.303  25.131 -0.0460 -0.3389 -0.0665
99256W        W42173  20.705   2.425  25.285  0.2483  0.0673 -0.4838
99257W        W42174  26.676   3.103  26.181  0.1922  0.2233 -0.1803
99258W        W42175  23.505  33.754  25.908 -0.0337 -0.1328 -0.2236
99259W        W42176  26.854   2.760  25.682 -0.1232  0.1575 -0.0640
99260W        W42177  24.683   3.367  27.328  0.0991 -0.2286  0.0009
99261W        W42178  24.836   1.306  24.584 -0.3737 -0.0884  0.1909
99262W        W42179  21.989  34.627  26.053 -0.0609  0.0231 -0.1311
99263W        W42180  22.141   2.876  26.155 -0.2304 -0.0823  0.2608
99264W        W42181  24.044   0.564  25.727 -0.1264 -0.5125  0.0126
99265W        W42182  22.056   0.336  25.628  0.0102  0.0732  0.0202
99266W        W42183  23.813   1.169  26.490 -0.2257  0.2437  0.2935
99267W        W42184  22.358   3.205  24.484  0.0847  0.0626  0.3508
99268W        W42185  23.025   0.548  27.372  0.2595 -0.0949 -0.2176
99269W        W42186  24.156   2.618  22.705 -0.3042 -0.1674  0.2006
99270W        W42187  24.251   3.709  27.180  0.0696 -0.0991 -0.1496
99271W        W42188  24.435   0.822  27.148 -0.0826 -0.0555  0.0107
99272W        W42189  23.017   0.472  28.449 -0.0805  0.0441 -0.1704
99273W        W42190  23.648   3.242  25.363 -0.1377  0.0978 -0.3880
99274W        W42191  22.941   0.959  24.221 -0.0192  0.1739 -0.0108
99275W        W42192  23.507   1.537  22.352  0.2025 -0.1626 -0.2650
99276W        W42193  23.211   2.503  27.201 -0.0643  0.2706 -0.0592
99277W        W42194  22.901   1.407  25.226 -0.2081  0.3415  0.1332
99278W        W42195  23.478   0.904  26.789 -0.1162  0.4551 -0.1055
99279W        W42196  24.327   3.432  26.774 -0.1406 -0.4425  0.0952
99280W        W42197  21.387   2.988  25.872 -0.2927  0.4994  0.1222
99281W        W42198  23.903  34.220  28.495  0.2994 -0.0179 -0.1254
99282W        W42199  22.912   2.441  24.194 -0.0383 -0.4075 -0.1510
99283W        W42200  21.182   5.903  25.388 -0.1604 -0.1145  0.0717
99284W        W42201  22.058   2.123  25.419 -0.1711 -0.1580 -0.3178
99285W        W42202  26.858   3.181  27.180  0.2054  0.0968  0.2389
99286W        W42203  24.839   2.609  26.248  0.4306  0.1017 -0.0755
99287W        W42204  21.919   4.609  27.199  0.2418  0.0633  0.4129
99288W        W42205  21.421   2.703  25.385 -0.0312  0.2573  0.0307
99289W        W42206  24.281   3.851  26.537 -0.0230  0.0134 -0.3351
99290W        W42207  23.423   3.516  27.563 -0.0672 -0.0693  0.0860
99291W        W42208  24.117   2.122  25.933 -0.1012 -0.0897  0.0322
99292W        W42209  22.041  34.328  25.630 -0.0882  0.0409 -0.0072
99293W        W42210  23.142   2.338  24.782  0.0838 -0.0991  0.3294
99294W        W42211  25.043   4.276  24.847  0.0018 -0.0235  0.2644
99295W        W42212  23.591   2.281  25.800 -0.2683  0.1540  0.1810
99296W        W42213  22.076   1.045  25.568  0.0168  0.0853 -0.0316
99297W        W42214  25.583   0.768  27.852 -0.4054 -0.0925 -0.1862
99298W        W42215  23.973   4.166  26.178  0.2501 -0.0689  0.0511
99299W        W42216  23.513   1.759  24.033  0.0179 -0.0475 -0.4342
99300W        W42217  21.883   1.923  23.194 -0.0580 -0.0284 -0.4307
99301W        W42218  24.085   2.035  26.875  0.0841 -0.0226  0.2079
99302W        W42219  21.725  33.155  26.136 -0.1645 -0.0513  0.0531
99303W        W42220  24.693   2.120  27.656  0.0062  0.0440  0.1688
99304W        W42221  23.404   2.290  25.238 -0.2201 -0.0273  0.1376
99305W        W42222  22.942   2.878  27.434  0.1625  0.2567  0.0277
99306W        W42223  25.825   0.078  22.825  0.0036  0.2363  0.1045
99307W        W42224  24.581  34.536  27.148  0.0642  0.1940 -0.2137
99308W        W42225  23.978   1.624  24.935 -0.1569  0.0903 -0.1364
99309W        W42226  21.133   1.726  23.436 -0.2400  0.1209  0.3073
99310W        W42227  26.897   3.086  23.643 -0.0083 -0.0545  0.1843
99311W        W42228  26.904   4.840  25.337  0.2057  0.3006 -0.3262
99312W        W42229  23.228   3.054  25.575 -0.1930 -0.1686 -0.0938
99313W        W42230  22.713   2.746  23.798 -0.2151  0.3271  0.2256
99314W        W42231  21.583   1.194  27.229  0.0847 -0.0882 -0.0513
99315W        W42232  22.324   1.249  27.413  0.3169 -0.0216 -0.1574
99316W        W42233  24.141   1.031  23.045 -0.1025  0.2104  0.1623
99317W        W42234  23.959   4.021  27.001  0.2801 -0.0031 -0.3229
99318W        W42235  22.031   3.238  27.504  0.0258  0.0508 -0.2253
99319W        W42236  26.619   1.075  25.824 -0.1356 -0.2516 -0.2686
99320W        W42237  23.356   2.818  25.987 -0.1212  0.1591  0.3063
99321W        W42238  25.196   3.116  28.710 -0.5089  0.0298 -0.1679
99322W        W42239  26.268   3.049  24.452  0.0311  0.2562 -0.0555
99323W        W42240  23.964  33.610  25.357 -0.0429  0.1081 -0.1510
99324W        W42241  26.188  34.235  26.252  0.0208 -0.0004 -0.0885
99325W        W42242  22.163   1.812  24.538  0.1739 -0.2300  0.2820
99326W        W42243  24.644   1.886  22.654  0.0273 -0.4491  0.3183
99327W        W42244  24.537   2.163  27.142  0.0520 -0.1887 -0.0410
99328W        W42245  25.745   3.131  24.437 -0.1370  0.0196  0.1987
99329W        W42246  21.290   2.381  26.347 -0.0850 -0.4541  0.0223
99330W        W42247  24.494  33.457  27.529 -0.2818  0.1431  0.2602
99331W        W42248  26.438   3.372  25.197 -0.1402 -0.2470 -0.3860
99332W        W42249  24.349   4.337  25.886 -0.3830  0.1256  0.4425
99333W        W42250  22.188   1.979  26.322 -0.1155  0.1612  0.0459
99334W        W42251  22.689   1.968  20.958  0.1292 -0.1983  0.2186
99335W        W42252  20.114   1.638  25.094  0.1048  0.1493  0.1819
99336W        W42253  22.845   2.907  25.841  0.1836  0.6320  0.0127
99337W        W42254  25.259  33.940  24.475  0.4026  0.2382  0.1840
99338W        W42255  23.914   0.612  26.292 -0.1646 -0.0898  0.1025
99339W        W42256  23.203  33.842  27.126  0.3708  0.0934  0.0385
99340W        W42257  21.813   2.984  25.148  0.0473 -0.2007 -0.1315
99341W        W42258  24.458   3.834  26.042 -0.3673  0.0433  0.0658
99342W        W42259  23.445   0.794  25.810  0.1953  0.3393  0.1909
99343W        W42260  25.520   4.755  25.206  0.0554 -0.0902 -0.0428
99344W        W42261  21.671   0.735  27.139 -0.1420  0.2806 -0.0895
99345W        W42262  20.467   0.785  25.179  0.1258  0.0735  0.3293
99346W        W42263  21.343   0.337  27.090  0.1993 -0.0978 -0.0137
99347W        W42264  22.385   0.105  26.260  0.1258  0.3060 -0.0783
99348W        W42265  25.866   0.037  27.540 -0.1178 -0.1443  0.2972
99349W        W42266  22.387   0.113  24.340 -0.0342 -0.1456 -0.1413
99350W        W42267  25.171   1.243  27.686 -0.0758 -0.1686  0.0283
99351W        W42268  24.024   1.142  24.971  0.0593 -0.2661  0.1234
99352W        W42269  21.502   3.646  24.598 -0.1489 -0.0680  0.0087
99353W        W42270  27.205  33.682  26.418 -0.3417  0.0061 -0.4469
99354W        W42271  24.768   3.871  24.923  0.0951  0.2205  0.1889
99355W        W42272  25.451   4.380  29.183 -0.0373 -0.1199  0.0652
99356W        W42273  26.633   3.577  24.386 -0.1164 -0.0016 -0.0537
99357W        W42274  22.694  34.478  27.292 -0.0311  0.0319 -0.0894
99358W        W42275  22.544  34.571  24.992  0.0645  0.3545  0.1602
99359W        W42276  23.215   4.956  25.569  0.2381 -0.2803  0.0922
99360W        W42277  23.195   3.376  25.947  0.1088  0.1380  0.0857
99361W        W42278  23.396   0.887  24.100  0.2321 -0.1928 -0.1553
99362W        W42279  25.211   3.259  25.861 -0.3558  0.0930 -0.1237
99363W        W42280  22.549   0.553  26.102 -0.1669 -0.3472 -0.0823
99364W        W42281  21.022   0.529  27.419 -0.1371  0.3931  0.1855
99365W        W42282  24.429  33.888  27.121  0.1137  0.2664 -0.1587
99366W        W42283  24.408   1.373  26.501 -0.2136 -0.1665 -0.3074
99367W        W42284  24.293   1.615  27.198  0.3001  0.0525  0.1817
99368W        W42285  23.550  34.233  24.941  0.1019  0.0886  0.2852
99369W        W42286  24.985   5.106  24.460 -0.1732 -0.0203 -0.2173
99370W        W42287  19.861   4.557  23.899  0.2630 -0.0474  0.1673
99371W        W42288  20.650   3.178  24.186  0.0889  0.2001 -0.3056
99372W        W42289  22.652   4.274  25.105 -0.0597 -0.2314 -0.2343
99373W        W42290  24.980  34.340  24.641  0.0138  0.2421 -0.3051
99374W        W42291  20.847   1.745  29.903  0.3370  0.1054  0.1087
99375W        W42292  22.224   0.377  27.747 -0.0944 -0.0336  0.0784
99376W        W42293  22.666   1.550  23.904  0.2932  0.0986 -0.3677
99377W        W42294  23.056   2.869  26.360  0.0542 -0.2120  0.0841
99378W        W42295  22.423  34.221  25.982 -0.0726  0.0589  0.0497
99379W        W42296  24.898   2.648  25.076 -0.0618  0.0313 -0.0068
99380W        W42297  25.279   3.273  26.610  0.0063  0.0302 -0.0779
99381W        W42298  26.247   3.724  25.635 -0.1502 -0.1312  0.1476
99382W        W42299  22.864   0.099  24.604  0.1856  0.1005  0.1404
99383W        W42300  23.759   1.049  24.396 -0.1498  0.3892  0.1132
99384W        W42301  23.526   2.513  26.323 -0.0920 -0.3178  0.3383
99385W        W42302  24.031   4.004  25.722  0.1035  0.2305 -0.1552
99386W        W42303  22.229   3.796  25.088 -0.1408 -0.1777  0.0644
99387W        W42304  21.342   0.373  24.790  0.1364 -0.4439  0.0665
99388W        W42305  26.247   3.280  25.825 -0.0706  0.3456 -0.3231
99389W        W42306  21.912   2.848  24.178 -0.1786 -0.0214  0.2803
99390W        W42307  22.798   2.671  27.035  0.0619 -0.2530  0.0358
99391W        W42308  23.222   3.275  24.121  0.1723 -0.1437  0.0343
99392W        W42309  23.239  33.404  24.548  0.3371  0.0694  0.0402
99393W        W42310  24.329   0.700  24.060  0.2543 -0.0956  0.1734
99394W        W42311  22.222   3.342  26.100  0.0734  0.1197  0.2252
99395W        W42312  23.060   1.824  25.530 -0.1388  0.2620  0.2041
99396W        W42313  25.349  34.001  27.612  0.1898  0.4065 -0.1205
99397W        W42314  24.707   0.316  27.259  0.1533  0.1514  0.2467
99398W        W42315  22.890   1.298  27.390  0.0515 -0.0820 -0.2994
99399W        W42316  24.803   0.120  27.792  0.2526  0.2308  0.0163
99400W        W42317  25.786   2.733  26.433 -0.0240  0.2606  0.3345
99401W        W42318  24.498  33.883  26.288  0.1201 -0.2028 -0.0412
99402W        W42319  21.410   3.831  25.062  0.0566  0.1325 -0.0167
99403W        W42320  23.609   0.349  25.843 -0.0500 -0.0049 -0.1603
99404W        W42321  23.107   2.490  25.553  0.1034  0.2645  0.3334
99405W        W42322  22.463   4.167  24.672  0.1293 -0.0913 -0.1703
99406W        W42323  25.728   3.523  25.801  0.0165  0.2082  0.1272
99407W        W42324  23.549   1.469  26.235 -0.2976 -0.4066  0.0388
99408W        W42325  21.871  34.488  26.814  0.1314  0.1044  0.0859
99409W        W42326  25.475   0.074  23.334  0.1085 -0.2585  0.1289
99410W        W42327  23.074   5.334  24.416 -0.1599 -0.1525 -0.4393
99411W        W42328  25.204   3.831  24.683 -0.1154  0.0739 -0.1485
99412W        W42329  20.572   1.354  27.126 -0.1463  0.1266  0.1432
99413W        W42330  23.167   2.838  24.474  0.0489 -0.1125 -0.4104
99414W        W42331  23.601   2.646  23.504  0.2549  0.1472  0.1243
99415W        W42332  23.703   0.069  27.658  0.1680  0.0345  0.1700
99416W        W42333  20.309   3.771  25.412 -0.1082 -0.0868  0.0217
99417W        W42334  25.890   0.512  27.573 -0.1113  0.0469  0.2215
99418W        W42335  22.407   3.807  28.305  0.0262 -0.1557 -0.1404
99419W        W42336  23.756   0.716  24.825  0.4411 -0.0150  0.0073
99420W        W42337  23.007   2.081  22.347  0.0536  0.1991  0.0781
99421W        W42338  24.207   0.032  26.625  0.1061  0.2392  0.1283
99422W        W42339  26.715   3.267  25.634  0.0154  0.0236  0.2538
99423W        W42340  24.323   1.328  25.581  0.2488 -0.1251  0.2259
99424W        W42341  24.773   0.451  24.414  0.1340  0.1997  0.0942
99425W        W42342  19.982   3.426  27.064  0.2309 -0.2019  0.0296
99426W        W42343  23.128   3.613  25.463  0.2644 -0.2124  0.0077
99427W        W42344  24.140   0.124  24.039  0.1882 -0.4732 -0.1404
99428W        W42345  24.125   4.964  26.917 -0.1238  0.0698 -0.3074
99429W        W42346  23.753   2.977  27.724 -0.3065  0.2318 -0.0998
99430W        W42347  21.474   1.813  24.239  0.3316 -0.0326  0.2057
99431W        W42348  28.241  34.451  26.877 -0.1658  0.0637  0.0669
99432W        W42349  21.114   0.439  25.904  0.3446 -0.1944 -0.1158
99433W        W42350  22.119   1.597  25.640 -0.4251  0.0691 -0.1688
99434W        W42351  24.454   2.354  25.194 -0.0757 -0.3100 -0.0776
99435W        W42352  22.362   1.324  24.774 -0.0146  0.0307 -0.0943
99436W        W42353  23.558   1.979  26.218  0.0453  0.1743 -0.1477
99437W        W42354  23.241   0.794  29.910  0.2071 -0.0716  0.1800
99438W        W42355  22.320   1.478  26.397 -0.0795  0.1209  0.1789
99439W        W42356  21.775   1.158  25.937  0.2506  0.1840  0.1570
99440W        W42357  21.322   2.272  24.087  0.0901 -0.0114 -0.1226
99441W        W42358  22.620   1.188  26.986  0.0367 -0.2369 -0.1769
99442W        W42359  22.541   0.060  25.787 -0.0637  0.1663 -0.1843
99443W        W42360  23.241   0.440  24.377 -0.2226  0.0480 -0.3142
99444W        W42361  21.571   3.372  27.972 -0.1948 -0.2353 -0.2245
99445W        W42362  24.951   1.805  24.547 -0.0103 -0.1956 -0.1475
99446W        W42363  27.579   2.673  26.184 -0.2590  0.2028 -0.2664
99447W        W42364  24.140   0.282  27.038 -0.0231  0.0352 -0.0299
99448W        W42365  22.402   3.063  25.712  0.0700 -0.1122 -0.2214
99449W        W42366  21.395   0.348  24.230  0.0482 -0.2196  0.0179
99450W        W42367  20.637   2.541  23.821 -0.0065 -0.0655  0.0003
99451W        W42368  23.694   2.016  24.967 -0.2014  0.1922 -0.3089
99452W        W42369  22.839   0.620  24.646  0.0290 -0.1768 -0.0727
99453W        W42370  22.339   3.112  23.992 -0.0131 -0.4589 -0.2076
99454W        W42371  21.045   2.035  26.028 -0.1103 -0.2227  0.3536
99455W        W42372  24.437   1.789  25.308 -0.0858  0.0920  0.1144
99456W        W42373  24.353   2.561  25.707  0.1119 -0.1143 -0.0466
99457W        W42374  23.946   1.900  25.379 -0.0176 -0.2215 -0.0356
99458W        W42375  26.013  34.608  27.050 -0.2141  0.1959 -0.2989
99459W        W42376  25.305   2.840  26.125  0.2327  0.0037  0.4792
99460W        W42377  23.338   0.986  26.292  0.0463  0.0275  0.1630
99461W        W42378  25.729  34.627  26.134 -0.1874 -0.0391 -0.2095
99462W        W42379  23.110   3.250  25.030 -0.0891  0.3958 -0.1412
99463W        W42380  21.823   1.853  26.742  0.0274 -0.3272  0.1964
99464W        W42381  21.830   3.626  27.012  0.1429 -0.1594  0.1857
99465W        W42382  22.610   3.145  26.287 -0.1059  0.1428  0.0946
99466W        W42383  21.813   1.730  25.969 -0.0060  0.2289  0.2432
99467W        W42384  24.270   0.465  23.653  0.0497  0.0260 -0.0281
99468W        W42385  23.082   1.747  26.581 -0.0830 -0.1445 -0.2675
99469W        W42386  24.338   2.425  26.286 -0.2928  0.0906 -0.1665
99470W        W42387  24.213   2.053  24.901  0.6025  0.1156  0.0845
99471W        W42388  24.500   2.862  26.541 -0.0604  0.1021 -0.1330
99472W        W42389  22.978   1.358  28.661 -0.1576 -0.3891  0.2712
99473W        W42390  25.784   2.186  25.272  0.0602  0.0544 -0.0477
99474W        W42391  23.487   1.155  25.328 -0.0447 -0.2191  0.0410
99475W        W42392  20.969   1.599  27.756  0.1727 -0.2425 -0.0928
99476W        W42393  23.223  34.009  26.644  0.2811  0.0357 -0.0508
99477W        W42394  23.442   2.103  27.411  0.2937  0.2620 -0.0696
99478W        W42395  24.076   3.048  25.594  0.0957 -0.2178 -0.2302
99479W        W42396  24.202   0.992  27.731 -0.1058  0.3366 -0.0143
99480W        W42397  23.942   1.687  26.587 -0.1035 -0.0471 -0.3112
99481W        W42398  23.277   1.308  29.141  0.0020 -0.1264  0.1376
99482W        W42399  20.241   0.298  28.092  0.3135 -0.1489 -0.1169
99483W        W42400  23.183   3.922  26.727  0.1094 -0.1642 -0.1037
99484W        W42401  25.942   0.876  23.324 -0.1250  0.0100  0.0323
99485W        W42402  23.788   1.747  27.212  0.0292 -0.2625 -0.0739
99486W        W42403  24.863   2.589  25.709 -0.0212 -0.1477  0.1005
99487W        W42404  24.758   0.047  24.874 -0.0135 -0.3257  0.2062
99488W        W42405  22.518   0.977  26.471  0.1343  0.1425 -0.3584
99489W        W42406  23.057   1.088  28.246  0.0527  0.1718 -0.0044
99490W        W42407  23.603   0.935  23.090 -0.0081  0.0030  0.0872
99491W        W42408  23.475   1.653  25.223 -0.1326 -0.0370  0.0232
99492W        W42409  23.606   3.781  23.951 -0.2101  0.1121  0.1004
99493W        W42410  24.540   1.188  25.153 -0.0490 -0.0092  0.0808
99494W        W42411  23.964   2.367  25.435  0.1636  0.0339  0.1162
99495W        W42412  20.457   1.958  24.739  0.1934  0.1953  0.1140
99496W        W42413  22.839   2.669  27.988  0.2362  0.2129  0.1809
99497W        W42414  22.278   1.772  23.528  0.1242 -0.0235 -0.0700
99498W        W42415  23.573   1.652  25.746  0.0389  0.0429  0.3273
99499W        W42416  24.482   1.738  25.874  0.2373 -0.0470  0.0413
99500W        W42417  24.735  34.606  26.663 -0.2556  0.2396 -0.0763
99501W        W42418  23.651  33.812  23.838 -0.0762  0.0244  0.2704
99502W        W42419  26.560   1.376  26.620 -0.0371  0.0385 -0.0676
99503W        W42420  21.186   3.175  22.458 -0.2120 -0.1657  0.0064
99504W        W42421  24.483   2.784  24.283  0.1404  0.4859 -0.0194
99505W        W42422  23.128   3.339  27.213  0.1059 -0.1875 -0.2146
99506W        W42423  22.991   2.364  28.617 -0.2617 -0.0497 -0.0507
99507W        W42424  21.835   4.896  26.708  0.0025  0.2802  0.0528
99508W        W42425  23.202   0.460  26.873  0.0620 -0.0750 -0.0800
99509W        W42426  24.579   1.181  27.442  0.0514 -0.0973 -0.0260
99510W        W42427  24.445   3.944  25.416 -0.4797 -0.0388 -0.7389
99511W        W42428  25.058   3.257  25.222  0.0407  0.3091 -0.2807
99512W        W42429  23.682   4.003  26.547  0.0987 -0.1276  0.1847
99513W        W42430  23.885   1.903  24.520 -0.0352 -0.0889  0.1425
99514W        W42431  24.049   2.478  27.709 -0.0057 -0.1527  0.0519
99515W        W42432  24.562   3.442  25.310  0.2001  0.0192 -0.1545
99516W        W42433  23.662   4.540  26.353 -0.0400 -0.4126 -0.2027
99517W        W42434  21.978   1.579  27.368  0.2384 -0.3417 -0.1438
99518W        W42435  22.797   1.615  27.014  0.0786 -0.1614  0.0746
99519W        W42436  24.285   3.495  25.732 -0.2439 -0.0218  0.0222
99520W        W42437  24.063   0.927  25.406 -0.1470  0.1920  0.0704
99521W        W42438  23.055   0.331  26.162 -0.0230  0.0431 -0.2737
99522W        W42439  23.002   1.895  28.980 -0.1033  0.1215  0.2933
99523W        W42440  21.349  34.273  25.386  0.0275  0.2083  0.0236
99524W        W42441  22.223   3.278  25.072 -0.1965 -0.2126  0.0654
99525W        W42442  26.764   3.742  25.552 -0.1579 -0.2118 -0.2674
99526W        W42443  25.309   2.868  25.317 -0.0238 -0.0954 -0.0762
99527W        W42444  23.509   3.751  27.135  0.0406  0.1232  0.1396
99528W        W42445  22.818   1.089  24.738 -0.0070 -0.1719  0.1284
99529W        W42446  22.257   5.026  26.971  0.1943  0.0443 -0.2147
99530W        W42447  21.737   4.232  26.051  0.0671 -0.3731  0.1359
99531W        W42448  24.011   2.952  23.589  0.1605  0.1665  0.1003
99532W        W42449  22.670   2.332  25.203 -0.3644  0.2175  0.1902
99533W        W42450  24.654   3.931  27.379  0.1037  0.2448  0.2135
99534W        W42451  24.635   0.816  22.940 -0.2924 -0.2301 -0.1038
99535W        W42452  23.222   2.747  25.068  0.2468  0.2735 -0.0980
99536W        W42453  24.528   0.557  26.110  0.2219  0.1717  0.1003
99537W        W42454  25.279   2.734  29.557  0.0280 -0.2203  0.0367
99538W        W42455  23.695   4.019  24.977 -0.0570  0.0778  0.0502
99539W        W42456  24.365   0.098  25.253  0.0092  0.1871  0.0610
99540W        W42457  21.524   0.723  27.637 -0.1847  0.0875 -0.1672
99541W        W42458  26.525  34.494  28.323 -0.1679 -0.0726 -0.2891
99542W        W42459  21.124   2.950  27.883  0.2470 -0.1023 -0.2543
99543W        W42460  25.721   3.917  24.876 -0.1962  0.0173 -0.0691
99544W        W42461  21.704   0.698  23.448  0.0267  0.1319 -0.1752
99545W        W42462  23.072   2.376  26.109 -0.4184 -0.1549 -0.1011
99546W        W42463  23.288   0.874  24.603  0.1754 -0.1457  0.1892
99547W        W42464  23.901   2.492  22.180 -0.4190 -0.0252  0.1772
99548W        W42465  24.834   0.810  26.838  0.3015 -0.1292  0.0783
99549W        W42466  22.588   4.094  24.147  0.0666 -0.0324  0.1789
99550W        W42467  25.055   5.066  26.097 -0.1594 -0.3153  0.0184
99551W        W42468  24.057   4.214  25.264 -0.1828  0.2056 -0.1656
99552W        W42469  21.830   0.142  24.761 -0.1371 -0.0368  0.1847
99553W        W42470  26.847   0.126  25.800 -0.4299 -0.0074  0.0522
99554W        W42471  22.564   1.763  25.468  0.0294 -0.1684  0.4857
99555W        W42472  25.433   0.330  27.648 -0.2121  0.0168 -0.2744
99556W        W42473  24.068   3.102  24.638 -0.0465  0.1266 -0.1794
99557W        W42474  24.614   1.747  26.789 -0.3145  0.0382  0.0773
99558W        W42475  23.081   0.969  27.058 -0.1403 -0.5568  0.1829
99559W        W42476  22.752   1.327  27.827  0.1037 -0.0942  0.0269
99560W        W42477  23.509   2.304  24.282  0.2819  0.2144 -0.1700
99561W        W42478  24.752   0.949  26.325 -0.1089  0.2448  0.1504
99562W        W42479  25.431   1.794  24.293 -0.1347  0.2816 -0.0595
99563W        W42480  24.394   3.022  27.108  0.0119  0.1922 -0.0329
99564W        W42481  21.803   2.342  26.462 -0.1870 -0.0304 -0.0881
99565W        W42482  22.821   1.425  26.229  0.0604 -0.0355 -0.1411
99566W        W42483  23.257   0.770  25.093  0.1576  0.1065 -0.0150
99567W        W42484  22.656   2.017  26.433  0.1583  0.1292 -0.2283
99568W        W42485  23.159   2.288  27.710 -0.3771  0.1089 -0.3118
99569W        W42486  22.567   0.727  25.627 -0.0420 -0.1114 -0.0492
99570W        W42487  25.853   5.355  26.675  0.0453  0.4117  0.0473
99571W        W42488  25.312   0.263  26.013 -0.0397 -0.0480 -0.1488
99572W        W42489  22.474   1.097  25.235 -0.4791 -0.0836 -0.1440
99573W        W42490  25.419  34.232  26.232  0.0388 -0.2758  0.1253
99574W        W42491  25.175   4.339  26.432  0.4931 -0.0393 -0.1024
99575W        W42492  20.503   2.428  26.193 -0.3700 -0.0918  0.1023
99576W        W42493  23.785   3.244  25.903 -0.0932  0.2437 -0.1210
99577W        W42494  24.268   4.157  27.617 -0.1802  0.0028 -0.1915
99578W        W42495  24.242   1.689  22.471 -0.1063 -0.2696  0.0468
99579W        W42496  22.588   1.548  24.397 -0.1173  0.1485 -0.1835
99580W        W42497  23.607   3.060  26.378 -0.0459 -0.4041 -0.1134
99581W        W42498  25.182  33.633  27.309 -0.0505  0.2431  0.3307
99582W        W42499  23.948   1.311  27.371 -0.2232 -0.4439  0.0078
99583W        W42500  22.208   6.248  25.692  0.0516 -0.0857 -0.0801
99584W        W42501  24.624  33.278  27.998  0.1671  0.3698 -0.2353
99585W        W42502  24.643   2.228  24.729 -0.3273 -0.1906  0.2156
99586W        W42503  22.452   4.270  28.920 -0.1551 -0.1067 -0.2538
99587W        W42504  21.867   3.289  24.507 -0.1891 -0.3709 -0.1374
99588W        W42505  22.758   2.343  27.450  0.0207  0.0398  0.2652
99589W        W42506  24.048   3.838  22.365 -0.1511  0.0278  0.2109
99590W        W42507  26.161   3.844  24.571  0.2230  0.0084 -0.0215
99591W        W42508  25.571   4.105  26.537 -0.1509 -0.0691  0.3465
99592W        W42509  25.136   0.084  27.403 -0.1567 -0.0276  0.4684
99593W        W42510  26.262   4.375  25.655 -0.1363  0.0253  0.0135
99594W        W42511  23.224   1.258  23.335 -0.0039 -0.3048 -0.0704
99595W        W42512  26.288   0.443  26.418  0.0221  0.2973  0.6027
99596W        W42513  26.272   0.369  22.915 -0.3568 -0.2251  0.1904
99597W        W42514  23.258   1.790  27.050 -0.2877 -0.2914  0.1070
99598W        W42515  21.697   1.676  22.374 -0.0605  0.1122  0.1147
99599W        W42516  21.631   3.099  22.230 -0.2602  0.0670  0.0213
99600W        W42517  21.450   1.641  27.086 -0.1047 -0.0102  0.0390
99601W        W42518  25.141   0.464  26.999  0.2341  0.2930 -0.3359
99602W        W42519  22.354   1.935  27.317 -0.1588  0.0488 -0.0722
99603W        W42520  21.581   2.653  24.863  0.3921 -0.2068 -0.1119
99604W        W42521  23.164   1.452  24.214 -0.0542  0.1135 -0.0398
99605W        W42522  27.599   3.522  26.041  0.4644  0.0924 -0.0170
99606W        W42523  21.830   1.017  25.021  0.2846 -0.2637 -0.1551
99607W        W42524  23.368  33.337  26.096  0.3011 -0.0535 -0.1314
99608W        W42525  24.657   3.043  24.863  0.2508 -0.0689 -0.1162
99609W        W42526  25.130   2.798  26.610  0.3390  0.2221  0.0071
99610W        W42527  24.502   0.906  25.709 -0.0422 -0.2565  0.2075
99611W        W42528  25.801   3.923  29.015  0.1803  0.0045  0.1934
99612W        W42529  22.315   2.864  22.132 -0.0489  0.0662 -0.2038
99613W        W42530  23.863   1.807  28.723 -0.0638 -0.0296  0.0402
99614W        W42531  23.104  32.438  27.124  0.2123  0.2995  0.0482
99615W        W42532  21.196   2.088  22.677  0.0840  0.2113 -0.4096
99616W        W42533  22.329   1.165  26.014  0.1173 -0.0177 -0.0474
99617W        W42534  24.516   2.926  25.302 -0.0922  0.1306 -0.0637
99618W        W42535  22.419   5.360  24.924  0.0300 -0.1225 -0.1494
99619W        W42536  22.575   3.138  27.657  0.1908 -0.0721  0.0988
99620W        W42537  23.019   3.392  26.489  0.1627  0.0020 -0.2579
99621W        W42538  22.789   0.739  25.130 -0.0456  0.2760  0.3590
99622W        W42539  26.833   4.422  24.082  0.1751  0.1398  0.3457
99623W        W42540  23.036   3.840  27.808 -0.1907 -0.0405 -0.3257
99624W        W42541  26.034   2.982  24.003 -0.1877  0.1403 -0.2945
99625W        W42542  24.496  33.652  22.566  0.0614  0.2955 -0.0421
99626W        W42543  22.807   2.830  25.348 -0.0416 -0.1242 -0.1603
99627W        W42544  23.888   1.304  28.597 -0.4100  0.0205 -0.0080
99628W        W42545  21.955   2.135  27.092  0.1147 -0.0075 -0.2252
99629W        W42546  23.582   2.553  27.552  0.1106  0.1085 -0.1217
99630W        W42547  24.279   0.561  25.053  0.1601 -0.0092 -0.1971
99631W        W42548  24.664   2.169  24.160 -0.1622 -0.3905 -0.0382
99632W        W42549  25.470   4.217  25.225  0.3143 -0.0236 -0.0649
99633W        W42550  21.990   1.403  28.142 -0.1287  0.2104  0.2229
99634W        W42551  23.628   1.476  24.467  0.3028 -0.0248 -0.1593
99635W        W42552  22.369   3.336  26.662 -0.2589  0.1826  0.1081
99636W        W42553  24.832   3.697  25.651 -0.1325 -0.1964  0.1205
99637W        W42554  24.051  34.396  27.012 -0.1751  0.1940 -0.0824
99638W        W42555  23.012   1.898  24.989  0.1001 -0.2558 -0.2940
99639W        W42556  25.920   2.657  24.354 -0.5235  0.2116 -0.4111
99640W        W42557  24.365   3.619  27.672  0.2033 -0.5804  0.0046
99641W        W42558  25.390   5.451  28.531 -0.0539  0.3511  0.3737
99642W        W42559  23.491   3.767  25.842 -0.1681 -0.0597 -0.4062
99643W        W42560  22.332   2.345  26.626  0.2514 -0.0477  0.2594
99644W        W42561  23.708  33.085  24.399 -0.1559  0.2420 -0.0525
99645W        W42562  21.686   1.307  25.393 -0.0493 -0.0149 -0.0095
99646W        W42563  20.938   2.953  24.565 -0.0363 -0.0949 -0.4109
99647W        W42564  25.805   0.547  26.747 -0.0779  0.0434 -0.1148
99648W        W42565  21.705   1.515  26.444  0.0883 -0.0578 -0.1985
99649W        W42566  23.478   1.295  23.825  0.0504  0.1147 -0.1567
99650W        W42567  21.572   2.802  28.155 -0.1024  0.1040  0.1671
99651W        W42568  23.570   2.750  25.481 -0.1187  0.1081  0.0074
99652W        W42569  23.222   1.222  30.156 -0.1537  0.1261  0.1172
99653W        W42570  23.682  34.661  28.682  0.3418  0.1762  0.3608
99654W        W42571  24.825   1.455  27.957 -0.3290  0.0321  0.2501
99655W        W42572  26.703   0.214  28.054 -0.3033 -0.2534 -0.3655
99656W        W42573  23.966  34.360  27.506 -0.0668 -0.0746 -0.0534
99657W        W42574  25.204   3.317  27.590 -0.1812 -0.0926  0.0055
99658W        W42575  22.591   1.502  31.633 -0.2140  0.2028  0.2850
99659W        W42576  24.684   2.785  30.151  0.3569 -0.0204  0.0996
99660W        W42577  23.815   3.832  28.810 -0.0002  0.0727  0.1071
99661W        W42578  23.493   0.694  27.251  0.1532 -0.2542  0.2745
99662W        W42579  23.272   0.781  30.383 -0.0093 -0.3679  0.0264
99663W        W42580  23.965   3.905  31.413  0.1348  0.1647 -0.2425
99664W        W42581  23.751   0.523  25.305 -0.3038 -0.0637 -0.0354
99665W        W42582  21.915   2.993   0.045  0.1476  0.1289  0.0723
99666W        W42583  23.382   1.877  27.878  0.1436  0.0461  0.0538
99667W        W42584  21.947   2.661  27.367  0.2583  0.0411 -0.3719
99668W        W42585  24.306  33.543  31.008 -0.0631 -0.1727  0.0085
99669W        W42586  22.586   1.110  28.325  0.0003 -0.0835  0.2677
99670W        W42587  24.730   2.893  28.750  0.1896  0.2254 -0.0555
99671W        W42588  23.490  32.305  28.116 -0.1316  0.0619 -0.3321
99672W        W42589  24.419  33.677  30.541  0.0812 -0.2940 -0.1061
99673W        W42590  23.324   1.502  27.591  0.0063 -0.2696 -0.0667
99674W        W42591  22.541   2.184  28.450 -0.0208  0.0332 -0.1713
99675W        W42592  22.832   0.534  30.073 -0.2218  0.0819 -0.1318
99676W        W42593  25.875  34.628  28.665 -0.0832 -0.4543  0.0566
99677W        W42594  25.539   1.809  28.591 -0.0628 -0.1383  0.0910
99678W        W42595  24.790   0.497  28.808  0.0362  0.3370 -0.0340
99679W        W42596  24.284   3.578  31.214  0.1012 -0.1723 -0.1721
99680W        W42597  23.627   3.663  28.399 -0.2311 -0.2107 -0.0091
99681W        W42598  22.031   1.599  30.560 -0.0515  0.1406  0.1006
99682W        W42599  21.629   0.695  30.336 -0.1996  0.0805 -0.0938
99683W        W42600  21.371   3.087  28.704  0.1679 -0.1698 -0.1616
99684W        W42601  22.418   2.680  28.826  0.0857  0.2724  0.0828
99685W        W42602  24.330   2.065  28.106  0.1967  0.0757 -0.1228
99686W        W42603  24.917   4.340  30.022  0.0926  0.0365  0.0970
99687W        W42604  24.638   2.560  31.233  0.0296 -0.0122 -0.2624
99688W        W42605  22.598   2.788  29.948 -0.1428  0.0988 -0.3373
99689W        W42606  24.471   4.723  30.462  0.1362 -0.0014  0.2776
99690W        W42607  23.840   2.068  29.504 -0.0867 -0.0639  0.1439
99691W        W42608  21.714   1.442  30.075  0.3540 -0.1290 -0.2755
99692W        W42609  25.457   2.801  28.952  0.1137  0.2276  0.1838
99693W        W42610  22.419   2.980  28.088 -0.2745  0.0616 -0.5713
99694W        W42611  23.836   3.316  28.797 -0.3634 -0.0152  0.1500
99695W        W42612  22.661   0.848  30.442  0.0050 -0.3499 -0.1924
99696W        W42613  22.277   3.413  27.957  0.1271  0.0258  0.1768
99697W        W42614  24.333   2.006  29.542 -0.1430 -0.1824 -0.1182
99698W        W42615  21.892   3.764  27.889  0.0070  0.2738  0.1342
99699W        W42616  26.805  34.580  27.204  0.1279 -0.1718  0.4938
99700W        W42617  25.226  33.632  27.936  0.0443 -0.1686  0.2245
99701W        W42618  24.347   0.733  28.179 -0.2090 -0.2023 -0.1076
99702W        W42619  22.529  33.293  30.912  0.2509 -0.1569  0.5460
99703W        W42620  24.161   2.835  30.261 -0.1608  0.1055  0.3548
99704W        W42621  25.754   0.336  28.008 -0.0187 -0.0232 -0.1549
99705W        W42622  25.509   1.790  29.689  0.2271  0.1425  0.0880
99706W        W42623  25.477   0.652  27.257 -0.1088 -0.4265 -0.0952
99707W        W42624  25.731   0.604  29.719  0.2010  0.1747 -0.2337
99708W        W42625  20.797   2.533  30.610 -0.2584 -0.0299 -0.0681
99709W        W42626  21.065   1.170  27.999  0.1519  0.1266  0.0395
99710W        W42627  25.085   4.608  28.943  0.1559  0.2555  0.2825
99711W        W42628  25.172   2.618  28.495  0.1073  0.1499  0.1381
99712W        W42629  23.504   3.588  26.351 -0.0132 -0.4420  0.1276
99713W        W42630  22.960   2.181  30.563 -0.0023  0.2979 -0.0049
99714W        W42631  22.624   2.100  30.070 -0.2414  0.0659 -0.0071
99715W        W42632  23.535   0.626  30.789  0.0576  0.1985 -0.1884
99716W        W42633  22.054   2.082  28.131  0.2137  0.2927 -0.0490
99717W        W42634  27.873   1.462  29.860  0.3100  0.1942  0.0607
99718W        W42635  22.177   3.535  31.086  0.0470  0.0499 -0.2699
99719W        W42636  25.342  34.670  28.837  0.1274  0.1087 -0.1915
99720W        W42637  24.097   0.380  30.084  0.0137 -0.1362 -0.0307
99721W        W42638  22.998   2.140  28.189  0.1187  0.1255 -0.0374
99722W        W42639  25.059   0.780  27.579  0.0048 -0.1744 -0.1630
99723W        W42640  24.690  33.765  28.746  0.0827 -0.3379 -0.0375
99724W        W42641  23.108   1.535  31.194  0.0685  0.2070  0.0966
99725W        W42642  21.881   1.434  28.764  0.0050  0.0511  0.1194
99726W        W42643  22.495  34.550  27.868 -0.0647  0.3831  0.0209
99727W        W42644  24.341   1.522  28.730 -0.0305  0.0719  0.1197
99728W        W42645  26.294  34.347  28.791 -0.0328 -0.3269 -0.0863
99729W        W42646  24.182   2.916  28.008  0.0632 -0.5433 -0.0593
99730W        W42647  25.115   1.309  30.066 -0.3219 -0.1992 -0.1831
99731W        W42648  25.198   2.610  30.094  0.1198  0.1808  0.2140
99732W        W42649  22.453   2.686  27.674  0.1062  0.1945  0.4006
99733W        W42650  23.906   1.031  28.186 -0.0352 -0.2682 -0.1148
99734W        W42651  23.528   1.333  28.155 -0.2359  0.2226  0.0681
99735W        W42652  22.314   1.171  29.716  0.2287  0.0870 -0.2913
99736W        W42653  21.800   2.859  30.591  0.0165 -0.0713 -0.1596
99737W        W42654  24.837   0.747  28.369 -0.1955  0.2380  0.0214
99738W        W42655  22.435  34.587  31.318 -0.1873 -0.0267 -0.0553
99739W        W42656  25.578  33.791  28.872 -0.0648 -0.0028  0.0272
99740W        W42657  23.445   1.641  30.005  0.0720 -0.2268  0.3825
99741W        W42658  24.860   1.814  28.664 -0.2268  0.0651  0.1808
99742W        W42659  25.827  34.459  29.771  0.0963  0.1086  0.0016
99743W        W42660  24.967   2.699  27.449 -0.1590 -0.0048  0.3368
99744W        W42661  22.307   1.255  30.309  0.0396 -0.1678  0.0335
99745W        W42662  21.609  34.587  28.729  0.1334  0.2749  0.0618
99746W        W42663  22.478   0.947  31.592 -0.0860 -0.1117  0.2752
99747W        W42664  21.520   1.803  29.698  0.1706  0.2074  0.0621
99748W        W42665  23.615  33.095  29.146 -0.0412  0.0635 -0.1216
99749W        W42666  21.499  34.558  27.153  0.1275 -0.3521 -0.0732
99750W        W42667  24.160  34.116  28.884  0.0654 -0.0940 -0.2335
99751W        W42668  23.070   1.314  29.680  0.1437  0.1687  0.0430
99752W        W42669  20.543   2.611  29.093 -0.1806  0.1568  0.2559
99753W        W42670  23.876  33.831  31.226 -0.0229 -0.1923  0.2975
99754W        W42671  23.772   4.169  28.380 -0.0305 -0.0583  0.5733
99755W        W42672  25.781   4.555  29.900 -0.1511  0.1010 -0.1358
99756W        W42673  24.874  34.372  30.002 -0.0993  0.1362  0.0796
99757W        W42674  22.395   0.157  29.951 -0.0461  0.0482  0.0204
99758W        W42675  22.096   0.320  28.621 -0.1971 -0.0495 -0.0407
99759W        W42676  22.936   4.532  30.218  0.0253  0.0690  0.0720
99760W        W42677  23.780   1.206  29.065 -0.1367 -0.1115 -0.1795
99761W        W42678  23.868   0.364  28.397  0.1209 -0.2028  0.0428
99762W        W42679  26.976   1.514  28.826  0.1217  0.1769 -0.0699
99763W        W42680  23.882   3.347  27.313  0.1684  0.0954 -0.0467
99764W        W42681  24.616   0.411  29.881 -0.1279 -0.1744  0.2679
99765W        W42682  25.719   2.173  28.864 -0.1169 -0.0302  0.3171
99766W        W42683  24.403   0.672  29.088  0.0267  0.0675  0.0660
99767W        W42684  23.049   0.871  28.728 -0.4508 -0.1195  0.0168
99768W        W42685  22.040   0.521  26.112 -0.2415  0.1080 -0.0213
99769W        W42686  23.796   2.282  29.935  0.0536  0.0570 -0.2075
99770W        W42687  22.126   4.689  28.779 -0.0818 -0.1819 -0.2067
99771W        W42688  22.447   0.882  29.185 -0.0091  0.1507  0.2302
99772W        W42689  24.245   2.273  31.534 -0.0296 -0.0121  0.2110
99773W        W42690  25.445   0.855  29.279 -0.1130 -0.2625  0.2344
99774W        W42691  21.181   3.607   1.781  0.2078 -0.0697 -0.2418
99775W        W42692  24.368  33.523  29.598  0.1292  0.0556  0.0030
99776W        W42693  21.567   1.189  29.070 -0.2086  0.1181 -0.2396
99777W        W42694  23.600   3.269  30.026  0.2366  0.0998  0.0686
99778W        W42695  24.861  34.204  29.164 -0.3249 -0.0490  0.0138
99779W        W42696  24.741   0.934  27.936 -0.1391 -0.1168 -0.0139
99780W        W42697  24.378   3.304  30.087  0.4703 -0.0690  0.2217
99781W        W42698  24.997   2.621  27.938  0.2876  0.1299 -0.3898
99782W        W42699  22.528   0.757  28.683  0.1107  0.0733 -0.0406
99783W        W42700  25.148   0.472  28.048 -0.1196 -0.1040  0.2653
99784W        W42701  24.435   3.056  31.194  0.2271 -0.1372 -0.1268
99785W        W42702  24.815   3.503  27.899 -0.1623 -0.0660 -0.0082
99786W        W42703  25.154   1.695  28.222  0.0435  0.1695 -0.0680
99787W        W42704  23.943   2.192  26.421 -0.1906 -0.1893  0.3064
99788W        W42705  25.953   1.669  28.356 -0.1608  0.0422 -0.5068
99789W        W42706  20.975   1.832  31.203  0.2123  0.3604  0.0853
99790W        W42707  22.504   4.223  31.777  0.2877  0.0946  0.0044
99791W        W42708  26.469   2.971  30.662 -0.1364  0.1245 -0.1339
99792W        W42709  24.394   0.131  29.080 -0.0513 -0.1404  0.1549
99793W        W42710  22.750   0.728  27.862  0.1421  0.1545  0.2982
99794W        W42711  24.160  32.788  28.965  0.1690  0.0262 -0.0416
99795W        W42712  20.973   2.839  29.083  0.1144 -0.1348 -0.0838
99796W        W42713  24.863  34.665  28.901 -0.0752  0.0165 -0.1324
99797W        W42714  23.040  33.964  30.046 -0.0321 -0.2873  0.2322
99798W        W42715  20.939   2.905   0.164  0.1197 -0.0072  0.0353
99799W        W42716  24.994   1.249  30.831  0.0472 -0.0442  0.1662
99800W        W42717  25.582   1.234  26.941  0.1045  0.1337  0.3282
99801W        W42718  22.716  33.583  29.250  0.2606  0.0087  0.0159
99802W        W42719  22.597   0.297  28.088  0.3178  0.0501 -0.0610
99803W        W42720  24.533  32.862  29.340  0.2407 -0.1576 -0.2341
99804W        W42721  21.381   2.431  30.399  0.1759  0.0586  0.1069
99805W        W42722  22.937   2.645  31.308 -0.3459 -0.1363 -0.0767
99806W        W42723  24.268   2.108   0.445  0.2702  0.3329 -0.0378
99807W        W42724  23.385   2.522  28.887 -0.2105  0.2415  0.2189
99808W        W42725  25.036   0.495  30.185  0.1863  0.0576 -0.0315
99809W        W42726  24.356   0.249  28.123 -0.0394  0.0853 -0.1077
99810W        W42727  24.759   5.294  31.713  0.0922  0.1142 -0.0183
99811W        W42728  23.479   3.347  28.072 -0.3653 -0.3587  0.3709
99812W        W42729  20.887   0.506  29.280 -0.0527  0.2703  0.0109
99813W        W42730  22.446   1.259  28.813 -0.1530  0.2029  0.2238
99814W        W42731  22.299   2.480  28.135  0.1867  0.0992  0.1738
99815W        W42732  24.223   1.520  29.553 -0.1420  0.2447  0.2063
99816W        W42733  22.928   3.374  29.992  0.0089  0.1038 -0.2732
99817W        W42734  23.376  32.129  29.617 -0.1488  0.2202 -0.2699
99818W        W42735  23.742   2.484  29.278 -0.3202 -0.0352 -0.1468
99819W        W42736  22.926   1.709  29.955  0.2451  0.4153 -0.0436
99820W        W42737  19.363   1.781  27.868  0.0376  0.0017  0.2112
99821W        W42738  22.522  33.109  28.918  0.4812 -0.0603  0.0449
99822W        W42739  25.344   2.258  28.129  0.1746  0.1356  0.0421
99823W        W42740  22.490  33.621  31.236 -0.2931  0.0931 -0.1110
99824W        W42741  23.289  34.567  29.442  0.0444  0.0658 -0.2284
99825W        W42742  22.660   4.286  30.829 -0.1882  0.2578  0.1158
99826W        W42743  23.373  34.350  30.478  0.3222 -0.0547 -0.2606
99827W        W42744  23.927   0.563  27.946 -0.2187  0.1928  0.0145
99828W        W42745  26.080   2.128  30.990  0.1096  0.1276  0.3905
99829W        W42746  23.966   3.588  29.873 -0.0131 -0.0481 -0.0553
99830W        W42747  23.932   0.843  27.086  0.0935 -0.0940 -0.3371
99831W        W42748  24.632   2.398  31.869  0.1530 -0.1884  0.0598
99832W        W42749  22.667  33.893  27.431  0.1753 -0.0869  0.0950
99833W        W42750  22.196   2.468  30.044 -0.1069  0.0281 -0.3138
99834W        W42751  23.907   0.818  28.655 -0.2098  0.1232 -0.1607
99835W        W42752  22.580   2.155  28.947 -0.0397 -0.3163  0.1574
99836W        W42753  22.843   2.552  29.040 -0.1941  0.2100  0.2127
99837W        W42754  24.663  33.585  31.358  0.1503  0.3572  0.0467
99838W        W42755  26.605   2.893  31.147  0.2058 -0.1945  0.3357
99839W        W42756  23.318   0.325  29.829 -0.3899 -0.0231  0.0328
99840W        W42757  23.422   0.092  28.165 -0.0732  0.2487 -0.2809
99841W        W42758  23.426   1.532  28.629  0.1276 -0.0109 -0.0462
99842W        W42759  25.212   1.001  28.164 -0.1507  0.1341  0.2286
99843W        W42760  25.183   3.174  29.307  0.0676  0.0670 -0.0193
99844W        W42761  22.256   3.896   1.612 -0.0780  0.3037  0.0531
99845W        W42762  23.633   0.332  30.191 -0.0445 -0.1984 -0.1962
99846W        W42763  25.675   0.940  28.842  0.2470  0.0339  0.2388
99847W        W42764  24.077   2.784  30.747 -0.3489  0.0185 -0.3152
99848W        W42765  24.303   2.540  28.359 -0.0138  0.1453  0.0269
99849W        W42766  20.807   0.244  28.295  0.1435 -0.1802 -0.7171
99850W        W42767  23.173   0.009  27.356 -0.1896  0.1215 -0.1643
99851W        W42768  22.817   0.481  28.963  0.2993  0.0853 -0.0931
99852W        W42769  24.201   4.817  29.707  0.0384  0.1114 -0.1243
99853W        W42770  23.235   4.188  28.390 -0.1055 -0.0345 -0.0123
99854W        W42771  23.154   1.693  29.409  0.0555 -0.1034  0.5099
99855W        W42772  27.788   1.002  29.126 -0.0178  0.0061 -0.0028
99856W        W42773  23.768   2.694  28.152  0.1395 -0.2348 -0.1934
99857W        W42774  25.828  34.071  29.530  0.3000 -0.2100  0.1293
99858W        W42775  25.599  33.501  30.246  0.1151  0.1968  0.0109
99859W        W42776  26.683  34.510  27.766 -0.2596  0.4549 -0.1303
99860W        W42777  23.720  34.086  30.113  0.3988  0.1664 -0.1753
99861W        W42778  22.471  33.610  30.265 -0.3720 -0.0176  0.0149
99862W        W42779  27.358   1.418  28.405  0.3213  0.0543  0.0245
99863W        W42780  22.152   0.768  30.444 -0.1074 -0.1159  0.1073
99864W        W42781  25.052   4.717  30.436 -0.2427  0.1621 -0.0706
99865W        W42782  23.628   1.518  31.092 -0.0983  0.1122  0.2370
99866W        W42783  23.462  33.520  29.461  0.0690  0.2517 -0.1444
99867W        W42784  23.941  33.862  29.584  0.0394  0.0356 -0.0310
99868W        W42785  24.019   1.704  29.173  0.0584 -0.1623  0.3823
99869W        W42786  26.387   0.745  27.535 -0.0788 -0.0241  0.3727
99870W        W42787  23.868   3.601  26.733 -0.0219  0.0843  0.0118
99871W        W42788  22.496  32.987  30.096 -0.0756  0.1060  0.3289
99872W        W42789  24.922   3.598  30.031  0.2114 -0.0775 -0.2106
99873W        W42790  24.295   1.171  29.104  0.0033 -0.1191 -0.2370
99874W        W42791  24.766   3.942  26.479 -0.4142  0.0107  0.0326
99875W        W42792  24.137   2.167  29.119 -0.3312  0.3213 -0.1932
99876W        W42793  22.019  34.256   0.957 -0.3468  0.3493 -0.1541
99877W        W42794  26.406   1.316  27.574 -0.1443 -0.2435  0.0329
99878W        W42795  22.534  33.454  27.741 -0.2689 -0.1083  0.0631
99879W        W42796  23.926   1.758  31.474  0.0053  0.0226  0.2253
99880W        W42797  24.485  34.480  31.124 -0.1110  0.2437  0.1340
99881W        W42798  22.593   1.535  29.598 -0.2506  0.0554  0.0105
99882W        W42799  22.685  34.539  31.807  0.0354 -0.0316 -0.0008
99883W        W42800  25.663   3.494  30.149 -0.1099  0.0375 -0.0689
99884W        W42801  26.763   0.644  27.175  0.0804 -0.1332  0.3528
99885W        W42802  22.977  33.423  29.669 -0.1094  0.2354 -0.1454
99886W        W42803  25.632   1.837  27.994  0.0720  0.2221  0.0418
99887W        W42804  24.343   1.023  28.600 -0.1169 -0.0540  0.5310
99888W        W42805  23.300  34.352  28.931 -0.0658 -0.0683 -0.2420
99889W        W42806  26.358   3.137  31.597 -0.2334  0.0250  0.0308
99890W        W42807  21.569   0.582  25.790  0.1384 -0.1515  0.0615
99891W        W42808  23.540  34.529  29.980  0.0038  0.0494 -0.1890
99892W        W42809  22.141   5.114  27.850 -0.0211 -0.0715 -0.0378
99893W        W42810  24.926   0.882  29.177  0.3260 -0.0252  0.1089
99894W        W42811  23.993   0.410  28.944 -0.2673 -0.2258  0.0573
99895W        W42812  25.125  34.563  29.369  0.0967 -0.1480 -0.0522
99896W        W42813  23.907   2.351  30.414 -0.2480 -0.0797 -0.3836
99897W        W42814  20.700   0.916  27.269 -0.0369  0.3984  0.0385
99898W        W42815  23.418   0.444  27.706  0.3736  0.3317  0.0282
99899W        W42816  23.744   2.861  28.598  0.0243  0.0675 -0.1726
99900W        W42817  24.682   3.505  30.460  0.0213  0.3270 -0.0993
99901W        W42818  24.471   0.445  26.666  0.2759 -0.1152 -0.0560
99902W        W42819  24.773   1.715  30.894 -0.0810 -0.0975  0.2776
99903W        W42820  23.127   0.108  28.913  0.3284  0.1924 -0.3848
99904W        W42821  26.427   0.297  28.494  0.0661  0.0762  0.0678
99905W        W42822  22.722   3.482  28.124  0.1163 -0.2651  0.2511
99906W        W42823  22.940  34.111  30.576 -0.1247 -0.2604 -0.2966
99907W        W42824  23.386   3.227  28.555  0.0112 -0.0353 -0.0219
99908W        W42825  23.854  34.177  30.573 -0.0763  0.0014 -0.1489
99909W        W42826  22.299  32.681  27.233  0.3729 -0.0100  0.3395
99910W        W42827  26.998   2.852  28.717 -0.2677  0.0675  0.1484
99911W        W42828  25.040   1.670  29.129  0.0009 -0.0710  0.2356
99912W        W42829  23.838   2.097  27.898 -0.2161  0.2390 -0.1240
99913W        W42830  23.450   1.258  27.169 -0.0830  0.1454 -0.1137
99914W        W42831  24.206   2.581  28.861  0.1800 -0.1065 -0.2571
99915W        W42832  25.453   2.801  28.067  0.0868  0.2324 -0.0926
99916W        W42833  22.686   1.723  28.671  0.4410 -0.1156  0.1553
99917W        W42834  23.776   3.072  30.430 -0.2008  0.2111  0.0185
99918W        W42835  24.267   1.600  30.682 -0.0108 -0.1846  0.0297
99919W        W42836  23.719   1.574  29.488 -0.0014 -0.2610 -0.0439
99920W        W42837  24.517  34.418  27.735  0.2141  0.1979 -0.0716
99921W        W42838  24.326   2.022  28.612 -0.0172 -0.0053  0.2989
99922W        W42839  23.041   3.175  31.446 -0.0275  0.0520  0.4051
99923W        W42840  22.650   1.906  31.390  0.0415 -0.0723  0.0877
99924W        W42841  21.398   3.504  28.403 -0.2192  0.0787 -0.3759
99925W        W42842  25.539   1.109  27.444 -0.1519  0.2228  0.1612
99926W        W42843  24.360   0.413  28.590 -0.1579 -0.0601  0.4895
99927W        W42844  24.607   3.799  28.790  0.1360 -0.1016  0.1089
99928W        W42845  21.465   0.318  28.393  0.0585 -0.0390 -0.3657
99929W        W42846  21.553   4.433  28.055 -0.2544  0.1711 -0.1808
99930W        W42847  23.268   2.748  28.395  0.3249  0.2395 -0.1553
99931W        W42848  22.794   4.010  28.599 -0.1113  0.2192  0.0280
99932W        W42849  22.146   5.099  28.418  0.0762  0.3482  0.0348
99933W        W42850  24.855   2.190   0.885 -0.0389  0.2911  0.1432
99934W        W42851  25.004   1.087  27.207 -0.4044 -0.0832  0.2794
99935W        W42852  27.301   0.778  29.357  0.0178 -0.1677 -0.0974
99936W        W42853  25.439   1.346  28.493  0.1783 -0.0119  0.0123
99937W        W42854  25.312   4.781  29.453 -0.0208 -0.0811 -0.1343
99938W        W42855  22.285   2.041  29.710  0.2730  0.5773 -0.0679
99939W        W42856  22.662   0.682  26.932  0.0971  0.0259  0.0407
99940W        W42857  24.385   2.762  31.663  0.0320 -0.1374 -0.0034
99941W        W42858  23.926  34.296  31.082  0.0288  0.0475  0.1904
99942W        W42859  21.070   2.756  31.646  0.1051 -0.2152  0.2312
99943W        W42860  24.666   4.166  27.877  0.3370  0.1460 -0.1230
99944W        W42861  21.201   1.375  26.778 -0.1495  0.2663 -0.0527
99945W        W42862  22.781  34.381  28.869  0.2238  0.2778 -0.1461
99946W        W42863  25.489  33.698  29.488 -0.3608  0.0330  0.1463
99947W        W42864  22.768   2.974  24.267 -0.3545  0.2232  0.2049
99948W        W42865  22.713  33.085  28.117 -0.3194  0.1742 -0.1396
99949W        W42866  21.670   5.428  29.194 -0.2466  0.2807  0.0396
99950W        W42867  24.504   2.517  27.920  0.0539 -0.2064 -0.1733
99951W        W42868  23.346   3.973  28.787  0.0239 -0.2962 -0.1978
99952W        W42869  23.062   1.811  26.011  0.2028  0.0498 -0.2962
99953W        W42870  24.853  33.909  28.184  0.2654 -0.2332 -0.0889
99954W        W42871  22.033   1.222  29.319 -0.0773  0.0322  0.0123
99955W        W42872  25.957   0.198  29.595 -0.0277  0.3490  0.1737
99956W        W42873  21.146   0.603  27.915  0.0493  0.1872  0.3444
99957W        W42874  27.308   0.866  28.309  0.0461 -0.2644  0.0286
99958W        W42875  23.593   2.711  29.704 -0.0370 -0.0287  0.1551
99959W        W42876  23.459   0.806  29.114 -0.0900  0.3870 -0.2299
99960W        W42877  23.444   2.284  28.206 -0.0002 -0.0702 -0.0275
99961W        W42878  24.568   3.636   0.420 -0.0495  0.1218  0.3344
99962W        W42879  23.130   0.939  27.638  0.0317 -0.0593  0.0284
99963W        W42880  25.371   4.386  30.267 -0.0196 -0.1347 -0.0886
99964W        W42881  22.920   2.425  29.726  0.0736 -0.1433  0.4140
99965W        W42882  26.562  33.302  26.692 -0.1725 -0.0585  0.1456
99966W        W42883  21.373   0.183  27.585  0.1059  0.1193 -0.1676
99967W        W42884  21.810   1.777  27.891 -0.0604  0.0217  0.5254
99968W        W42885  25.254   4.648  31.584 -0.1157 -0.1777 -0.0015
99969W        W42886  21.239   0.332  28.909  0.1169 -0.1030 -0.2728
99970W        W42887  25.209   3.562  27.099 -0.2599 -0.0700 -0.3609
99971W        W42888  24.889   1.285  28.442  0.2551  0.1276  0.0324
99972W        W42889  21.948   6.368  28.850  0.3646  0.4344  0.0789
99973W        W42890  24.041   1.304  26.900 -0.0657 -0.4029 -0.0072
99974W        W42891  24.533   3.040  29.621  0.0755 -0.0789 -0.4729
99975W        W42892  21.714   1.682  29.195 -0.0098  0.1637  0.3100
99976W        W42893  24.102   3.032  29.109 -0.1405 -0.0411 -0.4453
99977W        W42894  25.310   1.262  29.016 -0.1036 -0.3331 -0.0613
99978W        W42895  22.064  33.895  26.663  0.1081 -0.1957  0.0695
99979W        W42896  21.930   0.999  30.031 -0.0439  0.1540  0.1028
99980W        W42897  20.990   3.820  29.625 -0.0933  0.2258  0.3188
99981W        W42898  24.956   0.758  29.740 -0.1263 -0.0648  0.0107
99982W        W42899  26.094   1.596  29.890 -0.1120 -0.1355  0.0734
99983W        W42900  23.535   2.973  27.194 -0.2487  0.1329 -0.0561
99984W        W42901  24.816   0.433  29.381  0.1281  0.1135 -0.0057
99985W        W42902  23.880   3.500   0.000 -0.1591  0.2642  0.0374
99986W        W42903  22.545   3.646   0.494  0.1245 -0.2385 -0.2710
99987W        W42904  22.298   1.665  27.739 -0.0317  0.1790 -0.2787
99988W        W42905  23.575   3.941  29.853 -0.1110  0.2827 -0.3512
99989W        W42906  24.292   3.045  28.550 -0.1917 -0.1392  0.2991
99990W        W42907  22.713   5.291  29.160 -0.1662  0.2131  0.0221
99991W        W42908  23.463   1.015  28.562  0.3496 -0.0585  0.0468
99992W        W42909  22.405  34.383  29.669 -0.0275 -0.3253 -0.1266
99993W        W42910  25.514   2.328  29.813  0.1483  0.1540 -0.0569
99994W        W42911  25.602   1.350  27.952  0.0959 -0.0347 -0.0056
99995W        W42912  25.064  33.746  29.150  0.5835 -0.1804 -0.0490
99996W        W42913  27.617  34.388  29.184 -0.0583 -0.1326  0.2751
99997W        W42914  24.473   2.738  29.205 -0.0782  0.3156  0.1102
99998W        W42915  20.294   2.673  27.350 -0.2064  0.2866  0.0923
99999W        W42916  24.681   4.447  27.398  0.1201 -0.2323  0.2081
    0W        W42917  21.965   2.154  28.994 -0.2726  0.1523 -0.0181
    1W        W42918  23.731   0.067  30.736  0.3080  0.3287 -0.2529
    2W        W42919  23.964   1.109  29.533  0.0303 -0.2111 -0.1388
    3W        W42920  21.609   1.180  29.637  0.0981  0.0718  0.2302
    4W        W42921  22.961  33.942  28.670 -0.1495  0.6770  0.0959
    5W        W42922  24.268  33.971  27.571  0.1552  0.1557 -0.3394
    6W        W42923  21.781   0.099  31.725  0.2759  0.0865 -0.1058
    7W        W42924  22.385   1.970  30.495  0.0586 -0.3250  0.0808
    8W        W42925  24.635   1.264  26.941 -0.2577 -0.0437  0.0993
    9W        W42926  24.437   2.582  27.400 -0.2889  0.1396 -0.5171
   10W        W42927  25.351   0.392  28.544  0.0123  0.0480  0.2279
   11W        W42928  25.522   1.602  31.595 -0.1150  0.1280  0.1612
   12W        W42929  22.009   2.957  28.441 -0.1705  0.1968  0.0471
   13W        W42930  23.426   4.584  31.678 -0.1394 -0.4571  0.5416
   14W        W42931  22.751  34.016  31.734 -0.0004  0.1665  0.1121
   15W        W42932  20.028   0.390  25.957  0.0152  0.0043  0.2675
   16W        W42933  22.856   1.777  30.846  0.2408 -0.1030 -0.0797
   17W        W42934  25.775   1.543  27.439  0.1433  0.3022  0.1313
   18W        W42935  23.677   4.319  28.930 -0.1357 -0.2130 -0.2290
   19W        W42936  23.802   0.687  29.388  0.2258  0.0127  0.1726
   20W        W42937  23.391   2.080  29.722 -0.2664  0.2647 -0.0884
   21W        W42938  22.267  34.409  30.398  0.0732 -0.0602 -0.0866
   22W        W42939  27.746   1.021  28.043 -0.2095 -0.2406  0.3148
   23W        W42940  24.771   1.332  28.924  0.0993  0.1342 -0.1925
   24W        W42941  27.271  34.403  27.475  0.0298 -0.0440 -0.0310
   25W        W42942  25.248   0.451  29.081  0.0682  0.1653 -0.1133
   26W        W42943  26.150   0.416  27.206 -0.1099 -0.0792 -0.1093
   27W        W42944  19.943  34.564   0.606 -0.1637  0.0860  0.0293
   28W        W42945  24.996   3.052  29.795 -0.0687  0.0639 -0.0143
   29W        W42946  23.164   1.692  30.390  0.2712  0.3083  0.1254
   30W        W42947  21.504   1.167  28.540  0.1893  0.3353  0.2494
   31W        W42948  24.605   0.110  30.331 -0.0267  0.1038 -0.1557
   32W        W42949  24.219   3.613  28.568 -0.0952  0.0822  0.2998
   33W        W42950  22.708   1.527  30.394 -0.2786 -0.4402 -0.2767
   34W        W42951  23.400  34.077  29.668 -0.0438  0.0715 -0.0989
   35W        W42952  23.552   1.947  29.166  0.2525  0.0248  0.1166
   36W        W42953  25.918   3.075  28.858 -0.4981  0.1318  0.1423
   37W        W42954  24.847   2.329  30.328  0.0924  0.1093  0.1504
   38W        W42955  22.293   0.419  27.260  0.1902 -0.1974 -0.0358
   39W        W42956  26.791   1.891  28.606 -0.3679  0.1925  0.4074
   40W        W42957  23.188   5.716  30.378  0.0571 -0.1655  0.0967
   41W        W42958  25.586   5.055  29.886 -0.1832  0.2222 -0.0371
   42W        W42959  23.525   5.472  28.916 -0.0951 -0.0036 -0.1861
   43W        W42960  23.579   2.984  29.071  0.3670  0.2928  0.1989
   44W        W42961  23.415  34.118  31.055 -0.1260  0.0120 -0.0070
   45W        W42962  22.759   1.793  27.509 -0.2923  0.0315  0.2360
   46W        W42963  22.621   3.591  27.623  0.1138 -0.2929  0.4059
   47W        W42964  24.682   1.022  30.080 -0.1697  0.4443 -0.0699
   48W        W42965  23.230  33.182  28.075 -0.3769 -0.0459  0.1180
   49W        W42966  23.033  34.560  28.445  0.4525 -0.0720  0.0079
   50W        W42967  23.366   4.144  30.299  0.0770  0.1529  0.0287
   51W        W42968  23.431   1.858  30.806 -0.0219 -0.0899  0.0911
   52W        W42969  24.776  34.513  30.679  0.2055  0.0463  0.1004
   53W        W42970  23.759   0.715  29.920  0.0746  0.0812  0.0644
   54W        W42971  23.041   0.301   0.647  0.2568 -0.3469  0.0110
   55W        W42972  22.487   2.729   1.342  0.2139 -0.0387  0.3795
   56W        W42973  22.330   4.674  31.622 -0.2533  0.2495 -0.1091
   57W        W42974  23.367   3.941   0.519  0.4315  0.2747  0.1566
   58W        W42975  23.511   1.699   0.989 -0.1120  0.2544 -0.1302
   59W        W42976  24.193   1.419  30.206  0.1226 -0.0847 -0.0358
   60W        W42977  23.045  32.412   0.439 -0.0235 -0.2388  0.0433
   61W        W42978  24.827   3.081   0.497 -0.1520  0.1781  0.1038
   62W        W42979  24.266   4.642  31.486  0.1283 -0.0187 -0.0836
   63W        W42980  21.417   0.918   0.734  0.1521 -0.1105 -0.0542
   64W        W42981  26.188   4.117  29.978  0.0679  0.0322  0.4243
   65W        W42982  24.447   2.588  30.552 -0.2762  0.2025  0.2930
   66W        W42983  25.500   2.349   1.219  0.2550 -0.1149  0.1686
   67W        W42984  23.457   2.508   0.159  0.0327  0.0135 -0.0479
   68W        W42985  24.333   4.655   0.048  0.6084  0.2588 -0.0740
   69W        W42986  24.855   2.155  31.185 -0.0416 -0.0544 -0.1456
   70W        W42987  21.691   1.801   1.977 -0.0793 -0.0492  0.3995
   71W        W42988  24.663   1.844  31.656  0.3073  0.0529  0.0416
   72W        W42989  21.999   0.171   0.231 -0.0408 -0.1952 -0.1938
   73W        W42990  21.251   4.726   0.502 -0.2056  0.1443  0.1086
   74W        W42991  24.768  34.133   0.358 -0.0796 -0.0379  0.0914
   75W        W42992  25.260   0.074  30.485  0.1699 -0.1788 -0.1048
   76W        W42993  22.107   1.229  31.953 -0.4074  0.0190 -0.0585
   77W        W42994  22.046  33.658  31.505 -0.1067 -0.2135 -0.1020
   78W        W42995  23.768   1.565  27.810  0.1305 -0.1384  0.0268
   79W        W42996  21.624   4.572  31.644  0.2251 -0.0276  0.1128
   80W        W42997  23.983   1.478   0.294  0.0251 -0.0713 -0.3805
   81W        W42998  23.461   3.058  31.241  0.2883  0.1665 -0.2139
   82W        W42999  24.954   5.368  30.729 -0.0738  0.0302 -0.0213
   83W        W43000  23.028   1.231  31.686  0.1141 -0.2051 -0.2189
   84W        W43001  24.247  33.849  30.078 -0.1900  0.5019  0.2261
   85W        W43002  21.905  34.378  29.121  0.0410 -0.1017 -0.2147
   86W        W43003  23.053   0.127   0.132  0.2479  0.4990  0.1653
   87W        W43004  21.813   3.503   0.089  0.3578  0.1091  0.2823
   88W        W43005  22.028   3.953   0.826 -0.0632  0.2585 -0.1585
   89W        W43006  25.521   3.454  31.119  0.0120  0.2400  0.0787
   90W        W43007  23.465   2.839   0.588  0.4460 -0.0569  0.0541
   91W        W43008  24.180   2.514   0.021 -0.0908 -0.2212  0.1191
   92W        W43009  24.513  34.061  31.877 -0.1966  0.1844  0.0139
   93W        W43010  24.619   1.816   0.676 -0.2718  0.2817  0.0762
   94W        W43011  21.865   0.867   0.395  0.2116  0.0338 -0.0964
   95W        W43012  24.225   2.302  30.969  0.0119  0.2284  0.0840
   96W        W43013  24.945   4.317  31.911 -0.0024  0.0649 -0.1471
   97W        W43014  22.125   0.812  31.111 -0.0266 -0.2244 -0.0922
   98W        W43015  23.179   1.034   0.319 -0.1558  0.0751  0.4325
   99W        W43016  25.037   4.319  30.745 -0.0888  0.1320 -0.0045
  100W        W43017  24.080   3.441   0.442  0.0685 -0.0779 -0.4734
  101W        W43018  21.796   1.690   0.134 -0.3195 -0.2365 -0.0183
  102W        W43019  25.589   3.443   0.731 -0.0625  0.0199 -0.0974
  103W        W43020  26.063   0.269  31.281  0.0492 -0.2460  0.0324
  104W        W43021  23.900   1.235   1.115 -0.3277 -0.0674 -0.1888
  105W        W43022  22.756   1.434  29.129 -0.0121 -0.1628  0.0171
  106W        W43023  23.812   2.249  31.265 -0.1187  0.0924  0.1238
  107W        W43024  22.765   2.016  29.475  0.0801 -0.2061 -0.1976
  108W        W43025  24.862   2.109   0.309  0.1740  0.1438  0.0982
  109W        W43026  25.114   3.460   0.527  0.1136 -0.0001  0.2558
  110W        W43027  23.232   3.064  30.418 -0.1387 -0.4050 -0.1460
  111W        W43028  23.028   3.061  30.925 -0.1145  0.2882  0.0614
  112W        W43029  23.572   2.885  30.826 -0.1256  0.1731  0.1953
  113W        W43030  23.008   2.180  31.149 -0.0242  0.4480  0.5878
  114W        W43031  21.231   4.011   2.419  0.1319  0.0993  0.0703
  115W        W43032  19.859   0.439   0.501 -0.0190 -0.0577 -0.2894
  116W        W43033  21.999   2.421  31.426  0.0958 -0.2524  0.0929
  117W        W43034  26.517   1.858  31.163 -0.0530 -0.0275  0.0195
  118W        W43035  25.538   1.547   0.454  0.1864  0.0717  0.2847
  119W        W43036  23.215   6.458  20.304  0.1352  0.0621 -0.0273
  120W        W43037  22.440   4.504  16.951  0.2919  0.1396  0.4639
  121W        W43038  23.354   4.691  17.468  0.1243 -0.2108  0.4784
  122W        W43039  25.910   6.453  18.779  0.0281 -0.2271 -0.3187
  123W        W43040  21.733   2.313  16.610  0.0120 -0.0125  0.1397
  124W        W43041  23.554   6.398  16.912  0.0678 -0.0326 -0.1006
  125W        W43042  23.505   3.219  17.020 -0.2232  0.2327  0.1170
  126W        W43043  24.981   6.083  18.817 -0.1420 -0.0578 -0.0372
  127W        W43044  26.365   7.792  19.742 -0.1317  0.1888  0.1097
  128W        W43045  23.430   6.740  15.903  0.1643 -0.0569 -0.1251
  129W        W43046  22.161   5.102  19.261 -0.1127 -0.0119  0.4107
  130W        W43047  22.793   8.028  19.215 -0.1228 -0.0357  0.1256
  131W        W43048  22.482   4.859  16.571 -0.5010 -0.1168 -0.1532
  132W        W43049  22.301   3.444  17.743 -0.0060  0.2744 -0.0623
  133W        W43050  23.135   5.939  18.989  0.0993 -0.2012  0.1867
  134W        W43051  22.581   4.993  17.127 -0.0064 -0.2513 -0.1848
  135W        W43052  22.703   5.227  22.047  0.1737  0.2711 -0.4516
  136W        W43053  23.642   5.920  18.124  0.0131 -0.1390 -0.1742
  137W        W43054  23.294   6.230  18.313  0.1286 -0.2499 -0.3815
  138W        W43055  23.159   4.093  18.955  0.0085  0.0800 -0.1183
  139W        W43056  22.860   2.202  21.369  0.1263  0.0971 -0.1736
  140W        W43057  23.613   7.206  17.975 -0.0116 -0.0561  0.0929
  141W        W43058  21.975   5.511  16.340 -0.2102  0.2579 -0.0369
  142W        W43059  21.860   5.357  19.626  0.3376 -0.2182  0.1960
  143W        W43060  21.222   4.883  18.315  0.1412  0.2515  0.2524
  144W        W43061  25.532   3.571  17.488 -0.0012 -0.1660  0.2028
  145W        W43062  22.917   6.109  17.502 -0.2303  0.0103 -0.2317
  146W        W43063  23.157   8.122  17.144 -0.2420  0.0333 -0.2821
  147W        W43064  22.794   7.756  18.196  0.2150  0.1066  0.4330
  148W        W43065  25.519   6.224  20.695 -0.0095 -0.0130 -0.0284
  149W        W43066  22.466   6.352  16.972  0.0304  0.2055  0.0629
  150W        W43067  20.409   7.200  18.591  0.1480 -0.1404  0.3729
  151W        W43068  22.967   7.135  17.510 -0.1769  0.2740  0.4653
  152W        W43069  23.831   5.715  16.862 -0.1507 -0.1963  0.1997
  153W        W43070  24.860   7.463  20.090 -0.1964 -0.0906 -0.0505
  154W        W43071  23.198   6.010  20.068  0.1092 -0.0669 -0.0956
  155W        W43072  21.344   5.977  15.999  0.0234  0.1337  0.4310
  156W        W43073  24.763   7.548  18.770 -0.0825  0.0922  0.1626
  157W        W43074  21.690   6.637  20.150 -0.1419  0.4314 -0.2203
  158W        W43075  20.674   4.996  19.979  0.1387  0.0746 -0.0287
  159W        W43076  22.104   5.548  17.625 -0.0638  0.0979 -0.1891
  160W        W43077  22.259   6.983  16.293 -0.2337 -0.2379  0.0559
  161W        W43078  23.350   4.356  19.484  0.0479 -0.2437 -0.1857
  162W        W43079  21.550   6.670  21.245  0.8045  0.3483  0.2650
  163W        W43080  22.037   6.375  19.908 -0.1546  0.3926  0.4006
  164W        W43081  23.258   3.843  20.210  0.0480 -0.1326 -0.0881
  165W        W43082  21.284   7.313  15.899  0.1854  0.0915  0.1873
  166W        W43083  24.470   5.151  18.179  0.0943  0.0292  0.0419
  167W        W43084  24.176   3.571  16.329  0.0162  0.0874 -0.0432
  168W        W43085  23.559   4.841  18.012  0.1592  0.0309  0.2842
  169W        W43086  22.598   5.188  18.695  0.3581  0.2036 -0.1054
  170W        W43087  23.003   7.567  19.112 -0.0376 -0.0489  0.2298
  171W        W43088  23.431   3.631  19.179  0.2857 -0.5281  0.2648
  172W        W43089  22.604   3.536  20.777 -0.0191 -0.0659 -0.0694
  173W        W43090  22.834   4.711  17.510  0.0721 -0.0715 -0.0596
  174W        W43091  24.116   3.995  17.009  0.1026 -0.4473 -0.0282
  175W        W43092  22.306   8.107  19.978 -0.1965  0.3059  0.0695
  176W        W43093  21.380   5.312  20.330 -0.3178  0.2845 -0.1005
  177W        W43094  23.325   7.143  16.207 -0.1750  0.1888  0.0943
  178W        W43095  25.366   5.810  18.572 -0.2064  0.0608  0.0175
  179W        W43096  23.472   6.760  16.529 -0.3105  0.2472 -0.1432
  180W        W43097  22.024   4.373  18.082 -0.2360 -0.3433 -0.2210
  181W        W43098  22.292   5.953  20.365  0.1659  0.2989  0.1070
  182W        W43099  18.394   5.084  18.989 -0.1510  0.0327  0.1470
  183W        W43100  24.784   4.590  16.868  0.2069 -0.0148 -0.1188
  184W        W43101  26.249   6.927  20.803  0.0450  0.1657  0.2285
  185W        W43102  19.600   7.127  18.999  0.3192 -0.0739 -0.0454
  186W        W43103  24.883   5.712  16.784  0.0816 -0.2699  0.1649
  187W        W43104  24.355   7.332  19.020 -0.0485  0.0040  0.1336
  188W        W43105  21.701   7.439  21.968  0.3371 -0.1758  0.0235
  189W        W43106  25.200   4.482  17.076 -0.0367 -0.1371  0.2326
  190W        W43107  23.886   5.539  18.518 -0.1684 -0.0205  0.1414
  191W        W43108  22.672   5.175  20.495  0.1390 -0.1136 -0.3819
  192W        W43109  22.598   6.102  16.497  0.1398  0.1674 -0.0051
  193W        W43110  23.795   5.193  16.909  0.3805  0.0977 -0.1763
  194W        W43111  24.513   7.015  19.478 -0.3242 -0.2314 -0.0237
  195W        W43112  24.778   6.028  17.124  0.2833  0.0001  0.2973
  196W        W43113  23.219   7.108  19.368 -0.3641  0.1223  0.2779
  197W        W43114  23.266   4.364  20.973 -0.0955  0.2687 -0.1841
  198W        W43115  24.463   6.695  20.071 -0.2512 -0.0420 -0.1060
  199W        W43116  21.763   5.177  16.707  0.0613  0.0234  0.0663
  200W        W43117  21.325   4.864  19.969 -0.0534 -0.1667  0.0310
  201W        W43118  21.920   6.456  18.013 -0.0985 -0.1805 -0.1287
  202W        W43119  23.690   4.113  19.182  0.1080 -0.3780  0.4363
  203W        W43120  23.776   7.585  20.542 -0.0127 -0.0568 -0.0323
  204W        W43121  24.807   5.643  18.044 -0.2840 -0.3720  0.0361
  205W        W43122  21.110   5.682  18.406  0.2516 -0.0336  0.2051
  206W        W43123  21.450   4.065  19.488  0.2302 -0.2485  0.1025
  207W        W43124  23.040   4.835  18.797  0.0561  0.0408  0.0944
  208W        W43125  25.294   7.012  19.217 -0.0611 -0.1540 -0.0005
  209W        W43126  25.920   3.296  17.234  0.3283  0.0009  0.2459
  210W        W43127  23.704   6.882  17.058 -0.1742  0.0785 -0.1447
  211W        W43128  20.217   3.665  17.970  0.0683 -0.0666  0.1377
  212W        W43129  23.051   4.670  18.034  0.1616 -0.2898  0.0806
  213W        W43130  23.803   3.586  18.832  0.2283  0.0604  0.0314
  214W        W43131  22.089   4.591  19.154 -0.1690 -0.0581  0.0943
  215W        W43132  22.923   6.564  19.827  0.2664 -0.1702  0.0452
  216W        W43133  22.133   5.881  16.667 -0.2274 -0.1244  0.0517
  217W        W43134  24.055   6.721  18.759 -0.1240  0.0078  0.0547
  218W        W43135  22.488   4.605  17.843 -0.3922 -0.3312  0.0761
  219W        W43136  23.162   6.766  16.951 -0.3474  0.0851 -0.0604
  220W        W43137  22.669   5.539  20.078 -0.0097  0.1391  0.0186
  221W        W43138  21.306   7.589  18.222 -0.0794 -0.1919 -0.0025
  222W        W43139  26.035   7.987  18.370  0.1137  0.0796  0.1546
  223W        W43140  22.080   8.795  18.091 -0.0895 -0.1624 -0.3153
  224W        W43141  21.724   3.482  20.302 -0.0431 -0.0588 -0.0917
  225W        W43142  22.710   4.401  16.470 -0.1546 -0.1369  0.0776
  226W        W43143  23.144   5.751  18.454 -0.0843 -0.0847  0.1327
  227W        W43144  23.237   5.570  19.274  0.0740 -0.2258  0.2342
  228W        W43145  21.979   3.912  17.468 -0.0279 -0.0518 -0.0048
  229W        W43146  23.728   7.712  17.494 -0.0037 -0.1091 -0.2694
  230W        W43147  21.629   7.181  17.677  0.2602  0.1339 -0.0053
  231W        W43148  21.216   5.801  18.908  0.1360 -0.0883 -0.1337
  232W        W43149  24.685   5.661  20.007 -0.1894  0.0762  0.1456
  233W        W43150  25.829   6.296  17.714  0.2557 -0.0287 -0.1005
  234W        W43151  21.907   5.599  19.225 -0.1306 -0.0510 -0.3559
  235W        W43152  22.211   6.805  17.864  0.4155 -0.1551  0.1272
  236W        W43153  23.397   9.462  16.772  0.0472 -0.1482  0.0552
  237W        W43154  21.125   5.978  16.456 -0.0533 -0.0416 -0.1855
  238W        W43155  21.794   5.914  18.764 -0.2879  0.0928 -0.0360
  239W        W43156  21.737   7.726  16.989 -0.0177 -0.1690  0.3106
  240W        W43157  23.372   5.284  18.582 -0.2373 -0.0625  0.0606
  241W        W43158  21.949   7.513  19.901 -0.0983  0.0349  0.2276
  242W        W43159  24.558   7.683  20.487  0.1669  0.0183 -0.0915
  243W        W43160  21.648   3.035  17.975  0.0930  0.2882  0.1036
  244W        W43161  20.991   6.245  20.072 -0.1494 -0.0436  0.1475
  245W        W43162  22.643   4.630  18.287  0.1565  0.1392  0.0868
  246W        W43163  24.372   4.436  17.091  0.0077 -0.0285  0.2089
  247W        W43164  22.101   6.890  20.242  0.1162  0.1238  0.2306
  248W        W43165  26.564   7.279  17.426  0.5487 -0.1385  0.0299
  249W        W43166  25.595   4.444  16.677  0.0500 -0.1647  0.0354
  250W        W43167  23.942   3.579  17.956 -0.0019 -0.2750  0.1937
  251W        W43168  21.700   5.003  18.502 -0.0559  0.0024  0.3363
  252W        W43169  23.608   6.332  16.171  0.2277  0.2113 -0.1632
  253W        W43170  22.710   6.333  19.211  0.0017  0.2321 -0.0501
  254W        W43171  22.235   6.104  15.626 -0.0009 -0.1865 -0.0043
  255W        W43172  25.248   4.982  17.211 -0.1721 -0.0893  0.2124
  256W        W43173  20.418   6.222  19.099  0.2981 -0.2254 -0.0764
  257W        W43174  25.256   5.714  19.639 -0.0641 -0.2031 -0.1339
  258W        W43175  22.025   7.965  18.769 -0.0450  0.0301  0.2287
  259W        W43176  21.319   4.332  20.424  0.5741 -0.2668  0.1849
  260W        W43177  21.779   3.333  18.429  0.4251 -0.3302  0.1023
  261W        W43178  22.906   4.265  17.775 -0.0902 -0.1169 -0.1318
  262W        W43179  20.976   8.094  17.488 -0.0815  0.0637 -0.1234
  263W        W43180  24.075   5.515  17.224  0.0028 -0.2582  0.0448
  264W        W43181  22.202   4.983  21.801  0.2854  0.0651 -0.2024
  265W        W43182  22.152   3.984  20.876  0.0405 -0.0853  0.1669
  266W        W43183  26.375   4.416  20.637  0.1913 -0.2025 -0.1589
  267W        W43184  24.755   3.855  16.361 -0.2985  0.1829 -0.1220
  268W        W43185  24.050   6.966  19.212 -0.0822 -0.0690  0.4547
  269W        W43186  24.138   5.773  16.355  0.0554 -0.1784  0.1774
  270W        W43187  24.032   4.750  20.496 -0.0969 -0.2596 -0.1561
  271W        W43188  21.819   6.040  20.242  0.2135 -0.0782  0.2706
  272W        W43189  20.936   6.368  18.877 -0.2041  0.1350 -0.0848
  273W        W43190  24.186   8.115  21.054 -0.1582  0.0362  0.0140
  274W        W43191  24.912   7.554  18.273  0.0202  0.1109  0.0405
  275W        W43192  21.635   3.240  19.253  0.0391 -0.1732 -0.2145
  276W        W43193  23.447   4.356  18.030 -0.1584  0.0609  0.3185
  277W        W43194  22.217   6.402  16.528 -0.2643 -0.1458 -0.1895
  278W        W43195  23.364   6.817  17.554  0.1104 -0.0817  0.0111
  279W        W43196  22.461   4.533  18.788 -0.0619 -0.0006  0.0411
  280W        W43197  21.405   6.702  17.683  0.0107 -0.0207 -0.3198
  281W        W43198  23.557   6.686  18.524  0.0905 -0.6059  0.3145
  282W        W43199  22.936   7.169  21.159 -0.3556 -0.0353 -0.2696
  283W        W43200  22.958   6.241  17.027 -0.1090  0.0821  0.2817
  284W        W43201  23.037   3.403  18.304  0.0519 -0.0869  0.0348
  285W        W43202  20.455   7.054  19.274 -0.1170 -0.0909 -0.1212
  286W        W43203  21.579   4.155  16.241 -0.1240  0.0824  0.0476
  287W        W43204  23.538   2.889  18.478 -0.1437  0.0634  0.1284
  288W        W43205  24.866   5.399  17.187  0.1426 -0.0321 -0.2333
  289W        W43206  23.029   4.785  19.427  0.0639  0.4235  0.0757
  290W        W43207  21.051   4.005  18.060 -0.1122 -0.0476 -0.0332
  291W        W43208  21.562   4.656  17.424  0.0650 -0.3081 -0.0795
  292W        W43209  21.588   8.309  18.758  0.1007  0.0126 -0.0970
  293W        W43210  22.848   6.171  20.631 -0.1668 -0.0614 -0.0458
  294W        W43211  25.432   6.326  18.463 -0.1384 -0.1124 -0.2893
  295W        W43212  23.764   6.623  19.476 -0.2363 -0.2280  0.1678
  296W        W43213  22.821   4.760  21.780  0.4076  0.1142  0.1057
  297W        W43214  22.936   4.583  16.989 -0.1903 -0.2507  0.1735
  298W        W43215  24.451   7.191  20.313  0.1847  0.2577 -0.0351
  299W        W43216  22.347   4.091  19.291 -0.1945 -0.1469  0.0068
  300W        W43217  21.742   6.038  18.221 -0.2159  0.1782 -0.1108
  301W        W43218  23.399   6.937  21.164  0.0141  0.1988 -0.1161
  302W        W43219  20.717   5.327  17.137 -0.0236 -0.1840  0.2500
  303W        W43220  22.051   7.907  19.587 -0.0997 -0.2982 -0.0712
  304W        W43221  23.095   4.900  22.296 -0.5021  0.0343  0.2604
  305W        W43222  23.607   6.857  19.904  0.2755  0.3450 -0.2872
  306W        W43223  22.121   4.671  19.961  0.0158 -0.1181 -0.0186
  307W        W43224  22.769   4.427  19.206  0.0136  0.0152  0.1459
  308W        W43225  21.892   4.837  19.582  0.3664 -0.1684 -0.1332
  309W        W43226  23.913   6.089  19.603  0.2317  0.2169  0.1831
  310W        W43227  24.229   3.444  21.869  0.2242 -0.0608 -0.0801
  311W        W43228  23.036   5.179  20.100  0.0266 -0.1911  0.3667
  312W        W43229  21.912   3.831  19.392 -0.1413 -0.0373  0.0291
  313W        W43230  25.291   6.844  18.618 -0.1032  0.0272 -0.2581
  314W        W43231  23.939   6.423  18.263 -0.2444  0.0201 -0.0412
  315W        W43232  22.102   5.113  17.886 -0.1088  0.3926  0.0816
  316W        W43233  20.527   4.109  18.173 -0.0891 -0.0648 -0.2358
  317W        W43234  20.829   4.488  18.455  0.2877 -0.0007  0.1711
  318W        W43235  23.783   4.753  19.289 -0.0731  0.0406 -0.2136
  319W        W43236  22.055   6.401  19.092 -0.0527  0.0879  0.1481
  320W        W43237  21.145   5.079  19.031 -0.0589  0.0866  0.3674
  321W        W43238  21.562   6.215  19.788 -0.2650 -0.4540 -0.4633
  322W        W43239  24.066   4.543  16.449 -0.0449  0.0834 -0.1715
  323W        W43240  22.489   7.254  16.634 -0.0774  0.1328 -0.0940
  324W        W43241  24.493   6.391  18.098  0.0636 -0.2366 -0.2018
  325W        W43242  23.585   6.385  17.944  0.1743 -0.1720 -0.1745
  326W        W43243  24.699   6.888  17.496  0.0891 -0.0285 -0.2729
  327W        W43244  25.032   4.509  20.788 -0.1159  0.1334 -0.0240
  328W        W43245  22.112   3.463  17.290 -0.0405  0.1031  0.0843
  329W        W43246  23.983   6.161  17.805 -0.1098  0.1146 -0.0205
  330W        W43247  22.763   4.476  21.251 -0.0703  0.2281 -0.1011
  331W        W43248  23.732   7.070  21.701 -0.1374  0.2978 -0.3766
  332W        W43249  20.241   5.776  19.865 -0.0281  0.0753 -0.1246
  333W        W43250  23.209   5.091  17.714  0.0522  0.1471  0.2635
  334W        W43251  22.415   3.890  16.533  0.0182 -0.2522 -0.1127
  335W        W43252  22.774   8.098  20.066 -0.0845  0.3884  0.0424
  336W        W43253  24.296   4.891  19.120 -0.1180  0.1504 -0.1973
  337W        W43254  23.006   5.850  16.705  0.1869 -0.0206 -0.0139
  338W        W43255  24.541   4.206  16.700 -0.1630  0.1976  0.0111
  339W        W43256  20.539   6.643  19.820 -0.1484  0.1059  0.3211
  340W        W43257  23.504   5.415  17.293 -0.0284 -0.1333 -0.0834
  341W        W43258  25.780   4.078  17.564  0.1566 -0.1744  0.5067
  342W        W43259  23.031   6.816  20.863 -0.0854 -0.3048  0.2601
  343W        W43260  22.682   3.705  20.126  0.2033 -0.0736  0.1831
  344W        W43261  25.343   5.477  20.060 -0.1327 -0.1602  0.5177
  345W        W43262  23.749   4.871  18.805 -0.3447  0.0466  0.0102
  346W        W43263  23.077   3.372  20.192  0.0716  0.1834 -0.1641
  347W        W43264  24.771   5.775  19.399 -0.0488  0.2932  0.3588
  348W        W43265  21.657   4.513  19.918  0.1267 -0.2593  0.0863
  349W        W43266  21.528   4.078  21.322  0.0410  0.5263 -0.1627
  350W        W43267  25.329   6.724  19.633 -0.2711  0.1165 -0.2942
  351W        W43268  25.238   3.988  16.144 -0.2065 -0.3124  0.0710
  352W        W43269  22.981   5.094  18.328  0.0054  0.1627  0.1611
  353W        W43270  26.162   3.842  18.181  0.3001  0.1475 -0.1674
  354W        W43271  25.576   4.536  17.704  0.0964  0.0303 -0.2058
  355W        W43272  22.192   4.742  18.395  0.1623  0.1152 -0.0016
  356W        W43273  23.956   6.016  20.603  0.0956 -0.1837 -0.1166
  357W        W43274  21.395   7.689  17.470 -0.1961  0.1179 -0.2396
  358W        W43275  24.249   3.998  19.433  0.0807 -0.1204 -0.1951
  359W        W43276  22.583   5.077  17.638 -0.0047 -0.3452 -0.2432
  360W        W43277  22.134   6.888  16.954  0.0109  0.1694  0.0523
  361W        W43278  23.364   5.915  17.078  0.0308 -0.2403  0.3024
  362W        W43279  20.679   4.303  16.821  0.1367 -0.0736 -0.1856
  363W        W43280  21.176   8.194  18.458 -0.0559  0.1409 -0.1130
  364W        W43281  22.517   5.665  15.782 -0.1025 -0.1309 -0.1424
  365W        W43282  24.372   5.913  17.346  0.0584  0.0235 -0.1836
  366W        W43283  24.460   6.659  19.068  0.2766  0.0206 -0.0761
  367W        W43284  23.702   6.026  20.049 -0.3559  0.0010 -0.1132
  368W        W43285  24.395   5.433  16.866 -0.0274 -0.0732  0.0112
  369W        W43286  24.937   5.557  18.587 -0.1856  0.0063  0.1813
  370W        W43287  23.323   5.414  16.766  0.3004 -0.0473  0.0702
  371W        W43288  22.238   2.540  18.249  0.2898 -0.2710 -0.1695
  372W        W43289  22.397   8.088  18.427  0.2092  0.3948  0.0317
  373W        W43290  23.680   6.492  20.328  0.0661  0.1939  0.1513
  374W        W43291  21.985   6.332  16.957 -0.0940  0.3707 -0.4671
  375W        W43292  21.714   4.605  20.403 -0.2542 -0.1259  0.2057
  376W        W43293  21.262   6.888  19.245 -0.0486  0.0294  0.0816
  377W        W43294  21.797   6.491  18.547 -0.0906 -0.0665  0.0475
  378W        W43295  24.278   7.944  19.663 -0.2226 -0.2310 -0.0463
  379W        W43296  22.234   6.009  18.477  0.0188  0.3567 -0.0926
  380W        W43297  21.388   6.182  21.292  0.0455  0.1662 -0.0270
  381W        W43298  23.303   6.427  20.810 -0.4170  0.1082  0.0142
  382W        W43299  25.552   7.443  18.652  0.2930  0.0123 -0.0563
  383W        W43300  21.597   4.271  18.963 -0.2501  0.1987  0.0356
  384W        W43301  21.083   5.296  19.963 -0.0766  0.2701 -0.2247
  385W        W43302  25.277   5.120  21.629 -0.1244  0.4095 -0.1583
  386W        W43303  24.013   6.453  19.950  0.0884  0.4062  0.1091
  387W        W43304  22.887   5.399  17.960 -0.0023  0.1011  0.0852
  388W        W43305  22.724   7.956  17.341  0.0255 -0.1508  0.0189
  389W        W43306  22.252   4.843  20.455 -0.1401 -0.1867  0.1592
  390W        W43307  18.854   6.828  20.043  0.1100  0.1644  0.1956
  391W        W43308  21.938   7.051  18.565 -0.1078  0.0454 -0.1105
  392W        W43309  25.746   6.803  16.733 -0.3539 -0.2276 -0.0547
  393W        W43310  26.186   6.093  16.929  0.3109 -0.0641 -0.3084
  394W        W43311  23.432   8.349  17.523  0.2387 -0.1817  0.1332
  395W        W43312  21.614   3.633  17.137  0.2470 -0.4787  0.1492
  396W        W43313  22.579   6.380  17.843 -0.0018  0.0641 -0.2724
  397W        W43314  22.648   6.762  16.588  0.1171  0.1475  0.1989
  398W        W43315  25.270   4.841  16.717 -0.1564  0.0875  0.4693
  399W        W43316  22.335   7.718  16.641 -0.0747  0.2535  0.1124
  400W        W43317  25.919   5.532  19.347 -0.2489 -0.1842  0.1314
  401W        W43318  24.482   4.806  17.740 -0.0166 -0.0357  0.3134
  402W        W43319  23.592   3.995  18.671 -0.2381 -0.3527 -0.0379
  403W        W43320  25.081   4.143  19.055 -0.0484 -0.0702  0.0330
  404W        W43321  22.409   6.528  19.569  0.0367  0.0330  0.0878
  405W        W43322  24.631   5.224  18.817  0.0812 -0.0916  0.0479
  406W        W43323  22.424   5.401  17.294 -0.1075  0.0012 -0.1562
  407W        W43324  21.473   6.335  19.080 -0.2072 -0.1030 -0.0836
  408W        W43325  24.110   3.974  18.877  0.1979  0.0789 -0.0623
  409W        W43326  22.530   9.467  19.420  0.1145  0.1721 -0.0881
  410W        W43327  25.461   7.541  16.522  0.1550  0.0982 -0.0347
  411W        W43328  22.203   2.952  17.086  0.2945 -0.0674  0.0034
  412W        W43329  22.491   6.757  19.029  0.1643  0.0547  0.3080
  413W        W43330  23.631   2.354  18.624 -0.1755 -0.3384  0.0278
  414W        W43331  22.600   5.737  17.676  0.1138  0.2294  0.0265
  415W        W43332  22.417   6.085  17.421 -0.2249 -0.0657 -0.0345
  416W        W43333  22.868   7.584  20.068 -0.1177  0.1446 -0.3724
  417W        W43334  22.445   4.123  17.821  0.1567 -0.1712  0.1757
  418W        W43335  24.365   8.847  20.050 -0.0611 -0.0390  0.0729
  419W        W43336  21.746   4.575  16.437 -0.0635  0.1068 -0.2613
  420W        W43337  24.682   5.983  18.408  0.1923 -0.4083  0.1767
  421W        W43338  22.209   6.027  17.943 -0.0875  0.1531  0.3329
  422W        W43339  26.097   4.381  17.831  0.0766  0.0254 -0.0756
  423W        W43340  23.951   5.554  19.849 -0.0524  0.1200 -0.0846
  424W        W43341  24.576   7.496  17.621 -0.0812 -0.2065 -0.2562
  425W        W43342  22.769   6.869  19.417 -0.1630  0.1976 -0.1900
  426W        W43343  21.278   3.525  17.901  0.0001  0.0942 -0.3054
  427W        W43344  24.451   6.451  17.170  0.0564  0.1075  0.4930
  428W        W43345  26.914   6.156  21.948  0.0133 -0.1745 -0.3750
  429W        W43346  25.459   4.497  16.227  0.3566 -0.0918  0.2153
  430W        W43347  25.389   8.315  19.039 -0.2586 -0.0034 -0.2066
  431W        W43348  22.404   4.224  19.993 -0.2761 -0.1081 -0.1182
  432W        W43349  22.980   5.696  17.311  0.0887 -0.1213 -0.2955
  433W        W43350  21.647   4.962  19.106 -0.0396  0.0282 -0.0424
  434W        W43351  23.067   6.078  19.465 -0.4679 -0.0567  0.0801
  435W        W43352  24.856   6.658  19.412 -0.1082 -0.0628 -0.4941
  436W        W43353  21.875   4.167  16.673  0.0137 -0.1223  0.1234
  437W        W43354  25.447   7.515  17.151  0.0758  0.1856  0.1251
  438W        W43355  23.840   4.399  18.561 -0.0557  0.3283 -0.0255
  439W        W43356  23.346   7.200  17.146  0.2574 -0.1945 -0.0491
  440W        W43357  25.777   6.303  17.213  0.0529 -0.2931 -0.0875
  441W        W43358  23.811   6.508  17.361 -0.0638  0.1555  0.3446
  442W        W43359  20.358   3.524  18.935 -0.3180 -0.0861  0.0199
  443W        W43360  24.831   7.082  19.063  0.0200 -0.1880 -0.2020
  444W        W43361  24.604   6.195  19.205  0.0328  0.0579  0.1175
  445W        W43362  23.829   2.652  17.696  0.0630  0.1188 -0.0733
  446W        W43363  22.604   6.048  19.656  0.0090  0.0273 -0.0930
  447W        W43364  20.757   5.790  20.052  0.0323 -0.0034  0.0046
  448W        W43365  25.180   4.375  18.093  0.0628  0.0097 -0.0239
  449W        W43366  23.878   3.139  20.211  0.2100 -0.3687  0.2920
  450W        W43367  23.154   6.354  16.556  0.0816 -0.1719 -0.0400
  451W        W43368  26.089   3.901  20.396  0.3256 -0.1987 -0.0407
  452W        W43369  24.232   6.425  20.412  0.2190 -0.2524  0.3597
  453W        W43370  21.703   6.807  19.030 -0.4330 -0.1041  0.0697
  454W        W43371  20.526   5.049  16.508 -0.1740 -0.1430  0.0479
  455W        W43372  21.556   5.736  19.835  0.2381  0.0641 -0.1782
  456W        W43373  22.513   5.827  16.982 -0.0665  0.1921 -0.3487
  457W        W43374  22.996   6.854  18.977 -0.1255  0.2027 -0.0331
  458W        W43375  22.708   5.704  20.540  0.0548 -0.0876 -0.0789
  459W        W43376  24.929   6.557  17.189  0.1461 -0.1681  0.0798
  460W        W43377  23.916   6.786  17.791 -0.2608  0.1464 -0.2155
  461W        W43378  22.781   5.411  16.720  0.0069 -0.0409  0.2057
  462W        W43379  24.637   4.342  19.403  0.1290  0.1933  0.1641
  463W        W43380  24.744   4.033  18.224 -0.1700  0.2518  0.0600
  464W        W43381  21.487   5.864  19.317 -0.0070 -0.2174 -0.2775
  465W        W43382  21.186   5.514  16.018 -0.0288  0.1612 -0.3685
  466W        W43383  23.007   7.167  16.590 -0.0828  0.0729 -0.1582
  467W        W43384  23.249   5.594  20.359  0.1012  0.2009 -0.3217
  468W        W43385  22.642   3.148  20.075 -0.0163  0.2090  0.0362
  469W        W43386  22.512   4.894  21.388  0.1220  0.0981  0.0070
  470W        W43387  21.506   6.259  17.839 -0.2809 -0.1848 -0.3249
  471W        W43388  21.595   4.663  16.904  0.0740  0.3058  0.0372
  472W        W43389  26.947   6.109  19.911  0.0665 -0.2140  0.0003
  473W        W43390  20.900   3.098  16.914 -0.0184  0.2540 -0.0352
  474W        W43391  21.522   4.183  17.409 -0.2142  0.1066 -0.4271
  475W        W43392  25.344   6.531  16.836  0.0406 -0.0749 -0.0764
  476W        W43393  23.056   6.453  17.898 -0.1839 -0.2646 -0.0449
  477W        W43394  23.049   5.148  17.160  0.2216 -0.0379  0.4619
  478W        W43395  22.384   4.148  18.402 -0.1680 -0.3213 -0.3972
  479W        W43396  22.432   7.262  17.771 -0.1941  0.0911 -0.2156
  480W        W43397  23.123   5.803  20.838  0.2466 -0.0820 -0.0666
  481W        W43398  23.707   2.362  22.618 -0.1824  0.2061 -0.2615
  482W        W43399  22.201   3.999  15.855 -0.2169 -0.0292  0.0998
  483W        W43400  22.707   5.074  19.710  0.0941  0.1064  0.2873
  484W        W43401  24.114   9.944  17.150  0.1227  0.2671  0.0553
  485W        W43402  23.681   8.091  17.135 -0.1152  0.5247  0.2540
  486W        W43403  22.712   5.330  21.112 -0.2560 -0.1375  0.1719
  487W        W43404  22.376   6.271  20.952  0.3197 -0.0180  0.0439
  488W        W43405  22.498   2.602  19.186  0.1097 -0.0146  0.1700
  489W        W43406  25.436   4.023  17.177  0.1169  0.4393 -0.0699
  490W        W43407  21.790   4.383  20.993 -0.1536  0.0793  0.0175
  491W        W43408  25.760   5.800  16.785 -0.0256  0.2235 -0.0235
  492W        W43409  24.478   5.957  17.797 -0.0964 -0.0486 -0.0226
  493W        W43410  24.189   5.099  18.610 -0.1945  0.3696 -0.1768
  494W        W43411  22.124   4.344  20.501 -0.4758 -0.2356 -0.2124
  495W        W43412  21.966   6.118  19.472 -0.0265 -0.0850 -0.0871
  496W        W43413  25.665   5.827  21.833 -0.2770  0.0466 -0.0573
  497W        W43414  21.372   4.694  18.779 -0.2488  0.1019 -0.1914
  498W        W43415  25.201   4.230  17.564  0.0424 -0.0168  0.1964
  499W        W43416  25.779   6.928  19.370  0.0328 -0.0562  0.2685
  500W        W43417  21.609   5.393  18.903 -0.1545  0.0116 -0.0465
  501W        W43418  24.340   7.265  18.473 -0.2587  0.0020 -0.1045
  502W        W43419  23.066   4.746  19.924 -0.0841 -0.2739  0.0738
  503W        W43420  23.077   5.893  17.967  0.2471 -0.0286 -0.0876
  504W        W43421  22.061   5.022  18.774 -0.0644  0.2972 -0.1206
  505W        W43422  22.658   6.125  18.307 -0.0425 -0.3792  0.1495
  506W        W43423  26.298   5.039  16.947  0.1317 -0.1189 -0.2592
  507W        W43424  21.049   7.532  22.637  0.4686 -0.0590 -0.2205
  508W        W43425  23.865   8.505  20.516  0.1808 -0.1227  0.0662
  509W        W43426  23.679   7.200  19.513 -0.1639  0.1586  0.0894
  510W        W43427  23.994   6.179  17.089  0.1777  0.1168  0.0539
  511W        W43428  21.072   4.948  20.381 -0.0687  0.4355 -0.1575
  512W        W43429  21.680   4.830  17.954 -0.1799  0.1537 -0.2896
  513W        W43430  22.775   6.967  17.982  0.0523  0.1995 -0.0911
  514W        W43431  25.278   4.811  18.368  0.0338 -0.1858 -0.1779
  515W        W43432  22.428   6.318  18.783  0.1963  0.2062  0.2882
  516W        W43433  23.596   3.487  17.515  0.1256 -0.1305  0.2635
  517W        W43434  23.660   9.161  21.345  0.0680  0.1468 -0.4222
  518W        W43435  23.957   4.874  19.970 -0.1070 -0.1566  0.2880
  519W        W43436  23.597   6.046  23.082 -0.1657 -0.1474 -0.1208
  520W        W43437  22.931   5.464  22.559 -0.0207  0.1450 -0.1753
  521W        W43438  23.917   4.249  20.644  0.2411  0.0849 -0.1298
  522W        W43439  24.378   4.858  21.347 -0.3257 -0.1618 -0.1355
  523W        W43440  23.707   4.721  23.733 -0.0245  0.0100  0.1200
  524W        W43441  23.999   8.008  19.248 -0.1210  0.0568  0.1380
  525W        W43442  23.984   2.803  25.054  0.0823  0.0860 -0.3340
  526W        W43443  23.207   5.748  21.787 -0.1126  0.0199  0.0112
  527W        W43444  24.599   6.537  25.559  0.0392  0.1182  0.3849
  528W        W43445  24.099   5.384  21.196  0.1377  0.3670  0.3172
  529W        W43446  21.662   5.223  23.699  0.5108  0.1527 -0.3171
  530W        W43447  22.293   7.641  23.591 -0.0956  0.0307  0.0125
  531W        W43448  23.566   2.051  22.268 -0.0651  0.1571  0.1200
  532W        W43449  20.390   3.900  21.471  0.0273  0.2388 -0.1590
  533W        W43450  22.741   4.920  23.617 -0.2340 -0.1962  0.1040
  534W        W43451  21.925   5.419  21.570 -0.0007  0.1469 -0.0083
  535W        W43452  21.920   5.263  22.170 -0.4544 -0.1530  0.0062
  536W        W43453  22.573   6.643  20.580 -0.1126  0.3880  0.2439
  537W        W43454  22.456   5.511  19.643 -0.1789 -0.0033  0.2480
  538W        W43455  23.375   5.432  24.791 -0.1799  0.3534  0.0640
  539W        W43456  25.788   4.730  24.378  0.1595  0.3488 -0.0006
  540W        W43457  22.042   6.946  22.180 -0.1884  0.2345  0.3265
  541W        W43458  22.105   5.830  19.851 -0.1702 -0.0322  0.2369
  542W        W43459  19.776   3.740  21.393 -0.1150 -0.0910  0.0630
  543W        W43460  23.688   5.206  22.965  0.0026 -0.1028  0.1643
  544W        W43461  25.959   5.642  24.075  0.0055  0.0781 -0.0175
  545W        W43462  23.127   5.877  22.809 -0.0034  0.0058  0.0251
  546W        W43463  22.810   5.737  22.142 -0.2605  0.0978  0.0900
  547W        W43464  22.272   6.820  23.419  0.0076 -0.2618  0.1412
  548W        W43465  24.706   5.924  24.555  0.2151  0.1900  0.3126
  549W        W43466  22.946   6.212  21.134 -0.2207  0.0642  0.2883
  550W        W43467  22.716   6.390  22.617  0.1779  0.1158 -0.3346
  551W        W43468  20.949   6.335  22.049 -0.1347  0.1341  0.0444
  552W        W43469  24.226   5.721  19.438 -0.1656 -0.1062 -0.1635
  553W        W43470  22.378   5.966  24.123 -0.1424  0.2197  0.0426
  554W        W43471  22.365   8.391  24.990 -0.2305 -0.0837 -0.0877
  555W        W43472  21.449   8.243  20.285 -0.2327  0.0430 -0.1039
  556W        W43473  24.009   5.224  23.560 -0.0220  0.3563 -0.3860
  557W        W43474  20.734   6.537  23.271  0.1565  0.4010 -0.0469
  558W        W43475  25.422   7.861  22.008 -0.0172  0.3821  0.0172
  559W        W43476  25.963   6.093  21.416 -0.1109  0.1896  0.1987
  560W        W43477  23.337   7.488  20.848 -0.1431  0.0132  0.0642
  561W        W43478  24.807   4.725  19.846 -0.1775 -0.2416 -0.3232
  562W        W43479  22.415   6.699  23.926  0.0248  0.2234  0.0022
  563W        W43480  22.148   6.418  20.427  0.1329  0.0694  0.0212
  564W        W43481  22.913   5.059  23.195 -0.1253  0.0600  0.2507
  565W        W43482  23.957   5.068  20.861  0.0691  0.0749  0.1258
  566W        W43483  24.833   3.079  20.623  0.0089 -0.2025 -0.1275
  567W        W43484  24.025   2.284  20.773  0.1089 -0.2982  0.0679
  568W        W43485  23.129   4.421  22.070  0.0714  0.2933  0.1471
  569W        W43486  23.043   3.942  21.802  0.2088  0.1686  0.0792
  570W        W43487  22.438   8.112  22.456 -0.2286 -0.0523  0.4509
  571W        W43488  23.307   3.595  24.726 -0.0669  0.1079  0.1306
  572W        W43489  25.353   7.379  23.689  0.0614 -0.0449  0.1381
  573W        W43490  23.730   5.580  20.294  0.1125  0.2165 -0.0081
  574W        W43491  23.315   5.835  22.279  0.1588  0.2857  0.2132
  575W        W43492  23.110   8.351  21.293 -0.1744  0.4789 -0.1021
  576W        W43493  22.640   6.680  21.621  0.1116 -0.2111  0.2330
  577W        W43494  25.910   7.360  20.037 -0.0001  0.0065  0.0656
  578W        W43495  27.862   8.048  21.832  0.2011 -0.1052  0.0625
  579W        W43496  24.356   7.670  20.958 -0.0691 -0.1219  0.1053
  580W        W43497  23.009   6.197  22.246 -0.1901 -0.0475 -0.1420
  581W        W43498  21.814   6.197  22.779  0.1451 -0.1826  0.0515
  582W        W43499  23.345   4.340  24.622  0.1919 -0.0100 -0.1785
  583W        W43500  23.567   3.015  19.369  0.1668  0.0464  0.1335
  584W        W43501  25.490   6.407  24.225 -0.2138  0.2865  0.2135
  585W        W43502  20.778   7.282  22.141  0.0595  0.2736  0.4403
  586W        W43503  26.182   3.001  20.605 -0.1205 -0.0033 -0.0349
  587W        W43504  23.814   5.828  21.389  0.0789  0.3116  0.3492
  588W        W43505  25.005   6.319  22.260 -0.1268 -0.0812  0.4342
  589W        W43506  25.611   6.318  21.141  0.2168 -0.1898  0.0188
  590W        W43507  25.217   3.706  21.435 -0.1991  0.1225 -0.0705
  591W        W43508  24.480   4.855  25.239  0.1150 -0.0522  0.2278
  592W        W43509  21.297   3.619  19.404 -0.0676  0.4458  0.3089
  593W        W43510  23.592   4.670  22.243 -0.2051  0.0503  0.1122
  594W        W43511  24.497   5.327  23.210  0.2145 -0.3970  0.3203
  595W        W43512  24.981   5.337  19.692  0.1550  0.1345  0.2159
  596W        W43513  22.810   7.625  20.959  0.0960 -0.0080  0.1830
  597W        W43514  22.981   4.002  22.292 -0.0440  0.0014 -0.0574
  598W        W43515  21.245   5.540  24.261  0.1472 -0.1487  0.2925
  599W        W43516  21.966   7.984  20.312  0.5047 -0.3151  0.0197
  600W        W43517  19.203   5.303  20.805  0.0270  0.0579 -0.3278
  601W        W43518  21.020   4.926  20.929 -0.0021 -0.2036 -0.1551
  602W        W43519  21.550   2.185  24.532 -0.2668 -0.0086 -0.2346
  603W        W43520  22.057   7.228  24.604 -0.0779 -0.0400  0.2437
  604W        W43521  23.222   3.013  18.109  0.0100  0.1780  0.2691
  605W        W43522  22.435   3.204  23.306 -0.3534  0.1897 -0.1473
  606W        W43523  24.204   4.335  22.261 -0.0906 -0.0365  0.1512
  607W        W43524  23.603   5.572  23.288  0.2338  0.0683  0.2397
  608W        W43525  25.362   6.877  20.127 -0.0661 -0.0837  0.2281
  609W        W43526  24.279   5.238  21.691 -0.1514 -0.0731  0.0874
  610W        W43527  22.552   4.838  20.872 -0.0145  0.0141  0.2281
  611W        W43528  21.308   5.735  23.343  0.1621  0.1394 -0.0972
  612W        W43529  23.238   3.621  21.460 -0.0998  0.4996 -0.2976
  613W        W43530  22.014   3.787  24.667 -0.0105 -0.0772 -0.0855
  614W        W43531  19.748   3.004  22.708  0.1423  0.3103  0.0771
  615W        W43532  25.070   5.535  23.353  0.0845  0.3246  0.3163
  616W        W43533  21.436   3.078  20.317  0.0216 -0.2464 -0.2743
  617W        W43534  24.738   5.266  23.660 -0.1265 -0.1798 -0.3575
  618W        W43535  23.560   5.138  21.268  0.1829  0.1160  0.0398
  619W        W43536  21.591   7.111  21.575 -0.3556 -0.0950 -0.2004
  620W        W43537  25.998   2.869  23.401  0.2311 -0.4599 -0.0514
  621W        W43538  23.596   7.565  21.745 -0.0458  0.1256 -0.2730
  622W        W43539  22.807   6.702  23.510 -0.2394  0.3284  0.1860
  623W        W43540  24.965   8.577  20.388  0.1992 -0.0458 -0.0373
  624W        W43541  22.554   5.340  23.497  0.3264 -0.3039 -0.1461
  625W        W43542  21.958   4.895  21.346  0.2186 -0.0230  0.1638
  626W        W43543  22.418  10.089  22.346 -0.0955  0.4272 -0.1203
  627W        W43544  21.083   6.958  22.511  0.0780 -0.0280 -0.2722
  628W        W43545  22.158   3.728  20.388  0.2524  0.4223 -0.1785
  629W        W43546  21.544   8.243  24.719 -0.4034  0.0133  0.4140
  630W        W43547  23.186   5.598  21.293  0.0881  0.0021  0.2237
  631W        W43548  20.323   5.803  22.400 -0.0087 -0.2197 -0.1617
  632W        W43549  25.417   3.584  23.599  0.0206  0.2494  0.1548
  633W        W43550  26.887   6.061  23.658 -0.1393  0.2172  0.0525
  634W        W43551  24.435   3.987  22.654  0.0301 -0.1007 -0.1858
  635W        W43552  20.340   5.032  19.388  0.0836  0.2035 -0.1301
  636W        W43553  22.161   6.950  25.015  0.0230  0.0131  0.1080
  637W        W43554  23.248   7.528  21.357  0.0467 -0.1824  0.1428
  638W        W43555  21.070   5.977  21.677  0.1155  0.1227  0.2986
  639W        W43556  23.020   4.881  21.268  0.1473  0.0872  0.2877
  640W        W43557  26.881   4.138  25.081  0.0556 -0.3433 -0.1061
  641W        W43558  20.847   4.963  22.819  0.1549 -0.1883  0.1522
  642W        W43559  23.378   3.403  22.602  0.0988 -0.2217 -0.2691
  643W        W43560  20.961   5.001  21.439  0.0244 -0.0992 -0.2596
  644W        W43561  20.850   6.220  23.608 -0.0501 -0.0012 -0.3887
  645W        W43562  23.511   2.040  21.439 -0.1198  0.0513  0.2745
  646W        W43563  23.793   4.311  19.680 -0.1062 -0.1259  0.0257
  647W        W43564  22.582   7.167  23.699  0.0833 -0.1827 -0.1720
  648W        W43565  25.672   4.395  22.652  0.1508  0.1071 -0.1857
  649W        W43566  24.006   4.289  22.735 -0.0886 -0.0145 -0.0505
  650W        W43567  23.481   5.653  19.766 -0.1285 -0.1367  0.2893
  651W        W43568  22.294   5.907  23.538  0.0615  0.1159  0.4032
  652W        W43569  24.097   6.047  22.087  0.0976  0.0843  0.0879
  653W        W43570  23.907   7.378  22.081 -0.0032  0.3176  0.2057
  654W        W43571  22.128   5.758  20.946 -0.1291  0.0622  0.1348
  655W        W43572  24.737   5.638  20.854 -0.2564  0.0084 -0.0106
  656W        W43573  21.289   5.777  22.078 -0.0588  0.1590 -0.0098
  657W        W43574  23.032   4.344  24.190 -0.1050 -0.0829 -0.2160
  658W        W43575  22.808   6.805  22.872  0.1433  0.3495 -0.0701
  659W        W43576  22.938   3.299  24.564  0.2969 -0.2344  0.0440
  660W        W43577  23.577   5.155  20.532 -0.1938 -0.0645 -0.0641
  661W        W43578  22.039   4.206  23.379  0.0739  0.2637 -0.0017
  662W        W43579  23.723   7.896  20.117 -0.0142 -0.0915  0.2443
  663W        W43580  25.947   4.152  22.332  0.0643  0.0179 -0.0154
  664W        W43581  24.876   4.772  23.679 -0.0010 -0.0777  0.2575
  665W        W43582  24.922   3.868  23.902  0.1129 -0.2399 -0.1205
  666W        W43583  25.899   5.454  23.529 -0.2176 -0.1226 -0.3331
  667W        W43584  25.134   5.377  20.966 -0.0408  0.2305  0.0603
  668W        W43585  23.298   2.959  22.838 -0.1179 -0.3844  0.1700
  669W        W43586  22.495   5.310  21.583 -0.1774 -0.1283  0.1407
  670W        W43587  23.766   3.341  22.900  0.0653 -0.1542 -0.1784
  671W        W43588  19.945   4.682  22.224  0.0400 -0.0045 -0.3270
  672W        W43589  21.499   7.691  23.093  0.1170 -0.1119 -0.0769
  673W        W43590  25.271   5.935  21.117  0.0384 -0.0881 -0.0750
  674W        W43591  25.303   3.750  22.166  0.1007  0.0642  0.0313
  675W        W43592  24.166   4.533  24.345  0.0783  0.0927  0.1444
  676W        W43593  22.012   3.130  21.222 -0.1526  0.1599  0.3729
  677W        W43594  21.188   6.610  21.609  0.0824 -0.1789  0.1890
  678W        W43595  20.501   5.986  21.999  0.0170  0.3099  0.1529
  679W        W43596  21.651   2.034  23.733 -0.2296  0.0168 -0.4650
  680W        W43597  22.053   6.101  24.838  0.0737 -0.2018  0.0453
  681W        W43598  23.515   6.452  22.273  0.0601 -0.1851 -0.1240
  682W        W43599  24.972   7.062  24.656 -0.0302 -0.0977  0.0349
  683W        W43600  23.966   6.636  22.168  0.1010  0.3642  0.0644
  684W        W43601  26.813   4.550  22.178  0.0411 -0.0150 -0.3037
  685W        W43602  23.081   6.761  22.434  0.0885  0.4296  0.1400
  686W        W43603  23.416   2.572  22.262  0.0007  0.0323 -0.1308
  687W        W43604  21.246   6.945  20.986  0.4255 -0.0805 -0.3469
  688W        W43605  24.550   4.795  23.303 -0.0878  0.1763 -0.0145
  689W        W43606  23.977   3.739  20.807 -0.0615  0.0042  0.3453
  690W        W43607  21.498   2.681  24.405 -0.0033  0.0811  0.0523
  691W        W43608  24.457   3.856  22.048 -0.1860  0.0135 -0.3750
  692W        W43609  21.167   7.381  23.653  0.3184  0.0086  0.0956
  693W        W43610  22.815   6.365  23.164 -0.0007 -0.0450  0.1045
  694W        W43611  25.113   4.311  21.348  0.2582 -0.1462 -0.1984
  695W        W43612  22.178   6.211  21.859 -0.2201  0.2151 -0.1634
  696W        W43613  23.870   8.087  22.885 -0.3510  0.0939  0.2193
  697W        W43614  22.085   4.099  21.397 -0.0420 -0.1230 -0.0641
  698W        W43615  23.678   5.807  25.028  0.0044 -0.1283  0.1216
  699W        W43616  23.018   6.670  21.350  0.2395  0.0232  0.2061
  700W        W43617  21.110   7.143  21.458 -0.2177 -0.1230  0.0252
  701W        W43618  24.867   7.583  22.015 -0.2111  0.2756  0.1776
  702W        W43619  23.359   6.072  21.469  0.2403  0.1387  0.1218
  703W        W43620  20.770   4.966  22.171 -0.0229 -0.4612  0.0194
  704W        W43621  20.421   4.902  24.725  0.0374  0.2074  0.0653
  705W        W43622  25.401   3.967  23.995  0.0293 -0.1045  0.1030
  706W        W43623  24.937   4.407  23.259  0.1693 -0.0229  0.3914
  707W        W43624  22.205   3.527  22.794 -0.1932 -0.0662 -0.1059
  708W        W43625  23.216   5.939  23.443  0.1337 -0.3573 -0.4326
  709W        W43626  22.858   3.546  22.480 -0.1806 -0.2731 -0.2728
  710W        W43627  23.798   5.487  23.930  0.0352 -0.1285 -0.1676
  711W        W43628  21.219   5.873  23.917  0.1356  0.0201 -0.0284
  712W        W43629  22.729   2.671  24.814  0.0088 -0.2610  0.1799
  713W        W43630  26.093   6.268  22.043 -0.1600  0.3772  0.0681
  714W        W43631  23.907   4.441  24.788 -0.0563  0.1980 -0.0063
  715W        W43632  21.863   5.053  20.288  0.0247  0.2193  0.0569
  716W        W43633  23.743   4.197  22.195 -0.1362  0.1017  0.0384
  717W        W43634  24.274   6.829  21.689 -0.0121 -0.1888  0.1113
  718W        W43635  24.630   4.198  23.587  0.1679 -0.2235 -0.2843
  719W        W43636  24.137   5.004  23.139  0.0521 -0.3013  0.3307
  720W        W43637  22.346   5.563  22.062  0.0197  0.0074  0.2344
  721W        W43638  20.374   6.843  23.008  0.0067  0.1483  0.0877
  722W        W43639  23.599   4.694  20.745  0.1101  0.2862  0.0580
  723W        W43640  24.449   5.988  20.639  0.0121  0.0545 -0.1302
  724W        W43641  24.642   5.284  21.298 -0.0379 -0.3810 -0.0601
  725W        W43642  24.178   3.534  22.739  0.0739  0.0993  0.1079
  726W        W43643  24.066   5.227  20.265 -0.0445 -0.0775  0.2647
  727W        W43644  24.721   4.874  25.715  0.1454 -0.0796  0.1893
  728W        W43645  22.629   0.679  21.878 -0.0783  0.0693 -0.0959
  729W        W43646  25.611   4.705  23.902  0.1965  0.4391  0.0013
  730W        W43647  20.600   4.667  24.252  0.0271 -0.1387 -0.2687
  731W        W43648  22.858   8.879  25.546 -0.1629  0.2228  0.1751
  732W        W43649  21.608   4.849  21.727  0.3203 -0.0405  0.0160
  733W        W43650  24.734   2.041  20.612 -0.3485  0.1325 -0.0305
  734W        W43651  24.549   3.010  21.124  0.1517 -0.0720  0.0729
  735W        W43652  24.150   4.531  23.241  0.0451  0.1113  0.1171
  736W        W43653  24.506   6.642  21.271 -0.1965  0.0853 -0.0597
  737W        W43654  24.421   4.874  20.158 -0.2572 -0.1358 -0.3099
  738W        W43655  25.239   5.098  23.872  0.1837 -0.0022  0.3198
  739W        W43656  21.737   6.254  20.887 -0.1220 -0.0155  0.0089
  740W        W43657  24.556   4.423  22.913  0.2836  0.0282 -0.0494
  741W        W43658  23.429   6.037  20.525 -0.0521 -0.2717 -0.0417
  742W        W43659  22.660   5.807  21.041 -0.2635 -0.2024 -0.1189
  743W        W43660  24.110   4.795  22.096  0.3554 -0.0097 -0.1620
  744W        W43661  22.574   6.491  22.075  0.0685 -0.0918 -0.1869
  745W        W43662  24.879   2.978  23.349 -0.0102 -0.1916 -0.2320
  746W        W43663  23.697   6.042  22.471 -0.1026  0.3012  0.3618
  747W        W43664  25.702   6.147  23.406 -0.2067  0.0024  0.0187
  748W        W43665  23.733   4.189  23.538  0.1594  0.0966 -0.0168
  749W        W43666  23.225   3.115  21.672  0.0290  0.3712  0.0668
  750W        W43667  22.418   6.866  22.473  0.1502 -0.2184  0.0128
  751W        W43668  25.139   4.962  19.344 -0.1232  0.0927  0.0211
  752W        W43669  26.863   5.380  23.645  0.0849  0.2852  0.0881
  753W        W43670  23.500   3.799  22.355 -0.1935  0.0157 -0.2164
  754W        W43671  22.944   3.407  19.199  0.0729 -0.1316 -0.2570
  755W        W43672  23.092   4.384  23.007  0.0078  0.2188 -0.0689
  756W        W43673  25.646   6.041  23.929  0.1497 -0.1627 -0.1012
  757W        W43674  22.996   5.256  21.642 -0.0096  0.2670 -0.2496
  758W        W43675  24.409   6.203  23.617 -0.3429  0.1249  0.0832
  759W        W43676  25.330   8.629  20.817 -0.1788 -0.0375  0.1401
  760W        W43677  24.129   5.184  22.554  0.1468  0.0618 -0.0239
  761W        W43678  25.923   3.662  22.194 -0.0715 -0.2520  0.1781
  762W        W43679  22.598   5.517  22.977  0.2230 -0.0730 -0.0132
  763W        W43680  21.851   6.575  24.781 -0.3889 -0.0554  0.2060
  764W        W43681  22.252   4.482  21.117 -0.0793 -0.1660 -0.0503
  765W        W43682  23.779   5.174  22.102 -0.2393 -0.0230  0.1880
  766W        W43683  22.735   5.722  21.607 -0.1334  0.1589  0.1191
  767W        W43684  26.345   6.116  24.038 -0.1271  0.0560 -0.0374
  768W        W43685  22.838   3.004  22.585  0.0271  0.0525 -0.1629
  769W        W43686  23.805   4.925  24.606 -0.1516 -0.0237  0.0092
  770W        W43687  21.092   4.593  22.448  0.0922 -0.2364 -0.0231
  771W        W43688  24.852   3.414  21.032  0.2180 -0.0482  0.0066
  772W        W43689  23.012   7.506  23.618  0.1718 -0.0853  0.1079
  773W        W43690  21.980   4.755  22.196 -0.1894 -0.1681  0.3649
  774W        W43691  20.774   6.539  22.730 -0.1564 -0.0893  0.0015
  775W        W43692  24.019   5.004  24.111 -0.0661 -0.0149 -0.0025
  776W        W43693  27.247   4.794  23.879  0.0047 -0.1281 -0.1524
  777W        W43694  22.678   5.879  22.646 -0.0686 -0.0701 -0.1298
  778W        W43695  26.235   5.593  22.527 -0.0592  0.0957  0.0684
  779W        W43696  25.334   5.826  22.333 -0.0133 -0.4873  0.2772
  780W        W43697  23.190   5.353  22.956 -0.0530 -0.0492 -0.1033
  781W        W43698  24.935   5.934  22.664 -0.0108  0.1440 -0.0514
  782W        W43699  24.368   5.614  22.077  0.0237 -0.0064 -0.0207
  783W        W43700  22.367   7.149  22.922  0.3859  0.0983 -0.0807
  784W        W43701  20.807   5.053  24.063  0.1343 -0.1188 -0.2351
  785W        W43702  23.543   5.134  24.217 -0.0889  0.1074  0.0249
  786W        W43703  26.367   5.234  23.875 -0.3327  0.4265 -0.0229
  787W        W43704  21.258   1.450  21.107  0.0899  0.2478 -0.2643
  788W        W43705  21.393   6.753  22.900 -0.0601  0.4363 -0.0633
  789W        W43706  21.317   6.916  23.910 -0.0475  0.0887 -0.2956
  790W        W43707  23.180   5.422  22.105 -0.5053 -0.2103  0.0162
  791W        W43708  20.865   7.936  22.355  0.0884  0.1958  0.3459
  792W        W43709  22.920   6.222  21.741  0.0543 -0.2280 -0.2628
  793W        W43710  24.793   4.730  22.426  0.0670  0.0823 -0.1139
  794W        W43711  25.430   6.806  25.577 -0.2175  0.0295  0.0058
  795W        W43712  23.056   3.860  21.092 -0.2749  0.1484 -0.0553
  796W        W43713  24.158   9.375  20.155 -0.0278  0.5870 -0.4368
  797W        W43714  20.906   6.638  21.180 -0.2391 -0.1559  0.1054
  798W        W43715  23.487   4.818  19.686  0.0935  0.0130  0.2041
  799W        W43716  21.433   5.262  21.370  0.0234 -0.1048  0.0441
  800W        W43717  26.318   6.455  23.548  0.3012  0.0773  0.0783
  801W        W43718  23.735   3.954  20.204  0.1667  0.0110  0.0077
  802W        W43719  27.315   4.985  22.872  0.0696 -0.1045  0.0157
  803W        W43720  24.814   4.016  20.894  0.2403 -0.0875  0.0537
  804W        W43721  24.019   6.279  23.319  0.0224  0.0234 -0.1731
  805W        W43722  23.395   4.856  21.778  0.0270 -0.2808 -0.0326
  806W        W43723  23.396   4.103  21.394  0.0196  0.0409 -0.1604
  807W        W43724  21.068   4.649  24.613 -0.1758  0.0719 -0.1780
  808W        W43725  25.487   5.541  24.048  0.2378 -0.0748  0.1323
  809W        W43726  21.212   6.704  23.426 -0.2126 -0.0351  0.2071
  810W        W43727  25.324   6.679  20.683 -0.1712  0.0595  0.4362
  811W        W43728  23.670   3.896  22.851  0.0312 -0.4221 -0.2280
  812W        W43729  23.887   3.605  21.477 -0.1775 -0.2003  0.0001
  813W        W43730  24.073   2.988  22.081  0.3805 -0.0034  0.2314
  814W        W43731  24.078   6.960  19.810 -0.0504  0.3755 -0.2215
  815W        W43732  24.904   5.464  22.857 -0.0062 -0.0799  0.0264
  816W        W43733  23.829   8.032  21.925 -0.3037  0.0348 -0.0977
  817W        W43734  22.028   8.021  20.912  0.0606  0.2986 -0.2437
  818W        W43735  21.995   7.423  25.049 -0.2550  0.1240 -0.0621
  819W        W43736  22.720   3.265  23.693  0.2752 -0.1549  0.0377
  820W        W43737  27.226   6.084  23.291  0.0014 -0.3515  0.1399
  821W        W43738  23.768   6.484  24.316 -0.2187  0.3620  0.0226
  822W        W43739  24.895   6.108  23.667  0.1378 -0.0655 -0.2092
  823W        W43740  21.608   5.719  21.130 -0.1600  0.1659 -0.1446
  824W        W43741  25.148   3.467  20.644 -0.0355 -0.1478 -0.0905
  825W        W43742  24.641   3.485  22.968 -0.0929  0.0393  0.0907
  826W        W43743  23.612   4.642  24.197  0.2553 -0.1575 -0.2913
  827W        W43744  23.646   4.417  21.759  0.0559  0.2899  0.2316
  828W        W43745  24.565   5.724  23.620  0.0993 -0.3051 -0.0132
  829W        W43746  23.193   5.200  19.569  0.0019 -0.0901 -0.2910
  830W        W43747  24.475   7.763  21.462  0.3948  0.0480  0.1230
  831W        W43748  22.762   2.567  22.205  0.2039  0.1655  0.1378
  832W        W43749  22.699   3.938  22.822  0.0951  0.0758  0.5583
  833W        W43750  24.893   5.712  21.430  0.1992 -0.2209 -0.0752
  834W        W43751  24.036   4.067  23.164  0.0219  0.0060 -0.0091
  835W        W43752  26.029   7.173  23.036  0.1524 -0.4223  0.1607
  836W        W43753  21.104   5.284  22.355  0.0023 -0.0544 -0.0432
  837W        W43754  24.035   6.889  20.365 -0.0483 -0.0947 -0.0240
  838W        W43755  26.856   3.804  22.879  0.2350  0.1000 -0.0010
  839W        W43756  25.401   6.540  21.614  0.2871  0.0786  0.1187
  840W        W43757  22.942   3.083  23.156  0.0980  0.2438 -0.0062
  841W        W43758  25.557   5.891  24.400  0.0470  0.2884  0.0394
  842W        W43759  21.164   4.988  21.912  0.2034 -0.2525 -0.1484
  843W        W43760  25.460   8.596  23.121 -0.3273  0.0272 -0.1622
  844W        W43761  26.096   7.831  23.170  0.1852 -0.1888  0.2511
  845W        W43762  25.306   3.131  20.284  0.2666  0.1021 -0.2944
  846W        W43763  24.536   5.814  22.974  0.3399  0.2567 -0.1858
  847W        W43764  24.045   6.518  23.894  0.0369 -0.0059  0.0739
  848W        W43765  25.495   3.434  24.755 -0.0917 -0.3376  0.1308
  849W        W43766  24.666   4.949  22.865  0.2410 -0.0432 -0.0305
  850W        W43767  23.640   5.529  20.901  0.1789  0.0534 -0.2516
  851W        W43768  25.061   1.099  23.185 -0.1793 -0.1047  0.0719
  852W        W43769  24.292   6.561  22.586  0.0796 -0.0678 -0.1612
  853W        W43770  22.920   7.498  24.591  0.1947  0.0770 -0.1281
  854W        W43771  20.906   4.538  20.109  0.0576  0.1923 -0.0207
  855W        W43772  23.450   7.105  22.663  0.2044 -0.0786 -0.0825
  856W        W43773  22.292   5.494  23.904 -0.0921 -0.2629 -0.1652
  857W        W43774  23.910   6.838  21.253 -0.0877 -0.0748  0.0256
  858W        W43775  25.334   6.757  22.062  0.2753  0.4167  0.0958
  859W        W43776  24.473   4.343  21.275  0.4891 -0.0644  0.0666
  860W        W43777  24.563   6.440  20.826  0.4955  0.2958  0.2720
  861W        W43778  22.403   2.530  24.327 -0.4797  0.1563 -0.1979
  862W        W43779  23.420   5.226  22.487 -0.1762  0.1760 -0.4803
  863W        W43780  22.904   4.216  19.640 -0.0546 -0.1025 -0.1198
  864W        W43781  22.773   5.713  23.846  0.2112 -0.1326  0.2123
  865W        W43782  23.134   4.479  21.559 -0.0099 -0.1577 -0.1868
  866W        W43783  23.372   6.945  20.442  0.0026  0.2154 -0.1871
  867W        W43784  20.420   6.494  21.915 -0.2430  0.2017  0.0860
  868W        W43785  23.536   3.135  23.278 -0.0424  0.0328 -0.2020
  869W        W43786  21.700   6.624  22.486 -0.1444 -0.2290  0.3125
  870W        W43787  22.005   4.916  20.843  0.0967 -0.0285  0.0552
  871W        W43788  23.122   2.635  21.847  0.0765 -0.2899 -0.5706
  872W        W43789  24.405   5.296  19.857 -0.0045 -0.1789 -0.2864
  873W        W43790  22.038   4.581  23.068  0.0741 -0.0229  0.0049
  874W        W43791  22.205   3.555  23.557 -0.0923  0.1421 -0.0164
  875W        W43792  24.469   5.511  22.572  0.0914  0.0895  0.1374
  876W        W43793  24.813   8.516  20.847  0.0321 -0.0220 -0.2069
  877W        W43794  25.396   3.072  23.462 -0.2308  0.0612 -0.0969
  878W        W43795  26.338   5.534  23.016 -0.0500  0.1032 -0.2700
  879W        W43796  21.901   7.409  21.418 -0.2037 -0.1317  0.1633
  880W        W43797  21.820   4.662  25.115 -0.0101  0.3067  0.3634
  881W        W43798  24.358   5.393  25.023  0.0336  0.0742  0.2060
  882W        W43799  22.033   3.379  22.213 -0.3015 -0.3153  0.2103
  883W        W43800  22.382   4.671  23.426  0.0350 -0.2797  0.0516
  884W        W43801  23.900   6.546  20.782  0.2171 -0.1197 -0.0396
  885W        W43802  24.899   8.183  18.120 -0.0118  0.0957  0.0607
  886W        W43803  23.546   6.383  23.477 -0.0426 -0.1613 -0.2016
  887W        W43804  22.576   7.468  22.140 -0.2301 -0.2502  0.2113
  888W        W43805  21.748   3.828  22.384  0.1019  0.2542 -0.1351
  889W        W43806  23.886   4.201  21.272 -0.1486 -0.3581 -0.2171
  890W        W43807  25.056   6.540  25.320 -0.1248 -0.0009  0.2948
  891W        W43808  23.818   4.711  22.673 -0.1771 -0.1703  0.3562
  892W        W43809  25.154   2.444  24.194 -0.1135 -0.1797  0.0193
  893W        W43810  24.255   4.477  21.683  0.2050 -0.2256 -0.2102
  894W        W43811  21.326   2.525  23.019 -0.0352 -0.1064  0.2670
  895W        W43812  23.681   4.793  23.260  0.0424  0.1919  0.2593
  896W        W43813  24.944   5.620  23.913  0.1201  0.2207  0.1740
  897W        W43814  21.492   2.971  23.827 -0.1886 -0.2137  0.1217
  898W        W43815  23.180   3.033  22.216 -0.0116 -0.2064  0.0491
  899W        W43816  24.273   5.786  21.078 -0.1075  0.0014 -0.0628
  900W        W43817  19.668   5.487  21.079  0.0091 -0.0250  0.0983
  901W        W43818  23.300   4.062  23.337 -0.1823  0.1621 -0.2564
  902W        W43819  23.380   4.267  22.573 -0.1791  0.0053 -0.1713
  903W        W43820  25.708   8.363  22.073 -0.0079 -0.2240  0.0390
  904W        W43821  24.179   6.237  25.930  0.0611  0.3081 -0.2234
  905W        W43822  23.139   5.248  20.761 -0.1761  0.1023  0.0684
  906W        W43823  23.580   4.615  21.288 -0.1434 -0.3702  0.1773
  907W        W43824  24.183  10.201  24.812 -0.0862 -0.0768 -0.1591
  908W        W43825  24.634   6.082  25.331  0.2182 -0.0228 -0.1391
  909W        W43826  22.485   7.402  24.981 -0.2986  0.0784  0.1222
  910W        W43827  25.816   5.166  23.984  0.4229  0.1229 -0.1582
  911W        W43828  19.317   4.105  22.807 -0.1070  0.2844 -0.1345
  912W        W43829  21.582   3.452  20.773 -0.0039  0.0957  0.1771
  913W        W43830  21.885   4.510  18.685 -0.3779  0.2369 -0.0511
  914W        W43831  24.501   5.118  20.888  0.0930 -0.0352 -0.0541
  915W        W43832  23.688   5.613  24.434 -0.0219  0.6156 -0.3661
  916W        W43833  23.924   3.391  22.364 -0.0675 -0.0192  0.4795
  917W        W43834  23.323   4.780  22.787  0.0022 -0.1291 -0.2060
  918W        W43835  23.498   6.995  22.177 -0.0524 -0.0681 -0.2576
  919W        W43836  23.429   6.322  26.518  0.0361  0.1682  0.1947
  920W        W43837  20.683   5.059  23.467  0.2978  0.2510  0.0852
  921W        W43838  25.714   5.816  25.319 -0.1842 -0.0548  0.0450
  922W        W43839  23.740   4.465  25.739 -0.2542 -0.0884  0.3443
  923W        W43840  19.904   5.145  24.035 -0.0038  0.0227 -0.1003
  924W        W43841  21.762   6.562  25.732  0.1999 -0.1063 -0.0045
  925W        W43842  22.967   3.073  28.245  0.2301 -0.1286 -0.1508
  926W        W43843  23.422   6.012  26.051  0.0773 -0.1642 -0.1187
  927W        W43844  22.969   6.165  26.661 -0.0488  0.0489 -0.0281
  928W        W43845  23.412   5.430  25.365  0.0470  0.3634 -0.1245
  929W        W43846  22.650   6.533  25.826  0.1169  0.3315 -0.1797
  930W        W43847  22.458   5.880  26.544 -0.1722 -0.1006  0.0280
  931W        W43848  22.685   3.441  24.142  0.0539  0.0844  0.1779
  932W        W43849  22.221   2.967  27.086  0.0390  0.0126  0.0771
  933W        W43850  24.092   4.885  24.989 -0.1250 -0.1251 -0.0861
  934W        W43851  20.341   5.217  24.280  0.0753 -0.0458  0.0551
  935W        W43852  23.221   6.292  25.707 -0.0065 -0.4161 -0.0795
  936W        W43853  22.287   2.287  24.827  0.0010 -0.0587 -0.0290
  937W        W43854  22.609   6.991  25.224  0.0842  0.0523 -0.3118
  938W        W43855  24.096   3.229  26.357 -0.2647  0.2318  0.0698
  939W        W43856  24.290   4.693  27.597  0.0137 -0.0079 -0.2198
  940W        W43857  23.108   7.302  24.069 -0.0006 -0.1681  0.2010
  941W        W43858  21.525   4.776  23.921 -0.0594  0.0288  0.0700
  942W        W43859  21.824   4.127  25.080  0.0478 -0.1681  0.0528
  943W        W43860  24.024   5.739  25.810 -0.1671  0.0750 -0.1692
  944W        W43861  25.025   4.718  25.049 -0.2000  0.4619  0.0895
  945W        W43862  22.767   6.093  25.573  0.4066  0.0103 -0.0481
  946W        W43863  23.797   6.043  26.995  0.0574  0.0522  0.3182
  947W        W43864  20.733   7.723  24.946 -0.3037  0.0906  0.1609
  948W        W43865  23.381   5.147  27.255 -0.0258 -0.0911 -0.1035
  949W        W43866  19.698   3.891  24.869 -0.1596 -0.2276 -0.0783
  950W        W43867  20.829   6.478  27.267 -0.1936 -0.2064  0.1524
  951W        W43868  21.561   6.175  25.110  0.2912 -0.2467  0.2490
  952W        W43869  25.293   5.206  24.849 -0.0539 -0.1297 -0.0572
  953W        W43870  24.337   7.284  28.685  0.0463 -0.0571  0.3320
  954W        W43871  23.412   7.279  28.261 -0.2698 -0.2087  0.3134
  955W        W43872  19.576   8.135  24.382 -0.0474  0.0324  0.0676
  956W        W43873  23.036   7.572  27.968 -0.1906  0.2498  0.1387
  957W        W43874  21.419   4.747  26.544  0.2321 -0.0425  0.0567
  958W        W43875  21.634   5.960  25.688  0.3430  0.0680  0.0305
  959W        W43876  22.695   5.076  25.604 -0.1639 -0.3363 -0.2177
  960W        W43877  24.079   5.967  23.925  0.1998  0.0418 -0.3029
  961W        W43878  22.595   7.545  23.994  0.0113  0.1218 -0.1971
  962W        W43879  24.815   4.286  28.423  0.3305  0.1346  0.1068
  963W        W43880  21.138   4.371  26.368 -0.1596 -0.1463 -0.0593
  964W        W43881  25.786   3.167  27.711 -0.2260  0.1770 -0.3025
  965W        W43882  21.635   7.045  24.850  0.0340  0.2140 -0.0891
  966W        W43883  24.131   5.301  24.521  0.1536  0.3055  0.3979
  967W        W43884  24.598   3.675  23.488  0.1115  0.1536 -0.0918
  968W        W43885  24.132   4.059  24.561 -0.1813  0.5013 -0.0257
  969W        W43886  24.577   4.444  25.412  0.0782  0.2574 -0.0518
  970W        W43887  22.829   7.054  25.703  0.0667 -0.0458  0.1835
  971W        W43888  22.540   3.938  25.981 -0.1592 -0.0371  0.0891
  972W        W43889  23.411   5.834  26.726 -0.4118  0.1163  0.0044
  973W        W43890  24.525   5.630  25.512 -0.0591  0.1039  0.2855
  974W        W43891  23.195   5.962  25.096 -0.0661  0.0538  0.2687
  975W        W43892  23.381   8.530  27.178  0.2593 -0.0590 -0.2218
  976W        W43893  20.896   4.449  25.312  0.5110 -0.1717 -0.0830
  977W        W43894  25.729   7.099  25.846  0.1989 -0.2441 -0.0527
  978W        W43895  23.766   4.903  25.935  0.1027 -0.0572  0.0173
  979W        W43896  22.663   6.581  24.364 -0.1776 -0.2255 -0.1314
  980W        W43897  19.536   4.398  24.775 -0.1314 -0.1007  0.1777
  981W        W43898  23.043   5.416  28.771  0.3811 -0.2699 -0.1209
  982W        W43899  23.016   4.988  28.429 -0.3913 -0.1124  0.0957
  983W        W43900  21.524   4.160  24.620 -0.0041  0.3213  0.1184
  984W        W43901  24.335   6.223  26.696  0.1614  0.1246  0.1725
  985W        W43902  20.912   7.154  28.416  0.1427 -0.1269 -0.0228
  986W        W43903  24.749   5.156  26.659 -0.0740 -0.1093 -0.2371
  987W        W43904  22.475   6.886  26.611 -0.0315  0.1014 -0.0277
  988W        W43905  21.582   7.011  26.682  0.1280 -0.1841 -0.2006
  989W        W43906  22.453   4.556  24.334  0.0271  0.0362 -0.4013
  990W        W43907  24.361   2.875  26.063  0.0164 -0.1870  0.0816
  991W        W43908  24.793   3.214  26.805  0.0626  0.1320 -0.0452
  992W        W43909  23.184   4.734  23.865 -0.2271  0.3511 -0.0931
  993W        W43910  23.815   5.302  24.950 -0.1607 -0.0582 -0.1729
  994W        W43911  25.259   7.577  27.760  0.3144 -0.0831  0.1077
  995W        W43912  22.835   4.480  25.644  0.0208  0.1604 -0.4305
  996W        W43913  21.423   7.525  27.752  0.0071  0.0218  0.2105
  997W        W43914  25.181   3.786  26.680 -0.2887  0.1277  0.2857
  998W        W43915  24.183   8.082  29.098  0.1651 -0.0667  0.2496
  999W        W43916  22.725   6.536  25.336  0.0581  0.1116  0.0673
 1000W        W43917  20.076   2.912  24.402 -0.0782 -0.1210  0.0854
 1001W        W43918  23.065   5.440  23.498  0.2905  0.0872 -0.0492
 1002W        W43919  19.215   3.985  24.695 -0.1517 -0.2904 -0.1642
 1003W        W43920  22.189   7.855  26.694  0.0755  0.0705 -0.2002
 1004W        W43921  25.724   5.785  26.181 -0.1073 -0.0561  0.1518
 1005W        W43922  21.489   3.975  26.752 -0.1368  0.2505 -0.2853
 1006W        W43923  26.150   5.283  25.907  0.1374  0.0033  0.0043
 1007W        W43924  21.798   5.158  24.189 -0.2242 -0.0482  0.1159
 1008W        W43925  23.905   6.893  25.138  0.2267  0.1771  0.0468
 1009W        W43926  25.386   4.720  26.126 -0.1632 -0.2591  0.2126
 1010W        W43927  25.490   5.723  23.581 -0.2986  0.2185  0.2172
 1011W        W43928  21.251   5.076  27.640  0.0939 -0.0434 -0.0295
 1012W        W43929  22.944   3.054  26.824 -0.2138 -0.0612  0.2053
 1013W        W43930  20.722   5.655  27.100 -0.2678 -0.0307 -0.2454
 1014W        W43931  20.739   4.019  26.352  0.0136  0.0062 -0.1171
 1015W        W43932  26.600   5.337  25.791  0.2030 -0.2199 -0.0633
 1016W        W43933  22.328   4.822  26.439 -0.0057  0.1525  0.0629
 1017W        W43934  21.495   3.562  25.933  0.3700 -0.1177  0.4031
 1018W        W43935  22.008   5.938  25.304 -0.0197  0.1103 -0.1670
 1019W        W43936  20.860   6.429  24.586 -0.1533 -0.1030 -0.0045
 1020W        W43937  24.297   3.154  27.583 -0.0316  0.0475 -0.1129
 1021W        W43938  22.900   6.489  24.819  0.1068 -0.1569  0.4011
 1022W        W43939  25.117   6.979  26.229 -0.0914 -0.0838  0.2228
 1023W        W43940  25.087   7.941  24.458  0.0084 -0.0712 -0.0508
 1024W        W43941  23.491   4.789  27.840  0.0097 -0.4248 -0.2703
 1025W        W43942  22.479   6.007  25.141 -0.2826 -0.3482 -0.0382
 1026W        W43943  22.069   7.708  25.601  0.1935  0.3102  0.2654
 1027W        W43944  22.714   8.393  25.357  0.3108 -0.0459 -0.0565
 1028W        W43945  24.356   2.473  23.779 -0.1928  0.1850  0.1276
 1029W        W43946  24.451   6.999  26.495 -0.2039 -0.1206 -0.1685
 1030W        W43947  23.118   6.972  24.553  0.1269  0.1107  0.3074
 1031W        W43948  23.678   6.767  26.415  0.4560 -0.0802 -0.2355
 1032W        W43949  22.161   3.914  26.706  0.0156  0.5594 -0.2763
 1033W        W43950  23.045   4.263  27.109  0.0951  0.0960 -0.2968
 1034W        W43951  22.777   6.923  26.217  0.3048 -0.1980  0.0047
 1035W        W43952  22.897   4.207  23.593 -0.4462  0.2168 -0.1357
 1036W        W43953  23.535   9.826  25.974 -0.1216  0.1902  0.1782
 1037W        W43954  19.954   5.983  23.514  0.0727  0.0399  0.3451
 1038W        W43955  20.557   3.459  25.938 -0.1742 -0.1705 -0.3265
 1039W        W43956  21.281   4.679  25.064  0.0510  0.2172  0.3888
 1040W        W43957  22.720   2.135  26.977  0.1915  0.1746 -0.0181
 1041W        W43958  21.251   5.602  27.123  0.1248 -0.4037  0.1218
 1042W        W43959  23.459   5.234  28.207 -0.1290 -0.1699  0.1694
 1043W        W43960  20.540   4.395  24.718  0.1114  0.0227  0.0065
 1044W        W43961  22.760   3.693  26.855  0.0180  0.1439  0.0285
 1045W        W43962  24.220   2.528  26.835 -0.2042  0.1032  0.1104
 1046W        W43963  24.804   5.684  24.992 -0.1762 -0.0657  0.0405
 1047W        W43964  24.488   6.424  28.245  0.0186 -0.0979  0.2383
 1048W        W43965  24.863   5.875  27.318 -0.0562  0.0462 -0.2169
 1049W        W43966  22.349   4.103  23.733 -0.0114 -0.0837  0.0014
 1050W        W43967  24.281   5.169  25.671  0.1993 -0.1309  0.0040
 1051W        W43968  20.729   6.377  27.720 -0.0162  0.1844  0.1242
 1052W        W43969  22.733   5.068  24.660 -0.0603 -0.2119 -0.2215
 1053W        W43970  22.576   6.055  24.575  0.1089  0.0430  0.1919
 1054W        W43971  26.307   4.281  24.868 -0.5971 -0.0540 -0.0076
 1055W        W43972  24.955   6.196  25.659 -0.0539  0.2154  0.1250
 1056W        W43973  21.393   4.987  26.047 -0.0072  0.1214  0.3688
 1057W        W43974  22.511   7.486  26.635 -0.0233  0.0172 -0.0073
 1058W        W43975  23.165   8.004  26.296 -0.3859  0.2449  0.2996
 1059W        W43976  23.296   5.013  26.578 -0.0705 -0.3134 -0.0898
 1060W        W43977  22.113   3.546  24.054 -0.2393 -0.1191 -0.0516
 1061W        W43978  23.740   4.629  25.275 -0.0825 -0.0038  0.1023
 1062W        W43979  21.931   6.651  26.547 -0.1927  0.2170  0.4361
 1063W        W43980  22.293   4.670  25.366  0.1436 -0.2823  0.0461
 1064W        W43981  21.783   5.463  25.457  0.2074  0.1955 -0.0924
 1065W        W43982  23.297   4.541  27.420 -0.0403  0.1388  0.0749
 1066W        W43983  25.885   2.621  27.608  0.0643  0.0743 -0.1566
 1067W        W43984  22.852   4.531  24.700 -0.3759  0.1576  0.2297
 1068W        W43985  21.524   5.945  24.549  0.1227 -0.1696  0.0675
 1069W        W43986  21.077   3.976  23.845  0.2868 -0.1189 -0.1500
 1070W        W43987  22.371   4.463  27.475  0.0804  0.0531 -0.0337
 1071W        W43988  21.386   3.381  23.199 -0.0057  0.1727  0.0817
 1072W        W43989  20.810   6.967  27.126 -0.4027 -0.0325  0.1495
 1073W        W43990  25.354   7.146  27.127  0.0359  0.2234 -0.1311
 1074W        W43991  21.022   5.654  24.663  0.4093  0.0884  0.2511
 1075W        W43992  21.979   4.388  29.231  0.1923  0.0939 -0.4796
 1076W        W43993  24.663   2.156  25.576  0.0952 -0.1411 -0.0857
 1077W        W43994  23.312   6.410  25.234  0.1933  0.0644 -0.2060
 1078W        W43995  22.063   7.226  23.636  0.3254 -0.1329 -0.0989
 1079W        W43996  23.950   3.672  26.158 -0.4156  0.0107 -0.2942
 1080W        W43997  21.954   8.649  27.151 -0.2905 -0.2157 -0.0276
 1081W        W43998  23.144   3.761  24.143  0.2821 -0.1675 -0.0704
 1082W        W43999  24.226   5.171  27.423  0.3121  0.1193  0.1520
 1083W        W44000  22.209   6.780  24.456  0.1691  0.2306  0.0943
 1084W        W44001  24.381   4.143  24.118 -0.2122 -0.0621  0.1555
 1085W        W44002  21.927   6.128  26.144 -0.5789  0.1041 -0.0369
 1086W        W44003  22.660   4.512  23.859  0.1887 -0.1794  0.3075
 1087W        W44004  18.608   3.439  24.724 -0.1283 -0.3066  0.0663
 1088W        W44005  25.354   4.181  25.977  0.1153 -0.0591 -0.0135
 1089W        W44006  23.725   6.474  26.008 -0.1156 -0.0891  0.1658
 1090W        W44007  20.778   4.475  26.011 -0.0722  0.0012  0.1014
 1091W        W44008  22.710   5.549  25.813 -0.0835  0.0152  0.4045
 1092W        W44009  19.952   6.572  26.438 -0.0686 -0.0472 -0.0725
 1093W        W44010  22.836   4.262  27.681 -0.0898  0.1287  0.0125
 1094W        W44011  25.924   4.260  24.191 -0.1010  0.4747  0.1050
 1095W        W44012  24.954   7.574  27.366 -0.1140 -0.1802 -0.5196
 1096W        W44013  22.900   5.284  26.436 -0.1007 -0.1518  0.2246
 1097W        W44014  20.332   2.844  25.280 -0.0642 -0.0212 -0.0422
 1098W        W44015  24.585   5.908  25.920 -0.0836 -0.3125  0.0527
 1099W        W44016  22.119   5.121  25.296 -0.1843  0.1400  0.1079
 1100W        W44017  20.268   4.270  26.255  0.1168  0.2783 -0.0031
 1101W        W44018  23.235   8.085  26.846 -0.0917  0.1842  0.0121
 1102W        W44019  20.786   6.791  25.183 -0.0867 -0.1290 -0.0742
 1103W        W44020  21.313   5.410  25.419 -0.1895  0.0981  0.1713
 1104W        W44021  21.927   3.572  26.465 -0.0541 -0.2038 -0.1723
 1105W        W44022  24.526   8.453  27.452  0.3327  0.1197  0.0216
 1106W        W44023  21.406   3.138  24.843  0.1022  0.1357 -0.0704
 1107W        W44024  21.517   2.869  22.724  0.0246 -0.1131 -0.0955
 1108W        W44025  20.885   5.154  24.548  0.2318 -0.1181 -0.0272
 1109W        W44026  23.683   8.020  26.372 -0.0281  0.2172 -0.0853
 1110W        W44027  21.772   4.361  26.532 -0.1604  0.0390  0.0443
 1111W        W44028  23.376   6.610  27.461 -0.0962  0.2092 -0.1046
 1112W        W44029  24.454   4.769  26.557  0.0918  0.1176 -0.3611
 1113W        W44030  26.162   7.209  27.061  0.1780 -0.0075 -0.3222
 1114W        W44031  23.956   6.059  26.350  0.0129 -0.2062 -0.2213
 1115W        W44032  22.694   5.580  24.294  0.0972  0.0690 -0.1206
 1116W        W44033  21.475   4.610  27.536  0.1831 -0.2463  0.1512
 1117W        W44034  21.476   6.394  26.169  0.1171 -0.1187  0.0136
 1118W        W44035  23.330   4.366  27.912  0.1371 -0.0049 -0.0461
 1119W        W44036  21.379   4.260  25.276 -0.0402 -0.3555  0.1230
 1120W        W44037  22.243   3.531  25.585 -0.0367 -0.0033  0.0915
 1121W        W44038  21.766   7.736  24.542  0.1774  0.0812 -0.4260
 1122W        W44039  26.972   3.402  28.142  0.0282  0.0340 -0.0721
 1123W        W44040  24.578   6.562  24.030  0.1496 -0.1275  0.0341
 1124W        W44041  22.888   4.828  24.264  0.3182 -0.5022  0.0776
 1125W        W44042  22.900   3.837  27.287  0.0143  0.1928  0.0212
 1126W        W44043  24.587   5.008  24.207  0.0580  0.2006  0.2141
 1127W        W44044  26.519   0.892  26.308 -0.1904  0.0053 -0.0112
 1128W        W44045  21.787   3.888  25.505  0.0140 -0.0152  0.1950
 1129W        W44046  23.933   5.686  26.636  0.0319 -0.1384 -0.0411
 1130W        W44047  20.974   4.744  27.950  0.1126  0.2281 -0.1936
 1131W        W44048  22.188   6.983  27.690  0.4581 -0.0366  0.2310
 1132W        W44049  24.127   5.979  28.932 -0.1415  0.1737  0.2130
 1133W        W44050  23.926   3.684  25.412 -0.2480  0.4282  0.0089
 1134W        W44051  23.642   3.357  24.424 -0.0071  0.0489 -0.0248
 1135W        W44052  21.776   4.936  25.625 -0.0208 -0.0239  0.0679
 1136W        W44053  23.198   4.573  25.047 -0.1818 -0.2516 -0.2576
 1137W        W44054  22.756   6.249  23.687  0.0509 -0.2946 -0.1742
 1138W        W44055  22.375   4.690  24.861 -0.0725 -0.1676 -0.3351
 1139W        W44056  21.714   5.817  26.946 -0.2691  0.0527  0.1043
 1140W        W44057  23.818   3.544  24.876 -0.0173  0.0890 -0.2420
 1141W        W44058  22.174   7.314  24.147  0.0953 -0.2985  0.0653
 1142W        W44059  23.244   6.788  25.948  0.1066  0.3487  0.0103
 1143W        W44060  22.413   5.247  26.118  0.2623 -0.1690 -0.1512
 1144W        W44061  23.289   4.882  24.630 -0.0755  0.2458 -0.2351
 1145W        W44062  22.291   6.555  26.954 -0.1178  0.2879 -0.1232
 1146W        W44063  22.353   5.569  25.376 -0.0600  0.0206 -0.1278
 1147W        W44064  22.696   4.599  27.171  0.1440  0.0066 -0.0675
 1148W        W44065  21.531   5.488  25.892 -0.0440  0.0743 -0.0919
 1149W        W44066  21.454   3.793  29.792 -0.4446 -0.2557 -0.1961
 1150W        W44067  23.915   7.929  25.571 -0.1978 -0.1353 -0.1423
 1151W        W44068  26.408   6.019  23.292 -0.2441  0.2574 -0.0409
 1152W        W44069  25.722   2.427  27.184 -0.0498  0.0446  0.0990
 1153W        W44070  24.139   5.539  27.793  0.1602  0.0595  0.4442
 1154W        W44071  24.612   3.838  24.458 -0.0735 -0.0518 -0.1033
 1155W        W44072  22.710   3.888  25.407  0.1740 -0.0544  0.1713
 1156W        W44073  24.685   5.669  27.741  0.1078 -0.1028 -0.1014
 1157W        W44074  21.989   4.998  22.671 -0.0361  0.1965 -0.1405
 1158W        W44075  24.245   7.002  27.805  0.2824  0.2226 -0.0897
 1159W        W44076  23.033  10.231  25.712  0.0470  0.0687  0.1210
 1160W        W44077  24.468   7.038  25.533  0.1324 -0.1598  0.0082
 1161W        W44078  25.462   5.116  24.348 -0.2996 -0.1073 -0.0092
 1162W        W44079  21.889   2.763  25.649  0.0296  0.0624  0.1622
 1163W        W44080  22.263   8.777  27.942 -0.2170 -0.1180  0.1852
 1164W        W44081  20.657   3.053  23.733 -0.3594  0.0188  0.0452
 1165W        W44082  22.659   3.755  23.786 -0.0269 -0.0760 -0.2536
 1166W        W44083  22.228   6.732  25.602  0.1856  0.1308  0.1923
 1167W        W44084  26.400   6.740  27.053  0.3531  0.2299  0.2308
 1168W        W44085  24.439   3.168  23.440  0.1833 -0.2169 -0.1257
 1169W        W44086  23.771   4.766  27.409 -0.1718 -0.1705 -0.1156
 1170W        W44087  21.015   6.010  24.356 -0.1210 -0.0127  0.3213
 1171W        W44088  24.829   4.147  25.888  0.0974  0.0884  0.0665
 1172W        W44089  20.835   7.420  26.348 -0.1289  0.0886  0.0752
 1173W        W44090  19.346   5.716  25.891  0.1998 -0.1256  0.0966
 1174W        W44091  19.159   4.031  23.896 -0.1383 -0.1396 -0.1198
 1175W        W44092  22.688   2.170  25.791  0.0793 -0.0110  0.2429
 1176W        W44093  24.152   4.508  27.144  0.2963 -0.1448  0.1946
 1177W        W44094  21.553   5.885  26.337  0.1137 -0.0219 -0.1750
 1178W        W44095  25.385   6.637  27.201  0.2775  0.0077 -0.0212
 1179W        W44096  22.887   7.083  26.736 -0.2056  0.2344  0.1475
 1180W        W44097  21.825   3.322  25.676 -0.1813  0.0034 -0.0815
 1181W        W44098  24.347   7.200  27.034 -0.1597 -0.1734  0.0507
 1182W        W44099  22.462   5.371  26.642 -0.1050 -0.3846 -0.0402
 1183W        W44100  22.428   2.203  23.919 -0.1417 -0.0554 -0.0281
 1184W        W44101  20.358   4.789  25.947  0.2585 -0.1166 -0.0663
 1185W        W44102  24.661   4.641  28.001  0.2847  0.0053  0.0659
 1186W        W44103  22.881   6.226  27.503  0.0226  0.2455 -0.0350
 1187W        W44104  23.923   4.995  27.832 -0.0088 -0.4216 -0.0647
 1188W        W44105  24.264   6.604  23.084  0.0218 -0.3473 -0.0379
 1189W        W44106  20.165   6.880  26.792  0.0463 -0.1436 -0.2780
 1190W        W44107  19.762   7.043  26.511  0.0363  0.0472  0.0023
 1191W        W44108  22.261   4.884  25.821  0.2347 -0.0143 -0.0707
 1192W        W44109  23.556   6.704  25.565  0.2546 -0.1578  0.2653
 1193W        W44110  23.439   4.997  25.100 -0.0229  0.0883 -0.1917
 1194W        W44111  23.379   6.323  27.019  0.2637  0.3424 -0.0542
 1195W        W44112  23.235   4.591  25.997  0.0229  0.1862 -0.0275
 1196W        W44113  19.951   7.063  27.181 -0.0494  0.1903  0.1076
 1197W        W44114  22.193   4.991  23.870  0.3981  0.1807  0.0193
 1198W        W44115  22.984   6.087  24.261  0.2215  0.1954  0.1619
 1199W        W44116  20.241   6.317  25.371 -0.5198  0.2454 -0.2017
 1200W        W44117  24.014   4.415  26.666  0.0765 -0.0136  0.0679
 1201W        W44118  25.539   3.711  26.220 -0.1954 -0.2944  0.0092
 1202W        W44119  25.331   5.234  26.519 -0.0210 -0.0333  0.2439
 1203W        W44120  23.407   4.120  26.178 -0.0503  0.2181  0.1673
 1204W        W44121  24.326   7.975  27.523 -0.0024 -0.2925  0.1126
 1205W        W44122  21.251   5.239  24.853  0.0235  0.0772 -0.1432
 1206W        W44123  23.843   2.672  23.937 -0.2185  0.0929  0.1402
 1207W        W44124  21.098   5.908  25.951 -0.0815  0.0810 -0.1318
 1208W        W44125  27.568   2.688  29.749 -0.1235 -0.0446  0.0359
 1209W        W44126  19.836   7.931  25.921 -0.1611 -0.0140 -0.0736
 1210W        W44127  23.782   6.777  23.301  0.1112 -0.0925  0.0262
 1211W        W44128  20.201   5.655  25.022 -0.2330 -0.0641  0.1365
 1212W        W44129  20.000   3.353  22.982 -0.2859  0.2240 -0.1782
 1213W        W44130  23.887   3.034  26.795 -0.2252 -0.1137 -0.0836
 1214W        W44131  21.952   4.725  24.304  0.1750  0.1939  0.3265
 1215W        W44132  21.650   5.106  25.151  0.0658 -0.0790 -0.0060
 1216W        W44133  23.134   6.914  25.269  0.1696  0.2402 -0.0287
 1217W        W44134  21.274   4.839  25.532 -0.1673  0.0274 -0.0173
 1218W        W44135  22.319   8.304  26.933 -0.0211 -0.0456  0.2875
 1219W        W44136  21.373   6.860  25.743 -0.2436  0.5230 -0.3065
 1220W        W44137  23.528   5.716  27.302 -0.2477  0.1719  0.2177
 1221W        W44138  21.526   3.889  26.293 -0.0353 -0.0081 -0.1803
 1222W        W44139  25.807   7.088  27.397  0.1359 -0.1908 -0.0643
 1223W        W44140  22.114   4.495  23.839  0.0899  0.0099 -0.3177
 1224W        W44141  23.597   6.025  24.147  0.0987  0.0586 -0.1178
 1225W        W44142  21.835   8.134  26.214 -0.2580 -0.0473  0.1690
 1226W        W44143  22.977   5.523  27.338  0.0967  0.1668  0.1471
 1227W        W44144  23.195   6.288  23.797 -0.1779  0.0545 -0.0139
 1228W        W44145  23.707   5.318  26.883 -0.1336 -0.0198  0.0300
 1229W        W44146  23.129   4.050  25.153  0.1858  0.2594  0.1506
 1230W        W44147  25.735   9.474  29.504  0.2290  0.1779  0.1468
 1231W        W44148  19.204   3.381  25.971  0.0031 -0.1250 -0.0063
 1232W        W44149  24.010   5.548  25.358  0.1004  0.1945 -0.1634
 1233W        W44150  20.610   4.939  25.538 -0.0777  0.2602 -0.1875
 1234W        W44151  22.235   5.841  28.293 -0.1250 -0.0615  0.0813
 1235W        W44152  22.966   4.857  27.910  0.0144  0.1030 -0.1636
 1236W        W44153  22.823   4.782  25.242 -0.0450  0.0581 -0.1552
 1237W        W44154  26.199   5.563  25.395 -0.1681  0.0918  0.1203
 1238W        W44155  24.073   5.323  26.129  0.1192 -0.2869 -0.0529
 1239W        W44156  22.568   6.412  26.426  0.2163 -0.1104  0.3788
 1240W        W44157  23.642   5.377  25.824  0.2157  0.0290 -0.2944
 1241W        W44158  23.649   6.988  24.406 -0.1039 -0.2888 -0.0870
 1242W        W44159  21.002   5.755  26.675 -0.0838  0.3162 -0.2803
 1243W        W44160  24.092   8.009  28.488  0.0352  0.0633 -0.1083
 1244W        W44161  24.327   5.697  26.294  0.2549  0.2207 -0.0534
 1245W        W44162  24.736   3.225  24.311  0.0066 -0.0069 -0.1974
 1246W        W44163  21.764   3.504  25.141  0.3080 -0.3032 -0.0196
 1247W        W44164  22.970   6.271  26.168 -0.0888  0.3265  0.1695
 1248W        W44165  25.982   2.835  28.052 -0.0416 -0.0759  0.0048
 1249W        W44166  22.311   4.368  25.870  0.2697  0.1030 -0.3666
 1250W        W44167  22.520   8.350  23.909  0.0087  0.3244  0.1593
 1251W        W44168  22.885   2.406  26.604  0.1006 -0.1929  0.2685
 1252W        W44169  22.848   8.167  25.961  0.1263 -0.0104  0.0004
 1253W        W44170  22.581   6.149  26.948 -0.0179 -0.2692  0.0778
 1254W        W44171  21.759   5.789  23.664  0.4610 -0.1375 -0.0468
 1255W        W44172  22.810   4.683  26.588 -0.2207 -0.0130 -0.0931
 1256W        W44173  22.024   6.424  25.239 -0.1866 -0.0009  0.3420
 1257W        W44174  23.353   7.119  26.520  0.0182  0.1781  0.2558
 1258W        W44175  21.972   8.792  26.682  0.1000 -0.0895 -0.0497
 1259W        W44176  23.395   5.975  24.619  0.0624  0.3836  0.0941
 1260W        W44177  25.206   6.038  27.769 -0.0306  0.1604 -0.1238
 1261W        W44178  19.750   4.688  25.237  0.0601  0.3012 -0.0188
 1262W        W44179  24.455   4.304  26.342 -0.0114  0.0639  0.2014
 1263W        W44180  27.228   4.334  26.252  0.1833 -0.1533 -0.2087
 1264W        W44181  22.015   9.503  25.311 -0.1780  0.1721 -0.0348
 1265W        W44182  19.602   6.345  25.035 -0.0386  0.1769  0.0095
 1266W        W44183  22.858   5.266  23.983 -0.0036 -0.1778  0.0885
 1267W        W44184  20.688   5.353  26.632 -0.1070  0.0449  0.1732
 1268W        W44185  24.622   4.395  28.996  0.2362 -0.1227 -0.2065
 1269W        W44186  22.710   4.172  26.641 -0.3946  0.0370  0.1348
 1270W        W44187  21.821   4.424  25.566  0.0357 -0.1220  0.0902
 1271W        W44188  21.353   4.768  23.349 -0.2718 -0.3664  0.2071
 1272W        W44189  23.514   6.566  24.802 -0.0317 -0.0688 -0.4123
 1273W        W44190  22.447   4.094  27.111  0.0023  0.1678 -0.2421
 1274W        W44191  22.228   4.173  26.314 -0.0231  0.0260  0.2233
 1275W        W44192  22.761   5.830  23.370  0.1271 -0.1823  0.2629
 1276W        W44193  25.223   6.540  25.935 -0.0311 -0.1710  0.0004
 1277W        W44194  24.811   5.214  25.247  0.4012  0.1450 -0.1307
 1278W        W44195  23.977   8.441  26.594 -0.3217 -0.2350 -0.1949
 1279W        W44196  22.078   6.298  24.404 -0.1836 -0.2213  0.0402
 1280W        W44197  21.162   2.512  27.454 -0.2973  0.0380  0.1090
 1281W        W44198  21.717   3.132  27.102 -0.3114 -0.3510  0.0908
 1282W        W44199  21.384   3.375  25.410 -0.2218  0.2849  0.0372
 1283W        W44200  22.979   4.001  24.597 -0.0440 -0.1139  0.3474
 1284W        W44201  23.401   5.549  26.288  0.0395  0.2277  0.1159
 1285W        W44202  24.348   6.612  25.110 -0.1079  0.0905  0.1880
 1286W        W44203  23.101   4.072  25.774  0.1203 -0.0736 -0.0889
 1287W        W44204  22.910   6.580  26.985 -0.1101  0.0420  0.2050
 1288W        W44205  22.392   3.343  28.467 -0.0327 -0.2986  0.0066
 1289W        W44206  23.776   6.297  25.144 -0.0246  0.2226 -0.1923
 1290W        W44207  24.366   6.004  27.459  0.2279  0.3769 -0.2824
 1291W        W44208  25.794   6.567  25.849  0.0134  0.0876 -0.1374
 1292W        W44209  24.149   4.694  25.570  0.1206  0.0501  0.0048
 1293W        W44210  23.307   5.572  23.972  0.3743  0.1558 -0.0137
 1294W        W44211  21.562   2.913  27.594 -0.2033 -0.1569 -0.0370
 1295W        W44212  22.960   5.007  27.442 -0.1125  0.2008 -0.0759
 1296W        W44213  23.767   7.110  26.856 -0.0615  0.4329 -0.0880
 1297W        W44214  21.056   5.393  23.788 -0.0737 -0.3428 -0.2055
 1298W        W44215  23.862   3.906  27.495 -0.1687 -0.1773  0.0999
 1299W        W44216  24.202   8.470  23.046  0.2966 -0.0579 -0.2145
 1300W        W44217  22.487   7.374  25.536  0.0181  0.4466 -0.1013
 1301W        W44218  24.442   4.254  24.882  0.0190  0.0333  0.1932
 1302W        W44219  22.011   4.232  27.989  0.1263  0.0239  0.1260
 1303W        W44220  23.280   4.455  25.502 -0.2003 -0.0674  0.0039
 1304W        W44221  24.296   5.937  28.033 -0.1586 -0.0400  0.1280
 1305W        W44222  22.154   5.592  24.375  0.1382  0.1568 -0.1214
 1306W        W44223  24.916   6.681  23.622 -0.0279  0.1250  0.3483
 1307W        W44224  22.432   8.021  25.774  0.1720 -0.1349 -0.1843
 1308W        W44225  26.232   7.400  27.523 -0.1087  0.1521  0.3391
 1309W        W44226  23.517   7.576  26.242  0.0214  0.2486  0.0155
 1310W        W44227  25.457   5.069  28.156  0.0462  0.1294 -0.0424
 1311W        W44228  20.999   4.094  26.770 -0.3252 -0.0991 -0.2410
 1312W        W44229  23.247   4.436  26.661  0.1741  0.0265 -0.0799
 1313W        W44230  21.690   5.395  24.566 -0.1637  0.1775  0.0038
 1314W        W44231  23.551   4.250  27.013  0.1375  0.0559 -0.0784
 1315W        W44232  22.781   3.672  24.956  0.4589 -0.0369 -0.0033
 1316W        W44233  25.223   1.562  24.895  0.0648 -0.1102  0.0530
 1317W        W44234  21.826   7.395  27.485  0.0351 -0.0314 -0.1152
 1318W        W44235  22.196   5.652  26.939 -0.0630 -0.1385  0.1347
 1319W        W44236  22.986   5.287  31.317  0.2626 -0.2346 -0.2767
 1320W        W44237  20.889   5.567  28.082  0.1371  0.0128  0.1016
 1321W        W44238  24.573   6.223  29.095 -0.0019  0.1614 -0.0270
 1322W        W44239  25.023   6.458  27.522  0.0799 -0.2010  0.1587
 1323W        W44240  21.231   4.121  29.312  0.3262 -0.1962  0.0765
 1324W        W44241  25.236   6.456  28.643 -0.0290 -0.0378 -0.1199
 1325W        W44242  24.438   4.425  29.528  0.1789 -0.1321 -0.1203
 1326W        W44243  23.941   6.463  29.705 -0.0520 -0.3807 -0.0481
 1327W        W44244  25.471   6.170  30.948 -0.1312  0.2251  0.1288
 1328W        W44245  24.707   6.196  27.801 -0.1185  0.1137  0.0820
 1329W        W44246  22.463   6.179  31.079  0.1449  0.1545  0.1051
 1330W        W44247  21.467   5.513  30.203 -0.2676 -0.2086 -0.0680
 1331W        W44248  22.443   4.930  27.513 -0.1236 -0.2930 -0.0973
 1332W        W44249  21.892   1.940  30.087 -0.0064 -0.2601 -0.3419
 1333W        W44250  23.532   6.011  29.050  0.2427  0.0103  0.2644
 1334W        W44251  22.031   6.143  27.215 -0.0753 -0.2758  0.1185
 1335W        W44252  23.200   5.823  29.686  0.0728 -0.0923  0.0143
 1336W        W44253  22.570   5.068  28.128  0.2424 -0.0847  0.0677
 1337W        W44254  21.836   5.079  28.902 -0.0828 -0.3743 -0.1194
 1338W        W44255  22.565   5.198  31.473  0.0964  0.3963 -0.2290
 1339W        W44256  24.020   5.347  29.586 -0.3365  0.1072  0.2654
 1340W        W44257  23.308   6.504  27.973 -0.3031  0.0231  0.0727
 1341W        W44258  22.668   7.065  27.627 -0.5859  0.0302 -0.0829
 1342W        W44259  21.698   4.497  28.581 -0.1384 -0.0783 -0.1251
 1343W        W44260  23.304   6.447  30.921  0.2258  0.0326 -0.2200
 1344W        W44261  27.667   4.074  28.528  0.0850  0.0998  0.1158
 1345W        W44262  24.641   7.758  31.697  0.1258 -0.0232 -0.0782
 1346W        W44263  23.719   7.726  29.205 -0.1137 -0.3043 -0.1601
 1347W        W44264  25.982   6.954  28.340  0.2960  0.2709  0.1062
 1348W        W44265  23.900   3.362  29.443 -0.0657  0.3068 -0.1014
 1349W        W44266  21.753   6.582  30.624  0.0599 -0.3104 -0.2030
 1350W        W44267  22.691   8.671  31.135  0.0490  0.1146 -0.4176
 1351W        W44268  23.564   6.760  28.363 -0.0152 -0.1521  0.0430
 1352W        W44269  25.663   4.006  28.338 -0.1090 -0.1401  0.0893
 1353W        W44270  24.285   9.190  29.355  0.0490  0.2849  0.0032
 1354W        W44271  21.446   7.699  31.160 -0.0675 -0.0680 -0.2401
 1355W        W44272  21.051   7.467  28.043  0.0184  0.0441 -0.1927
 1356W        W44273  24.014   5.196  30.131 -0.1143  0.1313 -0.2570
 1357W        W44274  20.655   5.503  31.148  0.1270 -0.2704 -0.0451
 1358W        W44275  23.542   5.887  31.754  0.0360 -0.1784  0.0975
 1359W        W44276  22.167   7.135  28.391 -0.0348  0.3565 -0.0613
 1360W        W44277  23.029   6.929  28.259  0.0516  0.2688 -0.0261
 1361W        W44278  23.898   4.644  28.353  0.1656  0.0306  0.0502
 1362W        W44279  24.250   5.486  31.426 -0.0706  0.1061 -0.3008
 1363W        W44280  20.479   6.432  31.767  0.1198 -0.2160 -0.4024
 1364W        W44281  25.793   7.160  29.641 -0.1208  0.0576 -0.0160
 1365W        W44282  22.307   7.371  27.386 -0.0015  0.3481  0.1671
 1366W        W44283  25.470   5.755  28.099 -0.3235 -0.3475  0.1095
 1367W        W44284  23.119   3.650  28.345  0.0904 -0.0505  0.0576
 1368W        W44285  23.428   4.572  28.615 -0.0469 -0.4789 -0.0234
 1369W        W44286  21.721   5.562  31.464 -0.0287 -0.1658  0.0422
 1370W        W44287  22.391   7.502  30.932  0.3368  0.0176 -0.1566
 1371W        W44288  23.526   3.914  27.953 -0.0440  0.2447 -0.0670
 1372W        W44289  24.438   7.784  29.418  0.0923 -0.0803 -0.2259
 1373W        W44290  23.395   6.115  28.308 -0.0495 -0.1791  0.0779
 1374W        W44291  24.105   4.917  29.205 -0.0446  0.2755 -0.2033
 1375W        W44292  22.910   6.646  30.709 -0.1244  0.2029  0.1040
 1376W        W44293  21.177   5.406  29.195 -0.1483 -0.0258  0.0551
 1377W        W44294  24.823   5.434  25.817 -0.0003 -0.0227 -0.1074
 1378W        W44295  24.549   7.360  30.666  0.2311 -0.0510 -0.0872
 1379W        W44296  24.243   6.818  29.854  0.1976 -0.1534  0.0364
 1380W        W44297  23.836   6.170  28.011  0.2338 -0.0302 -0.0017
 1381W        W44298  21.422   4.290   0.726  0.2399  0.2687  0.0135
 1382W        W44299  22.878   6.340   1.019 -0.0037  0.0172 -0.3441
 1383W        W44300  20.629   3.706  26.852  0.1838  0.1079 -0.2287
 1384W        W44301  25.766   8.017  31.642  0.4947 -0.2056  0.3169
 1385W        W44302  21.488   8.939  30.183  0.3168 -0.0711 -0.2033
 1386W        W44303  26.022   5.488  29.946  0.0174  0.0061  0.1958
 1387W        W44304  21.282   4.973  28.873 -0.0783  0.0849 -0.1276
 1388W        W44305  23.758   6.238  30.599  0.1462 -0.0818 -0.2195
 1389W        W44306  25.134   7.220  28.159  0.0471  0.0767 -0.2038
 1390W        W44307  26.090   5.732  29.321 -0.2696  0.2574  0.1257
 1391W        W44308  23.173   2.855  29.894 -0.0938 -0.2119 -0.3459
 1392W        W44309  21.026   5.553  27.621  0.1077  0.0506  0.1676
 1393W        W44310  21.820   5.870  27.929  0.1006  0.1100 -0.1006
 1394W        W44311  24.478   6.388  31.750 -0.2174  0.0748 -0.3216
 1395W        W44312  24.178   6.606  26.376 -0.1111  0.2492  0.2073
 1396W        W44313  21.261   5.898  30.503 -0.1325  0.0457 -0.0298
 1397W        W44314  24.394   4.410  30.010 -0.3496  0.1070  0.1942
 1398W        W44315  25.137   8.453  30.912  0.0917 -0.0644  0.0075
 1399W        W44316  22.305   5.711  27.807  0.0757  0.1552 -0.2052
 1400W        W44317  19.285   5.772  31.130  0.2082  0.2353 -0.0023
 1401W        W44318  20.549   7.187  26.738  0.0440 -0.1604 -0.4928
 1402W        W44319  20.984   5.174  31.225 -0.2963  0.0855 -0.1316
 1403W        W44320  22.986   7.476  30.900 -0.0043 -0.0691 -0.2033
 1404W        W44321  24.592   5.148  27.763 -0.0109  0.0779  0.1941
 1405W        W44322  24.190   2.570  29.601 -0.1523 -0.1909  0.0925
 1406W        W44323  24.901   2.455  29.786  0.3903  0.1587 -0.1603
 1407W        W44324  20.650   6.703  28.647 -0.1450  0.3550 -0.1259
 1408W        W44325  23.740   8.271  29.255  0.1223 -0.2154 -0.1253
 1409W        W44326  25.938   5.943  28.194  0.1752  0.4530 -0.2073
 1410W        W44327  21.819   5.140  30.349  0.1081 -0.1781  0.0547
 1411W        W44328  21.908   4.187  30.286  0.0563 -0.0463  0.0600
 1412W        W44329  23.089   5.453  30.016  0.2550  0.2942 -0.0677
 1413W        W44330  22.322   3.072  30.740  0.0245 -0.1007  0.0105
 1414W        W44331  21.417   3.994  27.926 -0.1572 -0.1341 -0.0097
 1415W        W44332  25.059   6.262  29.497  0.0804  0.2252 -0.1637
 1416W        W44333  21.560   2.608  28.637  0.0522  0.1775 -0.0117
 1417W        W44334  24.745   3.718  26.921 -0.0879  0.0672 -0.1713
 1418W        W44335  22.944   7.942  28.472 -0.0814  0.2667  0.0862
 1419W        W44336  22.731   5.114  27.012  0.0663  0.1043  0.0430
 1420W        W44337  23.569   5.353  29.753  0.0625 -0.0618 -0.1453
 1421W        W44338  24.563   8.596  28.456 -0.1326  0.1662  0.0069
 1422W        W44339  25.165   7.182  30.713  0.3567  0.0584 -0.0993
 1423W        W44340  24.793   6.834  29.486  0.0053  0.0772 -0.1111
 1424W        W44341  23.459   4.648  30.384 -0.0606  0.0973 -0.0577
 1425W        W44342  21.761   7.555  26.403 -0.3929 -0.3566  0.2861
 1426W        W44343  21.381   5.419  28.689 -0.0609  0.0366  0.1734
 1427W        W44344  21.181   5.742  29.547  0.0455  0.1573 -0.1504
 1428W        W44345  20.600   5.321  25.990  0.0717  0.0288 -0.1871
 1429W        W44346  23.583   9.043  30.215 -0.3942 -0.0948  0.0828
 1430W        W44347  25.878   5.355  28.299 -0.4307  0.1034 -0.0517
 1431W        W44348  20.494   6.962  31.800 -0.2282  0.0559  0.3821
 1432W        W44349  24.189   4.296  30.535  0.0311 -0.0297  0.0045
 1433W        W44350  23.886   6.389  31.110  0.2410  0.3514  0.4129
 1434W        W44351  22.717   6.046  30.633  0.2841  0.2385 -0.1368
 1435W        W44352  22.629   3.238  27.157 -0.0469 -0.0512  0.0268
 1436W        W44353  23.969   6.891  28.614 -0.2022  0.3641  0.0495
 1437W        W44354  22.114   8.182  28.911 -0.3128 -0.1769 -0.1212
 1438W        W44355  21.592   4.957  27.964  0.2804  0.0097 -0.0798
 1439W        W44356  23.715   6.024  29.578 -0.3232  0.0491 -0.2585
 1440W        W44357  25.165   3.140  30.245  0.0586 -0.1021 -0.1053
 1441W        W44358  19.235   5.585  31.603  0.1559 -0.2165 -0.2291
 1442W        W44359  24.859   5.507  29.918 -0.2991  0.0196  0.0311
 1443W        W44360  23.204   5.305  27.775  0.0688  0.4500 -0.1190
 1444W        W44361  22.504   6.687  31.082  0.1096 -0.0932 -0.0822
 1445W        W44362  24.199   1.970  27.551 -0.0432 -0.2463 -0.0389
 1446W        W44363  24.281   5.035  28.156  0.1814  0.0718 -0.0033
 1447W        W44364  24.472   5.070   0.278  0.1303 -0.2156  0.0990
 1448W        W44365  23.808   6.579  26.860  0.0906  0.3356 -0.0516
 1449W        W44366  23.096   5.198  29.559  0.2183  0.1046  0.0312
 1450W        W44367  23.115   4.464  30.678  0.0481  0.2003 -0.2206
 1451W        W44368  23.158   5.768  31.456 -0.1008  0.4410  0.2072
 1452W        W44369  24.256   6.126  30.483 -0.2247 -0.0128 -0.1154
 1453W        W44370  23.716   4.982  30.662 -0.1135 -0.0925 -0.3132
 1454W        W44371  22.812   4.827  29.119  0.1620 -0.0638  0.1799
 1455W        W44372  23.881   5.899  27.562 -0.1500  0.0389  0.0738
 1456W        W44373  21.913   5.061  30.831  0.0539 -0.0956 -0.1283
 1457W        W44374  23.116   7.075  30.552  0.0110 -0.0712  0.1480
 1458W        W44375  23.770   6.846  30.092  0.1209 -0.1098 -0.3435
 1459W        W44376  23.417   3.249  29.584 -0.0952 -0.0797 -0.0406
 1460W        W44377  22.730   4.865  26.118 -0.0621  0.1048  0.0288
 1461W        W44378  24.939   4.476  29.488  0.1259  0.1488 -0.0347
 1462W        W44379  21.304   7.055  27.240 -0.1888  0.0292 -0.2937
 1463W        W44380  24.562   5.940  30.119  0.0236 -0.2657 -0.0753
 1464W        W44381  22.652   5.874  29.122  0.3748 -0.4537 -0.1040
 1465W        W44382  23.987   5.630  31.839  0.0242  0.2970  0.1102
 1466W        W44383  23.248   6.269  30.368  0.1143 -0.0366  0.1476
 1467W        W44384  25.974   3.495  28.068  0.2144  0.1046 -0.2443
 1468W        W44385  24.103   6.125  29.993  0.0764 -0.1283  0.3528
 1469W        W44386  22.368   2.431  27.163 -0.0883 -0.0202  0.1563
 1470W        W44387  24.262   1.496  27.771  0.2552  0.0638 -0.0431
 1471W        W44388  22.377   5.203  30.571 -0.3051  0.1531  0.2241
 1472W        W44389  22.069   7.433  30.471  0.2052  0.2248 -0.3267
 1473W        W44390  24.994   6.194  31.078 -0.0388  0.5019 -0.1732
 1474W        W44391  22.904   6.461  28.479 -0.2158 -0.2457 -0.0636
 1475W        W44392  20.878   5.379  28.711  0.2304  0.3573 -0.2825
 1476W        W44393  26.137   2.181  29.122  0.1780  0.0937  0.2687
 1477W        W44394  24.141   8.172  29.598  0.1718  0.1016  0.1849
 1478W        W44395  23.529   7.100  27.376 -0.3662 -0.1459 -0.0604
 1479W        W44396  25.258   3.920  30.046  0.1505 -0.1914  0.2375
 1480W        W44397  25.476   7.526  30.776  0.0118  0.5777 -0.1541
 1481W        W44398  24.491   6.825  27.376  0.0634  0.2524 -0.1993
 1482W        W44399  25.126   6.759  30.399  0.0757 -0.1704  0.1183
 1483W        W44400  21.994   8.396  29.396  0.2916 -0.2541  0.1613
 1484W        W44401  23.840   2.333  28.648 -0.4865 -0.0256  0.1275
 1485W        W44402  19.985   6.729  31.706  0.1056  0.3044  0.0803
 1486W        W44403  20.749   4.044  29.029  0.1463  0.3564  0.0586
 1487W        W44404  21.603   5.040  28.510 -0.0640  0.2786  0.2770
 1488W        W44405  24.344   3.368  28.130 -0.1593 -0.0667  0.0162
 1489W        W44406  24.254   6.402  27.792  0.0207 -0.0842 -0.0010
 1490W        W44407  22.282   3.988   0.211 -0.1175 -0.0767 -0.0342
 1491W        W44408  21.302   4.910  31.480  0.0236 -0.2799 -0.2117
 1492W        W44409  21.264   7.986  31.625  0.4276  0.0617  0.4061
 1493W        W44410  25.777   6.120   0.634  0.1928  0.1658 -0.0336
 1494W        W44411  23.905   5.563  28.308 -0.2087 -0.0835  0.0734
 1495W        W44412  23.419   7.609  30.849  0.0660  0.4392  0.2215
 1496W        W44413  23.376   5.564   0.145  0.0153  0.0122 -0.3973
 1497W        W44414  23.001   3.372  29.226  0.0808  0.2732 -0.1904
 1498W        W44415  25.327   5.968  28.555  0.0901  0.1378  0.2160
 1499W        W44416  22.813   4.759  31.168 -0.0764 -0.3243 -0.0513
 1500W        W44417  20.492   6.211  28.129  0.0525  0.1197  0.0574
 1501W        W44418  23.152   4.933  30.802 -0.1199  0.0751  0.0813
 1502W        W44419  23.416   6.098  27.664 -0.2266 -0.2843  0.1822
 1503W        W44420  22.544   6.956  27.070  0.1812 -0.2907 -0.0239
 1504W        W44421  23.602   4.347   0.727 -0.0628 -0.0393  0.0739
 1505W        W44422  25.200   6.702  30.919 -0.3300  0.0360 -0.0378
 1506W        W44423  22.091   6.249  29.714 -0.0950  0.2467 -0.0439
 1507W        W44424  22.532   6.743  28.308 -0.0158  0.1413 -0.1140
 1508W        W44425  24.454   5.192  29.910  0.3480  0.1026 -0.2381
 1509W        W44426  23.399   5.646  28.453 -0.0309 -0.1230 -0.0043
 1510W        W44427  25.148   5.671  29.404 -0.0494  0.2140 -0.0016
 1511W        W44428  23.166   5.461  30.835  0.3473  0.2364 -0.1549
 1512W        W44429  26.175   4.665  30.299  0.0653  0.0014  0.0178
 1513W        W44430  25.191   7.053  28.835  0.1959 -0.3730 -0.1341
 1514W        W44431  22.701   7.069  29.512  0.0371 -0.2815 -0.3596
 1515W        W44432  21.668   6.360  27.879  0.0813 -0.2170  0.0135
 1516W        W44433  21.953   4.640  30.046  0.1267 -0.4341  0.0140
 1517W        W44434  24.240   6.999  30.527  0.0650 -0.1050  0.2326
 1518W        W44435  25.751   4.938  31.424  0.1227  0.3669 -0.0534
 1519W        W44436  23.252   5.958  30.794 -0.0458 -0.0789  0.1386
 1520W        W44437  23.451   7.487  28.753  0.0255 -0.2948  0.1625
 1521W        W44438  21.426   5.975  31.329  0.0346  0.0708  0.1365
 1522W        W44439  24.141   4.557  28.873  0.1438 -0.1025  0.2755
 1523W        W44440  24.728   6.497  28.643 -0.0238  0.1485  0.0465
 1524W        W44441  23.575   5.822  30.052  0.0902  0.0397  0.2207
 1525W        W44442  24.641   5.691  29.094 -0.1302  0.1435 -0.2119
 1526W        W44443  24.340   4.269  28.255 -0.1979  0.0741  0.0173
 1527W        W44444  22.112   2.942  31.320  0.3789  0.0166 -0.3517
 1528W        W44445  23.958   5.341  31.022  0.2925  0.0103  0.0078
 1529W        W44446  25.096   6.040  29.068  0.2616  0.0175 -0.1317
 1530W        W44447  20.507   6.266   1.472 -0.1269 -0.0436 -0.1843
 1531W        W44448  25.437   7.503   0.704  0.2610 -0.2334  0.2687
 1532W        W44449  21.813   4.985   1.099  0.1753 -0.1329 -0.0516
 1533W        W44450  22.419   3.986  27.857  0.3399 -0.1267  0.2204
 1534W        W44451  22.835   4.237  28.138  0.2558  0.2624  0.3339
 1535W        W44452  20.961   5.386  30.106 -0.2122  0.1443 -0.0260
 1536W        W44453  26.078   5.214  29.367  0.4197  0.1007  0.0610
 1537W        W44454  21.992   6.615  27.432 -0.0993 -0.1303  0.0076
 1538W        W44455  25.452   3.620  29.232  0.0088 -0.1954  0.0367
 1539W        W44456  21.951   8.187  30.887  0.0344  0.0185  0.0899
 1540W        W44457  25.525   6.280  28.224 -0.2763  0.3192 -0.0631
 1541W        W44458  22.722   5.405  27.803  0.0378  0.0994 -0.0406
 1542W        W44459  22.272   6.035  30.211  0.0187  0.1743  0.2178
 1543W        W44460  23.331   3.878  30.690 -0.1992 -0.1449  0.1381
 1544W        W44461  25.091   4.029  28.018 -0.1652 -0.1024 -0.0312
 1545W        W44462  24.951   3.470  28.977 -0.3142 -0.0265  0.4658
 1546W        W44463  25.979   4.223  30.427 -0.2937  0.1159  0.0010
 1547W        W44464  25.667   5.420  31.272  0.1558 -0.0914  0.3804
 1548W        W44465  22.027   4.366  31.344 -0.1060  0.0396 -0.0635
 1549W        W44466  23.785   3.591  30.419  0.1195 -0.0379 -0.4086
 1550W        W44467  25.434   7.667  31.790  0.1744 -0.2625  0.2436
 1551W        W44468  25.110   4.803  26.638  0.1214  0.2076 -0.2099
 1552W        W44469  25.973   4.823  28.952 -0.0866 -0.0712  0.0513
 1553W        W44470  23.017   5.951  28.755  0.1181 -0.2072 -0.1430
 1554W        W44471  23.889   3.252  28.289 -0.0257 -0.2931  0.1721
 1555W        W44472  22.433   4.347  30.413 -0.1007  0.0972 -0.0518
 1556W        W44473  24.693   6.041   0.075  0.2611 -0.4436  0.2677
 1557W        W44474  23.430   3.372  26.775 -0.0705 -0.2494 -0.0712
 1558W        W44475  24.587   4.955  29.159  0.1232  0.3209  0.0413
 1559W        W44476  25.041   6.605  29.091 -0.1354  0.3488 -0.2832
 1560W        W44477  23.700   7.210  29.099 -0.0041 -0.0745  0.2799
 1561W        W44478  25.128   4.645  28.206 -0.2836  0.1283 -0.0374
 1562W        W44479  22.215   4.945  29.189 -0.2878  0.0032 -0.1190
 1563W        W44480  22.143   6.991  30.801  0.2437 -0.0208  0.0363
 1564W        W44481  21.963   4.649  27.713 -0.0828 -0.2593  0.0659
 1565W        W44482  25.644   7.190  28.038 -0.2639  0.0241  0.0509
 1566W        W44483  24.498   6.977  28.359  0.0551 -0.1304  0.0704
 1567W        W44484  23.393   6.740  31.315 -0.4447  0.2790 -0.0426
 1568W        W44485  27.024   2.315  29.042 -0.1867  0.2510 -0.2010
 1569W        W44486  24.742   5.867  29.625  0.3247 -0.1794 -0.3741
 1570W        W44487  24.010   7.228  28.267  0.0707 -0.3188  0.1701
 1571W        W44488  23.836   3.496  27.813  0.2056 -0.2163 -0.3001
 1572W        W44489  22.717   7.800  28.903 -0.2407 -0.2515  0.2097
 1573W        W44490  20.774   6.679  31.374 -0.0634 -0.3687  0.1850
 1574W        W44491  21.920   6.385  30.160  0.0951  0.0345  0.1210
 1575W        W44492  23.432   2.131  30.249 -0.4626 -0.2220  0.1395
 1576W        W44493  24.233   5.368  28.985  0.0735  0.3087 -0.2853
 1577W        W44494  23.429   6.465  29.537  0.1929 -0.0213  0.1657
 1578W        W44495  27.063   4.098  30.288 -0.5524 -0.0203 -0.0918
 1579W        W44496  25.076   5.093  29.137  0.0765  0.2506  0.0464
 1580W        W44497  21.170   4.408  31.489  0.1239 -0.2270 -0.0364
 1581W        W44498  24.428   6.151  31.245 -0.0470 -0.0165  0.0128
 1582W        W44499  24.474   5.499  28.219  0.1909  0.1460  0.1516
 1583W        W44500  25.494   6.650  31.774 -0.0476  0.1523  0.3959
 1584W        W44501  24.152   4.707  30.861 -0.3172  0.0129 -0.3908
 1585W        W44502  26.294   3.847  30.426 -0.0042  0.2626 -0.1007
 1586W        W44503  22.754   6.398  28.946  0.0926 -0.0637  0.0514
 1587W        W44504  22.613   6.634  29.871  0.1956 -0.0206 -0.0163
 1588W        W44505  24.038   6.904  29.255 -0.1107  0.0478  0.0981
 1589W        W44506  21.235   7.566   0.074  0.0590  0.0911  0.2665
 1590W        W44507  21.186   5.723   0.716  0.4597  0.0624  0.0687
 1591W        W44508  22.067   8.782  29.123  0.0722 -0.4068  0.2675
 1592W        W44509  24.648   4.891  27.085  0.1213  0.1619  0.0480
 1593W        W44510  23.840   7.422  29.595  0.0383 -0.1940 -0.0034
 1594W        W44511  23.222   8.463  29.961 -0.0760  0.0199 -0.0597
 1595W        W44512  20.796   3.447  27.288 -0.1138 -0.2878 -0.1552
 1596W        W44513  22.117   6.899   0.778  0.0375  0.0061 -0.1221
 1597W        W44514  22.185   6.691  29.400 -0.1107 -0.3118  0.0291
 1598W        W44515  24.967   6.809  28.378 -0.2023 -0.2617  0.1042
 1599W        W44516  21.771   6.378  29.335  0.3984  0.1579 -0.2716
 1600W        W44517  25.473   5.901   0.339  0.2622  0.0696 -0.1896
 1601W        W44518  23.344   4.064  27.510  0.1930  0.4502 -0.0299
 1602W        W44519  23.659   5.054  29.376 -0.1111 -0.0585  0.2471
 1603W        W44520  26.085   4.311  29.237 -0.2221  0.4172  0.0463
 1604W        W44521  22.814   7.109  30.064 -0.1995 -0.0873  0.0971
 1605W        W44522  21.746   4.952  29.424 -0.0389 -0.1677  0.1097
 1606W        W44523  22.992   2.926  28.777 -0.0356 -0.0757  0.0652
 1607W        W44524  24.230   6.052  29.505 -0.4693  0.0352 -0.1855
 1608W        W44525  25.499   4.926  29.004 -0.0229  0.1013 -0.0183
 1609W        W44526  20.461   9.281  31.421  0.0484 -0.0064  0.2187
 1610W        W44527  24.543   8.871  29.583 -0.1101  0.1364 -0.1847
 1611W        W44528  22.926   3.918  29.096  0.0381 -0.3330  0.0197
 1612W        W44529  23.474   4.006  31.201  0.2034  0.0525 -0.0198
 1613W        W44530  24.258   3.796  30.694  0.3735  0.3192 -0.1905
 1614W        W44531  22.834   6.638  27.864 -0.2271 -0.1286 -0.1833
 1615W        W44532  22.493   5.907  27.392  0.1127 -0.1177 -0.0081
 1616W        W44533  23.283   6.354  28.765 -0.2212 -0.1875 -0.1169
 1617W        W44534  24.251   6.567  28.870 -0.5108  0.0742  0.0826
 1618W        W44535  22.702   7.414  31.322  0.2303 -0.0006 -0.1561
 1619W        W44536  23.251   4.755  29.374  0.3017  0.3266 -0.0430
 1620W        W44537  24.622   3.209  29.159  0.1352 -0.0084 -0.2665
 1621W        W44538  23.475   5.149  31.052  0.1534 -0.0994 -0.2697
 1622W        W44539  23.369   4.462  29.846  0.0271  0.0447 -0.2229
 1623W        W44540  24.708   6.623  31.118 -0.2412  0.0674  0.3863
 1624W        W44541  25.797   4.695  29.432 -0.0680 -0.2024  0.1067
 1625W        W44542  22.227   5.371  31.037 -0.1222  0.0817  0.0613
 1626W        W44543  21.528   6.987  31.923 -0.1986  0.1836 -0.1073
 1627W        W44544  23.782   5.125  25.445 -0.1210 -0.0939  0.0340
 1628W        W44545  28.019   6.378  30.402  0.1839 -0.0186  0.1938
 1629W        W44546  25.210   4.994  28.628  0.1310  0.0524 -0.1615
 1630W        W44547  22.969   6.132  31.198  0.3479 -0.2265  0.6758
 1631W        W44548  25.924   4.330  28.732  0.1749  0.0692 -0.0896
 1632W        W44549  25.470   5.673  29.021 -0.2439  0.0412  0.2499
 1633W        W44550  22.347   7.266  30.014  0.0158 -0.0194  0.1903
 1634W        W44551  23.502   5.225  30.277 -0.2038  0.0561  0.1484
 1635W        W44552  24.320   7.780   0.777 -0.0845 -0.0488 -0.1610
 1636W        W44553  20.528   3.237  28.843 -0.0424  0.1008  0.1294
 1637W        W44554  25.590   7.962  28.539 -0.0722 -0.2276  0.0799
 1638W        W44555  25.507   6.503  30.567 -0.0889  0.1907 -0.1115
 1639W        W44556  23.740   8.060  26.936  0.2161 -0.0676  0.0048
 1640W        W44557  23.771   6.381  28.695 -0.0588  0.0481 -0.0360
 1641W        W44558  24.161   7.723  29.900 -0.0674  0.1111  0.0523
 1642W        W44559  21.111   4.637  31.929  0.0836 -0.1688  0.0798
 1643W        W44560  25.655   8.606  31.155 -0.0773 -0.4474 -0.2252
 1644W        W44561  25.904   6.039  29.034 -0.1260  0.1377  0.2532
 1645W        W44562  23.366   2.076  28.666 -0.3369  0.1990 -0.1975
 1646W        W44563  22.658   5.237  30.079  0.1307  0.2849 -0.1453
 1647W        W44564  21.262   6.530  27.493  0.0799  0.2409  0.1708
 1648W        W44565  26.318   4.093  28.527 -0.1325 -0.4232  0.0619
 1649W        W44566  23.870   5.662  29.218  0.0601  0.1234 -0.5211
 1650W        W44567  23.201   7.518  27.487 -0.1419  0.1895 -0.1020
 1651W        W44568  27.698   5.223  30.075 -0.0173 -0.0204  0.0244
 1652W        W44569  26.901   7.164  30.359  0.2033  0.1751  0.0314
 1653W        W44570  22.707   7.500  30.389  0.1709  0.1701 -0.1208
 1654W        W44571  23.602   5.660  27.911 -0.1341 -0.2671 -0.1913
 1655W        W44572  24.259   5.693  29.854  0.0777 -0.0861  0.1032
 1656W        W44573  24.180   7.412  29.189 -0.1144 -0.2647  0.2906
 1657W        W44574  24.015   9.326  30.222  0.4300 -0.0228  0.0824
 1658W        W44575  24.880   7.351  28.622 -0.0891 -0.2306  0.2334
 1659W        W44576  23.613   6.364  30.034  0.1689 -0.0459  0.1815
 1660W        W44577  24.122   6.533  30.249 -0.0931  0.0552  0.4997
 1661W        W44578  22.691   5.602  29.589 -0.1167  0.0302  0.0542
 1662W        W44579  24.316   3.593  29.110  0.0933  0.1038 -0.0368
 1663W        W44580  24.933   7.386  29.180  0.1704 -0.0306  0.0418
 1664W        W44581  23.987   5.967  31.438  0.0703 -0.3678  0.1453
 1665W        W44582  20.423   6.120  27.241 -0.0884  0.3962  0.0761
 1666W        W44583  20.972   6.192  26.871 -0.0031  0.0447  0.0786
 1667W        W44584  21.785   5.932  29.987 -0.0117 -0.1248 -0.1645
 1668W        W44585  24.538   3.948  29.828  0.1628 -0.0474 -0.0781
 1669W        W44586  22.331   4.025  31.114  0.1276 -0.0167 -0.1475
 1670W        W44587  21.813   5.367  28.125 -0.1391  0.2090 -0.1810
 1671W        W44588  22.398   3.984  29.359  0.2577  0.2298 -0.2450
 1672W        W44589  25.745   5.795  28.626  0.1016  0.2503 -0.1246
 1673W        W44590  24.186   3.922  30.175 -0.2503  0.0314  0.1013
 1674W        W44591  22.000   4.159  28.816  0.2274 -0.0965  0.1092
 1675W        W44592  24.129   6.129  28.436 -0.0849 -0.1628 -0.0617
 1676W        W44593  25.632   6.830  28.882  0.0722 -0.1562  0.2566
 1677W        W44594  23.754   4.890  28.876 -0.1209  0.0187 -0.0326
 1678W        W44595  22.951   8.199   0.052 -0.1333  0.2657  0.0358
 1679W        W44596  21.576   7.914  28.695 -0.1635  0.0053 -0.2445
 1680W        W44597  22.503   4.757  30.070 -0.0968 -0.1379 -0.3297
 1681W        W44598  21.693   5.893  28.945  0.1974  0.0826  0.3777
 1682W        W44599  23.215   5.570  29.276  0.2902  0.2141  0.0279
 1683W        W44600  24.199   4.181  29.191 -0.2878 -0.1232 -0.0945
 1684W        W44601  22.220   6.722  28.647 -0.0079 -0.0240 -0.1381
 1685W        W44602  24.264   5.336  26.608  0.3389 -0.0024 -0.0371
 1686W        W44603  25.152   3.370  30.764 -0.0390 -0.0351  0.0236
 1687W        W44604  23.001   5.051  30.360  0.2114 -0.3039  0.3029
 1688W        W44605  21.760   2.052  31.725  0.0771 -0.0586  0.1022
 1689W        W44606  25.481   8.914  30.088  0.1526 -0.0504 -0.0823
 1690W        W44607  22.720   5.808  30.143 -0.0386  0.1539 -0.0312
 1691W        W44608  26.444   6.646  28.524 -0.0791 -0.1798  0.1060
 1692W        W44609  25.993   6.440  28.290  0.1560  0.1089  0.3490
 1693W        W44610  22.182   5.803  28.951  0.1985  0.1181 -0.1182
 1694W        W44611  22.047   4.346   0.455  0.0855 -0.0583 -0.3939
 1695W        W44612  22.284   5.642  31.404  0.1527 -0.4443 -0.0507
 1696W        W44613  24.622   6.049  30.759 -0.0140 -0.3414 -0.2676
 1697W        W44614  22.129   7.197  28.904 -0.0741 -0.1410 -0.2368
 1698W        W44615  24.695   4.801  29.744 -0.0787 -0.3130  0.1588
 1699W        W44616  24.674   7.268  27.980  0.0212  0.1209  0.1383
 1700W        W44617  23.249   4.506  31.233 -0.3205 -0.0667  0.2655
 1701W        W44618  23.152   4.798  26.971  0.1209  0.1249  0.0631
 1702W        W44619  23.050   6.323  29.844  0.1991  0.1151  0.0663
 1703W        W44620  23.734   4.874  29.854 -0.2500 -0.1842 -0.0979
 1704W        W44621  25.666   6.502  31.291 -0.3648 -0.0773  0.0422
 1705W        W44622  23.020   5.810  27.767  0.5772  0.0619  0.0574
 1706W        W44623  25.068   6.573  29.852  0.2602 -0.2451 -0.2977
 1707W        W44624  24.837   8.221  30.575  0.1722 -0.1031 -0.0341
 1708W        W44625  23.914   6.857  30.954  0.2892 -0.0431  0.0457
 1709W        W44626  23.114   8.009  31.236 -0.0808  0.0230 -0.0567
 1710W        W44627  25.991   6.358  29.497  0.1331  0.0705  0.1980
 1711W        W44628  22.203   2.949  30.271  0.1163  0.0811 -0.1887
 1712W        W44629  21.290   6.815  31.514  0.1217 -0.0174  0.4261
 1713W        W44630  24.375   7.279  31.608  0.0013  0.5083 -0.0947
 1714W        W44631  25.184   2.543  31.269  0.0643  0.0597 -0.0327
 1715W        W44632  21.525   4.440  29.512 -0.0410 -0.3714  0.1260
 1716W        W44633  22.611   4.986  28.727  0.0919  0.1068  0.1498
 1717W        W44634  23.736   7.128  30.493 -0.3555 -0.3397 -0.2085
 1718W        W44635  22.313   6.254  27.758  0.2922 -0.0410  0.1549
 1719W        W44636  24.593   6.984  29.061  0.0425 -0.0801 -0.0604
 1720W        W44637  25.511   5.447  30.427 -0.1268  0.2888 -0.3514
 1721W        W44638  24.959   2.452  30.823  0.0742  0.0874 -0.1695
 1722W        W44639  20.213   5.681   2.249  0.0809 -0.0450 -0.1390
 1723W        W44640  21.474   6.315  30.940 -0.0455 -0.0706 -0.0785
 1724W        W44641  21.202   6.551   0.981 -0.1431 -0.0774 -0.1200
 1725W        W44642  25.813   5.997  31.268  0.0034  0.3332 -0.2839
 1726W        W44643  24.067   5.829  30.866  0.2979 -0.0261 -0.1255
 1727W        W44644  25.954   3.146   0.531 -0.0034  0.3050 -0.1756
 1728W        W44645  22.781   6.516  29.428 -0.0871  0.2388 -0.0370
 1729W        W44646  25.125   6.949  31.948 -0.2426 -0.0150  0.2289
 1730W        W44647  22.891   5.279   0.365 -0.3374  0.2366 -0.1239
 1731W        W44648  23.468   9.361   0.006 -0.0889  0.0596 -0.1225
 1732W        W44649  23.684   4.558  30.935  0.1710  0.1149 -0.2959
 1733W        W44650  25.117   4.002   1.816 -0.0725  0.2751 -0.1545
 1734W        W44651  21.605   7.024   0.990 -0.0113 -0.0809 -0.0318
 1735W        W44652  21.977   6.984   0.255 -0.1117 -0.0019  0.0407
 1736W        W44653  23.339   7.180  30.005  0.0374  0.2213  0.1255
 1737W        W44654  22.398   5.342   0.283 -0.1500  0.2999  0.2241
 1738W        W44655  20.996   5.157   0.022  0.0429  0.0280 -0.1516
 1739W        W44656  22.815   4.402  31.489  0.3657  0.2633 -0.1240
 1740W        W44657  23.606   5.545   1.068 -0.1866  0.1118 -0.4152
 1741W        W44658  25.575   4.228  31.715  0.0947  0.0852  0.3309
 1742W        W44659  24.697   5.138  30.356 -0.1799  0.1569  0.2837
 1743W        W44660  25.378   5.213  30.923 -0.0235  0.1420 -0.1110
 1744W        W44661  23.291   6.268   0.503  0.1031  0.0245 -0.0599
 1745W        W44662  23.886   4.935  31.299 -0.1779 -0.1504  0.0757
 1746W        W44663  18.059   7.871  31.752  0.0423 -0.1856  0.0281
 1747W        W44664  21.598   4.506   0.217 -0.0170  0.0282 -0.1593
 1748W        W44665  22.866   4.999   0.956  0.1139 -0.3470 -0.0832
 1749W        W44666  23.792   6.605  31.594 -0.0188 -0.0055  0.0368
 1750W        W44667  23.003   3.579   0.273 -0.1664 -0.2508  0.0613
 1751W        W44668  23.010   4.893  31.621  0.0629 -0.0022  0.2682
 1752W        W44669  25.682   4.791   1.006 -0.3753  0.2604 -0.2954
 1753W        W44670  23.488   3.837  31.922 -0.2365 -0.0832  0.1778
 1754W        W44671  23.666   6.023   1.278 -0.0991 -0.1682 -0.1022
 1755W        W44672  22.351   7.432   0.702  0.0290 -0.0399 -0.0073
 1756W        W44673  23.975   7.258  30.045  0.0034  0.2273  0.0321
 1757W        W44674  24.784   7.105  31.113 -0.0576 -0.2625  0.1592
 1758W        W44675  24.306   8.217  30.523  0.1650  0.1805  0.1676
 1759W        W44676  25.147   6.747  31.427 -0.0581  0.1108 -0.0443
 1760W        W44677  23.254   4.901  29.987  0.0076  0.3321  0.1262
 1761W        W44678  23.536   4.300   0.225  0.2251 -0.1164  0.0465
 1762W        W44679  23.503   7.394  31.814 -0.2535  0.0609  0.2371
 1763W        W44680  23.858   4.672  31.874  0.1117 -0.3980  0.0951
 1764W        W44681  23.710   5.547  30.663  0.1208 -0.0178  0.3614
 1765W        W44682  22.558   5.036  29.592  0.1497  0.1330  0.0886
 1766W        W44683  21.921   6.493  31.902  0.0356 -0.0956  0.0604
 1767W        W44684  25.018   5.174   0.253 -0.1786  0.0878  0.1294
 1768W        W44685  22.558   8.270   2.456 -0.1426 -0.1293 -0.2545
 1769W        W44686  25.419   8.282   1.857  0.0065 -0.0396  0.1997
 1770W        W44687  24.384   1.836  31.158 -0.0183 -0.1925 -0.2120
 1771W        W44688  24.533   4.269  31.659  0.0761  0.0580 -0.0534
 1772W        W44689  21.929   5.929  31.114  0.2341  0.0840  0.2356
 1773W        W44690  25.230   6.708   0.401 -0.1021  0.0323 -0.0146
 1774W        W44691  23.836   4.338  30.109 -0.0020  0.1797  0.0596
 1775W        W44692  26.105   7.076  31.954  0.1884  0.2126 -0.0005
 1776W        W44693  23.217   6.275  31.583  0.0113 -0.0162 -0.2759
 1777W        W44694  20.313   8.253  31.372 -0.2012  0.1791 -0.1471
 1778W        W44695  22.218   5.271  31.805 -0.0215  0.0998  0.2793
 1779W        W44696  21.432   6.054   0.417  0.1127 -0.0605 -0.0659
 1780W        W44697  21.460   5.194  31.110  0.0108  0.0418  0.1362
 1781W        W44698  21.965   5.990   0.306  0.0775 -0.0089 -0.3774
 1782W        W44699  21.778   3.384  31.544 -0.2189  0.1149  0.0313
 1783W        W44700  26.717   9.212   0.041  0.0786 -0.0118  0.0948
 1784W        W44701  24.175   6.999   0.422 -0.0031  0.0411  0.0117
 1785W        W44702  25.995   6.756   1.121 -0.0837 -0.0887  0.0190
 1786W        W44703  24.098   8.293  20.152  0.0166  0.3916  0.3287
 1787W        W44704  22.614  11.257  16.761  0.1032  0.1724  0.1997
 1788W        W44705  24.599   8.140  17.078 -0.2296 -0.1160 -0.1841
 1789W        W44706  23.649   8.679  18.933 -0.1005  0.0736  0.0542
 1790W        W44707  21.346   6.764  18.697 -0.2234 -0.3263 -0.0755
 1791W        W44708  25.860  11.382  16.640 -0.1239  0.2271  0.0168
 1792W        W44709  20.847   9.210  19.376 -0.1198  0.0403  0.1027
 1793W        W44710  22.217  10.026  17.356  0.1162 -0.4296  0.0137
 1794W        W44711  25.222   9.939  19.201  0.2289  0.1729 -0.3130
 1795W        W44712  23.913   9.414  17.129  0.1783  0.1288 -0.2543
 1796W        W44713  23.341   7.494  20.317 -0.1051  0.2311  0.0009
 1797W        W44714  23.226  10.084  19.931 -0.1098  0.3139 -0.3697
 1798W        W44715  23.057   6.735  16.282  0.0750  0.0240 -0.2569
 1799W        W44716  22.960   7.849  18.668 -0.1410 -0.0479 -0.4654
 1800W        W44717  22.876   8.982  17.857 -0.2269  0.3527  0.2570
 1801W        W44718  19.998   8.426  17.000  0.0100  0.1998 -0.2020
 1802W        W44719  22.539   9.266  16.993 -0.0782  0.1165  0.2007
 1803W        W44720  22.692   7.619  16.312 -0.1281 -0.3004  0.0919
 1804W        W44721  23.425  11.374  17.229 -0.3239  0.0567  0.0324
 1805W        W44722  23.971   6.968  18.299  0.1404 -0.2064 -0.2029
 1806W        W44723  24.654   8.709  19.612 -0.3183  0.2811 -0.1945
 1807W        W44724  23.608   9.887  17.021  0.4694  0.4325 -0.0445
 1808W        W44725  23.320   8.887  17.461 -0.0949  0.0824 -0.2421
 1809W        W44726  21.138  10.528  16.790 -0.1870 -0.2798 -0.2179
 1810W        W44727  24.589   8.288  19.352  0.1298  0.2353  0.0462
 1811W        W44728  23.611   8.359  19.264 -0.1674  0.0685  0.1775
 1812W        W44729  24.091   8.016  17.830 -0.1977  0.0095 -0.0548
 1813W        W44730  24.887  11.280  17.328 -0.0118 -0.0631 -0.0824
 1814W        W44731  24.895  12.103  17.824  0.1212  0.1036  0.2021
 1815W        W44732  24.577   9.774  20.267 -0.2832  0.4246  0.1701
 1816W        W44733  20.955   9.097  17.069 -0.2149 -0.0512  0.1044
 1817W        W44734  22.418  11.623  17.523  0.1900 -0.1247  0.2779
 1818W        W44735  22.318  11.859  17.967 -0.0060  0.0905 -0.1144
 1819W        W44736  25.318  10.583  17.316 -0.0684  0.0098 -0.1845
 1820W        W44737  24.849  10.627  19.892 -0.2403 -0.1455 -0.0051
 1821W        W44738  21.098  11.048  20.652  0.1632 -0.1844 -0.1161
 1822W        W44739  23.097  10.143  16.261 -0.2190 -0.1314 -0.2414
 1823W        W44740  23.062  10.915  18.417  0.3664  0.2887  0.1174
 1824W        W44741  21.512  10.317  20.107 -0.0455 -0.1285 -0.2123
 1825W        W44742  23.865   9.436  18.117 -0.1504  0.1470 -0.3577
 1826W        W44743  25.304  10.786  18.252 -0.0075  0.0674  0.0388
 1827W        W44744  25.033  10.926  17.809 -0.2820  0.0622  0.3140
 1828W        W44745  21.779  10.681  18.084 -0.0665 -0.0094  0.0241
 1829W        W44746  22.046  10.459  20.380  0.1129  0.1854 -0.1986
 1830W        W44747  21.406   7.811  18.688 -0.1681  0.1020  0.1372
 1831W        W44748  24.857   6.818  20.946 -0.1146 -0.0644  0.0221
 1832W        W44749  20.349  10.777  17.561  0.2654  0.1134 -0.0115
 1833W        W44750  22.363  10.344  16.213 -0.1444 -0.0001  0.0271
 1834W        W44751  23.829   9.502  16.289  0.0879  0.1516  0.3245
 1835W        W44752  24.130   7.404  17.925  0.1578  0.0559 -0.2102
 1836W        W44753  20.859   9.279  17.482 -0.3325 -0.1606  0.1548
 1837W        W44754  22.729   9.776  18.979  0.0087 -0.0566 -0.0947
 1838W        W44755  21.786   8.087  17.567  0.1871  0.0999  0.0113
 1839W        W44756  24.346  11.384  20.180  0.0258  0.0492 -0.0593
 1840W        W44757  23.217  10.011  16.711  0.3303  0.1301 -0.1791
 1841W        W44758  22.895   6.412  18.673 -0.1024  0.0868  0.1141
 1842W        W44759  22.711   9.170  21.724  0.2736 -0.3812  0.0094
 1843W        W44760  20.688   8.146  16.438 -0.0553  0.1489 -0.0206
 1844W        W44761  24.826  10.674  17.163  0.0510 -0.0206  0.1035
 1845W        W44762  25.212  10.419  19.556 -0.1105  0.2565 -0.3671
 1846W        W44763  24.492  11.512  17.051  0.0343 -0.0082 -0.2218
 1847W        W44764  23.192   8.471  16.114 -0.1242 -0.0038 -0.1625
 1848W        W44765  23.750   9.634  21.238  0.0637  0.2070  0.2651
 1849W        W44766  21.152   8.571  20.044 -0.1100 -0.0840  0.2268
 1850W        W44767  21.767   7.412  15.700 -0.4775 -0.2887 -0.1610
 1851W        W44768  26.151   9.953  19.116 -0.0204  0.1510 -0.1359
 1852W        W44769  22.784   9.672  21.697 -0.3638  0.1273  0.2930
 1853W        W44770  24.957   7.752  17.804 -0.0734 -0.3560  0.1160
 1854W        W44771  21.305   9.506  17.761 -0.0115  0.1065  0.2341
 1855W        W44772  23.421  12.780  17.093 -0.0297  0.0768  0.1035
 1856W        W44773  24.226   9.048  16.310 -0.2016 -0.2106 -0.1914
 1857W        W44774  25.726   7.800  19.769 -0.0878  0.2988  0.0290
 1858W        W44775  24.169   6.244  21.142  0.0893 -0.0139 -0.0290
 1859W        W44776  22.820  10.207  15.873 -0.0646 -0.0692 -0.3073
 1860W        W44777  20.654   9.605  19.476 -0.0418 -0.1551 -0.2195
 1861W        W44778  26.810  10.175  19.620 -0.0400 -0.0201 -0.0983
 1862W        W44779  24.304   8.790  18.249  0.3132  0.1484  0.0842
 1863W        W44780  24.401   8.285  18.108 -0.1668  0.1434 -0.1367
 1864W        W44781  24.024   7.982  18.333  0.0115  0.0720  0.1700
 1865W        W44782  23.848  10.344  21.133 -0.4264 -0.1457  0.0110
 1866W        W44783  22.562   9.898  16.194  0.2091 -0.0532 -0.1109
 1867W        W44784  20.079   9.741  17.342 -0.1603 -0.2337 -0.1213
 1868W        W44785  21.971   9.583  17.200  0.0661 -0.0481  0.3034
 1869W        W44786  21.993   8.428  18.447 -0.1006  0.3595 -0.3740
 1870W        W44787  22.354   8.483  20.385 -0.0120 -0.2112  0.0293
 1871W        W44788  24.472   7.709  18.089 -0.0646 -0.1352 -0.1878
 1872W        W44789  20.165   8.599  19.130  0.3110  0.1480 -0.2032
 1873W        W44790  24.886   8.213  18.945  0.1009 -0.0932 -0.0538
 1874W        W44791  22.757  12.134  17.092 -0.0607 -0.4544  0.0579
 1875W        W44792  22.982  10.487  16.748 -0.1988  0.1938 -0.5415
 1876W        W44793  23.564   9.612  17.766  0.0994 -0.0497  0.0950
 1877W        W44794  25.200   9.810  16.700 -0.0967 -0.0796  0.0987
 1878W        W44795  19.395   6.061  19.319  0.0613 -0.4156  0.0009
 1879W        W44796  22.035   8.530  17.651  0.1143 -0.1730  0.1410
 1880W        W44797  21.685   8.404  21.627 -0.3051  0.1653 -0.0595
 1881W        W44798  21.314   7.367  19.436  0.1612  0.3586  0.3645
 1882W        W44799  25.447   8.748  21.311  0.1039 -0.3222  0.2026
 1883W        W44800  22.571   7.249  19.086  0.1106 -0.2816  0.0123
 1884W        W44801  24.231  10.176  17.548 -0.0309  0.0265 -0.0365
 1885W        W44802  23.720  10.081  17.551  0.0214 -0.0685 -0.0367
 1886W        W44803  22.043   8.148  16.677 -0.0527  0.2344  0.1942
 1887W        W44804  25.637   8.232  20.944  0.0697  0.2218 -0.0142
 1888W        W44805  25.404  12.347  17.109  0.0988  0.0778  0.0998
 1889W        W44806  24.514  11.482  19.263  0.1233 -0.3758 -0.0334
 1890W        W44807  24.829  12.373  16.325 -0.1669 -0.5414 -0.1701
 1891W        W44808  23.667   8.314  21.021 -0.0025  0.1999 -0.0322
 1892W        W44809  22.720   7.121  16.175  0.2416 -0.0263 -0.1018
 1893W        W44810  22.046  10.905  17.318  0.0168 -0.3484  0.1705
 1894W        W44811  21.909   9.507  18.648  0.1081 -0.0951  0.0192
 1895W        W44812  22.215   7.489  16.191  0.1780  0.1486  0.1777
 1896W        W44813  25.023  11.627  17.695  0.4675 -0.1217 -0.1589
 1897W        W44814  23.838  11.130  17.469 -0.0273 -0.0684  0.0636
 1898W        W44815  22.915   8.638  20.346 -0.0413 -0.0831 -0.1248
 1899W        W44816  24.854   6.624  17.889 -0.4299 -0.1067  0.0793
 1900W        W44817  24.547   7.883  19.025  0.0007 -0.0421 -0.4785
 1901W        W44818  23.051   8.737  18.906  0.2777 -0.1100 -0.6061
 1902W        W44819  21.983   9.003  16.857  0.2044 -0.1595  0.2165
 1903W        W44820  24.103  11.707  18.546 -0.1865  0.0387  0.2795
 1904W        W44821  21.138   9.998  16.942  0.4513 -0.0935 -0.0922
 1905W        W44822  20.990   7.307  16.845 -0.3152 -0.0348  0.2964
 1906W        W44823  21.929  12.431  17.093  0.0600 -0.0080  0.0603
 1907W        W44824  25.369   7.992  17.973  0.0042  0.1622  0.3810
 1908W        W44825  21.205   8.640  21.770 -0.4031  0.0919 -0.4474
 1909W        W44826  24.173   8.206  17.351 -0.2606  0.0480  0.1444
 1910W        W44827  21.384   7.669  16.228 -0.0177  0.1831  0.0858
 1911W        W44828  21.306  10.090  20.512  0.2441  0.2020 -0.1325
 1912W        W44829  23.401   7.400  17.616  0.3354 -0.0306 -0.3071
 1913W        W44830  24.653   7.956  18.491 -0.3318  0.0070 -0.0618
 1914W        W44831  23.038   7.621  19.574  0.4209 -0.1303 -0.4017
 1915W        W44832  24.233  10.233  16.749  0.0922  0.0058 -0.0201
 1916W        W44833  25.084   8.302  17.151 -0.0123  0.0531 -0.0657
 1917W        W44834  24.174   6.854  17.213  0.0531 -0.0131 -0.6425
 1918W        W44835  21.949  10.101  21.764  0.2450 -0.0254 -0.2969
 1919W        W44836  22.476  11.762  17.014 -0.2699 -0.1588  0.1867
 1920W        W44837  21.842  10.186  17.828  0.2492  0.1162 -0.0647
 1921W        W44838  23.359   7.966  16.050 -0.5445  0.5061 -0.0904
 1922W        W44839  25.977  10.944  19.094  0.0651 -0.1044  0.1578
 1923W        W44840  21.546   9.050  18.748  0.1992 -0.2353 -0.3328
 1924W        W44841  25.113  10.356  20.554  0.0453  0.1711 -0.2899
 1925W        W44842  25.267  10.455  17.894  0.1074  0.1108  0.1028
 1926W        W44843  22.921   7.327  18.657  0.0699 -0.0370  0.1118
 1927W        W44844  22.468  10.294  16.927 -0.0580  0.2940 -0.0329
 1928W        W44845  23.426   7.711  16.892 -0.2575  0.1180  0.1044
 1929W        W44846  23.168  11.395  16.620  0.2235 -0.1073 -0.0393
 1930W        W44847  22.826   5.254  19.269  0.1916 -0.1015  0.1017
 1931W        W44848  22.197   7.481  18.737 -0.1826  0.2639  0.1152
 1932W        W44849  23.110   9.523  19.353 -0.0297 -0.2407  0.0150
 1933W        W44850  25.016   7.206  19.567 -0.2421  0.1986 -0.2337
 1934W        W44851  24.762   9.608  19.101  0.0150  0.1211 -0.1841
 1935W        W44852  24.147   9.671  17.636  0.2163  0.0030  0.2133
 1936W        W44853  21.866   7.709  16.475  0.4039  0.1835 -0.1483
 1937W        W44854  23.368   9.203  18.053 -0.1891 -0.1796 -0.0536
 1938W        W44855  22.476   8.648  18.425 -0.0126 -0.0288 -0.0870
 1939W        W44856  21.187   9.029  17.784 -0.1118  0.2813  0.1013
 1940W        W44857  24.763  11.127  19.806  0.0738  0.0190 -0.0131
 1941W        W44858  21.023   7.094  17.953  0.0937  0.1837 -0.4850
 1942W        W44859  21.950   7.438  20.443  0.1236  0.1944  0.0188
 1943W        W44860  23.037   7.573  17.166 -0.0272  0.1557  0.4147
 1944W        W44861  21.411  11.881  15.780 -0.3701  0.1159 -0.1155
 1945W        W44862  22.947   9.645  16.929 -0.0816  0.5821 -0.0869
 1946W        W44863  23.134   8.093  19.610  0.0865  0.2746  0.3774
 1947W        W44864  24.538   9.724  18.544 -0.2308 -0.2155  0.0109
 1948W        W44865  21.661  10.316  16.147  0.1102  0.0021 -0.2678
 1949W        W44866  23.691   9.444  20.330 -0.1003 -0.2559 -0.0687
 1950W        W44867  21.821   8.677  16.017 -0.0408 -0.0769 -0.1356
 1951W        W44868  25.165   8.531  18.365 -0.4167 -0.2954  0.2550
 1952W        W44869  23.006   8.669  17.136  0.0679  0.3519  0.2112
 1953W        W44870  22.193   9.227  15.857 -0.2828 -0.0222 -0.2224
 1954W        W44871  19.217   9.709  16.794 -0.1001 -0.0469 -0.1093
 1955W        W44872  23.748   9.128  19.953 -0.0922  0.1563  0.2288
 1956W        W44873  24.576   9.012  17.054  0.0073  0.0244 -0.1205
 1957W        W44874  20.909   6.989  18.503  0.0172  0.1924  0.2814
 1958W        W44875  22.887   7.891  16.788  0.0353 -0.1428  0.2771
 1959W        W44876  22.082   9.133  21.120  0.1250  0.0087 -0.0407
 1960W        W44877  22.597   8.111  21.102  0.0163 -0.1630  0.2756
 1961W        W44878  24.765   8.551  16.834 -0.0988 -0.1166  0.1117
 1962W        W44879  24.928  11.611  18.220 -0.1153 -0.1383  0.2256
 1963W        W44880  22.642   8.593  19.245 -0.2002 -0.0402 -0.0823
 1964W        W44881  20.577   8.073  17.795  0.1617 -0.0621  0.1036
 1965W        W44882  26.144   8.161  19.551  0.0875  0.1493 -0.0465
 1966W        W44883  22.691   8.293  18.781  0.1337 -0.2256 -0.1255
 1967W        W44884  23.208   9.897  17.390  0.0812  0.1672 -0.0270
 1968W        W44885  23.925  11.021  20.299  0.0102 -0.0359  0.3190
 1969W        W44886  21.202   6.810  16.591 -0.0580  0.1353 -0.0949
 1970W        W44887  24.829  12.248  18.526  0.0049  0.0864 -0.1729
 1971W        W44888  22.905   7.267  20.607  0.2494  0.0160 -0.0207
 1972W        W44889  22.818   8.108  17.845  0.0832  0.1052  0.0795
 1973W        W44890  22.426   8.303  17.536  0.0465 -0.0069  0.3847
 1974W        W44891  20.973   7.703  16.496 -0.1847  0.2146  0.0340
 1975W        W44892  23.156   9.629  18.751  0.2721 -0.0853  0.3507
 1976W        W44893  24.048  10.798  21.306  0.0087  0.3695  0.0606
 1977W        W44894  24.428   7.410  19.776  0.0660 -0.1489 -0.4345
 1978W        W44895  23.209   8.319  22.291  0.0467  0.1827 -0.0391
 1979W        W44896  23.434   7.135  18.501  0.1856 -0.1163  0.4089
 1980W        W44897  24.581   9.933  16.984  0.2510  0.2318 -0.2626
 1981W        W44898  22.629   9.414  17.950 -0.0493  0.0958  0.2577
 1982W        W44899  21.824   9.038  16.386 -0.1823 -0.0341  0.0141
 1983W        W44900  21.568   8.239  21.052 -0.0558  0.2779 -0.0099
 1984W        W44901  21.232  11.277  17.315 -0.0916 -0.1076 -0.1375
 1985W        W44902  20.200   8.796  19.808  0.0063  0.0446 -0.0063
 1986W        W44903  22.540   8.560  17.942 -0.2059 -0.0320 -0.2226
 1987W        W44904  22.971  10.927  16.573  0.2449  0.0896 -0.0442
 1988W        W44905  20.925  10.632  18.636  0.0678  0.2196 -0.0479
 1989W        W44906  25.453   5.296  18.508 -0.1670  0.0998  0.0492
 1990W        W44907  23.745  10.011  16.506  0.0918 -0.2908  0.0179
 1991W        W44908  23.172   7.656  16.416 -0.2911 -0.0394  0.1848
 1992W        W44909  26.113   8.383  20.874  0.0380 -0.1584  0.0442
 1993W        W44910  23.260  10.445  15.739 -0.1258  0.0278  0.1220
 1994W        W44911  22.329   7.723  21.426 -0.0749  0.2070  0.0597
 1995W        W44912  21.085   7.601  19.046 -0.0975  0.1696 -0.0361
 1996W        W44913  22.074   9.029  18.538  0.0126  0.5042 -0.1504
 1997W        W44914  21.114   6.169  18.166  0.1290 -0.0853 -0.0126
 1998W        W44915  23.332  10.106  17.870 -0.2921 -0.2057  0.0155
 1999W        W44916  21.627   8.742  19.847 -0.0870 -0.0464 -0.2590
 2000W        W44917  23.880   7.483  18.442  0.2931 -0.1788 -0.0724
 2001W        W44918  22.512   5.069  18.154  0.1329  0.2196 -0.0934
 2002W        W44919  22.320   8.985  19.431 -0.1724 -0.2454  0.2237
 2003W        W44920  23.977  11.186  18.485 -0.2194 -0.3184 -0.2166
 2004W        W44921  22.884  10.673  17.175  0.3333  0.1776  0.1283
 2005W        W44922  23.734   8.110  18.859  0.0662  0.0887 -0.0062
 2006W        W44923  23.198   8.615  19.411 -0.0930  0.1744  0.1262
 2007W        W44924  23.853  10.737  18.392 -0.2879  0.1220  0.4932
 2008W        W44925  22.922   9.231  16.623  0.0167 -0.1027  0.2109
 2009W        W44926  21.622   8.536  18.076  0.1550 -0.0984  0.0075
 2010W        W44927  22.661   8.438  21.642  0.1160 -0.1076  0.1602
 2011W        W44928  25.016   9.249  18.056  0.2652  0.1312  0.1216
 2012W        W44929  22.990   5.476  18.814  0.1527  0.2159 -0.1304
 2013W        W44930  22.893   8.443  18.273 -0.1535 -0.3904  0.1303
 2014W        W44931  23.482   7.686  19.745 -0.0208 -0.0696  0.1986
 2015W        W44932  22.098  10.793  18.454 -0.0548  0.4097  0.1859
 2016W        W44933  20.870   8.522  22.184  0.1222 -0.2065 -0.0003
 2017W        W44934  22.787  10.381  18.086 -0.1056 -0.0536  0.1864
 2018W        W44935  26.126   7.833  16.485 -0.3228 -0.2204 -0.1106
 2019W        W44936  23.437   9.877  19.544  0.2580  0.2094  0.4408
 2020W        W44937  23.803   8.648  17.517  0.0176  0.0233  0.2157
 2021W        W44938  23.800   7.147  17.485 -0.2578  0.1579 -0.1363
 2022W        W44939  21.560   9.393  17.370  0.1601  0.2930  0.2101
 2023W        W44940  23.661  11.570  18.651  0.1690 -0.5214 -0.0708
 2024W        W44941  23.269   9.186  16.261 -0.0459 -0.3112  0.1303
 2025W        W44942  23.648   9.424  19.409 -0.0879  0.0554  0.0479
 2026W        W44943  21.365  10.804  17.185 -0.0573 -0.2644 -0.2417
 2027W        W44944  23.360  10.350  17.156  0.2049 -0.0290 -0.0428
 2028W        W44945  23.856   8.709  17.018  0.2931  0.0673  0.1163
 2029W        W44946  20.575   7.183  17.703 -0.2265  0.0176 -0.0253
 2030W        W44947  22.230  10.940  17.942 -0.0439  0.2346 -0.3455
 2031W        W44948  23.810   7.415  17.082 -0.1078  0.0008 -0.2309
 2032W        W44949  22.404   9.757  16.926 -0.2811  0.0977  0.0943
 2033W        W44950  23.855   7.537  19.158 -0.0141  0.0080  0.2066
 2034W        W44951  26.224   8.720  20.081  0.5855  0.0093 -0.1101
 2035W        W44952  23.276   6.378  17.347  0.1420 -0.0535 -0.0995
 2036W        W44953  23.419   9.540  20.772 -0.1449 -0.1115 -0.0589
 2037W        W44954  21.059  11.197  17.930  0.0082 -0.0505  0.1474
 2038W        W44955  23.427   8.443  16.916  0.0307  0.0911  0.1622
 2039W        W44956  22.949   9.171  17.228 -0.1834 -0.0101  0.0794
 2040W        W44957  21.863   9.995  16.936  0.2326 -0.0310 -0.3599
 2041W        W44958  22.679  12.013  17.668 -0.2706  0.2318  0.0113
 2042W        W44959  23.764   7.322  20.034  0.0070 -0.1675  0.3091
 2043W        W44960  22.951   8.939  18.383  0.0368  0.0457 -0.0432
 2044W        W44961  20.341   9.114  18.395 -0.0231  0.1724  0.0841
 2045W        W44962  25.743   9.697  19.749 -0.0350 -0.0079  0.3865
 2046W        W44963  24.811   8.909  18.452 -0.0623  0.3634 -0.3113
 2047W        W44964  22.316   9.781  18.564  0.1311 -0.1223 -0.0213
 2048W        W44965  24.295   9.542  19.049  0.3023 -0.1946  0.0391
 2049W        W44966  25.598  10.892  18.764  0.1450 -0.0458  0.0028
 2050W        W44967  22.986  11.189  17.023 -0.3365  0.0017  0.1895
 2051W        W44968  21.439   9.997  23.204 -0.1820  0.0033 -0.2278
 2052W        W44969  24.166   7.330  20.694 -0.0488  0.2104 -0.1115
 2053W        W44970  21.428  10.749  15.880  0.1729 -0.0128 -0.0531
 2054W        W44971  22.944   8.551  17.610  0.2584 -0.3632  0.1155
 2055W        W44972  23.764  10.391  16.817  0.0239  0.2178 -0.1523
 2056W        W44973  22.488   9.332  20.678 -0.1770 -0.1689 -0.1408
 2057W        W44974  22.393   9.221  19.866  0.0491  0.1607  0.1054
 2058W        W44975  22.745  11.940  15.964  0.1037  0.0220 -0.1413
 2059W        W44976  23.396  10.919  16.814 -0.0817  0.0383  0.0003
 2060W        W44977  24.172   9.103  16.813 -0.2310 -0.1410 -0.1719
 2061W        W44978  24.767  10.618  19.426 -0.0587 -0.0587 -0.0794
 2062W        W44979  22.218   8.012  16.222  0.2584 -0.2907  0.1671
 2063W        W44980  21.784  10.841  16.862  0.0237  0.1642  0.4241
 2064W        W44981  20.941  10.865  15.913 -0.3506  0.1668 -0.1124
 2065W        W44982  25.852  12.190  17.270  0.0014  0.0508  0.1583
 2066W        W44983  21.782  11.746  16.234 -0.0650  0.0832  0.1958
 2067W        W44984  24.725   9.143  19.863 -0.2633  0.1187 -0.4426
 2068W        W44985  25.369   7.957  16.863 -0.0792 -0.1188 -0.1472
 2069W        W44986  25.934   9.258  18.426  0.3237  0.0148 -0.1960
 2070W        W44987  25.100   8.281  17.670  0.0441  0.1134  0.4929
 2071W        W44988  24.265  10.106  19.582  0.1470  0.4380 -0.2092
 2072W        W44989  22.386   8.768  16.848  0.0322  0.1590 -0.1036
 2073W        W44990  22.977   8.348  16.684  0.2193 -0.2766 -0.1347
 2074W        W44991  22.963   7.795  20.496  0.0886  0.0166  0.1705
 2075W        W44992  25.876   8.769  17.553  0.0893 -0.1404 -0.0366
 2076W        W44993  21.213  10.949  18.920 -0.0325 -0.0378  0.1269
 2077W        W44994  24.667  11.131  16.725  0.0337  0.2431  0.0578
 2078W        W44995  21.540   9.637  16.856  0.1803  0.0236 -0.1347
 2079W        W44996  21.491   8.189  17.167 -0.3161  0.1490  0.2348
 2080W        W44997  24.776   8.650  18.022  0.0030 -0.3902 -0.1937
 2081W        W44998  24.130   9.709  16.671 -0.2342  0.1276  0.0680
 2082W        W44999  23.667   7.848  17.981  0.0314 -0.3682  0.0335
 2083W        W45000  21.738  10.571  17.533  0.0083  0.2144  0.0660
 2084W        W45001  22.935  11.586  17.458 -0.1390  0.1049  0.0285
 2085W        W45002  21.959   9.178  19.050  0.2331 -0.1110 -0.0147
 2086W        W45003  22.202   8.101  17.102  0.1603 -0.0313 -0.1012
 2087W        W45004  24.853   7.184  17.895 -0.1164 -0.0907  0.3595
 2088W        W45005  23.408   9.083  19.192 -0.2899  0.0073  0.2413
 2089W        W45006  25.596   8.257  19.547 -0.1369 -0.4469 -0.0079
 2090W        W45007  21.925   8.536  17.058 -0.2510 -0.1658  0.2420
 2091W        W45008  24.947   7.813  17.250 -0.2564 -0.0353 -0.1466
 2092W        W45009  22.948   9.255  18.947  0.0277 -0.1238 -0.1387
 2093W        W45010  21.742   7.519  18.455  0.0180 -0.0975  0.0914
 2094W        W45011  24.760   8.587  16.335  0.0001 -0.4552 -0.0234
 2095W        W45012  22.676  10.451  19.445  0.3649 -0.2828  0.3422
 2096W        W45013  22.377   8.748  16.031  0.0932  0.1398 -0.0955
 2097W        W45014  24.588  10.274  18.668  0.1485 -0.2490 -0.3654
 2098W        W45015  23.089   7.351  18.112 -0.0456  0.1511  0.1223
 2099W        W45016  23.646   6.446  18.909  0.0970  0.3366 -0.0815
 2100W        W45017  21.568   9.452  16.404  0.1630  0.2058  0.2819
 2101W        W45018  22.605   8.296  19.620 -0.2037  0.1119 -0.0710
 2102W        W45019  22.729  10.258  17.575 -0.2822  0.3030  0.1643
 2103W        W45020  23.391   9.395  17.268  0.1763  0.2333 -0.2645
 2104W        W45021  24.285   8.567  17.709 -0.2628 -0.4126  0.0448
 2105W        W45022  26.083   8.930  19.274 -0.1570 -0.0179 -0.0993
 2106W        W45023  21.604   9.915  17.385 -0.0089 -0.1840 -0.0371
 2107W        W45024  23.846  10.995  17.967  0.1279  0.1216  0.1568
 2108W        W45025  23.969   9.656  19.790  0.0194  0.0745 -0.1969
 2109W        W45026  20.670   7.341  18.182 -0.0460 -0.2147 -0.0516
 2110W        W45027  22.471   9.010  20.278 -0.1899 -0.2670 -0.0467
 2111W        W45028  24.586  10.797  18.997 -0.1744  0.2569  0.1066
 2112W        W45029  22.256   5.922  19.114  0.1748  0.0625 -0.2025
 2113W        W45030  21.195   7.730  16.998 -0.2053  0.1582 -0.3359
 2114W        W45031  22.259  10.505  17.587  0.2635 -0.0383  0.0433
 2115W        W45032  22.282   8.164  19.163  0.0939 -0.1947 -0.3532
 2116W        W45033  26.699   9.044  20.355  0.3012  0.2195  0.0719
 2117W        W45034  22.306  13.320  16.696 -0.1279  0.3013  0.0302
 2118W        W45035  25.101   8.548  19.412  0.0591 -0.3325 -0.1600
 2119W        W45036  22.907  10.804  19.158  0.2160  0.2829  0.2482
 2120W        W45037  22.586  10.156  21.303  0.3254 -0.1310  0.1812
 2121W        W45038  22.001   9.465  16.716  0.3961  0.1535 -0.0389
 2122W        W45039  24.533  10.044  19.143  0.0916  0.3357  0.0529
 2123W        W45040  23.795   8.864  17.990  0.3212  0.0690 -0.0751
 2124W        W45041  24.400  10.998  17.252  0.0621 -0.1035 -0.3869
 2125W        W45042  23.857   9.279  18.953  0.2488 -0.1641  0.2755
 2126W        W45043  23.254   6.840  18.130 -0.1032  0.0078  0.0008
 2127W        W45044  23.905  10.427  17.268  0.0027  0.1251 -0.2078
 2128W        W45045  23.279   8.736  16.517 -0.1568  0.0250 -0.1618
 2129W        W45046  24.199   7.718  17.307 -0.2179 -0.0984  0.0474
 2130W        W45047  24.550   7.991  17.599 -0.2253 -0.1210 -0.1386
 2131W        W45048  23.519   7.877  19.192  0.0155 -0.1572  0.0333
 2132W        W45049  21.146   8.149  16.167 -0.1327  0.0236 -0.0502
 2133W        W45050  21.698   8.233  16.259  0.3433  0.1743  0.0132
 2134W        W45051  21.828   9.687  17.806 -0.0131  0.1880  0.0255
 2135W        W45052  23.309   7.234  19.875  0.1232  0.0286 -0.1568
 2136W        W45053  23.207   6.542  19.374  0.2164 -0.0087 -0.0968
 2137W        W45054  22.713   9.734  17.398  0.0303  0.1143  0.0469
 2138W        W45055  21.474   7.278  16.568  0.1207  0.0041 -0.0857
 2139W        W45056  24.610   8.465  18.550  0.0069  0.2039  0.1783
 2140W        W45057  21.988   8.546  21.046 -0.0518 -0.0685 -0.2103
 2141W        W45058  22.756   5.749  19.282 -0.4919  0.1914  0.2395
 2142W        W45059  22.755  11.255  16.180 -0.0633 -0.0307 -0.0572
 2143W        W45060  23.768  10.503  17.865 -0.2621 -0.0926  0.4204
 2144W        W45061  23.290   8.379  17.949 -0.2944  0.0238 -0.4616
 2145W        W45062  22.515   8.884  18.865 -0.2270  0.0191  0.0569
 2146W        W45063  20.402   9.226  16.459  0.2359 -0.0673  0.0614
 2147W        W45064  25.726   9.272  20.450 -0.0962  0.1864 -0.3060
 2148W        W45065  24.022   7.563  19.649  0.2786  0.2497  0.3480
 2149W        W45066  22.191   7.663  18.171 -0.2422  0.2544 -0.1623
 2150W        W45067  22.518   8.785  17.323  0.3403  0.0614 -0.2249
 2151W        W45068  21.966  10.059  18.272 -0.0213  0.2144 -0.3025
 2152W        W45069  25.224  10.889  19.660  0.2083 -0.4749 -0.0091
 2153W        W45070  21.985   9.053  20.032 -0.2322 -0.1195 -0.0438
 2154W        W45071  22.328  10.032  20.334 -0.1817 -0.1086 -0.0960
 2155W        W45072  21.497   9.109  16.872  0.0339 -0.0969 -0.1881
 2156W        W45073  25.002   9.456  16.395  0.3881  0.0875  0.1604
 2157W        W45074  23.764  10.422  20.450  0.2541  0.2481  0.1253
 2158W        W45075  23.672   9.598  18.542 -0.0575 -0.1409  0.0753
 2159W        W45076  26.833   7.207  20.344 -0.2232 -0.1914  0.3072
 2160W        W45077  22.073  10.452  17.133  0.1080 -0.1101 -0.3574
 2161W        W45078  20.768   8.286  19.687  0.1098 -0.1568  0.0691
 2162W        W45079  22.004   8.841  21.483 -0.1893  0.1528 -0.1006
 2163W        W45080  25.958   8.370  19.111  0.4314 -0.2522 -0.0647
 2164W        W45081  22.637   5.851  18.731 -0.1994  0.0889 -0.2009
 2165W        W45082  23.379   8.937  16.963 -0.2528 -0.1028  0.1877
 2166W        W45083  22.900  10.134  17.101  0.0280 -0.1778 -0.2661
 2167W        W45084  22.740   9.498  20.206  0.1492  0.2486 -0.3539
 2168W        W45085  23.761   9.180  17.552  0.0667 -0.2145  0.0085
 2169W        W45086  24.668   9.659  20.742 -0.1467  0.0059 -0.1357
 2170W        W45087  25.910  10.971  18.128 -0.0293  0.0164  0.0329
 2171W        W45088  23.914   8.430  18.512 -0.0255 -0.2877 -0.0172
 2172W        W45089  22.095   8.587  16.420 -0.1510  0.0266 -0.3297
 2173W        W45090  24.466   9.459  16.209  0.1966  0.1560  0.0079
 2174W        W45091  25.497   9.797  20.128 -0.2013 -0.3091 -0.0400
 2175W        W45092  24.152  10.086  20.090  0.2396  0.1684  0.1747
 2176W        W45093  23.169  10.349  19.531  0.2578 -0.1198 -0.0428
 2177W        W45094  24.948   9.390  18.652  0.0126  0.1742  0.1047
 2178W        W45095  22.849   7.600  17.706  0.0708 -0.0950 -0.0704
 2179W        W45096  23.321  10.867  17.955 -0.1897  0.0684  0.0339
 2180W        W45097  24.340  10.967  17.923  0.2309  0.1175  0.0742
 2181W        W45098  25.870   8.297  20.075 -0.4037  0.0867  0.1930
 2182W        W45099  23.102   9.482  17.717  0.0676  0.0757  0.0691
 2183W        W45100  23.850   8.992  18.473 -0.3280 -0.1481 -0.0693
 2184W        W45101  23.211  11.705  18.416 -0.1164  0.3792  0.1348
 2185W        W45102  24.142   9.164  19.660 -0.0419  0.1203  0.1164
 2186W        W45103  22.919   9.182  22.646  0.2015  0.1064  0.0379
 2187W        W45104  24.176   8.758  18.774 -0.1941 -0.3210 -0.0773
 2188W        W45105  25.117   9.035  19.587  0.0781 -0.3385  0.1380
 2189W        W45106  26.729   7.636  22.686  0.2936  0.1051  0.0744
 2190W        W45107  21.705   6.727  20.645  0.1623  0.1985  0.1942
 2191W        W45108  26.707   8.565  20.056 -0.1177  0.3259  0.2162
 2192W        W45109  20.865   5.960  22.445  0.1179 -0.3856 -0.2378
 2193W        W45110  25.888  10.014  21.708 -0.0893  0.2245 -0.2639
 2194W        W45111  25.721  10.105  22.633 -0.1129 -0.0089 -0.2899
 2195W        W45112  23.420   8.673  18.343 -0.0905 -0.1023 -0.0371
 2196W        W45113  22.911   8.282  22.655  0.2587 -0.2487  0.1232
 2197W        W45114  22.334  10.162  23.687  0.1003  0.1320  0.1434
 2198W        W45115  23.546   6.077  21.901  0.0622 -0.0828 -0.4522
 2199W        W45116  22.732   7.448  22.673 -0.1835 -0.1835 -0.0739
 2200W        W45117  25.644  10.389  22.247  0.1791  0.2329  0.0667
 2201W        W45118  22.468   8.798  20.797 -0.0467 -0.1067  0.2457
 2202W        W45119  21.478   7.898  23.885 -0.0721 -0.1456  0.1538
 2203W        W45120  25.082   7.573  20.497 -0.0298 -0.1402 -0.2171
 2204W        W45121  24.820   9.445  22.333  0.2950  0.1375  0.1553
 2205W        W45122  22.994   7.995  25.268  0.0400 -0.4070  0.1465
 2206W        W45123  24.887   6.519  21.726 -0.0590 -0.1004  0.1211
 2207W        W45124  23.017   9.523  22.151  0.1143 -0.2516  0.2418
 2208W        W45125  21.755   8.969  22.486 -0.1948 -0.0656 -0.2433
 2209W        W45126  21.704   6.606  24.013  0.1018  0.0725  0.0048
 2210W        W45127  20.809   6.732  23.824 -0.2563 -0.1623  0.0735
 2211W        W45128  25.207   8.299  21.209  0.0077 -0.2926 -0.2379
 2212W        W45129  24.641   7.255  20.748 -0.2291 -0.0146  0.0233
 2213W        W45130  23.480  12.997  22.629  0.4745  0.2032 -0.0015
 2214W        W45131  23.739  10.718  23.499  0.0210 -0.0084  0.0838
 2215W        W45132  24.539   8.742  24.805 -0.0021  0.1271 -0.3212
 2216W        W45133  25.099  10.091  21.672 -0.1511 -0.2056  0.2814
 2217W        W45134  22.815  12.165  23.521  0.2398 -0.1443 -0.2701
 2218W        W45135  22.880  10.129  20.692  0.3528  0.1088 -0.0751
 2219W        W45136  25.496   8.621  19.866 -0.0600  0.1316  0.1114
 2220W        W45137  24.389  11.196  23.020 -0.2904  0.0520  0.0140
 2221W        W45138  22.652  13.835  24.104 -0.2826 -0.3516  0.0695
 2222W        W45139  20.887   9.460  20.379 -0.2465  0.2505 -0.2683
 2223W        W45140  23.162  10.429  24.429 -0.1001  0.0284 -0.0732
 2224W        W45141  22.697   9.182  23.421  0.0933 -0.0731 -0.0003
 2225W        W45142  22.976   6.809  23.965  0.0197 -0.1870 -0.0291
 2226W        W45143  25.147   6.130  21.599 -0.0935 -0.0753  0.0109
 2227W        W45144  22.534   9.853  20.894  0.3219 -0.0306  0.0844
 2228W        W45145  23.474   8.691  21.395  0.1544 -0.2631  0.1788
 2229W        W45146  22.870  10.026  24.544 -0.1688 -0.1976 -0.2383
 2230W        W45147  23.307  10.368  22.384  0.1765 -0.1805 -0.0838
 2231W        W45148  24.657   9.583  23.832 -0.1071 -0.1065 -0.0234
 2232W        W45149  22.066  11.340  18.343  0.3966  0.4325 -0.0754
 2233W        W45150  23.951   9.853  19.285 -0.1343 -0.0863 -0.1320
 2234W        W45151  23.217   8.190  18.944 -0.1384  0.3070 -0.0784
 2235W        W45152  23.198  10.025  19.134 -0.1105 -0.0687 -0.1071
 2236W        W45153  24.783   7.320  21.347  0.2820 -0.1271 -0.1138
 2237W        W45154  23.498   9.465  22.074  0.2486 -0.0594 -0.1001
 2238W        W45155  23.858   7.388  22.667  0.1976  0.0627  0.0353
 2239W        W45156  26.150   9.924  23.875 -0.0008  0.1113 -0.0530
 2240W        W45157  24.069   9.337  20.744 -0.1955 -0.2308 -0.1520
 2241W        W45158  24.243   7.284  21.284  0.0746  0.0436 -0.1602
 2242W        W45159  22.542   9.646  23.711  0.1470 -0.1835 -0.0152
 2243W        W45160  22.001   8.861  20.607 -0.0073 -0.0271  0.0668
 2244W        W45161  25.055  10.191  19.994 -0.1122 -0.0470  0.0625
 2245W        W45162  23.336  11.265  22.012 -0.2170  0.2404  0.0541
 2246W        W45163  26.023   9.698  21.320  0.0087  0.0352 -0.1697
 2247W        W45164  22.206   9.468  20.290  0.3820 -0.0444 -0.0509
 2248W        W45165  20.200   8.834  24.294 -0.2047 -0.2220 -0.1840
 2249W        W45166  19.922   6.777  25.026  0.0649  0.1018  0.2407
 2250W        W45167  23.468   7.944  20.554 -0.1601 -0.0588 -0.4526
 2251W        W45168  25.260   9.525  24.915  0.0770  0.2504  0.0439
 2252W        W45169  22.386  10.743  24.825 -0.0185  0.2095  0.0849
 2253W        W45170  26.159   6.493  20.349 -0.1662 -0.2884  0.0330
 2254W        W45171  25.313   9.352  21.929 -0.0631  0.1020  0.1596
 2255W        W45172  25.187  10.820  24.021  0.2928  0.1210 -0.0470
 2256W        W45173  24.724   8.729  18.992  0.0515 -0.2115 -0.0038
 2257W        W45174  23.774   7.022  20.808  0.0317 -0.1869  0.1427
 2258W        W45175  24.848   7.705  21.006 -0.0523  0.0293 -0.0597
 2259W        W45176  22.347   7.787  17.618 -0.0090 -0.2485 -0.1317
 2260W        W45177  24.962   9.462  21.091  0.0833 -0.1470  0.2987
 2261W        W45178  25.747  10.934  26.462 -0.3139 -0.0818 -0.0095
 2262W        W45179  23.697   8.287  19.789  0.0776  0.4004  0.2225
 2263W        W45180  24.004   9.106  24.204 -0.1262  0.0095 -0.0824
 2264W        W45181  23.074   7.757  23.053  0.1480  0.1546 -0.1178
 2265W        W45182  23.109   8.357  23.713  0.2091 -0.0918  0.1646
 2266W        W45183  24.381  10.534  19.755 -0.1833  0.1827 -0.2531
 2267W        W45184  20.632   7.574  23.536  0.0975 -0.0398  0.2476
 2268W        W45185  21.712   8.419  22.400  0.1655 -0.1177 -0.2505
 2269W        W45186  21.395   8.833  22.848 -0.1372  0.1184 -0.0433
 2270W        W45187  20.329  10.206  21.792  0.0955 -0.1997 -0.4836
 2271W        W45188  23.988   8.607  21.382 -0.1225  0.1048  0.2456
 2272W        W45189  21.608   6.075  24.109  0.1115  0.1299  0.1601
 2273W        W45190  26.157   4.280  23.638  0.1020 -0.4098  0.0179
 2274W        W45191  23.201   9.342  20.259  0.0152 -0.2872 -0.0472
 2275W        W45192  24.920   9.657  19.848  0.1786 -0.0170 -0.0515
 2276W        W45193  24.117   8.498  19.203 -0.0903 -0.2100  0.1766
 2277W        W45194  23.372  10.798  19.322  0.2538 -0.2897 -0.2273
 2278W        W45195  23.367   9.106  24.149 -0.0315  0.2278 -0.1464
 2279W        W45196  23.805   8.682  24.074 -0.3152  0.3101  0.0305
 2280W        W45197  21.924   5.188  26.033  0.1354  0.3013  0.0124
 2281W        W45198  22.595   8.503  22.225 -0.2073 -0.0983  0.0414
 2282W        W45199  25.371   8.306  21.720 -0.1895  0.1719 -0.0472
 2283W        W45200  23.509   5.390  21.665  0.1027 -0.0623  0.1138
 2284W        W45201  23.795   8.860  22.375 -0.0850 -0.2197 -0.0737
 2285W        W45202  24.154   9.037  21.213 -0.1293 -0.1100 -0.1274
 2286W        W45203  21.751   7.579  22.550  0.2524 -0.3480 -0.1199
 2287W        W45204  24.116   6.887  24.172 -0.1111 -0.2429  0.1602
 2288W        W45205  24.077  11.298  21.178  0.0042  0.1330  0.1363
 2289W        W45206  24.401  10.843  23.386 -0.1334 -0.0686 -0.1430
 2290W        W45207  27.035  12.036  22.507 -0.0069 -0.0437  0.2175
 2291W        W45208  22.978   7.402  25.267  0.0646 -0.0402  0.2452
 2292W        W45209  25.231   9.479  19.459 -0.0450  0.0622  0.1709
 2293W        W45210  23.027  10.711  20.560  0.0223 -0.0364 -0.1935
 2294W        W45211  23.630  10.161  22.735 -0.0582  0.1577 -0.4027
 2295W        W45212  25.449   7.354  20.264  0.1254  0.1223  0.2056
 2296W        W45213  27.812  10.182  21.571 -0.2453 -0.0644 -0.1079
 2297W        W45214  24.504   9.851  21.707 -0.0915  0.4236 -0.2149
 2298W        W45215  23.921   9.544  23.983  0.0991  0.2077  0.0550
 2299W        W45216  24.662   7.000  24.092  0.2100 -0.1545 -0.1377
 2300W        W45217  24.859   8.415  24.518 -0.0211  0.3513 -0.0033
 2301W        W45218  25.550  10.424  23.266 -0.0925 -0.2931  0.0578
 2302W        W45219  24.205   8.382  21.994 -0.1948 -0.2570 -0.0937
 2303W        W45220  23.715  10.378  22.133  0.2609  0.1057 -0.2866
 2304W        W45221  22.624  10.624  18.596 -0.0784 -0.2473 -0.0472
 2305W        W45222  23.994  10.639  23.051  0.1721  0.0223  0.2820
 2306W        W45223  25.095  10.366  22.276  0.1100  0.1231  0.0958
 2307W        W45224  25.806   7.224  22.524  0.1848 -0.1580 -0.0334
 2308W        W45225  24.415   8.133  23.717 -0.2981 -0.0738  0.2070
 2309W        W45226  23.610  10.066  21.587  0.1567 -0.2352 -0.2215
 2310W        W45227  22.870   8.284  20.715 -0.2622  0.1671  0.1327
 2311W        W45228  22.882  10.635  24.816 -0.2399  0.0995  0.1487
 2312W        W45229  24.468   8.539  20.401  0.0374  0.1158 -0.1603
 2313W        W45230  25.826   6.850  22.120 -0.3552  0.2511  0.2481
 2314W        W45231  23.386   7.923  22.024 -0.3605 -0.1092  0.0492
 2315W        W45232  24.828  10.072  19.530  0.1567 -0.2553 -0.0226
 2316W        W45233  23.484   9.544  19.885 -0.0079  0.1382 -0.0472
 2317W        W45234  24.881   6.878  19.913 -0.0208  0.0202  0.1552
 2318W        W45235  22.491   8.766  23.226  0.0935  0.2371  0.1402
 2319W        W45236  24.117   8.906  22.875 -0.0016 -0.3793  0.0355
 2320W        W45237  24.740   9.851  23.176  0.0574 -0.0797  0.0009
 2321W        W45238  23.437   8.112  18.438  0.1626  0.2051  0.1173
 2322W        W45239  26.958   9.275  20.950 -0.1615  0.0208  0.2350
 2323W        W45240  24.245  11.565  24.614  0.1904  0.0285  0.4110
 2324W        W45241  22.850  11.363  24.298 -0.0371  0.1833  0.0230
 2325W        W45242  24.830   9.003  22.057  0.2742  0.3226  0.1525
 2326W        W45243  24.445   7.422  23.968  0.0275  0.1178  0.0976
 2327W        W45244  23.426   8.003  21.476  0.0692 -0.1205  0.1056
 2328W        W45245  25.272   7.638  19.901  0.0786  0.3297 -0.0459
 2329W        W45246  23.351   9.860  22.433  0.0683  0.5034 -0.3208
 2330W        W45247  24.730   6.466  22.770 -0.1044  0.1069 -0.1562
 2331W        W45248  23.551   7.608  23.459  0.0380 -0.0369  0.0224
 2332W        W45249  25.008   7.440  24.329 -0.0823  0.2813 -0.1337
 2333W        W45250  26.235   8.507  23.543  0.2466 -0.0373  0.0239
 2334W        W45251  25.522   9.922  22.129  0.1842 -0.1836  0.2332
 2335W        W45252  24.043   9.773  24.391 -0.3358  0.0816  0.4071
 2336W        W45253  23.217   6.606  23.127 -0.1141 -0.0811  0.0226
 2337W        W45254  23.075   8.283  24.828  0.1823  0.0176  0.0001
 2338W        W45255  22.953   8.783  21.455 -0.2030 -0.0212  0.2141
 2339W        W45256  20.254   8.776  23.071  0.0365 -0.0070 -0.0068
 2340W        W45257  25.199  10.073  24.646 -0.0337  0.1894  0.0867
 2341W        W45258  26.586  10.568  20.626 -0.1586  0.1272 -0.3742
 2342W        W45259  21.362   8.593  23.317  0.1811 -0.1344  0.0916
 2343W        W45260  23.467   7.505  22.294 -0.1364 -0.1465 -0.5254
 2344W        W45261  23.070  10.075  21.508 -0.0669 -0.1043  0.0315
 2345W        W45262  24.978  11.229  21.396 -0.2099 -0.3737  0.2216
 2346W        W45263  21.592   7.166  22.339 -0.1841  0.1182 -0.0374
 2347W        W45264  23.368  11.163  24.117 -0.2288 -0.3114  0.2382
 2348W        W45265  22.291  11.377  19.877 -0.2151  0.0563  0.1209
 2349W        W45266  25.124  10.404  23.584 -0.2702  0.1030 -0.0671
 2350W        W45267  22.829  10.049  23.542 -0.0287 -0.0557 -0.2744
 2351W        W45268  24.656   7.040  22.674  0.2025 -0.0082  0.3258
 2352W        W45269  21.770  12.773  24.130 -0.0071  0.0453 -0.2914
 2353W        W45270  25.034   8.676  19.961 -0.3715  0.1472  0.0585
 2354W        W45271  22.847   8.076  22.000  0.1021 -0.0612  0.0807
 2355W        W45272  23.714   8.287  22.328 -0.1154  0.1977  0.2396
 2356W        W45273  24.899   9.629  21.622 -0.0253 -0.3974 -0.0943
 2357W        W45274  21.513   6.437  24.432 -0.0437 -0.2307  0.0343
 2358W        W45275  24.503   7.564  23.518  0.0237 -0.2075  0.3557
 2359W        W45276  20.886   9.951  24.486  0.0300 -0.3062  0.3621
 2360W        W45277  23.288   9.094  21.739  0.0584  0.3594  0.2360
 2361W        W45278  24.753   6.121  21.231 -0.2013  0.1392  0.0065
 2362W        W45279  23.565   7.653  22.945  0.2503  0.1653 -0.0242
 2363W        W45280  20.507   7.766  24.280 -0.1000  0.0174 -0.1387
 2364W        W45281  20.715   6.303  21.582  0.1140 -0.1687  0.1111
 2365W        W45282  24.162   9.377  23.013  0.0650 -0.1157 -0.0162
 2366W        W45283  22.354   6.638  22.903 -0.0718 -0.1532 -0.1288
 2367W        W45284  22.376   9.625  21.414  0.0776  0.1319 -0.0639
 2368W        W45285  22.754  10.588  25.350  0.2564 -0.4004  0.0036
 2369W        W45286  23.595  10.840  21.877 -0.5125 -0.0676  0.0836
 2370W        W45287  24.598   9.392  23.254 -0.1145 -0.0657 -0.0816
 2371W        W45288  21.219   7.787  24.803 -0.0752 -0.0658 -0.1224
 2372W        W45289  27.382   9.207  22.397 -0.2352  0.1031 -0.2067
 2373W        W45290  23.947   6.446  21.605  0.1535 -0.1075  0.1333
 2374W        W45291  24.970   8.873  21.145  0.0927 -0.2827  0.0735
 2375W        W45292  23.165   7.969  20.981 -0.2979 -0.1150  0.0107
 2376W        W45293  25.838  10.917  22.142  0.1998  0.2002 -0.2415
 2377W        W45294  24.958   7.909  21.539  0.0516 -0.1267 -0.0466
 2378W        W45295  21.683  10.706  25.434 -0.0128  0.0465  0.3031
 2379W        W45296  23.689   6.512  22.901  0.0345  0.3380 -0.2297
 2380W        W45297  24.475   9.598  19.560  0.1841 -0.0761  0.1748
 2381W        W45298  21.188   8.600  24.534 -0.1441 -0.3131 -0.1184
 2382W        W45299  23.941   9.007  20.434 -0.2107 -0.0428  0.1543
 2383W        W45300  20.914   7.868  21.841 -0.2115  0.3278  0.2780
 2384W        W45301  23.745   9.959  20.790 -0.1297  0.0714 -0.0072
 2385W        W45302  23.251   6.333  22.677 -0.3285 -0.0044  0.1626
 2386W        W45303  23.670  10.004  23.797  0.0435 -0.4271 -0.1923
 2387W        W45304  22.908   9.504  19.774 -0.2868  0.1531  0.4055
 2388W        W45305  21.697  11.494  24.693 -0.0731  0.2274 -0.0995
 2389W        W45306  24.790   7.819  19.727 -0.2298  0.1656 -0.1208
 2390W        W45307  25.792  11.508  19.352  0.1141  0.0371 -0.0787
 2391W        W45308  24.200  10.016  21.360  0.3352 -0.3842  0.1814
 2392W        W45309  25.264   7.769  25.037 -0.3373 -0.1279  0.2390
 2393W        W45310  24.610  10.281  20.176  0.2324 -0.2741 -0.3089
 2394W        W45311  25.880   8.101  22.466  0.0388 -0.0321  0.2291
 2395W        W45312  23.140  10.947  22.886  0.4416  0.0595 -0.0750
 2396W        W45313  24.940  10.260  22.962  0.1164 -0.3208  0.1853
 2397W        W45314  22.895   8.749  21.934  0.0184  0.0535 -0.2638
 2398W        W45315  24.170  11.231  25.058  0.1705 -0.2481  0.0390
 2399W        W45316  21.103   9.838  25.031  0.0390  0.1780  0.1775
 2400W        W45317  22.080   8.578  19.621  0.0346  0.0160  0.0419
 2401W        W45318  23.756   8.355  18.043 -0.0888  0.3333  0.1013
 2402W        W45319  21.009  10.325  23.841  0.0352  0.1087  0.1777
 2403W        W45320  24.553   9.178  20.962  0.0010  0.1819 -0.2593
 2404W        W45321  22.571  10.537  20.362  0.0669  0.1525 -0.1684
 2405W        W45322  24.771   8.938  23.136 -0.3458  0.0220 -0.1824
 2406W        W45323  24.263   8.905  22.129  0.2437 -0.2754  0.3323
 2407W        W45324  24.314   8.967  21.674  0.1138  0.2107  0.3739
 2408W        W45325  21.851   7.914  21.348  0.0925  0.0636 -0.2287
 2409W        W45326  22.201   8.583  22.479  0.1758 -0.1009  0.0116
 2410W        W45327  22.405   6.542  24.923 -0.2975  0.0422  0.0989
 2411W        W45328  24.600  10.126  22.568  0.0950  0.1376 -0.2961
 2412W        W45329  22.962   7.171  23.142 -0.0365 -0.1139  0.4983
 2413W        W45330  24.295   7.042  22.146 -0.1902  0.0495 -0.0339
 2414W        W45331  24.356   7.373  21.807  0.4363  0.0879  0.2947
 2415W        W45332  22.898   8.373  23.166 -0.2570  0.5164  0.0644
 2416W        W45333  22.373   6.058  23.029 -0.0228 -0.2789  0.0088
 2417W        W45334  22.974  12.300  24.081 -0.0132  0.1709 -0.0239
 2418W        W45335  24.666   8.103  20.676  0.1046  0.0829  0.0355
 2419W        W45336  26.013   6.718  24.998  0.1822  0.2978 -0.1954
 2420W        W45337  27.573   7.200  23.301  0.0069 -0.0738  0.2278
 2421W        W45338  24.710   7.516  19.311 -0.0084  0.0630  0.1115
 2422W        W45339  22.044   8.198  23.791 -0.0117 -0.0914 -0.2292
 2423W        W45340  24.701   9.178  21.472 -0.0801 -0.0829  0.2184
 2424W        W45341  25.122   6.462  21.143  0.0091  0.1843  0.1530
 2425W        W45342  24.525   9.147  23.823 -0.3314 -0.1393  0.2170
 2426W        W45343  22.162   8.282  21.487 -0.2711 -0.1542  0.1191
 2427W        W45344  25.378  10.553  22.715  0.0377  0.0012 -0.1088
 2428W        W45345  22.866   7.904  21.504  0.2008  0.1708  0.0733
 2429W        W45346  21.634   7.828  20.727  0.0580  0.0159  0.0496
 2430W        W45347  21.667  10.815  23.950 -0.0645 -0.3823  0.0661
 2431W        W45348  23.437   7.395  18.954  0.1438  0.2173 -0.2057
 2432W        W45349  25.066   9.872  20.390  0.3534 -0.3707  0.1983
 2433W        W45350  24.777   8.571  22.342 -0.0851  0.3678  0.0749
 2434W        W45351  27.854   9.902  23.009 -0.0456  0.1119 -0.1226
 2435W        W45352  25.530   7.216  20.749  0.0145 -0.3129  0.3309
 2436W        W45353  26.314   6.667  21.757  0.3971 -0.0005 -0.0926
 2437W        W45354  21.943  10.988  21.882 -0.0945  0.1997  0.4349
 2438W        W45355  23.643   9.080  22.930 -0.0968  0.3302  0.0606
 2439W        W45356  23.044   9.159  23.776 -0.1377  0.0753  0.1804
 2440W        W45357  24.637   8.839  24.366  0.1751 -0.0518  0.1794
 2441W        W45358  22.749   9.956  23.025 -0.0173  0.2112  0.0358
 2442W        W45359  21.050   6.109  24.880  0.0061  0.2688  0.0758
 2443W        W45360  23.992   7.733  21.472 -0.0327  0.0106 -0.0295
 2444W        W45361  23.983  10.399  21.655 -0.1997 -0.1173 -0.0999
 2445W        W45362  24.392   6.481  22.070 -0.0605 -0.1161 -0.1794
 2446W        W45363  22.947  10.564  23.202 -0.0406  0.1293  0.1027
 2447W        W45364  23.304   9.982  21.066 -0.0204  0.1969  0.0939
 2448W        W45365  24.189  12.451  24.577  0.2321  0.0876 -0.0291
 2449W        W45366  26.694   6.743  21.078  0.0398  0.0522  0.1085
 2450W        W45367  22.890   9.866  22.568  0.1589 -0.3543  0.1948
 2451W        W45368  20.335   6.895  25.371 -0.2102 -0.2791 -0.0737
 2452W        W45369  22.769   8.708  23.641 -0.0127 -0.0058  0.0929
 2453W        W45370  25.519   9.030  22.762 -0.0260 -0.1786  0.3727
 2454W        W45371  23.398   8.721  20.108  0.1151 -0.0896 -0.3647
 2455W        W45372  23.011   8.695  20.907  0.1101  0.0870  0.4636
 2456W        W45373  20.576   9.743  26.092  0.0860 -0.0193 -0.0246
 2457W        W45374  22.301   9.713  23.260 -0.4086 -0.0527  0.3237
 2458W        W45375  22.238   9.730  22.608 -0.0311  0.2073  0.1245
 2459W        W45376  22.640   9.095  22.270 -0.0554 -0.0581  0.1793
 2460W        W45377  24.060  11.017  22.689 -0.0315  0.1797 -0.1142
 2461W        W45378  24.607  11.531  22.293 -0.0165 -0.0122 -0.0333
 2462W        W45379  25.202   7.642  22.414  0.2480 -0.1303  0.0895
 2463W        W45380  23.955   9.305  21.961 -0.1344 -0.0542  0.0232
 2464W        W45381  21.707  10.555  21.690 -0.1059  0.0490 -0.0491
 2465W        W45382  24.118  11.074  19.762  0.0579  0.0670  0.0504
 2466W        W45383  23.178  11.268  20.049 -0.2243 -0.0662 -0.2098
 2467W        W45384  26.202   8.773  24.543 -0.4553  0.0353 -0.5565
 2468W        W45385  24.352   7.896  21.983 -0.1079  0.2206 -0.0025
 2469W        W45386  26.509  11.763  23.683  0.0808 -0.1790 -0.0817
 2470W        W45387  25.830   6.646  20.857 -0.0818  0.2433  0.0512
 2471W        W45388  23.291   9.234  23.377 -0.1089  0.0384  0.3548
 2472W        W45389  21.746   8.858  21.976 -0.3584  0.0649 -0.1481
 2473W        W45390  22.399   7.235  21.147 -0.1433  0.2244 -0.2209
 2474W        W45391  24.425   9.058  25.176  0.2818 -0.1486 -0.0777
 2475W        W45392  24.894   7.295  23.062  0.0476 -0.1616 -0.4978
 2476W        W45393  21.417  10.740  23.010  0.0284  0.3592 -0.0605
 2477W        W45394  24.640  10.317  21.386 -0.1521  0.2159  0.2671
 2478W        W45395  23.794   9.089  23.784 -0.2053  0.1324 -0.3416
 2479W        W45396  23.181   9.622  22.894 -0.2592 -0.0444  0.0439
 2480W        W45397  25.220   5.569  21.905 -0.1645 -0.0430  0.0726
 2481W        W45398  24.006  11.105  21.716 -0.0786  0.0087  0.1386
 2482W        W45399  23.788   8.572  22.791  0.0984  0.0755  0.0205
 2483W        W45400  25.112  10.419  21.240  0.1607 -0.0240 -0.1947
 2484W        W45401  23.325   9.920  23.345 -0.0842  0.2321 -0.1795
 2485W        W45402  23.813   9.895  22.234  0.0501 -0.0037  0.1561
 2486W        W45403  23.247   8.186  20.187 -0.1974  0.0521  0.0054
 2487W        W45404  26.260  10.015  22.735  0.3242  0.1917 -0.2270
 2488W        W45405  22.320   7.959  21.921  0.0446  0.3227 -0.2610
 2489W        W45406  24.440   6.246  21.620 -0.2346  0.1913  0.0984
 2490W        W45407  24.962   9.014  20.670 -0.0093 -0.1807 -0.1219
 2491W        W45408  23.429   8.986  20.564 -0.0220 -0.1311 -0.1241
 2492W        W45409  23.713  10.533  23.984  0.1538  0.2084 -0.1363
 2493W        W45410  23.180   8.347  21.792  0.2435  0.0645 -0.1583
 2494W        W45411  22.110   9.179  22.186  0.1641 -0.0787  0.3801
 2495W        W45412  23.953   9.282  25.238  0.0194  0.0467 -0.2567
 2496W        W45413  24.053  10.361  18.822 -0.2834  0.0620  0.0539
 2497W        W45414  25.195  10.731  25.725  0.2202 -0.0876  0.2209
 2498W        W45415  23.754   8.845  20.957  0.0431  0.2433  0.0165
 2499W        W45416  23.663   7.817  21.043 -0.0472  0.0924  0.0370
 2500W        W45417  24.219   9.420  21.516 -0.3352  0.2145 -0.2009
 2501W        W45418  23.478   8.658  22.055  0.1569  0.0663 -0.0924
 2502W        W45419  26.551   9.762  24.209 -0.0949  0.0826  0.1572
 2503W        W45420  24.805   6.647  20.424 -0.1435  0.0738 -0.4012
 2504W        W45421  26.938  10.708  21.270 -0.0563 -0.1016  0.1722
 2505W        W45422  24.909  10.663  22.578 -0.2557  0.0470 -0.0714
 2506W        W45423  24.532  11.472  21.475  0.2147 -0.0051  0.0967
 2507W        W45424  24.277   8.800  20.795  0.0737 -0.2329 -0.2660
 2508W        W45425  23.646  10.334  19.226 -0.1122  0.1203  0.1859
 2509W        W45426  22.635   9.471  22.901  0.0914  0.1951  0.1014
 2510W        W45427  24.525   9.958  24.347 -0.1414  0.0149 -0.2759
 2511W        W45428  25.658   9.925  23.979  0.1175  0.0260  0.0738
 2512W        W45429  22.560   7.740  18.926  0.0467  0.1765 -0.3862
 2513W        W45430  24.286   9.602  21.081  0.2653 -0.0936  0.1598
 2514W        W45431  21.247   9.744  22.364  0.0607  0.1259  0.0553
 2515W        W45432  25.912   9.821  23.023 -0.1212  0.1181 -0.0079
 2516W        W45433  24.266   5.699  21.603 -0.3784 -0.0917 -0.1634
 2517W        W45434  22.906   9.096  20.524  0.1694  0.0788 -0.1629
 2518W        W45435  24.390   6.726  23.591 -0.0872 -0.2018  0.1332
 2519W        W45436  21.789  10.695  24.895 -0.1520 -0.0397  0.0608
 2520W        W45437  21.685  10.464  24.354  0.0581  0.1388  0.1349
 2521W        W45438  24.068   9.725  20.476  0.1444  0.2215 -0.0146
 2522W        W45439  22.115   8.702  24.169  0.1256 -0.3404 -0.2266
 2523W        W45440  25.268   9.253  21.383  0.3031 -0.0833  0.1836
 2524W        W45441  23.337   9.884  21.930 -0.2002 -0.0852  0.0522
 2525W        W45442  23.720   8.263  23.761  0.0548  0.0551 -0.0401
 2526W        W45443  24.480   8.655  21.245  0.2803  0.2352 -0.1333
 2527W        W45444  25.748  10.659  21.236 -0.1777 -0.0717  0.3008
 2528W        W45445  24.097   7.987  20.541  0.0216 -0.0918  0.2987
 2529W        W45446  26.084   4.447  22.887 -0.0540  0.0311 -0.2731
 2530W        W45447  26.921   7.424  21.234  0.0111  0.0934 -0.1450
 2531W        W45448  21.747   9.434  22.523 -0.2479 -0.0893 -0.1532
 2532W        W45449  21.340   7.574  21.597  0.0272  0.0165 -0.3313
 2533W        W45450  21.847   9.657  21.580  0.2287 -0.0379  0.1040
 2534W        W45451  21.591  11.045  24.535 -0.1536 -0.1120  0.5195
 2535W        W45452  21.960   8.099  22.696  0.0776  0.1995 -0.1252
 2536W        W45453  22.164   7.878  24.830  0.4243 -0.0016  0.2235
 2537W        W45454  21.551   8.369  22.929  0.0770 -0.2024 -0.1241
 2538W        W45455  24.663   8.346  19.972 -0.0412 -0.0903 -0.0686
 2539W        W45456  24.642  12.020  20.486  0.0154 -0.1554 -0.0948
 2540W        W45457  21.975   7.128  22.624 -0.2860 -0.0496 -0.0401
 2541W        W45458  20.958   7.558  24.460  0.2682  0.0328  0.1180
 2542W        W45459  24.664   8.195  21.183  0.0493  0.1068  0.0632
 2543W        W45460  25.053   7.063  20.472 -0.1074 -0.1344  0.3475
 2544W        W45461  23.745   7.382  21.153 -0.1163 -0.1566  0.0075
 2545W        W45462  24.274  11.181  24.328 -0.4426 -0.1486  0.1805
 2546W        W45463  22.098   8.197  18.022  0.0118 -0.0147  0.2000
 2547W        W45464  24.013   7.590  23.699  0.0828 -0.0221  0.1861
 2548W        W45465  20.607   7.133  22.680 -0.1187  0.1406 -0.0237
 2549W        W45466  19.989   9.265  19.918 -0.0776  0.2880  0.5516
 2550W        W45467  24.510   9.628  22.760 -0.2488  0.1727 -0.0022
 2551W        W45468  24.875  10.738  20.966  0.1993  0.2542  0.0732
 2552W        W45469  26.151  10.544  20.292  0.2111  0.0144 -0.2117
 2553W        W45470  21.801  11.307  25.389 -0.0011 -0.0303 -0.2248
 2554W        W45471  23.844  12.227  25.205 -0.1696  0.1170 -0.0238
 2555W        W45472  18.926   6.702  22.896  0.1541 -0.0360  0.1844
 2556W        W45473  24.120  10.388  22.538 -0.2131  0.3713  0.0901
 2557W        W45474  23.019  11.900  24.408  0.1393  0.0033 -0.0290
 2558W        W45475  24.220   9.062  19.195  0.0056  0.1716 -0.0658
 2559W        W45476  26.940   8.828  19.364  0.0371  0.0123 -0.2735
 2560W        W45477  24.936   8.045  20.268 -0.2198 -0.0362 -0.3493
 2561W        W45478  19.916   5.752  24.617  0.1181 -0.1665  0.0832
 2562W        W45479  23.302   8.016  23.382 -0.1385 -0.1675  0.3204
 2563W        W45480  25.395   7.315  22.736 -0.1310 -0.0040  0.0175
 2564W        W45481  23.077   6.659  21.983  0.3676 -0.0666 -0.0010
 2565W        W45482  25.531   7.295  22.156  0.1125  0.0587  0.0675
 2566W        W45483  24.368  10.701  21.655 -0.0776 -0.2807  0.3555
 2567W        W45484  23.849   8.867  21.831  0.1697 -0.5246 -0.0039
 2568W        W45485  22.863   9.029  19.423 -0.0330  0.0077 -0.1832
 2569W        W45486  22.758   9.175  21.113  0.0436  0.1943 -0.0984
 2570W        W45487  23.562   7.196  23.158 -0.0007 -0.1989  0.1884
 2571W        W45488  23.449   7.941  22.580 -0.0183  0.4293 -0.0357
 2572W        W45489  22.966   7.831  22.425 -0.3809  0.1333  0.2907
 2573W        W45490  26.382   8.601  20.529 -0.0960  0.1979 -0.3584
 2574W        W45491  25.527  12.033  23.962 -0.0070  0.0355  0.2576
 2575W        W45492  25.380  11.448  23.872  0.0736 -0.0777 -0.1901
 2576W        W45493  25.167  11.944  21.571  0.2322  0.1964 -0.1882
 2577W        W45494  25.078   9.934  22.541  0.1510  0.2395  0.0789
 2578W        W45495  21.495   7.231  22.845 -0.1527  0.0532  0.0220
 2579W        W45496  21.875  10.509  21.183  0.3253 -0.0714  0.1712
 2580W        W45497  21.575  10.903  20.895 -0.0832 -0.0221  0.3258
 2581W        W45498  24.392   7.468  22.884 -0.2737 -0.1800  0.0031
 2582W        W45499  23.526   9.397  22.601  0.0016  0.0217 -0.5028
 2583W        W45500  25.118   6.977  21.461 -0.1714  0.1526  0.2018
 2584W        W45501  24.226  11.579  23.309 -0.0240 -0.4407 -0.0513
 2585W        W45502  22.973   8.846  23.138 -0.0334  0.0808 -0.2306
 2586W        W45503  20.554   9.393  26.480  0.1891  0.1246  0.3184
 2587W        W45504  20.347   7.357  27.379 -0.2431  0.1097 -0.1970
 2588W        W45505  23.964   7.841  22.400  0.0590 -0.1304  0.0196
 2589W        W45506  24.140   8.275  24.762  0.4447 -0.1319 -0.1683
 2590W        W45507  21.054   8.051  25.847  0.0341  0.0022 -0.0378
 2591W        W45508  25.286   8.940  24.750 -0.4143 -0.0708 -0.0681
 2592W        W45509  21.397   8.178  29.127  0.1196  0.0053 -0.0558
 2593W        W45510  21.485  12.160  25.466  0.1020 -0.2843  0.0304
 2594W        W45511  25.503  10.495  25.445  0.0525 -0.0728  0.2014
 2595W        W45512  24.237   8.540  22.468 -0.0447  0.0575 -0.0519
 2596W        W45513  21.708   6.963  28.571  0.1687  0.2396  0.0092
 2597W        W45514  23.806   7.535  26.638 -0.0148  0.3491  0.1687
 2598W        W45515  22.628   6.982  24.714 -0.0377  0.1038 -0.0245
 2599W        W45516  18.561   7.890  25.530 -0.0034 -0.0977  0.1309
 2600W        W45517  24.930   8.858  26.547 -0.0973  0.1935  0.0652
 2601W        W45518  21.518   9.731  25.286 -0.0427 -0.0567 -0.1780
 2602W        W45519  21.776   8.903  27.662 -0.1241 -0.0417 -0.0735
 2603W        W45520  20.630   8.404  26.339  0.1424 -0.2492 -0.0968
 2604W        W45521  22.931  12.370  25.804 -0.1183  0.1774 -0.3063
 2605W        W45522  22.213   8.826  23.625  0.1719 -0.1243 -0.0645
 2606W        W45523  22.625   8.366  28.318 -0.2765  0.1657 -0.0504
 2607W        W45524  25.141   9.300  25.622  0.1868  0.2123  0.0076
 2608W        W45525  21.963   7.849  24.098 -0.2232  0.0301  0.3834
 2609W        W45526  21.545   7.257  25.352 -0.1053 -0.2286  0.3017
 2610W        W45527  22.625  10.023  25.342 -0.1286  0.0745 -0.2777
 2611W        W45528  22.904   8.325  26.501  0.1829  0.1965  0.1528
 2612W        W45529  24.778   7.807  23.882  0.0641 -0.0055 -0.3184
 2613W        W45530  23.614  10.877  26.038  0.4049  0.2664 -0.3567
 2614W        W45531  23.784   9.892  27.490 -0.1241 -0.0026 -0.1450
 2615W        W45532  23.269   8.769  26.771 -0.2276 -0.0304  0.1610
 2616W        W45533  20.978  11.634  24.059  0.0186 -0.0050  0.0624
 2617W        W45534  21.276  10.628  27.840 -0.4422 -0.1182  0.1264
 2618W        W45535  22.661  13.067  24.977 -0.1125 -0.3901  0.1070
 2619W        W45536  25.947  12.197  24.857 -0.1960  0.1565  0.1226
 2620W        W45537  23.525  10.626  26.987 -0.0418 -0.0104 -0.1135
 2621W        W45538  23.696  11.690  29.146  0.0222 -0.2698  0.0962
 2622W        W45539  23.548  11.234  26.391 -0.1961  0.1448  0.5158
 2623W        W45540  22.316  10.489  26.167  0.1695  0.2085  0.0303
 2624W        W45541  23.662  11.707  26.251 -0.1237  0.0022  0.2898
 2625W        W45542  23.361   7.248  25.552  0.0098 -0.0640  0.0426
 2626W        W45543  24.624   8.854  26.099 -0.0890 -0.1273 -0.1183
 2627W        W45544  23.844  10.906  24.240  0.2927  0.1441  0.1524
 2628W        W45545  24.005  10.554  26.992 -0.3111 -0.2376  0.1314
 2629W        W45546  22.255   9.091  27.556  0.0834 -0.3089  0.0144
 2630W        W45547  22.055   9.013  25.178 -0.0364  0.2095 -0.0941
 2631W        W45548  24.713   8.864  27.055 -0.1414  0.0794 -0.1536
 2632W        W45549  22.603  11.058  25.582  0.0072  0.3521 -0.0530
 2633W        W45550  23.665   7.804  24.038  0.3131  0.3025 -0.0792
 2634W        W45551  24.239   6.835  25.933 -0.1871  0.0356  0.0036
 2635W        W45552  24.877   8.115  23.503 -0.0073  0.1260 -0.1706
 2636W        W45553  19.785   6.915  26.072  0.0975 -0.2341  0.0447
 2637W        W45554  23.122  11.834  25.711  0.0374 -0.1211 -0.1907
 2638W        W45555  22.060   8.434  25.874 -0.0494 -0.2827  0.1703
 2639W        W45556  23.507   8.448  27.743 -0.2141  0.2118  0.1084
 2640W        W45557  22.651  11.168  25.003  0.0813  0.0805 -0.1299
 2641W        W45558  24.139  10.105  26.827  0.2409  0.2401  0.0548
 2642W        W45559  23.314  10.276  26.638 -0.0752  0.5621  0.2392
 2643W        W45560  21.107   9.906  27.999 -0.2386 -0.1976  0.0427
 2644W        W45561  24.080   8.937  26.519 -0.3961  0.2415 -0.2002
 2645W        W45562  26.163  11.171  25.954 -0.0327 -0.0993  0.2370
 2646W        W45563  24.543   8.293  25.247 -0.0272  0.1140  0.2405
 2647W        W45564  22.637   7.505  26.034 -0.2431 -0.3613 -0.0447
 2648W        W45565  19.611  10.745  26.493  0.1185 -0.0794  0.3455
 2649W        W45566  21.732   8.816  25.881 -0.1974  0.1553 -0.3183
 2650W        W45567  23.551   6.736  23.910  0.2395 -0.1669 -0.0668
 2651W        W45568  27.131   9.291  26.347  0.1990 -0.1067 -0.0075
 2652W        W45569  20.016  10.673  26.872 -0.2073 -0.0124 -0.3093
 2653W        W45570  23.138   5.131  25.995 -0.1742 -0.3041  0.0220
 2654W        W45571  22.104   9.831  27.343  0.1427  0.2448  0.0549
 2655W        W45572  24.190   7.999  26.552 -0.1869  0.2794  0.2718
 2656W        W45573  24.069   7.559  23.193  0.0509  0.1033 -0.0049
 2657W        W45574  22.930   7.719  25.656 -0.0138  0.0740 -0.2716
 2658W        W45575  24.035   7.072  24.739 -0.3191  0.1392 -0.1935
 2659W        W45576  22.055   9.297  23.742  0.1939 -0.1961 -0.0023
 2660W        W45577  25.742  10.057  26.677 -0.1260 -0.2432  0.0894
 2661W        W45578  25.149   9.637  25.997 -0.1325  0.0252  0.0009
 2662W        W45579  25.646   7.810  26.092 -0.1954 -0.0681 -0.1472
 2663W        W45580  20.663  12.983  25.583 -0.0177  0.5218  0.0333
 2664W        W45581  22.663   8.110  27.768  0.3436 -0.1367  0.0079
 2665W        W45582  23.344   9.641  27.651  0.0605  0.1291  0.2745
 2666W        W45583  22.268  10.666  23.914  0.2281  0.2605  0.5681
 2667W        W45584  22.495   7.818  25.242  0.1296  0.1914  0.1630
 2668W        W45585  22.226   9.321  24.752 -0.1440 -0.2174 -0.2809
 2669W        W45586  21.263   8.799  25.669  0.0439  0.1138 -0.1271
 2670W        W45587  23.762  10.116  26.350  0.0002  0.2081 -0.1061
 2671W        W45588  24.428   7.731  25.082 -0.2258  0.0839  0.1985
 2672W        W45589  22.581   6.250  28.147 -0.1518  0.1405 -0.2008
 2673W        W45590  23.779   7.517  25.764  0.1617 -0.1735  0.0291
 2674W        W45591  22.733  11.035  26.574 -0.0602  0.0450 -0.0958
 2675W        W45592  27.491  10.939  24.802 -0.0246 -0.2352  0.0262
 2676W        W45593  24.170   7.897  24.074 -0.4412 -0.1855 -0.2299
 2677W        W45594  24.026  11.802  25.358 -0.0068  0.1119  0.3215
 2678W        W45595  20.480   8.199  27.273 -0.0337  0.0287  0.0145
 2679W        W45596  21.810   9.696  26.529 -0.0636  0.1586  0.2827
 2680W        W45597  21.968   7.034  27.138  0.3199  0.2375  0.2193
 2681W        W45598  23.408   9.554  23.786 -0.0028  0.2642  0.1671
 2682W        W45599  23.244   9.067  26.277 -0.0835  0.3624 -0.2225
 2683W        W45600  23.033   7.623  26.512 -0.0253 -0.1082  0.2223
 2684W        W45601  22.421   7.962  24.186  0.0744  0.1240 -0.2801
 2685W        W45602  23.308   9.505  24.717 -0.0232 -0.1841 -0.2120
 2686W        W45603  23.884   9.784  25.246  0.2011 -0.0711  0.2181
 2687W        W45604  23.829   7.969  27.643  0.0784 -0.1068 -0.0568
 2688W        W45605  22.643  10.452  24.321  0.1584  0.3317  0.1325
 2689W        W45606  26.151  11.718  27.065  0.0184  0.1118  0.1564
 2690W        W45607  24.454  12.195  26.055  0.1626 -0.2129  0.2489
 2691W        W45608  22.062   8.435  28.422 -0.1064  0.2812 -0.0680
 2692W        W45609  21.460   7.375  24.516  0.2350 -0.0624  0.1024
 2693W        W45610  21.215  12.977  25.821 -0.2446 -0.1734 -0.0934
 2694W        W45611  22.482   9.237  25.420 -0.4613 -0.0653  0.2129
 2695W        W45612  24.835   7.524  24.807 -0.0505  0.0895  0.1364
 2696W        W45613  27.324  11.426  24.568  0.0292  0.0181 -0.0236
 2697W        W45614  24.121   7.582  24.702  0.0909 -0.2742 -0.1318
 2698W        W45615  22.234  11.690  26.422  0.0198  0.1617  0.2344
 2699W        W45616  23.347   6.812  26.909  0.1956 -0.0409  0.2021
 2700W        W45617  24.069   8.380  25.440 -0.2826 -0.0775  0.2412
 2701W        W45618  23.826   9.492  24.756  0.4444 -0.0556  0.1095
 2702W        W45619  22.341   7.092  25.921  0.0823 -0.0297  0.1542
 2703W        W45620  23.634  14.918  25.577  0.1637 -0.0359  0.0847
 2704W        W45621  21.764  11.747  25.658 -0.0630  0.0227  0.2245
 2705W        W45622  21.216   9.177  26.860 -0.0155  0.1737 -0.1099
 2706W        W45623  23.655  11.400  25.025  0.1653 -0.1425 -0.1285
 2707W        W45624  23.316   7.591  24.937 -0.2833 -0.0336 -0.1157
 2708W        W45625  21.541   9.221  28.289 -0.0076 -0.0357  0.0576
 2709W        W45626  23.512  10.123  28.430 -0.0266 -0.2139  0.1466
 2710W        W45627  21.217   6.406  25.429 -0.0922 -0.0453 -0.0455
 2711W        W45628  22.206  11.747  27.476  0.3501 -0.3399 -0.0766
 2712W        W45629  23.131   8.670  25.202 -0.0229 -0.1531 -0.1266
 2713W        W45630  23.209   7.939  24.518 -0.2847  0.0447  0.0718
 2714W        W45631  22.731   8.721  30.088  0.2617 -0.0069 -0.0315
 2715W        W45632  25.163   8.221  26.935  0.0777 -0.0969 -0.1762
 2716W        W45633  24.134   7.037  22.750  0.0827 -0.0566 -0.1693
 2717W        W45634  23.990   9.745  21.780  0.0612 -0.1095 -0.1079
 2718W        W45635  21.094   8.912  27.268  0.2002  0.0374  0.1764
 2719W        W45636  23.603  10.459  25.636  0.2753 -0.1858  0.2424
 2720W        W45637  23.274   7.336  26.982  0.2540  0.1056  0.1494
 2721W        W45638  23.893   7.996  23.383 -0.0775 -0.2806  0.0144
 2722W        W45639  24.449  11.310  26.254 -0.0718  0.1224  0.2054
 2723W        W45640  22.304  12.206  26.244 -0.0919  0.0096  0.1120
 2724W        W45641  21.789   9.432  27.637  0.1303 -0.4913 -0.1272
 2725W        W45642  24.338   9.552  25.434  0.0501  0.3305 -0.0740
 2726W        W45643  21.704   8.610  26.309 -0.0440  0.2853  0.1708
 2727W        W45644  24.052   8.772  25.012 -0.0707 -0.2713 -0.1625
 2728W        W45645  22.852   8.787  26.244  0.0266  0.0558 -0.0157
 2729W        W45646  21.432   9.688  24.529  0.2284 -0.0011 -0.1625
 2730W        W45647  21.385   7.191  26.289 -0.2336  0.0142  0.0786
 2731W        W45648  23.603   7.130  26.035  0.1678 -0.0629 -0.3821
 2732W        W45649  25.373   5.140  27.457 -0.2385 -0.0190 -0.0614
 2733W        W45650  24.301   9.849  27.681  0.0250  0.1665  0.0335
 2734W        W45651  27.144   7.604  26.350 -0.0609  0.0985 -0.0843
 2735W        W45652  23.705   7.568  27.119  0.3333 -0.0625  0.2109
 2736W        W45653  21.808   7.651  23.568 -0.2244 -0.3073  0.0772
 2737W        W45654  22.678   7.588  27.622  0.2982 -0.3504 -0.2735
 2738W        W45655  21.712   9.542  27.164 -0.1519  0.0094  0.1338
 2739W        W45656  22.012   9.850  26.092 -0.0590  0.0384  0.0247
 2740W        W45657  22.322   8.962  26.274  0.1582  0.2773  0.0721
 2741W        W45658  24.908   7.507  26.329  0.0478  0.0085  0.0660
 2742W        W45659  23.058   9.990  26.169 -0.2518  0.2493  0.1029
 2743W        W45660  21.326   6.537  24.889  0.2573 -0.1657 -0.0262
 2744W        W45661  20.726  12.147  24.932  0.0014  0.3816  0.2073
 2745W        W45662  22.731   7.971  23.622  0.2782 -0.1105  0.2532
 2746W        W45663  21.730   6.599  27.015 -0.2660 -0.0695 -0.3001
 2747W        W45664  23.115   9.292  26.841 -0.0785 -0.1200  0.1031
 2748W        W45665  24.343   9.447  24.240 -0.0021  0.0911  0.3445
 2749W        W45666  26.097   9.061  26.046 -0.2050 -0.0494 -0.1079
 2750W        W45667  25.058   9.900  25.339 -0.0387  0.1253  0.4024
 2751W        W45668  23.673   8.759  25.532  0.3873  0.0795  0.2445
 2752W        W45669  20.952  10.699  26.948  0.0001 -0.0660  0.2335
 2753W        W45670  22.876   8.105  24.233 -0.2097  0.0434 -0.1013
 2754W        W45671  21.748  10.105  25.532  0.2873 -0.0733  0.0086
 2755W        W45672  25.359   7.790  26.508  0.0322 -0.2789 -0.0079
 2756W        W45673  23.056  10.173  25.063 -0.0866 -0.3971 -0.1074
 2757W        W45674  21.287  10.206  24.699  0.2036 -0.4131  0.0476
 2758W        W45675  23.946   7.953  25.098  0.1239  0.1494  0.0923
 2759W        W45676  21.719  11.874  27.292  0.1079  0.2209 -0.1493
 2760W        W45677  22.501   8.768  26.733 -0.2417  0.1851  0.0894
 2761W        W45678  23.270   6.504  24.319  0.2743  0.0323 -0.1145
 2762W        W45679  22.101  12.303  24.783  0.1827 -0.2206  0.2617
 2763W        W45680  22.982   9.212  28.693  0.1073  0.0674 -0.2527
 2764W        W45681  22.041   8.291  24.454 -0.0251 -0.0296 -0.0759
 2765W        W45682  25.161   7.583  26.941  0.0780  0.0550  0.1701
 2766W        W45683  23.699   7.830  24.715  0.1999  0.1728  0.0977
 2767W        W45684  22.517  10.259  24.895 -0.1935  0.1753  0.3847
 2768W        W45685  24.244  10.468  25.693 -0.2466  0.2684  0.1035
 2769W        W45686  21.566   8.318  24.174 -0.0469  0.1803  0.1165
 2770W        W45687  22.016  11.375  24.313  0.1187 -0.0446 -0.2613
 2771W        W45688  21.014  10.342  26.440 -0.0306 -0.2965 -0.1702
 2772W        W45689  25.342   7.082  24.959 -0.1181 -0.1755 -0.0691
 2773W        W45690  21.790   8.098  25.659 -0.2690 -0.0231 -0.2454
 2774W        W45691  21.095   8.648  26.155  0.1889 -0.2647  0.0362
 2775W        W45692  24.015   7.692  26.176 -0.0351 -0.1095 -0.1835
 2776W        W45693  22.827   9.751  26.662  0.2476 -0.2311  0.0276
 2777W        W45694  23.283   8.341  29.035 -0.2985  0.1822 -0.2796
 2778W        W45695  22.011  10.202  26.501 -0.0023  0.3654  0.1420
 2779W        W45696  21.407   7.740  25.562  0.0623  0.2766 -0.1504
 2780W        W45697  24.682  10.037  25.696  0.0969 -0.2277 -0.2638
 2781W        W45698  23.172   8.358  25.598 -0.0433 -0.0795  0.2627
 2782W        W45699  20.577   8.962  26.010 -0.4100 -0.0858  0.1160
 2783W        W45700  20.471   9.944  26.555  0.4237 -0.0672 -0.3963
 2784W        W45701  23.350   9.154  27.734  0.2060  0.2968 -0.0851
 2785W        W45702  22.605   8.840  27.216 -0.0937  0.0385  0.0162
 2786W        W45703  21.408  10.662  26.135 -0.0332 -0.0418 -0.1313
 2787W        W45704  22.248   7.641  22.785 -0.0043 -0.4392  0.3395
 2788W        W45705  20.094   9.031  26.335  0.1394  0.0968 -0.0597
 2789W        W45706  23.585   7.285  23.956  0.2019  0.0280 -0.1999
 2790W        W45707  24.672  10.079  24.953  0.2769  0.5014  0.1721
 2791W        W45708  20.488   8.697  25.604 -0.2550  0.0887  0.1831
 2792W        W45709  22.913   7.930  27.292 -0.0623 -0.3433 -0.1691
 2793W        W45710  23.689   9.742  22.952 -0.0765  0.1493  0.0673
 2794W        W45711  24.434   7.619  28.298  0.1690 -0.0215 -0.1385
 2795W        W45712  22.694   8.855  28.312 -0.0751  0.0616  0.0609
 2796W        W45713  24.125   8.156  26.046  0.0965  0.0360  0.0874
 2797W        W45714  21.570   9.898  27.476 -0.0702  0.0688  0.1558
 2798W        W45715  24.520   9.658  29.078 -0.0020  0.3956 -0.1299
 2799W        W45716  20.820  10.441  27.762  0.2384  0.1752  0.1666
 2800W        W45717  24.772   7.352  25.282  0.0620 -0.1339  0.1029
 2801W        W45718  22.084   4.164  24.219  0.1419 -0.0163 -0.1351
 2802W        W45719  22.106  10.443  25.303 -0.0304 -0.0075  0.0672
 2803W        W45720  23.834   9.501  26.289 -0.0944  0.5405  0.0746
 2804W        W45721  24.105   8.943  23.322  0.1291  0.0939 -0.4305
 2805W        W45722  23.572   7.150  24.865 -0.0545  0.0901 -0.3223
 2806W        W45723  21.259   9.875  26.846 -0.0330 -0.1888  0.0326
 2807W        W45724  22.556   8.419  24.537 -0.3705  0.0728  0.2155
 2808W        W45725  22.829  11.831  23.971 -0.0027 -0.1825  0.4464
 2809W        W45726  23.426   9.029  27.207 -0.2115 -0.0006 -0.3375
 2810W        W45727  22.947   9.146  25.032  0.1444  0.5025 -0.2097
 2811W        W45728  23.695   9.086  25.952 -0.0876 -0.1142  0.1323
 2812W        W45729  22.651   7.089  24.234  0.4384  0.1051 -0.1653
 2813W        W45730  24.374   7.524  26.521  0.0210  0.0186  0.2306
 2814W        W45731  22.565   5.999  26.019  0.3306  0.0540 -0.1906
 2815W        W45732  23.639   8.751  29.093 -0.1484  0.1704 -0.0717
 2816W        W45733  22.286   8.423  26.386 -0.2710  0.2151 -0.3112
 2817W        W45734  25.687  11.149  27.529  0.2689 -0.0758  0.3378
 2818W        W45735  26.426   8.884  23.131 -0.0103  0.0000  0.3003
 2819W        W45736  22.518   8.574  25.921 -0.1511  0.1349 -0.0833
 2820W        W45737  22.256  10.084  24.190 -0.1411 -0.2453 -0.0741
 2821W        W45738  24.799   8.713  23.872 -0.2662 -0.1462 -0.0688
 2822W        W45739  22.259   9.884  24.650 -0.2157 -0.2746 -0.1997
 2823W        W45740  25.987   8.566  25.717 -0.1350 -0.0192  0.0961
 2824W        W45741  22.462   9.509  26.210  0.0335  0.1750 -0.1922
 2825W        W45742  23.212   8.487  26.145  0.1284 -0.0254  0.0929
 2826W        W45743  24.907  12.030  25.053  0.0345  0.1016 -0.0536
 2827W        W45744  23.430  10.384  26.095  0.0050  0.1879  0.0793
 2828W        W45745  24.565   7.735  24.469  0.1499  0.3744  0.1467
 2829W        W45746  22.993   9.486  24.208  0.0927  0.1341  0.2590
 2830W        W45747  23.430   9.716  26.546 -0.0286  0.0431  0.0017
 2831W        W45748  22.662   8.004  22.977  0.4656 -0.1703 -0.1267
 2832W        W45749  21.360  10.061  24.161  0.2500 -0.0962  0.0034
 2833W        W45750  24.117   9.734  25.926 -0.0632 -0.0538 -0.0284
 2834W        W45751  26.706   8.547  27.625  0.0535 -0.0203 -0.1847
 2835W        W45752  24.084   6.027  22.772  0.0720  0.0465  0.2038
 2836W        W45753  24.746   6.075  26.399 -0.0494  0.1952  0.0001
 2837W        W45754  23.062   9.675  25.132 -0.0283  0.0649 -0.0885
 2838W        W45755  22.221   9.002  25.818  0.1866  0.0899 -0.1674
 2839W        W45756  23.306  10.601  25.285 -0.1375  0.0664 -0.0063
 2840W        W45757  21.448  12.179  26.047 -0.1650 -0.1080  0.0600
 2841W        W45758  23.844  12.733  24.884  0.1994  0.1204  0.0562
 2842W        W45759  21.572   9.070  27.217  0.1307 -0.2664 -0.1627
 2843W        W45760  24.373   8.012  22.631 -0.0293  0.0264 -0.2720
 2844W        W45761  24.225   8.060  27.996 -0.0314  0.0644 -0.1135
 2845W        W45762  25.124   9.084  27.300 -0.0074 -0.0619  0.1575
 2846W        W45763  23.024   8.857  27.448  0.2192  0.0079  0.1843
 2847W        W45764  23.614   9.183  26.713  0.5341  0.2589  0.1517
 2848W        W45765  23.727  11.571  27.363  0.0143  0.0014  0.2022
 2849W        W45766  25.475  11.925  25.945  0.1771  0.4566  0.2358
 2850W        W45767  23.430  10.008  25.325 -0.1259  0.0828  0.0063
 2851W        W45768  21.350   8.023  27.402 -0.3199 -0.0513  0.0671
 2852W        W45769  23.078   8.709  28.701 -0.0167  0.1692  0.2734
 2853W        W45770  22.700  10.551  27.853 -0.0488 -0.0245  0.0975
 2854W        W45771  23.108   7.313  26.007  0.2481  0.0981  0.2218
 2855W        W45772  23.727   9.986  24.795 -0.0873 -0.1578 -0.2647
 2856W        W45773  20.333  10.069  27.021 -0.0063 -0.0716  0.1945
 2857W        W45774  21.824   9.146  26.241  0.2009  0.3265 -0.1536
 2858W        W45775  23.176  12.635  26.756  0.0216 -0.0313 -0.2497
 2859W        W45776  24.740  10.610  24.874  0.0026  0.0029  0.0177
 2860W        W45777  23.232   8.753  24.662 -0.3380 -0.0608 -0.1072
 2861W        W45778  24.718  11.103  25.789 -0.2503 -0.0896 -0.1152
 2862W        W45779  21.478   8.648  25.012 -0.1888  0.2980  0.0539
 2863W        W45780  23.182  10.845  26.378  0.0206 -0.0007  0.0035
 2864W        W45781  21.696  10.170  25.008  0.1105 -0.1298  0.0530
 2865W        W45782  24.718  10.547  25.799 -0.2459  0.2820 -0.0638
 2866W        W45783  25.566  11.321  23.455  0.0832  0.4552  0.1188
 2867W        W45784  24.327  10.853  27.287  0.2331  0.0311 -0.1210
 2868W        W45785  23.687   5.891  23.624 -0.1179 -0.1771 -0.3071
 2869W        W45786  24.696   9.328  26.381  0.3769  0.2801  0.0168
 2870W        W45787  23.417   7.773  25.410 -0.1746  0.1273 -0.2956
 2871W        W45788  22.311  10.885  28.344  0.0858  0.3019  0.0478
 2872W        W45789  21.507  10.179  26.372 -0.2784  0.1809 -0.1014
 2873W        W45790  22.152   5.694  25.804  0.0493 -0.1343 -0.0912
 2874W        W45791  21.911  11.008  28.602 -0.2279  0.1920  0.1923
 2875W        W45792  25.672   9.155  29.112  0.0804 -0.0900 -0.2940
 2876W        W45793  20.437  11.446  25.516  0.2168 -0.0332 -0.1650
 2877W        W45794  25.234  11.165  24.443  0.0436  0.0167  0.1324
 2878W        W45795  20.638   7.277  25.187  0.1760  0.0523  0.0812
 2879W        W45796  22.570  10.425  25.751 -0.1133  0.1594 -0.0139
 2880W        W45797  24.105   6.386  27.291  0.0572 -0.1727 -0.2336
 2881W        W45798  22.063  10.320  24.715  0.2357 -0.2542  0.3344
 2882W        W45799  21.943   7.453  26.866 -0.0839 -0.2276  0.1800
 2883W        W45800  25.635  10.255  24.700 -0.5450 -0.0424 -0.2565
 2884W        W45801  23.201  10.826  23.628  0.0142 -0.2736 -0.0405
 2885W        W45802  22.322  11.284  26.669  0.1227 -0.0202 -0.2703
 2886W        W45803  21.907   6.792  22.996  0.1103  0.2063  0.2848
 2887W        W45804  23.987   7.332  27.414  0.1571  0.0054 -0.0435
 2888W        W45805  22.367   9.571  25.718 -0.1837 -0.2612 -0.0186
 2889W        W45806  22.974   5.208  25.066  0.0971 -0.0451 -0.1269
 2890W        W45807  23.685  10.508  27.535 -0.2839 -0.3293 -0.0320
 2891W        W45808  24.060   8.672  24.497 -0.0102  0.2950 -0.0988
 2892W        W45809  24.379   9.940  28.347 -0.2582 -0.3033 -0.1357
 2893W        W45810  21.476  11.137  26.364 -0.4598  0.3403  0.3411
 2894W        W45811  20.030   7.732  24.447 -0.0406  0.0142  0.4056
 2895W        W45812  24.670   8.309  25.874  0.3390  0.0348  0.0385
 2896W        W45813  20.806   8.155  23.484  0.0783 -0.0767  0.1664
 2897W        W45814  24.624  11.864  28.858  0.2461  0.0563  0.1322
 2898W        W45815  20.209   7.883  25.113  0.2161  0.3468  0.2467
 2899W        W45816  23.291   7.074  23.590  0.0250 -0.0058  0.1111
 2900W        W45817  24.412   8.372  24.228 -0.2626  0.0385  0.1057
 2901W        W45818  23.040   9.288  28.137  0.0031  0.3810 -0.0451
 2902W        W45819  26.573  10.804  28.405 -0.1495  0.0127  0.3213
 2903W        W45820  20.643   6.834  26.311  0.2471  0.2055  0.0345
 2904W        W45821  25.807   8.067  25.643  0.1124 -0.0747  0.1546
 2905W        W45822  24.267   7.429  25.790 -0.1307 -0.1016  0.2569
 2906W        W45823  24.160  11.963  22.488 -0.0926 -0.2679  0.0598
 2907W        W45824  25.438   9.014  23.995 -0.2120 -0.1512 -0.3026
 2908W        W45825  23.559   9.519  27.112  0.0196 -0.0496  0.1371
 2909W        W45826  21.690   9.195  26.706  0.1970 -0.1221 -0.0742
 2910W        W45827  24.224   9.919  26.421  0.3401 -0.1894  0.0975
 2911W        W45828  24.202   7.705  27.054 -0.0823 -0.0234  0.1626
 2912W        W45829  23.536   8.201  25.226 -0.0550 -0.0168 -0.3066
 2913W        W45830  24.099   9.616  27.236  0.4468  0.0731 -0.0709
 2914W        W45831  23.114  10.755  25.815  0.1685  0.1310 -0.0533
 2915W        W45832  23.969   7.200  26.308  0.0324  0.4458 -0.0372
 2916W        W45833  25.429   7.600  28.226 -0.0357 -0.1710  0.1041
 2917W        W45834  23.683  10.673  22.640 -0.0610  0.1185  0.1269
 2918W        W45835  24.429   7.142  25.012  0.0857 -0.2093  0.2613
 2919W        W45836  23.273  12.211  25.384 -0.0888 -0.2251  0.3087
 2920W        W45837  21.978  11.525  26.931 -0.2766 -0.0621  0.1444
 2921W        W45838  23.055   7.269  22.231 -0.1597 -0.0604 -0.0161
 2922W        W45839  22.596   9.342  27.085  0.1141 -0.0616  0.2084
 2923W        W45840  24.519  11.386  26.856 -0.0216 -0.0965 -0.1924
 2924W        W45841  23.385  10.905  24.564 -0.1137 -0.1670  0.0166
 2925W        W45842  23.927  10.072  25.672 -0.0968 -0.0818 -0.0164
 2926W        W45843  23.839  10.609  24.638 -0.1250 -0.0586  0.1512
 2927W        W45844  24.781   9.525  24.744 -0.1925 -0.0829 -0.0158
 2928W        W45845  21.366   8.942  26.424 -0.1119  0.0240  0.2588
 2929W        W45846  23.939   4.977  26.450 -0.2798  0.0559 -0.0568
 2930W        W45847  25.345   7.901  25.610 -0.0867  0.3102 -0.1503
 2931W        W45848  24.914  10.058  26.935 -0.0933 -0.0465  0.3577
 2932W        W45849  21.979   8.533  23.325 -0.0013 -0.0855 -0.2297
 2933W        W45850  21.320   7.816  24.319  0.2102  0.1893 -0.0822
 2934W        W45851  22.190  10.948  25.333 -0.5915 -0.0042  0.0096
 2935W        W45852  23.727  10.051  27.027  0.0251 -0.0026  0.0943
 2936W        W45853  23.273   7.864  29.907 -0.0534  0.0652 -0.0570
 2937W        W45854  22.241  10.419  27.570 -0.1631 -0.3460  0.1525
 2938W        W45855  22.029   5.630  26.454 -0.1410  0.1715  0.0265
 2939W        W45856  25.784  11.124  25.626  0.1457 -0.1953  0.1209
 2940W        W45857  22.678   8.605  27.704 -0.4215 -0.1251  0.2013
 2941W        W45858  21.086   8.213  23.998  0.1932 -0.2366 -0.4166
 2942W        W45859  24.232   9.240  26.078  0.1564 -0.2241 -0.1806
 2943W        W45860  23.934  10.455  26.051  0.1846  0.2944  0.0460
 2944W        W45861  23.391   8.781  23.691 -0.1494 -0.0105 -0.0022
 2945W        W45862  25.931  10.404  27.666 -0.0069 -0.0978  0.3140
 2946W        W45863  22.194  10.094  25.674 -0.0750  0.1684 -0.1357
 2947W        W45864  23.926   9.181  28.510  0.1224 -0.1100  0.3093
 2948W        W45865  21.819   8.274  26.699 -0.1843  0.3390 -0.1049
 2949W        W45866  20.812   7.077  23.452 -0.1090  0.3297 -0.1984
 2950W        W45867  23.070   8.822  27.985 -0.3345  0.2113 -0.0383
 2951W        W45868  23.844  10.290  25.210  0.1385 -0.3029  0.2402
 2952W        W45869  23.776  11.905  23.873 -0.0937 -0.0877 -0.0087
 2953W        W45870  24.864   7.870  25.285 -0.1155  0.0578 -0.0902
 2954W        W45871  24.291  12.020  26.538  0.1620  0.0416 -0.1161
 2955W        W45872  21.641   7.833  26.876 -0.1854  0.0523  0.3649
 2956W        W45873  24.249   9.172  24.746  0.2346 -0.1324 -0.1564
 2957W        W45874  23.218   9.887  26.970 -0.1714  0.0885  0.2814
 2958W        W45875  24.139  12.197  25.633 -0.3558  0.0818  0.0729
 2959W        W45876  25.923   6.576  27.247  0.1018  0.2530  0.1410
 2960W        W45877  21.566   9.041  23.914 -0.0948  0.0280 -0.2917
 2961W        W45878  20.066   8.150  25.513  0.1416  0.0727  0.1334
 2962W        W45879  21.848   9.430  25.794 -0.0360 -0.1583  0.0975
 2963W        W45880  24.127   8.896  25.501  0.1401 -0.0088  0.0084
 2964W        W45881  21.380   8.236  26.937 -0.1321  0.1007 -0.0410
 2965W        W45882  24.017   9.325  22.481  0.0134  0.1120  0.0132
 2966W        W45883  21.659   8.973  23.450 -0.0232 -0.1194  0.0059
 2967W        W45884  21.295  11.099  26.820 -0.3996 -0.0311  0.2070
 2968W        W45885  23.576  10.040  24.295 -0.1209  0.2316  0.1452
 2969W        W45886  22.718   9.200  25.899  0.3295 -0.1676  0.3394
 2970W        W45887  23.286   9.149  25.408  0.2016 -0.0058 -0.0101
 2971W        W45888  24.390   9.255  26.970 -0.0946 -0.0423 -0.2660
 2972W        W45889  23.234  11.145  25.004  0.0480  0.3170 -0.0604
 2973W        W45890  23.678   8.555  23.380  0.1817  0.0525  0.2826
 2974W        W45891  24.102  11.776  25.877 -0.0697 -0.0074 -0.2107
 2975W        W45892  25.617  12.216  29.170 -0.1073  0.1746  0.0905
 2976W        W45893  23.011  10.757  27.159 -0.1260 -0.3955 -0.2112
 2977W        W45894  25.696  10.178  27.164  0.1679 -0.3699  0.2107
 2978W        W45895  21.047   7.092  26.689 -0.2581  0.1400  0.0017
 2979W        W45896  22.362  12.237  25.770 -0.2423 -0.1170 -0.0600
 2980W        W45897  23.645   8.729  26.375  0.1833 -0.0885 -0.2042
 2981W        W45898  23.429   8.005  25.849 -0.1827 -0.1795  0.1049
 2982W        W45899  22.963   9.497  26.243 -0.0299  0.1582 -0.0492
 2983W        W45900  22.545   7.558  23.199  0.0533 -0.1076 -0.2058
 2984W        W45901  22.637  11.583  25.617 -0.0729  0.0768 -0.1028
 2985W        W45902  25.494   9.537  27.821 -0.1984 -0.1455  0.0709
 2986W        W45903  23.632   8.559  30.247 -0.0346  0.0114 -0.2244
 2987W        W45904  22.837   7.801  29.372 -0.2645 -0.1928  0.6171
 2988W        W45905  24.573   8.700  28.953  0.1154  0.2471 -0.0387
 2989W        W45906  25.403  10.189  29.367  0.1418 -0.0504  0.4105
 2990W        W45907  23.699   8.804  31.058  0.1075 -0.0285  0.1932
 2991W        W45908  25.520  10.460  27.918 -0.1195  0.0568 -0.0630
 2992W        W45909  21.599   8.743   0.228  0.1424  0.0786  0.4023
 2993W        W45910  25.750  10.543  31.888 -0.2610  0.1959 -0.0461
 2994W        W45911  24.704  11.026  30.097 -0.2646 -0.2746 -0.3540
 2995W        W45912  24.494   8.592  27.964 -0.2119  0.3815 -0.0539
 2996W        W45913  22.383   7.779  30.104  0.0158  0.0740  0.1187
 2997W        W45914  22.042  12.180  29.475 -0.0492 -0.4214  0.0694
 2998W        W45915  23.052   6.734  29.092 -0.1892 -0.1839  0.0292
 2999W        W45916  22.165   5.824  31.846 -0.0287 -0.1011  0.0113
 3000W        W45917  22.840   9.701  30.438  0.3246 -0.0409  0.0191
 3001W        W45918  23.599   7.971  28.788  0.2629 -0.1864 -0.0512
 3002W        W45919  21.141   7.976  27.983  0.1707  0.3064  0.4391
 3003W        W45920  24.034  10.752  28.211  0.1671 -0.0065 -0.0364
 3004W        W45921  24.402  11.603  27.735 -0.3089 -0.0646 -0.0003
 3005W        W45922  22.382   8.437  30.763 -0.0977 -0.0392 -0.2420
 3006W        W45923  24.532   9.537  30.065 -0.0344 -0.1262  0.4980
 3007W        W45924  21.949  10.623  29.351  0.0425  0.3011  0.1723
 3008W        W45925  22.363   8.287  27.448  0.1597 -0.1637  0.3723
 3009W        W45926  22.026   7.641  29.777  0.2393 -0.0053  0.1291
 3010W        W45927  23.971  10.239  31.477  0.4528 -0.3296  0.3763
 3011W        W45928  22.551   9.225  29.197 -0.1869  0.0737 -0.2056
 3012W        W45929  24.243  10.240  30.605 -0.0294 -0.2023 -0.1728
 3013W        W45930  21.681  10.412  30.292  0.0023 -0.0343 -0.0510
 3014W        W45931  22.432  11.550  30.719  0.0111 -0.1445  0.0353
 3015W        W45932  21.583   9.350   0.094  0.1857  0.0266  0.0519
 3016W        W45933  20.583  10.039  30.743 -0.0759 -0.5221 -0.1602
 3017W        W45934  19.768  11.171  28.533  0.0611 -0.0172  0.1234
 3018W        W45935  21.547   9.646  27.958  0.2444  0.0787  0.0314
 3019W        W45936  22.795  11.716  29.378  0.0748  0.0493  0.1372
 3020W        W45937  24.968  10.551  27.911 -0.4872  0.0925 -0.0460
 3021W        W45938  21.392  12.165  29.679  0.1808  0.0808 -0.0128
 3022W        W45939  22.544  10.160  26.578 -0.0299 -0.3442  0.1032
 3023W        W45940  24.470  10.607  31.114 -0.0801 -0.0741 -0.0537
 3024W        W45941  21.627  11.180  30.951  0.3837 -0.3635  0.1751
 3025W        W45942  21.739   9.416  29.359  0.0063 -0.0930 -0.1952
 3026W        W45943  22.585  11.337  28.373  0.0381 -0.1064  0.1118
 3027W        W45944  23.633  11.176  29.213 -0.2786  0.1490 -0.0980
 3028W        W45945  22.028   7.944  30.390 -0.0017 -0.1072 -0.0227
 3029W        W45946  21.743  11.811  29.028 -0.3494  0.4578 -0.0613
 3030W        W45947  19.219  11.167  29.275 -0.0778 -0.0584 -0.0289
 3031W        W45948  22.978   9.256   0.192 -0.1323  0.3609 -0.0454
 3032W        W45949  22.925  10.906  28.522 -0.1341 -0.6310  0.1410
 3033W        W45950  24.091   8.693  29.384 -0.0019  0.0264 -0.1193
 3034W        W45951  22.742   7.948  24.784  0.1136 -0.0463  0.2884
 3035W        W45952  24.954   8.487  28.118  0.3721 -0.1408  0.0120
 3036W        W45953  22.071   5.588  30.269 -0.2230  0.0707 -0.1607
 3037W        W45954  22.853  12.434  27.269 -0.1420 -0.1618  0.2435
 3038W        W45955  22.787   6.176   0.576  0.0965  0.0511  0.2138
 3039W        W45956  24.151   9.560  29.698 -0.0536 -0.0761 -0.0193
 3040W        W45957  23.269   9.430  25.851  0.0969 -0.0850  0.1523
 3041W        W45958  24.163   8.621  30.151 -0.1081  0.1304 -0.0808
 3042W        W45959  21.927  11.118  29.104 -0.1779  0.0230  0.0973
 3043W        W45960  23.240   9.770  28.164  0.0150  0.0742 -0.1603
 3044W        W45961  25.777  11.812  26.648  0.2599  0.2547  0.2070
 3045W        W45962  25.118  11.528  29.105  0.0226  0.2677 -0.0443
 3046W        W45963  24.377  12.137  28.295  0.0121  0.1006 -0.1176
 3047W        W45964  22.735   6.335  30.235 -0.1009  0.2098  0.2075
 3048W        W45965  22.077  10.989  29.648  0.0513  0.0549  0.0904
 3049W        W45966  22.760   9.470  31.722  0.0315 -0.1612 -0.0855
 3050W        W45967  20.876   7.571  26.824 -0.3362 -0.0837  0.0413
 3051W        W45968  25.601   7.026  30.637  0.0290  0.0108  0.0636
 3052W        W45969  21.591   9.840  31.156 -0.0086  0.0371 -0.1542
 3053W        W45970  23.339   8.162  29.535  0.0888  0.1033 -0.2401
 3054W        W45971  24.707   7.797  30.329 -0.0936  0.2610  0.2584
 3055W        W45972  23.268  10.444  30.378  0.0482  0.2225  0.0383
 3056W        W45973  24.493  10.332  28.057  0.1621 -0.0092 -0.2372
 3057W        W45974  23.274   6.996  28.705  0.0576  0.1662 -0.0462
 3058W        W45975  23.204   7.800  29.046 -0.2495  0.0666  0.0999
 3059W        W45976  21.648   7.690  30.272 -0.0690 -0.1882  0.4062
 3060W        W45977  23.254   9.837  29.606 -0.1260 -0.0300  0.2909
 3061W        W45978  23.971   8.091  31.072 -0.1088 -0.1050 -0.2190
 3062W        W45979  24.013   8.502  27.822  0.2432  0.1910 -0.0777
 3063W        W45980  21.147  12.308  29.044 -0.1271 -0.1644  0.0742
 3064W        W45981  22.470   6.879   0.363  0.1496  0.1304  0.1962
 3065W        W45982  22.776  11.617   0.668  0.1134 -0.1065  0.1573
 3066W        W45983  22.498  11.014  28.828  0.1703 -0.2010  0.1492
 3067W        W45984  21.690  11.194  30.110  0.0210  0.0377 -0.2828
 3068W        W45985  21.601  10.624  28.810 -0.2074 -0.1248  0.1801
 3069W        W45986  22.697   9.180  30.281 -0.0229 -0.1448 -0.1237
 3070W        W45987  22.604  10.530  28.888  0.1752  0.1634 -0.2321
 3071W        W45988  24.576   8.383  29.375  0.1999 -0.0687 -0.0471
 3072W        W45989  23.056   8.515  29.422 -0.0988 -0.2291 -0.2862
 3073W        W45990  24.245  10.005  28.832 -0.2361 -0.3056  0.1628
 3074W        W45991  22.039   9.815  28.952  0.0698 -0.1033 -0.1896
 3075W        W45992  25.229  10.360  27.277  0.3996  0.0047 -0.2494
 3076W        W45993  25.122   8.670  29.807  0.0498 -0.1186 -0.1739
 3077W        W45994  24.784   9.358  28.542  0.1354  0.1480 -0.1897
 3078W        W45995  20.787   9.335  29.146  0.0071  0.0936 -0.0446
 3079W        W45996  17.948   7.853  27.274  0.1102 -0.1027 -0.0691
 3080W        W45997  24.674   5.750   0.478  0.1829  0.0960 -0.3717
 3081W        W45998  22.761   6.439  31.528  0.0998  0.0094 -0.0474
 3082W        W45999  23.096   7.106  31.585 -0.0337  0.1589 -0.2069
 3083W        W46000  22.386   6.193  28.631 -0.2676  0.1319  0.3294
 3084W        W46001  23.543   9.555  29.978  0.1895  0.0306  0.1190
 3085W        W46002  22.515   9.300  29.775  0.2407  0.0769  0.2257
 3086W        W46003  20.941   9.728  28.800 -0.0366 -0.0239 -0.1492
 3087W        W46004  24.275   7.148  31.112 -0.1326 -0.2021  0.0228
 3088W        W46005  21.919  11.808  28.544  0.0198 -0.1307  0.2270
 3089W        W46006  23.932  11.738  29.929 -0.3022  0.1112 -0.1526
 3090W        W46007  24.198  10.495  28.848 -0.0739 -0.1222 -0.0625
 3091W        W46008  23.112   6.774  29.747  0.2700 -0.1431 -0.1281
 3092W        W46009  19.736   7.893  26.931 -0.1542 -0.1191  0.3065
 3093W        W46010  23.549  12.013  28.785 -0.0376  0.0216  0.0814
 3094W        W46011  22.604  12.125  28.692  0.0935  0.3774  0.0526
 3095W        W46012  23.967   8.167  30.097 -0.0449  0.0053 -0.2450
 3096W        W46013  23.077  11.911  30.407 -0.0126 -0.0005 -0.4930
 3097W        W46014  23.138  10.725  27.766 -0.0544  0.0906 -0.0819
 3098W        W46015  22.705  11.034  30.897 -0.1811 -0.0806  0.2395
 3099W        W46016  23.230   8.867  31.330 -0.2117 -0.0523  0.4535
 3100W        W46017  24.506   9.714  31.194 -0.1930 -0.2291  0.1542
 3101W        W46018  23.873   9.381  27.605  0.0879  0.3257 -0.0648
 3102W        W46019  22.542   6.550  27.450  0.0310  0.3874  0.4138
 3103W        W46020  23.875  13.848  30.774  0.0395  0.0959  0.0247
 3104W        W46021  23.562  10.963  27.796 -0.2713 -0.1013 -0.4198
 3105W        W46022  22.253  11.245  31.071 -0.0594 -0.2805 -0.3535
 3106W        W46023  24.202  12.278  29.388  0.3906  0.2034  0.1773
 3107W        W46024  24.813   7.945  29.738  0.1070  0.3875  0.1385
 3108W        W46025  22.464  10.140  30.287  0.1274 -0.2619  0.0459
 3109W        W46026  25.808   7.727  29.392  0.0594  0.0032 -0.0801
 3110W        W46027  22.397   8.556  28.773 -0.1361 -0.2419 -0.0485
 3111W        W46028  22.817  10.544  29.355  0.1978  0.0806  0.2082
 3112W        W46029  23.649   6.937  29.546 -0.0006  0.0511 -0.1238
 3113W        W46030  23.561   6.652  30.511 -0.1678 -0.0603  0.1553
 3114W        W46031  23.575   9.985  31.184 -0.1381 -0.1792  0.0083
 3115W        W46032  23.996  10.274  28.413  0.1422 -0.1352  0.1456
 3116W        W46033  24.086   8.567  28.930  0.3595 -0.1055  0.3059
 3117W        W46034  22.611   7.747  28.142  0.2387  0.0081  0.0472
 3118W        W46035  22.811  11.379  30.475 -0.0988  0.1039 -0.2122
 3119W        W46036  23.653  10.618  29.996  0.1892 -0.0963 -0.2011
 3120W        W46037  24.044   9.030  27.935  0.0194 -0.0994 -0.1204
 3121W        W46038  23.715   8.168  28.083 -0.1832 -0.0839  0.0572
 3122W        W46039  25.775  11.777  28.155 -0.0586 -0.1195  0.2637
 3123W        W46040  21.025   8.863  28.891  0.0049  0.2002  0.2207
 3124W        W46041  22.789   8.833  30.656  0.1055 -0.2508  0.0160
 3125W        W46042  24.853  10.760  28.717 -0.0593 -0.0971  0.1342
 3126W        W46043  21.459   7.775  29.574 -0.0655  0.0994  0.2589
 3127W        W46044  23.685   9.926  28.051  0.0772  0.1590  0.3377
 3128W        W46045  23.068   7.982  30.721 -0.0069  0.3199 -0.0978
 3129W        W46046  23.205  11.151  26.758 -0.0223 -0.0857  0.0045
 3130W        W46047  25.875  10.291  31.083 -0.1882  0.0719 -0.0932
 3131W        W46048  24.370  11.296  28.101 -0.1682  0.1140  0.1771
 3132W        W46049  22.926   6.965  31.119 -0.1965 -0.0973  0.4109
 3133W        W46050  23.119   9.867  31.347 -0.3391  0.0663 -0.2584
 3134W        W46051  22.919   8.420  27.047 -0.4806 -0.1295 -0.2151
 3135W        W46052  23.103   9.642  29.050 -0.0173 -0.0990 -0.2584
 3136W        W46053  23.254  10.349  27.346 -0.2744  0.0724  0.1503
 3137W        W46054  22.179  12.217  30.955  0.3997 -0.0763 -0.0473
 3138W        W46055  22.337   9.065  31.032 -0.2761 -0.1695 -0.1081
 3139W        W46056  19.478  10.076  30.229 -0.1783 -0.4275 -0.1907
 3140W        W46057  23.895  11.845  31.186 -0.1760 -0.1577  0.0656
 3141W        W46058  23.647  10.349  29.529 -0.0358  0.0698 -0.0364
 3142W        W46059  22.973   8.100   1.655  0.3308  0.1033 -0.2848
 3143W        W46060  23.455   7.968  27.304  0.1919 -0.4322 -0.0066
 3144W        W46061  21.990   9.877  27.908  0.2407 -0.4412  0.0520
 3145W        W46062  23.025   9.392  27.364 -0.3375  0.0982 -0.1179
 3146W        W46063  22.485   6.869  31.678 -0.1582  0.1420  0.1241
 3147W        W46064  23.723  12.152  29.754  0.1154  0.0142  0.0453
 3148W        W46065  23.636  12.575  27.014 -0.0601  0.2818 -0.0982
 3149W        W46066  24.297   8.954  30.999 -0.0895 -0.3079  0.0124
 3150W        W46067  19.981  10.349  28.330 -0.3944  0.0116 -0.0661
 3151W        W46068  26.623   8.460  29.688 -0.2884 -0.1620 -0.0688
 3152W        W46069  19.116  12.362  29.456 -0.1860  0.0897 -0.4184
 3153W        W46070  21.080  10.380  27.330 -0.0152  0.1614  0.1263
 3154W        W46071  21.745   8.826  28.123 -0.0096  0.0306 -0.1735
 3155W        W46072  24.095   8.954  30.540 -0.2125 -0.2050  0.2817
 3156W        W46073  24.590   9.762  26.812  0.0877  0.1037 -0.0523
 3157W        W46074  21.272   7.283  29.852  0.2351  0.1314 -0.1361
 3158W        W46075  22.865   7.917  30.195  0.0060  0.0332 -0.1113
 3159W        W46076  19.416  10.314  28.436  0.3414  0.2203 -0.0533
 3160W        W46077  23.982   9.921  30.095  0.2473 -0.1397 -0.1027
 3161W        W46078  24.726   6.683  27.843  0.0680 -0.1311  0.0567
 3162W        W46079  21.747   9.014   0.729 -0.1023  0.0733 -0.0452
 3163W        W46080  21.270   8.638  29.235  0.0218  0.0961 -0.2458
 3164W        W46081  19.151   7.812  27.914 -0.3427 -0.0248  0.0687
 3165W        W46082  22.812   8.197  29.772 -0.2541 -0.2322  0.0066
 3166W        W46083  21.403   7.441  27.008  0.0998 -0.3903  0.2785
 3167W        W46084  22.428   9.529  27.600 -0.1069 -0.0474  0.0382
 3168W        W46085  23.265   9.646  30.923 -0.2507 -0.3074  0.0524
 3169W        W46086  22.157   9.309  26.623  0.0269  0.1557 -0.3262
 3170W        W46087  24.027  10.239  27.904  0.3569 -0.3286 -0.2958
 3171W        W46088  22.112   6.852   1.262  0.1032 -0.2279 -0.1562
 3172W        W46089  24.842  11.808  31.162  0.0698  0.3316 -0.0103
 3173W        W46090  24.420   9.026  30.124 -0.2789 -0.0458  0.1046
 3174W        W46091  21.299   7.640  26.546  0.2789  0.1573  0.1058
 3175W        W46092  21.272   9.373  28.973 -0.1905 -0.3796 -0.1332
 3176W        W46093  24.552  10.661  29.235  0.2353  0.2063  0.1623
 3177W        W46094  23.007   9.363  29.460 -0.0534  0.3147  0.1101
 3178W        W46095  22.620  12.369  29.480 -0.3887  0.0891  0.0885
 3179W        W46096  22.353   8.550  29.755 -0.0058  0.1779 -0.0458
 3180W        W46097  23.449  11.007  28.749  0.2823 -0.1549 -0.1427
 3181W        W46098  24.721   6.861  30.622  0.0082  0.3645  0.3176
 3182W        W46099  22.736  11.391  26.982 -0.1240 -0.0245 -0.0399
 3183W        W46100  20.214   8.490  30.893 -0.1172  0.1656  0.0153
 3184W        W46101  23.368   9.663  28.628  0.0064 -0.2717  0.0030
 3185W        W46102  23.241   9.005  30.834  0.0914 -0.0099  0.1117
 3186W        W46103  20.101  11.364  29.729 -0.0268 -0.1501 -0.3538
 3187W        W46104  22.367  10.325  29.278  0.1102  0.0764  0.0349
 3188W        W46105  21.142  10.776  29.650  0.3264 -0.0396  0.0192
 3189W        W46106  25.437  10.031  27.648  0.0139 -0.2151  0.1470
 3190W        W46107  22.848   9.630  27.880  0.0002  0.0051 -0.1297
 3191W        W46108  22.771   7.276  31.854  0.0101 -0.0431 -0.1985
 3192W        W46109  22.781   8.274  28.819  0.0986 -0.0015 -0.2911
 3193W        W46110  21.868  12.271  25.831  0.3584  0.1417  0.1543
 3194W        W46111  23.381   8.337  31.749 -0.3514 -0.0579 -0.0381
 3195W        W46112  21.896   5.891  29.389 -0.4757 -0.0628 -0.1999
 3196W        W46113  21.944  10.529  29.882  0.1485 -0.0676 -0.5134
 3197W        W46114  21.321   9.446  31.300  0.3196  0.0074  0.0227
 3198W        W46115  22.580  10.451  30.633  0.0070  0.0834  0.0619
 3199W        W46116  22.863  10.310  31.130 -0.0616  0.0441  0.0781
 3200W        W46117  23.401   7.799  28.240  0.1734  0.1836  0.0933
 3201W        W46118  22.615   6.094  29.599  0.3037  0.2963  0.3533
 3202W        W46119  22.260   9.653  29.414  0.1652 -0.1995 -0.0861
 3203W        W46120  24.368  10.486  30.189 -0.1311 -0.1168 -0.0256
 3204W        W46121  22.395   9.778  28.150 -0.1767 -0.1111 -0.1632
 3205W        W46122  25.152   8.792  30.428 -0.0350 -0.0923  0.2704
 3206W        W46123  22.931  10.041  30.080  0.1719 -0.2697 -0.0763
 3207W        W46124  25.448  10.630  28.401  0.0823  0.3332  0.0535
 3208W        W46125  24.055  10.312  29.800 -0.1785 -0.0503  0.2087
 3209W        W46126  22.408  10.143  28.634 -0.1673  0.0633 -0.3018
 3210W        W46127  23.618   7.597  30.169 -0.0570  0.1920  0.0214
 3211W        W46128  23.068  10.266  29.649 -0.2554 -0.2147  0.1078
 3212W        W46129  25.057   8.296  30.134  0.1268 -0.0646  0.0349
 3213W        W46130  24.015   9.106  31.400 -0.2716  0.2743 -0.1186
 3214W        W46131  23.487   9.179  28.753 -0.2099 -0.2719 -0.1832
 3215W        W46132  22.478  10.221  29.808  0.1167 -0.0271  0.2413
 3216W        W46133  22.019   9.603  29.823 -0.1456  0.0413  0.0854
 3217W        W46134  24.025  13.605  30.166  0.3388  0.0396 -0.1366
 3218W        W46135  26.022   9.815  31.642 -0.1144  0.1158 -0.1866
 3219W        W46136  25.923   7.276  30.089 -0.1695 -0.0976 -0.1227
 3220W        W46137  26.343  10.349  30.999 -0.3092  0.1061  0.2084
 3221W        W46138  23.815   9.757  30.793  0.1382  0.0673  0.1231
 3222W        W46139  22.148   8.048  31.310  0.1408 -0.2714  0.0366
 3223W        W46140  23.484   8.301  31.260 -0.1271 -0.3715  0.1464
 3224W        W46141  22.417   9.087  28.684  0.1443  0.0341  0.1706
 3225W        W46142  25.375   8.408   1.088  0.2392  0.0293 -0.1142
 3226W        W46143  23.903   9.678  26.765  0.2110 -0.5251 -0.0474
 3227W        W46144  24.156   9.509  28.146  0.2769 -0.0246  0.3297
 3228W        W46145  25.359  10.510  29.785  0.3338 -0.1097 -0.1008
 3229W        W46146  21.849   7.902  29.298 -0.0226 -0.0390  0.1997
 3230W        W46147  22.261  11.959  30.479  0.1257  0.1120  0.3318
 3231W        W46148  20.403   7.181  28.783 -0.0239 -0.0290  0.1077
 3232W        W46149  22.781   8.738  29.058  0.2301 -0.2592  0.3613
 3233W        W46150  23.159   9.052  29.771 -0.4632 -0.2772  0.0971
 3234W        W46151  24.280   9.007  31.838  0.1228  0.1249 -0.1361
 3235W        W46152  25.261   9.212  29.768 -0.1532  0.0247  0.1922
 3236W        W46153  23.454  10.982  31.857 -0.2449  0.0201  0.0204
 3237W        W46154  22.331   8.897  30.455  0.0205 -0.0100 -0.0742
 3238W        W46155  24.291   6.524  30.800  0.0431  0.0789  0.2599
 3239W        W46156  23.614  12.498  28.818 -0.0482 -0.0380  0.0489
 3240W        W46157  23.583   9.767  29.061  0.2932 -0.3535 -0.0097
 3241W        W46158  22.307  10.236  31.066 -0.1857  0.0924  0.0598
 3242W        W46159  22.782   7.589  29.835 -0.1790  0.1476 -0.1434
 3243W        W46160  21.862   9.695  28.379 -0.0118  0.1794  0.2209
 3244W        W46161  21.998  10.036  30.082 -0.0215 -0.1529 -0.0393
 3245W        W46162  25.262   8.421  31.443  0.0030 -0.1435 -0.1733
 3246W        W46163  22.704   7.046  28.622  0.1144  0.1229 -0.0292
 3247W        W46164  23.402   8.088  30.341  0.0434 -0.1392 -0.0460
 3248W        W46165  25.419  11.514  31.922 -0.3034 -0.1281  0.2578
 3249W        W46166  24.892  10.156  29.863  0.2345 -0.1341  0.2544
 3250W        W46167  22.392  12.504  29.054  0.0076 -0.0291 -0.0044
 3251W        W46168  21.561   9.446   0.916 -0.0782  0.3024  0.4246
 3252W        W46169  23.138   9.814  31.931  0.1810 -0.4420 -0.0985
 3253W        W46170  24.248   8.591  31.417 -0.1640  0.4142  0.1566
 3254W        W46171  23.150   6.740  30.225  0.0415  0.3114  0.0625
 3255W        W46172  22.666   9.205  26.547  0.1835  0.1016 -0.0345
 3256W        W46173  22.229  11.202  30.154 -0.3307  0.2073 -0.0730
 3257W        W46174  21.732   8.823  29.604  0.1882 -0.2688  0.2778
 3258W        W46175  19.741  12.755  28.535 -0.1195  0.0904 -0.1996
 3259W        W46176  25.409   8.882  28.422 -0.2143  0.0667  0.1791
 3260W        W46177  24.184  10.480  26.516 -0.2120 -0.3599 -0.1345
 3261W        W46178  23.661  11.540  30.754 -0.3289  0.2386 -0.1715
 3262W        W46179  23.005   5.408  28.214 -0.1752  0.0367 -0.0091
 3263W        W46180  22.680  11.297  29.178 -0.1614 -0.1657  0.0643
 3264W        W46181  22.838   9.666  28.478 -0.2816  0.0481 -0.1532
 3265W        W46182  24.735  10.380  27.494 -0.0510  0.1897  0.2250
 3266W        W46183  21.423  10.998  28.467  0.0989  0.2685 -0.3553
 3267W        W46184  23.120  11.579  30.859  0.0751  0.1811  0.2381
 3268W        W46185  23.723   7.035  27.868  0.1263 -0.3724 -0.1452
 3269W        W46186  24.459   8.335  30.955  0.0566 -0.0199  0.1651
 3270W        W46187  25.416   8.654  29.085  0.0057  0.0159  0.0428
 3271W        W46188  23.179  10.753  29.910  0.1968 -0.0321 -0.0341
 3272W        W46189  22.955  10.108  28.615  0.0670 -0.2487 -0.0202
 3273W        W46190  22.711   8.010  26.787 -0.0966 -0.1320 -0.3639
 3274W        W46191  22.579   9.867  29.102  0.1011 -0.0560  0.0623
 3275W        W46192  23.198   7.539  30.431 -0.3610  0.0742  0.1357
 3276W        W46193  22.217   9.582  31.812 -0.0465  0.2053  0.1379
 3277W        W46194  24.823  10.813  27.240  0.1294 -0.1544  0.1066
 3278W        W46195  22.234   7.769  27.774  0.0680  0.1329 -0.0038
 3279W        W46196  22.303   8.041  29.536  0.0931 -0.0896  0.0217
 3280W        W46197  24.859   6.518   0.055 -0.0567 -0.1246  0.0405
 3281W        W46198  22.576   9.304  28.247 -0.1549  0.1666 -0.3738
 3282W        W46199  23.550   9.308  29.282  0.1834 -0.2694 -0.0142
 3283W        W46200  22.430   9.994  27.741  0.2744  0.1652 -0.2322
 3284W        W46201  23.150  11.381  29.297 -0.1006  0.1500  0.1061
 3285W        W46202  22.534  11.651  28.841  0.0247 -0.1881  0.0640
 3286W        W46203  21.386   5.518  28.009  0.1499  0.1418 -0.0962
 3287W        W46204  24.933   9.030  30.083  0.1544  0.1644  0.1680
 3288W        W46205  25.607  10.954  31.231  0.0896 -0.0799  0.0482
 3289W        W46206  23.524   8.307  30.755 -0.0572 -0.1770  0.0364
 3290W        W46207  22.242   8.214  28.001 -0.1099 -0.1880 -0.0277
 3291W        W46208  26.331   8.412  28.895 -0.0316 -0.0235  0.1238
 3292W        W46209  23.734   7.895  29.675  0.3365 -0.0629  0.0598
 3293W        W46210  21.565   8.019  30.616  0.0926 -0.1925 -0.1961
 3294W        W46211  23.114   8.290  28.162 -0.1971  0.1673  0.0536
 3295W        W46212  24.450  11.276   0.424  0.0125  0.2521  0.1130
 3296W        W46213  21.478   8.706  26.820 -0.0600 -0.0350 -0.2180
 3297W        W46214  23.879  12.415  30.135  0.3590  0.2557 -0.1600
 3298W        W46215  22.104   9.985  31.530 -0.0305 -0.2255 -0.1381
 3299W        W46216  24.313   6.705  26.869 -0.0915  0.0321 -0.2763
 3300W        W46217  22.509  11.775  28.215 -0.0232  0.1821 -0.1729
 3301W        W46218  22.353   9.184  31.549 -0.0381  0.0598 -0.1347
 3302W        W46219  25.723  10.880  29.822 -0.2894  0.0980 -0.0366
 3303W        W46220  22.472   7.922  30.579 -0.0439  0.0102 -0.1602
 3304W        W46221  23.110  10.557  28.750 -0.3651  0.1780 -0.1678
 3305W        W46222  25.464   9.029  30.859  0.0887  0.2692 -0.0218
 3306W        W46223  23.667  11.501  26.885  0.0345 -0.0516  0.1261
 3307W        W46224  22.991  12.137  28.040 -0.0932 -0.3767 -0.2550
 3308W        W46225  23.005  10.952  29.049 -0.2926 -0.1589 -0.2679
 3309W        W46226  22.062   9.305  29.001  0.0049 -0.0509 -0.1897
 3310W        W46227  24.985  10.476  31.151  0.0330  0.1135  0.1062
 3311W        W46228  25.117  11.933  29.406  0.3121 -0.0307  0.0247
 3312W        W46229  22.510   6.811  29.049  0.1403  0.2625  0.0723
 3313W        W46230  22.194   5.425  29.368  0.1771  0.2608  0.0847
 3314W        W46231  21.399  10.393  29.878  0.0224  0.0517 -0.2264
 3315W        W46232  24.645   8.554  29.980 -0.0197  0.3124 -0.0112
 3316W        W46233  22.650   7.138  30.721 -0.1036 -0.1558 -0.0483
 3317W        W46234  23.944   9.133  27.127  0.2284  0.1526 -0.1216
 3318W        W46235  23.046   6.738  31.952 -0.0827 -0.1400 -0.0715
 3319W        W46236  23.505  11.147  29.731  0.2904  0.0304  0.1326
 3320W        W46237  23.070  11.493  29.873  0.1965  0.2672 -0.0847
 3321W        W46238  23.073   8.340  27.544  0.1434 -0.7117  0.1743
 3322W        W46239  23.739   8.451  29.746 -0.2466 -0.2975  0.1632
 3323W        W46240  23.860   9.684  28.566  0.1183 -0.0742 -0.2447
 3324W        W46241  23.622   9.401  28.055 -0.0090  0.0842 -0.2700
 3325W        W46242  25.633   9.499  30.002  0.1494 -0.0087  0.3977
 3326W        W46243  23.784   8.810  27.481  0.2268 -0.0144 -0.1416
 3327W        W46244  24.342  12.573  29.895 -0.1215 -0.0961 -0.5719
 3328W        W46245  22.053   6.913  30.324  0.0443 -0.0415  0.0562
 3329W        W46246  23.982   8.691  28.311  0.0690  0.0255 -0.0686
 3330W        W46247  23.674   7.562  27.786  0.2792  0.0756  0.0124
 3331W        W46248  21.721   9.726   0.562  0.2852 -0.1810  0.0077
 3332W        W46249  21.920   8.946  28.552 -0.3515  0.1797  0.1137
 3333W        W46250  22.085  10.704  25.756 -0.2256  0.2099 -0.1239
 3334W        W46251  23.017   8.466  31.455 -0.1208 -0.1955 -0.0802
 3335W        W46252  21.410   6.329  30.349 -0.2035  0.0984  0.1198
 3336W        W46253  22.486   8.404  29.279 -0.0693 -0.3576 -0.2462
 3337W        W46254  21.688   6.845  29.521 -0.1815  0.0216  0.2586
 3338W        W46255  23.578   6.697  29.062  0.1829 -0.1761 -0.1277
 3339W        W46256  25.075  12.329  27.698 -0.0143  0.1106  0.0744
 3340W        W46257  22.168   7.157  29.510 -0.0109  0.0633  0.1968
 3341W        W46258  22.588   7.939  31.135  0.2306 -0.2032 -0.0789
 3342W        W46259  24.318   9.522  28.644 -0.1725 -0.3732  0.5311
 3343W        W46260  26.074   9.622  29.797 -0.1708  0.1461  0.0075
 3344W        W46261  23.308   8.000  27.802 -0.1287  0.0198 -0.1118
 3345W        W46262  24.902  10.746  29.696 -0.0919  0.1199 -0.1420
 3346W        W46263  19.304  10.359  27.403  0.4717 -0.0830 -0.0134
 3347W        W46264  23.378  11.137  30.822 -0.2353 -0.1100 -0.0069
 3348W        W46265  23.823  10.182  29.039  0.2801 -0.4382  0.1428
 3349W        W46266  21.533   7.225  28.975  0.1155 -0.0660  0.1654
 3350W        W46267  21.470   8.350  30.194 -0.0126 -0.1597  0.1456
 3351W        W46268  23.682  10.595  28.628 -0.0864 -0.0602 -0.2023
 3352W        W46269  24.895  12.022  28.087  0.0424 -0.1658 -0.4004
 3353W        W46270  24.899  11.442  29.746  0.0334  0.3032 -0.1095
 3354W        W46271  22.861  11.033  29.592 -0.3932 -0.5342  0.0674
 3355W        W46272  22.762   9.186  31.247  0.0537 -0.0890  0.0523
 3356W        W46273  25.633  10.022  28.405 -0.1177 -0.1173 -0.0938
 3357W        W46274  23.916  11.083  30.894  0.3664  0.1754  0.1990
 3358W        W46275  24.560  12.563  26.783 -0.3609  0.0734 -0.0675
 3359W        W46276  25.430   8.070  31.102  0.0030  0.0803  0.1123
 3360W        W46277  26.131   8.024  29.765 -0.1268  0.0845  0.2480
 3361W        W46278  21.105   7.969  30.927 -0.0264  0.1399 -0.2143
 3362W        W46279  22.941   9.469  29.975 -0.2546  0.0905 -0.0284
 3363W        W46280  23.394   9.861  30.420 -0.3010 -0.2694  0.1946
 3364W        W46281  22.216   5.707  29.790 -0.1619 -0.1078  0.4065
 3365W        W46282  25.374  11.533  28.563  0.4171 -0.0068  0.1564
 3366W        W46283  25.257  11.663  28.038  0.0204 -0.1711  0.3026
 3367W        W46284  22.982   8.366  30.405 -0.2246 -0.0584 -0.3036
 3368W        W46285  25.275   8.045  28.169  0.1132 -0.0074  0.3234
 3369W        W46286  23.355   7.485  29.570  0.0205  0.1480  0.4207
 3370W        W46287  24.058  10.985  28.988  0.3535  0.5612 -0.2039
 3371W        W46288  24.093   8.580   0.453  0.2666 -0.2284  0.1475
 3372W        W46289  21.541   7.761  28.225 -0.0825 -0.1290  0.0968
 3373W        W46290  25.161  11.075  28.436  0.0151  0.2645 -0.2964
 3374W        W46291  22.225  12.832  30.622 -0.1267  0.0476  0.1344
 3375W        W46292  24.457  10.534  29.723 -0.0701 -0.0997  0.0791
 3376W        W46293  23.160   8.875  30.265 -0.0177  0.0754  0.0795
 3377W        W46294  23.687  10.895  30.473 -0.0574 -0.1676 -0.0929
 3378W        W46295  20.290   3.807  31.332  0.1425 -0.0249  0.4756
 3379W        W46296  21.181   7.675  30.281 -0.0496 -0.2517 -0.3014
 3380W        W46297  21.315   9.211  27.687 -0.4760  0.0541  0.0837
 3381W        W46298  25.923   8.733  29.244  0.2157 -0.1161  0.1455
 3382W        W46299  21.984   7.152  31.747 -0.1504 -0.2024  0.1258
 3383W        W46300  24.690   8.103  28.251  0.1581  0.0519 -0.0053
 3384W        W46301  20.919  11.826  29.670 -0.1125 -0.0400  0.3882
 3385W        W46302  23.263   9.391  30.410  0.0785  0.1706  0.0513
 3386W        W46303  23.645   9.223  30.671 -0.1140  0.0097  0.1631
 3387W        W46304  23.468  10.933  31.215  0.0418 -0.3510 -0.0539
 3388W        W46305  22.324   9.606  28.639 -0.0275 -0.1161 -0.2502
 3389W        W46306  21.553  10.681  30.941  0.1722 -0.2791  0.3988
 3390W        W46307  22.049  12.792   0.086  0.4466 -0.3110 -0.1086
 3391W        W46308  23.167  13.534   0.475 -0.1825  0.1885 -0.1473
 3392W        W46309  23.797   8.931   0.028  0.1067  0.2149 -0.2518
 3393W        W46310  22.298   8.694  31.814 -0.2488 -0.1475 -0.0710
 3394W        W46311  25.061   8.720  31.820 -0.0115 -0.0480  0.0245
 3395W        W46312  22.596  10.655  31.756 -0.0019  0.2556 -0.2619
 3396W        W46313  22.211  11.088  30.641  0.0355 -0.0591 -0.1785
 3397W        W46314  24.231   7.611  31.265 -0.0973 -0.1811  0.1646
 3398W        W46315  23.273  11.324  31.576  0.0049 -0.4317 -0.1842
 3399W        W46316  23.171   8.994  29.121  0.0246 -0.2578  0.0409
 3400W        W46317  22.964  12.582  31.131 -0.1413 -0.0447  0.3481
 3401W        W46318  22.052  10.674  30.903  0.1330 -0.3402 -0.1851
 3402W        W46319  21.419  10.004   1.250 -0.0015  0.1229 -0.1230
 3403W        W46320  22.519   8.742   0.426  0.0202  0.0607  0.0506
 3404W        W46321  22.711   5.944  31.623  0.2619  0.2826 -0.3190
 3405W        W46322  23.954   7.708   1.063 -0.0599 -0.0490  0.1409
 3406W        W46323  22.357   7.500  31.660 -0.0521 -0.1882 -0.4085
 3407W        W46324  21.594  10.138  31.601 -0.3263  0.0282 -0.2393
 3408W        W46325  23.635   9.458   1.439 -0.0393  0.0295  0.1974
 3409W        W46326  24.618  10.314   0.433 -0.0051  0.1535 -0.2911
 3410W        W46327  20.860   7.427  30.948 -0.2087 -0.1227 -0.0058
 3411W        W46328  24.743   5.761  31.222 -0.0918 -0.3748 -0.1708
 3412W        W46329  23.382  11.270   0.304 -0.0098  0.1193 -0.0060
 3413W        W46330  23.747   9.859  29.598  0.1449  0.0265  0.1018
 3414W        W46331  22.862   9.356  30.784 -0.1288  0.1344  0.1767
 3415W        W46332  21.796  11.747   1.732 -0.0268  0.1915  0.0138
 3416W        W46333  21.780  10.286  31.169  0.3598 -0.3352  0.3141
 3417W        W46334  22.488   9.640  31.315 -0.0736  0.1534 -0.0043
 3418W        W46335  23.868  10.675  31.179 -0.2570  0.0358  0.0131
 3419W        W46336  22.858   6.303   0.092  0.1113 -0.0341  0.1342
 3420W        W46337  23.845   6.748   0.694  0.1831  0.2283  0.2386
 3421W        W46338  23.080  10.651  30.840  0.4453 -0.1347 -0.0944
 3422W        W46339  22.139  10.704   0.013 -0.4126 -0.2465  0.0467
 3423W        W46340  24.789  10.649   1.187  0.0576  0.0539 -0.3318
 3424W        W46341  22.764   9.659   0.472 -0.0206  0.1729 -0.1807
 3425W        W46342  23.776  10.792   0.506 -0.1216 -0.1382 -0.0744
 3426W        W46343  22.583   7.093   1.293  0.0383  0.2107  0.2068
 3427W        W46344  24.047   8.540  31.956  0.0963  0.0389  0.0185
 3428W        W46345  20.047   7.754  31.352  0.0848  0.1658  0.2235
 3429W        W46346  22.518  10.752   0.653  0.1823  0.2162 -0.0716
 3430W        W46347  23.092   8.481  30.913  0.2677  0.2451 -0.0088
 3431W        W46348  20.470   9.620  31.085  0.0563 -0.2173  0.0042
 3432W        W46349  24.969   7.349  31.530 -0.4778  0.0023  0.1418
 3433W        W46350  22.347  11.916   0.547 -0.0299  0.2889 -0.0004
 3434W        W46351  27.080  11.924   0.479  0.1722 -0.1491 -0.0333
 3435W        W46352  21.850  10.875  31.289  0.0829 -0.2415 -0.2120
 3436W        W46353  25.121  10.951  31.155 -0.0481  0.0922  0.3272
 3437W        W46354  22.027   6.711  31.466  0.3100 -0.0090 -0.1723
 3438W        W46355  24.453   6.484   0.320  0.0832  0.0959 -0.1841
 3439W        W46356  21.917   8.469  30.427 -0.2039 -0.0073  0.1429
 3440W        W46357  22.893   7.616   0.832 -0.1927 -0.2615 -0.1042
 3441W        W46358  23.839  10.471  31.932  0.0735 -0.2273 -0.0485
 3442W        W46359  25.842   9.071  31.299 -0.0538 -0.0214  0.2431
 3443W        W46360  24.407  11.099  31.756 -0.1251 -0.1831 -0.2628
 3444W        W46361  24.325  10.672   0.222 -0.0743 -0.0477 -0.2760
 3445W        W46362  21.832   9.331  31.018 -0.1516 -0.1183 -0.1618
 3446W        W46363  21.736   8.648  31.680  0.0354 -0.0470 -0.2387
 3447W        W46364  24.118  11.763   0.496 -0.0763 -0.0853 -0.0072
 3448W        W46365  22.920  10.766  31.322  0.0190  0.1301  0.0466
 3449W        W46366  21.282   9.148   0.565 -0.1819  0.3179  0.0668
 3450W        W46367  23.424  10.097  29.998 -0.1825  0.4279  0.1650
 3451W        W46368  25.381  10.037   0.770  0.0059  0.0528 -0.0715
 3452W        W46369  25.775   7.896   0.787  0.1551 -0.2049 -0.1155
 3453W        W46370  22.866  12.394  18.281  0.1842 -0.1057  0.1695
 3454W        W46371  24.696  11.296  17.931  0.0302 -0.2444  0.1842
 3455W        W46372  25.731  12.628  16.354 -0.3818 -0.0091  0.0565
 3456W        W46373  24.296  15.006  16.783 -0.1440  0.1510 -0.2659
 3457W        W46374  23.289  11.973  15.979 -0.1572 -0.0736 -0.1909
 3458W        W46375  25.657  14.185  18.771  0.0583 -0.0444 -0.3201
 3459W        W46376  21.473  10.823  19.778  0.0681  0.2625 -0.0609
 3460W        W46377  23.318  14.106  17.176 -0.1246 -0.0872  0.1832
 3461W        W46378  25.153  15.408  18.893  0.0626  0.0682  0.3215
 3462W        W46379  23.103  12.841  15.728 -0.4693 -0.0625  0.2721
 3463W        W46380  23.852  10.696  19.480 -0.2373 -0.0380 -0.1707
 3464W        W46381  23.137  14.488  16.892  0.0249 -0.1542 -0.0330
 3465W        W46382  23.524  12.278  17.313  0.1327  0.3088 -0.1725
 3466W        W46383  20.843  10.233  18.331  0.4149 -0.1031 -0.0251
 3467W        W46384  24.957  11.609  19.091 -0.1915  0.3432 -0.2951
 3468W        W46385  22.568  11.052  17.247  0.0844 -0.0474  0.0528
 3469W        W46386  22.331  12.187  16.823 -0.1021 -0.0141  0.0425
 3470W        W46387  22.569  13.057  17.019 -0.0281  0.1986 -0.3522
 3471W        W46388  22.853  13.159  19.667 -0.0259  0.0776 -0.2195
 3472W        W46389  23.570   9.697  19.024 -0.0471  0.3018 -0.0604
 3473W        W46390  24.708  10.289  20.817  0.0730 -0.0187  0.1037
 3474W        W46391  22.469  14.266  16.901 -0.1859  0.3440 -0.2448
 3475W        W46392  19.251  13.349  14.189 -0.2653  0.2471  0.3387
 3476W        W46393  24.234  12.927  18.997  0.1256 -0.0422 -0.1653
 3477W        W46394  24.763  13.468  18.994 -0.2489 -0.1409 -0.0361
 3478W        W46395  24.247  11.820  17.993 -0.0889 -0.0817  0.0124
 3479W        W46396  27.320  12.074  19.651 -0.1872 -0.1453 -0.1135
 3480W        W46397  22.407  14.209  17.461  0.2137 -0.2076 -0.2574
 3481W        W46398  25.502  15.450  20.007  0.0314  0.1561 -0.2862
 3482W        W46399  24.286  10.497  19.234 -0.3613  0.1371 -0.3464
 3483W        W46400  19.819  13.583  17.220 -0.2600  0.3036  0.3950
 3484W        W46401  21.370  12.990  16.486  0.2119 -0.0340 -0.0166
 3485W        W46402  23.593  12.720  16.459  0.0889  0.2669 -0.0483
 3486W        W46403  24.578  13.030  16.747 -0.0397  0.1075 -0.0384
 3487W        W46404  26.482  15.239  18.721  0.0862 -0.0697 -0.4611
 3488W        W46405  24.519  12.237  18.154 -0.0353 -0.0272  0.1223
 3489W        W46406  21.773  14.753  14.376 -0.2791 -0.2796 -0.0868
 3490W        W46407  23.349  15.456  16.703 -0.0134 -0.0973  0.2424
 3491W        W46408  23.108  14.110  19.441  0.1432 -0.2230  0.1036
 3492W        W46409  22.753  10.061  18.488 -0.0220 -0.1814 -0.1973
 3493W        W46410  23.253  13.128  17.950  0.0261 -0.0267 -0.2346
 3494W        W46411  22.098  14.677  15.650 -0.1143  0.3726 -0.1679
 3495W        W46412  26.121  14.011  19.820 -0.1683 -0.0724 -0.4608
 3496W        W46413  24.388  11.881  18.979  0.0951  0.1476  0.0452
 3497W        W46414  21.075  12.204  16.801  0.1578  0.3288  0.1849
 3498W        W46415  23.696   9.925  20.182 -0.1677 -0.3509 -0.2510
 3499W        W46416  22.120  12.929  17.099 -0.1405 -0.2128 -0.1599
 3500W        W46417  27.556  12.063  17.791 -0.1416  0.0142  0.0032
 3501W        W46418  23.569  13.151  16.805 -0.1689 -0.0546  0.0084
 3502W        W46419  25.237  12.838  16.392 -0.3769  0.2468 -0.0594
 3503W        W46420  22.276  11.249  16.406 -0.0078 -0.0291  0.1079
 3504W        W46421  22.756  14.669  16.608 -0.0632 -0.0418 -0.0051
 3505W        W46422  21.530  10.681  16.502  0.0019  0.0672 -0.0469
 3506W        W46423  23.752  11.702  21.154 -0.1305 -0.0860  0.2318
 3507W        W46424  24.056  11.703  16.732  0.1418  0.2640  0.1047
 3508W        W46425  25.427   9.898  18.539 -0.1447 -0.0356 -0.1338
 3509W        W46426  24.160  14.471  19.264  0.1731 -0.2498  0.2740
 3510W        W46427  21.799  12.707  16.718 -0.2432 -0.2665  0.1210
 3511W        W46428  24.186  13.738  16.506 -0.2788  0.1038  0.0078
 3512W        W46429  25.245  14.327  18.956  0.3126  0.0169  0.0382
 3513W        W46430  21.292  14.949  15.743 -0.3504  0.1538  0.0740
 3514W        W46431  19.915  13.226  16.855 -0.1504  0.2258  0.1696
 3515W        W46432  21.904  12.319  17.893  0.0306 -0.3430 -0.2374
 3516W        W46433  22.108  10.514  19.488 -0.1430 -0.4551 -0.0751
 3517W        W46434  22.196   9.925  16.466 -0.1910 -0.2949 -0.0824
 3518W        W46435  25.049  14.154  20.638 -0.1942 -0.1325  0.0736
 3519W        W46436  23.067  13.992  20.221 -0.1490 -0.2910 -0.0221
 3520W        W46437  24.333  10.975  19.370  0.4378  0.2760 -0.0052
 3521W        W46438  23.055  12.700  17.912  0.0548  0.2841  0.1746
 3522W        W46439  26.660  11.817  18.371 -0.1319 -0.2848  0.3753
 3523W        W46440  23.534  14.154  16.650 -0.0951 -0.0927 -0.2898
 3524W        W46441  22.753  12.603  16.764  0.0250  0.2146  0.0686
 3525W        W46442  24.347  11.375  18.227  0.1387  0.0740  0.1173
 3526W        W46443  22.593  13.344  15.652 -0.1137 -0.2966 -0.2059
 3527W        W46444  23.742  13.666  16.679  0.0035 -0.2582  0.3491
 3528W        W46445  26.038  13.107  20.137  0.3030 -0.0688 -0.0889
 3529W        W46446  25.835  12.661  17.294 -0.2291  0.0464  0.0029
 3530W        W46447  23.804  14.622  18.904  0.1002 -0.1322  0.0464
 3531W        W46448  23.698  13.280  19.848  0.1559 -0.0285 -0.1751
 3532W        W46449  23.305  12.944  20.442  0.0292  0.1717  0.2688
 3533W        W46450  22.137  13.297  15.862  0.2632  0.0219  0.1024
 3534W        W46451  20.016  13.249  15.085 -0.5834  0.0077 -0.1779
 3535W        W46452  21.159  12.820  16.040  0.0052 -0.0215 -0.0322
 3536W        W46453  23.402   9.218  18.633  0.2240 -0.0249  0.1015
 3537W        W46454  21.215  13.481  16.618  0.2225  0.0621 -0.1837
 3538W        W46455  25.846  11.403  17.888 -0.1022 -0.0070 -0.0112
 3539W        W46456  21.900  10.824  19.058 -0.1316 -0.1213 -0.0576
 3540W        W46457  23.733  10.033  18.220 -0.1919 -0.3405  0.0653
 3541W        W46458  22.285  12.667  16.699  0.1913  0.2293 -0.2665
 3542W        W46459  26.151  13.977  18.335  0.4466 -0.1851 -0.1714
 3543W        W46460  25.256  12.394  16.033 -0.0540  0.0211  0.3330
 3544W        W46461  25.209  13.584  16.731  0.0496  0.2241  0.0588
 3545W        W46462  21.784  12.191  16.587  0.0033 -0.0531 -0.0607
 3546W        W46463  21.408  11.511  17.759  0.0434 -0.0167 -0.1107
 3547W        W46464  21.736  11.694  18.555 -0.2360  0.1212 -0.0043
 3548W        W46465  23.786  13.105  18.968  0.1328  0.1098 -0.1420
 3549W        W46466  24.970  10.356  19.051 -0.1423  0.0725 -0.0935
 3550W        W46467  21.699  13.065  16.113  0.0744  0.0202 -0.3049
 3551W        W46468  26.783  13.606  17.685  0.0013  0.3638 -0.1269
 3552W        W46469  23.586  13.540  17.184  0.0350 -0.4772 -0.0644
 3553W        W46470  23.108  14.307  16.333 -0.1816 -0.0312  0.1480
 3554W        W46471  23.770  10.212  19.710 -0.1189  0.0580  0.0926
 3555W        W46472  24.885  11.565  16.738  0.1400 -0.0881  0.2041
 3556W        W46473  25.877  14.285  19.464  0.1529  0.0559  0.0353
 3557W        W46474  23.262  14.532  17.450 -0.0797  0.1982 -0.2203
 3558W        W46475  20.575  12.098  17.204  0.0332  0.1923 -0.0383
 3559W        W46476  22.486  12.526  17.722  0.1622  0.3304 -0.0381
 3560W        W46477  22.682  15.177  17.559  0.0847  0.1856  0.1790
 3561W        W46478  22.124  14.201  16.557  0.3171  0.1139 -0.0637
 3562W        W46479  23.739  11.327  16.760  0.2103  0.2167  0.0070
 3563W        W46480  25.322  13.612  18.124 -0.2289  0.0526 -0.1383
 3564W        W46481  23.459  11.420  17.765 -0.4452  0.0272 -0.1892
 3565W        W46482  21.809  13.935  19.725 -0.1431 -0.2032  0.1854
 3566W        W46483  24.680   9.180  19.410 -0.0043 -0.1931 -0.0677
 3567W        W46484  25.871  13.196  18.629 -0.2382 -0.2685 -0.2453
 3568W        W46485  23.078  13.047  16.864 -0.2687 -0.0309 -0.1834
 3569W        W46486  22.729  11.506  15.721  0.2410  0.2519  0.2671
 3570W        W46487  25.255  13.209  17.826  0.1099 -0.0590 -0.2729
 3571W        W46488  20.798  13.359  17.446 -0.1585  0.1071 -0.1874
 3572W        W46489  20.847  13.045  16.402 -0.1140  0.0305 -0.2333
 3573W        W46490  21.681  13.590  16.056  0.1002  0.0431 -0.0271
 3574W        W46491  23.580  12.183  16.410 -0.2284 -0.2998 -0.1612
 3575W        W46492  22.820  13.034  20.196  0.0940 -0.0357 -0.0121
 3576W        W46493  23.228  11.321  18.937 -0.0402  0.1036  0.2416
 3577W        W46494  22.795  12.200  16.493  0.0135 -0.2379  0.1967
 3578W        W46495  21.576  11.167  18.052  0.4003  0.0079 -0.5121
 3579W        W46496  24.522  12.557  16.670 -0.1082  0.1395 -0.0502
 3580W        W46497  26.856  11.374  18.200  0.2770 -0.0356  0.1088
 3581W        W46498  22.833  13.164  17.692  0.3092 -0.1198  0.3970
 3582W        W46499  25.533  12.663  17.712 -0.2174 -0.3172  0.0910
 3583W        W46500  22.844  10.587  16.185 -0.1535 -0.2553  0.0191
 3584W        W46501  25.136  12.615  18.594  0.2021  0.0405  0.0374
 3585W        W46502  26.000  12.666  18.089 -0.0864  0.0946 -0.0307
 3586W        W46503  22.569  14.246  16.329  0.0113 -0.3242 -0.3083
 3587W        W46504  24.488  12.522  17.715 -0.0646 -0.0145  0.0018
 3588W        W46505  25.135  10.721  16.786 -0.1712 -0.1032 -0.1118
 3589W        W46506  25.010  14.009  16.500  0.0201 -0.0967  0.0101
 3590W        W46507  24.986  12.120  18.997  0.2007 -0.1119 -0.1541
 3591W        W46508  22.570  13.626  17.657  0.0430 -0.1798 -0.2977
 3592W        W46509  24.154  11.817  19.367 -0.3022 -0.2160  0.0622
 3593W        W46510  23.299   9.100  19.677  0.1228 -0.0910  0.0185
 3594W        W46511  22.624  12.049  18.603  0.2457 -0.3771  0.3321
 3595W        W46512  23.958  11.543  17.178 -0.0205 -0.2947 -0.1510
 3596W        W46513  20.196  14.993  15.511  0.1126  0.1265 -0.1577
 3597W        W46514  24.874  11.733  20.051 -0.0331  0.0593  0.1385
 3598W        W46515  25.798  10.505  17.308  0.1470 -0.1600 -0.1825
 3599W        W46516  23.488  11.200  18.316 -0.2462 -0.0726  0.1729
 3600W        W46517  23.821  12.521  20.664  0.0895  0.0896 -0.3028
 3601W        W46518  24.556  12.747  18.450  0.0860  0.4675 -0.0031
 3602W        W46519  24.152  12.816  16.963  0.1435  0.1471 -0.1032
 3603W        W46520  20.457  12.407  19.256  0.0079  0.1217  0.0139
 3604W        W46521  22.777  11.392  19.272 -0.4642 -0.0904 -0.1727
 3605W        W46522  20.970  13.098  16.907 -0.0812  0.0109 -0.0943
 3606W        W46523  22.858  14.326  17.275  0.0078  0.0143  0.0774
 3607W        W46524  23.246  14.895  18.308 -0.0340 -0.1301 -0.0716
 3608W        W46525  26.888  13.108  17.589 -0.0351  0.1623 -0.2100
 3609W        W46526  24.697   9.890  21.203 -0.2159  0.1876 -0.1843
 3610W        W46527  23.275  13.185  17.326  0.1905  0.0841  0.0550
 3611W        W46528  24.179  15.015  16.294 -0.0331 -0.5570 -0.0904
 3612W        W46529  24.106  11.837  16.240  0.0786  0.2170  0.0209
 3613W        W46530  22.885   9.901  17.915  0.1095 -0.2619 -0.0394
 3614W        W46531  20.862  13.330  18.413 -0.0013  0.3162  0.4559
 3615W        W46532  21.924  13.230  17.616 -0.1132  0.2291  0.4267
 3616W        W46533  25.059  13.641  19.389  0.2228  0.0011 -0.1442
 3617W        W46534  22.088  13.612  16.270 -0.0566  0.3292  0.0851
 3618W        W46535  23.574  10.949  18.786  0.1069 -0.0518  0.1589
 3619W        W46536  22.307  17.487  16.502  0.1099  0.1537 -0.0377
 3620W        W46537  21.519  12.059  17.042 -0.1426  0.2120 -0.0469
 3621W        W46538  21.326  12.054  16.321 -0.0599 -0.0980 -0.0671
 3622W        W46539  27.147  12.024  18.507 -0.0025  0.1769 -0.0970
 3623W        W46540  26.853  14.097  17.422  0.3504 -0.0436 -0.3599
 3624W        W46541  21.663  11.057  18.662 -0.1785 -0.0181 -0.3596
 3625W        W46542  24.591  12.417  19.029 -0.0042 -0.0701  0.2113
 3626W        W46543  20.583  13.788  17.716 -0.0257  0.0891 -0.0355
 3627W        W46544  24.068  12.301  17.859  0.3782 -0.1102  0.2322
 3628W        W46545  25.568  13.279  16.595 -0.0140  0.3291  0.1866
 3629W        W46546  23.243  11.827  17.954  0.0966  0.0252 -0.0628
 3630W        W46547  23.997  13.929  18.442 -0.0140  0.1638 -0.0149
 3631W        W46548  21.723  11.252  16.471 -0.1045 -0.1177 -0.1388
 3632W        W46549  25.465  12.167  19.967  0.0381 -0.0743 -0.0537
 3633W        W46550  23.904  12.488  16.076 -0.1008 -0.1608  0.1365
 3634W        W46551  19.911  12.175  16.707  0.2603 -0.0463 -0.0617
 3635W        W46552  25.424  15.878  18.847  0.0872 -0.2167 -0.3492
 3636W        W46553  19.663  12.842  19.040  0.2638  0.1476  0.1229
 3637W        W46554  21.070  15.317  15.097 -0.3955  0.1906 -0.2466
 3638W        W46555  24.003  10.616  20.032  0.0595 -0.1629  0.0925
 3639W        W46556  25.410  13.367  18.572 -0.0025  0.1707 -0.0426
 3640W        W46557  24.345  13.227  18.184 -0.2468  0.1186  0.0506
 3641W        W46558  22.139  11.394  17.132 -0.2461  0.0638  0.1349
 3642W        W46559  25.424  11.850  17.387  0.1327 -0.1315  0.0535
 3643W        W46560  25.364  11.813  19.302  0.2418  0.3545  0.4268
 3644W        W46561  25.055  12.164  20.199  0.0510  0.0432 -0.0455
 3645W        W46562  23.890  12.669  19.339  0.1609 -0.1101 -0.0836
 3646W        W46563  21.988  10.397  16.595  0.0834 -0.1270  0.3084
 3647W        W46564  22.296  16.027  17.642  0.4061  0.3072  0.1571
 3648W        W46565  23.791  12.115  19.495 -0.0216  0.0790 -0.2058
 3649W        W46566  22.000  13.729  16.814  0.3047  0.0520 -0.2206
 3650W        W46567  22.932  12.090  21.615 -0.2636 -0.0382  0.1899
 3651W        W46568  26.132  11.411  17.043 -0.2557  0.0014  0.3030
 3652W        W46569  23.977  10.804  20.794  0.1150  0.0561  0.0546
 3653W        W46570  20.487  13.847  17.238  0.3237  0.1333 -0.1936
 3654W        W46571  22.530  13.447  16.267 -0.0866  0.2708  0.3048
 3655W        W46572  20.987  13.689  17.157 -0.0855 -0.1918  0.3027
 3656W        W46573  24.864  12.156  15.871 -0.0944  0.0173 -0.0558
 3657W        W46574  24.641  13.956  17.792 -0.0638  0.2589 -0.2345
 3658W        W46575  22.828  13.396  17.251 -0.1783  0.0845  0.1171
 3659W        W46576  26.281   7.908  19.168 -0.3435  0.0445 -0.1810
 3660W        W46577  24.344  13.243  16.330 -0.0855 -0.3647  0.1965
 3661W        W46578  23.063  11.688  17.014  0.0591 -0.2604 -0.3357
 3662W        W46579  22.253  10.438  18.120  0.1184  0.1746 -0.0001
 3663W        W46580  23.771  11.972  20.128  0.0546  0.1426 -0.1987
 3664W        W46581  23.306  10.331  20.372  0.0974 -0.0163  0.0409
 3665W        W46582  24.641  11.912  22.670 -0.1587 -0.2964  0.2324
 3666W        W46583  23.551  12.704  18.166  0.0851 -0.0379  0.0270
 3667W        W46584  22.903  12.825  17.342 -0.2862 -0.1096  0.2338
 3668W        W46585  24.426  10.849  18.503 -0.1544  0.3974  0.0894
 3669W        W46586  22.968  13.522  18.586 -0.3449 -0.1879 -0.1853
 3670W        W46587  27.000  13.988  19.658  0.0000  0.0676 -0.0687
 3671W        W46588  23.568  11.896  16.924  0.0477 -0.1963  0.0767
 3672W        W46589  25.007  12.572  16.766  0.0887  0.1036 -0.2254
 3673W        W46590  22.316  12.448  19.793  0.1118 -0.1496  0.2126
 3674W        W46591  26.296  12.085  17.554  0.1314 -0.1494 -0.0024
 3675W        W46592  25.290  12.256  17.626  0.0504 -0.1564  0.1728
 3676W        W46593  23.257  11.444  16.093  0.0009  0.4238  0.0032
 3677W        W46594  22.255  10.612  22.635 -0.0175  0.2562 -0.1021
 3678W        W46595  23.890  12.425  18.402 -0.1955  0.0475  0.2744
 3679W        W46596  21.092  12.510  17.847 -0.1703  0.0848  0.0646
 3680W        W46597  25.139  11.262  18.761  0.0096  0.0682  0.0573
 3681W        W46598  23.763  12.755  19.835 -0.2657  0.1140 -0.0164
 3682W        W46599  23.274  11.932  19.332 -0.3685 -0.2786  0.0813
 3683W        W46600  20.681  11.057  18.841  0.0384 -0.3531  0.1834
 3684W        W46601  25.280  14.345  18.217 -0.0559 -0.0099  0.1598
 3685W        W46602  24.813  13.470  18.050 -0.0470 -0.0209 -0.0997
 3686W        W46603  26.150  10.722  19.504 -0.0745  0.2682  0.0635
 3687W        W46604  26.697  12.247  17.218  0.0766 -0.1603 -0.1285
 3688W        W46605  24.338  12.456  17.264 -0.1905 -0.0566  0.2398
 3689W        W46606  22.201  13.199  18.472  0.1594  0.0986 -0.2379
 3690W        W46607  25.692  12.575  19.734  0.0053  0.1976 -0.2159
 3691W        W46608  22.443  10.835  16.159 -0.0678 -0.0545  0.0961
 3692W        W46609  25.821  11.828  18.815  0.3657  0.0796  0.1201
 3693W        W46610  22.264  15.120  15.504 -0.3289 -0.0266 -0.0016
 3694W        W46611  23.819  13.999  17.139  0.1804 -0.0218  0.1512
 3695W        W46612  24.417  13.214  17.244 -0.4046 -0.1155 -0.1980
 3696W        W46613  20.691  11.531  18.651 -0.4752 -0.1341  0.1084
 3697W        W46614  23.756  14.926  17.507 -0.0465 -0.0442  0.0547
 3698W        W46615  20.369  12.497  16.660  0.1573 -0.0846 -0.2703
 3699W        W46616  23.248  12.386  16.739  0.0394 -0.0130 -0.0618
 3700W        W46617  24.319  12.238  18.633  0.1353  0.0881  0.0459
 3701W        W46618  24.177  13.031  20.615  0.0569 -0.2141  0.4149
 3702W        W46619  24.269  10.993  16.304  0.1382  0.0859  0.0642
 3703W        W46620  26.903  12.282  20.073  0.1234  0.2873  0.2543
 3704W        W46621  20.250  13.577  15.913  0.2561  0.1372  0.0116
 3705W        W46622  23.019  11.312  18.143  0.1981 -0.0590  0.3075
 3706W        W46623  23.843  13.040  17.995  0.0180 -0.3642 -0.0107
 3707W        W46624  24.181  11.787  20.371 -0.1474 -0.2320 -0.0114
 3708W        W46625  23.777  13.609  18.085  0.3676  0.1563 -0.1386
 3709W        W46626  22.960  11.751  19.688  0.1898  0.2218  0.1543
 3710W        W46627  24.212  11.207  16.794  0.0465 -0.2871  0.0574
 3711W        W46628  22.335  13.400  17.256  0.3175 -0.2180 -0.1492
 3712W        W46629  26.922  13.389  19.511 -0.1170 -0.0224 -0.1856
 3713W        W46630  22.944  12.973  18.418 -0.3461  0.1949  0.2220
 3714W        W46631  19.487  13.326  16.256 -0.2811  0.1172 -0.4802
 3715W        W46632  25.107  13.092  16.830  0.2301 -0.1371 -0.0119
 3716W        W46633  24.652  13.301  20.129  0.1098 -0.1733  0.2966
 3717W        W46634  23.585  13.349  17.688  0.2603  0.0591  0.0096
 3718W        W46635  22.021  11.377  17.748  0.0130 -0.0269  0.1304
 3719W        W46636  22.805  10.565  21.734  0.0448  0.2274  0.0105
 3720W        W46637  25.967  12.082  19.766 -0.1900  0.0398  0.0489
 3721W        W46638  20.143  12.402  18.342  0.0698 -0.3336  0.0363
 3722W        W46639  21.697  13.947  16.409 -0.0901  0.0536  0.0231
 3723W        W46640  23.644  13.529  18.797  0.1742  0.1765  0.2599
 3724W        W46641  22.722  11.511  18.554  0.0556  0.1374 -0.3286
 3725W        W46642  22.618  13.844  17.151 -0.1786 -0.1712 -0.1372
 3726W        W46643  23.395  12.456  16.035 -0.0116 -0.2086  0.2698
 3727W        W46644  24.148  10.725  17.532  0.0432  0.3548 -0.0447
 3728W        W46645  26.563  13.790  19.650  0.1493 -0.2789  0.1898
 3729W        W46646  23.691  11.641  15.965 -0.1142  0.0303 -0.1525
 3730W        W46647  24.112  15.371  15.954 -0.1113  0.0490 -0.0726
 3731W        W46648  22.130  13.245  15.341  0.1102  0.0376 -0.0692
 3732W        W46649  23.291  13.402  16.389  0.1881 -0.2453 -0.1761
 3733W        W46650  21.716  15.095  16.565 -0.1151  0.0682  0.3292
 3734W        W46651  25.857  13.083  17.791  0.0145  0.0511 -0.0730
 3735W        W46652  26.039  10.730  16.551 -0.1467  0.2964  0.1168
 3736W        W46653  26.609  11.702  19.018 -0.0189  0.2134 -0.3375
 3737W        W46654  25.331  12.257  16.529 -0.1151  0.1053 -0.2002
 3738W        W46655  24.947  13.962  18.154 -0.1403 -0.0929 -0.0177
 3739W        W46656  21.312  13.314  17.342  0.4409 -0.1998 -0.1548
 3740W        W46657  25.481  11.710  16.462 -0.3097 -0.2329  0.0709
 3741W        W46658  23.787  13.104  17.292  0.1479  0.0786 -0.1455
 3742W        W46659  26.238   9.203  19.813 -0.0993 -0.5139 -0.0894
 3743W        W46660  23.531  12.381  19.057  0.1901 -0.1861 -0.0213
 3744W        W46661  24.079  12.717  16.469  0.2480 -0.1812 -0.1142
 3745W        W46662  22.409  12.409  15.746  0.0799 -0.0489  0.1250
 3746W        W46663  20.053  11.990  17.239 -0.0135 -0.3101  0.0487
 3747W        W46664  26.913  11.804  19.384  0.1392 -0.1057  0.0596
 3748W        W46665  23.377  14.478  15.250 -0.1052  0.0644  0.1224
 3749W        W46666  23.226   9.819  20.414 -0.1041  0.0938  0.0435
 3750W        W46667  21.528  14.550  15.525  0.1515  0.0711  0.1456
 3751W        W46668  22.072  15.271  16.848 -0.1259  0.1210 -0.1081
 3752W        W46669  24.200  12.953  17.673  0.0663 -0.3170 -0.1336
 3753W        W46670  21.874  11.604  15.739 -0.1423  0.2256  0.1897
 3754W        W46671  25.334  11.210  16.602  0.1978  0.1505 -0.0284
 3755W        W46672  23.348  11.876  18.852 -0.0935 -0.1602  0.0437
 3756W        W46673  25.617  10.666  19.295  0.0378  0.2103  0.0092
 3757W        W46674  20.899  11.985  17.724  0.0448  0.1903 -0.0261
 3758W        W46675  25.783  12.337  16.770 -0.4320  0.0017 -0.2303
 3759W        W46676  21.738  12.757  19.220  0.0413 -0.0945  0.0378
 3760W        W46677  23.216  10.153  18.613 -0.4267 -0.1646 -0.0162
 3761W        W46678  23.215  10.913  16.069  0.0534 -0.4967  0.3037
 3762W        W46679  25.522  13.006  18.194 -0.0723  0.1234  0.0153
 3763W        W46680  23.970  11.372  16.266 -0.1069 -0.1835  0.2225
 3764W        W46681  24.073  16.241  17.506 -0.2634  0.0434  0.2347
 3765W        W46682  21.701  12.304  18.876  0.0035 -0.2550 -0.1382
 3766W        W46683  24.358  12.299  16.213 -0.0559 -0.1086  0.2472
 3767W        W46684  21.347  14.899  15.116 -0.3616  0.2862 -0.1331
 3768W        W46685  24.430  12.032  17.576  0.0777  0.3432 -0.0952
 3769W        W46686  25.213  16.404  20.213 -0.2374  0.0712  0.1233
 3770W        W46687  21.729   9.900  16.402  0.1374 -0.0661  0.1909
 3771W        W46688  24.333  17.030  18.600 -0.1844  0.0590 -0.1994
 3772W        W46689  23.624  13.239  21.707  0.2949  0.1154 -0.0664
 3773W        W46690  22.070  14.156  16.085  0.1059 -0.0276 -0.0898
 3774W        W46691  26.274  11.915  17.102  0.0053 -0.2569 -0.3148
 3775W        W46692  24.813  12.793  21.010  0.2508  0.0900 -0.0134
 3776W        W46693  22.018  12.650  17.500  0.2898  0.0483  0.0469
 3777W        W46694  23.767  12.923  20.290 -0.2554  0.1404  0.0887
 3778W        W46695  25.457  12.516  18.178 -0.0812 -0.2170 -0.0103
 3779W        W46696  22.170  13.033  16.317 -0.1773 -0.4147  0.1433
 3780W        W46697  21.312  14.108  16.739 -0.0224 -0.0063 -0.0420
 3781W        W46698  22.485  14.891  15.889  0.2207  0.3566  0.2280
 3782W        W46699  26.706  11.804  20.007 -0.0899  0.2789 -0.0929
 3783W        W46700  25.686  10.116  18.949  0.0958  0.1659  0.1841
 3784W        W46701  23.579  11.705  16.439 -0.2419  0.1735 -0.1606
 3785W        W46702  23.346  11.917  21.245  0.0729  0.2798  0.1286
 3786W        W46703  23.877  15.188  17.123 -0.0092 -0.0433  0.1555
 3787W        W46704  23.265  12.892  19.805 -0.1097 -0.0344 -0.3251
 3788W        W46705  22.026  12.781  15.870 -0.2908 -0.0576 -0.1013
 3789W        W46706  21.915  10.003  19.499 -0.2188 -0.0016  0.1639
 3790W        W46707  24.120  13.962  17.600  0.1065  0.0822 -0.2549
 3791W        W46708  20.345  13.384  17.141 -0.4105 -0.2410 -0.2464
 3792W        W46709  24.151  13.473  18.972  0.2504 -0.1225 -0.0236
 3793W        W46710  23.662  11.644  19.120 -0.1984  0.0251 -0.0239
 3794W        W46711  24.266  13.724  18.083  0.0899  0.3179  0.3519
 3795W        W46712  22.482   9.064  18.207 -0.0177  0.0606 -0.2215
 3796W        W46713  26.364  11.378  18.071 -0.0296  0.0892 -0.0666
 3797W        W46714  24.823  11.792  17.241  0.1224 -0.0451  0.0896
 3798W        W46715  23.103  13.534  19.438  0.1280 -0.2413  0.0747
 3799W        W46716  20.887  10.930  17.066  0.1382 -0.3607 -0.2216
 3800W        W46717  20.825  13.403  15.582 -0.0383 -0.1580 -0.0220
 3801W        W46718  20.800  12.590  16.965  0.1790 -0.2273 -0.1467
 3802W        W46719  25.386  11.278  19.394 -0.0224 -0.3873 -0.1627
 3803W        W46720  22.336  11.780  18.989 -0.4183 -0.1269  0.0376
 3804W        W46721  20.065  12.783  15.175 -0.2005 -0.2212 -0.0141
 3805W        W46722  22.806   9.471  18.390  0.0380  0.0088 -0.1306
 3806W        W46723  24.851  12.626  15.870  0.4600 -0.1317 -0.1235
 3807W        W46724  23.934  11.525  19.892  0.0131  0.3376 -0.2176
 3808W        W46725  21.562  10.415  16.952 -0.1152  0.0431  0.1736
 3809W        W46726  23.980  12.105  17.248 -0.1030  0.2515 -0.0572
 3810W        W46727  24.258  14.422  17.807 -0.0948  0.0537  0.1548
 3811W        W46728  24.393  12.032  16.994 -0.2326 -0.0214  0.0798
 3812W        W46729  24.990  12.749  21.566  0.2147  0.1145  0.3496
 3813W        W46730  20.111  13.144  15.559  0.2633  0.0258 -0.1388
 3814W        W46731  25.668  12.736  19.218 -0.0486 -0.3036 -0.2749
 3815W        W46732  23.222   9.092  21.056 -0.3631 -0.1181  0.0302
 3816W        W46733  20.715  10.280  16.663  0.0548 -0.0423 -0.1193
 3817W        W46734  23.083  12.390  17.467 -0.1732  0.2339 -0.1113
 3818W        W46735  23.158  11.920  16.572  0.2075 -0.0979  0.0370
 3819W        W46736  23.765  14.551  16.483  0.1295 -0.0561  0.3338
 3820W        W46737  24.433  14.241  18.747 -0.1440 -0.3020 -0.1852
 3821W        W46738  23.798  12.692  21.489  0.0698  0.1038  0.0758
 3822W        W46739  22.538  11.086  18.362  0.0268  0.2208 -0.2599
 3823W        W46740  24.861  12.277  17.293 -0.0145 -0.0232  0.0951
 3824W        W46741  24.247  12.725  18.082  0.0640 -0.0658 -0.1285
 3825W        W46742  26.075  14.315  17.498  0.1168 -0.2458 -0.0634
 3826W        W46743  25.811  11.052  17.391 -0.0962 -0.0613 -0.3079
 3827W        W46744  24.121  13.284  16.796  0.2016 -0.0468  0.1817
 3828W        W46745  22.520  11.422  18.041 -0.0843 -0.0249  0.0018
 3829W        W46746  22.784  10.287  18.986 -0.0479  0.0944  0.0432
 3830W        W46747  23.364  12.977  19.323  0.1175 -0.1107 -0.1187
 3831W        W46748  23.507  12.791  17.634  0.0598  0.1893 -0.3143
 3832W        W46749  24.240  13.783  16.990  0.0769  0.0038 -0.1233
 3833W        W46750  24.501  15.815  17.434  0.1058 -0.4302  0.0397
 3834W        W46751  23.431  11.823  17.449 -0.0126  0.0833  0.0946
 3835W        W46752  22.128  11.742  16.610  0.0433  0.1349 -0.4373
 3836W        W46753  24.394  11.537  19.689 -0.1295  0.2186 -0.2383
 3837W        W46754  22.896  12.804  19.047  0.0674  0.3212  0.3454
 3838W        W46755  22.814  11.087  18.784 -0.2275 -0.1636 -0.2293
 3839W        W46756  23.492  10.808  17.388 -0.1581  0.0082  0.0852
 3840W        W46757  26.142  13.510  17.568 -0.1968 -0.1914  0.0064
 3841W        W46758  25.230  16.148  19.264 -0.2294 -0.0269 -0.0715
 3842W        W46759  25.324  13.511  20.090  0.2134  0.1727 -0.0563
 3843W        W46760  23.812  14.162  18.049  0.1851 -0.0499 -0.1109
 3844W        W46761  24.641  12.407  20.105 -0.0081  0.0921 -0.2239
 3845W        W46762  23.894   8.695  19.966 -0.0914 -0.0727  0.1376
 3846W        W46763  21.779  13.288  16.600  0.0681  0.0706 -0.4409
 3847W        W46764  24.951  12.669  17.658  0.0118 -0.0541 -0.3309
 3848W        W46765  24.957  11.545  19.590  0.2085  0.0405  0.0822
 3849W        W46766  23.752  12.416  16.902 -0.3407  0.2226  0.3428
 3850W        W46767  27.796  11.775  18.191 -0.0469  0.0285  0.0517
 3851W        W46768  24.029  13.576  19.677  0.0471  0.0462  0.1852
 3852W        W46769  24.075  14.015  19.089 -0.2837 -0.0466 -0.1601
 3853W        W46770  21.612  14.890  22.445 -0.0834  0.0683  0.0930
 3854W        W46771  23.912  11.955  22.031 -0.0562  0.1620 -0.1269
 3855W        W46772  23.549  11.696  21.822  0.1331  0.3641  0.1841
 3856W        W46773  25.543  10.277  20.336 -0.0222 -0.1990 -0.1210
 3857W        W46774  21.090  10.888  22.249 -0.0853  0.4564 -0.0062
 3858W        W46775  24.965  13.330  22.671 -0.1788  0.0637  0.1278
 3859W        W46776  24.723  10.828  23.810 -0.1721 -0.0571  0.0475
 3860W        W46777  24.644  11.248  23.510  0.2509  0.1987  0.2741
 3861W        W46778  25.376  12.645  21.069  0.0718  0.2262  0.0391
 3862W        W46779  25.068  12.635  19.156  0.1515 -0.1646  0.2168
 3863W        W46780  23.051  11.318  22.492 -0.2725  0.0245  0.3784
 3864W        W46781  24.344  12.738  22.635 -0.5123 -0.1006 -0.4502
 3865W        W46782  22.814   9.968  19.546  0.0165  0.1302  0.3803
 3866W        W46783  23.789  11.576  23.462 -0.0173  0.2465 -0.1652
 3867W        W46784  24.764  12.466  24.786 -0.0098 -0.2544 -0.0710
 3868W        W46785  21.927  11.779  20.861 -0.3806 -0.2023 -0.4021
 3869W        W46786  22.779  11.405  22.961  0.1755 -0.0001 -0.0412
 3870W        W46787  23.457  10.547  19.886  0.0758  0.0056  0.1328
 3871W        W46788  23.098  13.662  21.145  0.3109  0.0795  0.1249
 3872W        W46789  23.358  11.436  24.569  0.0943  0.0516  0.1278
 3873W        W46790  23.469  10.448  24.876 -0.2045 -0.1922 -0.0948
 3874W        W46791  23.364  12.184  20.736 -0.3251 -0.5072  0.2266
 3875W        W46792  21.880  10.565  19.916  0.0736 -0.0131  0.0337
 3876W        W46793  22.375  10.896  22.118 -0.1745  0.1784  0.0747
 3877W        W46794  22.607  10.930  20.724  0.1652 -0.0056  0.0552
 3878W        W46795  26.527  13.079  19.889 -0.2697 -0.1156  0.0538
 3879W        W46796  24.702  11.704  23.142 -0.0138  0.0526 -0.1279
 3880W        W46797  25.519  13.683  22.581 -0.1005  0.0393 -0.4656
 3881W        W46798  23.368  14.401  20.374  0.3588 -0.1169 -0.3969
 3882W        W46799  24.392  12.921  24.593  0.1169 -0.1507  0.1710
 3883W        W46800  22.647  13.174  18.854  0.0878 -0.1390 -0.1221
 3884W        W46801  22.269  14.519  18.744 -0.0765 -0.1111  0.1691
 3885W        W46802  23.537  13.147  18.419  0.1436  0.4403 -0.1814
 3886W        W46803  24.594  14.313  21.966 -0.1373  0.0715 -0.2236
 3887W        W46804  26.192  13.589  24.778 -0.0128 -0.3172  0.1769
 3888W        W46805  24.339  15.247  23.623  0.0883 -0.1162 -0.0203
 3889W        W46806  22.499  12.606  18.603 -0.2672 -0.0426 -0.0167
 3890W        W46807  25.262  15.553  23.544 -0.3907  0.1532 -0.0947
 3891W        W46808  22.945  13.229  24.256 -0.0733 -0.0779  0.5034
 3892W        W46809  22.618  12.338  22.487  0.3956  0.2990  0.3339
 3893W        W46810  24.747  13.047  21.914 -0.0790  0.3432  0.1263
 3894W        W46811  22.802  12.766  20.595 -0.1718 -0.3530 -0.1885
 3895W        W46812  25.836  12.708  22.001  0.0090  0.2286 -0.1212
 3896W        W46813  24.689  10.756  22.115 -0.2404  0.2512 -0.0222
 3897W        W46814  23.127  15.402  20.678 -0.1631  0.1954  0.1282
 3898W        W46815  26.410  13.090  23.667 -0.3880  0.0460 -0.0765
 3899W        W46816  23.982  13.344  18.495  0.0758 -0.0205 -0.1282
 3900W        W46817  22.952  12.159  21.042 -0.1444 -0.1486 -0.2454
 3901W        W46818  24.650  12.072  21.025  0.0621 -0.1432 -0.0818
 3902W        W46819  23.801  12.210  21.114 -0.3344 -0.1027  0.3867
 3903W        W46820  24.196  10.219  22.076  0.0004 -0.1466  0.1287
 3904W        W46821  23.549  13.918  20.448 -0.0793  0.2263 -0.1343
 3905W        W46822  24.992  11.248  20.855  0.1997  0.0649  0.0066
 3906W        W46823  25.212  14.034  23.307  0.2452 -0.0803 -0.1137
 3907W        W46824  22.942  12.362  22.148 -0.3655 -0.0035 -0.1474
 3908W        W46825  25.248  10.548  21.825 -0.2100 -0.1378 -0.0395
 3909W        W46826  22.433  13.323  19.278  0.3856  0.0534  0.0703
 3910W        W46827  23.407  10.479  21.433 -0.0664  0.0570  0.0074
 3911W        W46828  25.146  14.097  19.450 -0.0306  0.1949  0.0791
 3912W        W46829  25.231  13.930  22.252 -0.0463  0.1293 -0.0909
 3913W        W46830  23.798  14.789  20.531 -0.0190  0.3646 -0.1676
 3914W        W46831  24.124  13.168  22.530 -0.0923 -0.2825 -0.1655
 3915W        W46832  21.328  13.022  23.803  0.0862  0.2021  0.0087
 3916W        W46833  22.696  11.575  23.450  0.2703 -0.1169  0.0895
 3917W        W46834  21.875  11.916  17.640 -0.3525 -0.0877  0.1778
 3918W        W46835  24.559  12.929  23.518  0.0702  0.1837 -0.1894
 3919W        W46836  23.361  14.293  22.844  0.2441  0.1008  0.1387
 3920W        W46837  25.985  10.136  20.039  0.3385  0.1031  0.4393
 3921W        W46838  24.697  12.035  21.497 -0.5092  0.0537 -0.1014
 3922W        W46839  25.428  14.177  21.704 -0.1955  0.0911  0.0590
 3923W        W46840  25.492  11.275  22.351  0.0559 -0.0928 -0.0019
 3924W        W46841  25.719  10.895  24.020  0.1822  0.1958  0.0502
 3925W        W46842  25.091  10.687  23.167  0.3487 -0.0782 -0.1663
 3926W        W46843  23.280  10.588  18.867 -0.2653 -0.0546  0.2007
 3927W        W46844  24.131  11.404  18.971  0.0257 -0.0259  0.1511
 3928W        W46845  25.259  14.419  24.936 -0.0375  0.2543  0.0840
 3929W        W46846  23.556  12.426  20.280 -0.0483 -0.2339  0.0356
 3930W        W46847  23.172  14.022  20.724  0.1669 -0.1203  0.1104
 3931W        W46848  23.764  10.197  23.291  0.1410  0.1836  0.1498
 3932W        W46849  24.283  12.546  23.636 -0.2040  0.0620  0.1542
 3933W        W46850  22.314  13.426  18.019 -0.0696 -0.0027  0.0167
 3934W        W46851  24.105  13.725  22.397 -0.0085 -0.1335  0.1245
 3935W        W46852  21.749  13.577  17.959  0.2055 -0.1788  0.2499
 3936W        W46853  22.248   9.192  22.719 -0.1916 -0.1622  0.2110
 3937W        W46854  24.300  13.723  23.096 -0.1243  0.2180  0.2901
 3938W        W46855  24.153  10.800  22.173 -0.1654  0.2037  0.1328
 3939W        W46856  22.797  11.073  23.375 -0.2975 -0.2717 -0.4413
 3940W        W46857  27.005  10.036  20.105 -0.2593  0.2014 -0.2912
 3941W        W46858  22.350  13.352  20.199 -0.3844 -0.0395  0.0907
 3942W        W46859  23.685  13.417  22.330 -0.0573 -0.3591  0.3806
 3943W        W46860  24.460  10.913  20.102  0.0416 -0.0525  0.0699
 3944W        W46861  23.585  11.072  19.739  0.1804 -0.0659  0.2797
 3945W        W46862  21.625  10.155  22.266  0.1110 -0.1349  0.2445
 3946W        W46863  22.775  11.096  21.571  0.2254  0.1408 -0.2220
 3947W        W46864  24.979   9.681  24.281 -0.0260  0.3704  0.1904
 3948W        W46865  23.237  10.387  21.884  0.1706  0.0858  0.2565
 3949W        W46866  23.284  11.785  22.694 -0.0670 -0.0470  0.1018
 3950W        W46867  22.910  11.648  20.244  0.0772  0.0765  0.0563
 3951W        W46868  25.737  11.747  21.197 -0.0935  0.0713  0.1060
 3952W        W46869  20.989  12.216  19.536 -0.1320  0.0918 -0.0685
 3953W        W46870  20.736  13.560  21.217  0.1828 -0.4148 -0.0106
 3954W        W46871  25.603  11.466  20.374 -0.0576  0.1173 -0.4237
 3955W        W46872  22.546  11.287  21.079 -0.2313  0.1576 -0.3212
 3956W        W46873  25.051  13.484  22.176 -0.1196  0.0539 -0.1899
 3957W        W46874  22.637  13.832  20.317 -0.0825 -0.2627  0.2904
 3958W        W46875  22.596  12.334  24.467  0.1579 -0.1963 -0.3212
 3959W        W46876  22.729  11.337  19.762 -0.2730  0.0417 -0.0334
 3960W        W46877  21.955  13.060  21.484 -0.0166 -0.2624  0.4341
 3961W        W46878  22.117  13.364  19.695  0.0310  0.1382  0.4297
 3962W        W46879  23.770  11.091  22.298 -0.0973 -0.2940 -0.1909
 3963W        W46880  24.510  16.366  22.337 -0.2920  0.1844  0.1247
 3964W        W46881  24.430  12.417  20.727 -0.1860 -0.0876 -0.1362
 3965W        W46882  21.381  13.502  22.825 -0.1454 -0.0278 -0.0156
 3966W        W46883  24.887  12.031  22.136 -0.0679 -0.1012 -0.0572
 3967W        W46884  23.266  12.775  24.206 -0.4378 -0.0238 -0.1010
 3968W        W46885  25.893  12.379  20.183 -0.1784  0.2897  0.1830
 3969W        W46886  20.948  11.421  19.186  0.0450  0.0161 -0.2433
 3970W        W46887  23.985  11.138  23.286 -0.1097 -0.1263 -0.2670
 3971W        W46888  22.317  14.043  19.010 -0.4290 -0.0715  0.2665
 3972W        W46889  21.671  13.133  19.599 -0.1208  0.0447  0.2018
 3973W        W46890  23.855  14.676  18.013  0.1932  0.1590  0.0079
 3974W        W46891  25.247  12.802  22.044  0.0638 -0.1215 -0.0676
 3975W        W46892  22.151  12.216  22.728 -0.0829  0.2753  0.1678
 3976W        W46893  21.938  11.705  25.035 -0.2414  0.0854 -0.3330
 3977W        W46894  23.767  11.978  18.193  0.0647  0.0986  0.1051
 3978W        W46895  22.354  11.877  23.605 -0.1916  0.1613  0.0793
 3979W        W46896  25.093   9.346  20.247 -0.0222  0.0975  0.1734
 3980W        W46897  24.573  11.831  18.482  0.1725  0.0684 -0.4810
 3981W        W46898  23.352  11.705  24.091 -0.0497 -0.1149  0.1878
 3982W        W46899  24.110  13.399  21.623  0.0235  0.1726  0.0772
 3983W        W46900  23.779  11.150  19.269  0.2609  0.2985  0.1633
 3984W        W46901  27.423  10.842  20.428 -0.2684  0.1531  0.2167
 3985W        W46902  22.855  13.365  23.703 -0.2674  0.1560  0.1549
 3986W        W46903  23.658  13.496  19.299  0.2011 -0.2129  0.1788
 3987W        W46904  23.810  11.736  22.767  0.1499  0.0524  0.0830
 3988W        W46905  24.492  11.029  21.188  0.0735  0.0428  0.1217
 3989W        W46906  24.471  14.417  20.991 -0.0077  0.0859 -0.1408
 3990W        W46907  22.607  12.651  23.476 -0.0851 -0.0377  0.1018
 3991W        W46908  23.064  13.974  24.857 -0.1656 -0.0538 -0.1641
 3992W        W46909  24.504  14.223  23.925 -0.1992 -0.1631 -0.1233
 3993W        W46910  24.138  10.390  23.563  0.3330  0.1613 -0.0437
 3994W        W46911  21.370  11.983  18.473  0.3021  0.0388 -0.1240
 3995W        W46912  24.092  11.580  21.681  0.1764 -0.2457  0.2399
 3996W        W46913  22.768  16.325  19.677 -0.0491 -0.4287  0.0561
 3997W        W46914  24.963  11.180  22.288 -0.2688 -0.0507  0.1443
 3998W        W46915  23.631  11.589  22.302  0.2811  0.1537  0.1165
 3999W        W46916  23.479  13.755  24.679 -0.3593  0.1135  0.0825
 4000W        W46917  23.295  15.059  24.613 -0.1747  0.1962  0.0133
 4001W        W46918  23.349  12.203  21.965  0.2370 -0.2246  0.2294
 4002W        W46919  26.001  11.184  20.380  0.1574  0.3581 -0.0257
 4003W        W46920  23.298   9.549  21.387 -0.1146 -0.0685  0.0922
 4004W        W46921  23.324  10.874  22.392 -0.0764  0.1235 -0.0939
 4005W        W46922  21.670  12.707  23.607  0.0537  0.0730 -0.0778
 4006W        W46923  22.702  13.685  21.439 -0.1166  0.0405  0.0174
 4007W        W46924  25.053  14.152  23.976 -0.3664 -0.0204 -0.3642
 4008W        W46925  24.574  12.488  21.317  0.2290  0.2693  0.1314
 4009W        W46926  22.321  12.218  23.194 -0.0471 -0.0357  0.0780
 4010W        W46927  25.290  11.093  21.874  0.0917 -0.0236  0.2459
 4011W        W46928  23.608  14.017  19.328 -0.1753  0.2427  0.0818
 4012W        W46929  21.433  12.845  21.064  0.4077 -0.0746 -0.0287
 4013W        W46930  22.180  12.745  19.011 -0.1567 -0.0234  0.0973
 4014W        W46931  22.540  12.969  23.040  0.3636 -0.1450 -0.3284
 4015W        W46932  25.112  13.067  20.153 -0.1840  0.2092  0.2192
 4016W        W46933  24.673  12.991  22.901 -0.0119  0.1922  0.0732
 4017W        W46934  23.301  15.371  20.160  0.0467  0.0351 -0.0892
 4018W        W46935  25.949  10.166  21.199 -0.2478 -0.1953 -0.3638
 4019W        W46936  21.747  13.874  21.152  0.0184  0.0931 -0.0986
 4020W        W46937  23.031  11.710  20.765 -0.0633 -0.4381 -0.1387
 4021W        W46938  22.208  12.300  19.292 -0.2471  0.0128 -0.0116
 4022W        W46939  27.679  12.537  21.745  0.0859 -0.1411  0.2853
 4023W        W46940  23.094  13.425  21.604 -0.0904  0.0590 -0.0562
 4024W        W46941  22.065  12.161  21.282 -0.0777  0.2543 -0.0640
 4025W        W46942  23.705  12.111  21.582 -0.0810  0.2538 -0.0800
 4026W        W46943  23.775  12.927  22.150 -0.1665  0.3253 -0.1026
 4027W        W46944  23.959  12.223  22.973 -0.1289  0.1169  0.1687
 4028W        W46945  23.435  11.736  19.808  0.1437 -0.1727  0.0799
 4029W        W46946  24.714  12.519  21.875  0.1128  0.1006  0.2804
 4030W        W46947  23.475  12.762  23.308  0.0132 -0.1075  0.3129
 4031W        W46948  21.599  10.965  21.417  0.0157 -0.0287 -0.1281
 4032W        W46949  25.581  13.368  22.174  0.1449  0.0632  0.0199
 4033W        W46950  23.038  11.213  20.658 -0.0856  0.1188 -0.0055
 4034W        W46951  21.697  13.885  21.680  0.0168 -0.1882  0.0990
 4035W        W46952  23.888  14.176  22.741 -0.0071 -0.0533  0.0840
 4036W        W46953  21.491  12.159  19.943  0.0572  0.1357  0.0639
 4037W        W46954  21.560  13.658  22.066 -0.1371 -0.0047 -0.1806
 4038W        W46955  22.504  11.858  24.400 -0.0104 -0.0077 -0.0386
 4039W        W46956  25.620  11.927  25.302 -0.0993  0.3735  0.0636
 4040W        W46957  24.694  13.441  23.208  0.1706 -0.0424 -0.0595
 4041W        W46958  20.640  12.639  19.718  0.1864  0.0812 -0.1082
 4042W        W46959  24.530  11.252  21.908 -0.0103 -0.3432  0.2642
 4043W        W46960  24.822  14.266  22.476  0.1699 -0.2146  0.1736
 4044W        W46961  22.313  14.179  24.373 -0.3085 -0.1495  0.0313
 4045W        W46962  23.919  13.036  23.428  0.1607 -0.1644 -0.2526
 4046W        W46963  24.585   8.670  22.765 -0.2975 -0.2861 -0.1896
 4047W        W46964  24.149  14.359  20.601 -0.3923 -0.2622  0.2279
 4048W        W46965  24.841  12.464  22.849 -0.2231 -0.1160  0.2519
 4049W        W46966  23.037  10.890  19.659 -0.1725 -0.2145  0.1470
 4050W        W46967  22.756  11.702  21.353 -0.0370 -0.3102  0.0660
 4051W        W46968  21.594  12.966  20.621  0.0222  0.0975 -0.0516
 4052W        W46969  25.644  10.849  23.088  0.0322 -0.4987 -0.1494
 4053W        W46970  22.774  13.110  21.808  0.2851 -0.0503 -0.0038
 4054W        W46971  21.436  13.140  19.140 -0.2362  0.4737  0.0721
 4055W        W46972  21.739  10.570  22.562  0.0865  0.2841  0.2266
 4056W        W46973  23.568  10.929  21.144  0.0591 -0.0047 -0.1853
 4057W        W46974  22.704  12.189  20.605  0.1351  0.1788  0.0717
 4058W        W46975  23.459  10.447  20.853 -0.0834 -0.2292  0.1766
 4059W        W46976  25.824  11.601  22.903 -0.0669 -0.1477  0.2236
 4060W        W46977  23.567  12.069  22.387  0.2965  0.0726  0.0889
 4061W        W46978  22.452  11.532  23.964  0.2691  0.0703  0.2036
 4062W        W46979  23.211  11.945  23.694  0.2113  0.0540  0.0807
 4063W        W46980  25.604  12.762  20.233 -0.3388  0.2165  0.1887
 4064W        W46981  22.915  10.949  22.023 -0.5428  0.2238  0.1721
 4065W        W46982  23.930  15.914  23.898  0.0769  0.1113 -0.3380
 4066W        W46983  21.460  12.563  20.251  0.1453  0.0416  0.0346
 4067W        W46984  22.406   9.771  19.829 -0.0037  0.2002  0.1754
 4068W        W46985  21.524  11.763  19.000  0.0304  0.1269 -0.1564
 4069W        W46986  22.791  11.768  22.532 -0.2237 -0.2374 -0.1092
 4070W        W46987  23.553  12.471  22.844 -0.2768 -0.0498 -0.1972
 4071W        W46988  23.329  12.276  18.321 -0.0020 -0.0393 -0.0659
 4072W        W46989  26.744  12.613  21.584 -0.0408 -0.2097  0.0682
 4073W        W46990  21.829  10.951  22.905  0.1308  0.1722  0.0382
 4074W        W46991  27.310  10.390  21.403 -0.0582 -0.0201 -0.3517
 4075W        W46992  22.954  10.515  20.045  0.1394  0.1449  0.2190
 4076W        W46993  24.343  12.799  22.067 -0.0740  0.3937 -0.2048
 4077W        W46994  23.472  12.666  25.301  0.0404  0.0296 -0.1899
 4078W        W46995  24.264  12.913  21.578  0.2178 -0.1500  0.0196
 4079W        W46996  25.114   9.595  23.393  0.0621 -0.0676  0.3211
 4080W        W46997  24.404  11.911  21.923 -0.0237  0.1523  0.0519
 4081W        W46998  23.147  12.349  24.515  0.0420 -0.3218 -0.3622
 4082W        W46999  23.827  13.518  22.818 -0.1298  0.1435  0.2402
 4083W        W47000  23.026  13.460  23.168 -0.1346 -0.0148  0.1120
 4084W        W47001  25.333  13.577  23.229 -0.0776 -0.0673  0.1865
 4085W        W47002  26.747  13.166  20.369 -0.0765  0.0488  0.0155
 4086W        W47003  25.281  14.582  23.078 -0.0689 -0.0191  0.0119
 4087W        W47004  25.465  12.304  22.225  0.3367  0.0596  0.2349
 4088W        W47005  26.391  12.677  20.312  0.2431  0.2331  0.0693
 4089W        W47006  22.321  11.713  22.638 -0.6366  0.1903 -0.3388
 4090W        W47007  26.166  14.661  24.904  0.0183 -0.0033  0.4011
 4091W        W47008  22.766  10.048  20.182 -0.4153  0.1001  0.1209
 4092W        W47009  25.905  13.003  25.356 -0.0820 -0.1351  0.3508
 4093W        W47010  23.630  11.290  21.502 -0.1390  0.2309 -0.1279
 4094W        W47011  24.089  11.474  22.174  0.2619 -0.3241 -0.0497
 4095W        W47012  25.674  13.109  21.089  0.0290  0.4132 -0.0102
 4096W        W47013  23.438  10.597  23.125 -0.0035 -0.1961  0.0440
 4097W        W47014  23.165  14.089  24.071 -0.0302  0.0201  0.0170
 4098W        W47015  20.246  11.498  21.242  0.1074  0.0014  0.0327
 4099W        W47016  23.943  12.540  18.868  0.0159 -0.0323  0.2039
 4100W        W47017  23.871  12.919  22.876 -0.1687  0.0389 -0.0581
 4101W        W47018  24.385  10.937  26.785  0.0495 -0.1695  0.0256
 4102W        W47019  22.670  12.515  22.948 -0.2649 -0.0232  0.2206
 4103W        W47020  24.774  13.618  25.955  0.0799  0.1131  0.3631
 4104W        W47021  22.298  11.333  19.376  0.3753  0.2440  0.0547
 4105W        W47022  23.837   8.196  24.285  0.1981 -0.0166  0.1046
 4106W        W47023  22.896  13.930  23.089 -0.1319  0.0578 -0.1196
 4107W        W47024  21.733  12.349  22.582  0.5693 -0.2146  0.1020
 4108W        W47025  23.262  12.010  20.215 -0.0321  0.3777  0.0203
 4109W        W47026  24.568  11.865  23.626 -0.2307  0.3469 -0.0549
 4110W        W47027  25.057  12.343  21.295  0.0264  0.0921 -0.3025
 4111W        W47028  22.964  12.949  23.373 -0.2248  0.0040  0.0856
 4112W        W47029  23.205  11.610  23.146 -0.1095  0.3999 -0.0066
 4113W        W47030  23.471  12.268  24.076 -0.0788 -0.0349 -0.0288
 4114W        W47031  22.563  11.350  22.385 -0.2121  0.2895 -0.2305
 4115W        W47032  25.231  14.098  22.776  0.2552  0.3471  0.2233
 4116W        W47033  25.408  11.662  21.928 -0.2783  0.1249  0.1944
 4117W        W47034  21.597  12.291  20.793  0.0831  0.2354  0.0875
 4118W        W47035  20.564  11.121  22.557 -0.1196 -0.3155 -0.0015
 4119W        W47036  23.259  11.858  24.943 -0.0044 -0.0238 -0.1430
 4120W        W47037  23.539  11.293  22.705 -0.3441  0.1441 -0.3632
 4121W        W47038  21.583  11.804  23.789  0.0831  0.1593  0.0508
 4122W        W47039  24.730  13.268  20.823 -0.0982  0.0770  0.3054
 4123W        W47040  21.076  12.897  22.341  0.2146 -0.3619  0.0444
 4124W        W47041  21.957  11.940  22.317 -0.3025  0.0266  0.1758
 4125W        W47042  24.195  12.316  19.230 -0.3091 -0.0324 -0.1361
 4126W        W47043  26.346  12.896  21.810 -0.0256  0.1386 -0.0409
 4127W        W47044  22.650  12.362  19.033 -0.1506  0.1095  0.0382
 4128W        W47045  22.199  14.521  23.955  0.1026 -0.0959  0.0396
 4129W        W47046  26.550  11.329  19.889 -0.0823  0.2192  0.1108
 4130W        W47047  22.232  14.043  21.219 -0.1631 -0.2983 -0.2264
 4131W        W47048  22.856  13.593  19.920 -0.1285 -0.2298 -0.0438
 4132W        W47049  24.613  13.403  19.663  0.1475 -0.2695  0.1322
 4133W        W47050  24.047  13.837  20.487  0.0374  0.0743  0.2302
 4134W        W47051  23.496  15.115  26.078 -0.5790  0.0288 -0.0801
 4135W        W47052  26.426   8.696  19.611  0.1126 -0.0372  0.4108
 4136W        W47053  26.547  10.908  23.429 -0.0807 -0.0842  0.0155
 4137W        W47054  23.388  12.575  22.320 -0.0288  0.1727 -0.3506
 4138W        W47055  24.811  14.203  25.254 -0.1357  0.3545  0.0218
 4139W        W47056  24.476  12.305  22.269  0.2311 -0.0927 -0.2286
 4140W        W47057  24.721  10.178  22.026 -0.0238  0.2543 -0.2270
 4141W        W47058  22.794  13.186  22.687 -0.2669 -0.0873 -0.1745
 4142W        W47059  25.767  11.034  22.638  0.2446  0.1252 -0.1730
 4143W        W47060  21.646  15.379  22.231 -0.0803 -0.0281 -0.0247
 4144W        W47061  24.856  13.095  19.295  0.2263 -0.0346  0.0927
 4145W        W47062  22.364  10.791  19.918  0.0476  0.2208 -0.1036
 4146W        W47063  21.558  10.744  22.135  0.0531  0.1142  0.0367
 4147W        W47064  25.239  11.062  22.747  0.1302  0.2731  0.2563
 4148W        W47065  24.154  12.015  20.827 -0.3997 -0.4998 -0.1663
 4149W        W47066  23.678  11.844  20.626  0.0333 -0.1743 -0.0848
 4150W        W47067  25.045  14.653  21.098 -0.1526  0.1044  0.3036
 4151W        W47068  22.862  12.570  19.796 -0.2820  0.1317 -0.0180
 4152W        W47069  22.716  14.095  22.202 -0.1416 -0.2435  0.1968
 4153W        W47070  22.501  12.331  21.803 -0.1502 -0.0543 -0.0918
 4154W        W47071  25.720  11.207  21.029 -0.1147 -0.1510  0.1637
 4155W        W47072  22.199  11.979  20.495 -0.0019  0.1313 -0.3082
 4156W        W47073  25.229  11.691  22.979  0.1862  0.3956  0.0163
 4157W        W47074  24.027  11.349  20.659 -0.1656 -0.1020 -0.2888
 4158W        W47075  23.161  11.456  21.539  0.0158  0.3541 -0.1718
 4159W        W47076  23.812  12.474  23.491  0.1645  0.0521  0.1282
 4160W        W47077  23.106  12.388  22.640 -0.0439 -0.0833 -0.1221
 4161W        W47078  24.549  11.552  20.674 -0.1055 -0.0193  0.0791
 4162W        W47079  23.914  12.951  24.331  0.3712  0.1489 -0.1223
 4163W        W47080  25.182  12.611  19.987 -0.0200  0.1384 -0.1706
 4164W        W47081  25.043  13.333  24.086  0.0863  0.1722 -0.1529
 4165W        W47082  23.360   8.495  20.626 -0.2596  0.0137  0.0038
 4166W        W47083  24.269  10.120  20.694  0.1004 -0.3501  0.0468
 4167W        W47084  22.605  12.695  21.077  0.1810 -0.2720 -0.0901
 4168W        W47085  23.635  13.132  25.403 -0.1158  0.0473  0.1551
 4169W        W47086  25.072  14.890  24.322 -0.2499  0.0242 -0.0936
 4170W        W47087  21.612   9.993  20.999  0.1773 -0.0305  0.0673
 4171W        W47088  25.411  12.359  19.362  0.2152 -0.1259  0.0264
 4172W        W47089  25.115  12.077  22.649 -0.0830  0.1354  0.2220
 4173W        W47090  23.400  14.353  19.072  0.2833 -0.0500 -0.0401
 4174W        W47091  24.217  12.050  21.341 -0.0671 -0.2147 -0.2531
 4175W        W47092  24.478  14.715  23.740  0.2387 -0.1748  0.0848
 4176W        W47093  22.034  10.478  22.121  0.0193 -0.1498  0.2265
 4177W        W47094  24.256  16.044  24.339 -0.1721  0.2479 -0.0530
 4178W        W47095  24.767  12.387  23.848 -0.0017 -0.1995 -0.0321
 4179W        W47096  23.161  10.236  22.852 -0.0460 -0.0538  0.3487
 4180W        W47097  22.569  12.245  21.288 -0.0894  0.1262 -0.1123
 4181W        W47098  22.872  13.937  18.197 -0.1473  0.1096 -0.2118
 4182W        W47099  25.129  12.070  23.192 -0.0974  0.1844  0.2583
 4183W        W47100  26.208  11.350  22.751 -0.2908  0.3072 -0.1396
 4184W        W47101  24.421  14.004  22.634 -0.0572  0.2134 -0.0014
 4185W        W47102  24.636  11.164  25.013  0.1563  0.1931 -0.2604
 4186W        W47103  22.080  12.844  23.321 -0.2297 -0.3733 -0.1192
 4187W        W47104  22.939  14.422  22.500 -0.4438  0.2444  0.3101
 4188W        W47105  20.117  11.285  22.098  0.1834  0.0442  0.0918
 4189W        W47106  23.451  13.222  23.063  0.0166  0.1967 -0.2711
 4190W        W47107  22.832  14.956  19.608  0.1065 -0.3932  0.0101
 4191W        W47108  24.368  14.947  22.716 -0.2645 -0.2121 -0.1732
 4192W        W47109  24.597  13.055  22.353  0.3100 -0.0267 -0.0758
 4193W        W47110  24.251  11.536  22.688 -0.2494 -0.3014 -0.2575
 4194W        W47111  25.151  14.614  22.590  0.1836  0.0279  0.1936
 4195W        W47112  23.220  10.969  21.557  0.2773 -0.0352 -0.3032
 4196W        W47113  27.396   9.115  20.955  0.0499  0.2768  0.4537
 4197W        W47114  24.333   9.785  22.227  0.1310 -0.1050 -0.2256
 4198W        W47115  22.173  13.983  23.936 -0.0108  0.3583 -0.2742
 4199W        W47116  22.121  12.797  19.541 -0.0404  0.0791  0.3415
 4200W        W47117  24.076  12.875  18.541 -0.1705  0.1291  0.4219
 4201W        W47118  22.804  12.137  20.023 -0.2734  0.1357 -0.1218
 4202W        W47119  23.824  11.491  24.327  0.2829  0.0150  0.0695
 4203W        W47120  23.471  11.112  23.335 -0.3291 -0.1285  0.3212
 4204W        W47121  21.382  11.858  19.564 -0.1953 -0.1715 -0.2037
 4205W        W47122  22.780  10.439  22.249 -0.0399  0.1211  0.1901
 4206W        W47123  23.909  14.969  19.846 -0.1923  0.0074  0.0130
 4207W        W47124  23.322  10.338  23.718  0.1710  0.3760 -0.0756
 4208W        W47125  21.491   9.791  21.937 -0.0783 -0.0484 -0.0950
 4209W        W47126  22.507  12.505  20.292  0.3122  0.1714  0.0790
 4210W        W47127  23.670  13.024  20.784 -0.0621 -0.2452 -0.0134
 4211W        W47128  23.132  12.456  19.364 -0.4905 -0.0151  0.2461
 4212W        W47129  25.625  13.109  23.332  0.2139 -0.2400 -0.2161
 4213W        W47130  22.567  12.745  19.380  0.0950 -0.0890 -0.3575
 4214W        W47131  24.865  11.438  25.396 -0.2436  0.3367  0.3532
 4215W        W47132  23.795  11.247  23.888 -0.2063  0.0833 -0.0499
 4216W        W47133  20.827  11.379  20.131  0.1118 -0.2910 -0.0034
 4217W        W47134  23.913  11.119  24.684 -0.0551 -0.3343 -0.3105
 4218W        W47135  24.919  11.672  21.229  0.1755 -0.0933  0.3098
 4219W        W47136  24.445  14.949  20.698  0.3030 -0.1149 -0.3656
 4220W        W47137  23.315  12.413  21.435  0.1729  0.3828  0.1867
 4221W        W47138  22.445  13.753  23.573  0.0681 -0.1390  0.1998
 4222W        W47139  20.782  10.086  22.328 -0.0166 -0.0002  0.3165
 4223W        W47140  24.631  12.046  19.361 -0.0616 -0.4737  0.0862
 4224W        W47141  23.517  13.936  22.470 -0.0365  0.2684 -0.2827
 4225W        W47142  24.343  13.376  22.077 -0.1505 -0.2548 -0.0257
 4226W        W47143  25.611  11.046  20.065 -0.1982  0.3128  0.3864
 4227W        W47144  23.557  11.435  20.316 -0.2280 -0.3159 -0.0793
 4228W        W47145  22.236  11.123  23.416 -0.2109 -0.1316  0.1787
 4229W        W47146  20.357  11.116  24.110 -0.3198  0.2087  0.0654
 4230W        W47147  25.545  13.299  22.893  0.0456 -0.0033 -0.4417
 4231W        W47148  22.578  11.948  22.166  0.0005  0.2405 -0.0523
 4232W        W47149  21.965   9.761  22.205  0.0034 -0.0764  0.1101
 4233W        W47150  23.469  13.722  19.724 -0.2178 -0.0371 -0.1216
 4234W        W47151  22.130  11.516  22.135  0.0100 -0.1725 -0.2021
 4235W        W47152  23.434  10.878  20.233 -0.0152 -0.3039 -0.2592
 4236W        W47153  23.614  11.982  23.216 -0.0614 -0.0630  0.0834
 4237W        W47154  23.262  12.963  21.380 -0.0876  0.1372 -0.2365
 4238W        W47155  24.507  12.168  23.153 -0.1407  0.0894 -0.0574
 4239W        W47156  22.851  12.630  21.509 -0.0189 -0.0886  0.2598
 4240W        W47157  26.356  11.533  20.283  0.0812 -0.2815  0.2088
 4241W        W47158  24.282  14.371  24.580  0.2007 -0.1044 -0.1898
 4242W        W47159  26.582  14.730  25.692 -0.0189  0.0671 -0.1170
 4243W        W47160  23.426  13.703  23.514 -0.3075  0.0612 -0.0523
 4244W        W47161  24.193  14.623  24.138 -0.0836 -0.0099  0.2787
 4245W        W47162  24.364  10.060  23.901 -0.0465  0.3275 -0.1947
 4246W        W47163  21.962  11.473  20.244 -0.3310  0.0358 -0.0331
 4247W        W47164  25.208  12.744  23.052  0.2310 -0.1688  0.4075
 4248W        W47165  26.212  12.626  22.287 -0.1822  0.3820  0.1221
 4249W        W47166  21.242  11.619  24.472  0.3211  0.1175  0.0404
 4250W        W47167  22.987  10.944  21.084 -0.2119  0.0106  0.0950
 4251W        W47168  23.173  15.935  21.123  0.4089 -0.1100 -0.1647
 4252W        W47169  24.725  11.613  24.700 -0.0704 -0.0788 -0.1200
 4253W        W47170  20.695  15.571  27.445  0.0039  0.2507 -0.1509
 4254W        W47171  20.121  11.448  23.698 -0.1673  0.0724 -0.0912
 4255W        W47172  25.301  12.481  25.872 -0.0413  0.2984  0.1638
 4256W        W47173  24.843  12.207  26.448  0.0077  0.0305  0.1018
 4257W        W47174  21.598  13.118  24.440  0.3193  0.1803  0.0658
 4258W        W47175  24.152  14.881  25.499  0.0660 -0.0770 -0.2024
 4259W        W47176  23.046  11.340  26.250  0.0273  0.2695 -0.2992
 4260W        W47177  24.539  14.016  24.794 -0.2190 -0.0660  0.0167
 4261W        W47178  24.039  17.333  27.714  0.2112  0.0025  0.1535
 4262W        W47179  23.145  12.629  23.683 -0.4010  0.4037  0.2050
 4263W        W47180  24.716  12.536  25.895 -0.1887 -0.1441  0.3452
 4264W        W47181  23.350  12.219  26.022 -0.0169  0.1980 -0.2954
 4265W        W47182  22.471  13.165  25.474 -0.0794  0.0900 -0.0704
 4266W        W47183  20.386  10.959  27.030  0.0207  0.1036  0.0906
 4267W        W47184  24.376  13.369  27.246  0.1508 -0.0460 -0.0486
 4268W        W47185  20.289  11.589  24.426 -0.1727  0.1690 -0.1215
 4269W        W47186  20.441  12.066  27.104  0.0769 -0.0574  0.0340
 4270W        W47187  21.504  12.248  23.469 -0.0449  0.0972 -0.2632
 4271W        W47188  21.485  15.658  26.257 -0.3463  0.0606 -0.1063
 4272W        W47189  19.463  12.167  27.535 -0.0320 -0.1450  0.1463
 4273W        W47190  22.816  10.445  26.238 -0.2548 -0.1118 -0.4835
 4274W        W47191  21.991  14.274  25.580  0.2853 -0.1093  0.2652
 4275W        W47192  22.218  11.666  21.261  0.0652  0.1222  0.0805
 4276W        W47193  23.486  13.595  26.707  0.4634 -0.1564  0.0512
 4277W        W47194  21.550  11.574  26.628 -0.1485  0.1612  0.1867
 4278W        W47195  25.221  12.287  25.422  0.0651 -0.1956 -0.0216
 4279W        W47196  25.142  11.493  25.925  0.1096 -0.2046  0.2917
 4280W        W47197  22.218  16.232  25.072 -0.0724  0.1270 -0.1938
 4281W        W47198  23.783  15.234  24.603  0.4505 -0.0274  0.0768
 4282W        W47199  25.225  12.366  26.796 -0.3719 -0.0187  0.1700
 4283W        W47200  21.138  13.480  24.673  0.0727 -0.3690 -0.0137
 4284W        W47201  20.137  14.472  22.853 -0.4429 -0.0356  0.0889
 4285W        W47202  21.975  14.910  25.574 -0.1766 -0.0250 -0.1173
 4286W        W47203  25.072  13.156  24.720 -0.1328  0.3620 -0.3541
 4287W        W47204  23.152  15.709  25.831  0.0448 -0.0891 -0.0031
 4288W        W47205  21.893  17.176  25.177 -0.1228 -0.1713  0.0687
 4289W        W47206  20.860  11.994  22.601 -0.0588 -0.0270 -0.1523
 4290W        W47207  24.403  13.733  26.321  0.3171  0.2125 -0.0729
 4291W        W47208  22.291  14.505  27.476  0.0105 -0.1434  0.3421
 4292W        W47209  20.865  12.231  26.855  0.0071 -0.2765  0.2738
 4293W        W47210  22.581  15.063  24.895 -0.4747  0.1804  0.1222
 4294W        W47211  21.315  14.408  24.924 -0.1095 -0.0682  0.3736
 4295W        W47212  20.760  14.831  24.918 -0.2891  0.0488  0.2847
 4296W        W47213  25.333  14.113  28.533 -0.1732 -0.2768 -0.1106
 4297W        W47214  22.585  15.075  27.691 -0.1225  0.3326  0.2036
 4298W        W47215  26.253  12.375  25.943 -0.2557  0.1538 -0.3049
 4299W        W47216  22.050  12.672  22.837  0.0077  0.2873  0.3560
 4300W        W47217  24.621  10.358  23.376  0.0477  0.2314  0.0311
 4301W        W47218  22.848  12.780  24.571  0.1199  0.0051 -0.2772
 4302W        W47219  24.666  13.052  25.027  0.2349 -0.0040 -0.1370
 4303W        W47220  22.998  11.581  25.246 -0.1784 -0.2981  0.2044
 4304W        W47221  22.925  16.608  25.919 -0.0009 -0.0617 -0.1502
 4305W        W47222  22.938  13.075  25.554 -0.0081 -0.1224 -0.0994
 4306W        W47223  26.666  14.585  28.155 -0.1512 -0.1174 -0.0374
 4307W        W47224  24.410  14.463  22.697 -0.0100 -0.0075 -0.1118
 4308W        W47225  25.732  11.362  26.122 -0.0130 -0.0178 -0.0922
 4309W        W47226  22.458  15.470  25.243  0.3959  0.1027  0.2749
 4310W        W47227  21.964  13.736  26.003 -0.0029  0.0059 -0.0761
 4311W        W47228  24.773  14.135  24.392 -0.0721  0.0527  0.1073
 4312W        W47229  24.104  13.206  26.344 -0.1988 -0.3283  0.1427
 4313W        W47230  23.581  13.772  24.157 -0.0620 -0.1592 -0.1187
 4314W        W47231  21.311  11.376  23.604 -0.0109  0.1879 -0.2005
 4315W        W47232  22.204  12.467  26.682  0.0026  0.0427 -0.0325
 4316W        W47233  20.992  13.964  24.783 -0.0395 -0.0506  0.0827
 4317W        W47234  23.724   9.706  23.439 -0.1255 -0.1446 -0.0772
 4318W        W47235  23.850  15.155  28.423 -0.0130  0.2774  0.4329
 4319W        W47236  22.692  13.908  28.588  0.0555  0.0521 -0.0071
 4320W        W47237  25.294  12.652  24.575 -0.0300 -0.0527 -0.2134
 4321W        W47238  24.434  14.035  25.930  0.2936  0.0660 -0.0585
 4322W        W47239  24.421  15.104  26.801 -0.0701  0.1544  0.0346
 4323W        W47240  22.571  14.125  22.691 -0.1947  0.0077  0.0425
 4324W        W47241  25.315  10.861  26.592  0.4045  0.1388  0.0004
 4325W        W47242  23.686  10.671  26.526 -0.1396  0.1143  0.1629
 4326W        W47243  22.324  13.515  25.023 -0.0642 -0.2757 -0.3635
 4327W        W47244  22.460  13.309  23.972  0.1477 -0.1959 -0.2800
 4328W        W47245  25.105  15.548  26.950 -0.1687 -0.0094 -0.0766
 4329W        W47246  24.199  13.460  25.430 -0.2347  0.2630 -0.1683
 4330W        W47247  23.118  14.485  23.841 -0.0010 -0.0120 -0.1390
 4331W        W47248  21.904  13.354  25.371 -0.1399 -0.0345  0.0249
 4332W        W47249  25.097  13.757  25.369  0.0896 -0.0238  0.0726
 4333W        W47250  22.297  10.196  23.082 -0.0136  0.0560  0.1503
 4334W        W47251  23.812  11.961  26.644  0.1853  0.1350  0.0718
 4335W        W47252  22.804  11.994  23.016  0.0271 -0.1898  0.0686
 4336W        W47253  21.660  12.977  27.935  0.2155 -0.2613 -0.0551
 4337W        W47254  22.186  14.277  24.959  0.1368 -0.0068 -0.1076
 4338W        W47255  23.974  12.535  24.076  0.0705 -0.0111  0.1954
 4339W        W47256  24.087  10.562  29.332 -0.0377  0.0279 -0.0923
 4340W        W47257  24.946  12.105  25.922 -0.2184  0.2261  0.0141
 4341W        W47258  22.635  13.468  24.610  0.0219 -0.0601 -0.3531
 4342W        W47259  24.766  12.477  25.359  0.1209  0.3542 -0.3253
 4343W        W47260  25.535  11.769  24.804  0.1882  0.0373  0.0475
 4344W        W47261  23.038  13.758  24.436  0.3034  0.0431 -0.2451
 4345W        W47262  21.596  12.703  27.564  0.0359 -0.2990  0.3396
 4346W        W47263  22.748  12.137  25.393  0.0033 -0.0350  0.1319
 4347W        W47264  22.305  11.236  27.269 -0.1513  0.1167  0.3117
 4348W        W47265  20.271  12.472  27.388  0.0405  0.0455  0.0361
 4349W        W47266  24.103  13.628  25.949  0.1725 -0.0521  0.2226
 4350W        W47267  23.456  10.994  25.498  0.0630 -0.1784  0.0890
 4351W        W47268  21.188  11.698  25.588 -0.1806  0.0956 -0.0382
 4352W        W47269  21.891  15.614  27.115  0.0404 -0.2782 -0.0431
 4353W        W47270  20.975  12.897  23.417 -0.1333 -0.5442  0.2822
 4354W        W47271  24.124  12.301  26.898 -0.1072  0.0003  0.1988
 4355W        W47272  22.713  16.001  26.910 -0.1055 -0.0939  0.1079
 4356W        W47273  24.094  16.615  28.688 -0.2416  0.2748 -0.4031
 4357W        W47274  26.048  15.953  25.967 -0.1075 -0.0361 -0.0720
 4358W        W47275  19.678  11.122  29.541  0.0948 -0.2715 -0.0965
 4359W        W47276  22.119  11.930  24.050 -0.0897 -0.1600  0.2303
 4360W        W47277  22.914  15.539  26.649  0.3401 -0.1723  0.2486
 4361W        W47278  22.163  14.662  26.529  0.1641  0.0421  0.0502
 4362W        W47279  23.417  12.966  25.893  0.0107 -0.0867 -0.0160
 4363W        W47280  24.975  14.783  26.630  0.0303 -0.0644  0.3009
 4364W        W47281  21.310  13.481  27.143  0.0315  0.1671 -0.5393
 4365W        W47282  22.151  14.081  27.262  0.1192 -0.3707  0.4140
 4366W        W47283  24.678  11.619  29.298 -0.1117 -0.0662  0.0255
 4367W        W47284  24.279  12.502  25.063 -0.1374  0.0424 -0.1765
 4368W        W47285  24.710  14.590  24.238  0.0135 -0.2396 -0.1228
 4369W        W47286  22.537  10.602  23.485 -0.0955  0.1844  0.0057
 4370W        W47287  25.766  15.431  25.349  0.1644  0.3034 -0.2336
 4371W        W47288  19.872  12.381  24.251 -0.2078  0.2147  0.2453
 4372W        W47289  21.473  11.565  25.129 -0.0158  0.1133  0.1136
 4373W        W47290  22.007  14.311  26.174  0.3084 -0.0248 -0.2931
 4374W        W47291  25.089  12.631  26.297 -0.1579  0.0439 -0.2381
 4375W        W47292  21.757  13.987  26.408 -0.2081  0.0570  0.1036
 4376W        W47293  23.285  12.897  27.886 -0.1829  0.0210 -0.0286
 4377W        W47294  21.555  12.922  25.482 -0.2512 -0.3796 -0.3882
 4378W        W47295  21.785  14.343  27.446  0.0802  0.4030 -0.0482
 4379W        W47296  21.619  12.076  24.976 -0.0649  0.0332  0.0808
 4380W        W47297  24.775  13.548  25.018  0.1238  0.2235 -0.1070
 4381W        W47298  21.797  13.181  28.704  0.0288  0.1251  0.0026
 4382W        W47299  26.161  14.388  24.439 -0.2865 -0.1472  0.0655
 4383W        W47300  21.947  13.921  24.679  0.0145  0.1232 -0.0336
 4384W        W47301  24.341  10.701  24.575  0.0386 -0.1158 -0.1802
 4385W        W47302  20.210  14.515  24.352 -0.2225 -0.4096 -0.2778
 4386W        W47303  22.497  14.252  26.348  0.3028 -0.0315  0.2508
 4387W        W47304  22.897  14.370  26.011  0.0521 -0.0515 -0.1729
 4388W        W47305  22.473  12.375  23.876  0.2111 -0.2652 -0.1790
 4389W        W47306  23.319  13.491  25.218  0.1109  0.3508  0.0449
 4390W        W47307  22.966  14.751  24.766 -0.2394  0.2788 -0.1182
 4391W        W47308  23.536  14.102  25.764  0.0346  0.3974 -0.1432
 4392W        W47309  23.776  14.436  26.433  0.1656  0.5196  0.0038
 4393W        W47310  24.051  12.646  29.070 -0.1017  0.2972  0.1704
 4394W        W47311  23.784  14.389  25.493  0.0440 -0.2564 -0.4104
 4395W        W47312  24.841  10.374  24.410  0.4802  0.0669 -0.3398
 4396W        W47313  21.990  13.960  22.758 -0.1345  0.2266 -0.0538
 4397W        W47314  26.541  12.552  27.414  0.0217 -0.1264  0.0223
 4398W        W47315  23.459  12.320  24.907 -0.1812  0.2256  0.0721
 4399W        W47316  22.952  13.537  26.572  0.1675 -0.1591  0.2570
 4400W        W47317  24.957  12.891  26.667 -0.0837 -0.1318 -0.1280
 4401W        W47318  23.990  14.126  24.171 -0.0086 -0.3571 -0.2092
 4402W        W47319  23.622  11.963  25.619  0.0324  0.1731 -0.0137
 4403W        W47320  22.275  11.566  23.150  0.0711 -0.0380  0.0035
 4404W        W47321  24.793  12.771  27.710 -0.2698  0.2929  0.1107
 4405W        W47322  21.311  12.652  26.215 -0.1568  0.0886 -0.0255
 4406W        W47323  21.878  15.927  23.730  0.1060 -0.2207  0.0633
 4407W        W47324  24.364  13.057  27.828  0.0176  0.0430  0.0949
 4408W        W47325  24.424  10.249  26.099 -0.3058 -0.1096 -0.0039
 4409W        W47326  25.560  13.400  28.491 -0.1448 -0.0818 -0.0879
 4410W        W47327  23.227  11.380  23.708  0.2286  0.0366  0.0352
 4411W        W47328  22.494  15.033  25.494  0.1691 -0.0447 -0.0167
 4412W        W47329  22.138  14.237  23.459 -0.2940 -0.0405  0.1690
 4413W        W47330  23.463  11.430  25.888 -0.2500  0.0368  0.2804
 4414W        W47331  25.242  13.278  25.696  0.1551 -0.0847  0.0120
 4415W        W47332  24.239  12.655  23.133 -0.1177 -0.1033 -0.2621
 4416W        W47333  23.498  12.342  27.855  0.2914 -0.2348 -0.1422
 4417W        W47334  21.186  15.323  23.853  0.0913 -0.2486  0.0491
 4418W        W47335  24.440  12.531  27.991 -0.1402  0.2535 -0.0149
 4419W        W47336  20.520  12.164  22.951  0.1669  0.1959  0.1895
 4420W        W47337  22.922  10.894  24.412 -0.0826 -0.0262  0.4613
 4421W        W47338  21.837  11.404  23.214  0.0544  0.2202 -0.3774
 4422W        W47339  23.148  13.051  25.091  0.0999 -0.1693 -0.0208
 4423W        W47340  25.349  12.246  24.914  0.2753  0.2151  0.0210
 4424W        W47341  22.863  10.506  26.750  0.0430 -0.1146 -0.0396
 4425W        W47342  23.483  13.509  25.680 -0.2210 -0.3302 -0.1767
 4426W        W47343  21.093  12.833  25.263  0.0659 -0.3435 -0.1656
 4427W        W47344  25.556  12.808  26.661  0.2849 -0.3920  0.0629
 4428W        W47345  26.421  10.251  24.226 -0.0386  0.2112  0.1304
 4429W        W47346  23.816  12.835  27.892  0.2137 -0.3069  0.0530
 4430W        W47347  20.698  12.723  27.138  0.1308  0.1308 -0.1379
 4431W        W47348  20.956  12.148  25.816  0.1181  0.0340  0.0346
 4432W        W47349  23.967  12.710  25.476  0.1685 -0.0972  0.3916
 4433W        W47350  22.437  15.879  26.532  0.1647  0.1441 -0.0188
 4434W        W47351  22.157  15.095  25.108 -0.0648  0.1011 -0.0886
 4435W        W47352  24.056  14.951  24.914  0.1325  0.1247 -0.0157
 4436W        W47353  22.039  11.856  24.555 -0.2494 -0.0012 -0.0584
 4437W        W47354  22.321  14.618  25.256 -0.1497  0.0565  0.1354
 4438W        W47355  22.173  11.264  25.753 -0.0728 -0.2337 -0.3055
 4439W        W47356  25.824  14.271  26.646  0.0150 -0.0055  0.0034
 4440W        W47357  23.032  14.065  25.324 -0.1959  0.1934  0.3122
 4441W        W47358  22.832  12.198  24.862  0.3155  0.0504 -0.0775
 4442W        W47359  22.145  12.402  24.254 -0.1819  0.1494  0.2398
 4443W        W47360  23.154  14.769  26.144  0.3488 -0.0953 -0.2706
 4444W        W47361  21.714  10.427  27.420  0.1095 -0.0209  0.1097
 4445W        W47362  22.159  14.149  26.719  0.1323  0.0104  0.0475
 4446W        W47363  23.713   9.498  25.630 -0.2262 -0.0333  0.1202
 4447W        W47364  27.383  15.523  25.625 -0.2809 -0.0178 -0.0341
 4448W        W47365  24.712  11.321  27.374  0.3809 -0.2572  0.1777
 4449W        W47366  20.602  13.656  22.641 -0.0019 -0.0963 -0.0181
 4450W        W47367  21.811  12.400  26.355  0.0810 -0.2105 -0.2497
 4451W        W47368  21.527  14.672  22.894 -0.0623 -0.2741  0.1032
 4452W        W47369  23.931  12.551  27.437 -0.1286  0.0240  0.0573
 4453W        W47370  22.683  14.369  24.972 -0.1543  0.1177 -0.3202
 4454W        W47371  21.789  15.406  24.552  0.0770 -0.0892  0.0845
 4455W        W47372  22.430  13.425  26.966 -0.1298 -0.2529  0.1621
 4456W        W47373  22.343  13.622  25.682 -0.0697  0.1143 -0.1134
 4457W        W47374  22.940  12.628  25.045 -0.3003  0.0305 -0.2005
 4458W        W47375  24.180  13.038  25.112 -0.0435 -0.1037 -0.1247
 4459W        W47376  25.118  12.903  27.282 -0.3442 -0.0049 -0.0518
 4460W        W47377  26.553  12.190  22.318 -0.1862 -0.0652  0.0622
 4461W        W47378  24.403  13.052  26.762 -0.0145 -0.1599 -0.1667
 4462W        W47379  24.138  11.359  27.202  0.2218 -0.1740  0.3357
 4463W        W47380  24.962  13.994  26.285  0.1409  0.0711  0.0962
 4464W        W47381  22.664  12.272  26.782  0.0330 -0.3066 -0.3850
 4465W        W47382  24.943  15.258  27.508  0.1347 -0.1616  0.0412
 4466W        W47383  22.549  11.393  26.092 -0.1448 -0.0097 -0.0235
 4467W        W47384  22.390  11.829  24.957  0.2517 -0.1944 -0.1258
 4468W        W47385  21.150  10.788  24.744  0.3347  0.4218  0.0114
 4469W        W47386  23.717  13.015  26.635 -0.0066  0.1756 -0.0464
 4470W        W47387  24.909  13.032  26.063 -0.1480 -0.4364 -0.1131
 4471W        W47388  22.481  15.743  27.303 -0.0373 -0.0224 -0.1684
 4472W        W47389  24.523  14.091  27.062 -0.2438 -0.0531 -0.0478
 4473W        W47390  22.979  13.468  27.101  0.2736  0.0484  0.2408
 4474W        W47391  25.447  12.841  25.537 -0.0040  0.0182  0.0481
 4475W        W47392  25.214  12.915  22.560 -0.2038  0.1858 -0.2059
 4476W        W47393  22.683  14.499  25.585  0.1578  0.1322  0.0738
 4477W        W47394  23.750   8.749  26.916 -0.1397  0.1997  0.2302
 4478W        W47395  22.261  13.471  27.825  0.3570 -0.4404 -0.0125
 4479W        W47396  22.696  10.924  26.067 -0.0728 -0.3274  0.2418
 4480W        W47397  25.629  11.480  27.075 -0.2103 -0.2033  0.2614
 4481W        W47398  23.893  11.989  27.199 -0.1298 -0.1069  0.1167
 4482W        W47399  23.231  11.289  27.684  0.2867  0.0424  0.0652
 4483W        W47400  22.780  12.827  26.016  0.1048 -0.3241 -0.0236
 4484W        W47401  25.314  15.567  28.468 -0.0453  0.2300  0.2786
 4485W        W47402  24.274  10.600  24.011  0.1795 -0.1545  0.2896
 4486W        W47403  23.561  12.433  26.487  0.0546 -0.4151  0.1005
 4487W        W47404  26.436  10.073  26.962 -0.1842  0.0820 -0.0769
 4488W        W47405  22.449  11.069  24.336 -0.1881 -0.0401  0.0317
 4489W        W47406  22.031  13.250  25.985 -0.3748 -0.0541  0.1855
 4490W        W47407  23.859  12.201  26.152  0.2138  0.0898  0.1072
 4491W        W47408  22.385  11.440  24.675 -0.0443 -0.1694  0.0576
 4492W        W47409  26.167  11.282  27.347  0.0463 -0.1696 -0.1302
 4493W        W47410  21.722  14.176  22.343  0.0075  0.1966 -0.3364
 4494W        W47411  23.736  15.038  26.926  0.1141 -0.1397  0.1455
 4495W        W47412  24.321  10.815  25.979 -0.0655 -0.5470 -0.1306
 4496W        W47413  24.028  11.484  26.523 -0.0156 -0.1796 -0.0473
 4497W        W47414  19.978  15.759  25.641  0.0323 -0.1478  0.4152
 4498W        W47415  23.492  11.944  24.506  0.4183 -0.1794  0.1482
 4499W        W47416  23.230  12.325  23.243  0.0806  0.0374  0.0429
 4500W        W47417  22.983  14.850  25.279  0.0302 -0.1717  0.0541
 4501W        W47418  24.474  12.847  26.302  0.1602  0.0357  0.0871
 4502W        W47419  23.623  12.793  23.858 -0.0291  0.0654 -0.1257
 4503W        W47420  25.521  13.651  28.018  0.6919  0.1127 -0.0953
 4504W        W47421  21.550  13.961  22.915  0.0178 -0.0101 -0.1617
 4505W        W47422  23.806  11.414  25.558 -0.1853  0.0831  0.0548
 4506W        W47423  22.840  14.478  27.723  0.1515  0.1810  0.0296
 4507W        W47424  20.499  12.442  25.275  0.1092 -0.0189  0.0882
 4508W        W47425  21.976  15.141  26.937  0.4997 -0.0332 -0.1205
 4509W        W47426  24.678  10.791  26.361 -0.0408  0.2618 -0.2729
 4510W        W47427  22.858  11.590  24.788  0.1243  0.0351 -0.0708
 4511W        W47428  21.682  12.314  24.493 -0.3026  0.0105 -0.3302
 4512W        W47429  26.862  12.953  28.254  0.3156  0.1115 -0.3293
 4513W        W47430  23.965  13.351  28.085  0.2286 -0.0161 -0.2802
 4514W        W47431  20.755  12.334  24.433 -0.1793 -0.1483 -0.3032
 4515W        W47432  23.764  14.579  25.968 -0.2080 -0.1979  0.1669
 4516W        W47433  23.190  13.601  23.962 -0.1273 -0.0847 -0.1269
 4517W        W47434  22.051  15.187  26.438  0.0184 -0.1220  0.0246
 4518W        W47435  22.734  12.460  26.362 -0.3350 -0.2684 -0.1615
 4519W        W47436  24.316  11.584  28.482  0.3159 -0.1703 -0.0241
 4520W        W47437  22.319  13.782  26.364  0.3548  0.1568  0.1043
 4521W        W47438  20.375  12.880  26.060 -0.1332 -0.0922  0.0145
 4522W        W47439  23.477  13.297  24.283  0.1241  0.3523 -0.0498
 4523W        W47440  22.218  15.129  25.934  0.2163 -0.1694  0.0294
 4524W        W47441  23.318  13.784  26.249 -0.1517 -0.1664 -0.0717
 4525W        W47442  23.040  15.203  23.135 -0.0963  0.4041 -0.0385
 4526W        W47443  24.769  13.394  26.445  0.0983  0.0957  0.1039
 4527W        W47444  23.416  15.430  26.809  0.0667 -0.0271  0.1309
 4528W        W47445  21.280  15.097  27.103 -0.1022 -0.2807  0.0630
 4529W        W47446  24.451  12.831  25.558  0.0694  0.2496 -0.0929
 4530W        W47447  21.419  15.722  22.537 -0.0915  0.0121 -0.0093
 4531W        W47448  21.819  11.533  21.607 -0.1293 -0.2238 -0.0036
 4532W        W47449  23.544  14.882  26.512 -0.2199 -0.1619  0.0668
 4533W        W47450  22.180  16.324  23.529  0.2555 -0.1288 -0.0568
 4534W        W47451  22.573  15.968  25.319  0.0099 -0.0006 -0.1466
 4535W        W47452  24.816  10.381  23.948  0.0511  0.1769 -0.0138
 4536W        W47453  25.460  10.503  24.303 -0.3165  0.0444  0.0791
 4537W        W47454  26.914  11.798  25.867  0.0081 -0.0901  0.2342
 4538W        W47455  23.100  15.028  26.626  0.1640 -0.0165 -0.1495
 4539W        W47456  24.639  11.689  25.928  0.2769  0.1988  0.2616
 4540W        W47457  25.173  12.664  25.088  0.0681  0.2136 -0.3201
 4541W        W47458  22.409  11.971  29.209  0.0494  0.0711  0.3062
 4542W        W47459  25.119  13.581  28.741 -0.0500 -0.1051  0.0476
 4543W        W47460  20.630  14.817  25.362 -0.1127 -0.1677  0.0025
 4544W        W47461  24.367  14.525  25.042 -0.2890 -0.1947  0.4246
 4545W        W47462  21.775  13.657  23.952  0.3102  0.1223  0.0326
 4546W        W47463  23.119  13.416  24.774 -0.0805 -0.0727 -0.1593
 4547W        W47464  24.605  10.204  26.598  0.0388 -0.2013 -0.0536
 4548W        W47465  21.790  13.215  23.661 -0.0460  0.2043 -0.0307
 4549W        W47466  23.881  10.935  27.326  0.1479 -0.0528  0.0048
 4550W        W47467  22.100  14.650  27.056 -0.0184  0.1723 -0.3449
 4551W        W47468  21.279  13.943  25.188 -0.1467  0.0131 -0.2490
 4552W        W47469  22.730  15.290  27.140 -0.3529 -0.0159 -0.0850
 4553W        W47470  20.942  12.408  23.290  0.1036 -0.2739  0.4961
 4554W        W47471  24.180  10.695  25.081  0.0866 -0.1021  0.1160
 4555W        W47472  23.889  11.019  26.853 -0.2022 -0.3579 -0.4665
 4556W        W47473  24.199  14.800  28.538  0.0849  0.2244 -0.3095
 4557W        W47474  22.355  12.704  24.686 -0.1063 -0.1220  0.2503
 4558W        W47475  24.411  13.820  24.344  0.1839  0.1556  0.3503
 4559W        W47476  23.451  15.537  26.327 -0.1826 -0.0822  0.2615
 4560W        W47477  23.470  11.125  27.196  0.2316  0.3160  0.4396
 4561W        W47478  20.594  12.918  24.464 -0.0075 -0.4184 -0.1763
 4562W        W47479  24.026  14.396  26.993 -0.2955  0.0264 -0.1751
 4563W        W47480  24.633  11.964  25.522 -0.0612  0.0465  0.1383
 4564W        W47481  23.466  15.544  27.746 -0.0684  0.0843  0.3525
 4565W        W47482  20.534  10.744  24.843 -0.1568 -0.0633  0.1100
 4566W        W47483  24.501  10.795  25.413 -0.0253  0.1091  0.2118
 4567W        W47484  22.840  14.331  24.498  0.1501  0.0309 -0.0627
 4568W        W47485  21.701  12.356  28.504  0.2466 -0.0919 -0.3316
 4569W        W47486  23.057  14.434  27.243  0.2503  0.1487  0.0953
 4570W        W47487  22.163  12.963  25.068  0.2559 -0.3606 -0.1981
 4571W        W47488  26.399  11.528  25.500 -0.0803 -0.3332  0.0310
 4572W        W47489  27.053  12.033  26.278 -0.0291 -0.2579  0.1384
 4573W        W47490  21.854  12.760  24.690 -0.0914 -0.1264  0.2743
 4574W        W47491  22.792  13.832  26.138  0.0212  0.0221 -0.1624
 4575W        W47492  23.231  14.493  25.579  0.0039 -0.2923  0.0702
 4576W        W47493  20.516  11.852  26.198 -0.0824  0.0679  0.3361
 4577W        W47494  24.181  14.078  25.125  0.0252 -0.2142  0.1151
 4578W        W47495  25.179  15.733  26.363  0.3249  0.1070  0.2090
 4579W        W47496  22.841   9.688  25.692 -0.3472 -0.0971 -0.0654
 4580W        W47497  21.041  12.264  25.259  0.2997  0.1036  0.1209
 4581W        W47498  20.697  13.329  23.055  0.0218 -0.0525 -0.2544
 4582W        W47499  24.723  13.335  25.444 -0.0918 -0.1009 -0.1892
 4583W        W47500  23.478  13.135  27.011 -0.2374 -0.3425 -0.0649
 4584W        W47501  24.916  14.733  25.269  0.0291  0.3043 -0.0455
 4585W        W47502  24.504  10.382  28.539  0.2029 -0.0423  0.3580
 4586W        W47503  21.620  15.253  25.497 -0.0799 -0.1157 -0.0877
 4587W        W47504  22.353  13.256  26.504  0.0389 -0.1072  0.1325
 4588W        W47505  22.521  13.955  24.808  0.3152 -0.0694 -0.2143
 4589W        W47506  23.108  12.407  28.656 -0.2097 -0.5227  0.0593
 4590W        W47507  22.592  12.758  26.968  0.2388 -0.1832 -0.1527
 4591W        W47508  21.915  14.958  23.989  0.2202  0.5112 -0.2179
 4592W        W47509  23.972  13.373  26.870 -0.1440 -0.0239  0.1589
 4593W        W47510  24.500  11.620  25.135 -0.2862 -0.0036  0.1927
 4594W        W47511  21.988  13.687  26.878 -0.1144  0.0920  0.0778
 4595W        W47512  22.529  12.667  25.619  0.1479  0.3785  0.2662
 4596W        W47513  24.100  11.233  25.917  0.0172 -0.3492 -0.0757
 4597W        W47514  26.197  14.121  24.859 -0.0897  0.0584  0.0441
 4598W        W47515  22.346  10.702  26.637 -0.0712 -0.0790 -0.1569
 4599W        W47516  22.175  12.821  23.782 -0.1472 -0.1901 -0.1628
 4600W        W47517  24.222  13.241  23.040 -0.0845  0.1069 -0.0075
 4601W        W47518  23.376  12.798  24.681 -0.0354 -0.1029  0.1496
 4602W        W47519  21.775  11.902  26.285  0.0791 -0.1567  0.0792
 4603W        W47520  21.821  10.565  28.339  0.0176 -0.0721 -0.3086
 4604W        W47521  22.343  13.063  27.303  0.1917  0.2602 -0.1456
 4605W        W47522  22.456   9.609  25.071  0.0325  0.0053 -0.0278
 4606W        W47523  25.872  12.633  24.664 -0.1625 -0.1844  0.0261
 4607W        W47524  23.222   8.859  25.834 -0.2380  0.3329 -0.2609
 4608W        W47525  21.052   9.536  25.984  0.1116  0.1427  0.2598
 4609W        W47526  22.805  14.567  26.542 -0.3078  0.1082  0.1129
 4610W        W47527  25.775  13.282  25.791  0.1399  0.1969  0.2411
 4611W        W47528  22.140   9.986  25.164 -0.1913 -0.0749  0.0147
 4612W        W47529  24.547  13.831  25.425  0.1401 -0.0804  0.0884
 4613W        W47530  21.409  14.294  21.958 -0.1899 -0.1372 -0.1848
 4614W        W47531  23.305  10.155  27.822  0.1208  0.1168 -0.0945
 4615W        W47532  19.966  11.067  28.037  0.0924 -0.2355  0.2396
 4616W        W47533  21.095  11.993  23.698 -0.3937 -0.0450  0.4048
 4617W        W47534  21.515  13.184  26.153 -0.1057  0.2623  0.0255
 4618W        W47535  24.785  14.322  23.565 -0.2204 -0.0340  0.2281
 4619W        W47536  22.578  16.469  24.125 -0.0102  0.1723 -0.0935
 4620W        W47537  21.458  12.644  29.583  0.0412  0.0721  0.0596
 4621W        W47538  22.647  15.482  25.713  0.1522 -0.1257  0.3341
 4622W        W47539  20.145  11.129  27.422 -0.3135 -0.0339  0.0094
 4623W        W47540  23.958  13.102  25.827  0.2610  0.2576  0.1073
 4624W        W47541  22.247  12.609  28.597  0.1829  0.1346 -0.4913
 4625W        W47542  24.286  13.576  24.914  0.2183  0.0317 -0.0132
 4626W        W47543  22.610  13.896  26.782  0.2744  0.0386  0.0053
 4627W        W47544  23.624  13.392  26.131  0.1110  0.1219  0.1904
 4628W        W47545  22.342  10.257  27.045  0.2083  0.0248  0.0152
 4629W        W47546  21.286  14.863  24.719  0.0200  0.3435  0.1008
 4630W        W47547  25.827  13.307  27.206 -0.2691  0.1722  0.0199
 4631W        W47548  21.671  12.752  25.910  0.2421  0.0251 -0.1931
 4632W        W47549  23.817  11.872  24.865  0.0380  0.2072 -0.3712
 4633W        W47550  21.885  15.473  25.071 -0.0526  0.1213  0.0094
 4634W        W47551  21.428  12.572  24.958  0.2257 -0.1216  0.1350
 4635W        W47552  23.721  10.882  25.091 -0.3239  0.0645  0.2944
 4636W        W47553  21.910  11.999  26.742  0.0970  0.1740 -0.3126
 4637W        W47554  22.064  13.819  25.322  0.0845 -0.1191 -0.1540
 4638W        W47555  25.107  14.999  25.678 -0.1050 -0.1899  0.1218
 4639W        W47556  21.075  13.045  24.420  0.3426  0.1108  0.3447
 4640W        W47557  26.038  14.614  26.362  0.0241 -0.0075  0.2828
 4641W        W47558  23.441  17.186  26.297  0.1865  0.1572 -0.0643
 4642W        W47559  24.216  14.189  28.477  0.0719 -0.0395  0.1135
 4643W        W47560  23.005  15.324  26.157 -0.3078 -0.2681  0.0311
 4644W        W47561  23.861  13.556  25.138  0.0798 -0.1634 -0.1100
 4645W        W47562  24.510  10.469  27.008 -0.3352 -0.0631  0.1993
 4646W        W47563  24.007  13.929  25.511  0.1509  0.0324 -0.1811
 4647W        W47564  22.794  12.887  23.896  0.2068  0.0056  0.0471
 4648W        W47565  25.348  13.235  26.906 -0.1188 -0.2081 -0.2560
 4649W        W47566  23.150  13.350  27.676 -0.0520  0.0556  0.2827
 4650W        W47567  23.655  12.464  24.455 -0.0372 -0.0603 -0.0037
 4651W        W47568  22.782  13.065  26.622  0.0321 -0.2006 -0.1396
 4652W        W47569  24.912  14.071  25.724  0.1660  0.2664  0.0978
 4653W        W47570  23.214  13.226  29.755 -0.0431 -0.0250  0.1836
 4654W        W47571  19.342  12.800  27.788  0.1807  0.4250 -0.0606
 4655W        W47572  22.898  13.967  27.167  0.3144 -0.1076 -0.0422
 4656W        W47573  25.625  15.667  28.085 -0.0949 -0.3666 -0.2660
 4657W        W47574  21.211  11.909  29.316 -0.1215  0.2992  0.3691
 4658W        W47575  26.101  14.527  29.831 -0.2672  0.0530 -0.0341
 4659W        W47576  25.074  13.268  29.176 -0.3664  0.2782  0.2428
 4660W        W47577  24.152  15.282  30.631 -0.0506 -0.2272  0.2762
 4661W        W47578  24.847  16.170  30.398 -0.1218  0.5342 -0.1423
 4662W        W47579  23.770  12.743  26.163 -0.0889  0.1201 -0.1395
 4663W        W47580  23.988  12.943  29.983  0.1706  0.2184 -0.1497
 4664W        W47581  22.619  14.499  31.307  0.0832 -0.0185 -0.0310
 4665W        W47582  23.340  11.885  27.796 -0.1876 -0.0582  0.0477
 4666W        W47583  21.399  10.118  28.730  0.1244  0.1603 -0.0169
 4667W        W47584  22.997  13.046  28.213 -0.0799  0.0922  0.3850
 4668W        W47585  23.274  12.367  29.634  0.1394 -0.1134 -0.1952
 4669W        W47586  21.111  14.031  26.868 -0.1055  0.1652 -0.2226
 4670W        W47587  20.941  13.939  29.957  0.0176  0.0027 -0.0710
 4671W        W47588  24.810  14.432  31.003  0.1286  0.1158  0.0392
 4672W        W47589  22.349  11.522  31.566 -0.3039 -0.1574  0.1502
 4673W        W47590  22.665  12.486  28.206  0.1357  0.0584  0.0370
 4674W        W47591  24.229  13.232  28.719  0.0603 -0.0685  0.2378
 4675W        W47592  23.441  12.114  26.954  0.2467  0.3634 -0.1058
 4676W        W47593  20.820  11.583  29.175  0.0907 -0.0130  0.1591
 4677W        W47594  21.359  13.418  27.640 -0.1259 -0.2135 -0.2386
 4678W        W47595  25.171  15.039  29.429 -0.1168  0.2030  0.0667
 4679W        W47596  24.800  12.435  29.988  0.0286 -0.1004  0.1495
 4680W        W47597  24.371  14.413  29.434 -0.1953 -0.0554 -0.1722
 4681W        W47598  23.917  14.679  30.555  0.0812 -0.0391  0.1338
 4682W        W47599  24.583  13.101  31.541 -0.0251  0.1899 -0.0118
 4683W        W47600  21.090  12.131  27.906 -0.2713  0.0313 -0.0341
 4684W        W47601  21.146  12.605  27.688  0.0998  0.1108  0.0538
 4685W        W47602  22.089  14.368  28.306 -0.1215 -0.0076 -0.0145
 4686W        W47603  26.079  14.277  29.382  0.3941 -0.0605  0.1776
 4687W        W47604  25.556  14.219  31.276  0.0268  0.1401  0.0433
 4688W        W47605  23.286  16.519   0.290 -0.0672 -0.0955 -0.0623
 4689W        W47606  21.775  15.289  25.992 -0.0978 -0.2570 -0.0115
 4690W        W47607  22.849  13.622  29.362  0.0339 -0.1431 -0.0224
 4691W        W47608  22.441  15.606  28.027  0.0742  0.0481 -0.1281
 4692W        W47609  23.535  12.591   0.901 -0.0592 -0.1230  0.0098
 4693W        W47610  24.526  12.391  28.887  0.2419 -0.2136  0.0469
 4694W        W47611  22.580  14.253  28.095  0.0310  0.0525  0.1178
 4695W        W47612  21.905  11.737  27.938  0.1669 -0.2603 -0.1801
 4696W        W47613  20.294  11.811  29.612 -0.0057  0.0075 -0.0068
 4697W        W47614  20.413  13.985  27.198 -0.0822  0.1688 -0.0062
 4698W        W47615  24.896  13.972  30.756 -0.0209  0.2462 -0.0338
 4699W        W47616  20.937  14.740  27.293 -0.3031  0.3823 -0.0751
 4700W        W47617  25.402  13.173  27.632  0.0738 -0.0512  0.1989
 4701W        W47618  23.380  10.903  28.262 -0.0503 -0.1323  0.0166
 4702W        W47619  22.136  10.579  28.874 -0.0080 -0.0432 -0.2641
 4703W        W47620  22.111  11.438  28.728  0.4332 -0.4296 -0.2232
 4704W        W47621  21.986  15.508  28.683  0.0700 -0.0033  0.5187
 4705W        W47622  22.928  13.038   1.058 -0.0878 -0.3058  0.0863
 4706W        W47623  24.112  12.732  30.460 -0.2589  0.1100 -0.0667
 4707W        W47624  23.148  10.371  28.246  0.1247  0.1316 -0.0422
 4708W        W47625  23.883  12.642  29.557  0.0218  0.3246 -0.3704
 4709W        W47626  21.853  14.187  29.845 -0.3763  0.4094  0.1169
 4710W        W47627  21.620  12.280  29.215  0.1569 -0.3007 -0.0407
 4711W        W47628  23.914  15.356  26.532  0.0949 -0.0392 -0.0187
 4712W        W47629  22.878  15.784  31.799  0.0937  0.1389 -0.0333
 4713W        W47630  23.744  13.964  28.310 -0.0707 -0.0847 -0.1618
 4714W        W47631  21.676  14.587  28.939  0.2866  0.0291 -0.2354
 4715W        W47632  20.443  12.423  30.451 -0.0345 -0.1952 -0.1742
 4716W        W47633  21.696  13.236  31.845 -0.0970 -0.0285  0.0016
 4717W        W47634  23.627  10.504  28.052 -0.3577 -0.0936 -0.1061
 4718W        W47635  26.066  14.337  28.634 -0.1142 -0.1975 -0.2194
 4719W        W47636  22.041  13.736  31.139  0.1224 -0.3071 -0.0865
 4720W        W47637  26.447  12.606  28.276 -0.0331  0.2012 -0.1080
 4721W        W47638  22.783  11.078  28.013  0.1631 -0.0065 -0.0423
 4722W        W47639  25.859  12.813  29.202 -0.1943  0.0641 -0.0786
 4723W        W47640  26.986  12.813  26.395  0.0027 -0.0219  0.1535
 4724W        W47641  22.414  12.943  28.249 -0.0617  0.0521  0.0360
 4725W        W47642  24.714  12.954  28.194 -0.3550  0.0292  0.0578
 4726W        W47643  23.933  12.815  28.539 -0.1297 -0.4929 -0.0172
 4727W        W47644  21.481  13.970  27.691 -0.3196  0.0861  0.3441
 4728W        W47645  25.152  14.291  29.886  0.0198 -0.0142 -0.4095
 4729W        W47646  22.028  13.607  27.440 -0.0143 -0.4065  0.2600
 4730W        W47647  20.967  13.832  29.346 -0.0391  0.1528 -0.1698
 4731W        W47648  22.981  13.442  30.758  0.2587 -0.2462 -0.0136
 4732W        W47649  21.685  12.896  31.221 -0.1604 -0.0532  0.0924
 4733W        W47650  22.751  13.582  27.949  0.1627  0.0141  0.1866
 4734W        W47651  20.795  14.552  28.518  0.1777 -0.1492  0.0091
 4735W        W47652  21.413  13.085  24.881 -0.1775  0.0556 -0.0218
 4736W        W47653  23.030  11.826  28.445  0.0525  0.4780 -0.0090
 4737W        W47654  21.925  14.235  30.419 -0.1380 -0.1549  0.3566
 4738W        W47655  22.101  12.145  27.768 -0.1671 -0.3187 -0.0463
 4739W        W47656  21.153  12.735  29.989  0.3168  0.0755  0.1954
 4740W        W47657  23.159  12.148  30.973 -0.4462  0.0628 -0.0049
 4741W        W47658  23.138  11.600  27.252  0.0930  0.1163  0.1211
 4742W        W47659  25.776  13.544  29.827  0.2621 -0.0175  0.0449
 4743W        W47660  26.347  12.136  27.638  0.1122  0.0111 -0.0453
 4744W        W47661  22.869  13.134  28.680  0.0175  0.3011 -0.0423
 4745W        W47662  20.956  11.038  31.576 -0.0443 -0.0266  0.0213
 4746W        W47663  20.751  12.521  28.053  0.2211 -0.0106  0.0829
 4747W        W47664  22.088  10.101  29.586  0.0216  0.1364  0.0426
 4748W        W47665  23.160  13.445  30.243  0.0063 -0.1079  0.3463
 4749W        W47666  24.077  12.326   1.281 -0.0497 -0.1046  0.2435
 4750W        W47667  24.054  10.710  27.736 -0.0703 -0.0799 -0.0571
 4751W        W47668  24.928  13.786  27.812  0.2728  0.2411 -0.0065
 4752W        W47669  22.676  11.525  27.430 -0.2108 -0.0461 -0.1578
 4753W        W47670  20.341  13.040  27.306 -0.1394  0.2196 -0.1227
 4754W        W47671  24.608  11.825  30.681  0.1566  0.0540 -0.1856
 4755W        W47672  25.999  16.193  27.127  0.2400  0.1168  0.0321
 4756W        W47673  24.900  16.860  29.774 -0.0227  0.2408  0.1131
 4757W        W47674  22.360  17.465  26.907  0.0625  0.0516  0.0702
 4758W        W47675  21.684  11.813  29.502  0.0053  0.2428  0.0320
 4759W        W47676  20.335  12.509  26.445 -0.0679 -0.0427 -0.0149
 4760W        W47677  19.904  15.146  28.681  0.0312 -0.4379  0.2845
 4761W        W47678  21.504  14.479  30.153 -0.0549  0.0171 -0.0932
 4762W        W47679  21.483  14.187  25.973  0.3503 -0.2247  0.1485
 4763W        W47680  24.963  14.556  31.617 -0.1136 -0.0887 -0.2787
 4764W        W47681  20.798  13.069  29.188 -0.0944  0.0885 -0.0102
 4765W        W47682  23.651  12.823  31.546 -0.1540  0.0737  0.3326
 4766W        W47683  22.545  12.666  30.288 -0.0807  0.0748 -0.2967
 4767W        W47684  23.911  11.818  28.566  0.1423 -0.1540  0.1404
 4768W        W47685  25.252  14.604  27.636 -0.2112 -0.0569 -0.0858
 4769W        W47686  22.800  11.928  26.111 -0.0312  0.0596 -0.0682
 4770W        W47687  23.711  17.631  29.457 -0.5120 -0.0872  0.1227
 4771W        W47688  19.747  15.870  28.131  0.3853 -0.2983  0.3238
 4772W        W47689  20.798  13.994  26.079  0.2122  0.0744 -0.1478
 4773W        W47690  23.929  14.597  29.536  0.2262 -0.1111  0.2653
 4774W        W47691  24.036  13.103  31.296 -0.1514  0.1187 -0.5243
 4775W        W47692  20.311  12.344  29.580 -0.1090  0.2535  0.1639
 4776W        W47693  21.748  12.946  30.540 -0.1760 -0.1940  0.0595
 4777W        W47694  21.403  10.698  26.608 -0.1092  0.0364  0.0880
 4778W        W47695  21.343  15.531  31.153 -0.1439 -0.2659  0.3660
 4779W        W47696  24.275  12.098  27.750  0.0441 -0.0460 -0.1056
 4780W        W47697  24.929  14.397  28.236  0.0911  0.1734  0.0866
 4781W        W47698  22.440  13.502  30.927  0.0902  0.0842  0.0183
 4782W        W47699  24.438  14.029  27.597  0.1725 -0.0063 -0.0864
 4783W        W47700  23.415  11.848  30.005 -0.1787 -0.1384 -0.1781
 4784W        W47701  24.955  12.457  27.223  0.0117 -0.0573  0.1239
 4785W        W47702  22.569  13.586  28.931  0.0339  0.0529  0.0005
 4786W        W47703  22.516  13.325  29.594 -0.0668 -0.1937 -0.0420
 4787W        W47704  23.388  13.327  28.670 -0.2020 -0.4863  0.0110
 4788W        W47705  24.919  13.384  31.037 -0.2007 -0.2081 -0.2823
 4789W        W47706  23.892  15.551  29.183 -0.2282  0.0458  0.0846
 4790W        W47707  21.020  12.980  29.620 -0.1497  0.3076  0.0841
 4791W        W47708  23.733  15.467  31.012 -0.1276  0.0937  0.1327
 4792W        W47709  24.699  13.849  28.653  0.1420  0.2163  0.3582
 4793W        W47710  23.508  12.763  29.922 -0.1224  0.2977 -0.1554
 4794W        W47711  22.593  14.958  26.764 -0.0134  0.2431  0.3441
 4795W        W47712  21.934  13.734  29.671 -0.1953  0.0908  0.2687
 4796W        W47713  20.754  14.746  29.007  0.1036 -0.2288 -0.2148
 4797W        W47714  25.579  11.614  29.239 -0.0216 -0.2644  0.0337
 4798W        W47715  22.688  12.651  28.736  0.1919  0.1785  0.0043
 4799W        W47716  23.038  13.124   0.125 -0.1795 -0.1729  0.0060
 4800W        W47717  25.526  15.067  31.782  0.0475  0.1528  0.0971
 4801W        W47718  24.418  12.364  27.280 -0.0609  0.0353  0.2183
 4802W        W47719  24.324  12.866  29.463  0.1065 -0.2011  0.3313
 4803W        W47720  23.083  13.388  26.061 -0.0522 -0.1412 -0.0992
 4804W        W47721  24.550  12.406  30.727 -0.1568  0.0334 -0.1326
 4805W        W47722  22.200  14.195  30.934 -0.1192  0.0945 -0.1184
 4806W        W47723  20.963  15.808  30.859  0.0640  0.0201 -0.0381
 4807W        W47724  24.379  13.469  31.123  0.0321 -0.2509 -0.1329
 4808W        W47725  22.899  11.973  27.064 -0.0022 -0.1544 -0.2463
 4809W        W47726  23.532  11.500  28.545 -0.0918 -0.1779  0.1258
 4810W        W47727  23.240  12.878  28.851  0.1513  0.4052  0.1431
 4811W        W47728  23.581  14.562  27.235 -0.2807 -0.3988  0.0934
 4812W        W47729  21.593  12.227  27.697 -0.0102  0.0975  0.0463
 4813W        W47730  22.188  11.521  29.241  0.0147  0.2261 -0.1658
 4814W        W47731  22.436  14.034  30.494 -0.0106 -0.1498 -0.3449
 4815W        W47732  21.428  13.930  24.504 -0.0473 -0.1562  0.0327
 4816W        W47733  22.339  12.354  29.937 -0.2415 -0.3499  0.1848
 4817W        W47734  24.069  13.846  26.970  0.1138 -0.1483 -0.0173
 4818W        W47735  22.717   9.880  30.939 -0.1029  0.0750  0.2927
 4819W        W47736  22.787  13.571  29.905 -0.1011  0.0880  0.1823
 4820W        W47737  22.833  12.491  29.939  0.0228 -0.2324 -0.2609
 4821W        W47738  20.608  13.921  27.812  0.0644  0.1008  0.2752
 4822W        W47739  23.152  12.979  30.614 -0.0529 -0.0542 -0.2210
 4823W        W47740  26.709  13.836  26.826  0.1581 -0.0975 -0.1442
 4824W        W47741  21.765  12.502  30.933 -0.3679 -0.0427 -0.2891
 4825W        W47742  22.699   8.881  29.570 -0.1049  0.1068  0.2675
 4826W        W47743  20.596  13.080  28.637 -0.0599 -0.0205 -0.2035
 4827W        W47744  24.038  13.382  30.707 -0.0420 -0.1314  0.0736
 4828W        W47745  24.350  10.982  28.571 -0.1050 -0.0675 -0.0543
 4829W        W47746  25.366  13.469   0.065  0.0723  0.0387 -0.1429
 4830W        W47747  23.483  12.850   0.132  0.0189  0.2881  0.2999
 4831W        W47748  22.048   9.766  30.975  0.3475 -0.2014  0.0280
 4832W        W47749  24.193  12.662  31.011 -0.0113  0.0558 -0.0458
 4833W        W47750  21.156  11.245  27.264  0.1070 -0.3677  0.1678
 4834W        W47751  20.944  12.758  28.417 -0.2152 -0.2631 -0.1050
 4835W        W47752  24.278  14.881  30.349 -0.2912  0.1503  0.2181
 4836W        W47753  23.634  11.432  28.058 -0.1142  0.2340  0.0454
 4837W        W47754  21.911  12.487  27.996  0.2849 -0.0142 -0.1544
 4838W        W47755  20.873  13.264   1.028 -0.2152  0.0699  0.0919
 4839W        W47756  23.939  12.854   1.042  0.0211  0.5275 -0.0019
 4840W        W47757  23.063  11.965  28.957  0.0317 -0.3077 -0.0835
 4841W        W47758  21.129  10.143  29.278 -0.3669  0.0920  0.0958
 4842W        W47759  24.004  12.335  28.552 -0.2696  0.0844 -0.2825
 4843W        W47760  24.076  14.159  30.449 -0.0423 -0.4334 -0.2951
 4844W        W47761  23.025  12.930  30.142 -0.2836 -0.0015 -0.0668
 4845W        W47762  20.570  14.388  31.795  0.0537 -0.0460  0.1139
 4846W        W47763  24.920  12.745  28.782 -0.3037  0.0042  0.1652
 4847W        W47764  23.841  13.752  29.472 -0.1973  0.0978  0.1658
 4848W        W47765  21.857  13.294  30.914  0.2031  0.1065  0.3396
 4849W        W47766  21.601  14.578  28.439 -0.0179  0.1924 -0.1205
 4850W        W47767  21.149  14.517  26.115 -0.1878 -0.1347  0.1815
 4851W        W47768  20.934  15.254  28.130  0.2781  0.2201 -0.0280
 4852W        W47769  23.645  12.283  29.280  0.0212 -0.3624  0.0126
 4853W        W47770  22.556  14.002  27.576  0.3488 -0.3267  0.0761
 4854W        W47771  21.959  13.180  26.867  0.0552 -0.4101  0.1055
 4855W        W47772  20.113  13.273  30.236 -0.4424 -0.1723  0.1733
 4856W        W47773  23.976  12.371  28.069  0.0451  0.0080  0.3529
 4857W        W47774  23.594  12.426  28.349 -0.0542 -0.1138 -0.2309
 4858W        W47775  24.616  13.424  28.154  0.2981  0.0455  0.0401
 4859W        W47776  25.075  13.898   0.197  0.0073 -0.2955 -0.0564
 4860W        W47777  24.854  11.806  27.550 -0.0704 -0.2041 -0.2160
 4861W        W47778  25.582   9.274   0.399 -0.0464  0.2361 -0.2130
 4862W        W47779  22.187  12.855  29.948  0.3612  0.0040 -0.3391
 4863W        W47780  22.572  14.049  29.104  0.3903 -0.1419 -0.3926
 4864W        W47781  21.125  13.647  30.724 -0.0491  0.4433  0.0257
 4865W        W47782  21.810  14.071  31.419 -0.0168 -0.1569 -0.0319
 4866W        W47783  23.046  14.438  30.648  0.1036 -0.1886  0.0464
 4867W        W47784  24.197  13.355  29.777 -0.4463  0.1386 -0.0541
 4868W        W47785  24.456   9.290  27.800  0.1972 -0.2868  0.2334
 4869W        W47786  21.012  14.425  30.302 -0.0704  0.2071 -0.1359
 4870W        W47787  25.126  13.324  28.049  0.1877 -0.1329  0.0551
 4871W        W47788  22.677  13.062  27.827  0.0566 -0.0721  0.1242
 4872W        W47789  25.632  11.693  27.708  0.0635  0.0413 -0.0603
 4873W        W47790  20.200  11.982  28.702 -0.2267 -0.1292 -0.2194
 4874W        W47791  24.844  13.312  27.000 -0.0489  0.3077 -0.0677
 4875W        W47792  23.839  14.549  28.249 -0.1722  0.0612 -0.0067
 4876W        W47793  21.619  15.245  27.425 -0.2290 -0.1238  0.2166
 4877W        W47794  21.715  13.041  30.079  0.0676 -0.0223 -0.1732
 4878W        W47795  23.875  12.368  30.683  0.1875 -0.4666  0.0775
 4879W        W47796  24.450  12.861  28.926 -0.1362 -0.0966 -0.2470
 4880W        W47797  21.619  10.711  31.948 -0.2186 -0.2692  0.1312
 4881W        W47798  24.676  14.184  31.715 -0.1157 -0.1227 -0.1121
 4882W        W47799  22.829  11.160   0.400 -0.0692 -0.1590  0.2827
 4883W        W47800  23.286  10.806  29.380  0.2994  0.0352  0.1332
 4884W        W47801  24.904  15.051  31.650 -0.0374  0.1518 -0.3241
 4885W        W47802  25.068  14.164  27.307  0.2083 -0.2026  0.1001
 4886W        W47803  23.998  11.774  28.043  0.0407  0.0296  0.2903
 4887W        W47804  22.931  12.971  27.424 -0.3516 -0.0585  0.1402
 4888W        W47805  24.162  12.591  25.941 -0.0607 -0.1709 -0.0870
 4889W        W47806  22.502  10.742  29.804 -0.0163  0.0329  0.1340
 4890W        W47807  24.774  14.995   0.278 -0.2941 -0.0865  0.3535
 4891W        W47808  22.050  12.190  28.950 -0.0393 -0.0029  0.2912
 4892W        W47809  22.998  12.534  30.601  0.0612 -0.1765 -0.0819
 4893W        W47810  21.368  13.730  29.667 -0.1982 -0.2149  0.2287
 4894W        W47811  25.068  12.224  31.003 -0.3074 -0.0526  0.4296
 4895W        W47812  24.327  11.793  27.070 -0.0012 -0.0040  0.3475
 4896W        W47813  21.030  11.631  27.932 -0.2076 -0.1695 -0.1589
 4897W        W47814  23.228  15.438  30.354 -0.4596  0.0590  0.0284
 4898W        W47815  21.638  13.893  25.601  0.0667  0.0173 -0.0570
 4899W        W47816  21.831  12.825  28.383  0.0727 -0.0666 -0.3070
 4900W        W47817  24.834  14.141  29.468 -0.1449  0.0568 -0.2756
 4901W        W47818  25.736  13.863  31.749 -0.2758 -0.2225 -0.0510
 4902W        W47819  24.813  12.015  26.932 -0.2139  0.1696 -0.0181
 4903W        W47820  22.783  11.138  30.039  0.0275  0.1188 -0.1020
 4904W        W47821  21.112  12.493  27.190 -0.0547  0.2830  0.2360
 4905W        W47822  23.837  11.134  28.509 -0.4622 -0.0450  0.2626
 4906W        W47823  23.798  15.669  28.640 -0.1011  0.1979  0.2967
 4907W        W47824  21.306  13.261  29.869  0.2335 -0.0010  0.1687
 4908W        W47825  25.383  14.788  29.844  0.3206  0.1228  0.0165
 4909W        W47826  25.222  12.354  29.637 -0.2181 -0.0096  0.1483
 4910W        W47827  24.571  13.294  29.171  0.0159  0.2362  0.1027
 4911W        W47828  24.466  13.763  29.957  0.3231 -0.2603 -0.1168
 4912W        W47829  23.395  12.571  30.895 -0.0429 -0.2581 -0.0890
 4913W        W47830  22.674  15.536  28.958 -0.2145 -0.0421  0.1814
 4914W        W47831  22.294  10.888  27.813  0.0376 -0.2521  0.0950
 4915W        W47832  25.071  15.241  30.375 -0.2572 -0.2868 -0.1903
 4916W        W47833  23.501  12.953  28.377 -0.0878 -0.0755 -0.2393
 4917W        W47834  24.274  13.625  27.811 -0.0877 -0.1561  0.1379
 4918W        W47835  20.990  11.451  30.675  0.0240  0.0055 -0.4041
 4919W        W47836  22.163  13.055  31.608 -0.0512  0.0483 -0.0006
 4920W        W47837  23.342  13.714  29.434  0.3233 -0.0935  0.2369
 4921W        W47838  20.949  12.274  30.113 -0.1540  0.2246  0.1199
 4922W        W47839  22.615  14.781  27.207  0.0552  0.0852 -0.0057
 4923W        W47840  22.937  12.799  29.591  0.2265 -0.4960 -0.0050
 4924W        W47841  22.918  12.012  29.860 -0.1221 -0.2262 -0.1572
 4925W        W47842  23.536  14.317  27.952  0.0784 -0.1454 -0.0778
 4926W        W47843  22.017  14.023  27.760  0.0762  0.0859  0.2167
 4927W        W47844  21.644  13.634  29.083  0.1620  0.0124 -0.2806
 4928W        W47845  24.462  16.533  30.492 -0.0878  0.3669 -0.1978
 4929W        W47846  23.156  12.580  28.233 -0.0981 -0.0046  0.1787
 4930W        W47847  19.429  14.154  28.394 -0.1436  0.0152  0.1112
 4931W        W47848  21.850  14.802  26.051  0.0132 -0.1056 -0.1174
 4932W        W47849  23.344  14.294  26.208  0.1450 -0.0496 -0.0884
 4933W        W47850  24.158  15.122  29.418  0.1283 -0.1209  0.0642
 4934W        W47851  25.442  15.525  29.291 -0.0540 -0.1690 -0.1720
 4935W        W47852  24.147  11.803  29.439  0.0580 -0.3762 -0.3118
 4936W        W47853  25.043  14.160  28.943  0.1343  0.3796  0.0689
 4937W        W47854  25.134  13.213  25.227  0.1619  0.1346  0.3744
 4938W        W47855  24.889  12.931   0.165  0.1227  0.0572 -0.0281
 4939W        W47856  21.398  11.612  29.926  0.0818 -0.0389  0.3084
 4940W        W47857  26.371  13.385  27.175  0.0911  0.0611 -0.1719
 4941W        W47858  22.269  12.957  29.334 -0.5125 -0.2565  0.2756
 4942W        W47859  25.878  11.643   0.039 -0.1796 -0.0432  0.1627
 4943W        W47860  20.789  15.591  30.427 -0.0258 -0.2183 -0.1688
 4944W        W47861  22.985  15.549  28.559  0.1586  0.1603  0.0280
 4945W        W47862  20.788  13.082  23.977 -0.1186 -0.0948 -0.1874
 4946W        W47863  21.401  13.189  26.669 -0.2369  0.0782  0.1671
 4947W        W47864  23.647  10.662  29.107  0.4403 -0.2979  0.1668
 4948W        W47865  24.063  14.119  27.972  0.0243  0.1507 -0.3786
 4949W        W47866  25.280  12.379  30.137  0.0059  0.0911  0.1111
 4950W        W47867  22.785  17.254  26.880  0.4126  0.1091 -0.2304
 4951W        W47868  23.792  13.431  28.528  0.1636 -0.0264  0.0767
 4952W        W47869  24.441  14.485  28.087 -0.4476  0.0387  0.1243
 4953W        W47870  20.538  10.917  27.786 -0.0827 -0.2053  0.1745
 4954W        W47871  23.938  13.547  27.332  0.0485  0.2837 -0.0796
 4955W        W47872  23.141  13.900  28.018 -0.2248  0.0474 -0.3233
 4956W        W47873  22.066  10.169  30.612 -0.2265  0.0233 -0.1576
 4957W        W47874  23.552  11.935  28.247 -0.3756 -0.0213  0.1914
 4958W        W47875  23.220  12.652  26.259  0.0611  0.0069 -0.1450
 4959W        W47876  22.482  13.916  29.603  0.2743  0.1417  0.3968
 4960W        W47877  22.146  13.339  30.470 -0.1807  0.0005 -0.0155
 4961W        W47878  20.775  12.274  26.298 -0.1067 -0.3014 -0.1595
 4962W        W47879  24.438  12.520  31.901  0.1349 -0.2610 -0.1134
 4963W        W47880  22.265  12.707  27.720 -0.1090  0.1066 -0.2445
 4964W        W47881  26.413  17.071  31.817  0.1774  0.1383  0.0944
 4965W        W47882  19.797  10.478  30.442  0.0513 -0.1750  0.1862
 4966W        W47883  25.097  12.428  29.141 -0.1708 -0.2831 -0.2460
 4967W        W47884  20.667  12.099  29.263  0.3066  0.1186  0.3433
 4968W        W47885  23.714  13.134  29.586  0.1391  0.0191  0.1016
 4969W        W47886  28.302  16.065  29.465  0.2101 -0.1970 -0.1858
 4970W        W47887  21.049  10.688  28.839 -0.1377  0.0521 -0.1897
 4971W        W47888  23.476  14.309  28.544  0.3354  0.4754 -0.1444
 4972W        W47889  24.728  13.310  28.603  0.1110 -0.1997 -0.0874
 4973W        W47890  22.378  15.539  26.874 -0.0539  0.0183 -0.1360
 4974W        W47891  23.067  11.384  28.759 -0.2585 -0.1922 -0.0131
 4975W        W47892  25.281  14.347  30.830  0.0045 -0.1053  0.1293
 4976W        W47893  19.988  12.616  30.397  0.1694 -0.1109 -0.0151
 4977W        W47894  25.611  16.033  28.471  0.0385  0.0480 -0.0756
 4978W        W47895  23.447  13.628  27.304  0.1105  0.5079  0.0709
 4979W        W47896  23.365  12.358  30.183  0.0216 -0.0487  0.0770
 4980W        W47897  20.584   9.822  29.228 -0.3231 -0.1029  0.1834
 4981W        W47898  22.637  14.334  26.983 -0.0513  0.0738  0.1772
 4982W        W47899  25.240  14.648  29.163  0.0580  0.1372 -0.2159
 4983W        W47900  22.777  14.092  30.061 -0.0434 -0.3777 -0.2130
 4984W        W47901  25.403  16.822  27.615  0.6625  0.0645  0.2666
 4985W        W47902  24.721  11.698  26.478  0.0468  0.0843 -0.2138
 4986W        W47903  21.479  15.129  31.449 -0.0800 -0.1493  0.0276
 4987W        W47904  20.607  14.876  30.893 -0.0603 -0.3733 -0.1871
 4988W        W47905  20.229  13.268  24.191  0.1052 -0.1164  0.4085
 4989W        W47906  23.586  13.529  29.883 -0.2727 -0.3141 -0.2519
 4990W        W47907  21.752  15.034  28.236 -0.1262 -0.2959  0.0439
 4991W        W47908  23.062  13.667  28.878  0.2083 -0.0742 -0.2142
 4992W        W47909  24.725  15.252  31.126  0.3136  0.0539  0.0660
 4993W        W47910  24.201  13.690  28.411  0.0424  0.0371  0.0332
 4994W        W47911  26.388  15.225  29.064 -0.3646 -0.1077 -0.1657
 4995W        W47912  22.662  12.150  30.257 -0.1826  0.2911  0.2429
 4996W        W47913  23.965  14.515  27.734 -0.1442 -0.0698 -0.0065
 4997W        W47914  23.168  11.331  28.286 -0.1604 -0.0295 -0.0374
 4998W        W47915  21.745  13.280  29.615  0.1918  0.1130 -0.1418
 4999W        W47916  22.263  12.669  26.041  0.0509  0.1112 -0.1764
 5000W        W47917  21.393  12.581  28.142 -0.0170 -0.1964 -0.1198
 5001W        W47918  20.334  12.270  27.857  0.1738 -0.1988 -0.0543
 5002W        W47919  22.382  13.065  28.841  0.2357  0.0522 -0.2254
 5003W        W47920  20.104  13.776  29.754  0.2600  0.1924 -0.1417
 5004W        W47921  20.784  13.970  28.310  0.3335 -0.2903  0.1583
 5005W        W47922  20.790  11.215  26.959  0.0146  0.0433  0.2217
 5006W        W47923  25.294  15.614  27.465  0.0359 -0.0745 -0.1179
 5007W        W47924  22.288  10.391  28.127  0.0960  0.0430  0.0216
 5008W        W47925  22.429  11.892  29.740  0.0680 -0.1229 -0.0249
 5009W        W47926  24.078  13.208  29.228 -0.0080  0.0256  0.2717
 5010W        W47927  24.757  13.212  29.639  0.0551  0.0629  0.1500
 5011W        W47928  21.675  11.341  27.234 -0.0619  0.1444  0.2012
 5012W        W47929  24.220  15.027   0.282 -0.0913  0.2371 -0.0379
 5013W        W47930  21.924  12.895  26.375  0.1400  0.1724 -0.0315
 5014W        W47931  22.567  12.657   0.527  0.2001  0.1084  0.0514
 5015W        W47932  23.646  11.638   1.150 -0.0454  0.1584  0.1385
 5016W        W47933  20.592  13.024  28.149  0.2292 -0.0908 -0.0313
 5017W        W47934  23.360  13.029  31.154 -0.0522 -0.2764  0.2563
 5018W        W47935  24.385  15.412  29.813 -0.0598  0.2268  0.1550
 5019W        W47936  24.819  15.056  27.080 -0.0083  0.2636 -0.0460
 5020W        W47937  23.727  15.735  30.519 -0.2436  0.0659  0.0076
 5021W        W47938  21.252  14.162  30.741 -0.0680  0.2760 -0.0918
 5022W        W47939  20.562  12.625  29.268 -0.2500  0.1449  0.2305
 5023W        W47940  25.572  15.146  28.370  0.3918  0.0430  0.1416
 5024W        W47941  20.174  14.390  30.432 -0.2835 -0.0358 -0.1222
 5025W        W47942  23.631  14.198  29.649 -0.0515 -0.0196  0.1772
 5026W        W47943  24.640  10.984  30.842  0.1441  0.2606 -0.0091
 5027W        W47944  24.014  12.061  29.000 -0.3391  0.0647  0.1280
 5028W        W47945  20.578  10.752  29.558 -0.0096 -0.0100 -0.3536
 5029W        W47946  24.140  14.461  30.126 -0.0295  0.1070  0.1865
 5030W        W47947  24.631  14.392  28.672  0.2802 -0.0397  0.1118
 5031W        W47948  21.810  10.199  29.165 -0.1228 -0.1520 -0.0853
 5032W        W47949  26.040  11.354  26.773  0.2034  0.0311 -0.2407
 5033W        W47950  24.279  13.682  28.992 -0.3623  0.0998 -0.0642
 5034W        W47951  20.316  13.033  29.132  0.1294  0.0030  0.2138
 5035W        W47952  24.355  14.536  27.468 -0.2041  0.0506  0.1547
 5036W        W47953  21.133  13.708  31.251  0.0802 -0.0744  0.1525
 5037W        W47954  23.694  15.288  29.537 -0.1359  0.0948  0.1101
 5038W        W47955  25.265  15.461  30.921  0.0529 -0.3879  0.1517
 5039W        W47956  22.199  12.223  28.320 -0.0564  0.1566 -0.2953
 5040W        W47957  22.051  14.852  29.186  0.0810 -0.2967  0.0041
 5041W        W47958  25.692  16.072  31.579  0.0357  0.2224 -0.2073
 5042W        W47959  25.332  15.918  31.194  0.2139  0.2083 -0.1740
 5043W        W47960  22.630  14.303  31.777 -0.0063  0.0425  0.0796
 5044W        W47961  25.397  14.696  28.120 -0.3827 -0.3660 -0.2065
 5045W        W47962  20.294  11.864  28.166 -0.3025  0.0043 -0.4614
 5046W        W47963  21.086  12.290  28.446  0.0184 -0.3936  0.0531
 5047W        W47964  21.684  13.582  27.964  0.0412 -0.1751 -0.1608
 5048W        W47965  25.190  10.880  27.547  0.4473  0.1606  0.1986
 5049W        W47966  22.886  11.619  27.974  0.0448 -0.0375 -0.0045
 5050W        W47967  23.230  10.154  29.181 -0.0225  0.0721  0.1020
 5051W        W47968  22.982  14.715  31.063  0.2553  0.0673  0.0269
 5052W        W47969  24.864  14.770  30.100  0.1920 -0.2109  0.1558
 5053W        W47970  26.239  13.558   0.448  0.1727  0.1387  0.0041
 5054W        W47971  21.723  12.576  30.108 -0.2864  0.0425  0.1871
 5055W        W47972  21.342  12.742  30.774 -0.0127 -0.3040  0.3582
 5056W        W47973  23.121  12.829  31.558  0.0648  0.1655 -0.1470
 5057W        W47974  23.423  13.351   0.988  0.3138 -0.1137 -0.0646
 5058W        W47975  22.527  15.773  31.327  0.1271 -0.1340  0.1296
 5059W        W47976  22.317  13.226   0.599 -0.0299  0.1761  0.1672
 5060W        W47977  23.599  12.386   0.325  0.0496 -0.0504 -0.4359
 5061W        W47978  25.848  13.239   1.885 -0.2483  0.1881 -0.0162
 5062W        W47979  22.336  13.910  31.913 -0.1975 -0.1602 -0.1827
 5063W        W47980  20.305  15.348  31.879  0.1411 -0.1650 -0.1294
 5064W        W47981  23.911  12.462  31.912 -0.2184 -0.0561  0.0412
 5065W        W47982  24.521  14.484  30.554  0.1773 -0.2245  0.0088
 5066W        W47983  19.883  14.246   0.436 -0.2172  0.0315 -0.1855
 5067W        W47984  23.634  12.175   1.466 -0.2167  0.2259 -0.0861
 5068W        W47985  23.407  13.824  28.582 -0.1638  0.2975 -0.0371
 5069W        W47986  22.309  14.009  31.458  0.0238 -0.1719  0.5647
 5070W        W47987  24.193  14.164  31.939 -0.2809 -0.1105  0.1488
 5071W        W47988  21.456  10.653  29.311 -0.3249 -0.3016 -0.3290
 5072W        W47989  22.721  12.025  30.801  0.1385 -0.1570 -0.2135
 5073W        W47990  23.428  12.212  31.887  0.1025  0.0237  0.2278
 5074W        W47991  20.424  15.933  31.195 -0.1136  0.2155  0.1073
 5075W        W47992  25.867  12.039   0.405  0.2575  0.0645  0.1230
 5076W        W47993  24.591  13.025   0.683  0.1877  0.1774  0.2233
 5077W        W47994  24.306  13.629   0.806  0.0542  0.0789  0.1231
 5078W        W47995  22.101  12.034  31.501 -0.1073 -0.1537 -0.3071
 5079W        W47996  22.869  12.359  31.672  0.0460  0.2721  0.0432
 5080W        W47997  22.954  15.038  30.664 -0.3133  0.2505  0.0207
 5081W        W47998  22.872  13.923   0.246  0.1364  0.3616 -0.3045
 5082W        W47999  24.897  13.133  30.575 -0.0857  0.1284  0.0846
 5083W        W48000  22.132  14.531  31.273  0.1088 -0.3066  0.3970
 5084W        W48001  23.623  13.188  30.267  0.0385 -0.1868 -0.0368
 5085W        W48002  25.665  14.911   1.578 -0.3927 -0.1012  0.0982
 5086W        W48003  23.933  11.194   0.298  0.0231  0.1789  0.1641
 5087W        W48004  21.250   9.956   0.786 -0.4352 -0.1718  0.0985
 5088W        W48005  19.149  13.628  31.385  0.0396  0.0582 -0.1714
 5089W        W48006  22.085  13.347  29.976 -0.4027 -0.0945 -0.1579
 5090W        W48007  23.772  12.913  30.872  0.2462 -0.2810 -0.1127
 5091W        W48008  25.406  14.284   0.276 -0.2628  0.0454  0.0181
 5092W        W48009  24.809  12.142  31.660  0.0855 -0.3717 -0.0711
 5093W        W48010  25.323  11.497   1.035  0.2058  0.2019  0.3201
 5094W        W48011  24.083  12.275   0.520  0.3547  0.1293  0.0864
 5095W        W48012  22.151  13.270   0.081  0.1750  0.0454  0.0692
 5096W        W48013  22.637  13.058  30.566  0.2851 -0.3633  0.1997
 5097W        W48014  20.248  13.703  30.480 -0.3243  0.2240 -0.0984
 5098W        W48015  24.199  12.730   0.401 -0.3256  0.0514  0.1845
 5099W        W48016  25.671  12.539  31.650  0.0253  0.1827 -0.0154
 5100W        W48017  20.916  13.231  31.139  0.2470  0.1757 -0.1859
 5101W        W48018  25.275  13.695  31.582  0.0482  0.1470 -0.0031
 5102W        W48019  22.047  14.647  30.810  0.0944  0.2598 -0.1944
 5103W        W48020  26.255  14.545   0.124  0.5834  0.1881  0.0815
 5104W        W48021  22.839  10.963   0.921  0.2029  0.2660  0.0557
 5105W        W48022  22.095  12.440  30.374 -0.0269  0.0085  0.1326
 5106W        W48023  23.933  13.602  31.241  0.1523 -0.0416 -0.0348
 5107W        W48024  23.224  12.892   0.601 -0.2029  0.1941 -0.2981
 5108W        W48025  24.851  13.561   0.566 -0.2618  0.2044  0.3023
 5109W        W48026  23.647  14.612  30.052  0.1899 -0.2010  0.1147
 5110W        W48027  22.351  16.457  30.723 -0.0450 -0.1362 -0.2928
 5111W        W48028  22.312  13.521  31.519  0.1560 -0.3158 -0.1171
 5112W        W48029  23.775  13.711   0.426 -0.1548  0.1675  0.4017
 5113W        W48030  21.664  11.476   0.240 -0.0718  0.3578  0.0274
 5114W        W48031  20.645  13.604  30.854  0.0261 -0.0891  0.2363
 5115W        W48032  22.115  12.613  31.377  0.0217 -0.1698 -0.0330
 5116W        W48033  24.176  11.629   0.050  0.2951 -0.3815  0.1975
 5117W        W48034  23.406  16.892  31.616  0.3961 -0.0331 -0.0359
 5118W        W48035  26.705  13.182   0.569  0.0609 -0.0416  0.0316
 5119W        W48036  26.511  14.078  31.262  0.0733 -0.2316  0.2322
 5120W        W48037  23.417  16.804  18.544  0.0739 -0.2555  0.0883
 5121W        W48038  23.019  17.337  17.968  0.0763  0.0124  0.0162
 5122W        W48039  23.556  14.003  17.618  0.0901 -0.3192  0.0206
 5123W        W48040  24.883  16.864  16.313  0.2763 -0.3473  0.1276
 5124W        W48041  22.929  14.079  16.727 -0.0193  0.0831 -0.2785
 5125W        W48042  26.196  18.216  18.440 -0.1057 -0.1618  0.0219
 5126W        W48043  22.833  13.446  18.089 -0.2478  0.0888  0.0414
 5127W        W48044  27.103  18.655  21.550  0.2232  0.0550 -0.0613
 5128W        W48045  24.845  16.861  20.869 -0.0080  0.1898 -0.2304
 5129W        W48046  23.325  15.836  16.433  0.1000  0.1968 -0.2139
 5130W        W48047  24.011  14.933  19.361  0.2693  0.1001  0.0446
 5131W        W48048  24.385  17.645  17.665 -0.2327 -0.1301  0.3458
 5132W        W48049  23.381  13.888  16.253  0.0096  0.0283  0.0376
 5133W        W48050  21.129  13.341  19.412 -0.0046 -0.2996 -0.0092
 5134W        W48051  24.817  18.253  19.256 -0.1804 -0.0886 -0.2497
 5135W        W48052  24.931  15.981  17.203 -0.2447  0.1202 -0.1949
 5136W        W48053  23.547  15.174  17.952 -0.3000  0.6994  0.1909
 5137W        W48054  23.609  16.725  17.979 -0.1538  0.1047 -0.0644
 5138W        W48055  25.117  18.851  18.664  0.3795  0.1377 -0.2367
 5139W        W48056  24.501  12.785  19.391  0.2727  0.0019 -0.1145
 5140W        W48057  24.980  14.775  18.916 -0.3436 -0.2869 -0.1023
 5141W        W48058  24.124  17.877  18.586  0.1242  0.1420 -0.0176
 5142W        W48059  21.932  16.395  15.046 -0.0329 -0.0107  0.1833
 5143W        W48060  22.437  15.112  16.522  0.1313 -0.1888 -0.2418
 5144W        W48061  24.054  15.568  19.046  0.0964 -0.0372  0.2236
 5145W        W48062  24.231  14.860  18.242  0.0848  0.1314 -0.0114
 5146W        W48063  25.344  17.187  19.552 -0.1551  0.1910 -0.0558
 5147W        W48064  22.853  17.640  18.356  0.1774  0.0408  0.0669
 5148W        W48065  23.714  18.669  19.693 -0.2735 -0.1993 -0.1430
 5149W        W48066  25.317  16.617  22.936  0.2201 -0.1474 -0.0847
 5150W        W48067  22.455  15.708  15.656 -0.1299  0.1737  0.0408
 5151W        W48068  22.189  17.649  16.968  0.0902  0.0336  0.1258
 5152W        W48069  22.494  16.473  16.775  0.3254  0.1141 -0.1414
 5153W        W48070  26.218  16.398  19.022  0.0582 -0.1202  0.2256
 5154W        W48071  26.160  16.954  19.340  0.0006  0.3703 -0.3289
 5155W        W48072  22.902  18.626  16.653  0.3859  0.1941  0.2385
 5156W        W48073  22.644  17.866  15.963  0.1077  0.2720 -0.1999
 5157W        W48074  26.519  20.220  18.942  0.0269  0.0685  0.2060
 5158W        W48075  24.837  17.893  20.278 -0.2370 -0.0223 -0.1368
 5159W        W48076  23.911  16.669  18.778  0.0238  0.0716 -0.0449
 5160W        W48077  24.546  16.226  17.733 -0.1601  0.0898  0.0056
 5161W        W48078  23.311  18.445  16.784  0.1615 -0.3976  0.0539
 5162W        W48079  24.926  15.567  20.115 -0.0351 -0.1813  0.1022
 5163W        W48080  24.653  17.074  19.004 -0.1750 -0.0004  0.0750
 5164W        W48081  21.310  15.483  17.065 -0.1106  0.4448  0.0066
 5165W        W48082  27.395  13.038  19.451  0.0660 -0.2194 -0.0481
 5166W        W48083  22.246  15.601  14.628 -0.0556 -0.0099  0.0355
 5167W        W48084  24.448  16.919  17.238  0.2662  0.0279 -0.2670
 5168W        W48085  23.905  14.075  15.822  0.0385  0.1698  0.1011
 5169W        W48086  25.200  14.274  16.128  0.1149 -0.0804  0.1447
 5170W        W48087  23.350  15.079  17.074  0.0025  0.3372  0.1611
 5171W        W48088  21.942  20.412  16.692  0.0270  0.1146 -0.2778
 5172W        W48089  22.993  15.101  16.671  0.2152 -0.0874 -0.1697
 5173W        W48090  25.986  16.062  18.646 -0.0943 -0.1079  0.1119
 5174W        W48091  24.159  13.469  20.141  0.2285 -0.0941  0.2055
 5175W        W48092  25.386  17.116  20.635 -0.2469 -0.3919  0.3613
 5176W        W48093  21.828  17.477  17.778 -0.0124 -0.0879 -0.0543
 5177W        W48094  25.002  13.040  18.259 -0.1640 -0.1213  0.4242
 5178W        W48095  25.104  19.087  18.177 -0.3558  0.0865  0.0016
 5179W        W48096  25.501  18.121  17.399  0.0932  0.2352  0.1811
 5180W        W48097  22.843  18.156  18.414 -0.0976 -0.1992  0.1449
 5181W        W48098  24.860  15.019  19.792 -0.0073 -0.0103  0.1214
 5182W        W48099  23.624  15.219  20.605 -0.3738 -0.1033 -0.1301
 5183W        W48100  22.808  15.552  16.426 -0.1755  0.2733 -0.0304
 5184W        W48101  24.113  12.189  16.655  0.2403  0.3639  0.0660
 5185W        W48102  27.369  16.968  18.568 -0.1673  0.1327  0.1235
 5186W        W48103  23.270  18.030  19.240 -0.1896 -0.1999  0.0931
 5187W        W48104  25.885  14.366  16.358 -0.0048 -0.0256 -0.0650
 5188W        W48105  23.446  17.684  17.691 -0.0448 -0.1033 -0.3703
 5189W        W48106  24.194  19.539  18.580  0.1215 -0.0803  0.0316
 5190W        W48107  23.546  17.494  16.555  0.3279  0.2177 -0.3689
 5191W        W48108  25.149  13.302  21.715 -0.0006 -0.1971 -0.1824
 5192W        W48109  26.732  15.724  18.866 -0.0437  0.1245 -0.1401
 5193W        W48110  22.446  15.349  16.042  0.0064 -0.1726 -0.1489
 5194W        W48111  21.691  16.811  16.652 -0.3730 -0.1484 -0.0860
 5195W        W48112  27.978  21.345  21.884  0.1554 -0.1921 -0.2472
 5196W        W48113  24.734  16.550  17.349 -0.2853 -0.0454  0.1233
 5197W        W48114  23.087  15.139  19.046  0.2241  0.0048  0.5555
 5198W        W48115  24.948  13.933  18.822  0.3011  0.1105  0.1177
 5199W        W48116  23.424  18.467  20.156 -0.0790  0.4103 -0.0401
 5200W        W48117  20.631  16.912  15.156 -0.0657 -0.0647  0.0399
 5201W        W48118  23.456  16.835  17.091  0.2850 -0.0838 -0.1658
 5202W        W48119  22.084  15.664  14.123  0.1821 -0.3990 -0.2696
 5203W        W48120  22.660  17.661  16.831 -0.1531  0.1026 -0.1976
 5204W        W48121  23.215  20.035  19.240  0.0773 -0.1890  0.2773
 5205W        W48122  24.022  13.515  17.447  0.0589 -0.2194 -0.0005
 5206W        W48123  22.461  15.634  16.950 -0.0675  0.2664 -0.3622
 5207W        W48124  26.395  13.925  17.495  0.0706 -0.1672  0.0194
 5208W        W48125  22.703  15.930  18.925 -0.1828  0.1160 -0.0972
 5209W        W48126  25.840  18.731  20.005  0.2532 -0.2971 -0.1537
 5210W        W48127  26.501  15.698  16.288 -0.2778  0.3132 -0.2871
 5211W        W48128  22.463  16.950  15.497  0.1722 -0.0652 -0.1374
 5212W        W48129  23.782  14.936  18.480 -0.5281  0.0360 -0.0196
 5213W        W48130  21.911  14.569  15.217  0.6265  0.3383  0.2215
 5214W        W48131  24.920  13.514  18.525  0.1087 -0.1899  0.1467
 5215W        W48132  22.052  15.893  14.975 -0.0272 -0.1171  0.1399
 5216W        W48133  24.814  16.283  16.656  0.2773  0.1293 -0.1132
 5217W        W48134  22.954  15.632  15.919 -0.2265 -0.1998  0.2231
 5218W        W48135  25.428  14.993  17.781  0.1804 -0.0816  0.2852
 5219W        W48136  23.288  16.015  15.878 -0.0291  0.0601  0.0933
 5220W        W48137  22.832  15.009  16.243  0.1564 -0.1609 -0.2259
 5221W        W48138  26.859  13.781  18.260 -0.0712  0.2342 -0.0685
 5222W        W48139  23.548  16.106  17.428  0.0580 -0.0682  0.2624
 5223W        W48140  27.460  17.747  19.428  0.1641  0.1926 -0.0904
 5224W        W48141  23.008  18.665  20.073  0.2032 -0.0714 -0.1281
 5225W        W48142  24.437  14.148  18.247 -0.0523 -0.1391  0.1249
 5226W        W48143  21.730  16.457  16.013  0.0079 -0.1215  0.0087
 5227W        W48144  22.543  18.355  16.040 -0.0182  0.2113 -0.1808
 5228W        W48145  24.291  18.166  16.827 -0.1343  0.3479  0.5130
 5229W        W48146  23.444  15.825  18.222 -0.1953  0.0398  0.0840
 5230W        W48147  24.569  20.005  19.783 -0.1321 -0.1565 -0.0519
 5231W        W48148  23.820  17.319  16.099  0.2899  0.0963  0.1003
 5232W        W48149  24.381  17.118  21.009  0.1450 -0.2366  0.1149
 5233W        W48150  25.052  15.543  19.637  0.0714 -0.0644 -0.2315
 5234W        W48151  24.667  15.727  21.626 -0.1091 -0.0131 -0.1695
 5235W        W48152  25.503  16.614  17.674  0.0272  0.0237  0.0117
 5236W        W48153  23.264  16.818  17.619 -0.2302 -0.1152  0.1228
 5237W        W48154  25.807  17.509  18.193 -0.1701 -0.0306 -0.0537
 5238W        W48155  22.978  16.955  17.146  0.2204  0.0229  0.0053
 5239W        W48156  21.220  13.862  16.217  0.2827  0.2821 -0.0900
 5240W        W48157  23.643  19.687  18.628 -0.4741 -0.2863  0.0596
 5241W        W48158  25.187  15.637  21.486  0.0560  0.0609  0.0234
 5242W        W48159  23.884  16.442  20.135  0.1363  0.2106  0.1082
 5243W        W48160  25.232  15.541  22.613  0.0924 -0.1418 -0.0198
 5244W        W48161  21.606  14.033  15.860 -0.3660  0.4672  0.6771
 5245W        W48162  22.692  15.449  19.091  0.3117  0.0102 -0.0638
 5246W        W48163  24.276  14.239  17.269 -0.0697 -0.0889 -0.1739
 5247W        W48164  23.914  12.597  17.415 -0.0998 -0.3586 -0.2048
 5248W        W48165  23.314  16.221  19.524 -0.2131 -0.0290 -0.0066
 5249W        W48166  23.164  18.878  17.013 -0.1240 -0.2210  0.1320
 5250W        W48167  23.981  16.983  17.801 -0.0395  0.1255  0.3061
 5251W        W48168  21.508  15.511  15.104 -0.2153 -0.0274  0.0180
 5252W        W48169  23.562  16.730  19.819 -0.6367  0.1698 -0.2718
 5253W        W48170  24.987  17.145  18.014  0.3877 -0.1701  0.0134
 5254W        W48171  24.485  17.526  18.576 -0.3311 -0.1532 -0.1113
 5255W        W48172  23.764  15.409  18.378  0.0473 -0.1308 -0.4121
 5256W        W48173  23.805  17.268  16.900 -0.2946 -0.1764  0.0684
 5257W        W48174  23.527  17.185  17.907  0.0583 -0.1163  0.2982
 5258W        W48175  26.752  17.566  19.513  0.1561 -0.1333 -0.0305
 5259W        W48176  24.140  18.820  17.695 -0.1857 -0.1994 -0.0247
 5260W        W48177  24.125  14.072  19.605 -0.2641  0.0321 -0.2437
 5261W        W48178  23.238  13.755  16.856 -0.1106  0.0638 -0.1375
 5262W        W48179  22.904  15.345  17.144  0.1675  0.4536  0.1141
 5263W        W48180  20.905  17.211  17.590 -0.0062  0.3313 -0.0032
 5264W        W48181  26.404  16.186  18.042  0.2648  0.1321 -0.0361
 5265W        W48182  24.832  16.630  18.011 -0.0135  0.1286 -0.1499
 5266W        W48183  23.131  13.749  17.434 -0.0784  0.0636 -0.2521
 5267W        W48184  27.760  18.113  19.685 -0.3093  0.0010 -0.2524
 5268W        W48185  22.603  16.471  16.275  0.0140 -0.0823  0.0603
 5269W        W48186  26.180  17.204  18.427  0.2371 -0.0217 -0.0121
 5270W        W48187  21.427  16.432  16.370  0.3134 -0.1083 -0.0735
 5271W        W48188  25.056  13.648  17.609  0.1888  0.3526  0.1717
 5272W        W48189  24.530  15.303  17.665 -0.2246 -0.1136 -0.2948
 5273W        W48190  22.384  17.520  17.899  0.1356 -0.1143 -0.1299
 5274W        W48191  26.162  19.200  20.130 -0.3098 -0.0437 -0.0125
 5275W        W48192  23.556  15.421  18.857  0.1865 -0.0342 -0.1611
 5276W        W48193  22.485  16.237  19.289  0.2436 -0.0041 -0.2220
 5277W        W48194  24.685  17.196  17.578 -0.2684  0.1144 -0.1427
 5278W        W48195  22.814  17.866  17.314  0.2863  0.0609 -0.2466
 5279W        W48196  22.472  16.526  18.295 -0.1888 -0.1108 -0.0512
 5280W        W48197  23.727  14.539  15.593  0.0640 -0.1338 -0.1037
 5281W        W48198  24.294  16.657  17.641  0.1159 -0.0350  0.2251
 5282W        W48199  23.641  16.846  16.112  0.1753 -0.2588 -0.0999
 5283W        W48200  24.268  16.979  19.285 -0.0942  0.1273  0.0499
 5284W        W48201  22.792  16.063  16.548 -0.0947 -0.3028  0.0503
 5285W        W48202  25.878  13.690  18.726 -0.1300 -0.2469  0.0377
 5286W        W48203  21.930  16.923  17.675 -0.4943  0.3318  0.2121
 5287W        W48204  21.260  17.614  16.764  0.0621 -0.1269  0.0153
 5288W        W48205  23.977  16.839  17.110 -0.0994  0.0463 -0.2254
 5289W        W48206  24.747  16.294  16.173  0.0204 -0.0727 -0.0400
 5290W        W48207  22.938  16.498  15.127  0.0260  0.0104 -0.3403
 5291W        W48208  21.663  14.976  17.077  0.2553  0.0253 -0.0845
 5292W        W48209  25.975  15.777  17.988 -0.1522 -0.1394  0.1332
 5293W        W48210  21.458  17.732  17.566 -0.1130  0.0903 -0.0465
 5294W        W48211  27.298  15.495  17.513 -0.1583  0.0571 -0.2707
 5295W        W48212  24.187  15.799  17.755  0.0129 -0.2181 -0.1094
 5296W        W48213  23.992  16.883  18.284 -0.0892  0.4986 -0.2709
 5297W        W48214  25.010  17.979  21.026 -0.1732 -0.4539  0.0335
 5298W        W48215  20.867  13.923  15.461  0.0405 -0.1881 -0.0666
 5299W        W48216  26.375  15.771  18.497 -0.4558 -0.1047 -0.0144
 5300W        W48217  23.839  13.856  20.038  0.0552  0.2436 -0.3032
 5301W        W48218  22.224  17.353  15.230 -0.0884  0.1192  0.3524
 5302W        W48219  24.733  19.818  20.281 -0.0904 -0.0422 -0.4781
 5303W        W48220  23.454  16.860  16.589  0.0253 -0.0552 -0.0361
 5304W        W48221  21.435  17.255  17.564  0.1977  0.1972  0.0471
 5305W        W48222  23.225  15.045  17.571 -0.1352 -0.0425  0.1218
 5306W        W48223  26.801  17.989  20.076  0.0787  0.0361  0.1530
 5307W        W48224  24.658  16.163  18.971 -0.0792  0.0617  0.5101
 5308W        W48225  22.465  15.066  17.045  0.0422  0.1386  0.2909
 5309W        W48226  25.421  15.127  18.298  0.1364  0.1484 -0.2255
 5310W        W48227  26.339  15.824  20.067  0.1222  0.1767  0.1865
 5311W        W48228  24.866  16.387  20.881 -0.0843  0.1732 -0.0674
 5312W        W48229  23.826  19.546  20.355  0.1122  0.2146 -0.2854
 5313W        W48230  21.592  15.561  15.598 -0.0937 -0.0185 -0.2700
 5314W        W48231  23.672  18.298  17.544 -0.0324 -0.0013  0.0952
 5315W        W48232  24.637  15.131  18.094  0.0761  0.2179 -0.0932
 5316W        W48233  23.283  16.361  17.875 -0.0873 -0.3160  0.1620
 5317W        W48234  22.281  15.531  17.603 -0.2428  0.1398  0.1555
 5318W        W48235  24.235  17.788  18.076 -0.1746  0.1587  0.0342
 5319W        W48236  25.871  14.853  19.456  0.0249  0.0043  0.0217
 5320W        W48237  23.702  17.173  17.407 -0.1079  0.2211  0.2644
 5321W        W48238  25.151  18.076  18.169  0.0603 -0.0987 -0.1792
 5322W        W48239  21.328  15.342  16.565  0.0608  0.1434  0.2360
 5323W        W48240  27.137  11.006  17.946  0.0885 -0.0016  0.1141
 5324W        W48241  23.976  16.510  16.609 -0.1720  0.2840  0.0719
 5325W        W48242  23.121  15.602  18.871 -0.1312  0.1385  0.2258
 5326W        W48243  23.421  12.708  21.785  0.0988  0.0196  0.0518
 5327W        W48244  24.685  17.318  16.513 -0.0889 -0.0079 -0.0862
 5328W        W48245  25.736  16.183  18.144  0.0763 -0.0180  0.3309
 5329W        W48246  25.824  13.517  18.174  0.0691 -0.3357 -0.1315
 5330W        W48247  25.554  19.243  19.314  0.0864  0.0570 -0.0123
 5331W        W48248  21.186  16.029  16.271 -0.2307 -0.3375  0.1842
 5332W        W48249  25.221  17.560  19.322  0.1340 -0.2532 -0.1455
 5333W        W48250  23.948  17.767  19.260 -0.1632 -0.0514 -0.0791
 5334W        W48251  22.900  14.597  16.016 -0.0469  0.1925  0.1925
 5335W        W48252  24.290  15.341  18.504  0.0059 -0.0240 -0.3524
 5336W        W48253  23.412  16.343  16.716 -0.0621 -0.0986 -0.0182
 5337W        W48254  28.955  17.627  20.904  0.0557  0.0663 -0.0566
 5338W        W48255  22.792  16.627  15.839 -0.3806 -0.1018 -0.0527
 5339W        W48256  25.941  17.121  17.817  0.2222  0.0401  0.1051
 5340W        W48257  22.264  16.500  17.792  0.0297 -0.1959 -0.0036
 5341W        W48258  24.703  15.020  16.424 -0.2754 -0.1509  0.1506
 5342W        W48259  25.331  17.200  18.981 -0.0358  0.0961  0.2256
 5343W        W48260  21.783  17.034  18.665  0.1059  0.1370  0.1138
 5344W        W48261  23.187  13.254  18.899  0.1961  0.0467  0.1050
 5345W        W48262  23.795  20.203  18.901 -0.1438 -0.3550  0.1371
 5346W        W48263  21.625  13.851  14.739  0.1973 -0.0255 -0.5541
 5347W        W48264  24.917  16.560  19.873 -0.0901 -0.1350  0.0671
 5348W        W48265  24.782  17.593  19.857  0.0208 -0.0568  0.1872
 5349W        W48266  23.982  15.245  20.946 -0.0498 -0.1121  0.4254
 5350W        W48267  22.345  17.227  19.933  0.0846 -0.3104  0.4393
 5351W        W48268  25.699  16.910  23.247 -0.2674 -0.2817 -0.0530
 5352W        W48269  25.194  16.561  16.511 -0.5217  0.2326  0.2526
 5353W        W48270  25.978  15.528  19.867 -0.0315 -0.2441 -0.0808
 5354W        W48271  22.790  16.102  15.915  0.0461 -0.1438 -0.2828
 5355W        W48272  24.566  18.070  18.365 -0.0083  0.0458  0.1448
 5356W        W48273  22.892  15.096  15.741 -0.2266  0.2395 -0.0638
 5357W        W48274  25.777  18.684  18.033  0.0092 -0.0499 -0.1056
 5358W        W48275  21.912  13.765  15.251  0.3546  0.2145  0.1007
 5359W        W48276  26.157  15.075  19.044 -0.2099  0.4018  0.0571
 5360W        W48277  24.908  19.546  18.081  0.3651  0.0751 -0.2952
 5361W        W48278  25.305  17.228  18.396  0.2784 -0.1027 -0.0969
 5362W        W48279  24.155  15.911  15.855 -0.1942 -0.0082  0.0973
 5363W        W48280  21.731  14.587  15.972 -0.0699  0.4113 -0.4038
 5364W        W48281  22.211  16.658  19.143 -0.2482 -0.0745  0.3027
 5365W        W48282  22.010  16.376  17.384 -0.1778 -0.1561  0.2117
 5366W        W48283  21.186  16.752  15.019 -0.1458  0.0473  0.3425
 5367W        W48284  24.644  16.174  19.477  0.1280  0.2929  0.3844
 5368W        W48285  26.937  17.800  21.036 -0.2342  0.1145  0.1145
 5369W        W48286  24.833  15.296  18.524 -0.0081  0.0786  0.1623
 5370W        W48287  27.726  16.156  20.404 -0.0255  0.0492 -0.0057
 5371W        W48288  21.560  16.942  16.124 -0.0025  0.1131 -0.1619
 5372W        W48289  27.013  15.354  17.991  0.0002 -0.0709  0.1765
 5373W        W48290  21.641  18.064  18.495 -0.0864  0.0965 -0.3482
 5374W        W48291  21.350  16.030  15.798 -0.1992  0.0340  0.0362
 5375W        W48292  23.720  16.654  17.526 -0.1990  0.2874  0.0173
 5376W        W48293  23.494  15.923  18.743  0.1745 -0.3645  0.3830
 5377W        W48294  25.962  19.364  21.145  0.0520 -0.0679 -0.1017
 5378W        W48295  23.646  17.641  17.196 -0.2599 -0.1027  0.0638
 5379W        W48296  25.610  17.336  20.109  0.0261  0.2297 -0.0077
 5380W        W48297  24.813  17.238  19.457  0.0672  0.0188 -0.1022
 5381W        W48298  24.205  19.021  18.165 -0.0652 -0.1201 -0.0034
 5382W        W48299  25.110  16.272  18.616  0.2652 -0.1881  0.2610
 5383W        W48300  26.305  17.594  17.505  0.2206 -0.1552  0.1859
 5384W        W48301  23.443  18.792  18.708  0.1237 -0.2015  0.0995
 5385W        W48302  21.810  15.869  17.660 -0.0596  0.1814 -0.0812
 5386W        W48303  23.584  17.430  23.285 -0.0573 -0.0817  0.0221
 5387W        W48304  25.066  15.401  18.088 -0.0358  0.3209  0.1538
 5388W        W48305  22.112  16.530  16.412  0.2353  0.2287  0.0582
 5389W        W48306  25.204  18.504  19.051 -0.1235  0.1310 -0.1293
 5390W        W48307  21.198  18.904  18.083 -0.1755 -0.0155 -0.2283
 5391W        W48308  21.889  16.111  14.431  0.1199 -0.0209  0.0152
 5392W        W48309  23.897  17.540  17.734 -0.0425 -0.2781 -0.3235
 5393W        W48310  24.183  17.330  17.294 -0.1813 -0.1216  0.0220
 5394W        W48311  23.280  17.253  16.221  0.1490 -0.1202 -0.1478
 5395W        W48312  24.106  19.306  17.598 -0.0872  0.2979  0.0681
 5396W        W48313  24.079  14.430  18.402  0.2896  0.1513 -0.2580
 5397W        W48314  22.420  18.578  18.041 -0.1453  0.1767 -0.1697
 5398W        W48315  21.429  17.387  16.315 -0.1515  0.0999  0.0441
 5399W        W48316  23.149  17.677  16.948  0.0127 -0.0727  0.1185
 5400W        W48317  21.344  18.256  15.577  0.3386  0.4406 -0.1177
 5401W        W48318  26.330  19.065  21.037 -0.2086 -0.0775  0.0534
 5402W        W48319  23.798  14.425  17.460 -0.1092 -0.2090  0.1835
 5403W        W48320  24.604  13.851  19.389 -0.1209 -0.1492 -0.2487
 5404W        W48321  24.756  14.321  17.336 -0.2041  0.1129  0.0830
 5405W        W48322  25.240  17.611  18.011 -0.3414  0.3625  0.3140
 5406W        W48323  25.017  16.541  19.053 -0.0258  0.1416 -0.0940
 5407W        W48324  25.846  15.540  18.881 -0.1095 -0.0527 -0.1350
 5408W        W48325  24.897  14.419  18.496 -0.0173 -0.0152 -0.2195
 5409W        W48326  24.432  15.386  21.131 -0.5891 -0.0707 -0.1422
 5410W        W48327  23.733  18.122  18.413  0.0322  0.0859 -0.1419
 5411W        W48328  25.025  18.397  17.380  0.3177  0.1843 -0.0114
 5412W        W48329  22.298  15.998  16.685  0.1327  0.2459  0.0754
 5413W        W48330  23.798  15.991  16.601 -0.1172 -0.2680  0.0014
 5414W        W48331  26.248  15.673  20.930  0.1287 -0.1322  0.5283
 5415W        W48332  24.089  18.476  17.333 -0.1208  0.0084 -0.1968
 5416W        W48333  24.703  16.715  19.463  0.3170 -0.3792  0.1350
 5417W        W48334  21.226  16.675  16.783  0.1451  0.0066  0.0434
 5418W        W48335  22.736  19.026  17.148  0.0493 -0.0272  0.1196
 5419W        W48336  26.033  17.360  18.922 -0.0455  0.0402 -0.2370
 5420W        W48337  19.970  13.923  15.269  0.0554 -0.0476 -0.2706
 5421W        W48338  24.986  14.921  15.969 -0.1640 -0.3057 -0.1967
 5422W        W48339  24.678  16.149  18.175  0.0494  0.1307  0.2612
 5423W        W48340  26.991  13.145  20.793  0.0368 -0.3323  0.2303
 5424W        W48341  23.856  16.325  17.081 -0.3078  0.2353 -0.0898
 5425W        W48342  25.731  14.115  18.177  0.1266 -0.0576  0.0197
 5426W        W48343  24.170  16.041  19.009  0.1834 -0.2414  0.2051
 5427W        W48344  23.515  15.420  17.359 -0.0693 -0.0525  0.0250
 5428W        W48345  24.337  16.491  16.961  0.0333 -0.0343  0.2248
 5429W        W48346  26.961  17.336  22.241 -0.2538  0.1514  0.0768
 5430W        W48347  24.950  18.327  18.624 -0.0893  0.1049 -0.0922
 5431W        W48348  22.374  18.491  16.598  0.0732 -0.1483 -0.1035
 5432W        W48349  24.170  15.682  16.363 -0.0574 -0.0631 -0.1779
 5433W        W48350  24.124  15.353  18.050  0.1679 -0.1010 -0.1102
 5434W        W48351  23.975  15.806  17.213 -0.1549  0.1252 -0.0018
 5435W        W48352  25.818  15.837  20.186  0.1532  0.1610  0.0862
 5436W        W48353  27.726  16.729  18.788 -0.0842  0.2108 -0.2568
 5437W        W48354  21.962  17.209  16.809 -0.0612  0.1751  0.3043
 5438W        W48355  23.000  18.400  15.618 -0.0711 -0.0244  0.1618
 5439W        W48356  25.753  17.931  18.415  0.0686  0.0908  0.0671
 5440W        W48357  23.504  17.935  16.703 -0.2068 -0.0116  0.1220
 5441W        W48358  24.450  16.667  16.485  0.4483 -0.0174  0.0399
 5442W        W48359  27.241  16.575  17.656  0.1613  0.3004 -0.0517
 5443W        W48360  22.749  16.696  17.816  0.0778 -0.4121  0.7287
 5444W        W48361  25.050  19.427  19.470  0.0832  0.0535  0.1176
 5445W        W48362  24.911  15.777  18.501  0.1787 -0.0662  0.0505
 5446W        W48363  25.245  13.381  17.200  0.0582  0.1030 -0.0918
 5447W        W48364  23.022  17.571  15.895 -0.0707 -0.0260  0.1437
 5448W        W48365  21.876  17.353  16.137 -0.0455 -0.1307 -0.1909
 5449W        W48366  25.429  14.636  18.588  0.1329 -0.1206  0.1584
 5450W        W48367  25.351  16.556  20.696 -0.1176  0.3876 -0.0369
 5451W        W48368  23.057  17.238  16.705  0.1580 -0.3053 -0.0964
 5452W        W48369  26.301  12.966  18.633 -0.3881 -0.0165 -0.1995
 5453W        W48370  23.320  18.554  19.178 -0.0225  0.0828 -0.1368
 5454W        W48371  23.854  17.300  19.186  0.0949  0.1767  0.0075
 5455W        W48372  22.032  16.501  15.558 -0.0220  0.0436 -0.1999
 5456W        W48373  24.359  18.725  20.245  0.2839 -0.2264 -0.0963
 5457W        W48374  22.691  16.972  16.409 -0.1614  0.0595  0.1025
 5458W        W48375  24.485  19.048  19.337  0.4525  0.0660  0.0919
 5459W        W48376  24.179  18.243  17.817  0.0874 -0.0906 -0.0548
 5460W        W48377  23.186  15.493  17.938  0.2784  0.1909  0.0440
 5461W        W48378  26.800  16.819  17.525  0.1124 -0.0424  0.1255
 5462W        W48379  23.821  16.290  19.624 -0.1829 -0.3364 -0.0178
 5463W        W48380  22.445  14.377  17.937  0.1476  0.1193 -0.0259
 5464W        W48381  22.466  12.536  17.138 -0.2119 -0.1312 -0.1968
 5465W        W48382  21.365  16.182  17.752 -0.0660 -0.1135  0.0718
 5466W        W48383  21.530  16.725  15.634 -0.0962 -0.2547  0.2337
 5467W        W48384  23.148  16.778  16.166 -0.3465  0.0910  0.1197
 5468W        W48385  21.829  16.329  16.805 -0.0973 -0.1188  0.1238
 5469W        W48386  24.873  15.595  21.094 -0.0310 -0.0700  0.0499
 5470W        W48387  26.586  16.378  20.589  0.2817 -0.1284  0.0732
 5471W        W48388  23.623  15.702  17.804 -0.2348 -0.0409 -0.2329
 5472W        W48389  23.403  14.715  17.868 -0.1838  0.0688 -0.2259
 5473W        W48390  24.347  17.047  16.183 -0.2004  0.0557 -0.1286
 5474W        W48391  24.860  14.851  16.914  0.3620 -0.2647 -0.0588
 5475W        W48392  22.009  11.894  17.147 -0.2353  0.0909 -0.0936
 5476W        W48393  26.312  20.087  19.614 -0.0436 -0.2340 -0.0982
 5477W        W48394  23.796  17.662  18.287  0.2557  0.0077  0.1007
 5478W        W48395  23.264  15.307  16.240  0.1682 -0.1013 -0.0716
 5479W        W48396  25.870  19.267  20.509 -0.1822 -0.0317 -0.0298
 5480W        W48397  22.801  16.057  14.917  0.0553  0.1598  0.0445
 5481W        W48398  25.481  16.351  19.823  0.2473 -0.0392 -0.1632
 5482W        W48399  25.413  16.074  20.850 -0.1123 -0.0227 -0.0471
 5483W        W48400  21.339  15.551  14.298  0.1711 -0.0559  0.3336
 5484W        W48401  25.152  14.582  20.302  0.1981 -0.0047 -0.0287
 5485W        W48402  26.330  19.234  18.639 -0.0945  0.1937  0.0486
 5486W        W48403  23.976  19.167  17.045  0.1083  0.0585 -0.1383
 5487W        W48404  24.610  18.827  18.568 -0.2106  0.1009 -0.1364
 5488W        W48405  24.205  16.798  20.304  0.3897 -0.1929 -0.0256
 5489W        W48406  23.221  13.707  17.922  0.1181 -0.2094 -0.1325
 5490W        W48407  24.446  17.628  16.987  0.2191 -0.0043 -0.1550
 5491W        W48408  23.725  15.329  19.405 -0.1581  0.0288  0.5059
 5492W        W48409  25.100  16.292  17.622  0.1360  0.2759  0.4138
 5493W        W48410  25.591  13.478  17.552 -0.1124 -0.0090  0.0055
 5494W        W48411  24.251  15.332  19.594  0.0119 -0.0380 -0.1785
 5495W        W48412  24.661  12.970  17.900 -0.0771  0.0198  0.1681
 5496W        W48413  23.630  18.236  18.946 -0.2385 -0.1914 -0.1949
 5497W        W48414  25.766  17.867  20.061  0.2979  0.1588  0.0584
 5498W        W48415  22.089  12.911  17.969 -0.0754 -0.1237 -0.2181
 5499W        W48416  25.098  16.846  17.591  0.4732 -0.2883  0.2158
 5500W        W48417  23.769  18.190  16.992 -0.0219  0.2094  0.1961
 5501W        W48418  23.682  16.311  19.065 -0.1139 -0.1365 -0.0853
 5502W        W48419  23.597  16.316  16.240 -0.1405  0.0303  0.2877
 5503W        W48420  24.217  14.582  19.753 -0.0861  0.0772 -0.0578
 5504W        W48421  24.501  18.124  17.461  0.1031  0.0402 -0.0224
 5505W        W48422  23.457  16.273  20.631  0.0757  0.0717  0.1025
 5506W        W48423  21.937  17.023  15.818 -0.0158 -0.0322 -0.0272
 5507W        W48424  24.519  15.167  15.776 -0.0909 -0.1102  0.1790
 5508W        W48425  24.616  18.625  19.604 -0.1764 -0.0282 -0.1200
 5509W        W48426  26.124  17.822  19.605  0.1361 -0.1327  0.1588
 5510W        W48427  25.173  17.700  18.490 -0.1382 -0.2008  0.2054
 5511W        W48428  26.831  17.026  19.370 -0.3704  0.1920  0.3663
 5512W        W48429  23.070  14.126  18.614 -0.2286  0.0819  0.1419
 5513W        W48430  24.307  17.070  16.783 -0.0285  0.1635  0.2438
 5514W        W48431  23.908  17.261  18.663 -0.1091  0.1552  0.1086
 5515W        W48432  25.362  13.887  18.529  0.1683  0.0640 -0.2237
 5516W        W48433  24.179  14.957  17.742 -0.2276  0.0991  0.0315
 5517W        W48434  23.738  15.313  16.373  0.1318  0.2441  0.0011
 5518W        W48435  25.667  20.586  19.895 -0.0596  0.1073 -0.0789
 5519W        W48436  25.131  17.067  19.985 -0.2189 -0.1098 -0.0745
 5520W        W48437  23.169  15.470  22.044 -0.1804  0.1110  0.1884
 5521W        W48438  23.063  14.655  19.219  0.3130 -0.2357 -0.0918
 5522W        W48439  25.310  16.414  22.348 -0.3128  0.2781  0.2979
 5523W        W48440  23.876  17.740  23.022 -0.1360 -0.1241  0.0077
 5524W        W48441  23.505  17.646  19.534  0.0005 -0.1792 -0.2900
 5525W        W48442  23.052  19.267  21.248 -0.0622  0.1065  0.1423
 5526W        W48443  24.357  15.898  22.896  0.1379 -0.0740  0.0874
 5527W        W48444  23.118  18.262  21.173 -0.4964  0.1298  0.1785
 5528W        W48445  24.635  16.408  24.309 -0.0434  0.1207  0.1004
 5529W        W48446  24.046  15.817  18.268  0.3828 -0.4472  0.2430
 5530W        W48447  23.573  14.405  20.858 -0.1132  0.0325 -0.0128
 5531W        W48448  23.219  16.363  21.569 -0.1716 -0.1269  0.4385
 5532W        W48449  23.302  12.261  19.808 -0.1886 -0.1288  0.1902
 5533W        W48450  24.899  15.156  23.475  0.0910  0.2040 -0.1496
 5534W        W48451  24.355  18.507  22.506 -0.1906 -0.3109 -0.2321
 5535W        W48452  24.263  16.197  20.457 -0.2342  0.1394  0.0223
 5536W        W48453  23.572  14.863  21.025 -0.0933 -0.1449  0.0749
 5537W        W48454  23.466  14.178  19.861  0.0130 -0.3701  0.2886
 5538W        W48455  23.604  18.216  20.957  0.3023 -0.0480 -0.0105
 5539W        W48456  23.487  14.959  21.482 -0.1004 -0.0135 -0.2132
 5540W        W48457  24.065  17.444  24.259 -0.0776 -0.0915  0.1453
 5541W        W48458  24.086  17.473  21.622  0.0924  0.0871  0.3195
 5542W        W48459  22.681  13.035  16.523 -0.1351  0.3141  0.0361
 5543W        W48460  22.010  14.135  20.146  0.1140 -0.4294  0.1760
 5544W        W48461  22.829  14.572  21.523 -0.2377  0.0957 -0.1583
 5545W        W48462  24.172  16.257  21.519 -0.0603  0.1622  0.2442
 5546W        W48463  25.048  15.185  20.865 -0.0697  0.1242 -0.1466
 5547W        W48464  23.723  16.958  21.968  0.1201  0.1288 -0.0213
 5548W        W48465  24.985  18.376  20.407  0.0954  0.0280  0.0667
 5549W        W48466  23.088  15.165  21.672 -0.1291 -0.3750  0.1938
 5550W        W48467  21.364  15.216  18.879  0.2845 -0.0813 -0.0944
 5551W        W48468  22.611  18.925  19.847 -0.1493 -0.2903 -0.1504
 5552W        W48469  25.298  14.754  20.727 -0.0850 -0.3147 -0.5167
 5553W        W48470  24.425  19.430  21.207  0.0571  0.1829  0.2769
 5554W        W48471  26.706  17.196  24.482  0.0245 -0.1467 -0.1741
 5555W        W48472  24.582  19.388  22.028 -0.2077 -0.2271  0.1947
 5556W        W48473  23.069  17.496  19.781 -0.0010 -0.2012  0.0184
 5557W        W48474  23.608  19.210  23.938  0.1129 -0.1506 -0.0413
 5558W        W48475  21.436  16.814  19.098 -0.3075 -0.0603  0.0570
 5559W        W48476  23.390  15.370  24.150  0.1311  0.0136  0.0933
 5560W        W48477  24.401  16.388  19.994 -0.0584 -0.1082 -0.2410
 5561W        W48478  23.504  19.635  19.965  0.1028  0.2275  0.3862
 5562W        W48479  24.298  14.251  20.134 -0.0634 -0.2712 -0.2393
 5563W        W48480  24.411  18.323  21.863 -0.0550  0.1725  0.0218
 5564W        W48481  22.064  16.225  20.568 -0.2089 -0.0942  0.0541
 5565W        W48482  27.320  16.481  24.656  0.0039 -0.2530 -0.3349
 5566W        W48483  23.950  18.072  20.174 -0.0935 -0.4228  0.1088
 5567W        W48484  24.127  15.071  18.891 -0.2351 -0.2004  0.2445
 5568W        W48485  24.477  13.799  19.916  0.0630 -0.1172 -0.3171
 5569W        W48486  25.390  15.540  20.977  0.2463  0.1049 -0.0468
 5570W        W48487  23.727  15.109  23.276 -0.0715 -0.1620  0.2293
 5571W        W48488  22.892  16.203  20.187  0.3994 -0.1348  0.0877
 5572W        W48489  24.970  15.907  20.696 -0.1245 -0.0815  0.0759
 5573W        W48490  25.797  16.479  25.198  0.1918  0.2277 -0.1314
 5574W        W48491  26.185  17.562  20.353 -0.0074  0.1082  0.3167
 5575W        W48492  23.528  16.451  22.006  0.0035  0.0751 -0.2062
 5576W        W48493  22.693  16.923  20.350 -0.0893 -0.0023 -0.2436
 5577W        W48494  24.188  15.856  19.475 -0.1507 -0.0657 -0.2619
 5578W        W48495  24.990  16.066  19.883  0.2756 -0.1623  0.1511
 5579W        W48496  27.163  17.348  21.025  0.0053 -0.1318 -0.2646
 5580W        W48497  24.636  16.584  20.445 -0.0418 -0.2909 -0.0896
 5581W        W48498  24.544  15.664  18.850 -0.2049  0.2947 -0.0331
 5582W        W48499  21.045  16.260  19.896 -0.1349 -0.1241  0.0515
 5583W        W48500  22.928  16.342  21.978 -0.1398  0.1321  0.0688
 5584W        W48501  24.486  14.737  18.837  0.0937  0.3037 -0.0060
 5585W        W48502  26.568  17.606  23.083 -0.1025  0.0209 -0.0465
 5586W        W48503  23.064  15.968  22.465  0.0156 -0.1921  0.0875
 5587W        W48504  24.830  15.401  21.971  0.2399 -0.2573  0.4147
 5588W        W48505  24.027  18.604  22.999 -0.0848 -0.0032  0.1400
 5589W        W48506  26.369  18.114  21.748  0.0964 -0.2827 -0.2662
 5590W        W48507  26.437  17.268  21.729  0.1822  0.1237 -0.0163
 5591W        W48508  25.160  13.705  23.726  0.1207  0.2702  0.0999
 5592W        W48509  24.692  13.510  21.715 -0.1366 -0.1040  0.0711
 5593W        W48510  24.196  13.932  20.971 -0.0512  0.1458  0.4495
 5594W        W48511  24.568  15.778  19.833 -0.0312  0.0164 -0.0791
 5595W        W48512  25.489  17.641  21.832  0.1731 -0.1225 -0.1042
 5596W        W48513  25.403  16.854  21.074  0.1905  0.2189  0.1004
 5597W        W48514  21.975  14.681  20.144  0.0705 -0.1652 -0.2110
 5598W        W48515  23.241  13.071  23.794  0.3308 -0.2662  0.2310
 5599W        W48516  21.125  16.480  23.495  0.1441 -0.0030 -0.1674
 5600W        W48517  23.822  18.501  18.087  0.1294 -0.1048  0.1219
 5601W        W48518  23.700  15.854  21.099 -0.0204  0.1494 -0.1546
 5602W        W48519  23.822  18.187  19.527 -0.3346 -0.0449  0.3046
 5603W        W48520  21.535  17.047  20.163  0.0036  0.0474 -0.0323
 5604W        W48521  23.679  16.413  21.123 -0.1366  0.0672 -0.0199
 5605W        W48522  24.067  15.708  23.346 -0.0316 -0.2518  0.0251
 5606W        W48523  23.287  14.405  21.717 -0.0097  0.0236  0.1294
 5607W        W48524  24.085  13.081  23.885  0.5521 -0.0244 -0.0606
 5608W        W48525  22.469  15.910  20.518  0.2089  0.2306 -0.2682
 5609W        W48526  27.585  19.984  21.988 -0.0311  0.1324  0.2304
 5610W        W48527  24.864  17.401  20.315 -0.1490 -0.0961  0.2551
 5611W        W48528  24.304  17.476  19.060 -0.2069 -0.4509 -0.1015
 5612W        W48529  21.159  16.762  19.572  0.0570 -0.0601  0.0462
 5613W        W48530  21.199  12.786  17.488  0.3287 -0.2372  0.2051
 5614W        W48531  24.480  15.983  23.928  0.0209  0.1488 -0.0159
 5615W        W48532  21.412  12.793  21.582  0.0739 -0.1309 -0.0311
 5616W        W48533  26.205  16.250  23.238  0.2168  0.1176 -0.1811
 5617W        W48534  25.302  15.908  20.305 -0.1949 -0.0455  0.0826
 5618W        W48535  23.422  13.917  21.480  0.1436 -0.0645 -0.0812
 5619W        W48536  24.351  17.508  19.599 -0.1448  0.1817 -0.4090
 5620W        W48537  23.263  18.374  19.639 -0.0852 -0.2875  0.0576
 5621W        W48538  24.720  13.856  23.428  0.0825 -0.0589 -0.2134
 5622W        W48539  25.692  17.607  20.568 -0.0011 -0.1635 -0.3919
 5623W        W48540  25.027  17.733  22.050 -0.0573  0.1678  0.1974
 5624W        W48541  25.746  20.488  20.383  0.0170 -0.0533 -0.1747
 5625W        W48542  23.667  13.896  20.920 -0.0464  0.1379  0.0277
 5626W        W48543  22.421  13.990  23.125  0.3048 -0.3017  0.0671
 5627W        W48544  24.502  18.502  23.051  0.2769 -0.1819  0.0087
 5628W        W48545  24.340  15.316  21.656 -0.0274  0.2905  0.4343
 5629W        W48546  23.079  12.566  20.214 -0.0399 -0.1758  0.1616
 5630W        W48547  23.445  18.681  21.833  0.0297  0.1178  0.0578
 5631W        W48548  24.929  14.965  22.861 -0.0210 -0.1910 -0.1811
 5632W        W48549  23.974  16.194  22.094 -0.0830  0.1959  0.0480
 5633W        W48550  25.375  16.709  23.559 -0.1177  0.0723 -0.0624
 5634W        W48551  24.508  15.441  22.625 -0.1156 -0.0544 -0.1533
 5635W        W48552  25.496  18.003  22.210  0.0152  0.2716 -0.4844
 5636W        W48553  23.869  15.480  19.915 -0.1143  0.2889 -0.0666
 5637W        W48554  25.769  19.390  21.932  0.0531  0.2312  0.2317
 5638W        W48555  24.521  18.641  19.000 -0.1248  0.2339  0.1338
 5639W        W48556  24.422  16.020  21.986  0.0991  0.1471  0.3298
 5640W        W48557  24.452  18.332  20.943 -0.0087  0.1395 -0.0621
 5641W        W48558  24.259  14.884  21.976 -0.2748  0.0781 -0.1869
 5642W        W48559  23.121  16.994  23.948 -0.0561  0.2187 -0.0919
 5643W        W48560  24.075  15.182  24.165 -0.3047  0.2743  0.1105
 5644W        W48561  23.693  15.931  20.319 -0.0970 -0.2951 -0.2094
 5645W        W48562  23.556  15.331  22.345  0.1153  0.0117  0.1473
 5646W        W48563  24.438  14.719  21.528  0.0356 -0.0212 -0.1656
 5647W        W48564  26.459  15.353  22.793 -0.0340 -0.2426 -0.0894
 5648W        W48565  23.787  16.719  23.985 -0.1716  0.0122 -0.2009
 5649W        W48566  23.546  17.946  20.455 -0.2764  0.1363 -0.1321
 5650W        W48567  24.299  15.500  22.122 -0.0922 -0.3533 -0.2329
 5651W        W48568  25.969  13.561  21.246  0.2578  0.0244 -0.0483
 5652W        W48569  23.983  14.912  23.709 -0.2920  0.2287 -0.2831
 5653W        W48570  25.569  16.378  18.911  0.2054  0.1077 -0.1044
 5654W        W48571  23.651  16.886  22.728 -0.1117  0.0426  0.0013
 5655W        W48572  26.194  16.059  20.523  0.1748  0.2422  0.2090
 5656W        W48573  27.014  19.323  21.442 -0.0345  0.5602  0.1535
 5657W        W48574  21.691  18.755  22.616 -0.0319  0.0362 -0.1139
 5658W        W48575  24.216  16.872  22.808 -0.0836 -0.1788  0.1222
 5659W        W48576  26.611  18.599  21.763  0.0997  0.0485  0.2296
 5660W        W48577  23.581  14.452  22.272  0.2383  0.0274  0.1528
 5661W        W48578  24.113  16.155  20.950  0.1842 -0.2221  0.1392
 5662W        W48579  24.250  16.556  21.936  0.1521  0.2255 -0.0404
 5663W        W48580  21.710  18.770  18.392  0.0103 -0.0599  0.2583
 5664W        W48581  24.625  15.957  23.344  0.0242  0.0342  0.1542
 5665W        W48582  26.251  14.268  23.153 -0.1696  0.0935  0.0004
 5666W        W48583  23.853  13.968  23.199  0.2112 -0.0337  0.2952
 5667W        W48584  26.396  16.019  23.666  0.0066 -0.2517 -0.0680
 5668W        W48585  25.785  15.369  23.481  0.0476 -0.0023  0.1078
 5669W        W48586  27.445  16.375  23.092 -0.0246 -0.1595  0.3492
 5670W        W48587  23.065  16.680  19.412  0.1421 -0.1121  0.2438
 5671W        W48588  21.962  14.500  22.606 -0.2789 -0.0279 -0.1441
 5672W        W48589  24.704  14.729  22.308  0.1277  0.1248  0.1981
 5673W        W48590  22.647  18.174  22.420 -0.2918  0.1376 -0.0999
 5674W        W48591  25.306  18.184  23.169 -0.0146  0.2385 -0.0223
 5675W        W48592  26.856  14.942  21.912 -0.2411  0.0844 -0.0824
 5676W        W48593  23.268  14.510  25.038  0.1297  0.3408 -0.0924
 5677W        W48594  24.648  14.667  20.052  0.1428 -0.0701 -0.2156
 5678W        W48595  24.615  18.065  19.814  0.1106  0.0179  0.0218
 5679W        W48596  23.524  17.436  19.978 -0.1051  0.0248  0.1470
 5680W        W48597  23.433  13.650  21.951 -0.1941  0.0939  0.1680
 5681W        W48598  23.846  15.677  24.318 -0.0112 -0.3586 -0.0705
 5682W        W48599  24.515  15.841  20.816  0.0395  0.2712 -0.1786
 5683W        W48600  26.412  17.296  22.721  0.0182  0.1236  0.3272
 5684W        W48601  23.472  16.759  20.370  0.1369 -0.0626 -0.0344
 5685W        W48602  26.597  15.675  24.760  0.1611  0.5300  0.0948
 5686W        W48603  22.058  17.651  20.039  0.1725  0.2131  0.0281
 5687W        W48604  25.512  15.178  19.565 -0.1866 -0.0367  0.1081
 5688W        W48605  22.008  16.861  21.802 -0.1922 -0.1092  0.0881
 5689W        W48606  26.090  13.425  22.584 -0.2117 -0.1218  0.1611
 5690W        W48607  27.631  17.945  21.863 -0.0944  0.5614 -0.0638
 5691W        W48608  22.510  14.679  22.444  0.0915  0.3060 -0.0353
 5692W        W48609  24.919  16.597  22.562 -0.1005  0.0033 -0.1414
 5693W        W48610  22.986  17.054  21.296  0.0999 -0.2647 -0.0144
 5694W        W48611  24.484  16.228  26.053 -0.0591 -0.0787  0.2513
 5695W        W48612  24.690  16.063  20.264 -0.0333 -0.2338 -0.3127
 5696W        W48613  24.675  16.313  21.696  0.3913 -0.1375  0.4769
 5697W        W48614  23.960  16.820  24.482 -0.1342 -0.2995 -0.0986
 5698W        W48615  23.752  14.460  19.544  0.0256 -0.0089  0.0796
 5699W        W48616  26.209  15.175  23.388  0.1345 -0.0287  0.0620
 5700W        W48617  23.110  14.886  21.219  0.0243 -0.1501 -0.0140
 5701W        W48618  24.978  14.595  19.379 -0.1213  0.0547 -0.3251
 5702W        W48619  25.460  18.616  20.388  0.0040  0.3097  0.6726
 5703W        W48620  24.186  16.466  19.351 -0.1397  0.4916  0.0808
 5704W        W48621  22.136  19.571  18.811 -0.0369  0.1126 -0.1307
 5705W        W48622  22.558  15.623  21.378  0.0569 -0.1931 -0.1334
 5706W        W48623  25.513  17.200  22.863 -0.0526  0.0289  0.4158
 5707W        W48624  23.349  14.768  23.087  0.0451 -0.0252 -0.0528
 5708W        W48625  23.516  14.853  19.315  0.0323 -0.2065  0.1834
 5709W        W48626  23.762  14.684  21.799 -0.1415  0.0776  0.1677
 5710W        W48627  23.380  16.976  23.161  0.0401  0.1290 -0.0779
 5711W        W48628  23.859  16.309  24.349  0.3384  0.1158  0.2701
 5712W        W48629  23.052  18.304  22.822 -0.3693  0.4002  0.2103
 5713W        W48630  23.522  13.403  21.246 -0.0269 -0.1530  0.2975
 5714W        W48631  24.264  19.622  23.547 -0.0093 -0.1199 -0.0660
 5715W        W48632  24.726  14.985  24.892 -0.1568  0.0394 -0.2493
 5716W        W48633  23.451  16.880  20.955 -0.2002  0.0063  0.1563
 5717W        W48634  24.636  17.338  21.711 -0.0634  0.1033  0.2568
 5718W        W48635  22.440  17.724  20.945 -0.2226 -0.5627  0.1423
 5719W        W48636  23.722  15.196  21.855  0.1158 -0.1593 -0.1454
 5720W        W48637  22.530  16.986  22.590  0.3611  0.0549 -0.0290
 5721W        W48638  22.924  16.128  20.723  0.0075 -0.1711 -0.5265
 5722W        W48639  20.717  16.715  19.085 -0.3310 -0.1159 -0.0648
 5723W        W48640  26.460  13.849  23.006 -0.1731 -0.0257  0.2321
 5724W        W48641  25.273  16.772  18.714  0.2334 -0.1790  0.2406
 5725W        W48642  22.840  15.446  19.664 -0.0192 -0.0604  0.4884
 5726W        W48643  25.753  15.719  23.870 -0.4177  0.1840  0.2737
 5727W        W48644  26.554  17.978  20.484 -0.2570  0.0587  0.0946
 5728W        W48645  26.572  13.593  25.252  0.3860  0.1132 -0.0105
 5729W        W48646  21.656  14.159  23.559 -0.1215 -0.2582  0.0750
 5730W        W48647  24.530  16.892  19.981 -0.1609 -0.0364 -0.0062
 5731W        W48648  23.063  16.640  19.974 -0.2893  0.2957 -0.0284
 5732W        W48649  26.071  17.847  23.080  0.0593 -0.0518 -0.0733
 5733W        W48650  22.883  16.873  24.386 -0.1411  0.0366  0.0366
 5734W        W48651  24.317  13.852  21.888 -0.0343  0.1970  0.1174
 5735W        W48652  23.243  13.367  20.098  0.2852  0.3335  0.3097
 5736W        W48653  22.683  16.158  23.404  0.0605 -0.0587  0.0330
 5737W        W48654  23.736  15.772  22.451 -0.2448 -0.0123 -0.1976
 5738W        W48655  24.925  17.498  18.864  0.2221  0.2498  0.1957
 5739W        W48656  24.759  17.425  23.557  0.1666 -0.1017  0.1662
 5740W        W48657  23.123  15.645  23.393 -0.0561 -0.1323 -0.0876
 5741W        W48658  24.309  19.022  23.287 -0.1754  0.0839 -0.1468
 5742W        W48659  25.266  17.225  23.805 -0.1307  0.0283 -0.1996
 5743W        W48660  24.137  14.364  21.601 -0.2189  0.0311 -0.1676
 5744W        W48661  25.491  14.597  23.991  0.1021  0.3992 -0.2067
 5745W        W48662  25.455  16.869  22.441 -0.2019 -0.4356 -0.2362
 5746W        W48663  23.575  14.111  23.677 -0.0382  0.0087 -0.1761
 5747W        W48664  23.529  14.937  22.644 -0.0744 -0.0255  0.0351
 5748W        W48665  23.487  16.826  24.843  0.2013 -0.2241  0.1335
 5749W        W48666  22.865  14.559  22.024 -0.0272  0.1882 -0.1115
 5750W        W48667  22.391  13.316  21.628  0.1183 -0.3137  0.1614
 5751W        W48668  23.666  19.181  22.338  0.2806  0.1310  0.1061
 5752W        W48669  26.067  14.506  23.977  0.3609 -0.1353 -0.0660
 5753W        W48670  27.120  14.976  24.889 -0.0103  0.1669 -0.2578
 5754W        W48671  23.511  15.719  20.699  0.0611  0.0123 -0.0092
 5755W        W48672  24.904  17.126  21.299  0.1914 -0.0032  0.1017
 5756W        W48673  22.934  13.961  23.653  0.2098 -0.1302 -0.1884
 5757W        W48674  25.236  16.215  25.001  0.1069  0.0413  0.1822
 5758W        W48675  24.330  15.682  20.279 -0.2127 -0.1096  0.0506
 5759W        W48676  23.750  14.524  25.003  0.0318  0.0161 -0.2108
 5760W        W48677  23.486  17.970  19.922 -0.0854 -0.2384  0.0816
 5761W        W48678  26.326  17.868  22.639  0.0731 -0.1616 -0.0682
 5762W        W48679  26.866  18.084  22.008  0.1338  0.0579 -0.2255
 5763W        W48680  21.689  15.556  20.135  0.1424 -0.2744  0.1319
 5764W        W48681  23.605  18.047  24.071 -0.1581 -0.0208  0.0121
 5765W        W48682  25.636  15.824  19.663 -0.1742 -0.0871 -0.0948
 5766W        W48683  25.069  15.968  21.878 -0.0087 -0.1165 -0.1659
 5767W        W48684  23.592  15.720  23.391  0.0977 -0.0557  0.3626
 5768W        W48685  24.960  16.064  22.638  0.0330  0.0266 -0.1465
 5769W        W48686  23.833  14.462  20.180 -0.1523  0.0266 -0.0142
 5770W        W48687  27.105  15.436  24.691 -0.1785  0.0718  0.1166
 5771W        W48688  23.089  19.741  20.179 -0.1509 -0.0500 -0.2116
 5772W        W48689  24.099  13.640  23.943 -0.1434  0.1194  0.0490
 5773W        W48690  23.583  16.712  21.474  0.3096  0.1384 -0.1007
 5774W        W48691  22.542  16.548  23.145  0.0617 -0.0440 -0.2434
 5775W        W48692  22.934  18.520  20.539 -0.0172 -0.0810 -0.0435
 5776W        W48693  23.408  13.768  23.032 -0.0899 -0.0446  0.1103
 5777W        W48694  23.197  14.117  22.108 -0.3758 -0.0099  0.0882
 5778W        W48695  23.568  17.257  21.601 -0.0660 -0.1942 -0.1126
 5779W        W48696  23.938  16.738  22.354 -0.0601  0.3536 -0.0306
 5780W        W48697  23.746  16.272  23.498 -0.0393 -0.1680  0.3769
 5781W        W48698  23.565  17.019  23.640  0.2165 -0.0020  0.2633
 5782W        W48699  24.152  17.324  20.025  0.2151  0.1897  0.0101
 5783W        W48700  25.783  19.606  21.482  0.0165  0.1122 -0.1920
 5784W        W48701  22.985  17.068  19.134  0.1071 -0.1594 -0.3571
 5785W        W48702  23.206  14.370  21.253 -0.2248 -0.0921  0.0102
 5786W        W48703  22.236  16.129  24.411  0.2157 -0.1723  0.0630
 5787W        W48704  26.009  18.894  22.492 -0.0388 -0.1075  0.1372
 5788W        W48705  22.835  14.122  21.137  0.0362  0.0881 -0.1128
 5789W        W48706  22.647  17.559  22.575  0.4033 -0.0972 -0.0430
 5790W        W48707  24.569  18.394  23.938  0.1890 -0.2274 -0.1434
 5791W        W48708  22.414  17.257  21.091 -0.1487 -0.0872 -0.1606
 5792W        W48709  23.351  18.624  20.931 -0.2896  0.0565 -0.1425
 5793W        W48710  23.870  17.203  21.156 -0.1012  0.1603 -0.2290
 5794W        W48711  24.375  17.737  20.275  0.1991 -0.0632  0.1766
 5795W        W48712  25.752  20.083  21.336 -0.3691  0.1361 -0.1408
 5796W        W48713  22.581  15.358  20.505  0.1880  0.0038  0.3069
 5797W        W48714  23.683  16.144  21.602  0.2649  0.0405  0.1315
 5798W        W48715  21.573  17.885  18.020 -0.1575 -0.1460  0.0557
 5799W        W48716  23.678  15.853  19.250 -0.0168  0.0052 -0.1579
 5800W        W48717  22.818  16.683  21.609 -0.3750  0.2597  0.1018
 5801W        W48718  26.458  18.319  24.178 -0.4867 -0.0252 -0.1557
 5802W        W48719  26.459  13.036  22.751 -0.1829  0.0278  0.0312
 5803W        W48720  27.874  16.455  21.479  0.3900  0.1981 -0.1346
 5804W        W48721  26.205  15.223  20.770  0.0451  0.0478  0.1095
 5805W        W48722  23.569  15.363  22.901 -0.2849 -0.2524  0.0816
 5806W        W48723  24.819  14.906  21.825  0.0432  0.1953 -0.2580
 5807W        W48724  25.290  14.922  19.966 -0.1425 -0.0623  0.1886
 5808W        W48725  23.157  16.433  22.397  0.2812  0.2823 -0.0371
 5809W        W48726  25.733  14.228  24.232  0.1111  0.0339 -0.1712
 5810W        W48727  21.563  19.525  21.004 -0.2385 -0.0245 -0.1274
 5811W        W48728  25.703  18.550  20.817  0.0145  0.0492 -0.1934
 5812W        W48729  22.016  14.132  20.700  0.4583 -0.4177 -0.3907
 5813W        W48730  23.296  15.186  19.638 -0.0716  0.0101  0.0652
 5814W        W48731  23.789  14.051  22.003  0.0759  0.0585 -0.0271
 5815W        W48732  24.332  18.031  19.415  0.1683  0.0020 -0.2595
 5816W        W48733  25.551  15.368  21.539 -0.1882  0.2530 -0.2330
 5817W        W48734  25.290  17.718  20.182 -0.0806 -0.0058  0.2088
 5818W        W48735  22.581  16.420  20.542  0.0051 -0.0540  0.0219
 5819W        W48736  22.740  16.651  21.029  0.1822 -0.2670  0.1450
 5820W        W48737  22.653  15.147  20.031  0.0775  0.0494  0.0639
 5821W        W48738  26.678  13.676  21.855 -0.1144  0.2316 -0.0423
 5822W        W48739  24.414  17.795  21.856 -0.5781  0.1084  0.0960
 5823W        W48740  26.214  14.856  25.370  0.3692 -0.2546 -0.1596
 5824W        W48741  21.437  14.066  20.403  0.0234 -0.1169  0.1838
 5825W        W48742  25.464  16.778  21.920 -0.2289  0.0284  0.2214
 5826W        W48743  23.489  15.755  23.866 -0.0149 -0.2162 -0.0222
 5827W        W48744  22.202  16.712  21.072 -0.3403 -0.3301 -0.1937
 5828W        W48745  23.950  17.974  21.707  0.0079  0.0041  0.3204
 5829W        W48746  24.261  16.373  23.207 -0.1566  0.0837  0.0597
 5830W        W48747  25.322  16.655  19.452  0.0310  0.1607 -0.2122
 5831W        W48748  24.819  19.829  24.135 -0.0609 -0.5801  0.1142
 5832W        W48749  23.913  15.475  21.513  0.1614 -0.1605 -0.0261
 5833W        W48750  26.472  15.575  23.219 -0.1060  0.0045  0.0100
 5834W        W48751  24.037  15.251  20.377 -0.2952 -0.0934  0.3892
 5835W        W48752  23.204  14.599  24.360  0.1693  0.0467 -0.1208
 5836W        W48753  25.842  17.146  24.124  0.0364 -0.0826 -0.1126
 5837W        W48754  22.145  13.518  21.224 -0.1218  0.1926  0.1946
 5838W        W48755  26.975  17.012  19.888  0.0079 -0.1251 -0.0070
 5839W        W48756  24.547  16.472  23.621 -0.1045 -0.4614 -0.3795
 5840W        W48757  22.677  17.874  19.355  0.1322  0.2290  0.2390
 5841W        W48758  25.024  16.019  23.682  0.1361 -0.2614 -0.2645
 5842W        W48759  25.279  17.530  21.132  0.0042  0.1374 -0.1495
 5843W        W48760  25.300  15.178  23.199 -0.1518  0.3700  0.2814
 5844W        W48761  25.660  18.063  22.818 -0.1657  0.0720  0.0420
 5845W        W48762  25.376  15.919  22.294 -0.0568  0.1711  0.0958
 5846W        W48763  25.026  15.647  23.067 -0.0797 -0.0294  0.0036
 5847W        W48764  22.979  15.895  21.631 -0.1761  0.5840  0.1975
 5848W        W48765  22.177  16.840  20.328 -0.0214  0.2273  0.0127
 5849W        W48766  25.001  15.172  22.376  0.1587  0.1639  0.2029
 5850W        W48767  26.220  14.698  23.370 -0.0396  0.1370 -0.2282
 5851W        W48768  24.591  19.366  20.738 -0.1465 -0.1120  0.2816
 5852W        W48769  25.160  11.792  25.510 -0.2735 -0.2923  0.1654
 5853W        W48770  22.959  16.919  22.732 -0.0160  0.0431 -0.0581
 5854W        W48771  23.656  17.878  23.578 -0.0250  0.0115  0.2159
 5855W        W48772  22.211  15.360  19.811  0.0495  0.2771  0.1194
 5856W        W48773  23.022  16.490  23.192  0.1577  0.0589 -0.0593
 5857W        W48774  24.039  15.693  20.669  0.0104 -0.0379 -0.2991
 5858W        W48775  23.858  16.215  18.626  0.3617 -0.1547  0.1915
 5859W        W48776  27.211  18.223  21.713  0.1847 -0.0494  0.2665
 5860W        W48777  24.574  16.148  21.238  0.1814  0.3126 -0.0148
 5861W        W48778  23.575  18.187  22.117 -0.0840 -0.1591 -0.2212
 5862W        W48779  24.158  14.285  22.254 -0.2989 -0.0743  0.2374
 5863W        W48780  26.571  13.474  20.967 -0.0061  0.3124  0.2968
 5864W        W48781  24.514  15.419  23.185 -0.0332  0.3206  0.3750
 5865W        W48782  25.008  16.565  21.985  0.2145  0.2219 -0.1346
 5866W        W48783  23.378  14.849  18.774  0.1284 -0.1788 -0.0641
 5867W        W48784  24.824  14.176  20.177 -0.1564 -0.0215 -0.1790
 5868W        W48785  24.239  13.926  23.547 -0.0010 -0.0278  0.0109
 5869W        W48786  24.876  15.967  24.216 -0.1829  0.1484  0.1175
 5870W        W48787  25.106  16.537  21.449  0.1298  0.2025  0.0014
 5871W        W48788  25.094  16.067  21.256  0.2915 -0.0140  0.1786
 5872W        W48789  23.993  13.523  20.843 -0.0969  0.1529 -0.1007
 5873W        W48790  23.970  17.636  22.103  0.0735  0.0323  0.0544
 5874W        W48791  22.645  13.637  20.874 -0.2506  0.1503  0.2073
 5875W        W48792  21.529  14.467  20.003  0.0790  0.1049 -0.3660
 5876W        W48793  24.756  19.057  23.128 -0.2152  0.0232 -0.1804
 5877W        W48794  26.376  20.721  21.750 -0.0239  0.2775  0.1893
 5878W        W48795  25.600  13.851  19.745  0.3326 -0.2424  0.0545
 5879W        W48796  25.517  19.889  23.814  0.0623 -0.0873  0.1746
 5880W        W48797  22.068  15.866  17.247  0.0059  0.2661 -0.2867
 5881W        W48798  23.019  17.290  22.400  0.1973  0.0344 -0.0285
 5882W        W48799  22.428  15.148  23.978 -0.0233  0.1372  0.2042
 5883W        W48800  21.806  13.811  18.965  0.1865  0.1029 -0.3179
 5884W        W48801  23.329  14.905  22.166  0.1326 -0.1336 -0.0409
 5885W        W48802  25.577  18.507  21.437 -0.0203  0.0181  0.2236
 5886W        W48803  23.196  19.448  19.159 -0.0055 -0.0238 -0.0212
 5887W        W48804  22.986  16.124  25.054 -0.0949  0.1176 -0.0834
 5888W        W48805  24.101  16.695  23.571  0.1222  0.1516 -0.1861
 5889W        W48806  22.246  13.213  22.750  0.3082 -0.3218 -0.1282
 5890W        W48807  24.929  16.744  23.433  0.0407 -0.2136  0.0716
 5891W        W48808  22.875  19.672  21.040  0.5215 -0.2267  0.2600
 5892W        W48809  25.679  19.249  19.818 -0.0793  0.3092 -0.0715
 5893W        W48810  25.537  14.076  23.805 -0.3278 -0.1276  0.0448
 5894W        W48811  25.311  15.401  22.088  0.1288 -0.1213  0.2683
 5895W        W48812  23.959  14.408  23.679  0.0251 -0.2857  0.1414
 5896W        W48813  22.318  16.459  21.557 -0.4221  0.0578  0.1276
 5897W        W48814  25.733  14.905  23.269 -0.0971  0.1594 -0.1583
 5898W        W48815  24.530  14.046  21.481 -0.0591 -0.0617 -0.1833
 5899W        W48816  25.008  15.173  21.436  0.2233  0.0718 -0.1327
 5900W        W48817  24.507  15.192  20.140 -0.0686 -0.5187  0.1000
 5901W        W48818  20.940  17.098  18.736  0.2534 -0.2183 -0.5685
 5902W        W48819  25.010  17.015  22.289 -0.0883  0.0108 -0.0377
 5903W        W48820  23.017  13.888  22.588  0.2701 -0.1827 -0.0230
 5904W        W48821  23.231  18.878  22.897 -0.2881  0.4824  0.2082
 5905W        W48822  24.224  17.252  23.833 -0.1361  0.2260 -0.1591
 5906W        W48823  24.621  15.383  20.636 -0.0975  0.3021  0.7095
 5907W        W48824  24.783  17.367  20.839  0.0744  0.0589  0.0106
 5908W        W48825  25.716  16.859  19.817  0.0135 -0.0552  0.3784
 5909W        W48826  26.926  17.212  24.023 -0.1367 -0.0996 -0.3355
 5910W        W48827  24.004  16.749  21.196  0.2258 -0.0836  0.0679
 5911W        W48828  26.617  15.650  22.424  0.1862 -0.1400 -0.2713
 5912W        W48829  23.020  13.078  20.897 -0.0756 -0.1299  0.3610
 5913W        W48830  23.000  17.106  20.706  0.2119 -0.3176 -0.1258
 5914W        W48831  22.971  18.014  19.726 -0.0069  0.0206 -0.3304
 5915W        W48832  24.078  15.369  22.823 -0.2366  0.0318  0.0429
 5916W        W48833  22.580  14.933  19.142 -0.0708  0.1214  0.2780
 5917W        W48834  24.338  16.533  20.815 -0.0390 -0.2058 -0.1956
 5918W        W48835  23.693  16.264  22.481  0.2678  0.2266  0.1189
 5919W        W48836  25.001  17.833  23.328 -0.1997  0.1195 -0.0451
 5920W        W48837  24.294  15.720  25.309  0.3200 -0.1010 -0.1910
 5921W        W48838  23.244  16.819  21.861 -0.1741 -0.2571 -0.0386
 5922W        W48839  23.003  16.071  23.761 -0.2925 -0.1063 -0.2023
 5923W        W48840  26.289  16.675  23.826  0.2004 -0.1845 -0.0139
 5924W        W48841  24.400  15.554  24.108 -0.0917 -0.0177 -0.2249
 5925W        W48842  24.485  19.475  23.974 -0.0364  0.1590  0.1924
 5926W        W48843  23.328  14.717  27.635 -0.0309 -0.0819  0.2491
 5927W        W48844  23.070  16.448  24.094 -0.3427 -0.2302 -0.0646
 5928W        W48845  23.457  19.686  23.965  0.0603 -0.0350 -0.3251
 5929W        W48846  25.107  16.174  25.461  0.0238  0.2594 -0.1739
 5930W        W48847  21.922  15.783  26.531  0.1096 -0.0149  0.0917
 5931W        W48848  23.007  16.659  27.072 -0.2164  0.1517 -0.1285
 5932W        W48849  23.233  14.280  23.331  0.1678  0.0695  0.2230
 5933W        W48850  20.619  12.786  23.110 -0.0739  0.3932  0.1067
 5934W        W48851  25.204  17.816  24.810  0.2072  0.0366 -0.2566
 5935W        W48852  23.186  17.472  24.608  0.0663 -0.0819 -0.0244
 5936W        W48853  20.936  15.739  23.513  0.0433  0.2024  0.2191
 5937W        W48854  23.455  14.294  24.620  0.0244 -0.3237 -0.2611
 5938W        W48855  23.016  18.935  24.614  0.1665 -0.0165  0.2674
 5939W        W48856  24.145  17.977  28.010 -0.1481 -0.0698  0.0983
 5940W        W48857  23.788  16.510  28.264 -0.0023  0.1299  0.0385
 5941W        W48858  23.133  17.418  23.460 -0.1990  0.0908 -0.0642
 5942W        W48859  23.007  14.877  22.767  0.1168 -0.1532  0.2939
 5943W        W48860  21.619  16.512  21.893  0.1543 -0.1740  0.0460
 5944W        W48861  24.184  17.166  28.742  0.2296  0.2476 -0.2078
 5945W        W48862  22.252  15.519  24.737 -0.0373  0.0331 -0.0300
 5946W        W48863  26.148  15.806  25.471  0.1132  0.0358 -0.0908
 5947W        W48864  23.379  18.473  26.822 -0.2318 -0.1135 -0.1183
 5948W        W48865  23.205  19.400  24.795 -0.0734 -0.0619 -0.0831
 5949W        W48866  26.892  16.294  28.256 -0.0640 -0.1288  0.0905
 5950W        W48867  23.371  16.347  24.688  0.0959 -0.0251  0.0251
 5951W        W48868  21.653  18.249  22.476  0.0253  0.2849  0.2296
 5952W        W48869  23.180  19.261  24.245 -0.2133  0.1039  0.0928
 5953W        W48870  26.870  16.477  25.567 -0.0650 -0.1253  0.0583
 5954W        W48871  25.737  17.688  27.442 -0.0788 -0.1541  0.3253
 5955W        W48872  22.814  18.388  26.878 -0.0139  0.1648 -0.2746
 5956W        W48873  22.261  17.836  24.603 -0.2635  0.0928  0.0246
 5957W        W48874  22.116  18.273  25.669 -0.3035  0.3041 -0.2318
 5958W        W48875  22.838  18.063  27.666 -0.2471  0.1574 -0.0758
 5959W        W48876  22.216  16.105  26.120  0.0292  0.0746  0.4999
 5960W        W48877  24.593  14.681  23.264  0.1673 -0.0741 -0.0301
 5961W        W48878  24.783  18.234  24.334  0.2300 -0.0446  0.1402
 5962W        W48879  23.464  15.485  25.471  0.0384  0.2821 -0.2857
 5963W        W48880  23.125  17.998  26.620 -0.3102  0.0929  0.3003
 5964W        W48881  22.004  16.707  23.250 -0.1911 -0.3344  0.0828
 5965W        W48882  25.108  14.811  26.125  0.0567  0.1568 -0.3301
 5966W        W48883  23.466  18.439  23.074 -0.0996 -0.0096  0.2068
 5967W        W48884  23.715  15.998  24.676  0.1540  0.3245 -0.0804
 5968W        W48885  23.980  15.033  22.337  0.0298  0.3621  0.3393
 5969W        W48886  24.794  17.479  23.062  0.0425 -0.0359 -0.2090
 5970W        W48887  23.156  15.165  27.879 -0.2632 -0.2353  0.1774
 5971W        W48888  23.529  17.753  24.901  0.2090 -0.0546 -0.1150
 5972W        W48889  21.388  16.570  24.831 -0.2036  0.2725  0.0869
 5973W        W48890  24.066  18.723  28.114 -0.0207 -0.0361 -0.0616
 5974W        W48891  24.137  17.775  23.517  0.0559 -0.0220  0.1282
 5975W        W48892  25.450  17.731  25.991  0.3759  0.4288 -0.0248
 5976W        W48893  21.987  18.209  26.544 -0.2129  0.2257  0.0020
 5977W        W48894  22.380  18.298  24.736  0.0692 -0.0424  0.1597
 5978W        W48895  24.691  19.897  23.408  0.0255  0.0739  0.2739
 5979W        W48896  26.895  16.357  24.942 -0.1188 -0.0646 -0.2133
 5980W        W48897  23.966  18.962  24.223  0.1528 -0.1168 -0.0037
 5981W        W48898  22.437  17.154  24.385  0.0962 -0.0833  0.1638
 5982W        W48899  22.507  16.045  27.768 -0.1362 -0.2579 -0.1229
 5983W        W48900  21.724  17.043  26.047 -0.1439 -0.0390  0.1247
 5984W        W48901  24.197  13.150  21.096 -0.1598 -0.2581 -0.1433
 5985W        W48902  24.498  19.031  29.704  0.0707 -0.2454  0.0415
 5986W        W48903  21.998  17.365  24.498  0.0232  0.3275  0.0404
 5987W        W48904  28.092  16.128  25.232  0.0838  0.0721  0.0950
 5988W        W48905  21.325  15.746  24.154  0.0317 -0.4813  0.1165
 5989W        W48906  25.638  16.349  27.466 -0.1054 -0.0087 -0.0783
 5990W        W48907  25.925  17.147  22.464  0.1287  0.1222  0.0844
 5991W        W48908  25.744  15.917  27.619 -0.0546  0.2003  0.0732
 5992W        W48909  23.940  14.133  26.065  0.0528  0.2594 -0.0420
 5993W        W48910  22.869  15.908  23.027  0.1065 -0.2163 -0.3344
 5994W        W48911  23.711  16.905  25.385  0.3387  0.3895 -0.1968
 5995W        W48912  25.571  17.518  25.553  0.4523  0.3647  0.1561
 5996W        W48913  23.655  16.448  25.309  0.2168  0.0872  0.0072
 5997W        W48914  23.412  18.194  26.206  0.0129 -0.1581  0.2082
 5998W        W48915  21.674  16.191  25.705  0.0608 -0.0716 -0.0299
 5999W        W48916  23.220  16.984  28.320 -0.1703 -0.0616  0.2341
 6000W        W48917  23.980  19.679  23.008  0.2056 -0.0804 -0.0871
 6001W        W48918  22.531  14.923  22.907 -0.2106 -0.0320  0.0962
 6002W        W48919  22.515  17.213  23.009 -0.2170 -0.2980 -0.2423
 6003W        W48920  20.421  14.906  25.840  0.3039 -0.1857  0.1170
 6004W        W48921  24.255  15.819  25.825 -0.0167  0.1406 -0.0386
 6005W        W48922  25.719  15.989  25.241 -0.2568 -0.2651  0.0634
 6006W        W48923  19.997  14.707  23.372  0.0621  0.1233  0.1643
 6007W        W48924  23.958  16.368  25.661  0.3468  0.1404 -0.2993
 6008W        W48925  23.406  18.723  24.004  0.2693  0.1642  0.0771
 6009W        W48926  22.954  20.210  24.344 -0.0576 -0.0740  0.0619
 6010W        W48927  24.071  15.821  26.271  0.2042  0.0022  0.1708
 6011W        W48928  24.088  16.131  25.123  0.4812  0.0417 -0.0779
 6012W        W48929  21.123  14.918  23.212 -0.0607  0.0631 -0.2234
 6013W        W48930  21.914  14.703  23.449 -0.1739 -0.2217  0.0347
 6014W        W48931  22.515  17.461  25.945 -0.2108 -0.3579  0.2493
 6015W        W48932  22.158  16.977  24.752 -0.1894 -0.1790 -0.0176
 6016W        W48933  23.217  17.838  27.935 -0.1641  0.1434  0.1179
 6017W        W48934  22.412  14.828  21.965 -0.1028  0.1428  0.0817
 6018W        W48935  25.864  15.210  26.386 -0.0840  0.4830 -0.1384
 6019W        W48936  23.008  15.663  25.299  0.1335  0.0166 -0.0898
 6020W        W48937  23.987  15.670  24.886  0.3080 -0.0063 -0.3109
 6021W        W48938  25.008  15.717  27.881  0.2898 -0.2514 -0.2642
 6022W        W48939  21.141  17.672  24.700 -0.1257 -0.1707 -0.0586
 6023W        W48940  24.258  17.068  28.144  0.0372  0.0559 -0.0063
 6024W        W48941  24.100  19.763  25.322  0.1467 -0.0359  0.0375
 6025W        W48942  21.955  16.808  23.753  0.1251 -0.0839  0.3994
 6026W        W48943  21.452  13.095  23.291  0.0199  0.2305 -0.0776
 6027W        W48944  23.196  20.201  23.891 -0.0281  0.3487 -0.1354
 6028W        W48945  22.593  19.049  25.788  0.2273  0.2908  0.2353
 6029W        W48946  22.187  15.474  23.581 -0.0230  0.2029  0.0865
 6030W        W48947  25.166  20.539  24.708 -0.1104 -0.1945 -0.1181
 6031W        W48948  23.778  15.875  25.505 -0.1752  0.3859  0.1397
 6032W        W48949  22.105  15.971  22.332 -0.4999  0.1173 -0.0666
 6033W        W48950  23.855  16.810  27.860  0.0368  0.0940 -0.1241
 6034W        W48951  26.759  16.798  27.388 -0.4447 -0.2810  0.2942
 6035W        W48952  23.778  15.498  25.881  0.1019 -0.2357  0.0926
 6036W        W48953  21.415  14.546  23.365  0.0518  0.1549 -0.3007
 6037W        W48954  23.578  17.943  27.094 -0.1439  0.0483  0.1832
 6038W        W48955  21.400  17.425  23.229 -0.0547 -0.2124  0.1643
 6039W        W48956  22.037  16.278  21.943  0.1589  0.3136  0.1392
 6040W        W48957  23.117  18.582  23.553  0.0545 -0.0504 -0.2634
 6041W        W48958  25.064  13.726  26.907 -0.1411  0.1416 -0.2384
 6042W        W48959  22.197  16.761  25.333 -0.1846  0.0313  0.1394
 6043W        W48960  24.220  15.636  28.415  0.0338 -0.1837 -0.3895
 6044W        W48961  22.605  16.149  22.360 -0.3471 -0.1768 -0.1027
 6045W        W48962  21.853  16.868  26.553 -0.0283  0.2163  0.0922
 6046W        W48963  24.302  14.143  26.598  0.0671  0.5596  0.0249
 6047W        W48964  24.702  13.715  23.981  0.1078  0.0539 -0.0013
 6048W        W48965  23.846  16.333  27.736 -0.1950  0.2016 -0.0802
 6049W        W48966  25.841  16.801  23.720 -0.1456  0.2617  0.0524
 6050W        W48967  26.151  16.037  24.992 -0.0583  0.0200  0.4505
 6051W        W48968  24.455  13.388  23.674 -0.0622 -0.1186  0.1658
 6052W        W48969  20.292  16.904  23.929 -0.0081  0.1535  0.1656
 6053W        W48970  24.306  18.228  24.675  0.3344  0.4056 -0.2688
 6054W        W48971  24.025  16.338  26.251  0.1379 -0.1709 -0.1521
 6055W        W48972  24.513  17.786  24.463 -0.0137 -0.0191 -0.2006
 6056W        W48973  24.232  16.715  25.931 -0.1342 -0.0885 -0.0253
 6057W        W48974  22.422  16.576  24.624 -0.1190 -0.0621 -0.3634
 6058W        W48975  21.735  16.096  27.090  0.0727 -0.1020  0.1076
 6059W        W48976  24.313  17.301  24.678 -0.1944 -0.0675 -0.0088
 6060W        W48977  23.621  15.790  27.230  0.1692  0.2322 -0.0767
 6061W        W48978  23.281  16.133  23.319 -0.3611  0.3652  0.1760
 6062W        W48979  24.028  15.020  26.083 -0.2075 -0.0377 -0.0312
 6063W        W48980  21.235  17.125  22.809 -0.2089 -0.1482  0.3392
 6064W        W48981  24.855  18.077  29.856  0.1775 -0.0598  0.4698
 6065W        W48982  23.004  15.988  26.500 -0.1998 -0.1966  0.0940
 6066W        W48983  21.885  16.385  28.428 -0.0108  0.1079  0.1998
 6067W        W48984  25.182  16.495  27.897  0.1465  0.2063  0.2913
 6068W        W48985  22.795  16.573  23.648  0.0574 -0.2862 -0.0529
 6069W        W48986  24.551  16.891  22.120 -0.3159  0.1896  0.2044
 6070W        W48987  23.540  14.902  24.072  0.0392  0.1210  0.2367
 6071W        W48988  24.790  15.899  26.687 -0.0195 -0.0027  0.1880
 6072W        W48989  21.680  16.443  23.472 -0.1210 -0.0968 -0.2107
 6073W        W48990  21.354  16.068  23.398 -0.1272  0.2441 -0.2243
 6074W        W48991  25.878  18.084  26.954  0.1055 -0.1027  0.0023
 6075W        W48992  25.926  16.209  23.697  0.1552 -0.1889 -0.0006
 6076W        W48993  23.814  16.784  27.280 -0.0273 -0.3723 -0.0414
 6077W        W48994  22.289  14.605  25.873  0.2327  0.1155 -0.1827
 6078W        W48995  21.479  17.827  23.721 -0.1508 -0.1723 -0.1873
 6079W        W48996  22.805  18.818  26.229 -0.1773 -0.1784 -0.0399
 6080W        W48997  21.896  14.841  27.533  0.0766 -0.0953  0.0694
 6081W        W48998  24.592  17.240  26.315 -0.0767  0.0382 -0.0268
 6082W        W48999  22.544  18.139  24.228  0.0221 -0.1321  0.2560
 6083W        W49000  22.666  16.272  26.240  0.2110  0.1416 -0.0074
 6084W        W49001  23.204  17.943  24.342 -0.0828  0.2094 -0.0554
 6085W        W49002  23.486  12.770  27.414 -0.0750 -0.3036  0.2745
 6086W        W49003  23.788  16.603  23.110 -0.0737 -0.2002 -0.3512
 6087W        W49004  22.632  15.743  23.698  0.0165 -0.0931 -0.1072
 6088W        W49005  21.733  18.390  24.792 -0.0434  0.0547  0.0155
 6089W        W49006  24.619  15.070  25.854 -0.1615  0.0016  0.1444
 6090W        W49007  23.199  17.523  27.046  0.1302  0.1013  0.0120
 6091W        W49008  22.572  18.205  25.444  0.1738 -0.1712  0.2829
 6092W        W49009  22.517  15.380  26.428 -0.0221  0.3384 -0.1224
 6093W        W49010  24.212  17.104  25.543 -0.2415  0.0176  0.0181
 6094W        W49011  25.265  16.070  27.642 -0.2005 -0.0284  0.0816
 6095W        W49012  25.490  13.438  24.702  0.1067  0.0001  0.2331
 6096W        W49013  24.315  16.355  27.529 -0.1300 -0.0470  0.1423
 6097W        W49014  21.682  17.887  24.567 -0.2428  0.3510  0.0416
 6098W        W49015  20.510  14.255  22.013 -0.0515 -0.0005  0.1083
 6099W        W49016  24.178  16.030  27.017  0.0349  0.0604  0.0972
 6100W        W49017  22.213  15.588  24.123  0.1141  0.0153  0.0317
 6101W        W49018  21.997  17.255  23.269 -0.0149  0.3297  0.2759
 6102W        W49019  26.179  17.849  26.629 -0.0947  0.0914 -0.0053
 6103W        W49020  24.761  14.479  24.739 -0.0773 -0.1266 -0.0396
 6104W        W49021  23.930  17.427  25.232  0.2072  0.0883 -0.0579
 6105W        W49022  22.685  14.965  25.978  0.2371 -0.1704 -0.2572
 6106W        W49023  25.456  15.161  25.994 -0.0542 -0.1082  0.1199
 6107W        W49024  25.865  14.918  23.733 -0.1211 -0.0239 -0.1425
 6108W        W49025  22.526  15.105  23.448 -0.1258 -0.1798  0.0909
 6109W        W49026  22.000  18.157  25.142 -0.2429 -0.1737  0.2648
 6110W        W49027  24.775  14.435  26.325  0.0303 -0.0790 -0.0844
 6111W        W49028  22.065  16.111  27.438  0.1631  0.1028  0.0104
 6112W        W49029  21.658  16.170  25.155 -0.0621  0.1936  0.1713
 6113W        W49030  23.140  16.163  26.034 -0.0788 -0.2685 -0.2217
 6114W        W49031  25.130  16.624  25.300  0.2423  0.0180 -0.1175
 6115W        W49032  24.376  18.154  27.071 -0.1092  0.0639  0.0212
 6116W        W49033  22.951  17.010  25.334  0.1090  0.0152 -0.2127
 6117W        W49034  22.511  15.931  24.781  0.0628 -0.1022  0.0852
 6118W        W49035  23.946  18.735  23.653  0.2975 -0.0112  0.1219
 6119W        W49036  24.411  17.580  28.032  0.0181  0.2114 -0.0755
 6120W        W49037  21.660  15.534  27.951  0.2162 -0.1092 -0.1088
 6121W        W49038  24.092  18.095  23.874 -0.0207  0.1303  0.1591
 6122W        W49039  22.586  15.547  23.170  0.2201  0.1186  0.0333
 6123W        W49040  28.207  14.907  25.820  0.0346 -0.1650  0.3796
 6124W        W49041  23.462  18.437  24.413 -0.1442  0.2239 -0.0212
 6125W        W49042  25.222  15.468  25.609 -0.3044 -0.1347  0.0510
 6126W        W49043  22.714  17.524  27.880  0.0969 -0.0414 -0.0810
 6127W        W49044  25.550  15.884  25.711 -0.1050  0.0690 -0.0278
 6128W        W49045  21.503  17.267  26.482  0.0378 -0.3796 -0.0850
 6129W        W49046  24.338  15.568  26.635 -0.1620  0.4269  0.0823
 6130W        W49047  24.372  18.638  24.308  0.1352  0.0899 -0.0076
 6131W        W49048  21.532  15.728  23.039 -0.2142  0.0086 -0.1359
 6132W        W49049  24.637  18.964  26.374 -0.0360 -0.2924  0.2013
 6133W        W49050  22.224  17.034  26.167 -0.2049  0.0138 -0.0065
 6134W        W49051  22.737  14.361  23.474  0.0580 -0.0473 -0.3463
 6135W        W49052  21.565  14.516  23.862 -0.0795  0.1015  0.1580
 6136W        W49053  24.115  17.669  25.626 -0.2857 -0.0545  0.3877
 6137W        W49054  24.579  18.070  26.150 -0.0409  0.1968  0.3762
 6138W        W49055  24.263  19.422  24.952 -0.0434  0.1545 -0.4704
 6139W        W49056  23.862  16.292  26.761 -0.0434  0.1540 -0.2039
 6140W        W49057  22.194  16.721  24.218  0.1102  0.0180  0.1327
 6141W        W49058  25.289  15.704  24.027 -0.2983 -0.3122  0.1447
 6142W        W49059  24.221  15.002  23.209 -0.1122 -0.1696  0.2526
 6143W        W49060  22.945  15.753  24.639  0.1767  0.0100 -0.1352
 6144W        W49061  22.337  17.015  26.802 -0.1352 -0.2204 -0.1341
 6145W        W49062  22.716  15.828  26.048 -0.2112  0.1306  0.2245
 6146W        W49063  22.039  15.234  27.807 -0.4540 -0.0457  0.0997
 6147W        W49064  23.955  16.137  28.575 -0.0333 -0.1075  0.1433
 6148W        W49065  25.075  17.500  25.758 -0.1708  0.1108  0.1208
 6149W        W49066  24.186  16.672  26.559  0.0915  0.0131 -0.3277
 6150W        W49067  21.901  14.653  22.069  0.0866  0.3213 -0.3845
 6151W        W49068  24.817  17.043  25.498 -0.0791 -0.0597  0.0515
 6152W        W49069  24.218  14.305  23.141  0.2017 -0.4271 -0.2049
 6153W        W49070  24.945  15.981  25.974 -0.2587 -0.0345  0.0682
 6154W        W49071  24.204  16.421  23.968  0.3683  0.3972 -0.3816
 6155W        W49072  23.980  14.987  21.411  0.0140 -0.2198 -0.0502
 6156W        W49073  22.985  15.132  23.862 -0.0724  0.1379 -0.0584
 6157W        W49074  25.657  18.624  27.629 -0.1461 -0.1569  0.1107
 6158W        W49075  21.588  13.667  23.385  0.5046  0.1697 -0.1186
 6159W        W49076  24.752  17.040  28.072 -0.2146 -0.1505 -0.3455
 6160W        W49077  25.618  18.105  24.833  0.1452 -0.0511 -0.1136
 6161W        W49078  24.674  16.576  25.654 -0.1116 -0.0476  0.0348
 6162W        W49079  23.163  14.971  27.144  0.0808 -0.1234  0.2376
 6163W        W49080  21.484  14.904  24.206  0.3024  0.0684 -0.0508
 6164W        W49081  21.488  17.342  24.215  0.0053 -0.3699 -0.1315
 6165W        W49082  23.958  13.525  23.363  0.5166  0.0385 -0.2037
 6166W        W49083  22.443  16.542  25.830  0.1075  0.0618  0.0474
 6167W        W49084  24.395  17.375  25.143 -0.1165 -0.0445  0.1290
 6168W        W49085  25.133  16.232  26.903  0.3064 -0.3157 -0.0923
 6169W        W49086  23.302  16.626  23.664  0.5107 -0.0399 -0.1881
 6170W        W49087  24.725  16.134  27.705  0.0742 -0.0933 -0.0434
 6171W        W49088  21.511  19.007  22.226  0.0533  0.0985 -0.1104
 6172W        W49089  24.457  13.621  26.764 -0.3096  0.0899  0.0494
 6173W        W49090  23.763  16.896  25.898  0.3399  0.0961 -0.0881
 6174W        W49091  22.394  16.043  23.050  0.0662  0.0215 -0.2139
 6175W        W49092  23.945  18.217  23.314  0.0767 -0.0535  0.2583
 6176W        W49093  24.063  15.869  27.473  0.0510 -0.2053  0.4631
 6177W        W49094  23.791  14.718  24.502  0.0323 -0.0997 -0.2858
 6178W        W49095  22.993  16.465  26.619 -0.2080  0.1553  0.0511
 6179W        W49096  24.954  17.465  28.061 -0.3614 -0.1341 -0.0984
 6180W        W49097  25.390  17.918  28.896  0.0195  0.0423 -0.0268
 6181W        W49098  22.014  15.846  23.250 -0.0081  0.0387 -0.0062
 6182W        W49099  25.526  16.493  26.959 -0.2774 -0.3160 -0.0302
 6183W        W49100  25.850  15.354  25.895  0.0566 -0.1862  0.3108
 6184W        W49101  23.481  16.630  26.770  0.0655  0.0701 -0.1547
 6185W        W49102  20.576  15.272  26.565 -0.1218 -0.2107  0.1718
 6186W        W49103  22.163  15.971  26.933 -0.0796 -0.0785  0.1467
 6187W        W49104  22.652  15.990  24.256  0.1170 -0.0899  0.0796
 6188W        W49105  24.913  15.358  26.094  0.1520  0.2552  0.2519
 6189W        W49106  24.711  19.815  22.422  0.1986 -0.0059  0.1119
 6190W        W49107  21.419  16.358  23.917 -0.2068  0.1972  0.0694
 6191W        W49108  21.232  15.382  25.018  0.0693  0.1021 -0.1406
 6192W        W49109  22.788  17.103  21.863  0.2609  0.1663  0.0728
 6193W        W49110  23.146  18.289  24.032  0.2507 -0.2031  0.2572
 6194W        W49111  22.959  17.418  25.698 -0.0593 -0.0599 -0.0459
 6195W        W49112  24.949  17.807  23.826  0.0492 -0.2659  0.1488
 6196W        W49113  24.274  16.563  25.359 -0.3355 -0.0580  0.0628
 6197W        W49114  22.453  16.595  22.090  0.1553  0.1333 -0.1634
 6198W        W49115  22.010  16.594  22.325  0.0753  0.0661 -0.0815
 6199W        W49116  23.517  19.798  25.583 -0.1818  0.0069  0.3638
 6200W        W49117  23.033  19.059  23.748  0.3299 -0.2092  0.0898
 6201W        W49118  25.335  16.926  28.804 -0.1259 -0.0805 -0.0693
 6202W        W49119  23.589  14.427  24.066 -0.0236 -0.1979 -0.2588
 6203W        W49120  23.325  16.084  26.958 -0.1891  0.1534  0.2725
 6204W        W49121  24.416  14.358  25.588 -0.0272 -0.0336  0.1955
 6205W        W49122  21.980  17.341  26.551 -0.3689  0.1553 -0.1572
 6206W        W49123  22.557  15.318  21.855 -0.2485 -0.0715 -0.0959
 6207W        W49124  23.902  15.363  25.245  0.1468  0.2932  0.2441
 6208W        W49125  23.357  17.624  26.011 -0.1129 -0.1101  0.3173
 6209W        W49126  25.663  13.737  26.991 -0.3685 -0.2937 -0.2314
 6210W        W49127  21.452  15.721  24.793 -0.2397  0.3921  0.0736
 6211W        W49128  25.376  19.895  25.354 -0.1712  0.1780  0.3365
 6212W        W49129  23.315  16.098  25.433 -0.0587 -0.0029  0.0093
 6213W        W49130  22.673  17.005  25.711  0.0967 -0.1761  0.0487
 6214W        W49131  24.747  14.883  27.989  0.0538  0.7434 -0.1847
 6215W        W49132  23.854  16.486  24.834 -0.1929 -0.0220  0.5010
 6216W        W49133  21.643  15.824  27.504  0.0873 -0.2318  0.1062
 6217W        W49134  23.187  18.177  24.808 -0.1784  0.1715  0.0946
 6218W        W49135  21.976  18.219  27.821  0.1052 -0.0917 -0.2809
 6219W        W49136  22.987  17.162  26.127  0.0452  0.0509  0.2439
 6220W        W49137  22.102  14.987  22.477  0.1539 -0.2646 -0.4467
 6221W        W49138  24.683  16.693  26.269 -0.2684 -0.1147  0.0549
 6222W        W49139  21.274  16.452  25.406  0.0999  0.0981  0.0325
 6223W        W49140  25.868  15.626  27.252  0.3629 -0.2182  0.2396
 6224W        W49141  22.860  16.315  24.584  0.4079  0.0393  0.1534
 6225W        W49142  27.118  17.195  25.526  0.0524  0.3970 -0.1320
 6226W        W49143  23.669  17.371  25.784 -0.1907  0.0825  0.2752
 6227W        W49144  20.727  17.246  24.666  0.0783  0.0587  0.0113
 6228W        W49145  23.755  17.483  23.865  0.0892  0.1099  0.0215
 6229W        W49146  25.366  17.703  27.826 -0.0527 -0.0324 -0.1152
 6230W        W49147  23.540  15.004  25.064 -0.0941  0.1957 -0.1676
 6231W        W49148  22.143  17.108  25.642  0.1866 -0.2163  0.0140
 6232W        W49149  20.992  16.774  25.636  0.2215  0.0627 -0.2298
 6233W        W49150  24.921  13.617  24.480 -0.0613 -0.0654 -0.0901
 6234W        W49151  23.895  18.669  24.656 -0.2489 -0.3042  0.3182
 6235W        W49152  21.851  16.607  25.046 -0.1879 -0.2110  0.0586
 6236W        W49153  24.934  18.234  26.983  0.0666  0.1892  0.3630
 6237W        W49154  21.622  14.500  26.428 -0.3159 -0.0710 -0.3750
 6238W        W49155  26.701  17.708  24.257 -0.2214  0.2585  0.1356
 6239W        W49156  25.367  15.825  28.895 -0.2247  0.0951  0.0069
 6240W        W49157  23.399  17.912  23.084 -0.1999  0.0077 -0.2001
 6241W        W49158  24.764  16.351  25.132 -0.1597 -0.1334  0.0250
 6242W        W49159  24.546  19.683  24.547 -0.2533 -0.1230  0.2760
 6243W        W49160  22.254  15.327  22.882  0.0157  0.0232 -0.1777
 6244W        W49161  25.258  16.987  28.050 -0.0577  0.0512  0.3934
 6245W        W49162  25.300  17.137  24.474 -0.0642 -0.1513 -0.0542
 6246W        W49163  23.681  13.335  23.798  0.2150 -0.0357  0.0047
 6247W        W49164  23.768  15.800  26.728 -0.0624  0.0602 -0.2094
 6248W        W49165  22.562  18.883  24.796 -0.0248 -0.0382  0.1607
 6249W        W49166  24.706  17.470  26.706  0.2761  0.0012 -0.0935
 6250W        W49167  23.539  17.065  27.569  0.0998 -0.1681  0.2309
 6251W        W49168  22.515  18.534  25.921 -0.1637  0.1907 -0.2738
 6252W        W49169  24.923  15.585  29.535  0.3035  0.2929 -0.0881
 6253W        W49170  24.436  17.029  26.826  0.2096 -0.0156  0.1685
 6254W        W49171  20.662  16.994  25.121 -0.0244  0.0589 -0.3209
 6255W        W49172  23.392  15.630  21.576  0.2060  0.1110 -0.2099
 6256W        W49173  20.247  18.483  25.083 -0.3955  0.2274 -0.2479
 6257W        W49174  24.365  16.324  24.714 -0.2790  0.3950  0.0483
 6258W        W49175  23.160  19.256  23.289 -0.1151  0.2901  0.2844
 6259W        W49176  24.951  17.805  28.482  0.0311  0.1215  0.4565
 6260W        W49177  24.645  16.285  27.125 -0.3356 -0.1232  0.2774
 6261W        W49178  24.363  16.868  24.151  0.0691  0.0383  0.1919
 6262W        W49179  22.678  14.807  24.290  0.0982  0.0397  0.2253
 6263W        W49180  26.627  15.590  25.221 -0.0292 -0.0352  0.0265
 6264W        W49181  24.748  16.836  21.663 -0.0444 -0.2046 -0.0803
 6265W        W49182  23.625  17.436  26.690  0.1392 -0.1779 -0.3276
 6266W        W49183  21.927  16.369  24.041  0.1711  0.4064  0.3239
 6267W        W49184  22.159  17.576  23.668  0.0559  0.1920  0.0648
 6268W        W49185  21.800  15.926  24.279  0.0057 -0.0389 -0.0074
 6269W        W49186  23.039  14.230  28.335 -0.1295  0.0397 -0.0223
 6270W        W49187  21.694  15.507  23.518  0.0587 -0.0266  0.2849
 6271W        W49188  21.724  15.666  21.496  0.2492 -0.0232  0.0829
 6272W        W49189  22.619  16.338  27.271  0.1114 -0.0885  0.0333
 6273W        W49190  25.470  15.326  24.698 -0.4507  0.0308  0.1102
 6274W        W49191  24.326  15.355  24.543  0.0912  0.0626 -0.2311
 6275W        W49192  22.208  15.634  26.128 -0.1276  0.0088 -0.1831
 6276W        W49193  24.857  16.155  24.668 -0.3778  0.0644 -0.1665
 6277W        W49194  24.594  16.846  24.650  0.1945 -0.0934  0.0105
 6278W        W49195  23.397  15.773  25.031  0.2935 -0.1116 -0.0518
 6279W        W49196  25.088  17.672  29.369 -0.0733 -0.1104 -0.0848
 6280W        W49197  22.595  15.190  22.482 -0.2453 -0.0196  0.0699
 6281W        W49198  22.999  17.447  28.269 -0.1000 -0.2530  0.1659
 6282W        W49199  21.788  16.485  26.203  0.0070 -0.2400 -0.2232
 6283W        W49200  22.360  13.689  22.461  0.3663  0.1405  0.2873
 6284W        W49201  21.195  16.105  24.993 -0.0198  0.0492  0.0585
 6285W        W49202  23.147  17.001  26.644  0.2806  0.0491  0.1693
 6286W        W49203  25.905  20.469  22.704 -0.0438  0.1505 -0.1843
 6287W        W49204  23.342  16.018  24.318 -0.0399 -0.2208 -0.0066
 6288W        W49205  21.435  19.531  26.065 -0.0402 -0.1649 -0.0070
 6289W        W49206  23.104  15.290  25.022  0.1253 -0.0320 -0.0380
 6290W        W49207  26.817  15.139  26.993  0.0336 -0.2087 -0.3351
 6291W        W49208  23.314  18.373  29.206  0.2151  0.0050  0.1575
 6292W        W49209  25.809  17.245  25.917 -0.0892 -0.1195  0.3704
 6293W        W49210  26.985  15.597  26.995 -0.0552  0.1339  0.1373
 6294W        W49211  23.758  17.323  24.797  0.0955 -0.2638  0.1155
 6295W        W49212  22.718  14.781  28.073  0.2474  0.1150  0.3596
 6296W        W49213  22.135  17.015  27.615 -0.1954  0.0776  0.0249
 6297W        W49214  25.327  19.098  27.575  0.1451  0.3551 -0.2020
 6298W        W49215  20.348  15.078  24.955  0.1087 -0.1711 -0.1783
 6299W        W49216  25.722  14.361  25.709 -0.0058 -0.4348  0.3299
 6300W        W49217  23.643  17.698  24.429  0.0393  0.0559  0.1477
 6301W        W49218  21.500  15.017  23.665  0.1618 -0.1509 -0.3810
 6302W        W49219  23.446  15.939  22.800  0.0112  0.2793  0.3386
 6303W        W49220  22.031  16.290  26.630  0.0689  0.1165  0.0922
 6304W        W49221  23.653  17.163  24.315  0.3141  0.1219 -0.3080
 6305W        W49222  25.736  15.709  26.242 -0.1848  0.0684  0.1182
 6306W        W49223  24.374  14.845  24.549  0.3425  0.0486 -0.0041
 6307W        W49224  24.424  15.779  24.767  0.0104  0.1171  0.0345
 6308W        W49225  22.601  17.075  27.686  0.4480 -0.3989  0.0631
 6309W        W49226  22.665  18.851  28.533  0.1491  0.0268  0.3049
 6310W        W49227  23.779  18.279  27.991 -0.2542 -0.0051  0.0269
 6311W        W49228  26.102  16.492  26.077  0.3999  0.1127  0.1126
 6312W        W49229  21.512  14.679  26.989 -0.0094 -0.0193  0.0915
 6313W        W49230  24.909  14.227  26.758  0.1484  0.2294  0.0148
 6314W        W49231  22.762  18.032  24.972 -0.1473  0.2627  0.0297
 6315W        W49232  23.389  16.564  27.417  0.1175 -0.0889 -0.3613
 6316W        W49233  23.126  15.632  27.096 -0.0270  0.2395 -0.0622
 6317W        W49234  25.432  12.925  26.089 -0.1021  0.0213 -0.0115
 6318W        W49235  22.186  18.836  26.140 -0.0246 -0.0229  0.2668
 6319W        W49236  23.491  16.209  26.454  0.1006  0.1843  0.1173
 6320W        W49237  21.599  16.297  31.349 -0.0208 -0.0445  0.0502
 6321W        W49238  21.344  15.113  27.904  0.1671 -0.1508 -0.0850
 6322W        W49239  25.039  16.412  29.598 -0.2579  0.0028  0.0598
 6323W        W49240  24.924  17.117  29.363 -0.1026  0.2178  0.0228
 6324W        W49241  20.134  15.820  28.461  0.1878  0.0464  0.2192
 6325W        W49242  21.769  17.383  27.481 -0.2918 -0.0022 -0.2359
 6326W        W49243  21.715  15.954  30.088 -0.2756 -0.1291 -0.2300
 6327W        W49244  24.635  18.375  30.254 -0.3491  0.4783  0.4522
 6328W        W49245  26.908  15.915  30.010  0.0299 -0.0704  0.0646
 6329W        W49246  23.657  16.522  28.904  0.0022 -0.2008  0.2266
 6330W        W49247  22.381  17.018  31.687 -0.3619  0.1903 -0.0358
 6331W        W49248  23.008  14.655  29.255 -0.2063  0.1499 -0.6909
 6332W        W49249  23.209  13.844  29.923  0.1633  0.2343 -0.2379
 6333W        W49250  19.637  13.386  30.047  0.0357  0.1197 -0.2488
 6334W        W49251  22.736  17.343  29.168 -0.1671  0.3875 -0.2679
 6335W        W49252  19.641  15.311  26.279  0.1909 -0.0698  0.1635
 6336W        W49253  21.575  13.786  31.039  0.4099 -0.1000  0.1483
 6337W        W49254  24.068  18.715  27.278  0.0231  0.2000 -0.0773
 6338W        W49255  21.193  16.607  27.193  0.2500  0.1815 -0.3351
 6339W        W49256  22.944  15.523  31.382  0.1018  0.3390 -0.0855
 6340W        W49257  22.865  14.976  31.525  0.2935 -0.0079  0.3785
 6341W        W49258  21.356  17.885  27.336 -0.1914 -0.2116 -0.0674
 6342W        W49259  24.253  14.578  26.070 -0.1428  0.1430 -0.1148
 6343W        W49260  21.258  16.412  28.969 -0.0325 -0.2060 -0.0791
 6344W        W49261  22.120  15.587  30.496  0.1139 -0.1673 -0.2459
 6345W        W49262  22.961  13.924  30.596 -0.1628 -0.2987  0.0638
 6346W        W49263  24.028  16.551  29.708  0.1479  0.6114 -0.1245
 6347W        W49264  23.033  17.130  27.897  0.1456  0.1859  0.1798
 6348W        W49265  22.570  18.106  28.772 -0.1187  0.2099  0.3745
 6349W        W49266  26.320  18.095  31.274  0.2534 -0.0841  0.2385
 6350W        W49267  21.020  15.552  26.313  0.4014 -0.1364  0.0095
 6351W        W49268  19.709  18.144  28.135 -0.1094 -0.0878  0.1116
 6352W        W49269  23.241  17.448  27.583  0.1243 -0.0076 -0.0259
 6353W        W49270  23.069  16.426  28.840 -0.2435  0.1563  0.3228
 6354W        W49271  24.137  17.708  28.922 -0.1819  0.1222 -0.1738
 6355W        W49272  19.700  17.921  29.767 -0.0689  0.0942 -0.1158
 6356W        W49273  20.500  15.644  24.832 -0.0790 -0.2360  0.0176
 6357W        W49274  24.459  19.192  30.395  0.0213 -0.1342  0.1394
 6358W        W49275  24.786  18.537  29.733 -0.0925 -0.2304  0.0457
 6359W        W49276  23.293  18.433  30.802  0.2646  0.1450  0.0329
 6360W        W49277  22.725  15.475  30.432 -0.4397 -0.0219 -0.0748
 6361W        W49278  24.312  17.703  26.060 -0.0133 -0.0681 -0.1250
 6362W        W49279  24.208  14.938  27.882  0.1588  0.0949  0.1057
 6363W        W49280  23.682  16.607  31.300 -0.0180 -0.0075  0.3763
 6364W        W49281  21.908  16.512  30.011  0.0253 -0.0813  0.1830
 6365W        W49282  24.971  16.056   0.335 -0.0619  0.2278  0.0004
 6366W        W49283  24.988  19.004  25.591  0.2260  0.2937  0.3900
 6367W        W49284  26.076  16.354  27.705 -0.2219 -0.1673  0.0667
 6368W        W49285  23.511  14.045  26.971  0.0837 -0.1811  0.0642
 6369W        W49286  24.557  15.631  27.599 -0.0713  0.1981 -0.2540
 6370W        W49287  21.898  12.678  29.437  0.3429 -0.1910  0.0138
 6371W        W49288  23.575  13.980  29.057  0.1096  0.0460  0.0284
 6372W        W49289  24.867  16.953  28.900  0.0285  0.0826  0.0154
 6373W        W49290  25.812  15.462  30.602 -0.1813  0.1957 -0.2111
 6374W        W49291  23.139  15.028  28.409  0.2445  0.1796  0.2308
 6375W        W49292  23.016  15.883  30.283  0.2261 -0.1317 -0.4183
 6376W        W49293  22.850  17.993  29.197  0.2537 -0.3130 -0.1872
 6377W        W49294  21.258  16.486  27.710 -0.1914  0.1120 -0.1512
 6378W        W49295  25.706  18.825  28.617 -0.1339 -0.2338  0.2759
 6379W        W49296  23.815  19.315  29.214  0.1177 -0.2770 -0.3786
 6380W        W49297  22.007  17.066  27.122 -0.0835  0.1407 -0.2398
 6381W        W49298  19.933  16.213  25.405 -0.0648  0.0958 -0.1205
 6382W        W49299  22.729  14.586  30.292  0.1161  0.1499 -0.2454
 6383W        W49300  22.071  13.970  29.206 -0.2908 -0.1341 -0.3384
 6384W        W49301  21.286  15.149  26.078  0.1937  0.0097  0.2523
 6385W        W49302  24.945  17.711   0.321 -0.3876 -0.1807 -0.1415
 6386W        W49303  21.791  16.510  29.345 -0.2995  0.0961 -0.0850
 6387W        W49304  24.992  14.828  30.605  0.1947 -0.3330 -0.0552
 6388W        W49305  20.992  15.609  26.812 -0.0920 -0.1967 -0.0646
 6389W        W49306  22.419  19.150  28.179 -0.0136 -0.2276 -0.2210
 6390W        W49307  22.725  16.710  28.007 -0.0141  0.0868 -0.0570
 6391W        W49308  23.459  14.490  29.065  0.2344 -0.2827  0.0413
 6392W        W49309  25.382  17.301  31.802 -0.1466  0.1360 -0.1866
 6393W        W49310  23.291  18.738  27.692 -0.0031 -0.0308  0.0843
 6394W        W49311  22.787  16.395  28.442 -0.0538  0.0194  0.0548
 6395W        W49312  25.825  19.294  29.491 -0.0951  0.4070 -0.0570
 6396W        W49313  24.311  15.948  27.989  0.2098  0.0196  0.1315
 6397W        W49314  21.233  17.455  27.542  0.1898  0.1464  0.2588
 6398W        W49315  22.935  16.328  31.869  0.2371  0.2026  0.1356
 6399W        W49316  24.565  17.390  31.477  0.1099 -0.1340 -0.0316
 6400W        W49317  21.536  17.705  26.056  0.1671 -0.1024 -0.0808
 6401W        W49318  21.174  15.821  28.186  0.3101 -0.1250 -0.1400
 6402W        W49319  21.592  17.285  25.634 -0.1213 -0.1275  0.1435
 6403W        W49320  23.128  14.129  28.939 -0.2111 -0.4182  0.0457
 6404W        W49321  23.477  17.448  28.507 -0.1651  0.2178 -0.0442
 6405W        W49322  23.445  15.742  29.418 -0.1959 -0.1574 -0.2258
 6406W        W49323  21.660  16.874  30.727 -0.0788  0.2098  0.1160
 6407W        W49324  24.041  15.807  29.559 -0.3776  0.0270  0.1419
 6408W        W49325  22.984  17.113  27.348  0.3016  0.1603  0.0429
 6409W        W49326  24.446  18.619  29.284 -0.1706  0.1924  0.0465
 6410W        W49327  25.269  13.682  29.460 -0.3234  0.1921  0.0781
 6411W        W49328  24.025  15.318  27.597  0.0015  0.0356 -0.0259
 6412W        W49329  21.272  14.991  29.195 -0.1890  0.2237 -0.0520
 6413W        W49330  23.777  17.020  28.417  0.1245  0.1724 -0.2160
 6414W        W49331  23.632  16.037  29.009  0.0253  0.2142 -0.0845
 6415W        W49332  22.153  16.063  29.746 -0.2311  0.1236  0.0590
 6416W        W49333  24.247  16.899  27.486  0.0442  0.0902  0.0869
 6417W        W49334  21.708  14.070  28.772  0.0375 -0.1258  0.3371
 6418W        W49335  23.973  15.469  27.062  0.1553  0.3078 -0.0758
 6419W        W49336  21.407  16.903  25.320  0.0604  0.3422 -0.2329
 6420W        W49337  19.650  17.071  26.807  0.0227 -0.4637 -0.5983
 6421W        W49338  25.920  14.219   0.047  0.1191  0.4192 -0.0327
 6422W        W49339  24.978  19.517  27.622 -0.4123 -0.3509 -0.0465
 6423W        W49340  25.802  18.291   1.224  0.1012 -0.1955 -0.0396
 6424W        W49341  25.820  19.037  30.372  0.4959  0.0397  0.0002
 6425W        W49342  23.562  13.679  30.397 -0.1498 -0.1309 -0.0134
 6426W        W49343  19.597  15.329  24.388 -0.0459  0.1238  0.3891
 6427W        W49344  21.494  18.267  27.618 -0.1813 -0.0336  0.2223
 6428W        W49345  23.649  16.269  29.528 -0.1773  0.1944 -0.0721
 6429W        W49346  22.126  15.656  27.627 -0.1149 -0.1621  0.0949
 6430W        W49347  23.996  16.965  31.520  0.2794 -0.2530  0.0837
 6431W        W49348  23.672  17.737  27.757 -0.0695  0.1268 -0.0937
 6432W        W49349  20.667  16.766  28.632 -0.4093 -0.0049 -0.2455
 6433W        W49350  23.494  15.317   0.989  0.0706  0.0578  0.1656
 6434W        W49351  25.430  16.877  29.671  0.1170 -0.4010 -0.0940
 6435W        W49352  23.229  14.771  30.291  0.0895 -0.5238  0.0180
 6436W        W49353  21.255  15.401  23.336  0.0752  0.0412 -0.1755
 6437W        W49354  23.317  19.241  28.422  0.2914 -0.2509  0.1774
 6438W        W49355  21.173  18.133  25.882 -0.2364 -0.0821 -0.0032
 6439W        W49356  21.089  16.400  29.454  0.0886  0.1513 -0.3299
 6440W        W49357  22.005  17.468  26.075 -0.0137 -0.0621  0.0324
 6441W        W49358  23.911  15.586  30.057  0.0370 -0.0003 -0.1606
 6442W        W49359  21.929  16.760  31.721  0.1340  0.0698  0.3067
 6443W        W49360  25.519  15.897  30.692  0.0357 -0.0250 -0.2698
 6444W        W49361  20.574  16.810  26.502 -0.0260  0.0752 -0.0095
 6445W        W49362  23.349  15.851  28.430 -0.0872  0.3750  0.1817
 6446W        W49363  21.681  13.140  29.171  0.3017 -0.0711 -0.3220
 6447W        W49364  23.865  14.455  28.795 -0.1369 -0.0940 -0.0304
 6448W        W49365  23.490  17.499  30.433 -0.0301 -0.2104  0.2446
 6449W        W49366  25.046  17.238  28.512  0.0169  0.2346  0.1003
 6450W        W49367  23.298  16.579  26.255  0.1347  0.2350 -0.1254
 6451W        W49368  22.970  16.422  27.629  0.1424  0.1420 -0.0699
 6452W        W49369  22.478  16.185  31.616  0.1742 -0.1181  0.1540
 6453W        W49370  22.423  17.166  28.830 -0.1433  0.1088 -0.3899
 6454W        W49371  23.186  15.731  28.977  0.2098  0.2919  0.2485
 6455W        W49372  23.626  14.945  28.028 -0.0669  0.1513 -0.2022
 6456W        W49373  22.700  16.781  28.958  0.3139  0.0949  0.2303
 6457W        W49374  23.689  16.615  30.213 -0.0231 -0.2639  0.2002
 6458W        W49375  24.471  16.872  31.370 -0.2077  0.2026  0.1584
 6459W        W49376  23.909  18.603  29.443 -0.2406 -0.1659 -0.0759
 6460W        W49377  21.987  13.783  30.646 -0.1375  0.1117  0.3436
 6461W        W49378  21.192  17.094  25.969 -0.0635  0.0152  0.0265
 6462W        W49379  23.403  12.794  29.399 -0.1083 -0.0350 -0.0691
 6463W        W49380  20.709  17.977  26.080  0.0305 -0.1590  0.2204
 6464W        W49381  24.609  14.354  29.953  0.2212  0.1421  0.1560
 6465W        W49382  23.706  15.179  30.353 -0.1570 -0.2816  0.1227
 6466W        W49383  22.935  15.014   0.425 -0.0746  0.0765  0.1833
 6467W        W49384  27.571  16.332   0.914 -0.3339 -0.1379 -0.0881
 6468W        W49385  22.230  17.498  27.440  0.0572 -0.1425  0.1447
 6469W        W49386  22.609  14.996  28.590  0.0472  0.0015  0.2201
 6470W        W49387  23.029  15.678  28.031  0.3552 -0.1000 -0.1388
 6471W        W49388  22.630  16.615  31.458  0.1861  0.0830  0.1430
 6472W        W49389  21.344  15.011  30.206  0.1050  0.1592 -0.0359
 6473W        W49390  20.392  17.447  27.406  0.0997  0.2052 -0.0378
 6474W        W49391  21.997  18.748  29.213  0.2692  0.0764  0.1604
 6475W        W49392  22.106  17.349  28.520 -0.2156  0.2821 -0.0801
 6476W        W49393  22.410  15.041   0.389  0.2519  0.1409 -0.0049
 6477W        W49394  23.887  15.556  28.049  0.0147 -0.0208 -0.1893
 6478W        W49395  21.141  17.916  30.164 -0.2658  0.0742 -0.0417
 6479W        W49396  20.609  17.226  26.838 -0.0152  0.2204  0.3401
 6480W        W49397  22.563  14.437  28.523  0.0788  0.2245 -0.2210
 6481W        W49398  23.827  14.921  29.110  0.0672 -0.1925  0.0997
 6482W        W49399  22.931  15.922  27.448  0.1577 -0.0662  0.3819
 6483W        W49400  25.430  16.294  30.306 -0.2447 -0.0899  0.0485
 6484W        W49401  19.794  15.728  26.091  0.0366 -0.1221 -0.0257
 6485W        W49402  25.752  13.743  31.267 -0.0063  0.0019 -0.0852
 6486W        W49403  22.348  16.543  27.626 -0.0179 -0.1955 -0.1093
 6487W        W49404  21.097  14.875  25.264 -0.1498  0.0415 -0.0165
 6488W        W49405  20.259  16.128  24.739 -0.0276  0.0122  0.0972
 6489W        W49406  24.734  16.314  28.157 -0.0813  0.1773  0.0929
 6490W        W49407  22.927  17.214  28.719  0.2649 -0.0126 -0.1374
 6491W        W49408  22.244  15.331  29.188  0.1800 -0.3564  0.1709
 6492W        W49409  23.675  13.758  27.839 -0.1791  0.1753 -0.2698
 6493W        W49410  21.845  18.728  28.493 -0.0392  0.2071 -0.0455
 6494W        W49411  24.225  16.837  30.096 -0.0413  0.2714 -0.0645
 6495W        W49412  24.398  18.149  29.501 -0.0815 -0.3075  0.0543
 6496W        W49413  23.128  16.835  30.140  0.3309  0.2797  0.1417
 6497W        W49414  24.013  16.808  30.546  0.2277 -0.0787  0.0157
 6498W        W49415  21.213  14.677  26.582  0.2043 -0.0857  0.0791
 6499W        W49416  24.546  15.274  30.237 -0.0219  0.3834  0.1425
 6500W        W49417  22.474  16.824  27.237  0.1381 -0.0490 -0.0517
 6501W        W49418  22.808  16.001  28.742  0.1590  0.0399  0.0498
 6502W        W49419  23.185  16.326  31.005 -0.1566 -0.0888  0.0554
 6503W        W49420  22.305  16.582  26.361  0.3288 -0.1173 -0.1461
 6504W        W49421  20.760  15.694  25.685  0.3513 -0.0543  0.2032
 6505W        W49422  22.166  15.481   0.325  0.0551 -0.1059  0.0363
 6506W        W49423  24.355  15.975  31.414 -0.2202 -0.1761 -0.2821
 6507W        W49424  23.335  14.636  29.658  0.2524  0.1659 -0.3110
 6508W        W49425  22.880  15.444  29.376 -0.0290  0.0490  0.1496
 6509W        W49426  22.844  18.215  30.101  0.2196  0.1826  0.1953
 6510W        W49427  25.169  17.075  30.204  0.0508  0.0164  0.1221
 6511W        W49428  23.364  15.780  29.923  0.3234  0.2253 -0.2217
 6512W        W49429  25.148  17.578  30.191 -0.0455 -0.0413  0.2617
 6513W        W49430  24.239  15.198  28.957  0.2985  0.0142  0.0015
 6514W        W49431  23.441  19.134  27.957  0.1523 -0.3205  0.1296
 6515W        W49432  24.325  17.518  30.657 -0.1680 -0.1379  0.0227
 6516W        W49433  18.537  15.478  25.227  0.0829  0.0022  0.0899
 6517W        W49434  22.041  15.915  28.019 -0.0691  0.0467  0.4061
 6518W        W49435  24.221  15.802  28.936 -0.0035  0.0587 -0.0486
 6519W        W49436  23.037  14.176  29.533  0.0229 -0.3960  0.0429
 6520W        W49437  21.758  16.749  28.731  0.1078  0.3868  0.2240
 6521W        W49438  21.225  18.623  24.702  0.2191 -0.0893 -0.1004
 6522W        W49439  22.814  16.350  30.525 -0.1325  0.1843 -0.4238
 6523W        W49440  24.650  16.456  28.974 -0.1803 -0.2026  0.1142
 6524W        W49441  23.368  16.095  27.645  0.0596 -0.2466 -0.0722
 6525W        W49442  23.722  13.508  29.020  0.2475 -0.0449 -0.0299
 6526W        W49443  26.558  15.689  31.062  0.2683  0.0564 -0.0083
 6527W        W49444  22.941  18.991  29.792 -0.2187 -0.1733  0.0061
 6528W        W49445  24.516  14.610  31.852  0.3013  0.0145  0.0046
 6529W        W49446  21.108  15.166  26.643  0.2120 -0.1079  0.0460
 6530W        W49447  24.490  18.456  28.200  0.2098  0.0316 -0.2939
 6531W        W49448  22.539  13.221  30.122 -0.1723  0.0520 -0.0198
 6532W        W49449  19.444  17.089  29.106 -0.0001  0.4045  0.1681
 6533W        W49450  22.866  14.518  29.804  0.0929  0.0240 -0.0684
 6534W        W49451  22.904  15.500  29.893 -0.3218  0.1408  0.1313
 6535W        W49452  22.183  13.893  28.269  0.1694  0.1939 -0.3382
 6536W        W49453  21.168  16.110  26.891 -0.0875  0.2492  0.0717
 6537W        W49454  23.877  16.088  29.991 -0.4590  0.0194  0.1946
 6538W        W49455  22.188  15.992  28.487 -0.0687  0.1826  0.3998
 6539W        W49456  26.262  17.045  29.422 -0.2873 -0.0998 -0.2028
 6540W        W49457  21.345  15.817  30.385 -0.3314 -0.0276  0.0962
 6541W        W49458  24.481  15.142  27.492 -0.0682 -0.0040 -0.1727
 6542W        W49459  22.649  16.512  25.348 -0.0145  0.3425  0.1757
 6543W        W49460  21.357  17.004  29.031  0.1990 -0.0590  0.1151
 6544W        W49461  22.317  14.326  30.046  0.1694  0.3595 -0.1635
 6545W        W49462  26.399  18.393  30.913  0.2263 -0.1206  0.2586
 6546W        W49463  24.618  15.442  28.698 -0.1598  0.1214  0.2176
 6547W        W49464  24.219  15.371  31.339  0.2792 -0.2485 -0.3716
 6548W        W49465  24.633  15.488  31.610  0.0622 -0.1193  0.0551
 6549W        W49466  23.425  15.325  28.738 -0.1129  0.1256  0.0513
 6550W        W49467  22.696  15.415  30.962 -0.0495 -0.1960 -0.1152
 6551W        W49468  24.442  18.251   0.343 -0.0145 -0.2104  0.0405
 6552W        W49469  25.512  15.223  28.896  0.1974 -0.0395 -0.0870
 6553W        W49470  26.117  16.116   0.315 -0.2909  0.0991 -0.2333
 6554W        W49471  23.594  17.931  29.010  0.1394  0.3388 -0.0042
 6555W        W49472  22.748  16.168  25.696 -0.0402 -0.2249  0.0776
 6556W        W49473  22.472  14.477  29.474  0.0510 -0.1780 -0.2429
 6557W        W49474  24.764  16.926  31.835 -0.1554  0.1398  0.0348
 6558W        W49475  23.601  15.967  25.955 -0.1496  0.1434  0.1023
 6559W        W49476  24.858  15.925  31.378 -0.2623 -0.1789 -0.0063
 6560W        W49477  22.490  18.366  27.874 -0.1956  0.2169  0.5555
 6561W        W49478  23.196  17.430  31.559 -0.1228  0.0369 -0.1413
 6562W        W49479  25.972  16.412  29.330  0.5372 -0.1278  0.0389
 6563W        W49480  22.275  15.799  28.924  0.0586 -0.1037  0.0294
 6564W        W49481  20.711  16.734  30.427  0.0849 -0.1141 -0.1070
 6565W        W49482  20.904  16.414  24.250  0.1938 -0.0027 -0.0043
 6566W        W49483  24.258  18.204  28.969 -0.2286  0.1839 -0.1046
 6567W        W49484  23.348  16.725  27.890 -0.1663  0.0319  0.0883
 6568W        W49485  25.836  18.119  29.625  0.0651 -0.0702 -0.1009
 6569W        W49486  21.235  15.605  27.701  0.4292 -0.0601  0.1740
 6570W        W49487  23.862  17.302  30.721 -0.1693  0.2386  0.1087
 6571W        W49488  19.318  17.053  26.440  0.1431  0.0077  0.1218
 6572W        W49489  25.098  13.859  30.258 -0.1080  0.0461  0.1828
 6573W        W49490  21.487  17.940  28.514 -0.0043 -0.1119 -0.1901
 6574W        W49491  22.923  17.676  29.683 -0.0869 -0.0118 -0.0956
 6575W        W49492  20.843  17.557  27.207 -0.1697 -0.1377 -0.1435
 6576W        W49493  23.574  14.322  31.776 -0.1405 -0.2387 -0.2784
 6577W        W49494  25.610  16.391  29.798 -0.1540 -0.0351 -0.1565
 6578W        W49495  22.744  15.259  28.138  0.1147 -0.0495  0.1191
 6579W        W49496  23.143  16.500  31.436  0.2587 -0.0872  0.3713
 6580W        W49497  23.988  17.995  31.441  0.2276  0.0340  0.0191
 6581W        W49498  23.509  14.812  28.577  0.0548 -0.1735  0.2957
 6582W        W49499  21.480  16.840   0.264 -0.0747 -0.1814  0.2922
 6583W        W49500  24.977  16.768  31.427 -0.1122 -0.1127  0.0206
 6584W        W49501  23.533  17.349  27.960 -0.2047 -0.0828 -0.2720
 6585W        W49502  20.907  17.265  29.041  0.0568  0.3712  0.2606
 6586W        W49503  22.569  16.220  31.099  0.1415  0.0650 -0.1676
 6587W        W49504  23.251  17.476  29.341 -0.0663 -0.0810 -0.3232
 6588W        W49505  22.472  13.432  28.392  0.0382  0.0608  0.1818
 6589W        W49506  23.390  16.753  24.344  0.0171  0.0398  0.0708
 6590W        W49507  22.884  16.380   1.311  0.0713  0.3391  0.1324
 6591W        W49508  20.097  16.907  27.163  0.2747 -0.2221  0.0567
 6592W        W49509  21.567  16.511  26.815  0.0190  0.1471  0.0923
 6593W        W49510  21.671  18.158  25.519  0.2805 -0.2600 -0.2451
 6594W        W49511  21.039  16.887  26.767  0.1806  0.1446 -0.0360
 6595W        W49512  22.253  19.800  31.288  0.1834  0.1471  0.0223
 6596W        W49513  24.401  15.545  29.307 -0.1314 -0.2361  0.0866
 6597W        W49514  20.512  18.381  27.594 -0.2023  0.0462 -0.0766
 6598W        W49515  20.364  16.483  24.326  0.0409 -0.1390  0.0887
 6599W        W49516  23.684  17.872  28.256 -0.4460 -0.1389 -0.0805
 6600W        W49517  20.972  17.324  26.452 -0.1898  0.0073 -0.2432
 6601W        W49518  23.545  18.164  30.291 -0.0547  0.2156  0.1245
 6602W        W49519  24.462  16.140  28.592  0.2525  0.0533 -0.1272
 6603W        W49520  26.687  16.144  31.529  0.1859 -0.2797 -0.0673
 6604W        W49521  26.878  17.311  27.318  0.0762 -0.1435 -0.4122
 6605W        W49522  21.288  18.333   0.259 -0.1688  0.0068 -0.1098
 6606W        W49523  21.837  16.157  28.895  0.1124 -0.0203 -0.0296
 6607W        W49524  22.699  15.958  28.263 -0.2117  0.1344  0.1883
 6608W        W49525  23.027  14.681  28.714  0.0736  0.1693  0.3328
 6609W        W49526  26.438  15.954  31.911  0.1490  0.0006  0.0201
 6610W        W49527  22.040  16.049  30.794  0.0300 -0.2165 -0.2028
 6611W        W49528  24.800  17.255  27.140  0.5473 -0.0945 -0.0574
 6612W        W49529  20.951  14.780  27.825  0.1715  0.0849  0.2356
 6613W        W49530  21.292  15.610  27.212 -0.2591 -0.0328  0.3141
 6614W        W49531  27.203  14.986   0.011 -0.1415 -0.0229  0.0959
 6615W        W49532  22.289  17.858  27.811 -0.1421 -0.0150 -0.0360
 6616W        W49533  22.930  16.872   0.504 -0.0973  0.1212 -0.0293
 6617W        W49534  22.487  15.530  28.509  0.1827  0.1407 -0.2116
 6618W        W49535  22.604  18.038  29.700 -0.0421  0.1102  0.2929
 6619W        W49536  22.204  18.190  30.019  0.1409 -0.1565 -0.1925
 6620W        W49537  21.058  15.218  27.512  0.0709  0.0936  0.0053
 6621W        W49538  25.262  16.794  31.843 -0.1761 -0.0662 -0.0835
 6622W        W49539  22.202  15.570  31.001 -0.1418  0.5044  0.2659
 6623W        W49540  24.880  13.372  30.133  0.1534  0.3916  0.1325
 6624W        W49541  21.106  16.321  26.304 -0.3314  0.1818  0.0648
 6625W        W49542  24.523  15.335  27.998 -0.0151 -0.0646 -0.0105
 6626W        W49543  21.077  17.853  27.784  0.2344 -0.1242  0.0831
 6627W        W49544  22.990  13.549  28.400  0.2153 -0.1394 -0.0356
 6628W        W49545  23.777  16.254  27.277  0.1896  0.1194  0.2185
 6629W        W49546  24.692  16.452   1.098  0.1657  0.1826 -0.1490
 6630W        W49547  23.504  17.498  29.861  0.3538  0.1868  0.3389
 6631W        W49548  22.179  18.525  28.795  0.1824  0.1331 -0.0360
 6632W        W49549  21.401  14.688  27.538 -0.1029  0.0991 -0.0474
 6633W        W49550  25.707  17.719  29.352  0.1337  0.1256  0.0099
 6634W        W49551  20.716  15.474  29.748 -0.0586 -0.0673  0.0722
 6635W        W49552  23.520  15.272  27.356 -0.0401  0.0014 -0.0156
 6636W        W49553  24.432  19.443  30.832  0.0038  0.1118 -0.1072
 6637W        W49554  22.899  12.528  27.781 -0.0213 -0.2135 -0.0854
 6638W        W49555  23.792  18.382  28.968 -0.3619 -0.0138  0.2604
 6639W        W49556  26.031  15.151  28.747  0.0975 -0.0612  0.0252
 6640W        W49557  23.846  17.590  26.207  0.2012 -0.0988 -0.1288
 6641W        W49558  24.390  16.105  30.089  0.3043 -0.1991  0.1374
 6642W        W49559  22.984  16.533  29.609 -0.2379 -0.0648  0.0384
 6643W        W49560  21.371  15.386  28.330  0.0168  0.0069 -0.4002
 6644W        W49561  23.291  16.860  31.045 -0.3067  0.3688 -0.0866
 6645W        W49562  25.783  15.610  28.727  0.1058 -0.1047 -0.1146
 6646W        W49563  24.696  14.959  28.832  0.2303  0.4263  0.1150
 6647W        W49564  22.451  14.766  29.853  0.1712  0.1450 -0.0248
 6648W        W49565  21.366  16.563  25.955 -0.1374  0.1608 -0.0522
 6649W        W49566  26.421  16.159  29.251  0.1386 -0.1952  0.0401
 6650W        W49567  25.074  14.864  31.214 -0.0801  0.0231 -0.0740
 6651W        W49568  21.048  19.473  26.939 -0.2211 -0.1492 -0.0674
 6652W        W49569  24.448  14.946  30.832 -0.0115  0.0049 -0.0407
 6653W        W49570  22.531  20.739  29.761 -0.1704 -0.0207  0.0245
 6654W        W49571  21.854  17.288  29.503 -0.2470 -0.1293  0.1561
 6655W        W49572  22.934  15.468  27.541 -0.0935  0.2862  0.0639
 6656W        W49573  22.547  17.202  28.266  0.0232 -0.3155  0.0731
 6657W        W49574  20.907  17.628  25.144 -0.4506  0.0551 -0.1410
 6658W        W49575  22.546  17.320  26.442 -0.1970 -0.2385 -0.0317
 6659W        W49576  24.420  17.799  31.067 -0.0178 -0.1088  0.0474
 6660W        W49577  24.168  16.427  31.243  0.4116 -0.1987  0.0882
 6661W        W49578  23.976  17.070  29.671  0.4032 -0.0766  0.0173
 6662W        W49579  24.013  14.159  29.262 -0.4246 -0.1445  0.1365
 6663W        W49580  27.595  14.267  28.441  0.0020 -0.0586 -0.2372
 6664W        W49581  25.359  15.122  27.165  0.1528  0.5417 -0.0995
 6665W        W49582  23.112  14.317   0.011  0.2857 -0.1678 -0.1707
 6666W        W49583  18.767  16.998  25.689 -0.2818 -0.0725 -0.0168
 6667W        W49584  21.604  17.029  24.738  0.6377 -0.4596  0.1684
 6668W        W49585  21.142  15.884  29.617  0.0906 -0.0057  0.0190
 6669W        W49586  23.223  14.288  30.096 -0.2384  0.3810  0.0291
 6670W        W49587  23.944  14.677  31.898 -0.2654  0.1994  0.2683
 6671W        W49588  19.096  16.166  27.415  0.1227 -0.1355  0.0264
 6672W        W49589  21.625  15.012  26.616  0.2343  0.0311  0.1624
 6673W        W49590  21.777  18.290  28.294 -0.0693 -0.0342 -0.1586
 6674W        W49591  20.808  14.373  26.503 -0.0420 -0.1943  0.2552
 6675W        W49592  21.170  14.334  27.901  0.3966 -0.0722  0.1708
 6676W        W49593  23.525  16.799  29.711 -0.0232  0.2029 -0.0014
 6677W        W49594  24.021  18.302  30.276 -0.0066 -0.0127  0.2949
 6678W        W49595  24.047  14.846  27.225 -0.0334  0.0953 -0.0743
 6679W        W49596  26.149  18.243  31.840  0.0365 -0.0079 -0.0701
 6680W        W49597  21.740  18.919  26.907 -0.1712 -0.3043  0.0768
 6681W        W49598  23.624  14.592  31.337 -0.0976  0.0516  0.3931
 6682W        W49599  24.731  15.498  30.685 -0.1510 -0.0942 -0.1742
 6683W        W49600  20.819  15.501  24.228 -0.2698 -0.0673  0.2260
 6684W        W49601  22.421  18.499  29.412 -0.2407 -0.1540  0.0795
 6685W        W49602  22.771  16.322  29.180  0.1076  0.4008  0.1910
 6686W        W49603  22.488  18.984  29.587  0.0701  0.0084  0.1827
 6687W        W49604  22.425  17.746  29.101  0.1008 -0.0495 -0.1384
 6688W        W49605  22.976  14.988  29.613  0.0171 -0.0506  0.0806
 6689W        W49606  22.339  15.686  31.764  0.1434 -0.3646  0.4020
 6690W        W49607  24.501  16.457  29.507  0.0668 -0.1355 -0.2919
 6691W        W49608  22.475  17.718   0.428  0.3576  0.0963 -0.0950
 6692W        W49609  26.637  15.696  29.162 -0.0034 -0.0368  0.2390
 6693W        W49610  24.355  13.778  29.469  0.0001  0.0729  0.0008
 6694W        W49611  24.231  16.556  27.078 -0.2027  0.2170 -0.1147
 6695W        W49612  24.215  13.948  31.450 -0.0092 -0.0352 -0.3282
 6696W        W49613  21.722  16.801  31.239 -0.0863 -0.1491  0.0747
 6697W        W49614  26.164  17.290  29.993 -0.1591 -0.0813 -0.3134
 6698W        W49615  19.765  12.825  29.943  0.2326 -0.1364 -0.0702
 6699W        W49616  23.392  15.439  28.237 -0.4708 -0.2533 -0.0412
 6700W        W49617  21.384  16.803  26.426  0.0715 -0.0636 -0.1205
 6701W        W49618  21.717  14.497  27.936  0.0260  0.2296  0.0117
 6702W        W49619  22.240  15.191  28.284 -0.3399  0.2571  0.2580
 6703W        W49620  23.653  15.525  31.568  0.1343  0.5007 -0.0079
 6704W        W49621  23.167  16.209  28.083 -0.1224  0.1926  0.0327
 6705W        W49622  24.624  18.505  30.937 -0.0015  0.0669 -0.0556
 6706W        W49623  22.719  17.584  27.335  0.3404  0.1333 -0.0073
 6707W        W49624  26.544  16.075  27.881  0.1553  0.2688 -0.2656
 6708W        W49625  23.611  19.835  29.107 -0.2160  0.1093  0.0716
 6709W        W49626  25.421  17.518   0.268 -0.1077  0.1950  0.0459
 6710W        W49627  23.198  18.685  30.229 -0.0521  0.0226  0.3064
 6711W        W49628  24.091  17.282  29.249  0.0306 -0.0147  0.2506
 6712W        W49629  21.677  15.413  30.173  0.0680  0.0577 -0.1786
 6713W        W49630  20.077  16.630  26.419  0.0705 -0.1067 -0.0548
 6714W        W49631  25.237  16.601  30.034 -0.3860 -0.0441 -0.0902
 6715W        W49632  24.650  15.167  29.301 -0.4020 -0.2335  0.0915
 6716W        W49633  22.970  15.152  28.921  0.2992  0.0358 -0.0746
 6717W        W49634  24.730  16.481  30.028 -0.2887 -0.1163  0.1769
 6718W        W49635  22.872  15.937   0.348  0.0681  0.1125 -0.1315
 6719W        W49636  21.138  16.962  31.014  0.1171 -0.2746  0.0186
 6720W        W49637  22.177  15.201  31.884 -0.3574  0.0870  0.0834
 6721W        W49638  25.443  15.046  30.712 -0.2236  0.1482 -0.1740
 6722W        W49639  23.837  15.178   0.002  0.0828  0.0953 -0.0449
 6723W        W49640  21.788  15.055  30.467 -0.0376 -0.1296  0.0086
 6724W        W49641  21.412  17.964  29.094  0.5466 -0.2837  0.0983
 6725W        W49642  22.552  15.875  29.334 -0.2525 -0.0124 -0.2372
 6726W        W49643  25.630  15.883   2.105  0.4050  0.0636 -0.2513
 6727W        W49644  25.829  15.677  31.210  0.0965  0.2151 -0.1865
 6728W        W49645  25.878  17.331   0.095 -0.0926 -0.1199  0.0487
 6729W        W49646  24.839  19.004   0.857 -0.0217  0.0854 -0.1795
 6730W        W49647  22.104  17.407  31.372 -0.2825  0.3211  0.1756
 6731W        W49648  22.507  15.901  30.574  0.2455 -0.0234  0.1893
 6732W        W49649  26.775  17.594   0.533  0.2519 -0.1396 -0.1599
 6733W        W49650  23.213  17.084   0.196 -0.0372  0.2948 -0.1455
 6734W        W49651  25.232  16.582   0.375 -0.0957 -0.0466  0.0052
 6735W        W49652  22.190  16.219  29.252 -0.2107  0.0601 -0.4210
 6736W        W49653  21.020  17.503  29.836 -0.2492 -0.1981  0.3130
 6737W        W49654  23.383  15.015  29.246  0.1833 -0.0026  0.2587
 6738W        W49655  20.968  16.183  30.466 -0.2088 -0.1127 -0.2020
 6739W        W49656  18.209  15.168  31.372 -0.2713  0.1357 -0.3466
 6740W        W49657  21.508  14.606  31.794  0.0092  0.3466 -0.0324
 6741W        W49658  21.079  16.875  30.025  0.4709 -0.5424 -0.3437
 6742W        W49659  26.227  14.458  31.134 -0.1035 -0.3383  0.0707
 6743W        W49660  24.902  16.885   0.744  0.0153  0.1559 -0.3646
 6744W        W49661  23.333  15.926  31.826  0.2401 -0.1064  0.1014
 6745W        W49662  24.251  13.548   0.274  0.3840  0.1783 -0.1669
 6746W        W49663  23.009  14.739   2.113  0.1978  0.4040  0.4671
 6747W        W49664  20.977  16.322  29.980  0.1850  0.1510 -0.2415
 6748W        W49665  22.419  14.918  31.070  0.0843 -0.0172  0.2071
 6749W        W49666  24.305  16.288   0.255  0.1481 -0.2447 -0.6052
 6750W        W49667  20.223  18.048  31.802 -0.3249 -0.0998 -0.0916
 6751W        W49668  21.599  15.653  29.626  0.1248 -0.0358  0.1899
 6752W        W49669  22.728  17.165  30.973 -0.0802 -0.1513 -0.2776
 6753W        W49670  25.162  11.774  30.701 -0.0492 -0.0810 -0.4861
 6754W        W49671  22.025  15.636  29.895 -0.2878  0.1419  0.4664
 6755W        W49672  22.255  17.004   1.169  0.0433 -0.2679  0.0569
 6756W        W49673  22.304  16.558   0.053 -0.2014 -0.3035  0.4262
 6757W        W49674  23.769  16.033  31.479 -0.1081  0.0598 -0.1155
 6758W        W49675  24.942  16.347  31.851  0.0582  0.1221  0.2376
 6759W        W49676  23.990  17.519  29.821 -0.1075  0.1853  0.0607
 6760W        W49677  24.627  15.455   0.167  0.1050 -0.1047  0.1749
 6761W        W49678  22.669  16.427   0.333 -0.4498 -0.0851 -0.0928
 6762W        W49679  24.776  13.595  31.473  0.0062  0.0683  0.5542
 6763W        W49680  22.274  16.759  28.591  0.0110  0.0329 -0.1881
 6764W        W49681  21.239  15.532  29.969  0.0755  0.1319  0.0126
 6765W        W49682  23.827  14.239   0.320  0.1141 -0.2842  0.0428
 6766W        W49683  23.707  14.136  30.102  0.2095  0.1921 -0.0317
 6767W        W49684  23.690  18.600   0.187  0.2490 -0.0572 -0.1625
 6768W        W49685  24.765  16.787   1.628  0.1060 -0.2306  0.3139
 6769W        W49686  20.757  16.322  29.043  0.3034  0.1372 -0.2100
 6770W        W49687  23.497  16.434  31.812 -0.3363  0.0953  0.1761
 6771W        W49688  25.519  14.732   0.495  0.4904  0.1440  0.2352
 6772W        W49689  21.917  14.901  31.555 -0.1926 -0.1195 -0.0980
 6773W        W49690  22.709  15.772   0.949 -0.1493 -0.0792 -0.0899
 6774W        W49691  23.442  14.676   0.186 -0.3030  0.2733 -0.1046
 6775W        W49692  24.320  15.083  31.756  0.0158 -0.0669  0.1791
 6776W        W49693  24.885  17.351  30.548  0.3932 -0.0697  0.0053
 6777W        W49694  22.646  17.254  29.736 -0.0192 -0.0856  0.3763
 6778W        W49695  23.649  17.104  30.217  0.0462  0.0427  0.0757
 6779W        W49696  21.427  15.913  30.863 -0.0564  0.0153  0.0908
 6780W        W49697  22.795  15.095  30.121 -0.1614  0.4065  0.0927
 6781W        W49698  21.479  16.026   0.210  0.1751 -0.0704 -0.0516
 6782W        W49699  21.996  16.129  31.580 -0.2664 -0.1438  0.1965
 6783W        W49700  22.457  15.228  31.441  0.0954 -0.0382 -0.1822
 6784W        W49701  24.563  17.319  29.047  0.2030  0.2782 -0.2088
 6785W        W49702  26.550  15.900  30.563 -0.1048  0.1989 -0.1989
 6786W        W49703  24.317  15.665  30.934 -0.1140  0.3478  0.0108
 6787W        W49704  25.312  21.704  17.855 -0.0647 -0.1939  0.1531
 6788W        W49705  22.124  18.360  17.487 -0.0744 -0.2647 -0.0878
 6789W        W49706  23.029  19.405  16.715  0.1293 -0.1583  0.2918
 6790W        W49707  23.737  19.109  17.964  0.0689 -0.2451  0.3328
 6791W        W49708  22.009  19.502  17.891 -0.2833 -0.3150 -0.2078
 6792W        W49709  24.548  21.370  19.179 -0.0495 -0.2577  0.2181
 6793W        W49710  22.002  18.322  18.203 -0.0529  0.1098 -0.0671
 6794W        W49711  24.324  23.385  18.022 -0.0328 -0.2625  0.1183
 6795W        W49712  24.919  21.694  19.058 -0.0122  0.0643  0.0225
 6796W        W49713  24.226  20.660  16.351  0.0853 -0.2958 -0.1225
 6797W        W49714  23.245  19.294  17.619 -0.0086 -0.0481 -0.1327
 6798W        W49715  23.758  21.552  18.956 -0.0854  0.1551  0.1929
 6799W        W49716  22.567  19.888  15.803 -0.0904  0.0429 -0.0038
 6800W        W49717  19.728  17.004  16.852  0.1315 -0.1386  0.1009
 6801W        W49718  24.660  20.558  18.919 -0.0938  0.2519  0.2170
 6802W        W49719  21.648  20.059  16.546 -0.1103 -0.1451  0.3632
 6803W        W49720  23.323  19.792  17.398  0.0755  0.1174 -0.0462
 6804W        W49721  22.847  20.694  16.404  0.0849  0.1100  0.1241
 6805W        W49722  25.081  21.557  16.759 -0.0250 -0.0257  0.2352
 6806W        W49723  22.490  17.959  16.429  0.0799 -0.1854  0.0203
 6807W        W49724  25.142  18.906  20.626 -0.0690 -0.2240  0.2091
 6808W        W49725  23.620  22.604  17.690  0.0349  0.1150 -0.0493
 6809W        W49726  21.142  19.217  15.132 -0.3576 -0.3435 -0.1680
 6810W        W49727  21.767  19.778  19.167 -0.0772 -0.0514  0.1678
 6811W        W49728  22.106  21.718  19.940 -0.0458  0.1989 -0.1254
 6812W        W49729  25.013  21.851  21.153  0.0249  0.0055  0.0781
 6813W        W49730  24.593  20.577  17.598  0.2317  0.0869  0.5576
 6814W        W49731  23.667  21.078  16.686 -0.0236  0.2340 -0.1079
 6815W        W49732  24.146  20.094  16.466  0.1196  0.1063 -0.0005
 6816W        W49733  23.065  20.356  19.798  0.1511  0.2177  0.2709
 6817W        W49734  23.291  23.070  18.291 -0.1499 -0.0517  0.1141
 6818W        W49735  21.513  22.352  15.895  0.0460 -0.1210  0.1191
 6819W        W49736  25.882  21.059  17.483  0.3596 -0.1293  0.1908
 6820W        W49737  25.714  21.621  17.453 -0.3634  0.0505 -0.1422
 6821W        W49738  25.394  19.899  21.075 -0.2263  0.3323 -0.0870
 6822W        W49739  22.102  22.872  19.351  0.1000 -0.0435  0.0137
 6823W        W49740  22.504  21.033  16.589  0.0565  0.0757  0.1983
 6824W        W49741  23.188  21.022  20.356 -0.0060 -0.0090  0.5943
 6825W        W49742  22.361  21.620  20.436 -0.1990 -0.0539  0.1947
 6826W        W49743  24.984  20.367  18.061  0.1820  0.1691  0.0725
 6827W        W49744  20.576  19.537  16.869  0.1019 -0.2812  0.2339
 6828W        W49745  23.558  23.154  16.266 -0.0523  0.2336  0.0217
 6829W        W49746  25.455  21.265  18.479 -0.2746  0.2100  0.2449
 6830W        W49747  22.775  21.888  20.415  0.2185  0.0441  0.0490
 6831W        W49748  21.935  20.226  17.162 -0.2893  0.2065 -0.0395
 6832W        W49749  25.503  18.283  20.010 -0.0362 -0.3464  0.0916
 6833W        W49750  24.570  23.695  17.631  0.4110  0.3009 -0.2192
 6834W        W49751  22.536  18.219  15.361 -0.2279  0.0291 -0.0893
 6835W        W49752  22.548  17.161  16.915 -0.0341  0.0768 -0.1147
 6836W        W49753  20.623  19.198  15.114 -0.3525  0.2494 -0.0317
 6837W        W49754  23.387  18.569  17.297 -0.2962 -0.1446 -0.1170
 6838W        W49755  23.931  23.463  18.777  0.2494  0.0626 -0.2803
 6839W        W49756  23.268  20.403  18.213 -0.1552 -0.0540  0.2694
 6840W        W49757  25.518  20.480  17.822 -0.2064  0.4044  0.4391
 6841W        W49758  22.476  19.646  15.343 -0.1143  0.1710 -0.1372
 6842W        W49759  24.410  21.367  20.915  0.0655 -0.1192  0.2757
 6843W        W49760  22.619  22.820  17.444  0.1333 -0.0187 -0.0226
 6844W        W49761  24.946  21.401  18.615 -0.3070  0.0452 -0.0438
 6845W        W49762  23.948  20.683  16.803 -0.0820  0.2722 -0.3529
 6846W        W49763  27.220  20.762  19.411  0.2220  0.1787 -0.1111
 6847W        W49764  24.082  21.898  17.361 -0.4833  0.0758  0.1276
 6848W        W49765  23.199  18.171  17.731  0.0498  0.1527  0.1198
 6849W        W49766  23.774  20.094  18.354 -0.1798  0.0199  0.5301
 6850W        W49767  21.949  19.419  16.822  0.3134  0.1006 -0.1300
 6851W        W49768  22.802  17.473  16.322 -0.2486 -0.0901 -0.0752
 6852W        W49769  26.949  21.639  18.492 -0.0162 -0.3626  0.1033
 6853W        W49770  21.136  20.869  17.144  0.1327  0.0384  0.3585
 6854W        W49771  24.042  20.104  17.026 -0.0409 -0.1788  0.1758
 6855W        W49772  21.803  20.574  16.161 -0.2152  0.2380  0.0817
 6856W        W49773  23.321  23.543  18.113 -0.3169 -0.1157  0.1363
 6857W        W49774  23.046  19.214  15.994  0.0140  0.1284  0.1721
 6858W        W49775  24.879  15.814  19.213 -0.3169 -0.0553 -0.1180
 6859W        W49776  27.226  17.610  22.546 -0.1623  0.1060 -0.1298
 6860W        W49777  21.345  20.943  16.148 -0.2561  0.1317 -0.1251
 6861W        W49778  21.422  19.196  16.398 -0.2236 -0.0392  0.0720
 6862W        W49779  25.686  23.043  20.034  0.2455 -0.0613  0.3071
 6863W        W49780  26.342  23.247  18.299 -0.2453  0.0520  0.1433
 6864W        W49781  21.255  22.366  18.595 -0.0207 -0.0740 -0.2759
 6865W        W49782  24.121  18.224  18.961  0.2538  0.1089  0.4853
 6866W        W49783  23.664  19.864  21.482  0.1387  0.2666  0.0271
 6867W        W49784  20.752  21.885  15.688  0.2156 -0.0720 -0.0865
 6868W        W49785  23.559  21.238  17.900  0.1818 -0.1524 -0.2894
 6869W        W49786  20.431  19.919  15.943  0.1953 -0.0786 -0.0957
 6870W        W49787  23.754  16.262  17.888  0.0908  0.0141  0.2642
 6871W        W49788  24.355  20.899  19.047  0.3108 -0.0028  0.0442
 6872W        W49789  24.420  19.442  17.210  0.1181  0.0244  0.1710
 6873W        W49790  23.265  19.327  18.652  0.0444 -0.0582  0.1343
 6874W        W49791  26.183  17.704  18.597 -0.1811  0.0072 -0.0746
 6875W        W49792  18.775  21.633  16.761  0.1311  0.0325  0.0351
 6876W        W49793  26.461  23.610  19.446  0.1719  0.0871 -0.1483
 6877W        W49794  24.760  19.592  17.534  0.2643  0.3620  0.1457
 6878W        W49795  24.358  21.173  16.297  0.0098 -0.2083 -0.2736
 6879W        W49796  25.170  21.284  18.086  0.1664 -0.1117 -0.3885
 6880W        W49797  22.369  19.455  16.467  0.3145  0.1320 -0.0527
 6881W        W49798  22.856  20.605  18.436 -0.1571  0.2437  0.1289
 6882W        W49799  21.176  19.783  16.183  0.1557  0.0097 -0.2867
 6883W        W49800  25.645  19.872  19.053  0.2666  0.1237 -0.0038
 6884W        W49801  22.211  17.862  15.569  0.2673  0.0575 -0.1813
 6885W        W49802  25.944  18.111  17.603  0.2085  0.0187  0.1081
 6886W        W49803  22.953  19.833  15.395 -0.1593 -0.1121  0.1184
 6887W        W49804  20.353  18.596  18.224  0.2960 -0.0843  0.0580
 6888W        W49805  24.038  18.063  20.684 -0.1085 -0.0086  0.1981
 6889W        W49806  26.117  23.587  18.772 -0.2539 -0.2358  0.2148
 6890W        W49807  26.103  21.792  17.126 -0.0666  0.2516 -0.1692
 6891W        W49808  25.399  22.665  20.201 -0.1840  0.0559  0.3843
 6892W        W49809  24.357  20.362  20.754 -0.3201  0.1975 -0.2359
 6893W        W49810  22.414  18.130  17.102  0.2012 -0.1954 -0.0397
 6894W        W49811  21.451  22.503  17.896 -0.0098  0.1113 -0.3071
 6895W        W49812  24.148  20.543  18.674  0.0265  0.1095  0.1676
 6896W        W49813  22.167  19.002  16.989 -0.1287  0.3101 -0.0466
 6897W        W49814  24.794  22.365  17.916 -0.0019  0.0379 -0.1310
 6898W        W49815  24.433  21.157  17.543 -0.2008  0.2488 -0.0183
 6899W        W49816  23.293  20.510  17.715 -0.6348  0.0758 -0.2852
 6900W        W49817  25.585  17.686  19.634  0.0850  0.3011 -0.0180
 6901W        W49818  26.941  19.182  20.532 -0.3066 -0.0246 -0.1752
 6902W        W49819  26.459  20.884  19.939 -0.0726  0.3079 -0.1261
 6903W        W49820  21.373  18.182  16.062  0.1890  0.0094  0.0425
 6904W        W49821  24.402  22.166  17.720  0.1636 -0.0266 -0.2579
 6905W        W49822  22.096  23.523  17.414  0.1840 -0.0479 -0.3222
 6906W        W49823  21.342  20.265  15.178  0.0333 -0.1588  0.0380
 6907W        W49824  22.101  21.801  16.550 -0.1781 -0.1443  0.3316
 6908W        W49825  24.289  19.745  16.822  0.2756 -0.0896  0.2216
 6909W        W49826  23.556  21.518  20.075  0.0131 -0.2233  0.0279
 6910W        W49827  25.079  21.415  19.858  0.0320 -0.0009  0.1604
 6911W        W49828  22.282  19.040  15.506  0.2147 -0.2599 -0.2658
 6912W        W49829  21.135  21.267  17.799  0.2238 -0.0503  0.0242
 6913W        W49830  23.383  18.757  17.839 -0.1696 -0.3365 -0.2400
 6914W        W49831  23.500  19.351  15.859 -0.1334  0.0724 -0.1749
 6915W        W49832  24.972  20.876  20.285 -0.1154  0.1103 -0.3528
 6916W        W49833  22.596  19.936  16.538 -0.3796 -0.0419  0.0050
 6917W        W49834  23.170  20.467  16.665  0.0554 -0.2022  0.0376
 6918W        W49835  22.894  17.812  15.392  0.0746  0.0448 -0.2415
 6919W        W49836  20.899  20.097  15.950 -0.0148 -0.2534  0.0455
 6920W        W49837  24.890  20.576  16.641 -0.0514 -0.2220 -0.2038
 6921W        W49838  23.321  21.005  17.534 -0.0481 -0.0390 -0.0431
 6922W        W49839  20.449  19.095  14.601  0.0604  0.1062  0.0762
 6923W        W49840  26.709  23.275  17.514 -0.1163 -0.3208 -0.3837
 6924W        W49841  23.294  18.985  18.269  0.0004  0.1683 -0.0735
 6925W        W49842  24.773  21.020  18.880  0.1501 -0.0509 -0.0214
 6926W        W49843  23.757  20.610  17.319  0.0027  0.2366 -0.1419
 6927W        W49844  24.828  19.053  18.993 -0.3186 -0.1373  0.3111
 6928W        W49845  22.715  17.391  17.429  0.1522  0.1943  0.0350
 6929W        W49846  24.425  16.939  18.022 -0.0247 -0.0712  0.2191
 6930W        W49847  21.614  19.554  15.892 -0.2162  0.0651 -0.0583
 6931W        W49848  23.635  19.261  16.677 -0.0618 -0.1902  0.2494
 6932W        W49849  23.723  19.243  18.981 -0.0929  0.3665 -0.0852
 6933W        W49850  24.704  17.587  18.077 -0.0653 -0.0648 -0.4201
 6934W        W49851  27.011  20.932  19.856 -0.1091 -0.0764 -0.0013
 6935W        W49852  25.653  20.593  19.385 -0.0258 -0.1788  0.2495
 6936W        W49853  24.037  21.502  18.104  0.2264  0.0825  0.2116
 6937W        W49854  25.422  19.286  18.801 -0.0289  0.2981  0.1572
 6938W        W49855  24.147  18.463  18.472 -0.2643 -0.1812  0.0180
 6939W        W49856  22.133  19.997  16.279 -0.0373 -0.0519  0.0280
 6940W        W49857  24.329  22.242  18.753  0.4714  0.2577  0.0193
 6941W        W49858  23.932  22.812  19.675 -0.2006 -0.0093  0.0731
 6942W        W49859  23.568  21.434  17.203 -0.0521  0.2467  0.1498
 6943W        W49860  23.700  18.006  17.933  0.1908  0.0356  0.1662
 6944W        W49861  24.164  20.040  18.610 -0.2417 -0.1215  0.0175
 6945W        W49862  25.175  24.505  18.724 -0.0942 -0.0476  0.1303
 6946W        W49863  20.871  21.686  17.993 -0.0001  0.0832  0.1308
 6947W        W49864  22.498  20.032  18.167 -0.0751  0.0058  0.0238
 6948W        W49865  23.465  20.069  19.660 -0.2507  0.3807 -0.2908
 6949W        W49866  26.766  20.784  17.491 -0.1762 -0.0952 -0.1985
 6950W        W49867  26.887  22.939  19.664  0.3721 -0.1386 -0.0084
 6951W        W49868  24.165  21.700  16.869  0.1554  0.0468  0.2529
 6952W        W49869  25.574  18.797  19.564 -0.0001  0.1445 -0.1318
 6953W        W49870  24.754  20.652  17.124  0.1465 -0.0467  0.1786
 6954W        W49871  23.627  20.258  16.766 -0.0235  0.0131  0.1677
 6955W        W49872  22.479  19.402  17.041  0.1834 -0.2609  0.0902
 6956W        W49873  24.466  18.233  20.446  0.2550  0.1211  0.0359
 6957W        W49874  25.269  22.260  17.983  0.4144 -0.2491  0.2630
 6958W        W49875  24.783  18.533  20.017 -0.0710  0.1049 -0.1173
 6959W        W49876  24.174  17.326  18.162  0.1949 -0.1385  0.2015
 6960W        W49877  21.458  24.206  21.234  0.1610  0.5239 -0.0888
 6961W        W49878  25.668  19.697  20.351 -0.0389  0.2592  0.4143
 6962W        W49879  23.911  20.979  17.655  0.0746  0.0436  0.3500
 6963W        W49880  25.742  23.934  18.931 -0.1630  0.1555 -0.0269
 6964W        W49881  23.068  19.674  19.573  0.1406 -0.0826 -0.0250
 6965W        W49882  21.303  20.099  15.672 -0.0441  0.0033  0.2744
 6966W        W49883  24.619  19.938  20.966  0.2083 -0.2253  0.1855
 6967W        W49884  23.092  16.305  16.218 -0.1162 -0.0358  0.3015
 6968W        W49885  21.652  20.818  15.712  0.1878  0.0504  0.0255
 6969W        W49886  24.443  20.881  16.753  0.3893 -0.1777 -0.1089
 6970W        W49887  21.658  22.120  15.378 -0.1176 -0.2559  0.2075
 6971W        W49888  23.099  21.939  16.776 -0.1229 -0.1037 -0.2110
 6972W        W49889  23.571  19.500  19.471  0.0963 -0.2332  0.1140
 6973W        W49890  25.168  19.690  19.052 -0.3783  0.0785  0.0080
 6974W        W49891  23.492  19.263  17.166 -0.0431 -0.1319  0.1008
 6975W        W49892  23.855  20.755  19.621 -0.2562  0.2227  0.2945
 6976W        W49893  24.314  20.813  17.984  0.1566  0.2790  0.1198
 6977W        W49894  26.611  22.367  18.690  0.1957 -0.0799  0.4170
 6978W        W49895  23.970  19.126  19.381 -0.2256 -0.2984 -0.1504
 6979W        W49896  24.428  21.788  18.961  0.0028  0.2191  0.0697
 6980W        W49897  25.920  18.345  20.320 -0.0329 -0.2237  0.3768
 6981W        W49898  25.795  22.255  17.043  0.2856  0.0873  0.3570
 6982W        W49899  23.028  21.924  19.589 -0.2080  0.1665  0.6099
 6983W        W49900  23.341  20.828  17.036  0.0350  0.2117  0.0572
 6984W        W49901  22.445  20.777  18.732  0.0730 -0.2631  0.2370
 6985W        W49902  23.702  19.507  17.640 -0.2055  0.3390  0.0583
 6986W        W49903  25.485  21.016  20.036  0.2061 -0.1018  0.3439
 6987W        W49904  22.480  18.598  17.103  0.2094  0.1071 -0.1451
 6988W        W49905  22.545  20.735  15.777  0.0795 -0.1265  0.0369
 6989W        W49906  22.296  23.088  18.529  0.1931 -0.0926  0.0027
 6990W        W49907  24.840  17.120  18.562  0.2151 -0.1086  0.1945
 6991W        W49908  25.421  22.088  17.500  0.1041 -0.0199  0.2005
 6992W        W49909  23.811  19.725  16.701 -0.1420 -0.1583 -0.1246
 6993W        W49910  24.839  19.578  19.875  0.0546  0.1403 -0.3791
 6994W        W49911  22.640  21.578  17.303 -0.1076 -0.2181  0.1548
 6995W        W49912  24.711  17.726  19.305  0.1868  0.3638 -0.1158
 6996W        W49913  24.321  20.201  20.182  0.0739 -0.1647 -0.1902
 6997W        W49914  26.165  23.229  19.879 -0.2140 -0.1823  0.0588
 6998W        W49915  22.157  16.771  17.021  0.0887  0.1097 -0.3331
 6999W        W49916  22.916  23.070  18.639  0.0019  0.3325  0.1401
 7000W        W49917  23.471  19.955  17.908 -0.0362 -0.5054 -0.0552
 7001W        W49918  24.393  19.439  18.038 -0.5300 -0.1513  0.2969
 7002W        W49919  22.167  18.676  16.052 -0.0655 -0.0285 -0.1549
 7003W        W49920  25.195  20.813  18.617  0.0077 -0.3752 -0.0451
 7004W        W49921  26.113  20.594  19.606  0.0782 -0.1344  0.1083
 7005W        W49922  23.933  22.860  16.883  0.1591 -0.0810 -0.2170
 7006W        W49923  25.312  22.229  18.542  0.0966 -0.0195  0.0822
 7007W        W49924  23.022  20.933  19.549  0.0548 -0.4328  0.2755
 7008W        W49925  22.986  20.991  16.761 -0.2135  0.4057 -0.0942
 7009W        W49926  24.517  21.302  18.108 -0.0131 -0.3767  0.2262
 7010W        W49927  21.324  20.342  17.880 -0.1291 -0.1001 -0.2608
 7011W        W49928  23.529  15.796  16.991 -0.3556 -0.2317  0.2043
 7012W        W49929  23.864  21.042  17.147 -0.2894  0.0288 -0.2102
 7013W        W49930  24.835  21.124  19.561  0.1951  0.2124  0.1268
 7014W        W49931  25.595  16.825  19.110  0.1344  0.1042  0.0609
 7015W        W49932  24.642  22.432  18.398 -0.0916 -0.1003  0.1009
 7016W        W49933  22.078  18.983  20.693  0.1972 -0.4231  0.0919
 7017W        W49934  23.238  20.548  18.951  0.0101 -0.1455 -0.0392
 7018W        W49935  28.508  23.289  19.930 -0.0669 -0.0421 -0.0933
 7019W        W49936  23.005  21.244  17.223  0.2088  0.1332 -0.0271
 7020W        W49937  25.126  20.173  19.036 -0.0435 -0.1362 -0.0221
 7021W        W49938  26.770  20.002  19.382 -0.5028  0.3100  0.1853
 7022W        W49939  23.899  19.536  18.082 -0.1016  0.1576 -0.0632
 7023W        W49940  21.893  18.582  16.536  0.1547 -0.0951 -0.0606
 7024W        W49941  23.846  21.581  21.071 -0.2490 -0.3833 -0.1762
 7025W        W49942  21.408  18.434  14.878  0.1564  0.2833 -0.1616
 7026W        W49943  25.707  22.054  19.512  0.3079 -0.3018 -0.5734
 7027W        W49944  24.247  21.698  16.341  0.0413  0.2737 -0.0734
 7028W        W49945  25.946  20.833  18.020  0.1790 -0.3221 -0.0381
 7029W        W49946  22.908  18.259  17.035 -0.0132  0.0907  0.0015
 7030W        W49947  23.219  17.335  17.370 -0.0085 -0.0109  0.1487
 7031W        W49948  22.024  22.744  18.869  0.1878  0.1746  0.2413
 7032W        W49949  20.188  19.351  15.441 -0.0203  0.1961  0.0642
 7033W        W49950  23.133  20.970  15.927  0.2990  0.1406  0.0446
 7034W        W49951  24.782  22.923  19.192 -0.2576  0.3117 -0.2988
 7035W        W49952  24.834  20.856  20.777  0.0503  0.1032  0.0845
 7036W        W49953  22.710  19.063  15.189 -0.2162 -0.0938 -0.1954
 7037W        W49954  26.021  20.110  20.474 -0.1941 -0.2810  0.1529
 7038W        W49955  22.521  22.037  18.134  0.1698  0.0542  0.2757
 7039W        W49956  25.454  18.491  18.325  0.1342 -0.1912  0.4288
 7040W        W49957  23.687  20.754  19.115 -0.1599  0.0322  0.1618
 7041W        W49958  21.801  20.025  17.777  0.1628 -0.0166  0.0736
 7042W        W49959  21.917  20.849  16.516 -0.2628  0.2224  0.0351
 7043W        W49960  24.284  19.140  18.848 -0.0318 -0.3747  0.0572
 7044W        W49961  24.619  19.322  18.514 -0.3366  0.0376  0.0791
 7045W        W49962  23.887  22.065  17.873  0.2084 -0.2536 -0.2145
 7046W        W49963  24.460  22.548  20.026 -0.1640  0.3899 -0.1724
 7047W        W49964  25.507  21.071  19.466 -0.1470  0.1111  0.0110
 7048W        W49965  20.969  22.634  17.459  0.1779 -0.1014  0.0891
 7049W        W49966  23.113  22.429  19.420  0.0138 -0.0241 -0.1851
 7050W        W49967  26.417  21.138  17.790 -0.0032  0.3566 -0.3608
 7051W        W49968  23.371  22.348  18.869  0.0791 -0.0275 -0.1883
 7052W        W49969  23.024  20.128  20.827 -0.0216 -0.0111 -0.1807
 7053W        W49970  24.660  20.967  21.230  0.0845 -0.0507  0.0337
 7054W        W49971  24.162  22.524  17.327  0.3090 -0.0067 -0.5164
 7055W        W49972  22.477  18.114  18.072  0.1326  0.0199  0.3644
 7056W        W49973  22.610  20.216  16.179  0.1945  0.2278 -0.1235
 7057W        W49974  23.998  22.961  18.899  0.0194  0.1138 -0.2648
 7058W        W49975  21.460  20.194  17.375  0.0875  0.1752 -0.1573
 7059W        W49976  23.509  23.362  18.569 -0.2282  0.0221  0.1818
 7060W        W49977  23.052  20.005  16.420  0.2868 -0.0040 -0.2485
 7061W        W49978  22.345  20.667  16.282  0.2349  0.0910 -0.1481
 7062W        W49979  23.719  22.610  20.206  0.2314  0.1249  0.0838
 7063W        W49980  22.564  19.719  17.570 -0.0201 -0.0295 -0.0497
 7064W        W49981  22.783  22.369  16.744 -0.0628  0.1969  0.0563
 7065W        W49982  21.777  22.616  15.477 -0.1595 -0.1051 -0.3248
 7066W        W49983  24.524  21.706  18.458 -0.1714 -0.0810  0.0685
 7067W        W49984  22.051  21.669  18.033 -0.1654 -0.1202  0.0552
 7068W        W49985  23.989  21.144  19.307  0.1436 -0.0830 -0.0734
 7069W        W49986  24.840  18.038  17.095 -0.1877 -0.1157  0.0521
 7070W        W49987  23.206  21.455  19.619 -0.2724 -0.1325  0.1406
 7071W        W49988  24.463  20.291  16.877  0.0350 -0.1377 -0.0251
 7072W        W49989  26.209  23.875  20.559 -0.2316  0.0932 -0.1082
 7073W        W49990  24.678  19.997  18.832  0.0947  0.0253 -0.0035
 7074W        W49991  22.986  17.994  16.624  0.2110  0.0723  0.0030
 7075W        W49992  22.289  20.454  19.103 -0.0795 -0.0526 -0.1161
 7076W        W49993  25.427  18.042  20.564  0.1615  0.0851  0.0132
 7077W        W49994  21.472  24.244  19.236 -0.2102 -0.0556 -0.1819
 7078W        W49995  25.155  20.569  17.512 -0.1786  0.2803  0.1109
 7079W        W49996  21.552  18.946  14.851 -0.1822  0.0141 -0.2375
 7080W        W49997  24.041  21.447  17.520 -0.0165 -0.1971 -0.0279
 7081W        W49998  25.874  21.451  20.122 -0.0706 -0.2845 -0.0827
 7082W        W49999  21.790  19.603  16.353  0.1886  0.3305 -0.2426
 7083W        W50000  23.295  18.422  18.315  0.0763 -0.3124  0.1902
 7084W        W50001  24.794  21.345  17.144 -0.0408  0.1265 -0.1916
 7085W        W50002  22.564  21.582  17.890 -0.1438  0.0019 -0.3682
 7086W        W50003  24.989  21.083  16.727 -0.2392 -0.1114 -0.2048
 7087W        W50004  20.968  19.151  14.713 -0.1787  0.0717  0.0094
 7088W        W50005  24.546  20.981  20.009 -0.1069  0.0193 -0.3610
 7089W        W50006  25.139  20.737  19.815  0.1242  0.0048  0.3063
 7090W        W50007  25.901  20.142  17.434 -0.1038 -0.0473  0.2277
 7091W        W50008  22.451  20.399  16.675  0.1134 -0.2282  0.4654
 7092W        W50009  24.611  20.125  17.295 -0.1935  0.3734  0.3312
 7093W        W50010  22.895  20.730  20.041 -0.3050 -0.3822  0.1085
 7094W        W50011  22.781  18.962  18.111  0.1610  0.0964 -0.1073
 7095W        W50012  22.785  19.534  16.242 -0.1426 -0.0282  0.1220
 7096W        W50013  24.901  21.305  17.683  0.0761 -0.0145 -0.0216
 7097W        W50014  22.788  18.794  16.188 -0.1705  0.0830  0.0638
 7098W        W50015  24.540  22.480  20.525  0.4438 -0.0628 -0.0857
 7099W        W50016  21.522  19.159  15.460  0.0173  0.0664  0.0757
 7100W        W50017  23.604  18.186  16.073 -0.0178  0.2769 -0.0689
 7101W        W50018  25.055  20.094  19.885 -0.1271  0.5042 -0.0853
 7102W        W50019  27.506  18.596  20.255 -0.3773 -0.0046 -0.1344
 7103W        W50020  25.300  21.781  18.724 -0.0519  0.0514  0.0552
 7104W        W50021  22.378  18.974  18.443  0.5787 -0.0284 -0.1623
 7105W        W50022  24.225  23.530  16.211 -0.2445  0.3552  0.2359
 7106W        W50023  26.986  20.388  19.071  0.0436 -0.2386  0.4554
 7107W        W50024  22.458  23.426  16.061 -0.0356  0.0300  0.2078
 7108W        W50025  24.406  22.902  17.075 -0.0072 -0.0998  0.0614
 7109W        W50026  25.715  22.512  19.436  0.3116 -0.0261  0.4429
 7110W        W50027  21.311  20.246  16.908  0.4434  0.0329  0.0499
 7111W        W50028  25.382  22.069  19.167 -0.3555  0.1621  0.4248
 7112W        W50029  24.493  20.062  17.780  0.1304 -0.0572 -0.0181
 7113W        W50030  23.510  18.591  16.381  0.1395  0.0258  0.0433
 7114W        W50031  21.674  18.624  15.854  0.2159 -0.1043 -0.0041
 7115W        W50032  23.567  23.315  17.212  0.1033 -0.0124 -0.3540
 7116W        W50033  23.869  17.605  20.329 -0.0586 -0.2250 -0.0178
 7117W        W50034  25.762  17.062  18.670  0.1413 -0.4341  0.2868
 7118W        W50035  22.614  20.637  15.252  0.1398  0.1425 -0.0604
 7119W        W50036  24.358  19.285  20.247  0.0195  0.2823 -0.0710
 7120W        W50037  23.086  21.559  20.136  0.3422  0.0656  0.0365
 7121W        W50038  21.396  21.613  19.208 -0.0357 -0.1062  0.2795
 7122W        W50039  21.605  19.816  15.356 -0.2616 -0.0336  0.2450
 7123W        W50040  23.534  21.914  20.314 -0.2197  0.0289  0.0123
 7124W        W50041  24.330  22.081  18.231 -0.0963 -0.4734  0.0203
 7125W        W50042  24.672  20.403  18.440  0.0536  0.0243 -0.2287
 7126W        W50043  24.977  23.218  19.628 -0.1053  0.2811 -0.3858
 7127W        W50044  23.362  19.794  16.921 -0.3809 -0.0291  0.1039
 7128W        W50045  26.687  21.676  17.913  0.0936  0.3109 -0.1917
 7129W        W50046  22.145  17.247  17.234 -0.1110  0.1049 -0.0234
 7130W        W50047  25.154  18.923  19.345 -0.2536  0.1758  0.0102
 7131W        W50048  23.239  17.990  15.723 -0.1827 -0.1842 -0.0969
 7132W        W50049  23.212  22.888  19.648 -0.1469  0.3246  0.2113
 7133W        W50050  21.228  19.580  15.532  0.0625 -0.0693  0.2739
 7134W        W50051  21.206  21.623  15.870  0.3319  0.0751  0.0030
 7135W        W50052  22.535  20.936  18.217 -0.1250 -0.0700  0.1217
 7136W        W50053  22.456  18.480  18.560 -0.2374  0.0198  0.0411
 7137W        W50054  22.777  18.014  18.906  0.1908  0.0113 -0.0152
 7138W        W50055  22.529  21.114  17.093 -0.0614 -0.0787  0.0665
 7139W        W50056  21.887  17.496  15.700  0.0749  0.0754  0.0132
 7140W        W50057  24.242  20.730  17.274  0.0089 -0.4154 -0.3840
 7141W        W50058  22.985  15.963  17.991  0.0521  0.0667 -0.0025
 7142W        W50059  21.146  19.833  17.138 -0.0997 -0.3476 -0.0443
 7143W        W50060  25.111  21.370  16.302 -0.0022 -0.1688 -0.2710
 7144W        W50061  24.948  21.856  18.130  0.0850  0.4144 -0.0969
 7145W        W50062  23.365  19.501  16.294 -0.1821  0.2570 -0.3508
 7146W        W50063  25.829  21.747  21.057 -0.0933 -0.1041  0.1019
 7147W        W50064  21.984  22.178  16.267 -0.1473  0.3516 -0.1159
 7148W        W50065  24.454  20.003  19.281  0.2904  0.1127  0.0734
 7149W        W50066  23.780  17.025  20.167 -0.1524  0.1603  0.4191
 7150W        W50067  20.432  20.065  15.472 -0.0545 -0.2064  0.1842
 7151W        W50068  23.823  20.270  19.372 -0.1759  0.2536  0.3149
 7152W        W50069  22.482  22.410  16.327  0.0512  0.1438  0.2446
 7153W        W50070  21.983  24.036  17.293  0.2287  0.2894 -0.0529
 7154W        W50071  24.223  20.363  18.180 -0.0715 -0.0044 -0.0267
 7155W        W50072  22.528  22.991  18.999 -0.0563  0.2637  0.1711
 7156W        W50073  22.864  17.771  17.826  0.2058  0.2041  0.0862
 7157W        W50074  23.907  21.034  16.212  0.1432  0.2269 -0.2396
 7158W        W50075  23.401  20.578  19.430  0.1915 -0.3991 -0.1836
 7159W        W50076  26.264  20.767  17.020 -0.0988 -0.4504  0.2649
 7160W        W50077  24.184  18.642  19.358 -0.1605  0.0950  0.2189
 7161W        W50078  24.686  19.555  19.121  0.1055 -0.0620 -0.0483
 7162W        W50079  23.596  20.518  21.466  0.1184  0.0897  0.0378
 7163W        W50080  22.209  22.299  16.756  0.1375 -0.0887 -0.2713
 7164W        W50081  24.191  19.841  17.441 -0.1047  0.4322 -0.3658
 7165W        W50082  22.956  18.669  17.536 -0.0393 -0.1337  0.1818
 7166W        W50083  25.816  19.643  19.517 -0.0224 -0.1597 -0.1309
 7167W        W50084  23.701  20.510  16.284  0.2945 -0.0810 -0.0709
 7168W        W50085  22.771  19.242  17.621  0.1308 -0.0017 -0.0941
 7169W        W50086  23.367  18.058  17.241 -0.1587  0.0426 -0.1924
 7170W        W50087  23.960  19.597  21.103  0.0541 -0.0739 -0.1669
 7171W        W50088  24.453  22.675  18.882 -0.1366  0.1783  0.1499
 7172W        W50089  26.837  19.424  19.485 -0.3690 -0.0104 -0.0199
 7173W        W50090  22.161  19.505  15.970 -0.0969 -0.0839 -0.1078
 7174W        W50091  24.426  20.917  18.469  0.2187 -0.0849 -0.1133
 7175W        W50092  23.556  23.302  20.938 -0.1183  0.1218 -0.2136
 7176W        W50093  25.952  23.293  22.262 -0.0140  0.0127 -0.3215
 7177W        W50094  25.571  20.514  18.923  0.0471  0.4527 -0.3498
 7178W        W50095  25.629  20.340  18.339  0.3452 -0.1156 -0.2014
 7179W        W50096  22.826  15.078  18.048  0.2309  0.1719 -0.1449
 7180W        W50097  22.981  20.112  17.527 -0.0538  0.0757 -0.1104
 7181W        W50098  26.190  20.586  19.057  0.0076 -0.1802 -0.1116
 7182W        W50099  26.658  20.745  18.937  0.4073  0.0442 -0.3343
 7183W        W50100  23.013  18.300  16.145 -0.0434  0.1317 -0.1401
 7184W        W50101  23.038  19.431  17.207  0.0406 -0.0409 -0.4687
 7185W        W50102  23.823  21.701  19.479 -0.2161 -0.2420 -0.0124
 7186W        W50103  26.136  21.818  19.601 -0.3243 -0.1371 -0.2662
 7187W        W50104  22.376  20.956  21.845 -0.0500  0.0357  0.2178
 7188W        W50105  24.773  20.362  19.510 -0.0645 -0.1499  0.1128
 7189W        W50106  23.900  19.035  20.271  0.0197  0.0790 -0.1549
 7190W        W50107  25.717  20.702  21.158  0.3116 -0.2405 -0.0427
 7191W        W50108  23.341  20.153  18.633  0.0977 -0.1705  0.0947
 7192W        W50109  24.972  21.131  21.566  0.1709  0.0584  0.0666
 7193W        W50110  23.522  18.178  21.531 -0.0475 -0.1878 -0.0899
 7194W        W50111  25.855  20.886  21.982  0.3083 -0.0296  0.1342
 7195W        W50112  25.150  22.355  24.521  0.2878  0.0358 -0.2620
 7196W        W50113  26.436  20.025  20.227 -0.0892  0.0740 -0.3251
 7197W        W50114  21.568  19.616  22.290  0.0479 -0.0562  0.0290
 7198W        W50115  21.481  21.928  22.366  0.0719 -0.0800  0.3107
 7199W        W50116  23.977  19.839  19.479 -0.4564  0.2102 -0.2252
 7200W        W50117  22.226  19.946  19.107  0.3213  0.0501  0.1949
 7201W        W50118  23.629  19.684  22.355 -0.1723  0.1427  0.1593
 7202W        W50119  23.105  19.510  20.604  0.3698 -0.1838 -0.3205
 7203W        W50120  24.782  19.336  22.632 -0.1696 -0.0127  0.1212
 7204W        W50121  24.743  19.066  19.796 -0.1117  0.1060  0.1674
 7205W        W50122  23.689  22.621  23.535  0.0637  0.0530  0.3259
 7206W        W50123  25.764  17.629  22.444 -0.0626 -0.0023 -0.0940
 7207W        W50124  23.742  18.882  22.684  0.1220 -0.2191  0.0607
 7208W        W50125  25.398  21.801  22.989  0.2641  0.1659  0.1820
 7209W        W50126  21.316  18.689  20.704 -0.1325 -0.1620 -0.1946
 7210W        W50127  22.995  17.850  20.697  0.2868  0.2315  0.1575
 7211W        W50128  24.749  18.131  22.813 -0.4295  0.0350  0.0572
 7212W        W50129  25.017  20.324  22.108 -0.0726 -0.1083  0.4172
 7213W        W50130  23.750  20.635  21.994  0.2114  0.1107 -0.0216
 7214W        W50131  23.578  22.838  21.880 -0.0474 -0.1331  0.0100
 7215W        W50132  23.588  22.812  23.062  0.2064  0.1208 -0.0093
 7216W        W50133  25.372  21.858  24.038  0.1436  0.0096  0.3282
 7217W        W50134  22.156  21.304  19.577 -0.1624  0.0471  0.1182
 7218W        W50135  23.063  21.830  21.005  0.0206 -0.0442  0.1264
 7219W        W50136  24.665  20.523  19.985 -0.0998  0.1361  0.2572
 7220W        W50137  26.602  19.565  20.146  0.1268 -0.3676 -0.1840
 7221W        W50138  23.975  22.277  24.010  0.2048  0.2133 -0.0918
 7222W        W50139  21.127  23.315  23.423  0.1595  0.1173  0.0154
 7223W        W50140  24.203  19.786  20.011 -0.0052  0.2483 -0.2782
 7224W        W50141  22.061  21.858  23.732 -0.1687 -0.0500 -0.1109
 7225W        W50142  21.354  20.970  22.068 -0.2786  0.2105 -0.1349
 7226W        W50143  24.167  19.321  22.725  0.1110  0.4979  0.0520
 7227W        W50144  25.869  20.832  24.449 -0.0084  0.5260  0.0203
 7228W        W50145  22.156  22.056  19.510  0.0615  0.0271 -0.1229
 7229W        W50146  24.148  22.714  24.343  0.1626  0.3094  0.0539
 7230W        W50147  21.042  20.481  23.702  0.0204  0.0824 -0.0084
 7231W        W50148  20.230  20.195  20.923 -0.1861  0.0193  0.0380
 7232W        W50149  26.778  17.841  23.488  0.0109 -0.0972  0.1562
 7233W        W50150  21.764  22.137  19.841  0.0895 -0.3407  0.0490
 7234W        W50151  24.194  19.693  20.620  0.1840  0.0612 -0.4111
 7235W        W50152  24.223  20.410  19.134 -0.1859  0.0001 -0.0923
 7236W        W50153  23.933  19.393  19.902 -0.4060 -0.1768 -0.0208
 7237W        W50154  23.450  19.123  20.030 -0.1267 -0.0211  0.4369
 7238W        W50155  24.137  20.743  22.443 -0.0017  0.0960 -0.1838
 7239W        W50156  24.923  19.511  21.453 -0.1016  0.1225  0.0623
 7240W        W50157  22.188  22.055  24.180 -0.1232  0.3421 -0.2540
 7241W        W50158  23.207  20.230  20.288 -0.0679 -0.0949 -0.0503
 7242W        W50159  25.336  19.612  21.715  0.0388  0.2259  0.0911
 7243W        W50160  24.651  21.441  22.512 -0.1268  0.0875 -0.2057
 7244W        W50161  23.923  21.568  22.135  0.1715 -0.4398  0.0189
 7245W        W50162  26.207  21.867  20.488 -0.1814 -0.0050 -0.0329
 7246W        W50163  27.182  22.769  22.102  0.0715  0.1431  0.1244
 7247W        W50164  22.930  21.498  20.643  0.0376  0.1116  0.0190
 7248W        W50165  23.954  17.719  19.855  0.2222  0.0027  0.0022
 7249W        W50166  22.167  21.095  23.156  0.0378  0.1649  0.2309
 7250W        W50167  22.446  20.370  22.869 -0.3319  0.0429  0.0952
 7251W        W50168  26.053  17.815  19.118 -0.1473  0.2126 -0.2917
 7252W        W50169  26.786  23.205  23.464  0.0088  0.1342  0.2855
 7253W        W50170  20.222  20.942  21.240 -0.2456  0.2571 -0.0156
 7254W        W50171  27.044  21.133  22.193  0.0251  0.2532  0.2221
 7255W        W50172  24.249  21.166  22.238  0.0282  0.0431 -0.1635
 7256W        W50173  25.911  22.659  23.007  0.1550 -0.1033  0.1509
 7257W        W50174  24.872  21.378  21.031  0.4294  0.1480 -0.1869
 7258W        W50175  24.662  20.360  23.315  0.0256 -0.0327  0.2590
 7259W        W50176  24.564  18.864  22.710  0.0167  0.1697  0.0718
 7260W        W50177  22.912  20.746  17.478  0.0770 -0.0219 -0.1254
 7261W        W50178  24.139  20.043  21.065 -0.4626  0.1881 -0.1237
 7262W        W50179  25.693  22.223  23.254  0.0999 -0.0304 -0.0896
 7263W        W50180  26.103  23.142  20.731  0.0271  0.0124 -0.2286
 7264W        W50181  24.074  21.695  20.071 -0.1973  0.0087  0.3232
 7265W        W50182  24.317  20.150  23.655 -0.0420 -0.2482  0.1120
 7266W        W50183  25.147  20.007  23.251  0.2885 -0.2196 -0.0892
 7267W        W50184  22.207  24.245  19.922  0.0429 -0.0961  0.3075
 7268W        W50185  24.205  20.336  19.632  0.0192  0.3163 -0.0214
 7269W        W50186  23.180  21.613  18.552 -0.0433 -0.3472  0.2940
 7270W        W50187  23.140  19.022  20.506  0.0886 -0.1531  0.0526
 7271W        W50188  22.430  21.579  21.314  0.0402 -0.2857  0.1834
 7272W        W50189  22.028  18.969  21.704 -0.1546 -0.1287 -0.0917
 7273W        W50190  23.657  17.699  21.399 -0.0793  0.0353  0.2318
 7274W        W50191  25.788  17.240  21.056 -0.0586 -0.2977 -0.0722
 7275W        W50192  23.186  20.125  21.273  0.1876 -0.1802  0.1136
 7276W        W50193  25.031  22.643  20.585 -0.2931  0.2920 -0.1261
 7277W        W50194  24.928  20.003  21.357  0.1423 -0.0427 -0.1958
 7278W        W50195  23.872  22.498  18.777 -0.0236  0.1675  0.1745
 7279W        W50196  21.736  20.486  21.321 -0.1004 -0.2151  0.0446
 7280W        W50197  21.912  19.577  20.010  0.1037  0.1117  0.0605
 7281W        W50198  22.052  20.090  24.114  0.1441  0.0897 -0.3123
 7282W        W50199  22.079  18.023  20.552  0.0620 -0.0979 -0.0202
 7283W        W50200  24.558  22.111  23.159  0.2317  0.0227  0.1742
 7284W        W50201  22.608  19.805  18.595  0.0944  0.0470  0.1622
 7285W        W50202  22.933  20.602  20.514  0.4472  0.0820  0.0395
 7286W        W50203  23.292  15.987  22.001  0.0143  0.1585  0.1700
 7287W        W50204  25.323  20.550  20.763  0.2923 -0.1252  0.2417
 7288W        W50205  26.189  21.297  24.475  0.0723 -0.0532 -0.3719
 7289W        W50206  25.786  22.260  23.752 -0.2010 -0.0083 -0.0212
 7290W        W50207  25.651  23.650  23.416 -0.0482 -0.0006 -0.1587
 7291W        W50208  25.764  20.249  20.883 -0.2245 -0.1234  0.0053
 7292W        W50209  22.963  18.602  21.937  0.0833 -0.1320  0.0623
 7293W        W50210  22.161  19.714  18.308  0.2503  0.3064 -0.2118
 7294W        W50211  21.965  21.753  21.717  0.0961  0.0992  0.1591
 7295W        W50212  23.396  22.411  23.892 -0.2888  0.2146  0.0825
 7296W        W50213  23.676  17.698  20.861 -0.0810  0.0911 -0.0017
 7297W        W50214  27.220  24.091  22.520 -0.4742 -0.1759 -0.1268
 7298W        W50215  24.006  20.644  20.502 -0.0704 -0.1730 -0.5056
 7299W        W50216  22.599  22.431  22.067  0.1628 -0.0464 -0.3396
 7300W        W50217  26.706  16.839  20.767 -0.1103 -0.1203 -0.1423
 7301W        W50218  25.877  21.699  23.840 -0.0802  0.1300  0.1792
 7302W        W50219  23.320  22.385  22.783  0.1458  0.1893  0.0627
 7303W        W50220  22.882  18.358  19.279  0.0475 -0.1287  0.0068
 7304W        W50221  24.898  24.332  22.926 -0.1207 -0.0931  0.0570
 7305W        W50222  22.926  22.332  20.847 -0.1148 -0.1073  0.0959
 7306W        W50223  23.455  19.032  19.409  0.2075 -0.0625 -0.0847
 7307W        W50224  23.365  20.926  21.749 -0.3172 -0.0852 -0.2345
 7308W        W50225  24.468  20.983  23.187 -0.1368  0.1433  0.1648
 7309W        W50226  21.374  21.836  21.646  0.6003 -0.0109 -0.1666
 7310W        W50227  21.703  18.099  21.153 -0.2197  0.0896 -0.0737
 7311W        W50228  24.779  19.006  20.246  0.1600  0.1281 -0.1177
 7312W        W50229  23.138  19.599  21.980  0.0299 -0.0820 -0.0796
 7313W        W50230  22.464  19.442  17.987 -0.1771  0.0540  0.1469
 7314W        W50231  25.363  19.963  22.643 -0.2739 -0.1636  0.1357
 7315W        W50232  23.164  20.095  21.813 -0.0336  0.0796  0.1176
 7316W        W50233  24.986  21.680  21.631 -0.4428 -0.0202  0.0028
 7317W        W50234  24.584  18.002  18.901 -0.1779 -0.1035  0.3401
 7318W        W50235  24.483  18.032  21.419 -0.1400 -0.0135 -0.0564
 7319W        W50236  22.632  21.751  23.727  0.2919 -0.2577  0.0471
 7320W        W50237  24.921  22.557  22.916 -0.1839 -0.1202  0.1382
 7321W        W50238  23.465  21.890  22.874 -0.2487 -0.0999 -0.1530
 7322W        W50239  25.899  19.765  20.818 -0.0122  0.3055 -0.1341
 7323W        W50240  26.071  20.931  20.247  0.2853 -0.1998 -0.0099
 7324W        W50241  24.949  20.291  22.791 -0.1316 -0.1392  0.2049
 7325W        W50242  23.502  21.945  23.524  0.1504  0.0840 -0.0883
 7326W        W50243  23.074  21.950  22.462  0.0324 -0.0475  0.2085
 7327W        W50244  23.798  18.652  22.252  0.1080  0.0989 -0.0315
 7328W        W50245  22.607  22.001  19.271  0.2888  0.0749  0.3564
 7329W        W50246  25.099  17.927  19.038  0.2129  0.0758  0.2167
 7330W        W50247  21.618  23.324  20.727  0.0522  0.2152  0.1592
 7331W        W50248  24.497  21.034  21.763  0.2001  0.0029 -0.2287
 7332W        W50249  24.442  20.195  22.220  0.0654  0.1724 -0.1463
 7333W        W50250  23.345  16.879  22.350  0.0421 -0.0299  0.2686
 7334W        W50251  23.725  20.785  24.043 -0.0875  0.1785 -0.2944
 7335W        W50252  24.812  18.223  22.209  0.0053  0.2098  0.0324
 7336W        W50253  24.635  19.933  22.915  0.1322  0.1635  0.0050
 7337W        W50254  23.021  19.671  17.890 -0.1505 -0.0379  0.0881
 7338W        W50255  25.040  19.542  22.146  0.3951 -0.0702 -0.2235
 7339W        W50256  26.467  18.088  23.165 -0.0643 -0.2915 -0.4162
 7340W        W50257  22.847  20.209  23.498  0.2992  0.1511 -0.0025
 7341W        W50258  24.060  22.697  23.080  0.1582 -0.2171 -0.2917
 7342W        W50259  25.614  20.256  22.233  0.6455 -0.1312 -0.1552
 7343W        W50260  25.206  19.092  22.931  0.0279  0.3031  0.0902
 7344W        W50261  24.082  16.780  19.752 -0.0363  0.1142 -0.3880
 7345W        W50262  23.752  22.785  20.704 -0.4188  0.1159 -0.3366
 7346W        W50263  24.571  22.870  18.015 -0.0030 -0.2830 -0.0524
 7347W        W50264  21.448  16.494  20.045  0.1513  0.1606 -0.0392
 7348W        W50265  23.304  20.487  22.027  0.1638  0.1163  0.1581
 7349W        W50266  25.233  21.168  19.057 -0.3161 -0.1958  0.1758
 7350W        W50267  25.256  20.620  22.474  0.1901 -0.0168  0.0800
 7351W        W50268  22.011  22.494  21.208  0.1210  0.0339 -0.0640
 7352W        W50269  26.056  20.336  25.234  0.2036 -0.0068  0.1259
 7353W        W50270  22.440  19.634  21.321 -0.1640  0.1352  0.0205
 7354W        W50271  23.339  21.714  22.090  0.2521  0.1334  0.0466
 7355W        W50272  25.186  20.951  21.096 -0.1194 -0.0936 -0.0451
 7356W        W50273  24.655  21.266  20.502  0.2832 -0.0327  0.1395
 7357W        W50274  25.323  21.404  21.341  0.0303 -0.1217 -0.0963
 7358W        W50275  22.739  19.477  21.741 -0.0167 -0.3258 -0.4373
 7359W        W50276  22.850  18.695  20.994  0.1919 -0.0908  0.0848
 7360W        W50277  19.820  23.498  22.193 -0.0532  0.2222 -0.1534
 7361W        W50278  24.701  19.370  23.514 -0.0211  0.1533 -0.0847
 7362W        W50279  26.250  17.703  21.317  0.0591  0.0415  0.3276
 7363W        W50280  24.336  22.499  24.882 -0.1103 -0.0481  0.4298
 7364W        W50281  21.829  21.447  24.056  0.0064 -0.4478  0.0762
 7365W        W50282  23.107  18.928  19.070 -0.0887 -0.1243  0.0356
 7366W        W50283  25.688  20.382  24.182 -0.3594 -0.0482 -0.1228
 7367W        W50284  23.763  19.973  24.209  0.0405 -0.1861  0.1587
 7368W        W50285  22.688  22.376  23.282  0.1864 -0.1137  0.1135
 7369W        W50286  22.392  22.260  23.701 -0.1186 -0.0902 -0.0319
 7370W        W50287  21.139  22.613  20.087 -0.0743  0.2053  0.0477
 7371W        W50288  22.666  21.171  20.392  0.0549  0.0355 -0.1383
 7372W        W50289  23.043  19.731  24.255  0.2090 -0.2060  0.0178
 7373W        W50290  25.741  20.941  23.973 -0.1203  0.0283  0.3789
 7374W        W50291  24.219  18.390  19.851  0.0442  0.1056  0.0491
 7375W        W50292  23.983  17.075  20.682 -0.3250 -0.1728  0.2318
 7376W        W50293  24.957  19.569  23.149 -0.2396  0.1508  0.0565
 7377W        W50294  25.457  20.657  21.912  0.2628 -0.1787 -0.0971
 7378W        W50295  23.828  20.618  22.872  0.1182 -0.0204  0.1792
 7379W        W50296  22.319  20.862  22.588 -0.0593  0.1766  0.0695
 7380W        W50297  24.026  18.102  22.283  0.0396  0.2665 -0.0639
 7381W        W50298  24.308  21.809  19.424  0.0772  0.2287 -0.2009
 7382W        W50299  23.927  20.122  23.308  0.0854 -0.3856  0.0099
 7383W        W50300  23.503  20.455  20.567 -0.0512 -0.2320 -0.0291
 7384W        W50301  21.413  20.328  20.746 -0.0339 -0.0740  0.0739
 7385W        W50302  24.086  20.767  21.463 -0.0658  0.1222 -0.0381
 7386W        W50303  22.761  18.777  22.652  0.0029 -0.1115  0.0315
 7387W        W50304  24.401  20.407  22.788  0.3538 -0.1140  0.1297
 7388W        W50305  25.054  21.630  20.625  0.1441  0.1663 -0.0169
 7389W        W50306  22.482  22.229  21.121 -0.2145  0.4732  0.0518
 7390W        W50307  25.413  18.800  21.841 -0.1129  0.2330  0.1549
 7391W        W50308  25.486  19.728  22.163 -0.1367 -0.2156  0.1531
 7392W        W50309  25.195  18.798  21.360 -0.2168 -0.0049 -0.0958
 7393W        W50310  25.959  17.335  22.964 -0.2279  0.3416  0.1987
 7394W        W50311  22.919  21.020  20.845 -0.1250 -0.1463  0.1226
 7395W        W50312  24.227  18.118  22.823  0.0438  0.2740 -0.4069
 7396W        W50313  22.409  18.638  22.945  0.0337 -0.1751  0.2402
 7397W        W50314  25.494  23.060  21.384  0.1829 -0.1483  0.4423
 7398W        W50315  24.813  18.107  21.745 -0.2696 -0.4908  0.2398
 7399W        W50316  21.988  22.963  24.139 -0.0370 -0.1172  0.2177
 7400W        W50317  22.371  21.752  22.825  0.2584  0.1543  0.0135
 7401W        W50318  26.451  16.766  21.426 -0.1588  0.1002  0.0675
 7402W        W50319  22.799  19.333  18.840  0.0660  0.1518 -0.0215
 7403W        W50320  25.353  20.221  21.728 -0.1186  0.1212 -0.1428
 7404W        W50321  23.854  22.402  22.099  0.1760  0.0974  0.1065
 7405W        W50322  24.034  21.975  22.885 -0.1358 -0.1182  0.0969
 7406W        W50323  26.726  20.140  23.189  0.3464  0.1359 -0.0207
 7407W        W50324  25.140  19.148  23.492 -0.0153  0.0122  0.2417
 7408W        W50325  24.998  19.683  20.805 -0.0074  0.0397  0.1314
 7409W        W50326  25.238  20.451  20.256 -0.0019  0.3498 -0.1786
 7410W        W50327  24.361  21.288  19.661  0.0216  0.2255  0.2138
 7411W        W50328  21.345  18.482  22.924  0.1493 -0.0959  0.3068
 7412W        W50329  23.462  21.500  22.480  0.1904 -0.2098  0.1021
 7413W        W50330  24.631  19.080  21.597 -0.2729 -0.0910 -0.1586
 7414W        W50331  24.662  18.710  20.687  0.0112 -0.1221 -0.3321
 7415W        W50332  25.306  18.113  23.685  0.2232 -0.0086 -0.2392
 7416W        W50333  23.231  19.931  22.364 -0.2734 -0.1217 -0.2447
 7417W        W50334  22.140  17.425  22.561  0.2237  0.1680  0.3077
 7418W        W50335  25.500  21.820  22.411  0.2016  0.0404 -0.0716
 7419W        W50336  25.100  19.164  21.864 -0.1277  0.0115 -0.0524
 7420W        W50337  24.814  18.867  24.444  0.3428  0.2542  0.3368
 7421W        W50338  24.948  21.769  23.239  0.1648  0.1047 -0.0974
 7422W        W50339  25.255  21.906  19.729 -0.0621 -0.1270 -0.0426
 7423W        W50340  22.069  18.428  21.652 -0.0536  0.3191  0.1055
 7424W        W50341  25.142  20.978  23.860 -0.3379  0.2941  0.1268
 7425W        W50342  22.680  18.176  20.845  0.0526  0.0030  0.4099
 7426W        W50343  23.968  21.015  23.177  0.0374  0.1529  0.0976
 7427W        W50344  22.840  22.746  21.254 -0.1143  0.1039  0.0657
 7428W        W50345  22.575  23.252  21.366 -0.1432  0.1573 -0.3623
 7429W        W50346  25.110  18.809  22.499 -0.0097 -0.3087 -0.2691
 7430W        W50347  23.106  19.295  22.388 -0.0445 -0.1510  0.2787
 7431W        W50348  22.134  22.400  21.896 -0.0088 -0.0194 -0.1007
 7432W        W50349  24.504  20.715  20.445  0.1671  0.1099 -0.0990
 7433W        W50350  23.444  20.974  18.347  0.1904 -0.2913  0.0455
 7434W        W50351  22.658  21.090  22.279  0.2325  0.2438  0.0582
 7435W        W50352  24.387  21.850  22.585 -0.0412  0.0758  0.2742
 7436W        W50353  23.874  17.205  19.688  0.5809 -0.0491  0.0655
 7437W        W50354  24.880  20.449  21.026  0.0503 -0.2395 -0.2789
 7438W        W50355  23.994  22.228  20.203  0.4163 -0.0826  0.1858
 7439W        W50356  24.250  18.979  22.353 -0.2251  0.0175 -0.0437
 7440W        W50357  24.433  20.405  21.274  0.0551 -0.0049  0.2011
 7441W        W50358  21.566  20.829  20.883  0.0718  0.2139 -0.2464
 7442W        W50359  24.225  20.654  21.939 -0.1571  0.1480  0.0042
 7443W        W50360  23.103  18.032  21.724 -0.3394 -0.2281 -0.0211
 7444W        W50361  26.804  21.525  19.740  0.1401  0.1251 -0.0212
 7445W        W50362  24.453  18.527  21.371 -0.0956  0.1962  0.2126
 7446W        W50363  24.621  17.873  20.721  0.2277 -0.0929 -0.2878
 7447W        W50364  22.989  22.914  23.329  0.1877  0.0972 -0.2024
 7448W        W50365  21.111  21.055  21.122  0.1795  0.0986  0.1341
 7449W        W50366  25.002  21.042  22.472  0.0153 -0.2699 -0.0307
 7450W        W50367  24.849  19.834  21.843 -0.1771  0.1081 -0.2421
 7451W        W50368  24.602  21.535  21.377  0.1221  0.1626  0.2806
 7452W        W50369  22.402  22.094  21.626 -0.0175 -0.1146  0.0192
 7453W        W50370  25.500  20.942  23.422 -0.4366  0.2481  0.2329
 7454W        W50371  25.909  20.448  21.710 -0.0370  0.2116  0.1356
 7455W        W50372  24.088  19.210  20.689  0.0325 -0.1281 -0.2201
 7456W        W50373  22.826  20.765  21.939 -0.2980 -0.0577  0.0687
 7457W        W50374  22.953  21.175  23.136 -0.0715  0.3062  0.1621
 7458W        W50375  21.794  21.169  24.580  0.3077  0.0518  0.1095
 7459W        W50376  24.466  21.998  19.944 -0.1969 -0.0612 -0.0558
 7460W        W50377  23.458  20.629  19.930 -0.0858  0.0597  0.5439
 7461W        W50378  23.569  22.008  19.846  0.0193 -0.0925  0.1948
 7462W        W50379  24.923  23.197  23.905 -0.0108 -0.0381  0.0140
 7463W        W50380  23.101  19.701  21.488 -0.0328 -0.1969  0.2452
 7464W        W50381  23.685  21.053  21.296  0.2632  0.0243 -0.1545
 7465W        W50382  21.901  22.377  19.249 -0.2004  0.0226  0.0251
 7466W        W50383  23.926  21.574  23.227  0.0380  0.2115  0.0454
 7467W        W50384  23.540  21.442  21.713  0.0041 -0.1021  0.1505
 7468W        W50385  24.361  22.260  24.311  0.1848 -0.1289  0.0084
 7469W        W50386  25.757  21.279  20.558  0.0737 -0.1629 -0.0512
 7470W        W50387  26.656  20.582  22.853 -0.1156 -0.0599  0.2065
 7471W        W50388  24.310  18.908  21.004  0.2857  0.2294  0.0462
 7472W        W50389  24.833  21.259  22.982  0.2630 -0.1366 -0.1088
 7473W        W50390  23.047  21.604  22.817  0.0194 -0.1910  0.0591
 7474W        W50391  23.198  16.075  19.090  0.4117  0.1626  0.0605
 7475W        W50392  24.238  19.839  22.607 -0.0306 -0.4005 -0.1239
 7476W        W50393  26.103  19.083  23.148  0.1647  0.1134 -0.0813
 7477W        W50394  20.396  21.522  24.830  0.1367  0.0679 -0.0218
 7478W        W50395  26.005  21.226  22.318 -0.1066 -0.3219 -0.1521
 7479W        W50396  23.940  21.154  21.741  0.1046 -0.1718 -0.0577
 7480W        W50397  26.088  20.075  23.156 -0.0051  0.2463 -0.0932
 7481W        W50398  25.987  17.547  21.799  0.1169 -0.0394 -0.1963
 7482W        W50399  25.689  21.908  20.030  0.2727  0.1328 -0.4809
 7483W        W50400  23.842  18.764  20.880 -0.3138 -0.1696  0.2269
 7484W        W50401  23.197  22.254  21.486  0.1115 -0.3356 -0.2205
 7485W        W50402  23.412  20.828  22.390  0.2044  0.0429  0.1173
 7486W        W50403  23.993  23.128  23.320  0.2978 -0.1963  0.1550
 7487W        W50404  22.255  21.529  16.956 -0.1196  0.0320  0.1475
 7488W        W50405  26.786  20.175  22.095 -0.0385 -0.0311 -0.0245
 7489W        W50406  23.781  19.010  21.829 -0.1204  0.1426  0.2177
 7490W        W50407  25.548  17.611  23.170 -0.2645 -0.1699  0.4338
 7491W        W50408  25.306  22.118  20.301 -0.2142  0.0447  0.0824
 7492W        W50409  24.054  21.725  21.556 -0.2995  0.4701 -0.0419
 7493W        W50410  25.296  20.936  24.389  0.2306  0.2739  0.0050
 7494W        W50411  22.857  20.340  22.358 -0.0597  0.4531 -0.0741
 7495W        W50412  23.327  20.366  22.628 -0.1002  0.0127  0.1392
 7496W        W50413  25.475  19.530  23.237 -0.0824 -0.0641 -0.0993
 7497W        W50414  26.326  21.347  20.214 -0.1573 -0.3596  0.1591
 7498W        W50415  24.040  23.166  22.759  0.4434  0.1464 -0.3466
 7499W        W50416  23.192  19.109  21.844 -0.4113 -0.1170  0.2731
 7500W        W50417  22.777  20.639  19.105  0.1796  0.2919  0.0521
 7501W        W50418  23.318  21.438  20.957 -0.0643 -0.0710  0.1513
 7502W        W50419  22.372  19.918  22.045  0.0375 -0.1512  0.0366
 7503W        W50420  24.918  23.473  22.597  0.0028 -0.2083  0.1203
 7504W        W50421  24.917  18.674  21.802  0.0613  0.1126 -0.2944
 7505W        W50422  25.173  22.326  21.106 -0.1766  0.2943  0.0168
 7506W        W50423  25.825  20.934  23.034 -0.1765 -0.1140  0.0363
 7507W        W50424  25.949  21.314  19.328  0.0122  0.2427 -0.1225
 7508W        W50425  25.888  21.147  21.056  0.1738 -0.0121  0.3959
 7509W        W50426  23.899  21.572  22.677 -0.1515  0.3314  0.1562
 7510W        W50427  21.221  19.174  21.023 -0.0593 -0.2897 -0.0466
 7511W        W50428  24.540  23.142  23.566 -0.0611 -0.1214  0.2505
 7512W        W50429  26.704  22.573  22.014 -0.1141  0.0433  0.0306
 7513W        W50430  26.233  19.043  21.570 -0.2416  0.3407 -0.0075
 7514W        W50431  23.539  19.272  20.732 -0.3555  0.0168 -0.1878
 7515W        W50432  22.154  23.256  20.869 -0.2275 -0.1203 -0.1569
 7516W        W50433  24.163  20.531  23.296 -0.0565 -0.1064 -0.1488
 7517W        W50434  22.420  20.905  23.935 -0.0403 -0.0449  0.1991
 7518W        W50435  23.262  21.583  19.160 -0.1074  0.2649  0.2440
 7519W        W50436  24.507  21.460  24.015 -0.3305  0.0047  0.0893
 7520W        W50437  23.750  21.095  22.668  0.1001  0.1106 -0.3660
 7521W        W50438  21.940  21.740  22.282 -0.1803 -0.0536  0.1569
 7522W        W50439  22.858  21.138  19.093  0.0916  0.0701 -0.3036
 7523W        W50440  24.103  19.873  22.041 -0.2309 -0.1011  0.0455
 7524W        W50441  22.063  21.210  23.636 -0.1369 -0.0446  0.1613
 7525W        W50442  21.850  23.647  21.732 -0.1818 -0.1065  0.0036
 7526W        W50443  23.551  23.252  22.097 -0.1707 -0.3148 -0.2424
 7527W        W50444  23.602  21.413  20.561 -0.0682 -0.0492  0.0618
 7528W        W50445  27.138  22.206  22.344  0.3844 -0.5025 -0.3447
 7529W        W50446  23.586  19.311  21.307 -0.4047 -0.0755  0.1418
 7530W        W50447  25.004  20.217  23.698 -0.1896  0.1424  0.2697
 7531W        W50448  23.611  20.050  22.017  0.0545  0.0085 -0.0378
 7532W        W50449  22.826  21.225  19.903 -0.1020 -0.2738 -0.1097
 7533W        W50450  20.458  20.516  19.380  0.0576 -0.1617 -0.0137
 7534W        W50451  21.666  19.117  17.939 -0.0864  0.0727  0.1265
 7535W        W50452  24.273  20.812  20.978  0.0154 -0.2640  0.2135
 7536W        W50453  23.467  17.416  22.770 -0.2246 -0.0250  0.2628
 7537W        W50454  22.768  18.313  23.256  0.0644  0.0814  0.3875
 7538W        W50455  21.784  20.889  19.996 -0.4542 -0.0014 -0.2166
 7539W        W50456  24.042  18.933  21.407  0.0576  0.0645  0.0922
 7540W        W50457  24.444  21.596  21.962 -0.0350 -0.1945  0.1941
 7541W        W50458  24.921  17.678  21.510  0.1082 -0.2204  0.1033
 7542W        W50459  22.871  17.742  22.182 -0.2077 -0.0530  0.1053
 7543W        W50460  27.780  20.311  20.657 -0.0234  0.1455 -0.1317
 7544W        W50461  25.887  22.311  22.629 -0.1439 -0.0404  0.1350
 7545W        W50462  22.143  18.131  20.064 -0.0786  0.0738 -0.0622
 7546W        W50463  23.621  21.919  24.003  0.1577 -0.1115  0.1426
 7547W        W50464  20.377  21.678  18.193  0.2098  0.0946  0.1082
 7548W        W50465  24.956  20.110  25.438  0.1348 -0.0726 -0.2173
 7549W        W50466  23.640  20.649  23.453  0.1283 -0.1003 -0.0810
 7550W        W50467  23.923  18.466  21.785  0.0168 -0.0013 -0.1699
 7551W        W50468  22.545  21.089  23.528 -0.0952 -0.1789  0.0227
 7552W        W50469  24.403  23.243  23.063  0.0543  0.0827  0.0561
 7553W        W50470  24.554  22.568  19.501 -0.0180 -0.0821 -0.0181
 7554W        W50471  22.802  21.904  23.241  0.0648  0.3535 -0.1292
 7555W        W50472  22.732  22.152  24.110 -0.0436 -0.2310  0.4095
 7556W        W50473  22.032  17.961  22.617 -0.0584  0.0524 -0.0612
 7557W        W50474  25.798  19.967  21.846  0.0924 -0.0633  0.0123
 7558W        W50475  22.720  19.973  22.693  0.1226  0.2648 -0.0524
 7559W        W50476  26.635  19.715  21.935  0.1103  0.2784  0.2078
 7560W        W50477  26.254  18.018  20.122 -0.1232 -0.2127 -0.2546
 7561W        W50478  26.378  21.839  20.996 -0.1510  0.0855  0.1113
 7562W        W50479  21.868  17.106  22.257  0.0655  0.2318 -0.2514
 7563W        W50480  23.331  20.815  22.939 -0.0415  0.1586  0.0504
 7564W        W50481  25.753  22.901  21.799 -0.2326 -0.2583 -0.1193
 7565W        W50482  23.521  17.205  20.589 -0.3608 -0.2233 -0.0320
 7566W        W50483  26.688  17.525  20.737 -0.0748 -0.2311  0.0553
 7567W        W50484  26.210  21.393  20.699 -0.0081 -0.4374  0.0894
 7568W        W50485  24.038  19.356  22.125 -0.0691  0.1030  0.2058
 7569W        W50486  24.882  19.894  19.420 -0.0722  0.1210 -0.0528
 7570W        W50487  22.251  19.972  22.537 -0.0963 -0.1139 -0.0435
 7571W        W50488  24.826  20.289  20.530  0.1200 -0.2488  0.0027
 7572W        W50489  25.152  22.994  24.403  0.2011  0.0189 -0.1925
 7573W        W50490  26.203  19.638  20.486 -0.2503  0.5228 -0.0623
 7574W        W50491  27.835  21.225  20.149 -0.0813 -0.0734 -0.2302
 7575W        W50492  24.174  22.935  23.823  0.1994 -0.0211 -0.0607
 7576W        W50493  22.837  24.457  23.544 -0.0904 -0.0326  0.4657
 7577W        W50494  21.487  22.337  24.344  0.2290 -0.0195 -0.0387
 7578W        W50495  23.700  21.985  21.775 -0.1458 -0.0969  0.3292
 7579W        W50496  23.614  17.810  22.446  0.1217 -0.0403 -0.1931
 7580W        W50497  23.930  20.122  20.426 -0.2776  0.3369  0.0066
 7581W        W50498  23.226  22.439  23.328 -0.1894  0.0307  0.1145
 7582W        W50499  25.357  19.381  21.214 -0.0176 -0.2288 -0.1475
 7583W        W50500  21.729  18.262  19.859 -0.1439  0.2012  0.0975
 7584W        W50501  25.246  18.312  21.878 -0.0358 -0.1209 -0.1662
 7585W        W50502  22.388  21.921  22.206 -0.1804 -0.2043  0.0534
 7586W        W50503  23.665  21.151  22.142  0.1745  0.0371 -0.0992
 7587W        W50504  22.172  18.759  26.618 -0.2401 -0.0541 -0.0685
 7588W        W50505  22.935  19.725  23.268  0.0781 -0.0173 -0.0095
 7589W        W50506  25.032  21.067  25.685 -0.1097 -0.2603  0.1638
 7590W        W50507  23.282  20.512  24.855 -0.4161  0.2880 -0.0052
 7591W        W50508  21.795  20.114  20.991 -0.1270  0.1381  0.2500
 7592W        W50509  23.771  20.443  26.027  0.0235  0.3071 -0.1470
 7593W        W50510  19.582  18.134  25.101 -0.0601 -0.0301  0.3537
 7594W        W50511  22.629  22.903  24.363  0.1446 -0.3109 -0.1421
 7595W        W50512  24.048  21.885  25.851  0.0538 -0.1825  0.1858
 7596W        W50513  24.676  21.089  25.272  0.0728  0.1301  0.0343
 7597W        W50514  23.537  19.581  24.478  0.0977 -0.3408  0.1483
 7598W        W50515  22.102  21.077  25.942  0.2237 -0.0386 -0.4844
 7599W        W50516  25.288  18.253  24.510  0.0829 -0.0720 -0.0633
 7600W        W50517  21.076  18.236  23.717 -0.3193  0.2373  0.0070
 7601W        W50518  22.638  19.443  25.105  0.2334  0.1668 -0.2667
 7602W        W50519  23.685  21.438  23.859  0.0044 -0.1889 -0.0678
 7603W        W50520  23.743  20.174  25.041 -0.0051 -0.0714 -0.1013
 7604W        W50521  22.891  19.499  22.820  0.2337  0.0747  0.1566
 7605W        W50522  21.736  22.685  24.648 -0.0078 -0.1844 -0.1254
 7606W        W50523  24.167  17.218  26.041 -0.0547  0.0809  0.3102
 7607W        W50524  24.056  18.424  25.484 -0.1251 -0.1107 -0.1144
 7608W        W50525  23.471  21.378  22.993  0.0663  0.0345  0.2384
 7609W        W50526  21.554  20.263  24.449  0.0519  0.2828  0.1350
 7610W        W50527  22.560  20.667  24.658  0.2448  0.2564 -0.2815
 7611W        W50528  21.914  20.974  24.015  0.0176 -0.0633  0.3551
 7612W        W50529  24.095  19.795  25.913 -0.5839 -0.2288 -0.0699
 7613W        W50530  23.270  20.767  25.914  0.1299  0.2403 -0.0899
 7614W        W50531  21.999  20.695  25.343 -0.3791 -0.2449  0.1384
 7615W        W50532  21.886  20.081  26.625 -0.2471 -0.3371 -0.3583
 7616W        W50533  24.163  20.255  27.552  0.1222  0.0105  0.1447
 7617W        W50534  22.333  18.567  24.192  0.0107  0.0860  0.2951
 7618W        W50535  20.727  21.060  25.960 -0.1984  0.0425 -0.0450
 7619W        W50536  23.062  21.841  24.657 -0.1118 -0.0851 -0.0721
 7620W        W50537  26.272  23.280  24.464 -0.0426  0.1387  0.0713
 7621W        W50538  22.050  20.810  28.155 -0.1654  0.0922  0.0609
 7622W        W50539  21.986  19.335  26.728 -0.0192 -0.3364 -0.0244
 7623W        W50540  20.855  20.728  22.407  0.2299  0.1615 -0.0788
 7624W        W50541  22.864  20.608  26.287  0.1500  0.2150  0.3518
 7625W        W50542  22.078  20.363  24.966  0.1236 -0.0712 -0.0312
 7626W        W50543  25.446  18.572  25.930 -0.1386 -0.0463 -0.2586
 7627W        W50544  23.609  20.989  25.247  0.0609  0.0782  0.0664
 7628W        W50545  23.106  21.756  23.976 -0.0928  0.0307  0.1614
 7629W        W50546  22.421  20.376  25.362 -0.2550  0.0212  0.0091
 7630W        W50547  23.662  19.920  26.062 -0.0647 -0.2262  0.0903
 7631W        W50548  20.715  19.931  23.132  0.1071  0.0214  0.2121
 7632W        W50549  26.169  17.281  27.816 -0.1259 -0.0080  0.4115
 7633W        W50550  21.687  22.143  23.888 -0.0306  0.0908 -0.1455
 7634W        W50551  24.225  21.212  21.339  0.0662 -0.0250 -0.0234
 7635W        W50552  23.510  19.555  23.513  0.0462  0.0389  0.0159
 7636W        W50553  24.693  20.398  25.052  0.2235 -0.1182 -0.2437
 7637W        W50554  23.765  18.201  24.770 -0.2163 -0.3549  0.0938
 7638W        W50555  21.646  20.132  24.878 -0.0494  0.1089 -0.1501
 7639W        W50556  22.846  18.640  25.544  0.1133  0.0246 -0.1563
 7640W        W50557  25.240  22.346  25.709 -0.0955  0.2178 -0.1841
 7641W        W50558  24.825  21.724  25.026  0.1759 -0.2362 -0.0870
 7642W        W50559  24.326  20.322  26.038 -0.1971 -0.3964  0.2573
 7643W        W50560  23.351  20.008  24.643 -0.0168 -0.0875 -0.0215
 7644W        W50561  22.656  19.968  21.677  0.4218  0.0708 -0.0177
 7645W        W50562  22.749  23.237  23.562  0.0343 -0.3564 -0.0279
 7646W        W50563  24.572  18.508  25.638 -0.1307 -0.3505 -0.0204
 7647W        W50564  22.848  21.476  24.356  0.1952 -0.0669 -0.4436
 7648W        W50565  22.003  20.035  23.596  0.2840  0.1618  0.2586
 7649W        W50566  20.002  19.245  24.066  0.0416  0.2897 -0.0716
 7650W        W50567  22.850  19.371  26.173 -0.3593  0.0464  0.2634
 7651W        W50568  23.564  18.383  23.646  0.0413  0.0607 -0.1190
 7652W        W50569  24.932  19.646  27.062  0.0048 -0.0371 -0.0239
 7653W        W50570  22.059  19.776  26.268 -0.1507 -0.2543  0.0176
 7654W        W50571  24.223  19.386  25.668  0.1146 -0.1964 -0.1916
 7655W        W50572  21.252  18.156  24.566 -0.4169  0.2312 -0.2385
 7656W        W50573  23.021  20.487  26.728  0.0029  0.1276 -0.1116
 7657W        W50574  23.387  21.140  24.165  0.0484 -0.0778 -0.1138
 7658W        W50575  24.062  20.718  24.569 -0.1501  0.0239  0.0832
 7659W        W50576  24.430  18.579  26.100  0.1216  0.2366 -0.1335
 7660W        W50577  21.161  21.907  24.578  0.2725 -0.2388 -0.0409
 7661W        W50578  23.573  19.077  24.973  0.0113 -0.3499  0.0390
 7662W        W50579  25.374  21.951  26.331  0.1533  0.1871  0.0036
 7663W        W50580  26.588  19.273  23.146 -0.1515  0.0265 -0.0609
 7664W        W50581  21.565  19.277  23.846 -0.1195  0.0781  0.1384
 7665W        W50582  23.410  18.994  26.730 -0.0000 -0.4075 -0.0813
 7666W        W50583  23.392  21.328  25.521 -0.1092  0.0606  0.1344
 7667W        W50584  20.703  22.587  22.782 -0.3116 -0.0001 -0.1423
 7668W        W50585  21.744  22.126  23.328 -0.2007 -0.2132  0.0782
 7669W        W50586  22.102  19.602  22.964  0.0509  0.2492 -0.2931
 7670W        W50587  22.741  19.322  24.101  0.0605 -0.0197 -0.0451
 7671W        W50588  25.013  21.002  24.873 -0.1676  0.1637  0.0672
 7672W        W50589  25.898  17.637  23.864 -0.0108  0.6441 -0.4607
 7673W        W50590  23.124  17.988  28.403  0.0817  0.5074  0.0131
 7674W        W50591  25.663  17.021  25.266 -0.3770  0.1381 -0.1173
 7675W        W50592  23.839  20.317  22.345  0.0682 -0.4192 -0.1211
 7676W        W50593  25.215  21.231  25.275  0.1541  0.3378  0.3906
 7677W        W50594  26.782  21.280  23.372 -0.0035  0.2683  0.2554
 7678W        W50595  24.188  21.073  25.256  0.1198  0.1091 -0.0451
 7679W        W50596  22.573  20.329  25.926  0.3240 -0.0693  0.1194
 7680W        W50597  22.475  18.007  25.904  0.2073 -0.0350 -0.0096
 7681W        W50598  22.688  17.623  28.654 -0.1154 -0.1465  0.1629
 7682W        W50599  21.670  17.820  26.602 -0.0248 -0.2459  0.0009
 7683W        W50600  25.749  21.333  27.228 -0.5776  0.0324  0.1094
 7684W        W50601  22.482  19.996  23.209 -0.5077 -0.1592 -0.1571
 7685W        W50602  24.203  20.343  25.288  0.3606  0.0466 -0.2946
 7686W        W50603  23.856  19.918  23.748 -0.0840  0.1975  0.2090
 7687W        W50604  22.722  19.372  23.567 -0.1668  0.0053 -0.1112
 7688W        W50605  23.751  16.809  26.389  0.1113 -0.2330 -0.0505
 7689W        W50606  24.819  20.166  24.529 -0.1545  0.1387 -0.4783
 7690W        W50607  24.354  22.995  26.670 -0.0092 -0.1396 -0.2002
 7691W        W50608  23.765  22.868  24.045 -0.0598  0.1832  0.0334
 7692W        W50609  21.061  17.312  25.515 -0.0215  0.0020 -0.0658
 7693W        W50610  20.833  18.915  22.352 -0.0469  0.0808  0.3889
 7694W        W50611  20.861  21.043  25.488  0.0926  0.1964  0.0106
 7695W        W50612  21.382  21.915  25.391  0.1596  0.3329  0.1672
 7696W        W50613  23.496  17.742  21.928 -0.0466 -0.4119  0.0835
 7697W        W50614  26.840  23.069  26.852 -0.2660  0.0671 -0.0633
 7698W        W50615  22.489  18.750  23.687 -0.1229 -0.2344 -0.3248
 7699W        W50616  21.223  18.597  26.240  0.0462 -0.0093  0.1820
 7700W        W50617  24.882  16.238  26.356 -0.0980  0.0696  0.0195
 7701W        W50618  25.017  21.502  26.691  0.1166  0.1273 -0.0341
 7702W        W50619  25.093  20.967  26.181  0.0994  0.1631 -0.1573
 7703W        W50620  23.419  19.369  22.815  0.1729  0.1644  0.0158
 7704W        W50621  22.884  21.573  25.001 -0.0699  0.1248 -0.2485
 7705W        W50622  21.387  21.113  22.840 -0.0156 -0.2053 -0.0335
 7706W        W50623  21.297  19.533  23.488  0.0589  0.0766  0.0288
 7707W        W50624  24.486  21.133  24.526 -0.3486 -0.2528  0.1486
 7708W        W50625  24.449  17.697  23.919 -0.0576  0.3214  0.2105
 7709W        W50626  21.868  19.725  26.994 -0.0178  0.0584  0.1031
 7710W        W50627  22.776  17.786  26.855 -0.1554  0.1045 -0.1207
 7711W        W50628  21.409  22.062  22.842  0.2794 -0.1023 -0.1574
 7712W        W50629  21.690  20.025  26.103 -0.0584 -0.2811 -0.4926
 7713W        W50630  21.038  19.422  24.578 -0.0489  0.0558 -0.0646
 7714W        W50631  24.823  18.318  23.450  0.0650  0.1160 -0.0578
 7715W        W50632  26.173  20.965  27.235 -0.1341 -0.3211 -0.3795
 7716W        W50633  25.160  19.733  24.595  0.2549 -0.0424  0.2088
 7717W        W50634  25.524  20.123  24.648  0.2551  0.0209  0.0916
 7718W        W50635  23.294  18.640  24.944  0.3809 -0.0502  0.1644
 7719W        W50636  22.332  20.216  26.422 -0.0740  0.1094 -0.1965
 7720W        W50637  24.052  21.121  23.653 -0.2191  0.1207 -0.0118
 7721W        W50638  23.680  21.015  25.804 -0.0149 -0.2926  0.0362
 7722W        W50639  23.649  20.368  23.862  0.0677 -0.2069 -0.1119
 7723W        W50640  24.546  20.985  25.770  0.0238  0.1475  0.1129
 7724W        W50641  21.818  22.255  25.169  0.3277 -0.0220 -0.1036
 7725W        W50642  22.702  20.255  27.087 -0.1930  0.0876  0.0544
 7726W        W50643  22.432  21.345  26.206 -0.1670 -0.2025  0.2216
 7727W        W50644  22.255  15.265  27.367 -0.0053  0.1648  0.2358
 7728W        W50645  20.914  18.748  23.681 -0.1287  0.0807  0.1501
 7729W        W50646  23.135  17.816  22.585  0.0454  0.2992  0.0122
 7730W        W50647  21.442  24.884  24.098 -0.0328 -0.0606 -0.1752
 7731W        W50648  23.269  17.024  25.739 -0.0467 -0.0486 -0.0482
 7732W        W50649  24.876  17.667  26.226 -0.2022  0.3521 -0.1225
 7733W        W50650  22.605  17.883  28.256 -0.0376  0.2114 -0.2449
 7734W        W50651  23.638  20.225  27.430 -0.2504  0.2111 -0.2898
 7735W        W50652  25.947  19.478  22.443 -0.0736 -0.2411 -0.2291
 7736W        W50653  25.623  19.321  26.922 -0.3230  0.1146  0.1159
 7737W        W50654  22.286  18.024  23.847  0.1669 -0.0794  0.1079
 7738W        W50655  23.168  16.588  25.463  0.0576  0.2609 -0.1489
 7739W        W50656  22.185  20.171  27.008  0.1658 -0.1493  0.0181
 7740W        W50657  22.426  20.190  24.673  0.1860 -0.1671 -0.2173
 7741W        W50658  24.557  22.219  26.184 -0.0562  0.0840 -0.2760
 7742W        W50659  23.149  18.286  25.317  0.0361  0.0264 -0.1247
 7743W        W50660  24.577  19.002  25.835 -0.1360 -0.1959  0.3955
 7744W        W50661  23.414  20.051  23.500  0.2131 -0.0525 -0.1819
 7745W        W50662  22.247  23.883  24.490  0.0977 -0.3341  0.0227
 7746W        W50663  21.543  19.926  23.756  0.3922 -0.3808  0.0273
 7747W        W50664  24.289  19.257  26.144  0.1036 -0.1020 -0.1974
 7748W        W50665  23.586  18.816  23.343 -0.2685  0.2072 -0.1691
 7749W        W50666  23.716  20.372  24.566 -0.0008 -0.2070  0.2678
 7750W        W50667  22.731  19.783  26.745 -0.1579 -0.0969 -0.2236
 7751W        W50668  20.537  22.041  23.997  0.0241 -0.1075  0.3016
 7752W        W50669  22.475  18.194  27.360 -0.3865 -0.2181  0.1430
 7753W        W50670  22.042  20.433  24.479  0.3758  0.1541  0.1604
 7754W        W50671  20.939  20.282  20.651  0.2008  0.0918 -0.0600
 7755W        W50672  21.908  18.996  24.063  0.3440 -0.1528 -0.1961
 7756W        W50673  24.907  18.552  26.529 -0.0772  0.2925  0.1306
 7757W        W50674  26.051  20.480  23.875 -0.1027  0.0826 -0.0159
 7758W        W50675  23.154  18.097  25.771 -0.1796 -0.1236 -0.0069
 7759W        W50676  22.895  18.308  26.169 -0.0430  0.1068 -0.3354
 7760W        W50677  21.836  22.132  24.597 -0.1811 -0.1412  0.1147
 7761W        W50678  24.029  20.535  26.630 -0.2826  0.3463 -0.2321
 7762W        W50679  23.318  20.533  24.248 -0.3042 -0.1190  0.1807
 7763W        W50680  23.339  22.031  27.600 -0.0589 -0.1204  0.0616
 7764W        W50681  23.287  19.407  25.332 -0.0516  0.2355  0.0595
 7765W        W50682  21.765  19.733  21.803  0.1106 -0.3125  0.1553
 7766W        W50683  23.047  19.865  27.341  0.1669 -0.0923  0.0452
 7767W        W50684  23.894  20.153  25.667 -0.2412 -0.1769 -0.0355
 7768W        W50685  21.505  19.356  22.977 -0.2550 -0.0497  0.0800
 7769W        W50686  23.047  18.009  27.221  0.1072 -0.0319  0.4114
 7770W        W50687  24.023  19.802  24.701 -0.2356 -0.2112 -0.2144
 7771W        W50688  21.589  21.430  22.519 -0.0017  0.2644 -0.2749
 7772W        W50689  24.531  20.393  28.515  0.2797  0.3088 -0.0196
 7773W        W50690  25.180  22.838  27.536  0.0018  0.0967 -0.2058
 7774W        W50691  20.733  18.304  25.642 -0.1149  0.3976 -0.0137
 7775W        W50692  22.479  17.911  23.380 -0.1814  0.2285  0.1657
 7776W        W50693  22.450  18.309  26.410  0.1473  0.0459  0.1918
 7777W        W50694  23.718  20.557  25.444 -0.1047  0.2206  0.2249
 7778W        W50695  24.492  20.781  24.885 -0.1574 -0.0450 -0.0986
 7779W        W50696  21.681  20.255  27.428  0.2597 -0.2935  0.1690
 7780W        W50697  23.741  17.963  25.814 -0.2021  0.0243 -0.0923
 7781W        W50698  24.165  23.664  24.852  0.2585  0.0524 -0.1168
 7782W        W50699  24.010  17.746  26.926 -0.0101  0.0934  0.0972
 7783W        W50700  21.324  19.838  21.971  0.1316  0.0177  0.0933
 7784W        W50701  22.374  19.061  24.335  0.1200 -0.1972 -0.0998
 7785W        W50702  21.342  20.942  23.830  0.1381 -0.0938  0.2550
 7786W        W50703  21.940  17.698  25.508  0.2346 -0.2253  0.0259
 7787W        W50704  19.513  22.497  25.775  0.2823 -0.1512 -0.2687
 7788W        W50705  22.664  22.042  24.980 -0.2064  0.0227 -0.0720
 7789W        W50706  21.998  22.489  24.284  0.0147 -0.1172  0.3585
 7790W        W50707  26.642  16.792  24.129 -0.0824 -0.2808  0.2477
 7791W        W50708  22.473  21.811  24.543  0.1916 -0.2109 -0.0035
 7792W        W50709  24.072  20.369  24.229 -0.0243  0.1239 -0.2771
 7793W        W50710  24.453  18.981  25.362 -0.0885  0.0418 -0.1396
 7794W        W50711  25.707  22.124  24.748 -0.2087  0.0077  0.0795
 7795W        W50712  24.811  18.801  26.937  0.1321  0.0402 -0.2432
 7796W        W50713  21.454  18.761  23.853  0.0152  0.3691  0.2011
 7797W        W50714  24.019  21.295  24.245  0.0171 -0.1642  0.1455
 7798W        W50715  21.687  19.316  24.453  0.0767 -0.1033  0.1486
 7799W        W50716  23.272  21.911  26.119 -0.1400 -0.3366 -0.0381
 7800W        W50717  23.652  19.515  27.557  0.2358 -0.2467 -0.1132
 7801W        W50718  25.024  19.628  23.720 -0.0537 -0.2577 -0.3117
 7802W        W50719  22.142  17.898  21.562 -0.0157 -0.0270  0.2516
 7803W        W50720  23.061  18.976  25.171 -0.0588  0.1249  0.0758
 7804W        W50721  24.950  21.958  25.397  0.1528  0.0442 -0.1996
 7805W        W50722  27.100  19.709  24.556  0.1447 -0.3891 -0.0250
 7806W        W50723  25.483  20.604  26.092  0.3422 -0.2419 -0.2311
 7807W        W50724  21.243  17.785  24.178 -0.1803 -0.3504  0.0376
 7808W        W50725  25.964  20.366  24.661 -0.2057  0.2833 -0.6154
 7809W        W50726  26.137  20.937  24.856  0.3864 -0.3487  0.3128
 7810W        W50727  23.043  21.134  22.605 -0.2428 -0.0737 -0.1128
 7811W        W50728  23.539  18.951  24.445 -0.0271 -0.2257  0.2651
 7812W        W50729  25.465  21.568  25.614 -0.0861  0.3509 -0.3696
 7813W        W50730  22.746  19.433  24.620 -0.0578 -0.3202 -0.3838
 7814W        W50731  22.776  18.935  26.885 -0.1455 -0.0773 -0.1877
 7815W        W50732  24.937  17.642  25.209  0.1020 -0.0251  0.3358
 7816W        W50733  22.058  19.501  24.872 -0.0473  0.2290 -0.1201
 7817W        W50734  22.743  19.919  25.335 -0.3146 -0.0800 -0.0238
 7818W        W50735  23.598  21.904  27.103  0.0285  0.0854  0.0193
 7819W        W50736  24.354  18.974  23.823  0.2749  0.4462  0.0895
 7820W        W50737  24.883  18.434  26.033 -0.0788 -0.1391 -0.2414
 7821W        W50738  24.779  20.748  22.905  0.0492  0.1666  0.2201
 7822W        W50739  25.254  20.108  24.207  0.0483  0.1278 -0.0642
 7823W        W50740  21.559  18.874  23.064 -0.1484  0.3203 -0.1650
 7824W        W50741  24.408  20.731  30.130  0.2265 -0.3472 -0.1843
 7825W        W50742  24.452  19.435  23.081  0.2502 -0.0652 -0.3691
 7826W        W50743  21.879  17.549  26.968 -0.0974  0.0430 -0.1450
 7827W        W50744  23.015  23.041  25.744  0.0289  0.1258  0.0538
 7828W        W50745  21.944  19.869  24.590 -0.0740  0.2049 -0.0154
 7829W        W50746  25.215  21.415  24.149 -0.0340  0.1087  0.1914
 7830W        W50747  22.165  20.819  24.848  0.0976  0.2235  0.2534
 7831W        W50748  21.273  20.357  25.918  0.1168 -0.2058 -0.3209
 7832W        W50749  23.105  18.254  22.308 -0.2293  0.0199  0.1458
 7833W        W50750  22.086  20.594  23.240  0.0453 -0.2846 -0.2090
 7834W        W50751  25.055  20.140  26.791 -0.1770 -0.1759  0.0436
 7835W        W50752  26.722  21.316  25.702  0.0073 -0.2903 -0.0813
 7836W        W50753  23.252  17.306  21.946  0.0758 -0.0761 -0.0119
 7837W        W50754  22.739  21.010  26.014 -0.2509  0.2593  0.2022
 7838W        W50755  21.132  18.974  22.893  0.3643  0.1013  0.1883
 7839W        W50756  21.335  17.726  25.603  0.0392  0.0166  0.2500
 7840W        W50757  20.689  20.187  26.104  0.0566 -0.2628 -0.1524
 7841W        W50758  19.830  20.670  25.858 -0.1192  0.1637 -0.0647
 7842W        W50759  21.647  21.046  25.598  0.0048  0.0207  0.1333
 7843W        W50760  21.866  19.293  26.277 -0.4344 -0.0925 -0.0663
 7844W        W50761  24.643  20.671  26.187 -0.2476  0.2590  0.1799
 7845W        W50762  23.257  20.160  25.197 -0.2366  0.1792  0.2187
 7846W        W50763  25.860  19.996  27.413 -0.2954 -0.0576 -0.0620
 7847W        W50764  22.201  21.385  24.967 -0.2448 -0.1384 -0.1066
 7848W        W50765  26.455  20.673  25.150 -0.3667 -0.1308  0.3294
 7849W        W50766  23.993  21.526  26.823  0.1025  0.2774 -0.3361
 7850W        W50767  24.571  19.988  26.969 -0.0038  0.0199  0.1558
 7851W        W50768  21.591  21.722  23.591 -0.0800 -0.1201  0.1993
 7852W        W50769  19.918  19.459  25.865  0.0086 -0.0751 -0.0715
 7853W        W50770  24.580  19.503  27.999  0.0685 -0.0357 -0.2814
 7854W        W50771  23.163  21.000  26.374  0.0303  0.0837  0.2418
 7855W        W50772  22.215  17.651  22.987  0.1690 -0.0414 -0.0667
 7856W        W50773  23.278  20.852  23.733 -0.0729  0.0199 -0.2571
 7857W        W50774  19.729  19.720  23.852 -0.0104 -0.0112  0.2277
 7858W        W50775  21.323  21.354  24.323 -0.1601 -0.0126  0.2619
 7859W        W50776  22.823  20.590  23.938 -0.1360  0.2151 -0.1157
 7860W        W50777  24.805  21.097  24.173  0.0823 -0.2125 -0.0787
 7861W        W50778  24.385  21.638  24.462  0.2257  0.1868  0.1077
 7862W        W50779  23.028  19.308  26.628 -0.1310  0.3768 -0.3140
 7863W        W50780  22.423  20.800  25.643 -0.3007 -0.0250  0.0372
 7864W        W50781  20.172  20.320  24.526 -0.3398  0.3138 -0.0201
 7865W        W50782  22.495  22.705  23.971 -0.0318  0.0713  0.4180
 7866W        W50783  23.434  21.533  24.970  0.1148 -0.1301  0.1009
 7867W        W50784  22.780  20.955  24.308 -0.1212 -0.2047  0.1127
 7868W        W50785  24.560  20.427  27.123 -0.3163  0.0774 -0.0603
 7869W        W50786  25.794  19.158  24.270 -0.0517  0.1598  0.0582
 7870W        W50787  23.674  19.819  27.046  0.1385  0.3066  0.2281
 7871W        W50788  25.416  20.564  23.801  0.3648  0.1273 -0.3472
 7872W        W50789  20.718  19.691  27.253 -0.0183  0.1190 -0.0480
 7873W        W50790  23.115  19.106  25.689 -0.4406  0.1861 -0.0443
 7874W        W50791  23.838  19.168  23.126  0.0257  0.0325 -0.2414
 7875W        W50792  21.183  19.908  24.570  0.1093 -0.5447  0.3661
 7876W        W50793  23.257  19.061  26.192  0.3418  0.1378  0.1111
 7877W        W50794  21.336  20.359  28.914 -0.1605 -0.1270  0.2074
 7878W        W50795  23.470  21.169  23.434 -0.0550  0.2510  0.1849
 7879W        W50796  24.095  17.809  24.796 -0.0525 -0.0157  0.2324
 7880W        W50797  25.721  21.242  25.264 -0.1116  0.1261  0.2987
 7881W        W50798  25.157  17.131  25.055 -0.0146 -0.2507  0.2141
 7882W        W50799  22.463  20.064  23.755  0.2118 -0.1190 -0.0549
 7883W        W50800  26.432  19.742  23.406  0.0962  0.0907  0.0211
 7884W        W50801  20.553  23.020  23.503  0.0120  0.0390 -0.1427
 7885W        W50802  22.292  21.125  24.389  0.0243  0.0837  0.1485
 7886W        W50803  22.745  21.845  25.965  0.1155 -0.0149  0.0944
 7887W        W50804  22.375  19.258  23.169 -0.2839 -0.1822 -0.3576
 7888W        W50805  24.372  20.008  21.640  0.0875 -0.0278 -0.0133
 7889W        W50806  20.484  19.235  27.355  0.1326 -0.1987 -0.0023
 7890W        W50807  25.266  16.591  26.574 -0.0727  0.0162 -0.1480
 7891W        W50808  21.780  19.234  22.562 -0.0847  0.3233  0.0116
 7892W        W50809  27.051  20.442  25.389  0.0601 -0.0491 -0.0302
 7893W        W50810  23.507  19.040  27.352  0.2334  0.0489  0.5131
 7894W        W50811  22.331  17.780  26.417  0.1511  0.0191  0.0951
 7895W        W50812  23.904  21.699  24.777 -0.1213  0.3836  0.5243
 7896W        W50813  27.356  19.662  26.992 -0.0754  0.1401  0.3043
 7897W        W50814  24.797  20.686  23.737 -0.0658 -0.0364 -0.4090
 7898W        W50815  23.642  19.545  26.585 -0.0744  0.3491 -0.0919
 7899W        W50816  22.796  18.821  23.225  0.0125 -0.1652  0.4623
 7900W        W50817  24.320  18.432  23.497  0.0061  0.0592  0.0092
 7901W        W50818  22.886  18.683  24.081 -0.1161  0.1737  0.2399
 7902W        W50819  25.405  19.488  24.097  0.3244  0.1029 -0.2715
 7903W        W50820  22.459  20.639  27.880 -0.0895 -0.3974 -0.0642
 7904W        W50821  23.703  20.088  22.777  0.0953  0.0253  0.2244
 7905W        W50822  25.849  20.486  23.463 -0.2307 -0.0099  0.1216
 7906W        W50823  24.518  19.797  27.512  0.3448  0.1812  0.1306
 7907W        W50824  23.071  24.651  25.028 -0.1411  0.3167 -0.0259
 7908W        W50825  23.210  23.445  24.267  0.5438  0.3794 -0.1409
 7909W        W50826  24.906  21.554  25.735 -0.0161  0.1992 -0.1791
 7910W        W50827  22.110  17.348  21.664 -0.0833 -0.0461  0.0671
 7911W        W50828  22.267  23.290  27.526  0.1239  0.0702 -0.0063
 7912W        W50829  22.731  20.946  26.643  0.3593  0.0313 -0.0524
 7913W        W50830  23.758  18.314  22.661  0.0025  0.5122 -0.0205
 7914W        W50831  22.273  18.495  22.478  0.0807  0.0323 -0.4535
 7915W        W50832  19.550  22.911  25.359  0.1619  0.2050  0.0563
 7916W        W50833  25.372  18.856  25.304  0.2194  0.0703 -0.2323
 7917W        W50834  24.822  18.162  25.346  0.1005  0.3312  0.1270
 7918W        W50835  21.959  21.668  24.477 -0.3409  0.1858 -0.0352
 7919W        W50836  23.061  17.497  26.520 -0.0648 -0.0715 -0.2261
 7920W        W50837  24.122  22.444  25.779  0.0066 -0.2609 -0.2094
 7921W        W50838  21.808  21.105  27.041 -0.3297 -0.1696  0.1105
 7922W        W50839  22.493  21.514  23.256  0.0430  0.2163  0.0752
 7923W        W50840  23.847  18.814  26.828 -0.0387  0.1324 -0.2038
 7924W        W50841  22.492  22.801  22.935  0.2228 -0.3448 -0.1505
 7925W        W50842  23.731  24.425  25.703 -0.0861 -0.2173  0.1299
 7926W        W50843  22.312  21.488  24.032 -0.0622 -0.2184 -0.1125
 7927W        W50844  22.477  20.421  24.232  0.2225 -0.0162  0.0699
 7928W        W50845  25.803  21.573  24.767  0.1492 -0.1240  0.2339
 7929W        W50846  22.434  17.378  24.870 -0.2096 -0.0323 -0.1612
 7930W        W50847  25.770  17.555  26.846  0.0851 -0.1652  0.0826
 7931W        W50848  24.322  17.468  23.151  0.1463 -0.2467  0.0511
 7932W        W50849  25.167  19.840  26.249  0.1603 -0.0247  0.2031
 7933W        W50850  22.941  20.219  23.042 -0.0554 -0.0098 -0.3694
 7934W        W50851  21.704  20.783  23.014 -0.2411 -0.3669  0.2543
 7935W        W50852  23.475  22.021  24.760 -0.0961 -0.2176  0.1388
 7936W        W50853  23.755  17.448  27.277  0.0389 -0.2098  0.0073
 7937W        W50854  23.719  19.185  26.253 -0.1336  0.1202 -0.0135
 7938W        W50855  21.977  18.465  23.858 -0.0647  0.2864  0.1212
 7939W        W50856  22.480  17.783  20.355  0.0167 -0.3646 -0.0767
 7940W        W50857  25.053  20.524  24.192  0.1608  0.1168 -0.0102
 7941W        W50858  22.084  18.700  24.618 -0.0769 -0.0544 -0.1432
 7942W        W50859  20.964  17.552  22.190 -0.3467  0.1666 -0.0702
 7943W        W50860  23.948  21.219  24.854 -0.3357 -0.0017 -0.1084
 7944W        W50861  26.020  19.503  24.040  0.1469 -0.1582 -0.1260
 7945W        W50862  22.369  17.760  25.169  0.1425 -0.0132 -0.0543
 7946W        W50863  22.925  22.052  27.117  0.0155 -0.0548  0.1594
 7947W        W50864  22.046  21.508  20.886  0.0093 -0.1397 -0.1612
 7948W        W50865  24.366  18.952  27.772 -0.1849  0.0549  0.0824
 7949W        W50866  24.397  18.859  24.843 -0.0375  0.0776  0.0931
 7950W        W50867  22.847  16.804  22.237 -0.2468  0.0511  0.4624
 7951W        W50868  22.547  19.920  24.211 -0.1285 -0.1482  0.3511
 7952W        W50869  23.549  20.627  26.516  0.0680 -0.2237  0.0607
 7953W        W50870  22.218  24.278  24.897 -0.2209  0.0516 -0.2037
 7954W        W50871  24.336  20.176  26.606 -0.0398 -0.1282 -0.0422
 7955W        W50872  25.385  21.153  27.518  0.0411  0.1466  0.0479
 7956W        W50873  21.447  17.974  25.017 -0.0362 -0.0914 -0.0486
 7957W        W50874  27.906  21.666  24.760 -0.2547 -0.0569  0.1617
 7958W        W50875  23.100  20.316  27.407 -0.4029  0.3304  0.1377
 7959W        W50876  24.609  21.141  23.677 -0.0174 -0.0146 -0.2110
 7960W        W50877  23.651  17.929  26.576  0.1932  0.0443 -0.1338
 7961W        W50878  23.954  19.341  24.627 -0.3514  0.2422 -0.1154
 7962W        W50879  21.596  16.822  22.614 -0.3180 -0.0465  0.0706
 7963W        W50880  21.637  19.631  26.504  0.0431  0.0305  0.1836
 7964W        W50881  23.710  21.049  26.266 -0.0774  0.1083 -0.1658
 7965W        W50882  21.307  18.037  23.269 -0.0803  0.0167 -0.1432
 7966W        W50883  26.123  17.954  24.869  0.0065  0.0240  0.1987
 7967W        W50884  23.207  22.010  25.621  0.1576  0.0112 -0.0399
 7968W        W50885  20.957  18.939  26.512 -0.0974 -0.2782 -0.1784
 7969W        W50886  23.928  17.277  22.752  0.1487 -0.2540 -0.2166
 7970W        W50887  23.143  18.582  28.660  0.1022  0.0394 -0.3421
 7971W        W50888  22.244  19.226  23.799  0.0422  0.2742 -0.2767
 7972W        W50889  24.311  18.880  26.906  0.2879  0.0408 -0.3124
 7973W        W50890  22.510  17.363  25.424 -0.0241  0.2557  0.4638
 7974W        W50891  24.316  21.163  22.786  0.1130  0.1586 -0.1385
 7975W        W50892  23.701  19.223  25.655 -0.0866  0.1444 -0.2164
 7976W        W50893  25.070  21.577  28.289  0.1098 -0.4332 -0.2211
 7977W        W50894  22.465  20.555  28.342 -0.3515  0.0947  0.3229
 7978W        W50895  23.833  20.981  26.755 -0.1684  0.1866 -0.0236
 7979W        W50896  22.145  17.946  26.947 -0.0200  0.0125  0.1161
 7980W        W50897  22.716  18.321  23.767 -0.0011 -0.0840 -0.1746
 7981W        W50898  22.284  19.653  23.519 -0.3473  0.1233  0.2353
 7982W        W50899  23.533  18.717  28.203  0.1204 -0.2366 -0.0467
 7983W        W50900  23.900  18.465  24.101  0.1957 -0.0076 -0.0621
 7984W        W50901  24.347  20.975  24.085 -0.3271 -0.0215 -0.0381
 7985W        W50902  22.195  22.193  25.537 -0.1313 -0.0456 -0.4846
 7986W        W50903  21.932  20.227  25.542  0.3285  0.1189 -0.1333
 7987W        W50904  20.277  20.922  29.655  0.2639  0.0979  0.2850
 7988W        W50905  21.644  18.670  27.934  0.0644 -0.0986 -0.0261
 7989W        W50906  24.038  18.961  25.107  0.1885 -0.2288 -0.1886
 7990W        W50907  22.198  18.683  28.126  0.2570 -0.2844 -0.1496
 7991W        W50908  20.763  16.033  26.044  0.0810 -0.0999 -0.1120
 7992W        W50909  21.730  18.577  27.233 -0.1977  0.2442 -0.1728
 7993W        W50910  22.160  17.721  29.780  0.0435 -0.3160 -0.0159
 7994W        W50911  22.829  21.168  28.411 -0.3749 -0.2272 -0.2013
 7995W        W50912  25.217  22.239  28.263 -0.1237 -0.0934  0.1222
 7996W        W50913  23.946  19.121  27.598 -0.0936  0.3518  0.2636
 7997W        W50914  23.749  18.704  27.702 -0.1505 -0.1856 -0.0177
 7998W        W50915  20.586  20.990  30.715 -0.1484 -0.0306 -0.0649
 7999W        W50916  21.100  18.580  24.143  0.0884 -0.0695 -0.4147
 8000W        W50917  22.041  20.577  28.734 -0.1450 -0.0423  0.0741
 8001W        W50918  24.053  20.458  30.378  0.0918 -0.0145 -0.0482
 8002W        W50919  20.343  19.522  26.942 -0.3074 -0.0743  0.0941
 8003W        W50920  22.147  18.630  30.234  0.0524  0.0395 -0.2824
 8004W        W50921  19.658  17.753  25.452  0.3259 -0.1651 -0.0583
 8005W        W50922  22.708  20.903  29.309  0.2858  0.0293 -0.1818
 8006W        W50923  22.008  18.990  29.774  0.1931  0.0957 -0.2243
 8007W        W50924  25.150  18.418  30.549 -0.0843 -0.2934  0.3777
 8008W        W50925  21.379  21.215  28.768  0.3144 -0.1143  0.0752
 8009W        W50926  21.343  18.497  25.202  0.2111  0.3539 -0.0129
 8010W        W50927  21.277  18.161  28.119  0.0024 -0.2010  0.0360
 8011W        W50928  22.446  21.354  30.290  0.0295  0.0353 -0.0189
 8012W        W50929  23.695  19.970  30.503 -0.1166  0.1009  0.0835
 8013W        W50930  25.237  18.689  30.125  0.2177  0.1038 -0.3298
 8014W        W50931  23.304  20.179  29.390 -0.2121  0.0322  0.1953
 8015W        W50932  24.948  20.525  27.444  0.1234  0.0010 -0.0197
 8016W        W50933  24.989  19.035  31.589 -0.0714  0.3114  0.1092
 8017W        W50934  22.255  20.299  29.547 -0.2802 -0.0641 -0.0438
 8018W        W50935  20.601  21.204  28.851  0.2124  0.0168  0.2493
 8019W        W50936  22.060  21.525  27.007 -0.0837 -0.1307 -0.0724
 8020W        W50937  23.186  22.391  27.953 -0.0705  0.1553  0.0130
 8021W        W50938  24.233  21.220  29.174  0.1609 -0.3792  0.2316
 8022W        W50939  23.215  21.572  29.925 -0.1536 -0.4145  0.3165
 8023W        W50940  19.760  18.777  25.792 -0.1423 -0.1922 -0.0112
 8024W        W50941  21.757  21.224  28.423 -0.2004  0.0854  0.0036
 8025W        W50942  21.823  19.656  29.219  0.1202 -0.1730 -0.1376
 8026W        W50943  23.098  19.437  29.834 -0.2816 -0.0993  0.1606
 8027W        W50944  25.093  18.634  27.337 -0.2410 -0.3216 -0.3269
 8028W        W50945  21.044  20.353  26.946 -0.1433  0.1902 -0.0726
 8029W        W50946  23.377  21.087  28.103  0.3804 -0.0904  0.5411
 8030W        W50947  21.129  21.992  30.905  0.0251 -0.0391  0.3002
 8031W        W50948  20.566  19.611  27.774  0.0663  0.4029 -0.3213
 8032W        W50949  24.759  17.352  30.989  0.2558 -0.1488  0.0826
 8033W        W50950  19.530  20.987  29.145  0.1683 -0.0122  0.0622
 8034W        W50951  26.989  18.569  27.490  0.0225  0.0107 -0.0754
 8035W        W50952  23.541  18.389  25.603  0.1321  0.2402  0.1833
 8036W        W50953  24.553  18.895  28.878  0.3821  0.0469  0.0809
 8037W        W50954  22.259  18.299  28.396  0.1925 -0.1188  0.0419
 8038W        W50955  23.727  23.025  29.831  0.2357 -0.1890  0.2509
 8039W        W50956  22.801  18.530  29.000 -0.3695  0.0337 -0.1924
 8040W        W50957  23.607  20.395  30.177 -0.0079  0.1206  0.1974
 8041W        W50958  22.445  19.223  26.636 -0.1184  0.0990  0.5648
 8042W        W50959  23.431  19.431  28.874  0.2028  0.0261  0.4801
 8043W        W50960  22.435  17.271  30.318  0.0951  0.3683 -0.0170
 8044W        W50961  21.026  18.421  26.702  0.4362 -0.0520 -0.0013
 8045W        W50962  23.308  20.007  27.746  0.3658 -0.0214 -0.1834
 8046W        W50963  23.598  21.873  27.964 -0.0711 -0.2172  0.1179
 8047W        W50964  21.718  21.384  25.990 -0.1055 -0.1513 -0.1887
 8048W        W50965  22.207  19.441  27.230  0.1705 -0.0140  0.1553
 8049W        W50966  22.470  18.161  30.448  0.1967 -0.0441  0.0710
 8050W        W50967  20.341  19.892  31.458  0.2522  0.2753  0.2188
 8051W        W50968  22.604  18.704  27.291 -0.0430  0.0210  0.1607
 8052W        W50969  24.952  20.805  30.263 -0.1271  0.0512 -0.1135
 8053W        W50970  21.571  21.727  28.964  0.0569 -0.1013 -0.0622
 8054W        W50971  24.990  18.762  29.263 -0.1311  0.0535 -0.3140
 8055W        W50972  23.270  20.299  28.231 -0.2588 -0.1260  0.2226
 8056W        W50973  25.566  22.978  31.315  0.2177 -0.0143 -0.0613
 8057W        W50974  22.981  19.013  27.377  0.4655  0.0507 -0.0828
 8058W        W50975  24.537  19.436  28.767 -0.2521  0.0513  0.3236
 8059W        W50976  23.911  17.788  30.303 -0.1207  0.2770  0.1832
 8060W        W50977  22.451  20.569  26.752 -0.1629  0.3838  0.2019
 8061W        W50978  22.328  19.523  25.486 -0.0216 -0.0943  0.0218
 8062W        W50979  24.843  22.118  30.660 -0.0665 -0.0581  0.1153
 8063W        W50980  22.981  21.617  25.466  0.1263 -0.2361 -0.2631
 8064W        W50981  21.009  20.503  29.911 -0.0771  0.3023 -0.3151
 8065W        W50982  23.788  20.270  31.832 -0.2920  0.1163  0.0811
 8066W        W50983  22.237  19.457  30.372 -0.4589 -0.2682  0.0588
 8067W        W50984  19.579  20.413  27.246 -0.2915  0.0902 -0.3604
 8068W        W50985  20.374  18.739  27.266  0.1012 -0.0667  0.0947
 8069W        W50986  19.083  19.409  26.356  0.1807 -0.0320 -0.0414
 8070W        W50987  20.565  17.358  29.498  0.0123 -0.0892  0.2635
 8071W        W50988  21.946  20.610  27.148  0.4698 -0.3045 -0.1420
 8072W        W50989  24.886  18.544  27.902  0.0547 -0.2673  0.1513
 8073W        W50990  20.072  19.521  31.810  0.0124 -0.2722  0.2098
 8074W        W50991  23.911  19.054  29.780  0.0696  0.1708  0.3214
 8075W        W50992  23.220  18.389  28.055  0.1098  0.1049  0.0321
 8076W        W50993  23.915  21.645  28.808  0.1906  0.0996 -0.1401
 8077W        W50994  26.844  19.306  28.792  0.0358  0.0414  0.0342
 8078W        W50995  23.152  19.469  27.561 -0.0813 -0.2597 -0.3194
 8079W        W50996  22.771  19.450  30.265  0.0065 -0.2456 -0.0155
 8080W        W50997  22.871  20.327  27.884  0.0521 -0.0578  0.2842
 8081W        W50998  21.806  19.536  30.690  0.0408 -0.0022 -0.0054
 8082W        W50999  23.453  16.983  28.827 -0.0173 -0.1568 -0.2993
 8083W        W51000  26.461  18.684  31.770  0.0444 -0.4928  0.1018
 8084W        W51001  20.634  16.767  27.139  0.0650  0.0758 -0.0407
 8085W        W51002  23.317  19.836  28.541 -0.2950 -0.1471  0.0365
 8086W        W51003  22.806  18.786  27.854  0.2628  0.1164 -0.0335
 8087W        W51004  19.615  19.503  27.777  0.1356  0.0501 -0.1658
 8088W        W51005  25.377  17.775  31.468  0.1785  0.1555  0.1156
 8089W        W51006  24.573  21.922  29.610 -0.2188  0.0620  0.0497
 8090W        W51007  22.816  20.943   0.197  0.0562  0.0386 -0.0358
 8091W        W51008  23.873  20.751  27.670  0.2076 -0.0375  0.1866
 8092W        W51009  21.573  19.400  29.606 -0.0918 -0.2313  0.1232
 8093W        W51010  23.604  18.622  26.397  0.2878 -0.1642  0.3653
 8094W        W51011  21.493  19.769  28.670  0.3020 -0.1005  0.1089
 8095W        W51012  21.847  22.146  28.693 -0.1786  0.0600  0.2042
 8096W        W51013  22.439  19.064  27.617 -0.1076 -0.0793 -0.1481
 8097W        W51014  26.314  21.273  29.299  0.3144  0.2124 -0.2008
 8098W        W51015  21.576  19.836  25.283 -0.2918  0.0401 -0.1674
 8099W        W51016  22.766  19.916  28.446  0.1846 -0.0697 -0.0779
 8100W        W51017  26.762  19.121  29.318  0.0188  0.0825 -0.2910
 8101W        W51018  25.870  19.789  30.848 -0.1016 -0.2169  0.2932
 8102W        W51019  25.545  19.512  27.382 -0.3242 -0.1175 -0.0018
 8103W        W51020  20.270  18.029  25.783 -0.2570  0.0687  0.1805
 8104W        W51021  23.147  23.439  30.379  0.1879  0.2703 -0.1779
 8105W        W51022  20.803  18.940  28.456 -0.0268  0.1247 -0.1118
 8106W        W51023  19.239  18.718  29.554  0.0613 -0.3251  0.2405
 8107W        W51024  23.765  18.638  30.012  0.0596 -0.0397 -0.1343
 8108W        W51025  26.441  18.900  31.152 -0.3015  0.0202  0.1014
 8109W        W51026  20.445  18.858  29.082 -0.0925 -0.2153  0.1348
 8110W        W51027  22.608  19.166  31.247 -0.0313 -0.1336 -0.2757
 8111W        W51028  21.825  18.610  25.262  0.1892 -0.0587  0.2176
 8112W        W51029  22.357  21.188  29.818 -0.1658  0.0477  0.0111
 8113W        W51030  20.380  17.733  27.009  0.2028 -0.0922  0.0109
 8114W        W51031  25.869  18.942  28.059  0.0048 -0.2108 -0.1083
 8115W        W51032  24.522  18.336  31.447  0.0596 -0.3940  0.2127
 8116W        W51033  23.314  19.483  27.001 -0.0403 -0.2416 -0.3453
 8117W        W51034  25.318  18.052  27.357 -0.0496 -0.1000 -0.0031
 8118W        W51035  23.203  18.606  25.905 -0.1355  0.2032  0.2970
 8119W        W51036  21.132  20.060  30.838 -0.0234  0.1818 -0.2347
 8120W        W51037  23.049  19.122  30.470  0.0197 -0.0983  0.0370
 8121W        W51038  21.763  20.168  28.768  0.3122  0.1077 -0.0402
 8122W        W51039  20.811  16.393  27.413  0.1600  0.0662  0.0138
 8123W        W51040  23.812  19.294  27.022  0.0527 -0.2574 -0.1513
 8124W        W51041  21.013  19.587  28.468  0.0183  0.2425  0.0785
 8125W        W51042  23.013  19.766  29.417 -0.0019  0.1800 -0.1510
 8126W        W51043  24.017  20.209  28.946 -0.1158  0.1495  0.1573
 8127W        W51044  21.986  15.019  28.718 -0.3344 -0.1880  0.1167
 8128W        W51045  22.006  21.506  28.009  0.1801 -0.0243  0.0836
 8129W        W51046  21.990  19.079  27.913 -0.1764 -0.4143  0.0274
 8130W        W51047  21.905  19.344  25.331  0.0130 -0.1413  0.0707
 8131W        W51048  23.703  20.243  29.703  0.4935  0.2404  0.1991
 8132W        W51049  24.107  21.121  27.457  0.1546  0.0898  0.0537
 8133W        W51050  22.549  15.853  30.074  0.1463 -0.1648  0.1477
 8134W        W51051  24.306  20.686  31.821 -0.0961  0.1388  0.3489
 8135W        W51052  22.988  19.596  28.950 -0.0731  0.3840 -0.0644
 8136W        W51053  23.485  18.863  29.627 -0.2415 -0.1130 -0.0436
 8137W        W51054  22.828  18.558  25.035 -0.4712  0.0812  0.2303
 8138W        W51055  24.514  18.824  31.496 -0.1631  0.2058  0.0767
 8139W        W51056  21.734  20.115  31.716 -0.0390  0.0494  0.0041
 8140W        W51057  21.818  22.351  29.148 -0.0641  0.0545 -0.0027
 8141W        W51058  23.420  20.786  30.420  0.0206  0.0396 -0.1801
 8142W        W51059  24.469  20.605  31.255 -0.0993  0.2597 -0.2101
 8143W        W51060  23.643  20.473  30.766 -0.0714 -0.2824 -0.2669
 8144W        W51061  22.107  19.145  30.765  0.0421 -0.0810 -0.1841
 8145W        W51062  20.880  19.166  26.009 -0.4042  0.1365 -0.2930
 8146W        W51063  22.292  18.951  27.048 -0.3925 -0.2867  0.2041
 8147W        W51064  20.810  18.888  27.632  0.1024  0.2659 -0.2340
 8148W        W51065  22.333  21.707  29.522  0.0904  0.2465  0.1399
 8149W        W51066  22.176  18.759  25.622 -0.0634  0.2871  0.0862
 8150W        W51067  25.744  21.593  30.703 -0.0388 -0.2050  0.0537
 8151W        W51068  21.874  19.127  27.418 -0.1140  0.2744 -0.1508
 8152W        W51069  21.298  18.568  28.501 -0.2700  0.1505 -0.4131
 8153W        W51070  18.998  21.723  29.157  0.1146  0.0768  0.1953
 8154W        W51071  21.885  17.918  27.388  0.0776  0.1266 -0.0664
 8155W        W51072  21.865  17.760  24.136 -0.1270  0.0696 -0.1016
 8156W        W51073  22.605  19.444  29.797 -0.0892  0.2231 -0.1615
 8157W        W51074  22.244  19.593  27.816  0.0456  0.2220  0.2248
 8158W        W51075  23.100  17.046  29.695 -0.0230 -0.1551  0.0893
 8159W        W51076  24.714  18.847  30.087  0.1207  0.2633  0.1595
 8160W        W51077  20.936  21.714  30.233  0.3307 -0.0576  0.2269
 8161W        W51078  25.303  21.367  28.750 -0.3120 -0.1747 -0.0218
 8162W        W51079  24.772  18.758  28.440  0.1130  0.1057 -0.2364
 8163W        W51080  24.383  20.145  31.683 -0.2062 -0.0265  0.0944
 8164W        W51081  22.711  19.683  31.360 -0.0420  0.0062  0.0932
 8165W        W51082  20.676  19.343  26.523 -0.0508  0.1330 -0.1668
 8166W        W51083  24.323  19.915  30.707  0.1686 -0.0848 -0.0061
 8167W        W51084  21.750  18.026  30.015  0.0328 -0.1748 -0.1196
 8168W        W51085  19.903  21.890  30.053  0.2314 -0.0358  0.1081
 8169W        W51086  22.727  19.341  29.316 -0.2440  0.1417  0.0670
 8170W        W51087  21.545  18.169  24.116  0.1216 -0.0683 -0.0503
 8171W        W51088  21.476  19.962  27.768  0.3572 -0.0059 -0.2873
 8172W        W51089  23.270  21.188  30.915 -0.2442  0.0695 -0.3084
 8173W        W51090  25.284  21.451  29.352  0.0092  0.0212  0.1393
 8174W        W51091  23.563  18.809  29.105 -0.2467 -0.2638 -0.2862
 8175W        W51092  20.649  19.019  26.930 -0.2772 -0.0478 -0.5280
 8176W        W51093  23.449  19.807  29.919 -0.0091  0.1800 -0.0794
 8177W        W51094  25.657  20.245  30.647 -0.1051 -0.0570 -0.2666
 8178W        W51095  22.515  19.906  30.381 -0.0180 -0.0559  0.0906
 8179W        W51096  21.328  20.569  30.656 -0.2667  0.4460 -0.0462
 8180W        W51097  25.132  18.064  31.067  0.1442 -0.3068 -0.0450
 8181W        W51098  23.229  21.314  25.993 -0.1742 -0.2039 -0.0691
 8182W        W51099  23.440  19.093  31.363 -0.2118 -0.0056 -0.0317
 8183W        W51100  20.650  18.609  24.703  0.1037 -0.0905  0.0128
 8184W        W51101  25.021  21.073  29.487 -0.1351 -0.1191  0.3067
 8185W        W51102  21.331  19.008  28.787  0.0021  0.0256  0.0256
 8186W        W51103  22.596  18.971  29.040  0.2880  0.1445  0.0610
 8187W        W51104  20.438  21.798  30.222  0.0652 -0.0362  0.1293
 8188W        W51105  24.122  18.827  25.809  0.0847 -0.4887  0.0807
 8189W        W51106  19.472  20.422  28.152 -0.1056 -0.1258  0.0806
 8190W        W51107  24.213  17.306  27.155 -0.2528  0.0276 -0.1992
 8191W        W51108  21.470  19.223  27.782  0.3848  0.1086  0.3024
 8192W        W51109  21.407  17.154  29.787  0.1703  0.0634  0.2588
 8193W        W51110  24.826  17.817  31.420 -0.1206  0.0935  0.0852
 8194W        W51111  23.341  19.614  28.135  0.1938 -0.1043 -0.0420
 8195W        W51112  25.412  19.617  31.169  0.0820 -0.1192  0.0235
 8196W        W51113  20.624  17.411  28.601 -0.0817  0.2436 -0.0362
 8197W        W51114  22.741  21.186  27.216 -0.2322 -0.2367 -0.1172
 8198W        W51115  20.407  18.010  28.549 -0.2147 -0.0034  0.0694
 8199W        W51116  25.080  22.963  31.092  0.1680 -0.2211  0.1543
 8200W        W51117  20.418  19.059  29.560 -0.1334 -0.3429  0.2451
 8201W        W51118  24.064  19.671  28.916 -0.0697 -0.1513 -0.0948
 8202W        W51119  21.159  18.926  26.987  0.0343 -0.2906  0.1938
 8203W        W51120  23.973  19.875  31.568  0.0695  0.0111  0.1690
 8204W        W51121  22.143  20.015  29.079  0.1865  0.1462 -0.0275
 8205W        W51122  21.654  17.234  27.958 -0.3463 -0.4107 -0.4356
 8206W        W51123  24.935  20.109  29.639 -0.0009  0.3270  0.0224
 8207W        W51124  23.006  20.627  30.184 -0.2411  0.1702 -0.2518
 8208W        W51125  23.026  19.079  28.870  0.1288  0.1800  0.2587
 8209W        W51126  23.472  20.483  26.967 -0.1527  0.1900  0.0241
 8210W        W51127  21.234  20.501  29.385 -0.0853  0.0792  0.1800
 8211W        W51128  20.849  18.210  29.827 -0.4652 -0.0771 -0.0043
 8212W        W51129  24.286  19.651  30.240  0.0918  0.1254 -0.1307
 8213W        W51130  24.369  17.629  29.460 -0.0507  0.0181 -0.0385
 8214W        W51131  23.020  18.011  30.550  0.1780 -0.1577 -0.0702
 8215W        W51132  25.279  17.357  29.746  0.0718 -0.0044 -0.1707
 8216W        W51133  24.733  16.528   0.301  0.1698 -0.0788  0.1064
 8217W        W51134  18.890  18.432  30.844  0.3239  0.4007 -0.0125
 8218W        W51135  23.982  21.924  29.662  0.1151 -0.1126 -0.1111
 8219W        W51136  25.059  20.049  27.347  0.1352 -0.0035  0.0431
 8220W        W51137  25.388  21.202  30.120 -0.1394 -0.1278  0.1098
 8221W        W51138  25.321  19.308  28.999 -0.0617  0.3649 -0.0508
 8222W        W51139  24.014  20.582  29.450  0.0603  0.1557  0.0796
 8223W        W51140  23.247  19.232  29.321 -0.1342  0.2963  0.2080
 8224W        W51141  22.869  21.118  30.020  0.0077 -0.0285  0.2132
 8225W        W51142  21.922  17.784  28.194 -0.1590  0.0702 -0.0425
 8226W        W51143  23.729  18.753  31.193  0.0205  0.1082 -0.0031
 8227W        W51144  21.456  20.722  26.780 -0.2126 -0.0069 -0.2295
 8228W        W51145  23.176  20.043  26.868  0.1444 -0.3139  0.0926
 8229W        W51146  23.927  21.167  28.647  0.0573 -0.1114 -0.2277
 8230W        W51147  21.107  18.012  26.371  0.1703 -0.3328 -0.0497
 8231W        W51148  20.817  20.271  30.354  0.2403 -0.3741  0.0238
 8232W        W51149  21.774  16.684  25.616  0.0213 -0.2262 -0.1596
 8233W        W51150  24.999  17.996  25.843 -0.3255 -0.0381 -0.0868
 8234W        W51151  22.808  18.427  28.277 -0.2223  0.1841 -0.0281
 8235W        W51152  23.012  20.063  31.650 -0.0382  0.2799  0.1008
 8236W        W51153  24.206  19.266  26.618  0.0451 -0.2844  0.0361
 8237W        W51154  26.780  18.959   0.534 -0.3350  0.3617 -0.1576
 8238W        W51155  22.870  19.873  29.904 -0.0091 -0.1014  0.0879
 8239W        W51156  23.820  19.754  28.092 -0.0277  0.0080  0.0513
 8240W        W51157  21.665  22.208  31.692 -0.0780 -0.1583 -0.0307
 8241W        W51158  21.208  20.632  31.211 -0.2930  0.1692  0.2266
 8242W        W51159  24.328  19.254  29.213 -0.0506 -0.0201 -0.3659
 8243W        W51160  21.690  18.280  29.413 -0.1307 -0.2359 -0.1040
 8244W        W51161  24.949  20.289  30.081 -0.0587  0.0768 -0.1285
 8245W        W51162  23.582  18.546  27.265 -0.0845 -0.1396 -0.0412
 8246W        W51163  27.416  19.840  30.227  0.1114  0.1499  0.2338
 8247W        W51164  24.126  20.423  29.886 -0.3194 -0.0773  0.1772
 8248W        W51165  22.753  20.252  29.549 -0.1653  0.2497  0.1636
 8249W        W51166  25.080  22.368  29.820  0.0413 -0.0126  0.2052
 8250W        W51167  23.684  20.131  26.543 -0.0198 -0.4414 -0.1308
 8251W        W51168  22.082  21.565  30.543 -0.3098  0.0161 -0.3255
 8252W        W51169  19.990  18.743  28.822 -0.0993  0.0405  0.1049
 8253W        W51170  23.549  21.379  31.750  0.3953  0.0467  0.2718
 8254W        W51171  24.502  19.786  29.152 -0.0518  0.0986 -0.0119
 8255W        W51172  22.678  16.854  26.476  0.6317 -0.2881  0.1273
 8256W        W51173  22.698  19.417  27.039 -0.1647  0.1125 -0.1557
 8257W        W51174  19.753  19.340  30.071  0.2187 -0.0201  0.2240
 8258W        W51175  20.636  19.861  29.256 -0.1600  0.2313  0.3188
 8259W        W51176  22.928  21.169  27.912  0.1240 -0.1571  0.1015
 8260W        W51177  25.288  21.907  27.846 -0.2369 -0.2017 -0.2254
 8261W        W51178  23.415  18.224  27.614 -0.3188  0.1936  0.2568
 8262W        W51179  21.018  20.788  29.035 -0.0989 -0.1334 -0.1138
 8263W        W51180  22.139  18.677  27.611  0.1189 -0.0859 -0.3703
 8264W        W51181  20.059  20.370  30.779  0.2101 -0.2060  0.3973
 8265W        W51182  23.208  19.774  26.440  0.1379  0.0894 -0.0182
 8266W        W51183  23.905  19.217  28.151 -0.0420  0.2131  0.1345
 8267W        W51184  21.793  23.016  29.406 -0.1677 -0.1127  0.0444
 8268W        W51185  21.728  20.663   0.078 -0.2425 -0.1369 -0.0920
 8269W        W51186  21.508  19.302  27.089 -0.1956  0.1740 -0.2431
 8270W        W51187  26.296  19.436  31.109  0.1223  0.2852 -0.0835
 8271W        W51188  24.876  19.060  27.964  0.1375  0.1186  0.1414
 8272W        W51189  22.983  21.679  30.439 -0.1329 -0.0705  0.4436
 8273W        W51190  21.089  18.140  28.795 -0.1250  0.0143  0.0771
 8274W        W51191  23.539  19.690  24.973  0.0470 -0.0898  0.2952
 8275W        W51192  19.898  21.181  29.511 -0.0314 -0.0795  0.3348
 8276W        W51193  24.717  17.434  29.872  0.2136 -0.1259 -0.1175
 8277W        W51194  21.729  19.073  30.401 -0.0598 -0.1052  0.1432
 8278W        W51195  23.787  23.511  28.224 -0.0492  0.1108  0.0909
 8279W        W51196  20.173  17.370  25.952  0.2346  0.2076 -0.3411
 8280W        W51197  22.806  19.297  27.900  0.1599  0.1681  0.4234
 8281W        W51198  25.610  18.284  30.885  0.5981 -0.3270  0.0120
 8282W        W51199  21.975  19.589  23.919  0.1895  0.0312 -0.0218
 8283W        W51200  22.846  20.367  30.588 -0.0455  0.3930  0.3099
 8284W        W51201  21.832  21.731  29.540 -0.3206 -0.1360  0.2561
 8285W        W51202  19.263  21.743  27.890 -0.0445 -0.2011 -0.1037
 8286W        W51203  21.115  20.976  29.535  0.0500 -0.0350 -0.1133
 8287W        W51204  20.704  17.804  23.985  0.4039 -0.1617 -0.2146
 8288W        W51205  25.498  19.903  29.129  0.0756 -0.0720  0.0647
 8289W        W51206  21.852  17.728  28.908 -0.3070 -0.5105 -0.0189
 8290W        W51207  26.550  19.358  30.715 -0.2508  0.0205  0.2209
 8291W        W51208  22.599  19.814  26.135  0.4119 -0.0370 -0.0022
 8292W        W51209  23.781  18.193  30.843 -0.0125 -0.0396 -0.7279
 8293W        W51210  23.724  18.674  30.516 -0.2199  0.1718  0.2063
 8294W        W51211  23.346  21.070  29.962 -0.2232 -0.2342 -0.0673
 8295W        W51212  24.879  19.893  27.927  0.0561  0.0137 -0.0545
 8296W        W51213  25.176  19.728  29.912  0.0056 -0.1319 -0.1138
 8297W        W51214  25.535  18.279  29.267 -0.1649 -0.1557  0.1531
 8298W        W51215  22.838  19.709  30.738 -0.1111 -0.1188  0.1230
 8299W        W51216  20.617  18.713  24.151 -0.0082 -0.0614 -0.0888
 8300W        W51217  24.390  19.113  28.263 -0.2106 -0.0028 -0.0716
 8301W        W51218  21.698  18.120  26.986  0.1563  0.1501 -0.1222
 8302W        W51219  25.185  18.422  28.768 -0.1623 -0.1276 -0.1757
 8303W        W51220  24.154  22.732  29.636 -0.0930  0.1579  0.3036
 8304W        W51221  19.969  18.237  25.413  0.1925 -0.0443 -0.2241
 8305W        W51222  24.515  20.742  27.513  0.1099  0.2435  0.0616
 8306W        W51223  24.240  19.474  29.809  0.1445 -0.0866 -0.0802
 8307W        W51224  21.318  19.978  28.242  0.3082  0.0999 -0.0371
 8308W        W51225  23.072  20.058  30.294 -0.1329 -0.1510  0.0715
 8309W        W51226  24.394  21.009  28.723  0.5228 -0.0660  0.1549
 8310W        W51227  20.990  20.074  29.597 -0.0533 -0.0204  0.2827
 8311W        W51228  24.503  20.794  29.181  0.0400  0.2887  0.1296
 8312W        W51229  24.601  20.454  30.600  0.3397 -0.3258  0.1766
 8313W        W51230  23.955  18.283  26.920 -0.0464  0.1697  0.1760
 8314W        W51231  21.265  19.692  30.477  0.0868 -0.1025  0.2423
 8315W        W51232  22.750  20.063  29.068  0.2183 -0.2501 -0.0024
 8316W        W51233  25.076  21.494  27.746 -0.1898  0.1663 -0.0544
 8317W        W51234  24.900  19.690  31.094  0.0493  0.0965 -0.1789
 8318W        W51235  21.958  20.574  26.650 -0.0054  0.1012  0.0285
 8319W        W51236  24.692  16.947  30.240  0.1198  0.3350  0.1509
 8320W        W51237  24.191  19.446   0.356  0.0924  0.1159 -0.1172
 8321W        W51238  20.272  19.630  30.976  0.0897 -0.3577 -0.2150
 8322W        W51239  21.562  19.669  24.825 -0.4775  0.1304  0.1109
 8323W        W51240  23.509  19.078  30.120  0.0229  0.4630  0.0432
 8324W        W51241  21.963  20.662  27.690 -0.3604 -0.3830 -0.1343
 8325W        W51242  22.375  19.635  28.334  0.0036 -0.0571  0.0554
 8326W        W51243  22.884  20.389  28.560 -0.2432  0.1522  0.1799
 8327W        W51244  22.803  20.159  26.408 -0.0796  0.0883  0.3541
 8328W        W51245  25.605  20.262  30.068  0.1491  0.1666 -0.1586
 8329W        W51246  20.936  17.864  28.412  0.1949 -0.0525 -0.4452
 8330W        W51247  25.199  17.848  30.624 -0.0456 -0.0640  0.1504
 8331W        W51248  23.894  18.136  29.370  0.1294 -0.0950 -0.0724
 8332W        W51249  23.080  18.779  29.291 -0.1224 -0.0698  0.1043
 8333W        W51250  21.554  20.816  27.374  0.0667  0.0787 -0.1170
 8334W        W51251  21.619  17.260  28.493 -0.1207  0.0402  0.2881
 8335W        W51252  24.483  21.112  27.151  0.2343 -0.2418  0.2751
 8336W        W51253  22.601  19.241  30.699 -0.0319  0.0933 -0.0554
 8337W        W51254  22.274  17.441  30.785  0.2885  0.1832  0.3297
 8338W        W51255  23.368  20.645  27.695  0.1001  0.2826  0.0042
 8339W        W51256  21.488  18.451  26.713 -0.1221 -0.1860  0.1103
 8340W        W51257  22.424  21.130  28.078  0.1440  0.2458  0.1289
 8341W        W51258  22.318  20.134  28.625 -0.0674 -0.1581 -0.1981
 8342W        W51259  19.796  16.707  25.569  0.0912  0.1047  0.1809
 8343W        W51260  24.216  18.713  28.580 -0.2316 -0.2014 -0.2517
 8344W        W51261  23.788  20.119  28.457  0.2131  0.1335  0.0273
 8345W        W51262  23.747  18.971  28.547 -0.0480 -0.1289 -0.1783
 8346W        W51263  26.507  23.546  30.662  0.1136  0.1340  0.1102
 8347W        W51264  21.267  18.383  27.193 -0.2445  0.0962  0.1093
 8348W        W51265  23.219  20.667  30.850 -0.1363  0.2904 -0.1748
 8349W        W51266  24.352  18.699  30.577  0.1151  0.4031 -0.1186
 8350W        W51267  19.095  17.502  25.642 -0.3442 -0.2885 -0.0579
 8351W        W51268  21.174  20.035  26.283 -0.0897  0.1546 -0.0925
 8352W        W51269  23.285  20.826  29.246 -0.0749  0.2162  0.1096
 8353W        W51270  25.795  22.363  26.899  0.0346 -0.2210  0.0254
 8354W        W51271  22.835  19.359  28.407  0.2174 -0.0224  0.0270
 8355W        W51272  21.803  19.814  31.153 -0.0719  0.0185 -0.0624
 8356W        W51273  22.471  19.823  29.452  0.0043 -0.0006  0.2096
 8357W        W51274  23.607  20.870  27.257  0.2464 -0.3799 -0.0441
 8358W        W51275  20.549  19.476  31.600  0.0952 -0.0460 -0.1918
 8359W        W51276  23.930  21.864  27.498  0.2737  0.3855 -0.2097
 8360W        W51277  23.777  18.031  29.821 -0.0802 -0.2261  0.2750
 8361W        W51278  21.252  19.929  27.268 -0.0898  0.0786  0.1073
 8362W        W51279  18.866  18.011  29.211  0.0717  0.0026 -0.1630
 8363W        W51280  21.389  22.125  29.326 -0.0525 -0.0836 -0.1290
 8364W        W51281  26.034  20.098  29.054 -0.0026  0.0618  0.0619
 8365W        W51282  23.091  18.880  28.223  0.1853  0.0875  0.6386
 8366W        W51283  23.753  19.594  28.548  0.0894  0.0598  0.1333
 8367W        W51284  22.067  19.883  27.416 -0.0218 -0.1410  0.1200
 8368W        W51285  22.427  20.120  28.060  0.2736 -0.1328  0.2592
 8369W        W51286  23.745  20.286  27.984  0.0487 -0.3394  0.1854
 8370W        W51287  24.356  21.102  31.125 -0.0899  0.1230 -0.2294
 8371W        W51288  23.841  21.564  29.270 -0.1123 -0.2561  0.0662
 8372W        W51289  22.697  21.416   0.344 -0.0777  0.0877 -0.0674
 8373W        W51290  22.139  16.350  25.520  0.6128 -0.0462 -0.1371
 8374W        W51291  22.949  21.453  26.408 -0.0353  0.0897  0.0368
 8375W        W51292  22.992  20.682  29.680  0.2377  0.0793 -0.0202
 8376W        W51293  21.563  21.646  30.645  0.0968  0.0618 -0.1645
 8377W        W51294  24.500  22.302  27.864 -0.1912 -0.1157  0.2870
 8378W        W51295  24.392  20.957  29.639  0.1094 -0.0110 -0.0341
 8379W        W51296  22.934  20.318  31.096  0.1701  0.3505 -0.0073
 8380W        W51297  22.859  19.783  27.890  0.0091  0.1442  0.0644
 8381W        W51298  21.438  16.961  27.591 -0.1046  0.0413 -0.0047
 8382W        W51299  23.866  19.978  31.077 -0.2093  0.0916  0.0554
 8383W        W51300  20.414  18.697  28.609  0.1212  0.1410 -0.4915
 8384W        W51301  23.087  18.518  27.275  0.3628 -0.2346  0.0378
 8385W        W51302  22.507  22.362  27.156 -0.0168  0.0531 -0.2361
 8386W        W51303  22.226  21.032  29.033  0.1152  0.1267  0.0981
 8387W        W51304  25.616  19.987  31.619 -0.0191 -0.3020 -0.1732
 8388W        W51305  24.010  20.360  31.379 -0.1189 -0.3332 -0.1379
 8389W        W51306  20.518  18.516  29.496 -0.0228 -0.0309  0.1462
 8390W        W51307  20.863  21.246   0.477 -0.1181 -0.0250  0.3579
 8391W        W51308  21.570  21.729   0.067  0.0666 -0.0428 -0.0787
 8392W        W51309  22.305  21.785  31.754 -0.4478  0.2485 -0.0489
 8393W        W51310  23.979  20.265   0.602 -0.0702  0.2021  0.1021
 8394W        W51311  20.501  18.286  30.200 -0.0930  0.2533  0.2414
 8395W        W51312  25.853  18.133   0.714  0.0178 -0.4108  0.0425
 8396W        W51313  24.517  20.276  29.285 -0.0675 -0.2287 -0.1055
 8397W        W51314  23.953  21.142  31.542 -0.0716 -0.3966  0.4187
 8398W        W51315  19.660  17.066  31.018 -0.2696 -0.2750  0.0530
 8399W        W51316  24.356  19.853  31.199  0.2359 -0.0332  0.2163
 8400W        W51317  22.322  21.013   0.475 -0.0447  0.2652 -0.1182
 8401W        W51318  23.740  19.489  30.249  0.2384  0.1155 -0.0937
 8402W        W51319  20.663  21.708  31.708  0.2246  0.4228  0.0178
 8403W        W51320  18.195  18.240  31.894  0.1611  0.2409  0.0970
 8404W        W51321  24.407  20.808   0.457 -0.1333  0.3145  0.1959
 8405W        W51322  20.509  17.884   0.272  0.1079  0.0775  0.2391
 8406W        W51323  22.262  21.887   0.869  0.2693  0.1988 -0.0076
 8407W        W51324  21.987  17.338   0.456  0.1004  0.2582 -0.0116
 8408W        W51325  21.349  19.650  31.082  0.1629  0.0341  0.1299
 8409W        W51326  25.034  20.025   1.380 -0.3866 -0.3028  0.0449
 8410W        W51327  24.088  17.530  31.502 -0.2488 -0.1591 -0.0121
 8411W        W51328  24.267  17.956  30.009 -0.0841 -0.2731 -0.3293
 8412W        W51329  23.683  17.403  29.031 -0.1564 -0.1241  0.0331
 8413W        W51330  21.846  20.730  31.020  0.0983 -0.4344  0.0997
 8414W        W51331  19.920  22.587  31.927  0.0586  0.0045 -0.0731
 8415W        W51332  20.502  20.111  30.814 -0.1354 -0.0759  0.2107
 8416W        W51333  22.035  21.049  30.139 -0.1654  0.1220 -0.2588
 8417W        W51334  23.212  20.867  31.917 -0.1781 -0.3498  0.1570
 8418W        W51335  25.082  19.149  31.021  0.0352  0.2101 -0.2900
 8419W        W51336  24.081  19.979   0.118 -0.1626 -0.0272  0.0663
 8420W        W51337  23.427  19.493  30.732 -0.2016 -0.1352 -0.1324
 8421W        W51338  21.851  17.176  29.043  0.0957 -0.0577 -0.0913
 8422W        W51339  21.184  17.530  28.720  0.2191 -0.0929 -0.2524
 8423W        W51340  22.217  18.998  28.752 -0.1291  0.2284 -0.2805
 8424W        W51341  23.286  20.401  31.847  0.0739 -0.0493  0.1478
 8425W        W51342  23.125  19.911   0.165 -0.2851  0.1539  0.1476
 8426W        W51343  23.479  20.296  31.244 -0.2886  0.1073 -0.0784
 8427W        W51344  24.333  18.098  30.655 -0.0126  0.0738 -0.0137
 8428W        W51345  23.974  20.593   0.222  0.1193 -0.0298  0.0498
 8429W        W51346  22.520  19.436  28.760 -0.2769  0.2526  0.0495
 8430W        W51347  23.110  21.014   0.676  0.0653  0.1023 -0.2383
 8431W        W51348  21.800  18.237  28.841  0.0403 -0.2263 -0.3274
 8432W        W51349  22.694  22.519  29.948 -0.1184  0.0918  0.2865
 8433W        W51350  23.192  17.348  31.051 -0.2957 -0.1910 -0.1387
 8434W        W51351  22.427  22.352  30.863  0.0531  0.0806  0.1608
 8435W        W51352  22.128  17.726  30.309  0.0177 -0.0007 -0.1553
 8436W        W51353  22.607  17.822  30.853  0.1291  0.0418  0.0926
 8437W        W51354  25.546  21.067   0.728  0.1646  0.1535 -0.0139
 8438W        W51355  23.999  19.047  30.734 -0.0878  0.1354 -0.2359
 8439W        W51356  23.162  19.805  31.113 -0.0711 -0.2681  0.0030
 8440W        W51357  23.701  20.736  31.764  0.0955 -0.2122  0.3625
 8441W        W51358  22.897  17.041  31.439  0.0378  0.2014  0.0947
 8442W        W51359  23.048  19.308  31.017  0.1602 -0.2546  0.0753
 8443W        W51360  22.674  21.342  30.745  0.0176  0.0512  0.0988
 8444W        W51361  21.575  20.151  30.601  0.0829  0.0493 -0.1648
 8445W        W51362  22.833  21.998   1.576  0.0884 -0.1937 -0.3593
 8446W        W51363  21.504  18.901  29.939  0.0704 -0.1453 -0.2468
 8447W        W51364  21.842  18.506  29.828  0.1556 -0.1259  0.5424
 8448W        W51365  22.111  20.772  29.478 -0.0457  0.1602  0.0221
 8449W        W51366  20.887  19.336  30.366  0.0548  0.0685 -0.2880
 8450W        W51367  20.990  17.121  28.512  0.0703 -0.1702 -0.0808
 8451W        W51368  22.998  22.106  30.659 -0.0043 -0.1661 -0.2808
 8452W        W51369  24.780  20.503   1.451 -0.4200  0.0411  0.2015
 8453W        W51370  23.523  21.790  31.388 -0.1492  0.1137  0.0035
 8454W        W51371  21.327  24.395  20.689  0.0249 -0.0516 -0.2540
 8455W        W51372  23.472  22.818  18.794 -0.1015  0.1559  0.0599
 8456W        W51373  26.139  23.491  16.757  0.2295  0.0085 -0.0590
 8457W        W51374  25.091  26.366  17.576 -0.0034 -0.2179 -0.1925
 8458W        W51375  22.547  24.386  16.983 -0.0894  0.1260  0.2344
 8459W        W51376  24.100  23.910  17.498  0.1782 -0.5489  0.3174
 8460W        W51377  21.731  21.757  18.547 -0.2595 -0.0519  0.3150
 8461W        W51378  25.082  24.211  19.584 -0.0539  0.1809  0.0887
 8462W        W51379  23.899  26.457  20.415 -0.3114  0.1860 -0.2835
 8463W        W51380  22.980  23.523  17.150  0.1835  0.0012  0.2547
 8464W        W51381  22.477  24.149  19.019  0.1487 -0.1256  0.0268
 8465W        W51382  22.485  24.102  17.438 -0.2075 -0.1081  0.1392
 8466W        W51383  23.990  23.302  15.858  0.0254 -0.0438  0.1114
 8467W        W51384  21.878  21.954  19.054 -0.0189 -0.3339  0.4021
 8468W        W51385  25.356  24.419  20.908 -0.0818  0.0290  0.3281
 8469W        W51386  22.245  24.537  17.365  0.2264 -0.1802  0.0458
 8470W        W51387  22.861  25.276  18.967  0.2884 -0.0820  0.0590
 8471W        W51388  24.374  23.140  17.557 -0.0387  0.0779 -0.1201
 8472W        W51389  24.410  24.651  16.971 -0.3661 -0.0858  0.2057
 8473W        W51390  24.048  21.636  20.613  0.0115  0.1532 -0.1938
 8474W        W51391  26.267  22.732  18.734  0.1596 -0.0909  0.2636
 8475W        W51392  22.134  23.991  18.173 -0.0204  0.2041  0.0149
 8476W        W51393  20.816  23.943  16.278 -0.0373 -0.4253  0.0948
 8477W        W51394  23.987  23.012  17.952 -0.1231 -0.0176 -0.2262
 8478W        W51395  23.445  24.964  20.660 -0.1029 -0.0008  0.0742
 8479W        W51396  26.484  22.427  18.202 -0.1699  0.1313 -0.0825
 8480W        W51397  26.125  24.645  18.421  0.0668 -0.0339 -0.1858
 8481W        W51398  22.979  25.384  17.367 -0.0276 -0.0175  0.2486
 8482W        W51399  24.494  24.540  21.370  0.0514  0.2111  0.0794
 8483W        W51400  22.110  23.032  21.521 -0.2285  0.0022 -0.1299
 8484W        W51401  20.772  24.631  18.372  0.2979 -0.3045  0.3269
 8485W        W51402  20.511  23.711  17.546 -0.2373  0.2529  0.1401
 8486W        W51403  22.196  25.533  16.281 -0.2449  0.1861 -0.0272
 8487W        W51404  24.117  23.862  18.010  0.1027  0.1139  0.3799
 8488W        W51405  24.542  24.672  20.009 -0.0669 -0.0310  0.2571
 8489W        W51406  22.570  24.003  21.307  0.0095  0.1833 -0.1182
 8490W        W51407  22.325  25.111  16.470  0.2249  0.0269  0.2789
 8491W        W51408  25.162  25.908  18.498  0.0230  0.2867  0.0960
 8492W        W51409  22.008  24.939  19.055 -0.1844 -0.0392  0.3129
 8493W        W51410  23.146  22.626  18.524  0.1681 -0.2732 -0.0251
 8494W        W51411  21.731  23.222  17.206 -0.2250 -0.0253  0.3007
 8495W        W51412  23.292  23.568  17.556 -0.0525 -0.3303  0.1905
 8496W        W51413  21.621  22.829  17.483 -0.3197 -0.3882  0.2031
 8497W        W51414  23.475  24.874  19.713 -0.0914  0.0315  0.0931
 8498W        W51415  20.698  24.092  17.235 -0.2716 -0.1999 -0.0965
 8499W        W51416  24.440  24.474  20.469  0.0594 -0.1335 -0.0320
 8500W        W51417  22.015  26.322  17.307  0.2146  0.0303 -0.1733
 8501W        W51418  25.114  22.470  17.523  0.1468  0.0784  0.1262
 8502W        W51419  22.087  22.686  16.483  0.2932 -0.1832 -0.0728
 8503W        W51420  25.772  23.214  17.306  0.2026 -0.1465 -0.1087
 8504W        W51421  24.080  21.262  16.676 -0.0456 -0.0771  0.0168
 8505W        W51422  22.028  25.359  17.399  0.0346 -0.2459  0.2340
 8506W        W51423  20.422  24.982  18.668  0.0766 -0.2926 -0.0166
 8507W        W51424  21.932  24.726  17.680  0.1156  0.1588  0.1908
 8508W        W51425  23.780  23.380  16.677  0.2407  0.0163  0.3148
 8509W        W51426  25.246  23.835  19.106  0.0207  0.2476  0.2787
 8510W        W51427  23.886  23.450  18.236  0.0297  0.1727  0.1457
 8511W        W51428  24.435  23.056  16.017 -0.1351 -0.0912 -0.1257
 8512W        W51429  24.619  24.672  16.485 -0.2132 -0.0143 -0.3957
 8513W        W51430  24.560  25.530  17.774  0.0486  0.0533  0.0249
 8514W        W51431  24.963  25.544  16.979  0.3474  0.1666  0.1099
 8515W        W51432  22.428  22.527  17.861  0.3422 -0.1491 -0.0647
 8516W        W51433  21.811  24.279  19.654  0.2502  0.0089  0.0064
 8517W        W51434  21.412  25.658  19.840 -0.1503  0.0792 -0.0969
 8518W        W51435  23.403  22.168  16.060  0.0151  0.1847  0.2334
 8519W        W51436  27.284  24.815  20.391 -0.0022  0.1035 -0.1758
 8520W        W51437  21.190  24.859  17.191 -0.1150 -0.3239  0.0716
 8521W        W51438  26.471  24.036  17.829  0.1576  0.2491 -0.1721
 8522W        W51439  21.539  25.066  18.479  0.0271  0.1888  0.2350
 8523W        W51440  23.767  25.563  18.925  0.0366 -0.2940 -0.2345
 8524W        W51441  23.365  23.655  16.346  0.2902  0.0299 -0.0958
 8525W        W51442  24.610  21.491  20.035  0.1130  0.0556  0.1212
 8526W        W51443  24.144  20.730  20.055  0.1989 -0.1964 -0.0355
 8527W        W51444  23.779  25.053  16.213  0.0263  0.1883  0.1583
 8528W        W51445  21.641  21.890  16.697  0.1664 -0.1939  0.3663
 8529W        W51446  25.269  24.577  21.863 -0.0288  0.0425 -0.2566
 8530W        W51447  22.522  23.011  16.451 -0.1530  0.1860  0.0443
 8531W        W51448  21.924  23.746  17.820 -0.3782  0.0754  0.1038
 8532W        W51449  23.218  22.768  20.144 -0.1522 -0.3524 -0.2194
 8533W        W51450  23.175  26.366  20.012  0.0181 -0.1485 -0.1023
 8534W        W51451  23.366  26.662  17.006 -0.2516  0.3419 -0.1130
 8535W        W51452  22.350  24.379  18.397  0.1413 -0.0023  0.0216
 8536W        W51453  22.288  24.497  16.459  0.0195 -0.0056  0.2533
 8537W        W51454  20.656  23.650  20.262  0.1110  0.2055 -0.0549
 8538W        W51455  24.175  24.435  19.704 -0.1894  0.0887  0.1319
 8539W        W51456  23.819  23.800  17.069 -0.0341  0.1571  0.2384
 8540W        W51457  22.671  22.426  20.181 -0.0433 -0.2537  0.1683
 8541W        W51458  24.308  22.991  19.326 -0.1546 -0.1270  0.2428
 8542W        W51459  21.586  26.111  17.181 -0.1868 -0.2232  0.1896
 8543W        W51460  23.247  25.569  16.965 -0.0897  0.3407 -0.0471
 8544W        W51461  24.883  24.215  19.096 -0.0135 -0.1056  0.3314
 8545W        W51462  26.105  24.383  17.578 -0.0364 -0.0365  0.0665
 8546W        W51463  22.747  23.011  20.065  0.1566  0.3209  0.2845
 8547W        W51464  22.117  21.542  16.012  0.1833  0.1515  0.0022
 8548W        W51465  22.986  24.384  21.372 -0.0206 -0.3182  0.1874
 8549W        W51466  23.908  21.246  19.848 -0.2520 -0.0267 -0.1727
 8550W        W51467  25.631  23.411  18.932 -0.4188 -0.1883 -0.0784
 8551W        W51468  23.323  22.310  17.008 -0.1577  0.1992  0.0168
 8552W        W51469  24.071  23.357  17.107  0.3928  0.0455 -0.0262
 8553W        W51470  22.201  25.061  17.022  0.0822 -0.3573  0.1434
 8554W        W51471  22.573  24.745  16.137 -0.1105  0.0291 -0.2484
 8555W        W51472  25.787  22.316  18.063 -0.1719  0.0281 -0.0501
 8556W        W51473  24.811  23.760  16.597 -0.4190  0.1255  0.1494
 8557W        W51474  27.057  24.572  19.217 -0.1370 -0.2237  0.1799
 8558W        W51475  25.581  25.212  19.109  0.1177 -0.0605 -0.1526
 8559W        W51476  22.790  23.394  19.009 -0.0503  0.2769 -0.0890
 8560W        W51477  21.622  21.331  17.686  0.4167  0.2541 -0.2218
 8561W        W51478  23.336  24.991  17.065 -0.2018 -0.3032 -0.2269
 8562W        W51479  25.525  23.860  19.582  0.0295  0.2340  0.2685
 8563W        W51480  22.422  23.654  17.872  0.1279  0.1239  0.1260
 8564W        W51481  24.955  25.209  18.910 -0.1238 -0.3381  0.0683
 8565W        W51482  24.303  24.231  18.288 -0.0030 -0.0109 -0.4488
 8566W        W51483  21.190  22.923  17.748 -0.1384 -0.1517 -0.3239
 8567W        W51484  25.622  21.620  19.129 -0.2397 -0.1499 -0.1835
 8568W        W51485  25.791  22.863  18.991 -0.0554  0.2953 -0.0910
 8569W        W51486  22.358  23.334  19.325 -0.4086 -0.0368  0.1456
 8570W        W51487  22.829  23.816  17.502  0.0249  0.1303  0.1915
 8571W        W51488  24.194  24.609  17.417 -0.1416 -0.0735  0.1624
 8572W        W51489  23.031  25.666  17.831  0.2492  0.0288 -0.1338
 8573W        W51490  20.391  22.128  17.136  0.1192 -0.2432  0.0892
 8574W        W51491  23.246  23.717  15.875  0.1083  0.0585  0.0576
 8575W        W51492  24.704  19.977  16.512  0.0478 -0.3213 -0.1712
 8576W        W51493  24.071  23.350  21.266  0.1576  0.1743 -0.1387
 8577W        W51494  23.669  24.415  18.339 -0.1906 -0.0812 -0.1472
 8578W        W51495  22.272  23.993  16.754 -0.0667  0.1237  0.1698
 8579W        W51496  21.533  25.875  18.768  0.3851 -0.0375 -0.2949
 8580W        W51497  21.048  22.169  16.036  0.0038  0.1993  0.1415
 8581W        W51498  24.620  22.677  17.567 -0.0991 -0.0623 -0.0707
 8582W        W51499  23.658  22.428  21.590  0.1725 -0.0680 -0.0766
 8583W        W51500  23.781  23.499  17.647 -0.1424 -0.1825  0.0160
 8584W        W51501  21.922  23.570  16.910 -0.1439 -0.1280 -0.1761
 8585W        W51502  24.522  21.657  17.427 -0.0235  0.1540  0.2921
 8586W        W51503  22.013  24.732  18.621  0.0185 -0.0007 -0.0727
 8587W        W51504  23.296  25.242  16.633  0.1796 -0.0611  0.4006
 8588W        W51505  24.780  23.399  18.296  0.3156 -0.2391 -0.2376
 8589W        W51506  22.604  23.290  17.379  0.0969 -0.0478  0.0969
 8590W        W51507  22.908  24.919  18.625  0.1229 -0.2099 -0.0573
 8591W        W51508  22.611  25.194  20.233 -0.1754 -0.0090  0.0014
 8592W        W51509  21.925  26.562  21.159  0.2842  0.1578  0.1855
 8593W        W51510  23.286  24.317  17.989 -0.0421  0.3392 -0.2576
 8594W        W51511  23.656  23.762  20.791  0.1149 -0.2523  0.1783
 8595W        W51512  23.377  23.745  16.915  0.2233  0.2956 -0.0322
 8596W        W51513  23.264  21.855  17.265 -0.0164 -0.2269  0.1731
 8597W        W51514  21.342  26.985  16.102  0.1291  0.3808  0.1108
 8598W        W51515  24.793  23.618  20.338 -0.0642  0.1227 -0.1285
 8599W        W51516  25.071  22.778  17.871  0.0403  0.1136  0.0620
 8600W        W51517  22.992  22.879  17.927 -0.0669  0.1049 -0.1907
 8601W        W51518  27.072  24.343  20.396  0.0720  0.4205  0.1105
 8602W        W51519  24.112  24.231  17.005  0.1832  0.1883 -0.1417
 8603W        W51520  23.492  23.077  17.737 -0.0480 -0.0745  0.2615
 8604W        W51521  23.089  23.105  17.435 -0.3422 -0.2662  0.1554
 8605W        W51522  25.432  23.422  20.427  0.0169  0.1939  0.0689
 8606W        W51523  19.922  25.197  18.791  0.2191  0.3231  0.0953
 8607W        W51524  23.274  24.079  18.414  0.0347 -0.0191  0.3119
 8608W        W51525  22.998  26.440  19.355 -0.1909 -0.0892 -0.0215
 8609W        W51526  23.757  24.640  17.078 -0.1944 -0.0948 -0.0605
 8610W        W51527  22.208  23.592  21.369  0.1193 -0.2133 -0.1182
 8611W        W51528  24.472  22.069  17.126  0.2028  0.1402  0.0103
 8612W        W51529  22.856  25.501  16.600  0.4879  0.1507 -0.3771
 8613W        W51530  21.813  24.816  17.208 -0.3598 -0.0642  0.1340
 8614W        W51531  23.137  22.733  16.864 -0.1765  0.1518 -0.1813
 8615W        W51532  20.892  23.052  17.100 -0.0689 -0.2499  0.0162
 8616W        W51533  24.624  25.924  17.053  0.0604  0.2934  0.1198
 8617W        W51534  22.452  25.149  18.713  0.4277 -0.0542 -0.4115
 8618W        W51535  21.502  25.180  17.431  0.0331 -0.0774  0.2218
 8619W        W51536  24.845  22.187  19.654  0.0295  0.3932  0.0089
 8620W        W51537  21.911  25.363  18.812 -0.0742 -0.0523 -0.0466
 8621W        W51538  21.209  21.212  15.624  0.1064 -0.1678 -0.1004
 8622W        W51539  21.482  24.428  15.984  0.1059 -0.0417  0.1831
 8623W        W51540  23.632  21.800  16.843  0.2351 -0.3035  0.3328
 8624W        W51541  25.559  22.783  18.134  0.0660  0.0230  0.1387
 8625W        W51542  21.898  22.847  20.702  0.2377 -0.1256  0.0025
 8626W        W51543  24.051  24.816  17.866 -0.1774  0.1189  0.0754
 8627W        W51544  20.002  23.255  16.309 -0.1173  0.0258 -0.0211
 8628W        W51545  22.122  23.748  19.862  0.1948  0.2383  0.0452
 8629W        W51546  26.166  21.877  19.056  0.4219  0.0841 -0.1523
 8630W        W51547  22.604  24.904  19.822  0.0233 -0.1603 -0.0390
 8631W        W51548  23.651  24.401  21.801 -0.0425 -0.3894 -0.0833
 8632W        W51549  21.832  23.636  18.665 -0.1673  0.0855  0.3237
 8633W        W51550  24.824  24.141  20.489 -0.0795 -0.0365  0.0855
 8634W        W51551  24.539  23.430  19.418 -0.1404  0.2654  0.2704
 8635W        W51552  21.590  25.127  16.920 -0.1226 -0.2409  0.1138
 8636W        W51553  22.621  23.752  19.379  0.4515  0.0853 -0.1938
 8637W        W51554  21.245  23.327  17.455 -0.0526 -0.6904 -0.0441
 8638W        W51555  23.496  23.243  19.052  0.2165  0.3694  0.0059
 8639W        W51556  24.894  23.549  21.319  0.1792 -0.2511  0.0551
 8640W        W51557  25.828  23.916  21.973  0.2039  0.1663  0.0958
 8641W        W51558  22.997  21.878  18.129 -0.1121 -0.2485  0.1208
 8642W        W51559  23.023  21.578  17.645  0.1290 -0.0100  0.2161
 8643W        W51560  23.865  23.321  19.381  0.2118 -0.2258 -0.1811
 8644W        W51561  23.837  23.784  19.221 -0.3240 -0.2580  0.3666
 8645W        W51562  23.643  24.121  18.872 -0.3068 -0.2142  0.1165
 8646W        W51563  22.803  25.894  19.194  0.3708 -0.2286  0.0959
 8647W        W51564  23.526  22.663  18.158 -0.0684  0.0303  0.0705
 8648W        W51565  27.911  25.345  17.566  0.1849 -0.0124  0.2497
 8649W        W51566  25.397  23.378  19.394  0.2156  0.1622  0.0592
 8650W        W51567  20.571  23.929  15.849  0.3444  0.3564  0.0845
 8651W        W51568  22.767  22.488  18.928 -0.0891  0.1055  0.1372
 8652W        W51569  20.887  24.858  16.235 -0.0173 -0.2984  0.1495
 8653W        W51570  22.648  22.894  19.464  0.0849  0.2338  0.0532
 8654W        W51571  21.126  23.516  16.310  0.2285  0.1445  0.1203
 8655W        W51572  21.138  26.015  16.978  0.0790  0.1288 -0.0240
 8656W        W51573  21.466  23.992  18.728 -0.3168  0.0513  0.0161
 8657W        W51574  26.905  22.817  17.556 -0.1012  0.1638 -0.1816
 8658W        W51575  24.699  24.613  17.378 -0.0004 -0.0128  0.1295
 8659W        W51576  25.470  23.060  17.760 -0.0578 -0.1934 -0.1269
 8660W        W51577  27.490  24.105  22.047 -0.3040  0.4250  0.2023
 8661W        W51578  23.733  23.665  16.008  0.0543 -0.4756 -0.0003
 8662W        W51579  24.458  25.013  17.622  0.3440 -0.0004  0.3013
 8663W        W51580  22.620  23.922  18.441  0.3941  0.4914 -0.1052
 8664W        W51581  25.737  26.140  20.133 -0.2281 -0.1776  0.5247
 8665W        W51582  21.374  23.813  17.816 -0.1287 -0.0413  0.0112
 8666W        W51583  23.300  27.897  18.965 -0.2607  0.2592 -0.2518
 8667W        W51584  22.794  23.305  20.448 -0.2207  0.1146  0.2649
 8668W        W51585  25.129  22.618  18.339 -0.2543  0.1084  0.1074
 8669W        W51586  23.945  22.995  17.453  0.0531 -0.0095 -0.0138
 8670W        W51587  22.303  22.250  18.958  0.0352 -0.3539 -0.2127
 8671W        W51588  25.195  24.638  17.334  0.0345  0.2381  0.1547
 8672W        W51589  22.435  22.712  16.854 -0.3249 -0.0761  0.1273
 8673W        W51590  24.968  22.953  17.416 -0.1837 -0.0494 -0.1616
 8674W        W51591  20.383  23.323  17.203 -0.1171  0.0974  0.2021
 8675W        W51592  24.267  23.166  18.448 -0.2403  0.0134  0.1020
 8676W        W51593  23.792  23.905  16.561 -0.1846  0.1605  0.1283
 8677W        W51594  25.298  23.259  18.171  0.0046  0.1134  0.2258
 8678W        W51595  20.748  24.325  19.599  0.0842 -0.0293  0.3298
 8679W        W51596  26.933  25.252  17.810 -0.0022 -0.0115  0.2078
 8680W        W51597  25.945  23.162  18.621 -0.1771  0.0168  0.0149
 8681W        W51598  23.656  23.919  17.936  0.0791  0.1395  0.2751
 8682W        W51599  22.836  22.761  20.545 -0.1736 -0.2415  0.1703
 8683W        W51600  22.299  23.007  19.830 -0.1898  0.0138 -0.3200
 8684W        W51601  20.131  24.089  19.039 -0.1563  0.1436 -0.1545
 8685W        W51602  24.287  24.896  18.969  0.2045  0.4593  0.2009
 8686W        W51603  24.473  23.775  17.170 -0.1794 -0.3077  0.0999
 8687W        W51604  23.483  22.462  21.117 -0.2118  0.0146  0.0121
 8688W        W51605  24.500  24.549  17.891  0.1440  0.0008  0.0568
 8689W        W51606  23.537  22.708  16.545 -0.1690 -0.0231  0.1917
 8690W        W51607  21.127  22.629  18.229 -0.0559  0.0440  0.1233
 8691W        W51608  22.666  23.076  20.883  0.0235 -0.1361 -0.1565
 8692W        W51609  21.232  23.439  16.870 -0.3261  0.2004  0.2054
 8693W        W51610  24.390  23.385  20.516 -0.0777  0.2298 -0.0864
 8694W        W51611  22.973  24.556  16.269 -0.0949  0.0954 -0.1486
 8695W        W51612  24.327  23.692  18.469 -0.1234  0.0152 -0.0795
 8696W        W51613  24.711  22.460  17.157 -0.0227 -0.0450 -0.2419
 8697W        W51614  23.286  22.117  17.836  0.0432 -0.2437 -0.3845
 8698W        W51615  21.806  26.853  22.493  0.5880  0.2932 -0.1303
 8699W        W51616  20.993  23.783  17.527 -0.0671  0.1724 -0.1498
 8700W        W51617  23.271  23.279  16.762 -0.0915  0.1243  0.0639
 8701W        W51618  21.681  23.275  17.758 -0.2127 -0.0032 -0.1518
 8702W        W51619  24.577  22.290  21.013 -0.1455 -0.1642 -0.2437
 8703W        W51620  24.092  23.110  20.839  0.0146 -0.1395 -0.2179
 8704W        W51621  23.945  21.133  20.775  0.1195  0.1356  0.0799
 8705W        W51622  20.108  26.389  16.541 -0.1780  0.2318  0.1597
 8706W        W51623  22.988  23.190  16.375  0.1409  0.1945  0.1692
 8707W        W51624  22.223  24.353  17.861 -0.1220 -0.2704 -0.0899
 8708W        W51625  20.609  28.605  18.926  0.3035  0.0494 -0.4907
 8709W        W51626  24.739  22.919  18.548 -0.1561 -0.0879 -0.0506
 8710W        W51627  21.376  22.906  19.703 -0.2312 -0.0497 -0.0606
 8711W        W51628  24.876  24.916  17.864 -0.1875 -0.0645 -0.1422
 8712W        W51629  23.595  24.084  20.218 -0.0258  0.1420  0.1545
 8713W        W51630  25.330  25.684  21.252  0.1218 -0.0442  0.0410
 8714W        W51631  22.316  23.670  18.781  0.1852 -0.1062 -0.0973
 8715W        W51632  23.600  23.065  19.971  0.1479  0.1082  0.0522
 8716W        W51633  24.282  26.768  19.297 -0.0848  0.1305  0.0258
 8717W        W51634  25.384  24.603  17.821 -0.2317 -0.0132  0.1263
 8718W        W51635  21.577  23.692  17.351 -0.1102  0.0097 -0.2106
 8719W        W51636  22.298  24.379  20.398  0.0386 -0.1371 -0.3081
 8720W        W51637  23.716  24.448  19.932  0.1183 -0.0636  0.1822
 8721W        W51638  22.969  24.687  19.120  0.1512  0.1812 -0.4376
 8722W        W51639  24.047  22.555  19.250 -0.1889 -0.2730 -0.1529
 8723W        W51640  23.287  24.506  17.136  0.1748 -0.0601  0.0600
 8724W        W51641  20.621  27.291  19.822 -0.0882  0.1064  0.0311
 8725W        W51642  21.294  25.377  18.112 -0.0228  0.0058 -0.2537
 8726W        W51643  20.664  25.821  17.328 -0.1434 -0.0386 -0.1106
 8727W        W51644  25.542  24.096  16.878 -0.1430  0.4251 -0.0218
 8728W        W51645  23.688  22.230  17.362  0.1917 -0.0810  0.0998
 8729W        W51646  22.971  24.955  21.273 -0.0480 -0.1184  0.0598
 8730W        W51647  22.876  25.142  16.935  0.2573  0.2883  0.1368
 8731W        W51648  21.014  24.429  17.477 -0.0364 -0.2691  0.0132
 8732W        W51649  21.175  25.255  16.231  0.0950  0.2518  0.4702
 8733W        W51650  25.046  24.204  17.116  0.0223  0.1130  0.1066
 8734W        W51651  23.567  25.556  17.433  0.0166 -0.0198 -0.1285
 8735W        W51652  25.621  24.066  21.102  0.0737 -0.0258 -0.3480
 8736W        W51653  24.642  23.309  16.761 -0.1168 -0.3355 -0.2578
 8737W        W51654  25.915  22.080  17.488  0.2579 -0.1309 -0.1215
 8738W        W51655  25.129  23.731  16.981  0.1744 -0.2536  0.1168
 8739W        W51656  27.833  25.652  21.162  0.2200 -0.1435 -0.1289
 8740W        W51657  23.011  24.044  18.904 -0.3688 -0.1338  0.2102
 8741W        W51658  22.752  23.287  16.774 -0.1602 -0.0203 -0.0827
 8742W        W51659  21.783  23.856  19.093 -0.0362 -0.1033 -0.2514
 8743W        W51660  24.177  22.665  18.411  0.2036  0.2323 -0.1628
 8744W        W51661  21.124  25.985  19.657  0.2955  0.2331 -0.2268
 8745W        W51662  24.885  24.644  16.906  0.1684  0.1487  0.0085
 8746W        W51663  21.586  22.530  16.511  0.1700 -0.2605  0.0737
 8747W        W51664  22.631  22.793  18.347 -0.3287 -0.3887  0.4212
 8748W        W51665  25.088  22.553  19.355  0.0734  0.1580  0.2797
 8749W        W51666  21.485  23.075  16.181  0.1738  0.0764  0.1287
 8750W        W51667  25.301  23.027  19.060 -0.1893  0.0689 -0.0800
 8751W        W51668  23.052  24.951  18.148  0.1578  0.0652  0.0602
 8752W        W51669  22.948  23.399  17.843  0.3762  0.0945 -0.0063
 8753W        W51670  22.265  25.966  20.435  0.1975 -0.0011  0.2192
 8754W        W51671  21.970  21.953  17.060 -0.1565  0.0112 -0.1517
 8755W        W51672  24.571  24.174  17.519  0.2410 -0.0442  0.1363
 8756W        W51673  22.926  22.407  18.113  0.2065  0.0566 -0.2018
 8757W        W51674  23.579  25.630  17.988  0.1892  0.2528 -0.0113
 8758W        W51675  23.313  22.199  18.378  0.0217 -0.0705  0.4074
 8759W        W51676  24.025  24.275  17.782  0.3245  0.0530  0.2765
 8760W        W51677  24.968  23.385  19.154 -0.3688 -0.1787  0.4800
 8761W        W51678  23.784  22.977  18.411  0.2357  0.0315 -0.0006
 8762W        W51679  24.266  23.613  16.710 -0.1095 -0.0257 -0.0393
 8763W        W51680  26.431  23.973  18.776  0.0765  0.1057  0.0321
 8764W        W51681  24.196  23.121  16.583  0.0453 -0.1008  0.1646
 8765W        W51682  22.879  25.425  20.938  0.0990  0.1556  0.0277
 8766W        W51683  23.581  22.819  19.324 -0.2771  0.3705  0.1932
 8767W        W51684  23.894  22.206  16.925 -0.0976  0.0102  0.2081
 8768W        W51685  23.318  25.250  17.830 -0.2261 -0.0016 -0.0154
 8769W        W51686  24.215  23.887  18.891 -0.0133 -0.1676 -0.1344
 8770W        W51687  23.672  24.547  20.863  0.3743  0.0534 -0.0040
 8771W        W51688  22.368  21.957  16.113 -0.2333 -0.1570  0.0318
 8772W        W51689  24.760  23.414  16.279  0.2602 -0.3603 -0.3085
 8773W        W51690  23.609  25.904  18.533 -0.2547 -0.1276 -0.0766
 8774W        W51691  22.380  25.819  16.722 -0.2398  0.0122 -0.1308
 8775W        W51692  24.670  24.150  18.667  0.2842  0.0404  0.0866
 8776W        W51693  24.777  25.000  19.349  0.0612  0.0620 -0.3995
 8777W        W51694  20.234  22.786  18.025  0.1454  0.0465 -0.2579
 8778W        W51695  24.104  25.950  19.441  0.2323  0.1292  0.0688
 8779W        W51696  24.103  24.163  20.123  0.2612  0.1664 -0.1307
 8780W        W51697  23.466  21.752  18.114  0.1429 -0.2410 -0.1345
 8781W        W51698  23.285  21.378  16.653 -0.3963 -0.2194 -0.0829
 8782W        W51699  20.717  25.782  16.866 -0.0920  0.2576 -0.0764
 8783W        W51700  25.963  22.947  17.725 -0.1220  0.1367 -0.0001
 8784W        W51701  24.032  22.423  21.151  0.0663  0.1540  0.0901
 8785W        W51702  23.550  24.178  16.885  0.0934  0.1325  0.3042
 8786W        W51703  24.785  22.380  16.671 -0.1741 -0.1231  0.0882
 8787W        W51704  23.526  24.913  18.493 -0.0766  0.3214  0.4294
 8788W        W51705  23.382  24.691  21.425 -0.1132 -0.3135 -0.0171
 8789W        W51706  21.271  23.891  16.636 -0.1719 -0.1329  0.2153
 8790W        W51707  24.048  23.661  23.200  0.0649 -0.1625 -0.2182
 8791W        W51708  22.451  21.491  16.408 -0.4725  0.4418  0.0723
 8792W        W51709  23.009  24.561  16.784  0.0150  0.0490 -0.2854
 8793W        W51710  24.309  24.442  18.735  0.1771  0.0168  0.2817
 8794W        W51711  23.250  24.167  16.474  0.2109  0.2792 -0.1586
 8795W        W51712  24.695  24.143  19.890 -0.0583  0.1215 -0.0026
 8796W        W51713  23.603  21.932  18.629 -0.0016  0.1973  0.1794
 8797W        W51714  27.350  22.817  17.778  0.2070  0.4363 -0.0314
 8798W        W51715  24.852  22.037  17.498 -0.1618 -0.3362  0.2295
 8799W        W51716  22.636  23.970  20.220 -0.0861  0.2406  0.0068
 8800W        W51717  20.678  22.698  16.494 -0.0007  0.1183  0.1091
 8801W        W51718  22.177  25.223  15.881  0.0836 -0.0277 -0.5079
 8802W        W51719  25.101  23.831  17.457 -0.1444  0.1253  0.2874
 8803W        W51720  23.715  20.983  20.198 -0.0472 -0.1933  0.2443
 8804W        W51721  23.539  25.036  20.199 -0.0713 -0.1688 -0.0179
 8805W        W51722  24.053  21.787  18.593  0.2082 -0.1490 -0.1937
 8806W        W51723  21.266  23.787  19.180  0.2052  0.1318 -0.3379
 8807W        W51724  21.973  25.832  19.052 -0.1472 -0.0865  0.0271
 8808W        W51725  23.688  21.394  18.425  0.1172  0.0192  0.1251
 8809W        W51726  22.897  22.155  17.267 -0.0726 -0.2290 -0.4051
 8810W        W51727  23.327  24.077  17.354 -0.0179  0.1152 -0.0768
 8811W        W51728  23.033  23.643  18.577 -0.2031 -0.1201  0.1308
 8812W        W51729  22.798  21.463  16.801 -0.2295 -0.0811  0.0066
 8813W        W51730  24.169  24.874  20.184  0.3067 -0.2821 -0.1154
 8814W        W51731  21.809  25.837  16.396 -0.0049 -0.2392  0.0949
 8815W        W51732  21.508  24.356  17.364  0.1281 -0.0892  0.1919
 8816W        W51733  24.364  23.943  20.471  0.3407  0.0698 -0.0927
 8817W        W51734  21.389  22.857  15.747  0.0304  0.1790  0.0631
 8818W        W51735  24.624  24.350  20.951 -0.0866  0.0969 -0.0469
 8819W        W51736  22.721  23.338  18.292 -0.5375  0.2272 -0.0720
 8820W        W51737  24.234  25.464  16.828  0.0053 -0.0423 -0.0498
 8821W        W51738  23.194  24.773  17.593 -0.1068  0.1369 -0.2224
 8822W        W51739  23.858  26.242  18.125  0.3173 -0.0033 -0.1368
 8823W        W51740  21.374  23.452  18.645  0.0343 -0.0038 -0.1640
 8824W        W51741  24.621  25.104  16.930 -0.0078 -0.0930  0.0572
 8825W        W51742  19.654  25.159  19.277  0.1303  0.0380 -0.1513
 8826W        W51743  25.920  24.988  17.967  0.0841  0.2579  0.1764
 8827W        W51744  27.151  23.782  20.150 -0.2013  0.2564  0.1670
 8828W        W51745  21.790  24.408  16.415  0.1485  0.2159 -0.2302
 8829W        W51746  22.044  24.425  19.246  0.1802 -0.2436  0.3307
 8830W        W51747  22.295  23.420  21.869  0.0785  0.2267 -0.0252
 8831W        W51748  26.192  23.153  19.101  0.3875  0.0554 -0.1351
 8832W        W51749  23.319  20.855  16.438  0.0542  0.0373 -0.1405
 8833W        W51750  26.945  23.338  18.273 -0.2796  0.1110  0.1437
 8834W        W51751  25.624  24.623  18.345 -0.0548  0.1312  0.0333
 8835W        W51752  23.162  22.531  17.565  0.4235  0.1768 -0.3578
 8836W        W51753  22.432  23.696  17.054 -0.1764 -0.0300 -0.1019
 8837W        W51754  23.902  24.081  20.591 -0.1105 -0.0115 -0.0537
 8838W        W51755  22.825  24.739  17.259 -0.2354  0.2141 -0.0444
 8839W        W51756  23.497  23.579  20.181 -0.0692  0.0132  0.0953
 8840W        W51757  22.221  23.183  16.862  0.0016  0.0129  0.0033
 8841W        W51758  25.858  24.467  17.007  0.2284  0.0111 -0.0303
 8842W        W51759  24.475  23.599  19.983  0.1324 -0.1239 -0.2175
 8843W        W51760  25.466  26.910  18.794 -0.1213  0.1655 -0.0826
 8844W        W51761  23.850  24.574  18.865 -0.0313  0.0584  0.0792
 8845W        W51762  24.317  25.152  18.125  0.0958 -0.1681  0.0476
 8846W        W51763  21.605  22.162  18.213  0.0316  0.0751  0.1202
 8847W        W51764  22.630  24.787  16.685 -0.2705 -0.1627  0.0389
 8848W        W51765  22.960  23.909  18.011  0.3170 -0.1629 -0.3063
 8849W        W51766  25.120  23.752  18.117 -0.2573  0.0331 -0.2259
 8850W        W51767  23.987  22.639  16.386 -0.1959  0.0602 -0.4012
 8851W        W51768  23.833  22.270  18.329  0.2562 -0.0240  0.0248
 8852W        W51769  23.304  27.610  19.512  0.1379 -0.0457  0.0143
 8853W        W51770  22.541  25.050  18.267 -0.0407  0.0285 -0.4613
 8854W        W51771  22.428  23.739  22.645  0.1575 -0.0290 -0.2133
 8855W        W51772  23.325  23.168  20.512 -0.0936 -0.2793  0.2824
 8856W        W51773  23.359  22.214  22.056 -0.2484 -0.2264 -0.1295
 8857W        W51774  24.377  23.759  21.355  0.0131 -0.0502  0.3876
 8858W        W51775  22.181  22.637  20.343  0.0510  0.0193  0.1592
 8859W        W51776  23.683  26.861  22.151  0.1044  0.0200 -0.3472
 8860W        W51777  22.329  22.698  20.882 -0.2502  0.0384 -0.0451
 8861W        W51778  25.127  27.348  22.770 -0.2008  0.0876 -0.0690
 8862W        W51779  25.888  24.492  21.884 -0.3041  0.0969  0.0802
 8863W        W51780  25.271  23.883  20.532  0.0698 -0.0003  0.1252
 8864W        W51781  23.346  23.025  23.687 -0.2638  0.2064  0.2444
 8865W        W51782  23.272  26.176  22.581 -0.1700 -0.2350 -0.2010
 8866W        W51783  22.239  23.291  23.244 -0.0415  0.1331 -0.1382
 8867W        W51784  21.843  22.063  20.393  0.1648 -0.1015  0.3158
 8868W        W51785  25.730  24.071  22.550 -0.0920  0.0782  0.1126
 8869W        W51786  21.311  23.368  21.823 -0.0408 -0.1555  0.0708
 8870W        W51787  23.957  23.795  23.973  0.1989 -0.1717  0.2736
 8871W        W51788  23.342  23.937  22.229 -0.2716 -0.1914 -0.1853
 8872W        W51789  21.551  24.423  21.658  0.1278  0.0969  0.2110
 8873W        W51790  22.271  23.730  24.027  0.1177  0.2960  0.2572
 8874W        W51791  22.963  22.589  23.769  0.0329  0.0286  0.4649
 8875W        W51792  22.890  24.959  20.622  0.4050 -0.4033 -0.0304
 8876W        W51793  22.351  24.607  22.024  0.2833  0.1848 -0.1488
 8877W        W51794  21.543  23.723  23.469 -0.0152 -0.0801 -0.1787
 8878W        W51795  23.600  23.555  23.472  0.1633 -0.0455 -0.1678
 8879W        W51796  22.954  23.849  22.532  0.0946  0.1089 -0.4469
 8880W        W51797  20.937  24.079  20.437 -0.1601  0.0232 -0.1508
 8881W        W51798  23.888  25.861  21.820  0.0133 -0.3198  0.0207
 8882W        W51799  23.521  24.371  23.100  0.0743 -0.0105 -0.0114
 8883W        W51800  24.189  26.614  22.646  0.0260  0.0076 -0.0024
 8884W        W51801  22.598  23.790  22.169 -0.0841  0.1735 -0.1551
 8885W        W51802  20.062  26.488  19.245 -0.1990 -0.0123  0.1404
 8886W        W51803  24.628  24.080  22.560  0.0369 -0.3114 -0.0613
 8887W        W51804  27.004  25.765  22.272  0.2175  0.0123 -0.1443
 8888W        W51805  24.886  24.732  22.142  0.0314 -0.1873  0.1084
 8889W        W51806  22.894  25.493  23.072  0.1905 -0.0291  0.1508
 8890W        W51807  22.670  25.455  22.507  0.0123 -0.0394 -0.0447
 8891W        W51808  23.588  27.502  25.174  0.0302  0.1669  0.2949
 8892W        W51809  22.952  25.089  24.847 -0.0118 -0.2516 -0.1661
 8893W        W51810  22.688  25.441  21.404 -0.0053 -0.0974 -0.4047
 8894W        W51811  23.119  23.148  21.732  0.2826 -0.1570 -0.0115
 8895W        W51812  23.770  23.903  21.639 -0.0557  0.3709 -0.3381
 8896W        W51813  25.097  23.866  23.403  0.1480  0.2302 -0.2462
 8897W        W51814  24.373  25.640  24.033  0.0635 -0.2791  0.1073
 8898W        W51815  20.730  25.518  18.464  0.4203  0.1859 -0.0396
 8899W        W51816  26.203  23.904  25.312  0.0998 -0.1204 -0.2820
 8900W        W51817  19.845  27.137  21.282 -0.1742 -0.0480  0.2118
 8901W        W51818  24.596  22.878  20.828 -0.3150  0.1426  0.2198
 8902W        W51819  21.704  23.421  21.357  0.1718 -0.0825  0.2702
 8903W        W51820  23.709  22.053  21.244  0.0493  0.0299 -0.0423
 8904W        W51821  22.851  22.203  22.824  0.3769  0.3414 -0.0295
 8905W        W51822  24.195  23.796  21.962 -0.1132 -0.0889  0.1044
 8906W        W51823  24.219  22.397  21.589 -0.3177  0.0806 -0.1867
 8907W        W51824  23.834  25.186  22.088  0.0164 -0.1340  0.0303
 8908W        W51825  24.179  22.927  20.257  0.1831  0.1315  0.1198
 8909W        W51826  24.453  24.158  23.058  0.1448 -0.0369  0.1421
 8910W        W51827  23.267  24.146  21.734 -0.2166 -0.2999 -0.0870
 8911W        W51828  24.010  22.102  20.708 -0.0976  0.2805  0.2749
 8912W        W51829  26.241  24.612  20.948 -0.0894  0.3395 -0.3010
 8913W        W51830  24.132  23.914  22.451  0.1626 -0.2271  0.1577
 8914W        W51831  23.342  24.498  22.225  0.0416 -0.0289  0.0639
 8915W        W51832  20.934  23.129  22.105 -0.1292 -0.1130 -0.0572
 8916W        W51833  20.983  25.581  24.377  0.2234 -0.1107  0.0564
 8917W        W51834  21.196  24.624  23.118 -0.1128 -0.0467 -0.0769
 8918W        W51835  22.265  22.143  20.146 -0.1628  0.0801  0.1048
 8919W        W51836  26.246  25.699  24.053 -0.1900  0.2900 -0.2145
 8920W        W51837  24.133  25.527  24.835 -0.3346  0.1176 -0.0616
 8921W        W51838  24.077  22.921  21.655 -0.1056  0.1372 -0.1272
 8922W        W51839  22.981  24.058  24.859  0.0905 -0.4621 -0.1513
 8923W        W51840  25.352  24.763  24.381  0.0039  0.1937 -0.0871
 8924W        W51841  24.427  22.009  20.429 -0.0244 -0.0561 -0.1846
 8925W        W51842  25.191  22.682  22.506  0.0965  0.0250  0.1024
 8926W        W51843  23.266  22.721  25.507 -0.0166 -0.0103 -0.0292
 8927W        W51844  23.140  23.618  20.876 -0.0832  0.0386  0.1474
 8928W        W51845  23.642  23.829  19.735 -0.2693  0.0843 -0.1550
 8929W        W51846  24.119  25.077  24.531 -0.0338 -0.4741 -0.2008
 8930W        W51847  24.571  23.205  21.491  0.0484 -0.1245 -0.0936
 8931W        W51848  22.992  25.079  22.731  0.0786  0.1678 -0.0915
 8932W        W51849  22.018  25.369  25.845 -0.0864  0.0489 -0.0091
 8933W        W51850  24.303  27.265  24.910 -0.0866  0.1543  0.1582
 8934W        W51851  21.801  26.086  19.451  0.2492 -0.3261 -0.0129
 8935W        W51852  21.100  25.193  23.137  0.0270  0.1614 -0.0186
 8936W        W51853  21.523  24.672  21.099 -0.4471 -0.0207 -0.1609
 8937W        W51854  22.376  23.633  20.504  0.1562 -0.3805 -0.3728
 8938W        W51855  23.287  25.028  21.892  0.0771  0.0107  0.0627
 8939W        W51856  26.940  24.210  22.150 -0.0797 -0.0214 -0.0222
 8940W        W51857  21.347  24.168  23.698 -0.0698  0.3286  0.2379
 8941W        W51858  24.358  22.454  22.137 -0.0986 -0.1639  0.2760
 8942W        W51859  21.612  23.629  22.164 -0.1453  0.2768  0.1001
 8943W        W51860  25.199  23.414  21.678 -0.3181 -0.0299 -0.2935
 8944W        W51861  23.028  22.565  21.870 -0.0355  0.0515 -0.0098
 8945W        W51862  23.083  25.646  21.619 -0.0108  0.0304 -0.3720
 8946W        W51863  21.904  23.212  22.340  0.0968 -0.1057  0.0997
 8947W        W51864  23.751  24.799  23.192  0.3102  0.1615 -0.0226
 8948W        W51865  21.020  22.043  22.530  0.1608 -0.1987  0.1070
 8949W        W51866  23.669  22.254  23.133  0.2305  0.1533  0.0931
 8950W        W51867  25.215  23.962  22.590  0.0389  0.5498  0.0041
 8951W        W51868  23.247  21.143  18.800 -0.0606 -0.0437 -0.1894
 8952W        W51869  25.302  23.585  22.994  0.2313 -0.0029  0.2964
 8953W        W51870  21.762  23.729  22.917  0.0430 -0.3170 -0.0784
 8954W        W51871  22.132  23.667  22.250  0.0223  0.2027 -0.2434
 8955W        W51872  23.090  23.529  23.774 -0.3446  0.0764 -0.3595
 8956W        W51873  22.388  25.306  20.662  0.3249 -0.1599  0.0320
 8957W        W51874  26.122  25.717  22.063  0.1301  0.0670  0.0314
 8958W        W51875  23.717  26.462  22.475  0.0240  0.0470 -0.0434
 8959W        W51876  22.472  25.253  24.867 -0.1854  0.1942 -0.2295
 8960W        W51877  23.187  23.616  19.139  0.0531  0.0463 -0.1885
 8961W        W51878  22.042  24.030  22.694  0.0629  0.0544 -0.1016
 8962W        W51879  24.058  24.975  22.506 -0.4103 -0.2937  0.1276
 8963W        W51880  22.335  23.116  20.402  0.2503 -0.5006 -0.1951
 8964W        W51881  23.686  24.323  24.033 -0.0379  0.0489  0.3303
 8965W        W51882  23.835  22.645  22.629 -0.2059 -0.3790 -0.0527
 8966W        W51883  22.722  24.893  25.401 -0.1219 -0.1859  0.2491
 8967W        W51884  24.466  23.362  24.031  0.1725 -0.1034 -0.0297
 8968W        W51885  25.864  24.502  23.697 -0.3668 -0.2869 -0.1051
 8969W        W51886  24.841  22.158  23.626  0.0318  0.2918 -0.1152
 8970W        W51887  23.302  22.592  20.659  0.3431  0.3391  0.0851
 8971W        W51888  23.062  26.237  23.896 -0.1077  0.1361 -0.0875
 8972W        W51889  21.772  24.936  21.568 -0.1812  0.0735  0.1023
 8973W        W51890  23.218  24.564  20.224  0.0450 -0.0636  0.1235
 8974W        W51891  22.065  23.730  20.915 -0.0001  0.4105 -0.1242
 8975W        W51892  25.205  23.201  25.223  0.4900  0.1226  0.0464
 8976W        W51893  22.285  26.307  25.171 -0.3095  0.1948  0.0203
 8977W        W51894  22.311  23.251  23.847 -0.4038  0.0974  0.2541
 8978W        W51895  24.657  22.267  22.541  0.0235 -0.1508  0.4011
 8979W        W51896  22.922  24.758  24.010 -0.1352  0.2907  0.0207
 8980W        W51897  25.463  21.017  21.560  0.0153 -0.2433 -0.2214
 8981W        W51898  22.677  21.550  22.403  0.3098 -0.1330 -0.1362
 8982W        W51899  24.689  24.559  23.861 -0.4814 -0.3162  0.3167
 8983W        W51900  22.947  24.044  20.954 -0.3430 -0.3282 -0.0281
 8984W        W51901  24.957  22.504  18.798 -0.0267  0.0077 -0.1983
 8985W        W51902  25.922  23.023  19.516  0.1301  0.2068 -0.0857
 8986W        W51903  22.754  25.550  23.739  0.3697  0.0302 -0.3044
 8987W        W51904  23.790  27.374  22.111 -0.0842 -0.0119  0.3953
 8988W        W51905  25.165  24.371  21.397  0.4970 -0.0568  0.3179
 8989W        W51906  23.421  23.337  19.616 -0.0666  0.0592  0.0988
 8990W        W51907  25.010  27.133  21.517 -0.3016  0.1259 -0.0798
 8991W        W51908  22.314  24.588  23.362  0.3983  0.0557 -0.2633
 8992W        W51909  24.632  24.988  24.161  0.2083 -0.1595 -0.0820
 8993W        W51910  21.267  25.482  21.459  0.1836 -0.2370  0.1449
 8994W        W51911  21.519  21.618  23.029 -0.2613 -0.1876 -0.1728
 8995W        W51912  23.158  25.374  20.446  0.0707  0.1962 -0.1887
 8996W        W51913  24.881  22.341  20.169 -0.0707  0.1032 -0.0711
 8997W        W51914  22.007  24.540  21.692 -0.0777 -0.0919  0.0192
 8998W        W51915  24.087  24.236  24.325 -0.3463 -0.3430  0.2258
 8999W        W51916  24.569  23.623  23.453  0.3717  0.1195 -0.0554
 9000W        W51917  22.845  21.999  22.032  0.0106  0.1119  0.0817
 9001W        W51918  26.322  22.474  24.025 -0.2199 -0.1874 -0.2076
 9002W        W51919  26.652  20.552  19.449  0.0227 -0.2143  0.1318
 9003W        W51920  24.608  23.201  24.497 -0.1106  0.0820  0.0886
 9004W        W51921  22.628  23.005  21.879  0.0630 -0.2715  0.0733
 9005W        W51922  22.780  23.691  23.035  0.0322 -0.1385 -0.1014
 9006W        W51923  22.986  23.549  25.124 -0.1216  0.3384 -0.0064
 9007W        W51924  23.406  25.766  24.461 -0.0721 -0.0805 -0.1216
 9008W        W51925  23.114  24.542  24.411 -0.2271  0.1477 -0.0702
 9009W        W51926  24.676  25.242  21.274 -0.3544 -0.0026 -0.1108
 9010W        W51927  22.400  22.799  23.454  0.0076 -0.1518 -0.2481
 9011W        W51928  23.057  22.346  19.901  0.0115  0.4019  0.0929
 9012W        W51929  23.071  24.536  19.646  0.5154  0.0310 -0.0143
 9013W        W51930  22.364  25.746  19.970  0.1616 -0.1517 -0.0205
 9014W        W51931  20.626  23.961  22.738 -0.4089  0.1810  0.1186
 9015W        W51932  22.650  23.987  23.993 -0.1853  0.2932  0.0089
 9016W        W51933  22.092  24.787  19.598  0.4126 -0.0498  0.0826
 9017W        W51934  22.645  24.675  24.823  0.2394 -0.0868  0.1652
 9018W        W51935  22.978  23.487  22.184  0.2130 -0.2270  0.2266
 9019W        W51936  23.676  22.004  22.388 -0.1497  0.2667 -0.2211
 9020W        W51937  21.955  24.439  23.703 -0.1873 -0.1726  0.0810
 9021W        W51938  20.695  24.654  17.797 -0.1297  0.2480 -0.0801
 9022W        W51939  19.387  25.325  18.862 -0.1107  0.4039  0.0390
 9023W        W51940  26.203  19.896  21.372 -0.0521  0.1354  0.3343
 9024W        W51941  23.939  24.619  21.366  0.1457  0.0198 -0.2097
 9025W        W51942  20.027  23.040  21.937  0.1099  0.0076  0.0268
 9026W        W51943  23.430  22.393  25.197  0.0269  0.1351 -0.1343
 9027W        W51944  23.102  25.741  24.050 -0.2180  0.0001 -0.1513
 9028W        W51945  23.962  24.067  22.944  0.0965 -0.3706 -0.0710
 9029W        W51946  24.736  24.090  21.446  0.4116  0.4696  0.5059
 9030W        W51947  25.747  25.380  23.232  0.0016 -0.1679  0.3414
 9031W        W51948  22.796  23.854  25.439  0.4095 -0.0859 -0.4327
 9032W        W51949  23.036  24.653  21.788  0.1106  0.3884 -0.0613
 9033W        W51950  23.201  24.440  25.730  0.1643 -0.0038 -0.1513
 9034W        W51951  23.287  22.764  21.436 -0.0102 -0.0833 -0.2172
 9035W        W51952  20.845  24.108  22.251 -0.0198  0.0968 -0.2685
 9036W        W51953  24.042  25.218  24.010  0.2026  0.0065  0.4239
 9037W        W51954  22.710  24.150  21.783 -0.2610  0.0910 -0.0149
 9038W        W51955  22.534  26.219  23.046  0.0533 -0.0916 -0.0113
 9039W        W51956  23.214  24.872  25.502 -0.2895 -0.3324 -0.0644
 9040W        W51957  25.324  25.370  23.656  0.0191 -0.2501  0.2156
 9041W        W51958  23.535  23.696  21.277 -0.1801 -0.0080  0.0846
 9042W        W51959  22.972  22.444  22.373  0.1598  0.0779  0.2160
 9043W        W51960  26.023  24.497  21.332 -0.2209 -0.0463 -0.1650
 9044W        W51961  24.407  23.136  22.018 -0.3647  0.0591  0.0139
 9045W        W51962  23.444  23.876  23.910  0.0271  0.0235  0.2435
 9046W        W51963  23.595  25.482  24.052 -0.1074  0.0324  0.4871
 9047W        W51964  23.933  24.488  24.702 -0.0532  0.1660 -0.0945
 9048W        W51965  23.155  26.682  22.624 -0.2563  0.0172  0.0333
 9049W        W51966  22.824  23.033  25.301  0.0270  0.1581 -0.1982
 9050W        W51967  21.902  21.896  22.779 -0.0133  0.1083  0.1757
 9051W        W51968  20.012  22.975  23.659 -0.1213 -0.3743 -0.0242
 9052W        W51969  23.638  24.603  22.674 -0.2883  0.4420 -0.2925
 9053W        W51970  24.888  23.745  23.861  0.1430 -0.1023 -0.1198
 9054W        W51971  22.065  23.347  22.777 -0.2230  0.0007  0.0540
 9055W        W51972  21.093  25.961  20.807 -0.1114  0.3046  0.1772
 9056W        W51973  21.928  24.112  23.247  0.3626 -0.1070  0.1289
 9057W        W51974  26.150  22.897  20.281  0.3142  0.2437 -0.1749
 9058W        W51975  23.720  25.225  22.798 -0.1630 -0.2158 -0.0567
 9059W        W51976  22.308  22.237  22.801  0.2914 -0.1511 -0.1087
 9060W        W51977  26.218  24.847  24.477  0.1839 -0.0092 -0.1060
 9061W        W51978  23.437  22.632  22.321  0.0540 -0.3241  0.1814
 9062W        W51979  23.098  21.597  23.454 -0.0962 -0.1102 -0.0539
 9063W        W51980  22.026  23.661  23.555 -0.0262 -0.2445 -0.0646
 9064W        W51981  23.158  24.591  20.951 -0.0871 -0.2543 -0.4035
 9065W        W51982  22.610  23.735  23.507  0.1147 -0.1183  0.0563
 9066W        W51983  22.958  27.129  25.034  0.0827 -0.2066  0.0585
 9067W        W51984  21.129  26.128  25.649 -0.0220  0.2383 -0.0790
 9068W        W51985  23.951  22.094  19.129 -0.0125 -0.1045  0.0001
 9069W        W51986  25.083  20.706  19.207  0.2564  0.0568 -0.1065
 9070W        W51987  24.905  21.882  22.774 -0.4133 -0.1850  0.0223
 9071W        W51988  24.812  24.551  21.707  0.0480  0.1245  0.0292
 9072W        W51989  22.689  24.577  23.044  0.0448 -0.0823 -0.1094
 9073W        W51990  25.662  23.434  22.633 -0.0468 -0.1059  0.0563
 9074W        W51991  22.902  24.804  22.283 -0.3304  0.1224  0.1654
 9075W        W51992  25.175  23.603  20.906 -0.1744 -0.1492  0.3155
 9076W        W51993  24.621  21.814  20.838  0.0429 -0.0594  0.0733
 9077W        W51994  22.663  24.646  21.011  0.1431 -0.1136  0.0115
 9078W        W51995  20.356  22.383  21.865  0.0027  0.2464 -0.1415
 9079W        W51996  25.503  22.024  21.891 -0.2277 -0.0830  0.0904
 9080W        W51997  24.745  21.682  19.596  0.0208 -0.1838  0.0586
 9081W        W51998  24.561  24.188  24.106  0.2832  0.1435 -0.3354
 9082W        W51999  24.152  23.464  23.645  0.1482  0.1829  0.0354
 9083W        W52000  22.627  24.988  24.427  0.3019  0.1375  0.2739
 9084W        W52001  21.639  22.877  22.669  0.1096 -0.4438 -0.2856
 9085W        W52002  24.668  26.420  22.183  0.1531  0.1329  0.3265
 9086W        W52003  24.640  23.637  21.777 -0.0718  0.2033 -0.0149
 9087W        W52004  24.016  22.093  23.547 -0.0770  0.3579 -0.0387
 9088W        W52005  26.230  22.605  22.173 -0.1221 -0.0898  0.1369
 9089W        W52006  24.133  22.260  22.550 -0.1681 -0.1939 -0.3153
 9090W        W52007  20.574  24.205  21.005  0.1626 -0.0287 -0.1348
 9091W        W52008  25.219  25.094  23.239 -0.0517  0.0564  0.1311
 9092W        W52009  23.961  22.161  19.611  0.0529  0.1395  0.0856
 9093W        W52010  23.376  22.565  24.760  0.1795 -0.0134  0.4863
 9094W        W52011  23.069  23.734  20.359  0.0599  0.0492  0.1338
 9095W        W52012  24.691  25.008  21.736  0.0392 -0.2326  0.2743
 9096W        W52013  23.251  22.945  20.974  0.1403 -0.2966  0.0521
 9097W        W52014  20.849  22.171  23.054 -0.0123 -0.0160  0.2645
 9098W        W52015  22.027  25.893  25.175  0.0605 -0.1537 -0.0359
 9099W        W52016  23.765  24.277  19.401  0.1295 -0.3477  0.0900
 9100W        W52017  22.205  24.859  20.146  0.1663  0.0435 -0.0650
 9101W        W52018  24.718  24.134  23.555  0.0533 -0.2138  0.1963
 9102W        W52019  27.165  22.922  23.638 -0.1431  0.1699 -0.2092
 9103W        W52020  25.397  22.895  19.580  0.0991  0.4124  0.1653
 9104W        W52021  26.071  23.655  24.828 -0.0156 -0.0979 -0.2693
 9105W        W52022  20.495  22.563  21.361 -0.0594 -0.1132  0.2406
 9106W        W52023  24.175  21.994  22.083  0.0584 -0.0737 -0.0893
 9107W        W52024  21.976  25.121  22.145  0.3375  0.2993  0.0289
 9108W        W52025  22.148  26.200  24.342  0.0517 -0.3066  0.2170
 9109W        W52026  21.931  25.152  20.467  0.0229  0.3818  0.1488
 9110W        W52027  21.612  24.636  22.782 -0.5576 -0.0197 -0.2299
 9111W        W52028  26.261  24.809  21.794 -0.2504  0.0078 -0.1598
 9112W        W52029  23.756  23.650  22.633 -0.1543 -0.0133  0.0239
 9113W        W52030  27.871  21.833  26.643  0.0883 -0.2134  0.0804
 9114W        W52031  24.072  24.443  23.364  0.2347  0.1181 -0.0551
 9115W        W52032  25.598  23.268  20.905  0.1376 -0.0991 -0.0672
 9116W        W52033  23.741  23.215  24.887  0.1067 -0.1571 -0.1124
 9117W        W52034  23.794  22.879  21.246  0.4542  0.0417 -0.1295
 9118W        W52035  22.261  23.790  23.075 -0.1798 -0.1010  0.1123
 9119W        W52036  21.753  22.441  22.908 -0.4049 -0.0718  0.1114
 9120W        W52037  23.594  24.962  26.441  0.2210  0.1594 -0.1459
 9121W        W52038  23.091  22.934  22.166 -0.0429  0.0986 -0.1750
 9122W        W52039  23.444  22.055  20.830 -0.1338 -0.1171  0.1516
 9123W        W52040  26.189  24.101  21.014  0.0766  0.1241  0.1288
 9124W        W52041  23.150  26.301  25.377  0.1239 -0.1308 -0.1934
 9125W        W52042  21.456  24.203  23.022 -0.5984 -0.1355  0.2062
 9126W        W52043  26.958  24.740  22.025  0.0044 -0.0522  0.1593
 9127W        W52044  24.187  24.276  19.219 -0.0352  0.1848 -0.1346
 9128W        W52045  24.449  25.560  23.052 -0.3605 -0.0464 -0.2432
 9129W        W52046  23.526  25.468  21.829  0.1326  0.2658  0.1565
 9130W        W52047  21.516  23.774  20.991 -0.1303 -0.1476  0.2624
 9131W        W52048  22.550  24.142  23.241 -0.0483  0.1269 -0.3163
 9132W        W52049  17.948  24.177  20.429 -0.1831  0.3624 -0.0999
 9133W        W52050  24.429  25.650  21.150 -0.0822 -0.1313  0.1218
 9134W        W52051  19.415  25.263  19.803 -0.2017 -0.2629 -0.0447
 9135W        W52052  23.277  25.344  25.419  0.1312  0.0974  0.0154
 9136W        W52053  24.373  23.106  19.841  0.0413  0.1680  0.1116
 9137W        W52054  24.978  21.552  23.739  0.0430 -0.0542  0.2641
 9138W        W52055  25.714  23.384  21.756 -0.0802  0.3215  0.1164
 9139W        W52056  24.949  24.042  24.532  0.0423  0.0865 -0.0167
 9140W        W52057  24.203  23.970  23.535  0.1601 -0.1267  0.2716
 9141W        W52058  23.589  22.477  19.769 -0.0497 -0.1038  0.2656
 9142W        W52059  22.604  25.988  24.202 -0.0523 -0.2082 -0.1118
 9143W        W52060  25.304  22.628  24.131 -0.0664 -0.0993  0.1162
 9144W        W52061  21.771  25.877  24.445 -0.0456  0.0850 -0.4227
 9145W        W52062  25.513  26.251  21.600  0.3738  0.2855 -0.3594
 9146W        W52063  21.806  23.170  19.597 -0.2443  0.0230  0.2789
 9147W        W52064  21.749  22.762  22.103  0.0338 -0.2367 -0.2052
 9148W        W52065  26.271  22.796  22.628 -0.2599  0.1401 -0.2159
 9149W        W52066  23.967  25.699  23.175 -0.0597  0.1471 -0.0789
 9150W        W52067  24.396  22.798  21.250 -0.0681  0.1592  0.0015
 9151W        W52068  23.012  25.241  22.218 -0.0399 -0.3366 -0.3461
 9152W        W52069  22.879  26.405  23.454 -0.0762 -0.4188  0.0867
 9153W        W52070  20.405  24.406  23.657 -0.0758 -0.0785 -0.4093
 9154W        W52071  21.935  24.701  20.772  0.0407 -0.2395 -0.1765
 9155W        W52072  24.164  24.395  23.847  0.0609  0.1688 -0.1461
 9156W        W52073  21.779  23.190  21.841  0.1255  0.1642 -0.0215
 9157W        W52074  23.108  23.361  23.252  0.1552  0.1023 -0.1099
 9158W        W52075  22.147  22.470  23.237 -0.2485  0.0090 -0.0028
 9159W        W52076  24.939  23.058  21.179 -0.0515  0.0189 -0.1185
 9160W        W52077  23.738  23.547  26.306 -0.3414  0.1053  0.0296
 9161W        W52078  20.896  24.116  24.950 -0.3161  0.0791 -0.0831
 9162W        W52079  24.797  22.018  22.092  0.0741  0.1958 -0.1276
 9163W        W52080  26.110  24.252  24.520  0.0123 -0.0406 -0.1465
 9164W        W52081  25.248  22.201  22.367 -0.0821 -0.1324 -0.1973
 9165W        W52082  24.413  27.123  23.945  0.0438  0.1759  0.0717
 9166W        W52083  23.303  23.611  21.802  0.3199 -0.0578 -0.0866
 9167W        W52084  24.428  20.774  19.577 -0.0603  0.2559  0.1007
 9168W        W52085  23.394  24.057  22.673  0.0936 -0.1072  0.1139
 9169W        W52086  23.333  24.077  24.383 -0.1681 -0.1448  0.3213
 9170W        W52087  25.958  25.104  25.812  0.0359  0.3271 -0.1367
 9171W        W52088  22.825  21.925  21.426  0.1356  0.0184 -0.3727
 9172W        W52089  25.773  25.491  21.204  0.0609 -0.1364  0.0579
 9173W        W52090  26.793  23.677  24.088  0.0587  0.0283  0.0842
 9174W        W52091  23.806  23.210  20.406 -0.1654 -0.1360  0.0669
 9175W        W52092  24.649  26.121  21.110  0.4383  0.0362  0.2853
 9176W        W52093  23.120  26.777  23.723 -0.1566  0.1836  0.2635
 9177W        W52094  23.134  24.551  22.640 -0.1270 -0.1614  0.0337
 9178W        W52095  24.424  24.469  22.166  0.1198  0.0469 -0.0123
 9179W        W52096  25.959  24.568  22.338  0.1354 -0.0601 -0.0212
 9180W        W52097  23.998  23.436  19.866 -0.1646  0.0107 -0.0498
 9181W        W52098  23.540  23.863  23.118  0.3225  0.0189  0.1528
 9182W        W52099  22.265  24.159  22.268  0.0015 -0.0596  0.0295
 9183W        W52100  24.618  24.085  21.945 -0.1425 -0.1285  0.0009
 9184W        W52101  23.846  22.749  24.863  0.1733  0.0548  0.1559
 9185W        W52102  21.781  24.389  20.323  0.0908  0.0191 -0.0763
 9186W        W52103  24.817  22.003  24.555  0.3083  0.1038  0.0238
 9187W        W52104  22.290  24.092  23.622 -0.1579  0.1975  0.1118
 9188W        W52105  22.918  25.893  24.676  0.1200  0.1211  0.1357
 9189W        W52106  20.801  25.656  19.372 -0.2005  0.0451 -0.0104
 9190W        W52107  25.442  22.836  22.991  0.1933  0.2481 -0.0166
 9191W        W52108  25.319  26.630  22.203  0.0743  0.0628  0.3660
 9192W        W52109  22.621  25.069  23.109  0.2074 -0.0855  0.2877
 9193W        W52110  22.595  24.703  21.576  0.0405  0.1728  0.2487
 9194W        W52111  24.163  23.659  20.919 -0.1638 -0.1665  0.3104
 9195W        W52112  25.065  25.045  22.527  0.1368 -0.3100 -0.0790
 9196W        W52113  21.965  22.898  23.029 -0.4215  0.2414  0.2021
 9197W        W52114  27.197  22.111  21.370 -0.0995 -0.1115 -0.0952
 9198W        W52115  24.504  23.327  21.046  0.0315  0.2211  0.1292
 9199W        W52116  22.441  24.633  23.934 -0.2714  0.2702  0.0857
 9200W        W52117  22.248  24.492  21.252  0.2597  0.3201 -0.1180
 9201W        W52118  20.481  25.748  20.797  0.0221  0.1849 -0.2070
 9202W        W52119  23.063  24.008  23.473 -0.3452  0.0782 -0.2815
 9203W        W52120  21.328  24.029  24.239 -0.0874 -0.2679 -0.0207
 9204W        W52121  20.320  22.657  23.263  0.2483  0.2124 -0.2840
 9205W        W52122  20.465  23.199  22.075  0.1602 -0.3869  0.0146
 9206W        W52123  23.986  20.310  21.693  0.0612  0.2238 -0.0952
 9207W        W52124  23.696  26.766  19.976 -0.0111  0.0361  0.1444
 9208W        W52125  22.992  22.708  22.849 -0.0323  0.0970 -0.0120
 9209W        W52126  22.993  24.193  22.987 -0.1726 -0.1862  0.2281
 9210W        W52127  24.470  23.159  22.489  0.0531 -0.0794 -0.0092
 9211W        W52128  25.979  26.779  23.226  0.1806 -0.0494 -0.2361
 9212W        W52129  23.581  23.278  21.498  0.1594 -0.1929  0.0117
 9213W        W52130  24.779  23.557  24.886 -0.1118 -0.0745 -0.0738
 9214W        W52131  19.757  26.865  19.299  0.1186  0.3097  0.2447
 9215W        W52132  23.359  23.790  24.863 -0.1331  0.0588  0.3504
 9216W        W52133  21.087  22.861  22.548  0.2063  0.0065  0.0740
 9217W        W52134  21.190  25.158  20.094 -0.0232 -0.2730 -0.2042
 9218W        W52135  22.970  23.051  24.044 -0.2094  0.2423 -0.0626
 9219W        W52136  24.247  24.749  23.009  0.2967  0.2995 -0.1111
 9220W        W52137  23.228  23.495  22.781  0.1855 -0.0799  0.2833
 9221W        W52138  23.751  25.278  23.534  0.0730 -0.2281 -0.1485
 9222W        W52139  24.337  24.887  23.715  0.0965 -0.0114  0.0597
 9223W        W52140  21.075  21.223  22.437  0.1774  0.1190 -0.0564
 9224W        W52141  26.459  24.777  19.189  0.0946  0.1659  0.0673
 9225W        W52142  23.442  24.924  24.056 -0.1972  0.2840  0.1364
 9226W        W52143  24.967  20.783  22.025  0.0740 -0.0559  0.0555
 9227W        W52144  24.769  22.763  22.269  0.2337 -0.2139 -0.0574
 9228W        W52145  25.070  22.951  21.712 -0.0213 -0.0191  0.2456
 9229W        W52146  20.293  23.461  23.830 -0.2286 -0.3402  0.2784
 9230W        W52147  22.330  24.911  25.853 -0.0742 -0.0558  0.0211
 9231W        W52148  23.802  26.135  23.239  0.3696  0.0455  0.2975
 9232W        W52149  22.462  21.285  22.746 -0.1134 -0.3354  0.2422
 9233W        W52150  25.369  21.968  20.834 -0.1301 -0.1260  0.1884
 9234W        W52151  24.611  24.629  22.641  0.1823  0.0580  0.2880
 9235W        W52152  21.409  23.877  21.634 -0.1582  0.0130  0.1695
 9236W        W52153  22.429  22.274  20.599  0.2349  0.1690  0.2949
 9237W        W52154  23.839  24.755  23.722 -0.0500 -0.2137  0.4150
 9238W        W52155  25.192  24.926  21.560  0.3218 -0.1386 -0.0468
 9239W        W52156  25.079  24.494  23.579  0.4516 -0.1508 -0.4541
 9240W        W52157  24.618  22.726  21.749  0.0499 -0.1886  0.1219
 9241W        W52158  27.608  22.668  21.435 -0.0999 -0.2451 -0.3340
 9242W        W52159  22.781  26.219  25.028 -0.0876 -0.2356  0.0069
 9243W        W52160  24.573  24.849  25.283  0.1186 -0.1518  0.0041
 9244W        W52161  23.779  23.703  22.101 -0.2527 -0.1018 -0.1315
 9245W        W52162  25.771  24.547  20.701 -0.2955 -0.2925 -0.0687
 9246W        W52163  21.978  21.563  23.332 -0.1814 -0.0988  0.2567
 9247W        W52164  22.592  23.647  20.971 -0.1833 -0.0686  0.1707
 9248W        W52165  23.756  24.183  22.265 -0.1352  0.2509  0.0909
 9249W        W52166  25.497  21.910  21.417 -0.0488  0.0395  0.2538
 9250W        W52167  19.912  22.274  23.202 -0.1537 -0.1236  0.0209
 9251W        W52168  24.929  21.289  22.014  0.2634 -0.2187 -0.0957
 9252W        W52169  24.087  25.229  23.121  0.0996  0.1030  0.1235
 9253W        W52170  25.609  26.223  22.085 -0.1072  0.0365  0.1614
 9254W        W52171  23.129  23.839  27.805  0.2576  0.0158 -0.0588
 9255W        W52172  21.422  23.377  23.807  0.1950  0.0635  0.0778
 9256W        W52173  26.192  23.588  25.723 -0.0862  0.1467 -0.1681
 9257W        W52174  22.576  23.996  25.920 -0.1423 -0.0586 -0.2728
 9258W        W52175  21.782  23.166  25.627  0.1064  0.0859  0.3441
 9259W        W52176  24.010  25.109  26.772 -0.0695  0.0111  0.0731
 9260W        W52177  22.904  17.760  26.120  0.1159 -0.2676 -0.0445
 9261W        W52178  20.876  23.085  25.810  0.0878 -0.2699 -0.0616
 9262W        W52179  25.564  25.451  26.549  0.0345  0.0268 -0.0653
 9263W        W52180  24.518  23.741  24.456  0.1276  0.1252 -0.2016
 9264W        W52181  21.542  21.571  27.139  0.1449 -0.3506 -0.0048
 9265W        W52182  21.101  24.035  27.598 -0.0641  0.1838  0.3295
 9266W        W52183  21.851  21.215  21.954 -0.0993 -0.0682 -0.1135
 9267W        W52184  21.172  20.655  26.302  0.2475 -0.0005 -0.1948
 9268W        W52185  22.900  22.240  26.323  0.0204  0.1745  0.1258
 9269W        W52186  21.308  22.860  25.611 -0.0242  0.1945 -0.3885
 9270W        W52187  23.295  24.860  26.813 -0.0264  0.4089  0.0332
 9271W        W52188  21.225  21.966  23.832  0.1716 -0.0722 -0.0125
 9272W        W52189  23.222  25.479  24.925 -0.1464 -0.0601 -0.2981
 9273W        W52190  22.494  21.795  26.352 -0.1136  0.2181  0.0592
 9274W        W52191  24.588  21.557  27.704 -0.1358 -0.2026 -0.1724
 9275W        W52192  24.893  24.778  26.196 -0.3977 -0.0507 -0.0217
 9276W        W52193  23.162  26.201  24.367  0.0052 -0.0738  0.1523
 9277W        W52194  23.686  23.046  26.353 -0.3882  0.0445  0.0682
 9278W        W52195  23.047  24.400  27.189  0.1217  0.0140 -0.2462
 9279W        W52196  22.473  21.952  26.839 -0.0662 -0.2390  0.1973
 9280W        W52197  22.446  24.801  26.314 -0.0237  0.0600  0.3395
 9281W        W52198  24.324  25.469  26.544  0.2035 -0.1647 -0.0185
 9282W        W52199  21.859  24.938  26.649 -0.0731  0.1531 -0.0549
 9283W        W52200  23.295  21.836  26.699 -0.0105 -0.1497 -0.0059
 9284W        W52201  21.851  22.502  27.535 -0.0766 -0.1164  0.0622
 9285W        W52202  20.861  26.711  27.909 -0.0603 -0.1270  0.0239
 9286W        W52203  23.894  25.309  26.311  0.3080  0.0136 -0.0451
 9287W        W52204  24.859  25.726  25.820 -0.1498 -0.1243 -0.2738
 9288W        W52205  24.404  24.223  28.911  0.1778 -0.0382  0.0286
 9289W        W52206  23.686  25.056  27.674 -0.1255  0.1718 -0.2021
 9290W        W52207  21.895  24.271  25.299 -0.3908  0.0301  0.3384
 9291W        W52208  25.259  26.894  27.580  0.1420  0.0708  0.1791
 9292W        W52209  20.881  23.459  26.169 -0.0936 -0.0120  0.2050
 9293W        W52210  22.261  22.738  27.400 -0.1884 -0.3084 -0.0500
 9294W        W52211  24.040  23.799  27.806  0.0752 -0.2570  0.0309
 9295W        W52212  23.299  24.258  26.753  0.2769 -0.1477  0.0642
 9296W        W52213  21.798  22.534  27.028 -0.3740 -0.1351  0.0080
 9297W        W52214  21.009  22.160  26.957 -0.1419 -0.0518 -0.0784
 9298W        W52215  21.353  25.897  27.599  0.0917  0.0651 -0.2413
 9299W        W52216  25.874  22.015  26.545  0.1148  0.1343  0.0569
 9300W        W52217  23.634  24.547  25.203  0.1070 -0.1033 -0.0835
 9301W        W52218  23.445  23.459  25.252 -0.0893  0.4192  0.2422
 9302W        W52219  23.729  23.605  24.416  0.1846  0.1815  0.4750
 9303W        W52220  24.991  22.043  26.011  0.1017  0.4019 -0.0417
 9304W        W52221  22.929  21.225  23.894 -0.1079  0.2450 -0.0055
 9305W        W52222  24.160  27.060  26.922 -0.2408  0.0971 -0.0379
 9306W        W52223  21.680  20.579  25.778 -0.1777  0.4394 -0.0180
 9307W        W52224  24.732  25.474  27.316 -0.1296  0.1177  0.1421
 9308W        W52225  23.882  24.496  26.285 -0.2335 -0.0214  0.1433
 9309W        W52226  22.977  20.975  25.539 -0.1284  0.1178 -0.1807
 9310W        W52227  22.168  22.671  28.604  0.0236  0.1721 -0.2670
 9311W        W52228  21.857  24.480  26.399  0.0554  0.1894  0.1178
 9312W        W52229  24.502  26.745  25.002 -0.2059 -0.2220 -0.0407
 9313W        W52230  23.994  24.027  26.425  0.0179 -0.1103 -0.0958
 9314W        W52231  24.799  26.962  25.319  0.0622 -0.3116 -0.0211
 9315W        W52232  19.980  21.714  25.078  0.1189 -0.0935 -0.0211
 9316W        W52233  22.225  22.221  27.600  0.2044 -0.2517 -0.2428
 9317W        W52234  21.170  23.370  28.280  0.0711 -0.0153 -0.1937
 9318W        W52235  20.641  21.076  20.780 -0.3741  0.0570  0.2883
 9319W        W52236  24.905  25.769  27.686 -0.1446 -0.4124 -0.2518
 9320W        W52237  21.156  22.985  26.280  0.0748  0.3268 -0.2445
 9321W        W52238  22.863  22.378  24.535  0.1628 -0.1275 -0.0200
 9322W        W52239  22.265  23.606  28.015  0.1376  0.0859 -0.1537
 9323W        W52240  24.195  24.731  27.811  0.0734 -0.1544 -0.1195
 9324W        W52241  23.776  24.023  24.653  0.0027  0.1597  0.3163
 9325W        W52242  21.811  21.765  25.551 -0.1293  0.0572  0.1477
 9326W        W52243  22.484  21.763  25.321  0.2944  0.1094  0.2629
 9327W        W52244  20.492  24.308  26.355 -0.1815  0.2130  0.1977
 9328W        W52245  23.351  22.949  25.103 -0.0551  0.0572 -0.0684
 9329W        W52246  24.375  25.959  25.765  0.0721 -0.0410 -0.1597
 9330W        W52247  24.000  23.117  25.389  0.2815  0.1061 -0.0638
 9331W        W52248  20.172  24.567  27.030 -0.0802  0.0301  0.1118
 9332W        W52249  20.922  20.806  26.756  0.0845  0.1903  0.0507
 9333W        W52250  24.574  26.357  27.069  0.1853  0.3881  0.1192
 9334W        W52251  21.134  25.759  25.011 -0.3385 -0.0060  0.0338
 9335W        W52252  21.653  24.848  25.273 -0.2900 -0.0536  0.1423
 9336W        W52253  22.412  26.400  26.466 -0.2257  0.1949  0.0855
 9337W        W52254  21.186  21.519  25.820  0.2724  0.4973 -0.1203
 9338W        W52255  22.896  25.110  26.872  0.0035 -0.1829 -0.2803
 9339W        W52256  24.109  24.705  25.510  0.0687  0.3939 -0.2346
 9340W        W52257  20.848  20.314  26.547 -0.1926  0.2861 -0.1314
 9341W        W52258  25.498  20.326  25.158 -0.0074  0.1644 -0.1327
 9342W        W52259  20.051  24.669  26.260 -0.4509  0.1610 -0.2015
 9343W        W52260  25.536  25.643  25.849 -0.1783 -0.1582  0.2933
 9344W        W52261  25.808  24.126  25.054 -0.1581  0.1672 -0.2998
 9345W        W52262  23.573  26.484  22.941  0.1443 -0.1174 -0.0383
 9346W        W52263  21.207  22.980  28.698  0.2512  0.0363 -0.0392
 9347W        W52264  21.752  22.693  25.352 -0.2155  0.3374 -0.2863
 9348W        W52265  20.060  21.613  25.976 -0.0224  0.0708  0.0184
 9349W        W52266  20.805  22.898  24.863  0.1914  0.1188  0.2218
 9350W        W52267  23.429  24.839  25.948 -0.0461  0.2236 -0.1456
 9351W        W52268  20.319  21.126  23.736  0.1014  0.2360  0.1533
 9352W        W52269  23.912  23.274  26.753  0.0290 -0.2176 -0.0742
 9353W        W52270  22.514  22.451  25.226 -0.0872  0.4707  0.0438
 9354W        W52271  22.165  21.979  24.918  0.1402 -0.0405 -0.1647
 9355W        W52272  22.023  21.950  26.068 -0.0141  0.2195 -0.0510
 9356W        W52273  27.788  23.850  26.580  0.0932 -0.2815  0.3056
 9357W        W52274  23.355  27.243  29.043  0.1707 -0.1331  0.0388
 9358W        W52275  23.788  26.472  25.742 -0.0128 -0.2439  0.4219
 9359W        W52276  20.302  21.038  25.633  0.1738 -0.0606  0.1141
 9360W        W52277  22.072  22.983  26.127 -0.0209 -0.1247  0.1873
 9361W        W52278  23.300  26.939  26.813 -0.1212  0.2151 -0.1665
 9362W        W52279  22.724  24.060  27.430  0.0328  0.4472  0.2820
 9363W        W52280  22.588  23.318  24.881  0.0428  0.2446 -0.1356
 9364W        W52281  24.179  26.251  26.211 -0.4209  0.3040 -0.0302
 9365W        W52282  23.902  22.720  26.697 -0.3409  0.0951  0.0050
 9366W        W52283  21.895  23.012  27.206 -0.2159 -0.2531  0.2504
 9367W        W52284  23.855  22.436  27.099  0.1482 -0.0504 -0.2282
 9368W        W52285  25.673  26.495  25.910  0.0596  0.0401  0.2339
 9369W        W52286  23.133  23.515  25.610 -0.0097  0.0270 -0.3180
 9370W        W52287  23.644  23.345  23.043  0.3797 -0.0447 -0.0434
 9371W        W52288  24.517  27.723  25.010  0.0645  0.0528  0.0188
 9372W        W52289  22.271  24.621  25.243  0.3349  0.2137  0.1367
 9373W        W52290  20.524  23.756  24.746 -0.0284  0.0778 -0.0439
 9374W        W52291  23.446  25.033  25.068 -0.2125  0.0166  0.0200
 9375W        W52292  23.229  20.615  25.326  0.0452  0.1549  0.2951
 9376W        W52293  21.972  22.572  28.183 -0.0641 -0.1644  0.2807
 9377W        W52294  21.380  20.872  25.171  0.1327 -0.0081 -0.3912
 9378W        W52295  20.955  22.208  24.165  0.1231 -0.4627  0.2528
 9379W        W52296  20.030  22.795  27.935 -0.0518 -0.4306  0.2098
 9380W        W52297  21.196  22.583  22.948  0.0915  0.0511  0.0846
 9381W        W52298  24.300  23.008  24.925 -0.0294  0.0913  0.1062
 9382W        W52299  23.625  23.869  29.039  0.3968  0.0876  0.0531
 9383W        W52300  24.145  23.616  25.435 -0.0952  0.2547 -0.2720
 9384W        W52301  22.901  23.421  26.408 -0.0765 -0.3135  0.2544
 9385W        W52302  23.344  23.303  26.058 -0.2192 -0.0363  0.1949
 9386W        W52303  20.601  23.382  27.229  0.4866  0.0795 -0.0856
 9387W        W52304  21.650  23.144  26.433  0.2247  0.3035  0.0610
 9388W        W52305  23.787  24.804  28.153 -0.0088  0.1742  0.2172
 9389W        W52306  23.964  21.955  24.361 -0.0338 -0.3497 -0.1833
 9390W        W52307  26.772  25.517  24.583  0.0452  0.2009 -0.0870
 9391W        W52308  22.066  22.666  25.022  0.1221  0.4200 -0.0330
 9392W        W52309  22.017  23.786  27.597 -0.0415 -0.3045 -0.1768
 9393W        W52310  25.677  24.718  25.638  0.1384  0.0618  0.2607
 9394W        W52311  21.510  21.768  26.253 -0.3284  0.1127 -0.0330
 9395W        W52312  22.364  24.091  25.395 -0.0537 -0.0062  0.1389
 9396W        W52313  21.229  20.826  25.778  0.2668  0.2361  0.1963
 9397W        W52314  22.709  26.000  26.140 -0.0637 -0.0074  0.2467
 9398W        W52315  23.591  22.285  28.254 -0.0814 -0.0328 -0.2129
 9399W        W52316  21.572  21.454  26.639 -0.1676  0.2827 -0.1754
 9400W        W52317  22.908  20.406  25.570  0.2542  0.1889  0.0850
 9401W        W52318  24.549  23.772  27.973 -0.0585 -0.3410 -0.0274
 9402W        W52319  22.117  23.920  26.263  0.0149  0.0590  0.1151
 9403W        W52320  24.041  23.862  25.860 -0.2439 -0.1848 -0.1191
 9404W        W52321  23.218  24.159  25.291  0.1844  0.1789  0.0749
 9405W        W52322  22.623  23.918  26.440 -0.1650 -0.0302 -0.1960
 9406W        W52323  21.365  23.152  27.863  0.0391 -0.1617 -0.0700
 9407W        W52324  20.964  24.166  27.162 -0.1967  0.2566  0.3449
 9408W        W52325  25.123  24.523  27.199  0.2007 -0.1604 -0.1585
 9409W        W52326  23.312  24.563  26.383 -0.0668  0.0918 -0.0713
 9410W        W52327  20.998  21.799  27.311  0.1373 -0.0832 -0.4505
 9411W        W52328  23.878  22.196  24.951 -0.1195 -0.1361 -0.0741
 9412W        W52329  23.104  26.054  26.483 -0.2715  0.0606  0.3154
 9413W        W52330  21.535  23.699  25.650  0.1967 -0.1451  0.1084
 9414W        W52331  23.601  20.905  24.654 -0.0168  0.0557  0.1807
 9415W        W52332  23.519  24.407  27.232 -0.2146 -0.0908 -0.1959
 9416W        W52333  22.409  25.971  27.161 -0.2955  0.1569 -0.0855
 9417W        W52334  23.205  22.902  26.409 -0.1024  0.2798 -0.1430
 9418W        W52335  22.972  25.235  25.859  0.0466 -0.0806  0.0171
 9419W        W52336  25.264  22.354  26.781  0.1544 -0.0899  0.1668
 9420W        W52337  22.853  27.897  25.748 -0.0579  0.0316  0.2601
 9421W        W52338  22.936  22.479  25.052  0.0588 -0.1331  0.0803
 9422W        W52339  20.643  23.487  23.313 -0.0441 -0.1437 -0.2460
 9423W        W52340  23.607  22.296  25.666  0.0489 -0.1721 -0.4915
 9424W        W52341  23.111  21.133  25.113 -0.1876 -0.1241  0.0009
 9425W        W52342  21.266  21.112  26.901  0.4165  0.0130  0.2735
 9426W        W52343  22.748  22.106  25.530  0.2442  0.0765 -0.1058
 9427W        W52344  19.172  24.320  27.082  0.1340  0.0721 -0.2558
 9428W        W52345  24.853  21.497  27.172 -0.1260  0.0234 -0.0483
 9429W        W52346  22.803  22.580  25.640  0.0540 -0.0511  0.0500
 9430W        W52347  24.238  23.467  26.392 -0.4537 -0.1840 -0.2124
 9431W        W52348  22.089  21.909  29.075  0.0140 -0.1094  0.3721
 9432W        W52349  20.507  23.931  23.580 -0.1926  0.0680 -0.0910
 9433W        W52350  25.788  23.239  26.464 -0.0716  0.3249  0.0647
 9434W        W52351  22.309  23.430  26.356 -0.0704  0.2480  0.1503
 9435W        W52352  23.156  23.915  26.467 -0.1160  0.0602 -0.0363
 9436W        W52353  23.428  25.872  26.824  0.4825  0.0102 -0.1889
 9437W        W52354  21.216  25.133  24.488 -0.1742  0.0242 -0.0030
 9438W        W52355  21.880  23.914  24.906 -0.2572 -0.1751  0.2415
 9439W        W52356  22.037  22.246  26.639 -0.0163 -0.1305  0.0098
 9440W        W52357  25.588  25.193  27.642  0.0099  0.0786  0.2269
 9441W        W52358  23.029  22.100  23.664  0.1174 -0.2252 -0.1653
 9442W        W52359  21.216  23.178  24.848 -0.2925  0.2360 -0.0924
 9443W        W52360  25.517  22.527  25.196 -0.2530 -0.1441  0.0064
 9444W        W52361  24.524  25.222  26.920 -0.2658  0.0363  0.0886
 9445W        W52362  23.725  24.623  26.790 -0.1698 -0.1392  0.0660
 9446W        W52363  21.418  22.892  26.993 -0.1212  0.1729 -0.0097
 9447W        W52364  22.089  21.184  25.462  0.0031  0.2172 -0.1756
 9448W        W52365  25.489  26.212  22.727 -0.0691 -0.1260 -0.0626
 9449W        W52366  24.616  22.909  27.128 -0.5440  0.1777 -0.2153
 9450W        W52367  22.963  26.753  25.413 -0.0116 -0.4500  0.0480
 9451W        W52368  21.962  22.094  28.070 -0.0815  0.0618  0.1587
 9452W        W52369  23.397  22.800  25.989  0.5418 -0.0463 -0.1335
 9453W        W52370  22.725  24.147  26.893  0.1283  0.3452  0.2350
 9454W        W52371  23.058  23.167  26.899 -0.1659 -0.0550  0.3029
 9455W        W52372  22.742  24.396  25.462 -0.3115  0.1461 -0.2708
 9456W        W52373  20.931  24.397  26.600 -0.0057  0.2893  0.3908
 9457W        W52374  25.883  21.724  25.288 -0.3493  0.0134 -0.0289
 9458W        W52375  22.198  25.111  25.425  0.0912  0.0223 -0.1966
 9459W        W52376  24.410  22.515  25.384 -0.1405 -0.1519  0.1439
 9460W        W52377  24.827  20.995  26.646  0.0594 -0.2495 -0.1136
 9461W        W52378  24.100  24.204  25.450 -0.2885 -0.1873  0.2959
 9462W        W52379  23.185  21.486  28.452 -0.0296  0.0930 -0.0310
 9463W        W52380  22.042  21.191  26.624  0.0688  0.2240 -0.2344
 9464W        W52381  24.696  26.242  24.926  0.0663  0.1208 -0.1507
 9465W        W52382  20.117  23.550  27.417 -0.0326 -0.2092  0.1068
 9466W        W52383  21.838  23.656  28.527  0.1723 -0.2972 -0.0325
 9467W        W52384  23.454  22.844  26.877 -0.1312 -0.1281 -0.1028
 9468W        W52385  22.248  21.958  23.241  0.2678 -0.2771  0.1284
 9469W        W52386  20.010  21.638  22.375 -0.3429 -0.1638 -0.0055
 9470W        W52387  21.247  23.757  26.104 -0.0589 -0.0942  0.0886
 9471W        W52388  24.357  25.694  27.052  0.1629  0.0506  0.0580
 9472W        W52389  23.087  25.611  26.184 -0.0446 -0.1361 -0.1775
 9473W        W52390  24.534  21.495  26.764  0.0858  0.2884 -0.3283
 9474W        W52391  23.533  24.564  27.800  0.0982  0.1097  0.0508
 9475W        W52392  21.979  23.905  25.728  0.0618 -0.0203 -0.0478
 9476W        W52393  22.269  23.043  25.256 -0.1211  0.2469 -0.1257
 9477W        W52394  22.766  25.495  24.355  0.0346  0.1781  0.1723
 9478W        W52395  20.804  22.071  25.478  0.0470  0.1114  0.0862
 9479W        W52396  24.419  25.446  25.979 -0.1035  0.0471  0.0277
 9480W        W52397  23.650  21.807  25.535 -0.0078 -0.0747 -0.0627
 9481W        W52398  24.233  21.358  25.810 -0.0010 -0.3424  0.1929
 9482W        W52399  24.896  22.401  27.202  0.1287  0.0979  0.0695
 9483W        W52400  23.031  22.911  27.872  0.1347  0.1386  0.0221
 9484W        W52401  20.371  20.154  26.569  0.1460  0.3528 -0.1860
 9485W        W52402  25.243  24.525  26.619  0.0825 -0.2473  0.0027
 9486W        W52403  25.933  22.870  24.378  0.0237  0.3173 -0.1683
 9487W        W52404  24.003  22.937  27.129  0.3799 -0.0368  0.0791
 9488W        W52405  25.930  22.237  25.182  0.0025  0.2216 -0.3897
 9489W        W52406  25.113  24.575  25.345  0.1304  0.0357  0.1840
 9490W        W52407  20.672  23.315  25.103 -0.3099  0.0489 -0.1168
 9491W        W52408  23.946  23.422  27.325  0.0985  0.2634 -0.0367
 9492W        W52409  21.666  23.257  23.240 -0.1023 -0.3702 -0.1669
 9493W        W52410  24.363  24.421  27.388  0.0252 -0.0455 -0.2301
 9494W        W52411  22.711  26.501  24.051  0.3997  0.4575 -0.2114
 9495W        W52412  23.865  22.208  26.600  0.1094 -0.0192  0.1545
 9496W        W52413  22.481  23.766  24.976  0.1410  0.1789 -0.4100
 9497W        W52414  20.784  23.258  23.936  0.1816 -0.0818  0.0269
 9498W        W52415  20.813  23.849  29.189  0.1387  0.0956  0.0001
 9499W        W52416  20.349  24.537  24.710 -0.1407  0.0741  0.0417
 9500W        W52417  22.742  23.457  24.131  0.1540 -0.2985  0.1882
 9501W        W52418  22.581  25.426  26.145  0.1519 -0.0934  0.0439
 9502W        W52419  24.787  22.658  28.130  0.3359  0.0826  0.2762
 9503W        W52420  21.184  23.133  24.242  0.3516  0.0280 -0.0659
 9504W        W52421  23.014  23.682  26.905 -0.1940  0.1126  0.5410
 9505W        W52422  20.896  24.518  25.796  0.2447  0.0507 -0.0608
 9506W        W52423  21.782  21.137  25.088  0.3432 -0.1133  0.4884
 9507W        W52424  23.569  25.742  26.322 -0.1382  0.2265  0.2179
 9508W        W52425  21.932  22.977  27.760 -0.2073 -0.2183 -0.0156
 9509W        W52426  20.889  24.720  24.555  0.2790  0.2521 -0.5071
 9510W        W52427  20.725  21.680  26.407 -0.1523  0.2196  0.3915
 9511W        W52428  26.068  23.052  25.652  0.0928  0.2443 -0.1135
 9512W        W52429  22.804  23.033  27.452  0.0377  0.0404 -0.0552
 9513W        W52430  23.541  23.471  27.016  0.0381 -0.1890  0.1489
 9514W        W52431  21.063  22.839  28.154  0.1105  0.0206  0.1259
 9515W        W52432  22.808  24.743  25.881 -0.1821  0.0656  0.1460
 9516W        W52433  24.029  22.490  28.208  0.1937 -0.1617 -0.0298
 9517W        W52434  23.950  25.540  25.761  0.0879 -0.0643  0.0207
 9518W        W52435  21.642  24.195  25.943 -0.0151  0.0395 -0.3742
 9519W        W52436  21.476  22.292  27.763  0.3180  0.0846 -0.1149
 9520W        W52437  23.399  22.409  26.640 -0.0448  0.2008  0.2815
 9521W        W52438  26.656  23.869  25.648 -0.1634 -0.2878 -0.3464
 9522W        W52439  21.339  21.354  25.319 -0.0893 -0.1422 -0.1626
 9523W        W52440  21.312  23.568  24.451  0.1673  0.2570  0.4084
 9524W        W52441  21.084  24.244  29.396  0.2611 -0.0707  0.1717
 9525W        W52442  23.043  22.650  27.236 -0.1057  0.1480 -0.0302
 9526W        W52443  22.160  25.548  27.460  0.0680  0.0827  0.0323
 9527W        W52444  24.911  24.510  24.372  0.2151 -0.2485 -0.2315
 9528W        W52445  24.410  24.148  24.682  0.0675  0.2075  0.0273
 9529W        W52446  24.624  26.457  26.394 -0.1393 -0.0755 -0.2226
 9530W        W52447  21.853  25.470  25.315  0.1842  0.1540 -0.0090
 9531W        W52448  22.523  25.797  25.233 -0.4307  0.2617  0.1006
 9532W        W52449  23.723  26.502  24.842 -0.1843  0.0221  0.0287
 9533W        W52450  24.673  24.596  23.291 -0.2358  0.3411 -0.1462
 9534W        W52451  21.412  23.846  25.205 -0.2944  0.4069 -0.1233
 9535W        W52452  23.684  24.238  29.458  0.0907 -0.1590 -0.1927
 9536W        W52453  23.447  21.600  24.335 -0.3174 -0.2341 -0.1326
 9537W        W52454  22.649  22.920  26.973  0.0140 -0.1009 -0.0514
 9538W        W52455  23.740  22.697  25.399 -0.1835  0.3517  0.0502
 9539W        W52456  25.096  24.002  26.781  0.0792 -0.1665 -0.2827
 9540W        W52457  21.008  23.652  24.912 -0.0060 -0.3503 -0.1437
 9541W        W52458  22.034  24.925  24.928 -0.2929 -0.3429 -0.0154
 9542W        W52459  22.219  23.867  26.767 -0.0583  0.0437  0.2001
 9543W        W52460  25.725  21.164  26.013  0.2894  0.1429  0.0674
 9544W        W52461  21.730  23.561  26.101 -0.2115 -0.0653  0.0993
 9545W        W52462  24.561  25.370  24.449  0.0241 -0.3255  0.0899
 9546W        W52463  21.775  23.120  25.061  0.0429  0.4719 -0.2978
 9547W        W52464  23.572  23.740  25.662 -0.4151 -0.0170  0.4780
 9548W        W52465  24.132  20.212  27.083 -0.0770 -0.0656  0.1769
 9549W        W52466  22.155  24.262  24.092 -0.2546  0.4490 -0.1378
 9550W        W52467  22.998  25.005  26.351 -0.0870  0.0137 -0.0549
 9551W        W52468  23.693  25.004  25.526 -0.1113  0.3149 -0.1778
 9552W        W52469  21.684  23.382  27.518  0.0850  0.1462 -0.0296
 9553W        W52470  21.427  25.242  26.152 -0.0785  0.0152 -0.2230
 9554W        W52471  20.529  21.973  27.418 -0.0836  0.4447  0.3358
 9555W        W52472  24.653  22.791  26.183 -0.3065 -0.1250  0.1440
 9556W        W52473  21.239  21.185  27.513 -0.3148 -0.0254  0.0564
 9557W        W52474  21.669  20.630  24.777  0.1056  0.0124  0.2711
 9558W        W52475  22.295  23.392  24.406 -0.2706  0.3288  0.1316
 9559W        W52476  24.872  23.600  25.814 -0.0543  0.1329  0.3859
 9560W        W52477  22.708  23.450  27.821  0.0849  0.2048 -0.1195
 9561W        W52478  23.207  22.369  25.934  0.2717 -0.1002 -0.4422
 9562W        W52479  23.993  24.970  24.991  0.0014 -0.1006 -0.1917
 9563W        W52480  26.049  25.422  26.658 -0.0383  0.0049 -0.0625
 9564W        W52481  23.083  23.878  25.931 -0.0696  0.1413 -0.1387
 9565W        W52482  23.189  24.574  28.180 -0.0581 -0.0636 -0.2597
 9566W        W52483  21.368  23.965  22.578  0.0725  0.0790  0.0057
 9567W        W52484  22.587  23.050  26.479 -0.1739  0.0189 -0.2616
 9568W        W52485  21.658  22.215  26.299  0.0418  0.1175  0.0614
 9569W        W52486  22.521  23.070  25.825  0.2523  0.2050  0.1430
 9570W        W52487  23.853  24.295  28.832  0.0533  0.2200  0.0094
 9571W        W52488  23.676  24.117  23.550 -0.1678 -0.0809  0.0135
 9572W        W52489  25.853  25.120  24.880  0.1212 -0.1319 -0.3468
 9573W        W52490  23.402  23.315  26.584  0.0928 -0.1379 -0.0133
 9574W        W52491  25.144  24.471  24.807  0.5744  0.0381 -0.0204
 9575W        W52492  22.864  25.928  26.973 -0.4643  0.0909  0.0346
 9576W        W52493  25.253  25.051  26.407 -0.0478 -0.0761  0.4152
 9577W        W52494  22.656  21.214  24.765  0.4538 -0.0508 -0.2643
 9578W        W52495  24.012  25.353  27.205 -0.2176 -0.0520  0.2459
 9579W        W52496  25.226  24.445  25.843 -0.0244 -0.0711  0.0798
 9580W        W52497  22.281  22.699  25.578 -0.3762  0.1567 -0.1378
 9581W        W52498  22.552  23.443  25.471  0.0789 -0.0995 -0.2268
 9582W        W52499  22.266  26.913  25.768  0.1013 -0.3113  0.1664
 9583W        W52500  24.422  23.477  25.905  0.1036  0.3395 -0.1980
 9584W        W52501  24.452  21.535  25.434  0.0436  0.0768 -0.0448
 9585W        W52502  23.104  27.491  25.872  0.0477  0.2389  0.0817
 9586W        W52503  24.689  22.363  28.836 -0.2041 -0.1723  0.0428
 9587W        W52504  23.975  28.216  24.557  0.4014 -0.1010  0.1371
 9588W        W52505  23.659  24.328  28.217  0.0784 -0.0016  0.0852
 9589W        W52506  22.106  25.194  27.001  0.4195 -0.0102  0.0369
 9590W        W52507  21.089  22.082  25.911  0.1256 -0.3771  0.0556
 9591W        W52508  21.222  25.169  25.165 -0.0231  0.1854  0.2530
 9592W        W52509  25.365  24.936  24.807 -0.2426  0.1848  0.1136
 9593W        W52510  23.510  24.046  26.138 -0.0735  0.0868  0.1771
 9594W        W52511  21.672  23.159  24.505  0.1353  0.1640  0.0087
 9595W        W52512  25.779  25.042  26.368  0.0331  0.0962  0.0873
 9596W        W52513  21.085  22.068  26.503 -0.0679 -0.0987  0.2790
 9597W        W52514  24.426  21.585  23.045  0.3361 -0.1889  0.0643
 9598W        W52515  24.579  22.871  24.108  0.0836 -0.0612  0.2988
 9599W        W52516  23.215  24.988  27.862 -0.1760 -0.1599 -0.2275
 9600W        W52517  20.931  24.466  23.505 -0.0242 -0.2027  0.1781
 9601W        W52518  22.383  25.889  24.725 -0.0031 -0.0930  0.0669
 9602W        W52519  22.280  24.349  26.613 -0.0304  0.0180 -0.0334
 9603W        W52520  22.405  22.072  28.510 -0.2430  0.2498  0.1902
 9604W        W52521  21.163  20.035  25.007 -0.4396  0.0536 -0.1669
 9605W        W52522  23.521  23.142  25.603 -0.0554  0.1135 -0.2540
 9606W        W52523  21.740  20.810  23.529 -0.0217 -0.1617  0.0009
 9607W        W52524  24.460  25.080  24.885 -0.0025  0.4270  0.0149
 9608W        W52525  23.890  23.380  25.787 -0.2841 -0.2211  0.0939
 9609W        W52526  19.920  22.597  25.471 -0.0064  0.1688 -0.0379
 9610W        W52527  23.960  25.606  24.349 -0.3307  0.1986 -0.1479
 9611W        W52528  26.345  25.886  26.870  0.1397  0.2043 -0.2510
 9612W        W52529  23.615  23.372  23.988 -0.0368  0.2435 -0.2551
 9613W        W52530  26.054  23.924  27.795  0.0751 -0.1323  0.5741
 9614W        W52531  23.477  25.718  23.533  0.4966  0.1641 -0.3401
 9615W        W52532  21.379  22.139  27.253 -0.1000  0.1833 -0.1684
 9616W        W52533  19.791  19.616  26.899 -0.0647 -0.0323  0.0767
 9617W        W52534  20.524  25.310  24.287 -0.4552  0.2000 -0.2858
 9618W        W52535  24.772  22.481  25.748  0.0799  0.2896  0.2269
 9619W        W52536  23.483  25.792  25.475  0.1106 -0.4213  0.2177
 9620W        W52537  24.065  26.612  25.202  0.2000 -0.2054 -0.1351
 9621W        W52538  23.010  23.482  27.375 -0.2320 -0.2630  0.2762
 9622W        W52539  24.276  25.536  27.577  0.3916  0.0689  0.0761
 9623W        W52540  20.181  19.691  26.459 -0.1362 -0.2910 -0.0813
 9624W        W52541  25.381  22.814  26.440 -0.0223 -0.1233  0.1388
 9625W        W52542  24.294  22.297  29.258 -0.1048 -0.0827  0.1013
 9626W        W52543  23.538  24.919  24.551 -0.3490  0.0005 -0.2080
 9627W        W52544  25.615  23.533  25.019 -0.0939 -0.0353 -0.0948
 9628W        W52545  24.480  23.925  25.147  0.1519  0.4144  0.0053
 9629W        W52546  22.056  20.333  26.033  0.2884 -0.0522  0.0131
 9630W        W52547  20.995  23.442  28.944 -0.1861 -0.0979 -0.2759
 9631W        W52548  24.756  26.224  25.919 -0.1334 -0.1465  0.1007
 9632W        W52549  22.927  24.284  26.182  0.1407 -0.0727 -0.0630
 9633W        W52550  22.748  20.846  25.118  0.0139  0.2026 -0.0275
 9634W        W52551  23.669  25.332  24.712 -0.1522  0.1120 -0.0697
 9635W        W52552  22.413  22.402  28.114  0.0305 -0.2002  0.3647
 9636W        W52553  21.857  23.016  23.624 -0.0404 -0.0941  0.0361
 9637W        W52554  22.598  23.484  26.760  0.0223 -0.1000  0.1546
 9638W        W52555  24.073  23.302  27.865 -0.0559  0.1060 -0.0460
 9639W        W52556  25.371  21.675  27.339 -0.1368 -0.1579 -0.1225
 9640W        W52557  24.668  25.316  25.288 -0.2767  0.2354  0.0035
 9641W        W52558  25.459  24.093  23.026  0.4020  0.3236 -0.0555
 9642W        W52559  22.399  27.049  27.363 -0.2290  0.2262  0.0253
 9643W        W52560  23.404  22.660  27.586  0.1532 -0.0807  0.3520
 9644W        W52561  21.236  24.304  26.219 -0.0522  0.2653  0.0599
 9645W        W52562  24.510  22.032  25.618 -0.1730 -0.0288 -0.1131
 9646W        W52563  21.619  22.214  25.800  0.1805  0.0061  0.0325
 9647W        W52564  20.765  22.655  23.913 -0.2070  0.1471 -0.4078
 9648W        W52565  21.316  22.777  25.131  0.0468 -0.0873 -0.0534
 9649W        W52566  20.939  21.851  25.046 -0.0512 -0.3063  0.2606
 9650W        W52567  22.556  21.232  25.398  0.4611 -0.1978 -0.0384
 9651W        W52568  21.397  22.430  26.748  0.2496 -0.1850 -0.1397
 9652W        W52569  22.212  23.486  25.899 -0.3303  0.1473  0.0801
 9653W        W52570  21.978  24.340  27.485  0.0427  0.1057 -0.0490
 9654W        W52571  22.620  23.673  30.565  0.2044 -0.3266 -0.0660
 9655W        W52572  20.683  22.182  30.044 -0.2286 -0.1510  0.2267
 9656W        W52573  25.401  23.812  27.901  0.3584  0.2727 -0.0286
 9657W        W52574  24.024  22.443  28.738 -0.2107  0.1483 -0.0367
 9658W        W52575  21.731  20.854  28.970 -0.1158 -0.1342 -0.1218
 9659W        W52576  22.548  25.847  28.122 -0.1058  0.2106  0.3491
 9660W        W52577  22.058  21.580  29.939  0.1434 -0.1056 -0.0351
 9661W        W52578  24.819  25.480  29.970 -0.0316 -0.0171  0.1368
 9662W        W52579  26.060  22.613  31.350 -0.1221  0.0166  0.2072
 9663W        W52580  23.645  23.936  28.507  0.2358  0.2883  0.1529
 9664W        W52581  23.008  21.374  28.960  0.0882  0.2133  0.0006
 9665W        W52582  22.284  26.913  31.101 -0.1700 -0.0275  0.1804
 9666W        W52583  23.114  22.019  25.164  0.1839 -0.0598  0.2408
 9667W        W52584  24.280  22.727  30.603 -0.2515  0.3518 -0.2606
 9668W        W52585  24.890  23.650  30.312 -0.0035  0.0809  0.2200
 9669W        W52586  21.300  23.749  29.509  0.0992 -0.4348  0.1790
 9670W        W52587  22.567  22.121  29.652 -0.1064  0.1710 -0.1099
 9671W        W52588  22.221  21.730  27.538  0.0557  0.4015  0.2004
 9672W        W52589  25.011  26.258  29.632  0.0186  0.3050 -0.3447
 9673W        W52590  21.486  24.294  29.149  0.1854  0.5138 -0.1575
 9674W        W52591  23.714  21.083  30.698 -0.2262 -0.1344  0.0107
 9675W        W52592  23.093  23.486  28.181 -0.0168  0.2220 -0.1538
 9676W        W52593  21.511  21.283  29.262 -0.1470  0.0390 -0.2966
 9677W        W52594  20.222  23.202  29.355  0.1390 -0.1305  0.1799
 9678W        W52595  21.138  24.235  30.367 -0.0418 -0.2938  0.0131
 9679W        W52596  23.189  24.272  28.654  0.0448 -0.1413 -0.2541
 9680W        W52597  24.730  22.236  31.160  0.2096 -0.1005 -0.0615
 9681W        W52598  23.765  24.776  30.771  0.1239  0.0085 -0.0232
 9682W        W52599  22.066  26.222  28.722  0.1479  0.1342  0.2322
 9683W        W52600  23.621  23.129  30.363  0.1095  0.2444  0.0387
 9684W        W52601  20.921  22.619  29.572  0.0214 -0.0132 -0.0207
 9685W        W52602  23.378  25.901  27.547 -0.0699  0.0905 -0.1063
 9686W        W52603  23.716  24.697  28.605  0.0673 -0.1342  0.2325
 9687W        W52604  23.331  24.093  30.284  0.0317  0.2629 -0.1040
 9688W        W52605  26.130  23.422  30.881 -0.1815 -0.0871  0.0887
 9689W        W52606  20.211  25.100  31.025 -0.1618  0.1921 -0.1571
 9690W        W52607  21.231  25.812  29.013  0.1198 -0.0712  0.1395
 9691W        W52608  23.958  25.588   0.578 -0.2315  0.2922 -0.0882
 9692W        W52609  22.857  23.968   0.359 -0.1563  0.1903  0.0085
 9693W        W52610  22.109  24.014  29.750  0.2762  0.1355 -0.3609
 9694W        W52611  22.715  23.917  28.663 -0.1279 -0.2094 -0.2112
 9695W        W52612  23.459  25.378  28.058 -0.0324  0.0106 -0.0662
 9696W        W52613  22.696  22.405  28.715 -0.0953  0.0568  0.0037
 9697W        W52614  23.293  22.705  31.038 -0.1256 -0.0124 -0.0965
 9698W        W52615  22.331  26.199  29.837  0.1779 -0.2339  0.1027
 9699W        W52616  23.278  22.418  31.620  0.1173 -0.0286  0.0521
 9700W        W52617  21.558  23.074  28.348 -0.1183  0.0199  0.0347
 9701W        W52618  25.391  22.202  27.303 -0.0518  0.2892  0.1942
 9702W        W52619  21.546  20.236  26.946  0.1405 -0.0129 -0.1055
 9703W        W52620  24.668  23.985  29.844  0.4180  0.2307  0.1428
 9704W        W52621  21.943  21.707  28.426  0.0439 -0.0704 -0.0350
 9705W        W52622  24.167  26.855  31.877  0.2163  0.1740  0.0762
 9706W        W52623  21.611  20.806  29.555 -0.2305 -0.4447  0.0236
 9707W        W52624  25.750  22.728  31.735 -0.0893  0.0811  0.2149
 9708W        W52625  22.431  22.719  30.469  0.0200  0.0336 -0.0394
 9709W        W52626  25.485  21.258  31.868 -0.1156  0.1355 -0.2496
 9710W        W52627  21.570  24.041  31.005 -0.1336  0.0949 -0.0811
 9711W        W52628  23.086  22.865  28.635  0.0950  0.0343 -0.1421
 9712W        W52629  24.510  25.993  27.407 -0.4649  0.2628  0.1449
 9713W        W52630  24.871  25.993  30.023  0.2230  0.1165 -0.0287
 9714W        W52631  22.715  22.570  27.674  0.0504 -0.0368  0.1526
 9715W        W52632  22.405  21.856  27.977 -0.0934 -0.0699  0.3238
 9716W        W52633  21.655  22.951  31.641  0.0180  0.1549  0.1689
 9717W        W52634  22.926  24.260  30.995  0.1495 -0.0509 -0.1471
 9718W        W52635  22.282  19.931  25.160 -0.2467 -0.3572 -0.1632
 9719W        W52636  24.339  23.202  29.562 -0.0812 -0.3179 -0.1530
 9720W        W52637  22.018  24.245   1.364  0.0982  0.0840  0.1527
 9721W        W52638  24.741  22.794  29.417 -0.0337  0.1469  0.2619
 9722W        W52639  20.784  22.589  28.865 -0.1268  0.0723 -0.0176
 9723W        W52640  23.889  24.440  31.716  0.3414 -0.0479  0.1998
 9724W        W52641  24.341  22.585  26.903 -0.1024  0.4175 -0.1613
 9725W        W52642  25.619  21.503  27.744 -0.1210 -0.1268  0.2948
 9726W        W52643  23.753  22.170  30.135  0.1612 -0.3105  0.0516
 9727W        W52644  21.234  23.219  27.382  0.1816 -0.0697 -0.1610
 9728W        W52645  21.768  22.656  26.507  0.3471 -0.4255  0.1720
 9729W        W52646  25.631  22.518  31.124 -0.0263  0.0134  0.0986
 9730W        W52647  25.438  21.178  26.539 -0.2325 -0.1226 -0.0151
 9731W        W52648  22.419  25.724  30.062 -0.1163 -0.0480  0.1551
 9732W        W52649  23.460  21.961  29.674  0.2960 -0.0485  0.2548
 9733W        W52650  21.667  23.361  30.265  0.0912 -0.0551 -0.1939
 9734W        W52651  22.026  22.517  25.975 -0.0358 -0.2862  0.3484
 9735W        W52652  20.021  24.456  29.805  0.0244  0.3543  0.1263
 9736W        W52653  20.735  23.818  29.695  0.2884  0.0444 -0.1443
 9737W        W52654  18.959  22.385  31.597  0.2398  0.1116  0.1452
 9738W        W52655  22.796  23.394  31.414  0.0347 -0.1339 -0.1466
 9739W        W52656  24.294  22.808  27.945  0.1004 -0.0081 -0.1086
 9740W        W52657  20.572  23.994  30.740 -0.4525  0.2321  0.3972
 9741W        W52658  23.136  20.800  28.592  0.1359  0.3011 -0.1445
 9742W        W52659  22.077  24.473  30.767  0.2924  0.1728 -0.0458
 9743W        W52660  25.154  24.666  28.265 -0.0131  0.0963  0.2029
 9744W        W52661  22.845  22.036  27.681  0.0854 -0.4671  0.2739
 9745W        W52662  25.902  25.087  29.117 -0.1319  0.0984  0.4763
 9746W        W52663  19.859  24.107  30.987  0.0304  0.2652 -0.0351
 9747W        W52664  22.621  21.469  27.679 -0.0049 -0.1028  0.0009
 9748W        W52665  23.351  23.449  31.714 -0.2455 -0.2410 -0.1141
 9749W        W52666  22.657  23.223  28.275 -0.1360  0.1172 -0.1267
 9750W        W52667  23.371  21.526  29.430 -0.0299  0.1642  0.0772
 9751W        W52668  20.591  20.380  27.936 -0.0816  0.4497  0.2635
 9752W        W52669  23.855  22.553  29.260  0.2462  0.1086  0.0279
 9753W        W52670  22.133  22.814  29.113  0.0084 -0.2751 -0.0258
 9754W        W52671  22.303  24.239  28.872 -0.0811 -0.2406 -0.1409
 9755W        W52672  26.024  20.813  29.406  0.1383 -0.1640 -0.0380
 9756W        W52673  23.576  25.337  29.421  0.1123 -0.2896 -0.1519
 9757W        W52674  25.586  24.329  30.676 -0.3035  0.0102 -0.2397
 9758W        W52675  24.952  24.906  29.292 -0.1434 -0.1495 -0.0471
 9759W        W52676  20.856  21.463  30.927 -0.0988  0.0877  0.0878
 9760W        W52677  21.479  21.700  28.503  0.4273 -0.1157  0.1248
 9761W        W52678  20.945  25.574  29.847 -0.1749 -0.2571  0.2273
 9762W        W52679  23.605  22.706  28.564 -0.1466 -0.1311  0.0001
 9763W        W52680  23.721  21.368  27.712 -0.3180 -0.2258  0.0116
 9764W        W52681  24.251  25.309  29.887  0.3774 -0.0474 -0.1078
 9765W        W52682  23.039  23.098  29.244 -0.0592  0.0575  0.4583
 9766W        W52683  23.305  23.580  31.143  0.1147  0.0515 -0.1109
 9767W        W52684  23.601  20.610  28.863 -0.0616  0.1116  0.1018
 9768W        W52685  23.498  24.375  30.918 -0.0618  0.2235  0.1444
 9769W        W52686  24.298  21.707  29.264  0.0561  0.0466  0.1376
 9770W        W52687  20.863  22.300  27.488 -0.1858  0.1206  0.0270
 9771W        W52688  23.495  24.798  29.604  0.2288  0.0248 -0.2346
 9772W        W52689  20.707  25.569  28.256 -0.0499 -0.0434  0.0164
 9773W        W52690  22.575  22.848  28.944 -0.1322  0.3007  0.3313
 9774W        W52691  22.012  24.393  27.995  0.0252  0.0410  0.1024
 9775W        W52692  25.218  22.239  28.988  0.1393 -0.1358 -0.0817
 9776W        W52693  20.524  21.277  28.171  0.1355 -0.0491 -0.1781
 9777W        W52694  22.948  21.756  29.445  0.3767 -0.1231 -0.0581
 9778W        W52695  21.566  20.729  28.504 -0.2798 -0.1844  0.0907
 9779W        W52696  23.088  24.828   0.694 -0.0741 -0.3016 -0.1285
 9780W        W52697  22.560  21.327  29.299 -0.0869  0.1407  0.2491
 9781W        W52698  26.970  23.658  30.152 -0.0710  0.0239 -0.5285
 9782W        W52699  24.227  22.803  31.460  0.4533 -0.0727  0.2112
 9783W        W52700  24.139  24.853  28.841  0.0677 -0.1911  0.1068
 9784W        W52701  25.037  22.356  27.800  0.2171 -0.0366  0.1901
 9785W        W52702  23.222  22.695  24.280  0.2349  0.1439 -0.0767
 9786W        W52703  22.291  26.435  31.213 -0.2086  0.2646 -0.3791
 9787W        W52704  23.218  24.069  28.213  0.3357  0.0281  0.1583
 9788W        W52705  22.555  23.687  29.728 -0.0560  0.2304  0.0171
 9789W        W52706  22.394  20.677  26.199  0.2097 -0.0761  0.0616
 9790W        W52707  23.525  24.809  30.114 -0.0622 -0.3578 -0.3712
 9791W        W52708  21.728  26.662  29.947  0.1315  0.3268 -0.2831
 9792W        W52709  23.290  23.947  30.765 -0.1174 -0.1796  0.1868
 9793W        W52710  24.632  25.227  29.568  0.0910  0.1667 -0.1594
 9794W        W52711  21.929  20.559  29.867 -0.0775 -0.1019 -0.1233
 9795W        W52712  23.410  23.202  27.905 -0.0456 -0.3765  0.2196
 9796W        W52713  23.562  20.681  28.366  0.2132  0.0840 -0.3316
 9797W        W52714  21.617  22.981  28.968  0.0075  0.3496 -0.2118
 9798W        W52715  23.918  21.997  29.136  0.0606  0.1518 -0.1656
 9799W        W52716  23.874  21.118  29.602 -0.1477 -0.0881 -0.6035
 9800W        W52717  22.522  21.861  30.751  0.0140  0.2889 -0.2285
 9801W        W52718  24.188  21.160  30.258  0.1597  0.2064 -0.4319
 9802W        W52719  24.396  25.021  27.467  0.2306 -0.0577  0.2402
 9803W        W52720  23.559  21.439  30.324 -0.2421 -0.5057 -0.0302
 9804W        W52721  22.379  20.517  27.361  0.2384 -0.0147  0.1710
 9805W        W52722  22.509  20.869  30.250  0.2640 -0.1120 -0.4691
 9806W        W52723  22.888  23.883  29.991  0.1254 -0.3278  0.3687
 9807W        W52724  20.024  24.432   0.381 -0.1624  0.0744  0.7809
 9808W        W52725  24.540  25.917  31.313  0.1093  0.1879 -0.0114
 9809W        W52726  23.320  23.101  27.373 -0.2536 -0.2865  0.1031
 9810W        W52727  22.474  23.363  30.143 -0.1701  0.0572  0.0677
 9811W        W52728  24.111  23.744  30.615 -0.1895  0.2006  0.1048
 9812W        W52729  25.126  25.457  26.142  0.1518 -0.0244  0.4508
 9813W        W52730  22.394  24.513  27.708 -0.1514 -0.3226  0.2734
 9814W        W52731  23.985  21.966  28.430  0.1496  0.4344  0.3343
 9815W        W52732  22.846  25.058  28.905  0.0467  0.0219  0.0186
 9816W        W52733  23.578  23.896  27.942 -0.1059 -0.2444 -0.0759
 9817W        W52734  22.831  23.415  28.769 -0.1055 -0.1535 -0.1521
 9818W        W52735  22.717  24.490  29.412  0.1248 -0.3377  0.2193
 9819W        W52736  23.330  23.500  29.129  0.1876  0.0470 -0.1154
 9820W        W52737  22.043  23.558  29.981  0.3351 -0.0374 -0.0218
 9821W        W52738  22.222  22.693  26.886  0.0515  0.0523  0.2859
 9822W        W52739  23.360  23.207  29.553 -0.0852  0.3400 -0.3388
 9823W        W52740  23.476  21.376  26.524 -0.1499  0.3495 -0.0894
 9824W        W52741  24.178  26.075  28.900 -0.0376 -0.1984  0.0990
 9825W        W52742  19.992  21.812  30.512 -0.2386  0.0702 -0.2453
 9826W        W52743  23.899  23.426  30.081  0.1880 -0.0201 -0.0372
 9827W        W52744  22.024  28.110  28.525 -0.0410 -0.1069  0.1541
 9828W        W52745  21.187  21.387  30.514  0.0836 -0.0294 -0.2059
 9829W        W52746  23.420  21.135  28.737 -0.0135 -0.0188 -0.0785
 9830W        W52747  23.906  21.875  31.071  0.0442 -0.1507 -0.0424
 9831W        W52748  22.479  21.555  31.367 -0.1647  0.2809 -0.1997
 9832W        W52749  22.631  21.726  27.273 -0.0833 -0.2836 -0.1142
 9833W        W52750  26.004  23.536  30.329 -0.0161 -0.3847  0.3086
 9834W        W52751  23.685  21.132  29.132  0.1454  0.1457 -0.0004
 9835W        W52752  21.208  20.363  27.563 -0.0443  0.3451 -0.2125
 9836W        W52753  22.167  23.134  28.189  0.2253 -0.2019  0.0537
 9837W        W52754  22.166  23.054  29.759  0.0779 -0.0140  0.3325
 9838W        W52755  21.854  24.098  28.766 -0.0328  0.0122 -0.2076
 9839W        W52756  22.075  24.027  31.192  0.0723  0.4033  0.1533
 9840W        W52757  21.626  22.096  31.134  0.3688  0.2096  0.3846
 9841W        W52758  23.623  23.723  30.429  0.0203 -0.0129 -0.0341
 9842W        W52759  22.476  21.537  28.352 -0.0275  0.3056  0.1203
 9843W        W52760  24.146  22.334  29.912 -0.1381  0.4198 -0.4441
 9844W        W52761  22.406  23.307  29.048  0.1456 -0.3053 -0.1879
 9845W        W52762  24.051  24.045  31.302  0.1911 -0.2601 -0.2631
 9846W        W52763  21.371  23.378  30.824  0.4736 -0.0364  0.0802
 9847W        W52764  23.530  20.710  29.674 -0.0645 -0.0504 -0.1017
 9848W        W52765  27.390  26.445  28.037 -0.0000 -0.0284 -0.2668
 9849W        W52766  23.326  23.135  30.787 -0.0582  0.0444  0.1210
 9850W        W52767  23.819  25.271  28.940 -0.2330 -0.3593  0.0664
 9851W        W52768  21.693  22.469  30.193  0.0218 -0.2716 -0.2082
 9852W        W52769  24.531  23.120  28.263 -0.3210 -0.0032 -0.1871
 9853W        W52770  22.513  21.807  30.195  0.1726 -0.1517 -0.0282
 9854W        W52771  21.697  25.211  31.311  0.0825 -0.0277 -0.2365
 9855W        W52772  22.569  25.448  28.662  0.1806  0.1318  0.2863
 9856W        W52773  20.199  24.561  30.731 -0.1735 -0.3664  0.4249
 9857W        W52774  24.427  21.517  28.394 -0.2936  0.3420  0.3588
 9858W        W52775  23.106  21.968  28.985 -0.0836 -0.2348 -0.1816
 9859W        W52776  23.606  22.167  28.761 -0.1473 -0.4424 -0.2261
 9860W        W52777  22.980  22.308  31.203 -0.0441  0.0217 -0.0145
 9861W        W52778  24.325  23.506  26.957  0.0664  0.0825 -0.0608
 9862W        W52779  22.369  20.616  30.905  0.1072  0.0933 -0.1096
 9863W        W52780  22.116  22.194  30.509  0.0604  0.2665 -0.3375
 9864W        W52781  24.769  22.882  28.846  0.1890 -0.4015  0.3492
 9865W        W52782  22.009  23.937  30.693 -0.1486  0.3023  0.1013
 9866W        W52783  23.836  24.441  29.907 -0.0023 -0.1250 -0.1021
 9867W        W52784  21.777  23.104  31.191 -0.0036  0.2181  0.1062
 9868W        W52785  25.836  22.046  27.683  0.3324  0.0013  0.1894
 9869W        W52786  21.354  22.153  28.759  0.1670 -0.0188 -0.0134
 9870W        W52787  22.360  24.714  29.099  0.3320  0.0742 -0.2407
 9871W        W52788  22.960  24.136  29.612 -0.2371  0.0755 -0.0001
 9872W        W52789  21.230  24.727  28.293 -0.0955 -0.2527 -0.1150
 9873W        W52790  23.416  23.539  29.935 -0.1011  0.0007  0.0611
 9874W        W52791  23.301  22.656  30.456 -0.0500  0.2406  0.2186
 9875W        W52792  24.150  23.956  29.198 -0.0196 -0.3647 -0.0159
 9876W        W52793  23.256  21.190  27.439  0.0307  0.0311  0.1229
 9877W        W52794  21.606  25.447  28.909  0.1113  0.0853 -0.1333
 9878W        W52795  19.385  21.066  29.739 -0.0128  0.0189 -0.1316
 9879W        W52796  22.725  23.651  29.195 -0.1656 -0.0324  0.0841
 9880W        W52797  24.511  23.689  29.429 -0.0743  0.2992  0.1602
 9881W        W52798  23.721  21.513  29.840 -0.2413 -0.2096 -0.0194
 9882W        W52799  23.372  21.994  30.356  0.0100 -0.2582  0.3233
 9883W        W52800  20.615  22.291  30.968  0.0294  0.1094  0.0490
 9884W        W52801  22.178  22.823  30.949 -0.1644 -0.0026 -0.0624
 9885W        W52802  24.086  25.021  31.144 -0.0584 -0.1864  0.1894
 9886W        W52803  26.101  23.224  26.947  0.0001  0.0844 -0.2038
 9887W        W52804  23.437  22.216  29.241  0.0989 -0.0470 -0.0658
 9888W        W52805  24.977  20.587  29.324 -0.3713 -0.2955 -0.1870
 9889W        W52806  24.423  22.177  28.326  0.2808 -0.0510  0.0349
 9890W        W52807  21.767  23.965  30.152 -0.0792  0.2012 -0.2072
 9891W        W52808  24.143  22.262  30.442 -0.1422 -0.2343 -0.2519
 9892W        W52809  23.885  22.868  27.625 -0.0198  0.2200  0.2149
 9893W        W52810  23.849  22.312  31.562 -0.1498  0.1440 -0.1172
 9894W        W52811  21.790  23.404  28.001  0.3438 -0.1787 -0.2891
 9895W        W52812  23.551  22.722  28.041  0.0552 -0.1286  0.1691
 9896W        W52813  22.861  24.260  27.952 -0.0471 -0.0671  0.0857
 9897W        W52814  21.843  22.567  29.657  0.4192 -0.0229 -0.0568
 9898W        W52815  21.992  25.204  30.876 -0.0290 -0.2022  0.1739
 9899W        W52816  23.034  22.520  29.106  0.1453 -0.1452 -0.2761
 9900W        W52817  23.270  21.953  28.465  0.1427 -0.1487  0.0875
 9901W        W52818  22.975  24.393  30.074 -0.0589 -0.3289  0.2577
 9902W        W52819  25.131  23.532  30.737  0.0730  0.0307  0.0133
 9903W        W52820  24.234  22.575  26.267  0.2053 -0.2205 -0.2311
 9904W        W52821  24.079  21.658  30.175 -0.0838 -0.2562  0.0413
 9905W        W52822  22.205  24.114  28.350 -0.0685 -0.1661  0.2501
 9906W        W52823  21.901  21.373  28.870 -0.0187  0.0858  0.1273
 9907W        W52824  20.133  25.336  30.192  0.0144 -0.1053 -0.2298
 9908W        W52825  20.907  23.452  29.480 -0.1502  0.1416 -0.0876
 9909W        W52826  23.124  24.993  29.308  0.0585  0.2045 -0.0355
 9910W        W52827  22.922  22.822  29.641 -0.2860 -0.1455  0.2261
 9911W        W52828  24.445  25.716  29.690 -0.1518 -0.0726  0.2414
 9912W        W52829  22.522  23.062  29.456  0.1770  0.1508  0.3550
 9913W        W52830  22.572  21.915  29.074 -0.1763  0.5609 -0.0507
 9914W        W52831  20.138  24.668  30.244  0.1822 -0.1932  0.2305
 9915W        W52832  21.965  25.447  29.290 -0.3462  0.0359  0.0638
 9916W        W52833  23.747  23.964  30.916  0.0041 -0.2253  0.0138
 9917W        W52834  23.852  23.082  29.368  0.0282  0.0189  0.0546
 9918W        W52835  22.390  24.537  31.638 -0.0322  0.1886  0.0487
 9919W        W52836  19.509  23.419  30.205 -0.2042 -0.1798  0.2221
 9920W        W52837  21.780  23.874  29.395 -0.1171  0.2374  0.0084
 9921W        W52838  23.570  25.502  30.100  0.1191 -0.0702 -0.0006
 9922W        W52839  22.858  20.754  27.608  0.3395 -0.3635 -0.1956
 9923W        W52840  23.263  25.316  28.947 -0.1067 -0.3201 -0.1615
 9924W        W52841  22.328  24.933   0.624 -0.2761 -0.0645 -0.0033
 9925W        W52842  21.886  22.114   0.157 -0.1155 -0.1903  0.2093
 9926W        W52843  20.884  22.895  27.633 -0.1218  0.0818 -0.0611
 9927W        W52844  22.751  23.813  28.179  0.0568  0.1049  0.0141
 9928W        W52845  23.261  24.447  29.239  0.0428 -0.0107  0.0824
 9929W        W52846  21.681  23.849  31.443 -0.1499 -0.0773 -0.2366
 9930W        W52847  23.457  23.068  28.907 -0.0001  0.0296 -0.4117
 9931W        W52848  22.129  25.987  30.404 -0.0608 -0.3506 -0.1619
 9932W        W52849  21.372  23.290  29.294  0.1903  0.0838  0.1171
 9933W        W52850  23.869  24.857  27.279 -0.0318 -0.0721  0.2528
 9934W        W52851  20.042  24.159  29.390  0.1263  0.1093 -0.1464
 9935W        W52852  24.537  26.605  31.626  0.3475  0.0691  0.0924
 9936W        W52853  23.214  20.918  26.926 -0.0225  0.0419  0.1109
 9937W        W52854  25.775  21.536  29.223  0.0594  0.1150 -0.4849
 9938W        W52855  25.748  23.029  27.997  0.2275  0.0956 -0.1125
 9939W        W52856  23.371  22.750  29.405 -0.1178 -0.0684 -0.1001
 9940W        W52857  23.758  23.499  29.608 -0.0537 -0.2071  0.0272
 9941W        W52858  24.141  22.034  27.070  0.0861 -0.1138  0.1893
 9942W        W52859  22.676  23.980   0.914 -0.3100  0.3733  0.1895
 9943W        W52860  26.126  24.141  31.576 -0.0214  0.2486  0.0075
 9944W        W52861  20.114  24.433  31.301 -0.1754  0.1445  0.0488
 9945W        W52862  23.684  23.976  29.933  0.2626 -0.1539  0.0421
 9946W        W52863  21.988  22.067  27.114  0.0532  0.0909 -0.2158
 9947W        W52864  21.774  23.534  29.023 -0.0196 -0.0919 -0.0560
 9948W        W52865  22.831  21.012  31.145 -0.1117 -0.1339  0.1431
 9949W        W52866  23.178  23.749  28.637 -0.1466 -0.0656 -0.1292
 9950W        W52867  24.315  21.952  30.840  0.1068 -0.3095 -0.0658
 9951W        W52868  21.303  24.836  30.497  0.0197 -0.1434  0.2207
 9952W        W52869  21.684  22.963  29.896 -0.1843  0.2865  0.1554
 9953W        W52870  21.425  23.814  30.546  0.0371  0.1789 -0.0286
 9954W        W52871  23.537  21.310  26.998  0.2176 -0.0947  0.1548
 9955W        W52872  25.556  22.300  29.775  0.2142 -0.3381 -0.2571
 9956W        W52873  22.566  22.831  31.648  0.0071  0.3581  0.2863
 9957W        W52874  24.333  22.103  31.381  0.0163  0.0983  0.0522
 9958W        W52875  21.602  24.556  30.091 -0.6415  0.0963 -0.1794
 9959W        W52876  23.453  21.664  28.912 -0.1091 -0.1479  0.1135
 9960W        W52877  23.183  24.766  28.761  0.1881 -0.0319 -0.1273
 9961W        W52878  21.348  19.426  29.120  0.2161 -0.1742  0.2009
 9962W        W52879  23.180  21.259  24.658  0.0570 -0.1730  0.0007
 9963W        W52880  23.443  25.691   0.516  0.1633 -0.0432  0.2102
 9964W        W52881  23.416  23.191  28.417  0.0226  0.0352 -0.1276
 9965W        W52882  23.452  25.939  31.006 -0.0053 -0.0205 -0.2182
 9966W        W52883  22.531  21.402  26.710  0.3935  0.1645  0.1941
 9967W        W52884  24.764  23.501  28.515  0.0375  0.1232  0.1024
 9968W        W52885  21.886  24.690  29.050  0.2100  0.0463 -0.2469
 9969W        W52886  22.931  23.398  29.765 -0.1178  0.1532 -0.0212
 9970W        W52887  24.250  25.314  30.745  0.2234 -0.0727  0.0503
 9971W        W52888  21.288  22.147  30.270 -0.1240 -0.2520 -0.1008
 9972W        W52889  23.942  24.246  27.555 -0.3122  0.3394  0.3204
 9973W        W52890  24.578  22.431  29.765 -0.0042  0.1556 -0.0611
 9974W        W52891  22.894  25.604  26.641  0.2872  0.1698  0.0868
 9975W        W52892  24.264  23.569  28.337 -0.2720 -0.5098  0.0642
 9976W        W52893  25.126  25.309  29.510 -0.0460  0.2560 -0.1399
 9977W        W52894  21.668  26.185  30.860 -0.1769  0.1910  0.1063
 9978W        W52895  22.653  24.735  31.253 -0.0586  0.0448  0.2126
 9979W        W52896  25.903  25.965  29.616  0.2778  0.0636  0.0145
 9980W        W52897  22.806  20.709  27.100 -0.1860  0.0256 -0.1555
 9981W        W52898  24.110  21.445  30.718 -0.1783  0.0102  0.0548
 9982W        W52899  22.071  26.713  28.640 -0.1401  0.0004  0.0444
 9983W        W52900  26.432  22.146  29.104  0.1195 -0.0809 -0.2029
 9984W        W52901  24.609  20.498  29.748  0.1344  0.0830  0.1335
 9985W        W52902  21.918  25.179  27.841 -0.3618 -0.0622 -0.3258
 9986W        W52903  24.703  23.023  30.445  0.1160 -0.1585  0.2470
 9987W        W52904  23.198  25.763  30.241  0.0440  0.1910  0.0669
 9988W        W52905  22.403  23.603   0.684  0.0241 -0.1298 -0.1132
 9989W        W52906  23.470  23.577  27.532 -0.0365  0.0939  0.2498
 9990W        W52907  22.272  22.362  28.960 -0.0697  0.1390  0.2311
 9991W        W52908  22.781  24.508  28.899 -0.1894  0.0135  0.1311
 9992W        W52909  23.095  24.023  29.042  0.3219 -0.0191  0.2780
 9993W        W52910  26.498  25.169  27.253 -0.2822  0.1154  0.0475
 9994W        W52911  23.216  21.679  27.317  0.2315 -0.0273  0.1878
 9995W        W52912  26.418  25.877  29.004 -0.3157 -0.1579 -0.4413
 9996W        W52913  22.370  20.477  29.105 -0.2954 -0.1473  0.2117
 9997W        W52914  25.808  21.519  28.691  0.1881 -0.0906 -0.0795
 9998W        W52915  22.271  19.725  26.713 -0.2111 -0.2044  0.1566
 9999W        W52916  20.611  24.810  30.993 -0.1710  0.2318 -0.0154
10000W        W52917  22.892  22.489  26.773  0.0701  0.0439  0.2588
10001W        W52918  22.554  23.588  27.269  0.0653  0.0263  0.0180
10002W        W52919  21.171  23.377  30.272 -0.0065 -0.0593 -0.1674
10003W        W52920  23.197  20.539   1.075  0.1132  0.0790 -0.0283
10004W        W52921  22.057  24.282  29.288 -0.0136 -0.3012  0.1128
10005W        W52922  22.106  23.033  30.317  0.0246 -0.4068  0.0881
10006W        W52923  20.819  22.067  30.541 -0.0466 -0.3684  0.0353
10007W        W52924  24.117  26.153  27.096  0.0128 -0.3468  0.1482
10008W        W52925  21.170  20.457  28.128  0.0326 -0.1633  0.1850
10009W        W52926  20.923  20.200  28.576  0.2328 -0.1946  0.0211
10010W        W52927  22.225  23.796  29.072 -0.2303 -0.3214  0.2532
10011W        W52928  24.404  25.625  28.995 -0.1473  0.3732  0.0040
10012W        W52929  24.858  21.970  28.538 -0.0190  0.0986  0.2304
10013W        W52930  25.582  26.752  31.455 -0.0151 -0.1966 -0.1126
10014W        W52931  22.165  22.252  29.462 -0.0742  0.3359 -0.0429
10015W        W52932  24.552  19.896   1.048  0.1055  0.0866  0.0856
10016W        W52933  21.305  20.944  31.778 -0.1248 -0.1858  0.0245
10017W        W52934  20.126  20.864  26.582 -0.1170 -0.1885  0.1004
10018W        W52935  22.099  23.475  29.437  0.1447  0.0928 -0.0271
10019W        W52936  24.082  23.900  28.669 -0.0334  0.0354 -0.3952
10020W        W52937  23.561  25.614  28.548 -0.0087  0.1145 -0.1236
10021W        W52938  24.048  23.645  31.705  0.3544  0.2639 -0.2179
10022W        W52939  24.522  24.668  30.903 -0.2814 -0.2744  0.0236
10023W        W52940  22.472  22.238   0.066  0.3327 -0.0569  0.6314
10024W        W52941  24.286  23.250  28.711  0.0313 -0.0658  0.1151
10025W        W52942  22.864  22.946  30.415  0.2252 -0.0174 -0.0706
10026W        W52943  25.076  23.904  29.554  0.1466 -0.0651 -0.0554
10027W        W52944  25.416  21.412  31.095 -0.2833 -0.0687  0.0999
10028W        W52945  24.258  21.438  29.736  0.1121 -0.1887  0.2894
10029W        W52946  21.197  21.127  30.923  0.1280  0.0530 -0.0319
10030W        W52947  22.073  23.211   1.278 -0.0837  0.0772  0.1172
10031W        W52948  23.217  25.992  28.654  0.0392 -0.0899 -0.0238
10032W        W52949  23.048  21.200  29.539  0.0417 -0.0567 -0.0458
10033W        W52950  23.589  26.046  29.436 -0.2546 -0.0900  0.0724
10034W        W52951  23.974  23.034  28.355  0.1120 -0.1087 -0.0975
10035W        W52952  21.079  24.873  28.786  0.2247 -0.1524  0.0980
10036W        W52953  22.265  21.576  25.735  0.1414 -0.2391 -0.2876
10037W        W52954  25.532  23.247  30.901 -0.3172 -0.0833  0.2695
10038W        W52955  21.593  25.065  30.016 -0.2192  0.1408  0.2733
10039W        W52956  25.585  23.902  29.810  0.1552 -0.1316  0.2553
10040W        W52957  23.266  21.568  27.838 -0.0805  0.2648 -0.1760
10041W        W52958  25.265  23.250  26.709  0.0556 -0.1226  0.1128
10042W        W52959  25.650  24.410  29.059 -0.0921  0.0280  0.0985
10043W        W52960  24.068  25.761   1.313  0.3013  0.0428 -0.3987
10044W        W52961  24.671  26.731  30.611 -0.4426 -0.3793 -0.2101
10045W        W52962  22.050  24.645  28.523  0.1657 -0.0356  0.1799
10046W        W52963  22.432  23.211  30.691  0.2607 -0.4352  0.1148
10047W        W52964  21.052  24.078  30.849 -0.0230  0.1918  0.0052
10048W        W52965  23.163  22.456  28.465 -0.0999 -0.0585 -0.2444
10049W        W52966  23.872  21.049  28.090  0.0569  0.1644 -0.0461
10050W        W52967  23.694  22.468  29.726 -0.4124  0.1768 -0.2706
10051W        W52968  24.331  21.144  27.961  0.0967 -0.0217 -0.0462
10052W        W52969  24.051  25.911  30.663 -0.0533  0.0172 -0.0712
10053W        W52970  22.173  22.071  29.992  0.1064 -0.1073 -0.2765
10054W        W52971  26.081  22.140   0.649 -0.3940  0.0106  0.0327
10055W        W52972  22.806  22.181  28.221  0.0249  0.1180  0.1965
10056W        W52973  22.087  23.512  30.498 -0.1961  0.0132 -0.2511
10057W        W52974  22.510  24.430   0.653  0.0973  0.1891  0.2980
10058W        W52975  23.535  24.242  31.427  0.0258  0.3367 -0.1688
10059W        W52976  21.799  24.778  30.470  0.0704  0.1799  0.2001
10060W        W52977  24.103  23.570  31.112 -0.1743  0.0619  0.1564
10061W        W52978  24.534  23.208  31.544  0.2175 -0.1820  0.2423
10062W        W52979  25.960  22.377   0.198  0.3872  0.2491  0.2629
10063W        W52980  23.117  24.890   0.127 -0.1298  0.0940 -0.2839
10064W        W52981  24.342  24.227   1.152 -0.0259 -0.0402 -0.0833
10065W        W52982  22.792  22.570   0.860 -0.1874 -0.1168  0.0733
10066W        W52983  24.927  22.336   0.831 -0.0858  0.0020  0.0407
10067W        W52984  21.610  24.503   1.167 -0.0976  0.0395  0.1766
10068W        W52985  22.783  22.326  31.647  0.0246 -0.0393  0.2005
10069W        W52986  20.769  23.878  30.165  0.0929  0.2231 -0.1215
10070W        W52987  23.057  23.889  31.585 -0.1809  0.0933 -0.2854
10071W        W52988  22.920  24.767  30.879 -0.0433 -0.3051  0.1070
10072W        W52989  19.828  21.349  30.222  0.0162 -0.0701  0.0376
10073W        W52990  22.809  23.415   0.366  0.1041 -0.2882  0.0708
10074W        W52991  21.590  22.585  31.327  0.0309 -0.1016  0.0900
10075W        W52992  21.319  25.328   2.561  0.2410  0.1051  0.0518
10076W        W52993  24.018  23.029  31.104 -0.1138  0.3004  0.2518
10077W        W52994  23.446  21.888  31.883  0.1847 -0.0617  0.1085
10078W        W52995  22.875  21.488  31.794  0.0053 -0.1561  0.2335
10079W        W52996  22.965  22.662  31.961  0.2083  0.2143  0.0097
10080W        W52997  23.384  23.856  29.491  0.0183  0.0321  0.0878
10081W        W52998  19.054  22.956  30.695 -0.2330  0.0199 -0.1383
10082W        W52999  22.625  24.598  30.470  0.2768 -0.4288 -0.2116
10083W        W53000  22.377  23.132  31.263 -0.3429  0.0043  0.1502
10084W        W53001  21.782  23.086  30.690 -0.0828  0.0949  0.1354
10085W        W53002  21.712  21.405  30.266 -0.2048 -0.0419  0.0089
10086W        W53003  25.243  23.060   0.207 -0.3930 -0.0373  0.0140
10087W        W53004  25.019  19.664   0.367 -0.1466 -0.1773  0.1363
10088W        W53005  19.919  23.558  31.102  0.3942  0.0410  0.2482
10089W        W53006  24.087  25.254   0.218 -0.0981 -0.0767  0.0113
10090W        W53007  21.624  24.266  30.482 -0.1422 -0.0449 -0.1588
10091W        W53008  22.555  24.781  29.889 -0.0747  0.0045 -0.1330
10092W        W53009  21.817  23.617  31.006  0.1300 -0.0856 -0.2346
10093W        W53010  24.828  22.049   1.802  0.2335 -0.2172  0.3764
10094W        W53011  27.498  23.560  31.945  0.0606 -0.1019  0.0637
10095W        W53012  25.217  24.411  31.146 -0.0849  0.1331 -0.3464
10096W        W53013  23.421  23.093   2.402  0.1856 -0.1932 -0.2784
10097W        W53014  22.597  24.715   0.223  0.0365  0.3350  0.2965
10098W        W53015  20.775  23.027  31.382 -0.3228 -0.1426  0.1799
10099W        W53016  21.142  22.426  31.088 -0.1868 -0.0715  0.0492
10100W        W53017  23.688  23.402  30.924 -0.2737 -0.1315 -0.1599
10101W        W53018  23.217  25.123   2.380 -0.0281 -0.2940 -0.1863
10102W        W53019  23.929  21.587   0.084 -0.2472 -0.0059  0.0012
10103W        W53020  21.660  25.187  29.548 -0.1756  0.1046  0.2089
10104W        W53021  22.675  25.879  29.512  0.0341 -0.0053  0.1450
10105W        W53022  24.339  21.464   0.549 -0.0889 -0.3763 -0.0793
10106W        W53023  23.199  21.288   1.109 -0.1360  0.2833  0.3032
10107W        W53024  23.357  24.346  29.814  0.0230  0.0169  0.0048
10108W        W53025  22.865  22.593  30.714 -0.3890 -0.1529  0.0253
10109W        W53026  24.281  21.822   1.646 -0.0013 -0.2752  0.3953
10110W        W53027  22.659  23.707  31.922 -0.1543 -0.0430 -0.0094
10111W        W53028  24.475  25.487   0.554 -0.1700  0.0696 -0.2210
10112W        W53029  22.355  25.495  30.719 -0.0504  0.0450 -0.2212
10113W        W53030  23.173  23.638   0.738  0.1876  0.0438 -0.1275
10114W        W53031  22.587  22.670  31.203  0.0887 -0.0605 -0.1033
10115W        W53032  23.200  22.655   0.559 -0.1604  0.0066 -0.0937
10116W        W53033  23.434  23.160  31.295 -0.2315  0.3652 -0.0288
10117W        W53034  22.000  22.390  31.106  0.1330 -0.0087  0.1598
10118W        W53035  24.299  25.867   0.876  0.0601 -0.1779  0.1432
10119W        W53036  24.074  24.496  29.230  0.0304 -0.1687  0.1058
10120W        W53037  27.233  21.502  29.553 -0.1252 -0.3400  0.1148
10121W        W53038  24.860  28.681  18.956  0.0233  0.0440 -0.1742
10122W        W53039  22.356  26.138  18.567 -0.4019  0.1659 -0.4332
10123W        W53040  22.938  27.183  16.465  0.1934 -0.1572  0.0058
10124W        W53041  24.249  27.777  17.599 -0.0862 -0.1950 -0.3021
10125W        W53042  22.782  24.121  19.623 -0.1204  0.1835 -0.0893
10126W        W53043  24.411  29.108  17.357  0.0683 -0.3373  0.3051
10127W        W53044  22.477  24.628  18.924 -0.3775 -0.2728 -0.4630
10128W        W53045  21.859  28.819  19.356 -0.1960 -0.1767  0.0387
10129W        W53046  24.682  29.540  17.599  0.0147  0.0772 -0.1281
10130W        W53047  25.770  26.623  16.169 -0.0586 -0.0535  0.0911
10131W        W53048  21.543  25.129  19.028 -0.2569 -0.2201  0.0365
10132W        W53049  24.828  27.989  18.214  0.0717  0.1053 -0.4811
10133W        W53050  25.151  25.067  16.974 -0.0330 -0.2006  0.2704
10134W        W53051  20.834  21.696  16.184 -0.1250  0.0797  0.2284
10135W        W53052  23.858  28.038  19.320  0.1291  0.1221 -0.2949
10136W        W53053  22.791  26.304  18.324  0.2131  0.2155 -0.0498
10137W        W53054  21.671  24.437  18.840  0.3375 -0.3642 -0.2531
10138W        W53055  23.311  26.139  16.875 -0.0582 -0.1560  0.1165
10139W        W53056  23.535  30.914  19.958 -0.4152  0.0432 -0.1584
10140W        W53057  22.543  25.006  19.213  0.3542 -0.0166 -0.0227
10141W        W53058  24.570  26.334  20.541 -0.0579  0.1634 -0.1888
10142W        W53059  22.831  28.114  17.461 -0.1747 -0.0616  0.0284
10143W        W53060  22.691  26.595  17.811  0.0628  0.2981 -0.0786
10144W        W53061  21.038  25.876  18.384 -0.0586 -0.1669 -0.2906
10145W        W53062  21.125  26.217  18.785  0.3503 -0.0261  0.2677
10146W        W53063  24.470  26.595  18.701  0.2913 -0.2736 -0.0156
10147W        W53064  23.128  25.850  18.320  0.1990  0.2163 -0.0548
10148W        W53065  23.013  29.817  18.754  0.0487 -0.1962  0.1905
10149W        W53066  22.856  28.585  18.488  0.2695  0.1332  0.0236
10150W        W53067  25.278  26.878  19.638  0.0748 -0.0102 -0.2125
10151W        W53068  21.725  26.597  16.958 -0.2531 -0.1976  0.0978
10152W        W53069  21.026  28.843  18.435  0.0035 -0.2937  0.2253
10153W        W53070  22.919  27.816  19.904  0.1415  0.3177  0.3775
10154W        W53071  24.135  28.880  18.277 -0.1266 -0.0779  0.1963
10155W        W53072  26.011  27.410  19.046  0.2123  0.2374  0.2504
10156W        W53073  22.566  27.584  20.279 -0.1135 -0.0567  0.0215
10157W        W53074  23.469  29.740  19.367  0.1998  0.4454 -0.0191
10158W        W53075  23.885  31.717  21.029  0.2224 -0.0025  0.2091
10159W        W53076  21.982  28.268  19.726 -0.1601 -0.0293  0.2777
10160W        W53077  23.985  26.671  18.929  0.0488  0.1680 -0.0681
10161W        W53078  23.210  25.913  17.322 -0.1414  0.1925  0.0607
10162W        W53079  21.865  27.505  19.720  0.3156  0.2261  0.1176
10163W        W53080  23.989  27.433  17.844 -0.0533 -0.0457 -0.2163
10164W        W53081  24.497  28.766  20.270  0.1352 -0.2302 -0.2062
10165W        W53082  23.702  27.814  17.589  0.4241  0.2531  0.0977
10166W        W53083  24.944  24.603  20.637 -0.0767  0.0794 -0.0795
10167W        W53084  22.757  28.936  18.117  0.3876 -0.0829 -0.0508
10168W        W53085  23.096  26.449  17.433 -0.0936  0.0435  0.2393
10169W        W53086  22.269  26.616  16.398 -0.2129 -0.0886 -0.4012
10170W        W53087  25.929  26.096  16.285  0.0451  0.3526  0.2964
10171W        W53088  22.778  27.571  17.437  0.3382  0.3726  0.2792
10172W        W53089  20.084  28.445  17.139 -0.0888 -0.0786  0.0947
10173W        W53090  22.177  27.059  18.993  0.2070 -0.1072 -0.4414
10174W        W53091  25.020  27.379  17.508 -0.3235  0.1246 -0.1120
10175W        W53092  22.949  27.042  17.326 -0.1262  0.0462 -0.0231
10176W        W53093  23.910  27.141  18.893  0.5318 -0.0147  0.0461
10177W        W53094  22.411  29.697  18.076 -0.1000  0.0037 -0.0813
10178W        W53095  23.392  29.570  18.389  0.1073 -0.0405  0.1427
10179W        W53096  24.983  29.191  17.360  0.0477  0.0651 -0.0144
10180W        W53097  25.333  29.627  18.303  0.1878 -0.0555  0.2172
10181W        W53098  23.050  27.423  16.960 -0.0689  0.4091  0.0776
10182W        W53099  24.236  25.803  18.795 -0.3630  0.1518  0.1345
10183W        W53100  23.089  28.758  21.328 -0.1938 -0.0308 -0.0428
10184W        W53101  19.683  28.011  20.132 -0.1762 -0.2051  0.1783
10185W        W53102  23.980  24.159  16.051  0.1002  0.3350  0.4085
10186W        W53103  25.415  29.763  21.718 -0.3287  0.1172  0.1172
10187W        W53104  21.432  26.647  19.453 -0.0864  0.1668  0.0876
10188W        W53105  25.137  24.699  19.597  0.0145 -0.1976  0.2263
10189W        W53106  25.504  25.654  19.358 -0.2016 -0.0632  0.0118
10190W        W53107  24.129  27.774  20.604 -0.0327  0.1329 -0.1543
10191W        W53108  26.331  26.894  16.682  0.2803 -0.3737  0.0735
10192W        W53109  22.534  24.490  19.486 -0.1564 -0.1327  0.0813
10193W        W53110  24.918  26.151  20.202  0.2476 -0.0348  0.1796
10194W        W53111  22.774  28.518  17.830  0.1544 -0.1659  0.3486
10195W        W53112  23.840  26.699  17.238 -0.3069  0.2376  0.3918
10196W        W53113  24.751  29.265  16.973 -0.0451 -0.0732  0.0480
10197W        W53114  25.144  25.834  17.512  0.0059  0.0296  0.2106
10198W        W53115  22.943  28.145  18.140  0.0376 -0.2661  0.1013
10199W        W53116  21.154  26.772  20.563 -0.1155 -0.1768  0.2428
10200W        W53117  23.994  29.045  21.095 -0.0810  0.0675 -0.3366
10201W        W53118  21.104  28.715  16.817  0.0725  0.2951 -0.0035
10202W        W53119  20.527  29.322  20.771  0.0400  0.2222 -0.0900
10203W        W53120  23.130  26.453  16.504 -0.1690 -0.1605  0.1958
10204W        W53121  22.346  27.917  17.345 -0.0609  0.0253  0.1808
10205W        W53122  23.387  28.088  19.762 -0.3107 -0.1774  0.0710
10206W        W53123  24.018  25.867  16.606 -0.1047 -0.2796  0.0074
10207W        W53124  23.015  26.658  18.616 -0.2463  0.4557 -0.0374
10208W        W53125  22.274  25.031  17.869  0.1725 -0.3337  0.2649
10209W        W53126  24.564  26.577  17.593 -0.2245 -0.3987 -0.2613
10210W        W53127  24.273  29.913  17.579 -0.2300 -0.1064  0.1743
10211W        W53128  25.041  27.884  18.618 -0.3319 -0.0958  0.1882
10212W        W53129  25.521  28.586  16.715  0.1957  0.3487  0.2137
10213W        W53130  21.915  25.920  17.997 -0.0322 -0.0141  0.3415
10214W        W53131  22.436  27.305  18.631  0.4900  0.0883  0.0314
10215W        W53132  20.898  25.077  18.579 -0.2868 -0.1226  0.1715
10216W        W53133  20.296  23.795  17.013 -0.2771 -0.2487 -0.0409
10217W        W53134  25.570  26.506  17.847 -0.1890 -0.3236 -0.3911
10218W        W53135  21.661  25.747  17.584  0.0576 -0.1751  0.1496
10219W        W53136  23.947  25.788  17.656  0.0116  0.0531 -0.0440
10220W        W53137  23.626  25.176  19.335  0.0176 -0.1666  0.0137
10221W        W53138  24.010  27.999  18.060  0.1752 -0.4801 -0.1954
10222W        W53139  23.065  25.024  20.059  0.0666 -0.2433 -0.1814
10223W        W53140  21.633  29.366  19.388  0.1854 -0.0346 -0.1164
10224W        W53141  24.013  29.216  19.970  0.0312  0.2815 -0.0240
10225W        W53142  23.256  28.750  19.861 -0.2112 -0.1629 -0.0131
10226W        W53143  20.281  23.978  16.471 -0.1664 -0.0391 -0.2157
10227W        W53144  21.727  24.190  17.754  0.3528  0.1492  0.0877
10228W        W53145  22.301  28.666  17.996  0.3229  0.5970  0.1784
10229W        W53146  23.879  27.256  16.758 -0.2151 -0.3452 -0.0862
10230W        W53147  22.784  26.299  18.881  0.2047 -0.1411 -0.1368
10231W        W53148  24.613  28.545  19.480  0.0291 -0.3315 -0.1513
10232W        W53149  24.222  28.030  18.750 -0.3228  0.4651 -0.2590
10233W        W53150  23.141  30.472  20.364  0.2236  0.1446  0.0019
10234W        W53151  23.058  25.093  19.415 -0.0240 -0.0027  0.1007
10235W        W53152  24.111  25.286  18.559 -0.0365  0.0934  0.0010
10236W        W53153  24.994  26.767  18.624  0.2365  0.1595  0.3822
10237W        W53154  21.687  26.756  16.454 -0.6721  0.0260  0.3528
10238W        W53155  24.851  30.066  17.500 -0.2798  0.0952  0.0806
10239W        W53156  23.202  28.366  17.672  0.3587  0.3284  0.1223
10240W        W53157  23.173  27.436  19.043  0.0645  0.1859  0.2091
10241W        W53158  22.090  29.318  19.206  0.0476  0.0459  0.0255
10242W        W53159  25.210  24.837  19.090 -0.3643  0.1156  0.0921
10243W        W53160  22.050  26.063  21.084  0.0248 -0.1127  0.0162
10244W        W53161  23.879  26.798  20.813 -0.3839 -0.0002 -0.2236
10245W        W53162  22.779  26.896  18.210 -0.2073 -0.1111  0.1683
10246W        W53163  23.827  27.771  18.908  0.2886  0.2739 -0.2173
10247W        W53164  23.910  25.068  19.831 -0.0715  0.2261 -0.2565
10248W        W53165  26.205  25.424  16.774 -0.1723 -0.3317 -0.0406
10249W        W53166  23.298  25.076  18.883  0.2198  0.3883  0.1211
10250W        W53167  24.728  29.630  16.522  0.1284 -0.2244 -0.1981
10251W        W53168  25.090  25.952  16.650 -0.0773 -0.3279 -0.0061
10252W        W53169  24.540  26.049  17.568 -0.0991  0.3147 -0.1947
10253W        W53170  21.540  27.797  19.432 -0.2349 -0.0477 -0.1454
10254W        W53171  24.384  29.575  17.192 -0.0798  0.2823  0.1507
10255W        W53172  24.374  28.265  18.356  0.2077  0.1543  0.1459
10256W        W53173  22.586  26.273  16.587 -0.0750  0.0872  0.0036
10257W        W53174  26.566  28.376  17.874 -0.0452 -0.2377 -0.2403
10258W        W53175  23.600  27.449  18.606  0.1747  0.1514 -0.0256
10259W        W53176  24.900  27.093  18.281 -0.2199  0.3191 -0.0302
10260W        W53177  25.240  29.152  18.933  0.1684 -0.0511  0.4555
10261W        W53178  23.637  25.714  19.444 -0.0846 -0.0976  0.0266
10262W        W53179  23.722  25.668  16.114  0.1637 -0.3540  0.1925
10263W        W53180  25.166  27.328  18.663 -0.2202 -0.1983  0.2190
10264W        W53181  21.136  28.723  17.360  0.1009  0.2478  0.0284
10265W        W53182  23.356  26.925  18.280  0.2002 -0.1060 -0.1782
10266W        W53183  23.793  25.203  18.181 -0.1775  0.0284 -0.0128
10267W        W53184  24.180  27.126  21.856  0.2960 -0.0185 -0.1355
10268W        W53185  25.637  27.310  18.502  0.0501  0.0161  0.0761
10269W        W53186  23.772  27.189  18.205  0.2133  0.1617  0.0146
10270W        W53187  23.285  28.654  16.696 -0.1010 -0.2513 -0.0413
10271W        W53188  24.744  26.311  17.990  0.1520 -0.2014  0.0093
10272W        W53189  23.702  26.792  21.278 -0.1546 -0.2322  0.0713
10273W        W53190  24.165  25.619  20.350 -0.1642  0.0237 -0.1110
10274W        W53191  20.710  29.692  17.416 -0.0967 -0.2070 -0.0679
10275W        W53192  26.253  27.224  19.502  0.1853 -0.1193 -0.2306
10276W        W53193  24.354  28.588  19.057  0.1564 -0.0780  0.0009
10277W        W53194  23.612  25.505  20.356  0.1685 -0.0225  0.4901
10278W        W53195  23.760  24.376  16.449 -0.3157 -0.1210  0.1230
10279W        W53196  22.728  30.499  17.603  0.1073  0.0303  0.2264
10280W        W53197  23.230  29.727  16.605  0.0431 -0.3781 -0.0992
10281W        W53198  24.044  25.362  19.307  0.0221  0.0829  0.1148
10282W        W53199  25.395  28.707  19.026 -0.1392  0.0171 -0.0639
10283W        W53200  23.201  28.402  17.136 -0.0066  0.2058 -0.1526
10284W        W53201  25.679  26.398  18.412 -0.1656 -0.0923 -0.2058
10285W        W53202  21.414  28.831  17.978  0.1667  0.0030  0.0542
10286W        W53203  22.418  25.572  19.021  0.0709  0.0708  0.1045
10287W        W53204  22.160  29.834  17.293  0.0801 -0.0695  0.1983
10288W        W53205  22.455  28.352  17.131  0.0895 -0.1072  0.1568
10289W        W53206  23.022  26.926  16.858 -0.0034 -0.3968  0.0332
10290W        W53207  23.682  25.821  17.024  0.1251 -0.1764  0.3248
10291W        W53208  26.211  28.612  18.283 -0.1187 -0.2766 -0.1644
10292W        W53209  21.483  25.661  19.338  0.0789 -0.2941 -0.2022
10293W        W53210  22.687  24.721  17.760 -0.2603  0.0909 -0.4050
10294W        W53211  23.016  27.280  18.115 -0.0325 -0.1380  0.2911
10295W        W53212  23.588  25.409  18.525  0.1666  0.2121 -0.0304
10296W        W53213  24.398  25.202  16.421  0.2872  0.0069  0.0049
10297W        W53214  24.459  29.621  19.190  0.0412 -0.0009  0.0489
10298W        W53215  24.391  25.920  19.922  0.1513  0.2221  0.2116
10299W        W53216  22.098  28.024  16.973  0.3109  0.0082 -0.0111
10300W        W53217  24.657  27.060  17.748 -0.1355  0.1124 -0.2923
10301W        W53218  23.561  24.761  16.615 -0.0542  0.0252 -0.2758
10302W        W53219  23.766  26.156  18.950  0.0679 -0.0082 -0.1428
10303W        W53220  22.198  29.874  19.073  0.0968 -0.0971  0.0497
10304W        W53221  23.674  24.957  17.486  0.1962  0.0882 -0.0092
10305W        W53222  23.079  27.785  17.815 -0.3012  0.0587  0.0886
10306W        W53223  19.960  24.996  19.610  0.1633  0.2689 -0.1369
10307W        W53224  24.185  26.141  20.306 -0.1215  0.2893  0.1043
10308W        W53225  21.942  26.540  19.282  0.0035  0.0233  0.2831
10309W        W53226  24.283  26.421  17.134  0.0177 -0.0842 -0.0973
10310W        W53227  21.359  26.114  19.223 -0.2630 -0.3920 -0.2305
10311W        W53228  24.319  27.147  18.143 -0.2836  0.1386  0.1829
10312W        W53229  22.404  24.134  20.855  0.1807 -0.2155  0.2442
10313W        W53230  22.330  30.321  19.916  0.2066 -0.0944  0.2363
10314W        W53231  22.745  25.946  19.736 -0.4975  0.1181 -0.0602
10315W        W53232  25.944  30.762  18.208  0.1950 -0.2104 -0.1524
10316W        W53233  23.389  26.564  19.090  0.1261  0.2366 -0.0099
10317W        W53234  24.867  27.559  17.950  0.0368  0.0133  0.3933
10318W        W53235  21.546  28.321  18.853  0.1606  0.1618  0.2312
10319W        W53236  22.248  26.314  17.790  0.3595  0.1272  0.3123
10320W        W53237  23.337  24.515  18.762 -0.0853  0.1086 -0.2388
10321W        W53238  22.631  27.150  17.707 -0.2211  0.1031 -0.0990
10322W        W53239  24.172  27.990  16.779 -0.1021  0.3360 -0.0934
10323W        W53240  20.968  28.209  19.797 -0.0590  0.2510 -0.0807
10324W        W53241  24.980  25.415  18.432  0.0391 -0.3016 -0.0573
10325W        W53242  22.489  28.454  18.834 -0.1886 -0.0013 -0.2785
10326W        W53243  20.419  24.475  17.366 -0.3587 -0.1082  0.2403
10327W        W53244  27.783  26.040  20.039  0.1035  0.1743  0.2163
10328W        W53245  25.024  26.444  16.731 -0.4818 -0.4198 -0.0284
10329W        W53246  24.985  25.589  19.893 -0.4178 -0.2681 -0.1395
10330W        W53247  23.452  26.561  19.593 -0.0228 -0.1446 -0.1372
10331W        W53248  25.516  28.381  17.831 -0.1855  0.1423  0.0278
10332W        W53249  20.708  27.250  18.212  0.0311  0.1906 -0.1406
10333W        W53250  23.417  27.180  21.736 -0.0306  0.4133 -0.1479
10334W        W53251  23.626  27.228  20.930  0.0038  0.0059  0.2114
10335W        W53252  24.198  24.686  16.164  0.3317 -0.0408 -0.0906
10336W        W53253  21.942  28.362  17.310 -0.4155 -0.0920  0.0541
10337W        W53254  24.995  27.264  19.822 -0.3332 -0.0761  0.2477
10338W        W53255  24.029  27.176  17.274 -0.1784  0.0115 -0.1033
10339W        W53256  23.241  28.616  18.186 -0.0569  0.2563 -0.1402
10340W        W53257  24.821  26.326  18.946  0.0041  0.1247  0.1630
10341W        W53258  23.304  29.551  20.740 -0.1180 -0.1076  0.0776
10342W        W53259  25.721  27.459  17.806  0.0456 -0.2504  0.0551
10343W        W53260  24.932  28.176  16.319 -0.1977  0.0708 -0.2297
10344W        W53261  23.894  26.402  19.365 -0.0564  0.1841 -0.0612
10345W        W53262  23.883  24.528  20.409  0.1575 -0.0995 -0.2028
10346W        W53263  24.197  29.366  20.440  0.1557  0.2211  0.2734
10347W        W53264  22.285  25.862  19.494  0.1900  0.0917  0.1615
10348W        W53265  25.365  25.741  20.277  0.2326  0.1331  0.1972
10349W        W53266  21.544  26.442  20.799  0.2376  0.2479 -0.0189
10350W        W53267  21.113  27.021  19.863 -0.1928 -0.0757 -0.0883
10351W        W53268  21.419  29.223  18.378 -0.3236  0.2674 -0.0471
10352W        W53269  23.913  29.460  19.010 -0.1567  0.2719 -0.0256
10353W        W53270  25.557  24.297  17.405  0.1560 -0.0518  0.0878
10354W        W53271  26.918  25.196  21.355 -0.0353  0.2160 -0.1612
10355W        W53272  23.234  26.473  18.124 -0.1955 -0.1116  0.1538
10356W        W53273  26.152  26.043  17.147  0.0058 -0.0468 -0.1980
10357W        W53274  23.766  25.251  17.015 -0.0334  0.1108  0.1350
10358W        W53275  26.839  28.610  20.065  0.3091 -0.1555  0.0815
10359W        W53276  24.190  26.213  16.273  0.0645  0.2798 -0.1054
10360W        W53277  23.718  25.975  20.570  0.2195 -0.1536 -0.0368
10361W        W53278  22.755  28.090  18.612 -0.1343 -0.1138  0.1163
10362W        W53279  24.705  28.173  18.920 -0.1660  0.2059  0.2901
10363W        W53280  24.373  25.987  18.034  0.0387  0.0165  0.2858
10364W        W53281  21.669  25.614  18.343 -0.1068 -0.0623  0.3993
10365W        W53282  21.227  29.708  19.146 -0.0494 -0.1879 -0.2318
10366W        W53283  21.873  28.670  17.705  0.0845  0.2658  0.0878
10367W        W53284  24.416  26.332  16.694 -0.1888  0.1401 -0.5641
10368W        W53285  25.291  27.072  17.858 -0.1569 -0.0037 -0.1123
10369W        W53286  23.925  25.604  19.824 -0.0934 -0.0893 -0.0439
10370W        W53287  24.244  27.419  16.379  0.1416  0.1459  0.1022
10371W        W53288  25.733  26.070  21.132  0.1408 -0.0097 -0.2028
10372W        W53289  22.065  29.268  16.407 -0.2760 -0.0329 -0.1139
10373W        W53290  25.107  25.441  17.799 -0.0519  0.2021  0.0047
10374W        W53291  20.640  28.810  16.922 -0.0211  0.2224 -0.1519
10375W        W53292  20.673  28.224  19.397  0.3307 -0.1530 -0.2298
10376W        W53293  21.370  29.246  18.955 -0.0764  0.0301 -0.2463
10377W        W53294  24.932  25.578  19.428 -0.0962 -0.1144 -0.1104
10378W        W53295  22.009  25.866  17.074  0.0998  0.1580  0.0891
10379W        W53296  22.532  27.512  21.908 -0.3225 -0.0416 -0.0932
10380W        W53297  26.751  27.956  17.969  0.1034 -0.1433  0.1994
10381W        W53298  24.258  28.415  20.500 -0.0288  0.0745  0.1648
10382W        W53299  23.279  27.935  17.331  0.1145  0.1636 -0.3158
10383W        W53300  24.639  31.393  19.958  0.3222 -0.0452 -0.0610
10384W        W53301  23.126  26.867  17.775  0.0880 -0.2329  0.2607
10385W        W53302  21.599  28.042  17.136 -0.0817  0.0998 -0.0139
10386W        W53303  23.394  27.256  20.128  0.1343  0.1864  0.0606
10387W        W53304  24.435  26.325  19.476  0.1100  0.1493 -0.1251
10388W        W53305  22.591  27.941  17.856 -0.4525  0.1541 -0.0072
10389W        W53306  22.212  25.633  18.483 -0.0812  0.3168  0.1961
10390W        W53307  22.032  28.563  16.875 -0.1154  0.2623 -0.3532
10391W        W53308  21.308  27.763  20.738 -0.1399 -0.1171 -0.0500
10392W        W53309  21.576  25.929  20.670 -0.0078  0.1669 -0.1425
10393W        W53310  21.479  30.446  17.389  0.1095  0.3088  0.1679
10394W        W53311  24.796  27.924  17.589 -0.0897  0.0498  0.2517
10395W        W53312  25.146  30.193  17.092  0.3674  0.2148  0.0114
10396W        W53313  25.566  28.744  20.270  0.0526  0.1966 -0.2151
10397W        W53314  23.087  25.937  16.456  0.0645 -0.0798  0.0762
10398W        W53315  22.038  28.377  18.566  0.1842  0.0072 -0.1602
10399W        W53316  20.135  29.180  17.578  0.1085 -0.0678 -0.1503
10400W        W53317  23.919  29.191  17.172  0.4874 -0.2537  0.0295
10401W        W53318  23.082  28.859  17.663  0.0329 -0.0009 -0.2981
10402W        W53319  25.638  25.278  20.314  0.0836 -0.1043 -0.2293
10403W        W53320  24.176  25.066  17.235 -0.1334  0.1301 -0.2207
10404W        W53321  24.036  25.672  18.215 -0.2809 -0.1682 -0.1709
10405W        W53322  25.514  25.543  18.224  0.1509 -0.3617  0.1576
10406W        W53323  23.841  28.117  20.358  0.2285  0.0588  0.0059
10407W        W53324  23.239  25.657  18.903 -0.3456  0.0050 -0.3797
10408W        W53325  24.661  26.072  18.494 -0.1024  0.1105  0.1579
10409W        W53326  23.554  27.168  19.655  0.1314  0.2213 -0.0771
10410W        W53327  24.972  25.392  21.656 -0.0726 -0.1812  0.0912
10411W        W53328  24.004  29.811  19.383 -0.1694 -0.0531 -0.3064
10412W        W53329  24.670  28.754  17.091 -0.0945 -0.1044  0.1768
10413W        W53330  22.262  25.498  17.956 -0.0665 -0.1362  0.2252
10414W        W53331  24.437  27.265  19.237  0.1130 -0.2708  0.2883
10415W        W53332  24.702  23.766  20.856  0.0049 -0.0629  0.0077
10416W        W53333  24.007  28.073  17.209 -0.0770  0.0990  0.1252
10417W        W53334  22.793  24.377  18.612 -0.1471  0.0031  0.5298
10418W        W53335  24.018  26.891  17.817 -0.0665 -0.2752 -0.1145
10419W        W53336  22.583  28.054  19.160 -0.0988 -0.1542 -0.2169
10420W        W53337  22.538  27.116  17.082 -0.0824 -0.1042  0.1290
10421W        W53338  22.827  26.482  16.962 -0.3418  0.0062 -0.2807
10422W        W53339  26.462  27.690  17.517  0.1091  0.0119  0.1137
10423W        W53340  22.919  27.296  19.703 -0.2732 -0.1407  0.3570
10424W        W53341  25.237  25.192  22.012  0.0507 -0.0109 -0.0226
10425W        W53342  23.324  25.930  19.798  0.2269 -0.0511 -0.3606
10426W        W53343  25.756  26.469  17.104 -0.2759 -0.0900  0.0090
10427W        W53344  24.107  27.647  19.323 -0.0154  0.2403  0.2289
10428W        W53345  22.916  27.237  20.379  0.0948  0.1636 -0.2633
10429W        W53346  23.462  27.128  17.067  0.0290 -0.1769  0.0390
10430W        W53347  26.447  26.034  19.885  0.2735 -0.3092  0.0010
10431W        W53348  24.673  26.934  16.878 -0.3790  0.2155  0.0299
10432W        W53349  26.015  29.673  20.579 -0.3070 -0.2181  0.1520
10433W        W53350  22.546  26.313  19.496  0.2103  0.2160  0.2117
10434W        W53351  22.955  24.060  17.029 -0.0457  0.3308 -0.0183
10435W        W53352  22.761  25.256  17.779  0.4225  0.0610  0.0093
10436W        W53353  24.272  26.280  19.040 -0.2976  0.0286  0.3527
10437W        W53354  24.170  26.748  19.790  0.0042 -0.0934 -0.0008
10438W        W53355  19.973  22.772  17.543 -0.0272 -0.0013 -0.2197
10439W        W53356  24.990  26.338  15.919  0.0219  0.1827 -0.0895
10440W        W53357  25.423  26.787  18.227 -0.0427  0.1042 -0.1525
10441W        W53358  23.270  27.962  16.861  0.1521 -0.0663  0.0638
10442W        W53359  25.232  28.186  17.429 -0.0519  0.0080 -0.2192
10443W        W53360  24.270  29.834  20.311  0.0256  0.0286 -0.0761
10444W        W53361  22.132  26.591  18.805 -0.1984  0.1840  0.0172
10445W        W53362  24.414  27.961  20.187  0.2561 -0.0969  0.3698
10446W        W53363  25.351  26.778  17.462  0.1532 -0.2130 -0.1079
10447W        W53364  22.963  24.314  17.576 -0.0386  0.0482 -0.0713
10448W        W53365  23.479  26.932  18.762 -0.4853  0.0958  0.3322
10449W        W53366  22.371  28.335  17.654  0.1209 -0.2834 -0.3552
10450W        W53367  25.317  28.203  18.235 -0.2458  0.2937  0.1628
10451W        W53368  22.825  26.174  20.401  0.3597  0.1557  0.1454
10452W        W53369  23.016  30.480  17.040  0.0043 -0.0597  0.1277
10453W        W53370  25.015  24.591  20.114  0.2236  0.0149 -0.1837
10454W        W53371  22.189  28.369  19.299 -0.1032 -0.1044  0.1854
10455W        W53372  22.527  28.155  19.670  0.0944  0.0471  0.0372
10456W        W53373  23.177  26.937  19.372 -0.1021  0.0689 -0.1163
10457W        W53374  24.593  28.649  18.128 -0.1060  0.0316  0.0659
10458W        W53375  23.633  28.296  17.372 -0.0536 -0.1384  0.0787
10459W        W53376  23.293  29.152  17.970  0.1676 -0.1892 -0.1309
10460W        W53377  24.973  26.062  20.739 -0.2347 -0.2863  0.3470
10461W        W53378  22.521  25.957  18.070 -0.0282 -0.2782 -0.0752
10462W        W53379  24.709  26.861  19.052  0.1212  0.0473 -0.1628
10463W        W53380  24.044  24.803  16.596 -0.0053 -0.1916 -0.2839
10464W        W53381  24.160  25.924  17.195  0.0354  0.0206  0.2457
10465W        W53382  22.798  24.415  18.119  0.1834  0.0038 -0.2467
10466W        W53383  23.811  28.755  19.003 -0.0761 -0.1058 -0.1361
10467W        W53384  22.424  27.216  18.122 -0.2844  0.0593 -0.1843
10468W        W53385  23.485  30.011  18.062  0.2395  0.1610 -0.1331
10469W        W53386  22.774  27.552  19.340 -0.2617  0.1578 -0.0223
10470W        W53387  21.893  25.667  19.692 -0.1415 -0.1765  0.2475
10471W        W53388  24.494  26.438  20.022 -0.1453  0.0725  0.2816
10472W        W53389  22.560  27.137  20.003 -0.1028  0.4295  0.1332
10473W        W53390  22.714  24.200  16.502  0.0387  0.0298 -0.0621
10474W        W53391  23.010  28.354  19.624 -0.4157  0.1176 -0.1256
10475W        W53392  20.144  24.125  16.027  0.1308  0.0326  0.1548
10476W        W53393  21.835  25.253  17.853  0.0132  0.0633 -0.2144
10477W        W53394  23.378  29.434  16.165 -0.1918 -0.4766  0.1237
10478W        W53395  24.090  28.612  17.288  0.0574  0.1764  0.0074
10479W        W53396  22.184  26.903  17.835  0.1781  0.2081 -0.0963
10480W        W53397  25.078  30.574  20.657  0.3620 -0.3493  0.1941
10481W        W53398  20.876  29.526  16.702 -0.2566 -0.0303 -0.2446
10482W        W53399  21.250  25.877  20.277  0.1511  0.5108  0.4184
10483W        W53400  21.585  27.887  19.932 -0.3308 -0.0681 -0.0608
10484W        W53401  22.064  26.974  17.070  0.1201 -0.0535 -0.0798
10485W        W53402  24.042  25.295  17.660  0.1706  0.0487  0.2427
10486W        W53403  24.439  28.152  17.850 -0.2543 -0.0732  0.0233
10487W        W53404  23.541  27.592  17.072  0.1172 -0.2444 -0.1354
10488W        W53405  24.498  27.819  19.148  0.0392  0.2717  0.0054
10489W        W53406  24.297  28.845  19.783  0.2944 -0.2558 -0.0107
10490W        W53407  21.200  26.680  18.857 -0.1798 -0.1264  0.1350
10491W        W53408  24.043  27.624  17.070  0.1399 -0.0686 -0.0950
10492W        W53409  26.232  30.004  18.710  0.2483  0.3214 -0.1455
10493W        W53410  22.320  28.795  18.500 -0.1352  0.0103 -0.3205
10494W        W53411  23.095  25.398  18.468 -0.0517  0.0817 -0.2192
10495W        W53412  21.945  27.573  17.145  0.1490 -0.0771 -0.1746
10496W        W53413  22.532  26.797  18.638 -0.2529 -0.0298 -0.1180
10497W        W53414  23.166  26.983  21.371  0.1057  0.2966  0.2684
10498W        W53415  25.862  27.013  18.170  0.0095  0.0074 -0.0043
10499W        W53416  21.316  24.747  17.693 -0.2255  0.0010 -0.0622
10500W        W53417  22.723  27.134  19.088  0.1495  0.3843  0.0217
10501W        W53418  23.477  28.462  19.332 -0.1005 -0.1251  0.2678
10502W        W53419  22.557  27.873  20.814  0.0075  0.1702 -0.4745
10503W        W53420  24.869  27.397  17.007 -0.0125 -0.2633 -0.0337
10504W        W53421  25.812  27.733  18.259  0.0754  0.0574  0.0388
10505W        W53422  25.392  26.850  20.448  0.0486 -0.0962 -0.1169
10506W        W53423  23.105  25.605  19.443 -0.1127  0.0777  0.0650
10507W        W53424  23.681  26.123  17.424  0.0314 -0.5935  0.1614
10508W        W53425  25.427  27.635  17.414  0.0213 -0.0975  0.2155
10509W        W53426  23.252  29.085  20.596  0.0961  0.1484 -0.1777
10510W        W53427  26.903  27.262  20.512  0.0205  0.0428  0.0945
10511W        W53428  25.576  29.050  19.880 -0.2402  0.3244  0.3203
10512W        W53429  24.395  27.699  19.747  0.2011  0.0051  0.1070
10513W        W53430  21.973  22.953  17.918 -0.0806  0.0210  0.0154
10514W        W53431  25.043  27.807  17.166  0.0986  0.1453  0.0807
10515W        W53432  23.512  27.598  18.085  0.3881  0.1341  0.1305
10516W        W53433  24.482  25.593  18.375  0.2902  0.2357  0.1309
10517W        W53434  24.114  26.264  18.494  0.0435 -0.0774  0.0421
10518W        W53435  22.484  25.523  17.157  0.0516 -0.0759 -0.0891
10519W        W53436  21.698  29.897  17.609 -0.0294  0.0554  0.0047
10520W        W53437  23.298  28.702  18.780 -0.2284 -0.0055 -0.1199
10521W        W53438  22.468  28.486  22.779  0.1315  0.0623  0.1838
10522W        W53439  21.462  25.500  20.858 -0.0711 -0.0229  0.0888
10523W        W53440  24.664  27.564  18.506  0.0728  0.2387 -0.0097
10524W        W53441  24.759  27.574  20.096 -0.0697  0.0944 -0.2351
10525W        W53442  22.629  25.577  22.004  0.6925 -0.1244 -0.3242
10526W        W53443  23.754  27.712  19.653 -0.2607 -0.1244 -0.1679
10527W        W53444  23.373  26.676  24.281  0.1422 -0.0614 -0.0375
10528W        W53445  22.431  28.945  22.566 -0.0059  0.0866 -0.2077
10529W        W53446  25.955  28.150  21.837  0.2639  0.0171 -0.0577
10530W        W53447  22.103  29.141  19.648  0.1239  0.2146  0.0793
10531W        W53448  23.336  25.333  23.170 -0.0562  0.1313  0.0368
10532W        W53449  24.510  30.634  24.913 -0.0703 -0.1300 -0.1261
10533W        W53450  20.904  24.974  19.806  0.0626  0.0205  0.1910
10534W        W53451  22.462  23.319  22.358  0.3020 -0.0275  0.1296
10535W        W53452  24.733  29.320  21.680  0.1125 -0.3364 -0.1631
10536W        W53453  21.214  30.312  20.348 -0.1105 -0.0365  0.0755
10537W        W53454  21.196  26.539  24.548 -0.0195 -0.0422 -0.1494
10538W        W53455  23.181  27.382  20.953  0.0550 -0.1474  0.0102
10539W        W53456  22.068  28.670  22.271 -0.1861  0.2091  0.2739
10540W        W53457  22.247  27.708  24.093 -0.4150  0.2541 -0.2023
10541W        W53458  24.272  26.975  25.469  0.1621 -0.0580 -0.1494
10542W        W53459  22.393  27.092  22.579 -0.0885  0.1383  0.3727
10543W        W53460  22.510  25.110  22.161  0.1089  0.0307 -0.0311
10544W        W53461  24.371  26.980  22.967  0.2518  0.2115 -0.1717
10545W        W53462  23.841  27.223  21.493  0.1593 -0.2571  0.0137
10546W        W53463  25.513  25.263  21.546  0.3268 -0.0199  0.3044
10547W        W53464  24.249  27.742  22.437  0.2789 -0.0032  0.1137
10548W        W53465  21.138  28.002  20.224 -0.2910  0.0148  0.1186
10549W        W53466  23.486  28.353  21.172  0.0179  0.1000  0.1631
10550W        W53467  24.312  26.603  23.908 -0.1143  0.0410 -0.0641
10551W        W53468  22.332  25.600  21.078  0.3898  0.4989  0.0923
10552W        W53469  21.425  28.338  19.726  0.1294  0.2153  0.3502
10553W        W53470  23.056  27.675  20.546  0.0619 -0.2100  0.3148
10554W        W53471  24.146  26.926  20.374 -0.3132 -0.0247 -0.0407
10555W        W53472  23.365  27.631  22.280 -0.0019 -0.1143 -0.0291
10556W        W53473  21.446  30.072  23.456 -0.0956  0.3943 -0.0241
10557W        W53474  21.525  27.134  18.582 -0.0469  0.2893 -0.1355
10558W        W53475  25.065  28.899  20.318 -0.1436  0.1882  0.0657
10559W        W53476  21.664  27.997  24.153  0.0699 -0.1120 -0.0712
10560W        W53477  25.136  25.618  22.322  0.0819 -0.1316  0.1037
10561W        W53478  22.728  26.685  21.253  0.0140 -0.1754 -0.1842
10562W        W53479  22.434  27.673  19.817  0.1312  0.1231 -0.2618
10563W        W53480  24.373  28.131  19.472 -0.0115 -0.0609 -0.3295
10564W        W53481  22.879  30.928  24.218  0.2244  0.2575 -0.1640
10565W        W53482  21.877  26.261  22.379 -0.0876  0.4556 -0.0377
10566W        W53483  24.477  28.997  23.852  0.0750 -0.1876 -0.3158
10567W        W53484  22.048  28.886  20.633  0.0262  0.0101 -0.0659
10568W        W53485  24.683  26.806  19.605 -0.0037 -0.0512 -0.1498
10569W        W53486  23.044  27.958  19.366  0.1059 -0.1675  0.2709
10570W        W53487  24.683  27.135  21.112  0.1435 -0.0374  0.1812
10571W        W53488  21.477  25.436  20.366  0.0411 -0.3180 -0.0143
10572W        W53489  22.295  28.801  21.482  0.2490 -0.0497  0.2904
10573W        W53490  20.650  23.887  21.864 -0.0239  0.4299 -0.0021
10574W        W53491  23.010  28.207  21.473 -0.1849 -0.1788  0.0376
10575W        W53492  23.242  27.064  22.322  0.0436 -0.0423  0.1196
10576W        W53493  23.641  26.264  22.013  0.3582 -0.1647 -0.0403
10577W        W53494  23.781  27.795  24.345  0.1023  0.3351 -0.0299
10578W        W53495  24.210  27.079  21.240  0.0355  0.3592  0.3507
10579W        W53496  25.123  27.662  19.135 -0.0040 -0.0984  0.6358
10580W        W53497  24.699  29.680  21.055 -0.0404  0.0145 -0.0790
10581W        W53498  24.522  27.684  21.023 -0.0240 -0.0963 -0.0190
10582W        W53499  21.171  27.319  20.834 -0.1122  0.1569  0.0173
10583W        W53500  21.712  26.874  25.510 -0.0835 -0.1592 -0.0432
10584W        W53501  20.566  27.873  23.995 -0.1396 -0.0685  0.1496
10585W        W53502  21.755  25.274  19.997  0.0225  0.2379  0.2047
10586W        W53503  26.866  28.906  24.820  0.0771 -0.0330 -0.1816
10587W        W53504  23.874  27.859  23.766  0.0149  0.1885  0.2325
10588W        W53505  24.483  25.204  22.622 -0.1314  0.2074  0.0441
10589W        W53506  24.163  26.526  22.133 -0.1780 -0.2304  0.3087
10590W        W53507  26.002  28.979  22.110 -0.2311  0.0514 -0.2481
10591W        W53508  26.475  27.621  18.655 -0.0632  0.0802 -0.0932
10592W        W53509  23.467  24.172  21.099 -0.1589 -0.0131  0.0357
10593W        W53510  22.308  26.750  22.200 -0.2682 -0.1827 -0.1629
10594W        W53511  21.459  28.735  19.063 -0.1192 -0.1395  0.3718
10595W        W53512  24.843  28.412  20.212  0.0491 -0.0492 -0.0204
10596W        W53513  26.687  29.148  23.932 -0.0211 -0.0740 -0.0406
10597W        W53514  25.535  27.809  21.049  0.2432  0.0855 -0.5114
10598W        W53515  22.842  27.373  22.338  0.1167 -0.1074  0.0574
10599W        W53516  25.339  27.177  21.984 -0.1817  0.1528  0.0105
10600W        W53517  24.179  27.749  24.647 -0.1450  0.0604 -0.3303
10601W        W53518  20.409  31.145  19.757 -0.3142  0.5339  0.0389
10602W        W53519  21.822  27.422  24.260  0.2477  0.1723 -0.1835
10603W        W53520  22.029  29.637  19.580 -0.0422  0.1459 -0.2989
10604W        W53521  22.563  25.821  23.363 -0.0060  0.1876 -0.0786
10605W        W53522  23.964  27.333  23.842 -0.0922 -0.2077  0.1669
10606W        W53523  24.190  24.752  21.740 -0.1637  0.2809  0.1967
10607W        W53524  22.757  26.881  22.308  0.1929 -0.3537 -0.0897
10608W        W53525  23.362  24.155  20.619  0.3195  0.0655 -0.2795
10609W        W53526  22.071  27.446  20.154 -0.0823 -0.3642  0.0064
10610W        W53527  24.059  27.568  21.209  0.0634  0.1570 -0.0771
10611W        W53528  25.175  25.253  20.233 -0.0736 -0.0264  0.3416
10612W        W53529  23.161  25.860  20.294  0.0792 -0.3196  0.0756
10613W        W53530  22.545  28.263  21.423  0.1874 -0.3718 -0.0481
10614W        W53531  20.944  24.997  23.545  0.0766 -0.1292  0.0498
10615W        W53532  20.364  28.316  23.249 -0.1823 -0.0065 -0.0906
10616W        W53533  21.621  27.341  21.725 -0.0973 -0.0450  0.0873
10617W        W53534  24.871  27.188  24.252 -0.1401  0.0842  0.2724
10618W        W53535  21.491  26.019  21.203  0.0760 -0.1884  0.1099
10619W        W53536  22.719  25.699  20.477  0.0884 -0.1904  0.0163
10620W        W53537  25.279  29.045  21.561  0.0910 -0.0550  0.1486
10621W        W53538  19.723  27.408  20.914 -0.0851  0.3406  0.0902
10622W        W53539  24.849  26.619  21.288  0.1276 -0.3375  0.0518
10623W        W53540  23.573  29.874  21.371 -0.1130  0.2273 -0.0457
10624W        W53541  24.057  27.680  21.726  0.3316 -0.0760  0.1085
10625W        W53542  23.272  26.564  22.165  0.2558  0.1246  0.0129
10626W        W53543  24.073  27.061  22.424  0.2359 -0.0649  0.1709
10627W        W53544  22.261  25.631  21.623  0.1512  0.0720 -0.2116
10628W        W53545  22.254  29.738  23.331  0.4454  0.0630 -0.0709
10629W        W53546  23.861  28.151  20.892 -0.2321 -0.1531  0.0727
10630W        W53547  21.956  26.557  21.946  0.2717 -0.2266  0.1700
10631W        W53548  23.902  28.811  22.112  0.2356  0.1164  0.1153
10632W        W53549  24.248  26.168  22.453 -0.1427  0.1875  0.0277
10633W        W53550  24.850  28.357  22.935  0.0306 -0.1666 -0.0580
10634W        W53551  23.577  27.048  22.661  0.3489 -0.0318  0.1016
10635W        W53552  24.937  27.662  21.301  0.0590 -0.1010  0.1368
10636W        W53553  24.663  26.740  22.610 -0.2219 -0.0752 -0.0454
10637W        W53554  22.918  26.372  20.884  0.1806 -0.1513  0.0948
10638W        W53555  22.073  27.677  21.961 -0.0598  0.1291  0.3532
10639W        W53556  20.247  30.211  20.906  0.1509  0.2490  0.1847
10640W        W53557  20.341  27.302  21.413  0.3464  0.1976 -0.0847
10641W        W53558  24.855  27.303  21.943  0.1326  0.3237 -0.1327
10642W        W53559  24.841  25.691  20.369  0.1346  0.0950 -0.1614
10643W        W53560  22.606  27.072  25.436  0.0204  0.0313 -0.3034
10644W        W53561  24.659  27.622  24.107  0.3397 -0.3982 -0.1753
10645W        W53562  22.433  26.580  20.426  0.0710 -0.0523 -0.0359
10646W        W53563  23.565  27.574  25.676 -0.1045 -0.0424  0.2943
10647W        W53564  24.941  25.603  20.935 -0.0034  0.3483  0.2084
10648W        W53565  25.165  23.944  20.010  0.2466  0.0304 -0.2579
10649W        W53566  24.276  29.193  22.900  0.0225  0.0407 -0.2014
10650W        W53567  25.876  28.277  21.321  0.1409  0.3600 -0.2796
10651W        W53568  24.000  25.033  20.732  0.0000 -0.1810  0.1808
10652W        W53569  22.798  26.379  22.538  0.2988 -0.3033  0.2230
10653W        W53570  21.242  28.778  22.898  0.1376 -0.1991 -0.0796
10654W        W53571  23.852  27.377  20.459  0.4165 -0.0537  0.2054
10655W        W53572  24.429  27.949  21.425 -0.0856 -0.0050  0.0872
10656W        W53573  22.666  27.562  22.781  0.2071  0.0337  0.0040
10657W        W53574  24.046  27.226  19.497 -0.0025 -0.1536  0.0350
10658W        W53575  21.024  28.017  25.242 -0.0155  0.2696  0.2840
10659W        W53576  24.335  28.045  22.046  0.1912 -0.0651  0.3468
10660W        W53577  25.248  27.837  19.660  0.1638  0.4942 -0.0325
10661W        W53578  21.761  26.682  24.985  0.0308 -0.0177  0.2834
10662W        W53579  23.446  26.922  20.432 -0.0667  0.2637 -0.2664
10663W        W53580  22.818  28.008  22.983  0.0571 -0.1389 -0.0258
10664W        W53581  20.520  28.161  18.760  0.1145  0.1717  0.1458
10665W        W53582  24.884  27.405  23.199  0.2747  0.1097 -0.0128
10666W        W53583  23.702  23.966  25.217 -0.0915  0.0288 -0.0780
10667W        W53584  21.697  26.210  23.295 -0.0128 -0.3034  0.1222
10668W        W53585  24.598  26.060  23.774 -0.1136  0.0571  0.1113
10669W        W53586  24.848  26.213  19.716  0.1248  0.1942  0.0835
10670W        W53587  23.692  27.901  22.599  0.1123  0.0355  0.1488
10671W        W53588  23.271  27.442  17.486  0.3383 -0.1414  0.3711
10672W        W53589  23.530  27.055  23.774  0.0281  0.0664  0.3314
10673W        W53590  23.185  28.666  24.100 -0.1108  0.3488  0.1074
10674W        W53591  21.678  27.018  23.110 -0.0650 -0.1810 -0.0300
10675W        W53592  23.232  29.591  21.790  0.0871  0.0861  0.1779
10676W        W53593  23.271  25.943  20.828  0.3431  0.0224 -0.2838
10677W        W53594  25.163  27.639  24.079  0.0129 -0.2099  0.1673
10678W        W53595  22.606  27.219  23.133  0.1898  0.1177 -0.4765
10679W        W53596  20.420  29.333  19.695 -0.1808 -0.3541  0.0049
10680W        W53597  23.647  27.423  19.203 -0.3042  0.2666 -0.2412
10681W        W53598  23.094  26.284  23.040  0.1937 -0.0839  0.0347
10682W        W53599  25.809  28.639  20.840 -0.1709 -0.1725 -0.1792
10683W        W53600  23.093  29.694  21.175  0.0905 -0.2060 -0.0557
10684W        W53601  23.450  28.096  21.756  0.0731 -0.1310 -0.0731
10685W        W53602  22.701  27.358  20.839  0.1709 -0.0292 -0.0080
10686W        W53603  24.998  23.580  24.332 -0.2433 -0.0406 -0.2411
10687W        W53604  23.041  30.510  21.395 -0.3373 -0.2200  0.3017
10688W        W53605  21.568  26.914  20.901  0.1622  0.0018  0.1157
10689W        W53606  22.677  26.132  21.732  0.1262 -0.1160 -0.3100
10690W        W53607  23.189  26.220  21.765 -0.0320 -0.1291 -0.1030
10691W        W53608  26.295  27.869  19.878 -0.0372  0.1952 -0.1590
10692W        W53609  22.898  26.786  24.410 -0.1884  0.2914 -0.0297
10693W        W53610  23.862  26.654  21.729  0.1462  0.4121 -0.1797
10694W        W53611  20.886  29.318  23.397 -0.2815 -0.2803 -0.0751
10695W        W53612  22.813  27.634  24.226  0.2862 -0.0368 -0.1805
10696W        W53613  24.148  24.466  20.917  0.0067 -0.2677  0.0719
10697W        W53614  22.742  27.923  22.466  0.2217 -0.1065 -0.0420
10698W        W53615  24.214  27.830  23.392  0.2297  0.0001  0.0857
10699W        W53616  20.887  27.351  21.327 -0.0849 -0.2643  0.1028
10700W        W53617  26.255  27.204  21.882  0.1092 -0.0507  0.2550
10701W        W53618  24.013  26.893  23.640  0.2768 -0.4715  0.2077
10702W        W53619  19.973  28.262  21.501 -0.1514  0.2254 -0.0416
10703W        W53620  24.537  30.778  20.800  0.1063 -0.0883 -0.0406
10704W        W53621  22.468  25.090  21.152  0.1428 -0.2606 -0.1704
10705W        W53622  23.527  27.647  21.782 -0.1449 -0.0166  0.0013
10706W        W53623  21.110  27.346  24.629 -0.2846  0.2731 -0.1631
10707W        W53624  25.489  29.618  22.756 -0.3184 -0.1361  0.0662
10708W        W53625  23.086  27.283  23.444  0.2019  0.1604 -0.1483
10709W        W53626  21.118  27.405  21.833  0.0027 -0.3638 -0.0119
10710W        W53627  26.063  27.023  22.718 -0.0885 -0.0908  0.2105
10711W        W53628  25.928  28.443  23.804 -0.1471 -0.1328 -0.1941
10712W        W53629  24.863  28.059  24.160  0.3602  0.0415 -0.1712
10713W        W53630  22.432  27.366  25.120  0.1736 -0.1909 -0.2406
10714W        W53631  23.385  24.635  23.572  0.1211  0.2502 -0.3031
10715W        W53632  26.937  29.670  21.057  0.1033 -0.0705 -0.3345
10716W        W53633  23.056  29.239  24.810  0.1231 -0.1440  0.2683
10717W        W53634  22.396  26.299  22.231 -0.0470 -0.1875  0.0043
10718W        W53635  21.520  24.873  20.481  0.1339 -0.2172 -0.2893
10719W        W53636  22.349  30.268  21.012  0.1165 -0.0218 -0.0768
10720W        W53637  25.127  28.606  21.995  0.0613 -0.0755 -0.0644
10721W        W53638  23.064  27.773  23.797  0.2040  0.1799 -0.0455
10722W        W53639  21.888  28.866  18.226  0.0241 -0.0630 -0.1045
10723W        W53640  23.462  28.610  23.281  0.1561  0.2244 -0.0787
10724W        W53641  24.450  25.363  20.759 -0.0525  0.3721  0.2914
10725W        W53642  24.774  27.566  19.517  0.0558 -0.0725  0.1616
10726W        W53643  21.828  25.738  20.205  0.0733  0.0767  0.0653
10727W        W53644  26.770  28.365  22.262 -0.1250 -0.0120 -0.0526
10728W        W53645  26.666  28.194  19.824 -0.2219 -0.0429  0.0908
10729W        W53646  23.777  25.872  24.893  0.0670  0.0338 -0.1941
10730W        W53647  22.021  28.280  24.274  0.3726  0.0587 -0.1289
10731W        W53648  25.855  26.714  20.756 -0.1472  0.2148 -0.0926
10732W        W53649  20.343  28.285  22.703  0.1773  0.0356  0.1076
10733W        W53650  21.951  29.734  24.401 -0.1255  0.0653  0.0013
10734W        W53651  22.322  27.960  24.884 -0.1678  0.0257  0.0662
10735W        W53652  25.211  26.163  21.146  0.2069 -0.0447 -0.2031
10736W        W53653  22.759  26.847  20.769  0.0582 -0.0392 -0.0875
10737W        W53654  24.846  28.397  21.163  0.0129 -0.0239 -0.1022
10738W        W53655  26.358  29.210  23.341 -0.1778  0.2086  0.0986
10739W        W53656  23.348  28.180  20.604  0.2768  0.3775  0.0235
10740W        W53657  24.970  26.580  20.743  0.3720 -0.0644 -0.1204
10741W        W53658  22.520  26.003  20.895  0.0748 -0.2980  0.0731
10742W        W53659  25.226  28.019  21.492  0.2354  0.0039  0.1702
10743W        W53660  25.033  27.921  20.337 -0.1810  0.1395  0.0008
10744W        W53661  22.339  29.355  20.482  0.0400  0.1228  0.1147
10745W        W53662  22.235  25.097  21.709 -0.3261  0.1664 -0.0411
10746W        W53663  25.157  27.898  22.662  0.0648 -0.1054 -0.1557
10747W        W53664  21.812  26.206  21.540 -0.3578 -0.2381  0.0042
10748W        W53665  24.526  26.922  22.097 -0.0454 -0.0569 -0.2541
10749W        W53666  23.925  28.513  25.383 -0.2693  0.1846 -0.1036
10750W        W53667  24.297  28.600  24.566 -0.0596  0.1327  0.1688
10751W        W53668  23.081  25.923  23.387 -0.1630  0.1880  0.0650
10752W        W53669  22.481  30.719  21.828 -0.1280 -0.1103  0.2194
10753W        W53670  23.854  25.944  21.142 -0.2329 -0.2726 -0.1581
10754W        W53671  24.240  24.535  25.075 -0.0168 -0.2338 -0.2632
10755W        W53672  28.436  27.693  20.231  0.2662 -0.1310 -0.1832
10756W        W53673  23.505  28.976  20.205  0.1134  0.1522  0.0801
10757W        W53674  22.001  25.800  23.324  0.1273  0.3341  0.3181
10758W        W53675  25.293  27.151  23.827  0.0546  0.2949  0.1739
10759W        W53676  22.677  24.446  19.985 -0.1057 -0.0197  0.0253
10760W        W53677  23.222  25.283  23.770  0.2346 -0.2639 -0.2578
10761W        W53678  24.279  26.538  18.054 -0.0799  0.1191  0.2467
10762W        W53679  23.404  26.679  21.698 -0.2208 -0.0097 -0.0112
10763W        W53680  24.789  25.158  19.834 -0.0946  0.1906  0.1854
10764W        W53681  20.902  23.921  24.493  0.0736 -0.0120  0.0399
10765W        W53682  21.724  30.584  22.267  0.0681 -0.0020 -0.0701
10766W        W53683  23.296  26.755  20.924  0.1098 -0.1123  0.2712
10767W        W53684  23.519  29.403  21.281 -0.1851  0.1053  0.0343
10768W        W53685  25.891  26.553  21.435 -0.3371  0.1259 -0.1044
10769W        W53686  22.008  28.373  22.665 -0.4617  0.0831  0.2414
10770W        W53687  22.474  26.735  23.347  0.0612  0.1720  0.2477
10771W        W53688  23.966  26.912  24.160  0.1639 -0.0433 -0.2300
10772W        W53689  23.768  29.678  20.337  0.0568 -0.0883 -0.0247
10773W        W53690  22.288  25.676  23.786  0.0977 -0.1601 -0.1046
10774W        W53691  21.499  28.264  22.442  0.1800  0.1745 -0.2191
10775W        W53692  23.779  27.948  22.125  0.0681  0.3776  0.1791
10776W        W53693  22.111  29.437  22.154  0.1422  0.1129 -0.1475
10777W        W53694  23.984  25.788  23.716  0.0630 -0.0565  0.2101
10778W        W53695  24.601  29.111  20.678 -0.0194  0.1386  0.1485
10779W        W53696  23.500  28.856  20.971  0.5558  0.0189 -0.2899
10780W        W53697  26.012  27.371  23.052 -0.0066 -0.1050 -0.0880
10781W        W53698  21.452  28.977  23.824  0.3552  0.2042 -0.3551
10782W        W53699  22.928  26.655  21.808 -0.0937  0.1210 -0.0677
10783W        W53700  24.566  28.489  22.541  0.0002 -0.3330 -0.2739
10784W        W53701  26.984  29.823  21.601 -0.0911  0.1725  0.0834
10785W        W53702  22.687  27.247  21.380 -0.1889 -0.1869  0.0583
10786W        W53703  22.581  27.210  24.225  0.0382  0.0159  0.1962
10787W        W53704  24.061  27.628  25.208 -0.0840 -0.1725 -0.1003
10788W        W53705  24.974  26.965  22.298  0.1125 -0.0284  0.3631
10789W        W53706  22.607  25.461  19.545 -0.1847 -0.2119 -0.6748
10790W        W53707  22.961  25.977  21.307 -0.0635  0.0981  0.0110
10791W        W53708  21.696  28.620  22.999  0.2050 -0.1708  0.2199
10792W        W53709  20.915  27.367  23.649 -0.0737  0.0067  0.0426
10793W        W53710  22.220  29.159  21.153 -0.1818  0.0086  0.0238
10794W        W53711  24.333  29.937  20.795 -0.0832  0.0010  0.1387
10795W        W53712  21.740  27.594  20.882 -0.6850 -0.5164  0.0374
10796W        W53713  24.033  30.635  20.872 -0.0968  0.3398  0.0500
10797W        W53714  23.428  25.762  21.294 -0.0284  0.0971 -0.0934
10798W        W53715  21.966  26.649  23.405 -0.1474 -0.0947 -0.1675
10799W        W53716  19.862  29.472  20.749  0.0153  0.0356  0.1474
10800W        W53717  25.126  28.803  21.055  0.2486 -0.2638 -0.5321
10801W        W53718  21.354  29.786  20.225  0.2922 -0.1976 -0.1036
10802W        W53719  24.032  29.399  24.871 -0.0627  0.2114  0.1198
10803W        W53720  23.726  25.035  21.139  0.0549 -0.1886 -0.0676
10804W        W53721  23.840  29.551  21.656 -0.1885  0.4174  0.1462
10805W        W53722  23.614  26.390  21.000  0.1390 -0.0263  0.2186
10806W        W53723  21.998  29.017  21.858 -0.0123  0.0631 -0.1887
10807W        W53724  24.430  27.535  22.054 -0.4021  0.1194  0.0223
10808W        W53725  22.375  26.511  20.923 -0.1281 -0.1485 -0.1642
10809W        W53726  21.262  27.688  23.880  0.0921  0.0046  0.1862
10810W        W53727  24.658  26.469  25.386 -0.1423  0.0401  0.0126
10811W        W53728  21.810  27.904  22.590 -0.1550  0.0291  0.1658
10812W        W53729  23.632  30.184  19.241 -0.1951 -0.1057  0.0238
10813W        W53730  20.248  25.949  20.455  0.0221 -0.1860  0.0790
10814W        W53731  23.103  27.522  21.489  0.1519 -0.1242 -0.0856
10815W        W53732  24.154  25.256  21.738 -0.1597 -0.2850 -0.0690
10816W        W53733  24.922  28.138  19.396 -0.3004 -0.1850 -0.0475
10817W        W53734  25.604  27.623  22.684  0.1897 -0.0919 -0.0752
10818W        W53735  22.254  29.415  22.754  0.1438 -0.0538  0.1757
10819W        W53736  24.055  28.342  22.451 -0.2963  0.1926 -0.0042
10820W        W53737  20.339  28.072  21.835  0.1882 -0.3035  0.0289
10821W        W53738  21.171  26.416  23.718  0.1925  0.1898 -0.1154
10822W        W53739  25.308  28.654  19.745  0.1749 -0.0376  0.0901
10823W        W53740  22.370  25.965  22.570 -0.2532  0.3905 -0.1919
10824W        W53741  25.764  26.540  22.431  0.1349 -0.1906 -0.4298
10825W        W53742  21.487  25.977  22.947  0.2154 -0.2294 -0.2433
10826W        W53743  23.374  25.303  21.400 -0.0442  0.0638 -0.0562
10827W        W53744  23.500  30.342  21.569 -0.0198 -0.0600 -0.0431
10828W        W53745  21.185  27.809  22.651  0.3992  0.0087  0.0636
10829W        W53746  22.296  28.343  20.762  0.0348 -0.1827  0.2570
10830W        W53747  26.291  27.797  20.403 -0.1464 -0.1966 -0.1296
10831W        W53748  23.661  27.944  18.435 -0.1817  0.1115 -0.2094
10832W        W53749  23.055  29.310  23.866 -0.2040 -0.0635  0.0878
10833W        W53750  22.750  27.747  21.247 -0.0388 -0.0068  0.0441
10834W        W53751  23.844  26.267  19.909 -0.0793  0.1868 -0.0636
10835W        W53752  21.982  26.041  22.870 -0.0070 -0.0694 -0.1108
10836W        W53753  23.121  27.646  22.710 -0.1377  0.2106  0.1881
10837W        W53754  24.044  27.320  22.833  0.0912 -0.0752  0.0842
10838W        W53755  20.802  24.996  20.317  0.1761 -0.1254  0.2696
10839W        W53756  24.175  28.915  20.651 -0.3325 -0.0408  0.1237
10840W        W53757  23.842  26.012  22.709  0.0037  0.0635 -0.2056
10841W        W53758  22.228  28.659  19.735 -0.0834 -0.0829  0.3018
10842W        W53759  25.045  26.256  21.757 -0.0068 -0.1543 -0.2225
10843W        W53760  23.531  27.780  21.257  0.0574 -0.2649  0.0499
10844W        W53761  20.000  26.662  21.176  0.2188 -0.1962  0.0743
10845W        W53762  25.316  30.258  20.959  0.3330  0.1221  0.1768
10846W        W53763  25.055  28.004  20.836 -0.1197  0.1183  0.0322
10847W        W53764  25.096  26.129  22.343 -0.0677  0.0004 -0.0664
10848W        W53765  21.896  28.036  23.082 -0.1343  0.0004 -0.0958
10849W        W53766  22.110  26.906  22.967 -0.0043  0.2983 -0.2870
10850W        W53767  26.267  27.178  23.954  0.0784  0.0845  0.0001
10851W        W53768  24.300  25.972  24.535  0.0787 -0.0507 -0.3872
10852W        W53769  22.747  28.613  21.682 -0.0650  0.2487 -0.1602
10853W        W53770  25.318  26.335  20.426  0.2184  0.1309 -0.0559
10854W        W53771  23.967  30.227  22.180  0.0481 -0.1759 -0.4233
10855W        W53772  22.993  27.696  21.981  0.2047  0.0423 -0.0270
10856W        W53773  22.140  27.675  20.602 -0.0700  0.0582  0.1602
10857W        W53774  21.381  27.728  24.443  0.1162 -0.0230  0.1320
10858W        W53775  22.026  30.176  22.152 -0.0540  0.0603  0.0815
10859W        W53776  22.464  28.862  22.030 -0.0245 -0.1897 -0.0571
10860W        W53777  25.217  28.524  21.458  0.0185 -0.1641  0.2815
10861W        W53778  23.425  25.059  22.423 -0.0495 -0.1594 -0.1835
10862W        W53779  25.282  27.576  21.683 -0.3027  0.3169 -0.2428
10863W        W53780  23.102  24.806  23.137  0.2839 -0.0365 -0.3870
10864W        W53781  24.643  25.752  22.535  0.1018 -0.2096 -0.3673
10865W        W53782  24.954  24.732  21.138  0.2205  0.2462 -0.4002
10866W        W53783  23.980  28.738  20.204  0.0958 -0.1045 -0.1278
10867W        W53784  20.972  26.681  19.365 -0.1029 -0.0961  0.0067
10868W        W53785  23.163  26.904  19.872  0.2522  0.0405  0.0350
10869W        W53786  24.561  26.411  21.656  0.1869 -0.1608 -0.1862
10870W        W53787  23.423  25.887  23.014 -0.1563  0.1306 -0.1249
10871W        W53788  22.343  27.979  22.779  0.0551  0.0669 -0.2676
10872W        W53789  24.216  27.283  20.783  0.5266 -0.0083 -0.2644
10873W        W53790  21.760  26.403  23.856  0.0820 -0.2592  0.0945
10874W        W53791  25.139  26.923  21.053  0.0648 -0.1377  0.1438
10875W        W53792  23.418  26.414  23.431  0.2069  0.0991 -0.1948
10876W        W53793  21.606  25.866  21.947  0.0006 -0.1040  0.1731
10877W        W53794  25.045  29.316  20.802 -0.2487 -0.1822 -0.0092
10878W        W53795  25.764  26.951  22.068 -0.2008 -0.0335  0.2577
10879W        W53796  22.260  26.516  22.698 -0.2216  0.1304 -0.3060
10880W        W53797  26.520  29.137  22.803 -0.2976  0.3054  0.1113
10881W        W53798  20.508  28.970  20.371 -0.1201 -0.0596  0.1550
10882W        W53799  23.213  27.821  25.400 -0.3236  0.1501 -0.0121
10883W        W53800  22.935  27.190  21.862  0.0041 -0.1705 -0.0891
10884W        W53801  22.174  27.308  21.594 -0.1619 -0.0985  0.0650
10885W        W53802  23.077  27.200  22.875 -0.0795 -0.0906 -0.1237
10886W        W53803  24.695  27.644  20.564 -0.3573  0.0215 -0.0627
10887W        W53804  27.814  28.593  21.311  0.1175 -0.1232  0.0023
10888W        W53805  24.793  27.791  21.776 -0.0788  0.2929 -0.2407
10889W        W53806  21.751  29.091  21.032 -0.0607 -0.0956 -0.3813
10890W        W53807  21.749  24.891  26.181  0.0952  0.1108 -0.4890
10891W        W53808  25.640  28.762  21.329  0.1115 -0.0915  0.1752
10892W        W53809  23.165  27.570  24.957 -0.2185 -0.1503  0.0474
10893W        W53810  26.316  27.137  23.401 -0.2275  0.1993 -0.0827
10894W        W53811  22.605  24.843  22.656  0.0225  0.3512  0.0806
10895W        W53812  23.419  25.392  19.826  0.1283  0.0300  0.0195
10896W        W53813  22.682  26.070  25.656 -0.0983  0.0283 -0.0620
10897W        W53814  21.156  27.395  25.179 -0.2999  0.0095 -0.1751
10898W        W53815  25.706  28.012  22.998  0.3008  0.0045  0.0491
10899W        W53816  23.857  24.655  22.182 -0.0967 -0.2198 -0.3828
10900W        W53817  22.771  25.959  22.266 -0.0649 -0.1794 -0.0994
10901W        W53818  23.794  28.937  21.631 -0.2173  0.1383 -0.1849
10902W        W53819  23.483  29.535  23.776  0.0243  0.0330  0.1361
10903W        W53820  23.722  26.914  19.268  0.0266  0.0799 -0.0070
10904W        W53821  22.870  27.981  24.683  0.2546  0.2694  0.1118
10905W        W53822  24.481  26.725  20.932  0.0020  0.1185 -0.0099
10906W        W53823  25.058  28.620  22.471  0.0988 -0.1046  0.2170
10907W        W53824  23.492  27.733  20.199 -0.1541  0.0962  0.2072
10908W        W53825  25.391  27.340  21.246  0.1301 -0.1905  0.4755
10909W        W53826  22.651  28.547  19.973 -0.3744 -0.4379  0.0555
10910W        W53827  25.911  30.060  24.723 -0.1348 -0.1371 -0.1807
10911W        W53828  22.108  28.631  23.857  0.1188  0.2530 -0.1429
10912W        W53829  23.622  26.228  21.498 -0.2471  0.1309  0.3486
10913W        W53830  22.142  26.916  24.354 -0.1405  0.0849  0.3336
10914W        W53831  24.131  26.326  20.871 -0.1604 -0.2829 -0.0038
10915W        W53832  21.935  29.256  23.155 -0.0331  0.0625  0.1046
10916W        W53833  25.596  26.729  22.920 -0.2438  0.3484  0.2503
10917W        W53834  22.663  27.704  23.317  0.4414 -0.0754  0.0955
10918W        W53835  23.205  27.721  23.182 -0.0584  0.0661 -0.0357
10919W        W53836  23.293  29.540  25.110  0.0588  0.0765 -0.0996
10920W        W53837  23.147  27.949  21.007  0.2096 -0.2241  0.0687
10921W        W53838  24.460  28.243  26.597 -0.2022 -0.0926 -0.1598
10922W        W53839  24.501  27.162  25.923 -0.0778 -0.2623 -0.2428
10923W        W53840  26.140  26.666  21.844  0.0833 -0.0465 -0.0483
10924W        W53841  23.505  27.500  23.505 -0.0141 -0.1203 -0.1982
10925W        W53842  20.951  26.182  25.203  0.1469 -0.1656 -0.3577
10926W        W53843  24.209  27.404  24.323  0.3275 -0.0583 -0.0537
10927W        W53844  19.623  24.745  28.588  0.4681 -0.2516  0.5937
10928W        W53845  22.804  28.291  27.945  0.2412  0.0292  0.0912
10929W        W53846  23.425  28.534  27.470 -0.0271  0.2470 -0.2128
10930W        W53847  23.907  28.490  24.170  0.3500 -0.1137 -0.0749
10931W        W53848  21.932  26.121  26.392 -0.1685 -0.4490  0.1145
10932W        W53849  21.722  28.567  26.390 -0.0788 -0.1797  0.2258
10933W        W53850  21.937  25.525  22.783  0.0859 -0.1237 -0.1740
10934W        W53851  22.446  25.532  25.644 -0.1520  0.1316  0.1739
10935W        W53852  22.897  28.781  26.761 -0.2082 -0.4418  0.0752
10936W        W53853  21.858  28.541  25.433 -0.0672  0.5861  0.3558
10937W        W53854  21.154  27.274  26.587  0.0013 -0.0317  0.1533
10938W        W53855  24.262  26.464  24.642 -0.0914 -0.1370  0.0373
10939W        W53856  23.792  28.731  24.603 -0.2437  0.0908 -0.1118
10940W        W53857  23.572  23.829  26.691  0.0318 -0.0187 -0.1318
10941W        W53858  23.034  26.665  29.693  0.0253 -0.3672  0.2222
10942W        W53859  23.119  28.800  22.237 -0.1517 -0.3895  0.0755
10943W        W53860  23.506  27.615  23.974 -0.1937  0.0737 -0.1597
10944W        W53861  21.444  24.365  26.684  0.1138 -0.1382 -0.4611
10945W        W53862  24.084  27.321  26.243  0.0158  0.1826  0.1561
10946W        W53863  24.565  27.597  26.926 -0.0120  0.2509  0.0095
10947W        W53864  23.292  28.097  27.916 -0.0479  0.0345  0.1079
10948W        W53865  22.320  30.257  25.218 -0.3481 -0.0603 -0.2522
10949W        W53866  24.553  31.174  25.718  0.0345  0.2148 -0.0984
10950W        W53867  23.506  26.759  28.869 -0.1730 -0.0904 -0.1885
10951W        W53868  21.149  26.867  26.104  0.2118  0.4191  0.0952
10952W        W53869  22.208  28.444  26.192 -0.0392  0.0885 -0.4533
10953W        W53870  23.390  28.406  25.330 -0.1975  0.3404  0.0134
10954W        W53871  24.498  29.478  26.384  0.1515  0.0042 -0.0023
10955W        W53872  25.888  27.916  28.427 -0.2631 -0.1083  0.0014
10956W        W53873  24.277  29.638  27.638  0.1246 -0.0329  0.3029
10957W        W53874  21.135  27.999  23.452 -0.0021 -0.0033 -0.0469
10958W        W53875  23.528  30.815  27.214 -0.1393 -0.0487 -0.4885
10959W        W53876  23.705  29.573  27.501  0.0201 -0.0479  0.1021
10960W        W53877  24.400  27.565  28.222 -0.0243 -0.0053  0.2142
10961W        W53878  23.437  28.027  26.494 -0.1557  0.0162 -0.0360
10962W        W53879  22.881  28.841  25.739 -0.3182 -0.1697 -0.0874
10963W        W53880  23.282  27.207  25.419  0.3504  0.0164 -0.1653
10964W        W53881  24.049  27.013  28.094  0.1259 -0.3268 -0.0746
10965W        W53882  20.602  27.581  25.173  0.2235  0.0894 -0.1834
10966W        W53883  24.055  24.018  28.217 -0.0685 -0.1390  0.2794
10967W        W53884  22.511  31.244  22.927 -0.2940 -0.0714 -0.0165
10968W        W53885  24.727  28.837  22.847 -0.1407  0.0109 -0.0739
10969W        W53886  22.230  27.491  24.576  0.0520 -0.1033 -0.1908
10970W        W53887  24.205  28.549  22.889 -0.3879  0.2437 -0.0586
10971W        W53888  24.651  24.352  25.383  0.3432 -0.1847  0.0901
10972W        W53889  22.744  28.536  26.145 -0.3477 -0.0781  0.1759
10973W        W53890  24.320  26.958  27.704  0.0099 -0.0931  0.2777
10974W        W53891  23.511  28.780  27.918 -0.2184 -0.1176 -0.2576
10975W        W53892  22.597  27.444  25.761  0.0534 -0.0649 -0.0190
10976W        W53893  23.793  26.123  27.841  0.0938 -0.0900  0.4539
10977W        W53894  23.562  27.247  28.082  0.1004  0.2127 -0.1832
10978W        W53895  23.424  27.581  27.707  0.0892  0.1070  0.2002
10979W        W53896  26.177  28.700  21.742  0.3869 -0.2827 -0.1512
10980W        W53897  24.421  28.563  25.434 -0.3612  0.0842 -0.1901
10981W        W53898  23.605  29.988  23.526 -0.0300  0.0693  0.3434
10982W        W53899  19.957  29.902  21.196  0.1390  0.2399 -0.2017
10983W        W53900  21.935  29.754  26.762 -0.2413 -0.1543 -0.2043
10984W        W53901  23.834  28.520  27.176 -0.0579 -0.3479 -0.2105
10985W        W53902  21.957  27.668  25.053  0.3407 -0.3799 -0.1805
10986W        W53903  26.244  29.032  26.334  0.0708  0.2317  0.2724
10987W        W53904  20.454  25.412  27.511 -0.1563  0.1845  0.4384
10988W        W53905  24.782  26.768  23.931  0.0066 -0.1134 -0.1196
10989W        W53906  23.558  27.586  26.190 -0.0247  0.1158  0.0550
10990W        W53907  24.555  28.617  26.232 -0.1680  0.1155 -0.0374
10991W        W53908  25.211  29.567  23.646 -0.2700 -0.0269  0.2870
10992W        W53909  23.716  26.183  24.496  0.1619 -0.3711  0.0483
10993W        W53910  24.402  27.810  26.423 -0.1144  0.1341 -0.0518
10994W        W53911  22.730  27.493  24.718 -0.2504 -0.0290 -0.0056
10995W        W53912  22.839  27.515  25.361 -0.0904 -0.0135 -0.0664
10996W        W53913  23.894  29.224  27.748 -0.0947  0.1643 -0.1093
10997W        W53914  24.436  28.132  23.730  0.2863  0.0967 -0.0239
10998W        W53915  22.773  29.612  26.243 -0.2291  0.2331  0.0543
10999W        W53916  20.899  27.728  26.093 -0.0799  0.3758 -0.0054
11000W        W53917  22.055  28.060  26.465  0.0410  0.0228 -0.1031
11001W        W53918  22.309  30.115  23.815  0.0104  0.0377  0.0241
11002W        W53919  20.865  29.687  25.613  0.1402 -0.1274  0.0075
11003W        W53920  21.652  27.412  24.726  0.1640 -0.0956  0.0302
11004W        W53921  23.206  23.959  27.244  0.0221 -0.2013  0.2957
11005W        W53922  23.531  28.723  25.695  0.1583 -0.0091  0.2049
11006W        W53923  25.012  25.812  23.739  0.0638 -0.2599 -0.0501
11007W        W53924  21.063  24.254  28.135  0.0385 -0.2029  0.1457
11008W        W53925  24.057  25.263  27.928 -0.0634 -0.0320 -0.2033
11009W        W53926  24.207  29.582  25.388 -0.3453  0.1943  0.1203
11010W        W53927  23.393  29.994  23.991 -0.0061 -0.0961  0.2495
11011W        W53928  23.716  25.732  22.288  0.1773 -0.0605 -0.0513
11012W        W53929  23.879  28.251  23.500 -0.1237 -0.0838 -0.1743
11013W        W53930  21.431  28.488  26.874  0.0927  0.1728  0.1141
11014W        W53931  21.153  27.642  25.570  0.0920  0.4203 -0.3254
11015W        W53932  21.360  24.840  26.517  0.3142  0.1231 -0.2806
11016W        W53933  21.140  23.685  27.292  0.2054 -0.1019  0.1712
11017W        W53934  23.541  27.761  28.220  0.2240  0.1975  0.1808
11018W        W53935  22.112  27.745  26.034  0.0190  0.0595 -0.1365
11019W        W53936  25.350  27.563  26.023 -0.2793  0.3639  0.1109
11020W        W53937  23.625  27.989  26.939  0.1563  0.2411 -0.4611
11021W        W53938  22.942  28.162  24.145 -0.1786 -0.0157  0.2238
11022W        W53939  24.557  27.283  29.371  0.0068 -0.0241 -0.0915
11023W        W53940  24.577  28.479  24.188  0.2172 -0.1144  0.0801
11024W        W53941  25.459  29.957  27.365  0.0240 -0.1934 -0.2381
11025W        W53942  23.918  29.119  25.429  0.0900  0.1968 -0.0673
11026W        W53943  22.626  26.569  30.050 -0.1445 -0.1368 -0.0237
11027W        W53944  21.650  27.685  26.294  0.2871 -0.4223 -0.3276
11028W        W53945  20.761  28.883  24.483  0.0805 -0.0143 -0.1184
11029W        W53946  23.416  31.155  25.520 -0.1059 -0.0291 -0.2210
11030W        W53947  21.462  26.766  23.490 -0.0648  0.0059  0.1450
11031W        W53948  24.820  30.399  25.290 -0.0289  0.0045  0.0773
11032W        W53949  24.666  29.082  26.650  0.3716 -0.2020 -0.2532
11033W        W53950  23.092  27.424  28.045  0.1713 -0.2393 -0.2308
11034W        W53951  23.869  26.015  25.748 -0.3427  0.0250 -0.1630
11035W        W53952  24.735  25.649  26.736 -0.0035 -0.3495 -0.1768
11036W        W53953  22.418  25.915  26.643 -0.1194  0.1568  0.0512
11037W        W53954  22.163  26.848  25.230  0.3188  0.1724 -0.0095
11038W        W53955  23.148  29.103  27.195  0.1680  0.0796 -0.1000
11039W        W53956  19.974  30.029  24.640 -0.1397 -0.3838  0.0280
11040W        W53957  22.282  28.469  25.189 -0.3432 -0.2263  0.2816
11041W        W53958  23.261  28.998  26.057 -0.1539  0.2114 -0.0591
11042W        W53959  23.472  26.451  26.723  0.1035 -0.0554  0.3455
11043W        W53960  21.986  28.813  26.839  0.1035 -0.0665  0.0320
11044W        W53961  23.346  25.360  27.416 -0.1266  0.0666 -0.2470
11045W        W53962  23.604  29.146  24.948 -0.0033 -0.0799  0.1519
11046W        W53963  23.232  27.753  27.226  0.4164  0.0069 -0.2769
11047W        W53964  23.914  27.128  25.123  0.2308  0.4953 -0.4760
11048W        W53965  25.044  26.605  25.089  0.0842 -0.0930  0.1173
11049W        W53966  24.612  26.785  26.797  0.1198 -0.0746  0.1443
11050W        W53967  24.206  26.234  23.484 -0.2302 -0.2164 -0.0178
11051W        W53968  24.228  25.704  25.295 -0.1040  0.2767 -0.0807
11052W        W53969  25.651  25.417  25.432  0.1754 -0.0409 -0.0541
11053W        W53970  22.562  28.065  28.315 -0.1641 -0.2689  0.0622
11054W        W53971  21.782  28.840  24.149 -0.0079  0.1964 -0.0801
11055W        W53972  22.926  27.322  27.596  0.3804  0.2478  0.1920
11056W        W53973  23.269  27.720  24.432 -0.1313  0.0339 -0.2023
11057W        W53974  25.444  29.753  24.861 -0.0434  0.0990  0.1370
11058W        W53975  22.185  30.245  24.319  0.1476  0.2639 -0.3977
11059W        W53976  23.876  29.220  29.111  0.1703 -0.1265  0.0246
11060W        W53977  25.743  29.908  25.267  0.2075  0.3578  0.3623
11061W        W53978  21.364  24.707  25.924  0.1157  0.0475  0.1320
11062W        W53979  24.202  28.163  25.034 -0.1297  0.0068 -0.0361
11063W        W53980  24.024  26.884  25.975  0.2355 -0.0533 -0.3123
11064W        W53981  21.072  29.844  24.327 -0.3882 -0.0595  0.3741
11065W        W53982  22.858  26.811  27.524 -0.0961 -0.2975  0.1466
11066W        W53983  23.771  23.486  28.743 -0.1051  0.4416  0.3039
11067W        W53984  24.631  26.576  27.560  0.1991  0.1217  0.2712
11068W        W53985  24.627  27.139  27.111  0.0840  0.1745  0.0739
11069W        W53986  25.344  28.617  24.854 -0.3433  0.0872  0.0234
11070W        W53987  24.108  28.063  27.027 -0.1434  0.0494 -0.2562
11071W        W53988  22.828  26.383  26.800 -0.3427 -0.0239 -0.0484
11072W        W53989  22.899  24.634  27.583  0.2612 -0.2640 -0.0025
11073W        W53990  21.437  27.614  26.914 -0.0245 -0.2170  0.1525
11074W        W53991  23.297  27.013  27.768 -0.0232 -0.3074 -0.0178
11075W        W53992  24.579  29.524  26.862  0.0986 -0.1427  0.0989
11076W        W53993  25.015  27.480  25.266 -0.2130  0.2150 -0.1971
11077W        W53994  22.676  25.334  28.082  0.1449 -0.2868 -0.1898
11078W        W53995  20.982  27.063  23.164  0.0447  0.3886  0.2749
11079W        W53996  23.357  29.606  26.133  0.3250  0.1893  0.1379
11080W        W53997  24.559  28.073  24.651 -0.3311  0.1671  0.0193
11081W        W53998  23.590  27.156  26.413 -0.1796 -0.1327  0.1433
11082W        W53999  24.970  30.524  24.741  0.2626  0.0189  0.0376
11083W        W54000  22.516  29.320  24.983 -0.0635 -0.1259 -0.0244
11084W        W54001  26.171  28.696  26.763  0.0879 -0.0426  0.3021
11085W        W54002  23.041  28.212  27.458  0.2540  0.1952 -0.0001
11086W        W54003  25.564  24.617  26.158  0.2388  0.0452  0.1544
11087W        W54004  19.861  28.543  26.250 -0.0780  0.2397  0.3662
11088W        W54005  21.712  26.961  23.864  0.0907 -0.1751 -0.1335
11089W        W54006  24.290  27.762  27.435  0.2442 -0.2505  0.1073
11090W        W54007  24.910  26.785  25.792 -0.3008  0.2011  0.1059
11091W        W54008  24.666  28.029  22.578 -0.0829 -0.0993 -0.2543
11092W        W54009  23.565  25.242  27.015  0.2278 -0.3863 -0.1797
11093W        W54010  24.801  24.812  26.685  0.0479 -0.3530  0.0775
11094W        W54011  20.203  31.287  26.095 -0.0928 -0.0347 -0.0497
11095W        W54012  22.836  28.847  28.625 -0.0537  0.0194 -0.1611
11096W        W54013  23.838  26.416  23.780 -0.1465  0.1314 -0.0399
11097W        W54014  22.361  27.981  26.863 -0.2347 -0.0658 -0.1496
11098W        W54015  22.306  27.614  26.557 -0.0447 -0.4554 -0.3384
11099W        W54016  22.359  26.636  26.931 -0.1852  0.2254  0.0928
11100W        W54017  23.770  26.903  25.522 -0.1502 -0.0869 -0.2446
11101W        W54018  21.861  27.258  26.745 -0.0416  0.1540  0.1746
11102W        W54019  21.825  27.633  23.821 -0.2257 -0.0300 -0.0954
11103W        W54020  24.128  30.166  27.719 -0.0083  0.2373  0.1837
11104W        W54021  21.910  27.821  24.554 -0.0895 -0.1095  0.1329
11105W        W54022  22.036  30.156  25.863  0.0752  0.1311  0.3153
11106W        W54023  23.703  26.701  27.862 -0.1304 -0.0468  0.0613
11107W        W54024  25.091  29.174  25.551 -0.0709 -0.2901 -0.0314
11108W        W54025  22.558  27.096  27.922 -0.2208 -0.1276 -0.2155
11109W        W54026  23.102  27.247  24.505  0.0905 -0.1195  0.0178
11110W        W54027  22.450  28.056  24.409 -0.0686  0.0938 -0.3428
11111W        W54028  23.272  26.068  25.950 -0.2943  0.2234  0.0656
11112W        W54029  22.265  24.817  28.129 -0.2679 -0.0107  0.1164
11113W        W54030  21.999  26.381  27.860  0.0065 -0.2979  0.1762
11114W        W54031  21.351  24.366  25.210 -0.1367  0.1763 -0.1582
11115W        W54032  26.150  27.796  23.288  0.2786  0.0428  0.0407
11116W        W54033  24.744  25.268  26.370 -0.0307  0.4034  0.1238
11117W        W54034  23.303  28.108  23.455 -0.3094 -0.1561 -0.2984
11118W        W54035  22.431  28.947  24.693 -0.3994  0.1824 -0.1464
11119W        W54036  23.475  28.258  24.478 -0.0196  0.2176 -0.2153
11120W        W54037  23.137  26.215  27.199 -0.2890 -0.1597 -0.1583
11121W        W54038  23.396  28.048  25.837  0.0262  0.1467 -0.1386
11122W        W54039  21.109  28.835  24.937  0.1976  0.1259  0.1437
11123W        W54040  22.524  26.548  25.517  0.3629 -0.0389  0.1179
11124W        W54041  23.313  26.136  24.896  0.0478 -0.1406 -0.1901
11125W        W54042  23.602  27.201  24.269  0.1695  0.1169 -0.1102
11126W        W54043  23.437  27.089  24.864 -0.1174  0.0952 -0.2536
11127W        W54044  24.814  26.591  29.327  0.0864 -0.1531 -0.2160
11128W        W54045  24.822  29.007  22.138 -0.0386  0.0608  0.0177
11129W        W54046  24.642  25.213  27.831 -0.2416 -0.1995 -0.1465
11130W        W54047  21.145  26.731  26.954  0.2076 -0.2644  0.2329
11131W        W54048  24.423  27.689  25.960 -0.0859  0.0484  0.1363
11132W        W54049  21.110  26.893  27.489  0.3170  0.1858 -0.0310
11133W        W54050  24.120  28.937  28.646  0.0119 -0.0830  0.1419
11134W        W54051  23.312  29.787  26.721 -0.0060 -0.1241  0.0352
11135W        W54052  23.133  26.630  24.846  0.0073 -0.0502  0.0545
11136W        W54053  25.335  25.861  24.116 -0.0076  0.2743  0.1861
11137W        W54054  24.031  28.749  27.633 -0.0292  0.1409 -0.2512
11138W        W54055  25.072  29.468  27.014 -0.2261  0.0148  0.3219
11139W        W54056  22.959  30.479  25.989  0.2499 -0.1195  0.1780
11140W        W54057  23.225  26.519  26.273  0.0791  0.2008  0.1231
11141W        W54058  24.029  27.317  25.746  0.0397 -0.0295 -0.1187
11142W        W54059  24.151  26.517  26.644 -0.1391 -0.0289 -0.0064
11143W        W54060  24.258  26.685  27.225  0.0367 -0.1055 -0.3394
11144W        W54061  25.128  28.131  27.297 -0.2325  0.2736  0.1789
11145W        W54062  22.513  24.486  27.232  0.0444 -0.1153  0.0593
11146W        W54063  23.560  27.152  25.901  0.2431 -0.3137  0.0676
11147W        W54064  24.454  26.792  23.479  0.0734 -0.1111  0.2089
11148W        W54065  22.232  26.796  29.102 -0.0960 -0.2651 -0.1191
11149W        W54066  24.002  27.917  28.386 -0.0750 -0.0840  0.1457
11150W        W54067  23.768  27.010  27.470 -0.0327 -0.1549  0.2307
11151W        W54068  21.781  23.603  26.642 -0.0136 -0.1864  0.1174
11152W        W54069  24.880  29.382  25.087  0.0751  0.3076  0.0289
11153W        W54070  24.358  29.515  23.246 -0.4656 -0.2647 -0.0124
11154W        W54071  23.937  27.405  27.780  0.1914  0.3996 -0.1853
11155W        W54072  25.182  28.927  24.484 -0.0187  0.0842  0.0034
11156W        W54073  24.354  29.037  21.916  0.1787  0.2066  0.0366
11157W        W54074  21.774  26.191  27.433  0.0515  0.0797  0.2177
11158W        W54075  24.822  28.056  28.803 -0.0434  0.0034  0.0767
11159W        W54076  22.097  27.094  24.839  0.1483  0.2157  0.2415
11160W        W54077  23.871  25.630  28.157  0.0181  0.1897 -0.0149
11161W        W54078  23.777  27.456  24.683  0.0122  0.2207 -0.4653
11162W        W54079  25.149  31.776  25.306  0.0391  0.2694 -0.0622
11163W        W54080  24.302  28.193  25.969  0.1464  0.0188 -0.1553
11164W        W54081  18.759  25.933  25.984 -0.0619 -0.2850 -0.3202
11165W        W54082  24.325  31.404  27.568  0.1899  0.0043 -0.2684
11166W        W54083  21.124  28.141  24.152  0.0264 -0.0236 -0.1224
11167W        W54084  23.452  29.064  24.112  0.1351  0.0214  0.1107
11168W        W54085  22.668  28.841  28.123  0.0135 -0.1026  0.2125
11169W        W54086  23.853  26.451  29.188 -0.0270 -0.2140 -0.0722
11170W        W54087  22.166  26.715  23.820 -0.1672  0.0689  0.0074
11171W        W54088  25.075  27.424  27.931  0.1186  0.2262  0.2381
11172W        W54089  22.009  30.280  26.471 -0.1324 -0.0439 -0.1295
11173W        W54090  22.029  25.332  26.352 -0.0274 -0.0220 -0.1971
11174W        W54091  22.739  29.805  26.780  0.1636 -0.0943  0.0909
11175W        W54092  22.717  29.716  28.635  0.3768 -0.0614  0.0821
11176W        W54093  21.826  28.168  24.982 -0.0092  0.1633 -0.1425
11177W        W54094  23.380  25.102  28.463  0.1415 -0.0212 -0.0607
11178W        W54095  23.819  27.642  27.191 -0.3108  0.2529 -0.0100
11179W        W54096  23.981  28.057  26.512  0.2369  0.2378  0.0189
11180W        W54097  25.304  28.220  27.778  0.0938  0.2979 -0.0687
11181W        W54098  25.647  28.308  28.186 -0.0564 -0.0635  0.0836
11182W        W54099  21.419  27.129  27.036  0.1614  0.1875 -0.1019
11183W        W54100  24.180  29.075  27.194  0.0315  0.3113  0.1048
11184W        W54101  24.467  27.964  27.899 -0.0088 -0.0761  0.2492
11185W        W54102  21.900  28.827  25.911  0.0951 -0.0638  0.3634
11186W        W54103  20.445  25.844  27.921  0.0826 -0.1829  0.4568
11187W        W54104  23.835  27.141  28.742  0.2038 -0.1666 -0.1534
11188W        W54105  23.600  29.344  26.905  0.0173 -0.1412 -0.1606
11189W        W54106  21.094  24.047  25.652 -0.3044  0.0548  0.1303
11190W        W54107  24.209  28.033  24.163  0.0820  0.0823 -0.0814
11191W        W54108  22.468  31.353  28.305 -0.4390  0.0605  0.4016
11192W        W54109  22.792  29.078  26.315  0.3547 -0.0206 -0.0198
11193W        W54110  20.609  28.842  24.004 -0.1050 -0.2411  0.2539
11194W        W54111  24.446  29.099  24.857 -0.0469  0.0079 -0.0184
11195W        W54112  24.009  27.602  26.684  0.2034 -0.0994  0.1772
11196W        W54113  23.232  30.092  25.066 -0.0889  0.0768 -0.1035
11197W        W54114  25.560  27.566  23.250  0.2902 -0.2062 -0.0327
11198W        W54115  22.377  29.166  27.866  0.0126  0.0353  0.2695
11199W        W54116  21.659  27.598  22.930  0.1301  0.1559 -0.3255
11200W        W54117  22.744  29.514  24.192 -0.1081  0.1482  0.0864
11201W        W54118  24.087  29.991  25.637 -0.0563  0.0335  0.2561
11202W        W54119  25.267  28.347  25.522  0.1498 -0.0721  0.1626
11203W        W54120  24.269  27.257  23.400 -0.0494  0.1571  0.1747
11204W        W54121  24.025  26.519  28.208  0.0910  0.2926  0.3063
11205W        W54122  25.030  28.440  26.344  0.1124 -0.0980 -0.2191
11206W        W54123  25.127  31.017  25.039 -0.1296  0.4488  0.1706
11207W        W54124  23.791  29.152  25.961 -0.0697 -0.0976  0.1344
11208W        W54125  22.640  27.475  23.764  0.0762  0.3321 -0.1379
11209W        W54126  20.972  30.664  27.198  0.0449  0.0164 -0.3289
11210W        W54127  25.132  26.673  26.707 -0.0788  0.1810 -0.2137
11211W        W54128  22.112  29.164  27.365 -0.0278  0.1629  0.0592
11212W        W54129  25.055  28.607  24.014  0.0082 -0.2685 -0.2457
11213W        W54130  23.139  27.075  26.148 -0.0207  0.3020 -0.0172
11214W        W54131  21.419  24.369  27.240  0.1736  0.1338 -0.3453
11215W        W54132  25.311  25.555  27.976  0.0604  0.1354  0.0409
11216W        W54133  24.105  27.965  22.878 -0.0636  0.1324 -0.1801
11217W        W54134  21.310  24.478  24.420  0.1786 -0.2395  0.2203
11218W        W54135  23.030  28.073  26.187 -0.1843  0.0555 -0.0493
11219W        W54136  23.721  27.224  26.951  0.0326  0.3327 -0.1252
11220W        W54137  22.699  29.339  26.730 -0.2593  0.0345 -0.1343
11221W        W54138  20.655  27.115  24.969 -0.2912 -0.2901  0.0179
11222W        W54139  24.685  25.863  25.259 -0.1707 -0.1822  0.1984
11223W        W54140  21.960  26.861  27.664 -0.1958 -0.1237  0.3568
11224W        W54141  23.498  25.319  25.958  0.0378  0.0016  0.2935
11225W        W54142  22.863  26.402  25.979 -0.0580 -0.0138 -0.1481
11226W        W54143  24.085  28.460  26.299 -0.1278 -0.2577  0.2412
11227W        W54144  24.847  27.662  28.412 -0.0603  0.2511  0.0614
11228W        W54145  23.142  25.519  27.049 -0.1900  0.1885 -0.1275
11229W        W54146  21.284  27.209  24.032 -0.1857  0.1170  0.0290
11230W        W54147  23.261  28.099  24.962 -0.2355 -0.1569  0.0309
11231W        W54148  23.712  27.920  24.870  0.3477  0.2138 -0.0973
11232W        W54149  24.283  28.740  26.704 -0.1051  0.5356  0.2913
11233W        W54150  20.981  28.291  27.378 -0.0458  0.0935 -0.1215
11234W        W54151  24.958  26.694  27.222 -0.1056  0.0371 -0.0832
11235W        W54152  24.198  27.314  27.350 -0.0577  0.0513 -0.0660
11236W        W54153  24.402  26.611  25.794 -0.1943 -0.0360 -0.2565
11237W        W54154  23.656  28.955  27.311  0.1355 -0.1265  0.2330
11238W        W54155  22.793  26.771  26.471  0.3273  0.0833 -0.2232
11239W        W54156  26.641  27.548  22.134  0.2494  0.3259  0.1023
11240W        W54157  24.678  24.614  29.006  0.0799  0.1877  0.1367
11241W        W54158  21.241  29.593  23.844 -0.1880 -0.1807 -0.2051
11242W        W54159  25.648  27.458  25.198 -0.1063 -0.0079 -0.0196
11243W        W54160  24.716  29.918  26.482 -0.2954  0.1259  0.1300
11244W        W54161  20.589  23.494  26.685  0.0773  0.0309 -0.1227
11245W        W54162  25.215  28.649  27.287 -0.1197  0.0990 -0.2826
11246W        W54163  23.363  29.512  24.287 -0.0181  0.1489 -0.0649
11247W        W54164  25.138  28.094  28.408 -0.2929  0.2206  0.0853
11248W        W54165  22.831  25.705  27.407  0.0282 -0.1237  0.2215
11249W        W54166  22.304  27.818  25.468 -0.1405  0.0522 -0.1079
11250W        W54167  24.506  25.358  28.492 -0.3795  0.1940  0.1114
11251W        W54168  25.264  25.734  26.809  0.2424  0.1066  0.1277
11252W        W54169  23.761  29.680  25.225  0.3736  0.1938  0.1112
11253W        W54170  22.659  26.407  29.489 -0.2108 -0.0690  0.0388
11254W        W54171  22.496  28.739  27.647 -0.0296  0.1485 -0.1310
11255W        W54172  24.595  30.264  25.732 -0.0300  0.2182  0.0119
11256W        W54173  23.234  28.826  25.210 -0.0805  0.1654  0.0859
11257W        W54174  23.666  26.271  27.295  0.1132  0.3275 -0.1689
11258W        W54175  23.884  27.973  25.995  0.0589  0.0855 -0.0694
11259W        W54176  22.043  30.697  23.189  0.2456 -0.1499 -0.1834
11260W        W54177  25.035  29.793  26.151 -0.3269  0.0459  0.0595
11261W        W54178  23.779  26.721  26.395  0.0973 -0.2305 -0.2492
11262W        W54179  23.621  28.883  26.443 -0.0907  0.2251 -0.0532
11263W        W54180  21.498  26.480  25.837  0.1278  0.1166  0.0220
11264W        W54181  25.602  26.681  26.531  0.1489  0.2303 -0.0314
11265W        W54182  23.357  25.403  26.600 -0.0554  0.1543  0.1709
11266W        W54183  22.781  27.349  27.138 -0.2137 -0.0566  0.4675
11267W        W54184  20.771  27.164  25.435  0.0326 -0.3434 -0.2021
11268W        W54185  22.971  28.469  23.053  0.0593  0.0597  0.3617
11269W        W54186  21.859  29.231  26.527  0.2638  0.0218  0.0321
11270W        W54187  21.843  25.890  29.009 -0.0158  0.1484 -0.0330
11271W        W54188  22.882  25.163  27.385  0.0169 -0.0932  0.0056
11272W        W54189  23.819  25.610  26.769 -0.1298 -0.3435  0.0720
11273W        W54190  20.612  26.457  27.035  0.0851  0.0067  0.0630
11274W        W54191  26.734  29.554  23.162  0.4324  0.2661  0.1403
11275W        W54192  22.471  24.815  26.843  0.2550 -0.1145  0.1260
11276W        W54193  20.047  25.056  27.833  0.2393 -0.0656  0.2951
11277W        W54194  24.122  26.157  24.081 -0.2172 -0.2742 -0.1063
11278W        W54195  24.790  27.864  25.598 -0.0655  0.0345  0.0219
11279W        W54196  24.894  25.152  25.790  0.1812 -0.0697 -0.0306
11280W        W54197  26.177  28.341  25.876 -0.3595  0.0365  0.2565
11281W        W54198  23.050  28.665  23.565 -0.0526 -0.1704 -0.0045
11282W        W54199  23.440  27.885  28.693 -0.0690 -0.0589 -0.0228
11283W        W54200  23.965  27.439  28.347  0.0120  0.3026  0.1606
11284W        W54201  22.181  25.826  26.103 -0.0745  0.0139  0.0072
11285W        W54202  24.052  25.799  26.281  0.0629 -0.0367 -0.0113
11286W        W54203  24.954  29.837  24.671 -0.0569  0.2723  0.0771
11287W        W54204  26.548  28.969  21.496  0.1605 -0.2734 -0.0009
11288W        W54205  22.155  31.380  27.227  0.0357 -0.0354 -0.0274
11289W        W54206  23.785  30.322  28.142  0.3671 -0.4112 -0.1641
11290W        W54207  21.780  25.725  27.724 -0.3919 -0.0355 -0.0245
11291W        W54208  25.820  26.977  25.609  0.3304  0.0539 -0.2363
11292W        W54209  21.999  31.160  26.386  0.1712 -0.2461  0.2734
11293W        W54210  24.219  28.574  23.784  0.1557  0.0614 -0.0518
11294W        W54211  24.225  24.338  25.893 -0.3432  0.0613 -0.0342
11295W        W54212  23.074  28.403  25.768  0.0387  0.0146 -0.1578
11296W        W54213  21.117  26.225  27.146  0.0010  0.0002  0.3778
11297W        W54214  22.688  26.455  27.267  0.3871  0.1211 -0.0211
11298W        W54215  24.792  27.583  26.198 -0.3637 -0.0738  0.0209
11299W        W54216  22.687  26.862  25.942  0.0664 -0.0257 -0.0838
11300W        W54217  24.570  26.299  24.224 -0.1987  0.1432  0.0440
11301W        W54218  24.414  29.023  25.346 -0.0525  0.2268  0.1803
11302W        W54219  22.285  26.315  25.986 -0.3522  0.0331  0.1646
11303W        W54220  23.770  28.004  25.386 -0.0596  0.2898  0.1078
11304W        W54221  22.365  24.062  27.852  0.0684 -0.0909  0.4152
11305W        W54222  24.112  28.990  26.320  0.1433  0.0955  0.1114
11306W        W54223  25.494  27.101  29.113 -0.0837 -0.0596 -0.0453
11307W        W54224  22.451  27.508  27.644 -0.0444  0.0775 -0.0238
11308W        W54225  26.911  28.540  23.124  0.2526  0.0064 -0.2896
11309W        W54226  25.173  28.982  26.808 -0.1223  0.1104 -0.0917
11310W        W54227  25.594  28.027  27.093 -0.0502 -0.0525  0.3382
11311W        W54228  22.231  26.794  28.163 -0.1336 -0.1255 -0.1329
11312W        W54229  26.366  27.947  27.602 -0.1655 -0.2800 -0.2716
11313W        W54230  22.160  23.239  26.859 -0.0392 -0.2913  0.0829
11314W        W54231  22.322  26.883  26.309 -0.0204  0.0895 -0.0094
11315W        W54232  23.744  28.333  27.892 -0.2756 -0.3013 -0.5985
11316W        W54233  24.792  26.309  28.316  0.1296 -0.3311  0.0020
11317W        W54234  20.814  24.008  26.112  0.0907  0.0928 -0.0149
11318W        W54235  21.759  24.484  24.884  0.0972  0.3573 -0.1174
11319W        W54236  24.484  29.794  25.953 -0.2214  0.1634 -0.1799
11320W        W54237  22.627  28.308  25.533  0.3299  0.0532 -0.1358
11321W        W54238  23.352  28.711  30.016 -0.0773  0.2315 -0.1643
11322W        W54239  22.073  27.319  27.863  0.1989  0.2589  0.0721
11323W        W54240  22.371  25.779  29.029  0.2001  0.4774  0.2425
11324W        W54241  24.355  26.474  29.148 -0.1289 -0.3262  0.0041
11325W        W54242  19.962  26.196  28.691 -0.0962  0.2465 -0.2190
11326W        W54243  23.810  30.308  30.249  0.4311 -0.1402 -0.1031
11327W        W54244  23.114  25.529  30.900  0.0197  0.2571  0.1641
11328W        W54245  25.836  29.195  30.232 -0.1737 -0.3151 -0.0482
11329W        W54246  24.574  29.043   1.403  0.2243 -0.1577  0.3303
11330W        W54247  24.406  26.540  28.600  0.0616  0.0812  0.3005
11331W        W54248  22.419  25.892   0.229  0.1734 -0.0564 -0.0539
11332W        W54249  21.127  28.155  29.197 -0.4326 -0.3797  0.0310
11333W        W54250  22.253  27.999  27.904  0.1062 -0.1660  0.1112
11334W        W54251  19.526  25.103  30.636 -0.0233 -0.0552  0.0738
11335W        W54252  26.006  28.200  27.367 -0.2549 -0.1268 -0.0133
11336W        W54253  21.061  25.534  27.936  0.2014  0.2194  0.3194
11337W        W54254  21.136  25.389  30.253 -0.1991  0.0636 -0.0025
11338W        W54255  22.530  27.737  28.731  0.3954  0.0186 -0.1057
11339W        W54256  23.536  29.341  28.708  0.0429 -0.0692  0.0328
11340W        W54257  21.219  26.599  29.548 -0.3187  0.1637 -0.1486
11341W        W54258  22.604  26.661   0.178  0.3155  0.1332 -0.1699
11342W        W54259  23.666  26.857  28.376 -0.1330 -0.4384 -0.0904
11343W        W54260  21.170  30.250  27.116 -0.0777 -0.1858  0.3014
11344W        W54261  21.822  27.499  29.797  0.0217 -0.0025 -0.2443
11345W        W54262  22.219  28.054  28.984 -0.0630 -0.2196 -0.2928
11346W        W54263  25.019  25.131  31.221 -0.0377  0.1837  0.1557
11347W        W54264  24.447  28.109  29.682 -0.1098  0.0990  0.0074
11348W        W54265  22.556  29.245  28.407  0.0867 -0.0622 -0.2498
11349W        W54266  23.867  26.556  30.874  0.0995  0.2789  0.1488
11350W        W54267  26.008  27.099  29.007  0.0690 -0.3782  0.1681
11351W        W54268  21.577  25.742  29.443 -0.0609  0.1291 -0.2098
11352W        W54269  21.027  31.651  27.095 -0.0097  0.1300 -0.1188
11353W        W54270  23.007  27.634  29.779 -0.3573 -0.2432 -0.0887
11354W        W54271  22.983  27.789  28.920  0.3042 -0.0326  0.0241
11355W        W54272  26.752  29.236  29.347  0.0250  0.1428  0.0374
11356W        W54273  23.204  29.619  30.131 -0.0339 -0.1041  0.0512
11357W        W54274  19.972  30.410  28.860 -0.0959  0.0552 -0.1306
11358W        W54275  25.109  27.594  29.989 -0.1186 -0.1555 -0.1872
11359W        W54276  22.019  29.221  29.121  0.0104 -0.2172  0.0618
11360W        W54277  23.169  27.256  30.814 -0.1144  0.0689  0.0680
11361W        W54278  25.133  27.553  29.391 -0.1492  0.0296  0.3348
11362W        W54279  24.129  28.905  28.122 -0.0419  0.0619 -0.1331
11363W        W54280  21.781  27.016  28.955 -0.1622  0.2111  0.0226
11364W        W54281  23.634  27.865  30.526 -0.0163  0.1144 -0.1456
11365W        W54282  22.026  28.480  29.134 -0.2365  0.1262 -0.0679
11366W        W54283  25.190  24.150  31.541  0.1212  0.3115  0.3421
11367W        W54284  23.217  26.919  28.391  0.0529 -0.0093 -0.1268
11368W        W54285  24.385  27.597  28.705  0.1164  0.0672 -0.4118
11369W        W54286  21.886  24.813  27.457 -0.1349 -0.0204  0.0525
11370W        W54287  24.528  25.913  28.543  0.2326 -0.0937 -0.3691
11371W        W54288  22.324  26.250  29.174  0.0734  0.3257  0.2157
11372W        W54289  24.975  29.034  29.668 -0.0467  0.0078  0.1363
11373W        W54290  23.598  26.351  31.239 -0.1009  0.2124  0.2106
11374W        W54291  25.132  27.255  31.102  0.1724 -0.3483 -0.0985
11375W        W54292  22.400  25.087  27.419 -0.0140  0.1836 -0.0083
11376W        W54293  23.846  29.728  29.301 -0.0405  0.0052  0.1108
11377W        W54294  21.958  29.946  27.837 -0.2586 -0.0615  0.2989
11378W        W54295  21.902  28.330  27.634 -0.0402 -0.0400  0.0313
11379W        W54296  25.635  30.302  29.442 -0.0647 -0.1887  0.1947
11380W        W54297  24.552  28.735  28.863  0.0581  0.2433  0.1849
11381W        W54298  25.908  29.688  26.675  0.2424 -0.1074 -0.0688
11382W        W54299  23.270  28.730  29.470 -0.1445 -0.1951 -0.1301
11383W        W54300  21.384  25.392   0.333 -0.0307 -0.3008  0.0563
11384W        W54301  21.447  24.584  31.727  0.1252  0.0200  0.2790
11385W        W54302  21.123  26.439  27.601  0.0371  0.5152  0.0785
11386W        W54303  24.913  29.857   0.665  0.0293 -0.0031  0.0434
11387W        W54304  24.807  27.429   0.412 -0.2110 -0.1806 -0.0504
11388W        W54305  26.507  24.111  27.236  0.1379  0.0972  0.1541
11389W        W54306  22.741  27.312  28.963 -0.0050 -0.1379  0.1840
11390W        W54307  22.290  26.040  27.654 -0.0573 -0.1919  0.1393
11391W        W54308  25.118  30.968  27.680 -0.1259  0.0217 -0.2335
11392W        W54309  22.523  24.258  29.862 -0.0000  0.1074 -0.0737
11393W        W54310  26.871  25.633  29.492  0.0393 -0.0118  0.1275
11394W        W54311  24.306  24.878  28.295 -0.1277 -0.2624  0.2953
11395W        W54312  21.358  29.257  27.967  0.0383 -0.0924 -0.2186
11396W        W54313  25.230  27.071  31.613 -0.0583 -0.1317  0.4807
11397W        W54314  23.587  28.231  29.207  0.0687 -0.0311 -0.1442
11398W        W54315  23.770  28.728  31.476  0.1468 -0.0105 -0.2816
11399W        W54316  25.075  24.646  30.730  0.1420  0.1985  0.0469
11400W        W54317  24.605  29.075   0.891  0.4008 -0.2460 -0.0266
11401W        W54318  24.237  28.243  27.558 -0.1609  0.1288  0.5634
11402W        W54319  22.994  26.878  28.853  0.1334  0.0656 -0.1139
11403W        W54320  22.247  28.553  27.232 -0.0380 -0.0185  0.2006
11404W        W54321  24.949  27.342  30.667 -0.0776 -0.1509  0.1117
11405W        W54322  22.236  28.880  28.881  0.0775 -0.1367 -0.0495
11406W        W54323  24.100  24.066  30.167  0.0490 -0.0029  0.1241
11407W        W54324  21.001  26.763  30.376  0.0988 -0.1458  0.3461
11408W        W54325  24.827  23.350  29.591  0.2169 -0.1184 -0.0971
11409W        W54326  22.331  27.488  29.139 -0.0592 -0.1044 -0.0670
11410W        W54327  24.533  28.830  27.741  0.1147 -0.0897 -0.2122
11411W        W54328  24.936  27.917  28.004 -0.1984 -0.0690 -0.3128
11412W        W54329  24.537  28.944  28.361 -0.0277  0.1633  0.0682
11413W        W54330  20.796  25.549  30.943  0.0058  0.0195 -0.0122
11414W        W54331  22.586  27.710  31.484 -0.1633 -0.0575 -0.0590
11415W        W54332  22.755  24.234  31.949  0.0119 -0.2645  0.1657
11416W        W54333  21.427  26.316  31.430  0.3434  0.0760  0.1477
11417W        W54334  24.627  26.510   0.155 -0.0234  0.1783 -0.0538
11418W        W54335  22.802  26.148  29.899 -0.1933 -0.0802  0.3225
11419W        W54336  23.367  25.828  29.769 -0.2767  0.2699 -0.0440
11420W        W54337  21.654  24.301  28.310  0.2126 -0.0451  0.4935
11421W        W54338  21.653  25.246  27.144  0.1407 -0.1169 -0.0076
11422W        W54339  25.726  24.273  31.907  0.2148 -0.0347  0.1381
11423W        W54340  25.350  28.816  27.914  0.0641  0.1205  0.0708
11424W        W54341  23.300  31.481  30.421 -0.2076  0.0536 -0.0208
11425W        W54342  24.377  30.224  28.243  0.0344 -0.1910 -0.2039
11426W        W54343  24.933  25.609   0.147  0.0384 -0.4258 -0.0978
11427W        W54344  21.355  28.009  27.661  0.2691 -0.0239  0.3734
11428W        W54345  21.941  30.498  27.738 -0.1166  0.3796  0.1104
11429W        W54346  24.154  28.592  29.790  0.0287  0.2001 -0.0877
11430W        W54347  20.904  27.261  27.894  0.1502 -0.0546 -0.2792
11431W        W54348  25.046  27.149  29.773  0.0781 -0.2080  0.0695
11432W        W54349  24.675  27.158  28.146 -0.5152  0.3737  0.4161
11433W        W54350  24.192  28.468  30.269 -0.0351 -0.1157  0.2613
11434W        W54351  24.716  26.595  30.036 -0.2441  0.0494  0.0344
11435W        W54352  24.219  25.602  30.288  0.4699 -0.2705 -0.1337
11436W        W54353  23.706  25.952  30.312 -0.2300  0.1207  0.1228
11437W        W54354  23.488  26.557  29.592 -0.1463  0.2034 -0.0086
11438W        W54355  26.535  27.920  29.960 -0.1268  0.1520  0.0894
11439W        W54356  21.718  27.737  27.533 -0.1056  0.0056  0.0795
11440W        W54357  19.977  28.050  30.177  0.0926  0.1025  0.2289
11441W        W54358  22.287  28.497  28.014 -0.2956 -0.0048  0.0486
11442W        W54359  25.512  26.245  29.243 -0.0227  0.0958  0.2588
11443W        W54360  20.858  26.642  29.182 -0.0950  0.0448 -0.1023
11444W        W54361  24.479  26.307  29.676  0.0561 -0.0215 -0.1115
11445W        W54362  21.114  25.961  28.436  0.0767 -0.0300  0.0141
11446W        W54363  23.023  29.313  30.488 -0.2973 -0.1987 -0.3569
11447W        W54364  24.487  26.655  28.105  0.0210  0.1021  0.1438
11448W        W54365  25.306  28.450  26.777  0.1295  0.0195  0.0346
11449W        W54366  24.834  27.952  31.756  0.0148 -0.2440  0.0993
11450W        W54367  24.599  27.270  29.912  0.1593  0.1218 -0.1269
11451W        W54368  23.391  26.446  28.274 -0.0091  0.1082  0.0317
11452W        W54369  23.347  25.904  28.134  0.0014 -0.0300 -0.2253
11453W        W54370  22.649  27.406  30.193 -0.0229 -0.3169  0.0848
11454W        W54371  23.627  28.926  28.461 -0.0918 -0.1193 -0.2462
11455W        W54372  23.427  27.694   0.901 -0.1370  0.4011 -0.0676
11456W        W54373  24.075  26.871  29.076  0.0697 -0.0513 -0.1829
11457W        W54374  24.627  26.906  28.951 -0.1403  0.1383 -0.1339
11458W        W54375  23.089  27.613  26.367 -0.1150 -0.2424  0.0200
11459W        W54376  24.230  28.226   0.238 -0.0931  0.2049  0.0658
11460W        W54377  23.620  29.781  30.317  0.0508  0.0520 -0.2639
11461W        W54378  24.403  25.105  29.138 -0.4794  0.0002 -0.4347
11462W        W54379  24.169  26.399  27.627  0.0046 -0.1278 -0.2322
11463W        W54380  22.493  24.043  29.387 -0.2675 -0.1771  0.0359
11464W        W54381  22.213  29.367  26.909 -0.0454 -0.2117 -0.1197
11465W        W54382  23.343  24.712  31.310  0.3382  0.1125 -0.0196
11466W        W54383  23.030  24.708  29.701 -0.1277  0.1159 -0.0623
11467W        W54384  22.779  25.153  30.498  0.1685 -0.3552  0.1228
11468W        W54385  22.166  24.447  30.261 -0.0540 -0.1777  0.3167
11469W        W54386  23.777  28.705  29.056 -0.3501  0.1346 -0.0454
11470W        W54387  23.660  25.548  30.688 -0.2902 -0.1003  0.2736
11471W        W54388  19.868  26.773  28.034  0.0477  0.1213 -0.2890
11472W        W54389  25.012  27.057  29.220 -0.0417 -0.1879  0.0814
11473W        W54390  23.496  28.357  30.641  0.2193  0.0956  0.2578
11474W        W54391  21.089  27.613  29.731  0.0330 -0.4481  0.0350
11475W        W54392  25.709  28.332  30.447 -0.1084 -0.1469  0.0907
11476W        W54393  22.764  27.398  29.447  0.2488 -0.3615  0.1580
11477W        W54394  24.111  27.283  29.573 -0.2338  0.3414  0.0574
11478W        W54395  23.127  26.563  29.202  0.0202 -0.0960  0.0869
11479W        W54396  24.152  29.573  27.094 -0.0546 -0.0442 -0.0333
11480W        W54397  21.670  28.991  28.813 -0.0211 -0.0802 -0.0023
11481W        W54398  22.392  25.249  29.105  0.1692  0.1729  0.1221
11482W        W54399  23.397  29.335  29.260  0.0245 -0.3055  0.1914
11483W        W54400  22.433  28.530  28.543 -0.4669 -0.2493 -0.0398
11484W        W54401  24.051  25.679  28.632  0.1627  0.3045  0.3474
11485W        W54402  21.189  30.303  28.616 -0.4678  0.0374 -0.1989
11486W        W54403  24.148  24.875  30.030 -0.1249 -0.1337  0.0260
11487W        W54404  21.602  26.025  28.571 -0.3862  0.0597 -0.0601
11488W        W54405  21.611  25.110  28.549 -0.2350  0.0482 -0.1732
11489W        W54406  21.435  25.188  28.101 -0.1981  0.1388  0.0968
11490W        W54407  23.927  25.156  28.412 -0.1276  0.3029 -0.1712
11491W        W54408  24.591  28.553  29.329  0.0840  0.2585 -0.3494
11492W        W54409  24.629  27.101  30.975 -0.0472 -0.2647 -0.1017
11493W        W54410  21.382  22.952  30.370 -0.2283  0.1662 -0.1879
11494W        W54411  24.698  28.335  30.306 -0.1694 -0.0206  0.1558
11495W        W54412  24.105  28.343  29.227  0.0696 -0.2323 -0.1220
11496W        W54413  22.684  24.405  28.372  0.0554 -0.2433 -0.1304
11497W        W54414  25.570  28.757  31.827  0.0262  0.1575 -0.1296
11498W        W54415  22.388  28.258  29.738  0.1390  0.0489 -0.1127
11499W        W54416  22.754  24.793  28.033  0.1587 -0.1061 -0.0157
11500W        W54417  24.441  27.057  31.503  0.0107  0.0487 -0.0796
11501W        W54418  23.726  28.568  29.557 -0.2712 -0.0393 -0.2341
11502W        W54419  21.446  25.558  29.880 -0.0411  0.0943  0.0791
11503W        W54420  24.215  26.078  30.103 -0.0695 -0.3019  0.2350
11504W        W54421  21.841  27.285  27.355  0.0227 -0.2126  0.3117
11505W        W54422  21.335  28.150  28.117 -0.0280 -0.1529 -0.2545
11506W        W54423  23.133  29.128  29.760  0.0983  0.0158 -0.0321
11507W        W54424  25.496  27.742  29.735  0.0399 -0.1056 -0.2184
11508W        W54425  23.243  25.744  29.277 -0.2871 -0.3798 -0.0235
11509W        W54426  23.408  28.233  29.642 -0.0602  0.0897  0.2362
11510W        W54427  22.066  25.414  30.323 -0.0449 -0.2064 -0.0204
11511W        W54428  24.083  26.295  31.876 -0.0205 -0.2713  0.1252
11512W        W54429  21.926  25.558  29.847 -0.0936 -0.2955  0.0427
11513W        W54430  24.426  27.727   0.088  0.0760 -0.3504 -0.0728
11514W        W54431  25.086  26.045  29.149  0.2040 -0.4861  0.0906
11515W        W54432  24.805  30.921  28.752 -0.1949 -0.2306 -0.2197
11516W        W54433  25.066  25.885  31.284  0.1974 -0.1311 -0.0883
11517W        W54434  22.490  27.547  28.130  0.0901  0.4369  0.0365
11518W        W54435  21.945  28.588  28.588 -0.1123  0.0242  0.0939
11519W        W54436  23.956  29.315  28.344  0.1096  0.3293  0.2176
11520W        W54437  24.189  26.671  30.098 -0.0609 -0.1076 -0.3031
11521W        W54438  23.601  29.556  29.790 -0.2602  0.0499 -0.0991
11522W        W54439  22.143  26.514  27.378 -0.2454 -0.0430  0.0053
11523W        W54440  21.206  28.989  30.043  0.4511  0.0172 -0.0322
11524W        W54441  26.021  27.924  25.190 -0.0423 -0.0057 -0.1112
11525W        W54442  25.145  29.926  27.971 -0.1392 -0.1526  0.2794
11526W        W54443  24.158  27.366  29.058  0.2740  0.1152 -0.1834
11527W        W54444  24.457  27.127   0.177 -0.0156  0.0287  0.1987
11528W        W54445  23.267  28.965  28.886 -0.1509 -0.3377 -0.1648
11529W        W54446  22.579  24.147  31.341 -0.0719  0.0421  0.1418
11530W        W54447  22.704  25.599  31.122 -0.0186  0.3161 -0.1791
11531W        W54448  25.796  29.674  30.107  0.3557  0.1480  0.0190
11532W        W54449  22.536  25.243  30.103 -0.0698 -0.2595 -0.1022
11533W        W54450  24.128  30.428  29.811 -0.1483 -0.2127  0.5152
11534W        W54451  24.803  27.767  30.878 -0.0812  0.1335 -0.0690
11535W        W54452  22.948  25.687  31.677  0.1189  0.1659  0.4151
11536W        W54453  22.304  24.014  27.211 -0.1623  0.0019 -0.0033
11537W        W54454  23.515  29.182  30.142  0.1985 -0.0020  0.1341
11538W        W54455  25.569  28.831  30.441  0.2318 -0.0550 -0.2630
11539W        W54456  22.307  27.194  28.619  0.0103  0.1581  0.0678
11540W        W54457  23.849  26.256  29.832  0.1254 -0.1774  0.1015
11541W        W54458  22.793  28.270  28.773  0.1469  0.2356  0.1789
11542W        W54459  23.875  27.716  29.376 -0.0081 -0.0074  0.2633
11543W        W54460  23.412  27.749  29.220 -0.0243 -0.0997  0.0492
11544W        W54461  22.526  26.509  28.743 -0.1997  0.1272 -0.0532
11545W        W54462  24.677  25.931   0.542 -0.0272  0.0894  0.1046
11546W        W54463  22.627  27.861  29.300  0.0498  0.0161  0.1234
11547W        W54464  22.655  24.965  29.410 -0.1974  0.2283 -0.1891
11548W        W54465  23.719  27.675  29.964  0.2651 -0.0765 -0.3260
11549W        W54466  24.506  25.918  30.793  0.1732 -0.0201  0.0231
11550W        W54467  22.818  26.176  29.056 -0.2213 -0.2037  0.1976
11551W        W54468  22.768  25.202   0.526  0.2515 -0.0541  0.1799
11552W        W54469  24.112  29.387  30.929 -0.0521  0.0366 -0.0025
11553W        W54470  24.942  25.264  28.215  0.1841  0.0632 -0.0665
11554W        W54471  25.066  25.903  30.702  0.0726 -0.0781  0.0628
11555W        W54472  22.223  25.522  27.975  0.3800  0.1529  0.0404
11556W        W54473  22.952  26.103  28.252 -0.2377 -0.0039  0.0193
11557W        W54474  23.416  26.260  30.604 -0.3458  0.1202  0.1942
11558W        W54475  22.848  23.089  30.994  0.0093 -0.1352 -0.0160
11559W        W54476  23.457  26.217  28.990 -0.1089  0.3540 -0.0933
11560W        W54477  25.802  28.472  30.017 -0.3547  0.0285 -0.1232
11561W        W54478  22.238  27.521  27.170 -0.0794  0.0303  0.0803
11562W        W54479  23.933  27.827  28.907  0.0117  0.2905 -0.2077
11563W        W54480  22.912  25.421  29.412  0.0199  0.2067  0.3121
11564W        W54481  22.857  26.155  27.694  0.1314  0.0261 -0.0768
11565W        W54482  23.965  28.301  31.262 -0.2092  0.1702 -0.1939
11566W        W54483  21.907  26.595  26.618 -0.0697  0.2516  0.2933
11567W        W54484  22.984  26.662  28.027  0.2146 -0.1727 -0.1610
11568W        W54485  23.354  26.312   0.365  0.2136 -0.2722 -0.0626
11569W        W54486  25.837  25.896  31.892  0.0418  0.0584 -0.1057
11570W        W54487  22.058  25.251  28.364  0.0778  0.0866  0.0579
11571W        W54488  23.736  26.105   1.087  0.0230 -0.0577  0.0468
11572W        W54489  25.494  29.043  28.526  0.1146 -0.2718  0.3258
11573W        W54490  24.184  26.042  28.226 -0.0099  0.4178 -0.2380
11574W        W54491  22.935  28.517  30.189  0.2456 -0.1683  0.0348
11575W        W54492  22.190  27.233  29.993  0.4089 -0.0922  0.0014
11576W        W54493  20.798  29.465  28.246 -0.3227 -0.0205 -0.5349
11577W        W54494  25.839  26.166  31.056 -0.0445 -0.0525 -0.1660
11578W        W54495  23.893  25.640  31.142  0.1385  0.1050  0.2345
11579W        W54496  23.194  27.096  29.457  0.0645  0.1688  0.0681
11580W        W54497  25.723  25.695   0.469  0.0805 -0.1180  0.0473
11581W        W54498  23.587  26.912  31.075  0.0815  0.1324 -0.2349
11582W        W54499  22.379  28.944  29.372 -0.0775 -0.1621  0.1955
11583W        W54500  24.286  28.694   1.295  0.4248 -0.1259 -0.1702
11584W        W54501  24.939  28.069  29.914 -0.0554  0.2877 -0.1124
11585W        W54502  23.037  29.261  28.584  0.0134 -0.0006  0.1360
11586W        W54503  20.660  27.256  29.023 -0.0331 -0.2947 -0.4849
11587W        W54504  23.887  26.540   0.344 -0.0101 -0.4401 -0.2118
11588W        W54505  26.998  27.916  30.118 -0.1262 -0.2103 -0.1507
11589W        W54506  21.044  26.314  28.825 -0.0947  0.2914  0.0344
11590W        W54507  23.017  29.583  27.083 -0.1256 -0.0579  0.0603
11591W        W54508  22.575  27.944  31.082  0.0855  0.0479  0.0821
11592W        W54509  22.683  27.044  29.863  0.0937 -0.1615  0.0924
11593W        W54510  24.165  28.829  29.319 -0.1101 -0.0536  0.1467
11594W        W54511  24.691  28.362  27.600 -0.1310 -0.3025  0.2561
11595W        W54512  25.309  26.867  30.035 -0.0047 -0.4477  0.1310
11596W        W54513  23.652  29.373  30.650  0.1040  0.3923 -0.0015
11597W        W54514  22.896  25.636  28.927 -0.0063 -0.1778 -0.0142
11598W        W54515  21.390  30.958  27.070  0.3726 -0.0484  0.1520
11599W        W54516  22.858  27.778  27.799  0.1712  0.1650  0.0103
11600W        W54517  21.499  29.787  27.859  0.1236  0.1422  0.0722
11601W        W54518  22.418  32.266  27.586 -0.1529 -0.1486 -0.0305
11602W        W54519  25.233  28.383  30.340 -0.1986  0.0982  0.1261
11603W        W54520  25.051  26.824  28.033 -0.0276 -0.1984 -0.0350
11604W        W54521  25.735  27.526  28.789  0.0702 -0.0186  0.0670
11605W        W54522  26.564  25.151  27.919  0.2181  0.1786  0.1587
11606W        W54523  25.842  27.863  31.914  0.0423  0.1241 -0.4270
11607W        W54524  24.097  25.991  29.416 -0.1877 -0.3204  0.4869
11608W        W54525  23.768  25.550  27.622 -0.0702 -0.1239  0.1186
11609W        W54526  24.379  28.094  30.639 -0.1848 -0.0172  0.2438
11610W        W54527  25.492  23.965  31.181 -0.1444 -0.1985  0.1314
11611W        W54528  21.446  29.333   0.106 -0.0911 -0.1068 -0.3955
11612W        W54529  24.859  28.496  28.539  0.1660 -0.1063  0.3302
11613W        W54530  22.445  27.686  29.718  0.1904 -0.0537 -0.4410
11614W        W54531  23.400  26.357  30.059  0.2194 -0.2109 -0.0274
11615W        W54532  25.864  24.725  29.570  0.1918  0.1418  0.2063
11616W        W54533  23.346  26.699  27.268  0.2744  0.0636  0.0411
11617W        W54534  23.860  25.729  29.824  0.0438 -0.2699  0.1198
11618W        W54535  20.357  29.331  29.564  0.2682  0.1502  0.0185
11619W        W54536  22.301  30.075  28.741  0.0372 -0.3054  0.3804
11620W        W54537  23.573  29.630  31.233 -0.1935  0.0347  0.1480
11621W        W54538  21.668  28.023  29.040 -0.1789 -0.0606 -0.3953
11622W        W54539  25.699  25.206  29.541 -0.2953 -0.0252 -0.0709
11623W        W54540  23.516  28.055  31.025 -0.0439 -0.0788  0.0538
11624W        W54541  25.546  27.161  30.931 -0.2539 -0.0129  0.1647
11625W        W54542  21.966  27.220  26.168  0.1860  0.1258  0.0876
11626W        W54543  25.797  25.574  28.060  0.2706 -0.1564  0.4790
11627W        W54544  23.879  27.883   0.187 -0.0606 -0.2861 -0.0515
11628W        W54545  23.012  26.456  28.636  0.0467 -0.0462  0.1094
11629W        W54546  22.676  26.853  28.345 -0.1489  0.2743  0.1099
11630W        W54547  27.295  27.744   1.455 -0.0025  0.0667  0.0911
11631W        W54548  25.611  26.812  27.970  0.3028 -0.0086  0.2977
11632W        W54549  25.060  29.106  31.397  0.0272  0.3001 -0.0260
11633W        W54550  23.819  26.424  30.375 -0.0769  0.0142 -0.0885
11634W        W54551  23.062  25.538  27.875  0.0347 -0.2236 -0.1557
11635W        W54552  22.806  27.340  28.464  0.0678  0.2266  0.2453
11636W        W54553  22.349  23.954  30.256 -0.0033 -0.1357  0.1128
11637W        W54554  25.734  27.091  31.818  0.0292  0.0929 -0.3460
11638W        W54555  22.882  25.616  29.881  0.1821  0.0444  0.2187
11639W        W54556  25.712  28.916  29.770 -0.3564 -0.0704 -0.2096
11640W        W54557  23.744  26.101  28.497 -0.1195 -0.0195  0.1011
11641W        W54558  23.272  28.414  28.853 -0.3173  0.1698  0.5352
11642W        W54559  24.274  26.350  30.638  0.1728  0.1232  0.0085
11643W        W54560  25.709  26.691  28.938 -0.4558 -0.0151 -0.1679
11644W        W54561  21.564  27.295  28.548  0.1156  0.2397  0.1706
11645W        W54562  25.751  27.809   0.447  0.2889  0.1465 -0.0619
11646W        W54563  24.861  28.291  30.826  0.0479  0.3540  0.1092
11647W        W54564  22.392  25.420  29.605  0.3245  0.2116  0.1320
11648W        W54565  22.926  28.659  29.116  0.0521  0.0364  0.1546
11649W        W54566  22.534  28.219  27.533 -0.0163  0.0980  0.0973
11650W        W54567  25.335  26.120  30.287 -0.1246 -0.0443  0.0019
11651W        W54568  25.002  25.830  28.699  0.0955 -0.0875  0.2286
11652W        W54569  25.156  28.536  28.967 -0.2679  0.0086  0.0455
11653W        W54570  25.713  25.091  31.470 -0.2372  0.1923 -0.1041
11654W        W54571  24.128  27.969  30.185 -0.0368 -0.0349  0.0957
11655W        W54572  25.369  28.748  31.388 -0.0497  0.1920  0.2450
11656W        W54573  24.349  28.566  27.175  0.1201 -0.1352  0.1325
11657W        W54574  22.871  27.023  31.870  0.4501 -0.0741  0.0666
11658W        W54575  21.826  27.029  28.235  0.0334  0.2529  0.1902
11659W        W54576  23.662  29.979  28.935 -0.2683  0.4774  0.0466
11660W        W54577  27.183  26.616  28.853  0.3087 -0.2286  0.0202
11661W        W54578  23.346  26.346  27.747 -0.1308  0.1005 -0.0679
11662W        W54579  25.641  28.984  27.068  0.0980  0.3222 -0.1937
11663W        W54580  22.072  26.031   0.668  0.2441 -0.0284  0.2957
11664W        W54581  26.245  25.409  27.629  0.0934 -0.1636  0.1815
11665W        W54582  24.167  23.719  29.772  0.0946 -0.0536  0.0616
11666W        W54583  23.152  27.600  30.242 -0.0334  0.0429 -0.4259
11667W        W54584  21.329  24.879  27.388 -0.1020 -0.1339  0.5076
11668W        W54585  23.381  27.526  26.787  0.3850  0.0730  0.0998
11669W        W54586  22.028  27.651  28.775  0.0749 -0.1142 -0.1808
11670W        W54587  23.716  27.398   0.116  0.1109 -0.2753 -0.0499
11671W        W54588  22.834  25.816   1.080 -0.0455  0.1844 -0.0433
11672W        W54589  24.087  26.640  31.350  0.1884 -0.1190 -0.0940
11673W        W54590  22.055  24.543  29.732  0.1014 -0.0087 -0.1709
11674W        W54591  25.734  28.678  28.859 -0.1090  0.0896  0.3541
11675W        W54592  23.394  26.827  30.385  0.2232  0.3778 -0.3490
11676W        W54593  19.983  25.782  30.082 -0.3377 -0.0420  0.1016
11677W        W54594  25.153  27.106  28.749 -0.0400 -0.0774 -0.1503
11678W        W54595  24.878  30.010  28.445 -0.0407  0.2591 -0.1699
11679W        W54596  22.565  26.037  28.623 -0.4612  0.1413 -0.0494
11680W        W54597  25.344  29.036   0.370  0.0569  0.2986 -0.2867
11681W        W54598  23.012  28.173  29.242 -0.2679 -0.0565  0.0915
11682W        W54599  22.902  26.525   0.625  0.1693 -0.2044  0.1962
11683W        W54600  25.409  27.009  30.486  0.1519  0.2453  0.0212
11684W        W54601  22.360  26.306  28.291  0.0924  0.1789 -0.0978
11685W        W54602  23.226  25.223  29.782 -0.2317 -0.3125 -0.0037
11686W        W54603  22.272  26.709  29.725 -0.1357  0.0011  0.2942
11687W        W54604  24.184  29.265  26.710 -0.0375  0.0422 -0.1075
11688W        W54605  22.872  29.179  29.286  0.1209  0.0168 -0.4401
11689W        W54606  23.429  27.980  30.111  0.2400  0.3362  0.1137
11690W        W54607  20.585  27.719  29.964 -0.0126 -0.0606  0.0285
11691W        W54608  24.801  27.579  29.009  0.1185 -0.0385  0.1038
11692W        W54609  23.528  27.353  29.669 -0.0512 -0.1253 -0.1979
11693W        W54610  26.359  30.265  29.008  0.0613 -0.3746 -0.0365
11694W        W54611  24.696  24.726  28.057 -0.4459  0.1911  0.0262
11695W        W54612  23.699  26.973  29.367 -0.1489  0.0812 -0.0961
11696W        W54613  22.980  28.651  30.641 -0.0247  0.4675  0.2477
11697W        W54614  22.581  27.454  31.899  0.2707  0.0129  0.0554
11698W        W54615  25.837  26.565  29.812  0.1068  0.0214 -0.2324
11699W        W54616  23.203  24.254  27.644 -0.0624  0.2417 -0.2111
11700W        W54617  24.422  24.694  29.530  0.0286 -0.0564 -0.4063
11701W        W54618  23.342  27.437  28.508 -0.1265 -0.0976  0.1885
11702W        W54619  21.755  28.311  30.052  0.2251  0.2801 -0.0354
11703W        W54620  23.314  27.196  27.254 -0.0454  0.2299 -0.0847
11704W        W54621  22.727  27.888  30.174 -0.2398  0.1090  0.0624
11705W        W54622  22.913  28.165  29.717  0.2417 -0.1650 -0.3883
11706W        W54623  24.742  29.224  31.824  0.0710  0.0542 -0.0771
11707W        W54624  23.876  26.100  26.675 -0.1030  0.0572 -0.0868
11708W        W54625  25.595  28.194  28.705  0.1587  0.2466 -0.3770
11709W        W54626  23.055  28.212  30.946  0.1233 -0.0046  0.2849
11710W        W54627  24.422  28.008  31.279 -0.0965  0.0275  0.0326
11711W        W54628  25.739  27.308   0.877 -0.2805 -0.1298 -0.3566
11712W        W54629  25.012  28.089  29.344 -0.3279 -0.0775  0.0309
11713W        W54630  21.740  24.764  28.141 -0.1718 -0.0185  0.2505
11714W        W54631  21.487  28.271  28.559 -0.0551  0.1671  0.0195
11715W        W54632  23.905  26.933  30.478  0.0709  0.0994  0.0683
11716W        W54633  24.512  25.098  30.352 -0.0272 -0.1421 -0.1240
11717W        W54634  23.202  27.763  30.747 -0.1317  0.2402  0.4857
11718W        W54635  25.230  26.252  28.659 -0.2166 -0.0251  0.1566
11719W        W54636  24.848  29.756  30.580  0.1364  0.0276  0.0822
11720W        W54637  24.639  27.611  30.272 -0.0446 -0.1000 -0.0824
11721W        W54638  24.262  26.161   0.397 -0.1248  0.1254 -0.1307
11722W        W54639  23.855  27.348   0.697 -0.0070  0.0157 -0.0495
11723W        W54640  24.144  25.799  31.628  0.2048 -0.2051  0.0430
11724W        W54641  23.430  27.206  31.713  0.3757  0.0018  0.2484
11725W        W54642  23.586  28.131   1.234  0.0626 -0.2356  0.0990
11726W        W54643  24.110  30.561  30.583  0.1689  0.2906 -0.2667
11727W        W54644  22.316  25.060  31.454  0.0271 -0.3228 -0.0686
11728W        W54645  23.812  27.725  31.434 -0.0549  0.3846  0.0835
11729W        W54646  23.905  27.230   1.246  0.3790  0.1057  0.2747
11730W        W54647  25.591  29.206  31.485 -0.0717  0.0748  0.2015
11731W        W54648  26.394  26.058   0.721  0.3760  0.0020 -0.3347
11732W        W54649  22.150  27.088   0.484 -0.0591 -0.0042  0.2198
11733W        W54650  23.877  27.157  31.422  0.0009  0.2048 -0.1287
11734W        W54651  23.201  28.195  31.880 -0.2185  0.0934 -0.5532
11735W        W54652  26.169  27.137   0.638 -0.0348 -0.1481 -0.1418
11736W        W54653  23.030  29.891   2.020 -0.0351 -0.3194 -0.1251
11737W        W54654  20.825  29.214  30.440  0.1858 -0.3692  0.0728
11738W        W54655  25.241  27.481   1.018 -0.1410 -0.0030  0.0243
11739W        W54656  19.503  25.062  31.143 -0.1737 -0.0830  0.2027
11740W        W54657  22.340  26.719   1.324 -0.2705  0.2867  0.1367
11741W        W54658  22.101  24.585   0.983 -0.1083 -0.2785 -0.0207
11742W        W54659  22.939  26.107  30.828 -0.1543 -0.1410 -0.0404
11743W        W54660  22.959  25.262  31.335  0.2757 -0.1381  0.1682
11744W        W54661  24.826  26.291  31.387 -0.3586  0.1301 -0.1769
11745W        W54662  23.604  26.354  31.854 -0.1804 -0.1671 -0.0260
11746W        W54663  22.583  25.121  30.984  0.1086 -0.0675 -0.3871
11747W        W54664  22.845  26.216   0.206  0.1652  0.0259 -0.0649
11748W        W54665  22.143  28.205  31.083  0.2002  0.0216  0.3360
11749W        W54666  22.380  25.018   1.476 -0.0828 -0.2149  0.2076
11750W        W54667  24.405  27.187  30.500  0.2326 -0.0702  0.0793
11751W        W54668  22.962  27.610  31.138 -0.0677 -0.2143 -0.0309
11752W        W54669  22.817  24.674   1.479  0.0779 -0.2675  0.2829
11753W        W54670  26.555  27.782  31.921 -0.1318  0.1559 -0.2139
11754W        W54671  23.581  26.621   0.738  0.0596 -0.1982  0.1910
11755W        W54672  22.406  26.036  30.865 -0.0058 -0.2900 -0.2714
11756W        W54673  23.466  27.726  31.803 -0.0379  0.1026  0.0868
11757W        W54674  24.126  28.182   1.466  0.0241 -0.1713 -0.0404
11758W        W54675  23.810  26.103   0.617 -0.0659 -0.0454  0.2428
11759W        W54676  23.077  25.622   1.546 -0.2840 -0.1501 -0.2417
11760W        W54677  25.212  27.220   0.158  0.1355  0.1899 -0.4140
11761W        W54678  24.782  24.581  31.672  0.4278  0.0404  0.1343
11762W        W54679  24.161  26.958  31.006  0.1654 -0.0806 -0.1370
11763W        W54680  22.285  23.605  31.006  0.2790 -0.1857 -0.0353
11764W        W54681  23.275  29.553  31.629  0.1989  0.0661  0.0182
11765W        W54682  22.903  26.526  31.258 -0.1036  0.1994 -0.0373
11766W        W54683  23.089  26.303  31.715 -0.2319 -0.1871 -0.1430
11767W        W54684  21.952  27.004  30.574  0.4030 -0.2084 -0.2014
11768W        W54685  23.491  27.148   0.435  0.1989 -0.0445 -0.2926
11769W        W54686  23.180  30.666   2.456 -0.1670  0.3027  0.0243
11770W        W54687  21.167  25.488  31.268 -0.3424 -0.1042 -0.1776
11771W        W54688  24.351  27.508  30.927 -0.0661  0.0486 -0.2307
11772W        W54689  24.469  23.720  31.408  0.1489  0.3726 -0.3668
11773W        W54690  23.263  25.315  31.833  0.2410  0.0536 -0.0189
11774W        W54691  22.481  27.061   0.819 -0.1544 -0.4008 -0.3748
11775W        W54692  22.576  26.014   1.434  0.0879 -0.2632 -0.1763
11776W        W54693  23.836  25.215  30.365 -0.1850 -0.4033 -0.3734
11777W        W54694  24.780  28.296   0.149  0.0783  0.1942  0.2508
11778W        W54695  23.730  31.094  30.220  0.1981 -0.3116 -0.4409
11779W        W54696  23.700  30.658  31.020  0.0617 -0.0906 -0.3161
11780W        W54697  22.320  25.374   0.271  0.0901  0.3302  0.0128
11781W        W54698  21.169  26.944   0.757 -0.2181  0.0202 -0.0573
11782W        W54699  23.105  27.032  31.267 -0.1286 -0.2278 -0.1703
11783W        W54700  20.624  27.070  30.662  0.1647  0.3079  0.0954
11784W        W54701  21.626  26.117   2.201 -0.1902  0.0733 -0.2529
11785W        W54702  24.888  26.839  31.892  0.1946  0.3615 -0.1398
11786W        W54703  27.192  28.196   0.859  0.2556 -0.1196  0.3238
11787W        W54704  23.627  25.922  31.568  0.0751  0.2036 -0.2919
11788W        W54705  22.799  30.469  20.714 -0.1357  0.4425  0.2112
11789W        W54706  23.152  32.093  19.081  0.3182 -0.0448  0.0711
11790W        W54707  24.624  30.466  16.444 -0.2930 -0.0641 -0.0831
11791W        W54708  26.026  29.880  16.715  0.1695 -0.0600  0.0014
11792W        W54709  21.483  30.002  19.541 -0.1898  0.0432  0.0461
11793W        W54710  24.607  33.996  17.548 -0.0662 -0.2604  0.1042
11794W        W54711  22.358  28.911  19.168  0.0018  0.0685 -0.0696
11795W        W54712  21.713  32.765  18.552  0.0582  0.1844 -0.1104
11796W        W54713  24.084  33.517  20.390  0.0510  0.0077 -0.1360
11797W        W54714  22.914  29.441  16.830 -0.3987  0.2609 -0.3600
11798W        W54715  23.241  31.472  20.096  0.1790  0.2821 -0.0412
11799W        W54716  20.333  32.311  17.354 -0.2668 -0.0866 -0.0628
11800W        W54717  22.771  28.935  16.741 -0.1416  0.1453  0.1067
11801W        W54718  21.122  29.693  17.659 -0.0199 -0.0346  0.0187
11802W        W54719  23.251  31.083  19.376 -0.3567  0.2694 -0.0540
11803W        W54720  21.658  30.021  16.538 -0.0831  0.1806 -0.2482
11804W        W54721  21.655  31.373  19.521  0.1902  0.4445  0.2765
11805W        W54722  23.782  30.020  18.447  0.0657  0.1927  0.0063
11806W        W54723  24.324  32.741  18.296 -0.1984 -0.1614 -0.1747
11807W        W54724  20.930  29.019  18.920  0.0176 -0.1520 -0.2679
11808W        W54725  24.834  28.803  19.860 -0.1382  0.0410 -0.3326
11809W        W54726  21.749   0.011  16.186 -0.0680 -0.1738  0.0251
11810W        W54727  22.364  31.283  17.435  0.0809  0.2229 -0.1269
11811W        W54728  21.839  29.369  18.279 -0.0464 -0.2889  0.0135
11812W        W54729  21.443  30.989  18.666 -0.2164 -0.2761  0.2443
11813W        W54730  25.855  30.736  19.486 -0.3009 -0.1688 -0.0360
11814W        W54731  24.283  31.825  19.799 -0.2309  0.0546 -0.0400
11815W        W54732  22.628  33.590  17.506 -0.0654 -0.1190 -0.1482
11816W        W54733  23.831  31.520  17.435  0.0362 -0.0589 -0.0861
11817W        W54734  26.526  30.657  21.109 -0.3486 -0.1816  0.1519
11818W        W54735  19.930  29.032  18.385 -0.1080  0.0121 -0.0504
11819W        W54736  22.549  32.624  18.742  0.1704 -0.1122  0.0253
11820W        W54737  22.349  34.187  17.318 -0.1607 -0.0631 -0.0664
11821W        W54738  25.571  30.776  19.022  0.2054 -0.1240 -0.0326
11822W        W54739  23.183  31.697  19.659 -0.0974 -0.2538  0.1141
11823W        W54740  21.970  32.563  21.731  0.2259  0.1164  0.1363
11824W        W54741  21.395  33.198  17.384  0.2962 -0.2498 -0.0302
11825W        W54742  23.824  32.847  18.258  0.1809  0.2365 -0.0420
11826W        W54743  21.630  32.169  19.217 -0.1362  0.0850  0.2875
11827W        W54744  22.515  31.795  20.752 -0.2185  0.0339  0.1165
11828W        W54745  23.616  30.517  18.085  0.2061  0.0440  0.2777
11829W        W54746  23.159  31.236  17.492  0.0589  0.2162  0.0499
11830W        W54747  24.640  32.507  17.931 -0.0247 -0.1351  0.1240
11831W        W54748  20.368  31.653  20.417  0.0640  0.1751  0.0484
11832W        W54749  21.031  31.629  19.072 -0.0323 -0.2199 -0.3276
11833W        W54750  23.275  30.216  21.036  0.2353  0.1545  0.0359
11834W        W54751  21.868  32.051  16.918 -0.2484  0.1818  0.0115
11835W        W54752  23.047  30.934  17.881  0.0071 -0.3938 -0.2491
11836W        W54753  23.600  27.104  17.667 -0.0890  0.3225  0.0589
11837W        W54754  24.352  30.056  17.148  0.1503 -0.0042 -0.3272
11838W        W54755  23.010  29.396  17.465 -0.1322  0.0915 -0.3618
11839W        W54756  22.833  31.864  17.808  0.0402  0.0878  0.0924
11840W        W54757  22.381  30.745  20.815  0.1918  0.0579  0.0676
11841W        W54758  23.806  30.814  19.325 -0.0886 -0.0966  0.1957
11842W        W54759  23.643  28.238  18.880 -0.1424 -0.2719  0.2193
11843W        W54760  26.384  31.044  20.366  0.2967 -0.1352  0.0661
11844W        W54761  23.003  32.396  18.668 -0.1290 -0.4454 -0.0957
11845W        W54762  21.769  31.031  18.166  0.0720 -0.1893  0.0785
11846W        W54763  23.801   0.669  18.302 -0.2431  0.2302 -0.0476
11847W        W54764  25.191  31.867  18.541 -0.3499 -0.1036 -0.0242
11848W        W54765  24.805  33.717  19.709  0.2446  0.1744 -0.0364
11849W        W54766  23.874  31.754  16.969  0.0550  0.1235 -0.1024
11850W        W54767  20.152  31.321  21.506  0.0456  0.2011 -0.0527
11851W        W54768  24.917  29.591  19.472  0.1534 -0.0740 -0.1254
11852W        W54769  22.299  30.172  18.269  0.0148  0.2856 -0.0041
11853W        W54770  24.644  31.873  18.600 -0.3044 -0.0078  0.2908
11854W        W54771  21.160  34.610  21.138 -0.3259  0.3476  0.1345
11855W        W54772  23.842  29.249  18.094 -0.0835 -0.1463 -0.0408
11856W        W54773  23.649  31.838  18.972 -0.1558  0.3565  0.0930
11857W        W54774  27.268  32.521  18.122  0.4405  0.0661  0.5364
11858W        W54775  24.256  31.252  17.503  0.2188  0.0873 -0.3090
11859W        W54776  23.473  28.095  17.969  0.1429  0.2394  0.1834
11860W        W54777  23.738  31.112  18.710  0.0592  0.0519 -0.2928
11861W        W54778  22.157  32.701  16.784 -0.0162  0.0044 -0.0554
11862W        W54779  22.440  32.059  18.658  0.0720 -0.1479 -0.2923
11863W        W54780  25.656  32.132  19.394  0.0232 -0.1618  0.1951
11864W        W54781  24.633  31.359  16.596  0.0770  0.2734  0.2166
11865W        W54782  24.231  34.669  18.761 -0.1583  0.1798  0.1535
11866W        W54783  21.400  30.131  18.396  0.0979 -0.1221 -0.0005
11867W        W54784  22.673  30.725  20.248 -0.0193 -0.0674 -0.1796
11868W        W54785  21.069  32.715  16.253  0.1161 -0.3713  0.0491
11869W        W54786  18.660  31.604  20.198  0.0412 -0.1543 -0.1770
11870W        W54787  22.408  32.767  17.270 -0.0039 -0.1181  0.1636
11871W        W54788  21.045  30.932  16.562  0.0480  0.0886  0.5336
11872W        W54789  21.898  33.188  18.273 -0.0108 -0.1984 -0.3911
11873W        W54790  24.582  30.098  17.935 -0.2541  0.1978  0.0606
11874W        W54791  21.151  27.490  19.984 -0.0207 -0.1931 -0.1505
11875W        W54792  26.833  29.603  17.230 -0.2191  0.0254 -0.2141
11876W        W54793  22.269  32.889  18.423 -0.0013 -0.1049 -0.1888
11877W        W54794  25.093   0.605  18.858  0.1961 -0.2568 -0.0928
11878W        W54795  24.386  30.924  16.566  0.0970  0.3404 -0.2952
11879W        W54796  24.749  32.596  17.010  0.0937 -0.3454 -0.2482
11880W        W54797  20.815  30.001  19.076  0.2676 -0.2153 -0.3715
11881W        W54798  20.774  30.382  16.616  0.2899 -0.0006 -0.0393
11882W        W54799  24.007  28.327  19.809  0.0816 -0.0955 -0.1750
11883W        W54800  22.320  29.182  18.207 -0.1582  0.1821  0.2049
11884W        W54801  25.674  29.750  19.238 -0.0573  0.0683 -0.0225
11885W        W54802  20.843  29.196  17.068 -0.2673 -0.5549 -0.1240
11886W        W54803  25.615  28.874  19.419 -0.1876  0.0105  0.1116
11887W        W54804  22.982  31.692  18.753  0.2653  0.3866 -0.0576
11888W        W54805  21.055  32.853  17.559 -0.0252 -0.1663  0.1833
11889W        W54806  23.576  27.766  20.770  0.3207 -0.1999 -0.0526
11890W        W54807  24.502  32.077  16.046 -0.3374 -0.0727  0.2418
11891W        W54808  25.920   0.392  19.944  0.2014  0.1404 -0.3141
11892W        W54809  23.164  33.191  19.289 -0.2342  0.0803 -0.0243
11893W        W54810  23.031  29.515  19.366 -0.1621  0.1752 -0.0793
11894W        W54811  23.596  28.652  17.717 -0.2157  0.0164  0.1075
11895W        W54812  21.272   0.699  17.559 -0.2378  0.0391  0.1122
11896W        W54813  20.901  29.973  20.133  0.0602 -0.0469 -0.1072
11897W        W54814  22.336  30.033  19.507  0.0729  0.0552  0.2236
11898W        W54815  23.695   0.021  17.357  0.1874 -0.0004 -0.0194
11899W        W54816  24.350  31.691  16.854 -0.1196 -0.0900 -0.2828
11900W        W54817  22.424  30.779  18.745 -0.0407  0.0823  0.0709
11901W        W54818  23.962  29.794  19.893 -0.0848 -0.1206  0.0431
11902W        W54819  23.499  32.595  19.979 -0.1192 -0.0245  0.0701
11903W        W54820  23.898  29.755  17.157  0.0361  0.2583  0.1164
11904W        W54821  22.763  29.756  17.245  0.0517  0.1990 -0.0620
11905W        W54822  25.001  32.521  17.608  0.1476 -0.0129  0.1736
11906W        W54823  19.017  31.728  18.228 -0.0886  0.0550 -0.1678
11907W        W54824  21.476  31.632  17.440  0.0732  0.1045 -0.1148
11908W        W54825  23.314  31.713  17.685  0.0175  0.1582 -0.0200
11909W        W54826  24.432  30.090  18.442 -0.2943 -0.0835  0.3960
11910W        W54827  21.497  28.573  20.119  0.1995  0.2089 -0.1129
11911W        W54828  23.163  29.120  18.451 -0.1304 -0.1763  0.1198
11912W        W54829  21.376  30.741  17.016 -0.3012  0.0363 -0.0549
11913W        W54830  22.364  31.261  20.003 -0.2900 -0.1520 -0.0029
11914W        W54831  23.545  29.845  18.843 -0.0654  0.1355 -0.2656
11915W        W54832  25.634  29.761  16.422 -0.0276  0.2279 -0.0880
11916W        W54833  24.048  30.510  18.467 -0.2261 -0.1214 -0.0046
11917W        W54834  24.606  30.456  17.290  0.0312 -0.0382 -0.4747
11918W        W54835  25.406  27.671  16.795 -0.0862  0.2828 -0.0178
11919W        W54836  24.055  28.341  17.670  0.2520 -0.0131  0.1619
11920W        W54837  20.873  31.135  18.418 -0.0282  0.0110 -0.1647
11921W        W54838  23.953  28.990  17.670  0.0103  0.0115 -0.1695
11922W        W54839  24.912  30.173  19.586  0.0164 -0.0772 -0.1717
11923W        W54840  23.445  30.140  16.792  0.1369 -0.4513  0.2643
11924W        W54841  26.576  31.377  16.927 -0.1142 -0.0827 -0.2487
11925W        W54842  20.220  31.461  19.487  0.0333 -0.1365  0.1497
11926W        W54843  23.803  31.040  22.120 -0.0109  0.3121 -0.0910
11927W        W54844  24.896  34.012  18.380 -0.3077 -0.0241  0.3138
11928W        W54845  21.571  30.676  20.068 -0.0398 -0.1652 -0.1214
11929W        W54846  23.087  31.756  16.384  0.1687 -0.1153 -0.3331
11930W        W54847  23.725  30.508  17.572 -0.0976  0.1060 -0.0402
11931W        W54848  20.222  31.985  16.967 -0.1024 -0.0778 -0.4899
11932W        W54849  25.518  29.538  18.802 -0.1266 -0.0447  0.1633
11933W        W54850  23.034  31.709  18.216 -0.1719 -0.2071  0.0409
11934W        W54851  23.761  28.877  19.708  0.0887 -0.3341 -0.1120
11935W        W54852  26.726  30.936  19.944 -0.6145 -0.0357  0.0741
11936W        W54853  23.879  30.789  16.691 -0.2500  0.2729 -0.0590
11937W        W54854  22.019  29.583  17.775 -0.0971 -0.1408  0.3889
11938W        W54855  22.335  30.905  16.413  0.0651  0.0475  0.1628
11939W        W54856  22.505  29.853  18.687 -0.1274 -0.2276  0.1595
11940W        W54857  23.111  31.865  20.910  0.0265 -0.3179 -0.0562
11941W        W54858  22.489  31.697  18.966 -0.1219 -0.1474  0.1386
11942W        W54859  24.053  31.212  19.662  0.0323  0.0200  0.0871
11943W        W54860  23.852  30.280  19.738  0.0868 -0.3321 -0.1517
11944W        W54861  20.797  28.718  19.778 -0.0080 -0.0418 -0.3376
11945W        W54862  22.729  29.421  18.535  0.1598 -0.1827 -0.2796
11946W        W54863  20.312  33.216  16.412  0.0852 -0.3570  0.0423
11947W        W54864  23.300  29.838  17.560 -0.2525  0.3280  0.1191
11948W        W54865  24.683  27.162  20.614 -0.0181  0.0789  0.0136
11949W        W54866  21.860  30.962  19.247 -0.0089 -0.1646 -0.2957
11950W        W54867  23.770  30.915  17.254 -0.1927  0.1426 -0.0288
11951W        W54868  23.257  29.991  20.215 -0.0337 -0.2839 -0.0201
11952W        W54869  21.859  32.636  19.540  0.4643 -0.0003  0.0019
11953W        W54870  21.921  28.768  18.867  0.0892  0.5019  0.0091
11954W        W54871  19.982   0.123  18.027  0.0160  0.0444 -0.1661
11955W        W54872  23.507  29.570  17.910  0.1647  0.0126 -0.0973
11956W        W54873  21.973  31.933  18.237  0.3552 -0.0761  0.0541
11957W        W54874  23.384  31.353  18.045 -0.2717 -0.1008  0.0963
11958W        W54875  25.032  32.586  16.617 -0.0877 -0.0621  0.0083
11959W        W54876  21.380  30.118  18.961 -0.0823  0.2847 -0.1542
11960W        W54877  21.518  29.685  18.619 -0.3417  0.1378  0.0914
11961W        W54878  19.649  32.356  18.591 -0.0045  0.2530  0.0631
11962W        W54879  22.906  29.937  20.708 -0.2285 -0.1643  0.2730
11963W        W54880  23.227  29.035  17.049 -0.2588 -0.2481 -0.1503
11964W        W54881  22.623  30.743  18.292  0.0054  0.3860  0.2823
11965W        W54882  22.657  32.363  18.290 -0.1382  0.1548  0.0523
11966W        W54883  21.756  29.680  19.050 -0.0971 -0.2644 -0.1962
11967W        W54884  23.998  30.763  19.966 -0.0549 -0.1680 -0.2560
11968W        W54885  24.073  30.283  18.039 -0.0976  0.0223 -0.0336
11969W        W54886  20.015  32.770  17.912 -0.1896  0.1315 -0.0557
11970W        W54887  25.335  31.126  18.479  0.0321 -0.0114  0.0051
11971W        W54888  21.363  31.576  19.976 -0.2036  0.5348  0.2780
11972W        W54889  21.801  32.682  17.560 -0.2142 -0.1997 -0.1289
11973W        W54890  19.526  30.170  21.231 -0.0647  0.2106 -0.1170
11974W        W54891  25.492  32.192  17.388 -0.1353  0.3422  0.0823
11975W        W54892  22.587  29.472  19.086 -0.2768  0.1012 -0.0760
11976W        W54893  19.937  29.932  17.050  0.1020  0.5768  0.2433
11977W        W54894  23.250  30.373  17.714 -0.3978 -0.0788 -0.1436
11978W        W54895  24.828  30.997  19.492  0.0988  0.2238 -0.2788
11979W        W54896  23.553  30.216  20.615  0.1302 -0.0571 -0.0434
11980W        W54897  21.521  30.152  20.004 -0.2384 -0.3237 -0.0706
11981W        W54898  23.055  28.831  19.250 -0.1128 -0.0459  0.1675
11982W        W54899  24.719  34.475  17.122 -0.1920  0.1094  0.2744
11983W        W54900  22.861  31.290  19.802 -0.0208 -0.3877  0.1392
11984W        W54901  22.140  31.134  17.029  0.0793  0.0445  0.0238
11985W        W54902  22.832  31.389  19.298 -0.1352 -0.0800 -0.0041
11986W        W54903  21.942  32.166  17.664  0.0489  0.5246 -0.1125
11987W        W54904  24.565  30.093  18.989  0.1761  0.0279  0.0005
11988W        W54905  20.835  32.141  18.020 -0.1907 -0.3568  0.0588
11989W        W54906  20.620  31.624  17.225  0.0678  0.2158 -0.0904
11990W        W54907  21.140  31.164  17.123  0.1867  0.0126 -0.3183
11991W        W54908  25.453  29.290  17.224  0.1697 -0.0060  0.1275
11992W        W54909  23.261  32.238  16.868  0.0276  0.0501  0.1210
11993W        W54910  21.776  29.892  18.207 -0.2230 -0.3557  0.1318
11994W        W54911  26.924  29.156  21.243 -0.2968 -0.1823  0.2127
11995W        W54912  20.438  32.190  18.374  0.1138  0.0659  0.5021
11996W        W54913  22.626  29.000  19.642 -0.1457  0.1627 -0.2467
11997W        W54914  21.229  28.080  19.206 -0.4887 -0.1799 -0.3582
11998W        W54915  24.725  31.942  17.298 -0.0800 -0.1775 -0.1189
11999W        W54916  23.117  30.988  20.283 -0.2632  0.1893  0.0747
12000W        W54917  25.493  31.652  19.394 -0.3556 -0.0882 -0.0336
12001W        W54918  21.725  31.181  20.173 -0.0775  0.4059  0.4283
12002W        W54919  21.789  31.282  17.635  0.0211 -0.0262 -0.0274
12003W        W54920  21.724  29.978  17.071  0.1763 -0.0316 -0.3349
12004W        W54921  22.410  34.407  17.782  0.2200 -0.3254 -0.1856
12005W        W54922  24.568  32.032  19.437 -0.0233 -0.4272  0.0024
12006W        W54923  22.882  32.919  17.375 -0.3142  0.0599  0.4212
12007W        W54924  25.921  29.855  17.260  0.4077  0.1285  0.0662
12008W        W54925  22.850  30.751  19.251  0.1370  0.1244  0.1691
12009W        W54926  22.327  29.220  18.721  0.0080  0.0618 -0.1009
12010W        W54927  22.653  31.296  16.357  0.1765  0.1085 -0.2939
12011W        W54928  21.975  31.582  19.160  0.0467  0.0365 -0.2415
12012W        W54929  22.837  30.237  18.592  0.3358 -0.0540 -0.0594
12013W        W54930  23.864  29.507  18.531  0.2020 -0.0175  0.6506
12014W        W54931  22.770  30.265  19.449 -0.0549 -0.2540  0.0606
12015W        W54932  20.599  30.249  20.479  0.2618 -0.4409  0.0095
12016W        W54933  24.721  30.567  19.264 -0.0878  0.3228 -0.0352
12017W        W54934  21.802  30.385  20.429  0.1737 -0.3142 -0.0201
12018W        W54935  21.759  28.680  21.511  0.1059 -0.0757  0.1514
12019W        W54936  25.027  32.413  18.212  0.2554 -0.1686 -0.2590
12020W        W54937  24.517  30.018  16.228  0.0520 -0.0906 -0.2162
12021W        W54938  25.398  28.564  18.553 -0.0789 -0.0078 -0.1891
12022W        W54939  23.685  30.961  18.258 -0.1860  0.0925  0.0266
12023W        W54940  24.964  29.945  16.199 -0.1200 -0.0468  0.1236
12024W        W54941  20.987  29.369  21.027 -0.3945 -0.1494  0.1048
12025W        W54942  25.480  30.826  19.909  0.0959  0.0794 -0.3318
12026W        W54943  24.393  28.689  17.656  0.0990  0.2945  0.1457
12027W        W54944  23.479  28.431  20.163 -0.0135 -0.2560 -0.0921
12028W        W54945  22.482  31.268  18.648 -0.4224 -0.2401 -0.1933
12029W        W54946  22.954  32.634  17.900  0.0532 -0.5216  0.0262
12030W        W54947  24.160  31.184  19.190  0.3205 -0.2023  0.0271
12031W        W54948  19.193  29.843  18.005  0.0749 -0.1286  0.1771
12032W        W54949  22.873  33.015  18.789 -0.0943 -0.0743  0.0135
12033W        W54950  24.966  29.765  17.110  0.0287  0.3663 -0.0117
12034W        W54951  22.954  32.622  16.754  0.1851 -0.2572 -0.1100
12035W        W54952  23.846  32.566  19.492 -0.0582  0.1274  0.1537
12036W        W54953  23.227  29.471  20.249 -0.1538 -0.2459 -0.1390
12037W        W54954  22.665  29.128  17.201  0.0751  0.1269 -0.0290
12038W        W54955  24.445  30.946  19.869  0.0243 -0.0760 -0.2618
12039W        W54956  21.027  33.535  18.844  0.1737 -0.0960 -0.0657
12040W        W54957  23.445  31.530  18.643  0.0846  0.0527  0.1261
12041W        W54958  21.500  31.811  21.875 -0.2323  0.0908  0.4402
12042W        W54959  21.873  33.024  20.307  0.1731 -0.2992  0.0382
12043W        W54960  22.609  32.244  17.505  0.0217  0.1109  0.1901
12044W        W54961  25.297  27.572  18.203  0.0331  0.0237 -0.1423
12045W        W54962  23.135  29.379  18.867  0.0585 -0.2574  0.1429
12046W        W54963  23.291  30.711  17.379  0.0814 -0.2887 -0.1067
12047W        W54964  26.352  31.570  20.517 -0.2588 -0.0628  0.0287
12048W        W54965  19.555   0.425  19.000 -0.0395  0.0112  0.0378
12049W        W54966  21.049  30.764  18.871 -0.2811  0.1358 -0.1644
12050W        W54967  22.100  32.429  18.628  0.1169 -0.1103  0.0823
12051W        W54968  24.675  30.937  18.530  0.2865 -0.0824 -0.0188
12052W        W54969  25.386  32.092  16.798  0.0384  0.2935  0.2004
12053W        W54970  20.449  30.022  18.679 -0.1504 -0.2575 -0.0993
12054W        W54971  24.089  30.413  19.101 -0.3472  0.3108  0.1155
12055W        W54972  23.687  31.292  19.165 -0.0934  0.1689 -0.1984
12056W        W54973  20.802  27.271  17.026 -0.2717 -0.0025 -0.0245
12057W        W54974  22.524  32.925  17.752 -0.4247  0.1114  0.0651
12058W        W54975  21.976  31.587  19.954 -0.1550 -0.1437  0.0701
12059W        W54976  18.390  31.519  20.656  0.2817  0.1070 -0.1395
12060W        W54977  21.320  31.973  16.030 -0.2411 -0.0091  0.0527
12061W        W54978  24.527  31.266  17.068 -0.0853 -0.2601 -0.1848
12062W        W54979  22.134  31.573  17.894  0.1082 -0.2292 -0.0929
12063W        W54980  23.051  33.758  17.708  0.0917  0.0502  0.0046
12064W        W54981  24.653  29.137  19.536  0.2858  0.2919 -0.1822
12065W        W54982  23.263  33.779  17.084 -0.0503 -0.0719 -0.1341
12066W        W54983  22.406  31.838  17.506 -0.1020  0.2948  0.0389
12067W        W54984  24.254  30.818  17.141 -0.1330 -0.2709  0.2585
12068W        W54985  21.873  30.159  19.243  0.1621  0.3250 -0.1580
12069W        W54986  23.696  32.443  20.384 -0.1123 -0.1336 -0.2311
12070W        W54987  23.605  28.793  17.243 -0.2203  0.1635 -0.1171
12071W        W54988  25.786  31.954  17.071  0.0004 -0.1030  0.0313
12072W        W54989  25.474  29.746  17.052  0.0777  0.2789  0.4220
12073W        W54990  25.082  32.062  19.465 -0.2481 -0.1019 -0.0531
12074W        W54991  22.759  31.358  17.777 -0.1045 -0.0455  0.1285
12075W        W54992  23.090  30.541  18.197 -0.0555  0.2916  0.1115
12076W        W54993  23.066  29.219  21.109  0.2824 -0.2182 -0.0131
12077W        W54994  25.123  29.817  20.874  0.0272  0.0207  0.0780
12078W        W54995  21.160  32.129  20.769 -0.3492  0.0245 -0.3214
12079W        W54996  23.801  34.628  16.851 -0.4368 -0.1807  0.1190
12080W        W54997  21.634  30.604  18.401 -0.1144 -0.2685 -0.0087
12081W        W54998  24.143  30.866  18.868 -0.0372 -0.1198 -0.1937
12082W        W54999  25.827  28.788  18.608  0.1126  0.0811  0.0292
12083W        W55000  22.650  30.994  16.830  0.1350 -0.0656  0.1925
12084W        W55001  23.479  30.257  17.262  0.0618  0.5959  0.1795
12085W        W55002  22.749  32.879  18.335  0.1034 -0.1790 -0.0521
12086W        W55003  22.039  33.217  17.711  0.2746  0.0367 -0.0127
12087W        W55004  21.317  32.906  19.362 -0.2213  0.0392  0.1471
12088W        W55005  21.399  30.726  17.868  0.1225  0.1530 -0.1656
12089W        W55006  24.846  31.990  16.787  0.1687 -0.1140  0.1409
12090W        W55007  23.498  29.059  19.320  0.1423  0.0027  0.0573
12091W        W55008  24.624  26.928  20.160  0.6719 -0.0199  0.3312
12092W        W55009  24.014  32.769  17.222  0.0419 -0.0773 -0.5146
12093W        W55010  23.912  30.136  16.670 -0.0337  0.0899 -0.1915
12094W        W55011  23.549  31.892  18.116 -0.2861 -0.1488  0.0213
12095W        W55012  23.039  30.840  19.760  0.2116  0.1380 -0.4042
12096W        W55013  23.462  30.635  16.886 -0.0192  0.0437  0.1784
12097W        W55014  23.793  30.012  17.694  0.1964 -0.0271  0.0587
12098W        W55015  23.454  30.902  16.387  0.0316 -0.3324  0.1727
12099W        W55016  21.858  31.899  19.572 -0.2101 -0.0558 -0.0452
12100W        W55017  21.075  30.103  17.373 -0.1337 -0.0427 -0.0788
12101W        W55018  23.355  29.174  16.601 -0.1499 -0.0756 -0.4371
12102W        W55019  21.776  30.994  16.660 -0.3109 -0.0051  0.4169
12103W        W55020  22.130  30.665  18.297 -0.1819  0.3337  0.2292
12104W        W55021  23.865  34.272  18.632 -0.0803  0.1346  0.1389
12105W        W55022  22.694  28.545  19.353 -0.1236 -0.0281  0.1201
12106W        W55023  24.887  32.580  16.129 -0.0072  0.0461 -0.2489
12107W        W55024  23.341  30.244  18.541  0.0965  0.0789  0.2389
12108W        W55025  22.416  34.271  18.779  0.2331 -0.1289  0.1458
12109W        W55026  25.749  32.287  16.390  0.0582 -0.1793  0.0752
12110W        W55027  24.066  33.288  17.381  0.1635 -0.2352 -0.3320
12111W        W55028  22.772  31.177  18.275  0.0894  0.1849 -0.0340
12112W        W55029  25.760  31.873  19.855  0.0497 -0.0192 -0.1232
12113W        W55030  24.810  31.973  18.169 -0.1523  0.0159  0.0063
12114W        W55031  22.843  29.419  17.923  0.1908  0.2994 -0.3416
12115W        W55032  22.297  31.083  17.904  0.2513  0.0124 -0.0010
12116W        W55033  20.938  34.152  18.354  0.4203  0.4575 -0.2089
12117W        W55034  25.866  31.647  18.929  0.2547 -0.0787  0.1214
12118W        W55035  24.422  27.201  19.796 -0.0559 -0.0733  0.2848
12119W        W55036  22.157  32.152  19.068 -0.0739 -0.0937 -0.0604
12120W        W55037  24.601  29.809  19.911 -0.3111  0.1276 -0.2167
12121W        W55038  19.833  31.057  19.704 -0.0503 -0.0785  0.0256
12122W        W55039  24.081  32.077  18.693 -0.0043  0.0165  0.0702
12123W        W55040  22.287  30.725  17.364  0.1310  0.0167  0.3563
12124W        W55041  23.111  31.197  18.905  0.0099  0.0603  0.1276
12125W        W55042  23.791  32.226  16.862  0.0354 -0.0637  0.1871
12126W        W55043  23.685  33.110  17.127 -0.4176 -0.3475 -0.0543
12127W        W55044  24.008  31.517  18.875  0.0432  0.0265  0.0123
12128W        W55045  24.287  29.791  16.741 -0.0638 -0.1597 -0.1256
12129W        W55046  25.076  30.570  17.429  0.1602  0.2539 -0.0380
12130W        W55047  20.256  31.152  20.217  0.0733 -0.0205 -0.0136
12131W        W55048  25.896  30.349  18.478  0.2515  0.1603 -0.2511
12132W        W55049  25.503  30.303  19.266 -0.4284  0.0277 -0.3238
12133W        W55050  21.266  32.499  17.930  0.1014  0.1456 -0.2252
12134W        W55051  22.158  29.748  16.631  0.0263 -0.0055 -0.1691
12135W        W55052  22.482  31.681  18.265 -0.1497 -0.1445  0.3189
12136W        W55053  20.481  33.435  19.032  0.1581 -0.1241  0.2946
12137W        W55054  21.551  28.906  20.541 -0.1155  0.1728 -0.1842
12138W        W55055  20.544  30.987  17.387  0.1533  0.0885 -0.2583
12139W        W55056  22.511  30.186  17.278  0.2774 -0.1307  0.0121
12140W        W55057  23.279  30.070  19.657  0.0556 -0.1012  0.0608
12141W        W55058  23.816  32.794  17.669 -0.1020 -0.1592 -0.0546
12142W        W55059  22.371  31.071  19.228 -0.1365  0.0778 -0.0852
12143W        W55060  22.435  29.458  17.555  0.2324 -0.0559 -0.0276
12144W        W55061  22.222  30.533  17.831 -0.1525 -0.0245 -0.0718
12145W        W55062  24.508  33.009  17.300  0.1233  0.0797 -0.1579
12146W        W55063  24.051  29.938  18.888 -0.2223  0.0002  0.3815
12147W        W55064  25.146  31.431  20.677  0.0983  0.2368 -0.0306
12148W        W55065  20.462  31.442  17.661  0.1333 -0.1933 -0.2630
12149W        W55066  22.104  30.331  21.551 -0.2844  0.1000  0.0696
12150W        W55067  22.035  31.726  18.685  0.1408 -0.0827  0.1290
12151W        W55068  21.451  30.995  17.502  0.0425 -0.0922 -0.0048
12152W        W55069  21.868  30.541  19.631 -0.1473 -0.1178 -0.1356
12153W        W55070  23.983  31.346  17.947  0.3941  0.0653 -0.2552
12154W        W55071  22.775  33.418  16.489 -0.3762  0.0792 -0.0578
12155W        W55072  22.744   0.959  17.643 -0.1255  0.2053 -0.0517
12156W        W55073  21.307  32.873  18.299  0.0503 -0.4895  0.0017
12157W        W55074  24.930  26.938  17.311  0.1052  0.2117  0.0820
12158W        W55075  22.790  31.437  17.222 -0.1113 -0.0801 -0.0865
12159W        W55076  23.327  30.762  19.012 -0.2577 -0.0732  0.1192
12160W        W55077  24.337  31.614  16.233 -0.1685  0.4097  0.0813
12161W        W55078  25.775  32.515  18.814  0.0101  0.1772  0.0577
12162W        W55079  23.985  29.542  17.617 -0.2883  0.2135  0.1851
12163W        W55080  22.240  26.681  19.658 -0.0583 -0.0946 -0.2049
12164W        W55081  20.467  32.015  19.215  0.3260 -0.0178 -0.0326
12165W        W55082  24.571  31.078  18.019 -0.2729 -0.0128  0.3499
12166W        W55083  22.420  29.551  16.965  0.0258 -0.0024  0.0199
12167W        W55084  25.612  31.842  17.696 -0.0796 -0.1642  0.3454
12168W        W55085  23.968  31.850  17.873 -0.1855 -0.0265 -0.4620
12169W        W55086  23.190  29.191  19.704  0.0508  0.1018 -0.3570
12170W        W55087  21.061  31.635  17.969 -0.3137 -0.1134  0.1010
12171W        W55088  22.367  29.810  20.070 -0.0404 -0.2329  0.2517
12172W        W55089  24.144  29.786  18.085 -0.0789 -0.1935  0.2946
12173W        W55090  23.369  32.006  18.580 -0.0958 -0.0843  0.1635
12174W        W55091  22.365  31.473  19.552  0.4201  0.2086  0.0758
12175W        W55092  23.551  31.002  17.712  0.0517 -0.1268 -0.0622
12176W        W55093  23.903  31.648  19.402 -0.0294  0.0676  0.0410
12177W        W55094  25.454  32.504  19.707 -0.0828  0.1222  0.0535
12178W        W55095  23.689  32.251  17.725  0.1497 -0.1331  0.1543
12179W        W55096  22.986  31.922  17.299 -0.0695 -0.0441 -0.0606
12180W        W55097  24.289  27.528  18.820 -0.2376 -0.2182 -0.1741
12181W        W55098  22.650  30.534  16.575  0.2620  0.1741 -0.1563
12182W        W55099  23.033  32.454  17.273  0.1098 -0.1045 -0.0287
12183W        W55100  24.177  30.976  18.371 -0.0208  0.0457  0.0305
12184W        W55101  23.114  30.289  19.062  0.2205 -0.0251 -0.1151
12185W        W55102  20.988  29.736  18.673 -0.3383 -0.0229  0.5096
12186W        W55103  23.002  33.896  19.747  0.0794 -0.1340  0.2389
12187W        W55104  21.374  31.795  19.476 -0.2055 -0.0697  0.1180
12188W        W55105  24.644  31.965  21.089  0.0895  0.2917 -0.0335
12189W        W55106  21.666  29.387  21.739 -0.1041 -0.1429  0.0223
12190W        W55107  23.360  30.573  19.546  0.5480  0.0360  0.0931
12191W        W55108  24.108  33.323  22.421 -0.1609  0.2639 -0.0707
12192W        W55109  22.543  29.349  20.048 -0.1015 -0.1017  0.1057
12193W        W55110  22.608  29.615  20.960 -0.1871 -0.2027  0.0281
12194W        W55111  21.729  28.487  20.891 -0.1005 -0.1091 -0.1444
12195W        W55112  25.389  30.738  21.040 -0.0004 -0.1353 -0.0486
12196W        W55113  23.842  32.925  21.504 -0.1026  0.2439 -0.0395
12197W        W55114  24.283  30.680  19.499 -0.1292  0.1618  0.0834
12198W        W55115  20.734  29.642  23.002 -0.2443  0.0689 -0.1369
12199W        W55116  24.168  32.828  22.723  0.0971 -0.1636 -0.0641
12200W        W55117  23.187  30.908  21.830  0.0587  0.2232 -0.1744
12201W        W55118  21.359  29.221  21.295 -0.1169  0.3309 -0.6814
12202W        W55119  25.607  30.776  21.456 -0.3097 -0.1598  0.0114
12203W        W55120  22.118  31.568  20.934  0.2849 -0.0462 -0.4574
12204W        W55121  23.553  31.983  20.593  0.1342 -0.2593 -0.0504
12205W        W55122  23.967  28.553  21.325 -0.1189 -0.3922  0.2405
12206W        W55123  22.704  32.367  22.283  0.1622  0.0594 -0.0826
12207W        W55124  22.259  29.213  24.122  0.2970 -0.1258 -0.2890
12208W        W55125  23.399  31.437  21.720  0.0511 -0.0219 -0.2233
12209W        W55126  22.019  32.520  23.341 -0.2750  0.0887 -0.2368
12210W        W55127  21.942  30.046  20.849 -0.2280 -0.1012  0.0131
12211W        W55128  20.104  30.862  21.143  0.0798 -0.3790  0.1793
12212W        W55129  23.974  29.806  22.598  0.1325  0.0935 -0.1199
12213W        W55130  24.425  29.630  21.899 -0.0039 -0.4545  0.1565
12214W        W55131  24.255  30.698  21.350  0.1673 -0.1712  0.1019
12215W        W55132  21.828  32.930  20.952  0.3584 -0.0251 -0.2795
12216W        W55133  23.681  32.847  23.903  0.0621 -0.2294 -0.2084
12217W        W55134  25.200  29.981  22.980  0.1421 -0.0910  0.1147
12218W        W55135  22.223  33.264  20.758 -0.1443 -0.0885  0.0078
12219W        W55136  20.844  32.447  20.537 -0.1238 -0.1993  0.2777
12220W        W55137  21.079  31.944  22.151 -0.1835 -0.1813  0.0350
12221W        W55138  24.064  30.775  21.793  0.0043 -0.1387  0.0333
12222W        W55139  24.644  32.565  24.234 -0.2395  0.0933 -0.1214
12223W        W55140  22.560  34.492  23.554  0.2815 -0.0077  0.0017
12224W        W55141  22.814  31.846  22.225 -0.2284  0.1715 -0.1088
12225W        W55142  21.929  32.074  21.837 -0.1410 -0.1716 -0.0792
12226W        W55143  21.904  32.931  23.523 -0.2179 -0.2253  0.1193
12227W        W55144  23.188  31.729  22.517 -0.2209  0.3250 -0.0615
12228W        W55145  22.363  29.895  21.345 -0.0566  0.1898 -0.0274
12229W        W55146  22.715  31.879  19.448 -0.1030 -0.0993 -0.1719
12230W        W55147  22.448  32.776  23.568 -0.0355 -0.0998 -0.1019
12231W        W55148  21.534  32.879  23.857 -0.0129  0.0314 -0.0208
12232W        W55149  22.686  32.675  22.688 -0.0273  0.1009 -0.3726
12233W        W55150  24.977  29.642  22.724  0.2441 -0.0835 -0.0708
12234W        W55151  23.774  32.353  19.033 -0.0963  0.0438  0.1336
12235W        W55152  22.909  30.497  21.944  0.0676  0.0236  0.1458
12236W        W55153  23.281  32.249  21.793  0.4140  0.0797  0.2359
12237W        W55154  25.533  29.872  21.238 -0.0328  0.0679  0.1522
12238W        W55155  23.051  29.022  23.084  0.0235 -0.1745 -0.0833
12239W        W55156  23.025  31.750  21.774  0.1468 -0.2226  0.0926
12240W        W55157  22.462  29.814  22.433 -0.4790 -0.2822  0.0526
12241W        W55158  24.399  30.457  23.095  0.1206 -0.2041 -0.3927
12242W        W55159  23.751  32.576  23.324  0.0520  0.4183 -0.4186
12243W        W55160  22.778  30.263  22.723 -0.0462 -0.1655  0.2333
12244W        W55161  22.394  32.243  23.603 -0.2098 -0.0421  0.2915
12245W        W55162  20.136  29.330  21.192  0.1629  0.1319  0.0990
12246W        W55163  25.433  31.364  18.978 -0.2459 -0.2994 -0.0498
12247W        W55164  24.851  31.748  20.469  0.0451 -0.2656  0.0329
12248W        W55165  25.147  32.226  21.714 -0.0673 -0.0156 -0.4646
12249W        W55166  20.483  30.714  20.208 -0.2549 -0.1552  0.1968
12250W        W55167  22.003  32.421  23.863 -0.0995  0.0188  0.1541
12251W        W55168  22.786  30.928  22.227  0.2880  0.0016 -0.0463
12252W        W55169  21.709  30.651  21.408 -0.0390 -0.1109 -0.0682
12253W        W55170  24.135  33.801  23.963 -0.0662 -0.2491  0.1683
12254W        W55171  19.794  33.393  20.552  0.2053 -0.3390 -0.1607
12255W        W55172  25.963  29.676  21.683  0.2434  0.0967 -0.1028
12256W        W55173  22.521  30.387  22.240 -0.1102 -0.0253 -0.1983
12257W        W55174  23.737  31.972  21.659  0.0023 -0.1234  0.0435
12258W        W55175  24.464  30.546  18.210  0.0719 -0.0206  0.2713
12259W        W55176  23.782  28.572  20.670 -0.4741 -0.1654  0.0632
12260W        W55177  24.304  31.561  21.341  0.4365 -0.3959 -0.0025
12261W        W55178  19.444  30.315  17.849  0.1009  0.3080 -0.3278
12262W        W55179  24.387  31.671  20.255 -0.0258  0.1587 -0.0165
12263W        W55180  24.268  32.990  23.976  0.0727 -0.0517 -0.3561
12264W        W55181  27.143  31.227  21.022  0.2739  0.2458 -0.1863
12265W        W55182  21.683  33.397  22.246  0.1325  0.0432  0.0712
12266W        W55183  24.483  29.646  22.761 -0.3038  0.0641 -0.0057
12267W        W55184  22.232  32.446  22.712  0.3910 -0.2279 -0.0351
12268W        W55185  23.525  32.508  18.618 -0.1325 -0.0697 -0.2328
12269W        W55186  20.802  32.265  22.838  0.0136 -0.0012 -0.3668
12270W        W55187  20.541  31.186  20.691  0.3567  0.1075 -0.1377
12271W        W55188  23.783  28.352  23.037 -0.1909  0.2073 -0.0955
12272W        W55189  21.691  31.482  24.288 -0.0977 -0.1146  0.2509
12273W        W55190  26.471  28.892  20.918  0.0200 -0.0891  0.5614
12274W        W55191  21.547  28.766  22.483 -0.2735 -0.1485 -0.0789
12275W        W55192  24.402  30.237  21.192  0.3496 -0.1442 -0.0210
12276W        W55193  21.153  29.373  20.485 -0.0248  0.2234 -0.2757
12277W        W55194  24.234  32.668  20.872  0.0163  0.0382 -0.1267
12278W        W55195  24.754  30.224  20.819 -0.0106  0.1257  0.0322
12279W        W55196  23.262  32.481  20.737  0.1721 -0.2762 -0.4028
12280W        W55197  21.623  32.902  21.482 -0.2970  0.0407 -0.3985
12281W        W55198  22.522  28.831  20.498  0.2674 -0.1732  0.0408
12282W        W55199  20.920  31.028  24.645  0.2292  0.2021 -0.1703
12283W        W55200  21.678  30.659  22.836 -0.3274 -0.0891 -0.3293
12284W        W55201  24.513  30.544  22.414 -0.0871  0.1185  0.0847
12285W        W55202  21.834  28.156  21.588  0.0704  0.1734  0.1851
12286W        W55203  23.092  29.440  22.265 -0.1941 -0.1160 -0.0573
12287W        W55204  22.673  30.901  21.296  0.0890  0.2009 -0.0577
12288W        W55205  20.055  32.217  22.203 -0.1832 -0.3820 -0.1073
12289W        W55206  23.490  30.169  22.510 -0.0531  0.1196  0.0211
12290W        W55207  21.569  30.286  21.722 -0.2179 -0.1093 -0.1807
12291W        W55208  26.616  30.602  23.756  0.2512 -0.2203 -0.5293
12292W        W55209  24.690  30.514  21.525 -0.0208 -0.0620  0.0532
12293W        W55210  22.208  29.228  23.573  0.0586 -0.3087 -0.0516
12294W        W55211  22.784  29.601  20.393  0.1772  0.0127  0.2086
12295W        W55212  22.731   0.023  22.153 -0.4999  0.2039  0.2841
12296W        W55213  22.597  29.368  22.068 -0.1296  0.0191  0.1606
12297W        W55214  22.942  29.039  20.170  0.2778  0.0255  0.3330
12298W        W55215  25.754  31.066  23.104  0.0659  0.2539 -0.1510
12299W        W55216  22.628  28.431  22.257  0.0090  0.1317  0.0724
12300W        W55217  19.252  31.047  23.111  0.2691  0.1104 -0.0561
12301W        W55218  22.423  29.625  23.863 -0.1551 -0.0915  0.1322
12302W        W55219  22.798  30.529  23.279  0.0958  0.1522  0.1185
12303W        W55220  23.236  30.522  22.857  0.3393  0.1012  0.0576
12304W        W55221  21.450  30.898  19.583  0.0280 -0.2591  0.2190
12305W        W55222  25.409  32.277  20.781  0.2659 -0.2382  0.5430
12306W        W55223  21.766  33.083  19.282 -0.1893  0.2775 -0.0753
12307W        W55224  22.316  31.322  22.426 -0.0094  0.0189  0.0276
12308W        W55225  23.658  30.988  21.649  0.0956 -0.2416 -0.0427
12309W        W55226  23.920  30.242  20.244  0.1591 -0.2437  0.0410
12310W        W55227  21.810  31.309  23.764  0.2257  0.1653  0.3276
12311W        W55228  24.963  29.755  21.852 -0.0162 -0.0152  0.0765
12312W        W55229  20.763  29.415  20.171 -0.1192  0.1296  0.0817
12313W        W55230  23.546  31.503  24.669 -0.3272  0.1231 -0.0030
12314W        W55231  22.642  28.797  21.127  0.4030 -0.0406 -0.1196
12315W        W55232  25.398  29.010  20.700 -0.3793 -0.1003  0.0698
12316W        W55233  24.000  33.621  23.494 -0.0931 -0.2386  0.1011
12317W        W55234  25.672  31.290  19.785  0.1127 -0.0029  0.1375
12318W        W55235  25.143  31.553  19.719  0.0779 -0.0187 -0.1435
12319W        W55236  23.723  29.217  20.705  0.2440  0.0220  0.1654
12320W        W55237  20.741  31.864  25.513 -0.3025 -0.1886  0.0036
12321W        W55238  22.811  32.164  21.612 -0.0903  0.0230 -0.3317
12322W        W55239  21.904  32.133  22.986 -0.1383  0.0469  0.1751
12323W        W55240  22.943  30.310  19.916 -0.1104 -0.0631 -0.0958
12324W        W55241  25.604  31.567  18.459 -0.0805  0.0875 -0.4887
12325W        W55242  22.508  30.676  22.856  0.3023 -0.2780 -0.0140
12326W        W55243  25.681  32.207  24.411 -0.0873 -0.0375 -0.2178
12327W        W55244  23.203  31.356  22.170  0.3864  0.1069 -0.1553
12328W        W55245  22.872  29.062  22.602  0.0529  0.2023 -0.0622
12329W        W55246  21.504  32.074  19.887  0.2547 -0.0529  0.0920
12330W        W55247  22.651  30.075  23.419  0.1076  0.1424  0.0790
12331W        W55248  19.655  33.956  19.974 -0.1340  0.0445 -0.2077
12332W        W55249  26.882  30.187  20.794 -0.1144  0.3515  0.2588
12333W        W55250  22.763  29.659  21.579  0.0777  0.4173  0.2999
12334W        W55251  19.879  29.084  23.026  0.1613 -0.0586  0.2102
12335W        W55252  23.422  30.891  24.066 -0.0350  0.2080 -0.0358
12336W        W55253  26.142  31.526  21.012 -0.0455  0.0731  0.2312
12337W        W55254  22.851  32.028  23.299 -0.3009 -0.0191  0.1281
12338W        W55255  22.268  30.406  20.457  0.0725  0.0542 -0.1525
12339W        W55256  21.845  30.812  23.700  0.1464  0.1052  0.0650
12340W        W55257  22.297  29.472  21.636  0.2869 -0.1629 -0.2174
12341W        W55258  21.723  32.860  22.067 -0.2261  0.0573 -0.0343
12342W        W55259  23.632  31.461  22.411  0.1057 -0.2287  0.1048
12343W        W55260  21.934  29.818  21.778 -0.3097  0.1079  0.0798
12344W        W55261  24.441  28.500  21.473  0.1737 -0.2083  0.2775
12345W        W55262  23.490  29.596  19.829 -0.1350 -0.0001  0.3472
12346W        W55263  21.510  32.383  22.055 -0.0820  0.2755 -0.2295
12347W        W55264  24.086  32.091  19.330 -0.1265 -0.2309  0.3274
12348W        W55265  22.247  28.114  22.320 -0.0600  0.0187 -0.0526
12349W        W55266  20.575  32.411  21.468 -0.2140  0.2320  0.0050
12350W        W55267  20.989  31.544  21.293  0.1352  0.2242 -0.0214
12351W        W55268  24.275  31.935  23.098 -0.0060 -0.3334  0.1327
12352W        W55269  22.387  33.374  20.290 -0.2984 -0.0143 -0.2324
12353W        W55270  25.435  28.358  21.040  0.3630  0.3934 -0.0571
12354W        W55271  21.575  29.812  22.102 -0.1135  0.1791  0.0486
12355W        W55272  20.764  31.335  20.234 -0.0476  0.2843 -0.1764
12356W        W55273  21.804  29.693  22.559 -0.1095 -0.0325 -0.3210
12357W        W55274  25.735  29.185  21.652  0.3176 -0.1470  0.1218
12358W        W55275  25.153  29.869  19.070 -0.0259  0.2146  0.1021
12359W        W55276  22.157  29.950  22.809  0.0036  0.0046  0.0412
12360W        W55277  21.477  27.640  22.264 -0.0984 -0.1605 -0.4689
12361W        W55278  21.182  32.330  22.492  0.2435 -0.0122 -0.4386
12362W        W55279  23.902  31.313  23.479 -0.0220  0.3096  0.1669
12363W        W55280  22.075  31.080  21.031 -0.2441  0.1171 -0.0535
12364W        W55281  24.541  31.672  22.798 -0.3193 -0.0511 -0.0026
12365W        W55282  24.828  32.345  23.258  0.2521 -0.2207 -0.1077
12366W        W55283  21.574  31.437  18.900 -0.0805 -0.2975 -0.0021
12367W        W55284  23.346  28.697  22.689 -0.1281 -0.0316 -0.0943
12368W        W55285  23.546  29.669  22.371  0.0039  0.0646 -0.1802
12369W        W55286  19.183  31.614  20.362  0.1284  0.4184  0.1104
12370W        W55287  23.241  32.701  22.587 -0.2004 -0.0811 -0.0662
12371W        W55288  20.549  30.562  21.168 -0.2272 -0.0982 -0.0730
12372W        W55289  22.534  30.125  21.780  0.0456  0.0976 -0.0755
12373W        W55290  21.749  34.063  24.147  0.3383 -0.1844  0.2313
12374W        W55291  24.517  32.030  23.665 -0.0899 -0.0273  0.1214
12375W        W55292  23.286  29.556  23.315  0.0402 -0.3054  0.2519
12376W        W55293  19.664  29.934  20.790  0.1042 -0.3177 -0.1989
12377W        W55294  21.652  30.183  21.270 -0.2050  0.0357 -0.0760
12378W        W55295  25.321  31.551  22.221 -0.0261 -0.1550 -0.0060
12379W        W55296  22.488  28.009  23.767 -0.2700  0.4763 -0.0040
12380W        W55297  21.040  33.091  23.129 -0.0156  0.2324  0.0251
12381W        W55298  22.219  30.817  21.440 -0.1602  0.2715 -0.1008
12382W        W55299  25.491   0.112  19.553  0.2218 -0.3561  0.1979
12383W        W55300  24.586  30.957  23.178 -0.1446  0.1124  0.0007
12384W        W55301  21.561  32.642  19.076  0.0876  0.2646  0.2963
12385W        W55302  23.158  28.178  22.466  0.2483 -0.1693 -0.0246
12386W        W55303  23.585  32.053  19.431  0.2006  0.1990 -0.1128
12387W        W55304  23.377  29.204  22.619  0.0235 -0.0894  0.0229
12388W        W55305  20.628  32.215  23.374  0.0150  0.2422 -0.1052
12389W        W55306  22.582  31.193  20.439  0.1992  0.0246 -0.0004
12390W        W55307  21.513  33.057  22.746  0.0039  0.2296 -0.0100
12391W        W55308  24.557  29.214  20.065  0.0806 -0.0958 -0.0750
12392W        W55309  25.634  31.151  20.735 -0.0973 -0.0029 -0.3631
12393W        W55310  21.304  29.650  22.697  0.1539  0.2475  0.1868
12394W        W55311  24.660  29.638  20.569 -0.0155  0.0155  0.0660
12395W        W55312  24.395  30.265  19.962 -0.0724  0.3462  0.0549
12396W        W55313  23.637  29.798  24.726 -0.0372 -0.0685 -0.0168
12397W        W55314  21.086  30.161  23.908  0.0456  0.2651 -0.0155
12398W        W55315  24.375  32.300  19.937  0.1343  0.0344  0.1690
12399W        W55316  23.028  29.820  22.595 -0.0147 -0.1203  0.1903
12400W        W55317  22.520  32.479  24.096 -0.2862  0.0849 -0.0747
12401W        W55318  20.922  31.629  24.026 -0.1811  0.2833 -0.3968
12402W        W55319  23.135  30.494  22.361 -0.2499 -0.0411 -0.0709
12403W        W55320  21.138  29.562  22.218  0.1764  0.0510 -0.0997
12404W        W55321  21.487  33.375  21.737 -0.1202  0.0125  0.0925
12405W        W55322  23.744  31.574  23.054 -0.4092 -0.0335  0.1691
12406W        W55323  24.342  32.557  19.492  0.1150  0.0215 -0.0533
12407W        W55324  24.381  30.419  21.937  0.2420 -0.2715  0.3811
12408W        W55325  21.397  30.912  21.875 -0.0663  0.2368  0.0413
12409W        W55326  25.024  31.078  19.960  0.3254 -0.0667  0.2140
12410W        W55327  24.323  29.489  19.639  0.0087 -0.1737  0.1086
12411W        W55328  22.157  32.562  19.926  0.2491 -0.1863 -0.0140
12412W        W55329  23.431  30.477  23.309 -0.0268 -0.1418 -0.1481
12413W        W55330  23.754  32.152  22.195  0.0920  0.0151 -0.4290
12414W        W55331  22.994  28.216  21.965  0.0397 -0.1391 -0.0838
12415W        W55332  23.755  29.101  23.033  0.0696  0.2165 -0.0213
12416W        W55333  22.954  29.866  22.093  0.1063 -0.1531 -0.1252
12417W        W55334  21.300  30.812  22.375 -0.0089 -0.2614 -0.0888
12418W        W55335  22.993  28.515  24.593 -0.1012  0.0530  0.1132
12419W        W55336  25.185  33.484  24.391 -0.2157  0.2013 -0.0278
12420W        W55337  24.977  30.468  18.826 -0.5023 -0.4346  0.1016
12421W        W55338  23.598  29.262  22.084  0.0732  0.0571 -0.2407
12422W        W55339  25.054  31.171  22.111  0.0110  0.1248 -0.2559
12423W        W55340  24.424  31.778  21.925 -0.0603  0.1952 -0.0824
12424W        W55341  21.256  29.662  23.198  0.1136  0.2633  0.0234
12425W        W55342  24.122  33.340  24.633 -0.5817  0.4206  0.0511
12426W        W55343  21.374  29.601  18.089  0.1132  0.0476 -0.1456
12427W        W55344  23.321  28.905  24.560  0.0462  0.0187 -0.0856
12428W        W55345  23.471  33.831  20.077  0.0035 -0.0621  0.0920
12429W        W55346  22.927  33.041  20.221  0.0582  0.0711  0.1207
12430W        W55347  22.803  29.203  20.670 -0.2530  0.1961 -0.0498
12431W        W55348  21.987  31.048  19.712 -0.0229  0.1201  0.1304
12432W        W55349  21.047  33.094  23.724  0.2992  0.1466 -0.0981
12433W        W55350  20.547  30.293  19.420  0.2209  0.1738 -0.1217
12434W        W55351  24.994  31.025  20.897  0.0023  0.0486  0.0170
12435W        W55352  24.087  30.696  22.267  0.3800 -0.2411 -0.1807
12436W        W55353  26.330  29.897  23.395  0.0522 -0.0231 -0.0259
12437W        W55354  21.411  30.846  20.500 -0.0795 -0.1022  0.3498
12438W        W55355  24.754  31.431  21.573 -0.0521 -0.0806 -0.0361
12439W        W55356  22.438   0.504  18.344  0.0744 -0.1145 -0.0524
12440W        W55357  23.341  28.642  21.775  0.1767  0.4569 -0.2672
12441W        W55358  21.779  31.815  23.903 -0.1085 -0.0779 -0.0890
12442W        W55359  22.628  32.025  22.764  0.1583 -0.2543  0.0798
12443W        W55360  19.821  30.508  20.948 -0.2061 -0.1233 -0.1246
12444W        W55361  23.421  29.050  23.583 -0.1074 -0.1097  0.0134
12445W        W55362  21.086  31.778  22.630 -0.1091 -0.0980 -0.1321
12446W        W55363  23.175  32.262  22.276  0.2912  0.1215  0.0101
12447W        W55364  24.151  30.818  23.391 -0.0448 -0.0444 -0.1540
12448W        W55365  25.211  34.181  23.252 -0.0112  0.0530 -0.1674
12449W        W55366  23.597  32.151  21.077  0.2008 -0.0476  0.0228
12450W        W55367  24.405  33.337  23.694  0.4004 -0.0481 -0.3031
12451W        W55368  24.707  31.061  22.684  0.2809 -0.2847 -0.0444
12452W        W55369  23.431  33.335  20.156 -0.0028 -0.1435 -0.2586
12453W        W55370  20.589  29.733  24.231 -0.2118  0.0720  0.3623
12454W        W55371  20.767  30.994  23.506  0.1289  0.1344 -0.1641
12455W        W55372  26.647  30.081  21.866  0.2276  0.0601  0.2146
12456W        W55373  22.693  29.094  21.613  0.0000 -0.0540  0.0439
12457W        W55374  22.190  32.112  20.527  0.1488  0.0397  0.1796
12458W        W55375  21.691  31.096  23.255  0.1470  0.0385  0.0953
12459W        W55376  20.601  31.012  22.529 -0.0060  0.0820 -0.1959
12460W        W55377  21.972  33.691  21.800  0.1420 -0.3436  0.0004
12461W        W55378  24.115  31.267  20.159  0.0544  0.0775  0.1548
12462W        W55379  22.409  32.769  19.481 -0.1457 -0.0857  0.0213
12463W        W55380  22.605  29.840  22.944  0.3726  0.1629  0.0279
12464W        W55381  21.609  31.347  20.735  0.1257 -0.0148 -0.0225
12465W        W55382  20.496  33.682  21.780 -0.1531  0.3273  0.2630
12466W        W55383  23.258  30.920  18.461 -0.0217 -0.4847  0.0403
12467W        W55384  24.566  29.999  21.564 -0.3231  0.4313  0.0007
12468W        W55385  21.340  32.077  22.982 -0.2912 -0.1129 -0.0228
12469W        W55386  25.172  32.802  25.291 -0.2989 -0.2015  0.0817
12470W        W55387  22.831  30.136  21.186  0.0483 -0.2717  0.1140
12471W        W55388  23.988  31.583  20.558 -0.3025 -0.0732  0.0597
12472W        W55389  25.731  30.345  21.191  0.2910  0.1791 -0.2369
12473W        W55390  25.107  31.412  24.088  0.0331  0.4528  0.2412
12474W        W55391  21.001  30.737  21.630 -0.0536  0.1440 -0.0429
12475W        W55392  21.636  28.420  18.250 -0.0630 -0.0726  0.1095
12476W        W55393  19.762  31.806  24.940 -0.1553  0.1105 -0.0086
12477W        W55394  26.047  29.950  22.630  0.1759 -0.0367 -0.0084
12478W        W55395  22.281  34.121  24.153 -0.3316 -0.0805 -0.2037
12479W        W55396  25.332  30.210  22.011 -0.2327  0.1610  0.1712
12480W        W55397  20.901  30.980  22.053 -0.0317  0.3123 -0.0473
12481W        W55398  22.909  31.285  21.624 -0.1222 -0.2029 -0.2384
12482W        W55399  26.468  29.852  20.688 -0.1903 -0.0547  0.2092
12483W        W55400  21.941  31.131  18.713 -0.1042 -0.3486 -0.0624
12484W        W55401  23.640  31.224  20.343  0.0506  0.2268  0.0720
12485W        W55402  23.798  32.118  23.080  0.2500  0.0388  0.0078
12486W        W55403  22.735  33.551  24.579 -0.0515 -0.2719  0.0735
12487W        W55404  22.911  32.923  23.078 -0.1581  0.0927  0.1672
12488W        W55405  22.349  27.791  21.542  0.3081 -0.0889 -0.1683
12489W        W55406  24.742  30.115  20.315  0.1221 -0.1983 -0.3056
12490W        W55407  20.323  30.567  23.868 -0.0507 -0.1070  0.1075
12491W        W55408  25.300  31.394  24.658  0.0350  0.0050  0.0610
12492W        W55409  21.539  32.676  20.585 -0.0800 -0.4486 -0.3150
12493W        W55410  25.004  31.535  23.520 -0.2936 -0.0069  0.1770
12494W        W55411  21.656  32.613  23.014  0.2688 -0.3665  0.0117
12495W        W55412  23.752  31.034  22.813  0.2435 -0.1512  0.1742
12496W        W55413  23.083  30.071  23.089 -0.1276 -0.0120  0.1211
12497W        W55414  24.958  30.077  23.523 -0.1398  0.3108  0.4609
12498W        W55415  22.800  29.873  19.181 -0.0222 -0.0706  0.0370
12499W        W55416  25.730  34.130  24.430 -0.0820  0.0521 -0.2805
12500W        W55417  22.669  30.145  20.295 -0.2221 -0.3289 -0.1390
12501W        W55418  23.816  29.745  20.890 -0.1308 -0.1482  0.1342
12502W        W55419  20.924  31.766  20.336  0.3067  0.0922 -0.0612
12503W        W55420  24.367  29.976  22.299 -0.0458 -0.2367  0.0130
12504W        W55421  24.854  33.356  23.638 -0.1512 -0.0456 -0.1654
12505W        W55422  22.228  28.426  21.871 -0.2115 -0.1238 -0.0159
12506W        W55423  25.314  31.182  21.212  0.0977 -0.2318 -0.1240
12507W        W55424  24.258  32.209  21.984 -0.0235 -0.1056  0.1101
12508W        W55425  22.648  32.999  21.426 -0.1209  0.0987  0.0158
12509W        W55426  24.914  31.757  21.944  0.0177  0.1766  0.3090
12510W        W55427  23.707  32.495  22.661 -0.0466 -0.2208 -0.1014
12511W        W55428  19.079  31.621  21.460  0.1105 -0.0475  0.1201
12512W        W55429  23.424  33.199  21.162  0.0632 -0.0457 -0.0965
12513W        W55430  24.822  32.414  22.066  0.2194  0.2239 -0.0667
12514W        W55431  23.144  31.026  21.202 -0.0839 -0.2908 -0.2735
12515W        W55432  18.943  30.783  20.310 -0.0794  0.0329 -0.2329
12516W        W55433  19.006  32.958  20.289  0.1088  0.0281 -0.0718
12517W        W55434  23.658  30.681  20.400  0.1214  0.3986 -0.3028
12518W        W55435  23.871  29.347  22.508 -0.0221  0.0322 -0.0371
12519W        W55436  21.701  31.723  20.405 -0.0177  0.1686 -0.0144
12520W        W55437  23.963  29.724  22.097 -0.0002 -0.1968  0.0234
12521W        W55438  23.562  32.588  24.356 -0.1963 -0.1458  0.2365
12522W        W55439  21.335  31.027  23.569 -0.0897  0.1652  0.1934
12523W        W55440  21.793  31.121  21.466  0.0333 -0.0402 -0.4773
12524W        W55441  20.986  31.273  22.733 -0.0605  0.1279 -0.2444
12525W        W55442  23.766  31.037  20.792 -0.3247 -0.1275 -0.0498
12526W        W55443  22.830  31.979  19.953  0.1577  0.2098 -0.0227
12527W        W55444  24.224  30.760  22.769  0.1313 -0.0888 -0.0933
12528W        W55445  23.324  30.743  20.770  0.2137 -0.1518 -0.1934
12529W        W55446  24.151  31.336  22.458  0.0984 -0.0497 -0.2435
12530W        W55447  23.137  30.198  23.610 -0.1531 -0.1828  0.1957
12531W        W55448  23.967  30.126  21.598 -0.1779 -0.2805  0.2834
12532W        W55449  25.138  29.517  20.373 -0.1770  0.1402  0.0843
12533W        W55450  22.913  29.468  22.951  0.1453 -0.2412 -0.3882
12534W        W55451  20.893  29.229  21.940  0.0576 -0.2918 -0.1220
12535W        W55452  24.489  30.534  18.724 -0.1338 -0.0456  0.2578
12536W        W55453  23.094  31.738  23.677 -0.2321 -0.1031 -0.1204
12537W        W55454  21.962  29.684  23.820 -0.0662  0.2564 -0.1571
12538W        W55455  22.282  30.816  22.344  0.2912 -0.0459 -0.0210
12539W        W55456  22.095  30.732  20.138 -0.0680 -0.1973 -0.0234
12540W        W55457  21.959  30.515  20.955 -0.0725 -0.2820 -0.1299
12541W        W55458  25.185  34.096  20.310  0.3775  0.0153 -0.0252
12542W        W55459  22.542  28.032  21.911  0.2339 -0.0363 -0.2230
12543W        W55460  21.850  29.915  20.364 -0.3026  0.3913  0.0044
12544W        W55461  22.093  31.356  20.477 -0.1753  0.0356  0.2681
12545W        W55462  24.768  31.489  21.070  0.2574  0.1584 -0.1254
12546W        W55463  21.873  28.115  20.559  0.2647  0.0035 -0.1821
12547W        W55464  23.509  31.974  23.669 -0.0438  0.2994  0.1339
12548W        W55465  21.100  31.177  20.881 -0.2825 -0.1666  0.1727
12549W        W55466  24.008  30.321  23.429  0.2631  0.3653 -0.2767
12550W        W55467  21.997  31.131  22.793 -0.2042  0.0111  0.1985
12551W        W55468  21.046  29.556  21.536  0.2392  0.2593  0.2053
12552W        W55469  22.597  32.433  23.103 -0.0406 -0.0579 -0.6569
12553W        W55470  23.521  33.377  21.689  0.3654 -0.0757  0.2747
12554W        W55471  24.552  30.693  20.269  0.1249 -0.1263 -0.3099
12555W        W55472  22.867  33.055  23.534  0.2052 -0.1398 -0.0301
12556W        W55473  21.307  31.429  23.159 -0.0722 -0.3378  0.2278
12557W        W55474  21.010  26.888  23.729 -0.0233 -0.0114 -0.0569
12558W        W55475  24.240  31.206  20.814  0.1798 -0.1986  0.0389
12559W        W55476  23.093  31.211  23.784 -0.0468 -0.3572  0.1895
12560W        W55477  23.899  32.174  19.774 -0.1548 -0.0291  0.0628
12561W        W55478  26.877  32.486  20.891 -0.3682  0.2151  0.1520
12562W        W55479  23.994  31.711  22.210  0.0116 -0.0466  0.0211
12563W        W55480  24.758  29.603  22.266  0.1115 -0.0354 -0.0035
12564W        W55481  21.914  33.050  24.639 -0.0137 -0.2591 -0.1427
12565W        W55482  25.052  32.338  22.637 -0.0261  0.0096  0.1500
12566W        W55483  21.782  30.233  23.082  0.1369  0.1141  0.0497
12567W        W55484  24.654  31.268  20.586 -0.0794  0.0329  0.1862
12568W        W55485  23.551  31.358  19.689  0.0190 -0.1928  0.0557
12569W        W55486  23.430  31.787  22.064  0.1117 -0.0942  0.2626
12570W        W55487  24.003  31.099  21.254  0.1126 -0.0329 -0.0916
12571W        W55488  24.100  30.296  22.655  0.1271 -0.2602 -0.1515
12572W        W55489  25.066  32.456  21.293 -0.1967 -0.1192 -0.1119
12573W        W55490  23.392  31.354  23.364 -0.0085 -0.0489  0.0690
12574W        W55491  22.894  30.932  20.738 -0.0233  0.1541  0.1310
12575W        W55492  25.725  29.370  22.119 -0.1510  0.4115 -0.0615
12576W        W55493  24.237  32.672  21.816  0.3064 -0.1069 -0.0559
12577W        W55494  23.901  33.747  24.888 -0.0444 -0.0418 -0.0084
12578W        W55495  22.915  31.580  23.061 -0.0025 -0.0509 -0.2316
12579W        W55496  22.648  32.006  21.171  0.0963  0.2323  0.3726
12580W        W55497  21.353  27.296  23.449  0.0000  0.3490 -0.5172
12581W        W55498  22.206  30.536  19.290 -0.5057 -0.0779 -0.2415
12582W        W55499  23.348  31.866  23.110 -0.1882  0.1204 -0.1870
12583W        W55500  24.384  31.731  20.794  0.3166  0.0056 -0.0409
12584W        W55501  25.110  29.884  19.988  0.0817 -0.0362 -0.2357
12585W        W55502  24.319  30.393  20.528  0.1152  0.2164 -0.0737
12586W        W55503  22.571  31.525  23.552 -0.0924 -0.1540 -0.2946
12587W        W55504  20.823  30.586  23.792  0.0089  0.0696 -0.0250
12588W        W55505  24.615  31.009  27.311  0.0571 -0.0304 -0.1128
12589W        W55506  22.532  28.442  24.773  0.1177 -0.1742  0.1338
12590W        W55507  25.054  29.675  24.147 -0.1715  0.0315 -0.3289
12591W        W55508  25.619  31.411  24.235 -0.2262 -0.2022 -0.2779
12592W        W55509  20.476  29.863  26.556 -0.2485 -0.0546  0.0824
12593W        W55510  25.408  30.750  24.762  0.4980  0.2232  0.3494
12594W        W55511  21.859  29.429  27.736  0.1073 -0.0404 -0.2455
12595W        W55512  24.266  30.811  25.579 -0.0900 -0.0242  0.0154
12596W        W55513  23.506  33.469  25.296  0.0158  0.3018  0.1859
12597W        W55514  23.644  33.258  24.835 -0.1612 -0.1921  0.0434
12598W        W55515  23.010  28.736  27.797 -0.1045 -0.0938 -0.0505
12599W        W55516  22.206  32.756  28.706 -0.3823 -0.0658 -0.2237
12600W        W55517  21.532  30.603  23.298 -0.2819 -0.1221 -0.1973
12601W        W55518  22.461  28.518  26.643  0.2502  0.1258 -0.1273
12602W        W55519  23.773  31.279  26.925 -0.0514  0.1867  0.4139
12603W        W55520  23.168  30.731  23.652 -0.0588  0.1561  0.0739
12604W        W55521  23.106  30.828  26.350 -0.3127 -0.0590  0.2904
12605W        W55522  23.065  29.958  25.942  0.0356  0.0201  0.3403
12606W        W55523  22.875  32.202  23.829  0.2407 -0.0204  0.0422
12607W        W55524  23.673  30.105  25.911  0.4678 -0.0546 -0.2112
12608W        W55525  24.844  30.753  26.405  0.0574 -0.3372 -0.2101
12609W        W55526  23.290  31.033  24.657  0.0023  0.3103 -0.2925
12610W        W55527  20.861  29.353  22.570  0.2420 -0.1072 -0.1774
12611W        W55528  19.414  32.059  23.946  0.1665  0.2041  0.0283
12612W        W55529  19.971  30.423  25.356  0.0952  0.2175  0.1659
12613W        W55530  22.059  30.672  26.080 -0.0981  0.2555 -0.0565
12614W        W55531  24.186  32.581  24.422 -0.0623 -0.1431  0.1141
12615W        W55532  24.801  33.144  26.678 -0.2229  0.0028 -0.2155
12616W        W55533  26.098  31.671  24.545 -0.0402 -0.0916  0.0349
12617W        W55534  23.529  30.630  25.062  0.3048 -0.0966 -0.2043
12618W        W55535  23.906  31.844  24.771  0.1857 -0.0749  0.1742
12619W        W55536  21.337  32.822  27.666 -0.0043 -0.0769 -0.2297
12620W        W55537  21.150  33.668  24.537 -0.0580 -0.0323 -0.0807
12621W        W55538  26.515  30.732  24.533 -0.1224  0.2053 -0.3314
12622W        W55539  27.025  32.072  26.732  0.0506 -0.0778  0.0163
12623W        W55540  23.567  32.068  25.055 -0.1827 -0.2485  0.4003
12624W        W55541  25.240  31.966  23.444  0.2603 -0.1199  0.0614
12625W        W55542  24.732  31.941  26.378  0.0213  0.0042  0.0243
12626W        W55543  24.629  32.883  25.379  0.5895 -0.1858  0.5599
12627W        W55544  24.208  32.589  27.128 -0.0165 -0.0038  0.0840
12628W        W55545  24.456  30.107  23.565  0.1771  0.0432  0.2667
12629W        W55546  23.356  32.006  24.199 -0.1678  0.1230 -0.0102
12630W        W55547  22.635  30.481  24.393 -0.0465  0.1397 -0.2132
12631W        W55548  23.373  31.189  26.016 -0.4040  0.1006 -0.1413
12632W        W55549  21.721  29.794  25.773  0.0131  0.1185  0.1783
12633W        W55550  26.669  30.296  26.807  0.1866 -0.0439  0.0196
12634W        W55551  20.919  34.178  23.773 -0.1514 -0.1043  0.1305
12635W        W55552  25.288  30.019  24.366  0.0290  0.0511 -0.0274
12636W        W55553  20.029  30.162  23.764  0.2001  0.2402 -0.1925
12637W        W55554  26.029  29.779  21.085  0.3586 -0.1074  0.1467
12638W        W55555  22.807  30.046  25.408  0.1830  0.1400 -0.3257
12639W        W55556  20.744  31.977  24.518 -0.2562 -0.0120 -0.0007
12640W        W55557  21.938  30.632  25.043 -0.1569 -0.0774  0.3372
12641W        W55558  29.412  32.225  27.375 -0.2080  0.1054  0.1548
12642W        W55559  24.099  29.959  24.975 -0.0929 -0.0723  0.1004
12643W        W55560  25.130  32.206  26.504 -0.1630  0.3168 -0.4491
12644W        W55561  21.617  34.195  25.887  0.2192  0.0354 -0.3403
12645W        W55562  20.236  30.961  23.448 -0.2019  0.1220 -0.0379
12646W        W55563  24.885  30.831  23.969 -0.3602 -0.0325 -0.2415
12647W        W55564  23.909  31.962  25.568  0.1060 -0.0844  0.3436
12648W        W55565  20.822  31.824  23.114  0.1387 -0.1530 -0.0244
12649W        W55566  21.887  30.967  24.186  0.1279 -0.1298  0.2127
12650W        W55567  22.422  31.864  25.827  0.2364  0.0970  0.1238
12651W        W55568  21.203  30.537  25.328  0.1660  0.1072 -0.0651
12652W        W55569  21.648  29.226  22.317 -0.3024 -0.0925  0.0189
12653W        W55570  28.242  30.038  25.917  0.0701 -0.0217 -0.0991
12654W        W55571  21.618  32.351  26.497  0.1071 -0.0869 -0.2576
12655W        W55572  26.367  29.802  24.471  0.0435  0.2964  0.1709
12656W        W55573  24.078  29.803  24.515  0.0746  0.0158 -0.0996
12657W        W55574  27.791  32.248  25.110 -0.2024  0.0690  0.1307
12658W        W55575  22.273  31.405  23.990  0.1050 -0.2420 -0.1665
12659W        W55576  23.194  30.446  25.501 -0.1217 -0.4516  0.1896
12660W        W55577  23.756  30.956  26.340 -0.1240  0.1328 -0.1990
12661W        W55578  23.328  31.022  22.517 -0.0434  0.1964 -0.0125
12662W        W55579  22.771  30.503  25.140  0.0991  0.2226  0.2200
12663W        W55580  25.445  33.196  25.270  0.0564  0.1338  0.0314
12664W        W55581  24.972  31.046  24.458  0.3171 -0.1047  0.1460
12665W        W55582  22.440  32.180  24.494  0.1574 -0.0577 -0.3536
12666W        W55583  23.833  31.087  25.863 -0.0924 -0.2150 -0.0885
12667W        W55584  24.645  31.429  26.175 -0.2499 -0.3057 -0.1674
12668W        W55585  22.219  32.631  24.484 -0.2153 -0.2779  0.0614
12669W        W55586  21.795  32.927  25.166  0.0754 -0.0566  0.1064
12670W        W55587  24.524  31.148  24.212 -0.1942  0.2506  0.0332
12671W        W55588  21.693  31.366  25.464  0.1966  0.0623 -0.0959
12672W        W55589  23.637  32.183  24.574 -0.2188  0.2411 -0.0537
12673W        W55590  23.732  28.465  24.949  0.0700  0.0956 -0.0420
12674W        W55591  23.047  27.883  28.298  0.2021 -0.0638 -0.1535
12675W        W55592  26.542  30.061  26.232  0.0271  0.0824 -0.0532
12676W        W55593  24.087  31.340  24.846 -0.3294 -0.3290  0.0347
12677W        W55594  24.680  30.895  25.301 -0.0554  0.4355 -0.1512
12678W        W55595  24.778  30.246  23.947  0.1611  0.1941 -0.2940
12679W        W55596  24.325  33.026  23.303  0.2497  0.1914 -0.3022
12680W        W55597  21.564  29.829  24.663 -0.0107  0.0078  0.0877
12681W        W55598  20.016  32.627  24.509 -0.1069  0.3190  0.1162
12682W        W55599  20.619  29.897  24.679 -0.0263 -0.2224  0.0908
12683W        W55600  21.479  28.490  24.385 -0.0228 -0.0682  0.5364
12684W        W55601  25.956  30.566  24.723 -0.1697 -0.2163 -0.0679
12685W        W55602  21.605  29.957  24.060 -0.1628 -0.1257 -0.1865
12686W        W55603  23.545  30.635  24.514 -0.1087  0.0992 -0.0783
12687W        W55604  23.543  29.283  28.114  0.0055 -0.1055  0.1408
12688W        W55605  20.707  31.882  25.023 -0.1405  0.0463  0.0084
12689W        W55606  25.551  29.609  27.006  0.2104  0.0981 -0.1036
12690W        W55607  23.084  32.423  24.324 -0.2640  0.0549 -0.2498
12691W        W55608  26.575  32.223  26.951 -0.0376 -0.0032  0.3277
12692W        W55609  26.446  32.732  26.284  0.3134  0.0972 -0.2533
12693W        W55610  21.487  29.400  24.494  0.0659 -0.0815 -0.3401
12694W        W55611  21.631  29.468  23.544  0.1562  0.1607  0.0032
12695W        W55612  22.391  32.687  25.008 -0.0829 -0.0842  0.1632
12696W        W55613  23.165  31.880  24.715  0.0262  0.0379 -0.1149
12697W        W55614  24.095  29.576  26.141  0.3059  0.0708  0.0736
12698W        W55615  25.387  32.584  25.719 -0.2213 -0.1375  0.1493
12699W        W55616  22.340  30.751  24.115  0.0652  0.2533  0.0374
12700W        W55617  22.494  31.796  25.274 -0.0632  0.0956 -0.2061
12701W        W55618  21.492  28.070  27.180  0.1146  0.1863  0.1473
12702W        W55619  24.758  32.281  25.982 -0.2782 -0.1054 -0.2076
12703W        W55620  24.608  30.679  24.415  0.2600  0.1818 -0.0952
12704W        W55621  20.218  30.510  23.095 -0.1370  0.1280  0.4251
12705W        W55622  23.994  32.564  25.375 -0.3789  0.0101 -0.1096
12706W        W55623  21.127  32.600  23.711 -0.1889 -0.0415 -0.1775
12707W        W55624  20.459  32.325  24.865  0.0988  0.3165  0.2041
12708W        W55625  24.204  32.070  24.431  0.1754 -0.1007  0.0224
12709W        W55626  26.030  29.786  24.109  0.1277  0.0625  0.0470
12710W        W55627  21.559  32.491  25.665 -0.1438 -0.0987  0.1976
12711W        W55628  22.753  30.189  24.776 -0.2412 -0.0251 -0.0131
12712W        W55629  21.347  30.298  24.305  0.0516  0.1995 -0.0859
12713W        W55630  21.629  32.335  27.126  0.2710 -0.2158 -0.1441
12714W        W55631  22.401  29.554  24.546 -0.2438  0.1704 -0.2624
12715W        W55632  25.181  31.027  23.018  0.3385 -0.1645  0.0294
12716W        W55633  21.496  30.761  24.428  0.4433  0.1353 -0.1047
12717W        W55634  23.048  30.604  24.694  0.1650 -0.0606  0.1096
12718W        W55635  21.409  31.892  24.256  0.4690  0.1116  0.0406
12719W        W55636  23.266  30.922  23.180  0.0323  0.3258  0.0739
12720W        W55637  21.494  31.072  27.818 -0.1254 -0.2150 -0.3211
12721W        W55638  22.265  31.365  25.569  0.2683  0.1659  0.1623
12722W        W55639  22.626  32.261  26.122 -0.0081 -0.0545 -0.0927
12723W        W55640  23.807  30.296  24.758 -0.4724  0.3078 -0.1073
12724W        W55641  26.022  32.272  25.377  0.0103  0.0132 -0.2206
12725W        W55642  22.183  30.677  25.522 -0.1085 -0.3185 -0.1317
12726W        W55643  25.880  32.456  26.213  0.2510  0.1460 -0.2468
12727W        W55644  21.843  30.498  24.076 -0.0513 -0.0512  0.1504
12728W        W55645  22.655  28.486  23.881 -0.0271  0.1287  0.0220
12729W        W55646  20.756  30.299  24.313  0.0696 -0.1743  0.0493
12730W        W55647  21.083  31.000  23.125  0.1956 -0.0437 -0.0936
12731W        W55648  18.656  33.049  23.846 -0.2077  0.0048  0.3199
12732W        W55649  25.208  29.205  24.015 -0.0361  0.0565  0.2784
12733W        W55650  23.024  29.386  25.827  0.1434 -0.2882 -0.0890
12734W        W55651  23.696  29.959  26.398  0.0873 -0.0342  0.1007
12735W        W55652  25.772  30.225  27.620  0.2471 -0.0384  0.1561
12736W        W55653  24.106  30.954  25.131 -0.0558 -0.5919 -0.1459
12737W        W55654  22.997  31.868  25.182  0.0529  0.0959 -0.0145
12738W        W55655  24.064  31.301  23.980 -0.0717  0.1485  0.0190
12739W        W55656  24.638  28.088  27.087  0.0453 -0.4314 -0.0142
12740W        W55657  23.388  31.673  27.510  0.0240 -0.1907  0.0904
12741W        W55658  21.154  34.553  26.273  0.1085  0.1525  0.1186
12742W        W55659  23.713  31.035  28.048 -0.1257 -0.2360 -0.0066
12743W        W55660  23.290  30.323  26.372 -0.0655  0.1780 -0.1161
12744W        W55661  22.876  27.865  26.838  0.1484 -0.1050 -0.1423
12745W        W55662  23.383  29.891  25.493 -0.0222  0.3248 -0.4131
12746W        W55663  22.641  33.769  24.078 -0.2354 -0.1611  0.0734
12747W        W55664  21.941  32.030  23.475 -0.1107 -0.0026 -0.0836
12748W        W55665  23.190  29.239  26.626 -0.2899 -0.0371 -0.1876
12749W        W55666  23.597  32.058  26.038 -0.1471  0.0176 -0.4842
12750W        W55667  24.276  31.575  24.351  0.2251  0.2655  0.0944
12751W        W55668  22.557  30.931  25.304  0.0439 -0.3844  0.0634
12752W        W55669  24.529  32.217  24.786  0.1037 -0.1702  0.0604
12753W        W55670  25.209  31.954  24.835 -0.0462 -0.1043  0.0225
12754W        W55671  20.049  32.515  28.510 -0.0075 -0.2295 -0.1216
12755W        W55672  21.652  30.764  25.454 -0.1015  0.1085 -0.0627
12756W        W55673  20.819  31.409  25.099  0.1393 -0.0328  0.0988
12757W        W55674  24.210  30.404  24.461  0.2583  0.4637  0.0538
12758W        W55675  27.006  30.611  24.371  0.2377  0.2585 -0.2310
12759W        W55676  22.140  29.206  25.508 -0.0453  0.2944  0.2788
12760W        W55677  24.962  28.925  26.272 -0.0703  0.0864 -0.1029
12761W        W55678  22.551   0.334  25.339 -0.0193 -0.0774  0.0696
12762W        W55679  23.666  31.562  25.779 -0.0723 -0.0496 -0.0649
12763W        W55680  23.839  29.647  24.114 -0.0439 -0.1377 -0.0644
12764W        W55681  23.155  31.558  25.534 -0.1236  0.1137 -0.2383
12765W        W55682  21.087  31.134  27.490  0.3257 -0.0299 -0.2852
12766W        W55683  20.171  29.607  24.477  0.5324  0.0040  0.0297
12767W        W55684  27.686  30.802  24.303 -0.3514  0.0861 -0.1321
12768W        W55685  23.697  30.220  25.324 -0.2350  0.0367  0.1810
12769W        W55686  20.925  33.742  26.366 -0.1396  0.2051 -0.0739
12770W        W55687  24.377  32.140  25.632  0.1521  0.1223 -0.1618
12771W        W55688  20.530  30.477  23.422 -0.1336  0.2641  0.0588
12772W        W55689  21.905  32.665  26.775 -0.2223  0.3402  0.1147
12773W        W55690  21.156  31.813  25.873  0.0845  0.2645 -0.0701
12774W        W55691  23.716  30.750  25.508 -0.0337  0.1668  0.0046
12775W        W55692  21.520  30.828  25.987 -0.5308 -0.3135 -0.1240
12776W        W55693  23.073  30.902  25.750 -0.0158 -0.3049 -0.1665
12777W        W55694  23.587  31.357  23.840 -0.0017  0.1628  0.1176
12778W        W55695  24.632  29.475  27.358  0.3103  0.0309  0.3171
12779W        W55696  24.120  29.808  26.617  0.0735  0.1700  0.2382
12780W        W55697  22.523  32.907  25.501  0.0653  0.1133 -0.3271
12781W        W55698  22.642  29.568  25.541  0.2000  0.3256  0.1090
12782W        W55699  26.613  34.042  23.693  0.3563 -0.1260  0.3087
12783W        W55700  23.387  28.845  26.884  0.0769 -0.1439 -0.0107
12784W        W55701  22.800  31.043  23.364 -0.4012  0.0001  0.0559
12785W        W55702  21.798  32.504  24.783 -0.2264 -0.2877  0.1540
12786W        W55703  24.505  31.075  23.714  0.1129  0.0729  0.3819
12787W        W55704  23.098  30.493  27.260 -0.0241 -0.1241  0.0192
12788W        W55705  21.469  31.446  26.879 -0.1941 -0.0316  0.1624
12789W        W55706  22.259  33.891  25.621  0.1293  0.0347  0.2687
12790W        W55707  21.416  32.627  25.211  0.0896 -0.1014  0.1378
12791W        W55708  24.197  31.800  25.191 -0.0845  0.2437  0.1476
12792W        W55709  21.852  33.250  24.092  0.0454 -0.0543  0.1821
12793W        W55710  22.775  30.516  26.633 -0.1111 -0.1288  0.2590
12794W        W55711  25.103  30.878  28.205  0.0273  0.2185  0.0826
12795W        W55712  23.628  30.608  22.552 -0.2999 -0.1069  0.3406
12796W        W55713  24.601  28.117  28.336  0.0532  0.0231 -0.2200
12797W        W55714  22.227  29.006  26.255  0.0610  0.1460 -0.0249
12798W        W55715  25.214  33.231  25.702  0.0399 -0.2855  0.4413
12799W        W55716  19.923  31.053  28.168 -0.0905 -0.0746  0.2563
12800W        W55717  25.260  32.137  25.869  0.0919  0.1391 -0.2703
12801W        W55718  22.487  33.133  27.288  0.1841 -0.1388 -0.0482
12802W        W55719  23.489  29.661  22.859  0.0122 -0.0840 -0.0524
12803W        W55720  21.092  29.597  24.851  0.0855  0.0101 -0.0600
12804W        W55721  23.217  31.368  24.244 -0.1983 -0.2355 -0.0104
12805W        W55722  24.342  30.601  26.489 -0.0844 -0.1054  0.1684
12806W        W55723  23.285  31.361  22.888  0.0295 -0.2729 -0.1323
12807W        W55724  25.937  30.414  25.191 -0.1089  0.0901 -0.0016
12808W        W55725  22.620  32.255  25.069 -0.0574 -0.1560 -0.2624
12809W        W55726  22.900  31.266  26.117 -0.0334  0.1667 -0.0802
12810W        W55727  25.781  29.883  23.134 -0.0716 -0.1502 -0.1637
12811W        W55728  23.280  30.103  24.557 -0.2404  0.1961 -0.1841
12812W        W55729  23.837  30.440  26.425  0.0825 -0.0596  0.3242
12813W        W55730  26.418  30.670  25.080  0.1807  0.0391 -0.2103
12814W        W55731  24.556  29.942  25.350  0.2806  0.0245 -0.2661
12815W        W55732  23.586  28.406  26.094  0.1888 -0.1608 -0.0980
12816W        W55733  25.346  30.929  23.924 -0.0323  0.0480 -0.1021
12817W        W55734  23.925  31.730  26.790  0.0735  0.0870  0.0990
12818W        W55735  19.983  30.883  26.384 -0.0767 -0.0006 -0.0308
12819W        W55736  23.889  33.375  25.909  0.1771  0.0607  0.2708
12820W        W55737  24.359  30.619  23.948  0.0458  0.2955 -0.0198
12821W        W55738  24.343  31.628  25.716 -0.4026  0.2721 -0.0373
12822W        W55739  25.291  30.098  23.906  0.0047  0.0809 -0.0673
12823W        W55740  24.063  30.452  25.865  0.1962  0.2206  0.0469
12824W        W55741  19.660  30.039  25.085  0.3743 -0.3604  0.0330
12825W        W55742  25.509  29.308  26.619 -0.0400  0.0386 -0.0649
12826W        W55743  24.250  29.279  25.771  0.0029  0.2375 -0.0620
12827W        W55744  24.930  28.918  24.901  0.2375  0.1744  0.0551
12828W        W55745  20.671  32.695  25.095 -0.5410 -0.3332  0.2703
12829W        W55746  25.793  32.733  26.854  0.1020 -0.0814 -0.1107
12830W        W55747  25.037  31.089  25.940 -0.1362  0.3553 -0.4767
12831W        W55748  18.710  29.731  25.296  0.1093 -0.0974  0.2546
12832W        W55749  23.255  31.708  26.010  0.2146  0.1001  0.2730
12833W        W55750  20.345  28.824  20.879 -0.2597 -0.1162  0.0550
12834W        W55751  21.467  31.164  22.728 -0.0845  0.1070 -0.0183
12835W        W55752  23.576  30.638  26.048 -0.2257 -0.3936  0.1142
12836W        W55753  25.272  31.144  26.608  0.0699 -0.0894 -0.0632
12837W        W55754  22.939  29.951  24.235  0.0279 -0.2600  0.0627
12838W        W55755  23.722  29.384  26.427 -0.2779  0.2766  0.0206
12839W        W55756  21.050  32.750  25.601  0.1704  0.0884 -0.1750
12840W        W55757  23.404  29.161  25.532 -0.1007 -0.0332  0.0673
12841W        W55758  22.141  34.243  28.115  0.0601 -0.1820 -0.3186
12842W        W55759  22.139  32.117  24.929 -0.1533  0.2720  0.0321
12843W        W55760  21.822  31.329  24.798  0.2872 -0.2059 -0.1338
12844W        W55761  24.545  29.990  24.402 -0.4196 -0.0117 -0.0027
12845W        W55762  22.897  29.704  24.688  0.0676  0.0935 -0.0960
12846W        W55763  24.020  30.852  24.608 -0.0466  0.1375  0.0883
12847W        W55764  24.565  30.118  24.871 -0.1519  0.1966  0.1515
12848W        W55765  22.425  31.812  26.812  0.0505 -0.0221  0.1067
12849W        W55766  21.347  30.180  24.886 -0.1097 -0.0437  0.0176
12850W        W55767  26.409  30.765  25.596 -0.1212 -0.7196 -0.0344
12851W        W55768  24.170  30.099  26.241 -0.0506  0.2007 -0.0657
12852W        W55769  23.885  32.508  26.739  0.1459 -0.0048 -0.1427
12853W        W55770  22.447  30.159  26.836 -0.0839 -0.0649 -0.0503
12854W        W55771  24.303  32.355  26.258 -0.0307 -0.2824  0.1501
12855W        W55772  24.726  33.450  24.526  0.0282  0.1096  0.1679
12856W        W55773  22.540  29.834  25.074 -0.4046  0.2375 -0.1872
12857W        W55774  24.509  32.468  22.466  0.3577  0.1695 -0.1365
12858W        W55775  21.161  33.231  26.594 -0.0052 -0.1556 -0.0800
12859W        W55776  20.321  31.771  29.524 -0.1137 -0.0613 -0.0349
12860W        W55777  21.898  34.417  23.803  0.1041  0.2545 -0.3292
12861W        W55778  23.767  31.719  24.218  0.0771  0.1667  0.0759
12862W        W55779  23.898  30.712  24.138 -0.1516  0.0037 -0.2155
12863W        W55780  25.124  30.326  26.435  0.1948  0.2632  0.0544
12864W        W55781  22.695  29.434  23.391 -0.2638  0.0738 -0.0577
12865W        W55782  21.360  32.741  24.671 -0.3386 -0.1818  0.1368
12866W        W55783  20.537  31.586  22.694 -0.2119  0.0940  0.0242
12867W        W55784  22.066  31.538  23.304  0.2714 -0.0073 -0.0429
12868W        W55785  23.296  33.881  24.573  0.0941 -0.3152  0.1085
12869W        W55786  26.512  31.902  28.896  0.1822  0.1810 -0.0503
12870W        W55787  24.509  29.025  23.295 -0.3484 -0.4078 -0.0304
12871W        W55788  24.002  31.471  26.149  0.2038 -0.1070  0.0401
12872W        W55789  24.483  29.628  24.792 -0.1154  0.3462  0.2034
12873W        W55790  26.080  30.790  29.105  0.1629  0.1682 -0.3192
12874W        W55791  22.499  31.299  24.426  0.0482 -0.3290 -0.1306
12875W        W55792  23.835  30.596  23.025  0.2423 -0.2361  0.0480
12876W        W55793  22.740  31.744  26.291  0.2292 -0.2126  0.1247
12877W        W55794  25.874  29.345  26.299  0.0823 -0.2217  0.3335
12878W        W55795  19.802  32.300  24.931 -0.0472 -0.0638 -0.0133
12879W        W55796  24.563  33.415  23.180 -0.0643  0.1585  0.2831
12880W        W55797  21.465  30.684  24.958  0.2038 -0.0860 -0.2002
12881W        W55798  24.509  31.730  24.796  0.2649  0.1689  0.0657
12882W        W55799  25.367  30.298  25.494 -0.0362  0.0624 -0.0043
12883W        W55800  20.568  30.841  24.333  0.0465  0.4686  0.4311
12884W        W55801  24.602  32.673  23.654  0.1467 -0.1975 -0.0948
12885W        W55802  20.768  34.112  23.270  0.1222  0.2678 -0.1989
12886W        W55803  22.147  33.715  27.342  0.1751 -0.0120  0.0826
12887W        W55804  22.056  32.097  27.175 -0.3591  0.1342 -0.4032
12888W        W55805  20.976  31.491  23.538  0.0719 -0.1522 -0.0988
12889W        W55806  26.801  30.001  24.630  0.2570  0.0004  0.0135
12890W        W55807  22.634  30.470  25.615 -0.2828 -0.0750 -0.0047
12891W        W55808  26.249  29.648  24.918 -0.0495  0.1921 -0.1597
12892W        W55809  20.422  29.225  24.218  0.2515  0.0602  0.1977
12893W        W55810  23.558  28.554  23.809  0.1865 -0.1922  0.0267
12894W        W55811  22.881  30.907  26.903  0.0061 -0.0518 -0.0846
12895W        W55812  22.221  30.041  24.774 -0.2825  0.2805  0.0008
12896W        W55813  22.711  31.436  25.697  0.0931 -0.2439  0.1244
12897W        W55814  24.620  30.790  26.843  0.2724  0.2734  0.0278
12898W        W55815  24.462  31.452  23.395  0.1125 -0.1776  0.0447
12899W        W55816  24.923  33.294  25.263  0.1407  0.2767 -0.1209
12900W        W55817  22.169  30.954  24.565 -0.0281 -0.0721 -0.0821
12901W        W55818  23.244  30.436  24.199  0.0214 -0.1575  0.1247
12902W        W55819  22.142  31.700  24.435  0.0728 -0.1765  0.2577
12903W        W55820  24.136  31.970  26.033  0.0753 -0.0659  0.1573
12904W        W55821  25.696  32.757  25.351 -0.1844 -0.1581 -0.1582
12905W        W55822  22.765  30.102  26.358 -0.0914  0.0130 -0.1400
12906W        W55823  26.113  33.374  24.152 -0.3535  0.0611  0.0990
12907W        W55824  27.395  32.529  24.944 -0.0416 -0.0169 -0.0384
12908W        W55825  21.767  32.715  24.270  0.1224 -0.1728  0.0487
12909W        W55826  25.478  32.302  25.295 -0.1512 -0.1995  0.0891
12910W        W55827  24.393  33.432  24.226 -0.3387  0.1305  0.5427
12911W        W55828  20.048  30.276  25.871 -0.1398  0.1709 -0.0487
12912W        W55829  24.329  32.348  23.961  0.3097 -0.0495  0.2263
12913W        W55830  25.075  33.142  26.214 -0.0929 -0.1813  0.1135
12914W        W55831  23.575  28.132  24.031 -0.1130  0.0681 -0.0820
12915W        W55832  22.451  30.461  26.301 -0.0778 -0.1589  0.1468
12916W        W55833  21.022  32.331  25.010  0.2540 -0.2359  0.6637
12917W        W55834  24.676  29.610  23.582 -0.0605 -0.1211 -0.0652
12918W        W55835  22.952  29.236  25.303 -0.0066 -0.3748  0.0377
12919W        W55836  21.774  33.935  24.895 -0.1521 -0.0547 -0.0672
12920W        W55837  24.043  28.873  25.004  0.0141  0.1285 -0.4099
12921W        W55838  24.338  32.689  24.894 -0.0279 -0.2941 -0.4581
12922W        W55839  23.005  31.849  27.271  0.2196 -0.2319 -0.1813
12923W        W55840  22.539  30.924  25.832  0.0730 -0.0081 -0.1760
12924W        W55841  24.415  30.525  27.345  0.1104  0.1007 -0.1057
12925W        W55842  21.992  32.484  25.351 -0.2825 -0.0631  0.1433
12926W        W55843  24.319  33.828  24.520  0.0051  0.0044  0.2478
12927W        W55844  24.290  33.606  25.823 -0.0462  0.0355  0.0456
12928W        W55845  22.321  30.595  23.619  0.0751 -0.3485  0.2063
12929W        W55846  26.639  31.225  24.359  0.0198 -0.0473  0.0755
12930W        W55847  22.524  28.938  27.004  0.1561  0.0563 -0.0772
12931W        W55848  23.697  27.827  23.206 -0.1288 -0.0617 -0.0361
12932W        W55849  24.272  29.198  21.431 -0.2542 -0.1664  0.0558
12933W        W55850  22.779  31.544  24.040 -0.2722 -0.0329 -0.3525
12934W        W55851  22.196  28.805  23.070  0.0025 -0.1973 -0.0086
12935W        W55852  20.543  31.417  24.339 -0.1351 -0.1709 -0.0560
12936W        W55853  22.933  31.433  24.613  0.0775  0.0307  0.1128
12937W        W55854  23.768  28.334  28.740 -0.0296  0.2717 -0.1740
12938W        W55855  22.649  32.242  27.075  0.0697  0.1800  0.2024
12939W        W55856  20.564  31.826  26.343 -0.0642  0.1750 -0.0940
12940W        W55857  22.582  31.092  23.840 -0.0964  0.0162 -0.4714
12941W        W55858  26.627  31.624  24.586  0.5478 -0.1819 -0.1517
12942W        W55859  23.719  28.461  26.680 -0.0861  0.1396  0.1453
12943W        W55860  19.431  27.971  23.145  0.0431 -0.0267  0.0679
12944W        W55861  24.953  32.312  23.776  0.0557 -0.0186 -0.0612
12945W        W55862  24.993  31.856  23.881  0.1949 -0.0761 -0.0973
12946W        W55863  22.273  31.066  23.416 -0.1292  0.0905  0.0322
12947W        W55864  25.332  29.549  27.692 -0.1287  0.1298 -0.2373
12948W        W55865  21.086  32.420  23.298 -0.3054 -0.1208  0.0362
12949W        W55866  24.815  32.625  26.690  0.0993  0.0893 -0.0687
12950W        W55867  24.037  30.699  27.774  0.2412  0.2200 -0.1676
12951W        W55868  20.457  28.338  24.201 -0.2708 -0.0615 -0.2464
12952W        W55869  24.937  32.933  24.622  0.0505 -0.2153  0.1774
12953W        W55870  24.045  32.296  24.955 -0.1669 -0.0522 -0.0344
12954W        W55871  23.626  30.410  23.883 -0.3124 -0.1369 -0.1312
12955W        W55872  22.369  33.346  25.591  0.0879 -0.0212 -0.1165
12956W        W55873  23.250  33.090  25.024 -0.2888 -0.3308 -0.3960
12957W        W55874  21.126  29.370  25.362 -0.1321 -0.2346 -0.2730
12958W        W55875  24.072  32.698  23.675  0.0487  0.1499 -0.2027
12959W        W55876  24.449  31.894  27.357 -0.1218 -0.1773 -0.0193
12960W        W55877  24.643  32.728  22.899  0.1691  0.1309  0.0932
12961W        W55878  23.894  29.986  27.217 -0.2485  0.1231 -0.2039
12962W        W55879  21.821  30.370  24.617 -0.0654 -0.1132  0.1689
12963W        W55880  24.980  30.633  27.322 -0.0657 -0.1357  0.0759
12964W        W55881  22.946  32.652  25.923 -0.0280 -0.4863  0.0954
12965W        W55882  25.975  30.944  25.295  0.1613  0.1255 -0.0475
12966W        W55883  22.182  29.815  25.505 -0.2296  0.1251 -0.1187
12967W        W55884  22.697  31.382  25.113 -0.0120  0.1624 -0.1438
12968W        W55885  20.810  30.985  25.340 -0.1049 -0.0383  0.0200
12969W        W55886  19.918  30.513  24.862 -0.0350 -0.0072 -0.0917
12970W        W55887  22.363  30.528  24.786 -0.3935 -0.3599  0.2283
12971W        W55888  23.755  31.183  24.369 -0.0264  0.1401  0.2419
12972W        W55889  22.771  32.545  24.670  0.0165 -0.0357 -0.1972
12973W        W55890  22.972  31.425  27.557 -0.1984  0.3028 -0.0731
12974W        W55891  22.887  29.015  24.264  0.1554 -0.1335 -0.1135
12975W        W55892  27.335  30.910  24.623  0.3133  0.1697  0.3439
12976W        W55893  23.408  32.010  25.542  0.1088  0.0672 -0.3950
12977W        W55894  25.423  33.112  27.597  0.4797  0.1094 -0.1713
12978W        W55895  24.268  32.158  26.802 -0.0188 -0.0037 -0.1184
12979W        W55896  24.761  32.193  26.929  0.2966 -0.1785 -0.0413
12980W        W55897  20.866  30.290  25.657  0.1169 -0.0312  0.0621
12981W        W55898  21.710  31.825  24.725 -0.0552 -0.6014 -0.2109
12982W        W55899  23.334  31.101  26.717 -0.1285 -0.2470 -0.1619
12983W        W55900  24.641  30.303  26.239  0.2020 -0.1539  0.0699
12984W        W55901  20.159  31.001  24.015  0.0215 -0.2784 -0.1458
12985W        W55902  23.097  27.270  23.925  0.0643  0.0770 -0.0785
12986W        W55903  23.260  32.781  27.739  0.1258 -0.1930 -0.0739
12987W        W55904  23.084  30.901  25.132 -0.1296  0.0169 -0.1046
12988W        W55905  20.675  31.021  29.210 -0.0475 -0.2279  0.1239
12989W        W55906  21.182  32.680  27.170  0.2673 -0.2803 -0.0721
12990W        W55907  25.471  31.220  27.505  0.0541 -0.3837 -0.0290
12991W        W55908  24.074  32.530  29.934 -0.1474 -0.0233 -0.0826
12992W        W55909  19.893  31.836  27.022  0.0953  0.0031 -0.1084
12993W        W55910  24.966  32.338  25.410  0.0610 -0.3077 -0.0392
12994W        W55911  22.158  28.923  28.274  0.1927  0.6372 -0.0033
12995W        W55912  25.605  32.772  27.311 -0.3606 -0.0187 -0.0150
12996W        W55913  23.681  31.504  28.821 -0.2532 -0.0559  0.0501
12997W        W55914  25.160  32.443  27.123 -0.1662  0.0882 -0.3446
12998W        W55915  20.456  31.074  28.760  0.0488 -0.4010  0.2173
12999W        W55916  21.248  31.595  30.183 -0.1450 -0.5529  0.2902
13000W        W55917  22.967  28.666  27.280  0.2727  0.1987 -0.0877
13001W        W55918  22.628  31.647  29.601  0.0326  0.0936  0.0448
13002W        W55919  22.538  30.492  29.638  0.0789  0.1369  0.0726
13003W        W55920  23.040  30.562  30.307 -0.0949  0.1686 -0.2652
13004W        W55921  23.703  29.717  28.480 -0.3494 -0.0431 -0.0146
13005W        W55922  23.989  27.903  27.859 -0.0807  0.2480 -0.0933
13006W        W55923  23.983  33.599  29.123  0.2731  0.2474  0.3383
13007W        W55924  24.131  29.052  30.543 -0.2017  0.1530 -0.1333
13008W        W55925  24.212  28.526  31.597  0.1041  0.1244  0.0602
13009W        W55926  23.476  32.798  26.791  0.0763 -0.0130 -0.2167
13010W        W55927  21.462  32.131  25.087 -0.0428  0.0344 -0.1437
13011W        W55928  22.008  29.207  29.640  0.0703  0.2815  0.0279
13012W        W55929  22.810  30.983  29.638 -0.0276 -0.1848 -0.1650
13013W        W55930  23.472  30.898  28.446  0.0411 -0.0573  0.2439
13014W        W55931  25.794  31.201  28.888  0.2051 -0.1980  0.3135
13015W        W55932  22.376  32.521  26.734  0.1878 -0.1220  0.0581
13016W        W55933  23.036  32.569  29.645  0.0660 -0.2812 -0.0277
13017W        W55934  24.968  30.991  30.626  0.1810 -0.1130 -0.3091
13018W        W55935  21.687  31.048  29.415 -0.0848 -0.1394  0.0051
13019W        W55936  21.124   0.254  29.963 -0.2722 -0.1489  0.0394
13020W        W55937  21.883  33.055  29.313  0.1088 -0.1431  0.1808
13021W        W55938  27.536  30.938  27.954 -0.1115  0.1104 -0.0759
13022W        W55939  22.143  32.566  30.010  0.0776  0.4905  0.1866
13023W        W55940  23.647  30.795   0.217  0.2170 -0.1178 -0.1829
13024W        W55941  21.172  32.909  29.794  0.0395  0.0916 -0.2184
13025W        W55942  22.037  32.997  30.902 -0.3266 -0.3249  0.1295
13026W        W55943  20.760  33.239  30.849  0.0048  0.0239  0.0485
13027W        W55944  23.349  30.103  28.270 -0.1582 -0.0038  0.1582
13028W        W55945  22.036  31.775  28.588 -0.1527 -0.0785 -0.1276
13029W        W55946  22.437  31.906  28.009  0.2522 -0.0269 -0.0270
13030W        W55947  23.271  32.250  27.624 -0.1051 -0.1127  0.0487
13031W        W55948  21.619  31.889  29.240 -0.0719 -0.3521  0.1347
13032W        W55949  21.888  31.421  29.022 -0.3563  0.1091  0.1245
13033W        W55950  27.766  30.413  31.899 -0.2481  0.0690 -0.2748
13034W        W55951  21.686  32.777  27.280 -0.0363  0.1435 -0.2181
13035W        W55952  25.934  28.037  29.173  0.0399 -0.1903  0.0310
13036W        W55953  25.224  29.794  26.668  0.3020  0.0304 -0.0163
13037W        W55954  25.461  30.624  27.568  0.0134  0.2679  0.2265
13038W        W55955  25.051  29.446  30.983  0.0658  0.0526 -0.1640
13039W        W55956  21.532  34.090  28.945 -0.1553 -0.2653 -0.0133
13040W        W55957  22.381  29.701  30.539  0.0080  0.0105  0.1341
13041W        W55958  23.316  31.008  29.508  0.1428  0.1045  0.0800
13042W        W55959  22.491  30.531  27.174 -0.1389 -0.2857  0.1107
13043W        W55960  25.353  30.323  29.097 -0.0336  0.0346  0.4894
13044W        W55961  22.541  32.131  29.469  0.0634  0.0290  0.0802
13045W        W55962  22.169  30.944  29.520 -0.1686 -0.1494  0.1518
13046W        W55963  26.120  31.055  28.546 -0.2607  0.1890  0.0177
13047W        W55964  23.111  34.129  28.112 -0.0329 -0.1983  0.0187
13048W        W55965  23.965  32.153  27.253  0.2792 -0.1009  0.1016
13049W        W55966  19.810  31.602  28.206 -0.0659 -0.0051  0.0413
13050W        W55967  22.479  31.047  31.266 -0.1085  0.0631  0.1605
13051W        W55968  22.263  32.034  30.900 -0.3795 -0.1286  0.0631
13052W        W55969  21.808  30.984  26.829  0.3513  0.0937 -0.1888
13053W        W55970  25.374  29.376  30.628 -0.1651 -0.1203 -0.0490
13054W        W55971  21.001  30.577  29.239  0.3181 -0.1197  0.1115
13055W        W55972  26.689  30.073  30.334 -0.1964  0.6910  0.0339
13056W        W55973  19.988  30.904  28.733 -0.3400  0.1388  0.0328
13057W        W55974  24.428  32.424  25.257  0.0415 -0.1901 -0.0664
13058W        W55975  25.969  30.603  25.817  0.1833 -0.0167 -0.1552
13059W        W55976  23.774  27.310  30.861  0.2319 -0.0935 -0.0672
13060W        W55977  26.111  29.982  30.476 -0.3984  0.0661  0.0124
13061W        W55978  20.978  33.137  24.621  0.0145 -0.2543  0.0717
13062W        W55979  22.924  31.286  29.238 -0.1084  0.0985  0.4849
13063W        W55980  22.507  32.113  30.010  0.0163  0.0479  0.0159
13064W        W55981  27.072  31.775  28.067  0.0302  0.0267  0.2484
13065W        W55982  21.629  32.147  29.781 -0.2128 -0.1400 -0.1845
13066W        W55983  25.316  31.165  29.114  0.1157  0.0569 -0.2462
13067W        W55984  22.676  33.606  28.253  0.0844  0.0876  0.1660
13068W        W55985  20.382  32.646  28.873  0.1726 -0.4031 -0.0692
13069W        W55986  21.861  31.206  29.949  0.1963  0.2147  0.0839
13070W        W55987  22.929  33.571  26.731  0.2555  0.0831  0.1969
13071W        W55988  22.097  29.659  29.452  0.0585 -0.0804  0.1793
13072W        W55989  21.008  30.831  29.684  0.1716 -0.4702 -0.2273
13073W        W55990  25.100  31.276  30.136  0.0939  0.1982 -0.2952
13074W        W55991  21.862  28.757  30.259 -0.2807  0.0577  0.0112
13075W        W55992  24.998  30.610  30.240 -0.1939 -0.0805 -0.2624
13076W        W55993  21.271  31.535  29.276 -0.1293  0.0225  0.1771
13077W        W55994  26.032  31.610  29.147 -0.1492 -0.0486  0.1961
13078W        W55995  24.885  31.471  27.426  0.4522 -0.4929  0.3253
13079W        W55996  24.356  31.285  27.032  0.1052  0.2653 -0.0675
13080W        W55997  21.331  30.697  30.568  0.1966  0.2743  0.1624
13081W        W55998  23.348  31.025  28.912 -0.0004  0.2155 -0.0208
13082W        W55999  21.329  29.959  30.456 -0.1441  0.2907 -0.5162
13083W        W56000  22.481  29.391  29.637 -0.3127  0.0535 -0.0866
13084W        W56001  25.779  29.830  28.247 -0.2307  0.0463 -0.1528
13085W        W56002  20.642  29.241  27.720 -0.2702  0.2865 -0.0293
13086W        W56003  23.938  29.424  30.159 -0.1548  0.0005 -0.2287
13087W        W56004  23.314  30.571  28.022  0.0917  0.1848 -0.4171
13088W        W56005  22.090  33.361  28.911  0.1353  0.1499 -0.0146
13089W        W56006  25.431  27.614   0.028  0.1401 -0.2522  0.0623
13090W        W56007  24.143  32.942  28.475  0.3664 -0.1612  0.0189
13091W        W56008  25.467  29.867  29.787 -0.2735 -0.0686 -0.0457
13092W        W56009  25.955  32.028  28.596  0.2129  0.3799  0.1300
13093W        W56010  24.147  30.618  31.825  0.0629 -0.0311  0.1211
13094W        W56011  21.311  32.153  28.442  0.0671  0.1744 -0.1677
13095W        W56012  21.533  33.631  31.499 -0.2108  0.0243 -0.1304
13096W        W56013  21.990  31.856  30.524 -0.1776 -0.1034  0.1196
13097W        W56014  22.630  31.846  28.531 -0.1652  0.4431 -0.0470
13098W        W56015  25.586  32.302  29.587 -0.0182  0.0509 -0.1651
13099W        W56016  23.637  33.016  27.265  0.0124 -0.0611  0.1541
13100W        W56017  22.266  32.300  29.021 -0.1273  0.0646 -0.1345
13101W        W56018  25.851  28.047  30.867 -0.2196 -0.1193  0.0533
13102W        W56019  27.364  30.597  29.777  0.0767  0.0300 -0.1806
13103W        W56020  23.912  28.878  30.153  0.1172  0.0893  0.2590
13104W        W56021  22.522  30.551  28.705  0.0721  0.0790  0.0805
13105W        W56022  23.416  32.498  25.791 -0.2823  0.2457 -0.1066
13106W        W56023  21.990  33.131  27.166 -0.1474 -0.5226  0.1004
13107W        W56024  21.922  31.358  30.668  0.0183  0.0132  0.0115
13108W        W56025  23.368  31.812  26.441 -0.0655 -0.0461 -0.0169
13109W        W56026  23.999  30.134  28.541 -0.3121 -0.0776 -0.3316
13110W        W56027  23.828  31.291  31.227  0.0844 -0.0260  0.0823
13111W        W56028  24.179  28.018  31.697  0.0759 -0.1451  0.2550
13112W        W56029  19.343  31.633  29.672  0.2128 -0.1692 -0.4107
13113W        W56030  23.061  32.409  31.548 -0.1108 -0.1044  0.1788
13114W        W56031  23.721  28.418  30.106 -0.2171 -0.0536  0.1115
13115W        W56032  26.915  30.363  28.038  0.0236 -0.0961 -0.0372
13116W        W56033  23.008  32.417  30.598 -0.1389 -0.0431  0.1174
13117W        W56034  26.096  31.527  26.999  0.0759 -0.1969  0.0791
13118W        W56035  25.020  31.158  27.070 -0.0421  0.2736  0.0938
13119W        W56036  24.383  31.120  28.634 -0.3907  0.2885  0.0744
13120W        W56037  23.486  31.500  31.596  0.0643 -0.0665 -0.3169
13121W        W56038  26.056  33.019  26.300  0.0570 -0.2455 -0.2666
13122W        W56039  21.520  31.756  28.581 -0.0695 -0.2264  0.0053
13123W        W56040  22.434  30.698  29.158  0.1356  0.0249  0.2203
13124W        W56041  24.457  32.139  28.309 -0.2625  0.1758  0.0007
13125W        W56042  22.773  30.526  27.632  0.0568  0.2026  0.0376
13126W        W56043  24.409  31.865  30.475 -0.2278 -0.2203  0.0287
13127W        W56044  23.899  31.716  27.425  0.0344 -0.2432 -0.0177
13128W        W56045  22.189  27.421  30.432  0.0078 -0.3340 -0.1150
13129W        W56046  21.209  31.818  29.690 -0.1758  0.1140  0.0309
13130W        W56047  22.758  28.717  29.685  0.2547  0.3382 -0.0136
13131W        W56048  20.862  32.794  26.835 -0.2713 -0.1121 -0.3299
13132W        W56049  26.348  27.843  30.969  0.1940  0.0323 -0.0393
13133W        W56050  24.713  28.649  29.858  0.2693  0.3136 -0.0409
13134W        W56051  23.228  29.797  28.645  0.1040  0.1007 -0.1390
13135W        W56052  24.455  29.520  30.065  0.1993  0.3923 -0.0842
13136W        W56053  24.050  33.473  27.767 -0.2665  0.2337  0.1318
13137W        W56054  22.662  30.213  29.029  0.1092 -0.1215 -0.0679
13138W        W56055  23.663  31.205  27.473 -0.3364 -0.1211 -0.2078
13139W        W56056  25.704  29.699  30.566  0.3429  0.1627  0.0121
13140W        W56057  22.806  30.971  31.913  0.0368  0.1568  0.3505
13141W        W56058  21.636  31.570  29.626  0.2333  0.3836  0.0847
13142W        W56059  23.628  31.116  30.744  0.0132  0.2312  0.0364
13143W        W56060  25.263  32.496  29.151 -0.2982 -0.0109  0.0746
13144W        W56061  23.685  30.130  31.306  0.4071  0.1757 -0.0146
13145W        W56062  25.978  28.967  29.201  0.1523 -0.0656 -0.2080
13146W        W56063  20.774  32.830  29.527 -0.4246 -0.0308 -0.2743
13147W        W56064  22.920  33.154  27.684  0.0092 -0.0044  0.0368
13148W        W56065  23.314  28.626  31.002  0.1612  0.5141  0.2377
13149W        W56066  21.215  32.106  30.087 -0.0034 -0.1789  0.0409
13150W        W56067  22.411  32.653  25.971 -0.1692  0.0773 -0.0970
13151W        W56068  21.590  29.630  29.665  0.2815  0.0344 -0.0800
13152W        W56069  22.389  30.327  27.886  0.2884  0.2083  0.0061
13153W        W56070  24.116  29.493  28.816 -0.0001 -0.0003  0.1359
13154W        W56071  20.906  31.462  28.904  0.1733 -0.1507  0.1261
13155W        W56072  21.417  31.336  25.921 -0.0239 -0.0486  0.0193
13156W        W56073  23.961  33.011  26.844 -0.2736 -0.1693  0.0323
13157W        W56074  23.251  30.317  28.974 -0.1145  0.0269 -0.3638
13158W        W56075  25.935  30.058  27.140 -0.1739  0.2124  0.1701
13159W        W56076  22.337  28.883  29.928 -0.0817  0.1370  0.1933
13160W        W56077  23.346  31.360  28.424 -0.2707  0.0754 -0.0031
13161W        W56078  21.996  34.561  30.006  0.1339  0.0246 -0.0806
13162W        W56079  23.932  30.465  27.305  0.0575  0.0357 -0.0475
13163W        W56080  25.292  31.412  28.024  0.0344  0.0607  0.1266
13164W        W56081  23.627  31.417  26.455 -0.1050 -0.0689  0.2525
13165W        W56082  23.321  30.498  31.377 -0.4875  0.0298  0.1567
13166W        W56083  25.143  32.616  26.170 -0.1936 -0.0414  0.0914
13167W        W56084  24.200  29.734  30.459 -0.3995 -0.0427 -0.3125
13168W        W56085  24.338  29.372  29.257 -0.1280 -0.1260  0.0356
13169W        W56086  20.876  32.423  28.715  0.6128  0.1570  0.3675
13170W        W56087  23.598  30.700  29.116  0.4053 -0.0785 -0.0977
13171W        W56088  21.339  32.658  28.698  0.1697  0.0763 -0.0882
13172W        W56089  20.409  32.632  29.795 -0.0072  0.1221  0.0853
13173W        W56090  22.540  29.199  30.607  0.1414 -0.2228 -0.0689
13174W        W56091  24.367  30.845  29.081 -0.0662 -0.1470 -0.0824
13175W        W56092  23.667  30.208  26.816  0.1016  0.1138 -0.0373
13176W        W56093  23.027  30.643  28.632 -0.1678 -0.1078  0.1123
13177W        W56094  24.071  31.782  28.279 -0.4817 -0.0748 -0.1276
13178W        W56095  22.757  32.539  30.105  0.1600 -0.0275 -0.3926
13179W        W56096  23.659  30.672  29.945  0.0833 -0.3383 -0.0800
13180W        W56097  21.394  32.141  31.467  0.0481  0.0852  0.2534
13181W        W56098  24.712  30.142  28.983 -0.0825  0.0483 -0.2863
13182W        W56099  25.184  33.263  29.612  0.1441 -0.2689 -0.4612
13183W        W56100  22.718  30.885  30.144  0.5191 -0.0641 -0.3269
13184W        W56101  23.306  32.129  31.092 -0.0799 -0.2674 -0.1607
13185W        W56102  22.875  29.990  29.410  0.2532 -0.1883  0.1330
13186W        W56103  21.016  31.039  30.149  0.1316 -0.0985 -0.1333
13187W        W56104  24.479  29.888  29.362  0.0137 -0.0109 -0.0833
13188W        W56105  19.489  30.244  28.755 -0.1038 -0.0795  0.2393
13189W        W56106  21.663  31.799  27.180  0.1274 -0.1102  0.3974
13190W        W56107  22.385  31.164  30.467  0.0177  0.1368  0.1721
13191W        W56108  24.076  30.970  27.308  0.0580  0.0819 -0.1732
13192W        W56109  24.340  31.642  26.524  0.1083  0.0540 -0.1707
13193W        W56110  24.179  30.032  28.964 -0.0440  0.0420 -0.4306
13194W        W56111  26.784  29.866   0.728 -0.1246  0.0906 -0.1274
13195W        W56112  25.147  30.245  27.625  0.2521 -0.0559  0.1226
13196W        W56113  25.961  29.836  29.646 -0.1735  0.1598  0.0096
13197W        W56114  24.426  30.102  31.301 -0.2572  0.3218  0.2535
13198W        W56115  24.696  31.698  26.907  0.2051  0.0612  0.0053
13199W        W56116  22.151  30.254  29.949  0.0186 -0.3218  0.5009
13200W        W56117  24.973  34.284  31.874  0.0423 -0.0229  0.0572
13201W        W56118  22.884  31.326  30.578  0.2883  0.1939  0.0342
13202W        W56119  22.824  30.495  28.134  0.0715 -0.3052  0.0462
13203W        W56120  22.594  30.934  26.369 -0.1247  0.0064 -0.1558
13204W        W56121  23.914  31.299  28.402 -0.1453  0.0406  0.1902
13205W        W56122  25.511  31.228  26.169 -0.1749  0.0578  0.2579
13206W        W56123  21.573  32.479  27.979 -0.1312  0.3290  0.1978
13207W        W56124  23.985  30.956  29.380  0.0558 -0.0075 -0.1463
13208W        W56125  21.782  30.152  29.537 -0.0048 -0.1902  0.0784
13209W        W56126  24.984  30.005  29.434  0.1020  0.1738  0.2790
13210W        W56127  22.756  30.955  28.879  0.0070 -0.0599  0.1827
13211W        W56128  23.346  30.394  29.472 -0.1867 -0.6152  0.0116
13212W        W56129  24.275  30.125  30.179  0.2122 -0.1921  0.0691
13213W        W56130  24.517  30.774  27.725 -0.1677 -0.1451  0.0692
13214W        W56131  23.423  32.348  28.794  0.0161  0.0675 -0.1800
13215W        W56132  24.376  28.668   0.109 -0.1518  0.0570  0.0857
13216W        W56133  26.251  29.756  31.311 -0.1461 -0.0824  0.2961
13217W        W56134  23.531  30.460   0.643  0.0770  0.0539 -0.0018
13218W        W56135  22.351  28.427   0.679  0.1769 -0.3956  0.3035
13219W        W56136  26.109  33.437  30.423  0.0899  0.3345 -0.2594
13220W        W56137  27.352  30.979  27.225  0.0671 -0.1444 -0.0094
13221W        W56138  24.074  27.579  30.456  0.1600  0.1118 -0.2565
13222W        W56139  25.510  31.448  27.039  0.0809 -0.0134 -0.4902
13223W        W56140  24.835  31.735  27.833 -0.1672  0.0369 -0.0363
13224W        W56141  23.191  31.819  28.709 -0.0458  0.0078 -0.0971
13225W        W56142  26.149  29.506  30.505  0.2179  0.1320  0.0525
13226W        W56143  23.962  32.403  25.872 -0.0463 -0.0677 -0.2870
13227W        W56144  24.839  28.859   0.311  0.1298 -0.0014  0.0204
13228W        W56145  21.175  32.498  30.495 -0.0733 -0.1317  0.3724
13229W        W56146  23.895  32.415  28.987  0.0871 -0.1907 -0.3782
13230W        W56147  24.169  30.291  26.849 -0.2514  0.2428  0.0650
13231W        W56148  23.392  28.949  30.605 -0.1677 -0.3597  0.2550
13232W        W56149  21.864  32.831  30.342  0.2378  0.1367  0.0886
13233W        W56150  22.689  32.827  26.390  0.0215 -0.1570 -0.2205
13234W        W56151  22.952  33.662  26.257  0.1678 -0.0478 -0.0711
13235W        W56152  24.318  32.574  28.110  0.2396  0.2722  0.2271
13236W        W56153  23.290  30.137  30.365 -0.3363  0.0305  0.1737
13237W        W56154  25.839  29.330  28.208  0.2890 -0.0326  0.0425
13238W        W56155  26.331  29.154  30.259 -0.1258 -0.0045  0.0626
13239W        W56156  20.381  33.715  27.092  0.1179 -0.1718  0.0656
13240W        W56157  22.974  30.676  29.205  0.1430  0.0364  0.0388
13241W        W56158  21.499  29.606  29.177  0.1594 -0.1477  0.4030
13242W        W56159  21.370  30.477  29.624 -0.0575  0.1555  0.1004
13243W        W56160  23.664  32.814  28.680  0.0294 -0.2684 -0.0821
13244W        W56161  24.541  30.139  29.798 -0.0401  0.0548  0.3546
13245W        W56162  26.432  30.104  29.494 -0.0430  0.0694  0.1097
13246W        W56163  24.965  31.797  28.323  0.3627 -0.0428 -0.0299
13247W        W56164  26.890  31.121  30.419  0.0855 -0.3558  0.1186
13248W        W56165  24.712  30.225  30.447 -0.0750  0.2130  0.0330
13249W        W56166  22.884  31.631  28.055  0.0611  0.1982  0.0627
13250W        W56167  22.433  31.480  28.783  0.3541  0.3844 -0.1858
13251W        W56168  25.833  31.139  29.439 -0.0919  0.1194  0.1097
13252W        W56169  20.816   0.017  29.263  0.2076 -0.2459  0.2311
13253W        W56170  22.265  27.867  30.680 -0.0702 -0.1075  0.2745
13254W        W56171  22.251  31.644  30.033  0.1909 -0.1083 -0.5388
13255W        W56172  21.313  30.642  28.158 -0.1921 -0.3158  0.0262
13256W        W56173  23.027  28.455  28.344 -0.1461 -0.0598 -0.0709
13257W        W56174  21.945  32.072  26.672 -0.3972  0.2234  0.2818
13258W        W56175  21.281  31.268  29.741 -0.0286 -0.0623 -0.0409
13259W        W56176  22.395  31.188  29.917 -0.0786 -0.2447  0.0974
13260W        W56177  21.693  34.550  28.198  0.0268 -0.3020  0.0172
13261W        W56178  25.760  31.737  27.328 -0.0561  0.0532 -0.0386
13262W        W56179  24.079  30.787  28.354  0.0731  0.1849 -0.0156
13263W        W56180  23.270  33.474  28.875  0.2565 -0.0221 -0.3571
13264W        W56181  23.904  30.784  26.869 -0.0734  0.3648  0.2463
13265W        W56182  21.633  33.785  28.142 -0.1607 -0.1937 -0.1590
13266W        W56183  22.806  32.410  26.567  0.0159 -0.0685  0.0250
13267W        W56184  25.388  32.895  28.861  0.1358  0.1485 -0.3419
13268W        W56185  23.334  33.781  28.381 -0.1463  0.1230 -0.0481
13269W        W56186  24.177  31.928  29.317 -0.2923  0.0328  0.4057
13270W        W56187  24.619  29.868  27.961  0.1388  0.1299  0.0832
13271W        W56188  24.741  31.229  27.865 -0.1359  0.0164  0.1096
13272W        W56189  25.136  32.235  29.824 -0.1086  0.1320 -0.1825
13273W        W56190  23.585  32.170  31.525 -0.2245  0.1133  0.1621
13274W        W56191  22.098  31.563  28.101  0.0350 -0.0555 -0.0604
13275W        W56192  23.210  31.188  27.209 -0.0103  0.3157  0.3135
13276W        W56193  23.515  30.625  30.474 -0.1079  0.1653 -0.3575
13277W        W56194  25.004  28.060  31.262  0.0559 -0.0948  0.0523
13278W        W56195  22.866  32.966  30.490 -0.0940  0.0771  0.1261
13279W        W56196  26.885  30.075  25.851  0.1544 -0.1403 -0.2414
13280W        W56197  21.703  31.417  27.466 -0.0416 -0.1939  0.2200
13281W        W56198  22.437  31.474  27.657  0.0365 -0.1111 -0.0737
13282W        W56199  24.034  30.530  28.804  0.2161  0.0366 -0.0131
13283W        W56200  25.575  31.864  26.742 -0.1787  0.0813 -0.0443
13284W        W56201  23.674  29.048  29.613 -0.1765  0.0887  0.1023
13285W        W56202  22.297  32.793  29.243  0.0324  0.2679 -0.2322
13286W        W56203  22.939  33.078  31.535  0.2536 -0.1445  0.3246
13287W        W56204  22.133  33.744  28.445 -0.0103 -0.1712 -0.0730
13288W        W56205  20.966  30.971  26.531 -0.1277 -0.0523 -0.3615
13289W        W56206  26.095  29.892  29.181  0.1721 -0.1434  0.2839
13290W        W56207  23.002  30.039  29.876  0.0123  0.0349  0.4262
13291W        W56208  23.847  29.797  30.813  0.4280  0.0338 -0.0761
13292W        W56209  23.293  30.610  26.824  0.0761  0.0833  0.0717
13293W        W56210  24.855  30.476  29.286 -0.2806 -0.2221  0.0802
13294W        W56211  24.060  29.376  29.682  0.0596  0.0900 -0.0824
13295W        W56212  21.153  30.369  31.567 -0.1262 -0.0250 -0.3815
13296W        W56213  22.699  31.039  27.368  0.0435  0.3733  0.3413
13297W        W56214  24.274  31.422  30.160  0.0790  0.4492 -0.3014
13298W        W56215  24.019  29.801  28.084 -0.0047  0.1949  0.0339
13299W        W56216  25.272  30.962  31.022  0.1118  0.3208 -0.1584
13300W        W56217  24.351  30.375  29.354 -0.1254 -0.1438  0.1169
13301W        W56218  24.418  29.302  27.987 -0.2514  0.0822 -0.0904
13302W        W56219  22.206  32.780  28.218  0.3039 -0.2084  0.1082
13303W        W56220  22.677  33.030  29.570  0.0313 -0.1000  0.2707
13304W        W56221  23.693  31.775  29.679  0.2396 -0.0906  0.1778
13305W        W56222  24.497  30.505  28.661 -0.0350 -0.0630  0.0022
13306W        W56223  25.058  30.089  27.105 -0.0594 -0.4263  0.0195
13307W        W56224  25.404  27.651  31.056 -0.1892  0.0303  0.0961
13308W        W56225  21.476  33.198  28.977 -0.1856  0.1524 -0.2263
13309W        W56226  26.012  30.683  27.327 -0.2633  0.0472  0.4215
13310W        W56227  26.151  32.238  28.057 -0.0824  0.2897  0.4475
13311W        W56228  23.360  31.215   1.124 -0.4037 -0.0490 -0.0993
13312W        W56229  22.677  31.620  31.335 -0.2571 -0.0593 -0.2274
13313W        W56230  24.194  31.096  28.026 -0.1629  0.0260 -0.3195
13314W        W56231  24.425  28.946  30.159  0.0316  0.3103  0.0086
13315W        W56232  21.633  30.151  27.474  0.1700  0.1409  0.3839
13316W        W56233  21.754  33.069  28.585  0.0750 -0.0184  0.1752
13317W        W56234  26.645  30.549  29.435 -0.0647  0.2221 -0.0344
13318W        W56235  24.439  28.477  31.125 -0.1924 -0.3640 -0.0432
13319W        W56236  23.311  31.595  26.908 -0.4092  0.0381  0.1983
13320W        W56237  22.955  28.025  31.473 -0.0539  0.1778  0.0734
13321W        W56238  21.305  33.212  29.384  0.2288  0.3058 -0.3751
13322W        W56239  23.505  33.630  31.590 -0.0587 -0.1333  0.1921
13323W        W56240  21.558  32.750  29.502 -0.3042  0.0673  0.2733
13324W        W56241  22.209  30.747  30.012  0.1414 -0.5017 -0.0520
13325W        W56242  20.892  31.956  29.336  0.1163  0.0858 -0.2636
13326W        W56243  23.565  31.895  28.421  0.1789  0.3897  0.3182
13327W        W56244  26.133  31.466  30.511 -0.3781  0.1092 -0.2172
13328W        W56245  23.104  30.911  27.631 -0.1838 -0.0090 -0.0368
13329W        W56246  25.542  31.087  31.482  0.2349 -0.0965 -0.0520
13330W        W56247  24.740  29.543  29.646 -0.2658  0.2599  0.0097
13331W        W56248  24.987  30.848  29.817 -0.5305 -0.1376  0.4034
13332W        W56249  22.912  30.184  28.580 -0.0815 -0.1130 -0.1986
13333W        W56250  23.006  33.223  30.966 -0.1468  0.0620  0.1144
13334W        W56251  20.846  32.027  27.526  0.0204 -0.0672  0.0740
13335W        W56252  22.650  33.313  26.392  0.2075  0.1854 -0.2454
13336W        W56253  20.639  32.397  29.287  0.5163 -0.0043 -0.1689
13337W        W56254  24.544  30.689  29.655  0.2135 -0.0545  0.0821
13338W        W56255  22.267  28.662  30.874  0.3638  0.0518  0.2008
13339W        W56256  20.928  31.123  28.467  0.1135 -0.1694  0.1133
13340W        W56257  22.714  31.141  27.893 -0.2656 -0.2541 -0.0941
13341W        W56258  27.119  31.017  28.673  0.1315  0.0740  0.1094
13342W        W56259  22.680  27.831  27.273  0.1693  0.1510 -0.0688
13343W        W56260  19.664  30.344  29.229  0.0101 -0.0564  0.1043
13344W        W56261  27.040  32.718  27.988  0.0778  0.0217 -0.0663
13345W        W56262  25.568  32.410  26.595  0.4483  0.1807  0.0638
13346W        W56263  22.080  31.048  27.744  0.0944  0.1405 -0.0555
13347W        W56264  23.598  31.248  29.788  0.1637 -0.2320 -0.0253
13348W        W56265  22.388  30.811  28.116 -0.3525 -0.1395 -0.2063
13349W        W56266  23.703  31.404  29.311 -0.0585  0.0184  0.3738
13350W        W56267  24.141  30.914  31.431 -0.1032  0.0171  0.1517
13351W        W56268  23.322  30.021  27.250  0.0355  0.1643  0.1088
13352W        W56269  22.055  30.483  28.898 -0.1592  0.1258  0.3029
13353W        W56270  25.172  33.429  26.852 -0.0739 -0.0949  0.0568
13354W        W56271  22.919  31.898  26.784  0.0305 -0.0113  0.1673
13355W        W56272  24.160  31.996  28.725  0.0209 -0.0897  0.3948
13356W        W56273  21.918  34.144  29.566 -0.5177  0.1218  0.0064
13357W        W56274  23.083  28.134  30.435 -0.3569  0.2065 -0.1332
13358W        W56275  25.312  31.271  28.537  0.2749  0.0333  0.2777
13359W        W56276  22.927  31.990  29.807 -0.1480  0.1901  0.0856
13360W        W56277  25.515  30.619  26.596 -0.1566 -0.0328 -0.0517
13361W        W56278  27.128  30.509  28.503  0.2007 -0.0823  0.1919
13362W        W56279  22.807  32.663  27.491  0.1753 -0.1241 -0.0559
13363W        W56280  22.368  29.413  31.606 -0.0572 -0.0256 -0.0266
13364W        W56281  22.173  30.977  30.857  0.1613 -0.2758  0.2413
13365W        W56282  26.402  30.316   0.002  0.0750  0.2523  0.1309
13366W        W56283  22.281  29.313  30.161  0.2953 -0.0580 -0.2006
13367W        W56284  23.853  30.281  29.308  0.3136 -0.0078  0.2107
13368W        W56285  24.356  32.836  26.673  0.0774  0.2615 -0.0396
13369W        W56286  21.235  31.029  29.190 -0.1514 -0.1770 -0.1744
13370W        W56287  24.461  29.988  27.126 -0.2094  0.0915 -0.0007
13371W        W56288  22.946  31.365  28.748 -0.0470  0.1764 -0.1043
13372W        W56289  22.908  31.939  30.356 -0.1653 -0.0198  0.1924
13373W        W56290  23.219  31.605  29.609 -0.0430 -0.0325 -0.0883
13374W        W56291  22.963  29.301  28.018 -0.3544 -0.2332 -0.0333
13375W        W56292  26.998  30.909  28.169 -0.1995  0.1271 -0.1587
13376W        W56293  21.589  31.174  30.362 -0.1401  0.1678  0.0284
13377W        W56294  27.880  33.942  29.840  0.1881  0.0266 -0.0206
13378W        W56295  23.662  30.230  30.746 -0.0097  0.2273  0.1739
13379W        W56296  26.350  30.967  29.640  0.1734 -0.0884 -0.2496
13380W        W56297  22.190  29.499  30.970  0.0162  0.2180  0.1123
13381W        W56298  20.857  28.983  28.141  0.0087 -0.0775 -0.1304
13382W        W56299  22.858  32.042  27.743 -0.0683 -0.0284 -0.0461
13383W        W56300  25.782  28.500  29.473  0.2283  0.0804 -0.2863
13384W        W56301  22.510  30.120  28.289  0.3687  0.0878 -0.0361
13385W        W56302  26.654  29.772  29.127  0.1505  0.0606 -0.2478
13386W        W56303  22.815  32.277  28.776 -0.1241  0.1616 -0.3610
13387W        W56304  21.922  32.450  27.571 -0.2470 -0.0727 -0.2391
13388W        W56305  25.437  27.973  30.164 -0.1558  0.0278  0.0460
13389W        W56306  22.428  31.303  29.269  0.2022 -0.1195  0.1795
13390W        W56307  24.210  30.990  30.933  0.1628 -0.0404 -0.2228
13391W        W56308  23.283  29.525   0.184  0.1553  0.0908 -0.0131
13392W        W56309  21.669  31.456  31.444  0.1150 -0.1878  0.0719
13393W        W56310  22.299  34.182  31.673 -0.0294  0.0878 -0.0409
13394W        W56311  25.098  30.225  29.834  0.1932 -0.0568 -0.0793
13395W        W56312  22.746  29.800  31.493  0.3160  0.1601  0.0594
13396W        W56313  22.866  28.916  31.021  0.0029  0.4006 -0.0343
13397W        W56314  25.712  32.169  30.851  0.0363 -0.2827  0.0215
13398W        W56315  24.756  32.007  30.105 -0.0723  0.1178 -0.0714
13399W        W56316  22.896  29.276  31.381 -0.2863 -0.0390  0.1403
13400W        W56317  24.059  29.847  29.882 -0.0400 -0.1670  0.2201
13401W        W56318  24.271  29.459   0.253 -0.1279  0.0642 -0.0754
13402W        W56319  25.996  28.642   0.684 -0.2011  0.1738 -0.2909
13403W        W56320  22.602  32.704  31.420  0.4464  0.0514 -0.0029
13404W        W56321  22.739  30.643   0.747 -0.1916 -0.3224  0.0475
13405W        W56322  26.564  33.180   0.745  0.0197 -0.0567 -0.0265
13406W        W56323  22.555  28.855   0.939 -0.1442  0.3438 -0.0902
13407W        W56324  22.275  30.224  31.521  0.1280  0.1564 -0.0346
13408W        W56325  23.700  28.920  31.015 -0.1172  0.0817  0.0817
13409W        W56326  20.054   0.244  31.066 -0.0358  0.1349  0.1801
13410W        W56327  25.220  28.517   0.203  0.1396 -0.1418  0.0480
13411W        W56328  25.578  30.378  30.985 -0.0329  0.0815 -0.1729
13412W        W56329  24.090  29.755  31.273 -0.0047 -0.1990  0.0063
13413W        W56330  26.070  31.718  30.954 -0.1265 -0.0071  0.0482
13414W        W56331  23.141  30.703  29.838  0.0255  0.3340 -0.2018
13415W        W56332  24.460  31.374  30.744  0.0865 -0.0126  0.1670
13416W        W56333  23.311  29.746  30.745  0.1486  0.2821 -0.0357
13417W        W56334  22.795  30.683   1.897  0.0601 -0.1097 -0.0749
13418W        W56335  22.225  33.162  31.329 -0.2235  0.0904  0.1217
13419W        W56336  24.514  29.682  30.976 -0.0728 -0.1020  0.2545
13420W        W56337  25.087  30.496  30.744 -0.2316 -0.0057 -0.2669
13421W        W56338  22.900  30.249   0.429  0.0361  0.0237  0.0843
13422W        W56339  23.164  31.157  30.016  0.1145  0.1882  0.0652
13423W        W56340  22.183  31.541  31.422  0.0248 -0.1989  0.0240
13424W        W56341  21.936  33.788   0.094 -0.0293 -0.1584  0.1537
13425W        W56342  24.903  32.718  30.464  0.1353 -0.1835  0.4121
13426W        W56343  24.750  31.520  30.355 -0.1068 -0.3115 -0.4950
13427W        W56344  22.440  31.705  30.492  0.0371 -0.0236  0.1081
13428W        W56345  24.907  29.734  31.935 -0.1235  0.0255  0.2257
13429W        W56346  25.919  30.688   0.020 -0.2859 -0.1060 -0.1390
13430W        W56347  25.471  28.245  31.134 -0.2075 -0.2383 -0.0048
13431W        W56348  23.088  31.856  31.514 -0.4154  0.1834  0.2158
13432W        W56349  24.222  31.252  31.892  0.1376  0.2001 -0.0347
13433W        W56350  23.398  30.034   0.449  0.0333  0.1614  0.0056
13434W        W56351  24.966  29.941  31.311  0.2239  0.0179  0.3271
13435W        W56352  24.630  31.047  30.083  0.2122  0.1897 -0.1977
13436W        W56353  24.719  32.245  30.566  0.0949  0.0143  0.5538
13437W        W56354  21.295  32.653  31.527 -0.1881  0.0470 -0.2137
13438W        W56355  20.550  31.088  29.784  0.3201 -0.1474 -0.2444
13439W        W56356  25.542  30.495  29.855 -0.3039  0.1950  0.2114
13440W        W56357  25.258  28.321  31.620 -0.1389  0.2034 -0.0311
13441W        W56358  23.292  31.748  30.041 -0.0928  0.0577 -0.0554
13442W        W56359  22.727  32.244  31.010 -0.2223  0.0857 -0.2116
13443W        W56360  22.964  30.802  31.330  0.0884 -0.0529 -0.1053
13444W        W56361  25.333  31.322  31.844  0.0411 -0.3878 -0.2438
13445W        W56362  22.792  32.728  29.214  0.0829 -0.1501  0.0467
13446W        W56363  22.709  32.758  30.912  0.1909 -0.1102  0.0460
13447W        W56364  23.794  32.131   0.770  0.0305 -0.0366  0.0469
13448W        W56365  23.356  31.877   1.478 -0.0188 -0.1257  0.0692
13449W        W56366  22.135  32.598   0.201  0.2337  0.0052 -0.2088
13450W        W56367  21.808  30.619   1.112  0.3265 -0.1030  0.0396
13451W        W56368  22.529  31.275  31.726  0.2174 -0.2237 -0.1984
13452W        W56369  22.873   0.148  29.745 -0.0307 -0.1687  0.0728
13453W        W56370  23.353  31.002  31.140 -0.3694  0.0124  0.1272
13454W        W56371  26.627  29.028   1.559 -0.1180  0.2350 -0.1375
13455W        W56372  23.219  33.608  16.593 -0.1306 -0.4122 -0.0564
13456W        W56373  23.538  31.181  16.779  0.2471 -0.1005  0.2522
13457W        W56374  26.483  34.469  16.747 -0.0333 -0.1642 -0.0674
13458W        W56375  20.208  33.286  17.725 -0.0882 -0.1059  0.0804
13459W        W56376  22.679  33.183  19.444  0.1933  0.0488 -0.1178
13460W        W56377  25.789  34.663  16.204 -0.0136 -0.2259 -0.1077
13461W        W56378  21.523  32.857  19.874 -0.2126  0.0479 -0.1533
13462W        W56379  21.411  33.425  19.269  0.1553 -0.0758 -0.0014
13463W        W56380  22.102  34.502  16.463  0.1125  0.0220 -0.1662
13464W        W56381  23.596  34.308  19.168  0.2083  0.0449 -0.0427
13465W        W56382  19.593   1.067  16.962 -0.1175  0.1828 -0.1003
13466W        W56383  22.503  34.548  18.274 -0.1059 -0.0778  0.3327
13467W        W56384  24.287   0.679  16.279 -0.0681  0.0191 -0.0496
13468W        W56385  21.477  33.188  18.855 -0.1874  0.1607  0.1437
13469W        W56386  24.374  31.458  18.476  0.0182 -0.1344 -0.0796
13470W        W56387  21.956  33.681  18.554 -0.0106 -0.0888 -0.0017
13471W        W56388  20.815   0.027  19.734 -0.1437  0.3388 -0.0783
13472W        W56389  21.742  34.277  19.605  0.0483  0.0416  0.0692
13473W        W56390  23.844  32.295  18.277  0.0254  0.1972  0.3012
13474W        W56391  23.562  33.632  18.002 -0.0494  0.1444  0.1218
13475W        W56392  24.716  32.592  21.655  0.1115 -0.1215  0.1630
13476W        W56393  24.166   0.167  16.545  0.1579  0.2029  0.3295
13477W        W56394  20.367   0.525  19.044 -0.1321  0.0506  0.0240
13478W        W56395  25.953  32.940  18.534 -0.2487  0.0179 -0.0503
13479W        W56396  25.619  33.904  17.521  0.0694  0.2597  0.0385
13480W        W56397  22.084  32.370  17.221  0.1561  0.0068  0.5041
13481W        W56398  24.275  32.608  16.801  0.1929  0.1346  0.0557
13482W        W56399  25.200  32.866  18.045 -0.2781 -0.0957  0.0821
13483W        W56400  24.684  30.936  17.361 -0.0375  0.1672  0.0292
13484W        W56401  23.549   0.128  16.430  0.0935  0.0526  0.0510
13485W        W56402  23.556   2.510  18.125  0.0636 -0.2465  0.5199
13486W        W56403  22.819  34.517  18.949 -0.5603  0.0606  0.3124
13487W        W56404  20.544   0.210  17.607  0.0061  0.2632  0.4419
13488W        W56405  20.862  34.280  20.250  0.3218  0.2828 -0.3330
13489W        W56406  23.632   1.218  19.730 -0.0153 -0.0017 -0.1704
13490W        W56407  22.542  33.773  17.013 -0.0142 -0.0378 -0.1975
13491W        W56408  25.819  33.553  18.443 -0.2838  0.0104 -0.1352
13492W        W56409  24.353  32.610  16.261 -0.0719  0.1078 -0.1200
13493W        W56410  23.747  32.898  19.149  0.0529  0.0745 -0.0496
13494W        W56411  25.190  34.350  17.245  0.0797 -0.1613 -0.3527
13495W        W56412  22.061  32.673  19.073  0.0416 -0.2368 -0.0629
13496W        W56413  21.482  33.360  18.390  0.2540  0.0292 -0.2663
13497W        W56414  23.249  32.861  18.383  0.0358 -0.0013  0.2249
13498W        W56415  21.002   0.058  18.027  0.3292 -0.0819  0.4035
13499W        W56416  24.921  34.535  22.058 -0.0751  0.2721 -0.0239
13500W        W56417  26.077  34.179  16.952  0.2796  0.5484  0.2814
13501W        W56418  21.290   1.665  19.248 -0.1185 -0.1084  0.1522
13502W        W56419  21.745   0.970  18.331  0.1651 -0.1017  0.2987
13503W        W56420  20.638  32.255  19.692  0.0146 -0.1323 -0.2058
13504W        W56421  20.597  33.887  18.089 -0.2784 -0.2640 -0.0463
13505W        W56422  24.904  33.491  21.156 -0.0297  0.2032  0.0853
13506W        W56423  21.475  31.852  16.599 -0.1681 -0.0441  0.0627
13507W        W56424  21.608   0.043  17.271  0.1755 -0.0231 -0.0321
13508W        W56425  21.641   0.555  18.529 -0.1317  0.0108 -0.2953
13509W        W56426  25.224  32.182  20.007 -0.1654  0.1237 -0.1745
13510W        W56427  22.389  33.386  18.487  0.1444  0.3363 -0.0636
13511W        W56428  23.455  34.182  17.346  0.1996  0.3476  0.2109
13512W        W56429  22.519  32.997  16.317  0.2902 -0.1909 -0.0432
13513W        W56430  24.687  32.539  20.768  0.2141  0.3461 -0.2825
13514W        W56431  24.975  33.737  17.854  0.2801  0.0735 -0.0200
13515W        W56432  22.098   0.018  16.941  0.1847  0.0118 -0.1416
13516W        W56433  19.912   1.447  16.869  0.2848 -0.2222 -0.2376
13517W        W56434  23.283  34.458  16.967 -0.1467 -0.1912 -0.1376
13518W        W56435  21.947  34.168  22.048  0.1973 -0.3531  0.0025
13519W        W56436  24.530  31.474  19.444  0.1176 -0.0222 -0.1115
13520W        W56437  21.303   1.137  16.277 -0.1569  0.4336  0.0341
13521W        W56438  23.834  32.413  16.420 -0.1044 -0.0164 -0.2883
13522W        W56439  22.193   0.130  18.033 -0.3333 -0.7793  0.1182
13523W        W56440  23.865  34.251  17.673 -0.0477 -0.2286 -0.0282
13524W        W56441  24.821  33.433  17.368 -0.2222 -0.2943 -0.1144
13525W        W56442  24.161  33.793  17.397 -0.1897  0.1885  0.0908
13526W        W56443  24.287  31.990  18.267  0.1802  0.0620 -0.1459
13527W        W56444  23.700  33.604  17.015 -0.0543  0.0462  0.2077
13528W        W56445  24.077  33.801  17.876 -0.0464 -0.2192 -0.3043
13529W        W56446  24.500   0.908  18.777 -0.2369  0.0126 -0.0728
13530W        W56447  24.151  32.409  17.915  0.0260  0.2409 -0.0389
13531W        W56448  23.144  32.194  18.178  0.0814  0.2326 -0.0477
13532W        W56449  24.424  32.147  20.522 -0.1565 -0.0291 -0.0058
13533W        W56450  25.691  34.098  18.704  0.0369 -0.0453  0.2020
13534W        W56451  24.156   1.826  17.729 -0.0272  0.0444 -0.1360
13535W        W56452  22.592   0.005  17.272  0.0607  0.1514  0.2040
13536W        W56453  22.702  32.411  19.762 -0.1497  0.1167  0.1132
13537W        W56454  23.345  33.768  20.679 -0.1592 -0.1240  0.1028
13538W        W56455  23.142  33.789  18.194 -0.1826 -0.0199  0.0258
13539W        W56456  23.298  32.742  17.597 -0.1656 -0.2062  0.2516
13540W        W56457  23.026  33.101  17.954  0.1134  0.0766 -0.2750
13541W        W56458  22.828  34.176  17.571  0.2341  0.1215 -0.1784
13542W        W56459  21.481  33.888  16.614  0.4160 -0.1823 -0.1223
13543W        W56460  24.839  33.436  19.273  0.0329 -0.0474  0.2353
13544W        W56461  22.065   1.509  19.784 -0.0532  0.2567 -0.0142
13545W        W56462  24.431  32.292  18.982  0.3111  0.0981  0.0964
13546W        W56463  24.669   0.901  18.300 -0.0371 -0.2325 -0.0227
13547W        W56464  24.467  33.605  17.041 -0.3197 -0.0299 -0.3672
13548W        W56465  22.994   0.592  19.679 -0.0764 -0.4083 -0.1462
13549W        W56466  20.676  33.716  17.148 -0.1146  0.2184 -0.0006
13550W        W56467  25.997   1.388  18.815 -0.0740  0.3439 -0.0992
13551W        W56468  21.976  33.115  18.799  0.1756  0.1040  0.0484
13552W        W56469  23.945   0.454  16.950  0.0157  0.3071  0.1707
13553W        W56470  23.743  32.835  20.832  0.2917  0.1823  0.1916
13554W        W56471  21.898  34.647  18.660  0.2213  0.0212  0.3881
13555W        W56472  21.808  32.927  17.062  0.0693  0.3135 -0.0448
13556W        W56473  23.883  34.010  19.615 -0.0210  0.0176 -0.0861
13557W        W56474  23.720  30.540  18.819  0.0885 -0.1941  0.2669
13558W        W56475  22.557  31.306  21.003  0.3436 -0.0310  0.0682
13559W        W56476  24.787  34.351  20.162 -0.1853  0.0116 -0.2427
13560W        W56477  23.035  33.698  19.267 -0.2356 -0.0699  0.2485
13561W        W56478  24.258  32.900  17.770 -0.1046 -0.2967  0.2277
13562W        W56479  24.178   0.468  17.544  0.0958  0.0427 -0.1545
13563W        W56480  25.971   0.321  18.471  0.1660  0.2266 -0.1068
13564W        W56481  24.361  33.930  16.125  0.0129 -0.0168  0.1499
13565W        W56482  23.095  31.932  20.406 -0.0987 -0.2720 -0.0896
13566W        W56483  23.004  33.662  20.274 -0.0421  0.0355  0.1926
13567W        W56484  20.794  32.558  19.364 -0.1544 -0.1049 -0.0931
13568W        W56485  22.301   2.072  20.536 -0.0540  0.2925  0.0666
13569W        W56486  24.280  33.439  16.382 -0.2457  0.2572 -0.0916
13570W        W56487  23.634  33.769  17.522  0.1088  0.3106  0.3337
13571W        W56488  22.977  34.390  18.050  0.2370  0.0318 -0.1214
13572W        W56489  25.291   1.746  19.487 -0.2904  0.0985 -0.2215
13573W        W56490  21.642   1.354  19.074  0.0581  0.1009 -0.1991
13574W        W56491  24.062  32.610  18.691  0.2373  0.3871  0.0109
13575W        W56492  20.264  33.378  20.718 -0.1336  0.0237 -0.4097
13576W        W56493  20.110   1.136  18.811 -0.0653  0.3861  0.3189
13577W        W56494  22.805  32.694  19.168 -0.3405  0.2673 -0.2433
13578W        W56495  24.350  33.158  18.594  0.2832  0.0081 -0.0086
13579W        W56496  21.101   0.119  19.295  0.3014  0.2493 -0.1820
13580W        W56497  22.548  32.969  19.885 -0.0914 -0.1657 -0.0345
13581W        W56498  24.527  33.659  18.610  0.1633  0.5393  0.3085
13582W        W56499  24.415  33.446  17.687 -0.0826  0.1180  0.0844
13583W        W56500  23.566   0.751  16.985  0.0636  0.0201  0.0122
13584W        W56501  23.849   0.352  17.936 -0.0929  0.0831  0.1393
13585W        W56502  19.440   1.701  19.094  0.1283 -0.0487  0.1246
13586W        W56503  25.476   0.031  18.941  0.2580 -0.0045 -0.0667
13587W        W56504  23.378  34.114  17.874 -0.0390 -0.0449  0.1333
13588W        W56505  24.599  34.228  17.988  0.1768 -0.0908  0.2533
13589W        W56506  21.127  33.681  18.178 -0.0632  0.1760  0.2142
13590W        W56507  22.252  33.910  17.734  0.0880  0.3810 -0.0832
13591W        W56508  23.832  34.084  18.192 -0.1213 -0.0731  0.0387
13592W        W56509  25.250   0.622  16.102  0.0262  0.1233  0.0040
13593W        W56510  23.611  33.991  16.694  0.1744  0.0439  0.0389
13594W        W56511  27.185  31.339  18.797 -0.0557 -0.2471 -0.0284
13595W        W56512  23.477  32.553  18.028 -0.2175  0.1219 -0.1151
13596W        W56513  23.275  31.595  19.202 -0.2072  0.4034  0.6409
13597W        W56514  25.236  32.942  19.341  0.0577  0.3195  0.0290
13598W        W56515  22.714  33.953  17.990 -0.2486 -0.1696  0.2050
13599W        W56516  25.543  32.661  21.083 -0.0522  0.2150  0.2601
13600W        W56517  23.334   1.287  17.590  0.1278  0.0860  0.1572
13601W        W56518  21.606  33.779  21.370 -0.4533 -0.2758  0.1746
13602W        W56519  22.538  32.390  17.015  0.0104 -0.0862  0.1122
13603W        W56520  22.724   0.207  17.992 -0.0461  0.0424 -0.0692
13604W        W56521  25.626  31.481  17.075 -0.1179  0.0091 -0.1782
13605W        W56522  25.102  34.180  18.955  0.1386 -0.0280  0.0964
13606W        W56523  25.754  32.777  16.591  0.1826 -0.0491  0.3561
13607W        W56524  23.593  33.816  18.539  0.0781 -0.4508 -0.0566
13608W        W56525  23.804  33.719  16.325 -0.1259  0.1334  0.2345
13609W        W56526  22.142  32.825  21.355  0.1102 -0.1917 -0.0183
13610W        W56527  23.548  31.328  21.262 -0.0990  0.1804  0.2745
13611W        W56528  21.474  33.405  16.857  0.1505  0.2908  0.0489
13612W        W56529  23.096  34.636  17.404 -0.1775  0.2465  0.2183
13613W        W56530  26.141  32.113  16.592 -0.0236  0.1253 -0.0266
13614W        W56531  24.181  34.243  19.128  0.1821  0.0735 -0.2418
13615W        W56532  20.652  33.285  17.553  0.1920  0.0031 -0.0684
13616W        W56533  23.601   0.175  19.103 -0.0969 -0.1636 -0.3121
13617W        W56534  24.221  32.833  19.107  0.1237  0.0649  0.6218
13618W        W56535  25.127  32.796  18.806  0.3409  0.2548 -0.2574
13619W        W56536  24.354  34.448  17.496  0.0514  0.1203  0.3365
13620W        W56537  26.396  34.131  17.873 -0.1650 -0.1207 -0.2831
13621W        W56538  23.870  34.609  18.188  0.0432  0.1145  0.0691
13622W        W56539  21.317  33.942  17.817  0.0003  0.0009  0.0911
13623W        W56540  25.037  32.283  18.753 -0.3306 -0.0237  0.0640
13624W        W56541  26.538  33.935  17.029 -0.0235 -0.2010  0.3255
13625W        W56542  22.391  33.282  17.140  0.1709 -0.1772 -0.0903
13626W        W56543  23.420  34.372  18.342  0.1610 -0.0314  0.0793
13627W        W56544  23.680  33.295  16.638  0.1206  0.0494 -0.0449
13628W        W56545  21.578  34.250  18.442 -0.3398  0.1526  0.2816
13629W        W56546  21.277   0.059  16.120  0.1640  0.0052 -0.1347
13630W        W56547  24.479  32.474  17.437  0.2290  0.1515  0.0880
13631W        W56548  24.955  33.736  17.001  0.0988  0.1080  0.2390
13632W        W56549  21.525   0.040  20.410 -0.1659 -0.1346 -0.2443
13633W        W56550  21.100  34.046  18.778  0.1372 -0.0247 -0.1184
13634W        W56551  21.127  33.738  16.874 -0.1642  0.1327  0.1515
13635W        W56552  27.881  33.335  17.762  0.2175 -0.0757 -0.0037
13636W        W56553  26.320   0.271  18.096  0.2223  0.0143 -0.0043
13637W        W56554  25.223  32.872  20.751  0.1433  0.0184 -0.2518
13638W        W56555  24.612  34.280  18.788 -0.0250 -0.4362 -0.1305
13639W        W56556  22.744  33.729  18.474 -0.0979  0.0294  0.2836
13640W        W56557  24.790  34.532  21.052 -0.0623 -0.0196 -0.1325
13641W        W56558  25.271  33.370  17.090  0.2422 -0.0930  0.1246
13642W        W56559  22.941  34.257  21.858 -0.1702 -0.0816 -0.0133
13643W        W56560  21.717   0.404  16.971  0.0537  0.3306  0.3329
13644W        W56561  22.599  34.148  19.814 -0.0221 -0.0772 -0.1981
13645W        W56562  20.605  34.023  18.990  0.2128 -0.1655 -0.3922
13646W        W56563  23.195   2.093  17.472  0.2695 -0.0764 -0.2053
13647W        W56564  21.731   0.075  18.207 -0.0594  0.0322  0.0766
13648W        W56565  20.327   1.672  20.149 -0.0258 -0.2915  0.3436
13649W        W56566  21.908  33.807  16.390  0.0142  0.2524 -0.0818
13650W        W56567  23.573  32.565  17.218  0.0830  0.0008 -0.0241
13651W        W56568  21.792  33.690  17.638  0.0912 -0.1892 -0.0575
13652W        W56569  22.902   0.691  18.040 -0.1248 -0.0787 -0.0140
13653W        W56570  21.172  31.442  18.595 -0.1336  0.1272 -0.3450
13654W        W56571  23.651  33.800  19.132  0.1575 -0.1535 -0.3802
13655W        W56572  21.725  31.486  18.421  0.3966 -0.1186 -0.4535
13656W        W56573  23.987  33.313  17.896  0.3360  0.1426  0.1006
13657W        W56574  23.815   0.383  16.116  0.1063 -0.3726  0.2360
13658W        W56575  22.077  33.979  19.940 -0.4123 -0.1403 -0.0539
13659W        W56576  22.613  33.403  18.047  0.1841 -0.0184 -0.0803
13660W        W56577  24.675   0.274  16.759  0.0384  0.1224 -0.1710
13661W        W56578  20.408   1.280  19.568  0.0119  0.2540 -0.0671
13662W        W56579  22.190  33.357  16.193  0.0611  0.0216 -0.2066
13663W        W56580  26.378   0.029  20.923  0.1195  0.1217  0.0509
13664W        W56581  22.006  34.297  18.157  0.0167 -0.1147  0.0761
13665W        W56582  24.751  34.110  16.692  0.2509  0.2875 -0.2373
13666W        W56583  22.819  32.750  20.583 -0.1620 -0.1612 -0.1138
13667W        W56584  22.433   0.476  18.929  0.3037  0.0594  0.0256
13668W        W56585  22.348   0.427  17.725 -0.1980  0.1602  0.1590
13669W        W56586  25.517   0.100  20.177 -0.0233  0.1648 -0.1257
13670W        W56587  22.847  34.238  18.517  0.1953  0.1083  0.2032
13671W        W56588  22.907  33.377  17.083 -0.1558 -0.1755 -0.2587
13672W        W56589  23.924  33.283  18.886 -0.0906 -0.1943 -0.0528
13673W        W56590  24.163  33.153  19.996  0.1795 -0.1002  0.0226
13674W        W56591  24.472  34.610  20.452  0.1845 -0.0579  0.3055
13675W        W56592  21.579  33.373  23.642 -0.3703 -0.0121 -0.1335
13676W        W56593  22.934  32.640  21.543  0.2534  0.3775 -0.0650
13677W        W56594  25.400  33.727  21.195 -0.0986  0.4490  0.0748
13678W        W56595  22.361  31.913  23.190 -0.2200  0.0197 -0.0093
13679W        W56596  23.895  32.980  20.385  0.1185  0.0173 -0.1097
13680W        W56597  19.235  33.456  21.834 -0.1150  0.1901 -0.0824
13681W        W56598  23.907   0.205  22.744 -0.2647 -0.1467 -0.1399
13682W        W56599  23.430  34.216  19.689 -0.3437  0.1012  0.2791
13683W        W56600  22.402   0.763  22.774  0.0431  0.0130  0.3927
13684W        W56601  23.504  34.167  20.880 -0.2835  0.1861  0.1913
13685W        W56602  24.052  31.712  23.745  0.2482 -0.1963  0.0168
13686W        W56603  24.836  34.270  23.606  0.1410  0.1616  0.0384
13687W        W56604  23.607  33.060  19.716  0.0596  0.1180  0.0649
13688W        W56605  22.430  34.398  21.883  0.1610  0.0648  0.1513
13689W        W56606  23.983  33.339  21.138  0.0915 -0.1567  0.1124
13690W        W56607  23.664  31.932  22.673  0.2457 -0.2609 -0.2501
13691W        W56608  23.777  32.472  21.792  0.0521 -0.3419 -0.4733
13692W        W56609  22.936  34.230  23.272 -0.2878  0.0339 -0.2543
13693W        W56610  23.383   0.396  22.865  0.6371  0.0701  0.0140
13694W        W56611  24.282  34.179  20.957  0.3424 -0.2380 -0.0466
13695W        W56612  25.789   1.623  25.390 -0.0874 -0.4074  0.1834
13696W        W56613  24.532  33.656  20.743  0.1892  0.0888 -0.1359
13697W        W56614  23.121  32.194  19.597 -0.1836  0.0265  0.3068
13698W        W56615  24.122  33.676  19.384 -0.0473  0.0384 -0.0658
13699W        W56616  23.856  33.124  23.463  0.0314  0.1316 -0.1242
13700W        W56617  22.158  34.293  25.164  0.1546 -0.2536 -0.4514
13701W        W56618  22.752  33.952  18.937 -0.1151  0.1589 -0.0695
13702W        W56619  23.203  33.606  22.136  0.0808  0.0442 -0.0584
13703W        W56620  20.482  34.500  23.629 -0.3941  0.2524  0.0439
13704W        W56621  22.065  32.509  20.956 -0.2378 -0.1960 -0.0025
13705W        W56622  22.360   0.732  24.248 -0.1572 -0.1456  0.1385
13706W        W56623  22.125  34.581  23.237 -0.1520 -0.0539 -0.0256
13707W        W56624  21.725  32.364  18.167 -0.1315  0.0334  0.1165
13708W        W56625  23.042  32.821  21.048  0.0113 -0.0654  0.2644
13709W        W56626  23.972  32.071  20.285 -0.2595  0.0168 -0.0569
13710W        W56627  25.486  31.969  22.581 -0.2631  0.0597  0.2106
13711W        W56628  24.630  33.349  20.082 -0.0250 -0.1038  0.1914
13712W        W56629  23.955  34.200  23.669  0.0897  0.1614 -0.1923
13713W        W56630  20.226  32.165  23.680 -0.0474 -0.1379  0.1156
13714W        W56631  23.960  32.470  21.314 -0.2169 -0.2774  0.3203
13715W        W56632  20.339  33.778  23.094 -0.0326 -0.2456 -0.0792
13716W        W56633  25.255  31.433  21.706 -0.1944  0.0003  0.0664
13717W        W56634  25.368  33.290  21.000  0.1679  0.0961  0.1262
13718W        W56635  20.725  34.352  22.825 -0.1042 -0.1949 -0.3409
13719W        W56636  22.288  34.044  21.506  0.1258 -0.0644 -0.3342
13720W        W56637  22.177  33.696  25.185 -0.0844  0.1911 -0.1156
13721W        W56638  22.458  33.314  23.804 -0.2429  0.0754 -0.0324
13722W        W56639  25.116  33.808  23.595  0.0727 -0.2698  0.2686
13723W        W56640  21.206  32.927  20.860  0.4344 -0.0669 -0.3636
13724W        W56641  23.357  33.145  22.197  0.1783 -0.2196  0.1402
13725W        W56642  23.576  34.181  20.414 -0.3752  0.1026 -0.0861
13726W        W56643  25.343  33.791  22.960  0.0337  0.0486  0.1903
13727W        W56644  22.513  33.768  22.626 -0.4669  0.2903 -0.0024
13728W        W56645  22.284  32.266  19.535  0.1595  0.0035  0.2001
13729W        W56646  22.983  34.097  20.858  0.1547  0.1375  0.1918
13730W        W56647  23.445  33.416  23.614  0.2618 -0.0339  0.3758
13731W        W56648  22.303  31.929  23.996  0.2863  0.1517  0.0246
13732W        W56649  21.709  32.241  20.701  0.2215  0.1570  0.2768
13733W        W56650  22.654  33.635  23.225 -0.3240  0.3616 -0.3204
13734W        W56651  27.498  33.307  21.802  0.3325 -0.2569 -0.1793
13735W        W56652  23.875   1.264  22.668 -0.3644 -0.0458 -0.2271
13736W        W56653  23.556  34.525  23.176  0.1933 -0.0182  0.1489
13737W        W56654  22.751  33.890  21.288 -0.4969  0.0417  0.1430
13738W        W56655  21.266  32.813  21.862  0.1254  0.2362  0.2464
13739W        W56656  23.021  31.427  20.596  0.0257 -0.0831  0.1110
13740W        W56657  24.485  31.729  19.032 -0.0106  0.1944 -0.0315
13741W        W56658  23.481  31.462  20.813  0.1498 -0.1403 -0.2154
13742W        W56659  24.158   0.190  19.225 -0.2227 -0.0469  0.3322
13743W        W56660  23.717  33.620  22.174 -0.0794  0.3945  0.2495
13744W        W56661  22.091   0.039  17.511  0.1006  0.2311  0.0392
13745W        W56662  22.741  33.490  22.243 -0.3110  0.1589  0.0737
13746W        W56663  23.309  33.791  22.551 -0.0068  0.4322  0.0009
13747W        W56664  24.028  32.682  19.930  0.0389 -0.1712 -0.0129
13748W        W56665  24.054  33.266  22.944 -0.1056  0.1611  0.1831
13749W        W56666  26.244  34.334  20.218  0.0459 -0.2480  0.0090
13750W        W56667  23.909  31.493  21.778 -0.0223 -0.3225  0.2566
13751W        W56668  23.815  33.993  23.190  0.2413  0.0805 -0.2870
13752W        W56669  24.798   1.426  18.760 -0.0361 -0.0215 -0.0878
13753W        W56670  24.478  33.869  23.601  0.0697 -0.2366  0.0176
13754W        W56671  23.227  34.579  26.358  0.0384 -0.2820  0.0033
13755W        W56672  20.572  33.851  20.908 -0.1773 -0.2241  0.1035
13756W        W56673  22.946  34.162  24.274 -0.1625 -0.2455  0.2283
13757W        W56674  25.449  33.876  22.340  0.0177 -0.0856 -0.3170
13758W        W56675  23.023  32.824  19.637  0.1849 -0.2072 -0.0206
13759W        W56676  21.808  34.597  20.010 -0.1618 -0.0315 -0.0755
13760W        W56677  23.817  33.524  19.866 -0.1047 -0.0424 -0.2540
13761W        W56678  22.081  33.441  23.434 -0.3375  0.1252  0.0230
13762W        W56679  23.625  33.917  21.645 -0.0341  0.0576 -0.2724
13763W        W56680  23.729  34.092  22.388  0.3012  0.2907 -0.0369
13764W        W56681  26.192  31.011  21.043 -0.3001 -0.1526 -0.2129
13765W        W56682  24.541   1.741  23.303 -0.2122  0.2646  0.0251
13766W        W56683  23.068  33.323  18.399  0.0663 -0.0517  0.3064
13767W        W56684  26.168  34.473  23.148  0.0986  0.3130 -0.1587
13768W        W56685  22.527  32.490  21.178  0.0686  0.1856  0.1839
13769W        W56686  22.546  32.261  20.278  0.1122  0.1407  0.0370
13770W        W56687  22.336   1.463  23.024  0.2052 -0.1517 -0.1128
13771W        W56688  23.266  32.570  23.908  0.0497  0.0597 -0.1686
13772W        W56689  21.993  32.118  20.083  0.3061  0.2363 -0.0552
13773W        W56690  23.509   0.389  22.341  0.0294  0.0266  0.3428
13774W        W56691  22.421  33.853  23.639  0.2032  0.0564 -0.0063
13775W        W56692  22.072  32.903  22.430  0.0258 -0.0626 -0.0153
13776W        W56693  22.283   0.178  23.838  0.1824  0.1392 -0.0717
13777W        W56694  23.460  32.907  22.976  0.0745 -0.1165 -0.0480
13778W        W56695  26.606  32.202  20.140 -0.1015  0.0821  0.0321
13779W        W56696  21.840  32.269  21.340  0.2317  0.2422 -0.0283
13780W        W56697  26.251  33.720  22.030 -0.3695 -0.0793 -0.0118
13781W        W56698  25.280  32.619  20.314 -0.0263 -0.1202 -0.1601
13782W        W56699  23.727  33.614  24.431 -0.1331 -0.1620 -0.0055
13783W        W56700  22.168  33.614  24.203 -0.1372 -0.2252  0.1373
13784W        W56701  23.916   0.765  22.742  0.0882  0.2337 -0.2393
13785W        W56702  24.162   1.352  24.527 -0.2883 -0.1744 -0.0053
13786W        W56703  24.521  32.450  21.202  0.1516  0.1826 -0.1343
13787W        W56704  21.513  33.831  20.250 -0.0917 -0.1168  0.0712
13788W        W56705  23.208  33.307  23.219 -0.2274 -0.0139  0.2284
13789W        W56706  24.315  31.190  21.715  0.0280 -0.0589  0.2877
13790W        W56707  22.449   1.223  21.449  0.0862 -0.3549 -0.3169
13791W        W56708  24.786  33.736  20.293  0.0025 -0.0986 -0.2096
13792W        W56709  22.951  33.558  23.620 -0.1755 -0.1330  0.0431
13793W        W56710  24.141  32.138  22.665 -0.0073  0.0797  0.3172
13794W        W56711  24.327  32.464  23.214 -0.1353  0.0543  0.0086
13795W        W56712  24.734  33.983  24.366  0.2071  0.0986  0.2026
13796W        W56713  22.952   0.807  25.949 -0.1188  0.4281  0.0026
13797W        W56714  22.732   1.229  22.826 -0.1520  0.0210 -0.1720
13798W        W56715  27.012  33.073  20.113 -0.1288 -0.2841 -0.1130
13799W        W56716  24.553  33.173  22.617 -0.1552 -0.0332 -0.0290
13800W        W56717  23.378  34.159  22.041  0.1626 -0.2318 -0.0988
13801W        W56718  23.096  33.783  21.708 -0.1027  0.1074 -0.0230
13802W        W56719  22.465  33.128  23.164  0.2211  0.1213  0.3442
13803W        W56720  23.926   0.681  23.392 -0.0659 -0.0243 -0.3048
13804W        W56721  24.304  32.986  21.302 -0.0772  0.4582 -0.0726
13805W        W56722  25.311   0.893  25.570  0.3120  0.0907 -0.0275
13806W        W56723  23.311  31.865  21.389  0.0929  0.2034 -0.1274
13807W        W56724  20.245  31.968  23.243 -0.2587  0.0081  0.1701
13808W        W56725  24.835  32.450  19.228  0.1102  0.1947  0.2176
13809W        W56726  24.253  33.194  20.748 -0.1183 -0.5644 -0.1486
13810W        W56727  22.938  33.406  21.409 -0.0239 -0.0758  0.1454
13811W        W56728  23.759   0.501  26.815 -0.0447 -0.1046 -0.0082
13812W        W56729  23.082  32.246  22.753 -0.0278 -0.0361 -0.0053
13813W        W56730  22.896  32.520  23.473  0.1378 -0.0852  0.1633
13814W        W56731  23.704  32.979  22.535 -0.0616  0.0354 -0.0486
13815W        W56732  25.869  33.072  22.283  0.0835 -0.0564  0.0675
13816W        W56733  24.777   0.697  25.351  0.1707 -0.0376 -0.0144
13817W        W56734  23.881  33.022  22.015  0.2786 -0.1818  0.0163
13818W        W56735  21.756  33.583  24.498 -0.1414 -0.0060 -0.0379
13819W        W56736  19.551  33.181  21.552  0.0637  0.0770 -0.0830
13820W        W56737  22.310  33.786  18.994  0.0677  0.1352 -0.0486
13821W        W56738  27.127  33.655  21.813 -0.0636 -0.0930 -0.3344
13822W        W56739  24.108  34.615  22.354 -0.1944 -0.0880 -0.1104
13823W        W56740  25.385  34.322  21.759  0.1741  0.1113  0.0144
13824W        W56741  21.684  33.354  20.685  0.1182 -0.0152  0.1356
13825W        W56742  23.096  32.444  20.241 -0.3592 -0.1553  0.0222
13826W        W56743  23.889  33.312  23.941  0.2057  0.2223  0.0422
13827W        W56744  25.184  33.292  24.827 -0.1699  0.4078  0.0917
13828W        W56745  22.907  34.076  22.783  0.0414  0.2429  0.0076
13829W        W56746  22.229   0.778  22.308 -0.1446  0.3034 -0.0741
13830W        W56747  24.569  32.105  21.602 -0.1839  0.2627  0.2115
13831W        W56748  22.960  32.675  22.038 -0.0532 -0.2079  0.1272
13832W        W56749  23.540   0.733  21.729 -0.0669 -0.1214  0.0298
13833W        W56750  23.342  32.440  23.091  0.1203 -0.1766 -0.0962
13834W        W56751  21.913   0.605  21.934 -0.0411 -0.0613 -0.0912
13835W        W56752  23.982  32.584  22.246  0.1532  0.3671  0.1120
13836W        W56753  23.757  34.306  21.296 -0.0174  0.0051  0.3295
13837W        W56754  26.057  33.977  21.068 -0.2214  0.0272 -0.0136
13838W        W56755  22.170  32.394  22.215  0.1595 -0.0553 -0.2516
13839W        W56756  23.737  34.465  19.984 -0.0749 -0.2967  0.0765
13840W        W56757  24.534   0.271  22.317 -0.1824 -0.0079 -0.1194
13841W        W56758  24.011  33.465  21.675 -0.1631  0.0683  0.1265
13842W        W56759  22.915   0.395  21.097  0.0349  0.1788  0.2753
13843W        W56760  25.314   0.968  20.097 -0.1139  0.1467  0.1815
13844W        W56761  23.245  34.036  18.822 -0.0058 -0.1477  0.3712
13845W        W56762  23.060   0.486  23.274 -0.1084  0.0033 -0.1263
13846W        W56763  21.302  32.083  21.304 -0.1012  0.1220  0.0841
13847W        W56764  24.680  34.456  22.517 -0.0018  0.0904 -0.0338
13848W        W56765  24.356  33.674  22.038  0.2043 -0.0633  0.2322
13849W        W56766  23.371  34.155  24.094 -0.1594  0.1715 -0.1377
13850W        W56767  21.492  31.538  21.446  0.2889 -0.3330  0.3206
13851W        W56768  22.655   0.993  22.331 -0.0911  0.1504  0.3807
13852W        W56769  23.482  32.626  22.142  0.2857 -0.2080  0.1222
13853W        W56770  25.026  30.957  23.508  0.0326  0.2005 -0.1537
13854W        W56771  25.708  34.616  21.994 -0.0066 -0.2687  0.0219
13855W        W56772  23.015  32.310  21.184 -0.0276 -0.0423  0.2755
13856W        W56773  21.109  32.365  20.101 -0.0485 -0.0829  0.0770
13857W        W56774  27.342  34.421  19.356  0.0495 -0.1035  0.0002
13858W        W56775  25.633  34.560  21.106  0.1617  0.0803  0.2609
13859W        W56776  23.532   3.219  21.266  0.0350  0.2292  0.2285
13860W        W56777  20.800  34.491  17.532 -0.4601 -0.1751  0.2215
13861W        W56778  23.145  32.887  24.491  0.3721  0.1033  0.0255
13862W        W56779  24.280   0.963  23.552  0.0362 -0.1738  0.1929
13863W        W56780  22.940  33.222  21.886  0.1084  0.0341  0.0324
13864W        W56781  23.271  33.847  23.208 -0.0517  0.0864  0.1572
13865W        W56782  22.981  31.535  21.210 -0.0310 -0.1481 -0.0902
13866W        W56783  21.837  33.531  22.719 -0.2256  0.1114  0.0361
13867W        W56784  22.314  31.773  21.860 -0.3537  0.0908 -0.3913
13868W        W56785  23.848  32.257  24.058  0.0070 -0.1160  0.0851
13869W        W56786  22.655  34.514  24.043  0.0598  0.2169 -0.2482
13870W        W56787  20.555  31.682  19.926 -0.0317  0.3792 -0.0957
13871W        W56788  23.275   0.351  23.804  0.0339 -0.2467  0.0967
13872W        W56789  20.386  34.065  22.614 -0.2190 -0.3170  0.1453
13873W        W56790  25.708   0.547  22.977 -0.2734  0.1229  0.2035
13874W        W56791  25.955  33.861  19.944 -0.2704  0.1166 -0.1228
13875W        W56792  21.432  34.136  23.778 -0.2390  0.2654 -0.1147
13876W        W56793  22.261  31.351  21.441 -0.4191 -0.1530  0.2126
13877W        W56794  24.430  33.571  21.223  0.1143  0.3867  0.0287
13878W        W56795  22.080  34.612  21.392 -0.1706  0.0418 -0.0828
13879W        W56796  22.324  32.189  21.554  0.0383 -0.0880  0.2074
13880W        W56797  24.582   1.716  24.857 -0.0940 -0.2668  0.2382
13881W        W56798  24.388  34.126  19.685  0.2754 -0.1420  0.1712
13882W        W56799  24.714  33.075  21.522 -0.0344  0.0430  0.0687
13883W        W56800  21.111  33.734  23.206  0.1584  0.0948  0.0625
13884W        W56801  22.377   0.294  20.429 -0.3720 -0.1837 -0.1836
13885W        W56802  23.377  32.830  21.711  0.1197 -0.0220  0.0172
13886W        W56803  23.824  34.390  24.117 -0.0221  0.1705  0.1691
13887W        W56804  22.007  31.728  21.462 -0.0689  0.0842 -0.3619
13888W        W56805  22.366  31.902  19.853  0.2570 -0.1330  0.1660
13889W        W56806  20.211  34.350  26.471 -0.0757 -0.3183 -0.2843
13890W        W56807  24.696   0.793  24.831  0.0555 -0.2567 -0.2944
13891W        W56808  25.995  34.152  25.372 -0.4188  0.0825  0.1397
13892W        W56809  21.988  34.073  23.316 -0.1676 -0.2719  0.3753
13893W        W56810  23.167  32.938  25.496 -0.4176  0.0201  0.1622
13894W        W56811  23.077   1.069  22.077 -0.1414  0.1628  0.1579
13895W        W56812  22.794  33.872  25.742  0.2030  0.1768  0.1052
13896W        W56813  24.225  34.001  25.313 -0.1231  0.0995  0.0170
13897W        W56814  21.967  33.969  26.195 -0.0492 -0.0085 -0.0680
13898W        W56815  25.584  32.882  26.165  0.3364 -0.1092  0.0802
13899W        W56816  22.801   0.277  23.676  0.1677  0.0973  0.3849
13900W        W56817  23.143  33.579  25.604  0.0697 -0.0857 -0.0017
13901W        W56818  24.573  34.064  24.888  0.2326 -0.0368 -0.1688
13902W        W56819  24.930  32.761  25.763  0.0172  0.0670  0.0668
13903W        W56820  25.847  34.255  25.831  0.1014  0.0081 -0.0424
13904W        W56821  22.774  33.115  24.775 -0.0742  0.1164 -0.1790
13905W        W56822  21.549   0.625  26.612 -0.0688  0.1845 -0.1252
13906W        W56823  23.646   0.081  26.558 -0.3004 -0.3148 -0.2103
13907W        W56824  23.061  32.327  25.467  0.0655  0.0312 -0.0157
13908W        W56825  22.795  33.277  25.274  0.0197  0.1322  0.0329
13909W        W56826  24.943   0.432  26.389  0.0880  0.0419 -0.0762
13910W        W56827  23.578  33.945  25.422  0.1937 -0.1471  0.1320
13911W        W56828  22.478  32.310  25.555  0.1903 -0.2098 -0.0532
13912W        W56829  26.459  32.816  26.842  0.0598  0.1294  0.0008
13913W        W56830  23.904   1.429  25.373  0.4187 -0.1570  0.2075
13914W        W56831  22.809  32.828  23.971 -0.2108  0.1218 -0.2486
13915W        W56832  24.636  33.962  25.781  0.2133 -0.0475 -0.0523
13916W        W56833  20.605  33.688  23.685  0.1834 -0.0402  0.2474
13917W        W56834  23.393  33.447  26.893  0.2119 -0.2069  0.1329
13918W        W56835  19.909  33.156  25.202  0.0920  0.0449  0.1047
13919W        W56836  24.697  33.241  25.808 -0.1141  0.0227 -0.0233
13920W        W56837  22.487  33.705  26.086  0.0695 -0.0811  0.1001
13921W        W56838  20.415   0.346  24.232 -0.0492  0.1741 -0.2799
13922W        W56839  21.791  34.083  27.259 -0.1250 -0.1342  0.1751
13923W        W56840  22.121   0.870  28.413 -0.1988  0.0883 -0.2805
13924W        W56841  21.349   1.227  23.229  0.0464  0.0920  0.3440
13925W        W56842  25.082  30.757  25.531 -0.0442 -0.0673 -0.0194
13926W        W56843  26.070  33.799  25.061  0.0700  0.0026  0.1050
13927W        W56844  24.115  34.398  24.875 -0.4456  0.0051 -0.0330
13928W        W56845  23.118   1.687  23.667 -0.2005  0.4214  0.1106
13929W        W56846  24.199  31.863  27.838 -0.1982  0.1544  0.0000
13930W        W56847  21.027   0.335  26.360 -0.1997 -0.2772 -0.2124
13931W        W56848  23.652  32.953  25.918  0.1673  0.0333  0.0595
13932W        W56849  21.273  33.794  28.547 -0.1515  0.0240  0.2729
13933W        W56850  24.703   0.065  26.124  0.2380 -0.0864  0.0649
13934W        W56851  24.429   1.239  24.056 -0.0761 -0.1175  0.0534
13935W        W56852  22.790  34.481  26.566  0.1370 -0.0331 -0.0434
13936W        W56853  23.864   0.017  24.522  0.1413  0.0944  0.2100
13937W        W56854  21.771  32.148  28.763 -0.0074 -0.1257  0.1189
13938W        W56855  20.493  34.169  24.527 -0.0904 -0.0278 -0.2728
13939W        W56856  25.225  34.395  26.991  0.1309 -0.3024 -0.2511
13940W        W56857  18.289  34.243  22.271 -0.1991 -0.1192 -0.1271
13941W        W56858  23.468  32.575  25.252 -0.2333 -0.0089  0.0968
13942W        W56859  21.715   0.638  24.615 -0.1158 -0.0703  0.0693
13943W        W56860  25.283  32.948  26.618  0.1123  0.1354  0.0470
13944W        W56861  19.744  34.279  30.230 -0.3897 -0.0769 -0.1596
13945W        W56862  22.373  33.136  26.024 -0.1615  0.1237 -0.0141
13946W        W56863  21.223  32.898  26.055  0.1050 -0.1937 -0.4234
13947W        W56864  24.610  33.108  24.957  0.1501  0.1476 -0.3391
13948W        W56865  23.338  34.437  24.490  0.0754  0.1591 -0.1403
13949W        W56866  21.279  32.608  24.211 -0.0072  0.0015 -0.1315
13950W        W56867  20.192   2.115  25.146 -0.1527  0.2512  0.0859
13951W        W56868  22.834  32.775  25.144  0.2824 -0.2060  0.2046
13952W        W56869  22.589  33.962  26.544 -0.3304  0.0638  0.1805
13953W        W56870  24.194   0.133  26.120  0.6509 -0.3114 -0.0192
13954W        W56871  23.436   0.236  24.805 -0.0732  0.0319  0.1914
13955W        W56872  23.911   0.955  23.899  0.0295 -0.2340 -0.1390
13956W        W56873  25.558  33.053  23.052 -0.1190  0.5322  0.0972
13957W        W56874  24.661  32.006  24.229 -0.0749 -0.2254 -0.1126
13958W        W56875  24.942  32.840  22.365 -0.0125 -0.0500  0.1082
13959W        W56876  23.266  32.453  24.826 -0.0141  0.1400  0.0648
13960W        W56877  22.972  32.194  28.254  0.0131 -0.0068  0.1182
13961W        W56878  23.183  34.164  25.810  0.1558 -0.1703  0.0077
13962W        W56879  21.933   0.366  24.278  0.3687 -0.0589  0.1657
13963W        W56880  24.386  33.309  26.830  0.0240 -0.0898 -0.0642
13964W        W56881  24.642  32.835  26.231 -0.1963 -0.2578  0.3463
13965W        W56882  25.985  32.326  23.854  0.1872 -0.1176 -0.1563
13966W        W56883  23.682  34.174  29.270  0.0288  0.0487 -0.0780
13967W        W56884  25.298   0.529  24.230  0.0967 -0.1582 -0.1571
13968W        W56885  25.341   0.757  26.258  0.0965  0.1091  0.1296
13969W        W56886  24.724  34.390  23.152 -0.2764  0.1090 -0.2051
13970W        W56887  25.022  33.655  25.832  0.1294  0.0831  0.4708
13971W        W56888  21.358  33.587  27.165  0.0188  0.0016  0.0157
13972W        W56889  22.568  34.356  24.540  0.1919  0.0069  0.1066
13973W        W56890  23.435  32.036  27.160 -0.0217 -0.2782  0.2884
13974W        W56891  25.641  32.286  27.109 -0.0078  0.1280  0.0553
13975W        W56892  21.737  33.847  25.384 -0.1382 -0.3290 -0.1868
13976W        W56893  21.317   1.310  24.999 -0.1184  0.0547  0.0386
13977W        W56894  24.898  32.499  24.919 -0.2100  0.1707  0.0871
13978W        W56895  23.057  33.087  26.611 -0.4418 -0.1139 -0.2239
13979W        W56896  24.953  34.319  27.445 -0.0894  0.0427 -0.1125
13980W        W56897  24.879   0.197  28.370  0.0648  0.0172  0.0835
13981W        W56898  25.299  32.573  24.580 -0.1658 -0.0631 -0.0054
13982W        W56899  22.666   0.274  27.553 -0.2904 -0.0177 -0.1064
13983W        W56900  23.778   0.469  23.837  0.0626  0.0481 -0.1076
13984W        W56901  24.650  33.432  26.273 -0.0438  0.0519  0.1008
13985W        W56902  21.691  33.625  26.500  0.2636 -0.2646  0.0360
13986W        W56903  23.518   1.217  24.840 -0.5304 -0.0644  0.0776
13987W        W56904  22.868  33.155  25.888  0.2318  0.0372  0.4945
13988W        W56905  21.967  32.893  25.719 -0.1982  0.3432  0.1599
13989W        W56906  23.929  34.229  26.461  0.2517  0.0451 -0.2334
13990W        W56907  22.762   0.222  27.045 -0.1394  0.1681  0.0160
13991W        W56908  22.293  33.986  24.759 -0.0044  0.1076 -0.3543
13992W        W56909  23.130  32.195  26.215  0.0054  0.0728 -0.1007
13993W        W56910  23.007  33.620  27.828 -0.2393 -0.3638 -0.3503
13994W        W56911  23.085  34.516  24.925  0.1965  0.2107 -0.1067
13995W        W56912  25.495  32.133  23.909 -0.1662  0.2140 -0.1679
13996W        W56913  22.939  34.604  25.431  0.0805  0.0051  0.1785
13997W        W56914  26.158  31.734  28.202  0.1682 -0.1002 -0.1430
13998W        W56915  25.938  34.574  24.179  0.0150 -0.0387 -0.1106
13999W        W56916  23.944  33.834  26.179  0.2954  0.1050 -0.3874
14000W        W56917  23.942  34.627  28.075 -0.1294 -0.0125  0.0606
14001W        W56918  21.362  33.283  24.807 -0.0611  0.0978 -0.1455
14002W        W56919  20.470   1.801  27.830  0.1291  0.1200  0.0369
14003W        W56920  22.672  33.766  25.278 -0.4808  0.2658  0.0106
14004W        W56921  24.396  33.592  24.946 -0.3051  0.0548 -0.3234
14005W        W56922  23.997   0.089  25.608  0.0290 -0.5385 -0.2915
14006W        W56923  24.914  33.651  24.020  0.0412  0.2187 -0.1396
14007W        W56924  21.272   0.994  25.607 -0.0199 -0.0253  0.0260
14008W        W56925  24.582   0.286  25.658  0.2325 -0.0745  0.3747
14009W        W56926  24.425  33.409  25.366  0.0906  0.0621  0.0350
14010W        W56927  21.143  34.201  25.901 -0.0780  0.1716 -0.1778
14011W        W56928  25.178  32.993  27.131 -0.0668 -0.4327 -0.0982
14012W        W56929  23.006   0.998  25.467 -0.0177 -0.2468 -0.3817
14013W        W56930  23.671  33.081  26.428 -0.5390  0.0379 -0.1719
14014W        W56931  19.844   0.532  28.406  0.0525 -0.0489  0.0269
14015W        W56932  23.953   0.109  23.322  0.1809  0.0367  0.6301
14016W        W56933  26.645  33.495  25.787  0.2477 -0.0486 -0.1193
14017W        W56934  25.348   1.383  25.427 -0.0071 -0.0963  0.1093
14018W        W56935  22.847  34.090  23.750 -0.1247 -0.1120  0.1568
14019W        W56936  20.792  33.770  22.826 -0.0299  0.1483 -0.3265
14020W        W56937  25.445   0.306  26.522  0.2016  0.5442 -0.1606
14021W        W56938  22.877  34.070  24.797  0.0415  0.2008  0.1043
14022W        W56939  23.220  32.689  26.358  0.1015 -0.2427 -0.2101
14023W        W56940  25.475  34.545  24.630  0.1596 -0.2664  0.1262
14024W        W56941  20.174  33.600  24.991  0.3550  0.0356 -0.0309
14025W        W56942  19.604  33.445  23.898 -0.0634 -0.0168 -0.2705
14026W        W56943  22.441  33.084  24.424 -0.0256  0.0530  0.0722
14027W        W56944  23.133  34.565  23.967 -0.2354 -0.1748  0.3526
14028W        W56945  26.213  33.497  26.069 -0.1014  0.1186  0.0017
14029W        W56946  24.563  32.821  27.689 -0.2642  0.4187  0.0770
14030W        W56947  24.848  32.794  28.138  0.1642 -0.1935 -0.2618
14031W        W56948  23.550  33.633  26.408  0.5080  0.1475 -0.0276
14032W        W56949  24.416  34.342  26.184  0.1394 -0.0198 -0.0299
14033W        W56950  27.600   0.688  26.534 -0.0559 -0.0185  0.0902
14034W        W56951  21.891   0.315  26.985  0.2015 -0.1386 -0.0140
14035W        W56952  19.108  32.317  26.321 -0.0563 -0.1241 -0.0013
14036W        W56953  21.490  32.956  25.636  0.0643  0.3295 -0.1393
14037W        W56954  22.425  32.676  21.851 -0.1967  0.1407 -0.0744
14038W        W56955  25.091   0.103  24.353  0.2155  0.1268 -0.0304
14039W        W56956  25.085  32.943  23.779  0.0242 -0.0630 -0.0190
14040W        W56957  25.021  34.142  26.593  0.0116 -0.1364 -0.0058
14041W        W56958  23.669   0.074  27.054  0.2375  0.1290  0.1091
14042W        W56959  23.082  34.058  25.263 -0.0432 -0.0595 -0.0562
14043W        W56960  21.747  32.615  26.119  0.0868 -0.0865 -0.1395
14044W        W56961  25.557  30.940  25.742 -0.5732 -0.0553 -0.0681
14045W        W56962  20.342   0.572  27.200 -0.1369 -0.0991 -0.0801
14046W        W56963  23.853   0.531  24.354 -0.3020 -0.0069 -0.2088
14047W        W56964  25.800  33.856  26.154 -0.2284  0.0957  0.3493
14048W        W56965  24.959  33.237  27.525  0.0256 -0.1645  0.0409
14049W        W56966  22.386   0.810  24.765 -0.0704  0.2138  0.0200
14050W        W56967  25.737  33.369  23.577 -0.2324  0.0048 -0.2280
14051W        W56968  22.371  31.354  26.101 -0.2088  0.0521  0.2229
14052W        W56969  25.078  31.600  26.460 -0.2217  0.3886 -0.1252
14053W        W56970  22.790  33.291  24.168 -0.0401 -0.2354  0.1240
14054W        W56971  22.833  31.965  24.348  0.1191 -0.0857  0.4348
14055W        W56972  22.337  33.034  26.761 -0.1046  0.0097  0.2505
14056W        W56973  23.433  34.649  25.268 -0.1660 -0.2340  0.1305
14057W        W56974  27.097  33.686  26.911 -0.0477 -0.0221  0.0961
14058W        W56975  26.550  33.678  25.059 -0.0029 -0.2369 -0.0484
14059W        W56976  20.521   1.028  24.408  0.2934  0.2360 -0.1156
14060W        W56977  24.816  33.128  24.169 -0.0156  0.2449  0.2341
14061W        W56978  22.583  34.291  25.475  0.2186 -0.1293 -0.0247
14062W        W56979  23.508  34.111  26.277 -0.1494 -0.1737 -0.0357
14063W        W56980  22.305  33.141  25.096 -0.0555  0.2090  0.0489
14064W        W56981  25.884  34.385  24.902  0.4125 -0.0774 -0.2485
14065W        W56982  26.238   0.642  24.437  0.1396  0.0969  0.2511
14066W        W56983  23.041  34.673  27.885  0.0367 -0.0460  0.0453
14067W        W56984  21.931  33.763  23.753  0.2181 -0.2644 -0.2922
14068W        W56985  22.112   0.126  25.184 -0.0615 -0.4628 -0.1452
14069W        W56986  25.257  33.678  25.274  0.2871 -0.0584  0.1786
14070W        W56987  26.085  32.930  27.226  0.1571  0.1991 -0.0481
14071W        W56988  23.171  32.946  27.288  0.0648  0.1148  0.0396
14072W        W56989  24.475  34.394  24.429  0.0197  0.0592 -0.1714
14073W        W56990  21.426  33.128  26.996 -0.2267 -0.0490  0.2995
14074W        W56991  25.438  34.127  24.971  0.0509  0.0013 -0.1521
14075W        W56992  23.690  33.002  25.378 -0.0296  0.1778  0.0341
14076W        W56993  22.290   0.051  26.859  0.0847 -0.0504  0.2852
14077W        W56994  20.738  34.530  25.216  0.2828 -0.1500  0.0479
14078W        W56995  23.429  32.286  26.672  0.2504  0.3825  0.1682
14079W        W56996  22.903  34.148  26.220 -0.0552  0.2089  0.2187
14080W        W56997  21.532   0.215  26.161 -0.0758  0.1248  0.1538
14081W        W56998  20.434   0.262  23.767  0.1567  0.1707 -0.0525
14082W        W56999  22.236  33.514  24.728 -0.0761 -0.0100 -0.0098
14083W        W57000  19.937  33.951  24.708  0.5423 -0.0149 -0.2016
14084W        W57001  24.041  34.052  25.804 -0.1935 -0.0166 -0.1833
14085W        W57002  24.454  32.976  24.486  0.0125 -0.0944  0.3406
14086W        W57003  24.151  33.829  26.649 -0.0130 -0.1035 -0.0256
14087W        W57004  20.605  33.203  24.921 -0.0752  0.3086 -0.2302
14088W        W57005  23.651  34.018  26.830 -0.3269 -0.1947 -0.1687
14089W        W57006  19.688   0.862  26.785  0.2519  0.0240 -0.1894
14090W        W57007  25.459  31.365  25.243 -0.0400  0.2258  0.0601
14091W        W57008  21.832   2.031  24.884  0.2262 -0.0990 -0.0920
14092W        W57009  20.214   0.208  24.968  0.1352  0.0680 -0.1492
14093W        W57010  21.212   0.226  25.453 -0.0495  0.0024  0.2349
14094W        W57011  25.014  33.788  24.858 -0.0686 -0.1409 -0.0767
14095W        W57012  23.225   0.025  25.835  0.0424  0.1513  0.0171
14096W        W57013  23.766  34.088  24.476 -0.0578  0.2234  0.1993
14097W        W57014  23.777  34.487  26.026 -0.1971 -0.0360 -0.1809
14098W        W57015  23.791  32.726  24.812 -0.0038 -0.2337 -0.0409
14099W        W57016  24.890   1.460  24.036  0.1828 -0.1271 -0.0097
14100W        W57017  22.909  31.954  25.753  0.0118 -0.0404  0.0758
14101W        W57018  21.635  34.412  26.337  0.2511 -0.0408 -0.0114
14102W        W57019  22.991   0.310  25.035 -0.0738 -0.0070  0.3587
14103W        W57020  24.162  33.048  25.153  0.0695 -0.0300 -0.1310
14104W        W57021  20.958  34.061  25.215 -0.1072 -0.4004 -0.1440
14105W        W57022  24.760  31.558  24.433  0.0740  0.2657  0.0893
14106W        W57023  23.548  34.338  27.911 -0.0852  0.5408 -0.3138
14107W        W57024  26.462  32.109  28.456 -0.1872 -0.1024  0.4120
14108W        W57025  24.865  32.542  28.892 -0.2399  0.2466  0.1459
14109W        W57026  21.152   0.637  30.336 -0.2322  0.1283  0.3867
14110W        W57027  21.540  34.201  29.947  0.0622 -0.0943  0.1218
14111W        W57028  24.451  33.865  29.213  0.0254  0.2172 -0.0368
14112W        W57029  21.749  32.725  31.863  0.1539 -0.1884 -0.1415
14113W        W57030  23.196  32.844  28.838  0.0689 -0.3474 -0.0883
14114W        W57031  21.071  33.448  29.823 -0.1178 -0.1258 -0.4084
14115W        W57032  23.351  32.837   0.295 -0.2539  0.1809 -0.0016
14116W        W57033  23.720  33.176  28.295 -0.2467  0.1374 -0.2010
14117W        W57034  23.094   0.493  29.396 -0.1600  0.0716 -0.0009
14118W        W57035  22.361  33.553  26.868 -0.0022  0.3144 -0.0264
14119W        W57036  23.459  31.925  30.679 -0.0306  0.0828  0.1746
14120W        W57037  22.090  31.976  29.650 -0.3506  0.0405  0.0028
14121W        W57038  22.273  34.633  27.392  0.0974  0.2132 -0.1754
14122W        W57039  22.255  34.041  30.046  0.0772  0.2018 -0.3202
14123W        W57040  21.734   0.618  31.876 -0.0748 -0.0314  0.1380
14124W        W57041  22.007  32.136  30.153 -0.1197  0.3963  0.0096
14125W        W57042  25.094  32.036  29.113 -0.1079  0.1846 -0.1870
14126W        W57043  24.499  33.437  30.108  0.0703  0.1729 -0.0200
14127W        W57044  23.560  32.448  30.809 -0.0782  0.0869  0.0525
14128W        W57045  23.151  33.921  29.144 -0.0285  0.2091  0.3014
14129W        W57046  23.709  32.122  30.079  0.2850  0.4042 -0.2382
14130W        W57047  24.068   2.292  27.253  0.0839 -0.0833  0.0013
14131W        W57048  24.228   0.155  27.496  0.1017 -0.1536 -0.1458
14132W        W57049  25.984  33.997  27.382 -0.0160  0.2912 -0.0019
14133W        W57050  22.572  33.591  28.734 -0.1164 -0.0773  0.2582
14134W        W57051  21.208   1.478  29.993  0.0035 -0.0412 -0.1049
14135W        W57052  25.398  34.120  28.115  0.1703 -0.2525  0.0850
14136W        W57053  23.405  32.972  29.577  0.3392  0.1570 -0.2199
14137W        W57054  20.628   1.073  31.142 -0.3099 -0.0441 -0.0809
14138W        W57055  21.676   0.318  27.958  0.0163 -0.1738  0.1076
14139W        W57056  23.254  34.185   0.795  0.2480 -0.4011 -0.3669
14140W        W57057  21.221  33.289   1.110  0.3018  0.0608  0.1921
14141W        W57058  23.590  32.516  27.214 -0.3286  0.0309 -0.1477
14142W        W57059  22.712  32.804  28.535 -0.1435  0.2731  0.0434
14143W        W57060  23.692  32.551  27.676 -0.0404 -0.1330 -0.3226
14144W        W57061  23.351  32.703  30.421 -0.2410 -0.1945  0.0830
14145W        W57062  25.287  32.620  28.019 -0.0829  0.0212 -0.0211
14146W        W57063  23.073   1.719  31.669 -0.5160  0.0190 -0.0896
14147W        W57064  20.553  31.823  30.601 -0.1922 -0.1576 -0.0168
14148W        W57065  23.548  34.340  27.291  0.2218  0.1452  0.0004
14149W        W57066  22.184  34.619  30.886  0.3789  0.1630  0.0600
14150W        W57067  21.819  30.895  28.237 -0.1969  0.0969 -0.3271
14151W        W57068  24.143  33.136  27.387 -0.0351  0.0622  0.1848
14152W        W57069  24.245   0.177  29.573 -0.3210 -0.0691 -0.0999
14153W        W57070  22.096   0.503  29.145 -0.1427  0.0180 -0.0660
14154W        W57071  21.857  31.687  31.034  0.2967 -0.0229 -0.2823
14155W        W57072  21.660   0.229  29.075 -0.0454  0.1330  0.0979
14156W        W57073  25.071  33.175  31.036 -0.2156  0.0031  0.4507
14157W        W57074  24.592  34.296  28.752 -0.0742  0.2052  0.0548
14158W        W57075  24.313  32.766  30.466 -0.1939 -0.4168  0.0226
14159W        W57076  23.874   0.482  27.447  0.0175 -0.1385 -0.2917
14160W        W57077  24.376  32.289  29.042 -0.0354  0.0694 -0.1698
14161W        W57078  20.520   0.027  30.820  0.3340  0.2599  0.1873
14162W        W57079  22.639  32.576  28.058  0.2179  0.3748 -0.2886
14163W        W57080  23.431  34.277  28.429  0.2058  0.0630  0.0449
14164W        W57081  23.867  33.317  31.010 -0.0356 -0.1293  0.3013
14165W        W57082  24.039  33.411  26.440 -0.2467  0.1854  0.0222
14166W        W57083  21.783  34.110  27.804 -0.1881  0.0881 -0.0408
14167W        W57084  21.411  34.251  27.588  0.1075 -0.3280  0.1166
14168W        W57085  22.330  32.771  30.601  0.1177  0.0482 -0.0200
14169W        W57086  21.674  34.438   0.194  0.0142  0.0585  0.2580
14170W        W57087  21.745  33.648  28.691  0.2195  0.1080  0.0208
14171W        W57088  24.463   0.626  27.603  0.0896  0.1830 -0.0624
14172W        W57089  23.744  33.314  28.753  0.1956 -0.1601  0.1907
14173W        W57090  25.747  33.219  26.616 -0.3202  0.0230 -0.1263
14174W        W57091  22.616  34.036  27.921  0.2698  0.0675 -0.1172
14175W        W57092  23.461  33.934  27.576 -0.0741 -0.0217 -0.0751
14176W        W57093  23.379  33.371  27.524 -0.2129  0.1919 -0.1649
14177W        W57094  23.497  33.082  30.181  0.2287 -0.2184  0.2979
14178W        W57095  22.814  33.477  27.224  0.0922 -0.1388  0.4560
14179W        W57096  21.911  33.467  29.606 -0.1358  0.0467 -0.0119
14180W        W57097  22.918  33.225  28.618  0.0636 -0.0390 -0.2008
14181W        W57098  24.379  32.374  29.594 -0.0222  0.1850  0.0198
14182W        W57099  24.308  34.023  30.890  0.2456  0.1418  0.0460
14183W        W57100  26.292  34.410  31.690  0.0041  0.2825  0.1466
14184W        W57101  24.734   2.439  28.587  0.4083  0.1481  0.0048
14185W        W57102  23.562  33.606  27.987 -0.1747  0.0430  0.4290
14186W        W57103  25.391  34.230  29.129 -0.1378 -0.1546  0.0269
14187W        W57104  24.288  32.922  31.531  0.0623  0.0895 -0.0003
14188W        W57105  23.051   0.689  31.434  0.1755 -0.2925  0.3291
14189W        W57106  21.259  33.589  30.228  0.0909  0.0057 -0.1485
14190W        W57107  23.787   0.156  29.724 -0.0762 -0.1340  0.2606
14191W        W57108  26.347  31.083  25.958  0.4651 -0.0378  0.3876
14192W        W57109  21.776  32.551  28.426  0.1067  0.0256  0.2007
14193W        W57110  20.908  33.467  28.418 -0.0022 -0.1977 -0.2804
14194W        W57111  24.167  33.411  28.252 -0.0525  0.1015  0.0200
14195W        W57112  21.687  34.120  31.702 -0.0550 -0.1796 -0.1988
14196W        W57113  24.557  32.913  27.131  0.2775 -0.4362  0.4237
14197W        W57114  26.844  33.308  29.555 -0.4926 -0.4016  0.2141
14198W        W57115  24.144  32.987  27.882 -0.2040 -0.1436 -0.0046
14199W        W57116  23.458   1.890  31.345  0.0038  0.0574 -0.0980
14200W        W57117  22.733  31.500  27.035 -0.3601 -0.0536 -0.0052
14201W        W57118  23.542  33.877  28.810  0.0163 -0.1017 -0.0020
14202W        W57119  22.344  34.082  28.676 -0.2023  0.2707 -0.1063
14203W        W57120  23.009  34.236  27.590  0.3099 -0.0708 -0.0777
14204W        W57121  22.356   0.700  29.986  0.0025  0.2834  0.0059
14205W        W57122  23.779  33.321  29.776 -0.2336 -0.0715 -0.0177
14206W        W57123  22.836  34.145  26.968  0.3185 -0.1222  0.0190
14207W        W57124  21.428  34.168  29.436 -0.1583 -0.2243  0.0227
14208W        W57125  22.678  34.398  30.106 -0.2651  0.2296 -0.1549
14209W        W57126  22.904  34.240  29.608  0.1010 -0.1590 -0.0399
14210W        W57127  22.628  34.450  30.754 -0.3084 -0.2379 -0.0781
14211W        W57128  23.941  33.741  30.728 -0.1653  0.0676  0.0159
14212W        W57129  24.616  32.413  27.393  0.0604 -0.0253  0.2251
14213W        W57130  23.509  32.946  30.892  0.0747  0.0735 -0.0013
14214W        W57131  29.694  32.626  29.846  0.0312 -0.3922  0.0623
14215W        W57132  26.568   0.281  26.853 -0.2453  0.2434 -0.2121
14216W        W57133  25.102  30.476  31.213  0.2950  0.2629 -0.2325
14217W        W57134  20.606  34.590  30.027 -0.6446  0.0653  0.0030
14218W        W57135  22.028  34.321  31.299  0.0928 -0.1635 -0.3806
14219W        W57136  22.143   0.239  30.386  0.0329  0.0566  0.0564
14220W        W57137  23.879  32.108  26.463  0.0277 -0.1126 -0.1850
14221W        W57138  22.360  32.831  27.711  0.1089  0.4817  0.0874
14222W        W57139  21.988   2.073  31.005 -0.4535 -0.0786 -0.0871
14223W        W57140  25.258  33.680  28.471 -0.0497  0.2714  0.1243
14224W        W57141  23.750   0.992  30.326 -0.1188 -0.3552  0.2897
14225W        W57142  24.581  33.003  28.846  0.3108 -0.2377 -0.3807
14226W        W57143  22.502  33.400  31.704  0.1305 -0.1640 -0.0585
14227W        W57144  24.350  33.901  28.396  0.0303  0.1624 -0.1126
14228W        W57145  25.136   0.067  31.614  0.2262 -0.1300  0.1105
14229W        W57146  25.922  33.378  31.808  0.2162 -0.1911  0.1744
14230W        W57147  23.306   0.526   0.266 -0.3016 -0.0203  0.2476
14231W        W57148  21.130  33.744  31.819  0.1221  0.3923 -0.0891
14232W        W57149  23.640  33.041  27.803 -0.2898  0.0234  0.2477
14233W        W57150  23.954  34.359  29.781  0.0242 -0.1269 -0.3039
14234W        W57151  25.567  33.310  28.625 -0.3646 -0.0527 -0.1038
14235W        W57152  24.104  32.960  26.205  0.1302 -0.0158  0.1807
14236W        W57153  21.786  32.638  28.951  0.0709  0.0401  0.1263
14237W        W57154  24.295  33.580   0.070  0.0697 -0.1416 -0.1410
14238W        W57155  22.136  32.859  26.375 -0.1072  0.1818 -0.1188
14239W        W57156  26.064  33.470   1.237 -0.0098  0.0953 -0.1808
14240W        W57157  25.116  33.360  28.817  0.1603  0.1083  0.2944
14241W        W57158  20.364   0.063   0.184 -0.2678 -0.2867  0.1075
14242W        W57159  21.911   0.179  26.497  0.2601  0.2870 -0.0422
14243W        W57160  23.165  32.729  28.272 -0.1024  0.0879 -0.0406
14244W        W57161  22.031  31.811  27.704  0.0860 -0.2146  0.2386
14245W        W57162  24.018  31.449  30.569  0.2213 -0.2722  0.1040
14246W        W57163  22.779  31.727  29.044 -0.1608  0.0308  0.1914
14247W        W57164  22.260  34.169  27.074 -0.2126 -0.1867  0.1803
14248W        W57165  22.699  34.576  29.326 -0.0649  0.0743 -0.1881
14249W        W57166  24.204  33.453  31.512  0.0788  0.0065  0.1129
14250W        W57167  23.252  31.591  29.124  0.0690 -0.0653  0.1957
14251W        W57168  21.826   0.315  27.475 -0.0752 -0.0763 -0.2135
14252W        W57169  23.354  33.771   0.499 -0.0550  0.0583 -0.1051
14253W        W57170  21.245   0.015  28.018 -0.2424 -0.0130  0.0623
14254W        W57171  23.825  33.793  28.382 -0.2626 -0.0198 -0.1749
14255W        W57172  24.392  32.606  25.740 -0.1437 -0.1631 -0.0013
14256W        W57173  24.185  34.298  29.315  0.0185  0.1758 -0.1790
14257W        W57174  24.740  33.868  27.579 -0.0895 -0.0919  0.0159
14258W        W57175  21.806   2.681  29.516  0.1623 -0.1550 -0.2226
14259W        W57176  22.555  34.389  28.361 -0.2433  0.0116 -0.0613
14260W        W57177  22.669   0.211  30.435  0.4686 -0.0940 -0.0738
14261W        W57178  24.448  30.640  30.233  0.2654 -0.0490  0.0196
14262W        W57179  21.143  34.530  28.533  0.0808 -0.0836  0.0817
14263W        W57180  22.295  33.320  29.356  0.0240 -0.0989  0.2536
14264W        W57181  25.761  32.056  27.800  0.3095  0.4498  0.2981
14265W        W57182  23.345  31.313  27.882  0.1392  0.0310  0.4045
14266W        W57183  22.178  32.350  26.339  0.3766 -0.1517  0.0466
14267W        W57184  25.655  32.873  28.389 -0.1398  0.2875 -0.1406
14268W        W57185  21.957  33.607  30.535 -0.0742  0.0162  0.0548
14269W        W57186  23.713  30.533  31.702  0.0453 -0.1534  0.1030
14270W        W57187  21.992   0.782  29.551 -0.2845 -0.0755 -0.0658
14271W        W57188  25.602  33.329  27.070  0.0258  0.0403  0.0981
14272W        W57189  21.857  33.182  31.685  0.0812 -0.3162 -0.1501
14273W        W57190  22.100  34.504  28.582 -0.1714  0.1439  0.2408
14274W        W57191  25.629  33.292  29.107  0.1039  0.4713  0.2655
14275W        W57192  24.206  33.061  25.724  0.1017 -0.1606  0.2143
14276W        W57193  22.293  33.232  28.467  0.1446  0.2154  0.1587
14277W        W57194  24.140  32.466  27.619  0.3309 -0.1000  0.2047
14278W        W57195  25.078  32.749  27.569 -0.0648  0.3515 -0.0860
14279W        W57196  25.528  34.206  28.565 -0.0811 -0.0795 -0.1771
14280W        W57197  21.789  34.127  28.492  0.1866 -0.0536 -0.3077
14281W        W57198  25.105  34.041  28.745 -0.0306 -0.0856  0.0914
14282W        W57199  24.567  34.401  28.225 -0.1351 -0.3200 -0.0320
14283W        W57200  21.272   0.296  29.469  0.1968 -0.1781 -0.1298
14284W        W57201  21.813  32.929  27.861 -0.0510  0.1572 -0.3374
14285W        W57202  24.124  33.145  29.326 -0.1242  0.0507 -0.4255
14286W        W57203  25.556  32.598  30.119  0.2681 -0.0380  0.4171
14287W        W57204  25.527  33.324  31.169 -0.0404 -0.0960  0.2862
14288W        W57205  23.263  33.354  30.551  0.0403 -0.0863  0.1057
14289W        W57206  24.806  32.404  27.866 -0.1973 -0.1375 -0.0697
14290W        W57207  21.559  33.211  27.518 -0.0204 -0.0081  0.0783
14291W        W57208  24.991  32.065  27.523 -0.1022 -0.1517  0.1492
14292W        W57209  25.539  30.909  27.023 -0.3176  0.2186  0.1736
14293W        W57210  24.332   0.813  29.611 -0.0264 -0.3855  0.2595
14294W        W57211  21.675   0.709  28.653 -0.0179 -0.0598  0.1056
14295W        W57212  24.214  34.094   0.385 -0.2648 -0.0043  0.1078
14296W        W57213  22.220  32.836  31.720 -0.1828  0.4351  0.1935
14297W        W57214  21.984   0.964  28.937  0.0353  0.2936  0.2683
14298W        W57215  21.596  34.043  26.740 -0.0577  0.3026  0.1359
14299W        W57216  21.692  32.874  31.304 -0.3626  0.1556 -0.1638
14300W        W57217  21.848  33.762  30.006 -0.0132 -0.0168 -0.2643
14301W        W57218  20.743  31.480  29.386 -0.2436  0.1798 -0.1903
14302W        W57219  24.199   0.394  31.572 -0.2755 -0.0968  0.0790
14303W        W57220  23.460  33.999  31.944  0.0189  0.1062  0.2524
14304W        W57221  21.864  33.366  28.228 -0.3089 -0.2064 -0.0174
14305W        W57222  24.553  34.045  29.723 -0.1611 -0.1007 -0.0263
14306W        W57223  19.763  34.062  30.800  0.2027 -0.3832 -0.0986
14307W        W57224  23.046  32.952  29.962  0.0236 -0.0130  0.2258
14308W        W57225  24.617  34.513  29.463 -0.0814  0.1561  0.0639
14309W        W57226  24.487  32.460  31.441 -0.2563 -0.0438 -0.4459
14310W        W57227  21.016  34.500  29.674 -0.0203 -0.0009 -0.0800
14311W        W57228  23.841  31.544  27.967 -0.0908 -0.2470  0.0344
14312W        W57229  21.294  34.559  29.139 -0.0616 -0.1369 -0.2159
14313W        W57230  23.877   0.002  29.213 -0.3159 -0.3588 -0.1293
14314W        W57231  24.417  34.217  30.374  0.1290  0.3126 -0.0949
14315W        W57232  22.152  33.413  26.424 -0.3360  0.0483  0.2137
14316W        W57233  26.527   1.840  26.895 -0.2680 -0.1267  0.0089
14317W        W57234  23.193  32.296  30.096  0.1235  0.1082  0.0875
14318W        W57235  25.224  33.174  28.102 -0.3636  0.1928 -0.1400
14319W        W57236  23.407  33.609  31.054 -0.3349  0.1162  0.0609
14320W        W57237  23.436  33.639  30.132  0.0519 -0.0675 -0.1677
14321W        W57238  22.414  34.177  29.205 -0.0306  0.3355  0.1961
14322W        W57239  23.480   0.289  29.146  0.2534 -0.2335 -0.0201
14323W        W57240  22.004  34.114  30.831 -0.0452 -0.0800 -0.0979
14324W        W57241  23.927   0.462  30.554  0.0790  0.3048 -0.0827
14325W        W57242  22.349   1.637  30.029  0.0612 -0.0708 -0.1195
14326W        W57243  25.164  34.216  30.436  0.2728  0.3508 -0.0199
14327W        W57244  22.066  33.852  29.008  0.0310  0.1266  0.0721
14328W        W57245  23.548  32.622  29.833 -0.2595  0.4323 -0.2343
14329W        W57246  23.025  32.651   1.807  0.1336 -0.0912  0.2933
14330W        W57247  26.590  34.347  30.160 -0.0768 -0.2187  0.0073
14331W        W57248  21.411   1.193  31.397 -0.2781  0.3245 -0.3888
14332W        W57249  22.042  33.324  30.106 -0.0671  0.2342 -0.0395
14333W        W57250  23.405  33.152  31.288  0.2134  0.2106  0.0561
14334W        W57251  25.966  33.667  29.835 -0.3257 -0.0170 -0.1523
14335W        W57252  24.585  33.690   0.547 -0.1204  0.1081  0.3187
14336W        W57253  21.511  32.590  29.984  0.0138 -0.0930 -0.1171
14337W        W57254  25.028   0.262   0.981 -0.0994  0.1803  0.2709
14338W        W57255  24.035  34.590  30.292 -0.0362 -0.1765 -0.3721
14339W        W57256  23.375  33.848  30.610  0.0755 -0.4368  0.2380
14340W        W57257  21.707   2.296   0.652 -0.0658  0.2807  0.1460
14341W        W57258  25.112  33.889  31.629  0.1487 -0.1682 -0.0631
14342W        W57259  21.686  32.682  30.792 -0.2803  0.0975 -0.4818
14343W        W57260  23.109  34.452  30.910  0.3890 -0.1104 -0.1692
14344W        W57261  24.214   0.984  30.611  0.2712 -0.1250 -0.4195
14345W        W57262  24.382  34.509  29.945 -0.0920  0.0719  0.3198
14346W        W57263  22.287  33.232  30.491 -0.1528 -0.1409  0.1311
14347W        W57264  22.872  34.537   0.819  0.0815 -0.2476  0.1173
14348W        W57265  23.794   1.665  30.457 -0.0194 -0.1704  0.1633
14349W        W57266  25.790  33.946  31.199  0.2469 -0.1501  0.1247
14350W        W57267  25.650  33.705  30.779 -0.4117 -0.1370 -0.0990
14351W        W57268  24.530  33.136  31.121  0.1144  0.0770 -0.0645
14352W        W57269  22.890  34.356  31.289 -0.1299 -0.0860  0.0024
14353W        W57270  23.628  33.559   0.860 -0.2967  0.0195  0.0228
14354W        W57271  22.562  32.455  31.848 -0.1739  0.1041  0.1000
14355W        W57272  20.125  32.232  30.712  0.2745 -0.0286 -0.0545
14356W        W57273  25.718   0.768   0.000 -0.0006 -0.1292 -0.0722
14357W        W57274  28.668   2.387  20.759  0.1452 -0.0167  0.0304
14358W        W57275  25.388   1.333  17.676 -0.0693 -0.1930  0.0889
14359W        W57276  29.937   1.924  18.271 -0.0681  0.0322 -0.1246
14360W        W57277  28.215  34.658  17.734  0.1815 -0.1631  0.0247
14361W        W57278  25.426   0.654  17.333 -0.0719  0.0067 -0.1028
14362W        W57279  29.565   1.029  18.188  0.4747 -0.1610 -0.3199
14363W        W57280  24.183   1.127  17.440 -0.2090 -0.2074 -0.1280
14364W        W57281  28.132   1.690  19.529  0.3070  0.2759 -0.1025
14365W        W57282  28.164   3.436  18.746 -0.2787  0.0207  0.1309
14366W        W57283  27.413   1.206  16.599 -0.0850 -0.2510  0.0347
14367W        W57284  25.182   1.122  18.676 -0.0402 -0.2089 -0.1866
14368W        W57285  24.125   3.067  19.181 -0.1285 -0.2679 -0.2020
14369W        W57286  28.234   0.612  19.387  0.1793 -0.1801 -0.1966
14370W        W57287  24.450  31.596  18.006 -0.1538  0.0169  0.0950
14371W        W57288  26.776   2.171  17.980 -0.0352 -0.0964  0.1878
14372W        W57289  24.420   2.057  16.930  0.1210  0.1667  0.0952
14373W        W57290  26.349   1.111  20.177  0.0025  0.1351 -0.1089
14374W        W57291  26.979  34.329  17.598 -0.1499  0.0632 -0.1512
14375W        W57292  27.776   4.456  19.429 -0.2536  0.0988  0.2623
14376W        W57293  25.489   2.125  18.586 -0.7105 -0.2596  0.0081
14377W        W57294  27.979  33.373  20.236 -0.2496  0.0630  0.2564
14378W        W57295  28.241   2.949  18.606  0.0150  0.0119  0.0735
14379W        W57296  26.298   1.269  18.443  0.1733  0.0309 -0.2960
14380W        W57297  24.505   2.699  19.228  0.1472  0.1653  0.0385
14381W        W57298  26.176   2.541  17.341  0.3115  0.0196  0.1055
14382W        W57299  30.158   1.213  19.110  0.1320  0.2164 -0.2869
14383W        W57300  27.592   1.711  20.006 -0.5501 -0.2507 -0.0016
14384W        W57301  25.965   3.253  18.076 -0.1351  0.0720  0.1978
14385W        W57302  27.829   3.321  20.358  0.0732 -0.2046  0.1170
14386W        W57303  27.175   0.597  21.086 -0.1967 -0.2697 -0.0419
14387W        W57304  23.587   3.815  17.042  0.1932  0.0614  0.1074
14388W        W57305  25.746   5.553  17.794 -0.1209  0.0634 -0.1202
14389W        W57306  26.883   3.191  18.211  0.2666  0.0504  0.2395
14390W        W57307  28.271   1.177  19.554  0.2929  0.2236 -0.1132
14391W        W57308  28.243   3.029  19.123 -0.1377  0.2747  0.2009
14392W        W57309  27.469   1.737  21.353  0.3518  0.0322  0.1854
14393W        W57310  27.259   1.916  17.792 -0.1578  0.0690  0.3752
14394W        W57311  27.985   3.358  22.147  0.1265 -0.1300 -0.0179
14395W        W57312  23.898   4.417  20.162  0.0359  0.1323  0.0501
14396W        W57313  28.217   1.604  18.582  0.0317 -0.1488 -0.0723
14397W        W57314  28.066   3.655  20.002 -0.0130 -0.1333  0.1485
14398W        W57315  25.683   2.453  16.598  0.0242  0.0898  0.0420
14399W        W57316  27.569   2.002  18.461 -0.0394 -0.3728  0.0281
14400W        W57317  24.377   3.223  20.192  0.3278  0.1640  0.2617
14401W        W57318  26.351   2.920  17.989 -0.1477  0.2453 -0.0090
14402W        W57319  27.957   1.976  20.647  0.1066  0.0963 -0.2076
14403W        W57320  24.452   3.800  17.364  0.0706 -0.3482 -0.0730
14404W        W57321  30.904   2.656  19.284  0.0177 -0.1972 -0.0540
14405W        W57322  27.026   0.078  16.690  0.0545  0.2681 -0.0675
14406W        W57323  31.290   2.232  18.127 -0.1662  0.0729  0.3790
14407W        W57324  29.639  32.722  19.244 -0.1949 -0.0476 -0.5626
14408W        W57325  27.640   4.135  20.231  0.1973  0.0202  0.0687
14409W        W57326  26.806   1.471  20.123 -0.3000 -0.1742 -0.2522
14410W        W57327  29.001   2.735  20.609  0.3384  0.3183 -0.2950
14411W        W57328  26.363   1.001  17.121  0.0336  0.1111 -0.4642
14412W        W57329  26.292   1.146  21.848  0.1393 -0.2398  0.0961
14413W        W57330  23.496   3.481  19.956 -0.0884 -0.0979 -0.0963
14414W        W57331  24.526   2.189  18.107 -0.1720  0.0791  0.0831
14415W        W57332  28.813   3.284  17.936 -0.1861  0.0788 -0.1842
14416W        W57333  27.541   4.186  17.866 -0.0855  0.0856 -0.1455
14417W        W57334  29.457   3.210  17.243 -0.1888 -0.0361  0.1314
14418W        W57335  24.615   1.598  16.844 -0.2102  0.0883  0.4864
14419W        W57336  26.034   2.526  20.285 -0.0324 -0.0360 -0.0067
14420W        W57337  25.359   2.587  18.453  0.4334  0.0401  0.3143
14421W        W57338  27.640  33.267  16.445 -0.0026 -0.1047 -0.0055
14422W        W57339  27.543   1.848  22.900  0.2956  0.1204 -0.1535
14423W        W57340  26.647   4.065  19.095  0.1410 -0.0563  0.0723
14424W        W57341  28.080  33.085  18.194 -0.0956 -0.0479 -0.1494
14425W        W57342  25.331   2.494  17.916 -0.1459  0.0576 -0.0211
14426W        W57343  26.004   2.588  19.786 -0.0842  0.2763  0.0311
14427W        W57344  27.339   1.990  17.274  0.0522 -0.2064  0.1543
14428W        W57345  27.683   1.101  18.304 -0.0846  0.0227 -0.0268
14429W        W57346  27.153   2.829  17.520  0.2517 -0.0771  0.0781
14430W        W57347  24.741   1.421  18.215 -0.4708  0.0287  0.3894
14431W        W57348  27.429   2.453  17.726  0.2398 -0.2842  0.2176
14432W        W57349  29.015   3.726  18.157  0.2246 -0.3361 -0.1586
14433W        W57350  28.553   1.487  17.258 -0.0634 -0.0390  0.3092
14434W        W57351  25.707   3.717  18.317 -0.3460  0.0883  0.1283
14435W        W57352  27.365   1.483  18.536  0.0240  0.0924  0.1572
14436W        W57353  27.676   3.637  19.594 -0.0541 -0.1412  0.1903
14437W        W57354  24.072   2.409  17.328  0.2082 -0.2686  0.0014
14438W        W57355  24.911   1.201  17.761  0.1367 -0.2345 -0.0183
14439W        W57356  25.999   2.827  16.865 -0.2243 -0.0802  0.0890
14440W        W57357  26.060   2.055  18.575 -0.0451  0.1262  0.0037
14441W        W57358  27.095   1.874  18.385 -0.0256 -0.3226 -0.0910
14442W        W57359  28.343   0.080  17.252  0.2562  0.3379  0.2943
14443W        W57360  26.295   1.490  19.165  0.0031  0.1530  0.0661
14444W        W57361  30.861  33.261  17.935  0.0714 -0.0171  0.2290
14445W        W57362  25.351   2.839  16.427 -0.0998 -0.0236 -0.0204
14446W        W57363  27.259   2.632  16.528 -0.1184 -0.1743  0.0974
14447W        W57364  29.133   2.021  19.674  0.1759  0.0554  0.3297
14448W        W57365  26.878   1.729  17.182  0.2008 -0.0868 -0.1472
14449W        W57366  23.312   2.490  20.103  0.2090  0.0178 -0.0876
14450W        W57367  27.670   2.124  19.087 -0.2529 -0.2162  0.1760
14451W        W57368  25.826   1.014  21.694 -0.1407 -0.0489  0.0680
14452W        W57369  25.645   1.645  18.495  0.0421  0.0947  0.0170
14453W        W57370  28.355   2.611  19.429  0.1785  0.1681 -0.1965
14454W        W57371  26.588   0.259  16.619  0.0649 -0.0026  0.1188
14455W        W57372  27.503   0.722  19.215 -0.1059 -0.1017 -0.0373
14456W        W57373  27.541   4.727  19.095 -0.4289 -0.4402 -0.1984
14457W        W57374  23.800   2.886  17.240  0.0825  0.1168 -0.1722
14458W        W57375  25.410   1.318  19.707  0.0424  0.1389  0.0621
14459W        W57376  26.451   2.037  17.203  0.1036 -0.2715  0.0926
14460W        W57377  28.146   3.643  21.502 -0.0201 -0.0570 -0.0756
14461W        W57378  29.191   1.266  18.377 -0.1905  0.3038  0.0824
14462W        W57379  25.945   1.488  20.440 -0.0175  0.1799  0.2082
14463W        W57380  26.147  33.193  18.079 -0.0852 -0.0818 -0.0434
14464W        W57381  28.909   4.267  18.148 -0.1378  0.4153 -0.1535
14465W        W57382  26.731   3.121  17.693  0.2439  0.4164 -0.4327
14466W        W57383  26.739   0.124  17.386  0.3430 -0.3317 -0.1810
14467W        W57384  30.105   2.256  19.754  0.1480  0.2025  0.0786
14468W        W57385  26.782   2.226  18.443 -0.0412  0.2708  0.3597
14469W        W57386  24.485   5.486  17.527 -0.0317 -0.3441 -0.0622
14470W        W57387  28.024   1.648  20.239  0.0670 -0.0363 -0.1256
14471W        W57388  27.472   0.553  18.737  0.3206  0.1759 -0.0853
14472W        W57389  28.350   1.051  17.632 -0.0159  0.5412  0.2676
14473W        W57390  26.083  34.284  16.469  0.1589  0.0680  0.0388
14474W        W57391  29.131   1.639  17.157  0.1664 -0.1336 -0.1881
14475W        W57392  24.270   4.871  16.744  0.3012 -0.1944  0.0186
14476W        W57393  25.841   1.394  17.646 -0.0811 -0.1428  0.3023
14477W        W57394  27.534   3.633  20.130  0.1008 -0.3168  0.0754
14478W        W57395  29.570  34.251  17.669 -0.1406 -0.1876  0.0990
14479W        W57396  25.464   1.446  20.185  0.0858  0.4548 -0.0521
14480W        W57397  28.070   1.906  18.990 -0.1751 -0.1557 -0.1225
14481W        W57398  25.555   1.387  17.094  0.1623  0.0966  0.2035
14482W        W57399  24.856   2.794  18.800  0.0998 -0.5243 -0.0879
14483W        W57400  27.843   0.178  18.726  0.1936 -0.0205 -0.2576
14484W        W57401  29.605   1.515  17.592  0.0025 -0.2898 -0.2391
14485W        W57402  26.452   3.455  20.349 -0.3712  0.1951 -0.0998
14486W        W57403  31.077   1.103  17.896  0.2588 -0.1142  0.4142
14487W        W57404  28.174   1.944  17.249  0.0544 -0.0200 -0.1655
14488W        W57405  26.765   0.813  18.573 -0.1949 -0.2321 -0.2099
14489W        W57406  24.129   3.649  20.327 -0.2353  0.4002 -0.2851
14490W        W57407  27.194   3.770  18.028  0.0289 -0.3029 -0.0770
14491W        W57408  26.345   2.593  18.364 -0.0575  0.0726  0.0051
14492W        W57409  26.015   1.524  16.952 -0.0952 -0.3280  0.0361
14493W        W57410  29.445   1.991  18.300  0.1258 -0.0422 -0.2002
14494W        W57411  25.086   3.548  19.174  0.0266 -0.2285  0.0119
14495W        W57412  27.899   0.904  21.141  0.2574  0.2305 -0.1454
14496W        W57413  27.770   2.486  18.618  0.1578  0.0303  0.2569
14497W        W57414  28.669  34.142  20.045 -0.0914 -0.3790  0.0479
14498W        W57415  28.811   1.043  18.067 -0.0222  0.0878 -0.0190
14499W        W57416  28.570   1.634  18.893 -0.0075  0.0096  0.2297
14500W        W57417  26.438   3.467  17.482 -0.1689 -0.2233 -0.0276
14501W        W57418  29.649   1.205  18.691 -0.0419 -0.3422 -0.1344
14502W        W57419  25.929   0.891  17.455 -0.0113 -0.2182 -0.0358
14503W        W57420  26.307   0.957  20.706 -0.2975  0.1525  0.0933
14504W        W57421  25.063   1.075  21.384  0.0318 -0.0720 -0.0590
14505W        W57422  28.921   2.701  20.120  0.0206 -0.3610 -0.1280
14506W        W57423  29.984  32.782  17.688  0.1021 -0.1359 -0.0285
14507W        W57424  27.597  34.569  16.632  0.2578 -0.3445 -0.3075
14508W        W57425  25.697   0.460  19.236 -0.1567 -0.0231 -0.0096
14509W        W57426  24.019   1.039  18.920  0.0540  0.0346  0.2630
14510W        W57427  25.997   3.699  18.843  0.2828 -0.2141  0.1179
14511W        W57428  27.684   2.062  19.625  0.1136  0.2216  0.0704
14512W        W57429  26.775   4.154  20.975  0.3630  0.2804 -0.0192
14513W        W57430  27.673   0.735  20.232  0.0988  0.0485  0.2210
14514W        W57431  25.892  34.555  17.255  0.1145 -0.1282  0.1883
14515W        W57432  26.460   4.269  18.256  0.2058 -0.0362  0.1954
14516W        W57433  25.129   2.373  16.863  0.0840 -0.0441  0.3263
14517W        W57434  26.298   1.845  19.494 -0.0280  0.1343  0.2965
14518W        W57435  26.080   3.429  19.377  0.0109 -0.0479 -0.2419
14519W        W57436  26.843   2.878  16.852  0.2010 -0.1826 -0.2398
14520W        W57437  25.805   2.957  20.233  0.5829  0.3985 -0.1252
14521W        W57438  24.901   2.582  18.199 -0.1173  0.0309  0.3283
14522W        W57439  29.236   1.830  17.634 -0.0790  0.0244  0.0885
14523W        W57440  23.438   4.818  16.841 -0.0016  0.2487 -0.1264
14524W        W57441  26.777   1.276  17.287  0.0729 -0.1987  0.0167
14525W        W57442  25.711   3.347  18.604  0.0557  0.1287  0.2849
14526W        W57443  30.169   0.404  18.621  0.1775 -0.0731  0.1576
14527W        W57444  29.079   2.215  17.292  0.3110  0.2347  0.0090
14528W        W57445  25.479   0.559  19.844  0.1651 -0.1586 -0.0940
14529W        W57446  26.330   0.118  21.559 -0.0481 -0.0831  0.5555
14530W        W57447  26.422   3.639  19.067  0.0129 -0.1976  0.0495
14531W        W57448  26.975   2.828  20.039  0.1797 -0.3327  0.1318
14532W        W57449  29.639   2.384  18.015  0.2832 -0.1292 -0.1973
14533W        W57450  27.392   1.621  20.862 -0.0908 -0.1682 -0.0883
14534W        W57451  26.236   3.081  18.978  0.0332  0.1087 -0.1604
14535W        W57452  26.189   0.725  16.330 -0.0017  0.0562  0.0391
14536W        W57453  27.846   1.390  19.728  0.2901 -0.1046  0.0943
14537W        W57454  25.715   2.033  19.530  0.2447  0.0005 -0.2235
14538W        W57455  25.951   4.128  18.539 -0.0133  0.1298  0.1244
14539W        W57456  28.657   1.427  17.714  0.2586 -0.2334 -0.2547
14540W        W57457  24.976   2.491  16.412 -0.0566 -0.0312 -0.1583
14541W        W57458  26.585   1.733  18.274 -0.2579  0.0691  0.1342
14542W        W57459  24.949   1.358  19.820  0.2847 -0.0353 -0.3110
14543W        W57460  28.920   2.419  19.361 -0.1165  0.1752  0.0396
14544W        W57461  23.756   1.621  18.155 -0.0546 -0.1890 -0.0227
14545W        W57462  25.683   2.210  17.669  0.1679  0.1207  0.2324
14546W        W57463  26.970   2.856  18.976  0.0844  0.0953  0.2269
14547W        W57464  28.637   3.209  18.787 -0.1483 -0.1607 -0.0945
14548W        W57465  26.855   0.167  20.742  0.1581  0.1258 -0.2211
14549W        W57466  25.315   2.445  20.964  0.1329 -0.1042  0.0444
14550W        W57467  25.150   2.349  19.792  0.0721  0.1669  0.1994
14551W        W57468  28.542   2.887  17.141 -0.1513 -0.1759  0.1508
14552W        W57469  27.958   1.747  21.215  0.1366 -0.2611  0.0249
14553W        W57470  27.382   3.011  19.539 -0.2330  0.1456 -0.0314
14554W        W57471  25.872   0.992  18.538 -0.0132  0.0407  0.0401
14555W        W57472  25.042   2.104  17.723 -0.1237  0.0873 -0.2432
14556W        W57473  30.862  34.458  19.031  0.0704 -0.0251 -0.0365
14557W        W57474  28.289   1.402  18.072 -0.0718  0.0435 -0.0159
14558W        W57475  24.334   3.931  17.965  0.0367  0.1209  0.0170
14559W        W57476  25.078   3.015  18.328 -0.0736 -0.1169  0.5667
14560W        W57477  29.571   0.392  16.990  0.1452 -0.2478 -0.0518
14561W        W57478  28.673   1.940  17.088  0.0617  0.0249  0.3332
14562W        W57479  25.288   3.228  17.300  0.0708 -0.1113 -0.0690
14563W        W57480  28.934   3.125  21.465  0.0094  0.3321  0.2876
14564W        W57481  27.433   1.371  17.931  0.0253 -0.0775 -0.2135
14565W        W57482  26.733   0.191  21.209 -0.5440  0.1857 -0.2461
14566W        W57483  26.064  31.539  19.928  0.3251  0.0361  0.2654
14567W        W57484  26.002   2.827  19.334  0.0519  0.2407 -0.0558
14568W        W57485  23.696   1.147  18.514 -0.2122 -0.0148  0.0183
14569W        W57486  27.960   5.731  19.204  0.0409  0.2840  0.0563
14570W        W57487  23.946   2.785  21.033  0.0050 -0.3746  0.2083
14571W        W57488  29.166   1.326  17.799  0.2159 -0.0231 -0.0470
14572W        W57489  26.158  32.781  17.218  0.2162  0.1146 -0.0033
14573W        W57490  27.691   0.187  17.822 -0.4637  0.1070 -0.1317
14574W        W57491  25.889   1.862  19.010 -0.0504  0.1321  0.0517
14575W        W57492  26.810   1.734  16.687  0.0227  0.0613  0.0300
14576W        W57493  28.088   0.650  20.650  0.0780 -0.1749 -0.0619
14577W        W57494  24.405   3.112  18.345 -0.1633  0.0680  0.0781
14578W        W57495  27.259   1.598  16.856  0.2053 -0.1327 -0.0904
14579W        W57496  26.374   3.039  17.141 -0.1898 -0.0360  0.1408
14580W        W57497  24.244   2.359  16.603 -0.1510 -0.1707  0.3537
14581W        W57498  27.161  34.418  20.671 -0.1698  0.1210 -0.1298
14582W        W57499  26.617   2.224  19.350 -0.4485  0.0124 -0.0505
14583W        W57500  27.551   1.285  17.117  0.1573  0.0986  0.0811
14584W        W57501  25.623   0.719  18.251  0.2154  0.0516 -0.1529
14585W        W57502  27.993   2.550  19.048 -0.4035 -0.2312  0.0175
14586W        W57503  25.946   0.594  20.768  0.1399  0.0249  0.2111
14587W        W57504  24.969  33.387  20.621 -0.1770 -0.1867 -0.2923
14588W        W57505  28.520   3.384  19.337 -0.2434 -0.0914 -0.0421
14589W        W57506  27.963   0.433  17.361  0.0076  0.1599  0.0302
14590W        W57507  29.986  31.937  19.756 -0.0615  0.1441 -0.1614
14591W        W57508  28.067   1.382  17.161 -0.0362  0.1166 -0.1733
14592W        W57509  27.175   0.596  17.765  0.1852  0.0072  0.1883
14593W        W57510  26.123   0.166  17.567  0.3071 -0.0361 -0.1824
14594W        W57511  26.560   2.078  19.881 -0.0366 -0.0019  0.0515
14595W        W57512  28.699   0.669  17.771 -0.0944  0.0845  0.1270
14596W        W57513  26.469   0.429  20.587  0.1385 -0.0653 -0.2489
14597W        W57514  27.178   3.316  17.786 -0.0910  0.0821  0.0138
14598W        W57515  30.964   1.065  19.804 -0.0179 -0.1578  0.0740
14599W        W57516  29.921   2.136  18.682 -0.1024 -0.0056 -0.1278
14600W        W57517  25.625   1.786  17.861  0.1689  0.1839  0.1500
14601W        W57518  25.492   5.245  19.454 -0.0230  0.2752 -0.1801
14602W        W57519  25.971   0.990  16.804 -0.1570 -0.0928  0.0719
14603W        W57520  27.256   2.476  17.174  0.0208  0.5022  0.1352
14604W        W57521  27.128   3.406  19.915 -0.0303 -0.4366 -0.1203
14605W        W57522  26.260   3.487  19.834  0.1135 -0.2436 -0.2336
14606W        W57523  27.328  33.553  16.753 -0.2905  0.0409  0.2286
14607W        W57524  26.895   1.443  20.694  0.2445 -0.1249 -0.0316
14608W        W57525  24.432   4.257  17.541 -0.1207 -0.2856 -0.0367
14609W        W57526  27.351  34.500  17.117  0.3041 -0.0518 -0.0243
14610W        W57527  24.305   1.387  17.868 -0.0859 -0.0399 -0.2998
14611W        W57528  25.071   2.222  18.769  0.1475  0.1089 -0.0286
14612W        W57529  26.828   3.680  17.712  0.0425  0.0029 -0.0681
14613W        W57530  26.470   0.391  18.584  0.1243  0.4308  0.1561
14614W        W57531  27.071   0.873  19.438  0.0595 -0.1361 -0.1827
14615W        W57532  26.052   1.651  18.186 -0.1008  0.4944  0.3037
14616W        W57533  29.099   0.302  20.677 -0.0106 -0.1658 -0.3043
14617W        W57534  25.285   2.652  20.491 -0.2102  0.0375  0.2590
14618W        W57535  25.079   3.230  19.618  0.0114 -0.4286 -0.1878
14619W        W57536  28.055   4.817  19.639  0.0553 -0.0573  0.0353
14620W        W57537  29.036   1.710  18.644 -0.0013 -0.0452 -0.2086
14621W        W57538  24.476   3.861  20.039 -0.1919  0.1075 -0.0072
14622W        W57539  24.038  34.431  20.571 -0.4050  0.1541  0.2436
14623W        W57540  25.843   2.690  17.854 -0.0235 -0.0820  0.1106
14624W        W57541  30.192   1.001  18.680  0.1971  0.0081 -0.2572
14625W        W57542  29.274   0.873  18.823 -0.1368 -0.1281  0.2257
14626W        W57543  27.291   2.103  16.780 -0.2749  0.0856  0.2236
14627W        W57544  25.270   2.133  20.434  0.0237  0.1990  0.2721
14628W        W57545  25.233   2.442  17.421 -0.1974 -0.2616 -0.1834
14629W        W57546  25.712   4.629  18.213 -0.0452 -0.0414 -0.1709
14630W        W57547  28.379   3.349  17.357  0.3423  0.1167  0.2835
14631W        W57548  26.997   2.544  19.330  0.0686  0.0369  0.2804
14632W        W57549  26.271   3.991  20.874 -0.5459 -0.0390 -0.0816
14633W        W57550  27.783  34.608  17.387  0.1277  0.1696  0.2792
14634W        W57551  24.950   2.869  17.393 -0.0770  0.0901 -0.0006
14635W        W57552  24.629   3.751  16.878 -0.0938 -0.0241  0.2851
14636W        W57553  28.139   3.300  17.781 -0.1397  0.0095 -0.3123
14637W        W57554  26.358   3.098  19.556  0.0396  0.2889 -0.2153
14638W        W57555  29.069   4.211  20.575  0.2686 -0.3687  0.0820
14639W        W57556  29.985   0.217  17.474  0.1776  0.0981 -0.0526
14640W        W57557  29.468   3.327  18.245 -0.0898  0.2754 -0.1195
14641W        W57558  28.818   0.248  17.539  0.0603  0.3204  0.2948
14642W        W57559  27.495   2.896  22.710 -0.2929  0.1955 -0.0377
14643W        W57560  26.065   2.972  18.517 -0.2362 -0.1234  0.0528
14644W        W57561  26.030   1.041  17.959  0.1144 -0.1183 -0.4834
14645W        W57562  25.562   0.924  19.453 -0.2594 -0.0939 -0.1446
14646W        W57563  29.353  34.451  22.130 -0.2100 -0.0218 -0.1453
14647W        W57564  26.866   3.016  19.495  0.1569  0.0335 -0.1539
14648W        W57565  30.253   2.106  17.935 -0.0254 -0.0723 -0.0992
14649W        W57566  26.344   2.057  18.968 -0.0461 -0.1622 -0.1158
14650W        W57567  25.974   1.368  20.939  0.1550  0.0788 -0.3010
14651W        W57568  28.722  33.660  19.488  0.1691  0.1584  0.0651
14652W        W57569  27.702   1.727  17.488  0.1411  0.0955 -0.0978
14653W        W57570  27.230   2.418  18.677  0.0584 -0.2393  0.6150
14654W        W57571  27.388   4.177  18.753  0.2620  0.0985 -0.0396
14655W        W57572  26.433   2.538  16.928  0.2074 -0.1274  0.5484
14656W        W57573  28.204   2.186  19.616 -0.5331  0.1389 -0.0348
14657W        W57574  25.610   1.173  18.190 -0.0703 -0.1919 -0.2000
14658W        W57575  29.066   1.923  19.181  0.0842  0.4146  0.2016
14659W        W57576  26.225   1.323  19.614  0.0994 -0.2563 -0.1140
14660W        W57577  28.298   0.463  18.697 -0.1569 -0.0247 -0.2625
14661W        W57578  26.814   2.210  16.888 -0.1391  0.0234  0.1120
14662W        W57579  29.380   1.068  17.408 -0.0953 -0.2532 -0.2194
14663W        W57580  29.262   0.459  17.494 -0.1912  0.0300  0.2476
14664W        W57581  25.767   2.429  19.087  0.0171 -0.0928  0.0817
14665W        W57582  26.227   1.303  16.465 -0.1428  0.3019 -0.2879
14666W        W57583  29.873   1.855  20.652  0.0140  0.0965  0.2704
14667W        W57584  26.557   1.362  16.864  0.3787 -0.3284  0.0611
14668W        W57585  28.617   4.507  20.700 -0.3742 -0.1447  0.1537
14669W        W57586  29.247   0.816  17.857  0.0989  0.2730  0.0477
14670W        W57587  27.879   0.936  17.281  0.0746 -0.0118 -0.2902
14671W        W57588  24.812   3.871  18.719 -0.1372 -0.2723 -0.1679
14672W        W57589  24.930   0.688  21.065 -0.3075  0.3395  0.2761
14673W        W57590  27.048   2.362  20.353  0.1540 -0.0108 -0.0550
14674W        W57591  25.871   0.424  17.243  0.1806  0.0272  0.1932
14675W        W57592  30.085   0.896  19.519  0.1206 -0.1341 -0.0160
14676W        W57593  29.053   2.302  18.391 -0.1051 -0.2149 -0.0388
14677W        W57594  25.213   2.974  17.796  0.2073  0.1957 -0.0755
14678W        W57595  27.890   1.279  17.706  0.1255  0.1339 -0.1178
14679W        W57596  27.117   3.796  19.021 -0.2476  0.0096  0.1769
14680W        W57597  25.354   2.094  16.457 -0.1300  0.1076  0.0429
14681W        W57598  28.139   3.766  17.557 -0.3273  0.0171  0.2309
14682W        W57599  28.602   0.950  20.277 -0.0644 -0.1041  0.0390
14683W        W57600  26.714   1.729  17.701  0.0789 -0.1544 -0.1130
14684W        W57601  25.822   2.544  18.516 -0.0465  0.1467  0.2728
14685W        W57602  26.147   4.770  17.414 -0.0950 -0.1657 -0.1825
14686W        W57603  27.830   1.112  19.324  0.0654  0.2916 -0.0509
14687W        W57604  29.618   0.310  20.633 -0.3121  0.3413 -0.1135
14688W        W57605  27.174   2.315  18.174  0.1949  0.1205 -0.1834
14689W        W57606  25.941   0.857  21.230 -0.3655  0.0793  0.2490
14690W        W57607  24.435   3.670  18.394 -0.0921 -0.2947  0.0580
14691W        W57608  25.854   3.121  19.747 -0.1968  0.3438  0.0448
14692W        W57609  25.220  33.947  16.612 -0.1714  0.2022 -0.2002
14693W        W57610  26.638   1.903  20.864 -0.2479  0.2325  0.0002
14694W        W57611  27.507   4.184  19.761 -0.1384  0.0683  0.0964
14695W        W57612  26.247   2.155  16.105  0.0231 -0.2177 -0.2166
14696W        W57613  28.642   3.536  18.422  0.1407  0.1582  0.1823
14697W        W57614  27.182   1.480  17.499 -0.1908  0.0026  0.0332
14698W        W57615  30.406   2.561  17.937  0.0949  0.0944 -0.0313
14699W        W57616  28.063   2.071  18.536 -0.0671 -0.0198  0.0909
14700W        W57617  28.444   1.625  16.779  0.0537  0.1180  0.1999
14701W        W57618  28.704   1.933  17.619  0.1671  0.2874 -0.0255
14702W        W57619  26.510   2.763  19.213 -0.2377 -0.1904 -0.1537
14703W        W57620  24.306   1.812  16.527  0.1917  0.0526 -0.2293
14704W        W57621  26.736   0.612  16.292  0.1968 -0.2671 -0.0541
14705W        W57622  25.639   3.421  19.116 -0.0955  0.1893  0.2379
14706W        W57623  26.188   0.545  19.368  0.1089  0.0701  0.0560
14707W        W57624  28.273   4.042  20.214  0.3952  0.2113 -0.2281
14708W        W57625  24.974  34.656  18.063  0.1079  0.1586  0.0068
14709W        W57626  25.625  34.179  18.113 -0.1371  0.1870 -0.0036
14710W        W57627  29.107   3.347  16.907 -0.1937 -0.1323  0.1952
14711W        W57628  27.478   0.608  17.374  0.1804 -0.1869 -0.2979
14712W        W57629  26.331   2.398  17.885 -0.1452 -0.4233  0.2744
14713W        W57630  27.346   1.824  18.897 -0.1262  0.1133  0.0124
14714W        W57631  29.346   3.177  18.849  0.0394 -0.2151 -0.0029
14715W        W57632  27.072   0.424  17.055 -0.0702  0.1914  0.1439
14716W        W57633  30.578   2.554  19.631  0.0513  0.1339  0.1761
14717W        W57634  23.186   4.142  16.825 -0.2003  0.0484 -0.0098
14718W        W57635  27.609   3.037  18.589  0.2318 -0.0184 -0.1337
14719W        W57636  26.686   0.365  19.086  0.1495  0.1575  0.0135
14720W        W57637  26.195  33.834  17.393  0.4198  0.0527  0.1665
14721W        W57638  27.017   2.330  19.830 -0.1780 -0.3120 -0.0608
14722W        W57639  27.908   1.515  16.583 -0.0404  0.3217  0.6085
14723W        W57640  28.171   2.516  17.213 -0.0867 -0.0146  0.2051
14724W        W57641  26.739   3.620  20.758 -0.3260  0.0066  0.2374
14725W        W57642  26.717   3.758  19.916  0.0313 -0.2854  0.1285
14726W        W57643  26.192   0.814  19.782 -0.0689 -0.3180 -0.0595
14727W        W57644  27.502   2.810  19.072 -0.2352 -0.3328  0.0040
14728W        W57645  27.065   3.234  20.819 -0.1308  0.1553  0.1961
14729W        W57646  30.001   2.467  17.627 -0.0332  0.2373  0.0272
14730W        W57647  30.006   1.284  18.250  0.0913  0.4218 -0.0630
14731W        W57648  28.755   1.186  19.752  0.1110 -0.0892 -0.1487
14732W        W57649  26.183   2.096  20.376 -0.1180 -0.2172 -0.2180
14733W        W57650  23.564   2.862  19.907  0.0207 -0.1237 -0.5972
14734W        W57651  27.175   2.095  19.347 -0.1019 -0.1817 -0.0715
14735W        W57652  26.668  33.962  17.473 -0.1010  0.0787  0.0955
14736W        W57653  27.418   1.063  17.541 -0.0348  0.0854 -0.1095
14737W        W57654  27.728   1.823  16.946 -0.1271  0.1208 -0.0172
14738W        W57655  24.935   1.786  19.103  0.2321 -0.0145  0.1418
14739W        W57656  27.252   0.945  18.166 -0.0890 -0.0501 -0.0886
14740W        W57657  27.924   1.801  21.709  0.0484 -0.2037  0.0920
14741W        W57658  25.351   3.387  18.105  0.2326 -0.0194  0.0579
14742W        W57659  28.656   2.745  18.998 -0.0490 -0.0910  0.0390
14743W        W57660  26.534   0.410  17.704 -0.3236  0.0807 -0.2650
14744W        W57661  31.010   1.703  17.618 -0.5002 -0.0868  0.2345
14745W        W57662  29.416   3.934  21.446  0.0539 -0.2335  0.2148
14746W        W57663  27.860   2.231  21.462  0.4039 -0.1377 -0.1502
14747W        W57664  27.410   2.688  20.059 -0.1900  0.1126  0.2281
14748W        W57665  29.707   1.922  17.811  0.2201  0.1291 -0.2733
14749W        W57666  24.993   0.458  17.086  0.0421  0.0734  0.1110
14750W        W57667  25.692   0.556  16.799  0.1768 -0.0348 -0.1636
14751W        W57668  27.812   2.018  17.932  0.0343 -0.0137 -0.2214
14752W        W57669  28.543  34.665  20.820  0.1242  0.3959 -0.2855
14753W        W57670  28.343   1.333  19.990  0.3580 -0.1161  0.0661
14754W        W57671  29.404  34.582  19.050 -0.1661 -0.0008 -0.2370
14755W        W57672  25.507   3.826  18.870  0.0257  0.1327 -0.2001
14756W        W57673  26.957   4.662  19.509  0.3345  0.2041  0.2958
14757W        W57674  26.828   1.182  24.676  0.0381 -0.0523  0.0470
14758W        W57675  26.627  33.680  21.685 -0.1844 -0.0666 -0.1944
14759W        W57676  25.564   2.577  19.536  0.1576  0.0811 -0.1595
14760W        W57677  28.405   3.577  20.363  0.0462  0.0328  0.0542
14761W        W57678  27.665   0.387  22.283 -0.0895 -0.0295 -0.1359
14762W        W57679  26.124   4.502  21.674  0.2884 -0.1010 -0.3403
14763W        W57680  25.298  33.290  22.279  0.0144  0.2549 -0.0029
14764W        W57681  26.426   1.926  23.091  0.3376  0.0802 -0.1995
14765W        W57682  28.297   2.377  21.739 -0.0247  0.2254  0.0484
14766W        W57683  25.187   3.984  18.439  0.1264 -0.0990 -0.0022
14767W        W57684  25.589  33.817  23.418 -0.2717  0.1754  0.1345
14768W        W57685  26.656   4.109  23.683  0.1479 -0.0033  0.1769
14769W        W57686  25.071   0.226  19.824  0.1688 -0.0333 -0.0128
14770W        W57687  25.009  34.286  24.092  0.0201  0.2718  0.0024
14771W        W57688  27.175   1.359  21.489 -0.1372  0.0493 -0.0798
14772W        W57689  24.970   1.692  21.397  0.2105  0.1321  0.2158
14773W        W57690  25.228   0.836  22.246 -0.1112 -0.0200  0.0661
14774W        W57691  26.162   0.815  23.986  0.1558  0.2236 -0.1288
14775W        W57692  26.660   4.905  20.770  0.2298 -0.0350  0.3242
14776W        W57693  25.403  33.986  24.015  0.2960 -0.0269  0.2810
14777W        W57694  27.533   0.048  22.612  0.2553  0.2830  0.0751
14778W        W57695  24.281   1.842  20.755  0.0884  0.1828 -0.0854
14779W        W57696  23.150   0.120  19.365 -0.0366 -0.0144  0.2153
14780W        W57697  24.587   1.236  23.261  0.1829  0.0219  0.3293
14781W        W57698  25.031   1.421  20.965  0.4030  0.1125  0.0320
14782W        W57699  26.061   0.463  22.010  0.1406 -0.1795 -0.1086
14783W        W57700  29.670  33.975  21.524 -0.0710  0.1525  0.1361
14784W        W57701  26.265   2.332  21.447 -0.2882 -0.2419 -0.0259
14785W        W57702  26.777   3.294  22.276  0.0320  0.1649  0.0606
14786W        W57703  26.288   2.375  23.408 -0.0273  0.3940  0.1364
14787W        W57704  26.761   0.972  21.802 -0.0114 -0.0776 -0.1649
14788W        W57705  26.295   2.706  22.614  0.0916  0.1166  0.1119
14789W        W57706  26.097   2.008  22.565  0.2482 -0.1730 -0.0571
14790W        W57707  27.093   1.018  22.525  0.0001 -0.0135  0.1530
14791W        W57708  27.612   0.791  24.797 -0.0453  0.0469  0.0333
14792W        W57709  27.503   2.093  21.772  0.1574  0.0634 -0.0546
14793W        W57710  24.752   2.241  20.110 -0.1989 -0.0222 -0.0009
14794W        W57711  26.500   4.936  22.125 -0.1024 -0.2310 -0.3073
14795W        W57712  24.997   3.687  22.688  0.2076  0.2905 -0.1401
14796W        W57713  27.810   0.384  23.563 -0.2629 -0.3389  0.1380
14797W        W57714  26.690   2.838  21.518 -0.1147 -0.1530 -0.1556
14798W        W57715  25.209   0.448  17.880  0.1237 -0.2033  0.3827
14799W        W57716  25.664   0.924  24.316  0.2381  0.1476 -0.2707
14800W        W57717  27.639   3.180  25.650 -0.2054  0.1418 -0.0014
14801W        W57718  25.482   3.947  22.569 -0.0417  0.0561  0.1388
14802W        W57719  29.311   1.689  24.219  0.0559  0.0122 -0.0061
14803W        W57720  25.136   4.626  20.218  0.5607 -0.1101  0.2091
14804W        W57721  25.827   1.614  19.779 -0.1245  0.0474  0.0256
14805W        W57722  26.137   2.371  19.390 -0.0200 -0.2895 -0.0016
14806W        W57723  27.248   1.572  19.594 -0.2117  0.1341  0.1177
14807W        W57724  26.885   0.207  22.545 -0.1699  0.0530 -0.3139
14808W        W57725  27.112   3.524  23.313 -0.0239  0.2121  0.0579
14809W        W57726  25.964   1.715  23.143 -0.1323 -0.1411  0.4015
14810W        W57727  27.344   2.182  23.765  0.0147 -0.0018  0.0067
14811W        W57728  26.147  33.715  21.556  0.1397  0.2074  0.0724
14812W        W57729  27.611   0.444  24.059  0.1446 -0.4710  0.1662
14813W        W57730  26.342   2.254  23.890  0.0389  0.4195  0.2769
14814W        W57731  25.871   1.448  21.880 -0.0436 -0.0053 -0.1953
14815W        W57732  26.965   1.679  21.132  0.1988  0.1889 -0.4739
14816W        W57733  27.618   1.014  21.777 -0.1289  0.1816  0.0445
14817W        W57734  26.015   4.633  21.106  0.0785 -0.1271 -0.2706
14818W        W57735  26.819   0.335  20.235 -0.1910  0.1927  0.0928
14819W        W57736  25.620   0.361  23.758 -0.0013 -0.2748  0.2266
14820W        W57737  26.510   2.618  25.958  0.1460  0.2590  0.1081
14821W        W57738  27.774   1.615  18.245  0.2656 -0.2039 -0.1083
14822W        W57739  28.230   2.704  24.013  0.2023 -0.1368  0.3564
14823W        W57740  26.082   2.767  22.154  0.1212  0.3307 -0.0818
14824W        W57741  28.577  34.515  23.037 -0.5870  0.2476 -0.0369
14825W        W57742  25.659   0.725  22.094 -0.1100  0.0213  0.0678
14826W        W57743  27.814   2.874  22.279  0.1380 -0.3755 -0.1251
14827W        W57744  27.092   1.873  19.968 -0.0341 -0.0781 -0.1628
14828W        W57745  26.604   0.046  24.218 -0.0614 -0.3790 -0.2000
14829W        W57746  26.133  32.800  23.760 -0.1208 -0.2727  0.0959
14830W        W57747  26.993   3.613  20.348 -0.2589  0.1276 -0.1757
14831W        W57748  23.832   0.115  21.479  0.0447  0.1209  0.1880
14832W        W57749  29.077   1.572  23.135  0.3535  0.0170  0.2172
14833W        W57750  26.733   2.161  21.881 -0.0304  0.0576 -0.2911
14834W        W57751  24.772   3.848  21.456  0.0846  0.1950  0.2230
14835W        W57752  27.432   1.772  24.829  0.2994 -0.2717 -0.2191
14836W        W57753  27.433   3.579  25.086 -0.2104  0.1773  0.1253
14837W        W57754  24.284   4.301  19.834 -0.4791 -0.2192 -0.2860
14838W        W57755  25.331   1.345  22.728  0.0112  0.1055  0.1179
14839W        W57756  24.240   0.100  20.921  0.1756 -0.0297  0.0409
14840W        W57757  24.128   0.526  21.614 -0.0007 -0.1963 -0.4279
14841W        W57758  25.016   2.807  23.779  0.2869 -0.1312  0.2348
14842W        W57759  28.723   1.154  21.710  0.1116  0.1962  0.0876
14843W        W57760  27.322   0.688  23.628  0.0332  0.2425  0.0881
14844W        W57761  25.997  34.583  23.618 -0.0500 -0.1716 -0.0319
14845W        W57762  24.302   2.247  20.347  0.0818 -0.0935 -0.1487
14846W        W57763  27.003   4.526  21.377  0.0296  0.1570  0.1106
14847W        W57764  30.429   1.128  21.378  0.1360 -0.1287  0.0287
14848W        W57765  28.609   2.287  20.294 -0.1535  0.0901  0.0412
14849W        W57766  23.976   1.326  21.543  0.2343  0.1207  0.0070
14850W        W57767  26.714  33.293  21.925  0.2278 -0.1735  0.1009
14851W        W57768  26.423  33.396  22.419 -0.2329  0.3696  0.3231
14852W        W57769  25.237   0.151  21.499 -0.0341 -0.0722  0.1869
14853W        W57770  27.168   1.250  21.951 -0.0327  0.1855 -0.1065
14854W        W57771  24.833  33.095  19.658 -0.0971  0.1219 -0.1341
14855W        W57772  28.386   1.960  21.424  0.0715  0.2507 -0.0049
14856W        W57773  24.553   1.529  20.240  0.2566 -0.0591  0.0985
14857W        W57774  25.463   0.967  20.988  0.3264 -0.0409 -0.2765
14858W        W57775  28.287   0.600  22.398  0.1075  0.2016  0.0929
14859W        W57776  28.164   4.720  22.651 -0.1109 -0.3201 -0.1143
14860W        W57777  28.320   2.875  22.071 -0.1362  0.0548  0.0194
14861W        W57778  27.712   3.365  21.556 -0.2755  0.1866 -0.0740
14862W        W57779  27.079   1.237  23.309 -0.0817 -0.3263 -0.1107
14863W        W57780  24.712  33.005  20.863  0.1590  0.0152 -0.0866
14864W        W57781  26.954   3.104  21.842 -0.0064 -0.0316 -0.0432
14865W        W57782  27.205   3.464  21.602  0.0613 -0.2344  0.3127
14866W        W57783  25.635   0.476  21.626  0.0785 -0.2197 -0.0446
14867W        W57784  27.309   2.433  22.865 -0.1048  0.1453  0.0461
14868W        W57785  25.184   1.905  20.942 -0.1728  0.2036 -0.0048
14869W        W57786  26.755   2.793  22.183 -0.1092  0.2041 -0.1632
14870W        W57787  27.906  32.821  22.720  0.0855  0.2588  0.1222
14871W        W57788  25.574   1.444  22.324 -0.0113 -0.1516  0.2808
14872W        W57789  27.862   1.231  22.168 -0.0564  0.1100  0.1176
14873W        W57790  28.386  34.456  19.754  0.2319  0.1209 -0.0363
14874W        W57791  26.802   3.947  22.434  0.0721  0.2061 -0.4263
14875W        W57792  25.659   2.140  20.737  0.2628  0.2993  0.0958
14876W        W57793  24.641   0.759  21.518 -0.2961 -0.2780 -0.2942
14877W        W57794  26.252   2.971  20.032 -0.0149  0.1910 -0.0795
14878W        W57795  27.927   1.934  22.554 -0.0428 -0.1424 -0.0054
14879W        W57796  26.205   2.373  25.103  0.0245  0.1382  0.3062
14880W        W57797  26.763   1.132  22.878 -0.0667 -0.0032  0.0734
14881W        W57798  24.185   1.589  19.145 -0.3884 -0.0644  0.2348
14882W        W57799  26.555   2.327  25.514 -0.1121 -0.0736  0.2619
14883W        W57800  25.293  33.376  23.867 -0.1655  0.2075 -0.4611
14884W        W57801  27.974   1.263  23.136 -0.1628  0.2037  0.4250
14885W        W57802  26.227   2.911  25.002 -0.0425  0.0626 -0.2735
14886W        W57803  25.584   3.561  19.671  0.2044  0.0393  0.0704
14887W        W57804  27.699   1.621  19.303  0.2656 -0.1681 -0.0979
14888W        W57805  27.648   1.242  20.158 -0.0737  0.1395 -0.2049
14889W        W57806  24.591   1.803  23.815  0.0472  0.0367  0.0711
14890W        W57807  25.781   2.645  20.799  0.0500 -0.0434 -0.0644
14891W        W57808  26.876   0.797  23.434 -0.1064 -0.1516  0.1569
14892W        W57809  26.765   0.662  21.418  0.1773  0.1087  0.2163
14893W        W57810  27.903   3.804  20.468  0.1602  0.2329  0.0673
14894W        W57811  24.722   2.346  22.610  0.2371 -0.2462  0.0516
14895W        W57812  28.272   1.746  24.659  0.1482  0.0283  0.1905
14896W        W57813  26.561   2.468  20.207 -0.0211 -0.1401 -0.1691
14897W        W57814  25.984   0.351  23.328  0.3373 -0.0401  0.1771
14898W        W57815  27.115   2.380  20.837  0.0217  0.1014  0.0583
14899W        W57816  26.141   0.648  20.281 -0.0409  0.0773  0.0252
14900W        W57817  23.512   3.925  20.668 -0.1457 -0.1283 -0.0589
14901W        W57818  27.770   0.044  23.064 -0.1258  0.0946 -0.0022
14902W        W57819  28.042   0.187  20.607 -0.1832  0.0654 -0.1221
14903W        W57820  26.011   0.097  22.309 -0.0311  0.0911 -0.0284
14904W        W57821  28.593  34.047  22.817  0.1791  0.0054  0.0360
14905W        W57822  26.023   2.723  21.668  0.1440  0.1805  0.1057
14906W        W57823  27.214   2.147  24.601  0.1832  0.0687  0.2024
14907W        W57824  26.622   2.982  20.429  0.2166  0.4822 -0.3333
14908W        W57825  27.207   0.863  21.535  0.0562 -0.1048  0.2321
14909W        W57826  26.058   2.322  22.954  0.0687 -0.0935 -0.1404
14910W        W57827  25.879   3.993  22.895  0.2270 -0.1720  0.0139
14911W        W57828  26.945   1.336  25.570 -0.0477  0.1460 -0.1632
14912W        W57829  25.694   1.806  21.110  0.1917 -0.0519  0.1148
14913W        W57830  28.177   0.776  23.359 -0.0411  0.2005 -0.6098
14914W        W57831  26.354   0.557  21.111 -0.3237 -0.1672  0.2188
14915W        W57832  26.633   4.033  20.449 -0.0792 -0.0651  0.2855
14916W        W57833  26.577   2.399  20.694 -0.1328 -0.0320 -0.0009
14917W        W57834  24.740   0.553  23.865 -0.1858 -0.1026 -0.0870
14918W        W57835  27.135   3.684  21.098 -0.1918 -0.1047  0.0993
14919W        W57836  25.649   3.728  20.547 -0.0338 -0.0652  0.0786
14920W        W57837  30.361   1.453  22.118 -0.1306 -0.0249 -0.0804
14921W        W57838  26.479   4.495  21.237  0.0104 -0.1327 -0.1685
14922W        W57839  27.894  33.836  22.566  0.1502  0.1188  0.0323
14923W        W57840  25.104   3.922  23.413  0.1750  0.0601  0.0001
14924W        W57841  26.072   2.113  19.885  0.2369  0.0069  0.1106
14925W        W57842  25.007   1.348  19.333 -0.3048 -0.2607 -0.1302
14926W        W57843  27.020  34.416  23.865 -0.0245 -0.0482  0.1402
14927W        W57844  26.763   1.484  22.153  0.1574  0.0966  0.0361
14928W        W57845  25.671   1.234  23.096  0.0836 -0.0190 -0.2005
14929W        W57846  27.329   0.560  21.945 -0.2616 -0.0727  0.0907
14930W        W57847  24.874   3.203  22.665 -0.1867  0.0774  0.0285
14931W        W57848  25.357   2.855  21.833  0.3384 -0.0419 -0.2134
14932W        W57849  26.007  33.991  20.548 -0.2440  0.1092  0.2022
14933W        W57850  27.117   2.807  20.594 -0.3142 -0.1346  0.2081
14934W        W57851  27.555   1.259  24.962  0.1162  0.3356 -0.0906
14935W        W57852  24.281   0.791  19.223  0.4409  0.1136  0.4526
14936W        W57853  27.938   0.690  22.015  0.3515 -0.0272 -0.2355
14937W        W57854  26.688   2.044  21.414 -0.1436 -0.1023 -0.0474
14938W        W57855  25.667   2.184  24.018 -0.1501 -0.2148 -0.0151
14939W        W57856  28.775   2.372  22.586  0.1139 -0.0996 -0.0790
14940W        W57857  23.155   0.970  20.074 -0.1425  0.1199  0.1745
14941W        W57858  25.347   2.419  21.549 -0.0277 -0.0110  0.0101
14942W        W57859  25.938   1.102  22.271  0.0311  0.0182  0.2789
14943W        W57860  26.738   0.537  24.437  0.2803  0.1574  0.2680
14944W        W57861  24.933  34.427  21.540  0.2296 -0.3261 -0.0438
14945W        W57862  25.891  33.438  21.228  0.0742  0.0231  0.1478
14946W        W57863  26.115   2.241  20.918 -0.3980 -0.0817 -0.0479
14947W        W57864  27.471   2.182  20.131 -0.1350  0.2903  0.4233
14948W        W57865  26.943  34.010  21.509  0.1217  0.0192 -0.0614
14949W        W57866  27.511   4.405  23.627 -0.0388 -0.3005 -0.1278
14950W        W57867  27.734   0.429  20.941  0.0525 -0.0254 -0.0099
14951W        W57868  27.123   2.865  21.185 -0.1088  0.1986  0.0355
14952W        W57869  28.004   0.973  22.527 -0.2115  0.2587  0.0052
14953W        W57870  22.853   1.420  20.279  0.2574  0.0609 -0.0923
14954W        W57871  25.357   1.263  21.909  0.2729 -0.0585  0.4360
14955W        W57872  25.815   1.883  22.183 -0.1840  0.2962  0.0144
14956W        W57873  25.984  33.262  21.769 -0.3465 -0.0172 -0.0464
14957W        W57874  24.969   2.413  22.150 -0.1436 -0.1105  0.2192
14958W        W57875  24.269   2.120  19.807 -0.0361 -0.0608  0.0967
14959W        W57876  26.306   3.178  22.887 -0.1194  0.1250 -0.0750
14960W        W57877  27.566  34.655  19.837 -0.3859 -0.0739 -0.0026
14961W        W57878  26.259   3.089  21.460  0.0679  0.5679  0.0785
14962W        W57879  25.970   1.414  22.647  0.1890  0.1914 -0.1127
14963W        W57880  31.292   0.280  22.491 -0.3426  0.3257 -0.2008
14964W        W57881  27.556   2.988  20.755 -0.0677  0.0512  0.4764
14965W        W57882  28.004   1.705  24.141  0.1956  0.0538 -0.1777
14966W        W57883  24.441  34.222  23.925  0.0322  0.1790 -0.0380
14967W        W57884  26.805   1.446  24.247 -0.1344 -0.0959  0.0941
14968W        W57885  24.270  34.634  22.941 -0.0157  0.5152  0.2423
14969W        W57886  27.950   1.516  23.580 -0.0145 -0.2336  0.0531
14970W        W57887  25.469   2.741  22.304  0.5617  0.0228 -0.3472
14971W        W57888  26.765   0.364  21.804  0.2167 -0.0280  0.3039
14972W        W57889  25.967  32.423  21.501  0.3084 -0.0157 -0.0945
14973W        W57890  25.582   2.739  23.170  0.0911  0.0405 -0.1316
14974W        W57891  27.925   2.231  22.005 -0.2201 -0.2118  0.3176
14975W        W57892  24.831   0.968  21.944  0.2603 -0.0472 -0.1241
14976W        W57893  29.256   0.280  21.492 -0.2445 -0.0394 -0.0035
14977W        W57894  28.430   1.556  23.686  0.3466 -0.0476  0.0567
14978W        W57895  26.700   1.397  23.568 -0.0215 -0.0568 -0.2635
14979W        W57896  25.451   3.087  20.799  0.1588  0.0598 -0.1591
14980W        W57897  25.750   3.151  21.589 -0.2886  0.0657  0.0518
14981W        W57898  25.760   0.381  24.240  0.0315  0.0422 -0.2206
14982W        W57899  30.109   0.731  21.314  0.0171 -0.0596  0.0547
14983W        W57900  28.405  32.841  22.583  0.1517 -0.1757 -0.0140
14984W        W57901  26.498  33.195  22.932  0.0096  0.1142 -0.1186
14985W        W57902  27.544  34.293  22.824 -0.1008  0.0496 -0.0428
14986W        W57903  25.233   1.208  24.199 -0.1448  0.0400 -0.1439
14987W        W57904  25.657   1.385  24.162  0.0113 -0.1599  0.3215
14988W        W57905  26.142   3.469  24.162 -0.2219  0.1844  0.0653
14989W        W57906  27.244   0.135  22.123  0.1003 -0.3097 -0.2938
14990W        W57907  27.753  32.853  21.706 -0.0010 -0.1447 -0.0899
14991W        W57908  28.746   0.449  20.998  0.1974  0.0612  0.0361
14992W        W57909  26.746   0.685  20.851  0.2818  0.1942  0.0021
14993W        W57910  25.366  34.387  22.274  0.0399  0.0696 -0.0691
14994W        W57911  28.419   0.664  21.954 -0.0512 -0.0895  0.0704
14995W        W57912  27.416   1.074  19.714 -0.1772  0.3055  0.0980
14996W        W57913  26.617   1.569  25.205 -0.1711 -0.1339  0.1742
14997W        W57914  26.679   2.837  20.905 -0.0699 -0.2352 -0.0862
14998W        W57915  27.735   3.711  22.962 -0.2343 -0.0647 -0.0658
14999W        W57916  27.506   1.557  21.864  0.1534  0.2416  0.0801
15000W        W57917  24.243   2.195  22.451  0.0052  0.1236 -0.2935
15001W        W57918  26.527   2.115  24.480  0.0706 -0.0603 -0.1795
15002W        W57919  24.524   1.072  19.756 -0.1786  0.1465  0.1300
15003W        W57920  26.488   2.617  19.713 -0.1659  0.0402 -0.1054
15004W        W57921  28.281   2.445  22.359  0.1373 -0.2504 -0.0899
15005W        W57922  28.563   3.660  23.598  0.2703  0.1826 -0.2145
15006W        W57923  25.515   1.451  20.693  0.0295  0.0808  0.3444
15007W        W57924  28.437   1.207  23.245  0.0093  0.1841  0.2422
15008W        W57925  24.241   1.645  21.832  0.0944  0.2222  0.1177
15009W        W57926  26.475   0.281  22.226 -0.1093  0.0950  0.0074
15010W        W57927  26.397   3.597  22.155  0.3035 -0.1786  0.1145
15011W        W57928  26.666   3.758  24.862  0.2442 -0.3549  0.1611
15012W        W57929  27.475   2.540  22.059 -0.1382 -0.1650 -0.1336
15013W        W57930  25.976  32.985  23.290  0.3531  0.0528  0.1856
15014W        W57931  28.910  33.628  22.901 -0.5114  0.1646  0.1188
15015W        W57932  25.832   2.488  22.487  0.1419  0.0739 -0.2066
15016W        W57933  28.455   1.817  24.125  0.3524  0.0361 -0.3706
15017W        W57934  27.160   0.896  24.971  0.1129  0.3815  0.3976
15018W        W57935  24.825   0.427  21.962  0.0145 -0.1757  0.2078
15019W        W57936  27.855   3.041  24.057  0.0163 -0.0131  0.0202
15020W        W57937  29.726   0.812  20.881 -0.1691  0.1006 -0.1527
15021W        W57938  25.964   2.519  23.706  0.1063  0.2199 -0.0969
15022W        W57939  24.487   1.324  22.243  0.1424  0.1705 -0.2130
15023W        W57940  26.636   2.680  24.255 -0.0749  0.0243 -0.2929
15024W        W57941  26.772   2.456  21.185 -0.0612  0.0854  0.1220
15025W        W57942  27.435   1.364  22.349  0.1968 -0.0186  0.2088
15026W        W57943  25.224   1.846  19.971 -0.0297 -0.2616  0.0133
15027W        W57944  25.740   3.776  25.398 -0.1536 -0.2929  0.0404
15028W        W57945  26.080   1.422  21.435  0.0284  0.0269  0.0600
15029W        W57946  25.051   1.962  23.926  0.0924  0.0363 -0.2076
15030W        W57947  27.953   0.776  19.762 -0.1341 -0.0275  0.0159
15031W        W57948  25.474   1.339  21.376 -0.1651  0.0740 -0.1122
15032W        W57949  27.999   3.529  23.362  0.0873  0.3790  0.0726
15033W        W57950  25.196   0.478  19.294 -0.4771  0.2067 -0.0103
15034W        W57951  26.777   1.602  23.099 -0.3759  0.1205 -0.1537
15035W        W57952  25.390   4.191  20.613  0.1449 -0.0745  0.2412
15036W        W57953  27.142   4.053  20.072  0.0894 -0.1187  0.0183
15037W        W57954  26.015   3.393  24.761  0.2208  0.1675 -0.1492
15038W        W57955  30.070   2.861  23.518  0.2908  0.1069  0.0750
15039W        W57956  28.480   2.168  22.935 -0.0216  0.3506  0.2859
15040W        W57957  28.957   2.084  23.090 -0.0515 -0.0834  0.5483
15041W        W57958  27.707  34.521  22.157  0.0435 -0.1678 -0.0049
15042W        W57959  28.265   2.878  22.630 -0.1722 -0.0085 -0.0509
15043W        W57960  26.546  33.662  23.403 -0.0114  0.3321  0.1623
15044W        W57961  26.129   0.165  20.302 -0.0872 -0.2589  0.0005
15045W        W57962  25.470   1.777  23.803  0.0195 -0.1531  0.1864
15046W        W57963  27.112  34.145  23.063 -0.3140 -0.2149  0.1927
15047W        W57964  25.998   1.811  23.962 -0.3306 -0.0502 -0.1493
15048W        W57965  26.931   3.707  22.029  0.0420 -0.3529 -0.0248
15049W        W57966  25.643   0.197  20.648 -0.0162 -0.1112  0.1235
15050W        W57967  26.550   2.878  23.231 -0.0456  0.2118 -0.3903
15051W        W57968  29.841   0.072  24.515 -0.0821  0.2576 -0.0923
15052W        W57969  27.597   2.439  20.528 -0.1549 -0.2225  0.1716
15053W        W57970  26.189   3.223  22.372 -0.0507 -0.1012  0.1754
15054W        W57971  27.885   2.635  20.897  0.2991  0.3529  0.0755
15055W        W57972  25.949   4.071  19.813  0.0211  0.1181 -0.0110
15056W        W57973  27.045   2.862  23.094  0.2647 -0.4702 -0.1014
15057W        W57974  24.852   1.077  20.242  0.0673 -0.1516  0.0585
15058W        W57975  30.395   1.286  19.757 -0.1770  0.1616  0.0508
15059W        W57976  25.127   2.550  23.227  0.3591  0.2075  0.0939
15060W        W57977  29.171   0.077  22.960 -0.0994 -0.0474  0.3344
15061W        W57978  25.376   1.902  21.483  0.0423  0.2055  0.0706
15062W        W57979  26.245   1.669  22.169 -0.2734 -0.0971 -0.0677
15063W        W57980  25.393   2.416  23.661  0.0451  0.0134 -0.0110
15064W        W57981  25.262   0.740  23.755  0.0357 -0.2099 -0.0194
15065W        W57982  26.416   0.779  22.167 -0.1159  0.4015  0.0273
15066W        W57983  29.130   3.583  21.863  0.1968  0.0405 -0.0343
15067W        W57984  24.993   2.755  22.536  0.1130 -0.0979 -0.0974
15068W        W57985  25.968   1.138  24.664  0.0097  0.0857  0.1759
15069W        W57986  26.201  32.953  20.531 -0.1618 -0.0479  0.0834
15070W        W57987  26.909   1.091  21.077 -0.3094  0.1053 -0.1534
15071W        W57988  25.676  34.133  21.341  0.0845  0.0910 -0.0583
15072W        W57989  26.404   1.185  22.414  0.0192  0.2730  0.0183
15073W        W57990  27.352   1.876  24.157  0.1203  0.0413  0.2629
15074W        W57991  24.446  32.863  22.220  0.0972 -0.1443 -0.0135
15075W        W57992  27.653   1.872  22.162 -0.2653 -0.2536  0.1390
15076W        W57993  28.734   1.633  22.741  0.1031  0.1703  0.0383
15077W        W57994  25.887   4.284  20.682  0.2932 -0.3604  0.1564
15078W        W57995  28.482  34.183  22.002  0.0656  0.2904 -0.1405
15079W        W57996  29.659   2.812  24.505 -0.0045 -0.0414 -0.0123
15080W        W57997  25.691  34.327  23.205  0.0179 -0.1583 -0.4273
15081W        W57998  28.301   3.656  24.029  0.2098  0.1793  0.1664
15082W        W57999  29.749   3.189  22.114  0.2447 -0.1900 -0.2455
15083W        W58000  26.693  34.431  20.488 -0.0388 -0.0409  0.2234
15084W        W58001  23.514   0.362  23.368 -0.2234  0.1979 -0.1488
15085W        W58002  26.410   1.002  21.280 -0.1072 -0.4165  0.1895
15086W        W58003  28.400   1.179  22.094 -0.1422  0.0680 -0.1888
15087W        W58004  27.829  34.015  21.882  0.1171  0.0114 -0.1802
15088W        W58005  28.888   3.386  19.664 -0.0566 -0.2049  0.0729
15089W        W58006  31.196   0.781  22.684 -0.0469 -0.2698  0.0167
15090W        W58007  25.860   3.806  23.920 -0.1482  0.1297  0.0176
15091W        W58008  26.291   3.719  23.710  0.0332 -0.1523  0.0141
15092W        W58009  25.646   0.602  20.319 -0.2380  0.0072  0.2341
15093W        W58010  27.341   2.455  24.234  0.1027  0.1006  0.0037
15094W        W58011  26.442   1.625  22.695  0.3291 -0.1892  0.0274
15095W        W58012  24.526   1.986  18.817 -0.4290  0.2321  0.0436
15096W        W58013  27.701   1.310  21.396 -0.1366  0.2176  0.0729
15097W        W58014  25.769   2.314  21.286 -0.0027 -0.1249 -0.1715
15098W        W58015  31.497   2.172  21.652  0.0363 -0.2595  0.0310
15099W        W58016  26.215   2.163  22.029 -0.1277  0.2876  0.0413
15100W        W58017  27.675  33.745  21.039  0.1484 -0.1561  0.0023
15101W        W58018  26.320   0.645  21.640 -0.1720  0.2059  0.2410
15102W        W58019  25.847   2.463  24.825 -0.0619 -0.2838  0.1693
15103W        W58020  24.504   2.368  21.147  0.1686  0.1078  0.1761
15104W        W58021  25.790   1.914  20.262 -0.0573 -0.3685  0.1086
15105W        W58022  27.640   2.621  23.760 -0.1420 -0.1635  0.0242
15106W        W58023  25.742   0.634  24.722 -0.2225 -0.0549 -0.0879
15107W        W58024  26.038   1.846  24.857  0.0915 -0.2952 -0.0521
15108W        W58025  24.559  34.084  22.823  0.1196  0.1276  0.0069
15109W        W58026  25.266  34.560  22.904 -0.1351  0.2858  0.2116
15110W        W58027  27.036   1.772  21.652  0.0687 -0.1087  0.3644
15111W        W58028  27.139   0.823  22.984  0.0772 -0.0572 -0.0605
15112W        W58029  26.586  34.123  21.929  0.1475 -0.1047  0.0387
15113W        W58030  28.601   1.699  23.207 -0.0952  0.0052 -0.0884
15114W        W58031  27.119   1.942  23.176  0.5999 -0.0393  0.1628
15115W        W58032  27.807  34.139  19.795  0.2412  0.1978 -0.0119
15116W        W58033  29.660   3.980  23.847 -0.1718  0.1887  0.0690
15117W        W58034  22.972   3.978  20.618  0.0968 -0.2262 -0.0034
15118W        W58035  26.338  34.357  24.438  0.0898 -0.3979 -0.1008
15119W        W58036  26.820  34.578  25.318  0.2568  0.0675 -0.0909
15120W        W58037  24.037   1.204  19.412 -0.0363 -0.2547 -0.1690
15121W        W58038  26.330   1.296  23.142 -0.3877 -0.2218  0.1737
15122W        W58039  26.118   3.530  21.270  0.2079 -0.1147 -0.0667
15123W        W58040  28.406   1.863  20.417 -0.1283  0.1122  0.0127
15124W        W58041  26.052   2.295  25.710 -0.1537  0.0529 -0.1058
15125W        W58042  26.327   1.324  23.950  0.1882 -0.0539 -0.3224
15126W        W58043  25.203  33.406  23.227 -0.3313 -0.4135 -0.1067
15127W        W58044  26.738   1.963  20.393 -0.2281 -0.1508 -0.1714
15128W        W58045  28.336   2.150  23.854  0.1207  0.1431  0.5050
15129W        W58046  28.826   3.026  21.959  0.0775 -0.1533  0.1642
15130W        W58047  27.923   0.648  24.386  0.0401 -0.1503 -0.2754
15131W        W58048  24.542   3.049  21.805 -0.2852 -0.2269  0.2750
15132W        W58049  26.685   0.700  23.876  0.4480 -0.2444 -0.1074
15133W        W58050  27.069   1.975  25.140 -0.1799 -0.1142 -0.0026
15134W        W58051  28.567   2.008  21.913 -0.0279  0.0506 -0.0546
15135W        W58052  25.394   2.168  22.254  0.0993 -0.4187  0.0607
15136W        W58053  27.575   0.559  21.378 -0.2053 -0.2035  0.0438
15137W        W58054  28.195   2.208  21.003 -0.2395 -0.1969  0.1829
15138W        W58055  25.146   0.813  24.612 -0.1236  0.1614 -0.2902
15139W        W58056  25.447   0.795  23.306 -0.1965  0.0117 -0.1810
15140W        W58057  27.318  34.452  21.694 -0.1722  0.1598 -0.1014
15141W        W58058  27.857   2.851  20.372  0.0121 -0.1105 -0.1098
15142W        W58059  28.290   0.267  23.546 -0.0047  0.1844 -0.0304
15143W        W58060  26.262   1.715  20.060 -0.2767  0.3608 -0.1071
15144W        W58061  28.237   1.285  21.143 -0.1006 -0.0064 -0.1000
15145W        W58062  28.723   3.536  22.698  0.1616  0.1122  0.2936
15146W        W58063  27.902   3.695  24.857  0.2052 -0.2999  0.1828
15147W        W58064  29.600   4.656  23.821 -0.1023 -0.0829 -0.0617
15148W        W58065  27.538   0.890  22.288 -0.0817  0.0668 -0.0333
15149W        W58066  26.983  33.672  23.107 -0.2323  0.4176  0.1040
15150W        W58067  23.995   1.723  19.575 -0.3163  0.2134 -0.2426
15151W        W58068  26.731   2.116  23.607  0.2401  0.3675 -0.0720
15152W        W58069  27.264   1.439  24.455  0.0569 -0.0182  0.0454
15153W        W58070  24.728   0.249  21.441  0.0379  0.1068 -0.0611
15154W        W58071  27.062   0.010  19.700 -0.0745 -0.0174 -0.1137
15155W        W58072  25.251   3.188  21.273 -0.2793 -0.1599  0.4234
15156W        W58073  26.928   2.131  24.197  0.0294  0.1506  0.0267
15157W        W58074  25.680   3.223  28.348  0.0994  0.0212  0.2082
15158W        W58075  26.011   2.142  24.359  0.2014  0.1004 -0.2091
15159W        W58076  28.420   0.020  21.307  0.2382  0.2214 -0.2454
15160W        W58077  28.593   2.091  24.982  0.2145  0.0074 -0.1713
15161W        W58078  26.324  33.886  26.609 -0.0462  0.3077 -0.0242
15162W        W58079  28.242   3.574  25.239  0.0518  0.0070 -0.0295
15163W        W58080  27.761  34.403  27.762 -0.2335  0.0901  0.0757
15164W        W58081  28.343   4.700  25.271 -0.1125 -0.1355 -0.1295
15165W        W58082  31.007   2.321  26.345 -0.2825  0.0252 -0.1071
15166W        W58083  27.840   0.578  22.979  0.0851 -0.1626 -0.0886
15167W        W58084  26.073   3.983  26.508 -0.1194  0.0985 -0.1170
15168W        W58085  26.043   1.409  26.618 -0.0015  0.3315 -0.1324
15169W        W58086  26.379   0.223  24.588 -0.0811  0.1381 -0.2812
15170W        W58087  26.662  33.966  24.161 -0.1208 -0.5215 -0.4401
15171W        W58088  27.985  34.549  24.928 -0.2907 -0.2396  0.1284
15172W        W58089  27.285   1.667  25.492  0.2773 -0.4488  0.0285
15173W        W58090  23.860   2.716  25.905  0.2008  0.4413  0.1081
15174W        W58091  26.467  34.648  26.260 -0.1291 -0.0643  0.0121
15175W        W58092  27.054   2.725  26.272 -0.0357  0.1615 -0.2925
15176W        W58093  26.995  34.509  26.723 -0.4724  0.0089 -0.0586
15177W        W58094  27.763   1.100  26.340  0.0493  0.0707 -0.0863
15178W        W58095  26.729   3.002  22.657  0.4210 -0.0954 -0.1341
15179W        W58096  26.594   1.036  25.170 -0.0016 -0.0813  0.2782
15180W        W58097  26.019   2.009  27.021 -0.0646 -0.0900  0.3479
15181W        W58098  24.632   3.471  26.397  0.0846 -0.0824  0.1283
15182W        W58099  28.598   0.373  24.512  0.2471 -0.1794 -0.0764
15183W        W58100  26.615   0.584  25.812  0.1488  0.1310  0.2024
15184W        W58101  28.301   1.872  25.347 -0.0215 -0.0777  0.0910
15185W        W58102  25.361   2.281  27.562  0.2079  0.0403  0.1571
15186W        W58103  28.654   2.091  26.088 -0.2944 -0.0035 -0.0005
15187W        W58104  25.893   3.968  25.863 -0.3493 -0.0110 -0.2235
15188W        W58105  27.701   4.445  26.035  0.1494 -0.2616  0.1390
15189W        W58106  27.080   0.275  25.048  0.0254  0.0047 -0.1081
15190W        W58107  28.208   1.229  24.560 -0.0055 -0.3408  0.0177
15191W        W58108  28.586   3.871  25.478 -0.2756 -0.1406 -0.0578
15192W        W58109  28.558   4.249  29.769 -0.2009  0.0315  0.0169
15193W        W58110  27.999   1.128  24.080 -0.1895  0.1045 -0.1489
15194W        W58111  26.696   1.826  27.806 -0.0854 -0.0423 -0.0298
15195W        W58112  27.232   3.471  26.902 -0.2728  0.1648  0.1426
15196W        W58113  28.202   2.322  26.224  0.1096  0.0736  0.1461
15197W        W58114  26.824   0.467  26.239 -0.3016 -0.2332 -0.1438
15198W        W58115  26.855   0.374  23.059  0.3458 -0.0902 -0.1968
15199W        W58116  30.963   2.592  25.922 -0.1669  0.2150 -0.2905
15200W        W58117  25.657   1.701  26.694  0.0943  0.1478  0.0327
15201W        W58118  27.425   4.842  25.432  0.1267 -0.1573  0.0243
15202W        W58119  28.070   0.403  25.832  0.1736  0.0722  0.0672
15203W        W58120  25.718   1.969  26.198 -0.0106  0.2616  0.0356
15204W        W58121  27.581   3.966  24.491 -0.0289  0.0051 -0.4251
15205W        W58122  27.534   0.951  23.303 -0.2297  0.1232 -0.0128
15206W        W58123  24.989   0.677  25.851  0.2388 -0.0516  0.0069
15207W        W58124  27.784  34.484  28.259 -0.1540 -0.3836  0.2223
15208W        W58125  26.090   3.231  26.773 -0.0705 -0.0949 -0.0250
15209W        W58126  26.278   0.011  25.046 -0.0449  0.0857 -0.0595
15210W        W58127  26.684   0.701  28.333 -0.1708  0.0459 -0.0165
15211W        W58128  28.070   2.704  25.954  0.1701 -0.2552  0.3214
15212W        W58129  30.053   0.914  27.269 -0.0088 -0.2084  0.1190
15213W        W58130  25.003   2.016  27.251  0.0106 -0.0229  0.0662
15214W        W58131  27.390   1.743  26.677  0.1937 -0.0219  0.2333
15215W        W58132  28.747   0.517  24.990  0.1196  0.0591  0.4004
15216W        W58133  29.499   2.778  23.348 -0.0999  0.0107  0.1637
15217W        W58134  27.541   1.460  23.919  0.0297  0.0347  0.1616
15218W        W58135  25.678   1.394  24.985  0.3750  0.2642  0.0166
15219W        W58136  25.199   2.196  26.367  0.1937  0.0465 -0.0595
15220W        W58137  24.781   3.043  27.770 -0.1992  0.0122  0.2105
15221W        W58138  25.577   2.017  24.754  0.0844  0.2214 -0.2246
15222W        W58139  28.869   1.727  25.358 -0.0371 -0.0465 -0.1375
15223W        W58140  25.458   3.591  28.024  0.2205 -0.0758  0.1942
15224W        W58141  29.456  34.383  24.563 -0.0002 -0.2600 -0.0168
15225W        W58142  26.291   1.628  26.236  0.3764  0.1370  0.2279
15226W        W58143  28.687   2.710  27.383  0.2351  0.0738  0.1343
15227W        W58144  29.794   0.760  23.918  0.1953  0.1919  0.1837
15228W        W58145  29.150  33.746  25.411  0.1723  0.2540  0.1422
15229W        W58146  29.564   0.190  24.990  0.0836 -0.1903 -0.1929
15230W        W58147  27.744   0.071  25.452  0.0733  0.0218 -0.2309
15231W        W58148  27.493   2.695  25.682 -0.2334  0.2664 -0.0109
15232W        W58149  29.370   2.235  27.125  0.0090  0.0540 -0.2281
15233W        W58150  30.876   0.808  23.954  0.0595  0.2500  0.1448
15234W        W58151  26.021   2.742  25.832 -0.2525  0.1889  0.2230
15235W        W58152  28.227   1.306  26.377 -0.0110 -0.0904 -0.2524
15236W        W58153  29.151   5.123  26.897  0.0327  0.0011  0.2215
15237W        W58154  25.216   2.975  24.810  0.1370  0.0423 -0.1123
15238W        W58155  25.157   4.327  27.579  0.0274 -0.0310  0.1160
15239W        W58156  25.587   2.389  25.935  0.0583 -0.3592  0.0646
15240W        W58157  26.307   0.712  26.848 -0.1533 -0.0705  0.2075
15241W        W58158  25.622   1.489  25.941 -0.2145 -0.0922  0.2785
15242W        W58159  28.708   0.815  23.315 -0.0027 -0.1305 -0.0962
15243W        W58160  27.306  34.476  25.232 -0.3799 -0.2996  0.0808
15244W        W58161  30.660  34.434  25.917 -0.1363 -0.4067 -0.2097
15245W        W58162  25.964  34.161  26.825  0.0222  0.0047 -0.2921
15246W        W58163  30.204   5.237  26.160  0.1087 -0.0388 -0.0949
15247W        W58164  29.610  34.376  25.109 -0.2968 -0.0986  0.0135
15248W        W58165  28.861   0.679  22.833 -0.2261 -0.1638  0.5669
15249W        W58166  25.354   0.817  26.782 -0.0891  0.2174 -0.0365
15250W        W58167  26.191   0.787  25.952  0.3132  0.2390 -0.1813
15251W        W58168  28.786  33.446  27.993  0.1373 -0.1019 -0.2390
15252W        W58169  26.263   1.336  25.467 -0.1733 -0.2896 -0.1908
15253W        W58170  31.157   0.873  27.668 -0.1066 -0.0765 -0.3667
15254W        W58171  27.062  33.540  25.148 -0.0875 -0.2512  0.0106
15255W        W58172  30.023  34.155  25.404  0.0555 -0.3927 -0.1924
15256W        W58173  27.287   0.331  26.089 -0.0096 -0.2402  0.1794
15257W        W58174  24.730   2.717  26.952  0.3224  0.0059 -0.1787
15258W        W58175  29.236   1.699  26.465  0.0895  0.0341  0.0405
15259W        W58176  28.801   2.534  23.847  0.0032 -0.2636 -0.0135
15260W        W58177  28.627   1.344  28.847  0.0277  0.2342  0.1956
15261W        W58178  28.023   2.436  23.580  0.0947 -0.1342  0.1599
15262W        W58179  27.185   2.178  26.415  0.0702 -0.5116  0.2131
15263W        W58180  25.101   0.109  23.779 -0.0675  0.1464 -0.3203
15264W        W58181  24.844   3.079  26.258  0.0626 -0.1277  0.1660
15265W        W58182  28.299   0.877  25.633  0.1264 -0.0749  0.3538
15266W        W58183  25.633   1.241  26.334 -0.0850  0.0270 -0.1251
15267W        W58184  28.397   1.946  27.173 -0.1730  0.2296  0.1238
15268W        W58185  29.007   2.387  26.208 -0.1205  0.0003 -0.2340
15269W        W58186  26.713   2.377  28.595  0.1814  0.1437  0.0661
15270W        W58187  29.012   1.546  25.821 -0.0491  0.0101  0.2523
15271W        W58188  31.024   3.241  25.678  0.0572 -0.2228 -0.1102
15272W        W58189  29.239  34.208  25.334  0.1075  0.0191  0.0398
15273W        W58190  25.770  33.040  23.993  0.1222 -0.0565 -0.0121
15274W        W58191  27.049   4.446  23.580  0.0022 -0.1163  0.2250
15275W        W58192  26.333   2.565  24.682  0.2966  0.0192  0.0352
15276W        W58193  24.403   4.130  26.965 -0.4173  0.0976 -0.2532
15277W        W58194  29.357   2.160  23.993 -0.1208  0.1428  0.0588
15278W        W58195  32.135   1.092  26.516 -0.0404  0.2290  0.0382
15279W        W58196  25.295   1.541  27.238 -0.0225 -0.1727  0.2240
15280W        W58197  28.072   1.490  27.302 -0.0070 -0.1482  0.1722
15281W        W58198  25.201   1.155  26.025  0.1454  0.0415 -0.0097
15282W        W58199  26.476   2.746  28.216  0.3000 -0.2321  0.0264
15283W        W58200  26.960  34.117  27.126  0.0125 -0.0351  0.2606
15284W        W58201  26.455   1.608  24.654 -0.1165 -0.0960  0.1903
15285W        W58202  25.586   3.663  27.534 -0.1910 -0.3643 -0.0445
15286W        W58203  28.719   1.029  22.479 -0.3915  0.2306 -0.0461
15287W        W58204  24.830   1.097  23.658 -0.2973  0.1105 -0.2082
15288W        W58205  29.012  34.349  24.819  0.0407 -0.0498  0.1556
15289W        W58206  26.989   2.500  29.588  0.0866 -0.0680  0.3983
15290W        W58207  29.065   2.811  26.425 -0.0634 -0.2900  0.0684
15291W        W58208  26.961   2.870  26.811 -0.0640 -0.2618 -0.0287
15292W        W58209  26.454   0.771  23.103 -0.0553 -0.1354  0.0132
15293W        W58210  31.196   1.790  24.752 -0.0549 -0.2393  0.0989
15294W        W58211  23.976   2.795  27.297  0.2812  0.0404  0.1048
15295W        W58212  29.441   3.783  29.907 -0.2320  0.0934 -0.1197
15296W        W58213  29.091   3.826  25.326  0.1092  0.3694 -0.0158
15297W        W58214  28.323   1.021  27.124  0.1577 -0.2759 -0.0499
15298W        W58215  26.394   3.206  23.650  0.2300  0.2381 -0.0839
15299W        W58216  27.063  33.313  26.023 -0.1478  0.2668  0.0641
15300W        W58217  25.854   3.348  23.676  0.2054 -0.2432 -0.0576
15301W        W58218  29.127   0.269  25.785  0.5445  0.2015  0.1010
15302W        W58219  29.042  34.194  24.314 -0.0530  0.3234 -0.0829
15303W        W58220  27.931  34.517  25.884 -0.2162  0.4549  0.0753
15304W        W58221  28.134   2.773  27.373  0.2990  0.0257  0.0530
15305W        W58222  28.315   1.346  22.659 -0.0752  0.0270 -0.0130
15306W        W58223  29.708   0.566  26.420  0.2381  0.4236  0.2805
15307W        W58224  26.053   1.253  26.038 -0.1224 -0.2785  0.1802
15308W        W58225  27.952  34.653  27.271  0.1542  0.2645  0.0809
15309W        W58226  26.843   3.306  26.640 -0.0475 -0.4772 -0.2826
15310W        W58227  27.461   5.446  27.012  0.1040  0.1975  0.1657
15311W        W58228  26.241   2.446  27.313 -0.0586 -0.1671  0.1159
15312W        W58229  27.451   2.080  26.016 -0.0547  0.0046  0.1674
15313W        W58230  29.387   0.062  26.218 -0.0231 -0.3622 -0.0651
15314W        W58231  29.548   0.277  23.941 -0.0814 -0.0732  0.1756
15315W        W58232  26.152   2.021  26.527 -0.0466 -0.1801 -0.2659
15316W        W58233  27.133   3.492  26.319  0.2525 -0.3512  0.3661
15317W        W58234  26.219  32.482  27.084 -0.0346  0.0847  0.0013
15318W        W58235  27.136   4.672  25.809  0.1063 -0.0445  0.0100
15319W        W58236  26.728   4.209  24.569  0.0634  0.3768 -0.1176
15320W        W58237  28.909  34.669  26.197  0.3769 -0.1464 -0.2237
15321W        W58238  29.351   3.081  26.743  0.2066 -0.0166  0.1493
15322W        W58239  28.557  33.717  25.431 -0.0123 -0.0235 -0.2127
15323W        W58240  25.113   4.676  27.155  0.3625 -0.3884 -0.0365
15324W        W58241  27.058   1.376  25.086  0.1248  0.1048 -0.2548
15325W        W58242  25.777   0.453  25.620 -0.1344  0.1587 -0.0299
15326W        W58243  28.329  34.465  23.474 -0.2000 -0.0387  0.3203
15327W        W58244  30.556   2.725  25.174  0.1874 -0.0161 -0.0804
15328W        W58245  27.465  34.472  25.849  0.0790  0.0449 -0.0263
15329W        W58246  27.605   0.427  27.010  0.1954  0.2958 -0.4846
15330W        W58247  26.027   3.010  27.237  0.1923  0.1213  0.1924
15331W        W58248  28.773   3.276  26.319 -0.0835 -0.3801  0.2483
15332W        W58249  27.049   0.310  24.074  0.1762  0.1689 -0.0362
15333W        W58250  27.841   3.127  26.795  0.4024  0.0791  0.0392
15334W        W58251  28.318   0.263  27.077  0.0099  0.0429  0.2246
15335W        W58252  24.371  34.469  25.739 -0.1715 -0.0536  0.3818
15336W        W58253  27.367   2.636  26.655 -0.2832 -0.0943 -0.0148
15337W        W58254  26.114   1.478  27.094  0.4768 -0.3307  0.0233
15338W        W58255  25.313   5.262  25.658  0.0848  0.2511 -0.1160
15339W        W58256  29.279   3.217  26.243  0.0990  0.1299  0.0169
15340W        W58257  23.973   2.745  26.390 -0.2581 -0.3320  0.3140
15341W        W58258  26.555   1.556  25.810 -0.1849  0.0813 -0.3034
15342W        W58259  26.769   0.948  26.777 -0.2655 -0.1037  0.2268
15343W        W58260  28.254   1.342  25.536  0.0340  0.2740 -0.2819
15344W        W58261  26.010  34.651  26.527  0.1935  0.2748  0.0626
15345W        W58262  26.659   2.208  26.341  0.3423 -0.3068  0.2134
15346W        W58263  30.354   0.143  28.163  0.3191 -0.2622 -0.1548
15347W        W58264  28.177   3.619  27.122 -0.1958  0.2606 -0.0719
15348W        W58265  27.715   1.428  25.424 -0.0600  0.0336 -0.0682
15349W        W58266  25.513   3.596  28.748  0.3171  0.0280 -0.0446
15350W        W58267  28.845  33.901  24.990 -0.0333 -0.0844  0.1285
15351W        W58268  29.641   3.826  25.710  0.0955 -0.4321  0.2601
15352W        W58269  27.759   1.667  26.273 -0.3638 -0.1656 -0.2588
15353W        W58270  26.210   0.733  25.494 -0.1458 -0.2628  0.0134
15354W        W58271  25.188  34.630  26.349  0.2198 -0.0759  0.0962
15355W        W58272  26.466   4.574  25.244 -0.1464  0.4283 -0.3157
15356W        W58273  27.362  34.116  26.759  0.2592 -0.0655 -0.1295
15357W        W58274  25.681   3.612  26.687 -0.0199 -0.0891 -0.2498
15358W        W58275  25.097   2.208  25.889  0.1754 -0.1392 -0.0045
15359W        W58276  23.751   2.498  26.956 -0.0914  0.0829  0.3160
15360W        W58277  26.631  33.529  23.916  0.0691 -0.0846  0.0030
15361W        W58278  27.588   1.007  22.825 -0.1712  0.1534 -0.1193
15362W        W58279  26.749  34.638  24.765  0.0643 -0.3027 -0.1135
15363W        W58280  29.534   4.648  25.841  0.3982 -0.0817 -0.2748
15364W        W58281  27.264   0.213  25.540  0.0805 -0.0140  0.0335
15365W        W58282  29.662  33.732  27.642 -0.1593 -0.0277 -0.0509
15366W        W58283  27.562   0.165  27.481 -0.2716 -0.1430 -0.1481
15367W        W58284  27.634   3.100  24.512  0.1572  0.0835 -0.0808
15368W        W58285  25.667   3.035  25.646  0.2561  0.1505 -0.1993
15369W        W58286  28.961   4.060  29.900  0.1229 -0.1703 -0.1069
15370W        W58287  22.701   1.310  25.714 -0.0062  0.1758  0.0816
15371W        W58288  28.238   0.325  24.857 -0.2345  0.0275 -0.0975
15372W        W58289  23.845  34.362  25.358  0.1000 -0.0529  0.0186
15373W        W58290  27.759   2.039  25.452 -0.1628 -0.0589 -0.3119
15374W        W58291  28.838   3.350  27.212 -0.1208  0.0373  0.0376
15375W        W58292  27.561   2.267  25.091  0.0373 -0.0533  0.1657
15376W        W58293  29.642   2.018  24.924 -0.2048  0.2158  0.1130
15377W        W58294  26.274   4.422  26.365  0.1469 -0.1337 -0.0532
15378W        W58295  27.684   2.014  24.503  0.1056 -0.1695 -0.0523
15379W        W58296  27.301  33.978  25.503 -0.1379 -0.2230  0.3181
15380W        W58297  28.327  34.583  24.552 -0.3205 -0.1374 -0.2131
15381W        W58298  28.597   1.137  26.632 -0.2420 -0.3148  0.0475
15382W        W58299  28.620   0.959  24.608 -0.1034  0.0908 -0.0709
15383W        W58300  28.664  33.707  26.414 -0.1049 -0.1524  0.0730
15384W        W58301  28.674   0.593  25.888 -0.2978  0.0337  0.0473
15385W        W58302  29.613  33.840  25.277  0.3112  0.2717 -0.2721
15386W        W58303  27.939   1.220  25.844  0.0802  0.0227  0.2824
15387W        W58304  28.592   1.144  27.569 -0.2820  0.0583  0.2496
15388W        W58305  28.084   1.940  27.597 -0.0276 -0.2656  0.0819
15389W        W58306  30.195   1.209  24.007  0.2127 -0.0006  0.1993
15390W        W58307  29.101   1.468  27.296 -0.1090 -0.2934 -0.1958
15391W        W58308  27.818   3.246  25.095 -0.0192  0.3502 -0.5041
15392W        W58309  28.846  34.600  24.457 -0.3096 -0.0626  0.1755
15393W        W58310  24.837   1.930  26.222  0.3096  0.3505 -0.0096
15394W        W58311  28.445   1.807  28.568  0.0894 -0.0076  0.2018
15395W        W58312  27.923  33.443  23.019 -0.0970  0.3112  0.1304
15396W        W58313  28.603   1.157  26.033 -0.1670  0.1863  0.2776
15397W        W58314  27.108   1.711  26.046  0.3763 -0.3923 -0.3511
15398W        W58315  28.897   1.908  27.142  0.1868  0.1631  0.0026
15399W        W58316  26.394   0.986  23.552 -0.0705  0.1832 -0.3117
15400W        W58317  24.221   0.885  26.630 -0.2105  0.2275  0.0499
15401W        W58318  24.716   1.659  27.439  0.0588  0.1909  0.1086
15402W        W58319  28.572   1.561  25.010 -0.1216 -0.1771  0.1181
15403W        W58320  27.166   1.689  23.643 -0.1225  0.4970  0.2439
15404W        W58321  29.433   1.069  25.437  0.1347 -0.0047  0.1221
15405W        W58322  26.402   2.857  26.904  0.2606  0.0288 -0.0862
15406W        W58323  26.703  34.157  24.694 -0.0907  0.2629 -0.1337
15407W        W58324  30.591  34.291  28.119 -0.0378  0.1599  0.0612
15408W        W58325  25.992   4.828  25.187  0.1280  0.0588  0.0210
15409W        W58326  29.837  33.955  25.866  0.0721 -0.1774  0.2876
15410W        W58327  27.078   4.802  28.246 -0.1392  0.1663 -0.1971
15411W        W58328  25.161   3.050  27.057 -0.1770  0.1815  0.1683
15412W        W58329  27.571   0.627  25.349 -0.2150 -0.1915  0.1065
15413W        W58330  28.144   0.791  24.804  0.1326  0.0284 -0.0477
15414W        W58331  29.097   2.499  24.319 -0.1388  0.2664  0.1609
15415W        W58332  26.432   2.069  25.918 -0.5341 -0.1945  0.0588
15416W        W58333  27.482   1.267  27.219  0.0003 -0.0392 -0.0189
15417W        W58334  27.789   4.250  27.627 -0.0135  0.1546  0.1159
15418W        W58335  26.623   2.656  26.479  0.0201 -0.2091 -0.2933
15419W        W58336  26.958   2.597  27.901 -0.0896 -0.0820  0.1609
15420W        W58337  30.382   3.167  25.364  0.1151  0.1876 -0.0113
15421W        W58338  24.994  34.610  25.773  0.1551 -0.1219 -0.2471
15422W        W58339  26.433   1.098  27.111 -0.0203 -0.0201  0.1116
15423W        W58340  28.053   0.511  25.264  0.0572  0.3308  0.1535
15424W        W58341  28.848   2.075  24.601  0.1923  0.2101  0.0160
15425W        W58342  28.919   1.044  27.100  0.3753  0.1323 -0.2901
15426W        W58343  26.532   2.690  23.730 -0.0620 -0.0674 -0.1375
15427W        W58344  27.286   2.392  28.624  0.3853  0.0345  0.1194
15428W        W58345  23.528   2.099  26.774 -0.3675  0.3431  0.1232
15429W        W58346  26.355   6.025  24.581 -0.0714 -0.0643  0.0984
15430W        W58347  28.238   5.956  25.721 -0.1465 -0.0161 -0.3404
15431W        W58348  28.537   0.661  26.857 -0.3124  0.0507  0.0551
15432W        W58349  28.767   2.189  25.569  0.1320 -0.1025 -0.1565
15433W        W58350  25.797   1.094  25.485  0.1719 -0.1137 -0.1569
15434W        W58351  24.634   3.818  28.249 -0.0347 -0.1559  0.5550
15435W        W58352  25.221   3.706  25.220  0.0831 -0.1015 -0.1070
15436W        W58353  29.261   2.956  22.603 -0.0352 -0.2930  0.1922
15437W        W58354  27.822   5.534  25.686  0.0457  0.0315 -0.0655
15438W        W58355  28.264   1.101  27.974  0.1092  0.0849  0.0975
15439W        W58356  28.102   0.154  22.428 -0.2176 -0.0720  0.3328
15440W        W58357  29.374   2.464  24.808 -0.0312  0.0958  0.1910
15441W        W58358  28.372   0.772  24.239 -0.2437 -0.0664  0.3175
15442W        W58359  27.295   2.972  28.193 -0.4473 -0.3006  0.0027
15443W        W58360  25.512   1.955  27.157 -0.2995  0.0921  0.2373
15444W        W58361  25.988   0.382  25.123  0.1490 -0.1392  0.0965
15445W        W58362  28.184   2.174  25.735 -0.2429  0.1800 -0.0360
15446W        W58363  29.023  32.100  25.543  0.0820  0.1208 -0.1504
15447W        W58364  26.807   2.598  27.374  0.2296  0.2170  0.1415
15448W        W58365  28.332   3.177  24.230 -0.2445 -0.0472  0.1744
15449W        W58366  24.639   0.031  24.019 -0.1920  0.3594 -0.1177
15450W        W58367  27.151   0.795  26.434  0.2083 -0.3809  0.1584
15451W        W58368  27.697  33.239  25.404 -0.3846 -0.2611  0.0585
15452W        W58369  27.350   1.089  25.445 -0.1342  0.3807  0.0724
15453W        W58370  27.237  33.878  27.810  0.3754 -0.2719 -0.1225
15454W        W58371  28.022   1.711  25.789  0.1787  0.0062  0.0748
15455W        W58372  26.048   2.527  26.804  0.1067  0.2260  0.4991
15456W        W58373  27.784   2.892  28.151  0.0507  0.3771  0.1974
15457W        W58374  25.358   1.270  23.680  0.0189  0.2117  0.2156
15458W        W58375  27.346   0.369  23.228 -0.1384  0.0967  0.1933
15459W        W58376  24.684   2.872  28.299  0.1399 -0.2861 -0.1509
15460W        W58377  29.418   0.545  25.473 -0.0926 -0.0941 -0.1972
15461W        W58378  27.393   3.931  26.677 -0.3116 -0.4435 -0.1425
15462W        W58379  27.400   0.095  23.758  0.2862  0.1048  0.3076
15463W        W58380  27.200   3.493  25.707  0.2179 -0.2143  0.0458
15464W        W58381  26.008   0.902  26.412  0.0568 -0.0323  0.1829
15465W        W58382  25.868   1.658  24.469 -0.0615 -0.0466  0.1099
15466W        W58383  29.529   2.653  27.544 -0.1208  0.2237  0.1199
15467W        W58384  25.892   2.093  23.534  0.1377  0.1398 -0.0906
15468W        W58385  27.776   5.790  29.190 -0.0638  0.1463  0.4822
15469W        W58386  27.768   0.916  27.055  0.0461  0.0949  0.0975
15470W        W58387  26.045   0.872  25.069 -0.1177 -0.1805 -0.1400
15471W        W58388  24.719   3.205  25.724 -0.0050 -0.2143  0.3431
15472W        W58389  27.232   0.800  26.972 -0.0102  0.1547  0.0471
15473W        W58390  27.856   1.419  28.375 -0.0238 -0.1576 -0.0210
15474W        W58391  25.728  33.236  24.491  0.0275  0.1790  0.0585
15475W        W58392  27.865   2.598  24.374  0.3276  0.1523 -0.0497
15476W        W58393  29.104   0.062  25.299 -0.1124 -0.0311 -0.0894
15477W        W58394  25.707   3.296  23.131  0.2034 -0.0571  0.1161
15478W        W58395  30.506   2.125  24.158 -0.0777 -0.2177  0.0337
15479W        W58396  25.490   2.836  24.034 -0.0520  0.0754 -0.0121
15480W        W58397  26.445  34.111  27.141 -0.1378 -0.4456  0.0644
15481W        W58398  27.904   3.600  27.573 -0.0977 -0.1840  0.0132
15482W        W58399  29.769   2.517  26.457 -0.1081  0.2189  0.1183
15483W        W58400  26.965  34.584  26.213 -0.1170  0.0268  0.1630
15484W        W58401  28.475   1.008  25.193  0.2310 -0.2013 -0.3554
15485W        W58402  28.761   5.155  25.994  0.2766 -0.0262 -0.2286
15486W        W58403  29.956   1.155  25.571 -0.1307  0.2131  0.4185
15487W        W58404  31.289   0.802  26.892 -0.2996 -0.0967  0.1736
15488W        W58405  26.748   3.323  23.031  0.1200  0.0361  0.1831
15489W        W58406  30.170   0.983  27.968 -0.0998  0.3369  0.3930
15490W        W58407  26.484   3.699  26.617 -0.0559 -0.6812 -0.0554
15491W        W58408  25.913   2.097  27.602  0.0240  0.2086 -0.3887
15492W        W58409  25.596   2.190  23.152  0.0898 -0.0462  0.3197
15493W        W58410  24.686   2.310  26.656  0.2626 -0.1621  0.1970
15494W        W58411  28.834   1.934  23.577  0.0675  0.4847 -0.3839
15495W        W58412  27.837   4.146  26.457  0.3269  0.1623 -0.0498
15496W        W58413  28.367   3.311  24.725 -0.0522 -0.1631 -0.0574
15497W        W58414  29.478   1.425  25.764 -0.1160 -0.0104 -0.0004
15498W        W58415  29.864   2.484  25.880 -0.1505  0.1716 -0.0930
15499W        W58416  28.106  33.476  26.705  0.0851 -0.0652  0.1024
15500W        W58417  27.844   0.062  24.467  0.0878  0.1885  0.0935
15501W        W58418  28.550  34.426  24.114 -0.1081  0.1967  0.1185
15502W        W58419  26.903   1.785  26.558  0.2252  0.1883 -0.0319
15503W        W58420  26.038   1.757  25.794  0.3269 -0.1756  0.2358
15504W        W58421  25.828   5.454  24.560 -0.0039  0.0127 -0.0031
15505W        W58422  24.929   1.629  25.294  0.1777 -0.0248  0.0454
15506W        W58423  28.935  32.432  26.523  0.0680 -0.4574  0.2565
15507W        W58424  24.920  34.009  27.045  0.1555 -0.3008  0.2119
15508W        W58425  24.386   1.943  26.423 -0.4397  0.0188  0.3080
15509W        W58426  26.924   0.679  25.345 -0.1130  0.1604 -0.0803
15510W        W58427  29.752   3.028  26.419  0.1490  0.0719 -0.0201
15511W        W58428  27.254  33.576  23.632 -0.1956  0.0818 -0.1835
15512W        W58429  26.218  32.804  25.256  0.1964  0.1254 -0.2317
15513W        W58430  28.425   2.751  23.570 -0.0739 -0.0160 -0.1306
15514W        W58431  26.823   2.941  25.110  0.0948 -0.2258  0.0946
15515W        W58432  27.487  33.770  26.020  0.0796  0.0998 -0.0842
15516W        W58433  28.946   2.228  27.530 -0.0267  0.0464 -0.0135
15517W        W58434  25.870   1.986  21.597 -0.0629 -0.2839  0.2556
15518W        W58435  25.615   2.239  26.716 -0.3158  0.1148  0.2222
15519W        W58436  28.287  34.122  25.557 -0.4540  0.1372  0.1923
15520W        W58437  25.113   1.717  25.732 -0.1661  0.2221  0.3827
15521W        W58438  27.781   0.270  26.284  0.1626 -0.0971 -0.0821
15522W        W58439  28.513   1.282  24.165 -0.1742  0.2223 -0.0771
15523W        W58440  28.591   2.671  26.101  0.2281 -0.4278 -0.0011
15524W        W58441  25.539   3.322  25.246  0.1603  0.0017  0.1817
15525W        W58442  27.631   3.416  27.913 -0.0985 -0.0260 -0.2726
15526W        W58443  25.082  34.430  28.456  0.0086 -0.1325  0.1490
15527W        W58444  29.344   2.042  24.532  0.2067 -0.2620 -0.1882
15528W        W58445  26.674   2.122  27.298  0.0073 -0.0391 -0.0540
15529W        W58446  28.690   3.578  25.910  0.1166 -0.0527 -0.0613
15530W        W58447  31.254  34.416  27.805 -0.0688 -0.0946 -0.1122
15531W        W58448  27.065   1.040  23.847 -0.1250  0.0101  0.0117
15532W        W58449  28.232   0.462  26.423 -0.1239  0.1501 -0.0564
15533W        W58450  25.052   3.657  26.156 -0.2133 -0.2250  0.0682
15534W        W58451  29.697   3.476  26.082  0.1375  0.3832  0.0906
15535W        W58452  27.507  34.547  26.477 -0.3033  0.1925 -0.1758
15536W        W58453  28.049   0.710  23.877  0.1142 -0.0184  0.0083
15537W        W58454  26.935   5.471  27.023 -0.2385  0.0879  0.2229
15538W        W58455  23.798   1.117  25.812 -0.0847  0.4045  0.0964
15539W        W58456  27.149   0.340  27.038  0.0723  0.2906  0.2520
15540W        W58457  27.710   2.768  27.649  0.0137  0.0807 -0.0626
15541W        W58458  28.954   0.696  25.420  0.1811  0.1055 -0.1257
15542W        W58459  26.722   1.591  27.362 -0.3296  0.0027 -0.0731
15543W        W58460  28.169   1.982  23.409 -0.0735  0.3105  0.1466
15544W        W58461  30.778   1.026  22.615  0.2410 -0.0505 -0.1960
15545W        W58462  27.728   2.660  27.047  0.0609  0.0537  0.1105
15546W        W58463  28.823   1.947  26.633 -0.1059 -0.1384 -0.1228
15547W        W58464  27.241   1.172  25.944 -0.5475  0.1812  0.3489
15548W        W58465  29.119   2.031  25.900 -0.4259 -0.0004  0.2029
15549W        W58466  26.319  34.476  25.639 -0.1086 -0.2472  0.0919
15550W        W58467  27.577   0.743  26.034  0.0238 -0.0711 -0.0545
15551W        W58468  24.979   1.322  26.597  0.0237  0.0017  0.0073
15552W        W58469  29.085  33.001  25.071 -0.1555 -0.0067  0.0298
15553W        W58470  27.795  34.151  26.233  0.0646 -0.0953  0.1112
15554W        W58471  27.699   0.247  24.959  0.2392 -0.2640  0.0645
15555W        W58472  26.787   5.971  29.565 -0.0552 -0.0536  0.0781
15556W        W58473  27.950   2.709  26.535  0.1597  0.1901  0.1643
15557W        W58474  25.735   1.268  29.319  0.1014 -0.0780  0.0783
15558W        W58475  26.360   0.487  29.581 -0.0419 -0.4784 -0.3604
15559W        W58476  28.449   2.585  25.592 -0.0888 -0.0292 -0.0077
15560W        W58477  28.777   2.337  28.084  0.0831  0.0310  0.1766
15561W        W58478  27.489   0.182  29.044  0.1400  0.2167  0.1419
15562W        W58479  27.275   2.996  27.636 -0.1841 -0.1087  0.1503
15563W        W58480  26.349  33.384  29.401 -0.1902 -0.0257  0.0185
15564W        W58481  29.341   2.096  29.935 -0.0882 -0.0033 -0.0746
15565W        W58482  27.429   2.735  30.239 -0.2235 -0.2548 -0.2923
15566W        W58483  27.262   0.654  27.444 -0.0634  0.3195  0.3435
15567W        W58484  27.090   1.797   0.745 -0.1149 -0.1757  0.3147
15568W        W58485  26.588   2.462  30.890  0.0825  0.0031  0.3027
15569W        W58486  27.228  33.038  29.676 -0.1155  0.3079 -0.0618
15570W        W58487  24.257  33.367  28.775 -0.0187  0.2419  0.1285
15571W        W58488  28.618   2.654  29.621 -0.2026  0.0852 -0.0161
15572W        W58489  24.872   2.191  28.212  0.0123  0.3222 -0.2756
15573W        W58490  26.549   1.301   0.510  0.3444 -0.1024 -0.0861
15574W        W58491  25.983   1.085  27.786 -0.1341  0.0472  0.1945
15575W        W58492  28.758   5.901  29.452 -0.1539  0.4859  0.0218
15576W        W58493  26.387  34.301   0.486  0.1452 -0.0752 -0.0119
15577W        W58494  28.276   0.740  30.518  0.1613  0.2748 -0.0503
15578W        W58495  26.379   1.002  30.827  0.4842 -0.1730 -0.1415
15579W        W58496  26.846   1.339  26.231 -0.3252 -0.1209  0.0441
15580W        W58497  22.445   0.454  29.532  0.0282  0.5706 -0.3550
15581W        W58498  25.537   2.369  29.297  0.0126  0.0319 -0.1132
15582W        W58499  25.529   0.258  29.468 -0.0132 -0.2233 -0.0589
15583W        W58500  28.143   1.515  28.975 -0.0541 -0.1016  0.3076
15584W        W58501  25.943   4.800   0.111  0.0328  0.1089  0.3131
15585W        W58502  28.638   1.985  30.204 -0.0609 -0.1779 -0.1409
15586W        W58503  28.004  34.416  30.901 -0.3017  0.1611 -0.2732
15587W        W58504  23.607   1.814  28.310 -0.0245  0.1736  0.0839
15588W        W58505  24.415   1.220  28.145  0.0644  0.0116  0.0075
15589W        W58506  26.645   3.205  28.441 -0.1878  0.2512  0.2301
15590W        W58507  29.230   3.201  29.005  0.4273  0.5890  0.1076
15591W        W58508  26.705   4.087  29.894 -0.0540  0.1881 -0.0472
15592W        W58509  25.766   1.985  30.103  0.1357 -0.0292 -0.1857
15593W        W58510  26.286   1.813  27.411 -0.1621 -0.1361 -0.2610
15594W        W58511  27.492   5.332  29.173  0.1817 -0.0479  0.2522
15595W        W58512  28.044   2.576   1.201 -0.1275 -0.0028 -0.1025
15596W        W58513  26.693  34.279  29.618  0.1546  0.0800  0.2725
15597W        W58514  27.927   1.868  28.637 -0.0523  0.0666 -0.1712
15598W        W58515  25.692   0.844  28.370 -0.0169  0.0589 -0.2261
15599W        W58516  27.237   1.673  27.601 -0.2441  0.0258  0.0904
15600W        W58517  26.274   0.858  29.965 -0.1488 -0.0527  0.0906
15601W        W58518  25.804   2.703  29.655  0.0221 -0.0841  0.1616
15602W        W58519  28.517   1.215  29.781  0.2978  0.0029 -0.1258
15603W        W58520  27.297   3.592  27.426  0.2199 -0.0922  0.3154
15604W        W58521  28.892   1.507  26.825  0.3689  0.0445  0.0043
15605W        W58522  28.213  34.527  28.052  0.0490 -0.0010 -0.1447
15606W        W58523  28.999   0.547  27.055 -0.0265  0.2505  0.1833
15607W        W58524  25.989  34.186  28.338 -0.0016  0.4279 -0.0807
15608W        W58525  25.387   2.950  31.432  0.1752  0.1975  0.4304
15609W        W58526  26.400   0.129  30.416 -0.1393 -0.2777  0.1262
15610W        W58527  30.832   2.297  29.510  0.1173 -0.1355  0.1911
15611W        W58528  27.458   1.087  27.682  0.1396 -0.2081  0.0061
15612W        W58529  27.371  33.890  30.109  0.0536  0.0583 -0.0252
15613W        W58530  27.312   4.029  31.124  0.1420  0.0588  0.1222
15614W        W58531  26.192   2.295  28.583 -0.0600 -0.2598  0.1448
15615W        W58532  29.857   2.246  27.370  0.1023 -0.2444 -0.0122
15616W        W58533  28.326   2.624  26.954  0.2105  0.0977 -0.1160
15617W        W58534  26.475   3.665  28.283  0.0822 -0.0697  0.1729
15618W        W58535  25.234   1.918  30.126 -0.1877  0.0308 -0.2306
15619W        W58536  25.636   2.007  31.032  0.1960 -0.3210 -0.0650
15620W        W58537  25.147  34.076  29.579 -0.2255 -0.0887 -0.1727
15621W        W58538  27.597  33.356  28.280  0.2769 -0.3712 -0.1749
15622W        W58539  27.474   2.110   0.637  0.1388 -0.1282 -0.1546
15623W        W58540  24.299   5.118  30.692 -0.0519  0.0421 -0.2799
15624W        W58541  27.811   0.529  29.789  0.3569 -0.1002 -0.1771
15625W        W58542  27.648   3.096  29.460 -0.0625 -0.0711 -0.3183
15626W        W58543  28.198  34.099  27.778  0.0883 -0.4068  0.1249
15627W        W58544  28.702  34.624  25.709 -0.1423  0.1369 -0.0346
15628W        W58545  28.314   0.680  28.394 -0.1861 -0.1162  0.0082
15629W        W58546  28.695   0.920  30.731  0.0465  0.1429  0.4454
15630W        W58547  26.883   3.032  29.142  0.0441 -0.1429 -0.1378
15631W        W58548  27.495   3.342  30.878  0.0785 -0.1504  0.1693
15632W        W58549  28.216   2.223  30.452 -0.4630 -0.1972 -0.2629
15633W        W58550  29.286   2.368  26.640  0.1855 -0.0134 -0.0928
15634W        W58551  27.062   2.313  30.979 -0.2089  0.0618 -0.1271
15635W        W58552  27.123   0.147  30.336  0.0529 -0.4837  0.1387
15636W        W58553  27.041   2.443  31.858  0.1166  0.1623 -0.0133
15637W        W58554  25.631   4.494  28.183 -0.1002 -0.0493  0.0497
15638W        W58555  25.178   4.741  29.926 -0.0185 -0.2918  0.0088
15639W        W58556  25.820   1.419  28.825  0.1065  0.0190  0.1192
15640W        W58557  24.690   0.870  30.923 -0.0141  0.2559 -0.1714
15641W        W58558  26.023   2.209  30.467 -0.3349  0.0178 -0.0378
15642W        W58559  29.771   1.033  26.872  0.2528 -0.0003  0.3659
15643W        W58560  23.475   1.305  30.575  0.0097  0.0475  0.2096
15644W        W58561  28.790   1.464  29.457 -0.2174  0.4252 -0.2336
15645W        W58562  25.734   0.410  28.866  0.0833 -0.0092  0.1827
15646W        W58563  28.181   2.634  28.047 -0.1701  0.3561 -0.1093
15647W        W58564  28.574   0.114  26.550  0.2192  0.1659  0.2711
15648W        W58565  25.477   2.895  27.447  0.0330 -0.1790  0.0943
15649W        W58566  25.954  33.668  29.287  0.2324  0.1637  0.0791
15650W        W58567  27.734   1.956  30.297  0.0656  0.1032  0.4847
15651W        W58568  26.733  34.216  29.118  0.0330 -0.2789 -0.1045
15652W        W58569  26.553  33.551  29.938  0.1807  0.1154 -0.1384
15653W        W58570  26.898   4.118   0.080  0.0260 -0.3010  0.1620
15654W        W58571  25.432  34.499  27.764  0.2382  0.0302 -0.0026
15655W        W58572  28.388  34.342  29.061 -0.4560  0.1446  0.1511
15656W        W58573  28.360   3.193  27.250 -0.1087  0.3703 -0.2022
15657W        W58574  26.077   1.686  29.385  0.0663 -0.0007  0.0595
15658W        W58575  28.905   1.801  29.046  0.1792 -0.3191 -0.0312
15659W        W58576  28.973   4.307  28.532  0.0524 -0.4465  0.1354
15660W        W58577  26.770   3.480  29.296 -0.5063  0.2046  0.1292
15661W        W58578  28.454   1.965  28.056  0.2934 -0.1525 -0.0630
15662W        W58579  25.851   1.094  29.878  0.1358 -0.0142 -0.1474
15663W        W58580  26.870  34.214  28.595 -0.1206 -0.0744 -0.0636
15664W        W58581  23.701   0.962  27.684  0.1005  0.1423 -0.0261
15665W        W58582  28.461   1.773  29.277 -0.2501 -0.0090 -0.0697
15666W        W58583  28.109   0.901  26.649 -0.1730 -0.0962 -0.2417
15667W        W58584  28.470   3.823  30.091  0.1545  0.2990 -0.1317
15668W        W58585  27.613   0.562  27.825  0.4012  0.0103  0.1631
15669W        W58586  24.623   1.244  30.482 -0.1029  0.0703 -0.2597
15670W        W58587  28.712  34.673  31.566  0.3219 -0.1384  0.0248
15671W        W58588  28.830   2.207  28.687 -0.2562 -0.4791  0.1579
15672W        W58589  27.181   1.946  27.162  0.1819  0.4470  0.0064
15673W        W58590  26.547  33.483  28.488 -0.3580  0.0203 -0.0689
15674W        W58591  27.610   4.404  29.558  0.0345  0.1632  0.1304
15675W        W58592  25.387   4.342  29.722  0.2577 -0.2432 -0.0625
15676W        W58593  26.192   2.913  29.800 -0.1382  0.0892 -0.1167
15677W        W58594  27.902   3.612  28.432 -0.1673  0.2009  0.0751
15678W        W58595  29.569   0.582  28.569 -0.1708  0.1783 -0.0948
15679W        W58596  24.594   2.108  30.691 -0.1657  0.0771 -0.0636
15680W        W58597  26.909   1.156  28.336 -0.5597  0.1987  0.0695
15681W        W58598  28.157   1.017  30.041 -0.3527  0.1192 -0.1850
15682W        W58599  26.222   1.283  31.271  0.0290  0.2482 -0.0636
15683W        W58600  29.071   1.002  27.549 -0.0182 -0.0481 -0.1874
15684W        W58601  27.072  32.548  26.965 -0.1015  0.0425  0.1176
15685W        W58602  26.485   2.073  30.568 -0.2279 -0.0459 -0.2648
15686W        W58603  30.323   0.062  27.285 -0.0072 -0.1522 -0.1374
15687W        W58604  28.417   0.086  26.076 -0.0453 -0.1461 -0.0963
15688W        W58605  28.318   0.129  27.622  0.0823  0.0667  0.3534
15689W        W58606  26.567   3.179  30.199  0.2324 -0.0948 -0.1677
15690W        W58607  26.820   1.200  29.284  0.1831 -0.0890  0.0767
15691W        W58608  27.014   4.394  29.237  0.0336 -0.0448  0.1878
15692W        W58609  28.547   1.497  27.198 -0.3841 -0.2288  0.3641
15693W        W58610  28.294   3.054  28.291  0.0264  0.1736 -0.0464
15694W        W58611  24.680   3.979  29.272 -0.1562  0.2545 -0.3677
15695W        W58612  27.865   1.194  30.413  0.0825 -0.0007  0.1364
15696W        W58613  27.946   1.597  30.723  0.0201 -0.1160 -0.2196
15697W        W58614  26.595  33.055  30.087 -0.0000  0.1426 -0.1388
15698W        W58615  25.787   2.605  28.516 -0.1592  0.3216  0.3523
15699W        W58616  27.535  34.360  29.763 -0.1547 -0.2549  0.0189
15700W        W58617  24.190   4.126  28.686  0.1087  0.2848 -0.1796
15701W        W58618  27.802   2.311  28.814 -0.1085  0.0449  0.0422
15702W        W58619  28.164  34.524  30.437  0.2522  0.1738  0.0252
15703W        W58620  28.872   1.368  30.710 -0.2316  0.1005 -0.0049
15704W        W58621  28.850   2.139  29.724  0.2418  0.3676  0.0913
15705W        W58622  28.070  33.614  25.545  0.2675  0.2466  0.2155
15706W        W58623  28.668   0.429  31.275 -0.1015 -0.1011  0.2155
15707W        W58624  25.254   1.644  26.216 -0.2771 -0.1099  0.1508
15708W        W58625  26.787   0.057  29.335  0.0905  0.1826 -0.1579
15709W        W58626  26.704   0.475  30.057 -0.0515 -0.0482 -0.0354
15710W        W58627  27.290   2.269  30.560 -0.0706 -0.0715 -0.0443
15711W        W58628  28.251   2.778  31.780 -0.0259  0.2546 -0.2225
15712W        W58629  26.163   1.675  27.878 -0.3270  0.0056  0.0112
15713W        W58630  29.047   0.664  30.125  0.0684  0.1150 -0.0690
15714W        W58631  25.713  33.720  28.298  0.0124  0.1545  0.2434
15715W        W58632  26.159   3.003  26.328 -0.2840  0.1237  0.3322
15716W        W58633  27.621   1.827  27.306  0.1930 -0.0212 -0.1504
15717W        W58634  26.790  33.724  29.342 -0.1172 -0.0205  0.5053
15718W        W58635  27.455   1.874  28.510 -0.0489  0.0769  0.0710
15719W        W58636  26.293   2.908  29.208 -0.1322 -0.1553 -0.1668
15720W        W58637  28.474   1.355  30.990 -0.1202 -0.0130 -0.2267
15721W        W58638  24.974   2.577  29.105  0.1358 -0.1913 -0.1543
15722W        W58639  29.610   1.267  27.303  0.0179  0.3523 -0.0142
15723W        W58640  25.117   4.036  29.020 -0.0307  0.2078  0.1241
15724W        W58641  28.736  34.318  27.095 -0.1596  0.0913 -0.1762
15725W        W58642  26.280   2.507  29.497 -0.2234  0.0343  0.0067
15726W        W58643  29.224  34.624  27.653  0.1912  0.1448 -0.3303
15727W        W58644  27.955   1.003  27.522 -0.1748  0.1316  0.0257
15728W        W58645  25.234   1.754  27.694  0.0469 -0.1517  0.1847
15729W        W58646  28.370   0.116  28.811 -0.3866 -0.1739 -0.1617
15730W        W58647  25.035   3.344  31.385  0.2105  0.1597  0.1303
15731W        W58648  26.609   1.580  29.757  0.0065 -0.1523 -0.0687
15732W        W58649  30.500   1.050  26.847  0.1734  0.1232  0.1086
15733W        W58650  28.707   2.552  30.406  0.0992 -0.3794 -0.1881
15734W        W58651  28.004   1.128  30.980  0.2414 -0.0338  0.4116
15735W        W58652  27.638   0.743  30.307  0.2807 -0.2166  0.0695
15736W        W58653  29.823   1.060  30.249  0.1805 -0.1376  0.0960
15737W        W58654  27.436   2.509  29.142 -0.1040  0.0410  0.1864
15738W        W58655  24.612   2.201  29.069 -0.2400 -0.1278  0.0786
15739W        W58656  27.466   4.499  28.463 -0.0854  0.2482 -0.1932
15740W        W58657  26.590   1.994  29.064 -0.4942 -0.2792  0.2459
15741W        W58658  26.190   1.193  29.042 -0.1791  0.2260  0.1599
15742W        W58659  26.813   1.023   0.884  0.1540  0.0683 -0.1213
15743W        W58660  28.432   2.405  30.019 -0.2165 -0.0892  0.0830
15744W        W58661  29.372  34.071  29.524  0.1996 -0.1379  0.0152
15745W        W58662  27.180   1.330  29.622 -0.0266  0.1498 -0.3027
15746W        W58663  27.286   2.277  30.062 -0.1425 -0.0841 -0.1544
15747W        W58664  29.478   3.021  30.943 -0.0402  0.1196 -0.0563
15748W        W58665  27.428   0.470  31.109 -0.3877  0.0525 -0.0085
15749W        W58666  25.646   2.514  30.946 -0.0177  0.0887  0.2469
15750W        W58667  29.192   0.972  30.866  0.2181 -0.0945 -0.1694
15751W        W58668  28.610   4.283  27.611 -0.2703  0.1290 -0.0916
15752W        W58669  27.208  34.346  31.889 -0.0008 -0.1463  0.4063
15753W        W58670  26.308  32.961  29.169 -0.1834 -0.0041  0.0992
15754W        W58671  25.192   2.301  31.807 -0.1915 -0.4610  0.0026
15755W        W58672  25.208   2.177  28.856 -0.1243 -0.0649  0.0142
15756W        W58673  27.935  34.005  29.359 -0.0155 -0.0534 -0.1287
15757W        W58674  25.934   2.136  29.590 -0.0981 -0.2980 -0.0465
15758W        W58675  26.323   2.730  28.746 -0.2857 -0.3156  0.1196
15759W        W58676  26.087   1.650  30.972 -0.2184 -0.0320  0.1369
15760W        W58677  29.454   0.141  29.196  0.0550 -0.3247  0.0832
15761W        W58678  26.958   2.328  25.923  0.1307  0.0963  0.3105
15762W        W58679  27.036   1.044  28.796  0.2831  0.0048 -0.1758
15763W        W58680  28.448   1.728  29.769  0.0791 -0.0006  0.0237
15764W        W58681  28.265   1.807  26.238 -0.1222  0.1243  0.2395
15765W        W58682  28.041   0.269  30.927  0.1312 -0.0245  0.1422
15766W        W58683  25.248   1.225  29.550 -0.2846  0.1606 -0.1822
15767W        W58684  26.456   2.323  26.826  0.3331 -0.0012 -0.0359
15768W        W58685  23.113   0.021  30.171 -0.1257  0.1071  0.0858
15769W        W58686  27.048   3.634   0.964  0.0414  0.1974  0.0302
15770W        W58687  26.329   1.147  29.554 -0.1704  0.4203  0.0539
15771W        W58688  25.759  33.269  28.073  0.0940  0.0139 -0.0820
15772W        W58689  26.235   0.331  29.004 -0.0782  0.2766  0.3242
15773W        W58690  26.510   1.286  30.200 -0.2586 -0.0676 -0.0969
15774W        W58691  27.596   3.520  29.699 -0.1214 -0.0508  0.0627
15775W        W58692  25.163   1.827  26.777 -0.1945 -0.2349 -0.0170
15776W        W58693  28.797   2.285  29.223 -0.0041 -0.0559 -0.1342
15777W        W58694  24.790   1.739  30.303  0.0391  0.0541  0.3510
15778W        W58695  29.154   0.295  28.763 -0.1623 -0.4147  0.1435
15779W        W58696  27.105   0.717  25.807 -0.0549  0.0393 -0.3280
15780W        W58697  26.440   2.245  27.747 -0.2384 -0.0285  0.2968
15781W        W58698  27.496   1.542  30.494  0.1720 -0.1204  0.2904
15782W        W58699  29.749  34.002  28.507  0.1374 -0.2463  0.4976
15783W        W58700  27.659  33.113  27.869  0.1959 -0.0378 -0.0038
15784W        W58701  26.833   0.618  29.610 -0.1978 -0.0384 -0.2640
15785W        W58702  28.308   2.230  28.905 -0.0953  0.3775  0.5226
15786W        W58703  25.233   1.512  30.536  0.1374  0.1186  0.2274
15787W        W58704  24.756   1.567   1.053 -0.1725  0.3171  0.0131
15788W        W58705  25.633   3.996  29.498 -0.0019 -0.2057  0.1798
15789W        W58706  29.128   0.870  26.608  0.1506  0.1108 -0.1439
15790W        W58707  26.487   1.527  29.214 -0.2141 -0.1972  0.0558
15791W        W58708  30.245   0.627  28.296  0.4154 -0.3303 -0.2784
15792W        W58709  28.609   0.209  28.055  0.0669 -0.4015  0.1198
15793W        W58710  23.395   0.740  28.126 -0.0782  0.0957 -0.0421
15794W        W58711  29.072   1.441  31.222  0.2129  0.0769 -0.3016
15795W        W58712  27.928  33.566  27.934 -0.2811 -0.2238 -0.0498
15796W        W58713  28.069   2.049  30.938 -0.1337 -0.0143 -0.0890
15797W        W58714  28.832   2.393  26.980 -0.0235  0.1119  0.0721
15798W        W58715  28.029   0.527  28.797 -0.2261 -0.1784  0.0600
15799W        W58716  27.635  33.690  29.103 -0.3410 -0.1178 -0.2699
15800W        W58717  26.098   1.206  28.417  0.2382 -0.0146  0.1065
15801W        W58718  25.528   3.000  30.957 -0.2950  0.2477  0.0275
15802W        W58719  27.016   2.337  26.894 -0.0046 -0.1548  0.0338
15803W        W58720  27.980   1.316  26.832  0.4407  0.1450 -0.1395
15804W        W58721  27.511   1.952  29.030  0.1345  0.0768  0.0683
15805W        W58722  27.675   3.220  31.731 -0.1065 -0.0426 -0.1074
15806W        W58723  29.066  32.109  27.756 -0.0398  0.3575  0.3156
15807W        W58724  29.083   2.729  31.749 -0.0974  0.0660 -0.1464
15808W        W58725  27.986   3.576  30.126 -0.0014  0.1875 -0.2583
15809W        W58726  28.713  34.291  28.685 -0.4176 -0.0175  0.1012
15810W        W58727  25.560   6.596  29.655  0.2705  0.1825 -0.1126
15811W        W58728  25.565   1.752  29.133 -0.0169  0.0207  0.3050
15812W        W58729  28.203   4.495  31.015  0.3943  0.1653  0.0619
15813W        W58730  26.997   1.424  30.554  0.0939 -0.3068  0.0237
15814W        W58731  27.037   0.428  29.150 -0.1157  0.1433  0.2043
15815W        W58732  27.852   0.165  27.895 -0.0019 -0.0372 -0.0595
15816W        W58733  28.574   1.071  31.905 -0.3406 -0.1565 -0.1336
15817W        W58734  27.883   2.835  29.107 -0.1690  0.0114 -0.0027
15818W        W58735  26.076   2.267  28.113  0.1424 -0.0966  0.1975
15819W        W58736  28.352   3.580  28.710  0.0909 -0.1039  0.0407
15820W        W58737  29.575   2.812  28.737  0.0136 -0.0640  0.1408
15821W        W58738  27.110   2.208  27.588 -0.2898 -0.1197  0.1031
15822W        W58739  23.714   1.763  31.957 -0.0072 -0.2419  0.0311
15823W        W58740  26.980   1.476  31.187  0.2691  0.0923  0.0355
15824W        W58741  28.772   1.761  27.612 -0.0923 -0.0878 -0.0723
15825W        W58742  27.500   0.166  30.030  0.1940  0.0884 -0.1024
15826W        W58743  26.455   1.978  28.219 -0.0238 -0.2802 -0.0668
15827W        W58744  25.674   2.387  31.405 -0.1110  0.0695  0.3433
15828W        W58745  25.148   2.011  30.669 -0.1432 -0.0343 -0.1822
15829W        W58746  28.372   3.102  28.907  0.1156  0.3345  0.1055
15830W        W58747  27.445   0.636  28.857  0.1604  0.0159  0.0554
15831W        W58748  27.016   1.080  27.349  0.0081  0.0657 -0.2500
15832W        W58749  27.468   3.746  28.900 -0.0090  0.1216  0.2864
15833W        W58750  27.023   1.416  26.935  0.1558  0.1285 -0.1713
15834W        W58751  25.687   1.748  30.569 -0.1092  0.1708 -0.1173
15835W        W58752  23.029   1.275  26.655 -0.1645  0.1769  0.0982
15836W        W58753  26.264   4.482  29.655 -0.0766 -0.0116 -0.1478
15837W        W58754  26.034   4.054  30.883 -0.0127 -0.2189  0.0158
15838W        W58755  27.498   2.950  31.230  0.0856  0.0124  0.0780
15839W        W58756  29.454   0.423  26.825  0.3395 -0.1710 -0.0987
15840W        W58757  30.305   2.383  28.047 -0.1224 -0.1488  0.0292
15841W        W58758  28.508  34.576  30.033  0.4615  0.3885 -0.2937
15842W        W58759  27.441   2.781  30.730  0.0058 -0.2134 -0.1535
15843W        W58760  27.358   0.178   0.043 -0.0251  0.0403  0.0833
15844W        W58761  26.928   3.373  28.828  0.0212  0.0732 -0.2547
15845W        W58762  28.434  34.623   1.205  0.0402 -0.2160 -0.1053
15846W        W58763  28.058  32.149  31.487 -0.3965  0.0356  0.0889
15847W        W58764  26.743   3.660  30.178  0.0491  0.1676  0.3367
15848W        W58765  25.922   3.359  29.712 -0.1246  0.1482  0.1022
15849W        W58766  27.663   0.510  28.406 -0.3354  0.3492 -0.2138
15850W        W58767  26.798   1.063  29.835  0.1566 -0.2339 -0.0594
15851W        W58768  28.701   0.997  30.179 -0.1567  0.0334 -0.2842
15852W        W58769  28.308   2.092  26.615  0.2146 -0.2000 -0.1528
15853W        W58770  27.437   0.079  28.488  0.0442 -0.0925  0.2286
15854W        W58771  27.687   2.891  28.668 -0.4047 -0.1530  0.2491
15855W        W58772  25.352   3.489  29.753 -0.0517  0.1729 -0.1803
15856W        W58773  27.607   4.189  29.108  0.0412 -0.1925 -0.1770
15857W        W58774  25.218   0.889  28.649  0.2411 -0.0578 -0.0442
15858W        W58775  30.422   0.781  27.600 -0.4295 -0.2024  0.0633
15859W        W58776  25.937   2.184   0.867  0.1405 -0.1870 -0.0543
15860W        W58777  29.966   0.418  30.532  0.3366 -0.0822 -0.2428
15861W        W58778  27.007   0.312  28.644  0.0091 -0.1752  0.0812
15862W        W58779  29.935  34.528  28.145  0.1709 -0.3960  0.0780
15863W        W58780  26.594   2.521  29.084  0.0393  0.1173 -0.0871
15864W        W58781  25.971   0.769  29.217  0.0721  0.0764 -0.0675
15865W        W58782  28.765   0.141  26.992 -0.0220  0.1678  0.0171
15866W        W58783  27.373   2.499   0.357 -0.3389  0.3434 -0.3363
15867W        W58784  28.616  34.239  28.213  0.1133 -0.0896 -0.3104
15868W        W58785  28.481   2.695  31.300  0.0103 -0.0324  0.2282
15869W        W58786  26.954   0.693  31.186  0.2711  0.1959 -0.0524
15870W        W58787  28.417   1.626  26.665  0.2780  0.0398  0.3366
15871W        W58788  26.937   2.799  30.045 -0.4322 -0.0370 -0.1362
15872W        W58789  28.186   1.262  29.378 -0.3286 -0.0274  0.1887
15873W        W58790  28.519   2.822  30.786  0.0356 -0.2196 -0.2346
15874W        W58791  23.750  32.712  28.164 -0.0039  0.0977  0.1981
15875W        W58792  29.046   3.414  29.431  0.0368  0.1225  0.0851
15876W        W58793  31.219   1.592  26.475 -0.0893 -0.2958  0.3043
15877W        W58794  29.332   4.387  28.204 -0.1027  0.2859 -0.1722
15878W        W58795  28.356   3.351  26.677  0.2105  0.1168  0.0363
15879W        W58796  27.661   1.468  28.852 -0.4493 -0.2058  0.1382
15880W        W58797  24.699   1.327  29.417  0.0356  0.0392 -0.2129
15881W        W58798  27.801   5.876  30.342  0.2436  0.0912  0.3747
15882W        W58799  27.772   0.677  30.806 -0.1116  0.0139 -0.4020
15883W        W58800  28.072   0.204  28.411  0.0961 -0.1185  0.0345
15884W        W58801  25.635   1.445  30.159  0.1195 -0.0091  0.1154
15885W        W58802  25.486   3.039  29.830 -0.0487 -0.3805  0.0782
15886W        W58803  27.439   1.800  29.900  0.1257  0.0821 -0.2052
15887W        W58804  28.571   1.481  28.168 -0.2649  0.1153  0.2927
15888W        W58805  28.324   3.328  29.899  0.1705 -0.1134 -0.3559
15889W        W58806  27.989   0.150   0.505 -0.0536 -0.0861 -0.0373
15890W        W58807  27.550   2.221  26.924 -0.2428  0.1107  0.2034
15891W        W58808  24.677   3.724  31.442 -0.5251 -0.2626 -0.0479
15892W        W58809  27.161   0.415  28.147  0.0659  0.1071 -0.3122
15893W        W58810  26.872   3.857  28.981  0.2411  0.1888  0.2614
15894W        W58811  28.350   4.676  27.261 -0.1884  0.2551 -0.0633
15895W        W58812  27.208   1.858  30.313  0.2874  0.5152  0.0484
15896W        W58813  28.036   3.975  28.835 -0.0784  0.0266 -0.4020
15897W        W58814  27.932   0.482  27.445  0.2374 -0.1445 -0.0068
15898W        W58815  28.444   1.745  30.682  0.0177  0.2726  0.1635
15899W        W58816  26.035  33.401  28.434 -0.2882 -0.2061  0.0591
15900W        W58817  29.133  32.819  30.690 -0.2890 -0.1127 -0.1555
15901W        W58818  30.423  33.855  25.231 -0.1200 -0.1850  0.1119
15902W        W58819  26.700   0.710  31.633  0.2072 -0.1447  0.0146
15903W        W58820  26.543   1.131  28.687 -0.0031 -0.2134  0.0237
15904W        W58821  27.321   2.588  27.291 -0.0375 -0.2799  0.0721
15905W        W58822  26.108   2.439  29.969 -0.0363  0.1176  0.1473
15906W        W58823  24.692  33.171  29.698 -0.0192  0.0231 -0.0049
15907W        W58824  26.349  34.508  29.290  0.0706 -0.0224  0.1111
15908W        W58825  26.286   1.672  28.790 -0.0931 -0.0388 -0.2092
15909W        W58826  27.895  34.632  28.857  0.0001  0.4119  0.2660
15910W        W58827  28.849   3.760  28.410  0.0119 -0.2305  0.2730
15911W        W58828  26.913   0.779  27.846 -0.2427  0.2836 -0.1276
15912W        W58829  26.146   0.617  28.039  0.1174 -0.1456  0.1304
15913W        W58830  28.401   2.629  29.196 -0.0277 -0.1722  0.0254
15914W        W58831  27.984   2.265  27.183  0.1080 -0.1823  0.0693
15915W        W58832  26.572  33.824  28.855 -0.0743  0.0623  0.1390
15916W        W58833  28.178   3.273  30.503  0.0208  0.0906 -0.1087
15917W        W58834  26.820   3.820  26.979  0.3453 -0.0288 -0.0078
15918W        W58835  28.539   1.895  31.170  0.2022  0.2403 -0.1502
15919W        W58836  26.477  33.968  28.404 -0.2086 -0.0829  0.0517
15920W        W58837  28.155  33.226  28.247 -0.1675  0.1792 -0.2408
15921W        W58838  26.655   0.024  28.795  0.0535  0.2603  0.1828
15922W        W58839  26.916   1.890  30.761 -0.4133  0.3077  0.2606
15923W        W58840  26.480   2.957  27.441  0.0108 -0.0422 -0.0212
15924W        W58841  25.681   3.059  29.345 -0.1164 -0.1025 -0.0759
15925W        W58842  27.465   1.105  30.688  0.1074  0.2378 -0.1529
15926W        W58843  26.972   1.973  29.802  0.2056 -0.0745 -0.2544
15927W        W58844  27.322   1.258  29.161 -0.0370 -0.1012  0.0851
15928W        W58845  25.717   2.669  30.204 -0.4166  0.0797 -0.2310
15929W        W58846  27.422   3.684  28.326 -0.3251 -0.0278 -0.0545
15930W        W58847  28.162   0.025  29.301 -0.4243 -0.1875 -0.1782
15931W        W58848  28.964  32.920  28.644  0.1251  0.0400 -0.2468
15932W        W58849  25.998  34.197  30.719 -0.0003 -0.0332 -0.0346
15933W        W58850  28.134   1.548   0.748 -0.2472  0.0038 -0.0172
15934W        W58851  26.631   3.395  31.181  0.2219  0.2448  0.5445
15935W        W58852  28.420  32.819  28.719  0.3780 -0.2089 -0.0368
15936W        W58853  27.417  33.950  29.473  0.1770 -0.1346 -0.1325
15937W        W58854  25.896   2.643  29.082  0.0061 -0.0994 -0.0269
15938W        W58855  26.463   1.068  28.028  0.2050  0.0305 -0.0536
15939W        W58856  26.784  33.659  27.899  0.1664 -0.3216  0.0936
15940W        W58857  26.286   2.021  30.085  0.3710 -0.0014  0.2103
15941W        W58858  28.154   2.650  28.706  0.0429  0.1528  0.2552
15942W        W58859  28.853   2.929  29.120 -0.2991 -0.1789  0.3665
15943W        W58860  26.658   0.599  28.821 -0.1151  0.1719  0.0219
15944W        W58861  27.661   2.282  27.520 -0.1416 -0.1418 -0.0622
15945W        W58862  28.450   4.266  30.378 -0.0672  0.3146 -0.2373
15946W        W58863  26.947   3.938   0.527  0.0762  0.1620  0.2000
15947W        W58864  26.561   1.500  30.809 -0.2330 -0.0319  0.1198
15948W        W58865  29.467   1.825  28.574 -0.2654  0.0891  0.2961
15949W        W58866  27.573  34.301  28.666  0.2017 -0.1533 -0.1283
15950W        W58867  27.781   3.760  29.302 -0.0148  0.3804 -0.0975
15951W        W58868  26.517   1.510  28.301  0.0430  0.1633  0.0532
15952W        W58869  28.071   0.589  27.941 -0.0419  0.0148  0.1274
15953W        W58870  26.851   1.334  27.816 -0.0865  0.1630 -0.1723
15954W        W58871  29.944  34.235  27.002  0.1751 -0.2990 -0.1557
15955W        W58872  25.719   3.147  30.483 -0.0199  0.1006  0.2284
15956W        W58873  29.869   0.378  30.056  0.0018 -0.0934  0.1869
15957W        W58874  29.170  34.335  31.270  0.1458  0.2781  0.1614
15958W        W58875  27.035   3.015  30.991  0.1389  0.2171  0.1356
15959W        W58876  28.451   0.677   1.037  0.2297  0.0385  0.3200
15960W        W58877  24.610   1.481  29.917  0.2521 -0.3696  0.0008
15961W        W58878  26.306   2.581  31.636 -0.0965 -0.1208 -0.4505
15962W        W58879  26.860   3.719  31.569  0.2672 -0.0355 -0.0838
15963W        W58880  28.995   1.009  28.934  0.3066  0.1047  0.0323
15964W        W58881  28.094   0.715  31.785 -0.1676 -0.1799  0.4744
15965W        W58882  29.105   1.675  30.317 -0.1445 -0.0115 -0.0363
15966W        W58883  28.279   2.264  31.358  0.2679  0.0722  0.0099
15967W        W58884  27.924   2.989  30.880  0.3149 -0.0950  0.1377
15968W        W58885  24.871   0.391  30.734 -0.0550  0.0815 -0.1317
15969W        W58886  27.813   3.308   0.340 -0.1941  0.3710  0.1217
15970W        W58887  26.225   2.807   0.963  0.2408  0.0375  0.1271
15971W        W58888  28.768   2.313   0.900  0.0242  0.1849 -0.0778
15972W        W58889  27.101   3.198  31.460  0.2616 -0.0567  0.0663
15973W        W58890  25.119   1.799   0.694 -0.0846  0.0302  0.2226
15974W        W58891  29.886   1.451  31.500  0.3604  0.1427 -0.2487
15975W        W58892  23.804  33.079  30.536 -0.2221 -0.3524 -0.1259
15976W        W58893  23.742   1.048  30.982  0.1101  0.0217  0.0391
15977W        W58894  25.840   0.715  30.286  0.1574 -0.1070  0.2854
15978W        W58895  26.175   5.355  31.446  0.2277  0.1260  0.0696
15979W        W58896  27.931   1.589   0.318 -0.1360  0.0088 -0.0300
15980W        W58897  28.442   0.478  29.228  0.5067 -0.0106 -0.0383
15981W        W58898  27.314   1.406  31.543 -0.3820  0.2970 -0.2499
15982W        W58899  27.009   1.481  30.067  0.4712  0.0879 -0.3169
15983W        W58900  28.121   1.653  31.252  0.1023 -0.1529  0.4317
15984W        W58901  25.443   3.296   1.236  0.1359  0.0847 -0.2111
15985W        W58902  28.600   0.571  31.715 -0.0925 -0.2325 -0.0133
15986W        W58903  27.366   2.353  31.482  0.0684  0.0436  0.0784
15987W        W58904  26.786   2.920  31.772  0.1277 -0.1940 -0.0042
15988W        W58905  25.636   2.915   1.434 -0.2887 -0.2151  0.0450
15989W        W58906  29.615   0.023  28.702  0.0275 -0.2497 -0.1599
15990W        W58907  28.414   0.475   0.207  0.1954 -0.0014 -0.0847
15991W        W58908  23.825   1.344  29.920 -0.1711  0.4381 -0.1564
15992W        W58909  25.681   2.224  31.851  0.1057  0.7238  0.1027
15993W        W58910  26.096   2.101   1.388  0.0849 -0.4194 -0.1212
15994W        W58911  26.636   1.976   0.001  0.0827  0.1424  0.1523
15995W        W58912  27.758   1.350   1.120 -0.1671 -0.1209  0.0749
15996W        W58913  27.903   0.001  31.348  0.0960  0.1304  0.0772
15997W        W58914  28.995   1.824  30.881 -0.1337  0.1143 -0.1849
15998W        W58915  29.289   1.207  30.313 -0.0869  0.0029  0.3572
15999W        W58916  25.737   0.508   1.399 -0.0383  0.1621 -0.1227
16000W        W58917  26.036   3.219  30.963  0.0931 -0.2590  0.1852
16001W        W58918  27.756   1.693  31.711 -0.1816 -0.2731  0.2622
16002W        W58919  25.473   3.404  31.651 -0.1890 -0.1572  0.2831
16003W        W58920  25.522   0.313  30.078  0.0023  0.2412  0.0303
16004W        W58921  27.664   4.243  31.690  0.4109 -0.0910  0.1785
16005W        W58922  27.433   2.980   0.369  0.1125  0.0185 -0.1088
16006W        W58923  25.733   2.452   0.337 -0.1240 -0.0382  0.0648
16007W        W58924  27.231   3.638  30.593 -0.3905 -0.0237  0.1409
16008W        W58925  28.320   0.737  31.014  0.1269  0.2153  0.0910
16009W        W58926  26.151  34.671  30.823 -0.0785 -0.1205 -0.1580
16010W        W58927  26.562   2.042  29.532  0.0090  0.0396 -0.1860
16011W        W58928  28.968   0.664   0.138 -0.0823 -0.1462  0.0623
16012W        W58929  27.747   1.989  31.300 -0.0766 -0.0794 -0.2899
16013W        W58930  29.532   1.688  30.070 -0.2678 -0.0438 -0.1074
16014W        W58931  24.740   3.024  30.604 -0.0766 -0.1230 -0.1621
16015W        W58932  26.674   2.931  29.628 -0.0202  0.2252  0.1651
16016W        W58933  25.392   0.585  30.585  0.0405  0.2662 -0.0370
16017W        W58934  23.441   1.045  29.532  0.0680 -0.1328 -0.0167
16018W        W58935  26.660   1.755  30.269 -0.1160  0.1971 -0.1040
16019W        W58936  25.382  34.087  30.870 -0.1402 -0.1672  0.0310
16020W        W58937  24.297   1.990  30.305  0.0180 -0.3174 -0.1637
16021W        W58938  27.321   4.547  31.820  0.2617 -0.2470  0.0816
16022W        W58939  30.359   1.686  31.905  0.1514 -0.1433  0.1765
16023W        W58940  30.772   1.253  30.038 -0.0250 -0.3478  0.0721
16024W        W58941  26.066   4.402  20.189 -0.0079 -0.2693 -0.0542
16025W        W58942  25.704   4.534  17.185 -0.1363 -0.1797  0.4370
16026W        W58943  26.837   0.731  17.460  0.0116  0.3866 -0.0693
16027W        W58944  28.001   5.367  17.380  0.2932  0.0141 -0.0189
16028W        W58945  26.329   3.906  17.708 -0.0533 -0.1056 -0.3432
16029W        W58946  26.955   6.129  17.668 -0.2853 -0.1711 -0.0509
16030W        W58947  25.662   5.246  20.846 -0.0268 -0.0287  0.1299
16031W        W58948  27.178   6.882  20.547  0.2810  0.0011  0.0676
16032W        W58949  29.598   5.967  18.702 -0.2437  0.1691  0.4342
16033W        W58950  27.368   6.005  16.821 -0.1677 -0.1723  0.3780
16034W        W58951  28.963   3.625  20.588 -0.0590  0.2105  0.3890
16035W        W58952  25.359  10.466  18.711  0.0111  0.0817  0.2294
16036W        W58953  27.224   3.357  19.199 -0.0281 -0.2665  0.0214
16037W        W58954  26.269   3.458  18.533  0.0698 -0.1455  0.1761
16038W        W58955  26.640   5.177  17.972 -0.0428  0.4520  0.3500
16039W        W58956  25.728   5.621  18.801  0.1245 -0.1445 -0.0348
16040W        W58957  24.694   5.068  16.594  0.1068 -0.0556 -0.5612
16041W        W58958  26.984   3.436  16.749  0.2587 -0.3761 -0.2887
16042W        W58959  28.670   8.120  18.127  0.1671  0.0039  0.1309
16043W        W58960  24.632   2.983  19.759  0.2688 -0.1749  0.1293
16044W        W58961  29.012   3.731  19.264  0.1725  0.2105 -0.5906
16045W        W58962  25.774   5.649  21.135  0.4437  0.2058  0.1374
16046W        W58963  26.124   3.769  17.286 -0.0353 -0.0711  0.6527
16047W        W58964  24.553   4.239  18.934 -0.0956  0.2562  0.0011
16048W        W58965  24.401   6.471  17.644 -0.0785  0.3718  0.0865
16049W        W58966  28.274   1.930  18.132 -0.2453  0.1588  0.0103
16050W        W58967  25.020   5.220  18.211  0.2883 -0.4039 -0.1063
16051W        W58968  26.912   6.640  18.467 -0.0878 -0.1913 -0.0131
16052W        W58969  24.874   5.778  17.570 -0.1085  0.1435 -0.2033
16053W        W58970  29.391   6.812  18.191  0.2095  0.3842 -0.0949
16054W        W58971  26.083   5.902  17.419 -0.0123  0.0740 -0.1665
16055W        W58972  25.227   7.036  17.557  0.0267 -0.2033 -0.3880
16056W        W58973  26.161   8.472  18.305 -0.3027  0.1390  0.1102
16057W        W58974  30.294   5.981  20.315  0.2297  0.1900  0.0205
16058W        W58975  26.074   4.858  20.632 -0.3600  0.0481 -0.1057
16059W        W58976  26.789   8.226  20.462 -0.1341 -0.1329 -0.1511
16060W        W58977  26.715   7.971  17.854 -0.0443 -0.1160 -0.1269
16061W        W58978  26.571   6.434  22.115  0.2206  0.0913  0.0969
16062W        W58979  26.367   6.845  19.459  0.0216  0.0518  0.3909
16063W        W58980  25.477   6.016  20.225  0.1429  0.1474 -0.2989
16064W        W58981  28.374   4.142  19.276 -0.0749  0.0683  0.1036
16065W        W58982  27.374   6.750  18.311  0.3682 -0.0249  0.1455
16066W        W58983  23.890   3.330  19.689  0.0695  0.3023 -0.0223
16067W        W58984  27.107   5.115  19.765  0.0495 -0.1143 -0.4736
16068W        W58985  24.901   6.276  17.546 -0.0748  0.2531 -0.3788
16069W        W58986  28.529   5.617  20.103 -0.2147  0.2117  0.2701
16070W        W58987  26.191   6.592  16.922 -0.1438  0.0981  0.0446
16071W        W58988  28.282   4.586  17.653  0.0432 -0.0025  0.2289
16072W        W58989  27.620   4.220  16.787  0.1530 -0.1847 -0.0912
16073W        W58990  27.695   4.681  16.900  0.1100 -0.1430  0.1430
16074W        W58991  27.729   1.544  18.819  0.1849 -0.1753 -0.0525
16075W        W58992  26.765   7.691  17.257  0.4142 -0.0416 -0.0115
16076W        W58993  25.881   4.599  18.930 -0.1586 -0.0091 -0.1087
16077W        W58994  27.366   6.236  18.375  0.0432 -0.2776 -0.1664
16078W        W58995  27.908   2.612  17.703 -0.3403 -0.2042  0.3709
16079W        W58996  27.413   4.722  19.673  0.1878 -0.1624  0.1110
16080W        W58997  26.140   7.471  18.275 -0.0796 -0.1189 -0.0326
16081W        W58998  25.069   6.116  18.003 -0.0056 -0.2703 -0.2927
16082W        W58999  26.846   5.472  19.498 -0.0393 -0.1714 -0.0528
16083W        W59000  29.215   6.675  19.628  0.1076 -0.0585 -0.0572
16084W        W59001  27.483   8.087  17.050  0.0129 -0.1639  0.1495
16085W        W59002  27.771   7.652  17.886  0.0023  0.0827 -0.2789
16086W        W59003  27.656   4.910  20.102  0.0136 -0.1958 -0.1028
16087W        W59004  24.202   6.002  18.272 -0.2907  0.1104  0.0944
16088W        W59005  26.942   3.689  17.164 -0.0634  0.1047 -0.0951
16089W        W59006  27.670   7.451  20.818 -0.4106  0.0503 -0.1965
16090W        W59007  27.054   6.578  20.128 -0.1107  0.0538  0.1461
16091W        W59008  28.797   4.259  20.082  0.0104  0.1385  0.0469
16092W        W59009  26.907   7.023  18.066 -0.1417  0.0418  0.3271
16093W        W59010  27.841   6.554  18.459 -0.1787 -0.2862 -0.0234
16094W        W59011  27.251   5.507  18.457 -0.1603 -0.3578 -0.3224
16095W        W59012  28.737   4.924  21.595  0.0630  0.0787  0.1400
16096W        W59013  29.765   1.624  19.104 -0.0750 -0.0933  0.1487
16097W        W59014  26.002   3.664  16.817  0.3778 -0.1249 -0.2952
16098W        W59015  26.579   6.409  18.061 -0.0342  0.2087  0.1141
16099W        W59016  27.988   5.288  20.046  0.0644  0.1158  0.0279
16100W        W59017  28.512   4.715  17.234  0.1795  0.1309  0.0324
16101W        W59018  23.481   5.270  20.022 -0.1399 -0.0744 -0.0441
16102W        W59019  26.315   3.888  19.501 -0.1792  0.0419  0.4182
16103W        W59020  27.308   6.168  20.227  0.0116  0.3749  0.0355
16104W        W59021  24.509   6.382  16.630  0.0259  0.1080 -0.2831
16105W        W59022  22.685   6.960  17.093  0.3347 -0.1005  0.1100
16106W        W59023  26.233   5.333  16.421  0.0773  0.0095  0.0572
16107W        W59024  23.670   4.378  16.781  0.0244 -0.3686 -0.0698
16108W        W59025  26.144   5.071  17.811  0.0159 -0.1460  0.3503
16109W        W59026  29.267   4.463  18.444 -0.0842 -0.0711 -0.0697
16110W        W59027  25.573   4.150  21.501 -0.0779 -0.0686 -0.0079
16111W        W59028  30.213   3.312  20.458  0.1178 -0.2284  0.0904
16112W        W59029  27.040   5.528  17.460 -0.0333  0.2774 -0.1749
16113W        W59030  28.402   7.379  17.167 -0.3940 -0.0656  0.2801
16114W        W59031  28.136   4.499  16.982 -0.0548 -0.0029 -0.2954
16115W        W59032  27.038   6.242  17.128  0.2336  0.2179  0.0815
16116W        W59033  24.940   5.649  20.386 -0.2513 -0.1137 -0.2908
16117W        W59034  24.607   4.983  17.083 -0.0109  0.1979  0.2642
16118W        W59035  25.834   4.057  21.125 -0.0772  0.3025 -0.0448
16119W        W59036  24.951   5.370  19.166 -0.0777  0.2106 -0.0552
16120W        W59037  28.581   3.638  20.884 -0.0175 -0.0999 -0.3716
16121W        W59038  24.745   2.858  16.881  0.0692 -0.1802  0.2062
16122W        W59039  28.061   4.107  17.968 -0.3236  0.0896 -0.1436
16123W        W59040  24.817   7.142  18.502 -0.1068  0.1181 -0.0204
16124W        W59041  25.417   5.398  16.942  0.2885  0.0693 -0.0023
16125W        W59042  28.365   4.361  19.768 -0.1104 -0.2093 -0.0474
16126W        W59043  26.569   8.717  18.077  0.3947  0.0727  0.3073
16127W        W59044  28.851   5.972  19.788 -0.1846 -0.1974  0.0655
16128W        W59045  27.880   8.181  18.542 -0.2774  0.0385 -0.2188
16129W        W59046  27.991   3.553  18.246 -0.1459 -0.1311  0.0429
16130W        W59047  25.308   2.812  16.989 -0.1479 -0.0041 -0.4308
16131W        W59048  23.580   6.910  19.065  0.1723 -0.0618 -0.2687
16132W        W59049  25.502  10.020  18.070 -0.0695 -0.1485 -0.1611
16133W        W59050  26.420   3.459  17.992  0.0422  0.1637 -0.1081
16134W        W59051  27.823   8.505  17.245 -0.1796 -0.1139  0.0535
16135W        W59052  27.226   4.564  16.730  0.0275 -0.0749  0.1862
16136W        W59053  27.651   5.829  19.604 -0.0105  0.2093 -0.2311
16137W        W59054  28.721   4.687  19.105 -0.2146 -0.0079  0.0476
16138W        W59055  28.163   4.271  20.666  0.1581 -0.1409  0.2257
16139W        W59056  27.515   6.473  18.813  0.3869 -0.0964  0.1055
16140W        W59057  25.736   2.917  18.911 -0.2038  0.1119 -0.1331
16141W        W59058  27.095   6.521  19.184 -0.1031 -0.2812 -0.0006
16142W        W59059  27.391   5.949  17.356 -0.4616  0.2282  0.2414
16143W        W59060  25.295   5.377  17.566  0.2018  0.1215  0.1503
16144W        W59061  27.556   7.742  18.310 -0.2013  0.2272  0.2812
16145W        W59062  29.396   4.145  20.225 -0.1934  0.1094 -0.0122
16146W        W59063  24.397   5.561  18.474  0.2490 -0.0630 -0.0262
16147W        W59064  27.219   4.286  18.316  0.0027  0.0880  0.1277
16148W        W59065  25.691   5.637  17.298 -0.0451  0.2679  0.3278
16149W        W59066  26.496   4.430  19.438  0.0214 -0.0894 -0.1265
16150W        W59067  25.925   5.040  18.360  0.0981 -0.0994 -0.0837
16151W        W59068  28.373   4.207  16.359  0.0290 -0.2525  0.0049
16152W        W59069  29.116   5.260  20.843  0.1122 -0.1985 -0.1324
16153W        W59070  27.669   5.524  18.032  0.0845 -0.0729 -0.0527
16154W        W59071  27.713   2.355  16.833  0.0557  0.1229  0.1401
16155W        W59072  25.547   3.566  16.980  0.2216  0.0279 -0.0566
16156W        W59073  25.398   8.312  20.369 -0.1543  0.2371 -0.0838
16157W        W59074  28.109   5.352  18.303  0.0823  0.2821  0.0517
16158W        W59075  25.488   4.435  19.777  0.1869  0.0438 -0.1005
16159W        W59076  27.456   3.411  18.259 -0.0351 -0.0261 -0.0519
16160W        W59077  27.762   7.243  17.558  0.0243  0.4004  0.2328
16161W        W59078  26.417   6.251  17.653  0.1287 -0.1181  0.1705
16162W        W59079  28.032   6.951  21.674 -0.0566  0.0145 -0.0907
16163W        W59080  27.012   7.050  17.378  0.0185  0.1622 -0.1338
16164W        W59081  26.108   5.007  21.770 -0.0115 -0.0739  0.2498
16165W        W59082  27.626   3.464  16.897 -0.0598  0.0964 -0.0229
16166W        W59083  27.779   3.335  19.108 -0.0646  0.1593  0.1179
16167W        W59084  26.350   5.926  18.421  0.3506 -0.2931  0.0995
16168W        W59085  28.581   2.546  18.484  0.2175  0.0952  0.0108
16169W        W59086  28.241   1.708  17.663 -0.0152  0.2083 -0.1674
16170W        W59087  26.410   3.954  18.695 -0.1430  0.0054 -0.1286
16171W        W59088  26.760   5.420  18.484 -0.2711 -0.0013  0.0633
16172W        W59089  27.926   4.866  17.354  0.1628  0.1487  0.4655
16173W        W59090  29.841   4.968  20.407  0.3297  0.0649 -0.0751
16174W        W59091  26.170   3.608  16.259  0.3525 -0.1581  0.1388
16175W        W59092  25.569   4.739  19.410 -0.1343 -0.2067 -0.1428
16176W        W59093  25.924   3.652  17.760 -0.0065 -0.0762  0.2371
16177W        W59094  25.082   6.172  19.285 -0.1864 -0.2270  0.1631
16178W        W59095  25.599   6.483  20.286 -0.0132  0.2973  0.3262
16179W        W59096  26.307   5.525  18.125 -0.3542 -0.0990  0.2745
16180W        W59097  27.006   5.158  21.552 -0.0860  0.0649 -0.1039
16181W        W59098  26.714   2.688  17.347 -0.2948 -0.1431  0.2657
16182W        W59099  26.338   8.988  17.616  0.0314 -0.1000  0.0196
16183W        W59100  26.682   5.854  17.350 -0.0521 -0.0826  0.4329
16184W        W59101  25.275   3.875  17.977 -0.1715  0.0581 -0.0453
16185W        W59102  26.399   6.468  18.664  0.0825  0.1959  0.0970
16186W        W59103  26.737   4.073  17.403 -0.2242 -0.2342  0.2217
16187W        W59104  26.738   6.037  19.445 -0.0385 -0.2644  0.0575
16188W        W59105  26.166   7.096  17.643 -0.1136  0.2426 -0.1816
16189W        W59106  29.012   3.550  18.803 -0.3965  0.1586  0.2388
16190W        W59107  23.497   6.388  19.779  0.0273  0.2542  0.0657
16191W        W59108  24.826   4.634  17.402 -0.1609 -0.2017  0.3085
16192W        W59109  24.672   4.409  17.960 -0.0458 -0.2012  0.2185
16193W        W59110  27.984   4.026  19.613  0.1147 -0.0390  0.1400
16194W        W59111  27.200   5.079  16.651  0.1807  0.1433  0.1038
16195W        W59112  25.598   4.532  20.233 -0.2153 -0.2122 -0.1259
16196W        W59113  26.488   5.216  19.767 -0.0993  0.0385 -0.2506
16197W        W59114  24.211   7.667  18.734 -0.1324  0.2438  0.0701
16198W        W59115  29.304   5.671  20.416 -0.0532 -0.3078  0.3700
16199W        W59116  28.521   5.253  18.625  0.0420 -0.1729  0.1209
16200W        W59117  27.545   5.341  19.856 -0.0773  0.0276  0.0169
16201W        W59118  25.470   5.387  22.238  0.1482  0.1782 -0.1285
16202W        W59119  24.809   3.899  17.750  0.0416  0.2194  0.0758
16203W        W59120  28.839   4.162  19.589  0.4775 -0.2330  0.0800
16204W        W59121  26.354   4.706  18.109 -0.1827 -0.0134  0.3134
16205W        W59122  26.462   8.430  19.189  0.1557 -0.2126 -0.0469
16206W        W59123  25.496   7.199  19.742 -0.1892  0.2435  0.0546
16207W        W59124  25.378   5.991  17.603  0.0209  0.2838 -0.0686
16208W        W59125  25.984   6.953  17.166  0.1289 -0.1054 -0.3029
16209W        W59126  24.698   4.847  20.548  0.0665  0.1941 -0.0141
16210W        W59127  25.722   5.994  19.405 -0.2589  0.2870  0.0068
16211W        W59128  25.665   5.013  17.562  0.0827  0.4110  0.0497
16212W        W59129  25.831   4.062  16.972 -0.2011 -0.1093 -0.0034
16213W        W59130  26.403   5.055  18.452 -0.0495  0.0091 -0.0227
16214W        W59131  25.561   5.147  18.960  0.0706 -0.3291  0.1850
16215W        W59132  27.615   3.897  18.286  0.2301 -0.1121  0.0909
16216W        W59133  25.206   4.980  20.616  0.1393 -0.1293  0.1625
16217W        W59134  26.694   2.425  18.861 -0.0179 -0.1729 -0.0723
16218W        W59135  28.837   6.914  18.005 -0.0738 -0.2429 -0.0853
16219W        W59136  27.618   6.646  20.133 -0.3433  0.0005 -0.3843
16220W        W59137  26.091   5.899  17.909 -0.2305 -0.0964 -0.1298
16221W        W59138  23.809   6.068  18.596  0.1015 -0.0630  0.1642
16222W        W59139  24.861   5.187  17.666  0.3433  0.0792  0.3719
16223W        W59140  25.935   4.403  19.468 -0.1850 -0.1491  0.1299
16224W        W59141  24.472   6.970  18.074 -0.0844  0.0961  0.1170
16225W        W59142  26.544   6.787  17.743 -0.2015  0.0656 -0.0099
16226W        W59143  25.259   8.765  18.800  0.0399  0.1106  0.0887
16227W        W59144  27.390   2.949  18.092  0.2093  0.0673  0.0650
16228W        W59145  26.894   6.591  17.473  0.2479  0.1319 -0.1450
16229W        W59146  28.258   5.681  18.772  0.1110 -0.1593 -0.1118
16230W        W59147  28.966   6.422  23.196  0.2499  0.2705 -0.3475
16231W        W59148  26.327   4.053  16.956 -0.0739 -0.2283 -0.1211
16232W        W59149  27.789   4.616  20.487  0.1603 -0.0140  0.0423
16233W        W59150  26.368   5.427  19.128  0.2702  0.1199  0.0785
16234W        W59151  27.278   7.373  18.540 -0.3417 -0.1094  0.1339
16235W        W59152  24.491   5.321  19.327  0.0751  0.2277 -0.0557
16236W        W59153  27.566   7.250  21.501  0.0960  0.4227 -0.0352
16237W        W59154  27.347   5.460  19.414 -0.2228 -0.0155 -0.2664
16238W        W59155  27.926   4.295  17.461 -0.1330  0.3317  0.2638
16239W        W59156  27.685   2.593  18.150  0.1242  0.0024  0.0815
16240W        W59157  26.707   5.395  22.144  0.2988 -0.2421 -0.0656
16241W        W59158  26.152   5.623  20.058  0.0286 -0.2275  0.0364
16242W        W59159  26.831   4.163  17.924 -0.3831  0.3071  0.0398
16243W        W59160  27.373   4.919  18.114  0.1424  0.1239  0.1027
16244W        W59161  24.204   5.866  20.232 -0.0390  0.3622  0.0136
16245W        W59162  27.915   4.881  18.743  0.0022 -0.0123 -0.0122
16246W        W59163  26.987   5.982  16.566  0.0007  0.0465  0.0917
16247W        W59164  27.342   7.119  21.093  0.0104 -0.0927  0.3342
16248W        W59165  26.159   5.015  18.902 -0.0585  0.3151  0.0364
16249W        W59166  26.606   5.736  19.897  0.0288  0.1021  0.4089
16250W        W59167  27.450   3.585  20.658 -0.0510  0.1959 -0.1866
16251W        W59168  26.234   4.076  21.411  0.2805  0.3870  0.0855
16252W        W59169  26.878   4.137  19.537  0.3070  0.1597  0.1100
16253W        W59170  25.361   5.631  19.149 -0.0016 -0.1818  0.1541
16254W        W59171  25.677   4.150  18.086 -0.1980  0.2740 -0.0887
16255W        W59172  27.664   6.922  20.716  0.2963 -0.1562  0.0294
16256W        W59173  28.445   5.132  19.387  0.0120 -0.2865 -0.1672
16257W        W59174  29.667   4.932  19.859 -0.4393  0.2761 -0.1053
16258W        W59175  27.363   3.535  17.366 -0.1280 -0.0028  0.1110
16259W        W59176  28.511   3.725  16.543  0.0351  0.0298  0.0460
16260W        W59177  25.891   4.805  19.856  0.1220  0.1971  0.0857
16261W        W59178  28.934   5.370  22.808  0.0109  0.1573 -0.0706
16262W        W59179  25.789   3.268  16.204  0.1508  0.4055 -0.2466
16263W        W59180  27.104   4.326  21.883  0.0182  0.0519  0.0322
16264W        W59181  26.841   6.560  19.663 -0.2498 -0.0529 -0.0653
16265W        W59182  27.624   5.193  18.431  0.2462  0.2641 -0.3621
16266W        W59183  26.946   4.194  16.479  0.1423  0.0933  0.2385
16267W        W59184  25.819   6.302  16.696 -0.4434  0.0739 -0.0297
16268W        W59185  26.137   5.081  20.171 -0.0580  0.0469  0.2704
16269W        W59186  26.932   2.760  18.446 -0.1289 -0.2982 -0.3298
16270W        W59187  26.769   4.843  16.817  0.0345  0.0557  0.0476
16271W        W59188  25.647   7.990  18.694 -0.0451  0.0383  0.0445
16272W        W59189  26.556   7.396  19.425 -0.2387  0.1680  0.1842
16273W        W59190  27.685   2.763  17.173  0.0513  0.4346  0.0260
16274W        W59191  28.929   4.753  20.278 -0.0148  0.0397 -0.0839
16275W        W59192  25.272   7.793  18.909  0.2158  0.0622  0.2270
16276W        W59193  28.035   3.974  18.713  0.1542 -0.2770  0.2955
16277W        W59194  27.862   6.898  21.200  0.0959  0.0134  0.1055
16278W        W59195  24.886   6.157  19.778  0.3815  0.2614  0.0882
16279W        W59196  25.870   9.635  18.802  0.0014 -0.1000  0.1892
16280W        W59197  24.341   2.642  18.029 -0.2369 -0.0634  0.0888
16281W        W59198  26.206   5.453  18.664  0.2994 -0.0479 -0.0626
16282W        W59199  25.999   7.687  18.802  0.2722  0.1504  0.0212
16283W        W59200  27.543   4.316  21.606 -0.1246  0.0422  0.0173
16284W        W59201  26.420   5.899  20.473 -0.0651 -0.0567 -0.1935
16285W        W59202  28.511   8.642  18.617  0.0099  0.0018  0.1520
16286W        W59203  28.640   5.636  22.008  0.1026 -0.0455  0.1322
16287W        W59204  27.561   5.519  17.534 -0.1496 -0.2223  0.1910
16288W        W59205  24.630   7.104  16.838  0.2147 -0.0704  0.1750
16289W        W59206  26.760   3.538  19.464 -0.1991 -0.0429  0.2758
16290W        W59207  27.513   5.559  20.983 -0.0483 -0.2731  0.1581
16291W        W59208  28.841   4.183  19.078  0.0773 -0.1463  0.0906
16292W        W59209  27.539   4.551  17.322 -0.2036 -0.4193 -0.1209
16293W        W59210  27.177   7.847  18.632 -0.0734 -0.5348  0.4506
16294W        W59211  24.826   5.922  21.960 -0.0025 -0.0485 -0.2715
16295W        W59212  23.966   4.042  17.512 -0.0375  0.2360 -0.0317
16296W        W59213  24.509   6.747  18.541 -0.0237  0.2164 -0.3603
16297W        W59214  27.712   5.177  16.598 -0.0115 -0.1529 -0.1659
16298W        W59215  27.787   3.925  17.185 -0.0739  0.2445  0.3434
16299W        W59216  26.973   8.563  18.923  0.3147  0.1180  0.2916
16300W        W59217  26.198   4.288  17.371  0.0380  0.1400 -0.3660
16301W        W59218  23.480   5.946  17.541 -0.2263  0.3203 -0.1704
16302W        W59219  25.003   6.189  16.673 -0.0437  0.0169 -0.0712
16303W        W59220  25.104   5.083  18.790 -0.0347  0.0581 -0.0022
16304W        W59221  25.403   7.012  18.134  0.0895 -0.1097 -0.1217
16305W        W59222  26.506   5.364  20.512 -0.0531  0.1664 -0.1309
16306W        W59223  27.825   4.386  18.371 -0.0883  0.0498 -0.0198
16307W        W59224  26.671   5.091  18.880 -0.0872  0.1248 -0.0331
16308W        W59225  28.802   5.955  19.211  0.1919  0.0697 -0.0531
16309W        W59226  28.374   6.120  20.859  0.2523 -0.1082  0.2428
16310W        W59227  26.562   5.818  18.854  0.0509 -0.1032 -0.0502
16311W        W59228  25.119   3.310  16.862 -0.0974  0.0049 -0.1050
16312W        W59229  26.901   5.309  20.159  0.3024  0.2864 -0.1397
16313W        W59230  28.504   4.033  21.649 -0.2950  0.0357  0.0246
16314W        W59231  24.217   7.695  20.125  0.0297 -0.2883 -0.1012
16315W        W59232  28.120   4.665  16.465  0.1073 -0.1659 -0.0848
16316W        W59233  24.280   4.559  18.151 -0.0944  0.4161 -0.0423
16317W        W59234  25.291   4.888  21.166  0.1388 -0.2643 -0.0525
16318W        W59235  29.391   3.287  19.445  0.2150  0.1012  0.0011
16319W        W59236  27.040   5.054  17.248 -0.0869  0.1756 -0.2680
16320W        W59237  28.721   4.701  19.665  0.5772  0.0128  0.1097
16321W        W59238  27.362   6.448  19.612 -0.1292 -0.2823 -0.1136
16322W        W59239  26.146   6.024  19.052 -0.2186  0.0499 -0.0432
16323W        W59240  24.924   6.508  18.349  0.1409  0.0595 -0.0337
16324W        W59241  24.373   2.906  16.535 -0.2150  0.0859  0.2911
16325W        W59242  28.785   4.551  17.792 -0.1194 -0.0984 -0.3341
16326W        W59243  25.548   4.307  19.130 -0.1665 -0.1809  0.1415
16327W        W59244  26.753   4.680  18.564  0.0044  0.1084 -0.0334
16328W        W59245  26.549   5.018  17.522  0.4914  0.3228  0.1807
16329W        W59246  27.048   4.572  17.208 -0.0148  0.2616 -0.0637
16330W        W59247  26.856   4.222  18.643 -0.0140  0.4355  0.0107
16331W        W59248  26.703   3.555  18.644 -0.1426  0.0225  0.3658
16332W        W59249  27.091   6.615  16.491  0.3523  0.2213 -0.0350
16333W        W59250  28.488   6.307  19.818 -0.3958 -0.3883  0.1387
16334W        W59251  27.317   3.977  17.499  0.1948 -0.1131 -0.3642
16335W        W59252  27.940   7.020  19.131 -0.1140  0.0110 -0.0675
16336W        W59253  24.884   4.388  18.568  0.0646 -0.0134 -0.0131
16337W        W59254  27.145   3.797  18.540 -0.3367 -0.0993 -0.1263
16338W        W59255  25.143   4.833  17.815  0.0476  0.2961  0.1797
16339W        W59256  27.118   5.035  19.199 -0.3133 -0.0399 -0.2749
16340W        W59257  28.003   6.242  20.314  0.1195 -0.0097 -0.1374
16341W        W59258  24.874   4.126  17.236  0.0755  0.0254 -0.0673
16342W        W59259  27.082   5.057  18.590  0.0754  0.0111 -0.1553
16343W        W59260  28.461   7.262  18.338  0.0833 -0.0605  0.2265
16344W        W59261  26.280   8.028  16.950  0.2554 -0.2725 -0.0344
16345W        W59262  27.184   4.417  17.660  0.3386 -0.2608 -0.0137
16346W        W59263  26.616   6.800  18.954  0.1599 -0.0170 -0.0887
16347W        W59264  26.595   3.068  18.610  0.1588  0.2511 -0.0386
16348W        W59265  28.909   6.468  19.953 -0.0404 -0.0227 -0.0612
16349W        W59266  30.633   6.745  19.495 -0.2455  0.1632 -0.0176
16350W        W59267  26.488   3.457  16.950  0.0510 -0.3948 -0.0543
16351W        W59268  26.586   4.517  17.589  0.0536  0.0515 -0.1499
16352W        W59269  25.782  10.451  17.834  0.1875  0.0556  0.2558
16353W        W59270  29.085   2.772  18.649  0.0566  0.1115  0.2360
16354W        W59271  27.623   4.201  20.710  0.1679  0.0234  0.1111
16355W        W59272  26.061   6.769  18.020 -0.0160 -0.0812  0.1726
16356W        W59273  28.144   2.449  20.557 -0.2927  0.1165  0.2481
16357W        W59274  27.159   5.704  19.836 -0.2692 -0.2196 -0.0632
16358W        W59275  28.806   6.495  21.278  0.2851  0.0409 -0.0769
16359W        W59276  26.226   5.575  17.002 -0.0472  0.1066 -0.0684
16360W        W59277  26.155   4.876  19.463  0.3415  0.0049  0.1449
16361W        W59278  28.000   4.404  18.912 -0.1493  0.0910  0.0198
16362W        W59279  25.422   7.968  17.459  0.1986 -0.0775  0.0747
16363W        W59280  29.395   7.218  17.779 -0.2525 -0.1683  0.3462
16364W        W59281  26.998   4.881  17.673  0.1510  0.2620 -0.2244
16365W        W59282  29.967   7.275  18.812  0.0057  0.0484 -0.0922
16366W        W59283  29.461   3.744  18.464 -0.1157  0.1153  0.1788
16367W        W59284  28.846   4.145  17.300  0.2784 -0.2496  0.2267
16368W        W59285  27.862   3.444  17.292  0.1135  0.0268  0.2803
16369W        W59286  27.265   5.855  18.021  0.1182  0.2058  0.0448
16370W        W59287  26.038   5.263  17.310  0.1911  0.0652 -0.0077
16371W        W59288  26.145   6.613  16.393  0.0356  0.4668  0.1123
16372W        W59289  25.099   8.864  17.151  0.2530 -0.0022  0.1169
16373W        W59290  26.567   3.458  21.696  0.0123  0.0152 -0.1079
16374W        W59291  24.406   4.631  18.657  0.0888  0.2694 -0.0019
16375W        W59292  22.782   6.860  18.521  0.0332  0.2235  0.0358
16376W        W59293  24.599   3.373  16.580  0.0095 -0.3653 -0.0407
16377W        W59294  26.729   5.373  16.635 -0.0196  0.0097  0.0725
16378W        W59295  26.373   5.558  17.602  0.0734  0.0511  0.1117
16379W        W59296  25.582   2.977  18.240  0.1514  0.0011  0.1016
16380W        W59297  26.740   5.733  18.054 -0.0259 -0.2433 -0.2490
16381W        W59298  28.897   6.699  18.496  0.2517  0.6753 -0.0830
16382W        W59299  26.136   4.628  18.532  0.0818 -0.0593  0.4494
16383W        W59300  27.559   5.798  22.235  0.1253  0.2861 -0.1116
16384W        W59301  24.352   5.940  16.834 -0.0813  0.0699 -0.1137
16385W        W59302  26.698   3.231  19.951 -0.2249  0.2219  0.2288
16386W        W59303  24.775   2.298  19.131 -0.0969  0.1039  0.1908
16387W        W59304  23.731   3.154  17.943  0.1467  0.1164 -0.0541
16388W        W59305  27.187   3.797  19.605 -0.1366 -0.2574  0.0142
16389W        W59306  25.838   7.192  17.990 -0.2494 -0.0516  0.2057
16390W        W59307  28.607   7.493  16.716  0.0146  0.0982 -0.0966
16391W        W59308  26.450   6.671  19.949 -0.0440  0.3622  0.0333
16392W        W59309  26.878   4.679  18.073 -0.1719  0.0515 -0.0363
16393W        W59310  26.690   3.239  19.088  0.3247  0.1156  0.1127
16394W        W59311  28.513   4.122  17.741 -0.0886  0.3986 -0.0523
16395W        W59312  28.189   4.206  22.424  0.3006  0.0478  0.0774
16396W        W59313  28.746   7.286  20.037 -0.3851 -0.0670 -0.0699
16397W        W59314  28.632   5.084  20.788 -0.1993  0.0289 -0.1602
16398W        W59315  26.631   5.336  17.150  0.1755  0.2313 -0.2696
16399W        W59316  26.461   4.633  18.982  0.0770 -0.1309 -0.2312
16400W        W59317  25.879   6.241  19.847  0.0571 -0.1478 -0.1487
16401W        W59318  30.251   4.812  21.655  0.1602 -0.0070  0.0311
16402W        W59319  26.865   4.526  19.987  0.4317  0.0429  0.0551
16403W        W59320  27.751   2.895  16.687  0.6088 -0.1683 -0.3547
16404W        W59321  26.829   7.142  16.939  0.2849 -0.4172  0.1843
16405W        W59322  24.596   5.791  18.907  0.0752 -0.0868  0.2246
16406W        W59323  28.153   3.659  19.193 -0.2096 -0.2044 -0.1231
16407W        W59324  26.438   4.186  19.942 -0.0632 -0.0979  0.0280
16408W        W59325  25.862   5.972  18.493 -0.0853  0.1598  0.1478
16409W        W59326  27.012   5.472  19.008 -0.0324  0.2169  0.1977
16410W        W59327  25.338   5.604  18.077  0.1272 -0.2524 -0.2116
16411W        W59328  27.498   5.037  17.646 -0.1705  0.0430 -0.3626
16412W        W59329  27.543   6.775  21.549 -0.1455 -0.2570 -0.1629
16413W        W59330  26.344   8.238  20.182  0.0303 -0.0180 -0.1184
16414W        W59331  26.056   6.345  18.244 -0.1580  0.1555  0.0116
16415W        W59332  29.104   5.514  19.835  0.0001 -0.1575  0.0440
16416W        W59333  26.813   3.203  17.255 -0.2133  0.1155 -0.2690
16417W        W59334  26.762   3.776  18.240  0.0138  0.0733 -0.2431
16418W        W59335  25.837   5.529  18.290  0.1744 -0.0972  0.1011
16419W        W59336  27.992   4.842  18.263 -0.3088  0.1032 -0.1209
16420W        W59337  28.625   4.020  20.578  0.2022  0.0355 -0.0559
16421W        W59338  29.452   5.234  18.182 -0.0435 -0.0636 -0.1951
16422W        W59339  26.379   8.004  20.630 -0.0890  0.0126 -0.1073
16423W        W59340  28.095   5.406  19.578  0.0829 -0.2029  0.0822
16424W        W59341  25.644   6.901  22.975 -0.2375  0.0444  0.5084
16425W        W59342  26.631   5.007  19.358  0.0483  0.2168  0.2200
16426W        W59343  27.809   4.161  22.103  0.1950  0.1572 -0.4453
16427W        W59344  28.388   6.405  21.825  0.0041  0.0376 -0.1322
16428W        W59345  23.984   5.176  19.554  0.1632  0.0967  0.2792
16429W        W59346  28.424   5.668  24.924 -0.0443  0.1219  0.3096
16430W        W59347  25.853   3.818  23.392  0.1506  0.0517 -0.0019
16431W        W59348  27.730   6.125  23.453  0.2383 -0.2871 -0.0270
16432W        W59349  29.643   7.055  24.330 -0.1269  0.1743 -0.0215
16433W        W59350  27.193   5.108  21.086  0.4157  0.1589  0.3545
16434W        W59351  25.490   3.405  22.660  0.1679 -0.0463  0.1012
16435W        W59352  27.794   6.605  24.720  0.0478  0.0138  0.4190
16436W        W59353  27.571   3.807  21.419  0.1215 -0.0778  0.4054
16437W        W59354  26.386   3.083  21.960  0.1694 -0.0822 -0.2939
16438W        W59355  27.708   5.550  23.600  0.3072  0.0494  0.0213
16439W        W59356  25.367   5.723  20.655 -0.1208 -0.0055 -0.2570
16440W        W59357  24.487   3.492  23.990 -0.3110 -0.2591 -0.2656
16441W        W59358  27.028   2.575  21.789  0.0505 -0.3365  0.0919
16442W        W59359  25.111   6.885  22.755  0.0604  0.1591  0.1203
16443W        W59360  27.712   5.247  23.108  0.0245  0.1559  0.0211
16444W        W59361  26.921   1.734  24.697  0.2147 -0.3748 -0.1644
16445W        W59362  25.571   4.676  21.541  0.3286 -0.2042 -0.0178
16446W        W59363  24.221   5.009  17.390  0.1252  0.0702 -0.0124
16447W        W59364  24.991   6.116  20.703 -0.0242  0.0259 -0.3141
16448W        W59365  28.259   5.460  23.679 -0.0243 -0.1076 -0.0563
16449W        W59366  28.496   3.640  23.140 -0.2332 -0.1515 -0.2754
16450W        W59367  28.309   3.752  22.557  0.3173 -0.0966  0.2169
16451W        W59368  26.774   5.349  23.054  0.1338  0.0467  0.0825
16452W        W59369  28.162   6.969  24.610  0.0501 -0.0626 -0.1468
16453W        W59370  29.775   7.308  23.559  0.0763 -0.3482 -0.0397
16454W        W59371  24.214   5.516  20.686  0.2587 -0.1769 -0.0057
16455W        W59372  25.116   8.790  21.727  0.0059  0.0005  0.2098
16456W        W59373  23.941   5.591  22.391  0.1997  0.1368  0.1913
16457W        W59374  29.605   6.610  20.599  0.0937 -0.0760  0.1315
16458W        W59375  28.729   5.762  25.380 -0.1887  0.0537  0.0028
16459W        W59376  25.263   5.934  23.050  0.2225  0.2897  0.0761
16460W        W59377  24.537   5.129  22.170 -0.1081 -0.0448 -0.1913
16461W        W59378  26.423   6.982  25.167 -0.3285 -0.1796  0.5213
16462W        W59379  25.570   6.815  23.927  0.0001 -0.1359  0.2032
16463W        W59380  27.537   3.829  23.453 -0.0719  0.2892  0.1889
16464W        W59381  25.788   5.274  19.888  0.0358 -0.1230  0.1724
16465W        W59382  26.185   6.004  22.807 -0.0981 -0.0022  0.1934
16466W        W59383  26.510   7.044  23.198 -0.1895 -0.2712 -0.1764
16467W        W59384  25.424   6.273  25.513  0.4621 -0.0512 -0.0377
16468W        W59385  26.434   6.147  21.609 -0.4066  0.0399  0.1425
16469W        W59386  29.934   2.505  23.152  0.2307  0.2041  0.0327
16470W        W59387  25.231   7.455  21.674 -0.0756 -0.0970 -0.0359
16471W        W59388  28.336   5.445  21.592  0.1315 -0.0778 -0.0866
16472W        W59389  24.796   4.741  19.025 -0.2188 -0.0314 -0.2769
16473W        W59390  29.135   5.012  19.911 -0.2310 -0.4075 -0.2241
16474W        W59391  25.869   3.413  20.187 -0.0993  0.0552  0.1242
16475W        W59392  26.003   5.235  22.238  0.1704 -0.3530  0.1014
16476W        W59393  27.404   3.261  21.162 -0.0346 -0.2930  0.1741
16477W        W59394  26.391   5.579  23.539  0.0403 -0.0777  0.0688
16478W        W59395  26.978   4.887  23.303 -0.0534  0.2013 -0.2526
16479W        W59396  29.005   5.144  24.285 -0.0031 -0.4695  0.2447
16480W        W59397  26.285   6.928  22.219 -0.1115 -0.1540  0.4157
16481W        W59398  25.719   5.761  19.861 -0.0776  0.1890  0.0449
16482W        W59399  26.696   6.284  20.362  0.2635 -0.1695  0.0987
16483W        W59400  29.643   4.840  23.288  0.0612 -0.5225  0.1626
16484W        W59401  25.487   4.414  21.050 -0.2729  0.1642  0.1275
16485W        W59402  25.781   4.505  23.285  0.1718  0.0938  0.0050
16486W        W59403  26.429   4.531  24.350  0.2102 -0.0235  0.0569
16487W        W59404  25.498   5.714  24.884 -0.1157 -0.2668  0.4685
16488W        W59405  26.146   4.227  19.037 -0.1268  0.1240 -0.0001
16489W        W59406  29.877   7.704  24.735  0.0761 -0.3247 -0.1189
16490W        W59407  27.553   6.899  23.723  0.0240 -0.1535 -0.1915
16491W        W59408  27.289   3.647  22.444  0.1743 -0.0672  0.1263
16492W        W59409  26.086   5.905  23.657 -0.3374 -0.2682 -0.4041
16493W        W59410  27.436   7.557  22.920 -0.4022 -0.0091  0.0042
16494W        W59411  28.899   6.613  21.853 -0.5154 -0.1169  0.3185
16495W        W59412  29.043   3.985  23.429 -0.1859 -0.0587  0.1645
16496W        W59413  27.442   4.851  23.373 -0.0594 -0.1051 -0.0089
16497W        W59414  25.342   4.687  18.910  0.0636 -0.2888  0.3552
16498W        W59415  26.697   5.257  21.162 -0.1068 -0.0865  0.0020
16499W        W59416  27.446   6.254  24.695  0.0928 -0.1565 -0.3711
16500W        W59417  27.895   6.098  18.739  0.1388  0.1389 -0.0179
16501W        W59418  26.406   6.347  22.551 -0.3622 -0.0809  0.1174
16502W        W59419  27.789   6.169  24.264  0.0505 -0.0908 -0.0581
16503W        W59420  27.523   8.329  24.150 -0.1863 -0.0927 -0.2407
16504W        W59421  24.087   6.316  19.150 -0.1484 -0.1308 -0.0983
16505W        W59422  24.105   5.536  22.940  0.0239  0.1665 -0.0685
16506W        W59423  24.800   1.888  18.393 -0.0390 -0.0886 -0.2979
16507W        W59424  27.432   3.340  22.007  0.3131 -0.2877 -0.1517
16508W        W59425  28.283   6.375  22.621  0.0370 -0.1439  0.0836
16509W        W59426  27.655   3.365  22.569 -0.0176  0.0381  0.0949
16510W        W59427  27.221   4.294  24.664 -0.1800 -0.0885 -0.0963
16511W        W59428  27.116   1.789  22.097 -0.2663  0.1227 -0.0290
16512W        W59429  25.946   6.059  20.405 -0.1207  0.0360  0.1581
16513W        W59430  28.564   7.321  20.925 -0.0017 -0.5408 -0.1711
16514W        W59431  26.832   6.167  21.279  0.1114 -0.0781 -0.1079
16515W        W59432  28.577   7.561  20.466  0.0195  0.0397 -0.0261
16516W        W59433  27.829   5.071  23.590 -0.2647 -0.2366 -0.0200
16517W        W59434  29.207   7.816  19.277  0.4760 -0.1005 -0.0950
16518W        W59435  27.068   3.295  24.398  0.3103 -0.1890 -0.0744
16519W        W59436  28.080   2.674  23.133 -0.0842 -0.2490  0.1186
16520W        W59437  29.634   5.625  24.044 -0.3087 -0.0907 -0.0559
16521W        W59438  23.986   2.316  21.306 -0.0207  0.1262 -0.0615
16522W        W59439  28.883   5.336  20.397  0.2114  0.1947  0.0077
16523W        W59440  27.189   3.284  22.847  0.1001  0.0241  0.2805
16524W        W59441  25.704   5.284  21.815 -0.4322  0.0022 -0.0588
16525W        W59442  27.801   2.206  24.050  0.0337 -0.1157 -0.1308
16526W        W59443  27.139   7.482  24.559 -0.0008 -0.2859  0.1304
16527W        W59444  27.409   5.754  25.443 -0.1288  0.2138 -0.0538
16528W        W59445  26.640   6.904  24.225 -0.0193  0.0761 -0.0344
16529W        W59446  25.544   3.389  24.048 -0.0899 -0.3410  0.0610
16530W        W59447  27.251   4.210  21.050 -0.0321 -0.1859 -0.0831
16531W        W59448  25.989   8.732  21.607  0.0388  0.0649 -0.2365
16532W        W59449  27.443   6.961  22.892 -0.0412 -0.3468  0.0562
16533W        W59450  26.855   5.048  22.587  0.0199 -0.1809  0.0736
16534W        W59451  29.837   6.326  24.179  0.1220  0.2621  0.3335
16535W        W59452  28.083   6.510  23.468 -0.0799  0.2011  0.0832
16536W        W59453  26.853   6.774  22.876 -0.0976  0.2038  0.0337
16537W        W59454  28.049   5.705  24.357  0.2712 -0.0324 -0.0884
16538W        W59455  29.217   3.943  22.363 -0.2620  0.1116 -0.1403
16539W        W59456  27.172   5.440  21.950 -0.0717  0.1165  0.4684
16540W        W59457  26.092   3.570  20.768  0.0142 -0.0764  0.3071
16541W        W59458  26.770   6.910  22.376  0.1713  0.1107  0.0079
16542W        W59459  26.718   5.706  21.669  0.5750 -0.1831  0.4005
16543W        W59460  25.339   4.980  19.849  0.2827 -0.2990  0.3045
16544W        W59461  25.581   7.031  24.369 -0.0115  0.1077  0.0747
16545W        W59462  29.859   4.071  21.554 -0.2652  0.0425  0.1767
16546W        W59463  26.337   5.506  24.511 -0.0787  0.2055 -0.1812
16547W        W59464  28.663   6.476  23.603  0.0969 -0.0592  0.1706
16548W        W59465  25.110   6.393  20.189  0.0718  0.0794  0.2356
16549W        W59466  24.756   5.440  21.829 -0.0055  0.0221  0.0733
16550W        W59467  28.648   5.854  21.308  0.0306 -0.0576  0.0922
16551W        W59468  29.047   5.467  21.695 -0.0859  0.3501 -0.0818
16552W        W59469  27.595   6.332  25.184 -0.0566  0.1437  0.0743
16553W        W59470  27.704   4.918  22.528 -0.1310  0.0310  0.0434
16554W        W59471  28.506   4.300  18.768 -0.1580 -0.0733 -0.2434
16555W        W59472  23.919   4.922  21.659 -0.0466 -0.1016  0.3712
16556W        W59473  22.357   5.099  24.343 -0.0962  0.0819  0.3271
16557W        W59474  27.969   5.861  23.858 -0.1502 -0.2715 -0.0844
16558W        W59475  29.030   5.367  23.302  0.1272  0.0187 -0.1715
16559W        W59476  25.693   3.703  21.720 -0.1009  0.1524  0.0870
16560W        W59477  29.371   5.471  24.508  0.1071  0.0018  0.0678
16561W        W59478  24.357   4.928  23.754  0.0968 -0.2873  0.2829
16562W        W59479  27.042   6.448  25.044 -0.0695  0.2654 -0.1628
16563W        W59480  29.276   7.090  23.118 -0.0384 -0.0177  0.0645
16564W        W59481  25.492   4.222  24.521 -0.0752  0.2440 -0.0513
16565W        W59482  26.167   4.053  21.875 -0.0272 -0.2836  0.3299
16566W        W59483  29.300   2.719  22.056  0.0698 -0.1756  0.2495
16567W        W59484  25.716   7.409  19.123 -0.2961  0.1145  0.0752
16568W        W59485  29.065   4.238  24.962 -0.1191  0.0423  0.6165
16569W        W59486  29.728   5.551  23.240  0.1374 -0.1282  0.2232
16570W        W59487  28.003   5.296  24.058  0.2013  0.3686 -0.1328
16571W        W59488  26.651   6.496  23.931 -0.2564 -0.2121  0.0237
16572W        W59489  27.369   4.502  20.238  0.0962 -0.0353  0.0631
16573W        W59490  28.914   3.851  21.466  0.0162 -0.2364 -0.0904
16574W        W59491  27.447   4.653  18.591 -0.1569  0.0442  0.1844
16575W        W59492  27.366   2.972  23.495 -0.0515 -0.0217 -0.4079
16576W        W59493  27.084   6.795  24.035 -0.2127  0.1302  0.0037
16577W        W59494  25.384   5.441  22.986  0.0014  0.0944  0.2985
16578W        W59495  27.163   6.858  23.329  0.3576  0.1514 -0.1169
16579W        W59496  27.421   6.135  21.909 -0.1307  0.2316  0.0944
16580W        W59497  26.775   2.505  22.920  0.2732 -0.0019  0.1709
16581W        W59498  25.919   3.079  21.070  0.0002 -0.0801 -0.4864
16582W        W59499  25.250   4.515  22.297  0.2569  0.0319  0.1536
16583W        W59500  25.660   5.896  22.748 -0.0879  0.1086  0.1165
16584W        W59501  26.342   4.994  21.324  0.4120  0.3089  0.0304
16585W        W59502  26.233   7.398  23.394 -0.2149 -0.0674  0.0265
16586W        W59503  25.972   6.036  20.884  0.1322  0.0640 -0.5999
16587W        W59504  28.284   4.984  24.853 -0.2417  0.0782 -0.2446
16588W        W59505  25.212   5.092  22.603  0.0179 -0.0222  0.3095
16589W        W59506  27.624   2.569  23.267  0.1839 -0.0624  0.1525
16590W        W59507  27.572   5.556  22.707 -0.2622  0.0558  0.0837
16591W        W59508  25.594   5.064  20.355 -0.1967 -0.3807  0.1397
16592W        W59509  23.858   5.605  21.889 -0.0159 -0.0037 -0.0451
16593W        W59510  27.327   4.648  20.811 -0.0770 -0.0181  0.1343
16594W        W59511  28.752   5.781  22.843  0.3642 -0.0275  0.3711
16595W        W59512  26.667   3.709  23.392  0.1567 -0.2027  0.1902
16596W        W59513  26.831   3.269  21.332  0.0283  0.2388  0.1442
16597W        W59514  25.301   6.254  22.645 -0.2516 -0.1144  0.0124
16598W        W59515  27.575   4.220  23.166  0.0271 -0.0574  0.5325
16599W        W59516  27.189   3.991  20.589 -0.0575  0.0453  0.1713
16600W        W59517  30.286   7.170  23.460  0.0868  0.3131  0.1411
16601W        W59518  25.942   6.177  24.312 -0.2882 -0.1502 -0.3192
16602W        W59519  24.942   6.586  18.886  0.1271 -0.0046  0.0706
16603W        W59520  29.316   4.411  23.347  0.0594  0.0695  0.1514
16604W        W59521  26.105   3.441  21.787 -0.0763  0.1591  0.5294
16605W        W59522  26.451   6.559  23.101  0.1008  0.1161  0.2121
16606W        W59523  27.711   6.449  23.865 -0.0984  0.0539  0.0047
16607W        W59524  25.453   4.004  20.095  0.0312 -0.2762 -0.0469
16608W        W59525  27.400   5.231  23.758 -0.1515 -0.0580 -0.0471
16609W        W59526  26.263   6.529  24.510 -0.1534  0.1376  0.1210
16610W        W59527  27.581   5.545  24.127 -0.0491  0.1994  0.0101
16611W        W59528  27.166   4.568  23.044  0.0486 -0.0401 -0.1524
16612W        W59529  25.375   2.465  22.779  0.1653 -0.1617  0.0089
16613W        W59530  26.650   4.757  21.664  0.3120 -0.2502  0.0854
16614W        W59531  27.324   6.032  22.674 -0.0026  0.4566  0.2120
16615W        W59532  27.272   3.384  23.786  0.0758 -0.0113 -0.1560
16616W        W59533  26.736   4.372  23.177  0.2931 -0.2703 -0.0096
16617W        W59534  27.250   2.929  22.287  0.3920  0.3351  0.0766
16618W        W59535  28.257   8.012  19.341 -0.0324  0.1727 -0.0976
16619W        W59536  28.037   6.529  25.270  0.3058 -0.2577 -0.2769
16620W        W59537  25.432   5.493  21.422 -0.1228  0.0933 -0.1537
16621W        W59538  26.665   4.227  21.646 -0.0443  0.1496  0.0003
16622W        W59539  27.342   4.281  19.285  0.0090 -0.2871  0.1265
16623W        W59540  28.605   4.669  22.442  0.1013  0.0021 -0.0371
16624W        W59541  25.832   5.798  22.279 -0.0127 -0.1599 -0.2443
16625W        W59542  26.152   5.458  21.409 -0.0297  0.0196 -0.2132
16626W        W59543  27.214   5.854  21.583  0.2346  0.0087  0.1917
16627W        W59544  27.767   4.647  21.041  0.0122  0.1609  0.1502
16628W        W59545  27.991   4.681  21.495 -0.3157 -0.1852 -0.3846
16629W        W59546  29.664   4.853  22.413 -0.1710  0.0192 -0.2243
16630W        W59547  28.529   4.241  22.766 -0.0983 -0.0935 -0.3057
16631W        W59548  27.542   5.146  21.879  0.0117  0.0904  0.1567
16632W        W59549  28.367   3.094  23.217  0.0920 -0.2404 -0.3051
16633W        W59550  25.122   4.526  21.793  0.0222 -0.3321  0.1142
16634W        W59551  27.437   5.434  21.478  0.1370 -0.0809  0.0221
16635W        W59552  25.544   4.828  22.974 -0.1241 -0.2417 -0.1467
16636W        W59553  26.378   8.526  24.949 -0.0412  0.0978 -0.2936
16637W        W59554  25.854   6.094  25.773  0.2080 -0.1690  0.2763
16638W        W59555  25.750   5.107  21.334 -0.1243 -0.0990  0.2812
16639W        W59556  26.230   2.712  21.047  0.2558  0.2274 -0.0603
16640W        W59557  26.746   4.950  24.268  0.0267 -0.0135  0.1534
16641W        W59558  28.073   4.613  22.119  0.2157  0.1477  0.1987
16642W        W59559  28.584   6.999  22.095  0.0908 -0.1010 -0.5927
16643W        W59560  29.734   4.027  23.310  0.0397  0.0269  0.5616
16644W        W59561  25.481   5.172  23.373 -0.0650 -0.0934 -0.0354
16645W        W59562  27.802   5.615  21.852  0.0984 -0.0561 -0.2153
16646W        W59563  28.700   5.729  20.644 -0.1533 -0.0055  0.0038
16647W        W59564  22.994   5.713  19.766 -0.0565  0.1747  0.0382
16648W        W59565  26.498   3.566  22.645  0.0483 -0.2080 -0.0859
16649W        W59566  26.160   5.266  20.919  0.1357 -0.0386  0.1550
16650W        W59567  26.451   2.588  21.852  0.0310 -0.1851  0.2039
16651W        W59568  28.827   4.459  23.604  0.1217 -0.0322 -0.0865
16652W        W59569  27.662   3.206  23.118 -0.3609  0.2206 -0.0368
16653W        W59570  25.979   6.606  23.213 -0.0354  0.0420  0.0132
16654W        W59571  25.314   5.507  26.107  0.1950 -0.0949  0.1884
16655W        W59572  27.661   6.805  25.108  0.2673 -0.0469  0.1699
16656W        W59573  25.973   5.592  20.584 -0.1627 -0.0749 -0.0023
16657W        W59574  31.062   2.948  23.845 -0.4361  0.1750 -0.0819
16658W        W59575  28.314   4.973  21.281 -0.1422  0.3694  0.0136
16659W        W59576  28.316   4.700  20.265  0.1717 -0.0584  0.1125
16660W        W59577  23.583   4.351  23.028 -0.0697 -0.0934  0.2840
16661W        W59578  27.436   5.959  23.840 -0.2365  0.0682  0.1830
16662W        W59579  27.322   5.461  20.310 -0.2387 -0.1396 -0.1147
16663W        W59580  28.965   3.945  22.875 -0.1738 -0.0990 -0.4643
16664W        W59581  26.029   7.325  20.961  0.0829  0.3473 -0.1025
16665W        W59582  27.612   6.603  23.318  0.0481 -0.0880  0.0635
16666W        W59583  29.328   5.127  20.335  0.0268 -0.2907 -0.1475
16667W        W59584  26.475   4.218  22.217 -0.0602 -0.2150 -0.0214
16668W        W59585  25.324   4.635  23.429 -0.1097  0.2529  0.0314
16669W        W59586  25.115   4.480  19.419  0.0102  0.1762 -0.0731
16670W        W59587  25.601   4.221  21.996  0.1042 -0.3232 -0.0059
16671W        W59588  26.608   4.819  22.960  0.1211 -0.0850  0.2661
16672W        W59589  29.104   4.923  23.667  0.0919  0.0427 -0.0752
16673W        W59590  26.348   4.006  22.703  0.1190  0.0694 -0.3532
16674W        W59591  27.131   3.676  24.730 -0.0149  0.0644 -0.0790
16675W        W59592  25.514   4.906  22.122  0.0048 -0.1596  0.0934
16676W        W59593  27.105   2.395  22.417 -0.0844 -0.3321  0.0445
16677W        W59594  26.444   8.802  22.451  0.0134  0.1637 -0.4604
16678W        W59595  24.702   6.245  23.204 -0.1572  0.1134 -0.1268
16679W        W59596  26.157   7.610  22.630  0.0023 -0.0760  0.2456
16680W        W59597  28.997   4.336  22.608  0.0140  0.2230 -0.1482
16681W        W59598  27.752   4.383  22.555  0.2487 -0.0252  0.4078
16682W        W59599  26.766   6.162  22.842  0.5932  0.1446 -0.2769
16683W        W59600  29.486   5.096  24.120  0.1265  0.0781  0.1698
16684W        W59601  29.551   5.258  23.613 -0.1864  0.1025  0.1227
16685W        W59602  26.132   4.721  23.983 -0.0039  0.1891  0.2159
16686W        W59603  29.273   7.423  24.171  0.1566  0.2554 -0.1309
16687W        W59604  28.887   4.405  23.104 -0.2966 -0.2642  0.2380
16688W        W59605  27.008   5.608  21.178  0.0167 -0.3264 -0.0158
16689W        W59606  24.703   4.477  24.033  0.2650 -0.1941  0.1633
16690W        W59607  27.322   4.012  22.784 -0.0010 -0.1895 -0.0485
16691W        W59608  28.518   5.040  22.880 -0.2597  0.1581 -0.0625
16692W        W59609  25.006   5.107  20.179 -0.4380  0.0306 -0.2363
16693W        W59610  26.858   5.978  20.789 -0.0653  0.1308  0.3399
16694W        W59611  25.328   7.356  25.360  0.2505  0.1801  0.1722
16695W        W59612  28.248   4.887  23.804 -0.2042 -0.1558  0.1241
16696W        W59613  25.856   6.548  21.690  0.1509 -0.2254  0.2530
16697W        W59614  27.216   6.766  22.480 -0.0771  0.0920  0.1122
16698W        W59615  26.979   5.807  22.313 -0.2733  0.0808 -0.1199
16699W        W59616  25.648   7.731  22.759 -0.5332  0.0486 -0.0253
16700W        W59617  26.338   4.625  22.442  0.0629 -0.2399  0.0819
16701W        W59618  26.811   4.447  22.619 -0.1244 -0.1870 -0.0837
16702W        W59619  25.527   7.316  21.236 -0.1613  0.1893  0.2059
16703W        W59620  27.125   8.271  20.969 -0.0960  0.2822 -0.0343
16704W        W59621  24.656   4.835  21.776 -0.0105 -0.2060 -0.2230
16705W        W59622  26.694   5.349  25.198 -0.0112 -0.0791  0.0056
16706W        W59623  27.733   5.692  20.175 -0.2609  0.1053  0.0914
16707W        W59624  31.130   5.043  21.909  0.0684  0.1556 -0.1524
16708W        W59625  29.708   4.332  20.562  0.0320 -0.1312  0.0983
16709W        W59626  29.233   4.359  24.532 -0.1064 -0.0411  0.2230
16710W        W59627  28.615   4.134  22.134 -0.2370 -0.1219 -0.1469
16711W        W59628  25.973   4.687  22.124 -0.2350  0.2557 -0.0177
16712W        W59629  26.849   4.668  24.842  0.2881 -0.1571 -0.1791
16713W        W59630  30.416   3.438  24.305  0.0881  0.1804  0.3273
16714W        W59631  26.612   7.389  23.686  0.0152 -0.1258 -0.3371
16715W        W59632  27.252   7.828  19.147 -0.1492 -0.1733 -0.2948
16716W        W59633  24.818   4.774  21.187 -0.3867 -0.1171 -0.3579
16717W        W59634  26.541   5.275  21.678  0.3145 -0.0249 -0.1039
16718W        W59635  26.674   1.452  21.477  0.1865 -0.2586  0.1066
16719W        W59636  26.421   4.699  19.827 -0.0484 -0.2428 -0.0383
16720W        W59637  28.705   2.508  22.003 -0.1833  0.0136  0.3048
16721W        W59638  27.876   6.375  22.983  0.0309 -0.0218  0.0608
16722W        W59639  27.836   5.110  21.083  0.1583  0.3041 -0.0304
16723W        W59640  24.063   4.631  21.049  0.1732 -0.0450  0.0684
16724W        W59641  24.662   4.422  20.264  0.0128  0.1044 -0.1636
16725W        W59642  29.494   4.018  22.864  0.0796  0.2887  0.0291
16726W        W59643  27.189   2.476  23.375 -0.1644 -0.0593 -0.1227
16727W        W59644  28.161   1.648  22.186 -0.0845 -0.4335 -0.2443
16728W        W59645  26.364   5.140  22.641 -0.0869  0.2897 -0.0020
16729W        W59646  29.323   4.294  21.042  0.1533 -0.0320  0.2100
16730W        W59647  26.034   6.771  22.669  0.4090  0.0309  0.1345
16731W        W59648  27.798   4.043  23.905  0.0121 -0.0100  0.0799
16732W        W59649  27.460   5.861  20.607 -0.3852 -0.0344  0.1360
16733W        W59650  27.260   6.953  24.650  0.0994 -0.1746  0.0702
16734W        W59651  27.521   5.314  18.974 -0.2522 -0.1513 -0.0558
16735W        W59652  28.735   6.201  24.051 -0.0449 -0.1264 -0.0836
16736W        W59653  25.710   3.213  22.258 -0.0001  0.0005 -0.3182
16737W        W59654  26.897   4.450  20.559 -0.0672 -0.0845 -0.3670
16738W        W59655  24.486   6.106  22.450 -0.0234 -0.1585  0.0751
16739W        W59656  26.278   4.058  23.219  0.0245  0.0558  0.1284
16740W        W59657  29.426   8.346  25.455  0.0431 -0.3365 -0.0090
16741W        W59658  25.611   4.710  20.681 -0.1250  0.0224  0.0865
16742W        W59659  30.571   8.482  20.677 -0.0667  0.0201 -0.1977
16743W        W59660  28.243   6.295  23.915  0.1178  0.1206  0.0886
16744W        W59661  26.874   5.790  20.357  0.0143  0.0702 -0.3560
16745W        W59662  27.331   6.293  24.185  0.1601  0.3230  0.0394
16746W        W59663  28.645   6.089  24.802 -0.0376  0.1578  0.1316
16747W        W59664  24.351   5.878  24.910  0.2836  0.1118 -0.1674
16748W        W59665  25.899   5.770  23.165  0.1419 -0.1659 -0.0743
16749W        W59666  28.672   7.891  22.279  0.1922 -0.0717  0.1474
16750W        W59667  24.584   5.303  20.382  0.1472  0.2961  0.1213
16751W        W59668  26.356   6.265  25.025 -0.0684 -0.2651 -0.0756
16752W        W59669  26.063   8.999  20.716  0.3965 -0.1939  0.1041
16753W        W59670  28.632   4.713  24.050  0.0985 -0.0545  0.3912
16754W        W59671  29.242   2.975  24.204 -0.0694 -0.3036  0.3659
16755W        W59672  27.153   4.964  20.423 -0.2810  0.0970 -0.1103
16756W        W59673  29.982   4.827  22.917 -0.0447 -0.1329 -0.0754
16757W        W59674  27.584   7.613  25.497  0.1130  0.0120 -0.0463
16758W        W59675  25.694   6.179  24.751  0.0852 -0.0435 -0.2868
16759W        W59676  24.780   4.831  18.365 -0.1558 -0.0542 -0.0276
16760W        W59677  25.734   5.336  25.128  0.1499 -0.0168  0.0564
16761W        W59678  25.803   5.433  22.647 -0.1568 -0.0555  0.2114
16762W        W59679  26.475   5.957  22.185 -0.1530 -0.1928 -0.0294
16763W        W59680  29.011   7.242  22.689 -0.0958 -0.0355 -0.0521
16764W        W59681  27.449   4.778  21.476  0.3723  0.0660 -0.1274
16765W        W59682  29.461   7.626  25.105 -0.0096  0.3169 -0.0632
16766W        W59683  27.238   4.702  22.394  0.0031 -0.1105  0.2700
16767W        W59684  30.364   4.949  22.692 -0.2570 -0.2551 -0.1838
16768W        W59685  27.929   5.578  20.698 -0.1456 -0.1128  0.1239
16769W        W59686  28.308   6.074  22.996  0.0587 -0.0715 -0.0915
16770W        W59687  27.077   4.888  21.969  0.1060 -0.1822  0.1025
16771W        W59688  25.512   5.107  18.028  0.1872 -0.1440 -0.2459
16772W        W59689  25.921   4.900  22.593 -0.0122 -0.1785  0.4208
16773W        W59690  27.933   3.555  24.393  0.1029 -0.1074 -0.2975
16774W        W59691  26.827   6.490  23.413  0.0874 -0.2720 -0.0746
16775W        W59692  26.000   4.908  23.522  0.4307  0.0525  0.4085
16776W        W59693  27.559   2.208  21.017  0.0163  0.4351  0.0019
16777W        W59694  30.069   7.602  20.584  0.1874 -0.1834  0.0113
16778W        W59695  25.039   5.005  23.230 -0.0898  0.4795 -0.0868
16779W        W59696  24.626   5.405  24.552  0.3862 -0.2548  0.2057
16780W        W59697  28.008   6.529  20.864 -0.2449 -0.2025 -0.0175
16781W        W59698  28.498   6.722  24.104  0.1851  0.0486  0.1840
16782W        W59699  26.653   3.757  21.324  0.1634  0.1292  0.3654
16783W        W59700  29.576   7.295  24.776  0.2557  0.0423  0.1039
16784W        W59701  25.110   7.250  20.965 -0.2122  0.1540  0.1120
16785W        W59702  28.294   3.284  23.711  0.3184  0.2062 -0.1550
16786W        W59703  27.183   3.963  23.803  0.0726  0.0264  0.3529
16787W        W59704  27.906   4.483  20.006 -0.1692  0.3440 -0.1017
16788W        W59705  28.740   4.557  24.491  0.2051 -0.2465 -0.1037
16789W        W59706  27.483   6.654  25.597 -0.2685 -0.1337  0.1645
16790W        W59707  28.693   8.180  22.792  0.1274 -0.3810  0.1533
16791W        W59708  26.450   5.727  25.036  0.2322 -0.2536 -0.1672
16792W        W59709  28.435   8.671  25.019 -0.0833 -0.1342 -0.0403
16793W        W59710  26.839   1.901  25.613  0.0931 -0.2841  0.0074
16794W        W59711  26.488   4.778  20.314  0.0943 -0.0794 -0.5402
16795W        W59712  25.764   5.014  24.773  0.1973 -0.0715  0.1335
16796W        W59713  28.998   4.813  22.826  0.0854  0.1844  0.0238
16797W        W59714  29.322   3.368  24.550  0.0738 -0.0842 -0.1615
16798W        W59715  27.614   6.406  22.327 -0.1412  0.0506  0.3356
16799W        W59716  25.101   4.645  22.848  0.2936  0.0142  0.1268
16800W        W59717  25.954   5.163  23.043  0.2515 -0.2214 -0.1864
16801W        W59718  28.782   5.694  24.509  0.3735 -0.0859  0.1418
16802W        W59719  27.749   2.429  22.519  0.3990 -0.1631  0.1345
16803W        W59720  27.988   4.139  21.647 -0.3665 -0.3013  0.1131
16804W        W59721  25.277   8.359  22.284 -0.0914  0.0831 -0.0334
16805W        W59722  27.261   4.755  24.446  0.4786 -0.0834  0.2722
16806W        W59723  27.844   3.811  22.426  0.0972  0.2447 -0.1706
16807W        W59724  24.914   5.526  22.314 -0.0265 -0.2017 -0.1001
16808W        W59725  26.943   6.375  22.435  0.0768 -0.0393 -0.1493
16809W        W59726  29.024   5.569  26.171  0.0600  0.0807 -0.0003
16810W        W59727  26.117   5.647  21.878 -0.2708 -0.2612 -0.0249
16811W        W59728  26.448   7.098  21.359  0.3752 -0.3291 -0.0059
16812W        W59729  25.969   7.899  24.188  0.3883  0.0749  0.1320
16813W        W59730  28.189   7.046  25.137 -0.4859  0.1817 -0.0641
16814W        W59731  26.297   9.217  24.896 -0.2585 -0.0856  0.2235
16815W        W59732  27.974   5.141  21.689  0.2054  0.1643  0.0784
16816W        W59733  26.176   3.797  25.058 -0.1582 -0.1936 -0.1027
16817W        W59734  27.260   4.131  22.308 -0.1178 -0.0346 -0.1634
16818W        W59735  25.052   4.028  21.812  0.0988  0.0352 -0.1298
16819W        W59736  31.289   5.164  23.020  0.0772  0.0005 -0.0187
16820W        W59737  25.380   3.763  22.990 -0.2530  0.0847 -0.1496
16821W        W59738  28.287   1.344  20.530 -0.1912  0.1581 -0.0443
16822W        W59739  25.122   5.574  24.467  0.2544 -0.0230 -0.1732
16823W        W59740  27.230   5.454  23.147 -0.1400 -0.1000 -0.1519
16824W        W59741  25.269   5.699  26.550 -0.2654 -0.2265 -0.0173
16825W        W59742  27.731   4.577  25.085  0.0978 -0.0545  0.5688
16826W        W59743  29.253   3.541  22.720 -0.1917  0.0841 -0.1045
16827W        W59744  29.561   4.810  26.666  0.3644 -0.3831  0.0731
16828W        W59745  26.202   4.580  27.343 -0.2871  0.2615 -0.2839
16829W        W59746  27.655   5.841  26.146 -0.1479 -0.0014  0.0890
16830W        W59747  26.156   3.123  28.436  0.3798  0.2275  0.1295
16831W        W59748  29.336   5.273  27.307  0.0827 -0.2884 -0.0462
16832W        W59749  28.655   6.292  27.284 -0.2864 -0.0323  0.2301
16833W        W59750  26.421   5.119  23.325  0.2143  0.0493  0.3312
16834W        W59751  26.687   4.325  28.313 -0.1038  0.0470 -0.2136
16835W        W59752  27.368   7.760  27.263  0.1760 -0.0604  0.0843
16836W        W59753  27.751   6.162  25.631 -0.0094 -0.0959 -0.0280
16837W        W59754  28.073   4.257  26.932  0.4466 -0.1657  0.0238
16838W        W59755  28.449   6.232  26.638  0.2428 -0.0965  0.0484
16839W        W59756  26.117   6.737  25.504  0.0733 -0.0561 -0.2296
16840W        W59757  25.670   5.875  27.664  0.0958  0.0055 -0.0873
16841W        W59758  28.266   5.141  26.451  0.1169  0.0179 -0.2335
16842W        W59759  27.932   6.105  26.461  0.1874 -0.0060 -0.0185
16843W        W59760  27.353   3.938  27.831  0.0615 -0.0528  0.0522
16844W        W59761  26.376   4.057  24.090 -0.1299  0.0055 -0.0443
16845W        W59762  26.878   4.307  25.528 -0.0924 -0.2083 -0.0176
16846W        W59763  26.108   6.789  24.080  0.2290  0.1357  0.3600
16847W        W59764  23.606   5.983  25.564 -0.0133  0.0881  0.1093
16848W        W59765  28.422   5.480  25.706 -0.1584  0.1650  0.0439
16849W        W59766  28.956   4.713  27.404 -0.0865  0.0442  0.1279
16850W        W59767  28.915   4.512  25.855 -0.1214 -0.0328 -0.1341
16851W        W59768  28.268   4.124  27.328 -0.2598 -0.4164  0.0255
16852W        W59769  26.805   6.294  25.769 -0.0581  0.1514  0.2091
16853W        W59770  29.203   4.666  26.214  0.0200  0.0401 -0.0790
16854W        W59771  25.791   6.118  27.268 -0.1736 -0.1842  0.2306
16855W        W59772  22.888   5.662  25.310  0.1376  0.1102  0.2224
16856W        W59773  26.590   5.842  26.715 -0.1307  0.1116 -0.2149
16857W        W59774  29.938   4.496  26.294 -0.3705 -0.1471  0.3346
16858W        W59775  30.630   6.441  30.720 -0.1662 -0.2211  0.0567
16859W        W59776  28.749   8.566  27.141 -0.4059  0.3674 -0.2990
16860W        W59777  25.890   6.440  23.806 -0.0314  0.0496 -0.1615
16861W        W59778  28.495   7.525  28.846 -0.0708 -0.2883  0.0657
16862W        W59779  23.755   5.317  27.486 -0.2047 -0.5001  0.0818
16863W        W59780  28.154   5.441  25.296  0.3256  0.2720 -0.0648
16864W        W59781  27.180   5.215  24.152  0.0784 -0.2582 -0.1037
16865W        W59782  25.844   7.184  24.809 -0.0178 -0.4093 -0.0199
16866W        W59783  28.016   7.041  27.280  0.2975  0.1012  0.1746
16867W        W59784  26.583   5.790  27.721 -0.3023 -0.4063  0.2231
16868W        W59785  26.069   6.629  26.483  0.0771 -0.0021 -0.1329
16869W        W59786  29.665   3.105  28.264  0.4452  0.0340  0.2111
16870W        W59787  25.181   6.382  26.404  0.1530 -0.4688 -0.0327
16871W        W59788  29.511   5.413  25.018  0.2209  0.2150  0.3084
16872W        W59789  26.232   3.532  23.156  0.4563 -0.0016 -0.1611
16873W        W59790  29.224   3.850  24.250  0.1056 -0.0302  0.1793
16874W        W59791  28.040   4.889  26.105  0.1201 -0.1197  0.0229
16875W        W59792  25.680   6.271  26.263  0.3606  0.0775  0.1832
16876W        W59793  25.205   2.496  27.045  0.2394 -0.0954  0.0229
16877W        W59794  28.476   4.396  28.752 -0.1528  0.0964  0.0738
16878W        W59795  27.240   4.458  25.137  0.0211  0.1677 -0.2020
16879W        W59796  27.161   5.341  26.500 -0.3098  0.1409 -0.3334
16880W        W59797  27.322   6.827  26.567 -0.0008 -0.1016 -0.2171
16881W        W59798  26.272   6.421  25.982  0.1569 -0.0993 -0.1048
16882W        W59799  26.843   6.352  27.092  0.1535  0.1262 -0.1969
16883W        W59800  28.981   6.098  25.178 -0.1238  0.1126 -0.1841
16884W        W59801  27.243   6.402  23.673 -0.0998  0.2410  0.0867
16885W        W59802  25.727   4.411  25.675  0.0891  0.1923  0.0464
16886W        W59803  24.934   5.561  26.900  0.0246  0.0994  0.2709
16887W        W59804  24.958   5.743  28.192  0.0961 -0.3122 -0.0294
16888W        W59805  26.356   4.066  26.065  0.2901 -0.2706  0.2309
16889W        W59806  29.289   4.898  28.195 -0.1352  0.0562 -0.1472
16890W        W59807  24.770   6.558  26.640  0.3291 -0.1016 -0.2922
16891W        W59808  30.797   5.914  26.356  0.1832 -0.0004  0.3506
16892W        W59809  27.401   6.882  26.036 -0.0347  0.0461  0.1377
16893W        W59810  28.813   7.186  28.451 -0.2450 -0.1303 -0.0542
16894W        W59811  29.238   4.271  23.830  0.0196  0.4269 -0.1024
16895W        W59812  27.224   3.116  24.861  0.0763  0.0031 -0.0540
16896W        W59813  28.229   3.473  26.164 -0.1461 -0.1092 -0.3116
16897W        W59814  26.710   3.141  24.121 -0.1233  0.1361  0.3335
16898W        W59815  26.841   6.668  26.664  0.3052 -0.1132  0.1223
16899W        W59816  30.639   5.243  26.670 -0.1584  0.2811 -0.1526
16900W        W59817  27.348   5.340  24.617 -0.3244  0.0367  0.1917
16901W        W59818  24.497   5.767  26.737  0.4096 -0.1546 -0.0425
16902W        W59819  24.881   5.098  28.229 -0.0467 -0.2393  0.0718
16903W        W59820  28.202   7.354  27.609  0.0058 -0.0609 -0.0789
16904W        W59821  25.359   6.456  23.648  0.1496 -0.0141  0.0840
16905W        W59822  25.995   4.090  27.454 -0.0582  0.0639 -0.0196
16906W        W59823  26.846   6.129  24.186 -0.0101 -0.0642 -0.3755
16907W        W59824  25.640   2.914  26.948  0.0313  0.2911 -0.0424
16908W        W59825  26.377   5.329  26.802  0.0020 -0.2816  0.2594
16909W        W59826  29.735   5.816  25.157  0.0323  0.2407 -0.1622
16910W        W59827  26.338   3.233  27.817 -0.0076  0.3025  0.0804
16911W        W59828  30.029   4.884  26.576  0.0251  0.1401  0.0591
16912W        W59829  26.836   6.068  24.679 -0.1172 -0.2374 -0.0274
16913W        W59830  26.967   5.751  25.593 -0.0494  0.1257 -0.1978
16914W        W59831  30.414   5.347  24.147  0.3796 -0.2314  0.0755
16915W        W59832  31.045   5.435  22.716 -0.0670 -0.1731  0.1630
16916W        W59833  23.360   2.752  26.753  0.1486  0.1229  0.0862
16917W        W59834  26.535   4.868  28.192  0.0437  0.0147  0.0549
16918W        W59835  26.767   5.032  26.773 -0.2347  0.3431  0.1450
16919W        W59836  24.055   5.626  27.121 -0.0423 -0.0794  0.1726
16920W        W59837  28.943   4.879  25.536  0.1668  0.0771  0.1276
16921W        W59838  26.271   1.699  23.574  0.1698 -0.1065  0.0031
16922W        W59839  28.569   5.512  26.357  0.1861 -0.1608 -0.1277
16923W        W59840  26.676   6.062  26.179  0.1524  0.0310  0.0182
16924W        W59841  22.023   5.102  24.787 -0.0108  0.2320  0.1007
16925W        W59842  29.951   3.689  27.230 -0.1068 -0.1698  0.0545
16926W        W59843  26.634   7.178  26.683  0.0529  0.3021 -0.2162
16927W        W59844  29.724   5.804  29.147 -0.0010  0.1412 -0.0630
16928W        W59845  27.788   6.724  26.903 -0.1154  0.0861 -0.0182
16929W        W59846  25.841   4.929  27.564  0.1942 -0.1822  0.1036
16930W        W59847  26.003   4.222  25.277 -0.0133 -0.0683 -0.1515
16931W        W59848  26.547   6.899  25.696  0.0260 -0.0607  0.2880
16932W        W59849  29.954   5.962  26.293  0.0641  0.0999  0.3818
16933W        W59850  27.283   3.028  25.937 -0.0221 -0.0260 -0.3307
16934W        W59851  28.474   7.408  27.212  0.0285  0.0121 -0.3588
16935W        W59852  27.324   5.862  24.397 -0.0115 -0.1316  0.2561
16936W        W59853  26.263   5.315  27.987  0.1531 -0.1929  0.0365
16937W        W59854  28.683   3.486  29.108 -0.0474  0.0779 -0.0939
16938W        W59855  29.658   4.404  28.667  0.2380 -0.2250 -0.0652
16939W        W59856  28.553   5.155  25.356 -0.2343 -0.0646  0.2144
16940W        W59857  27.104   4.010  23.276 -0.3283  0.0157 -0.1626
16941W        W59858  27.837   7.862  25.791  0.0539  0.4584  0.2369
16942W        W59859  24.618   7.190  26.029  0.0538  0.0622  0.0623
16943W        W59860  25.111   5.382  27.884 -0.0117 -0.0279 -0.1465
16944W        W59861  29.384   7.197  27.919 -0.3476  0.0444  0.0830
16945W        W59862  27.618   5.749  24.791  0.1162 -0.5569  0.0737
16946W        W59863  27.553   6.845  27.324 -0.1844 -0.2488 -0.1952
16947W        W59864  26.785   6.046  25.288  0.0122 -0.0043  0.0342
16948W        W59865  24.193   5.756  24.382  0.0934  0.2486  0.3302
16949W        W59866  28.223   6.104  27.080  0.2322  0.2213  0.2140
16950W        W59867  28.458   4.302  25.821 -0.0975  0.1288  0.0573
16951W        W59868  28.652   5.997  23.324  0.1425  0.3661  0.2921
16952W        W59869  29.117   4.475  29.424 -0.2298  0.1227 -0.0776
16953W        W59870  29.036   5.263  25.082  0.0339 -0.0907  0.2467
16954W        W59871  29.169   5.388  23.871  0.2274  0.0753  0.1239
16955W        W59872  27.684   4.514  24.608 -0.1546  0.0575  0.3193
16956W        W59873  25.787   8.393  28.837 -0.1096 -0.2631 -0.2401
16957W        W59874  26.297   7.583  26.566 -0.0191 -0.0276 -0.1844
16958W        W59875  26.664   7.193  27.210 -0.1194 -0.1633  0.0542
16959W        W59876  28.130   3.981  23.528  0.0938 -0.0669 -0.0544
16960W        W59877  29.115   6.113  26.759 -0.2148  0.0866  0.0484
16961W        W59878  25.822   4.333  26.167 -0.1674 -0.0782  0.0908
16962W        W59879  27.719   5.219  26.316  0.0308 -0.3406  0.1336
16963W        W59880  28.327   5.981  26.201 -0.0133  0.4585 -0.1037
16964W        W59881  28.084   3.300  25.644 -0.1384 -0.0426  0.2906
16965W        W59882  26.212   5.009  24.361  0.0402  0.0850 -0.3938
16966W        W59883  27.758   2.184  26.478  0.2040  0.0796  0.1431
16967W        W59884  23.181   5.644  25.818 -0.1419  0.1187 -0.0672
16968W        W59885  28.780   4.768  25.005 -0.0843 -0.2126 -0.0191
16969W        W59886  27.775   4.651  27.216  0.1063 -0.1397 -0.1119
16970W        W59887  26.943   3.981  26.458  0.2719  0.0553  0.0255
16971W        W59888  28.571   4.231  26.649  0.0617 -0.1337 -0.2457
16972W        W59889  28.642   6.481  25.250 -0.1703  0.0935 -0.2828
16973W        W59890  26.400   6.189  28.081 -0.1009 -0.0599  0.1529
16974W        W59891  23.782   2.712  23.034 -0.1602 -0.0151  0.2574
16975W        W59892  27.392   3.105  26.447  0.4586 -0.0206 -0.0084
16976W        W59893  26.392   6.690  27.968 -0.2679 -0.1687  0.0514
16977W        W59894  24.599   6.377  27.160  0.0764 -0.0167  0.4031
16978W        W59895  27.303   8.210  26.965 -0.2050  0.3998 -0.1004
16979W        W59896  29.447   5.739  26.921  0.3420  0.1775 -0.3050
16980W        W59897  26.842   3.063  27.783 -0.1467 -0.1500 -0.1113
16981W        W59898  25.308   5.609  27.459 -0.1856 -0.0298 -0.0975
16982W        W59899  27.597   8.298  26.070  0.1027 -0.0294 -0.4048
16983W        W59900  25.454   4.451  26.865 -0.2467  0.0570 -0.0429
16984W        W59901  25.379   5.805  25.693  0.2715 -0.1373 -0.1078
16985W        W59902  28.072   6.832  25.621  0.1057 -0.0505 -0.1136
16986W        W59903  26.119   4.734  26.030  0.1316  0.3359 -0.3442
16987W        W59904  27.067   4.124  27.469 -0.0393  0.4163 -0.1172
16988W        W59905  27.000   5.632  26.138  0.0714  0.1525 -0.0040
16989W        W59906  29.406   2.354  25.710 -0.0683  0.0166  0.1665
16990W        W59907  23.052   6.685  26.540 -0.2063  0.1802  0.1570
16991W        W59908  25.996   5.776  24.906  0.1282  0.2365  0.1428
16992W        W59909  24.208   4.777  26.088 -0.1025  0.2040 -0.3175
16993W        W59910  27.216   3.903  25.419  0.0066  0.1131  0.2546
16994W        W59911  28.452   4.813  25.792  0.2617 -0.1834 -0.2443
16995W        W59912  22.992   5.806  26.315 -0.0499 -0.2483 -0.4679
16996W        W59913  28.620   4.858  26.885  0.2344  0.2141  0.2177
16997W        W59914  27.566   6.418  26.062 -0.2428  0.0408  0.1985
16998W        W59915  29.986   6.371  28.547 -0.0857  0.0731 -0.1834
16999W        W59916  28.354   3.007  25.131 -0.1191  0.1228 -0.3931
17000W        W59917  28.571   4.419  29.279 -0.0565  0.0468 -0.1736
17001W        W59918  26.683   6.990  28.295  0.0023  0.1856  0.0617
17002W        W59919  24.477   5.484  24.030 -0.1990  0.3833 -0.0758
17003W        W59920  28.508   4.329  28.095  0.1098 -0.0584 -0.1310
17004W        W59921  27.681   7.120  25.600 -0.0726  0.2803 -0.2575
17005W        W59922  25.749   4.451  24.841 -0.0739  0.0140 -0.2651
17006W        W59923  29.657   7.684  28.061 -0.2395  0.1126  0.0283
17007W        W59924  26.256   5.219  24.987  0.1872  0.3370  0.0341
17008W        W59925  25.770   7.366  26.810 -0.1165  0.0646  0.0696
17009W        W59926  24.943   6.262  28.275 -0.1141 -0.0457  0.1882
17010W        W59927  28.265   6.420  27.987  0.0204 -0.0510 -0.1277
17011W        W59928  27.247   5.455  28.403 -0.2192 -0.0345  0.0709
17012W        W59929  27.262   4.971  24.924  0.1320  0.1338  0.4191
17013W        W59930  27.720   3.712  27.054  0.0367 -0.1080 -0.1822
17014W        W59931  29.742   4.660  28.142  0.0781  0.0488  0.0151
17015W        W59932  25.213   5.156  26.985  0.1024  0.0962 -0.0407
17016W        W59933  28.659   7.592  27.623  0.0908  0.5072 -0.2513
17017W        W59934  30.387   3.668  26.315  0.1963  0.1068  0.0501
17018W        W59935  30.637   6.071  24.803  0.4056  0.0269 -0.0555
17019W        W59936  27.384   5.520  25.876  0.2690 -0.0516 -0.0927
17020W        W59937  25.681   4.457  27.377 -0.0374 -0.0199  0.0943
17021W        W59938  25.106   6.050  25.155 -0.3381 -0.0433  0.0566
17022W        W59939  25.193   5.560  25.287 -0.5154 -0.0724 -0.0626
17023W        W59940  27.219   4.165  28.757 -0.1426  0.0441  0.3315
17024W        W59941  28.078   6.393  26.013  0.0604  0.0021  0.1196
17025W        W59942  26.158   6.954  26.018 -0.0278 -0.1493 -0.3977
17026W        W59943  23.072   5.982  27.124  0.0529  0.2099 -0.1923
17027W        W59944  27.241   3.061  25.413  0.3277 -0.0426 -0.1671
17028W        W59945  27.968   5.422  24.773  0.0027  0.4939 -0.0993
17029W        W59946  26.087   5.725  26.938 -0.2873  0.2290 -0.0135
17030W        W59947  30.397   4.455  27.280 -0.1919  0.2258 -0.1016
17031W        W59948  26.740   3.612  23.861 -0.0465  0.0048  0.1229
17032W        W59949  27.738   3.184  27.349 -0.3634  0.0913 -0.0509
17033W        W59950  27.073   5.154  26.051  0.1798  0.1165 -0.0458
17034W        W59951  27.491   6.368  26.537 -0.0725 -0.2300 -0.0303
17035W        W59952  24.883   5.233  27.367 -0.0767 -0.2401  0.1116
17036W        W59953  26.918   7.399  28.168 -0.1670 -0.0172 -0.1323
17037W        W59954  26.644   7.160  27.722 -0.1102 -0.4113 -0.1876
17038W        W59955  28.654   5.057  23.466 -0.0379  0.0834  0.4192
17039W        W59956  27.766   5.000  24.555 -0.0144  0.0619 -0.1626
17040W        W59957  26.730   4.332  26.181  0.3927  0.0497  0.0109
17041W        W59958  28.481   5.361  26.825 -0.3508  0.0288  0.0907
17042W        W59959  27.249   5.940  26.891 -0.1966  0.0732  0.1107
17043W        W59960  29.692   4.638  25.397 -0.1841 -0.0397  0.0301
17044W        W59961  26.563   4.114  27.447 -0.0558 -0.1016  0.1171
17045W        W59962  27.460   5.390  25.089  0.0604  0.0563 -0.1134
17046W        W59963  25.796   5.133  26.204 -0.1731  0.1774  0.0178
17047W        W59964  24.840   6.892  25.076  0.0389 -0.1910 -0.0351
17048W        W59965  27.310   4.963  26.873 -0.1799  0.0488  0.0402
17049W        W59966  28.599   7.129  26.733  0.1324 -0.2572 -0.1855
17050W        W59967  28.116   3.759  26.580  0.0216  0.1572 -0.2518
17051W        W59968  26.573   4.705  25.830  0.1336 -0.0011  0.0135
17052W        W59969  27.251   5.097  27.352 -0.0350 -0.0747 -0.1598
17053W        W59970  28.955   5.203  28.944  0.4232 -0.1206 -0.1480
17054W        W59971  25.965   4.905  28.039 -0.2285  0.0523  0.1743
17055W        W59972  27.124   6.003  27.545  0.0846  0.0782  0.2515
17056W        W59973  30.504   3.291  23.094 -0.0012 -0.3122 -0.3458
17057W        W59974  27.512   3.663  24.124 -0.1516  0.0385 -0.0511
17058W        W59975  29.779   5.140  27.465 -0.2226  0.1377 -0.0119
17059W        W59976  27.001   2.519  23.830  0.0258 -0.0606 -0.3360
17060W        W59977  25.128   3.832  27.525 -0.1781 -0.0287 -0.0429
17061W        W59978  26.461   3.440  27.061 -0.0811 -0.1335  0.0167
17062W        W59979  27.123   2.917  24.156 -0.0139 -0.0904  0.2379
17063W        W59980  26.782   3.566  27.554  0.0495 -0.1751 -0.0201
17064W        W59981  26.728   7.739  24.027  0.0583 -0.2324 -0.0318
17065W        W59982  26.312   5.035  25.484  0.2712  0.1022  0.6791
17066W        W59983  28.275   4.611  26.648 -0.1100 -0.0542 -0.1026
17067W        W59984  23.156   5.430  26.912 -0.1259  0.2466  0.2194
17068W        W59985  27.724   6.062  26.946 -0.0053  0.2893 -0.0335
17069W        W59986  27.576   2.014  23.384 -0.0776  0.0058 -0.1139
17070W        W59987  27.222   6.064  25.901  0.3886 -0.0240  0.0073
17071W        W59988  28.890   7.952  28.881 -0.0059  0.0805  0.0795
17072W        W59989  29.020   6.297  27.803  0.4212  0.1325 -0.2617
17073W        W59990  28.149   4.868  24.314 -0.0161 -0.0401  0.1814
17074W        W59991  30.369   3.554  27.627 -0.2045 -0.0998  0.0685
17075W        W59992  24.055   6.562  24.729  0.2783 -0.0245 -0.2829
17076W        W59993  28.934   2.617  25.741 -0.0577 -0.3026  0.0417
17077W        W59994  27.079   6.842  27.039 -0.1110 -0.0137  0.1974
17078W        W59995  27.831   8.041  27.173  0.2269 -0.1534 -0.3050
17079W        W59996  27.347   6.453  27.705 -0.3508 -0.1783 -0.1709
17080W        W59997  27.855   2.335  28.318 -0.0198  0.0469 -0.0167
17081W        W59998  27.791   5.055  25.145  0.2541 -0.2352  0.1515
17082W        W59999  26.347   5.786  25.958 -0.3114  0.2229 -0.0048
17083W        W60000  30.147   6.383  27.578  0.0112 -0.0466  0.0739
17084W        W60001  29.208   7.630  27.668  0.0116 -0.2151 -0.0573
17085W        W60002  26.830   5.627  24.444 -0.0695  0.1995 -0.1394
17086W        W60003  28.649   5.842  26.930 -0.0763  0.0477  0.3538
17087W        W60004  30.061   4.080  27.486  0.0602 -0.2788 -0.1028
17088W        W60005  25.078   5.980  26.070  0.1972 -0.3166 -0.0556
17089W        W60006  27.152   5.236  25.528  0.1206  0.0358 -0.2108
17090W        W60007  28.690   4.317  27.132 -0.2109 -0.1609 -0.0050
17091W        W60008  28.187   4.378  26.216 -0.1550  0.0695  0.0871
17092W        W60009  25.780   5.424  25.630  0.2085 -0.1707 -0.1542
17093W        W60010  24.103   5.717  23.443  0.0629 -0.3751 -0.0757
17094W        W60011  24.978   8.166  27.718 -0.1562 -0.1100 -0.0338
17095W        W60012  24.564   5.128  26.118  0.1781  0.2745  0.0507
17096W        W60013  24.363   6.288  24.407  0.4123 -0.1189 -0.0573
17097W        W60014  30.064   7.056  25.690  0.1256  0.3430  0.2410
17098W        W60015  27.058   5.685  23.960 -0.0391  0.2323 -0.2917
17099W        W60016  26.700   8.553  26.626  0.0403 -0.1542 -0.0355
17100W        W60017  29.454   6.126  23.930  0.1037  0.1215 -0.1804
17101W        W60018  26.244   6.196  26.952 -0.0710 -0.1354 -0.3389
17102W        W60019  25.903   6.322  25.305  0.1565  0.0908  0.0291
17103W        W60020  26.415   8.252  24.466  0.0229  0.1312  0.1245
17104W        W60021  26.821   8.271  27.102 -0.0690 -0.0867 -0.1782
17105W        W60022  29.543   6.212  28.868  0.4981 -0.0541 -0.1451
17106W        W60023  28.860   2.907  23.372 -0.1142  0.0288 -0.0550
17107W        W60024  28.794   6.570  26.864 -0.4153 -0.0127  0.1611
17108W        W60025  29.564   5.528  25.523  0.1037  0.0773 -0.0088
17109W        W60026  30.345   7.802  28.886 -0.2054 -0.0252 -0.0686
17110W        W60027  27.862   4.092  25.414 -0.0521 -0.2571 -0.2675
17111W        W60028  27.051   3.954  24.285 -0.0191 -0.2969  0.0421
17112W        W60029  25.165   6.571  27.969 -0.0855 -0.2428  0.1149
17113W        W60030  29.134   2.877  28.397  0.1032 -0.2214 -0.1682
17114W        W60031  27.795   7.522  27.252 -0.0863 -0.0347  0.1860
17115W        W60032  28.435   5.326  24.461 -0.3108  0.2480  0.1786
17116W        W60033  25.595   4.135  27.765  0.1513  0.0575  0.3517
17117W        W60034  25.462   3.969  27.144  0.1132 -0.0627 -0.1838
17118W        W60035  28.985   4.235  26.249  0.0069  0.3850  0.0502
17119W        W60036  28.821   7.220  24.237  0.1602  0.0477 -0.0906
17120W        W60037  29.397   4.179  26.031  0.1267 -0.1566 -0.1162
17121W        W60038  26.649   6.534  25.393  0.0470 -0.3757 -0.1944
17122W        W60039  26.810   6.756  27.411 -0.0116  0.0195 -0.1023
17123W        W60040  26.555   6.800  26.274 -0.1549  0.1862 -0.2088
17124W        W60041  26.737   5.231  24.708  0.3062 -0.1216 -0.0746
17125W        W60042  31.705   3.619  24.398  0.1036  0.2622 -0.0305
17126W        W60043  25.907   6.786  27.863  0.0163 -0.0106  0.3244
17127W        W60044  28.685   2.980  26.772 -0.0791 -0.1184 -0.1383
17128W        W60045  26.524   4.908  26.264  0.3222  0.1131  0.0372
17129W        W60046  29.161   5.742  24.863  0.1126  0.1657  0.0722
17130W        W60047  29.776   5.490  28.441  0.1967 -0.0829  0.2330
17131W        W60048  26.117   3.968  28.085 -0.1488 -0.2859 -0.2145
17132W        W60049  28.568   4.349  24.898  0.1596 -0.1089  0.0016
17133W        W60050  30.585   2.765  27.144  0.1365  0.0146  0.1133
17134W        W60051  26.863   2.343  24.921  0.1114 -0.2419 -0.0568
17135W        W60052  29.059   8.290  27.561  0.1333 -0.2055 -0.1615
17136W        W60053  27.492   3.984  26.012  0.0829 -0.0056  0.0063
17137W        W60054  28.063   6.073  24.797  0.0213  0.0746 -0.1204
17138W        W60055  24.788   4.656  26.224  0.1046  0.2404 -0.2825
17139W        W60056  25.767   5.394  27.227  0.1897 -0.0535 -0.1247
17140W        W60057  28.997   6.802  28.688 -0.0690  0.2767 -0.2587
17141W        W60058  26.968   3.477  25.187  0.3273 -0.1330 -0.2479
17142W        W60059  27.979   2.742  25.477 -0.2031 -0.1583  0.1680
17143W        W60060  27.812   4.752  26.574 -0.2202  0.0258  0.0588
17144W        W60061  31.258   6.747  24.144 -0.1448  0.0487  0.3079
17145W        W60062  29.042   4.621  26.815  0.0280 -0.1289  0.2943
17146W        W60063  28.507   6.897  27.262  0.0809 -0.0670  0.2044
17147W        W60064  26.035   4.477  27.831 -0.1741  0.2299  0.1729
17148W        W60065  29.407   4.763  27.136  0.0350 -0.0263  0.1729
17149W        W60066  29.182   4.238  27.721 -0.1439  0.0806  0.0405
17150W        W60067  28.007   4.529  25.657  0.0810  0.0597 -0.2125
17151W        W60068  27.651   5.682  26.610 -0.5042  0.0646  0.1133
17152W        W60069  26.180   4.856  26.622 -0.1861 -0.1237  0.0955
17153W        W60070  29.896   4.595  27.489 -0.2918  0.2585  0.1402
17154W        W60071  29.440   4.281  26.499 -0.0663 -0.1674  0.0691
17155W        W60072  26.271   7.023  24.592 -0.0483 -0.0945  0.0365
17156W        W60073  28.598   3.270  27.733  0.1081  0.0557 -0.4162
17157W        W60074  28.733   5.145  27.288 -0.1695 -0.1406 -0.1898
17158W        W60075  28.040   8.311  27.566 -0.2792  0.2056  0.2727
17159W        W60076  25.662   4.747  26.540 -0.1458  0.2597 -0.2973
17160W        W60077  26.886   4.990  27.735  0.3300  0.1931  0.3432
17161W        W60078  26.504   7.345  26.190 -0.0417  0.1988 -0.2235
17162W        W60079  28.199   8.685  27.197 -0.4542 -0.0898 -0.0715
17163W        W60080  28.607   6.655  27.722 -0.1295 -0.1221 -0.3283
17164W        W60081  26.980   4.751  26.372 -0.0730 -0.1966 -0.0007
17165W        W60082  29.579   5.675  27.501 -0.1354  0.2341 -0.3364
17166W        W60083  28.917   4.044  25.790 -0.1351  0.0318 -0.1390
17167W        W60084  30.436   2.709  23.128 -0.4789  0.0417  0.4197
17168W        W60085  28.786   1.618  26.262 -0.1384  0.0654  0.1612
17169W        W60086  25.674   5.350  27.783  0.1375  0.3483 -0.2102
17170W        W60087  22.415   5.394  27.372  0.2604 -0.0604  0.0075
17171W        W60088  26.557   5.670  24.021  0.0476  0.1458  0.1223
17172W        W60089  26.105   7.099  26.546  0.3821  0.1793  0.1234
17173W        W60090  27.232   3.960  29.316 -0.1939 -0.2828  0.0203
17174W        W60091  25.795   4.890  28.487  0.2827 -0.0858  0.0165
17175W        W60092  27.645   5.069  25.795  0.0798  0.0216 -0.1339
17176W        W60093  25.212   4.560  25.667  0.0415  0.0685 -0.1564
17177W        W60094  26.896   6.907  25.223 -0.0358  0.1855 -0.0092
17178W        W60095  25.499   4.699  27.778  0.1033 -0.0597  0.3044
17179W        W60096  26.147   4.995  27.107  0.3321  0.1934  0.1898
17180W        W60097  29.516   6.635  26.409  0.0562 -0.0050 -0.0088
17181W        W60098  28.907   7.203  23.706 -0.2337  0.1189  0.1160
17182W        W60099  29.464   3.783  27.530  0.1987  0.0208  0.0767
17183W        W60100  28.444   5.558  27.304  0.0666  0.0990 -0.2773
17184W        W60101  25.029   6.602  24.255  0.0263  0.1520 -0.0334
17185W        W60102  26.096   7.127  28.789 -0.3853 -0.3905 -0.1398
17186W        W60103  27.355   4.942  27.804 -0.0486 -0.0928 -0.2201
17187W        W60104  24.757   6.379  24.904  0.1619  0.2869  0.1582
17188W        W60105  28.431   6.445  25.675  0.1751 -0.0712  0.2163
17189W        W60106  27.676   7.778  26.245 -0.2335  0.0620 -0.3243
17190W        W60107  30.064   6.761  23.869 -0.0226 -0.0382  0.0454
17191W        W60108  30.001   7.905  27.755 -0.2033  0.1221  0.2540
17192W        W60109  27.029   8.113  27.581 -0.0101  0.5054  0.0073
17193W        W60110  24.975   4.163  27.084  0.0727 -0.0653  0.1537
17194W        W60111  29.431   5.067  25.381  0.0944 -0.1795  0.1735
17195W        W60112  25.518   5.788  26.999  0.1573 -0.0594 -0.4174
17196W        W60113  30.104   5.630  25.541  0.1299 -0.2968  0.2967
17197W        W60114  29.346   2.791  25.481  0.1598 -0.0547  0.5295
17198W        W60115  28.997   5.588  27.201  0.0168  0.1173 -0.1694
17199W        W60116  23.904   4.458  27.899 -0.0236 -0.1256  0.1672
17200W        W60117  26.204   5.439  27.440 -0.1130  0.0035  0.2778
17201W        W60118  30.298   6.059  25.658 -0.0815 -0.3781  0.1620
17202W        W60119  28.315   2.971  26.351  0.1502 -0.3641  0.0854
17203W        W60120  28.186   5.098  23.258  0.5977  0.3810 -0.0929
17204W        W60121  28.344   6.554  24.835 -0.2329 -0.1082 -0.1751
17205W        W60122  25.999   4.439  26.930 -0.0028 -0.1149  0.0198
17206W        W60123  27.848   4.538  23.931  0.2333 -0.2004 -0.2878
17207W        W60124  28.143   5.638  26.660 -0.0943 -0.1421 -0.1205
17208W        W60125  29.072   6.665  27.351 -0.2425 -0.2219  0.1873
17209W        W60126  27.546   4.202  27.167 -0.4877 -0.1173 -0.0114
17210W        W60127  27.027   3.880  25.958 -0.1546 -0.0047  0.2392
17211W        W60128  28.802   5.946  26.453  0.0569 -0.0834  0.2390
17212W        W60129  28.205   5.129  27.349 -0.0599 -0.1129 -0.3494
17213W        W60130  29.509  10.789  25.111  0.1804  0.0402  0.2685
17214W        W60131  31.276   6.523  26.815 -0.0409 -0.0809  0.3755
17215W        W60132  30.311   5.618  28.890 -0.1097 -0.1684  0.2422
17216W        W60133  26.611   3.615  26.097 -0.1370 -0.1098  0.0495
17217W        W60134  25.655   4.906  27.099  0.1682  0.2255 -0.0936
17218W        W60135  26.620   4.738  23.759  0.1280 -0.0399  0.1679
17219W        W60136  28.112   5.540  26.159  0.0163  0.0321  0.3090
17220W        W60137  26.027   3.521  26.205  0.1771 -0.0423 -0.1654
17221W        W60138  27.495   4.354  25.570  0.1738  0.2131 -0.2382
17222W        W60139  24.980   7.093  27.625 -0.0013  0.0725 -0.2176
17223W        W60140  28.763   4.880  28.484 -0.0798 -0.1129  0.1300
17224W        W60141  27.431   6.454  30.527 -0.2828 -0.2597 -0.2303
17225W        W60142  26.619   5.893  27.217  0.0071  0.1887 -0.3470
17226W        W60143  28.930   3.738  26.321 -0.0384 -0.1479  0.1761
17227W        W60144  28.010   6.793  27.729  0.1854  0.2538 -0.1767
17228W        W60145  27.027   2.217  28.212 -0.0911 -0.1763 -0.3191
17229W        W60146  29.665   9.345  28.875 -0.0881  0.0167 -0.0725
17230W        W60147  26.766   1.522   0.134  0.2030  0.1017 -0.1132
17231W        W60148  27.791   6.037  29.642 -0.0709  0.3752  0.2657
17232W        W60149  30.456   7.427  29.866  0.0132 -0.1103 -0.0418
17233W        W60150  27.904   7.716  28.324 -0.1104 -0.3737 -0.2213
17234W        W60151  28.213   4.750  28.514 -0.1371 -0.0154 -0.0762
17235W        W60152  25.943   5.114  30.307 -0.2470 -0.2211  0.1571
17236W        W60153  27.801   3.319  28.997 -0.3734 -0.0724  0.2367
17237W        W60154  24.540   5.394  29.464  0.0681 -0.1701  0.1949
17238W        W60155  29.429   3.808  30.483 -0.0828 -0.1344 -0.2233
17239W        W60156  26.750   5.321  28.139 -0.0784  0.1260 -0.1389
17240W        W60157  27.878   5.739  31.061  0.0698  0.3288  0.1773
17241W        W60158  26.747   4.652  29.613 -0.3367  0.0361  0.0487
17242W        W60159  26.378   6.592  30.626  0.1352  0.0104 -0.2110
17243W        W60160  27.072   5.551  29.014 -0.0743 -0.3427 -0.1199
17244W        W60161  26.576   2.391  29.902  0.0644  0.1434 -0.3618
17245W        W60162  26.754   5.598  28.586  0.1682  0.1078  0.1970
17246W        W60163  25.656   3.383  27.164 -0.2129  0.1332 -0.0236
17247W        W60164  26.260   3.523  30.041  0.2178  0.0530 -0.1277
17248W        W60165  26.596   4.393  30.378 -0.1459  0.0890  0.2866
17249W        W60166  28.235   6.061  29.942  0.2471  0.1803 -0.1459
17250W        W60167  30.377   7.493  30.965 -0.1868 -0.2085 -0.1548
17251W        W60168  26.775   6.305  28.472 -0.0717  0.2198  0.2770
17252W        W60169  27.196   7.258  28.590  0.0363  0.1223  0.2762
17253W        W60170  30.036   5.802  29.903 -0.1549  0.1300  0.2133
17254W        W60171  24.874   7.942  29.221 -0.1805  0.0259  0.1723
17255W        W60172  24.400   6.576  29.381  0.0922 -0.0727 -0.0320
17256W        W60173  27.154   7.101  29.896 -0.4298 -0.0355  0.1881
17257W        W60174  29.194   4.006  30.900 -0.1763 -0.0724  0.1886
17258W        W60175  27.844   9.402  29.645  0.1463 -0.2281  0.1468
17259W        W60176  26.647   7.641  30.415 -0.0113  0.0163 -0.1208
17260W        W60177  25.570   8.093  29.833 -0.0335 -0.2320 -0.1395
17261W        W60178  27.599   6.834  29.893 -0.0404 -0.3422 -0.1626
17262W        W60179  25.503   6.333  29.172 -0.0113  0.0473  0.2293
17263W        W60180  26.311   6.834  29.306  0.0149  0.3326 -0.0380
17264W        W60181  27.477   2.164  29.552 -0.0438 -0.0214  0.1777
17265W        W60182  25.018   6.107  26.826  0.1013  0.1051  0.1935
17266W        W60183  27.618   6.772  28.433 -0.3437 -0.0715  0.0980
17267W        W60184  26.430   8.241  30.133  0.2716 -0.1634 -0.2358
17268W        W60185  25.420   7.314  30.280  0.1423 -0.2285  0.3544
17269W        W60186  27.903   4.713  31.939  0.1611  0.0133  0.0982
17270W        W60187  26.623   6.300  27.566 -0.0570 -0.2459  0.0158
17271W        W60188  27.842   3.142  26.233 -0.0456  0.0383  0.0101
17272W        W60189  27.850   3.891  28.051  0.1711 -0.1952  0.1014
17273W        W60190  28.094   3.114  27.777 -0.0494  0.0417  0.2239
17274W        W60191  26.148   1.632  30.441 -0.4357  0.1575 -0.3922
17275W        W60192  25.299   8.033  30.603 -0.0412 -0.2227 -0.2066
17276W        W60193  27.557   4.285  30.146  0.1861 -0.1016 -0.1155
17277W        W60194  29.520   7.819  30.400  0.3149 -0.0458 -0.0967
17278W        W60195  27.231   6.160  29.776  0.1735  0.0388  0.0929
17279W        W60196  28.839   7.163  30.281 -0.3334  0.0310  0.1038
17280W        W60197  27.608   5.558  28.735  0.0787  0.0631  0.3669
17281W        W60198  26.540   4.716  28.706 -0.0425 -0.2886 -0.0541
17282W        W60199  28.189   8.393  28.500  0.0385  0.0701 -0.0503
17283W        W60200  27.757   6.513  29.580  0.2560  0.2962  0.1242
17284W        W60201  27.713   7.261  28.487 -0.2320  0.1295 -0.2107
17285W        W60202  25.733   4.107  30.004  0.4785 -0.0669  0.0053
17286W        W60203  23.883   7.414  31.001 -0.1267  0.2822 -0.0957
17287W        W60204  26.135   5.554  30.999 -0.2548 -0.0064 -0.1581
17288W        W60205  25.369   4.348  28.635 -0.0606  0.2929 -0.0249
17289W        W60206  30.205   7.777  31.496  0.0506 -0.3456  0.2092
17290W        W60207  24.849   8.058  31.090 -0.3177 -0.0514 -0.0779
17291W        W60208  29.394   4.800  29.086  0.0832  0.0567 -0.2094
17292W        W60209  24.597   6.368  29.755 -0.0349 -0.1153  0.0172
17293W        W60210  29.435   8.022  30.889 -0.3223 -0.0914  0.0751
17294W        W60211  28.954   6.832  29.636 -0.2177 -0.0755  0.0585
17295W        W60212  28.315   3.798  29.261 -0.3474  0.3623  0.0615
17296W        W60213  27.033   4.278  26.977 -0.0899  0.1334 -0.3197
17297W        W60214  25.874   7.993  28.147  0.2751 -0.0196 -0.1526
17298W        W60215  26.382   3.740  27.762 -0.2957 -0.0022 -0.1422
17299W        W60216  28.821   6.192  31.279  0.1352 -0.0338 -0.0746
17300W        W60217  28.183   6.138  29.011  0.0606 -0.1798  0.1733
17301W        W60218  26.186   7.944  30.541 -0.0530  0.2007 -0.2712
17302W        W60219  27.281   4.504  31.369 -0.0516  0.2043  0.0126
17303W        W60220  26.124   5.530  30.470 -0.1786 -0.0665 -0.4990
17304W        W60221  27.988   5.608  27.126  0.0317  0.0241  0.2050
17305W        W60222  22.878   5.875  28.281 -0.3606 -0.3283 -0.2336
17306W        W60223  25.350   7.595  28.912 -0.0397  0.2813  0.2128
17307W        W60224  24.092   3.839  28.137  0.1697  0.1074  0.1649
17308W        W60225  26.690   7.078  29.649 -0.0226  0.3239 -0.0419
17309W        W60226  27.662   3.526  26.551  0.0802 -0.3580  0.1358
17310W        W60227  26.775   2.240  31.469 -0.1771 -0.3665  0.1677
17311W        W60228  28.163   2.855  29.663 -0.0354  0.1190  0.0569
17312W        W60229  24.603   5.971  28.480  0.2795  0.0090 -0.0139
17313W        W60230  29.645   8.662  27.078 -0.2695  0.1961 -0.0000
17314W        W60231  27.410   5.999  27.916 -0.0146 -0.3321 -0.2110
17315W        W60232  27.665   6.056  28.762 -0.0061 -0.0639 -0.1937
17316W        W60233  25.426   5.557  29.892  0.6009  0.2520 -0.3600
17317W        W60234  27.447   3.298  28.614  0.0365  0.3941  0.3536
17318W        W60235  26.512   4.444  30.884 -0.1116 -0.2410 -0.2017
17319W        W60236  27.184   4.322  29.833  0.0494 -0.0565 -0.0956
17320W        W60237  28.886   3.954  30.395 -0.3164  0.0978  0.1468
17321W        W60238  26.948   3.775  28.505  0.1112  0.0220  0.1627
17322W        W60239  26.735   4.306  28.822 -0.1888 -0.1607  0.0930
17323W        W60240  26.304   6.093  28.691 -0.1848 -0.2706 -0.0202
17324W        W60241  26.819   3.937  27.886  0.1218 -0.1401 -0.1830
17325W        W60242  28.526   3.338  31.107  0.2455 -0.1647 -0.0932
17326W        W60243  27.426   7.884  27.798  0.1955  0.0639  0.0496
17327W        W60244  29.159   5.796   0.151  0.0688 -0.2364 -0.1297
17328W        W60245  29.210   6.499  29.116 -0.0855  0.1469  0.0120
17329W        W60246  26.356   5.882  31.285  0.3535 -0.1248  0.1104
17330W        W60247  26.361   4.908  27.719 -0.0947  0.1232  0.1316
17331W        W60248  25.821   8.572  29.834  0.1016 -0.2500 -0.0629
17332W        W60249  28.525   8.415  30.692  0.0287  0.1880  0.0541
17333W        W60250  25.971   3.921  27.022  0.0342  0.0969  0.2254
17334W        W60251  28.896   8.043  30.537  0.0127 -0.0691 -0.1590
17335W        W60252  26.584   5.587  29.196  0.0729 -0.1331 -0.0094
17336W        W60253  27.260   6.709  29.511  0.1295 -0.1127  0.3359
17337W        W60254  28.030   4.069  30.782  0.1692  0.2232 -0.0515
17338W        W60255  28.191   4.530  27.772  0.2131 -0.0710  0.2488
17339W        W60256  29.274   4.678  28.654  0.2845 -0.0388  0.2163
17340W        W60257  26.441   5.164  28.989  0.1297 -0.2005  0.0188
17341W        W60258  26.996   9.442  29.635 -0.0871  0.0499 -0.0006
17342W        W60259  24.006   6.637  28.178  0.1885 -0.0310 -0.3835
17343W        W60260  25.667   7.598  29.829  0.1176 -0.1865 -0.2707
17344W        W60261  27.976   7.570  28.854 -0.1508  0.2088 -0.0948
17345W        W60262  29.594   3.928  29.013  0.1709  0.0940  0.0630
17346W        W60263  25.795   5.299  28.948 -0.2033  0.2303  0.1221
17347W        W60264  29.250   5.991  29.383  0.0647 -0.0904 -0.2315
17348W        W60265  24.338   7.184  29.560 -0.0337  0.0709 -0.1944
17349W        W60266  25.192   5.207  30.153 -0.0446 -0.2017  0.0161
17350W        W60267  28.649   3.953  28.871 -0.0061  0.2923 -0.0775
17351W        W60268  27.483   4.396  26.690  0.0365 -0.0834 -0.2360
17352W        W60269  27.731   6.082   0.487  0.0072 -0.0967  0.2617
17353W        W60270  29.293   7.786  31.946  0.1900 -0.1233  0.1585
17354W        W60271  27.812   6.142  27.489  0.2034 -0.1322 -0.2333
17355W        W60272  27.501   4.709  29.122  0.2105  0.2328 -0.1131
17356W        W60273  25.210   6.160  31.928 -0.2478 -0.1217 -0.1145
17357W        W60274  28.624   6.262  28.301  0.2964  0.1790 -0.1689
17358W        W60275  29.952   5.925  28.714  0.4273 -0.1273 -0.3200
17359W        W60276  28.116   5.247  28.145 -0.1156  0.0371 -0.5018
17360W        W60277  28.999   7.497  28.854 -0.3119 -0.3706  0.2355
17361W        W60278  25.476   6.786  28.369 -0.5223  0.2492  0.1779
17362W        W60279  26.441   5.311  30.198  0.3639  0.1858  0.1311
17363W        W60280  27.817   7.448  29.375 -0.0900 -0.4839 -0.0930
17364W        W60281  27.305   3.461  29.281  0.0689 -0.5156 -0.3223
17365W        W60282  27.978   3.900  26.007  0.0405 -0.0097 -0.3466
17366W        W60283  29.089   5.053  27.724 -0.0830  0.1188  0.0079
17367W        W60284  25.365   8.086  29.031  0.3287 -0.0846  0.0477
17368W        W60285  28.013   5.400  30.615 -0.0263 -0.1407  0.1226
17369W        W60286  28.897   3.004  31.303 -0.0415 -0.2895  0.1517
17370W        W60287  28.126   3.828  29.721 -0.2280 -0.0488  0.1425
17371W        W60288  28.289   6.441  31.533 -0.1198  0.1222  0.2796
17372W        W60289  28.433   5.301  28.564 -0.1351 -0.1169  0.0679
17373W        W60290  27.152   6.361  28.860  0.0285  0.2381  0.1189
17374W        W60291  26.903   4.987  29.232 -0.2284  0.2887 -0.1247
17375W        W60292  28.049   4.310  29.850  0.0259 -0.2546 -0.2591
17376W        W60293  27.218   4.764  29.548 -0.0422  0.0483  0.0731
17377W        W60294  24.702   6.837  31.643  0.2931 -0.0416  0.3440
17378W        W60295  28.248   8.649  30.185 -0.2223 -0.3525 -0.0435
17379W        W60296  28.315   5.955  27.673 -0.1754  0.0316  0.4297
17380W        W60297  27.523   6.210  29.243  0.0389 -0.3687  0.1224
17381W        W60298  27.253   5.040  30.250 -0.3701  0.2372  0.0114
17382W        W60299  28.765   7.598  26.299 -0.2794 -0.0627 -0.0191
17383W        W60300  28.035   5.676  28.444  0.0374  0.0645  0.0993
17384W        W60301  25.072   4.239  31.332  0.1022 -0.1978 -0.0850
17385W        W60302  26.603   8.745  30.116 -0.1938  0.0882 -0.0262
17386W        W60303  27.340   6.428  27.062  0.3963  0.1299 -0.1501
17387W        W60304  30.351   6.889  29.757  0.1343  0.2243  0.2589
17388W        W60305  27.467   6.783  28.918  0.2474 -0.1205  0.0245
17389W        W60306  28.696   6.193  28.954  0.1727 -0.0053 -0.1837
17390W        W60307  24.277   8.919  27.479 -0.0860  0.1936  0.0317
17391W        W60308  27.358   5.334  29.697 -0.0296 -0.0745  0.0521
17392W        W60309  26.195   7.363  29.202 -0.0221 -0.1318  0.2021
17393W        W60310  27.684   4.971  29.562 -0.1055 -0.2135 -0.3664
17394W        W60311  30.244   4.101  29.402 -0.3289  0.0017  0.2987
17395W        W60312  25.301   2.736  30.569 -0.2463 -0.0027 -0.1218
17396W        W60313  29.025   5.739  29.022 -0.2703 -0.2999 -0.0456
17397W        W60314  24.462   8.077  30.057  0.4370 -0.1609 -0.0297
17398W        W60315  27.933   7.510  30.091 -0.1720 -0.3029  0.3833
17399W        W60316  27.178   4.148  28.246  0.3047  0.0919 -0.1066
17400W        W60317  28.733   7.830  29.750 -0.0923 -0.1325 -0.0852
17401W        W60318  27.924   6.296  31.108  0.0688  0.1212 -0.1714
17402W        W60319  23.959   6.370  29.227  0.1651 -0.1115  0.1977
17403W        W60320  29.747   4.539  30.282  0.1472  0.0705 -0.1215
17404W        W60321  27.146   3.757  29.755 -0.3817  0.0309 -0.1878
17405W        W60322  25.741   6.334  28.693 -0.0493 -0.1156 -0.2008
17406W        W60323  28.244   7.937  28.678 -0.1210  0.1303  0.1397
17407W        W60324  26.055   6.531  29.011 -0.0351  0.4071 -0.0198
17408W        W60325  28.337   8.359  26.849 -0.0055 -0.1187  0.2883
17409W        W60326  28.011   4.033  30.280 -0.3284 -0.0868 -0.2084
17410W        W60327  29.668   6.792  30.904 -0.1998 -0.0453  0.0446
17411W        W60328  27.774   4.578  30.558 -0.1610 -0.1713 -0.0681
17412W        W60329  27.668   3.976  29.738 -0.0757  0.2714 -0.0047
17413W        W60330  27.209   5.929  28.675  0.1603 -0.1389  0.2149
17414W        W60331  27.763   6.926  29.359  0.0205 -0.0189  0.0202
17415W        W60332  29.974   6.656  30.512 -0.0910  0.0068  0.0718
17416W        W60333  27.223   6.070  30.333  0.3970 -0.1653 -0.3155
17417W        W60334  26.581   4.091  29.397 -0.0407  0.1868  0.2024
17418W        W60335  29.376   9.186  30.776  0.0232 -0.2654  0.1456
17419W        W60336  29.098   6.156  30.287  0.2614  0.2055  0.2206
17420W        W60337  27.643   4.938  28.303  0.2252 -0.2328  0.1345
17421W        W60338  26.738   3.418  30.634 -0.0359 -0.1041  0.0370
17422W        W60339  25.995   6.921  30.432  0.0109  0.4784 -0.2099
17423W        W60340  25.679   5.936  29.561  0.0548 -0.2154  0.3811
17424W        W60341  25.477   7.067  31.122 -0.2928  0.3393 -0.0805
17425W        W60342  26.761   5.985  28.924  0.1607 -0.0520  0.1048
17426W        W60343  25.561   6.851  30.119  0.3728  0.1894  0.0333
17427W        W60344  30.662   3.769  30.221  0.2405 -0.0663  0.2519
17428W        W60345  26.950   5.536  27.507  0.1857 -0.1292 -0.2369
17429W        W60346  26.084   3.565  28.674 -0.1777 -0.0448  0.1331
17430W        W60347  31.314   4.984  31.809  0.1569 -0.3629  0.0838
17431W        W60348  26.089   6.316  27.738  0.3716 -0.2587  0.1635
17432W        W60349  31.141   3.949  30.158  0.0724  0.1588 -0.2697
17433W        W60350  24.362   5.547  30.392  0.2754  0.1858 -0.2248
17434W        W60351  29.326   6.747  31.280  0.1427  0.3875 -0.0216
17435W        W60352  27.948   4.995  29.047  0.0056  0.1389 -0.2174
17436W        W60353  29.115   8.638  29.045  0.0063  0.2345 -0.0344
17437W        W60354  25.839   5.028  30.882 -0.1025  0.0772  0.2965
17438W        W60355  28.085   6.047  30.737  0.0699 -0.0241 -0.0294
17439W        W60356  26.433   3.262  28.889  0.0729 -0.2147 -0.1570
17440W        W60357  28.425   7.244  30.059  0.1639 -0.0228 -0.2893
17441W        W60358  29.826   6.317  30.816 -0.2592 -0.1489 -0.0176
17442W        W60359  26.334   3.899  29.017  0.3179  0.1039  0.2331
17443W        W60360  28.573   4.814  27.814  0.0024 -0.2961  0.2192
17444W        W60361  24.129   7.616  30.409 -0.5308  0.0412 -0.1256
17445W        W60362  29.189   6.327  29.821  0.1061  0.0372  0.2145
17446W        W60363  25.293   6.961  29.364 -0.2197 -0.1170 -0.0995
17447W        W60364  28.268   4.022  28.419  0.0968  0.1056  0.0959
17448W        W60365  26.869   2.214  30.297  0.1278 -0.1112 -0.1026
17449W        W60366  28.372   6.776  30.286 -0.0192 -0.0881 -0.4180
17450W        W60367  27.962   5.205  28.597  0.0536 -0.2063 -0.3285
17451W        W60368  26.822   6.232  30.025  0.2621 -0.3559 -0.0383
17452W        W60369  27.054   5.675  29.923 -0.2322 -0.0619 -0.0528
17453W        W60370  27.651   6.320  30.081  0.1516 -0.2011  0.0686
17454W        W60371  27.050   1.742  29.324  0.0086 -0.0501 -0.2245
17455W        W60372  29.661   7.052  30.437  0.0443 -0.1490  0.2155
17456W        W60373  27.389   3.028  27.005 -0.1891  0.3397 -0.0517
17457W        W60374  29.753   4.059  30.166 -0.1107  0.1686 -0.1924
17458W        W60375  29.210   4.265  28.939 -0.0396  0.0553 -0.1637
17459W        W60376  28.796   5.361  29.385  0.0359 -0.2296  0.0138
17460W        W60377  27.150   6.438  30.963 -0.1192  0.3472  0.0455
17461W        W60378  28.906   6.595  30.416  0.0129  0.4481 -0.3538
17462W        W60379  27.395   3.021  29.052 -0.3357 -0.0841  0.1534
17463W        W60380  28.908   2.917   1.105  0.1901 -0.1823  0.1312
17464W        W60381  27.280   7.257  29.395 -0.3048 -0.1122 -0.3097
17465W        W60382  27.944   4.724  30.106 -0.0957  0.1465  0.0568
17466W        W60383  27.385   4.459  27.913 -0.0366  0.1381  0.0407
17467W        W60384  24.489   4.712  28.531  0.2248 -0.0639  0.0920
17468W        W60385  26.050   9.427  30.729 -0.2907  0.2114  0.3621
17469W        W60386  24.794   4.460  26.748 -0.0380 -0.0014  0.1871
17470W        W60387  26.849   6.537  28.012 -0.1196  0.0712  0.1256
17471W        W60388  28.214   8.025  28.058  0.0696  0.1442  0.2561
17472W        W60389  30.191   3.637  31.112  0.0430 -0.0838 -0.2559
17473W        W60390  27.074   4.683  28.820  0.0131  0.3674 -0.3041
17474W        W60391  29.418   6.182  31.228 -0.0810  0.3266  0.1247
17475W        W60392  26.599   6.547  28.988 -0.1162 -0.1314  0.1509
17476W        W60393  28.876   4.640  29.005 -0.1161 -0.0487  0.0735
17477W        W60394  26.406   7.147  30.221  0.2646 -0.2192 -0.1958
17478W        W60395  26.549   5.823  30.129  0.5206 -0.0844  0.0580
17479W        W60396  27.470   5.046  28.729  0.1233 -0.0467 -0.1583
17480W        W60397  26.406   6.182  29.245  0.1713  0.0966 -0.2955
17481W        W60398  29.185   5.569  27.807 -0.1074  0.2904 -0.0171
17482W        W60399  27.036   7.459  29.053  0.0922  0.1717  0.3490
17483W        W60400  28.506   5.589  29.802 -0.1918  0.2300 -0.2105
17484W        W60401  30.064   7.969  28.257  0.1014  0.1468  0.1534
17485W        W60402  26.037   4.583  30.742  0.1485 -0.2120 -0.1287
17486W        W60403  27.362   7.621  30.881 -0.0217 -0.2924  0.0922
17487W        W60404  28.053   5.551  28.950 -0.0706 -0.0092  0.1928
17488W        W60405  26.216   6.875  29.854  0.0464 -0.0737  0.1462
17489W        W60406  24.596   5.237  28.685  0.0048 -0.0676 -0.0258
17490W        W60407  26.336   6.226  30.215  0.1667 -0.3397  0.4620
17491W        W60408  27.176   6.911  28.236  0.2543  0.0908  0.1473
17492W        W60409  29.013   2.533  30.057 -0.0353  0.0642  0.0805
17493W        W60410  27.432   4.835  26.208 -0.1185 -0.0411  0.0209
17494W        W60411  25.854   6.604  30.852 -0.0549  0.0715  0.1214
17495W        W60412  25.512   5.278  29.345 -0.1770  0.0587  0.0614
17496W        W60413  26.172   9.229  28.457  0.1972  0.1337 -0.0368
17497W        W60414  28.021   6.968  28.784  0.0679 -0.1879  0.1545
17498W        W60415  25.895   7.656  28.870 -0.1903 -0.1744 -0.2612
17499W        W60416  28.112   6.671  29.861  0.1146 -0.0461  0.0531
17500W        W60417  26.391   5.692  28.257  0.0530  0.2527  0.2758
17501W        W60418  26.339   6.064  29.752  0.0033 -0.2020  0.2921
17502W        W60419  24.558   7.658  28.953 -0.2021 -0.2952 -0.1219
17503W        W60420  27.538   5.689  27.517  0.0442  0.1442  0.2460
17504W        W60421  27.572   6.857  27.906 -0.2110  0.3418 -0.1047
17505W        W60422  28.628   6.895  30.679 -0.1318 -0.0247  0.2628
17506W        W60423  28.488   3.963  26.214 -0.3034  0.0699  0.0196
17507W        W60424  29.752   5.089  29.367  0.1605  0.2418 -0.1870
17508W        W60425  29.951   4.896  28.969  0.2383  0.0851 -0.0194
17509W        W60426  25.362   6.334  30.152  0.1429 -0.0944 -0.0183
17510W        W60427  28.109   6.267  28.489 -0.1291  0.1648 -0.0140
17511W        W60428  27.258   4.607  27.381 -0.1563 -0.0123 -0.1688
17512W        W60429  27.098   5.806  30.739  0.3238 -0.1349 -0.0548
17513W        W60430  28.836   2.373  31.263  0.0681  0.1364 -0.0195
17514W        W60431  23.970   8.523  30.740 -0.0380 -0.0943  0.3150
17515W        W60432  29.237   6.927  30.573 -0.0167 -0.1261  0.2594
17516W        W60433  26.896   4.436  27.817  0.0896  0.0387 -0.0649
17517W        W60434  28.720   6.609  29.967  0.4132  0.1215 -0.2741
17518W        W60435  29.658   3.689  31.033  0.0603 -0.0238 -0.0740
17519W        W60436  26.980   6.192  26.580 -0.2549  0.2358 -0.0300
17520W        W60437  27.494   4.713  29.956  0.0382 -0.1828 -0.0204
17521W        W60438  26.458   9.257  29.878 -0.0687 -0.0384  0.1531
17522W        W60439  28.043   7.152  29.739 -0.2291 -0.0002 -0.0121
17523W        W60440  26.423   9.731  29.421  0.0692 -0.1964 -0.0287
17524W        W60441  25.990   3.437  29.206 -0.0239  0.0705  0.0735
17525W        W60442  30.968   5.722  30.590 -0.1149  0.0560  0.1334
17526W        W60443  26.910   5.513  30.343  0.0258  0.1231  0.1279
17527W        W60444  26.830   3.371  29.753 -0.0589  0.0301  0.2620
17528W        W60445  27.146   4.556  30.347  0.1629 -0.0261 -0.0776
17529W        W60446  26.645   5.156  27.224  0.1474 -0.5600  0.2608
17530W        W60447  26.992   6.768  30.627 -0.0352  0.2631 -0.0120
17531W        W60448  25.797   3.623  30.756 -0.1836  0.1677  0.1309
17532W        W60449  26.687   4.498  26.668 -0.4371  0.0229  0.2646
17533W        W60450  28.525   5.655  30.989  0.0211 -0.1671  0.0241
17534W        W60451  26.945   5.933  28.153  0.1850 -0.1507  0.1225
17535W        W60452  28.477   8.485  31.189 -0.4454 -0.0879 -0.1615
17536W        W60453  26.138   4.523  28.306  0.2177 -0.1762  0.1574
17537W        W60454  26.445   4.145  26.932 -0.1254  0.1442  0.2803
17538W        W60455  25.005   6.299  30.553 -0.2802  0.0802 -0.0488
17539W        W60456  24.862   5.760  30.429  0.0578  0.4234 -0.2223
17540W        W60457  28.820   8.336  31.646 -0.0539 -0.2692  0.1090
17541W        W60458  25.107   3.828  28.542 -0.2265  0.0240  0.0598
17542W        W60459  28.349   7.529  29.622  0.2436 -0.0658  0.2156
17543W        W60460  28.190   5.131  29.830 -0.1259  0.0932 -0.0674
17544W        W60461  27.723   7.295  26.426  0.3493  0.4200 -0.1306
17545W        W60462  26.525   5.097  29.545  0.0753 -0.7168 -0.0656
17546W        W60463  27.925   9.586  27.569  0.1144 -0.1636  0.1440
17547W        W60464  26.905   5.185  29.939 -0.1493  0.3278 -0.0521
17548W        W60465  25.543   8.929  29.525 -0.2126 -0.0220  0.0442
17549W        W60466  29.459   6.499  30.434 -0.0203  0.0514  0.1898
17550W        W60467  28.626   3.163  29.548  0.3313 -0.3352  0.2466
17551W        W60468  25.059   2.187  29.377  0.0357 -0.0159  0.2181
17552W        W60469  25.715   7.248  29.155  0.0598 -0.0479 -0.0781
17553W        W60470  29.186   3.403  30.061  0.0442  0.1336 -0.0269
17554W        W60471  28.551   5.481  28.957 -0.2638  0.0689  0.2803
17555W        W60472  27.309   8.274  28.547 -0.3207 -0.0372 -0.4079
17556W        W60473  27.255   3.274  30.006  0.1179 -0.1865 -0.0819
17557W        W60474  25.331   5.943  30.506 -0.1222 -0.1815 -0.2242
17558W        W60475  26.945   6.867  29.196 -0.1047 -0.0783  0.2277
17559W        W60476  28.221   6.267  29.471 -0.0094  0.0721 -0.0535
17560W        W60477  28.992   6.254  31.756  0.0225 -0.2464  0.0868
17561W        W60478  27.573   5.847  28.324  0.2839  0.4240 -0.0958
17562W        W60479  27.794   6.399  27.946 -0.2232 -0.0260 -0.1012
17563W        W60480  28.552   6.273  30.339 -0.0476 -0.0579  0.1079
17564W        W60481  30.108   6.319  29.831 -0.0593  0.0829  0.2756
17565W        W60482  29.019   4.692  29.907 -0.0258 -0.0450 -0.0631
17566W        W60483  26.841   5.123  28.628  0.0111 -0.0621  0.1848
17567W        W60484  28.101   3.008  31.314  0.0057  0.0990 -0.0444
17568W        W60485  28.806   3.248  28.663 -0.3114  0.1630 -0.0228
17569W        W60486  25.100   6.003  29.926 -0.0603  0.0897  0.1389
17570W        W60487  25.291   6.139  27.263 -0.0899 -0.0069  0.0394
17571W        W60488  26.485   7.417  28.492  0.3040 -0.0775 -0.1054
17572W        W60489  24.598   6.400  30.263 -0.2864  0.0596  0.0620
17573W        W60490  27.015   4.380  30.904 -0.0735 -0.1410 -0.0347
17574W        W60491  25.813   4.467  31.181 -0.3268  0.0780  0.0649
17575W        W60492  26.306   5.165  28.479 -0.2054 -0.1751 -0.1415
17576W        W60493  26.061   3.508  27.455  0.2890 -0.1564  0.1868
17577W        W60494  28.403   6.522  28.756 -0.0577 -0.4966  0.1656
17578W        W60495  27.063   3.573  31.039 -0.0208  0.1927  0.1339
17579W        W60496  25.189   3.193  28.248 -0.1802  0.0232  0.2030
17580W        W60497  28.251   5.820  29.476 -0.0310 -0.0956  0.2341
17581W        W60498  28.647   7.471  30.616 -0.1848  0.2195  0.2103
17582W        W60499  26.095   4.970  29.830  0.0709  0.0667  0.0004
17583W        W60500  27.408   6.978  30.364 -0.0872  0.0871 -0.2098
17584W        W60501  25.021   4.857  27.683  0.1927 -0.0160 -0.2639
17585W        W60502  26.582   6.457  29.676  0.0712  0.0605  0.1996
17586W        W60503  27.522   5.782  29.932  0.1392 -0.0292  0.3218
17587W        W60504  24.696   3.327  28.516  0.5062  0.1400  0.1066
17588W        W60505  28.487   5.820  30.366  0.2204  0.0710 -0.1769
17589W        W60506  27.896   6.496  28.915 -0.0370 -0.0191 -0.2156
17590W        W60507  28.913   7.432  27.999 -0.1758 -0.3338  0.0876
17591W        W60508  27.171   6.403  31.471 -0.1546 -0.1861  0.2096
17592W        W60509  25.304   7.594  29.486 -0.2184  0.0183 -0.0646
17593W        W60510  24.918   3.394   0.067 -0.2984 -0.0746  0.1799
17594W        W60511  29.785   3.120  27.517 -0.3427 -0.1602 -0.1871
17595W        W60512  25.572   4.840  30.541 -0.2108 -0.0140  0.0893
17596W        W60513  30.369   5.444  29.655 -0.0337  0.0531 -0.1015
17597W        W60514  30.028   3.080  30.052  0.2348  0.0475 -0.1872
17598W        W60515  27.922   5.099  26.908 -0.1581 -0.0145 -0.0265
17599W        W60516  26.072   2.792   0.145 -0.2108  0.1496  0.0649
17600W        W60517  25.359   4.714  31.026 -0.1961 -0.0500  0.1373
17601W        W60518  30.024   6.181  30.294 -0.2845  0.2263  0.0955
17602W        W60519  28.091   3.384  29.479 -0.0592  0.2756 -0.2410
17603W        W60520  30.154   4.456  29.017  0.1173  0.2981  0.0079
17604W        W60521  25.874   6.462  30.052  0.0721 -0.0212  0.0896
17605W        W60522  25.288   7.161  29.785  0.1825  0.0826  0.2966
17606W        W60523  27.293   5.772  29.438 -0.0413 -0.1018  0.0321
17607W        W60524  26.417   4.732  29.221 -0.0234 -0.2027 -0.1934
17608W        W60525  29.392   6.651  29.564 -0.0084  0.1184 -0.1023
17609W        W60526  29.541   5.905  30.000 -0.0064  0.3972  0.2557
17610W        W60527  24.929   5.675  28.670 -0.2221 -0.1279  0.0630
17611W        W60528  28.913   5.220  29.885  0.0078  0.2531 -0.2389
17612W        W60529  29.428   7.523  31.361  0.1595  0.0464  0.3956
17613W        W60530  28.884   8.875  31.698  0.0938  0.1974  0.2081
17614W        W60531  26.253   7.937  29.201 -0.0156  0.0584 -0.2852
17615W        W60532  28.521   7.024  28.806  0.1647  0.1052 -0.1431
17616W        W60533  27.066   3.125  30.440  0.0097 -0.2913 -0.2966
17617W        W60534  30.678   5.843  29.159 -0.0717 -0.3328  0.0609
17618W        W60535  28.746   7.188  29.214 -0.1269  0.3716 -0.3895
17619W        W60536  28.822   4.645  30.431  0.1062  0.1698  0.0454
17620W        W60537  28.145   2.563  30.939 -0.2362  0.0446 -0.1970
17621W        W60538  27.723   5.205  27.378 -0.1649 -0.0959  0.0680
17622W        W60539  25.436   7.524  31.314  0.0465 -0.1353 -0.0840
17623W        W60540  26.937   5.417  29.492 -0.4307  0.4092 -0.2161
17624W        W60541  29.655   6.393  29.995  0.1860 -0.1867 -0.0013
17625W        W60542  26.482   7.623  30.863 -0.0802 -0.0414  0.2876
17626W        W60543  25.028   5.172  29.644  0.0676  0.1589 -0.0006
17627W        W60544  26.009   6.556  31.889 -0.2043 -0.3849 -0.1448
17628W        W60545  25.959   8.356   1.020 -0.1521  0.1506  0.1660
17629W        W60546  25.918   9.183  31.805 -0.0729  0.1523 -0.1166
17630W        W60547  29.851   5.571  30.366 -0.0926 -0.1310  0.0428
17631W        W60548  26.177   3.785  29.553 -0.0524 -0.1809 -0.2893
17632W        W60549  28.303   5.924  31.365  0.2945  0.1097  0.0217
17633W        W60550  27.983   6.994   0.474  0.2128 -0.2872  0.1497
17634W        W60551  26.557   6.372  31.232  0.0349 -0.1347  0.0958
17635W        W60552  25.496   4.061   0.617 -0.0262 -0.0186 -0.1738
17636W        W60553  26.531   6.654  30.171  0.1319 -0.1263  0.0338
17637W        W60554  27.753   7.936   0.783 -0.2398 -0.6697 -0.0699
17638W        W60555  27.801   3.616  30.563 -0.0620 -0.1147  0.1900
17639W        W60556  24.004   9.592   0.597  0.1035 -0.0175 -0.4039
17640W        W60557  24.698   8.828   0.164 -0.1839  0.1264  0.1134
17641W        W60558  25.728   5.974  30.063 -0.0553  0.1481 -0.1237
17642W        W60559  25.244   3.837   0.181  0.0579  0.0450 -0.0566
17643W        W60560  26.590   4.783  30.034  0.1489 -0.0667 -0.1061
17644W        W60561  26.250   3.410   0.248 -0.0935  0.1634 -0.2910
17645W        W60562  25.585   8.823  31.696 -0.0874 -0.0746  0.2248
17646W        W60563  27.902   4.280   0.307 -0.1292  0.1490  0.1033
17647W        W60564  27.151   4.083  31.628 -0.1786 -0.0143 -0.3328
17648W        W60565  27.931   5.504  29.680 -0.1357 -0.4187 -0.1018
17649W        W60566  28.176   4.854  30.494 -0.1461  0.1522  0.0303
17650W        W60567  26.740   3.950  30.675 -0.1986 -0.2374 -0.0186
17651W        W60568  24.348   6.844  31.916 -0.0563  0.1329  0.0760
17652W        W60569  26.414   5.577  29.665 -0.2992 -0.0673  0.1250
17653W        W60570  27.731   8.157  31.412 -0.0652 -0.1816 -0.0614
17654W        W60571  27.264   7.536  30.202 -0.1038 -0.0737 -0.2564
17655W        W60572  28.525   4.670   0.879 -0.1553 -0.1407 -0.1444
17656W        W60573  28.463   4.937  31.268  0.0363 -0.2046  0.0488
17657W        W60574  26.040   4.048  31.673 -0.1413  0.1695  0.2109
17658W        W60575  25.030   3.815  30.546 -0.0105 -0.5591 -0.1024
17659W        W60576  25.416   7.257   1.171 -0.0251 -0.2395 -0.2676
17660W        W60577  27.227   7.840   0.696 -0.0036 -0.2547 -0.4722
17661W        W60578  26.107   6.321  31.475 -0.0827  0.1125 -0.2839
17662W        W60579  26.960   4.307   0.900 -0.1945  0.1530 -0.2555
17663W        W60580  27.611   8.840  29.180 -0.0093  0.0977 -0.1665
17664W        W60581  29.671   2.876   0.533  0.1367  0.1690  0.1436
17665W        W60582  27.557   6.693  31.164 -0.0705 -0.0555 -0.0900
17666W        W60583  26.341   4.493   0.025  0.1391 -0.1444 -0.1434
17667W        W60584  26.000   5.204   0.432 -0.0599 -0.0497  0.3318
17668W        W60585  26.306   3.668  30.935 -0.0594  0.2372  0.1577
17669W        W60586  26.180   5.581  28.766  0.3412 -0.2359 -0.1348
17670W        W60587  27.897   2.441  29.461 -0.1359 -0.1135 -0.2029
17671W        W60588  28.426   7.091  31.554 -0.1268  0.1600  0.1463
17672W        W60589  28.080   7.281   1.243 -0.1419  0.0763  0.1628
17673W        W60590  23.578   9.325  31.171  0.3397  0.0826 -0.0973
17674W        W60591  28.354   8.084  31.732 -0.0879 -0.2153 -0.4400
17675W        W60592  29.898   3.524  31.505 -0.0540 -0.0918  0.0338
17676W        W60593  27.668   4.477  31.046 -0.2206 -0.2310 -0.2662
17677W        W60594  28.620   7.587  31.822 -0.2495  0.1371  0.0046
17678W        W60595  26.223   3.361  30.553  0.0527  0.0858  0.1362
17679W        W60596  28.639   3.388  30.293 -0.1189  0.1223  0.3037
17680W        W60597  28.132   4.213  31.442  0.1157 -0.0006 -0.1035
17681W        W60598  26.630   7.203  28.908  0.4187  0.0091  0.2066
17682W        W60599  29.808   9.003  31.652  0.0964 -0.0349  0.0778
17683W        W60600  25.328   6.052  31.417 -0.1690  0.1820 -0.0216
17684W        W60601  27.594   3.172  30.375  0.1449  0.1972 -0.0004
17685W        W60602  26.871   6.060  31.182  0.3068 -0.2710 -0.0608
17686W        W60603  27.303   4.763  30.825 -0.1760 -0.0419 -0.2616
17687W        W60604  24.883   3.543  29.499  0.0218  0.0604 -0.2085
17688W        W60605  27.943   7.967  30.450  0.2588 -0.2199  0.1120
17689W        W60606  27.982   6.109  31.897 -0.4315  0.1968 -0.0323
17690W        W60607  29.346   5.531  30.493  0.0645  0.1599  0.0820
17691W        W60608  27.615  10.489  18.109  0.0370  0.2997 -0.2778
17692W        W60609  25.989   9.344  17.398  0.2131  0.0363  0.3079
17693W        W60610  27.099   7.780  16.853  0.1886 -0.0753  0.2032
17694W        W60611  28.902   7.825  16.961 -0.2257  0.0740 -0.0171
17695W        W60612  25.028   9.707  18.260  0.0604 -0.2267 -0.0326
17696W        W60613  28.532  11.492  17.628 -0.5000 -0.0895  0.0242
17697W        W60614  25.640   7.906  19.217 -0.3169 -0.1336  0.1119
17698W        W60615  28.663   8.557  19.211 -0.2000 -0.1259  0.0953
17699W        W60616  28.271   7.869  20.155  0.2629  0.1149  0.0924
17700W        W60617  26.345   9.011  18.454  0.2211  0.1128  0.0951
17701W        W60618  25.785   6.932  20.418  0.2484  0.0866  0.1700
17702W        W60619  24.642   9.950  17.940  0.3842 -0.0558 -0.1147
17703W        W60620  24.986   7.625  16.384 -0.1703  0.0723 -0.2249
17704W        W60621  23.538   6.130  19.270  0.1465  0.1833  0.1194
17705W        W60622  27.747   9.174  19.363 -0.0344  0.2630  0.1922
17706W        W60623  28.762   8.580  17.460  0.0831 -0.1000  0.0482
17707W        W60624  28.445   8.340  20.141  0.1662  0.2810 -0.3508
17708W        W60625  26.818   7.259  16.453  0.0163  0.0651 -0.0513
17709W        W60626  28.110  10.441  18.359  0.0712 -0.0342 -0.0939
17710W        W60627  26.174   8.422  17.251 -0.0386  0.3152 -0.2291
17711W        W60628  28.527   6.675  20.819  0.1709  0.1393  0.1273
17712W        W60629  28.609  10.433  19.010 -0.2922  0.0986  0.3405
17713W        W60630  25.901   7.959  17.281 -0.0136  0.0435 -0.2821
17714W        W60631  26.840   9.468  19.086  0.1191  0.1999 -0.2134
17715W        W60632  26.088   7.861  21.875 -0.2534 -0.1071  0.0276
17716W        W60633  27.615   9.200  18.848  0.1169  0.1710  0.1185
17717W        W60634  28.018   8.634  19.992  0.2697 -0.1132  0.1702
17718W        W60635  26.673  11.925  17.899  0.1497  0.1468  0.1150
17719W        W60636  26.138  10.208  17.575  0.3267 -0.2746  0.0475
17720W        W60637  28.178   7.735  22.715  0.0803  0.0424 -0.0928
17721W        W60638  22.865   9.083  20.011 -0.1938 -0.1582  0.4445
17722W        W60639  25.095   9.316  16.894  0.0284  0.2077  0.1003
17723W        W60640  24.725  10.682  18.082  0.2357  0.2061 -0.2329
17724W        W60641  30.268   9.815  17.218  0.1420  0.0175  0.3585
17725W        W60642  27.808  11.618  19.128  0.1389 -0.3011  0.3013
17726W        W60643  27.674   9.770  19.466 -0.1120  0.0272  0.0625
17727W        W60644  24.730   8.522  17.419 -0.1743 -0.1512  0.0131
17728W        W60645  26.633  11.007  17.794 -0.3906  0.0348  0.0350
17729W        W60646  26.816   9.865  18.567 -0.4112  0.0504 -0.3270
17730W        W60647  25.524  10.863  17.785  0.0391 -0.1074 -0.0431
17731W        W60648  28.188   9.374  17.257  0.0639  0.0129 -0.1983
17732W        W60649  24.453  10.395  17.163  0.2465  0.1232 -0.1303
17733W        W60650  27.960  11.191  18.792  0.0076 -0.1219 -0.0855
17734W        W60651  25.327   7.548  19.380 -0.1421  0.2311 -0.0335
17735W        W60652  24.869   9.308  17.349  0.0026  0.2743 -0.1297
17736W        W60653  29.713   8.381  21.146  0.3697  0.1571  0.0701
17737W        W60654  26.148   8.839  16.557  0.3178 -0.0018 -0.0113
17738W        W60655  28.547   8.589  17.980  0.1450  0.1137 -0.3250
17739W        W60656  26.660   8.061  16.571  0.0581  0.3459 -0.2003
17740W        W60657  28.798   7.634  18.354 -0.3234 -0.1371  0.0413
17741W        W60658  26.200   6.954  18.582  0.1888 -0.1135 -0.2082
17742W        W60659  26.640  10.121  19.090  0.0236  0.4160  0.0025
17743W        W60660  27.365   7.355  17.921 -0.1089 -0.3604 -0.1641
17744W        W60661  28.658   9.420  20.536  0.0141  0.0661  0.1131
17745W        W60662  25.578   8.369  17.013 -0.1205 -0.0610 -0.4468
17746W        W60663  26.013   9.326  17.950  0.0207 -0.0919  0.0185
17747W        W60664  25.401   8.594  17.406 -0.3949 -0.0366 -0.0434
17748W        W60665  25.715   8.283  17.673  0.0096 -0.2900 -0.0517
17749W        W60666  28.989  12.293  17.840 -0.2706  0.1102 -0.1273
17750W        W60667  27.538   8.717  17.598  0.0285  0.0332 -0.3497
17751W        W60668  28.575  10.049  18.002  0.4147 -0.0027  0.1983
17752W        W60669  26.052   8.858  17.072 -0.3940 -0.0744  0.0299
17753W        W60670  25.050  10.217  18.313 -0.4569  0.2448  0.0295
17754W        W60671  26.116  10.169  20.600  0.0097 -0.1975  0.0053
17755W        W60672  25.409   6.495  17.419 -0.0654  0.1017 -0.3908
17756W        W60673  27.865  10.607  20.530 -0.1461  0.1274  0.2041
17757W        W60674  26.382  12.192  20.110  0.2879  0.0196 -0.0609
17758W        W60675  26.964   7.517  17.674  0.0935 -0.1986 -0.1803
17759W        W60676  26.675   8.501  18.541 -0.0570 -0.1690  0.0187
17760W        W60677  28.055   9.091  19.776 -0.1320 -0.2457  0.2401
17761W        W60678  25.709  10.325  18.422 -0.0685 -0.1565 -0.0067
17762W        W60679  27.654   6.221  19.872 -0.0527  0.1321  0.0911
17763W        W60680  28.487   7.524  19.675  0.2615  0.2367  0.0054
17764W        W60681  26.489  10.517  17.902 -0.1336 -0.0768 -0.0167
17765W        W60682  24.603   8.957  17.551 -0.2290 -0.0727  0.0017
17766W        W60683  27.054   8.944  22.870 -0.1885  0.0952 -0.1712
17767W        W60684  29.791   7.668  17.244 -0.1732 -0.0232  0.2421
17768W        W60685  25.770  10.221  19.447 -0.0340  0.0137 -0.3236
17769W        W60686  27.818   8.953  21.430  0.0603  0.0498  0.0394
17770W        W60687  29.219  10.187  22.889  0.0054 -0.2033  0.0039
17771W        W60688  24.664   9.866  17.459  0.2540  0.1311  0.1238
17772W        W60689  23.144  10.540  17.584  0.0625  0.1472 -0.1681
17773W        W60690  22.716   8.805  16.412 -0.1261  0.3457  0.0187
17774W        W60691  26.440   6.385  19.239  0.2877  0.0875  0.2324
17775W        W60692  26.392  10.893  18.295  0.2693  0.1772  0.0393
17776W        W60693  28.893   6.642  17.576 -0.1280  0.2668 -0.1713
17777W        W60694  26.635   8.236  19.599  0.1007 -0.1315 -0.3251
17778W        W60695  28.184   7.631  17.492 -0.3115  0.3110  0.2998
17779W        W60696  24.886  11.128  18.339 -0.0330  0.0755  0.1229
17780W        W60697  27.482  10.537  17.458 -0.2147  0.0491 -0.0558
17781W        W60698  31.194   9.581  20.162  0.0659 -0.3908  0.0344
17782W        W60699  28.585  10.776  18.076  0.2519 -0.1685 -0.1971
17783W        W60700  26.907   9.109  17.943 -0.0260 -0.2141 -0.4478
17784W        W60701  26.275   7.053  20.305  0.0736  0.0684  0.0242
17785W        W60702  28.178   6.127  21.308 -0.0880 -0.0178  0.1793
17786W        W60703  25.187   8.062  18.469 -0.1170  0.2398 -0.1428
17787W        W60704  26.435   7.597  21.127 -0.0171 -0.0357 -0.0614
17788W        W60705  25.745   6.732  18.373 -0.3393  0.1818  0.2405
17789W        W60706  27.322   9.380  19.255 -0.4102  0.1376 -0.0673
17790W        W60707  26.467  10.009  17.010 -0.0532  0.2304  0.1009
17791W        W60708  23.395  10.501  18.307  0.2441 -0.1206 -0.1342
17792W        W60709  27.430   7.312  20.340  0.1451 -0.1580 -0.0283
17793W        W60710  26.675   9.564  16.754 -0.0695  0.2032 -0.0471
17794W        W60711  27.910   9.224  22.364  0.1866 -0.0805  0.0665
17795W        W60712  29.009  10.199  17.648 -0.2062 -0.0285  0.0225
17796W        W60713  25.629   9.100  18.897  0.2351 -0.0839  0.1337
17797W        W60714  26.386   9.218  17.105  0.0994  0.0345  0.3684
17798W        W60715  27.485  11.417  17.829  0.0398 -0.0461 -0.0121
17799W        W60716  28.063  10.833  18.093 -0.1661  0.0115  0.1266
17800W        W60717  27.273   7.923  17.936 -0.0271  0.2280 -0.1552
17801W        W60718  29.191   9.327  19.349 -0.0682  0.0358 -0.0845
17802W        W60719  29.108   8.676  18.597 -0.2134 -0.2326  0.2128
17803W        W60720  24.309   8.265  21.564  0.0688  0.1368 -0.2226
17804W        W60721  26.786   7.928  21.300 -0.1280 -0.3952  0.2063
17805W        W60722  30.511   9.782  18.212 -0.0322  0.4342  0.0244
17806W        W60723  26.029  10.663  18.656  0.0769  0.0687  0.2524
17807W        W60724  26.141  10.428  18.222 -0.0935  0.0152  0.2037
17808W        W60725  28.943   9.359  19.781  0.1404  0.1060  0.2135
17809W        W60726  26.624  10.111  17.576 -0.2126 -0.1050 -0.0154
17810W        W60727  23.007   8.515  19.844 -0.0731  0.1899 -0.1639
17811W        W60728  29.079  10.891  17.957  0.0695  0.0868 -0.3061
17812W        W60729  27.699   9.577  18.471 -0.2467 -0.4092  0.0802
17813W        W60730  28.052   8.159  19.770 -0.0922 -0.1667  0.1897
17814W        W60731  27.670   7.731  19.459  0.3003 -0.2420  0.1654
17815W        W60732  25.214   8.431  16.691 -0.0767 -0.0357  0.4179
17816W        W60733  27.130   9.820  19.260  0.1799 -0.5865 -0.1115
17817W        W60734  27.216   8.443  17.279 -0.1575 -0.0024  0.0517
17818W        W60735  29.403   7.780  18.282 -0.0910 -0.0640  0.2084
17819W        W60736  28.712   9.805  19.859  0.0905  0.0265  0.1273
17820W        W60737  27.231   9.440  17.430 -0.1278  0.0866  0.0048
17821W        W60738  28.299   8.148  16.546  0.0490  0.0354  0.1422
17822W        W60739  26.772   9.241  17.491 -0.1737 -0.1565  0.0990
17823W        W60740  24.150   9.405  18.589 -0.0302 -0.3193  0.3335
17824W        W60741  27.720   9.408  17.535 -0.0025 -0.0591  0.2244
17825W        W60742  28.554   9.872  18.954 -0.1647 -0.2681  0.1022
17826W        W60743  29.107   7.196  18.358  0.2860 -0.1127 -0.0030
17827W        W60744  28.026   9.611  16.736  0.1373 -0.0243  0.0602
17828W        W60745  26.111   7.824  20.182 -0.0174  0.1216  0.0174
17829W        W60746  26.916   7.858  20.797 -0.0646  0.0533  0.0330
17830W        W60747  27.153   8.743  20.168  0.1116  0.3133  0.1785
17831W        W60748  26.966   7.519  18.231 -0.2158  0.2944 -0.3452
17832W        W60749  26.638   7.599  16.776  0.0860 -0.4289  0.0969
17833W        W60750  28.283   6.127  19.047 -0.4403 -0.0780  0.1197
17834W        W60751  25.743  12.234  17.862 -0.1910  0.2004 -0.2050
17835W        W60752  27.626   7.924  20.125  0.0477 -0.0559 -0.1317
17836W        W60753  29.812   9.127  19.813  0.4710 -0.0032  0.2522
17837W        W60754  27.755   6.700  19.516 -0.1376 -0.1711 -0.1394
17838W        W60755  27.660   9.382  21.723 -0.0798  0.1875 -0.2016
17839W        W60756  28.650   9.265  17.276 -0.0414  0.1370 -0.4108
17840W        W60757  27.740  10.209  18.564 -0.2023 -0.3744  0.2495
17841W        W60758  27.379   6.840  17.773 -0.1407 -0.0915  0.2184
17842W        W60759  25.894   8.766  21.117 -0.0622  0.1062  0.1846
17843W        W60760  26.782   7.949  18.927 -0.0468 -0.0195  0.3608
17844W        W60761  25.549  10.119  17.008 -0.1569  0.1591 -0.2202
17845W        W60762  26.910   9.742  17.720  0.1694 -0.1425 -0.1654
17846W        W60763  28.786   9.002  18.331 -0.2968 -0.1747  0.2987
17847W        W60764  25.158   8.949  17.628 -0.1374 -0.3386  0.2052
17848W        W60765  26.924   6.123  18.326  0.0234 -0.0967 -0.0468
17849W        W60766  26.834  11.074  16.660 -0.0553  0.0384  0.0363
17850W        W60767  23.926  10.864  17.048  0.0189 -0.0803  0.1005
17851W        W60768  27.771   7.085  20.082 -0.0693 -0.0528  0.1240
17852W        W60769  27.642   8.228  18.127  0.2567 -0.0289 -0.0965
17853W        W60770  26.013   9.917  17.177 -0.3443 -0.1639  0.2126
17854W        W60771  26.601  11.114  17.095  0.0874 -0.1412  0.2628
17855W        W60772  27.363   9.975  18.309 -0.0046 -0.0165 -0.0654
17856W        W60773  26.693   7.136  18.509  0.1280  0.2085  0.1542
17857W        W60774  24.906  10.736  18.646 -0.2062 -0.1058  0.1515
17858W        W60775  25.913   9.757  17.705 -0.3775 -0.1456 -0.2599
17859W        W60776  25.890  10.366  16.186 -0.1133 -0.2350 -0.3115
17860W        W60777  27.553   6.442  18.001 -0.1328 -0.0828  0.2116
17861W        W60778  27.381   9.156  17.798  0.0618  0.1335  0.2088
17862W        W60779  27.552   7.555  21.945 -0.0175 -0.0396 -0.1902
17863W        W60780  25.699   6.839  17.624  0.2614  0.0727  0.1028
17864W        W60781  25.316  11.372  18.114  0.0044 -0.2002 -0.0236
17865W        W60782  27.767  11.305  18.301 -0.1378  0.1435  0.1440
17866W        W60783  28.567   6.905  17.257  0.3151  0.1240 -0.0881
17867W        W60784  27.281  11.411  19.303  0.2765  0.4491 -0.0999
17868W        W60785  26.575  10.270  21.026  0.0713  0.2223  0.2404
17869W        W60786  25.415   8.634  17.918  0.0305  0.0772 -0.0805
17870W        W60787  28.020   7.522  19.878  0.2684  0.2866  0.1265
17871W        W60788  26.735   9.336  18.587 -0.1686 -0.0606  0.0001
17872W        W60789  25.684  10.894  16.827  0.2657 -0.1473  0.2532
17873W        W60790  28.864  11.089  19.952 -0.2645 -0.2797  0.1049
17874W        W60791  24.113   9.870  18.705 -0.3710 -0.0182 -0.0718
17875W        W60792  25.407  11.337  17.510  0.0409 -0.2279  0.2589
17876W        W60793  27.203   7.956  19.740  0.1128 -0.0648  0.0431
17877W        W60794  27.560   8.474  20.104  0.0285 -0.2416 -0.1341
17878W        W60795  26.157   6.789  19.040 -0.2423 -0.2834 -0.0726
17879W        W60796  25.872   7.727  17.782  0.1880  0.2249 -0.2107
17880W        W60797  25.593   9.129  17.826 -0.1553  0.0673 -0.1108
17881W        W60798  26.224   9.302  18.848 -0.3331  0.0787  0.1149
17882W        W60799  25.478   6.921  17.128  0.0858 -0.0062  0.3500
17883W        W60800  23.653  10.101  18.752  0.0397  0.1116  0.0612
17884W        W60801  26.379   6.158  19.967  0.2244  0.2155  0.0935
17885W        W60802  30.539  12.648  16.788  0.0134 -0.1381  0.0045
17886W        W60803  27.164   8.314  18.388  0.0628  0.0632 -0.1668
17887W        W60804  26.245   8.538  17.768  0.0765  0.1264  0.1849
17888W        W60805  25.433   9.371  18.365  0.1502  0.1456 -0.0750
17889W        W60806  25.002  10.198  17.115 -0.0839  0.2087 -0.0020
17890W        W60807  27.888  10.192  19.697 -0.0547 -0.0097 -0.3296
17891W        W60808  24.258   8.194  18.807 -0.1221 -0.2095  0.1344
17892W        W60809  24.496   9.298  18.250  0.2092 -0.1987 -0.1576
17893W        W60810  24.373  10.355  18.178  0.2386 -0.1423 -0.0049
17894W        W60811  28.153   7.824  18.827 -0.0167 -0.0336 -0.2995
17895W        W60812  28.320  10.539  17.120 -0.0607  0.1196 -0.1707
17896W        W60813  27.368   5.947  18.832  0.1720  0.0549  0.0530
17897W        W60814  27.040   8.819  18.354 -0.0931  0.0794  0.1673
17898W        W60815  28.791   7.631  17.436 -0.2350  0.2279  0.1093
17899W        W60816  27.729   7.232  19.551 -0.3391  0.0014 -0.2017
17900W        W60817  26.862   6.946  19.345 -0.1856  0.0313  0.0857
17901W        W60818  28.781  10.623  17.103 -0.0442 -0.1843  0.2842
17902W        W60819  25.370   9.534  18.936 -0.2358  0.0744  0.0785
17903W        W60820  26.596  10.907  20.962  0.0291 -0.0496 -0.1761
17904W        W60821  26.504  10.234  20.068 -0.0020  0.0064  0.3754
17905W        W60822  27.941   7.403  18.731  0.3141  0.1510  0.2027
17906W        W60823  26.140   6.618  17.470 -0.1880 -0.1888  0.2487
17907W        W60824  25.695   8.336  18.177  0.2142 -0.0537  0.1247
17908W        W60825  30.475   8.323  18.421 -0.0857  0.1246  0.1484
17909W        W60826  26.860   9.572  18.171  0.1660 -0.3526  0.1380
17910W        W60827  28.864   6.167  20.883 -0.2483 -0.2814 -0.3344
17911W        W60828  27.409   8.877  19.197  0.1078  0.1235  0.2347
17912W        W60829  28.224   9.193  16.753 -0.1497  0.0096 -0.1837
17913W        W60830  28.101   9.043  18.655 -0.0201 -0.0160  0.0773
17914W        W60831  24.597   9.414  17.753  0.1280  0.1624 -0.0424
17915W        W60832  26.234   5.882  19.557  0.2500 -0.0031 -0.4052
17916W        W60833  28.002   8.607  18.377  0.0130 -0.0772 -0.0544
17917W        W60834  26.380   7.124  18.101 -0.3134  0.1059  0.2784
17918W        W60835  26.831   7.557  19.805  0.0545 -0.0071  0.4360
17919W        W60836  28.275   7.243  20.291 -0.0489 -0.0000 -0.1916
17920W        W60837  28.021   7.701  21.072 -0.0105  0.1675 -0.3632
17921W        W60838  25.873   6.420  19.261 -0.1617 -0.3272  0.0622
17922W        W60839  29.221  10.707  19.862 -0.1423 -0.1447  0.0024
17923W        W60840  29.904   7.894  17.661 -0.1462  0.2423  0.0882
17924W        W60841  26.340   7.219  19.047 -0.0506 -0.0046 -0.0801
17925W        W60842  29.974  10.053  19.681 -0.2188 -0.2992 -0.1860
17926W        W60843  28.191   6.965  18.641 -0.1070  0.0606  0.3952
17927W        W60844  27.548   8.733  18.572 -0.1092  0.1134  0.1180
17928W        W60845  26.770   7.402  22.188 -0.0297  0.0415  0.3813
17929W        W60846  26.715   8.412  17.558 -0.2131  0.2954  0.1025
17930W        W60847  29.121   9.477  20.756 -0.1210  0.0924  0.1793
17931W        W60848  27.469   9.703  17.808 -0.0791 -0.1691 -0.0582
17932W        W60849  29.559   9.534  20.436 -0.1182 -0.0358  0.0069
17933W        W60850  26.852   9.658  17.255 -0.1947  0.0150  0.2095
17934W        W60851  22.629   8.392  17.036 -0.2301 -0.1602 -0.0346
17935W        W60852  25.559  10.134  17.513 -0.0374  0.0593  0.0393
17936W        W60853  24.324   8.577  16.548  0.2746 -0.2457  0.0436
17937W        W60854  26.627   9.048  16.702  0.0235  0.1573  0.0798
17938W        W60855  27.587   8.978  20.005 -0.1209 -0.0806 -0.2461
17939W        W60856  29.198   9.382  22.692 -0.4916  0.2692  0.1504
17940W        W60857  27.327   7.354  17.035 -0.0091  0.1096 -0.0132
17941W        W60858  28.925   7.749  20.960  0.3282 -0.1975 -0.2322
17942W        W60859  25.092  10.038  17.625 -0.0179 -0.2547  0.0267
17943W        W60860  26.514   6.296  17.211 -0.1504 -0.1195 -0.0819
17944W        W60861  24.861  10.799  20.399  0.0307  0.1439 -0.1309
17945W        W60862  24.859  11.148  19.246  0.0113  0.0595  0.2441
17946W        W60863  24.344  10.710  16.750  0.2002  0.0995 -0.0331
17947W        W60864  29.444   8.277  18.040 -0.2520  0.0364  0.2525
17948W        W60865  28.046   6.590  19.941  0.0284 -0.0943 -0.2670
17949W        W60866  25.641   9.587  17.056  0.0621  0.2285  0.1569
17950W        W60867  29.447  11.332  17.592 -0.0753  0.1638 -0.4181
17951W        W60868  27.137   8.552  19.761 -0.1423  0.0808  0.1704
17952W        W60869  26.385   8.009  17.451  0.0804 -0.0289 -0.1961
17953W        W60870  29.345   8.968  19.627  0.3784  0.0236 -0.3984
17954W        W60871  28.260   9.894  18.460 -0.0907 -0.0484 -0.1480
17955W        W60872  23.792  12.039  18.748 -0.0463 -0.4197  0.1094
17956W        W60873  26.422   7.579  17.829  0.3841  0.1470  0.2218
17957W        W60874  27.548   7.406  19.125  0.5240  0.4478  0.0935
17958W        W60875  25.692   8.497  18.694  0.0722  0.2033  0.1460
17959W        W60876  26.541   6.810  17.183 -0.0180 -0.0670  0.0970
17960W        W60877  27.342   8.943  17.208  0.1570 -0.0509 -0.2010
17961W        W60878  26.779   9.040  19.802  0.0583  0.3951 -0.1658
17962W        W60879  27.466   8.157  23.158 -0.1557  0.0692 -0.0755
17963W        W60880  24.775  10.775  16.235 -0.3084 -0.0382 -0.0836
17964W        W60881  27.681  10.089  17.573 -0.0487 -0.0480 -0.0537
17965W        W60882  29.288   8.473  17.599 -0.3164 -0.0579 -0.0984
17966W        W60883  29.067  10.532  18.684  0.2265 -0.0268 -0.0469
17967W        W60884  26.525   8.538  16.792  0.3519 -0.0665 -0.1857
17968W        W60885  25.568   8.868  18.410  0.1687  0.0634  0.1665
17969W        W60886  25.168   9.747  17.239  0.3769  0.0427 -0.0163
17970W        W60887  27.843  10.015  18.096 -0.0169  0.2344 -0.2212
17971W        W60888  27.030  10.389  19.237 -0.1862  0.0196  0.0297
17972W        W60889  29.732  11.683  17.814 -0.2356 -0.2841  0.3703
17973W        W60890  27.869   7.861  16.754 -0.0945 -0.0828 -0.1408
17974W        W60891  27.678   9.649  18.985  0.1110  0.0315 -0.1520
17975W        W60892  27.767   5.612  18.708 -0.1126 -0.1696  0.4330
17976W        W60893  28.969  10.574  20.324 -0.1239  0.0741  0.0776
17977W        W60894  26.247   9.274  21.138 -0.1679  0.3939  0.1231
17978W        W60895  25.390   7.463  17.767  0.1266 -0.1608  0.0522
17979W        W60896  25.795   9.167  21.440 -0.1162  0.0388 -0.3071
17980W        W60897  28.725   6.991  20.496  0.0355  0.2592 -0.2040
17981W        W60898  23.228   9.749  18.234  0.1600  0.1155  0.0566
17982W        W60899  28.628  10.184  17.248  0.1085  0.2549  0.2626
17983W        W60900  24.325   8.601  17.121  0.0880 -0.1344 -0.0392
17984W        W60901  26.138   9.451  19.373  0.1317  0.4005  0.4121
17985W        W60902  26.825   6.237  18.823 -0.0205 -0.1508  0.0559
17986W        W60903  25.562  11.471  17.056 -0.0077 -0.1133 -0.1753
17987W        W60904  28.112   9.851  19.266  0.2239  0.2769  0.1194
17988W        W60905  28.298  12.477  17.580 -0.0477 -0.0137 -0.1447
17989W        W60906  27.251  10.279  17.799  0.0188  0.3796 -0.0796
17990W        W60907  27.072  11.329  17.037  0.2251  0.0675  0.0395
17991W        W60908  25.654   7.978  16.394 -0.2842 -0.0546  0.1098
17992W        W60909  28.204   7.711  18.297  0.0606 -0.0011 -0.1261
17993W        W60910  26.527   9.556  22.533  0.1607 -0.4052  0.2371
17994W        W60911  27.135   8.434  17.854  0.2913  0.2220 -0.1738
17995W        W60912  27.049   8.007  17.503 -0.0078  0.2776 -0.0023
17996W        W60913  27.469   8.681  18.092 -0.0096 -0.1440  0.0217
17997W        W60914  27.090   9.053  18.821  0.1062  0.0250 -0.0464
17998W        W60915  25.926   8.645  19.628  0.3013 -0.2721  0.3930
17999W        W60916  26.211   8.079  17.895  0.1085  0.2624 -0.0068
18000W        W60917  30.793   8.971  20.363 -0.3195  0.3142  0.3151
18001W        W60918  28.883   8.638  16.964  0.1420  0.1486  0.1211
18002W        W60919  27.899  10.442  21.187  0.1702 -0.4703  0.1163
18003W        W60920  28.284   8.344  18.922 -0.0674  0.0824  0.3999
18004W        W60921  27.983   8.046  17.284  0.0331 -0.2310  0.1586
18005W        W60922  25.407   9.330  19.899  0.0119  0.4409 -0.0444
18006W        W60923  26.907   9.822  21.757  0.2415  0.1967  0.0737
18007W        W60924  28.403   9.729  20.817 -0.2061  0.1724 -0.4032
18008W        W60925  23.901   7.167  18.812 -0.3290 -0.1678  0.0646
18009W        W60926  27.952   8.572  17.880  0.1532  0.2414 -0.0169
18010W        W60927  29.142   8.727  19.126  0.1288 -0.4386  0.0235
18011W        W60928  27.037  11.564  16.569  0.1548  0.1311  0.1032
18012W        W60929  27.884   8.747  18.966 -0.0850  0.0664 -0.1813
18013W        W60930  28.680  12.974  18.897 -0.0162 -0.3541  0.1346
18014W        W60931  25.597   6.088  18.066  0.1367 -0.0093  0.0936
18015W        W60932  28.130   9.648  19.750 -0.0132 -0.2949 -0.0228
18016W        W60933  29.630   9.721  18.297 -0.2255 -0.1450  0.3970
18017W        W60934  28.149   8.091  17.796 -0.0618 -0.0559 -0.1432
18018W        W60935  26.067   7.529  19.437 -0.5704 -0.2358 -0.1513
18019W        W60936  27.500  10.636  16.849 -0.0550 -0.1345  0.3555
18020W        W60937  27.126   7.343  19.380 -0.0064 -0.2869  0.0676
18021W        W60938  26.349   7.274  19.855 -0.0608 -0.0039 -0.1785
18022W        W60939  26.908  10.630  17.617 -0.0361 -0.3733  0.4710
18023W        W60940  27.643   6.993  18.699 -0.0183 -0.1234  0.0737
18024W        W60941  29.746  11.426  18.780  0.0759  0.1920  0.0638
18025W        W60942  26.952  10.639  18.219 -0.0388 -0.0888  0.0324
18026W        W60943  25.409   9.608  17.652  0.1167  0.1796 -0.0815
18027W        W60944  28.418  10.171  20.645  0.0232  0.1130 -0.0209
18028W        W60945  24.572   9.859  16.456  0.1009  0.1067  0.1436
18029W        W60946  26.370   9.719  17.399  0.3131 -0.1272  0.2039
18030W        W60947  27.829  10.370  17.177  0.0462 -0.2100  0.1648
18031W        W60948  26.483   9.488  17.860  0.1430 -0.0502 -0.1294
18032W        W60949  30.045   9.270  20.272 -0.2545  0.1733 -0.1484
18033W        W60950  26.490   7.602  18.610  0.3347 -0.5802 -0.0620
18034W        W60951  27.393   6.408  17.498  0.2167 -0.0673  0.0047
18035W        W60952  28.364   7.830  16.970 -0.0324 -0.2247 -0.2438
18036W        W60953  26.743   7.994  18.422  0.1099  0.0422 -0.1709
18037W        W60954  24.208   9.124  17.870 -0.0997 -0.2539  0.2127
18038W        W60955  25.755   9.658  16.550 -0.0936  0.3261  0.0795
18039W        W60956  24.238   9.770  18.172  0.0775 -0.1778 -0.0054
18040W        W60957  26.689   5.699  22.698 -0.0520  0.2010  0.3523
18041W        W60958  26.778   7.041  19.848  0.0907 -0.0382  0.0216
18042W        W60959  25.794   7.340  17.461  0.1392  0.0271  0.1685
18043W        W60960  25.414   6.539  19.063 -0.4138  0.1529  0.1849
18044W        W60961  28.196   9.537  18.815  0.0183 -0.2319 -0.0732
18045W        W60962  25.344   9.979  19.672  0.0169  0.1944 -0.0540
18046W        W60963  26.331   9.663  18.461 -0.0617  0.2214  0.1644
18047W        W60964  30.386   7.527  19.504 -0.0219  0.1251  0.0348
18048W        W60965  28.608   9.042  19.531 -0.1604 -0.1487  0.0458
18049W        W60966  24.622   6.181  20.175  0.2545  0.1925  0.1356
18050W        W60967  28.010   9.904  21.097 -0.0696 -0.2116  0.1790
18051W        W60968  24.606   9.489  16.757 -0.0576  0.0258 -0.1902
18052W        W60969  28.114   7.511  19.272 -0.0588 -0.1769 -0.0600
18053W        W60970  25.641   7.649  18.216 -0.1485  0.2809  0.0202
18054W        W60971  26.170   7.577  17.265 -0.0710  0.0599  0.1171
18055W        W60972  27.620   8.202  17.617 -0.0860 -0.6161  0.0538
18056W        W60973  27.718  10.163  19.141 -0.1414 -0.0308  0.2789
18057W        W60974  27.542  12.646  17.098 -0.2990  0.2323 -0.0144
18058W        W60975  27.356  11.860  19.044 -0.0016 -0.0796 -0.0055
18059W        W60976  28.210   9.272  19.276 -0.0786 -0.0634  0.2744
18060W        W60977  26.437   6.303  20.763  0.0205 -0.1523  0.0021
18061W        W60978  27.036   8.842  17.529  0.3386  0.1220 -0.4143
18062W        W60979  26.133   8.434  22.680 -0.0545  0.0372 -0.0905
18063W        W60980  29.145   9.517  18.373 -0.0518  0.0325  0.0451
18064W        W60981  28.255   8.481  17.490  0.1175 -0.2371  0.2644
18065W        W60982  25.712   6.954  18.863 -0.2380  0.0963 -0.0133
18066W        W60983  27.626   8.092  21.174  0.0043 -0.0069 -0.0196
18067W        W60984  25.328  10.697  20.163 -0.3968 -0.1130 -0.1291
18068W        W60985  28.649   8.002  18.717  0.1121 -0.3189 -0.1138
18069W        W60986  26.370   8.158  18.700  0.2946 -0.3147  0.2374
18070W        W60987  28.213   7.002  16.695  0.1966  0.3018  0.3900
18071W        W60988  26.556   8.765  17.235 -0.1081  0.1740  0.2781
18072W        W60989  25.681   9.209  19.433 -0.1623  0.1572  0.0067
18073W        W60990  27.477   6.879  17.253 -0.0428 -0.0921 -0.0652
18074W        W60991  28.086   8.533  19.418  0.1308  0.2557  0.1878
18075W        W60992  29.428   9.405  19.856 -0.0585 -0.0839  0.1770
18076W        W60993  28.418   8.948  22.092 -0.1082 -0.2191  0.0440
18077W        W60994  25.559   8.865  16.922 -0.1045  0.0653  0.2244
18078W        W60995  29.841   8.515  17.305  0.1868  0.4986 -0.2572
18079W        W60996  26.590  10.949  21.561 -0.1078  0.0561  0.3495
18080W        W60997  27.338   8.206  22.341 -0.2227  0.1461  0.1616
18081W        W60998  26.658   9.430  20.068 -0.2627  0.0622  0.1660
18082W        W60999  26.881   9.475  19.634 -0.0409  0.0736 -0.0131
18083W        W61000  24.383   6.246  18.707  0.3325  0.2829  0.5252
18084W        W61001  24.534   9.196  18.809 -0.0779 -0.0130 -0.0731
18085W        W61002  25.608  10.128  16.498 -0.0515 -0.0988  0.2078
18086W        W61003  27.791   8.149  19.150 -0.0956  0.2109 -0.1206
18087W        W61004  25.521   6.094  18.936 -0.2290  0.0440 -0.0636
18088W        W61005  27.828   6.862  17.980  0.1710 -0.1275 -0.1244
18089W        W61006  27.731  10.838  18.533  0.0586 -0.3054 -0.1221
18090W        W61007  26.409  10.019  18.039  0.1788 -0.0807  0.1726
18091W        W61008  24.030  10.271  24.311 -0.3799  0.0248 -0.0812
18092W        W61009  25.233   8.180  19.884 -0.0371  0.0431 -0.0252
18093W        W61010  29.152   8.417  21.800  0.0993 -0.2387 -0.4193
18094W        W61011  29.041   7.696  23.259  0.2018  0.2048 -0.1929
18095W        W61012  26.682   6.995  21.861 -0.3600  0.0553 -0.2501
18096W        W61013  29.169  10.173  21.980 -0.0158 -0.0703  0.1392
18097W        W61014  26.189   7.776  25.390  0.4350  0.1515  0.0166
18098W        W61015  29.936  11.349  22.608 -0.1120  0.0073  0.0081
18099W        W61016  29.835  10.960  24.214  0.1264  0.3742  0.0426
18100W        W61017  28.041   6.995  23.168 -0.0322  0.4082 -0.1932
18101W        W61018  27.430   8.130  25.588  0.1875  0.2126 -0.0216
18102W        W61019  25.360  10.800  22.269  0.5070  0.2680  0.0143
18103W        W61020  25.879   7.553  20.518  0.0234  0.0079 -0.3452
18104W        W61021  23.594   5.673  22.757 -0.1722 -0.2490  0.1108
18105W        W61022  27.835   9.398  25.410  0.2488  0.2272  0.0383
18106W        W61023  25.341   9.429  22.480 -0.1555  0.2043 -0.0610
18107W        W61024  24.756   7.092  21.759  0.2822  0.0092  0.1535
18108W        W61025  24.539   9.209  20.443  0.2997 -0.1801 -0.1581
18109W        W61026  25.573  12.208  21.244 -0.1248  0.1490 -0.3709
18110W        W61027  26.104   9.022  23.577  0.0944 -0.1351 -0.0865
18111W        W61028  24.865   7.216  23.693  0.2811 -0.1972  0.5604
18112W        W61029  26.929   8.457  21.890 -0.0475  0.1106  0.0446
18113W        W61030  27.129   7.968  21.968 -0.0887  0.0200 -0.1400
18114W        W61031  26.556   9.497  23.620 -0.0377 -0.0066  0.0820
18115W        W61032  25.369   9.981  23.574 -0.0683  0.2997 -0.2366
18116W        W61033  28.771   7.071  23.115 -0.2629  0.5792  0.1436
18117W        W61034  26.004  10.618  22.600  0.0294  0.0610  0.0756
18118W        W61035  25.541  10.293  21.465  0.2184  0.2922 -0.2899
18119W        W61036  27.678   9.017  22.799  0.1506 -0.5243  0.4853
18120W        W61037  27.314   7.648  25.009 -0.1449  0.0385 -0.2865
18121W        W61038  25.245   9.033  23.171 -0.1295 -0.0666 -0.2156
18122W        W61039  26.128  11.033  21.306 -0.1157 -0.0348  0.0998
18123W        W61040  24.548  11.049  22.529  0.0992 -0.2489  0.0026
18124W        W61041  28.668  10.101  22.938  0.1679  0.1177 -0.2101
18125W        W61042  26.679   8.452  22.701  0.0508  0.2516  0.1860
18126W        W61043  27.125  10.861  23.608  0.1445 -0.3079  0.5627
18127W        W61044  25.978   6.884  21.304 -0.0400 -0.0512  0.0119
18128W        W61045  26.872  10.204  24.745  0.1465 -0.1192 -0.2725
18129W        W61046  26.112  11.844  22.548  0.2778 -0.2386 -0.0931
18130W        W61047  27.329   8.878  23.329  0.0553  0.1568  0.1750
18131W        W61048  26.499   7.190  22.693  0.2628 -0.1093 -0.0353
18132W        W61049  27.430   7.872  20.654  0.2688  0.1493 -0.4292
18133W        W61050  28.074   7.734  23.752 -0.0723 -0.3882  0.0291
18134W        W61051  25.947   9.550  23.500 -0.3286 -0.3517 -0.0454
18135W        W61052  27.792  10.948  21.255 -0.1616  0.1086 -0.1187
18136W        W61053  27.884   6.938  26.093  0.0420 -0.0347  0.0285
18137W        W61054  26.283   9.727  19.899  0.2754  0.2229  0.1830
18138W        W61055  28.249   7.183  21.290 -0.5347 -0.2712  0.0110
18139W        W61056  25.849   8.110  20.517 -0.0642 -0.2807 -0.1693
18140W        W61057  28.158   7.041  20.763 -0.2948  0.2788  0.0198
18141W        W61058  28.180  10.247  23.891 -0.1252 -0.1367 -0.0383
18142W        W61059  26.335  10.590  21.301 -0.0908 -0.1592  0.1059
18143W        W61060  25.165   8.562  22.742 -0.1948  0.2204  0.1426
18144W        W61061  27.776   8.028  24.836 -0.1373 -0.0030 -0.2439
18145W        W61062  25.892   7.774  23.691 -0.1814  0.2058 -0.2103
18146W        W61063  25.861   9.083  23.162  0.2465  0.0890  0.1371
18147W        W61064  26.247  11.036  22.378  0.0609 -0.1552 -0.1154
18148W        W61065  26.753   9.207  24.060 -0.1520 -0.6364 -0.0633
18149W        W61066  29.003   9.206  20.334 -0.0732  0.3528  0.1402
18150W        W61067  28.758   9.357  24.004 -0.0724 -0.0232 -0.2228
18151W        W61068  28.181  10.279  22.874  0.0521  0.1941 -0.0679
18152W        W61069  26.491   8.359  22.201 -0.0027 -0.3025  0.0697
18153W        W61070  26.432  10.392  23.411 -0.0760 -0.0174 -0.1619
18154W        W61071  27.165  10.190  23.760  0.0920 -0.1530 -0.1390
18155W        W61072  25.365   6.538  17.957 -0.0864  0.0382 -0.0073
18156W        W61073  27.583   9.543  24.952 -0.0815  0.1046  0.0875
18157W        W61074  25.221  10.126  24.094 -0.2414 -0.2214  0.3328
18158W        W61075  28.974   7.428  25.302  0.0567 -0.0340  0.0613
18159W        W61076  26.740   8.389  21.461  0.0696 -0.3298 -0.0087
18160W        W61077  26.996   9.963  21.124 -0.1666 -0.1453 -0.0143
18161W        W61078  27.029   9.459  22.740 -0.0967  0.0949 -0.0119
18162W        W61079  27.317   5.295  22.424  0.0270  0.2069 -0.0821
18163W        W61080  28.001   7.278  23.601  0.3894 -0.3224 -0.2437
18164W        W61081  25.094   8.027  19.371 -0.1270  0.2435 -0.0164
18165W        W61082  27.140   6.657  22.012  0.1553  0.0049 -0.2169
18166W        W61083  28.725   9.929  22.101 -0.0260 -0.0961 -0.0019
18167W        W61084  28.688   8.200  21.016 -0.1774  0.1134 -0.0209
18168W        W61085  27.346   9.616  20.890 -0.2767  0.1248 -0.2424
18169W        W61086  25.773   7.949  24.640  0.1666  0.0370  0.0094
18170W        W61087  27.434   9.356  24.031  0.2078  0.0729 -0.0306
18171W        W61088  27.703   9.133  20.538  0.0624  0.0071  0.0896
18172W        W61089  25.027   9.782  22.071  0.2183 -0.2070 -0.1701
18173W        W61090  25.891   9.455  21.801 -0.1491 -0.1270  0.1710
18174W        W61091  25.813   6.304  22.891  0.1018 -0.1401 -0.0188
18175W        W61092  27.583   8.535  26.527  0.0026 -0.2452 -0.2747
18176W        W61093  27.551   4.606  21.984 -0.2767  0.0976 -0.0851
18177W        W61094  26.340   7.412  24.913  0.0665  0.3659 -0.0921
18178W        W61095  29.251   7.545  21.389 -0.3291  0.1089 -0.2495
18179W        W61096  25.986  10.532  21.715 -0.1844  0.0530 -0.2269
18180W        W61097  30.244  10.782  21.195  0.0968 -0.0997 -0.0943
18181W        W61098  27.974   7.359  24.301 -0.1256 -0.3523 -0.3469
18182W        W61099  29.073  10.579  19.366 -0.1923 -0.1494  0.0499
18183W        W61100  25.069   7.128  22.331  0.1922  0.1177  0.0442
18184W        W61101  25.669   8.640  22.502  0.0675  0.0883  0.0992
18185W        W61102  25.329   8.025  23.803 -0.1604 -0.0385  0.4460
18186W        W61103  24.210   8.409  19.684  0.0953  0.0042  0.3167
18187W        W61104  30.080   8.318  24.652  0.1240 -0.0770 -0.2522
18188W        W61105  26.849   5.801  23.240 -0.2006 -0.1380  0.2311
18189W        W61106  27.066   7.913  22.863  0.0008 -0.0507  0.0515
18190W        W61107  27.096   8.050  23.761  0.0632  0.2230  0.0515
18191W        W61108  26.039  10.776  23.458 -0.1351 -0.0250 -0.0052
18192W        W61109  29.594   8.716  26.033  0.3043 -0.0521 -0.2079
18193W        W61110  25.992   9.551  20.751 -0.1903 -0.1262 -0.0284
18194W        W61111  28.233   9.423  24.758 -0.2994  0.1005  0.2307
18195W        W61112  26.569  11.661  22.533 -0.0289  0.0583 -0.0067
18196W        W61113  27.212   7.660  22.378 -0.0837 -0.3177  0.0831
18197W        W61114  25.760   9.137  22.282 -0.0753 -0.0742 -0.0046
18198W        W61115  26.923   9.578  20.512 -0.0741  0.1037 -0.1050
18199W        W61116  26.951  11.243  21.651 -0.0936 -0.1587 -0.2727
18200W        W61117  27.898   5.566  21.392 -0.1143 -0.2589  0.1168
18201W        W61118  25.842   9.452  22.673  0.0609  0.1467  0.0994
18202W        W61119  26.419   7.843  22.240 -0.0958 -0.0856  0.0422
18203W        W61120  25.396   8.370  24.693  0.1012 -0.0691 -0.0562
18204W        W61121  26.247   6.955  23.680 -0.0186  0.0465 -0.0307
18205W        W61122  30.394   6.393  24.147 -0.1114 -0.3614  0.2599
18206W        W61123  29.432   8.020  24.015  0.0061 -0.0252 -0.2192
18207W        W61124  27.071   7.726  20.309  0.0062 -0.1163  0.0420
18208W        W61125  27.872   9.722  20.188  0.1116 -0.0907 -0.0004
18209W        W61126  26.660   9.657  23.031  0.1144  0.1127  0.3103
18210W        W61127  23.766   8.851  19.464  0.1565  0.5058 -0.0519
18211W        W61128  28.307  11.128  19.139  0.2551  0.2277  0.2468
18212W        W61129  28.424   7.931  23.176  0.1230  0.0888  0.0895
18213W        W61130  26.287   9.336  23.054 -0.0751  0.0282 -0.1290
18214W        W61131  26.331   7.309  24.117  0.1321  0.0476  0.2552
18215W        W61132  26.165   7.468  21.498  0.2270  0.3314  0.3244
18216W        W61133  24.827  12.521  23.381 -0.0146 -0.1314 -0.1585
18217W        W61134  27.535   8.434  21.889  0.1317  0.4237  0.4228
18218W        W61135  27.935   7.305  22.713 -0.2899 -0.0821  0.1292
18219W        W61136  25.458   9.182  26.947 -0.1228  0.1393  0.3203
18220W        W61137  27.644   8.745  19.589  0.2361 -0.0883 -0.0750
18221W        W61138  26.840   7.433  18.955  0.0622  0.0205  0.0110
18222W        W61139  28.649   6.834  22.689 -0.3456  0.3964  0.3376
18223W        W61140  25.895  10.226  24.302 -0.0154  0.2150 -0.0265
18224W        W61141  27.878   9.583  20.705 -0.0880  0.1790  0.2425
18225W        W61142  28.111   7.638  24.711 -0.0420 -0.1778  0.2283
18226W        W61143  26.920   8.695  22.328 -0.5048 -0.1403 -0.0427
18227W        W61144  28.212   9.357  21.221  0.1247 -0.1361 -0.2867
18228W        W61145  26.124  10.214  22.147  0.0310 -0.1331  0.0268
18229W        W61146  24.899   9.968  23.621  0.0353  0.0144 -0.1687
18230W        W61147  28.053  10.855  22.310 -0.0019 -0.1916 -0.1168
18231W        W61148  26.760   6.927  23.631 -0.1782  0.3490  0.0622
18232W        W61149  27.935   8.695  20.612  0.2544 -0.1903  0.1186
18233W        W61150  25.567   7.005  21.705 -0.1746  0.2207  0.1631
18234W        W61151  26.570   9.611  21.406  0.0760 -0.1006 -0.2203
18235W        W61152  27.593   6.757  24.228 -0.1579 -0.0703  0.3290
18236W        W61153  27.078   7.026  21.481  0.0170  0.2148  0.1376
18237W        W61154  26.768   7.110  24.716  0.2466 -0.0246 -0.0407
18238W        W61155  28.405  10.601  23.221 -0.0470 -0.1873  0.0880
18239W        W61156  28.530   8.171  24.122 -0.0483  0.2164  0.2220
18240W        W61157  27.077   8.176  26.478  0.1679 -0.0116 -0.1147
18241W        W61158  26.041   8.998  22.701 -0.0578 -0.3788  0.4543
18242W        W61159  25.542   6.753  22.515 -0.1448  0.4436 -0.0122
18243W        W61160  24.587   8.596  21.809  0.0509 -0.0596  0.1295
18244W        W61161  25.465  10.257  20.978 -0.2521  0.0828  0.1109
18245W        W61162  29.539   9.938  23.858  0.0223  0.3127  0.3341
18246W        W61163  27.463   8.555  21.388  0.3184  0.0314  0.0072
18247W        W61164  25.148   7.048  24.038  0.2930 -0.1601 -0.0561
18248W        W61165  27.793   6.013  22.597 -0.1677  0.0992  0.3228
18249W        W61166  26.848  10.244  21.469  0.3827 -0.1473 -0.0277
18250W        W61167  25.407   7.865  21.321 -0.0610 -0.0755 -0.0987
18251W        W61168  26.662   7.553  21.634 -0.1558  0.1388  0.3025
18252W        W61169  27.127  11.098  22.117  0.1059  0.2039 -0.0975
18253W        W61170  27.954   9.067  20.963  0.4481  0.0254  0.1325
18254W        W61171  29.067   9.766  23.050 -0.0099 -0.1767 -0.2804
18255W        W61172  24.481  11.027  20.612  0.2672  0.0584  0.2743
18256W        W61173  29.807   6.773  24.828 -0.1502  0.4233 -0.0015
18257W        W61174  25.335  10.717  20.850  0.2142 -0.2356  0.0219
18258W        W61175  25.502   6.785  21.185 -0.1794 -0.2468  0.0108
18259W        W61176  25.364   8.888  20.317  0.2347  0.1049 -0.0138
18260W        W61177  27.863   5.980  20.975  0.0361 -0.0065 -0.0508
18261W        W61178  26.833   7.840  19.397 -0.1446 -0.0642 -0.1093
18262W        W61179  24.904   8.071  22.503 -0.4606  0.0224 -0.1965
18263W        W61180  28.053   6.555  24.273  0.1745 -0.2977  0.2462
18264W        W61181  24.303   9.864  23.420  0.0639  0.0661 -0.2034
18265W        W61182  26.267   6.087  25.495 -0.0557 -0.3284  0.3382
18266W        W61183  29.615   8.472  20.344 -0.1527  0.1488 -0.1472
18267W        W61184  26.838   9.188  22.317 -0.0139 -0.1072  0.1458
18268W        W61185  26.541  10.260  25.162  0.0994 -0.0020  0.3844
18269W        W61186  26.583   8.905  20.927  0.1866 -0.1673  0.1102
18270W        W61187  25.095   8.609  23.443 -0.3405  0.0155  0.0642
18271W        W61188  26.429   8.706  21.323  0.0073 -0.3033  0.0689
18272W        W61189  25.728   9.724  19.231 -0.0641 -0.0243 -0.0171
18273W        W61190  25.338  10.927  21.301  0.0668  0.0157  0.2090
18274W        W61191  26.268   9.272  20.309 -0.2576  0.1834 -0.0547
18275W        W61192  27.672   8.549  22.844  0.0959  0.2957  0.0574
18276W        W61193  23.210   7.778  23.981  0.1911 -0.0542 -0.1026
18277W        W61194  28.489   7.324  24.667 -0.0390 -0.0348  0.1439
18278W        W61195  24.100   9.867  22.633 -0.0103 -0.1940  0.4625
18279W        W61196  27.466   7.732  23.434  0.0718 -0.2246 -0.3103
18280W        W61197  26.888   7.324  23.078 -0.2980 -0.2005  0.0332
18281W        W61198  29.274   9.253  24.349 -0.0912  0.0216  0.1869
18282W        W61199  25.011   9.098  23.597 -0.2047 -0.0564 -0.0242
18283W        W61200  25.963   9.691  24.302  0.1333  0.1408  0.1473
18284W        W61201  27.403   8.721  22.389  0.2247  0.1948 -0.1322
18285W        W61202  28.129  11.050  21.806  0.3627 -0.0070  0.1416
18286W        W61203  28.973   8.308  24.523 -0.1167  0.1642  0.1959
18287W        W61204  25.788   8.285  21.397 -0.2547 -0.0167 -0.0472
18288W        W61205  26.127  11.285  23.269  0.4171  0.2021  0.2252
18289W        W61206  25.545   8.722  19.284 -0.0811 -0.1278  0.1842
18290W        W61207  26.290   9.281  22.126  0.1404 -0.0402  0.1778
18291W        W61208  25.550   8.268  24.199  0.3159 -0.0146  0.1074
18292W        W61209  26.855   8.047  20.019 -0.1385  0.1851 -0.1378
18293W        W61210  24.205  11.044  23.824  0.0377  0.0193  0.2767
18294W        W61211  27.885   6.450  21.725  0.0115 -0.1795  0.0091
18295W        W61212  27.390   9.876  21.556  0.4414 -0.0576 -0.3427
18296W        W61213  25.009   9.502  22.870 -0.0433 -0.0843 -0.0938
18297W        W61214  28.350   6.084  25.235  0.2276  0.0785 -0.2641
18298W        W61215  26.227   7.439  22.029 -0.1303 -0.0275  0.0763
18299W        W61216  26.201   5.850  26.442 -0.1902 -0.3082 -0.0104
18300W        W61217  26.619   5.495  26.411  0.2440  0.2689 -0.1846
18301W        W61218  29.529  11.001  21.612  0.0870  0.1614  0.0274
18302W        W61219  26.059   7.062  21.772 -0.0265 -0.3326  0.1079
18303W        W61220  29.823  11.824  24.257 -0.0774 -0.0926 -0.3809
18304W        W61221  25.557  10.394  23.785 -0.1079  0.2719  0.0457
18305W        W61222  27.303   9.044  21.483  0.4293 -0.2374  0.2271
18306W        W61223  25.972   7.810  21.093  0.3169 -0.1801  0.1017
18307W        W61224  26.923   9.920  23.373  0.2621 -0.1604  0.2647
18308W        W61225  28.156   8.154  21.113  0.0303  0.0977  0.0646
18309W        W61226  26.796   8.058  22.452  0.0347 -0.1300  0.1920
18310W        W61227  27.200   8.154  21.498  0.0307  0.1197 -0.1466
18311W        W61228  26.721   9.363  21.826 -0.2152 -0.3164  0.1381
18312W        W61229  28.562   8.549  23.809 -0.2446  0.1449  0.0717
18313W        W61230  27.549   8.262  19.570  0.2400  0.0217  0.0472
18314W        W61231  26.954   8.135  23.282 -0.1414 -0.0163 -0.0100
18315W        W61232  27.234   7.735  24.155  0.0514  0.0056 -0.0368
18316W        W61233  28.406   7.550  25.131  0.1029 -0.1503 -0.2617
18317W        W61234  27.052   6.435  20.699  0.1905 -0.2019 -0.0862
18318W        W61235  28.899   8.772  22.141 -0.0173  0.1149 -0.2564
18319W        W61236  25.030   7.656  23.372  0.0727 -0.0660 -0.1218
18320W        W61237  26.277   9.334  23.994 -0.0511 -0.3503  0.0652
18321W        W61238  25.620   8.146  25.125  0.1041  0.1444  0.3588
18322W        W61239  26.228  12.593  22.836 -0.0498 -0.1785 -0.2326
18323W        W61240  25.789   7.683  22.269 -0.0100 -0.3410 -0.1174
18324W        W61241  30.152   7.903  23.331  0.0939  0.0605  0.0883
18325W        W61242  27.781   7.989  22.821  0.3717 -0.0961  0.0101
18326W        W61243  27.701   5.992  21.505 -0.0957 -0.0813 -0.0518
18327W        W61244  25.763   6.295  22.401 -0.0268 -0.0598  0.4771
18328W        W61245  25.013   8.574  24.990 -0.0285 -0.1556  0.5587
18329W        W61246  26.637   6.745  20.464  0.1504 -0.0845  0.2156
18330W        W61247  29.308   5.734  23.591  0.1500  0.1069  0.1001
18331W        W61248  27.990   8.504  21.466  0.1761  0.0701 -0.1349
18332W        W61249  26.596   7.799  23.108 -0.3187  0.0216 -0.4301
18333W        W61250  25.764   7.079  25.291 -0.2807 -0.0958 -0.1490
18334W        W61251  27.006  10.375  22.726  0.1008  0.1064 -0.1126
18335W        W61252  27.066  11.022  24.088  0.0551  0.2042 -0.0595
18336W        W61253  24.381   6.083  19.754 -0.0994 -0.0292  0.0077
18337W        W61254  26.923   8.725  20.629 -0.0404  0.0565 -0.2358
18338W        W61255  28.535   8.471  23.268 -0.0245  0.2354 -0.5318
18339W        W61256  28.602   7.833  24.715  0.0578  0.1935  0.0878
18340W        W61257  28.338   6.490  18.732  0.1506 -0.0254  0.2832
18341W        W61258  26.796   7.797  24.788  0.0667  0.4494  0.1772
18342W        W61259  25.218   9.527  20.678  0.1505 -0.0606 -0.0670
18343W        W61260  26.957   7.245  24.137  0.0451  0.0971 -0.3884
18344W        W61261  27.174   9.167  20.519  0.1005 -0.3739 -0.0336
18345W        W61262  25.880  10.095  23.455 -0.1927  0.0290 -0.1066
18346W        W61263  26.561  11.582  21.523 -0.1352  0.1818  0.1564
18347W        W61264  28.093   7.072  26.733 -0.0452 -0.0992  0.1164
18348W        W61265  27.149   7.253  23.644  0.0153 -0.1692  0.3927
18349W        W61266  26.904   8.649  24.025  0.0315 -0.0599  0.2722
18350W        W61267  27.625   8.198  23.654  0.1795  0.0746 -0.1097
18351W        W61268  27.776  13.427  24.676 -0.2095  0.1179  0.1650
18352W        W61269  26.322   8.006  21.381  0.0957 -0.1767 -0.2773
18353W        W61270  25.873  11.461  24.054  0.2337 -0.2007 -0.1849
18354W        W61271  26.595   8.786  21.837  0.0784  0.2553 -0.0384
18355W        W61272  25.509   7.855  20.252 -0.1122 -0.0373 -0.3038
18356W        W61273  23.533   8.915  25.016 -0.0409  0.0964  0.0851
18357W        W61274  24.555   6.751  24.569  0.3058  0.0306 -0.3111
18358W        W61275  25.756   7.647  25.190 -0.0655  0.0788  0.2056
18359W        W61276  27.110   7.371  20.760 -0.2214 -0.3184  0.0883
18360W        W61277  25.924   6.812  19.832  0.2331 -0.0797 -0.3409
18361W        W61278  26.058  10.398  23.781 -0.0311 -0.1944  0.0731
18362W        W61279  24.832  11.055  23.041  0.3888  0.0462  0.0152
18363W        W61280  26.181  11.071  20.790 -0.1239  0.4357  0.0135
18364W        W61281  28.586   8.040  23.659  0.1309 -0.4388  0.1554
18365W        W61282  27.830   8.206  22.315  0.2164  0.0100 -0.1001
18366W        W61283  27.202   9.417  21.874 -0.0063 -0.3153 -0.3325
18367W        W61284  28.269   5.913  21.748 -0.2950 -0.0938 -0.0574
18368W        W61285  26.418   9.843  20.365 -0.1113 -0.2685 -0.1551
18369W        W61286  24.590  11.352  18.689  0.2951 -0.0335 -0.1150
18370W        W61287  29.296  12.270  19.039  0.1359 -0.2304 -0.1712
18371W        W61288  29.203  11.126  23.141 -0.3319 -0.0975  0.0473
18372W        W61289  27.401   9.117  24.636 -0.0813  0.0937  0.2376
18373W        W61290  29.602   7.680  22.027  0.1605 -0.0316 -0.1464
18374W        W61291  27.272   6.481  22.938  0.1445  0.3183 -0.1806
18375W        W61292  27.503   7.226  22.452  0.4266 -0.0607  0.3721
18376W        W61293  27.504   9.805  24.264 -0.4376  0.2736  0.3987
18377W        W61294  28.092   8.824  22.954 -0.2962 -0.0510  0.0882
18378W        W61295  25.711   7.654  21.628 -0.3219 -0.2107  0.1672
18379W        W61296  24.507   9.355  21.902 -0.1774 -0.1760 -0.1755
18380W        W61297  29.861   8.135  22.868  0.1604  0.1626  0.0958
18381W        W61298  25.573   9.855  25.107  0.1604 -0.5499  0.0171
18382W        W61299  30.539  10.954  21.950  0.3733 -0.2653 -0.0414
18383W        W61300  27.269   6.379  21.546  0.0248  0.0825  0.0752
18384W        W61301  27.297  11.788  23.321 -0.4204  0.0646 -0.2923
18385W        W61302  29.825   8.555  25.052 -0.0080 -0.2098 -0.2851
18386W        W61303  28.186   9.279  20.471 -0.0555  0.0317  0.0436
18387W        W61304  29.421   6.424  23.379 -0.1051  0.3010  0.0865
18388W        W61305  28.273   9.999  21.959  0.0038  0.0815 -0.1911
18389W        W61306  26.560   9.798  19.447 -0.1772 -0.1464 -0.0837
18390W        W61307  26.185  11.121  23.923  0.0103  0.1135 -0.1618
18391W        W61308  27.176   6.667  21.154  0.1952 -0.3962 -0.0816
18392W        W61309  29.904   7.919  24.251  0.0300  0.0742  0.1826
18393W        W61310  25.629   8.810  23.549  0.0764  0.0387 -0.0318
18394W        W61311  27.307   7.177  25.269  0.1384 -0.2211  0.0397
18395W        W61312  26.240   9.153  21.652 -0.2754 -0.1424 -0.1365
18396W        W61313  26.669   7.194  20.853 -0.0513 -0.2192 -0.0866
18397W        W61314  27.377   9.394  25.526  0.2373  0.0101  0.0163
18398W        W61315  24.898   8.187  21.947  0.0084  0.0806  0.1860
18399W        W61316  24.926   8.261  24.077 -0.4516 -0.4429  0.0334
18400W        W61317  28.017   8.536  24.797  0.0099 -0.0372 -0.3378
18401W        W61318  27.704   9.526  21.252 -0.0199 -0.0086 -0.1362
18402W        W61319  28.016   9.342  22.946  0.0194  0.3019 -0.3451
18403W        W61320  24.321   7.492  22.395 -0.2160 -0.2196  0.1575
18404W        W61321  27.323   6.105  21.097 -0.0464  0.1468  0.1840
18405W        W61322  28.863   9.251  22.280 -0.1209 -0.1649 -0.0134
18406W        W61323  27.146   8.426  22.793 -0.0965  0.1173 -0.0798
18407W        W61324  26.223  10.911  22.914  0.2970  0.2132  0.2424
18408W        W61325  26.489   5.739  21.072 -0.1803  0.0927 -0.1741
18409W        W61326  28.388   8.829  20.292 -0.1987  0.1605 -0.6025
18410W        W61327  27.241   8.476  23.533 -0.2429  0.2728  0.0408
18411W        W61328  24.945   9.892  18.761  0.1341 -0.1540 -0.3440
18412W        W61329  29.676  11.494  20.454  0.1040  0.0300  0.2275
18413W        W61330  30.272  11.284  23.058  0.1069 -0.0757 -0.1065
18414W        W61331  24.746   6.783  22.224 -0.1015 -0.4092 -0.3872
18415W        W61332  28.909  10.226  22.472  0.1279  0.2784  0.0388
18416W        W61333  27.302   8.063  24.582  0.1907  0.1902  0.0839
18417W        W61334  24.445   9.113  22.549 -0.1447 -0.4788  0.1194
18418W        W61335  25.518   9.464  23.055  0.3562  0.0730  0.1594
18419W        W61336  25.202   7.993  20.738  0.0594 -0.1638 -0.0028
18420W        W61337  28.499   7.547  23.487 -0.0967 -0.2961  0.1573
18421W        W61338  27.077   7.792  25.431 -0.0966 -0.1799 -0.3073
18422W        W61339  27.985   8.245  20.306 -0.1413  0.0974 -0.0345
18423W        W61340  29.510   5.976  24.444 -0.0310 -0.1909 -0.3786
18424W        W61341  25.249  10.643  24.764  0.4292 -0.0100 -0.1293
18425W        W61342  25.927   9.531  25.331  0.3443 -0.1208 -0.1026
18426W        W61343  27.285   9.115  19.638  0.1991  0.1601 -0.2185
18427W        W61344  25.218   9.536  23.845 -0.2282 -0.0772 -0.0348
18428W        W61345  29.445   9.766  21.324  0.1977  0.1786 -0.1528
18429W        W61346  28.296   8.095  21.564  0.1274 -0.1631  0.0255
18430W        W61347  26.611   9.153  22.780 -0.0052 -0.0709 -0.2748
18431W        W61348  27.043   7.242  22.632  0.1408  0.5643 -0.0586
18432W        W61349  29.436   9.460  23.788  0.0193  0.2334 -0.3510
18433W        W61350  25.856   7.253  23.956  0.2329 -0.1861  0.1903
18434W        W61351  26.746   9.220  23.262  0.1858 -0.1309  0.0045
18435W        W61352  30.522   4.886  23.265  0.1938 -0.0945  0.0398
18436W        W61353  26.063   9.764  22.329  0.0077  0.0583  0.1320
18437W        W61354  25.871   8.598  20.442  0.1033  0.1109 -0.3210
18438W        W61355  25.089   9.968  20.895  0.0819  0.0567  0.4204
18439W        W61356  26.260   8.320  21.784 -0.1516 -0.2697 -0.3342
18440W        W61357  26.623   6.692  24.830 -0.2142 -0.2240 -0.2556
18441W        W61358  25.113   7.808  22.906 -0.1319 -0.2887  0.1358
18442W        W61359  26.441   9.788  20.892 -0.0898  0.0643  0.1654
18443W        W61360  25.444   6.290  22.009  0.0567 -0.1535  0.0436
18444W        W61361  27.998   8.479  24.236  0.1417 -0.1826  0.2114
18445W        W61362  26.934   5.444  20.737 -0.4059  0.0307  0.0123
18446W        W61363  27.676   6.415  21.193 -0.0658 -0.1291 -0.1051
18447W        W61364  27.163   9.489  23.388  0.3112 -0.0547  0.0034
18448W        W61365  28.369   9.308  23.355  0.1872  0.1784  0.0192
18449W        W61366  25.394   6.259  19.764  0.2766 -0.0620  0.2226
18450W        W61367  26.788  10.993  22.555 -0.1405 -0.1669 -0.1291
18451W        W61368  24.413   9.529  17.224  0.3271  0.0591  0.2312
18452W        W61369  25.739   9.388  23.958 -0.1848  0.1680  0.2030
18453W        W61370  26.138   9.437  25.752 -0.2055 -0.1582  0.0149
18454W        W61371  24.286   6.884  20.864  0.0428  0.1375  0.4051
18455W        W61372  25.486   8.179  22.767 -0.2871 -0.2279  0.3030
18456W        W61373  28.479  10.413  22.132  0.2188  0.0098  0.2568
18457W        W61374  27.400  11.496  21.343 -0.2039  0.3770  0.0315
18458W        W61375  28.657   9.041  23.660  0.0017  0.5915 -0.1000
18459W        W61376  26.629  10.056  23.746 -0.1746  0.0562 -0.0323
18460W        W61377  25.743   6.983  23.430 -0.0408  0.2446 -0.0464
18461W        W61378  26.480   9.328  20.721 -0.1584  0.2675 -0.0231
18462W        W61379  28.111   8.265  23.800 -0.1840  0.1746  0.1195
18463W        W61380  28.478   9.301  19.957  0.3416  0.1040 -0.2645
18464W        W61381  28.918   6.547  20.430  0.1260  0.0190  0.0715
18465W        W61382  26.033   8.752  22.151 -0.1346 -0.0707  0.0292
18466W        W61383  24.772   7.533  22.558  0.0453  0.0273  0.2223
18467W        W61384  26.693  11.238  25.155  0.0882  0.2678 -0.1648
18468W        W61385  27.919   8.318  25.255 -0.1357  0.1506  0.1313
18469W        W61386  28.363   7.314  22.901 -0.0888 -0.4652 -0.0970
18470W        W61387  25.285   8.891  22.232 -0.5044 -0.2125 -0.3748
18471W        W61388  28.305   8.899  21.558  0.1452 -0.3018 -0.0096
18472W        W61389  27.942   9.809  24.073  0.0153 -0.4013  0.1711
18473W        W61390  26.065  10.402  23.086  0.3043 -0.2349 -0.2819
18474W        W61391  26.746   7.416  25.193 -0.1023  0.0326  0.1951
18475W        W61392  27.763   8.597  23.320  0.0220 -0.0087  0.0708
18476W        W61393  26.408  10.000  24.666  0.0398 -0.3103 -0.0900
18477W        W61394  26.391   8.049  22.763 -0.0359  0.0429 -0.3225
18478W        W61395  27.846   7.540  20.369 -0.1597 -0.0922 -0.0593
18479W        W61396  27.766   9.228  23.491  0.0953 -0.1904  0.0796
18480W        W61397  28.328  10.053  22.441 -0.1218  0.0515  0.2104
18481W        W61398  27.295  12.240  22.922  0.1224 -0.0659 -0.0007
18482W        W61399  29.012   8.183  23.793  0.0792 -0.1705  0.0235
18483W        W61400  24.557   7.913  23.079  0.0020 -0.2903 -0.1687
18484W        W61401  26.701   9.083  21.420  0.4472  0.1491  0.2197
18485W        W61402  27.156   8.912  21.942  0.0855  0.2969  0.0131
18486W        W61403  26.403   8.767  24.100 -0.0617  0.1044  0.0992
18487W        W61404  23.370   8.262  22.968  0.1522  0.0041 -0.3594
18488W        W61405  26.394   7.492  20.481 -0.1032 -0.0006 -0.2905
18489W        W61406  27.411  10.678  23.992 -0.1970  0.1725 -0.2569
18490W        W61407  29.681   7.824  22.487 -0.1069  0.1579  0.0188
18491W        W61408  24.949   8.844  28.690  0.0067 -0.0526 -0.4643
18492W        W61409  24.835   7.608  25.710 -0.3914  0.1332 -0.1883
18493W        W61410  25.777   8.292  23.739 -0.1716  0.0690  0.0990
18494W        W61411  30.428   8.583  26.046  0.2096 -0.3089 -0.1580
18495W        W61412  25.116   6.057  24.111  0.1513  0.3166 -0.2800
18496W        W61413  27.443   9.923  25.347  0.1567  0.0814 -0.1817
18497W        W61414  24.531   5.381  27.074 -0.3109  0.2199 -0.0262
18498W        W61415  25.384   8.516  23.833  0.0338  0.0183  0.0899
18499W        W61416  27.945  10.880  26.601  0.0361  0.1313  0.1471
18500W        W61417  27.012  10.008  24.272 -0.1142 -0.2665 -0.2311
18501W        W61418  25.424   8.342  25.895 -0.2046  0.4400 -0.0511
18502W        W61419  27.725  10.453  25.305  0.0106 -0.0727  0.2364
18503W        W61420  25.539   7.519  23.257  0.4461 -0.1196  0.1221
18504W        W61421  24.856   5.549  26.318 -0.1096  0.1095  0.0993
18505W        W61422  27.040   6.606  26.197  0.2836  0.1821  0.0957
18506W        W61423  24.602   9.733  26.108  0.0298 -0.4315  0.0715
18507W        W61424  26.307   8.766  26.910 -0.2256  0.2938  0.2885
18508W        W61425  23.951   7.412  24.221  0.2610  0.0419  0.1716
18509W        W61426  30.710  11.518  25.091  0.2814 -0.2330 -0.0213
18510W        W61427  26.422   7.779  28.111 -0.0321  0.1052 -0.0380
18511W        W61428  28.928   8.647  26.693 -0.0293  0.2393 -0.0206
18512W        W61429  27.126   8.702  25.023 -0.0900 -0.0482 -0.2581
18513W        W61430  24.177   9.403  23.570  0.0305 -0.2260 -0.1380
18514W        W61431  24.153   6.015  25.383 -0.3286  0.3069 -0.2176
18515W        W61432  26.515   8.003  27.498  0.2201 -0.2242 -0.0625
18516W        W61433  25.706   8.870  27.685 -0.2523  0.2528 -0.1798
18517W        W61434  28.426   7.654  24.301 -0.0898 -0.0113 -0.0872
18518W        W61435  25.276   9.597  27.325  0.0669 -0.0493 -0.2667
18519W        W61436  28.389  11.678  25.910 -0.1397 -0.1463  0.1955
18520W        W61437  27.419   9.688  29.447  0.3817  0.6083  0.0120
18521W        W61438  24.982   8.309  25.485 -0.0868 -0.0429  0.0091
18522W        W61439  26.435  10.816  27.291  0.0817  0.0280  0.1542
18523W        W61440  26.536   9.235  25.458  0.0643  0.2393  0.2232
18524W        W61441  31.729   9.758  26.646  0.3229  0.3006 -0.1567
18525W        W61442  28.454  11.173  26.022  0.0027 -0.1151  0.2353
18526W        W61443  25.550   8.574  27.304 -0.2392  0.3914  0.1164
18527W        W61444  25.364   9.054  25.230 -0.0212  0.0352  0.1550
18528W        W61445  25.767   9.459  27.284  0.0222  0.2799 -0.0470
18529W        W61446  26.700  12.434  26.501 -0.3022  0.0803  0.3738
18530W        W61447  26.487   8.913  27.962 -0.0109 -0.3130  0.1853
18531W        W61448  25.458   9.687  25.553 -0.2812 -0.0604 -0.0225
18532W        W61449  27.090   9.105  23.710 -0.0037 -0.0997  0.0049
18533W        W61450  27.875   9.459  24.390 -0.0700  0.2671 -0.0021
18534W        W61451  27.403  12.264  27.418  0.2505  0.1235  0.0692
18535W        W61452  25.577   9.343  25.883  0.1134 -0.3606 -0.1478
18536W        W61453  28.978   9.426  27.198 -0.0136  0.0517  0.2265
18537W        W61454  26.854  11.461  24.202  0.2106  0.0588  0.0648
18538W        W61455  25.978   8.589  23.163 -0.0134 -0.0805  0.0688
18539W        W61456  26.697   8.876  23.608  0.1883 -0.0634 -0.0811
18540W        W61457  25.336   6.490  23.086  0.0005  0.2724  0.0801
18541W        W61458  28.022   6.531  27.311  0.2195 -0.1004  0.0558
18542W        W61459  26.614  11.494  26.935 -0.0648  0.0195  0.1447
18543W        W61460  27.958   7.407  25.922  0.2720  0.2032 -0.0846
18544W        W61461  27.790  10.426  26.305 -0.0337  0.0772 -0.1066
18545W        W61462  24.915   8.267  22.994  0.0653  0.0585  0.1664
18546W        W61463  27.762   8.190  28.073 -0.0924  0.0900 -0.1898
18547W        W61464  24.652  10.959  27.726  0.0210 -0.1285 -0.2773
18548W        W61465  24.123   8.646  26.011 -0.0180 -0.0261 -0.2209
18549W        W61466  27.642   8.754  23.841  0.3058 -0.2265 -0.1592
18550W        W61467  28.336   9.562  25.285  0.1023 -0.1125 -0.1725
18551W        W61468  27.754  10.575  24.646 -0.1489 -0.0573  0.2469
18552W        W61469  24.191   7.578  27.803  0.2841  0.1717 -0.2071
18553W        W61470  23.972   8.348  27.288 -0.0970  0.2151 -0.0966
18554W        W61471  25.459   6.922  27.650  0.2124 -0.0582  0.0737
18555W        W61472  27.863   5.914  25.236 -0.2913 -0.2155  0.0858
18556W        W61473  31.148  10.114  27.702 -0.1245  0.1386  0.1697
18557W        W61474  24.871  11.076  26.748 -0.0954 -0.1196 -0.2456
18558W        W61475  29.305   8.931  26.638 -0.1256  0.1367 -0.1397
18559W        W61476  24.772   9.649  28.137  0.3154 -0.1483  0.3107
18560W        W61477  28.411  10.856  25.303  0.0184  0.2885 -0.2138
18561W        W61478  26.467   9.273  24.462 -0.0498 -0.1805 -0.0191
18562W        W61479  30.364   7.564  27.045 -0.0744 -0.1911  0.0995
18563W        W61480  28.491   9.582  27.524 -0.1496  0.0941 -0.2147
18564W        W61481  24.914   9.016  22.646  0.1266  0.1995  0.0507
18565W        W61482  28.111   9.964  26.585  0.1466  0.1294 -0.0175
18566W        W61483  29.648  11.494  25.607 -0.0666 -0.0673 -0.0766
18567W        W61484  27.980   7.815  25.245 -0.1741 -0.0754  0.1653
18568W        W61485  26.931  10.429  25.908  0.0173 -0.2285  0.1289
18569W        W61486  26.284   7.675  27.087 -0.1425 -0.2321  0.0452
18570W        W61487  28.233  11.821  25.269 -0.0691 -0.0515  0.1452
18571W        W61488  26.964  11.099  24.602 -0.0580 -0.2007  0.2999
18572W        W61489  25.866   9.041  25.525  0.1863  0.1971 -0.0476
18573W        W61490  24.726   8.075  24.873 -0.1172 -0.0766  0.0035
18574W        W61491  23.630   4.767  26.901  0.0616 -0.0708 -0.2855
18575W        W61492  27.124   7.278  26.734  0.1262 -0.3242 -0.3619
18576W        W61493  28.501   8.615  25.895 -0.0316 -0.1062  0.0984
18577W        W61494  26.938   6.368  29.324  0.0664  0.0872  0.1277
18578W        W61495  27.218   7.245  27.297  0.2856 -0.1554 -0.3291
18579W        W61496  24.268   8.663  23.815 -0.0256 -0.0865  0.1103
18580W        W61497  29.092   9.162  24.944 -0.0836 -0.1666 -0.2493
18581W        W61498  28.972   8.022  26.260 -0.0120 -0.0851 -0.0494
18582W        W61499  27.944  10.710  23.290  0.3164 -0.0898 -0.4900
18583W        W61500  24.518   9.979  27.234  0.1724 -0.1603 -0.0054
18584W        W61501  23.675   8.428  25.877  0.3013 -0.0778 -0.3396
18585W        W61502  25.324   9.313  28.208  0.3295 -0.0279  0.0479
18586W        W61503  26.863   7.344  25.756  0.0522 -0.1561  0.3538
18587W        W61504  28.494   8.028  27.710  0.1913  0.1457  0.1725
18588W        W61505  25.155   6.118  24.672 -0.5311  0.0026 -0.1371
18589W        W61506  28.697   6.482  24.476  0.0822 -0.2571  0.1408
18590W        W61507  25.784   8.645  26.217  0.1083 -0.0184  0.2743
18591W        W61508  23.675   9.069  24.554  0.1151  0.2432 -0.1536
18592W        W61509  29.436   7.027  28.777  0.1455 -0.1636 -0.3509
18593W        W61510  28.223  10.974  23.573 -0.0879  0.1941 -0.1226
18594W        W61511  29.258   9.567  26.444  0.0129  0.0155  0.0798
18595W        W61512  28.596   9.160  24.965 -0.1456 -0.3462  0.1043
18596W        W61513  24.934   8.823  29.291 -0.0631  0.0555  0.2134
18597W        W61514  25.507   7.662  24.137  0.0221  0.2263  0.0280
18598W        W61515  26.077  11.199  24.383  0.0606 -0.3023 -0.0472
18599W        W61516  27.769   9.558  26.602  0.0968  0.1888 -0.0075
18600W        W61517  25.513   9.286  23.521  0.0003 -0.0381  0.1300
18601W        W61518  30.612   9.785  27.133 -0.1219 -0.1411  0.0010
18602W        W61519  26.698   8.803  24.477  0.0378  0.0323 -0.1886
18603W        W61520  24.585   8.161  28.799 -0.0305 -0.1864 -0.1508
18604W        W61521  28.460   5.899  28.591  0.1385 -0.2503  0.3089
18605W        W61522  26.757   8.560  25.306 -0.1542  0.1239  0.0547
18606W        W61523  27.075   8.739  25.858 -0.3467  0.3023 -0.4692
18607W        W61524  25.358   9.979  23.028 -0.2277  0.1189  0.0073
18608W        W61525  28.222   9.969  25.657 -0.0924  0.1163  0.1350
18609W        W61526  25.491  10.914  25.151 -0.0631 -0.0121  0.0084
18610W        W61527  25.261  10.247  25.783 -0.0821  0.1203 -0.2430
18611W        W61528  29.273  11.303  25.969 -0.0704 -0.1854  0.1138
18612W        W61529  27.142   8.009  25.988  0.0043  0.2156  0.2763
18613W        W61530  24.775   9.817  28.647  0.3239 -0.1226 -0.0480
18614W        W61531  26.663   8.182  28.574  0.2352  0.0895  0.0269
18615W        W61532  25.251   7.460  25.936 -0.4137 -0.0812  0.0079
18616W        W61533  25.942   9.546  26.223  0.1093  0.1707 -0.0075
18617W        W61534  25.054   8.498  27.343  0.1758  0.1902  0.1119
18618W        W61535  29.746   5.644  25.966  0.0628  0.3520  0.3674
18619W        W61536  26.276   9.722  26.577  0.2587 -0.0565  0.1408
18620W        W61537  27.596   9.466  26.124  0.3583  0.0717  0.2704
18621W        W61538  23.979   7.038  23.701  0.0610  0.0111 -0.2129
18622W        W61539  26.251   7.281  25.592 -0.0071 -0.3618  0.0394
18623W        W61540  25.456  12.655  27.687 -0.1232 -0.5029  0.0719
18624W        W61541  26.833   8.167  24.202 -0.0503  0.0138  0.2911
18625W        W61542  25.410   7.268  26.500 -0.0855 -0.3942  0.1248
18626W        W61543  27.033   6.818  25.701  0.2153  0.1759  0.3566
18627W        W61544  32.083  10.160  24.874  0.1033  0.2226 -0.0981
18628W        W61545  25.731   9.867  25.946 -0.0712 -0.0139  0.0072
18629W        W61546  28.353   7.563  28.089 -0.1888  0.4400 -0.0654
18630W        W61547  26.312   8.551  26.220 -0.1033 -0.0120  0.2909
18631W        W61548  27.604   5.396  28.086  0.0084 -0.3252  0.1020
18632W        W61549  25.770   8.974  24.939 -0.2935 -0.0930  0.1014
18633W        W61550  25.686   7.564  25.654  0.0101 -0.1798  0.0596
18634W        W61551  24.771  10.920  24.343 -0.0751  0.1908 -0.0580
18635W        W61552  27.499   7.706  28.731 -0.2193  0.2484  0.2818
18636W        W61553  26.604   7.916  25.225 -0.0956  0.0239  0.2522
18637W        W61554  24.812   8.054  27.270  0.0931  0.1973 -0.0885
18638W        W61555  26.874   9.871  26.145  0.4523 -0.3344 -0.1871
18639W        W61556  28.594   9.465  26.273 -0.2570  0.0256 -0.0663
18640W        W61557  28.336   9.338  26.690 -0.0358 -0.3195 -0.1273
18641W        W61558  25.293  10.208  26.687 -0.0670 -0.0841 -0.0906
18642W        W61559  25.517   8.565  25.396 -0.0520 -0.0404 -0.2037
18643W        W61560  25.993   8.314  27.722  0.0458  0.0860 -0.0254
18644W        W61561  25.900  10.227  25.193  0.3292  0.1970  0.3560
18645W        W61562  27.608   7.670  24.552  0.1981  0.0616 -0.0450
18646W        W61563  27.480   9.047  26.625  0.1237  0.0409 -0.1166
18647W        W61564  24.016   9.079  28.975 -0.1337 -0.2285  0.1876
18648W        W61565  25.131   8.693  24.244  0.0462 -0.5292 -0.0328
18649W        W61566  26.800   9.684  24.816 -0.2876 -0.0713  0.2551
18650W        W61567  26.695   7.776  26.186 -0.0153 -0.2114 -0.1715
18651W        W61568  27.405   7.788  26.752 -0.1506  0.3247  0.2174
18652W        W61569  28.312   9.728  22.947 -0.1127  0.0363 -0.1970
18653W        W61570  25.085  11.117  23.428  0.4136 -0.0218 -0.0833
18654W        W61571  28.335   9.634  28.010 -0.0799 -0.0901 -0.1940
18655W        W61572  26.101  11.979  23.993 -0.0374 -0.0975 -0.2579
18656W        W61573  30.614   6.238  27.548 -0.1231  0.1213  0.1021
18657W        W61574  26.696  12.176  23.298  0.1436 -0.2226 -0.2210
18658W        W61575  25.346   8.064  23.267 -0.2730  0.0269  0.0042
18659W        W61576  25.871   8.804  23.966 -0.2507 -0.0017 -0.1966
18660W        W61577  28.276   6.591  26.917 -0.2208 -0.0096  0.0280
18661W        W61578  28.967  10.971  25.229 -0.0707 -0.1642  0.2524
18662W        W61579  26.020   8.419  27.182 -0.2008  0.0466 -0.2226
18663W        W61580  25.054   8.407  26.375  0.2077  0.0479  0.2479
18664W        W61581  24.051  12.645  26.601 -0.2286 -0.2571 -0.1657
18665W        W61582  28.815  10.263  26.003 -0.1170 -0.0979  0.1516
18666W        W61583  28.323   7.075  26.254  0.1793 -0.1039 -0.2405
18667W        W61584  27.037   8.966  25.438  0.0257 -0.5445 -0.3128
18668W        W61585  25.363   8.446  27.786 -0.5306  0.0709  0.1984
18669W        W61586  26.847   7.646  27.300  0.1176 -0.0901  0.2921
18670W        W61587  27.020   8.016  28.054 -0.0594  0.1951 -0.0921
18671W        W61588  25.849   7.417  26.286  0.1352 -0.1766  0.1647
18672W        W61589  24.342  10.194  25.292  0.0509 -0.2961  0.1924
18673W        W61590  28.128   7.400  25.485  0.1186 -0.1725  0.1819
18674W        W61591  23.613   8.373  24.727  0.1448 -0.2866  0.0535
18675W        W61592  27.006   9.243  24.954 -0.0046  0.1838 -0.0990
18676W        W61593  23.924   7.597  28.729  0.1815 -0.0179  0.1481
18677W        W61594  27.872   9.114  24.827 -0.0053 -0.0631  0.1850
18678W        W61595  27.566   8.508  24.964 -0.0237 -0.0158 -0.1200
18679W        W61596  25.747   6.855  26.843 -0.2412 -0.0619 -0.2628
18680W        W61597  24.417   7.906  25.602 -0.0375  0.2691  0.3946
18681W        W61598  28.329   9.434  29.019 -0.0533 -0.0092  0.1412
18682W        W61599  26.372   8.066  26.476 -0.1073 -0.1569 -0.0300
18683W        W61600  26.525  11.653  27.399 -0.0553  0.2920 -0.2293
18684W        W61601  29.905   6.853  26.144  0.0068 -0.1920  0.4541
18685W        W61602  29.059  11.654  23.411  0.2682 -0.1905  0.0277
18686W        W61603  27.109   8.767  26.383 -0.0452 -0.1224 -0.1921
18687W        W61604  26.000   8.402  24.256 -0.0759  0.0877 -0.1123
18688W        W61605  25.562   8.242  26.457 -0.2829 -0.2075 -0.0792
18689W        W61606  25.116   7.919  26.095  0.0647 -0.0809 -0.2469
18690W        W61607  26.403   8.148  25.850 -0.0455  0.0325 -0.0983
18691W        W61608  25.356   8.785  26.290  0.0787 -0.1486 -0.0997
18692W        W61609  26.166  10.435  24.773 -0.0185  0.4491 -0.2356
18693W        W61610  25.507   8.843  25.802  0.0575  0.1746 -0.1613
18694W        W61611  27.700   7.165  24.733 -0.2005  0.0342 -0.0418
18695W        W61612  27.039   9.480  24.429  0.4907 -0.0177 -0.0325
18696W        W61613  26.100   8.278  25.273  0.1376 -0.0105 -0.5836
18697W        W61614  28.117   6.790  28.260 -0.1015  0.1254 -0.1563
18698W        W61615  26.331   9.815  23.366  0.2482 -0.1873  0.0541
18699W        W61616  29.719   7.529  28.571  0.3078 -0.1943  0.0579
18700W        W61617  27.295   6.378  28.277 -0.0042 -0.0243 -0.0192
18701W        W61618  27.491  10.245  25.761  0.3804 -0.1705  0.1987
18702W        W61619  26.601   7.747  25.690 -0.2831  0.0818 -0.1250
18703W        W61620  28.842  11.307  29.293 -0.1665 -0.1943  0.0650
18704W        W61621  25.313   9.715  28.589 -0.0676  0.0147  0.0044
18705W        W61622  27.896   7.218  28.036  0.1291  0.0882  0.2538
18706W        W61623  25.758   6.626  24.574 -0.0109  0.0502 -0.1627
18707W        W61624  24.629   9.323  25.768 -0.1357 -0.0093 -0.0638
18708W        W61625  27.846   9.979  24.714  0.1696  0.1499  0.3421
18709W        W61626  27.982   9.239  23.894 -0.1816  0.0042  0.2478
18710W        W61627  29.559   8.064  24.992  0.0098  0.2615 -0.2202
18711W        W61628  25.698   8.096  27.020 -0.1566 -0.2887  0.1760
18712W        W61629  26.992   7.129  26.211  0.0515  0.0639  0.0940
18713W        W61630  25.284   6.595  24.696  0.2002 -0.0566 -0.0902
18714W        W61631  26.392   8.228  23.942 -0.0037  0.2094  0.1927
18715W        W61632  27.155   5.533  27.912  0.0332 -0.1799 -0.3407
18716W        W61633  26.735   8.372  23.657 -0.2206 -0.0019  0.3915
18717W        W61634  26.009  10.365  25.978  0.0224 -0.2026 -0.0024
18718W        W61635  25.281   9.383  26.419  0.0941  0.0262 -0.0864
18719W        W61636  26.490   8.411  28.065 -0.0673 -0.1205 -0.2942
18720W        W61637  26.615   9.144  27.543  0.2997  0.0589 -0.2822
18721W        W61638  23.791   6.547  27.711  0.1378  0.1840 -0.0046
18722W        W61639  26.845  10.251  27.162  0.2427 -0.0363 -0.1384
18723W        W61640  29.382   7.116  23.806  0.0543 -0.0536  0.1831
18724W        W61641  29.759   8.556  26.481  0.4005 -0.1097 -0.2277
18725W        W61642  27.720   9.947  26.234 -0.1289 -0.0748  0.2120
18726W        W61643  27.483   9.100  25.147  0.0143  0.1608  0.0714
18727W        W61644  24.097   7.399  25.266  0.2022  0.0033 -0.1765
18728W        W61645  28.377   8.861  26.756 -0.0785 -0.2702 -0.4466
18729W        W61646  25.274   7.018  23.271  0.2401 -0.2096  0.0652
18730W        W61647  29.278   8.377  26.515 -0.0983  0.0206  0.0160
18731W        W61648  26.538   7.870  23.592  0.3784  0.0152  0.1837
18732W        W61649  28.243  10.907  22.755 -0.1188  0.0394  0.3744
18733W        W61650  28.365   7.815  25.532  0.1718 -0.1966  0.1105
18734W        W61651  24.434   7.207  24.463  0.0742 -0.1482  0.1263
18735W        W61652  27.763  10.443  27.419 -0.0124 -0.0617 -0.0897
18736W        W61653  24.874   7.952  26.545  0.0964 -0.3995  0.0445
18737W        W61654  25.566   9.733  24.586  0.2011 -0.1638 -0.2739
18738W        W61655  27.953  11.012  24.940 -0.1303 -0.1718  0.0763
18739W        W61656  28.589  10.069  27.752 -0.1506  0.0787 -0.1404
18740W        W61657  24.369   7.088  23.204  0.0358  0.0766  0.0289
18741W        W61658  27.916   7.767  27.731  0.0207  0.2049  0.1329
18742W        W61659  27.126  10.363  25.359 -0.0704  0.1769 -0.2293
18743W        W61660  28.548   7.349  25.742  0.2736 -0.0142 -0.1202
18744W        W61661  29.926  10.787  27.434 -0.0800  0.0157  0.2938
18745W        W61662  25.184   6.793  26.758  0.0479 -0.1525  0.0756
18746W        W61663  28.696  11.156  23.319  0.1794 -0.1459  0.1207
18747W        W61664  27.164   8.652  26.834  0.0950  0.2030  0.0840
18748W        W61665  27.409   7.397  25.998 -0.4273 -0.2477 -0.2441
18749W        W61666  28.964   8.567  26.101 -0.0728 -0.0510 -0.2329
18750W        W61667  28.103  10.393  27.851 -0.1659 -0.2633  0.1609
18751W        W61668  27.420  10.393  24.942 -0.1476 -0.0807 -0.3002
18752W        W61669  26.215   8.848  25.259  0.1006 -0.0993 -0.0507
18753W        W61670  26.929   9.875  27.727 -0.1883 -0.0176 -0.1302
18754W        W61671  29.513   9.282  27.132  0.1993 -0.0054  0.0421
18755W        W61672  26.389  11.327  24.739 -0.3149  0.2281  0.2043
18756W        W61673  25.505   8.370  30.265  0.0308 -0.1523 -0.1778
18757W        W61674  28.050   9.230  25.878  0.1009 -0.1474  0.0452
18758W        W61675  26.186   7.964  24.887 -0.0524 -0.1670  0.0960
18759W        W61676  26.947   9.458  25.355 -0.2478  0.2764 -0.2712
18760W        W61677  26.386  10.663  22.016 -0.2851  0.0854 -0.0316
18761W        W61678  25.590  10.688  27.382 -0.1254 -0.0847  0.3182
18762W        W61679  25.630  10.440  26.350  0.1490  0.0238  0.1169
18763W        W61680  26.408  11.163  26.423  0.1832  0.0653 -0.1629
18764W        W61681  30.478   7.670  24.174 -0.0556 -0.0476  0.1642
18765W        W61682  26.913   9.934  25.323 -0.3503 -0.0798 -0.0570
18766W        W61683  27.272   9.772  25.848 -0.3264 -0.1083 -0.3092
18767W        W61684  26.416   8.327  23.145  0.1660  0.0456  0.2417
18768W        W61685  24.880   9.073  24.963 -0.6840 -0.0265  0.2654
18769W        W61686  26.131  10.674  24.368 -0.0080 -0.1511  0.3270
18770W        W61687  28.569  11.260  24.373 -0.2086  0.1203 -0.0724
18771W        W61688  27.738   9.784  25.736  0.1749  0.0084 -0.4660
18772W        W61689  28.169   9.264  27.294  0.0603  0.0186 -0.0038
18773W        W61690  28.673   6.919  24.871 -0.1677  0.0086 -0.2673
18774W        W61691  28.793   9.370  25.401  0.2249  0.1988  0.0865
18775W        W61692  28.496   7.967  26.487  0.1022  0.0592 -0.4294
18776W        W61693  26.454   9.380  28.109 -0.4024  0.2160 -0.2374
18777W        W61694  27.085   6.952  27.749  0.1276  0.1398  0.1953
18778W        W61695  24.090   6.505  25.498  0.0653  0.1026  0.2395
18779W        W61696  25.546   6.392  27.658  0.2953  0.3534  0.1345
18780W        W61697  29.228   6.990  29.212 -0.0729  0.3071  0.3290
18781W        W61698  26.204   9.953  26.114  0.3090 -0.1016  0.0744
18782W        W61699  27.918   9.883  25.195 -0.2032  0.1889  0.1757
18783W        W61700  24.578   7.797  26.155 -0.1713  0.3391 -0.1948
18784W        W61701  25.929   8.208  26.134 -0.1903  0.0433 -0.3262
18785W        W61702  27.899   4.959  27.790  0.2207 -0.1924  0.1636
18786W        W61703  24.894   9.246  24.112  0.1459 -0.0646 -0.0230
18787W        W61704  28.321   7.501  26.538  0.0113  0.3419  0.0704
18788W        W61705  28.781  12.404  26.644 -0.0458 -0.0312  0.0782
18789W        W61706  25.409   9.850  26.332 -0.1580  0.0397  0.0356
18790W        W61707  26.199  10.696  26.379  0.2247 -0.1495 -0.0264
18791W        W61708  24.245   9.461  26.519 -0.2541 -0.3121  0.1193
18792W        W61709  28.936   8.391  25.099  0.2241 -0.0298 -0.1281
18793W        W61710  24.682   7.620  26.953 -0.1325  0.2785 -0.1593
18794W        W61711  30.129   8.279  26.788 -0.0085 -0.0800  0.1213
18795W        W61712  26.657   8.941  25.005 -0.1375  0.0991 -0.0535
18796W        W61713  29.013   6.900  26.274 -0.2323 -0.1247 -0.1145
18797W        W61714  25.916   7.883  26.542 -0.1330  0.0614 -0.0031
18798W        W61715  25.942   7.516  28.358 -0.0233  0.0822 -0.3362
18799W        W61716  24.581   8.532  23.417  0.1190 -0.0406 -0.0057
18800W        W61717  26.781   8.382  26.134 -0.1942 -0.3637 -0.3367
18801W        W61718  25.589   8.755  24.370 -0.1087 -0.1592  0.0347
18802W        W61719  27.230  11.627  26.516 -0.0757 -0.1495  0.0309
18803W        W61720  24.907   6.837  27.184  0.2187 -0.0355  0.0044
18804W        W61721  25.514   6.590  25.140  0.3243  0.2025 -0.0545
18805W        W61722  25.020   8.646  25.837 -0.1991 -0.2475  0.1759
18806W        W61723  26.103  10.606  25.427 -0.1343 -0.1189  0.0384
18807W        W61724  29.400  10.567  27.649  0.1479 -0.1375  0.1757
18808W        W61725  26.475   6.356  26.537 -0.3277 -0.3664 -0.0226
18809W        W61726  27.726   8.904  24.343 -0.0257 -0.1693 -0.2469
18810W        W61727  27.967   8.824  25.246  0.0388  0.1606 -0.1646
18811W        W61728  25.852  11.678  25.721  0.1924 -0.0805  0.1952
18812W        W61729  27.195   8.182  25.084  0.1031  0.1605  0.0639
18813W        W61730  29.582   9.829  27.102  0.0040  0.0202  0.0639
18814W        W61731  26.155   7.696  26.016 -0.2826  0.1484 -0.0438
18815W        W61732  28.501  10.680  25.981 -0.2452 -0.2190 -0.1051
18816W        W61733  28.668   9.708  24.831 -0.2652  0.4223  0.1236
18817W        W61734  28.285   7.874  27.154 -0.3610  0.2286 -0.0349
18818W        W61735  26.623   9.728  25.694 -0.0888  0.4284 -0.0684
18819W        W61736  27.585  12.181  25.751 -0.0952 -0.3599 -0.0190
18820W        W61737  28.485   8.840  28.479  0.1495  0.2206 -0.0020
18821W        W61738  27.656   9.469  27.118  0.2932  0.1831  0.2746
18822W        W61739  27.264  11.757  24.970  0.0386  0.0140  0.0549
18823W        W61740  28.500   6.990  29.657 -0.2736 -0.2157 -0.1394
18824W        W61741  27.262  12.276  25.142  0.3478  0.0120 -0.1211
18825W        W61742  27.477  11.381  27.683 -0.0825  0.0538  0.0023
18826W        W61743  26.362   8.130  26.961  0.1451  0.0631 -0.1479
18827W        W61744  26.140   9.982  25.593 -0.1984  0.1876 -0.0348
18828W        W61745  24.023  10.994  26.373 -0.0890  0.0566  0.0904
18829W        W61746  26.428   9.702  25.199  0.0414 -0.0427  0.1283
18830W        W61747  27.583  11.187  26.207  0.0957 -0.1884 -0.0180
18831W        W61748  25.921   8.399  24.786  0.0631 -0.4685 -0.1682
18832W        W61749  28.162  10.502  25.068 -0.0939 -0.0328 -0.2651
18833W        W61750  26.885   8.343  24.677  0.1137 -0.0803 -0.2743
18834W        W61751  28.546   6.673  26.461 -0.0474 -0.5326 -0.2226
18835W        W61752  25.431   7.521  24.618 -0.2272  0.4520  0.1029
18836W        W61753  26.722  10.910  27.877  0.1598  0.3483  0.2330
18837W        W61754  25.616   6.800  26.342  0.3694 -0.1214  0.2322
18838W        W61755  27.472  10.052  23.343 -0.1058  0.1459  0.0781
18839W        W61756  24.845   7.176  26.762 -0.0259  0.0572 -0.3220
18840W        W61757  27.590   8.798  26.063 -0.1198  0.0538 -0.0564
18841W        W61758  26.188   7.221  27.987  0.1922  0.0516  0.2594
18842W        W61759  24.998   7.047  25.678 -0.0462 -0.3168 -0.1974
18843W        W61760  25.540   6.430  26.815  0.2095 -0.1837  0.1756
18844W        W61761  28.308  11.005  24.049 -0.0312 -0.1814 -0.0492
18845W        W61762  27.153   8.609  27.325  0.0399  0.0714  0.0257
18846W        W61763  24.738   6.524  26.153  0.0423 -0.0986  0.2745
18847W        W61764  28.966   8.264  25.591  0.0064 -0.3199 -0.3397
18848W        W61765  29.468   9.483  25.105 -0.0412  0.0607  0.0870
18849W        W61766  27.880   7.647  26.796 -0.3482  0.3446  0.0433
18850W        W61767  29.312  10.405  28.500  0.0206 -0.2006 -0.0135
18851W        W61768  24.339  11.281  25.487 -0.1235 -0.1576 -0.0646
18852W        W61769  26.313   6.888  27.509 -0.1672  0.1844  0.1950
18853W        W61770  26.016   8.388  26.667  0.0174  0.1837  0.0548
18854W        W61771  24.808   6.806  23.144  0.1424  0.0544 -0.3310
18855W        W61772  26.667   8.986  26.180  0.0570  0.0976  0.0147
18856W        W61773  27.736  11.566  24.818  0.0146 -0.3213  0.1585
18857W        W61774  27.387   8.580  25.448 -0.0025 -0.1176  0.2144
18858W        W61775  28.174  11.287  26.439 -0.0876 -0.0465 -0.3700
18859W        W61776  26.511   9.715  28.440 -0.1590  0.0305  0.2152
18860W        W61777  25.782   6.017  26.666  0.3112 -0.6104  0.3057
18861W        W61778  29.973  10.493  24.347  0.2515  0.0349 -0.5629
18862W        W61779  25.756   9.140  26.465  0.0496 -0.1811 -0.0448
18863W        W61780  29.667   9.099  24.767  0.2505  0.0177  0.0672
18864W        W61781  28.975   7.563  27.243  0.0415 -0.1695 -0.1388
18865W        W61782  28.727   9.740  24.370 -0.2146 -0.0485  0.0021
18866W        W61783  23.972   7.051  25.576  0.0315  0.0755 -0.1210
18867W        W61784  26.050   9.822  28.523 -0.0130  0.1337 -0.0707
18868W        W61785  27.135   9.877  27.001 -0.2391 -0.1811 -0.0042
18869W        W61786  27.818   8.139  26.688 -0.0161 -0.2142  0.1763
18870W        W61787  27.004   7.656  23.409  0.2263 -0.0189  0.1339
18871W        W61788  27.276   9.909  24.722 -0.0131 -0.0574  0.2707
18872W        W61789  24.494   8.207  26.872  0.1983  0.0540  0.3464
18873W        W61790  26.381   7.750  24.481  0.4094  0.2046  0.2120
18874W        W61791  25.035   9.369  27.735  0.2177  0.2589 -0.1897
18875W        W61792  27.214   9.417  26.830  0.1338 -0.2926  0.2200
18876W        W61793  26.475   8.795  25.715  0.1792  0.1255 -0.0100
18877W        W61794  24.851   8.947  25.491  0.0814  0.0201 -0.0453
18878W        W61795  27.598  11.059  24.245  0.0844  0.4913  0.0270
18879W        W61796  25.219   8.732  26.947  0.0995 -0.0024  0.1664
18880W        W61797  28.156  10.602  27.163  0.1300 -0.4625  0.0238
18881W        W61798  24.117  11.501  28.928 -0.3165 -0.0257 -0.0553
18882W        W61799  28.450  11.024  24.809 -0.1372  0.2025  0.0585
18883W        W61800  25.897   8.920  27.139 -0.2846  0.1477  0.0639
18884W        W61801  25.058   9.141  26.077 -0.5390 -0.3603  0.1375
18885W        W61802  26.538  10.311  26.214 -0.0985 -0.2159  0.2836
18886W        W61803  28.084   8.147  26.243 -0.2450  0.0795  0.0953
18887W        W61804  24.508   8.437  26.335  0.0296  0.0706  0.2465
18888W        W61805  25.918   9.145  24.443 -0.0324  0.2937 -0.1223
18889W        W61806  27.349  10.299  27.170  0.3565 -0.3477 -0.1904
18890W        W61807  28.714   9.938  25.530  0.4765  0.2688  0.1086
18891W        W61808  26.489  11.035  30.191  0.0733 -0.0131  0.0055
18892W        W61809  25.220  10.131  28.828  0.2473  0.2832  0.2096
18893W        W61810  29.690   9.545  26.689 -0.1287 -0.0572 -0.3333
18894W        W61811  30.007   8.968  28.760 -0.0008  0.2122 -0.0770
18895W        W61812  25.588   8.565  30.683  0.1642  0.1847  0.0331
18896W        W61813  25.688  10.697  29.043  0.0633  0.3088 -0.0455
18897W        W61814  26.157   8.095  31.239  0.0757  0.0767  0.2307
18898W        W61815  25.837  11.489  28.627 -0.2242  0.0451  0.2016
18899W        W61816  29.660  10.345  31.313  0.1503 -0.3853 -0.0174
18900W        W61817  28.460   9.551  25.796  0.1935  0.1520  0.0885
18901W        W61818  27.734   8.913  30.807  0.2148  0.4206  0.0197
18902W        W61819  26.305  12.924   0.638 -0.4339  0.0512  0.0324
18903W        W61820  28.500   5.312  27.766  0.1426 -0.0295 -0.1789
18904W        W61821  25.782   8.981  28.687  0.2180  0.0795  0.0193
18905W        W61822  27.660   8.029   0.336  0.3158  0.1058  0.0974
18906W        W61823  23.985  11.296  27.725 -0.0373 -0.0254  0.1295
18907W        W61824  24.997   7.902  28.689  0.1520  0.1205  0.1735
18908W        W61825  27.099   8.982  27.731  0.0509  0.2219 -0.1717
18909W        W61826  26.500  10.224  28.386  0.1932 -0.4076 -0.1272
18910W        W61827  25.920   9.143  29.903  0.0323  0.0851 -0.0738
18911W        W61828  26.892   7.968  30.144  0.0755  0.0411 -0.1274
18912W        W61829  27.290  10.485  30.027  0.2292  0.0487  0.0637
18913W        W61830  26.276   9.052  28.946  0.0903  0.1270 -0.0379
18914W        W61831  23.502   8.820  29.528  0.0440  0.1455  0.2170
18915W        W61832  25.967   9.528  31.216 -0.0006  0.1136  0.0278
18916W        W61833  28.709   7.665  29.309 -0.0807  0.0956  0.0809
18917W        W61834  26.808  10.321  29.199 -0.0093  0.0658 -0.1409
18918W        W61835  26.892  11.092  30.857 -0.2575 -0.5180 -0.2049
18919W        W61836  28.001  11.757  29.419 -0.2691 -0.0251  0.2767
18920W        W61837  28.957   8.657  31.276 -0.2251 -0.1394  0.0950
18921W        W61838  24.982  10.568  26.833 -0.2409  0.2524 -0.1227
18922W        W61839  25.287  13.313  29.743  0.0745 -0.1605 -0.0042
18923W        W61840  28.235  11.168  29.119  0.0160  0.4201 -0.0080
18924W        W61841  27.620  11.162  28.148 -0.0783 -0.0638 -0.1040
18925W        W61842  27.016  11.257  29.612 -0.0347 -0.1738 -0.0665
18926W        W61843  27.107  10.805  31.261  0.0297  0.1106  0.1399
18927W        W61844  25.897   9.875  27.582  0.3051 -0.0165  0.0838
18928W        W61845  26.160  10.232   1.079 -0.3102  0.1770 -0.3444
18929W        W61846  26.128  13.307   0.899  0.2460 -0.2197 -0.0945
18930W        W61847  27.657  11.922  28.998  0.1741  0.0336 -0.2340
18931W        W61848  27.082   8.649  29.344  0.3095  0.0832 -0.1443
18932W        W61849  29.167  10.584  29.543  0.0274  0.1057 -0.0774
18933W        W61850  26.497  11.879  30.253 -0.0667 -0.1932  0.0317
18934W        W61851  25.745  11.133  29.370  0.0446 -0.1863 -0.0551
18935W        W61852  23.987  11.401  30.402 -0.2332 -0.1559 -0.1347
18936W        W61853  27.839   7.920   1.730 -0.0289 -0.0956  0.0833
18937W        W61854  25.838  12.450  28.814  0.1851  0.2303 -0.1356
18938W        W61855  28.357   9.059  25.469  0.3844  0.1437  0.2010
18939W        W61856  25.679   7.599  27.289 -0.0015  0.1247  0.2424
18940W        W61857  27.911   9.072  26.874 -0.5015 -0.3919  0.2809
18941W        W61858  27.567   7.359  29.758  0.0708 -0.4676 -0.4693
18942W        W61859  26.351  11.696  29.739  0.0188  0.2516 -0.3336
18943W        W61860  27.008   8.444  30.882 -0.0371  0.1592 -0.0143
18944W        W61861  25.222  10.566  29.115  0.1021  0.1679  0.3012
18945W        W61862  25.951   9.593  27.970  0.0043  0.0374  0.0870
18946W        W61863  27.770   9.696  28.851  0.0637 -0.0682 -0.1344
18947W        W61864  23.316  11.432  30.352  0.0397  0.0053 -0.3106
18948W        W61865  24.063   9.549  29.102 -0.2453  0.1712  0.0189
18949W        W61866  29.686  12.392  28.975  0.0686  0.0449 -0.0040
18950W        W61867  28.953  11.390  30.545  0.0026  0.2711 -0.2365
18951W        W61868  27.835  10.957  27.331 -0.1770  0.0954  0.1462
18952W        W61869  24.863   7.388  29.795 -0.0116 -0.2649 -0.0775
18953W        W61870  26.065   8.710  31.568 -0.2505 -0.1663  0.1144
18954W        W61871  26.935   7.338  30.867 -0.0711  0.2629 -0.0181
18955W        W61872  26.898   7.777  26.812 -0.0477  0.0849 -0.0102
18956W        W61873  27.440   9.461  31.039  0.0637  0.1729 -0.1050
18957W        W61874  24.139  12.540  31.489  0.0595 -0.0434 -0.3636
18958W        W61875  26.905   9.813  29.281 -0.1481 -0.2619  0.2731
18959W        W61876  25.909   8.755  30.280 -0.1048  0.1884  0.2326
18960W        W61877  28.505  10.188  30.183 -0.1337  0.2639 -0.3400
18961W        W61878  28.459  11.384  27.885  0.0080 -0.0324  0.0788
18962W        W61879  28.092   7.650  30.884  0.1231 -0.0855 -0.1339
18963W        W61880  28.360   7.744  30.139 -0.2092  0.2037  0.0785
18964W        W61881  26.514   8.729  28.487 -0.3026  0.4823 -0.0335
18965W        W61882  25.230   9.326  29.246 -0.2924 -0.1053  0.2297
18966W        W61883  27.437  11.552  29.451  0.0522 -0.1480 -0.0219
18967W        W61884  30.048   9.680  28.699  0.0550 -0.1987  0.0316
18968W        W61885  25.410  11.141  28.974 -0.3042  0.0385 -0.1711
18969W        W61886  24.472  10.007  29.936  0.1325  0.0037  0.1053
18970W        W61887  26.182   8.608  31.085 -0.1073  0.1732  0.3086
18971W        W61888  25.129  11.551  26.943  0.0068  0.1234 -0.0427
18972W        W61889  25.908  10.746  28.118  0.0376  0.1609 -0.1600
18973W        W61890  26.003  10.648  30.774 -0.2702 -0.1890  0.1185
18974W        W61891  24.360   9.664  30.548  0.0912 -0.0527 -0.1261
18975W        W61892  25.685  11.008  30.722  0.5156  0.1631  0.2037
18976W        W61893  29.075   8.097  29.317  0.1940  0.2180 -0.1267
18977W        W61894  24.745   7.593  31.145 -0.0838 -0.1209 -0.1206
18978W        W61895  29.828   6.605  31.388 -0.1055  0.1404 -0.0986
18979W        W61896  27.237  10.916  27.760 -0.0830 -0.2781  0.0705
18980W        W61897  26.715  12.651  28.709 -0.4466  0.2049  0.1999
18981W        W61898  29.339   8.503  29.491  0.1781 -0.0579  0.0374
18982W        W61899  29.052  11.383  27.875  0.1637  0.3087  0.0546
18983W        W61900  24.966  10.590  30.233  0.0247 -0.0291 -0.1903
18984W        W61901  27.528   9.967  27.454 -0.0900  0.3341  0.1751
18985W        W61902  25.221   9.304  30.453 -0.0862  0.1875 -0.3229
18986W        W61903  24.497   8.714  30.552 -0.1019 -0.1770 -0.1399
18987W        W61904  27.408   9.116  29.830  0.1198 -0.0275 -0.0510
18988W        W61905  26.201   5.955  27.440 -0.2174  0.1295 -0.0061
18989W        W61906  26.906  10.446  28.068 -0.0645  0.0250 -0.2163
18990W        W61907  23.960   6.866  27.248 -0.0092  0.2612 -0.1151
18991W        W61908  24.209   8.748  26.963 -0.2479 -0.1460  0.2025
18992W        W61909  27.494   8.520  31.072 -0.2504  0.2822  0.1226
18993W        W61910  28.793   9.761  28.927  0.1290  0.0174 -0.0806
18994W        W61911  26.910  10.762  30.464 -0.1417 -0.3148 -0.0310
18995W        W61912  26.001  11.095  28.880  0.3899 -0.0758  0.0080
18996W        W61913  24.987   8.404  29.042  0.0406 -0.2195 -0.0824
18997W        W61914  24.731  10.245  28.943  0.1948 -0.0997  0.3492
18998W        W61915  26.196  10.919  27.740 -0.1237 -0.0502 -0.1295
18999W        W61916  27.767  11.562  26.691  0.0343  0.0583  0.0990
19000W        W61917  27.622   7.209  26.904 -0.1125  0.0976  0.0675
19001W        W61918  26.972  10.962  28.719  0.0915 -0.0291 -0.1673
19002W        W61919  26.971  10.960  29.985 -0.2850  0.2502  0.3218
19003W        W61920  25.196  10.248  30.573 -0.1865  0.1567  0.0208
19004W        W61921  28.447   8.138  29.442  0.0157  0.1493  0.1905
19005W        W61922  28.463   9.032  30.404  0.1510 -0.4527 -0.1692
19006W        W61923  25.735   9.221  30.433  0.1964 -0.2044 -0.0242
19007W        W61924  26.594   7.730  28.874 -0.3374 -0.2642  0.0137
19008W        W61925  25.576  11.997  29.773  0.1121  0.2144 -0.1750
19009W        W61926  26.053   9.794  27.095  0.0053 -0.0375 -0.0974
19010W        W61927  23.580  10.372  30.893  0.2452 -0.0547  0.0193
19011W        W61928  25.829  10.492  29.531 -0.1118 -0.0843  0.2910
19012W        W61929  28.251   8.823  30.874 -0.0833 -0.0555 -0.1193
19013W        W61930  25.308  10.040  31.028 -0.0410 -0.2523  0.1843
19014W        W61931  26.944   8.513  28.856 -0.0621 -0.0630  0.2182
19015W        W61932  26.985   7.739  28.556  0.0614  0.0203 -0.0236
19016W        W61933  24.660  11.635   0.967  0.0528 -0.2717 -0.0040
19017W        W61934  28.176   7.797  29.238  0.0972  0.0339 -0.1066
19018W        W61935  28.866   9.659  28.027  0.2186  0.1579 -0.0578
19019W        W61936  26.342   9.981   0.513 -0.0075 -0.2113  0.1325
19020W        W61937  27.858  10.772  28.965  0.0233  0.0377  0.0440
19021W        W61938  26.901   9.282  25.827 -0.1879  0.2830  0.1586
19022W        W61939  25.629   8.687  26.710  0.1448  0.3049 -0.1546
19023W        W61940  24.655  10.513  30.662 -0.2472 -0.0092  0.3621
19024W        W61941  29.296  10.019  28.842 -0.0251  0.3021  0.2808
19025W        W61942  27.043  11.232  30.403  0.2135  0.2103 -0.0608
19026W        W61943  28.508   7.091  28.003  0.2014  0.2638 -0.0124
19027W        W61944  26.946   9.901  28.266  0.0153 -0.0654 -0.1841
19028W        W61945  24.525  11.980  29.765 -0.1134  0.6923  0.0626
19029W        W61946  28.419  10.691  30.998  0.2099  0.3495 -0.1298
19030W        W61947  25.323   9.713  29.595  0.0628 -0.2851 -0.2900
19031W        W61948  25.785   8.050  30.774 -0.1494 -0.1799 -0.2354
19032W        W61949  25.279   8.958  27.857  0.1517  0.1628 -0.0743
19033W        W61950  26.326   7.740  30.092 -0.1976 -0.4436 -0.0540
19034W        W61951  25.753   9.573  26.735  0.3240  0.0308 -0.0209
19035W        W61952  29.766   7.459  29.177  0.3118 -0.0634  0.0879
19036W        W61953  27.572   7.988  29.600 -0.1850 -0.0237  0.3063
19037W        W61954  25.700   8.760   0.842  0.1432  0.0109 -0.0784
19038W        W61955  31.615   9.238  31.192  0.0737 -0.1484 -0.1713
19039W        W61956  28.604   9.167  27.792  0.1032  0.1730 -0.1806
19040W        W61957  24.707   9.851  31.733 -0.0109 -0.0688 -0.0101
19041W        W61958  25.582   8.001  27.744  0.2240  0.0882 -0.0127
19042W        W61959  26.112   8.456  30.611 -0.1933 -0.2098 -0.0483
19043W        W61960  24.106   9.382  30.858  0.0940 -0.1613  0.3135
19044W        W61961  25.205  11.459  27.409  0.0505 -0.0080  0.3980
19045W        W61962  25.171  11.720  31.555 -0.1839 -0.1553  0.1029
19046W        W61963  28.089  10.411  28.731 -0.0319  0.0070 -0.1363
19047W        W61964  27.140   8.553  30.090  0.1665  0.3685  0.0704
19048W        W61965  26.188   7.959  28.638 -0.0500  0.2777 -0.0718
19049W        W61966  27.123  11.343  28.972  0.1565 -0.0954  0.0851
19050W        W61967  27.427  10.224  26.677  0.2650 -0.1533 -0.0307
19051W        W61968  26.209   7.533  29.642  0.2291 -0.0218  0.2399
19052W        W61969  26.599  11.982  31.334 -0.0205  0.0527  0.0839
19053W        W61970  26.238  11.676  26.436 -0.0535 -0.1457 -0.1639
19054W        W61971  28.634   8.623  29.369  0.3242  0.4495  0.1806
19055W        W61972  24.782   9.984  27.810  0.0175 -0.1608  0.0983
19056W        W61973  28.928   6.817  31.638  0.1106  0.2624  0.0480
19057W        W61974  25.543  12.005  28.517 -0.1614 -0.2356  0.2272
19058W        W61975  25.300   8.422  28.617  0.0528  0.0791  0.1127
19059W        W61976  27.368   9.241  28.107 -0.2280 -0.0053 -0.3502
19060W        W61977  31.810   8.165  31.388 -0.1242 -0.0870  0.0771
19061W        W61978  27.648   9.195  28.642 -0.2140 -0.1903  0.3660
19062W        W61979  24.921   7.636  28.265 -0.2995 -0.1239  0.1382
19063W        W61980  27.309  10.127  29.221 -0.1183  0.0661  0.1624
19064W        W61981  25.413  10.983  28.002  0.0297 -0.1077 -0.1504
19065W        W61982  24.878   8.881  30.930  0.0969 -0.1619  0.0088
19066W        W61983  29.874   9.051  27.381  0.1662  0.4175 -0.3515
19067W        W61984  28.162   9.823  29.842  0.0586 -0.1133  0.1801
19068W        W61985  26.294  11.095  31.534  0.1102  0.0542 -0.0773
19069W        W61986  24.435   9.090  28.292  0.1116  0.1136  0.0633
19070W        W61987  27.376   7.847  31.623 -0.3000 -0.0399 -0.3672
19071W        W61988  26.255   8.843  29.718  0.6545  0.0511  0.0346
19072W        W61989  24.337  10.061  29.352 -0.4584  0.1266  0.1699
19073W        W61990  24.947  10.247  28.449  0.0401 -0.0707 -0.0179
19074W        W61991  26.943   8.492  28.253  0.0557 -0.4686  0.2399
19075W        W61992  26.943  11.395  27.798  0.0221 -0.0591  0.3088
19076W        W61993  26.589   8.841  31.624 -0.3430 -0.2750 -0.0144
19077W        W61994  28.827  10.953  30.308  0.0831 -0.1368 -0.1145
19078W        W61995  27.201   8.086  31.209 -0.3347 -0.2834  0.1439
19079W        W61996  26.054   8.698  28.028  0.0301  0.0776 -0.3172
19080W        W61997  25.666  10.007  29.787  0.1193  0.0623 -0.3236
19081W        W61998  27.810   8.420  29.420 -0.2097  0.4303  0.2005
19082W        W61999  24.299   9.064   0.364 -0.4819  0.1704 -0.1243
19083W        W62000  25.422  11.614   0.503  0.1859 -0.0062 -0.1802
19084W        W62001  27.900   8.334  29.983  0.0868  0.2409  0.0859
19085W        W62002  29.551  10.761  28.069 -0.0784  0.2730 -0.0549
19086W        W62003  25.780  10.445  30.078 -0.0635  0.3117  0.0050
19087W        W62004  24.968  10.993  29.261  0.0450  0.1705 -0.1916
19088W        W62005  24.505  11.174  29.091 -0.1631 -0.1083  0.1039
19089W        W62006  27.516  10.738  25.926 -0.1313  0.0205  0.2129
19090W        W62007  27.698  10.146  30.694  0.2076  0.1883  0.0335
19091W        W62008  25.457  10.602  30.931  0.2709  0.0314  0.0627
19092W        W62009  25.041   9.804  29.187  0.0388 -0.2264 -0.3202
19093W        W62010  25.935   9.629   0.564  0.0631 -0.0108  0.4844
19094W        W62011  27.064   8.052  28.965 -0.0426  0.2339  0.4655
19095W        W62012  27.657  10.614  26.919  0.0204  0.0944  0.0147
19096W        W62013  28.678   8.471  28.870  0.0353  0.0931 -0.1416
19097W        W62014  30.520   8.816  31.022 -0.1567  0.0370  0.0148
19098W        W62015  27.768   8.892  27.354 -0.0392  0.2865  0.0709
19099W        W62016  28.215   8.064  31.145 -0.0971  0.3148  0.2045
19100W        W62017  25.105   7.871  31.462 -0.3839  0.1607  0.2704
19101W        W62018  26.410  10.526  28.036 -0.0343  0.1812  0.0006
19102W        W62019  24.766  10.043  30.382 -0.0485 -0.1022  0.0893
19103W        W62020  29.172  11.927   0.373 -0.0763 -0.1248 -0.4012
19104W        W62021  22.729   9.870  29.615 -0.1017  0.0701  0.1054
19105W        W62022  28.655   9.372  28.400  0.2927 -0.3953  0.0906
19106W        W62023  26.957   6.796  28.658 -0.2334 -0.0801  0.0113
19107W        W62024  26.103  10.700  31.270  0.2761  0.2359  0.3264
19108W        W62025  26.713  10.167  29.679  0.1881 -0.2096  0.2336
19109W        W62026  26.099   8.423  28.411 -0.2695  0.1156  0.0672
19110W        W62027  26.230  10.445  30.353  0.1281 -0.2030 -0.0023
19111W        W62028  25.271  10.047  28.124  0.2684  0.0249  0.1536
19112W        W62029  27.423   7.367  28.100 -0.1670 -0.0594  0.0077
19113W        W62030  27.669   8.535  27.021 -0.0753 -0.0557  0.2107
19114W        W62031  26.690  10.457  30.086 -0.2955  0.1007 -0.1953
19115W        W62032  26.560   8.633  30.753 -0.2411 -0.1128 -0.0661
19116W        W62033  26.576   8.752  29.251 -0.2405  0.3106 -0.1805
19117W        W62034  29.556   7.142  29.627  0.5299 -0.1669 -0.1637
19118W        W62035  28.087   8.979  28.790  0.0435 -0.1021 -0.0429
19119W        W62036  27.771   9.682  31.379 -0.3061 -0.0613 -0.4893
19120W        W62037  25.805  11.183  31.717 -0.1605  0.0777 -0.1746
19121W        W62038  23.971   9.419   0.022 -0.1122 -0.1436 -0.0549
19122W        W62039  27.925  11.357  30.820 -0.1164 -0.0468  0.1233
19123W        W62040  28.798   8.015  27.274 -0.1520 -0.2445 -0.3385
19124W        W62041  27.476   8.487  29.759  0.0516  0.0856  0.2535
19125W        W62042  27.398  10.041  28.740 -0.2563  0.0100  0.0506
19126W        W62043  27.315  10.334  27.701  0.0471  0.1351  0.1179
19127W        W62044  25.187   8.284  29.528  0.1890 -0.1288  0.1071
19128W        W62045  26.585  10.330  31.439 -0.2282  0.1853  0.0060
19129W        W62046  24.878   8.994  28.194  0.0810 -0.2604 -0.0035
19130W        W62047  28.313   7.263  28.440  0.3274  0.1835  0.0178
19131W        W62048  26.767   9.790  27.319 -0.0433  0.0491 -0.2974
19132W        W62049  28.296  10.404  29.162 -0.3135  0.2376 -0.2127
19133W        W62050  26.997   9.471  28.527  0.1980 -0.1020 -0.0028
19134W        W62051  24.682   9.199  30.509  0.2231  0.2647 -0.0193
19135W        W62052  26.264  10.943  29.374  0.1061  0.2658 -0.1418
19136W        W62053  25.164   7.769  30.049 -0.0917  0.0951 -0.0738
19137W        W62054  24.485   7.429  27.429 -0.5062 -0.1117  0.0842
19138W        W62055  27.798   8.103  28.640  0.0919  0.1197 -0.1548
19139W        W62056  26.974   9.433  30.936 -0.1113  0.0369  0.2683
19140W        W62057  28.744   9.610  30.504  0.0139 -0.2042 -0.2688
19141W        W62058  28.523   7.231  31.084  0.2048  0.0674 -0.1328
19142W        W62059  26.454  10.705  25.855 -0.1928  0.1519 -0.0446
19143W        W62060  26.574   7.975  29.656 -0.4738  0.2451 -0.4796
19144W        W62061  25.877  13.944  30.807  0.2178  0.0450  0.1912
19145W        W62062  24.138  11.533  31.515 -0.0242 -0.2433 -0.1523
19146W        W62063  24.852  10.310  29.402 -0.0620 -0.0262  0.0361
19147W        W62064  26.190  10.125  29.744  0.0055  0.1353 -0.2498
19148W        W62065  28.556   8.951  28.987  0.1619 -0.0199 -0.0844
19149W        W62066  28.148   8.719  29.202  0.3128 -0.1468  0.1597
19150W        W62067  28.315   9.734  31.814 -0.2113  0.0107  0.2828
19151W        W62068  27.129  10.535  29.511 -0.0935  0.0805  0.0301
19152W        W62069  26.660   9.288  29.294 -0.0036  0.1441 -0.0025
19153W        W62070  26.646  10.298  30.594  0.0447  0.3768  0.1887
19154W        W62071  28.134  10.882  28.039 -0.2492 -0.3345 -0.2286
19155W        W62072  26.197   9.280  29.449  0.1769  0.1094 -0.0820
19156W        W62073  22.491   9.128   0.075  0.2305  0.2061 -0.1039
19157W        W62074  25.520   9.485   0.847 -0.2116  0.0583 -0.2362
19158W        W62075  26.840   8.365  30.409 -0.1722 -0.4348  0.1447
19159W        W62076  28.030   7.920  29.773 -0.0525 -0.0500  0.2428
19160W        W62077  26.958  10.706  27.342  0.0770  0.0850  0.1452
19161W        W62078  25.502   9.806  31.463 -0.3451  0.2209  0.0434
19162W        W62079  24.830  11.311  28.774 -0.2014 -0.0313  0.0451
19163W        W62080  24.025  10.871  29.682 -0.1136 -0.1086  0.1559
19164W        W62081  27.710   8.648  27.844 -0.1366 -0.1768  0.0416
19165W        W62082  26.778   9.674  26.693  0.0645  0.1085  0.1026
19166W        W62083  27.210   9.776  30.551 -0.2137  0.3205  0.4040
19167W        W62084  25.323   7.947  27.340 -0.1437  0.1066 -0.1084
19168W        W62085  26.141  10.638  28.604  0.1859  0.2091  0.1565
19169W        W62086  24.183  10.283  27.392 -0.2226 -0.1203  0.2060
19170W        W62087  27.800   8.634  28.354 -0.0635  0.3027 -0.3680
19171W        W62088  25.318   9.244  28.744 -0.2854  0.1996 -0.0874
19172W        W62089  27.520  12.346  31.704 -0.3430  0.2263  0.1813
19173W        W62090  28.873   7.909  28.022  0.0521 -0.1175  0.0860
19174W        W62091  26.472  10.002  27.944 -0.2981  0.2831 -0.3929
19175W        W62092  27.531   9.251  27.587 -0.0470 -0.0675  0.1127
19176W        W62093  26.771  10.570  31.819  0.0661  0.0969 -0.4891
19177W        W62094  25.529   9.777  29.089 -0.0457 -0.1379  0.3473
19178W        W62095  25.590   8.456  28.168 -0.1348 -0.0132  0.2280
19179W        W62096  26.327   9.702   0.063 -0.0298  0.1860  0.1810
19180W        W62097  28.298  10.459  29.809 -0.1638  0.2415  0.0388
19181W        W62098  25.555  10.450  31.399 -0.0506 -0.2171  0.2893
19182W        W62099  27.365   9.715  27.845  0.1343 -0.1210 -0.0875
19183W        W62100  25.935   9.911  29.332  0.0446 -0.0985 -0.0384
19184W        W62101  27.382   7.709  29.243  0.0687 -0.1348  0.1749
19185W        W62102  28.085   6.866  31.138 -0.1678  0.0708 -0.0857
19186W        W62103  25.710   9.424  28.493 -0.0637 -0.2241 -0.2336
19187W        W62104  27.338  10.674  28.197 -0.0789 -0.1890  0.0216
19188W        W62105  26.214  11.472  30.263  0.2221 -0.1031 -0.0406
19189W        W62106  24.927   9.766  26.468  0.0332 -0.0768 -0.2583
19190W        W62107  24.465  11.000  29.599 -0.3186 -0.3277 -0.0225
19191W        W62108  24.640   7.779  27.814 -0.0006 -0.0391  0.1040
19192W        W62109  28.729   6.683  29.116  0.0439  0.1300  0.2003
19193W        W62110  24.434   8.095  31.411  0.0813  0.0056  0.0416
19194W        W62111  28.579   6.361   0.975  0.1932  0.2595 -0.2058
19195W        W62112  27.466   9.679  28.378 -0.1397 -0.1829  0.1999
19196W        W62113  27.797   8.548  28.847  0.4207 -0.0567 -0.3486
19197W        W62114  27.515   8.020  30.068  0.2754 -0.1582  0.1205
19198W        W62115  24.168  10.706  30.625 -0.0728 -0.0446  0.1011
19199W        W62116  27.777  10.447  28.195 -0.3008  0.0307 -0.0523
19200W        W62117  26.718   9.652  30.523 -0.2544 -0.1578  0.0458
19201W        W62118  27.808   9.309  29.130 -0.2217  0.1493 -0.0124
19202W        W62119  28.497  11.657  31.367 -0.2526 -0.0188  0.3219
19203W        W62120  26.907   9.041  28.284 -0.1609 -0.0573 -0.1720
19204W        W62121  25.799   7.584  27.780  0.0450 -0.1370  0.1408
19205W        W62122  26.599  10.677  29.609  0.0944  0.0153  0.2996
19206W        W62123  25.637   7.854  30.269  0.1094  0.2393 -0.3546
19207W        W62124  25.004  11.899   0.074 -0.0542 -0.5393 -0.1662
19208W        W62125  26.602   7.545  29.344 -0.1232 -0.2011 -0.0335
19209W        W62126  27.506  10.512  28.617 -0.0550 -0.0539 -0.2847
19210W        W62127  29.197   6.744   0.043  0.1284 -0.0836  0.2279
19211W        W62128  26.684  10.414  27.632 -0.1650  0.0197 -0.0363
19212W        W62129  27.796   9.482  28.057  0.2380  0.0278 -0.1293
19213W        W62130  28.143  11.636  29.941 -0.2052  0.1459  0.1743
19214W        W62131  24.996   7.708  30.727 -0.0746 -0.1370 -0.0149
19215W        W62132  28.573  12.691  30.555  0.1580  0.1903 -0.1802
19216W        W62133  28.656  10.524  30.556  0.1368  0.0910 -0.0592
19217W        W62134  27.570   7.245  28.956  0.0540  0.0386  0.0672
19218W        W62135  24.944   9.685  30.681  0.2608  0.0618  0.1127
19219W        W62136  26.143   9.197  27.704  0.0541  0.1206  0.0017
19220W        W62137  29.094   8.506  30.772 -0.1570  0.0782 -0.1172
19221W        W62138  26.222   9.521  30.283 -0.1472 -0.2443  0.1827
19222W        W62139  26.431  11.378  27.918 -0.3479 -0.1664 -0.1924
19223W        W62140  29.033   7.105  31.034 -0.4575 -0.0796  0.0888
19224W        W62141  26.186  12.578  31.468  0.1241  0.0261 -0.0473
19225W        W62142  26.201  11.268   0.015 -0.0743  0.0446  0.2356
19226W        W62143  25.745   9.138  28.132 -0.2705  0.2199 -0.1627
19227W        W62144  27.046   9.193  30.142  0.1718 -0.0631  0.4322
19228W        W62145  24.805   9.677  29.642  0.2488  0.1030  0.1106
19229W        W62146  25.347  12.849  29.501  0.2027  0.1556 -0.0692
19230W        W62147  27.459  12.278  30.578  0.3238  0.1578  0.0252
19231W        W62148  24.916   9.352  26.822 -0.2587  0.1569 -0.4908
19232W        W62149  29.431  10.259  29.230 -0.1991  0.2069 -0.3109
19233W        W62150  26.621  10.666  28.896  0.1459  0.1967  0.1552
19234W        W62151  26.809   9.038  28.868  0.0796 -0.0445  0.1290
19235W        W62152  28.224   9.171  29.405  0.2187 -0.1407 -0.0123
19236W        W62153  26.246   8.403  29.387 -0.4608  0.1986 -0.1833
19237W        W62154  26.710   8.266  29.236 -0.4005  0.2348 -0.0559
19238W        W62155  26.252  10.910  26.818 -0.2711  0.1815 -0.2264
19239W        W62156  26.477  10.041  28.866 -0.0718  0.1725  0.1939
19240W        W62157  27.829   6.881  30.663  0.3266 -0.0386  0.1707
19241W        W62158  26.292   9.048  30.404  0.1683  0.1714  0.0774
19242W        W62159  26.337  10.383  29.316  0.0778 -0.3030  0.1529
19243W        W62160  27.517   8.250  27.426  0.2653  0.0197 -0.2026
19244W        W62161  27.807  10.191  29.026  0.0080  0.1268 -0.0328
19245W        W62162  26.025   7.959  27.373  0.0027  0.1435 -0.2330
19246W        W62163  25.353  10.876  29.470 -0.2464  0.0614 -0.0491
19247W        W62164  26.073  10.494  27.161  0.0984  0.1352 -0.4368
19248W        W62165  26.883   8.915  29.676  0.3618 -0.1868  0.1572
19249W        W62166  26.027   9.544  29.018 -0.7673  0.0986 -0.0477
19250W        W62167  28.760  11.856  30.482 -0.1659  0.1232  0.1153
19251W        W62168  24.759   9.267  29.424  0.3524 -0.0682  0.1477
19252W        W62169  26.727   9.962  31.016  0.1146 -0.0723 -0.0374
19253W        W62170  28.186   8.258  29.044  0.1965  0.2770 -0.1987
19254W        W62171  24.797   8.889  27.557  0.0594  0.1093 -0.0216
19255W        W62172  27.283   8.713  30.595  0.2270 -0.1663  0.3529
19256W        W62173  28.183  10.458  26.672  0.1584 -0.2432 -0.0526
19257W        W62174  28.569  10.701  27.826  0.0954  0.1281  0.0301
19258W        W62175  25.511   9.340  31.523  0.0408  0.0148 -0.1649
19259W        W62176  26.971  12.387   0.400 -0.2518 -0.0640 -0.0854
19260W        W62177  26.292   7.213  31.399 -0.0675  0.1444 -0.0791
19261W        W62178  30.438   7.966  30.824  0.0657 -0.0693  0.3277
19262W        W62179  24.953   9.849  31.291 -0.2550 -0.1033 -0.1657
19263W        W62180  26.394   9.152  26.580 -0.0452 -0.1563 -0.3467
19264W        W62181  29.704   6.146  29.566  0.1735 -0.1841 -0.0329
19265W        W62182  27.139   9.501  27.403  0.0709 -0.0802 -0.2581
19266W        W62183  23.195   7.564  31.488 -0.1854 -0.1638  0.0463
19267W        W62184  25.587   7.216  28.555  0.0956  0.0790  0.1444
19268W        W62185  28.895   9.379  30.088  0.0673  0.1015  0.1730
19269W        W62186  27.752   8.021  29.144  0.0738 -0.0585  0.0015
19270W        W62187  27.426   7.873  28.297  0.0438 -0.2005 -0.1426
19271W        W62188  27.950  11.280  27.818 -0.0289  0.3819  0.1998
19272W        W62189  25.707  10.230  30.602  0.2549  0.2232  0.1621
19273W        W62190  25.117   9.619  30.059  0.1401  0.3346  0.2341
19274W        W62191  27.681   9.868  29.864  0.0426 -0.0145 -0.3087
19275W        W62192  26.601   9.492  28.857  0.3165  0.2496 -0.1383
19276W        W62193  27.095  13.174   0.851  0.3649 -0.1665  0.2685
19277W        W62194  25.700   8.301  29.357  0.0288  0.0951 -0.1322
19278W        W62195  29.244   8.033  30.013 -0.0713 -0.0236 -0.0531
19279W        W62196  25.901  10.146   0.641 -0.0078 -0.0287 -0.1660
19280W        W62197  27.538  11.538  28.643 -0.1192  0.0025 -0.1811
19281W        W62198  26.552  11.154  29.703 -0.0432 -0.1143  0.3354
19282W        W62199  26.192  11.178  30.725 -0.0605 -0.0285  0.1900
19283W        W62200  24.715   6.874  30.042  0.3219 -0.1281  0.0657
19284W        W62201  24.576   9.188  28.947 -0.3317  0.1078  0.4852
19285W        W62202  26.952   9.896  28.818  0.2077 -0.0981  0.1033
19286W        W62203  28.260   7.213  29.223  0.0366 -0.1057 -0.2122
19287W        W62204  24.561   8.199   0.612 -0.4770 -0.0373 -0.0025
19288W        W62205  28.138   9.518  28.542 -0.2378 -0.0112  0.0006
19289W        W62206  26.666  11.756   0.200  0.2204  0.2956 -0.0908
19290W        W62207  26.115  11.161  28.375  0.0752 -0.0843  0.0332
19291W        W62208  28.182  11.203   0.289 -0.2190 -0.0106 -0.0654
19292W        W62209  26.650  11.483  30.639  0.0917 -0.0668 -0.1801
19293W        W62210  24.119  10.046  31.026 -0.0390 -0.0993 -0.0579
19294W        W62211  26.069  11.645   0.811 -0.1537 -0.2701  0.1798
19295W        W62212  26.122  10.303  31.603 -0.4957  0.1541  0.0086
19296W        W62213  23.143  11.693   0.329 -0.2640 -0.0091  0.0982
19297W        W62214  27.914  10.705   0.755 -0.1714 -0.2178 -0.0004
19298W        W62215  25.194   8.962  31.405 -0.4211  0.3004 -0.0254
19299W        W62216  28.300   8.806   0.281 -0.4225  0.3024  0.3983
19300W        W62217  27.773  10.061   1.485  0.0495 -0.1006  0.2165
19301W        W62218  25.528  10.374   1.832 -0.0078  0.3415  0.1654
19302W        W62219  25.079   7.887   0.074  0.1594 -0.0566  0.1117
19303W        W62220  26.856  10.894  29.226  0.0694  0.1681 -0.2818
19304W        W62221  23.787  10.311  30.375  0.0417  0.2301 -0.0177
19305W        W62222  27.266   9.627  30.060  0.1315  0.2919 -0.3423
19306W        W62223  25.100  10.794  30.668 -0.0877  0.0215  0.1985
19307W        W62224  23.679   8.089   1.176  0.0214  0.1155  0.2039
19308W        W62225  27.294  10.532   0.491 -0.0114  0.3401  0.1647
19309W        W62226  25.450   9.730  30.531  0.1418  0.0674 -0.0029
19310W        W62227  26.856   8.075  31.625 -0.1116  0.1886  0.1618
19311W        W62228  27.096   6.632  30.044 -0.0442  0.5252  0.2280
19312W        W62229  26.461  11.389  31.146  0.0619 -0.1752 -0.1643
19313W        W62230  29.367   9.991  31.132 -0.2190 -0.1664  0.1698
19314W        W62231  29.175   9.721  31.460  0.0477  0.2658 -0.0507
19315W        W62232  25.952   8.218  30.176  0.0485 -0.1152  0.1931
19316W        W62233  27.744   8.940  30.261 -0.0509  0.2755  0.1953
19317W        W62234  26.496   9.475  31.047 -0.0959 -0.0732  0.0021
19318W        W62235  25.177  10.673  31.581  0.0961 -0.0789 -0.0157
19319W        W62236  23.098   7.645   0.065  0.2142 -0.1669 -0.2000
19320W        W62237  25.701  11.488  30.661  0.0434  0.0342  0.1134
19321W        W62238  24.690  10.080  30.907 -0.0154 -0.0188  0.0897
19322W        W62239  25.973  10.947  30.287  0.1421 -0.1011  0.2087
19323W        W62240  27.586  10.863   1.040  0.2559 -0.3132  0.2658
19324W        W62241  25.919   8.370  31.958 -0.1846 -0.2414  0.1625
19325W        W62242  22.630  10.106   1.911 -0.1262  0.0752 -0.0575
19326W        W62243  25.994  10.100   0.153  0.1277 -0.2563  0.2169
19327W        W62244  24.029   8.718   0.958 -0.1444  0.0104  0.3637
19328W        W62245  28.313  12.477  30.975  0.1450 -0.1292  0.3658
19329W        W62246  29.144  10.927   0.113  0.1764 -0.1673  0.1382
19330W        W62247  27.564  10.535  30.446 -0.0672 -0.2198 -0.3832
19331W        W62248  28.764   9.458  31.529  0.0333  0.1548  0.2739
19332W        W62249  28.542   7.683  31.254  0.0549 -0.1773  0.2170
19333W        W62250  27.797   9.676  30.730 -0.2555  0.2138  0.3625
19334W        W62251  27.189  12.069  31.921  0.1535  0.1014 -0.1594
19335W        W62252  24.881   8.274  31.735 -0.1386  0.0550 -0.2772
19336W        W62253  25.826   9.640   0.086  0.0976  0.1166  0.0846
19337W        W62254  26.751   7.467  29.931 -0.0020  0.1148 -0.1895
19338W        W62255  25.198  11.232   0.286  0.1446  0.0280  0.1493
19339W        W62256  26.846  10.484  31.010  0.1465  0.1456  0.0165
19340W        W62257  24.461  10.360   0.915  0.0275 -0.2992 -0.4720
19341W        W62258  28.001  12.951   0.227  0.2555  0.0590  0.3793
19342W        W62259  28.522  10.026   0.192  0.5379  0.3905  0.2282
19343W        W62260  27.036   7.763  29.662 -0.0813 -0.0323  0.0659
19344W        W62261  26.624  10.912  31.225  0.3459  0.1847 -0.2251
19345W        W62262  25.928   8.918  30.794 -0.0907  0.0966 -0.1499
19346W        W62263  28.407   9.825  31.301  0.0845  0.0306 -0.0666
19347W        W62264  27.403  10.460  30.960 -0.2121 -0.1867 -0.3674
19348W        W62265  26.287   9.816   2.030  0.1458  0.0913 -0.0977
19349W        W62266  27.725  11.178   0.614  0.0005 -0.1794  0.1014
19350W        W62267  24.133   8.238   0.946 -0.2522  0.1697 -0.1984
19351W        W62268  26.417  11.421   0.456  0.0621  0.1982 -0.1277
19352W        W62269  25.408  11.497  29.680 -0.3025  0.1962 -0.0415
19353W        W62270  23.463  10.197  31.813 -0.0826 -0.2626 -0.0233
19354W        W62271  26.147   7.427  30.505  0.0608  0.0342  0.2686
19355W        W62272  27.114   9.181   1.069  0.0325  0.0582  0.1158
19356W        W62273  28.735  10.326  29.470  0.0330  0.0037 -0.0688
19357W        W62274  27.870  10.947  31.497  0.2579 -0.4169 -0.0118
19358W        W62275  26.673  13.032  19.000 -0.2843  0.0174  0.2243
19359W        W62276  27.369  11.164  16.632  0.0175  0.0480  0.4554
19360W        W62277  28.632  12.949  17.555 -0.3198  0.2059 -0.1483
19361W        W62278  28.912  11.703  18.306 -0.0741 -0.1170  0.0384
19362W        W62279  24.073  10.872  18.909  0.1022  0.0610 -0.1914
19363W        W62280  26.825  13.869  19.159  0.0750  0.0168  0.0982
19364W        W62281  26.875  10.145  18.122  0.2349 -0.3103 -0.0817
19365W        W62282  29.180  14.549  21.837  0.2176 -0.0988 -0.1224
19366W        W62283  28.562  16.381  18.872  0.1002  0.2499 -0.0459
19367W        W62284  26.640  11.619  16.867 -0.4423 -0.0533 -0.2675
19368W        W62285  25.874   9.772  18.262 -0.0474  0.2589 -0.0367
19369W        W62286  24.940  13.734  20.347  0.1935 -0.2154 -0.1330
19370W        W62287  26.922  10.292  17.199 -0.3721  0.1261 -0.0596
19371W        W62288  27.359  10.017  18.867  0.0068  0.0141  0.0818
19372W        W62289  27.922  12.048  20.362  0.1718 -0.4056 -0.3207
19373W        W62290  26.063  12.431  19.447  0.2188 -0.0373  0.0834
19374W        W62291  27.698  11.679  20.136  0.1345 -0.1331  0.2118
19375W        W62292  27.518  11.026  19.567 -0.2958 -0.1122 -0.0120
19376W        W62293  28.018  14.205  19.267  0.3194  0.1145  0.0242
19377W        W62294  27.155  10.865  19.264 -0.2812 -0.5887 -0.0041
19378W        W62295  27.676  11.590  19.623 -0.2475  0.2052 -0.0699
19379W        W62296  26.981  11.542  18.695  0.0658 -0.1849 -0.0812
19380W        W62297  26.365  11.158  16.628  0.1388  0.0342 -0.0204
19381W        W62298  26.158  10.961  20.013 -0.2213 -0.2327 -0.1646
19382W        W62299  27.260  13.837  20.102  0.0197  0.0690  0.0286
19383W        W62300  29.264  11.332  18.024  0.0819 -0.0340  0.1250
19384W        W62301  26.974  13.656  17.149 -0.1468 -0.1643  0.0086
19385W        W62302  26.993  17.110  18.909  0.1734  0.0406 -0.0941
19386W        W62303  27.075  12.327  18.084 -0.0511 -0.2568  0.0573
19387W        W62304  27.934  14.007  22.772 -0.5395 -0.0956  0.2680
19388W        W62305  25.617  11.413  18.874  0.0794  0.0070  0.2375
19389W        W62306  22.755  13.456  16.767 -0.0863 -0.0488 -0.0836
19390W        W62307  25.135  14.745  17.311 -0.0095 -0.0584 -0.0725
19391W        W62308  28.629  13.429  17.844  0.0392  0.2182  0.2803
19392W        W62309  28.328  14.558  17.271 -0.0305 -0.1439 -0.1989
19393W        W62310  25.343  15.004  21.813  0.2402 -0.1561  0.1033
19394W        W62311  25.679  13.697  17.040  0.3066  0.3232  0.1196
19395W        W62312  25.585  15.878  21.269 -0.1861 -0.2022  0.0657
19396W        W62313  26.467  13.678  21.390  0.2063 -0.1240 -0.1873
19397W        W62314  27.450  13.020  17.761  0.0837 -0.4121  0.1709
19398W        W62315  26.689  14.386  19.040  0.1408  0.0688  0.0569
19399W        W62316  25.504  14.310  17.242 -0.0596 -0.1628  0.0312
19400W        W62317  27.058  15.034  17.167 -0.0949  0.2984  0.0983
19401W        W62318  26.877  12.154  18.902  0.0875  0.1357  0.3184
19402W        W62319  26.127  11.402  18.952  0.1025 -0.1245  0.2094
19403W        W62320  31.521  12.702  20.733  0.2214  0.1217  0.1090
19404W        W62321  23.725  14.941  16.747 -0.1451 -0.3017 -0.0579
19405W        W62322  27.871  11.222  17.435  0.0164 -0.0147 -0.0442
19406W        W62323  26.117  10.832  17.708 -0.0284  0.1798 -0.0172
19407W        W62324  28.705  11.289  18.058  0.5496  0.3065  0.2176
19408W        W62325  28.189  10.138  17.455 -0.2931 -0.0955  0.2352
19409W        W62326  26.654  14.905  18.330  0.0119 -0.0259 -0.2818
19410W        W62327  27.313   9.388  18.207 -0.2604  0.0853 -0.1488
19411W        W62328  26.051  13.559  19.543  0.0470  0.1824 -0.2965
19412W        W62329  28.822  12.460  17.440  0.1723 -0.3871  0.1182
19413W        W62330  27.151  13.186  19.947  0.0742 -0.0013 -0.0933
19414W        W62331  26.855  13.537  18.762  0.0242  0.1313  0.0823
19415W        W62332  26.443  10.901  18.912  0.1836 -0.2552  0.2069
19416W        W62333  26.730  15.292  19.178 -0.6232 -0.1748 -0.1324
19417W        W62334  29.487  15.438  18.291  0.3627 -0.0423 -0.1709
19418W        W62335  27.903  14.721  17.549  0.2312  0.0547  0.1098
19419W        W62336  26.694  13.207  18.170 -0.1178  0.1229 -0.1794
19420W        W62337  25.350  12.873  19.544  0.2717 -0.1160 -0.2195
19421W        W62338  27.070  10.382  18.631  0.2116 -0.1332 -0.1534
19422W        W62339  27.851   9.848  17.176 -0.1224 -0.3349 -0.1819
19423W        W62340  29.794  12.845  20.140 -0.0188 -0.0911 -0.1285
19424W        W62341  24.465  13.569  20.549  0.5112  0.1532  0.1524
19425W        W62342  27.322  11.033  17.500 -0.0403  0.1771  0.2439
19426W        W62343  27.249  12.244  17.179  0.0097  0.1413  0.2281
19427W        W62344  26.446  13.965  20.910  0.1106 -0.2378 -0.1036
19428W        W62345  28.502  15.002  17.074 -0.0988 -0.0298 -0.2341
19429W        W62346  27.213   9.550  18.719 -0.1736 -0.1277 -0.0723
19430W        W62347  28.452  13.737  19.528 -0.0781  0.1405  0.3508
19431W        W62348  25.510  13.916  17.573 -0.0100  0.3121 -0.1161
19432W        W62349  27.202  13.299  16.703 -0.3342 -0.0345 -0.1821
19433W        W62350  29.211  12.780  21.546  0.0159 -0.1418 -0.0911
19434W        W62351  26.987  13.631  16.262  0.1236  0.0606  0.0288
19435W        W62352  25.447  13.551  21.002  0.0066  0.0923  0.4934
19436W        W62353  28.085  11.453  20.332  0.0107  0.0819  0.2719
19437W        W62354  28.165  15.099  20.619  0.3540  0.0339 -0.0327
19438W        W62355  24.452  13.742  18.608 -0.0877  0.2346 -0.2356
19439W        W62356  26.397  13.598  17.969  0.1917 -0.1766  0.2095
19440W        W62357  25.091  13.902  17.189  0.1796  0.2209  0.1890
19441W        W62358  26.840  11.078  19.594  0.2250 -0.1397  0.1951
19442W        W62359  25.086  14.180  17.705  0.0030 -0.1114  0.1768
19443W        W62360  28.627  14.397  18.216 -0.0756  0.0951  0.2950
19444W        W62361  26.380  11.239  19.412  0.0529 -0.3808  0.0374
19445W        W62362  29.305  10.066  18.488  0.1912 -0.3675 -0.0574
19446W        W62363  25.864  11.828  16.822  0.0099  0.2610  0.2550
19447W        W62364  27.268  16.076  17.551  0.2345 -0.3601  0.2831
19448W        W62365  27.615  10.914  17.877  0.0051 -0.0581  0.0704
19449W        W62366  27.813  12.465  17.531 -0.0169  0.0788  0.1745
19450W        W62367  24.312  10.555  20.478  0.0289 -0.2072  0.0665
19451W        W62368  27.380  10.198  17.028  0.0173  0.0256  0.1019
19452W        W62369  25.533   7.665  20.895  0.2388  0.3181 -0.1629
19453W        W62370  27.475  10.544  18.958  0.1649  0.3032 -0.1516
19454W        W62371  28.887  13.989  19.528 -0.1558 -0.1557 -0.2217
19455W        W62372  26.018  11.708  17.432  0.1458 -0.2150 -0.0909
19456W        W62373  28.989   9.786  21.105 -0.0604 -0.2761 -0.0462
19457W        W62374  27.381  12.389  19.001 -0.1249  0.1113  0.2077
19458W        W62375  27.672  11.143  20.043 -0.0151 -0.2128  0.3645
19459W        W62376  27.095  12.254  20.893 -0.0036 -0.0524 -0.1190
19460W        W62377  27.202  14.897  18.286 -0.2649  0.2181  0.0989
19461W        W62378  30.495  14.444  22.139  0.1877 -0.1501  0.3363
19462W        W62379  26.940  12.915  18.482 -0.3536  0.2794  0.3378
19463W        W62380  26.548  12.419  19.688 -0.2444  0.5423 -0.1861
19464W        W62381  26.542  10.676  16.833 -0.1655 -0.0692  0.1614
19465W        W62382  24.511  14.841  19.355 -0.3073  0.1082 -0.0036
19466W        W62383  26.185  14.556  17.106 -0.0886  0.0819  0.1743
19467W        W62384  24.703  10.398  17.633 -0.0022  0.2100  0.4591
19468W        W62385  29.197  16.056  20.118  0.0414  0.3218 -0.1511
19469W        W62386  26.945  12.311  19.387 -0.2017 -0.1810 -0.4049
19470W        W62387  25.623  13.220  20.463  0.3509 -0.2423  0.5032
19471W        W62388  29.082   9.766  19.554  0.0745 -0.0013  0.0425
19472W        W62389  29.514  12.280  20.948  0.0221  0.0427 -0.0928
19473W        W62390  27.777  12.096  19.844  0.0296 -0.1716 -0.0787
19474W        W62391  26.281   9.291  16.408  0.1583 -0.0763  0.1722
19475W        W62392  28.096  11.946  16.829  0.1407  0.1349  0.4207
19476W        W62393  26.783  14.525  16.774 -0.2401 -0.2539  0.2818
19477W        W62394  27.143  13.211  19.031  0.2767 -0.1938  0.1316
19478W        W62395  25.938  14.476  18.441  0.0921  0.0946  0.3248
19479W        W62396  29.746  13.203  19.112 -0.0201  0.3874  0.0574
19480W        W62397  25.019  11.675  20.555 -0.2985 -0.1079 -0.1031
19481W        W62398  28.725  11.446  18.705  0.1323 -0.0463 -0.1286
19482W        W62399  25.571  11.817  17.855  0.1061 -0.1356 -0.2732
19483W        W62400  25.430  14.650  19.395  0.3104 -0.0193 -0.3015
19484W        W62401  28.293   8.959  18.156 -0.2900  0.1944 -0.1712
19485W        W62402  28.025  11.342  17.886 -0.4435 -0.0417 -0.1103
19486W        W62403  26.456  13.004  20.800  0.1245 -0.0874  0.1860
19487W        W62404  27.800  12.710  19.241 -0.4381  0.1582 -0.0201
19488W        W62405  27.207  11.781  18.062  0.0670  0.0659  0.1722
19489W        W62406  28.582  11.908  19.448 -0.1397  0.3740  0.2063
19490W        W62407  25.571  12.472  20.644 -0.1808  0.1281  0.1963
19491W        W62408  27.480  14.891  16.298  0.2872 -0.3223  0.2849
19492W        W62409  26.447  12.295  19.175 -0.1262  0.1106  0.1742
19493W        W62410  27.342  11.826  16.878 -0.0488  0.0411 -0.0515
19494W        W62411  26.079  14.371  17.975  0.3014 -0.0492 -0.0541
19495W        W62412  25.979  12.974  19.507 -0.1834 -0.2403 -0.1083
19496W        W62413  27.829  12.501  20.761  0.1219  0.5232  0.1425
19497W        W62414  27.774  13.169  16.824 -0.0337  0.1799  0.1658
19498W        W62415  27.113  11.889  20.506  0.2472  0.0566 -0.1479
19499W        W62416  23.818  13.180  16.392  0.1111 -0.2996 -0.0805
19500W        W62417  27.330  10.188  19.573  0.0755  0.1165 -0.0480
19501W        W62418  22.482  13.825  16.655 -0.1046  0.1766 -0.0946
19502W        W62419  28.290  12.272  19.592  0.1971  0.3122 -0.1591
19503W        W62420  27.875  13.616  18.736 -0.0998 -0.0963  0.0948
19504W        W62421  27.326  11.347  20.435 -0.0794  0.0895 -0.0744
19505W        W62422  30.114  12.415  20.307 -0.0806  0.4176 -0.1048
19506W        W62423  26.561  12.597  18.833 -0.1755 -0.0784 -0.0791
19507W        W62424  28.248  11.313  16.725  0.5606 -0.3535 -0.0930
19508W        W62425  26.141  10.062  18.623  0.1789 -0.0266 -0.3089
19509W        W62426  26.843  12.209  21.858  0.0366 -0.1719 -0.0876
19510W        W62427  27.337  12.546  20.586  0.1254  0.5064 -0.1053
19511W        W62428  25.091  12.055  19.681  0.1089  0.0089 -0.2188
19512W        W62429  26.373  14.326  20.202  0.1231 -0.0818 -0.0974
19513W        W62430  28.160  12.219  18.380 -0.0476 -0.0380 -0.0999
19514W        W62431  26.813  11.483  20.374 -0.1680  0.0066 -0.1485
19515W        W62432  26.827  11.244  19.063  0.2978  0.3070  0.0725
19516W        W62433  24.502  14.541  16.896 -0.0831  0.1763 -0.0025
19517W        W62434  26.877  12.140  16.810 -0.1941  0.0165 -0.0625
19518W        W62435  28.190  10.370  19.383  0.0882  0.1730  0.1479
19519W        W62436  27.237  13.543  18.051 -0.2779  0.4257 -0.2803
19520W        W62437  26.815  14.595  17.384  0.0554  0.0784  0.2056
19521W        W62438  27.193  13.410  20.395 -0.0951 -0.0710  0.3771
19522W        W62439  24.735  13.488  16.961 -0.0894  0.0861 -0.2095
19523W        W62440  28.633  10.203  20.205 -0.0036 -0.0533 -0.1724
19524W        W62441  25.841  13.895  19.126  0.0928 -0.2071 -0.0854
19525W        W62442  26.586  11.394  16.275 -0.0165  0.0968 -0.0147
19526W        W62443  25.542  12.777  16.813  0.1248 -0.1644 -0.0126
19527W        W62444  29.519  10.179  18.031 -0.0513 -0.1272 -0.1113
19528W        W62445  28.005  12.866  17.216 -0.1984 -0.1716 -0.1642
19529W        W62446  26.453  11.887  19.580 -0.2722 -0.1195 -0.4023
19530W        W62447  27.043  10.811  17.114  0.0032 -0.1262 -0.4489
19531W        W62448  25.836  13.604  20.209  0.3789 -0.2426 -0.0177
19532W        W62449  25.875  12.134  18.339 -0.0785 -0.4205 -0.0204
19533W        W62450  27.923  10.827  19.095 -0.0066 -0.0032  0.0670
19534W        W62451  28.789  14.876  18.482  0.0437  0.1508  0.4196
19535W        W62452  29.135  15.222  18.891 -0.0604  0.0020  0.1254
19536W        W62453  26.305  10.238  19.576 -0.1634 -0.1472 -0.2297
19537W        W62454  27.705  12.560  20.188  0.0740 -0.1771 -0.0329
19538W        W62455  26.335  12.178  16.720 -0.1595  0.1967  0.2326
19539W        W62456  24.909  12.492  18.087  0.2241 -0.1832  0.2417
19540W        W62457  28.851  10.903  18.989 -0.1032  0.0407  0.0076
19541W        W62458  25.430  10.659  16.378 -0.4645  0.1449  0.3586
19542W        W62459  24.924  15.010  17.675  0.1358  0.2132  0.2445
19543W        W62460  26.329  12.481  21.114 -0.3425 -0.1537 -0.0498
19544W        W62461  27.991  11.112  19.500 -0.0606 -0.4255 -0.1447
19545W        W62462  27.403  13.714  19.040  0.0740 -0.2715 -0.3489
19546W        W62463  26.156   8.684  18.799  0.0552  0.0005  0.1188
19547W        W62464  27.035  12.872  17.945 -0.0587 -0.0084  0.3579
19548W        W62465  26.181  13.144  18.169  0.0308 -0.4228  0.1755
19549W        W62466  27.090  10.591  19.842  0.1494 -0.2010 -0.1279
19550W        W62467  26.171  12.688  19.878  0.3290  0.0009  0.2951
19551W        W62468  26.971  10.985  20.629  0.1745  0.1558 -0.2061
19552W        W62469  27.211  14.397  17.586  0.0302  0.0647  0.1118
19553W        W62470  28.916  12.501  19.730  0.0355 -0.2138  0.0563
19554W        W62471  23.359  12.829  18.743 -0.0408  0.1833  0.2701
19555W        W62472  25.792  11.066  19.607  0.0157  0.2814 -0.2892
19556W        W62473  27.490  14.719  17.885 -0.0029 -0.0962 -0.2422
19557W        W62474  27.043  10.387  20.861  0.1253  0.1371  0.1461
19558W        W62475  27.533  11.625  18.622 -0.0720 -0.3043  0.2035
19559W        W62476  25.475  14.062  16.705 -0.2716  0.0782  0.1919
19560W        W62477  24.127  12.342  20.254 -0.0867 -0.2447 -0.1419
19561W        W62478  28.201  10.241  18.796 -0.4557 -0.0974  0.0067
19562W        W62479  26.935  14.372  18.587 -0.0354 -0.1383 -0.1642
19563W        W62480  25.965   8.839  18.073  0.3115 -0.0085  0.1018
19564W        W62481  28.102  11.406  19.856  0.1826 -0.4827  0.0473
19565W        W62482  27.962  13.702  16.794  0.0492  0.4766  0.0058
19566W        W62483  26.010  11.461  19.835  0.1925 -0.0425 -0.2555
19567W        W62484  25.588   8.865  21.868  0.0737 -0.0389  0.1652
19568W        W62485  28.741  12.807  18.403  0.0048 -0.4241 -0.1425
19569W        W62486  25.888  12.328  18.980  0.1384  0.0040  0.0061
19570W        W62487  30.009  12.481  18.368  0.1763  0.0965 -0.2948
19571W        W62488  27.436  12.547  19.436 -0.1508 -0.2458 -0.2018
19572W        W62489  27.410  11.168  18.926  0.1694  0.0321  0.0615
19573W        W62490  25.302  11.049  17.124 -0.0323  0.3064  0.1409
19574W        W62491  25.544  13.383  19.503 -0.2325 -0.3971  0.0633
19575W        W62492  28.380  13.388  18.614 -0.0239  0.1138  0.0175
19576W        W62493  26.742  12.531  17.778 -0.0016  0.3166  0.0580
19577W        W62494  28.359  11.622  19.067 -0.2548  0.0661  0.2915
19578W        W62495  26.098  12.552  18.570  0.2339 -0.0355 -0.0510
19579W        W62496  29.461  11.338  19.205  0.0502  0.2122 -0.1456
19580W        W62497  27.468  12.553  17.916 -0.0870  0.0214 -0.1577
19581W        W62498  26.170  11.728  18.430 -0.6162 -0.2468  0.2609
19582W        W62499  27.814  12.176  19.361  0.2018 -0.1418 -0.2944
19583W        W62500  27.661  13.295  19.066 -0.4089 -0.2404 -0.0898
19584W        W62501  27.854  11.707  17.554 -0.1637 -0.2806 -0.3211
19585W        W62502  28.274  12.872  18.560 -0.2384 -0.1522 -0.0324
19586W        W62503  27.925  12.596  19.745  0.0019 -0.5039  0.1421
19587W        W62504  25.867  12.067  20.848 -0.0602  0.0295  0.2701
19588W        W62505  25.513   9.885  20.640 -0.3717 -0.1923 -0.1454
19589W        W62506  26.133  16.163  19.759  0.0475 -0.2142  0.0934
19590W        W62507  28.570  11.784  17.018  0.0635 -0.1438 -0.1724
19591W        W62508  30.039  10.040  18.213 -0.0410  0.0944  0.2162
19592W        W62509  27.752  13.840  19.674  0.2056 -0.1729 -0.0618
19593W        W62510  28.209  13.415  17.126  0.5300  0.3404  0.0033
19594W        W62511  25.519  11.978  20.494  0.2136  0.0659 -0.1055
19595W        W62512  29.405  11.892  20.253 -0.0109  0.1208 -0.1184
19596W        W62513  28.515  10.486  17.678 -0.2522 -0.1736  0.1110
19597W        W62514  28.399  12.728  19.918  0.0905 -0.0609  0.0720
19598W        W62515  26.254  12.474  17.155 -0.0578  0.1502  0.0229
19599W        W62516  28.128  14.097  17.969 -0.0667  0.1099  0.0249
19600W        W62517  28.858  12.521  19.166 -0.1977 -0.3239  0.0164
19601W        W62518  26.073  10.424  19.087  0.0453 -0.1127 -0.0025
19602W        W62519  25.234  13.127  21.247  0.1511  0.0794 -0.0733
19603W        W62520  26.181  11.822  17.945  0.0404  0.1582 -0.3133
19604W        W62521  24.644  13.764  17.352  0.2188  0.2035  0.2898
19605W        W62522  28.155  13.578  18.149 -0.1991  0.2330  0.0118
19606W        W62523  28.589  12.287  22.312  0.0508 -0.2054 -0.1827
19607W        W62524  26.334  12.279  18.143 -0.1726 -0.0568  0.0026
19608W        W62525  27.882  12.335  21.256 -0.1278 -0.0334 -0.1958
19609W        W62526  24.759  12.781  17.128  0.0825 -0.1816 -0.0496
19610W        W62527  26.094  10.835  17.058 -0.1324  0.0847  0.0345
19611W        W62528  25.642  14.924  20.374  0.0055  0.2765  0.0291
19612W        W62529  25.006  13.807  19.833 -0.1009  0.4698 -0.2621
19613W        W62530  23.921  14.119  16.307 -0.0061  0.1831 -0.0745
19614W        W62531  28.103  10.698  19.785 -0.1718  0.1416 -0.3790
19615W        W62532  28.389  10.839  18.743 -0.0815 -0.0901  0.0340
19616W        W62533  25.237  12.037  20.960  0.0203  0.2124 -0.1191
19617W        W62534  27.010  12.764  19.583 -0.0318 -0.0440  0.1781
19618W        W62535  26.351  13.637  18.963  0.1892  0.2888  0.2906
19619W        W62536  25.415  11.615  20.878  0.0975  0.1409 -0.5311
19620W        W62537  27.982  16.290  18.764 -0.1715 -0.0673 -0.3314
19621W        W62538  27.841  13.776  19.191  0.2686  0.3033  0.1251
19622W        W62539  27.142  13.981  17.829  0.2355  0.1297 -0.3219
19623W        W62540  25.071   9.156  19.105  0.2295  0.0824 -0.1006
19624W        W62541  25.732  11.985  21.662 -0.0616 -0.0878 -0.3206
19625W        W62542  25.615  12.750  18.696 -0.1397  0.1482 -0.4522
19626W        W62543  26.579  11.626  17.380  0.6892  0.1319 -0.1139
19627W        W62544  24.867  15.750  17.762 -0.0994  0.2384 -0.0801
19628W        W62545  25.409  13.651  19.030 -0.1607 -0.0134 -0.2716
19629W        W62546  24.279  12.596  19.792  0.1556  0.0096 -0.0960
19630W        W62547  24.288  14.568  16.490 -0.0959  0.1731 -0.1162
19631W        W62548  25.126  14.339  16.925  0.1251 -0.3266  0.0666
19632W        W62549  25.987  13.888  17.830 -0.2254  0.0963  0.0646
19633W        W62550  25.268  12.012  18.177  0.0722  0.2962 -0.0619
19634W        W62551  27.248   9.949  17.445  0.2612  0.0625 -0.0267
19635W        W62552  27.757  14.147  18.814  0.1201 -0.1454  0.1739
19636W        W62553  23.329  14.768  16.305  0.0154  0.0540  0.0359
19637W        W62554  27.289  13.905  15.926  0.1786  0.0410 -0.1027
19638W        W62555  21.990  15.925  15.856 -0.2231  0.0691  0.0838
19639W        W62556  26.785  14.255  20.668 -0.0562  0.0177  0.1091
19640W        W62557  26.774  11.918  16.380 -0.3146  0.0932  0.1365
19641W        W62558  27.507  14.155  19.352 -0.2816  0.0101 -0.0436
19642W        W62559  29.632  10.830  18.866 -0.2851  0.0516 -0.2263
19643W        W62560  26.839  13.544  19.978  0.0165  0.2567  0.1330
19644W        W62561  24.857  13.168  17.470 -0.2593 -0.1289 -0.3620
19645W        W62562  26.463  10.613  17.365  0.0066  0.4366  0.0903
19646W        W62563  26.280  13.529  20.002 -0.0358  0.1119 -0.1408
19647W        W62564  30.277  11.680  21.268 -0.2087  0.1816  0.0827
19648W        W62565  24.488  13.219  18.667  0.1599  0.0804  0.1626
19649W        W62566  27.083  13.905  16.643  0.1188 -0.0715 -0.3017
19650W        W62567  25.989  11.123  18.601 -0.0613  0.1839 -0.2437
19651W        W62568  24.143  12.575  21.127 -0.2978 -0.0343  0.2921
19652W        W62569  29.327  10.898  20.297  0.0132 -0.1053  0.2361
19653W        W62570  27.015  12.628  16.910 -0.1780 -0.0866  0.0822
19654W        W62571  27.044  12.079  17.616 -0.0627 -0.0995  0.1896
19655W        W62572  26.498  13.597  16.298 -0.0381 -0.1460  0.0266
19656W        W62573  26.261  12.543  17.681 -0.1898  0.3571 -0.0571
19657W        W62574  29.129  14.384  20.956 -0.1199 -0.2203 -0.0625
19658W        W62575  25.221  11.814  18.655 -0.2862 -0.1493  0.2768
19659W        W62576  25.904  14.640  18.944 -0.1677  0.0031 -0.2311
19660W        W62577  25.605  11.877  22.522  0.3531  0.1574  0.1636
19661W        W62578  28.489  10.643  20.448 -0.1544  0.2100 -0.1079
19662W        W62579  27.058  12.690  19.059  0.1371 -0.3094  0.4385
19663W        W62580  28.015  10.403  17.834 -0.0761 -0.0393  0.0144
19664W        W62581  28.901  12.037  20.863 -0.1532  0.0522  0.2917
19665W        W62582  25.933   9.687  20.282  0.1184 -0.1203 -0.4674
19666W        W62583  24.384  11.471  17.564 -0.0293 -0.1200  0.2855
19667W        W62584  28.070  13.638  21.353  0.2001  0.0448  0.0027
19668W        W62585  27.022  12.886  16.460 -0.0903 -0.3569 -0.0027
19669W        W62586  26.797  15.455  20.980  0.0974 -0.0537 -0.0718
19670W        W62587  27.076  10.451  16.718 -0.0632 -0.5152  0.0761
19671W        W62588  27.528  12.888  18.840 -0.3059 -0.0359 -0.0147
19672W        W62589  25.322  11.912  16.852  0.1995  0.1635 -0.1873
19673W        W62590  27.557  12.094  20.737  0.2155  0.0982  0.0550
19674W        W62591  25.386  13.119  19.089  0.3901  0.0053 -0.0154
19675W        W62592  25.500   9.160  17.312 -0.2037  0.0238 -0.1913
19676W        W62593  26.585  13.391  17.310  0.1697  0.2654 -0.1272
19677W        W62594  29.097  11.985  19.405 -0.0447  0.3018 -0.1149
19678W        W62595  25.969  14.157  16.942 -0.1864  0.1725 -0.1389
19679W        W62596  27.396  12.311  16.692  0.2340 -0.3374  0.2961
19680W        W62597  29.019  14.914  20.939  0.0668 -0.0087  0.1238
19681W        W62598  27.885  10.051  20.606  0.1263  0.0851 -0.0754
19682W        W62599  28.306  14.718  18.437  0.1958  0.1189  0.2089
19683W        W62600  29.040  15.774  18.285  0.1481 -0.2902  0.2942
19684W        W62601  27.694  10.570  19.427  0.5166  0.1923 -0.0937
19685W        W62602  26.954  11.392  17.619  0.0093 -0.3049 -0.0756
19686W        W62603  24.671  14.604  17.968  0.1994 -0.3082 -0.0471
19687W        W62604  26.600   8.910  18.951 -0.3076 -0.1870 -0.0881
19688W        W62605  28.385  11.214  20.751  0.0116 -0.1750 -0.0991
19689W        W62606  27.360  13.093  17.138 -0.1625  0.0819 -0.2042
19690W        W62607  27.526  10.623  20.876  0.1058  0.1196 -0.0853
19691W        W62608  25.234  15.424  20.456  0.1140  0.3708  0.0671
19692W        W62609  24.767  12.908  19.809 -0.3109  0.3101  0.1445
19693W        W62610  27.304  12.554  19.929  0.3336 -0.2679 -0.1616
19694W        W62611  27.209  12.519  18.492 -0.0624 -0.1289 -0.3332
19695W        W62612  26.244  13.609  17.019 -0.0699 -0.0643  0.0743
19696W        W62613  27.743  12.140  17.093 -0.1673  0.0803  0.0584
19697W        W62614  28.537  12.612  17.971 -0.1625  0.0979  0.3928
19698W        W62615  26.393  13.046  17.750  0.2877 -0.0304  0.0790
19699W        W62616  28.449  14.538  17.760  0.0454 -0.3784 -0.2628
19700W        W62617  26.599  12.807  17.249  0.2752 -0.0530 -0.2137
19701W        W62618  30.081  10.242  17.393 -0.0152 -0.0692 -0.2493
19702W        W62619  28.069   9.690  17.796  0.0617 -0.1256 -0.2211
19703W        W62620  25.387  11.526  21.422  0.1478  0.1213 -0.0350
19704W        W62621  25.265  12.843  17.265 -0.1418  0.1710 -0.0376
19705W        W62622  26.254  14.161  16.039  0.0083 -0.0013 -0.3399
19706W        W62623  24.645  14.297  19.183  0.0695  0.1569  0.0194
19707W        W62624  27.408   9.705  20.442 -0.2182 -0.0456 -0.0278
19708W        W62625  26.009  11.890  20.340 -0.0612  0.0717 -0.1158
19709W        W62626  25.494  12.232  18.696 -0.1213 -0.0183 -0.0774
19710W        W62627  28.072  11.639  18.640  0.3924 -0.0410 -0.0926
19711W        W62628  27.551  16.290  17.126  0.1315 -0.0593  0.1726
19712W        W62629  26.495  10.413  18.715  0.1311  0.1820  0.2669
19713W        W62630  23.877  11.832  17.641  0.0465  0.2640  0.1203
19714W        W62631  27.486  14.247  18.086  0.3691 -0.0313 -0.1965
19715W        W62632  27.854  14.986  19.513 -0.2946  0.0965  0.1631
19716W        W62633  27.986  10.745  17.441 -0.4432  0.1873 -0.0471
19717W        W62634  28.240  14.501  22.495  0.1757 -0.2512 -0.0747
19718W        W62635  25.303  13.594  16.228 -0.4921 -0.2017 -0.1106
19719W        W62636  26.369  11.961  20.870  0.1249  0.2561  0.0032
19720W        W62637  27.267   8.381  20.502  0.0234 -0.1120  0.4156
19721W        W62638  25.724  14.010  16.094  0.1550  0.2130 -0.0569
19722W        W62639  26.479  11.367  18.645  0.1270 -0.3275  0.0803
19723W        W62640  27.757  13.364  17.980 -0.1731  0.2160  0.3309
19724W        W62641  27.694  14.254  17.601 -0.1024  0.0593  0.0738
19725W        W62642  28.039  13.454  19.509  0.1393 -0.0153  0.4287
19726W        W62643  27.408  12.990  20.365  0.0265  0.1631 -0.0110
19727W        W62644  25.672  11.605  18.338 -0.0883 -0.1050 -0.1581
19728W        W62645  26.505  14.186  17.031  0.0913 -0.0920  0.0014
19729W        W62646  27.376  13.807  21.325  0.0209 -0.1221 -0.0789
19730W        W62647  27.820  13.847  17.279 -0.2666  0.3024 -0.0898
19731W        W62648  28.694  12.782  21.368  0.3299  0.1267  0.0873
19732W        W62649  24.966  13.030  18.791  0.0629  0.0873  0.0783
19733W        W62650  27.158   9.357  20.073 -0.2926  0.2736 -0.2962
19734W        W62651  26.818  12.739  21.017  0.0152  0.0110  0.0806
19735W        W62652  27.972  12.906  20.556  0.2243  0.0772  0.1923
19736W        W62653  25.665  14.512  19.932  0.1146 -0.2342 -0.1808
19737W        W62654  28.340  11.170  18.378  0.0629 -0.1266 -0.1213
19738W        W62655  25.674  14.727  18.128  0.0041  0.0785  0.0235
19739W        W62656  26.628  11.965  20.467  0.2595 -0.1625  0.0009
19740W        W62657  26.001  10.307  16.848  0.0639 -0.4794  0.1122
19741W        W62658  28.075  12.067  20.879 -0.1678  0.0465  0.3068
19742W        W62659  28.683  13.814  18.523  0.2941 -0.5743  0.0749
19743W        W62660  26.662  14.910  20.820 -0.2934  0.3453 -0.0297
19744W        W62661  27.007  11.802  17.221 -0.1448 -0.0230 -0.0358
19745W        W62662  27.592  12.200  18.378 -0.3007 -0.2051 -0.0171
19746W        W62663  29.191  15.826  18.816  0.2746 -0.0441  0.1396
19747W        W62664  29.137  14.157  21.470 -0.1897  0.0937  0.2534
19748W        W62665  24.707  13.129  21.394  0.1213 -0.0272 -0.2954
19749W        W62666  28.016  12.676  18.094  0.0830  0.0684 -0.0325
19750W        W62667  26.270  11.288  17.590  0.4395  0.2072  0.1566
19751W        W62668  26.138  12.790  19.068  0.0127 -0.0150  0.0703
19752W        W62669  27.313  11.163  18.351  0.0774 -0.0409 -0.1150
19753W        W62670  27.634  10.614  19.956  0.0890  0.0505 -0.0567
19754W        W62671  26.576  10.718  19.892 -0.0803 -0.0546 -0.3435
19755W        W62672  27.467  11.479  17.330 -0.2103 -0.1077 -0.0292
19756W        W62673  27.272  13.908  18.523 -0.0777  0.3363  0.0921
19757W        W62674  28.226  12.938  19.441  0.1464 -0.2977 -0.0025
19758W        W62675  26.467  13.505  23.934 -0.1657  0.1426  0.0690
19759W        W62676  26.238  13.664  22.185  0.1123 -0.1977  0.2384
19760W        W62677  27.540  10.042  20.087 -0.0430 -0.0582 -0.3289
19761W        W62678  28.515  10.524  22.602 -0.1524  0.0380  0.1237
19762W        W62679  25.495   9.706  21.079  0.1178 -0.1348  0.0908
19763W        W62680  26.516  15.428  24.263 -0.0961 -0.3816 -0.0780
19764W        W62681  24.280  10.253  23.062  0.1917 -0.1848  0.0807
19765W        W62682  26.764  12.626  22.725  0.0985  0.1215  0.0465
19766W        W62683  27.719  13.721  21.700  0.0404  0.0879 -0.0241
19767W        W62684  26.080  11.909  19.276  0.4064 -0.3318  0.1335
19768W        W62685  27.490  12.709  22.843 -0.2183  0.1136 -0.1050
19769W        W62686  25.885  12.412  23.805 -0.1242 -0.1415 -0.0204
19770W        W62687  25.817   9.040  20.003  0.0307 -0.0216  0.0369
19771W        W62688  26.193  12.022  21.342  0.0791  0.0635 -0.1458
19772W        W62689  29.363  11.478  21.760 -0.1217 -0.1835  0.0545
19773W        W62690  23.532  15.423  21.114  0.2964  0.0613 -0.0608
19774W        W62691  24.593  11.890  24.347 -0.0194 -0.2550  0.3678
19775W        W62692  27.166  10.269  21.905  0.3630  0.1205  0.4625
19776W        W62693  29.457  13.671  22.386 -0.1712  0.0376 -0.0862
19777W        W62694  26.531  11.035  24.243  0.3631 -0.2180 -0.1537
19778W        W62695  28.237  13.020  25.440  0.0387 -0.0090  0.1426
19779W        W62696  26.429  14.102  21.960  0.1424 -0.1963  0.0508
19780W        W62697  25.262  12.854  20.622  0.0612  0.0960  0.0100
19781W        W62698  27.991   8.679  22.469  0.2631 -0.1023  0.1186
19782W        W62699  25.353  12.424  23.521 -0.0630  0.0780  0.2954
19783W        W62700  29.749  10.557  21.618  0.0072  0.0257  0.0176
19784W        W62701  26.343  12.281  23.608  0.1436 -0.0331  0.1275
19785W        W62702  25.812  14.750  24.499 -0.4102  0.3666  0.2214
19786W        W62703  25.686  14.264  24.751  0.0945 -0.1341 -0.0976
19787W        W62704  28.106  11.296  21.160  0.0971  0.2538  0.0761
19788W        W62705  25.028  13.607  21.349 -0.0440 -0.1708 -0.0500
19789W        W62706  24.734  15.789  22.262  0.0076  0.0708 -0.0160
19790W        W62707  24.071  14.669  21.033 -0.1111 -0.3516  0.0925
19791W        W62708  31.853  13.819  22.740 -0.1569 -0.0608 -0.4978
19792W        W62709  29.780  12.961  25.586  0.1084 -0.2153 -0.0742
19793W        W62710  25.006  14.703  23.862  0.4507  0.0290 -0.3074
19794W        W62711  25.473  11.625  19.830 -0.0085 -0.2930  0.1588
19795W        W62712  26.527  14.019  22.554 -0.1813 -0.1637 -0.2810
19796W        W62713  28.686  13.592  24.884 -0.1229  0.0642 -0.0077
19797W        W62714  27.876  11.782  21.318  0.0875 -0.0273 -0.1740
19798W        W62715  26.077  13.144  22.199  0.0981  0.0394 -0.0830
19799W        W62716  25.867  15.454  21.105  0.0324 -0.1142  0.3951
19800W        W62717  27.096  14.395  23.591  0.0740  0.1303  0.2733
19801W        W62718  26.830  12.713  23.589  0.1142  0.1344 -0.1383
19802W        W62719  26.025  14.221  23.604 -0.1691 -0.1595 -0.0087
19803W        W62720  30.261  10.601  24.780  0.3806  0.0648 -0.0995
19804W        W62721  28.095  14.029  21.752 -0.0766 -0.1589  0.1542
19805W        W62722  25.976  12.912  20.678 -0.2610 -0.0706 -0.1228
19806W        W62723  24.337  10.525  21.037 -0.3175 -0.0055  0.2255
19807W        W62724  27.297  12.095  22.084  0.1242 -0.1580 -0.0896
19808W        W62725  25.877  12.295  22.594  0.0906  0.2294 -0.3606
19809W        W62726  27.246  14.398  21.499  0.1793  0.1420 -0.1123
19810W        W62727  26.386  12.357  21.733 -0.0875  0.0802 -0.2372
19811W        W62728  29.181  12.415  21.902  0.1618 -0.0121 -0.1323
19812W        W62729  26.691  12.622  22.158 -0.1643 -0.0702 -0.0541
19813W        W62730  27.418  12.153  20.243  0.3207  0.1301  0.2590
19814W        W62731  25.411  13.003  24.220 -0.2460  0.0279 -0.0418
19815W        W62732  26.474  12.846  19.435  0.0536 -0.3394  0.2324
19816W        W62733  27.731  13.472  19.974 -0.1101 -0.1437  0.0434
19817W        W62734  30.097  14.260  24.774 -0.1103  0.1093 -0.1159
19818W        W62735  26.771  14.571  21.228 -0.2151  0.1230  0.0661
19819W        W62736  26.146  12.403  20.655  0.0518 -0.1286  0.4344
19820W        W62737  27.100  12.668  23.147 -0.1774 -0.2008 -0.2454
19821W        W62738  23.910  12.477  22.468  0.2437 -0.0860  0.1682
19822W        W62739  27.465   8.630  20.823  0.2600  0.3271  0.1633
19823W        W62740  28.863  13.259  24.498  0.2474 -0.0159 -0.2151
19824W        W62741  25.667  12.876  23.773  0.2988  0.1048 -0.3814
19825W        W62742  27.827  11.349  21.556  0.1698  0.0129 -0.0302
19826W        W62743  26.698  14.654  24.739  0.0971 -0.3050  0.1880
19827W        W62744  29.345  14.281  22.745  0.2820  0.2542 -0.0031
19828W        W62745  28.355  13.389  22.600 -0.0137 -0.0209  0.3945
19829W        W62746  26.731  11.231  23.777 -0.0639  0.0016 -0.3527
19830W        W62747  27.323  11.402  23.820  0.3161 -0.1602 -0.1157
19831W        W62748  26.658  13.133  21.383 -0.0929 -0.2595  0.0968
19832W        W62749  25.606  13.132  19.897  0.0509 -0.0509 -0.1401
19833W        W62750  28.203  13.387  23.202  0.0121  0.0485  0.1415
19834W        W62751  28.253  10.776  20.948  0.1606 -0.2092  0.2305
19835W        W62752  25.990  14.013  22.715 -0.1257 -0.0916  0.1275
19836W        W62753  26.579  11.957  24.353  0.0811  0.2916  0.2099
19837W        W62754  26.464  13.364  23.194  0.1452 -0.1982  0.0195
19838W        W62755  25.017  14.114  21.215  0.0367  0.1532  0.0440
19839W        W62756  25.782  13.264  21.696 -0.0231  0.0523 -0.1883
19840W        W62757  27.128  12.879  21.402 -0.1532  0.0893 -0.1800
19841W        W62758  25.032  11.612  23.513 -0.2429 -0.1907 -0.0970
19842W        W62759  28.251  13.119  21.407  0.1181  0.1316  0.0959
19843W        W62760  27.689  11.129  22.049 -0.0453  0.0232  0.1260
19844W        W62761  24.099  12.082  23.476 -0.0322 -0.1885 -0.2921
19845W        W62762  29.426  11.375  22.767  0.0008  0.1523 -0.0257
19846W        W62763  25.446  14.291  21.019  0.1119 -0.0110 -0.2873
19847W        W62764  27.016  12.951  22.329 -0.1472 -0.1171 -0.1069
19848W        W62765  27.905  10.268  22.096 -0.0323 -0.1520  0.2501
19849W        W62766  28.462  12.849  22.383  0.1970 -0.0023  0.1267
19850W        W62767  24.388  12.025  24.910 -0.3415  0.1053  0.1602
19851W        W62768  26.130  10.574  20.910  0.1506 -0.0170 -0.0892
19852W        W62769  25.019  12.118  24.558 -0.1284 -0.1264 -0.1284
19853W        W62770  24.844   9.478  25.232 -0.2325 -0.1420  0.0122
19854W        W62771  26.839  12.938  24.636  0.0631  0.2009  0.2579
19855W        W62772  25.478   9.125  20.933 -0.0543 -0.0900 -0.0951
19856W        W62773  28.618  10.584  23.685 -0.1132 -0.3269  0.2285
19857W        W62774  27.504  13.352  21.361 -0.0832 -0.1063 -0.0097
19858W        W62775  25.003  14.463  21.590  0.0494  0.1952 -0.0961
19859W        W62776  29.356  11.876  24.246 -0.0774 -0.1838 -0.1322
19860W        W62777  28.134  13.446  21.999  0.2333  0.0505  0.3275
19861W        W62778  28.538  13.967  23.904 -0.1441 -0.1516  0.1857
19862W        W62779  26.977  14.072  23.089 -0.0613 -0.0091  0.2143
19863W        W62780  26.288  14.350  25.579 -0.0918  0.0276  0.0759
19864W        W62781  24.283  12.051  19.829  0.1862  0.0687 -0.0132
19865W        W62782  26.305  13.344  20.482  0.2429 -0.1576 -0.1879
19866W        W62783  26.835  13.151  23.347 -0.2820 -0.3751 -0.0603
19867W        W62784  26.640  10.197  21.969 -0.3436 -0.0405 -0.1729
19868W        W62785  29.158  13.858  24.698 -0.0509 -0.2109  0.0466
19869W        W62786  25.939  11.583  20.763 -0.3291 -0.0388  0.2074
19870W        W62787  26.585  14.531  24.248  0.1205  0.1954 -0.1097
19871W        W62788  27.008  11.856  21.538  0.0665 -0.1254  0.0460
19872W        W62789  26.928  13.584  23.026  0.1221  0.3753  0.2592
19873W        W62790  27.512  11.641  22.374  0.0998  0.4215 -0.2851
19874W        W62791  26.952  11.037  20.091  0.0335  0.1037  0.0788
19875W        W62792  28.093  13.928  22.286 -0.1590  0.1505 -0.2766
19876W        W62793  26.342  16.553  20.994  0.2689  0.3096  0.0488
19877W        W62794  26.763  12.257  23.888  0.0909 -0.0339  0.1601
19878W        W62795  28.445  12.551  22.788  0.0019  0.3507  0.1469
19879W        W62796  27.306  10.198  22.377 -0.2415 -0.1681  0.3713
19880W        W62797  26.745  12.480  24.340  0.2086  0.1531  0.2231
19881W        W62798  28.448  10.072  25.035 -0.0102 -0.0422 -0.0163
19882W        W62799  23.729  13.410  20.383  0.2308 -0.0441  0.0110
19883W        W62800  25.954  13.295  23.709  0.1218  0.1294  0.1623
19884W        W62801  28.131   9.279  21.854  0.0198 -0.1825  0.1695
19885W        W62802  30.318  12.533  22.280  0.0501  0.0154  0.1055
19886W        W62803  25.597  14.480  23.510 -0.3602 -0.4140  0.0121
19887W        W62804  29.185  12.997  22.948 -0.2185 -0.0919  0.0349
19888W        W62805  29.299  12.688  19.364 -0.1005  0.0380 -0.1359
19889W        W62806  29.026   8.596  19.631  0.0248  0.1061 -0.3925
19890W        W62807  25.214  11.748  24.317  0.0926  0.1161  0.1702
19891W        W62808  26.848  13.699  20.565  0.0808 -0.2069  0.2045
19892W        W62809  25.742  13.891  22.213  0.0126 -0.2775  0.1942
19893W        W62810  26.602  11.286  22.034 -0.0751 -0.0039 -0.0804
19894W        W62811  28.026  12.622  22.580  0.0940  0.1126  0.1785
19895W        W62812  25.748  12.655  23.130 -0.0597  0.2493 -0.1728
19896W        W62813  27.374  13.739  23.394 -0.2116  0.2784 -0.1559
19897W        W62814  26.674  12.142  21.299 -0.0686  0.0900  0.1275
19898W        W62815  27.718  11.710  24.221  0.0243  0.1167  0.0074
19899W        W62816  26.809  10.028  20.609 -0.1228 -0.1059 -0.2357
19900W        W62817  26.657   8.379  20.953  0.1574  0.0234 -0.2152
19901W        W62818  22.885  13.442  20.468 -0.1718 -0.1337  0.1435
19902W        W62819  29.152   9.067  23.769  0.1165  0.0219  0.0966
19903W        W62820  28.749  11.913  23.696  0.0715 -0.2582  0.2678
19904W        W62821  25.911  11.690  24.475 -0.2971  0.0312  0.1926
19905W        W62822  27.837  13.555  24.193 -0.3797 -0.1735 -0.1880
19906W        W62823  27.729  12.892  21.321 -0.1057  0.0553 -0.3998
19907W        W62824  27.417  11.545  22.823 -0.0732 -0.1078 -0.0479
19908W        W62825  24.450  13.569  21.216  0.0137 -0.2595  0.1643
19909W        W62826  27.686  11.038  23.619 -0.1877  0.1301 -0.0996
19910W        W62827  27.733  12.065  23.084  0.3186  0.0294  0.0981
19911W        W62828  24.521  13.278  24.250 -0.2171  0.0723 -0.0581
19912W        W62829  28.009  14.227  24.034  0.2629  0.2793  0.0938
19913W        W62830  27.488  14.032  22.981 -0.4247  0.5123  0.4906
19914W        W62831  26.057  11.792  23.544  0.0108 -0.1008  0.0100
19915W        W62832  27.082   9.505  21.357 -0.0865  0.1210 -0.1090
19916W        W62833  26.495  15.558  21.682  0.2078 -0.1511  0.0903
19917W        W62834  26.957  14.026  21.662  0.0267  0.0958  0.0153
19918W        W62835  24.490  10.664  22.909  0.1175 -0.0910 -0.0924
19919W        W62836  27.317  14.490  23.033 -0.0575  0.0039  0.0806
19920W        W62837  27.733  13.672  20.894 -0.0756  0.2466  0.3572
19921W        W62838  26.596  12.750  23.178  0.2390 -0.1930  0.1706
19922W        W62839  26.559  14.086  23.907  0.0402  0.0555 -0.0141
19923W        W62840  26.515  10.550  22.525 -0.0106  0.1637 -0.1631
19924W        W62841  25.905  14.781  22.497 -0.2900  0.0941 -0.0057
19925W        W62842  25.574  12.838  21.486  0.3461 -0.0079  0.1141
19926W        W62843  24.735  14.582  20.626 -0.0102 -0.0164  0.1456
19927W        W62844  28.587  11.098  21.721 -0.0785 -0.2558  0.3670
19928W        W62845  28.676  13.316  22.242  0.1585  0.0564  0.0451
19929W        W62846  24.986  10.889  25.247  0.0887 -0.1900 -0.1577
19930W        W62847  26.395   9.785  21.918 -0.0844  0.3287  0.0228
19931W        W62848  25.193  11.319  19.993  0.0727  0.1401  0.2162
19932W        W62849  27.344  11.487  21.871 -0.0811  0.2520 -0.1440
19933W        W62850  28.878  10.293  20.801 -0.0328 -0.0832 -0.1390
19934W        W62851  28.998  13.581  22.664 -0.2029 -0.0942  0.0800
19935W        W62852  27.726  15.840  25.143  0.2360  0.1334 -0.0383
19936W        W62853  25.735  10.780  20.551  0.3523 -0.1885  0.1871
19937W        W62854  27.826  14.010  24.540 -0.0050  0.0277  0.0135
19938W        W62855  27.740  10.673  21.723 -0.0381  0.1505  0.0009
19939W        W62856  25.785  16.748  21.530  0.1804 -0.0220  0.0644
19940W        W62857  28.440  13.895  22.681 -0.1212 -0.0347 -0.0223
19941W        W62858  27.365  10.203  20.534  0.0665  0.2397 -0.0373
19942W        W62859  26.875  12.784  20.090 -0.1606  0.1847 -0.2952
19943W        W62860  27.296  11.255  23.291  0.2443 -0.0004 -0.0169
19944W        W62861  25.718  12.985  22.542  0.1087 -0.0898  0.1196
19945W        W62862  27.041  10.612  22.239  0.0092 -0.2975  0.4228
19946W        W62863  26.525  11.019  20.410 -0.2588  0.0933  0.1455
19947W        W62864  26.447  11.776  22.025 -0.0093  0.2412 -0.1109
19948W        W62865  27.857  13.038  23.952 -0.1001  0.2860 -0.0808
19949W        W62866  24.945  11.563  21.775 -0.2844  0.1262  0.1785
19950W        W62867  25.993  12.879  24.104 -0.3752  0.2277  0.1868
19951W        W62868  26.995   9.615  23.849  0.1541  0.0272  0.1032
19952W        W62869  31.382  14.938  20.559 -0.0122  0.2573  0.2773
19953W        W62870  25.177  12.390  24.138 -0.0665 -0.2361 -0.0728
19954W        W62871  25.843  12.600  21.079 -0.0973  0.0353 -0.1693
19955W        W62872  24.668  12.867  20.493  0.0316 -0.0018  0.1238
19956W        W62873  27.472  12.961  20.888  0.3462  0.0420  0.0035
19957W        W62874  24.271  11.648  24.042  0.0472  0.0282 -0.3325
19958W        W62875  25.834  13.795  24.469  0.0163  0.2959 -0.2515
19959W        W62876  27.230  14.898  21.087  0.0336 -0.0382  0.0315
19960W        W62877  24.641  14.268  19.671 -0.1646  0.0382  0.2329
19961W        W62878  28.067   9.750  21.559  0.0620 -0.0207  0.1132
19962W        W62879  27.392  14.094  21.868 -0.0160 -0.0081  0.0246
19963W        W62880  26.640  10.159  23.041  0.0643 -0.0349 -0.0321
19964W        W62881  26.865  11.564  23.364  0.1707 -0.2667 -0.1834
19965W        W62882  28.669  14.417  19.233 -0.1837 -0.0185  0.2710
19966W        W62883  28.816   9.874  20.536 -0.0861 -0.1906  0.2601
19967W        W62884  24.826  11.432  22.709 -0.1288  0.2332  0.2080
19968W        W62885  26.210  13.769  23.443  0.3509  0.1018  0.1036
19969W        W62886  24.820  11.517  23.983 -0.2737 -0.0645 -0.0703
19970W        W62887  30.374  15.466  24.144 -0.2910  0.1003 -0.1509
19971W        W62888  25.514  12.175  24.473  0.0881 -0.2265  0.0048
19972W        W62889  28.665  10.249  21.688 -0.2174 -0.1362  0.2630
19973W        W62890  25.300  11.105  20.485  0.1230  0.0609  0.1579
19974W        W62891  26.296  13.364  21.748  0.1468  0.1717  0.2153
19975W        W62892  26.722  13.710  23.479  0.1010  0.2212  0.3192
19976W        W62893  25.533  14.351  20.524 -0.0110 -0.0426 -0.0659
19977W        W62894  29.101  10.703  22.672  0.1153 -0.0898  0.2680
19978W        W62895  27.387  11.054  21.554 -0.0753 -0.2699 -0.2678
19979W        W62896  28.262  12.112  22.851  0.3074 -0.2573  0.1558
19980W        W62897  28.412  13.022  21.897  0.0573 -0.2412  0.0231
19981W        W62898  25.533  13.650  24.078 -0.0526 -0.1448  0.2846
19982W        W62899  25.599  11.864  23.425  0.1011 -0.1583  0.1632
19983W        W62900  30.350  11.663  22.680 -0.2132  0.3832  0.0092
19984W        W62901  26.691  10.628  23.027  0.0813  0.0358  0.1115
19985W        W62902  26.831   8.582  23.179 -0.1941 -0.0890  0.1963
19986W        W62903  25.953  11.426  22.233 -0.1556  0.1236  0.1518
19987W        W62904  27.368  13.136  21.798 -0.0231 -0.3897  0.0907
19988W        W62905  25.166  11.350  24.984  0.1806  0.0964 -0.1787
19989W        W62906  28.080  15.308  22.473 -0.1413 -0.0981  0.3177
19990W        W62907  28.188  12.400  20.204 -0.0427 -0.3682  0.2898
19991W        W62908  28.201  13.814  24.220 -0.2406  0.0341  0.0857
19992W        W62909  28.356  14.238  19.675 -0.2004 -0.1122 -0.0222
19993W        W62910  28.887  11.837  19.017 -0.1727  0.1760  0.2921
19994W        W62911  25.447  12.509  22.670  0.1549  0.2927  0.2554
19995W        W62912  28.681  14.213  23.288 -0.1070  0.0401 -0.3573
19996W        W62913  28.112  11.804  19.522 -0.0108  0.0175 -0.2177
19997W        W62914  27.348  13.164  24.092  0.3047  0.2455  0.0689
19998W        W62915  27.850  13.027  21.810  0.0608 -0.2366  0.3564
19999W        W62916  27.585  12.722  22.183 -0.1347  0.2312  0.2708
20000W        W62917  28.250  10.517  21.650 -0.1239 -0.4661  0.1015
20001W        W62918  26.035  13.054  22.965  0.1470 -0.2594 -0.2292
20002W        W62919  26.573  15.532  26.671  0.3665 -0.3128  0.4209
20003W        W62920  24.887  12.470  19.540  0.2991  0.0036  0.0167
20004W        W62921  26.895  10.931  18.633 -0.0843  0.1048  0.0787
20005W        W62922  25.415  13.282  23.751  0.1187 -0.1349 -0.0341
20006W        W62923  28.444  12.648  23.793 -0.0547 -0.0731  0.1599
20007W        W62924  27.255   9.742  19.793 -0.2828 -0.2269 -0.0395
20008W        W62925  27.648  12.325  22.563 -0.3537  0.0660 -0.1109
20009W        W62926  24.545  14.064  20.655 -0.1928 -0.1932  0.2977
20010W        W62927  27.456   9.674  22.585 -0.1987 -0.1762 -0.0727
20011W        W62928  25.990  15.291  24.103 -0.1389 -0.3069 -0.0082
20012W        W62929  24.901  13.743  20.851 -0.0519  0.3590  0.1020
20013W        W62930  28.189  11.924  19.984  0.2993 -0.0941  0.1314
20014W        W62931  27.158  13.491  25.858  0.0336  0.0345  0.2784
20015W        W62932  28.728  13.163  23.018  0.3386  0.2393 -0.0407
20016W        W62933  26.081  13.373  24.223 -0.4980 -0.0081 -0.0111
20017W        W62934  29.041  12.333  22.422 -0.0621 -0.2137 -0.3366
20018W        W62935  27.218  13.308  24.771  0.1774  0.1213  0.1068
20019W        W62936  27.222  13.561  20.900  0.0820  0.2698  0.1721
20020W        W62937  28.230  14.188  25.010 -0.2012  0.1210  0.1534
20021W        W62938  29.020  11.119  21.922 -0.0436  0.2511  0.0333
20022W        W62939  26.304  13.882  20.451 -0.2452  0.0297 -0.1658
20023W        W62940  24.500  13.489  22.679 -0.1536  0.2124 -0.1716
20024W        W62941  27.072   9.902  22.907  0.0369 -0.0308  0.0408
20025W        W62942  27.468  11.134  22.460 -0.0699 -0.0059  0.1707
20026W        W62943  27.048  10.572  20.343 -0.4038 -0.2513  0.2641
20027W        W62944  26.811  12.581  20.538  0.0150 -0.1222  0.0240
20028W        W62945  25.310  13.962  24.350 -0.4016  0.0323  0.0860
20029W        W62946  24.933  12.517  22.345  0.2656 -0.1128  0.1951
20030W        W62947  27.065  15.443  23.359 -0.0261 -0.0375  0.2696
20031W        W62948  26.794  14.113  20.161  0.1269 -0.1161  0.2535
20032W        W62949  28.712  12.410  20.382  0.2897  0.2770 -0.2478
20033W        W62950  27.766  14.467  22.688 -0.2112  0.0642  0.3312
20034W        W62951  26.210  11.519  21.177  0.4743 -0.0283  0.1481
20035W        W62952  25.741  15.730  20.683  0.2675  0.3107 -0.0943
20036W        W62953  23.506  14.908  20.147  0.1024  0.1061 -0.2258
20037W        W62954  28.669  13.464  20.219  0.0649  0.3433  0.0503
20038W        W62955  28.066  14.840  22.804  0.1620  0.1161 -0.0428
20039W        W62956  26.140  12.725  23.450  0.0435 -0.1917 -0.2585
20040W        W62957  26.973   8.726  21.136 -0.0348  0.1385 -0.0127
20041W        W62958  28.473  11.783  23.181 -0.1949 -0.1973 -0.2433
20042W        W62959  28.941  11.549  22.943  0.5103  0.1609  0.2744
20043W        W62960  26.003  13.864  23.952 -0.0668 -0.0416 -0.0706
20044W        W62961  24.971  12.392  20.722  0.0691  0.4009  0.2381
20045W        W62962  28.384   9.743  20.283 -0.0056 -0.1143 -0.1196
20046W        W62963  24.940  13.976  21.819 -0.1083  0.0323 -0.0069
20047W        W62964  29.311   9.812  22.485 -0.3450 -0.0732 -0.1642
20048W        W62965  24.825  12.829  24.330 -0.0586  0.0027 -0.0289
20049W        W62966  26.689  14.484  21.705  0.2494 -0.2822  0.1021
20050W        W62967  25.165  10.823  19.053  0.0332 -0.2404  0.0116
20051W        W62968  27.312  13.000  23.603 -0.1859  0.1926  0.1490
20052W        W62969  27.712   8.862  22.064  0.1884 -0.1644 -0.0646
20053W        W62970  27.162  12.721  21.909 -0.1927 -0.2265 -0.0037
20054W        W62971  26.752  10.018  22.454 -0.1736 -0.1376 -0.0586
20055W        W62972  27.550  13.550  22.194  0.1033 -0.1200 -0.0858
20056W        W62973  26.397  14.213  21.424  0.1211 -0.3123 -0.0680
20057W        W62974  26.428  14.911  22.481 -0.0336  0.2008  0.0222
20058W        W62975  24.833  10.776  21.574 -0.2723  0.1607 -0.0993
20059W        W62976  28.518  12.009  21.888 -0.2051  0.0303 -0.0254
20060W        W62977  27.638  11.925  21.753 -0.0804 -0.1023  0.1486
20061W        W62978  28.593  11.256  21.251 -0.0864  0.0115  0.1600
20062W        W62979  27.109  13.817  22.583  0.0478 -0.1521  0.2366
20063W        W62980  27.357  11.144  21.011  0.2325  0.1617 -0.1238
20064W        W62981  27.428  14.538  24.061  0.1858 -0.0680  0.0934
20065W        W62982  25.163  13.308  20.605  0.1037  0.1379 -0.3084
20066W        W62983  27.434  12.531  21.105  0.0606 -0.0031 -0.1609
20067W        W62984  26.677  11.244  23.010 -0.2592 -0.1109  0.1092
20068W        W62985  26.922  11.302  21.140  0.3050  0.0223 -0.1013
20069W        W62986  28.170  14.690  23.374  0.1025  0.1775  0.1867
20070W        W62987  25.898  12.518  21.566  0.0645 -0.0363  0.2363
20071W        W62988  28.300  12.080  19.033 -0.0612  0.1573  0.2414
20072W        W62989  24.893  13.776  22.916 -0.0792 -0.2431  0.1814
20073W        W62990  27.895  11.677  22.816  0.1964  0.1523 -0.0243
20074W        W62991  27.715  14.269  24.988  0.1151 -0.0614  0.1200
20075W        W62992  27.800  11.605  20.722 -0.0647 -0.1785  0.1736
20076W        W62993  29.068  13.971  21.897  0.2247 -0.2781 -0.0748
20077W        W62994  28.562  10.969  22.242  0.3297 -0.0675 -0.0949
20078W        W62995  26.444  13.333  19.416 -0.0845  0.0891 -0.2054
20079W        W62996  28.789  11.829  22.508  0.1792 -0.3801 -0.0270
20080W        W62997  25.968  13.580  23.051  0.1146  0.0020  0.1003
20081W        W62998  25.092  11.647  22.343  0.1959  0.0056  0.2462
20082W        W62999  28.687  14.520  21.722  0.2441 -0.2362 -0.1555
20083W        W63000  27.829  14.289  22.053 -0.0911 -0.0779  0.1978
20084W        W63001  26.857  11.831  20.931 -0.0392  0.3776 -0.2087
20085W        W63002  25.570  12.113  22.963 -0.0015 -0.3551 -0.2520
20086W        W63003  25.600  13.903  21.316  0.0598  0.0193 -0.2267
20087W        W63004  27.703  12.862  23.265 -0.0773 -0.1035 -0.0219
20088W        W63005  30.243  10.433  23.734 -0.3415 -0.0813  0.3275
20089W        W63006  25.501  13.795  20.568 -0.2798 -0.1174 -0.0426
20090W        W63007  27.714  11.129  22.956 -0.4147 -0.1953 -0.0456
20091W        W63008  26.535  12.224  25.157  0.0920  0.0403 -0.2548
20092W        W63009  24.783  14.595  25.770  0.0567  0.1319 -0.2162
20093W        W63010  25.658  13.976  23.096  0.1883 -0.2793  0.0255
20094W        W63011  25.008  11.945  23.932 -0.3066 -0.2142 -0.1279
20095W        W63012  23.822  12.450  21.945 -0.2589  0.3020  0.2201
20096W        W63013  26.294  14.823  21.138 -0.0617 -0.0986  0.2499
20097W        W63014  30.635  13.305  22.879 -0.1201 -0.1250  0.2669
20098W        W63015  28.019  11.611  22.043 -0.1031 -0.0418  0.2556
20099W        W63016  26.857  13.765  24.245 -0.0284  0.0044 -0.0713
20100W        W63017  27.569  10.642  22.256  0.0967  0.0788 -0.3722
20101W        W63018  28.708  11.010  22.861 -0.1887  0.1318  0.1459
20102W        W63019  27.865  11.061  20.687 -0.3479 -0.0287 -0.0093
20103W        W63020  26.090  14.469  21.726  0.2207  0.2881 -0.1343
20104W        W63021  25.336  12.442  21.731 -0.0472 -0.1044  0.1643
20105W        W63022  25.945  13.521  20.711 -0.0961 -0.0717 -0.1413
20106W        W63023  26.995  10.720  21.766  0.0235  0.1915 -0.2794
20107W        W63024  27.843   7.986  24.117 -0.0750  0.3156  0.0687
20108W        W63025  26.832  11.598  24.734 -0.3997 -0.2766  0.0029
20109W        W63026  26.650  13.523  22.535 -0.1411 -0.2964 -0.1669
20110W        W63027  27.323  11.649  20.888 -0.2250  0.1588 -0.2581
20111W        W63028  27.434  13.498  22.783 -0.0371 -0.0251  0.0461
20112W        W63029  27.552  10.087  21.085  0.2687  0.1038 -0.0621
20113W        W63030  24.797  11.319  20.314 -0.0954 -0.1660 -0.0697
20114W        W63031  28.638  13.679  23.110  0.1062  0.1507  0.1327
20115W        W63032  28.255  12.937  22.936  0.0754 -0.1143  0.2128
20116W        W63033  28.200  12.603  21.547  0.0033  0.2118 -0.3303
20117W        W63034  31.226  14.016  23.955 -0.1011 -0.2421  0.3314
20118W        W63035  25.939  14.361  21.248  0.0599  0.2687  0.1005
20119W        W63036  28.080  11.890  24.595 -0.4649 -0.1651 -0.0318
20120W        W63037  27.714  11.341  25.311  0.2116 -0.0600  0.1048
20121W        W63038  25.433   9.703  21.646 -0.0907  0.2459  0.0363
20122W        W63039  27.016  11.470  22.482 -0.1221 -0.1680 -0.0385
20123W        W63040  28.354  13.427  20.622 -0.2097  0.3136 -0.5827
20124W        W63041  28.079  13.146  19.916 -0.5133  0.0777 -0.0875
20125W        W63042  28.476  15.352  24.441  0.0332 -0.2067  0.2369
20126W        W63043  28.238  14.060  23.428 -0.3570 -0.3675  0.1592
20127W        W63044  25.617  11.300  24.731  0.1188  0.0756 -0.2648
20128W        W63045  27.196  12.491  22.473  0.1396 -0.5127  0.2578
20129W        W63046  28.032  14.429  25.817  0.1670  0.1388 -0.0195
20130W        W63047  30.131  13.112  23.492 -0.2884 -0.0876  0.2508
20131W        W63048  27.812  11.549  23.352 -0.1556  0.0561 -0.0827
20132W        W63049  26.017  12.259  22.066 -0.1213  0.1522 -0.0983
20133W        W63050  26.110  11.502  25.119 -0.1792  0.3551 -0.2914
20134W        W63051  25.152  13.125  23.386 -0.0141 -0.0430  0.1227
20135W        W63052  26.433  12.082  22.812 -0.1239  0.3576  0.3417
20136W        W63053  25.763  10.962  21.621  0.1713 -0.1253  0.0507
20137W        W63054  26.470  11.685  23.087 -0.0923 -0.0087  0.0916
20138W        W63055  26.997  13.509  21.355 -0.0582 -0.1762 -0.1077
20139W        W63056  25.752  10.618  19.884 -0.1831 -0.1145 -0.1555
20140W        W63057  26.028  11.552  21.665  0.1853 -0.0359  0.0110
20141W        W63058  28.851  15.062  24.357  0.1636  0.0986  0.2614
20142W        W63059  27.191  13.619  21.828  0.1866  0.1948  0.1223
20143W        W63060  28.019  12.495  23.048  0.0330 -0.0672  0.0331
20144W        W63061  27.990  12.175  22.202 -0.0300  0.1914 -0.0549
20145W        W63062  30.671  13.278  18.453 -0.0106  0.2236 -0.1399
20146W        W63063  27.133  14.614  24.473 -0.2151 -0.0479 -0.0934
20147W        W63064  26.993  13.417  23.753 -0.0861  0.1433  0.3088
20148W        W63065  25.335  14.596  25.434  0.1103  0.0343 -0.1880
20149W        W63066  27.697  14.184  21.508  0.3749 -0.1054  0.1195
20150W        W63067  25.451  10.821  23.577 -0.1341  0.2146 -0.0777
20151W        W63068  26.146  13.050  21.323  0.0908 -0.1659  0.1045
20152W        W63069  25.792  15.201  22.083 -0.0107 -0.1864 -0.0299
20153W        W63070  27.871  13.757  25.076  0.1527 -0.1746 -0.0685
20154W        W63071  26.472  11.482  20.763  0.1743  0.1402  0.1677
20155W        W63072  27.180  12.360  21.527 -0.3695  0.2811  0.4998
20156W        W63073  25.372  15.036  23.661 -0.1527 -0.3076  0.0413
20157W        W63074  27.805  13.859  23.538  0.1095  0.1047 -0.1754
20158W        W63075  27.157  12.585  27.975  0.0858  0.1191  0.1700
20159W        W63076  26.846  12.605  25.012  0.1122 -0.1219  0.0564
20160W        W63077  28.272  13.826  24.706 -0.0116  0.1297  0.1138
20161W        W63078  29.236  12.923  24.591  0.0829 -0.1439  0.1685
20162W        W63079  24.886  10.389  25.307 -0.0356  0.0170 -0.1024
20163W        W63080  29.027  13.030  24.027  0.1210 -0.2426 -0.0773
20164W        W63081  26.280   9.171  27.148 -0.0427 -0.2830 -0.4120
20165W        W63082  27.754  13.576  27.364  0.1963 -0.2477  0.0292
20166W        W63083  29.637  17.008  27.170  0.3349  0.0630 -0.0067
20167W        W63084  27.671  12.528  25.237  0.2005  0.0770 -0.0736
20168W        W63085  28.076  11.567  28.196  0.2819 -0.1999  0.1065
20169W        W63086  28.669  15.396  27.003 -0.1451 -0.1484  0.0810
20170W        W63087  27.514  12.614  23.766  0.0267  0.0131 -0.0602
20171W        W63088  27.045  11.169  26.559 -0.1201  0.1782 -0.0247
20172W        W63089  28.464  14.937  26.863 -0.0846 -0.0258  0.0953
20173W        W63090  23.533  13.977  25.235  0.2469 -0.1279  0.0583
20174W        W63091  26.202  12.629  27.842 -0.1671 -0.0191 -0.0401
20175W        W63092  29.287  12.336  25.975 -0.4444 -0.3604  0.2120
20176W        W63093  26.867  15.320  25.636 -0.1590  0.1973 -0.0438
20177W        W63094  25.721  10.722  25.932 -0.0011 -0.0121  0.1209
20178W        W63095  28.309  12.586  27.964 -0.1224 -0.1038  0.1730
20179W        W63096  28.172  15.598  26.867 -0.2313  0.0658  0.1551
20180W        W63097  26.461  12.354  24.713  0.0061  0.1066 -0.0151
20181W        W63098  26.951  10.714  24.948  0.0979  0.0351 -0.1163
20182W        W63099  25.800  12.538  26.105 -0.2517 -0.0943  0.0846
20183W        W63100  27.981  11.993  26.582  0.2762 -0.1786 -0.2683
20184W        W63101  28.220  14.485  26.942 -0.0444  0.0924 -0.1308
20185W        W63102  28.551  13.894  25.273  0.0531  0.1130 -0.1987
20186W        W63103  27.906  15.500  25.447 -0.1549  0.0422  0.0534
20187W        W63104  28.369  11.694  28.572  0.1238  0.0549 -0.0925
20188W        W63105  26.073  14.847  25.875  0.4682  0.2137 -0.0524
20189W        W63106  25.256  15.191  26.596 -0.1073  0.0588 -0.1488
20190W        W63107  26.271  14.212  26.138 -0.1334  0.1107  0.0061
20191W        W63108  28.329  12.681  25.981  0.1703 -0.2647  0.0581
20192W        W63109  28.769  15.680  28.014 -0.0157 -0.0679 -0.2427
20193W        W63110  26.172  13.754  26.900 -0.0775 -0.1279  0.2004
20194W        W63111  26.528  13.779  25.793  0.3216 -0.0803 -0.1871
20195W        W63112  25.693  12.814  27.231 -0.0224 -0.0084  0.0313
20196W        W63113  26.965  13.784  25.517  0.0037  0.1658  0.1231
20197W        W63114  26.559  12.062  27.113 -0.1466  0.0370 -0.4468
20198W        W63115  27.091  11.910  24.357  0.2421  0.0166  0.0984
20199W        W63116  25.079  10.575  26.212  0.0280  0.1891  0.0713
20200W        W63117  28.048  13.091  25.974  0.1841  0.0077  0.0115
20201W        W63118  26.659  13.197  28.665 -0.0168 -0.0342 -0.2857
20202W        W63119  26.720  13.308  26.196 -0.2705 -0.2970  0.0772
20203W        W63120  28.807  11.004  28.078  0.1946 -0.4195  0.0745
20204W        W63121  26.846  14.066  25.121 -0.0193  0.2806 -0.0595
20205W        W63122  27.494  11.158  26.804 -0.2693 -0.0499  0.0896
20206W        W63123  25.125  12.827  23.886  0.0710  0.2998 -0.0241
20207W        W63124  30.449  14.130  24.401 -0.0388 -0.0559  0.0067
20208W        W63125  26.147  10.239  26.543 -0.0560 -0.1817  0.0227
20209W        W63126  25.313  13.808  25.944  0.1531 -0.3012  0.1659
20210W        W63127  25.276  11.007  27.076 -0.1638 -0.0606  0.1397
20211W        W63128  29.544  12.714  24.958  0.1962 -0.1034 -0.3290
20212W        W63129  26.553  13.403  24.484 -0.1046 -0.0044  0.0257
20213W        W63130  29.444  13.124  28.567 -0.0106 -0.0805  0.0660
20214W        W63131  25.921  13.832  26.394 -0.1865 -0.0880 -0.1987
20215W        W63132  25.937  13.024  26.260 -0.2510 -0.2693 -0.0953
20216W        W63133  28.552  15.030  24.782  0.3193  0.0408 -0.0688
20217W        W63134  29.490  15.845  25.407  0.1842 -0.2213  0.1121
20218W        W63135  28.598  16.235  25.315 -0.2043  0.1333 -0.0570
20219W        W63136  25.351  11.045  26.078 -0.0902  0.1365 -0.0504
20220W        W63137  26.141  15.588  27.716 -0.0166  0.2177 -0.0308
20221W        W63138  26.106  11.670  27.681 -0.0730 -0.0719 -0.0210
20222W        W63139  26.969  11.796  23.871 -0.3174 -0.2139 -0.1634
20223W        W63140  28.402  14.233  28.910 -0.0152  0.1892  0.0982
20224W        W63141  24.088  14.079  29.794 -0.5495  0.0832  0.2520
20225W        W63142  30.485  11.643  23.760  0.2246 -0.0790 -0.0594
20226W        W63143  26.610  12.613  25.596  0.0526 -0.3337 -0.0789
20227W        W63144  28.485  14.119  27.259  0.0085  0.1742 -0.2531
20228W        W63145  28.258  11.851  22.447 -0.0879 -0.0888  0.2040
20229W        W63146  27.947  10.394  25.816 -0.3656 -0.1336 -0.1818
20230W        W63147  27.257  10.776  26.351  0.3114 -0.0106 -0.1656
20231W        W63148  26.390  12.618  23.950 -0.2622  0.2025  0.1492
20232W        W63149  28.277  13.761  25.691 -0.0348  0.1362 -0.1294
20233W        W63150  29.984  11.389  26.016 -0.0009 -0.1672 -0.4034
20234W        W63151  28.543  11.744  24.499  0.2590 -0.2002 -0.2667
20235W        W63152  26.673  14.856  27.708  0.0152  0.0897  0.0352
20236W        W63153  25.836  12.038  27.292  0.2099  0.0195 -0.0599
20237W        W63154  27.136  11.615  27.171 -0.0773 -0.2604  0.0909
20238W        W63155  27.384  14.152  25.377  0.1978 -0.0348 -0.0696
20239W        W63156  25.463  11.371  26.564  0.0652  0.0807 -0.4397
20240W        W63157  25.706  12.541  25.208 -0.1817 -0.0125  0.2148
20241W        W63158  23.280  13.097  26.415  0.1662  0.0720  0.0466
20242W        W63159  25.313  11.959  27.512 -0.1609 -0.1262  0.0407
20243W        W63160  30.475  11.338  25.917 -0.0681 -0.1717 -0.1219
20244W        W63161  25.219  11.057  29.927  0.1362  0.0112  0.2184
20245W        W63162  27.852  11.764  25.638  0.1789  0.0600 -0.2062
20246W        W63163  26.425  13.755  26.301 -0.1339 -0.2351 -0.1048
20247W        W63164  29.859  12.695  23.794 -0.1772  0.1364 -0.1729
20248W        W63165  29.361  13.023  25.343  0.0686 -0.1420 -0.2810
20249W        W63166  29.324  13.941  23.474 -0.3447  0.0937 -0.0422
20250W        W63167  24.436  13.242  25.880  0.0821 -0.2571 -0.1687
20251W        W63168  26.390  13.062  25.454  0.2221  0.1481  0.2432
20252W        W63169  25.792  12.374  26.853 -0.1922  0.3075 -0.1933
20253W        W63170  23.912  10.904  25.625  0.0185 -0.0072 -0.1434
20254W        W63171  28.232  11.802  27.692 -0.1178  0.0864 -0.1037
20255W        W63172  25.761  10.833  24.607 -0.1174 -0.0491  0.1674
20256W        W63173  29.141  11.120  27.263  0.0238  0.2175  0.1932
20257W        W63174  27.847  12.178  24.105  0.1545  0.0410  0.3027
20258W        W63175  25.278  13.200  26.424  0.0660 -0.4045  0.2838
20259W        W63176  26.930  12.724  29.210 -0.2373  0.1601  0.4967
20260W        W63177  28.902  15.548  24.393  0.3629 -0.1321  0.3603
20261W        W63178  29.792  16.865  26.550  0.2510  0.2012  0.1077
20262W        W63179  28.971  12.909  26.712  0.0207  0.0870  0.1231
20263W        W63180  24.564  12.916  27.295  0.3344 -0.1463 -0.0151
20264W        W63181  26.022   9.824  24.875 -0.3141  0.0902  0.1795
20265W        W63182  27.736  16.235  26.670  0.2075 -0.0454  0.0737
20266W        W63183  26.524  14.570  26.334  0.0627  0.0502 -0.1856
20267W        W63184  26.588  10.636  23.866 -0.1612 -0.0211 -0.0337
20268W        W63185  29.112  14.890  28.219  0.0133  0.0843  0.1254
20269W        W63186  27.549  13.702  25.562 -0.1185  0.0696 -0.0327
20270W        W63187  26.976  14.080  27.214  0.0483 -0.1973 -0.4222
20271W        W63188  26.122  12.655  29.625 -0.0413  0.0312 -0.2462
20272W        W63189  27.749  11.837  27.638 -0.0917  0.0599 -0.1974
20273W        W63190  27.317  12.897  25.067 -0.2040 -0.2104 -0.0741
20274W        W63191  27.099  12.654  24.016 -0.1210  0.3035  0.3987
20275W        W63192  28.329  14.360  24.538  0.0600  0.5091  0.0112
20276W        W63193  26.195  12.720  25.027 -0.0481 -0.1725 -0.3375
20277W        W63194  27.174  13.316  26.376  0.2887  0.0824 -0.0070
20278W        W63195  27.783  15.566  26.524 -0.5136 -0.1976 -0.1538
20279W        W63196  27.478  10.574  23.416  0.2904 -0.0862  0.0874
20280W        W63197  25.501  15.929  27.140 -0.0080 -0.0843 -0.0943
20281W        W63198  28.959  10.742  28.509 -0.2032 -0.0736 -0.1326
20282W        W63199  26.850  13.061  25.314  0.0221 -0.1873  0.2203
20283W        W63200  26.227  15.525  26.268 -0.1951  0.4398  0.2289
20284W        W63201  28.073   9.577  26.180  0.3029  0.0747 -0.3199
20285W        W63202  28.218  11.356  25.425 -0.1319 -0.0586  0.1572
20286W        W63203  28.303  13.075  27.991 -0.1825 -0.0159 -0.0000
20287W        W63204  28.423  12.227  24.429  0.1113 -0.2304  0.0322
20288W        W63205  27.269  10.812  22.968 -0.1525  0.2504 -0.1073
20289W        W63206  26.352  10.108  21.468  0.2280  0.3198 -0.2877
20290W        W63207  24.529  14.608  26.957 -0.2950 -0.0889  0.1013
20291W        W63208  28.266  11.616  26.805  0.1283 -0.1907 -0.0398
20292W        W63209  28.462  12.312  25.284 -0.2046 -0.0487  0.1137
20293W        W63210  27.420  10.959  25.327 -0.0288  0.2640 -0.1142
20294W        W63211  30.162  15.285  25.581  0.2324 -0.3760 -0.3887
20295W        W63212  26.544  12.015  26.219  0.1831  0.1697  0.0785
20296W        W63213  27.409  11.731  25.912 -0.4353  0.2112  0.1526
20297W        W63214  28.833  13.319  26.392 -0.1303 -0.2388 -0.0002
20298W        W63215  26.654  11.274  25.899  0.1477  0.1012 -0.1982
20299W        W63216  25.643  11.422  25.271 -0.1653  0.1501  0.2609
20300W        W63217  28.786  10.488  25.020  0.0230  0.5591 -0.0979
20301W        W63218  26.042  14.043  25.316  0.1111 -0.1194  0.1081
20302W        W63219  27.113  11.383  26.076 -0.0760 -0.0224  0.0231
20303W        W63220  28.337  10.779  28.863  0.1996 -0.3460  0.0547
20304W        W63221  28.002  10.804  26.138  0.1930  0.0729  0.2315
20305W        W63222  28.923  12.912  26.138  0.0921  0.5522  0.2138
20306W        W63223  27.628  12.902  24.630  0.2117  0.0356 -0.0734
20307W        W63224  28.725  11.806  26.800 -0.3713  0.2682  0.0162
20308W        W63225  27.422  14.511  25.805 -0.1170  0.0846  0.2031
20309W        W63226  29.603  11.479  26.317  0.1336  0.0629  0.1307
20310W        W63227  25.708  14.605  27.061  0.1753  0.1777  0.1971
20311W        W63228  24.778  15.374  26.589 -0.0190  0.0384  0.1178
20312W        W63229  28.522  12.918  26.460  0.0102 -0.0939 -0.2399
20313W        W63230  27.862  12.473  26.669  0.0228  0.2272  0.2838
20314W        W63231  25.982  11.992  29.496  0.5699 -0.2793 -0.0965
20315W        W63232  27.883  12.609  26.208 -0.0087 -0.1956 -0.0766
20316W        W63233  29.721  15.137  24.821 -0.1304  0.2177 -0.0003
20317W        W63234  27.464  13.708  26.243  0.0231  0.1760  0.0220
20318W        W63235  27.159  11.232  25.045  0.2761 -0.2591  0.3150
20319W        W63236  26.599  17.185  26.281 -0.3789  0.1462 -0.0424
20320W        W63237  26.338  13.868  24.405 -0.0179  0.4830 -0.4566
20321W        W63238  27.015  13.576  27.064  0.0668  0.1257  0.1102
20322W        W63239  24.307  12.126  23.964  0.1351  0.1626  0.0524
20323W        W63240  27.850  10.148  27.009 -0.0039 -0.1224  0.0604
20324W        W63241  26.161  13.566  25.556  0.3359  0.1185 -0.0765
20325W        W63242  26.720  13.036  24.136  0.2800 -0.1822 -0.1784
20326W        W63243  27.096  12.184  25.616  0.0112 -0.1610 -0.0316
20327W        W63244  29.687  10.416  24.761 -0.1654  0.0624  0.1332
20328W        W63245  28.628  14.500  24.106  0.1126 -0.3825 -0.1658
20329W        W63246  26.796  10.867  26.196  0.3132 -0.0549  0.0370
20330W        W63247  26.005  11.929  28.995  0.0782  0.1123  0.1099
20331W        W63248  25.581  14.806  26.481 -0.2565  0.2308 -0.1130
20332W        W63249  26.165  13.767  27.385 -0.0108  0.2152  0.1913
20333W        W63250  29.138  11.557  26.399 -0.0039  0.2075  0.0367
20334W        W63251  28.261  13.399  26.521 -0.1686 -0.0116  0.2321
20335W        W63252  25.484  12.366  27.273  0.0555  0.0799  0.2112
20336W        W63253  26.157  12.450  25.427  0.0313  0.3067 -0.2480
20337W        W63254  28.037  12.143  25.987 -0.4137 -0.1253  0.0494
20338W        W63255  28.703  13.975  25.825 -0.2152  0.2052 -0.1679
20339W        W63256  27.268  12.332  23.457  0.2266  0.0257 -0.1601
20340W        W63257  28.984  13.650  25.315  0.1746 -0.0217 -0.3658
20341W        W63258  25.531  13.588  25.386 -0.0547 -0.1213 -0.2412
20342W        W63259  23.651  13.227  24.818  0.0975  0.1229  0.1466
20343W        W63260  25.260  14.378  26.485  0.0435  0.1509 -0.0377
20344W        W63261  27.049  12.646  27.403  0.0326 -0.0956 -0.0913
20345W        W63262  25.830  10.979  27.085 -0.1556 -0.0963 -0.1413
20346W        W63263  26.286  13.278  25.952  0.0618  0.1294 -0.0740
20347W        W63264  26.742  11.542  26.399  0.3607  0.0982 -0.2446
20348W        W63265  28.166  13.938  27.605 -0.0680 -0.0520  0.0146
20349W        W63266  28.007  11.339  28.623 -0.0344  0.1155 -0.1135
20350W        W63267  28.543  13.133  25.940  0.3247  0.2888  0.1909
20351W        W63268  26.426   9.451  26.165  0.2463 -0.0271 -0.3624
20352W        W63269  28.898  16.735  24.146  0.1105 -0.0318 -0.0857
20353W        W63270  28.873  12.030  28.553 -0.1905  0.0069 -0.0428
20354W        W63271  28.455  14.407  23.673  0.1347  0.2075 -0.0583
20355W        W63272  24.528  14.929  26.352  0.2694 -0.0344 -0.1087
20356W        W63273  27.415  13.072  25.580 -0.2174 -0.1841 -0.0936
20357W        W63274  26.459  12.781  26.076  0.0998 -0.1197 -0.6416
20358W        W63275  25.432  13.900  26.555 -0.0028 -0.2761 -0.2092
20359W        W63276  26.354  12.849  24.494  0.4146 -0.1420 -0.0928
20360W        W63277  22.195  13.903  28.758  0.0237 -0.0665  0.0950
20361W        W63278  28.319   9.406  24.265  0.1332 -0.1790  0.2031
20362W        W63279  28.716  11.339  25.040  0.1128  0.1162 -0.2054
20363W        W63280  27.152  12.532  28.468  0.2826  0.0633  0.2505
20364W        W63281  29.258  11.842  26.878 -0.0615 -0.1420  0.2541
20365W        W63282  29.145  11.709  25.040 -0.0238 -0.1752  0.0149
20366W        W63283  28.431  11.994  29.400  0.1737 -0.1210 -0.2479
20367W        W63284  25.918  11.975  26.149 -0.0991  0.0474 -0.2134
20368W        W63285  28.483  12.214  25.742  0.1126  0.0103  0.1312
20369W        W63286  26.275  12.084  26.759  0.3104 -0.2421  0.2091
20370W        W63287  27.889  14.131  28.825 -0.0262  0.1629 -0.0286
20371W        W63288  24.940  12.894  25.547  0.1944 -0.0388 -0.1270
20372W        W63289  28.274  11.714  24.086 -0.1909 -0.0967  0.0383
20373W        W63290  26.365  11.525  24.168 -0.0188  0.1021  0.1116
20374W        W63291  25.066  11.975  29.924 -0.2824  0.1016 -0.0657
20375W        W63292  30.340  13.923  25.103  0.3318  0.2646 -0.1864
20376W        W63293  27.727  15.105  25.742 -0.0081  0.0034  0.1096
20377W        W63294  31.078  11.670  26.803  0.1584  0.0908  0.0161
20378W        W63295  25.243  15.185  28.000  0.0814 -0.0961 -0.0426
20379W        W63296  28.123  10.835  24.496  0.1347 -0.0404  0.2051
20380W        W63297  27.549  12.008  24.579  0.1626  0.0276 -0.0029
20381W        W63298  25.882  14.526  25.290  0.0450 -0.0244 -0.0859
20382W        W63299  27.908  10.844  25.611  0.0883  0.0167 -0.1981
20383W        W63300  28.661  11.284  27.033  0.1593 -0.1357 -0.2341
20384W        W63301  26.604  10.610  26.612  0.1435 -0.0925  0.0646
20385W        W63302  28.405  11.173  28.377 -0.2149 -0.2307 -0.0565
20386W        W63303  29.730  12.487  25.772 -0.0793 -0.0175  0.1258
20387W        W63304  27.418  13.894  27.090  0.2594  0.0203 -0.2139
20388W        W63305  25.227  11.766  26.431 -0.0650  0.0965  0.1910
20389W        W63306  29.733  14.852  29.143 -0.2692  0.0432 -0.2056
20390W        W63307  29.436  11.841  23.138 -0.4304 -0.0741  0.1931
20391W        W63308  29.304  13.123  26.427 -0.0565  0.0171  0.2614
20392W        W63309  27.964  12.455  24.590  0.2184 -0.2699  0.3062
20393W        W63310  27.868  15.099  25.175  0.0795  0.1117  0.0573
20394W        W63311  26.978  11.427  25.546 -0.0871  0.0699  0.0844
20395W        W63312  28.579  12.540  27.209 -0.0705  0.0164 -0.1859
20396W        W63313  26.343  11.846  24.779 -0.0749  0.0660  0.1390
20397W        W63314  27.496  12.968  26.472  0.1238  0.0478 -0.0643
20398W        W63315  27.500  14.240  26.308  0.3359  0.0924 -0.1936
20399W        W63316  28.200  11.291  23.094  0.2433 -0.2001  0.2940
20400W        W63317  27.574  12.582  24.240 -0.0716 -0.1327  0.2071
20401W        W63318  27.978  11.375  23.881 -0.2238 -0.2274 -0.0551
20402W        W63319  25.827  13.545  27.648 -0.0329  0.2417  0.0510
20403W        W63320  28.576  13.027  24.847  0.2157  0.1329 -0.0700
20404W        W63321  26.640  13.740  24.805  0.0133 -0.0089  0.1130
20405W        W63322  26.913  12.917  25.887  0.0428 -0.2312 -0.0089
20406W        W63323  30.011  13.729  28.708 -0.3575 -0.0779  0.0333
20407W        W63324  28.123  13.020  23.518  0.1420  0.2533  0.1669
20408W        W63325  27.207  14.298  26.794  0.3425  0.2854  0.0325
20409W        W63326  25.973  11.043  25.036 -0.0895 -0.1832  0.2119
20410W        W63327  25.100  13.804  28.262 -0.2880 -0.0739 -0.1108
20411W        W63328  23.921  16.990  26.840  0.1871  0.0677 -0.3714
20412W        W63329  26.848  14.220  26.447 -0.1012  0.0510 -0.0428
20413W        W63330  25.758  16.599  26.509 -0.3047  0.0227  0.2825
20414W        W63331  27.486  11.007  28.660 -0.1673 -0.0379  0.1502
20415W        W63332  27.901  14.803  27.101 -0.1387 -0.0572 -0.0618
20416W        W63333  27.419  11.735  25.419  0.1574  0.3177  0.2515
20417W        W63334  27.648  11.997  25.128  0.0873 -0.0768  0.3047
20418W        W63335  29.110  13.107  28.073  0.2336  0.1449 -0.1589
20419W        W63336  26.851  11.166  27.356  0.1825 -0.0174 -0.0105
20420W        W63337  28.673  17.413  26.675 -0.0603 -0.1983 -0.1063
20421W        W63338  28.316  12.391  26.335  0.0417  0.3817 -0.3677
20422W        W63339  26.063  12.816  25.786 -0.3743 -0.1054 -0.0580
20423W        W63340  24.778  13.729  27.329 -0.1692 -0.0165  0.1993
20424W        W63341  26.779  13.193  29.142  0.2554  0.1381 -0.2701
20425W        W63342  27.224  13.994  25.879  0.0151  0.1911 -0.1410
20426W        W63343  26.447  10.841  24.992 -0.1537 -0.0358 -0.0718
20427W        W63344  28.539  13.217  26.986 -0.0209  0.4651 -0.0980
20428W        W63345  24.584  13.928  28.155 -0.0839 -0.0272  0.5083
20429W        W63346  23.917  14.037  27.429 -0.2553  0.1506 -0.1048
20430W        W63347  25.258  14.869  24.780  0.0193 -0.1282 -0.0394
20431W        W63348  29.833  15.219  24.170  0.1498  0.2573  0.1904
20432W        W63349  26.922  13.763  26.207  0.0872  0.0864 -0.0695
20433W        W63350  27.944  15.925  27.749  0.1307 -0.1138 -0.2890
20434W        W63351  28.083  14.639  25.296  0.1566 -0.1488  0.1282
20435W        W63352  25.168  13.823  24.856 -0.1776 -0.1686 -0.1134
20436W        W63353  23.926  13.484  24.521  0.1720 -0.1602  0.3250
20437W        W63354  29.037  14.200  24.313  0.3277  0.2016 -0.1935
20438W        W63355  26.683  13.347  25.678  0.3652 -0.0239  0.1745
20439W        W63356  27.160  13.694  29.877 -0.2267  0.4271  0.0584
20440W        W63357  30.350  11.817  23.289  0.0425 -0.2722  0.1491
20441W        W63358  29.472  11.778  24.704  0.1757 -0.0848 -0.0108
20442W        W63359  28.826  11.495  25.994 -0.1571 -0.3001 -0.2321
20443W        W63360  28.040  13.469  26.987  0.3271  0.3440  0.0653
20444W        W63361  27.046  11.108  28.238  0.2174 -0.0106 -0.0567
20445W        W63362  26.922  11.883  25.290 -0.2192 -0.1400 -0.1770
20446W        W63363  24.798   9.558  27.350  0.1119 -0.1560 -0.0494
20447W        W63364  29.369  11.989  27.309  0.1417 -0.1381  0.4236
20448W        W63365  25.745  13.369  26.643  0.1150  0.1449  0.2776
20449W        W63366  27.663  15.528  26.041 -0.0180  0.1177 -0.2814
20450W        W63367  27.137  12.670  25.475 -0.1153  0.0190  0.0138
20451W        W63368  28.491  13.738  26.881 -0.2157  0.4337  0.2619
20452W        W63369  27.252  10.194  26.188 -0.2756  0.1768 -0.2275
20453W        W63370  27.703  15.970  26.220 -0.1803 -0.0530  0.0152
20454W        W63371  27.698  10.728  27.774 -0.0099  0.1229 -0.0832
20455W        W63372  28.499  15.344  26.543  0.0662 -0.1220  0.1622
20456W        W63373  26.666  12.965  27.128 -0.0838 -0.2550  0.0803
20457W        W63374  28.038  15.075  26.701  0.0796  0.0588  0.0941
20458W        W63375  26.099  12.326  24.360  0.2012  0.1192  0.1058
20459W        W63376  30.143  11.899  25.308  0.4950 -0.3194  0.0582
20460W        W63377  26.220  12.488  26.433 -0.1757  0.0344 -0.4782
20461W        W63378  29.915  10.545  26.074 -0.0885  0.0949 -0.2421
20462W        W63379  27.220  12.438  26.560 -0.1881  0.1077  0.0841
20463W        W63380  26.997  10.477  23.334 -0.1967 -0.0460 -0.0602
20464W        W63381  28.287  12.820  26.967 -0.1648  0.1060  0.1338
20465W        W63382  26.099  11.967  25.398 -0.1400 -0.3863  0.0876
20466W        W63383  28.008  13.550  26.102 -0.2074 -0.1250  0.2176
20467W        W63384  30.229  13.452  26.728 -0.2134 -0.1156 -0.0737
20468W        W63385  27.748  12.724  25.751  0.1311 -0.1761 -0.1466
20469W        W63386  27.298  13.523  27.561  0.0853 -0.0908  0.1482
20470W        W63387  25.415  12.272  26.357 -0.0588 -0.2008  0.1332
20471W        W63388  28.244  11.472  24.856  0.1303 -0.2623  0.0768
20472W        W63389  26.857  16.128  27.475  0.0390 -0.2065  0.1374
20473W        W63390  26.027  12.488  27.394 -0.0670  0.0890  0.0557
20474W        W63391  28.666  14.589  27.099 -0.3396 -0.0175  0.3925
20475W        W63392  26.904  12.133  24.736 -0.2624 -0.1049  0.2251
20476W        W63393  27.982  15.162  24.644  0.1809  0.3660  0.0615
20477W        W63394  29.581  13.529  27.270  0.0841  0.1788 -0.0049
20478W        W63395  26.558  14.525  25.206 -0.0295  0.0567  0.0101
20479W        W63396  28.954  12.219  25.086  0.2634 -0.0542  0.1276
20480W        W63397  29.348  13.968  26.925 -0.0801  0.2276 -0.1811
20481W        W63398  24.872  10.146  26.138  0.0706  0.0130 -0.0486
20482W        W63399  28.213  14.041  26.087  0.1475 -0.0153  0.0795
20483W        W63400  29.986  13.675  26.339 -0.1534 -0.2919  0.0344
20484W        W63401  27.469  11.289  25.741  0.2782  0.0349 -0.0959
20485W        W63402  26.592  12.875  27.828  0.1160  0.0518 -0.0602
20486W        W63403  24.069  14.804  26.624 -0.3376  0.2863 -0.4828
20487W        W63404  29.207   9.625  25.606  0.4277  0.1081 -0.0441
20488W        W63405  27.876  12.302  27.575 -0.1818  0.0509 -0.1655
20489W        W63406  29.725  12.734  24.446  0.0908  0.2073  0.0488
20490W        W63407  27.831  10.035  28.500 -0.4596 -0.2513  0.1255
20491W        W63408  26.531  12.912  26.592  0.1107 -0.1597 -0.1829
20492W        W63409  28.147  13.883  26.549  0.3966  0.0473  0.0679
20493W        W63410  24.929  11.248  26.310 -0.0630  0.2729  0.0813
20494W        W63411  27.556  12.147  26.310 -0.0275 -0.0332 -0.0978
20495W        W63412  25.628  12.580  24.192 -0.1624 -0.1190 -0.2345
20496W        W63413  26.322  15.283  25.604 -0.0282  0.1127 -0.0452
20497W        W63414  28.630  14.027  26.387 -0.1998 -0.3485  0.1545
20498W        W63415  27.779  13.388  26.489 -0.1493 -0.1734  0.1742
20499W        W63416  30.242  14.566  26.016  0.1632  0.0156  0.1651
20500W        W63417  27.451  10.253  24.402  0.0449  0.0587  0.3228
20501W        W63418  30.450  12.326  23.217 -0.1527 -0.4203  0.3556
20502W        W63419  28.263  10.219  26.191  0.1468  0.0679 -0.2247
20503W        W63420  27.316  12.481  25.991 -0.0200  0.1290 -0.1498
20504W        W63421  23.964  12.058  24.390 -0.0853  0.5095  0.0350
20505W        W63422  25.693  12.285  25.623  0.0448  0.0553 -0.0855
20506W        W63423  26.821  12.528  26.962  0.2760 -0.1007  0.2966
20507W        W63424  27.579  12.144  29.434 -0.3318  0.0326 -0.2128
20508W        W63425  24.032  12.944  27.126 -0.1011 -0.2619 -0.1391
20509W        W63426  25.581  13.511  26.181  0.0136 -0.2356 -0.3181
20510W        W63427  26.051  12.227  23.170 -0.0598 -0.0025  0.4677
20511W        W63428  30.182  12.912  26.346 -0.1742 -0.0200 -0.0032
20512W        W63429  26.941  10.189  26.591 -0.1173 -0.2027  0.0494
20513W        W63430  24.290   9.658  24.891  0.0351 -0.3304  0.0979
20514W        W63431  28.934  13.445  25.884  0.0909  0.0988  0.3652
20515W        W63432  30.001  15.844  25.424  0.1885  0.1250 -0.3284
20516W        W63433  29.445  11.012  25.583  0.5458 -0.0334 -0.1614
20517W        W63434  29.362  12.235  27.968  0.1017 -0.3570  0.1001
20518W        W63435  23.935  14.071  24.697 -0.3344 -0.1201 -0.1178
20519W        W63436  26.129  12.374  29.215 -0.1092 -0.0469  0.1201
20520W        W63437  26.361  10.080  27.440  0.1039 -0.3040 -0.3819
20521W        W63438  25.251  11.187  25.562 -0.2204 -0.0696  0.1346
20522W        W63439  25.589  10.567  26.870 -0.0633 -0.4243 -0.2105
20523W        W63440  26.912  14.749  26.022 -0.0714 -0.1180 -0.0715
20524W        W63441  27.736  14.729  26.120  0.2126  0.3327  0.4098
20525W        W63442  27.834  13.287  28.155 -0.2573  0.0019  0.0475
20526W        W63443  26.894  13.236  27.453 -0.0281 -0.0739 -0.0961
20527W        W63444  26.014  10.161  28.100 -0.0951  0.3483  0.0908
20528W        W63445  29.474  14.433  25.272  0.2770  0.0217  0.1386
20529W        W63446  26.509  15.197  26.053  0.1305  0.1423 -0.1130
20530W        W63447  28.489  12.762  24.318  0.2309 -0.0602 -0.0554
20531W        W63448  30.727  12.076  25.040 -0.1064  0.0738 -0.0865
20532W        W63449  28.380  13.412  24.477 -0.0361  0.1366 -0.1568
20533W        W63450  25.432  11.900  26.977 -0.1089  0.1131  0.0992
20534W        W63451  24.254  14.700  29.021 -0.4705 -0.3767  0.4438
20535W        W63452  27.571  13.186  26.038 -0.1579  0.2611 -0.1628
20536W        W63453  26.769  10.854  25.445 -0.1668  0.0814  0.4002
20537W        W63454  27.116  10.598  26.866 -0.1218 -0.0398  0.0268
20538W        W63455  27.714  14.638  23.617  0.0665  0.0529 -0.0394
20539W        W63456  25.340  14.172  27.938  0.0877  0.1256  0.0623
20540W        W63457  28.104  12.178  24.988 -0.1383 -0.0891 -0.0232
20541W        W63458  25.855  12.942  27.700  0.1158  0.1241 -0.1255
20542W        W63459  27.369  15.364  25.146  0.2345  0.1249 -0.0864
20543W        W63460  27.716  12.957  26.927  0.0643  0.0169 -0.1201
20544W        W63461  27.371  13.664  24.464 -0.0522 -0.2187  0.1816
20545W        W63462  26.484  14.158  27.177 -0.2508  0.2735  0.0134
20546W        W63463  28.992  11.597  27.276 -0.1279  0.2831  0.1101
20547W        W63464  27.833  15.728  27.263  0.0198  0.0993  0.2372
20548W        W63465  26.289  14.211  28.116 -0.0255  0.2976  0.0015
20549W        W63466  28.342  13.633  28.059 -0.2799 -0.0621 -0.1979
20550W        W63467  26.326  11.663  25.963  0.3517 -0.0760  0.0582
20551W        W63468  26.258  11.081  25.453  0.3214  0.0692 -0.1375
20552W        W63469  28.031  12.866  24.966 -0.1468  0.0572 -0.1763
20553W        W63470  29.592  12.627  26.253 -0.1467  0.0579 -0.0240
20554W        W63471  26.768  10.955  26.888  0.2682 -0.1118  0.0417
20555W        W63472  28.778  11.847  25.425  0.2583  0.2316 -0.0017
20556W        W63473  28.480  13.579  26.134  0.1822  0.1771 -0.1003
20557W        W63474  28.033  11.343  25.892 -0.1153  0.1110  0.1525
20558W        W63475  25.775  13.342  30.871  0.2018 -0.0525  0.2508
20559W        W63476  25.797  12.934  28.641 -0.1713  0.4644 -0.0230
20560W        W63477  26.015  13.397  28.651 -0.1627  0.4428  0.1526
20561W        W63478  29.953  12.094  29.252 -0.0015 -0.0848 -0.0977
20562W        W63479  24.114  11.297  29.378 -0.0286  0.3085 -0.0868
20563W        W63480  25.667  15.331  27.708 -0.0997  0.0511 -0.2768
20564W        W63481  26.425  12.358   0.409 -0.0038  0.1158 -0.1484
20565W        W63482  28.401  13.597  29.780  0.2333 -0.0799 -0.0345
20566W        W63483  28.193  13.895  31.638  0.1500  0.1068  0.0804
20567W        W63484  26.616  12.781  29.723 -0.2401 -0.1300 -0.0007
20568W        W63485  26.182  13.643  31.075  0.1196 -0.0380  0.0389
20569W        W63486  27.851  15.554  30.848 -0.1704  0.0480 -0.0482
20570W        W63487  23.715  13.040  28.914  0.1058 -0.0080  0.1968
20571W        W63488  24.670  12.326  29.478  0.3534  0.1314 -0.2747
20572W        W63489  27.187  13.808  30.708  0.2606 -0.0302 -0.1550
20573W        W63490  26.185  12.938  27.330 -0.0323 -0.0339  0.0219
20574W        W63491  26.668  14.200  29.405  0.0425 -0.1498  0.0406
20575W        W63492  23.638  13.261  27.672 -0.0498  0.0834  0.0902
20576W        W63493  25.665  12.532  29.637 -0.0338  0.1958  0.4933
20577W        W63494  25.682  12.011  30.736 -0.2315 -0.1801  0.0823
20578W        W63495  25.942   9.955  30.187 -0.0035  0.0239  0.0756
20579W        W63496  26.310  13.283  27.685 -0.1292  0.3433 -0.2603
20580W        W63497  25.982  13.460  28.126  0.1547 -0.0662 -0.0107
20581W        W63498  22.586  12.299  31.250  0.1228  0.1532  0.3156
20582W        W63499  25.495  12.806  30.079  0.1273  0.3751 -0.1236
20583W        W63500  27.413  13.345  31.449  0.1591 -0.1439 -0.1508
20584W        W63501  25.971  13.890  28.979  0.1835 -0.0775  0.0266
20585W        W63502  27.737  14.793  30.211 -0.0268 -0.1667  0.3064
20586W        W63503  28.238  15.967  28.717 -0.0381  0.2808 -0.0577
20587W        W63504  25.037  12.910  29.916 -0.1208  0.2985 -0.3555
20588W        W63505  24.506  14.115  29.038  0.2087  0.1044  0.0677
20589W        W63506  25.749  14.897  27.847 -0.0278 -0.3981  0.2808
20590W        W63507  25.152  16.431  27.342  0.1780 -0.1598 -0.2377
20591W        W63508  29.524  11.494  27.224  0.0922  0.0795  0.2700
20592W        W63509  29.236  13.494  31.081 -0.0859 -0.0053  0.1332
20593W        W63510  27.540  14.402  29.900 -0.0195  0.0245  0.3674
20594W        W63511  26.452  13.173  24.966  0.0871 -0.1507  0.0746
20595W        W63512  26.006  15.127  30.975 -0.2864 -0.0454 -0.2072
20596W        W63513  24.454  15.124   1.891 -0.1387  0.0784  0.0963
20597W        W63514  26.814  12.242  28.935 -0.1147  0.3237 -0.0657
20598W        W63515  27.477  13.834  28.686  0.2455 -0.1837  0.0207
20599W        W63516  27.649  12.400  28.321  0.0009 -0.1420 -0.0758
20600W        W63517  26.226  12.118  29.902  0.2023  0.0214 -0.0180
20601W        W63518  26.158  11.767  31.263  0.1768  0.1720 -0.3967
20602W        W63519  24.868  15.924  28.744  0.0375  0.0023  0.2316
20603W        W63520  28.588  10.363  31.387  0.2421  0.0303  0.3022
20604W        W63521  27.612  12.721  27.464  0.0904  0.0528 -0.0552
20605W        W63522  29.671  11.330  28.953 -0.0721  0.1900  0.0420
20606W        W63523  26.528  13.651  28.871 -0.1106 -0.1987  0.0253
20607W        W63524  28.600  11.850  29.962 -0.1468  0.2845 -0.0004
20608W        W63525  27.361  11.387   0.325  0.4345 -0.1665  0.1226
20609W        W63526  25.999  15.397  28.305 -0.0680  0.0782 -0.1883
20610W        W63527  26.279  13.482  30.591  0.1237 -0.3445  0.1574
20611W        W63528  28.377  12.031  31.697  0.0143  0.1437 -0.1851
20612W        W63529  25.358  12.174  28.109  0.1359  0.0611 -0.1062
20613W        W63530  28.742  13.085  31.436  0.3486 -0.2116  0.0576
20614W        W63531  27.694  16.119  28.197  0.2089 -0.3773  0.2494
20615W        W63532  24.994  12.286  28.618  0.0754 -0.1074 -0.0851
20616W        W63533  29.012  12.021  26.451  0.0025  0.0098 -0.1129
20617W        W63534  29.070  15.469  28.856 -0.1254  0.0237 -0.2663
20618W        W63535  28.838  14.012  29.300  0.1935 -0.4303 -0.1313
20619W        W63536  25.259  13.570  27.341 -0.0561  0.1832 -0.0710
20620W        W63537  26.865  14.508  28.965 -0.0269 -0.2734  0.1512
20621W        W63538  25.677  12.517  30.621  0.0771  0.0196 -0.1802
20622W        W63539  26.548  12.445  31.161  0.0894  0.0414  0.1126
20623W        W63540  27.054  12.600  29.955 -0.0210 -0.0960 -0.2739
20624W        W63541  26.269  13.692  29.487 -0.0121 -0.2188  0.2677
20625W        W63542  28.466  11.476  30.302  0.0052 -0.0147  0.1361
20626W        W63543  27.617  13.534  29.998 -0.3258 -0.0754  0.1161
20627W        W63544  27.343  12.383  29.020 -0.2025  0.1935 -0.0284
20628W        W63545  28.677  13.374  28.318 -0.1724 -0.0931  0.0992
20629W        W63546  26.095  11.227  29.782 -0.2751 -0.1314  0.2458
20630W        W63547  28.481  11.519  29.545  0.1861  0.2572 -0.1748
20631W        W63548  25.153  13.076  28.416 -0.1564  0.0701 -0.0816
20632W        W63549  26.814  12.406  25.973 -0.1165 -0.1881 -0.1342
20633W        W63550  30.216  11.571  29.744  0.3319 -0.2132  0.0327
20634W        W63551  26.505  11.935  29.127  0.0983  0.1787  0.0762
20635W        W63552  26.472  15.221  28.407  0.4912 -0.0078 -0.1524
20636W        W63553  25.447  14.039   0.724  0.2059 -0.0418  0.1141
20637W        W63554  27.956  12.106  28.054  0.3691 -0.1341  0.1685
20638W        W63555  26.454  13.352  28.176 -0.0665 -0.2253  0.2837
20639W        W63556  24.763  11.517  28.311 -0.1211  0.3065  0.1709
20640W        W63557  24.925  13.683  29.787  0.1005 -0.0365 -0.3664
20641W        W63558  24.679  10.954  28.206  0.0249  0.0967 -0.1892
20642W        W63559  26.662  13.921  29.927  0.0793  0.2440  0.2286
20643W        W63560  27.893  11.002  30.483  0.1627 -0.1154  0.0970
20644W        W63561  26.725  12.592   1.204 -0.0667  0.5934 -0.3502
20645W        W63562  27.447  13.135  29.155 -0.2692 -0.0325 -0.2764
20646W        W63563  24.849  13.263  27.510 -0.0042  0.0039  0.1631
20647W        W63564  26.806  14.987  29.042 -0.1156 -0.0375 -0.0591
20648W        W63565  30.159  10.749  29.603 -0.1879 -0.1220 -0.1874
20649W        W63566  27.321  14.747  29.041 -0.1452  0.2333 -0.2689
20650W        W63567  23.544  12.035  30.556  0.1760  0.0072  0.2882
20651W        W63568  25.801  13.869  29.448 -0.0565 -0.1241  0.1778
20652W        W63569  26.422  13.086  30.296  0.0904  0.2889 -0.0435
20653W        W63570  24.388  11.483  29.786 -0.0446 -0.0356  0.3180
20654W        W63571  27.291  13.073  30.036  0.2228 -0.1045 -0.2798
20655W        W63572  25.654  11.007  28.566  0.2501 -0.0462 -0.0401
20656W        W63573  28.159  11.184  26.981  0.1762  0.0278  0.0179
20657W        W63574  27.388  13.131  27.317 -0.0277  0.2558 -0.1594
20658W        W63575  23.457  13.414  28.136  0.0699 -0.0217  0.0581
20659W        W63576  26.701  13.212  30.708  0.3027  0.3995 -0.0719
20660W        W63577  27.231  16.239  26.486 -0.2715 -0.1997  0.1823
20661W        W63578  28.680  16.055  30.361  0.3761 -0.1747 -0.2837
20662W        W63579  27.414  16.093  29.008  0.0732  0.0870  0.0858
20663W        W63580  26.474  14.323  31.679 -0.0758 -0.2514 -0.1864
20664W        W63581  26.283  11.635  28.316 -0.1947 -0.1128  0.3394
20665W        W63582  24.462  14.804  29.730 -0.0912  0.0688  0.1144
20666W        W63583  26.685  13.872  30.816 -0.1393  0.0902  0.1153
20667W        W63584  27.955  10.859  28.489 -0.0043 -0.1878  0.2667
20668W        W63585  27.353  13.426  28.071  0.1907 -0.2190 -0.0132
20669W        W63586  27.765  11.390  29.090 -0.1325 -0.0807  0.4608
20670W        W63587  26.911  12.835  30.935 -0.0261  0.0203 -0.2544
20671W        W63588  27.811  10.779  29.955 -0.0630  0.0972  0.3070
20672W        W63589  26.955  13.932  28.781  0.0899  0.0349 -0.0974
20673W        W63590  26.262  13.828  28.453  0.2279  0.1219 -0.0685
20674W        W63591  23.124  12.152  26.525 -0.0293  0.1331  0.2993
20675W        W63592  27.243  16.284  31.470 -0.1009 -0.0359 -0.0867
20676W        W63593  27.418  12.530  27.005 -0.1329 -0.2110 -0.0296
20677W        W63594  25.923  14.151  27.109  0.2479 -0.2672 -0.2781
20678W        W63595  27.692  14.734  27.647  0.2692  0.0254 -0.0027
20679W        W63596  27.893  13.536  29.620  0.0491 -0.2207  0.2927
20680W        W63597  25.017  14.096  31.343 -0.0388 -0.1129 -0.2265
20681W        W63598  28.003  13.332  30.811  0.1515 -0.0778  0.1344
20682W        W63599  27.116  12.107  27.013  0.2279 -0.3997  0.3119
20683W        W63600  25.498  13.035  30.567  0.1811 -0.1470 -0.3115
20684W        W63601  26.777   9.324  27.103 -0.0951 -0.0916 -0.1022
20685W        W63602  28.245  10.132  28.248 -0.0891  0.1462  0.1739
20686W        W63603  27.044  12.104  30.963  0.3994  0.2565  0.0456
20687W        W63604  27.529  11.795  28.123  0.0634  0.4239  0.2154
20688W        W63605  26.328  12.366  28.786 -0.0557 -0.1450 -0.3935
20689W        W63606  26.901   9.039  26.710  0.0037  0.1671  0.1203
20690W        W63607  26.069  14.135  31.459  0.1217  0.1506 -0.1786
20691W        W63608  26.874  12.151  27.517 -0.1310  0.1111 -0.1290
20692W        W63609  27.737  15.233  28.436 -0.0719  0.0151  0.1365
20693W        W63610  27.983  12.270  29.262 -0.3505 -0.0637 -0.2975
20694W        W63611  29.447  12.525  27.340  0.0718 -0.0707 -0.3066
20695W        W63612  25.937  12.927   0.006 -0.1265 -0.0448  0.0470
20696W        W63613  25.841  14.453  30.750 -0.0686 -0.0580 -0.3112
20697W        W63614  29.029  15.176  29.732  0.0836  0.3929  0.0171
20698W        W63615  26.609  12.671  31.732  0.1799  0.0459  0.1726
20699W        W63616  25.751  13.004  29.692  0.0149  0.0356  0.0311
20700W        W63617  26.658  11.841  27.891 -0.0313 -0.0030 -0.0052
20701W        W63618  28.199  14.889  27.573 -0.1684  0.0799 -0.0172
20702W        W63619  29.337  10.711  30.027 -0.0620  0.2070  0.0992
20703W        W63620  27.448  11.046  29.269  0.2038 -0.1172 -0.0990
20704W        W63621  26.289  10.683  31.836 -0.0121 -0.0734 -0.0705
20705W        W63622  28.994  13.369   0.385  0.3649  0.1772 -0.2011
20706W        W63623  27.459  12.268  27.872 -0.0540  0.1331  0.2537
20707W        W63624  27.008  12.108  30.097  0.2800 -0.0067  0.3535
20708W        W63625  26.107  12.999  28.157  0.1150  0.3626 -0.1572
20709W        W63626  25.179  11.962  28.897  0.0628  0.1157 -0.1425
20710W        W63627  25.540  14.623  30.365 -0.1742  0.2394 -0.1255
20711W        W63628  27.681  15.657  29.893  0.2164 -0.0553 -0.2924
20712W        W63629  27.057  12.282  29.447  0.3313 -0.2794  0.1067
20713W        W63630  26.912  13.553  27.902 -0.2482  0.0747 -0.0585
20714W        W63631  26.893  11.613  31.138 -0.3103 -0.0509  0.1796
20715W        W63632  26.317  12.536  27.017 -0.3558  0.2593 -0.0036
20716W        W63633  27.315  14.226  28.920 -0.0815  0.1697 -0.0328
20717W        W63634  26.554  14.271  28.553 -0.0486  0.0115  0.1838
20718W        W63635  26.622  11.560  31.695  0.0179  0.2521  0.0411
20719W        W63636  27.673  15.552  28.927 -0.4054  0.0645  0.1680
20720W        W63637  28.228  11.912  27.182 -0.0248 -0.3649 -0.1038
20721W        W63638  28.685  13.519   0.073  0.1251  0.3517 -0.1328
20722W        W63639  24.585  16.023  29.160  0.1324  0.2330 -0.0933
20723W        W63640  28.117  12.201  31.341 -0.2951 -0.0258 -0.3640
20724W        W63641  22.906  15.953  30.838  0.1075  0.1774 -0.1388
20725W        W63642  26.026  10.237  28.895  0.1719 -0.0557 -0.1964
20726W        W63643  26.763  14.341  27.672  0.0952 -0.1126 -0.1756
20727W        W63644  27.036  11.807  29.247 -0.2008 -0.0544 -0.2205
20728W        W63645  28.054  12.790  27.541  0.3033 -0.0724 -0.0994
20729W        W63646  27.175  12.914   1.270  0.2392 -0.0295 -0.2092
20730W        W63647  27.103  14.672  30.027  0.1953 -0.1919  0.0405
20731W        W63648  25.181  14.792  28.674 -0.0942 -0.1791 -0.2819
20732W        W63649  25.952  14.970  27.379 -0.3818  0.3324  0.0234
20733W        W63650  28.207   8.618  28.035 -0.0373 -0.3983  0.1479
20734W        W63651  28.989  14.493  29.458  0.0758  0.0797 -0.4286
20735W        W63652  26.982  11.765  30.429 -0.1448 -0.3559 -0.2518
20736W        W63653  22.616  13.423  27.449  0.0476 -0.2636  0.2509
20737W        W63654  28.882  12.270  29.389 -0.1098 -0.1432 -0.2418
20738W        W63655  24.323  13.175  30.271 -0.0356  0.0574  0.2982
20739W        W63656  25.451  13.894  29.862  0.1124 -0.3899  0.0190
20740W        W63657  28.907  14.205  30.079  0.3238  0.0714  0.0751
20741W        W63658  26.847  15.193  28.109  0.1900  0.3839 -0.3239
20742W        W63659  25.659  14.281  29.015  0.0273 -0.2203  0.3334
20743W        W63660  25.406  13.517   0.572 -0.0658 -0.0990 -0.0219
20744W        W63661  27.794  14.306  30.293  0.0620 -0.0631 -0.1226
20745W        W63662  25.227  13.524  30.633 -0.1681 -0.0622 -0.2355
20746W        W63663  24.883  12.908  31.182 -0.1168 -0.1437 -0.0901
20747W        W63664  26.818  11.695  28.806  0.1005 -0.0648  0.0726
20748W        W63665  25.381  11.851  31.129 -0.1165  0.2555 -0.1107
20749W        W63666  26.150  12.164  31.006  0.0076  0.0543  0.1416
20750W        W63667  26.919  15.768  31.724 -0.0204  0.0935  0.1810
20751W        W63668  26.329  11.596  28.787  0.0112  0.1585  0.0822
20752W        W63669  29.411  12.860  26.889  0.1135 -0.0782  0.1102
20753W        W63670  30.361  12.940  31.149 -0.0355 -0.0796  0.1437
20754W        W63671  26.788  13.318  26.692  0.0049  0.1299  0.3278
20755W        W63672  24.877  14.651  29.606  0.3186  0.2276  0.0496
20756W        W63673  23.303  13.252  29.241 -0.0072  0.0022  0.0082
20757W        W63674  27.130  14.213  29.729 -0.0606  0.3061 -0.0771
20758W        W63675  26.118  12.685  30.158  0.1670 -0.1507 -0.3407
20759W        W63676  25.795  14.319  28.216 -0.1019  0.0906 -0.0408
20760W        W63677  25.837  13.692  30.347 -0.0904 -0.1743  0.1126
20761W        W63678  29.492  10.835  26.905 -0.1123 -0.3631 -0.2270
20762W        W63679  29.324  11.773  27.743  0.0392  0.0913  0.1072
20763W        W63680  27.082  11.633  28.404  0.0835  0.1332 -0.2486
20764W        W63681  27.520  11.816  30.744  0.3130  0.1285  0.1126
20765W        W63682  26.281  12.115  28.108  0.3015  0.1839  0.1220
20766W        W63683  27.827  11.917  28.516 -0.0125  0.1970  0.2921
20767W        W63684  27.023  12.292  31.452 -0.0290  0.2922 -0.0767
20768W        W63685  28.832  12.667  29.057  0.2679  0.3760 -0.2306
20769W        W63686  26.963  10.113  31.861 -0.2269 -0.2210 -0.2247
20770W        W63687  27.936  15.942   0.130 -0.3048  0.1590 -0.2028
20771W        W63688  26.091  13.126  31.529 -0.1743 -0.3301 -0.2615
20772W        W63689  26.588  12.010  30.778 -0.0803  0.0523  0.1184
20773W        W63690  26.362   9.591  27.574  0.0841 -0.0428 -0.0163
20774W        W63691  26.906  13.910  31.852 -0.0987  0.0255  0.0872
20775W        W63692  27.746  12.684  27.958  0.0762 -0.1352 -0.0175
20776W        W63693  26.251  12.875  28.729  0.1324  0.0070 -0.1300
20777W        W63694  27.834  13.475  28.936 -0.0491  0.1096  0.1911
20778W        W63695  25.564  15.153  31.245 -0.0751  0.1406  0.0074
20779W        W63696  27.820  12.360  28.812  0.0220 -0.0710  0.1063
20780W        W63697  26.791  14.174  30.329 -0.0330  0.1543  0.1164
20781W        W63698  26.491  14.346  30.695  0.1358  0.0335 -0.1214
20782W        W63699  27.363  12.458  31.126  0.1158 -0.1421 -0.1956
20783W        W63700  27.379  13.578  29.434  0.0144  0.0312 -0.0081
20784W        W63701  28.703  11.216  28.759 -0.0035 -0.4151  0.1693
20785W        W63702  27.369  10.390   0.034 -0.4356 -0.0023 -0.1265
20786W        W63703  29.678  12.583  29.890 -0.1578 -0.5085  0.2810
20787W        W63704  29.282  12.252  30.790 -0.1150  0.1354 -0.2434
20788W        W63705  24.843  12.346   0.178 -0.1547 -0.2422 -0.0636
20789W        W63706  29.279  15.255  30.142  0.2008  0.1372  0.1198
20790W        W63707  30.321  11.804  27.728  0.1023  0.0336 -0.1951
20791W        W63708  27.441  11.858  30.211  0.0879 -0.3990 -0.0449
20792W        W63709  27.125  15.224  29.349  0.1972 -0.0737  0.0170
20793W        W63710  29.217  10.412  30.448 -0.1619 -0.0850 -0.0059
20794W        W63711  25.259  12.255  31.453 -0.2380  0.1943  0.1365
20795W        W63712  25.828  11.604  29.921  0.2971 -0.2704 -0.1388
20796W        W63713  25.434  12.580  28.486 -0.2652  0.3733  0.1492
20797W        W63714  27.301  11.396  29.994 -0.1530  0.0627 -0.2673
20798W        W63715  28.520  13.530  27.376  0.2784 -0.1171 -0.0512
20799W        W63716  28.256  14.831  30.098 -0.1400 -0.0061  0.1714
20800W        W63717  26.134  11.698  30.774  0.0084 -0.1918  0.0471
20801W        W63718  24.929  11.340  27.900  0.0708 -0.0827 -0.4469
20802W        W63719  28.149  15.583   0.418 -0.0047  0.2478  0.1945
20803W        W63720  26.029  12.905  26.844 -0.3329  0.1919 -0.1138
20804W        W63721  26.423  12.789  29.192 -0.0508 -0.0634  0.0901
20805W        W63722  28.177  14.949  29.579  0.0609  0.1190  0.3216
20806W        W63723  28.610  13.581  29.326 -0.2756  0.1757 -0.2181
20807W        W63724  27.261  11.797  27.643  0.3779 -0.1055 -0.0257
20808W        W63725  29.658  12.914  29.069 -0.0625  0.0530 -0.0891
20809W        W63726  25.540  14.002  27.454  0.0625  0.3384  0.2010
20810W        W63727  28.114  11.780  31.074  0.3731  0.3909  0.1109
20811W        W63728  23.565  12.749  30.441 -0.0923 -0.0657  0.1270
20812W        W63729  24.560  13.511  30.505 -0.0994 -0.1332  0.2930
20813W        W63730  25.659  14.368  29.821  0.1130 -0.1201 -0.1475
20814W        W63731  25.879  11.823  30.353 -0.2433 -0.1527 -0.3743
20815W        W63732  26.692  12.074  29.728 -0.0037  0.1798 -0.3176
20816W        W63733  27.387  12.966  28.277  0.2031 -0.0016 -0.2995
20817W        W63734  27.937  12.769  29.080  0.3855 -0.1531 -0.1139
20818W        W63735  26.687  14.438  29.854 -0.0300 -0.0988 -0.2905
20819W        W63736  26.232  13.353  29.098 -0.0165 -0.3338 -0.3448
20820W        W63737  28.262  15.095  30.476  0.1246  0.2980 -0.1225
20821W        W63738  28.912  13.058  28.672 -0.0244  0.0206  0.2024
20822W        W63739  28.512  11.596  29.073 -0.2692 -0.0037 -0.1408
20823W        W63740  24.278  12.039  31.559 -0.3183  0.0987  0.1014
20824W        W63741  25.794  12.254  30.156 -0.1922  0.0420 -0.0361
20825W        W63742  27.389  10.844  29.730  0.1750 -0.1425  0.2311
20826W        W63743  25.774  12.051  31.483 -0.1969 -0.1216  0.0749
20827W        W63744  27.145  13.951  29.269  0.0863  0.3752 -0.1786
20828W        W63745  24.448  14.034  31.035 -0.1963 -0.1887 -0.0957
20829W        W63746  25.069  12.646  30.509 -0.0186 -0.1093 -0.1311
20830W        W63747  26.387  14.213  28.983  0.0612 -0.1721  0.0667
20831W        W63748  28.290  12.333  28.416 -0.2780  0.4259 -0.2324
20832W        W63749  27.624  13.964  29.700  0.0887 -0.1110  0.1771
20833W        W63750  26.949  15.945  31.123  0.1758 -0.3538 -0.5639
20834W        W63751  28.339  10.959  27.431 -0.0982  0.1285  0.0344
20835W        W63752  25.779  12.918  31.171  0.0407 -0.2021 -0.0562
20836W        W63753  24.793  14.284  27.736 -0.3586  0.1649  0.0341
20837W        W63754  28.160  15.331  29.255  0.0064 -0.2342 -0.0107
20838W        W63755  26.853  15.093  29.842 -0.1909 -0.0309  0.0888
20839W        W63756  26.767  13.636  30.390  0.2969  0.2302  0.1743
20840W        W63757  29.457  11.833  25.951 -0.1597 -0.3285  0.4011
20841W        W63758  29.537  11.559  29.759 -0.0924 -0.3008  0.1217
20842W        W63759  26.037  11.999  28.517 -0.3190 -0.1508 -0.3273
20843W        W63760  28.302  15.060   1.239  0.3155 -0.0532  0.2034
20844W        W63761  25.350  12.925  28.915  0.0642 -0.0865  0.2792
20845W        W63762  25.933  12.464  28.214  0.2532  0.2396  0.1022
20846W        W63763  24.346  11.756  30.228 -0.3411 -0.0932  0.2710
20847W        W63764  28.822  12.259  30.771 -0.1293  0.3115 -0.0484
20848W        W63765  27.003  13.449  31.077  0.4134 -0.3921  0.0461
20849W        W63766  27.471  13.439  26.890 -0.1605 -0.2793  0.0434
20850W        W63767  26.719  12.386  27.962 -0.2298  0.0153  0.0188
20851W        W63768  26.144  12.212  30.506  0.1490  0.2496 -0.1403
20852W        W63769  28.723   9.970  31.680 -0.2219 -0.1833 -0.0020
20853W        W63770  26.737  11.946  26.693  0.2693  0.1834  0.1422
20854W        W63771  27.048  14.718  29.465 -0.0139  0.0074 -0.1509
20855W        W63772  26.055  12.845  30.632  0.3679 -0.5407 -0.0118
20856W        W63773  27.799  16.164  28.707 -0.1288 -0.2349 -0.0977
20857W        W63774  27.044  16.004  30.620 -0.0742  0.3568 -0.2146
20858W        W63775  27.345  11.022  27.290 -0.0641 -0.1191  0.1202
20859W        W63776  30.508  11.741  30.798  0.2076 -0.1517  0.0108
20860W        W63777  25.088  13.219  31.632 -0.3059 -0.0198  0.0964
20861W        W63778  27.886  12.161  30.849 -0.0584 -0.2809  0.1856
20862W        W63779  24.863  13.729  29.140  0.1710  0.0886 -0.1566
20863W        W63780  27.156  10.284  30.576 -0.0496  0.1406 -0.0988
20864W        W63781  26.488  11.151  28.975  0.2764  0.0658  0.0953
20865W        W63782  24.380  11.475  31.003  0.1073 -0.3271 -0.1520
20866W        W63783  28.298   9.966  28.815  0.2047  0.0590 -0.2767
20867W        W63784  28.959  13.418  30.180  0.1793  0.1920 -0.0622
20868W        W63785  29.732  10.678  29.165 -0.0472  0.0513  0.0596
20869W        W63786  29.282  14.712  30.174  0.3009 -0.1126  0.1641
20870W        W63787  25.953  11.335  31.162 -0.0870 -0.0054  0.1582
20871W        W63788  27.318   8.841  28.792  0.0175  0.3529  0.1876
20872W        W63789  25.589  13.015  28.175 -0.0901 -0.1887  0.1562
20873W        W63790  26.380  13.968  30.406 -0.1232  0.1869  0.0448
20874W        W63791  27.968  13.060  29.932 -0.0478 -0.1741  0.1312
20875W        W63792  25.030  12.556  28.151  0.1794  0.1302  0.0734
20876W        W63793  28.564  10.979  29.602 -0.2125  0.0727  0.1649
20877W        W63794  26.650  12.091  28.472 -0.0083 -0.0334  0.0182
20878W        W63795  25.904  13.140  30.207 -0.0673 -0.1146  0.0558
20879W        W63796  27.149  13.793  26.656  0.2642 -0.1099 -0.1688
20880W        W63797  28.968  15.488  29.359  0.1255 -0.1127 -0.3725
20881W        W63798  24.622  12.800  30.308  0.3051  0.0268  0.0225
20882W        W63799  28.229  15.595  30.511 -0.0815  0.1713 -0.2504
20883W        W63800  29.806  16.640  29.615 -0.2209  0.0114 -0.0723
20884W        W63801  29.563  11.063  29.524  0.3068  0.0947 -0.3723
20885W        W63802  25.498  13.709  29.016  0.1958 -0.1543 -0.0392
20886W        W63803  28.204  15.225  27.208 -0.2596  0.1120 -0.2506
20887W        W63804  28.953  13.056  30.685 -0.2362 -0.0575  0.0407
20888W        W63805  28.871  12.252  28.026  0.1418  0.0561 -0.0212
20889W        W63806  27.593  15.350  29.503 -0.0427  0.0888  0.3284
20890W        W63807  27.550  11.815   0.345 -0.0766  0.1000 -0.1210
20891W        W63808  27.669  14.840  29.596  0.3017 -0.0653  0.1932
20892W        W63809  27.881  15.043  31.679  0.1821 -0.0450 -0.0983
20893W        W63810  25.753  13.856  28.414 -0.2605  0.3970 -0.0210
20894W        W63811  27.799  14.636  30.741  0.3137  0.2810 -0.2963
20895W        W63812  30.157  12.556  28.912  0.0304  0.1141  0.0083
20896W        W63813  27.345  12.705  29.450 -0.4751  0.1334 -0.0292
20897W        W63814  28.692  15.150  30.086 -0.0956 -0.0710  0.1236
20898W        W63815  29.141  12.163  28.949  0.0860 -0.1975  0.0416
20899W        W63816  29.651  14.664  29.788  0.1462 -0.0627 -0.2285
20900W        W63817  26.782  13.300  30.017 -0.2261  0.4674  0.0687
20901W        W63818  27.059  11.753  29.765 -0.1548  0.1324 -0.0480
20902W        W63819  30.125  11.062  31.057  0.1497  0.1950  0.2356
20903W        W63820  27.213  11.846  31.464 -0.0479 -0.2149 -0.0446
20904W        W63821  26.941  13.566  28.418 -0.0713  0.0727  0.1761
20905W        W63822  27.132  13.987  27.654 -0.0601  0.0241  0.0795
20906W        W63823  24.565  11.338  30.531 -0.1328  0.0465  0.1824
20907W        W63824  26.479  13.242   1.800 -0.3124  0.1603  0.0139
20908W        W63825  25.413  11.698  30.277  0.1105 -0.0541 -0.1103
20909W        W63826  24.458  13.111  30.782 -0.0095  0.1189 -0.3134
20910W        W63827  26.294  13.186  29.679 -0.2425 -0.0565 -0.1647
20911W        W63828  29.222  12.519  26.527 -0.0977 -0.1133  0.0158
20912W        W63829  24.640  11.677  31.577  0.1387 -0.3003 -0.0907
20913W        W63830  25.612  11.257  30.228  0.3563 -0.1833  0.0129
20914W        W63831  27.387  13.981  30.168  0.0297  0.0194  0.1517
20915W        W63832  27.682  12.036  27.087  0.1849  0.2095 -0.0370
20916W        W63833  24.797  12.785  29.278  0.1763 -0.1934 -0.0108
20917W        W63834  28.123  12.425  30.489 -0.1494 -0.1940 -0.2067
20918W        W63835  25.720  12.189  27.767  0.1359 -0.1177  0.3191
20919W        W63836  27.614  11.270  31.847 -0.0949 -0.1088 -0.0121
20920W        W63837  26.094  11.835   1.238  0.2956  0.1826  0.0761
20921W        W63838  24.502  12.656  28.490  0.0570 -0.1186 -0.1447
20922W        W63839  28.474  12.972   0.846  0.2411 -0.1173 -0.0949
20923W        W63840  27.379  15.114  29.945  0.0155 -0.0148  0.1408
20924W        W63841  29.709  14.284  26.876 -0.2304 -0.0711 -0.0003
20925W        W63842  27.428  14.748  28.540  0.0856  0.2555 -0.1571
20926W        W63843  25.941  14.190  30.364  0.2458  0.3275  0.0697
20927W        W63844  25.912  11.296  27.938 -0.1451 -0.1373  0.0028
20928W        W63845  27.144  13.018  28.739 -0.0905 -0.3824  0.1481
20929W        W63846  27.848  14.265  31.703 -0.0462 -0.4252  0.1612
20930W        W63847  29.690  14.235  28.765 -0.2016 -0.1965  0.0678
20931W        W63848  28.542   9.493  29.702 -0.2936 -0.0005 -0.0613
20932W        W63849  26.265  13.557  30.067  0.0768 -0.5886  0.1295
20933W        W63850  25.381  11.348  31.045 -0.0538 -0.3345 -0.4808
20934W        W63851  24.560  14.016  30.395 -0.1587  0.1975  0.0462
20935W        W63852  30.136  14.691  28.827  0.2480 -0.1734 -0.0471
20936W        W63853  27.007  10.430  28.644 -0.0422  0.2413  0.1912
20937W        W63854  27.670  11.540  31.267  0.0404 -0.1209  0.0487
20938W        W63855  27.047  14.410  28.508  0.0261 -0.0058 -0.1641
20939W        W63856  24.252  14.486  31.011 -0.2878 -0.0376 -0.2036
20940W        W63857  26.163  11.535  29.270 -0.1146 -0.2222  0.1303
20941W        W63858  27.031  12.834  31.424  0.0979  0.0740  0.0621
20942W        W63859  27.564  15.644  28.053 -0.0275  0.1698  0.0256
20943W        W63860  27.064  13.145  29.628 -0.0394 -0.2245  0.3637
20944W        W63861  25.655  13.296  29.297  0.3487 -0.0943  0.2275
20945W        W63862  29.855  11.648  29.381 -0.2313  0.0974  0.0804
20946W        W63863  28.138  16.080   0.584 -0.1838 -0.0141 -0.0934
20947W        W63864  29.274  13.756   0.031 -0.3010  0.0535 -0.2027
20948W        W63865  28.742  14.646  30.202 -0.1657  0.1224  0.1612
20949W        W63866  26.566  12.370  30.150 -0.0736  0.0772  0.2023
20950W        W63867  22.504  11.629  30.194 -0.0640  0.1991  0.1692
20951W        W63868  28.460  13.826  28.521  0.1966 -0.0539 -0.1794
20952W        W63869  24.973  15.156  28.361  0.1427 -0.0975  0.0000
20953W        W63870  29.275  10.939  29.104 -0.0373  0.3764  0.4882
20954W        W63871  24.815  12.112  30.356  0.2901 -0.0612 -0.0300
20955W        W63872  25.310  10.154  30.103  0.0266 -0.0623 -0.0227
20956W        W63873  29.795  15.743  29.648  0.1746 -0.0065 -0.0898
20957W        W63874  27.713  13.739  30.459  0.4527  0.0560  0.0736
20958W        W63875  26.461  12.623  30.555 -0.2909 -0.0862 -0.1929
20959W        W63876  26.191  11.951  31.798  0.2287  0.1325  0.1823
20960W        W63877  24.363  12.025  31.041  0.2928 -0.1212  0.1578
20961W        W63878  27.635  14.787   0.479  0.0625  0.0138  0.1096
20962W        W63879  27.120  16.718   0.277  0.0349  0.0067 -0.0407
20963W        W63880  26.405  15.267  31.295 -0.1709 -0.2612 -0.0456
20964W        W63881  28.413  11.691   0.098  0.2799 -0.1126 -0.0319
20965W        W63882  27.151  13.299  30.463  0.1955 -0.1589 -0.2026
20966W        W63883  25.155  10.076   1.539  0.3207 -0.1458  0.2612
20967W        W63884  30.636  15.414   0.686  0.0648  0.2605 -0.2139
20968W        W63885  28.889  14.004   0.174  0.2836 -0.0390 -0.0608
20969W        W63886  27.091  12.586  31.844  0.0135  0.0475 -0.1271
20970W        W63887  27.808  12.609  31.308  0.2266  0.0345 -0.4063
20971W        W63888  25.653  12.390  31.158 -0.0720  0.1200  0.1208
20972W        W63889  28.026  11.771  30.493  0.0878 -0.0114 -0.0192
20973W        W63890  25.685  16.704  30.237  0.0668 -0.1014  0.3753
20974W        W63891  24.095  11.879  30.637  0.0306  0.0660 -0.1746
20975W        W63892  29.449  13.032  30.573  0.0554 -0.2157  0.0517
20976W        W63893  24.616  10.807   0.614 -0.0657  0.0794 -0.2086
20977W        W63894  25.913  11.655   2.351 -0.3419 -0.0394 -0.2033
20978W        W63895  25.216  11.312  30.550 -0.0873  0.0410 -0.2950
20979W        W63896  27.971  14.282   0.610  0.1992  0.1740  0.0098
20980W        W63897  27.715  11.811  29.818  0.0945  0.0467  0.2478
20981W        W63898  28.001  11.736  31.550  0.2573  0.0367 -0.1827
20982W        W63899  28.022  12.590  31.793 -0.0333  0.1453 -0.3100
20983W        W63900  27.922  11.565   0.123  0.0627 -0.1305  0.1229
20984W        W63901  26.064  13.436  31.918  0.0513 -0.0872 -0.2312
20985W        W63902  26.515  13.700  31.575  0.5151  0.1844 -0.0790
20986W        W63903  25.292  12.798  30.915 -0.0195  0.3362  0.3581
20987W        W63904  26.381  13.165   0.198 -0.0249  0.0722 -0.1892
20988W        W63905  28.764  16.325   0.776  0.2130  0.1406 -0.0966
20989W        W63906  24.827   9.160   0.870  0.1553 -0.1027 -0.1741
20990W        W63907  26.586  15.026  30.356 -0.0767 -0.0732 -0.0526
20991W        W63908  27.058  11.483  31.876  0.0090  0.1550 -0.0627
20992W        W63909  24.866  12.641  31.677 -0.1007  0.0026 -0.0344
20993W        W63910  25.312  12.764  31.420 -0.0919 -0.1011  0.1025
20994W        W63911  26.541  14.904  30.887  0.0623 -0.0263 -0.1299
20995W        W63912  27.846  13.484  31.241  0.1042 -0.2240 -0.0930
20996W        W63913  27.368  12.029  28.573  0.1071  0.1495 -0.2556
20997W        W63914  25.411  12.958  31.929 -0.0231  0.0884 -0.1493
20998W        W63915  27.094  10.869   0.196  0.2668  0.0202 -0.0925
20999W        W63916  27.120   9.439   0.349  0.0246  0.1231  0.2330
21000W        W63917  25.593  10.494   0.411  0.0498 -0.1238  0.0435
21001W        W63918  27.123  15.024   0.604 -0.1370 -0.1186 -0.0568
21002W        W63919  25.612  13.229  31.567  0.2861 -0.0672 -0.1589
21003W        W63920  26.986  14.171   0.666 -0.0280 -0.0583  0.1665
21004W        W63921  26.794  12.088   0.792  0.4898  0.2118 -0.3198
21005W        W63922  27.793  14.785  31.300  0.0608 -0.0275  0.2154
21006W        W63923  29.204  12.657  31.426 -0.1398 -0.3978 -0.2573
21007W        W63924  25.285  14.150  31.734  0.0759  0.1074  0.1572
21008W        W63925  28.609  14.168  29.755  0.0582  0.3678  0.1973
21009W        W63926  27.328  12.135   0.841 -0.2752  0.1301 -0.2553
21010W        W63927  27.157   8.669   0.885 -0.1007 -0.3246  0.1274
21011W        W63928  27.304  14.889  31.475  0.2839  0.3087 -0.0214
21012W        W63929  27.575  12.762  28.689 -0.0160  0.1425 -0.1063
21013W        W63930  28.108  12.479   1.445  0.1811 -0.2327  0.1507
21014W        W63931  26.584  12.372  29.368 -0.2742 -0.1010  0.1314
21015W        W63932  27.358  14.131  31.764  0.0890 -0.0678 -0.0698
21016W        W63933  28.871  16.201  31.781 -0.1549 -0.0189  0.2266
21017W        W63934  24.648  12.412  31.243  0.0847 -0.1106  0.0012
21018W        W63935  24.585  13.898   0.213  0.2642 -0.1314 -0.0688
21019W        W63936  25.421  14.648  31.522  0.0039  0.0459 -0.5082
21020W        W63937  26.888  15.933  29.521 -0.1082  0.1107 -0.0637
21021W        W63938  26.696  12.166  31.851 -0.3402  0.3673 -0.2403
21022W        W63939  28.761  15.418  30.546 -0.0316  0.0114 -0.0674
21023W        W63940  29.636  12.154  31.204  0.1707  0.1279 -0.1109
21024W        W63941  28.293  12.641  30.107  0.0941 -0.4343 -0.1958
21025W        W63942  28.606  17.001  18.227  0.3416 -0.0362 -0.1467
21026W        W63943  25.936  15.091  18.507 -0.0155  0.1132  0.2908
21027W        W63944  27.838  15.825  16.252  0.4260  0.3954 -0.0684
21028W        W63945  26.901  15.674  19.508 -0.1773  0.0233  0.1561
21029W        W63946  23.699  15.646  16.004  0.2082 -0.3298  0.2432
21030W        W63947  27.154  17.347  18.393  0.2746 -0.2354  0.0712
21031W        W63948  28.365  15.642  18.448  0.1985  0.2009 -0.0914
21032W        W63949  27.495  16.331  19.150 -0.1874  0.0700 -0.1152
21033W        W63950  28.815  18.403  18.879 -0.0588  0.0269  0.0830
21034W        W63951  27.360  15.841  19.276 -0.2812  0.0464  0.2631
21035W        W63952  27.763  18.953  22.096  0.1735  0.0108  0.3426
21036W        W63953  29.144  17.741  19.754  0.0954 -0.0076  0.1091
21037W        W63954  26.071  14.992  16.363  0.0584 -0.0016  0.1963
21038W        W63955  26.613  13.943  18.672 -0.0352 -0.1274 -0.2674
21039W        W63956  29.398  17.180  22.105 -0.0543 -0.1607  0.0076
21040W        W63957  25.198  17.125  17.138 -0.2597 -0.1879  0.0319
21041W        W63958  25.649  15.302  17.097 -0.1407 -0.1754 -0.1640
21042W        W63959  25.843  13.243  19.122  0.0422  0.1501 -0.4739
21043W        W63960  27.375  17.968  18.976 -0.0460  0.1175  0.1343
21044W        W63961  27.433  15.768  22.884 -0.1973  0.2798  0.0833
21045W        W63962  28.176  14.473  18.824 -0.5004  0.2012 -0.0465
21046W        W63963  25.712  18.143  18.009  0.3279 -0.0215 -0.2377
21047W        W63964  27.533  15.770  16.732 -0.1074  0.0462  0.0362
21048W        W63965  23.992  15.470  16.776 -0.0498 -0.2344  0.0526
21049W        W63966  27.747  17.614  19.889 -0.0644  0.0985  0.0205
21050W        W63967  26.655  16.854  20.239  0.1791  0.1424 -0.1981
21051W        W63968  27.361  16.442  18.644 -0.0598 -0.2658 -0.0618
21052W        W63969  28.050  18.607  19.358 -0.2060 -0.4513 -0.0553
21053W        W63970  29.051  17.189  18.376  0.0053 -0.0951 -0.0416
21054W        W63971  28.414  17.085  21.622  0.4752  0.1823 -0.2354
21055W        W63972  25.370  16.589  18.229  0.1457 -0.1912  0.0510
21056W        W63973  25.603  18.741  18.930  0.0993  0.0021 -0.1338
21057W        W63974  26.296  16.476  17.598 -0.3493  0.3145  0.0471
21058W        W63975  28.468  15.527  20.279 -0.2547 -0.3333  0.0152
21059W        W63976  29.749  17.083  20.312 -0.0661  0.3278  0.1642
21060W        W63977  26.425  18.583  20.393 -0.1145 -0.0136  0.1746
21061W        W63978  23.868  18.215  16.481 -0.1766 -0.2623 -0.2921
21062W        W63979  26.669  15.929  20.811 -0.0907  0.4593  0.1676
21063W        W63980  27.745  18.018  20.564  0.2401  0.2631 -0.1616
21064W        W63981  27.250  15.501  18.834 -0.0404 -0.0286 -0.0332
21065W        W63982  26.517  17.342  18.886 -0.0593 -0.1623 -0.0121
21066W        W63983  25.637  17.709  17.729 -0.0074  0.0745 -0.3029
21067W        W63984  26.704  17.802  17.887 -0.2110  0.0099 -0.3267
21068W        W63985  27.252  18.204  19.750  0.0478 -0.1122 -0.0391
21069W        W63986  25.933  14.735  17.700  0.0407  0.2884  0.1862
21070W        W63987  29.590  15.062  21.758  0.0350 -0.1677 -0.2053
21071W        W63988  23.187  19.017  16.447  0.2089  0.0180 -0.3588
21072W        W63989  27.983  15.522  16.828 -0.2850  0.0083 -0.1354
21073W        W63990  27.009  14.940  16.056  0.3965  0.3050  0.0367
21074W        W63991  27.782  14.997  18.385  0.3346  0.0778 -0.1204
21075W        W63992  26.338  14.082  19.321  0.1631 -0.0200  0.1311
21076W        W63993  25.459  17.185  17.644 -0.1258 -0.0874 -0.0183
21077W        W63994  26.170  14.843  18.161 -0.1381 -0.1464 -0.4171
21078W        W63995  28.603  17.411  18.976 -0.0065  0.1613  0.1137
21079W        W63996  24.977  15.307  16.750 -0.1627  0.0434 -0.3551
21080W        W63997  25.418  15.578  19.271 -0.1993 -0.1083 -0.2259
21081W        W63998  25.379  19.861  19.560  0.1507 -0.2267 -0.0700
21082W        W63999  25.276  15.272  17.447 -0.2766 -0.2249  0.1025
21083W        W64000  29.082  16.985  17.088 -0.1581  0.2356  0.1833
21084W        W64001  27.795  17.108  17.590  0.1596 -0.1543 -0.0895
21085W        W64002  26.797  16.653  16.933  0.1961 -0.0953  0.1180
21086W        W64003  24.204  16.369  18.143 -0.0697 -0.3057  0.1015
21087W        W64004  25.892  16.519  19.389  0.3017 -0.1092 -0.2165
21088W        W64005  25.457  16.265  21.700  0.2049 -0.0459  0.2525
21089W        W64006  25.774  14.544  16.787 -0.3240  0.1431  0.0895
21090W        W64007  29.428  14.690  20.203  0.0754 -0.1361  0.0218
21091W        W64008  27.238  19.881  21.314  0.2382  0.1941 -0.2450
21092W        W64009  27.714  16.965  19.885 -0.0478  0.2019 -0.0988
21093W        W64010  27.485  17.203  17.215 -0.1443  0.1878  0.2185
21094W        W64011  28.710  16.030  19.174  0.1303  0.2608 -0.1471
21095W        W64012  27.587  15.238  17.965 -0.1655  0.2772  0.1251
21096W        W64013  26.617  14.347  19.678 -0.0414  0.0621  0.2935
21097W        W64014  26.855  15.655  20.010  0.0184 -0.0417 -0.0732
21098W        W64015  26.441  17.353  18.024 -0.1657  0.1395  0.3998
21099W        W64016  25.531  15.224  16.099  0.2233  0.0960  0.3840
21100W        W64017  27.558  18.294  18.312 -0.0035  0.2511  0.1370
21101W        W64018  28.776  16.690  16.803  0.1170  0.0153 -0.0304
21102W        W64019  26.951  18.360  17.515 -0.1709 -0.0560 -0.2472
21103W        W64020  27.424  16.094  20.865  0.0815  0.2043 -0.0251
21104W        W64021  27.223  14.293  20.356 -0.1725 -0.1726 -0.0954
21105W        W64022  23.850  17.796  16.198  0.3153  0.1638 -0.1166
21106W        W64023  24.763  16.632  18.538  0.3536 -0.5157  0.1843
21107W        W64024  27.075  16.103  18.930 -0.4392  0.1190  0.2271
21108W        W64025  25.843  14.896  21.645 -0.0496 -0.2540  0.0263
21109W        W64026  27.553  18.895  21.548 -0.0501 -0.1942 -0.2187
21110W        W64027  27.887  15.895  19.306 -0.4227 -0.0225  0.0868
21111W        W64028  25.089  15.063  19.282  0.1853  0.2639  0.0834
21112W        W64029  28.204  14.687  19.336  0.1197 -0.2283 -0.2554
21113W        W64030  24.681  17.246  17.035 -0.4963 -0.0739 -0.0885
21114W        W64031  29.932  19.844  19.941  0.3118 -0.0509  0.2301
21115W        W64032  28.349  15.110  17.539  0.1544 -0.2091 -0.2030
21116W        W64033  27.118  18.004  18.351  0.0304  0.2114 -0.0462
21117W        W64034  25.937  14.997  19.947 -0.1829  0.2764 -0.1250
21118W        W64035  26.122  15.576  15.986 -0.2620  0.3580 -0.0149
21119W        W64036  25.858  16.309  20.214  0.1826 -0.1842 -0.0021
21120W        W64037  26.185  14.596  19.756 -0.0754 -0.1824  0.0875
21121W        W64038  26.069  15.314  22.491 -0.2684  0.0819 -0.1594
21122W        W64039  25.066  15.405  16.257  0.1206  0.2044 -0.1295
21123W        W64040  27.209  16.002  20.110 -0.0482 -0.1577  0.0540
21124W        W64041  25.152  16.431  17.003 -0.2583  0.1116 -0.0538
21125W        W64042  26.062  15.535  16.484 -0.3519  0.1459 -0.2498
21126W        W64043  28.652  16.424  18.300  0.1826  0.0126 -0.2320
21127W        W64044  27.979  17.816  17.285 -0.0008 -0.0444 -0.2054
21128W        W64045  29.329  18.461  22.131 -0.0305 -0.3466  0.0572
21129W        W64046  28.984  18.263  17.867 -0.0581 -0.3646  0.0224
21130W        W64047  27.322  13.958  17.321  0.1026  0.3397  0.0122
21131W        W64048  26.005  14.983  16.904 -0.1948 -0.0857  0.0445
21132W        W64049  26.663  18.902  21.349  0.2489  0.0008 -0.0379
21133W        W64050  25.989  16.001  19.247  0.0771  0.1162 -0.1067
21134W        W64051  24.423  15.950  16.962  0.1018 -0.0654 -0.2700
21135W        W64052  28.039  17.886  17.798 -0.0065 -0.0603  0.1147
21136W        W64053  27.284  18.032  17.472  0.2963  0.4106  0.4243
21137W        W64054  25.747  17.354  19.325 -0.2019  0.3135 -0.1434
21138W        W64055  29.935  15.531  21.568 -0.1726 -0.4431  0.0429
21139W        W64056  28.842  14.759  21.356 -0.1332 -0.2582  0.1882
21140W        W64057  27.335  15.796  17.944 -0.0527  0.0062 -0.2025
21141W        W64058  24.875  15.794  16.764 -0.3007 -0.0236 -0.2657
21142W        W64059  29.833  17.872  19.107  0.1448  0.1874  0.0345
21143W        W64060  24.757  18.212  17.866 -0.0198 -0.2370 -0.3886
21144W        W64061  26.888  15.159  19.627 -0.0983  0.0545  0.1758
21145W        W64062  26.580  17.483  17.047 -0.1091 -0.0583 -0.0608
21146W        W64063  27.157  16.126  19.639 -0.1947 -0.1474 -0.1413
21147W        W64064  25.520  16.373  21.218  0.3235  0.0706  0.3750
21148W        W64065  26.935  16.962  21.287 -0.0539  0.0624  0.0062
21149W        W64066  25.272  16.047  16.733  0.0391 -0.2643  0.0867
21150W        W64067  28.062  17.240  20.678  0.2654  0.0812  0.0375
21151W        W64068  26.184  15.093  17.500  0.0463  0.0505  0.3542
21152W        W64069  27.254  16.350  18.154  0.3260  0.2278  0.1123
21153W        W64070  27.813  17.154  18.494  0.1125 -0.1292  0.0940
21154W        W64071  28.370  17.085  21.074  0.0461 -0.0391  0.1924
21155W        W64072  27.970  14.859  17.041  0.1708  0.1955 -0.2133
21156W        W64073  26.528  12.747  18.234 -0.1658 -0.3057 -0.1610
21157W        W64074  26.411  17.168  20.502  0.0163  0.2990 -0.0375
21158W        W64075  27.464  15.300  17.023 -0.3897 -0.0575 -0.1907
21159W        W64076  26.856  16.446  19.386  0.2287  0.1142 -0.1858
21160W        W64077  27.322  15.347  16.533 -0.4282  0.1573  0.0021
21161W        W64078  28.357  18.356  19.020 -0.0712  0.1021  0.0954
21162W        W64079  25.501  15.686  17.895 -0.2197  0.1401  0.0586
21163W        W64080  28.152  15.939  19.801  0.0870 -0.1245  0.1323
21164W        W64081  27.665  16.114  19.661  0.0424 -0.0060 -0.0142
21165W        W64082  27.428  12.922  18.242  0.1394 -0.3864 -0.0924
21166W        W64083  26.391  14.092  16.579 -0.2186 -0.0269  0.2071
21167W        W64084  26.118  16.980  20.122  0.4211  0.0773  0.1474
21168W        W64085  23.289  17.832  16.275  0.1587 -0.3056 -0.3341
21169W        W64086  29.941  16.097  19.540 -0.2137 -0.1883  0.0161
21170W        W64087  25.677  14.847  17.308 -0.2388  0.3265  0.1640
21171W        W64088  28.915  14.823  20.094  0.1421  0.1130 -0.0223
21172W        W64089  29.849  14.895  20.261  0.0365  0.1364  0.0395
21173W        W64090  28.061  17.709  18.543  0.0296 -0.0160  0.2910
21174W        W64091  29.050  15.568  19.415  0.2040  0.0090  0.1358
21175W        W64092  26.364  15.321  18.226 -0.0458  0.2817 -0.1006
21176W        W64093  27.882  15.852  20.874  0.0601 -0.0823  0.0167
21177W        W64094  26.529  18.142  19.532 -0.0647  0.1988 -0.1627
21178W        W64095  24.414  19.474  19.592 -0.4061 -0.1473 -0.2215
21179W        W64096  29.224  17.160  20.439 -0.1045 -0.0230  0.0695
21180W        W64097  27.163  18.439  18.020 -0.0192  0.0291  0.0480
21181W        W64098  26.499  17.119  19.719 -0.0092  0.1177 -0.2109
21182W        W64099  26.862  14.988  16.637  0.0539  0.1147 -0.1690
21183W        W64100  26.223  19.880  17.030 -0.0599  0.4707  0.1121
21184W        W64101  26.980  18.497  18.497 -0.0916  0.1633 -0.0775
21185W        W64102  27.395  14.760  19.027 -0.1683 -0.1205 -0.2430
21186W        W64103  26.749  17.942  16.894  0.1022 -0.2132  0.5133
21187W        W64104  26.291  17.456  19.330 -0.1097 -0.1118 -0.3836
21188W        W64105  29.587  17.433  19.524 -0.1960  0.0599  0.1815
21189W        W64106  24.603  15.311  19.174 -0.2685  0.2232 -0.2196
21190W        W64107  30.134  15.576  19.516  0.1307 -0.2332  0.4060
21191W        W64108  25.551  17.628  18.830 -0.0054  0.3639 -0.0579
21192W        W64109  25.379  15.744  18.387  0.0592 -0.0752  0.0584
21193W        W64110  25.615  16.530  16.819 -0.1614  0.1355  0.3980
21194W        W64111  27.880  15.455  18.791 -0.2727 -0.0609  0.0377
21195W        W64112  27.836  16.843  17.084  0.1211  0.1192 -0.1512
21196W        W64113  25.275  14.032  20.199 -0.3471  0.0740  0.1389
21197W        W64114  24.852  15.461  17.354  0.0125  0.1000  0.2364
21198W        W64115  25.883  18.879  21.923  0.2365  0.0090  0.1483
21199W        W64116  29.081  15.246  17.991  0.0996  0.3282  0.2136
21200W        W64117  27.525  14.020  16.819  0.0935 -0.4128 -0.0694
21201W        W64118  26.545  16.017  19.265  0.2207  0.1475  0.2267
21202W        W64119  26.014  13.843  21.721 -0.1170  0.0195 -0.1343
21203W        W64120  24.527  15.449  16.673 -0.2090  0.1769  0.3627
21204W        W64121  28.508  16.609  19.468 -0.0323  0.0854 -0.0494
21205W        W64122  27.344  14.824  16.819  0.0028  0.0186 -0.0698
21206W        W64123  25.320  18.417  17.792 -0.0896  0.0297 -0.3795
21207W        W64124  25.211  18.410  19.564  0.1786 -0.3878  0.1465
21208W        W64125  26.942  16.330  17.274 -0.2759 -0.0754  0.2672
21209W        W64126  25.256  15.630  17.029  0.0482  0.0900 -0.1218
21210W        W64127  26.763  15.826  18.037  0.2728 -0.0252 -0.2528
21211W        W64128  26.386  15.105  19.511  0.2356 -0.1470 -0.2822
21212W        W64129  26.249  15.511  17.110  0.1096 -0.1764 -0.1222
21213W        W64130  23.646  14.485  17.001  0.1785  0.2206 -0.2187
21214W        W64131  25.904  15.552  17.496  0.1144  0.0343  0.2683
21215W        W64132  27.448  15.141  20.206  0.2473  0.0490 -0.1460
21216W        W64133  27.877  19.190  22.618  0.1398 -0.0065 -0.0736
21217W        W64134  26.109  17.135  21.431 -0.0677  0.1669  0.0844
21218W        W64135  27.365  13.374  18.521  0.0978 -0.1037  0.0349
21219W        W64136  28.522  17.878  17.539  0.2385 -0.1145 -0.1509
21220W        W64137  28.783  16.208  21.114 -0.1892  0.1167  0.0844
21221W        W64138  25.939  15.963  17.154  0.0212 -0.0603 -0.2361
21222W        W64139  25.950  15.194  17.927  0.3910 -0.0816 -0.0025
21223W        W64140  26.162  18.366  17.966  0.2834 -0.1537  0.1877
21224W        W64141  24.482  14.995  17.231 -0.1108  0.0221  0.0691
21225W        W64142  25.571  17.942  19.243  0.0517 -0.0055  0.0306
21226W        W64143  25.568  14.376  17.760 -0.0553  0.0764  0.4704
21227W        W64144  26.305  18.773  18.278 -0.0152 -0.0749  0.2882
21228W        W64145  26.395  16.865  18.872 -0.3728  0.0896 -0.3326
21229W        W64146  27.165  15.733  17.070 -0.1315 -0.1828  0.0710
21230W        W64147  26.716  12.322  18.441 -0.1894 -0.1028  0.0815
21231W        W64148  29.621  15.756  19.284  0.1487  0.5856 -0.0291
21232W        W64149  27.290  16.774  19.096 -0.2054  0.2609  0.0028
21233W        W64150  26.939  14.684  20.479 -0.3336 -0.1849 -0.1149
21234W        W64151  26.439  14.973  21.629 -0.0542  0.1336 -0.1681
21235W        W64152  26.930  16.744  18.210  0.1212  0.1243  0.2402
21236W        W64153  24.529  15.681  18.185  0.0253 -0.1118 -0.2372
21237W        W64154  26.887  17.245  22.803  0.0543 -0.0102 -0.0121
21238W        W64155  27.114  16.175  22.787  0.3821  0.5839  0.2027
21239W        W64156  26.802  16.330  17.727  0.2470 -0.2390 -0.3034
21240W        W64157  24.653  14.053  16.849 -0.0315 -0.1761 -0.0278
21241W        W64158  26.759  14.785  19.353 -0.2880 -0.4129  0.0023
21242W        W64159  28.734  15.692  19.885  0.0571  0.2931  0.1049
21243W        W64160  25.650  15.153  16.601  0.1565  0.0134 -0.1306
21244W        W64161  28.369  16.832  20.025  0.1684  0.0236 -0.0922
21245W        W64162  26.416  15.178  16.707 -0.0036 -0.1177 -0.0943
21246W        W64163  25.886  16.204  17.632 -0.1310  0.1245  0.0429
21247W        W64164  26.356  15.948  16.756  0.1678 -0.1261 -0.0431
21248W        W64165  28.794  18.115  19.364  0.0695 -0.1336  0.2076
21249W        W64166  25.639  15.218  20.742  0.3073 -0.1662  0.0055
21250W        W64167  28.273  17.219  18.546 -0.0035 -0.0579  0.1433
21251W        W64168  27.686  16.268  17.913 -0.2104 -0.2687 -0.0732
21252W        W64169  26.284  14.588  19.243  0.1859 -0.1486 -0.0004
21253W        W64170  26.724  15.990  20.314 -0.0399  0.1814  0.0748
21254W        W64171  28.027  16.283  22.373 -0.3087 -0.4399  0.2094
21255W        W64172  26.816  15.066  21.307  0.4604 -0.2046 -0.0119
21256W        W64173  26.948  17.739  18.843 -0.1349 -0.2792 -0.1725
21257W        W64174  27.457  14.804  17.354 -0.1548 -0.2245  0.0441
21258W        W64175  29.926  15.718  18.197  0.0948 -0.1851 -0.1268
21259W        W64176  27.775  15.672  17.767  0.1215 -0.1828  0.0078
21260W        W64177  27.915  14.338  18.366  0.2640 -0.0701 -0.0678
21261W        W64178  27.513  16.544  20.638 -0.0345  0.1012  0.0841
21262W        W64179  27.944  15.546  20.455  0.3448 -0.0902  0.1752
21263W        W64180  27.141  14.319  17.047 -0.1009 -0.2143 -0.3769
21264W        W64181  27.920  15.651  21.787 -0.0727  0.1271  0.3174
21265W        W64182  25.315  17.660  17.307  0.0033 -0.1921 -0.0940
21266W        W64183  28.099  17.314  19.004 -0.1222  0.0153  0.0522
21267W        W64184  26.705  15.917  17.092 -0.1905 -0.0448 -0.2392
21268W        W64185  26.598  14.078  17.957 -0.0259 -0.0035  0.0087
21269W        W64186  26.019  17.962  20.787 -0.0415  0.2111  0.0799
21270W        W64187  25.086  15.952  16.308  0.2220  0.0743 -0.2905
21271W        W64188  27.313  16.708  17.207  0.0950  0.1751 -0.2160
21272W        W64189  28.261  17.815  18.976 -0.0404 -0.0589  0.1446
21273W        W64190  31.757  18.133  21.497 -0.1937  0.2998  0.3243
21274W        W64191  27.445  13.586  17.008  0.0764 -0.0756  0.1665
21275W        W64192  28.294  16.649  21.881  0.1633 -0.0724 -0.0783
21276W        W64193  26.995  18.322  18.954 -0.5584 -0.2185 -0.0301
21277W        W64194  27.539  18.038  20.123  0.0684 -0.1220 -0.0132
21278W        W64195  25.221  18.781  19.911  0.2223 -0.2048  0.1056
21279W        W64196  26.227  14.452  20.785 -0.2698  0.1806 -0.4120
21280W        W64197  26.811  19.047  18.605  0.1316 -0.0156  0.3696
21281W        W64198  24.213  13.072  19.818 -0.1808 -0.1427 -0.1203
21282W        W64199  25.983  14.591  20.343  0.0289 -0.0335 -0.0591
21283W        W64200  25.952  16.610  17.930 -0.0290  0.2762  0.0289
21284W        W64201  28.316  14.811  21.114  0.0708  0.1591 -0.2336
21285W        W64202  27.034  15.938  21.149  0.0015  0.2348  0.1703
21286W        W64203  26.602  18.315  18.189  0.1299 -0.2020 -0.0225
21287W        W64204  29.199  16.332  18.087 -0.1163  0.2479 -0.1264
21288W        W64205  30.018  16.809  21.235 -0.2129  0.1491  0.2013
21289W        W64206  26.546  17.825  19.099  0.0810  0.4335 -0.1001
21290W        W64207  28.432  16.972  22.260  0.0990  0.0175 -0.0438
21291W        W64208  28.113  15.953  21.315  0.0719  0.0365  0.0948
21292W        W64209  27.997  16.914  18.067 -0.1927 -0.1809  0.1020
21293W        W64210  26.199  13.065  17.290  0.0328  0.1008  0.1393
21294W        W64211  26.308  17.026  17.475 -0.1006  0.2760 -0.3178
21295W        W64212  26.709  19.706  20.645 -0.2834  0.2732 -0.1092
21296W        W64213  25.901  18.359  22.467  0.0859 -0.1615  0.2508
21297W        W64214  24.675  18.336  16.586  0.0635 -0.0143  0.1239
21298W        W64215  26.759  17.378  17.504 -0.1423  0.1116  0.1380
21299W        W64216  26.099  17.810  17.960  0.0151 -0.0862 -0.3249
21300W        W64217  26.939  18.591  20.326 -0.0466 -0.0167  0.1686
21301W        W64218  26.712  15.418  17.262 -0.1102 -0.0649  0.0172
21302W        W64219  26.982  18.578  19.414  0.0341  0.2568 -0.2303
21303W        W64220  23.939  17.055  16.493  0.3988 -0.0927 -0.2338
21304W        W64221  26.651  17.063  18.492  0.3285  0.0796 -0.0786
21305W        W64222  27.093  18.814  19.023 -0.0782  0.0732 -0.0933
21306W        W64223  28.127  17.703  19.499 -0.2365  0.0032 -0.0763
21307W        W64224  28.477  15.482  16.873  0.4099 -0.1761  0.1860
21308W        W64225  29.252  16.115  19.253  0.0691  0.1437 -0.1937
21309W        W64226  27.413  15.484  18.358 -0.1214  0.0545 -0.0944
21310W        W64227  30.148  18.194  21.757 -0.1904 -0.1044 -0.1226
21311W        W64228  26.000  16.306  21.406 -0.2129  0.3315  0.1210
21312W        W64229  26.810  15.572  16.726  0.1729 -0.0028  0.2411
21313W        W64230  26.163  17.500  20.862 -0.2027 -0.0747  0.1733
21314W        W64231  28.614  14.380  21.008 -0.1172 -0.0300  0.4080
21315W        W64232  26.363  19.636  20.949 -0.0419 -0.2213 -0.1207
21316W        W64233  28.586  17.564  17.905  0.1193 -0.3452  0.1105
21317W        W64234  24.050  14.269  16.824  0.2231 -0.3271  0.1861
21318W        W64235  25.633  16.788  20.282  0.2185 -0.0840  0.0743
21319W        W64236  30.480  14.346  20.281 -0.3038  0.1162  0.0204
21320W        W64237  27.019  16.627  16.517  0.0905 -0.2351  0.1068
21321W        W64238  27.917  15.509  19.629  0.0554 -0.1333  0.1256
21322W        W64239  26.598  18.379  17.152  0.0685  0.1525  0.3624
21323W        W64240  27.941  18.090  19.239 -0.0616 -0.1685 -0.1471
21324W        W64241  26.337  18.718  19.799 -0.1136  0.2522 -0.2555
21325W        W64242  24.801  16.791  16.857 -0.1448 -0.0527  0.2738
21326W        W64243  26.432  15.325  20.010 -0.4680 -0.1730 -0.0954
21327W        W64244  29.452  17.581  20.562  0.0819  0.0340  0.0530
21328W        W64245  28.566  13.595  21.802  0.3048 -0.0540  0.0977
21329W        W64246  26.629  14.859  19.908  0.1507 -0.1767  0.4264
21330W        W64247  26.398  15.577  19.549  0.0170 -0.4738 -0.1694
21331W        W64248  30.398  15.817  20.409  0.3335  0.1388  0.0165
21332W        W64249  26.401  16.592  18.438  0.0030 -0.0104 -0.0474
21333W        W64250  28.053  16.410  17.030  0.0688  0.0326  0.1192
21334W        W64251  27.363  17.284  20.090 -0.1167  0.3256  0.3041
21335W        W64252  28.697  17.238  16.865  0.1868  0.2642 -0.1823
21336W        W64253  28.439  17.599  20.713  0.2617 -0.1914  0.2061
21337W        W64254  25.549  16.272  17.271 -0.1268  0.1029 -0.0682
21338W        W64255  27.681  15.719  17.265  0.0923 -0.0700  0.1305
21339W        W64256  26.328  16.391  17.078 -0.1790  0.0165 -0.2224
21340W        W64257  25.906  16.582  18.578 -0.0361  0.0881  0.1273
21341W        W64258  30.829  17.194  20.430  0.1827  0.0019 -0.0713
21342W        W64259  24.068  14.697  17.153 -0.0772 -0.1784 -0.0559
21343W        W64260  28.053  18.293  17.455 -0.0685  0.2393  0.0350
21344W        W64261  27.350  14.959  19.794 -0.2328  0.0586 -0.0278
21345W        W64262  24.830  17.657  17.390  0.2091 -0.0421 -0.0389
21346W        W64263  25.914  15.420  19.378 -0.3100  0.0284  0.1122
21347W        W64264  30.114  18.085  18.742  0.3173 -0.0252 -0.0828
21348W        W64265  27.775  13.386  20.476 -0.0391  0.1375 -0.0278
21349W        W64266  29.631  16.984  19.790  0.0550 -0.1230 -0.0952
21350W        W64267  28.449  18.613  18.554 -0.2258 -0.0775  0.2156
21351W        W64268  26.881  14.873  17.777 -0.1113 -0.1323  0.1709
21352W        W64269  26.321  14.713  18.693  0.3193 -0.1523 -0.0814
21353W        W64270  24.477  18.563  18.094  0.4111 -0.2211  0.0773
21354W        W64271  28.624  14.534  16.855  0.0643  0.1971  0.1444
21355W        W64272  27.469  16.517  20.126  0.0769  0.0813 -0.0270
21356W        W64273  28.781  17.004  17.470 -0.1827  0.1523 -0.0322
21357W        W64274  28.829  14.442  19.764 -0.2846  0.0870 -0.0006
21358W        W64275  26.778  16.251  18.324  0.1108  0.3664 -0.0112
21359W        W64276  26.556  17.341  21.231  0.0429 -0.1061  0.0324
21360W        W64277  24.987  16.641  15.933  0.0219  0.0815 -0.3150
21361W        W64278  27.646  17.281  20.960  0.1196 -0.3308 -0.2123
21362W        W64279  25.856  16.965  16.718  0.1805 -0.2130  0.1703
21363W        W64280  25.791  18.933  17.097  0.1109  0.1177  0.0093
21364W        W64281  27.074  14.534  19.932  0.0878  0.0186  0.0462
21365W        W64282  25.398  14.858  16.898 -0.2370 -0.1853  0.1412
21366W        W64283  29.138  17.071  18.897  0.2292 -0.1815  0.2589
21367W        W64284  25.833  13.241  17.007  0.1624  0.3371 -0.0749
21368W        W64285  26.895  15.744  17.572  0.0504 -0.0097  0.0832
21369W        W64286  28.272  16.778  19.017  0.0851 -0.0732  0.3466
21370W        W64287  26.645  16.055  19.734  0.3432 -0.1051  0.0993
21371W        W64288  26.556  14.944  17.142  0.0279  0.0952  0.0993
21372W        W64289  25.853  15.596  18.386 -0.1102  0.3051  0.2474
21373W        W64290  26.516  16.842  17.931 -0.1389 -0.1907  0.2757
21374W        W64291  27.764  15.157  20.845 -0.2509 -0.3036 -0.2947
21375W        W64292  26.234  14.194  18.853  0.0720 -0.2640  0.1034
21376W        W64293  24.349  15.470  17.167  0.0185 -0.3505 -0.1074
21377W        W64294  26.857  14.825  18.880 -0.0962  0.1345 -0.0119
21378W        W64295  29.773  17.914  18.379 -0.0101 -0.4585 -0.0636
21379W        W64296  27.924  15.113  20.077 -0.0032 -0.1504  0.0191
21380W        W64297  24.360  16.191  18.569  0.0131  0.0575 -0.1878
21381W        W64298  27.756  15.256  17.469  0.0487 -0.0122 -0.0323
21382W        W64299  27.493  16.851  18.130 -0.1959 -0.1253 -0.1111
21383W        W64300  26.637  13.682  16.773  0.3059  0.2573 -0.1848
21384W        W64301  28.378  17.716  22.682 -0.2725 -0.1367 -0.1482
21385W        W64302  23.747  18.910  17.440 -0.2544  0.2146  0.0263
21386W        W64303  25.904  16.328  20.861  0.0984  0.0891  0.2183
21387W        W64304  25.623  15.117  19.067  0.3788  0.3305  0.0414
21388W        W64305  24.854  14.501  16.498  0.0067 -0.0092  0.0564
21389W        W64306  28.485  15.024  20.170 -0.1782  0.1166  0.1475
21390W        W64307  28.200  17.492  17.595  0.0668  0.0687 -0.1626
21391W        W64308  28.793  18.744  16.891  0.1602 -0.1334  0.0995
21392W        W64309  26.882  16.486  19.895  0.0226  0.0169  0.1788
21393W        W64310  25.033  16.865  20.424 -0.0750  0.3149 -0.0468
21394W        W64311  25.037  14.833  18.222  0.3326  0.2677 -0.2194
21395W        W64312  28.572  16.340  17.180 -0.2887 -0.1769 -0.1543
21396W        W64313  26.643  17.539  18.416  0.1528 -0.0310 -0.1005
21397W        W64314  26.484  15.527  20.484  0.0307 -0.1697  0.1376
21398W        W64315  29.736  16.491  20.398 -0.2718  0.4933 -0.0423
21399W        W64316  26.382  14.938  20.415  0.1927 -0.1196 -0.2641
21400W        W64317  24.924  15.018  20.403 -0.3047 -0.0442  0.2421
21401W        W64318  25.450  19.108  20.246  0.0461 -0.1109 -0.1898
21402W        W64319  26.927  15.177  20.167 -0.1600  0.1299  0.1695
21403W        W64320  26.421  15.430  17.718 -0.0620  0.1219  0.2241
21404W        W64321  27.809  15.124  16.659  0.4877 -0.1700 -0.0725
21405W        W64322  28.387  17.586  17.120 -0.0280  0.0863  0.1685
21406W        W64323  25.943  16.686  17.275  0.1905 -0.0821  0.1873
21407W        W64324  26.516  14.488  17.733  0.0354 -0.1124  0.0668
21408W        W64325  28.074  17.851  20.170  0.3631  0.3999 -0.2074
21409W        W64326  25.687  16.950  18.177 -0.3384  0.0889  0.2088
21410W        W64327  27.857  16.777  19.411  0.0195  0.4496  0.0820
21411W        W64328  23.463  16.329  18.309 -0.0399 -0.2061  0.1075
21412W        W64329  29.851  17.082  17.506  0.1228  0.2621 -0.0947
21413W        W64330  27.388  16.649  19.532  0.4276  0.0307  0.0845
21414W        W64331  29.260  19.097  21.793  0.0465  0.4154  0.0530
21415W        W64332  27.198  19.015  21.883 -0.2416 -0.1715 -0.1008
21416W        W64333  29.147  15.155  20.395  0.2494 -0.0554 -0.2197
21417W        W64334  26.302  12.110  18.739 -0.5188  0.0826 -0.1356
21418W        W64335  25.502  15.814  17.378  0.0990 -0.1912 -0.1431
21419W        W64336  27.270  17.088  17.597 -0.3449 -0.0779 -0.1920
21420W        W64337  29.215  13.463  22.003 -0.1351 -0.1237  0.0880
21421W        W64338  26.480  14.414  18.327 -0.0102  0.2301 -0.1307
21422W        W64339  27.438  14.533  16.006 -0.0025 -0.1012 -0.2933
21423W        W64340  26.855  18.306  20.759 -0.2805  0.2754 -0.0814
21424W        W64341  27.140  17.715  19.848 -0.0892  0.1189 -0.2657
21425W        W64342  29.119  19.503  21.542 -0.1598 -0.0500 -0.2907
21426W        W64343  26.854  13.119  21.841  0.0927  0.1066 -0.1168
21427W        W64344  27.275  15.309  22.695 -0.0485 -0.0964  0.2589
21428W        W64345  28.589  14.442  20.281  0.0071 -0.0750  0.1054
21429W        W64346  24.687  13.795  22.293  0.0381  0.0730  0.2301
21430W        W64347  28.935  19.017  21.348 -0.0677  0.2485  0.2324
21431W        W64348  27.315  14.134  24.501 -0.0681 -0.3543  0.2060
21432W        W64349  29.745  18.843  20.913 -0.1760 -0.1475 -0.7418
21433W        W64350  29.041  19.049  23.775 -0.0277 -0.0932 -0.0507
21434W        W64351  27.390  16.473  21.240 -0.1113 -0.1767  0.0298
21435W        W64352  27.316  15.039  22.127 -0.0833  0.0558 -0.4468
21436W        W64353  27.322  18.613  23.978 -0.0686 -0.0959  0.1376
21437W        W64354  26.439  15.312  22.143  0.1537 -0.1684 -0.2346
21438W        W64355  25.598  15.003  21.164 -0.1343  0.1496 -0.0374
21439W        W64356  29.272  16.695  22.561 -0.0417 -0.0447  0.1933
21440W        W64357  26.093  15.674  22.056  0.0223 -0.3317  0.2633
21441W        W64358  26.859  15.392  23.878  0.1165  0.0560  0.2189
21442W        W64359  26.240  16.609  21.902  0.1259 -0.3580 -0.2484
21443W        W64360  28.322  19.383  23.909 -0.0898  0.0152  0.3257
21444W        W64361  27.234  13.442  25.286 -0.3392 -0.0263  0.1544
21445W        W64362  28.196  14.770  26.303  0.2826 -0.1688 -0.0352
21446W        W64363  26.270  17.466  22.233  0.1621 -0.1361  0.0656
21447W        W64364  26.897  16.649  18.733 -0.1080  0.0639 -0.2166
21448W        W64365  26.940  14.057  22.166 -0.3737 -0.3142 -0.3654
21449W        W64366  26.597  18.340  22.332 -0.2570 -0.2152 -0.2741
21450W        W64367  26.893  16.657  23.053  0.4594  0.0652 -0.0414
21451W        W64368  27.805  14.761  22.268  0.0976  0.1849 -0.2733
21452W        W64369  28.058  17.494  23.013  0.2395  0.1161 -0.0297
21453W        W64370  28.235  19.068  23.400  0.5139  0.1003  0.0122
21454W        W64371  28.333  14.395  23.003 -0.1718  0.0746  0.1690
21455W        W64372  25.063  16.164  23.159  0.1487 -0.2863 -0.0837
21456W        W64373  25.328  18.016  21.444  0.1248  0.2384 -0.0724
21457W        W64374  26.877  19.761  22.428  0.1730 -0.2278  0.2196
21458W        W64375  27.896  16.805  20.902 -0.0102 -0.1975 -0.0813
21459W        W64376  29.070  16.243  24.235 -0.3242 -0.0986  0.0372
21460W        W64377  28.069  16.732  23.662  0.2448  0.1394  0.0047
21461W        W64378  27.134  17.884  20.509  0.0008  0.1003 -0.3052
21462W        W64379  26.260  19.254  23.650 -0.1293  0.1253 -0.2328
21463W        W64380  26.128  18.547  21.651  0.1328 -0.0542 -0.2463
21464W        W64381  28.430  17.574  25.407  0.0898 -0.0125  0.0720
21465W        W64382  26.738  16.319  22.523 -0.0253  0.2211 -0.0002
21466W        W64383  27.086  16.324  20.461  0.0835  0.1106  0.4317
21467W        W64384  26.911  15.121  22.387 -0.0438 -0.5662  0.1141
21468W        W64385  27.514  15.993  24.682 -0.1697  0.1641  0.1656
21469W        W64386  25.670  16.420  23.243  0.0665 -0.2832  0.2390
21470W        W64387  27.939  15.139  21.890  0.3954 -0.1927 -0.1802
21471W        W64388  25.012  19.455  20.354 -0.1152 -0.2375  0.0223
21472W        W64389  28.894  15.956  21.577 -0.0704  0.1537 -0.2713
21473W        W64390  27.831  16.312  20.992  0.0451  0.0200  0.1102
21474W        W64391  30.511  15.464  21.346  0.0142 -0.2525 -0.1925
21475W        W64392  27.552  13.993  22.424 -0.2532 -0.0362  0.1573
21476W        W64393  24.451  17.520  21.254 -0.2097 -0.1248  0.4320
21477W        W64394  26.303  16.119  22.222 -0.1183  0.4283 -0.0348
21478W        W64395  29.787  18.053  24.415 -0.1058 -0.1794 -0.0172
21479W        W64396  25.888  14.041  20.822 -0.2597 -0.0909  0.0289
21480W        W64397  27.264  16.291  25.295  0.0830  0.2419 -0.2914
21481W        W64398  24.586  17.137  22.624 -0.1950  0.1537 -0.1158
21482W        W64399  24.227  14.786  20.237  0.0433  0.0946  0.0860
21483W        W64400  28.590  17.864  21.655  0.0720  0.2821  0.1516
21484W        W64401  29.301  16.704  21.954  0.2819  0.2198  0.0820
21485W        W64402  27.237  14.976  21.578  0.3196  0.0918  0.0734
21486W        W64403  25.477  14.573  21.437  0.1868 -0.1211 -0.1246
21487W        W64404  28.053  17.071  24.183 -0.0912  0.1186 -0.0006
21488W        W64405  25.281  16.218  24.391 -0.4015  0.0116  0.1004
21489W        W64406  26.338  15.586  19.071 -0.0505 -0.3848  0.0240
21490W        W64407  29.017  17.646  23.297 -0.2140 -0.2244  0.1342
21491W        W64408  23.507  16.227  23.911  0.0746 -0.0520  0.2909
21492W        W64409  30.459  14.991  22.608 -0.0691 -0.1962  0.0121
21493W        W64410  27.551  15.081  23.848  0.0029  0.3468 -0.1598
21494W        W64411  27.414  16.966  21.299 -0.0097  0.0924  0.0553
21495W        W64412  27.008  16.423  20.993  0.1096 -0.0877 -0.0823
21496W        W64413  27.331  13.914  24.949  0.2030 -0.1085  0.0830
21497W        W64414  29.373  14.631  22.354  0.0368 -0.0188 -0.1728
21498W        W64415  26.738  17.898  21.490 -0.0696  0.0860 -0.1680
21499W        W64416  29.556  14.374  20.677 -0.2802  0.0716 -0.1874
21500W        W64417  28.413  17.938  21.195  0.0716  0.1064  0.0862
21501W        W64418  27.624  15.906  22.103 -0.1272  0.1784 -0.1449
21502W        W64419  25.746  18.409  22.001 -0.1013 -0.0870 -0.1807
21503W        W64420  25.775  16.150  24.274  0.0326 -0.2698  0.0966
21504W        W64421  28.505  15.104  22.817  0.1585 -0.1434 -0.0427
21505W        W64422  27.600  20.826  19.803  0.0192 -0.0492  0.0351
21506W        W64423  25.897  16.621  24.246 -0.0874 -0.2521  0.2969
21507W        W64424  25.925  16.154  21.932 -0.4164 -0.0628 -0.0754
21508W        W64425  23.046  17.082  24.802  0.0564 -0.1658  0.2491
21509W        W64426  27.854  16.506  22.848 -0.1133  0.0144  0.2035
21510W        W64427  29.165  13.160  22.453 -0.0906  0.3505 -0.0407
21511W        W64428  27.721  14.787  23.163 -0.0284  0.0473  0.1944
21512W        W64429  29.076  15.389  22.125 -0.1093  0.0943  0.1261
21513W        W64430  27.120  15.935  23.212 -0.1536  0.0865 -0.1096
21514W        W64431  27.990  16.837  22.444  0.3290  0.0673 -0.0614
21515W        W64432  28.408  13.802  20.980  0.2488  0.2947  0.1242
21516W        W64433  27.326  16.198  21.693  0.0396  0.1058 -0.2695
21517W        W64434  24.827  15.495  24.878  0.1050 -0.3069 -0.2623
21518W        W64435  25.433  14.955  22.308 -0.1392  0.3098  0.2079
21519W        W64436  25.977  15.848  23.371  0.1503 -0.0485 -0.2201
21520W        W64437  25.714  13.702  23.555  0.1911 -0.3899 -0.4556
21521W        W64438  27.900  15.784  22.700  0.1107 -0.0041 -0.1846
21522W        W64439  26.069  15.816  21.397 -0.2483  0.3265  0.2963
21523W        W64440  28.738  15.475  21.621 -0.7697  0.0643 -0.0117
21524W        W64441  26.294  17.034  20.942 -0.0544 -0.0174 -0.1930
21525W        W64442  26.973  17.443  21.447  0.2152 -0.1417 -0.2190
21526W        W64443  27.761  15.321  22.892 -0.5923  0.3711 -0.1891
21527W        W64444  28.002  16.749  20.388 -0.0072  0.0646  0.2522
21528W        W64445  28.927  18.384  24.663 -0.0744 -0.0928 -0.2128
21529W        W64446  27.892  17.037  21.380  0.1721 -0.2297 -0.1914
21530W        W64447  26.343  16.680  22.407 -0.0101 -0.0734 -0.0777
21531W        W64448  25.764  16.161  22.439 -0.0737 -0.0162  0.0368
21532W        W64449  24.229  15.793  21.345 -0.0832  0.0051  0.2008
21533W        W64450  27.708  17.768  23.151  0.2158  0.2318 -0.0487
21534W        W64451  27.184  15.199  20.700  0.6153  0.1663 -0.1322
21535W        W64452  27.734  17.199  23.770 -0.0067  0.2766  0.3203
21536W        W64453  27.517  17.117  22.452  0.0565 -0.1768  0.0860
21537W        W64454  26.825  18.619  24.035 -0.0522 -0.1663  0.1123
21538W        W64455  28.055  12.587  24.062  0.0214  0.0736 -0.2791
21539W        W64456  29.750  15.982  23.554 -0.1415 -0.1465 -0.1402
21540W        W64457  28.641  16.686  23.671  0.0662 -0.3295  0.1856
21541W        W64458  25.147  14.436  19.838  0.2590  0.1508 -0.0024
21542W        W64459  27.562  19.436  22.130 -0.0443 -0.0034 -0.1440
21543W        W64460  27.460  18.033  21.307 -0.0681 -0.0355 -0.2625
21544W        W64461  27.255  18.971  22.393 -0.3351  0.0926 -0.2129
21545W        W64462  27.344  16.631  22.669 -0.1301 -0.1242 -0.0838
21546W        W64463  29.385  14.831  22.799  0.1120  0.2740 -0.0729
21547W        W64464  24.745  15.578  25.710  0.1837  0.1345 -0.2071
21548W        W64465  28.282  14.890  24.363  0.2653 -0.0078  0.2658
21549W        W64466  26.915  16.801  22.528 -0.0615 -0.0000  0.1322
21550W        W64467  24.346  15.282  25.123 -0.2211 -0.1515 -0.2027
21551W        W64468  27.312  15.522  19.790  0.0403  0.2815  0.0275
21552W        W64469  29.757  13.739  21.971  0.3268  0.0504 -0.1722
21553W        W64470  28.456  15.897  24.930 -0.1332 -0.2058  0.1251
21554W        W64471  29.046  14.606  20.575 -0.0369  0.1628  0.1287
21555W        W64472  26.608  15.945  21.347 -0.1844 -0.0295 -0.3997
21556W        W64473  28.113  14.643  20.348  0.1129 -0.0684  0.1026
21557W        W64474  25.052  16.462  25.913 -0.2051  0.0599 -0.2271
21558W        W64475  26.197  16.368  22.708 -0.1819  0.4125  0.0635
21559W        W64476  27.242  18.638  22.911  0.2022 -0.1480  0.1002
21560W        W64477  27.242  15.412  21.310  0.2700 -0.2099  0.2354
21561W        W64478  28.878  16.993  22.079  0.0525  0.1584  0.0801
21562W        W64479  26.679  17.621  21.931 -0.1610  0.1409  0.2247
21563W        W64480  27.663  18.707  23.558 -0.3218 -0.0468 -0.1172
21564W        W64481  30.355  15.632  20.838 -0.0222 -0.1599 -0.1391
21565W        W64482  27.230  14.278  22.590 -0.1607  0.1448 -0.2155
21566W        W64483  25.180  16.139  18.058  0.2965  0.1295  0.1898
21567W        W64484  28.488  14.148  22.140  0.1263  0.0516  0.2095
21568W        W64485  26.500  17.969  20.992 -0.1388  0.0881  0.1295
21569W        W64486  29.091  15.480  21.209  0.0784 -0.3430 -0.0836
21570W        W64487  25.405  16.032  22.827 -0.0639  0.2377 -0.1652
21571W        W64488  28.319  14.924  22.264 -0.0422  0.0962 -0.1623
21572W        W64489  28.027  15.840  23.727  0.4106 -0.0373 -0.2062
21573W        W64490  26.034  15.371  20.329  0.1936  0.1851 -0.1386
21574W        W64491  29.408  17.593  21.091 -0.1008 -0.2951 -0.0827
21575W        W64492  27.715  17.164  22.956  0.2516  0.2498 -0.0600
21576W        W64493  26.705  15.125  23.427  0.1206 -0.1204  0.2550
21577W        W64494  28.576  16.314  23.008  0.1300 -0.1827  0.0983
21578W        W64495  25.445  16.843  24.068  0.0128 -0.1349 -0.1777
21579W        W64496  28.761  15.631  22.916 -0.1762 -0.2270 -0.0756
21580W        W64497  29.966  16.751  20.739 -0.1374 -0.4502  0.0457
21581W        W64498  27.678  13.908  26.690  0.2827  0.1276 -0.1000
21582W        W64499  27.213  14.524  22.032  0.1156  0.0460 -0.2378
21583W        W64500  26.996  18.981  23.294 -0.2686  0.2427 -0.2359
21584W        W64501  26.463  16.174  21.748 -0.0661 -0.1538  0.0487
21585W        W64502  26.298  14.888  24.366  0.2070  0.0295  0.0386
21586W        W64503  27.540  17.398  23.395  0.0136 -0.0554  0.0792
21587W        W64504  26.782  17.748  22.452  0.1429  0.1737 -0.1709
21588W        W64505  28.871  15.795  25.228 -0.3267 -0.0584 -0.0399
21589W        W64506  26.746  18.521  23.141  0.0542 -0.0128  0.3030
21590W        W64507  28.394  15.984  22.610  0.0809 -0.1107 -0.0285
21591W        W64508  25.537  19.083  22.282 -0.3273  0.1597 -0.0204
21592W        W64509  26.381  16.425  20.101 -0.1914  0.2176 -0.2576
21593W        W64510  25.584  17.282  21.515  0.5435  0.1470 -0.1928
21594W        W64511  26.559  13.102  22.218 -0.2433  0.1517 -0.0643
21595W        W64512  28.994  14.990  22.487 -0.1163 -0.1100  0.2214
21596W        W64513  26.159  15.840  24.110 -0.1629  0.2740  0.1674
21597W        W64514  23.899  14.688  22.793 -0.1040  0.1314  0.0990
21598W        W64515  25.010  17.109  22.853 -0.1627  0.0259  0.1587
21599W        W64516  29.412  15.849  22.339  0.1018 -0.2226  0.0397
21600W        W64517  27.498  15.544  20.895 -0.3923  0.0503  0.1284
21601W        W64518  28.109  17.389  22.403  0.0838 -0.1146 -0.1625
21602W        W64519  28.056  15.751  24.597 -0.2183  0.0412 -0.1607
21603W        W64520  29.091  15.107  21.618 -0.1547  0.1415 -0.1155
21604W        W64521  26.703  14.677  23.758  0.2562  0.0413 -0.2533
21605W        W64522  25.786  14.509  22.984  0.1604 -0.3216  0.1673
21606W        W64523  24.479  16.960  23.338 -0.1463 -0.0716  0.1585
21607W        W64524  28.374  18.495  23.132  0.1801  0.0775  0.1212
21608W        W64525  25.166  17.206  21.767  0.2228 -0.2955 -0.3871
21609W        W64526  26.356  17.946  23.848 -0.0352 -0.0633  0.1582
21610W        W64527  26.842  15.488  26.247  0.2988  0.2485 -0.3515
21611W        W64528  26.853  18.081  23.943  0.1895 -0.3243 -0.0904
21612W        W64529  27.539  18.388  24.413 -0.0062 -0.1046  0.2220
21613W        W64530  26.156  14.850  22.029 -0.1964 -0.1738 -0.0535
21614W        W64531  27.251  18.052  22.726  0.2233 -0.0930 -0.2108
21615W        W64532  27.998  17.999  21.455  0.2566 -0.0493  0.1248
21616W        W64533  26.880  15.615  22.899 -0.1171 -0.0844  0.0355
21617W        W64534  25.403  17.638  23.668 -0.1946  0.1366  0.2222
21618W        W64535  27.505  13.095  22.511 -0.2814  0.0568  0.2276
21619W        W64536  29.354  16.793  21.345 -0.2007 -0.1556 -0.0829
21620W        W64537  29.889  16.837  24.053  0.2482  0.1569 -0.2058
21621W        W64538  26.976  15.635  20.527 -0.2623  0.0117  0.3065
21622W        W64539  24.212  17.551  20.767 -0.0040 -0.0502 -0.2954
21623W        W64540  29.832  14.700  21.966  0.0502 -0.1850 -0.0569
21624W        W64541  28.774  15.207  23.331  0.1271  0.1810  0.0363
21625W        W64542  27.671  18.185  22.853 -0.0303  0.2048  0.0370
21626W        W64543  27.574  16.170  22.574  0.3919  0.2220  0.0202
21627W        W64544  27.761  17.529  24.322 -0.1763 -0.0989  0.2413
21628W        W64545  29.468  15.145  22.324  0.0089 -0.1661 -0.0906
21629W        W64546  27.389  15.475  21.839  0.3193 -0.1965 -0.1294
21630W        W64547  27.892  15.047  21.329 -0.1238 -0.0988 -0.0422
21631W        W64548  31.508  15.452  23.306 -0.0246 -0.2144  0.0843
21632W        W64549  26.793  15.999  22.107 -0.0144 -0.0371 -0.2255
21633W        W64550  29.806  13.695  25.108 -0.1221 -0.1224 -0.2450
21634W        W64551  26.981  14.343  24.089 -0.1801 -0.1231  0.4251
21635W        W64552  26.393  19.575  22.422  0.1244 -0.2412  0.2763
21636W        W64553  25.041  16.510  23.924 -0.3807 -0.0118 -0.2234
21637W        W64554  28.890  18.237  24.056  0.1813 -0.4642  0.1385
21638W        W64555  26.816  16.983  25.852  0.0909 -0.0469  0.0353
21639W        W64556  29.292  15.621  21.680  0.2375  0.1988  0.0674
21640W        W64557  26.999  16.515  21.604 -0.0018 -0.1587 -0.2973
21641W        W64558  27.368  16.097  23.598  0.2146  0.2668  0.2595
21642W        W64559  27.234  19.443  23.248 -0.0378  0.0079 -0.1668
21643W        W64560  29.290  16.008  21.110  0.1853 -0.1476  0.1141
21644W        W64561  29.689  13.892  23.148  0.0600 -0.1149 -0.0049
21645W        W64562  26.295  14.951  22.987  0.2094 -0.5765 -0.2702
21646W        W64563  26.008  15.498  22.983 -0.0036 -0.0211  0.1070
21647W        W64564  29.305  14.653  21.322 -0.1202  0.0911  0.0072
21648W        W64565  25.899  16.750  21.045 -0.4495 -0.0442 -0.0672
21649W        W64566  27.001  14.500  25.471 -0.0173 -0.3339  0.0532
21650W        W64567  28.437  16.611  22.692 -0.2676 -0.2481  0.1501
21651W        W64568  26.733  14.527  22.173  0.0382  0.2634 -0.1609
21652W        W64569  27.814  16.336  23.441  0.0393 -0.3064 -0.2574
21653W        W64570  27.194  17.426  24.350 -0.0050 -0.0734  0.1275
21654W        W64571  28.727  13.796  24.432 -0.0780 -0.0477 -0.1172
21655W        W64572  23.373  15.558  24.622  0.3121  0.0704  0.0102
21656W        W64573  28.435  18.138  23.468 -0.0400  0.1653  0.3345
21657W        W64574  30.409  17.556  20.883  0.1357 -0.3182  0.0554
21658W        W64575  26.820  15.017  22.850  0.2333  0.3291  0.2009
21659W        W64576  26.789  14.480  22.760 -0.0388  0.3063 -0.2446
21660W        W64577  27.629  14.588  21.216 -0.1259  0.2057 -0.0102
21661W        W64578  25.813  15.028  24.973 -0.0648  0.0009  0.0987
21662W        W64579  27.236  14.954  23.050 -0.1313 -0.0428 -0.1553
21663W        W64580  26.755  14.675  23.235 -0.2991  0.1863  0.2302
21664W        W64581  28.084  14.728  23.914  0.2519 -0.0689 -0.0054
21665W        W64582  27.550  17.500  21.529 -0.0185 -0.1221  0.1244
21666W        W64583  28.491  17.950  23.941 -0.4781  0.0191  0.0998
21667W        W64584  28.122  16.115  23.060 -0.2096 -0.0329 -0.0987
21668W        W64585  26.557  17.055  22.233 -0.1384  0.0625  0.1116
21669W        W64586  24.712  16.537  23.051  0.2690 -0.2431  0.1738
21670W        W64587  26.961  15.840  21.632 -0.3236  0.0547  0.0479
21671W        W64588  25.585  15.753  21.823  0.0172 -0.1564 -0.1768
21672W        W64589  28.465  18.214  22.697  0.0702  0.3656  0.1414
21673W        W64590  27.556  16.596  23.796  0.0377 -0.2317 -0.2691
21674W        W64591  27.481  15.612  20.383  0.0896  0.2578  0.3675
21675W        W64592  30.311  14.165  23.888  0.1233 -0.1621  0.2460
21676W        W64593  27.388  18.342  20.721  0.3548 -0.1604  0.2139
21677W        W64594  25.551  15.061  24.253 -0.0895  0.0965  0.1470
21678W        W64595  26.215  17.676  23.477 -0.0994  0.1307  0.1595
21679W        W64596  26.016  17.060  21.926  0.0564 -0.0298 -0.3257
21680W        W64597  25.592  18.703  22.806 -0.1333 -0.2519  0.0528
21681W        W64598  26.663  14.206  23.436 -0.1510 -0.0339 -0.0467
21682W        W64599  27.717  14.678  21.701  0.2670  0.0304  0.2108
21683W        W64600  25.471  16.015  23.434  0.1838  0.2247 -0.1083
21684W        W64601  29.610  16.551  24.627  0.3160  0.1065  0.0971
21685W        W64602  25.301  19.300  24.933  0.0384 -0.0532  0.2586
21686W        W64603  26.005  15.367  21.620 -0.1140  0.0416  0.2012
21687W        W64604  28.763  18.865  24.565 -0.1085  0.1682  0.0471
21688W        W64605  28.018  17.869  22.353 -0.0934 -0.1453  0.0993
21689W        W64606  27.822  18.485  24.010 -0.0002 -0.3151  0.2675
21690W        W64607  24.554  16.071  25.568  0.1215  0.2533 -0.2225
21691W        W64608  26.202  15.566  23.705  0.0387 -0.2450 -0.1437
21692W        W64609  27.155  16.858  20.330 -0.0676  0.1107  0.2271
21693W        W64610  28.384  14.893  21.591 -0.1414 -0.2274 -0.1036
21694W        W64611  27.893  19.345  23.604 -0.1893  0.1631  0.2663
21695W        W64612  24.641  17.937  24.915 -0.2363  0.0948 -0.0273
21696W        W64613  28.150  15.163  23.162  0.0391 -0.1948  0.0788
21697W        W64614  27.807  18.313  22.264  0.0779 -0.0081  0.1521
21698W        W64615  29.479  16.923  20.821 -0.1141  0.0343 -0.0198
21699W        W64616  28.231  18.939  22.367 -0.1521  0.4625 -0.3465
21700W        W64617  30.662  18.259  20.565  0.3989 -0.1602  0.0894
21701W        W64618  27.744  15.330  23.363 -0.2847  0.3421 -0.2761
21702W        W64619  26.908  17.073  21.792  0.0418  0.1384 -0.1006
21703W        W64620  25.132  17.655  20.671  0.0582  0.2079 -0.0294
21704W        W64621  29.883  18.916  18.630 -0.2373 -0.2146 -0.0328
21705W        W64622  27.197  17.672  21.829 -0.1174  0.0326  0.2286
21706W        W64623  28.175  17.505  23.937 -0.0102 -0.0759 -0.0897
21707W        W64624  29.342  12.886  22.054 -0.2775  0.0532 -0.0914
21708W        W64625  27.520  15.852  21.359  0.0846 -0.0214 -0.2034
21709W        W64626  29.474  13.827  24.026 -0.1728 -0.0017  0.4095
21710W        W64627  27.945  17.283  24.720 -0.0086 -0.2250 -0.2149
21711W        W64628  25.887  16.064  22.935 -0.2087  0.1428 -0.1801
21712W        W64629  28.283  15.594  22.942 -0.0102 -0.3978  0.2714
21713W        W64630  28.518  16.264  24.050  0.1092 -0.0307  0.1245
21714W        W64631  28.774  16.671  25.198  0.1558 -0.3585 -0.1135
21715W        W64632  25.329  17.410  22.488 -0.1607 -0.2277  0.1463
21716W        W64633  28.099  16.352  19.300  0.0085 -0.1262 -0.1167
21717W        W64634  27.215  16.862  20.841  0.1426 -0.0083 -0.0345
21718W        W64635  23.988  18.291  21.295  0.1474  0.0139  0.0823
21719W        W64636  29.794  13.490  23.652 -0.1495 -0.1204 -0.0177
21720W        W64637  30.412  16.283  22.397 -0.0007  0.5640  0.2815
21721W        W64638  27.127  14.936  23.561  0.2818 -0.0635 -0.1432
21722W        W64639  27.088  18.524  23.557 -0.0326 -0.3793 -0.0389
21723W        W64640  24.831  15.273  24.433 -0.3962  0.1215  0.1147
21724W        W64641  27.492  17.281  25.178 -0.0304 -0.2841 -0.1117
21725W        W64642  24.640  14.938  21.144 -0.1842  0.1173 -0.0780
21726W        W64643  29.856  14.920  22.484  0.0010  0.1418 -0.1213
21727W        W64644  27.186  14.770  22.550 -0.0914 -0.1055 -0.2836
21728W        W64645  30.579  14.986  23.179 -0.0456 -0.1413  0.2586
21729W        W64646  26.960  15.860  23.718  0.1790  0.0395 -0.1657
21730W        W64647  27.798  14.315  23.245 -0.3322 -0.4077  0.3698
21731W        W64648  27.349  15.129  24.368  0.1016 -0.0852  0.1813
21732W        W64649  26.790  16.861  23.598 -0.1077 -0.4139 -0.1985
21733W        W64650  27.637  15.436  22.322  0.3437 -0.0813  0.2182
21734W        W64651  27.408  19.390  22.741 -0.0536  0.3149 -0.0301
21735W        W64652  28.561  14.796  20.641 -0.1916 -0.1103  0.0547
21736W        W64653  27.250  15.626  24.183  0.2077  0.1178 -0.2579
21737W        W64654  26.792  14.988  24.436  0.0597  0.3027 -0.0891
21738W        W64655  28.586  15.722  21.244  0.0828  0.0232  0.0456
21739W        W64656  26.603  17.080  23.111 -0.2888  0.1626 -0.0855
21740W        W64657  27.600  15.634  23.695  0.0262 -0.0929 -0.3517
21741W        W64658  29.204  17.128  26.019 -0.1713  0.5642  0.1524
21742W        W64659  25.425  13.698  21.847 -0.1072 -0.0128  0.3360
21743W        W64660  29.167  16.520  20.989  0.1764  0.1213 -0.1997
21744W        W64661  27.283  17.581  23.883 -0.1274  0.0561  0.1292
21745W        W64662  27.232  18.827  20.628 -0.3966  0.0251 -0.1279
21746W        W64663  28.740  14.980  21.985 -0.1787 -0.0947  0.2258
21747W        W64664  27.879  17.003  21.910  0.1376 -0.0317  0.1744
21748W        W64665  25.594  14.317  22.528 -0.0450 -0.0250  0.0390
21749W        W64666  28.021  18.510  24.468  0.1134  0.1839  0.2521
21750W        W64667  29.286  20.333  23.346 -0.0701  0.1692  0.3724
21751W        W64668  26.117  16.666  20.493  0.0949 -0.0060 -0.0081
21752W        W64669  26.588  16.065  22.957  0.0999  0.0786  0.0714
21753W        W64670  25.611  17.278  22.113 -0.0623 -0.2361 -0.2273
21754W        W64671  29.136  14.616  23.203 -0.1403  0.0268  0.1093
21755W        W64672  28.290  15.636  24.116  0.1720  0.0352 -0.1512
21756W        W64673  28.775  15.927  20.288 -0.3992 -0.1068 -0.0875
21757W        W64674  28.964  12.580  23.665  0.2774 -0.1001 -0.2255
21758W        W64675  28.084  18.044  24.194 -0.2788  0.3633  0.1623
21759W        W64676  26.244  17.878  24.387 -0.2475  0.0272  0.0608
21760W        W64677  25.729  15.713  22.558 -0.1390  0.0181 -0.0747
21761W        W64678  27.310  18.098  22.207 -0.2443 -0.1495 -0.0160
21762W        W64679  28.202  17.508  21.345  0.0594 -0.2325 -0.2067
21763W        W64680  26.040  17.975  22.238 -0.2793  0.2424 -0.1616
21764W        W64681  28.844  18.522  20.624 -0.1911  0.0221 -0.1991
21765W        W64682  25.720  17.729  21.224  0.1700  0.0377  0.2608
21766W        W64683  26.287  17.058  23.512 -0.0749 -0.0211 -0.1655
21767W        W64684  26.110  14.382  22.225 -0.2848  0.0509  0.0197
21768W        W64685  29.977  15.298  22.007 -0.0706  0.2180  0.0853
21769W        W64686  28.243  15.471  20.915 -0.3461 -0.3794 -0.1996
21770W        W64687  26.344  15.027  23.870  0.1671  0.2069 -0.0706
21771W        W64688  25.635  14.589  22.023 -0.0609 -0.0248 -0.1288
21772W        W64689  25.798  16.572  22.790  0.4433  0.0762 -0.2877
21773W        W64690  25.825  16.606  22.221  0.2467  0.2873 -0.0581
21774W        W64691  27.156  14.455  24.964 -0.5466 -0.1699  0.0486
21775W        W64692  26.842  14.184  24.642  0.2580  0.0127  0.0357
21776W        W64693  24.777  14.259  23.014  0.1877 -0.0182  0.2131
21777W        W64694  25.092  14.340  22.081 -0.3215 -0.4165  0.1491
21778W        W64695  28.284  16.434  21.032 -0.3393 -0.1008 -0.0701
21779W        W64696  24.217  15.945  22.444 -0.0467 -0.1469  0.1981
21780W        W64697  24.762  15.550  23.803  0.3373  0.1275 -0.1169
21781W        W64698  27.577  17.544  22.173  0.0942 -0.2510 -0.2840
21782W        W64699  30.190  19.465  21.555  0.1769 -0.1685 -0.0502
21783W        W64700  25.617  15.219  22.702 -0.0622  0.1317  0.1842
21784W        W64701  29.310  18.751  24.450 -0.2142  0.1210 -0.0741
21785W        W64702  26.806  17.392  20.175 -0.2532 -0.0544 -0.0170
21786W        W64703  27.555  14.799  24.807 -0.0980 -0.1336 -0.2507
21787W        W64704  26.493  15.180  24.772  0.0126 -0.1723 -0.1036
21788W        W64705  25.080  13.284  19.684 -0.2238 -0.0348 -0.0001
21789W        W64706  26.430  16.643  23.189 -0.0479  0.0975  0.1728
21790W        W64707  27.173  19.628  21.933 -0.0329 -0.0229 -0.0583
21791W        W64708  28.713  19.016  20.710 -0.4073  0.0018 -0.0447
21792W        W64709  24.639  17.413  22.182  0.2043 -0.0210 -0.0666
21793W        W64710  25.991  18.703  24.261  0.0916  0.0032  0.1347
21794W        W64711  27.041  15.922  24.534 -0.0612  0.0495 -0.1865
21795W        W64712  29.929  13.983  20.778  0.3043 -0.0118  0.1298
21796W        W64713  28.135  18.049  23.064  0.0722  0.1559  0.0064
21797W        W64714  30.059  14.217  22.010  0.3893 -0.1563 -0.2663
21798W        W64715  28.187  16.620  24.265 -0.0665 -0.0711 -0.0396
21799W        W64716  28.323  16.317  23.525  0.1278  0.1556  0.0388
21800W        W64717  26.505  12.024  25.633  0.0404  0.0719 -0.3429
21801W        W64718  24.525  17.960  23.244 -0.0081  0.2326  0.1366
21802W        W64719  27.199  16.277  22.172 -0.2694 -0.0105 -0.1393
21803W        W64720  25.791  14.671  20.826  0.1573 -0.1075  0.1032
21804W        W64721  28.244  14.545  21.943  0.1975 -0.0471 -0.1090
21805W        W64722  28.552  17.910  19.955 -0.0484 -0.0415  0.2087
21806W        W64723  25.528  15.608  23.090  0.2244  0.1201 -0.1806
21807W        W64724  29.212  15.495  22.772  0.3053  0.1355  0.1273
21808W        W64725  28.676  13.492  23.997  0.0658  0.3643  0.3393
21809W        W64726  30.393  17.176  24.710  0.1279  0.0386  0.3340
21810W        W64727  27.086  14.890  24.052 -0.1212 -0.2087  0.2604
21811W        W64728  27.219  16.764  22.149  0.2387 -0.2868  0.4856
21812W        W64729  28.114  14.746  19.857  0.1079  0.3885 -0.0564
21813W        W64730  27.429  17.914  24.364 -0.2476 -0.1342  0.3083
21814W        W64731  26.628  18.164  24.690 -0.0727  0.1882 -0.0586
21815W        W64732  27.260  17.079  23.717  0.1475  0.0857 -0.0963
21816W        W64733  27.131  18.451  22.491  0.1459  0.0897 -0.0736
21817W        W64734  25.359  15.121  25.186 -0.0905  0.0406  0.0970
21818W        W64735  27.728  15.866  23.277 -0.0895 -0.1477 -0.3343
21819W        W64736  26.923  15.461  21.985 -0.2432  0.0680 -0.1510
21820W        W64737  24.383  12.741  24.123 -0.4497 -0.0971 -0.2348
21821W        W64738  28.106  14.449  21.456 -0.0188 -0.0272  0.3815
21822W        W64739  27.839  15.497  21.274  0.0746 -0.1742 -0.2821
21823W        W64740  25.247  17.144  23.317 -0.0654  0.2016 -0.0737
21824W        W64741  28.173  16.626  23.195 -0.0212  0.1686  0.2655
21825W        W64742  26.256  17.483  26.081  0.1161 -0.0832 -0.0109
21826W        W64743  26.605  16.099  25.262  0.3099 -0.0533  0.3243
21827W        W64744  27.763  14.917  24.251 -0.0701 -0.0665 -0.0288
21828W        W64745  29.032  16.989  26.463 -0.0977  0.3039  0.3037
21829W        W64746  24.564  15.805  26.210 -0.2619  0.0640  0.0752
21830W        W64747  27.068  18.916  25.053 -0.5260 -0.0047 -0.0841
21831W        W64748  26.226  13.367  26.573 -0.0371 -0.1496  0.1327
21832W        W64749  28.847  17.890  26.870  0.1666  0.1101  0.1445
21833W        W64750  30.150  19.240  25.861  0.0923  0.2285  0.0022
21834W        W64751  26.703  14.253  25.921 -0.4638 -0.0545  0.3515
21835W        W64752  26.519  15.923  26.307  0.1030 -0.2217 -0.0307
21836W        W64753  26.937  17.906  27.421  0.0854 -0.1573  0.3269
21837W        W64754  27.206  14.966  25.527 -0.1039 -0.2322  0.0441
21838W        W64755  23.885  13.797  26.510  0.4635  0.1401  0.5532
21839W        W64756  29.812  14.054  27.337  0.1998 -0.1230  0.0232
21840W        W64757  26.067  15.761  26.756 -0.2156 -0.2949 -0.2605
21841W        W64758  25.617  15.507  26.859  0.1704  0.0252  0.2027
21842W        W64759  28.100  16.246  26.164  0.0692  0.1764  0.2122
21843W        W64760  25.502  17.459  25.038  0.1241 -0.0220  0.0396
21844W        W64761  27.134  16.113  27.002 -0.1775  0.3277  0.1379
21845W        W64762  27.733  14.681  26.661  0.1980  0.0318 -0.0464
21846W        W64763  27.468  18.002  24.897  0.1293 -0.0525  0.1670
21847W        W64764  24.644  15.122  24.003 -0.1556 -0.3683  0.0418
21848W        W64765  24.351  15.357  26.153 -0.0810 -0.1228 -0.0824
21849W        W64766  25.486  16.077  26.629  0.1052  0.0057  0.0955
21850W        W64767  29.928  15.114  26.672  0.4337  0.1994 -0.0985
21851W        W64768  26.675  18.078  26.127  0.0469  0.1601 -0.1946
21852W        W64769  28.031  17.081  27.257  0.2090 -0.1207  0.2607
21853W        W64770  28.203  18.113  27.692  0.0452 -0.0856  0.1207
21854W        W64771  27.827  16.690  26.954  0.1983  0.1819 -0.0707
21855W        W64772  25.269  15.708  25.094 -0.3344  0.3132 -0.3546
21856W        W64773  24.770  18.417  24.772  0.0713  0.1179  0.3869
21857W        W64774  27.036  17.713  25.616  0.2334 -0.0054  0.0123
21858W        W64775  30.611  17.364  25.324 -0.0200  0.1983  0.0687
21859W        W64776  27.456  17.382  27.454  0.2421  0.2462 -0.0507
21860W        W64777  27.568  19.387  26.574  0.2054  0.1708  0.2000
21861W        W64778  25.697  15.622  24.328 -0.2568 -0.1650  0.1136
21862W        W64779  27.225  18.961  26.552  0.1556  0.1888  0.1637
21863W        W64780  28.494  17.428  28.931  0.0535 -0.1039  0.2557
21864W        W64781  27.903  18.300  26.050  0.2926 -0.1100  0.2888
21865W        W64782  27.988  17.733  25.576 -0.0815  0.0382  0.1218
21866W        W64783  26.225  15.811  22.684 -0.0996 -0.0811  0.0342
21867W        W64784  27.970  17.523  25.150  0.0496  0.2886 -0.5177
21868W        W64785  24.730  17.997  26.607 -0.1514 -0.1987 -0.5443
21869W        W64786  27.475  18.654  27.265  0.0851  0.1465  0.3246
21870W        W64787  28.613  15.027  27.366  0.0370 -0.1947  0.3065
21871W        W64788  26.499  19.636  24.202 -0.0979  0.0057  0.0507
21872W        W64789  29.060  17.577  26.374  0.0635 -0.0939 -0.1604
21873W        W64790  27.755  15.435  24.142 -0.3310 -0.0980 -0.0563
21874W        W64791  29.191  16.363  25.301  0.1999  0.1667  0.1205
21875W        W64792  25.684  14.234  26.200 -0.0023  0.2768  0.4311
21876W        W64793  25.170  18.542  24.082  0.0192  0.0484  0.0097
21877W        W64794  27.989  16.371  27.452  0.0432 -0.0365 -0.3189
21878W        W64795  27.769  19.340  25.710 -0.0177 -0.0374  0.0859
21879W        W64796  27.921  18.581  26.485 -0.1332 -0.6087 -0.0686
21880W        W64797  27.613  15.101  26.427  0.3423 -0.1888 -0.1468
21881W        W64798  26.414  17.249  27.351 -0.1373 -0.2567  0.4002
21882W        W64799  25.700  13.821  24.989 -0.1140  0.2573  0.2341
21883W        W64800  29.617  18.374  25.869  0.1861 -0.0785 -0.0986
21884W        W64801  25.439  16.198  23.902  0.0306  0.2321 -0.0888
21885W        W64802  27.538  14.675  25.316  0.0531  0.2933 -0.0783
21886W        W64803  28.306  16.715  26.225 -0.1758 -0.0155  0.2499
21887W        W64804  24.393  18.451  25.132  0.1892 -0.3192  0.1458
21888W        W64805  26.398  16.519  28.244 -0.0360 -0.2012  0.4010
21889W        W64806  24.630  12.377  24.357  0.4424 -0.1381  0.1290
21890W        W64807  31.353  14.561  26.643  0.2533 -0.2410 -0.0127
21891W        W64808  25.428  17.240  29.231  0.0199  0.0177 -0.0161
21892W        W64809  28.419  18.091  25.335  0.3416 -0.1565 -0.1749
21893W        W64810  27.880  15.363  27.697  0.1473 -0.4768  0.0518
21894W        W64811  28.492  19.671  25.313 -0.0330 -0.1243 -0.1121
21895W        W64812  27.714  17.658  22.652  0.2485  0.0885 -0.0192
21896W        W64813  28.438  15.377  25.774  0.1555  0.0135  0.0232
21897W        W64814  26.309  16.805  27.087  0.3161  0.0579 -0.1095
21898W        W64815  27.653  15.941  24.159  0.0279  0.3314  0.0701
21899W        W64816  26.345  16.362  24.199 -0.4529 -0.2034  0.0183
21900W        W64817  29.887  18.430  26.277  0.0514  0.0702 -0.1014
21901W        W64818  29.439  16.989  24.529 -0.1463 -0.3639  0.0382
21902W        W64819  24.264  17.996  25.238 -0.0809  0.3451 -0.4165
21903W        W64820  26.032  15.255  26.843 -0.0352 -0.3678  0.1258
21904W        W64821  25.615  19.672  28.651  0.2478 -0.0711 -0.0549
21905W        W64822  25.756  17.683  24.509 -0.0743 -0.2104 -0.1867
21906W        W64823  24.875  18.706  25.213 -0.1301 -0.0551  0.2719
21907W        W64824  25.151  15.208  24.015 -0.1586 -0.0345  0.1023
21908W        W64825  25.167  14.629  27.097 -0.3705  0.0794  0.1270
21909W        W64826  25.964  17.402  28.375  0.1254  0.0692 -0.0162
21910W        W64827  29.416  13.950  25.284  0.2397  0.4703  0.0217
21911W        W64828  26.359  14.163  26.653  0.1341 -0.1180  0.0174
21912W        W64829  30.566  14.634  25.659  0.0594 -0.2878  0.0251
21913W        W64830  26.242  16.850  26.462 -0.1579  0.0072 -0.1913
21914W        W64831  29.357  17.537  24.575 -0.2005  0.3968 -0.3724
21915W        W64832  28.943  14.244  23.753  0.1944  0.0289 -0.0975
21916W        W64833  27.121  16.707  24.014  0.0515 -0.0780 -0.1059
21917W        W64834  24.628  15.480  27.103  0.3219 -0.1558  0.0607
21918W        W64835  25.714  14.956  25.508 -0.1983  0.1018 -0.0250
21919W        W64836  26.890  14.552  27.243  0.2285 -0.1186  0.2713
21920W        W64837  27.197  15.185  26.052 -0.0786  0.4156  0.2002
21921W        W64838  30.851  16.550  26.478  0.1516  0.0288 -0.0188
21922W        W64839  25.917  15.253  24.590  0.5174  0.1453 -0.0118
21923W        W64840  28.453  14.300  25.514  0.1562  0.2368  0.1108
21924W        W64841  26.683  15.840  24.138 -0.0489 -0.1426  0.0127
21925W        W64842  26.679  15.040  25.250 -0.1576 -0.0120 -0.1134
21926W        W64843  27.444  15.804  26.765 -0.1032  0.1125  0.1940
21927W        W64844  27.484  17.047  24.172  0.1185 -0.1128 -0.1631
21928W        W64845  27.286  17.934  26.694  0.1087  0.0606 -0.1077
21929W        W64846  28.300  18.519  27.363 -0.0987  0.1772  0.0940
21930W        W64847  25.640  14.686  26.036  0.1205 -0.0223  0.0001
21931W        W64848  26.518  15.690  25.826 -0.1249  0.2037 -0.3381
21932W        W64849  25.823  17.102  26.424  0.2410 -0.1592  0.1809
21933W        W64850  25.609  16.110  24.758 -0.1834  0.3024 -0.1901
21934W        W64851  25.522  12.984  24.865  0.3582 -0.3238  0.1029
21935W        W64852  30.059  16.875  27.453  0.1334 -0.4776 -0.2537
21936W        W64853  26.898  16.427  24.379  0.2275 -0.1127  0.0987
21937W        W64854  24.340  17.808  27.490 -0.1728 -0.1089 -0.0054
21938W        W64855  28.505  14.098  28.003  0.0402  0.1285  0.1553
21939W        W64856  31.616  18.071  26.028  0.2543  0.0133 -0.0088
21940W        W64857  26.112  18.546  25.216  0.2987 -0.3392 -0.1521
21941W        W64858  25.822  13.123  24.540  0.0816 -0.0857 -0.1222
21942W        W64859  27.917  18.685  25.731  0.1431  0.0264 -0.4964
21943W        W64860  26.222  16.904  22.873 -0.2503 -0.3956  0.0985
21944W        W64861  27.713  15.981  25.681  0.1011 -0.4723  0.0241
21945W        W64862  26.465  18.061  25.216  0.3263 -0.2306  0.2834
21946W        W64863  30.642  14.304  26.687  0.0715  0.1107  0.1122
21947W        W64864  24.704  15.720  28.276 -0.1567 -0.4061  0.0259
21948W        W64865  27.841  17.748  29.448 -0.0615  0.1813  0.0020
21949W        W64866  26.845  14.987  26.444 -0.5172 -0.2144  0.0088
21950W        W64867  25.474  18.427  28.176  0.2783 -0.0505  0.0321
21951W        W64868  28.549  14.608  25.064  0.0831  0.1442 -0.1242
21952W        W64869  30.401  16.060  24.894  0.0154  0.2120  0.1772
21953W        W64870  29.376  13.924  28.496 -0.0414 -0.0160 -0.1567
21954W        W64871  29.312  15.613  24.976 -0.0829  0.0534  0.1029
21955W        W64872  29.277  15.200  23.251 -0.1907  0.0343 -0.1380
21956W        W64873  28.064  15.265  26.205 -0.0436  0.1968 -0.0546
21957W        W64874  28.145  18.074  27.202  0.0563  0.1517 -0.3831
21958W        W64875  26.087  16.309  25.569 -0.0432  0.0116  0.0688
21959W        W64876  29.178  18.232  28.470  0.1969 -0.1123  0.1260
21960W        W64877  28.107  17.040  26.674  0.0115 -0.0902 -0.0109
21961W        W64878  29.735  15.478  26.232 -0.1597 -0.2847  0.2770
21962W        W64879  27.118  15.857  28.019  0.1332  0.2693  0.0740
21963W        W64880  29.372  16.299  28.107 -0.1277  0.0913 -0.1093
21964W        W64881  28.906  17.002  24.640  0.1097 -0.0576  0.1415
21965W        W64882  28.950  14.198  25.314  0.2042  0.0658  0.2232
21966W        W64883  27.917  14.140  25.422 -0.1078  0.0669 -0.2130
21967W        W64884  26.651  17.070  26.807 -0.0600  0.0395  0.0493
21968W        W64885  23.380  17.309  25.157 -0.3849 -0.0174  0.1372
21969W        W64886  30.491  17.424  26.399  0.3469  0.0800 -0.0283
21970W        W64887  27.259  14.650  26.347  0.1081 -0.0012  0.0269
21971W        W64888  29.363  14.670  27.850  0.1725 -0.0421  0.1962
21972W        W64889  28.791  15.713  27.480 -0.1447 -0.4152 -0.1263
21973W        W64890  28.539  15.174  23.976  0.1673  0.3337  0.0273
21974W        W64891  26.632  16.693  26.208 -0.0825  0.0634  0.1408
21975W        W64892  25.202  14.431  24.392  0.4309  0.0872 -0.1225
21976W        W64893  28.585  12.931  27.524  0.1241  0.0466  0.2258
21977W        W64894  26.838  15.631  27.692 -0.2959 -0.0419 -0.1047
21978W        W64895  24.142  18.182  25.951 -0.2325  0.1251 -0.2286
21979W        W64896  26.581  17.716  25.743  0.0630  0.1382  0.1635
21980W        W64897  27.665  16.573  24.330 -0.2158  0.0089  0.3796
21981W        W64898  28.495  12.223  27.631 -0.2818 -0.1901 -0.1256
21982W        W64899  29.201  15.252  24.638 -0.1066  0.2236 -0.1571
21983W        W64900  27.018  18.316  26.392  0.0286 -0.2664  0.0730
21984W        W64901  25.182  15.714  24.531 -0.0611 -0.2703 -0.2147
21985W        W64902  27.700  13.884  29.199  0.0061 -0.0023  0.0391
21986W        W64903  26.252  17.007  25.991  0.0670  0.0906 -0.2457
21987W        W64904  26.729  16.276  23.893 -0.0813  0.0544  0.0882
21988W        W64905  27.576  16.262  27.141 -0.0194  0.1542  0.4663
21989W        W64906  25.546  18.679  24.397  0.0762 -0.0268  0.1580
21990W        W64907  30.370  14.769  26.496  0.0990 -0.1991 -0.2345
21991W        W64908  25.385  17.136  26.784  0.1556 -0.0554 -0.2865
21992W        W64909  27.882  17.132  26.154  0.0154  0.0221 -0.2214
21993W        W64910  24.249  15.326  25.633  0.0511 -0.0719 -0.2220
21994W        W64911  27.679  13.231  25.113  0.0867 -0.0984  0.2271
21995W        W64912  28.451  15.530  23.647  0.0620 -0.1607  0.0313
21996W        W64913  28.300  16.285  26.625 -0.0709 -0.2690  0.1337
21997W        W64914  27.856  16.673  26.447 -0.0435  0.3027  0.1668
21998W        W64915  25.178  17.621  27.107  0.0955  0.1421  0.5903
21999W        W64916  27.111  15.818  25.968  0.1357 -0.0422  0.1681
22000W        W64917  29.781  15.409  25.229 -0.4054 -0.1382 -0.0366
22001W        W64918  29.089  17.037  26.953 -0.1091 -0.1315 -0.0392
22002W        W64919  25.133  16.872  27.178  0.1545  0.1668 -0.0132
22003W        W64920  23.946  17.118  23.194 -0.0759 -0.4061  0.0925
22004W        W64921  30.897  15.537  26.693 -0.2138 -0.1190  0.0834
22005W        W64922  25.151  16.097  28.255 -0.1379  0.2527 -0.0984
22006W        W64923  24.027  18.363  26.412  0.0127 -0.0066 -0.1439
22007W        W64924  25.812  16.902  26.967 -0.0275  0.1328 -0.1683
22008W        W64925  25.875  13.874  25.841 -0.0247  0.1810 -0.0347
22009W        W64926  26.013  16.881  24.932  0.2302  0.0654 -0.3067
22010W        W64927  26.941  15.861  28.669  0.0146 -0.0895 -0.3707
22011W        W64928  29.258  17.668  26.943 -0.2136 -0.3324  0.0105
22012W        W64929  26.527  16.020  26.816  0.0199 -0.1191 -0.2135
22013W        W64930  29.462  17.263  26.688  0.2917  0.0991 -0.0554
22014W        W64931  28.667  15.899  25.852 -0.1048  0.1099 -0.2718
22015W        W64932  27.221  17.004  27.144 -0.1382 -0.1865  0.1820
22016W        W64933  26.429  15.208  27.339 -0.0194 -0.1974  0.0208
22017W        W64934  24.554  17.357  27.626 -0.0220  0.1519  0.1364
22018W        W64935  29.708  15.474  25.711 -0.0190  0.0535  0.1211
22019W        W64936  29.662  19.543  23.988  0.1016 -0.2856  0.0235
22020W        W64937  27.522  16.164  27.654  0.0891 -0.1015 -0.1597
22021W        W64938  26.171  15.668  24.535 -0.1036 -0.2071 -0.2694
22022W        W64939  24.910  16.996  26.689 -0.1133  0.3656 -0.0810
22023W        W64940  27.636  15.520  24.739  0.2204 -0.0528 -0.0535
22024W        W64941  28.011  13.442  25.457  0.2625 -0.2314  0.1502
22025W        W64942  25.804  19.019  26.147  0.0898  0.0702  0.3415
22026W        W64943  26.337  18.400  25.872  0.1827  0.0662 -0.3337
22027W        W64944  26.371  16.782  27.751  0.3020 -0.0653 -0.0590
22028W        W64945  31.412  15.247  24.556 -0.0385  0.0923  0.3665
22029W        W64946  27.865  16.909  25.066  0.1740  0.0275 -0.1524
22030W        W64947  28.645  16.207  26.259  0.0503  0.2900 -0.4495
22031W        W64948  28.332  15.097  25.361  0.0737 -0.0068  0.3083
22032W        W64949  28.164  16.239  24.537 -0.1606  0.1031 -0.0354
22033W        W64950  27.882  13.711  28.463 -0.0281  0.1673 -0.1722
22034W        W64951  27.114  14.795  26.811 -0.1491  0.1551 -0.3496
22035W        W64952  29.616  17.641  25.814  0.1004 -0.1602 -0.0970
22036W        W64953  24.438  18.316  27.758 -0.2540  0.0929  0.1238
22037W        W64954  28.171  16.588  28.647  0.1229 -0.0148  0.1118
22038W        W64955  24.658  16.725  27.227  0.0179  0.0350  0.1665
22039W        W64956  29.201  15.373  25.419 -0.2650 -0.3179 -0.0041
22040W        W64957  28.275  15.426  24.986 -0.0795  0.0616  0.2124
22041W        W64958  27.280  17.771  28.158 -0.1424 -0.1657 -0.0161
22042W        W64959  28.979  16.521  26.061  0.0428  0.0475 -0.0037
22043W        W64960  26.766  16.850  25.248  0.0364  0.0128 -0.5017
22044W        W64961  30.574  16.044  26.072 -0.2540 -0.1403 -0.1757
22045W        W64962  26.302  16.393  26.646  0.0686  0.3675 -0.0374
22046W        W64963  28.955  17.900  25.048 -0.3191 -0.4698  0.1259
22047W        W64964  27.130  15.809  25.011 -0.1679 -0.1545  0.2148
22048W        W64965  27.184  17.567  27.036  0.1235 -0.2429 -0.2577
22049W        W64966  26.783  16.519  26.930 -0.1589  0.0452 -0.2915
22050W        W64967  29.371  16.618  26.745 -0.0855 -0.2506  0.4468
22051W        W64968  29.175  16.115  25.752 -0.0874  0.2355 -0.2615
22052W        W64969  27.665  16.962  25.544 -0.1431  0.0094  0.4716
22053W        W64970  26.983  15.844  26.527 -0.1238  0.0528  0.0076
22054W        W64971  27.728  14.073  25.889  0.1327 -0.0392 -0.0914
22055W        W64972  26.366  13.734  27.899  0.0764 -0.0322 -0.2680
22056W        W64973  27.785  17.962  27.892 -0.0914  0.2520  0.2320
22057W        W64974  28.821  14.823  23.768  0.3575  0.0928  0.2856
22058W        W64975  28.385  17.352  27.541  0.2080 -0.0784  0.3453
22059W        W64976  30.257  15.759  23.540 -0.0599 -0.0032 -0.2491
22060W        W64977  28.376  15.725  25.425 -0.0914  0.0963 -0.1080
22061W        W64978  26.161  14.592  26.881  0.1779  0.0157 -0.1690
22062W        W64979  28.142  14.002  29.499  0.1470  0.0514  0.4086
22063W        W64980  25.657  16.702  28.000 -0.0155 -0.0361  0.0652
22064W        W64981  28.711  15.526  26.134  0.1945  0.0527  0.1908
22065W        W64982  26.045  16.463  24.694  0.0555  0.0448 -0.0731
22066W        W64983  29.734  17.077  25.921  0.3576  0.1173  0.0393
22067W        W64984  30.256  12.388  24.157 -0.2423 -0.2342 -0.2551
22068W        W64985  24.707  17.785  27.170  0.1487 -0.2551  0.0718
22069W        W64986  24.790  15.873  25.164  0.0872  0.0532  0.1418
22070W        W64987  24.747  15.213  25.363 -0.1551  0.6255 -0.0309
22071W        W64988  27.054  15.872  25.452  0.0715  0.2374 -0.0115
22072W        W64989  27.394  18.508  26.703 -0.1711 -0.1385 -0.3174
22073W        W64990  28.186  16.204  28.290  0.0250 -0.0926  0.2015
22074W        W64991  27.470  14.153  23.760  0.0547 -0.0970 -0.3726
22075W        W64992  27.664  14.020  27.499 -0.0405 -0.0444  0.2437
22076W        W64993  25.513  16.452  25.628  0.2324  0.2430 -0.0838
22077W        W64994  28.620  14.547  26.598  0.3812  0.1273  0.0151
22078W        W64995  26.442  16.660  25.729 -0.1462  0.0647 -0.0114
22079W        W64996  25.425  18.741  29.079 -0.1595  0.1294  0.2619
22080W        W64997  26.369  18.367  26.420 -0.0588  0.0133  0.1531
22081W        W64998  27.767  14.237  27.975 -0.1353  0.1246 -0.3566
22082W        W64999  28.608  17.527  25.946 -0.3288  0.0750  0.0926
22083W        W65000  29.446  15.014  26.176  0.1675  0.0122 -0.1970
22084W        W65001  28.192  17.939  28.224  0.0309  0.1342  0.0607
22085W        W65002  28.612  17.140  28.006 -0.0189 -0.2318  0.2712
22086W        W65003  24.675  16.535  26.729 -0.1777  0.1420 -0.0874
22087W        W65004  28.686  16.637  26.581  0.0371  0.0408  0.3571
22088W        W65005  28.332  16.602  24.989  0.1338  0.4979 -0.0214
22089W        W65006  25.552  16.851  26.107 -0.1542 -0.1018  0.1352
22090W        W65007  23.688  16.968  29.264 -0.0291  0.1669 -0.4704
22091W        W65008  24.672  17.932  29.066 -0.1229  0.1499  0.0353
22092W        W65009  27.352  17.158  26.049  0.0066 -0.0683  0.1545
22093W        W65010  28.203  15.747  26.400 -0.1814  0.0451  0.0046
22094W        W65011  26.397  17.364  23.927 -0.3664  0.2527 -0.0770
22095W        W65012  23.936  18.188  27.441  0.0634 -0.1980  0.0520
22096W        W65013  25.649  17.209  27.756  0.0009  0.1547 -0.1659
22097W        W65014  27.433  18.160  23.913 -0.0247 -0.0854 -0.1341
22098W        W65015  29.187  16.245  21.990 -0.1067  0.0228  0.0690
22099W        W65016  25.429  16.216  26.149  0.2236  0.0611  0.1815
22100W        W65017  28.857  19.109  26.513 -0.0193 -0.0388  0.0327
22101W        W65018  28.014  16.293  23.962 -0.0026 -0.1022 -0.1149
22102W        W65019  25.238  14.371  25.898  0.0732 -0.1894  0.1927
22103W        W65020  25.740  18.132  26.437  0.2939  0.1397 -0.1429
22104W        W65021  28.814  14.582  22.782 -0.0735  0.0381  0.1776
22105W        W65022  25.082  16.617  24.708  0.1292 -0.3455 -0.0863
22106W        W65023  30.120  14.624  26.931  0.0959 -0.0081 -0.0704
22107W        W65024  28.896  16.211  24.892 -0.1000 -0.4238  0.1990
22108W        W65025  26.367  16.554  25.155  0.2616 -0.0608  0.0250
22109W        W65026  28.641  14.733  23.247  0.0774  0.2978  0.4612
22110W        W65027  26.657  18.818  26.241 -0.0367 -0.1583  0.1277
22111W        W65028  25.501  17.169  27.282 -0.0396 -0.0669  0.3078
22112W        W65029  28.528  14.476  26.003  0.1417 -0.2916  0.1754
22113W        W65030  24.885  16.820  27.658  0.5348 -0.0201 -0.0869
22114W        W65031  30.140  13.253  28.387 -0.0570 -0.2769  0.1442
22115W        W65032  24.689  18.013  28.096 -0.0353  0.1420 -0.0154
22116W        W65033  27.154  16.133  24.062 -0.1702  0.2650 -0.1907
22117W        W65034  26.492  16.166  24.628 -0.0152  0.1728 -0.0978
22118W        W65035  25.777  15.657  24.836 -0.1381  0.3613  0.0595
22119W        W65036  30.025  14.976  27.255 -0.0792 -0.2159  0.2013
22120W        W65037  26.263  16.892  24.413 -0.1739  0.3247 -0.1337
22121W        W65038  28.061  15.252  23.752  0.1955  0.1836 -0.1805
22122W        W65039  26.126  17.980  26.063  0.2924  0.0178  0.3339
22123W        W65040  27.272  16.761  25.721 -0.0102  0.0929 -0.1133
22124W        W65041  26.066  18.139  25.562  0.0041  0.0905  0.1780
22125W        W65042  25.492  14.077  25.327 -0.2611 -0.5352 -0.0440
22126W        W65043  30.088  17.106  26.949 -0.0939  0.0250  0.2054
22127W        W65044  23.982  17.512  28.299 -0.0045  0.4813  0.1277
22128W        W65045  27.183  15.414  28.358 -0.0860  0.1695 -0.1740
22129W        W65046  24.347  16.138  26.536 -0.0040  0.1693  0.0547
22130W        W65047  29.155  16.744  25.571  0.1202 -0.2358 -0.1948
22131W        W65048  28.901  16.446  27.667  0.5106  0.2706  0.2134
22132W        W65049  26.343  15.041  26.514  0.2309  0.3207 -0.2043
22133W        W65050  28.580  15.965  24.451 -0.2261  0.1696 -0.3334
22134W        W65051  28.005  14.327  26.483  0.1113  0.3328  0.1375
22135W        W65052  29.245  18.142  25.427  0.1536 -0.0972 -0.1409
22136W        W65053  26.667  17.589  26.948 -0.1791  0.0419  0.1300
22137W        W65054  26.480  16.204  25.892  0.3724  0.0433  0.0767
22138W        W65055  28.174  17.258  25.798 -0.0191 -0.0601  0.3197
22139W        W65056  26.217  16.970  25.370 -0.3948  0.1517 -0.1061
22140W        W65057  25.916  16.826  27.496  0.1203 -0.3028  0.5165
22141W        W65058  27.818  17.546  27.123  0.0243 -0.1335  0.0084
22142W        W65059  28.271  13.425  25.066  0.1451  0.2774 -0.1150
22143W        W65060  29.521  17.719  24.065  0.0850 -0.0979 -0.2338
22144W        W65061  29.313  15.550  26.889 -0.4002  0.1995  0.0874
22145W        W65062  26.988  17.852  25.145  0.2981  0.0869  0.2075
22146W        W65063  28.869  16.625  27.152  0.0682 -0.0871  0.1373
22147W        W65064  28.010  17.621  26.114 -0.2934  0.2987  0.2004
22148W        W65065  24.937  15.943  27.259  0.1893 -0.1918  0.2535
22149W        W65066  28.106  16.891  28.251 -0.1058  0.2799  0.2551
22150W        W65067  30.464  18.122  25.780  0.0806  0.0689  0.1231
22151W        W65068  27.551  16.422  26.009  0.2303  0.0227 -0.1130
22152W        W65069  27.062  17.464  27.778 -0.1731  0.1191  0.2730
22153W        W65070  26.695  18.632  24.580 -0.1726 -0.1064 -0.2892
22154W        W65071  31.837  15.915  24.182  0.1789 -0.0262 -0.0051
22155W        W65072  28.534  17.121  27.099 -0.0242 -0.2193 -0.2858
22156W        W65073  25.890  18.624  25.665 -0.1413 -0.0421  0.0542
22157W        W65074  27.316  13.925  28.176 -0.2610  0.2618  0.1103
22158W        W65075  26.324  19.109  27.822  0.0415 -0.0701 -0.0752
22159W        W65076  26.424  18.579  26.892 -0.1157  0.0294 -0.0944
22160W        W65077  28.520  16.579  25.668  0.0423 -0.1841  0.0568
22161W        W65078  28.486  16.757  27.448 -0.1903 -0.0228  0.0505
22162W        W65079  27.464  17.597  26.322  0.1932  0.2302  0.2564
22163W        W65080  25.873  18.234  24.364  0.2102 -0.0189  0.1803
22164W        W65081  26.718  17.392  25.415  0.0280 -0.1090  0.0125
22165W        W65082  28.731  15.361  25.382 -0.0277 -0.1823 -0.1637
22166W        W65083  30.096  17.852  27.427 -0.4213  0.2065 -0.4064
22167W        W65084  27.165  16.541  27.373  0.1178  0.0882 -0.0920
22168W        W65085  29.776  13.173  26.303 -0.0651 -0.2953 -0.0562
22169W        W65086  31.714  15.175  25.064 -0.0525  0.3019 -0.2184
22170W        W65087  27.262  16.271  28.574  0.0772  0.0273  0.0883
22171W        W65088  24.210  16.392  22.696 -0.2598 -0.1901  0.0105
22172W        W65089  26.127  17.516  25.633  0.2018 -0.0889  0.1720
22173W        W65090  25.197  17.272  27.632 -0.0798  0.0916 -0.0150
22174W        W65091  25.414  14.187  26.941  0.1706  0.1452  0.1782
22175W        W65092  24.444  18.418  26.645  0.1723 -0.0093  0.3017
22176W        W65093  26.009  16.123  26.403  0.1412  0.3601  0.0018
22177W        W65094  27.702  16.442  25.450 -0.0220 -0.0783  0.1719
22178W        W65095  28.619  16.798  23.212  0.0889 -0.5396 -0.0979
22179W        W65096  25.962  13.410  25.110  0.0542  0.0781  0.2336
22180W        W65097  23.031  14.165  26.661  0.2330 -0.4324  0.1399
22181W        W65098  29.138  15.609  25.814 -0.0955 -0.2575  0.1367
22182W        W65099  30.178  17.622  26.066 -0.0103 -0.2516  0.0167
22183W        W65100  28.039  16.087  27.013 -0.0049  0.0115 -0.1712
22184W        W65101  29.617  19.429  25.997 -0.2968 -0.1266  0.0816
22185W        W65102  25.731  17.194  24.675  0.0170  0.2570  0.0223
22186W        W65103  26.391  15.212  27.929  0.1922  0.0733 -0.1476
22187W        W65104  27.677  14.318  27.007 -0.1455 -0.2506 -0.2058
22188W        W65105  26.168  15.410  25.060  0.0618 -0.4111 -0.1724
22189W        W65106  29.717  16.404  25.549 -0.1153  0.1267 -0.0905
22190W        W65107  28.007  16.639  25.783 -0.0197 -0.2247  0.1828
22191W        W65108  27.640  17.922  25.877 -0.0170 -0.0987  0.1306
22192W        W65109  27.278  15.222  28.818 -0.1795 -0.2070  0.1942
22193W        W65110  27.483  18.626  27.956  0.0443 -0.1219 -0.0479
22194W        W65111  25.278  16.696  29.210  0.2187 -0.0895  0.1120
22195W        W65112  26.952  16.344  25.994 -0.2760 -0.0333  0.3643
22196W        W65113  26.996  17.159  28.729 -0.1202 -0.0040  0.2698
22197W        W65114  29.624  15.563  24.449 -0.0663  0.2267 -0.0539
22198W        W65115  31.130  16.224  24.201  0.0003  0.1773  0.1190
22199W        W65116  29.615  16.000  25.941 -0.0086 -0.1221 -0.0888
22200W        W65117  26.780  13.589  29.426  0.0659  0.0353  0.0343
22201W        W65118  27.539  18.214  28.211 -0.3046 -0.5003  0.0524
22202W        W65119  28.333  17.580  27.016 -0.0905 -0.1847  0.0575
22203W        W65120  26.668  14.544  26.776  0.2594 -0.1141  0.1410
22204W        W65121  30.095  15.395  24.581 -0.1799  0.1632 -0.1992
22205W        W65122  28.610  16.547  24.550  0.0612  0.0682  0.1391
22206W        W65123  23.416  17.104  27.070 -0.1193 -0.3440  0.0322
22207W        W65124  26.480  17.181  24.974  0.0007 -0.2021  0.0512
22208W        W65125  27.240  15.330  26.673  0.0371 -0.2547  0.0141
22209W        W65126  27.615  16.814  27.487  0.1118 -0.0498  0.0855
22210W        W65127  28.403  17.212  26.260  0.1845  0.1641  0.1489
22211W        W65128  28.599  12.734  25.571  0.0944 -0.2445 -0.0394
22212W        W65129  30.624  15.846  22.247  0.3575 -0.0556  0.2626
22213W        W65130  27.678  17.194  28.512  0.1502  0.1216  0.1867
22214W        W65131  29.331  17.345  27.366 -0.0578 -0.1804 -0.3934
22215W        W65132  27.744  17.749  28.376 -0.1249  0.0925  0.1662
22216W        W65133  30.761  16.879  25.478 -0.1159 -0.1831 -0.1752
22217W        W65134  26.326  15.677  27.191 -0.3283 -0.2584  0.0071
22218W        W65135  27.798  16.544  27.864  0.2709  0.1561 -0.3446
22219W        W65136  27.319  16.532  26.832 -0.0172 -0.1392 -0.1525
22220W        W65137  29.132  15.994  27.736  0.0757  0.2681  0.0429
22221W        W65138  28.236  16.190  25.677 -0.2016 -0.0083  0.0105
22222W        W65139  29.696  14.771  24.150  0.1014 -0.0557  0.0365
22223W        W65140  27.127  16.807  26.357 -0.0668 -0.1023 -0.1100
22224W        W65141  29.415  16.323  26.303 -0.0142  0.0375  0.2445
22225W        W65142  26.024  16.790  31.074 -0.2077  0.1828  0.1723
22226W        W65143  26.168  16.664  30.192 -0.1431  0.0746 -0.1485
22227W        W65144  27.439  13.370  28.577  0.1508  0.2170  0.0486
22228W        W65145  28.295  15.724  27.424  0.0689 -0.0362  0.0089
22229W        W65146  26.455  14.808  28.767 -0.1949  0.0338 -0.3255
22230W        W65147  28.536  19.327  26.891  0.0188 -0.0260 -0.3359
22231W        W65148  26.500  16.134  28.616  0.0712  0.0862  0.1108
22232W        W65149  28.640  14.928  28.700 -0.1238 -0.0064 -0.1564
22233W        W65150  26.799  17.619  28.542 -0.3336  0.2231 -0.0799
22234W        W65151  27.103  16.900  27.715  0.0711 -0.0809 -0.1428
22235W        W65152  26.438  16.426  27.374 -0.3294 -0.3091 -0.2151
22236W        W65153  25.473  16.502  28.381 -0.2692  0.0820 -0.3475
22237W        W65154  27.197  12.970  26.837  0.0880  0.1537 -0.0973
22238W        W65155  25.748  14.718  28.668 -0.2046  0.4834  0.0941
22239W        W65156  29.388  16.248  29.707 -0.0971  0.3177 -0.0094
22240W        W65157  23.630  16.002  28.044 -0.0154  0.0222  0.2483
22241W        W65158  26.535  17.447  29.239  0.1149 -0.0756 -0.0562
22242W        W65159  26.852  16.168  29.015 -0.1360  0.0150  0.1053
22243W        W65160  27.868  19.425  28.340  0.0110 -0.2101  0.1952
22244W        W65161  23.993  15.995  31.056 -0.2675 -0.2548 -0.0331
22245W        W65162  26.543  17.687  29.877  0.0330 -0.0275 -0.1668
22246W        W65163  27.061  20.418  30.111 -0.1540 -0.3246 -0.0489
22247W        W65164  26.204  14.641  27.838 -0.0450 -0.1594  0.1624
22248W        W65165  25.631  15.814  30.167  0.3375 -0.0984 -0.1536
22249W        W65166  28.241  16.500  29.657  0.1516 -0.5668 -0.0189
22250W        W65167  26.904  15.341  31.001  0.0525 -0.0471 -0.1196
22251W        W65168  28.861  15.104  27.814  0.0604  0.0041 -0.0025
22252W        W65169  27.393  17.424  29.349  0.3181  0.2255 -0.1904
22253W        W65170  28.638  17.854  29.663  0.1156  0.1041 -0.1724
22254W        W65171  28.848  15.334  31.017  0.3661  0.0988  0.4103
22255W        W65172  26.743  16.604  28.671 -0.0077  0.1128 -0.0298
22256W        W65173  25.718  18.627  29.927 -0.1463 -0.2210  0.0726
22257W        W65174  26.492  18.068  28.441 -0.0888  0.1894 -0.3756
22258W        W65175  30.295  17.321  29.776  0.1773  0.1644  0.1134
22259W        W65176  28.571  17.896  30.833 -0.0790  0.0329  0.1634
22260W        W65177  27.750  19.245  29.175  0.1019  0.0530  0.0445
22261W        W65178  24.924  17.677  27.593  0.1528 -0.1296 -0.1191
22262W        W65179  25.370  17.929  29.682  0.1518  0.0473 -0.0313
22263W        W65180  27.258  18.118  31.070  0.1398 -0.0540  0.1954
22264W        W65181  27.318  17.295   0.637 -0.0246 -0.0302 -0.1159
22265W        W65182  28.628  16.738  28.825  0.0304 -0.1335 -0.0811
22266W        W65183  25.336  20.031  28.313  0.0229 -0.0535  0.1139
22267W        W65184  24.567  18.572  27.272  0.2749 -0.0565 -0.0303
22268W        W65185  26.975  18.527   0.020 -0.1796  0.1441  0.1092
22269W        W65186  26.208  17.598  31.582 -0.3279  0.0326 -0.3684
22270W        W65187  30.796  17.257  29.927  0.2407  0.1175 -0.1716
22271W        W65188  24.704  18.381  28.816 -0.3208 -0.0454  0.0076
22272W        W65189  28.512  15.960  26.930 -0.3543  0.1777  0.0582
22273W        W65190  26.347  13.097  31.058 -0.2408 -0.1034 -0.1438
22274W        W65191  28.564  15.281  28.325 -0.0371 -0.1346 -0.2538
22275W        W65192  25.927  14.942  30.502 -0.0051 -0.2194 -0.2671
22276W        W65193  26.159  17.656  29.552  0.2970  0.0461 -0.2448
22277W        W65194  25.180  15.568  29.996 -0.3500 -0.2014  0.1270
22278W        W65195  29.400  17.747  31.316 -0.1935 -0.0728  0.0826
22279W        W65196  28.131  14.209  28.332  0.1496  0.0277 -0.1343
22280W        W65197  26.024  17.030  30.498 -0.2496 -0.1410 -0.0045
22281W        W65198  25.819  17.259  29.577  0.0214  0.0751  0.0515
22282W        W65199  24.876  15.198  29.871 -0.0224  0.0973 -0.2141
22283W        W65200  29.329  18.501  29.110 -0.0827 -0.0973 -0.0437
22284W        W65201  28.074  19.441  30.856 -0.0726  0.1500  0.1257
22285W        W65202  29.533  16.614  30.713 -0.0528 -0.0177 -0.2033
22286W        W65203  26.625  15.313  29.475 -0.3377 -0.3788  0.1261
22287W        W65204  26.004  17.287  29.049 -0.2661  0.1625  0.1921
22288W        W65205  24.015  15.003  29.930  0.1756 -0.0393 -0.0466
22289W        W65206  27.456  15.053  28.044  0.1421 -0.1701 -0.2675
22290W        W65207  30.427  17.410  30.258  0.4860 -0.0226  0.1058
22291W        W65208  26.291  17.184  31.284  0.0592  0.1624  0.0413
22292W        W65209  28.615  15.981  29.114 -0.2025  0.3657  0.1387
22293W        W65210  26.223  16.571  30.688 -0.3821 -0.1616 -0.1419
22294W        W65211  30.656  17.619   1.152  0.3804  0.2358 -0.0594
22295W        W65212  29.728  16.655  28.712 -0.1767 -0.1006 -0.0070
22296W        W65213  28.491  17.971  31.933 -0.2483 -0.2109 -0.3216
22297W        W65214  28.125  13.423  30.196  0.0476 -0.2088  0.1792
22298W        W65215  26.797  16.494  27.826  0.0322  0.1616  0.1295
22299W        W65216  28.006  17.450  29.101  0.0077 -0.0561  0.1411
22300W        W65217  28.264  18.251  30.078  0.2044  0.0122 -0.3141
22301W        W65218  27.257  15.244  27.182  0.2477  0.1177 -0.0350
22302W        W65219  26.337  19.048  30.387  0.1097 -0.1139 -0.1708
22303W        W65220  25.750  17.434  31.443  0.0850 -0.0851 -0.1778
22304W        W65221  27.009  17.281  31.105  0.0997  0.4541  0.2384
22305W        W65222  25.497  18.899  27.123  0.1531  0.1174 -0.1259
22306W        W65223  24.460  16.952  29.636 -0.1227 -0.0568  0.1839
22307W        W65224  24.527  17.438  28.554  0.2725  0.0660  0.0844
22308W        W65225  25.363  14.218  29.419  0.0779 -0.1453 -0.2717
22309W        W65226  26.153  17.986  29.965 -0.2470 -0.3674  0.1260
22310W        W65227  28.566  15.513  28.986 -0.3655  0.2048 -0.1648
22311W        W65228  26.547  14.749  29.411 -0.1765 -0.1149 -0.4250
22312W        W65229  28.284  14.866  29.032  0.0584 -0.3775 -0.0979
22313W        W65230  24.051  18.192  28.481 -0.0524 -0.3608 -0.0968
22314W        W65231  29.464  17.304  31.515  0.0903  0.1469  0.2752
22315W        W65232  29.326  16.223  27.275  0.0548  0.0655  0.2835
22316W        W65233  25.608  18.320  25.399  0.0940 -0.2155 -0.0850
22317W        W65234  25.702  17.732  31.887  0.4081  0.5139  0.1352
22318W        W65235  25.892  15.871  29.325  0.1946 -0.3142  0.0470
22319W        W65236  28.779  15.025  31.615 -0.0125  0.1953  0.2444
22320W        W65237  25.945  16.158  30.484  0.1333 -0.0727  0.2151
22321W        W65238  28.009  15.825  29.195 -0.0594  0.2327  0.0328
22322W        W65239  25.779  14.472  27.558  0.2025 -0.0755  0.0927
22323W        W65240  28.036  13.946  30.008 -0.3644  0.1935  0.0594
22324W        W65241  27.415  17.129  28.969 -0.0829  0.0798  0.3482
22325W        W65242  23.167  17.745  28.831 -0.1033 -0.4145  0.0280
22326W        W65243  27.959  16.562  30.696  0.1106  0.1959 -0.4451
22327W        W65244  29.087  18.907  27.275  0.5393  0.3847 -0.0160
22328W        W65245  27.121  18.635  29.947  0.0257 -0.1322  0.2055
22329W        W65246  29.152  17.928  27.355 -0.0618  0.4017  0.2146
22330W        W65247  26.102  15.832  30.848 -0.3230 -0.1219 -0.0370
22331W        W65248  26.630  15.608  28.117  0.0781  0.0914 -0.1259
22332W        W65249  25.020  18.251  28.386  0.2554 -0.3446  0.2255
22333W        W65250  28.198  17.181  29.996 -0.1874 -0.0248 -0.0275
22334W        W65251  26.409  14.707  27.269  0.0624  0.0499  0.0922
22335W        W65252  28.137  18.101  31.594  0.1806 -0.1120  0.3191
22336W        W65253  25.911  19.806  29.465  0.1534  0.1410 -0.0643
22337W        W65254  25.538  17.431  28.712  0.0016 -0.2112  0.0701
22338W        W65255  28.448  15.826  31.825  0.0529  0.0175  0.1712
22339W        W65256  27.748  15.791  30.413 -0.0608  0.0768  0.1229
22340W        W65257  28.436  16.047  27.818 -0.0014  0.1073  0.0810
22341W        W65258  27.278  15.426  27.748  0.2649  0.0029 -0.0194
22342W        W65259  29.209  16.326  30.339  0.3159 -0.2116  0.0834
22343W        W65260  25.551  19.283  30.005 -0.0113 -0.1856 -0.0064
22344W        W65261  25.538  17.391  28.199  0.1202 -0.0753 -0.0365
22345W        W65262  28.167  19.656  28.800 -0.2383  0.1853  0.0575
22346W        W65263  31.820  13.182  28.643  0.0583 -0.0758  0.3605
22347W        W65264  23.987  16.238  30.409  0.1357  0.0003  0.1032
22348W        W65265  28.465  16.156  29.939 -0.0880 -0.3573  0.3044
22349W        W65266  25.667  16.509  28.854  0.0426 -0.4378  0.1387
22350W        W65267  25.635  16.660  30.737  0.1052 -0.2056  0.0666
22351W        W65268  25.855  13.969  27.863 -0.0201 -0.1673 -0.2878
22352W        W65269  28.040  12.965  26.497  0.0542 -0.0128  0.0411
22353W        W65270  27.110  17.818  30.646  0.2333  0.0465  0.3351
22354W        W65271  29.068  16.031  28.814  0.3118 -0.4112 -0.1370
22355W        W65272  27.680  15.284  26.945  0.0030 -0.0547  0.1714
22356W        W65273  26.701  13.724  27.465 -0.2300 -0.0508  0.1073
22357W        W65274  29.158  15.985  29.357  0.1422 -0.0437 -0.1391
22358W        W65275  27.266  16.449  27.989 -0.0164 -0.0576  0.0308
22359W        W65276  27.469  15.938  31.081 -0.1611 -0.1097  0.1039
22360W        W65277  27.042  17.601  29.025 -0.1800  0.3264  0.1061
22361W        W65278  29.161  16.739  29.790  0.0066  0.0312  0.2299
22362W        W65279  26.136  16.052  28.173  0.2371  0.2251  0.0570
22363W        W65280  27.076  16.348  30.280  0.1994 -0.2337  0.1744
22364W        W65281  29.983  17.843  28.588  0.1247 -0.1771  0.1451
22365W        W65282  26.039  13.962  29.888  0.0592 -0.1274 -0.2286
22366W        W65283  28.409  16.465  29.163 -0.2923 -0.1768 -0.2143
22367W        W65284  28.393  17.072  29.244  0.1348 -0.0664  0.1379
22368W        W65285  25.077  17.542  28.878  0.3347 -0.1527  0.1210
22369W        W65286  28.913  13.767  29.738  0.0630 -0.0500 -0.0234
22370W        W65287  27.726  15.077  29.087 -0.3944 -0.3569 -0.2916
22371W        W65288  26.881  15.472  30.508  0.0284  0.0629 -0.0148
22372W        W65289  30.362  16.258  30.222 -0.0755  0.2340 -0.1957
22373W        W65290  27.876  16.743  29.247  0.2044 -0.2104  0.0858
22374W        W65291  28.912  16.199  30.757 -0.2153  0.3656 -0.5285
22375W        W65292  25.968  17.267  27.218  0.2347 -0.1920  0.2243
22376W        W65293  28.530  15.845  30.818  0.1436 -0.0496  0.1738
22377W        W65294  26.305  14.513  30.254  0.0369 -0.1196 -0.0195
22378W        W65295  25.856  17.282  30.883  0.0704  0.2162  0.2916
22379W        W65296  27.784  18.248  29.201  0.0159  0.1299 -0.0408
22380W        W65297  27.580  17.769  30.904  0.2960 -0.3339 -0.0063
22381W        W65298  26.013  15.995  29.882  0.1194 -0.3936  0.2626
22382W        W65299  28.204  14.529  27.903  0.0485  0.0949 -0.0091
22383W        W65300  24.035  19.879  29.398  0.0396 -0.0106  0.1258
22384W        W65301  27.209  16.406  29.369  0.2705  0.1426  0.0969
22385W        W65302  26.801  15.404  28.684  0.1753 -0.0755  0.0892
22386W        W65303  27.877  18.231  29.726 -0.0941 -0.1130  0.2348
22387W        W65304  25.151  20.186  29.078 -0.1609  0.1522  0.0223
22388W        W65305  28.493  17.840  30.297  0.1256  0.0298 -0.1346
22389W        W65306  25.174  16.355  28.830  0.0386  0.2400  0.2588
22390W        W65307  30.597  13.336  30.267 -0.1000 -0.1612  0.2312
22391W        W65308  24.105  16.290  29.065 -0.0113 -0.0811 -0.3763
22392W        W65309  28.453  17.630  27.920  0.1540  0.0209  0.1111
22393W        W65310  24.979  16.733  28.454  0.1294 -0.1908 -0.2467
22394W        W65311  29.045  15.386  28.318  0.0553  0.0054  0.0664
22395W        W65312  28.359  16.578  27.018 -0.0914  0.2502 -0.0459
22396W        W65313  26.434  16.446  29.709 -0.1094 -0.0379  0.0333
22397W        W65314  28.841  14.044  28.707 -0.0494  0.1695  0.0689
22398W        W65315  25.090  20.989  28.419 -0.0052 -0.2788  0.3652
22399W        W65316  27.518  17.147  30.192 -0.1735 -0.1575  0.0518
22400W        W65317  27.464  14.424  29.390  0.0027 -0.1060  0.0863
22401W        W65318  28.895  17.419  30.520 -0.2460  0.2771  0.1755
22402W        W65319  25.265  18.487  29.637  0.2314 -0.1944 -0.0906
22403W        W65320  26.167  14.220  27.584  0.0277  0.0466 -0.0936
22404W        W65321  27.945  15.063  30.936 -0.1185  0.2528  0.3136
22405W        W65322  25.911  15.324  29.287  0.1614  0.1320  0.2398
22406W        W65323  25.823  18.111  30.299  0.4607 -0.5744  0.1120
22407W        W65324  28.980  17.564  28.754 -0.2395  0.2808  0.1134
22408W        W65325  23.203  16.784  29.209 -0.0537 -0.0405 -0.1480
22409W        W65326  25.053  15.996  29.239 -0.2133  0.2802  0.1224
22410W        W65327  26.308  15.409  30.627  0.1669  0.0913  0.2270
22411W        W65328  30.252  16.323  30.726  0.4059 -0.1539  0.0600
22412W        W65329  27.341  14.492  28.072  0.0645 -0.0385  0.2806
22413W        W65330  28.014  14.414  27.451 -0.0358  0.2213 -0.0771
22414W        W65331  27.184  15.637  29.092  0.5430 -0.2622 -0.0194
22415W        W65332  29.601  16.684  30.216  0.3212 -0.0461 -0.0971
22416W        W65333  28.139  16.353  31.183 -0.0387 -0.0644 -0.1836
22417W        W65334  26.088  16.883  28.136  0.1123 -0.1591 -0.1834
22418W        W65335  27.494  15.908  31.695  0.2782  0.0139 -0.4708
22419W        W65336  28.244  18.268  29.422  0.2816 -0.3886 -0.1773
22420W        W65337  28.709  16.974  30.933 -0.0586 -0.3133  0.1457
22421W        W65338  25.026  18.227  29.195 -0.0355 -0.2114  0.6584
22422W        W65339  26.414  14.892  29.921 -0.0671 -0.1008  0.0882
22423W        W65340  25.671  17.241  30.088 -0.1466  0.0070 -0.1888
22424W        W65341  26.183  15.189  30.206 -0.1547  0.0893  0.0866
22425W        W65342  26.131  14.908  29.557  0.0126 -0.4227  0.1257
22426W        W65343  24.471  17.935  28.554  0.1803  0.0320  0.4136
22427W        W65344  26.121  15.688  30.263  0.2603 -0.0890  0.3332
22428W        W65345  29.668  15.323  27.070 -0.3390 -0.0941  0.2120
22429W        W65346  29.626  15.922  27.010 -0.1280  0.2999 -0.0720
22430W        W65347  28.065  14.443  29.755 -0.0460 -0.3171  0.4408
22431W        W65348  29.267  15.340  31.347  0.0448 -0.2528  0.0065
22432W        W65349  29.589  15.907  27.856 -0.0565  0.2236 -0.0374
22433W        W65350  29.189  14.320  30.468  0.0625  0.1399 -0.4080
22434W        W65351  26.330  15.612  28.742  0.0208 -0.0320 -0.1483
22435W        W65352  27.921  16.272  29.154  0.2404  0.1970  0.0153
22436W        W65353  26.170  14.845  28.311  0.1456  0.1337 -0.2671
22437W        W65354  25.673  17.799  31.064 -0.2084  0.1865  0.2278
22438W        W65355  26.191  16.239  31.331  0.2576 -0.0588 -0.2442
22439W        W65356  26.104  15.486  29.792  0.0596 -0.2027  0.1675
22440W        W65357  27.825  11.491  27.169 -0.0864 -0.0325  0.0507
22441W        W65358  25.000  19.065  29.715  0.1501  0.1027 -0.0389
22442W        W65359  29.322  18.141  30.897  0.0458  0.2275  0.2626
22443W        W65360  27.066  19.738  28.895  0.1667 -0.2472  0.0872
22444W        W65361  27.952  13.877  30.936 -0.0662 -0.0115  0.1896
22445W        W65362  27.538  16.907  28.052  0.0522 -0.3084  0.1368
22446W        W65363  29.071  14.731  27.433  0.1480  0.1314 -0.1369
22447W        W65364  27.990  13.948  27.063 -0.1704 -0.0339 -0.0015
22448W        W65365  28.027  17.891  28.915 -0.2387  0.3588  0.0567
22449W        W65366  27.216  15.587  29.765  0.1102  0.3032  0.1015
22450W        W65367  27.430  16.100  29.985 -0.0071  0.1262  0.0069
22451W        W65368  28.122  17.563  28.614  0.1540  0.2041  0.3726
22452W        W65369  29.903  15.423  30.003 -0.2793 -0.0792  0.0143
22453W        W65370  29.162  14.907  31.091 -0.0561  0.1641 -0.2236
22454W        W65371  26.915  14.904  28.577 -0.0166 -0.2252 -0.0872
22455W        W65372  27.406  15.446  31.880  0.0450  0.2229  0.3440
22456W        W65373  27.273  18.544  31.482 -0.5755 -0.0395 -0.0320
22457W        W65374  27.786  14.699  28.189 -0.1588 -0.0424  0.0749
22458W        W65375  29.783  17.602  30.554  0.0118 -0.1180 -0.2470
22459W        W65376  30.198  17.276  29.209  0.0457  0.3758  0.2035
22460W        W65377  27.298  14.444  27.550 -0.0375  0.0401 -0.2328
22461W        W65378  24.406  16.034  30.660  0.0272  0.1399  0.2288
22462W        W65379  27.890  17.447  30.207  0.0699  0.0639 -0.2824
22463W        W65380  27.990  17.078  27.757  0.0617 -0.1792 -0.0694
22464W        W65381  28.405  15.659  30.057 -0.1646  0.1046  0.2583
22465W        W65382  27.277  18.481  28.525 -0.1101  0.2527  0.1694
22466W        W65383  25.644  18.286  28.663  0.1335  0.0627 -0.3000
22467W        W65384  28.619  14.396  28.443  0.2474  0.2650 -0.0351
22468W        W65385  25.676  16.211  27.992  0.1792 -0.0522 -0.3386
22469W        W65386  25.876  17.965  31.501  0.2230 -0.3434  0.1202
22470W        W65387  24.172  16.812  29.201 -0.0263  0.2333 -0.2308
22471W        W65388  26.755  16.843  28.221 -0.2984  0.0405  0.0267
22472W        W65389  26.965  16.353  29.820  0.1354 -0.0456 -0.2815
22473W        W65390  30.563  17.218   0.293 -0.0851  0.0732  0.0467
22474W        W65391  27.667  13.181  27.692 -0.1033  0.1163  0.1302
22475W        W65392  27.996  16.037  30.828  0.0963  0.1384 -0.1055
22476W        W65393  22.120  17.420  27.928 -0.0786  0.1483 -0.2904
22477W        W65394  25.703  14.631  29.384 -0.1790 -0.1499  0.2714
22478W        W65395  26.503  17.047  30.413  0.1677  0.1133 -0.0533
22479W        W65396  27.582  15.858  29.437 -0.2242 -0.0796 -0.4467
22480W        W65397  26.329  17.667  28.137 -0.1886 -0.1919 -0.3584
22481W        W65398  27.285  15.580  30.784 -0.1963  0.1429 -0.1595
22482W        W65399  28.111  15.591  29.685 -0.2423  0.0784  0.1540
22483W        W65400  27.661  15.261  30.519  0.1062 -0.3841  0.2293
22484W        W65401  28.695  15.788  29.614 -0.2303 -0.0929  0.0497
22485W        W65402  27.935  17.004  30.499  0.0203  0.1004 -0.0907
22486W        W65403  25.813  16.908  28.547 -0.0292 -0.1383  0.2233
22487W        W65404  29.664  19.579  29.876 -0.2830  0.1310 -0.1298
22488W        W65405  28.565  15.316  29.648  0.1456 -0.2986  0.3713
22489W        W65406  27.992  19.123  28.756  0.0229  0.0271 -0.1095
22490W        W65407  23.403  16.161  30.426  0.1876 -0.1894  0.0957
22491W        W65408  26.554  16.218  30.950  0.0988 -0.1878 -0.1860
22492W        W65409  28.495  17.918  28.715  0.1450 -0.3591 -0.1091
22493W        W65410  27.905  15.738  28.499 -0.0417 -0.0557 -0.2364
22494W        W65411  27.986  17.378  28.153  0.2550 -0.1126 -0.2764
22495W        W65412  25.056  16.643  30.493  0.1568  0.3942 -0.0747
22496W        W65413  23.157  15.505   0.304 -0.0151 -0.0504  0.2393
22497W        W65414  23.640  18.810  25.911 -0.3273  0.0681  0.0839
22498W        W65415  29.051  16.805  27.987 -0.0783  0.2057  0.3547
22499W        W65416  28.871  18.520  29.325  0.2566 -0.0089  0.0435
22500W        W65417  28.757  20.096  31.141  0.2541 -0.2511  0.5590
22501W        W65418  26.653  16.697  29.173  0.1005  0.1305  0.0911
22502W        W65419  23.351  17.976  29.447  0.0231  0.0580 -0.1155
22503W        W65420  24.169  16.955  25.051 -0.0755  0.4365  0.1157
22504W        W65421  27.787  18.362  27.544 -0.0948 -0.0138  0.1281
22505W        W65422  25.690  18.161  25.891 -0.1662  0.0022 -0.2196
22506W        W65423  27.954  18.317   0.020 -0.3223 -0.3110 -0.4586
22507W        W65424  27.904  14.681  28.695  0.1642  0.2942 -0.0837
22508W        W65425  27.874  16.307  31.713  0.1645 -0.1263 -0.1673
22509W        W65426  29.894  14.735  27.808  0.2064  0.1428  0.3184
22510W        W65427  28.100  19.067  30.462 -0.0381 -0.2261  0.0409
22511W        W65428  25.845  17.774  28.853 -0.1529 -0.0751 -0.2733
22512W        W65429  27.115  14.955  27.527  0.2113 -0.2789 -0.0735
22513W        W65430  25.136  16.077  30.010  0.0959 -0.1677  0.1230
22514W        W65431  30.008  16.764   0.934  0.2295 -0.0937 -0.0176
22515W        W65432  25.487  18.238  31.870 -0.1099 -0.3165 -0.0792
22516W        W65433  29.544  18.614  28.169 -0.3263  0.0070  0.1754
22517W        W65434  25.018  15.458  29.065  0.1500 -0.0820 -0.1753
22518W        W65435  27.968  17.033  28.861  0.1473 -0.0257  0.3334
22519W        W65436  29.626  14.743  28.624  0.2671  0.0002 -0.2749
22520W        W65437  26.598  17.690  26.449 -0.0334  0.0188 -0.3136
22521W        W65438  26.640  16.850   0.348 -0.0576  0.2100 -0.0813
22522W        W65439  26.410  17.223  28.430  0.0156 -0.2794  0.1972
22523W        W65440  26.182  17.561  30.533  0.0307  0.1571 -0.1854
22524W        W65441  27.382  17.920  29.219 -0.1635  0.3136  0.0712
22525W        W65442  23.312  14.524  26.820  0.0315 -0.0618 -0.0432
22526W        W65443  27.249  15.830  27.373  0.0591 -0.1613  0.0424
22527W        W65444  26.977  17.630  29.528 -0.0115  0.1708  0.0078
22528W        W65445  29.243  13.868  30.175 -0.0841 -0.1376  0.0198
22529W        W65446  26.524  16.215  30.170 -0.1328  0.2415  0.2863
22530W        W65447  28.470  14.477  29.326  0.0444 -0.0965 -0.0028
22531W        W65448  25.197  18.825  28.275 -0.3055  0.0812  0.0247
22532W        W65449  27.123  16.668  28.966  0.2951  0.2217  0.0427
22533W        W65450  29.040  16.462  28.460 -0.0458  0.0247 -0.0352
22534W        W65451  26.713  14.736  31.945  0.0793  0.1823 -0.1448
22535W        W65452  28.857  17.041  27.482  0.3361  0.0217 -0.2319
22536W        W65453  30.554  18.331  30.705 -0.0934  0.0062  0.1983
22537W        W65454  25.135  15.736  30.482  0.2602 -0.1634  0.2810
22538W        W65455  27.226  16.760  28.465  0.0253 -0.0873  0.1093
22539W        W65456  27.434  15.810  28.559  0.2023 -0.1012  0.0039
22540W        W65457  26.383  18.976  28.304  0.3235 -0.5456 -0.0250
22541W        W65458  28.787  20.166  30.617  0.3875  0.2850 -0.0324
22542W        W65459  25.493  16.219  29.312 -0.3009  0.2147  0.1190
22543W        W65460  29.252  17.677  29.219 -0.2188 -0.0429  0.3245
22544W        W65461  28.295  14.766  28.421 -0.1324  0.0255 -0.0098
22545W        W65462  27.256  18.133  27.762 -0.0293 -0.1974 -0.1598
22546W        W65463  28.626  16.279  28.631  0.6097 -0.1373  0.1613
22547W        W65464  29.868  13.954  29.611 -0.1128 -0.3162  0.0691
22548W        W65465  26.429  15.814  29.671  0.0111  0.0652  0.0141
22549W        W65466  27.283  16.699  29.981  0.0055  0.0215 -0.0204
22550W        W65467  28.459  18.480  29.036 -0.2190  0.1194 -0.0623
22551W        W65468  28.072  15.156  28.123 -0.0091 -0.0487  0.0727
22552W        W65469  27.414  16.939  29.437 -0.2601  0.1601  0.0488
22553W        W65470  25.356  18.988  30.529 -0.2140  0.0062  0.2971
22554W        W65471  27.891  14.553  29.200  0.0183  0.1867 -0.2147
22555W        W65472  29.142  15.341   0.530  0.2003  0.2881  0.3571
22556W        W65473  28.567  17.537  28.437 -0.1620  0.2503 -0.1280
22557W        W65474  28.875  14.031  31.018 -0.2158  0.3163  0.1186
22558W        W65475  25.953  16.808  29.699 -0.0966 -0.3098  0.0672
22559W        W65476  25.640  20.204   0.514 -0.2488  0.1131  0.0956
22560W        W65477  26.189  16.644  28.913 -0.1397  0.3180  0.0820
22561W        W65478  28.089  15.889  31.482 -0.0139 -0.0368  0.1288
22562W        W65479  27.833  17.216  29.480  0.1006 -0.4098 -0.0220
22563W        W65480  26.406  19.430  28.514  0.0645  0.0191  0.2523
22564W        W65481  28.446  18.942  28.820 -0.1362  0.0128 -0.1476
22565W        W65482  26.068  14.742  29.066  0.0428 -0.2342 -0.0554
22566W        W65483  30.084  18.947  31.150  0.0521 -0.1180  0.1805
22567W        W65484  24.694  16.009  29.698 -0.1066 -0.0526 -0.0854
22568W        W65485  31.578  13.709  27.494  0.1578 -0.0609 -0.0022
22569W        W65486  27.070  12.112  28.174 -0.1759  0.1405 -0.3539
22570W        W65487  25.976  15.727   0.021  0.0580  0.0786  0.2251
22571W        W65488  26.540  17.069  28.878  0.1665 -0.1057 -0.0814
22572W        W65489  25.623  19.414  28.041 -0.0727 -0.1722 -0.1294
22573W        W65490  25.994  16.377  28.488 -0.1051  0.2748 -0.2349
22574W        W65491  28.291  15.435  31.013  0.1984 -0.0000  0.4171
22575W        W65492  26.865  14.606  30.580 -0.4596 -0.3658  0.1162
22576W        W65493  24.507  16.853  28.509 -0.3224 -0.0895 -0.0047
22577W        W65494  28.177  15.212  28.669  0.2617 -0.1139 -0.4696
22578W        W65495  29.452  15.100  26.654  0.1570  0.2065  0.2133
22579W        W65496  27.733  15.257   0.267 -0.0510 -0.1680  0.1159
22580W        W65497  24.810  14.739  27.467  0.1923  0.1077 -0.2996
22581W        W65498  29.112  17.800  30.001 -0.1685 -0.2680 -0.3073
22582W        W65499  27.956  17.636  27.575 -0.1234  0.4003  0.2560
22583W        W65500  26.187  17.257  26.739  0.1396  0.3332 -0.0191
22584W        W65501  27.907  19.204  29.936  0.0755 -0.0084  0.2761
22585W        W65502  23.564  18.306  28.524  0.0089  0.0200 -0.3129
22586W        W65503  28.461  17.988   0.868 -0.1774  0.1198  0.1253
22587W        W65504  26.665  16.711  30.086  0.1993  0.2053  0.0274
22588W        W65505  26.774  13.995  28.115 -0.0145  0.0934  0.0081
22589W        W65506  25.486  15.825  29.672  0.1118  0.0948 -0.0930
22590W        W65507  28.643  16.960  29.837 -0.0011  0.3319  0.0373
22591W        W65508  28.396  17.799  29.247 -0.0637  0.1582  0.1387
22592W        W65509  27.094  17.598  30.063  0.1897 -0.0418  0.1069
22593W        W65510  28.087  18.843  29.152 -0.0843 -0.0350  0.2058
22594W        W65511  26.618  15.487  30.076  0.0328 -0.1641 -0.4829
22595W        W65512  28.426  15.341  27.733  0.1872  0.0918 -0.2690
22596W        W65513  26.168  17.603  31.074  0.1590  0.0268  0.1555
22597W        W65514  31.054  16.655  29.156 -0.4648 -0.0784 -0.2627
22598W        W65515  27.608  16.620  28.885 -0.0755  0.0618  0.4036
22599W        W65516  28.933  16.407  29.145 -0.0229 -0.3251 -0.2854
22600W        W65517  25.478  14.039  30.530 -0.0490 -0.0018  0.0032
22601W        W65518  26.992  19.729  31.368 -0.2147 -0.1551  0.0241
22602W        W65519  29.931  16.561   0.063  0.1390  0.0854  0.3597
22603W        W65520  25.962  16.070  28.886  0.0932 -0.1148  0.2931
22604W        W65521  27.094  13.506  28.969 -0.0424  0.0609 -0.0185
22605W        W65522  28.625  16.521  31.020  0.0459 -0.0823  0.2156
22606W        W65523  24.423  16.685  27.876 -0.1643  0.2738  0.1646
22607W        W65524  26.733  16.323  26.454  0.1070 -0.0245  0.0897
22608W        W65525  27.982  16.056  29.909  0.0026 -0.2158  0.0304
22609W        W65526  26.636  17.490  31.865 -0.0439 -0.1719 -0.1515
22610W        W65527  27.873  17.995  30.194  0.2204 -0.1248 -0.0515
22611W        W65528  24.923  16.887  24.256 -0.3481  0.1601 -0.0455
22612W        W65529  29.823  16.426  27.650 -0.1350 -0.1403 -0.2585
22613W        W65530  26.876  18.989  30.245 -0.2958  0.0090 -0.1302
22614W        W65531  28.732  19.113  30.366  0.1537  0.2772  0.0723
22615W        W65532  27.571  17.543  29.838 -0.0013 -0.3542 -0.2193
22616W        W65533  28.681  17.398  29.998 -0.3986  0.0136 -0.2699
22617W        W65534  27.215  15.814   0.703  0.0087 -0.2098 -0.0333
22618W        W65535  28.151  17.765  29.868  0.4328  0.0232  0.2542
22619W        W65536  25.144  18.138  27.901  0.0828  0.2527  0.2881
22620W        W65537  31.253  14.418  28.603  0.0998 -0.0434  0.1435
22621W        W65538  27.342  15.610  30.241  0.2335  0.0641 -0.0823
22622W        W65539  27.440  14.785  27.222 -0.2736  0.2867  0.0433
22623W        W65540  26.650  19.008   1.001  0.1538  0.1567  0.2113
22624W        W65541  26.723  16.525  30.601 -0.0126  0.0099  0.0331
22625W        W65542  28.222  14.549   0.956  0.1072 -0.1141  0.0993
22626W        W65543  27.804  16.861  29.809 -0.0937  0.1600 -0.0903
22627W        W65544  25.090  15.432  31.398 -0.0584 -0.2078 -0.4324
22628W        W65545  26.338  18.539   1.318  0.2814 -0.2862  0.1173
22629W        W65546  25.959  18.652   0.861 -0.0834 -0.1914  0.4302
22630W        W65547  25.497  17.100  30.592 -0.0130  0.1599  0.1370
22631W        W65548  28.556  17.451  31.031 -0.0668  0.2392  0.2307
22632W        W65549  27.518  16.342   0.065  0.0325 -0.0557 -0.0284
22633W        W65550  28.193  16.055  30.337  0.1349 -0.0746 -0.2163
22634W        W65551  30.124  15.822  30.345  0.2101 -0.0117  0.0691
22635W        W65552  27.023  17.037  30.360 -0.1296 -0.0667  0.3219
22636W        W65553  28.321  16.153   1.055  0.4499  0.1561  0.0495
22637W        W65554  29.854  15.175  30.494 -0.1194  0.2254 -0.4665
22638W        W65555  26.766  18.152  29.867 -0.0696  0.1825 -0.1283
22639W        W65556  26.146  18.113  29.110  0.0289 -0.0343 -0.2769
22640W        W65557  25.099  17.263  31.396  0.1018 -0.1061 -0.0072
22641W        W65558  25.905  17.731   0.473  0.0940 -0.1248  0.0532
22642W        W65559  28.621  17.156  31.478  0.2040 -0.0991 -0.1239
22643W        W65560  25.394  14.160   1.259 -0.0233  0.1415 -0.3791
22644W        W65561  24.877  15.997  30.911  0.0258  0.1344 -0.0542
22645W        W65562  25.950  14.656  31.527  0.3377  0.1751 -0.2239
22646W        W65563  25.222  19.167   1.201 -0.0374  0.1913  0.1561
22647W        W65564  30.658  15.963  30.509  0.0832 -0.1974 -0.0012
22648W        W65565  28.867  15.819   0.792  0.2139  0.1335 -0.0425
22649W        W65566  28.598  14.830  31.078 -0.0727  0.1681 -0.0242
22650W        W65567  27.283  16.439   1.307 -0.0657  0.1328 -0.1569
22651W        W65568  26.730  17.186   0.867  0.1378  0.3144 -0.1419
22652W        W65569  24.728  19.498   1.242 -0.1478 -0.1053 -0.0726
22653W        W65570  25.798  16.845  29.153 -0.2325  0.1315  0.1254
22654W        W65571  28.142  17.855  31.152  0.0584  0.2146 -0.1333
22655W        W65572  26.692  17.536  30.369  0.5923 -0.0290  0.2107
22656W        W65573  24.752  15.735  30.123 -0.2962  0.1411 -0.4081
22657W        W65574  27.606  18.707   0.923  0.1690  0.1111  0.1862
22658W        W65575  29.798  14.553   0.488  0.1351 -0.1719  0.0006
22659W        W65576  26.236  17.744   0.085  0.4252  0.1261 -0.0640
22660W        W65577  26.742  18.465   1.020  0.0845  0.2617  0.0499
22661W        W65578  26.593  18.346   1.812  0.3797  0.0077 -0.2523
22662W        W65579  27.480  17.306  31.247  0.0286 -0.1789 -0.1221
22663W        W65580  29.155  15.802  30.457 -0.3656  0.0600  0.1739
22664W        W65581  27.436  17.766   0.761 -0.2784  0.2478  0.1214
22665W        W65582  30.142  17.024   0.017  0.0477  0.3493  0.1906
22666W        W65583  28.741  17.988   0.393  0.0231  0.0955  0.0370
22667W        W65584  27.938  17.736  31.918  0.0150 -0.0523 -0.3420
22668W        W65585  27.000  18.318  28.182 -0.3815  0.1851  0.3217
22669W        W65586  25.646  14.700  31.098 -0.0219  0.1020 -0.1879
22670W        W65587  25.831  16.518  31.943 -0.0958 -0.0020  0.2790
22671W        W65588  27.875  17.402  30.929  0.2527  0.1734 -0.0023
22672W        W65589  29.984  16.182   0.840 -0.0512  0.0916 -0.0457
22673W        W65590  28.091  16.990  31.033  0.1507  0.1768 -0.0044
22674W        W65591  24.653  17.839  30.418 -0.1601 -0.0111 -0.0329
22675W        W65592  28.184  18.601  31.535 -0.0815  0.0960 -0.0070
22676W        W65593  28.036  15.471   1.044  0.1668  0.1732 -0.0981
22677W        W65594  27.613  16.440  31.098 -0.0205 -0.2614 -0.1058
22678W        W65595  25.676  16.919   0.394  0.2057  0.2502  0.1046
22679W        W65596  27.124  17.917   0.359  0.1553  0.1774  0.2579
22680W        W65597  28.440  16.496  30.558 -0.3202 -0.0564 -0.0464
22681W        W65598  27.646  16.357  29.625 -0.2609  0.1043  0.1887
22682W        W65599  24.749  19.467  29.627 -0.2526 -0.1378 -0.1381
22683W        W65600  26.785  17.868  28.061 -0.1740  0.1585 -0.1660
22684W        W65601  23.731  16.513  30.804 -0.1798 -0.1569  0.1149
22685W        W65602  27.586  16.955  30.925 -0.0384 -0.1712 -0.2123
22686W        W65603  24.680  16.488  31.122 -0.1775 -0.3174 -0.1224
22687W        W65604  25.193  16.331  31.404  0.0955 -0.0488 -0.2541
22688W        W65605  27.822  15.451  31.354  0.2777 -0.1512 -0.1426
22689W        W65606  28.548  18.878  31.780  0.1046 -0.2495  0.0800
22690W        W65607  29.308  16.555   0.068 -0.2020  0.2102 -0.0809
22691W        W65608  28.739  16.626  31.503  0.1048  0.0034 -0.4565
22692W        W65609  27.647  20.382  17.855  0.1937 -0.1581  0.3147
22693W        W65610  26.902  20.426  17.988  0.3122 -0.3167  0.4304
22694W        W65611  28.249  19.173  18.641 -0.0741  0.1184  0.0926
22695W        W65612  26.992  19.319  17.165 -0.1032  0.1214 -0.3221
22696W        W65613  25.644  18.968  18.468 -0.0741 -0.0508  0.0662
22697W        W65614  29.569  21.969  17.284  0.1110 -0.0187 -0.3643
22698W        W65615  26.630  19.145  21.887 -0.2460 -0.4450  0.0070
22699W        W65616  27.069  21.571  19.270 -0.0806 -0.1415  0.0209
22700W        W65617  27.507  21.569  19.871  0.0898  0.0779  0.1094
22701W        W65618  27.954  21.521  17.019  0.1034  0.0538 -0.1889
22702W        W65619  26.688  19.612  19.035  0.1285  0.0838  0.0115
22703W        W65620  25.937  22.314  20.388  0.0086 -0.0566  0.1386
22704W        W65621  26.515  19.242  18.155 -0.0309  0.3154  0.0011
22705W        W65622  25.826  21.399  18.765  0.3457  0.1017 -0.1183
22706W        W65623  27.608  19.211  19.893 -0.1122 -0.2655 -0.2659
22707W        W65624  27.131  21.038  18.438  0.0629  0.0680  0.2003
22708W        W65625  26.348  19.603  19.479  0.1643 -0.0070 -0.2418
22709W        W65626  25.320  18.951  17.339  0.0522  0.0212 -0.0702
22710W        W65627  28.616  22.493  17.084  0.1692  0.0425  0.0319
22711W        W65628  27.920  20.287  21.175  0.4208 -0.0965  0.3713
22712W        W65629  28.650  18.450  20.182 -0.0087  0.2518 -0.1657
22713W        W65630  27.099  18.886  17.706 -0.1170 -0.3445 -0.1066
22714W        W65631  25.566  19.550  18.094  0.0479  0.0172 -0.2538
22715W        W65632  25.762  20.815  18.534  0.0678  0.2378 -0.4708
22716W        W65633  25.267  20.324  19.515  0.1657  0.1304  0.1492
22717W        W65634  29.682  18.786  16.753  0.0127  0.0013 -0.3126
22718W        W65635  29.378  19.496  19.922  0.4887  0.0613  0.0332
22719W        W65636  26.495  21.855  18.470 -0.1487  0.0252 -0.2030
22720W        W65637  29.715  21.687  16.911  0.0431  0.2059 -0.3624
22721W        W65638  29.717  19.797  21.395 -0.1688  0.1211  0.2669
22722W        W65639  25.960  21.758  18.386 -0.1282 -0.1659  0.2925
22723W        W65640  26.863  23.338  19.309 -0.0767  0.0462 -0.0934
22724W        W65641  25.975  21.225  18.333  0.2203  0.0012  0.2523
22725W        W65642  27.911  19.699  18.323 -0.0400 -0.3675 -0.1394
22726W        W65643  27.037  20.308  19.640 -0.1799 -0.0846  0.0731
22727W        W65644  27.621  19.836  20.994  0.4146 -0.3322  0.0951
22728W        W65645  25.803  23.260  18.126 -0.1765  0.2648 -0.0898
22729W        W65646  29.589  22.311  18.993 -0.2823 -0.1729  0.4769
22730W        W65647  27.295  21.789  18.903  0.1632 -0.0755  0.1430
22731W        W65648  28.316  21.217  18.813  0.0291  0.2983  0.2291
22732W        W65649  28.597  20.792  20.366  0.0137 -0.2097  0.2168
22733W        W65650  26.675  22.512  19.354  0.1865  0.0689 -0.1251
22734W        W65651  26.515  20.201  18.345  0.1971  0.3490  0.0674
22735W        W65652  27.082  21.752  20.216  0.3207  0.1465  0.1980
22736W        W65653  24.287  21.352  18.707  0.1617  0.0235  0.1792
22737W        W65654  29.467  18.150  21.081 -0.1490  0.0235  0.0185
22738W        W65655  26.502  21.525  16.863  0.0757 -0.3392 -0.1591
22739W        W65656  27.841  18.745  18.234  0.1982  0.4470 -0.0461
22740W        W65657  25.211  19.357  17.623 -0.1146  0.0752 -0.2918
22741W        W65658  27.687  20.238  18.405  0.0145 -0.1002  0.1629
22742W        W65659  28.002  18.262  16.969  0.2898  0.1729  0.1040
22743W        W65660  28.161  24.170  18.203 -0.0284 -0.0684  0.1064
22744W        W65661  26.321  21.371  19.706 -0.1843  0.1314 -0.0584
22745W        W65662  28.268  21.578  21.467  0.0664  0.2994  0.0432
22746W        W65663  27.681  19.451  19.034  0.0533  0.2482  0.0492
22747W        W65664  28.360  18.351  21.460 -0.1259 -0.0852  0.1412
22748W        W65665  25.383  24.347  19.190  0.0604 -0.1285  0.0712
22749W        W65666  25.898  20.949  19.016 -0.1566 -0.1589  0.1746
22750W        W65667  26.802  21.098  17.012  0.2810  0.2424  0.2107
22751W        W65668  32.275  24.402  19.424 -0.0565  0.1202  0.0688
22752W        W65669  27.248  20.686  17.398 -0.0799  0.0162  0.0585
22753W        W65670  24.899  20.932  18.189 -0.0886 -0.0820 -0.0390
22754W        W65671  27.075  21.941  19.735  0.0363  0.1621 -0.0343
22755W        W65672  25.342  20.375  21.233 -0.2376  0.1483 -0.0210
22756W        W65673  26.475  18.157  17.659 -0.2274 -0.3577  0.4681
22757W        W65674  27.792  20.471  21.762 -0.0053 -0.2127  0.0101
22758W        W65675  25.836  22.521  19.930  0.1228 -0.2482  0.4576
22759W        W65676  27.564  17.616  18.503 -0.1057 -0.1565  0.0211
22760W        W65677  27.893  20.990  18.842  0.1047  0.1318  0.1296
22761W        W65678  29.973  22.621  18.667  0.0492  0.1409  0.0267
22762W        W65679  25.669  21.333  18.014  0.1206  0.1013 -0.1124
22763W        W65680  28.476  18.638  18.048  0.1170 -0.1897  0.0234
22764W        W65681  27.165  18.932  21.150 -0.0395 -0.0176 -0.0319
22765W        W65682  26.414  21.070  16.598  0.0345 -0.1239 -0.2393
22766W        W65683  25.744  19.859  16.885  0.5133 -0.3772  0.4012
22767W        W65684  26.503  21.317  18.279  0.0150  0.1267  0.1820
22768W        W65685  26.075  20.288  17.923 -0.2743 -0.1777 -0.0650
22769W        W65686  26.170  22.212  18.547 -0.0456 -0.1347  0.0956
22770W        W65687  28.910  17.582  20.397 -0.2214  0.2265  0.0591
22771W        W65688  27.592  21.530  18.506  0.1940 -0.0865  0.0879
22772W        W65689  27.408  22.107  16.907  0.0725  0.4241 -0.1287
22773W        W65690  24.694  22.261  19.149  0.1569 -0.0710  0.0316
22774W        W65691  26.549  21.745  17.404  0.1574 -0.1638  0.4986
22775W        W65692  25.117  17.979  19.815  0.0785 -0.1711 -0.1167
22776W        W65693  27.015  20.522  18.519 -0.1017 -0.0002 -0.0054
22777W        W65694  27.469  18.606  17.553 -0.2297 -0.2938  0.0352
22778W        W65695  27.258  20.062  20.763  0.0912 -0.0270  0.1528
22779W        W65696  29.561  21.360  18.527  0.0914  0.2160 -0.0182
22780W        W65697  26.706  20.555  16.823  0.1417 -0.0444  0.0111
22781W        W65698  29.351  22.000  19.750 -0.2298 -0.0744  0.2721
22782W        W65699  28.998  19.640  17.496  0.0303 -0.0757  0.3643
22783W        W65700  24.966  20.001  17.642 -0.1255  0.1215  0.0481
22784W        W65701  25.553  20.088  20.010 -0.1949  0.2446 -0.0181
22785W        W65702  24.603  19.368  16.706 -0.1182 -0.3004  0.1055
22786W        W65703  28.593  20.356  22.044  0.3636  0.3585  0.0549
22787W        W65704  25.240  19.936  18.174  0.1673 -0.2915  0.1327
22788W        W65705  27.704  20.969  21.623  0.0918  0.1908  0.2296
22789W        W65706  25.420  20.241  16.633  0.0257  0.1647  0.0684
22790W        W65707  28.560  18.828  19.075 -0.0100  0.3437 -0.2742
22791W        W65708  27.690  19.529  17.662  0.0255 -0.1259  0.2016
22792W        W65709  24.204  22.592  17.894 -0.2222  0.0852  0.0394
22793W        W65710  29.404  18.277  18.965  0.0536  0.0378 -0.2485
22794W        W65711  28.794  21.491  17.248 -0.0020  0.1720 -0.0458
22795W        W65712  30.043  20.630  20.044  0.0161 -0.0647 -0.4796
22796W        W65713  26.261  21.041  18.694 -0.1451 -0.0903  0.0336
22797W        W65714  26.096  18.177  21.286 -0.0458 -0.0276 -0.2151
22798W        W65715  23.683  18.733  16.878 -0.1044  0.0835 -0.1843
22799W        W65716  26.118  22.786  18.217 -0.2387 -0.0977  0.1219
22800W        W65717  25.138  21.022  17.282 -0.0232 -0.3753  0.2116
22801W        W65718  25.871  19.155  18.095  0.0965 -0.0808  0.1464
22802W        W65719  29.157  22.281  19.236  0.2580  0.0416  0.3294
22803W        W65720  25.999  21.253  16.963  0.2061  0.0016  0.1713
22804W        W65721  24.909  21.857  20.169  0.1124  0.1115  0.1165
22805W        W65722  26.038  18.585  19.339  0.0307  0.0513  0.3410
22806W        W65723  28.932  20.155  19.372  0.2469  0.0279  0.1749
22807W        W65724  26.521  18.596  19.271  0.0221 -0.1049  0.2685
22808W        W65725  24.729  19.128  17.556  0.0308 -0.0929  0.1017
22809W        W65726  29.654  22.841  19.189  0.0683  0.0567 -0.0052
22810W        W65727  25.802  21.839  17.898 -0.2208 -0.0729  0.1025
22811W        W65728  24.801  19.072  21.100 -0.2412  0.2225 -0.1335
22812W        W65729  24.150  19.546  19.094  0.3151  0.2596 -0.1268
22813W        W65730  30.460  18.504  18.121  0.0846  0.0996  0.1912
22814W        W65731  27.203  22.352  23.287  0.1475  0.1146 -0.3064
22815W        W65732  26.910  20.868  20.384 -0.0168  0.3179  0.0980
22816W        W65733  24.556  18.603  17.576 -0.2585 -0.0275  0.1072
22817W        W65734  26.686  22.413  21.414  0.3145 -0.2454 -0.0758
22818W        W65735  27.744  16.602  17.505 -0.2318 -0.0371 -0.2366
22819W        W65736  29.618  20.223  17.952 -0.0669 -0.0638 -0.1442
22820W        W65737  27.131  19.727  20.376 -0.1264 -0.2568 -0.3085
22821W        W65738  30.447  22.483  18.491  0.2601 -0.0191  0.0426
22822W        W65739  27.376  19.080  17.384 -0.3154 -0.0131  0.1332
22823W        W65740  26.331  16.465  16.567  0.1747 -0.2438  0.0289
22824W        W65741  24.586  22.058  21.493  0.1211  0.1449 -0.1927
22825W        W65742  29.004  21.127  19.942  0.1360  0.2567  0.0567
22826W        W65743  29.423  23.279  17.877 -0.1814 -0.0321 -0.1420
22827W        W65744  27.199  19.369  18.627  0.0753  0.3444  0.1349
22828W        W65745  28.277  22.143  17.410 -0.1906  0.2395  0.1362
22829W        W65746  26.459  19.452  21.432 -0.3287  0.1078  0.1921
22830W        W65747  27.237  20.177  18.262  0.1905  0.2685 -0.0670
22831W        W65748  28.601  20.983  17.592  0.1254  0.1499  0.3554
22832W        W65749  27.607  19.618  21.641 -0.1088 -0.1403 -0.0724
22833W        W65750  25.464  20.187  17.175  0.1337 -0.1092  0.6033
22834W        W65751  27.160  18.813  19.928 -0.2817 -0.2230 -0.1184
22835W        W65752  24.545  23.925  19.339 -0.2079  0.0131  0.1456
22836W        W65753  28.957  18.251  19.767 -0.1344  0.0774  0.2504
22837W        W65754  27.959  19.555  19.781 -0.0844  0.2023 -0.0312
22838W        W65755  26.451  19.234  20.538 -0.1906  0.0023 -0.0099
22839W        W65756  29.100  19.949  20.064 -0.1539  0.1159 -0.0562
22840W        W65757  27.369  18.939  16.884 -0.3732  0.1924  0.1663
22841W        W65758  25.527  18.186  18.741  0.0326  0.3138 -0.0124
22842W        W65759  24.554  19.860  18.310  0.0117 -0.0250  0.0630
22843W        W65760  26.504  18.696  17.721 -0.2074 -0.3021  0.0908
22844W        W65761  27.291  20.127  20.150 -0.0493  0.1796  0.1482
22845W        W65762  27.030  23.358  19.969 -0.1287 -0.2056 -0.0219
22846W        W65763  28.175  20.771  21.335 -0.1829  0.1815 -0.1254
22847W        W65764  27.387  21.223  19.541  0.2279 -0.0319 -0.1495
22848W        W65765  27.385  18.567  22.061 -0.0266  0.0248  0.3129
22849W        W65766  27.882  18.762  17.244  0.0074 -0.1124  0.0297
22850W        W65767  25.821  24.275  19.360 -0.0855  0.0979 -0.3525
22851W        W65768  24.973  22.069  16.985 -0.1696 -0.0274  0.1648
22852W        W65769  27.627  18.224  17.806  0.0354  0.0385 -0.3571
22853W        W65770  28.183  20.085  19.721  0.0612 -0.0537 -0.0549
22854W        W65771  26.109  21.483  16.450  0.1015 -0.0606 -0.3535
22855W        W65772  26.962  20.323  21.176  0.1112 -0.0207  0.0971
22856W        W65773  26.886  20.255  17.318 -0.0911  0.1360  0.2763
22857W        W65774  27.969  17.719  20.936  0.0480  0.0924  0.3819
22858W        W65775  26.172  21.546  17.667 -0.0374  0.0249  0.1789
22859W        W65776  25.712  18.685  16.669  0.2256 -0.1348 -0.0491
22860W        W65777  26.274  19.718  18.686 -0.4804 -0.0867 -0.0943
22861W        W65778  27.022  18.310  21.232  0.2492  0.2391 -0.3427
22862W        W65779  29.034  19.868  18.258 -0.2309 -0.1549  0.0041
22863W        W65780  27.593  19.389  20.766 -0.0364 -0.2200  0.2473
22864W        W65781  26.510  18.667  18.743  0.0305 -0.0690 -0.0414
22865W        W65782  26.372  20.952  19.355 -0.1323  0.0436 -0.1758
22866W        W65783  27.139  19.347  19.114  0.0031  0.2131 -0.0112
22867W        W65784  25.883  16.135  16.632  0.0807  0.1995  0.2744
22868W        W65785  27.131  21.898  17.751 -0.3129 -0.1297  0.0118
22869W        W65786  27.739  20.345  20.034 -0.0902  0.2068 -0.0393
22870W        W65787  24.985  18.554  18.180 -0.2280  0.1967  0.4518
22871W        W65788  29.514  20.867  19.274 -0.1193  0.1541 -0.0871
22872W        W65789  26.141  18.479  17.308  0.0591  0.3645 -0.1308
22873W        W65790  27.548  19.909  17.981 -0.0917  0.0877 -0.3672
22874W        W65791  28.323  21.392  17.397  0.0854 -0.3044  0.0040
22875W        W65792  27.319  23.697  17.945 -0.0690  0.1314 -0.3154
22876W        W65793  25.512  22.417  20.656  0.0459 -0.2876  0.1455
22877W        W65794  26.030  20.783  20.755  0.0519  0.0129 -0.0543
22878W        W65795  27.883  20.490  19.563  0.1002 -0.0524 -0.1676
22879W        W65796  27.742  20.550  19.067  0.0883  0.2110  0.1093
22880W        W65797  26.676  18.768  20.815  0.1289  0.1287  0.0479
22881W        W65798  28.644  19.922  19.760 -0.1707  0.4011  0.2813
22882W        W65799  29.500  18.775  21.480  0.1338 -0.1283  0.1724
22883W        W65800  27.361  20.715  18.140 -0.3955  0.1817  0.2742
22884W        W65801  27.028  22.307  20.193  0.0520  0.3459 -0.3131
22885W        W65802  26.441  16.610  19.654  0.4854  0.2832 -0.2101
22886W        W65803  29.585  20.434  17.426  0.0780  0.2308  0.1209
22887W        W65804  28.128  20.121  19.222  0.0191 -0.0827  0.0303
22888W        W65805  26.181  20.600  17.508 -0.1285 -0.0491  0.1087
22889W        W65806  26.163  19.331  17.783 -0.0790  0.2259  0.0639
22890W        W65807  27.463  20.216  17.347  0.1090  0.1532 -0.0846
22891W        W65808  28.638  18.613  21.068  0.3763 -0.0341 -0.0721
22892W        W65809  27.235  23.006  20.585 -0.0212 -0.0954  0.1446
22893W        W65810  25.773  20.631  17.226 -0.0245 -0.0161  0.1281
22894W        W65811  25.358  22.987  18.602  0.2769 -0.0629  0.0377
22895W        W65812  28.456  18.083  17.104  0.1911 -0.0719 -0.2366
22896W        W65813  27.755  20.852  17.669 -0.0109 -0.2526 -0.0187
22897W        W65814  26.708  18.980  19.635 -0.0156 -0.0346  0.1027
22898W        W65815  28.184  21.056  20.405 -0.1707 -0.3132  0.1100
22899W        W65816  27.710  19.757  17.227 -0.0990  0.3131 -0.0118
22900W        W65817  29.843  17.306  21.000 -0.0090 -0.0955 -0.0418
22901W        W65818  25.995  20.019  22.531  0.1044 -0.1267  0.1383
22902W        W65819  27.780  19.264  17.145 -0.0681 -0.1514  0.2302
22903W        W65820  25.431  18.979  17.851 -0.2144 -0.0307 -0.1561
22904W        W65821  29.891  22.170  19.698 -0.1427  0.3207 -0.1813
22905W        W65822  27.485  20.697  18.644 -0.2049  0.1393  0.0447
22906W        W65823  26.637  18.007  18.580  0.0444  0.0287  0.0775
22907W        W65824  24.361  18.921  17.246  0.2776 -0.1702  0.0257
22908W        W65825  25.933  20.126  18.735  0.0181  0.1791 -0.2301
22909W        W65826  29.005  20.781  17.319 -0.2346  0.0512  0.1305
22910W        W65827  27.124  20.033  17.747 -0.1393 -0.0346 -0.1316
22911W        W65828  29.025  19.690  19.550  0.2088 -0.1359 -0.3476
22912W        W65829  27.174  21.003  18.960 -0.0227 -0.0084  0.2857
22913W        W65830  29.028  20.608  19.147 -0.4520  0.2536  0.1887
22914W        W65831  26.534  19.848  16.486  0.2212  0.2811 -0.2335
22915W        W65832  27.294  19.091  19.533  0.1082  0.0023  0.0849
22916W        W65833  27.356  17.160  19.525  0.1605 -0.0114  0.0626
22917W        W65834  29.176  20.923  18.671  0.3126 -0.3373  0.2490
22918W        W65835  27.010  17.957  19.354 -0.1240 -0.1989  0.2516
22919W        W65836  27.404  17.801  20.905 -0.0267 -0.3327  0.1447
22920W        W65837  27.521  21.758  19.424  0.0641  0.2298 -0.1342
22921W        W65838  26.937  19.317  22.230  0.1975  0.1382 -0.0995
22922W        W65839  25.292  19.399  22.569 -0.1336  0.1297  0.0234
22923W        W65840  29.557  22.604  18.449  0.5295 -0.2615  0.2996
22924W        W65841  25.983  18.275  19.782  0.2387 -0.0697 -0.0152
22925W        W65842  29.233  17.973  20.206 -0.0647  0.0227 -0.2180
22926W        W65843  29.263  18.670  18.025 -0.1275  0.2743  0.2708
22927W        W65844  28.155  19.090  19.099 -0.2254  0.0030  0.1140
22928W        W65845  26.095  18.891  18.905  0.1798 -0.0034 -0.0344
22929W        W65846  29.515  20.464  19.569 -0.0574 -0.2147  0.4170
22930W        W65847  25.774  18.260  17.040 -0.0611 -0.1362  0.1226
22931W        W65848  27.719  18.398  21.639  0.3355  0.1096 -0.0162
22932W        W65849  26.899  21.361  17.572 -0.2073 -0.0124  0.1104
22933W        W65850  28.233  23.321  18.673  0.2158  0.0687  0.2087
22934W        W65851  27.607  18.702  19.692 -0.0105  0.0319  0.1012
22935W        W65852  24.678  19.033  18.032  0.0676  0.0815 -0.2034
22936W        W65853  27.101  22.888  20.100  0.2847  0.1295  0.2820
22937W        W65854  25.016  20.192  16.941  0.2770  0.1523 -0.3602
22938W        W65855  25.986  19.455  19.108  0.0989 -0.0739  0.2050
22939W        W65856  27.826  18.568  20.671  0.0224  0.2836  0.0008
22940W        W65857  30.190  21.020  22.276  0.0430 -0.0726 -0.0958
22941W        W65858  25.876  18.551  18.554  0.1699  0.1914 -0.0386
22942W        W65859  28.583  19.338  17.575  0.0747 -0.1940  0.0579
22943W        W65860  27.019  22.045  17.284  0.1863 -0.1227  0.2054
22944W        W65861  27.969  18.278  21.029 -0.0132  0.2008  0.3164
22945W        W65862  27.507  22.347  19.124 -0.3638  0.0488 -0.1968
22946W        W65863  26.283  22.671  19.808 -0.0143 -0.2722  0.0108
22947W        W65864  25.607  21.497  19.700  0.0811 -0.2044 -0.2880
22948W        W65865  25.988  18.720  21.182 -0.2054  0.0369  0.0968
22949W        W65866  29.075  18.554  19.351 -0.1875 -0.0215  0.3092
22950W        W65867  26.199  19.660  18.146 -0.3688 -0.2264  0.2092
22951W        W65868  27.594  21.676  20.376 -0.0152 -0.0620 -0.4593
22952W        W65869  26.726  20.634  20.822 -0.0447  0.1455  0.1702
22953W        W65870  26.053  19.095  19.411 -0.2542  0.1566 -0.1848
22954W        W65871  27.713  21.128  18.107  0.2688 -0.0792  0.1319
22955W        W65872  28.382  20.677  18.182 -0.0523 -0.2121  0.1049
22956W        W65873  27.276  23.006  18.346 -0.1798 -0.1074 -0.0113
22957W        W65874  25.988  18.804  20.536 -0.0609 -0.0885  0.1275
22958W        W65875  27.774  20.777  20.412 -0.3719  0.2753  0.0710
22959W        W65876  27.726  19.934  18.967  0.1746  0.0632  0.3024
22960W        W65877  24.873  18.943  16.397  0.1780 -0.0129 -0.2309
22961W        W65878  23.843  21.062  18.733 -0.1302  0.3634  0.0429
22962W        W65879  25.025  23.706  19.560  0.2864 -0.1026 -0.1200
22963W        W65880  26.051  20.305  20.015 -0.0722  0.2488  0.1207
22964W        W65881  24.352  21.213  17.070 -0.2515  0.1212  0.2159
22965W        W65882  26.826  20.986  18.028 -0.0144  0.2555  0.2118
22966W        W65883  27.156  19.823  17.188 -0.0155 -0.0891 -0.0714
22967W        W65884  26.316  21.505  18.797  0.2508 -0.0163 -0.0862
22968W        W65885  25.734  19.189  17.562 -0.0204  0.1061 -0.3383
22969W        W65886  26.290  21.991  17.944  0.0435 -0.1154 -0.0752
22970W        W65887  24.523  21.745  17.911  0.0331  0.0953  0.1161
22971W        W65888  28.727  20.421  17.545  0.1549  0.2049  0.2001
22972W        W65889  25.741  21.962  18.765  0.1896  0.2080  0.0124
22973W        W65890  28.920  19.501  21.089  0.2425  0.1040 -0.0345
22974W        W65891  29.334  19.250  17.587  0.2472  0.4111  0.2377
22975W        W65892  28.686  19.070  18.541  0.0392  0.1559 -0.2574
22976W        W65893  28.139  18.960  19.695  0.3181  0.0459  0.0239
22977W        W65894  28.128  23.314  20.939 -0.0241  0.2242  0.2806
22978W        W65895  27.620  18.946  19.012 -0.3957  0.2094 -0.1665
22979W        W65896  27.047  17.516  16.807 -0.1946  0.0039  0.0584
22980W        W65897  28.227  19.960  20.766  0.0675  0.0057 -0.0302
22981W        W65898  29.180  18.011  20.678 -0.1390 -0.0013 -0.0514
22982W        W65899  25.284  23.457  19.906  0.1875 -0.3594 -0.0311
22983W        W65900  30.450  22.196  17.844  0.0850  0.0497  0.0540
22984W        W65901  25.455  20.825  18.176  0.0544  0.6703 -0.0107
22985W        W65902  26.143  22.084  20.007 -0.0594 -0.0426  0.1616
22986W        W65903  29.610  18.572  20.458 -0.0884 -0.2697  0.0163
22987W        W65904  27.267  18.934  18.326 -0.1703  0.2435 -0.1728
22988W        W65905  26.120  19.927  19.159 -0.2439 -0.3303 -0.2676
22989W        W65906  26.857  22.122  18.195  0.0077  0.0004 -0.0726
22990W        W65907  26.834  23.830  19.143  0.2471  0.0313 -0.5749
22991W        W65908  24.673  23.745  18.909  0.0225  0.2127 -0.2498
22992W        W65909  24.754  19.773  16.995  0.4127  0.0375  0.0865
22993W        W65910  28.615  21.084  18.411 -0.0538  0.1494 -0.1906
22994W        W65911  26.714  22.124  20.550  0.0334  0.2713  0.0259
22995W        W65912  28.583  17.399  19.942 -0.0517 -0.0717  0.0175
22996W        W65913  26.651  19.240  17.690 -0.4327  0.2158  0.2945
22997W        W65914  24.977  18.793  17.729 -0.3420  0.4065 -0.2825
22998W        W65915  27.547  21.342  19.028  0.2429  0.1986 -0.1488
22999W        W65916  25.153  20.333  18.545 -0.1398 -0.1522  0.0244
23000W        W65917  26.575  17.646  16.489  0.0262 -0.1214 -0.3012
23001W        W65918  29.015  20.976  21.758  0.0328 -0.2113 -0.0207
23002W        W65919  25.812  19.634  17.411 -0.2362 -0.0189 -0.4574
23003W        W65920  29.064  21.465  20.504  0.0914  0.1296 -0.0677
23004W        W65921  25.640  18.628  17.519  0.2845  0.1596  0.2152
23005W        W65922  25.304  18.973  16.739  0.3636 -0.1628 -0.1163
23006W        W65923  25.514  21.786  18.277 -0.1616 -0.4017  0.0369
23007W        W65924  27.296  21.089  17.788  0.0994  0.3486 -0.1083
23008W        W65925  30.885  19.441  20.650 -0.1525 -0.0232 -0.3552
23009W        W65926  24.434  19.637  16.265 -0.1643 -0.0250  0.0634
23010W        W65927  28.456  20.663  16.736  0.0104 -0.0237  0.0309
23011W        W65928  29.334  19.568  18.540 -0.1784  0.2894  0.3963
23012W        W65929  28.607  21.843  17.665  0.2031 -0.2161 -0.3222
23013W        W65930  29.472  19.595  19.324 -0.2572  0.2854 -0.0068
23014W        W65931  29.239  25.072  19.267 -0.2820  0.0166 -0.2424
23015W        W65932  26.799  18.483  19.839  0.1599 -0.1441 -0.0477
23016W        W65933  28.278  19.610  19.401  0.1745 -0.1571 -0.1039
23017W        W65934  29.557  19.663  20.324  0.1561 -0.3611  0.1250
23018W        W65935  28.028  18.660  17.764  0.0976  0.2656  0.0284
23019W        W65936  27.090  22.135  18.601 -0.0281  0.3764  0.2421
23020W        W65937  24.842  22.012  18.704 -0.0500  0.0176  0.0483
23021W        W65938  28.336  20.762  18.660 -0.0264 -0.0599  0.1154
23022W        W65939  28.969  18.953  20.266  0.3144  0.1972 -0.0329
23023W        W65940  27.461  21.000  16.467 -0.0286 -0.1493 -0.4101
23024W        W65941  28.021  18.487  19.919 -0.1662 -0.1605  0.0912
23025W        W65942  27.147  19.573  20.886  0.0415 -0.1154  0.0026
23026W        W65943  28.009  23.540  20.486  0.1471  0.0431  0.2732
23027W        W65944  26.666  19.757  17.354 -0.2551  0.1830 -0.0922
23028W        W65945  26.424  20.479  20.405  0.1616 -0.2217  0.0268
23029W        W65946  25.464  19.849  17.687 -0.0656  0.3245  0.0466
23030W        W65947  28.497  21.635  18.979 -0.0323 -0.0092 -0.1022
23031W        W65948  29.901  21.594  18.828  0.1849  0.2743  0.2262
23032W        W65949  27.860  19.491  20.285 -0.1401 -0.1156 -0.0291
23033W        W65950  28.274  20.609  17.714 -0.0307  0.0506 -0.0247
23034W        W65951  25.836  19.381  18.566  0.1574 -0.1097  0.0295
23035W        W65952  29.634  18.851  17.574  0.0936 -0.0414  0.1464
23036W        W65953  28.009  17.757  16.818  0.0560 -0.0319 -0.0890
23037W        W65954  26.186  22.257  19.521  0.1403 -0.1390  0.0350
23038W        W65955  24.111  20.389  17.621 -0.1954 -0.0278  0.3118
23039W        W65956  28.577  20.465  19.616 -0.2696 -0.2597  0.3604
23040W        W65957  27.586  21.596  17.849  0.1021 -0.0702 -0.0183
23041W        W65958  28.024  18.672  18.804 -0.0931  0.1208 -0.2314
23042W        W65959  26.876  21.118  20.815 -0.1370 -0.1309  0.3214
23043W        W65960  26.183  20.549  18.526 -0.1337  0.1732 -0.0847
23044W        W65961  25.126  17.970  17.689  0.1724 -0.0635  0.1815
23045W        W65962  28.046  20.312  18.725  0.2711 -0.0436 -0.2636
23046W        W65963  27.172  19.818  19.113 -0.1156 -0.0747 -0.1146
23047W        W65964  26.454  17.595  19.912 -0.0564  0.0531 -0.1433
23048W        W65965  28.730  22.197  18.459 -0.1970 -0.1048  0.1219
23049W        W65966  28.139  21.176  18.390  0.1220 -0.3278 -0.1598
23050W        W65967  26.576  19.138  19.096  0.1632 -0.0303  0.1394
23051W        W65968  29.065  20.344  19.802  0.1463  0.0569 -0.3318
23052W        W65969  23.844  19.661  17.147  0.1974 -0.0331  0.3125
23053W        W65970  29.720  18.010  20.440  0.0545 -0.1231 -0.1407
23054W        W65971  27.496  18.321  23.288  0.4485  0.0103 -0.0338
23055W        W65972  23.948  20.992  18.237  0.1532  0.0347 -0.1536
23056W        W65973  27.900  18.945  20.326  0.3449  0.0881 -0.0727
23057W        W65974  29.010  21.798  18.450 -0.2575  0.0585  0.1136
23058W        W65975  29.372  24.100  18.043 -0.2800 -0.0867  0.3188
23059W        W65976  28.054  22.343  17.810 -0.1181 -0.0538 -0.1017
23060W        W65977  27.399  20.832  21.995  0.0294 -0.0812 -0.0284
23061W        W65978  26.724  19.563  18.484 -0.2235 -0.0383  0.0766
23062W        W65979  27.098  19.331  19.983 -0.3716 -0.1092 -0.0029
23063W        W65980  27.650  19.917  19.483 -0.2120 -0.0606 -0.0948
23064W        W65981  29.828  21.766  18.030  0.0840 -0.0863 -0.1861
23065W        W65982  29.282  17.941  18.586  0.2973  0.0368 -0.2845
23066W        W65983  25.472  19.734  18.594 -0.3097  0.0372 -0.0148
23067W        W65984  28.050  21.690  20.176 -0.0382 -0.1010 -0.0801
23068W        W65985  27.315  21.910  18.175 -0.0784 -0.0326  0.0431
23069W        W65986  28.774  21.378  21.547 -0.0559 -0.2118  0.0513
23070W        W65987  26.022  17.320  19.771 -0.1476  0.1927 -0.3284
23071W        W65988  26.889  17.156  17.926 -0.0954  0.1569  0.0397
23072W        W65989  28.657  22.523  17.676 -0.1360  0.0398  0.1607
23073W        W65990  26.662  20.859  18.461  0.5251  0.1585 -0.1180
23074W        W65991  26.253  18.237  18.950 -0.2216 -0.0601 -0.0407
23075W        W65992  25.361  19.602  19.978 -0.1612 -0.2850  0.0626
23076W        W65993  26.562  20.287  17.649 -0.0080 -0.0146 -0.1915
23077W        W65994  28.544  20.268  20.113  0.0265  0.4250 -0.0199
23078W        W65995  26.367  20.331  17.180 -0.0816 -0.2450  0.2174
23079W        W65996  30.581  20.805  16.791  0.2904  0.2849 -0.2699
23080W        W65997  29.913  21.978  20.815  0.0212  0.0411 -0.1543
23081W        W65998  31.123  22.835  18.751  0.0553 -0.0310  0.3672
23082W        W65999  27.578  22.637  20.150  0.1411 -0.1476 -0.1028
23083W        W66000  28.759  19.655  18.637  0.1397  0.0005 -0.3958
23084W        W66001  25.016  19.589  18.583 -0.0996  0.1029 -0.2390
23085W        W66002  27.150  19.433  17.604 -0.1906 -0.0141  0.1542
23086W        W66003  27.121  19.734  18.124 -0.0235 -0.1529 -0.0721
23087W        W66004  29.147  17.774  19.213 -0.0911  0.2095  0.0691
23088W        W66005  24.629  18.546  17.096  0.0397  0.1802  0.2042
23089W        W66006  27.156  17.622  17.773  0.3812 -0.0898 -0.3197
23090W        W66007  26.853  21.326  20.229  0.1858  0.1415  0.0714
23091W        W66008  26.897  20.019  18.721 -0.1272 -0.0172  0.0487
23092W        W66009  27.790  22.734  24.385 -0.1550  0.0857  0.1859
23093W        W66010  26.245  19.612  22.895 -0.2569  0.0026  0.1477
23094W        W66011  28.909  18.934  19.776 -0.2211  0.0006 -0.1776
23095W        W66012  27.843  21.072  22.321  0.0935 -0.0260  0.0709
23096W        W66013  26.719  19.851  21.225 -0.0205 -0.3312 -0.1253
23097W        W66014  29.342  21.026  22.182  0.1225 -0.2600 -0.0184
23098W        W66015  26.306  18.485  22.744  0.1214 -0.0733 -0.1900
23099W        W66016  28.784  21.594  22.511 -0.1122  0.0417  0.0211
23100W        W66017  28.871  20.219  24.812 -0.5320  0.0243 -0.0365
23101W        W66018  28.541  17.908  24.395 -0.0823  0.4460 -0.1565
23102W        W66019  27.476  20.858  23.138 -0.0300  0.0278  0.1673
23103W        W66020  29.273  20.832  23.403 -0.0794  0.0023 -0.1327
23104W        W66021  28.352  19.435  22.342 -0.0297 -0.1791  0.0703
23105W        W66022  25.153  17.780  22.830 -0.2902  0.1326  0.0010
23106W        W66023  27.621  20.101  21.507 -0.0432  0.1657  0.0768
23107W        W66024  26.413  21.086  21.132  0.0297 -0.0931  0.1439
23108W        W66025  26.510  20.006  22.665  0.2619 -0.0702  0.1233
23109W        W66026  26.869  19.732  22.952 -0.1256  0.3030  0.2778
23110W        W66027  28.118  21.274  21.004 -0.1847  0.0541  0.3223
23111W        W66028  27.065  18.104  23.211 -0.0942 -0.1640 -0.2710
23112W        W66029  26.396  19.847  25.283 -0.1493 -0.0228 -0.0495
23113W        W66030  26.878  20.689  21.935 -0.3779  0.1001  0.0171
23114W        W66031  25.916  21.018  19.768 -0.0187  0.3096 -0.0132
23115W        W66032  25.193  18.285  22.607  0.1412 -0.0611 -0.0608
23116W        W66033  27.013  20.983  22.976 -0.2226  0.2840 -0.1884
23117W        W66034  28.971  19.739  22.007  0.0184  0.0777  0.1571
23118W        W66035  28.061  20.020  23.227  0.0705  0.1345  0.0302
23119W        W66036  25.322  21.097  20.634 -0.2936  0.2701  0.0937
23120W        W66037  26.710  21.853  23.737 -0.2250  0.0873  0.2111
23121W        W66038  29.490  21.352  25.237 -0.0070 -0.0399 -0.0273
23122W        W66039  25.458  21.248  22.311  0.1993 -0.0801 -0.0689
23123W        W66040  25.521  24.118  23.675 -0.3475  0.2428 -0.1310
23124W        W66041  27.208  21.516  20.722  0.2950 -0.2040 -0.0652
23125W        W66042  29.228  20.025  21.570  0.0057  0.2745 -0.0340
23126W        W66043  29.295  19.163  24.153 -0.0493 -0.0603 -0.0538
23127W        W66044  25.853  21.665  22.034  0.0377  0.0029 -0.2073
23128W        W66045  26.564  21.792  20.117 -0.1911  0.0576  0.1635
23129W        W66046  27.735  23.168  24.114 -0.2088  0.0859 -0.3534
23130W        W66047  26.842  21.441  22.830  0.2061  0.3123  0.3157
23131W        W66048  27.080  20.483  23.046 -0.0797  0.4876  0.0312
23132W        W66049  28.188  21.565  22.575 -0.0072 -0.0067 -0.0853
23133W        W66050  27.760  20.543  22.269  0.1210  0.0275 -0.4508
23134W        W66051  27.167  21.626  22.402 -0.3181 -0.2423  0.2150
23135W        W66052  27.277  22.022  24.063  0.0692 -0.1390  0.0531
23136W        W66053  26.661  21.180  21.721 -0.1420  0.0133 -0.0355
23137W        W66054  29.790  19.048  24.079 -0.0134 -0.2292  0.2459
23138W        W66055  27.417  23.567  20.574  0.1597  0.0290  0.5730
23139W        W66056  30.076  19.236  22.357 -0.0921  0.0944  0.1335
23140W        W66057  27.423  18.503  21.221 -0.2931  0.1010 -0.0611
23141W        W66058  28.040  19.694  21.960  0.0994  0.0474 -0.0444
23142W        W66059  27.976  19.788  21.353 -0.0263 -0.1628 -0.0047
23143W        W66060  26.884  21.289  21.248  0.1759  0.2882 -0.1260
23144W        W66061  25.027  18.597  22.976 -0.0365  0.0356  0.0989
23145W        W66062  29.661  19.171  23.183 -0.2556  0.3157  0.1598
23146W        W66063  26.698  20.041  23.799  0.1695  0.2023 -0.0897
23147W        W66064  29.645  19.946  24.560 -0.4226  0.4244  0.3300
23148W        W66065  29.054  20.631  22.975 -0.1578  0.0672  0.1983
23149W        W66066  26.172  19.622  21.833 -0.1162 -0.0873  0.2069
23150W        W66067  28.944  24.887  20.165  0.0290  0.3110  0.0558
23151W        W66068  28.312  22.223  20.838 -0.1227  0.0434  0.2207
23152W        W66069  29.406  21.480  20.086 -0.0945 -0.0663  0.0487
23153W        W66070  25.995  21.002  21.529 -0.1250  0.4224  0.1112
23154W        W66071  25.710  21.468  24.248  0.0236 -0.1475  0.1746
23155W        W66072  25.441  21.250  24.723  0.1679 -0.1200 -0.3201
23156W        W66073  25.890  17.141  20.587 -0.2000  0.2177  0.1187
23157W        W66074  29.248  21.698  22.620 -0.2324  0.3831 -0.1139
23158W        W66075  25.805  24.643  24.610 -0.0322 -0.0141 -0.3213
23159W        W66076  28.074  19.503  20.885  0.1055  0.3237  0.2293
23160W        W66077  28.212  20.999  23.233 -0.2342 -0.2409 -0.0662
23161W        W66078  27.323  21.288  22.683  0.0265 -0.0234  0.0414
23162W        W66079  28.344  21.152  22.272  0.3282 -0.0115 -0.1793
23163W        W66080  28.360  18.940  24.288  0.2250  0.1319 -0.0756
23164W        W66081  28.055  21.070  23.715  0.3315  0.1212 -0.2900
23165W        W66082  28.450  20.114  22.545 -0.0497 -0.2409 -0.2037
23166W        W66083  26.218  19.181  22.119  0.1136 -0.0052 -0.0612
23167W        W66084  26.671  21.785  21.479 -0.0763 -0.2584 -0.1586
23168W        W66085  28.198  19.186  21.873  0.2059 -0.0300 -0.2532
23169W        W66086  26.270  21.412  22.722 -0.0129 -0.0199  0.4429
23170W        W66087  24.430  22.437  23.747  0.0919  0.0949  0.2081
23171W        W66088  30.062  21.796  23.788 -0.0198 -0.4253 -0.0270
23172W        W66089  27.011  22.173  19.133 -0.1568  0.4015 -0.1527
23173W        W66090  25.736  19.238  22.886 -0.0504 -0.1125  0.1732
23174W        W66091  28.720  20.646  20.807 -0.2337  0.2181 -0.2265
23175W        W66092  26.001  19.782  20.034 -0.0076 -0.2810 -0.5142
23176W        W66093  27.041  20.379  23.647 -0.3678 -0.1510  0.2329
23177W        W66094  28.729  19.303  22.000 -0.1265 -0.2298  0.1695
23178W        W66095  24.667  17.329  24.187  0.0732  0.1320  0.2688
23179W        W66096  28.450  16.336  19.909 -0.1048 -0.1548  0.0492
23180W        W66097  25.397  21.536  20.274  0.0353  0.3729 -0.1303
23181W        W66098  28.685  20.759  23.539 -0.1309 -0.0858  0.4081
23182W        W66099  28.443  21.011  22.818 -0.5023  0.0778  0.2435
23183W        W66100  28.018  18.666  21.326  0.1814  0.3916  0.0374
23184W        W66101  26.930  20.703  22.455  0.1414  0.3226  0.0897
23185W        W66102  25.654  18.474  23.929 -0.1643  0.0550  0.1638
23186W        W66103  26.151  21.209  24.014  0.0051 -0.0096  0.0554
23187W        W66104  25.726  18.052  21.662 -0.0944 -0.4337 -0.3204
23188W        W66105  29.517  20.337  22.817 -0.1018 -0.2103  0.1457
23189W        W66106  26.753  18.723  22.671  0.1564 -0.3539 -0.1787
23190W        W66107  27.221  20.545  20.654  0.1981 -0.0252 -0.2303
23191W        W66108  27.510  20.301  23.282 -0.2560  0.0767  0.0657
23192W        W66109  27.926  20.668  22.846  0.6688  0.3404  0.0638
23193W        W66110  28.483  18.636  24.929  0.0894 -0.0706 -0.2335
23194W        W66111  27.445  22.333  22.005  0.0897  0.1732 -0.0951
23195W        W66112  27.813  21.500  23.832  0.2041 -0.1184  0.0923
23196W        W66113  29.098  21.203  20.936 -0.2416 -0.1311 -0.1269
23197W        W66114  27.859  19.701  22.426  0.3123 -0.1037 -0.2550
23198W        W66115  25.429  19.388  20.715  0.2209  0.1008  0.0557
23199W        W66116  27.966  20.612  23.872 -0.1408  0.3183  0.2306
23200W        W66117  27.010  22.148  21.846  0.3334  0.0761  0.0264
23201W        W66118  26.501  20.475  22.396  0.1797  0.0250  0.3492
23202W        W66119  30.281  23.239  23.944  0.2020  0.2646  0.1547
23203W        W66120  27.502  16.688  21.679 -0.2464  0.4098  0.1372
23204W        W66121  27.758  22.077  22.352  0.1796 -0.0586 -0.0784
23205W        W66122  28.797  19.262  24.186  0.0043  0.1258 -0.1645
23206W        W66123  27.929  20.500  23.366 -0.0497  0.1092  0.0706
23207W        W66124  30.130  21.026  20.972  0.0001 -0.2729  0.1380
23208W        W66125  28.175  18.711  21.906  0.0531  0.1587 -0.1261
23209W        W66126  29.534  22.290  23.781  0.1423 -0.1606 -0.2230
23210W        W66127  26.875  21.786  20.991  0.0020  0.2189 -0.0098
23211W        W66128  25.711  21.572  23.351  0.1801  0.2033 -0.3374
23212W        W66129  27.753  20.770  20.974 -0.0244  0.1377  0.0021
23213W        W66130  30.084  21.015  22.790  0.0190 -0.1003  0.1396
23214W        W66131  22.550  23.314  22.864  0.0475  0.1708  0.0004
23215W        W66132  29.633  19.376  24.439 -0.1719  0.5171 -0.0164
23216W        W66133  26.834  22.610  20.566  0.2724  0.3094 -0.3381
23217W        W66134  25.790  24.209  24.129  0.3346  0.2791 -0.1279
23218W        W66135  28.172  18.922  20.857 -0.0554  0.0552  0.1583
23219W        W66136  28.685  17.455  21.259  0.0221 -0.1705 -0.1008
23220W        W66137  28.717  19.727  22.643  0.2732 -0.0097  0.1148
23221W        W66138  26.886  22.306  23.700  0.0867 -0.2720 -0.0685
23222W        W66139  28.087  19.306  21.381 -0.0296  0.0041  0.1908
23223W        W66140  29.173  18.514  20.232  0.3185  0.0530 -0.1301
23224W        W66141  25.229  21.370  23.332  0.1093 -0.0237 -0.0432
23225W        W66142  28.357  22.079  22.273 -0.0624 -0.2410 -0.0891
23226W        W66143  28.268  22.004  22.818  0.2209 -0.0854  0.0524
23227W        W66144  26.674  21.580  20.587 -0.0529 -0.2453 -0.2026
23228W        W66145  30.095  21.608  23.341  0.1052 -0.0189  0.1575
23229W        W66146  24.649  20.620  22.442  0.2465 -0.4220  0.1447
23230W        W66147  29.244  21.101  24.881  0.0445  0.0222 -0.0361
23231W        W66148  28.413  20.994  24.474  0.1554  0.1917 -0.0676
23232W        W66149  27.004  18.301  24.359 -0.1207  0.4553  0.0386
23233W        W66150  27.369  19.967  22.495  0.0484  0.1242  0.0206
23234W        W66151  27.601  19.074  23.171  0.1940  0.2406  0.1469
23235W        W66152  26.893  20.145  20.371  0.0082 -0.3762 -0.1133
23236W        W66153  27.655  16.495  22.146  0.0967 -0.1285 -0.1357
23237W        W66154  26.960  19.758  24.098  0.0984 -0.0593  0.1123
23238W        W66155  27.486  20.084  23.784 -0.1396 -0.0922 -0.2838
23239W        W66156  28.715  19.752  26.070  0.2125  0.2489  0.0614
23240W        W66157  28.793  22.223  22.611 -0.0265  0.1228  0.3321
23241W        W66158  29.064  20.421  21.903 -0.1106  0.2145 -0.2240
23242W        W66159  26.235  18.436  20.815  0.0892 -0.1093 -0.1536
23243W        W66160  27.324  19.976  22.979 -0.2476 -0.3000  0.0597
23244W        W66161  25.402  21.502  21.851  0.0215 -0.0328  0.1857
23245W        W66162  25.239  22.503  23.318  0.1901 -0.3542 -0.5808
23246W        W66163  30.325  20.242  25.089 -0.2765  0.1230  0.4007
23247W        W66164  28.287  20.084  21.688  0.1403  0.2107 -0.1034
23248W        W66165  29.987  19.566  23.279 -0.0379 -0.1428 -0.0972
23249W        W66166  29.468  20.021  21.987 -0.2561 -0.4016 -0.0037
23250W        W66167  25.403  22.591  21.487  0.2581  0.3629 -0.2170
23251W        W66168  26.136  22.277  21.283  0.0614 -0.2150  0.0847
23252W        W66169  26.776  18.206  22.783  0.1412 -0.1772  0.4207
23253W        W66170  27.410  20.827  22.629  0.1690  0.4740 -0.0827
23254W        W66171  27.683  22.418  19.588  0.2350 -0.2132  0.0633
23255W        W66172  30.760  20.551  23.740  0.0887 -0.0861  0.3484
23256W        W66173  25.491  24.257  22.200 -0.0050  0.0907  0.0783
23257W        W66174  29.536  18.950  22.194 -0.3331 -0.5954  0.1546
23258W        W66175  24.579  23.626  22.241  0.1944  0.3784  0.1035
23259W        W66176  26.302  18.693  22.137 -0.0416 -0.3591 -0.2909
23260W        W66177  28.061  21.872  21.093  0.1773  0.1048 -0.0496
23261W        W66178  28.694  19.391  23.058 -0.0061  0.2877  0.1715
23262W        W66179  26.459  20.146  20.815  0.0321 -0.0436 -0.2571
23263W        W66180  25.492  17.953  24.144  0.2509  0.0574  0.3056
23264W        W66181  28.019  17.618  21.841  0.4009  0.1940  0.0451
23265W        W66182  25.369  22.293  22.829 -0.1586  0.1339 -0.1245
23266W        W66183  28.974  21.475  24.046 -0.0023 -0.0253 -0.1239
23267W        W66184  26.673  19.014  20.175 -0.2208 -0.3636 -0.1575
23268W        W66185  27.703  21.226  23.431  0.0794 -0.2112 -0.2277
23269W        W66186  26.073  19.993  23.682  0.1946 -0.2481 -0.3142
23270W        W66187  25.334  20.023  20.532 -0.0996 -0.1888  0.2240
23271W        W66188  27.458  20.238  24.643  0.4486  0.0658 -0.1755
23272W        W66189  25.582  18.990  20.964  0.1729  0.1085  0.3360
23273W        W66190  27.239  21.997  20.589 -0.2673  0.0938 -0.2853
23274W        W66191  28.393  22.781  22.183  0.0633 -0.1661 -0.0520
23275W        W66192  25.203  18.439  20.886  0.1285  0.3991  0.3824
23276W        W66193  26.473  21.378  19.215 -0.0721 -0.1976 -0.1463
23277W        W66194  25.606  18.988  23.342 -0.2036 -0.0821 -0.0480
23278W        W66195  28.394  18.445  23.963 -0.1636  0.0409 -0.1284
23279W        W66196  27.356  17.850  23.507 -0.0274 -0.1065 -0.1128
23280W        W66197  27.530  19.334  21.253 -0.0259 -0.0264  0.0707
23281W        W66198  27.780  21.740  22.838  0.1598 -0.2099  0.1584
23282W        W66199  27.527  20.334  22.764  0.2057 -0.1036  0.1481
23283W        W66200  28.644  19.798  24.644  0.0054  0.2972  0.0173
23284W        W66201  27.605  19.770  23.414 -0.0154 -0.0016 -0.0570
23285W        W66202  28.678  18.292  21.865  0.1471 -0.4136  0.4052
23286W        W66203  30.262  21.112  19.683 -0.0517 -0.1218  0.0200
23287W        W66204  26.733  21.377  24.734  0.0094  0.0443 -0.3091
23288W        W66205  27.138  20.911  23.491  0.0347  0.1127 -0.0986
23289W        W66206  25.822  18.070  23.462 -0.0341  0.0398 -0.4914
23290W        W66207  27.948  21.235  22.905  0.0741 -0.0105 -0.0843
23291W        W66208  26.628  16.739  24.712 -0.1770  0.3734 -0.0025
23292W        W66209  26.663  21.403  22.369 -0.0374  0.0217 -0.3899
23293W        W66210  26.584  20.184  21.594 -0.0750 -0.0145  0.1020
23294W        W66211  25.079  20.656  21.520  0.0082  0.2294  0.0713
23295W        W66212  29.159  19.669  19.014 -0.3637 -0.1454  0.3566
23296W        W66213  28.053  21.584  19.317  0.0549  0.3479  0.4288
23297W        W66214  28.097  20.221  22.149 -0.3706 -0.0781 -0.0402
23298W        W66215  28.923  18.754  24.125 -0.0568  0.2127  0.4093
23299W        W66216  28.938  22.928  22.341 -0.1857 -0.0142  0.1441
23300W        W66217  26.656  18.471  25.141 -0.1242 -0.1431  0.1485
23301W        W66218  23.630  17.269  22.339  0.2440 -0.1695  0.0553
23302W        W66219  29.418  22.158  22.750  0.3407 -0.0178  0.1085
23303W        W66220  26.579  18.400  23.675 -0.1023  0.1743  0.3013
23304W        W66221  24.609  23.402  25.393 -0.2556  0.0723 -0.0460
23305W        W66222  26.835  22.619  24.169 -0.1748  0.1840  0.1838
23306W        W66223  28.492  19.866  22.120  0.1688 -0.1566 -0.1286
23307W        W66224  26.776  19.269  20.979 -0.1598 -0.0940  0.0660
23308W        W66225  26.525  20.993  22.135 -0.0297  0.0211  0.3302
23309W        W66226  29.333  21.318  21.758 -0.3039  0.0977 -0.3646
23310W        W66227  27.341  22.514  20.544 -0.0190  0.2276  0.3216
23311W        W66228  28.883  19.891  24.171  0.1028  0.0628 -0.5442
23312W        W66229  26.675  18.967  23.689 -0.2411 -0.0582  0.0949
23313W        W66230  30.375  20.364  21.730 -0.0072 -0.0413  0.1968
23314W        W66231  29.488  18.027  19.548 -0.1135  0.1281 -0.1223
23315W        W66232  26.409  19.128  22.738 -0.1708 -0.2256 -0.0053
23316W        W66233  24.748  18.838  23.589  0.3984  0.1745 -0.0159
23317W        W66234  29.323  22.988  18.724 -0.4750  0.0754 -0.1427
23318W        W66235  28.522  18.168  20.771 -0.0424  0.0377 -0.1337
23319W        W66236  28.178  17.657  23.481  0.2172  0.3223 -0.0152
23320W        W66237  28.987  19.604  24.985  0.0185 -0.0059 -0.2276
23321W        W66238  26.054  17.432  25.026  0.2838  0.1599 -0.0717
23322W        W66239  24.696  16.940  23.793 -0.1888 -0.1261  0.2099
23323W        W66240  27.558  21.583  24.262 -0.0533  0.2172 -0.0159
23324W        W66241  28.464  19.924  23.832  0.1105  0.1445  0.0591
23325W        W66242  28.229  19.920  24.365  0.2602 -0.0492 -0.0283
23326W        W66243  28.521  20.503  21.535 -0.0569  0.3482 -0.1575
23327W        W66244  28.318  18.566  20.577  0.0560  0.2415  0.2011
23328W        W66245  25.783  19.766  22.894  0.0621 -0.0718  0.0616
23329W        W66246  29.045  20.110  23.706  0.1580  0.0303 -0.0128
23330W        W66247  25.713  19.079  21.456 -0.2644  0.0701 -0.0912
23331W        W66248  27.159  18.812  24.463  0.1677  0.3887  0.0375
23332W        W66249  26.240  23.193  21.614  0.2889 -0.1264  0.1539
23333W        W66250  28.463  22.305  21.751  0.1390 -0.2731 -0.1006
23334W        W66251  26.944  20.252  22.639 -0.1789  0.4405  0.0456
23335W        W66252  24.221  17.678  22.578  0.0497  0.4295  0.0929
23336W        W66253  25.809  22.940  22.606 -0.1142  0.1300  0.1065
23337W        W66254  26.534  18.417  21.243 -0.1223 -0.0160  0.0732
23338W        W66255  28.570  18.681  19.566  0.2165 -0.3412  0.2764
23339W        W66256  27.715  19.974  26.439  0.3068  0.1294  0.1341
23340W        W66257  27.759  22.259  24.166 -0.0542  0.1325 -0.0635
23341W        W66258  26.872  18.759  22.120 -0.0012 -0.3247 -0.2399
23342W        W66259  28.697  20.562  22.624  0.0722 -0.0645 -0.2293
23343W        W66260  28.030  23.201  20.130  0.1576  0.0489  0.3750
23344W        W66261  28.425  17.057  23.883 -0.1543  0.1443 -0.0578
23345W        W66262  27.378  22.436  23.860 -0.3941 -0.2449 -0.4027
23346W        W66263  25.310  21.000  22.939 -0.1581 -0.4730 -0.2543
23347W        W66264  26.433  22.174  21.820 -0.0735 -0.2604  0.2224
23348W        W66265  27.232  16.827  25.094  0.2371  0.0728  0.1839
23349W        W66266  28.490  20.408  24.547  0.1573  0.0414  0.0964
23350W        W66267  28.401  18.107  24.874 -0.0431 -0.1298  0.1309
23351W        W66268  30.352  22.655  23.610 -0.0192 -0.0296  0.1329
23352W        W66269  28.360  20.381  23.607  0.3420 -0.0078 -0.0486
23353W        W66270  26.335  21.562  21.930  0.1595  0.0991  0.2634
23354W        W66271  27.967  21.248  24.342  0.0893 -0.0535 -0.1877
23355W        W66272  30.808  20.005  22.481 -0.1815  0.0832  0.5884
23356W        W66273  27.293  20.338  22.158  0.1685  0.0417  0.1253
23357W        W66274  24.928  20.927  23.352 -0.2646 -0.0689  0.0472
23358W        W66275  30.236  20.045  22.171  0.2178 -0.0034  0.1105
23359W        W66276  27.731  21.572  22.347 -0.0314 -0.0850 -0.2572
23360W        W66277  27.696  16.820  23.319  0.1859 -0.1090 -0.1196
23361W        W66278  28.076  20.055  20.271  0.2241 -0.0158 -0.3120
23362W        W66279  25.909  23.508  24.059 -0.3273  0.1544 -0.5850
23363W        W66280  25.955  18.487  23.102 -0.0786 -0.2185 -0.2913
23364W        W66281  27.719  21.271  20.670  0.1068  0.4294 -0.0041
23365W        W66282  27.146  21.053  21.576  0.2163 -0.1035  0.1743
23366W        W66283  29.849  20.415  22.035  0.1369 -0.1331 -0.1555
23367W        W66284  29.173  21.343  23.466 -0.0946 -0.0130  0.3800
23368W        W66285  28.005  19.387  23.109  0.2250 -0.0452  0.0862
23369W        W66286  26.053  20.527  22.223  0.0211 -0.1418 -0.1635
23370W        W66287  26.726  21.810  18.928 -0.1829  0.1933 -0.0998
23371W        W66288  28.845  21.915  22.160  0.0117 -0.0742 -0.1118
23372W        W66289  26.380  20.497  21.230  0.0020  0.0391 -0.1407
23373W        W66290  29.614  21.582  23.638 -0.1094  0.1785 -0.2675
23374W        W66291  30.032  18.895  20.398  0.0959 -0.1034 -0.0176
23375W        W66292  27.545  21.073  24.501  0.0558  0.0240 -0.2777
23376W        W66293  30.777  21.688  22.456 -0.1086  0.2176 -0.0383
23377W        W66294  25.197  21.435  22.704 -0.0173  0.3834 -0.0888
23378W        W66295  27.839  22.658  23.861  0.0600  0.1110 -0.0301
23379W        W66296  27.444  19.284  20.343 -0.0301  0.1765 -0.2505
23380W        W66297  26.397  18.940  24.211  0.2298  0.0963  0.0323
23381W        W66298  28.957  17.653  25.518  0.0621 -0.1162 -0.0936
23382W        W66299  24.028  23.354  22.331 -0.2426  0.0820  0.0776
23383W        W66300  28.108  22.675  20.810  0.2313  0.1691 -0.2949
23384W        W66301  25.784  20.170  19.568 -0.2546  0.3897  0.0192
23385W        W66302  27.054  20.258  24.092  0.1919 -0.0605  0.2721
23386W        W66303  29.080  18.942  22.266  0.2282 -0.0028 -0.1174
23387W        W66304  26.872  21.105  19.400  0.0930  0.2894  0.1844
23388W        W66305  25.820  19.059  24.879 -0.0111 -0.0402  0.0880
23389W        W66306  26.621  23.167  20.039 -0.0254  0.1438  0.3716
23390W        W66307  25.247  22.162  24.996 -0.0861 -0.1633  0.0533
23391W        W66308  25.911  23.811  22.958 -0.1732 -0.0474  0.1971
23392W        W66309  26.261  20.612  23.101  0.0963  0.1940 -0.0709
23393W        W66310  28.457  18.918  21.537  0.4988 -0.2341 -0.3156
23394W        W66311  26.283  20.130  22.046 -0.1002  0.2218  0.0088
23395W        W66312  28.540  18.887  23.793 -0.0545  0.0286  0.1572
23396W        W66313  28.167  20.728  21.932 -0.0682 -0.4735  0.2124
23397W        W66314  28.988  20.107  20.973  0.1987 -0.2030  0.2634
23398W        W66315  27.092  21.068  24.398  0.0301 -0.1692  0.1689
23399W        W66316  26.661  21.047  22.657  0.1981 -0.1395 -0.0442
23400W        W66317  28.557  19.941  21.165 -0.1310  0.0958 -0.2830
23401W        W66318  28.657  21.096  25.650 -0.0120  0.0429  0.0860
23402W        W66319  27.547  19.775  19.983  0.0338 -0.0055  0.2802
23403W        W66320  29.844  22.123  24.122 -0.0556  0.2547  0.0817
23404W        W66321  25.225  18.266  25.063  0.2777  0.0238  0.0543
23405W        W66322  29.166  20.698  20.935  0.0336  0.1372  0.0592
23406W        W66323  25.386  22.820  20.950 -0.1101  0.1590  0.0649
23407W        W66324  27.431  21.807  21.804  0.0724  0.0221 -0.0148
23408W        W66325  28.119  23.621  24.720 -0.1349 -0.0986 -0.2309
23409W        W66326  27.182  17.632  23.035  0.0645  0.4147  0.0581
23410W        W66327  27.903  20.990  19.451  0.1823 -0.1775 -0.1440
23411W        W66328  26.789  20.759  21.430 -0.2846 -0.3522 -0.0871
23412W        W66329  27.576  24.422  22.473  0.0334  0.1303  0.4780
23413W        W66330  28.367  20.381  21.051  0.0148 -0.0184  0.0682
23414W        W66331  29.676  20.871  23.711  0.1333 -0.1096  0.0881
23415W        W66332  22.365  20.362  22.255  0.0441  0.0423 -0.0723
23416W        W66333  30.619  21.790  23.345 -0.0582 -0.0721  0.0681
23417W        W66334  29.142  21.656  24.960  0.1349 -0.1786 -0.2156
23418W        W66335  28.140  18.563  23.575  0.0703 -0.0746 -0.0695
23419W        W66336  25.947  18.874  23.748 -0.2823  0.2134 -0.1776
23420W        W66337  25.225  21.544  19.401 -0.1705  0.0074  0.0872
23421W        W66338  30.840  22.362  23.497  0.0516 -0.0276  0.0491
23422W        W66339  27.490  20.701  25.336  0.2904  0.0862 -0.0711
23423W        W66340  27.544  23.220  20.176  0.0473 -0.0056 -0.0959
23424W        W66341  26.694  17.374  23.513  0.0718  0.0460  0.3575
23425W        W66342  27.575  22.371  22.799 -0.1856  0.2556 -0.0925
23426W        W66343  27.155  22.534  21.611  0.0932  0.3176  0.0733
23427W        W66344  25.393  20.977  17.706  0.2788 -0.1826  0.1780
23428W        W66345  25.652  20.034  23.313 -0.2222 -0.0880  0.0046
23429W        W66346  27.144  20.789  21.072 -0.0046  0.3442 -0.1691
23430W        W66347  26.882  23.464  20.467 -0.0585  0.0541  0.2918
23431W        W66348  28.023  22.894  22.621 -0.0033  0.1437  0.1649
23432W        W66349  25.354  21.878  23.519 -0.1138 -0.2753  0.1565
23433W        W66350  27.497  20.608  24.261 -0.1205 -0.0151  0.4268
23434W        W66351  27.761  17.778  23.891 -0.4533 -0.2045 -0.0858
23435W        W66352  27.957  20.251  24.742 -0.0545  0.2806 -0.3455
23436W        W66353  28.308  19.259  20.537  0.4939  0.2102  0.2582
23437W        W66354  25.667  20.873  22.515 -0.1156 -0.2458  0.4275
23438W        W66355  27.312  21.183  20.143  0.2127 -0.3333 -0.2787
23439W        W66356  26.551  21.836  22.732  0.1635  0.3509 -0.1519
23440W        W66357  26.176  20.854  22.624  0.1350  0.3874 -0.3416
23441W        W66358  27.862  17.850  24.640 -0.0053  0.0398 -0.0530
23442W        W66359  27.109  21.524  25.968 -0.2943  0.1336  0.0405
23443W        W66360  24.946  18.401  21.336 -0.0862  0.0610 -0.0728
23444W        W66361  26.449  20.966  20.540 -0.2294  0.1764  0.0252
23445W        W66362  28.509  22.308  19.848 -0.3072 -0.3814 -0.4308
23446W        W66363  24.200  17.183  22.352  0.3288  0.1555  0.2114
23447W        W66364  24.729  18.952  22.183 -0.3154  0.2851  0.2916
23448W        W66365  28.111  20.764  19.930 -0.1223  0.2971 -0.1283
23449W        W66366  28.495  21.981  21.291  0.0621  0.0045  0.0240
23450W        W66367  27.439  20.350  21.113  0.0372  0.0268 -0.0237
23451W        W66368  26.953  21.877  23.220 -0.1304  0.1335  0.1571
23452W        W66369  25.937  22.433  21.725 -0.2049 -0.1611  0.1738
23453W        W66370  26.915  20.613  24.440  0.2461 -0.3082 -0.1472
23454W        W66371  26.800  16.261  23.381  0.1682  0.0070 -0.0215
23455W        W66372  27.626  18.735  22.607  0.1388 -0.0992  0.0362
23456W        W66373  26.899  19.232  22.738 -0.2684 -0.0096  0.2072
23457W        W66374  27.495  22.379  21.039  0.1395 -0.1336  0.0903
23458W        W66375  28.270  21.658  20.684  0.3327 -0.1059 -0.1571
23459W        W66376  28.571  20.731  25.278 -0.0835 -0.0081 -0.1748
23460W        W66377  26.846  22.258  22.818 -0.1314 -0.0018  0.2694
23461W        W66378  25.757  17.295  23.542  0.2290  0.2081 -0.2465
23462W        W66379  29.830  22.527  22.571 -0.2591  0.0406 -0.1190
23463W        W66380  28.581  21.797  24.316  0.2069 -0.0729  0.1591
23464W        W66381  30.482  23.267  23.474 -0.3094  0.1586  0.1909
23465W        W66382  27.971  20.101  22.691 -0.1443  0.0199  0.1454
23466W        W66383  28.244  19.603  23.426  0.0935 -0.1643  0.3333
23467W        W66384  27.106  16.933  24.464 -0.0098  0.1062  0.1743
23468W        W66385  26.236  21.335  25.468  0.1884  0.3052  0.1296
23469W        W66386  28.481  20.853  23.939 -0.0343 -0.0810  0.0290
23470W        W66387  28.601  19.321  24.780 -0.0761  0.0957 -0.0594
23471W        W66388  30.333  18.616  20.694 -0.1108  0.1373 -0.0264
23472W        W66389  28.698  21.490  19.460 -0.0616 -0.1814  0.0370
23473W        W66390  22.038  21.990  21.079 -0.3444 -0.1045  0.0072
23474W        W66391  28.694  18.894  23.235 -0.0461 -0.1225 -0.1166
23475W        W66392  25.684  19.367  23.686  0.1744 -0.0913  0.1121
23476W        W66393  28.488  18.389  24.475 -0.0814 -0.4338  0.1483
23477W        W66394  30.142  21.674  25.141 -0.0080 -0.1807 -0.2232
23478W        W66395  25.945  19.628  23.340 -0.2505  0.2018  0.0494
23479W        W66396  27.321  20.592  20.131  0.0974 -0.0010 -0.0204
23480W        W66397  28.972  21.022  23.846 -0.0870  0.0670 -0.2557
23481W        W66398  27.419  21.128  26.000 -0.1160  0.1576 -0.1049
23482W        W66399  28.478  21.280  23.641 -0.2290 -0.0714  0.0471
23483W        W66400  27.902  22.139  23.230  0.4996  0.1538 -0.2330
23484W        W66401  23.967  19.246  23.584 -0.0820  0.0896  0.0139
23485W        W66402  27.072  20.099  21.686 -0.1653  0.1116 -0.1102
23486W        W66403  27.291  21.373  23.179  0.2751  0.0008  0.0597
23487W        W66404  29.411  19.867  22.512 -0.1153 -0.4342  0.0201
23488W        W66405  25.222  18.640  23.584  0.1633 -0.3344  0.0288
23489W        W66406  28.306  18.190  19.560  0.1510 -0.2227 -0.2809
23490W        W66407  25.394  23.398  23.805  0.1416 -0.0190  0.2018
23491W        W66408  27.750  19.768  22.942 -0.0400  0.1840 -0.1092
23492W        W66409  24.741  21.326  28.080 -0.0773 -0.0973  0.0471
23493W        W66410  25.693  18.592  24.933  0.0736 -0.0253 -0.2226
23494W        W66411  28.691  16.944  25.994 -0.2044 -0.0507 -0.2864
23495W        W66412  30.636  19.092  27.894 -0.1112  0.0042 -0.1178
23496W        W66413  24.528  19.895  26.166  0.0549 -0.1836  0.3076
23497W        W66414  28.029  19.462  25.282 -0.1611 -0.0683 -0.1780
23498W        W66415  24.986  19.633  25.077 -0.1147 -0.0837  0.0718
23499W        W66416  31.241  19.662  26.475 -0.0189 -0.2638 -0.0790
23500W        W66417  28.819  20.907  26.870 -0.4217  0.1043  0.2443
23501W        W66418  26.250  21.987  23.987 -0.2324  0.2875 -0.2651
23502W        W66419  27.166  19.671  26.187 -0.1320 -0.0907  0.0691
23503W        W66420  24.622  20.551  25.527  0.2734  0.2432 -0.0886
23504W        W66421  27.668  18.899  24.223 -0.0452 -0.0567  0.2019
23505W        W66422  24.293  19.923  24.115  0.0098  0.0434 -0.2397
23506W        W66423  28.770  20.804  24.803  0.1067  0.4172 -0.2049
23507W        W66424  25.478  20.358  22.897  0.2228 -0.0793 -0.0245
23508W        W66425  24.905  19.383  24.319 -0.0424  0.1790 -0.2475
23509W        W66426  26.574  19.659  24.749 -0.1457 -0.0821  0.1383
23510W        W66427  28.371  20.728  25.737  0.0612 -0.2722 -0.0283
23511W        W66428  27.584  21.211  25.537 -0.2553 -0.1004 -0.0282
23512W        W66429  26.296  18.537  28.855 -0.2957 -0.2740 -0.1851
23513W        W66430  27.482  21.750  24.984  0.1663 -0.1362  0.1504
23514W        W66431  24.052  17.987  24.331  0.0118  0.1811 -0.1343
23515W        W66432  23.356  20.292  25.765  0.1451  0.0925  0.2062
23516W        W66433  26.158  19.491  24.939  0.0210  0.1123 -0.1348
23517W        W66434  25.439  19.848  27.766  0.0553  0.1133  0.2696
23518W        W66435  27.778  19.435  27.766 -0.1388 -0.2574  0.3605
23519W        W66436  24.113  20.651  25.683 -0.1955 -0.0713  0.1559
23520W        W66437  26.841  23.717  25.106 -0.1142  0.0775 -0.0551
23521W        W66438  27.638  17.426  25.709 -0.1010  0.0042  0.4613
23522W        W66439  24.612  19.460  25.352 -0.1704 -0.1051 -0.1236
23523W        W66440  25.768  24.192  25.963 -0.0902 -0.2353  0.0352
23524W        W66441  29.083  19.553  23.854 -0.0355  0.4170 -0.0797
23525W        W66442  29.405  21.748  25.611  0.4225  0.0801 -0.0616
23526W        W66443  28.440  20.229  27.071 -0.0324  0.1392 -0.2878
23527W        W66444  26.710  23.536  27.411 -0.1948  0.0196 -0.1900
23528W        W66445  25.013  23.381  23.398  0.0198  0.2692  0.1442
23529W        W66446  25.945  20.268  26.989 -0.1684 -0.0073 -0.0044
23530W        W66447  26.507  21.768  25.858  0.0019  0.0028 -0.1476
23531W        W66448  27.987  18.517  26.998  0.1847 -0.0236  0.0302
23532W        W66449  26.800  19.946  25.933 -0.1911  0.3563  0.0844
23533W        W66450  28.454  21.476  22.993  0.1803 -0.0954  0.2503
23534W        W66451  28.276  20.336  24.117  0.0327  0.2226  0.2615
23535W        W66452  26.294  22.323  26.824  0.1382 -0.3848 -0.0311
23536W        W66453  25.560  20.919  28.519  0.0883  0.1303  0.0281
23537W        W66454  29.004  18.067  28.986 -0.0276 -0.0948 -0.2092
23538W        W66455  26.831  21.194  23.832  0.0543 -0.0267 -0.0616
23539W        W66456  29.281  18.627  25.468 -0.1137  0.3457 -0.1161
23540W        W66457  26.732  20.680  23.325 -0.0914 -0.1025  0.3464
23541W        W66458  27.981  18.916  25.265  0.0365 -0.3101  0.0408
23542W        W66459  27.886  19.656  23.961 -0.1692  0.1266 -0.0186
23543W        W66460  27.226  21.524  24.609  0.4392  0.1496 -0.1387
23544W        W66461  27.146  18.244  27.093 -0.0348 -0.0752 -0.1773
23545W        W66462  25.112  20.638  25.249 -0.1036 -0.3835 -0.1171
23546W        W66463  28.718  22.431  25.502  0.1796 -0.1085 -0.1249
23547W        W66464  25.783  17.859  25.266 -0.3322 -0.2425 -0.2461
23548W        W66465  26.547  21.115  26.838 -0.0968  0.0619  0.0887
23549W        W66466  26.512  21.682  25.336  0.1486  0.3347 -0.2118
23550W        W66467  27.267  19.483  25.706 -0.2681  0.1414 -0.0251
23551W        W66468  27.313  21.008  27.600 -0.2390 -0.0675  0.2561
23552W        W66469  27.309  21.377  23.716 -0.0481 -0.2317  0.3071
23553W        W66470  24.435  19.127  24.318  0.3771  0.0350 -0.2854
23554W        W66471  26.241  19.312  24.491  0.1389  0.0634  0.1038
23555W        W66472  24.089  18.841  26.342  0.1059  0.1652 -0.0225
23556W        W66473  28.165  17.023  22.855 -0.0721 -0.0902 -0.1866
23557W        W66474  29.453  22.060  29.221  0.2779 -0.0584  0.0861
23558W        W66475  23.314  19.575  25.966  0.3128 -0.1642 -0.0213
23559W        W66476  27.837  16.416  24.870  0.2127  0.0397  0.0017
23560W        W66477  25.558  19.669  25.816  0.0160  0.2696  0.1732
23561W        W66478  29.091  20.193  25.934 -0.2784 -0.1290  0.0743
23562W        W66479  28.255  22.075  24.616 -0.0821 -0.1511  0.3030
23563W        W66480  26.512  17.652  24.796  0.1176  0.5271  0.2524
23564W        W66481  27.573  20.626  27.165 -0.0091  0.1522  0.2206
23565W        W66482  27.511  20.661  23.678 -0.0742 -0.2102  0.0559
23566W        W66483  27.504  19.106  23.824  0.1638  0.2101 -0.1981
23567W        W66484  26.658  20.793  25.623  0.2022  0.2323 -0.1867
23568W        W66485  28.835  18.891  25.513  0.3294 -0.2912  0.1403
23569W        W66486  23.889  21.431  25.349 -0.0101 -0.0108  0.1435
23570W        W66487  28.039  19.305  27.150 -0.1050  0.1195 -0.0984
23571W        W66488  26.897  21.242  29.259  0.0924  0.1168  0.0084
23572W        W66489  26.293  23.012  24.013 -0.0972 -0.0457  0.0135
23573W        W66490  24.341  20.936  26.666 -0.1625 -0.1802 -0.0143
23574W        W66491  26.339  22.335  22.855 -0.1003  0.3024  0.0620
23575W        W66492  25.301  19.417  25.521  0.0986  0.0049 -0.1690
23576W        W66493  27.186  21.450  25.239 -0.1720  0.2039  0.0109
23577W        W66494  28.763  18.822  26.896  0.4282 -0.0041 -0.2919
23578W        W66495  27.494  17.159  26.735 -0.2932 -0.1511 -0.2029
23579W        W66496  29.068  16.170  26.677 -0.2093 -0.2174  0.0492
23580W        W66497  26.592  19.310  25.122 -0.1266 -0.2851 -0.0632
23581W        W66498  27.965  22.717  25.909 -0.1745 -0.2737  0.0573
23582W        W66499  28.918  21.284  25.243 -0.0116 -0.2909  0.2988
23583W        W66500  29.441  22.211  24.784  0.1424  0.1523 -0.0301
23584W        W66501  25.198  18.090  26.337  0.1398  0.0247  0.2858
23585W        W66502  24.062  19.740  26.399  0.1122  0.0619 -0.0080
23586W        W66503  26.860  19.699  27.353  0.0448  0.0344  0.1568
23587W        W66504  24.532  17.888  25.658  0.0406 -0.0145 -0.1124
23588W        W66505  29.723  18.889  26.551 -0.0120  0.0312 -0.2628
23589W        W66506  26.170  18.438  24.751  0.0078 -0.2572  0.0334
23590W        W66507  29.228  20.381  24.345  0.0737 -0.0177 -0.3419
23591W        W66508  28.010  20.660  24.412  0.0446 -0.0576 -0.0909
23592W        W66509  23.112  21.250  22.134 -0.3710  0.1914 -0.1948
23593W        W66510  27.625  19.104  26.143 -0.2973  0.1950  0.0943
23594W        W66511  29.623  22.295  25.611  0.1068 -0.0622  0.0303
23595W        W66512  27.785  20.778  25.775  0.1534 -0.0118  0.1026
23596W        W66513  27.270  22.758  25.155 -0.0600 -0.2341 -0.0411
23597W        W66514  23.044  21.445  26.916  0.3442 -0.0295  0.0125
23598W        W66515  24.582  17.363  25.772  0.1821 -0.0116  0.3546
23599W        W66516  24.658  22.604  24.585  0.1131 -0.1167 -0.1061
23600W        W66517  26.252  22.500  24.898 -0.1064 -0.2613 -0.0655
23601W        W66518  24.883  17.359  24.624 -0.0048 -0.0769 -0.2111
23602W        W66519  29.112  22.243  25.669 -0.1632  0.0154 -0.0170
23603W        W66520  26.560  19.063  26.775 -0.2727 -0.1693 -0.2508
23604W        W66521  26.166  21.791  26.178  0.2232 -0.1196  0.0583
23605W        W66522  27.436  18.966  28.555  0.2107 -0.3344  0.0299
23606W        W66523  30.856  18.106  28.493 -0.1840 -0.0370 -0.1384
23607W        W66524  26.923  19.142  25.513  0.1134  0.2294 -0.0381
23608W        W66525  24.757  17.711  22.535  0.2445 -0.1454  0.1665
23609W        W66526  27.093  21.024  25.474 -0.4626 -0.0380  0.0427
23610W        W66527  24.820  21.855  24.118 -0.2463  0.0534  0.3356
23611W        W66528  24.973  22.757  23.759 -0.2833  0.0392 -0.2034
23612W        W66529  27.202  21.095  24.884 -0.2478  0.0763  0.2482
23613W        W66530  28.425  20.094  25.057  0.1471 -0.4111 -0.3533
23614W        W66531  25.086  18.920  26.110 -0.2086 -0.2711 -0.2257
23615W        W66532  25.935  19.842  26.761  0.1331  0.0036  0.0815
23616W        W66533  26.131  18.422  23.832 -0.0945  0.0357 -0.2252
23617W        W66534  23.263  22.155  24.281 -0.0247 -0.0231 -0.1618
23618W        W66535  25.493  18.572  26.388  0.2669  0.1330  0.0133
23619W        W66536  29.295  20.290  26.358 -0.2230 -0.3150 -0.2063
23620W        W66537  26.025  20.683  28.049 -0.2032 -0.0529 -0.0064
23621W        W66538  29.722  19.713  26.488  0.2202  0.0605 -0.1710
23622W        W66539  26.978  17.315  25.003  0.0766 -0.2200  0.1210
23623W        W66540  28.759  17.324  25.054  0.0114 -0.3459 -0.2925
23624W        W66541  25.664  20.820  25.021 -0.0205  0.0349  0.1420
23625W        W66542  26.748  20.638  26.729 -0.0796  0.2420  0.3013
23626W        W66543  25.581  20.768  27.174  0.1165  0.0085 -0.1387
23627W        W66544  27.300  21.883  22.802  0.1554 -0.0335 -0.1715
23628W        W66545  29.770  22.322  25.127 -0.0535  0.1339 -0.1122
23629W        W66546  27.059  20.023  25.087 -0.0122  0.1369  0.0147
23630W        W66547  27.611  21.824  28.700 -0.2589  0.2770 -0.1527
23631W        W66548  28.050  20.901  25.359 -0.2107 -0.0186 -0.1807
23632W        W66549  27.485  18.359  25.786  0.0886 -0.3503  0.2037
23633W        W66550  27.974  20.141  23.732  0.2282  0.2878  0.2670
23634W        W66551  24.144  19.712  26.944 -0.3816  0.0314 -0.0770
23635W        W66552  24.323  21.564  23.547  0.0861 -0.2739  0.1945
23636W        W66553  29.749  18.872  26.066 -0.0569  0.0625  0.2705
23637W        W66554  28.797  18.050  26.264 -0.1166  0.2338  0.0969
23638W        W66555  28.506  18.342  26.923  0.1185 -0.0644  0.2537
23639W        W66556  29.189  19.220  28.614 -0.3323 -0.0681 -0.0458
23640W        W66557  29.044  18.572  25.907 -0.0308  0.0502  0.1132
23641W        W66558  29.065  20.014  26.887 -0.0746  0.0986  0.3039
23642W        W66559  25.117  17.591  24.219  0.3170 -0.0477 -0.1776
23643W        W66560  27.473  18.735  28.987  0.0893  0.3604  0.0237
23644W        W66561  23.399  18.397  29.847 -0.1179 -0.1721 -0.0760
23645W        W66562  24.315  21.582  27.203 -0.3635 -0.0048  0.1619
23646W        W66563  27.145  20.538  27.475  0.4285  0.3829 -0.2323
23647W        W66564  28.355  19.938  26.564 -0.1957  0.0261  0.2593
23648W        W66565  27.193  18.401  24.828  0.0243 -0.0329 -0.0081
23649W        W66566  26.932  18.513  25.969 -0.1171  0.0244  0.3084
23650W        W66567  27.110  20.794  23.979 -0.0471 -0.4429 -0.0318
23651W        W66568  26.743  21.878  22.155  0.3155 -0.0394 -0.1473
23652W        W66569  25.331  17.290  26.172  0.0871 -0.4059  0.4905
23653W        W66570  28.362  20.586  26.512 -0.2850 -0.1426  0.1910
23654W        W66571  27.006  21.980  24.491 -0.3654 -0.1405 -0.0201
23655W        W66572  26.882  19.265  26.426  0.5015  0.0661 -0.0183
23656W        W66573  25.536  22.571  22.121 -0.0719 -0.0129 -0.1377
23657W        W66574  29.047  19.329  26.936 -0.2703  0.1020 -0.3012
23658W        W66575  24.804  19.412  26.232 -0.2325  0.2354 -0.1749
23659W        W66576  26.062  19.046  25.335 -0.3927 -0.1552 -0.3217
23660W        W66577  24.200  19.545  28.338 -0.3049  0.0992 -0.2128
23661W        W66578  27.515  17.752  25.339 -0.1871  0.0502 -0.0702
23662W        W66579  29.343  22.055  25.223  0.0790  0.1017 -0.0956
23663W        W66580  27.137  19.412  25.137 -0.1671 -0.0946  0.2261
23664W        W66581  29.344  17.577  25.130  0.0736  0.1126 -0.1152
23665W        W66582  23.039  19.944  25.907  0.0105  0.0245  0.1027
23666W        W66583  26.354  19.359  26.261 -0.2174  0.2013  0.0498
23667W        W66584  29.308  17.254  25.560 -0.0825  0.0490  0.1233
23668W        W66585  27.964  20.260  26.868  0.0711 -0.0080  0.1709
23669W        W66586  28.244  18.332  28.629 -0.3268  0.1725  0.4107
23670W        W66587  25.254  18.755  24.824  0.1581 -0.0165  0.1894
23671W        W66588  27.127  18.965  26.058 -0.1804 -0.2076  0.0877
23672W        W66589  27.337  19.558  23.806 -0.1755 -0.4800 -0.0301
23673W        W66590  26.023  21.836  24.350  0.1662 -0.3181  0.0812
23674W        W66591  26.981  22.712  26.053  0.3776 -0.0603 -0.1784
23675W        W66592  27.607  21.029  24.035  0.3925  0.2611  0.0579
23676W        W66593  26.058  22.330  24.418  0.2268  0.0279 -0.1004
23677W        W66594  25.330  19.345  26.189 -0.2776  0.1623 -0.0692
23678W        W66595  26.884  19.698  26.841 -0.1503  0.0320  0.2033
23679W        W66596  25.120  20.107  24.910  0.1838  0.1021 -0.0012
23680W        W66597  26.468  18.895  27.278 -0.0848  0.1903 -0.4416
23681W        W66598  24.787  19.155  24.964  0.0063  0.0947  0.0840
23682W        W66599  27.357  20.890  28.085  0.1215  0.3338  0.0136
23683W        W66600  25.460  19.010  25.753  0.1490 -0.2257 -0.0016
23684W        W66601  26.140  19.875  24.620  0.2845  0.3484 -0.0196
23685W        W66602  25.287  17.941  25.399  0.3817 -0.2027  0.2970
23686W        W66603  28.415  23.998  24.844  0.3031  0.0643 -0.0346
23687W        W66604  26.499  19.627  28.998  0.1295 -0.0125  0.1841
23688W        W66605  26.249  19.820  25.805  0.0588 -0.0240  0.0524
23689W        W66606  26.728  20.118  24.519  0.0709 -0.0359 -0.0969
23690W        W66607  26.397  20.356  23.548 -0.0235  0.0464  0.1336
23691W        W66608  26.299  18.974  25.933  0.2120  0.1887 -0.4142
23692W        W66609  27.134  20.881  27.075 -0.0092  0.3182 -0.0187
23693W        W66610  26.243  20.143  24.204  0.1483  0.1123 -0.3155
23694W        W66611  24.337  21.986  24.912  0.2524  0.0458  0.0869
23695W        W66612  26.954  17.451  26.030 -0.3114  0.0067  0.1247
23696W        W66613  26.550  22.205  25.139  0.2030  0.1619 -0.3001
23697W        W66614  29.382  21.691  26.818  0.1613 -0.3284  0.3733
23698W        W66615  28.625  18.127  27.344 -0.0556  0.1457  0.1048
23699W        W66616  27.726  20.664  24.878 -0.0741 -0.0021  0.2016
23700W        W66617  27.315  19.183  27.706 -0.1239  0.0843  0.0670
23701W        W66618  25.297  16.964  25.708  0.0334  0.1655  0.0038
23702W        W66619  28.874  21.241  26.498 -0.0476 -0.2071 -0.0084
23703W        W66620  24.693  19.049  27.429  0.3140 -0.0722 -0.1202
23704W        W66621  26.388  20.231  26.077  0.0985 -0.0779  0.1231
23705W        W66622  25.873  21.055  27.706 -0.3137  0.0124 -0.0596
23706W        W66623  28.491  19.059  25.167  0.1336 -0.0589 -0.0837
23707W        W66624  25.483  16.768  24.913 -0.1938  0.2478 -0.0024
23708W        W66625  26.614  21.166  25.207 -0.0086 -0.0774 -0.2005
23709W        W66626  27.399  21.518  27.377  0.2341 -0.0186  0.1084
23710W        W66627  27.570  19.776  25.458  0.1023  0.0242 -0.0738
23711W        W66628  27.708  20.558  27.753  0.1169  0.2640  0.1914
23712W        W66629  26.782  19.195  24.551 -0.1737 -0.0891 -0.1861
23713W        W66630  27.828  22.131  24.989  0.2214 -0.4045 -0.1322
23714W        W66631  26.312  21.540  23.644  0.3256  0.2739  0.1723
23715W        W66632  27.742  22.223  25.605  0.0999  0.0492  0.2354
23716W        W66633  25.372  18.052  26.817  0.2528 -0.2034 -0.2833
23717W        W66634  29.808  21.013  26.092 -0.2605  0.0316  0.2758
23718W        W66635  25.927  18.533  26.675  0.2256  0.1518  0.3933
23719W        W66636  26.878  19.687  25.463 -0.0434  0.1771  0.1073
23720W        W66637  28.059  19.794  25.649 -0.2201 -0.1958  0.0223
23721W        W66638  24.982  20.879  27.824 -0.1009  0.3605 -0.4200
23722W        W66639  24.861  19.253  28.482  0.2046 -0.3020 -0.3208
23723W        W66640  27.228  19.987  26.611 -0.0886  0.2972 -0.1604
23724W        W66641  28.019  18.957  23.903 -0.1839 -0.0780  0.0707
23725W        W66642  28.955  19.127  25.087  0.1724 -0.0552 -0.0163
23726W        W66643  28.763  21.890  24.773 -0.2254 -0.2708 -0.1524
23727W        W66644  27.949  19.984  25.213 -0.2450 -0.1801 -0.0125
23728W        W66645  25.051  19.032  23.954  0.0549 -0.0147 -0.3962
23729W        W66646  27.926  20.220  27.401 -0.0401  0.3399  0.1389
23730W        W66647  26.349  18.732  23.363 -0.0328 -0.1037 -0.0164
23731W        W66648  26.503  18.177  27.208 -0.1256 -0.2376  0.0567
23732W        W66649  28.858  21.889  25.307 -0.0396  0.0713  0.0197
23733W        W66650  25.607  20.484  29.180 -0.2638  0.1149 -0.0008
23734W        W66651  27.268  18.177  25.366 -0.2226 -0.0071  0.3803
23735W        W66652  26.776  20.445  25.977 -0.1989 -0.1331 -0.2550
23736W        W66653  25.869  21.024  26.867  0.0717 -0.2232  0.3391
23737W        W66654  25.322  19.093  24.427 -0.1229 -0.0677  0.2870
23738W        W66655  26.538  20.335  25.508 -0.0905 -0.3552 -0.0048
23739W        W66656  28.878  20.595  25.703  0.0486 -0.0387  0.1480
23740W        W66657  28.301  20.135  29.409  0.2357  0.3420 -0.1394
23741W        W66658  26.433  19.358  25.610  0.2671  0.2748  0.3053
23742W        W66659  24.209  17.935  26.513  0.0426  0.0505 -0.1417
23743W        W66660  25.493  21.333  23.734 -0.1877  0.1058 -0.0928
23744W        W66661  27.454  18.857  25.625  0.1902  0.0422 -0.0055
23745W        W66662  26.506  22.986  25.287  0.2141  0.0527 -0.1023
23746W        W66663  25.334  21.174  28.033 -0.0744  0.1351 -0.0671
23747W        W66664  26.237  21.252  25.991  0.1757 -0.0579  0.1002
23748W        W66665  26.229  18.074  27.954 -0.3129 -0.3349  0.1779
23749W        W66666  26.976  18.634  25.465 -0.2749  0.1136 -0.1578
23750W        W66667  25.736  19.846  24.236 -0.3145 -0.2648  0.0003
23751W        W66668  29.378  21.081  29.171  0.2519 -0.1201  0.0509
23752W        W66669  27.643  22.382  26.168  0.0561 -0.2766  0.1404
23753W        W66670  27.155  20.118  27.710  0.0141  0.2447 -0.1523
23754W        W66671  26.882  19.142  27.474 -0.2410  0.0949 -0.1645
23755W        W66672  28.516  20.383  26.128 -0.0726  0.1841 -0.1618
23756W        W66673  27.829  20.227  24.221 -0.2257 -0.0121  0.0535
23757W        W66674  25.090  18.472  25.611  0.0360  0.4174  0.0147
23758W        W66675  24.981  19.692  25.739 -0.1976  0.0139  0.0230
23759W        W66676  28.270  20.648  24.898 -0.1822  0.0913  0.0444
23760W        W66677  25.697  19.484  24.651 -0.3197  0.0578 -0.0856
23761W        W66678  26.674  20.562  23.957  0.0851  0.1433  0.0602
23762W        W66679  26.384  21.238  27.618 -0.1073  0.2185 -0.0064
23763W        W66680  25.651  20.286  27.761 -0.3258  0.0481 -0.0779
23764W        W66681  25.423  21.800  24.558 -0.1899  0.0561 -0.0160
23765W        W66682  27.388  20.411  26.752 -0.0638  0.0076 -0.1333
23766W        W66683  28.022  20.947  26.318 -0.0980 -0.0109 -0.2044
23767W        W66684  28.401  21.793  27.199 -0.3534  0.1216  0.0234
23768W        W66685  25.513  18.926  23.947 -0.0657  0.0693  0.0288
23769W        W66686  26.241  21.440  24.986  0.0537 -0.3707 -0.0935
23770W        W66687  24.357  21.966  23.918  0.0650  0.0312 -0.3250
23771W        W66688  31.018  22.457  23.949  0.2038 -0.1192 -0.2455
23772W        W66689  27.438  21.889  23.361 -0.1565  0.0107  0.0770
23773W        W66690  30.179  20.523  28.452  0.1806 -0.0677 -0.3053
23774W        W66691  27.788  19.820  24.575  0.2082 -0.1343 -0.1553
23775W        W66692  29.768  20.590  27.955 -0.1730  0.0483 -0.0949
23776W        W66693  28.927  20.279  25.300 -0.2749 -0.0384 -0.0098
23777W        W66694  25.833  21.157  28.211  0.0834 -0.4430  0.0229
23778W        W66695  24.314  20.272  24.666  0.3101 -0.4244  0.2101
23779W        W66696  27.070  19.876  23.529  0.1478 -0.0117 -0.1926
23780W        W66697  25.116  20.681  26.940 -0.0529  0.0266 -0.2250
23781W        W66698  27.499  19.210  27.240 -0.2868  0.0476  0.1257
23782W        W66699  25.500  19.859  26.974  0.0725 -0.1464  0.2831
23783W        W66700  30.382  23.040  24.894  0.2463 -0.1119  0.2751
23784W        W66701  25.878  16.749  25.623 -0.0622 -0.1105  0.3542
23785W        W66702  24.544  19.871  25.009  0.0065  0.0002 -0.3094
23786W        W66703  28.243  19.528  27.537 -0.0778 -0.0192 -0.0926
23787W        W66704  27.430  19.908  24.241  0.1189  0.0805  0.0010
23788W        W66705  26.136  19.815  26.305 -0.2510 -0.2123  0.2611
23789W        W66706  23.724  22.409  24.457  0.0131  0.1547  0.6069
23790W        W66707  27.509  20.986  26.487 -0.0177 -0.2665 -0.0556
23791W        W66708  27.417  23.078  24.697 -0.1835  0.0386 -0.2278
23792W        W66709  23.283  17.641  23.894 -0.2417 -0.0912 -0.1614
23793W        W66710  30.370  20.593  25.843 -0.0128  0.0651  0.0718
23794W        W66711  24.588  20.361  24.035 -0.4468 -0.2206  0.1363
23795W        W66712  28.097  18.924  26.178  0.1528  0.0933 -0.1857
23796W        W66713  24.157  20.618  23.783 -0.0713  0.4335 -0.1769
23797W        W66714  28.697  18.993  25.991 -0.2101 -0.2648  0.1902
23798W        W66715  25.449  20.549  28.105  0.1978 -0.1294 -0.3310
23799W        W66716  25.254  19.565  26.669 -0.0527  0.1953 -0.0985
23800W        W66717  25.965  19.336  26.532 -0.1127 -0.2422 -0.0829
23801W        W66718  29.828  19.549  27.962  0.1894  0.2752  0.0351
23802W        W66719  27.712  21.178  24.999  0.0013  0.1770 -0.5335
23803W        W66720  29.848  21.519  27.960  0.0163 -0.3213  0.0780
23804W        W66721  26.395  20.180  24.912 -0.3139 -0.2937 -0.2210
23805W        W66722  26.224  17.399  24.503  0.2580  0.0954  0.0997
23806W        W66723  25.577  22.256  24.228  0.0227 -0.2307 -0.0927
23807W        W66724  25.532  20.924  25.587  0.0878  0.3916 -0.1761
23808W        W66725  27.461  21.594  26.870 -0.0694  0.2714 -0.1538
23809W        W66726  24.901  17.024  25.992  0.0273 -0.1144 -0.0019
23810W        W66727  29.102  21.890  24.410  0.1133  0.0360  0.2266
23811W        W66728  29.252  19.492  25.426  0.2095  0.2231  0.2538
23812W        W66729  26.011  20.883  25.414  0.0658  0.0800 -0.0431
23813W        W66730  28.680  22.012  27.953 -0.0549  0.3404 -0.1974
23814W        W66731  28.500  21.504  25.441 -0.1793 -0.2184  0.3017
23815W        W66732  23.958  19.487  24.166 -0.1777 -0.0238  0.1592
23816W        W66733  26.437  18.766  25.498 -0.0799 -0.2658  0.1274
23817W        W66734  28.398  21.103  26.631  0.0271  0.2668 -0.0036
23818W        W66735  27.032  19.203  24.093 -0.0742  0.0190  0.2540
23819W        W66736  27.472  19.782  24.965  0.3494  0.3270  0.1466
23820W        W66737  24.880  23.024  22.960 -0.4372 -0.0341  0.0523
23821W        W66738  29.393  19.823  25.778 -0.0337 -0.1697 -0.0653
23822W        W66739  26.789  18.186  25.610 -0.1366  0.0835 -0.1413
23823W        W66740  24.787  22.313  24.080  0.0335  0.0340  0.1854
23824W        W66741  25.992  18.481  28.086 -0.0643 -0.0263  0.2027
23825W        W66742  26.644  19.721  26.374  0.0302  0.0705  0.1111
23826W        W66743  25.301  22.022  30.105  0.1016  0.1242 -0.0355
23827W        W66744  26.582  22.191  23.310 -0.4195  0.2232  0.1836
23828W        W66745  25.070  20.504  26.370 -0.3582 -0.3608 -0.1362
23829W        W66746  29.738  20.996  25.557 -0.1398  0.0696  0.0320
23830W        W66747  27.094  22.355  24.832  0.2492  0.3786  0.1601
23831W        W66748  28.885  22.724  25.867  0.1354 -0.2011  0.0260
23832W        W66749  27.767  19.355  24.815 -0.3216  0.2902 -0.0724
23833W        W66750  31.513  21.702  26.112  0.1032  0.2857  0.2063
23834W        W66751  27.553  16.970  24.677 -0.0669 -0.4728 -0.0599
23835W        W66752  28.016  18.494  24.954  0.0320 -0.0172 -0.0870
23836W        W66753  28.291  17.002  25.322 -0.0331 -0.3659 -0.1084
23837W        W66754  28.118  20.438  25.378  0.0793  0.1986 -0.1213
23838W        W66755  24.596  20.665  24.378  0.0802  0.0832  0.1221
23839W        W66756  27.059  21.571  24.124  0.2853 -0.1679 -0.1380
23840W        W66757  26.024  20.686  25.959  0.0749  0.0641  0.0021
23841W        W66758  27.125  18.275  28.961  0.1735 -0.1405 -0.2615
23842W        W66759  27.074  17.414  26.556 -0.1714 -0.0304 -0.0080
23843W        W66760  24.739  19.276  26.749 -0.4386 -0.0884  0.2312
23844W        W66761  25.313  17.593  26.581  0.2383 -0.1825  0.0649
23845W        W66762  28.767  21.404  26.999  0.1543 -0.0100 -0.0989
23846W        W66763  26.782  19.534  23.686  0.0136  0.1610  0.1513
23847W        W66764  26.397  20.614  24.474  0.2253 -0.1486  0.5286
23848W        W66765  26.797  20.204  26.430  0.0673  0.2752  0.2177
23849W        W66766  28.325  21.715  23.799  0.1911 -0.1487 -0.0345
23850W        W66767  27.919  18.245  25.546 -0.1968  0.0419  0.0990
23851W        W66768  28.969  20.410  28.425  0.2828  0.2332  0.0482
23852W        W66769  24.449  21.421  24.967 -0.0997  0.0539 -0.1087
23853W        W66770  27.337  20.739  28.597 -0.1280  0.1502 -0.1857
23854W        W66771  26.642  17.342  27.972  0.0745  0.0599  0.0763
23855W        W66772  23.953  20.692  25.029  0.2035 -0.1601 -0.0125
23856W        W66773  28.420  18.844  26.534 -0.1498  0.0338  0.1174
23857W        W66774  27.018  23.212  25.972  0.1427 -0.0589  0.1204
23858W        W66775  29.665  21.818  24.476 -0.0904  0.0479  0.2803
23859W        W66776  24.878  20.174  25.945  0.1259 -0.2311 -0.0885
23860W        W66777  26.194  20.651  26.841 -0.4050 -0.1056 -0.2526
23861W        W66778  25.682  18.084  27.899 -0.1697  0.1715 -0.1105
23862W        W66779  27.233  20.591  24.891  0.3212 -0.1292 -0.0113
23863W        W66780  27.358  22.013  26.544 -0.0141 -0.0781 -0.0797
23864W        W66781  30.035  20.584  25.380  0.0406  0.0532  0.1645
23865W        W66782  27.481  18.536  26.221 -0.1435  0.2843  0.2427
23866W        W66783  28.272  21.820  25.045 -0.0879 -0.4047 -0.2641
23867W        W66784  26.765  18.050  26.802 -0.0817 -0.0678  0.1348
23868W        W66785  25.254  21.517  26.083  0.2207  0.1642  0.2710
23869W        W66786  29.739  19.659  28.752 -0.0616  0.0138 -0.0647
23870W        W66787  25.919  18.504  26.150  0.0094  0.0499 -0.0424
23871W        W66788  27.865  17.493  26.580 -0.4686 -0.3550 -0.4330
23872W        W66789  26.588  22.782  23.628 -0.2363  0.0212  0.0046
23873W        W66790  27.320  19.297  24.686  0.0081 -0.0417  0.0791
23874W        W66791  26.822  19.394  25.957  0.2594 -0.2188  0.1093
23875W        W66792  27.688  18.913  26.834 -0.1286  0.0955  0.3664
23876W        W66793  27.507  21.756  25.508  0.0171  0.0478 -0.0732
23877W        W66794  25.226  19.013  26.560  0.2681 -0.2400  0.2641
23878W        W66795  27.660  20.312  25.719 -0.1528  0.0595 -0.0514
23879W        W66796  29.936  19.770  25.905  0.1301 -0.0184 -0.1761
23880W        W66797  29.385  22.852  27.184  0.3542 -0.1820 -0.0463
23881W        W66798  26.377  20.141  26.714  0.0116  0.3101 -0.1810
23882W        W66799  25.356  23.238  26.152 -0.2168  0.2383  0.0250
23883W        W66800  28.577  21.446  26.023 -0.0154  0.1367 -0.1297
23884W        W66801  25.790  17.646  26.323 -0.2611 -0.1703 -0.0398
23885W        W66802  26.563  21.036  24.266 -0.1244 -0.3971 -0.0779
23886W        W66803  26.949  21.015  26.014  0.3541 -0.5390  0.1121
23887W        W66804  28.180  18.998  24.815  0.1022 -0.0632  0.1937
23888W        W66805  25.305  18.530  26.889  0.2914  0.0558  0.2007
23889W        W66806  26.808  20.397  24.909 -0.4090 -0.0326  0.0425
23890W        W66807  25.860  21.855  27.132 -0.2566  0.1836  0.3739
23891W        W66808  29.230  20.822  27.145 -0.2134  0.1535  0.3816
23892W        W66809  26.333  20.432  29.352 -0.2769 -0.0336 -0.0037
23893W        W66810  25.942  19.130  27.413  0.2909  0.1004 -0.2317
23894W        W66811  27.481  17.900  27.373 -0.0858  0.0080  0.0066
23895W        W66812  30.354  21.654  29.373  0.1143 -0.2428 -0.0309
23896W        W66813  24.154  19.532  27.767 -0.1577 -0.2836 -0.0624
23897W        W66814  26.882  19.799  27.932 -0.2489  0.2768 -0.0090
23898W        W66815  26.036  19.010  29.832  0.3463  0.1098  0.2386
23899W        W66816  27.268  21.744  29.969 -0.1713  0.0018 -0.3383
23900W        W66817  27.784  20.115  29.484 -0.2386  0.1614 -0.0203
23901W        W66818  28.773  19.678  26.644  0.1791  0.1696 -0.1910
23902W        W66819  27.576  20.509  30.219  0.3613 -0.1842 -0.2030
23903W        W66820  26.532  21.683  30.545  0.0741 -0.1569 -0.2337
23904W        W66821  25.998  19.528  28.999  0.1080  0.4813  0.0595
23905W        W66822  24.289  18.502  29.884 -0.5157 -0.0741  0.0125
23906W        W66823  28.196  20.306  30.817 -0.0827 -0.0659  0.0464
23907W        W66824  26.179  17.762  27.226  0.0222  0.0545  0.1612
23908W        W66825  26.575  18.504  28.122  0.0406 -0.2275  0.0738
23909W        W66826  27.800  18.989  28.078 -0.0148 -0.0004  0.2765
23910W        W66827  25.423  20.678  27.654  0.1736  0.0068  0.1795
23911W        W66828  26.374  19.851  30.756 -0.2009  0.3256 -0.1703
23912W        W66829  27.219  20.693  31.387 -0.0240  0.1133  0.0295
23913W        W66830  26.842  20.848  30.106  0.0391  0.1239  0.3191
23914W        W66831  24.699  20.506  26.681  0.1089  0.2654  0.1424
23915W        W66832  25.361  20.153  25.847  0.1609 -0.0597  0.3215
23916W        W66833  24.737  19.753  28.384  0.0185 -0.0656  0.2518
23917W        W66834  27.226  20.517   0.104  0.0474  0.2188  0.1147
23918W        W66835  28.270  19.540  30.335 -0.1981 -0.1209  0.2612
23919W        W66836  26.935  21.963  27.995 -0.0951 -0.2264 -0.0616
23920W        W66837  27.830  21.563  31.506 -0.0010  0.0980 -0.1212
23921W        W66838  27.416  21.037   0.407 -0.0522  0.0397 -0.4927
23922W        W66839  24.640  20.277  27.759  0.0514 -0.1692 -0.0434
23923W        W66840  22.844  21.650  28.081  0.3365  0.0131 -0.2730
23924W        W66841  26.776  21.042  27.808 -0.1447  0.3199 -0.1155
23925W        W66842  31.702  20.717  27.600  0.0039  0.0673  0.0188
23926W        W66843  26.546  21.449  31.636 -0.5056 -0.0120  0.5802
23927W        W66844  28.194  20.945   0.077  0.1631  0.0943  0.0478
23928W        W66845  25.453  20.109  29.561 -0.0889 -0.0730 -0.5918
23929W        W66846  26.956  21.766  31.479  0.0852  0.5866  0.0070
23930W        W66847  24.794  21.934  29.027  0.0595 -0.1503  0.3040
23931W        W66848  26.766  21.805  29.940 -0.1626 -0.3001 -0.0343
23932W        W66849  27.217  20.902  30.481 -0.2512 -0.0557  0.2646
23933W        W66850  26.183  18.882  26.502  0.1546 -0.0818  0.1229
23934W        W66851  26.693  19.291  28.055 -0.3030 -0.1340 -0.1873
23935W        W66852  25.263  20.582  29.731  0.3644 -0.5376  0.0550
23936W        W66853  26.090  20.506  30.296 -0.1436  0.1886 -0.5477
23937W        W66854  28.221  18.650   0.612 -0.1901  0.1962  0.1163
23938W        W66855  24.285  20.033  28.102 -0.1042 -0.1494 -0.3014
23939W        W66856  28.219  18.807  28.394  0.0661 -0.3572 -0.0605
23940W        W66857  25.864  20.164  26.021  0.1616  0.1384  0.2098
23941W        W66858  28.343  19.381  29.115 -0.3124  0.1688 -0.3980
23942W        W66859  26.948  17.097  29.210 -0.0509 -0.2039  0.2245
23943W        W66860  24.766  22.032  30.112 -0.0448 -0.0209  0.2319
23944W        W66861  24.063  18.862  29.042 -0.2268 -0.1190  0.0379
23945W        W66862  27.695  20.300  30.624  0.2269 -0.0936  0.0369
23946W        W66863  26.771  20.649  29.177  0.1100  0.2024  0.1824
23947W        W66864  28.124  19.098  31.659  0.4788  0.1309 -0.0662
23948W        W66865  26.091  22.851  29.372  0.0296 -0.0275  0.2989
23949W        W66866  26.397  19.932  27.180 -0.1070 -0.3372 -0.0183
23950W        W66867  29.413  20.019  28.897 -0.1657 -0.0435 -0.0884
23951W        W66868  28.554  22.624  27.727 -0.4505  0.1770  0.0527
23952W        W66869  27.912  19.925  27.787  0.1694 -0.0984 -0.1567
23953W        W66870  25.836  19.080  29.043 -0.2202 -0.1070 -0.1119
23954W        W66871  27.056  20.420  30.600 -0.0638 -0.2415 -0.2561
23955W        W66872  24.276  19.507  31.783  0.1614  0.1127  0.1970
23956W        W66873  26.672  18.209  27.715 -0.0472  0.0630 -0.0923
23957W        W66874  27.690  19.739  29.813  0.0654  0.1585 -0.1597
23958W        W66875  24.571  22.468  30.235 -0.3510  0.1370  0.1250
23959W        W66876  29.619  17.941  29.062 -0.1060 -0.2940  0.1932
23960W        W66877  25.627  20.202  28.787 -0.1082  0.0305 -0.2114
23961W        W66878  26.997  21.464  30.312  0.1605  0.1537 -0.2301
23962W        W66879  28.892  20.995  28.258  0.2363  0.0814  0.2956
23963W        W66880  26.787  20.135  29.128  0.0831  0.1004 -0.1305
23964W        W66881  27.708  20.406  29.039  0.1443 -0.1736  0.1146
23965W        W66882  25.652  20.448  25.625  0.0786  0.3013 -0.2397
23966W        W66883  26.706  18.452  29.157  0.0009  0.0543 -0.0530
23967W        W66884  28.437  21.316  28.731  0.0331  0.2014  0.3147
23968W        W66885  28.897  21.360  29.093 -0.0325  0.1810  0.2051
23969W        W66886  23.250  20.120  30.732  0.0854  0.2504  0.2457
23970W        W66887  27.703  19.026  30.871 -0.1953 -0.3178  0.0640
23971W        W66888  27.478  20.258  31.179 -0.2920 -0.0858 -0.2328
23972W        W66889  26.443  22.374  28.544 -0.2600 -0.0342  0.1057
23973W        W66890  25.596  21.646  30.181 -0.3446  0.1189  0.1961
23974W        W66891  24.607  21.927  26.964 -0.1451 -0.1122  0.2016
23975W        W66892  25.033  19.251  30.192  0.0548 -0.1680 -0.0131
23976W        W66893  26.606  21.466  28.795  0.0738  0.1001 -0.0553
23977W        W66894  28.843  19.180  27.888 -0.1267  0.1058 -0.0010
23978W        W66895  26.655  17.604  31.340  0.0663 -0.0707 -0.1484
23979W        W66896  29.871  18.214  28.285  0.0239  0.0193  0.1452
23980W        W66897  28.316  19.716  28.045  0.0792  0.0195  0.1091
23981W        W66898  30.729  20.891  29.946  0.0601 -0.0730  0.0835
23982W        W66899  28.878  20.161  27.591 -0.2424 -0.0612  0.1884
23983W        W66900  27.796  20.688  28.291  0.3530  0.0651 -0.1691
23984W        W66901  25.360  19.428  29.471 -0.0618  0.0914 -0.0346
23985W        W66902  26.536  20.475  29.961  0.3339  0.3356 -0.0803
23986W        W66903  26.232  18.235   0.952 -0.1201  0.2043 -0.0168
23987W        W66904  26.930  19.567  30.330 -0.1788 -0.3848 -0.3008
23988W        W66905  27.624  22.108  30.887 -0.1708  0.0763  0.0331
23989W        W66906  24.253  19.360  27.300 -0.0631 -0.0367 -0.1314
23990W        W66907  25.859  18.584  29.460 -0.0462  0.0381  0.1796
23991W        W66908  27.279  20.241  28.763 -0.2439  0.2962 -0.0946
23992W        W66909  23.292  20.171  28.891 -0.4410  0.0943 -0.2368
23993W        W66910  24.839  20.569  31.550 -0.2502  0.0412 -0.3482
23994W        W66911  26.695  20.794  27.323  0.0876  0.2684 -0.1282
23995W        W66912  29.307  22.063  30.540 -0.1316 -0.1385 -0.1609
23996W        W66913  28.557  21.644  30.077 -0.1566  0.0959 -0.2770
23997W        W66914  26.547  18.043  30.367  0.0835 -0.0271 -0.3762
23998W        W66915  26.425  19.914  29.419  0.1167  0.2326 -0.1266
23999W        W66916  25.592  21.835  29.719 -0.2905 -0.0539 -0.4015
24000W        W66917  26.350  21.050  28.086  0.0359 -0.2998  0.1137
24001W        W66918  26.226  18.650  27.652 -0.2103  0.1700  0.0233
24002W        W66919  30.404  21.821  29.884 -0.0027 -0.0432  0.2114
24003W        W66920  25.773  20.782  29.862  0.0167 -0.0717 -0.2208
24004W        W66921  25.576  18.777  30.976 -0.1622 -0.1173 -0.2285
24005W        W66922  28.152  17.333  31.390  0.2119 -0.1560 -0.1240
24006W        W66923  27.232  19.293  29.118 -0.1213  0.0468 -0.1306
24007W        W66924  27.450  19.379  30.018 -0.0315 -0.2032  0.1467
24008W        W66925  26.390  19.096  28.912  0.0691  0.1955 -0.1882
24009W        W66926  26.865  19.942  30.683 -0.0847 -0.2201  0.0740
24010W        W66927  24.419  21.978  27.460 -0.1594  0.0613 -0.0589
24011W        W66928  23.828  20.866  30.044  0.1820  0.1383  0.3698
24012W        W66929  25.300  20.896  28.973  0.0210  0.4154 -0.1106
24013W        W66930  27.644  18.229  28.668 -0.0679 -0.0459  0.1547
24014W        W66931  23.930  19.953  30.069  0.0068 -0.1746  0.1656
24015W        W66932  27.124  19.346   0.228  0.0717  0.1954 -0.0777
24016W        W66933  25.184  20.226  27.795 -0.2369  0.2486  0.0320
24017W        W66934  25.519  20.993  29.451 -0.1073  0.0825  0.0974
24018W        W66935  28.908  17.146  28.998  0.3356 -0.2322  0.0069
24019W        W66936  28.059  19.182  26.675 -0.1250  0.1292  0.1278
24020W        W66937  26.617  20.676  30.581 -0.1700 -0.4172  0.0694
24021W        W66938  29.780  20.406  29.737  0.1363 -0.2154  0.0221
24022W        W66939  29.268  16.707  28.909  0.3648 -0.0670 -0.1280
24023W        W66940  26.543  19.526  27.662  0.1521 -0.0955  0.0228
24024W        W66941  23.865  20.815  31.108 -0.2293  0.1027  0.0972
24025W        W66942  25.862  20.894  26.403  0.0867  0.1239  0.2454
24026W        W66943  26.993  18.954  28.380  0.0236 -0.0284  0.1054
24027W        W66944  25.689  19.797  29.935 -0.1904 -0.0924  0.1215
24028W        W66945  30.312  20.748  27.631  0.0756  0.1616 -0.1464
24029W        W66946  27.035  21.645  31.000  0.1000 -0.0788 -0.1592
24030W        W66947  28.651  22.272  31.734  0.0810  0.2011 -0.3323
24031W        W66948  27.743  20.946  30.463 -0.4739 -0.0288 -0.0848
24032W        W66949  27.048  18.179  29.448  0.0539  0.0156  0.0558
24033W        W66950  26.128  19.156  26.948 -0.2040 -0.1252  0.1103
24034W        W66951  27.569  17.588  28.829 -0.1032  0.1964 -0.0065
24035W        W66952  24.749  22.333  26.702 -0.0254 -0.0072  0.5115
24036W        W66953  27.154  18.698  30.566  0.2472 -0.1892  0.2260
24037W        W66954  25.957  18.210  27.506  0.0585 -0.0349  0.1994
24038W        W66955  25.269  18.133  30.115 -0.2833  0.0071  0.1988
24039W        W66956  28.979  22.142  31.056  0.0522  0.0876 -0.0264
24040W        W66957  27.054  19.618  28.369  0.2690 -0.1912  0.2387
24041W        W66958  27.496  19.765  31.326 -0.1404  0.0596  0.0326
24042W        W66959  25.831  19.903  25.051 -0.1147  0.0089 -0.2967
24043W        W66960  27.401  18.299  30.504 -0.3951  0.1013  0.1311
24044W        W66961  27.481  19.048  29.616 -0.1535 -0.0069 -0.1131
24045W        W66962  26.848  21.033  31.489  0.0139  0.0821  0.4711
24046W        W66963  26.858  22.080  31.079 -0.1203 -0.0963  0.0673
24047W        W66964  27.416  20.629  30.832  0.0478  0.0943  0.1191
24048W        W66965  27.250  19.297   0.705 -0.1523 -0.0848  0.0228
24049W        W66966  26.765  20.046  28.607 -0.0083 -0.1387 -0.0212
24050W        W66967  26.222  21.684  29.045 -0.1731 -0.3055  0.0459
24051W        W66968  25.067  19.185  27.100 -0.0588 -0.0796 -0.1150
24052W        W66969  25.455  17.916  28.298  0.0127 -0.0599 -0.0749
24053W        W66970  28.306  20.865  29.991  0.0305 -0.2482  0.0945
24054W        W66971  26.501  21.886  27.121 -0.0505 -0.1678  0.2541
24055W        W66972  25.258  21.162  30.638  0.4910 -0.4541  0.1251
24056W        W66973  26.144  22.717  27.096 -0.2148  0.1361  0.3488
24057W        W66974  26.937  18.866  28.892 -0.2122 -0.0808 -0.0460
24058W        W66975  26.449  20.927  28.889  0.1317  0.2929 -0.0257
24059W        W66976  27.571  19.251  25.287 -0.0681 -0.1689 -0.0181
24060W        W66977  25.668  19.694  26.401 -0.0934 -0.1891 -0.0321
24061W        W66978  28.959  18.763  30.087  0.0235 -0.1275  0.0225
24062W        W66979  26.361  18.802  29.368 -0.0936  0.1155 -0.0503
24063W        W66980  26.943  18.716  31.099 -0.0402  0.3217 -0.3948
24064W        W66981  27.617  21.508  31.061  0.0979 -0.0097 -0.0745
24065W        W66982  24.448  20.002  29.665 -0.0738 -0.5154 -0.4271
24066W        W66983  27.255  19.341  31.527 -0.1543 -0.3149  0.0169
24067W        W66984  27.079  18.757  29.361 -0.1796  0.0827 -0.1936
24068W        W66985  27.887  19.916  31.054  0.0629  0.0390 -0.2609
24069W        W66986  25.584  19.505  30.469  0.1529  0.3550  0.3595
24070W        W66987  25.998  19.367  25.794  0.1057 -0.1111 -0.2455
24071W        W66988  27.649  20.517  31.612 -0.3400 -0.2206 -0.0633
24072W        W66989  27.468  19.460  28.688  0.2072 -0.0637  0.1531
24073W        W66990  22.630  19.539  27.510  0.0723 -0.1086 -0.3697
24074W        W66991  26.005  22.441  29.628  0.0343  0.1375 -0.0032
24075W        W66992  26.947  18.745  27.026 -0.0896 -0.1070  0.2146
24076W        W66993  26.221  21.510  27.024 -0.0355 -0.0103 -0.0166
24077W        W66994  27.249  20.921  31.776  0.2427  0.1098 -0.2776
24078W        W66995  27.171  19.736  29.776  0.1217 -0.0234  0.2232
24079W        W66996  26.825  20.146  29.650 -0.1289  0.0993  0.0418
24080W        W66997  27.058  18.108  30.230  0.2568 -0.0377 -0.0844
24081W        W66998  26.259  19.982  29.940 -0.0097  0.2546 -0.2264
24082W        W66999  27.623  21.039  30.962 -0.2006 -0.0954  0.0141
24083W        W67000  27.700  21.034  31.596  0.0579 -0.1158  0.1360
24084W        W67001  22.921  21.684  31.097 -0.1120  0.0077  0.0182
24085W        W67002  27.602  18.458  30.060 -0.0177 -0.0987  0.2899
24086W        W67003  28.887  20.638  27.823  0.1453 -0.0356  0.1195
24087W        W67004  29.624  21.454  29.994  0.3149  0.2185  0.2705
24088W        W67005  24.508  20.005  25.653 -0.1919 -0.0921  0.0904
24089W        W67006  24.065  20.664  28.403 -0.1507  0.0195  0.0588
24090W        W67007  25.785  20.340  28.372 -0.1391 -0.0831  0.4166
24091W        W67008  25.567  20.097  31.114  0.0229  0.1392 -0.1142
24092W        W67009  26.831  20.761  31.058  0.1273 -0.0851 -0.1815
24093W        W67010  26.090  21.613  27.483  0.2575 -0.1893 -0.1300
24094W        W67011  24.046  20.744  28.983  0.0990  0.2631  0.0923
24095W        W67012  29.097  17.354  29.741  0.0418 -0.0238 -0.0744
24096W        W67013  25.824  19.888  28.092 -0.1585  0.0180  0.4623
24097W        W67014  26.346  20.365  28.560  0.0167  0.1974 -0.2847
24098W        W67015  26.890  16.738  29.563  0.1973 -0.0659  0.1676
24099W        W67016  26.686  20.341  27.738 -0.0442  0.2754  0.0361
24100W        W67017  25.324  17.449  30.994  0.0595 -0.2456  0.0604
24101W        W67018  26.651  17.858  30.918  0.1266 -0.2084 -0.0839
24102W        W67019  27.041  20.641  29.638  0.0913 -0.0592  0.0689
24103W        W67020  24.899  18.924  30.588  0.1553  0.4065 -0.1368
24104W        W67021  28.768  21.044   0.763 -0.3077  0.1224  0.0691
24105W        W67022  26.555  19.174  29.906 -0.0949  0.1587  0.0603
24106W        W67023  26.399  19.738  28.076  0.2407  0.1859  0.0315
24107W        W67024  24.751  20.068  28.818  0.0375 -0.0091  0.0822
24108W        W67025  26.567  20.326  30.921 -0.2796 -0.2682  0.2311
24109W        W67026  29.783  21.223  30.843 -0.0289 -0.2093 -0.1900
24110W        W67027  26.527  19.396  27.178 -0.3689 -0.3639 -0.0755
24111W        W67028  28.361  19.045  30.012  0.2563  0.0152 -0.1065
24112W        W67029  26.434  20.991  29.765 -0.1626 -0.2978  0.0824
24113W        W67030  28.517  18.391  28.039 -0.2793  0.3523  0.1069
24114W        W67031  28.658  20.196  28.086  0.1029  0.3238 -0.1736
24115W        W67032  24.145  21.925  27.914  0.2020 -0.1127 -0.0186
24116W        W67033  26.848  20.567  31.724 -0.1977 -0.1482  0.1626
24117W        W67034  25.904  20.270  29.589  0.0410 -0.2005 -0.0042
24118W        W67035  29.899  19.256  28.933 -0.2311 -0.2082 -0.2374
24119W        W67036  27.266  19.200  30.563  0.0968  0.1528 -0.2815
24120W        W67037  28.060  20.557  30.322 -0.2545  0.1606  0.1584
24121W        W67038  26.078  20.166  31.090 -0.1878  0.0524 -0.1011
24122W        W67039  24.715  20.220  31.018 -0.1862 -0.2056  0.1910
24123W        W67040  27.898  20.636  31.153 -0.1711  0.1299  0.4244
24124W        W67041  26.354  20.009  27.653  0.0399 -0.0742  0.2443
24125W        W67042  29.055  17.028  30.230 -0.1379  0.1659  0.0456
24126W        W67043  27.454  19.878  28.437 -0.0426 -0.2245 -0.1582
24127W        W67044  26.068  19.896  28.513  0.2550 -0.0416 -0.0515
24128W        W67045  26.035  21.993  28.615  0.1879 -0.0903 -0.1337
24129W        W67046  28.417  19.848  30.792 -0.1553 -0.3238 -0.1679
24130W        W67047  24.816  18.151  27.500  0.0652  0.0179  0.0325
24131W        W67048  26.611  19.674  29.780 -0.1009  0.4044  0.0766
24132W        W67049  26.547  22.812  28.110 -0.2033  0.1389  0.0589
24133W        W67050  26.479  20.156  30.377  0.3916 -0.3570 -0.2815
24134W        W67051  29.180  18.986  28.200  0.1463 -0.2222  0.0786
24135W        W67052  26.070  19.561  27.717 -0.0338 -0.1266  0.0792
24136W        W67053  23.964  21.800  31.624 -0.0663 -0.0141  0.4489
24137W        W67054  27.201  20.057  25.662 -0.0300 -0.1955  0.0515
24138W        W67055  25.010  18.909  28.801  0.7120 -0.2302 -0.1167
24139W        W67056  25.162  20.367  31.162 -0.0358 -0.0818 -0.2271
24140W        W67057  27.550  20.190   0.169 -0.2272 -0.2038 -0.1136
24141W        W67058  27.399  18.490  29.612  0.0643 -0.1269 -0.0758
24142W        W67059  28.579  19.546  29.547  0.1109  0.1915  0.0180
24143W        W67060  25.011  20.619  25.787 -0.5046 -0.0531 -0.1058
24144W        W67061  27.654  19.863  28.893 -0.0168 -0.0069 -0.0066
24145W        W67062  24.310  22.001  28.785 -0.3103 -0.1026 -0.4017
24146W        W67063  24.652  21.232  30.020  0.0457  0.4553 -0.1016
24147W        W67064  26.102  20.848  28.497 -0.3013 -0.1278 -0.2509
24148W        W67065  24.855  19.285  29.162  0.1369 -0.1690  0.0171
24149W        W67066  28.873  17.952  31.373  0.1924 -0.1182  0.1228
24150W        W67067  25.267  20.532  28.554 -0.0978  0.1647  0.1832
24151W        W67068  27.776  23.139  31.058 -0.3335 -0.0723 -0.3581
24152W        W67069  27.216  20.183  31.621  0.3479 -0.1326  0.0080
24153W        W67070  26.067  19.422  30.596 -0.1385  0.1889 -0.0606
24154W        W67071  25.922  20.745   0.695  0.0863 -0.0920  0.0487
24155W        W67072  27.584  19.524  30.894  0.0560 -0.2079 -0.0926
24156W        W67073  27.425  20.164  29.849  0.0927 -0.1439  0.1842
24157W        W67074  25.127  18.639  31.111 -0.0606  0.1508  0.4408
24158W        W67075  27.931  18.574  31.098 -0.1832 -0.0233 -0.0161
24159W        W67076  26.854  20.240  27.060  0.0368 -0.0531  0.0101
24160W        W67077  25.683  18.605  30.502  0.0721 -0.0904 -0.0055
24161W        W67078  25.470  18.957  29.584  0.0329  0.0257  0.0077
24162W        W67079  23.394  20.857  31.340  0.3459 -0.0976  0.0851
24163W        W67080  25.925  20.560  27.468 -0.2043  0.2563  0.0066
24164W        W67081  24.513  23.591  27.534 -0.1494  0.3713  0.0009
24165W        W67082  28.281  19.723  27.071 -0.0972  0.0377 -0.1481
24166W        W67083  27.424  19.744  27.980 -0.1455 -0.3093  0.3606
24167W        W67084  28.468  21.908  29.590 -0.0868 -0.2944 -0.0604
24168W        W67085  26.483  17.765  27.640 -0.2093 -0.0214  0.0918
24169W        W67086  24.720  21.505  29.432  0.0596 -0.0074  0.2105
24170W        W67087  24.073  20.726  27.152  0.0578  0.1143  0.1858
24171W        W67088  26.175  22.093  28.165 -0.1983 -0.0822  0.0316
24172W        W67089  27.879  21.402  28.604 -0.2254  0.3111 -0.0943
24173W        W67090  27.259  21.843  30.567  0.2724 -0.0209  0.0311
24174W        W67091  28.912  19.440  28.302 -0.0500  0.0045 -0.0465
24175W        W67092  27.375  19.958  30.784  0.0370 -0.1773  0.1737
24176W        W67093  28.857  20.450  27.151  0.2162 -0.3936  0.0382
24177W        W67094  26.299  19.973   0.119  0.1309 -0.1304 -0.1420
24178W        W67095  26.645  21.485  28.016  0.1799  0.1924  0.1313
24179W        W67096  25.879  17.640  27.896 -0.0448  0.0978  0.1500
24180W        W67097  24.793  19.959  30.536  0.3419  0.0251 -0.1678
24181W        W67098  29.285  18.646  30.871  0.2300 -0.3778 -0.1447
24182W        W67099  22.661  22.250  30.390 -0.0310  0.0696 -0.1984
24183W        W67100  30.275  22.676  31.075 -0.0357  0.3508 -0.1563
24184W        W67101  24.925  20.355  28.208 -0.2688  0.1283  0.0097
24185W        W67102  25.147  19.681  28.758  0.0368 -0.0528  0.2442
24186W        W67103  31.998  18.726  30.430  0.2575 -0.1019  0.2775
24187W        W67104  27.271  20.196  26.144  0.1204  0.1397 -0.0166
24188W        W67105  27.772  19.969  31.706 -0.0340  0.1269 -0.1400
24189W        W67106  25.674  22.148  28.167 -0.1996 -0.1312  0.3158
24190W        W67107  27.226  20.215  29.356 -0.1408  0.3853 -0.0497
24191W        W67108  24.439  20.337   0.241 -0.1560  0.2460 -0.1359
24192W        W67109  26.059  18.972  30.845  0.1602  0.2215 -0.1239
24193W        W67110  26.876  18.860  27.900 -0.1940  0.0264 -0.1002
24194W        W67111  27.772  22.503  31.927  0.1064  0.0001 -0.1352
24195W        W67112  28.474  19.757   0.206  0.1145 -0.0305  0.0568
24196W        W67113  25.817  19.536  25.366  0.2413  0.0747 -0.3571
24197W        W67114  27.969  18.738  29.643  0.2916 -0.1328  0.0727
24198W        W67115  25.891  20.704  30.770 -0.1403  0.0442  0.2211
24199W        W67116  26.319  18.312  29.579 -0.1460 -0.1182 -0.1659
24200W        W67117  28.427  20.616  27.634  0.2885  0.0260 -0.1194
24201W        W67118  30.621  21.890  30.871  0.0366  0.0506  0.1850
24202W        W67119  28.203  18.706  27.828 -0.2475  0.3634 -0.1466
24203W        W67120  28.145  20.891  30.810  0.1028  0.1412  0.2454
24204W        W67121  26.819  18.207  31.345 -0.2652 -0.1829 -0.0538
24205W        W67122  27.160  17.931  28.568 -0.3019 -0.2031  0.1046
24206W        W67123  24.253  20.557  27.947  0.3199  0.1627 -0.0320
24207W        W67124  26.158  18.529  30.027  0.0239  0.0782  0.1326
24208W        W67125  28.252  22.039  30.646  0.1647 -0.1020  0.3400
24209W        W67126  26.063  19.583  27.191 -0.1142  0.0501 -0.0531
24210W        W67127  27.715  21.198  28.153 -0.1237 -0.1888 -0.0236
24211W        W67128  28.379  21.090  30.457 -0.2826  0.0854  0.3102
24212W        W67129  24.209  20.868  26.154 -0.2974 -0.3495  0.1265
24213W        W67130  26.866  19.564  29.325  0.0011  0.0319  0.0298
24214W        W67131  26.238  21.346  28.499  0.1089 -0.2237  0.1110
24215W        W67132  25.143  19.552  28.153 -0.0415 -0.0917  0.2021
24216W        W67133  27.385  22.656  31.051  0.2350 -0.1074 -0.2577
24217W        W67134  28.441  20.218   0.479 -0.0410 -0.2411 -0.1001
24218W        W67135  25.954  19.246  28.495 -0.0787 -0.4953  0.0587
24219W        W67136  25.293  19.941  30.325 -0.2983 -0.0532  0.1683
24220W        W67137  24.937  20.998  27.335  0.2778 -0.1025  0.3114
24221W        W67138  28.384  19.341  28.495 -0.2067  0.0798 -0.0692
24222W        W67139  28.102  21.553  29.655 -0.0746 -0.1643 -0.2014
24223W        W67140  26.370  20.878  26.294 -0.0543 -0.0802 -0.0793
24224W        W67141  27.483  17.732  30.318 -0.0452  0.1302  0.1437
24225W        W67142  27.310  21.006  29.953 -0.1477  0.0229 -0.4194
24226W        W67143  26.065  21.916  29.492  0.0483  0.1701 -0.1227
24227W        W67144  25.126  21.897  26.934 -0.0344 -0.1607  0.1688
24228W        W67145  26.088  20.638  31.221  0.1218 -0.2993 -0.1729
24229W        W67146  26.331  20.720  27.701  0.0962 -0.2312  0.1825
24230W        W67147  26.881  21.598  26.855  0.0898  0.2373  0.3095
24231W        W67148  28.056  21.299  30.060  0.0419  0.4711  0.0473
24232W        W67149  26.039  23.031  27.446 -0.0010 -0.3879  0.3420
24233W        W67150  28.971  20.710  29.898  0.0697 -0.0418  0.1956
24234W        W67151  24.790  19.678  30.167 -0.3033  0.3781  0.0116
24235W        W67152  29.567  19.981  28.200 -0.2997 -0.0677 -0.0153
24236W        W67153  27.067  20.280  28.221  0.4399 -0.0801 -0.5176
24237W        W67154  25.704  22.526  29.171  0.1307 -0.0325  0.0910
24238W        W67155  27.127  20.713  26.327  0.2801  0.0063  0.1667
24239W        W67156  25.860  20.009  25.552 -0.2029  0.1675 -0.0960
24240W        W67157  27.444  21.878  31.301  0.2607 -0.2978  0.2164
24241W        W67158  28.104  19.334   1.052  0.3603  0.0349 -0.1872
24242W        W67159  25.999  19.433  30.111 -0.2682  0.1581  0.0122
24243W        W67160  24.844  21.075  28.953 -0.1929 -0.2096 -0.2002
24244W        W67161  24.090  19.210  28.721  0.0920 -0.0562 -0.0245
24245W        W67162  27.817  20.892  29.945 -0.0552 -0.2557  0.2138
24246W        W67163  26.537  16.852  30.984  0.4477  0.1033 -0.0549
24247W        W67164  24.167  18.896  30.149 -0.0149  0.1966  0.1251
24248W        W67165  27.650  20.901  28.920 -0.4096 -0.0754 -0.0674
24249W        W67166  27.037  21.050  28.829  0.1378  0.2743  0.3205
24250W        W67167  27.317  19.666  27.533 -0.0094 -0.0406  0.3387
24251W        W67168  26.902  20.212   0.699  0.0586  0.0463  0.1354
24252W        W67169  25.985  18.683  27.152 -0.1564  0.0274  0.0524
24253W        W67170  28.278  21.281   0.585  0.0869  0.3140  0.0243
24254W        W67171  26.657  18.773  30.675  0.2757 -0.1261  0.2095
24255W        W67172  25.541  20.185  26.396 -0.0384  0.2264 -0.1308
24256W        W67173  26.333  19.338  29.461  0.1414 -0.1636 -0.0412
24257W        W67174  26.373  20.434  27.279  0.1506  0.3574 -0.0986
24258W        W67175  27.636  21.158  27.172 -0.3426 -0.0106 -0.0245
24259W        W67176  25.102  21.630  30.508 -0.0791 -0.1382 -0.1291
24260W        W67177  27.934  22.228  29.823  0.0913  0.0109  0.1050
24261W        W67178  27.060  19.528  30.884 -0.0630 -0.1318  0.2131
24262W        W67179  27.382  19.295  28.213 -0.0071 -0.0027  0.2157
24263W        W67180  25.750  20.429  31.456  0.2310  0.0067 -0.1100
24264W        W67181  30.126  18.927  30.329 -0.1496  0.2380 -0.0774
24265W        W67182  29.237  17.786  30.487  0.0985  0.0475  0.0941
24266W        W67183  27.024  19.212  29.705  0.0124  0.1124 -0.0045
24267W        W67184  23.933  19.549  30.717 -0.0786  0.2136  0.3384
24268W        W67185  25.638  19.261  30.891 -0.2962  0.2752  0.0100
24269W        W67186  30.931  21.285  30.316  0.3080 -0.0390 -0.0875
24270W        W67187  26.043  18.050  30.755 -0.1013 -0.0788 -0.0621
24271W        W67188  26.750  18.420  28.626 -0.1538  0.0680  0.0937
24272W        W67189  25.572  20.575  26.677  0.0622 -0.3066 -0.0472
24273W        W67190  26.193  18.541  30.508 -0.0844 -0.1145  0.0805
24274W        W67191  27.039  19.243  27.059  0.3091  0.1113  0.2311
24275W        W67192  29.091  22.637  31.913  0.0305 -0.0600  0.2878
24276W        W67193  26.022  20.638  28.914 -0.0615 -0.1929 -0.0885
24277W        W67194  28.667  19.799  31.612 -0.0926  0.2027  0.0378
24278W        W67195  24.989  19.733  29.269  0.0903 -0.0830 -0.0277
24279W        W67196  27.140  21.158  30.996 -0.0017 -0.0522 -0.2816
24280W        W67197  26.739  22.660  30.548  0.1257  0.1566 -0.2274
24281W        W67198  31.010  22.378   0.641  0.0739  0.2277 -0.1333
24282W        W67199  27.010  22.694  27.400 -0.0682 -0.1240  0.1086
24283W        W67200  27.941  20.133  30.122 -0.2795 -0.1163  0.1888
24284W        W67201  25.479  18.346  31.371  0.2774 -0.2273 -0.2688
24285W        W67202  25.436  19.251  28.468 -0.0231 -0.0236 -0.1082
24286W        W67203  25.978  19.931  30.355 -0.1775  0.2176 -0.0259
24287W        W67204  28.241  16.803  31.498  0.1127  0.3511 -0.0671
24288W        W67205  25.218  19.915  30.806 -0.0748 -0.0043 -0.2756
24289W        W67206  25.941  18.012  28.375 -0.1870 -0.2269 -0.0119
24290W        W67207  25.980  21.133  28.961  0.0581 -0.0270  0.0733
24291W        W67208  27.587  21.385  30.188 -0.1023  0.2761 -0.3622
24292W        W67209  28.332  18.362  31.100 -0.0808  0.0220 -0.4341
24293W        W67210  26.770  20.935   0.169 -0.2029 -0.0817 -0.4376
24294W        W67211  26.557  21.296  30.205  0.3550  0.1022 -0.1213
24295W        W67212  23.664  21.349  31.178  0.2306  0.1799  0.2639
24296W        W67213  24.780  19.472  31.779 -0.1238  0.1349 -0.2331
24297W        W67214  26.832  20.547   1.196 -0.1989 -0.0188 -0.1222
24298W        W67215  25.200  19.089   0.089  0.4648 -0.2204 -0.0217
24299W        W67216  26.478  18.501   0.601  0.4540 -0.4116  0.2053
24300W        W67217  27.540  18.194  31.708 -0.2988  0.1858 -0.0821
24301W        W67218  29.768  20.828   0.706 -0.4263 -0.1962 -0.0803
24302W        W67219  25.901  21.200   0.345  0.2559 -0.1275 -0.0793
24303W        W67220  24.963  18.183   0.434 -0.4344 -0.0887  0.1053
24304W        W67221  28.705  21.465  31.829 -0.0399  0.0843 -0.1637
24305W        W67222  26.129  20.579  31.722  0.0286  0.1879 -0.0032
24306W        W67223  28.207  19.703   0.672 -0.0203  0.0511 -0.0975
24307W        W67224  24.812  21.893  28.001  0.0642 -0.0952  0.0760
24308W        W67225  24.556  19.788   0.144 -0.2045 -0.0243 -0.2039
24309W        W67226  28.363  21.876  31.635 -0.0057 -0.0467  0.0515
24310W        W67227  26.662  20.385   0.200 -0.4114  0.4770  0.1352
24311W        W67228  27.048  22.110   0.229  0.1771 -0.3002  0.1368
24312W        W67229  25.474  19.953   0.130 -0.1507 -0.0876 -0.0952
24313W        W67230  26.031  22.122  31.020  0.0930  0.4207 -0.0673
24314W        W67231  31.800  19.696   0.035  0.0942  0.2334  0.1004
24315W        W67232  29.368  19.327  29.525  0.2333  0.3247 -0.3097
24316W        W67233  26.139  20.047  31.626  0.1430 -0.1723  0.1576
24317W        W67234  26.532  19.907  31.271 -0.0169 -0.2885  0.2681
24318W        W67235  26.985  20.226  31.186 -0.0248 -0.0264 -0.2831
24319W        W67236  24.611  21.576  31.017 -0.1377 -0.0747  0.1663
24320W        W67237  26.442  19.534  30.277 -0.0463 -0.0069  0.1263
24321W        W67238  26.384  21.265   0.167 -0.0877  0.0264 -0.0035
24322W        W67239  24.709  21.271   1.088 -0.0968  0.3227 -0.1656
24323W        W67240  26.145  19.577   0.368  0.0944 -0.2821 -0.2493
24324W        W67241  27.274  21.395  31.432  0.0072 -0.1486 -0.0477
24325W        W67242  27.193  17.716  31.316  0.3546  0.0545  0.1260
24326W        W67243  29.237  18.703  28.615 -0.2286 -0.7490 -0.2400
24327W        W67244  24.390  22.057   0.820 -0.0125  0.1973 -0.0140
24328W        W67245  24.402  19.069   0.022 -0.1535 -0.0256 -0.2859
24329W        W67246  27.290  23.085  31.268  0.1297 -0.0387  0.3766
24330W        W67247  27.558  22.059   0.253  0.2930 -0.0878 -0.0011
24331W        W67248  24.871  20.764  30.986 -0.0188 -0.0773 -0.2756
24332W        W67249  27.013  20.635   2.228 -0.0428  0.0067  0.1196
24333W        W67250  25.424  20.708  30.918 -0.1339  0.1449 -0.4363
24334W        W67251  25.448  20.720  30.356  0.1093 -0.0932  0.1096
24335W        W67252  27.284  22.441   0.489 -0.3386 -0.1774 -0.3055
24336W        W67253  27.026  20.086   0.255 -0.1060 -0.2625 -0.0770
24337W        W67254  26.045  21.876   0.048  0.0295 -0.5032 -0.1938
24338W        W67255  26.573  17.959  29.418  0.0970 -0.1382 -0.1791
24339W        W67256  28.239  23.062   1.165  0.1301  0.0554  0.2086
24340W        W67257  28.162  20.652  31.572  0.2038 -0.2182 -0.0381
24341W        W67258  23.626  19.442  29.653  0.0944  0.0606  0.0002
24342W        W67259  26.616  20.694   0.680  0.5543  0.0389 -0.2908
24343W        W67260  27.408  16.656  30.552 -0.0730 -0.2423 -0.1811
24344W        W67261  25.002  18.415  31.504 -0.2233 -0.4553  0.0146
24345W        W67262  27.227  19.101  31.114 -0.2663 -0.2559 -0.0249
24346W        W67263  26.544  20.399  31.412  0.2836  0.2549  0.0652
24347W        W67264  28.885  18.319  31.070  0.3834  0.0378 -0.2067
24348W        W67265  30.755  21.194  30.773 -0.0549 -0.0762 -0.1088
24349W        W67266  26.304  23.739  31.281  0.3071 -0.2136  0.2393
24350W        W67267  26.737  22.004  28.772  0.0356  0.0176  0.0091
24351W        W67268  25.961  18.430  31.196  0.1076 -0.0061 -0.0477
24352W        W67269  25.859  20.294   0.066 -0.2002  0.0181  0.2160
24353W        W67270  25.147  20.929  31.770 -0.2088 -0.1195  0.3053
24354W        W67271  24.623  21.085  30.549 -0.0214 -0.2805  0.2862
24355W        W67272  24.223  17.279  31.106  0.0343 -0.3016  0.1942
24356W        W67273  29.477  20.598  31.753 -0.1552  0.1014  0.0228
24357W        W67274  29.514  19.473  31.795 -0.2297  0.0959  0.1798
24358W        W67275  28.694  18.887   0.374  0.0061 -0.0960 -0.2725
24359W        W67276  25.868  25.335  19.580  0.0709 -0.1996 -0.3992
24360W        W67277  25.700  24.551  18.828 -0.0971 -0.0148  0.0323
24361W        W67278  30.031  21.140  17.846 -0.2321  0.0514  0.1994
24362W        W67279  29.222  23.247  19.128  0.3526 -0.0215  0.4393
24363W        W67280  25.976  23.902  17.682 -0.1728 -0.3849  0.2205
24364W        W67281  27.907  24.443  17.773 -0.3065 -0.2517  0.0577
24365W        W67282  25.181  21.681  17.295 -0.0789 -0.2753 -0.1911
24366W        W67283  30.205  25.507  18.321 -0.2881  0.1411  0.1276
24367W        W67284  28.594  24.516  20.310 -0.2004  0.1766  0.2236
24368W        W67285  28.623  24.439  17.224 -0.0709  0.3762  0.0201
24369W        W67286  26.368  22.694  21.688  0.0419 -0.2418  0.2710
24370W        W67287  25.939  24.301  18.072  0.0019  0.0024 -0.0063
24371W        W67288  26.697  22.267  17.711  0.0081  0.2123 -0.2239
24372W        W67289  27.219  24.460  20.895 -0.4156 -0.2869  0.2116
24373W        W67290  29.368  23.384  19.557  0.2120  0.2335 -0.0863
24374W        W67291  23.557  24.740  17.963  0.0204  0.2338 -0.5372
24375W        W67292  27.270  25.046  21.721 -0.0384 -0.0807  0.0253
24376W        W67293  28.203  22.735  16.938 -0.1893  0.0220 -0.1383
24377W        W67294  28.263  25.877  17.702 -0.2473 -0.1861  0.0217
24378W        W67295  28.151  22.440  19.433  0.1415 -0.1235  0.2334
24379W        W67296  28.941  21.690  20.017 -0.0682  0.1135  0.1754
24380W        W67297  26.929  23.760  17.686  0.0533 -0.3356 -0.0422
24381W        W67298  25.750  23.009  16.898 -0.3510 -0.0307  0.0620
24382W        W67299  25.607  23.546  16.843  0.2090  0.2687 -0.1816
24383W        W67300  27.691  26.384  19.698 -0.0855  0.0773  0.0394
24384W        W67301  28.753  22.065  18.964 -0.0145 -0.1120  0.0785
24385W        W67302  28.583  23.288  18.989  0.0391  0.0326 -0.0399
24386W        W67303  26.614  24.309  19.110  0.0621  0.1370 -0.1782
24387W        W67304  29.121  22.974  18.304  0.1673 -0.2619  0.0508
24388W        W67305  29.705  21.854  19.178 -0.5326  0.2009 -0.3098
24389W        W67306  24.241  24.267  16.525  0.0648 -0.2277 -0.1730
24390W        W67307  24.338  25.315  20.000 -0.3350 -0.1496  0.3462
24391W        W67308  28.149  25.041  20.599 -0.5241  0.1659 -0.0962
24392W        W67309  30.701  25.248  18.456 -0.0070  0.1537  0.0386
24393W        W67310  27.614  26.185  18.476 -0.1124 -0.3273  0.1718
24394W        W67311  27.277  26.037  18.898 -0.0926  0.0987 -0.0531
24395W        W67312  24.620  25.101  18.590 -0.1158  0.0097  0.0054
24396W        W67313  27.992  23.375  18.141  0.0670 -0.1347  0.0130
24397W        W67314  25.754  23.489  19.788 -0.2485  0.0968  0.0921
24398W        W67315  26.918  25.830  18.622  0.1534  0.0563  0.1095
24399W        W67316  28.119  24.901  18.515  0.2530 -0.2393  0.0845
24400W        W67317  27.401  24.659  17.690 -0.0362 -0.0249 -0.0883
24401W        W67318  26.344  24.112  20.101 -0.2194  0.3057  0.3367
24402W        W67319  28.330  25.073  21.465  0.1185 -0.0212  0.0716
24403W        W67320  26.469  22.973  17.848 -0.0657  0.2421  0.2123
24404W        W67321  28.870  22.216  21.003 -0.1479  0.0060  0.3323
24405W        W67322  27.019  24.221  17.771  0.1405  0.0428 -0.2250
24406W        W67323  29.224  24.694  17.575 -0.2397  0.1077 -0.2575
24407W        W67324  27.183  22.398  17.676 -0.2451 -0.2798  0.1271
24408W        W67325  28.188  19.567  17.814  0.1636 -0.0258 -0.1372
24409W        W67326  28.480  22.686  18.273 -0.0140 -0.1941 -0.1118
24410W        W67327  24.377  25.552  17.327  0.0784  0.0189 -0.2120
24411W        W67328  26.110  23.858  19.752  0.0347  0.3892  0.3278
24412W        W67329  29.322  22.753  21.355 -0.0903  0.1338  0.1239
24413W        W67330  25.012  24.283  17.683 -0.1551 -0.0333 -0.0675
24414W        W67331  29.850  24.236  19.696 -0.0649  0.0297 -0.0138
24415W        W67332  25.186  25.249  21.173  0.2273  0.1994  0.1608
24416W        W67333  27.632  22.807  18.885 -0.0596 -0.2064 -0.1865
24417W        W67334  28.148  26.610  17.107 -0.0257  0.2234  0.0188
24418W        W67335  29.681  25.461  17.999 -0.1651 -0.1573  0.1171
24419W        W67336  27.597  23.638  18.880 -0.3171  0.2076 -0.0324
24420W        W67337  27.431  26.184  17.627 -0.0236  0.0281  0.0604
24421W        W67338  24.257  23.957  19.702  0.2019  0.1810  0.1048
24422W        W67339  27.045  22.589  18.809 -0.0473  0.2573  0.2715
24423W        W67340  26.352  21.260  17.306 -0.0106  0.0789 -0.0648
24424W        W67341  29.363  26.226  19.495 -0.0091 -0.0505  0.0380
24425W        W67342  27.364  23.807  20.982  0.1444  0.0743 -0.0044
24426W        W67343  28.935  21.369  18.762 -0.0604 -0.0971  0.0062
24427W        W67344  27.053  23.554  17.216 -0.1134 -0.1073  0.1114
24428W        W67345  27.313  23.876  21.592  0.3355  0.2143  0.1668
24429W        W67346  29.034  24.730  16.359 -0.1553 -0.0596  0.1452
24430W        W67347  28.681  22.416  19.281 -0.0222  0.1123  0.0956
24431W        W67348  25.405  23.080  22.100  0.1776 -0.0875  0.4720
24432W        W67349  26.488  24.228  18.338 -0.4647 -0.0112 -0.0276
24433W        W67350  27.591  22.114  17.643 -0.2819  0.2808 -0.2426
24434W        W67351  28.501  26.311  19.462  0.0889 -0.0564  0.1717
24435W        W67352  30.111  23.770  17.107  0.3814 -0.0768  0.0901
24436W        W67353  25.519  26.162  19.329 -0.0759 -0.0394  0.0308
24437W        W67354  27.459  24.054  20.534 -0.2488 -0.2626 -0.0984
24438W        W67355  26.153  25.941  20.844  0.0008  0.1862 -0.2600
24439W        W67356  24.780  23.423  17.280 -0.2598 -0.1140 -0.0709
24440W        W67357  24.705  22.925  20.342  0.0685 -0.0117 -0.3115
24441W        W67358  26.579  24.625  18.682 -0.1120 -0.2361  0.1074
24442W        W67359  25.111  23.941  21.730  0.3040  0.2031  0.0336
24443W        W67360  28.592  23.815  17.592  0.1527 -0.1877  0.1881
24444W        W67361  28.932  23.464  18.043 -0.1244  0.2540  0.2001
24445W        W67362  26.730  22.903  19.107  0.4893  0.0266 -0.1699
24446W        W67363  27.672  22.086  18.697  0.4612 -0.2910  0.0096
24447W        W67364  27.978  24.039  20.394  0.2439  0.2909 -0.0875
24448W        W67365  28.418  24.621  19.803  0.1107 -0.0491  0.1341
24449W        W67366  29.155  21.858  17.599 -0.2715 -0.1118  0.2612
24450W        W67367  28.310  24.168  17.709  0.2577 -0.1426  0.3945
24451W        W67368  24.175  21.223  20.320 -0.5515  0.1494  0.2164
24452W        W67369  26.346  25.016  17.683  0.1454 -0.1422 -0.1360
24453W        W67370  27.794  26.275  21.817 -0.1294 -0.0716  0.0605
24454W        W67371  28.865  23.358  19.529  0.1328  0.1671  0.2588
24455W        W67372  29.508  23.530  20.002  0.0849  0.2986  0.0424
24456W        W67373  26.580  23.449  16.972 -0.5293  0.4200 -0.1061
24457W        W67374  29.575  23.516  18.760  0.0948  0.0035 -0.0918
24458W        W67375  26.735  23.930  20.371  0.2109 -0.1218 -0.0499
24459W        W67376  24.428  23.336  18.918  0.0202 -0.0444  0.0465
24460W        W67377  27.532  21.793  20.936 -0.1003 -0.2554 -0.1214
24461W        W67378  26.813  24.664  17.765  0.1646 -0.0843 -0.2832
24462W        W67379  28.412  25.884  19.143  0.2342  0.1099  0.0866
24463W        W67380  29.477  24.546  18.856  0.0850 -0.1578 -0.3003
24464W        W67381  28.530  20.956  19.577 -0.1307 -0.1243  0.2535
24465W        W67382  28.859  24.365  16.754 -0.0967 -0.1721  0.2557
24466W        W67383  24.880  25.809  18.095 -0.0045  0.0674 -0.0839
24467W        W67384  27.715  24.168  19.917  0.0303  0.0122 -0.2753
24468W        W67385  25.888  21.887  16.626 -0.1234 -0.0308  0.0448
24469W        W67386  30.574  25.448  19.465  0.0830 -0.0445 -0.1132
24470W        W67387  27.601  25.678  19.175  0.1325  0.1048 -0.1845
24471W        W67388  26.667  25.104  18.684  0.0788 -0.2080  0.0373
24472W        W67389  28.197  24.158  19.496 -0.0984  0.1651 -0.2427
24473W        W67390  29.889  24.071  17.922  0.0666 -0.2591 -0.3130
24474W        W67391  26.980  23.942  18.192 -0.2570 -0.1182 -0.2657
24475W        W67392  26.965  22.280  16.740 -0.0646  0.4983  0.1276
24476W        W67393  27.766  24.919  17.921  0.2934  0.1148  0.1541
24477W        W67394  25.539  25.016  17.662 -0.0595 -0.0273 -0.0311
24478W        W67395  25.447  23.565  17.774  0.1015  0.2711  0.0167
24479W        W67396  28.414  25.644  18.110  0.0557 -0.1153  0.0090
24480W        W67397  29.779  23.578  17.998 -0.2159  0.0390 -0.0286
24481W        W67398  27.177  24.343  21.672  0.2289 -0.3745  0.0013
24482W        W67399  26.637  23.683  19.923  0.0622 -0.1551  0.1158
24483W        W67400  24.971  23.299  17.801  0.0407  0.0478 -0.1139
24484W        W67401  24.772  25.345  22.112 -0.3171 -0.0814  0.0058
24485W        W67402  27.842  20.482  17.414  0.0331  0.2123 -0.0441
24486W        W67403  30.618  24.729  18.315 -0.0193 -0.1223  0.0158
24487W        W67404  25.878  23.699  20.921  0.1179  0.2188 -0.2444
24488W        W67405  27.173  25.510  19.010  0.2415  0.0791  0.0246
24489W        W67406  28.893  23.430  17.490  0.1792  0.4732  0.0347
24490W        W67407  28.469  22.527  18.804  0.3800  0.1884  0.0215
24491W        W67408  25.443  24.354  19.870  0.1381 -0.2905 -0.2408
24492W        W67409  27.629  24.516  19.109  0.1850  0.0323  0.1663
24493W        W67410  27.523  25.421  17.939  0.3335  0.2521 -0.2663
24494W        W67411  28.724  23.463  17.052  0.0666  0.0911 -0.0248
24495W        W67412  28.762  27.033  19.123  0.0281  0.1064  0.5002
24496W        W67413  23.985  23.685  20.323  0.0137 -0.2295  0.1007
24497W        W67414  28.202  23.674  19.073  0.0982 -0.2106  0.1374
24498W        W67415  29.167  24.604  19.235  0.0935  0.2929 -0.0586
24499W        W67416  28.548  23.267  18.301  0.1616 -0.1564 -0.0478
24500W        W67417  27.837  23.832  17.973 -0.2527  0.2667 -0.2983
24501W        W67418  27.612  23.352  21.463 -0.2295  0.0479  0.1833
24502W        W67419  25.465  24.034  17.854  0.2195  0.1291  0.0428
24503W        W67420  29.427  21.826  18.759 -0.2482 -0.0075 -0.1767
24504W        W67421  27.335  23.103  19.643  0.2404  0.3121 -0.1443
24505W        W67422  27.896  22.015  19.184 -0.1041 -0.1838  0.3412
24506W        W67423  27.740  23.050  20.634  0.1438 -0.2123  0.1788
24507W        W67424  28.732  23.747  19.015  0.1961  0.0890 -0.3642
24508W        W67425  28.612  24.090  19.854  0.0107 -0.0751 -0.1939
24509W        W67426  26.825  23.925  16.866 -0.0383  0.0761 -0.2009
24510W        W67427  25.408  22.544  18.997  0.1327  0.0887  0.5941
24511W        W67428  28.279  23.191  19.396 -0.1841 -0.1804  0.0263
24512W        W67429  27.426  24.868  19.495  0.1280 -0.0020  0.4020
24513W        W67430  29.419  24.506  19.660  0.3258 -0.3192 -0.0316
24514W        W67431  28.952  24.730  18.815  0.0459  0.1466 -0.2836
24515W        W67432  28.735  22.525  21.341 -0.2321  0.0090  0.1325
24516W        W67433  27.747  22.856  17.084  0.0216 -0.1951  0.1676
24517W        W67434  26.275  26.578  17.113  0.2318  0.2992  0.0990
24518W        W67435  27.094  24.401  18.256 -0.2401  0.1350 -0.0364
24519W        W67436  26.755  21.270  18.836 -0.0731 -0.3520 -0.0300
24520W        W67437  27.769  23.814  21.302 -0.1675 -0.2091  0.3287
24521W        W67438  27.776  26.255  18.014 -0.1820  0.1220  0.0039
24522W        W67439  28.685  24.592  17.664 -0.1314  0.0028 -0.0369
24523W        W67440  27.492  22.348  18.083  0.0266  0.0113  0.0485
24524W        W67441  27.273  22.806  19.235 -0.2113  0.0602  0.1632
24525W        W67442  26.766  24.608  21.043  0.1677 -0.2588  0.0189
24526W        W67443  28.778  22.986  17.345  0.0092  0.2557  0.0024
24527W        W67444  23.483  23.315  15.710 -0.2518 -0.0129  0.0716
24528W        W67445  28.929  25.598  17.921  0.2212 -0.1003 -0.0162
24529W        W67446  29.328  25.070  17.272  0.1475  0.1283  0.0767
24530W        W67447  26.984  24.682  20.018  0.0384 -0.5274  0.3890
24531W        W67448  25.877  25.088  18.466  0.2342 -0.0526  0.2015
24532W        W67449  23.449  24.704  19.230 -0.0894 -0.0186 -0.3902
24533W        W67450  28.217  22.033  18.775 -0.1839  0.0418 -0.0096
24534W        W67451  29.819  21.060  18.864 -0.0288  0.0288 -0.1502
24535W        W67452  27.871  23.443  17.059  0.3130 -0.0173  0.4840
24536W        W67453  24.003  24.045  21.203  0.1141 -0.0132 -0.1590
24537W        W67454  25.467  23.845  16.418  0.2575  0.0933 -0.2299
24538W        W67455  30.849  21.800  21.983  0.2606  0.1623 -0.2470
24539W        W67456  26.600  24.069  19.557 -0.1248 -0.2840  0.0560
24540W        W67457  24.643  24.519  19.464  0.1084  0.2235 -0.0272
24541W        W67458  27.311  23.941  19.074 -0.3343  0.0737  0.1118
24542W        W67459  27.551  23.664  17.404  0.0515  0.2792  0.1555
24543W        W67460  26.137  25.475  18.244 -0.1950  0.3372  0.2486
24544W        W67461  25.264  22.417  19.803 -0.0981 -0.1379  0.1782
24545W        W67462  28.084  22.640  20.321  0.1878 -0.0031  0.0700
24546W        W67463  28.225  22.054  16.908  0.5197  0.1875 -0.0914
24547W        W67464  26.818  18.808  18.122 -0.1295 -0.2903  0.3265
24548W        W67465  27.432  23.461  19.299  0.1490  0.4333  0.2641
24549W        W67466  27.781  22.682  18.151 -0.2540 -0.0169  0.1819
24550W        W67467  27.912  21.623  18.811 -0.0302  0.1730 -0.3509
24551W        W67468  26.165  24.803  20.475 -0.1957  0.0321 -0.0064
24552W        W67469  29.911  18.947  19.289  0.3718 -0.2587  0.0445
24553W        W67470  27.775  25.801  17.711 -0.1577 -0.0830  0.6940
24554W        W67471  29.366  22.963  20.868 -0.0811  0.2334  0.2178
24555W        W67472  25.037  24.363  18.183  0.1372 -0.1125  0.4528
24556W        W67473  24.986  22.143  20.649 -0.1272 -0.0878  0.2083
24557W        W67474  27.159  25.083  18.621 -0.0303 -0.0896 -0.2734
24558W        W67475  26.079  25.721  19.070  0.1519  0.1143  0.3684
24559W        W67476  25.506  24.913  21.013 -0.1408 -0.0272 -0.0727
24560W        W67477  25.880  22.687  17.213  0.2223 -0.1669  0.0001
24561W        W67478  24.330  25.011  19.538  0.1452  0.1949  0.1234
24562W        W67479  29.710  22.414  17.517  0.3649  0.3555  0.1201
24563W        W67480  28.159  24.459  19.087 -0.0945 -0.1274 -0.1778
24564W        W67481  26.743  22.634  17.102 -0.1833  0.1085 -0.0131
24565W        W67482  29.800  18.715  19.922  0.0875  0.3029 -0.1856
24566W        W67483  28.684  25.206  16.843  0.0410  0.0504 -0.0077
24567W        W67484  29.326  22.149  22.013  0.1026 -0.0077  0.0223
24568W        W67485  26.425  23.045  19.507  0.0984  0.0048 -0.0602
24569W        W67486  29.880  24.935  18.022  0.2969 -0.1057  0.0079
24570W        W67487  26.260  24.434  19.548 -0.0457  0.3119 -0.1529
24571W        W67488  28.188  24.270  19.993  0.4193 -0.0344  0.4779
24572W        W67489  25.069  22.157  21.542  0.0024  0.3166 -0.0758
24573W        W67490  27.752  22.683  17.545 -0.1892 -0.0776  0.1917
24574W        W67491  25.602  22.570  17.570 -0.2380 -0.0380  0.0450
24575W        W67492  23.915  24.769  19.410 -0.0661  0.0057  0.1715
24576W        W67493  27.295  25.453  19.508 -0.2102  0.2722  0.0897
24577W        W67494  28.294  23.712  17.118 -0.1089  0.0807  0.3265
24578W        W67495  29.200  22.855  19.490 -0.2853 -0.0400  0.0416
24579W        W67496  26.762  24.803  19.598  0.0038 -0.1643  0.1532
24580W        W67497  29.497  24.178  17.525  0.1748 -0.2060  0.1142
24581W        W67498  27.841  24.169  20.923  0.0418  0.4182 -0.0879
24582W        W67499  26.220  23.996  19.243  0.0651  0.2732 -0.0276
24583W        W67500  28.678  22.884  19.578 -0.1814 -0.0407  0.0080
24584W        W67501  27.648  26.539  21.011 -0.1440  0.0388 -0.0830
24585W        W67502  27.787  21.320  17.468  0.0827 -0.2483  0.0729
24586W        W67503  30.553  23.445  18.484  0.0325  0.0223  0.1430
24587W        W67504  28.785  21.979  19.559 -0.2082  0.1043  0.2483
24588W        W67505  27.704  24.670  20.880  0.2498 -0.1196  0.0635
24589W        W67506  26.595  22.214  19.860  0.4709  0.3247  0.0447
24590W        W67507  28.534  26.644  18.653  0.0016 -0.0995  0.1607
24591W        W67508  29.464  22.108  16.815 -0.0737  0.2932  0.4034
24592W        W67509  28.184  21.035  17.852 -0.2730  0.4020 -0.2573
24593W        W67510  29.713  23.116  18.424 -0.2153 -0.1146  0.2087
24594W        W67511  29.139  22.435  17.674 -0.0334  0.2830  0.3162
24595W        W67512  24.882  22.788  19.792 -0.0206  0.0815  0.0113
24596W        W67513  28.082  24.515  21.259 -0.4124 -0.1106 -0.3756
24597W        W67514  26.092  23.434  17.748 -0.2504 -0.0485  0.0728
24598W        W67515  27.520  22.073  20.139 -0.1363  0.0982 -0.1184
24599W        W67516  27.303  24.934  18.087  0.0492 -0.2922  0.2040
24600W        W67517  28.077  22.987  17.862  0.3035  0.1860 -0.0854
24601W        W67518  29.931  22.748  18.152 -0.1090  0.0072  0.1733
24602W        W67519  24.555  24.629  18.368 -0.1990  0.0384 -0.0552
24603W        W67520  25.900  24.287  19.863 -0.0592 -0.2443 -0.3556
24604W        W67521  27.936  24.005  17.461 -0.1915 -0.0879 -0.0597
24605W        W67522  27.994  25.427  18.668  0.0835  0.2015 -0.0546
24606W        W67523  29.035  24.187  18.976  0.1452  0.0317 -0.2666
24607W        W67524  28.415  21.886  23.260  0.0582 -0.0857 -0.2030
24608W        W67525  28.050  20.822  16.505 -0.2548  0.1764 -0.3921
24609W        W67526  30.824  22.957  18.392  0.3206  0.0936 -0.1344
24610W        W67527  25.048  24.903  18.416 -0.1274 -0.2604  0.4216
24611W        W67528  27.813  21.961  18.048 -0.2677 -0.0751 -0.2940
24612W        W67529  26.032  24.139  18.552  0.0396  0.0030 -0.3445
24613W        W67530  26.465  24.596  20.069  0.1922 -0.1012  0.1114
24614W        W67531  27.579  24.519  18.184 -0.1340 -0.1747 -0.1435
24615W        W67532  27.832  22.839  19.323  0.0256  0.0209 -0.1621
24616W        W67533  28.162  21.250  19.772 -0.0976  0.2841  0.3830
24617W        W67534  27.596  23.211  17.979  0.1691 -0.2189  0.0756
24618W        W67535  29.995  20.532  19.195  0.1474  0.0147  0.1056
24619W        W67536  27.646  24.769  21.516  0.1704  0.0893  0.0235
24620W        W67537  26.251  22.649  19.248  0.2466 -0.1025  0.0188
24621W        W67538  30.062  23.635  19.052 -0.1259  0.0111  0.1278
24622W        W67539  29.629  24.516  17.851 -0.2905 -0.1188  0.0921
24623W        W67540  26.675  22.965  18.589  0.1259 -0.0842 -0.1156
24624W        W67541  25.156  23.092  20.195 -0.2367  0.2652 -0.0127
24625W        W67542  27.565  23.629  21.898  0.1053  0.1019  0.1525
24626W        W67543  28.184  24.661  18.082 -0.0473 -0.0329 -0.1110
24627W        W67544  25.641  23.587  18.464  0.1726  0.0723 -0.1057
24628W        W67545  27.575  24.368  17.306 -0.0781  0.0615 -0.1950
24629W        W67546  27.205  26.553  23.391  0.2012 -0.1303  0.3618
24630W        W67547  24.269  21.949  21.121 -0.1356 -0.2677 -0.0455
24631W        W67548  24.599  24.140  16.846 -0.0237 -0.0783  0.4757
24632W        W67549  28.633  24.976  17.311 -0.1761 -0.0190 -0.0417
24633W        W67550  28.853  23.952  17.975 -0.1738 -0.2898 -0.2423
24634W        W67551  27.459  23.750  19.746  0.1881  0.0922  0.0014
24635W        W67552  27.831  23.159  17.488 -0.1812 -0.3328 -0.0472
24636W        W67553  27.432  24.119  18.582  0.0498 -0.2640 -0.0184
24637W        W67554  23.626  24.418  17.504 -0.1355 -0.3306 -0.1912
24638W        W67555  30.029  24.621  17.011 -0.0498 -0.0555  0.2455
24639W        W67556  25.738  24.822  17.258 -0.0079  0.0106 -0.1710
24640W        W67557  29.406  25.246  18.812 -0.4194 -0.0833  0.1082
24641W        W67558  26.236  19.790  17.637 -0.1986  0.1024 -0.0431
24642W        W67559  28.938  24.527  19.742 -0.0184  0.1523  0.0445
24643W        W67560  28.297  24.868  19.390  0.0114 -0.0141  0.2207
24644W        W67561  26.514  23.732  17.458  0.1241 -0.0748  0.2695
24645W        W67562  28.958  23.985  19.539  0.2090 -0.1047 -0.3075
24646W        W67563  25.306  20.651  16.981 -0.0157  0.0749 -0.1870
24647W        W67564  26.959  24.564  22.508  0.1951 -0.1004 -0.0342
24648W        W67565  29.850  23.071  24.101  0.1748  0.0025 -0.1023
24649W        W67566  25.047  27.375  20.868 -0.2974 -0.0818 -0.1384
24650W        W67567  28.011  25.299  18.161 -0.0282 -0.4792  0.4207
24651W        W67568  27.153  23.131  18.809  0.3410 -0.0776 -0.1876
24652W        W67569  27.692  23.676  20.162  0.1055  0.1061 -0.1297
24653W        W67570  31.222  21.753  17.780 -0.4104 -0.0598 -0.2450
24654W        W67571  27.792  25.224  19.354  0.1468  0.1539 -0.1547
24655W        W67572  27.975  22.299  18.395  0.2633 -0.0568 -0.0051
24656W        W67573  26.588  23.697  18.382 -0.0634  0.1185 -0.0846
24657W        W67574  25.590  24.155  18.410  0.2442  0.2312  0.0063
24658W        W67575  25.741  24.706  19.598  0.2554 -0.0111 -0.5501
24659W        W67576  23.881  23.900  18.427  0.0912 -0.1800  0.1558
24660W        W67577  27.954  22.346  19.988 -0.0106  0.1963  0.0159
24661W        W67578  25.463  24.951  19.971 -0.1537  0.3294  0.1215
24662W        W67579  27.413  23.569  18.426  0.1173 -0.1241 -0.1124
24663W        W67580  26.989  23.761  19.601  0.0733 -0.1222 -0.0869
24664W        W67581  29.468  21.430  19.123 -0.1747  0.2160  0.0726
24665W        W67582  29.245  24.956  19.765  0.1232 -0.0222  0.3147
24666W        W67583  26.603  21.883  19.424 -0.0429 -0.0802 -0.2126
24667W        W67584  27.318  24.616  18.704 -0.0306  0.5712 -0.1869
24668W        W67585  26.658  22.779  23.084  0.0055  0.0271 -0.1061
24669W        W67586  29.327  25.028  16.734 -0.1023  0.2736 -0.2162
24670W        W67587  28.143  23.781  19.905 -0.1359 -0.0948  0.0852
24671W        W67588  28.365  22.035  19.316 -0.0506 -0.1784 -0.1376
24672W        W67589  30.302  23.507  17.529 -0.1185 -0.1908 -0.2932
24673W        W67590  27.392  22.496  17.245 -0.0685 -0.1715  0.0521
24674W        W67591  28.415  23.723  18.131 -0.1241 -0.1688  0.0333
24675W        W67592  28.579  24.147  19.225 -0.0360 -0.2685  0.2185
24676W        W67593  27.869  23.301  19.146  0.2849 -0.1069  0.0459
24677W        W67594  29.314  25.458  17.597 -0.1096  0.3507 -0.2437
24678W        W67595  29.895  22.780  20.205 -0.0517 -0.3023  0.2350
24679W        W67596  26.206  25.516  17.263  0.1405  0.2360  0.0417
24680W        W67597  29.928  22.683  19.667  0.0993  0.0906  0.1764
24681W        W67598  28.663  24.579  19.358 -0.0215 -0.1476 -0.2267
24682W        W67599  26.179  22.437  17.776 -0.1378 -0.4313 -0.0253
24683W        W67600  28.382  25.402  19.614  0.0504  0.0222  0.0985
24684W        W67601  27.837  26.115  21.363  0.2651  0.1092  0.0078
24685W        W67602  29.155  22.362  18.694 -0.1294 -0.0987 -0.2212
24686W        W67603  28.134  23.559  17.643  0.0920  0.2003 -0.1648
24687W        W67604  26.217  25.327  18.756 -0.4189 -0.2348 -0.0104
24688W        W67605  30.083  23.598  18.572 -0.4335  0.4069 -0.0344
24689W        W67606  29.057  21.724  19.125  0.0921 -0.0511 -0.0429
24690W        W67607  26.763  27.273  17.592  0.2544 -0.2402 -0.1357
24691W        W67608  29.018  22.845  19.939 -0.0811  0.1402  0.0423
24692W        W67609  27.687  24.466  20.342  0.1578 -0.1270 -0.6166
24693W        W67610  26.644  25.147  21.765 -0.2649 -0.2100  0.1227
24694W        W67611  25.544  23.826  17.280 -0.0241  0.2001  0.2277
24695W        W67612  26.980  26.063  20.879 -0.2574  0.3491 -0.2168
24696W        W67613  27.999  22.463  18.974 -0.2514 -0.0134  0.1374
24697W        W67614  28.172  25.089  17.064 -0.0936 -0.4811 -0.0461
24698W        W67615  28.140  26.808  20.034  0.1362  0.0985  0.0089
24699W        W67616  28.463  21.623  16.904  0.1359 -0.1114 -0.1386
24700W        W67617  29.651  24.568  20.672  0.0554 -0.3054 -0.2766
24701W        W67618  28.935  23.989  20.693  0.2467 -0.0949  0.0989
24702W        W67619  31.412  22.992  18.281  0.0139  0.1883  0.2182
24703W        W67620  29.163  21.134  18.235  0.1302  0.0290 -0.2299
24704W        W67621  28.846  23.730  21.316  0.2006  0.1390  0.2829
24705W        W67622  25.315  23.360  17.320 -0.1056  0.0345 -0.0342
24706W        W67623  26.397  24.615  17.997  0.2420 -0.0151  0.0883
24707W        W67624  27.444  22.542  18.529  0.1013 -0.1358 -0.1389
24708W        W67625  28.693  20.976  21.202  0.2781  0.0935  0.1563
24709W        W67626  27.726  23.191  18.583  0.0400 -0.1973  0.1913
24710W        W67627  26.543  23.509  17.929 -0.0554  0.2580 -0.0042
24711W        W67628  26.914  23.060  17.085  0.0654  0.3074  0.2824
24712W        W67629  28.986  24.210  17.569 -0.0241 -0.0764 -0.1221
24713W        W67630  27.383  20.298  19.312 -0.2239 -0.1897 -0.4150
24714W        W67631  28.047  21.678  18.338 -0.2035  0.0818  0.2242
24715W        W67632  27.907  23.758  18.450  0.2481 -0.1670 -0.3195
24716W        W67633  29.426  25.721  18.377  0.0105 -0.0056  0.2463
24717W        W67634  28.292  21.516  17.968  0.0977 -0.0532  0.1093
24718W        W67635  27.069  23.537  21.376 -0.0527 -0.1226  0.0795
24719W        W67636  25.114  24.219  16.618 -0.2370  0.0822 -0.0008
24720W        W67637  27.947  25.766  22.173  0.0932 -0.1312  0.1481
24721W        W67638  29.223  22.237  21.328 -0.0180  0.2212 -0.2789
24722W        W67639  26.107  23.774  18.175 -0.1150 -0.2982  0.1465
24723W        W67640  26.890  22.800  18.095 -0.0743  0.0459  0.0385
24724W        W67641  25.139  26.377  18.325 -0.2670  0.0795  0.1387
24725W        W67642  28.655  26.180  17.868  0.1113 -0.1170 -0.0639
24726W        W67643  26.779  24.769  18.279  0.1283  0.2995 -0.3097
24727W        W67644  26.321  25.439  19.810  0.2134 -0.1252  0.1206
24728W        W67645  24.965  23.209  20.688 -0.2645  0.4804 -0.1460
24729W        W67646  29.843  23.099  17.713  0.4035  0.0642  0.1215
24730W        W67647  27.124  25.664  20.486 -0.2123  0.3924 -0.0604
24731W        W67648  30.106  23.196  18.142  0.1075 -0.0560 -0.1174
24732W        W67649  29.303  20.743  20.007 -0.2192 -0.0688  0.2384
24733W        W67650  29.516  24.784  18.425 -0.0157 -0.0375  0.0874
24734W        W67651  25.729  21.784  20.546  0.2834 -0.1261  0.1170
24735W        W67652  27.098  25.004  20.828 -0.1553 -0.0263  0.2162
24736W        W67653  28.939  24.166  20.206 -0.0330 -0.0886 -0.1419
24737W        W67654  27.095  21.459  18.089 -0.1072  0.1303  0.1890
24738W        W67655  28.961  22.983  17.826  0.0063  0.0225  0.1192
24739W        W67656  26.622  25.347  17.108 -0.4810  0.2878 -0.0191
24740W        W67657  24.604  23.915  18.123  0.0371  0.0340  0.2247
24741W        W67658  28.510  23.311  17.828  0.1124 -0.0025  0.0294
24742W        W67659  27.721  23.507  20.957 -0.0531  0.1290 -0.0414
24743W        W67660  28.496  23.733  20.833 -0.3574 -0.0564  0.0739
24744W        W67661  28.484  24.022  20.314  0.0295 -0.2687 -0.1760
24745W        W67662  27.498  24.083  17.705  0.1685 -0.0682  0.1787
24746W        W67663  29.812  24.415  18.289 -0.0407  0.2049 -0.0395
24747W        W67664  28.195  24.543  20.677  0.2183 -0.1694  0.0536
24748W        W67665  29.984  24.407  19.009 -0.1941 -0.0004 -0.1645
24749W        W67666  25.378  24.348  20.339  0.2738  0.1318 -0.0079
24750W        W67667  28.200  22.935  18.985 -0.0921 -0.3185 -0.0232
24751W        W67668  25.944  23.588  19.294 -0.1421 -0.0624  0.2399
24752W        W67669  26.572  23.404  18.847 -0.2762  0.2398 -0.1334
24753W        W67670  27.714  26.176  19.207 -0.1285 -0.1845  0.2211
24754W        W67671  27.455  25.015  19.007  0.2183 -0.2062 -0.0371
24755W        W67672  27.828  23.747  19.370 -0.2965 -0.1341  0.0370
24756W        W67673  26.435  20.688  18.051  0.0313  0.1966 -0.0638
24757W        W67674  25.074  27.181  19.269 -0.0175  0.1441  0.0346
24758W        W67675  25.915  23.525  20.366 -0.1621 -0.0882  0.0851
24759W        W67676  25.858  27.389  23.615  0.2043  0.0572  0.1909
24760W        W67677  26.306  21.470  21.413  0.0317  0.1351 -0.1089
24761W        W67678  28.312  23.688  22.361 -0.0391 -0.0112 -0.0011
24762W        W67679  28.603  23.645  22.924  0.1796  0.2147 -0.1882
24763W        W67680  27.014  21.509  21.821  0.2515  0.0458  0.1158
24764W        W67681  28.276  25.599  21.333 -0.3161 -0.1491  0.0979
24765W        W67682  26.585  23.441  25.419  0.2404 -0.1311  0.2719
24766W        W67683  29.047  24.682  23.733  0.0092  0.1731  0.0626
24767W        W67684  27.889  26.286  23.940  0.3409 -0.2027 -0.0866
24768W        W67685  29.132  24.587  20.587  0.1413 -0.1346 -0.2156
24769W        W67686  26.040  24.930  22.666  0.1080 -0.1794  0.1678
24770W        W67687  26.155  25.194  23.034 -0.0635  0.0172  0.2123
24771W        W67688  26.482  21.700  23.203  0.3807  0.2516 -0.1459
24772W        W67689  25.239  23.348  24.712  0.0064 -0.2318  0.1743
24773W        W67690  28.532  24.489  21.551 -0.0434 -0.2095 -0.2172
24774W        W67691  25.064  23.683  22.165  0.0651  0.2562 -0.2142
24775W        W67692  26.215  23.567  23.304  0.0102  0.0841  0.0430
24776W        W67693  26.170  24.523  23.106  0.1920 -0.2236 -0.3203
24777W        W67694  27.001  28.000  22.061 -0.3490  0.1147  0.0284
24778W        W67695  28.158  22.578  23.011  0.0230 -0.2506 -0.2070
24779W        W67696  26.566  23.022  25.822 -0.0268  0.3079  0.0535
24780W        W67697  28.243  27.354  21.704 -0.0857  0.1087 -0.1131
24781W        W67698  25.801  24.654  20.181 -0.0305  0.1671  0.0566
24782W        W67699  25.750  25.009  21.883 -0.0040 -0.1241  0.0325
24783W        W67700  24.899  23.227  22.145  0.0523 -0.0031 -0.1349
24784W        W67701  28.892  23.402  23.690 -0.0208 -0.0145 -0.1828
24785W        W67702  28.472  23.248  22.602 -0.1023 -0.0230  0.1828
24786W        W67703  26.453  28.235  21.885  0.4389 -0.1601 -0.1177
24787W        W67704  25.559  24.116  21.643 -0.2403 -0.2454  0.0573
24788W        W67705  29.344  23.536  23.115  0.1349  0.2092  0.0060
24789W        W67706  26.586  23.857  23.650 -0.0579 -0.2886  0.2765
24790W        W67707  24.884  25.846  21.446 -0.5947 -0.2520  0.5674
24791W        W67708  26.459  22.443  20.283 -0.0241 -0.0491 -0.0150
24792W        W67709  28.423  26.815  21.247  0.0564 -0.0777  0.2069
24793W        W67710  26.924  25.998  22.936  0.1978 -0.1918 -0.1595
24794W        W67711  26.715  26.440  22.439 -0.1268  0.1494  0.2393
24795W        W67712  26.442  25.132  20.830 -0.1461  0.3461  0.2176
24796W        W67713  28.704  26.150  23.731 -0.1561  0.2326  0.0668
24797W        W67714  25.559  24.925  23.685 -0.0449 -0.0046  0.1374
24798W        W67715  29.857  24.698  24.309  0.0604 -0.2646  0.1042
24799W        W67716  28.976  25.215  20.591  0.0845 -0.1149  0.0194
24800W        W67717  27.872  26.028  20.819 -0.2831  0.2105  0.2978
24801W        W67718  26.880  26.197  23.850 -0.0517 -0.0244 -0.1341
24802W        W67719  25.902  24.137  23.332 -0.1474  0.0087 -0.0356
24803W        W67720  25.575  24.649  21.445  0.1573 -0.0895  0.0718
24804W        W67721  29.702  21.720  25.031  0.1849  0.1777  0.1270
24805W        W67722  27.178  26.964  21.745  0.0692  0.1707  0.4990
24806W        W67723  29.065  23.283  20.155  0.0199  0.0123  0.1656
24807W        W67724  27.838  24.466  18.651 -0.2459 -0.1597 -0.1151
24808W        W67725  28.609  22.651  20.651 -0.2288  0.1999 -0.3103
24809W        W67726  26.035  21.857  22.994  0.1238  0.1860  0.2278
24810W        W67727  24.361  26.041  21.975 -0.0238  0.1125  0.3357
24811W        W67728  26.780  23.212  20.996 -0.2954 -0.1090 -0.1698
24812W        W67729  29.532  23.481  24.092 -0.0550  0.2066  0.0094
24813W        W67730  26.074  23.335  21.186  0.0107 -0.0479  0.2749
24814W        W67731  28.441  21.152  25.053 -0.0556  0.1284  0.0596
24815W        W67732  25.249  25.764  23.254 -0.1889  0.1671  0.0243
24816W        W67733  27.276  21.575  21.370 -0.0572 -0.1918  0.2224
24817W        W67734  26.718  26.019  20.259 -0.1009 -0.0391 -0.2969
24818W        W67735  29.594  25.592  24.002  0.0621  0.0102  0.0037
24819W        W67736  27.032  25.583  21.800 -0.1367  0.0099 -0.0497
24820W        W67737  26.516  23.063  22.040  0.4322  0.1320 -0.2005
24821W        W67738  25.057  24.168  23.995 -0.2185 -0.0418  0.0737
24822W        W67739  22.222  24.567  24.458  0.0556 -0.2574 -0.2082
24823W        W67740  26.757  24.112  22.639 -0.1637  0.0200 -0.1276
24824W        W67741  28.276  25.224  25.497 -0.0477  0.0795  0.4445
24825W        W67742  24.926  24.124  25.090 -0.0278 -0.2430  0.1656
24826W        W67743  31.727  22.992  22.328 -0.2501 -0.1740 -0.2664
24827W        W67744  27.376  25.142  23.558  0.1659  0.1990 -0.0461
24828W        W67745  28.045  24.258  23.386 -0.0301  0.1374  0.1292
24829W        W67746  28.642  24.116  22.176  0.1140 -0.2077 -0.0911
24830W        W67747  28.989  22.938  23.682 -0.4329 -0.0181  0.1178
24831W        W67748  29.052  22.582  22.921  0.1068 -0.0038  0.0029
24832W        W67749  29.409  22.796  20.317  0.1588 -0.0472 -0.0315
24833W        W67750  26.488  24.330  21.339 -0.1154 -0.3799  0.1135
24834W        W67751  27.605  24.644  23.737  0.1290 -0.1324 -0.1830
24835W        W67752  29.296  23.744  19.090  0.0534 -0.2414  0.0579
24836W        W67753  26.914  27.380  21.562  0.1315  0.2747 -0.0416
24837W        W67754  29.254  25.698  24.534  0.3747  0.5193 -0.0318
24838W        W67755  25.412  25.462  24.909  0.1680  0.0046  0.1509
24839W        W67756  25.452  27.687  20.067  0.1867  0.1274  0.0571
24840W        W67757  26.522  23.716  21.341  0.2322 -0.0755 -0.1421
24841W        W67758  26.420  23.502  20.332 -0.4436  0.2602 -0.1958
24842W        W67759  27.161  22.932  23.134 -0.1057  0.0245 -0.1187
24843W        W67760  27.837  26.487  22.374 -0.2980 -0.0224 -0.1034
24844W        W67761  29.031  20.779  19.590 -0.0685  0.0330  0.0316
24845W        W67762  25.746  23.260  24.633 -0.3571  0.0163 -0.0179
24846W        W67763  28.866  22.077  21.627  0.2229 -0.0341  0.0652
24847W        W67764  26.798  24.005  21.744 -0.2635  0.0447 -0.0872
24848W        W67765  28.407  23.649  19.526  0.3725 -0.0114 -0.0236
24849W        W67766  29.077  24.865  20.971 -0.1181 -0.0337  0.0421
24850W        W67767  27.500  24.250  21.255 -0.1364 -0.1166  0.0873
24851W        W67768  24.800  23.725  23.020  0.1753  0.1197 -0.1070
24852W        W67769  25.395  24.510  23.956  0.1052  0.3535  0.0052
24853W        W67770  26.956  22.372  25.477  0.1837 -0.1688  0.0685
24854W        W67771  27.778  21.613  21.514 -0.3630 -0.0769  0.2611
24855W        W67772  29.570  22.688  22.947  0.0158  0.0786 -0.2406
24856W        W67773  28.565  22.799  20.116 -0.0039 -0.1848  0.0964
24857W        W67774  28.895  21.996  23.975  0.2168  0.1490  0.1165
24858W        W67775  26.602  24.848  23.800  0.5271 -0.1390  0.3752
24859W        W67776  25.944  22.369  19.011 -0.1781  0.1165 -0.0363
24860W        W67777  31.679  22.665  23.132 -0.1527  0.1806  0.4259
24861W        W67778  28.310  26.367  21.637 -0.1918 -0.2455  0.0610
24862W        W67779  29.438  27.733  21.441  0.4048  0.1671 -0.0119
24863W        W67780  27.544  28.904  20.684  0.3398  0.0676  0.0865
24864W        W67781  25.070  24.907  23.997 -0.2338  0.0308  0.0733
24865W        W67782  27.794  23.205  19.673  0.0553  0.2162  0.1048
24866W        W67783  25.875  27.470  21.066  0.2278 -0.3090  0.2268
24867W        W67784  25.473  24.810  22.258 -0.1124  0.0368  0.3897
24868W        W67785  30.464  24.217  21.828 -0.0668 -0.3443 -0.0438
24869W        W67786  27.971  25.025  21.102  0.0325 -0.0801 -0.1479
24870W        W67787  26.518  26.028  21.896 -0.0318  0.1826 -0.0777
24871W        W67788  25.639  25.847  22.380  0.2708 -0.2602  0.1428
24872W        W67789  26.809  22.784  24.889  0.0149 -0.0356  0.0991
24873W        W67790  27.482  21.297  21.922  0.0816  0.1135 -0.6728
24874W        W67791  28.875  23.689  19.929  0.1829  0.0000 -0.2656
24875W        W67792  25.762  22.600  18.564  0.1062  0.2897 -0.2229
24876W        W67793  26.640  26.420  21.150  0.1297 -0.0040  0.1055
24877W        W67794  24.217  24.235  21.709 -0.0483 -0.0812  0.1818
24878W        W67795  24.419  22.671  22.730  0.0756 -0.1169  0.4433
24879W        W67796  24.993  24.256  22.255 -0.4060  0.0208 -0.0785
24880W        W67797  30.936  22.964  24.002 -0.0851 -0.3806  0.0128
24881W        W67798  26.546  24.297  25.361  0.1903  0.0322 -0.3060
24882W        W67799  28.408  23.910  24.331 -0.0222 -0.0762  0.0805
24883W        W67800  25.071  24.059  21.010 -0.0907  0.0918  0.0713
24884W        W67801  25.493  25.903  24.626 -0.1125  0.4137  0.0534
24885W        W67802  27.726  22.084  21.491  0.0666 -0.2173  0.1832
24886W        W67803  29.023  22.419  19.689 -0.0101 -0.0544 -0.0582
24887W        W67804  26.985  23.250  24.967  0.1556 -0.2227 -0.1948
24888W        W67805  28.767  25.055  21.297 -0.1345  0.3915 -0.2468
24889W        W67806  26.745  23.274  22.861 -0.1007 -0.1159  0.0303
24890W        W67807  26.032  22.149  20.842 -0.2203 -0.0011  0.1454
24891W        W67808  23.535  26.005  23.984 -0.2610 -0.2162 -0.1896
24892W        W67809  28.326  25.088  22.322  0.0234 -0.1968 -0.3088
24893W        W67810  27.596  26.389  22.819 -0.0306  0.2804 -0.0928
24894W        W67811  28.936  21.946  23.006 -0.1447  0.0540  0.0151
24895W        W67812  28.739  26.562  20.866  0.3059 -0.2307 -0.2392
24896W        W67813  24.387  23.624  22.744  0.0909  0.0738  0.2162
24897W        W67814  28.457  23.565  23.901  0.0194 -0.2704  0.4994
24898W        W67815  28.686  27.304  22.666 -0.0766 -0.2203 -0.1239
24899W        W67816  26.732  23.534  21.768  0.0922  0.0593 -0.2366
24900W        W67817  24.265  25.008  21.264  0.1877  0.0058  0.1581
24901W        W67818  29.123  22.567  21.798 -0.0734  0.0650  0.0523
24902W        W67819  22.897  24.336  20.548 -0.0389 -0.1249  0.0170
24903W        W67820  29.477  22.705  23.552 -0.4967  0.0538  0.1366
24904W        W67821  30.818  23.391  23.805  0.0741  0.0722 -0.1557
24905W        W67822  26.070  23.415  25.257 -0.0909  0.1212 -0.2375
24906W        W67823  27.161  24.254  22.979 -0.0412 -0.2981  0.1539
24907W        W67824  27.471  24.616  21.979  0.0702 -0.2196  0.1102
24908W        W67825  26.146  21.999  23.503 -0.1286 -0.1534  0.0701
24909W        W67826  26.616  24.302  20.669 -0.2738 -0.1031  0.2518
24910W        W67827  30.137  23.315  24.447  0.0545  0.3158 -0.4890
24911W        W67828  26.264  24.163  22.793 -0.0358 -0.2672  0.0626
24912W        W67829  24.860  25.412  23.398  0.0192  0.0287 -0.1081
24913W        W67830  27.700  25.372  23.285  0.1768 -0.3102 -0.1841
24914W        W67831  29.362  23.313  22.183  0.0576 -0.3052 -0.0823
24915W        W67832  25.447  23.829  24.108  0.5859 -0.0449  0.3802
24916W        W67833  26.893  19.880  19.864  0.3258  0.0324  0.2208
24917W        W67834  25.851  25.709  20.488 -0.0042 -0.0819 -0.1576
24918W        W67835  27.717  24.375  22.994  0.0589  0.1242  0.0204
24919W        W67836  26.957  23.255  22.206  0.0088  0.2540  0.0332
24920W        W67837  28.291  26.163  22.625 -0.0938  0.3418 -0.2635
24921W        W67838  26.929  24.176  19.973  0.0616 -0.6117 -0.0206
24922W        W67839  26.559  24.987  22.777 -0.4253 -0.1739  0.0561
24923W        W67840  24.488  25.639  21.675 -0.3847  0.4456  0.0841
24924W        W67841  28.047  21.763  24.274  0.4484  0.1347  0.0929
24925W        W67842  26.512  24.465  22.002 -0.0573 -0.0225 -0.0679
24926W        W67843  26.173  24.143  22.240  0.0058  0.2733 -0.2036
24927W        W67844  25.957  23.857  21.401  0.1237  0.1249 -0.0843
24928W        W67845  26.539  22.324  22.432 -0.0210  0.5263  0.0249
24929W        W67846  27.843  25.009  22.032  0.0166 -0.0584  0.1214
24930W        W67847  23.951  24.707  24.246  0.1875  0.1225  0.0364
24931W        W67848  26.483  23.374  22.398  0.0304 -0.0596  0.0108
24932W        W67849  26.015  26.416  22.854  0.0340  0.0289  0.2622
24933W        W67850  28.434  25.433  22.996 -0.1548  0.1432 -0.0871
24934W        W67851  29.278  24.327  21.001  0.0874  0.3210 -0.1721
24935W        W67852  27.533  27.403  23.788  0.0991 -0.1697 -0.2365
24936W        W67853  24.604  25.047  23.158  0.0738  0.2338 -0.1137
24937W        W67854  26.409  22.904  21.164  0.1298  0.1284  0.1235
24938W        W67855  29.810  23.878  21.571  0.3165  0.2845  0.1975
24939W        W67856  27.092  23.719  22.106  0.0785 -0.2270 -0.2284
24940W        W67857  22.794  23.561  21.748  0.1107  0.0361  0.0101
24941W        W67858  26.575  25.968  22.422  0.1034  0.0208  0.0389
24942W        W67859  26.236  23.563  21.925  0.0069  0.0473  0.2086
24943W        W67860  26.536  25.678  20.639  0.1105 -0.2539 -0.0972
24944W        W67861  25.717  21.384  22.854  0.0035  0.2459 -0.1642
24945W        W67862  29.627  24.267  24.368  0.0606  0.1493 -0.2628
24946W        W67863  29.080  23.454  20.702 -0.1860  0.0528 -0.1104
24947W        W67864  26.006  22.151  22.107 -0.2639 -0.4058 -0.3586
24948W        W67865  27.527  25.480  21.943 -0.1805  0.2631  0.0502
24949W        W67866  28.753  24.075  24.066  0.3275 -0.0508 -0.1093
24950W        W67867  28.139  21.240  25.856  0.2243  0.0738  0.1356
24951W        W67868  26.422  25.880  25.004  0.3201  0.2628 -0.1598
24952W        W67869  25.967  21.182  23.556  0.3232 -0.1486  0.0282
24953W        W67870  27.042  26.961  21.260  0.0494  0.1423 -0.1440
24954W        W67871  27.145  25.456  24.181  0.0057  0.0601 -0.0421
24955W        W67872  26.012  21.886  21.627 -0.1569 -0.1962 -0.0335
24956W        W67873  26.051  23.910  23.751  0.1903  0.2393  0.3162
24957W        W67874  24.284  25.421  23.607 -0.0346 -0.2540  0.0527
24958W        W67875  27.653  22.565  23.414  0.0836  0.3938  0.2646
24959W        W67876  24.283  26.048  22.955  0.0200  0.2286 -0.2906
24960W        W67877  27.376  25.627  20.902 -0.0944 -0.0946 -0.1246
24961W        W67878  25.617  26.401  23.325  0.1545 -0.2670 -0.2268
24962W        W67879  29.326  21.806  21.613 -0.2229 -0.1486 -0.2641
24963W        W67880  27.203  23.148  21.729  0.0821 -0.2345  0.1033
24964W        W67881  27.436  25.939  21.653  0.1742 -0.2296  0.2792
24965W        W67882  30.258  21.542  22.416  0.0592 -0.2356 -0.1201
24966W        W67883  28.951  22.936  20.500 -0.1079  0.0766 -0.1113
24967W        W67884  30.004  21.254  23.699  0.0647  0.0474  0.2967
24968W        W67885  27.721  23.636  22.385 -0.0247 -0.1224  0.0342
24969W        W67886  29.983  25.327  22.005 -0.0753  0.4368  0.1628
24970W        W67887  25.787  21.443  21.527  0.0334  0.3316  0.1678
24971W        W67888  28.395  24.869  24.485 -0.2710 -0.1067 -0.0860
24972W        W67889  27.421  24.988  24.116 -0.0140 -0.0528  0.0121
24973W        W67890  26.958  22.796  21.160  0.1784 -0.1057 -0.1637
24974W        W67891  25.175  23.463  18.660 -0.0562 -0.3092  0.3421
24975W        W67892  27.744  22.905  23.052 -0.0650 -0.1511 -0.1317
24976W        W67893  28.550  25.474  20.498 -0.0934 -0.0704  0.0239
24977W        W67894  26.456  24.583  22.482 -0.0855 -0.0068  0.0972
24978W        W67895  30.467  20.553  22.497 -0.1642  0.1417  0.0307
24979W        W67896  28.113  22.811  23.470 -0.0234  0.2175  0.0954
24980W        W67897  28.343  22.877  21.244 -0.0972  0.1552 -0.1714
24981W        W67898  26.734  23.051  21.591  0.0895  0.4411 -0.1433
24982W        W67899  25.533  23.628  21.304 -0.0625 -0.0627 -0.0914
24983W        W67900  25.895  23.260  23.698 -0.1642  0.1614  0.1609
24984W        W67901  27.773  24.303  21.684  0.2095  0.3070 -0.0465
24985W        W67902  26.351  23.450  23.747  0.0259 -0.3435 -0.4747
24986W        W67903  28.084  23.482  24.252  0.1007  0.4012 -0.2270
24987W        W67904  28.045  23.325  23.741  0.0182 -0.2946  0.2254
24988W        W67905  28.043  23.249  22.239  0.2409 -0.0733  0.0241
24989W        W67906  28.106  23.944  23.025  0.0482  0.0557  0.1279
24990W        W67907  28.905  27.051  23.672  0.3366 -0.0190 -0.2052
24991W        W67908  30.528  22.438  19.301  0.2187  0.0225  0.0131
24992W        W67909  29.734  21.341  22.097 -0.2415  0.1300  0.0629
24993W        W67910  29.560  23.010  19.863 -0.2956 -0.1799 -0.0125
24994W        W67911  28.092  24.696  21.735 -0.1338 -0.0019  0.2175
24995W        W67912  27.299  20.540  21.609 -0.1449 -0.0927  0.0395
24996W        W67913  27.203  23.901  24.043 -0.3904  0.1133 -0.1366
24997W        W67914  28.264  22.141  20.302 -0.1497 -0.2603 -0.1215
24998W        W67915  27.150  22.613  22.722  0.0224 -0.0162 -0.1748
24999W        W67916  27.164  26.266  22.572 -0.4032  0.0669 -0.0043
25000W        W67917  27.804  26.820  22.930  0.3018  0.0348 -0.3243
25001W        W67918  28.883  22.865  20.994  0.0768  0.0804  0.0814
25002W        W67919  25.651  22.307  21.152  0.0785 -0.2106 -0.2603
25003W        W67920  25.769  25.359  23.885 -0.1203 -0.1063 -0.1216
25004W        W67921  25.729  24.090  20.602 -0.0030 -0.1352 -0.0741
25005W        W67922  26.468  22.423  20.957  0.0407  0.1246 -0.0385
25006W        W67923  26.407  26.203  24.331 -0.1735 -0.0375  0.0900
25007W        W67924  29.702  24.059  22.658  0.0132 -0.0733 -0.0256
25008W        W67925  28.469  21.615  21.973 -0.1350 -0.0169  0.1409
25009W        W67926  29.895  23.455  23.687 -0.0199 -0.0236  0.0007
25010W        W67927  26.385  23.514  20.844  0.1836  0.5798 -0.1079
25011W        W67928  28.249  20.687  22.451 -0.0187  0.6126 -0.0543
25012W        W67929  26.782  26.752  20.818 -0.0110 -0.0811  0.2492
25013W        W67930  26.914  25.735  25.696 -0.0067 -0.2605 -0.1263
25014W        W67931  25.059  25.844  22.768 -0.1727 -0.1335 -0.3038
25015W        W67932  28.036  23.135  24.637 -0.1840 -0.0382 -0.0132
25016W        W67933  28.007  21.595  23.304 -0.0842  0.2782 -0.1833
25017W        W67934  29.515  24.228  21.847 -0.3061  0.0827 -0.0558
25018W        W67935  29.225  23.095  24.215  0.0508 -0.1142  0.2286
25019W        W67936  27.312  26.922  23.072  0.1293  0.2257  0.1316
25020W        W67937  27.961  24.525  22.157 -0.2780 -0.0924  0.0216
25021W        W67938  26.621  27.244  20.920 -0.1143 -0.3684  0.2595
25022W        W67939  28.516  24.114  23.619  0.0312  0.2945  0.0251
25023W        W67940  29.306  26.279  22.476  0.0915  0.1897  0.1428
25024W        W67941  27.861  23.628  25.144  0.3134  0.2163  0.2962
25025W        W67942  26.697  24.082  23.148 -0.0441 -0.3789  0.2070
25026W        W67943  27.349  24.391  23.424 -0.3379  0.3198 -0.1921
25027W        W67944  27.086  23.986  23.473 -0.1460 -0.0034 -0.1460
25028W        W67945  28.795  23.330  23.207  0.0068 -0.0337 -0.1102
25029W        W67946  24.400  24.953  22.130 -0.0325 -0.2378  0.0607
25030W        W67947  25.038  22.434  21.947  0.0133  0.2212 -0.2077
25031W        W67948  26.153  24.335  20.496  0.2065  0.1073  0.1545
25032W        W67949  26.921  26.560  21.514  0.0842  0.1484 -0.0503
25033W        W67950  28.070  25.398  20.201  0.3389 -0.1149  0.1912
25034W        W67951  27.988  26.848  21.493 -0.0458  0.2471 -0.0659
25035W        W67952  25.936  22.780  21.310  0.2473 -0.2984 -0.1058
25036W        W67953  24.406  25.897  20.729 -0.3539 -0.1567  0.1368
25037W        W67954  25.941  24.980  21.305 -0.2308  0.0097  0.0880
25038W        W67955  28.645  23.457  20.428 -0.4609  0.0385 -0.3774
25039W        W67956  23.989  25.583  20.888 -0.0304  0.1467  0.1316
25040W        W67957  27.229  25.634  24.813 -0.0828 -0.0512 -0.1707
25041W        W67958  29.168  19.316  20.528  0.1444  0.2078 -0.0540
25042W        W67959  29.132  23.995  24.507  0.1020 -0.1209  0.0670
25043W        W67960  29.233  23.839  23.939 -0.1397 -0.0906 -0.1459
25044W        W67961  25.077  26.157  25.446  0.0835  0.0125  0.1750
25045W        W67962  28.162  22.317  23.652  0.1945  0.0850  0.1077
25046W        W67963  28.037  21.835  21.971  0.0905  0.2183  0.2181
25047W        W67964  24.971  26.329  23.969  0.1574  0.0391 -0.0486
25048W        W67965  27.015  22.994  25.507  0.2334 -0.3589  0.0641
25049W        W67966  27.234  25.552  23.143 -0.1329  0.2018  0.0540
25050W        W67967  29.811  24.828  20.236 -0.0199  0.0561  0.0393
25051W        W67968  25.633  23.903  20.119  0.0024 -0.2868 -0.0872
25052W        W67969  28.246  25.430  21.861 -0.1023 -0.0524  0.2196
25053W        W67970  28.785  21.131  23.217  0.2053  0.0165 -0.3235
25054W        W67971  28.119  23.503  22.818  0.0563  0.0436  0.0934
25055W        W67972  28.645  23.258  20.861 -0.1177  0.2990 -0.2292
25056W        W67973  25.804  24.530  22.781 -0.0111 -0.0252 -0.0660
25057W        W67974  26.824  23.138  23.987  0.1612 -0.0318  0.1206
25058W        W67975  27.428  25.601  22.532  0.0257  0.0195 -0.1839
25059W        W67976  28.145  23.168  21.617 -0.1914  0.2026 -0.2252
25060W        W67977  29.576  24.371  23.371 -0.2799  0.0087  0.0297
25061W        W67978  25.541  23.168  24.166  0.1675  0.0078  0.1989
25062W        W67979  31.264  23.714  23.033 -0.1132 -0.0897  0.2336
25063W        W67980  27.036  24.097  21.253 -0.1170 -0.0615  0.1945
25064W        W67981  26.592  23.816  22.209  0.0791  0.1094  0.0104
25065W        W67982  27.631  23.783  22.877 -0.0914 -0.1015  0.2946
25066W        W67983  27.128  23.612  22.686 -0.2774 -0.1852 -0.1517
25067W        W67984  26.796  22.814  22.499  0.0182 -0.1713  0.1338
25068W        W67985  31.010  23.309  23.311  0.0815 -0.0387  0.2890
25069W        W67986  27.335  23.199  21.112  0.1136  0.0509  0.0018
25070W        W67987  26.653  25.000  24.645 -0.0453 -0.0339  0.1328
25071W        W67988  26.580  23.038  20.580  0.1254  0.4271  0.1953
25072W        W67989  28.798  22.476  22.162 -0.0501 -0.0505 -0.1291
25073W        W67990  23.945  23.378  21.758 -0.4883 -0.1060  0.2187
25074W        W67991  26.416  25.200  24.163 -0.0717 -0.0842 -0.0571
25075W        W67992  27.984  25.147  22.938  0.2044  0.1458 -0.2267
25076W        W67993  26.990  22.293  20.920 -0.1438 -0.1287 -0.0835
25077W        W67994  28.827  24.213  21.207  0.3038  0.0009 -0.2025
25078W        W67995  29.544  23.836  22.213  0.0616  0.0360 -0.2123
25079W        W67996  27.870  27.252  20.015 -0.0104  0.5223  0.1070
25080W        W67997  29.315  24.531  20.143  0.2258  0.0821 -0.1722
25081W        W67998  28.708  26.720  22.201 -0.0150  0.2453  0.0235
25082W        W67999  26.235  26.284  22.227  0.1250  0.1146 -0.0187
25083W        W68000  27.051  24.902  23.142  0.1325  0.3223 -0.0394
25084W        W68001  27.925  24.762  22.637  0.2403 -0.0961 -0.1921
25085W        W68002  27.531  22.779  22.474  0.1814  0.0707 -0.0915
25086W        W68003  26.113  23.721  22.491  0.0084 -0.1216 -0.2471
25087W        W68004  24.140  26.589  21.336 -0.2231 -0.1302 -0.2917
25088W        W68005  29.307  21.942  20.859 -0.2732 -0.4656 -0.0108
25089W        W68006  28.700  23.111  24.035  0.1949  0.1005 -0.1586
25090W        W68007  25.564  23.588  22.184 -0.0039 -0.0982 -0.0949
25091W        W68008  28.235  22.567  24.344 -0.0447  0.1848 -0.2463
25092W        W68009  24.824  24.944  23.609 -0.0061  0.1485  0.1658
25093W        W68010  25.366  26.210  26.701 -0.1296  0.0776 -0.0271
25094W        W68011  28.226  24.138  21.786  0.0328  0.3129 -0.0597
25095W        W68012  25.408  25.254  24.211 -0.0931 -0.1335  0.2666
25096W        W68013  24.729  26.225  22.690  0.1159 -0.2559  0.0741
25097W        W68014  26.738  24.529  22.925 -0.0675 -0.1858 -0.0534
25098W        W68015  27.574  24.458  24.732 -0.1661 -0.0203 -0.1034
25099W        W68016  27.470  21.172  21.175 -0.1693 -0.0597 -0.2705
25100W        W68017  29.360  24.346  23.895 -0.0975  0.1875  0.1217
25101W        W68018  26.322  24.010  21.721  0.0380 -0.1380  0.0869
25102W        W68019  29.951  24.200  23.027 -0.1125  0.0661  0.1174
25103W        W68020  25.884  22.667  20.854  0.0446  0.3194 -0.2136
25104W        W68021  28.378  23.012  23.053  0.0130 -0.2314 -0.3245
25105W        W68022  24.720  25.177  20.342 -0.0216 -0.2324  0.0292
25106W        W68023  26.768  24.662  21.580  0.0460  0.4351  0.1938
25107W        W68024  26.035  25.225  22.247 -0.0721 -0.0700  0.1897
25108W        W68025  26.154  22.479  23.436 -0.1485 -0.2631 -0.2930
25109W        W68026  24.946  25.294  22.949  0.0576 -0.0666 -0.0467
25110W        W68027  26.495  23.692  22.802  0.4159 -0.0534  0.1461
25111W        W68028  25.268  23.150  22.580  0.1141 -0.1176  0.1133
25112W        W68029  28.365  24.083  21.279 -0.0796 -0.1659  0.2134
25113W        W68030  25.742  23.229  23.145  0.0560  0.2769  0.1732
25114W        W68031  26.781  23.761  20.916  0.3398  0.2837  0.1340
25115W        W68032  28.567  26.888  21.716 -0.2123  0.0011  0.0549
25116W        W68033  28.591  25.905  22.164  0.1798 -0.0893 -0.0710
25117W        W68034  28.177  22.436  22.513  0.2986 -0.3373  0.0270
25118W        W68035  29.046  24.448  24.270 -0.0155  0.3691 -0.1273
25119W        W68036  25.608  22.972  20.526  0.2319  0.5690 -0.1065
25120W        W68037  26.816  23.625  23.236 -0.0462 -0.3391  0.2388
25121W        W68038  28.758  22.292  24.394 -0.1457  0.1249 -0.1293
25122W        W68039  24.920  22.598  21.386 -0.1247 -0.3379 -0.0279
25123W        W68040  26.310  24.245  23.549 -0.0130  0.0624 -0.0339
25124W        W68041  28.505  24.724  21.079 -0.1073  0.0229 -0.1750
25125W        W68042  27.847  25.222  21.550  0.1978 -0.1208 -0.2181
25126W        W68043  27.185  23.116  22.629  0.4468 -0.1115  0.4284
25127W        W68044  28.853  23.557  24.240  0.1432  0.1181  0.2656
25128W        W68045  22.823  23.666  24.580 -0.2123  0.1897 -0.2461
25129W        W68046  27.760  22.928  21.089 -0.3229  0.1758  0.0433
25130W        W68047  26.235  24.608  24.037  0.1762 -0.0464 -0.0815
25131W        W68048  29.040  25.844  21.979  0.0892 -0.0731 -0.1605
25132W        W68049  28.375  20.529  23.052  0.0498 -0.0056  0.0202
25133W        W68050  28.722  25.354  21.720 -0.2113  0.0814 -0.1789
25134W        W68051  24.814  22.368  25.079  0.0695  0.1640 -0.0217
25135W        W68052  24.806  25.375  23.883  0.1319  0.1446 -0.1356
25136W        W68053  30.196  24.254  24.460  0.0806 -0.2273  0.0561
25137W        W68054  28.610  22.681  22.632  0.2096 -0.0643  0.0388
25138W        W68055  29.191  21.885  23.602  0.2545 -0.3822 -0.0212
25139W        W68056  28.869  25.297  18.894 -0.1066 -0.2485  0.2552
25140W        W68057  27.403  25.937  22.942  0.2056 -0.2481  0.3248
25141W        W68058  28.147  25.906  20.395  0.1324 -0.0488 -0.0398
25142W        W68059  27.277  22.366  24.355 -0.1174 -0.2326 -0.0795
25143W        W68060  28.368  23.668  23.401 -0.1298 -0.1609  0.2404
25144W        W68061  27.876  24.866  24.590  0.0053 -0.2975 -0.2902
25145W        W68062  28.207  26.228  22.155 -0.2255 -0.0793  0.0381
25146W        W68063  28.725  24.692  23.030 -0.2181  0.4336 -0.1778
25147W        W68064  26.519  24.905  23.332 -0.3147 -0.1866  0.1377
25148W        W68065  29.978  25.517  24.893  0.2861  0.0101  0.0493
25149W        W68066  27.772  26.007  22.584 -0.0372 -0.1631 -0.0554
25150W        W68067  28.509  24.576  24.079 -0.3058  0.0651 -0.0755
25151W        W68068  26.229  23.028  23.352  0.2108  0.1322 -0.3776
25152W        W68069  25.059  21.676  22.246  0.1774  0.0464 -0.2632
25153W        W68070  25.819  25.981  23.028  0.0033 -0.0576  0.1507
25154W        W68071  29.059  22.445  23.742 -0.1365  0.0445 -0.0718
25155W        W68072  26.091  21.843  22.488  0.0650  0.1958 -0.2608
25156W        W68073  31.584  22.893  24.626 -0.2988 -0.0831 -0.1315
25157W        W68074  25.297  22.997  23.438 -0.1151 -0.0524 -0.0726
25158W        W68075  28.587  23.280  22.059 -0.2976 -0.1341 -0.0431
25159W        W68076  26.286  25.438  29.279  0.0291 -0.2059  0.2180
25160W        W68077  26.468  23.384  24.923 -0.4244 -0.1895 -0.2066
25161W        W68078  28.546  23.357  26.048  0.1831  0.0246  0.0816
25162W        W68079  28.900  23.892  24.990 -0.1519  0.0831  0.0746
25163W        W68080  24.161  21.382  26.391  0.2509 -0.3000  0.3987
25164W        W68081  28.297  24.709  25.531  0.0190  0.0274  0.0333
25165W        W68082  25.724  21.552  26.339 -0.0036 -0.1831  0.0476
25166W        W68083  28.337  23.431  27.067 -0.1614 -0.3209 -0.2517
25167W        W68084  28.624  23.061  27.438 -0.2632  0.1109 -0.0798
25168W        W68085  27.664  23.259  22.700 -0.0583 -0.1716  0.0168
25169W        W68086  27.656  23.371  26.376  0.0956  0.0201  0.1076
25170W        W68087  25.143  23.082  29.236 -0.0723  0.1732 -0.0496
25171W        W68088  25.203  20.504  23.301 -0.0749  0.1237  0.1763
25172W        W68089  24.629  21.223  26.243 -0.0595 -0.0874 -0.1295
25173W        W68090  28.331  22.678  26.631  0.1095 -0.1443 -0.2494
25174W        W68091  25.606  25.891  25.213 -0.3498 -0.1954 -0.0296
25175W        W68092  26.065  22.292  26.030  0.2257 -0.0805 -0.0822
25176W        W68093  28.783  23.210  25.512 -0.1259  0.2531  0.2325
25177W        W68094  26.502  28.288  28.272 -0.2135 -0.1871 -0.0167
25178W        W68095  22.318  20.964  27.023  0.0764 -0.0173  0.2092
25179W        W68096  27.559  21.451  29.075 -0.1278 -0.1608 -0.0357
25180W        W68097  26.434  25.348  23.508  0.2097 -0.2426  0.0790
25181W        W68098  26.598  24.036  26.151  0.0608 -0.2161 -0.3003
25182W        W68099  25.009  24.018  25.658 -0.0281  0.3271  0.1599
25183W        W68100  27.461  22.639  25.637 -0.0877 -0.0643 -0.2052
25184W        W68101  28.929  21.856  26.914  0.0714  0.0984 -0.2432
25185W        W68102  28.436  23.643  25.187  0.2288  0.2691  0.0039
25186W        W68103  27.313  25.987  25.829  0.3297 -0.1991  0.0724
25187W        W68104  25.436  26.453  27.057  0.1537 -0.0962  0.1613
25188W        W68105  28.032  22.127  27.211  0.3751 -0.0736  0.0403
25189W        W68106  25.147  25.672  25.436 -0.0435 -0.2312 -0.2497
25190W        W68107  23.772  25.440  25.192  0.3542  0.0697 -0.1224
25191W        W68108  25.783  27.867  27.673  0.1189 -0.0680  0.1589
25192W        W68109  29.004  24.329  25.482  0.0368  0.3429 -0.0353
25193W        W68110  28.521  25.487  27.019  0.1426  0.0946  0.2644
25194W        W68111  26.541  24.402  26.675 -0.1732  0.0112  0.1609
25195W        W68112  24.891  26.136  26.710 -0.3135 -0.0333  0.2261
25196W        W68113  25.923  26.608  24.748  0.2201  0.0029 -0.2491
25197W        W68114  25.625  24.175  27.647 -0.3889  0.0730  0.0964
25198W        W68115  25.022  23.643  27.561 -0.0863 -0.3117  0.0579
25199W        W68116  27.889  25.519  25.566  0.0845 -0.1433  0.2472
25200W        W68117  24.797  25.786  24.189  0.3626  0.2142 -0.1026
25201W        W68118  27.452  26.252  25.423  0.4085 -0.1011 -0.0722
25202W        W68119  24.665  24.089  27.539  0.0153 -0.0421 -0.3163
25203W        W68120  25.310  24.991  27.265  0.0579  0.2256  0.0410
25204W        W68121  31.144  24.189  28.742 -0.2044 -0.1536 -0.3423
25205W        W68122  25.269  26.683  23.750  0.1188  0.0151  0.2285
25206W        W68123  30.480  22.816  24.072 -0.0747 -0.1000  0.4841
25207W        W68124  26.535  21.505  24.085  0.0563 -0.0207 -0.0784
25208W        W68125  28.644  22.716  23.447 -0.4008  0.3114  0.0095
25209W        W68126  24.948  22.763  25.347 -0.0627 -0.0775  0.1319
25210W        W68127  25.481  24.927  26.815 -0.2228 -0.2840  0.0940
25211W        W68128  27.070  23.577  25.626  0.0360 -0.2539  0.0058
25212W        W68129  26.750  23.522  28.929 -0.0339  0.0377  0.0297
25213W        W68130  26.126  23.312  22.791  0.2798 -0.5241  0.4839
25214W        W68131  26.621  22.587  27.071 -0.0271  0.0309  0.0801
25215W        W68132  24.688  24.304  26.991 -0.0601  0.2375 -0.1255
25216W        W68133  24.482  23.951  25.670  0.2688  0.0634 -0.1153
25217W        W68134  28.122  23.547  25.581  0.1624  0.1793 -0.0379
25218W        W68135  28.747  23.556  27.308  0.3059  0.2254 -0.0729
25219W        W68136  26.086  24.475  25.469  0.1378 -0.3099  0.3160
25220W        W68137  26.219  22.218  27.353 -0.0977  0.0408  0.1874
25221W        W68138  24.695  22.723  27.606 -0.1968  0.1211  0.1679
25222W        W68139  25.823  25.826  26.904  0.1482 -0.3105  0.5471
25223W        W68140  24.052  22.053  25.387 -0.0465 -0.4119  0.0794
25224W        W68141  30.625  23.179  28.605 -0.0748  0.1713 -0.0331
25225W        W68142  25.767  24.534  27.296 -0.0972 -0.0210 -0.0349
25226W        W68143  29.230  22.646  25.434  0.5065  0.2256 -0.0787
25227W        W68144  24.710  24.309  25.956  0.1090 -0.1210  0.2087
25228W        W68145  27.452  25.111  26.337 -0.3000 -0.0791 -0.0624
25229W        W68146  28.556  25.597  23.737  0.3559  0.1113  0.1066
25230W        W68147  27.553  23.518  25.926  0.0977 -0.0526 -0.1347
25231W        W68148  25.200  23.616  27.081  0.0341 -0.0956  0.5049
25232W        W68149  25.623  22.984  25.070 -0.2597 -0.0478  0.0702
25233W        W68150  26.796  24.501  23.422  0.1991 -0.0879 -0.1896
25234W        W68151  27.517  25.217  29.121 -0.0689 -0.1179  0.0350
25235W        W68152  26.219  24.581  24.959 -0.2769  0.0644  0.0965
25236W        W68153  25.016  25.980  27.195 -0.2899  0.2257  0.0995
25237W        W68154  27.089  23.284  27.236  0.1807 -0.2440  0.0909
25238W        W68155  24.936  23.901  28.791  0.0717 -0.3381 -0.2466
25239W        W68156  25.305  27.046  25.233  0.3075  0.0066 -0.3497
25240W        W68157  26.334  25.370  28.286 -0.0120  0.1444 -0.0028
25241W        W68158  24.520  27.192  22.456 -0.3826  0.0840  0.0364
25242W        W68159  24.238  21.913  26.533 -0.0022  0.1730 -0.1699
25243W        W68160  24.337  24.731  26.965  0.0549 -0.1290  0.0221
25244W        W68161  29.824  24.515  24.816  0.0489 -0.2298 -0.0344
25245W        W68162  24.777  19.772  26.565 -0.0592 -0.0282 -0.0546
25246W        W68163  29.955  21.960  25.486  0.1685 -0.2582  0.2870
25247W        W68164  25.751  23.924  26.526 -0.1638 -0.1140  0.1352
25248W        W68165  28.204  25.046  26.936  0.1406 -0.1515 -0.0022
25249W        W68166  28.374  23.178  25.020 -0.1470 -0.0497 -0.0853
25250W        W68167  28.171  25.355  23.456 -0.0170 -0.4191 -0.1222
25251W        W68168  21.158  24.785  25.441  0.3573  0.1236 -0.1112
25252W        W68169  25.787  22.747  23.921 -0.0677  0.0342 -0.3339
25253W        W68170  26.460  22.692  27.538 -0.0980 -0.0159 -0.1657
25254W        W68171  23.810  21.721  26.395  0.0788 -0.1633 -0.5840
25255W        W68172  28.064  22.971  26.924 -0.0924 -0.2126  0.0172
25256W        W68173  25.297  22.291  23.773 -0.0200  0.0022 -0.0509
25257W        W68174  27.456  23.264  25.287  0.1913  0.1548 -0.2100
25258W        W68175  25.692  23.325  25.529 -0.0812  0.0006 -0.0737
25259W        W68176  25.826  23.594  26.056  0.0649  0.1781 -0.0205
25260W        W68177  29.945  22.541  27.472 -0.2993  0.2595 -0.1935
25261W        W68178  28.541  25.678  24.782 -0.0417  0.0378  0.0047
25262W        W68179  27.689  24.262  28.042  0.2602  0.1913 -0.1708
25263W        W68180  27.057  25.408  26.626  0.1821 -0.0284 -0.0288
25264W        W68181  25.545  21.577  26.838 -0.0169  0.1218 -0.1048
25265W        W68182  27.276  23.365  24.168 -0.2465  0.1694  0.3463
25266W        W68183  27.848  24.063  24.800  0.0907  0.1308  0.2242
25267W        W68184  26.814  25.477  23.841  0.1232  0.2038 -0.3077
25268W        W68185  24.538  22.684  23.296 -0.0529  0.0641 -0.2701
25269W        W68186  28.820  26.053  25.740 -0.1904 -0.1059  0.0575
25270W        W68187  25.999  26.085  25.450 -0.0164  0.0462  0.2136
25271W        W68188  24.216  23.923  27.302 -0.0460  0.1197 -0.0992
25272W        W68189  27.535  20.265  28.067  0.1997  0.1630  0.2422
25273W        W68190  28.725  22.297  26.213 -0.0275 -0.2654  0.5753
25274W        W68191  27.529  23.500  26.913 -0.0896  0.0423 -0.2685
25275W        W68192  25.573  22.611  24.654  0.0161 -0.0848  0.3318
25276W        W68193  27.884  26.489  25.253 -0.1276 -0.1310 -0.1572
25277W        W68194  26.465  25.316  25.560 -0.3309 -0.4340  0.0914
25278W        W68195  23.915  24.909  25.981  0.4352  0.1957  0.0830
25279W        W68196  25.264  24.122  26.210 -0.0053  0.1998 -0.2160
25280W        W68197  26.994  21.855  25.616  0.1257  0.0491  0.1113
25281W        W68198  25.699  22.899  26.001 -0.1774  0.1422  0.1779
25282W        W68199  26.131  24.409  27.695 -0.1536 -0.2433 -0.1191
25283W        W68200  26.386  22.745  24.479 -0.1444 -0.0871 -0.0612
25284W        W68201  24.187  24.425  28.507  0.0319  0.2290  0.0458
25285W        W68202  28.407  22.882  25.781  0.0060  0.0763  0.0901
25286W        W68203  28.055  22.537  24.803  0.5946 -0.0118  0.0877
25287W        W68204  26.681  25.808  27.617  0.1625  0.1710  0.1539
25288W        W68205  27.413  23.715  24.889  0.0858 -0.1251  0.1379
25289W        W68206  31.440  23.721  24.003  0.0130  0.2119  0.0214
25290W        W68207  29.932  22.976  23.584  0.4868 -0.1422 -0.1354
25291W        W68208  25.746  26.200  28.747  0.0646 -0.1182  0.3169
25292W        W68209  26.724  25.607  27.076  0.0851  0.0224  0.1016
25293W        W68210  25.767  24.496  26.629  0.2319  0.0071  0.2869
25294W        W68211  27.261  20.677  25.845  0.1263  0.0791 -0.1459
25295W        W68212  27.912  24.951  24.112 -0.0888  0.1321  0.5059
25296W        W68213  25.724  28.291  26.541 -0.1159  0.1718 -0.0719
25297W        W68214  26.070  25.003  25.333  0.1521 -0.0997 -0.3700
25298W        W68215  26.765  26.764  27.293  0.1034  0.2423 -0.0872
25299W        W68216  25.642  21.925  25.940  0.1588 -0.0925 -0.2008
25300W        W68217  25.423  24.593  23.206  0.0659 -0.0499  0.0685
25301W        W68218  25.735  22.406  25.673 -0.2334  0.2743 -0.0698
25302W        W68219  24.392  26.935  24.426  0.4001 -0.2619  0.1214
25303W        W68220  26.683  23.090  26.325  0.1614  0.0670  0.2241
25304W        W68221  27.901  21.970  26.152  0.2607 -0.1985 -0.0913
25305W        W68222  28.268  18.179  26.409 -0.3071 -0.0550 -0.0645
25306W        W68223  28.743  24.324  28.203 -0.3163 -0.0450 -0.2553
25307W        W68224  27.903  23.950  24.342  0.3389  0.2609 -0.0102
25308W        W68225  28.139  22.304  26.383  0.1399 -0.0788  0.1789
25309W        W68226  26.746  25.453  23.028 -0.0294  0.1679 -0.1724
25310W        W68227  26.133  24.314  26.359  0.4075 -0.0846 -0.1719
25311W        W68228  27.736  23.980  25.521 -0.2980 -0.0199 -0.1792
25312W        W68229  25.671  24.709  27.844  0.0123  0.0268 -0.2461
25313W        W68230  27.586  24.400  26.645 -0.2354 -0.0751  0.0590
25314W        W68231  26.162  24.034  26.750 -0.0936 -0.1025 -0.1617
25315W        W68232  27.780  22.854  26.497 -0.0345  0.0084  0.2307
25316W        W68233  27.741  21.978  23.727 -0.0628 -0.4260  0.0241
25317W        W68234  24.370  24.602  24.454 -0.0488  0.0604  0.2158
25318W        W68235  26.457  25.827  25.486 -0.0860  0.1067 -0.0109
25319W        W68236  25.193  24.040  27.308 -0.4309 -0.1616 -0.2050
25320W        W68237  26.280  25.386  28.775  0.0767  0.0288 -0.1762
25321W        W68238  26.504  23.701  24.520 -0.2080  0.1217  0.0028
25322W        W68239  27.214  26.980  26.716 -0.1235  0.0898 -0.2033
25323W        W68240  26.733  26.028  24.593  0.1120  0.0209 -0.2496
25324W        W68241  29.118  22.578  26.263  0.1076 -0.1062  0.0774
25325W        W68242  24.554  26.111  27.881  0.0998  0.2903  0.0697
25326W        W68243  25.334  23.953  24.852  0.0370  0.0425 -0.0164
25327W        W68244  24.863  23.289  26.223 -0.0781  0.0943 -0.1125
25328W        W68245  28.164  24.472  24.904  0.0389 -0.1478  0.1221
25329W        W68246  29.446  24.562  25.187  0.0963 -0.0619 -0.0002
25330W        W68247  25.045  22.436  26.308  0.1329 -0.1227  0.0441
25331W        W68248  29.149  22.050  26.546 -0.0703 -0.1667  0.0226
25332W        W68249  23.342  24.849  27.410 -0.2407  0.4236 -0.1709
25333W        W68250  27.398  24.437  25.252  0.0508  0.3229  0.3062
25334W        W68251  28.686  23.984  25.401 -0.1654  0.0861  0.1429
25335W        W68252  28.270  24.088  27.374 -0.0362 -0.0810  0.0736
25336W        W68253  25.866  23.469  27.840 -0.0324 -0.2995  0.0070
25337W        W68254  25.740  22.742  23.430 -0.1969 -0.1274 -0.2175
25338W        W68255  25.804  25.627  27.487 -0.2078 -0.0865  0.1824
25339W        W68256  26.949  21.773  26.358 -0.3374  0.1474 -0.1455
25340W        W68257  25.039  25.925  26.306 -0.2390 -0.0421 -0.4890
25341W        W68258  25.791  25.397  28.763  0.3500  0.0082 -0.0297
25342W        W68259  25.697  23.750  24.516  0.0841 -0.1077 -0.1448
25343W        W68260  25.988  26.262  27.117  0.2017  0.0468  0.0434
25344W        W68261  27.564  22.065  27.060  0.0041  0.0942 -0.0994
25345W        W68262  27.463  25.153  27.514 -0.2608  0.2026 -0.1329
25346W        W68263  26.823  23.299  24.487  0.3320  0.2243  0.0021
25347W        W68264  26.493  21.779  24.482  0.2043  0.3666 -0.1672
25348W        W68265  26.096  23.035  24.882 -0.1463  0.0988 -0.2303
25349W        W68266  26.782  25.452  25.158  0.0479  0.0858 -0.0517
25350W        W68267  26.399  22.616  26.196  0.3721 -0.3092 -0.0662
25351W        W68268  25.063  23.614  29.142  0.2546 -0.0065  0.0383
25352W        W68269  27.761  19.692  27.348  0.2454 -0.0363 -0.1226
25353W        W68270  28.957  25.042  26.135  0.3046  0.0140 -0.1529
25354W        W68271  27.978  20.761  27.392  0.0743 -0.0279 -0.2418
25355W        W68272  26.457  24.063  24.855  0.0763  0.0667  0.3560
25356W        W68273  25.163  22.767  24.843  0.0740 -0.1246 -0.1345
25357W        W68274  24.756  23.804  27.119  0.1652 -0.0847 -0.1398
25358W        W68275  29.487  24.139  27.371 -0.1375  0.0489 -0.1682
25359W        W68276  24.807  23.158  27.895 -0.0801  0.2860  0.3870
25360W        W68277  23.447  24.359  24.766 -0.3800 -0.1318  0.2543
25361W        W68278  24.439  23.914  26.206  0.0039 -0.1400  0.2456
25362W        W68279  29.018  22.684  24.164  0.0861  0.0228 -0.0232
25363W        W68280  26.134  25.425  27.119  0.2712 -0.0499 -0.1579
25364W        W68281  26.395  20.939  23.644  0.0027 -0.1121  0.2134
25365W        W68282  28.549  20.945  26.183  0.1588 -0.0302  0.0155
25366W        W68283  27.228  24.149  24.844  0.0730  0.0282  0.0298
25367W        W68284  28.845  21.648  27.500  0.0410  0.0521 -0.0713
25368W        W68285  24.819  21.895  26.485 -0.2648  0.0688  0.0123
25369W        W68286  27.399  25.001  25.710 -0.0988 -0.1541  0.1095
25370W        W68287  24.774  23.351  26.854  0.1666  0.0143 -0.1217
25371W        W68288  27.691  25.520  28.718  0.1302 -0.2485  0.2012
25372W        W68289  27.066  23.931  25.974  0.0730  0.1926  0.0740
25373W        W68290  26.822  24.468  24.822 -0.0163 -0.1512  0.1012
25374W        W68291  26.690  22.129  24.130  0.1163 -0.0045  0.1412
25375W        W68292  25.073  25.291  26.834 -0.2989  0.2913  0.1226
25376W        W68293  28.345  23.789  26.377 -0.1752  0.0865 -0.0521
25377W        W68294  24.563  25.901  26.268  0.0599 -0.2504 -0.0323
25378W        W68295  26.854  24.104  24.422  0.0220 -0.1463  0.1952
25379W        W68296  27.674  25.836  25.170  0.2163  0.2223  0.1478
25380W        W68297  27.114  23.692  24.515 -0.0988  0.1044  0.0978
25381W        W68298  26.865  24.246  23.946 -0.0429 -0.1366  0.0555
25382W        W68299  26.662  22.305  24.604 -0.0527 -0.0446 -0.1666
25383W        W68300  27.406  21.985  25.949 -0.2295 -0.0200  0.2526
25384W        W68301  27.807  23.145  25.639 -0.2526  0.2536  0.0709
25385W        W68302  27.511  22.568  24.740 -0.1090  0.1399 -0.1135
25386W        W68303  26.611  22.281  25.848  0.2646  0.1717 -0.0503
25387W        W68304  27.467  23.000  26.839  0.1149  0.0436 -0.0881
25388W        W68305  30.094  22.839  27.968 -0.0904 -0.1941  0.1190
25389W        W68306  26.847  22.322  29.298 -0.1896  0.2952 -0.0665
25390W        W68307  27.185  25.408  27.160  0.0845 -0.0204  0.0364
25391W        W68308  26.320  25.727  23.050  0.1388  0.3060  0.0419
25392W        W68309  28.609  21.137  27.852  0.0814  0.0365  0.2544
25393W        W68310  27.932  24.693  25.928 -0.3084  0.2332  0.2291
25394W        W68311  27.662  23.667  23.971  0.0725 -0.4354  0.0297
25395W        W68312  22.306  22.572  26.408 -0.1146 -0.2435 -0.1434
25396W        W68313  28.017  23.976  27.821  0.2218 -0.1068  0.4988
25397W        W68314  24.977  23.115  25.675 -0.2167 -0.0440  0.1642
25398W        W68315  27.920  22.429  27.629 -0.3093 -0.0832  0.3203
25399W        W68316  27.384  25.519  26.086 -0.2358 -0.1479 -0.1203
25400W        W68317  26.929  26.471  24.315 -0.2421  0.1177  0.2055
25401W        W68318  27.919  21.645  27.100 -0.2484  0.0961  0.0728
25402W        W68319  24.503  23.961  26.711 -0.3328 -0.3444  0.2573
25403W        W68320  25.496  25.909  28.387 -0.1389  0.2547  0.2594
25404W        W68321  24.135  24.433  22.584 -0.1197 -0.2625  0.0209
25405W        W68322  27.663  24.840  23.182  0.2927 -0.0484  0.0896
25406W        W68323  28.617  23.899  27.727 -0.3437  0.0980 -0.2701
25407W        W68324  27.451  22.989  26.019 -0.1537  0.0801 -0.1963
25408W        W68325  27.927  21.639  28.098 -0.0038  0.0809 -0.2947
25409W        W68326  29.753  24.401  26.187 -0.1190 -0.0263 -0.0270
25410W        W68327  25.475  25.129  25.919 -0.0952  0.1316 -0.0044
25411W        W68328  25.160  22.842  27.069  0.0791 -0.2200  0.4779
25412W        W68329  24.549  23.942  28.470  0.3795  0.0203  0.1112
25413W        W68330  24.376  24.961  26.273  0.1798  0.0480 -0.2482
25414W        W68331  26.573  24.958  25.215 -0.1048  0.2756 -0.0375
25415W        W68332  26.716  23.478  26.589 -0.1152  0.0576 -0.0915
25416W        W68333  28.442  23.761  25.833 -0.2697 -0.0171  0.2967
25417W        W68334  26.555  25.635  26.038 -0.1931 -0.1722 -0.0161
25418W        W68335  28.260  23.515  27.725 -0.1962 -0.2369 -0.1629
25419W        W68336  26.520  24.554  26.165 -0.0442 -0.0389  0.3014
25420W        W68337  24.770  23.036  24.982 -0.1068 -0.2627 -0.0984
25421W        W68338  26.769  24.927  26.434 -0.0783  0.0984 -0.0418
25422W        W68339  27.385  25.095  26.857  0.0190  0.0629 -0.0207
25423W        W68340  24.460  27.248  26.589 -0.1357  0.1728  0.0454
25424W        W68341  25.368  23.650  25.880 -0.1981 -0.1541 -0.4195
25425W        W68342  27.535  23.995  26.988 -0.3686  0.2471  0.1512
25426W        W68343  29.082  22.879  26.790 -0.0479  0.2327  0.0349
25427W        W68344  25.520  22.435  26.138  0.0359  0.1045  0.1174
25428W        W68345  27.102  24.777  23.783  0.2198 -0.0976  0.0286
25429W        W68346  24.719  24.136  29.279  0.2348 -0.1211  0.0396
25430W        W68347  24.678  24.571  24.871  0.2221  0.0262 -0.0713
25431W        W68348  25.236  26.675  23.256  0.0379 -0.1687 -0.1394
25432W        W68349  27.269  25.002  25.193 -0.0010 -0.0987  0.2402
25433W        W68350  27.207  23.490  23.658  0.0781  0.1142  0.0191
25434W        W68351  25.532  25.914  26.329 -0.1415  0.1123  0.0612
25435W        W68352  24.853  24.948  24.606 -0.4426  0.0462  0.0179
25436W        W68353  24.460  25.628  28.019 -0.2003 -0.3185  0.1921
25437W        W68354  25.864  27.005  25.151 -0.2958  0.4434 -0.1839
25438W        W68355  26.564  25.235  26.785 -0.0344  0.2472  0.2609
25439W        W68356  25.666  26.843  24.393  0.0938  0.1265 -0.2570
25440W        W68357  26.955  24.296  26.352  0.0744 -0.1017  0.0590
25441W        W68358  28.773  21.664  23.614  0.2653  0.0995  0.1599
25442W        W68359  26.928  21.780  24.989 -0.6337  0.1104 -0.2528
25443W        W68360  29.367  24.194  26.461  0.0415 -0.0172 -0.0167
25444W        W68361  27.000  24.784  25.909 -0.1186 -0.0752 -0.1252
25445W        W68362  25.629  24.674  25.116 -0.0189  0.0106 -0.1388
25446W        W68363  27.547  21.989  24.565  0.1681 -0.0785 -0.2157
25447W        W68364  26.346  22.888  26.680  0.2548 -0.1332 -0.1467
25448W        W68365  26.249  20.242  28.104  0.1193  0.0655 -0.1046
25449W        W68366  24.391  26.038  26.691  0.0851 -0.3678 -0.0895
25450W        W68367  29.276  26.337  26.043 -0.0825  0.2370 -0.2033
25451W        W68368  25.181  22.789  25.983  0.0845  0.1057  0.2109
25452W        W68369  27.613  23.533  24.497 -0.3644  0.2790  0.0791
25453W        W68370  28.478  21.676  28.343 -0.0665 -0.4320  0.3026
25454W        W68371  26.091  24.980  23.744  0.2236 -0.0679  0.2164
25455W        W68372  26.210  23.182  26.225  0.1939  0.3856  0.0441
25456W        W68373  25.922  26.251  24.398 -0.2136 -0.3374 -0.0268
25457W        W68374  25.658  25.385  27.008  0.2030  0.1139  0.0702
25458W        W68375  25.931  26.073  27.655 -0.2389 -0.0225 -0.0055
25459W        W68376  25.454  24.183  25.442 -0.3220  0.3423 -0.1972
25460W        W68377  28.184  22.206  25.411 -0.0062 -0.1062 -0.0047
25461W        W68378  27.143  23.576  26.341  0.2191  0.3507  0.0352
25462W        W68379  27.735  21.549  25.945  0.0225  0.0484  0.1310
25463W        W68380  26.632  24.547  24.283  0.2601  0.0766  0.0621
25464W        W68381  26.383  24.109  24.082 -0.2944 -0.2412 -0.1445
25465W        W68382  28.157  25.547  25.128  0.2092  0.4563 -0.0647
25466W        W68383  26.274  24.149  25.790 -0.0931  0.1069 -0.3539
25467W        W68384  28.408  21.366  24.106  0.1764  0.0755  0.1837
25468W        W68385  31.364  24.609  26.218 -0.0005 -0.0696 -0.0444
25469W        W68386  27.356  24.681  22.767  0.0477  0.0807 -0.0445
25470W        W68387  28.900  25.232  26.798 -0.2316 -0.1617  0.0438
25471W        W68388  26.635  21.417  26.232  0.1368  0.1315  0.1198
25472W        W68389  27.802  22.584  25.285 -0.2246 -0.1601  0.1694
25473W        W68390  24.896  23.829  26.245 -0.3747 -0.1119  0.0969
25474W        W68391  25.172  24.848  27.792 -0.0195  0.4225 -0.0475
25475W        W68392  28.574  24.818  27.984 -0.2457 -0.0918 -0.1853
25476W        W68393  23.728  22.565  26.238  0.1978 -0.2553 -0.0309
25477W        W68394  29.904  22.803  24.926 -0.0399 -0.0844 -0.1342
25478W        W68395  28.694  23.410  27.756 -0.1087  0.2314  0.1652
25479W        W68396  24.748  25.964  23.290  0.0594 -0.2441  0.0239
25480W        W68397  27.319  22.835  24.162  0.1756 -0.1521 -0.2309
25481W        W68398  28.489  25.676  25.538  0.0181 -0.0947 -0.3476
25482W        W68399  24.336  24.395  26.502 -0.0648  0.0042 -0.3489
25483W        W68400  26.914  26.441  26.679 -0.2031 -0.2352  0.1052
25484W        W68401  29.727  23.225  25.326  0.2790 -0.0316  0.2693
25485W        W68402  26.153  21.910  24.837  0.0717 -0.1070  0.1858
25486W        W68403  23.515  23.021  24.441 -0.1375 -0.0037  0.2644
25487W        W68404  25.138  25.428  24.510  0.1253 -0.1148  0.1217
25488W        W68405  27.254  23.254  27.728  0.3652  0.5871  0.1384
25489W        W68406  26.443  22.181  26.355  0.0945 -0.0226  0.1102
25490W        W68407  25.848  24.878  23.292 -0.2694  0.2597 -0.2040
25491W        W68408  29.448  21.821  28.214  0.2459 -0.1150 -0.1137
25492W        W68409  26.849  24.339  28.332 -0.0262  0.0547  0.2080
25493W        W68410  24.927  25.736  29.546 -0.4429 -0.1003  0.5178
25494W        W68411  25.970  22.682  25.352  0.1354 -0.0752 -0.0905
25495W        W68412  26.849  23.773  28.276  0.2058 -0.1373 -0.0391
25496W        W68413  26.830  24.311  25.816 -0.0251 -0.0427  0.1694
25497W        W68414  26.275  25.840  27.349 -0.2514  0.0795  0.2245
25498W        W68415  27.878  25.560  26.261  0.1084  0.0074  0.2512
25499W        W68416  26.246  24.501  27.187 -0.1288 -0.2043  0.0455
25500W        W68417  28.623  24.361  25.112 -0.1173 -0.3253 -0.5021
25501W        W68418  25.495  22.035  25.411 -0.0611  0.0791 -0.2602
25502W        W68419  29.940  22.659  25.889  0.1492 -0.0128  0.2166
25503W        W68420  27.870  23.078  25.097 -0.2602 -0.0972 -0.0359
25504W        W68421  27.430  23.599  27.382 -0.1268  0.0577  0.1649
25505W        W68422  26.355  21.114  23.141  0.1961  0.1201 -0.1063
25506W        W68423  24.205  26.142  25.114  0.4507  0.4312  0.0002
25507W        W68424  24.467  22.972  25.685  0.2345  0.3089  0.0918
25508W        W68425  28.355  23.046  27.915 -0.0116 -0.2074  0.4837
25509W        W68426  24.205  23.062  26.159  0.3330  0.1873 -0.1078
25510W        W68427  25.878  25.480  26.191 -0.1070 -0.3473  0.1087
25511W        W68428  25.733  23.793  25.483 -0.2500  0.2861 -0.1852
25512W        W68429  26.404  26.355  24.795  0.3051 -0.1471  0.3244
25513W        W68430  25.967  21.612  25.780  0.0719  0.0736 -0.0001
25514W        W68431  24.021  19.799  27.396 -0.1195 -0.1205 -0.2076
25515W        W68432  27.654  24.776  25.059  0.0911 -0.3090  0.2538
25516W        W68433  30.197  24.873  23.679  0.0878  0.1418  0.1952
25517W        W68434  27.639  23.024  23.584 -0.1871 -0.0688 -0.0899
25518W        W68435  27.316  24.417  27.273 -0.1096 -0.3176  0.2363
25519W        W68436  28.096  23.926  23.814  0.0443 -0.3050  0.2907
25520W        W68437  28.592  23.042  26.930  0.0172 -0.3395 -0.2716
25521W        W68438  24.541  21.681  26.075 -0.0436 -0.1192 -0.4530
25522W        W68439  23.049  23.034  24.730 -0.2463 -0.2038  0.2723
25523W        W68440  27.333  22.616  26.465 -0.1804 -0.0589  0.0270
25524W        W68441  25.987  26.091  24.919  0.0704  0.1615  0.0375
25525W        W68442  26.953  25.218  25.599 -0.0077  0.2642  0.0572
25526W        W68443  26.648  24.419  27.915 -0.2082  0.3720 -0.1075
25527W        W68444  26.689  26.177  27.086  0.2982  0.0058 -0.0974
25528W        W68445  25.526  20.272  27.235 -0.0005 -0.2607  0.1978
25529W        W68446  24.189  25.193  25.508  0.0324  0.2010 -0.0944
25530W        W68447  27.287  23.998  26.544 -0.1556 -0.0499 -0.0531
25531W        W68448  30.709  24.448  24.559  0.2140 -0.0286  0.0036
25532W        W68449  27.857  21.298  26.724 -0.1154  0.2610 -0.1317
25533W        W68450  27.669  24.490  24.237 -0.2221  0.0743  0.1372
25534W        W68451  23.744  21.506  25.937  0.0873 -0.0208  0.1262
25535W        W68452  23.982  24.238  26.936 -0.2177 -0.0803 -0.1139
25536W        W68453  29.134  23.140  26.045 -0.0879  0.0584  0.0604
25537W        W68454  27.642  20.545  26.329 -0.0352  0.2588 -0.0377
25538W        W68455  29.885  21.527  24.160  0.0076 -0.1242 -0.0715
25539W        W68456  27.089  25.895  25.225 -0.0396  0.0375 -0.2987
25540W        W68457  27.925  24.437  25.351  0.0370 -0.0810  0.0197
25541W        W68458  26.610  23.507  26.010  0.1659  0.1003 -0.0919
25542W        W68459  29.599  22.846  27.665  0.0603 -0.0667 -0.0956
25543W        W68460  28.125  25.959  25.408 -0.0801 -0.3015  0.2976
25544W        W68461  27.930  24.365  27.104 -0.1191  0.0930 -0.1798
25545W        W68462  25.403  22.880  25.537 -0.0670  0.0001  0.1535
25546W        W68463  29.835  25.312  25.310  0.1062 -0.1040 -0.3147
25547W        W68464  26.108  25.466  25.234  0.1806 -0.1310 -0.1611
25548W        W68465  28.616  25.969  25.177 -0.2472  0.2016 -0.0940
25549W        W68466  25.890  26.254  26.608 -0.0230  0.2749  0.0437
25550W        W68467  27.295  24.444  25.796  0.1449  0.1542  0.1410
25551W        W68468  26.754  20.886  24.789  0.0068  0.0587  0.0435
25552W        W68469  26.075  24.698  26.040  0.1364 -0.0219  0.1506
25553W        W68470  25.342  25.042  25.429  0.0357 -0.2628 -0.1592
25554W        W68471  26.725  23.950  26.709 -0.1112  0.0735 -0.1912
25555W        W68472  24.861  22.858  26.626 -0.0351  0.2549 -0.1434
25556W        W68473  29.870  21.003  26.588  0.1764  0.3259 -0.2783
25557W        W68474  24.839  24.286  26.477 -0.4225  0.0664  0.1557
25558W        W68475  24.809  27.065  27.624 -0.2142  0.0002 -0.1583
25559W        W68476  27.484  22.967  30.664 -0.1492  0.2220 -0.3466
25560W        W68477  25.977  22.598  28.272  0.0221 -0.0735  0.1727
25561W        W68478  29.765  22.405  28.063  0.1454 -0.2104 -0.1502
25562W        W68479  27.296  21.947  27.628  0.3922 -0.1209  0.2191
25563W        W68480  26.443  24.165  30.055 -0.1500 -0.1909  0.1626
25564W        W68481  25.737  24.630  28.335 -0.0311 -0.1660 -0.1729
25565W        W68482  25.776  21.134  31.003  0.2502  0.0374  0.3380
25566W        W68483  26.222  22.988  30.409  0.3418 -0.0966 -0.2054
25567W        W68484  28.095  24.976  30.126 -0.0715 -0.1055 -0.2935
25568W        W68485  28.594  22.339  27.157  0.4861  0.0389  0.2300
25569W        W68486  27.274  22.560  29.240  0.0090  0.2467 -0.0837
25570W        W68487  25.316  25.924  29.861 -0.1232  0.3977  0.2192
25571W        W68488  25.675  22.674  27.305 -0.1713 -0.0319  0.0249
25572W        W68489  25.048  22.609  28.544 -0.0173  0.1643 -0.0846
25573W        W68490  26.721  24.575  30.218 -0.1111  0.1537  0.0492
25574W        W68491  28.223  21.236  28.225  0.2656  0.0733  0.0281
25575W        W68492  26.130  21.060  30.153 -0.1972 -0.2320  0.2132
25576W        W68493  26.330  21.741  26.611  0.0516 -0.1989 -0.0178
25577W        W68494  26.050  23.732  29.850  0.0377  0.2194 -0.2696
25578W        W68495  27.457  22.250  29.711 -0.1668  0.0706 -0.1651
25579W        W68496  27.382  21.338  30.632 -0.1408  0.2096  0.2070
25580W        W68497  27.001  24.702  28.634  0.1033  0.2255  0.0581
25581W        W68498  25.426  21.668  25.065 -0.2598  0.2359  0.0768
25582W        W68499  25.305  23.437  29.645 -0.0867  0.1280  0.0442
25583W        W68500  25.691  22.032  29.027 -0.3065 -0.1248 -0.0260
25584W        W68501  27.787  21.683  30.573 -0.4891 -0.1083 -0.2504
25585W        W68502  26.430  23.233  29.230  0.1954  0.2218  0.2289
25586W        W68503  26.833  25.849  30.867 -0.0418 -0.3639  0.0257
25587W        W68504  27.480  23.162  28.143  0.0876 -0.0517  0.2074
25588W        W68505  26.940  22.714  31.592 -0.1458 -0.0561  0.2651
25589W        W68506  26.020  24.995  28.468 -0.0028  0.0890  0.0610
25590W        W68507  25.413  26.002  27.771  0.1822  0.2052  0.2228
25591W        W68508  26.709  26.458  31.125  0.1348  0.0587 -0.0716
25592W        W68509  28.095  23.717  28.767  0.2832 -0.1142 -0.0875
25593W        W68510  28.531  24.263  31.177  0.3204  0.1600  0.2202
25594W        W68511  26.713  25.045  31.422 -0.2231 -0.0770  0.0327
25595W        W68512  23.928  22.970  28.885 -0.0080 -0.0085  0.0735
25596W        W68513  27.363  26.987  30.936  0.1663 -0.1740  0.0415
25597W        W68514  26.865  22.622  31.092  0.1144 -0.0529 -0.2171
25598W        W68515  28.351  21.566  30.507 -0.0062 -0.0283 -0.0643
25599W        W68516  27.375  22.981  28.815 -0.1472  0.1695 -0.0256
25600W        W68517  27.662  25.001  28.508  0.0386  0.0563  0.1106
25601W        W68518  24.499  23.703  28.897 -0.0039 -0.0585  0.1704
25602W        W68519  25.955  22.951  31.016  0.1047  0.2936 -0.1294
25603W        W68520  24.108  25.462  29.405  0.2999  0.1280 -0.4065
25604W        W68521  31.064  21.580  31.170  0.1640 -0.4104 -0.2516
25605W        W68522  27.080  23.655  26.897 -0.2779  0.1132  0.0266
25606W        W68523  26.851  22.466  28.280 -0.2751 -0.1597 -0.0392
25607W        W68524  26.764  23.082  27.635  0.1008 -0.2503  0.0997
25608W        W68525  25.976  23.306  28.361  0.1149  0.1562 -0.0224
25609W        W68526  26.902  22.874  29.458  0.0137  0.3231 -0.0041
25610W        W68527  26.910  26.824  29.243 -0.1122  0.2508 -0.1466
25611W        W68528  27.259  22.175  28.407 -0.0981 -0.1356  0.1019
25612W        W68529  29.124  22.411  30.164  0.0744 -0.0194  0.0927
25613W        W68530  27.937  20.782  26.867 -0.3045  0.0010 -0.1622
25614W        W68531  27.104  21.619  28.962 -0.1504  0.0230 -0.2291
25615W        W68532  24.343  22.877  29.109  0.0884 -0.1385 -0.2253
25616W        W68533  25.556  22.471  27.806  0.0881 -0.0009  0.1593
25617W        W68534  25.839  23.761  28.238  0.1642 -0.1089  0.0166
25618W        W68535  28.250  24.057  30.362  0.2197 -0.4642  0.0215
25619W        W68536  26.280  25.796  27.924 -0.1773 -0.1531 -0.0762
25620W        W68537  26.267  23.184  27.936  0.1445  0.4339 -0.0150
25621W        W68538  26.096  21.549  30.203  0.0748 -0.1380  0.0695
25622W        W68539  23.474  22.267  31.150  0.2431  0.0238  0.2170
25623W        W68540  23.805  22.335  27.696 -0.2322  0.3744 -0.0645
25624W        W68541  28.180  24.130  28.281 -0.1678 -0.0489 -0.2863
25625W        W68542  24.371  24.174  31.636 -0.1993  0.2034 -0.3678
25626W        W68543  25.683  24.218  28.614 -0.2339  0.3918  0.1271
25627W        W68544  25.122  24.436  29.158  0.0281  0.0622 -0.2610
25628W        W68545  27.722  24.171  30.421 -0.0017  0.0972  0.0852
25629W        W68546  28.003  25.209  28.982 -0.2261  0.0731 -0.0328
25630W        W68547  26.437  21.781  28.420 -0.1587  0.2955  0.1275
25631W        W68548  29.891  21.854  29.474 -0.0035  0.0549 -0.4753
25632W        W68549  24.870  24.121  28.165  0.3250 -0.4826 -0.1432
25633W        W68550  27.709  23.521  27.783 -0.0590 -0.2404  0.3430
25634W        W68551  27.183  26.362  29.350 -0.0600 -0.2560 -0.0029
25635W        W68552  28.095  23.151  27.458 -0.4038  0.0544 -0.2371
25636W        W68553  25.390  25.764   0.002  0.1071  0.0999 -0.3319
25637W        W68554  27.908  22.804  27.987 -0.1738  0.0497  0.3312
25638W        W68555  27.954  26.608   0.224  0.0500  0.1559  0.1209
25639W        W68556  25.086  25.270  27.630 -0.1456  0.1002 -0.1079
25640W        W68557  26.944  22.276  29.812 -0.0280 -0.2106  0.1127
25641W        W68558  25.193  24.323  28.652  0.0607 -0.1698  0.1824
25642W        W68559  24.837  20.585  28.806 -0.0175 -0.1743  0.0277
25643W        W68560  23.253  24.546  30.503 -0.0215 -0.0095  0.0514
25644W        W68561  27.940  21.812  27.626  0.1752 -0.1449  0.2052
25645W        W68562  24.572  20.789  28.256  0.0612  0.1244  0.0274
25646W        W68563  28.554  19.269  30.850 -0.1014  0.1252  0.1201
25647W        W68564  24.319  23.139  27.428 -0.1365  0.0538 -0.1688
25648W        W68565  27.226  24.207  27.834  0.1213  0.2105 -0.0430
25649W        W68566  27.086  22.014  27.128  0.0380  0.0590  0.2371
25650W        W68567  28.811  24.691  26.998 -0.1704  0.1327  0.0390
25651W        W68568  23.802  21.833  30.564  0.3735  0.0603  0.3759
25652W        W68569  26.234  23.648  27.411 -0.0814 -0.1400  0.1778
25653W        W68570  25.000  22.705  30.172 -0.3495  0.0350 -0.2081
25654W        W68571  23.676  21.528  28.336  0.1230  0.2487  0.0694
25655W        W68572  27.335  23.778  31.247  0.1419 -0.1016 -0.2607
25656W        W68573  24.921  21.968  27.507  0.0786 -0.0606  0.2794
25657W        W68574  29.174  24.344  26.914  0.1756 -0.2778  0.2101
25658W        W68575  27.733  22.643  27.170 -0.1050  0.1745  0.0475
25659W        W68576  24.698  24.456  28.508 -0.0748  0.1142  0.0902
25660W        W68577  30.141  21.727  31.378 -0.3776  0.1148  0.0942
25661W        W68578  28.551  24.703  29.951 -0.2943  0.0827 -0.0045
25662W        W68579  28.220  27.070  30.009  0.4051  0.3484  0.2597
25663W        W68580  27.801  26.619  29.146 -0.3921 -0.1674  0.3190
25664W        W68581  25.722  23.085  29.140  0.3028  0.1163  0.1140
25665W        W68582  25.689  23.518  26.902  0.0845 -0.2086  0.5209
25666W        W68583  24.614  26.014  29.298 -0.0314  0.1395  0.0505
25667W        W68584  25.035  23.583  28.140  0.4083  0.0772  0.2428
25668W        W68585  26.819  22.137  27.518  0.2794  0.0954  0.0751
25669W        W68586  26.957  23.360  29.429  0.2241 -0.1158  0.1163
25670W        W68587  28.197  23.576  30.100 -0.3549  0.2488  0.1782
25671W        W68588  24.747  24.675  30.325  0.0048  0.1885 -0.0113
25672W        W68589  28.331  23.216   0.083  0.3136 -0.0589 -0.3814
25673W        W68590  29.475  23.279  30.371 -0.2575 -0.3107  0.1810
25674W        W68591  28.077  23.793  29.346  0.0232  0.0526  0.3433
25675W        W68592  25.560  22.411  28.599  0.4678  0.0926  0.1239
25676W        W68593  28.510  27.134  26.837 -0.0362  0.0774  0.2112
25677W        W68594  25.100  27.338  27.366 -0.1453 -0.0138  0.0661
25678W        W68595  24.296  22.470  27.375 -0.1602 -0.2772 -0.0014
25679W        W68596  26.196  24.706  28.074  0.0620 -0.1305 -0.1039
25680W        W68597  28.548  21.739  30.918 -0.3248 -0.1429 -0.1153
25681W        W68598  25.562  21.989  31.157  0.2107  0.1925  0.1996
25682W        W68599  29.518  22.584  29.897 -0.0175 -0.1480  0.1177
25683W        W68600  25.071  23.136  28.506 -0.0193 -0.0536  0.1671
25684W        W68601  26.089  21.965  30.557 -0.0209  0.0772 -0.0953
25685W        W68602  26.812  20.685  28.177  0.0788  0.2758 -0.1379
25686W        W68603  27.855  22.342  28.413  0.0669 -0.0975 -0.4070
25687W        W68604  27.176  22.721  29.844  0.3294  0.5003 -0.0075
25688W        W68605  26.072  23.435  29.463  0.2711  0.0313  0.3333
25689W        W68606  26.901  20.544  28.705 -0.0954 -0.0275 -0.0909
25690W        W68607  27.276  21.395  27.871 -0.0604  0.1513 -0.0681
25691W        W68608  24.863  24.462  29.661  0.2481  0.1470 -0.2474
25692W        W68609  28.471  25.013  29.095 -0.1326  0.1087 -0.0494
25693W        W68610  26.072  24.134  28.921 -0.0464 -0.2272  0.1950
25694W        W68611  27.141  22.417  27.871  0.3720  0.1280 -0.1665
25695W        W68612  27.827  23.792  28.337  0.2072 -0.1938 -0.0577
25696W        W68613  25.080  24.277  30.066  0.0198  0.1792  0.1141
25697W        W68614  27.552  24.677  31.012 -0.0145 -0.2751  0.0116
25698W        W68615  27.066  24.951  29.028  0.1391  0.4141 -0.3480
25699W        W68616  28.053  21.333  29.159 -0.0492  0.2631  0.1944
25700W        W68617  23.756  23.903  27.236  0.4257  0.2189 -0.0184
25701W        W68618  26.867  22.956  28.507 -0.2652  0.1640 -0.1264
25702W        W68619  23.634  24.786  29.117  0.0786 -0.1138 -0.1843
25703W        W68620  28.124  21.093  31.297  0.3472  0.1702 -0.0394
25704W        W68621  27.403  21.686  28.237  0.0816  0.1650 -0.2817
25705W        W68622  27.634  21.787  29.565  0.1788 -0.1981  0.2039
25706W        W68623  29.099  22.775  30.974 -0.1435  0.0192  0.3811
25707W        W68624  27.466  24.087  29.950  0.2049  0.1123 -0.2077
25708W        W68625  31.156  22.423  30.001  0.4333  0.0989 -0.2305
25709W        W68626  26.250  23.703  26.377 -0.1077  0.2625  0.1946
25710W        W68627  29.728  21.640  29.051  0.1205  0.0063  0.1011
25711W        W68628  26.207  21.359  30.748 -0.2872  0.0329 -0.1280
25712W        W68629  27.136  22.327  31.369 -0.0779  0.0499 -0.0951
25713W        W68630  28.081  22.439  31.018  0.0845  0.1031  0.0657
25714W        W68631  25.391  21.847  28.641 -0.1561 -0.0273  0.0003
25715W        W68632  28.848  23.132  29.692 -0.3246  0.2401 -0.2224
25716W        W68633  27.937  21.279  27.691 -0.0263 -0.0468  0.3200
25717W        W68634  25.231  26.350  28.113 -0.0433 -0.0325  0.1389
25718W        W68635  26.557  23.967  27.688  0.1635 -0.2059 -0.1717
25719W        W68636  27.507  19.688  29.362 -0.2857 -0.1677  0.4327
25720W        W68637  27.183  23.779  28.727  0.1607  0.0244 -0.0725
25721W        W68638  25.617  23.675  27.503  0.0364 -0.0167  0.2850
25722W        W68639  27.974  23.959  29.826  0.1071 -0.2537 -0.0932
25723W        W68640  24.883  25.802  28.212 -0.1213  0.0059  0.1783
25724W        W68641  29.659  21.716  30.974  0.1481 -0.0847  0.0879
25725W        W68642  25.256  24.703  30.293 -0.3454  0.1834  0.2783
25726W        W68643  24.920  23.194  27.395  0.0552  0.5290  0.4280
25727W        W68644  27.394  22.393  27.416  0.1217 -0.2201  0.0399
25728W        W68645  24.326  19.926  28.601 -0.1444 -0.0023  0.2581
25729W        W68646  25.954  24.199  28.148 -0.2762  0.2688 -0.2476
25730W        W68647  25.583  21.647  28.260  0.3616  0.4206  0.3572
25731W        W68648  26.740  21.189  30.678  0.0869  0.1080 -0.2024
25732W        W68649  24.780  25.594  31.012  0.0372 -0.0921 -0.0347
25733W        W68650  28.569  22.666   0.090  0.3299  0.0829 -0.0645
25734W        W68651  28.727  21.808  28.770 -0.0452  0.0570  0.3908
25735W        W68652  26.878  25.698  30.059  0.2166  0.0523  0.3619
25736W        W68653  25.592  23.516  29.249 -0.1600 -0.0576 -0.0272
25737W        W68654  25.715  22.861  26.818 -0.2546  0.0767  0.0717
25738W        W68655  29.211  24.362  30.498 -0.0250  0.1363 -0.0507
25739W        W68656  27.029  21.272  26.494  0.0872 -0.1330  0.2901
25740W        W68657  24.705  23.283  29.085  0.1952  0.2346  0.1421
25741W        W68658  26.341  24.317  28.487 -0.3861 -0.0568 -0.0859
25742W        W68659  25.883  22.567  26.462 -0.0435 -0.1487 -0.0808
25743W        W68660  25.392  24.014  29.064  0.4637 -0.1344 -0.2430
25744W        W68661  26.682  21.380  31.180 -0.0145  0.0918 -0.3933
25745W        W68662  29.740  23.712  30.272 -0.2924  0.0216 -0.4876
25746W        W68663  23.984  24.916  29.469  0.0949 -0.0597  0.1939
25747W        W68664  27.660  22.135  27.926  0.2044  0.0389 -0.0268
25748W        W68665  27.008  23.227  29.954  0.1860  0.1639  0.0863
25749W        W68666  26.248  22.489  30.349 -0.0778 -0.0779  0.1135
25750W        W68667  28.675  21.325  29.570 -0.0462  0.0460 -0.5052
25751W        W68668  25.729  23.738  30.745  0.2867 -0.1238  0.0726
25752W        W68669  27.559  22.499  28.750 -0.1142 -0.0800  0.2841
25753W        W68670  28.927  25.075  30.069 -0.0493 -0.1019 -0.2584
25754W        W68671  28.412  24.643  30.372 -0.0575  0.0788 -0.1657
25755W        W68672  26.806  22.570  26.547 -0.0001  0.3376  0.4435
25756W        W68673  24.239  24.695  30.488 -0.0709  0.1074  0.1269
25757W        W68674  24.428  24.284  27.988 -0.2086 -0.0437 -0.0224
25758W        W68675  27.729  22.152  30.309 -0.0393  0.1810 -0.0799
25759W        W68676  24.430  24.416  30.012  0.0715 -0.3340 -0.0461
25760W        W68677  25.126  24.798  28.816  0.0301 -0.2073 -0.0283
25761W        W68678  26.748  26.120  29.826 -0.0018 -0.0536  0.4891
25762W        W68679  29.839  22.404  28.994 -0.0716  0.1313 -0.1253
25763W        W68680  27.169  24.697  26.727  0.1548  0.0411  0.0904
25764W        W68681  25.500  23.384  28.211  0.2994  0.1396  0.1309
25765W        W68682  28.606  22.531  30.918  0.0515  0.0087  0.2803
25766W        W68683  28.254  22.640  27.310  0.0175 -0.2600  0.0871
25767W        W68684  29.023  21.830   0.116  0.0500 -0.0201 -0.1527
25768W        W68685  27.260  22.347  30.219  0.0398  0.1849  0.0126
25769W        W68686  29.225  23.310  29.485  0.0916 -0.0369 -0.0582
25770W        W68687  25.390  23.888  28.378 -0.2830  0.1064  0.1281
25771W        W68688  25.419  24.865  29.206 -0.0497  0.2995  0.0861
25772W        W68689  25.913  22.174  31.518  0.1100 -0.1354  0.0093
25773W        W68690  26.072  22.409  28.850 -0.0025 -0.0776 -0.1857
25774W        W68691  24.389  22.711  28.490  0.1294 -0.0381 -0.0677
25775W        W68692  26.432  21.843  30.958 -0.1225 -0.1875 -0.1978
25776W        W68693  28.396  23.480  31.015  0.2861 -0.0829 -0.2107
25777W        W68694  25.350  23.253  27.739 -0.0712  0.1592 -0.1167
25778W        W68695  29.538  20.705  30.705  0.1247  0.1673  0.1156
25779W        W68696  25.544  23.383  30.374 -0.0876 -0.1369 -0.1931
25780W        W68697  26.406  23.905  29.538  0.0716 -0.0338  0.0940
25781W        W68698  29.831  24.773  27.155 -0.1550  0.0051 -0.2101
25782W        W68699  26.045  25.016  27.431  0.0387  0.1374 -0.1335
25783W        W68700  27.686  21.254  29.603  0.2755 -0.2011 -0.0641
25784W        W68701  28.190  23.764  31.433  0.1071 -0.0119 -0.1438
25785W        W68702  27.471  22.621  28.193  0.1431  0.1776  0.0213
25786W        W68703  26.763  21.305  27.237 -0.0416 -0.0061 -0.1887
25787W        W68704  28.691  22.319  29.889  0.1896  0.0293  0.1480
25788W        W68705  27.711  22.698  29.683 -0.2015 -0.3305  0.0119
25789W        W68706  23.939  22.685  31.811  0.0392 -0.1509  0.0552
25790W        W68707  28.315  26.545   1.335 -0.0622  0.0559 -0.4415
25791W        W68708  27.596  23.153  27.310 -0.0728 -0.1929 -0.0991
25792W        W68709  28.418  21.663  29.124 -0.1328  0.2082 -0.2087
25793W        W68710  30.285  22.326  28.037 -0.0697  0.0466  0.0737
25794W        W68711  27.316  23.613  29.804 -0.0001  0.0900 -0.2814
25795W        W68712  26.142  21.545  27.965 -0.0861  0.1629  0.0676
25796W        W68713  28.717  23.347  29.253  0.1059 -0.2310 -0.0124
25797W        W68714  27.002  22.225  26.217 -0.0032  0.1345 -0.1380
25798W        W68715  28.461  22.183  29.063  0.1101  0.0903 -0.1280
25799W        W68716  27.841  25.221  25.963  0.0923  0.0601  0.0545
25800W        W68717  27.689  23.396  28.674 -0.1719 -0.1048  0.1757
25801W        W68718  27.699  23.807  29.012 -0.1298  0.0616  0.1340
25802W        W68719  27.490  23.083  29.975  0.0088 -0.1310  0.2113
25803W        W68720  26.130  25.351  30.374 -0.0961  0.0539 -0.0372
25804W        W68721  25.236  21.153  26.989  0.3864 -0.1450 -0.1250
25805W        W68722  25.592  24.906  28.774  0.0349  0.0947 -0.1410
25806W        W68723  26.560  24.928  29.963 -0.0842 -0.0175  0.0861
25807W        W68724  30.212  24.301  30.426 -0.0345 -0.2703  0.4747
25808W        W68725  27.372  22.187  25.262  0.0443  0.2247  0.2164
25809W        W68726  30.703  23.162  31.845  0.1163 -0.0798  0.0995
25810W        W68727  25.518  25.124  28.222  0.0121  0.3576  0.0144
25811W        W68728  27.248  22.149  28.890  0.1763 -0.0114  0.0351
25812W        W68729  25.253  25.468  31.594  0.5077  0.0369  0.0810
25813W        W68730  26.193  22.990  29.828  0.1508 -0.1736  0.1968
25814W        W68731  25.673  25.716  30.492 -0.1531  0.0662 -0.2791
25815W        W68732  27.696  22.284  29.253  0.0583 -0.0849 -0.1071
25816W        W68733  29.366  21.948  30.033  0.1864 -0.2680  0.2458
25817W        W68734  25.713  23.756  28.801  0.0633 -0.1645 -0.3316
25818W        W68735  28.064  25.029  30.754  0.0266 -0.1219  0.1397
25819W        W68736  26.075  26.447  30.758 -0.2817  0.0378 -0.0421
25820W        W68737  25.929  24.188  31.071 -0.1836 -0.0504 -0.0653
25821W        W68738  26.861  23.803  29.664  0.1001  0.2025  0.0790
25822W        W68739  26.270  23.729  29.114 -0.0205 -0.2681 -0.0751
25823W        W68740  24.252  24.202  29.607  0.0670 -0.5923  0.0798
25824W        W68741  24.805  23.463  31.143 -0.2037 -0.1977  0.2422
25825W        W68742  28.300  22.882  31.102  0.3844 -0.2396 -0.1762
25826W        W68743  25.053  23.235  30.154 -0.0436  0.2102 -0.0283
25827W        W68744  26.497  22.604  29.561  0.3585  0.1502  0.0639
25828W        W68745  26.265  23.762  28.537 -0.3992 -0.1244 -0.1825
25829W        W68746  27.162  26.047   0.400 -0.0182 -0.1868  0.1673
25830W        W68747  26.687  22.841  30.020  0.0575 -0.0555  0.1107
25831W        W68748  25.698  26.291  28.062  0.4297 -0.0495 -0.0688
25832W        W68749  27.802  24.193  28.731  0.3526 -0.0143  0.0965
25833W        W68750  26.488  23.568  27.002  0.2983 -0.3661 -0.2354
25834W        W68751  26.610  25.308  30.303  0.0378  0.1586  0.0187
25835W        W68752  26.262  22.643  25.700  0.2635 -0.2724  0.1432
25836W        W68753  26.149  24.585  30.063 -0.0494  0.0548  0.1463
25837W        W68754  26.655  27.926  26.534  0.3480 -0.0068 -0.3629
25838W        W68755  24.835  24.962  27.230  0.0836  0.4326  0.1743
25839W        W68756  25.601  23.164  27.245  0.1431  0.0145  0.2008
25840W        W68757  26.636  26.032  30.392 -0.4232  0.0593  0.0455
25841W        W68758  27.572  20.606  29.618 -0.0449 -0.0746  0.0268
25842W        W68759  30.460  23.814  29.201 -0.2052 -0.0616  0.1295
25843W        W68760  27.017  21.439  28.481 -0.1405  0.0159  0.0973
25844W        W68761  28.123  25.410  31.522  0.1539 -0.3034  0.3085
25845W        W68762  25.842  22.893  28.703  0.1346  0.1293 -0.1068
25846W        W68763  26.553  23.392  28.466  0.2276 -0.0205  0.0755
25847W        W68764  26.385  22.428  30.864 -0.0749  0.1351 -0.1250
25848W        W68765  27.444  21.539  31.866  0.0041  0.0610  0.2230
25849W        W68766  25.512  25.126  30.475  0.0800  0.0848  0.1425
25850W        W68767  26.120  23.325  28.836  0.1365 -0.0928 -0.0133
25851W        W68768  25.877  21.284  29.774  0.1225 -0.1772 -0.0484
25852W        W68769  27.099  23.690  27.824 -0.5157 -0.0111  0.3617
25853W        W68770  29.865  22.051  30.628 -0.2354 -0.1432  0.1064
25854W        W68771  26.035  25.128  27.952  0.1121 -0.0283 -0.4391
25855W        W68772  24.786  24.563  27.609  0.0529 -0.0545 -0.2962
25856W        W68773  26.483  25.856  28.464  0.1652  0.2428  0.1700
25857W        W68774  25.203  25.430  30.798  0.0047 -0.2639 -0.0235
25858W        W68775  26.070  26.574  31.315  0.0709  0.0830 -0.0034
25859W        W68776  25.195  22.028  29.437 -0.2247  0.2592 -0.0610
25860W        W68777  28.309  23.159  29.075 -0.1923 -0.2276 -0.3569
25861W        W68778  26.976  23.640  30.771  0.0633 -0.2305  0.1627
25862W        W68779  28.643  21.161  30.892 -0.0764  0.0189 -0.4969
25863W        W68780  26.496  22.641  29.010 -0.1201 -0.1348 -0.1969
25864W        W68781  29.700  23.326  28.003 -0.2583 -0.0863  0.0836
25865W        W68782  27.745  25.348  30.341  0.2735 -0.1652  0.0028
25866W        W68783  26.893  21.610  27.589 -0.2431  0.1302 -0.0876
25867W        W68784  27.288  23.485  29.135 -0.7039  0.0675 -0.0176
25868W        W68785  29.341  21.912  31.291 -0.1316 -0.2767 -0.0244
25869W        W68786  28.821  22.908  30.202  0.2333  0.1092  0.3962
25870W        W68787  25.387  26.396  29.880 -0.4480  0.0300 -0.0516
25871W        W68788  26.457  21.897  27.720  0.4222 -0.1176 -0.3945
25872W        W68789  26.130  21.302  26.571 -0.1087  0.0584 -0.1654
25873W        W68790  25.417  23.888  30.395 -0.0057  0.2437  0.0544
25874W        W68791  25.826  24.730  30.533  0.1240 -0.1434  0.2661
25875W        W68792  27.825  23.427  29.729  0.2424 -0.2518 -0.1430
25876W        W68793  26.907  21.310  29.831 -0.2271 -0.0690 -0.3924
25877W        W68794  25.964  24.910  26.955  0.3826  0.1352 -0.0627
25878W        W68795  30.134  22.438  30.044  0.0921  0.3368  0.1183
25879W        W68796  26.682  24.762  27.052  0.0920  0.0765 -0.1114
25880W        W68797  28.973  24.276  29.201  0.1198  0.3859  0.1011
25881W        W68798  27.833  25.581  29.313  0.1638  0.0725  0.1078
25882W        W68799  24.489  20.149  30.153  0.1194 -0.2151  0.2144
25883W        W68800  27.030  26.322  30.785 -0.2835  0.1470 -0.0312
25884W        W68801  29.597  23.743  29.659 -0.0589 -0.3417 -0.0445
25885W        W68802  26.211  22.083  25.572  0.1643 -0.1710  0.2305
25886W        W68803  25.278  22.844  28.055  0.2956  0.1092  0.2102
25887W        W68804  24.911  25.398  29.062 -0.2189  0.1484 -0.0535
25888W        W68805  28.539  20.983  29.099  0.2733  0.0117 -0.0785
25889W        W68806  27.154  21.932  29.334  0.0024 -0.0926 -0.1799
25890W        W68807  28.141  24.279  26.466  0.0476 -0.0603  0.0263
25891W        W68808  30.070  21.417   0.798 -0.2694  0.5103 -0.4202
25892W        W68809  26.208  23.909  30.782  0.0846 -0.2613  0.3211
25893W        W68810  28.275  24.764  29.471 -0.1035 -0.0775  0.0191
25894W        W68811  27.189  22.577  26.941 -0.1158 -0.3624 -0.1653
25895W        W68812  26.835  25.332  30.929 -0.0379 -0.0061 -0.0209
25896W        W68813  25.576  24.406  29.972  0.0383 -0.1656  0.0242
25897W        W68814  27.030  23.942  27.349 -0.1545  0.1503 -0.0534
25898W        W68815  28.504  24.070  28.705  0.2328  0.1587 -0.4328
25899W        W68816  28.342  23.273  28.563  0.5074 -0.1070  0.0102
25900W        W68817  27.767  26.823  27.796  0.2440  0.0117  0.0636
25901W        W68818  26.813  22.145  26.783 -0.0235  0.2732 -0.0419
25902W        W68819  27.533  22.761  27.673  0.0909  0.1105 -0.1637
25903W        W68820  29.353  20.685  27.661  0.0726  0.2117  0.1397
25904W        W68821  27.022  24.707  29.870  0.0320  0.2248  0.0805
25905W        W68822  27.097  24.093  25.425 -0.0892  0.1443 -0.0879
25906W        W68823  25.368  22.806  28.907  0.1987  0.0303 -0.2551
25907W        W68824  24.798  21.519  28.724 -0.2999 -0.0905  0.0137
25908W        W68825  29.841  21.839   0.659 -0.0059 -0.1566  0.1441
25909W        W68826  25.791  22.127  30.146  0.0916  0.1356  0.0444
25910W        W68827  24.836  22.339  29.339  0.0231  0.0384  0.3364
25911W        W68828  25.765  23.286  29.839 -0.0501 -0.2064 -0.0532
25912W        W68829  27.311  24.814  29.482  0.3505  0.0062  0.2056
25913W        W68830  26.464  22.103  29.638 -0.0065  0.0771  0.0696
25914W        W68831  25.048  21.644  29.802 -0.1156 -0.0651 -0.1030
25915W        W68832  29.240  24.675  29.594 -0.0826  0.1636 -0.0110
25916W        W68833  27.048  24.960  27.778 -0.3096 -0.3275 -0.0418
25917W        W68834  26.042  22.543  27.706 -0.1433  0.2172  0.0587
25918W        W68835  28.034  27.296   1.500 -0.0978  0.0830 -0.0340
25919W        W68836  25.130  23.679  25.311  0.0851  0.0027  0.0774
25920W        W68837  26.663  21.737  29.323 -0.1789 -0.2664  0.0764
25921W        W68838  27.903  23.197  30.480 -0.1582 -0.0045 -0.1351
25922W        W68839  25.310  23.652  26.405  0.2460 -0.1511  0.0884
25923W        W68840  27.143  23.352  28.572 -0.4787  0.3079 -0.2862
25924W        W68841  27.266  24.257  29.509  0.1833 -0.1749 -0.3158
25925W        W68842  28.969  27.538  27.669 -0.1839 -0.1682 -0.2163
25926W        W68843  26.338  22.003  30.129  0.0729  0.0622 -0.0561
25927W        W68844  25.927  24.030  30.276  0.2355 -0.0215  0.2107
25928W        W68845  24.547  21.601  30.501  0.2723 -0.0512  0.2468
25929W        W68846  25.347  24.293  28.037 -0.0232 -0.2248 -0.0224
25930W        W68847  25.952  25.401  29.905 -0.1319 -0.0443  0.2756
25931W        W68848  27.644  24.090  27.461  0.2308  0.1692  0.0547
25932W        W68849  28.007  21.894  29.181  0.3108 -0.1058  0.0385
25933W        W68850  25.286  22.566  29.413  0.0205  0.4037 -0.2665
25934W        W68851  24.775  21.793  31.481  0.1436 -0.3442 -0.0520
25935W        W68852  24.883  25.107  31.736  0.0503 -0.0368 -0.0854
25936W        W68853  28.134  22.510  30.203  0.2191 -0.1936  0.1636
25937W        W68854  26.455  23.607  30.152 -0.0989  0.3150  0.4173
25938W        W68855  26.506  23.113  27.215 -0.1255 -0.0151 -0.0995
25939W        W68856  28.333  24.665  27.288  0.0843  0.1977 -0.1236
25940W        W68857  27.017  22.618  28.835  0.0511 -0.2407 -0.0728
25941W        W68858  27.414  21.226  28.539 -0.0700 -0.1095 -0.0812
25942W        W68859  26.444  21.540  29.750  0.0977  0.1345 -0.2410
25943W        W68860  28.255  22.804  30.575  0.1507  0.2254 -0.0879
25944W        W68861  27.935  21.764  30.079  0.0909 -0.0386  0.0849
25945W        W68862  28.772  25.536  25.926 -0.3008  0.0548 -0.3977
25946W        W68863  28.793  23.097  28.719 -0.1700  0.2831  0.2092
25947W        W68864  27.072  26.120  30.232  0.1712 -0.0617  0.2028
25948W        W68865  30.613  24.037  30.204  0.2472  0.4858  0.1003
25949W        W68866  27.461  25.731  30.172 -0.4071 -0.3402  0.3182
25950W        W68867  26.744  22.139  30.484 -0.0070 -0.2030 -0.0261
25951W        W68868  26.696  21.109  28.412  0.2444 -0.0249  0.1462
25952W        W68869  27.777  22.396  26.731 -0.0214  0.1682  0.2337
25953W        W68870  25.543  23.307  28.706  0.1942 -0.3837  0.1031
25954W        W68871  28.845  22.378  29.342  0.2021  0.1543  0.0002
25955W        W68872  25.887  22.696  30.043  0.1548  0.0056 -0.2124
25956W        W68873  28.482  22.287  28.575  0.0555  0.0078  0.1598
25957W        W68874  26.358  26.066  31.030 -0.0937  0.0241 -0.2278
25958W        W68875  26.286  25.001  29.527  0.0095  0.3295  0.0215
25959W        W68876  26.946  23.081  28.999 -0.2913  0.0443 -0.0739
25960W        W68877  28.602  24.195  30.659  0.0144 -0.1465 -0.0402
25961W        W68878  24.831  22.120  31.846 -0.2774  0.5063  0.1552
25962W        W68879  25.779  24.908  30.032 -0.0467  0.1684  0.0431
25963W        W68880  28.556  23.474  31.667  0.2377 -0.3096  0.0827
25964W        W68881  25.722  24.953   0.520  0.2820 -0.1973  0.1384
25965W        W68882  28.271  24.296  29.632 -0.0065  0.2890  0.0184
25966W        W68883  27.773  22.542  30.621 -0.0199 -0.2229 -0.1987
25967W        W68884  27.245  23.375  30.448 -0.1900  0.3205 -0.1754
25968W        W68885  30.006  25.820  31.643  0.1422  0.1616 -0.0445
25969W        W68886  26.936  23.897  29.206 -0.3394 -0.2320  0.0630
25970W        W68887  27.924  23.646  30.614  0.3163 -0.2757 -0.0475
25971W        W68888  28.880  25.623  31.612  0.0827 -0.0215  0.1515
25972W        W68889  27.391  25.193  30.734  0.0586  0.0860 -0.3941
25973W        W68890  28.817  24.717  31.407  0.0935 -0.0073 -0.1864
25974W        W68891  25.956  24.723  31.657 -0.0451 -0.2139  0.2114
25975W        W68892  25.676  22.759  29.601  0.5179  0.2424  0.0105
25976W        W68893  27.844  25.689  31.841 -0.1134  0.0501  0.2694
25977W        W68894  24.973  21.303   0.069  0.1276 -0.0830 -0.1638
25978W        W68895  26.242  22.652  31.867 -0.3595 -0.2210  0.3004
25979W        W68896  26.022  21.441  31.736 -0.4611 -0.0626  0.2490
25980W        W68897  26.515  22.867  31.436 -0.1099  0.0283  0.1637
25981W        W68898  28.860  23.512  30.889  0.0061  0.2339  0.2276
25982W        W68899  27.141  22.824  30.295  0.0253  0.0487  0.0061
25983W        W68900  29.387  21.102  31.617 -0.1816 -0.0633 -0.2172
25984W        W68901  28.351  22.054  30.107  0.1373 -0.2028 -0.1390
25985W        W68902  25.384  20.963  31.362  0.0838 -0.4471 -0.0797
25986W        W68903  23.815  25.407  31.645  0.1543  0.1371 -0.2318
25987W        W68904  26.385  21.946  31.497  0.0998 -0.0520  0.1047
25988W        W68905  25.564  21.701  31.596 -0.3314 -0.0430 -0.0036
25989W        W68906  26.392  24.654  31.310 -0.0028  0.1262 -0.3209
25990W        W68907  25.438  22.615   0.252  0.0312 -0.0266 -0.2170
25991W        W68908  29.048  24.249  31.432  0.3700  0.2181 -0.2986
25992W        W68909  28.824  21.468  30.515  0.1735 -0.0645 -0.1022
25993W        W68910  25.147  22.077  31.464 -0.0087  0.2665 -0.2103
25994W        W68911  24.932  24.203  30.577 -0.4595 -0.2283 -0.1618
25995W        W68912  27.325  25.948  31.888 -0.0325 -0.0947 -0.0973
25996W        W68913  27.660  22.662  30.168 -0.0222 -0.1207  0.1268
25997W        W68914  29.287  24.176  29.605 -0.1493 -0.3864 -0.2127
25998W        W68915  27.017  24.162  30.198  0.0165  0.1067 -0.1388
25999W        W68916  29.456  24.808  30.400 -0.0107 -0.1106  0.1220
26000W        W68917  27.116  25.412   0.251  0.0437 -0.3049  0.2120
26001W        W68918  27.090  23.500  31.517 -0.0130  0.2158  0.1116
26002W        W68919  26.652  24.506  30.714  0.0164 -0.1096  0.2445
26003W        W68920  27.168  22.340  30.742  0.2612  0.0270  0.0552
26004W        W68921  27.713  24.867  31.946  0.0948 -0.3536 -0.0806
26005W        W68922  26.007  21.723  31.257 -0.0376 -0.1473 -0.1809
26006W        W68923  27.945  24.977   0.444  0.0900  0.2200 -0.1519
26007W        W68924  26.485  25.291   0.452  0.0494 -0.0136  0.1156
26008W        W68925  24.851  24.056  31.872 -0.1041 -0.0992 -0.0699
26009W        W68926  28.981  25.013   0.491 -0.0061 -0.0800  0.0701
26010W        W68927  28.171  21.351  31.737 -0.1537  0.1078  0.2326
26011W        W68928  28.344  22.455  29.538 -0.0080 -0.0894 -0.3897
26012W        W68929  29.419  24.054  30.080 -0.3500  0.2830 -0.0636
26013W        W68930  28.240  23.688   0.214  0.1641 -0.0535 -0.2840
26014W        W68931  28.436  23.198  30.310 -0.1799  0.0105 -0.0162
26015W        W68932  28.592  23.981  29.290 -0.0446  0.2180  0.1483
26016W        W68933  27.740  23.844  31.589  0.1110 -0.0069  0.0189
26017W        W68934  26.836  23.817  31.212 -0.1619 -0.1825  0.0216
26018W        W68935  24.082  23.489  29.142  0.1154  0.1664 -0.2801
26019W        W68936  25.161  24.008   0.758  0.1207 -0.0499 -0.0253
26020W        W68937  25.762  21.133  30.478  0.1078  0.1576 -0.1064
26021W        W68938  25.823  22.440  30.653  0.1410 -0.1717 -0.0108
26022W        W68939  25.100  21.827  30.992  0.0073 -0.1505 -0.0839
26023W        W68940  28.933  24.475  30.952  0.1525  0.0609 -0.0166
26024W        W68941  26.409  25.088  30.715  0.2192  0.0927 -0.1443
26025W        W68942  28.613  24.450  31.713  0.2007 -0.4029  0.0555
26026W        W68943  26.918  29.802  19.454 -0.0610 -0.0697 -0.0500
26027W        W68944  25.891  25.905  19.576 -0.3840  0.1950 -0.0065
26028W        W68945  28.285  27.265  19.069 -0.0267 -0.0453  0.2215
26029W        W68946  29.918  28.278  18.662  0.1853 -0.0551  0.0709
26030W        W68947  25.332  26.281  18.825 -0.1542  0.3332 -0.0856
26031W        W68948  29.427  29.116  17.757 -0.0189  0.2852 -0.0321
26032W        W68949  25.437  25.037  18.667  0.1398  0.1652  0.0832
26033W        W68950  29.750  29.205  18.804  0.0344  0.4097  0.0200
26034W        W68951  29.974  27.796  17.938  0.1021  0.1049 -0.0080
26035W        W68952  28.358  27.351  16.393 -0.1622 -0.0487 -0.1443
26036W        W68953  26.829  26.342  19.792 -0.0068  0.2482  0.0475
26037W        W68954  27.898  26.750  18.790  0.1131  0.1859  0.2849
26038W        W68955  27.068  26.888  17.792 -0.0830 -0.0195  0.1228
26039W        W68956  21.701  28.254  19.298 -0.0470 -0.3213  0.0692
26040W        W68957  26.212  25.829  18.543 -0.0732  0.0003  0.0436
26041W        W68958  25.311  26.060  17.957 -0.0211 -0.1197  0.1270
26042W        W68959  25.958  25.091  20.026  0.1515  0.2405  0.0290
26043W        W68960  26.714  26.098  17.698  0.0395  0.1799  0.1011
26044W        W68961  27.665  31.230  18.740 -0.0472 -0.0270 -0.0758
26045W        W68962  26.451  24.915  21.274  0.2959  0.0016 -0.2808
26046W        W68963  25.733  26.608  19.537 -0.1472  0.4629  0.2987
26047W        W68964  27.291  27.147  17.372 -0.0139  0.3069 -0.1354
26048W        W68965  25.413  25.367  17.299 -0.2125  0.0002 -0.2741
26049W        W68966  25.849  25.952  18.222 -0.0896  0.5603  0.2597
26050W        W68967  26.342  28.045  18.378 -0.1303  0.2480  0.1403
26051W        W68968  27.104  25.777  17.668 -0.3008 -0.2988 -0.0924
26052W        W68969  30.203  25.881  18.718 -0.0538 -0.3259  0.1240
26053W        W68970  25.878  26.542  18.903  0.1769 -0.1881  0.2453
26054W        W68971  28.334  28.143  18.544  0.1545 -0.3124  0.0523
26055W        W68972  27.501  25.687  18.567 -0.2017  0.0610  0.1933
26056W        W68973  27.490  26.634  17.854 -0.0668  0.2765 -0.2836
26057W        W68974  24.620  28.980  16.504 -0.0366  0.0852  0.0050
26058W        W68975  26.496  28.372  16.913  0.3120  0.1062 -0.0068
26059W        W68976  28.826  28.831  19.158  0.1145  0.0541  0.2167
26060W        W68977  26.851  29.253  18.237 -0.0565 -0.3330  0.0431
26061W        W68978  28.539  29.817  20.863  0.0007  0.0745  0.1455
26062W        W68979  25.190  28.919  16.943 -0.1268 -0.1385 -0.4374
26063W        W68980  26.076  27.716  19.417  0.0730 -0.1259 -0.1387
26064W        W68981  27.349  30.268  18.643 -0.1373  0.1160  0.0841
26065W        W68982  25.426  24.877  20.482  0.2215 -0.2573 -0.2154
26066W        W68983  28.609  26.810  17.605 -0.2558  0.3015 -0.2486
26067W        W68984  27.300  28.887  18.640 -0.0091 -0.1195  0.1267
26068W        W68985  26.134  25.988  17.642 -0.1452  0.0226  0.0363
26069W        W68986  26.211  28.649  20.544  0.0684  0.2245  0.2494
26070W        W68987  28.005  28.820  18.103  0.1879 -0.0905  0.0388
26071W        W68988  29.083  25.794  22.446  0.1507  0.0729  0.0886
26072W        W68989  25.881  28.382  17.432  0.4126 -0.2996 -0.2832
26073W        W68990  26.088  27.320  17.418 -0.1530  0.0809 -0.0471
26074W        W68991  27.397  25.130  17.601  0.1191  0.2058 -0.2811
26075W        W68992  27.920  28.532  17.707  0.0540 -0.0407  0.2226
26076W        W68993  28.477  24.755  16.875  0.0139  0.1682  0.2339
26077W        W68994  26.710  28.391  18.336 -0.1860 -0.0433  0.1488
26078W        W68995  24.562  25.854  19.304  0.0833 -0.2007  0.2646
26079W        W68996  28.856  27.407  20.479 -0.2958  0.2962 -0.0283
26080W        W68997  27.265  26.841  16.892 -0.0807  0.1061  0.0685
26081W        W68998  27.743  26.734  19.248  0.2123 -0.0446 -0.2035
26082W        W68999  26.568  28.107  19.281  0.1810 -0.4202  0.1636
26083W        W69000  24.765  26.483  17.163  0.2734 -0.0714  0.0868
26084W        W69001  27.802  28.673  17.088 -0.0582  0.1304  0.1919
26085W        W69002  29.467  26.382  17.503 -0.0093 -0.4320 -0.1788
26086W        W69003  27.463  28.967  17.383  0.0506  0.2079  0.0457
26087W        W69004  26.604  27.901  17.096  0.0867 -0.1318 -0.0805
26088W        W69005  25.179  26.653  19.148 -0.1625 -0.2813  0.2012
26089W        W69006  26.660  26.276  18.273  0.3060 -0.1739  0.3309
26090W        W69007  25.819  25.326  16.986  0.0988 -0.0030  0.0237
26091W        W69008  28.247  29.483  21.727 -0.0708  0.2144  0.1813
26092W        W69009  26.482  30.012  19.322 -0.1199 -0.2405  0.0606
26093W        W69010  29.591  26.895  17.594 -0.0135 -0.0677  0.3157
26094W        W69011  26.616  25.491  18.322  0.0270 -0.1896  0.2961
26095W        W69012  29.046  28.241  19.037  0.1161  0.1432  0.0969
26096W        W69013  27.288  29.350  17.728  0.1865  0.0127 -0.1738
26097W        W69014  27.225  24.395  19.664 -0.0670  0.0137 -0.1532
26098W        W69015  27.824  27.710  19.600  0.1602 -0.1475 -0.5287
26099W        W69016  28.047  27.538  17.302 -0.0040  0.0181 -0.1481
26100W        W69017  26.931  28.187  17.396  0.2070 -0.1373 -0.1781
26101W        W69018  29.795  30.127  19.295 -0.0416 -0.1113  0.1372
26102W        W69019  26.982  27.622  17.361  0.4326  0.2969 -0.1364
26103W        W69020  26.072  26.409  16.669 -0.3112  0.0469 -0.1377
26104W        W69021  24.525  24.846  20.846 -0.3212  0.0819  0.0182
26105W        W69022  28.326  28.615  19.015  0.2612  0.2505 -0.1035
26106W        W69023  25.015  28.663  16.553  0.3158 -0.0462 -0.4161
26107W        W69024  25.608  28.028  17.117 -0.1764 -0.3330 -0.2363
26108W        W69025  25.453  28.267  19.448 -0.0413  0.0414 -0.0792
26109W        W69026  24.727  25.755  18.858 -0.0535  0.1513  0.2453
26110W        W69027  26.547  26.546  17.910 -0.1916 -0.0670  0.1335
26111W        W69028  28.715  27.272  17.312  0.2560 -0.0794 -0.1215
26112W        W69029  25.311  25.966  19.723  0.0931 -0.2272  0.0054
26113W        W69030  29.411  25.087  17.939 -0.0993 -0.0286 -0.0579
26114W        W69031  22.330  27.594  19.047  0.1493  0.3136 -0.0002
26115W        W69032  31.002  30.946  19.119 -0.0065  0.0266  0.2670
26116W        W69033  29.926  26.908  17.952 -0.1943 -0.1271 -0.0600
26117W        W69034  29.149  27.475  17.577 -0.1108  0.1383  0.0641
26118W        W69035  25.932  25.126  20.839  0.1581  0.1394  0.0632
26119W        W69036  26.084  26.576  17.557  0.0636  0.1365 -0.0144
26120W        W69037  27.034  25.241  19.974  0.1201 -0.2892  0.1220
26121W        W69038  23.867  25.492  21.405 -0.2066  0.0489 -0.0069
26122W        W69039  28.237  26.359  18.930 -0.1602  0.0354 -0.0575
26123W        W69040  27.761  24.871  17.350 -0.1807  0.0087 -0.0427
26124W        W69041  29.523  26.567  18.732 -0.0171 -0.3824  0.0383
26125W        W69042  26.952  26.455  16.945  0.0901  0.0201 -0.1982
26126W        W69043  25.777  28.737  18.079 -0.2480 -0.3081 -0.4803
26127W        W69044  27.925  28.102  18.841  0.1986  0.2819 -0.0571
26128W        W69045  28.593  29.875  17.702  0.0394  0.0677 -0.2507
26129W        W69046  28.378  32.148  19.030 -0.0968 -0.1393  0.3248
26130W        W69047  29.295  29.112  18.976  0.1203  0.0577 -0.1511
26131W        W69048  25.557  27.197  20.040  0.1169  0.0393  0.2668
26132W        W69049  26.717  27.368  18.061  0.2141  0.1094  0.1444
26133W        W69050  23.547  29.125  18.785 -0.2055 -0.0328 -0.0404
26134W        W69051  24.723  28.384  17.407  0.3182 -0.0824  0.1959
26135W        W69052  27.254  26.973  19.164  0.0113  0.2254 -0.0064
26136W        W69053  30.470  28.962  17.470  0.0176  0.0308  0.2367
26137W        W69054  28.217  26.368  17.650  0.2542  0.2145  0.1982
26138W        W69055  26.375  26.415  20.165  0.0633  0.1303 -0.0260
26139W        W69056  27.168  26.823  20.538 -0.3227  0.0136  0.1698
26140W        W69057  29.253  27.811  19.088  0.0959  0.0444 -0.4284
26141W        W69058  26.420  25.875  18.064  0.0998 -0.0010 -0.1295
26142W        W69059  26.676  28.677  17.478  0.5755  0.1477  0.0544
26143W        W69060  26.804  29.277  19.524 -0.3334 -0.1380 -0.0011
26144W        W69061  23.947  30.345  17.120 -0.0499  0.0808  0.3443
26145W        W69062  24.438  26.889  17.270  0.0362 -0.0499 -0.0443
26146W        W69063  28.711  28.841  17.496 -0.1952 -0.3339  0.0169
26147W        W69064  30.156  28.787  19.916 -0.2711 -0.0086 -0.1873
26148W        W69065  26.024  26.221  19.235  0.2402 -0.0231 -0.0051
26149W        W69066  28.248  29.062  19.263 -0.0793  0.1996 -0.0287
26150W        W69067  26.413  26.108  18.950  0.1158  0.1714  0.0234
26151W        W69068  24.868  28.426  18.477 -0.0084 -0.0955  0.2352
26152W        W69069  28.479  24.897  18.944 -0.1774 -0.1169  0.0845
26153W        W69070  29.863  26.103  17.286 -0.1180 -0.0799  0.2262
26154W        W69071  27.240  28.481  19.767  0.2456 -0.0132 -0.4344
26155W        W69072  29.050  26.754  18.793  0.0897 -0.1630  0.0774
26156W        W69073  28.393  26.465  16.727  0.3088 -0.0448  0.2502
26157W        W69074  28.573  26.990  19.563 -0.1158  0.3892 -0.0880
26158W        W69075  26.861  30.991  19.479  0.3760  0.1910  0.1487
26159W        W69076  27.351  29.133  18.148  0.0378  0.0128  0.1313
26160W        W69077  27.870  25.764  21.690 -0.0677 -0.0433 -0.1880
26161W        W69078  28.830  26.448  18.285  0.0819  0.0564 -0.3114
26162W        W69079  28.647  29.003  18.033  0.3825 -0.1068  0.2014
26163W        W69080  24.064  27.515  18.376  0.1875 -0.3943 -0.0972
26164W        W69081  28.355  27.667  18.719 -0.3136 -0.1441  0.2963
26165W        W69082  29.067  26.628  17.881 -0.1961 -0.1823 -0.1653
26166W        W69083  27.585  24.168  19.429 -0.0673  0.1942 -0.3039
26167W        W69084  26.691  26.574  17.442 -0.2198 -0.2603  0.0116
26168W        W69085  28.466  25.712  18.674  0.2317  0.2170  0.1213
26169W        W69086  26.176  28.661  17.718 -0.0153  0.0715 -0.1903
26170W        W69087  27.553  25.216  20.122  0.0564 -0.1386  0.0051
26171W        W69088  28.118  24.783  20.161  0.1902  0.2192 -0.0415
26172W        W69089  27.836  24.610  19.558 -0.2421 -0.1095 -0.2118
26173W        W69090  28.774  26.315  21.973  0.3699 -0.4282 -0.3285
26174W        W69091  29.185  26.113  18.084 -0.0397 -0.2155 -0.1459
26175W        W69092  27.555  27.390  19.361 -0.1477 -0.1158 -0.0714
26176W        W69093  26.544  26.295  16.612 -0.0584  0.0552  0.1937
26177W        W69094  26.894  25.003  19.078 -0.3716  0.0142  0.0271
26178W        W69095  26.195  26.761  19.272 -0.0167  0.2159  0.2289
26179W        W69096  25.090  27.287  20.302  0.0715  0.1494 -0.0035
26180W        W69097  27.538  28.437  18.895  0.1629 -0.1288 -0.3169
26181W        W69098  28.065  26.409  18.428 -0.0873  0.1729 -0.0319
26182W        W69099  25.636  25.483  22.021 -0.0587  0.0562  0.0206
26183W        W69100  28.455  25.085  17.979 -0.0451 -0.1445  0.1201
26184W        W69101  22.052  29.674  18.609  0.0451 -0.1130  0.2996
26185W        W69102  27.946  25.848  18.261  0.2867  0.0151 -0.0692
26186W        W69103  26.531  25.055  20.051 -0.1407  0.1498  0.0737
26187W        W69104  28.046  27.185  18.573 -0.2341 -0.6968  0.0336
26188W        W69105  23.759  28.884  16.779 -0.1359 -0.0827  0.1554
26189W        W69106  28.586  28.459  19.425 -0.0802  0.5414  0.0424
26190W        W69107  24.512  28.796  18.592  0.1538 -0.1479  0.1678
26191W        W69108  28.537  27.189  18.634  0.2081  0.0530 -0.1502
26192W        W69109  24.619  28.150  20.696  0.1972  0.2534  0.0788
26193W        W69110  27.646  25.035  18.455 -0.0990 -0.2308 -0.1173
26194W        W69111  25.431  25.641  16.884  0.1508  0.0344 -0.2465
26195W        W69112  29.723  24.674  19.300  0.0944  0.0683 -0.0393
26196W        W69113  27.666  27.085  17.743  0.1033  0.1161  0.1078
26197W        W69114  25.735  26.018  18.789  0.2367 -0.0446  0.0114
26198W        W69115  25.729  25.749  17.776 -0.2273 -0.1455 -0.2814
26199W        W69116  25.056  30.346  17.923 -0.0714  0.0166 -0.2628
26200W        W69117  26.742  28.040  18.841  0.1460  0.0922  0.3632
26201W        W69118  28.938  25.365  17.294  0.1309  0.3451 -0.1663
26202W        W69119  30.011  30.008  18.471  0.0097  0.1348  0.0708
26203W        W69120  25.543  27.860  18.662  0.1207  0.0583  0.0688
26204W        W69121  25.399  25.105  18.134 -0.0904 -0.0602  0.0288
26205W        W69122  28.273  28.142  17.188  0.1643 -0.0475 -0.0465
26206W        W69123  25.977  24.858  19.102  0.2133  0.0201 -0.2748
26207W        W69124  24.010  28.587  19.399  0.1147 -0.3510 -0.0901
26208W        W69125  27.204  26.473  19.308  0.3413  0.0655  0.1983
26209W        W69126  26.189  25.519  17.768 -0.1121 -0.1538 -0.1890
26210W        W69127  24.112  29.073  18.749  0.2171  0.0439  0.1438
26211W        W69128  27.200  26.152  20.109 -0.0544 -0.0455  0.0432
26212W        W69129  30.349  28.011  19.106 -0.1898  0.1863  0.2265
26213W        W69130  27.083  26.310  18.010  0.3949 -0.2421  0.0084
26214W        W69131  25.070  26.002  19.210  0.0003 -0.0405 -0.3699
26215W        W69132  26.847  28.662  19.531 -0.2099 -0.2647  0.0258
26216W        W69133  27.645  27.228  18.316 -0.0922  0.1975 -0.2734
26217W        W69134  26.487  26.347  19.382 -0.2018 -0.0611 -0.0618
26218W        W69135  27.345  28.020  19.567  0.0707  0.0010  0.0196
26219W        W69136  29.159  24.550  18.046  0.2076 -0.1651  0.0519
26220W        W69137  30.395  28.106  17.615  0.1141  0.1442 -0.0589
26221W        W69138  29.634  26.916  20.078 -0.2919 -0.0784  0.1773
26222W        W69139  26.606  28.946  17.899 -0.1626 -0.0431 -0.1355
26223W        W69140  25.722  25.476  18.739 -0.2881  0.4942  0.1825
26224W        W69141  24.975  28.323  17.846  0.0781 -0.0172 -0.4333
26225W        W69142  26.763  25.391  19.508  0.0138  0.2518  0.1219
26226W        W69143  25.608  27.841  19.257 -0.2503  0.2107  0.0242
26227W        W69144  26.869  26.933  17.122  0.0354  0.1723  0.0717
26228W        W69145  27.269  30.616  19.411 -0.0771 -0.0928  0.1581
26229W        W69146  28.353  25.567  17.109 -0.1630  0.0029  0.2495
26230W        W69147  27.536  27.653  16.643 -0.1136 -0.2032 -0.0384
26231W        W69148  23.566  26.570  17.704  0.1635 -0.2300  0.0476
26232W        W69149  26.215  25.988  20.346 -0.2532 -0.1593 -0.0920
26233W        W69150  27.612  27.630  17.602  0.0814 -0.1798  0.0867
26234W        W69151  28.444  25.427  17.621 -0.1506  0.2280  0.0319
26235W        W69152  26.000  26.406  18.041  0.0165  0.0660 -0.2697
26236W        W69153  28.676  26.141  18.786 -0.1337 -0.2337 -0.0923
26237W        W69154  23.379  26.325  20.544  0.1103 -0.0508  0.2466
26238W        W69155  26.205  27.338  18.331  0.0450 -0.0642 -0.1345
26239W        W69156  26.931  25.912  19.229  0.0986  0.0599  0.0903
26240W        W69157  27.054  26.137  17.299  0.2250  0.2114 -0.4185
26241W        W69158  25.817  27.560  17.122  0.2557  0.0846  0.2118
26242W        W69159  27.655  28.367  19.379 -0.2143  0.0048  0.1963
26243W        W69160  27.078  28.431  17.830 -0.1203  0.0812 -0.2493
26244W        W69161  25.094  28.700  17.492 -0.0834  0.0804  0.1927
26245W        W69162  28.732  26.522  19.064 -0.2029  0.1499  0.2968
26246W        W69163  25.253  25.601  18.881  0.0613 -0.4187 -0.0073
26247W        W69164  27.418  26.091  21.100  0.0657  0.0697  0.1060
26248W        W69165  27.140  27.206  18.344 -0.0722  0.0537 -0.3045
26249W        W69166  23.720  29.642  16.721 -0.0665 -0.0487 -0.0235
26250W        W69167  25.923  25.640  20.028 -0.0562 -0.0491  0.0384
26251W        W69168  29.656  27.439  18.745 -0.0374  0.0475 -0.0834
26252W        W69169  29.940  25.871  18.214 -0.1755 -0.1084  0.1518
26253W        W69170  27.187  28.180  18.280 -0.2013 -0.0090  0.1113
26254W        W69171  27.633  25.716  20.473 -0.1061 -0.1056  0.1636
26255W        W69172  27.404  26.433  21.515 -0.2415 -0.0837  0.1264
26256W        W69173  27.145  26.507  21.078  0.1197  0.3596 -0.3001
26257W        W69174  28.489  28.076  19.023 -0.0840  0.0340  0.5285
26258W        W69175  28.169  27.109  17.167 -0.3411  0.0680  0.2068
26259W        W69176  27.432  26.525  18.836 -0.0347 -0.4537 -0.1397
26260W        W69177  28.019  29.814  17.062 -0.0051  0.1982 -0.0696
26261W        W69178  28.523  27.499  19.495 -0.1380  0.0445 -0.2810
26262W        W69179  24.475  25.477  19.561 -0.0557 -0.2771 -0.1647
26263W        W69180  27.728  29.209  19.369  0.2348  0.1876 -0.0861
26264W        W69181  25.234  26.171  17.142  0.0451 -0.0665  0.2625
26265W        W69182  26.730  27.181  19.607 -0.3365 -0.0253 -0.0729
26266W        W69183  27.433  28.405  16.695  0.4235 -0.0920  0.3542
26267W        W69184  27.443  27.664  17.131  0.0340  0.0997  0.0767
26268W        W69185  27.248  27.970  18.777  0.1215 -0.2440 -0.0519
26269W        W69186  24.007  24.758  18.357  0.0849 -0.2039 -0.1554
26270W        W69187  26.459  29.420  20.968  0.0831 -0.1526 -0.4924
26271W        W69188  26.697  25.643  17.485  0.0670  0.0010 -0.2501
26272W        W69189  27.068  28.883  17.730 -0.1656  0.1011  0.0047
26273W        W69190  27.187  25.450  18.271 -0.0634  0.2013 -0.1225
26274W        W69191  27.552  28.219  17.910 -0.0931  0.0120  0.1997
26275W        W69192  27.898  26.161  16.762 -0.1894  0.0883  0.1880
26276W        W69193  27.855  26.405  20.485  0.4521 -0.0497  0.0127
26277W        W69194  24.518  27.870  17.171  0.2651 -0.0013 -0.1454
26278W        W69195  28.887  26.038  19.257 -0.2102 -0.1316  0.3887
26279W        W69196  27.611  30.577  19.017  0.3369 -0.2192  0.5911
26280W        W69197  27.949  26.859  18.064 -0.1370 -0.0625 -0.2389
26281W        W69198  25.958  27.857  17.566  0.1003  0.1287  0.1733
26282W        W69199  29.985  24.718  19.698  0.2595 -0.1054 -0.4672
26283W        W69200  28.052  26.000  19.603 -0.0861 -0.1057  0.0220
26284W        W69201  26.774  26.795  19.302  0.0137  0.2413  0.2602
26285W        W69202  28.112  26.576  19.584 -0.0064  0.0152 -0.0030
26286W        W69203  27.272  29.394  19.383  0.1963  0.1427 -0.1381
26287W        W69204  26.564  29.628  18.507 -0.0444  0.3396  0.1283
26288W        W69205  31.125  27.714  19.788 -0.2424  0.0729  0.1416
26289W        W69206  30.623  29.773  17.692 -0.1958 -0.3272 -0.2363
26290W        W69207  25.793  28.300  18.416  0.1168 -0.0426  0.0109
26291W        W69208  26.144  25.334  20.452 -0.0709 -0.0275  0.5160
26292W        W69209  27.927  28.593  18.592 -0.1246 -0.1176  0.2420
26293W        W69210  26.949  26.784  18.749  0.0317 -0.2441 -0.0041
26294W        W69211  28.234  28.713  17.341  0.1835  0.3782  0.5360
26295W        W69212  27.229  27.386  17.782 -0.0199 -0.1122 -0.5614
26296W        W69213  25.105  29.239  19.915 -0.0200 -0.0187 -0.2310
26297W        W69214  26.326  26.834  18.290 -0.1529  0.1743 -0.1334
26298W        W69215  24.518  31.208  18.878 -0.3057  0.0233  0.0239
26299W        W69216  28.228  30.104  17.397 -0.3362  0.0428  0.0828
26300W        W69217  28.387  27.160  18.165  0.0338  0.2494 -0.0130
26301W        W69218  29.260  26.850  19.242  0.0676  0.1120 -0.1862
26302W        W69219  25.489  25.484  19.886  0.0594 -0.2255  0.0184
26303W        W69220  26.301  27.054  17.871 -0.1465 -0.1826  0.0701
26304W        W69221  24.518  27.389  17.376  0.2460  0.0003  0.0706
26305W        W69222  28.981  29.596  19.773  0.0146 -0.2267 -0.0534
26306W        W69223  25.786  26.983  17.682 -0.0633 -0.1482 -0.3332
26307W        W69224  28.614  30.339  17.858 -0.0261  0.1595  0.0265
26308W        W69225  30.359  25.030  18.047  0.1083  0.0173  0.0114
26309W        W69226  28.637  26.576  19.959  0.1679  0.3167 -0.2644
26310W        W69227  28.250  26.072  17.255 -0.0557  0.0406 -0.2143
26311W        W69228  28.449  29.432  19.899  0.0035 -0.4304 -0.2283
26312W        W69229  28.293  26.764  19.183  0.0632 -0.0837  0.0410
26313W        W69230  27.139  25.397  17.241  0.0075  0.0092 -0.2199
26314W        W69231  27.470  27.722  18.155  0.0615  0.0097 -0.2593
26315W        W69232  27.701  26.952  20.546  0.2542  0.3071  0.0427
26316W        W69233  26.190  28.414  18.718  0.0950  0.0492  0.0393
26317W        W69234  30.154  29.152  18.229  0.0954  0.0544  0.1243
26318W        W69235  25.877  25.276  17.495 -0.1993  0.2218  0.0243
26319W        W69236  26.839  26.344  18.979 -0.2436  0.1240 -0.1395
26320W        W69237  29.912  27.634  20.227 -0.0590  0.1048 -0.0396
26321W        W69238  27.099  25.809  16.905 -0.1938 -0.0497  0.2162
26322W        W69239  26.155  24.403  18.937  0.3737 -0.0992  0.1429
26323W        W69240  26.812  27.090  16.634 -0.1051  0.0218 -0.0149
26324W        W69241  25.046  29.858  17.934 -0.0864  0.0352  0.0024
26325W        W69242  26.593  27.121  18.542 -0.0562  0.1201 -0.0548
26326W        W69243  25.245  25.211  19.585  0.4213 -0.1092  0.2331
26327W        W69244  30.314  26.977  18.247 -0.0517 -0.0977  0.2367
26328W        W69245  27.001  27.665  19.453 -0.0825 -0.1249  0.1082
26329W        W69246  31.270  27.392  20.086  0.4492  0.4568 -0.2292
26330W        W69247  26.387  25.052  18.265  0.1764  0.1822 -0.1237
26331W        W69248  30.086  27.393  18.375  0.0002  0.0826 -0.3251
26332W        W69249  26.362  26.601  18.856  0.0005  0.3027  0.0173
26333W        W69250  25.224  27.913  17.848 -0.2602  0.1264  0.1986
26334W        W69251  25.344  27.208  17.149  0.1639  0.1699  0.0268
26335W        W69252  30.295  25.601  21.760  0.0099 -0.3291 -0.1670
26336W        W69253  28.440  26.101  18.303 -0.0856  0.0301 -0.4057
26337W        W69254  28.601  28.846  19.719 -0.5010 -0.2019  0.3369
26338W        W69255  26.973  23.627  18.682  0.1206  0.0221 -0.0846
26339W        W69256  27.708  26.680  16.775  0.2065  0.1245  0.3543
26340W        W69257  27.203  27.894  17.726  0.1474  0.0900 -0.2677
26341W        W69258  25.060  26.678  20.086  0.0005  0.0968 -0.0894
26342W        W69259  27.111  28.351  19.200  0.1517 -0.2569  0.0286
26343W        W69260  25.352  26.722  16.965  0.0443  0.1830 -0.1694
26344W        W69261  29.595  27.131  19.557 -0.1850  0.2938 -0.0054
26345W        W69262  27.044  28.428  18.724 -0.2837 -0.1174 -0.2350
26346W        W69263  26.738  28.888  16.783 -0.1030  0.3697  0.1407
26347W        W69264  29.101  27.519  18.046  0.2793 -0.0981 -0.1192
26348W        W69265  30.233  29.489  18.593 -0.2020  0.1415 -0.1866
26349W        W69266  26.899  24.163  18.654 -0.0998 -0.0604 -0.1191
26350W        W69267  26.013  28.223  17.928 -0.2163 -0.1079 -0.3033
26351W        W69268  28.374  28.638  18.400  0.3151  0.1663  0.1076
26352W        W69269  28.563  25.229  18.504  0.1819  0.0482 -0.1732
26353W        W69270  25.145  23.984  18.655  0.1341 -0.1332  0.0588
26354W        W69271  27.036  29.347  18.729  0.1763  0.2038  0.1608
26355W        W69272  28.369  26.630  18.029 -0.2541 -0.0955 -0.0691
26356W        W69273  28.283  26.639  20.458 -0.1239 -0.0955  0.3006
26357W        W69274  28.121  28.264  18.142 -0.1299 -0.1874 -0.0447
26358W        W69275  27.408  27.482  21.564 -0.1817  0.1274 -0.2970
26359W        W69276  28.651  30.847  18.873 -0.1105 -0.0751 -0.0897
26360W        W69277  26.669  29.671  19.971  0.1585  0.2111 -0.0332
26361W        W69278  26.689  28.803  18.622 -0.0096  0.1194  0.4351
26362W        W69279  29.094  28.198  20.207  0.0001 -0.5255 -0.0405
26363W        W69280  27.526  28.593  18.343  0.0376  0.2737  0.3069
26364W        W69281  27.839  28.853  19.012 -0.1420 -0.0168 -0.0203
26365W        W69282  29.034  28.400  19.649 -0.0691  0.0450  0.2909
26366W        W69283  25.114  26.922  16.545 -0.1067 -0.0371 -0.1451
26367W        W69284  29.151  28.017  18.091 -0.0139 -0.0241 -0.0484
26368W        W69285  27.816  25.620  19.771  0.1398 -0.2764  0.0193
26369W        W69286  29.645  26.143  18.482 -0.1937  0.2802 -0.0794
26370W        W69287  26.645  25.517  18.899  0.0112  0.0485  0.1745
26371W        W69288  27.482  26.709  18.373 -0.0872 -0.0533  0.0343
26372W        W69289  25.720  26.827  16.661  0.0364  0.0157 -0.0782
26373W        W69290  24.703  30.105  16.818  0.4114  0.0364 -0.0271
26374W        W69291  25.082  28.944  19.327  0.0581 -0.1249  0.3213
26375W        W69292  26.582  25.066  22.250 -0.1629 -0.0594  0.0089
26376W        W69293  26.203  27.612  17.934 -0.2571 -0.0858  0.0433
26377W        W69294  26.052  27.926  18.765  0.0728 -0.1033  0.0953
26378W        W69295  25.619  26.184  17.506 -0.0485 -0.1406 -0.0961
26379W        W69296  29.692  26.278  17.983 -0.3983 -0.0274  0.2499
26380W        W69297  27.227  24.690  21.295  0.0710 -0.1838 -0.0908
26381W        W69298  24.900  25.179  17.414 -0.3419 -0.1098  0.0467
26382W        W69299  27.166  26.289  18.496 -0.4041 -0.2507 -0.0756
26383W        W69300  28.619  27.645  17.828 -0.0072 -0.0411 -0.0292
26384W        W69301  29.721  26.603  19.279 -0.3379  0.1960 -0.1799
26385W        W69302  29.417  28.174  18.656 -0.1981 -0.0720 -0.4915
26386W        W69303  24.752  28.994  17.746 -0.1033  0.0741  0.0086
26387W        W69304  25.786  26.678  20.109 -0.3943  0.2715 -0.0891
26388W        W69305  26.793  24.714  20.466  0.1100 -0.0602 -0.2882
26389W        W69306  27.190  26.645  17.385 -0.2711 -0.0847 -0.0725
26390W        W69307  24.712  24.677  18.905 -0.1000 -0.2005 -0.3042
26391W        W69308  27.448  27.043  18.737  0.1332  0.2268  0.1891
26392W        W69309  28.247  28.776  16.819 -0.1733 -0.0718 -0.1491
26393W        W69310  25.890  26.941  17.193  0.0047 -0.1925 -0.3589
26394W        W69311  29.411  29.623  17.986 -0.2775  0.2201 -0.0538
26395W        W69312  23.725  24.973  21.681 -0.2622 -0.2848 -0.4463
26396W        W69313  28.323  27.699  18.190 -0.1844 -0.0232 -0.0348
26397W        W69314  24.763  27.359  18.945  0.0486 -0.0784 -0.0259
26398W        W69315  29.594  28.232  18.194  0.0837  0.2252 -0.0551
26399W        W69316  28.878  26.973  18.336 -0.0351  0.1884  0.1752
26400W        W69317  28.848  26.743  16.632  0.0057  0.0091  0.1602
26401W        W69318  26.447  25.738  19.397  0.2246 -0.1177  0.3250
26402W        W69319  26.504  27.606  19.224  0.0666  0.1581 -0.1963
26403W        W69320  28.932  26.577  19.535 -0.1712  0.2188  0.2593
26404W        W69321  24.083  26.387  17.608 -0.6069 -0.2813  0.1109
26405W        W69322  28.130  26.817  17.591 -0.1063 -0.0628 -0.2205
26406W        W69323  25.428  30.200  18.382 -0.0311  0.3566  0.2424
26407W        W69324  25.994  26.999  18.668 -0.0477 -0.2162 -0.0481
26408W        W69325  26.431  26.990  17.308  0.0793 -0.0602  0.0166
26409W        W69326  27.479  29.263  18.938  0.0704 -0.0752  0.1366
26410W        W69327  28.592  26.771  17.091 -0.1531  0.2030  0.1671
26411W        W69328  27.417  25.887  18.092 -0.2062  0.4256  0.0757
26412W        W69329  26.928  25.830  18.131  0.1296  0.0728  0.2167
26413W        W69330  29.619  27.382  18.282 -0.0129  0.0612  0.1651
26414W        W69331  28.507  29.962  20.023  0.0281 -0.1459 -0.3492
26415W        W69332  28.986  27.287  18.751  0.0168 -0.1293 -0.2618
26416W        W69333  27.141  29.837  18.921 -0.2145 -0.1885 -0.2025
26417W        W69334  29.370  27.049  18.589 -0.1206  0.1408 -0.0095
26418W        W69335  24.501  25.336  19.016 -0.1016 -0.2735  0.0692
26419W        W69336  25.736  25.745  17.283 -0.0817  0.2947  0.0081
26420W        W69337  27.461  27.568  18.646  0.3171  0.2763 -0.2718
26421W        W69338  27.992  25.932  18.771  0.1000 -0.1095 -0.2023
26422W        W69339  22.858  26.135  17.773  0.0951 -0.1962  0.1429
26423W        W69340  27.624  25.296  17.062  0.0258  0.0192  0.2235
26424W        W69341  26.423  29.184  20.441  0.0356  0.1689  0.0931
26425W        W69342  27.366  26.303  20.648 -0.0003  0.0309 -0.0676
26426W        W69343  27.448  27.279  22.729  0.0533  0.0965  0.0151
26427W        W69344  25.286  25.834  21.839  0.0048  0.0199  0.0506
26428W        W69345  28.671  28.031  19.940 -0.5819 -0.0549  0.1498
26429W        W69346  28.069  28.306  20.958  0.3035 -0.0155  0.0856
26430W        W69347  24.830  25.852  21.962  0.0194 -0.1719  0.0668
26431W        W69348  29.692  31.208  21.126 -0.0572 -0.1305  0.0480
26432W        W69349  27.090  27.649  23.763  0.0719 -0.0507 -0.0969
26433W        W69350  26.513  29.286  22.300  0.0380 -0.0203  0.2493
26434W        W69351  27.520  29.724  20.161 -0.0104  0.0524 -0.0216
26435W        W69352  29.143  27.853  19.718 -0.2253 -0.2257  0.0370
26436W        W69353  27.131  28.670  23.698 -0.0260  0.2316  0.2284
26437W        W69354  26.205  30.216  23.811 -0.1479 -0.1112  0.3469
26438W        W69355  23.071  23.320  21.284 -0.2231 -0.2081  0.0914
26439W        W69356  25.141  28.704  23.292  0.1639 -0.2608 -0.0987
26440W        W69357  28.529  26.171  23.215  0.0363 -0.0265 -0.2977
26441W        W69358  26.292  25.287  19.276 -0.1550  0.0419  0.2071
26442W        W69359  26.334  28.365  21.371  0.0086  0.0984 -0.0925
26443W        W69360  27.923  27.343  21.135  0.1832  0.2511  0.1031
26444W        W69361  30.086  27.984  20.505  0.2037  0.2095  0.1006
26445W        W69362  25.276  24.470  22.655  0.0844 -0.0366  0.0418
26446W        W69363  28.396  27.187  23.568 -0.0836 -0.0715 -0.2202
26447W        W69364  27.624  27.719  20.094  0.1775 -0.1135  0.0514
26448W        W69365  25.426  25.924  20.753  0.1012 -0.1757  0.0219
26449W        W69366  27.143  27.963  21.541  0.1137 -0.0783 -0.1786
26450W        W69367  24.535  26.926  21.566 -0.0796  0.1191 -0.1791
26451W        W69368  27.770  26.736  24.175 -0.2492 -0.0226 -0.1578
26452W        W69369  28.633  28.349  20.310  0.1749  0.0169  0.0531
26453W        W69370  26.397  27.214  20.048 -0.0506  0.0361 -0.0377
26454W        W69371  28.171  29.882  20.424 -0.0023 -0.0414 -0.0917
26455W        W69372  26.660  28.547  23.960  0.0158 -0.0378 -0.2557
26456W        W69373  25.936  29.847  19.649 -0.0385  0.0371 -0.3159
26457W        W69374  24.789  28.807  21.512 -0.0424  0.3563 -0.1976
26458W        W69375  28.510  31.384  21.372  0.1621 -0.0908  0.0162
26459W        W69376  28.332  28.725  21.272  0.0015 -0.0008 -0.1420
26460W        W69377  30.119  28.955  22.295 -0.1543  0.1839  0.1962
26461W        W69378  27.481  28.669  21.809 -0.0823 -0.0534 -0.3610
26462W        W69379  27.817  28.989  20.286 -0.1799  0.1237  0.0673
26463W        W69380  29.076  28.324  24.852  0.1365 -0.2250  0.0088
26464W        W69381  28.076  29.315  23.345 -0.3798 -0.3762  0.0374
26465W        W69382  25.340  27.267  24.326  0.0701 -0.1495 -0.0885
26466W        W69383  23.870  29.288  23.440  0.2180 -0.0835  0.2488
26467W        W69384  28.156  31.011  20.827 -0.1221  0.2278 -0.2324
26468W        W69385  27.971  28.545  21.924  0.1136 -0.0638  0.0954
26469W        W69386  27.893  27.106  23.855  0.0705  0.0619 -0.4676
26470W        W69387  25.736  28.001  22.385  0.0863 -0.1875 -0.0858
26471W        W69388  30.799  25.459  24.145 -0.2795  0.2013 -0.2374
26472W        W69389  26.487  30.530  20.614 -0.0945  0.2039  0.0437
26473W        W69390  28.186  28.211  19.348 -0.4631 -0.1640  0.3182
26474W        W69391  27.306  28.714  20.226 -0.0897  0.0382 -0.0465
26475W        W69392  27.002  27.722  18.399 -0.1186 -0.0010 -0.0696
26476W        W69393  23.047  23.852  21.380 -0.0068  0.0368  0.2102
26477W        W69394  27.443  28.176  21.888 -0.0318 -0.1693  0.0120
26478W        W69395  26.187  27.813  21.412  0.0033  0.3199 -0.0083
26479W        W69396  31.385  29.322  24.014 -0.0160 -0.1194  0.0985
26480W        W69397  26.433  26.890  20.435  0.3002 -0.1374  0.1939
26481W        W69398  25.864  27.379  21.558 -0.0471  0.0670 -0.1326
26482W        W69399  26.120  26.298  23.307 -0.1931  0.1027  0.0192
26483W        W69400  27.283  25.583  21.395  0.1113 -0.0044 -0.1934
26484W        W69401  29.791  28.002  21.155 -0.1076  0.0158 -0.1018
26485W        W69402  29.548  29.484  20.853  0.2265  0.1331 -0.3108
26486W        W69403  28.920  27.372  20.994  0.0210  0.0541  0.2213
26487W        W69404  25.938  27.006  19.798 -0.0824  0.1000 -0.1962
26488W        W69405  26.226  28.249  22.344  0.0139  0.3178 -0.1251
26489W        W69406  26.972  27.879  23.331  0.2773  0.4582  0.2420
26490W        W69407  26.115  26.384  21.050 -0.3165 -0.2122 -0.4388
26491W        W69408  28.410  31.121  23.273  0.1373  0.0163  0.1978
26492W        W69409  23.851  28.802  22.627 -0.0667  0.0075  0.2066
26493W        W69410  28.179  24.434  22.791  0.1325 -0.1492  0.0538
26494W        W69411  27.148  29.523  22.783  0.0873 -0.0490 -0.0644
26495W        W69412  27.671  30.074  20.897  0.1041  0.3018  0.5418
26496W        W69413  31.185  29.133  19.669  0.1448 -0.0014 -0.0034
26497W        W69414  27.563  27.709  21.129  0.1891  0.4404  0.1636
26498W        W69415  27.473  24.976  22.381 -0.1272 -0.0525 -0.2505
26499W        W69416  23.774  25.051  18.885 -0.6508  0.0850  0.1719
26500W        W69417  26.159  30.343  19.637 -0.2070  0.3279  0.0244
26501W        W69418  29.608  29.446  23.155  0.2172 -0.0249  0.1272
26502W        W69419  28.782  28.522  18.739  0.1173 -0.1817  0.1342
26503W        W69420  25.609  28.697  24.196 -0.3060  0.1960  0.1710
26504W        W69421  27.153  26.062  23.420 -0.4119  0.1747  0.3063
26505W        W69422  28.709  28.577  24.693 -0.0875  0.1417  0.0752
26506W        W69423  26.306  28.589  19.521  0.0930 -0.1272  0.2521
26507W        W69424  24.808  28.254  21.663 -0.0805  0.0453 -0.0487
26508W        W69425  25.467  26.582  21.131  0.2132  0.0128  0.1037
26509W        W69426  24.003  23.200  24.410  0.1786 -0.0934 -0.2472
26510W        W69427  29.533  28.115  20.602  0.0105  0.0885  0.0940
26511W        W69428  27.608  26.926  19.737  0.1136 -0.2823 -0.2194
26512W        W69429  27.353  25.469  25.415 -0.0744 -0.1578  0.0507
26513W        W69430  29.163  27.310  22.846  0.2354  0.0877  0.1934
26514W        W69431  25.953  27.548  20.035 -0.0112 -0.0886  0.1916
26515W        W69432  29.125  29.426  22.218  0.0243 -0.2063 -0.2416
26516W        W69433  28.051  26.840  20.890  0.1571  0.0885 -0.1847
26517W        W69434  24.689  29.164  19.014 -0.4477 -0.2289  0.0645
26518W        W69435  23.900  28.106  21.496 -0.0441  0.1009 -0.2959
26519W        W69436  24.929  26.769  21.837 -0.0797  0.1688 -0.0596
26520W        W69437  25.970  25.274  24.368 -0.0759  0.2607 -0.0150
26521W        W69438  24.332  28.373  23.328  0.1853  0.0920 -0.0331
26522W        W69439  27.799  28.068  22.295 -0.2845 -0.1556  0.3008
26523W        W69440  26.827  25.253  20.476  0.1747  0.0843 -0.2338
26524W        W69441  28.352  28.914  20.174  0.2759  0.1262 -0.2778
26525W        W69442  26.266  27.296  20.530  0.1379 -0.0843  0.0409
26526W        W69443  24.380  28.589  21.017 -0.2959 -0.0368 -0.2334
26527W        W69444  27.890  27.645  24.080 -0.1226  0.1059 -0.0048
26528W        W69445  28.550  30.427  19.883  0.0927 -0.2381 -0.2867
26529W        W69446  30.725  29.077  23.006  0.0801 -0.0027  0.1986
26530W        W69447  26.471  30.053  22.324  0.2752 -0.0637  0.1108
26531W        W69448  26.799  27.378  23.455  0.0624  0.2264  0.2662
26532W        W69449  25.829  26.249  20.627 -0.0990  0.0751 -0.1753
26533W        W69450  25.700  27.827  21.535 -0.1742 -0.0137 -0.2277
26534W        W69451  25.998  29.066  23.047  0.0420  0.2843 -0.2166
26535W        W69452  26.430  27.398  21.368 -0.1446  0.1535 -0.0932
26536W        W69453  28.627  30.682  21.835 -0.2529 -0.0387 -0.0972
26537W        W69454  26.877  26.508  20.264 -0.1155  0.2207  0.0017
26538W        W69455  27.503  28.403  24.377  0.0116 -0.2267  0.0187
26539W        W69456  28.789  27.114  23.119 -0.1732  0.0754  0.1171
26540W        W69457  28.304  28.407  23.281 -0.2507  0.0725  0.3316
26541W        W69458  28.785  27.911  20.531 -0.2376 -0.1505 -0.3411
26542W        W69459  27.210  27.262  19.744 -0.1545 -0.0592  0.2680
26543W        W69460  28.513  29.797  19.551  0.0920  0.0608 -0.0976
26544W        W69461  25.395  28.228  20.137 -0.1107  0.1040 -0.0641
26545W        W69462  25.323  27.140  23.312 -0.1519 -0.0000 -0.2752
26546W        W69463  27.123  29.306  23.393  0.1696 -0.3646 -0.1040
26547W        W69464  29.689  28.398  23.661 -0.0353  0.1165 -0.1022
26548W        W69465  23.316  28.128  22.932 -0.0171  0.0556 -0.0169
26549W        W69466  28.474  26.249  24.148  0.3521  0.0671  0.0242
26550W        W69467  26.785  27.595  19.943 -0.0337 -0.0730  0.2133
26551W        W69468  25.477  30.153  23.455  0.0042 -0.0883  0.1049
26552W        W69469  27.994  24.071  22.456  0.0724  0.0522  0.0274
26553W        W69470  28.483  25.269  20.985  0.1597 -0.2071 -0.2092
26554W        W69471  27.651  25.339  24.443 -0.0233  0.1751 -0.3350
26555W        W69472  29.611  27.211  22.631 -0.2351 -0.0903 -0.2793
26556W        W69473  26.124  26.399  19.726 -0.0998 -0.0056  0.0398
26557W        W69474  27.618  25.174  20.663 -0.1227  0.0067  0.0004
26558W        W69475  25.909  30.904  23.553 -0.3043 -0.1044  0.0460
26559W        W69476  27.872  30.016  21.525 -0.3622  0.1921  0.0471
26560W        W69477  27.197  29.776  20.555  0.1674  0.1572 -0.0185
26561W        W69478  28.060  23.659  21.838  0.2321 -0.0117  0.1814
26562W        W69479  31.045  27.893  20.772 -0.0340 -0.0221  0.2709
26563W        W69480  27.013  27.637  21.129 -0.1822 -0.4798  0.1083
26564W        W69481  27.818  28.564  25.858 -0.0384  0.2317  0.1597
26565W        W69482  27.514  28.217  20.262  0.1207 -0.3138  0.1171
26566W        W69483  27.784  27.188  21.824  0.3198  0.0476 -0.1706
26567W        W69484  24.424  27.080  18.672 -0.2956  0.1640 -0.0109
26568W        W69485  28.506  28.433  20.774 -0.0797 -0.0152 -0.0540
26569W        W69486  24.972  26.735  17.914 -0.0468  0.0064  0.1381
26570W        W69487  28.814  25.759  23.299  0.0113 -0.0986  0.0043
26571W        W69488  28.524  27.958  21.028 -0.0107  0.0265  0.4580
26572W        W69489  26.235  27.710  21.958 -0.0277 -0.1924  0.0084
26573W        W69490  30.412  27.224  24.699 -0.0962 -0.0980 -0.2561
26574W        W69491  26.094  30.236  20.438 -0.1601  0.2096  0.1052
26575W        W69492  25.709  26.853  23.649  0.2362 -0.2213  0.0504
26576W        W69493  25.709  27.015  19.293  0.2792  0.0111  0.2424
26577W        W69494  26.676  25.826  23.381  0.0637 -0.1462  0.1395
26578W        W69495  26.342  26.844  22.350 -0.0548  0.1124 -0.3458
26579W        W69496  26.789  29.556  23.664 -0.1296 -0.0789  0.0128
26580W        W69497  26.507  27.383  24.416  0.2321  0.1107  0.2966
26581W        W69498  26.826  27.923  20.641  0.0849 -0.2468  0.0257
26582W        W69499  25.898  28.122  24.218 -0.2252 -0.1268 -0.1973
26583W        W69500  27.590  27.930  19.138 -0.0393  0.1655 -0.1360
26584W        W69501  26.523  28.228  20.377  0.0743 -0.0273  0.1401
26585W        W69502  28.001  29.541  20.116  0.2681 -0.2335  0.1734
26586W        W69503  26.551  25.965  21.152  0.1865 -0.2210 -0.1992
26587W        W69504  26.930  28.396  21.785  0.0446  0.4898  0.0075
26588W        W69505  28.051  28.643  19.478 -0.0361  0.0352  0.0357
26589W        W69506  28.622  29.111  21.639  0.1634  0.3852 -0.0531
26590W        W69507  25.909  29.290  19.496  0.1032 -0.1652 -0.0612
26591W        W69508  27.900  27.507  20.620 -0.2403 -0.1819  0.1740
26592W        W69509  23.931  27.272  19.965  0.0032 -0.2216 -0.2064
26593W        W69510  29.018  23.908  22.626  0.0614  0.2676 -0.2462
26594W        W69511  25.343  27.574  22.297  0.1498  0.2743 -0.5045
26595W        W69512  26.996  28.377  20.474  0.0981 -0.0535  0.2155
26596W        W69513  29.212  25.715  20.142 -0.0143 -0.0832 -0.0552
26597W        W69514  24.327  25.502  22.227 -0.0424  0.2556  0.1499
26598W        W69515  27.596  26.292  23.318 -0.3605 -0.0827  0.2798
26599W        W69516  25.158  29.492  21.363  0.0262  0.0813  0.0139
26600W        W69517  26.926  26.511  22.908  0.2090  0.0278 -0.1999
26601W        W69518  28.023  25.490  20.721 -0.0134 -0.0053 -0.0270
26602W        W69519  27.386  29.413  20.865  0.3349  0.1145 -0.0408
26603W        W69520  25.176  27.589  23.562 -0.3673 -0.1100 -0.3289
26604W        W69521  25.435  26.864  21.545  0.0590 -0.3307  0.0479
26605W        W69522  29.557  28.872  19.825  0.0105  0.2710 -0.0491
26606W        W69523  24.945  28.172  22.176  0.1203  0.1075 -0.2359
26607W        W69524  24.193  29.088  19.272 -0.1589 -0.0816 -0.0906
26608W        W69525  27.772  29.455  20.566 -0.0488  0.0157 -0.0828
26609W        W69526  27.344  29.252  20.274 -0.2306  0.2988 -0.0045
26610W        W69527  26.216  30.037  20.011 -0.0986 -0.1328 -0.0003
26611W        W69528  25.490  25.619  22.783 -0.1593 -0.0722 -0.4137
26612W        W69529  27.023  28.940  21.709  0.0600 -0.0703  0.0093
26613W        W69530  28.264  26.769  22.504  0.0431 -0.1039 -0.4817
26614W        W69531  24.934  25.129  20.766 -0.3113 -0.1073 -0.2919
26615W        W69532  26.144  25.299  21.682  0.2800 -0.1695  0.0003
26616W        W69533  27.851  27.129  22.425 -0.2760  0.0695  0.2356
26617W        W69534  26.090  27.724  24.711  0.1169  0.0677  0.0588
26618W        W69535  24.554  27.610  23.639 -0.1410  0.2254 -0.1835
26619W        W69536  28.703  25.867  22.782  0.0896 -0.0756  0.2213
26620W        W69537  30.547  30.956  19.787 -0.1789  0.1065 -0.1271
26621W        W69538  29.055  26.175  24.468 -0.1012  0.0715  0.1561
26622W        W69539  25.550  27.442  18.965  0.2444  0.1655  0.1979
26623W        W69540  26.468  26.745  19.757  0.0784  0.1332 -0.1254
26624W        W69541  27.340  31.418  21.526  0.2339 -0.2817 -0.0830
26625W        W69542  27.472  26.756  22.552 -0.1731  0.0291 -0.2440
26626W        W69543  26.795  26.849  23.394 -0.1790 -0.1821  0.1152
26627W        W69544  27.236  30.083  21.134  0.2958 -0.2246 -0.0111
26628W        W69545  26.617  28.823  22.025  0.0098  0.2757  0.2590
26629W        W69546  26.871  25.526  20.978 -0.0452 -0.2151 -0.0272
26630W        W69547  28.493  28.934  20.708 -0.0827  0.1759  0.0531
26631W        W69548  25.859  27.589  20.587  0.2879  0.0577 -0.0967
26632W        W69549  27.208  27.020  23.612 -0.1157 -0.1961 -0.0578
26633W        W69550  28.745  29.307  19.438 -0.0426  0.0916 -0.0541
26634W        W69551  28.075  26.780  23.403  0.1630  0.0217  0.0532
26635W        W69552  24.800  27.554  22.412 -0.0912  0.0423 -0.0805
26636W        W69553  28.202  30.712  21.234  0.0819  0.1300  0.1097
26637W        W69554  24.550  26.534  23.059 -0.0378  0.0670  0.2038
26638W        W69555  28.453  28.826  23.407  0.1474 -0.1995  0.1488
26639W        W69556  26.529  27.274  22.625  0.2808 -0.1794 -0.1629
26640W        W69557  27.961  28.453  20.384  0.0834  0.0901  0.0135
26641W        W69558  26.954  26.965  22.649  0.3110 -0.2432  0.0079
26642W        W69559  27.355  27.647  20.655 -0.2263 -0.2730 -0.1293
26643W        W69560  27.270  28.411  21.421 -0.1008 -0.1060  0.1235
26644W        W69561  27.362  25.982  19.589  0.2198 -0.0508  0.1714
26645W        W69562  27.986  28.989  21.628 -0.0218 -0.0279 -0.0434
26646W        W69563  27.665  27.625  24.529 -0.2829 -0.0142  0.0426
26647W        W69564  27.668  29.171  22.182  0.2249 -0.1629 -0.2196
26648W        W69565  28.724  27.979  19.441  0.1375  0.0095  0.0554
26649W        W69566  26.549  28.328  20.860 -0.0456  0.1618 -0.1412
26650W        W69567  25.897  25.603  24.753 -0.2665 -0.1241  0.4071
26651W        W69568  29.037  30.486  22.190  0.1609  0.0778  0.2507
26652W        W69569  27.989  26.146  23.054  0.3408  0.1399  0.1378
26653W        W69570  27.097  27.479  22.400 -0.1370 -0.1523  0.1670
26654W        W69571  29.665  25.949  22.645  0.1402  0.2241  0.0971
26655W        W69572  26.162  27.710  22.629  0.0910 -0.2672 -0.1643
26656W        W69573  26.215  29.425  23.765 -0.1379  0.1023  0.1104
26657W        W69574  30.788  30.265  20.417  0.4247 -0.1663  0.3379
26658W        W69575  27.857  27.488  18.954 -0.1133 -0.1165 -0.0365
26659W        W69576  29.310  25.159  23.770  0.0131  0.1882 -0.2889
26660W        W69577  27.176  28.075  21.013 -0.1547 -0.2258  0.2462
26661W        W69578  26.673  25.602  21.477  0.1060 -0.1927 -0.1960
26662W        W69579  25.099  28.289  23.576 -0.1359  0.0884  0.0101
26663W        W69580  26.648  27.227  25.383 -0.2421  0.1114 -0.2162
26664W        W69581  27.384  26.051  22.136 -0.1849 -0.1054 -0.0552
26665W        W69582  27.045  28.018  22.607  0.1098 -0.2528  0.0585
26666W        W69583  28.022  29.556  19.640  0.2428 -0.0475  0.0660
26667W        W69584  27.206  28.712  21.001 -0.2284  0.0592 -0.0519
26668W        W69585  28.761  26.610  20.424 -0.0856 -0.7474  0.0722
26669W        W69586  26.695  28.777  20.516  0.2168  0.1140 -0.3345
26670W        W69587  25.952  28.987  23.544 -0.2312 -0.4639 -0.1306
26671W        W69588  26.161  24.929  19.614 -0.1099  0.2504  0.2011
26672W        W69589  25.982  28.222  19.311 -0.2134 -0.1185  0.2966
26673W        W69590  27.500  27.829  23.522  0.2061  0.1060 -0.1226
26674W        W69591  27.330  28.224  23.984 -0.0085  0.0091 -0.1319
26675W        W69592  26.685  25.570  20.094 -0.0467 -0.0854  0.3065
26676W        W69593  29.559  26.529  24.083 -0.2200  0.2592  0.1155
26677W        W69594  26.460  30.548  20.106 -0.0538  0.2269 -0.2038
26678W        W69595  26.473  27.822  20.900  0.0660  0.1622 -0.1771
26679W        W69596  25.491  28.680  23.688 -0.0841 -0.0157 -0.0043
26680W        W69597  27.767  27.627  23.022  0.1745  0.1327  0.1188
26681W        W69598  26.276  28.564  23.452  0.0825  0.3057  0.2126
26682W        W69599  27.890  25.672  22.923  0.4013  0.0032  0.0683
26683W        W69600  28.018  27.992  20.179  0.1006 -0.0341 -0.0653
26684W        W69601  28.109  28.674  22.396 -0.1281  0.0637 -0.0120
26685W        W69602  29.653  29.915  23.444  0.4978 -0.1905 -0.1089
26686W        W69603  27.394  28.745  23.256  0.0223  0.0981  0.0733
26687W        W69604  26.320  28.533  20.039 -0.1644  0.0093 -0.1931
26688W        W69605  30.109  28.892  20.975 -0.0444 -0.0878  0.3046
26689W        W69606  28.201  28.221  21.395  0.1828 -0.1477 -0.0039
26690W        W69607  27.176  28.503  22.606  0.0082  0.0610 -0.3310
26691W        W69608  25.123  26.241  23.053 -0.2469 -0.2397  0.1625
26692W        W69609  28.211  26.694  23.897 -0.2211  0.1000 -0.0266
26693W        W69610  26.811  28.813  22.508  0.0633 -0.2996 -0.0925
26694W        W69611  26.978  26.031  21.387  0.4182 -0.3100 -0.0968
26695W        W69612  29.253  30.418  19.834  0.1697 -0.0891  0.1756
26696W        W69613  25.349  28.488  22.879 -0.2564 -0.1935  0.0491
26697W        W69614  27.049  29.021  22.976  0.0507 -0.0168 -0.1835
26698W        W69615  26.169  29.526  20.056  0.0401  0.1992  0.1296
26699W        W69616  29.791  28.477  20.985 -0.1940  0.2124  0.1218
26700W        W69617  26.112  29.162  21.244 -0.1207  0.1876  0.3567
26701W        W69618  26.771  31.263  22.370 -0.0440  0.1809  0.1467
26702W        W69619  27.029  25.081  22.643 -0.0560 -0.3166  0.1745
26703W        W69620  25.227  28.455  20.574  0.2424 -0.1020  0.2291
26704W        W69621  25.384  27.606  20.565 -0.0942  0.0023  0.0210
26705W        W69622  27.785  30.259  19.404  0.0877 -0.2138 -0.3727
26706W        W69623  27.070  30.373  21.541  0.0465 -0.1039  0.1200
26707W        W69624  29.450  27.658  22.787  0.1318 -0.2976 -0.0345
26708W        W69625  28.244  27.205  20.414  0.0289  0.0573 -0.1874
26709W        W69626  26.837  27.079  22.114 -0.0436  0.0296 -0.2460
26710W        W69627  30.146  26.705  20.872 -0.0003  0.0220 -0.0732
26711W        W69628  29.095  28.791  21.510 -0.2004 -0.0934  0.2042
26712W        W69629  26.728  25.851  24.133  0.4470  0.3327 -0.0700
26713W        W69630  27.119  26.783  19.712 -0.0277  0.3576 -0.3370
26714W        W69631  26.065  25.705  23.524  0.1468  0.0646 -0.0996
26715W        W69632  28.301  27.387  23.992  0.0303 -0.2594  0.0107
26716W        W69633  25.680  29.367  20.351  0.0715 -0.1977  0.1692
26717W        W69634  28.968  30.550  20.278 -0.1248  0.0223 -0.3795
26718W        W69635  25.143  26.592  22.684  0.2890 -0.4586  0.3402
26719W        W69636  27.015  29.138  20.657 -0.3870  0.0368  0.2799
26720W        W69637  27.710  25.956  23.625 -0.0717  0.0460  0.1196
26721W        W69638  28.206  27.721  19.231 -0.0350 -0.4205  0.4100
26722W        W69639  25.537  27.179  20.814 -0.0782 -0.0679 -0.2706
26723W        W69640  27.957  30.020  22.911  0.1039  0.0370 -0.0941
26724W        W69641  27.908  29.088  21.127  0.0389  0.2334 -0.0494
26725W        W69642  27.425  29.967  21.802  0.4079  0.0590 -0.5547
26726W        W69643  27.070  25.247  22.114 -0.1919  0.2264 -0.4246
26727W        W69644  26.213  25.820  21.497 -0.0896 -0.1132 -0.1959
26728W        W69645  25.788  25.745  24.221 -0.1092  0.0482  0.2868
26729W        W69646  28.502  26.084  21.199 -0.0810 -0.0379 -0.2035
26730W        W69647  26.490  25.487  22.591  0.1111 -0.0007  0.1578
26731W        W69648  28.154  28.068  21.907 -0.0477 -0.3713  0.2909
26732W        W69649  27.399  27.781  24.135  0.1804  0.0824  0.0296
26733W        W69650  24.695  29.371  24.050 -0.3947  0.0478  0.0757
26734W        W69651  26.216  29.032  19.781 -0.0369 -0.0102  0.0929
26735W        W69652  30.734  29.487  23.316 -0.2546 -0.0733 -0.1047
26736W        W69653  25.407  26.419  19.859  0.0580  0.1148 -0.0720
26737W        W69654  28.096  29.846  25.054  0.1345  0.0189  0.0032
26738W        W69655  26.515  26.265  20.708 -0.1391  0.1710  0.3154
26739W        W69656  26.889  25.828  19.725 -0.0369 -0.2047 -0.0358
26740W        W69657  25.825  26.977  21.190  0.1160 -0.1551  0.2004
26741W        W69658  25.472  26.325  24.150  0.2557  0.0784 -0.1569
26742W        W69659  26.986  29.236  22.194  0.2630  0.1057  0.1432
26743W        W69660  23.492  25.414  20.868  0.1489 -0.2154  0.0322
26744W        W69661  27.453  31.218  20.128 -0.0935 -0.1045 -0.1195
26745W        W69662  27.727  27.616  22.475  0.1133 -0.2235 -0.1659
26746W        W69663  26.738  30.103  20.316  0.1916 -0.1397  0.1737
26747W        W69664  29.977  29.290  20.741 -0.0478  0.1841 -0.2629
26748W        W69665  27.919  29.678  21.110 -0.0515  0.0748  0.0225
26749W        W69666  24.237  26.078  21.463  0.0359 -0.0353 -0.1936
26750W        W69667  28.520  29.775  24.147  0.1103  0.1899 -0.0458
26751W        W69668  28.673  29.686  20.374 -0.0771  0.0554 -0.1098
26752W        W69669  28.497  24.066  22.671  0.0350  0.1265  0.0625
26753W        W69670  26.990  27.373  22.933 -0.2726  0.2803 -0.0964
26754W        W69671  25.199  30.573  19.521  0.0007  0.4103  0.2540
26755W        W69672  27.779  25.325  23.824  0.1974  0.1760  0.1011
26756W        W69673  29.576  26.446  23.309 -0.0567  0.0406  0.0772
26757W        W69674  25.757  30.084  20.744  0.1236  0.1440  0.0617
26758W        W69675  29.122  24.166  22.169  0.0258  0.2077  0.2439
26759W        W69676  27.559  29.975  22.375 -0.0417  0.0769  0.3107
26760W        W69677  25.800  29.834  23.636  0.2792 -0.0729  0.0091
26761W        W69678  26.907  27.044  20.095  0.2163  0.2527 -0.0839
26762W        W69679  27.247  28.262  23.437  0.2175  0.1884  0.2723
26763W        W69680  29.346  29.512  19.383 -0.0064 -0.3604  0.0887
26764W        W69681  28.292  31.054  21.670 -0.0430 -0.0237  0.1456
26765W        W69682  25.554  29.006  23.244 -0.2082  0.4135  0.1335
26766W        W69683  26.586  28.175  23.334 -0.0524 -0.1405  0.0931
26767W        W69684  28.077  28.748  20.798  0.0832 -0.1673 -0.3261
26768W        W69685  26.066  25.960  22.595 -0.0981 -0.6132  0.1284
26769W        W69686  26.579  25.559  22.092 -0.0413 -0.0542  0.1252
26770W        W69687  29.107  27.845  20.989  0.0873  0.0164 -0.1690
26771W        W69688  26.040  28.250  24.782 -0.0343  0.2587  0.2752
26772W        W69689  26.283  25.474  21.187  0.0662 -0.0438 -0.0388
26773W        W69690  27.775  28.203  19.847  0.1051  0.2946  0.2878
26774W        W69691  28.425  29.824  21.443  0.2558  0.2044  0.2467
26775W        W69692  25.787  24.839  24.147 -0.1640 -0.0682 -0.3057
26776W        W69693  26.577  27.671  22.975 -0.1117  0.0714  0.0083
26777W        W69694  26.730  28.063  21.290 -0.3442  0.2327 -0.1829
26778W        W69695  26.633  26.898  21.650 -0.2243  0.0118 -0.3609
26779W        W69696  30.577  29.779  20.174 -0.1136  0.1614  0.1012
26780W        W69697  25.761  27.531  21.999 -0.0769  0.2172 -0.1294
26781W        W69698  26.460  28.616  22.877  0.0888  0.0248 -0.1167
26782W        W69699  30.110  28.891  20.428  0.0917 -0.1401 -0.0368
26783W        W69700  28.562  28.321  21.715  0.0167 -0.0183 -0.1772
26784W        W69701  27.084  28.009  20.009 -0.0405  0.2941 -0.1127
26785W        W69702  27.812  29.263  24.057  0.2803 -0.2332 -0.1968
26786W        W69703  26.180  26.316  18.496 -0.1137 -0.1644 -0.0700
26787W        W69704  27.347  27.856  22.947  0.1550 -0.3070  0.0074
26788W        W69705  25.538  25.239  22.466  0.0559 -0.1306  0.0307
26789W        W69706  27.014  26.199  21.894  0.0327  0.0941  0.2522
26790W        W69707  28.144  26.688  21.969 -0.0904 -0.2133 -0.1693
26791W        W69708  27.765  27.964  20.684 -0.0144 -0.0942 -0.0601
26792W        W69709  28.959  29.852  18.684 -0.0653  0.2262 -0.4272
26793W        W69710  27.009  29.099  24.361 -0.1642  0.3818 -0.1421
26794W        W69711  28.145  29.523  24.324 -0.1984  0.2306 -0.3034
26795W        W69712  25.265  26.204  23.604  0.3786 -0.2150  0.2713
26796W        W69713  27.576  28.361  20.893  0.1740  0.1870 -0.0467
26797W        W69714  27.204  26.774  24.032 -0.0927 -0.2598  0.0811
26798W        W69715  28.750  29.225  20.226  0.0867 -0.2960 -0.1654
26799W        W69716  27.602  26.753  21.850  0.0138  0.2703  0.0028
26800W        W69717  28.336  27.305  19.907 -0.4209 -0.0690  0.1968
26801W        W69718  26.139  26.721  24.188  0.0812 -0.0963  0.4464
26802W        W69719  27.304  27.440  23.295  0.0585  0.1944  0.3714
26803W        W69720  29.663  28.374  21.557 -0.0580  0.0290 -0.1177
26804W        W69721  25.754  25.820  21.647 -0.2784 -0.1798 -0.0549
26805W        W69722  26.790  28.556  21.291  0.3419 -0.1446 -0.1641
26806W        W69723  25.733  29.157  19.002 -0.3676  0.1849  0.2580
26807W        W69724  26.303  26.872  21.091 -0.2705 -0.1734  0.0251
26808W        W69725  29.613  27.731  19.730 -0.0429 -0.2649 -0.2487
26809W        W69726  28.366  27.729  23.579 -0.4104  0.1666  0.2859
26810W        W69727  28.881  28.685  20.534 -0.0245  0.1227  0.3610
26811W        W69728  30.870  27.683  22.371 -0.0183  0.0737  0.0372
26812W        W69729  28.265  28.473  19.925 -0.0213  0.0292 -0.0701
26813W        W69730  29.152  29.076  20.714  0.2289  0.0186  0.0759
26814W        W69731  27.778  30.223  22.026 -0.0850 -0.0512  0.1189
26815W        W69732  30.448  29.028  23.434 -0.3676 -0.1323  0.0323
26816W        W69733  28.402  28.764  21.937 -0.0181 -0.0516  0.2878
26817W        W69734  29.096  28.815  22.005  0.3524 -0.0713 -0.0774
26818W        W69735  26.672  27.802  21.719  0.2900 -0.1379  0.2367
26819W        W69736  25.406  25.400  20.706 -0.3131  0.5933 -0.0342
26820W        W69737  26.379  26.293  21.554  0.0509 -0.0730 -0.2563
26821W        W69738  26.786  29.195  20.020 -0.1742 -0.0045  0.1394
26822W        W69739  25.546  27.073  22.505 -0.0793 -0.0416  0.0233
26823W        W69740  28.956  23.650  22.185  0.3543  0.2855  0.2428
26824W        W69741  23.742  29.334  24.486 -0.3327 -0.0481  0.0205
26825W        W69742  26.058  28.136  20.871 -0.1072  0.0992  0.0235
26826W        W69743  25.827  26.852  29.388 -0.2939 -0.1171  0.3524
26827W        W69744  25.324  26.605  25.510 -0.0442  0.0802  0.1693
26828W        W69745  27.634  25.761  24.071  0.3445 -0.3740  0.0687
26829W        W69746  27.293  27.539  25.909 -0.4042  0.1540 -0.2402
26830W        W69747  25.494  29.447  25.366  0.4118 -0.1042 -0.0901
26831W        W69748  29.714  27.745  24.044 -0.2621 -0.1260  0.1199
26832W        W69749  22.302  26.188  23.682  0.1749 -0.0075  0.2444
26833W        W69750  26.796  28.407  24.754  0.1388 -0.3580  0.1136
26834W        W69751  27.981  29.287  26.177  0.2259 -0.1055  0.1537
26835W        W69752  29.219  27.857  24.796 -0.0449 -0.4317  0.0125
26836W        W69753  26.033  28.657  24.433  0.1007 -0.0609 -0.0594
26837W        W69754  26.981  30.027  26.403  0.0580  0.3353 -0.2002
26838W        W69755  25.250  28.238  24.408 -0.0593  0.1093 -0.3406
26839W        W69756  24.535  24.801  25.785 -0.2204  0.0345 -0.0241
26840W        W69757  26.444  27.480  26.717  0.0504 -0.0502 -0.1125
26841W        W69758  24.752  29.197  22.562 -0.0551  0.2034 -0.2252
26842W        W69759  25.839  26.035  25.939 -0.0630 -0.0651  0.1573
26843W        W69760  27.463  27.084  24.718 -0.0265 -0.2092  0.2136
26844W        W69761  26.004  30.385  22.370 -0.2866  0.1251  0.2033
26845W        W69762  27.550  25.647  26.676 -0.2348  0.0908  0.0779
26846W        W69763  26.613  25.595  26.503 -0.0308  0.0624 -0.1771
26847W        W69764  25.299  29.831  25.700  0.2073  0.0208  0.1251
26848W        W69765  26.963  28.144  24.352 -0.1794 -0.1745  0.2984
26849W        W69766  25.735  27.329  24.686 -0.1443 -0.1680  0.4548
26850W        W69767  25.196  28.032  25.858 -0.2376 -0.0657  0.5366
26851W        W69768  27.192  27.770  27.720  0.0141  0.0502  0.0532
26852W        W69769  28.737  26.999  26.365 -0.1042  0.1667 -0.3242
26853W        W69770  27.722  28.153  24.734 -0.2607 -0.2600  0.0778
26854W        W69771  27.526  29.520  26.340 -0.0663 -0.0136 -0.0917
26855W        W69772  27.197  26.756  27.628 -0.1488  0.2942 -0.0564
26856W        W69773  24.619  28.942  24.352 -0.0367  0.0106  0.2054
26857W        W69774  27.812  29.944  24.507 -0.0684 -0.1019  0.0927
26858W        W69775  27.587  30.061  25.078  0.0462 -0.1119  0.1762
26859W        W69776  28.146  25.926  24.417  0.1668  0.1429  0.0025
26860W        W69777  28.381  27.892  25.340  0.0593  0.0682  0.0734
26861W        W69778  27.841  28.663  28.357  0.0116 -0.1173 -0.1280
26862W        W69779  24.674  27.942  23.147  0.0855 -0.1180  0.0685
26863W        W69780  27.621  26.640  26.886  0.0774 -0.3606 -0.0106
26864W        W69781  27.135  28.686  25.934  0.1802 -0.0227  0.0749
26865W        W69782  28.890  27.520  24.738 -0.1438 -0.0324  0.0674
26866W        W69783  26.603  26.642  25.802 -0.0308 -0.1126  0.2625
26867W        W69784  27.943  28.643  24.656  0.2808 -0.1543  0.1397
26868W        W69785  26.087  27.094  24.442 -0.2412 -0.1967 -0.0819
26869W        W69786  26.569  29.341  26.755 -0.0173 -0.1340  0.2717
26870W        W69787  24.571  28.559  24.985  0.1807  0.2677  0.2025
26871W        W69788  29.213  25.884  27.320  0.1944  0.0367  0.1542
26872W        W69789  26.631  27.814  24.680 -0.1161 -0.1661 -0.0235
26873W        W69790  30.509  28.626  25.490  0.1253  0.2785 -0.2235
26874W        W69791  26.271  26.915  25.489 -0.0634  0.1340 -0.4160
26875W        W69792  27.023  27.482  24.463  0.1795 -0.0314 -0.3867
26876W        W69793  25.290  25.541  27.319 -0.1102 -0.4021  0.0950
26877W        W69794  25.789  28.590  25.598 -0.2316 -0.0234  0.0224
26878W        W69795  25.390  27.683  28.533 -0.0042  0.0760  0.0442
26879W        W69796  29.832  28.371  27.046  0.0817 -0.1336 -0.0017
26880W        W69797  25.873  26.344  23.844 -0.4494  0.0602 -0.0111
26881W        W69798  29.682  27.964  27.353 -0.1781  0.0142  0.3028
26882W        W69799  25.282  29.161  27.337 -0.2792 -0.1850  0.0117
26883W        W69800  24.686  28.166  25.249  0.0402  0.2383 -0.1730
26884W        W69801  29.201  29.687  23.543 -0.1367  0.3148 -0.0975
26885W        W69802  29.477  29.117  26.212  0.0928 -0.1027 -0.0322
26886W        W69803  30.057  27.570  24.819  0.1613 -0.1622 -0.0903
26887W        W69804  26.515  26.826  22.884  0.4797 -0.3667  0.0522
26888W        W69805  25.647  28.284  25.196 -0.0855  0.0141  0.2891
26889W        W69806  25.814  27.406  26.169  0.1116  0.3091 -0.1156
26890W        W69807  26.477  26.236  22.945  0.0507  0.0331  0.1021
26891W        W69808  27.478  26.907  26.063 -0.2087  0.1684  0.1547
26892W        W69809  26.414  29.280  27.341  0.2011 -0.0883  0.2486
26893W        W69810  27.678  25.308  25.049 -0.0321  0.1100  0.0166
26894W        W69811  25.347  27.806  25.395  0.0965 -0.2808 -0.1095
26895W        W69812  28.356  28.712  27.071  0.0810  0.2108  0.1090
26896W        W69813  26.299  28.086  23.804  0.3671  0.0364 -0.2054
26897W        W69814  27.879  27.766  25.107 -0.2880  0.0799  0.0561
26898W        W69815  26.850  24.430  27.434  0.2595  0.1322  0.0645
26899W        W69816  25.673  28.027  23.492 -0.1967 -0.1400 -0.0668
26900W        W69817  25.715  27.738  23.893  0.1727 -0.1579  0.0563
26901W        W69818  27.577  28.414  29.222  0.0424  0.2608 -0.0835
26902W        W69819  28.525  28.252  22.199 -0.0201  0.3835  0.0090
26903W        W69820  27.252  29.747  26.029 -0.1505 -0.1923  0.0906
26904W        W69821  25.829  26.960  27.534 -0.0203  0.0194  0.1899
26905W        W69822  27.735  28.594  25.212 -0.0220  0.2977  0.0947
26906W        W69823  25.901  29.434  23.317  0.0292  0.0325  0.2207
26907W        W69824  25.787  28.781  28.115 -0.1123  0.1274 -0.1611
26908W        W69825  23.861  26.969  24.650 -0.2265 -0.1887  0.1921
26909W        W69826  26.080  25.625  25.754  0.1504  0.0349  0.1153
26910W        W69827  27.120  26.693  25.839  0.3005  0.2501 -0.0086
26911W        W69828  27.279  27.879  24.675  0.1406  0.0758  0.1390
26912W        W69829  24.771  25.762  24.751  0.1040 -0.1273  0.0057
26913W        W69830  30.057  25.927  26.734 -0.0098  0.2505 -0.0167
26914W        W69831  25.481  28.243  23.955 -0.1357  0.0896 -0.1940
26915W        W69832  26.695  29.854  25.115 -0.0593  0.0658  0.2236
26916W        W69833  26.905  24.983  24.178  0.0312 -0.0655  0.2212
26917W        W69834  27.028  26.964  24.525  0.0213 -0.2050 -0.1651
26918W        W69835  24.028  26.687  23.184  0.0136  0.3014 -0.0498
26919W        W69836  26.544  26.679  26.349 -0.0630  0.0685 -0.1980
26920W        W69837  27.108  27.673  28.723 -0.1129 -0.1203  0.3567
26921W        W69838  25.215  26.093  24.958 -0.1579 -0.3314 -0.0167
26922W        W69839  27.977  27.261  28.096  0.0962 -0.1045 -0.0978
26923W        W69840  26.622  26.536  21.965 -0.4578  0.2007  0.1170
26924W        W69841  26.636  26.371  23.450  0.0053 -0.3497  0.5967
26925W        W69842  27.122  25.905  27.303  0.0009  0.2598 -0.1564
26926W        W69843  23.585  26.972  23.255  0.1597  0.0157 -0.1802
26927W        W69844  28.331  26.767  29.305  0.1228  0.1657  0.2706
26928W        W69845  28.014  29.432  25.292  0.2678 -0.3520  0.1969
26929W        W69846  30.051  29.240  27.023  0.0682 -0.0634 -0.1160
26930W        W69847  25.963  29.947  26.210 -0.2417  0.2541 -0.0407
26931W        W69848  27.924  26.611  27.326  0.3076  0.2767 -0.2978
26932W        W69849  25.403  24.207  24.455  0.2444 -0.0607 -0.1277
26933W        W69850  26.687  30.988  23.436 -0.1535 -0.1983 -0.0411
26934W        W69851  24.142  30.437  25.237 -0.1493  0.4261 -0.2193
26935W        W69852  24.711  28.664  23.596  0.0559  0.1341 -0.2282
26936W        W69853  30.070  27.865  25.316  0.2673  0.2893  0.2658
26937W        W69854  25.289  27.403  24.853 -0.1071  0.2676  0.1033
26938W        W69855  28.190  26.891  25.412  0.4783  0.0374 -0.1232
26939W        W69856  27.465  28.213  26.578 -0.1722 -0.1002 -0.0149
26940W        W69857  26.565  27.892  27.046  0.0691  0.2087 -0.1762
26941W        W69858  27.466  26.704  25.061  0.0638  0.1003 -0.0704
26942W        W69859  24.149  25.574  22.682  0.3088  0.1558 -0.1744
26943W        W69860  27.961  28.752  23.488  0.0269  0.1102  0.0299
26944W        W69861  26.185  28.827  23.998  0.0912  0.1485  0.0129
26945W        W69862  23.198  28.438  26.950 -0.0553  0.2178 -0.1147
26946W        W69863  27.005  26.295  25.614 -0.0247  0.2383  0.0315
26947W        W69864  30.022  26.424  27.468  0.2504 -0.0586  0.4179
26948W        W69865  24.932  28.539  28.033  0.2340  0.1459  0.0278
26949W        W69866  26.729  28.719  28.100 -0.1796  0.1917  0.2006
26950W        W69867  25.391  26.916  24.771  0.2555 -0.0638 -0.1954
26951W        W69868  26.027  28.450  28.540 -0.0776 -0.2388  0.0410
26952W        W69869  28.241  25.662  25.967 -0.0187  0.3530 -0.0252
26953W        W69870  27.750  27.253  25.752 -0.3946  0.3982 -0.0105
26954W        W69871  29.559  29.155  26.845  0.3702 -0.1597  0.0578
26955W        W69872  29.612  27.918  23.431 -0.0611 -0.0793 -0.3325
26956W        W69873  28.841  28.042  23.999 -0.0554  0.2379 -0.0782
26957W        W69874  29.190  24.788  25.654  0.0026 -0.1114  0.1250
26958W        W69875  26.023  27.248  29.545  0.2693 -0.1443  0.1036
26959W        W69876  26.340  27.584  23.699 -0.3197 -0.0499  0.1506
26960W        W69877  26.848  29.386  25.140 -0.0565 -0.0616  0.0198
26961W        W69878  26.349  25.326  24.788  0.4161 -0.3447 -0.0897
26962W        W69879  29.437  28.625  24.438  0.3120  0.2010  0.0978
26963W        W69880  25.339  26.148  25.939 -0.0114 -0.1854 -0.0994
26964W        W69881  26.241  29.397  25.945 -0.0642  0.0505  0.1438
26965W        W69882  27.354  29.365  25.350 -0.2243 -0.1862  0.1759
26966W        W69883  25.544  24.170  26.963  0.0493  0.1323  0.0804
26967W        W69884  28.207  24.089  25.499  0.3947 -0.2944 -0.3204
26968W        W69885  25.580  27.838  24.843  0.1434 -0.2054 -0.0505
26969W        W69886  25.564  30.098  22.613  0.1168 -0.2552 -0.1542
26970W        W69887  26.097  26.569  25.195 -0.2565 -0.0563 -0.3652
26971W        W69888  25.353  29.424  24.472 -0.1149  0.0226  0.2296
26972W        W69889  26.561  27.225  27.098 -0.1360 -0.1296  0.1120
26973W        W69890  28.866  27.656  25.238 -0.3843 -0.0567 -0.2528
26974W        W69891  28.231  25.808  23.346 -0.0187  0.0281  0.0205
26975W        W69892  27.908  28.593  26.806 -0.0804  0.2122 -0.4251
26976W        W69893  25.751  28.523  23.266  0.2760 -0.1898  0.2535
26977W        W69894  27.123  25.961  26.728 -0.1122  0.3667  0.0001
26978W        W69895  25.683  27.184  26.614  0.0444  0.2262  0.4497
26979W        W69896  25.957  29.018  28.581  0.1307 -0.0382 -0.0477
26980W        W69897  28.422  27.614  24.934 -0.0067 -0.1121 -0.0111
26981W        W69898  26.485  26.120  25.883 -0.5462 -0.3771  0.0930
26982W        W69899  26.482  24.718  25.690 -0.1003  0.2053  0.0118
26983W        W69900  27.206  25.627  23.668 -0.2036  0.0859  0.0946
26984W        W69901  27.150  30.253  25.216  0.3901  0.2372  0.1120
26985W        W69902  26.910  28.138  23.785  0.2706  0.0717 -0.1633
26986W        W69903  24.651  27.493  24.582 -0.1829  0.0905 -0.2212
26987W        W69904  24.771  26.619  24.617  0.1024  0.2694  0.2764
26988W        W69905  26.453  28.197  24.240 -0.1281 -0.1945  0.1422
26989W        W69906  26.168  27.470  27.693 -0.2840  0.0208 -0.0078
26990W        W69907  25.815  29.421  25.024  0.0717 -0.3480 -0.1710
26991W        W69908  26.913  24.634  25.444 -0.3321  0.1384 -0.0024
26992W        W69909  27.273  29.278  24.831 -0.0267  0.2447  0.2362
26993W        W69910  25.625  25.858  23.692 -0.1049 -0.1611  0.1059
26994W        W69911  24.301  27.971  25.500 -0.1329 -0.1918 -0.1354
26995W        W69912  27.712  27.789  26.552 -0.0285  0.0593 -0.0778
26996W        W69913  30.332  28.469  24.721  0.0385  0.0099 -0.2114
26997W        W69914  25.870  26.732  27.013 -0.0518 -0.0085 -0.3343
26998W        W69915  28.070  26.885  26.792 -0.0584 -0.0376  0.1176
26999W        W69916  25.737  29.093  24.645  0.0432  0.0604  0.0830
27000W        W69917  27.667  27.058  27.169  0.0061 -0.0017  0.5444
27001W        W69918  31.321  26.711  24.164  0.1628  0.1502  0.2340
27002W        W69919  28.112  27.414  25.311  0.0664  0.0774 -0.0710
27003W        W69920  28.234  29.380  24.834  0.0359 -0.1723  0.1004
27004W        W69921  25.251  28.029  23.147 -0.0577 -0.0438 -0.0158
27005W        W69922  28.363  27.022  24.958 -0.1107 -0.4154 -0.0881
27006W        W69923  25.175  28.136  25.025  0.1780  0.2266 -0.1787
27007W        W69924  25.770  27.268  24.075  0.0482 -0.2097  0.0223
27008W        W69925  27.032  27.578  25.358 -0.2307 -0.1185 -0.1325
27009W        W69926  24.468  27.501  25.449  0.1407 -0.0973  0.0665
27010W        W69927  26.802  26.715  25.299 -0.2027 -0.2037 -0.1435
27011W        W69928  26.682  26.833  26.807  0.1743 -0.0187 -0.0082
27012W        W69929  27.744  27.430  26.209  0.2057 -0.0003 -0.1471
27013W        W69930  26.545  26.743  24.468  0.0454  0.0848 -0.0556
27014W        W69931  28.136  27.911  22.569  0.2796  0.1713  0.2460
27015W        W69932  26.684  27.748  24.123 -0.0806  0.1080  0.1138
27016W        W69933  28.268  27.198  25.799  0.0275 -0.0113  0.2461
27017W        W69934  27.037  26.750  26.322 -0.0564 -0.0444  0.3031
27018W        W69935  28.092  27.843  24.604 -0.1015  0.0159 -0.0033
27019W        W69936  27.078  28.246  26.153  0.2386 -0.1083  0.0179
27020W        W69937  28.975  27.946  23.470  0.0668 -0.1008  0.1145
27021W        W69938  28.618  26.006  28.158 -0.0188 -0.1974 -0.0215
27022W        W69939  24.968  29.087  23.605  0.0225 -0.2064  0.2570
27023W        W69940  24.868  28.529  24.572  0.0702 -0.1483  0.0678
27024W        W69941  25.594  27.712  24.354 -0.0469  0.1938  0.3615
27025W        W69942  26.133  25.871  26.449  0.1605  0.0385  0.3573
27026W        W69943  25.525  28.906  26.239  0.0046  0.0323  0.0165
27027W        W69944  24.812  29.391  23.176  0.1270  0.0934  0.0135
27028W        W69945  23.623  28.092  27.411  0.0922  0.0153 -0.2637
27029W        W69946  29.191  25.136  24.533 -0.2657  0.1669 -0.0627
27030W        W69947  26.351  27.069  26.019 -0.0145  0.0309 -0.2538
27031W        W69948  26.793  27.544  26.277  0.2041  0.3162 -0.1696
27032W        W69949  26.894  25.349  27.540  0.0421  0.2049  0.2193
27033W        W69950  26.712  26.727  23.862  0.0230  0.0282  0.0818
27034W        W69951  27.336  24.693  28.165 -0.3636  0.0717  0.3162
27035W        W69952  26.538  26.708  27.939 -0.1841 -0.0297  0.0200
27036W        W69953  28.796  28.628  25.201  0.0144 -0.2692 -0.1396
27037W        W69954  23.968  28.518  28.326  0.1799  0.0609  0.2760
27038W        W69955  27.558  29.069  26.643 -0.1855 -0.1301  0.3621
27039W        W69956  24.458  27.435  27.733 -0.0450  0.2187 -0.3426
27040W        W69957  28.650  26.910  25.811  0.1025  0.1917 -0.2508
27041W        W69958  28.047  26.430  24.586 -0.2767 -0.4803 -0.0743
27042W        W69959  25.824  28.666  24.952 -0.1442  0.2949 -0.2919
27043W        W69960  25.744  27.655  25.701  0.1810 -0.2703  0.3915
27044W        W69961  25.335  29.237  24.922  0.1360  0.0621 -0.1183
27045W        W69962  27.625  26.747  25.587  0.0436  0.3429 -0.2178
27046W        W69963  26.164  26.951  26.592 -0.1753  0.1648  0.0300
27047W        W69964  27.707  26.087  24.415 -0.0650 -0.1246  0.1407
27048W        W69965  27.226  26.097  24.821 -0.3675  0.0219 -0.0856
27049W        W69966  24.910  28.685  25.326  0.3181 -0.1661  0.0735
27050W        W69967  25.544  26.010  27.259 -0.0930 -0.4416 -0.0087
27051W        W69968  28.132  27.743  26.273 -0.0193 -0.2507  0.1385
27052W        W69969  26.911  27.164  25.988 -0.0414  0.1602  0.0916
27053W        W69970  26.400  23.651  28.031  0.1583  0.1600 -0.1364
27054W        W69971  29.276  26.796  24.395  0.1013 -0.3874  0.1695
27055W        W69972  26.325  27.621  26.144 -0.1532 -0.2525  0.0989
27056W        W69973  26.326  28.321  26.361 -0.1114  0.2184 -0.1053
27057W        W69974  27.239  27.779  26.398 -0.0803 -0.0368  0.1066
27058W        W69975  28.155  25.885  23.898 -0.0393  0.3293 -0.0264
27059W        W69976  28.335  24.537  26.828 -0.3443  0.1444  0.0503
27060W        W69977  27.828  25.693  24.754  0.1923 -0.0105  0.1066
27061W        W69978  28.453  26.407  25.550 -0.0049  0.1080  0.1620
27062W        W69979  25.379  26.417  24.624 -0.4029 -0.1367 -0.1803
27063W        W69980  26.751  27.829  27.902 -0.0290 -0.0895 -0.1966
27064W        W69981  26.287  25.782  24.530 -0.2073 -0.2422 -0.0474
27065W        W69982  27.104  24.896  27.246 -0.1094  0.2532 -0.0210
27066W        W69983  26.793  28.973  23.440 -0.0015 -0.0360 -0.2163
27067W        W69984  25.989  29.184  26.853  0.1477  0.0580 -0.0887
27068W        W69985  26.331  26.116  23.774  0.0880  0.1555  0.0514
27069W        W69986  22.869  27.257  26.694  0.0385  0.0535 -0.2405
27070W        W69987  27.053  29.753  25.481 -0.3370 -0.1797 -0.4158
27071W        W69988  25.140  26.722  24.289 -0.0192 -0.0134 -0.2195
27072W        W69989  25.015  26.148  24.447 -0.3021  0.0642 -0.1208
27073W        W69990  28.403  28.186  27.054 -0.0702  0.0322  0.2829
27074W        W69991  28.618  28.323  27.554  0.2146  0.2426  0.3677
27075W        W69992  28.114  24.997  25.093 -0.5181  0.0440  0.0696
27076W        W69993  27.901  27.685  27.131 -0.0580 -0.2125 -0.1413
27077W        W69994  25.777  29.250  24.141  0.0506  0.3862 -0.1682
27078W        W69995  27.045  27.666  27.202  0.1382 -0.1098  0.4478
27079W        W69996  26.759  29.583  26.035  0.0634 -0.3834 -0.3731
27080W        W69997  24.915  29.471  28.233 -0.0221 -0.4130 -0.0366
27081W        W69998  27.758  30.859  24.873 -0.1418 -0.0723  0.1610
27082W        W69999  25.446  27.828  28.081 -0.2107  0.1768  0.2380
27083W        W70000  29.657  27.297  24.524 -0.2245 -0.1982  0.1826
27084W        W70001  26.581  26.178  26.439 -0.0588 -0.2701  0.1032
27085W        W70002  28.460  25.395  26.405 -0.2643  0.2906  0.0017
27086W        W70003  26.757  28.549  25.237 -0.0495  0.1922 -0.2157
27087W        W70004  24.002  28.646  25.841  0.3054 -0.1329  0.0171
27088W        W70005  27.727  29.036  24.999  0.1447 -0.0178  0.0547
27089W        W70006  30.126  29.085  24.274  0.0083 -0.3538 -0.2926
27090W        W70007  24.882  27.017  26.232  0.0793  0.1138 -0.2868
27091W        W70008  25.357  26.760  28.436 -0.1311 -0.2688  0.0453
27092W        W70009  27.508  26.260  27.555 -0.0162 -0.1199 -0.0220
27093W        W70010  27.306  28.545  25.476  0.0204 -0.0169 -0.0521
27094W        W70011  27.189  26.007  24.275 -0.1132 -0.0287  0.1894
27095W        W70012  27.472  28.028  25.125 -0.2551 -0.0614 -0.0500
27096W        W70013  25.749  29.054  27.674 -0.0322  0.1091  0.4137
27097W        W70014  24.357  28.190  28.794  0.3035  0.2232  0.2182
27098W        W70015  25.558  29.678  24.046  0.0714 -0.0025 -0.1984
27099W        W70016  29.271  28.607  23.884 -0.2466  0.0959  0.1328
27100W        W70017  27.394  26.324  23.795  0.0243 -0.1815  0.0170
27101W        W70018  28.719  29.996  26.800  0.3819 -0.0885  0.0259
27102W        W70019  28.323  28.270  24.483 -0.0658  0.2717  0.1916
27103W        W70020  25.009  27.826  24.580 -0.0655  0.1537  0.0693
27104W        W70021  24.260  29.302  24.371  0.0654  0.0033 -0.2253
27105W        W70022  28.390  28.923  24.453  0.1983  0.0888 -0.0876
27106W        W70023  25.547  30.233  26.151  0.1514  0.0114 -0.0692
27107W        W70024  28.834  28.406  26.234  0.0564  0.1568 -0.4106
27108W        W70025  28.318  27.011  22.990  0.2847 -0.0202 -0.1147
27109W        W70026  28.590  27.241  25.410 -0.2353  0.1332 -0.2250
27110W        W70027  29.213  27.645  23.757 -0.0688  0.2141  0.4953
27111W        W70028  27.724  28.847  27.880  0.2862 -0.0819  0.2167
27112W        W70029  26.614  26.235  25.287  0.1528  0.0149  0.0102
27113W        W70030  25.483  24.953  22.845  0.0178  0.1713 -0.0314
27114W        W70031  26.149  29.458  25.406 -0.2057  0.2534 -0.0575
27115W        W70032  27.801  24.936  28.013 -0.0650  0.0202  0.0834
27116W        W70033  25.840  29.655  27.806 -0.1995 -0.0564  0.4072
27117W        W70034  30.015  28.877  25.452  0.1057  0.0603  0.0171
27118W        W70035  23.978  28.783  23.370  0.4105  0.1081  0.2430
27119W        W70036  26.314  27.377  25.654  0.2903  0.0377  0.2840
27120W        W70037  28.440  24.591  26.175 -0.1971 -0.2368 -0.2341
27121W        W70038  27.340  29.550  23.804 -0.0296 -0.1086  0.1396
27122W        W70039  28.137  28.213  25.841 -0.2515  0.0356  0.2516
27123W        W70040  29.061  28.989  24.375 -0.2925 -0.0676  0.2493
27124W        W70041  25.019  29.173  27.763  0.2303  0.1476  0.1148
27125W        W70042  28.047  30.071  26.845  0.3009 -0.4867  0.1513
27126W        W70043  23.707  26.224  25.305  0.0229 -0.1002  0.0074
27127W        W70044  27.424  26.364  26.570  0.2690 -0.1501 -0.0134
27128W        W70045  25.505  28.449  26.085  0.1731  0.2033 -0.2340
27129W        W70046  25.951  24.051  27.259  0.1049  0.3946 -0.1592
27130W        W70047  25.695  28.160  25.694  0.2147  0.0231  0.3105
27131W        W70048  29.036  25.997  24.924 -0.0605  0.2775  0.2813
27132W        W70049  27.339  27.498  25.006  0.4624 -0.1835 -0.0850
27133W        W70050  24.344  26.835  26.311  0.2753 -0.1531  0.0640
27134W        W70051  29.173  27.668  24.317 -0.0624 -0.0059  0.0813
27135W        W70052  29.171  26.879  26.126  0.0183 -0.0443 -0.0602
27136W        W70053  27.679  26.256  24.878 -0.0868  0.0309  0.1119
27137W        W70054  28.077  28.056  26.747  0.1880 -0.1409  0.3757
27138W        W70055  25.643  27.436  27.254 -0.0296  0.1809 -0.2596
27139W        W70056  27.077  27.186  27.145 -0.0669 -0.0126  0.0500
27140W        W70057  24.962  28.054  26.690 -0.0497  0.0214 -0.3216
27141W        W70058  27.679  28.292  27.684 -0.0847 -0.2205 -0.0577
27142W        W70059  28.966  27.874  26.787  0.0739  0.2521 -0.1525
27143W        W70060  26.220  24.831  26.477 -0.4360 -0.1876 -0.0326
27144W        W70061  28.438  28.387  25.486 -0.1090  0.1056 -0.0275
27145W        W70062  29.110  27.393  26.192 -0.2601 -0.1172 -0.1736
27146W        W70063  26.009  29.014  25.271  0.1757 -0.0287 -0.0853
27147W        W70064  26.533  27.755  25.157 -0.0275  0.1943  0.0385
27148W        W70065  28.451  29.142  26.294 -0.1798  0.0502  0.0143
27149W        W70066  24.914  27.334  25.724  0.0333 -0.1176  0.1387
27150W        W70067  26.598  29.369  25.617 -0.0070 -0.3454  0.0810
27151W        W70068  29.622  28.251  24.822 -0.0966  0.1838 -0.3053
27152W        W70069  26.919  27.439  26.780 -0.1594  0.1280  0.1382
27153W        W70070  24.779  28.031  26.078 -0.0725 -0.0452 -0.0128
27154W        W70071  24.791  28.414  25.772 -0.0869 -0.2296  0.0218
27155W        W70072  29.736  24.869  25.477 -0.2039  0.2752  0.0120
27156W        W70073  26.889  25.304  26.130  0.3167 -0.2791  0.2852
27157W        W70074  29.019  29.515  23.122  0.3025 -0.0957 -0.0641
27158W        W70075  27.624  24.783  27.194 -0.0338  0.0556  0.0742
27159W        W70076  29.062  30.567  25.451  0.2608 -0.0592 -0.2063
27160W        W70077  26.315  27.875  25.643 -0.0104 -0.2415  0.0563
27161W        W70078  24.894  26.951  23.005 -0.0109 -0.1799  0.1916
27162W        W70079  26.773  27.627  25.788  0.2958 -0.2608  0.0482
27163W        W70080  27.034  27.057  25.051 -0.0927  0.1492 -0.0298
27164W        W70081  26.762  28.902  25.638  0.0426  0.1039  0.1431
27165W        W70082  28.014  28.819  26.345  0.0242 -0.2490 -0.0506
27166W        W70083  27.657  27.063  26.528 -0.2178  0.2586 -0.0388
27167W        W70084  28.918  27.456  25.717  0.3204  0.3349 -0.1529
27168W        W70085  26.348  26.429  26.782  0.0321 -0.0712 -0.0558
27169W        W70086  29.504  25.895  26.392  0.0179 -0.2332  0.0895
27170W        W70087  27.455  25.965  26.286 -0.0737 -0.0533 -0.0673
27171W        W70088  26.692  28.150  25.508  0.2638  0.0200 -0.4047
27172W        W70089  24.809  26.483  23.543  0.0288 -0.0094 -0.2636
27173W        W70090  26.129  27.380  25.032 -0.1635  0.2576  0.0377
27174W        W70091  25.137  26.567  26.168  0.0150 -0.1384 -0.2411
27175W        W70092  26.325  22.916  28.575 -0.0430 -0.3634 -0.2256
27176W        W70093  24.639  29.349  28.623 -0.0429  0.3055  0.1154
27177W        W70094  26.413  29.798  25.712 -0.1050 -0.0470 -0.0365
27178W        W70095  25.315  27.530  26.514  0.0918 -0.1162  0.0262
27179W        W70096  29.892  28.730  24.643  0.0627  0.0732 -0.0252
27180W        W70097  23.856  28.936  26.857  0.0180 -0.0881 -0.1368
27181W        W70098  26.902  27.231  24.028  0.3152 -0.0450  0.1544
27182W        W70099  26.197  27.767  24.217 -0.3396 -0.2289  0.0270
27183W        W70100  28.571  28.108  24.920 -0.2359  0.2231 -0.0289
27184W        W70101  26.446  25.140  25.989  0.0954 -0.0185  0.3696
27185W        W70102  29.692  28.196  27.840 -0.2206  0.1432 -0.0647
27186W        W70103  24.513  27.576  22.876 -0.0291  0.2079  0.3222
27187W        W70104  27.993  27.678  25.711 -0.3612  0.0248 -0.0496
27188W        W70105  26.977  27.239  27.630 -0.2678  0.1680  0.0020
27189W        W70106  26.143  26.390  26.180  0.0208  0.0410 -0.0190
27190W        W70107  27.342  24.566  26.254 -0.2474  0.1299  0.1600
27191W        W70108  26.402  28.099  22.855 -0.0046  0.1324  0.2355
27192W        W70109  29.252  30.258  23.988 -0.1745  0.0647  0.1437
27193W        W70110  25.214  28.769  25.861 -0.2996  0.0479 -0.1532
27194W        W70111  27.111  29.255  25.841  0.2595  0.1089  0.4048
27195W        W70112  25.082  26.356  27.595  0.0899 -0.0167  0.0874
27196W        W70113  26.961  26.523  24.858 -0.1296  0.1052  0.1744
27197W        W70114  26.877  28.059  27.454 -0.0609  0.0283  0.2713
27198W        W70115  27.400  27.214  24.233 -0.0705 -0.1210  0.4044
27199W        W70116  27.599  25.656  27.458 -0.2266  0.1863 -0.0105
27200W        W70117  26.145  26.455  25.665 -0.2073  0.0715 -0.2815
27201W        W70118  24.797  27.757  27.473 -0.1031  0.1362  0.1417
27202W        W70119  25.599  29.046  25.670 -0.3449  0.1770 -0.2725
27203W        W70120  28.901  28.458  28.559 -0.1331  0.0144 -0.2850
27204W        W70121  25.345  27.073  25.736  0.3732 -0.2165 -0.2522
27205W        W70122  27.368  26.556  24.563  0.4252 -0.0476  0.1256
27206W        W70123  27.394  28.834  24.604  0.1070 -0.2536 -0.1100
27207W        W70124  26.280  28.558  25.321 -0.0315 -0.0516 -0.0857
27208W        W70125  27.818  25.986  25.844  0.0877  0.1663  0.0126
27209W        W70126  28.125  29.010  27.555  0.1268 -0.0856  0.1632
27210W        W70127  24.910  27.076  24.782 -0.2067 -0.0494  0.0533
27211W        W70128  27.423  27.413  27.436 -0.4409  0.2588 -0.1311
27212W        W70129  26.399  26.954  25.004 -0.3634 -0.0564 -0.2134
27213W        W70130  29.746  29.428  23.642  0.1356 -0.2561  0.0571
27214W        W70131  28.326  27.219  26.315 -0.1356  0.0938 -0.1951
27215W        W70132  27.013  28.807  29.957  0.2724 -0.1553 -0.1219
27216W        W70133  27.272  28.880  25.140  0.2795  0.1632  0.0927
27217W        W70134  28.320  26.813  24.517 -0.1840 -0.3908  0.2530
27218W        W70135  23.376  22.329  27.177  0.2793  0.2444  0.0507
27219W        W70136  27.121  29.068  26.328 -0.2244 -0.1264  0.1894
27220W        W70137  26.668  28.590  26.038 -0.1103  0.1740 -0.2883
27221W        W70138  29.065  23.362  26.604 -0.0924 -0.1040 -0.0018
27222W        W70139  24.955  27.212  26.682  0.1937 -0.3368  0.0440
27223W        W70140  25.591  26.435  25.123  0.0801 -0.3246  0.3326
27224W        W70141  26.859  30.442  27.547 -0.0297 -0.0374  0.1034
27225W        W70142  26.973  28.082  25.076  0.0864 -0.0311  0.1830
27226W        W70143  26.380  29.352  30.900 -0.0953 -0.1019 -0.2086
27227W        W70144  23.563  27.334  30.387  0.0582 -0.0266  0.1099
27228W        W70145  28.637  24.922  26.547  0.1920 -0.4677 -0.0503
27229W        W70146  29.206  26.025  30.005 -0.1337  0.0450 -0.0124
27230W        W70147  24.814  26.792  28.512  0.1556 -0.1346 -0.0648
27231W        W70148  26.924  28.616  27.170 -0.1590  0.2248 -0.0947
27232W        W70149  26.151  24.530  29.217 -0.0559 -0.1454 -0.0894
27233W        W70150  26.036  28.271  27.846  0.0437 -0.2452  0.0434
27234W        W70151  29.688  29.276  29.194  0.0482  0.1394  0.2485
27235W        W70152  28.869  28.159  25.380 -0.0155 -0.1206 -0.2354
27236W        W70153  24.492  26.855  29.588  0.0330 -0.0158 -0.0904
27237W        W70154  26.382  26.880  30.869 -0.1254  0.0074 -0.1139
27238W        W70155  26.476  26.328  27.646  0.0309  0.3678  0.2202
27239W        W70156  25.940  25.764  29.132 -0.2081  0.0189 -0.1705
27240W        W70157  29.826  27.662  30.676  0.1325  0.1549  0.0330
27241W        W70158  25.712  28.827  26.636  0.2107  0.1337 -0.2195
27242W        W70159  26.518  26.550  31.591 -0.0632 -0.1148  0.3336
27243W        W70160  27.429  27.899  26.944 -0.0981 -0.1430  0.0131
27244W        W70161  26.611  28.624  28.648 -0.0048 -0.0321 -0.0252
27245W        W70162  26.221  26.259  28.711  0.1378 -0.3191  0.2270
27246W        W70163  28.041  24.543   0.691  0.0413  0.2265  0.0345
27247W        W70164  28.689  28.715  28.151 -0.0268  0.1258 -0.0576
27248W        W70165  25.314  27.085  26.961  0.0843  0.1309 -0.0036
27249W        W70166  25.416  28.008  30.645  0.0579 -0.1007 -0.0993
27250W        W70167  26.893  26.867  30.738  0.2618  0.4165  0.0110
27251W        W70168  27.814  27.123  29.732 -0.1904  0.0829 -0.1378
27252W        W70169  28.239  26.862  27.800 -0.1778  0.0559  0.0495
27253W        W70170  26.850  27.355  30.952  0.1353  0.2018  0.2435
27254W        W70171  27.604  29.386  29.054  0.3786 -0.1601 -0.0078
27255W        W70172  26.848  28.034   0.302 -0.1818 -0.1127  0.4143
27256W        W70173  26.784  27.573  30.449  0.0832  0.0715 -0.0764
27257W        W70174  24.968  27.946  30.427  0.0218 -0.2536  0.2905
27258W        W70175  28.385  26.344  29.526 -0.1264  0.0521 -0.0389
27259W        W70176  28.887  28.700  29.358 -0.1146 -0.1662  0.1089
27260W        W70177  29.594  29.786  31.035 -0.0971  0.1739 -0.2797
27261W        W70178  26.286  28.270  31.206 -0.0978 -0.0719  0.0244
27262W        W70179  25.372  27.972  26.325  0.1111 -0.0767 -0.4115
27263W        W70180  27.431  27.815  29.888 -0.1125 -0.0629  0.1127
27264W        W70181  27.800  28.585  31.330 -0.2333 -0.0065 -0.2195
27265W        W70182  26.772  26.934  31.255 -0.0184  0.0147  0.4591
27266W        W70183  27.932  27.413  27.605  0.0443 -0.2150  0.0420
27267W        W70184  25.682  28.549  27.521 -0.0758 -0.2048  0.0693
27268W        W70185  26.438  26.920  30.367 -0.0397 -0.0686 -0.2373
27269W        W70186  26.353  27.353  30.631  0.4954  0.0230 -0.0842
27270W        W70187  26.925  27.810  29.641  0.0158  0.4138  0.4032
27271W        W70188  29.345  25.619  31.776 -0.2576  0.0294  0.3467
27272W        W70189  27.546  27.975  26.061  0.2249 -0.1865 -0.3344
27273W        W70190  28.019  27.346  24.817 -0.4462 -0.2081 -0.0203
27274W        W70191  27.487  25.853  28.304  0.1730  0.0094 -0.1040
27275W        W70192  29.393  25.558  30.259 -0.0959 -0.1785 -0.1990
27276W        W70193  26.488  24.903  29.017 -0.0047  0.1747  0.0434
27277W        W70194  26.493  27.949  29.314  0.2465 -0.1866  0.1214
27278W        W70195  26.777  25.386  29.054 -0.0869 -0.2511 -0.1823
27279W        W70196  28.135  27.404  30.393 -0.5008  0.3882  0.1240
27280W        W70197  26.033  26.578  27.861 -0.0362 -0.1762  0.2284
27281W        W70198  28.392  25.776  31.711  0.2853  0.2584  0.1317
27282W        W70199  25.444  25.835  30.969 -0.1305 -0.1332 -0.0615
27283W        W70200  23.729  25.770  29.046  0.1045  0.2000  0.1851
27284W        W70201  27.831  30.844  27.386 -0.4667 -0.0163 -0.1622
27285W        W70202  29.291  28.175  26.994 -0.2235  0.1062 -0.0311
27286W        W70203  26.959  25.219  29.904 -0.1238 -0.1540 -0.3492
27287W        W70204  23.119  26.179  29.501  0.1241 -0.0413 -0.0164
27288W        W70205  25.791  29.755   0.239 -0.0392 -0.0652 -0.0169
27289W        W70206  26.497  27.056  29.340  0.0401 -0.3007  0.0697
27290W        W70207  28.148  24.968  26.334  0.1350 -0.1004  0.2395
27291W        W70208  27.843  26.873  31.126 -0.1084 -0.0028 -0.4087
27292W        W70209  24.472  28.687  30.632  0.0616  0.3080 -0.4378
27293W        W70210  28.784  26.437  27.102 -0.1943  0.2650  0.3820
27294W        W70211  25.438  24.933  30.992 -0.3455 -0.2597  0.1703
27295W        W70212  28.069  28.119  29.265  0.0878 -0.0209  0.0843
27296W        W70213  26.616  28.118  30.538 -0.2435 -0.1801 -0.0029
27297W        W70214  27.722  25.059  29.562  0.2979 -0.1075 -0.2143
27298W        W70215  26.257  26.690  27.333  0.1387  0.2348 -0.3548
27299W        W70216  27.007  27.430  28.089  0.2140  0.0829 -0.0626
27300W        W70217  26.502  28.356  27.250  0.2904 -0.0132 -0.0130
27301W        W70218  27.517  27.321  31.908  0.0211 -0.2475  0.0364
27302W        W70219  28.249  25.974  27.824  0.0081 -0.0511  0.2155
27303W        W70220  26.258  27.049  28.512  0.0234  0.0148 -0.0731
27304W        W70221  25.448  25.362   0.809 -0.1399  0.2632 -0.0379
27305W        W70222  25.857  28.388   1.143 -0.2512  0.1439 -0.1744
27306W        W70223  26.126  31.017  26.984  0.0841  0.0724 -0.4022
27307W        W70224  24.743  26.251  28.831  0.2720  0.1501  0.0742
27308W        W70225  26.697  27.650  28.392 -0.4621  0.2306 -0.1769
27309W        W70226  25.257  24.761  29.712  0.1923 -0.2186  0.1978
27310W        W70227  27.415  27.642  30.372 -0.3812 -0.5968  0.1596
27311W        W70228  26.821  25.409  28.547  0.0357 -0.1593  0.1070
27312W        W70229  24.508  26.603  31.088 -0.1199 -0.0099  0.0181
27313W        W70230  28.526  26.358  28.999 -0.0819  0.0970 -0.0544
27314W        W70231  25.970  25.741  28.453  0.1262 -0.1555  0.1938
27315W        W70232  29.160  28.960  27.923  0.1748 -0.1414  0.1949
27316W        W70233  29.383  28.422  27.427  0.2495 -0.0161 -0.3465
27317W        W70234  27.853  28.280  27.171 -0.0351  0.0739  0.1079
27318W        W70235  24.779  29.603  29.073  0.3856 -0.1539  0.0681
27319W        W70236  26.585  28.375  27.743 -0.0922  0.0258  0.2493
27320W        W70237  24.325  25.426  31.318 -0.0943  0.0710  0.4086
27321W        W70238  26.010  27.037  31.198 -0.2530  0.0780 -0.0520
27322W        W70239  29.349  25.568  30.807 -0.1129 -0.2537 -0.0390
27323W        W70240  24.706  24.262  31.284 -0.0811  0.1208  0.1841
27324W        W70241  27.476  24.632  28.792  0.0249 -0.0801  0.1315
27325W        W70242  27.570  26.034  28.698  0.1070 -0.1636 -0.3285
27326W        W70243  25.343  26.735  29.461  0.1149 -0.0044 -0.2321
27327W        W70244  27.562  26.763  30.021  0.0983 -0.0874  0.0654
27328W        W70245  27.524  27.960  29.330  0.0294 -0.2638  0.0655
27329W        W70246  28.827  29.175  29.559  0.2065  0.1121 -0.1598
27330W        W70247  27.635  30.478  27.606 -0.2139  0.0517  0.1750
27331W        W70248  25.364  25.254   0.202 -0.0220 -0.2410 -0.0479
27332W        W70249  26.250  26.644  29.224  0.3541 -0.2686 -0.0344
27333W        W70250  27.940  30.169  29.018 -0.0022 -0.4241  0.0339
27334W        W70251  28.392  27.606  30.778  0.1171  0.0557  0.2254
27335W        W70252  26.225  26.182  28.207  0.2009 -0.3519 -0.1219
27336W        W70253  28.445  30.022  27.329  0.0351 -0.0888  0.0639
27337W        W70254  25.356  27.266  28.279  0.0244 -0.3217  0.0012
27338W        W70255  26.657  27.771  28.842 -0.2179  0.0447  0.2600
27339W        W70256  27.201  26.546  30.371 -0.2227 -0.0745 -0.0168
27340W        W70257  29.288  28.407  29.966  0.2133 -0.0478  0.0689
27341W        W70258  27.079  27.189  28.906  0.0366 -0.1179  0.0458
27342W        W70259  27.044  28.176  26.919 -0.0114  0.0969  0.1012
27343W        W70260  27.013  27.895  30.767  0.0960  0.1379 -0.0578
27344W        W70261  26.102  30.488  29.516  0.1611 -0.1550  0.0900
27345W        W70262  24.740  27.675  29.662 -0.1188 -0.0929  0.0473
27346W        W70263  28.034  26.675  29.713 -0.0909  0.1598 -0.0138
27347W        W70264  29.069  27.053  31.446 -0.1893  0.1109  0.0230
27348W        W70265  25.218  26.507  31.680 -0.0421  0.0997  0.1334
27349W        W70266  27.572  28.189   0.090 -0.0109 -0.0554  0.0515
27350W        W70267  25.004  28.977  28.260  0.0146  0.1560  0.3259
27351W        W70268  27.538  27.058   1.656 -0.1334  0.0278  0.2382
27352W        W70269  25.983  24.241  29.732 -0.0664 -0.0369 -0.0430
27353W        W70270  28.471  26.029  27.065  0.0273  0.0361  0.0487
27354W        W70271  28.910  27.453  30.008  0.1964 -0.1749  0.0438
27355W        W70272  28.145  27.650  29.105 -0.1919 -0.2523  0.0498
27356W        W70273  25.816  26.943  26.103 -0.0065  0.2002  0.1614
27357W        W70274  26.970  25.811  26.236  0.2148 -0.0072 -0.0204
27358W        W70275  25.805  28.372   0.171 -0.2290  0.1039  0.2816
27359W        W70276  27.192  26.386  29.848 -0.0071  0.2111  0.1826
27360W        W70277  26.875  28.390  30.183 -0.0147  0.1783  0.1072
27361W        W70278  26.739  26.225  28.109 -0.1479 -0.1403  0.0561
27362W        W70279  29.966  29.134  27.811 -0.1428 -0.1304  0.2468
27363W        W70280  26.492  27.098  27.583  0.1641 -0.0503  0.1803
27364W        W70281  29.323  30.780  30.316  0.0481  0.2639  0.3207
27365W        W70282  28.224  25.859  29.584 -0.2247 -0.2215 -0.1286
27366W        W70283  25.445  25.715  29.431 -0.1793 -0.0976 -0.1755
27367W        W70284  26.115  27.659  27.187 -0.2671 -0.1232  0.0298
27368W        W70285  25.644  27.367  31.375  0.0551 -0.0124 -0.1718
27369W        W70286  24.757  28.947  27.125  0.0197  0.0594 -0.1983
27370W        W70287  27.688  25.685  30.712 -0.1227 -0.1105 -0.6251
27371W        W70288  26.288  26.878  29.879  0.0755  0.3246  0.2326
27372W        W70289  25.261  24.465  31.922 -0.3998 -0.0349 -0.0061
27373W        W70290  28.577  26.662  30.567  0.0861  0.0806  0.0497
27374W        W70291  26.704  28.852  26.498 -0.1401 -0.3196 -0.0217
27375W        W70292  27.336  28.212  30.266 -0.0599 -0.1591  0.0793
27376W        W70293  25.764  27.654  26.763  0.1276  0.1087 -0.0867
27377W        W70294  24.928  26.318  30.920 -0.2190 -0.2191 -0.1294
27378W        W70295  23.927  28.125  29.766 -0.1058 -0.0992 -0.0824
27379W        W70296  25.267  27.798  28.950  0.1570  0.1842  0.0315
27380W        W70297  29.011  28.074  30.632  0.2628  0.1830  0.0177
27381W        W70298  28.388  28.586  28.544 -0.1691 -0.4487 -0.3233
27382W        W70299  25.323  23.510  31.240  0.1479  0.3560  0.1576
27383W        W70300  28.800  27.880  27.350  0.2095  0.1253 -0.2454
27384W        W70301  24.750  29.052  29.200  0.3593 -0.1080 -0.1560
27385W        W70302  25.627  27.552  29.302  0.0339 -0.2680  0.2025
27386W        W70303  25.435  24.316  29.517 -0.1137 -0.2758 -0.1805
27387W        W70304  26.084  26.197  29.183 -0.0379 -0.0492 -0.1708
27388W        W70305  27.512  27.366  27.956 -0.4601 -0.2349 -0.0959
27389W        W70306  26.088  28.133   0.718  0.3296 -0.0923  0.1873
27390W        W70307  24.406  28.516  28.060 -0.0950  0.0459  0.0754
27391W        W70308  27.372  24.214  29.019 -0.2128 -0.0004 -0.3649
27392W        W70309  26.319  27.827  28.149 -0.3254 -0.1833 -0.2347
27393W        W70310  25.828  27.966  26.110 -0.0208 -0.1976  0.0829
27394W        W70311  24.239  27.638  29.846 -0.1355 -0.0622  0.2906
27395W        W70312  28.507  25.307  30.889  0.2837 -0.1070  0.1745
27396W        W70313  26.691  29.420  27.798 -0.1659  0.4365 -0.3163
27397W        W70314  25.501  26.247   0.211 -0.1844  0.0078  0.1342
27398W        W70315  25.528  25.434  31.191 -0.0496  0.3880  0.1521
27399W        W70316  26.652  29.592  30.522 -0.0013  0.2323 -0.2290
27400W        W70317  28.301  27.430  31.743  0.3179 -0.1058  0.0293
27401W        W70318  25.656  27.369  27.728 -0.0011  0.3778 -0.3219
27402W        W70319  26.860  27.485  29.309 -0.2182  0.0507  0.0062
27403W        W70320  27.557  27.191  30.259 -0.4199  0.1468 -0.4392
27404W        W70321  22.260  24.926  30.495 -0.0394  0.0313 -0.1422
27405W        W70322  28.987  24.702   0.019 -0.0454 -0.0968 -0.0930
27406W        W70323  25.394  26.303  30.744  0.2705 -0.0374 -0.1059
27407W        W70324  25.415  28.262  29.767 -0.1170 -0.1409 -0.0125
27408W        W70325  26.335  28.129  28.822 -0.1618 -0.1585 -0.2291
27409W        W70326  26.146  27.864  26.512 -0.0324 -0.1308 -0.1234
27410W        W70327  26.211  27.539  28.607  0.0727  0.1179 -0.1951
27411W        W70328  28.617  27.972   1.515  0.0724  0.0683 -0.1208
27412W        W70329  28.091  26.689  31.687  0.2804 -0.1326  0.1306
27413W        W70330  25.684  26.582  30.417  0.0673  0.1996  0.1343
27414W        W70331  25.725  27.086  28.593  0.0651 -0.2055 -0.0553
27415W        W70332  27.081  25.573  30.523 -0.1450  0.0242  0.1003
27416W        W70333  29.043  27.971  29.166 -0.2675 -0.4282  0.0029
27417W        W70334  25.346  26.306  31.237  0.0386 -0.1836 -0.1576
27418W        W70335  25.777  28.253  31.617 -0.1041  0.1629 -0.3139
27419W        W70336  25.769  27.000  30.060  0.0190 -0.1229  0.1773
27420W        W70337  29.254  28.540  28.983 -0.2896  0.0555 -0.2283
27421W        W70338  27.944  25.886  30.299  0.1073  0.1660 -0.1818
27422W        W70339  26.183  28.778  29.882  0.1805 -0.1566 -0.0038
27423W        W70340  25.472  25.812  28.866 -0.2129  0.0913 -0.2030
27424W        W70341  26.416  26.601  28.404 -0.1560  0.1703 -0.1297
27425W        W70342  26.109  26.035  31.468  0.3523 -0.0893 -0.0690
27426W        W70343  26.190  28.338  30.623 -0.1452  0.1136  0.0387
27427W        W70344  28.123  28.139  27.843 -0.0499  0.0916 -0.1019
27428W        W70345  27.416  28.115  28.861  0.4224  0.2228 -0.2472
27429W        W70346  27.339  25.458  27.882  0.2288  0.2094  0.0111
27430W        W70347  27.974  27.409  26.665  0.3173 -0.0274  0.0644
27431W        W70348  26.954  25.017  28.268 -0.2887 -0.0247  0.0484
27432W        W70349  27.199  28.113  31.202  0.1483 -0.0775 -0.1566
27433W        W70350  26.729  29.922  28.213  0.3304  0.1995 -0.0014
27434W        W70351  28.212  24.666  31.199  0.0055  0.1959  0.2249
27435W        W70352  26.334  25.823  30.069  0.1442 -0.3200 -0.1634
27436W        W70353  28.027  28.572  29.101 -0.0293 -0.0678 -0.2114
27437W        W70354  26.482  27.418  30.126  0.0812 -0.2009  0.2169
27438W        W70355  28.118  29.483  31.032 -0.0762  0.0831  0.0935
27439W        W70356  25.466  28.742   1.384 -0.2188 -0.1588  0.2395
27440W        W70357  26.534  26.447  30.636  0.0966 -0.1570  0.0034
27441W        W70358  26.577  24.795  27.578 -0.0662 -0.1887 -0.0186
27442W        W70359  27.470  26.740  31.552 -0.2498 -0.2375 -0.0792
27443W        W70360  30.025  26.195  30.663  0.0245 -0.0862 -0.1945
27444W        W70361  27.418  27.519  29.070  0.1809 -0.2262 -0.2301
27445W        W70362  28.209  26.794  28.283  0.2824  0.0945  0.2412
27446W        W70363  25.495  28.948  30.957 -0.2754 -0.2036 -0.0321
27447W        W70364  28.801  27.213  28.593  0.0292 -0.1150 -0.2840
27448W        W70365  26.881  28.185  28.635  0.0053  0.1206 -0.0225
27449W        W70366  26.223  28.092  31.696 -0.0740 -0.0248 -0.4882
27450W        W70367  26.350  27.080  31.554 -0.2202 -0.0879 -0.1832
27451W        W70368  27.611  28.182  28.268  0.4380  0.0008 -0.2856
27452W        W70369  29.873  28.054  30.988  0.4495  0.2780 -0.0428
27453W        W70370  27.306  25.207  31.216 -0.0642  0.2359 -0.1936
27454W        W70371  26.333  26.149  31.875 -0.2394  0.0444  0.0592
27455W        W70372  26.440  27.381  31.190 -0.0965  0.1409 -0.0489
27456W        W70373  25.851  26.203   0.663 -0.3408  0.0027 -0.0415
27457W        W70374  26.865  29.003  31.437 -0.1802 -0.2239  0.0037
27458W        W70375  27.950  26.903  26.143 -0.1167 -0.3120  0.1535
27459W        W70376  26.451  28.992   0.623 -0.0306  0.1163  0.1191
27460W        W70377  27.608  27.883  27.421 -0.0345  0.1254 -0.1220
27461W        W70378  28.404  28.193  26.272 -0.2242 -0.0263  0.1939
27462W        W70379  25.541  27.250  29.687  0.1705 -0.4511 -0.3508
27463W        W70380  28.969  29.432  31.572  0.0126  0.1395 -0.0954
27464W        W70381  26.920  26.296  27.525  0.1246 -0.1801 -0.1333
27465W        W70382  28.044  26.508  30.745  0.1461  0.2647 -0.2228
27466W        W70383  26.609  26.765  28.874 -0.1475 -0.3520  0.1177
27467W        W70384  29.248  27.686  30.474  0.1551  0.3242  0.0405
27468W        W70385  26.127  26.406  30.186  0.0683  0.2634 -0.1251
27469W        W70386  24.678  24.945  28.628  0.0808 -0.0823  0.0669
27470W        W70387  28.124  29.920  30.085  0.2492  0.2910 -0.2816
27471W        W70388  24.312  27.019  28.550 -0.0348 -0.0171  0.1782
27472W        W70389  25.952  27.770  29.619  0.1837  0.1755 -0.1664
27473W        W70390  26.744  27.055  28.389  0.0742 -0.1854 -0.0082
27474W        W70391  27.511  26.401   0.535  0.0318  0.1304  0.0097
27475W        W70392  25.283  25.426  28.564 -0.5176  0.0618 -0.2440
27476W        W70393  28.443  26.609  29.998 -0.1280 -0.1588 -0.2903
27477W        W70394  26.171  28.554  29.036 -0.3809  0.1998 -0.1379
27478W        W70395  28.700  25.916  28.824  0.4322 -0.1003 -0.3007
27479W        W70396  26.597  28.359  29.615 -0.1780 -0.1951  0.0697
27480W        W70397  26.049  28.755  30.373 -0.1213  0.0620  0.1424
27481W        W70398  27.102  27.461  30.036  0.1815  0.7091 -0.2467
27482W        W70399  27.373  25.465  29.606 -0.1524 -0.0904  0.0939
27483W        W70400  27.460  26.543  31.010 -0.0415 -0.0233 -0.4194
27484W        W70401  27.659  26.302  30.546  0.2662  0.2502 -0.0228
27485W        W70402  29.499  27.676  29.048  0.1593  0.2230 -0.0081
27486W        W70403  27.775  28.546  30.279 -0.2141 -0.1566  0.2551
27487W        W70404  25.476  28.205  29.204 -0.2648 -0.0615  0.0420
27488W        W70405  27.630  29.491  30.687 -0.1271  0.0203 -0.0155
27489W        W70406  28.235  27.838  27.510 -0.1532  0.1501  0.1554
27490W        W70407  26.090  27.054  27.994 -0.0770  0.3165  0.1830
27491W        W70408  25.242  24.834   0.369 -0.4065  0.1925  0.3585
27492W        W70409  28.432  26.756  31.095 -0.0917  0.1697  0.2361
27493W        W70410  27.781  27.748  28.796 -0.3685 -0.1229 -0.0591
27494W        W70411  25.188  25.581  30.289 -0.0505 -0.4450 -0.1359
27495W        W70412  26.496  27.337  28.048 -0.1644 -0.2848 -0.1025
27496W        W70413  26.960  28.502   0.033  0.0464  0.3735 -0.0290
27497W        W70414  24.684  25.626  30.427  0.0460  0.0034 -0.1329
27498W        W70415  24.467  29.086  29.707 -0.2196  0.0213  0.0203
27499W        W70416  27.802  27.752  27.953 -0.1930  0.1022 -0.1086
27500W        W70417  27.761  27.567  29.396 -0.0432  0.1953 -0.0633
27501W        W70418  27.946  29.620  28.645 -0.0874  0.0062 -0.0590
27502W        W70419  28.068  26.380  28.094 -0.0225  0.0799  0.1183
27503W        W70420  25.835  27.451  28.206 -0.3374  0.1355  0.1722
27504W        W70421  24.869  31.337  28.365  0.2379 -0.0207 -0.0463
27505W        W70422  27.184  26.948  28.082 -0.0975 -0.2184  0.1647
27506W        W70423  26.248  28.694  28.105 -0.1635  0.1737 -0.1266
27507W        W70424  29.319  28.157  28.676  0.1757 -0.1773  0.0063
27508W        W70425  29.042  26.200  29.052  0.0242 -0.0993 -0.0257
27509W        W70426  27.888  27.162  29.088 -0.0244  0.2821 -0.0237
27510W        W70427  26.968  24.297  26.951  0.3081 -0.2350  0.0609
27511W        W70428  28.507  29.377  31.849 -0.1939  0.0365 -0.0693
27512W        W70429  27.014  25.970  29.128  0.4337 -0.2992  0.1501
27513W        W70430  26.529  24.911  28.509 -0.0348  0.2618  0.1730
27514W        W70431  28.172  26.681   0.863 -0.2648  0.0478  0.0576
27515W        W70432  27.047  27.675  31.309 -0.1551 -0.1168  0.1576
27516W        W70433  25.323  30.201  30.347  0.0406  0.2635 -0.1906
27517W        W70434  27.121  28.264  27.811  0.1236 -0.2283  0.0890
27518W        W70435  25.156  26.661  28.971 -0.3209  0.2038  0.1326
27519W        W70436  26.432  24.494  29.613  0.1287 -0.2702 -0.0494
27520W        W70437  27.955  26.162  29.317 -0.2742  0.3073 -0.1876
27521W        W70438  27.066  27.977  28.257  0.1662 -0.0909 -0.0897
27522W        W70439  27.544  25.715  31.316 -0.2036 -0.1871 -0.0189
27523W        W70440  26.879  26.922  30.129  0.2964 -0.0726 -0.1705
27524W        W70441  28.167  26.949  30.604 -0.1925 -0.0131 -0.0196
27525W        W70442  25.843  27.485  30.084  0.0943  0.2372  0.0000
27526W        W70443  26.045  27.170  27.113  0.1060  0.0841 -0.3104
27527W        W70444  29.598  28.216  25.987  0.3145  0.1844  0.0995
27528W        W70445  25.656  26.675  30.950  0.1437  0.2449 -0.1776
27529W        W70446  26.912  24.151  30.908 -0.1954 -0.2474 -0.0527
27530W        W70447  26.208  27.521  29.168 -0.2792 -0.1329 -0.0749
27531W        W70448  27.189  26.430  27.101 -0.0527  0.2705 -0.1399
27532W        W70449  27.703  27.995   1.614 -0.4242  0.2433  0.0627
27533W        W70450  26.227  27.526  31.680 -0.0104  0.3846 -0.0152
27534W        W70451  26.696  26.269  28.730  0.1556  0.3045 -0.1012
27535W        W70452  29.508  28.458  31.108 -0.1120  0.2479  0.2046
27536W        W70453  25.563  26.445  27.596  0.1073 -0.1434 -0.0313
27537W        W70454  28.631  27.917  29.801 -0.1568 -0.0743 -0.3830
27538W        W70455  24.934  27.086  30.254 -0.2238 -0.2394 -0.2941
27539W        W70456  28.009  26.210  28.838  0.1035 -0.0761 -0.0289
27540W        W70457  26.298  26.358  29.656 -0.0386  0.0367 -0.3264
27541W        W70458  26.772  26.292   0.543  0.3703  0.0271  0.4460
27542W        W70459  27.922  28.023  30.176  0.0711  0.1091 -0.0185
27543W        W70460  26.884  25.569  28.078 -0.0269 -0.4116  0.1765
27544W        W70461  29.894  28.591  28.061 -0.1443  0.0370 -0.1734
27545W        W70462  29.272  24.777  31.261 -0.1135  0.0223  0.1757
27546W        W70463  26.636  29.826  26.729 -0.0525  0.4364  0.4018
27547W        W70464  27.338  27.341  29.622  0.1713  0.0696 -0.0308
27548W        W70465  28.192  28.759  30.576  0.2705 -0.2785 -0.0757
27549W        W70466  24.886  27.581  31.396 -0.0200 -0.2121  0.3651
27550W        W70467  27.240  29.306  28.661 -0.1805 -0.0535 -0.1158
27551W        W70468  30.162  29.130  28.939  0.0003 -0.0072 -0.2380
27552W        W70469  26.798  25.070  29.455  0.1473  0.1029 -0.2557
27553W        W70470  26.911  29.351  30.979 -0.1551 -0.4182  0.2825
27554W        W70471  26.372  28.757  30.879 -0.1181  0.0976 -0.1772
27555W        W70472  28.321  26.192  30.386 -0.1780 -0.1391  0.0909
27556W        W70473  27.577  25.317  31.611  0.0529 -0.3254 -0.1810
27557W        W70474  25.735  28.503  27.023  0.2651 -0.1212 -0.0086
27558W        W70475  25.766  23.969  29.319 -0.0237  0.2250 -0.1086
27559W        W70476  29.631  27.830  30.036 -0.0519 -0.1791 -0.1334
27560W        W70477  27.831  27.757  31.929  0.0493 -0.0338 -0.0814
27561W        W70478  26.585  27.276  28.907  0.1195  0.0378  0.1066
27562W        W70479  24.962  28.725  31.803 -0.2602 -0.0460 -0.1033
27563W        W70480  27.170  26.837  29.686  0.1789 -0.0451  0.3158
27564W        W70481  28.741  31.164  28.727  0.2013 -0.3597 -0.0942
27565W        W70482  28.215  28.715  27.954 -0.2511  0.0814  0.0956
27566W        W70483  27.295  27.263  28.466  0.0678 -0.0587 -0.1027
27567W        W70484  26.924  29.746  30.041  0.2806  0.0455  0.2907
27568W        W70485  25.014  25.130  30.442  0.0384 -0.1969  0.5478
27569W        W70486  27.740  25.914  29.767 -0.4327 -0.1642  0.3438
27570W        W70487  27.854  24.232  29.235  0.1684  0.3198 -0.0634
27571W        W70488  27.706  28.123  31.203  0.0333  0.2151 -0.0917
27572W        W70489  23.912  26.579  28.697 -0.3383  0.1148  0.1938
27573W        W70490  25.209  27.719  26.987  0.0617 -0.3022  0.0549
27574W        W70491  27.505  27.698  28.381 -0.1737  0.0629 -0.1767
27575W        W70492  26.457  25.388  29.796  0.0328 -0.1873  0.2251
27576W        W70493  25.478  26.767   0.074  0.0847 -0.1572 -0.1243
27577W        W70494  24.398  27.826  29.260 -0.1580  0.0666 -0.2810
27578W        W70495  27.574  26.132  27.021  0.4701 -0.3452 -0.0572
27579W        W70496  28.166  29.579  27.561 -0.1733  0.1110 -0.0225
27580W        W70497  24.694  26.226  30.430 -0.2811  0.2004 -0.0090
27581W        W70498  23.720  24.405  30.417 -0.0426 -0.0095  0.0942
27582W        W70499  28.315  27.652  28.044  0.0333 -0.0462  0.0489
27583W        W70500  27.323  28.598  28.144  0.1382  0.2701 -0.1356
27584W        W70501  26.852  24.562  29.353  0.0406  0.1579  0.0671
27585W        W70502  29.763  29.633  29.958 -0.0844  0.2425  0.0723
27586W        W70503  24.808  28.573  26.856  0.0774 -0.0486 -0.0005
27587W        W70504  25.973  25.573  31.486  0.3608 -0.1653 -0.1709
27588W        W70505  26.624  27.352   0.106 -0.3009 -0.1541  0.0521
27589W        W70506  25.359  27.121  26.242  0.5846 -0.4078 -0.1797
27590W        W70507  26.096  25.991  30.538 -0.3558 -0.1901  0.1619
27591W        W70508  27.698  26.824  30.597 -0.2376 -0.1417  0.5136
27592W        W70509  27.100  29.041  29.061  0.1185 -0.0637 -0.1976
27593W        W70510  26.669  26.718  29.687  0.0136 -0.0276 -0.4988
27594W        W70511  26.597  28.372  31.559 -0.1029  0.0130 -0.2180
27595W        W70512  26.428  25.625  30.715 -0.0328  0.2708  0.0081
27596W        W70513  26.623  27.590  27.467  0.4135  0.1546 -0.3016
27597W        W70514  27.649  28.266   0.622  0.0018  0.0573 -0.1013
27598W        W70515  28.355  29.260  27.962 -0.1208  0.0072  0.0134
27599W        W70516  29.353  26.420  28.703  0.2231 -0.0054  0.1244
27600W        W70517  26.246  25.154  31.150  0.0919  0.3225  0.0141
27601W        W70518  25.993  25.691  30.978 -0.2534 -0.0641  0.0481
27602W        W70519  28.243  28.710  31.109 -0.0418  0.1548 -0.1513
27603W        W70520  29.960  29.393  29.597 -0.1857  0.1751  0.1853
27604W        W70521  26.388  25.860  29.611  0.1657 -0.4828  0.0577
27605W        W70522  27.895  27.217  28.579  0.1177  0.0213 -0.1857
27606W        W70523  27.147  27.223  30.561  0.0517 -0.2903 -0.2417
27607W        W70524  25.728  27.250   0.321 -0.3554  0.0005  0.1388
27608W        W70525  25.933  26.633  28.414  0.3255 -0.3461 -0.2566
27609W        W70526  24.774  27.355  31.855 -0.2354 -0.1052  0.0386
27610W        W70527  26.711  28.175  31.006  0.1176 -0.1121 -0.2425
27611W        W70528  26.623  26.280  29.271 -0.3465  0.1635 -0.3964
27612W        W70529  25.378  25.372  29.093 -0.1369  0.0278 -0.1832
27613W        W70530  28.100  27.192  27.183  0.1957 -0.0901 -0.4873
27614W        W70531  27.582  28.527  30.813 -0.0233 -0.0161 -0.1410
27615W        W70532  28.413  28.086  30.249  0.1856  0.1545 -0.0853
27616W        W70533  26.990  29.788  31.941  0.0394  0.0838  0.1322
27617W        W70534  29.126  28.042  28.185 -0.0617  0.2399 -0.0089
27618W        W70535  24.861  24.998  29.936 -0.0614 -0.2887 -0.1822
27619W        W70536  26.130  28.227  29.646 -0.2634 -0.0439 -0.1243
27620W        W70537  26.635  26.475  30.126  0.1856  0.1497 -0.1794
27621W        W70538  26.084  27.798  30.524  0.2100 -0.1077  0.0551
27622W        W70539  25.303  27.715  27.622 -0.1019  0.0688 -0.0483
27623W        W70540  25.999  24.613  28.759 -0.0524  0.0166  0.1486
27624W        W70541  25.953  27.545  30.948  0.1523  0.1425  0.0285
27625W        W70542  27.703  28.690  31.923 -0.3122  0.0001  0.0222
27626W        W70543  29.411  26.785   0.271  0.0730 -0.3731 -0.1246
27627W        W70544  28.935  25.557  31.138  0.5168 -0.3770 -0.1673
27628W        W70545  25.400  29.749   0.855 -0.0929  0.0271 -0.1291
27629W        W70546  27.494  30.403  31.130 -0.1060  0.0666  0.0378
27630W        W70547  26.513  28.984   0.041 -0.0620 -0.0954 -0.0676
27631W        W70548  27.380  30.970   0.522  0.2735 -0.0096 -0.2208
27632W        W70549  28.086  26.196  29.929 -0.2296  0.1897 -0.2376
27633W        W70550  29.426  25.705   1.066  0.1439  0.1490  0.2598
27634W        W70551  28.704  26.152   0.080 -0.0793  0.1078 -0.0115
27635W        W70552  29.081  29.297  31.109  0.1346  0.3853  0.4522
27636W        W70553  27.859  27.334  30.827  0.0303  0.2896  0.0194
27637W        W70554  25.639  24.383  31.438  0.0453 -0.1007  0.4584
27638W        W70555  26.525  27.839  31.402  0.0642 -0.0707 -0.0312
27639W        W70556  24.646  25.246   1.532  0.1457  0.2529 -0.0109
27640W        W70557  30.309  26.301  31.789  0.0909  0.3488  0.1080
27641W        W70558  26.980  27.961  31.712  0.2737  0.0008 -0.0757
27642W        W70559  26.502  27.606   0.528 -0.2887 -0.1342  0.0819
27643W        W70560  26.423  28.488   0.255 -0.0789 -0.0816  0.0538
27644W        W70561  22.721  25.137  31.917  0.1328  0.2085  0.3799
27645W        W70562  26.224  25.795   0.320 -0.1157  0.0965 -0.0975
27646W        W70563  25.992  26.283   0.214  0.1197  0.2423 -0.4960
27647W        W70564  24.764  29.363   0.360  0.0728 -0.2175  0.3416
27648W        W70565  28.055  27.118   0.085  0.0635  0.0046 -0.0457
27649W        W70566  29.711  25.873   0.094  0.0492  0.0910  0.2427
27650W        W70567  25.221  24.790  31.557  0.2672 -0.1002  0.0219
27651W        W70568  25.853  25.227  30.845  0.1454 -0.1614  0.2178
27652W        W70569  26.496  26.887   1.524 -0.2402 -0.3266 -0.1663
27653W        W70570  26.167  28.578  31.751 -0.1297  0.3212  0.0291
27654W        W70571  26.955  26.724   0.734  0.1205 -0.2436  0.1830
27655W        W70572  26.772  27.387  31.580 -0.3651  0.0279 -0.1320
27656W        W70573  26.685  29.412   0.372  0.1734 -0.2263 -0.0806
27657W        W70574  27.402  28.358  31.577 -0.1873  0.0085 -0.0586
27658W        W70575  26.991  27.553   0.553  0.1001 -0.0918 -0.2543
27659W        W70576  29.402  25.029  30.858  0.0071  0.2161 -0.1123
27660W        W70577  26.456  25.601  31.205 -0.0078  0.1496 -0.1462
27661W        W70578  26.471  27.792   1.196 -0.0743  0.0783  0.1245
27662W        W70579  27.517  28.051  30.712  0.0414 -0.2181 -0.2824
27663W        W70580  28.073  29.921  31.922 -0.2690  0.1552 -0.3042
27664W        W70581  29.417  25.032  29.901 -0.3231 -0.2181  0.3774
27665W        W70582  28.161  29.700   0.795 -0.1506  0.0897 -0.2793
27666W        W70583  28.244  25.607  30.565  0.0417 -0.0613 -0.1933
27667W        W70584  28.589  29.567  31.163  0.0145  0.2934 -0.0488
27668W        W70585  28.363  27.049   1.267  0.0069 -0.1357  0.0013
27669W        W70586  27.656  29.270   0.360 -0.3636  0.0176 -0.1949
27670W        W70587  27.633  24.402  31.570  0.0184 -0.1350  0.0400
27671W        W70588  25.932  26.986  30.583 -0.1325 -0.0935  0.0094
27672W        W70589  28.190  25.726   0.928 -0.2733 -0.2472 -0.4350
27673W        W70590  28.350  28.482   0.262  0.0229  0.0293 -0.2360
27674W        W70591  28.310  27.738   2.112  0.0431 -0.3870 -0.0751
27675W        W70592  27.095  29.694  30.492  0.1164  0.0679 -0.0432
27676W        W70593  28.641  26.787   0.974  0.1744 -0.0304  0.1812
27677W        W70594  30.235  25.412  30.650  0.2797  0.0009 -0.0066
27678W        W70595  25.568  25.867  31.478 -0.0607 -0.0398  0.1786
27679W        W70596  28.525  28.167  30.760 -0.0482 -0.2108  0.1564
27680W        W70597  28.564  26.225   2.100 -0.3120 -0.2616 -0.2984
27681W        W70598  26.995  26.655  31.609  0.1127  0.0728  0.2647
27682W        W70599  29.276  28.883  29.782 -0.0325 -0.1037  0.1910
27683W        W70600  29.071  29.662  29.534 -0.0046 -0.1535  0.0760
27684W        W70601  28.902  28.342  29.708 -0.0880  0.1349 -0.1414
27685W        W70602  24.756  28.148   1.119 -0.0228  0.3579  0.1255
27686W        W70603  25.236  26.369   0.660  0.1014  0.0388  0.0594
27687W        W70604  27.148  26.530   0.213 -0.0183  0.1876 -0.1213
27688W        W70605  26.864  26.254  31.875 -0.0186 -0.1051 -0.0701
27689W        W70606  26.371  25.645  31.769 -0.4638  0.1022  0.0801
27690W        W70607  28.956  31.237  29.815 -0.0814 -0.0167 -0.4206
27691W        W70608  29.263  27.559   0.193  0.1912  0.3970 -0.4024
27692W        W70609  27.725  26.035   1.800 -0.1215  0.0288  0.0762
27693W        W70610  26.784  33.345  18.516 -0.3295 -0.1409  0.2361
27694W        W70611  25.188  31.581  16.701 -0.1880  0.0201 -0.0785
27695W        W70612  29.046  27.929  17.608  0.1840  0.2679 -0.2878
27696W        W70613  26.558  30.862  18.811 -0.3634 -0.2352 -0.2519
27697W        W70614  24.356  29.251  17.851  0.0422 -0.0080  0.1351
27698W        W70615  27.013  31.373  17.411  0.1432  0.0128 -0.0241
27699W        W70616  25.894  27.023  20.376  0.1664 -0.2258 -0.1405
27700W        W70617  28.960  32.047  20.174  0.3149  0.1385 -0.2685
27701W        W70618  28.704  34.172  19.523  0.2690 -0.0628  0.1378
27702W        W70619  28.703  31.953  17.854 -0.3300  0.1592 -0.1072
27703W        W70620  27.578  31.394  19.652  0.0275  0.3090 -0.1192
27704W        W70621  26.560  31.635  19.968 -0.1786  0.0348 -0.1772
27705W        W70622  27.566  28.827  17.857  0.3886  0.0198  0.0438
27706W        W70623  25.481  29.085  18.399  0.2169 -0.4105 -0.1235
27707W        W70624  28.864  29.304  17.664 -0.3183 -0.1042  0.0510
27708W        W70625  24.270  31.754  17.412 -0.0664 -0.2375 -0.1397
27709W        W70626  25.402  29.334  19.366 -0.1003 -0.3254 -0.0313
27710W        W70627  28.254  30.408  18.322 -0.1972 -0.1578 -0.1721
27711W        W70628  27.036  33.143  16.647 -0.1848 -0.0818  0.3145
27712W        W70629  27.584  29.705  19.130  0.0865  0.0469  0.0223
27713W        W70630  27.887  31.406  19.271 -0.1667  0.1665  0.2819
27714W        W70631  26.279  32.727  18.116 -0.4310 -0.1337  0.0774
27715W        W70632  26.299  30.460  17.962  0.2127  0.0550 -0.2242
27716W        W70633  25.590  30.201  16.772  0.2608  0.1256  0.0035
27717W        W70634  27.654  30.127  17.769  0.0806  0.0452 -0.1855
27718W        W70635  26.853  31.079  17.782  0.1260 -0.4144  0.1646
27719W        W70636  27.815  32.389  20.124  0.2142 -0.0413  0.1644
27720W        W70637  26.693  30.855  18.198 -0.0495  0.1781 -0.2490
27721W        W70638  26.932  32.398  18.914 -0.0926  0.2815  0.3326
27722W        W70639  27.661  29.245  19.863  0.0585 -0.2114 -0.3850
27723W        W70640  26.383  29.531  18.028  0.2094 -0.1207  0.1531
27724W        W70641  25.269  31.033  17.251 -0.0704 -0.0571 -0.1972
27725W        W70642  25.450  32.345  17.829  0.2268 -0.3076  0.1799
27726W        W70643  27.707  30.028  18.344 -0.1058 -0.1481 -0.4084
27727W        W70644  29.954  32.825  21.925  0.1473 -0.0563  0.1708
27728W        W70645  28.173  34.029  19.487 -0.1722 -0.1351 -0.2724
27729W        W70646  26.098  31.791  17.572  0.1528 -0.1857 -0.0984
27730W        W70647  26.175  31.527  18.564 -0.0399  0.1086  0.2784
27731W        W70648  26.133  32.868  19.629  0.1840 -0.0345 -0.0980
27732W        W70649  27.056  30.858  19.013  0.1338  0.0325  0.0630
27733W        W70650  27.115  30.305  17.681  0.0162  0.3417 -0.4143
27734W        W70651  27.592  30.819  16.996 -0.1192 -0.2553  0.2606
27735W        W70652  27.180  30.674  18.024 -0.0318  0.0739  0.0189
27736W        W70653  25.416  33.796  19.899  0.2621 -0.0212  0.0076
27737W        W70654  26.506  32.516  19.767  0.0129  0.2705  0.1140
27738W        W70655  26.276  31.296  19.031 -0.0565 -0.3927  0.1363
27739W        W70656  27.617  33.149  16.936  0.1410 -0.1703 -0.1909
27740W        W70657  26.840  30.150  17.319  0.1391  0.1808 -0.1165
27741W        W70658  26.671  31.003  17.308 -0.0359 -0.0933 -0.2520
27742W        W70659  29.560  30.603  17.822  0.0174 -0.1138 -0.0203
27743W        W70660  25.925  27.280  16.713 -0.0104  0.2031  0.3697
27744W        W70661  26.714  33.000  19.595  0.0118  0.1081 -0.0593
27745W        W70662  25.970  29.384  18.594  0.1009 -0.2854 -0.1984
27746W        W70663  31.367  33.088  21.429  0.0628  0.0193  0.0362
27747W        W70664  26.387  30.486  18.474 -0.2935 -0.2622  0.2828
27748W        W70665  28.824  31.438  20.173  0.1275  0.1652 -0.2115
27749W        W70666  25.497  32.645  18.434 -0.2312 -0.0693  0.0938
27750W        W70667  25.604  30.037  18.806 -0.1366 -0.1938 -0.0494
27751W        W70668  27.840  34.383  19.217 -0.1481  0.0109 -0.2763
27752W        W70669  27.899  31.429  17.915  0.1066  0.2512 -0.1112
27753W        W70670  25.931  32.179  17.920  0.1425 -0.3334 -0.1269
27754W        W70671  23.811  28.450  18.193 -0.0517 -0.1256 -0.0801
27755W        W70672  23.571  30.700  21.193  0.2058  0.3919 -0.1049
27756W        W70673  25.242  33.833  19.316  0.2872  0.1116  0.4135
27757W        W70674  26.778  30.124  18.636 -0.2320  0.0017 -0.2984
27758W        W70675  29.720  31.334  22.110  0.1924  0.1564 -0.3043
27759W        W70676  25.544  28.878  22.074  0.0781 -0.0064 -0.0397
27760W        W70677  28.072  30.409  17.798  0.0743  0.0050 -0.2346
27761W        W70678  26.276  31.042  18.474  0.2431 -0.4457 -0.0617
27762W        W70679  25.932  32.055  18.674 -0.0858 -0.1579 -0.2156
27763W        W70680  28.704  33.011  17.574 -0.0322  0.1268  0.0057
27764W        W70681  27.019  30.363  19.059  0.1849  0.1953  0.0663
27765W        W70682  29.279  29.241  19.967  0.1438  0.0326 -0.0357
27766W        W70683  24.766  32.862  18.277  0.3184  0.3237 -0.1086
27767W        W70684  27.100  31.039  16.996 -0.0452  0.0047  0.1008
27768W        W70685  29.474  30.494  21.010 -0.0290 -0.1901 -0.2144
27769W        W70686  27.540  32.877  17.400  0.1254 -0.1494 -0.0363
27770W        W70687  25.970  33.073  17.619 -0.1500  0.3839 -0.3706
27771W        W70688  26.425  31.769  19.110 -0.1798 -0.3676  0.0206
27772W        W70689  28.317  32.340  21.442 -0.2090  0.5248  0.3359
27773W        W70690  24.359  32.151  17.043 -0.1165  0.2885 -0.0051
27774W        W70691  25.757  30.970  17.149  0.5219  0.0134  0.1563
27775W        W70692  25.742  32.663  17.449 -0.1180  0.0301  0.4062
27776W        W70693  24.062  28.495  18.648  0.2259 -0.0818  0.0984
27777W        W70694  25.830  29.840  18.409  0.0142 -0.0833  0.0787
27778W        W70695  29.534  29.176  17.050 -0.2699  0.1414  0.0273
27779W        W70696  25.172  28.693  18.131  0.0792  0.2749  0.2285
27780W        W70697  29.910  28.610  18.296  0.1332  0.0455 -0.1458
27781W        W70698  24.132  32.025  16.545 -0.1068 -0.0251  0.0114
27782W        W70699  28.567   0.167  18.025 -0.0583  0.1439  0.2186
27783W        W70700  30.299  30.132  17.755  0.0559  0.1728  0.2706
27784W        W70701  26.759  32.009  16.999 -0.2334 -0.1675  0.2010
27785W        W70702  24.981  32.221  20.509 -0.2460 -0.1658 -0.3236
27786W        W70703  26.018  31.239  18.059 -0.3908 -0.1844  0.1089
27787W        W70704  26.282  31.159  21.515  0.0699  0.0379  0.0548
27788W        W70705  24.969  29.486  18.613  0.1571  0.1283 -0.2132
27789W        W70706  28.539  29.883  18.283 -0.0098  0.1012  0.1907
27790W        W70707  27.990  27.889  17.850  0.0615 -0.0797  0.2218
27791W        W70708  27.775  29.121  18.555  0.1909 -0.0584  0.2337
27792W        W70709  26.170  30.299  17.502  0.0842  0.2620  0.3960
27793W        W70710  24.348  30.481  16.833 -0.1753  0.0307  0.0208
27794W        W70711  29.017  31.046  19.452  0.0391 -0.3150 -0.1103
27795W        W70712  25.811  34.621  18.041 -0.1976 -0.2589  0.0321
27796W        W70713  27.864  33.153  19.654 -0.0305 -0.1296 -0.1562
27797W        W70714  27.388  34.165  18.979 -0.0712 -0.0144 -0.0919
27798W        W70715  26.779  31.288  19.105  0.2066  0.0372  0.1282
27799W        W70716  26.805  29.741  18.077  0.2634  0.3231  0.3423
27800W        W70717  25.734  33.011  17.065 -0.2346 -0.1475  0.2480
27801W        W70718  25.753  33.173  19.388  0.0894  0.0561  0.0981
27802W        W70719  26.353  29.545  16.982 -0.3616  0.1469 -0.1471
27803W        W70720  29.026  34.413  18.762  0.2325  0.1165  0.0125
27804W        W70721  26.588  31.446  18.242 -0.1905 -0.0760 -0.1943
27805W        W70722  24.844  33.070  17.777 -0.0147  0.1882 -0.0047
27806W        W70723  27.968  30.960  17.615  0.0388  0.0985  0.0185
27807W        W70724  26.420  33.001  20.074 -0.4487 -0.1112 -0.2321
27808W        W70725  28.621  30.388  18.640  0.3285 -0.1671 -0.1805
27809W        W70726  27.411  28.806  19.320  0.0169 -0.2507  0.4224
27810W        W70727  28.688  33.158  18.564 -0.0886 -0.1296  0.0064
27811W        W70728  24.876  30.346  18.354 -0.2756 -0.2030  0.0014
27812W        W70729  24.205  30.386  17.595 -0.1617  0.2001 -0.2463
27813W        W70730  27.067  31.846  18.982  0.1094  0.1096 -0.0794
27814W        W70731  28.051  31.828  18.192 -0.1395 -0.1040 -0.1001
27815W        W70732  27.463  30.566  21.801  0.0034 -0.1106  0.3673
27816W        W70733  26.837  31.628  17.829 -0.1967 -0.1209  0.1887
27817W        W70734  26.216  32.004  19.972  0.2883  0.4742  0.0424
27818W        W70735  26.791  33.650  19.446 -0.1487  0.1061 -0.1175
27819W        W70736  26.090  29.138  17.774  0.0849 -0.0219 -0.0687
27820W        W70737  32.024  30.221  16.650  0.5839  0.0530 -0.2893
27821W        W70738  28.072  32.619  19.745  0.2509 -0.0553  0.0919
27822W        W70739  26.351  31.841  17.977 -0.2541  0.0392  0.0397
27823W        W70740  28.437  29.221  17.211  0.2267 -0.1502 -0.0499
27824W        W70741  28.483  29.804  16.485  0.2783 -0.1631 -0.2956
27825W        W70742  25.621  33.374  19.948 -0.1703 -0.1332 -0.0447
27826W        W70743  27.979  32.768  17.691  0.0971  0.0250  0.0596
27827W        W70744  27.175  29.771  18.419 -0.3492 -0.3848  0.1066
27828W        W70745  26.851  29.660  16.659  0.0670  0.2815  0.1289
27829W        W70746  30.083  31.887  18.002  0.1905 -0.1516  0.0125
27830W        W70747  24.989  31.810  18.987 -0.1605  0.1623 -0.0966
27831W        W70748  27.904  31.651  20.276 -0.0839  0.1190  0.1471
27832W        W70749  29.673  32.213  19.431 -0.1391 -0.3786 -0.1932
27833W        W70750  28.085  29.919  19.264  0.1185  0.1888  0.0931
27834W        W70751  26.279  29.599  17.531 -0.1874 -0.0833 -0.0857
27835W        W70752  26.376  29.596  19.592 -0.0115  0.0594  0.0821
27836W        W70753  25.733  33.386  16.685  0.4310  0.5185 -0.0418
27837W        W70754  28.882  29.711  19.226  0.1214 -0.0370 -0.1835
27838W        W70755  28.192  30.474  18.995 -0.1776 -0.1490  0.0935
27839W        W70756  25.229  28.162  18.993 -0.2281 -0.1511 -0.2775
27840W        W70757  29.243  31.169  20.411  0.0622 -0.1642  0.1589
27841W        W70758  26.772  30.262  18.078 -0.0026  0.2313  0.4315
27842W        W70759  28.311  31.689  19.347 -0.2400 -0.0048  0.3579
27843W        W70760  26.702  30.563  17.680 -0.0410 -0.0024 -0.1241
27844W        W70761  28.834  29.339  18.880 -0.1291  0.0522  0.0283
27845W        W70762  25.498  31.969  18.939 -0.3916 -0.1006  0.1660
27846W        W70763  24.274  33.699  19.921  0.1584 -0.0689  0.1965
27847W        W70764  28.494  32.727  19.449 -0.1236  0.1550  0.5269
27848W        W70765  27.059  28.750  18.229 -0.1687 -0.0169  0.1092
27849W        W70766  26.832  31.639  20.823  0.1499 -0.2016 -0.3964
27850W        W70767  24.729  29.738  18.237  0.0345  0.3146  0.2672
27851W        W70768  27.644  33.801  17.888 -0.4429 -0.2985  0.3868
27852W        W70769  29.429  32.376  18.140 -0.1070 -0.4874  0.0261
27853W        W70770  26.081  30.673  18.857  0.1245 -0.1140 -0.1591
27854W        W70771  28.048  32.202  18.679  0.4298  0.1935 -0.0730
27855W        W70772  24.997  31.364  18.136  0.1143  0.1387  0.1191
27856W        W70773  27.420  32.054  18.664 -0.1530 -0.1930 -0.0178
27857W        W70774  27.554  31.741  18.114 -0.2369  0.2193 -0.1819
27858W        W70775  28.466  31.150  19.283  0.0268 -0.0995  0.0470
27859W        W70776  25.104  30.958  18.901 -0.0248  0.0618 -0.1174
27860W        W70777  27.612  30.587  17.527  0.2206  0.1200 -0.4083
27861W        W70778  27.530  30.959  17.852  0.0717  0.1440 -0.0394
27862W        W70779  29.798  30.135  18.025 -0.1199 -0.0135 -0.0314
27863W        W70780  28.578  31.774  19.782 -0.1857  0.0920 -0.1781
27864W        W70781  25.582  30.342  19.789 -0.4446  0.0397 -0.2052
27865W        W70782  27.249  30.230  18.165 -0.4824  0.2505 -0.1167
27866W        W70783  23.958  32.259  17.309  0.0303 -0.1211 -0.3773
27867W        W70784  26.256  28.753  17.241  0.1618 -0.1567 -0.0813
27868W        W70785  30.434  30.884  18.242 -0.2352  0.0837  0.0977
27869W        W70786  31.110  32.506  18.997 -0.1198 -0.0081  0.0738
27870W        W70787  29.183  32.007  19.629 -0.0356 -0.2563  0.1323
27871W        W70788  24.856  30.629  16.881  0.6893  0.1761 -0.0932
27872W        W70789  29.478  32.036  20.474 -0.1161  0.0524  0.0155
27873W        W70790  26.355  29.137  18.805  0.0602  0.1536  0.0474
27874W        W70791  25.042  32.240  17.162  0.2858 -0.2202  0.1263
27875W        W70792  28.225  31.336  18.852 -0.2971 -0.0214  0.0362
27876W        W70793  27.860  31.551  17.434  0.3011 -0.1005 -0.1030
27877W        W70794  23.309  31.469  17.108  0.0996 -0.0763  0.0528
27878W        W70795  25.859  31.197  19.325  0.2626  0.2509  0.0466
27879W        W70796  30.955  30.127  19.466  0.0546  0.1601 -0.0290
27880W        W70797  27.700  28.090  18.376 -0.1236 -0.1229  0.0572
27881W        W70798  25.544  30.686  18.502 -0.1890 -0.2089 -0.0188
27882W        W70799  31.214  30.914  17.452 -0.2826  0.1446 -0.0299
27883W        W70800  30.917  32.171  19.838 -0.1944 -0.1526 -0.0716
27884W        W70801  29.944  31.010  18.193 -0.1657  0.1507  0.0594
27885W        W70802  28.364  32.663  18.843 -0.0189  0.2119 -0.0577
27886W        W70803  24.387  27.691  18.060 -0.1018 -0.0515 -0.1980
27887W        W70804  30.418  33.060  18.831  0.0407 -0.2122 -0.0296
27888W        W70805  28.101  29.891  17.874  0.3147 -0.1385 -0.1397
27889W        W70806  25.830  31.275  17.547 -0.1392  0.0325  0.1051
27890W        W70807  25.073  30.984  17.688 -0.1511 -0.1443 -0.0737
27891W        W70808  25.911  33.664  17.910 -0.1844  0.1230  0.2569
27892W        W70809  26.349  30.016  18.229 -0.0951 -0.0836 -0.2247
27893W        W70810  26.219  32.231  17.189 -0.2825 -0.0657 -0.1736
27894W        W70811  28.484  33.289  17.962  0.0697 -0.0116 -0.0480
27895W        W70812  25.642  32.971  18.975 -0.4939 -0.0494 -0.1121
27896W        W70813  28.228  29.606  17.477 -0.0814 -0.1764 -0.0238
27897W        W70814  27.409  33.009  17.854  0.1923 -0.1798  0.1822
27898W        W70815  24.755  31.570  17.604  0.1848  0.1029  0.1010
27899W        W70816  27.813  30.558  18.576 -0.0236  0.2671 -0.0647
27900W        W70817  28.399  32.183  18.171  0.1617 -0.2155 -0.0104
27901W        W70818  28.698  31.190  20.707  0.1073 -0.0748  0.1236
27902W        W70819  26.637  28.526  19.037 -0.3621  0.1911 -0.1707
27903W        W70820  29.438  30.932  18.226 -0.2271  0.0012  0.0752
27904W        W70821  26.626  32.129  20.652 -0.1445  0.1482  0.1662
27905W        W70822  25.944  32.386  19.734 -0.1343  0.3803 -0.0248
27906W        W70823  23.477  30.408  20.030  0.0869  0.1872  0.0616
27907W        W70824  29.668  31.534  19.716  0.2470 -0.0508 -0.1003
27908W        W70825  26.354  28.212  17.463  0.0620 -0.4604  0.1873
27909W        W70826  26.759  31.624  18.694 -0.1042  0.0657 -0.1782
27910W        W70827  29.562  31.927  17.986  0.5622 -0.5137 -0.3846
27911W        W70828  27.868  30.362  17.129  0.3863  0.0744 -0.1738
27912W        W70829  28.432  29.480  17.943 -0.1303 -0.2296  0.1351
27913W        W70830  25.999  29.871  17.862 -0.2315 -0.1879  0.0292
27914W        W70831  28.627  31.212  18.498 -0.1779 -0.0858  0.0957
27915W        W70832  26.761  29.410  17.710  0.0504 -0.0816  0.0586
27916W        W70833  25.806  30.362  17.830 -0.1192 -0.1038  0.0337
27917W        W70834  26.714  31.116  20.848  0.1631  0.0629 -0.3191
27918W        W70835  27.637  33.007  19.225 -0.0144 -0.2050  0.2177
27919W        W70836  27.153  29.834  17.562  0.2613  0.3166  0.0229
27920W        W70837  27.427  29.701  18.011  0.0524  0.1034  0.1488
27921W        W70838  29.595  30.220  18.840 -0.2949 -0.1326 -0.0906
27922W        W70839  27.052  32.366  20.324 -0.1008 -0.0497  0.0810
27923W        W70840  25.820  31.020  20.293  0.0976  0.0150  0.2998
27924W        W70841  28.642   0.343  19.470 -0.1916 -0.2167  0.1803
27925W        W70842  29.655  29.618  17.096  0.1378 -0.1590  0.0738
27926W        W70843  30.360  30.982  19.302  0.1091  0.0954 -0.0272
27927W        W70844  29.894  30.447  17.544  0.1400  0.1230 -0.0674
27928W        W70845  28.314  29.180  18.342  0.2373  0.1119 -0.2443
27929W        W70846  25.481  30.691  17.732  0.2750 -0.4557 -0.0495
27930W        W70847  26.936  32.018  19.843  0.1079 -0.1438  0.2120
27931W        W70848  25.249  29.624  17.542 -0.1324  0.2536 -0.0586
27932W        W70849  28.155  31.330  18.355  0.3027  0.1903 -0.4147
27933W        W70850  28.321  34.156  17.894  0.0276  0.3222 -0.1570
27934W        W70851  27.112  31.668  18.371 -0.2381  0.0489 -0.3120
27935W        W70852  29.075  28.751  17.808 -0.0417 -0.1280 -0.1282
27936W        W70853  25.274  30.073  20.395 -0.1287 -0.0831 -0.2163
27937W        W70854  25.888  31.740  18.115  0.0662 -0.2215  0.2788
27938W        W70855  25.536  29.946  17.976  0.0144 -0.2586  0.1521
27939W        W70856  25.357  30.121  17.522  0.0022  0.0940  0.1168
27940W        W70857  27.762  30.114  18.890 -0.0330  0.0007  0.1195
27941W        W70858  30.319  30.209  20.701  0.1549  0.0157  0.2979
27942W        W70859  27.287  28.127  17.101 -0.0070  0.2265  0.3103
27943W        W70860  29.562  29.822  20.518 -0.1219 -0.1544  0.0567
27944W        W70861  27.080  31.880  17.462 -0.1493  0.0596  0.0677
27945W        W70862  23.861  29.189  16.368 -0.0529  0.0367  0.1554
27946W        W70863  27.074  34.325  18.607  0.0130  0.0634 -0.0865
27947W        W70864  24.747  30.559  19.857 -0.4084  0.1363 -0.0793
27948W        W70865  28.484  33.379  17.420 -0.0286 -0.1969 -0.1886
27949W        W70866  26.919  27.436  18.898  0.2627  0.3313 -0.0721
27950W        W70867  28.608  30.770  18.235 -0.1943 -0.4130 -0.1602
27951W        W70868  27.693  29.653  17.607 -0.0032 -0.1539  0.0974
27952W        W70869  29.054  32.112  20.717 -0.0030 -0.1014  0.0064
27953W        W70870  29.079  31.516  19.738  0.0407  0.3336  0.1800
27954W        W70871  25.502  31.898  20.428  0.0568  0.1333  0.1639
27955W        W70872  27.702  33.099  18.716 -0.0125  0.0157  0.2045
27956W        W70873  28.509  31.222  17.966 -0.0053 -0.1125  0.1604
27957W        W70874  26.386  31.405  17.754 -0.1233 -0.2647  0.3255
27958W        W70875  25.595  30.584  20.569 -0.1581  0.1422 -0.1093
27959W        W70876  28.010  30.023  19.807 -0.2727 -0.2185 -0.0384
27960W        W70877  26.294  30.908  17.765 -0.2234 -0.0274  0.2116
27961W        W70878  27.399  28.438  17.453 -0.2963 -0.0395  0.1305
27962W        W70879  26.184  30.807  17.259 -0.1159 -0.0500  0.2031
27963W        W70880  25.000  31.399  19.270  0.1368  0.1392  0.3012
27964W        W70881  25.731  29.326  18.066  0.3328 -0.2208 -0.1641
27965W        W70882  24.912  33.759  18.888  0.0338 -0.0938 -0.0942
27966W        W70883  25.528  31.331  18.028  0.0454  0.0271 -0.0239
27967W        W70884  28.342  31.804  18.633 -0.1670  0.2359  0.1602
27968W        W70885  26.964  32.136  18.400 -0.2393 -0.1675  0.0061
27969W        W70886  25.570  30.503  17.245 -0.0728 -0.0574  0.1872
27970W        W70887  25.419  33.738  18.059 -0.0321 -0.1351  0.0235
27971W        W70888  26.409  32.580  16.827 -0.2377  0.0841  0.0051
27972W        W70889  27.469  34.660  18.362  0.2554  0.3484  0.2092
27973W        W70890  26.643  32.530  17.280  0.1699  0.0965  0.3306
27974W        W70891  30.698  33.229  19.873  0.2774 -0.1064 -0.0547
27975W        W70892  26.885  26.774  18.289 -0.3401  0.0139  0.1127
27976W        W70893  29.473  30.677  18.771  0.0553  0.2447  0.2190
27977W        W70894  27.358  30.770  18.582  0.1987  0.0426 -0.1334
27978W        W70895  29.070  32.000  18.224  0.0312 -0.0093 -0.0188
27979W        W70896  25.341  29.854  19.571 -0.0383 -0.2018 -0.0954
27980W        W70897  25.276  29.151  17.912  0.1599  0.1344  0.1343
27981W        W70898  25.181  30.977  20.423 -0.1192  0.1503 -0.1946
27982W        W70899  30.528  29.629  19.269 -0.1609  0.1557  0.1960
27983W        W70900  27.327  33.927  19.496  0.3064 -0.1916  0.0125
27984W        W70901  30.828  32.946  19.118 -0.0364 -0.1774 -0.1964
27985W        W70902  25.743  29.553  17.625 -0.2354  0.3051 -0.1870
27986W        W70903  26.111  32.193  19.237 -0.1029  0.2355  0.0586
27987W        W70904  28.482  29.708  18.745 -0.0985 -0.0950  0.1443
27988W        W70905  26.629  32.230  16.519 -0.0339 -0.1060 -0.1610
27989W        W70906  29.680  31.029  19.469 -0.1564 -0.0150 -0.1376
27990W        W70907  27.127  33.246  17.144  0.0681 -0.1544  0.4159
27991W        W70908  27.299  32.620  18.770  0.0406  0.0343 -0.0476
27992W        W70909  27.001  32.620  19.785 -0.3481  0.1798 -0.3052
27993W        W70910  24.115  30.860  17.794 -0.1352 -0.2690  0.0573
27994W        W70911  30.865  31.755  18.509  0.0207  0.0425  0.0642
27995W        W70912  26.710  30.465  19.450  0.2180  0.0722  0.2036
27996W        W70913  30.445  30.359  20.071  0.1140 -0.1415  0.2313
27997W        W70914  23.831  29.337  19.537  0.0994  0.0600  0.2055
27998W        W70915  28.135  29.609  18.431 -0.1195 -0.0340  0.0992
27999W        W70916  25.976  30.184  19.178 -0.3125 -0.1366 -0.1128
28000W        W70917  25.957  30.569  20.051 -0.4549 -0.2827 -0.1083
28001W        W70918  26.343  29.123  18.271  0.1234  0.2653  0.0454
28002W        W70919  30.380  32.278  19.869  0.0174 -0.1861  0.2142
28003W        W70920  27.460  31.499  17.700  0.2265 -0.2174  0.0383
28004W        W70921  29.167  32.109  17.725  0.2466  0.0826  0.1478
28005W        W70922  25.021  28.939  18.547 -0.0854 -0.4197  0.0100
28006W        W70923  28.414  28.077  17.682  0.0118 -0.0680 -0.1535
28007W        W70924  25.029  30.773  18.188 -0.1624 -0.0239 -0.0116
28008W        W70925  27.689  29.606  18.616  0.0628  0.0164 -0.1587
28009W        W70926  30.760  32.618  20.651  0.2375 -0.0565 -0.1857
28010W        W70927  24.442  29.502  18.673  0.0473  0.0487 -0.0715
28011W        W70928  26.237  31.357  17.253  0.1023  0.1178 -0.3653
28012W        W70929  30.121  30.579  18.524 -0.1915  0.3237  0.2917
28013W        W70930  26.417  33.059  18.532  0.2699  0.0205  0.2213
28014W        W70931  29.656  30.540  19.637 -0.0709  0.1880  0.0576
28015W        W70932  28.559  34.080  18.611 -0.0147  0.0334 -0.0350
28016W        W70933  25.157  30.505  20.109  0.1366  0.0058  0.0092
28017W        W70934  28.577  33.211  19.427  0.2344 -0.2578 -0.1059
28018W        W70935  29.828  32.054  18.410 -0.2359 -0.4664  0.0087
28019W        W70936  28.462  28.518  17.834 -0.1294 -0.0769  0.2556
28020W        W70937  26.685  29.550  18.987 -0.1792 -0.3510  0.1934
28021W        W70938  25.451  32.366  15.942 -0.0151 -0.0067  0.1562
28022W        W70939  30.778  31.351  20.018  0.3099 -0.1600 -0.0758
28023W        W70940  27.949  30.771  20.362  0.0582  0.0817 -0.0851
28024W        W70941  26.894  32.296  17.648 -0.1092  0.2287 -0.1603
28025W        W70942  29.225  29.471  20.440  0.2340  0.1244 -0.1385
28026W        W70943  24.445  33.392  19.609 -0.1825  0.0432  0.3715
28027W        W70944  27.564  32.078  20.465  0.1152  0.0843  0.0149
28028W        W70945  25.262  31.454  17.660  0.2327 -0.0532 -0.0398
28029W        W70946  27.499  31.203  17.325 -0.1780 -0.0621 -0.1109
28030W        W70947  28.359  31.336  17.449 -0.4100  0.0595 -0.1711
28031W        W70948  26.418  33.477  17.719  0.1696  0.0049 -0.0231
28032W        W70949  29.305  32.308  19.085  0.1933 -0.2010 -0.3594
28033W        W70950  27.126  31.128  18.238  0.1237  0.1568  0.1327
28034W        W70951  28.725  32.125  18.644  0.1899 -0.3926 -0.0028
28035W        W70952  31.002  30.409  19.017  0.1786 -0.2050 -0.2538
28036W        W70953  28.913  28.622  18.235  0.0602 -0.0829  0.3668
28037W        W70954  26.441  28.998  19.324  0.0003  0.2300 -0.1543
28038W        W70955  25.322  32.984  19.873  0.1243  0.2623 -0.0276
28039W        W70956  26.042  30.289  16.980 -0.2093 -0.1950 -0.1377
28040W        W70957  24.682  30.664  17.783 -0.1913 -0.0171 -0.1950
28041W        W70958  26.181  32.896  19.009 -0.1923  0.0287 -0.2862
28042W        W70959  26.539  29.985  17.734 -0.1460 -0.2977  0.0292
28043W        W70960  26.011  28.746  19.134 -0.2435  0.0255 -0.3616
28044W        W70961  27.176  33.225  18.747 -0.0189  0.0161 -0.1348
28045W        W70962  24.721  29.195  18.243 -0.0585  0.0745  0.0178
28046W        W70963  29.717  31.399  18.785  0.1704  0.2835  0.1014
28047W        W70964  26.997  29.027  19.112  0.1953 -0.1570 -0.0642
28048W        W70965  26.511  30.386  18.965 -0.0678 -0.0809  0.1119
28049W        W70966  27.268  32.325  17.288  0.1436 -0.4060 -0.1203
28050W        W70967  28.869  32.439  18.060  0.0729  0.2243  0.1153
28051W        W70968  26.476  29.137  17.387 -0.0344 -0.1126  0.0348
28052W        W70969  30.999  32.407  22.025 -0.0468  0.0887  0.2460
28053W        W70970  25.815  32.745  16.111  0.1048 -0.0471 -0.0380
28054W        W70971  27.812  31.658  18.574  0.4668  0.4331 -0.1850
28055W        W70972  26.693  30.097  19.773 -0.3298  0.0092 -0.0230
28056W        W70973  25.839  30.628  16.676 -0.2884 -0.0672  0.3157
28057W        W70974  29.248  30.646  19.331 -0.0725 -0.0117 -0.1266
28058W        W70975  25.500   0.226  18.302  0.1501  0.0880 -0.0283
28059W        W70976  28.917  32.844  18.989  0.2389  0.1336  0.4079
28060W        W70977  26.486  31.970  18.462 -0.0479  0.0622 -0.0729
28061W        W70978  25.007  32.625  19.696  0.3599 -0.0055 -0.0692
28062W        W70979  25.596  29.554  19.920 -0.2150  0.0503  0.1529
28063W        W70980  28.286  31.711  17.705  0.0131 -0.0535 -0.2545
28064W        W70981  24.173  32.584  20.379 -0.2017  0.1908 -0.2167
28065W        W70982  28.319  32.236  17.593 -0.2031  0.0510  0.4041
28066W        W70983  27.937  29.311  17.992  0.0021 -0.1186 -0.2056
28067W        W70984  29.097  32.726  17.753  0.4859 -0.0504 -0.1684
28068W        W70985  25.819  31.235  21.334  0.1790 -0.1109 -0.1101
28069W        W70986  25.515  31.606  20.963  0.0127  0.3802  0.3251
28070W        W70987  28.146  33.006  19.227  0.0879 -0.1728  0.0621
28071W        W70988  28.650  28.089  18.134  0.0177 -0.4558 -0.1315
28072W        W70989  28.964  31.158  18.079  0.3399  0.0794 -0.1598
28073W        W70990  26.268  31.803  16.982 -0.0631 -0.2720 -0.0376
28074W        W70991  23.926  31.669  18.416  0.4658 -0.0700  0.1550
28075W        W70992  28.742  30.188  17.355 -0.0457  0.0650 -0.2388
28076W        W70993  24.949  29.965  18.590 -0.1561  0.2580 -0.1812
28077W        W70994  25.856  31.144  18.768 -0.1716 -0.0571  0.0415
28078W        W70995  28.520  32.883  21.907 -0.1983  0.0069 -0.1168
28079W        W70996  26.812  32.792  17.908 -0.0727 -0.0364 -0.1785
28080W        W70997  28.842  31.802  19.153  0.0686 -0.2150 -0.3076
28081W        W70998  27.401  33.500  17.588  0.1153  0.2335 -0.3688
28082W        W70999  31.707  32.609  19.586 -0.0649  0.1979  0.0430
28083W        W71000  27.110  30.523  19.922 -0.4386  0.1342 -0.3088
28084W        W71001  29.032  30.741  18.532  0.0881 -0.1210  0.0308
28085W        W71002  24.793  28.018  19.859 -0.1487 -0.0488  0.2194
28086W        W71003  26.732  33.552  16.749  0.0077  0.2419 -0.1734
28087W        W71004  25.559  28.853  17.616 -0.1805  0.2841  0.1812
28088W        W71005  28.799  31.312  18.968  0.1021  0.2570  0.2685
28089W        W71006  26.568  32.317  18.126 -0.0523 -0.0886 -0.1576
28090W        W71007  27.427  29.440  17.240 -0.0364  0.1663 -0.0068
28091W        W71008  30.350  31.052  20.263  0.2620 -0.1170 -0.3462
28092W        W71009  27.492  31.055  19.160  0.1014  0.0751  0.0601
28093W        W71010  27.362  31.850  21.719 -0.2328  0.1612  0.0449
28094W        W71011  26.497  32.079  19.577 -0.1318 -0.1154 -0.3567
28095W        W71012  28.232  30.846  18.580  0.0663  0.0679 -0.3531
28096W        W71013  29.652  30.233  20.146 -0.0892 -0.0409 -0.1094
28097W        W71014  24.603  28.534  21.974 -0.1693  0.0407  0.2113
28098W        W71015  28.501  33.304  22.207 -0.1884  0.0207  0.0558
28099W        W71016  25.594  28.059  20.602 -0.1403  0.0238 -0.0907
28100W        W71017  29.757  32.160  20.929 -0.0714  0.0638 -0.0604
28101W        W71018  28.733  33.427  24.234  0.1026  0.2843  0.0340
28102W        W71019  27.296  31.683  21.073 -0.2423  0.0032 -0.2625
28103W        W71020  27.657  28.507  23.810  0.3669 -0.1183 -0.0569
28104W        W71021  27.596  29.937  24.039 -0.1441 -0.1420 -0.1520
28105W        W71022  25.374  30.831  21.956 -0.0456  0.4327  0.0272
28106W        W71023  25.963  30.360  23.349 -0.0879  0.0094 -0.0453
28107W        W71024  30.530  31.179  22.369 -0.1262 -0.0398  0.1452
28108W        W71025  26.013  32.095  20.449 -0.1657 -0.2206  0.0770
28109W        W71026  25.899  28.426  22.749  0.3550 -0.1716  0.2929
28110W        W71027  26.311  28.750  22.475  0.0298 -0.4461  0.3338
28111W        W71028  27.931  32.915  20.074  0.0083 -0.0468  0.0077
28112W        W71029  26.596  28.882  24.356  0.0077 -0.1914 -0.1559
28113W        W71030  28.872  31.073  21.561 -0.1020 -0.1349 -0.4949
28114W        W71031  28.341  31.579  20.202  0.1672 -0.1098  0.0352
28115W        W71032  23.737  31.683  20.004  0.1503  0.0017  0.2321
28116W        W71033  24.355  28.884  22.424  0.0265  0.3293 -0.2151
28117W        W71034  24.333  29.366  22.355 -0.1943  0.2877  0.0745
28118W        W71035  27.811  28.589  22.839 -0.1176  0.0419 -0.0712
28119W        W71036  28.139  32.003  20.546  0.3644 -0.3017 -0.0333
28120W        W71037  26.145  32.392  22.587 -0.1689 -0.2277  0.1373
28121W        W71038  29.518  32.579  20.049 -0.3080  0.0485  0.0583
28122W        W71039  27.831  29.652  22.054  0.1074 -0.4020 -0.1778
28123W        W71040  25.746  30.277  21.722  0.1338 -0.2084 -0.0190
28124W        W71041  23.464  32.591  21.327  0.1101 -0.1546 -0.3648
28125W        W71042  25.114  31.879  20.854 -0.3102 -0.1639  0.2660
28126W        W71043  29.110  29.242  21.735 -0.1750  0.4602 -0.0569
28127W        W71044  27.013  33.201  21.555  0.2505 -0.1389  0.2666
28128W        W71045  27.503  32.766  24.075  0.1228  0.2541 -0.1782
28129W        W71046  24.751  32.488  20.176 -0.0636 -0.2070 -0.0302
28130W        W71047  28.262  33.702  22.006 -0.3809 -0.1491  0.1076
28131W        W71048  26.405  31.613  24.075 -0.0065  0.0706  0.1573
28132W        W71049  26.222  30.782  23.077  0.1198 -0.0385  0.3469
28133W        W71050  28.220  29.944  21.873 -0.2606 -0.0143  0.0520
28134W        W71051  28.339  32.155  19.586 -0.1993  0.2449  0.0881
28135W        W71052  27.610  30.910  22.743 -0.0170  0.1210 -0.0616
28136W        W71053  24.519  31.972  22.387  0.0600 -0.0765  0.2385
28137W        W71054  28.022  33.072  23.912 -0.0266  0.2960 -0.1453
28138W        W71055  27.549  29.433  23.170  0.0042  0.0366  0.3855
28139W        W71056  29.144  33.415  19.544 -0.0502 -0.0131 -0.0759
28140W        W71057  29.569  30.894  21.859 -0.0569  0.0495  0.1697
28141W        W71058  28.161  30.837  19.525 -0.0997  0.1517  0.0486
28142W        W71059  27.411  31.114  21.903 -0.2013  0.1709 -0.2630
28143W        W71060  26.761  30.981  21.359  0.0251  0.0856 -0.0362
28144W        W71061  25.891  30.784  22.062  0.2391  0.2628 -0.0022
28145W        W71062  26.485  29.673  21.477 -0.2622  0.0009  0.4773
28146W        W71063  27.599  31.557  22.076 -0.1639  0.1402 -0.1005
28147W        W71064  27.641  29.541  22.587  0.1410 -0.1772 -0.0534
28148W        W71065  28.150  30.120  21.121 -0.0342 -0.0046  0.1532
28149W        W71066  25.839  32.945  20.039 -0.0001  0.1983 -0.1469
28150W        W71067  24.131  29.758  21.280  0.1996 -0.0193  0.0138
28151W        W71068  33.191  30.702  19.755  0.1900 -0.2614 -0.0222
28152W        W71069  28.522  31.080  22.727  0.0329 -0.2505  0.1077
28153W        W71070  27.372  33.051  19.683  0.1832  0.0115 -0.2209
28154W        W71071  26.634  31.464  21.223  0.0289  0.0059 -0.2907
28155W        W71072  25.629  31.747  24.732 -0.0437  0.1284 -0.2263
28156W        W71073  25.127  30.324  22.591  0.1733 -0.0299  0.0643
28157W        W71074  29.442  30.686  20.263 -0.2189  0.2280  0.1299
28158W        W71075  30.228  32.257  23.400  0.1762  0.0414 -0.1885
28159W        W71076  23.657  33.486  23.133  0.0792  0.0765 -0.0366
28160W        W71077  28.794  30.120  21.805  0.1315 -0.3691 -0.0301
28161W        W71078  28.019  31.956  22.711 -0.5239  0.0460  0.0914
28162W        W71079  28.170  32.840  23.514 -0.0003 -0.1949 -0.6964
28163W        W71080  26.649  33.568  18.919  0.0345  0.2187  0.2253
28164W        W71081  27.462  29.678  21.268 -0.2059  0.1233  0.0842
28165W        W71082  28.269  28.990  23.833 -0.0746 -0.2149 -0.0660
28166W        W71083  25.869  31.682  22.248  0.1206 -0.3620  0.1387
28167W        W71084  27.517  31.979  22.917 -0.2763 -0.0139  0.0614
28168W        W71085  28.121  32.461  21.895 -0.0977  0.0384 -0.1203
28169W        W71086  27.409  29.949  22.980 -0.1902  0.2531  0.2778
28170W        W71087  26.595  32.518  23.881  0.0551 -0.0306  0.3747
28171W        W71088  24.888  30.136  22.216  0.2457  0.1170  0.1602
28172W        W71089  28.189  31.444  22.908  0.3259  0.1108 -0.2273
28173W        W71090  27.090  33.174  19.254  0.1024 -0.3548 -0.1082
28174W        W71091  24.227  31.297  22.969  0.0474  0.0549 -0.0391
28175W        W71092  27.092  33.080  21.043  0.0908 -0.2608 -0.3850
28176W        W71093  24.725  29.898  23.112 -0.0257  0.0942 -0.0995
28177W        W71094  25.482  30.699  22.838  0.1085  0.1600 -0.4158
28178W        W71095  30.881  29.507  21.258 -0.3019 -0.1817 -0.1029
28179W        W71096  24.988  31.829  22.429 -0.1188  0.0696  0.2695
28180W        W71097  29.951  28.569  22.770 -0.0728  0.4629  0.2916
28181W        W71098  25.309  30.364  21.521 -0.0037 -0.2731  0.2515
28182W        W71099  28.966  33.456  20.387 -0.0935 -0.0468  0.0356
28183W        W71100  28.614  30.983  21.116 -0.0175 -0.0486 -0.2889
28184W        W71101  29.069  30.002  22.239  0.2759  0.1592  0.0125
28185W        W71102  25.423  28.060  21.956  0.1231 -0.0920  0.0342
28186W        W71103  24.117  30.847  20.430 -0.2609  0.1095  0.1743
28187W        W71104  26.256  29.346  24.278 -0.2990 -0.4662  0.2850
28188W        W71105  25.783  28.480  19.849 -0.0318  0.0718  0.0290
28189W        W71106  29.492  29.601  21.393 -0.3002 -0.0372  0.2394
28190W        W71107  26.203  31.517  21.883  0.2122  0.0905  0.2524
28191W        W71108  27.493  28.990  22.607 -0.0974 -0.2617 -0.1223
28192W        W71109  26.037  30.686  20.717  0.0178  0.0631  0.2586
28193W        W71110  26.242  29.272  21.795 -0.3460  0.0607  0.0206
28194W        W71111  28.307  28.372  22.763  0.2475  0.2668  0.1498
28195W        W71112  26.903  32.160  19.358 -0.0000  0.2711 -0.2947
28196W        W71113  27.107  34.137  22.074  0.0451 -0.4055  0.2184
28197W        W71114  27.080  32.671  19.295  0.2999 -0.2028  0.0254
28198W        W71115  24.714  30.582  23.493 -0.3585  0.2932  0.1910
28199W        W71116  25.497  29.531  20.789 -0.2808 -0.0702  0.2411
28200W        W71117  27.342  32.514  20.941  0.2435 -0.0939 -0.0291
28201W        W71118  25.699  31.202  21.840  0.1029 -0.0099 -0.0604
28202W        W71119  26.389  30.828  19.446 -0.3782  0.2939 -0.0990
28203W        W71120  28.928  31.348  22.452 -0.0416 -0.1049 -0.1703
28204W        W71121  29.097  32.963  21.282 -0.1081 -0.1909 -0.1992
28205W        W71122  26.390  30.863  22.060  0.2816  0.0196  0.4296
28206W        W71123  28.300  28.352  23.773  0.0934 -0.0461  0.1024
28207W        W71124  30.166  29.424  22.892  0.0028 -0.0231  0.1010
28208W        W71125  25.308  32.489  22.114 -0.1499  0.1744  0.0329
28209W        W71126  25.288  31.438  20.194 -0.2503  0.4276  0.1119
28210W        W71127  28.994  33.318  23.349  0.0949 -0.2410 -0.3646
28211W        W71128  24.753  31.901  19.964  0.2685 -0.1262 -0.1186
28212W        W71129  24.518  31.033  22.153 -0.5442  0.1353 -0.4051
28213W        W71130  28.158  32.016  20.038  0.0107  0.1952  0.0833
28214W        W71131  29.250  30.167  19.221  0.0433  0.1959  0.0831
28215W        W71132  25.449  32.593  21.574 -0.3212  0.1429 -0.0136
28216W        W71133  29.031  29.917  20.616  0.0154  0.1299 -0.1872
28217W        W71134  27.138  30.250  22.059  0.3151 -0.2845 -0.1613
28218W        W71135  24.610  32.168  22.829 -0.0366  0.1219 -0.0151
28219W        W71136  27.307  30.394  20.743  0.0937 -0.1372  0.0998
28220W        W71137  31.057  29.616  21.719  0.0456  0.1488 -0.2599
28221W        W71138  27.643  32.516  22.079 -0.0956  0.1721 -0.0662
28222W        W71139  29.236  31.638  20.262  0.2419 -0.3834  0.1020
28223W        W71140  27.155  29.534  19.846  0.0342  0.1050 -0.2398
28224W        W71141  28.014  29.383  18.895 -0.2451  0.2399  0.2157
28225W        W71142  23.358  32.854  23.503  0.1383  0.1452 -0.1037
28226W        W71143  27.525  32.549  19.545 -0.3111  0.0618 -0.0545
28227W        W71144  26.326  31.872  21.571  0.0606  0.1118  0.0247
28228W        W71145  28.785  30.594  19.344 -0.0883  0.2103 -0.0194
28229W        W71146  27.778  33.893  19.184 -0.1067 -0.0834  0.4697
28230W        W71147  25.094  31.919  22.873 -0.0636 -0.0733 -0.3715
28231W        W71148  28.880  32.818  23.744  0.2614  0.3372  0.0090
28232W        W71149  29.080  34.026  20.351  0.2844  0.0441 -0.0611
28233W        W71150  26.767  30.119  23.527  0.0191  0.2929  0.2571
28234W        W71151  29.177  29.964  20.066  0.0393  0.1595 -0.1805
28235W        W71152  27.903  30.558  19.883  0.2384 -0.0006 -0.2144
28236W        W71153  25.106  33.395  20.086 -0.1795  0.2167  0.1466
28237W        W71154  28.730  29.102  22.130  0.3546  0.1946 -0.1810
28238W        W71155  27.655  30.412  21.361  0.1859 -0.5298 -0.1211
28239W        W71156  27.893  28.023  23.760 -0.1594  0.4581 -0.0975
28240W        W71157  28.748  29.118  24.798  0.0778 -0.1132  0.1645
28241W        W71158  27.977  31.133  19.901 -0.1840 -0.2283  0.0152
28242W        W71159  27.775  29.448  21.567 -0.1031 -0.2040 -0.2190
28243W        W71160  27.063  29.996  22.586 -0.0726  0.0537 -0.0780
28244W        W71161  27.814  29.691  23.583  0.0307 -0.1959  0.0528
28245W        W71162  25.510  28.434  22.331 -0.0700  0.2702  0.0671
28246W        W71163  25.182  33.371  21.536  0.3551  0.0326  0.2580
28247W        W71164  26.763  31.940  24.074 -0.1160  0.0334  0.0688
28248W        W71165  28.576  30.653  20.683 -0.1338  0.1354 -0.0816
28249W        W71166  28.981  29.214  25.292  0.1718 -0.0755 -0.1213
28250W        W71167  28.318  30.343  19.454  0.1223 -0.2061  0.2125
28251W        W71168  27.352  32.736  20.124  0.0561  0.3886  0.0344
28252W        W71169  26.270  32.511  20.767 -0.2436  0.0275  0.0664
28253W        W71170  27.317  29.604  22.100 -0.1438  0.2007 -0.0743
28254W        W71171  27.100  30.814  22.600  0.0450  0.0661 -0.0104
28255W        W71172  26.112  31.018  19.821  0.0009 -0.2529 -0.2596
28256W        W71173  27.435  30.098  25.700  0.1724 -0.1596  0.5882
28257W        W71174  25.068  32.868  21.803  0.0633  0.1246 -0.2212
28258W        W71175  29.517  29.805  23.909  0.1548  0.1022 -0.1439
28259W        W71176  25.756  31.813  21.591 -0.1136 -0.0990  0.1755
28260W        W71177  26.964  30.533  18.450 -0.1378 -0.3644 -0.2122
28261W        W71178  25.952  32.277  20.979  0.1271 -0.1346  0.2161
28262W        W71179  29.088  28.747  20.019 -0.1802  0.0372 -0.5431
28263W        W71180  29.730  32.549  21.632  0.0080  0.0616  0.0049
28264W        W71181  26.775  30.470  22.345 -0.1782  0.0169 -0.3807
28265W        W71182  26.883  31.842  20.307  0.3193  0.0770  0.1652
28266W        W71183  24.944  30.102  21.277  0.0938 -0.0575 -0.4236
28267W        W71184  27.951  31.508  21.596 -0.0226 -0.0246 -0.0523
28268W        W71185  27.332  30.944  20.656  0.0662 -0.0420  0.2186
28269W        W71186  27.272  31.215  23.577 -0.1310 -0.2042  0.3517
28270W        W71187  25.833  31.908  23.566  0.2520  0.0084  0.1480
28271W        W71188  26.894  30.886  21.943  0.2835 -0.2320 -0.0132
28272W        W71189  27.910  31.100  21.958  0.1038 -0.0117 -0.1562
28273W        W71190  25.547  30.504  22.315 -0.2125  0.0266  0.0307
28274W        W71191  26.271  34.433  22.570  0.3078 -0.2814  0.0012
28275W        W71192  26.576  32.137  22.671  0.0306  0.1284  0.2418
28276W        W71193  29.042  32.003  21.728  0.3767 -0.2888  0.0755
28277W        W71194  27.840  32.299  20.812  0.3631 -0.0256 -0.0676
28278W        W71195  27.291  32.027  22.197  0.2432 -0.0704  0.2206
28279W        W71196  29.486  30.125  22.023 -0.1469  0.1783  0.1565
28280W        W71197  26.452  30.416  23.259 -0.0554  0.4008 -0.1387
28281W        W71198  27.235  30.991  19.762 -0.0487  0.1607  0.0625
28282W        W71199  26.630  30.522  21.642 -0.0930 -0.2337  0.1732
28283W        W71200  28.503  30.302  23.658 -0.0069 -0.1493  0.0265
28284W        W71201  25.769  29.970  22.141  0.4191  0.1165  0.0659
28285W        W71202  27.869  30.477  23.879  0.0151 -0.3086 -0.1351
28286W        W71203  27.615  31.275  20.941 -0.2354 -0.1929  0.0607
28287W        W71204  31.056  32.164  21.182 -0.0738 -0.1373 -0.1987
28288W        W71205  26.264  29.577  22.993  0.2110  0.1837  0.1993
28289W        W71206  26.256  32.882  21.607 -0.2508 -0.1922  0.1502
28290W        W71207  25.546  32.219  23.056 -0.2168  0.1014  0.1864
28291W        W71208  26.817  32.072  21.196 -0.0961  0.2851  0.2432
28292W        W71209  25.788  31.488  22.713 -0.0745  0.0582  0.3068
28293W        W71210  26.897  30.120  23.029 -0.1057  0.1184 -0.1036
28294W        W71211  26.370  31.390  19.511 -0.0965 -0.2783  0.2250
28295W        W71212  26.408  30.768  22.522 -0.1638 -0.1069  0.0356
28296W        W71213  26.758  29.495  20.408 -0.0753  0.2928  0.0965
28297W        W71214  27.380  32.819  21.385 -0.1674 -0.3249  0.0577
28298W        W71215  26.901  31.250  20.343  0.1343  0.1523 -0.0106
28299W        W71216  29.329  28.102  23.834  0.1455  0.1240  0.1460
28300W        W71217  27.692  31.014  18.321  0.2475 -0.0516  0.0409
28301W        W71218  31.291  29.784  22.757  0.0030 -0.1219 -0.0691
28302W        W71219  24.082  28.444  21.846  0.0802 -0.3011 -0.0999
28303W        W71220  27.585  33.782  20.486 -0.3514  0.4078  0.0885
28304W        W71221  25.169  29.174  22.901  0.1390  0.0753 -0.1930
28305W        W71222  27.048  33.587  24.153 -0.2976  0.1613  0.0879
28306W        W71223  24.987  30.456  23.053 -0.0146  0.3103 -0.0404
28307W        W71224  27.335  30.081  19.292 -0.1459 -0.0105 -0.1112
28308W        W71225  25.590  29.273  21.189 -0.2732 -0.0727  0.3680
28309W        W71226  27.387  29.520  24.344  0.4985 -0.3771 -0.0738
28310W        W71227  27.393  31.261  22.415  0.2476  0.0437 -0.2697
28311W        W71228  28.036  31.597  19.740 -0.3455  0.0271 -0.0864
28312W        W71229  27.758  28.716  19.888 -0.0714  0.3151 -0.0547
28313W        W71230  26.613  29.640  22.661  0.0673  0.0539 -0.0279
28314W        W71231  27.895  31.933  19.137 -0.1130 -0.1468 -0.1498
28315W        W71232  29.219  31.167  21.032 -0.2326 -0.3287  0.0305
28316W        W71233  26.680  32.693  20.406  0.3027  0.0480  0.2853
28317W        W71234  23.553  28.404  22.219 -0.1957 -0.0697  0.0815
28318W        W71235  30.670  31.231  20.705  0.1306  0.0057  0.3033
28319W        W71236  28.853  32.643  20.948 -0.0966  0.1146 -0.1476
28320W        W71237  28.064  31.473  21.127  0.1080  0.2709  0.0513
28321W        W71238  28.254  30.415  22.092 -0.0056 -0.2357  0.2454
28322W        W71239  26.475  31.622  22.673  0.0491  0.2550  0.1881
28323W        W71240  25.191  31.402  22.684  0.1163  0.1124 -0.1124
28324W        W71241  28.873  32.326  23.778  0.1861  0.2273  0.0254
28325W        W71242  28.560  32.280  20.720  0.1248 -0.0659  0.1643
28326W        W71243  27.752  28.099  22.870  0.1178 -0.0098 -0.0961
28327W        W71244  30.055  30.123  21.568  0.1119  0.0639  0.0003
28328W        W71245  27.348  31.822  19.484 -0.0229  0.0919 -0.1684
28329W        W71246  24.902  30.568  21.117  0.0323 -0.2351 -0.0369
28330W        W71247  29.480  31.847  22.880  0.1840 -0.3434  0.1903
28331W        W71248  25.704  28.377  18.894  0.3618 -0.1787  0.1106
28332W        W71249  27.115  29.815  23.378 -0.0170 -0.2608 -0.0572
28333W        W71250  28.033  33.541  18.827  0.1948  0.0113 -0.0007
28334W        W71251  28.230  32.818  21.522 -0.0942  0.3694  0.1655
28335W        W71252  28.595  31.913  21.489  0.0012  0.1218  0.0008
28336W        W71253  24.690  29.137  21.184  0.1830  0.0870 -0.0690
28337W        W71254  25.112  30.887  22.497 -0.0554  0.0965  0.0278
28338W        W71255  26.025  29.403  22.583 -0.0204  0.0823 -0.0573
28339W        W71256  27.702  30.708  20.938  0.3763 -0.1847  0.0028
28340W        W71257  28.108  31.955  21.643 -0.0588 -0.0728 -0.1532
28341W        W71258  28.556  30.893  24.371  0.0417 -0.0552 -0.0347
28342W        W71259  27.181  31.355  19.326  0.1217  0.1904  0.2173
28343W        W71260  27.665  29.622  24.825  0.0792 -0.5311  0.0408
28344W        W71261  27.237  32.936  20.568 -0.2560  0.2032 -0.2190
28345W        W71262  28.276  29.402  20.753 -0.1654  0.2517  0.2257
28346W        W71263  27.108  32.301  22.625 -0.2568  0.1224 -0.2540
28347W        W71264  24.674  30.140  22.687  0.0407 -0.2109  0.2876
28348W        W71265  27.013  31.416  19.887 -0.0707 -0.2503 -0.1358
28349W        W71266  29.353  28.596  22.743 -0.2826  0.2335 -0.0745
28350W        W71267  27.619  30.758  22.218 -0.0066  0.3402  0.0184
28351W        W71268  27.548  30.709  23.413 -0.1257 -0.3433 -0.3992
28352W        W71269  30.609  30.727  22.671  0.0868  0.0532  0.3551
28353W        W71270  28.375  30.322  23.123  0.2435 -0.0529  0.3198
28354W        W71271  25.966  30.349  22.882  0.0279 -0.4446  0.1678
28355W        W71272  29.503  30.592  25.136  0.1024 -0.1469  0.0859
28356W        W71273  28.267  31.915  22.128 -0.2404  0.0140 -0.0350
28357W        W71274  23.439  32.856  20.407  0.1795  0.0489  0.1216
28358W        W71275  25.239  29.343  21.966 -0.1118 -0.2081 -0.0873
28359W        W71276  24.875  30.580  22.008  0.0614 -0.0772  0.0228
28360W        W71277  26.895  31.782  21.594  0.0846  0.2391  0.2710
28361W        W71278  27.117  29.989  20.059  0.1770  0.0303 -0.0070
28362W        W71279  27.825  32.090  19.653  0.0558  0.0386 -0.2536
28363W        W71280  27.033  32.433  24.132 -0.4663  0.0646 -0.0648
28364W        W71281  26.060  31.214  22.342 -0.1297  0.0370 -0.1524
28365W        W71282  26.188  32.514  20.220  0.0026 -0.1562  0.0265
28366W        W71283  28.421  30.846  20.240  0.0352 -0.0616 -0.1354
28367W        W71284  27.382  30.424  22.566 -0.0806 -0.2488 -0.0115
28368W        W71285  26.536  32.812  23.465 -0.3390  0.0008  0.3017
28369W        W71286  27.781  31.707  20.767  0.0777 -0.2352 -0.1998
28370W        W71287  25.780  32.639  22.911 -0.1369 -0.1962 -0.1028
28371W        W71288  24.932  31.401  18.623 -0.0430  0.1038  0.1044
28372W        W71289  28.812  31.801  22.152  0.0270  0.2313 -0.2376
28373W        W71290  26.324  32.499  22.011  0.2094  0.2430  0.2296
28374W        W71291  29.094   0.266  23.693  0.1053 -0.1615 -0.0012
28375W        W71292  29.059  30.090  21.362 -0.0007  0.3711 -0.0258
28376W        W71293  29.072  30.974  22.042 -0.0768  0.1589 -0.0721
28377W        W71294  28.605  30.161  20.567  0.1262 -0.1033  0.2358
28378W        W71295  27.805  33.166  24.366 -0.4086 -0.0144 -0.1479
28379W        W71296  25.615  28.528  21.721 -0.0528  0.0291 -0.3732
28380W        W71297  26.177  29.624  19.152 -0.2436 -0.1279  0.0367
28381W        W71298  27.028  30.618  23.459 -0.0640  0.3714 -0.4529
28382W        W71299  29.797  30.491  24.296  0.0850  0.0234  0.0218
28383W        W71300  25.894  30.801  22.657  0.1438 -0.2128 -0.4132
28384W        W71301  30.241  32.088  21.298 -0.0182 -0.0656  0.1970
28385W        W71302  26.069  30.619  21.494 -0.2333  0.1327  0.0862
28386W        W71303  28.748  29.669  21.989  0.1301  0.0141  0.2476
28387W        W71304  29.117  28.989  22.460  0.2149  0.0177  0.3679
28388W        W71305  26.069  32.394  18.365 -0.0058 -0.1759  0.0993
28389W        W71306  27.456  30.560  20.299 -0.2431 -0.2772 -0.0490
28390W        W71307  26.287  34.528  22.004  0.2704 -0.0060  0.0702
28391W        W71308  26.723  32.497  22.370  0.1399  0.2148  0.0464
28392W        W71309  29.563  31.628  23.385 -0.2197 -0.1492  0.2201
28393W        W71310  26.244  30.128  21.490 -0.0673 -0.2178  0.1039
28394W        W71311  31.562  31.749  22.008 -0.0103  0.0383 -0.2724
28395W        W71312  25.250  29.292  22.433  0.3462  0.2807 -0.0447
28396W        W71313  27.757  29.003  23.089  0.2388  0.1566  0.0706
28397W        W71314  26.694  32.292  21.640  0.2412 -0.1299 -0.1354
28398W        W71315  31.120  29.735  19.054  0.1178 -0.0053  0.0664
28399W        W71316  26.695  31.336  21.757 -0.3120 -0.2882 -0.0436
28400W        W71317  23.532  29.993  21.967 -0.3070  0.1912 -0.0306
28401W        W71318  27.027  30.581  21.093 -0.4186  0.0370  0.0358
28402W        W71319  29.358  32.530  23.805  0.1107 -0.1001 -0.4697
28403W        W71320  29.210  29.773  21.801  0.1814  0.0847  0.0400
28404W        W71321  27.282  32.416  23.182 -0.2371 -0.2810  0.0885
28405W        W71322  26.744  29.367  21.740 -0.0275 -0.1336 -0.3387
28406W        W71323  26.213  30.301  21.938 -0.1002  0.0524 -0.1451
28407W        W71324  26.558  31.645  22.190 -0.0673  0.2184  0.2087
28408W        W71325  28.355  29.932  24.625  0.2043  0.1355  0.1730
28409W        W71326  28.750  32.926  24.215 -0.1612  0.0100  0.0980
28410W        W71327  25.767  27.950  19.755  0.0636  0.0304  0.4111
28411W        W71328  28.213  33.068  18.678 -0.0641 -0.0351 -0.1703
28412W        W71329  28.786  32.011  23.381 -0.1957 -0.0814  0.1340
28413W        W71330  27.127  32.066  20.737  0.0962 -0.0479  0.2041
28414W        W71331  28.942  32.221  21.240 -0.4322  0.0781 -0.1961
28415W        W71332  27.616  33.082  22.174 -0.0376  0.1669 -0.1857
28416W        W71333  24.238  29.418  20.905 -0.1527 -0.0306  0.0914
28417W        W71334  28.671  32.954  23.233  0.0554  0.0931 -0.0611
28418W        W71335  29.107  33.160  22.829 -0.3584  0.0760  0.1039
28419W        W71336  28.220  30.357  20.199  0.0428  0.1297 -0.0465
28420W        W71337  26.813  32.728  21.933  0.0599 -0.2111  0.0032
28421W        W71338  24.683  31.033  21.279 -0.1395  0.2381  0.0585
28422W        W71339  30.499  30.672  20.492 -0.2518  0.2513  0.0115
28423W        W71340  28.826  28.939  23.078 -0.0363 -0.1075  0.5381
28424W        W71341  29.498  31.829  18.958  0.1163 -0.1076 -0.0726
28425W        W71342  28.063  30.027  22.418 -0.4536 -0.1419  0.2157
28426W        W71343  28.446  31.039  22.125  0.0242 -0.1106  0.2000
28427W        W71344  27.388  32.186  25.466  0.1160 -0.1044 -0.1705
28428W        W71345  27.281  32.240  21.342  0.0292  0.0421  0.0469
28429W        W71346  29.968  31.082  21.654  0.1957 -0.1925 -0.1499
28430W        W71347  27.247  30.854  21.449 -0.0947  0.0425 -0.1069
28431W        W71348  26.575  32.581  19.300  0.0946 -0.0267 -0.1206
28432W        W71349  28.315  33.323  19.839 -0.1085 -0.3636  0.3082
28433W        W71350  28.031  30.672  21.745 -0.1441 -0.1702 -0.1398
28434W        W71351  29.999  30.875  22.107 -0.0537  0.1327  0.4059
28435W        W71352  25.967  29.186  20.757 -0.1643 -0.0066  0.3097
28436W        W71353  27.699  30.833  19.539  0.3087  0.3180  0.1010
28437W        W71354  28.826  29.547  21.436  0.1335  0.2230  0.0201
28438W        W71355  26.736  30.137  21.275 -0.0294  0.2318 -0.0097
28439W        W71356  24.488  30.018  19.484 -0.2548  0.0462  0.1222
28440W        W71357  27.533  31.667  18.996  0.1103 -0.0334 -0.0512
28441W        W71358  26.262  30.239  20.953 -0.0722  0.3825 -0.0445
28442W        W71359  27.627  29.003  25.558  0.2540  0.2062  0.0138
28443W        W71360  26.326  32.833  22.534  0.0871 -0.2897  0.1213
28444W        W71361  23.720  30.074  24.323  0.0908 -0.0706 -0.2287
28445W        W71362  25.717  29.943  20.185  0.0126 -0.0118 -0.1274
28446W        W71363  29.823  33.345  20.053  0.0133 -0.0598 -0.1119
28447W        W71364  24.771  28.675  20.662  0.2180 -0.2368 -0.1557
28448W        W71365  25.524  30.681  23.363 -0.0632 -0.1434 -0.0296
28449W        W71366  28.625  32.219  21.879  0.2249  0.0496  0.2411
28450W        W71367  29.067  31.594  20.792 -0.0598 -0.0122 -0.1884
28451W        W71368  26.358  32.038  21.056  0.2406  0.1341 -0.0106
28452W        W71369  28.645  33.718  23.648  0.1332 -0.1223 -0.4055
28453W        W71370  25.347  31.024  19.435  0.1079 -0.1389  0.0238
28454W        W71371  27.587  29.106  23.552 -0.0217  0.1254  0.0351
28455W        W71372  27.380  29.062  24.055  0.0184 -0.0295 -0.0529
28456W        W71373  27.506  31.760  20.012 -0.0062  0.0969 -0.1686
28457W        W71374  25.603  29.292  23.692  0.1927 -0.2157  0.1130
28458W        W71375  27.735  32.739  20.523  0.1855 -0.0530  0.4024
28459W        W71376  29.542  31.942  19.976  0.0149 -0.2481 -0.0598
28460W        W71377  26.793  31.467  23.801  0.2783 -0.1423  0.1049
28461W        W71378  25.225  30.511  23.715 -0.0060 -0.0300 -0.1931
28462W        W71379  25.972  31.628  23.153  0.1986 -0.0630 -0.2163
28463W        W71380  26.921  31.774  22.503 -0.1647  0.0687 -0.2907
28464W        W71381  28.606  31.422  21.870  0.4067  0.1828  0.3245
28465W        W71382  30.081  30.721  20.850 -0.1601 -0.3096 -0.1678
28466W        W71383  29.624  28.935  20.851 -0.0439 -0.0820 -0.1564
28467W        W71384  27.652  31.447  22.822 -0.0355 -0.1251 -0.0425
28468W        W71385  25.596  28.971  22.741  0.1243  0.1577 -0.2025
28469W        W71386  26.191  32.900  24.335 -0.1861  0.3382  0.0539
28470W        W71387  28.457  31.502  22.406  0.1734  0.0546 -0.3243
28471W        W71388  25.979  28.201  20.274  0.0624  0.1253  0.2312
28472W        W71389  28.659  31.817  20.488 -0.2974 -0.2497  0.1610
28473W        W71390  26.798  31.689  19.488 -0.0143  0.0779  0.1353
28474W        W71391  23.938  30.194  21.084 -0.0933 -0.0997  0.2461
28475W        W71392  25.890  31.549  20.461 -0.2086 -0.1677  0.0604
28476W        W71393  27.840  29.184  24.525  0.2026  0.1509  0.0459
28477W        W71394  28.524  32.373  20.116 -0.1790  0.3876  0.0173
28478W        W71395  29.648  29.270  21.701 -0.1401  0.3849 -0.0348
28479W        W71396  25.999  28.978  20.203 -0.0683  0.2384  0.2027
28480W        W71397  29.812  29.245  21.206  0.0201  0.3228 -0.1315
28481W        W71398  28.434  32.669  23.932 -0.3106  0.2207 -0.0927
28482W        W71399  28.145  31.363  23.586 -0.3196 -0.3468 -0.4367
28483W        W71400  26.808  32.075  22.044 -0.1239  0.0370 -0.5587
28484W        W71401  29.018  31.813  22.625  0.2239 -0.0004  0.1510
28485W        W71402  26.936  30.647  20.496 -0.3700  0.0450  0.0271
28486W        W71403  26.405  32.502  21.241 -0.2621  0.1203  0.3876
28487W        W71404  25.842  32.653  21.927 -0.1564 -0.0460 -0.2651
28488W        W71405  28.163  31.992  21.078 -0.0574 -0.2866  0.0584
28489W        W71406  25.592  27.467  19.542 -0.0432  0.0789 -0.1826
28490W        W71407  27.949  30.929  19.048  0.0640  0.2024  0.1011
28491W        W71408  25.801  33.521  22.118 -0.0804  0.1976  0.3801
28492W        W71409  27.699  31.884  21.296 -0.0781 -0.1795  0.2055
28493W        W71410  28.981  31.618  27.576  0.0495 -0.0971 -0.4053
28494W        W71411  24.879  31.417  24.976  0.0214  0.2240 -0.0539
28495W        W71412  27.812  31.736  24.863 -0.2448 -0.2772 -0.0393
28496W        W71413  28.602  32.087  22.903  0.0365  0.3105 -0.0448
28497W        W71414  24.059  30.210  24.000 -0.2176  0.1101  0.2106
28498W        W71415  28.928  33.277  25.483  0.1359  0.3337 -0.0343
28499W        W71416  26.552  28.888  27.031  0.2228  0.0298 -0.1988
28500W        W71417  26.623  33.668  27.006 -0.1648 -0.0542 -0.1418
28501W        W71418  27.992  32.072  26.705 -0.0114 -0.1623 -0.0793
28502W        W71419  30.425  30.345  23.432  0.0255  0.3074 -0.0029
28503W        W71420  27.766  30.935  25.583  0.1701 -0.1689 -0.0715
28504W        W71421  27.334  32.472  25.869 -0.2283 -0.1853  0.0790
28505W        W71422  27.927  28.146  24.250  0.1135 -0.0350 -0.2703
28506W        W71423  24.776  29.293  26.030 -0.0911 -0.0068 -0.0089
28507W        W71424  27.676  32.088  23.360 -0.0908 -0.0118 -0.0578
28508W        W71425  26.299  32.147  24.180  0.1846 -0.1869 -0.0077
28509W        W71426  25.927  30.528  26.851 -0.2701 -0.0898 -0.0274
28510W        W71427  26.711  27.362  24.875  0.5551 -0.1490  0.1220
28511W        W71428  27.419  32.471  24.444  0.0841 -0.1833 -0.0235
28512W        W71429  27.179  29.794  25.016  0.0418 -0.1561 -0.1032
28513W        W71430  26.485  30.110  27.186 -0.3376 -0.1728  0.2219
28514W        W71431  26.921  31.373  25.252 -0.0796  0.1501 -0.2456
28515W        W71432  26.433  30.265  22.772 -0.0762 -0.0285 -0.0780
28516W        W71433  24.519  28.868  25.816  0.0851  0.0670 -0.0713
28517W        W71434  25.508  29.708  26.218  0.3619  0.1890  0.1436
28518W        W71435  29.268  30.862  24.538  0.0940  0.0080 -0.2229
28519W        W71436  28.281  31.630  24.024 -0.1064  0.2636  0.1080
28520W        W71437  28.821  33.174  24.639  0.0190 -0.3188  0.3123
28521W        W71438  27.725  31.025  23.807 -0.1271  0.3434  0.2099
28522W        W71439  29.577  30.888  27.458 -0.0897  0.2007  0.1520
28523W        W71440  24.750  31.872  23.250  0.0449 -0.1658 -0.1908
28524W        W71441  27.314  34.549  24.686  0.2861 -0.2198  0.1051
28525W        W71442  27.535  33.080  23.729 -0.0524  0.0046  0.2259
28526W        W71443  28.665  30.249  25.541 -0.1961 -0.0563  0.0382
28527W        W71444  27.717  31.287  24.556  0.0535  0.2001  0.1899
28528W        W71445  27.132  31.655  27.052  0.0985  0.0339 -0.2706
28529W        W71446  26.876  32.757  22.911  0.0348 -0.1871  0.0649
28530W        W71447  26.443  32.518  25.770 -0.1173  0.5004  0.0910
28531W        W71448  26.064  32.530  28.428 -0.1457 -0.1450 -0.0931
28532W        W71449  32.354  32.128  26.792 -0.0532 -0.1527 -0.0881
28533W        W71450  26.111  31.232  24.297  0.1923  0.4162 -0.2273
28534W        W71451  26.802  33.210  23.345  0.2736 -0.1873  0.0270
28535W        W71452  28.849  32.398  24.276  0.0139  0.0243  0.1413
28536W        W71453  25.326  31.693  27.612  0.1404  0.1829 -0.1527
28537W        W71454  25.959  31.452  23.855 -0.0544  0.2851  0.0257
28538W        W71455  27.065  29.047  26.853  0.0402  0.0235 -0.0051
28539W        W71456  26.304  31.921  23.726  0.3702 -0.1271 -0.0655
28540W        W71457  29.055  30.817  24.974 -0.0418 -0.0535  0.1673
28541W        W71458  26.875  30.757  26.771  0.0700  0.2376 -0.2536
28542W        W71459  27.289  31.285  25.574 -0.4988 -0.4062  0.0121
28543W        W71460  25.764  30.477  23.776  0.0026  0.3261  0.5202
28544W        W71461  27.639  32.615  23.557 -0.1965  0.1548 -0.0730
28545W        W71462  25.425  28.821  25.291 -0.0876  0.1732 -0.2875
28546W        W71463  28.162  31.261  28.921  0.1203  0.1267 -0.1162
28547W        W71464  25.704  30.757  24.307 -0.0274 -0.1021 -0.2184
28548W        W71465  28.869  31.132  26.170 -0.0934  0.0180  0.0647
28549W        W71466  26.439  32.204  26.273  0.1930  0.2043  0.0467
28550W        W71467  27.027  31.139  26.006  0.0241  0.0525  0.2801
28551W        W71468  28.570  33.188  23.743  0.1833  0.1720 -0.1510
28552W        W71469  30.710  31.476  23.959 -0.0469 -0.1408 -0.1260
28553W        W71470  30.498  33.402  24.027  0.1763 -0.2368 -0.1006
28554W        W71471  25.971  32.630  25.742 -0.0245  0.0347  0.2472
28555W        W71472  24.973  29.792  27.446 -0.0536 -0.0432 -0.0076
28556W        W71473  25.743  29.575  25.801 -0.1190  0.4371  0.0536
28557W        W71474  26.205  29.621  22.131 -0.2657 -0.1119 -0.1586
28558W        W71475  30.793  31.818  28.252 -0.1216 -0.3507  0.1032
28559W        W71476  24.926  31.319  25.431 -0.3767 -0.2807  0.1969
28560W        W71477  28.748  31.989  27.303  0.0384 -0.1302 -0.0193
28561W        W71478  25.223  32.704  23.039  0.0590  0.0917  0.0222
28562W        W71479  28.587  31.109  24.852 -0.0617  0.1969  0.2483
28563W        W71480  28.239   0.307  24.158 -0.2387 -0.1834  0.1683
28564W        W71481  27.335  30.910  25.156  0.1306 -0.4381 -0.4408
28565W        W71482  28.574  29.222  27.142 -0.0503  0.1691  0.0549
28566W        W71483  27.044  31.535  22.049  0.0546  0.0643  0.0777
28567W        W71484  29.074  32.103  24.633 -0.0772  0.0578  0.0308
28568W        W71485  29.796  32.380  27.615 -0.1550  0.0175 -0.1732
28569W        W71486  28.097  30.913  22.449 -0.2644  0.2641 -0.1788
28570W        W71487  26.195  33.526  25.493 -0.0668  0.0186  0.0573
28571W        W71488  26.495  31.821  26.587  0.0352  0.0210  0.2074
28572W        W71489  29.715  32.915  25.758 -0.1398 -0.0613  0.0287
28573W        W71490  25.842  32.458  23.413 -0.2829 -0.2116  0.0360
28574W        W71491  25.753  32.152  25.798  0.1130  0.0240  0.3653
28575W        W71492  25.428  31.649  23.109  0.1178 -0.1810 -0.3118
28576W        W71493  24.707  30.308  26.836  0.2814  0.0247  0.1914
28577W        W71494  26.738  31.977  25.932  0.1557 -0.2652 -0.1909
28578W        W71495  30.145  27.134  23.804  0.3669  0.2592 -0.3068
28579W        W71496  25.329  29.753  28.443  0.1330  0.0323  0.1659
28580W        W71497  29.596  28.988  25.657 -0.1358  0.1199 -0.1191
28581W        W71498  26.774  31.998  23.575 -0.0535  0.1830  0.0452
28582W        W71499  28.900  31.910  24.064  0.2615 -0.0348  0.1087
28583W        W71500  28.397  29.789  25.470  0.0161  0.0852  0.5040
28584W        W71501  26.640  32.989  23.881 -0.3126  0.2257 -0.1344
28585W        W71502  24.726  29.535  25.565  0.3648 -0.1860  0.1850
28586W        W71503  23.646  30.826  23.587  0.0918  0.3478  0.2324
28587W        W71504  25.030  28.986  28.750 -0.2883  0.2982 -0.2625
28588W        W71505  26.340  28.715  24.822  0.0764 -0.0547 -0.1615
28589W        W71506  30.044  30.372  26.530  0.1945 -0.0058 -0.0936
28590W        W71507  25.090  29.823  25.194 -0.1282 -0.0426 -0.1278
28591W        W71508  27.197  29.682  26.938  0.1053  0.2264  0.1781
28592W        W71509  25.090  32.218  24.328 -0.1509  0.1512  0.0602
28593W        W71510  24.607  31.554  23.906 -0.4507 -0.2896  0.1399
28594W        W71511  29.559  30.093  25.957 -0.0074 -0.1507  0.1116
28595W        W71512  27.024  32.681  23.698 -0.1063  0.1886  0.1668
28596W        W71513  29.146  31.554  26.186  0.2284  0.1380 -0.1274
28597W        W71514  27.447  31.687  25.337  0.1008 -0.2192 -0.0485
28598W        W71515  26.891  32.369  25.611  0.0313 -0.0821 -0.0850
28599W        W71516  26.247  30.298  24.326 -0.1844  0.0341  0.0758
28600W        W71517  26.109  32.442  24.547 -0.0890 -0.2719  0.1773
28601W        W71518  25.690  31.867  25.259 -0.2540 -0.0121  0.1834
28602W        W71519  24.833  29.356  24.518 -0.3969  0.0406  0.3949
28603W        W71520  29.846  30.874  24.712 -0.1434  0.1581  0.1543
28604W        W71521  26.739  31.503  23.298  0.2448 -0.4112 -0.1516
28605W        W71522  25.756  31.177  24.741 -0.4094 -0.0065  0.1939
28606W        W71523  27.337  30.031  27.528  0.2241 -0.0678  0.1321
28607W        W71524  29.641  30.630  26.726 -0.3630 -0.0561  0.3391
28608W        W71525  28.071  30.457  24.921 -0.5356 -0.1409 -0.0144
28609W        W71526  25.596  31.122  22.403  0.1278 -0.2062  0.0887
28610W        W71527  26.934  34.329  24.333  0.1272  0.2280  0.3721
28611W        W71528  24.778  33.883  23.181 -0.1400 -0.0154  0.0966
28612W        W71529  24.443  31.351  25.264  0.1778 -0.5754 -0.0466
28613W        W71530  25.475  31.250  23.450 -0.0182 -0.0263 -0.4457
28614W        W71531  28.025  29.693  26.516 -0.1603 -0.2166  0.0620
28615W        W71532  28.839  33.447  27.479  0.3760  0.1224  0.3688
28616W        W71533  28.305  28.756  25.935 -0.3614 -0.0015 -0.0742
28617W        W71534  25.042  30.908  21.593  0.0958  0.0131  0.4798
28618W        W71535  26.699  31.430  25.683 -0.1554  0.1387 -0.0145
28619W        W71536  28.629  29.154  25.757 -0.2893  0.1746 -0.1101
28620W        W71537  27.689  30.451  26.361 -0.0146 -0.2303  0.2221
28621W        W71538  28.893  30.537  24.363 -0.1415 -0.0817  0.1994
28622W        W71539  27.150  31.452  22.802  0.1216  0.1420 -0.1713
28623W        W71540  25.726  30.243  24.241 -0.1145 -0.1561  0.1888
28624W        W71541  27.105  30.053  23.890 -0.3735  0.0053  0.3808
28625W        W71542  25.063  30.340  25.937 -0.1490  0.2902 -0.1355
28626W        W71543  28.922  32.606  24.719  0.1862 -0.0313 -0.1551
28627W        W71544  24.684  31.258  26.600 -0.2194  0.0203 -0.2256
28628W        W71545  27.126  28.631  24.197 -0.0562  0.0163 -0.0260
28629W        W71546  29.821  33.838  23.857  0.2507 -0.2670  0.0805
28630W        W71547  26.168  32.480  26.598 -0.1684  0.2150  0.4221
28631W        W71548  26.903  33.151  27.059  0.2217 -0.2572  0.5171
28632W        W71549  26.947  32.590  24.743 -0.0368 -0.0130 -0.0638
28633W        W71550  28.090  29.171  25.712 -0.2949  0.1891  0.0373
28634W        W71551  26.735  31.190  22.882  0.1231 -0.1159  0.1398
28635W        W71552  27.919  28.791  24.197 -0.1742 -0.1427  0.2210
28636W        W71553  23.928   0.152  24.998  0.0064 -0.2266  0.0963
28637W        W71554  30.752  27.481  28.128  0.0359 -0.3962  0.1566
28638W        W71555  27.918  28.292  26.334  0.2652  0.2183  0.2221
28639W        W71556  25.909  29.436  27.348  0.2437  0.0826 -0.2459
28640W        W71557  26.701  31.043  26.430  0.3886 -0.1197  0.0221
28641W        W71558  28.588  30.622  25.251 -0.0388  0.0004  0.1642
28642W        W71559  27.531  30.852  26.038  0.1059 -0.0790 -0.1226
28643W        W71560  26.214  31.256  22.861  0.1873 -0.1263  0.1000
28644W        W71561  27.634  31.561  27.056  0.1812 -0.1235  0.0080
28645W        W71562  25.147  30.620  26.851  0.0778 -0.1745 -0.0201
28646W        W71563  23.722  29.558  25.690  0.0696  0.0228  0.1365
28647W        W71564  28.947  31.909  26.739  0.2328 -0.0011 -0.1809
28648W        W71565  28.658  31.172  23.835 -0.2029 -0.2327 -0.0505
28649W        W71566  25.454  31.809  26.196 -0.1162 -0.0551 -0.1348
28650W        W71567  29.609  27.729  25.059  0.0653 -0.0494 -0.1929
28651W        W71568  26.218  33.732  23.752 -0.2065 -0.1037  0.0846
28652W        W71569  26.791  30.703  23.010  0.1454 -0.2212  0.1354
28653W        W71570  27.842  30.510  25.875  0.0164  0.1942 -0.0717
28654W        W71571  28.111  30.078  23.929 -0.1469  0.1097 -0.2944
28655W        W71572  27.789  32.421  23.052 -0.1237  0.0300  0.2582
28656W        W71573  28.912  30.041  24.614 -0.0669 -0.1755 -0.0973
28657W        W71574  24.861  31.380  23.079 -0.4715  0.1237 -0.3026
28658W        W71575  29.271  28.749  26.504  0.0864  0.0642  0.1649
28659W        W71576  25.532  32.871  24.880 -0.0218  0.0588 -0.2121
28660W        W71577  26.722  29.412  24.584  0.0158  0.1350 -0.0646
28661W        W71578  25.417  29.555  23.215  0.0480 -0.0691  0.1140
28662W        W71579  28.595  28.068  23.117 -0.1674  0.2294  0.0102
28663W        W71580  28.876  31.597  23.685  0.1129 -0.0217 -0.2063
28664W        W71581  26.375  30.191  24.880 -0.2399 -0.1789 -0.2127
28665W        W71582  27.499  30.010  26.561  0.3023 -0.2435 -0.0787
28666W        W71583  26.287  32.416  24.988 -0.1304 -0.1421  0.3516
28667W        W71584  28.719  30.539  26.280  0.1330 -0.2255  0.0256
28668W        W71585  28.555  30.165  25.051 -0.1334  0.0229 -0.2772
28669W        W71586  29.006  31.610  24.446  0.2011  0.1937 -0.1861
28670W        W71587  25.288  31.545  25.802 -0.3027  0.1210 -0.1491
28671W        W71588  24.521  31.117  24.720 -0.3104  0.0754 -0.1873
28672W        W71589  26.689  29.652  27.335  0.0359 -0.1299  0.2982
28673W        W71590  25.572  33.438  22.714 -0.0229  0.0158  0.2621
28674W        W71591  25.533  32.894  23.554 -0.2579  0.2309 -0.1712
28675W        W71592  30.014  31.844  26.277  0.1750  0.0714 -0.1691
28676W        W71593  27.327  31.125  24.092 -0.1627  0.0531  0.0604
28677W        W71594  25.987  31.985  22.777 -0.0923 -0.0485  0.3968
28678W        W71595  27.192  30.025  28.403 -0.0282  0.0750  0.0475
28679W        W71596  28.467  30.435  26.720 -0.1096  0.1682 -0.3823
28680W        W71597  28.356  29.552  25.985 -0.1179  0.0772  0.1645
28681W        W71598  23.994  31.273  25.481 -0.0233  0.1841  0.2725
28682W        W71599  26.932  30.547  24.892 -0.4358  0.0431  0.1919
28683W        W71600  27.004  31.801  24.934 -0.0952  0.0604 -0.3486
28684W        W71601  28.076  30.909  26.091  0.1172  0.0907  0.3091
28685W        W71602  25.805  31.323  25.655 -0.0760 -0.2035  0.3393
28686W        W71603  26.994  29.459  26.512  0.0063  0.0777  0.1100
28687W        W71604  28.607  33.280  25.049  0.0694 -0.2921  0.2617
28688W        W71605  26.985  31.373  27.454 -0.0462  0.0653 -0.2956
28689W        W71606  27.193  32.325  21.802 -0.1179  0.2377 -0.0902
28690W        W71607  23.654  31.166  25.004  0.1396  0.1374  0.0626
28691W        W71608  28.212  31.168  25.674 -0.0358 -0.0034 -0.0959
28692W        W71609  27.551  29.037  26.059  0.0264  0.0311  0.2854
28693W        W71610  25.727  32.729  24.382  0.0367 -0.1436  0.1164
28694W        W71611  27.027  32.137  24.522  0.1554  0.1933  0.0218
28695W        W71612  25.930  31.922  26.384  0.0174  0.1583 -0.2363
28696W        W71613  29.199  30.649  22.661 -0.1504  0.1283 -0.3847
28697W        W71614  26.868  30.945  23.935  0.1215 -0.0588  0.1347
28698W        W71615  27.328  30.609  25.602 -0.1329 -0.0551 -0.0060
28699W        W71616  27.429  29.191  27.152 -0.0053  0.0849 -0.2475
28700W        W71617  30.860  30.399  24.816  0.0446  0.1575 -0.0089
28701W        W71618  29.011  30.436  28.216  0.2428 -0.3433  0.1357
28702W        W71619  26.055  30.449  26.314 -0.0622 -0.2794 -0.0898
28703W        W71620  28.460  32.798  24.878 -0.2800  0.0055 -0.1951
28704W        W71621  25.661  30.128  26.651 -0.0048  0.1250 -0.2035
28705W        W71622  27.696  31.951  27.921  0.2599 -0.3321 -0.0891
28706W        W71623  25.297  32.556  28.512  0.1028 -0.3604 -0.3191
28707W        W71624  27.760  31.461  24.077 -0.3276  0.1613 -0.1690
28708W        W71625  27.195  29.959  24.361  0.0113 -0.0529 -0.0517
28709W        W71626  27.271  31.624  23.298  0.1929 -0.0668 -0.1183
28710W        W71627  29.441  30.801  23.999  0.2482  0.0345  0.2769
28711W        W71628  27.604  31.554  23.636  0.1841 -0.1038 -0.1138
28712W        W71629  29.118  31.045  25.535 -0.0509 -0.0184  0.3055
28713W        W71630  26.423  31.210  25.270 -0.0239  0.1318 -0.0826
28714W        W71631  28.438  29.136  25.247 -0.1293 -0.3255  0.0018
28715W        W71632  28.221  29.592  23.807  0.0855 -0.1172 -0.0768
28716W        W71633  26.062  32.881  24.795  0.1514 -0.2278 -0.2656
28717W        W71634  25.898  30.091  25.698  0.2629  0.2346  0.1442
28718W        W71635  26.311  30.281  25.878 -0.1597 -0.3127  0.1368
28719W        W71636  30.040  28.401  25.145  0.1308 -0.0336 -0.0113
28720W        W71637  27.573  27.564  25.464  0.1138  0.2127  0.2148
28721W        W71638  27.382  28.629  26.913 -0.0585 -0.0794  0.0657
28722W        W71639  28.208  30.469  26.260  0.0751 -0.0398  0.1416
28723W        W71640  27.172  29.548  27.441 -0.1396  0.0159 -0.1360
28724W        W71641  28.557  32.192  25.583  0.1177 -0.1233 -0.0780
28725W        W71642  26.377  32.599  23.018  0.0196 -0.0864  0.0776
28726W        W71643  29.190  29.858  26.558 -0.2167 -0.1482  0.0363
28727W        W71644  28.259  29.835  23.298 -0.4938  0.3582  0.1000
28728W        W71645  25.871  31.845  24.135  0.1036 -0.0881 -0.0300
28729W        W71646  24.707  30.705  25.928  0.2113  0.0562  0.0762
28730W        W71647  26.370  31.675  26.100 -0.1076 -0.1301  0.0984
28731W        W71648  27.183  30.570  23.884 -0.0630 -0.1208 -0.3642
28732W        W71649  24.864  30.423  28.119 -0.2299  0.2795  0.0865
28733W        W71650  28.046  30.959  22.934 -0.0992 -0.0385 -0.0477
28734W        W71651  28.480  31.755  26.888 -0.0560  0.1194  0.1479
28735W        W71652  28.617  31.624  24.839  0.0142 -0.0677 -0.3973
28736W        W71653  25.422  30.253  24.850  0.0064 -0.2713  0.0169
28737W        W71654  26.662  32.778  27.279 -0.1498 -0.0651 -0.0398
28738W        W71655  26.781  29.704  22.149  0.2213  0.0077 -0.1155
28739W        W71656  26.013  31.464  25.069  0.1684  0.5967 -0.2309
28740W        W71657  26.817  31.539  26.303 -0.0122  0.6416 -0.1576
28741W        W71658  29.491  31.370  27.750  0.0323  0.1742 -0.0466
28742W        W71659  28.234  28.830  22.971 -0.5167  0.1359  0.3942
28743W        W71660  27.434  32.071  24.821 -0.0882 -0.0422  0.2044
28744W        W71661  25.331  31.829  24.300 -0.0581 -0.1417  0.2793
28745W        W71662  26.669  29.113  26.075  0.0627  0.1672 -0.0201
28746W        W71663  26.202  33.184  27.761  0.0345 -0.1592  0.2161
28747W        W71664  25.389  32.392  27.574 -0.2314 -0.1486 -0.3211
28748W        W71665  28.188  33.083  25.222  0.1510  0.0225  0.1913
28749W        W71666  28.095  28.252  25.168 -0.1423 -0.0969  0.0478
28750W        W71667  30.144  31.326  26.090 -0.0109 -0.3521 -0.0415
28751W        W71668  25.917  30.916  26.184 -0.1982 -0.0219  0.0385
28752W        W71669  29.120  29.422  24.860  0.1463  0.3192  0.0448
28753W        W71670  28.082  32.297  27.881 -0.0954  0.0057 -0.1434
28754W        W71671  26.335  32.357  23.484  0.0475  0.2495 -0.0843
28755W        W71672  28.515  32.353  26.067  0.2303  0.0532 -0.0508
28756W        W71673  31.369  30.994  26.748  0.2461  0.3990 -0.5539
28757W        W71674  26.923  32.868  24.285 -0.3409 -0.0549 -0.1820
28758W        W71675  27.190  30.761  27.694  0.0250 -0.3606 -0.0123
28759W        W71676  26.710  30.523  26.308 -0.2332  0.0706  0.0252
28760W        W71677  27.994  32.032  23.743 -0.0625  0.3172 -0.1480
28761W        W71678  26.216  29.991  25.316 -0.1529  0.2262  0.0088
28762W        W71679  26.928  29.612  24.173  0.0853  0.0918  0.0027
28763W        W71680  27.083  32.110  27.259  0.1179 -0.0500 -0.0826
28764W        W71681  24.258  30.948  26.122 -0.0538 -0.2216  0.1716
28765W        W71682  23.909  32.198  23.547  0.1126 -0.0278 -0.0463
28766W        W71683  28.640  29.611  25.038  0.1861  0.0254 -0.1321
28767W        W71684  26.839  30.679  25.830 -0.1770 -0.0234 -0.0830
28768W        W71685  27.102  33.668  28.962 -0.1935 -0.0720  0.0236
28769W        W71686  26.876  31.011  24.722 -0.1771  0.1838  0.0620
28770W        W71687  27.059  33.247  26.603 -0.0354 -0.0780  0.0932
28771W        W71688  26.282  31.267  23.372 -0.2215 -0.1782  0.0318
28772W        W71689  27.730  31.162  23.308  0.2598  0.1487 -0.1577
28773W        W71690  26.284  32.051  22.276 -0.4097  0.1265 -0.1870
28774W        W71691  29.108  31.122  27.379  0.0731 -0.0535 -0.0542
28775W        W71692  27.978  30.238  23.426  0.1528 -0.2987 -0.0878
28776W        W71693  28.960  29.763  22.664  0.1662 -0.0826  0.0342
28777W        W71694  28.690  31.544  22.846 -0.2098 -0.2205 -0.2591
28778W        W71695  27.351  32.904  24.611  0.2705  0.1787  0.0599
28779W        W71696  24.396  29.781  23.983 -0.0781  0.2060 -0.0059
28780W        W71697  26.399  31.124  23.845  0.0574  0.4082 -0.0029
28781W        W71698  26.456  30.656  27.083  0.0774  0.2917  0.0590
28782W        W71699  28.755  30.713  27.845  0.0775  0.0891 -0.0385
28783W        W71700  24.159  31.136  26.598  0.0001  0.0852 -0.0835
28784W        W71701  27.230  31.108  23.100 -0.2033 -0.1535 -0.0889
28785W        W71702  27.685  30.415  24.636  0.2395 -0.3129 -0.1014
28786W        W71703  25.700  33.602  24.140  0.0445 -0.2003  0.3527
28787W        W71704  29.993  29.110  26.287 -0.1062  0.0343  0.4215
28788W        W71705  28.377  29.275  21.260 -0.0010  0.0427  0.0850
28789W        W71706  27.177  31.678  25.804  0.0314  0.0926  0.2653
28790W        W71707  27.472  31.732  24.426 -0.1376 -0.0362 -0.1809
28791W        W71708  27.510  32.172  24.061 -0.1035 -0.2939  0.0714
28792W        W71709  26.974  31.867  25.442  0.2178 -0.2351  0.1282
28793W        W71710  22.960  29.788  23.795  0.2207 -0.1026  0.2056
28794W        W71711  28.962  29.879  25.298 -0.0545 -0.1115  0.1781
28795W        W71712  28.768  30.048  26.003 -0.1398 -0.1419  0.2825
28796W        W71713  27.261  28.733  27.623  0.0599  0.3392 -0.1223
28797W        W71714  26.472  31.595  25.056 -0.0753 -0.2356  0.0112
28798W        W71715  29.527  30.229  22.607  0.0573 -0.1436 -0.4597
28799W        W71716  28.209  31.375  25.195 -0.3050  0.1777  0.0260
28800W        W71717  24.231  29.976  22.991  0.0848 -0.1841 -0.2002
28801W        W71718  26.144  30.723  24.064  0.0310 -0.2427 -0.0326
28802W        W71719  29.046  31.319  26.707  0.1174  0.0700  0.2566
28803W        W71720  28.299  28.735  25.020 -0.1943 -0.1648 -0.2576
28804W        W71721  28.924  32.552  27.472  0.2648 -0.0299 -0.1733
28805W        W71722  27.490  30.202  23.596 -0.0411  0.1747 -0.0723
28806W        W71723  29.204  28.820  24.874 -0.2354 -0.0714 -0.0666
28807W        W71724  24.139  29.381  23.824  0.0958 -0.3329 -0.2428
28808W        W71725  25.554  30.734  25.248  0.0269  0.3156 -0.0253
28809W        W71726  29.950  32.001  28.581  0.3351 -0.1967  0.2748
28810W        W71727  26.238  29.164  24.788 -0.0481 -0.0015  0.0705
28811W        W71728  29.183  33.257  24.319 -0.1090  0.0800 -0.1386
28812W        W71729  28.085  31.666  27.150  0.0545  0.1592 -0.1547
28813W        W71730  27.067  31.510  24.271  0.2377 -0.0128 -0.1116
28814W        W71731  29.878  30.350  24.764 -0.1082  0.0008  0.0420
28815W        W71732  29.890  33.099  24.774  0.3027  0.1282  0.1835
28816W        W71733  23.957  28.966  24.035  0.3760  0.1923 -0.2982
28817W        W71734  28.044  32.233  25.658 -0.1889 -0.3542  0.0742
28818W        W71735  30.908  31.157  27.029 -0.1325 -0.2150  0.1666
28819W        W71736  25.814  29.590  24.517 -0.0310  0.3655 -0.0865
28820W        W71737  24.675  31.966  25.227  0.2025  0.2090  0.1310
28821W        W71738  26.583  32.484  24.405  0.0953 -0.0651  0.0336
28822W        W71739  28.787  29.675  27.267 -0.0068 -0.1641  0.0836
28823W        W71740  27.722  28.071  25.537 -0.1945 -0.1829  0.0090
28824W        W71741  28.364  33.644  22.514 -0.0507  0.0176  0.1108
28825W        W71742  30.123  28.258  26.253  0.1317 -0.2769  0.1487
28826W        W71743  28.239  32.740  26.885  0.1127  0.3272 -0.1186
28827W        W71744  26.845  32.295  28.837 -0.1686 -0.0434  0.0914
28828W        W71745  27.200  32.199  23.655  0.3531 -0.0132 -0.1169
28829W        W71746  29.453  31.135  25.140 -0.1617  0.3918  0.3930
28830W        W71747  27.576  32.384  22.533 -0.0194  0.0277  0.1054
28831W        W71748  27.946  32.492  24.023 -0.3237  0.0098 -0.1662
28832W        W71749  27.650  31.918  25.818  0.0393 -0.1447 -0.2424
28833W        W71750  28.158  31.103  24.129 -0.1215 -0.0626  0.0928
28834W        W71751  30.556  31.546  26.311 -0.0821  0.0371  0.2419
28835W        W71752  26.707  30.362  25.399 -0.0089  0.1558 -0.0443
28836W        W71753  29.710  28.334  24.170 -0.2230 -0.0478  0.1140
28837W        W71754  27.277  30.336  26.153 -0.0808 -0.2453 -0.5054
28838W        W71755  27.734  31.326  25.176  0.1020 -0.2454  0.1742
28839W        W71756  25.245  29.778  22.297 -0.3428 -0.1391 -0.0486
28840W        W71757  27.127  33.193  22.198  0.0850  0.1244 -0.0728
28841W        W71758  24.051  29.827  23.622 -0.0894 -0.0643  0.0295
28842W        W71759  26.116  30.056  28.596  0.1393 -0.2155  0.0461
28843W        W71760  26.149  28.729  27.352 -0.2658 -0.0072 -0.0093
28844W        W71761  25.467  31.633  23.826 -0.1775 -0.2655  0.0706
28845W        W71762  25.162  30.458  24.243 -0.0719 -0.2962 -0.1814
28846W        W71763  29.108  33.719  24.459  0.0858  0.1977 -0.2628
28847W        W71764  25.053  29.369  26.456 -0.1788  0.0843  0.2871
28848W        W71765  22.576  30.005  25.886 -0.1583 -0.0703  0.4002
28849W        W71766  27.236  32.943  23.331 -0.0457 -0.0403 -0.0821
28850W        W71767  28.524  30.600  24.774  0.0206  0.1986  0.1679
28851W        W71768  27.735  30.520  25.331 -0.0305  0.0669 -0.1600
28852W        W71769  28.046  31.841  28.299  0.1673 -0.0195 -0.2446
28853W        W71770  27.288  30.452  23.038  0.0198  0.2523  0.2246
28854W        W71771  26.039  32.016  26.869 -0.1837 -0.1192 -0.3269
28855W        W71772  27.052  28.566  26.512  0.5398  0.2477 -0.2258
28856W        W71773  22.553  28.766  23.411  0.4399 -0.2803  0.2219
28857W        W71774  28.107  30.337  24.378  0.1386 -0.1568  0.0239
28858W        W71775  28.152  31.447  24.680 -0.3379 -0.1554 -0.3734
28859W        W71776  28.381  32.176  23.995 -0.1233  0.2127 -0.1864
28860W        W71777  28.460  32.472  27.446 -0.1260  0.1268  0.0964
28861W        W71778  28.121  33.102  25.710  0.0684  0.1176  0.1027
28862W        W71779  26.171  28.900  25.787 -0.4332 -0.1334 -0.3254
28863W        W71780  28.622  32.331  22.439 -0.1470  0.1843  0.0976
28864W        W71781  26.703  33.031  27.691 -0.0306 -0.0392  0.2331
28865W        W71782  30.045  32.187  25.481 -0.1516 -0.0279  0.1358
28866W        W71783  30.703  27.850  26.693  0.0702 -0.1845 -0.1527
28867W        W71784  29.010  31.145  24.192 -0.1446 -0.0724 -0.0089
28868W        W71785  26.634  28.438  26.760  0.1497 -0.2978  0.2830
28869W        W71786  26.334  29.606  28.168  0.5119 -0.1637 -0.2669
28870W        W71787  28.653  30.892  25.782 -0.1891 -0.1511  0.0473
28871W        W71788  27.850  29.978  25.486  0.1519 -0.1670  0.5676
28872W        W71789  28.474  29.957  26.365 -0.1420  0.2200 -0.0970
28873W        W71790  26.730  30.221  24.218  0.3981 -0.1367  0.4007
28874W        W71791  26.269  31.277  26.486  0.2210  0.0431  0.3701
28875W        W71792  28.643  31.146  25.339  0.0217  0.1599 -0.2042
28876W        W71793  26.483  29.072  25.220 -0.0684  0.1616 -0.0428
28877W        W71794  29.879  31.825  24.836 -0.1824 -0.0557  0.2078
28878W        W71795  29.107  30.676  25.958 -0.0894 -0.2225 -0.1998
28879W        W71796  26.308  31.120  24.753 -0.3729 -0.0332  0.0388
28880W        W71797  30.703  30.387  23.826  0.0673 -0.2035  0.1460
28881W        W71798  27.220  30.854  26.451 -0.1232 -0.1836 -0.0956
28882W        W71799  29.699  31.134  28.278 -0.2180  0.0849 -0.2122
28883W        W71800  28.189  31.920  25.187 -0.1054 -0.1315 -0.0519
28884W        W71801  24.861  31.860  25.723 -0.1584  0.0592  0.2117
28885W        W71802  26.343  29.618  26.403  0.3009 -0.1033  0.2334
28886W        W71803  26.936  31.937  23.032  0.0348 -0.0307 -0.3981
28887W        W71804  27.800  33.072  26.931 -0.2649 -0.2801 -0.2899
28888W        W71805  29.242  30.809  26.994  0.2276  0.0190 -0.1394
28889W        W71806  26.509  29.831  23.973  0.0617  0.0452  0.2095
28890W        W71807  25.308  29.311  25.954 -0.0877  0.1282  0.1697
28891W        W71808  27.098  31.932  26.261 -0.0310  0.3517 -0.0729
28892W        W71809  27.345  31.403  24.889 -0.0195 -0.1652  0.0753
28893W        W71810  24.655  30.989  31.101 -0.1000 -0.0569 -0.1825
28894W        W71811  24.400  29.777  28.509  0.2615  0.3028 -0.0108
28895W        W71812  30.260  27.705  26.981  0.2985 -0.0113 -0.2521
28896W        W71813  29.405  32.620  28.691 -0.3355  0.4388 -0.0245
28897W        W71814  25.371  29.333  28.129  0.3758 -0.0304  0.1016
28898W        W71815  28.096  32.279  27.176  0.1709 -0.0525  0.1320
28899W        W71816  25.921  30.135  30.038 -0.2317  0.3236 -0.0214
28900W        W71817  28.488  32.037  27.779  0.0760  0.0215 -0.1913
28901W        W71818  29.802  32.370  30.311  0.0739  0.0550  0.0288
28902W        W71819  28.831  29.479  26.195  0.1491  0.1344 -0.1428
28903W        W71820  27.822  29.438  30.221  0.3351 -0.3361 -0.0041
28904W        W71821  27.512  31.795  28.368  0.1042 -0.2238  0.0936
28905W        W71822  26.492  28.200  25.034  0.1477  0.4180  0.1772
28906W        W71823  24.574  28.021   0.479 -0.1249 -0.0854  0.2237
28907W        W71824  27.766  30.959  30.560 -0.0680 -0.0092  0.1087
28908W        W71825  26.618  30.834  27.710 -0.1096  0.2781  0.0194
28909W        W71826  26.435  29.816   0.229 -0.1877  0.1728 -0.2788
28910W        W71827  27.394  28.629  28.634  0.2829 -0.3793  0.1270
28911W        W71828  28.013  33.028  29.525  0.0858  0.1773  0.0307
28912W        W71829  26.931  31.808  29.203  0.0110 -0.2815 -0.1351
28913W        W71830  26.598  29.454  31.381 -0.1374  0.1237 -0.0392
28914W        W71831  29.514  32.876  29.483 -0.1923 -0.4463  0.0938
28915W        W71832  26.961  31.862  28.661  0.1374  0.3654  0.0627
28916W        W71833  26.581  29.016  29.856  0.0742 -0.0056 -0.0671
28917W        W71834  26.712  30.520  30.666  0.3012  0.1252 -0.3362
28918W        W71835  26.603  31.994  27.991  0.2759  0.0169  0.0234
28919W        W71836  27.488  29.298  27.763  0.2980  0.0651  0.0692
28920W        W71837  29.091  32.253  28.241 -0.0668  0.0197  0.0281
28921W        W71838  25.096  33.755  30.498  0.0224 -0.2475  0.0447
28922W        W71839  28.729  33.776  30.910  0.1301  0.2092  0.2473
28923W        W71840  24.468  31.198  29.478  0.1248  0.0847 -0.1370
28924W        W71841  24.951  32.310  28.333 -0.1014 -0.3145 -0.1398
28925W        W71842  25.517  31.296  30.397 -0.1280  0.3616 -0.1337
28926W        W71843  27.822  31.640  28.787  0.1665  0.1184  0.0569
28927W        W71844  27.916  34.096  30.409  0.0184  0.1689 -0.1604
28928W        W71845  27.879  32.122  30.252 -0.1062 -0.0513  0.1394
28929W        W71846  27.570  31.305  28.345 -0.0814  0.0821  0.0763
28930W        W71847  25.660  31.366  31.052 -0.2125  0.1175  0.1166
28931W        W71848  25.294  33.485   0.199 -0.1030 -0.0250 -0.5381
28932W        W71849  26.804  31.414  28.863  0.1442 -0.0522  0.2044
28933W        W71850  26.099  31.531  28.640 -0.0387  0.0350 -0.4517
28934W        W71851  28.022  31.870  27.611  0.0582  0.0223  0.1164
28935W        W71852  26.253  32.420  29.644 -0.0449  0.2773 -0.0905
28936W        W71853  25.923  28.634  31.367 -0.2346 -0.2048 -0.2602
28937W        W71854  26.260  29.569  28.706  0.2731  0.2296 -0.1682
28938W        W71855  29.684  31.552   0.352 -0.1059  0.3323 -0.3893
28939W        W71856  26.189  30.108  26.693  0.4051  0.2863 -0.1369
28940W        W71857  29.924  31.033  27.803 -0.1741 -0.0013 -0.2287
28941W        W71858  26.370  32.149  27.541 -0.6400  0.2651 -0.0256
28942W        W71859  28.809  28.779  27.364  0.0719 -0.2008 -0.1306
28943W        W71860  25.845  29.323  28.894  0.1260 -0.2367  0.1012
28944W        W71861  27.194  32.504  29.974 -0.0570 -0.1350  0.1575
28945W        W71862  24.983  31.596  28.824 -0.1255  0.0831  0.3414
28946W        W71863  28.592  31.802  31.365  0.0241  0.0308  0.0797
28947W        W71864  27.959  30.208  27.330  0.0015  0.2464  0.1866
28948W        W71865  28.493  30.404  28.957  0.1721  0.1852 -0.0398
28949W        W71866  26.643  32.266  29.332  0.2678  0.0893  0.0175
28950W        W71867  25.113  30.485  28.669  0.0517 -0.0911  0.0143
28951W        W71868  28.649  31.245  27.753  0.1886  0.4080  0.1556
28952W        W71869  31.090  31.562  29.208 -0.3878 -0.1636 -0.2561
28953W        W71870  26.124  33.631  27.043 -0.0280  0.4334  0.0895
28954W        W71871  25.468  30.564  28.054 -0.0554 -0.2928 -0.3668
28955W        W71872  27.120  30.656  29.116 -0.0755  0.1367  0.2386
28956W        W71873  26.402  28.840  31.363 -0.1494  0.0617 -0.0552
28957W        W71874  25.949  28.636  26.224 -0.1112 -0.0607  0.0219
28958W        W71875  29.396  30.712  30.903  0.0882  0.0006 -0.0176
28959W        W71876  25.721  32.452  28.778  0.0653  0.2309  0.0423
28960W        W71877  28.186  30.337  28.572 -0.0689  0.0783  0.1632
28961W        W71878  25.983  29.997  30.961 -0.1301  0.0448 -0.1259
28962W        W71879  27.087  31.541  30.178  0.1778  0.0787  0.2673
28963W        W71880  30.497  32.624  29.348 -0.0447  0.1572  0.0871
28964W        W71881  26.605  28.891  27.597 -0.0150  0.0445 -0.2605
28965W        W71882  27.378  29.615  28.245  0.1281  0.0028 -0.0553
28966W        W71883  26.866  30.902  25.342 -0.0896 -0.2531 -0.2699
28967W        W71884  25.502  30.336  27.069 -0.1706 -0.3437 -0.1502
28968W        W71885  29.184  31.759  30.810 -0.1886 -0.0161 -0.2529
28969W        W71886  28.340  30.169  27.805  0.1028 -0.1636 -0.1744
28970W        W71887  25.049  32.821  29.847 -0.3761  0.2286 -0.1546
28971W        W71888  28.165  30.289  30.710  0.4678  0.1426 -0.0555
28972W        W71889  26.064  30.479  30.845  0.1601 -0.1658  0.0136
28973W        W71890  27.389  32.880  26.782 -0.1656  0.0690  0.0030
28974W        W71891  22.525  32.255  30.536 -0.2262  0.0181  0.2994
28975W        W71892  26.382  30.714  28.135 -0.1611  0.0376  0.0246
28976W        W71893  24.981  27.872   0.273  0.0784 -0.1161 -0.0773
28977W        W71894  25.506  33.110  29.953 -0.2614  0.0723  0.1044
28978W        W71895  28.091  31.063  29.400  0.1539  0.2426  0.1465
28979W        W71896  27.646  29.054  29.921  0.3511 -0.1325 -0.0440
28980W        W71897  28.726  27.680  30.379  0.2267  0.1622 -0.2924
28981W        W71898  28.469  31.607  27.480 -0.3372  0.0505  0.0476
28982W        W71899  31.167  32.527  28.892 -0.1320  0.1089 -0.1244
28983W        W71900  27.688  30.568  26.951 -0.3457  0.0919  0.2980
28984W        W71901  28.988  32.183  26.087 -0.3479 -0.0032  0.1066
28985W        W71902  26.608  29.613  29.627 -0.2473 -0.0123  0.0442
28986W        W71903  26.417  28.882  29.411  0.1112 -0.0922 -0.1740
28987W        W71904  28.772  28.004  31.541 -0.1016 -0.1923 -0.2143
28988W        W71905  24.244  27.677   0.593 -0.0619 -0.0748  0.3672
28989W        W71906  29.647  32.199  29.020 -0.0042  0.1202  0.3935
28990W        W71907  25.467  28.862  29.282 -0.3482 -0.0578  0.0039
28991W        W71908  26.355  30.744  26.565  0.1181 -0.1320 -0.0571
28992W        W71909  27.740  29.940  26.088  0.0255 -0.1181  0.0615
28993W        W71910  25.640  30.897  28.450 -0.1581  0.2177  0.2060
28994W        W71911  27.590  29.845  29.915 -0.0795 -0.1466 -0.0957
28995W        W71912  28.037  30.776  26.627 -0.0015 -0.0757  0.0302
28996W        W71913  27.913  33.544  31.283  0.0932  0.0296  0.3253
28997W        W71914  30.267  32.794  28.947  0.0786 -0.0397  0.2049
28998W        W71915  27.214  28.966  30.719 -0.0477 -0.0095 -0.0941
28999W        W71916  25.125  29.912  28.877 -0.0393 -0.0349 -0.0786
29000W        W71917  27.184  31.205  29.205  0.1257 -0.1288 -0.0536
29001W        W71918  27.433  33.461  27.593  0.0802  0.1009  0.1216
29002W        W71919  26.446  27.552  29.633 -0.2568  0.2986 -0.6272
29003W        W71920  32.031  30.340  28.264  0.0651  0.1152 -0.0045
29004W        W71921  28.056  31.743  29.221 -0.4173  0.2188  0.2612
29005W        W71922  25.233  31.433  30.784  0.0190 -0.2465  0.0602
29006W        W71923  28.216  29.768  30.621 -0.1215 -0.1286  0.3269
29007W        W71924  30.687  32.758  30.212 -0.1367 -0.3767  0.1185
29008W        W71925  29.089  30.930  28.411  0.5613  0.2540  0.0184
29009W        W71926  25.573  30.795  29.039 -0.0573  0.1708  0.0639
29010W        W71927  29.295  32.541  27.859  0.0363 -0.0386  0.1183
29011W        W71928  25.206  31.846  27.142 -0.1113 -0.0705  0.0209
29012W        W71929  26.566  28.698  30.410 -0.3170 -0.1860 -0.0492
29013W        W71930  25.964   0.406  28.433 -0.2132  0.1467 -0.3332
29014W        W71931  28.101  30.753  29.048  0.0634  0.0061  0.5927
29015W        W71932  25.356  29.179  30.177  0.0437  0.0678 -0.0632
29016W        W71933  27.604  30.705  28.407 -0.0951 -0.0325 -0.1021
29017W        W71934  26.163  28.169  26.854 -0.0380  0.2368  0.0582
29018W        W71935  27.801  30.004  31.445  0.0634  0.0918 -0.0655
29019W        W71936  26.188  29.953  27.628  0.0698  0.1589  0.2179
29020W        W71937  29.209  29.614  26.981 -0.3083  0.2187  0.1388
29021W        W71938  27.979  32.675  30.599  0.1255  0.0311  0.0400
29022W        W71939  29.498  31.063  26.043 -0.3247  0.1728  0.0124
29023W        W71940  27.684  31.440  25.766  0.0085  0.2181  0.0237
29024W        W71941  26.548  30.374  28.409  0.3830  0.2928  0.1886
29025W        W71942  26.730  31.300  29.868  0.0429 -0.2139  0.0646
29026W        W71943  26.662  31.391  27.896 -0.0352  0.3922  0.1614
29027W        W71944  27.373  31.794  27.560 -0.0179 -0.1815  0.0116
29028W        W71945  26.716  31.284  26.879  0.1992  0.4851  0.1510
29029W        W71946  30.052  31.270  29.167  0.2037 -0.0929 -0.0276
29030W        W71947  26.192  30.105  28.058 -0.3607 -0.2366  0.2791
29031W        W71948  27.514  31.268  30.225 -0.0725 -0.2316  0.0500
29032W        W71949  25.241  32.106  27.970 -0.0110  0.0340  0.3285
29033W        W71950  27.487  28.487  29.836  0.0416 -0.2324 -0.2947
29034W        W71951  26.305  30.427  27.661  0.0585  0.1262  0.0494
29035W        W71952  26.873  29.442  28.275  0.1322  0.2648  0.2533
29036W        W71953  26.363  34.208  27.984  0.1200 -0.3766  0.0852
29037W        W71954  28.892  29.329  30.023 -0.1574  0.0300 -0.0974
29038W        W71955  26.895  30.964  29.551 -0.3691  0.0259 -0.4959
29039W        W71956  26.948  28.072  29.178 -0.0289 -0.1810 -0.0684
29040W        W71957  28.945  28.375  31.034 -0.0669  0.0208  0.1344
29041W        W71958  29.860  30.532  27.760 -0.2355 -0.1020  0.0600
29042W        W71959  27.512  32.084  27.001 -0.3419 -0.1984  0.0676
29043W        W71960  26.685  30.882  28.916 -0.0130 -0.0042  0.2617
29044W        W71961  28.741  31.698  29.997 -0.0645  0.1858  0.4142
29045W        W71962  26.357  29.805  29.994  0.1093 -0.1966 -0.0513
29046W        W71963  26.253  34.098  31.226  0.3206  0.3328  0.0263
29047W        W71964  30.543  31.807  28.801  0.2899  0.1369  0.1760
29048W        W71965  28.513  31.377  29.303 -0.2487  0.1462  0.0141
29049W        W71966  28.070  30.525  30.206  0.1241  0.0367 -0.2729
29050W        W71967  28.724  31.839  25.919 -0.0680  0.0526 -0.1773
29051W        W71968  26.387  32.477  28.843 -0.1050 -0.1125 -0.2278
29052W        W71969  24.598  32.754  30.014  0.1193 -0.0136 -0.0749
29053W        W71970  28.299  27.593  28.610 -0.0201  0.2326 -0.0166
29054W        W71971  28.251  31.850  28.774 -0.3176 -0.2735 -0.0792
29055W        W71972  25.855  33.212  29.577  0.0413 -0.0445  0.2229
29056W        W71973  27.556  30.883  31.016 -0.4751  0.0141  0.1342
29057W        W71974  24.764  32.057  28.731  0.0791 -0.1607  0.0047
29058W        W71975  28.418  31.133  29.775  0.0459 -0.1806  0.3808
29059W        W71976  24.622  31.327  29.053 -0.2796 -0.1432  0.1286
29060W        W71977  25.310  28.586  28.451 -0.1115  0.0192  0.0302
29061W        W71978  24.676  30.262  27.654 -0.0154 -0.0534 -0.2382
29062W        W71979  28.610  30.921  29.161 -0.2494 -0.1145 -0.0615
29063W        W71980  30.520  32.017  30.048 -0.1187  0.0260 -0.1244
29064W        W71981  25.466  29.817  29.261  0.1472  0.2762 -0.0821
29065W        W71982  27.112  29.816  29.589  0.0740 -0.2312 -0.1783
29066W        W71983  23.340  31.858  27.954 -0.4283 -0.0917  0.0247
29067W        W71984  28.332  31.558  27.944  0.4160 -0.0273  0.1680
29068W        W71985  30.039  30.758  27.355  0.1818 -0.0805  0.0123
29069W        W71986  28.499  32.293  28.883  0.1572 -0.2141 -0.1530
29070W        W71987  25.188  31.732  29.773  0.0681 -0.1839  0.0005
29071W        W71988  22.796  30.050  27.296  0.2274 -0.2996 -0.0130
29072W        W71989  28.854  28.349  30.234  0.2994  0.0124 -0.0311
29073W        W71990  26.972  30.141  29.273  0.2863  0.0659  0.0879
29074W        W71991  23.777  32.058  27.797 -0.1020 -0.3388 -0.0614
29075W        W71992  27.606  32.706  30.125  0.0664  0.2707  0.0556
29076W        W71993  28.071  30.999  28.084 -0.3959  0.0205 -0.1939
29077W        W71994  25.114  29.333  29.329 -0.4296 -0.0151 -0.0778
29078W        W71995  28.155  29.575  31.531 -0.0862 -0.2441 -0.0913
29079W        W71996  29.989  32.020  29.907 -0.0850 -0.4026  0.0497
29080W        W71997  26.323  31.177  28.954 -0.2246 -0.1103 -0.1214
29081W        W71998  27.475  30.376  28.849 -0.2477  0.2059 -0.0734
29082W        W71999  25.956  31.177  27.522 -0.2000  0.1098  0.2458
29083W        W72000  29.878  32.529  28.547 -0.1208 -0.1657 -0.4083
29084W        W72001  28.045  30.725  29.754 -0.1794 -0.0430 -0.2113
29085W        W72002  25.991  33.522  31.334 -0.0697 -0.0888  0.0914
29086W        W72003  28.749  27.114  29.238 -0.2302  0.2332 -0.3217
29087W        W72004  30.851  33.109  30.793 -0.3568 -0.0617 -0.2426
29088W        W72005  27.937  32.547  29.748  0.3538 -0.1586 -0.1023
29089W        W72006  27.459  29.066  28.255 -0.3058 -0.0734 -0.3627
29090W        W72007  25.283  31.272  29.641  0.1055 -0.1573 -0.1650
29091W        W72008  26.619  28.418  29.140  0.0487  0.3148 -0.1480
29092W        W72009  26.491  30.798  31.120 -0.0392 -0.1532 -0.2050
29093W        W72010  25.044  31.593  29.308 -0.1425  0.2152  0.0335
29094W        W72011  27.701  29.574  26.859 -0.0060  0.0591 -0.3734
29095W        W72012  21.459  30.468  29.088 -0.1060  0.2321 -0.0504
29096W        W72013  29.451  29.387  27.833  0.0517 -0.2214 -0.2104
29097W        W72014  29.629  31.183  26.539  0.0230  0.1450 -0.1367
29098W        W72015  25.749  31.569  27.873 -0.1973  0.0560  0.3293
29099W        W72016  26.866  29.140  30.350  0.0006 -0.1494  0.1332
29100W        W72017  28.289  31.393  28.416  0.0780  0.0886  0.0358
29101W        W72018  29.143  28.883  30.253  0.1539  0.0251  0.2403
29102W        W72019  27.709  29.956  30.434 -0.3281 -0.0117 -0.2169
29103W        W72020  29.076  31.433  29.025  0.0091 -0.2476 -0.2747
29104W        W72021  26.931  28.943   0.352 -0.2390  0.0667  0.2206
29105W        W72022  27.087  32.867  30.273  0.1650 -0.0570  0.3701
29106W        W72023  22.685  29.756   0.432  0.1340 -0.1166  0.0752
29107W        W72024  28.280  29.107  26.735  0.2604  0.2751 -0.0202
29108W        W72025  25.293  29.425  28.869 -0.1515 -0.2915  0.0173
29109W        W72026  25.534  31.837  28.234  0.3058 -0.3807 -0.6335
29110W        W72027  29.999  30.705  29.081  0.1303  0.0965  0.2650
29111W        W72028  25.509  31.595  28.887  0.2226 -0.1229  0.0092
29112W        W72029  25.498  30.210  28.493 -0.1112 -0.0702 -0.0906
29113W        W72030  25.536  31.635  29.397 -0.1516 -0.1036  0.0562
29114W        W72031  28.882  31.404  25.763  0.1432  0.1205  0.0907
29115W        W72032  27.773  32.591  26.568  0.3009 -0.2362 -0.0942
29116W        W72033  27.057  31.407  28.379 -0.1358  0.0965  0.1106
29117W        W72034  27.352  29.087  31.229  0.1271  0.0232  0.0418
29118W        W72035  27.143  31.921  29.725  0.1110 -0.2392  0.0415
29119W        W72036  28.155  29.052  30.115 -0.0243 -0.3253 -0.0889
29120W        W72037  28.315  32.190  29.394 -0.1332  0.0442  0.3172
29121W        W72038  27.401  29.882  28.929  0.0380 -0.1674 -0.1473
29122W        W72039  29.233  32.487  31.096 -0.0458 -0.0577  0.2788
29123W        W72040  28.551  29.786  29.816 -0.1603 -0.0707  0.0136
29124W        W72041  30.506  31.678  30.508  0.0639 -0.3096  0.1741
29125W        W72042  29.873  30.870  25.311  0.0726  0.2961 -0.2853
29126W        W72043  27.773  28.136  29.689  0.1718  0.2091  0.2847
29127W        W72044  27.841  31.462  27.927 -0.0955 -0.3587  0.2170
29128W        W72045  27.887  31.118  26.955 -0.0700 -0.1938 -0.2150
29129W        W72046  26.316  28.350  30.131 -0.2111 -0.1538  0.0047
29130W        W72047  28.536  32.358  31.309  0.3348 -0.0328  0.1472
29131W        W72048  26.142  29.298  29.816  0.1230  0.1058 -0.2335
29132W        W72049  26.989  30.059  31.504 -0.1902  0.1347 -0.0260
29133W        W72050  26.715  33.282  29.060 -0.0386  0.0928 -0.0211
29134W        W72051  29.882  32.390  29.451 -0.0619  0.1645 -0.2574
29135W        W72052  26.964  30.265  29.785 -0.2900  0.0787  0.1112
29136W        W72053  25.273  29.654  30.224 -0.2915 -0.0985 -0.1634
29137W        W72054  26.000  32.226  31.920  0.0675 -0.1234  0.2225
29138W        W72055  26.976  30.090  27.197 -0.0637 -0.1797  0.3846
29139W        W72056  27.641  31.289  27.506 -0.0557  0.0378 -0.3521
29140W        W72057  27.971  31.043  30.103 -0.3529 -0.1562 -0.2705
29141W        W72058  29.442  31.435  31.097  0.1139  0.0278 -0.2228
29142W        W72059  26.236  29.139  27.822 -0.0424  0.0678  0.1920
29143W        W72060  29.316  29.571  30.712 -0.1297 -0.2599 -0.1596
29144W        W72061  24.500  31.612  28.647  0.0419 -0.2218 -0.1969
29145W        W72062  26.358  29.006  28.820 -0.1223 -0.1653 -0.3093
29146W        W72063  23.840  32.294  28.514  0.0068  0.3290 -0.1518
29147W        W72064  25.135  30.819  31.554 -0.0168  0.1588  0.0943
29148W        W72065  25.367  32.075  28.678 -0.1038  0.0568 -0.0356
29149W        W72066  27.349  29.898  31.169 -0.2282  0.1695  0.1684
29150W        W72067  26.618  31.042  28.465 -0.0170  0.2807 -0.0761
29151W        W72068  27.199  31.419  29.711 -0.0734  0.1040  0.2270
29152W        W72069  30.827  30.363  29.533 -0.7036 -0.3961  0.3036
29153W        W72070  29.118  30.275  29.750 -0.1190  0.1808 -0.2090
29154W        W72071  26.957  30.596  30.247 -0.1378 -0.1411  0.0419
29155W        W72072  27.181  34.112  31.279  0.1145 -0.1757  0.1184
29156W        W72073  28.525  32.609  29.430  0.2725  0.0360  0.0145
29157W        W72074  25.674  32.034  30.089 -0.0810 -0.1349  0.1152
29158W        W72075  25.828  29.756   1.011  0.1744 -0.1485  0.4787
29159W        W72076  26.671  30.627  31.599 -0.0128  0.2377  0.1239
29160W        W72077  28.145  29.913  28.254 -0.4258  0.0011 -0.0151
29161W        W72078  28.228  27.249  29.441 -0.2589 -0.2663  0.1130
29162W        W72079  26.663  30.040  27.743 -0.0169  0.0136 -0.2799
29163W        W72080  26.408  31.815  29.370  0.1767 -0.0758  0.0093
29164W        W72081  27.317  30.134  30.190  0.2593 -0.2976  0.0508
29165W        W72082  26.497  31.332  27.377  0.2001 -0.1549 -0.2381
29166W        W72083  28.588  31.042  28.227 -0.0296 -0.0502 -0.3173
29167W        W72084  26.817  32.275  29.808 -0.1796  0.1671 -0.4302
29168W        W72085  30.580  33.780  30.240  0.0569 -0.0212 -0.0310
29169W        W72086  25.644  31.023  27.925 -0.0124  0.0023 -0.0973
29170W        W72087  26.020  31.181  30.058 -0.0721 -0.0616  0.1292
29171W        W72088  27.312  32.223  27.832  0.0702  0.3450  0.1477
29172W        W72089  27.688  31.144  26.487  0.0857  0.0910  0.0039
29173W        W72090  27.822  34.006  28.275  0.1708 -0.0139  0.1598
29174W        W72091  28.985  30.925  31.103 -0.1499 -0.4525 -0.0275
29175W        W72092  28.854  30.257  27.724 -0.0129  0.0509  0.4413
29176W        W72093  28.986  31.887  28.555  0.0931  0.1319  0.0092
29177W        W72094  27.028  28.438  30.665 -0.0012 -0.0056  0.2145
29178W        W72095  28.647  32.653  29.909 -0.0177 -0.0356  0.3151
29179W        W72096  27.642  29.796  29.396 -0.1704  0.1975  0.2482
29180W        W72097  26.354  29.408  29.179  0.0231  0.0190  0.0965
29181W        W72098  26.614  31.314  29.292  0.2721  0.2049 -0.0677
29182W        W72099  28.576  30.625  30.914 -0.0099  0.0398 -0.2859
29183W        W72100  26.266  30.444  30.349  0.0439  0.2914  0.3198
29184W        W72101  29.202  31.717  28.079  0.0308  0.2464 -0.0823
29185W        W72102  26.967  29.312  29.884 -0.0819 -0.1291 -0.0867
29186W        W72103  24.589  30.825  28.287 -0.0027 -0.1891 -0.0472
29187W        W72104  27.930  27.843  30.787  0.0443 -0.0436  0.0819
29188W        W72105  28.664  31.554  26.398 -0.0470  0.0996  0.0926
29189W        W72106  27.810  30.297  29.788 -0.3822 -0.3841 -0.0575
29190W        W72107  28.283  32.192  30.942  0.1214 -0.3230 -0.0694
29191W        W72108  26.961  31.121  30.997 -0.1842  0.0882  0.3432
29192W        W72109  25.080  33.426  30.127 -0.2169 -0.4226 -0.1857
29193W        W72110  26.407  29.119  28.338  0.0526 -0.1420  0.1483
29194W        W72111  30.780  32.433  29.809  0.0668 -0.0316  0.0721
29195W        W72112  26.454  30.103  30.774  0.2549 -0.0007  0.3744
29196W        W72113  28.922  29.163  30.601  0.0230 -0.1717  0.0758
29197W        W72114  26.981  28.948  28.449 -0.1759 -0.1565 -0.0761
29198W        W72115  27.763  29.009  30.460  0.1498  0.0252 -0.0597
29199W        W72116  27.482  31.745  29.341  0.2181  0.1892  0.2513
29200W        W72117  25.446  30.822  30.528 -0.1604 -0.0098  0.2212
29201W        W72118  28.227  30.673  27.145 -0.2022 -0.1616 -0.0048
29202W        W72119  28.494  29.028  30.906 -0.1101 -0.1592  0.2649
29203W        W72120  28.445  30.962  26.407  0.2120  0.1147 -0.0264
29204W        W72121  30.042  32.764  30.220  0.1087  0.1791  0.0385
29205W        W72122  27.436  27.586  30.887  0.0812 -0.1075 -0.1129
29206W        W72123  27.880  29.533  27.967  0.1384 -0.1661 -0.0241
29207W        W72124  25.738  29.809  28.787  0.1262 -0.3129  0.3273
29208W        W72125  25.644  31.504  29.900 -0.1138 -0.3835  0.1184
29209W        W72126  27.553  32.267  29.771 -0.0228 -0.1053 -0.3561
29210W        W72127  24.849  29.201  30.112  0.3348 -0.0168  0.0172
29211W        W72128  28.797  32.010  29.144  0.0552  0.2443  0.2348
29212W        W72129  28.489  28.867  29.137  0.1205  0.1561 -0.2387
29213W        W72130  27.532  32.748  29.321 -0.0509 -0.2060  0.0155
29214W        W72131  27.701  30.063  28.394  0.0575  0.0200 -0.1838
29215W        W72132  30.163  33.433  29.545  0.0365 -0.2681  0.2538
29216W        W72133  26.836  30.237  28.767  0.0437 -0.1600 -0.1977
29217W        W72134  27.833  33.145  30.514 -0.1066  0.2492 -0.0701
29218W        W72135  30.488  33.144  28.070 -0.1552  0.0476 -0.1497
29219W        W72136  27.380  29.406  29.612  0.0274 -0.1187 -0.0505
29220W        W72137  27.486  30.252  29.378  0.0344  0.2230 -0.0388
29221W        W72138  23.683  31.954  29.108  0.1185 -0.5308 -0.1956
29222W        W72139  28.308  29.917  28.817  0.0723 -0.4429  0.1927
29223W        W72140  28.395  28.922  29.669 -0.1303 -0.3395 -0.0875
29224W        W72141  26.816  31.874  27.575 -0.2615  0.1724  0.0677
29225W        W72142  28.922  31.009  30.234  0.0621  0.1189 -0.1150
29226W        W72143  25.275  30.687  29.490  0.5866  0.0755  0.5476
29227W        W72144  27.559  33.553  29.734  0.2668 -0.1137  0.0676
29228W        W72145  27.037  29.149  27.916 -0.1476  0.2949  0.0773
29229W        W72146  25.576  31.014  29.908  0.1237  0.0639 -0.1237
29230W        W72147  27.279  32.073  30.204  0.2134 -0.2531  0.1543
29231W        W72148  26.843  32.778  29.652  0.0724 -0.2166 -0.0855
29232W        W72149  28.144  32.589  29.117  0.0567 -0.1437  0.0722
29233W        W72150  28.420  31.254  26.843  0.0717 -0.2163  0.0489
29234W        W72151  31.869  30.295  30.331  0.1939 -0.0188 -0.1796
29235W        W72152  26.050  30.536  28.489  0.0948  0.0512  0.4704
29236W        W72153  28.840  31.434  28.288  0.0317 -0.0360  0.2630
29237W        W72154  27.895  27.562  29.981  0.1784 -0.0494 -0.0124
29238W        W72155  27.986  30.392  31.148  0.1421 -0.1003 -0.0532
29239W        W72156  25.306  30.729  26.190  0.0762  0.2877 -0.2054
29240W        W72157  26.191  31.167  28.016  0.3437  0.4667  0.0986
29241W        W72158  28.002  33.541  29.548 -0.1480  0.1885 -0.2369
29242W        W72159  29.446  29.063  30.603  0.1268  0.0263  0.2863
29243W        W72160  27.163  30.225  30.698 -0.1136 -0.3804  0.2385
29244W        W72161  25.858  30.380  28.893 -0.2423 -0.0038  0.3137
29245W        W72162  26.798  27.193  29.746 -0.3184 -0.0671 -0.0837
29246W        W72163  30.760  30.113  28.490  0.1435  0.1853 -0.1390
29247W        W72164  25.418  29.317  29.720  0.3071  0.2756  0.0155
29248W        W72165  25.961  27.999  30.082  0.2036 -0.1173  0.2522
29249W        W72166  28.133  31.193  27.601  0.2670 -0.0871 -0.1158
29250W        W72167  29.530  31.398  29.152 -0.2377  0.1215  0.1849
29251W        W72168  27.109  28.529  29.023  0.3040  0.0137 -0.1332
29252W        W72169  30.122  28.463  30.261 -0.1929  0.1645 -0.2048
29253W        W72170  26.242  29.670  27.031  0.0512  0.1680 -0.5314
29254W        W72171  26.863  31.618  31.319 -0.0444 -0.2234  0.0392
29255W        W72172  26.941  28.678  29.483 -0.5655  0.0490 -0.2777
29256W        W72173  24.136  30.903  29.847 -0.1860 -0.5017 -0.0645
29257W        W72174  27.624  30.728  29.264 -0.1743 -0.0694  0.2294
29258W        W72175  30.510  30.905  29.102 -0.1811 -0.1308 -0.2927
29259W        W72176  29.725  32.334  27.053  0.0194  0.2442 -0.0513
29260W        W72177  27.323  29.270  30.283 -0.1516 -0.4692  0.2323
29261W        W72178  26.365  32.462  30.655 -0.1877  0.1348  0.3759
29262W        W72179  25.003  28.960  30.911 -0.1439 -0.2893  0.0909
29263W        W72180  28.152  31.970  26.061 -0.0660  0.1514 -0.1298
29264W        W72181  26.122  33.814  28.684  0.0576  0.1201 -0.0857
29265W        W72182  30.820  30.433  27.575 -0.0879  0.1464 -0.0842
29266W        W72183  28.424  29.493  30.231  0.1038  0.3150  0.3121
29267W        W72184  25.735  31.413  28.318  0.0855 -0.2153 -0.0197
29268W        W72185  27.383  26.930  29.224 -0.0172 -0.2502  0.2280
29269W        W72186  24.914  30.989  29.342 -0.1857  0.0573  0.1126
29270W        W72187  31.770  33.364  29.565 -0.0724  0.0337 -0.1284
29271W        W72188  29.088  31.095  27.931  0.3249  0.1385  0.0447
29272W        W72189  29.175  30.262  26.241 -0.0294 -0.0608  0.1099
29273W        W72190  28.761  32.964  30.299 -0.2857  0.2069  0.0825
29274W        W72191  25.926  30.632  27.973  0.1884 -0.3363 -0.1141
29275W        W72192  28.267  30.692  27.640  0.1112  0.3653 -0.0450
29276W        W72193  25.293  29.935  30.845  0.0272  0.3816 -0.0335
29277W        W72194  27.988  31.526  26.671 -0.0170 -0.2456 -0.2072
29278W        W72195  28.647  31.364  31.699  0.2869 -0.0117 -0.0233
29279W        W72196  26.764  29.278  28.786 -0.1102 -0.0724  0.2364
29280W        W72197  28.717  30.832  26.885 -0.1797 -0.1580 -0.0807
29281W        W72198  27.301  31.365  30.668 -0.0195 -0.2627  0.2305
29282W        W72199  29.721  32.606   0.620  0.4252 -0.3827 -0.1356
29283W        W72200  28.330  31.699  29.642 -0.2741  0.2290  0.2042
29284W        W72201  29.526  31.922  30.292  0.0239 -0.1360  0.2641
29285W        W72202  26.748  29.365  31.866  0.0666 -0.0463  0.3438
29286W        W72203  26.858  30.924  27.272 -0.0461 -0.2355 -0.0081
29287W        W72204  23.854  31.015  28.785 -0.0078 -0.1165 -0.0044
29288W        W72205  29.004  30.385  28.734  0.1936 -0.1265  0.2638
29289W        W72206  26.915  29.719  28.706 -0.3363 -0.1081 -0.0317
29290W        W72207  27.273  31.373  27.849  0.1916  0.0168  0.0685
29291W        W72208  24.284  31.378  31.351 -0.2525 -0.1604  0.1011
29292W        W72209  29.096  32.777  29.089 -0.1187 -0.0046 -0.2672
29293W        W72210  28.545  27.992  29.322 -0.0272  0.1859 -0.0428
29294W        W72211  29.498  31.725  28.785  0.1647  0.0440  0.1824
29295W        W72212  26.861  28.771  31.013  0.0011 -0.1310 -0.0418
29296W        W72213  25.963  30.911  30.497 -0.2123 -0.0609 -0.0457
29297W        W72214  28.711  32.104  31.758 -0.0593  0.0568  0.2330
29298W        W72215  23.837  32.259  29.518  0.3589  0.0266 -0.0223
29299W        W72216  28.216  32.548   0.248 -0.0030 -0.0576 -0.1884
29300W        W72217  25.924  29.131  30.799  0.1574 -0.1149  0.2908
29301W        W72218  28.686  30.331  31.505 -0.0781 -0.3038 -0.0609
29302W        W72219  29.273  34.515  31.775  0.2290  0.0327  0.1027
29303W        W72220  29.448  32.204  30.694  0.0041 -0.1035  0.1546
29304W        W72221  28.730  29.637  30.652  0.2547  0.2343 -0.1132
29305W        W72222  29.318  32.424  29.352 -0.2538  0.0280 -0.0856
29306W        W72223  27.975  32.012  29.752 -0.0320 -0.2188  0.4101
29307W        W72224  27.666  31.688  30.444  0.3968  0.0317 -0.0808
29308W        W72225  25.914  33.269  30.876 -0.1090 -0.3789 -0.1611
29309W        W72226  25.974  30.366  31.331  0.0223  0.2076  0.0104
29310W        W72227  29.795  31.793  30.823  0.0064  0.0344 -0.1899
29311W        W72228  28.141  30.776  31.927 -0.4683  0.3017  0.0656
29312W        W72229  25.317  29.617  31.474  0.1655 -0.1825 -0.0027
29313W        W72230  27.324  28.748  30.314 -0.0814  0.0653 -0.0786
29314W        W72231  25.507  32.542  30.613 -0.1103 -0.2177  0.0063
29315W        W72232  29.072  29.809  31.172 -0.1917 -0.1232  0.0766
29316W        W72233  29.394  29.847   0.250  0.1020  0.1900 -0.0352
29317W        W72234  28.070  29.558   0.356  0.0316 -0.1694  0.0024
29318W        W72235  28.389  30.301  29.841  0.4078 -0.1253  0.1455
29319W        W72236  26.501  30.884  30.215  0.1785 -0.1391 -0.1361
29320W        W72237  25.993  31.391  31.520 -0.3509  0.2834 -0.0177
29321W        W72238  26.472  31.064  30.701  0.0516  0.3713  0.0731
29322W        W72239  27.419  31.877  31.044 -0.0660 -0.0407 -0.2015
29323W        W72240  26.890  31.601  31.823 -0.3388  0.2909 -0.1279
29324W        W72241  27.027  30.827  31.830  0.0942  0.1645  0.1833
29325W        W72242  30.112  28.923  29.939  0.0068  0.0521  0.0169
29326W        W72243  28.551  30.115  30.324 -0.2914  0.2060  0.2023
29327W        W72244  25.712  29.405  29.383  0.2867 -0.0110  0.1535
29328W        W72245  25.198  32.076  30.858 -0.2849  0.1765 -0.2197
29329W        W72246  25.959  31.921  29.530 -0.2183  0.2443 -0.1639
29330W        W72247  26.522  30.415  29.945 -0.2311 -0.0887  0.3516
29331W        W72248  27.549  31.039  29.758 -0.0434 -0.0079 -0.1442
29332W        W72249  27.563  32.249  31.513  0.0501  0.0117  0.0666
29333W        W72250  29.654  29.195  29.973  0.0198  0.5932  0.0509
29334W        W72251  27.112  31.975  30.661 -0.0907 -0.5272 -0.1668
29335W        W72252  26.622  31.685   0.385  0.1357 -0.0348  0.1462
29336W        W72253  26.766  33.250   0.303 -0.0402  0.0962 -0.0583
29337W        W72254  25.685  29.585  31.098  0.2243 -0.2608 -0.3328
29338W        W72255  24.680  30.368   0.613  0.3553 -0.0499  0.0305
29339W        W72256  28.445  31.363   0.715  0.2811  0.1619  0.0662
29340W        W72257  26.812  31.507  30.766  0.0947 -0.1254  0.5023
29341W        W72258  27.634  31.026  28.824  0.1553 -0.0443  0.1037
29342W        W72259  24.608  32.677  30.895  0.0390 -0.2258  0.3742
29343W        W72260  27.512  33.313  30.871  0.1233 -0.0878 -0.1687
29344W        W72261  29.411  29.312  29.561  0.0691 -0.1697  0.1002
29345W        W72262  26.625  28.054   0.768  0.0514 -0.1941  0.2404
29346W        W72263  27.187  30.736  30.648  0.0344  0.2507  0.0105
29347W        W72264  26.177  30.763  31.567  0.0530 -0.0659 -0.2055
29348W        W72265  29.852  30.553  31.007  0.0134 -0.0622 -0.1618
29349W        W72266  30.022  33.748  31.949  0.2353  0.0922 -0.6180
29350W        W72267  27.208  30.849  31.334 -0.1712  0.1424  0.1377
29351W        W72268  27.171  32.641  31.604 -0.1335 -0.0200 -0.1489
29352W        W72269  27.846  31.804  31.184 -0.2827  0.2104 -0.0029
29353W        W72270  27.096  29.555  31.476  0.1070 -0.1155 -0.0174
29354W        W72271  24.231  33.093  29.810 -0.0376  0.2406  0.0109
29355W        W72272  26.435  30.201  31.238 -0.1662  0.0727  0.0028
29356W        W72273  24.516  28.594   0.716  0.1752  0.1295  0.0885
29357W        W72274  32.062  33.238  30.067  0.2580 -0.2250 -0.2905
29358W        W72275  29.496  34.469  30.870 -0.1523 -0.1026  0.1849
29359W        W72276  31.159  31.906  29.694  0.0427 -0.1157  0.3465
29360W        W72277  24.535  33.723  18.090 -0.0661  0.0807 -0.1204
29361W        W72278  27.989  32.349  17.956 -0.1630 -0.1877 -0.1539
29362W        W72279  31.379  32.940  18.078  0.5044 -0.0028  0.1072
29363W        W72280  25.033  32.960  17.202  0.1716 -0.0935  0.1426
29364W        W72281  28.067  33.690  17.445  0.2104  0.2077 -0.0587
29365W        W72282  29.404   0.773  20.495 -0.3381 -0.0798  0.2455
29366W        W72283  26.387   0.549  17.267  0.0208 -0.0557 -0.1341
29367W        W72284  25.048  31.549  17.163  0.1627 -0.0366 -0.0871
29368W        W72285  25.351  33.681  18.632 -0.0469 -0.0590  0.1660
29369W        W72286  30.649   0.541  18.670  0.2235  0.0250 -0.0045
29370W        W72287  25.494  33.195  18.523  0.0958  0.0090  0.0728
29371W        W72288  26.387   0.920  17.655 -0.0042 -0.1164 -0.2262
29372W        W72289  27.847  34.201  17.666 -0.1042 -0.0479  0.1065
29373W        W72290  26.294  34.359  19.770 -0.1018 -0.2109  0.2416
29374W        W72291  29.276  32.539  19.594  0.2516 -0.1184 -0.0491
29375W        W72292  24.607  32.271  16.475 -0.2098 -0.1180 -0.0464
29376W        W72293  25.667  33.759  19.122  0.1516 -0.1143 -0.1397
29377W        W72294  26.446   1.527  20.461  0.0825  0.0327  0.3519
29378W        W72295  27.741   0.734  17.763  0.0060 -0.1446  0.2387
29379W        W72296  25.262  33.330  19.022 -0.0908  0.1758 -0.1983
29380W        W72297  29.361  33.522  21.258  0.1631  0.3169 -0.2058
29381W        W72298  29.008   1.803  21.112  0.0696  0.2398 -0.1070
29382W        W72299  28.667  34.371  18.240  0.2177  0.4215  0.4092
29383W        W72300  30.207  32.075  20.778 -0.0800  0.1315  0.1203
29384W        W72301  28.635  33.984  16.726 -0.0482 -0.2730  0.3545
29385W        W72302  24.039  32.988  16.428 -0.1392 -0.0275 -0.0763
29386W        W72303  30.235  32.257  18.682  0.1356 -0.0907 -0.1937
29387W        W72304  26.507   0.912  19.343 -0.3400 -0.3164  0.3630
29388W        W72305  25.789  32.655  17.993  0.3686  0.0649 -0.1440
29389W        W72306  27.245   0.091  17.503  0.3207 -0.2082  0.0774
29390W        W72307  30.821  32.701  19.727  0.1535 -0.0829 -0.1841
29391W        W72308  25.013   0.507  18.390 -0.0922  0.0914  0.1810
29392W        W72309  24.513  33.256  18.161  0.2199 -0.1601 -0.1379
29393W        W72310  28.566   0.198  19.963  0.2832 -0.0243  0.2558
29394W        W72311  25.805  34.567  18.591 -0.0523 -0.0252  0.2199
29395W        W72312  25.001  31.125  16.864  0.1606 -0.0098  0.0807
29396W        W72313  29.805   0.776  19.024  0.3693 -0.2590  0.0477
29397W        W72314  28.094  33.496  19.341 -0.1807  0.1122 -0.0557
29398W        W72315  29.438  32.721  18.827  0.1884 -0.1091  0.1073
29399W        W72316  29.607  34.596  16.768  0.0460 -0.0576 -0.2109
29400W        W72317  27.376  34.670  18.868 -0.3149 -0.1411 -0.0042
29401W        W72318  27.140  33.910  17.847 -0.1129 -0.0178  0.1283
29402W        W72319  29.547  32.869  17.970 -0.1781 -0.1132 -0.0783
29403W        W72320  27.137  33.070  18.262  0.2470  0.0123  0.4824
29404W        W72321  29.520  33.163  16.972 -0.3182 -0.2434  0.1601
29405W        W72322  29.504  33.589  17.269  0.1099  0.0529  0.1506
29406W        W72323  25.673  34.240  20.281 -0.1255  0.0452  0.1785
29407W        W72324  28.098  34.108  18.850  0.1336 -0.0615  0.2216
29408W        W72325  26.036   0.663  18.850 -0.0545 -0.1674 -0.2459
29409W        W72326  24.414  33.346  19.085 -0.0087 -0.2764  0.0054
29410W        W72327  27.187   0.308  19.238 -0.0148  0.3053  0.4401
29411W        W72328  25.233  33.398  16.511  0.0674 -0.1641 -0.1491
29412W        W72329  30.340  32.808  19.871  0.0547  0.2494 -0.1574
29413W        W72330  28.019   0.265  18.192 -0.0402  0.0720 -0.2588
29414W        W72331  27.992  34.504  20.078 -0.0768  0.0634 -0.2992
29415W        W72332  27.033   0.334  18.659  0.1982 -0.0014 -0.0437
29416W        W72333  26.779  33.588  16.272  0.1690 -0.0836  0.0273
29417W        W72334  25.336  33.420  17.610 -0.3421 -0.0122 -0.0707
29418W        W72335  28.768   0.683  18.812  0.1021  0.1962  0.1453
29419W        W72336  28.297  34.185  17.272  0.1057 -0.1935  0.0109
29420W        W72337  24.646   0.253  17.409 -0.2118 -0.1035  0.0816
29421W        W72338  26.935   2.194  17.496  0.2516  0.0405  0.3158
29422W        W72339  28.934  33.971  19.051 -0.0413 -0.2840  0.0799
29423W        W72340  27.316   2.011  20.575  0.2696 -0.1578  0.1996
29424W        W72341  26.506   1.626  18.744 -0.1709 -0.1962 -0.0392
29425W        W72342  26.528  34.001  16.496  0.0802  0.1947  0.3683
29426W        W72343  26.989  33.796  18.579 -0.4624  0.0014  0.0011
29427W        W72344  28.339  33.511  18.383 -0.3022  0.0718 -0.1464
29428W        W72345  27.872   0.679  18.488 -0.0546  0.1781  0.0002
29429W        W72346  28.374  32.685  17.371 -0.0123  0.0770  0.1235
29430W        W72347  28.548  34.380  19.020 -0.2746 -0.3501 -0.0272
29431W        W72348  26.756  34.661  18.399  0.0847 -0.2349  0.1210
29432W        W72349  26.570  33.043  17.537 -0.0550 -0.1455  0.3136
29433W        W72350  27.410  34.427  17.896 -0.3101 -0.1236  0.0422
29434W        W72351  26.189  34.179  18.711 -0.0054 -0.1981 -0.1088
29435W        W72352  27.108   3.281  18.669 -0.2165 -0.1838 -0.1292
29436W        W72353  30.177  30.642  19.693 -0.1449  0.2401 -0.3025
29437W        W72354  29.408  34.091  18.966  0.3387 -0.1055  0.0390
29438W        W72355  29.174  34.468  18.108 -0.4047  0.2295  0.0018
29439W        W72356  28.732  33.655  18.705  0.2727 -0.2918 -0.1047
29440W        W72357  26.718  33.768  18.075  0.2579 -0.0247 -0.0500
29441W        W72358  26.773  34.099  18.929  0.3841 -0.0210  0.0296
29442W        W72359  26.846  34.201  19.454  0.3705 -0.0753  0.2003
29443W        W72360  26.860  34.391  17.092 -0.0158 -0.0698  0.0980
29444W        W72361  26.178  32.560  17.659  0.0598 -0.1002  0.0342
29445W        W72362  29.562  33.648  19.148  0.0265  0.0289 -0.2462
29446W        W72363  26.144  33.655  16.836  0.0099  0.0511 -0.0802
29447W        W72364  23.379  33.339  17.439 -0.0784  0.0996 -0.3205
29448W        W72365  28.758   0.200  18.504  0.1006  0.1168  0.0840
29449W        W72366  24.470  32.969  20.398  0.1007 -0.1553 -0.1623
29450W        W72367  28.154  33.679  17.972  0.0534  0.1702  0.3455
29451W        W72368  28.722   1.350  20.679 -0.0159 -0.3095  0.0555
29452W        W72369  28.539  33.028  16.999  0.0816  0.3611 -0.2020
29453W        W72370  27.642  34.288  20.347  0.1617  0.1763 -0.1742
29454W        W72371  25.293  32.977  16.776  0.2935  0.0584  0.2010
29455W        W72372  25.771  32.603  19.360 -0.0382 -0.0775 -0.0563
29456W        W72373  29.519   0.150  17.803 -0.2667  0.2763  0.0918
29457W        W72374  27.628  33.636  17.172 -0.3525  0.5136 -0.1199
29458W        W72375  26.025   1.019  19.243  0.1328  0.2130 -0.0295
29459W        W72376  27.188  33.527  18.146  0.1628  0.1609  0.0294
29460W        W72377  27.713  34.318  18.630 -0.2604  0.1955 -0.1146
29461W        W72378  26.850   1.965  18.928 -0.2547  0.1550  0.2301
29462W        W72379  26.249  34.504  18.304  0.0779 -0.2450  0.0652
29463W        W72380  27.151  31.943  17.974  0.0041 -0.2253  0.2112
29464W        W72381  27.176   0.568  20.032 -0.0353 -0.1232  0.1287
29465W        W72382  28.964  33.450  19.091 -0.0614 -0.0244  0.0259
29466W        W72383  31.818  31.748  18.290  0.0248 -0.3105 -0.0484
29467W        W72384  27.376   1.256  19.118 -0.1114 -0.0500  0.0149
29468W        W72385  29.218  33.229  18.745 -0.2946  0.0012  0.3796
29469W        W72386  27.124  33.766  17.194 -0.2316 -0.4879 -0.0289
29470W        W72387  27.540  33.493  19.376  0.0226 -0.0273 -0.1735
29471W        W72388  25.053  33.373  18.268 -0.1225  0.2718  0.0500
29472W        W72389  25.850   1.051  20.075 -0.2501  0.0048 -0.1093
29473W        W72390  27.352   0.435  20.523  0.1861  0.0351  0.0167
29474W        W72391  28.745   1.469  18.347 -0.0240  0.1278 -0.2291
29475W        W72392  24.550  34.545  19.333  0.1424  0.2172  0.0912
29476W        W72393  25.372  33.654  20.469  0.3206  0.1383  0.1428
29477W        W72394  29.291  33.824  17.997 -0.1856  0.0305  0.0170
29478W        W72395  26.593   1.010  18.129  0.1702 -0.2186  0.1300
29479W        W72396  26.730   1.165  19.736  0.0623  0.2039 -0.0325
29480W        W72397  24.906  34.225  19.478 -0.1869  0.1567  0.0752
29481W        W72398  26.655  33.232  18.088  0.4683  0.1426  0.2405
29482W        W72399  26.966  33.347  17.723 -0.1805  0.4433  0.0286
29483W        W72400  29.822  33.847  18.764 -0.3892 -0.0310 -0.2939
29484W        W72401  26.779   0.543  18.166  0.0459 -0.1082  0.2077
29485W        W72402  24.200  32.053  21.256 -0.2297  0.3002  0.1142
29486W        W72403  28.945  33.498  17.743 -0.0259 -0.2684 -0.0863
29487W        W72404  28.021   0.198  19.667 -0.2947  0.1422 -0.2004
29488W        W72405  29.100   0.319  17.999  0.1092  0.0367 -0.1954
29489W        W72406  26.974  33.954  16.670  0.0604 -0.0600 -0.1801
29490W        W72407  26.186  33.411  18.891  0.0837 -0.5174 -0.1653
29491W        W72408  29.130   0.231  19.644 -0.2444 -0.0161 -0.0864
29492W        W72409  27.140  33.702  19.051  0.2403  0.2074 -0.0453
29493W        W72410  27.949  33.666  19.845 -0.1984  0.2149  0.2816
29494W        W72411  28.424  32.616  17.906 -0.1024  0.1276 -0.0616
29495W        W72412  25.446  33.924  17.040  0.0541 -0.3200 -0.1708
29496W        W72413  27.029   0.138  17.960 -0.0808 -0.3418  0.2440
29497W        W72414  24.197   0.073  17.137  0.1619  0.1616 -0.3187
29498W        W72415  29.070  34.086  17.584 -0.0770  0.0033 -0.1250
29499W        W72416  29.984  34.328  20.774  0.1703 -0.1013 -0.1425
29500W        W72417  27.644  32.222  18.267  0.0671 -0.0143  0.2990
29501W        W72418  26.332  33.354  19.392  0.1263 -0.4095  0.1643
29502W        W72419  29.152   0.737  18.341 -0.0772  0.0051 -0.2224
29503W        W72420  26.728   1.674  19.640 -0.0190  0.1550 -0.1255
29504W        W72421  28.990  34.661  21.184 -0.0439  0.0078  0.0204
29505W        W72422  25.911   2.172  18.090  0.0404 -0.1794 -0.0028
29506W        W72423  24.877  33.188  18.699 -0.3178 -0.1326  0.1181
29507W        W72424  26.246  33.314  17.273  0.0671 -0.3449 -0.0224
29508W        W72425  25.821  32.490  16.965 -0.1742 -0.3742 -0.0009
29509W        W72426  25.620  33.195  18.026 -0.0056  0.2345  0.5008
29510W        W72427  27.963  33.920  18.339  0.2905 -0.3044  0.2437
29511W        W72428  29.343  33.657  18.638  0.0447  0.3194 -0.0676
29512W        W72429  26.236   2.551  18.922 -0.0411 -0.2594  0.0249
29513W        W72430  29.901   1.059  17.785 -0.1920 -0.1501  0.0279
29514W        W72431  26.586  34.567  17.821  0.1192  0.3214  0.1451
29515W        W72432  30.987  32.829  21.225  0.0481 -0.0919 -0.1467
29516W        W72433  23.286  33.481  18.845  0.3400 -0.2205 -0.2771
29517W        W72434  25.969  34.226  17.667  0.3368  0.0310 -0.0705
29518W        W72435  28.296   0.157  19.130  0.1126 -0.2864 -0.2461
29519W        W72436  27.018   0.760  18.993 -0.0165  0.1048  0.3197
29520W        W72437  22.115  33.567  18.063  0.0468 -0.1076  0.2113
29521W        W72438  26.862   1.341  19.167  0.0842  0.1244 -0.1428
29522W        W72439  28.474   0.634  18.205  0.1121  0.0048  0.0480
29523W        W72440  30.209  33.488  19.752 -0.0727  0.1956 -0.0099
29524W        W72441  26.981   1.107  17.764 -0.0006  0.0074  0.0115
29525W        W72442  28.951  33.838  17.090  0.2142  0.0899  0.1878
29526W        W72443  25.305  32.889  17.560 -0.0443  0.0622  0.1786
29527W        W72444  28.754  33.888  17.928 -0.0955 -0.1905  0.0815
29528W        W72445  28.944   0.839  20.701  0.0020  0.0657 -0.2654
29529W        W72446  27.373  34.063  17.456 -0.2263  0.3308 -0.1144
29530W        W72447  27.024   1.443  18.189 -0.0730 -0.1768  0.0009
29531W        W72448  28.953  31.695  18.632  0.0954 -0.2114  0.2556
29532W        W72449  27.502   0.452  18.193  0.0821  0.0591  0.0586
29533W        W72450  27.709   0.279  20.159  0.3295 -0.0202  0.1781
29534W        W72451  24.241  33.143  16.857 -0.1636  0.1449 -0.1324
29535W        W72452  29.155   1.382  20.459 -0.0912  0.0737  0.2915
29536W        W72453  29.980  33.594  17.462  0.0558 -0.1023 -0.2405
29537W        W72454  24.771  32.927  19.209 -0.1873  0.2141  0.1109
29538W        W72455  25.589  32.129  18.315 -0.1830  0.1685  0.3654
29539W        W72456  26.913  34.572  19.037 -0.1260  0.0970  0.1342
29540W        W72457  28.489   1.038  18.481  0.1331  0.2661 -0.0245
29541W        W72458  27.263   1.033  18.645  0.3667 -0.3107 -0.1299
29542W        W72459  28.689  32.624  21.525 -0.4927  0.2354  0.0825
29543W        W72460  29.184   0.922  19.296 -0.2585 -0.0951 -0.2262
29544W        W72461  28.666  34.436  17.770  0.0307 -0.0163 -0.0293
29545W        W72462  28.208   1.426  19.103 -0.2420  0.2942 -0.1297
29546W        W72463  30.887  32.384  20.270 -0.3487 -0.1406 -0.0074
29547W        W72464  25.985  31.731  19.421 -0.2199  0.1538  0.2856
29548W        W72465  24.698   0.482  18.004 -0.1169 -0.1082 -0.3891
29549W        W72466  27.363  32.199  19.208  0.3367  0.2855  0.1846
29550W        W72467  26.417   0.979  18.873  0.0650  0.0208  0.1314
29551W        W72468  24.827   0.868  19.201  0.2141  0.2888  0.0369
29552W        W72469  25.130  33.895  17.436  0.2374 -0.2388  0.1372
29553W        W72470  26.809  32.699  18.481  0.1128  0.0524  0.1224
29554W        W72471  24.996  32.039  17.667 -0.2436  0.1565 -0.1980
29555W        W72472  26.253   0.129  17.056  0.0429 -0.5673  0.3145
29556W        W72473  26.653  33.418  19.854  0.1582 -0.2989  0.0250
29557W        W72474  24.574  33.875  19.251  0.1613 -0.4000  0.2025
29558W        W72475  25.371  32.607  17.098  0.0305 -0.2054 -0.1721
29559W        W72476  28.246   0.469  17.788  0.2773 -0.0747  0.0251
29560W        W72477  25.262  31.767  18.029 -0.0086 -0.0809 -0.2425
29561W        W72478  29.969  32.541  19.720  0.0312 -0.2682 -0.4978
29562W        W72479  26.866   1.309  18.689  0.0442 -0.3339 -0.2912
29563W        W72480  24.031  33.572  18.334 -0.2760  0.0415 -0.1451
29564W        W72481  26.690  33.459  17.267 -0.0431 -0.2619 -0.1055
29565W        W72482  28.173  32.618  18.359  0.1255  0.0933 -0.1612
29566W        W72483  25.574   2.750  21.262  0.0368  0.0979 -0.0204
29567W        W72484  28.659  33.822  17.446  0.0056  0.2616 -0.2071
29568W        W72485  28.265  34.131  21.027  0.2408  0.2287  0.0348
29569W        W72486  27.466  34.048  18.290  0.1442  0.0527  0.0815
29570W        W72487  27.914  34.448  18.082 -0.0802 -0.1564 -0.0153
29571W        W72488  24.573  32.346  18.413  0.2713  0.1064 -0.0143
29572W        W72489  28.106   0.546  16.924 -0.0569 -0.0757  0.1724
29573W        W72490  26.222   1.934  17.674 -0.0955  0.0161 -0.0852
29574W        W72491  26.310  33.854  19.059 -0.0082  0.2159 -0.0239
29575W        W72492  26.748  32.964  18.959 -0.1171  0.2107  0.1406
29576W        W72493  28.745  34.471  17.250 -0.0849  0.1096 -0.0140
29577W        W72494  26.376  32.567  18.766 -0.3172  0.2161  0.0282
29578W        W72495  28.824  33.218  19.933  0.0864  0.2791  0.1543
29579W        W72496  28.999  33.317  22.353  0.0482  0.0653 -0.1817
29580W        W72497  24.926  32.982  20.342 -0.0205 -0.0375  0.4374
29581W        W72498  26.812  34.540  21.622 -0.1826 -0.2529 -0.0636
29582W        W72499  25.591  34.046  20.883  0.0074 -0.1831 -0.2589
29583W        W72500  27.380  34.498  23.326 -0.1546  0.0639 -0.0744
29584W        W72501  28.044  33.108  21.171 -0.3077 -0.2632  0.0289
29585W        W72502  25.821  33.893  22.975 -0.3879 -0.1431  0.1157
29586W        W72503  27.337  33.502  24.743 -0.0529  0.1956  0.0700
29587W        W72504  25.770   1.042  20.546  0.0893 -0.2281 -0.1394
29588W        W72505  27.038  34.360  22.551  0.1310 -0.3592  0.0540
29589W        W72506  27.471  33.717  22.795 -0.2746 -0.0203  0.3990
29590W        W72507  26.782  32.385  23.259 -0.1002 -0.1538  0.2518
29591W        W72508  25.720  32.335  22.356  0.0322  0.2822  0.1389
29592W        W72509  27.366  32.259  19.949  0.1635  0.1126  0.0150
29593W        W72510  26.170  34.031  23.363 -0.0796 -0.2097  0.1544
29594W        W72511  27.771   0.294  21.771  0.1571  0.1880 -0.4137
29595W        W72512  29.676  33.918  22.762 -0.0926  0.0172  0.0320
29596W        W72513  27.158  34.669  22.910  0.1242  0.0792  0.1541
29597W        W72514  27.531   0.939  24.216 -0.3318 -0.1402 -0.3597
29598W        W72515  28.884   0.364  24.156 -0.1684  0.1568  0.2023
29599W        W72516  28.142  32.980  20.590 -0.3538 -0.1040 -0.2177
29600W        W72517  30.002   0.817  26.129  0.3601  0.2195 -0.2389
29601W        W72518  30.950  34.638  21.692 -0.2366  0.2489  0.1605
29602W        W72519  27.328  31.635  20.481 -0.0479 -0.0641  0.0188
29603W        W72520  28.197   0.271  22.983 -0.1140  0.2497 -0.1541
29604W        W72521  27.291  32.868  21.889 -0.0314 -0.1597  0.1635
29605W        W72522  27.299  33.609  22.297  0.0508  0.0088  0.0948
29606W        W72523  26.289  34.028  22.841  0.1490 -0.0958  0.2270
29607W        W72524  27.942  34.001  23.065 -0.0292 -0.2707  0.3200
29608W        W72525  25.863  34.629  21.543 -0.0315 -0.0180 -0.0988
29609W        W72526  26.510   0.146  19.918 -0.1617  0.0699 -0.2002
29610W        W72527  25.610  34.268  22.717  0.1405  0.1247 -0.0433
29611W        W72528  26.707   3.204  24.742  0.2371  0.2151 -0.1434
29612W        W72529  28.622   1.628  22.222 -0.0701  0.1067  0.5234
29613W        W72530  27.798  33.352  20.719  0.1827 -0.1261 -0.0443
29614W        W72531  29.374  32.471  21.090 -0.1286  0.1079 -0.3240
29615W        W72532  28.032  30.768  23.494  0.0506 -0.0914 -0.1159
29616W        W72533  26.475   1.388  20.935  0.0275 -0.2309  0.0159
29617W        W72534  27.454  34.084  23.801 -0.2050 -0.2463 -0.0856
29618W        W72535  26.589  34.172  23.161  0.0358 -0.0017  0.2064
29619W        W72536  27.770  32.321  21.578  0.2240  0.1336  0.1025
29620W        W72537  24.753  33.292  22.120  0.2676 -0.0014  0.2041
29621W        W72538  26.656   0.754  20.012  0.2067  0.0084  0.0339
29622W        W72539  27.864   1.415  20.828 -0.0673  0.2172  0.0588
29623W        W72540  24.235   0.995  26.142 -0.0210  0.0995 -0.0821
29624W        W72541  27.979  34.437  21.755  0.0732  0.0073 -0.0989
29625W        W72542  26.875  32.738  21.362  0.0530 -0.0888  0.1875
29626W        W72543  24.237   0.168  21.935  0.1220  0.0720 -0.1240
29627W        W72544  29.253   1.506  23.599 -0.0232 -0.1057 -0.1043
29628W        W72545  25.424  33.139  20.372  0.1283  0.0213  0.1987
29629W        W72546  27.093  33.514  20.355  0.3769  0.1778  0.0251
29630W        W72547  26.109  32.923  21.112 -0.3132 -0.2971  0.1285
29631W        W72548  30.246  33.297  24.490  0.0656 -0.0041 -0.1245
29632W        W72549  26.790  32.995  22.463 -0.0803 -0.1154  0.0942
29633W        W72550  25.003   0.063  18.851 -0.3189 -0.4023 -0.1959
29634W        W72551  26.383  33.886  19.592  0.0319  0.0632 -0.0238
29635W        W72552  28.306  32.510  22.945  0.1791 -0.1355  0.0833
29636W        W72553  28.490   0.893  20.906  0.0877  0.4155 -0.1671
29637W        W72554  25.755  33.065  20.815  0.0113  0.0043  0.1852
29638W        W72555  26.280  33.437  20.918  0.2003  0.4649 -0.0366
29639W        W72556  28.862  32.792  22.407 -0.3347  0.1773  0.4448
29640W        W72557  25.070  33.624  22.556 -0.0783  0.0991  0.3678
29641W        W72558  27.742  33.676  23.715 -0.3190 -0.2762  0.2123
29642W        W72559  26.832  34.544  22.132 -0.2639 -0.1574  0.1898
29643W        W72560  27.292  33.474  20.815  0.3235 -0.0961 -0.2422
29644W        W72561  28.436  33.376  21.609  0.0892  0.0309  0.0736
29645W        W72562  28.066  32.501  19.274  0.1168 -0.3512 -0.3223
29646W        W72563  27.037  32.791  17.424  0.2128 -0.0842 -0.2408
29647W        W72564  27.461  33.617  18.672  0.2410  0.2759 -0.0367
29648W        W72565  27.862  34.135  21.319  0.0142 -0.0289  0.0571
29649W        W72566  26.786  34.363  21.064  0.4205  0.0061 -0.0393
29650W        W72567  26.632  33.654  22.780 -0.2535  0.0987  0.0659
29651W        W72568  27.765  32.934  23.225 -0.1711 -0.1471 -0.0557
29652W        W72569  28.276  31.579  20.716  0.2888  0.4928  0.1716
29653W        W72570  25.042  33.106  22.792 -0.0554  0.3094 -0.2102
29654W        W72571  29.696   1.075  24.294 -0.0430 -0.0080  0.3491
29655W        W72572  27.906   0.559  19.009 -0.3356  0.2518 -0.1733
29656W        W72573  28.508  33.063  21.132  0.0080 -0.1237  0.0009
29657W        W72574  25.837  34.386  19.112  0.1022 -0.0499  0.1075
29658W        W72575  29.235  32.736  24.293 -0.2290  0.1522 -0.0284
29659W        W72576  28.075  32.261  24.684 -0.1402  0.3049  0.0550
29660W        W72577  26.515  33.315  20.444 -0.0130  0.0123  0.3158
29661W        W72578  23.980  32.259  20.747  0.2704  0.3843  0.2134
29662W        W72579  28.052  29.545  22.919 -0.0199 -0.1101 -0.3491
29663W        W72580  25.402  34.346  19.338 -0.2039 -0.0643 -0.1015
29664W        W72581  26.581  32.917  20.932  0.1193  0.1208  0.3792
29665W        W72582  27.274  32.751  22.365 -0.1809 -0.3464 -0.0428
29666W        W72583  25.986  32.126  21.894  0.1223  0.1669  0.2565
29667W        W72584  25.976  34.151  21.750  0.0021 -0.2172 -0.1977
29668W        W72585  28.094  34.508  22.782  0.3849  0.0037  0.2220
29669W        W72586  31.270  34.156  19.070 -0.1109 -0.3036 -0.0010
29670W        W72587  25.354   2.413  25.500 -0.1322 -0.1347 -0.1630
29671W        W72588  25.038  33.862  20.818  0.1735 -0.1015 -0.1599
29672W        W72589  29.986   0.838  23.472  0.2046 -0.1388  0.0319
29673W        W72590  26.022  33.128  22.795 -0.1200  0.0099  0.0285
29674W        W72591  26.668  33.832  20.561 -0.1768  0.0850  0.0497
29675W        W72592  24.735   0.140  22.838  0.0227 -0.1722  0.1622
29676W        W72593  25.950  33.382  20.333 -0.4303 -0.1387  0.1635
29677W        W72594  28.517  33.241  20.305  0.2984 -0.0052 -0.0639
29678W        W72595  27.609  34.628  20.679 -0.1683  0.3315 -0.1727
29679W        W72596  28.050  32.847  22.239 -0.0848 -0.1871  0.0659
29680W        W72597  26.898   0.345  23.615  0.4085 -0.1606  0.1853
29681W        W72598  27.400  32.718  22.842  0.1381 -0.0111 -0.2041
29682W        W72599  26.757  33.486  20.911 -0.0821 -0.0443  0.1945
29683W        W72600  29.382  33.559  19.969 -0.2003 -0.0189  0.1311
29684W        W72601  28.488   0.816  21.425  0.3459 -0.1943  0.3178
29685W        W72602  30.800  32.889  24.074 -0.0419 -0.0442  0.2522
29686W        W72603  26.015   0.048  19.446 -0.0807  0.1676  0.1475
29687W        W72604  29.608  33.462  24.106 -0.1234 -0.0395 -0.1911
29688W        W72605  25.970  34.148  22.249 -0.0396  0.0614  0.0393
29689W        W72606  25.103  33.715  22.017 -0.0059  0.2454  0.1004
29690W        W72607  25.409  34.352  23.647 -0.2718 -0.1247 -0.1844
29691W        W72608  27.038  33.992  20.849  0.4612  0.2727  0.0640
29692W        W72609  27.079  33.281  22.805  0.0136 -0.3713  0.3278
29693W        W72610  26.035   0.613  22.510  0.0842 -0.0900  0.3452
29694W        W72611  27.432   1.050  21.070 -0.2876 -0.1567  0.2123
29695W        W72612  25.693   2.405  21.895 -0.1003 -0.0797 -0.0820
29696W        W72613  27.629   0.013  21.395  0.0281 -0.2885 -0.1180
29697W        W72614  26.099  31.971  24.900  0.0456  0.0950 -0.1046
29698W        W72615  29.126  34.250  20.792 -0.1594 -0.1592  0.1686
29699W        W72616  29.401  33.568  23.051  0.0906 -0.1652 -0.1079
29700W        W72617  26.913   0.618  22.242  0.0019  0.3550 -0.2575
29701W        W72618  25.539   1.942  25.718 -0.0161  0.1792  0.1928
29702W        W72619  24.343  33.174  21.821 -0.0304  0.0903 -0.0105
29703W        W72620  29.829   0.113  20.162 -0.0484 -0.3235  0.0530
29704W        W72621  28.791  32.588  22.942 -0.2381  0.0903  0.1960
29705W        W72622  28.081  33.747  20.728 -0.0503 -0.2030  0.1550
29706W        W72623  26.116   0.990  22.847 -0.4074  0.1034 -0.1171
29707W        W72624  26.307  33.024  22.061  0.0283  0.1330  0.3302
29708W        W72625  27.751  33.231  24.879 -0.1658 -0.3967  0.0589
29709W        W72626  27.295  34.289  19.852  0.2676  0.0823  0.3044
29710W        W72627  29.131  34.579  24.029  0.2875 -0.1129  0.2703
29711W        W72628  27.188  33.509  19.764  0.0430 -0.2208 -0.1468
29712W        W72629  25.757  33.563  20.780  0.0554 -0.1337 -0.1166
29713W        W72630  25.874  33.605  19.553 -0.2415 -0.2889  0.3913
29714W        W72631  24.538   1.441  20.727 -0.2261 -0.1632  0.0235
29715W        W72632  27.800  32.646  21.188 -0.1089 -0.1940 -0.2211
29716W        W72633  26.421   0.402  23.515  0.1105  0.0305 -0.1418
29717W        W72634  27.131  34.079  20.315  0.0260  0.0631 -0.2465
29718W        W72635  28.425  33.523  23.084  0.1583  0.0022 -0.3378
29719W        W72636  28.679  34.188  20.571 -0.0251  0.1485  0.1264
29720W        W72637  28.914  33.329  21.843 -0.0066 -0.1867 -0.0382
29721W        W72638  30.604  34.389  23.191  0.0585 -0.1721 -0.0864
29722W        W72639  26.571   0.630  22.617  0.0336 -0.0608  0.1100
29723W        W72640  25.271   0.757  21.747 -0.1250  0.2266 -0.0860
29724W        W72641  26.142  33.367  19.870  0.2404 -0.2211  0.3716
29725W        W72642  25.904  34.091  19.500  0.0196 -0.0197  0.1780
29726W        W72643  28.803  32.335  19.720 -0.0195 -0.0295  0.4072
29727W        W72644  30.951  33.517  22.676 -0.2750 -0.0265 -0.3631
29728W        W72645  29.513  32.614  22.161  0.1088  0.1583 -0.0240
29729W        W72646  26.161  33.532  23.132  0.0556  0.1505  0.0253
29730W        W72647  28.810  32.335  19.186  0.4767 -0.1924  0.0498
29731W        W72648  26.346  34.426  23.922 -0.1208 -0.1924 -0.3514
29732W        W72649  28.631  33.928  24.140  0.0306  0.0990 -0.0537
29733W        W72650  25.085  31.780  21.424  0.1857 -0.1669  0.0058
29734W        W72651  28.717  33.844  21.622  0.0300 -0.3068  0.2540
29735W        W72652  28.334  33.541  21.155  0.3694  0.1302  0.2043
29736W        W72653  28.173  32.494  20.482 -0.0916 -0.0121  0.0781
29737W        W72654  23.382  32.069  20.004 -0.3327 -0.1222 -0.3921
29738W        W72655  27.595  33.011  20.931 -0.0367  0.3117 -0.0296
29739W        W72656  27.723  33.924  24.174 -0.1788  0.1453  0.1688
29740W        W72657  28.452  31.695  23.295  0.2142 -0.0131 -0.3573
29741W        W72658  25.355   0.271  21.988  0.2615  0.1188 -0.1406
29742W        W72659  29.356  32.699  22.958  0.0181  0.0890 -0.1668
29743W        W72660  24.617  31.480  22.285 -0.0542 -0.0647 -0.1698
29744W        W72661  26.593  34.107  18.442  0.0023  0.0829  0.1966
29745W        W72662  27.248   1.404  22.890 -0.1493 -0.1105 -0.0833
29746W        W72663  27.467  33.777  20.040 -0.2547 -0.1134 -0.0786
29747W        W72664  25.544   0.334  22.443  0.1198  0.0251 -0.0789
29748W        W72665  29.609  30.922  20.740 -0.0148 -0.0805  0.1750
29749W        W72666  27.179   0.009  21.081 -0.1406 -0.2197 -0.0249
29750W        W72667  26.371  34.216  25.065 -0.2046  0.0739 -0.0749
29751W        W72668  25.570  33.084  21.904  0.0254  0.1810  0.1085
29752W        W72669  28.983  34.525  21.705  0.0908  0.2193 -0.1597
29753W        W72670  27.953  34.627  21.048 -0.0950  0.3213  0.2065
29754W        W72671  25.045   1.271  22.319 -0.1296 -0.2199  0.0809
29755W        W72672  27.496  33.217  20.159 -0.1280 -0.1353  0.1607
29756W        W72673  25.869  34.147  23.788  0.1229 -0.1042  0.1247
29757W        W72674  29.264  33.893  22.518 -0.1280 -0.2639  0.4232
29758W        W72675  28.084  33.340  23.471  0.1290 -0.0624 -0.2495
29759W        W72676  27.521  33.468  24.072  0.6561  0.0814  0.5405
29760W        W72677  27.545  33.153  22.660  0.1431 -0.0154 -0.3126
29761W        W72678  28.282  33.994  21.537  0.2425  0.0294 -0.1293
29762W        W72679  28.612  33.389  20.760  0.0536 -0.0192  0.0924
29763W        W72680  29.757  32.739  20.901  0.1420 -0.0014 -0.0201
29764W        W72681  24.267  34.253  23.284 -0.2194  0.0994 -0.1334
29765W        W72682  25.126  32.972  21.275 -0.0368 -0.0221 -0.2774
29766W        W72683  26.454  31.969  23.187  0.1551 -0.0835 -0.0747
29767W        W72684  26.223   0.284  23.994  0.0125  0.0079 -0.0786
29768W        W72685  22.642  33.722  20.662  0.2521 -0.0423 -0.5472
29769W        W72686  27.208  33.622  21.317 -0.0397 -0.1342  0.3393
29770W        W72687  24.203  33.784  23.055 -0.1253  0.2414 -0.0761
29771W        W72688  24.392   0.668  22.005 -0.2077 -0.4708  0.1414
29772W        W72689  25.817  34.543  19.874  0.0350 -0.1984  0.1010
29773W        W72690  27.392   0.340  24.514 -0.0937 -0.3026  0.3954
29774W        W72691  28.135  32.389  22.456  0.2640 -0.2661  0.1312
29775W        W72692  24.647  34.007  21.290 -0.2367 -0.0075 -0.1111
29776W        W72693  27.212   0.012  20.238  0.2854 -0.0586 -0.0847
29777W        W72694  24.910  32.984  23.305  0.1494 -0.0888 -0.2986
29778W        W72695  29.473  31.322  22.956  0.0475  0.1022 -0.0714
29779W        W72696  28.607   0.505  20.511 -0.1689 -0.0033 -0.1581
29780W        W72697  24.749  34.006  22.289 -0.1601  0.1811  0.1079
29781W        W72698  27.730  34.139  20.828  0.1622 -0.4563 -0.1915
29782W        W72699  29.388  33.204  22.089 -0.1756 -0.0539  0.2809
29783W        W72700  27.363  34.203  21.221  0.0231  0.0757 -0.5147
29784W        W72701  27.496   0.418  19.679  0.0446 -0.0249  0.1043
29785W        W72702  28.319  32.627  21.037  0.2525  0.0032 -0.0704
29786W        W72703  25.306  33.405  19.568 -0.0505  0.0795 -0.2748
29787W        W72704  24.657   1.865  21.084 -0.2120 -0.0077 -0.1215
29788W        W72705  25.826  32.620  20.575  0.0118 -0.2844  0.0876
29789W        W72706  26.328  34.281  21.379 -0.2578  0.1544 -0.0454
29790W        W72707  26.448  33.914  20.107 -0.2016 -0.0325 -0.2750
29791W        W72708  27.602  33.276  21.349 -0.0434  0.0233 -0.2964
29792W        W72709  24.483  32.832  19.865  0.2290 -0.2103 -0.2176
29793W        W72710  28.452  33.862  19.124  0.1682  0.5505 -0.2552
29794W        W72711  26.628  33.174  26.199 -0.0999  0.0675 -0.0956
29795W        W72712  28.252  34.124  25.021 -0.0747  0.0320 -0.1070
29796W        W72713  28.108  34.146  24.447 -0.0974  0.0261  0.2496
29797W        W72714  26.010  33.695  22.566 -0.1939 -0.1577 -0.2379
29798W        W72715  27.881  34.155  26.740  0.0452 -0.2472  0.0418
29799W        W72716  28.131  34.456  26.376  0.0068  0.0299  0.0935
29800W        W72717  27.276  31.243  26.774  0.2767  0.0693 -0.2369
29801W        W72718  27.105  33.137  23.948  0.0531  0.0991 -0.4201
29802W        W72719  26.529  32.896  24.751  0.1607 -0.0571 -0.1552
29803W        W72720  29.526  33.299  25.107  0.0298  0.0194 -0.1440
29804W        W72721  26.248  33.976  25.774 -0.2431 -0.0556  0.0515
29805W        W72722  25.072  34.107  25.531  0.3421  0.2571 -0.2838
29806W        W72723  28.259  34.602  25.352 -0.0446  0.0250  0.0232
29807W        W72724  28.458  33.084  27.215 -0.2857 -0.0011 -0.1858
29808W        W72725  27.725  34.216  27.238  0.0923 -0.0252 -0.2202
29809W        W72726  26.944  33.509  27.463  0.0099  0.0559 -0.0438
29810W        W72727  25.609  34.539  26.769  0.0843  0.3278  0.2374
29811W        W72728  25.782   0.455  26.208  0.1754  0.0831 -0.1124
29812W        W72729  29.633  31.768  27.395 -0.0226 -0.1174 -0.1099
29813W        W72730  27.252  31.791  23.883 -0.1167  0.0823  0.0364
29814W        W72731  29.590  33.095  26.888 -0.0210  0.0104 -0.3385
29815W        W72732  27.848  33.976  25.789  0.1268 -0.2631 -0.1168
29816W        W72733  27.733  33.317  25.976 -0.2242  0.0692 -0.2501
29817W        W72734  28.709  32.479  28.478  0.0467 -0.1499  0.1026
29818W        W72735  26.202   1.383  25.023  0.0261  0.3993  0.0620
29819W        W72736  28.340  32.661  25.708 -0.0938  0.3625  0.2328
29820W        W72737  26.617  34.560  22.893 -0.3218  0.0822  0.0997
29821W        W72738  26.714  32.674  25.163 -0.3292  0.1392  0.2771
29822W        W72739  28.670  33.038  25.864  0.2001 -0.1533 -0.0975
29823W        W72740  24.787   1.410  26.133  0.1582  0.1771 -0.1162
29824W        W72741  29.081   0.688  24.573 -0.0479  0.4481 -0.2667
29825W        W72742  26.887  33.108  25.378  0.3704  0.2183 -0.0797
29826W        W72743  26.874  34.058  26.624  0.2090  0.0451  0.0900
29827W        W72744  27.373   0.013  27.930 -0.2603 -0.0786  0.2216
29828W        W72745  25.595   0.197  27.092  0.0843 -0.0789 -0.1423
29829W        W72746  25.713  32.341  20.170  0.1802 -0.2176  0.1576
29830W        W72747  30.776  34.245  24.598  0.4036 -0.0291 -0.1111
29831W        W72748  29.674  31.308  25.593 -0.0733  0.1885 -0.0176
29832W        W72749  29.514  31.637  26.592 -0.0201 -0.1994 -0.3955
29833W        W72750  30.358   0.131  24.530  0.1190  0.2784  0.1161
29834W        W72751  26.983  32.268  25.113 -0.3604 -0.0652  0.2743
29835W        W72752  27.358  33.909  27.301 -0.0126 -0.0441 -0.1387
29836W        W72753  29.535  33.986  24.256 -0.3049  0.0117  0.1679
29837W        W72754  27.808  32.346  26.113 -0.1192  0.1449 -0.2004
29838W        W72755  28.343  32.573  24.398 -0.1865 -0.0353  0.1406
29839W        W72756  27.495  34.402  24.138 -0.4392 -0.0543  0.0457
29840W        W72757  24.752  33.833  25.291  0.3582  0.2712 -0.0077
29841W        W72758  25.046  34.140  22.712 -0.0167 -0.0385  0.0436
29842W        W72759  25.735  33.153  25.735 -0.0040 -0.0849 -0.0872
29843W        W72760  26.307  34.505  27.440 -0.0157 -0.1744  0.1675
29844W        W72761  28.374  33.778  25.952 -0.0583 -0.2112  0.1272
29845W        W72762  26.831  33.685  22.211  0.0022  0.0376  0.0037
29846W        W72763  31.128  33.685  24.708  0.0007  0.1039 -0.2447
29847W        W72764  26.710  34.013  25.406 -0.1379  0.0812 -0.1870
29848W        W72765  27.368  33.308  27.031 -0.0623  0.0899 -0.3684
29849W        W72766  25.653  34.347  27.278  0.2009  0.1117 -0.0120
29850W        W72767  25.645  33.033  21.425  0.2406  0.2312 -0.3121
29851W        W72768  26.876  33.646  24.663 -0.0674  0.0838  0.1786
29852W        W72769  29.950  33.375  27.114 -0.0309 -0.1241 -0.1746
29853W        W72770  28.691  34.319  25.221 -0.2870  0.3805  0.0325
29854W        W72771  25.462  32.828  22.526  0.1285 -0.1616  0.0420
29855W        W72772  25.613  33.620  24.940  0.0378  0.3338 -0.3835
29856W        W72773  28.289  33.225  24.630  0.0201 -0.0138  0.3838
29857W        W72774  23.888  33.469  26.967 -0.0615 -0.1262  0.0179
29858W        W72775  30.718  33.524  25.996 -0.1061 -0.0938 -0.1726
29859W        W72776  25.914   0.168  24.703  0.0996  0.2341  0.0860
29860W        W72777  27.335  33.032  25.735 -0.3723  0.1100 -0.2094
29861W        W72778  28.120  33.640  24.365 -0.1444  0.0797 -0.2822
29862W        W72779  28.516  33.670  24.630 -0.4021 -0.2208 -0.0426
29863W        W72780  25.722  33.611  25.474  0.0581  0.0734 -0.0121
29864W        W72781  29.573  33.597  24.597  0.0551 -0.1225  0.0898
29865W        W72782  26.166  31.656  25.534  0.2728  0.3345  0.1179
29866W        W72783  27.205  32.710  25.419 -0.3605  0.0925  0.3338
29867W        W72784  27.364  32.873  28.318  0.1328 -0.0625  0.1055
29868W        W72785  29.314  31.732  25.787  0.1437  0.0419  0.1131
29869W        W72786  28.672  30.944  27.343  0.2862  0.2804 -0.0016
29870W        W72787  26.894  32.769  26.512 -0.1046  0.3065  0.0331
29871W        W72788  29.582  34.207  26.216 -0.3273  0.2336 -0.0553
29872W        W72789  27.779   1.531  24.579  0.0963 -0.2770  0.0922
29873W        W72790  28.787  32.437  25.227 -0.0041 -0.3854 -0.2647
29874W        W72791  23.761  34.402  21.903 -0.1080 -0.0825  0.2099
29875W        W72792  28.135  30.872  24.585 -0.1444 -0.3118 -0.2501
29876W        W72793  26.308  33.120  25.738  0.0924 -0.0213 -0.1462
29877W        W72794  29.118  33.682  23.924 -0.1503 -0.2365  0.1235
29878W        W72795  27.779  31.660  26.197  0.0288 -0.0693  0.2890
29879W        W72796  30.434  31.902  25.775 -0.4373 -0.1420 -0.1042
29880W        W72797  23.462  34.148  22.862  0.1357 -0.0912  0.0475
29881W        W72798  26.140  33.961  24.170 -0.0262  0.2974 -0.4034
29882W        W72799  29.110  33.498  24.893 -0.1356 -0.2257 -0.0788
29883W        W72800  26.254  33.336  24.676  0.1288  0.0009  0.1799
29884W        W72801  26.876  32.417  26.177 -0.1254 -0.2248 -0.0226
29885W        W72802  29.487   1.525  24.621 -0.0130  0.4609  0.1334
29886W        W72803  29.251  32.776  25.564  0.0659  0.2427  0.2834
29887W        W72804  26.749  33.973  27.519  0.0816 -0.1857  0.2862
29888W        W72805  24.643  34.315  25.391 -0.3120  0.1210 -0.1623
29889W        W72806  30.967  33.660  27.652 -0.2140  0.2083 -0.1584
29890W        W72807  26.472  34.348  26.664 -0.1935 -0.3235 -0.0431
29891W        W72808  26.581   0.521  24.966  0.0129 -0.2361  0.0232
29892W        W72809  25.404  33.954  25.823 -0.0419 -0.0130 -0.2706
29893W        W72810  27.907  32.803  24.711 -0.2682 -0.2710  0.0295
29894W        W72811  27.772  32.840  26.085  0.0462 -0.0748 -0.1522
29895W        W72812  27.833   0.031  26.785 -0.2927  0.0675  0.1122
29896W        W72813  30.705   1.396  26.320  0.2094 -0.1079 -0.0931
29897W        W72814  28.231  32.464  25.210 -0.2057  0.0396  0.0229
29898W        W72815  28.622   0.038  24.915  0.0043 -0.0875 -0.0170
29899W        W72816  29.546  32.266  24.634 -0.1978 -0.2397  0.2598
29900W        W72817  30.451  34.382  24.268 -0.0737  0.3272  0.1621
29901W        W72818  26.506  32.084  25.377  0.3710 -0.1605  0.1237
29902W        W72819  30.573  33.346  25.398 -0.2384  0.0973 -0.1013
29903W        W72820  27.039   0.889  24.339 -0.4258  0.0749  0.1999
29904W        W72821  28.538  32.753  26.307  0.2635 -0.1544  0.3832
29905W        W72822  26.637  34.153  26.199  0.0136  0.2076 -0.0708
29906W        W72823  27.872  32.185  28.749  0.1875  0.1272  0.2212
29907W        W72824  28.561  34.215  26.479  0.1024 -0.1017 -0.0588
29908W        W72825  28.599  34.180  24.610  0.0709 -0.2612  0.2472
29909W        W72826  27.790  34.241  25.340 -0.0511  0.2004  0.2042
29910W        W72827  27.233  34.147  26.217 -0.2299  0.1130 -0.4403
29911W        W72828  30.443  33.428  26.753 -0.2360  0.0050 -0.0146
29912W        W72829  27.241   1.297  26.468  0.1762 -0.0880  0.0653
29913W        W72830  27.587  34.147  24.850 -0.2343 -0.0264 -0.1762
29914W        W72831  26.761  32.378  27.763  0.0750 -0.2178  0.2428
29915W        W72832  30.553  32.127  25.335  0.2736  0.1481 -0.0881
29916W        W72833  28.708  33.429  27.003 -0.0019  0.3222 -0.1170
29917W        W72834  29.484  33.097  28.938  0.3235  0.0817  0.1294
29918W        W72835  26.701  33.143  28.179  0.1502 -0.1201  0.3414
29919W        W72836  25.483  33.407  26.097 -0.2197  0.3147 -0.3178
29920W        W72837  30.831   0.687  22.993 -0.0884  0.0589  0.2527
29921W        W72838  25.955  32.406  27.499 -0.0283  0.1219 -0.2011
29922W        W72839  29.305   0.202  24.378  0.1306 -0.1233  0.2884
29923W        W72840  25.860   1.402  23.581 -0.2900 -0.1482  0.0876
29924W        W72841  26.449  33.230  25.140 -0.3379  0.0153 -0.3015
29925W        W72842  29.463   0.458  27.480  0.3512 -0.0645  0.1332
29926W        W72843  26.565  34.043  22.451 -0.1849 -0.0659  0.2226
29927W        W72844  28.944  32.001  25.079 -0.0577 -0.1341  0.2972
29928W        W72845  27.783  32.752  25.177  0.1912  0.1492  0.0680
29929W        W72846  26.724  33.666  26.314  0.0195 -0.0722 -0.2767
29930W        W72847  25.915  33.685  24.574 -0.1043  0.2400  0.0769
29931W        W72848  27.325  33.055  25.111 -0.1165  0.0537  0.1055
29932W        W72849  27.370  33.507  25.640 -0.2527 -0.4232  0.1525
29933W        W72850  30.493  34.272  26.852 -0.1387 -0.1715 -0.1606
29934W        W72851  26.594  32.091  24.780 -0.1889  0.0653  0.0363
29935W        W72852  29.128  32.869  26.324 -0.2557  0.0401 -0.1291
29936W        W72853  28.848  33.289  26.244 -0.2568 -0.2040 -0.0640
29937W        W72854  27.771  33.712  24.726 -0.3876 -0.2347  0.1041
29938W        W72855  28.712  32.950  27.654  0.0356  0.2778 -0.2086
29939W        W72856  27.381  34.591  27.009  0.0705 -0.1217 -0.2298
29940W        W72857  26.856  34.178  28.081  0.1336  0.1032 -0.0569
29941W        W72858  27.345  31.430  26.232 -0.0520  0.1050 -0.0997
29942W        W72859  27.323   0.297  26.580  0.2246 -0.0742 -0.1599
29943W        W72860  27.923  31.904  24.245 -0.0605  0.0802 -0.1322
29944W        W72861  29.730  34.477  25.840  0.0835 -0.2983  0.0383
29945W        W72862  28.963  32.375  27.016 -0.1338  0.1067  0.1556
29946W        W72863  26.984  34.302  25.778 -0.2143  0.1383 -0.3411
29947W        W72864  26.390  33.817  24.562 -0.1620  0.2995 -0.0321
29948W        W72865  26.036  34.600  28.119 -0.6502  0.1035  0.0650
29949W        W72866  31.650  32.649  28.793 -0.1667 -0.0315  0.0551
29950W        W72867  25.091   1.102  25.017 -0.1608 -0.4326 -0.2213
29951W        W72868  27.265  32.891  26.247 -0.0429  0.1113  0.2899
29952W        W72869  30.019  31.435  24.443  0.2880  0.0816 -0.1530
29953W        W72870  27.703  33.724  26.585 -0.0535 -0.1056  0.0794
29954W        W72871  25.173   0.483  22.925  0.1412 -0.0151 -0.0858
29955W        W72872  29.996  34.297  24.430  0.0691  0.1129  0.2934
29956W        W72873  26.170   0.271  25.893  0.0282  0.0935 -0.4130
29957W        W72874  29.037  33.931  26.689 -0.2793  0.1459  0.2635
29958W        W72875  25.890  33.667  26.626 -0.1615  0.0303  0.1339
29959W        W72876  27.999  34.575  23.959 -0.0692  0.2456  0.0681
29960W        W72877  23.070   0.444  25.541 -0.0069  0.2933 -0.3625
29961W        W72878  27.499  33.865  23.294  0.0266  0.1832 -0.0146
29962W        W72879  29.921   0.271  28.415 -0.0317  0.0005  0.0972
29963W        W72880  27.065  34.086  23.522  0.0346  0.2034  0.0834
29964W        W72881  26.430   0.255  25.465  0.2774  0.2088 -0.1194
29965W        W72882  27.794  34.306  23.435 -0.1570  0.2432 -0.2407
29966W        W72883  25.708   0.845  25.927  0.0532  0.2562  0.1081
29967W        W72884  28.216  31.392  26.152  0.0081  0.1974  0.0233
29968W        W72885  26.328  33.236  23.546  0.2796  0.1697 -0.0999
29969W        W72886  31.020  34.245  25.428  0.0708 -0.1769  0.0064
29970W        W72887  29.537   1.585  25.195 -0.2056 -0.0844 -0.1347
29971W        W72888  26.257  32.067  25.821 -0.2901  0.3368 -0.0701
29972W        W72889  27.606  33.225  26.460 -0.1756  0.1229  0.2313
29973W        W72890  26.987  33.848  25.858 -0.0625 -0.2817  0.1203
29974W        W72891  31.496  33.564  26.434  0.2532 -0.0003  0.1815
29975W        W72892  29.167  29.928  25.779  0.0343 -0.0217 -0.1372
29976W        W72893  28.656  31.617  28.844  0.1328  0.3056  0.3632
29977W        W72894  27.059  34.026  25.012  0.0172 -0.2509 -0.1137
29978W        W72895  26.907  32.820  25.846 -0.0669  0.0588 -0.0562
29979W        W72896  29.222  33.637  26.302 -0.2673  0.1300 -0.0307
29980W        W72897  25.821  32.337  24.934 -0.0640 -0.0147  0.0103
29981W        W72898  29.231  33.326  25.916  0.0969 -0.1677 -0.0225
29982W        W72899  25.717   2.944  24.951 -0.0674  0.1486  0.0412
29983W        W72900  27.039  33.190  28.606  0.0851 -0.0232 -0.0245
29984W        W72901  24.431  34.201  26.731  0.1312  0.2218 -0.0446
29985W        W72902  24.908  34.251  26.064  0.2906  0.1228 -0.1267
29986W        W72903  26.629  33.296  24.398  0.1657 -0.5773  0.1262
29987W        W72904  25.410  32.621  23.963 -0.0030  0.0232  0.0366
29988W        W72905  25.930  33.250  25.137 -0.0271  0.0555  0.2205
29989W        W72906  25.446  34.549  24.067 -0.0535 -0.0498 -0.1866
29990W        W72907  28.503  32.307  26.907  0.2419  0.0354 -0.0216
29991W        W72908  27.907  33.251  29.003  0.1604  0.1514 -0.2111
29992W        W72909  25.497  32.046  22.026 -0.2915 -0.1150  0.1502
29993W        W72910  28.897  32.587  25.828 -0.2299 -0.1691  0.2397
29994W        W72911  25.794  31.170  26.665 -0.0275  0.1584  0.4262
29995W        W72912  29.230  33.569  27.820 -0.1475  0.4200 -0.2162
29996W        W72913  27.654  33.750  25.278  0.1210  0.1288 -0.0395
29997W        W72914  26.618  31.620  28.432 -0.1093 -0.0035  0.0418
29998W        W72915  25.310  32.473  23.441  0.1655 -0.0868 -0.2335
29999W        W72916  28.553  32.263  24.759 -0.3848 -0.2203  0.2526
30000W        W72917  25.334   0.680  25.080  0.0002 -0.1983 -0.1532
30001W        W72918  28.696  32.873  25.390  0.0769 -0.1514  0.0526
30002W        W72919  28.665  31.744  25.363  0.0194 -0.3851  0.2581
30003W        W72920  25.452  34.497  25.540 -0.1933 -0.2326  0.0117
30004W        W72921  29.551   0.091  25.491 -0.4328 -0.1033 -0.0892
30005W        W72922  26.925  33.167  24.813  0.4915  0.1240  0.1248
30006W        W72923  26.230   1.876  25.339  0.4158  0.0417 -0.3367
30007W        W72924  25.303  32.990  24.292  0.2700  0.0566 -0.2047
30008W        W72925  28.157  33.554  25.047  0.1371 -0.0530 -0.0775
30009W        W72926  28.225  32.425  26.498  0.2821  0.0266  0.1440
30010W        W72927  27.310  33.970  24.422  0.1978  0.1083 -0.0455
30011W        W72928  24.968  34.322  27.951 -0.0511  0.1639  0.2619
30012W        W72929  28.068  31.725  25.642  0.1600  0.0304 -0.1881
30013W        W72930  29.585  31.336  27.076  0.1852  0.0955  0.2550
30014W        W72931  24.671  33.329  28.502 -0.0686  0.0490 -0.1642
30015W        W72932  25.668  32.455  31.254  0.0825 -0.1721 -0.1588
30016W        W72933  26.511  33.015  28.652 -0.2241 -0.1458  0.0304
30017W        W72934  29.363  33.496  31.459  0.3940  0.0601 -0.0580
30018W        W72935  27.153  33.303  27.986  0.1441  0.0305 -0.2980
30019W        W72936  22.311  31.774  29.200  0.4554  0.2910 -0.1281
30020W        W72937  28.547  33.000  31.419  0.0165  0.2716  0.4187
30021W        W72938  25.850  32.744  27.936 -0.1159 -0.2036  0.1796
30022W        W72939  26.770  32.723  29.171  0.2574 -0.3159 -0.0362
30023W        W72940  26.083  33.194  30.001  0.1538 -0.1242  0.1810
30024W        W72941  26.953  34.614  29.832 -0.0041  0.1843 -0.1272
30025W        W72942  27.460  34.333  30.389  0.0524  0.1248 -0.0500
30026W        W72943  28.558   0.630  27.440 -0.1597  0.1070 -0.3123
30027W        W72944  25.938   0.952  27.223  0.2350 -0.2301 -0.1096
30028W        W72945  28.514  32.618  30.668 -0.4162 -0.4089 -0.1805
30029W        W72946  28.336  34.018  30.771  0.1160  0.1928  0.1471
30030W        W72947  30.182  34.322  29.379  0.0327 -0.1115  0.3780
30031W        W72948  27.636   2.465  31.045  0.1405  0.1028  0.2323
30032W        W72949  26.497   0.816  29.232 -0.2279  0.1849  0.0773
30033W        W72950  28.554  33.071  29.110 -0.1772  0.4682 -0.2340
30034W        W72951  30.085  33.890  30.434  0.0353 -0.0067  0.0638
30035W        W72952  30.155   1.236  26.489  0.0042  0.2025 -0.1815
30036W        W72953  27.694  32.572  27.044  0.2387 -0.3062 -0.0753
30037W        W72954  28.665  32.466  27.974  0.0558  0.3111  0.0297
30038W        W72955  27.985  32.703  27.379  0.2686  0.0359 -0.2392
30039W        W72956  25.311  32.943  30.382  0.0867  0.3663 -0.1657
30040W        W72957  27.326  31.473  28.802 -0.0239  0.2855 -0.1817
30041W        W72958  28.544  32.165  29.899  0.2726 -0.0428  0.0451
30042W        W72959  25.864  34.217  27.801 -0.1615 -0.2287 -0.0483
30043W        W72960  25.523  33.999  26.630  0.0703 -0.1572 -0.0606
30044W        W72961  25.414   1.112  31.505 -0.0782  0.3630  0.0896
30045W        W72962  25.789  33.038  30.426  0.3159  0.0034  0.1779
30046W        W72963  24.984  32.919  28.555  0.0505  0.4177  0.2066
30047W        W72964  27.337  32.435  28.570  0.2399  0.2505 -0.0614
30048W        W72965  27.966  33.474  30.031  0.0885  0.2294 -0.2362
30049W        W72966  27.927  33.107  30.992 -0.2039  0.0887  0.1224
30050W        W72967  28.781  33.890  27.733 -0.0197  0.0142  0.0172
30051W        W72968  25.053   1.514  31.392  0.1944  0.2248 -0.0914
30052W        W72969  26.641  31.783  29.841  0.1596  0.0989 -0.0789
30053W        W72970  27.804  32.181  29.237 -0.0172  0.1945  0.1970
30054W        W72971  26.219  33.111  31.573  0.0731 -0.2804 -0.1972
30055W        W72972  31.373  32.012  29.082  0.0105 -0.1032  0.0797
30056W        W72973  27.936  33.569  28.569  0.1707  0.1760  0.1031
30057W        W72974  23.107  33.187  29.242  0.2619  0.1456 -0.3619
30058W        W72975  26.260   0.216  27.808 -0.3667  0.2459 -0.2664
30059W        W72976  26.722  34.196  31.063  0.0407 -0.2072 -0.0592
30060W        W72977  26.297  32.899  29.660  0.0184 -0.0142 -0.0717
30061W        W72978  29.589  34.345   0.337  0.2787 -0.0472  0.0030
30062W        W72979  26.203  31.457  29.611 -0.0171 -0.2254  0.3655
30063W        W72980  29.749  33.350  29.340 -0.0379 -0.0353 -0.0110
30064W        W72981  28.328  34.297  27.351  0.2550  0.0959  0.1061
30065W        W72982  31.633  32.569  29.602  0.0566 -0.2645 -0.2758
30066W        W72983  27.777  32.154  30.817 -0.0266 -0.0651 -0.0005
30067W        W72984  27.141  32.461  29.357 -0.1207 -0.0586  0.0456
30068W        W72985  28.222  33.668  29.034  0.2052  0.0811  0.0571
30069W        W72986  27.132  30.984  30.016 -0.1531 -0.2177 -0.0413
30070W        W72987  27.943  31.396  29.759 -0.0348 -0.2175  0.0926
30071W        W72988  25.488  32.861  29.391  0.2615 -0.0389  0.0759
30072W        W72989  23.863  33.835  27.293 -0.0749  0.1914 -0.0211
30073W        W72990  29.520  32.044  28.345  0.1946  0.2384  0.1804
30074W        W72991  28.075   0.171  31.955 -0.3363 -0.2224 -0.0228
30075W        W72992  26.861   0.376   0.494  0.0305  0.0121  0.1526
30076W        W72993  25.458  34.658  28.270  0.1598 -0.0554  0.0775
30077W        W72994  30.944  30.336  29.031 -0.0078  0.0517 -0.0690
30078W        W72995  29.580  31.998  27.820 -0.0459  0.3104  0.1671
30079W        W72996  29.135  33.287  26.670 -0.0839 -0.0649 -0.0017
30080W        W72997  27.715  31.349  29.226 -0.0721  0.0573  0.0785
30081W        W72998  27.359  32.305  26.391 -0.0114  0.3591 -0.0039
30082W        W72999  25.571  34.417  30.259 -0.0805  0.0297  0.0461
30083W        W73000  26.882  32.704  28.546 -0.0220  0.0178  0.0853
30084W        W73001  27.504  33.200  28.787  0.2800  0.3515  0.2189
30085W        W73002  27.763   0.134  29.544 -0.0810 -0.0467 -0.0040
30086W        W73003  29.593  33.192  31.153 -0.3764  0.0937  0.2082
30087W        W73004  26.789  33.004  30.793  0.2056 -0.2960 -0.0285
30088W        W73005  25.870  33.805   0.979  0.1558  0.1185  0.3930
30089W        W73006  27.273  34.121  28.999 -0.0630  0.0520 -0.0760
30090W        W73007  27.579   1.602  29.422  0.0802 -0.1085  0.0316
30091W        W73008  24.741  33.415  27.102 -0.1994 -0.0818 -0.1005
30092W        W73009  26.779  32.075  30.267  0.1351  0.1845 -0.0855
30093W        W73010  26.419   0.020  29.780  0.0407  0.0351 -0.1114
30094W        W73011  28.538  32.054  26.475 -0.1463 -0.3847  0.0692
30095W        W73012  28.241  34.265  29.631 -0.2254 -0.1321 -0.2392
30096W        W73013  30.374  32.343  30.432 -0.1097  0.0168 -0.0066
30097W        W73014  25.688  32.297  28.232  0.0794 -0.1907 -0.2974
30098W        W73015  25.127  33.641  26.382  0.4299 -0.0053 -0.1586
30099W        W73016  29.169  32.214  28.846 -0.0356  0.1394 -0.2005
30100W        W73017  25.831  32.727  29.754  0.1448 -0.0624 -0.0517
30101W        W73018  27.545  33.214  30.124  0.0988 -0.5920  0.0450
30102W        W73019  27.681  33.631  30.431 -0.0633 -0.0067  0.2220
30103W        W73020  28.575  31.975  28.291  0.1058 -0.0877 -0.0607
30104W        W73021  25.317   0.623  31.596  0.0759 -0.1461 -0.1282
30105W        W73022  27.043  34.579  28.288  0.0208 -0.0176 -0.1104
30106W        W73023  29.360  32.970  30.021 -0.1142  0.2953  0.0356
30107W        W73024  28.703   0.588  28.728 -0.2102 -0.1170 -0.1435
30108W        W73025  27.164  34.403  29.422  0.1728 -0.1428  0.1269
30109W        W73026  26.137  33.715  30.862 -0.1368  0.1605 -0.0277
30110W        W73027  28.459  34.077  30.094 -0.1112  0.0831 -0.0445
30111W        W73028  26.948  32.300  28.270  0.1658  0.0995 -0.2197
30112W        W73029  28.672   0.812  27.927 -0.1018 -0.0462  0.0959
30113W        W73030  26.975  34.267  30.613  0.2834 -0.1159 -0.0270
30114W        W73031  24.745  33.147  30.432  0.0019 -0.2667  0.0056
30115W        W73032  28.474   0.918   0.506 -0.5134 -0.0681 -0.1816
30116W        W73033  27.801  32.823  28.250  0.0851  0.2708 -0.0770
30117W        W73034  30.234  31.822  28.218 -0.0090 -0.2692  0.1552
30118W        W73035  28.089  32.995  30.100  0.2476  0.2234  0.3496
30119W        W73036  29.649   0.793  30.910 -0.1254 -0.0601  0.3829
30120W        W73037  28.468  33.857  26.951 -0.1697  0.2115 -0.2949
30121W        W73038  26.225  31.979   0.397  0.1881 -0.1930  0.0246
30122W        W73039  24.744  31.926  29.570  0.0640 -0.0529 -0.3391
30123W        W73040  24.161  32.843  30.999  0.0880 -0.2488 -0.1706
30124W        W73041  26.464  34.563  31.257 -0.1530  0.0350  0.1144
30125W        W73042  29.070   0.567  28.315 -0.0515 -0.0729 -0.0493
30126W        W73043  28.565  33.478  28.593  0.0755 -0.1276  0.0632
30127W        W73044  28.750  33.495  29.354  0.0423 -0.0069 -0.1245
30128W        W73045  29.796  33.161  29.880 -0.1072  0.4084  0.0442
30129W        W73046  24.126   1.639  28.293 -0.0849 -0.0606 -0.4632
30130W        W73047  28.524   0.324  30.737 -0.0372 -0.0048  0.1014
30131W        W73048  25.877  32.589  29.268 -0.2870  0.1463  0.0831
30132W        W73049  25.959  32.919  28.850  0.1451 -0.1489 -0.0224
30133W        W73050  26.081  32.680  30.189  0.1544 -0.0173  0.1943
30134W        W73051  27.599  34.525   0.893 -0.0873  0.0326  0.2871
30135W        W73052  25.004  33.013  29.188 -0.1705 -0.2121  0.0308
30136W        W73053  25.196  31.751  30.373  0.2352  0.1234  0.0591
30137W        W73054  28.278  33.576  27.310 -0.2626 -0.1052  0.1084
30138W        W73055  26.978  33.812  29.768  0.1219  0.1223 -0.3750
30139W        W73056  28.502  33.771  29.688 -0.0268  0.2190  0.1944
30140W        W73057  27.759  32.290  28.291 -0.0109  0.1357  0.2451
30141W        W73058  25.653  32.025  29.152  0.0225  0.0290  0.0889
30142W        W73059  25.331   1.607  31.011 -0.1994 -0.2494  0.2210
30143W        W73060  28.756  34.362  27.615 -0.1386 -0.1513 -0.1713
30144W        W73061  27.118  33.384  30.512 -0.1934  0.1414  0.0796
30145W        W73062  28.813  34.655  29.042  0.3635 -0.0811 -0.2351
30146W        W73063  22.481  32.623  29.679  0.2795 -0.1942 -0.0911
30147W        W73064  24.736  33.669  26.697 -0.2311 -0.0315  0.0312
30148W        W73065  27.758  33.928  27.657  0.3270  0.0346 -0.1128
30149W        W73066  27.464  31.783  26.599 -0.0272  0.2576  0.0181
30150W        W73067  28.184  31.666  31.763 -0.0015 -0.0493 -0.0273
30151W        W73068  29.920  30.650  28.306  0.0925  0.0307 -0.1459
30152W        W73069  27.346  33.318  29.309 -0.1253  0.0733  0.5752
30153W        W73070  30.922  34.568  30.024 -0.2497  0.1095 -0.0794
30154W        W73071  27.118  34.562  28.917 -0.5077  0.0097 -0.1328
30155W        W73072  27.416   0.719   0.112 -0.1382 -0.0560 -0.2973
30156W        W73073  26.606   0.268  27.479  0.1353  0.0233  0.3056
30157W        W73074  25.588   0.146  31.484 -0.0839 -0.1368  0.0785
30158W        W73075  26.206  33.401  28.927  0.2276 -0.0265 -0.1340
30159W        W73076  25.604  33.837  27.074  0.1581  0.2660 -0.1335
30160W        W73077  26.432  33.279  27.263 -0.1293  0.0296  0.4422
30161W        W73078  29.081  34.181  30.824  0.1070 -0.2009 -0.0569
30162W        W73079  28.224   0.855  29.602  0.1354 -0.4935  0.0158
30163W        W73080  24.697  33.385  29.153 -0.1154 -0.1237  0.1173
30164W        W73081  26.141  32.958  28.286  0.3612 -0.3355  0.3176
30165W        W73082  26.814  33.906  30.233 -0.2684  0.2943  0.0848
30166W        W73083  28.753  33.446  31.260 -0.0531  0.0557 -0.1432
30167W        W73084  26.226  33.733  28.006  0.1315 -0.1382 -0.0446
30168W        W73085  26.325  33.679  27.485 -0.0508 -0.2736 -0.1320
30169W        W73086  29.642  34.035  30.502  0.1281  0.1083  0.0874
30170W        W73087  28.681  34.125  29.379 -0.1440  0.1559  0.0917
30171W        W73088  26.558  32.634  28.162 -0.3950 -0.5642 -0.2209
30172W        W73089  27.995  34.597  29.991  0.2016  0.1482  0.1691
30173W        W73090  24.940   0.965  31.370  0.1055 -0.0423  0.1196
30174W        W73091  28.478  33.410  30.059  0.0025  0.1208  0.2082
30175W        W73092  27.195  32.814  28.983  0.1379 -0.0708 -0.1360
30176W        W73093  27.615  32.608  27.811  0.1741 -0.0200  0.0370
30177W        W73094  28.686   0.651  29.757  0.2749  0.0685  0.1087
30178W        W73095  28.197  33.914  26.439  0.1018 -0.1522 -0.1940
30179W        W73096  27.263   0.586  29.952  0.4230  0.1504  0.1341
30180W        W73097  29.351   0.857  27.165 -0.0462 -0.4256  0.0252
30181W        W73098  25.907  34.151  29.034 -0.4054  0.1082  0.0658
30182W        W73099  28.209  32.388  28.468 -0.0157  0.1618  0.2244
30183W        W73100  26.212   0.753  28.694  0.3090 -0.0443  0.0954
30184W        W73101  27.952  34.091  28.905 -0.1793 -0.0176 -0.0727
30185W        W73102  26.196  31.623  27.652  0.0502  0.2364 -0.1458
30186W        W73103  28.154   1.681  30.275  0.0690 -0.0660 -0.1086
30187W        W73104  29.227  33.282  29.477  0.1428  0.1121  0.2920
30188W        W73105  24.450  32.526  28.595  0.2613 -0.0231  0.2232
30189W        W73106  26.321  32.677  27.691  0.2603 -0.0526 -0.0048
30190W        W73107  25.796  33.622  27.718 -0.1972  0.0196 -0.0579
30191W        W73108  30.026  33.507  31.104  0.2119  0.0868  0.1212
30192W        W73109  28.858   0.902  31.222  0.3223  0.0527 -0.1465
30193W        W73110  30.063  33.007  30.960 -0.0570 -0.2556  0.2236
30194W        W73111  28.405  33.216  30.485  0.1257  0.1015 -0.0219
30195W        W73112  26.122  32.160  29.128 -0.0610 -0.0539 -0.1504
30196W        W73113  29.014  32.910  28.072 -0.0150 -0.1083  0.1490
30197W        W73114  27.106  32.569  27.537 -0.1274 -0.2453 -0.0187
30198W        W73115  26.406   0.429  30.885 -0.1206 -0.0029  0.0335
30199W        W73116  24.067  34.131  28.042  0.0033 -0.1221  0.2661
30200W        W73117  26.567  31.531  30.315 -0.0071 -0.0339  0.1178
30201W        W73118  24.831  32.419  29.377  0.0616 -0.0335 -0.0728
30202W        W73119  26.251  34.107  29.765 -0.5655 -0.3360 -0.0920
30203W        W73120  24.454  33.713  27.939  0.1510  0.0786 -0.1438
30204W        W73121  23.860  32.747  29.463  0.3610 -0.3745 -0.1482
30205W        W73122  24.852  33.665  29.726 -0.2121  0.1197  0.0039
30206W        W73123  27.911  32.837  28.738 -0.0146  0.2442  0.1500
30207W        W73124  30.583  34.530  29.632  0.0213  0.0905 -0.1309
30208W        W73125  28.168  31.714  30.141  0.1663 -0.0133 -0.0095
30209W        W73126  27.090  29.821  27.857  0.1141  0.0752  0.2438
30210W        W73127  27.493  32.915  27.389  0.0400 -0.0919  0.1109
30211W        W73128  23.225  32.130  29.170 -0.0413  0.0831  0.1673
30212W        W73129  28.805  34.564  30.435  0.2790 -0.2139  0.0051
30213W        W73130  28.134  32.837  27.862 -0.1416  0.4003  0.1474
30214W        W73131  28.805  33.759  30.163  0.2384 -0.3253 -0.0749
30215W        W73132  26.292  34.002  29.280  0.1002 -0.1074 -0.1506
30216W        W73133  27.414  32.415  30.558 -0.2059  0.2858 -0.0282
30217W        W73134  27.033  33.385  30.060 -0.1048  0.2448 -0.5901
30218W        W73135  29.334  32.517  30.294  0.0982  0.1344  0.1170
30219W        W73136  27.448  33.812  28.614  0.1708 -0.2599 -0.2729
30220W        W73137  26.973  33.720  28.386  0.1893  0.2033 -0.0581
30221W        W73138  31.030  34.492  28.237 -0.0877  0.0463 -0.0097
30222W        W73139  24.442  31.494  28.138 -0.1272  0.1650 -0.0793
30223W        W73140  24.120  31.394  29.007 -0.1223  0.0363  0.1927
30224W        W73141  27.394  34.179  28.202  0.3199  0.2359  0.1439
30225W        W73142  29.021  33.727  29.696  0.2901  0.0843 -0.2688
30226W        W73143  26.307  32.224  30.122 -0.2677 -0.0278 -0.0877
30227W        W73144  27.887  33.319  27.398 -0.1828 -0.0796  0.1908
30228W        W73145  30.280   1.723  30.147 -0.0101 -0.0476  0.0586
30229W        W73146  26.124  34.386  30.258 -0.0308 -0.0748 -0.0367
30230W        W73147  26.633  34.659  30.819 -0.0622  0.0683 -0.0912
30231W        W73148  27.779  32.614  31.767  0.2218  0.3386 -0.1582
30232W        W73149  25.774  33.927  30.372 -0.2299  0.3367  0.1232
30233W        W73150  27.054  34.587   0.369 -0.1244 -0.0791 -0.3073
30234W        W73151  25.628  34.561  30.753  0.0016  0.3441  0.0124
30235W        W73152  28.895   0.178   1.003  0.3309 -0.1823 -0.1786
30236W        W73153  23.757  32.602  31.243  0.0151  0.1052 -0.3008
30237W        W73154  26.104   0.342  30.044 -0.2805 -0.0579  0.0554
30238W        W73155  25.925  32.327  30.416 -0.1206  0.3715  0.0724
30239W        W73156  27.491  33.193  31.411  0.0581  0.3869  0.1251
30240W        W73157  27.815   0.748  31.318 -0.2218 -0.1589 -0.0495
30241W        W73158  26.052  33.950  31.623  0.0567  0.1763 -0.0408
30242W        W73159  26.902  32.479  30.600  0.0917 -0.1686  0.0241
30243W        W73160  26.682   0.316  31.326 -0.0863 -0.2442 -0.2931
30244W        W73161  27.297  33.902  30.632  0.0389 -0.0182  0.0280
30245W        W73162  26.651  34.475   0.081 -0.0516 -0.3350 -0.0268
30246W        W73163  28.542  31.132  31.257  0.0013  0.1645  0.1698
30247W        W73164  24.687  33.136   0.790  0.0817  0.1079 -0.0878
30248W        W73165  29.636  34.105   1.021  0.0109 -0.1794  0.1632
30249W        W73166  26.782   0.418  30.551 -0.0382  0.0227 -0.0168
30250W        W73167  26.811  33.772  30.743 -0.5211  0.0015 -0.1755
30251W        W73168  26.335  32.954  30.571 -0.2323 -0.0869 -0.1695
30252W        W73169  25.314   0.875  31.015  0.2520 -0.0237 -0.2856
30253W        W73170  26.694   1.595  31.604  0.0828  0.2084  0.1831
30254W        W73171  27.517  34.343  30.917  0.0410  0.0550 -0.0392
30255W        W73172  26.656  32.600  30.206 -0.4426  0.2110  0.0212
30256W        W73173  26.384  33.284  30.937  0.0649 -0.1275 -0.3651
30257W        W73174  25.369   2.051   0.244 -0.1316 -0.2134 -0.0774
30258W        W73175  25.758  34.425  31.760  0.1155 -0.1760 -0.1712
30259W        W73176  24.301   0.097  30.696  0.0703  0.3184 -0.3166
30260W        W73177  23.924  32.053  30.528 -0.3285 -0.1480 -0.0728
30261W        W73178  29.494  33.041   0.465 -0.2292  0.1463  0.0190
30262W        W73179  29.426   2.586  20.826  0.0245 -0.0059 -0.1461
30263W        W73180  29.768   0.665  17.467 -0.1053  0.0816 -0.0940
30264W        W73181  33.375   0.948  16.179 -0.1897 -0.1439 -0.0950
30265W        W73182  32.108   1.303  18.402 -0.2751  0.0371 -0.0797
30266W        W73183  30.284   1.708  19.218 -0.0578  0.2315 -0.0325
30267W        W73184  32.116   4.533  17.756 -0.1052  0.1986 -0.1901
30268W        W73185  29.500   0.248  18.311  0.1596  0.1353 -0.1706
30269W        W73186  31.408   3.115  19.743  0.0390  0.2848  0.3731
30270W        W73187  31.902   3.202  19.815 -0.0209 -0.4870  0.1354
30271W        W73188  32.309   2.567  16.791 -0.0719  0.0138  0.2120
30272W        W73189  30.443  34.613  18.313 -0.2022  0.2653 -0.0567
30273W        W73190  29.924   4.004  19.147  0.0655 -0.1057 -0.3258
30274W        W73191  32.243  32.958  17.271  0.2706  0.1702 -0.1125
30275W        W73192  29.649   0.591  18.590  0.2367  0.0093  0.4551
30276W        W73193  31.364   2.194  18.975  0.0316 -0.1895  0.2072
30277W        W73194  29.862   3.470  17.731  0.0408  0.0776 -0.0401
30278W        W73195  31.456   1.203  19.749 -0.0645 -0.0446 -0.1297
30279W        W73196  28.279  34.662  18.552  0.0227  0.1842 -0.1058
30280W        W73197  31.086   2.133  19.372  0.2771  0.1228  0.2418
30281W        W73198  31.099   1.353  20.219  0.2733 -0.1030 -0.0534
30282W        W73199  29.522   1.755  20.275 -0.2572  0.0132  0.2444
30283W        W73200  31.642   3.955  17.962 -0.1105  0.2016  0.0444
30284W        W73201  29.194   1.505  16.610  0.1330 -0.2345  0.2348
30285W        W73202  28.255   2.247  17.687  0.0796 -0.1555  0.0132
30286W        W73203  31.503   1.938  19.608  0.2211  0.2014 -0.1443
30287W        W73204  31.581   0.178  20.997  0.0269 -0.1738  0.0138
30288W        W73205  30.856  33.912  18.916  0.3433  0.2782 -0.2162
30289W        W73206  30.110   1.523  18.721  0.1141  0.0926  0.1369
30290W        W73207  29.710   2.997  19.656  0.0798  0.0334 -0.0828
30291W        W73208  32.573   1.275  21.567  0.0421 -0.0199 -0.1091
30292W        W73209  29.197   2.962  17.723  0.1334 -0.2274 -0.1855
30293W        W73210  29.468   3.706  19.113  0.2765  0.1550 -0.1687
30294W        W73211  31.720  34.466  17.831  0.1122  0.2481 -0.1768
30295W        W73212  30.897   2.550  17.924 -0.1275 -0.3364 -0.2563
30296W        W73213  30.523   3.471  20.896  0.0434  0.2336  0.0342
30297W        W73214  29.982   3.658  20.738  0.0833 -0.2152  0.0233
30298W        W73215  28.464   3.664  17.987 -0.2029 -0.1295 -0.3176
30299W        W73216  31.853   3.398  21.236  0.1630  0.0821  0.0683
30300W        W73217  29.289   2.782  19.384 -0.1901 -0.1266 -0.1149
30301W        W73218  30.922   0.691  19.194 -0.2268  0.1243 -0.0951
30302W        W73219  29.606   1.263  20.365 -0.1100  0.1556  0.0449
30303W        W73220  31.205   3.453  18.332 -0.0112 -0.1773 -0.2144
30304W        W73221  31.485   1.357  17.836 -0.0771  0.1173  0.3151
30305W        W73222  30.199   0.007  20.522 -0.0979 -0.0605 -0.0514
30306W        W73223  28.822   2.832  18.162  0.2939  0.2293 -0.1154
30307W        W73224  33.016   2.825  18.667 -0.0163  0.4212  0.0426
30308W        W73225  28.881   3.976  18.569 -0.3134 -0.0164 -0.1627
30309W        W73226  29.999   0.742  18.262  0.2527 -0.2038 -0.1052
30310W        W73227  30.655  31.336  16.994 -0.0285  0.0005 -0.3234
30311W        W73228  30.168   0.609  17.785  0.1217  0.1650  0.2219
30312W        W73229  32.209  33.178  18.254 -0.1719  0.1527  0.2760
30313W        W73230  29.508   3.812  17.935 -0.0356  0.2641  0.1548
30314W        W73231  31.228   2.599  20.496 -0.0230 -0.2230 -0.1940
30315W        W73232  32.295   4.587  18.226 -0.0227  0.2274 -0.0298
30316W        W73233  31.504   1.709  17.342 -0.0626  0.1662 -0.0602
30317W        W73234  31.618   0.303  18.860 -0.0857 -0.2806 -0.0766
30318W        W73235  28.083   0.982  20.236  0.0037  0.1928  0.1385
30319W        W73236  29.929   2.702  18.726 -0.1504  0.0402 -0.2429
30320W        W73237  32.258   4.586  16.768 -0.1121 -0.1216  0.0654
30321W        W73238  30.409   5.521  21.108  0.0699 -0.0073  0.5825
30322W        W73239  34.009   3.372  17.855 -0.0151  0.2883  0.2253
30323W        W73240  29.152   0.675  17.090  0.4072 -0.1638 -0.3273
30324W        W73241  30.177   2.003  21.084  0.1113 -0.2944  0.1041
30325W        W73242  30.095   0.443  20.831  0.1436 -0.0176  0.0966
30326W        W73243  29.572  33.506  17.781  0.1947 -0.0322 -0.2374
30327W        W73244  31.681   3.067  20.231 -0.2768 -0.2962 -0.0442
30328W        W73245  28.220   3.119  20.182  0.2002 -0.0337 -0.0782
30329W        W73246  32.758   1.508  17.604 -0.2060  0.0576  0.3605
30330W        W73247  29.036   0.394  20.190  0.3618  0.2402 -0.1279
30331W        W73248  32.362   1.142  19.553  0.0462  0.0215  0.2292
30332W        W73249  32.226   1.602  17.677 -0.0108 -0.2504 -0.0685
30333W        W73250  32.577   2.048  18.669  0.3160  0.0681 -0.1903
30334W        W73251  32.509   0.228  20.819 -0.0898 -0.3262  0.1766
30335W        W73252  29.550   2.350  17.443 -0.0512 -0.0147 -0.0759
30336W        W73253  31.541   0.660  18.445 -0.0870  0.2290  0.0667
30337W        W73254  34.118   3.033  18.439  0.0890 -0.0091 -0.0406
30338W        W73255  32.091   0.671  17.548 -0.1013 -0.2137  0.1150
30339W        W73256  29.376   2.692  20.272 -0.0771 -0.1289 -0.2126
30340W        W73257  31.377   0.261  18.159 -0.3722  0.1129 -0.0245
30341W        W73258  31.201   3.967  20.068 -0.2736  0.1668 -0.1145
30342W        W73259  28.488   2.925  17.603 -0.4070 -0.0288  0.2533
30343W        W73260  29.704   4.173  18.199 -0.0746 -0.1280  0.1793
30344W        W73261  30.538   1.728  17.576 -0.4502  0.2922 -0.0859
30345W        W73262  29.306  32.299  18.585 -0.0152  0.0725 -0.1593
30346W        W73263  28.713   3.673  17.586  0.0361 -0.1469  0.1197
30347W        W73264  32.863   1.145  16.846 -0.1265  0.2112 -0.0797
30348W        W73265  28.291   0.945  18.920 -0.1817 -0.0848 -0.1500
30349W        W73266  33.274   0.858  18.645 -0.3623 -0.0871  0.3375
30350W        W73267  31.969   1.155  17.912  0.1206  0.0411 -0.1734
30351W        W73268  32.602   2.355  20.761  0.1137 -0.0241 -0.0212
30352W        W73269  32.173  34.300  17.452  0.2654 -0.1829  0.0148
30353W        W73270  31.387   2.655  19.076 -0.1706 -0.1694 -0.0441
30354W        W73271  27.230   1.535  20.338 -0.3486 -0.1194  0.1795
30355W        W73272  29.697  34.474  18.118 -0.0204 -0.0557 -0.0939
30356W        W73273  28.180   0.487  20.090 -0.2261  0.0462  0.1301
30357W        W73274  29.506  34.078  16.739 -0.3017 -0.0306  0.3302
30358W        W73275  30.241   1.816  19.757 -0.0946 -0.2013 -0.3048
30359W        W73276  29.111   0.143  17.124  0.1551  0.1911 -0.1505
30360W        W73277  32.580   0.649  19.789  0.1881 -0.0217  0.0917
30361W        W73278  31.055   1.407  18.889  0.1890 -0.3350  0.0813
30362W        W73279  29.922   1.203  17.285  0.2593  0.0864 -0.1826
30363W        W73280  32.962  34.532  21.132  0.0218  0.1150 -0.0206
30364W        W73281  31.530   3.201  17.725 -0.0080 -0.1131  0.3303
30365W        W73282  34.261   2.967  19.421 -0.0150  0.1876 -0.2263
30366W        W73283  30.175   2.783  19.708  0.0521  0.0156 -0.0238
30367W        W73284  30.095   1.507  20.106  0.3207 -0.0468  0.0115
30368W        W73285  30.008  34.449  17.755 -0.0282  0.1449  0.0252
30369W        W73286  30.147   3.264  19.654 -0.0543  0.0223  0.0350
30370W        W73287  31.158   0.599  17.903  0.1260  0.1261  0.1078
30371W        W73288  30.446  32.929  17.903 -0.1009  0.1110  0.0641
30372W        W73289  32.345   2.518  19.828 -0.1468  0.3643 -0.1228
30373W        W73290  31.614   2.453  17.781  0.0164  0.1179 -0.2038
30374W        W73291  29.778   2.472  20.487  0.1085  0.3486 -0.0301
30375W        W73292  32.462  33.655  19.545  0.1033 -0.0269 -0.0225
30376W        W73293  32.343  34.548  19.969 -0.0059 -0.2398 -0.1010
30377W        W73294  30.692   1.930  19.521  0.2365 -0.0828  0.3851
30378W        W73295  30.242  34.150  17.468 -0.1044 -0.4047 -0.1667
30379W        W73296  30.887   4.304  21.295  0.0046  0.0233  0.4419
30380W        W73297  30.399   1.662  18.269 -0.0464 -0.3949  0.1173
30381W        W73298  27.794   2.233  17.404  0.2044  0.0305  0.1566
30382W        W73299  28.876   3.255  17.413 -0.2484  0.3080 -0.2347
30383W        W73300  30.620  34.398  17.738  0.0504  0.2642  0.0399
30384W        W73301  27.196   1.063  20.152 -0.0844 -0.0726 -0.0153
30385W        W73302  31.769   0.966  21.351  0.1361  0.1567  0.0348
30386W        W73303  29.158   2.245  17.920 -0.0095 -0.0158  0.0620
30387W        W73304  31.122   2.867  21.197 -0.0746  0.0337  0.1560
30388W        W73305  32.588   0.889  17.232  0.1631 -0.1053  0.1327
30389W        W73306  33.724   1.790  17.515 -0.1000 -0.1839  0.1123
30390W        W73307  30.861   1.626  20.544  0.1317  0.2052 -0.1239
30391W        W73308  32.199   3.926  18.024  0.4384  0.0526  0.2819
30392W        W73309  32.718  33.460  16.986  0.2232  0.1382 -0.0107
30393W        W73310  32.779   0.887  16.407  0.1748  0.0255  0.0036
30394W        W73311  30.245   0.917  20.702  0.2335  0.2732 -0.0015
30395W        W73312  30.531   3.087  17.948 -0.3608 -0.2105  0.1540
30396W        W73313  30.325  34.109  18.928  0.0878 -0.1517 -0.2779
30397W        W73314  31.868   0.697  18.097  0.0601  0.1399  0.4073
30398W        W73315  30.988   5.605  19.985 -0.0871 -0.0362 -0.0827
30399W        W73316  28.685   3.215  20.065  0.1641 -0.0113  0.0772
30400W        W73317  29.906   3.576  21.311 -0.0693  0.1503  0.6110
30401W        W73318  31.907   2.403  18.921 -0.0227 -0.1282  0.2799
30402W        W73319  31.707  33.986  17.533  0.4130  0.1411  0.1619
30403W        W73320  30.433   1.066  17.914  0.0801  0.0447  0.1082
30404W        W73321  32.454   1.201  16.642  0.1733 -0.0894  0.2587
30405W        W73322  29.233   3.490  17.713  0.0494 -0.0285  0.2228
30406W        W73323  34.014  34.457  19.982  0.0028  0.3228 -0.0821
30407W        W73324  30.646   1.035  18.934  0.0286 -0.4479  0.2056
30408W        W73325  31.549  32.952  20.314 -0.0864 -0.0674 -0.0062
30409W        W73326  33.514  33.339  17.957 -0.1025  0.3641  0.2670
30410W        W73327  30.837   2.552  18.457 -0.3009 -0.3725  0.1608
30411W        W73328  30.611   0.816  19.559 -0.0950 -0.2857  0.1377
30412W        W73329  30.658   0.664  17.664  0.0337  0.0953 -0.0015
30413W        W73330  30.318   0.875  20.032  0.0357  0.1025  0.0939
30414W        W73331  27.681   3.654  17.813  0.1315  0.0588 -0.0156
30415W        W73332  29.122   3.797  21.025 -0.0316  0.2827  0.1045
30416W        W73333  29.677   3.050  21.397  0.0609 -0.3307 -0.0567
30417W        W73334  33.341   1.925  18.716  0.0341  0.2615  0.0922
30418W        W73335  31.252   2.602  19.608  0.0440 -0.0013  0.0694
30419W        W73336  32.613   0.051  17.661  0.1959  0.1572 -0.0166
30420W        W73337  28.438   4.488  18.106  0.0722  0.2360  0.1915
30421W        W73338  31.528   2.210  17.260  0.0541  0.1990 -0.3426
30422W        W73339  30.344  33.594  18.814  0.1390 -0.0245 -0.0682
30423W        W73340  29.150   3.175  20.420 -0.0023 -0.0914 -0.0684
30424W        W73341  31.340   2.628  17.051  0.0014  0.3917 -0.0177
30425W        W73342  31.233   2.326  22.133  0.1420 -0.0356 -0.0891
30426W        W73343  29.800   3.528  19.383  0.1634  0.1300  0.0438
30427W        W73344  32.419  34.449  20.949 -0.0217  0.0356  0.0121
30428W        W73345  27.332   3.152  20.290 -0.2471 -0.1251 -0.2492
30429W        W73346  30.077   1.538  17.803  0.1565 -0.4958  0.0950
30430W        W73347  28.880   1.047  17.471 -0.0024  0.2693 -0.1592
30431W        W73348  30.726   0.783  17.108 -0.0211 -0.0594  0.1220
30432W        W73349  34.037   2.008  16.679  0.1200 -0.0775  0.0458
30433W        W73350  31.111   1.593  19.696 -0.3028 -0.4210  0.0960
30434W        W73351  29.638   1.139  19.269  0.1750 -0.0305  0.0950
30435W        W73352  31.207   3.045  18.749 -0.1332 -0.2228  0.2274
30436W        W73353  31.021  34.377  18.172 -0.0618 -0.0627 -0.5340
30437W        W73354  32.118   2.051  16.662 -0.0409 -0.1680 -0.4413
30438W        W73355  32.020   3.228  18.755  0.2633 -0.0104 -0.0425
30439W        W73356  29.489   2.283  21.747 -0.0641  0.1393  0.0191
30440W        W73357  30.481   1.477  17.190  0.1585  0.1177  0.1032
30441W        W73358  33.129  34.114  20.431 -0.1028 -0.2892 -0.0228
30442W        W73359  29.666   0.570  17.982 -0.0590  0.4653 -0.1409
30443W        W73360  28.285   2.595  18.039 -0.2336  0.0849  0.0640
30444W        W73361  30.906   2.951  19.785 -0.1280  0.0127  0.0249
30445W        W73362  29.925   2.900  18.168  0.1588  0.1714 -0.0802
30446W        W73363  29.646   1.697  18.625 -0.0960  0.0077 -0.0924
30447W        W73364  30.373   0.210  20.040  0.0964  0.1252 -0.2046
30448W        W73365  31.975   0.887  19.974  0.0558 -0.1984 -0.2214
30449W        W73366  30.658  34.304  18.614 -0.1968 -0.0706 -0.1445
30450W        W73367  30.399   0.151  17.766 -0.0657  0.0530 -0.0022
30451W        W73368  29.966   2.052  20.206  0.1696  0.1391 -0.0543
30452W        W73369  31.960   1.921  20.165 -0.1034 -0.0999  0.2137
30453W        W73370  28.765   1.652  19.667  0.1800 -0.0701  0.1905
30454W        W73371  31.693   2.749  17.383 -0.2123  0.3458 -0.1840
30455W        W73372  32.780  33.516  20.996 -0.1989  0.0914  0.0236
30456W        W73373  31.978   3.751  16.688 -0.1955  0.1525 -0.3459
30457W        W73374  32.422   1.127  20.079 -0.0642 -0.0485  0.1410
30458W        W73375  31.318   0.179  17.682  0.2606  0.1062  0.0738
30459W        W73376  29.370   0.432  19.148  0.1461  0.0390 -0.1265
30460W        W73377  30.531   2.187  18.394  0.1394 -0.2515 -0.0054
30461W        W73378  30.714   1.645  19.996  0.1168 -0.3640 -0.0182
30462W        W73379  28.435   5.054  18.148  0.1417 -0.3190 -0.1721
30463W        W73380  29.430   4.329  17.780  0.0080  0.1926 -0.2099
30464W        W73381  28.133   2.719  21.336  0.1481  0.0347  0.1100
30465W        W73382  30.363   0.519  17.305  0.3405 -0.1276 -0.0970
30466W        W73383  32.795   3.008  16.030 -0.2189  0.0943 -0.1371
30467W        W73384  32.109   1.029  17.033  0.0754 -0.3482  0.0364
30468W        W73385  31.493   1.767  21.188  0.3073 -0.0686  0.0453
30469W        W73386  31.776   1.653  18.139  0.0072  0.2677 -0.1899
30470W        W73387  31.216   0.940  18.724 -0.4788 -0.0894 -0.0315
30471W        W73388  29.798   1.932  19.567 -0.1459 -0.2908  0.2637
30472W        W73389  29.341   1.558  19.481 -0.1099  0.3397  0.1649
30473W        W73390  29.681  33.436  19.570 -0.2014  0.0477  0.3158
30474W        W73391  30.513   2.989  19.399  0.1928 -0.0739 -0.0511
30475W        W73392  28.505   2.835  21.618  0.1148 -0.1414  0.0848
30476W        W73393  30.794   0.094  18.628 -0.2037  0.1921  0.2011
30477W        W73394  30.379  34.460  19.316  0.2169  0.1044  0.1135
30478W        W73395  30.691   3.138  20.550 -0.2620  0.0284  0.0379
30479W        W73396  33.115   2.150  18.249  0.0814  0.0535  0.2762
30480W        W73397  31.919   3.599  18.355  0.0541 -0.2079 -0.1147
30481W        W73398  31.192   0.843  20.184  0.1891  0.3965 -0.0158
30482W        W73399  29.346   1.651  20.840 -0.1667  0.6723  0.0764
30483W        W73400  32.559   2.631  17.569 -0.4390  0.1272  0.0078
30484W        W73401  32.513   1.404  17.153  0.3145 -0.0945  0.0419
30485W        W73402  29.863   3.611  18.804  0.4171 -0.2934  0.2253
30486W        W73403  31.355  34.585  19.526 -0.4528  0.1361 -0.0974
30487W        W73404  30.430   2.615  20.156 -0.0109  0.2789  0.0877
30488W        W73405  31.960   0.642  19.071 -0.1431  0.1661  0.2893
30489W        W73406  29.092   1.029  20.144 -0.0050 -0.0021 -0.2854
30490W        W73407  29.923   1.443  19.562  0.4151 -0.3246 -0.0986
30491W        W73408  28.418   1.890  19.928 -0.0404  0.4178 -0.0154
30492W        W73409  27.969   2.557  19.828  0.1640 -0.2316 -0.1381
30493W        W73410  31.812   1.449  22.172  0.3310  0.0827  0.1766
30494W        W73411  33.496   1.874  16.065  0.0827 -0.2508 -0.0829
30495W        W73412  32.379   0.407  18.153 -0.1886  0.1122 -0.0262
30496W        W73413  31.976   2.178  18.032  0.0339  0.3034  0.2111
30497W        W73414  30.870   2.403  17.102  0.1496 -0.0189 -0.0058
30498W        W73415  28.921   1.362  19.289 -0.0584  0.1589  0.1483
30499W        W73416  31.787   3.941  20.261 -0.0279 -0.1484 -0.0270
30500W        W73417  31.668  33.985  18.501  0.0242 -0.0382 -0.3197
30501W        W73418  29.985   2.247  19.170  0.1495  0.3264 -0.0590
30502W        W73419  30.876   3.055  18.305 -0.0704 -0.0458 -0.2625
30503W        W73420  30.569   1.475  18.828  0.0325  0.0789  0.3186
30504W        W73421  31.220   0.953  16.957 -0.1970  0.1943 -0.3120
30505W        W73422  28.539   0.763  19.788  0.1480  0.1943  0.0539
30506W        W73423  29.863   2.335  21.405  0.3738  0.3993 -0.0983
30507W        W73424  29.128   0.409  16.725 -0.0717 -0.3484  0.2430
30508W        W73425  30.677   1.190  16.879  0.0916 -0.1941  0.3912
30509W        W73426  29.834   2.610  20.008 -0.0962  0.0978 -0.2548
30510W        W73427  31.777   1.041  21.923  0.0769  0.1932 -0.0687
30511W        W73428  32.345   1.127  17.578 -0.4135 -0.0086 -0.1002
30512W        W73429  33.785   2.869  17.854 -0.1647  0.0552 -0.1426
30513W        W73430  27.684   3.926  19.170  0.0719 -0.0031  0.0374
30514W        W73431  34.226  34.667  18.343 -0.1234  0.1161 -0.0232
30515W        W73432  28.582   5.130  20.038 -0.1571 -0.0070 -0.1013
30516W        W73433  27.496   2.506  19.491  0.0647 -0.2350 -0.1993
30517W        W73434  27.708   0.951  20.672  0.1009 -0.2131 -0.0144
30518W        W73435  31.442   2.111  20.399 -0.0873 -0.2127 -0.3729
30519W        W73436  30.638  33.594  18.404  0.1037  0.0135  0.0278
30520W        W73437  31.192   1.141  20.670  0.1865  0.0683  0.1430
30521W        W73438  33.179   0.062  21.596 -0.2292 -0.4401 -0.2396
30522W        W73439  32.604   1.346  19.154 -0.2440  0.3588  0.0129
30523W        W73440  31.666   3.626  17.486 -0.0649 -0.0984 -0.0540
30524W        W73441  30.285   5.070  21.256 -0.0268  0.4150 -0.1895
30525W        W73442  31.803   1.137  18.885 -0.2475 -0.0417  0.3021
30526W        W73443  30.744   1.469  17.967  0.2377  0.1670  0.2572
30527W        W73444  27.477   2.525  21.349  0.0071 -0.2442  0.1852
30528W        W73445  30.736   1.334  21.775 -0.0442  0.0487  0.0994
30529W        W73446  29.360   1.083  19.730  0.1104  0.0164 -0.0544
30530W        W73447  28.824   2.824  19.650  0.0526 -0.4034  0.0577
30531W        W73448  32.115   3.145  18.234 -0.0945 -0.0933  0.1093
30532W        W73449  29.233   3.056  19.925 -0.1424  0.0446 -0.1699
30533W        W73450  27.732   3.178  19.878  0.5247  0.1850 -0.2710
30534W        W73451  27.786   4.631  17.832 -0.0309  0.3293 -0.0021
30535W        W73452  31.149   2.012  18.573 -0.1174  0.1361 -0.1546
30536W        W73453  34.001   1.018  18.065 -0.1583 -0.2276  0.1275
30537W        W73454  30.519   3.326  21.378 -0.3948  0.2931  0.4487
30538W        W73455  32.032   0.194  17.412  0.2216 -0.5001 -0.0958
30539W        W73456  31.526   1.194  18.301  0.0340  0.0057 -0.1546
30540W        W73457  29.821   3.609  17.269  0.0697  0.1556  0.0613
30541W        W73458  34.045   4.171  16.544 -0.0926 -0.2280 -0.0564
30542W        W73459  30.073   2.468  18.335 -0.2350  0.0986 -0.2525
30543W        W73460  33.581   4.206  20.722  0.0193 -0.0093 -0.2394
30544W        W73461  32.856   2.154  15.953 -0.1650 -0.0516 -0.0109
30545W        W73462  32.802   1.825  17.984 -0.1349 -0.2075  0.2473
30546W        W73463  33.256   1.489  16.280  0.0681  0.3437  0.1379
30547W        W73464  30.494   3.782  20.467  0.0935 -0.1822 -0.0144
30548W        W73465  29.805   1.757  21.356  0.2585 -0.2358  0.1907
30549W        W73466  31.110  31.358  17.234  0.1430 -0.0452 -0.1930
30550W        W73467  29.723   3.897  19.702  0.1025  0.2040  0.0305
30551W        W73468  31.838  34.344  20.049 -0.0163 -0.0899 -0.0926
30552W        W73469  29.619   3.449  19.895  0.0161  0.2005 -0.1997
30553W        W73470  30.745   3.523  18.110 -0.2449 -0.5129  0.4469
30554W        W73471  29.224  34.572  16.417 -0.0477 -0.4007  0.1944
30555W        W73472  28.465  34.532  20.287  0.0902 -0.3010 -0.0446
30556W        W73473  33.702   1.085  18.935 -0.3357 -0.2031  0.0629
30557W        W73474  31.669   0.945  17.295  0.0971 -0.1451  0.3579
30558W        W73475  31.741   0.217  20.072 -0.1610  0.3021  0.0475
30559W        W73476  29.459   4.746  19.450  0.0886 -0.0130  0.1774
30560W        W73477  30.190   3.111  17.531 -0.3423  0.3182  0.0985
30561W        W73478  30.720   4.367  18.047  0.1417  0.0439 -0.0199
30562W        W73479  30.165  33.941  18.432  0.1438  0.2315 -0.1609
30563W        W73480  31.650   2.067  18.410  0.0159 -0.0779 -0.2700
30564W        W73481  28.471   2.901  21.030  0.0076  0.0977 -0.1967
30565W        W73482  33.262   1.581  19.640 -0.3796 -0.0782  0.0568
30566W        W73483  28.840   1.208  18.789 -0.0844  0.0796  0.0911
30567W        W73484  33.479   2.870  18.283  0.0990 -0.1426 -0.3465
30568W        W73485  30.161   2.703  19.188 -0.0770  0.0244  0.0296
30569W        W73486  29.392   2.053  18.809  0.0567 -0.0229  0.1934
30570W        W73487  31.526   0.854  17.745  0.1128 -0.2863  0.2448
30571W        W73488  32.713  34.223  19.829  0.1686 -0.1229  0.1670
30572W        W73489  31.721   1.871  16.918  0.0756 -0.3041 -0.2100
30573W        W73490  30.030   5.298  21.936 -0.2632  0.3176  0.2279
30574W        W73491  30.031  33.846  17.900  0.1251 -0.3188  0.0137
30575W        W73492  31.475   1.532  18.660  0.0604 -0.0575  0.1633
30576W        W73493  28.444   2.662  19.986  0.0705 -0.0189 -0.0083
30577W        W73494  27.910   3.116  21.144  0.2673  0.0808 -0.2707
30578W        W73495  31.609   1.215  20.317  0.2362  0.0318 -0.1119
30579W        W73496  30.448   0.517  18.191  0.0915  0.1629 -0.2261
30580W        W73497  31.822   2.877  17.894  0.0827 -0.0299  0.1760
30581W        W73498  32.020   1.843  18.667  0.4167  0.1692  0.1474
30582W        W73499  30.640   2.761  17.544 -0.1508 -0.1929  0.0387
30583W        W73500  32.409   2.131  17.602  0.0366  0.0368  0.0662
30584W        W73501  32.133   2.857  19.095  0.1097  0.2442 -0.1897
30585W        W73502  27.752   0.993  18.832 -0.1579 -0.1491 -0.0839
30586W        W73503  30.702   2.878  18.864 -0.1823 -0.0493 -0.3865
30587W        W73504  32.583   0.316  19.188  0.0168 -0.5024 -0.1125
30588W        W73505  30.219  33.187  17.419 -0.0721  0.0713 -0.1224
30589W        W73506  28.677   0.860  19.277 -0.0487  0.0818 -0.2047
30590W        W73507  28.090   0.934  18.059 -0.1095  0.0336  0.0539
30591W        W73508  32.711  34.136  18.400 -0.0234  0.2103  0.1285
30592W        W73509  31.065   2.055  20.037 -0.0825  0.2312  0.2385
30593W        W73510  31.969   3.435  17.858 -0.0184 -0.0284  0.1564
30594W        W73511  32.659   0.822  19.272  0.0269  0.0792 -0.1214
30595W        W73512  29.296   6.001  20.027  0.1291  0.0381 -0.1605
30596W        W73513  30.474   3.111  20.064  0.2076 -0.2185  0.1351
30597W        W73514  30.536   2.267  17.562 -0.0653 -0.0978 -0.0098
30598W        W73515  31.285   4.358  20.413  0.1532  0.1010 -0.0480
30599W        W73516  30.478   2.532  16.784 -0.1296 -0.1245  0.1004
30600W        W73517  31.015   3.125  17.805  0.1319 -0.3111 -0.1384
30601W        W73518  33.285   1.401  19.133 -0.1227 -0.1120 -0.2117
30602W        W73519  31.267   1.895  16.969  0.4108  0.0953  0.0193
30603W        W73520  33.021   3.221  19.054  0.4778 -0.1796  0.3312
30604W        W73521  32.066  34.214  18.170  0.1891  0.1507  0.1225
30605W        W73522  34.417   0.750  17.990  0.1536  0.2879  0.0195
30606W        W73523  31.146   2.737  17.496  0.1529  0.0519  0.0580
30607W        W73524  29.221   2.510  19.769 -0.4097  0.0565  0.1305
30608W        W73525  29.995   0.180  18.123  0.0102 -0.2465  0.2493
30609W        W73526  32.989   2.481  17.273 -0.3031  0.3006  0.0881
30610W        W73527  30.922   3.560  20.229  0.1267 -0.2817  0.2504
30611W        W73528  31.214   0.155  19.133  0.1284 -0.0327 -0.0779
30612W        W73529  29.937  34.341  18.566  0.1163 -0.0477 -0.2042
30613W        W73530  29.584   2.162  19.949  0.0795  0.0106 -0.2065
30614W        W73531  29.592   1.878  17.223 -0.0333  0.0118  0.1149
30615W        W73532  32.168   4.162  16.415 -0.3499 -0.0479  0.4299
30616W        W73533  29.548  34.411  19.479  0.1152 -0.2124 -0.1957
30617W        W73534  29.759  33.129  18.680  0.0277 -0.0921  0.0578
30618W        W73535  32.068   2.493  17.642  0.0918 -0.0668  0.1061
30619W        W73536  30.801   3.332  19.077 -0.2291  0.2039 -0.1888
30620W        W73537  31.560   0.470  17.358 -0.0419 -0.1666 -0.1168
30621W        W73538  31.858   4.477  19.556  0.0641 -0.0693  0.0670
30622W        W73539  31.287   1.720  18.168  0.0828 -0.1442 -0.0462
30623W        W73540  29.798   1.134  22.581  0.2888 -0.3818  0.0815
30624W        W73541  30.472  34.396  19.883  0.0336  0.2681  0.0133
30625W        W73542  28.826  32.955  18.085  0.0342 -0.2079 -0.2674
30626W        W73543  29.036   1.757  18.086  0.2050 -0.3699  0.0057
30627W        W73544  31.596   3.101  18.373  0.1896 -0.1149 -0.0618
30628W        W73545  31.709   4.279  16.679  0.2140  0.3042 -0.1662
30629W        W73546  29.231   2.230  20.530  0.3269  0.1137  0.2488
30630W        W73547  29.161   1.531  19.963 -0.3481  0.0607 -0.0319
30631W        W73548  28.649   1.977  18.508 -0.3955 -0.2870 -0.4594
30632W        W73549  33.033   2.054  16.434  0.0530 -0.1312 -0.4286
30633W        W73550  31.665   2.390  19.394  0.2949  0.2934 -0.0259
30634W        W73551  31.312   2.792  18.086 -0.1480  0.1346  0.1791
30635W        W73552  32.949   1.738  18.992  0.0902 -0.2102 -0.2540
30636W        W73553  32.285   3.021  17.797  0.0473 -0.0714 -0.1749
30637W        W73554  29.861   1.041  20.006 -0.0834  0.2266 -0.7005
30638W        W73555  31.610   1.406  21.625 -0.1924  0.0742  0.0268
30639W        W73556  33.328   2.443  18.807  0.1559  0.0834  0.3438
30640W        W73557  29.850  34.324  19.046 -0.2623  0.1312 -0.1156
30641W        W73558  32.175   0.420  19.610 -0.3309 -0.0756 -0.0901
30642W        W73559  32.193   2.767  18.604 -0.0579  0.0282 -0.0651
30643W        W73560  28.441   3.168  18.199  0.3240  0.3160  0.0543
30644W        W73561  32.254   1.850  17.200  0.0295 -0.2516  0.1536
30645W        W73562  30.227   1.412  20.583 -0.3086 -0.3145  0.0973
30646W        W73563  30.768   3.471  18.585  0.1646  0.1546 -0.1384
30647W        W73564  32.450   2.240  21.240 -0.0726  0.1621 -0.1181
30648W        W73565  29.843  33.892  17.076 -0.0589 -0.1078 -0.1547
30649W        W73566  32.361   4.197  17.526  0.0890  0.0464  0.3271
30650W        W73567  32.417   3.279  19.921  0.0658 -0.0543 -0.0354
30651W        W73568  30.671   4.867  20.419  0.0714 -0.0387  0.0174
30652W        W73569  32.694   2.685  19.457  0.2620 -0.3771  0.0149
30653W        W73570  30.544   0.216  20.831  0.4406 -0.0025 -0.2420
30654W        W73571  28.523  33.768  20.408 -0.1643  0.0489  0.2599
30655W        W73572  30.569   1.139  18.412  0.0338 -0.1596 -0.0533
30656W        W73573  32.602   1.378  18.111  0.0886  0.2718  0.0713
30657W        W73574  33.246   0.316  18.758 -0.0538  0.2818 -0.0434
30658W        W73575  30.690   0.249  19.126 -0.1430 -0.0736  0.0776
30659W        W73576  31.799   0.314  17.839 -0.3380 -0.1707 -0.0024
30660W        W73577  30.250   2.827  20.702 -0.3945 -0.2250  0.0757
30661W        W73578  28.951   3.108  19.245 -0.0438  0.1655  0.1340
30662W        W73579  30.815   2.123  22.383 -0.1154 -0.2435 -0.0424
30663W        W73580  30.507  34.366  21.434  0.0021 -0.0575 -0.1713
30664W        W73581  32.949   1.185  19.550 -0.1686  0.0954 -0.1247
30665W        W73582  32.155   2.889  20.130  0.0219  0.2515 -0.0971
30666W        W73583  28.374   1.492  21.589  0.1691 -0.4870  0.1053
30667W        W73584  32.587   3.708  20.007  0.0051 -0.1698  0.0944
30668W        W73585  31.642  34.558  21.791 -0.2577 -0.3173  0.1036
30669W        W73586  32.949   3.250  21.873 -0.5751  0.2727 -0.2146
30670W        W73587  32.366   2.765  20.660 -0.1045 -0.2253  0.2901
30671W        W73588  30.360   2.468  21.127  0.1781  0.0830  0.2986
30672W        W73589  31.297   2.420  21.265  0.1332  0.1523  0.1427
30673W        W73590  30.088   1.271  23.071 -0.0297  0.2729 -0.0231
30674W        W73591  31.249  34.410  19.978 -0.0176 -0.2590 -0.0415
30675W        W73592  27.455  33.353  23.203  0.2287  0.0815 -0.0573
30676W        W73593  32.176   1.074  21.118 -0.0060  0.3589  0.0407
30677W        W73594  28.576   0.186  22.693 -0.0278 -0.1380 -0.0582
30678W        W73595  28.046  33.272  22.558  0.0271 -0.0475 -0.0953
30679W        W73596  31.007   2.084  21.460  0.1353  0.0277  0.1282
30680W        W73597  32.007   4.644  20.957 -0.2086 -0.3105 -0.1686
30681W        W73598  30.015   0.515  19.798  0.1346  0.0310 -0.0048
30682W        W73599  32.369  34.588  21.904  0.1400 -0.2916  0.0893
30683W        W73600  32.583   3.502  22.696  0.3090  0.1040 -0.1160
30684W        W73601  29.098   2.274  21.025  0.3040  0.0265 -0.1501
30685W        W73602  28.089  34.188  22.300  0.0476 -0.2848 -0.0977
30686W        W73603  31.037   1.851  21.956  0.1518  0.0315  0.2822
30687W        W73604  31.527   0.330  22.004 -0.0846 -0.0389 -0.1723
30688W        W73605  33.122  34.488  19.993  0.1326  0.1556 -0.3769
30689W        W73606  29.620   2.727  22.852 -0.0201 -0.3941 -0.2668
30690W        W73607  31.353   3.891  24.840  0.1953  0.0396 -0.0076
30691W        W73608  32.026   1.402  23.444 -0.0415 -0.2389  0.0579
30692W        W73609  31.204   1.870  22.617 -0.1578 -0.1833  0.0413
30693W        W73610  28.231   4.129  24.257  0.4596 -0.0111  0.1177
30694W        W73611  27.432   3.879  21.894 -0.0482  0.1147 -0.2192
30695W        W73612  32.854   1.480  20.001 -0.0702 -0.2606 -0.1960
30696W        W73613  32.552   2.094  23.999  0.2021 -0.1582  0.1397
30697W        W73614  30.764   4.637  23.688 -0.0501 -0.3545 -0.1066
30698W        W73615  28.554   2.494  21.309  0.0985  0.3506 -0.2243
30699W        W73616  29.672   2.998  23.842 -0.3223  0.0529  0.1458
30700W        W73617  27.874   2.960  23.494  0.0449 -0.3455  0.1642
30701W        W73618  28.150   1.769  22.985  0.3109  0.0426  0.0459
30702W        W73619  33.432   2.277  21.068 -0.0453 -0.0217 -0.4034
30703W        W73620  29.106   4.815  22.351 -0.1178 -0.4486  0.2857
30704W        W73621  30.655   1.639  21.349 -0.0596  0.1192  0.1104
30705W        W73622  27.818   2.641  21.719  0.0234  0.1261  0.1576
30706W        W73623  28.900   1.647  21.623 -0.2021 -0.1056  0.1875
30707W        W73624  33.661  34.186  25.985  0.1148  0.1812 -0.1661
30708W        W73625  29.309   1.154  20.912 -0.0063 -0.1112 -0.2830
30709W        W73626  31.104   0.768  21.138  0.4560  0.3044 -0.0328
30710W        W73627  30.849  33.857  22.268  0.0231 -0.0238 -0.4343
30711W        W73628  31.806   1.244  20.823 -0.1283 -0.0669 -0.2052
30712W        W73629  30.124  34.096  21.225 -0.1830  0.1560  0.0565
30713W        W73630  29.828   2.173  22.730 -0.1378 -0.0732 -0.1062
30714W        W73631  28.936  34.217  22.367 -0.4008 -0.2514 -0.1422
30715W        W73632  29.990   3.556  23.986 -0.2952  0.1760  0.0270
30716W        W73633  31.639   1.424  23.120 -0.0368  0.2938  0.0808
30717W        W73634  32.555   3.010  22.830 -0.3342  0.1846  0.1777
30718W        W73635  26.337   4.631  23.334 -0.1404  0.1205  0.0102
30719W        W73636  30.108  33.749  21.691 -0.1614 -0.0117  0.0469
30720W        W73637  32.287   3.937  20.320 -0.0461 -0.1836  0.0908
30721W        W73638  33.910   2.887  22.732 -0.0105 -0.1737 -0.0869
30722W        W73639  32.775   1.338  21.080 -0.3651  0.1990 -0.0440
30723W        W73640  29.919  34.475  22.432  0.0907 -0.0749 -0.0206
30724W        W73641  30.105   2.671  22.701 -0.2073  0.1295  0.1057
30725W        W73642  28.995   1.933  22.463  0.3928  0.1999  0.2905
30726W        W73643  30.898   0.755  18.316  0.1292 -0.2036 -0.0012
30727W        W73644  32.312   1.687  20.932 -0.1350 -0.0226 -0.6260
30728W        W73645  28.657   3.878  24.974 -0.1966  0.1843  0.1856
30729W        W73646  33.746   1.232  20.946 -0.4872  0.1509  0.2286
30730W        W73647  28.808   2.805  22.418  0.0564 -0.0625 -0.0150
30731W        W73648  32.629   3.773  23.794 -0.0666 -0.4245  0.0649
30732W        W73649  31.844   2.689  19.820 -0.2434  0.0865  0.1503
30733W        W73650  30.744  34.238  21.910  0.0431 -0.0615  0.4798
30734W        W73651  31.052   0.453  21.705 -0.1232  0.1016 -0.1066
30735W        W73652  32.239   1.612  19.526  0.0127 -0.1529  0.1330
30736W        W73653  31.478   3.123  21.465  0.1277  0.1043 -0.2261
30737W        W73654  34.322   3.077  21.740  0.2448 -0.0838 -0.5272
30738W        W73655  32.053   3.654  19.799 -0.1711  0.2067 -0.0548
30739W        W73656  26.574   1.805  23.965 -0.4189 -0.0843  0.0379
30740W        W73657  32.201   1.841  22.137  0.2151 -0.3598 -0.0107
30741W        W73658  30.418   1.705  23.150 -0.0786  0.2556  0.4301
30742W        W73659  28.988   4.472  21.375  0.0107 -0.0045  0.4119
30743W        W73660  30.896   1.183  21.270  0.1548 -0.0542 -0.2033
30744W        W73661  30.262   3.645  22.652 -0.2664 -0.2114 -0.1062
30745W        W73662  29.498  34.600  21.063 -0.2489 -0.0968 -0.1679
30746W        W73663  29.560   0.166  22.380  0.0802  0.0542  0.2834
30747W        W73664  32.082   0.075  21.131 -0.2704  0.2161  0.0900
30748W        W73665  31.037   0.302  23.927  0.1125  0.2140 -0.1952
30749W        W73666  32.307   1.936  21.597 -0.1536 -0.1787  0.0361
30750W        W73667  28.414   1.939  22.522  0.3229 -0.2824  0.1181
30751W        W73668  33.395   5.158  21.889  0.1652  0.0449  0.0949
30752W        W73669  33.690   2.461  20.678  0.4588 -0.2010  0.0257
30753W        W73670  33.577  34.573  22.603 -0.1721  0.2154 -0.2050
30754W        W73671  29.249  33.989  21.863  0.2268 -0.0193  0.3046
30755W        W73672  27.162   0.316  21.535  0.2026 -0.2338 -0.1279
30756W        W73673  31.725   1.975  23.235  0.0431 -0.0332  0.1044
30757W        W73674  30.518  32.788  23.331 -0.2719 -0.2258 -0.0841
30758W        W73675  30.529   2.830  23.678 -0.2657 -0.1558 -0.0784
30759W        W73676  30.026  32.374  22.249  0.0772 -0.1132  0.1651
30760W        W73677  32.421   1.227  20.688  0.2173  0.1683 -0.1522
30761W        W73678  29.273   0.967  22.644 -0.2867 -0.1686  0.1147
30762W        W73679  26.575   2.126  22.387  0.1330  0.0293 -0.0864
30763W        W73680  33.791   1.110  24.538 -0.1011 -0.0800  0.2669
30764W        W73681  31.551   3.527  20.076  0.0378  0.1403 -0.2187
30765W        W73682  34.642   4.497  23.647 -0.0321 -0.0064  0.2270
30766W        W73683  30.890   1.488  22.285 -0.0175 -0.4521  0.1176
30767W        W73684  29.830   0.643  22.655  0.1597  0.0883 -0.2270
30768W        W73685  28.721   1.519  20.187  0.1672 -0.4319  0.1063
30769W        W73686  28.311   3.989  21.114 -0.2686  0.2370 -0.1519
30770W        W73687  31.168   3.822  22.059  0.1930  0.0697 -0.2583
30771W        W73688  31.168   3.162  20.155 -0.1205  0.1043 -0.2978
30772W        W73689  32.918   3.060  22.308 -0.1951 -0.3028 -0.2296
30773W        W73690  31.944   1.469  21.247  0.1867 -0.3158 -0.0791
30774W        W73691  30.573   1.127  23.063  0.1642  0.0376 -0.2071
30775W        W73692  32.833   0.958  21.991 -0.1112 -0.1216  0.2844
30776W        W73693  33.461   0.263  22.942 -0.3397  0.2079 -0.0424
30777W        W73694  30.677   0.207  21.323  0.2518 -0.1268  0.4653
30778W        W73695  29.346   0.029  20.070 -0.3010  0.0718 -0.2039
30779W        W73696  30.129   4.152  20.757  0.0052 -0.1522 -0.1888
30780W        W73697  28.566   1.961  19.335 -0.3546  0.1815  0.0726
30781W        W73698  30.955  34.454  21.182 -0.1436 -0.1723 -0.0513
30782W        W73699  29.716   3.256  22.656  0.3135  0.0390  0.2932
30783W        W73700  30.581   2.156  20.043  0.0010 -0.0871  0.1337
30784W        W73701  28.677   0.059  22.090 -0.1191  0.0534 -0.0743
30785W        W73702  33.443   2.780  24.358  0.2858  0.0531 -0.0574
30786W        W73703  29.582  34.100  20.947  0.3712  0.2006  0.1522
30787W        W73704  29.295   3.307  22.244 -0.2149  0.0823 -0.0031
30788W        W73705  30.450  34.655  22.355  0.0390  0.1103 -0.1154
30789W        W73706  33.280   1.087  20.541 -0.1936  0.0272  0.2819
30790W        W73707  31.846   2.367  22.909  0.1072 -0.1837  0.1736
30791W        W73708  34.013   2.043  19.850 -0.4010 -0.2134 -0.0289
30792W        W73709  31.407   2.662  20.053 -0.0960 -0.1157  0.1584
30793W        W73710  31.861  33.285  21.095 -0.3684 -0.0612  0.0270
30794W        W73711  30.992   2.105  24.469  0.0254 -0.1751 -0.2980
30795W        W73712  32.181   0.876  21.653 -0.1386 -0.2300 -0.0026
30796W        W73713  29.112   3.296  25.080  0.0674 -0.0902 -0.0295
30797W        W73714  29.504   0.812  22.239 -0.3524 -0.1857  0.0402
30798W        W73715  34.125   4.739  22.496  0.1685 -0.0863  0.2809
30799W        W73716  28.561   2.293  23.399  0.0477 -0.3426 -0.3838
30800W        W73717  32.313   2.288  23.040  0.1312  0.2894 -0.1354
30801W        W73718  31.887   2.257  21.956 -0.0839  0.1251 -0.2768
30802W        W73719  30.300   1.037  21.816 -0.0926 -0.0430 -0.3052
30803W        W73720  29.484   2.459  18.509 -0.1415  0.0502 -0.0226
30804W        W73721  31.092  34.552  20.688 -0.2649  0.0440 -0.2063
30805W        W73722  29.446   2.601  21.322  0.1319 -0.1300  0.2932
30806W        W73723  31.626   2.334  22.434  0.1734  0.2595 -0.1107
30807W        W73724  30.724   0.810  21.584  0.0262  0.1299 -0.0790
30808W        W73725  31.895  34.221  22.736  0.0928 -0.0176  0.1951
30809W        W73726  33.225   3.405  23.251  0.0710 -0.0582 -0.0435
30810W        W73727  32.283   2.945  19.537  0.0430 -0.0708 -0.1206
30811W        W73728  32.480   1.455  23.350  0.0026  0.1277 -0.0167
30812W        W73729  29.271   5.035  21.872  0.0191 -0.1578 -0.1727
30813W        W73730  29.935   1.794  23.072  0.2359  0.2834 -0.0904
30814W        W73731  33.273   1.625  23.808  0.0414  0.0176  0.2394
30815W        W73732  28.627   3.511  21.687  0.0864  0.1872 -0.1463
30816W        W73733  32.201   3.805  22.949  0.1156 -0.1977  0.0874
30817W        W73734  29.812   0.280  21.336 -0.0356 -0.0601 -0.0055
30818W        W73735  31.969   0.756  23.895 -0.2573  0.0853 -0.1343
30819W        W73736  30.597  33.501  21.779  0.1853 -0.2006  0.1557
30820W        W73737  28.437   3.265  21.328 -0.1568 -0.1653  0.1090
30821W        W73738  29.757   1.394  20.841 -0.0773  0.1498  0.6661
30822W        W73739  29.580   0.486  21.828 -0.0757 -0.1267 -0.0028
30823W        W73740  31.247   1.158  22.053  0.0761 -0.0495  0.1182
30824W        W73741  29.860   2.637  21.023 -0.0009 -0.2449 -0.1866
30825W        W73742  29.334   3.104  21.729 -0.1116 -0.0019 -0.2778
30826W        W73743  31.837   3.195  22.164 -0.0830  0.0032 -0.0916
30827W        W73744  32.912  33.387  21.952 -0.1204 -0.0661  0.1768
30828W        W73745  28.409   3.288  22.364  0.5857  0.0052 -0.0661
30829W        W73746  28.061   2.175  20.153  0.0510  0.3495  0.0246
30830W        W73747  29.052   2.639  21.651  0.2022  0.0733 -0.0699
30831W        W73748  31.700  34.508  21.312 -0.1135  0.0199  0.2306
30832W        W73749  32.698   2.831  21.948 -0.2754 -0.2533  0.2426
30833W        W73750  29.627   1.911  23.589 -0.1694  0.0527  0.0892
30834W        W73751  29.897   1.599  22.502  0.0646 -0.0573  0.1247
30835W        W73752  28.570   2.655  23.042 -0.3364  0.2015 -0.1062
30836W        W73753  30.625   2.499  22.672  0.0640  0.1107 -0.0242
30837W        W73754  31.548  34.494  20.388 -0.1255 -0.0382  0.0575
30838W        W73755  33.333   2.027  22.967  0.1906  0.0665 -0.1916
30839W        W73756  31.109   3.384  24.855  0.1528 -0.1689 -0.0789
30840W        W73757  28.827   1.323  21.171  0.0020 -0.0484  0.0228
30841W        W73758  30.029  33.308  22.093 -0.1778 -0.0401  0.0689
30842W        W73759  28.889  34.552  19.839  0.1742 -0.1578 -0.1915
30843W        W73760  29.373   1.133  21.793 -0.1656 -0.1897 -0.2444
30844W        W73761  32.536   1.326  22.792  0.0071 -0.0176 -0.1431
30845W        W73762  28.746   3.612  22.190  0.1050 -0.0776 -0.0023
30846W        W73763  32.172   1.754  23.086  0.1091  0.0362  0.2089
30847W        W73764  27.057   1.949  22.596  0.0026 -0.3931  0.1294
30848W        W73765  32.109   3.846  21.522  0.1332 -0.2340 -0.2014
30849W        W73766  29.799   0.050  22.863  0.0732  0.1749  0.3890
30850W        W73767  29.466   0.521  20.073  0.2351  0.1517 -0.2514
30851W        W73768  30.845   0.034  19.979 -0.2600  0.2487  0.2399
30852W        W73769  30.365   1.439  22.582  0.0306  0.2414  0.0697
30853W        W73770  33.210   2.296  23.441  0.3006 -0.2778  0.0774
30854W        W73771  29.360   1.884  22.836  0.4924  0.3550 -0.0223
30855W        W73772  28.250   0.196  21.949 -0.0248 -0.2340  0.1858
30856W        W73773  34.536   3.996  20.638  0.2488  0.0037 -0.0677
30857W        W73774  31.615   1.540  24.119 -0.3197 -0.2862  0.3150
30858W        W73775  31.288   1.344  22.676 -0.2352  0.0238 -0.2992
30859W        W73776  29.589   0.753  21.406 -0.1761 -0.1194  0.0443
30860W        W73777  31.022   3.107  21.648  0.0181 -0.1172 -0.2864
30861W        W73778  31.251   0.987  21.556 -0.2098 -0.0410 -0.2699
30862W        W73779  30.208   2.548  23.986 -0.2886 -0.1182  0.2824
30863W        W73780  28.127   3.252  20.697 -0.0514 -0.1368 -0.1678
30864W        W73781  29.140   1.821  24.929  0.0617 -0.2688 -0.0949
30865W        W73782   1.573  32.391  21.963  0.3393  0.1198  0.0053
30866W        W73783  30.120   2.091  21.711  0.0763  0.1379 -0.1022
30867W        W73784  32.555   0.080  21.452 -0.0284 -0.0619 -0.0304
30868W        W73785  33.169   0.975  23.951  0.0610  0.1305  0.0182
30869W        W73786  32.054   1.488  19.096  0.0508 -0.0735  0.1848
30870W        W73787  33.357   0.084  22.219  0.0216 -0.2464  0.3037
30871W        W73788  29.209   0.568  23.208  0.1248 -0.2269 -0.1799
30872W        W73789  30.784   2.322  21.015 -0.1043 -0.1403 -0.2698
30873W        W73790  29.200   1.056  23.261  0.0446  0.0105  0.0396
30874W        W73791  30.000   2.076  23.946 -0.1652 -0.1218 -0.1584
30875W        W73792  27.549   1.503  23.268  0.1537 -0.1442 -0.2633
30876W        W73793  30.613  33.120  20.843  0.0366 -0.0348 -0.1039
30877W        W73794  29.035   0.093  22.444 -0.0548  0.0587  0.3059
30878W        W73795  30.762   0.922  22.130 -0.1172 -0.2122 -0.0448
30879W        W73796  33.709   3.610  21.240 -0.3185  0.0484  0.1481
30880W        W73797  29.938   2.134  22.201  0.0673 -0.0871 -0.1478
30881W        W73798  32.532   1.108  23.980 -0.2038  0.0306 -0.1033
30882W        W73799  29.475   1.988  22.369 -0.1347 -0.0119  0.2765
30883W        W73800  31.534   2.387  20.814  0.3362 -0.4165  0.0376
30884W        W73801  30.218  34.176  20.320  0.3616 -0.0838  0.4301
30885W        W73802  30.514   4.115  22.575 -0.0652 -0.0120 -0.0233
30886W        W73803  32.251   0.472  22.466 -0.1675  0.1624  0.3577
30887W        W73804  32.797   3.251  23.722  0.3483  0.2793  0.0502
30888W        W73805  30.322   0.240  19.453 -0.0167 -0.1543 -0.1461
30889W        W73806  29.128   2.709  23.016 -0.0078 -0.0991  0.2286
30890W        W73807  33.379   1.837  22.356  0.0472 -0.0189  0.1009
30891W        W73808  31.094   1.193  23.098 -0.2388  0.0198  0.1436
30892W        W73809  30.278   2.178  24.942  0.0565 -0.0644 -0.3661
30893W        W73810  33.063   3.863  23.511 -0.1820  0.1587 -0.0211
30894W        W73811  31.832   0.956  19.476  0.1697 -0.2155 -0.2964
30895W        W73812  32.486   0.072  22.348  0.2911  0.1954 -0.0760
30896W        W73813  31.843   1.827  21.730  0.0217  0.1134  0.2075
30897W        W73814  31.826   0.314  20.615 -0.0913  0.0502  0.1409
30898W        W73815  30.229   1.513  21.152 -0.2061 -0.2819  0.4318
30899W        W73816  32.408   2.124  25.080  0.1762 -0.0787  0.2731
30900W        W73817  28.463   2.292  19.024 -0.3372  0.2676  0.0380
30901W        W73818  34.438  34.461  23.067  0.3862 -0.0649  0.0663
30902W        W73819  30.569   3.473  19.711  0.0118 -0.0131 -0.2212
30903W        W73820  32.390   3.385  21.611  0.0211  0.1111 -0.2854
30904W        W73821  30.957   0.322  19.534 -0.3498  0.1501  0.4481
30905W        W73822  30.700  34.145  22.715 -0.3064  0.2191 -0.1396
30906W        W73823  31.733   2.206  23.805 -0.3518  0.0850  0.2120
30907W        W73824  29.589   2.096  21.006  0.0716 -0.2214  0.1542
30908W        W73825  29.177   1.489  22.606 -0.0228 -0.4685  0.0867
30909W        W73826  30.646   3.337  23.785 -0.2953 -0.1540 -0.1106
30910W        W73827  31.282   0.116  21.386  0.1386 -0.1399 -0.1601
30911W        W73828  31.659   0.673  20.293 -0.0144 -0.1529 -0.1466
30912W        W73829  34.300  34.314  24.609 -0.1387 -0.1059 -0.1994
30913W        W73830  31.189   1.766  23.128 -0.1323 -0.0312 -0.1405
30914W        W73831  33.243   1.166  21.093  0.0351 -0.0264  0.0317
30915W        W73832  30.616   2.909  24.150  0.2487  0.0490  0.3812
30916W        W73833  28.653   3.231  20.560 -0.2015 -0.0387 -0.4055
30917W        W73834  29.464   2.285  23.099 -0.2253 -0.3313  0.0834
30918W        W73835  32.274   0.401  21.972 -0.0326 -0.0331 -0.5309
30919W        W73836  31.047   1.557  21.023  0.0134 -0.3008 -0.0972
30920W        W73837  30.943   3.605  23.353  0.2124  0.0823  0.1061
30921W        W73838  32.121   1.114  23.031 -0.0959 -0.0220  0.0147
30922W        W73839  30.307   2.189  23.066 -0.0893 -0.0981  0.0506
30923W        W73840  30.650   1.831  20.908  0.2827  0.2736 -0.2996
30924W        W73841  31.453   3.230  23.563  0.1538  0.0742 -0.0866
30925W        W73842  33.464   2.121  21.922  0.0294 -0.2367  0.1404
30926W        W73843  28.819   1.192  22.938  0.0255  0.3368  0.1022
30927W        W73844  28.894   1.603  23.947  0.0928  0.1403  0.2672
30928W        W73845  32.710   1.831  23.069  0.0740 -0.0834 -0.2492
30929W        W73846  32.915   2.019  22.349 -0.1964  0.1803  0.5466
30930W        W73847  30.816   2.166  20.501  0.1540 -0.2038  0.1188
30931W        W73848  31.685   2.879  21.073  0.1261 -0.3291 -0.0722
30932W        W73849  30.765   1.335  23.905  0.3035 -0.3991  0.2676
30933W        W73850  30.761   1.443  23.434  0.2052  0.0989  0.0056
30934W        W73851  30.357   4.448  22.019 -0.2475  0.0473  0.1561
30935W        W73852  30.224   2.888  21.336 -0.0707 -0.0836  0.0252
30936W        W73853  30.306   1.940  22.579 -0.0949  0.2203  0.0890
30937W        W73854  31.806   3.930  23.201 -0.0903  0.1945 -0.2560
30938W        W73855  29.331   1.461  21.336  0.3314  0.1578 -0.0761
30939W        W73856  30.049   3.268  21.674  0.2114 -0.1872  0.0734
30940W        W73857  30.526   2.098  21.465 -0.0047 -0.2912 -0.0152
30941W        W73858  31.149   3.648  21.589 -0.3775 -0.0065  0.0343
30942W        W73859  29.104   4.212  21.805  0.2401 -0.0094  0.1563
30943W        W73860  30.583   3.988  25.883  0.0210  0.1558  0.2261
30944W        W73861  32.100   0.162  19.184  0.1214  0.0987 -0.0774
30945W        W73862  33.368   2.471  23.934  0.1102 -0.1976  0.0187
30946W        W73863  32.230  32.640  20.926  0.0261 -0.1243  0.1597
30947W        W73864  31.626   1.824  24.568 -0.1033 -0.2960  0.4316
30948W        W73865  29.952   0.761  21.961 -0.1345  0.0680  0.1101
30949W        W73866  31.180   2.040  20.814  0.4716  0.2403  0.2954
30950W        W73867  31.298   2.119  23.528 -0.0497 -0.0577 -0.3272
30951W        W73868  31.709  34.487  24.863 -0.0536 -0.0518 -0.1386
30952W        W73869  27.389   4.411  24.155  0.1591 -0.1195 -0.1029
30953W        W73870  31.147   1.573  21.542  0.1195  0.0467 -0.0582
30954W        W73871  30.746   2.344  21.888 -0.1839 -0.2427  0.0881
30955W        W73872  29.038   1.362  22.100  0.1553  0.0222 -0.1735
30956W        W73873  31.926   0.053  22.692 -0.1656 -0.1923 -0.0612
30957W        W73874  30.898   2.339  18.919 -0.2194  0.1555 -0.0247
30958W        W73875  31.429   0.699  20.760 -0.2609  0.0316  0.2605
30959W        W73876  29.711   2.595  22.369  0.2960  0.1450  0.0100
30960W        W73877  32.704   4.165  22.116 -0.0027  0.1218  0.1869
30961W        W73878  31.313   4.117  24.045  0.0729  0.0040 -0.2058
30962W        W73879  29.866   1.709  21.975 -0.0504 -0.0627  0.0612
30963W        W73880  33.555   0.738  21.880  0.1465  0.1815  0.0119
30964W        W73881  28.120   1.093  21.645 -0.3040 -0.0711 -0.1499
30965W        W73882  31.737  34.578  23.575 -0.1149  0.1203  0.0750
30966W        W73883  29.159  34.025  21.231 -0.1631  0.1615  0.2448
30967W        W73884  30.216   2.307  20.666 -0.0657  0.3012  0.1983
30968W        W73885  31.460   2.758  24.327 -0.1205  0.0285 -0.0438
30969W        W73886  31.303  34.250  23.425 -0.1360 -0.0900 -0.1866
30970W        W73887  30.930   2.550  20.115 -0.2190  0.4615  0.3495
30971W        W73888  32.892   2.836  23.232 -0.0513 -0.0503  0.0035
30972W        W73889  32.158   2.406  19.353  0.1438  0.1844  0.0491
30973W        W73890  31.691   1.723  23.666 -0.0805 -0.0871 -0.3590
30974W        W73891  29.774   0.065  21.949 -0.1089  0.0569 -0.0728
30975W        W73892  30.249   0.311  21.601  0.1640 -0.1584  0.3903
30976W        W73893  29.324   2.030  21.386 -0.0504 -0.0414 -0.1278
30977W        W73894  29.845   1.254  22.111 -0.0756  0.0106  0.2591
30978W        W73895  31.383   2.254  23.034 -0.1700  0.2361 -0.0453
30979W        W73896  28.839  33.763  22.213  0.0013 -0.3034 -0.1157
30980W        W73897  34.019   1.294  21.334  0.1288  0.1458 -0.0188
30981W        W73898  33.294   1.640  23.252  0.0141  0.2787 -0.3798
30982W        W73899  28.204   5.059  22.189  0.2508 -0.1804 -0.0456
30983W        W73900  33.649   1.299  22.320 -0.0845  0.2552  0.2188
30984W        W73901  30.210   3.528  22.156 -0.2323  0.4886 -0.3300
30985W        W73902  27.321   0.508  22.611  0.4018  0.0337  0.1165
30986W        W73903  29.701   3.952  21.055  0.0432  0.1105 -0.0755
30987W        W73904   0.355   4.031  23.790 -0.4204 -0.0122 -0.2350
30988W        W73905  29.190   0.231  22.014 -0.0621  0.2543  0.1963
30989W        W73906  29.589   1.427  23.131 -0.1566  0.1179  0.0013
30990W        W73907  29.394   1.614  21.823 -0.4036  0.2027 -0.0715
30991W        W73908  32.516   3.335  22.147 -0.1706  0.1574 -0.2347
30992W        W73909  32.304  34.188  21.578 -0.0336 -0.1087 -0.1001
30993W        W73910  30.041   5.470  20.405  0.3421 -0.0771  0.0028
30994W        W73911  33.671  34.102  21.124 -0.4600  0.0284  0.1327
30995W        W73912  32.569   4.329  23.505 -0.2610  0.0754  0.0355
30996W        W73913  32.329   1.934  24.506 -0.2958 -0.1974  0.4900
30997W        W73914  29.651   0.202  19.677  0.3148  0.1777  0.2208
30998W        W73915  31.307   1.994  24.167 -0.0825  0.1983  0.0629
30999W        W73916  31.639   2.695  22.122 -0.1441 -0.0061  0.1797
31000W        W73917  30.157   3.537  23.448  0.2305 -0.3291  0.2677
31001W        W73918  32.139   2.817  21.959  0.2447 -0.0320 -0.3390
31002W        W73919  30.848   0.308  20.474  0.0478  0.1134 -0.3112
31003W        W73920  32.634   4.652  23.029  0.1601  0.1009 -0.0162
31004W        W73921  30.011   1.781  24.802 -0.2552 -0.0472  0.2248
31005W        W73922  32.416  34.622  19.466  0.2696  0.0522  0.1440
31006W        W73923  31.346  33.566  22.373 -0.0130  0.1927 -0.0790
31007W        W73924  31.801   3.251  22.825  0.1770  0.1125  0.1549
31008W        W73925  30.591   0.648  21.088 -0.1336  0.4327  0.1678
31009W        W73926  30.185   1.516  21.638 -0.0264  0.0161 -0.0553
31010W        W73927  27.839   1.057  23.629  0.1756  0.1890 -0.0331
31011W        W73928  31.784   0.283  23.221  0.1351  0.1838 -0.2296
31012W        W73929  29.627   0.883  23.076 -0.1881  0.0676 -0.1009
31013W        W73930  30.216   0.954  22.321 -0.0951  0.2101 -0.0606
31014W        W73931  29.937   0.630  20.328  0.1786  0.3418  0.1988
31015W        W73932  32.943   4.611  22.120  0.0218 -0.2639 -0.0504
31016W        W73933  29.148   0.745  23.676 -0.0832 -0.2638  0.0959
31017W        W73934  28.264   0.397  21.060 -0.1402 -0.1669  0.1974
31018W        W73935  31.513   3.348  20.593  0.2831  0.1356  0.2651
31019W        W73936  32.341   2.408  20.317  0.1517  0.0641  0.2414
31020W        W73937  29.824   1.176  21.257 -0.1982 -0.2186 -0.1238
31021W        W73938  32.932   4.187  23.152 -0.1168  0.0575 -0.0332
31022W        W73939  28.967   1.932  20.125 -0.1608 -0.3691 -0.0428
31023W        W73940  32.643   2.195  23.434  0.1837 -0.2612  0.1253
31024W        W73941  31.512   1.233  23.547  0.2226 -0.0674  0.0630
31025W        W73942  28.800  33.790  20.869 -0.1820  0.0044  0.1510
31026W        W73943  31.671   2.226  19.972  0.0407 -0.1328 -0.0187
31027W        W73944  32.207   2.428  23.554 -0.1515  0.2056  0.0264
31028W        W73945  32.788   4.064  19.704 -0.1081  0.0521 -0.1699
31029W        W73946  28.900   3.368  23.247  0.0193  0.0599  0.1985
31030W        W73947  31.420   3.374  21.957  0.0735  0.0435  0.3301
31031W        W73948  32.364   0.993  23.487 -0.3771  0.0345 -0.1328
31032W        W73949  32.877  34.574  19.191  0.0001 -0.1708 -0.1655
31033W        W73950  31.638   4.144  21.909  0.0497 -0.2365 -0.0447
31034W        W73951  34.138   2.417  21.528  0.5477  0.1935 -0.0072
31035W        W73952  32.718   0.440  22.751 -0.1803 -0.2857 -0.2993
31036W        W73953  32.140   0.960  22.543 -0.1521  0.2211 -0.2909
31037W        W73954  31.240   0.368  22.979 -0.0722  0.0100  0.0337
31038W        W73955  29.197   3.107  23.662 -0.2086  0.1071  0.2765
31039W        W73956  34.138   2.920  21.231 -0.1680  0.1912  0.0517
31040W        W73957  29.023   0.820  21.257 -0.1221 -0.0487  0.1108
31041W        W73958  31.661   0.921  22.901 -0.1755 -0.2229 -0.0202
31042W        W73959  32.745   1.759  21.299 -0.0491 -0.3380  0.4187
31043W        W73960  31.877   0.599  22.164  0.1392  0.0259  0.1257
31044W        W73961  30.423   1.817  20.384 -0.0820  0.1567 -0.3491
31045W        W73962  31.886   0.852  23.369  0.0356  0.4541  0.0869
31046W        W73963  30.803   2.374  23.812 -0.1514 -0.1506 -0.0523
31047W        W73964  31.505   3.200  24.581 -0.1899 -0.0185 -0.1004
31048W        W73965  28.466   1.743  20.961 -0.2453  0.0046 -0.0353
31049W        W73966  32.629   3.792  21.855 -0.0861  0.4033 -0.0046
31050W        W73967  34.023   3.906  21.615  0.0563  0.0060 -0.1185
31051W        W73968  32.459   4.925  23.423  0.1967 -0.0056 -0.1691
31052W        W73969  30.727   3.959  23.000  0.0129  0.1220 -0.0700
31053W        W73970  33.015   2.974  25.185 -0.0447 -0.2168  0.0527
31054W        W73971  30.464   0.561  21.955  0.1498 -0.1512 -0.0397
31055W        W73972  30.374   2.416  22.255 -0.2368  0.1441 -0.0126
31056W        W73973  28.317   0.892  22.892 -0.0842  0.0992  0.1517
31057W        W73974  31.900   2.162  21.297 -0.0924  0.0945  0.1132
31058W        W73975  30.524  34.392  20.891 -0.0760 -0.2102  0.0667
31059W        W73976  31.054  33.061  22.565 -0.1722 -0.2674  0.0849
31060W        W73977  28.087   4.184  23.058 -0.1943  0.2117  0.0140
31061W        W73978  32.134   2.028  22.629 -0.2135  0.3848  0.3040
31062W        W73979  31.421   1.635  27.398  0.1459  0.4971  0.2328
31063W        W73980  31.464   0.345  25.979  0.1466  0.0481  0.3288
31064W        W73981  33.118   0.499  21.919 -0.0643 -0.2547  0.2148
31065W        W73982  32.947   1.274  23.101 -0.2519 -0.1253 -0.1071
31066W        W73983  29.619   2.456  25.258 -0.4549  0.2506 -0.1363
31067W        W73984  32.116   4.394  24.405 -0.0676  0.1124 -0.1038
31068W        W73985  30.496   0.238  25.031  0.3127  0.2339 -0.1246
31069W        W73986  31.290   3.590  27.085  0.1023  0.1522  0.0962
31070W        W73987  32.926   3.004  26.706 -0.1962  0.0522 -0.0535
31071W        W73988  32.297   2.902  23.746 -0.0226  0.0748 -0.1621
31072W        W73989  28.846  33.637  25.834  0.1364  0.2953  0.3177
31073W        W73990  30.943   3.849  27.388  0.2147 -0.1516 -0.1812
31074W        W73991  29.477   0.065  23.388 -0.1942  0.0601  0.2811
31075W        W73992  31.268   1.126  25.165 -0.0728  0.1936  0.0140
31076W        W73993  32.117   3.089  27.168  0.0299 -0.0742 -0.2171
31077W        W73994  28.072   1.417  25.045  0.1397  0.3857 -0.2930
31078W        W73995  30.516   0.242  23.129  0.0892  0.1579 -0.1142
31079W        W73996  30.952   0.379  23.377 -0.1447  0.2429  0.1114
31080W        W73997  32.287   4.133  25.349  0.0792 -0.1204  0.1306
31081W        W73998  29.713   0.038  27.764 -0.1696  0.0789 -0.1757
31082W        W73999  30.831  32.771  28.666 -0.2628 -0.0440  0.1213
31083W        W74000  31.719   2.468  23.392 -0.1150 -0.0804 -0.2537
31084W        W74001  30.545   0.662  24.696 -0.0211 -0.0913  0.0251
31085W        W74002  29.997  33.309  26.469  0.0962 -0.1414 -0.0821
31086W        W74003  33.133   1.680  26.861 -0.0043 -0.1926  0.1009
31087W        W74004  33.230   0.937  25.906  0.0907  0.4201  0.1838
31088W        W74005  32.436   2.986  25.325 -0.0732 -0.1407 -0.2321
31089W        W74006  31.825   3.357  26.387 -0.0285  0.0237 -0.0443
31090W        W74007  31.799   3.372  26.977 -0.1403 -0.1372 -0.0268
31091W        W74008  32.799   1.180  27.738  0.3262 -0.1650 -0.0918
31092W        W74009  30.132   4.723  25.880  0.2894  0.0084  0.0643
31093W        W74010  29.425   2.933  25.009  0.2306  0.0443 -0.1469
31094W        W74011  30.818   4.390  26.435  0.1709  0.0526 -0.0281
31095W        W74012  32.275   0.736  26.007  0.1029 -0.2584 -0.0561
31096W        W74013  32.438   2.149  26.527  0.4327 -0.2881  0.2048
31097W        W74014  30.732   3.134  26.792 -0.1636 -0.0945  0.0898
31098W        W74015  28.832   4.266  24.081  0.0963  0.3909 -0.0012
31099W        W74016  30.304   4.177  26.194  0.1107  0.1362  0.2236
31100W        W74017  29.406   2.693  26.081  0.1465  0.0050 -0.0286
31101W        W74018  30.758   0.617  26.619  0.0173  0.5410 -0.3566
31102W        W74019  32.132   2.958  24.278 -0.3477 -0.2227 -0.1041
31103W        W74020  30.102   4.003  26.810 -0.1175  0.0106  0.0342
31104W        W74021  31.385   1.464  26.938  0.2454 -0.1676 -0.3532
31105W        W74022  31.740  34.448  27.780  0.1599 -0.2097 -0.1896
31106W        W74023  30.084   1.659  25.597 -0.1205 -0.0928  0.3373
31107W        W74024  30.996   1.168  26.693  0.3682 -0.0419 -0.2247
31108W        W74025  30.050   3.658  24.678 -0.0042 -0.3599 -0.0023
31109W        W74026  33.425   2.000  24.328  0.1350  0.1252 -0.0293
31110W        W74027  30.282   1.687  24.184  0.0267 -0.2065 -0.0910
31111W        W74028  31.232  34.244  21.655 -0.2001  0.0646  0.2081
31112W        W74029  31.771   0.503  22.687  0.0217 -0.3168  0.1649
31113W        W74030  32.092   2.650  25.133 -0.1996 -0.1815  0.2627
31114W        W74031  29.253   0.110  27.160 -0.0411 -0.0033  0.0959
31115W        W74032  31.539   2.036  27.998 -0.2809 -0.5523 -0.1667
31116W        W74033  32.452   1.502  24.361 -0.0531  0.4425  0.2199
31117W        W74034  30.954   0.221  25.774 -0.0895 -0.2171 -0.2040
31118W        W74035  30.081   2.679  27.192 -0.0315 -0.2377  0.0240
31119W        W74036  29.568  34.595  26.678 -0.3709  0.0514 -0.1122
31120W        W74037  30.746   1.816  23.879 -0.0066 -0.0021  0.1808
31121W        W74038  31.188   4.372  28.123  0.1680 -0.3035  0.0904
31122W        W74039  30.466   3.709  25.461  0.1194  0.1767  0.0542
31123W        W74040  28.777   3.029  24.796  0.1403 -0.0877  0.0318
31124W        W74041  28.188   0.859  26.110  0.1018  0.1015  0.0865
31125W        W74042  30.401   1.283  25.427  0.0099 -0.1007  0.0472
31126W        W74043  28.803  34.159  23.767  0.0683  0.1372  0.1746
31127W        W74044  32.531   1.983  28.658 -0.3224  0.1509  0.2036
31128W        W74045  29.703   1.979  26.603 -0.3252  0.0019 -0.1644
31129W        W74046  32.406   3.234  25.778 -0.2289  0.0618 -0.1033
31130W        W74047  31.025   1.877  26.852  0.2111 -0.3509 -0.3579
31131W        W74048  33.477   2.217  26.594 -0.0099 -0.0493  0.0404
31132W        W74049  31.740   3.340  27.500 -0.1012  0.0005 -0.1331
31133W        W74050  31.364   1.514  25.552 -0.0991 -0.1795  0.1062
31134W        W74051  33.591  34.290  27.090  0.0053 -0.5178  0.0562
31135W        W74052  29.271   2.347  22.619  0.1342 -0.2640  0.0420
31136W        W74053  32.692   0.449  26.249  0.0825 -0.2745  0.0247
31137W        W74054  33.933   2.561  27.560 -0.0277  0.0205 -0.1095
31138W        W74055  33.433   1.292  24.203  0.1253  0.1452  0.0216
31139W        W74056  29.931   4.872  27.062 -0.3176 -0.0755  0.1742
31140W        W74057  31.524   1.522  28.160  0.2491  0.2371  0.3982
31141W        W74058  31.479   1.447  25.983  0.0980  0.5701  0.0161
31142W        W74059  29.830   3.408  25.566  0.1298 -0.4132  0.1661
31143W        W74060  30.141   2.825  26.163  0.1348 -0.1695  0.0523
31144W        W74061  27.675   3.685  25.571 -0.3230  0.1891 -0.0676
31145W        W74062  30.874   0.034  25.341 -0.0757 -0.5130  0.3068
31146W        W74063  28.949   3.108  25.841  0.3155  0.1450 -0.0450
31147W        W74064  33.686   0.456  26.736  0.2545 -0.2062  0.3038
31148W        W74065  30.896   0.938  27.223 -0.2420 -0.1901 -0.1062
31149W        W74066  33.792   0.051  27.155 -0.1620 -0.2881 -0.1022
31150W        W74067  30.875   1.529  25.036 -0.1975 -0.3793 -0.1455
31151W        W74068  31.324   3.535  25.390 -0.2090 -0.2378  0.0313
31152W        W74069  32.272   0.260  23.391 -0.0239 -0.4512  0.0390
31153W        W74070  32.129   1.855  23.559  0.3320 -0.3953  0.0393
31154W        W74071  28.980   1.236  25.110  0.0404 -0.3496  0.0804
31155W        W74072  29.036   0.340  26.575  0.1942  0.0773  0.0880
31156W        W74073  28.831  33.817  28.330 -0.0173  0.2980 -0.2034
31157W        W74074  29.437   0.027  28.208  0.2658 -0.0717 -0.1643
31158W        W74075  32.990   1.910  28.470 -0.0166 -0.3896 -0.0438
31159W        W74076  29.981   0.333  23.615 -0.1425  0.0205  0.1716
31160W        W74077  33.656   1.602  25.086  0.0194  0.0831 -0.1559
31161W        W74078  30.808   3.659  26.756  0.5017 -0.1755  0.0810
31162W        W74079  27.404   2.607  24.731 -0.1066 -0.1329 -0.1332
31163W        W74080  31.772   0.774  26.846  0.1597 -0.0220  0.1521
31164W        W74081  31.829   4.078  24.711 -0.1806  0.0321 -0.1656
31165W        W74082  31.116   3.513  28.365  0.2941  0.1689  0.0562
31166W        W74083  33.095   3.432  26.252  0.2386 -0.1751  0.0791
31167W        W74084  29.528  34.067  26.681 -0.2198 -0.1570  0.3745
31168W        W74085  28.360   2.795  24.623 -0.2158  0.2319  0.0421
31169W        W74086  28.785   5.784  27.606 -0.1311  0.0821 -0.0797
31170W        W74087  33.828   3.045  26.222  0.1420  0.0487  0.3708
31171W        W74088  30.306   1.775  23.658 -0.2441 -0.0345 -0.0931
31172W        W74089  33.914   4.389  24.174 -0.5484 -0.0507 -0.1830
31173W        W74090  31.572   2.029  25.698  0.0300 -0.2753  0.1407
31174W        W74091  31.731   0.949  26.108 -0.2558  0.3074  0.1529
31175W        W74092  32.291   1.006  27.024 -0.0428  0.0646 -0.1654
31176W        W74093  33.157   2.200  26.993 -0.3398  0.0429  0.1964
31177W        W74094  32.459   2.277  26.028 -0.4403 -0.2392 -0.0880
31178W        W74095  31.714   0.684  25.157 -0.2191 -0.0846  0.1445
31179W        W74096  31.753   3.813  26.215  0.0039 -0.0975 -0.2162
31180W        W74097  30.320   3.110  22.610  0.0034  0.1255 -0.0907
31181W        W74098  28.498   3.732  24.516  0.1581  0.2938  0.0338
31182W        W74099  30.607   2.325  25.445 -0.0353 -0.0857  0.0881
31183W        W74100  32.203   1.397  25.202 -0.2943 -0.0799 -0.1171
31184W        W74101  30.311  34.273  27.324 -0.1785  0.2364 -0.0010
31185W        W74102  32.102  34.640  28.525 -0.0706  0.3711  0.5050
31186W        W74103  29.068   2.417  25.244 -0.3052 -0.2186  0.2143
31187W        W74104  29.715   3.621  28.287  0.0023  0.2084  0.1750
31188W        W74105  33.473  33.894  25.497 -0.0387 -0.1159 -0.0635
31189W        W74106  32.610   2.251  22.643  0.0553  0.0277 -0.1045
31190W        W74107  32.634   1.871  26.971  0.1426  0.0218  0.0041
31191W        W74108  29.301   2.013  25.372 -0.0761  0.2768 -0.0249
31192W        W74109  33.613   0.523  24.827  0.0975  0.0174  0.1035
31193W        W74110  30.871   0.101  22.689  0.4267 -0.0239 -0.1163
31194W        W74111  30.376   1.501  28.040  0.2833 -0.1970 -0.2022
31195W        W74112  31.453   1.329  24.682  0.2928  0.2159  0.0939
31196W        W74113  30.396   1.777  26.090 -0.2318 -0.3532 -0.1942
31197W        W74114  30.046   0.342  22.301 -0.1030 -0.1132 -0.1099
31198W        W74115  33.028   4.235  23.804  0.0797 -0.1533  0.2884
31199W        W74116  29.060   1.153  24.460  0.0592 -0.1117 -0.1059
31200W        W74117  31.277   2.088  27.262  0.0453  0.1779  0.1497
31201W        W74118  32.973   4.000  25.496  0.1123  0.0786  0.1603
31202W        W74119  31.532   0.231  25.449 -0.0220  0.4789  0.0007
31203W        W74120  29.766   1.489  23.998  0.1403 -0.0105 -0.0659
31204W        W74121  30.827   1.502  24.447 -0.0426 -0.2689  0.1196
31205W        W74122  30.392   3.898  25.001  0.1608  0.0395 -0.0807
31206W        W74123  33.444   1.207  24.857 -0.0406  0.1006  0.2459
31207W        W74124  30.918   0.162  26.271 -0.2443  0.0296 -0.1219
31208W        W74125  32.771  34.008  25.718 -0.2545 -0.3447  0.0307
31209W        W74126  33.676   2.469  27.100 -0.0649 -0.1153 -0.0112
31210W        W74127  30.986   0.514  24.951  0.3609  0.3402  0.1365
31211W        W74128  30.695   1.469  25.801  0.0769  0.3043 -0.1284
31212W        W74129  29.087   2.011  21.891  0.2623 -0.1518  0.0134
31213W        W74130  31.974   1.305  28.282 -0.1125 -0.1100 -0.1993
31214W        W74131  29.944   2.060  25.334  0.1058  0.2807  0.0278
31215W        W74132  29.815   1.795  27.166 -0.3426 -0.3655 -0.0707
31216W        W74133  31.608   1.273  27.738 -0.3265 -0.3224  0.1018
31217W        W74134  31.933   1.967  25.345 -0.1150 -0.1194 -0.0171
31218W        W74135  33.066   1.391  26.422 -0.1379  0.1782 -0.2015
31219W        W74136  30.900  34.535  23.558 -0.1771  0.2190  0.2863
31220W        W74137  30.900   3.091  25.203 -0.1205 -0.2461 -0.4358
31221W        W74138  29.289   1.241  24.058 -0.1201 -0.4198 -0.0557
31222W        W74139  29.998  34.276  26.533 -0.1590  0.0870 -0.0417
31223W        W74140  31.729   2.479  27.031 -0.3245 -0.4145 -0.0134
31224W        W74141  33.283   1.237  22.692  0.0073  0.0018 -0.0288
31225W        W74142  33.309   2.671  26.792  0.1060 -0.0330  0.1631
31226W        W74143  28.228   2.325  24.742 -0.2171 -0.0982 -0.1086
31227W        W74144  34.297   0.871  26.052 -0.0201  0.1511  0.5818
31228W        W74145  30.735   3.287  27.328 -0.1748 -0.1768 -0.1008
31229W        W74146  30.622   2.922  24.659  0.0331  0.2443 -0.0744
31230W        W74147  29.741   2.457  24.178 -0.0934  0.1479  0.0702
31231W        W74148  32.577  34.598  26.238 -0.0946 -0.0895  0.2817
31232W        W74149  31.306   2.765  23.420 -0.1850  0.0935 -0.0540
31233W        W74150  31.176   3.001  26.083  0.3921 -0.0544 -0.0869
31234W        W74151  31.574  33.265  25.473 -0.0996  0.2014 -0.2581
31235W        W74152  28.232   3.992  27.809 -0.0286  0.1998  0.2073
31236W        W74153  29.078   1.226  26.293  0.1650  0.1564 -0.0457
31237W        W74154  33.042   1.688  22.758  0.0368 -0.0589 -0.0308
31238W        W74155  32.657   1.256  28.615  0.2451 -0.0136 -0.0110
31239W        W74156  30.812  34.611  27.186 -0.0872  0.0667 -0.2831
31240W        W74157  28.748   1.288  25.535  0.2746 -0.2844  0.2370
31241W        W74158  32.693   0.776  28.505  0.1067  0.0944  0.0727
31242W        W74159  31.149   2.863  24.781 -0.1238  0.0850 -0.1099
31243W        W74160  30.815   2.360  27.454  0.1539 -0.1661 -0.1304
31244W        W74161  30.601   3.414  24.820  0.0705  0.2296  0.2223
31245W        W74162  30.562   1.017  24.354  0.0645  0.1160 -0.2994
31246W        W74163  28.298   4.213  25.219 -0.0160 -0.0100  0.1153
31247W        W74164  29.732   0.078  27.215 -0.0352  0.0519  0.0680
31248W        W74165  33.121   2.175  27.529  0.1899 -0.1387  0.5163
31249W        W74166  31.817   1.798  27.077  0.0774  0.2526 -0.0110
31250W        W74167  30.651  33.522  24.868  0.0757  0.3575  0.0773
31251W        W74168  29.891   2.569  24.846 -0.0761 -0.1740  0.2492
31252W        W74169  31.749   1.551  26.615 -0.2942  0.0518  0.0490
31253W        W74170  32.952   2.739  26.181 -0.2450 -0.1018 -0.1564
31254W        W74171  31.076   3.302  26.426  0.3278 -0.3705 -0.1860
31255W        W74172  31.948  33.423  26.413  0.2609 -0.0270  0.0551
31256W        W74173  31.449   3.232  24.091  0.1328  0.2433  0.1514
31257W        W74174  33.139   3.565  27.758 -0.0461  0.2211 -0.2301
31258W        W74175  29.563   3.598  25.088 -0.1578 -0.1689 -0.2060
31259W        W74176  28.970   1.411  27.775 -0.1602  0.0136 -0.3287
31260W        W74177  28.757   1.617  24.478 -0.0762 -0.0212  0.1751
31261W        W74178  31.013   2.588  24.301 -0.0318 -0.0078  0.0275
31262W        W74179  32.254   3.608  27.466 -0.0447 -0.0969 -0.0605
31263W        W74180  30.116   2.508  25.304  0.2548  0.2282  0.0421
31264W        W74181  29.536   2.192  26.169  0.1246 -0.0844 -0.0151
31265W        W74182  32.045   1.733  24.857 -0.2906  0.0547 -0.2162
31266W        W74183  31.660   2.893  22.559  0.1292 -0.0327 -0.0791
31267W        W74184  30.474   1.380  24.820 -0.1548 -0.1121 -0.2775
31268W        W74185  33.556   1.076  29.017  0.0026 -0.1241 -0.0766
31269W        W74186  32.708   0.066  23.788  0.0154 -0.2455  0.0353
31270W        W74187  33.585  32.875  26.633  0.0425 -0.0850  0.2314
31271W        W74188  31.226   1.449  28.582 -0.1075 -0.1670  0.0142
31272W        W74189  32.447   2.862  27.448  0.1133 -0.2203 -0.0376
31273W        W74190  27.955   1.785  26.921 -0.2275  0.0357  0.3310
31274W        W74191  30.378   4.580  26.625 -0.2404  0.1875 -0.1136
31275W        W74192  27.942   1.840  28.099 -0.2160 -0.0859 -0.3258
31276W        W74193  32.188   0.194  25.628  0.0882 -0.2759 -0.1499
31277W        W74194  30.394   1.139  23.511 -0.3882 -0.1513  0.1798
31278W        W74195  29.750   1.609  26.190  0.2243  0.1606  0.1482
31279W        W74196  32.609   5.237  25.538 -0.4897 -0.1318  0.0993
31280W        W74197  30.665   3.510  25.922  0.2224  0.3481  0.0353
31281W        W74198  33.714   2.130  24.706  0.3230 -0.1386  0.1559
31282W        W74199  30.028   2.276  26.835 -0.2536 -0.0628 -0.0328
31283W        W74200  32.622   1.606  24.920 -0.1391  0.0050  0.0363
31284W        W74201  32.031   1.817  24.053 -0.5756  0.2770  0.3244
31285W        W74202  31.632   0.937  22.348  0.3729 -0.0520  0.0724
31286W        W74203  30.768   1.873  27.280  0.0367  0.1760 -0.0325
31287W        W74204  31.429   1.055  27.254  0.0864  0.0630  0.3718
31288W        W74205  32.750   0.129  24.600 -0.2473  0.1386  0.3545
31289W        W74206  32.179   0.933  25.479  0.1602 -0.2187 -0.1978
31290W        W74207  33.957   2.265  26.643 -0.1584 -0.1070 -0.0639
31291W        W74208  30.739   2.026  25.877  0.2080  0.0349 -0.3951
31292W        W74209  28.234  34.401  28.529  0.1651 -0.1776 -0.0577
31293W        W74210  31.083   1.833  27.735 -0.0840  0.1851 -0.2713
31294W        W74211  32.045   2.865  25.625 -0.0056  0.4125 -0.2183
31295W        W74212  31.915   0.816  27.338  0.1419 -0.0095  0.0577
31296W        W74213  33.325   3.139  24.774  0.1025 -0.0732 -0.2278
31297W        W74214  32.477   1.634  23.817 -0.0016 -0.1698  0.0138
31298W        W74215  29.843  33.343  26.021  0.3064  0.4678  0.2479
31299W        W74216  29.726   1.470  26.647 -0.3184 -0.2213 -0.0405
31300W        W74217  31.335   0.802  23.228 -0.1290  0.0807 -0.0945
31301W        W74218  32.623   0.620  26.925 -0.4822  0.2664 -0.0259
31302W        W74219  29.556   4.005  24.710 -0.4618  0.0623 -0.0159
31303W        W74220  29.727   2.973  25.859  0.2934  0.0357  0.4509
31304W        W74221  31.737  34.135  23.746  0.0501 -0.0082  0.0383
31305W        W74222  30.179   0.668  26.587 -0.1440  0.2519 -0.5130
31306W        W74223  30.758   3.174  29.480  0.0465  0.0008 -0.3614
31307W        W74224  29.604   1.114  23.567 -0.0387  0.0821  0.1452
31308W        W74225  28.675   0.571  23.749 -0.0244  0.4264 -0.1065
31309W        W74226  31.845   1.583  25.603  0.1327 -0.3893  0.1805
31310W        W74227  33.547   1.618  26.319  0.0567  0.3609 -0.3194
31311W        W74228  31.351   0.724  23.919 -0.1817 -0.2442 -0.0186
31312W        W74229  30.510   0.563  27.076  0.2101 -0.1682 -0.2821
31313W        W74230  30.164   3.941  24.239  0.0127  0.1881 -0.0359
31314W        W74231  31.315   0.109  23.389  0.1594  0.1145 -0.3483
31315W        W74232  29.623   2.619  26.961 -0.1421 -0.0272 -0.0960
31316W        W74233  28.520   1.683  25.809 -0.2915 -0.3161  0.0404
31317W        W74234  30.994   3.258  24.386 -0.0357 -0.0580 -0.0784
31318W        W74235  30.936  33.757  25.331  0.0092  0.0189 -0.1968
31319W        W74236  31.987   2.033  26.603  0.0187 -0.0892  0.1182
31320W        W74237  30.254   2.764  25.694 -0.2424 -0.0471  0.0017
31321W        W74238   0.318   2.109  25.155  0.0769  0.1481  0.0379
31322W        W74239  30.586   4.124  26.833 -0.2211  0.1397  0.0227
31323W        W74240  27.883   1.917  24.992 -0.3536  0.1055  0.2099
31324W        W74241  32.346   1.511  27.282  0.2674  0.1340  0.1399
31325W        W74242  31.359   2.574  26.675 -0.0626 -0.1038  0.1551
31326W        W74243  30.461   1.685  25.216  0.4605 -0.0558  0.0314
31327W        W74244  29.418   3.288  27.881 -0.2334  0.0344  0.3086
31328W        W74245  30.533  33.389  27.654 -0.1296  0.2220 -0.1149
31329W        W74246  31.331   0.676  26.330  0.0342  0.1825 -0.1751
31330W        W74247  31.312  34.443  24.530 -0.0726  0.2041 -0.0600
31331W        W74248  31.587   2.754  23.014  0.1183  0.2377  0.2227
31332W        W74249  29.010   3.874  27.305  0.0045  0.0328  0.1325
31333W        W74250  30.252   3.286  25.936 -0.2431 -0.0566 -0.3451
31334W        W74251  28.073   4.178  24.797  0.0487  0.1953  0.1340
31335W        W74252  32.925   2.439  24.175 -0.0987 -0.0906  0.2461
31336W        W74253  31.927   1.437  24.495  0.2420  0.0059 -0.0199
31337W        W74254  34.005   3.556  27.240 -0.2627 -0.1638  0.4003
31338W        W74255  30.888   0.260  22.095 -0.2408  0.0780  0.0858
31339W        W74256  31.470   2.656  25.860 -0.2398  0.0318 -0.0106
31340W        W74257  28.354   1.040  23.713 -0.0757  0.0908 -0.0595
31341W        W74258  29.965   3.924  25.349  0.1806  0.2513  0.0081
31342W        W74259  32.140   3.009  26.134  0.4137  0.1831 -0.0742
31343W        W74260  31.651   3.278  27.997  0.0229  0.0777 -0.2427
31344W        W74261  31.624   0.405  23.701  0.0219 -0.0790  0.0067
31345W        W74262  32.996   2.107  26.444 -0.3181  0.0778  0.2286
31346W        W74263  32.625   0.480  25.620  0.1347  0.0873 -0.1680
31347W        W74264  32.658   2.324  27.188 -0.0065  0.3829 -0.0560
31348W        W74265  30.383   0.752  25.164 -0.3312  0.3227 -0.1330
31349W        W74266  31.223   1.594  23.811  0.0013  0.2264  0.1272
31350W        W74267  31.025  33.156  27.816 -0.3189  0.3906 -0.0713
31351W        W74268  32.911   1.449  27.292 -0.1251 -0.3858  0.1964
31352W        W74269  29.968   2.700  27.931 -0.0616 -0.3870  0.0472
31353W        W74270  32.434   2.702  23.232  0.0440  0.0504 -0.0458
31354W        W74271  29.603   0.548  24.609 -0.2281 -0.2841 -0.0040
31355W        W74272  30.022   1.377  25.095 -0.2023  0.0619  0.1871
31356W        W74273  33.027   0.436  25.904  0.0808 -0.2860  0.3790
31357W        W74274  30.808   2.060  22.898 -0.0803 -0.2127  0.1275
31358W        W74275  30.502   1.851  24.587  0.0730 -0.1610  0.3207
31359W        W74276  31.973   4.970  25.196 -0.1731 -0.0332  0.1517
31360W        W74277  31.245   3.533  26.016  0.3456 -0.1355  0.0783
31361W        W74278  32.430   2.768  26.897 -0.1536 -0.0396  0.0222
31362W        W74279  30.770   1.043  25.058 -0.3385  0.0655  0.0002
31363W        W74280  31.603   3.117  25.598  0.3725 -0.3516  0.0843
31364W        W74281  29.773   0.801  25.225  0.2206 -0.0585 -0.2952
31365W        W74282  34.065   0.416  26.204  0.0833 -0.0161 -0.3741
31366W        W74283  29.081   2.447  23.436 -0.0294 -0.1192 -0.2490
31367W        W74284  31.832   2.234  24.887  0.3267  0.1026  0.2384
31368W        W74285  32.089   0.201  26.125 -0.0805  0.1077 -0.5228
31369W        W74286  31.064  33.122  25.433  0.0338 -0.0062 -0.0139
31370W        W74287  31.243   1.188  24.156 -0.0495 -0.0071  0.1509
31371W        W74288  31.412   0.069  26.431 -0.1556 -0.0139  0.0026
31372W        W74289  32.067   0.913  24.923 -0.2998  0.7376  0.3109
31373W        W74290  32.409   5.205  26.989  0.0506  0.2705 -0.1454
31374W        W74291  28.968  34.018  26.158  0.2959 -0.0526 -0.1311
31375W        W74292  33.040   0.498  24.829  0.0104 -0.0947 -0.0730
31376W        W74293  29.548   4.109  25.229 -0.0486 -0.0933  0.2710
31377W        W74294  32.354   2.019  27.411  0.1873  0.1152 -0.5272
31378W        W74295  31.607   3.664  29.232  0.0211  0.1503  0.0319
31379W        W74296  28.815  34.107  25.652  0.0478  0.0330  0.3404
31380W        W74297  31.669   1.083  25.468 -0.2530  0.2091  0.2163
31381W        W74298  31.481   1.167  26.525 -0.1365 -0.1861  0.3061
31382W        W74299  29.936   0.454  23.120  0.1587 -0.1291  0.0585
31383W        W74300  30.140   2.958  24.922 -0.1491 -0.2859 -0.2335
31384W        W74301  32.201   5.004  26.587 -0.0415 -0.1236 -0.1141
31385W        W74302  30.188   1.759  26.587 -0.4665 -0.0830  0.3958
31386W        W74303  30.160   3.138  27.865  0.0215 -0.4615  0.4246
31387W        W74304  32.754   4.096  27.262  0.0459 -0.2506 -0.0910
31388W        W74305  30.784  32.904  24.950  0.0712  0.2154 -0.1322
31389W        W74306  27.600   2.827  25.166  0.0282  0.0582 -0.0218
31390W        W74307  30.948   4.856  26.747  0.0139  0.1864 -0.1118
31391W        W74308  33.595   0.450  27.722  0.2060  0.0760  0.1558
31392W        W74309  32.792   2.447  26.751  0.2042 -0.0740  0.0373
31393W        W74310  31.312   2.822  25.323 -0.1925  0.1212 -0.0559
31394W        W74311  32.221   1.683  26.183 -0.0301 -0.4063  0.0979
31395W        W74312  29.980   3.878  28.660  0.0167  0.0826  0.1761
31396W        W74313  31.361   5.139  29.078  0.2028 -0.2860  0.1357
31397W        W74314  28.819   2.921  25.362 -0.0312 -0.3003  0.1796
31398W        W74315  30.809   1.887  26.399  0.2343 -0.1445 -0.0121
31399W        W74316  31.411   2.045  25.112 -0.0467 -0.1327  0.2209
31400W        W74317  32.886   3.448  25.290 -0.1627  0.0409  0.0508
31401W        W74318  32.810   0.922  27.233  0.0701 -0.0773 -0.1195
31402W        W74319  32.462  33.628  26.345 -0.2863 -0.1869 -0.0440
31403W        W74320  32.023   3.780  26.678 -0.1321 -0.0681 -0.0189
31404W        W74321  32.354   1.841  25.634  0.1466  0.2802 -0.0608
31405W        W74322  32.472   0.492  24.742 -0.0575  0.1820  0.1635
31406W        W74323  32.805   0.450  23.343 -0.0371  0.0660  0.2212
31407W        W74324  28.712   2.858  27.963  0.1054  0.0281  0.1934
31408W        W74325  30.716   2.040  23.444 -0.0879  0.0797  0.3116
31409W        W74326  31.377   2.306  24.666 -0.1876 -0.1461 -0.0753
31410W        W74327  31.603   2.824  26.337 -0.0885  0.2020  0.4127
31411W        W74328  31.326  34.098  28.479 -0.0455 -0.2482  0.0701
31412W        W74329  29.816   0.918  28.822  0.3454 -0.1686 -0.5234
31413W        W74330  30.163   2.278  24.467 -0.2476 -0.0264 -0.2471
31414W        W74331  29.097   0.196  24.800  0.2920  0.1593 -0.0964
31415W        W74332  31.970   3.500  25.427 -0.3955 -0.2753 -0.2893
31416W        W74333  30.970   1.854  25.468  0.1295  0.1840 -0.0602
31417W        W74334  28.783   1.219  23.572  0.2082  0.0083 -0.0082
31418W        W74335  31.064   4.177  25.991 -0.1625 -0.1261  0.2811
31419W        W74336  29.803   5.009  24.841 -0.3010 -0.3064  0.1492
31420W        W74337  30.889   1.008  23.523  0.1779  0.1701 -0.2668
31421W        W74338  32.628   2.428  28.466 -0.0417  0.1200 -0.1668
31422W        W74339  27.869   3.523  23.832 -0.2204 -0.1580 -0.1341
31423W        W74340  31.279  33.258  28.256  0.2027 -0.0072 -0.0091
31424W        W74341  32.086   0.330  29.290 -0.0858  0.2261 -0.2411
31425W        W74342  29.268   0.600  25.022 -0.0436  0.3439  0.0895
31426W        W74343  31.113   1.382  27.659 -0.0176 -0.1054 -0.0545
31427W        W74344  32.853   3.028  25.614 -0.0625 -0.0876  0.1791
31428W        W74345  30.714   3.269  22.360 -0.0512 -0.1132  0.1723
31429W        W74346  29.418   1.050  24.876 -0.0240  0.2188  0.0632
31430W        W74347  29.331   1.775  26.940 -0.0130  0.0957 -0.1616
31431W        W74348  30.977   1.432  27.191  0.2187 -0.0164  0.0448
31432W        W74349  31.081   2.435  25.028  0.0355  0.1160  0.3277
31433W        W74350  29.730   1.934  25.774 -0.1090  0.0838  0.0873
31434W        W74351  31.661   2.460  25.395 -0.2418 -0.2301 -0.1257
31435W        W74352  32.520   2.421  24.525 -0.0392  0.0349 -0.0936
31436W        W74353  31.286   2.476  23.890  0.0660 -0.2751 -0.4392
31437W        W74354  31.413   0.541  27.337 -0.2454 -0.1342  0.2838
31438W        W74355  30.592   3.365  28.074 -0.1151  0.1061 -0.2255
31439W        W74356   0.058   3.290  28.860 -0.2546 -0.0019 -0.5797
31440W        W74357  29.213  34.388  25.858  0.0310  0.1045 -0.2204
31441W        W74358  32.655   0.690  23.774  0.3291  0.0394 -0.1889
31442W        W74359  31.652   2.737  24.856 -0.0972 -0.0168 -0.0173
31443W        W74360  31.421   0.771  24.710 -0.0686 -0.0641  0.0140
31444W        W74361  31.700   1.022  24.272  0.1513 -0.1430  0.2285
31445W        W74362  32.829   0.212  26.715  0.1083 -0.3378 -0.0154
31446W        W74363  32.507   2.686  26.385  0.0100  0.2686 -0.3804
31447W        W74364  29.348   0.688  29.026  0.1606 -0.0703  0.1035
31448W        W74365  29.732   2.415  23.624  0.1069 -0.0228 -0.0278
31449W        W74366  32.985   0.961  24.977  0.0018 -0.0578  0.2567
31450W        W74367  32.014   2.997  27.797 -0.2872 -0.0456 -0.0132
31451W        W74368  31.909   2.911  28.308  0.0118 -0.1412 -0.0559
31452W        W74369  32.112   1.483  27.783  0.0346  0.3942  0.4237
31453W        W74370  32.199   1.579  26.786 -0.0765  0.3034  0.2405
31454W        W74371  30.021  32.836  27.204 -0.0048  0.1060  0.1821
31455W        W74372  30.982   1.038  24.622 -0.0688 -0.2163 -0.0817
31456W        W74373  30.933   1.139  25.547 -0.1573 -0.1646  0.0030
31457W        W74374  32.094   0.069  28.010 -0.0339  0.1354 -0.3045
31458W        W74375  27.911   0.998  25.329  0.2694  0.0699 -0.1106
31459W        W74376  32.936  34.389  26.013 -0.1054 -0.1784 -0.2589
31460W        W74377  30.190   1.918  28.234  0.0510  0.0895  0.1231
31461W        W74378  33.072   0.985  26.820 -0.2424  0.1087 -0.0821
31462W        W74379  29.891   1.931  29.907  0.2921  0.0485 -0.0303
31463W        W74380  28.346   1.244  30.519 -0.1088 -0.2125 -0.2388
31464W        W74381   0.069   0.805  27.384 -0.3041  0.1048  0.2044
31465W        W74382  33.063   2.540  27.902  0.0533 -0.0188 -0.0444
31466W        W74383  30.535   1.252  27.363  0.1630 -0.0006  0.0011
31467W        W74384  29.282   4.566  30.691  0.2469  0.0360 -0.2096
31468W        W74385  30.563  34.541  30.955  0.2779  0.1347  0.1092
31469W        W74386  30.834   4.171  31.906 -0.0259 -0.0772 -0.0924
31470W        W74387  31.526   2.918  29.997  0.0315  0.0735 -0.0137
31471W        W74388  31.209   2.437  27.797 -0.0847 -0.1459  0.1873
31472W        W74389  31.487   2.049  28.468 -0.1383  0.4096  0.1256
31473W        W74390  29.495   3.263  30.491 -0.0296 -0.1777  0.0680
31474W        W74391  31.462  33.787  29.657 -0.0053 -0.0433  0.1840
31475W        W74392  27.847  33.877  30.884 -0.1583  0.2580  0.3630
31476W        W74393  31.284   1.823  30.372 -0.1486  0.0816  0.0981
31477W        W74394  30.643   1.603  27.649 -0.0363  0.1025 -0.0892
31478W        W74395  30.903   0.495  29.047 -0.4316  0.0064  0.3119
31479W        W74396  31.021  34.608  26.710 -0.1744  0.1629  0.1741
31480W        W74397  32.217   2.088  27.907 -0.1693 -0.1943 -0.2560
31481W        W74398  31.439  33.889  30.316  0.0251  0.0372 -0.1729
31482W        W74399  31.561  33.401  30.160 -0.3050 -0.2083  0.2784
31483W        W74400  32.642   4.461  30.567 -0.0820 -0.1127 -0.0820
31484W        W74401  29.850   2.874  29.608  0.2031  0.4184 -0.1250
31485W        W74402  27.234   0.248  29.549  0.0103  0.1407 -0.0201
31486W        W74403  31.911   1.948  29.359 -0.2451  0.0304  0.1000
31487W        W74404  33.790   0.926  28.433 -0.1477 -0.0345  0.2256
31488W        W74405  33.236   3.433  29.519  0.2005  0.1761 -0.0631
31489W        W74406  31.796   5.322  28.186 -0.3358  0.0189 -0.3318
31490W        W74407  29.880   5.362  28.909  0.1126  0.1914 -0.2777
31491W        W74408  32.468   1.367  31.920 -0.3867  0.1115  0.0552
31492W        W74409  27.515   3.717  30.163  0.0910  0.0901  0.2976
31493W        W74410  29.073   6.485  28.282 -0.2366  0.1328  0.2484
31494W        W74411  31.481   3.704  29.671  0.2264  0.4995  0.1459
31495W        W74412  33.424   2.668  30.514  0.0483 -0.0209  0.0384
31496W        W74413  32.632   1.723  31.033  0.2424 -0.0703  0.1303
31497W        W74414  31.287   5.618   0.025  0.0651  0.0471 -0.1689
31498W        W74415  29.261   3.710  28.031  0.0509 -0.2315 -0.0195
31499W        W74416  29.231   4.308  30.279  0.0416  0.1741 -0.2360
31500W        W74417  29.766   1.997  31.619 -0.1532 -0.1450  0.2181
31501W        W74418  30.529   1.299  29.041 -0.0626 -0.3176  0.2044
31502W        W74419  32.019   1.984  28.845 -0.1949 -0.0872  0.2346
31503W        W74420  31.251   2.640  27.298  0.0545 -0.2701 -0.0691
31504W        W74421  31.355   2.170  29.420  0.1876 -0.0530 -0.3040
31505W        W74422  30.999   1.886  28.679 -0.2607  0.1941  0.1772
31506W        W74423  29.459   2.854  29.327 -0.1143 -0.3108 -0.0244
31507W        W74424  33.377   0.235   0.087  0.0604 -0.2353 -0.0467
31508W        W74425  27.411   2.472  27.978  0.3240 -0.1623 -0.0944
31509W        W74426  32.193   1.438  28.721  0.2549  0.1518 -0.2553
31510W        W74427  32.280   0.605  26.609 -0.2522 -0.0428 -0.1850
31511W        W74428  32.198   0.026  26.608 -0.0159 -0.0303  0.2272
31512W        W74429  30.081   0.427  27.762  0.2614 -0.5072  0.0539
31513W        W74430  31.470   3.063  28.410  0.0734  0.3823 -0.1322
31514W        W74431  29.373   0.264  30.203 -0.2421  0.0751 -0.1350
31515W        W74432  31.132   2.019  30.948 -0.0422 -0.1210  0.0823
31516W        W74433  32.777   2.763  28.815 -0.1609  0.0099  0.1303
31517W        W74434  31.277  34.157  29.940 -0.1419 -0.0675 -0.2999
31518W        W74435  28.636   2.948  30.042  0.2729  0.1651  0.0403
31519W        W74436  27.941   1.934  29.239 -0.1739 -0.3670 -0.0741
31520W        W74437  31.674   3.527  28.548  0.0676 -0.0166 -0.1012
31521W        W74438  32.377   2.504  30.508  0.6461  0.2077  0.1968
31522W        W74439  29.670   4.333  29.293 -0.1440 -0.3065  0.1983
31523W        W74440  28.341   0.876  28.928 -0.1831 -0.0122 -0.4932
31524W        W74441  29.880   3.114  29.172  0.1247  0.2138  0.1277
31525W        W74442  28.390   2.298  28.422 -0.2118 -0.0210  0.0115
31526W        W74443  30.254   1.199  28.514  0.3875 -0.1984  0.0507
31527W        W74444  32.379   3.258  31.413  0.2039 -0.1602 -0.0008
31528W        W74445  28.982   2.097  30.540  0.3158 -0.0260 -0.1932
31529W        W74446  32.796   1.178  29.531  0.0340 -0.0021  0.1816
31530W        W74447  28.618   2.698  28.727  0.0152  0.0826 -0.2217
31531W        W74448  31.766   4.353  30.633  0.2624 -0.2095 -0.1542
31532W        W74449  32.403   3.683  26.995  0.0558  0.0899  0.2292
31533W        W74450  33.259  32.146  29.210  0.0622 -0.2084 -0.0797
31534W        W74451  33.451   0.964  27.825  0.1019  0.2221 -0.4194
31535W        W74452  29.325   1.419  28.259 -0.3434  0.0914  0.1100
31536W        W74453  30.424   2.088  27.646  0.0284 -0.0710 -0.1126
31537W        W74454  30.685   3.478  31.235  0.4568  0.0009  0.2242
31538W        W74455  31.943   2.651  29.095 -0.2491 -0.0860 -0.1272
31539W        W74456  29.582   3.262  29.734 -0.1235 -0.0740 -0.1884
31540W        W74457  30.150   0.465  30.995 -0.0436  0.0812 -0.0623
31541W        W74458  32.063   2.355  31.080  0.1861 -0.2166  0.0246
31542W        W74459  30.855   2.882  27.547  0.0717  0.3611  0.4159
31543W        W74460  27.736   1.007  29.623 -0.0079 -0.3323 -0.1040
31544W        W74461  28.487   3.691  27.512  0.0979 -0.1415  0.2330
31545W        W74462  27.904   2.442  30.030  0.2175  0.0976  0.1062
31546W        W74463  30.427   2.967  29.069  0.1454 -0.2266 -0.0762
31547W        W74464  30.222  33.638  26.045  0.0990  0.3862  0.0999
31548W        W74465  31.419   0.761  29.865  0.0721 -0.2576  0.0370
31549W        W74466  32.242  34.611  28.979  0.0161  0.0639  0.0808
31550W        W74467  28.432   2.339  27.652  0.2376  0.1940 -0.0566
31551W        W74468  31.758   2.547  28.651 -0.5960 -0.0772  0.1137
31552W        W74469  31.519   0.820  29.136 -0.0201  0.2465  0.3072
31553W        W74470  32.387   4.531  27.332 -0.0701  0.2672 -0.1830
31554W        W74471  29.360   2.575  30.432  0.0370  0.2549 -0.0854
31555W        W74472  29.579   2.284  28.823  0.0719 -0.0510 -0.1184
31556W        W74473  30.425   0.277  29.243  0.0184 -0.0910 -0.0163
31557W        W74474  28.833   0.124  27.467 -0.0982 -0.1874 -0.1226
31558W        W74475  30.994   2.554  30.808 -0.0994  0.1347  0.1043
31559W        W74476  28.053  32.998  26.446  0.1658 -0.4758 -0.2296
31560W        W74477  32.073   2.317  28.369  0.4154  0.0983  0.2103
31561W        W74478  30.065   1.613  28.727  0.0978 -0.1367 -0.0603
31562W        W74479  27.952   0.491  29.277 -0.0497 -0.0617  0.1718
31563W        W74480  33.961   0.843  31.838  0.0926 -0.1394 -0.3338
31564W        W74481  32.112   2.447  27.496  0.3106  0.3678  0.0036
31565W        W74482  32.600   1.580  30.446 -0.4239  0.0402  0.0333
31566W        W74483  32.514   3.992  29.761  0.0527  0.2529  0.2052
31567W        W74484  29.706   0.994  28.294 -0.1228  0.0333  0.0483
31568W        W74485  29.121   0.465  27.787 -0.2761  0.0357 -0.1647
31569W        W74486  30.310   3.246  31.440 -0.0514  0.1799  0.1576
31570W        W74487  33.239   2.870  29.766  0.1113  0.1838  0.2152
31571W        W74488  31.625   1.050  28.565 -0.0199 -0.1619  0.0361
31572W        W74489  33.444   3.697  30.746  0.4990 -0.0864 -0.1248
31573W        W74490  30.547   2.090  28.812  0.0394  0.1944  0.0529
31574W        W74491  30.791   1.727  29.535  0.3126  0.1345  0.0728
31575W        W74492  31.207   1.155  29.569  0.0186 -0.0361 -0.1311
31576W        W74493  31.503   1.384  31.749 -0.1716  0.0273  0.0388
31577W        W74494  31.080   2.095  28.172 -0.0288  0.0272  0.3515
31578W        W74495  30.128   0.566  25.541 -0.1702 -0.1445  0.0332
31579W        W74496  32.314   3.175  28.912 -0.1983 -0.2066  0.0352
31580W        W74497  29.227   3.396  28.458 -0.2715  0.3886 -0.1991
31581W        W74498  27.472   1.959  27.938  0.1056 -0.0973  0.1094
31582W        W74499  32.096   3.169  30.224 -0.0725 -0.1385 -0.0154
31583W        W74500   0.234  34.332  29.654 -0.3365  0.4654  0.0225
31584W        W74501  28.620   1.505  30.185 -0.3228 -0.0994  0.0534
31585W        W74502  31.675  33.521  30.656 -0.0266 -0.0913 -0.1678
31586W        W74503  30.646  34.026  28.995 -0.4161 -0.1761  0.0729
31587W        W74504  31.286   3.033  29.558 -0.2186  0.2214 -0.0603
31588W        W74505  31.960  34.430  30.942 -0.2782  0.1222 -0.1161
31589W        W74506  33.254   0.898  28.560  0.1291  0.0099  0.0854
31590W        W74507  31.189   0.195  30.531 -0.1757 -0.0296 -0.1908
31591W        W74508  32.255   4.068  27.550 -0.2786  0.3169  0.0348
31592W        W74509  30.898   0.437  27.453  0.1078 -0.2720 -0.3158
31593W        W74510  32.195  32.825  27.218  0.0669 -0.2075  0.1493
31594W        W74511  30.107   2.586  30.539 -0.2026  0.1649 -0.0636
31595W        W74512  33.344   2.492  31.319 -0.0362 -0.1130 -0.0686
31596W        W74513  30.060   2.171  28.899  0.0798 -0.0386  0.1225
31597W        W74514  32.992   0.439  28.795  0.1052  0.0905 -0.2384
31598W        W74515  31.162   3.749  28.828  0.0213  0.1528 -0.2111
31599W        W74516  29.707   1.896  28.139  0.0260  0.0238 -0.0537
31600W        W74517  30.278   1.559   0.432 -0.0411  0.1790 -0.1560
31601W        W74518  32.869   3.611  27.271  0.1842 -0.0055 -0.1644
31602W        W74519  31.189  33.463  30.534  0.2755 -0.2089 -0.2161
31603W        W74520  30.329   1.147  30.204  0.1229 -0.0393  0.2728
31604W        W74521  28.329  33.726  28.183  0.2145 -0.1726 -0.0055
31605W        W74522  26.992   1.701  28.165 -0.0155  0.0609 -0.1608
31606W        W74523  33.019  34.584   0.004 -0.0995 -0.2159  0.0769
31607W        W74524  31.734   1.200  29.766 -0.1328  0.1938  0.1893
31608W        W74525  31.859  33.723  29.951 -0.0952  0.2258  0.2507
31609W        W74526  32.984   0.898  31.378  0.1808  0.4330  0.1230
31610W        W74527  32.596   0.745  27.822  0.2298  0.1105  0.0282
31611W        W74528  30.432   2.240  30.248  0.0461  0.1591 -0.0040
31612W        W74529  29.248   0.632  26.187 -0.1750 -0.0125  0.1484
31613W        W74530  31.390   1.272  29.036 -0.2203 -0.0088  0.0151
31614W        W74531  31.296   2.520  28.327  0.1500  0.2558  0.0968
31615W        W74532  29.958   3.724  30.629 -0.0227  0.1020  0.0816
31616W        W74533  31.542   1.097   0.279 -0.0440  0.0772 -0.2077
31617W        W74534  32.905   3.236  29.112 -0.1911 -0.0150 -0.1717
31618W        W74535  31.757   0.247  28.919  0.3194  0.0972  0.0698
31619W        W74536  32.749  33.621  27.163 -0.0357 -0.0815 -0.0618
31620W        W74537  31.497   2.039  26.736 -0.4256  0.1553  0.0949
31621W        W74538  29.097   3.012  27.598  0.1352  0.4538 -0.1644
31622W        W74539  31.625   0.447  30.148 -0.3618 -0.2998 -0.1874
31623W        W74540  32.093   3.629  30.398 -0.2127  0.0224  0.0629
31624W        W74541  31.189   1.836  25.968  0.2652  0.1178 -0.1218
31625W        W74542  31.530   4.801  30.761  0.1882 -0.0345  0.2771
31626W        W74543  29.165   3.715  28.852  0.1721 -0.1339 -0.0328
31627W        W74544  33.277  34.220  30.963 -0.0039 -0.0998  0.0465
31628W        W74545  27.786   2.544  30.539  0.0818 -0.1433  0.1141
31629W        W74546  30.779   0.967  29.302 -0.0430 -0.0045  0.3862
31630W        W74547  30.082   1.384  26.961 -0.1390  0.6116 -0.3387
31631W        W74548  31.223   0.590  28.310 -0.1698  0.1097 -0.1925
31632W        W74549  34.041   1.823  31.461 -0.2699  0.0329  0.2111
31633W        W74550  28.690   0.975  29.365 -0.1176 -0.2199 -0.3115
31634W        W74551  32.442   1.966  29.377 -0.0251 -0.1641 -0.0087
31635W        W74552  30.053   2.904  28.571  0.0702 -0.0044 -0.0263
31636W        W74553  32.584   1.509  29.875 -0.1502 -0.1553  0.0139
31637W        W74554  32.545  33.905  28.239 -0.3092  0.3417 -0.1251
31638W        W74555  30.824   2.764  31.745  0.3919 -0.1641 -0.0586
31639W        W74556  31.602   1.930  30.843  0.1523  0.0998  0.0734
31640W        W74557  29.094  34.330  28.011 -0.0582 -0.1434 -0.1874
31641W        W74558  31.910   2.323  30.573  0.1236 -0.2532 -0.1505
31642W        W74559  30.367   2.163  29.748  0.1757  0.0772  0.1838
31643W        W74560  28.502   4.809  30.078 -0.2642  0.1992  0.2211
31644W        W74561  31.733   1.764  29.833 -0.0416 -0.3999 -0.1478
31645W        W74562  29.868   2.638  29.087  0.1802  0.4015  0.0570
31646W        W74563  28.950   1.716  28.436 -0.1122 -0.3656 -0.1198
31647W        W74564  29.691   1.203  29.544 -0.1158  0.2701 -0.0228
31648W        W74565  32.272   0.743  30.920  0.0533 -0.0874 -0.0582
31649W        W74566  29.140   2.610  27.923  0.2438  0.1363  0.0429
31650W        W74567  30.343   1.131  29.528  0.3051 -0.1070 -0.0766
31651W        W74568  32.470   0.781  30.321 -0.0899 -0.1089 -0.1734
31652W        W74569  32.337   2.395  29.999 -0.2980 -0.1743  0.1133
31653W        W74570  29.396   0.382  29.724  0.1729  0.2335 -0.0149
31654W        W74571  29.845   1.334  31.022  0.0149 -0.0776 -0.1356
31655W        W74572  32.297  33.538  29.617 -0.1966  0.1915 -0.3384
31656W        W74573  32.372   2.392  29.031  0.4376 -0.1170  0.2423
31657W        W74574  29.156  34.601  29.550 -0.2049 -0.0610  0.3138
31658W        W74575  29.025   3.501  27.632  0.1471 -0.2533 -0.1544
31659W        W74576  28.629   2.508  26.557  0.0354  0.0104 -0.0140
31660W        W74577  30.718   2.422  28.414  0.0430  0.1615 -0.2698
31661W        W74578  32.856   1.721  29.487  0.2032  0.2838  0.1490
31662W        W74579  30.216  34.535  27.771  0.2563  0.2302  0.1054
31663W        W74580  29.989   1.814  27.742 -0.0765 -0.1470 -0.2904
31664W        W74581  27.699   1.487  27.760  0.0782  0.1720  0.2365
31665W        W74582  34.410  34.316  28.938 -0.0692  0.1671 -0.1046
31666W        W74583  32.646   2.897  27.892  0.0789  0.0560 -0.0504
31667W        W74584  32.325   1.030  29.934 -0.1899 -0.2366 -0.3062
31668W        W74585  33.202   0.484  31.089  0.1290 -0.1262  0.1002
31669W        W74586  30.762   1.263  28.580  0.0294  0.0721  0.1426
31670W        W74587  31.159   1.206  30.346  0.2850  0.0164 -0.1005
31671W        W74588  28.994   0.453  30.577  0.0634  0.0485 -0.0555
31672W        W74589  34.215  34.562  28.552 -0.1277 -0.0984  0.0920
31673W        W74590  28.263   1.188  28.563 -0.1294 -0.0576  0.0477
31674W        W74591  29.417   3.108  31.453  0.0261 -0.0925 -0.0240
31675W        W74592  29.111   2.042  31.569  0.1635 -0.1167 -0.2698
31676W        W74593  31.224  34.317  29.390 -0.0651 -0.3817 -0.0268
31677W        W74594  30.404   2.346  26.554 -0.0211 -0.1199 -0.1388
31678W        W74595  31.647   1.216  30.830 -0.0301 -0.0011 -0.2314
31679W        W74596  32.855   2.245  28.991  0.0504 -0.0999 -0.0407
31680W        W74597  31.095   1.048  28.283 -0.0446 -0.2847  0.0088
31681W        W74598  32.885   0.857  30.703 -0.0250  0.2939  0.2964
31682W        W74599  31.002   3.198  28.696 -0.3856 -0.1795  0.2283
31683W        W74600  32.945   1.439  28.271  0.0264 -0.4024  0.2529
31684W        W74601  32.422   1.650  28.225  0.1550  0.0791  0.1234
31685W        W74602  29.593   1.099  26.383 -0.1967  0.1399  0.0414
31686W        W74603  30.299   1.681  29.632  0.0136 -0.1497  0.0747
31687W        W74604  32.282   3.388  27.933  0.0727 -0.3839  0.0325
31688W        W74605  32.476  34.023  29.268 -0.0474 -0.1315 -0.0087
31689W        W74606  32.492   1.166  30.717 -0.3764  0.3724  0.3461
31690W        W74607  30.521   0.865  30.976 -0.1441 -0.2161  0.0907
31691W        W74608  29.988   1.382  29.896 -0.2485  0.1590  0.4189
31692W        W74609  29.647   0.738  29.451  0.0492 -0.2762  0.0490
31693W        W74610  31.742   3.866  30.913 -0.1603 -0.1421  0.0771
31694W        W74611  32.878   0.359  27.232  0.0233  0.0632  0.2017
31695W        W74612  33.277   2.541   0.493  0.0713  0.1017 -0.0562
31696W        W74613  32.686   1.332  26.850  0.0392 -0.0111  0.2908
31697W        W74614  32.151  34.173  28.136 -0.2933 -0.1231  0.4609
31698W        W74615  30.301   1.730  27.321 -0.0213  0.1637 -0.0734
31699W        W74616  30.724   1.868  29.989  0.2379  0.2138 -0.1287
31700W        W74617  30.721   1.046  27.900 -0.1851  0.3211  0.0980
31701W        W74618  34.401   0.007  31.138  0.3558  0.0653 -0.1073
31702W        W74619  31.936   5.434  29.808  0.1435  0.1734 -0.2079
31703W        W74620  32.189   4.657  30.382 -0.0963 -0.0375  0.1595
31704W        W74621  33.449   1.406  30.839 -0.1163 -0.0804  0.3410
31705W        W74622  27.841   0.936  28.590  0.1525 -0.2249 -0.0225
31706W        W74623  29.368   1.439  30.753 -0.1677 -0.3615  0.1641
31707W        W74624  29.248  34.133  27.607 -0.0377 -0.1882  0.0771
31708W        W74625  31.700   2.785  27.411  0.0012  0.2566  0.2266
31709W        W74626  31.247   3.263  29.100 -0.2422 -0.0955 -0.0533
31710W        W74627  33.105   3.253  30.666  0.2934  0.1946  0.1656
31711W        W74628  32.701   0.169  27.946  0.3165 -0.0175 -0.0070
31712W        W74629  32.924   1.315  31.060 -0.0469 -0.3756 -0.3741
31713W        W74630  30.247   1.279  25.971 -0.0732 -0.0393 -0.1356
31714W        W74631  32.126   1.463  29.666 -0.0299  0.2155 -0.0052
31715W        W74632  30.540   3.403  29.888  0.2145  0.2110  0.0918
31716W        W74633  29.159   2.613  28.926  0.0827 -0.0431  0.1701
31717W        W74634  30.651   1.907  28.129  0.0438 -0.0299  0.1703
31718W        W74635  33.950   0.368  30.441  0.0506 -0.1512  0.2354
31719W        W74636  31.718   1.561  28.688 -0.0741  0.0433  0.3449
31720W        W74637  30.528   3.106  28.519  0.2130  0.0356 -0.1229
31721W        W74638  33.718   1.519  31.700  0.1762  0.2507  0.4306
31722W        W74639  29.682   2.564  30.893 -0.2739 -0.1075 -0.0432
31723W        W74640  30.742   2.466  27.941  0.1058  0.2157  0.0829
31724W        W74641  31.826   3.351  30.712 -0.1641  0.0839 -0.2105
31725W        W74642  30.759   0.748  28.543 -0.0899  0.0182 -0.0710
31726W        W74643  29.857   3.492  30.128 -0.2868 -0.0329 -0.2641
31727W        W74644  28.995   0.035  30.901  0.0290  0.0781  0.1187
31728W        W74645  30.997   1.696  31.933 -0.1084  0.2144  0.0813
31729W        W74646  31.400   2.787  29.090 -0.0838 -0.1503 -0.3533
31730W        W74647  28.623  34.661  29.558  0.1189 -0.1080 -0.0579
31731W        W74648  32.394   2.959  29.790 -0.2553  0.2767  0.0540
31732W        W74649  31.227   2.700  31.225 -0.1067 -0.2750  0.2147
31733W        W74650  29.189   1.899  28.043 -0.0778 -0.0093 -0.2097
31734W        W74651  30.882   4.118  28.597 -0.0904 -0.2740  0.0059
31735W        W74652  30.504   0.896  26.316  0.2308 -0.2966 -0.0210
31736W        W74653  31.915   3.705  27.821  0.0948 -0.3768  0.0530
31737W        W74654  31.022   3.500  29.752 -0.0349  0.0851  0.0997
31738W        W74655  32.042   0.958  27.819  0.4075  0.2567  0.0924
31739W        W74656  31.400   1.819  28.967 -0.0847 -0.0770  0.3338
31740W        W74657  29.696   2.277  27.830 -0.1681  0.2503  0.2227
31741W        W74658  31.153   5.362  28.528 -0.1090  0.0344 -0.1672
31742W        W74659  30.149   2.548  29.981  0.1091 -0.0650 -0.2800
31743W        W74660  32.683   3.019  31.869  0.1308 -0.0994  0.1441
31744W        W74661  33.394   0.114  27.397  0.3432  0.1160 -0.2533
31745W        W74662  32.833   1.704  28.944  0.0064 -0.0379 -0.0122
31746W        W74663  31.349   0.459  28.846 -0.1736 -0.2457  0.0415
31747W        W74664  30.988   3.742  31.686  0.0044 -0.1553  0.0580
31748W        W74665  30.049  34.568  28.841 -0.0334  0.0033  0.1685
31749W        W74666  32.290   2.651  28.073  0.0784  0.3748 -0.2738
31750W        W74667  31.006   1.666  31.279  0.1598 -0.0816 -0.0543
31751W        W74668  31.621   0.166  31.283  0.0514  0.0571  0.0342
31752W        W74669  26.386   3.315  29.543  0.2787  0.0999 -0.0847
31753W        W74670  31.880   3.167  29.206  0.1443  0.2416 -0.2094
31754W        W74671  29.606  33.303  27.956 -0.0559  0.0194  0.1391
31755W        W74672  32.164   3.442  28.438  0.0929  0.1211  0.0520
31756W        W74673  33.308   0.569  30.459  0.1808  0.3301  0.1119
31757W        W74674  30.667   1.536  26.834  0.2013  0.0882  0.0885
31758W        W74675  31.955   2.679  30.126 -0.0778 -0.0941  0.0760
31759W        W74676  30.199   3.841  29.899 -0.0357 -0.0487 -0.1164
31760W        W74677  29.122   2.554  29.527 -0.1441 -0.0711 -0.1753
31761W        W74678  27.811   3.923  31.277 -0.0862  0.1644  0.2538
31762W        W74679  29.705   0.905  27.743  0.0339 -0.1089  0.1581
31763W        W74680  32.518   0.809  28.972 -0.1360 -0.1105 -0.2620
31764W        W74681  29.159   0.817  29.529 -0.0551 -0.2051  0.0667
31765W        W74682  32.070   0.539  31.848 -0.1505  0.1188 -0.0219
31766W        W74683  29.781   1.653  29.493  0.1032  0.0452  0.4162
31767W        W74684  31.676   1.419  30.329  0.0487 -0.2057  0.1568
31768W        W74685  31.901   3.171  31.424  0.2899 -0.1259 -0.0608
31769W        W74686  27.072   0.293  27.688 -0.3432  0.0704  0.0014
31770W        W74687  31.964   1.805  28.349  0.0778 -0.1010 -0.1019
31771W        W74688  32.498   2.197   0.326  0.0084 -0.0708  0.1574
31772W        W74689  30.932   0.582  24.407 -0.3341  0.2235  0.3065
31773W        W74690  31.234   2.655   2.540  0.1173  0.2403  0.0755
31774W        W74691  28.988   1.193  29.825  0.0771 -0.1035 -0.2775
31775W        W74692  32.042   0.413  27.064  0.0064  0.1370  0.1176
31776W        W74693  28.980   1.660  29.872  0.0088  0.0301  0.0194
31777W        W74694  29.223   2.229  28.407 -0.1523  0.3531 -0.1070
31778W        W74695  29.921   1.823   0.651  0.0511 -0.1796 -0.1092
31779W        W74696  29.180  33.890  28.752  0.1081  0.2950 -0.0215
31780W        W74697  30.537   1.666  28.611 -0.0530 -0.1469 -0.1938
31781W        W74698  33.350   3.351  31.110  0.0590  0.1916  0.2190
31782W        W74699  31.845   2.505  27.961  0.1285  0.0271  0.0417
31783W        W74700  32.649   4.748  28.095  0.0174 -0.2302  0.0821
31784W        W74701  33.688   4.815  29.104  0.1199 -0.2050 -0.0083
31785W        W74702  29.174   2.995  29.769  0.0032  0.0841  0.1817
31786W        W74703  30.738   1.348  30.992  0.0354  0.0760 -0.4179
31787W        W74704  34.152   1.108  30.148 -0.0347  0.3093  0.0549
31788W        W74705  31.552  33.899  26.792 -0.0926 -0.0920 -0.0904
31789W        W74706  28.289   0.332  29.665 -0.0598 -0.0730  0.3868
31790W        W74707  28.936   3.255  30.772 -0.0518  0.0548 -0.0991
31791W        W74708  31.007   2.919  28.236 -0.0191  0.1178 -0.0796
31792W        W74709  33.289   1.758  31.729  0.0987  0.1930  0.1783
31793W        W74710  29.895   5.014  28.500 -0.3028 -0.2363 -0.0694
31794W        W74711  32.550  33.668  31.102 -0.3922  0.2402  0.3563
31795W        W74712  30.438   3.632  29.473 -0.3153 -0.1093  0.2311
31796W        W74713  29.718   2.416  29.809 -0.0755  0.2940  0.1441
31797W        W74714  29.993   1.300  27.654 -0.1230 -0.1691 -0.1717
31798W        W74715  31.642   0.403  29.574  0.1917  0.1588  0.1202
31799W        W74716  33.366   3.017  29.282  0.1694 -0.1929  0.2492
31800W        W74717  30.915   2.878  29.854 -0.1683  0.1364 -0.0678
31801W        W74718  32.401   5.042  30.770 -0.2772  0.1519  0.2178
31802W        W74719  30.095   0.834  29.921  0.0615  0.0267  0.0673
31803W        W74720  30.833   3.578  30.638 -0.3406  0.1006 -0.2905
31804W        W74721  29.450   1.390  27.784 -0.2132 -0.1823 -0.0445
31805W        W74722  31.921   0.855  29.401 -0.1932  0.0884 -0.3029
31806W        W74723  33.453   0.650  29.283 -0.0397  0.1939  0.0354
31807W        W74724  31.188   3.305  30.187 -0.3065 -0.0010  0.0487
31808W        W74725  29.103   0.956  25.820 -0.1263  0.1409 -0.1080
31809W        W74726  29.298   0.938  27.988  0.3775 -0.1207  0.2311
31810W        W74727  28.740   1.010  28.400  0.1190 -0.2064  0.1817
31811W        W74728  31.623   0.199  30.758  0.0680 -0.1517  0.5014
31812W        W74729  29.884   0.210  29.514  0.0478  0.1898 -0.0958
31813W        W74730  30.365  34.229  30.090  0.0680  0.2530 -0.0242
31814W        W74731  30.028  33.592  28.557 -0.1403 -0.1403  0.1266
31815W        W74732  32.113   3.461  31.059  0.1574 -0.0155  0.2645
31816W        W74733  29.275   0.956  28.548  0.1194 -0.1170 -0.0087
31817W        W74734  29.290  33.918  28.255 -0.0595 -0.1397 -0.0266
31818W        W74735  31.301   3.614  30.583  0.1893  0.1366  0.1853
31819W        W74736  33.532   1.100  29.508  0.0049  0.0734  0.0801
31820W        W74737  31.668  33.998  28.074  0.3425  0.0823 -0.2293
31821W        W74738  33.388   4.688   0.038 -0.4467  0.1690  0.2249
31822W        W74739  30.170   3.385  28.806  0.0736  0.0964  0.2649
31823W        W74740  29.667  33.625  28.865 -0.0469  0.1171 -0.1083
31824W        W74741  29.856  33.869  29.321 -0.1928  0.1708  0.0326
31825W        W74742  28.988  34.484  26.640  0.0257 -0.0393 -0.0750
31826W        W74743  30.838   0.014  29.239 -0.4281 -0.2391  0.0817
31827W        W74744  31.639   2.234  28.993 -0.1371  0.0611 -0.2663
31828W        W74745  31.818   4.047  28.890  0.0032  0.2112  0.1875
31829W        W74746  33.245   3.521  30.279 -0.0582  0.1384  0.2763
31830W        W74747  31.110   2.280  28.994  0.3920  0.1246 -0.3199
31831W        W74748  31.303  33.656  31.777  0.1266 -0.2233  0.2114
31832W        W74749  32.184   3.727  29.396 -0.1396  0.1986  0.3077
31833W        W74750  30.827   2.367  31.281  0.1943  0.1499  0.2180
31834W        W74751  32.544   0.504  29.824  0.1706 -0.1473 -0.0250
31835W        W74752  31.436   0.114  28.482  0.0019 -0.0283 -0.1589
31836W        W74753  30.363   2.588  28.778 -0.1910 -0.2003  0.4717
31837W        W74754  29.147   0.468  31.103  0.2021  0.0957  0.0191
31838W        W74755  31.679   2.955  31.055 -0.0732  0.1266 -0.0920
31839W        W74756  34.342   0.755  30.506  0.1365  0.1204 -0.1199
31840W        W74757  30.314  33.591  28.144 -0.0635 -0.2725  0.1452
31841W        W74758  31.177   0.929  28.767  0.0567  0.4009  0.1779
31842W        W74759  30.375   2.578  27.590 -0.1472  0.2665  0.1044
31843W        W74760  31.461   1.637  29.411 -0.5867  0.0006 -0.1367
31844W        W74761  30.823  34.071  28.476 -0.0047  0.1973  0.0176
31845W        W74762  30.767   0.829  29.748 -0.1971  0.2946 -0.1540
31846W        W74763  31.509   5.756  30.222  0.1884 -0.0578 -0.1624
31847W        W74764  31.190   3.189  30.749  0.0910 -0.0729  0.1923
31848W        W74765  29.877   1.418  28.162 -0.0420  0.1438 -0.2616
31849W        W74766  30.480   2.486  26.011  0.0116  0.0536 -0.3375
31850W        W74767  30.098   4.142  31.010 -0.0500  0.0316 -0.1560
31851W        W74768  31.086   5.779  31.496  0.0966 -0.0109 -0.1009
31852W        W74769  29.704   1.770  29.012 -0.0377 -0.0022  0.2435
31853W        W74770   0.035   1.879  30.271  0.1338  0.1168 -0.2893
31854W        W74771  31.674  33.037  30.862 -0.0519  0.4400  0.1315
31855W        W74772  30.960   1.546  28.176 -0.1702  0.0994  0.0146
31856W        W74773  32.413   0.891  29.457 -0.0351  0.2296  0.1431
31857W        W74774  31.267   2.578  29.741 -0.2237 -0.1423  0.1096
31858W        W74775  29.718  33.582  30.690 -0.3162  0.0139 -0.0481
31859W        W74776  34.030   0.209  29.000  0.3212  0.1886  0.1934
31860W        W74777  29.271   1.598  29.419 -0.3190  0.1394 -0.3776
31861W        W74778  33.620   4.730  29.835  0.0526  0.4633 -0.1766
31862W        W74779  32.096   1.321  31.072 -0.1701  0.1037 -0.0479
31863W        W74780  32.792   2.116  30.534 -0.0025 -0.1573 -0.1730
31864W        W74781  30.098   2.014  30.565 -0.0577 -0.0670  0.2161
31865W        W74782  28.944   1.131   0.338  0.0792 -0.0021  0.0085
31866W        W74783  30.168   2.244  31.740  0.1433 -0.1460 -0.0738
31867W        W74784  30.479   2.881  30.031  0.2184  0.2981  0.0804
31868W        W74785  29.525  34.550  29.854  0.0649 -0.0975  0.0134
31869W        W74786  30.723  34.671  30.485  0.1714 -0.0574 -0.2574
31870W        W74787  31.357  34.393  31.157 -0.2436  0.2401 -0.0966
31871W        W74788  30.467   2.496   1.021 -0.0147  0.1002  0.2046
31872W        W74789  28.546   3.148  31.598 -0.1670  0.1807 -0.3029
31873W        W74790  29.286   0.108  31.377  0.0200  0.0288  0.0071
31874W        W74791  31.045   2.194   0.269  0.0764 -0.2209 -0.0725
31875W        W74792  29.480   1.155  29.094 -0.2295  0.3658  0.0105
31876W        W74793  31.277   0.882   0.650  0.0957  0.2744  0.0001
31877W        W74794  31.494   5.218   0.301 -0.0609  0.2507 -0.0942
31878W        W74795  28.814   2.052   0.150  0.1733 -0.2012 -0.0325
31879W        W74796  30.914   1.772   0.554 -0.0750  0.1313 -0.6991
31880W        W74797  29.539  33.878   0.105 -0.2552 -0.1993  0.1420
31881W        W74798  31.218   1.549  30.809  0.4053 -0.0262 -0.0692
31882W        W74799  30.263   0.148   0.620  0.1301 -0.0942  0.0072
31883W        W74800  28.950   1.685   0.449 -0.1206 -0.0351 -0.0464
31884W        W74801  33.242   0.558   0.472  0.1534 -0.0150  0.2026
31885W        W74802  31.010   2.726  29.323 -0.3111  0.0308  0.0742
31886W        W74803  31.455   0.775  30.472  0.0589 -0.1621 -0.0078
31887W        W74804  32.119  33.660  30.478  0.2106 -0.2695 -0.1311
31888W        W74805  30.321   0.293  31.916 -0.0742 -0.0897 -0.1497
31889W        W74806  29.363   1.513  31.703  0.2405 -0.0527  0.0541
31890W        W74807  30.581   2.688   0.277  0.0012  0.1674 -0.2407
31891W        W74808  29.777   2.245  30.280 -0.2712 -0.1152 -0.3680
31892W        W74809  31.891   1.647  31.642  0.4244 -0.0054 -0.0104
31893W        W74810  33.673   2.149  31.677  0.1309 -0.0556  0.0190
31894W        W74811  32.389   1.146   0.403 -0.0824  0.1497 -0.1914
31895W        W74812  30.441   0.107  31.394  0.1472 -0.1788 -0.0564
31896W        W74813  32.025   0.241  31.038 -0.0253  0.1504  0.0219
31897W        W74814  29.471   0.628  31.454  0.1160 -0.0515  0.1029
31898W        W74815  29.347   2.005   0.103  0.0541 -0.2643 -0.0760
31899W        W74816  31.182   2.688   0.539 -0.0016 -0.1469  0.0972
31900W        W74817  31.651   0.890  31.832 -0.0409 -0.1007 -0.0994
31901W        W74818  32.663   2.891   1.103 -0.2198 -0.3821  0.3898
31902W        W74819  32.166  34.150  31.605 -0.0932  0.1150  0.2941
31903W        W74820  30.160  34.123   1.098 -0.0865  0.0908  0.2566
31904W        W74821  30.289   0.352  29.775  0.1004 -0.2019  0.2711
31905W        W74822  28.700   2.940   0.081  0.1283 -0.1926 -0.2595
31906W        W74823  29.857   2.141  29.412  0.1599  0.0173 -0.1325
31907W        W74824  30.312   1.295  30.699 -0.1937  0.2369 -0.3886
31908W        W74825  30.929  34.147  30.971 -0.1465 -0.2640  0.2752
31909W        W74826  29.599   3.366  31.916  0.2523 -0.1269  0.0522
31910W        W74827  31.447   3.065  31.632 -0.1921  0.2449  0.1157
31911W        W74828  28.646   1.477  31.446  0.2941  0.0622 -0.1902
31912W        W74829  31.689   2.655  31.486 -0.3632 -0.0651 -0.0664
31913W        W74830  30.469  33.326   0.732 -0.4681 -0.2191  0.0437
31914W        W74831  31.568  33.512  31.420  0.1006  0.0801  0.0309
31915W        W74832  29.568   2.873  30.069 -0.0260  0.0501 -0.0121
31916W        W74833  31.226  34.231  31.687  0.1641  0.1866  0.0104
31917W        W74834  31.148   1.061  30.881  0.2804  0.3787  0.3280
31918W        W74835  31.621   1.334   1.672  0.1629  0.1931 -0.0982
31919W        W74836  30.366   2.630  31.544 -0.2852 -0.3449  0.1011
31920W        W74837  31.695   2.345   0.837  0.0074 -0.0355 -0.0225
31921W        W74838  30.354   1.763  29.140  0.0812  0.0494 -0.0124
31922W        W74839  27.080   2.044   0.247  0.5837  0.0214 -0.1107
31923W        W74840  27.847   2.532  31.482 -0.1774 -0.1370 -0.1795
31924W        W74841  27.924   1.961  29.772  0.1846 -0.0481  0.1068
31925W        W74842  29.607   0.221  31.725 -0.1065  0.0071  0.1910
31926W        W74843  32.955   4.318   0.579  0.0018  0.0535  0.0817
31927W        W74844  33.178   2.840   0.974  0.0297  0.0511 -0.0075
31928W        W74845  30.741   1.351   0.232  0.0658 -0.1681 -0.1891
31929W        W74846  29.403   6.485  20.153  0.0332 -0.2416 -0.1213
31930W        W74847  30.483   5.482  20.560  0.3386  0.0883  0.2344
31931W        W74848  32.454   5.451  18.394  0.1086  0.0158 -0.0125
31932W        W74849  31.173   5.889  18.177 -0.3047  0.3596  0.0028
31933W        W74850  29.648   4.763  18.716 -0.0328  0.2380 -0.4615
31934W        W74851  31.403   5.937  18.608  0.1075  0.1346 -0.0806
31935W        W74852  30.729   2.651  21.406 -0.1661  0.1836  0.1672
31936W        W74853  30.895   7.245  20.275 -0.1448 -0.1890 -0.0816
31937W        W74854  32.201   6.774  20.514 -0.2078 -0.0722  0.0143
31938W        W74855  31.658   7.353  17.522 -0.2345 -0.3825 -0.1534
31939W        W74856  27.043   4.560  18.981  0.2955 -0.0477 -0.0716
31940W        W74857  28.779   6.092  21.952  0.1387 -0.4959  0.2027
31941W        W74858  29.059   3.987  17.727 -0.3497 -0.0771 -0.0283
31942W        W74859  28.673   2.256  18.026 -0.3335 -0.1595 -0.4839
31943W        W74860  32.693   4.586  18.574  0.6144  0.2876  0.0462
31944W        W74861  28.080   5.248  19.026 -0.2896 -0.2144  0.0815
31945W        W74862  31.029   4.302  20.826  0.1335 -0.1632  0.1197
31946W        W74863  30.600   4.732  17.676  0.2395  0.0135 -0.1661
31947W        W74864  30.455   7.034  19.831 -0.0796  0.0676  0.1655
31948W        W74865  29.503   5.792  19.671  0.0060 -0.1480  0.0614
31949W        W74866  30.136   4.545  22.511  0.1015  0.0896  0.0441
31950W        W74867  29.414   6.746  17.620  0.2945 -0.3022  0.3105
31951W        W74868  28.542   4.801  16.689  0.0086  0.2047 -0.1653
31952W        W74869  28.487   3.739  19.682 -0.0141 -0.0550  0.1762
31953W        W74870  28.739   6.192  18.761 -0.1219  0.1640 -0.4452
31954W        W74871  31.853   5.173  18.528 -0.2390  0.1516  0.1874
31955W        W74872  31.426   5.091  18.306 -0.2097  0.0450  0.0634
31956W        W74873  31.777   8.793  20.084 -0.2298 -0.3497 -0.0430
31957W        W74874  30.381   7.708  17.776 -0.0684 -0.0415  0.2756
31958W        W74875  32.663   5.359  20.894 -0.1175 -0.0153  0.2194
31959W        W74876  27.871   5.882  18.252 -0.4362  0.1905 -0.3152
31960W        W74877  29.008   7.641  18.785  0.0052  0.3198 -0.0030
31961W        W74878  28.878   5.373  18.284 -0.1315 -0.0118  0.0456
31962W        W74879  32.107   6.340  18.276 -0.3119 -0.1992 -0.3568
31963W        W74880  32.420   5.670  19.761 -0.0092 -0.0852  0.0881
31964W        W74881  28.756   6.327  22.770 -0.1020  0.0392 -0.0519
31965W        W74882  27.875   6.563  17.554  0.1196 -0.1539  0.1413
31966W        W74883  31.598   7.664  20.090  0.5155 -0.0989 -0.1521
31967W        W74884  30.346   5.543  19.543 -0.0694  0.1517 -0.1087
31968W        W74885  29.638   4.684  18.107 -0.0689 -0.4229  0.2844
31969W        W74886  29.301   6.202  19.547  0.1528 -0.2694  0.0604
31970W        W74887  28.617   6.270  17.440 -0.1047  0.0560 -0.1080
31971W        W74888  31.360   6.044  21.075  0.1521  0.2197 -0.0413
31972W        W74889  30.730   5.901  19.667 -0.4749  0.1242  0.1654
31973W        W74890  28.777   4.666  18.394  0.0714  0.0546 -0.2725
31974W        W74891  33.716   4.397  19.359  0.1897  0.3438 -0.0723
31975W        W74892  28.096   6.102  17.512 -0.0819  0.0026 -0.1133
31976W        W74893  31.174   5.374  17.499 -0.1921 -0.3947  0.3032
31977W        W74894  31.897   2.924  16.858 -0.0647  0.1219 -0.0860
31978W        W74895  32.587   4.143  16.101 -0.1984 -0.1719  0.0113
31979W        W74896  29.210   3.990  19.766 -0.0628  0.0107 -0.3400
31980W        W74897  29.145   5.902  18.825 -0.2273 -0.1770  0.0631
31981W        W74898  29.655   4.394  19.815 -0.0821 -0.0416  0.1630
31982W        W74899  32.640   6.852  20.242  0.0777  0.1644 -0.0754
31983W        W74900  30.420   4.172  17.610 -0.1869  0.1326  0.1524
31984W        W74901  28.707   5.493  19.540 -0.1544 -0.0651 -0.1224
31985W        W74902  30.571   7.578  18.592  0.1821  0.1647 -0.1718
31986W        W74903  31.228   3.604  17.898 -0.0076 -0.0336 -0.0208
31987W        W74904  32.022   5.335  18.109  0.0732 -0.2045 -0.3975
31988W        W74905  32.418   7.417  18.632 -0.2276 -0.3814  0.1138
31989W        W74906  30.264   7.258  17.777 -0.3574  0.0682 -0.1882
31990W        W74907  28.617   5.431  17.743  0.1989  0.0668  0.1854
31991W        W74908  28.315   6.090  18.448 -0.4060 -0.2324  0.1135
31992W        W74909  30.185   5.408  23.103  0.1058  0.0462  0.1057
31993W        W74910  30.479   4.071  17.116 -0.2410 -0.1618 -0.1236
31994W        W74911  32.439   4.715  19.885 -0.1981 -0.3414  0.1061
31995W        W74912  26.231   6.448  21.195 -0.2732 -0.4093 -0.2694
31996W        W74913  33.700   4.553  17.597 -0.0395  0.1948 -0.1770
31997W        W74914  32.043   6.308  19.336  0.3888  0.0558 -0.2239
31998W        W74915  32.339   7.226  19.074  0.1214  0.2284 -0.0995
31999W        W74916  29.611   7.236  17.031  0.5986  0.1551  0.4611
32000W        W74917  29.418   2.282  19.266  0.2336 -0.1123 -0.3933
32001W        W74918  33.505   5.226  20.543  0.1374  0.2311  0.1395
32002W        W74919  30.941   5.066  17.841 -0.0162  0.0334 -0.1991
32003W        W74920  28.904   5.061  17.654 -0.0118  0.2154 -0.2113
32004W        W74921  32.082   6.080  19.756 -0.3677 -0.0474 -0.0759
32005W        W74922  32.736   5.233  17.438 -0.0540  0.0683 -0.1095
32006W        W74923  30.778   8.039  20.495 -0.0528  0.1467  0.4231
32007W        W74924  30.606   5.810  21.510  0.0062  0.1822  0.1406
32008W        W74925  31.456   6.511  19.952 -0.0852  0.4439  0.0418
32009W        W74926  28.317   7.171  16.155  0.2472  0.0849 -0.0010
32010W        W74927  29.141   4.487  19.861 -0.0085 -0.0163  0.0711
32011W        W74928  29.476   5.835  18.193  0.2970 -0.3501  0.0067
32012W        W74929  29.560   4.194  18.808 -0.0688  0.0233 -0.0017
32013W        W74930  31.719   6.123  18.976 -0.0785 -0.3796  0.0570
32014W        W74931  30.315   4.566  19.293 -0.0068 -0.0167  0.4146
32015W        W74932  27.889   3.690  20.963 -0.1744  0.0299 -0.2462
32016W        W74933  31.143   3.552  19.607 -0.0447  0.0032  0.0143
32017W        W74934  29.594   5.970  19.199 -0.1945  0.0018 -0.1545
32018W        W74935  31.700   7.291  18.128 -0.0720 -0.0444  0.3325
32019W        W74936  32.612   4.750  17.472 -0.1048 -0.5558  0.0800
32020W        W74937  30.386   7.129  16.524  0.1152 -0.0123  0.0822
32021W        W74938  28.810   6.695  19.010 -0.2772  0.3526 -0.0848
32022W        W74939  29.831   6.193  19.584  0.0291  0.0267  0.1321
32023W        W74940  29.986   5.245  19.715  0.0194  0.0138 -0.0253
32024W        W74941  29.910   5.025  18.355 -0.4111  0.3352 -0.4895
32025W        W74942  30.483   5.606  20.021 -0.4496 -0.1859 -0.0366
32026W        W74943  29.796   2.789  17.198  0.2107 -0.2375  0.3643
32027W        W74944  31.180   4.682  18.059  0.0759 -0.1295 -0.0254
32028W        W74945  29.378   5.029  19.030 -0.0269 -0.0944  0.0714
32029W        W74946  28.429   5.865  19.509  0.2670  0.1118 -0.3103
32030W        W74947  31.935   3.599  20.662 -0.2504  0.2298 -0.3085
32031W        W74948  31.609   6.678  18.105  0.0788  0.1028  0.2476
32032W        W74949  32.257   7.163  18.195  0.0346  0.0381  0.2107
32033W        W74950  31.368   6.588  18.846 -0.2513 -0.0804  0.1925
32034W        W74951  30.027   4.504  21.325  0.2163 -0.0047 -0.0481
32035W        W74952  29.909   3.698  18.277  0.0417 -0.2900 -0.0808
32036W        W74953  28.368   6.754  18.249 -0.1067  0.1817  0.2486
32037W        W74954  31.203   5.744  20.706  0.0218 -0.0227  0.3202
32038W        W74955  29.022   3.213  18.420 -0.3912  0.0975 -0.0068
32039W        W74956  33.523   7.037  19.159  0.0968 -0.0509  0.0737
32040W        W74957  32.253   7.272  19.557 -0.0445 -0.2082  0.1885
32041W        W74958  30.527   5.994  20.834  0.2406 -0.0892  0.2937
32042W        W74959  34.612   4.089  20.176  0.1056  0.1028  0.0152
32043W        W74960  33.242   4.602  19.381 -0.0068  0.1478  0.2750
32044W        W74961  30.694   3.951  20.030 -0.1392  0.0681 -0.0375
32045W        W74962  28.382   3.977  18.348 -0.1820 -0.0415 -0.0469
32046W        W74963  32.343   8.172  20.025 -0.1520  0.0816 -0.4034
32047W        W74964  28.180   7.656  16.375 -0.2262  0.1052  0.1848
32048W        W74965  27.569   3.654  18.708 -0.1147 -0.1625 -0.2141
32049W        W74966  29.844   5.277  17.288  0.0870  0.3430  0.2192
32050W        W74967  32.670   3.722  17.633  0.1592  0.2253  0.1071
32051W        W74968  28.320   5.328  20.480 -0.2885  0.0329  0.2718
32052W        W74969  31.446   4.424  19.904  0.3950 -0.1939 -0.0483
32053W        W74970  28.506   5.641  16.700  0.2185  0.1566 -0.3285
32054W        W74971  29.557   6.609  22.464  0.0270  0.0502 -0.3080
32055W        W74972  30.388   2.842  18.404 -0.0956  0.1227  0.1388
32056W        W74973  31.630   5.304  17.313 -0.2738  0.0575 -0.0058
32057W        W74974  30.002   4.545  20.197  0.1246  0.0221 -0.0472
32058W        W74975  32.505   6.277  18.593 -0.2319 -0.0157  0.3529
32059W        W74976  30.674   5.514  16.982 -0.1443 -0.2935  0.1255
32060W        W74977  30.809   1.833  19.067  0.0599  0.0803 -0.3331
32061W        W74978  28.452   6.436  20.376  0.1516  0.2250  0.0859
32062W        W74979  29.972   8.957  18.659  0.0300 -0.0113  0.0699
32063W        W74980  30.976   6.321  18.896  0.0986 -0.0754 -0.2166
32064W        W74981  30.813   5.117  17.350 -0.0381 -0.2120 -0.2054
32065W        W74982  31.257   7.544  17.852 -0.2539  0.2101  0.1268
32066W        W74983  28.830   6.399  19.407  0.4695  0.0012  0.1433
32067W        W74984  31.970   5.672  20.045  0.0211 -0.0964 -0.0609
32068W        W74985  29.516   5.531  19.036  0.0984  0.0045  0.0190
32069W        W74986  28.859   6.029  20.290  0.2707  0.0581  0.0874
32070W        W74987  30.837   3.942  17.810  0.3549 -0.1808 -0.2211
32071W        W74988  30.350   4.064  18.143 -0.0706  0.0232  0.1175
32072W        W74989  29.352   6.126  20.665 -0.0523 -0.1514  0.1309
32073W        W74990  30.151   4.576  18.825 -0.1027  0.2466 -0.0103
32074W        W74991  31.148   4.719  18.987 -0.3675  0.0784 -0.1138
32075W        W74992  29.789   3.096  19.123  0.0655  0.1189 -0.1197
32076W        W74993  32.781   5.757  20.587  0.1755  0.0892  0.2056
32077W        W74994  31.058   6.707  18.039  0.1208  0.0173  0.0558
32078W        W74995  29.747   5.512  18.493  0.4424  0.3908 -0.2392
32079W        W74996  28.326   4.099  17.242 -0.2789 -0.1231  0.1055
32080W        W74997  30.668   4.707  22.366  0.1217  0.0818 -0.2120
32081W        W74998  28.809   7.291  21.352  0.0165 -0.1847  0.0876
32082W        W74999  30.273   6.249  19.710  0.0000 -0.2654  0.3525
32083W        W75000  29.935   5.608  21.351 -0.0881  0.0525 -0.3348
32084W        W75001  31.660   5.557  19.643  0.3502  0.1465  0.4885
32085W        W75002  30.467   4.638  19.994 -0.0112  0.0747  0.0788
32086W        W75003  31.213   3.636  18.763 -0.1643 -0.0926  0.0121
32087W        W75004  29.178   6.377  17.933 -0.1201  0.1189  0.0192
32088W        W75005  29.252   5.466  18.593 -0.1952 -0.1171 -0.0084
32089W        W75006  29.779   3.124  18.571  0.1047  0.1797  0.0023
32090W        W75007  29.223   7.020  21.293 -0.1837  0.4013  0.1501
32091W        W75008  27.562   7.447  16.580  0.1816 -0.1021  0.2241
32092W        W75009  31.448   6.158  20.484  0.0288 -0.1546 -0.0653
32093W        W75010  28.728   5.974  17.006 -0.0142  0.1588  0.3761
32094W        W75011  31.871   4.843  18.072 -0.2294  0.0210 -0.1886
32095W        W75012  29.173   6.380  19.018 -0.0391 -0.0114 -0.3834
32096W        W75013  28.962   5.307  18.961 -0.2377 -0.1528  0.0681
32097W        W75014  29.774   6.335  18.289  0.2745 -0.2491  0.0242
32098W        W75015  31.036   4.615  19.715 -0.1148 -0.0296  0.1786
32099W        W75016  33.849   4.968  17.953 -0.1808 -0.0734  0.1397
32100W        W75017  30.258   6.820  18.810 -0.1685  0.1097  0.2242
32101W        W75018  29.712   2.914  17.731  0.0182  0.0794  0.0729
32102W        W75019  30.037   4.637  19.685  0.1616 -0.1976 -0.0050
32103W        W75020  30.948   6.915  19.880  0.1294  0.3245  0.1943
32104W        W75021  32.058   4.137  16.984 -0.1747  0.1641 -0.0673
32105W        W75022  31.557   5.383  20.776  0.2492  0.4527 -0.1487
32106W        W75023  30.906   7.700  19.564  0.0781 -0.1041  0.0032
32107W        W75024  28.601   5.942  17.812 -0.1433  0.1868  0.1691
32108W        W75025  32.312   4.973  18.486 -0.4382 -0.0350  0.2118
32109W        W75026  29.432   4.861  17.514  0.1068  0.1419 -0.0391
32110W        W75027  27.681   6.001  17.762 -0.1923  0.3714  0.1761
32111W        W75028  30.749   6.292  19.306  0.0842 -0.1468 -0.4171
32112W        W75029  29.785   5.099  17.759  0.2837 -0.0681  0.0959
32113W        W75030  29.769   5.843  20.243  0.0559 -0.2020  0.0844
32114W        W75031  29.661   5.379  20.069  0.2670  0.0378 -0.1818
32115W        W75032  32.904   4.011  20.931 -0.3300 -0.1474  0.1259
32116W        W75033  29.980   3.976  17.843  0.3623  0.4088 -0.0056
32117W        W75034  29.474   4.043  17.415 -0.0042 -0.0974 -0.1776
32118W        W75035  31.047   2.179  17.555 -0.3825 -0.1751 -0.1148
32119W        W75036  33.339   5.650  18.047 -0.1322  0.0744  0.4252
32120W        W75037  32.368   3.627  18.563  0.2074 -0.0113 -0.1049
32121W        W75038  29.484   3.824  20.606 -0.3379  0.1572 -0.0481
32122W        W75039  27.952   3.067  18.216 -0.2195  0.1263  0.0008
32123W        W75040  34.348   7.446  17.291 -0.0530  0.0741 -0.0587
32124W        W75041  33.291   3.807  21.134 -0.0579 -0.1120 -0.1491
32125W        W75042  28.396   5.056  17.573  0.1832  0.0189  0.2912
32126W        W75043  29.457   4.605  20.238 -0.1443  0.0467 -0.0183
32127W        W75044  30.814   5.692  18.513  0.1825 -0.2168 -0.2647
32128W        W75045  30.888   4.348  19.209  0.2350 -0.0914  0.1065
32129W        W75046  29.435   7.354  18.845 -0.1213  0.2291 -0.1382
32130W        W75047  29.163   4.983  18.528 -0.0916  0.0657 -0.2034
32131W        W75048  30.297   6.014  19.269 -0.2389 -0.1352  0.1628
32132W        W75049  30.611   4.738  18.310  0.1749 -0.1735  0.1912
32133W        W75050  30.498   6.609  17.646  0.0055 -0.3070  0.4047
32134W        W75051  29.772   2.968  20.614 -0.1510  0.2298  0.5771
32135W        W75052  32.863   3.541  18.609  0.0128 -0.0486 -0.1265
32136W        W75053  31.285   5.887  17.640  0.0742  0.2085 -0.0306
32137W        W75054  31.498   1.851  22.137  0.1793 -0.0255  0.1710
32138W        W75055  28.493   2.797  20.473 -0.3217 -0.1341 -0.1524
32139W        W75056  30.077   4.160  19.864  0.0525  0.0355  0.0703
32140W        W75057  28.986   2.314  18.903 -0.2510  0.0322 -0.0851
32141W        W75058  31.829   6.217  20.141 -0.0302  0.0498  0.2099
32142W        W75059  29.537   4.902  20.915  0.1653  0.1272  0.1705
32143W        W75060  31.610   4.483  17.831 -0.0523  0.0543 -0.0256
32144W        W75061  29.185   2.724  17.235  0.0410 -0.0820 -0.0061
32145W        W75062  31.671   5.604  18.413 -0.1952  0.3910  0.0406
32146W        W75063  32.152   5.851  18.529  0.0254  0.0205  0.1367
32147W        W75064  31.922   4.667  18.577 -0.3515 -0.1635  0.1492
32148W        W75065  34.143   4.707  17.718  0.1999  0.3172  0.3841
32149W        W75066  30.012   6.744  17.664  0.0680 -0.1346 -0.1729
32150W        W75067  32.927   6.503  18.667 -0.1145 -0.4063 -0.0933
32151W        W75068  31.206   5.760  19.501  0.1372 -0.2224 -0.2166
32152W        W75069  29.387   5.988  17.715 -0.2637 -0.0210  0.2579
32153W        W75070  29.490   5.323  19.524  0.0368 -0.1638  0.2432
32154W        W75071  32.757   6.999  17.947 -0.2627  0.2371 -0.2077
32155W        W75072  30.565   5.576  19.059  0.0286 -0.0647 -0.1735
32156W        W75073  32.805   4.152  21.410 -0.1044 -0.3750 -0.0215
32157W        W75074  30.247   3.626  19.109 -0.1066 -0.0165 -0.1845
32158W        W75075  30.191   3.743  21.689  0.0669  0.4761  0.1258
32159W        W75076  29.431   4.549  22.829  0.2066 -0.0406 -0.0564
32160W        W75077  30.203   7.301  20.194  0.0461  0.0613  0.1622
32161W        W75078  32.877   4.717  17.056  0.3554  0.3186 -0.3061
32162W        W75079  30.259   3.918  21.156  0.3005  0.0715  0.2270
32163W        W75080  31.790   4.759  17.389 -0.1558  0.1940 -0.0594
32164W        W75081  28.738   5.687  18.680 -0.3072  0.0552  0.0363
32165W        W75082  29.692   3.445  20.367 -0.2281 -0.0740  0.0848
32166W        W75083  32.012   4.117  20.738  0.1521 -0.2296 -0.2551
32167W        W75084  30.355   4.540  17.278 -0.0088 -0.1124 -0.2581
32168W        W75085  30.236   3.799  19.565 -0.1422  0.2363 -0.0749
32169W        W75086  28.230   6.490  17.209 -0.1988 -0.1801  0.2215
32170W        W75087  31.867   5.805  17.187  0.2583  0.0557 -0.1864
32171W        W75088  30.488   5.292  17.801  0.1909 -0.0452 -0.0489
32172W        W75089  29.370   4.168  19.299 -0.1268  0.2693  0.2772
32173W        W75090  28.915   6.012  18.285  0.1434 -0.0413  0.1878
32174W        W75091  29.525   4.952  17.057  0.0332  0.4005 -0.1761
32175W        W75092  29.347   5.453  17.438  0.1436 -0.1332 -0.0140
32176W        W75093  33.572   7.231  17.929  0.0015 -0.0695 -0.0956
32177W        W75094  33.380   2.787  22.288 -0.1040 -0.0865  0.0461
32178W        W75095  30.956   2.915  16.894  0.1042  0.0567 -0.4087
32179W        W75096  28.420   4.546  21.666 -0.4501 -0.2482 -0.1637
32180W        W75097  27.184   5.899  19.340  0.0823  0.2543 -0.3137
32181W        W75098  29.812   4.473  19.197 -0.1369 -0.0487  0.1914
32182W        W75099  30.636   6.432  19.970  0.1726  0.0278  0.2614
32183W        W75100  31.012   4.782  21.438 -0.1470 -0.0745  0.1314
32184W        W75101  28.499   5.638  18.216  0.2744 -0.2038 -0.3266
32185W        W75102  30.954   3.346  21.194  0.2882  0.5202  0.2204
32186W        W75103  34.259   5.477  18.245  0.0639  0.1495  0.0625
32187W        W75104  30.414   4.182  19.045 -0.0121 -0.0457  0.0136
32188W        W75105  31.304   4.529  21.153 -0.0759  0.2964  0.2261
32189W        W75106  33.100   5.461  18.467  0.0529 -0.1857  0.1678
32190W        W75107  30.192   6.580  19.294  0.1532 -0.1579 -0.4634
32191W        W75108  30.853   5.071  19.969 -0.2637 -0.0988  0.2469
32192W        W75109  34.206   6.791  18.471 -0.2980  0.2949 -0.2232
32193W        W75110  30.763   5.231  18.329  0.2888  0.1703  0.5532
32194W        W75111  28.199   3.066  19.695 -0.1731 -0.3770 -0.0742
32195W        W75112  31.235   5.035  21.084 -0.0362 -0.0833 -0.0470
32196W        W75113  30.288   6.448  18.497 -0.0228  0.0394  0.4642
32197W        W75114  29.562   1.544  18.144 -0.0283  0.2822  0.2470
32198W        W75115  28.956   7.112  17.430 -0.0180  0.0930 -0.0423
32199W        W75116  29.343   5.563  22.560  0.0441  0.2264  0.3065
32200W        W75117  27.973   6.072  22.139  0.1344  0.0347  0.2498
32201W        W75118  29.869   7.210  17.457  0.0387  0.1613 -0.0278
32202W        W75119  31.170   7.359  18.338 -0.2697 -0.1629 -0.0326
32203W        W75120  29.167   5.696  19.338 -0.1586  0.1924  0.1922
32204W        W75121  29.674   7.213  18.363  0.0653 -0.1351 -0.0769
32205W        W75122  30.264   3.300  18.331  0.0880  0.0277  0.3773
32206W        W75123  30.356   7.242  19.075 -0.2158  0.2098  0.0886
32207W        W75124  27.924   4.516  15.939 -0.1241 -0.2619 -0.0556
32208W        W75125  31.040   6.734  17.570 -0.1415  0.1144  0.1352
32209W        W75126  29.339   6.396  18.447  0.0351 -0.0133  0.1192
32210W        W75127  32.053   5.155  20.794 -0.1467 -0.0097 -0.0891
32211W        W75128  34.139   5.002  16.810  0.0856  0.2090  0.0666
32212W        W75129  32.818   4.646  17.943 -0.1924 -0.0471  0.1016
32213W        W75130  33.157   5.623  17.517 -0.3096 -0.2562  0.1757
32214W        W75131  32.411   6.432  21.466  0.2641 -0.0504 -0.0293
32215W        W75132  29.229   4.579  18.944  0.2381 -0.4228 -0.0730
32216W        W75133  31.272   4.858  17.372 -0.0285 -0.1221 -0.1396
32217W        W75134  29.895   3.927  20.354  0.0650 -0.2545  0.1805
32218W        W75135  32.430   3.367  18.988  0.0620 -0.2911 -0.2074
32219W        W75136  28.548   7.187  17.715  0.0080 -0.0320 -0.1832
32220W        W75137  31.977   6.801  18.414  0.3176  0.2607 -0.0040
32221W        W75138  30.053   4.485  17.798 -0.1550  0.0583 -0.3036
32222W        W75139  31.004   4.420  18.513  0.4267  0.0261 -0.2317
32223W        W75140  29.471   2.693  18.907  0.0962 -0.2941 -0.2084
32224W        W75141  30.252   6.942  17.220  0.1200 -0.1411  0.0314
32225W        W75142  30.760   4.774  20.961 -0.0195 -0.1445 -0.0060
32226W        W75143  30.339   6.850  20.760  0.4571  0.4167 -0.1793
32227W        W75144  29.954   6.252  20.120 -0.5703 -0.2475 -0.1399
32228W        W75145  31.891   4.196  18.766  0.3503 -0.2018 -0.0826
32229W        W75146  29.186   3.648  17.240 -0.0789  0.0638  0.0978
32230W        W75147  34.430   5.830  17.954  0.0025 -0.0529 -0.0703
32231W        W75148  29.058   4.684  20.925 -0.2951 -0.1477  0.1597
32232W        W75149  30.863   3.996  18.830 -0.0722  0.0832  0.2028
32233W        W75150  27.963   5.115  17.830 -0.2314  0.0813  0.1584
32234W        W75151  30.347   5.054  18.635 -0.0012  0.1215  0.1349
32235W        W75152  29.010   5.110  19.468  0.0828  0.1362 -0.0055
32236W        W75153  30.423   4.975  19.658  0.0537 -0.1270  0.2386
32237W        W75154  30.014   4.850  17.018 -0.0940 -0.1730  0.0737
32238W        W75155  32.490   6.042  20.883  0.0023  0.0581  0.5490
32239W        W75156  32.343   5.528  17.801  0.0374 -0.0526 -0.0399
32240W        W75157  31.970   7.933  20.335 -0.0969 -0.0553 -0.0812
32241W        W75158  29.155   4.775  18.016 -0.0590  0.0202  0.2709
32242W        W75159  31.062   4.469  17.638 -0.1418  0.3452 -0.3001
32243W        W75160  27.195   5.362  17.981  0.2018 -0.1766 -0.1926
32244W        W75161  30.808   5.184  18.875 -0.0147 -0.0306  0.1499
32245W        W75162  32.228   7.045  20.020 -0.1296 -0.1915 -0.1318
32246W        W75163  27.753   5.079  19.349 -0.0026  0.0098 -0.0368
32247W        W75164   0.588   7.396  17.095  0.2054 -0.1351 -0.0692
32248W        W75165  30.450   1.963  22.109 -0.0717 -0.5662  0.1151
32249W        W75166  30.765   7.991  18.686  0.0398  0.0815  0.1432
32250W        W75167  29.940   5.192  18.882  0.1251 -0.1401 -0.1956
32251W        W75168  31.396   7.951  17.659  0.1727 -0.1301 -0.1650
32252W        W75169  30.562   2.992  21.768  0.3498  0.0371 -0.2259
32253W        W75170  32.585   7.503  18.053  0.1112 -0.1619  0.1593
32254W        W75171  32.661   6.560  19.081  0.0042 -0.1460 -0.1182
32255W        W75172  31.839   4.300  18.247  0.0966 -0.0593 -0.3092
32256W        W75173  28.357   4.777  18.702 -0.0577 -0.0827  0.2065
32257W        W75174  28.411   5.688  17.352  0.0225  0.0085 -0.0481
32258W        W75175  31.240   5.439  18.622 -0.0901  0.1714 -0.1166
32259W        W75176  30.574   4.289  19.642  0.0735 -0.0968 -0.0636
32260W        W75177  28.756   8.002  16.496 -0.0496  0.0880  0.0932
32261W        W75178  32.429   4.252  19.459  0.0454  0.2016 -0.0447
32262W        W75179  32.658   5.743  18.686  0.2422  0.1865  0.2507
32263W        W75180  28.487   6.858  20.043  0.0171 -0.1807  0.0932
32264W        W75181  30.050   7.069  19.563 -0.1844  0.1807  0.1049
32265W        W75182  30.783   5.823  20.422 -0.2364  0.1342  0.0344
32266W        W75183  29.347   5.917  17.158  0.1482  0.0998 -0.1897
32267W        W75184  27.622   7.807  18.773 -0.1271 -0.0402 -0.2753
32268W        W75185  32.339   6.402  20.048  0.0103  0.0922  0.3816
32269W        W75186  31.806   2.583  18.292 -0.0606  0.0859 -0.1209
32270W        W75187   0.215   7.090  17.322  0.1430 -0.1919  0.0983
32271W        W75188  30.246   3.112  18.845  0.1888 -0.1535 -0.4714
32272W        W75189  31.460   4.561  18.443 -0.1408 -0.2055  0.0735
32273W        W75190  31.218   4.157  17.997 -0.1433  0.2297 -0.0670
32274W        W75191  28.711   6.401  18.022  0.0089 -0.0850 -0.0059
32275W        W75192  27.636   4.757  16.343  0.0557  0.3428  0.0517
32276W        W75193  28.154   5.669  17.838  0.0437  0.1820 -0.2107
32277W        W75194  28.198   4.762  19.183 -0.1482 -0.0673  0.0057
32278W        W75195  28.819   4.197  21.025 -0.0946  0.1676 -0.0157
32279W        W75196  28.252   5.838  20.441  0.0034  0.3230  0.0305
32280W        W75197  30.255   5.085  20.163  0.1102  0.2060 -0.0455
32281W        W75198  30.537   4.316  18.563  0.1977  0.3541  0.0050
32282W        W75199  29.637   5.543  17.816  0.3735 -0.2518 -0.0835
32283W        W75200  28.574   3.775  18.941 -0.1719  0.1158 -0.0258
32284W        W75201  28.829   3.729  20.047  0.3013 -0.2181  0.0281
32285W        W75202  30.567   6.144  17.416 -0.0400 -0.3695  0.2306
32286W        W75203  32.394   6.688  18.018  0.2374  0.0060 -0.2021
32287W        W75204  30.241   4.906  17.976 -0.1247  0.2251  0.0703
32288W        W75205  32.697   7.794  21.379 -0.2500  0.1164 -0.2573
32289W        W75206  28.819   5.275  16.745 -0.1684 -0.0678  0.1819
32290W        W75207  30.423   4.268  20.352 -0.2270 -0.2711 -0.0451
32291W        W75208  29.728   2.774  21.785  0.0234 -0.2988 -0.0045
32292W        W75209  27.640   3.001  17.684  0.0249  0.0676  0.0693
32293W        W75210  30.695   2.635  20.621  0.1065  0.0549 -0.1652
32294W        W75211  30.923   5.540  17.960 -0.0153 -0.0150 -0.1218
32295W        W75212  30.765   6.687  17.191 -0.2263 -0.0652 -0.2367
32296W        W75213  31.628   6.673  20.396  0.2228  0.2215  0.1313
32297W        W75214  29.662   5.891  21.011 -0.1132 -0.2778  0.2234
32298W        W75215  27.093   3.987  21.501 -0.0439 -0.1199  0.1268
32299W        W75216  30.050   5.435  18.112 -0.1190  0.2532 -0.1325
32300W        W75217  30.210   6.010  21.243  0.1915  0.0961 -0.2989
32301W        W75218  31.573   5.547  16.796 -0.0215  0.1620  0.3226
32302W        W75219  33.041   4.064  17.847 -0.0555 -0.0595  0.2797
32303W        W75220  31.016   4.888  18.547 -0.1469 -0.1600  0.1149
32304W        W75221  28.189   4.885  20.761 -0.1548 -0.1618 -0.1079
32305W        W75222  30.846   5.273  21.417 -0.2473  0.0371 -0.1493
32306W        W75223  31.692   6.397  18.543 -0.3442  0.2687 -0.1240
32307W        W75224  29.413   2.802  18.147 -0.1165 -0.1671  0.0129
32308W        W75225  30.369   3.761  18.534 -0.1325 -0.1411  0.1096
32309W        W75226  28.457   5.288  17.081 -0.0616  0.1675 -0.1870
32310W        W75227  29.844   4.995  19.325  0.0989 -0.2116  0.1617
32311W        W75228  29.286   5.257  16.618 -0.1758  0.1278  0.1947
32312W        W75229  30.049   5.753  19.869 -0.2197 -0.2350  0.1684
32313W        W75230  31.087   6.312  19.695  0.1563  0.1728  0.3469
32314W        W75231  32.750   3.980  20.481  0.0678 -0.0958  0.0788
32315W        W75232  30.106   4.559  18.319 -0.1444  0.2998  0.1553
32316W        W75233  32.944   5.933  17.901  0.1150 -0.1110  0.1965
32317W        W75234  30.180   7.322  18.342  0.0830 -0.2682 -0.0590
32318W        W75235  30.842   6.949  20.756  0.4028  0.0115  0.2166
32319W        W75236  32.050   6.258  20.635 -0.3789 -0.0318  0.1613
32320W        W75237  30.557   6.008  18.798 -0.1405 -0.3497 -0.3484
32321W        W75238  29.997   4.109  18.613 -0.1222 -0.0107 -0.2937
32322W        W75239  30.684   6.157  18.384 -0.0249 -0.3721 -0.2377
32323W        W75240  30.006   5.702  18.874  0.0406  0.2678  0.1700
32324W        W75241  30.663   3.901  19.307  0.1210  0.0573 -0.1253
32325W        W75242  29.236   4.460  17.253  0.1387  0.0243 -0.0052
32326W        W75243  31.740   2.831  18.754 -0.1057 -0.0313  0.0457
32327W        W75244  30.590   6.621  18.178  0.0315  0.2458  0.2530
32328W        W75245  29.923   5.566  19.310  0.2099  0.2216  0.0053
32329W        W75246  29.768   7.197  23.056  0.3298  0.0780 -0.0721
32330W        W75247  29.847   5.925  23.611  0.0300  0.0548 -0.4445
32331W        W75248  31.498   5.064  18.825 -0.1039  0.3482 -0.1373
32332W        W75249   0.445   4.422  21.074 -0.0056  0.4428  0.0008
32333W        W75250  28.090   5.832  23.367 -0.2319  0.0526 -0.3037
32334W        W75251  32.695   4.681  20.380  0.0043 -0.3380 -0.0357
32335W        W75252  28.739   3.070  22.847 -0.1627  0.0496 -0.0809
32336W        W75253  29.529   5.494  21.763 -0.0974 -0.1104  0.1629
32337W        W75254  33.936   5.742  22.524 -0.5363 -0.0129 -0.0290
32338W        W75255  32.173   4.040  22.010 -0.0780  0.3133 -0.0054
32339W        W75256  30.526   5.370  22.615 -0.1749  0.1215  0.0836
32340W        W75257  28.343   6.120  24.399 -0.3465  0.0191 -0.1117
32341W        W75258  30.224   3.664  20.049 -0.0298  0.3744  0.1191
32342W        W75259  27.152   2.107  21.283 -0.3480  0.5055  0.0888
32343W        W75260  32.791   4.972  21.267  0.2012 -0.0569  0.2665
32344W        W75261  31.793   6.593  20.928 -0.0321  0.0672 -0.0682
32345W        W75262  29.807   3.203  24.284 -0.1125 -0.1202 -0.0530
32346W        W75263  30.898   4.089  21.746  0.1251 -0.1036 -0.1869
32347W        W75264  30.990   8.313  23.590 -0.1015  0.0386 -0.3972
32348W        W75265  31.682   3.836  22.735  0.0338  0.2793  0.0092
32349W        W75266  31.848   4.916  23.725  0.2074 -0.0263 -0.2775
32350W        W75267  30.591   5.055  21.872 -0.1580  0.0972 -0.0113
32351W        W75268  28.218   5.623  22.179 -0.0003 -0.0077  0.1977
32352W        W75269  31.156   5.905  22.163 -0.0978 -0.0561  0.1829
32353W        W75270  30.475   5.176  23.670 -0.1190  0.2340 -0.0399
32354W        W75271  31.377   4.104  21.510  0.2041  0.4847  0.4994
32355W        W75272  31.453   3.412  22.550 -0.2237 -0.1591  0.2143
32356W        W75273  30.102   8.730  24.085 -0.0775  0.2525  0.1681
32357W        W75274  31.361   7.507  21.381 -0.1250 -0.1153 -0.4758
32358W        W75275  32.580   5.788  21.893  0.0204 -0.2608 -0.2703
32359W        W75276  30.149   4.014  23.664  0.0514 -0.2781  0.0142
32360W        W75277  28.255   3.738  22.001  0.0644  0.1530  0.3165
32361W        W75278  29.637   6.039  23.140  0.1878 -0.3101 -0.4042
32362W        W75279  32.976   4.521  19.871  0.1275  0.1762 -0.0278
32363W        W75280  32.527   6.317  23.669  0.2641 -0.0090  0.1645
32364W        W75281  31.176   6.702  23.329 -0.2041 -0.0352  0.0583
32365W        W75282  29.450   5.477  21.206 -0.0765 -0.1693  0.0659
32366W        W75283  31.196   8.171  24.171 -0.2375 -0.3441 -0.4043
32367W        W75284  29.132   5.924  23.153 -0.3067 -0.0975  0.2613
32368W        W75285  31.457   6.319  22.035 -0.3705 -0.0956 -0.1714
32369W        W75286  29.066   6.968  22.281 -0.0688  0.0556 -0.2396
32370W        W75287  29.332   6.258  22.773  0.1945  0.0068 -0.2278
32371W        W75288  30.339   5.056  20.757 -0.1611  0.4517 -0.0239
32372W        W75289  31.270   6.202  24.005  0.1389  0.0061 -0.1375
32373W        W75290  28.231   8.817  23.521 -0.0139 -0.1701 -0.1282
32374W        W75291  32.733   5.122  24.187  0.4215  0.1902  0.0914
32375W        W75292  29.099   7.954  21.993 -0.1783  0.1128  0.2290
32376W        W75293  33.797   4.123  19.871  0.0529 -0.1379  0.3860
32377W        W75294  31.365   5.512  21.310  0.3980 -0.0134  0.0481
32378W        W75295  33.631   4.184  22.163  0.2656  0.1423  0.0095
32379W        W75296  28.942   3.561  23.845  0.1767  0.1487  0.2106
32380W        W75297  30.234   7.621  23.735  0.1003  0.2624  0.1477
32381W        W75298  30.071   4.082  22.248  0.0420  0.1748  0.1901
32382W        W75299  32.952   7.390  23.574 -0.0071 -0.0395 -0.0146
32383W        W75300  29.318   3.033  20.989 -0.0457 -0.0963  0.1128
32384W        W75301  32.848   5.444  22.703  0.0926  0.0650 -0.0162
32385W        W75302  29.577   6.110  22.362  0.1686  0.0205  0.0907
32386W        W75303  28.117   3.341  22.852 -0.1749  0.3328 -0.1346
32387W        W75304  33.400   4.664  21.911 -0.1449  0.3133 -0.0240
32388W        W75305  30.819   8.279  23.084  0.2173  0.0824  0.1586
32389W        W75306  31.832   5.183  20.229 -0.0363 -0.0876  0.1224
32390W        W75307  29.610   4.232  24.249  0.1485  0.0824 -0.1968
32391W        W75308  28.413   4.644  23.227  0.2384  0.1601  0.0463
32392W        W75309  28.944   5.956  22.423 -0.5481  0.1634 -0.3747
32393W        W75310  29.554   4.549  21.432  0.0297 -0.0545  0.1096
32394W        W75311  33.165   5.255  21.454 -0.0912 -0.5460  0.2411
32395W        W75312  29.658   6.870  23.410  0.1404  0.3008  0.1165
32396W        W75313  33.302   2.404  21.540 -0.0210  0.0223  0.0036
32397W        W75314  32.866   5.031  20.070 -0.1907  0.2075  0.1387
32398W        W75315  31.752   8.447  22.104 -0.0165  0.0796 -0.0334
32399W        W75316  31.250   5.228  19.741  0.0670  0.0471  0.1684
32400W        W75317  32.923   3.639  21.499 -0.0943  0.5198  0.0875
32401W        W75318  32.741   5.838  22.356 -0.5785 -0.0865 -0.0718
32402W        W75319  30.136   6.692  21.240  0.1824 -0.0774  0.0079
32403W        W75320  30.771   5.780  22.405  0.0302 -0.1924  0.1809
32404W        W75321  31.802   6.884  21.910 -0.2252 -0.0573  0.2185
32405W        W75322   0.029   4.608  21.454 -0.1015 -0.0559 -0.0759
32406W        W75323  30.054   5.389  25.125  0.2478 -0.1942  0.1958
32407W        W75324  29.355   3.168  23.072 -0.1663  0.1476  0.2284
32408W        W75325  30.012   6.302  22.686  0.0430  0.2423  0.0036
32409W        W75326  29.721   6.680  19.632 -0.2417  0.2358  0.0545
32410W        W75327  29.132   6.605  24.106  0.0100 -0.0723 -0.0815
32411W        W75328  29.618   6.815  21.094  0.0115  0.0968 -0.0548
32412W        W75329  29.646   4.672  24.324  0.2565  0.0373 -0.0441
32413W        W75330  30.793   3.875  24.646 -0.0985  0.0317 -0.0816
32414W        W75331  33.308   3.912  18.436  0.0520  0.1605  0.1118
32415W        W75332  27.875   2.220  22.980  0.2495 -0.1053  0.1557
32416W        W75333  32.942   5.456  22.166  0.1323  0.3413 -0.2273
32417W        W75334  32.058   6.093  21.177 -0.2134  0.0133 -0.2103
32418W        W75335  31.404   5.128  22.474 -0.2636  0.1057  0.0562
32419W        W75336  32.386   5.208  19.911 -0.1408  0.0019 -0.0179
32420W        W75337  31.267   5.322  19.174 -0.1602 -0.1324 -0.2302
32421W        W75338  28.746   3.058  23.895  0.0754 -0.0276 -0.2368
32422W        W75339  30.278   5.602  23.705 -0.3367 -0.0854  0.1392
32423W        W75340  28.824   3.319  24.363 -0.1758 -0.0642 -0.1818
32424W        W75341  29.668   3.701  22.353 -0.3075 -0.0066  0.0367
32425W        W75342  31.482   6.583  22.523  0.1451  0.0434  0.0590
32426W        W75343  30.058   3.218  20.995  0.0409 -0.2987  0.1010
32427W        W75344  31.616   4.633  21.520 -0.1341 -0.3930 -0.1496
32428W        W75345  28.645   5.205  23.964  0.2521 -0.0962  0.1428
32429W        W75346  29.925   4.437  23.483  0.1079 -0.2731 -0.1700
32430W        W75347  28.781   5.148  24.718 -0.1298  0.0555 -0.0583
32431W        W75348  30.043   6.717  20.371  0.1179  0.0115  0.1200
32432W        W75349  32.048   7.394  22.647 -0.1263 -0.1823 -0.0692
32433W        W75350  31.432   4.177  22.421 -0.1416 -0.2787 -0.0166
32434W        W75351  30.782   2.958  22.776 -0.1801  0.1176 -0.2350
32435W        W75352  29.116   5.744  20.979 -0.0859 -0.2418 -0.0558
32436W        W75353  27.771   6.741  22.620  0.1549  0.2079 -0.0753
32437W        W75354  33.153   5.407  20.970 -0.1493  0.1493 -0.0749
32438W        W75355  29.328   3.462  21.362  0.1960 -0.0413  0.0422
32439W        W75356  30.529   7.109  22.283  0.5892 -0.2943 -0.0449
32440W        W75357  30.994   6.235  20.768 -0.1158  0.1806  0.1946
32441W        W75358  29.047   6.149  24.474  0.1616  0.3876 -0.0497
32442W        W75359  31.403   3.784  23.525  0.0165 -0.0030  0.1853
32443W        W75360  33.301   4.405  21.088 -0.3815  0.1218  0.3110
32444W        W75361  32.246   3.034  22.430  0.0666 -0.1079  0.0355
32445W        W75362  30.368   4.211  21.575  0.0220 -0.2926 -0.2494
32446W        W75363  32.062   4.170  19.872  0.5028  0.3188 -0.0520
32447W        W75364  29.311   6.240  21.166 -0.0072 -0.3907 -0.2072
32448W        W75365  29.910   3.095  20.119  0.0079  0.1861 -0.1979
32449W        W75366  31.099   5.281  20.361  0.0786 -0.3381 -0.0851
32450W        W75367  33.442   4.416  23.922  0.3341 -0.0314 -0.0480
32451W        W75368  30.094   4.726  24.496  0.0336  0.2444 -0.0306
32452W        W75369  33.000   5.106  23.006  0.3230 -0.1900 -0.0532
32453W        W75370  32.363   4.317  21.707 -0.2323 -0.0147  0.2634
32454W        W75371  30.653   6.348  23.201  0.3690 -0.1633  0.0678
32455W        W75372  30.179   2.570  21.781 -0.1681  0.0745 -0.0910
32456W        W75373  33.638   4.141  22.665 -0.3048  0.3049 -0.2544
32457W        W75374  29.669   6.617  22.935  0.0744  0.2002 -0.1172
32458W        W75375  32.333   7.786  21.803  0.3898 -0.0186  0.2202
32459W        W75376  32.271   6.521  21.015  0.0022  0.1826  0.1769
32460W        W75377  30.742   3.493  21.897 -0.2172 -0.0967  0.0995
32461W        W75378  27.125   5.791  24.937 -0.3627  0.0145  0.0161
32462W        W75379  29.733   5.044  21.579  0.1842  0.0318 -0.2032
32463W        W75380  29.570   8.173  21.618  0.1625 -0.0145 -0.1266
32464W        W75381  30.859   3.441  22.823  0.1777 -0.0485  0.0723
32465W        W75382  32.251   6.996  22.155 -0.2850  0.3813  0.1500
32466W        W75383  28.451   5.737  24.052 -0.1512 -0.1460  0.4094
32467W        W75384  30.662   5.703  24.334  0.1015  0.0707  0.0322
32468W        W75385  31.555   6.063  21.515  0.2110 -0.0144  0.0034
32469W        W75386  29.564   4.007  21.918  0.2439 -0.1706  0.2721
32470W        W75387  30.121   5.874  21.738  0.0876  0.0515  0.1711
32471W        W75388  31.169   3.867  21.026  0.1867 -0.0867 -0.0769
32472W        W75389  29.614   5.393  20.622 -0.1335  0.1507  0.2006
32473W        W75390  33.188   4.243  22.446  0.1331 -0.1700 -0.0696
32474W        W75391  30.749   2.740  22.198 -0.0540 -0.1098 -0.2731
32475W        W75392  28.818   2.528  24.829 -0.1498  0.1830  0.3019
32476W        W75393  32.277   6.017  22.344 -0.1208  0.1618 -0.1651
32477W        W75394  33.446   3.941  21.590  0.0401 -0.0658  0.0933
32478W        W75395  30.685   5.814  22.937 -0.0625  0.0511  0.0920
32479W        W75396  32.113   7.431  20.426 -0.3997 -0.0312 -0.1828
32480W        W75397  31.288   3.127  22.956 -0.0014  0.0042 -0.2555
32481W        W75398  28.780   3.433  25.405  0.2243  0.1113 -0.2132
32482W        W75399  26.987   6.580  24.475 -0.1756 -0.0098  0.0959
32483W        W75400  31.508   4.765  23.327 -0.2402 -0.0312 -0.0091
32484W        W75401  31.502   5.581  20.131 -0.0128  0.1488  0.0734
32485W        W75402  32.290   5.310  21.302  0.2274  0.0465 -0.2699
32486W        W75403  31.096   2.666  21.805 -0.1938 -0.2454 -0.2521
32487W        W75404  28.014   7.319  22.075 -0.2049  0.0533  0.2098
32488W        W75405  31.464   5.094  21.539 -0.0928 -0.2707 -0.1314
32489W        W75406  30.448   4.339  24.400  0.5937 -0.3904  0.0797
32490W        W75407  29.227   7.513  22.329 -0.0795  0.0327 -0.0489
32491W        W75408  28.264   6.646  21.353  0.4035  0.1829 -0.0357
32492W        W75409  31.925   5.361  22.603  0.0690 -0.5014 -0.0653
32493W        W75410  28.056   5.211  22.711  0.0170  0.0581 -0.3369
32494W        W75411  30.417   5.588  22.023 -0.2923 -0.0027 -0.1177
32495W        W75412  28.932   6.295  25.706  0.1652  0.0168  0.1048
32496W        W75413  29.078   6.432  22.385 -0.1008  0.1469 -0.1251
32497W        W75414  29.043   5.773  24.103  0.1433 -0.0888  0.0416
32498W        W75415  32.880   2.092  21.680 -0.2137  0.0538  0.2698
32499W        W75416  33.541   4.683  20.623 -0.2576  0.0396  0.0319
32500W        W75417  31.115   3.564  23.957 -0.0418  0.0978  0.2424
32501W        W75418  32.110   2.578  22.443 -0.1828  0.1058 -0.2560
32502W        W75419  29.483   7.050  22.684  0.1941 -0.3160  0.1058
32503W        W75420  32.249   5.613  20.898 -0.0644  0.1252  0.3300
32504W        W75421  32.591   4.264  20.106 -0.1869  0.1946 -0.1717
32505W        W75422  31.694   5.862  21.944 -0.2676 -0.1415  0.2487
32506W        W75423  30.543   3.988  22.061  0.2469  0.0448  0.2871
32507W        W75424  27.639   5.128  20.575  0.2739 -0.0660 -0.1183
32508W        W75425  33.183   4.693  21.472 -0.0406  0.2212 -0.0505
32509W        W75426  30.041   4.810  22.133  0.1304 -0.6345  0.0333
32510W        W75427  29.188   7.350  21.859  0.1886 -0.0834 -0.0488
32511W        W75428  30.398   6.568  22.262 -0.1764  0.2076  0.0102
32512W        W75429  29.875   7.326  22.488 -0.1621  0.1919 -0.2485
32513W        W75430  31.125   6.626  20.271 -0.1472 -0.0376 -0.1996
32514W        W75431  28.446   5.516  23.199  0.1165  0.3125  0.2585
32515W        W75432  32.430   4.485  22.489 -0.0946  0.2841  0.1161
32516W        W75433  30.952   6.283  21.850 -0.0448 -0.0198  0.0302
32517W        W75434  29.403   4.590  22.035 -0.0950 -0.0621 -0.0221
32518W        W75435  31.747   4.448  22.884 -0.3219 -0.1168 -0.1660
32519W        W75436  33.255   5.641  20.361 -0.0902 -0.0190 -0.1395
32520W        W75437  30.965   4.094  23.670  0.1874 -0.0029  0.1693
32521W        W75438  31.814   8.024  24.050 -0.2100  0.0937  0.0128
32522W        W75439  30.177   2.968  22.136  0.1280 -0.0045  0.0733
32523W        W75440  32.424   5.783  21.305  0.0815 -0.0594  0.1153
32524W        W75441  31.660   4.675  22.436 -0.0381  0.0368  0.1227
32525W        W75442  30.541   7.346  20.677  0.1449 -0.0220  0.0435
32526W        W75443  27.621   5.756  23.168 -0.3989 -0.2153 -0.0887
32527W        W75444  30.250   6.241  23.631 -0.1126 -0.3308 -0.2013
32528W        W75445  29.620   4.269  22.427 -0.2240  0.1411  0.0275
32529W        W75446  29.019   5.361  25.639  0.1258 -0.1856 -0.4609
32530W        W75447  30.047   5.786  20.773 -0.1342 -0.3293  0.1690
32531W        W75448  28.384   7.206  24.013 -0.0153 -0.2371  0.2867
32532W        W75449  34.095   3.604  23.557 -0.1960  0.3028 -0.1309
32533W        W75450  31.658   4.416  20.759 -0.0398 -0.2380 -0.0358
32534W        W75451  30.784   4.637  21.881  0.0271  0.1712  0.0073
32535W        W75452  33.120   3.887  21.938  0.2932 -0.2553 -0.0333
32536W        W75453  29.633   3.509  21.777 -0.1872 -0.4486 -0.0040
32537W        W75454  33.622   4.628  22.498 -0.0057 -0.0543  0.0840
32538W        W75455  29.738   3.269  23.427 -0.1717 -0.1397 -0.1244
32539W        W75456  33.231   6.323  21.754 -0.2181  0.0349  0.2183
32540W        W75457  28.000   4.539  23.454 -0.2765 -0.0750 -0.0192
32541W        W75458  32.243   6.246  24.073  0.1814  0.1498  0.1654
32542W        W75459  30.697   5.391  23.134  0.1947  0.1678 -0.1209
32543W        W75460  31.857   5.057  21.260 -0.1164 -0.0727  0.1972
32544W        W75461  29.561   3.456  20.940  0.2212 -0.0268 -0.3432
32545W        W75462  31.755   3.720  22.252  0.0549  0.1954 -0.0615
32546W        W75463  33.094   4.407  20.586 -0.0060 -0.0401 -0.1658
32547W        W75464  29.302   7.065  20.435 -0.1853 -0.3009 -0.1397
32548W        W75465  34.242   4.243  22.865  0.2265 -0.5015 -0.2283
32549W        W75466  30.395   8.127  21.860 -0.1485 -0.3516 -0.0709
32550W        W75467  29.136   6.715  22.773 -0.0562  0.1000 -0.0873
32551W        W75468  31.395   3.410  21.043  0.1123 -0.1544 -0.0395
32552W        W75469  28.501   5.322  22.487 -0.1885 -0.1714 -0.0319
32553W        W75470  29.965   1.444  23.529 -0.0745 -0.2828  0.0021
32554W        W75471  30.770   6.658  21.535 -0.2722  0.1112  0.4005
32555W        W75472  33.476   2.940  20.662 -0.0083  0.1414  0.1438
32556W        W75473  31.893   3.104  25.152  0.2510 -0.0214  0.4445
32557W        W75474  31.669   4.188  23.601  0.1012  0.2141 -0.1370
32558W        W75475  29.105   6.934  24.529  0.0958  0.1115  0.0122
32559W        W75476  30.928   2.517  23.188  0.1013 -0.2877 -0.4271
32560W        W75477  32.418   7.376  22.935 -0.0907 -0.0285 -0.0754
32561W        W75478  33.615   5.152  19.680 -0.0097 -0.0221 -0.3894
32562W        W75479  33.701   2.597  21.830  0.3304  0.0829 -0.2809
32563W        W75480   1.115   3.764  20.042 -0.0182 -0.0291  0.0191
32564W        W75481  31.109   5.881  21.595 -0.0783 -0.3631 -0.0833
32565W        W75482  29.526   5.252  22.234 -0.1583  0.0194  0.2135
32566W        W75483  31.670   4.971  22.823 -0.2138  0.0785 -0.2060
32567W        W75484  30.687   3.794  21.374  0.1212  0.1123 -0.0524
32568W        W75485  31.637   4.954  22.048 -0.1825  0.2770  0.1562
32569W        W75486  30.498   8.628  21.666  0.2112  0.1270  0.2487
32570W        W75487  32.706   6.825  22.032  0.0143 -0.0487  0.1701
32571W        W75488  33.877   5.501  20.956  0.3528  0.1376  0.1493
32572W        W75489  29.982   3.035  23.025 -0.0494 -0.0497 -0.1976
32573W        W75490  29.095   7.043  25.071  0.0892 -0.1389 -0.0162
32574W        W75491  28.823   5.355  21.270 -0.4656  0.2972 -0.1363
32575W        W75492  30.888   5.745  21.145  0.0274  0.4688  0.1978
32576W        W75493  30.801   6.790  21.999  0.0108  0.0272  0.1534
32577W        W75494  31.525   6.392  22.958  0.0170 -0.1492  0.2962
32578W        W75495  32.576   3.833  23.281 -0.2520 -0.0361 -0.0450
32579W        W75496  32.126   4.733  22.788  0.1014 -0.1466  0.0402
32580W        W75497  30.289   4.676  23.674  0.2924  0.1268  0.4620
32581W        W75498  31.910   4.309  21.334  0.0232 -0.3282  0.0416
32582W        W75499  28.421   6.570  23.094 -0.1454 -0.2713 -0.0046
32583W        W75500  30.424   4.488  22.940 -0.4613 -0.0599 -0.3617
32584W        W75501  29.131   6.765  23.601 -0.0898  0.2311  0.1152
32585W        W75502  29.300   3.374  25.514  0.0631 -0.1537  0.1983
32586W        W75503  32.354   5.434  23.375  0.0071  0.1135 -0.0661
32587W        W75504  29.298   6.891  21.761 -0.0558  0.0388 -0.0638
32588W        W75505  34.302   5.360  22.748  0.4056  0.0404 -0.0949
32589W        W75506  29.336   7.662  23.718  0.0913  0.2722 -0.0729
32590W        W75507  29.790   5.773  22.728 -0.1964 -0.0893 -0.1569
32591W        W75508  30.191   5.947  23.198  0.3564 -0.0508 -0.0819
32592W        W75509  33.511   5.667  21.256  0.0531 -0.2259 -0.1872
32593W        W75510  30.046   5.063  23.447 -0.1046  0.2076  0.1146
32594W        W75511  28.868   4.061  24.516  0.1515 -0.1432  0.1111
32595W        W75512  30.012   7.650  22.854  0.0494 -0.2748  0.1627
32596W        W75513  30.067   6.221  22.111  0.1015 -0.0654  0.3184
32597W        W75514  28.149   3.175  21.718  0.2129  0.0373  0.2537
32598W        W75515  31.284   6.980  19.505  0.0069 -0.1461 -0.1128
32599W        W75516  28.638   7.696  26.860 -0.1191  0.1719 -0.0547
32600W        W75517  27.760   4.677  23.036 -0.2297  0.4675 -0.0762
32601W        W75518  28.694   7.637  22.729  0.1042 -0.0212  0.0798
32602W        W75519  32.821   8.309  19.811  0.0225  0.3007 -0.0370
32603W        W75520  32.642   6.377  20.526 -0.0387 -0.1462  0.2107
32604W        W75521  30.071   7.618  22.045 -0.2519  0.2178  0.4779
32605W        W75522  30.046   4.694  20.791 -0.0435  0.2087 -0.2267
32606W        W75523  29.450   8.051  23.470  0.1116 -0.3196 -0.1898
32607W        W75524  28.423   7.050  19.123 -0.3217 -0.1178 -0.0371
32608W        W75525  33.185   7.280  20.207 -0.0218  0.1396  0.0309
32609W        W75526  28.740   7.444  22.154 -0.0664  0.0214 -0.1013
32610W        W75527  32.939   5.060  21.857  0.0581 -0.1069  0.1225
32611W        W75528  31.651   4.874  20.549  0.0300  0.1501  0.1601
32612W        W75529  32.083   5.585  22.103  0.1066  0.3548 -0.1854
32613W        W75530  32.100   3.449  20.248 -0.0110 -0.0728 -0.0269
32614W        W75531  32.379   7.405  23.420  0.0804  0.1821  0.1848
32615W        W75532  29.739   6.634  22.003 -0.0269 -0.1895 -0.0747
32616W        W75533  29.820   5.734  22.158  0.0181  0.0289 -0.0298
32617W        W75534  30.428   7.511  22.553 -0.0551  0.0602  0.1971
32618W        W75535  32.951   6.930  23.732  0.0595 -0.0175  0.0718
32619W        W75536  27.435   7.248  24.230 -0.0268 -0.1015 -0.2940
32620W        W75537  31.862   5.439  21.706 -0.1887 -0.0018 -0.1852
32621W        W75538  30.909   6.253  21.304 -0.3425  0.1432 -0.2377
32622W        W75539  30.006   6.819  22.552 -0.1168  0.0189 -0.1712
32623W        W75540  33.662   5.127  22.555 -0.3668 -0.0982  0.0527
32624W        W75541  29.269   6.848  18.854 -0.0487  0.4252 -0.3133
32625W        W75542  29.963   4.312  22.921  0.1804 -0.2013  0.0115
32626W        W75543  31.893   6.899  18.915 -0.2468 -0.1845 -0.1591
32627W        W75544  30.627   6.841  25.020 -0.0433  0.2390 -0.1321
32628W        W75545  27.639   4.967  24.068  0.3692  0.0721  0.0518
32629W        W75546  28.835   3.233  20.999  0.4025 -0.0396 -0.3201
32630W        W75547  31.996   4.183  22.514  0.0445 -0.0901  0.1104
32631W        W75548  30.918   4.385  22.756  0.2458  0.2730  0.1006
32632W        W75549  32.492   4.815  25.870 -0.2879 -0.1715 -0.0331
32633W        W75550  29.276   5.772  22.072  0.1001 -0.0387 -0.0684
32634W        W75551  34.647   4.199  21.070 -0.4574  0.2668  0.2930
32635W        W75552  29.176   7.957  22.533  0.0475  0.2799  0.2353
32636W        W75553  30.924   4.276  22.258  0.2207 -0.2417 -0.0865
32637W        W75554  32.485   4.832  20.872  0.2112  0.1617  0.0917
32638W        W75555  32.012   5.660  23.028  0.4336 -0.1284 -0.1040
32639W        W75556  32.475   3.744  19.483 -0.4212  0.0324  0.1144
32640W        W75557  31.173   6.901  24.643  0.0789 -0.0890  0.1504
32641W        W75558  29.826   4.478  21.869  0.0921  0.1632 -0.1037
32642W        W75559  30.866   5.292  20.880  0.4062 -0.0543 -0.1446
32643W        W75560  29.987   4.997  23.968  0.1166  0.1345  0.2279
32644W        W75561  31.523   5.602  22.338 -0.3370 -0.1315 -0.2495
32645W        W75562  32.090   7.928  22.674 -0.2924  0.1310 -0.0025
32646W        W75563  27.829   1.488  22.646 -0.0548  0.2647 -0.4875
32647W        W75564  33.962   7.281  19.834 -0.1715  0.2096  0.0401
32648W        W75565  30.558   3.767  23.563  0.1639  0.2981  0.0253
32649W        W75566  31.422   7.253  18.798 -0.2672 -0.0680  0.1535
32650W        W75567  32.409   5.288  21.875  0.0553  0.1386  0.0006
32651W        W75568  32.487   7.314  21.872  0.1731 -0.0514  0.1643
32652W        W75569  28.911   4.623  21.955 -0.1025 -0.2158  0.0393
32653W        W75570  30.056   7.090  22.101  0.3087  0.1310  0.0096
32654W        W75571   0.402   6.760  21.549 -0.2615 -0.0191  0.1741
32655W        W75572  31.134   3.051  20.725  0.2742  0.0027  0.0001
32656W        W75573  28.935   2.746  21.135 -0.1554  0.4155  0.0203
32657W        W75574  28.611   6.498  22.270  0.4229 -0.2173 -0.2534
32658W        W75575  32.408   4.699  23.844 -0.0468  0.2547  0.0164
32659W        W75576  34.477   4.679  21.026  0.1074 -0.1947  0.2201
32660W        W75577  31.553   6.548  19.346  0.3627  0.1319  0.0331
32661W        W75578  33.417   5.653  22.472  0.0592 -0.1768 -0.0042
32662W        W75579  31.090   6.541  22.827  0.0113 -0.1911 -0.0222
32663W        W75580  30.904   7.341  24.235  0.0390 -0.0880 -0.0414
32664W        W75581  30.530   6.071  22.116  0.0469 -0.3082  0.0103
32665W        W75582  32.004   7.073  23.589  0.1641  0.0945 -0.0023
32666W        W75583  30.335   5.425  21.571 -0.2685  0.0199 -0.0828
32667W        W75584  30.555   6.425  21.025 -0.1630  0.2374 -0.0864
32668W        W75585  30.884   6.408  22.365  0.2627  0.3269  0.0418
32669W        W75586  32.053   4.939  21.719 -0.0670  0.0672 -0.0532
32670W        W75587  32.774   6.461  21.004 -0.0581  0.0447 -0.2692
32671W        W75588  30.843   5.189  22.292  0.2028 -0.0113 -0.2701
32672W        W75589  33.078   2.447  22.059  0.1099 -0.1934 -0.2174
32673W        W75590  32.985   4.647  22.671 -0.0283  0.1086  0.0281
32674W        W75591  31.192   3.899  22.830  0.3526  0.1032 -0.1570
32675W        W75592  27.552   6.446  20.608 -0.0747 -0.0810  0.0582
32676W        W75593  27.822   5.341  22.338  0.2072  0.0932  0.0044
32677W        W75594  30.153   3.869  23.106 -0.0539 -0.2198  0.0480
32678W        W75595  31.178   2.525  22.644  0.3354 -0.1110  0.1869
32679W        W75596  30.870   3.029  23.295  0.1646  0.2247 -0.0008
32680W        W75597  28.311   4.475  21.157 -0.2669 -0.2463  0.0966
32681W        W75598  27.409   2.912  21.711  0.1402  0.0229  0.1910
32682W        W75599  32.605   6.879  20.762  0.2410 -0.2298  0.1513
32683W        W75600  30.269   0.780  22.964  0.2536  0.3946  0.1624
32684W        W75601  29.582   5.236  22.895  0.3396  0.0739 -0.1894
32685W        W75602  32.947   5.273  20.466 -0.2745  0.0494 -0.0342
32686W        W75603  32.649   6.033  20.005  0.1361  0.3745 -0.1639
32687W        W75604  29.241   5.052  21.384  0.3716 -0.0611  0.2410
32688W        W75605  31.941   6.278  24.633 -0.1383 -0.3029  0.4860
32689W        W75606  29.979   5.316  20.960 -0.2918  0.0446  0.3284
32690W        W75607  30.867   4.917  22.837  0.0634 -0.3944 -0.0033
32691W        W75608  29.867   5.164  25.673 -0.3348 -0.4466 -0.0093
32692W        W75609  29.711   3.627  23.032 -0.1786 -0.0824 -0.4971
32693W        W75610  31.142   5.594  23.227  0.1661 -0.2945  0.0457
32694W        W75611  33.687   5.899  20.049 -0.1287 -0.1684  0.0382
32695W        W75612  31.507   8.048  20.482  0.2534 -0.0176  0.3026
32696W        W75613  30.922   4.399  23.257  0.1040 -0.3040  0.0666
32697W        W75614  30.713   6.891  24.185  0.1744  0.3525 -0.0363
32698W        W75615  30.809   1.558  22.814  0.1053 -0.1312 -0.2371
32699W        W75616  31.416   3.930  20.607  0.2145 -0.0417  0.1010
32700W        W75617  29.095   6.170  23.623 -0.0974  0.2791 -0.0447
32701W        W75618  31.786   7.724  21.686 -0.1932 -0.0900 -0.3277
32702W        W75619  33.893   1.729  22.350  0.1951 -0.0869 -0.0881
32703W        W75620  33.224   7.242  20.772  0.2057 -0.1874 -0.2100
32704W        W75621  28.472   2.356  24.316  0.0527  0.0381  0.0691
32705W        W75622  30.364   5.570  24.785  0.1732 -0.1164 -0.2397
32706W        W75623  31.143   6.114  23.158 -0.3474  0.2206 -0.2877
32707W        W75624  31.695   2.312  24.266  0.2777 -0.0306  0.0407
32708W        W75625  32.329   4.695  21.352  0.1392 -0.2853 -0.3685
32709W        W75626  31.554   7.106  19.967 -0.0666 -0.0416 -0.0115
32710W        W75627  28.185   5.692  22.664  0.2205  0.2746 -0.1576
32711W        W75628  31.207   4.754  20.673  0.2030  0.0860  0.3550
32712W        W75629  31.160   4.687  22.378  0.2168  0.2056 -0.0399
32713W        W75630  31.937   4.530  22.060 -0.1415  0.0857 -0.1813
32714W        W75631  31.649   6.795  23.793  0.4055  0.0563  0.2655
32715W        W75632  29.312   7.333  20.017 -0.0810  0.1869 -0.0370
32716W        W75633  32.476   5.220  20.433  0.1206  0.0258  0.1095
32717W        W75634  31.535   9.127  23.081  0.3481  0.2915  0.3008
32718W        W75635  32.773   6.873  22.495  0.3781  0.0261 -0.1818
32719W        W75636  30.353   8.032  22.912 -0.1195  0.0679  0.2077
32720W        W75637  34.342   5.489  22.260  0.0968  0.1642  0.1476
32721W        W75638  27.587   4.088  24.956 -0.1334  0.0287 -0.0617
32722W        W75639  29.084   6.696  20.864  0.1264  0.0890  0.2186
32723W        W75640  31.286   6.059  22.596  0.0251  0.1969  0.0275
32724W        W75641  32.451   3.843  22.351  0.1102  0.2227 -0.1404
32725W        W75642  27.773   4.144  21.162  0.2157 -0.1234 -0.0286
32726W        W75643  30.617   2.941  21.047 -0.1348 -0.0171  0.1315
32727W        W75644  31.717   6.748  23.300 -0.0933 -0.0334 -0.4683
32728W        W75645  30.277   5.810  22.511  0.1427 -0.0507 -0.1863
32729W        W75646  30.266   5.351  28.247  0.1061 -0.1633 -0.2818
32730W        W75647  30.648   6.350  25.882 -0.0143 -0.0593 -0.0822
32731W        W75648  32.244   4.294  23.047 -0.1546  0.0022  0.1902
32732W        W75649  32.633   6.441  27.100  0.1818  0.1680 -0.0016
32733W        W75650  28.482   3.168  25.883 -0.0901  0.0045 -0.1520
32734W        W75651  32.132   7.442  24.912 -0.0717 -0.1651  0.1490
32735W        W75652  32.000   2.537  26.541 -0.0997 -0.2389  0.1667
32736W        W75653  31.021   6.928  27.860 -0.0830 -0.2589 -0.1347
32737W        W75654  31.022   7.051  27.389  0.0472 -0.1137  0.1350
32738W        W75655  29.562   6.588  23.867  0.3866  0.1286  0.2640
32739W        W75656  28.886   3.312  28.135 -0.0403  0.0040 -0.0998
32740W        W75657  29.788   6.081  27.298 -0.1540  0.2049  0.0043
32741W        W75658  31.653   4.066  26.892 -0.0077 -0.2222 -0.2113
32742W        W75659  29.873   2.958  25.344 -0.1784  0.1937  0.0148
32743W        W75660  31.507   6.095  27.590  0.4059 -0.1432 -0.2177
32744W        W75661  31.693   5.429  25.406  0.1572 -0.0100 -0.1991
32745W        W75662  30.197   2.870  26.742 -0.1139 -0.3372 -0.1749
32746W        W75663  31.531   5.740  23.946  0.1765 -0.0567 -0.1650
32747W        W75664  31.772   6.494  26.700  0.1163  0.4614  0.0889
32748W        W75665  31.342   3.083  26.856 -0.0204  0.1153  0.1807
32749W        W75666  30.223   2.136  25.728 -0.1384  0.1838  0.1715
32750W        W75667  29.844   5.667  24.655 -0.1867 -0.2549  0.1045
32751W        W75668  31.140   6.266  25.470 -0.3485 -0.2359 -0.0846
32752W        W75669  30.731   4.836  25.332 -0.0071  0.0121 -0.1677
32753W        W75670  31.664   4.653  28.058 -0.1122 -0.2316  0.2450
32754W        W75671  31.984   4.892  25.728 -0.0684 -0.0607 -0.1078
32755W        W75672  33.605   4.589  26.894  0.1328  0.0579 -0.0410
32756W        W75673  29.234   7.610  26.150 -0.0909  0.0478  0.0969
32757W        W75674  31.871   7.950  26.843 -0.2744  0.1051 -0.0981
32758W        W75675  32.483   5.061  28.901  0.3043  0.3148 -0.0250
32759W        W75676  31.121   6.265  27.287 -0.0474  0.4426 -0.0906
32760W        W75677  28.644   6.349  26.111 -0.1590  0.1558 -0.1151
32761W        W75678  31.109   6.991  23.726 -0.2129 -0.0491 -0.1243
32762W        W75679  33.586   5.910  22.926  0.2109  0.2182 -0.3586
32763W        W75680  33.160   6.619  26.914  0.1855  0.0745 -0.2605
32764W        W75681  30.794   5.457  28.881  0.0452 -0.0366  0.0523
32765W        W75682  29.853   6.897  27.900 -0.4781  0.2444  0.0713
32766W        W75683  30.566   5.684  27.396  0.1106  0.2614  0.2527
32767W        W75684  30.277   7.127  30.227  0.4298 -0.1361  0.0648
32768W        W75685  32.560   5.556  25.942  0.2511 -0.0849 -0.1879
32769W        W75686  31.357   5.247  23.643 -0.2448  0.1434  0.2307
32770W        W75687  29.333   6.258  25.437 -0.1367 -0.0226 -0.2441
32771W        W75688  32.095   6.688  27.057 -0.1133  0.1435 -0.2633
32772W        W75689  31.519   7.131  27.683 -0.2041  0.2088 -0.0469
32773W        W75690  29.291   5.105  25.963  0.0412 -0.1225 -0.0085
32774W        W75691  32.609   4.788  26.962 -0.2493 -0.1808  0.0744
32775W        W75692  30.935   5.787  25.193  0.0582 -0.3117 -0.0883
32776W        W75693  30.844   5.479  23.598  0.3255 -0.2422  0.0744
32777W        W75694  29.164   4.675  24.145  0.0089 -0.1550  0.0691
32778W        W75695  32.922   6.047  23.603  0.0813  0.1571 -0.1074
32779W        W75696  31.520   5.069  24.079  0.0302  0.0689  0.0163
32780W        W75697  29.163   6.017  27.365 -0.1482  0.0059  0.0273
32781W        W75698  30.950   3.824  25.648  0.0274 -0.0145 -0.1836
32782W        W75699  30.794   5.260  27.120 -0.2212  0.0803 -0.1471
32783W        W75700  31.956   5.093  23.290 -0.2003  0.1529  0.2651
32784W        W75701  31.732   4.470  27.135 -0.0887 -0.0448  0.0974
32785W        W75702  28.941   7.086  27.076 -0.0894 -0.3282 -0.1266
32786W        W75703  30.819   5.956  25.662 -0.0218 -0.1190 -0.2561
32787W        W75704  31.837   5.595  21.193  0.2121 -0.0600  0.0721
32788W        W75705  31.175   5.594  26.031  0.1899 -0.4125 -0.2890
32789W        W75706  32.521   5.764  22.887 -0.0389 -0.0256 -0.1092
32790W        W75707  29.775   6.047  25.659 -0.1451  0.3466  0.0701
32791W        W75708  29.625   5.770  28.008 -0.0810  0.0991 -0.0608
32792W        W75709  29.327   2.083  29.271 -0.0234 -0.0018  0.1326
32793W        W75710  30.151   3.125  23.932 -0.1841  0.1158  0.0384
32794W        W75711  34.077   6.096  26.183 -0.0056  0.0472 -0.2127
32795W        W75712  30.393   4.121  28.533  0.3540  0.0539 -0.2780
32796W        W75713  34.347   5.563  24.981  0.0386 -0.0109  0.3216
32797W        W75714  32.289   5.269  24.575 -0.1553  0.0593 -0.2340
32798W        W75715  33.562   5.547  28.477 -0.0611 -0.0781  0.0613
32799W        W75716  33.259   6.901  22.553  0.1944 -0.1625 -0.1717
32800W        W75717  33.540   4.321  25.671  0.3194  0.1945  0.0235
32801W        W75718  32.598   4.999  27.460 -0.1388 -0.0904  0.0143
32802W        W75719  29.248   4.913  24.774 -0.3032  0.1348 -0.0882
32803W        W75720  30.736   5.419  26.195  0.0532 -0.0368 -0.1914
32804W        W75721  32.748   7.126  27.674  0.0653 -0.3158 -0.0598
32805W        W75722  32.070   4.520  23.403  0.1015  0.1281  0.0337
32806W        W75723  30.155   4.359  27.908  0.0147  0.2153  0.1583
32807W        W75724  29.896   4.121  28.267 -0.1280  0.5402 -0.0972
32808W        W75725  31.461   5.697  27.910  0.3704  0.2359  0.3244
32809W        W75726  30.435   4.259  23.391  0.1092 -0.1615 -0.2440
32810W        W75727  30.388   5.102  25.643 -0.1374 -0.0059  0.1060
32811W        W75728  31.487   3.549  23.086  0.0239  0.1220 -0.1312
32812W        W75729  27.974   2.736  24.897 -0.3217 -0.0775  0.1384
32813W        W75730  31.122   6.340  27.808  0.0782 -0.2665  0.2211
32814W        W75731  30.604   4.481  25.873 -0.3630  0.0214  0.1236
32815W        W75732  29.454   6.137  24.923  0.1782  0.0804  0.1041
32816W        W75733  31.630   2.296  27.577  0.1136  0.0119 -0.1463
32817W        W75734  31.542   3.606  26.662 -0.0137  0.0591  0.0257
32818W        W75735  32.307   8.320  23.569 -0.0513 -0.3232 -0.0480
32819W        W75736  31.143   5.919  23.630 -0.0840 -0.0150  0.1590
32820W        W75737  32.166   7.271  24.008  0.0390  0.0490  0.3622
32821W        W75738  32.340   4.521  26.559 -0.1167 -0.0336 -0.0857
32822W        W75739  30.539   5.336  25.201 -0.0437 -0.2816 -0.0110
32823W        W75740  30.875   4.972  28.831 -0.1405 -0.1935  0.2441
32824W        W75741  30.018   2.092  26.231  0.0275  0.0169  0.0638
32825W        W75742  32.376   6.601  29.041 -0.0668  0.1691 -0.2433
32826W        W75743  30.107   3.778  25.854 -0.3473 -0.2559 -0.1499
32827W        W75744  32.339   5.597  25.264  0.1721 -0.2419  0.0766
32828W        W75745  30.750   3.791  24.141  0.1061  0.1119  0.2111
32829W        W75746  30.182   5.912  25.096  0.0171  0.2842  0.1264
32830W        W75747  32.143   5.199  27.712  0.1947 -0.1417  0.2589
32831W        W75748  32.820   8.558  24.929 -0.2402  0.1114 -0.0427
32832W        W75749  33.468   7.367  26.447 -0.0487 -0.3905 -0.2084
32833W        W75750  32.739   5.922  25.016  0.1020  0.3112 -0.0312
32834W        W75751  30.499   2.862  28.118  0.0090 -0.1735  0.2206
32835W        W75752  30.078   4.415  24.052  0.2130  0.0907  0.3486
32836W        W75753  30.981   7.182  25.610 -0.0027 -0.1676 -0.0615
32837W        W75754  31.611   5.881  26.887  0.1108  0.3879 -0.0975
32838W        W75755  30.627   5.936  23.902 -0.1486  0.2968  0.2910
32839W        W75756  31.631   6.840  27.094 -0.1673 -0.0638  0.3034
32840W        W75757  32.012   5.615  26.186 -0.1034 -0.1939  0.2051
32841W        W75758  30.756   7.965  28.377  0.1990 -0.2245  0.0331
32842W        W75759  30.905   3.776  27.946 -0.3265  0.0806 -0.3820
32843W        W75760  31.076   5.366  27.520 -0.1474  0.1828 -0.0919
32844W        W75761  32.716   4.412  25.488  0.0865 -0.0894  0.2318
32845W        W75762  29.478   3.459  24.007 -0.0618 -0.1417 -0.1293
32846W        W75763  32.075   6.767  24.833 -0.0603 -0.1030  0.0900
32847W        W75764  29.287   5.840  25.763 -0.0114  0.3154  0.2053
32848W        W75765  28.351   4.333  23.774  0.0168  0.0484 -0.0584
32849W        W75766  30.410   6.209  26.282 -0.1232 -0.1920 -0.0160
32850W        W75767  29.009   5.546  26.646 -0.1769 -0.1116  0.2423
32851W        W75768  29.294   5.364  28.292 -0.0199  0.0450  0.3431
32852W        W75769  31.560   4.943  27.227  0.0963 -0.0050 -0.2118
32853W        W75770  30.190   4.919  25.201 -0.1977  0.2545  0.0841
32854W        W75771  29.042   6.154  28.672 -0.0445 -0.0209  0.0207
32855W        W75772  31.118   5.299  25.321  0.3025 -0.1760  0.0370
32856W        W75773  33.497   6.112  22.488  0.0764  0.2370  0.1464
32857W        W75774  30.703   6.702  27.526  0.2263 -0.1802  0.0831
32858W        W75775  33.065   6.492  22.789  0.3397  0.0120 -0.2547
32859W        W75776  33.511   4.772  23.512  0.0818 -0.1191 -0.1506
32860W        W75777  31.655   3.640  21.600 -0.1745 -0.1256  0.0144
32861W        W75778  30.116   6.841  28.342  0.2449 -0.3684 -0.2080
32862W        W75779  30.875   7.926  26.083  0.1278  0.0288  0.1017
32863W        W75780  29.673   4.139  27.817  0.2344  0.0986  0.0240
32864W        W75781  31.292   4.684  22.846  0.2427  0.1990 -0.1538
32865W        W75782  33.430   6.913  23.448 -0.0945 -0.0802  0.2520
32866W        W75783  29.140   3.555  26.907  0.1573 -0.1124  0.0662
32867W        W75784   0.164   7.216  28.311 -0.1329 -0.1006  0.1862
32868W        W75785  33.689   6.475  26.183 -0.0683  0.0041  0.1922
32869W        W75786  31.351   3.569  27.636  0.3982  0.0059  0.1334
32870W        W75787  31.381   5.410  24.523 -0.0835  0.1373  0.1026
32871W        W75788  29.841   5.437  26.449 -0.1300 -0.0356 -0.0612
32872W        W75789  29.123   3.723  24.821  0.2129  0.1587  0.1356
32873W        W75790  32.942   4.787  25.677 -0.1952 -0.1858  0.1849
32874W        W75791  30.075   3.464  25.124  0.0122 -0.2243  0.1922
32875W        W75792  30.646   4.900  26.301 -0.3829  0.0063  0.2433
32876W        W75793  32.700   3.791  27.678  0.0203 -0.2552  0.3337
32877W        W75794  31.537   4.760  25.931 -0.3809 -0.0118 -0.1005
32878W        W75795  30.167   5.318  26.855  0.0239 -0.1661 -0.1724
32879W        W75796  31.255   4.863  24.493 -0.0240 -0.2836 -0.2949
32880W        W75797  31.040   4.876  27.282  0.3356  0.1611  0.0486
32881W        W75798  28.293   3.534  28.016 -0.1064  0.0748  0.4465
32882W        W75799  29.346   6.848  26.923  0.0715 -0.5299 -0.2208
32883W        W75800  32.224   7.239  28.296  0.0668 -0.0147 -0.0384
32884W        W75801  31.640   4.619  24.251 -0.1963  0.1563 -0.3209
32885W        W75802  32.779   4.910  29.439  0.0084 -0.0609  0.3953
32886W        W75803  31.844   5.521  23.617 -0.0757 -0.2991  0.0167
32887W        W75804  29.072   6.415  26.348  0.0942  0.1320  0.0652
32888W        W75805  32.664   5.528  23.736 -0.1483  0.2072 -0.0583
32889W        W75806  33.644   2.852  27.961 -0.1147  0.2801  0.1760
32890W        W75807  31.976   4.480  23.905  0.2934 -0.1948  0.0933
32891W        W75808  29.750   7.478  24.024  0.3390 -0.2203 -0.2261
32892W        W75809  30.139   4.567  28.449  0.2867 -0.2840  0.2374
32893W        W75810  31.737   6.395  24.185  0.0352  0.0375  0.0993
32894W        W75811  32.610   3.713  28.421 -0.1750  0.0866  0.0639
32895W        W75812  30.702   7.243  26.736  0.1711  0.1678 -0.0804
32896W        W75813  28.553   4.096  23.300  0.2630 -0.2881 -0.0034
32897W        W75814  29.728   3.222  24.824  0.0295  0.0134 -0.0671
32898W        W75815  31.181   4.010  26.858  0.1044 -0.2445 -0.3643
32899W        W75816  32.309   7.758  23.782 -0.1302  0.0598  0.0701
32900W        W75817  29.180   3.637  25.907  0.0389  0.1412  0.1164
32901W        W75818  30.501   3.165  26.360 -0.1078 -0.1808  0.1357
32902W        W75819  29.499   8.039  27.718  0.1295 -0.1996  0.0635
32903W        W75820  32.216   6.350  27.937  0.0591 -0.0376 -0.1947
32904W        W75821  32.778   6.120  21.550  0.0350  0.0678  0.0282
32905W        W75822  31.963   5.797  27.811 -0.1408  0.1545  0.4929
32906W        W75823  29.382   5.244  26.454 -0.2435 -0.2670 -0.0508
32907W        W75824  29.321   3.586  23.420  0.1041 -0.1492  0.0621
32908W        W75825  33.640   5.170  25.557  0.2261 -0.2295 -0.1498
32909W        W75826  29.405   3.792  26.328  0.0811 -0.1632  0.3636
32910W        W75827  31.241   7.137  26.965 -0.0994  0.0340  0.2491
32911W        W75828  29.413   6.839  28.349  0.2531  0.0136  0.3374
32912W        W75829  32.466   5.522  24.209  0.1794  0.0504  0.0520
32913W        W75830  29.356   7.564  25.673 -0.0759 -0.0620  0.0763
32914W        W75831  29.785   3.885  29.577  0.2617  0.0756  0.1286
32915W        W75832  33.817   6.553  28.569  0.0950  0.0640 -0.0056
32916W        W75833  31.506   3.840  25.740  0.2526  0.0298  0.1802
32917W        W75834  31.088   5.524  24.078  0.0669 -0.1036  0.2651
32918W        W75835  32.727   4.976  24.699  0.0599  0.0222  0.2535
32919W        W75836  33.421   5.222  26.044 -0.0574 -0.0633  0.2128
32920W        W75837  31.420   4.604  27.630  0.1064 -0.0943  0.3803
32921W        W75838  28.967   6.899  28.086  0.0531 -0.0774  0.0704
32922W        W75839  33.210   3.844  26.588 -0.1052 -0.0261  0.1246
32923W        W75840  31.788   5.950  22.560 -0.0310  0.2366 -0.1424
32924W        W75841  31.590   4.914  28.673 -0.2633 -0.0317 -0.1324
32925W        W75842  30.455   4.879  27.006 -0.1054  0.2383 -0.1128
32926W        W75843  28.574   3.793  26.901  0.2264 -0.4122  0.0644
32927W        W75844  31.081   6.064  26.842  0.1476 -0.0569  0.0619
32928W        W75845  28.666   4.575  26.281  0.1144  0.2840 -0.1905
32929W        W75846  29.147   5.637  29.691  0.1094 -0.3633 -0.1363
32930W        W75847  30.329   5.593  26.457 -0.1137  0.1701 -0.2808
32931W        W75848  30.892   5.185  24.419  0.0063 -0.1814 -0.0635
32932W        W75849  32.135   3.752  24.293  0.2720  0.2672  0.0806
32933W        W75850  33.266   6.436  23.659 -0.2208  0.2950 -0.0349
32934W        W75851  31.919   5.274  27.256  0.0442  0.0979  0.0284
32935W        W75852  32.283   3.286  26.649 -0.0955  0.3234  0.0392
32936W        W75853  32.690   6.160  23.168  0.1448  0.0039  0.3672
32937W        W75854  30.897   4.384  27.104 -0.1112 -0.1313 -0.2475
32938W        W75855  29.241   4.335  25.549 -0.0156  0.0794  0.3100
32939W        W75856  31.304   5.725  25.555 -0.0693 -0.0695  0.2583
32940W        W75857  31.378   5.023  28.191  0.1978 -0.1272  0.1714
32941W        W75858  30.801   7.969  28.901  0.2003 -0.2928 -0.2339
32942W        W75859  31.044   3.313  27.870  0.0102  0.0233  0.2901
32943W        W75860  31.870   4.290  26.498  0.2903 -0.1644 -0.1669
32944W        W75861  31.764   3.917  25.309  0.1308 -0.2057 -0.1032
32945W        W75862  31.274   7.526  25.294 -0.1849  0.0385  0.0847
32946W        W75863  32.971   6.696  25.019  0.2814 -0.1697  0.0206
32947W        W75864  30.313   6.485  24.972  0.1774  0.1305 -0.1314
32948W        W75865  31.996   6.369  25.180 -0.1357 -0.0007 -0.2357
32949W        W75866  30.351   5.753  26.021  0.0673  0.0321 -0.0307
32950W        W75867  34.494   6.844  26.267 -0.0935  0.3150 -0.3080
32951W        W75868  31.963   2.916  23.400 -0.0664  0.0436 -0.1383
32952W        W75869  29.514   6.489  24.550  0.1202  0.3336 -0.1584
32953W        W75870  29.529   2.597  28.262 -0.0778 -0.0417 -0.0191
32954W        W75871  32.084   4.889  24.204  0.0912  0.2278  0.1879
32955W        W75872  30.254   4.347  25.474 -0.1057  0.1461 -0.0272
32956W        W75873  31.787   3.052  28.765  0.1496  0.2681  0.0559
32957W        W75874  32.306   4.625  28.422  0.0243 -0.2894  0.1046
32958W        W75875  31.205   5.598  29.225  0.0638 -0.1403  0.2290
32959W        W75876  29.168   2.857  27.169  0.1451 -0.0424 -0.1134
32960W        W75877  31.398   7.868  27.041 -0.2364  0.2621 -0.0958
32961W        W75878  32.406   6.170  25.423  0.1233 -0.2261 -0.0348
32962W        W75879  33.660   5.216  24.715  0.0573  0.0250 -0.0729
32963W        W75880  32.102   4.401  24.985 -0.0503  0.2750 -0.4828
32964W        W75881  30.708   2.439  24.713 -0.1487  0.1053  0.2204
32965W        W75882  31.162   5.105  26.327 -0.0667 -0.1179  0.0097
32966W        W75883   0.176   7.264  28.944  0.2910  0.0338 -0.3197
32967W        W75884  30.838   4.639  24.623  0.2123  0.0876 -0.2370
32968W        W75885  32.319   3.277  29.416 -0.0865 -0.3500  0.2602
32969W        W75886  30.919   5.065  23.940 -0.3756 -0.0984  0.2381
32970W        W75887  31.169   6.897  26.479  0.3319 -0.0137  0.0845
32971W        W75888  32.124   5.050  22.222  0.0116 -0.2736  0.1040
32972W        W75889  29.520   3.924  26.965 -0.4360 -0.1181  0.0057
32973W        W75890  30.860   6.383  29.032  0.1053  0.0503 -0.1139
32974W        W75891  29.296   2.643  23.858 -0.0129 -0.0291 -0.2010
32975W        W75892  30.546   6.193  22.626  0.1535  0.1712 -0.3134
32976W        W75893  33.767   7.324  27.283 -0.1287 -0.2235  0.0091
32977W        W75894  32.642   6.437  27.718 -0.2115  0.0329 -0.0728
32978W        W75895  30.156   2.760  24.483  0.2350  0.2214  0.1180
32979W        W75896  31.680   3.843  27.341 -0.2113 -0.1396 -0.1030
32980W        W75897  31.643   6.336  25.611 -0.1445 -0.1693 -0.0831
32981W        W75898  30.573   5.292  27.865 -0.0827 -0.0383  0.0087
32982W        W75899  30.608   7.182  27.710  0.0814  0.2785  0.2786
32983W        W75900  29.791   6.578  26.949  0.2711 -0.0975  0.0203
32984W        W75901  31.520   6.588  26.190  0.2408 -0.2772  0.0755
32985W        W75902  30.703   2.740  26.454 -0.1470 -0.1160 -0.1114
32986W        W75903  33.712   4.882  27.751 -0.1226 -0.0241 -0.2219
32987W        W75904  30.960   4.274  24.957 -0.1152 -0.1730  0.1283
32988W        W75905  32.911   5.825  27.680 -0.1021  0.1289  0.1516
32989W        W75906  31.374   6.412  29.093 -0.1462 -0.2148  0.1545
32990W        W75907  31.543   5.927  24.397 -0.2996 -0.4127  0.0594
32991W        W75908  30.007   6.993  29.293 -0.0259  0.0738 -0.1625
32992W        W75909  32.969   5.569  24.192  0.1868  0.2476  0.1286
32993W        W75910  31.071   5.499  26.646  0.2999  0.2734 -0.1329
32994W        W75911  30.466   3.881  27.218  0.0010  0.1030 -0.1745
32995W        W75912  30.931   4.400  27.604 -0.0333 -0.1109 -0.1050
32996W        W75913  33.086   4.739  26.774  0.2039 -0.0512  0.2757
32997W        W75914  29.363   3.289  27.296 -0.0314 -0.0515  0.0786
32998W        W75915  30.818   6.341  23.714 -0.2314  0.0101  0.0650
32999W        W75916  31.914   6.982  28.741 -0.1412  0.0893  0.1924
33000W        W75917  28.744   4.405  25.386  0.2633  0.1119  0.0847
33001W        W75918  28.355   8.165  24.969 -0.0626  0.1560 -0.1396
33002W        W75919  31.721   4.392  25.445 -0.2531  0.3488  0.0000
33003W        W75920  32.928   5.383  25.061  0.2216 -0.2508  0.1239
33004W        W75921  32.083   5.894  24.368  0.1016  0.2816  0.1137
33005W        W75922  32.110   2.822  22.873  0.2127 -0.0068  0.1295
33006W        W75923  28.599   6.741  28.336 -0.1368  0.0287  0.1164
33007W        W75924  30.341   6.608  25.473 -0.1494  0.1005  0.2833
33008W        W75925  30.898   6.511  26.462 -0.1173 -0.0923  0.0125
33009W        W75926  29.811   7.090  27.201 -0.2078  0.0094  0.1817
33010W        W75927   0.315   7.847  29.126  0.0253 -0.2256  0.2941
33011W        W75928  33.568   4.791  24.377 -0.0980  0.5061  0.3362
33012W        W75929  31.733   4.157  28.018  0.0171  0.2118  0.0299
33013W        W75930  33.291   5.044  25.138  0.0808  0.2673  0.1209
33014W        W75931  33.386   6.365  28.631  0.0361 -0.0413  0.0659
33015W        W75932  31.952   4.746  27.573  0.3550 -0.1277 -0.0939
33016W        W75933  30.859   3.767  22.448  0.0260 -0.0817  0.0238
33017W        W75934  30.213   5.267  29.221 -0.0603  0.2906 -0.1000
33018W        W75935  33.111   3.181  27.304 -0.1903 -0.0659  0.1924
33019W        W75936  30.839   6.592  28.189 -0.3386 -0.2857  0.2905
33020W        W75937  32.866   6.474  24.561  0.0171 -0.1427 -0.0662
33021W        W75938  30.888   3.738  25.175 -0.0570 -0.1021  0.1564
33022W        W75939  31.208   3.738  24.371  0.2218  0.1095 -0.0237
33023W        W75940  31.310   4.210  27.271  0.1730 -0.1053 -0.0953
33024W        W75941  32.164   6.475  23.387  0.0772 -0.1464 -0.2620
33025W        W75942  31.034   4.656  25.686  0.3152 -0.2041 -0.2449
33026W        W75943  29.436   7.132  26.239 -0.0828 -0.1056 -0.2134
33027W        W75944  31.237   4.714  25.248 -0.2283  0.1954  0.1632
33028W        W75945  31.393   7.470  27.334 -0.0135  0.1269 -0.0228
33029W        W75946  30.468   4.424  24.902 -0.2371 -0.0165 -0.1703
33030W        W75947  32.366   4.764  25.399  0.1489  0.1063  0.1403
33031W        W75948  30.703   3.465  29.010  0.0855  0.1065 -0.2670
33032W        W75949  32.025   3.898  25.750  0.3143 -0.1573  0.0711
33033W        W75950  31.500   5.005  25.501  0.1008 -0.1861  0.0738
33034W        W75951  31.804   4.102  24.142 -0.0434  0.1408 -0.4139
33035W        W75952  32.209   4.196  26.961 -0.3678  0.2387 -0.2131
33036W        W75953  29.809   4.408  26.925 -0.2422  0.2008  0.0046
33037W        W75954  31.329   4.526  23.700 -0.0966 -0.1691 -0.0744
33038W        W75955  31.568   5.680  28.419  0.0317  0.5696  0.0273
33039W        W75956  30.989   4.959  23.366 -0.0156  0.0244 -0.1452
33040W        W75957  30.918   5.803  27.727  0.0543 -0.0162  0.2755
33041W        W75958  31.010   4.504  24.125  0.1385  0.1671  0.3141
33042W        W75959  32.273   5.207  23.807 -0.1028 -0.1036 -0.1185
33043W        W75960  30.670   5.882  23.405  0.1177  0.1918  0.2995
33044W        W75961  29.843   3.960  26.241  0.0633 -0.0664  0.1358
33045W        W75962  31.772   6.519  27.618  0.0854 -0.2590 -0.1040
33046W        W75963  28.717   2.808  24.300 -0.1353  0.0177 -0.0445
33047W        W75964  31.943   5.479  24.955  0.2516  0.0028  0.0146
33048W        W75965  33.961   5.666  28.078  0.0134  0.0454  0.0885
33049W        W75966  31.887   9.286  24.228  0.0601 -0.0626  0.2471
33050W        W75967  33.731   5.962  25.257 -0.0442  0.1567  0.0368
33051W        W75968  30.556   6.883  25.863 -0.1521  0.0997  0.2096
33052W        W75969  29.607   4.501  24.865 -0.0039  0.3699 -0.0288
33053W        W75970  33.251   7.158  27.452 -0.1727 -0.0018 -0.0135
33054W        W75971  34.302   6.665  28.203  0.1488 -0.0568  0.0217
33055W        W75972  31.934   3.222  23.856 -0.2223  0.3828 -0.0155
33056W        W75973  32.438   3.642  25.440  0.0167 -0.1083  0.2773
33057W        W75974  30.221   7.142  22.865 -0.1208 -0.1020 -0.0879
33058W        W75975  32.240   4.153  26.199 -0.1471 -0.2470  0.0197
33059W        W75976  32.902   2.721  27.118 -0.1119 -0.2188 -0.0607
33060W        W75977  31.290   4.555  21.926 -0.3112  0.1317  0.0098
33061W        W75978  32.599   2.389  27.741  0.0411 -0.0408 -0.1244
33062W        W75979  31.238   7.609  25.868 -0.2012 -0.1121 -0.3410
33063W        W75980  29.925   6.575  29.478 -0.0587 -0.1322  0.1174
33064W        W75981  30.739   5.497  25.704  0.3035 -0.1226 -0.0759
33065W        W75982  30.073   5.442  27.799 -0.0313 -0.3268  0.0161
33066W        W75983  30.683   6.057  28.091 -0.4186 -0.0320 -0.0574
33067W        W75984  31.568   7.193  24.099  0.0011 -0.2687 -0.0498
33068W        W75985  31.641   7.277  25.651  0.1674  0.0523  0.0298
33069W        W75986  31.446   6.365  23.550 -0.0773 -0.0859 -0.2149
33070W        W75987  32.152   6.149  26.974 -0.3094 -0.1698  0.1458
33071W        W75988  30.246   3.243  27.236  0.1716  0.3908 -0.0595
33072W        W75989  31.989   2.577  26.037  0.1481 -0.0800  0.2463
33073W        W75990  32.410   2.978  24.684 -0.1998 -0.2707 -0.0297
33074W        W75991  29.462   4.664  27.762 -0.1341 -0.1001  0.0049
33075W        W75992  31.134   5.922  24.698 -0.2259 -0.2297  0.0103
33076W        W75993  29.964   6.204  24.641  0.1898  0.0125  0.1900
33077W        W75994  31.504   6.072  26.416 -0.1068  0.0894  0.2828
33078W        W75995  30.148   3.356  28.328  0.2403 -0.2069 -0.0331
33079W        W75996  30.635   2.982  25.933  0.1148 -0.1349  0.1621
33080W        W75997  30.001   6.457  26.541  0.0963 -0.0755  0.1765
33081W        W75998  30.931   5.508  24.786  0.0579 -0.0309 -0.0063
33082W        W75999  32.466   6.830  23.627  0.2150  0.0355  0.2204
33083W        W76000  29.238   4.641  25.165 -0.0655 -0.3707  0.3915
33084W        W76001  29.731   4.988  26.197 -0.0082 -0.2222  0.0325
33085W        W76002  32.241   7.403  27.781 -0.0131  0.2208 -0.2082
33086W        W76003  32.234   6.975  23.158  0.1194  0.1053  0.1934
33087W        W76004  30.517   5.006  24.803  0.2194  0.0707 -0.1615
33088W        W76005  30.439   7.988  29.860 -0.3554  0.1560  0.2135
33089W        W76006  30.084   7.253  24.511 -0.0395  0.1732 -0.0259
33090W        W76007  32.997   5.036  28.931 -0.1976  0.0830  0.1263
33091W        W76008  30.865   3.886  26.323  0.3278  0.2082 -0.1415
33092W        W76009  30.064   4.173  24.652 -0.0780  0.1702 -0.0731
33093W        W76010  31.757   5.110  26.324 -0.0959  0.1078 -0.0022
33094W        W76011  32.487   6.006  27.369  0.2150  0.2754 -0.2225
33095W        W76012  32.330   6.702  25.331  0.0852  0.3414 -0.0082
33096W        W76013  30.093   5.904  27.679  0.0478 -0.2490 -0.0819
33097W        W76014  31.079   5.762  27.257  0.0748 -0.0619 -0.0258
33098W        W76015  29.730   3.595  26.611  0.2083 -0.0680 -0.1985
33099W        W76016  31.332   4.187  23.158 -0.1650  0.2026 -0.2128
33100W        W76017  31.320   6.713  27.485  0.1059  0.1438 -0.0581
33101W        W76018  31.263   4.284  24.536 -0.1851 -0.0467 -0.0336
33102W        W76019  32.778   4.370  26.623 -0.1605  0.0004 -0.0468
33103W        W76020  30.562   4.843  24.230 -0.2439  0.0270  0.3763
33104W        W76021  26.714   4.665  27.253  0.1501 -0.0940  0.0028
33105W        W76022  29.100   5.948  28.206 -0.1231 -0.1164 -0.1446
33106W        W76023  34.407   5.152  26.158 -0.2687 -0.2829 -0.1346
33107W        W76024  29.468   5.778  26.420  0.1425 -0.1480 -0.0784
33108W        W76025  31.288   5.289  27.013  0.0755 -0.0402  0.0731
33109W        W76026  31.742   7.773  25.770  0.0470  0.1858  0.0682
33110W        W76027  29.691   5.162  28.081 -0.2268  0.0400  0.0995
33111W        W76028  29.685   3.697  24.366  0.2802 -0.1131 -0.2012
33112W        W76029  32.526   5.476  27.510 -0.1771 -0.4499  0.0903
33113W        W76030  29.979   5.849  26.794 -0.1851 -0.1445 -0.0798
33114W        W76031  32.425   5.817  29.494  0.1331  0.3497  0.1953
33115W        W76032  30.532   4.717  27.735  0.3296 -0.4407  0.1241
33116W        W76033  31.631   4.620  24.803 -0.0202  0.2377 -0.4180
33117W        W76034  30.611   5.761  26.858 -0.1483  0.2394 -0.1335
33118W        W76035  33.350   5.787  27.399  0.0031  0.4969 -0.0349
33119W        W76036  31.943   6.894  27.854 -0.4163 -0.0614 -0.2694
33120W        W76037  32.260   5.997  25.892 -0.3244 -0.4073  0.1243
33121W        W76038  29.820   3.192  26.923 -0.0193  0.0079 -0.2049
33122W        W76039  33.554   6.715  28.193  0.2733  0.0915 -0.0111
33123W        W76040  32.070   4.837  27.071 -0.0973  0.2628  0.2622
33124W        W76041  32.261   5.139  26.105 -0.0047  0.0521 -0.0361
33125W        W76042  28.106   5.054  25.555 -0.0058 -0.0289 -0.1283
33126W        W76043  29.855   4.283  25.737  0.0451  0.2322  0.1154
33127W        W76044  29.642   7.475  27.543  0.1940 -0.1165 -0.0310
33128W        W76045  31.663   5.382  25.897 -0.1473  0.1420 -0.1541
33129W        W76046  29.640   7.152   0.701 -0.0683 -0.1428 -0.2299
33130W        W76047  30.302   5.103  28.757 -0.2461  0.0995 -0.2861
33131W        W76048  31.768   4.532  29.097  0.0410 -0.1734 -0.0614
33132W        W76049   0.137   6.162  27.728  0.0744 -0.0305  0.0915
33133W        W76050  30.140   2.748  31.034 -0.0459 -0.1336 -0.2721
33134W        W76051  30.543   4.076  27.716  0.2710 -0.1732  0.1269
33135W        W76052  29.057   2.659  30.853 -0.0482  0.2342  0.2219
33136W        W76053  33.342   7.068  29.914  0.2746  0.1107 -0.0505
33137W        W76054  33.921   6.103  29.387 -0.0463  0.1389 -0.0231
33138W        W76055  30.320   5.157  27.431  0.0396  0.1648 -0.1511
33139W        W76056  30.490   4.396  31.471 -0.0832 -0.1552 -0.2364
33140W        W76057  32.991   5.176  31.040 -0.2971 -0.0964 -0.0760
33141W        W76058  30.446   4.872  28.203 -0.1286  0.0088 -0.1319
33142W        W76059  29.646   3.487  28.736  0.1417 -0.1917 -0.0799
33143W        W76060  33.806   4.748   0.445  0.0202 -0.0518 -0.2421
33144W        W76061  28.682   3.749  29.630  0.2820 -0.3646 -0.0626
33145W        W76062  30.405   2.351  29.218 -0.0428  0.0929  0.1496
33146W        W76063  32.160   4.236  29.293 -0.0523 -0.0139 -0.2710
33147W        W76064  31.182   5.419  30.010 -0.1188 -0.2722  0.0395
33148W        W76065  32.164   2.850  31.112  0.1681 -0.3261 -0.1304
33149W        W76066  32.645   3.036  31.057 -0.2788 -0.1959  0.1102
33150W        W76067  31.072   6.831  29.046  0.0652 -0.1051 -0.1081
33151W        W76068  29.407   4.001  28.448  0.2246  0.0421 -0.1780
33152W        W76069  27.919   4.401  28.176 -0.1480  0.0076 -0.1101
33153W        W76070  29.044   2.952  30.353  0.2894 -0.0060  0.1641
33154W        W76071  33.295   4.233  30.741  0.1791 -0.0855 -0.1064
33155W        W76072  31.598   6.279  29.563  0.0950  0.0746  0.4548
33156W        W76073  30.632   5.689  31.007 -0.0302 -0.0944 -0.2588
33157W        W76074  31.614   5.393  29.485  0.2446  0.1292  0.4273
33158W        W76075  30.589   4.873  31.721 -0.2687 -0.1794  0.0733
33159W        W76076  30.357   6.577  30.162  0.2350  0.0110 -0.2609
33160W        W76077  29.625   7.669  29.850  0.2714  0.0868  0.2823
33161W        W76078  30.544   7.272  28.774 -0.3027  0.1289 -0.0744
33162W        W76079  33.471   6.566  29.934 -0.3519 -0.0318 -0.1881
33163W        W76080  33.928   6.205  30.891 -0.0498  0.0763 -0.0655
33164W        W76081  30.576   7.497   0.278 -0.1846  0.1457  0.1032
33165W        W76082  29.808   6.660  28.918 -0.0921 -0.1239  0.3619
33166W        W76083  31.946   7.499  30.601 -0.3883  0.0261 -0.2493
33167W        W76084  30.899   4.332  30.087 -0.1179 -0.2175  0.1420
33168W        W76085  32.905   5.271  30.133  0.1231  0.0285 -0.2185
33169W        W76086  31.743   6.208  30.774  0.1355 -0.3421  0.0668
33170W        W76087  31.059   6.284  29.486  0.1410 -0.1728 -0.0988
33171W        W76088  30.661   6.739  28.661 -0.1795  0.4055  0.1356
33172W        W76089  29.953   4.599  30.834 -0.2764 -0.2202 -0.2374
33173W        W76090  30.750   6.964  30.079 -0.0550 -0.2038  0.0542
33174W        W76091  31.339   4.043  31.956  0.2086 -0.0172 -0.2722
33175W        W76092  29.781   5.053  31.183 -0.1049 -0.0896 -0.0214
33176W        W76093  32.013   4.939  29.953 -0.1309  0.2277 -0.0880
33177W        W76094  30.112   4.945  27.817 -0.0911 -0.2412 -0.1546
33178W        W76095  33.040   3.696  29.115  0.2485 -0.1435 -0.0403
33179W        W76096  32.349   3.527  29.908  0.1702 -0.0817 -0.1663
33180W        W76097  31.014   7.760  30.690 -0.1846 -0.2223  0.3059
33181W        W76098  30.398   4.283  30.082 -0.2288 -0.0498 -0.4843
33182W        W76099  31.756   4.952  31.357 -0.0395 -0.0950  0.0986
33183W        W76100  30.211   5.799  29.371  0.1488 -0.2323 -0.2581
33184W        W76101  31.385   5.307  30.562  0.1296  0.0308  0.2191
33185W        W76102  31.095   6.493  31.464  0.0002  0.4531  0.1298
33186W        W76103  29.340   4.855  30.274  0.2766  0.0345 -0.1155
33187W        W76104  33.292   8.039  28.468 -0.2839 -0.0669 -0.0361
33188W        W76105  34.522   7.962  29.587 -0.2256 -0.1096  0.0250
33189W        W76106  33.829   6.544  26.842 -0.0648  0.1568  0.0166
33190W        W76107  28.181   4.794  29.434 -0.0622 -0.0122 -0.2316
33191W        W76108  29.952   5.870  30.968 -0.1654  0.0635  0.0874
33192W        W76109  28.196   5.415  31.298 -0.0973 -0.2804 -0.2182
33193W        W76110  30.589   4.626  28.630 -0.1210  0.1320 -0.0801
33194W        W76111  32.093   5.214  31.100 -0.1880 -0.3768  0.1043
33195W        W76112  30.725   7.102   0.538  0.0982  0.0041  0.0517
33196W        W76113  32.327   3.167  30.675 -0.0605  0.2606  0.1221
33197W        W76114  31.881   5.609  30.770  0.1301 -0.1718 -0.0904
33198W        W76115  33.732   4.385  31.646  0.0667 -0.1756 -0.0742
33199W        W76116  32.035   6.026  28.795  0.3357 -0.0901 -0.0746
33200W        W76117  31.926   3.792  29.894  0.1164 -0.1894  0.0457
33201W        W76118  30.891   2.435  30.107 -0.3399  0.0111  0.2641
33202W        W76119  28.829   5.266  28.162 -0.2271  0.1281 -0.1403
33203W        W76120  28.975   6.590  30.923  0.0596  0.1962  0.0224
33204W        W76121  33.565   6.578  30.613  0.1342 -0.3714  0.0911
33205W        W76122  32.324   6.751  27.546  0.2786 -0.0437 -0.1035
33206W        W76123  30.857   7.294  30.962 -0.0945 -0.3047  0.1330
33207W        W76124  31.689   3.439  30.197 -0.4108  0.2578  0.0400
33208W        W76125  30.643   7.944   0.082 -0.0720 -0.1857 -0.2581
33209W        W76126  31.695   7.238  28.142 -0.1406  0.3464  0.2253
33210W        W76127  29.321   5.416  29.236  0.2161 -0.0093  0.0946
33211W        W76128  28.217   6.708  29.283 -0.0418 -0.2033  0.1187
33212W        W76129  28.301   5.309  29.363  0.0708  0.1579  0.1005
33213W        W76130  31.322   5.338  31.447 -0.5158 -0.1302 -0.4205
33214W        W76131  33.841   3.284  28.149 -0.0484 -0.1009  0.0558
33215W        W76132  29.909   5.949   0.543  0.0172  0.1911 -0.2096
33216W        W76133  33.291   4.729  30.580  0.2287  0.1617 -0.5055
33217W        W76134  30.123   8.431  29.938 -0.1656  0.1658  0.1235
33218W        W76135  31.871   6.928  31.891 -0.0592  0.0335 -0.2436
33219W        W76136  32.553   5.530  28.636  0.2441 -0.3473 -0.3535
33220W        W76137  31.960   7.102  27.396  0.1326  0.1227 -0.1310
33221W        W76138  28.836   3.951  27.931  0.1422 -0.0191 -0.2220
33222W        W76139  28.929   5.591  28.547  0.1015 -0.2916  0.1586
33223W        W76140  31.139   4.166  31.411  0.1211 -0.0833 -0.1908
33224W        W76141  31.314   4.084  30.828  0.3809 -0.0291 -0.1765
33225W        W76142  33.495   5.546  31.436  0.0447  0.1827  0.2893
33226W        W76143  29.209   4.334  27.213  0.3294 -0.1927 -0.0412
33227W        W76144  30.794   4.373  29.202 -0.0353  0.0834  0.1228
33228W        W76145  31.442   6.729  28.081 -0.3197 -0.2061 -0.0112
33229W        W76146  30.660   6.787  29.302 -0.0641  0.1797 -0.2993
33230W        W76147  32.049   4.498  29.756 -0.0286  0.1235 -0.0498
33231W        W76148  31.601   6.332  27.157  0.1660 -0.1703  0.1967
33232W        W76149  31.736   6.660  30.984  0.1135 -0.0837  0.0799
33233W        W76150   0.273   8.703  28.346 -0.1230  0.0134  0.2403
33234W        W76151  29.252   3.934   0.481  0.0611  0.2046  0.0827
33235W        W76152  30.050   5.096  30.773 -0.2528 -0.0170  0.0262
33236W        W76153  29.219   8.674  29.941 -0.0194 -0.0185 -0.1288
33237W        W76154  31.197   5.107  29.578 -0.2130 -0.1641  0.0188
33238W        W76155  28.923   4.537  27.976 -0.0149  0.0903  0.1838
33239W        W76156  33.579   8.686  29.066 -0.0401 -0.0846 -0.3545
33240W        W76157  31.968   4.239  30.151 -0.1306  0.0448  0.2304
33241W        W76158  30.759   6.774  31.176  0.1762 -0.1833 -0.1646
33242W        W76159  31.283   2.335  31.558 -0.1734  0.1154  0.0054
33243W        W76160  33.063   4.935  29.824  0.0232  0.0468 -0.0089
33244W        W76161  33.368   5.376  29.045 -0.0634  0.0881  0.0066
33245W        W76162  29.480   1.927  27.511  0.0950  0.1079 -0.4345
33246W        W76163  34.131   7.797  29.309  0.2502 -0.1426  0.2018
33247W        W76164  30.617   7.137  28.300 -0.1139 -0.2290  0.1109
33248W        W76165  29.282   4.941  29.520  0.1170 -0.0064  0.0193
33249W        W76166  31.965   6.564  30.467  0.0022 -0.3794  0.1936
33250W        W76167  32.172   4.133  31.671 -0.0391  0.2342 -0.0830
33251W        W76168  26.115   2.938  30.295  0.3683  0.1325  0.2077
33252W        W76169  31.971   6.316   0.329  0.1660  0.3413  0.2356
33253W        W76170  29.934   3.616  27.809  0.2527  0.0798 -0.2069
33254W        W76171  28.731   4.769  30.886  0.0589  0.0156  0.2304
33255W        W76172  33.021   4.560  30.945  0.3839 -0.2416 -0.3756
33256W        W76173  33.235   5.602  30.874 -0.2247  0.5161 -0.0043
33257W        W76174  29.514   4.104  31.343 -0.2759  0.0901  0.0726
33258W        W76175  32.427   5.806  28.987  0.4559 -0.2525  0.4323
33259W        W76176  32.088   4.087  28.387  0.0965  0.1307 -0.2196
33260W        W76177  31.457   3.978  28.529  0.2726 -0.2827  0.1485
33261W        W76178  29.386   8.763  31.626  0.0164  0.1019 -0.0238
33262W        W76179  30.779   7.167  29.632 -0.2462  0.0684  0.1470
33263W        W76180  33.206   7.367   0.321 -0.1653  0.0702 -0.1024
33264W        W76181  32.496   4.881  29.911 -0.3206  0.3713 -0.0072
33265W        W76182  33.353   8.107  26.852  0.1154  0.3070 -0.2745
33266W        W76183  28.120   5.541  30.108 -0.0786  0.0735 -0.5276
33267W        W76184  30.961   4.463  30.966  0.0956 -0.1095 -0.1018
33268W        W76185  33.111   6.363  29.083 -0.5169  0.2226  0.1229
33269W        W76186  30.396   3.820  30.725 -0.1034 -0.0472  0.0956
33270W        W76187  31.793   4.500  28.613  0.0705 -0.2270  0.4278
33271W        W76188  29.403   4.290  29.815 -0.1056 -0.7260  0.3096
33272W        W76189  30.477   6.270  29.367  0.1025  0.1399  0.1297
33273W        W76190  33.342   4.480  31.324 -0.3251  0.0749  0.2749
33274W        W76191  29.001   5.627  30.169 -0.2305  0.0426  0.0348
33275W        W76192  32.714   2.085  29.893 -0.0049 -0.2364  0.2426
33276W        W76193  32.153   4.988   0.851 -0.1842  0.0333  0.4653
33277W        W76194  33.170   5.673  30.414  0.3418  0.1634  0.0827
33278W        W76195  32.813   4.916  30.484 -0.2962 -0.0487 -0.0315
33279W        W76196  29.972   5.188  29.849  0.0441  0.3477  0.3824
33280W        W76197  33.898   3.252   0.392  0.3326  0.1305 -0.1141
33281W        W76198  30.402   3.731  31.574  0.0590 -0.0765 -0.0359
33282W        W76199  30.460   6.944  30.607  0.0715 -0.2013 -0.2309
33283W        W76200  30.682   6.605   0.186  0.2749  0.3126  0.1171
33284W        W76201  31.914   5.020  29.075 -0.3405 -0.0394 -0.0481
33285W        W76202  32.680   6.256  31.012 -0.2747 -0.0252 -0.0221
33286W        W76203  31.430   3.604  31.658  0.2739 -0.3684 -0.1493
33287W        W76204  31.574   8.285  29.533  0.3588  0.0658  0.1615
33288W        W76205  30.405   6.121  28.806 -0.2233 -0.4911 -0.1915
33289W        W76206  31.148   4.057  29.688 -0.3309 -0.0945 -0.0540
33290W        W76207  30.846   6.402  30.242 -0.1253 -0.2577  0.1532
33291W        W76208  30.890   6.187  28.579  0.1374 -0.1531  0.2124
33292W        W76209  31.615   6.728   0.326 -0.0244  0.0530 -0.0661
33293W        W76210  29.250   7.539  29.436  0.0456  0.2508  0.3542
33294W        W76211  33.134   2.265  30.915  0.0453 -0.0302  0.0637
33295W        W76212  30.719   5.685   0.049  0.0543 -0.1062 -0.3618
33296W        W76213  29.661   5.318  26.919  0.1783  0.0141 -0.1756
33297W        W76214  29.614   4.774  29.882  0.0577  0.2126  0.0460
33298W        W76215  31.653   5.500  28.928  0.1792  0.0084  0.5160
33299W        W76216  34.208   6.472  29.654 -0.1880  0.2220 -0.1664
33300W        W76217  31.681   3.881  30.396 -0.1865 -0.0238  0.1160
33301W        W76218  30.849   2.748  28.827 -0.1256 -0.2937  0.3031
33302W        W76219  31.864   5.900  29.834 -0.0325  0.0484  0.3214
33303W        W76220  32.222   4.200  30.606  0.0098  0.0255 -0.2024
33304W        W76221  33.177   3.707  28.574 -0.0854 -0.2240 -0.2412
33305W        W76222  32.907   7.334  29.915 -0.1890  0.2798 -0.0727
33306W        W76223  31.620   3.456  31.160  0.0761 -0.0368  0.1986
33307W        W76224  29.426   5.756  28.670  0.2531  0.0892  0.2127
33308W        W76225  31.790   4.332   0.077 -0.0123 -0.0024  0.1019
33309W        W76226  31.239   6.504  30.944  0.1463  0.0710 -0.2142
33310W        W76227  30.488   3.906  28.962  0.1314 -0.1752 -0.0206
33311W        W76228  31.882   7.126  29.537 -0.1981 -0.7785 -0.1630
33312W        W76229  32.663   7.011  30.218  0.5074  0.1322 -0.0651
33313W        W76230  30.201   5.877  28.263 -0.1426  0.1039  0.3242
33314W        W76231  31.517   4.507  31.640  0.0308  0.2799  0.4055
33315W        W76232  31.469   5.762  31.071  0.0162  0.2087  0.3158
33316W        W76233  30.131   4.725  29.976  0.1603  0.0810 -0.0062
33317W        W76234  30.930   3.821  29.256  0.1325 -0.1267 -0.1613
33318W        W76235  30.361   4.963  29.638 -0.3756 -0.1241  0.1448
33319W        W76236  33.192   6.149  30.900  0.0396  0.0087 -0.3648
33320W        W76237  29.875   3.209  31.126  0.1215  0.1325 -0.1133
33321W        W76238  29.478   6.407  31.712  0.1770  0.1091  0.0419
33322W        W76239  30.580   4.337  28.148  0.1654 -0.0186 -0.2354
33323W        W76240  33.670   7.654  28.316  0.0835  0.0510 -0.1687
33324W        W76241  33.841   5.286  31.007  0.0097  0.0002  0.2167
33325W        W76242  29.465   5.198  28.753  0.2552  0.3201 -0.1693
33326W        W76243  30.434   6.644  27.936 -0.1223 -0.0925 -0.0998
33327W        W76244  32.433   5.331  29.302  0.1273 -0.0286 -0.0500
33328W        W76245  30.900   4.763  28.288 -0.1562  0.1488 -0.0242
33329W        W76246  30.558   6.048  30.423  0.0015 -0.1775  0.2304
33330W        W76247  31.169   6.759  29.728  0.1870  0.1830  0.0999
33331W        W76248  31.356   7.485  31.105 -0.5516 -0.2448  0.1283
33332W        W76249  33.129   3.002  27.804  0.0105 -0.1360 -0.3694
33333W        W76250  32.873   5.514  29.109 -0.0096 -0.1343  0.2384
33334W        W76251  31.597   5.218  27.737 -0.1554  0.0756 -0.0222
33335W        W76252  34.160   4.823  30.018  0.0727 -0.3358  0.1424
33336W        W76253  32.056   4.929  28.098  0.0301  0.3321 -0.1193
33337W        W76254  32.622   3.223   0.339  0.0747 -0.0606 -0.2574
33338W        W76255  30.367   3.237  30.883 -0.1231 -0.0015  0.0806
33339W        W76256  33.670   5.515  30.212 -0.0590 -0.0387  0.0204
33340W        W76257  29.147   6.094  30.821 -0.0831  0.2005  0.1077
33341W        W76258  31.857   7.764  31.046  0.2884  0.1837 -0.0898
33342W        W76259  31.018   5.394   0.361  0.3152 -0.4452  0.0441
33343W        W76260  33.415   5.112  29.525  0.0717 -0.1024 -0.0592
33344W        W76261  29.980   3.451  29.567  0.1446 -0.0043  0.0912
33345W        W76262  31.596   5.776  31.534 -0.1628  0.0671  0.1855
33346W        W76263  31.899   6.481  28.838 -0.3268 -0.0886  0.3847
33347W        W76264  32.863   6.578  30.125  0.1755 -0.2699 -0.1218
33348W        W76265  33.335   5.476  29.874  0.2936 -0.1289  0.3569
33349W        W76266  28.716   4.878  29.471  0.0899  0.0445 -0.1477
33350W        W76267  31.277   4.176  28.980  0.1890 -0.0789  0.0102
33351W        W76268  31.232   7.276  30.625 -0.3750  0.1829 -0.0603
33352W        W76269  28.463   4.901  28.953 -0.2105  0.2781 -0.2837
33353W        W76270  31.645   3.346   0.780 -0.1218 -0.1795 -0.1750
33354W        W76271  32.696   5.389  30.627  0.0161 -0.3005 -0.2903
33355W        W76272  31.655   4.792  29.577  0.2049  0.1221  0.1238
33356W        W76273  32.036   2.804  30.658  0.0884  0.1633  0.1548
33357W        W76274  31.257   4.633  29.293 -0.0939 -0.0637  0.0522
33358W        W76275  31.685   4.022  31.443  0.2741 -0.0141  0.1423
33359W        W76276  29.089   0.970  31.674 -0.0661  0.2492  0.1021
33360W        W76277  31.682   9.515  30.333 -0.0758  0.1739 -0.3148
33361W        W76278  32.938   5.142  27.046  0.0816  0.0164 -0.2629
33362W        W76279  33.122   4.294  31.740  0.0749  0.1026 -0.1562
33363W        W76280  32.589   6.309  29.784 -0.0974 -0.0551  0.0519
33364W        W76281  30.734   5.255  29.335  0.1372 -0.0377  0.1313
33365W        W76282  29.449   5.311  30.061  0.0726 -0.1443  0.3247
33366W        W76283  33.553   5.903   0.453 -0.3623  0.0394 -0.3283
33367W        W76284  31.541   5.571  27.387  0.0374  0.2403  0.0237
33368W        W76285  33.788   5.800  31.813 -0.1583  0.0296  0.1903
33369W        W76286  31.929   6.623  29.338 -0.2508 -0.4512 -0.2272
33370W        W76287  32.137   8.217  30.766  0.2840  0.2719 -0.2811
33371W        W76288  31.195   4.497  30.500  0.1058  0.4715 -0.0811
33372W        W76289  31.039   5.957  30.017  0.2272  0.0957  0.3794
33373W        W76290  30.234   6.307  31.370 -0.1982 -0.1364  0.0514
33374W        W76291  29.928   2.419  28.497 -0.1472 -0.0282  0.1659
33375W        W76292  30.620   5.742  28.521 -0.0373  0.1253  0.2254
33376W        W76293  33.145   6.172  30.393  0.0831  0.0257 -0.0727
33377W        W76294  31.318   8.000  31.064 -0.0037  0.2742  0.6023
33378W        W76295  31.194   4.821  30.175 -0.0337  0.0189  0.4067
33379W        W76296  32.451   5.609  31.010  0.0564  0.0555  0.1499
33380W        W76297  27.596  10.537  29.350 -0.0282 -0.1203  0.2411
33381W        W76298  30.855   4.744  29.576 -0.2996 -0.0492  0.0959
33382W        W76299  31.371   6.936  30.171  0.0042 -0.3083 -0.1205
33383W        W76300  29.600   5.504  31.288 -0.1072 -0.2930 -0.0314
33384W        W76301  28.243   7.150  30.680  0.1192  0.0266  0.2703
33385W        W76302  30.889   5.693  29.611 -0.0736  0.2352  0.1024
33386W        W76303  33.729   5.690  29.102 -0.2534  0.1304 -0.0439
33387W        W76304  32.370   5.702  26.998 -0.0904  0.0253  0.1196
33388W        W76305  34.025   4.227  29.866  0.2645 -0.0304 -0.1368
33389W        W76306  32.679   6.452  31.460  0.2363  0.1821  0.0816
33390W        W76307  31.440   6.316  30.080 -0.2779 -0.1109  0.1144
33391W        W76308  32.479   8.781  30.832  0.0038  0.0018 -0.2593
33392W        W76309  33.246   7.506  28.547 -0.0618  0.0024 -0.3806
33393W        W76310  29.847   7.412  30.192  0.0941 -0.0699  0.3114
33394W        W76311  28.203   2.814  30.216  0.0773 -0.4815  0.0735
33395W        W76312  32.321   4.105  28.827  0.0948 -0.0040 -0.1516
33396W        W76313  31.621   5.274  30.999  0.2245  0.0995  0.0402
33397W        W76314  30.321   3.797  28.110  0.1725  0.1360 -0.0677
33398W        W76315  31.093   5.402  28.004 -0.0265  0.0305 -0.3736
33399W        W76316  29.659   8.497  30.821  0.2674 -0.3994  0.1088
33400W        W76317  31.608   6.205  31.252 -0.0399 -0.1824 -0.1022
33401W        W76318  28.501   8.230  30.195 -0.1736  0.1080 -0.0364
33402W        W76319  31.444   6.663  30.547  0.3421 -0.1406 -0.2794
33403W        W76320  30.036   6.221  29.095  0.1056  0.1268 -0.0179
33404W        W76321  33.942   6.600  30.037  0.3246 -0.2750  0.0816
33405W        W76322  30.375   5.224  30.152 -0.2110  0.0135 -0.1197
33406W        W76323  30.771   7.121  31.886  0.1413  0.0516 -0.1200
33407W        W76324  27.548   7.392  27.648 -0.1196  0.0423  0.1098
33408W        W76325  31.599   5.956  29.197  0.2292 -0.0192 -0.2231
33409W        W76326  28.784   8.396  29.816  0.1967 -0.1072 -0.1483
33410W        W76327  31.970   6.125  30.284 -0.1081  0.2263  0.0268
33411W        W76328  32.629   4.048  29.267  0.0893  0.3940  0.0107
33412W        W76329  33.103   4.054  27.602  0.1401 -0.0103 -0.1306
33413W        W76330  33.060   5.442  28.638  0.0050 -0.0924  0.0954
33414W        W76331  30.877   5.832   0.555 -0.0001  0.1152  0.0020
33415W        W76332  30.378   6.070  30.954  0.3016  0.1733 -0.0524
33416W        W76333  30.720   5.210  28.429  0.2620 -0.4411  0.1020
33417W        W76334  30.676   4.786  30.111  0.2557 -0.5077 -0.0374
33418W        W76335  32.734   3.458  30.449 -0.0426 -0.1071  0.0817
33419W        W76336  31.415   5.728   0.501  0.1062 -0.1758  0.1014
33420W        W76337  32.389   7.154  29.236  0.0473  0.2771 -0.2032
33421W        W76338  29.589   5.959  30.543  0.0373  0.0472 -0.0187
33422W        W76339  32.205   4.804  29.444 -0.1023 -0.1435  0.2511
33423W        W76340  32.979   2.240  31.676  0.2909  0.0452  0.1999
33424W        W76341  29.993   4.637  29.522  0.0069  0.1473  0.2114
33425W        W76342  30.761   4.749  30.579  0.0303 -0.1938  0.2250
33426W        W76343  29.511   6.276  28.307  0.0641  0.1823  0.1391
33427W        W76344  30.403   4.468  30.876  0.0125 -0.0599 -0.2006
33428W        W76345  31.183   8.578  30.436  0.0359 -0.4033 -0.0375
33429W        W76346  27.852   4.529  28.759 -0.0860  0.0043  0.1116
33430W        W76347  33.432   6.183  29.382  0.2835  0.0951  0.0397
33431W        W76348  29.724   5.530  29.636  0.0119  0.2659 -0.1635
33432W        W76349  32.476   4.609  31.007  0.0030  0.0243 -0.0522
33433W        W76350  32.243   4.584  28.937  0.1399 -0.0100  0.2151
33434W        W76351  33.792   3.333  29.410  0.0950 -0.1743  0.0246
33435W        W76352  32.215   4.588  31.426  0.0647 -0.3368  0.0063
33436W        W76353  31.227   2.696   0.036  0.2623 -0.0233 -0.1355
33437W        W76354  31.180   4.578  28.631 -0.0222  0.1675  0.2844
33438W        W76355  32.987   5.560   0.521  0.0165  0.3891  0.1263
33439W        W76356  33.164   5.272  28.101  0.0820  0.2838  0.0598
33440W        W76357  32.962   8.104   0.322  0.3333 -0.0176  0.0130
33441W        W76358  30.782   5.202  29.822 -0.0322 -0.2026  0.1532
33442W        W76359  30.647   3.616  28.520  0.0365 -0.2078 -0.2489
33443W        W76360  30.842   5.210  30.510  0.1841 -0.0012 -0.1378
33444W        W76361  30.823   5.083  31.350  0.0540 -0.1766 -0.1135
33445W        W76362  31.371   7.047  31.925 -0.3818 -0.1217  0.3970
33446W        W76363  31.293   4.058  27.721  0.2028  0.1077 -0.0512
33447W        W76364   0.095   8.225  30.333  0.4574 -0.1452 -0.0087
33448W        W76365  33.657   7.437  29.497  0.1361 -0.3033  0.1204
33449W        W76366  28.637   5.766  28.078 -0.1897 -0.1414 -0.0699
33450W        W76367  32.889   5.400  29.628 -0.0849 -0.1688 -0.0143
33451W        W76368  32.284   6.563  30.847 -0.3090  0.0039  0.0210
33452W        W76369  29.966   3.158  30.585  0.0736  0.0440  0.3889
33453W        W76370  33.390   6.042  31.479  0.2553 -0.2645  0.2546
33454W        W76371  33.020   3.922  30.095 -0.1847  0.0605 -0.1372
33455W        W76372  30.024   3.723  29.162  0.3392 -0.1046  0.1595
33456W        W76373  30.489   2.695  29.573 -0.1418 -0.1280  0.1519
33457W        W76374  28.714   7.702  28.452 -0.0371 -0.0172  0.1883
33458W        W76375  33.530   3.822  29.334  0.0321 -0.0387  0.2812
33459W        W76376  33.012   4.452  30.203 -0.0392 -0.0298 -0.0813
33460W        W76377  29.894   6.371  28.054  0.0963 -0.0624  0.0829
33461W        W76378  31.645   2.108  31.292  0.1531 -0.0462  0.0012
33462W        W76379  32.783   5.911  30.615  0.0182 -0.1301  0.0704
33463W        W76380  28.641   6.150  30.836 -0.1191 -0.3855 -0.3848
33464W        W76381  28.028   5.532  27.620  0.0944 -0.1750 -0.1374
33465W        W76382  29.858   6.935  29.980 -0.0691 -0.4578  0.0368
33466W        W76383  30.041   7.337  29.662  0.0723  0.0545  0.0430
33467W        W76384  31.193   7.215  28.246  0.0985 -0.1502  0.1797
33468W        W76385  33.784   5.656  29.670 -0.1376 -0.2428 -0.0630
33469W        W76386  31.754   4.144  29.592  0.2054 -0.1094  0.2631
33470W        W76387  32.251   6.017  30.710 -0.1985 -0.3088  0.3145
33471W        W76388  30.481   4.456  29.628 -0.1891 -0.0319  0.2727
33472W        W76389  32.383   3.756  30.780  0.2204  0.0705  0.1677
33473W        W76390  33.353   3.236  28.281 -0.0344 -0.3351 -0.1225
33474W        W76391  28.582   5.360  30.261 -0.1282  0.0023 -0.0501
33475W        W76392  30.969   4.947  27.816  0.1137 -0.0611 -0.1395
33476W        W76393  29.010   4.121  26.754 -0.0843 -0.1877 -0.0734
33477W        W76394  30.028   7.143  30.741 -0.2900  0.1602 -0.1405
33478W        W76395  30.564   5.084  30.958 -0.0854 -0.0199  0.0993
33479W        W76396  28.382   3.935  31.071 -0.0255 -0.1075 -0.2123
33480W        W76397  30.651   3.987  29.687  0.1140  0.1385 -0.0137
33481W        W76398  29.267   3.956  29.406  0.1206 -0.0186 -0.4254
33482W        W76399  33.997   9.494  29.265 -0.1328  0.0129  0.1716
33483W        W76400  29.156   1.461  28.802  0.0943  0.0347 -0.1189
33484W        W76401  30.313   3.432  30.383 -0.4975 -0.4026  0.4591
33485W        W76402  31.115   7.502  31.594  0.2019  0.0157  0.1119
33486W        W76403  33.422   7.230  28.090 -0.4241  0.0445 -0.0257
33487W        W76404  32.087   5.136  28.569 -0.1922  0.0971 -0.3332
33488W        W76405  33.397   6.878  31.862  0.1370  0.1341 -0.0731
33489W        W76406  27.959   5.875  27.980 -0.1810 -0.2062 -0.3053
33490W        W76407  31.269   6.091   0.837  0.0099  0.0263  0.1957
33491W        W76408  30.604   2.822  30.622  0.1384 -0.1076  0.2041
33492W        W76409  30.440   2.288  27.106 -0.1410 -0.3980  0.0288
33493W        W76410  31.139   5.845  28.861  0.0105  0.0048  0.1484
33494W        W76411  31.341   5.847  29.637  0.2668 -0.2308  0.2757
33495W        W76412  32.909   5.696  27.097  0.0488  0.0169  0.3070
33496W        W76413  32.076   6.105  31.668 -0.1771 -0.1722 -0.0507
33497W        W76414  31.791   5.872   0.132  0.0886 -0.0108  0.0100
33498W        W76415  29.183   3.457  31.181  0.0810  0.0270  0.0155
33499W        W76416  32.447   5.884  27.854 -0.0508  0.0401  0.2699
33500W        W76417  32.072   5.604  30.275 -0.1251  0.1277 -0.1966
33501W        W76418   0.652   5.934  26.926 -0.0664 -0.2032 -0.0554
33502W        W76419  32.910   3.591  30.965 -0.3656 -0.2291 -0.0175
33503W        W76420  33.573   5.325  27.651 -0.3129  0.2364  0.0417
33504W        W76421  27.057   2.678  31.349 -0.0199 -0.2345 -0.1313
33505W        W76422  31.856   3.254  29.735 -0.1402  0.1006 -0.0244
33506W        W76423  33.507   5.244  30.654 -0.1733  0.1025 -0.2414
33507W        W76424  29.580   3.512  29.276 -0.3254 -0.2094 -0.0582
33508W        W76425  32.054   5.601  28.553  0.1643  0.2457  0.0672
33509W        W76426  33.713   5.137  28.161 -0.1770 -0.1273  0.6309
33510W        W76427  31.101   5.471  30.984  0.1848  0.0985 -0.2705
33511W        W76428  32.019   4.744  30.915 -0.3449 -0.2437 -0.2399
33512W        W76429  30.393   5.598  30.578 -0.3604 -0.2182  0.2033
33513W        W76430  32.726   8.057  31.342 -0.2326 -0.2210 -0.0231
33514W        W76431  34.069   6.473  30.497 -0.0151 -0.1653  0.0674
33515W        W76432  29.977   4.277  29.800 -0.0386 -0.1545  0.4389
33516W        W76433   0.198   6.647  29.937 -0.2497  0.0586 -0.4572
33517W        W76434  32.323   8.528  30.428  0.1854  0.0880  0.5732
33518W        W76435  33.283   5.819  31.951  0.2251 -0.0175  0.0721
33519W        W76436  29.972   7.377  31.244 -0.0166  0.0488 -0.1717
33520W        W76437  34.145   4.752  28.940  0.0402  0.3012 -0.2169
33521W        W76438  32.262   2.750  31.550 -0.2829  0.2551  0.1416
33522W        W76439  30.525   5.955  29.920 -0.1099 -0.3292  0.0308
33523W        W76440  32.420   5.459  29.827  0.0782  0.0716 -0.0922
33524W        W76441  32.402   5.241  30.272 -0.0491 -0.4241 -0.0830
33525W        W76442  30.481   4.807  29.180  0.0132  0.0612  0.4510
33526W        W76443  31.562   5.133  29.988  0.2707 -0.0492 -0.0592
33527W        W76444  30.168   8.303   0.247  0.1329  0.1076  0.0592
33528W        W76445  30.748   5.578  30.193 -0.1789  0.0466  0.2295
33529W        W76446  32.461   3.945   0.042  0.0399 -0.0529  0.0308
33530W        W76447  32.973   7.059   0.985  0.0699 -0.0915  0.3358
33531W        W76448  28.763   6.004  29.949 -0.0514 -0.1409  0.2108
33532W        W76449  30.687   4.207  30.551  0.0748 -0.1789  0.4978
33533W        W76450  29.957   6.439   0.005  0.0434 -0.2145 -0.0018
33534W        W76451  29.482   7.218  30.935 -0.1371 -0.1711  0.0267
33535W        W76452  32.086   7.104   0.364  0.2586 -0.0950 -0.1523
33536W        W76453  31.723   4.576   0.874 -0.0682  0.0094 -0.2249
33537W        W76454  30.338   4.084  31.947  0.1951  0.1101  0.0049
33538W        W76455  33.618   6.883   0.901  0.0023  0.0988 -0.0377
33539W        W76456  28.926   4.853  31.541  0.1130  0.0729 -0.1763
33540W        W76457  28.565   2.237  30.817 -0.1197  0.1066  0.2121
33541W        W76458  31.141   3.724  31.206 -0.1387  0.2639 -0.0240
33542W        W76459  30.177   5.811  31.405  0.3496 -0.1084  0.1355
33543W        W76460  32.478   6.057   1.220  0.0138  0.5658 -0.0463
33544W        W76461  29.288   8.323  31.289  0.0650 -0.2581 -0.0209
33545W        W76462  29.609   6.611   0.330  0.0077  0.1266 -0.2355
33546W        W76463  31.333   6.994  31.037 -0.3241  0.0082  0.0617
33547W        W76464  28.460   5.253  30.799  0.0111  0.1215 -0.0015
33548W        W76465  30.290   5.259  31.690  0.1756 -0.2880 -0.3005
33549W        W76466  28.762   3.727  30.836 -0.2982  0.0828 -0.1770
33550W        W76467  28.469   8.936  31.313 -0.2890 -0.0162 -0.1929
33551W        W76468  31.167   4.466   0.086 -0.0564 -0.0879 -0.1265
33552W        W76469  32.632   5.808   0.751 -0.1833  0.1152  0.0899
33553W        W76470  32.439   4.915   0.388  0.0925  0.1708 -0.2714
33554W        W76471  32.787   5.928   0.281 -0.0339  0.1375  0.1224
33555W        W76472  29.523   5.023  30.696 -0.0270  0.1397  0.5225
33556W        W76473  27.105   8.959  31.131  0.1849 -0.0764 -0.1920
33557W        W76474  29.637   4.223  30.695 -0.1042 -0.0715 -0.1317
33558W        W76475  31.009   6.089  30.988  0.1333  0.1969  0.3319
33559W        W76476  32.031   5.189   0.244  0.0788 -0.3216  0.3103
33560W        W76477  28.791   3.539  31.506  0.1411 -0.0764  0.0588
33561W        W76478  32.411   8.041   0.209  0.2197  0.1835 -0.1643
33562W        W76479  31.977   4.694   0.406  0.3035 -0.3098 -0.1244
33563W        W76480  29.505   2.004  30.643 -0.0910  0.2078 -0.2006
33564W        W76481  28.603   4.993  31.915 -0.0103  0.0470 -0.3610
33565W        W76482  30.585   8.407   0.621  0.0217  0.3182  0.1435
33566W        W76483  31.840   7.540  31.853  0.3057  0.1449 -0.1750
33567W        W76484  32.448   7.025   0.703  0.0552  0.2711 -0.0268
33568W        W76485  30.622   4.836   0.684  0.0180  0.1675  0.3643
33569W        W76486  32.420   4.704   1.255 -0.2781 -0.0095  0.0661
33570W        W76487  32.208   3.577   0.340  0.1001  0.3516  0.2610
33571W        W76488  30.630   2.874  31.164  0.1754  0.0542  0.1140
33572W        W76489  30.398   6.711  31.626 -0.2887 -0.1022 -0.0790
33573W        W76490  31.653   4.415  31.112 -0.2208 -0.2357  0.0781
33574W        W76491  30.243   4.745  30.469  0.2188  0.2654  0.0884
33575W        W76492  32.086   3.647   0.815  0.0453  0.1144  0.0033
33576W        W76493  30.644   5.511  31.488  0.0044  0.0381  0.1572
33577W        W76494  30.575   7.207  31.378  0.0854 -0.1191  0.0356
33578W        W76495  28.607   9.410  31.016  0.1374 -0.0703  0.2235
33579W        W76496  31.876   8.989   1.060 -0.1754  0.0951 -0.0159
33580W        W76497  32.375   6.231   0.715 -0.0710  0.2256  0.0185
33581W        W76498  30.589   3.992  31.171  0.0300  0.2582 -0.0449
33582W        W76499  31.290   4.806  31.308 -0.0356  0.2906 -0.2788
33583W        W76500  31.004   4.623   1.084  0.1284  0.0168  0.0182
33584W        W76501  31.628   7.313   0.304 -0.1436  0.5087  0.3334
33585W        W76502  32.661   7.355  31.525  0.0462  0.2304 -0.2186
33586W        W76503  30.073   8.054  31.123  0.3017  0.1986 -0.3202
33587W        W76504  29.677   7.958  31.493  0.2604 -0.0164 -0.0767
33588W        W76505  29.973   4.886  31.615 -0.1479  0.2341  0.0281
33589W        W76506  30.046   3.796   0.732  0.3049 -0.0910 -0.0006
33590W        W76507  28.629   6.759  31.228 -0.0451  0.0044 -0.0266
33591W        W76508  28.974   3.970  31.367 -0.0035  0.0513 -0.0082
33592W        W76509  30.126   4.200  30.515  0.1849 -0.1226 -0.3091
33593W        W76510  33.451   9.228   0.572  0.2705 -0.0391  0.2061
33594W        W76511  33.472   8.291  31.906  0.1063 -0.1941  0.1206
33595W        W76512  34.531   6.525   0.095  0.2136  0.2359 -0.2875
33596W        W76513  30.675  10.410  19.636 -0.0137 -0.1013  0.2496
33597W        W76514  29.078   8.190  18.875 -0.0040 -0.0703  0.0703
33598W        W76515  29.097   8.225  18.372  0.0671 -0.1940 -0.3179
33599W        W76516  30.063   5.965  18.439  0.1424  0.0244 -0.0326
33600W        W76517  27.095   6.984  18.869  0.2692  0.1653 -0.3861
33601W        W76518  31.083  11.769  16.825  0.1077 -0.2069  0.0807
33602W        W76519  27.723   8.223  20.731  0.3712 -0.2605  0.1512
33603W        W76520  31.920  10.455  18.855  0.2473 -0.0201 -0.0485
33604W        W76521  31.870  11.361  17.031 -0.3219  0.1039  0.0371
33605W        W76522  31.794   9.660  17.938  0.4850 -0.2701 -0.0213
33606W        W76523  30.586   6.852  20.301 -0.1329 -0.1164  0.0848
33607W        W76524  31.657   9.559  21.026 -0.1617  0.1317 -0.1677
33608W        W76525  30.020   6.298  18.881  0.0659  0.1468  0.0887
33609W        W76526  27.590   6.257  19.241 -0.0673  0.2364 -0.2239
33610W        W76527  31.358   7.030  17.849  0.1035 -0.1171 -0.2288
33611W        W76528  29.163   7.126  19.295 -0.0484  0.4738 -0.0681
33612W        W76529  28.333   5.382  21.053 -0.1625 -0.3120 -0.1060
33613W        W76530  30.033   8.172  18.624  0.0144 -0.1292 -0.2562
33614W        W76531  33.272   9.226  20.313 -0.1296 -0.1008  0.0946
33615W        W76532  30.303   6.793  21.763  0.1311 -0.0649  0.2792
33616W        W76533  29.119   5.571  17.820  0.0998 -0.0447 -0.2417
33617W        W76534  30.668   8.094  19.935 -0.3368  0.2079  0.0568
33618W        W76535  29.081   9.825  17.994 -0.0025 -0.1160  0.0817
33619W        W76536  28.602   9.356  18.553  0.2808  0.1330  0.0423
33620W        W76537  29.482  10.330  19.608 -0.1475 -0.0998  0.2286
33621W        W76538  30.024   8.506  18.256  0.1387 -0.1505  0.0282
33622W        W76539  30.629   8.928  17.436 -0.1495 -0.0665  0.1163
33623W        W76540  30.199  10.680  19.485 -0.1305 -0.2626  0.3035
33624W        W76541  32.861  10.144  19.046 -0.0243  0.3446  0.2714
33625W        W76542  30.669   7.509  19.941 -0.2093 -0.0287  0.0794
33626W        W76543  26.562   9.161  19.330  0.2809  0.1110 -0.2096
33627W        W76544  29.850  11.055  17.869  0.0237 -0.0609  0.0564
33628W        W76545  30.556  11.119  17.695  0.0936  0.0104 -0.3629
33629W        W76546  33.163   8.717  19.503 -0.1953  0.0575  0.0107
33630W        W76547  29.836   8.109  19.610  0.0364 -0.0043 -0.3019
33631W        W76548  29.058  10.225  19.890 -0.0645 -0.0101 -0.0270
33632W        W76549  29.385   8.605  17.075 -0.0581 -0.2430 -0.1754
33633W        W76550  31.908   9.593  20.494  0.0445  0.0455 -0.1656
33634W        W76551  29.074   9.647  18.899 -0.1043  0.1177  0.0279
33635W        W76552  29.997   9.831  19.130 -0.1215  0.0829  0.2319
33636W        W76553  29.855   9.915  17.697  0.1190  0.1376 -0.0624
33637W        W76554  29.390  10.688  16.987  0.0521 -0.2433 -0.0796
33638W        W76555  31.536  10.095  19.013 -0.1496  0.1970 -0.1097
33639W        W76556  30.046   8.757  21.272  0.1127  0.0270  0.1502
33640W        W76557  29.538  10.386  20.140  0.4300 -0.2623  0.1269
33641W        W76558  31.729   8.608  18.837  0.1691 -0.1019  0.0945
33642W        W76559  29.852  10.583  17.156 -0.0261 -0.0723 -0.0024
33643W        W76560  32.317   9.390  17.981  0.3478  0.1355  0.0138
33644W        W76561  30.460   5.820  18.097 -0.1666  0.0253 -0.2475
33645W        W76562  30.790   8.348  17.191  0.1214 -0.2522  0.0177
33646W        W76563  30.825   5.426  19.544 -0.2639 -0.1662  0.3917
33647W        W76564  29.959  11.629  19.475 -0.0018 -0.0436 -0.2643
33648W        W76565  30.636   7.202  21.739 -0.0562  0.0245 -0.0546
33649W        W76566  32.168  10.128  19.654  0.1180  0.1306 -0.3838
33650W        W76567  29.565   8.681  18.419  0.1301  0.1389  0.0435
33651W        W76568  31.805   7.333  19.106  0.1728 -0.0989 -0.2311
33652W        W76569  30.924  11.251  19.308  0.0921  0.0781  0.1729
33653W        W76570  29.807   9.983  18.663 -0.0979 -0.1963 -0.0283
33654W        W76571  31.978   8.708  16.834  0.2451 -0.0454  0.1203
33655W        W76572  31.720  12.064  18.502 -0.0371  0.2048  0.2628
33656W        W76573  30.617  10.314  17.282 -0.2491 -0.0191  0.2490
33657W        W76574  31.236   7.411  19.299 -0.2290 -0.0321  0.2597
33658W        W76575  28.428   7.343  21.737  0.0177 -0.0084 -0.0796
33659W        W76576  29.612   7.546  20.384  0.0716 -0.0361  0.0246
33660W        W76577  29.845   7.533  18.023 -0.1070 -0.2506  0.0216
33661W        W76578  32.440   8.660  20.152  0.0753  0.4848 -0.1245
33662W        W76579  30.137   8.813  19.588  0.0703  0.0789  0.1194
33663W        W76580  32.134   8.424  17.346  0.0977  0.5146 -0.2685
33664W        W76581  28.523   7.678  17.886  0.1839  0.1760  0.0407
33665W        W76582  31.880   9.073  18.774 -0.2463 -0.0472  0.2536
33666W        W76583  30.946   9.293  17.393 -0.0673 -0.0305  0.1698
33667W        W76584  31.889   7.272  18.563  0.1257  0.1026  0.0212
33668W        W76585  30.998   5.827  18.947  0.0179  0.0934 -0.0400
33669W        W76586  29.732   6.731  17.188  0.1506 -0.0651 -0.1170
33670W        W76587  27.728   9.161  18.190 -0.2278 -0.1667 -0.1903
33671W        W76588  30.585   8.721  19.878  0.2384  0.1857 -0.0188
33672W        W76589  31.135   7.659  18.724 -0.3108  0.1587 -0.1462
33673W        W76590  30.954  10.119  19.993 -0.0348  0.0136  0.1731
33674W        W76591  29.018   8.982  20.930 -0.0247 -0.2862 -0.4425
33675W        W76592  29.217  10.112  20.379  0.1572  0.0619  0.1480
33676W        W76593  29.177  11.450  16.683  0.0369  0.0091 -0.2007
33677W        W76594  29.423  10.378  19.022 -0.0491 -0.1731  0.0749
33678W        W76595  28.996  10.673  16.695 -0.1371 -0.1054 -0.1321
33679W        W76596  28.018   6.171  19.495  0.1696 -0.0532  0.0474
33680W        W76597  29.545   9.226  18.487  0.2376 -0.1592  0.1210
33681W        W76598  30.815   7.236  17.851  0.0401  0.0716 -0.1391
33682W        W76599  28.479   8.519  19.703  0.0150  0.1007  0.5049
33683W        W76600  31.179   6.376  18.391 -0.1313  0.1351 -0.0671
33684W        W76601  30.319  11.251  18.157 -0.0819 -0.0688  0.0974
33685W        W76602  31.739  10.222  17.668 -0.1864 -0.1111  0.0512
33686W        W76603  32.378   8.961  18.823 -0.0084  0.0463 -0.0606
33687W        W76604  31.960  10.451  16.661  0.1816 -0.0462 -0.1093
33688W        W76605  27.426   7.511  19.875  0.2034 -0.1413 -0.2383
33689W        W76606  29.490   7.724  19.701 -0.2231  0.0803 -0.1043
33690W        W76607  28.745   7.012  19.584 -0.2643 -0.2044 -0.4846
33691W        W76608  29.078   6.896  20.054  0.0851  0.3098  0.1325
33692W        W76609  31.657   7.694  18.435 -0.1335 -0.0145 -0.1795
33693W        W76610  28.112   6.378  18.049  0.0785  0.3970  0.1088
33694W        W76611  30.850   7.572  17.507 -0.1850 -0.1300  0.0956
33695W        W76612  30.178   7.830  19.835 -0.1279 -0.2308 -0.2587
33696W        W76613  28.107   9.450  18.195 -0.2649 -0.1173 -0.1579
33697W        W76614  32.339   7.397  20.875 -0.0833 -0.0321  0.3610
33698W        W76615  31.367  11.652  18.537  0.0861 -0.1441 -0.1015
33699W        W76616  32.952  12.236  21.908  0.0300  0.1973  0.1197
33700W        W76617  31.631  13.007  18.039  0.2814  0.0231 -0.3357
33701W        W76618  28.810   9.863  18.434 -0.2400 -0.0973 -0.1592
33702W        W76619  30.094   6.263  17.478  0.0384 -0.2636  0.1735
33703W        W76620  29.639  12.153  17.633 -0.1273 -0.0912  0.0034
33704W        W76621  30.596  10.333  20.360  0.0656 -0.2138 -0.0316
33705W        W76622  29.679   7.011  19.158  0.2048 -0.1010  0.1551
33706W        W76623  33.467   9.982  18.902 -0.1965  0.2359 -0.1913
33707W        W76624  29.741   9.898  17.160 -0.0225 -0.0117 -0.0707
33708W        W76625  30.419   7.994  19.432 -0.1076  0.0177  0.0321
33709W        W76626  31.717   9.289  20.161 -0.1875  0.1158 -0.1155
33710W        W76627  31.527   7.786  19.133  0.1092 -0.0185 -0.0887
33711W        W76628  30.750   7.614  18.126  0.3269 -0.2473  0.0892
33712W        W76629  27.021   6.509  17.963 -0.1047  0.0487  0.1932
33713W        W76630  31.276  10.025  17.519  0.0650  0.1164 -0.0143
33714W        W76631  29.032  10.730  17.492  0.0134  0.3702 -0.1525
33715W        W76632  28.538   8.077  17.408  0.0565  0.1810 -0.0743
33716W        W76633  31.245   9.717  19.176  0.2733  0.2169  0.0128
33717W        W76634  33.122   8.421  17.909  0.1725 -0.2875 -0.2006
33718W        W76635  27.985   7.549  21.578 -0.1748 -0.1583 -0.1179
33719W        W76636  32.527   8.454  18.650 -0.1428 -0.1855 -0.2215
33720W        W76637  28.416   6.534  16.751 -0.2408  0.2437  0.2468
33721W        W76638  30.452  11.296  19.414  0.1989 -0.0338  0.0421
33722W        W76639  32.678   5.755  17.515 -0.0390  0.1450  0.2280
33723W        W76640  30.209   7.718  18.972 -0.0967  0.1890 -0.0162
33724W        W76641  30.698   9.709  19.569  0.1924 -0.2657  0.0493
33725W        W76642  31.088  11.111  17.608 -0.2469  0.2417 -0.2913
33726W        W76643  31.555   8.669  17.109 -0.0130  0.1436 -0.0087
33727W        W76644  30.817   6.095  17.830 -0.2505 -0.1826  0.0246
33728W        W76645  30.280   8.848  20.525  0.1810 -0.0849 -0.0436
33729W        W76646  31.763   7.991  18.036  0.0748  0.0025  0.3047
33730W        W76647  30.131   9.513  19.587 -0.2156 -0.1832  0.2906
33731W        W76648  30.454  10.910  18.449 -0.2329 -0.2371 -0.2557
33732W        W76649  32.266   9.487  18.636  0.0203 -0.1108  0.1628
33733W        W76650  29.648   9.519  19.465  0.2210 -0.2975  0.0680
33734W        W76651  31.119   8.804  19.024  0.0157  0.0426 -0.0515
33735W        W76652  31.540   8.447  18.420  0.1620  0.0467 -0.3164
33736W        W76653  31.294   6.027  20.051 -0.3000 -0.1340 -0.3759
33737W        W76654  30.374   8.477  17.467  0.0955  0.1593 -0.1239
33738W        W76655  30.708   5.711  17.589 -0.4788 -0.1904  0.1498
33739W        W76656  28.562   9.686  17.592 -0.0334 -0.1653 -0.0712
33740W        W76657  32.109   8.608  18.418 -0.0163  0.1761 -0.1367
33741W        W76658  33.175   7.391  19.249 -0.3402  0.0018  0.0757
33742W        W76659  30.709   7.661  19.035  0.0140 -0.1280 -0.2400
33743W        W76660  32.008   9.185  19.703 -0.1947  0.1224 -0.1243
33744W        W76661  31.323   9.126  16.908  0.0720 -0.4405 -0.0889
33745W        W76662  30.259   7.826  18.293  0.2343 -0.1270 -0.2024
33746W        W76663  30.596   8.988  16.378 -0.1641 -0.0785 -0.0657
33747W        W76664  32.074   8.131  18.399 -0.1413 -0.0453 -0.1615
33748W        W76665  28.722  10.625  19.888  0.1941 -0.1159  0.2698
33749W        W76666  29.838  11.919  18.657  0.1525  0.0679  0.1241
33750W        W76667  31.186  10.459  18.308 -0.1097 -0.0267  0.1734
33751W        W76668  31.425   9.932  18.546  0.4032 -0.3317  0.1292
33752W        W76669  32.046   8.738  21.418  0.2447  0.1878 -0.3061
33753W        W76670  30.815   8.427  17.694 -0.2189  0.3325 -0.0180
33754W        W76671  29.291   9.359  17.467  0.0625  0.0625  0.0691
33755W        W76672  29.449   8.336  19.297  0.0310  0.1179 -0.1869
33756W        W76673  27.946   6.516  19.019  0.2181  0.1427  0.4745
33757W        W76674  28.179   7.846  20.652  0.2126  0.1632  0.1286
33758W        W76675  31.082  11.031  17.077  0.1436 -0.1367 -0.2703
33759W        W76676  31.458   9.964  20.094  0.1839 -0.1669  0.1926
33760W        W76677  29.591   9.380  17.892  0.0357 -0.1456  0.2893
33761W        W76678  31.810   6.974  19.463  0.2463 -0.0096  0.0425
33762W        W76679  29.122  11.477  20.250 -0.0553  0.1911 -0.1778
33763W        W76680  28.335   6.742  17.748  0.1480  0.0193  0.2075
33764W        W76681  29.135   8.062  19.711  0.1574  0.0369 -0.2151
33765W        W76682  31.316   8.305  18.002 -0.1254  0.0903 -0.0728
33766W        W76683  31.504   9.606  16.752 -0.0955 -0.0011  0.2228
33767W        W76684  28.862   7.150  18.789  0.0016  0.0902  0.0517
33768W        W76685  31.211   7.876  18.270  0.0716 -0.3690 -0.0516
33769W        W76686  31.023  10.120  19.438 -0.0267  0.1392  0.1316
33770W        W76687  31.743  10.263  20.426 -0.2888  0.1009 -0.1077
33771W        W76688  30.031   6.704  16.793 -0.1934 -0.0465  0.2565
33772W        W76689  30.912   9.313  19.206  0.0920  0.3650  0.1621
33773W        W76690  30.155  10.398  20.664 -0.0662 -0.0718  0.0857
33774W        W76691  29.524   7.193  19.619  0.0115  0.0716 -0.0274
33775W        W76692  31.017   8.907  20.836  0.1066 -0.0219  0.1218
33776W        W76693  28.726   9.010  17.768  0.0594 -0.0999  0.4474
33777W        W76694  28.612  10.369  18.455  0.0209  0.1653 -0.1500
33778W        W76695  31.310  10.368  19.740  0.1085  0.1171 -0.2421
33779W        W76696  31.046   8.325  18.478  0.3675 -0.0183 -0.0102
33780W        W76697  28.650  11.960  17.457  0.2286  0.0223  0.2201
33781W        W76698  29.057   7.476  20.449  0.0914  0.0800 -0.0082
33782W        W76699  28.530   7.992  19.751 -0.0101 -0.0142  0.0019
33783W        W76700  29.699   6.749  18.646  0.2204 -0.0646  0.0143
33784W        W76701  28.630   8.056  20.496  0.1758 -0.1246  0.2657
33785W        W76702  29.902   8.409  17.787  0.1573 -0.0003  0.2629
33786W        W76703  30.214   8.728  19.060 -0.2569  0.2011  0.2437
33787W        W76704  29.814   7.692  18.499 -0.0083 -0.2270  0.0790
33788W        W76705  29.500   9.932  19.244  0.1462  0.0079 -0.0711
33789W        W76706  30.675   7.183  17.301  0.2509 -0.1779 -0.1644
33790W        W76707  30.862  10.539  19.183  0.0331 -0.0934  0.1352
33791W        W76708  29.297   8.477  20.764 -0.1901 -0.0850  0.1380
33792W        W76709  27.973   8.950  17.428 -0.0847  0.0715  0.1206
33793W        W76710  28.361   8.895  19.035 -0.0800 -0.1455 -0.0883
33794W        W76711  29.368  10.910  18.364  0.0837  0.1933  0.0005
33795W        W76712  31.052   8.322  19.699  0.3933  0.4886  0.1083
33796W        W76713  29.868   9.620  19.976  0.1534  0.0763 -0.1987
33797W        W76714  27.160  12.696  17.420  0.2167  0.1284 -0.0489
33798W        W76715  28.319  11.760  20.590  0.2393  0.1129 -0.0003
33799W        W76716  31.334   6.874  18.461  0.0615 -0.0240 -0.1037
33800W        W76717  29.509   8.910  17.445  0.3251  0.1419  0.2618
33801W        W76718  30.856   7.205  18.890 -0.0653 -0.1376 -0.1429
33802W        W76719  33.507   7.597  18.341  0.3789 -0.1020 -0.0043
33803W        W76720  30.608   8.977  16.907 -0.0140  0.0546 -0.1103
33804W        W76721  31.345   5.487  21.890  0.0053  0.0742 -0.1785
33805W        W76722  28.185   5.937  19.950 -0.0698  0.0681  0.0242
33806W        W76723  33.151  10.423  18.071  0.0965 -0.0045 -0.0025
33807W        W76724  29.228   8.965  21.385  0.0537  0.2628 -0.1256
33808W        W76725  30.315  12.046  19.198  0.1742  0.0715  0.2230
33809W        W76726  30.675   9.566  20.081 -0.0170 -0.2290  0.2798
33810W        W76727  30.883   6.731  18.596  0.2892 -0.1386  0.0353
33811W        W76728  30.011   6.790  18.279 -0.0805 -0.1734 -0.0993
33812W        W76729  29.811  11.066  20.238 -0.2342  0.0113 -0.1085
33813W        W76730  31.419   9.234  19.795  0.0224  0.2454 -0.0979
33814W        W76731  29.015   8.235  17.217  0.0856 -0.0418  0.1749
33815W        W76732  31.874   7.963  17.549 -0.5037  0.2739 -0.2741
33816W        W76733  27.063   8.295  19.308  0.1343 -0.1944 -0.0545
33817W        W76734  31.458   9.096  17.403 -0.0064  0.0539 -0.0921
33818W        W76735  29.540   9.056  18.972 -0.0959  0.0697  0.1747
33819W        W76736  28.404  10.872  16.747  0.1086  0.1864  0.2182
33820W        W76737  29.030   7.528  19.651  0.2053 -0.1454 -0.0184
33821W        W76738  31.876   8.998  19.232  0.0108 -0.0232 -0.1498
33822W        W76739  33.265   8.266  20.161 -0.4789  0.1357  0.0481
33823W        W76740  31.184   8.342  20.670  0.1089 -0.1824 -0.3753
33824W        W76741  33.116   6.586  17.812 -0.2392 -0.1813  0.0116
33825W        W76742  30.690   7.118  18.384  0.1848  0.0701  0.0584
33826W        W76743  29.645   6.504  19.135  0.1161  0.4779 -0.0681
33827W        W76744  32.201  11.276  19.217 -0.1745 -0.2142  0.1578
33828W        W76745  32.096   6.921  17.289 -0.0358  0.2847 -0.2157
33829W        W76746  32.333   8.167  19.461 -0.1985 -0.1983  0.0986
33830W        W76747  31.455   8.958  18.331 -0.0139 -0.0073 -0.3198
33831W        W76748  30.746   8.485  16.729 -0.2620  0.4079  0.1123
33832W        W76749  29.760   8.025  19.068 -0.3175 -0.4778  0.1658
33833W        W76750  31.907   8.020  19.769  0.0080 -0.2028 -0.1562
33834W        W76751  29.557   8.071  17.396  0.2090  0.0510  0.1454
33835W        W76752  32.526   7.702  16.925  0.0159  0.1402 -0.0542
33836W        W76753  29.918   9.105  18.176 -0.0632  0.3040  0.1334
33837W        W76754  31.300   8.434  19.268 -0.0940  0.1083 -0.1219
33838W        W76755  29.061   8.617  18.001  0.0614 -0.4467 -0.2579
33839W        W76756  29.724   8.835  19.337 -0.0079 -0.0705  0.1493
33840W        W76757  29.554   8.940  20.923  0.3445 -0.0540 -0.1360
33841W        W76758  30.821   7.224  19.467  0.0311 -0.1048  0.2754
33842W        W76759  30.342   8.743  17.918  0.0978  0.1179  0.0784
33843W        W76760  28.237   7.055  19.683  0.0882 -0.2508  0.3289
33844W        W76761  33.911   8.924  21.478 -0.0866 -0.2894  0.0175
33845W        W76762  29.874   7.541  19.390 -0.3079  0.1778  0.4086
33846W        W76763  32.199   8.363  20.935  0.0554  0.1713  0.1346
33847W        W76764  30.542  10.283  18.137  0.1700 -0.1057 -0.0649
33848W        W76765  28.975   7.444  17.896 -0.0195 -0.1823  0.3998
33849W        W76766  29.921  10.893  18.392 -0.1179 -0.1876 -0.1844
33850W        W76767  27.418   8.331  18.906  0.0303 -0.1267  0.2422
33851W        W76768  30.302  12.563  18.911 -0.0892 -0.3727 -0.2733
33852W        W76769  30.856   7.907  21.215  0.0423  0.0605  0.1736
33853W        W76770  28.731   9.317  19.077  0.3467  0.1772 -0.0674
33854W        W76771  31.670   8.398  17.627 -0.0099  0.0025 -0.1579
33855W        W76772  29.767   6.892  21.610  0.2690  0.3115 -0.0361
33856W        W76773  29.336  10.161  20.945 -0.0497  0.3423  0.1252
33857W        W76774  29.723   8.606  18.885  0.3131  0.0148 -0.0329
33858W        W76775  30.479  10.034  19.923  0.1330  0.0231  0.0784
33859W        W76776  32.058   8.616  19.702  0.2152  0.2222 -0.0543
33860W        W76777  30.427   9.633  19.141 -0.4589  0.1366 -0.1082
33861W        W76778  28.479   7.749  21.222  0.0046  0.0386  0.2023
33862W        W76779  29.465   8.474  23.189 -0.2925 -0.0881 -0.1634
33863W        W76780  29.422   7.750  17.719  0.0570 -0.0404 -0.1040
33864W        W76781  30.217   8.377  19.774  0.1451  0.0111 -0.0248
33865W        W76782  30.817   8.673  18.126 -0.0126 -0.1233 -0.0730
33866W        W76783  30.472  10.802  20.663 -0.0172  0.1496  0.1184
33867W        W76784  28.901  11.919  20.337  0.0497  0.0309  0.2565
33868W        W76785  29.794  11.059  16.943  0.0683  0.2788  0.0670
33869W        W76786  31.019   8.804  17.158 -0.0153 -0.0720 -0.0727
33870W        W76787  30.675   9.552  17.018  0.0259  0.0026 -0.1233
33871W        W76788  30.715  12.149  19.977  0.1297  0.0298 -0.0923
33872W        W76789  29.869   5.955  17.974 -0.0726  0.2410  0.2435
33873W        W76790  29.224  11.125  18.788  0.3599 -0.2602 -0.1131
33874W        W76791  28.427   8.852  17.116 -0.1300 -0.0730 -0.0521
33875W        W76792  31.111  10.124  17.003 -0.1957  0.1461  0.0792
33876W        W76793  30.271  10.694  16.839  0.2754  0.2639  0.0971
33877W        W76794  32.399   9.138  22.070 -0.3195  0.2209 -0.2531
33878W        W76795  31.949   6.469  17.818  0.0561  0.0433 -0.1210
33879W        W76796  30.609   9.042  18.915 -0.3830  0.0266  0.5260
33880W        W76797  31.228   8.386  17.448  0.0842 -0.2505  0.0733
33881W        W76798  31.879  10.459  19.368  0.0971  0.0067  0.0115
33882W        W76799  29.864   7.380  19.872 -0.1140  0.1382  0.2566
33883W        W76800  29.738   5.783  17.372  0.2225  0.1157 -0.0382
33884W        W76801  30.462  10.577  17.743  0.0517  0.0039 -0.1475
33885W        W76802  31.525   8.294  20.014 -0.0312 -0.1905 -0.0153
33886W        W76803  28.086  10.218  20.199 -0.0529 -0.1591 -0.1855
33887W        W76804  32.241  11.583  17.345 -0.0798  0.0425  0.0394
33888W        W76805  28.765   8.034  19.273  0.0535 -0.3008 -0.1689
33889W        W76806  29.188   8.194  16.749  0.1663 -0.0990 -0.0038
33890W        W76807  31.845   5.625  17.640 -0.1229 -0.1519 -0.2537
33891W        W76808  30.087  10.943  17.390  0.0704  0.4005 -0.0770
33892W        W76809  30.625   8.402  19.449  0.1149  0.0238 -0.3368
33893W        W76810  29.015  10.134  18.991 -0.0184  0.2280 -0.0565
33894W        W76811  28.558  10.712  19.384 -0.0900  0.2405  0.0220
33895W        W76812  30.101  10.461  18.420  0.3180  0.0044  0.0608
33896W        W76813  27.881   7.494  17.053 -0.1357  0.1043 -0.2879
33897W        W76814  32.652   8.744  19.653  0.0295 -0.2118  0.0820
33898W        W76815  29.706   8.034  20.635  0.0802  0.0837 -0.0484
33899W        W76816  32.864   6.473  19.983  0.1931 -0.0461  0.0520
33900W        W76817  29.371  11.177  19.926 -0.1087 -0.0330  0.2383
33901W        W76818  33.197   7.614  18.820  0.0365  0.0124  0.3899
33902W        W76819  30.431   9.166  19.368  0.4077 -0.0101 -0.0636
33903W        W76820  28.321   9.266  17.721 -0.2752 -0.2320 -0.1552
33904W        W76821  29.973   8.543  16.728  0.2508 -0.0321 -0.1640
33905W        W76822  30.946   7.955  17.855  0.0397  0.5073  0.1271
33906W        W76823  31.232   6.713  17.095  0.2066  0.1816  0.1511
33907W        W76824  30.443  10.018  22.445  0.0198 -0.0075  0.2516
33908W        W76825  28.808   8.800  20.020  0.1166 -0.0140  0.0187
33909W        W76826  30.288   7.583  17.330  0.0047 -0.0653  0.3490
33910W        W76827  29.558  10.249  16.763 -0.1367  0.2342 -0.0229
33911W        W76828  29.986   8.737  20.108  0.1041  0.2994 -0.0527
33912W        W76829  31.568  11.244  21.290  0.1337 -0.0004 -0.1623
33913W        W76830  28.118   7.306  17.951 -0.3236 -0.1951  0.1654
33914W        W76831  30.678  11.576  17.789  0.2055  0.1823 -0.0191
33915W        W76832  32.773   7.893  17.785 -0.3153  0.2239 -0.0722
33916W        W76833  29.368   9.919  17.534  0.0421  0.0536  0.0085
33917W        W76834  31.369   9.196  18.758  0.1500 -0.2026 -0.0243
33918W        W76835  33.688  12.475  19.686 -0.2169  0.2075  0.0924
33919W        W76836  28.321   8.419  20.668 -0.2053  0.1460  0.2579
33920W        W76837  30.588   9.497  18.668  0.0527 -0.0611  0.0381
33921W        W76838  31.555  10.692  18.566 -0.1446 -0.2747  0.0869
33922W        W76839  30.449   7.780  20.251 -0.2294  0.0538 -0.0418
33923W        W76840  29.047  10.373  18.144 -0.0621 -0.0557  0.1783
33924W        W76841  29.580  10.872  17.495  0.0833  0.2399  0.2243
33925W        W76842  30.862   8.868  19.461  0.2335 -0.1402 -0.0371
33926W        W76843  32.578   6.820  19.680  0.1103 -0.1144  0.1860
33927W        W76844  29.234  10.251  17.149  0.1465  0.1538  0.0977
33928W        W76845   0.253   9.165  20.607 -0.0079 -0.3261 -0.2397
33929W        W76846  30.131  10.916  22.310 -0.2989  0.2792 -0.3311
33930W        W76847  29.621   8.716  21.517  0.0359  0.1295 -0.1433
33931W        W76848  29.258   9.028  18.139 -0.1864 -0.2748 -0.1039
33932W        W76849  31.527  11.052  21.920  0.1256  0.0995 -0.0544
33933W        W76850  30.874   9.084  18.462 -0.1578 -0.0024  0.0053
33934W        W76851  30.433  10.065  19.391 -0.2445  0.1627  0.1198
33935W        W76852  32.422  11.713  18.140 -0.4460  0.0510 -0.0233
33936W        W76853  30.567   8.015  17.432  0.1278  0.0793  0.3088
33937W        W76854  30.401   8.305  21.105 -0.1201 -0.0483  0.1015
33938W        W76855  29.763   7.070  20.678  0.1912  0.2312 -0.1994
33939W        W76856  31.735   8.660  18.000  0.0929  0.2156  0.4785
33940W        W76857  31.079   7.980  17.320 -0.2096  0.0151 -0.0959
33941W        W76858  28.630   9.646  19.413 -0.0626  0.2570  0.0578
33942W        W76859  29.594   8.757  17.921  0.2521  0.0809  0.1443
33943W        W76860  29.820   9.409  17.459 -0.0198  0.3430 -0.1967
33944W        W76861  26.589  10.619  19.313 -0.0882  0.3423 -0.0816
33945W        W76862  31.324   7.126  20.459  0.1095  0.1943  0.1441
33946W        W76863  29.481  11.676  19.731 -0.2427  0.1487  0.1377
33947W        W76864  27.646   9.432  19.833  0.1465 -0.0487  0.0924
33948W        W76865  27.457   7.667  17.441  0.1175  0.0633 -0.1375
33949W        W76866  31.810  10.525  17.136 -0.2357 -0.3309 -0.0333
33950W        W76867  28.907   7.849  20.118 -0.0818 -0.3070 -0.0013
33951W        W76868  28.487   7.460  18.817 -0.0800 -0.1283  0.2092
33952W        W76869  30.439   8.816  18.442  0.0855  0.0721 -0.1188
33953W        W76870  32.094  10.921  16.842 -0.1664  0.0166  0.0223
33954W        W76871  28.860   8.644  21.278 -0.1738  0.3115  0.2324
33955W        W76872  33.015  11.648  21.084  0.0522  0.0362  0.1917
33956W        W76873  30.141   9.162  16.670  0.2033 -0.0073  0.4193
33957W        W76874  31.534   7.030  21.176 -0.1436  0.1618 -0.0028
33958W        W76875  30.307   7.996  20.687 -0.0172  0.0549  0.0228
33959W        W76876  28.022   6.982  17.149  0.1710  0.1600 -0.0387
33960W        W76877  30.278   6.270  17.975 -0.0395  0.0028 -0.3792
33961W        W76878  30.428   9.510  17.612 -0.2069 -0.1459 -0.3834
33962W        W76879  31.531  10.882  16.928 -0.3319 -0.3085 -0.0509
33963W        W76880  31.456   8.669  21.009  0.0276 -0.2258  0.0743
33964W        W76881  31.333   9.465  18.232  0.2374  0.0117  0.2626
33965W        W76882  27.406   6.949  19.255  0.0686 -0.2157  0.0044
33966W        W76883  32.137   9.828  17.629  0.3006 -0.0054  0.1566
33967W        W76884  31.191  10.164  20.537 -0.1638  0.5253  0.0179
33968W        W76885  32.333   8.973  19.389 -0.2437 -0.2824 -0.0491
33969W        W76886  30.368   8.207  17.866 -0.0470 -0.0960 -0.0711
33970W        W76887  29.553   8.154  18.644  0.1768 -0.0727  0.0805
33971W        W76888  29.811   9.953  21.070  0.1831  0.0201 -0.0925
33972W        W76889  30.167  11.037  19.903 -0.1140  0.0893  0.2271
33973W        W76890  32.760   8.351  20.841 -0.0233 -0.1624 -0.4557
33974W        W76891  27.748   7.280  18.302  0.0195 -0.0376 -0.4810
33975W        W76892  31.179   7.174  17.423  0.1627 -0.1026 -0.2458
33976W        W76893  31.188   9.642  17.187  0.0774 -0.1274  0.2842
33977W        W76894  29.969   9.218  19.189 -0.2383  0.0817 -0.2647
33978W        W76895  30.033   8.951  17.580 -0.0096  0.0192 -0.1842
33979W        W76896  30.117   8.324  19.237  0.1917 -0.3189  0.3370
33980W        W76897  30.337  10.595  20.043  0.2843 -0.2110  0.0594
33981W        W76898  32.799   9.172  21.825  0.3283 -0.2980  0.3649
33982W        W76899  29.064   8.067  17.708  0.2162  0.1072 -0.0763
33983W        W76900  33.712   7.998  17.463 -0.2492  0.2408 -0.3129
33984W        W76901  31.512  10.075  21.303  0.4824  0.0462 -0.1384
33985W        W76902  32.509  12.052  20.128  0.2250  0.2387  0.2969
33986W        W76903  31.095  12.061  21.274 -0.0104  0.2005  0.1894
33987W        W76904  30.931   8.120  19.158 -0.2046  0.2218 -0.0773
33988W        W76905  31.128   7.927  20.042 -0.1788 -0.3211 -0.1233
33989W        W76906  30.049  10.204  20.178  0.0232  0.0097  0.0576
33990W        W76907  30.359   9.995  17.755 -0.1472 -0.3835 -0.3111
33991W        W76908  32.668   9.370  19.350  0.1940 -0.0429 -0.0887
33992W        W76909  30.103   9.482  18.589 -0.2570  0.2738  0.1035
33993W        W76910  29.235   6.872  17.137 -0.2524  0.2320 -0.0785
33994W        W76911  30.651  10.903  19.647 -0.0396 -0.0587 -0.0148
33995W        W76912  29.898   8.093  22.029 -0.1494  0.5258 -0.1477
33996W        W76913  30.672   7.952  23.772  0.0056  0.1828  0.0963
33997W        W76914  28.052   6.777  20.393  0.1208 -0.0613 -0.1124
33998W        W76915  33.739   9.059  20.530 -0.0038 -0.0010  0.0716
33999W        W76916  32.793   8.990  20.313  0.1544 -0.0956 -0.3495
34000W        W76917  30.150  10.285  23.095  0.0858  0.1103  0.4302
34001W        W76918  32.731  10.183  21.892  0.1372 -0.0111  0.0115
34002W        W76919  28.998   8.877  22.619 -0.0575 -0.0586  0.0801
34003W        W76920  34.249   8.721  24.105 -0.0797  0.2219 -0.0318
34004W        W76921  31.508   9.637  22.839  0.1824 -0.0042  0.0791
34005W        W76922  31.178   9.823  20.980 -0.0209 -0.1643 -0.1807
34006W        W76923  28.998   8.610  23.498 -0.2688 -0.2870  0.2415
34007W        W76924  30.011   9.578  21.533  0.1540 -0.2764  0.2489
34008W        W76925  29.711   6.933  20.104 -0.0312 -0.3018 -0.0110
34009W        W76926  28.582   6.845  25.896 -0.0625  0.1032  0.0147
34010W        W76927  32.805   7.657  23.168  0.1852 -0.0070 -0.3985
34011W        W76928  29.563   8.685  22.207 -0.1920  0.2917 -0.1184
34012W        W76929  31.183   7.029  25.131  0.0131 -0.2196 -0.4173
34013W        W76930  27.266   7.130  21.922  0.2776  0.3020  0.1572
34014W        W76931  31.143   9.660  22.309  0.4017 -0.1927  0.0389
34015W        W76932  29.626   7.342  21.652 -0.3257 -0.1183 -0.0600
34016W        W76933  31.626   7.706  22.592 -0.1146  0.1112 -0.0789
34017W        W76934  30.717  11.609  21.602 -0.0532 -0.0403 -0.2341
34018W        W76935  28.753   7.421  19.239 -0.0756 -0.1078  0.0698
34019W        W76936  28.175   8.124  24.517 -0.0976 -0.0259  0.2009
34020W        W76937  29.991   5.272  24.438 -0.0551  0.0331 -0.0652
34021W        W76938  29.807   6.346  21.124  0.0118  0.0193 -0.0165
34022W        W76939  31.089  10.414  21.084  0.1490 -0.4181 -0.0238
34023W        W76940  29.609  10.992  23.676  0.2780  0.2323  0.1365
34024W        W76941  30.601  10.318  22.822  0.0327 -0.1863  0.0793
34025W        W76942  31.447   8.015  23.699 -0.1647 -0.0276  0.1612
34026W        W76943  29.002   7.198  20.860  0.0648 -0.0450  0.2460
34027W        W76944  29.861   9.440  22.663 -0.2744  0.2310 -0.0213
34028W        W76945  28.535   8.781  22.708  0.0094  0.0328 -0.1879
34029W        W76946  29.464   9.937  19.945 -0.1240 -0.4199  0.0420
34030W        W76947  30.942   9.123  23.464 -0.4135  0.0726  0.0718
34031W        W76948  31.176  10.573  24.065  0.2297  0.1549  0.0853
34032W        W76949  29.577  10.753  19.394 -0.0803  0.0200  0.0627
34033W        W76950  32.409   9.967  23.993  0.1224 -0.2512  0.2015
34034W        W76951  29.555   8.786  23.646  0.0034 -0.2507 -0.0357
34035W        W76952  28.193   8.364  22.854  0.0797 -0.0195  0.1335
34036W        W76953  30.315   7.546  21.158 -0.0588 -0.1343 -0.1428
34037W        W76954  29.615   9.466  20.947 -0.0809  0.0661  0.1561
34038W        W76955  30.833  10.365  22.383  0.0402 -0.3037  0.0560
34039W        W76956  29.172   9.040  26.173  0.2114 -0.0088 -0.2470
34040W        W76957  27.973   9.727  22.565  0.1551  0.0718  0.0826
34041W        W76958  32.721   7.059  23.264  0.0966 -0.2793 -0.2647
34042W        W76959  30.446  11.215  22.524  0.0005 -0.0311  0.0676
34043W        W76960  31.574   8.667  19.612  0.3026  0.2198  0.2995
34044W        W76961  29.944   7.921  20.231  0.1604 -0.1099  0.4389
34045W        W76962  31.737   8.239  20.911  0.0088  0.0388 -0.0496
34046W        W76963  29.293   6.318  21.961  0.2975 -0.2597  0.0457
34047W        W76964  30.573  11.104  21.466  0.1928 -0.0046 -0.0227
34048W        W76965  29.974   5.360  22.508  0.1727  0.0287 -0.1456
34049W        W76966  31.780   9.638  24.814 -0.0969  0.0216 -0.0191
34050W        W76967  29.361   9.012  21.905 -0.1125 -0.1378  0.2416
34051W        W76968  34.339  10.188  21.564  0.2545 -0.5028  0.4306
34052W        W76969  28.629   9.755  23.363  0.3116  0.1007  0.0721
34053W        W76970  28.719   9.702  22.575 -0.0886  0.3391 -0.3408
34054W        W76971  31.395   9.565  21.451  0.1043 -0.2092 -0.0611
34055W        W76972  33.249  11.013  21.964 -0.1459 -0.0511  0.2388
34056W        W76973  30.871  10.655  20.065 -0.1180  0.3045  0.3211
34057W        W76974  31.423   8.188  21.821 -0.1806 -0.2549 -0.0145
34058W        W76975  28.552  10.513  24.164 -0.0165 -0.1658 -0.1073
34059W        W76976  27.222   6.246  25.462 -0.2048  0.1572  0.1317
34060W        W76977  27.655   6.888  22.131  0.1698  0.1246  0.2630
34061W        W76978  32.578   8.651  24.287 -0.1028 -0.2232  0.0095
34062W        W76979  30.082   8.824  24.641  0.0517 -0.1896 -0.3146
34063W        W76980  31.704   9.037  21.229 -0.0764  0.1594  0.3165
34064W        W76981  30.099   5.902  24.171  0.0802  0.0992  0.2959
34065W        W76982  30.852   8.861  22.430 -0.3189  0.0089  0.0834
34066W        W76983  31.846  10.904  19.144  0.2313  0.0488 -0.3111
34067W        W76984  30.819   8.002  22.141 -0.2390 -0.0465  0.1340
34068W        W76985  31.294   6.797  22.089 -0.1770 -0.0888  0.1384
34069W        W76986  30.959   9.256  17.980 -0.0123  0.1093  0.1484
34070W        W76987  28.700   9.322  21.115 -0.3453  0.0511 -0.0624
34071W        W76988  30.032   9.164  23.031 -0.0902  0.1770 -0.0721
34072W        W76989  32.692   8.443  19.223  0.3085 -0.0780  0.0272
34073W        W76990  30.284  10.424  22.306  0.2297 -0.0878 -0.2506
34074W        W76991  29.679   9.181  23.410  0.0029  0.1082 -0.0949
34075W        W76992  30.185   9.936  25.990 -0.1912  0.2466  0.0109
34076W        W76993  29.083  11.181  20.821 -0.0222  0.2208  0.2160
34077W        W76994  30.415   9.964  20.688  0.1021  0.2020  0.1134
34078W        W76995  28.511   8.930  20.808 -0.0390 -0.0082  0.0178
34079W        W76996  29.979   7.886  21.050  0.3541 -0.0234 -0.0526
34080W        W76997  31.587   8.582  21.545  0.1300  0.1882  0.0283
34081W        W76998  32.406   4.716  21.988  0.0396 -0.0901 -0.1318
34082W        W76999  29.112   6.701  25.526 -0.0653  0.1077  0.2785
34083W        W77000  30.404   6.265  21.704  0.0994  0.0607 -0.3372
34084W        W77001  29.543   7.024  25.734  0.1252  0.0821  0.2143
34085W        W77002  30.262   9.848  21.981  0.3823 -0.2533 -0.1874
34086W        W77003  31.598  10.041  19.510  0.1346 -0.0937  0.0029
34087W        W77004  32.392   8.568  21.800 -0.1766 -0.0098  0.0095
34088W        W77005  26.782   6.565  21.582  0.1237 -0.0224  0.1676
34089W        W77006  30.164  10.026  24.036 -0.0067 -0.2061 -0.1237
34090W        W77007  30.053   6.572  23.277  0.0458  0.3851 -0.0138
34091W        W77008  29.061   6.553  24.915  0.0722 -0.2004 -0.0568
34092W        W77009  29.732   9.563  24.178  0.0003  0.1651  0.0432
34093W        W77010  28.305   8.606  21.128 -0.1873 -0.1121  0.3471
34094W        W77011  31.146   7.043  21.660 -0.2046 -0.1883 -0.0321
34095W        W77012  30.551   6.365  20.488 -0.0343 -0.1664  0.1016
34096W        W77013  30.694  10.825  21.090  0.1382 -0.2044  0.0511
34097W        W77014  31.596   9.226  24.596 -0.4568  0.0523  0.0054
34098W        W77015  31.783   9.744  19.854 -0.1592  0.1171 -0.1907
34099W        W77016  30.366   9.935  23.529 -0.1653  0.2687 -0.2887
34100W        W77017  31.676   9.640  22.287 -0.0634  0.0171  0.1426
34101W        W77018  31.388   7.734  24.189 -0.0088  0.0415  0.0989
34102W        W77019  29.010   8.060  21.423 -0.2685  0.0466  0.3067
34103W        W77020  29.543  11.528  22.278  0.2413  0.0379 -0.1263
34104W        W77021  30.399   9.889  21.505 -0.0638 -0.1249 -0.0764
34105W        W77022  28.851   7.736  23.921 -0.1052 -0.0766  0.1830
34106W        W77023  32.584   9.905  22.355  0.0831 -0.3407 -0.0700
34107W        W77024  31.216   9.228  21.120  0.1897  0.2760  0.2575
34108W        W77025  29.916   8.439  23.446  0.4116  0.0044  0.0366
34109W        W77026  32.609   8.190  23.153  0.1662  0.3660  0.3455
34110W        W77027  32.592   9.473  22.805 -0.1537  0.0952 -0.0511
34111W        W77028  33.697   9.453  23.484  0.2954  0.1829  0.0077
34112W        W77029  28.353   7.409  22.422  0.0495 -0.0198 -0.0870
34113W        W77030  30.260  12.243  20.880 -0.0061  0.2696 -0.1687
34114W        W77031  29.361  10.326  23.441 -0.2145  0.0918  0.2168
34115W        W77032  27.716   7.745  22.435 -0.1537  0.0344  0.1818
34116W        W77033  30.840   9.250  22.036 -0.2740  0.0020 -0.1017
34117W        W77034  30.955   7.594  22.559 -0.1035  0.3683  0.2564
34118W        W77035  29.097   7.421  24.646  0.1614 -0.0699 -0.1202
34119W        W77036  28.697   8.935  23.184  0.1045  0.3706  0.4531
34120W        W77037  27.045   9.644  22.256  0.1664 -0.1053  0.0376
34121W        W77038  29.512   8.960  22.697  0.1857 -0.1637 -0.2567
34122W        W77039  29.459   8.478  22.693  0.0630  0.0349  0.1047
34123W        W77040  33.395   7.727  20.920  0.0945 -0.0103  0.0058
34124W        W77041  30.344   9.335  25.453 -0.1267  0.3837  0.0533
34125W        W77042  31.414   9.163  19.297  0.0079 -0.0202  0.2324
34126W        W77043  31.831   6.510  21.450  0.2090 -0.0924 -0.0292
34127W        W77044  31.659   7.614  20.617  0.1017 -0.3529  0.2352
34128W        W77045  29.291   8.570  24.070  0.2508 -0.1769  0.1012
34129W        W77046  29.435   8.201  22.212  0.0203 -0.0090 -0.0080
34130W        W77047  29.604   9.936  21.922 -0.1281 -0.1518  0.0567
34131W        W77048  29.851   8.045  18.143  0.0225  0.0093 -0.1942
34132W        W77049  32.063  10.495  20.817  0.1818  0.0495  0.1572
34133W        W77050  31.154   9.966  23.384  0.1311 -0.1769 -0.0723
34134W        W77051  30.822   9.346  23.917 -0.1133  0.3761  0.0661
34135W        W77052  32.260   9.530  22.408 -0.1697  0.0670 -0.2222
34136W        W77053  31.273   8.051  22.774 -0.3880  0.0341 -0.1252
34137W        W77054  29.611   8.543  19.784  0.1860  0.1372  0.1192
34138W        W77055  30.463   9.465  20.637 -0.2421 -0.2911 -0.0465
34139W        W77056  29.955  11.506  20.017  0.1358 -0.1337 -0.0711
34140W        W77057  33.519   7.874  22.456  0.1109 -0.0581 -0.1152
34141W        W77058  31.565   7.311  21.990  0.1776  0.0440  0.0840
34142W        W77059  30.794   7.762  23.036 -0.1442 -0.0087 -0.1208
34143W        W77060  31.760   8.804  24.662 -0.0416  0.0263  0.2362
34144W        W77061  33.842   6.043  20.927 -0.2512 -0.1034  0.2244
34145W        W77062  30.530   6.782  23.728  0.2672  0.4187 -0.0780
34146W        W77063  29.116   5.955  21.586 -0.0508  0.0538 -0.1749
34147W        W77064  31.997   7.452  22.199 -0.2294 -0.0749  0.2555
34148W        W77065  30.523   7.073  24.612  0.0063 -0.1024 -0.0026
34149W        W77066  29.926   9.476  22.128  0.1057 -0.1417  0.3973
34150W        W77067  31.657   8.357  24.875  0.1613 -0.2488  0.0247
34151W        W77068  32.459   7.742  20.231 -0.1177 -0.1806 -0.0307
34152W        W77069  30.989   7.899  25.010  0.0964 -0.3016 -0.1060
34153W        W77070  28.965   8.324  20.097 -0.1393 -0.0898 -0.0285
34154W        W77071  30.314   9.168  21.417  0.5170 -0.4205  0.0939
34155W        W77072  29.147   8.017  20.602 -0.5495 -0.2830 -0.1760
34156W        W77073  30.992   7.602  21.737 -0.2692  0.0874 -0.0662
34157W        W77074  30.430   8.819  23.102 -0.1339  0.0511  0.3186
34158W        W77075  29.312   8.771  20.118 -0.3379 -0.0011  0.0272
34159W        W77076  30.922   8.330  24.590  0.5518  0.0261  0.1402
34160W        W77077  27.552   9.792  23.755  0.2595  0.1178  0.6178
34161W        W77078  34.382   7.831  23.604 -0.4496  0.0408 -0.1241
34162W        W77079  28.307  10.141  23.378  0.1684  0.1951  0.0491
34163W        W77080  30.031   6.263  20.628  0.1897 -0.1791 -0.3915
34164W        W77081  25.979   7.467  24.406  0.1101  0.1990  0.2273
34165W        W77082  29.942   6.375  21.637 -0.1214  0.1549 -0.2715
34166W        W77083  32.783   8.801  21.426  0.0355  0.3263  0.0290
34167W        W77084  31.933   7.583  24.405 -0.0906 -0.3580 -0.0524
34168W        W77085  31.229   7.032  22.976 -0.0217  0.0965  0.2981
34169W        W77086  29.658  10.942  22.590  0.1903  0.1152  0.1714
34170W        W77087  32.573   7.841  22.744 -0.2251 -0.3765  0.2478
34171W        W77088  32.168   8.578  19.071  0.0343 -0.3869 -0.1873
34172W        W77089  28.754   9.307  22.876 -0.0948 -0.1122 -0.2828
34173W        W77090  29.531   9.810  23.353 -0.2470 -0.1693 -0.0043
34174W        W77091  26.684   8.022  21.796 -0.2939  0.0088 -0.3025
34175W        W77092  31.468   9.002  23.570 -0.1353 -0.0411  0.0824
34176W        W77093  28.966   8.171  23.304  0.1046 -0.1961  0.0601
34177W        W77094  28.358   8.235  22.399 -0.5394 -0.4996 -0.0683
34178W        W77095  29.672   9.209  21.352 -0.0693 -0.0968  0.2144
34179W        W77096  30.029   9.103  20.961  0.0211 -0.2267  0.1113
34180W        W77097  27.925   7.540  23.172 -0.0556  0.0427 -0.0206
34181W        W77098  30.521   9.639  26.299 -0.0734 -0.1253  0.1157
34182W        W77099  30.469   9.021  23.952  0.0033  0.0276 -0.2092
34183W        W77100  28.236   6.958  22.448  0.0826 -0.0193  0.2432
34184W        W77101  30.216   7.949  22.426  0.3661  0.1949  0.0891
34185W        W77102  30.677   9.889  21.121  0.0551  0.1419 -0.2293
34186W        W77103  31.299   7.528  22.969 -0.1480  0.2066  0.2483
34187W        W77104  30.111   8.871  23.514  0.0383 -0.1370  0.3441
34188W        W77105  30.460   8.592  24.481  0.0558 -0.0222  0.0543
34189W        W77106  30.893   5.539  21.865  0.0871 -0.1485  0.2038
34190W        W77107  32.344  10.859  20.919  0.1509  0.0435 -0.1493
34191W        W77108  31.243   9.239  25.430 -0.1060 -0.0101 -0.2047
34192W        W77109  31.965   8.234  21.718 -0.1687  0.0288  0.1357
34193W        W77110  27.920   8.038  23.299  0.0717  0.0039 -0.1262
34194W        W77111  30.246  10.222  21.182  0.0546 -0.1280 -0.0611
34195W        W77112  32.265  10.061  21.789  0.0050 -0.0673  0.2003
34196W        W77113  29.968   8.937  22.525 -0.2004  0.0770  0.0580
34197W        W77114  28.666   8.362  21.966  0.1421 -0.2318  0.0524
34198W        W77115  27.898  10.680  23.997  0.0700  0.0448 -0.1541
34199W        W77116  32.127   6.532  21.853 -0.0487 -0.0178 -0.2360
34200W        W77117  30.251   9.572  21.107 -0.1527 -0.1716  0.0512
34201W        W77118  29.415   7.449  20.889  0.1616 -0.1419 -0.0530
34202W        W77119  31.350   7.307  22.516  0.4114 -0.0580  0.1664
34203W        W77120  30.821  11.166  20.719  0.0829  0.0392  0.0843
34204W        W77121  30.601   8.715  23.628 -0.0821 -0.1718 -0.0832
34205W        W77122  31.011   8.215  25.436  0.0661 -0.0856  0.1330
34206W        W77123  29.961   8.451  22.389  0.1869 -0.1238 -0.2465
34207W        W77124  29.353   6.629  25.972 -0.1196  0.0225  0.1613
34208W        W77125  31.278  12.004  25.843 -0.0281 -0.3908 -0.1957
34209W        W77126  29.133   9.617  24.634 -0.2007  0.0547  0.0523
34210W        W77127  30.717   9.376  21.057  0.2717  0.1749  0.1091
34211W        W77128  28.066   6.572  22.172 -0.2063 -0.1980 -0.0413
34212W        W77129  29.336   8.066  22.960 -0.0652  0.3843 -0.1066
34213W        W77130  31.165   8.588  22.761 -0.3429 -0.2752 -0.2902
34214W        W77131  30.761  10.324  21.919 -0.2042 -0.1647  0.0309
34215W        W77132  31.919   7.999  23.513 -0.0166 -0.0945 -0.3007
34216W        W77133  29.552   8.229  24.482  0.1124 -0.1803  0.3787
34217W        W77134  29.437   7.948  21.035 -0.2845  0.3762  0.1184
34218W        W77135  29.507   9.503  21.755  0.1650  0.2339  0.2180
34219W        W77136  30.995   9.643  23.007  0.0404 -0.0200  0.3328
34220W        W77137  30.397   7.501  23.135  0.0387 -0.2298  0.2845
34221W        W77138  32.703   9.248  21.206 -0.2045  0.0108 -0.0061
34222W        W77139  29.453   7.584  22.817  0.1497  0.3021  0.0380
34223W        W77140  31.648   7.486  19.587 -0.0633  0.3359  0.2450
34224W        W77141  30.118   9.663  25.128 -0.0682 -0.0259 -0.1545
34225W        W77142  29.750   8.394  23.965 -0.1659  0.0235 -0.1410
34226W        W77143  27.995   6.899  23.968 -0.2100  0.0775 -0.0670
34227W        W77144  33.428  10.258  23.847  0.1167  0.1496 -0.1685
34228W        W77145  33.289   9.062  21.303 -0.2006  0.2509  0.1634
34229W        W77146  33.580   7.610  23.528 -0.2072  0.1375  0.3290
34230W        W77147  32.691   6.935  21.240 -0.1711 -0.0418 -0.2242
34231W        W77148  29.614   8.961  20.418 -0.1505 -0.0370  0.1575
34232W        W77149  31.054   7.688  23.743 -0.1574 -0.0219 -0.2841
34233W        W77150  30.355   9.294  23.495  0.0354  0.0674  0.5263
34234W        W77151  29.448   8.064  20.141  0.1673  0.2481 -0.0924
34235W        W77152  30.828   8.862  24.348 -0.0585  0.2424 -0.1854
34236W        W77153  30.905  10.047  23.800  0.2440  0.0663  0.0578
34237W        W77154  31.770   9.882  21.726  0.2010  0.2357  0.0992
34238W        W77155  29.936   8.623  22.963 -0.0980  0.0741  0.2712
34239W        W77156  30.763   8.207  22.592  0.1657  0.3392  0.5710
34240W        W77157  30.030  11.694  22.172  0.3538  0.1613  0.1007
34241W        W77158  30.350   8.439  20.240 -0.1758  0.1100 -0.0748
34242W        W77159  30.962   8.675  21.858 -0.1241  0.1983  0.2202
34243W        W77160  32.516   9.267  23.374  0.1298 -0.3370 -0.0757
34244W        W77161  31.898   9.964  24.413 -0.2208 -0.3236  0.1027
34245W        W77162  31.250   6.125  19.228 -0.0025 -0.4309  0.0642
34246W        W77163  30.938   9.792  24.705 -0.0193 -0.0758  0.0552
34247W        W77164  30.584  11.585  22.144  0.2033  0.2743  0.0767
34248W        W77165  29.609   6.024  21.646 -0.0676 -0.3355  0.0500
34249W        W77166  28.597   9.416  21.870  0.0330  0.0080  0.1378
34250W        W77167  29.436  10.286  22.472  0.1517  0.0070  0.0477
34251W        W77168  29.860  10.466  22.605 -0.0572  0.2798 -0.1184
34252W        W77169  31.184   7.953  23.291  0.1286 -0.0425 -0.2397
34253W        W77170  30.493   8.859  21.061  0.0331 -0.0632  0.0970
34254W        W77171  29.920   7.832  21.565  0.1133 -0.0285 -0.2652
34255W        W77172  33.740   7.811  24.002  0.2968 -0.2657  0.1854
34256W        W77173  30.462   9.499  22.303 -0.0664  0.3207 -0.0903
34257W        W77174  29.063   7.921  24.846 -0.0152  0.1248 -0.1659
34258W        W77175  28.800  10.188  23.491 -0.0398  0.4144 -0.0944
34259W        W77176  33.164   8.541  21.097  0.4143 -0.4971 -0.1561
34260W        W77177  29.960   9.617  20.643 -0.3020 -0.2141  0.0565
34261W        W77178  28.462   8.334  25.445  0.1810 -0.1822 -0.1365
34262W        W77179  29.432   8.649  24.674 -0.1955 -0.2267 -0.0344
34263W        W77180  31.883   9.043  22.186  0.0322  0.0524 -0.1398
34264W        W77181  28.483   6.020  22.314 -0.0572 -0.0543  0.0178
34265W        W77182  29.738  10.109  20.537  0.0323  0.3804  0.3932
34266W        W77183  27.991   9.762  23.449  0.1511  0.0527 -0.0458
34267W        W77184  28.445   6.960  23.604 -0.3016 -0.4984  0.1666
34268W        W77185  28.948  10.584  22.125  0.0954  0.2207 -0.0885
34269W        W77186  31.008   7.304  22.080  0.4136 -0.3580 -0.1468
34270W        W77187  31.569   9.177  20.708 -0.0913 -0.1081  0.0272
34271W        W77188  30.884   8.992  22.964 -0.2104 -0.0759  0.3663
34272W        W77189  30.111   6.675  19.892 -0.1844  0.0713  0.4744
34273W        W77190  29.399  10.700  22.177 -0.3616 -0.0762  0.0234
34274W        W77191  29.061   9.383  21.555  0.2425 -0.1504  0.0833
34275W        W77192  30.968  11.265  21.199  0.0864  0.0697  0.0775
34276W        W77193  29.627  12.289  23.587  0.0585 -0.1992 -0.2322
34277W        W77194  31.882  10.911  25.067  0.1520 -0.4603  0.2474
34278W        W77195  30.909   8.450  20.146 -0.1487 -0.0355 -0.1932
34279W        W77196  33.490   8.112  21.297  0.0810 -0.1103  0.0915
34280W        W77197  31.521   5.607  22.891 -0.0565  0.2165  0.1168
34281W        W77198  31.083   8.770  25.491 -0.3090 -0.2348  0.0440
34282W        W77199  29.203   7.952  25.323  0.4399 -0.3025 -0.0250
34283W        W77200  30.552   7.565  22.063 -0.1661  0.0255 -0.1115
34284W        W77201  30.665   9.809  24.221  0.1751  0.2209  0.1675
34285W        W77202  31.881   6.118  23.662  0.4544 -0.0969 -0.0559
34286W        W77203  29.783  11.465  23.902 -0.0771  0.1826  0.1407
34287W        W77204  32.616  10.215  20.859 -0.2939  0.2003 -0.2211
34288W        W77205  27.214   7.662  21.587 -0.0005 -0.0478  0.1120
34289W        W77206  28.234   7.789  22.094  0.5003  0.0079  0.1418
34290W        W77207   0.294   6.245  21.679  0.0266  0.0579  0.0543
34291W        W77208  31.195   7.615  20.436 -0.1233  0.0352 -0.0168
34292W        W77209  30.543   7.751  21.569 -0.0455 -0.2304 -0.3153
34293W        W77210  28.292   8.852  24.070 -0.0872  0.2389 -0.0391
34294W        W77211  30.042   8.417  20.722 -0.1534 -0.1470  0.1927
34295W        W77212  29.896  10.103  23.554  0.1376 -0.0741 -0.0125
34296W        W77213  28.330   6.634  19.414 -0.1060  0.1001  0.1579
34297W        W77214  31.691   8.205  22.551 -0.0967 -0.0247 -0.1694
34298W        W77215  31.334   6.418  24.532  0.0858  0.1742 -0.5699
34299W        W77216  33.115   7.256  24.171  0.1506 -0.0961  0.1928
34300W        W77217  31.049   6.919  21.219 -0.0136  0.1164 -0.0090
34301W        W77218  31.927   7.452  21.166 -0.4976 -0.1369  0.3590
34302W        W77219  30.034   8.316  21.496 -0.1002  0.3106 -0.0180
34303W        W77220  29.776   7.366  25.422  0.0836  0.0618  0.3774
34304W        W77221  31.307   6.618  20.829 -0.3108 -0.2599  0.0681
34305W        W77222  30.376   9.111  22.661  0.2036  0.3589  0.2668
34306W        W77223  29.777  10.438  22.094 -0.0894  0.1662  0.0344
34307W        W77224  30.991  10.674  23.486 -0.3202  0.2013  0.0746
34308W        W77225  30.411   8.330  23.348 -0.1918 -0.0056 -0.1075
34309W        W77226  30.031   7.124  21.085  0.2745  0.1029 -0.0089
34310W        W77227  30.095  10.912  21.758  0.0631  0.0804  0.0581
34311W        W77228  29.509   9.458  23.048  0.2084  0.0901  0.1783
34312W        W77229  31.664  10.575  23.312  0.0628  0.1321 -0.2187
34313W        W77230  29.834   7.928  23.741 -0.2553 -0.2199  0.2428
34314W        W77231  32.169   9.038  20.316  0.1420 -0.1369  0.1763
34315W        W77232  31.324   8.215  21.239 -0.0243 -0.0797 -0.2491
34316W        W77233  31.480  10.419  21.706 -0.2108  0.1518  0.0838
34317W        W77234  31.440   9.732  20.555 -0.1541  0.1470 -0.1225
34318W        W77235  33.088   8.238  23.759 -0.0261  0.3281  0.0881
34319W        W77236  27.643   7.527  23.842  0.0791  0.0279  0.3875
34320W        W77237  30.838  11.561  23.046  0.2040  0.0918 -0.1856
34321W        W77238  30.989   9.294  22.562 -0.0208  0.0485 -0.1305
34322W        W77239  31.338   6.529  21.579 -0.2675 -0.1022 -0.0637
34323W        W77240  28.194   8.510  21.958 -0.0564 -0.1369 -0.1447
34324W        W77241  29.511   9.402  22.299  0.2329  0.0094 -0.2524
34325W        W77242  31.937   8.805  22.929 -0.2350 -0.0615  0.1846
34326W        W77243  29.970   8.611  21.913  0.0018  0.0342 -0.3288
34327W        W77244  30.826   9.875  20.531 -0.3811  0.3115 -0.1393
34328W        W77245  31.585   5.960  23.242  0.0046 -0.2705  0.0595
34329W        W77246  29.760  11.032  23.085 -0.4681 -0.1912  0.2237
34330W        W77247  29.820  11.410  24.626  0.0015  0.4846 -0.0816
34331W        W77248  30.507   7.006  21.258  0.3755 -0.2928  0.0480
34332W        W77249  31.577   8.680  20.530 -0.0280 -0.1427 -0.2178
34333W        W77250  28.673   7.837  21.760 -0.1343 -0.1621 -0.1156
34334W        W77251  30.977   9.980  22.627 -0.3169  0.0412 -0.1804
34335W        W77252  32.208   8.596  22.376  0.3719  0.3837 -0.3557
34336W        W77253  32.662   7.828  20.772  0.2511 -0.3750 -0.2409
34337W        W77254  32.294   9.046  22.555 -0.2293 -0.1983  0.1752
34338W        W77255  30.822   7.380  21.293 -0.2260  0.1346 -0.0776
34339W        W77256  30.959   6.912  22.445  0.1320 -0.0375 -0.4251
34340W        W77257  32.511   7.377  22.412  0.0856 -0.0902  0.2605
34341W        W77258  28.794   8.881  24.165  0.0394 -0.2811 -0.2918
34342W        W77259  29.410  10.196  21.494  0.1275  0.1555 -0.0281
34343W        W77260  29.060   9.183  18.725 -0.0153 -0.2357 -0.0104
34344W        W77261  31.870   8.646  23.519  0.1768 -0.0426  0.2566
34345W        W77262  30.997   5.039  24.929 -0.0791  0.2810  0.0517
34346W        W77263  30.029   6.927  25.249 -0.1473 -0.0387  0.1546
34347W        W77264  28.969   8.516  22.939 -0.1413  0.3316  0.1617
34348W        W77265  30.981   7.412  23.307 -0.0572 -0.3927  0.1105
34349W        W77266  29.737  10.482  21.119  0.1146 -0.0739  0.0210
34350W        W77267  30.515   8.449  22.208 -0.2559 -0.2569 -0.0553
34351W        W77268  30.566   6.595  24.565 -0.1774 -0.0639  0.2982
34352W        W77269  31.568  10.078  22.384  0.0833  0.2178 -0.1912
34353W        W77270  30.396   8.551  22.671 -0.1041  0.0050 -0.1349
34354W        W77271  28.974   8.395  22.441  0.1593  0.0736 -0.0956
34355W        W77272  32.352   8.821  23.837  0.1438  0.2957 -0.0658
34356W        W77273  27.321   7.685  21.101 -0.3696 -0.0898  0.2556
34357W        W77274  32.653   7.542  25.201 -0.0478 -0.2160 -0.3532
34358W        W77275  30.442   6.805  26.357 -0.2057  0.2767 -0.0630
34359W        W77276  27.354   6.930  19.797 -0.0313 -0.3997 -0.1060
34360W        W77277  31.573   8.563  25.474  0.0221  0.1063 -0.2947
34361W        W77278  29.949  10.139  21.560  0.0765  0.1646  0.2848
34362W        W77279  31.677  10.751  21.168 -0.0581  0.0412 -0.0060
34363W        W77280  29.877   9.971  22.391  0.0436 -0.1217  0.1678
34364W        W77281  28.461  10.568  24.673  0.2135 -0.1503  0.0692
34365W        W77282  29.589   6.214  26.647  0.3063  0.0345  0.2300
34366W        W77283  31.163   7.388  19.850  0.0718 -0.2965 -0.2042
34367W        W77284  30.747   7.200  22.853 -0.0847  0.2587  0.0844
34368W        W77285  33.662   9.115  22.201  0.1785  0.2300 -0.1071
34369W        W77286  31.902   7.921  22.147 -0.0943 -0.0637  0.3277
34370W        W77287  29.550   7.140  22.122  0.1567  0.0220  0.3409
34371W        W77288  28.752   5.688  23.718 -0.4249 -0.0081 -0.0006
34372W        W77289  30.681   7.323  23.718 -0.2178  0.0550  0.0965
34373W        W77290  28.366  10.102  24.460 -0.3206 -0.2956  0.1997
34374W        W77291  29.228   9.043  23.119  0.1883  0.2091 -0.2477
34375W        W77292  30.198   7.270  21.589 -0.0291 -0.2012  0.0601
34376W        W77293  31.747   9.509  19.380 -0.4684 -0.1556  0.0049
34377W        W77294  30.086   8.374  25.462 -0.0046 -0.5016 -0.0606
34378W        W77295  30.670   8.553  18.831 -0.2639  0.3088 -0.4107
34379W        W77296  32.435   7.812  22.270  0.1391  0.1888  0.2400
34380W        W77297  32.374   8.467  22.812 -0.2126 -0.0075 -0.0511
34381W        W77298  32.278   7.831  23.140  0.1933  0.0586  0.2871
34382W        W77299  28.855   8.987  21.724  0.0519 -0.0163 -0.2508
34383W        W77300  32.429   7.361  21.361  0.0240  0.1361 -0.0893
34384W        W77301  31.577  11.975  21.932 -0.0403 -0.1465  0.3400
34385W        W77302  32.126  11.379  25.138  0.0299  0.0168  0.1689
34386W        W77303  29.194  10.095  26.260 -0.0468  0.1726 -0.0610
34387W        W77304  31.759   7.136  20.708 -0.2617  0.0160  0.0308
34388W        W77305  30.550   6.721  22.791  0.0577  0.0369 -0.0029
34389W        W77306  27.792   9.801  22.003 -0.1075  0.0899  0.0076
34390W        W77307  33.059   8.329  21.513  0.1199  0.2108  0.1361
34391W        W77308  32.288   6.963  22.639 -0.1534 -0.2367 -0.1468
34392W        W77309  30.670   6.950  23.264 -0.2058 -0.2776 -0.3154
34393W        W77310  32.044   7.260  21.651  0.0580  0.2290 -0.1125
34394W        W77311  28.364   9.587  23.770 -0.1495 -0.1679  0.0109
34395W        W77312  32.326  10.232  18.983 -0.0296  0.0080  0.1902
34396W        W77313  30.010   9.185  27.862  0.0185 -0.0746  0.0020
34397W        W77314  28.748  11.264  25.565 -0.2504  0.2442  0.0369
34398W        W77315  31.488   8.524  25.938 -0.2242  0.2390 -0.0135
34399W        W77316  33.764   7.787  23.099 -0.1464  0.1513  0.1485
34400W        W77317  28.598  10.415  25.503  0.0094 -0.2812 -0.3380
34401W        W77318  32.227  10.204  25.766  0.1604 -0.0901 -0.0777
34402W        W77319  30.218   6.946  26.909 -0.0746  0.3084 -0.1791
34403W        W77320  32.917  10.214  26.387 -0.0837 -0.1073  0.3301
34404W        W77321  33.397   9.165  25.735 -0.2046  0.1192  0.0010
34405W        W77322  32.389  10.075  24.475 -0.1326 -0.0513 -0.3875
34406W        W77323  31.896   7.773  28.144  0.0791  0.0506  0.1612
34407W        W77324  31.037   8.142  26.928  0.0701 -0.1792 -0.1710
34408W        W77325  30.849   6.226  24.287 -0.1327  0.0133 -0.2360
34409W        W77326  30.033   5.628  27.283  0.0463 -0.1166  0.0311
34410W        W77327  32.553  10.036  26.681 -0.2825  0.0860  0.0054
34411W        W77328  27.458  10.365  22.898 -0.0775 -0.2481 -0.0295
34412W        W77329  29.358   6.702  27.829  0.0646 -0.0646  0.0735
34413W        W77330  28.061   6.589  26.502  0.4648 -0.1065 -0.2349
34414W        W77331  29.456  10.377  27.184  0.1897 -0.1499  0.1923
34415W        W77332  32.409   7.049  28.743 -0.0827  0.1757  0.1804
34416W        W77333  31.936   6.024  28.283  0.2357 -0.1290 -0.1423
34417W        W77334  30.878   9.677  25.308  0.1792  0.2018 -0.3835
34418W        W77335  30.535  10.006  25.084  0.0075  0.1603 -0.1437
34419W        W77336  28.875   7.763  25.757  0.0838  0.0026  0.0203
34420W        W77337  30.067   7.821  26.083  0.1578 -0.2371  0.2624
34421W        W77338  32.885   8.434  28.812 -0.0802  0.1844 -0.0240
34422W        W77339  31.257   9.999  25.161 -0.0160  0.0892  0.1855
34423W        W77340  30.993   9.353  26.205 -0.0290 -0.0596  0.1374
34424W        W77341  31.613  10.804  26.076 -0.1082 -0.3804 -0.2911
34425W        W77342  33.651   7.989  27.916 -0.0699 -0.0526 -0.3280
34426W        W77343  30.472  10.160  24.609 -0.1383  0.1330  0.0450
34427W        W77344  31.266  11.000  25.088  0.1889  0.1686  0.1053
34428W        W77345  29.139  11.578  25.581  0.1604  0.1081  0.0393
34429W        W77346  31.353  11.016  24.218  0.0004  0.1940  0.2429
34430W        W77347  31.679   9.258  26.581 -0.1120 -0.1434 -0.1712
34431W        W77348  29.965  10.267  29.229 -0.0102 -0.1842 -0.2318
34432W        W77349  29.030   9.988  25.134 -0.0898 -0.1400  0.3059
34433W        W77350  32.636   9.532  26.856 -0.4027 -0.1880 -0.0967
34434W        W77351  26.753   8.826  27.152  0.0620  0.3775  0.0534
34435W        W77352  31.868   7.601  27.368 -0.2340 -0.1433  0.4026
34436W        W77353  31.775   7.820  24.832 -0.3449 -0.2159  0.3699
34437W        W77354  28.837   8.741  24.798  0.1153 -0.1184  0.0818
34438W        W77355  29.939   9.583  25.648 -0.2905 -0.0186 -0.0589
34439W        W77356  28.540  10.423  27.364 -0.1599 -0.1828 -0.1642
34440W        W77357  29.175  10.158  25.688 -0.2740 -0.1073 -0.1431
34441W        W77358  34.219   8.042  28.663  0.2241 -0.0364 -0.5082
34442W        W77359  31.057  12.207  25.340 -0.1439  0.0439  0.0223
34443W        W77360  32.580   7.363  25.798  0.2625  0.0012  0.0210
34444W        W77361  30.974   8.441  25.938  0.0160  0.1890 -0.1292
34445W        W77362  33.221   7.213  25.130 -0.0950 -0.0465 -0.1407
34446W        W77363  29.783   8.243  27.346  0.2382 -0.6100 -0.1827
34447W        W77364  30.486  11.451  27.391 -0.0712 -0.3006 -0.2192
34448W        W77365  30.517   7.880  27.861  0.1220 -0.0370 -0.0702
34449W        W77366  32.240   8.449  27.450  0.0837 -0.1929 -0.0396
34450W        W77367  32.235   8.520  24.743 -0.0440 -0.2192  0.2858
34451W        W77368  32.109   9.264  26.860  0.0320 -0.0293  0.1470
34452W        W77369  29.158  10.627  26.209 -0.3150  0.3107  0.0684
34453W        W77370  31.567   6.608  24.958  0.1990 -0.2743  0.3054
34454W        W77371  32.656  10.532  24.437 -0.1930 -0.0087  0.2414
34455W        W77372  33.141   9.785  25.979  0.0157  0.1312  0.1215
34456W        W77373  30.349   8.557  25.068 -0.1502  0.0223  0.1041
34457W        W77374  27.252   8.630  24.522  0.0216 -0.1021  0.0057
34458W        W77375  31.333   9.218  28.051  0.0290  0.0736  0.3406
34459W        W77376  28.081   9.098  26.333  0.2530 -0.1001 -0.2618
34460W        W77377  28.997   5.303  22.199 -0.1473  0.0845  0.4337
34461W        W77378  34.374   9.438  25.990  0.3651  0.2342  0.0099
34462W        W77379  27.202  10.676  24.502 -0.0222  0.2867 -0.1580
34463W        W77380  32.505   6.054  24.595 -0.2106  0.0236  0.1557
34464W        W77381  29.462   9.954  24.866  0.0995 -0.3765 -0.0641
34465W        W77382  29.407   9.449  25.971  0.1284  0.2760  0.1540
34466W        W77383  30.995   9.862  26.243 -0.2204 -0.0939 -0.0595
34467W        W77384  31.102   7.424  24.750  0.0824 -0.0980 -0.0366
34468W        W77385  32.301   5.477  28.118 -0.2054  0.2004 -0.5633
34469W        W77386  29.340   8.765  25.189  0.0163 -0.1102  0.2994
34470W        W77387  30.753   8.759  24.871 -0.2271 -0.2616 -0.1025
34471W        W77388  31.456   9.663  27.960  0.2087 -0.3001 -0.0566
34472W        W77389  33.094   8.063  24.744 -0.2622  0.0954 -0.0181
34473W        W77390  29.435   9.593  28.071 -0.2501  0.3688  0.3596
34474W        W77391  31.500   9.533  28.423  0.1333  0.1148 -0.1763
34475W        W77392  30.904   9.065  27.719  0.1657 -0.1532  0.1524
34476W        W77393  26.630  10.629  24.554  0.0445  0.0407  0.2502
34477W        W77394  30.221   9.780  26.705  0.2635 -0.0929  0.3556
34478W        W77395  28.776   9.289  24.506 -0.0317 -0.3071 -0.0693
34479W        W77396  29.983  10.225  26.842  0.0807 -0.0568  0.4702
34480W        W77397  31.087   7.494  27.712 -0.4453  0.1993  0.0064
34481W        W77398  32.577   7.032  24.140  0.0008  0.0293 -0.2234
34482W        W77399  31.316   7.661  28.325 -0.1885  0.0077  0.0093
34483W        W77400  31.837   5.045  24.604  0.1012  0.1322  0.0421
34484W        W77401  30.292  11.014  24.533  0.0474 -0.0115 -0.0339
34485W        W77402  32.618   9.551  24.737  0.3302 -0.0611 -0.2506
34486W        W77403  32.280   7.893  25.125 -0.0700  0.1170 -0.2877
34487W        W77404  31.154  10.444  26.181 -0.0308 -0.2244 -0.0610
34488W        W77405  26.551  10.265  25.673  0.4017 -0.0679 -0.0350
34489W        W77406  30.066   8.869  26.138  0.1013  0.1299  0.2457
34490W        W77407  32.147   8.230  29.980 -0.3864  0.0783  0.1440
34491W        W77408  29.845   9.602  26.219 -0.1361 -0.2835 -0.4547
34492W        W77409  30.332   9.255  28.501 -0.1759  0.0276 -0.4827
34493W        W77410  31.032   6.735  25.919 -0.0792  0.3131  0.1548
34494W        W77411  30.555   6.287  26.767  0.0520 -0.0804 -0.0042
34495W        W77412  30.687   8.999  25.347 -0.0972 -0.1375 -0.1080
34496W        W77413  27.684   8.954  25.628 -0.2363 -0.1041 -0.3166
34497W        W77414  34.040   8.209  27.728 -0.0187  0.0199  0.2984
34498W        W77415  30.870  10.177  25.853  0.1848 -0.0624 -0.1567
34499W        W77416  33.221  10.028  26.769 -0.1169 -0.2081 -0.1202
34500W        W77417  32.982   9.113  24.068  0.2256 -0.2137  0.0338
34501W        W77418  30.284   8.691  28.203 -0.1155 -0.1205  0.1510
34502W        W77419  28.537   8.485  26.377  0.0942  0.1670 -0.0504
34503W        W77420  27.198  12.530  24.669 -0.1564 -0.1123 -0.2323
34504W        W77421  30.549  10.286  26.979  0.3406 -0.2800  0.4614
34505W        W77422  29.660   8.047  26.267  0.0236  0.3071 -0.1097
34506W        W77423  33.858  10.090  25.415 -0.0010 -0.1555 -0.2806
34507W        W77424  30.727   7.484  25.109  0.4202 -0.1627 -0.2416
34508W        W77425  26.875   8.217  25.623  0.0216  0.1172 -0.2587
34509W        W77426  33.305   7.356  29.066  0.0429 -0.0919 -0.1937
34510W        W77427  32.298   8.002  27.182  0.2280 -0.1394  0.2448
34511W        W77428  29.812   9.166  25.816  0.3226  0.2142  0.2750
34512W        W77429  28.572   8.136  25.961 -0.1880 -0.3306  0.0175
34513W        W77430  31.027   9.736  27.372 -0.2068  0.1119  0.0747
34514W        W77431  29.237  10.389  24.901  0.2067 -0.0329 -0.2072
34515W        W77432  28.969   9.719  26.016  0.2216 -0.1470 -0.1310
34516W        W77433  31.660   9.573  25.506 -0.0137  0.0851 -0.1516
34517W        W77434  32.773   6.127  25.843  0.2117 -0.0178 -0.1326
34518W        W77435  29.327   9.135  29.203  0.1937  0.2000  0.0263
34519W        W77436  32.479   8.498  28.521 -0.1010 -0.1369 -0.0194
34520W        W77437  27.792   7.324  25.143 -0.0041 -0.1673 -0.0851
34521W        W77438  28.629   9.918  28.403 -0.0430 -0.1027 -0.0122
34522W        W77439  30.087   6.774  24.417  0.1076  0.1071  0.2031
34523W        W77440  31.356   8.035  24.668  0.0021 -0.0634  0.0384
34524W        W77441  30.667   9.592  25.791  0.0183 -0.1322 -0.0554
34525W        W77442  30.307   8.795  26.644 -0.1016  0.1545  0.1338
34526W        W77443  31.440   9.519  23.374 -0.0559 -0.2307  0.0442
34527W        W77444  29.704   8.737  25.566 -0.0380 -0.1164  0.0173
34528W        W77445  29.877   8.703  27.871  0.2076  0.1243  0.0363
34529W        W77446  28.847   8.844  25.287 -0.1535  0.2045  0.0900
34530W        W77447  30.294   9.263  26.023 -0.1970 -0.1531 -0.0379
34531W        W77448  30.934   7.825  24.430  0.1454 -0.0787 -0.0496
34532W        W77449  31.451   9.652  24.329  0.4037 -0.0995  0.1086
34533W        W77450  27.232   8.442  27.831 -0.1071 -0.4666 -0.4545
34534W        W77451  29.533   8.757  28.752 -0.0574  0.3708 -0.2289
34535W        W77452  31.496  12.271  26.166  0.0620  0.0883 -0.3584
34536W        W77453  30.583   7.164  27.217  0.1177  0.1668  0.1728
34537W        W77454  30.078   9.608  23.195  0.1079 -0.2359 -0.2618
34538W        W77455  30.214   6.895  27.550  0.1781  0.4185 -0.0498
34539W        W77456  29.036  10.276  23.960 -0.0090  0.2359  0.0002
34540W        W77457  32.848   7.305  27.091  0.1817 -0.2144 -0.0581
34541W        W77458  31.382   8.092  25.754  0.0399  0.3946  0.2436
34542W        W77459  29.395   6.330  27.097 -0.0653 -0.0221 -0.0836
34543W        W77460  33.066   8.743  28.378  0.0618  0.0376  0.1359
34544W        W77461  30.563   8.488  27.026  0.0459  0.3300 -0.1591
34545W        W77462  32.617  10.736  28.244 -0.0693  0.0144 -0.0201
34546W        W77463  29.697   7.742  23.227 -0.4203  0.2849  0.1486
34547W        W77464  31.969   7.903  29.070 -0.0896 -0.1665 -0.0026
34548W        W77465  30.804   8.228  30.099 -0.0660  0.2071  0.0147
34549W        W77466  27.298   9.768  26.503  0.2432 -0.2910 -0.0096
34550W        W77467  30.737  10.686  26.756 -0.1100  0.0156 -0.1126
34551W        W77468  30.325   9.425  27.548 -0.0251 -0.0805 -0.2550
34552W        W77469  31.219   8.031  28.620  0.2418 -0.2706 -0.1224
34553W        W77470  30.877   6.688  25.447 -0.1236 -0.5113  0.1953
34554W        W77471  30.397  10.402  25.905 -0.1773 -0.2232  0.2863
34555W        W77472  29.679   7.929  25.528 -0.1895 -0.0405 -0.2893
34556W        W77473  31.237   6.264  25.991 -0.2538 -0.1214 -0.0691
34557W        W77474  30.265  10.893  25.182  0.1863  0.1382 -0.0274
34558W        W77475  28.840  10.151  24.634 -0.3305 -0.1295  0.0258
34559W        W77476  32.444   8.894  25.860 -0.0051 -0.0336 -0.2453
34560W        W77477  30.312  10.760  23.339 -0.4377 -0.2378  0.1623
34561W        W77478  29.914   7.821  27.056  0.1922  0.0319  0.1517
34562W        W77479  29.809   9.602  24.741 -0.1528 -0.0105 -0.0840
34563W        W77480  31.403   5.615  25.012  0.0770  0.1016 -0.1498
34564W        W77481  29.467   6.190  26.106 -0.3827 -0.2256  0.2570
34565W        W77482  30.089   7.881  26.593  0.2847 -0.1396  0.0758
34566W        W77483  32.748   7.842  26.407  0.0084  0.3503 -0.0828
34567W        W77484  28.772   5.905  25.952 -0.3734 -0.0009 -0.2661
34568W        W77485  31.321   7.110  26.041 -0.4749  0.3694 -0.3483
34569W        W77486  29.663  11.684  25.150  0.0608 -0.1594 -0.0099
34570W        W77487  30.910   8.712  26.336 -0.0985  0.1704  0.1371
34571W        W77488  31.739   7.100  22.904  0.0172  0.0520 -0.2436
34572W        W77489  31.149   9.724  26.766 -0.0589  0.0087  0.1390
34573W        W77490  31.245   7.766  29.020 -0.2950  0.0190 -0.0580
34574W        W77491  29.707   6.614  25.648 -0.3397  0.1003 -0.1691
34575W        W77492  32.528   6.941  26.400  0.2848 -0.2219  0.3348
34576W        W77493  29.992   6.400  25.983  0.0546 -0.0667  0.1205
34577W        W77494  29.990  10.768  25.542 -0.1102  0.1776  0.2043
34578W        W77495  30.699  10.590  27.862  0.0030  0.0572  0.0985
34579W        W77496  29.252   8.417  27.031  0.2356 -0.3990 -0.0024
34580W        W77497  30.457   8.090  24.375 -0.1632 -0.0156  0.2116
34581W        W77498  31.562   8.194  28.302  0.2986  0.2740  0.1378
34582W        W77499  31.218   8.486  28.890  0.0358  0.0829 -0.0772
34583W        W77500  30.457   7.661  26.379 -0.4191  0.0631 -0.0062
34584W        W77501  31.456   8.025  25.210 -0.1679  0.1856 -0.0597
34585W        W77502  32.030   7.125  26.874 -0.4522  0.0098 -0.0035
34586W        W77503  33.717   7.380  25.101  0.0868 -0.1359 -0.1225
34587W        W77504  33.786   7.108  27.764 -0.1759 -0.3242  0.0968
34588W        W77505  28.541  10.776  26.921  0.0651 -0.3325 -0.0576
34589W        W77506  31.812   8.172  26.384 -0.1090  0.0546 -0.1117
34590W        W77507  33.434   9.411  23.035 -0.0124 -0.1339  0.2101
34591W        W77508  33.565   8.094  27.435 -0.0126 -0.1873 -0.0481
34592W        W77509  28.093   8.340  25.786  0.0245 -0.1408 -0.2574
34593W        W77510  28.828   9.073  25.887 -0.0486 -0.0178 -0.2911
34594W        W77511  28.723   7.891  25.241 -0.3038 -0.0872  0.1161
34595W        W77512  28.881   9.348  26.683 -0.0845  0.0350 -0.1891
34596W        W77513  29.129  10.574  25.424 -0.1635  0.0161 -0.1718
34597W        W77514  30.980  11.156  26.739 -0.2331  0.2710 -0.1895
34598W        W77515  28.108   9.155  27.771 -0.0950  0.1487 -0.2264
34599W        W77516  33.082   8.931  24.584  0.0974  0.1288  0.2746
34600W        W77517  30.264   7.160  24.091  0.0407  0.0499  0.1459
34601W        W77518  29.461   7.467  27.023  0.0380 -0.2109 -0.0838
34602W        W77519  33.137   6.962  28.466 -0.1248 -0.2730 -0.1504
34603W        W77520  30.585   9.042  26.371  0.0157  0.0197  0.1105
34604W        W77521  32.372   7.194  29.722 -0.0479  0.2513 -0.1022
34605W        W77522  30.015   7.951  29.201  0.2224 -0.1345  0.1565
34606W        W77523  31.914  10.713  23.746 -0.2114 -0.0294 -0.1141
34607W        W77524  30.272   7.315  25.010  0.0751 -0.2131  0.1716
34608W        W77525  32.362   9.339  27.337  0.2082 -0.0426  0.2473
34609W        W77526  26.260   8.756  27.556 -0.1107 -0.0415  0.1231
34610W        W77527  30.569   7.997  25.322  0.1084 -0.2874  0.2022
34611W        W77528  30.879   7.215  26.154  0.0102  0.1895  0.2159
34612W        W77529  28.624   9.026  27.290 -0.1614  0.1550 -0.2304
34613W        W77530  32.983   8.441  26.486  0.1427 -0.1354 -0.1118
34614W        W77531  30.599   8.466  25.570 -0.1637 -0.0758 -0.1480
34615W        W77532  31.538   8.311  26.784 -0.2886  0.1868  0.0795
34616W        W77533  28.984  10.933  26.765  0.1818 -0.0120 -0.2008
34617W        W77534  31.653   9.018  25.621  0.0457 -0.1059 -0.0549
34618W        W77535  31.113  10.059  24.303 -0.2095 -0.0242  0.3441
34619W        W77536  31.770   9.872  25.905  0.0523 -0.2324  0.1764
34620W        W77537  31.128   8.046  28.028 -0.0660  0.0051 -0.0136
34621W        W77538  31.237   8.977  25.010  0.2560  0.0464  0.0344
34622W        W77539  30.922   7.577  27.031  0.0571 -0.1264 -0.0904
34623W        W77540  32.860   7.238  28.768 -0.0017 -0.0559  0.0558
34624W        W77541  29.402   7.853  28.946 -0.0411  0.0589 -0.1782
34625W        W77542  29.330   8.020  27.274 -0.1622  0.1926  0.1099
34626W        W77543  29.893   9.544  28.200 -0.1781 -0.0568 -0.1353
34627W        W77544  32.225   9.683  25.013 -0.0644 -0.1727  0.0527
34628W        W77545  30.700   8.407  24.036  0.3030  0.1183 -0.2528
34629W        W77546  32.133   7.964  27.705  0.0453  0.0660  0.0710
34630W        W77547  32.550   9.259  24.267 -0.2688  0.2128  0.1431
34631W        W77548  31.971   8.239  25.904 -0.1851 -0.1581 -0.0767
34632W        W77549  28.637   6.951  25.423  0.1814 -0.1685 -0.0499
34633W        W77550  32.849   9.432  27.381  0.0957 -0.2832  0.1388
34634W        W77551  29.192   8.732  25.694  0.0017 -0.0027  0.1367
34635W        W77552  32.305   9.677  28.947 -0.1603 -0.1362  0.0142
34636W        W77553  31.276  11.552  24.025  0.0193  0.0659  0.1768
34637W        W77554  31.731  10.331  25.822  0.0460  0.1481 -0.1826
34638W        W77555  31.617   7.082  26.563 -0.1167  0.0107  0.0912
34639W        W77556  29.629   7.620  26.484 -0.3142  0.1430  0.1719
34640W        W77557  27.115  10.979  25.809  0.0064 -0.3274 -0.1405
34641W        W77558  30.243   8.858  25.603 -0.0682  0.1018  0.0413
34642W        W77559  31.657   6.036  25.016 -0.0847 -0.1518 -0.0453
34643W        W77560  31.321  11.216  27.879 -0.0784 -0.0584  0.2825
34644W        W77561  31.461   8.879  27.723 -0.0805  0.0644  0.3689
34645W        W77562  30.653   6.253  25.265  0.2149 -0.1009  0.2999
34646W        W77563  31.890   7.347  29.978  0.0761  0.1616 -0.3604
34647W        W77564  30.162  11.234  25.550 -0.1990  0.1536 -0.0047
34648W        W77565  30.449   7.638  24.692 -0.1156 -0.0113  0.2233
34649W        W77566  29.851   8.308  25.917 -0.1629 -0.0120 -0.2367
34650W        W77567  30.316   8.265  28.552 -0.4024 -0.1387  0.1908
34651W        W77568  30.133   9.428  27.089 -0.0152  0.0690  0.0141
34652W        W77569  31.804   8.082  27.331 -0.3684 -0.0249  0.3280
34653W        W77570  31.214   8.342  26.441  0.0049 -0.1011  0.0939
34654W        W77571  30.525   7.200  25.463  0.1589 -0.1848  0.4757
34655W        W77572  31.515   8.815  26.353  0.3116  0.1932 -0.1087
34656W        W77573  30.828   9.586  27.829  0.0045  0.0976 -0.1811
34657W        W77574  29.168   7.792  26.700  0.0753 -0.2524 -0.1215
34658W        W77575  32.161   8.584  25.601  0.2525  0.0500 -0.0587
34659W        W77576  31.492  10.044  24.655  0.0830 -0.1756 -0.0883
34660W        W77577  29.907  10.083  26.346  0.2101  0.0494  0.0840
34661W        W77578  29.434   8.577  27.643  0.5865 -0.2853  0.0656
34662W        W77579  29.623   8.284  28.141 -0.1684 -0.2353  0.1780
34663W        W77580  30.909   7.787  26.552  0.1506 -0.3267  0.0357
34664W        W77581  30.159   8.601  27.454  0.3290  0.0845  0.0876
34665W        W77582  32.853   7.796  25.812 -0.1330 -0.0550  0.3259
34666W        W77583  27.838  11.702  26.132  0.2641  0.0439  0.1903
34667W        W77584  27.076   7.478  27.724  0.0500 -0.0934 -0.4083
34668W        W77585  29.033  10.961  24.134 -0.0648  0.1441  0.1010
34669W        W77586  32.204  11.017  25.485 -0.0313 -0.2261  0.0651
34670W        W77587  30.800   9.327  24.976 -0.0651 -0.2484 -0.0420
34671W        W77588  31.462  11.910  25.396  0.2330  0.0130  0.3718
34672W        W77589  30.231   8.245  23.837  0.2419  0.0435  0.3904
34673W        W77590  28.573   9.607  27.042  0.1157  0.2554  0.2875
34674W        W77591  31.496   8.956  24.211  0.2043  0.1692 -0.0377
34675W        W77592  33.395   9.167  23.824  0.0648 -0.2233 -0.0232
34676W        W77593  29.381  12.219  24.657 -0.0521 -0.1088  0.2333
34677W        W77594  32.258  10.099  28.411 -0.0116 -0.1647  0.2225
34678W        W77595  30.064   8.031  25.109  0.1812  0.2907 -0.0570
34679W        W77596  31.089   8.440  27.686  0.0804 -0.2059 -0.1641
34680W        W77597  32.700   6.565  24.056  0.2463 -0.5441  0.0004
34681W        W77598  31.054   9.156  29.131  0.1341  0.1708  0.0003
34682W        W77599  30.757   8.996  26.859  0.1207  0.1391 -0.2584
34683W        W77600  30.724   7.642  25.674  0.1870  0.1370 -0.4381
34684W        W77601  29.573   8.323  29.033  0.0646  0.0639 -0.0266
34685W        W77602  32.012   8.444  26.935  0.1529  0.1387 -0.2166
34686W        W77603  27.351   9.069  27.111 -0.1145 -0.4447 -0.0662
34687W        W77604  31.697  10.956  22.833 -0.0439 -0.2069  0.1121
34688W        W77605  30.152   7.743  25.566 -0.1283  0.2063  0.1419
34689W        W77606  29.039   8.973  27.057  0.5479  0.1546 -0.2816
34690W        W77607  29.494   6.162  27.766 -0.2186 -0.1299 -0.2589
34691W        W77608  31.396  10.746  26.549  0.1343 -0.0073  0.0032
34692W        W77609  31.005   6.519  24.968 -0.1316 -0.3339 -0.1408
34693W        W77610  31.018  10.269  26.646 -0.2001 -0.2059  0.2796
34694W        W77611  28.838  11.029  26.253  0.3201 -0.2104 -0.2059
34695W        W77612  29.519   9.139  27.863  0.0908 -0.0064  0.1036
34696W        W77613  30.373   6.580  27.174 -0.1828  0.0204 -0.1675
34697W        W77614  31.885   8.165  25.384 -0.0349 -0.3143  0.0084
34698W        W77615  29.798  10.344  27.590  0.0363 -0.4428 -0.0562
34699W        W77616  33.074   7.872  28.905 -0.0763  0.0479 -0.1998
34700W        W77617  29.360   9.139  25.476  0.2519 -0.0018 -0.1821
34701W        W77618  33.010   8.419  24.381 -0.0507 -0.1379  0.1620
34702W        W77619  32.153   9.574  26.034  0.1090 -0.3537 -0.1833
34703W        W77620  29.664   6.660  27.417 -0.0190  0.1014  0.0339
34704W        W77621  29.440   7.745  24.527 -0.0884  0.0846  0.6399
34705W        W77622  32.696   7.764  28.550  0.2409  0.1498 -0.0930
34706W        W77623  31.150   9.535  25.802  0.3139  0.2065  0.1979
34707W        W77624  31.669  10.116  27.880  0.0859 -0.0778  0.0730
34708W        W77625  28.664   8.963  26.352 -0.3121  0.1786  0.2489
34709W        W77626  30.406   7.329  25.983  0.2870  0.0892 -0.0834
34710W        W77627  29.527   8.063  26.821 -0.0739  0.0379 -0.1243
34711W        W77628  31.910   9.309  28.875  0.0247  0.0341  0.0179
34712W        W77629  32.439   9.860  28.013 -0.2389  0.3062  0.4021
34713W        W77630  29.678   7.157  26.705  0.0283 -0.1889 -0.0040
34714W        W77631  32.263  10.944  24.100  0.1605  0.1130  0.1313
34715W        W77632  30.084   9.892  27.225  0.2268 -0.1179 -0.1300
34716W        W77633  32.154  10.448  24.190 -0.4048  0.0356  0.4411
34717W        W77634  32.433   8.393  25.208 -0.0192 -0.1620 -0.1606
34718W        W77635  33.337  10.136  25.519  0.0626  0.1870 -0.0911
34719W        W77636  28.060   9.127  28.280  0.1817 -0.4511  0.0796
34720W        W77637  30.017  10.938  26.431 -0.5075  0.1123 -0.2201
34721W        W77638  33.011   9.493  24.967  0.0794 -0.1259  0.1789
34722W        W77639  29.867   6.348  25.141 -0.1545 -0.3693  0.0314
34723W        W77640  30.768   8.892  25.843 -0.0264 -0.0642 -0.0678
34724W        W77641  30.046  10.144  25.077 -0.0407  0.1016 -0.0484
34725W        W77642  33.506   6.898  26.645 -0.1391  0.0447 -0.1773
34726W        W77643  31.133   5.858  28.223  0.2805  0.1709  0.1827
34727W        W77644  32.455  10.457  23.769 -0.0840 -0.0249 -0.1953
34728W        W77645  32.848   6.652  28.671  0.0254 -0.1246 -0.0683
34729W        W77646  31.931   9.616  27.130  0.4848  0.1920  0.5891
34730W        W77647  30.451  10.322  29.505  0.2909 -0.3039  0.4524
34731W        W77648  28.185   8.979  24.526 -0.3618  0.1376  0.2440
34732W        W77649  31.238   7.926  27.510 -0.0308 -0.0895  0.3459
34733W        W77650  30.355  10.429  25.397  0.0980 -0.0895  0.1746
34734W        W77651  29.979  10.240  25.636  0.0081 -0.1453 -0.0459
34735W        W77652   0.263  10.828  27.275 -0.1565 -0.3284  0.0783
34736W        W77653  31.167   8.617  26.837 -0.1352 -0.2122 -0.0940
34737W        W77654  32.844   9.073  25.659  0.0743 -0.3590 -0.1371
34738W        W77655  30.639   7.668  27.472  0.0895 -0.3142 -0.2432
34739W        W77656  32.868   6.567  23.333  0.0292 -0.1219  0.2359
34740W        W77657  32.086   7.045  24.436  0.3071 -0.1922 -0.2977
34741W        W77658  30.276  10.369  27.409  0.0020  0.3116 -0.4918
34742W        W77659  28.469   8.590  24.506 -0.0640  0.3367  0.2082
34743W        W77660  30.348  10.718  24.137  0.0410 -0.1888  0.0043
34744W        W77661  28.662  10.408  26.596  0.2119  0.0650 -0.1298
34745W        W77662  32.821   7.324  28.262  0.6271 -0.0899  0.0557
34746W        W77663  29.116   9.618  28.481  0.0036 -0.1284 -0.3973
34747W        W77664  29.371   8.104  25.888 -0.0215  0.0782 -0.1614
34748W        W77665  29.802   7.476  25.910  0.0745  0.1262 -0.0940
34749W        W77666  31.180   8.491  25.056  0.0990  0.3895  0.1409
34750W        W77667  30.020   7.340  26.337 -0.0615  0.3462  0.2675
34751W        W77668  28.886   7.082  27.578 -0.1651 -0.1282 -0.0479
34752W        W77669  31.346  10.042  25.643 -0.0620  0.0422 -0.3540
34753W        W77670  31.435  11.930  24.365  0.0953 -0.1456  0.1490
34754W        W77671  30.347   6.053  27.151  0.0169 -0.1400 -0.0454
34755W        W77672  32.675   9.068  27.011 -0.0753  0.1346 -0.0780
34756W        W77673  28.710  11.080  23.775 -0.2965 -0.2118 -0.0481
34757W        W77674  30.825   8.390  28.591 -0.1642  0.0059 -0.2144
34758W        W77675  31.911   8.279  28.662 -0.0854 -0.0041 -0.4849
34759W        W77676  29.123   7.368  26.608  0.0295  0.2052  0.4062
34760W        W77677  31.550   8.247  27.790 -0.0056 -0.0187 -0.0379
34761W        W77678  30.322   9.865  25.546 -0.0167  0.0258  0.0860
34762W        W77679  32.096  11.229  24.671  0.1362  0.4354  0.0257
34763W        W77680  30.938   8.729  27.315  0.1889 -0.0561 -0.0529
34764W        W77681  29.588   9.790  28.480 -0.1697 -0.0208  0.2045
34765W        W77682  30.521   7.978  26.842  0.2834 -0.1156 -0.0927
34766W        W77683  29.571   9.982  25.942 -0.0035  0.2189 -0.0532
34767W        W77684  30.345   9.666  28.094 -0.2271 -0.1037 -0.2531
34768W        W77685  32.197   9.564  24.510  0.2184 -0.1680  0.0779
34769W        W77686  31.799   6.836  25.897  0.2072 -0.4563  0.0572
34770W        W77687  32.442   7.436  26.309 -0.0627  0.0902 -0.1897
34771W        W77688  29.372   7.119  27.371 -0.1387  0.0011  0.4802
34772W        W77689  29.406   9.660  29.997  0.1518  0.2172  0.0039
34773W        W77690  32.827   8.027  25.377  0.0416 -0.1811 -0.1016
34774W        W77691  28.294   7.737  26.045 -0.0151 -0.0098 -0.2353
34775W        W77692  32.105   6.761  23.992  0.1252 -0.0980 -0.2540
34776W        W77693  32.208   9.052  24.680  0.0378 -0.0051 -0.0359
34777W        W77694  28.791   8.157  26.775 -0.4225  0.5114 -0.0352
34778W        W77695  29.002   7.134  25.795 -0.1355 -0.1497  0.0312
34779W        W77696  30.526   8.348  29.070 -0.1672  0.0345 -0.0424
34780W        W77697  31.426   9.621  26.265 -0.0326 -0.1745 -0.0178
34781W        W77698  30.660   9.972  29.261  0.0610  0.0641 -0.0945
34782W        W77699  30.440   8.065  25.855  0.1995 -0.0398  0.2679
34783W        W77700  31.425  10.486  25.220  0.0114  0.1241 -0.0138
34784W        W77701  32.210  10.627  28.494  0.1148  0.0154 -0.0346
34785W        W77702  32.589  11.323  28.519  0.0412  0.0841  0.0797
34786W        W77703  30.400   9.025  27.294  0.2882 -0.0644 -0.2546
34787W        W77704  32.625   8.113  27.522 -0.2599  0.0295  0.0630
34788W        W77705  29.586  10.328  25.334 -0.0560  0.0398  0.2329
34789W        W77706  29.474   6.759  25.207  0.0837  0.1113  0.1409
34790W        W77707  31.615  10.358  26.817  0.2556 -0.2068  0.0978
34791W        W77708  32.856   7.609  27.606  0.1196  0.0408  0.0281
34792W        W77709  30.794   6.709  26.933  0.2197 -0.0814  0.5096
34793W        W77710  31.417   7.878  26.456  0.1304  0.0038  0.0205
34794W        W77711  29.702   9.502  27.531  0.1373 -0.2037 -0.1906
34795W        W77712  31.066   9.769  28.241 -0.0515  0.2409  0.0367
34796W        W77713  29.626  11.366  30.663  0.0613 -0.0026  0.0657
34797W        W77714  29.926   8.494  30.411 -0.0100 -0.0443  0.1686
34798W        W77715  32.480   7.653  29.063  0.1129  0.2213 -0.0453
34799W        W77716  32.315  10.402  28.018 -0.1823 -0.1841  0.1461
34800W        W77717  26.857   9.065  30.616 -0.1487  0.3431  0.1372
34801W        W77718  31.916   9.649  29.286  0.1820  0.0324  0.1081
34802W        W77719  30.237   7.559  30.469  0.1380  0.1962 -0.0830
34803W        W77720  29.707   9.993  29.564  0.1939 -0.0862 -0.2455
34804W        W77721  32.492  11.579  29.716 -0.2519 -0.1748  0.0557
34805W        W77722  31.723   9.074  28.460 -0.2235 -0.0871 -0.1210
34806W        W77723  32.617   8.295  30.865  0.1273 -0.0741 -0.2352
34807W        W77724  30.484  11.820  28.697 -0.1840  0.0667  0.1698
34808W        W77725  30.861   7.551  28.130  0.0713  0.1414 -0.0506
34809W        W77726  28.725   6.372  29.473  0.0943 -0.2416 -0.0206
34810W        W77727  32.552   9.852   0.112 -0.1203  0.0685 -0.2529
34811W        W77728  29.019   8.732  28.538 -0.0020  0.2706 -0.1914
34812W        W77729  27.895  10.183  29.551  0.1109 -0.3079 -0.1270
34813W        W77730  31.286   8.129  29.865 -0.2212 -0.2869 -0.1197
34814W        W77731  30.341  12.259  28.267  0.2357  0.3735 -0.2383
34815W        W77732  30.642  11.166   0.395 -0.1794  0.2423 -0.2589
34816W        W77733  31.125   6.976  31.489  0.0582 -0.0702  0.0252
34817W        W77734  30.471   9.127  27.992  0.2778  0.0855 -0.0337
34818W        W77735  28.064   8.589  26.439  0.2831  0.1234  0.1257
34819W        W77736  28.259   8.565  29.703  0.4853  0.0159 -0.0724
34820W        W77737  28.859   8.709  30.280  0.2074  0.1405 -0.3017
34821W        W77738  31.018   9.823  29.735 -0.1197 -0.3342 -0.0425
34822W        W77739  32.380   6.529  30.241  0.2198 -0.1459 -0.2992
34823W        W77740  30.861  12.189  30.090 -0.0345 -0.3587 -0.2194
34824W        W77741  29.771  10.880  30.668 -0.1535 -0.0066  0.0531
34825W        W77742  31.202  10.611  30.568  0.0076  0.0533 -0.0960
34826W        W77743  30.726   9.917  30.348 -0.1418  0.2199  0.2769
34827W        W77744  30.134  10.042  28.289  0.0750 -0.0297 -0.3777
34828W        W77745  29.904   9.010  28.311  0.1043 -0.0199 -0.0681
34829W        W77746  33.179   9.739  28.689  0.2049 -0.0130 -0.0716
34830W        W77747  30.343  10.154   1.099 -0.1022  0.3665  0.1548
34831W        W77748  29.356   9.392   0.273  0.0650  0.2887  0.0934
34832W        W77749  29.476   9.260  28.441 -0.0386  0.3056 -0.3566
34833W        W77750  30.651  10.466  30.528 -0.1028  0.1659 -0.2091
34834W        W77751  28.258  11.146  31.183 -0.1563  0.0184 -0.0062
34835W        W77752  30.973   6.835  30.515 -0.0985  0.0492 -0.1006
34836W        W77753  29.867   8.007  28.733  0.1438  0.1857  0.2717
34837W        W77754  30.766  12.171  27.739  0.0949 -0.0689 -0.1697
34838W        W77755  30.505  10.510  29.963 -0.2632  0.0288 -0.0170
34839W        W77756  28.465  10.167  30.946  0.2530 -0.2892 -0.0963
34840W        W77757  30.133   9.756  29.387 -0.2229  0.1502  0.0682
34841W        W77758  32.003   8.378   1.674 -0.1044  0.1391  0.0177
34842W        W77759  29.002  10.632  27.187 -0.3273  0.1428 -0.0894
34843W        W77760  32.122   6.936  30.056 -0.0097 -0.0610 -0.1411
34844W        W77761  33.080   7.723  28.109 -0.1640  0.0368 -0.2284
34845W        W77762  32.097   7.577  29.467  0.0521  0.3103 -0.1775
34846W        W77763  30.607   8.325  29.553 -0.0113  0.1503 -0.0408
34847W        W77764  31.454   9.988  28.900 -0.1284  0.0787  0.4204
34848W        W77765  29.015   7.836  31.489  0.2737 -0.0801  0.3282
34849W        W77766  30.934  11.516  30.148 -0.3282  0.1983 -0.1442
34850W        W77767  31.039   9.577  28.688  0.2920 -0.2487 -0.0023
34851W        W77768  32.122   7.831  30.229  0.0442  0.1493  0.0085
34852W        W77769  29.504  12.440  30.342 -0.0588 -0.4456 -0.1535
34853W        W77770  28.666   8.290  28.378  0.0690  0.1513 -0.1189
34854W        W77771  31.890   9.812  28.679 -0.3884 -0.0771 -0.0288
34855W        W77772  32.396  11.024  29.523 -0.0586 -0.0116 -0.3641
34856W        W77773  30.293   8.027  27.332  0.1546  0.1358 -0.3617
34857W        W77774  29.626   8.399  29.870 -0.3003  0.1806 -0.1245
34858W        W77775  28.007  10.029  31.046 -0.0680 -0.0325 -0.1220
34859W        W77776  28.230  11.308  31.704 -0.0728 -0.0999 -0.1238
34860W        W77777  33.088   6.462  29.613  0.1500  0.0491  0.0919
34861W        W77778  31.855  10.156  31.890 -0.0011  0.3305 -0.0068
34862W        W77779  28.775  11.312  29.985  0.0912  0.2107 -0.1880
34863W        W77780  32.123   6.354  29.780  0.0833 -0.2342 -0.1485
34864W        W77781  31.020   9.641  29.249 -0.2500 -0.0186 -0.3168
34865W        W77782  31.609  12.300  30.558  0.0761  0.0405  0.4403
34866W        W77783  31.393   8.935  27.221 -0.2028  0.4007  0.1369
34867W        W77784  32.809   9.132  29.577 -0.1211 -0.3924  0.2321
34868W        W77785  32.399   7.344  31.010  0.1326 -0.1668  0.1696
34869W        W77786  31.706   7.804  28.641 -0.0998 -0.1254  0.1260
34870W        W77787  29.904   8.508  28.461  0.2754  0.0582 -0.0167
34871W        W77788  29.420   9.872   0.023 -0.1145  0.0435 -0.2339
34872W        W77789  33.775   7.576  30.092 -0.1000 -0.0789 -0.0990
34873W        W77790  28.961   9.141  30.568  0.1265 -0.0296  0.2378
34874W        W77791  27.486  10.076  30.232 -0.0432 -0.1691  0.0854
34875W        W77792  30.604  10.535  31.337  0.0818 -0.0859 -0.1522
34876W        W77793  29.832  12.318  27.644  0.0914 -0.2748  0.0947
34877W        W77794  26.180  10.656  29.889 -0.1549 -0.2794  0.1110
34878W        W77795  29.560   8.033  29.471  0.2111 -0.2727 -0.2672
34879W        W77796  29.249   9.253  31.656  0.0404 -0.2295 -0.0893
34880W        W77797  28.329  10.842  31.679  0.1720  0.0673 -0.0878
34881W        W77798  32.940   6.884  29.148  0.2632 -0.2308  0.2790
34882W        W77799  30.731   7.344  30.510  0.0989  0.2280  0.0105
34883W        W77800  34.569   7.024  27.298  0.1117  0.3451 -0.0095
34884W        W77801  29.908   8.042  30.680 -0.2112  0.0707  0.2647
34885W        W77802  31.797  10.712  27.148  0.2076  0.1556  0.0925
34886W        W77803  33.230   9.384  29.772 -0.0337  0.1054  0.4004
34887W        W77804  31.193   9.162  26.702  0.1502 -0.1139 -0.4431
34888W        W77805  29.155   9.576  30.923  0.0083 -0.1276  0.0641
34889W        W77806  29.324   8.768  30.470  0.0188  0.0065  0.0363
34890W        W77807  31.033   8.687  30.932  0.1154  0.2634  0.2029
34891W        W77808  27.410   8.365  29.058  0.1220  0.1493 -0.2392
34892W        W77809  31.938   9.948  30.351  0.0315  0.4136  0.0910
34893W        W77810  32.194   7.668  28.554  0.1669  0.3494  0.5083
34894W        W77811  31.461   7.647  30.097  0.1091  0.1765  0.0128
34895W        W77812  32.889  10.388  29.096 -0.3120  0.1155  0.0914
34896W        W77813  25.263   9.742  26.867 -0.0052 -0.3177 -0.0751
34897W        W77814  30.568   9.426   0.363  0.0550 -0.0804  0.3236
34898W        W77815  31.333   8.590  28.414  0.2585 -0.1552  0.4232
34899W        W77816  33.628  11.767  28.784  0.1975 -0.1417 -0.1509
34900W        W77817  32.322  12.327  28.613  0.1383 -0.1454  0.1584
34901W        W77818  31.194   8.023  30.331  0.2138  0.0721 -0.2271
34902W        W77819  30.045   8.461  28.963 -0.1325  0.3065 -0.4461
34903W        W77820  30.503   8.572  30.240 -0.0961  0.0513 -0.4916
34904W        W77821  29.347   9.720  29.245 -0.1445  0.0745  0.0994
34905W        W77822  31.861   7.175  30.973  0.1422  0.1062  0.0427
34906W        W77823  30.627  13.261  30.765  0.1648  0.1568 -0.0742
34907W        W77824  29.537   8.974  29.609  0.4232 -0.1634  0.2572
34908W        W77825  28.902   9.920  30.148 -0.1374  0.2026 -0.0403
34909W        W77826  32.316   7.771  30.730 -0.0218 -0.1114 -0.0783
34910W        W77827  32.251   9.194  29.730  0.2855  0.0487 -0.0720
34911W        W77828  32.497   9.285  30.638  0.2983 -0.2150  0.0714
34912W        W77829  30.184   7.290  27.998 -0.0496  0.0437  0.0304
34913W        W77830  31.561  10.769  30.177  0.2808  0.0027 -0.0988
34914W        W77831  30.036  10.883  28.768  0.2415  0.3725 -0.2003
34915W        W77832  27.273   9.544  28.977 -0.1460  0.0376  0.0417
34916W        W77833  28.766  10.856  29.156  0.4257 -0.1038  0.0080
34917W        W77834  33.243   7.380  30.349  0.1501 -0.2168  0.0589
34918W        W77835  28.436   9.093   0.728  0.0052  0.0207  0.0006
34919W        W77836  30.183  11.291   1.087 -0.2398 -0.0562  0.0270
34920W        W77837  28.455  10.088  26.917 -0.1896 -0.2182 -0.1315
34921W        W77838  29.531  10.842  28.607 -0.4101  0.3516  0.0594
34922W        W77839  32.721   4.527  29.165  0.1603  0.2350  0.0440
34923W        W77840  33.114   8.418  27.296 -0.1632 -0.0873 -0.0636
34924W        W77841  31.307  11.107  30.357 -0.0694 -0.1063  0.0208
34925W        W77842  34.181   9.861  27.884  0.2127 -0.1483 -0.1330
34926W        W77843  32.975   6.735  27.938 -0.2122 -0.3685 -0.0624
34927W        W77844  33.386   8.981  29.496 -0.0160  0.1610 -0.0129
34928W        W77845  27.940  10.645   1.713 -0.0499 -0.1566 -0.2423
34929W        W77846  32.687  11.837  28.474  0.0988 -0.1567  0.0522
34930W        W77847  30.051  11.408  31.439  0.0985  0.0341  0.1692
34931W        W77848  31.047   7.346  30.138 -0.1074 -0.0037 -0.1099
34932W        W77849  33.122  10.917  26.953 -0.1210  0.1897 -0.2086
34933W        W77850  30.075  10.263  29.766  0.2660  0.0906  0.0054
34934W        W77851  30.198   9.499  31.556  0.2605 -0.0907  0.3036
34935W        W77852  31.770  10.497  28.223  0.2803 -0.0923 -0.1138
34936W        W77853  29.222   7.521  30.635 -0.1174 -0.2043  0.0227
34937W        W77854  29.637   9.160  26.320 -0.1300  0.1485 -0.1578
34938W        W77855  31.933   8.686  30.870 -0.0896  0.1125  0.2719
34939W        W77856  31.169  11.672  28.187 -0.0522  0.1256 -0.3522
34940W        W77857  32.257   8.335  31.665  0.1148  0.0027 -0.2379
34941W        W77858  31.547   8.166  29.010  0.2527 -0.0106 -0.3958
34942W        W77859  31.791   9.160  30.015 -0.1495 -0.2529  0.2040
34943W        W77860  32.425   6.195   0.077  0.1486  0.0743 -0.1973
34944W        W77861  31.054   8.613  29.468 -0.0762  0.0236 -0.0185
34945W        W77862  29.312  11.174  31.081  0.1345  0.1246 -0.1866
34946W        W77863  31.455   9.446  28.971  0.1786  0.1445 -0.0859
34947W        W77864  31.376   7.235  29.701  0.1681  0.0951  0.1305
34948W        W77865  27.914  10.335  30.099 -0.0514 -0.1423 -0.0068
34949W        W77866  29.757  12.605   0.187  0.2352  0.2115  0.5627
34950W        W77867  32.329  11.171  30.073  0.1263 -0.0820  0.2669
34951W        W77868  31.877   8.535  29.154  0.0284  0.2376  0.0170
34952W        W77869  29.729   7.498  31.738 -0.1101  0.2082  0.2591
34953W        W77870  31.763   7.908  29.848 -0.1692  0.1782 -0.1494
34954W        W77871  30.371  11.302  28.621  0.0293 -0.0890 -0.0855
34955W        W77872  30.781  11.135  28.905 -0.0974  0.3167 -0.1757
34956W        W77873  30.260   8.764  29.282  0.0569 -0.1331 -0.2056
34957W        W77874  30.951  10.279  30.168  0.0308  0.1175 -0.0421
34958W        W77875  28.157  10.064  27.462  0.1997  0.2453 -0.3410
34959W        W77876  30.377  10.261  30.899 -0.0480  0.2364 -0.0871
34960W        W77877  28.467  10.655  28.396 -0.3221  0.1462 -0.2142
34961W        W77878  32.970   9.237  30.508  0.0158 -0.2724  0.3856
34962W        W77879  27.464   9.991  31.064  0.1475 -0.3272  0.0646
34963W        W77880  30.125   7.408  27.477 -0.1455  0.0305  0.3056
34964W        W77881  28.771   8.722  28.060 -0.1109  0.0432  0.4418
34965W        W77882  32.871   8.247  28.270  0.1553 -0.1285 -0.2815
34966W        W77883  30.621   8.687  27.709  0.0667 -0.0016  0.2382
34967W        W77884  31.534   7.771  31.551 -0.0736  0.0452 -0.0373
34968W        W77885  30.225   8.979  30.105  0.1065 -0.0593 -0.1131
34969W        W77886  26.985  10.033  30.147  0.1492 -0.3615 -0.2146
34970W        W77887  30.942   8.704  30.061  0.3350 -0.0447  0.1518
34971W        W77888  31.498   7.307  29.222  0.1222 -0.1945  0.2163
34972W        W77889  30.689  11.568  29.736 -0.1537  0.1174  0.1013
34973W        W77890  31.644   9.735  31.216  0.0177  0.2381 -0.1181
34974W        W77891  30.193   8.349  27.867  0.0395 -0.3488 -0.0643
34975W        W77892  30.182   9.331  29.790 -0.2015 -0.1546  0.0722
34976W        W77893  29.363   8.279  30.433  0.0818  0.1003  0.1324
34977W        W77894  30.069   9.777  30.004 -0.1653 -0.0482  0.2978
34978W        W77895  31.266  11.396  31.085  0.2332  0.0664 -0.4752
34979W        W77896  30.028   9.938  27.775 -0.1238 -0.2149  0.2142
34980W        W77897  27.799  10.025  27.890  0.0822  0.0331 -0.1353
34981W        W77898  31.836   8.628  31.892  0.2533  0.4509 -0.2606
34982W        W77899  32.366  12.153  29.796  0.3896  0.0346 -0.4879
34983W        W77900  30.882   8.208  31.061  0.1142 -0.1857 -0.1062
34984W        W77901  29.259   6.792  30.067  0.0934 -0.1315 -0.1737
34985W        W77902  31.680   8.043  30.323  0.5542  0.1460  0.0745
34986W        W77903  32.882  10.015  30.076 -0.1322  0.1804  0.0081
34987W        W77904  31.711   8.711  30.384 -0.1609 -0.1544 -0.1278
34988W        W77905  30.559  10.800  30.909 -0.1199  0.3110  0.1777
34989W        W77906  31.696   4.689  30.258  0.1633 -0.1371  0.3407
34990W        W77907  34.408   9.104  30.537 -0.0336 -0.0003  0.2794
34991W        W77908  32.412   9.442  31.736  0.0340 -0.0374  0.3534
34992W        W77909  29.196   9.532  27.631  0.2172  0.3164  0.0979
34993W        W77910  27.374   8.776  28.244  0.0832 -0.0168 -0.1383
34994W        W77911  30.307   6.664  28.984  0.1158  0.0179 -0.2043
34995W        W77912  30.644   9.375  30.810  0.1015  0.0070 -0.0625
34996W        W77913  30.114   9.325  30.925 -0.3117 -0.2338  0.1398
34997W        W77914  28.239  11.169  29.944  0.1150  0.2445 -0.0427
34998W        W77915  27.414  10.979  30.244  0.1851  0.1368  0.0936
34999W        W77916   0.239   7.154  29.521 -0.1247  0.1221  0.0937
35000W        W77917  28.884   9.892  27.348  0.0868 -0.0573 -0.0719
35001W        W77918  29.253   8.188  28.519  0.0900  0.1382  0.1570
35002W        W77919  32.062   7.467  31.392  0.0005 -0.1477 -0.0335
35003W        W77920  33.076   8.702  26.917 -0.1532  0.1473  0.3073
35004W        W77921  32.839   8.737  30.499  0.2373 -0.1320  0.2920
35005W        W77922  29.713   7.629  30.861 -0.1387  0.1264  0.0029
35006W        W77923  33.038  11.631  29.681 -0.4873  0.2239  0.1671
35007W        W77924  28.153   9.147  29.975 -0.3266  0.0074 -0.2717
35008W        W77925  31.137  11.334   0.554 -0.2042 -0.2725  0.1956
35009W        W77926  29.473   8.852   0.133  0.1808 -0.2070  0.0783
35010W        W77927  29.776   8.818  29.191 -0.0469 -0.2125 -0.1965
35011W        W77928  30.452   6.381  28.389 -0.2960 -0.1905  0.0051
35012W        W77929  29.783   9.266  30.008  0.1687  0.0462 -0.1299
35013W        W77930  30.976  11.114  29.826 -0.2520  0.3520 -0.0596
35014W        W77931  31.281  10.652  27.835  0.1139  0.1658 -0.1040
35015W        W77932  32.842   9.674  29.522 -0.0895  0.2268 -0.0481
35016W        W77933  30.206   9.417  30.355  0.0439  0.0363 -0.0715
35017W        W77934  31.364  10.481  28.627 -0.0882 -0.3227  0.0374
35018W        W77935  31.365   8.381  27.252 -0.2724 -0.0967 -0.0076
35019W        W77936  30.209   8.940  30.598 -0.0633  0.0372 -0.1509
35020W        W77937  33.123   8.618   0.035  0.1470  0.3854 -0.0202
35021W        W77938  32.449  10.283  29.842  0.4022 -0.1290 -0.1938
35022W        W77939  30.776   8.177  27.382 -0.2929  0.4112  0.0106
35023W        W77940  29.977   8.872  29.701  0.1286  0.0058  0.2595
35024W        W77941  30.761  10.423   0.231  0.1731 -0.0165  0.2463
35025W        W77942  31.565   7.757  29.384  0.1846 -0.2174  0.0754
35026W        W77943  29.006   7.713  31.013  0.2997 -0.0430  0.3330
35027W        W77944  32.524  10.584  30.800 -0.0011  0.3863 -0.1934
35028W        W77945  32.943   7.382  29.381  0.2150 -0.1945 -0.2114
35029W        W77946  32.458   7.709  29.835  0.2089 -0.0627  0.1007
35030W        W77947   0.232   9.723  28.685 -0.1155 -0.1158 -0.1047
35031W        W77948  31.588   7.681  27.756  0.2430 -0.0207  0.0595
35032W        W77949  29.897   7.963  30.138  0.0553  0.2092 -0.0919
35033W        W77950  31.253  11.693   0.970  0.0462 -0.1773  0.2494
35034W        W77951  31.526   7.349  28.727 -0.1649  0.0922  0.0478
35035W        W77952  29.878   5.050  30.306 -0.0055  0.2379 -0.4395
35036W        W77953  30.220  10.379  27.918  0.0782  0.1659 -0.2732
35037W        W77954  31.550  12.083  30.088  0.0977 -0.2103  0.3245
35038W        W77955  30.987   7.436  28.667  0.2003 -0.2961 -0.0859
35039W        W77956  27.973   9.726  29.307 -0.2874  0.0739  0.0520
35040W        W77957  26.744  10.458   0.380  0.0738  0.0314  0.0588
35041W        W77958  29.898   8.960  26.864 -0.1007  0.1190 -0.0744
35042W        W77959  31.190   7.399  26.537 -0.3097  0.1450 -0.0050
35043W        W77960  31.082   9.475  30.466  0.1850 -0.1475 -0.0302
35044W        W77961  31.201  10.817   0.926  0.3253  0.1452 -0.2726
35045W        W77962  32.357   8.063  28.827  0.0558 -0.0089 -0.3238
35046W        W77963  32.586   9.196  31.235 -0.0086  0.2275  0.0286
35047W        W77964  28.933   9.825  29.487 -0.0034 -0.0275  0.0797
35048W        W77965  29.917   8.357  29.466  0.0396 -0.0508 -0.1609
35049W        W77966  30.871   7.730  31.195 -0.1727  0.2140  0.0187
35050W        W77967  28.119  10.351  30.592 -0.1640 -0.0408  0.0826
35051W        W77968  29.723  10.256  28.060  0.0851 -0.0751 -0.1690
35052W        W77969  31.826   7.059  30.455  0.0219 -0.0294  0.1316
35053W        W77970  32.254   8.646  29.486  0.0227 -0.2076 -0.3668
35054W        W77971  30.660   9.318  30.140 -0.2192  0.1756 -0.2828
35055W        W77972  31.590  10.091  29.889  0.0876  0.2427  0.3479
35056W        W77973  32.030  11.376  29.748 -0.2475 -0.1465 -0.1485
35057W        W77974  31.368   8.454  31.374 -0.2133 -0.0728 -0.3565
35058W        W77975  28.713  11.341  31.658 -0.2621  0.0182  0.0410
35059W        W77976  32.545   7.817  27.978  0.1244  0.1396 -0.0069
35060W        W77977  31.434   9.352  27.569  0.0593 -0.0495  0.4510
35061W        W77978  28.112   9.354  31.020 -0.0846  0.1302 -0.0012
35062W        W77979  30.077  11.466  30.750 -0.2451 -0.1858  0.0035
35063W        W77980  30.659   9.376  31.338 -0.1997  0.0212  0.0452
35064W        W77981  28.871   7.385  29.750  0.4010  0.0202 -0.1022
35065W        W77982  29.206  10.059  28.060 -0.1013 -0.1127  0.0226
35066W        W77983  28.426  10.951   0.618 -0.2000  0.2756  0.4032
35067W        W77984  28.659  10.358  28.810  0.3332  0.0945 -0.3703
35068W        W77985  30.550   9.787  28.570  0.0433 -0.0001 -0.0114
35069W        W77986  31.567   8.924  28.918 -0.2197  0.1453  0.0507
35070W        W77987  30.284  10.210  30.304  0.2914 -0.0216  0.1998
35071W        W77988  29.228  12.308  29.795 -0.1272 -0.0636 -0.1292
35072W        W77989  31.239   6.512  28.552  0.0114  0.0381  0.1597
35073W        W77990  27.395  10.126  28.218 -0.1505 -0.0920  0.0694
35074W        W77991  29.075  10.506  28.969  0.1273  0.2288  0.1944
35075W        W77992  32.213   9.617  26.520  0.1518 -0.1406  0.2838
35076W        W77993  30.059   9.244  29.208  0.1329  0.0554 -0.2473
35077W        W77994  32.239  10.503  29.424 -0.2721 -0.1293 -0.0425
35078W        W77995  33.520   8.544  27.653  0.2323 -0.0361  0.1066
35079W        W77996  33.744   9.680  29.964  0.0850 -0.0122 -0.0307
35080W        W77997  33.860   9.967  29.519 -0.0921  0.0637 -0.0788
35081W        W77998  31.160   9.557  31.391 -0.1114  0.0871  0.1273
35082W        W77999  31.038   8.799  31.880 -0.2214  0.1122  0.2579
35083W        W78000  31.523   6.074  28.727 -0.0886 -0.0662  0.0136
35084W        W78001  28.885   7.651  30.219  0.1358  0.2627  0.2415
35085W        W78002  32.146   7.003  31.341  0.0038  0.2169  0.0196
35086W        W78003  27.099  10.215  31.309  0.0462 -0.1053 -0.0257
35087W        W78004  31.267  11.847  29.206  0.1218 -0.1125 -0.0810
35088W        W78005  29.454   8.761  28.251  0.0853  0.4380  0.3438
35089W        W78006  30.983   9.003  31.372  0.0223 -0.0266 -0.1243
35090W        W78007  32.861   5.775  30.022  0.0103 -0.0459 -0.3504
35091W        W78008  30.595   8.393  26.544  0.2739 -0.2200 -0.0704
35092W        W78009  30.986   7.653  29.671 -0.2265 -0.1214  0.0406
35093W        W78010  28.824   9.361  29.254  0.2921 -0.0953 -0.2068
35094W        W78011  28.321   9.488  30.268 -0.1700 -0.1076  0.0993
35095W        W78012  29.237  10.643  31.377 -0.0480  0.2569 -0.0595
35096W        W78013  26.890   9.442  27.921  0.0661  0.5880 -0.0262
35097W        W78014  34.496  10.990  28.962  0.0023  0.3473  0.0094
35098W        W78015  29.182   9.405  29.637 -0.1807  0.1957 -0.2412
35099W        W78016  33.234   7.674  30.826 -0.3403 -0.0091 -0.0544
35100W        W78017  30.856   8.784  28.171 -0.0906  0.3449  0.0856
35101W        W78018  31.955   6.676  28.299 -0.1339 -0.2836  0.3018
35102W        W78019  31.433   9.478  29.679  0.2319  0.0249 -0.2990
35103W        W78020  27.814   8.918  29.627  0.1887  0.0406  0.0339
35104W        W78021  30.536   7.829  29.371  0.0293  0.0411 -0.1959
35105W        W78022  31.576  10.866  31.431 -0.3184 -0.2829 -0.1126
35106W        W78023  31.232   9.119  28.624 -0.1680  0.0741  0.0361
35107W        W78024  32.926  13.283  29.154 -0.0093  0.0677 -0.2286
35108W        W78025  31.690   8.409  29.995 -0.0580 -0.0976 -0.1224
35109W        W78026  31.697   6.706  29.844 -0.1538  0.2670 -0.3872
35110W        W78027  28.544   8.585  27.608 -0.1563 -0.0838 -0.0840
35111W        W78028  28.250  10.697  30.235  0.1361  0.2032 -0.0151
35112W        W78029  30.798  12.896  30.077 -0.1670  0.2590 -0.1688
35113W        W78030  28.445   9.857  29.361 -0.0047 -0.0557 -0.0656
35114W        W78031  32.661   9.497  25.883 -0.1403  0.0411 -0.0775
35115W        W78032  32.331   7.290  31.958 -0.1656 -0.3105  0.1280
35116W        W78033  30.953  12.667  27.927 -0.0799  0.1537  0.0738
35117W        W78034  31.212  10.330  29.108  0.1524  0.0526  0.1241
35118W        W78035  31.478  11.132  29.814 -0.1719 -0.1246  0.1031
35119W        W78036  27.250  10.653  29.030 -0.0086 -0.2139  0.1981
35120W        W78037  31.170  11.817  29.765 -0.0802  0.1616  0.0488
35121W        W78038  31.718   9.144  29.362 -0.1955  0.0316 -0.0075
35122W        W78039  30.677   6.518  29.773  0.0806  0.1319 -0.2428
35123W        W78040  30.414   8.399  31.241  0.2445  0.1357  0.1844
35124W        W78041  28.805  11.060  27.572 -0.2048  0.0148  0.1590
35125W        W78042  32.773   7.760  31.000  0.2096 -0.2057  0.2703
35126W        W78043  31.534   8.352  30.766  0.0275  0.1110 -0.0339
35127W        W78044  30.560   9.990  27.570  0.0350  0.0433  0.0126
35128W        W78045  32.324   7.381  30.199 -0.2913 -0.2999  0.1216
35129W        W78046  28.896  10.856  30.894 -0.1214  0.0612  0.2772
35130W        W78047  29.789  10.985  31.405  0.1219 -0.1359  0.0180
35131W        W78048  29.077   9.162  28.097 -0.0713  0.1266 -0.2510
35132W        W78049  28.025   9.906  30.324 -0.0539  0.1732 -0.0146
35133W        W78050  29.110   8.382  28.083 -0.1877  0.2562 -0.0155
35134W        W78051  28.698   9.902  26.511 -0.0755  0.3202  0.0522
35135W        W78052  30.879   7.481  29.212 -0.1296  0.1721 -0.1431
35136W        W78053  31.214  10.670  29.841  0.0675 -0.0316 -0.0627
35137W        W78054  33.302  10.731  30.374  0.1101 -0.0532  0.1080
35138W        W78055  31.557   6.780  31.456 -0.0408  0.1419 -0.0412
35139W        W78056  32.555   8.045  30.242 -0.0221 -0.1218 -0.1217
35140W        W78057  30.296   9.058  31.377 -0.1829 -0.0483 -0.3199
35141W        W78058  29.253   9.571  30.444  0.2454  0.1300 -0.2460
35142W        W78059  29.435   9.969  27.596  0.0797 -0.2861  0.0254
35143W        W78060  29.093   8.972  27.605  0.1877  0.0863  0.2908
35144W        W78061  28.967   8.979  29.563  0.0123 -0.1947  0.1375
35145W        W78062  30.939   7.419   1.380  0.2208  0.0259  0.1141
35146W        W78063  28.612   8.923  29.900  0.0058 -0.0236  0.3212
35147W        W78064  29.221   7.554  28.401 -0.0040 -0.2572 -0.0151
35148W        W78065  30.039   7.169  28.796 -0.1651  0.1511 -0.0498
35149W        W78066  32.292   7.926  31.231 -0.0445  0.1266 -0.3868
35150W        W78067  29.256   7.417  30.121 -0.0334  0.0287  0.2352
35151W        W78068  30.379   7.353  29.319  0.0315 -0.1764 -0.0912
35152W        W78069  31.393   9.970  29.427 -0.2652  0.0950 -0.1092
35153W        W78070  33.157  10.767  29.096  0.0802 -0.0788  0.2485
35154W        W78071  30.713   7.727  30.193  0.2894  0.0876  0.3209
35155W        W78072  31.061  10.884   0.308  0.0093  0.3520 -0.0557
35156W        W78073  29.094   9.806  26.865  0.1164 -0.0894  0.1440
35157W        W78074  31.681  10.544  29.612 -0.1062 -0.0070 -0.1063
35158W        W78075  27.728   9.498  30.153  0.0151 -0.1380  0.0485
35159W        W78076  30.385   8.104  30.363  0.0276 -0.0386  0.5211
35160W        W78077  29.705   8.815  30.098 -0.1405  0.2639 -0.1949
35161W        W78078  32.672   8.187  29.169 -0.1873  0.2933  0.2210
35162W        W78079  32.061  10.761  28.958 -0.1373  0.2231 -0.3326
35163W        W78080  29.662   9.598  30.850  0.0288  0.2498  0.2408
35164W        W78081  30.082  12.031  30.901 -0.1155 -0.1076 -0.0622
35165W        W78082  29.161   6.303   0.298  0.3008  0.3078  0.3345
35166W        W78083  31.309  10.907  29.319 -0.1657 -0.0839  0.0673
35167W        W78084  30.969  11.472  30.683  0.0801 -0.1199  0.2512
35168W        W78085  31.862  10.175  29.148 -0.0119 -0.1610  0.0837
35169W        W78086  34.171   7.179  30.994 -0.1840  0.1625 -0.0973
35170W        W78087  32.371   8.531  28.993  0.0763  0.1703 -0.1840
35171W        W78088  30.148   7.709   0.050  0.0532  0.3014 -0.0233
35172W        W78089  27.239  10.065  29.734 -0.1856 -0.0819 -0.0434
35173W        W78090  32.871   9.736  30.474  0.0687  0.0269 -0.0378
35174W        W78091  30.360   7.546  28.371 -0.1231 -0.0717 -0.0995
35175W        W78092  33.549   8.215  30.747  0.2660 -0.0402 -0.4443
35176W        W78093  31.508   9.847  27.478 -0.1033 -0.3334  0.3048
35177W        W78094  29.434  10.446  30.920 -0.2254  0.0487 -0.0769
35178W        W78095  32.602   5.054  31.877 -0.0094 -0.0495 -0.1698
35179W        W78096  31.342   9.186  30.163 -0.1088  0.1446 -0.0374
35180W        W78097  30.669  11.851  28.176 -0.0582  0.3190  0.1315
35181W        W78098  31.473   8.896  31.665  0.0190 -0.1503  0.0580
35182W        W78099  30.020   7.890  29.674 -0.0266  0.0232  0.1904
35183W        W78100  30.711  10.404  29.062  0.0361 -0.2392  0.1178
35184W        W78101  32.493   9.374  28.513  0.1528  0.1876  0.0625
35185W        W78102  31.493  11.840  31.347 -0.0452  0.0622  0.0351
35186W        W78103  30.548  10.005  29.865  0.0076  0.0786 -0.1079
35187W        W78104  31.920   9.632  29.835 -0.1428  0.4013  0.0423
35188W        W78105  27.998   8.709  31.351  0.0471 -0.0088  0.0746
35189W        W78106  30.452   8.746  28.694 -0.1240  0.1933  0.0777
35190W        W78107  30.824   8.734  28.996 -0.0570  0.3993 -0.1975
35191W        W78108  29.324   9.156  30.132  0.0831  0.2544  0.3475
35192W        W78109  30.626   7.611  31.685  0.1157  0.2116 -0.0454
35193W        W78110  33.578   6.178  27.665 -0.0525 -0.1397  0.0979
35194W        W78111  29.071  11.036  29.696  0.1058 -0.1259 -0.2209
35195W        W78112  31.077   8.100  29.399 -0.1982  0.0270  0.1038
35196W        W78113  34.011  11.622   0.489 -0.1692  0.1887 -0.0416
35197W        W78114  30.244   9.936  31.804 -0.5631  0.1324 -0.1914
35198W        W78115  28.904   7.904   1.198 -0.2208 -0.2886  0.0825
35199W        W78116  30.363  11.452   0.679  0.3836 -0.0991 -0.0276
35200W        W78117  28.057   9.788   0.250 -0.0751  0.1996 -0.1603
35201W        W78118  28.793  11.334  31.123 -0.1494 -0.2268  0.2391
35202W        W78119  31.130   9.260  30.972 -0.0079  0.4273 -0.1716
35203W        W78120  30.710   9.916  31.439 -0.0854  0.0821  0.2365
35204W        W78121  32.633   8.484   0.020  0.3172  0.2342  0.0984
35205W        W78122  34.033  10.797   0.309  0.0322 -0.1798 -0.1232
35206W        W78123  31.535   9.865   0.141 -0.3392  0.2821 -0.0902
35207W        W78124  30.404   8.666  31.706  0.1983 -0.0446 -0.1264
35208W        W78125  30.644   9.605  31.809  0.1135 -0.1602 -0.0730
35209W        W78126  30.811   8.981  30.506  0.0588  0.0002 -0.4530
35210W        W78127  31.620   7.270  31.499 -0.0904 -0.1128  0.0793
35211W        W78128  29.439  11.832   0.765  0.0839  0.3493  0.0541
35212W        W78129  32.284  12.655  31.082  0.0991  0.4679 -0.2454
35213W        W78130  29.800  10.385  30.497  0.0941 -0.1085  0.0367
35214W        W78131  31.490   7.727  30.682  0.1061 -0.1799  0.0176
35215W        W78132  27.884   8.919  31.822 -0.0855 -0.1761 -0.0569
35216W        W78133  29.556   9.008   0.698 -0.1688 -0.1859 -0.0683
35217W        W78134  28.364  10.375   0.775  0.0610  0.2801 -0.2761
35218W        W78135  32.974   8.011  30.565  0.0900 -0.2980 -0.1548
35219W        W78136  29.067   9.133  31.207 -0.0771 -0.0684  0.0609
35220W        W78137  31.348   9.902  30.271 -0.1393 -0.2095 -0.1322
35221W        W78138  31.844   7.159   1.596  0.0928 -0.0542 -0.3122
35222W        W78139  31.484   8.771  31.074  0.1050 -0.1304  0.0699
35223W        W78140  27.828  12.663  30.850  0.1510 -0.1089 -0.4061
35224W        W78141  27.163   9.123  29.263 -0.2229 -0.0034 -0.2809
35225W        W78142  30.744   9.835  30.956 -0.0969 -0.0288  0.2299
35226W        W78143  30.721   8.364  30.633 -0.1320 -0.0531  0.1112
35227W        W78144  28.927   9.684   0.089  0.2105 -0.0984 -0.0601
35228W        W78145  33.698  10.120   0.703 -0.1282  0.1282  0.0616
35229W        W78146  32.720   9.198   1.791 -0.1274 -0.2875 -0.2197
35230W        W78147  27.705   7.696  31.278 -0.0343 -0.1552  0.1166
35231W        W78148  30.527   8.876  29.694 -0.4949  0.0150 -0.3165
35232W        W78149  30.160  11.729   1.386 -0.1188 -0.1012 -0.1963
35233W        W78150  29.960   8.849  31.048 -0.0844 -0.0814 -0.0393
35234W        W78151  32.359   9.047   1.250  0.0715 -0.0652 -0.0720
35235W        W78152  31.482   8.478   0.390 -0.1033 -0.3220  0.3890
35236W        W78153  31.401  10.465  30.992  0.2994 -0.0103  0.1745
35237W        W78154  29.723   8.015   0.083 -0.1614 -0.0286  0.0836
35238W        W78155  31.136   8.003  31.689  0.0365  0.2371  0.0356
35239W        W78156  28.935  10.089  30.621  0.0745 -0.0226  0.0854
35240W        W78157  30.355  10.145  28.874  0.0630  0.1428 -0.2217
35241W        W78158  31.445   7.770   0.260  0.0255  0.0519  0.1251
35242W        W78159  29.584   6.930  31.680  0.0831 -0.0477 -0.0712
35243W        W78160  32.236   8.455  31.172  0.3935  0.1428 -0.0472
35244W        W78161  33.254   9.836   0.546 -0.3066  0.0826 -0.2114
35245W        W78162  26.717   9.731  29.911 -0.3560 -0.2214  0.1078
35246W        W78163  31.446   9.995  31.626 -0.0244  0.0153 -0.1246
35247W        W78164  32.153   8.453   0.296  0.0293  0.0662 -0.0856
35248W        W78165  28.870   9.922  31.117 -0.0871  0.1312  0.1125
35249W        W78166  30.774  10.267   0.679 -0.0793 -0.2824  0.0831
35250W        W78167  29.642   9.298  31.312  0.1380 -0.4285 -0.2165
35251W        W78168  31.714  10.021  30.805 -0.2825 -0.0769 -0.3151
35252W        W78169  32.858   9.441  30.957 -0.0720 -0.0581  0.0178
35253W        W78170  31.052  11.643   0.140 -0.0242  0.3402  0.1866
35254W        W78171  29.487  10.353   0.197 -0.0227 -0.0906 -0.0201
35255W        W78172  32.027   8.112   1.140 -0.3188 -0.4163  0.0544
35256W        W78173  30.161   8.860   0.123 -0.2024 -0.0504  0.1606
35257W        W78174  28.821   8.159  31.001  0.0435 -0.1575 -0.0486
35258W        W78175  27.694   9.155  31.350 -0.0696  0.1437 -0.1138
35259W        W78176  28.480   9.110  31.855  0.3068 -0.4121 -0.2271
35260W        W78177  31.024  10.945  31.356  0.1057  0.3772  0.1679
35261W        W78178  32.489  10.832  31.405 -0.1045 -0.3162 -0.1881
35262W        W78179  34.487  10.667  31.444 -0.1371 -0.0547  0.4473
35263W        W78180  30.240  12.939  20.427 -0.2869  0.0655  0.0069
35264W        W78181  29.496  10.673  17.976  0.2811 -0.0101  0.0571
35265W        W78182  32.238  13.571  17.623 -0.0263 -0.2750 -0.0541
35266W        W78183  33.016  12.519  18.848 -0.0676 -0.1647  0.2672
35267W        W78184  28.531  10.986  17.607 -0.0841  0.0172  0.3155
35268W        W78185  32.533  15.050  19.542  0.2244  0.0234  0.1902
35269W        W78186  28.840  11.599  20.666 -0.1238  0.0172  0.1613
35270W        W78187  31.039  12.448  20.499 -0.0497 -0.0679 -0.0068
35271W        W78188  32.676  13.675  20.162  0.2273 -0.3029  0.0323
35272W        W78189  30.302  11.987  17.935  0.0818  0.0176  0.2899
35273W        W78190  29.155  11.050  19.438  0.0214  0.1081 -0.1600
35274W        W78191  28.365  12.505  20.718  0.1258  0.3189  0.0068
35275W        W78192  28.337  10.089  19.758 -0.2236  0.1230 -0.1973
35276W        W78193  29.805  11.144  19.638 -0.2063 -0.1115 -0.2664
35277W        W78194  30.939  12.922  18.711 -0.1534 -0.1859 -0.1466
35278W        W78195  29.023  12.961  17.196  0.0249 -0.1327  0.0428
35279W        W78196  28.388  10.345  21.148  0.2105  0.1164 -0.0684
35280W        W78197  30.207  11.669  16.975  0.2729  0.0575  0.6439
35281W        W78198  28.976  12.889  20.619 -0.0340 -0.0397  0.1285
35282W        W78199  30.412  10.362  18.999 -0.3310  0.2731  0.1685
35283W        W78200  30.763   9.958  19.019  0.0850 -0.0115  0.0359
35284W        W78201  28.620  13.932  17.999 -0.0558  0.0924 -0.1608
35285W        W78202  28.291  13.107  18.138 -0.0150  0.4576  0.0881
35286W        W78203  30.624  11.514  18.570 -0.3299 -0.0989  0.7062
35287W        W78204  28.760  11.123  20.420 -0.1203 -0.2170  0.0929
35288W        W78205  30.576  12.620  17.623  0.2423  0.0641 -0.1359
35289W        W78206  32.501  12.679  20.107  0.3489  0.3057 -0.0365
35290W        W78207  31.449  14.568  18.761 -0.0328  0.0914  0.0376
35291W        W78208  30.833  13.911  19.606 -0.0443 -0.4099 -0.0557
35292W        W78209  29.872  10.339  19.260  0.0071 -0.0755  0.1574
35293W        W78210  29.712  12.574  21.969 -0.0870  0.3522  0.2666
35294W        W78211  30.042  14.513  18.612 -0.0548 -0.0530  0.0727
35295W        W78212  29.177  11.781  17.827  0.3237 -0.2017 -0.1821
35296W        W78213  31.954  13.393  18.454 -0.0710  0.0613 -0.1035
35297W        W78214  31.950  12.924  20.106 -0.3254  0.1484 -0.0916
35298W        W78215  28.992  13.648  21.543 -0.2606 -0.0676  0.3457
35299W        W78216  27.278  13.491  17.521 -0.4477 -0.0206  0.1113
35300W        W78217  29.534  13.042  23.718 -0.1065 -0.0571  0.1918
35301W        W78218  28.124  15.156  17.991 -0.0767  0.2306  0.0156
35302W        W78219  31.268  12.890  19.663 -0.0456  0.1038 -0.0192
35303W        W78220  31.340  13.452  18.234 -0.4353 -0.0855 -0.1087
35304W        W78221  29.198  15.002  17.406 -0.0743  0.0319  0.4342
35305W        W78222  28.010  14.246  20.038  0.1758 -0.0700 -0.0607
35306W        W78223  29.498  13.596  19.972  0.0092  0.1514 -0.1603
35307W        W78224  30.362  13.338  18.042  0.0413 -0.0164 -0.0131
35308W        W78225  31.993   9.895  19.170 -0.0416  0.0223  0.0427
35309W        W78226  30.286  12.983  18.428 -0.0872 -0.0859  0.0316
35310W        W78227  32.262  15.588  17.824 -0.0561  0.0223 -0.2081
35311W        W78228  31.393  11.143  18.571  0.2733 -0.1718  0.0280
35312W        W78229  31.530  10.856  17.606 -0.0225  0.0635  0.1416
35313W        W78230  31.056  11.154  19.858 -0.0907  0.5201  0.1225
35314W        W78231  28.531  13.288  19.747  0.0778 -0.1357 -0.0771
35315W        W78232  27.979  12.606  16.777 -0.1231  0.1553 -0.1445
35316W        W78233  33.362  12.400  20.597 -0.1047  0.0317  0.5850
35317W        W78234  31.372  11.633  19.045  0.0651 -0.0395  0.0064
35318W        W78235  30.228  13.406  19.221  0.0305 -0.3943 -0.0598
35319W        W78236  29.466  12.767  21.115  0.1901 -0.0378  0.0865
35320W        W78237  28.267  11.681  18.208 -0.1623  0.1211  0.0435
35321W        W78238  31.034  14.521  17.644  0.3224  0.0817  0.0656
35322W        W78239  32.242  15.448  20.586  0.1107 -0.3636 -0.0868
35323W        W78240  31.945  13.822  18.244  0.0264 -0.1091  0.1940
35324W        W78241  28.804  11.426  19.251  0.0811 -0.1403  0.0006
35325W        W78242  29.123  12.050  19.879  0.1661  0.1412 -0.1616
35326W        W78243  28.892  13.162  21.712  0.1946 -0.2474  0.2910
35327W        W78244  30.013  11.201  19.152  0.0317 -0.0230 -0.0032
35328W        W78245  34.341  12.380  20.846  0.3186  0.0270 -0.0748
35329W        W78246  28.068  13.225  20.984  0.0027  0.4006  0.2928
35330W        W78247  31.471  11.540  18.031 -0.0382 -0.0134  0.1557
35331W        W78248  28.154  13.084  17.670  0.0089 -0.2404 -0.0675
35332W        W78249  32.652  11.769  21.896 -0.0039  0.0306 -0.2414
35333W        W78250  28.845  10.962  18.431 -0.1095 -0.0148  0.2070
35334W        W78251  31.020  11.355  18.829 -0.2962  0.0274  0.0166
35335W        W78252  31.825  11.954  17.977 -0.1156 -0.0342 -0.0853
35336W        W78253  28.740  14.136  17.092 -0.2053  0.0805 -0.1790
35337W        W78254  28.739  13.780  17.456  0.4017 -0.4954  0.1511
35338W        W78255  31.005  12.518  19.882 -0.0930 -0.0082  0.3263
35339W        W78256  33.308  11.349  17.331 -0.1941  0.1652 -0.3455
35340W        W78257  27.969  14.723  18.021  0.2430  0.0226  0.0479
35341W        W78258  29.514  12.727  18.894 -0.0994 -0.1272 -0.1419
35342W        W78259  30.910  14.662  18.694  0.3162 -0.0172 -0.0291
35343W        W78260  28.361  14.703  16.173  0.0436 -0.3557 -0.0136
35344W        W78261  27.785  12.044  18.816  0.0556  0.0034  0.0110
35345W        W78262  29.485  14.814  16.959 -0.2645  0.2323 -0.1670
35346W        W78263  28.064  12.128  21.645  0.0672  0.2524 -0.3742
35347W        W78264  27.753  14.515  19.593  0.3209 -0.2575  0.0642
35348W        W78265  31.344  12.071  18.167 -0.0278 -0.2942  0.0696
35349W        W78266  28.302  11.645  21.532  0.0385 -0.1712  0.1074
35350W        W78267  32.087  11.581  17.833 -0.0214  0.4271 -0.0432
35351W        W78268  27.654  13.809  17.807  0.3777 -0.2436 -0.1624
35352W        W78269  28.262  12.595  19.115 -0.0983  0.3361 -0.0886
35353W        W78270  32.226  11.993  18.554  0.2397  0.0341  0.3889
35354W        W78271  29.586  13.763  17.927 -0.3365  0.0482  0.2508
35355W        W78272  31.626  12.525  18.660  0.0354  0.1285  0.0463
35356W        W78273  29.357  11.723  20.763  0.0325  0.0767  0.0451
35357W        W78274  29.937  11.156  21.327  0.0159  0.0644  0.0865
35358W        W78275  29.566  10.402  17.531 -0.1008 -0.1627  0.3507
35359W        W78276  31.314  14.101  18.870 -0.0646  0.0409  0.2141
35360W        W78277  28.698   9.442  18.086 -0.1163 -0.0939 -0.0447
35361W        W78278  31.183  12.522  18.489  0.0571  0.1925 -0.1959
35362W        W78279  30.116  13.878  19.480 -0.3127 -0.1483  0.1852
35363W        W78280  28.354  15.174  18.646  0.3091 -0.0072  0.2338
35364W        W78281  30.945   9.160  19.907 -0.2554 -0.2159  0.0048
35365W        W78282  30.886  13.671  18.248 -0.0042  0.2007  0.0593
35366W        W78283  29.783  14.580  19.819  0.2153 -0.1838  0.0813
35367W        W78284  29.522  14.443  18.028 -0.0828  0.0472 -0.0058
35368W        W78285  29.242  12.082  18.602  0.1386  0.2083 -0.0057
35369W        W78286  28.739  10.164  19.504 -0.2663 -0.1285  0.1630
35370W        W78287  29.475  15.795  17.928  0.0335 -0.1186 -0.2857
35371W        W78288  30.783  13.339  19.904  0.3233  0.4084  0.0317
35372W        W78289  29.590   9.577  18.886  0.3121  0.0098 -0.1550
35373W        W78290  31.324  15.881  18.407 -0.0173 -0.2670 -0.0489
35374W        W78291  31.540  11.843  19.971 -0.1694  0.2982  0.1554
35375W        W78292  27.403  13.493  19.461 -0.2889 -0.1117  0.0385
35376W        W78293  29.938  10.480  17.885  0.0920  0.0808  0.1202
35377W        W78294   0.168  13.968  21.511 -0.0601 -0.3998 -0.1398
35378W        W78295  31.327  12.455  19.443  0.0345  0.1782 -0.1371
35379W        W78296  30.723   9.816  17.417 -0.1651  0.0855 -0.1936
35380W        W78297  31.291  13.897  20.909  0.0676 -0.2805  0.0945
35381W        W78298  27.647  14.358  17.125 -0.2504 -0.0290  0.1297
35382W        W78299  27.755  13.325  17.371  0.2308 -0.1919  0.1088
35383W        W78300  28.177  15.299  19.222  0.0092 -0.2593  0.1512
35384W        W78301  30.779  12.850  17.210 -0.1233 -0.2856 -0.0931
35385W        W78302  29.335  13.609  18.985 -0.2190  0.4415  0.0404
35386W        W78303  28.617  12.171  19.971 -0.3549 -0.1242 -0.0993
35387W        W78304  29.594  10.462  18.464  0.0682  0.0047  0.4249
35388W        W78305  25.859  14.093  20.235 -0.0877  0.0767  0.1409
35389W        W78306  31.764   9.403  18.412 -0.1114  0.2174 -0.1477
35390W        W78307  31.338  12.133  17.673 -0.2025  0.3190 -0.0603
35391W        W78308  29.837  11.378  20.891 -0.4267  0.1450 -0.1242
35392W        W78309  31.508  12.655  17.601 -0.1922 -0.0887  0.0803
35393W        W78310  31.062  12.330  17.005 -0.1062 -0.0286 -0.1162
35394W        W78311  29.574  12.889  17.391 -0.1387  0.2388 -0.2179
35395W        W78312  28.664  12.546  21.798 -0.1364  0.3644  0.0918
35396W        W78313  31.176  12.020  19.700 -0.1337  0.0641 -0.1887
35397W        W78314  29.796  12.939  18.264 -0.2959 -0.0569  0.1609
35398W        W78315  30.037  11.886  17.429  0.1919 -0.0846 -0.1523
35399W        W78316  32.245  14.636  17.747  0.1654 -0.2239 -0.2136
35400W        W78317  26.894  13.931  21.063  0.1009  0.1489 -0.1655
35401W        W78318  31.330  13.597  21.355  0.1974  0.0174 -0.1594
35402W        W78319  29.102  14.632  18.908  0.4235 -0.2795 -0.2276
35403W        W78320  30.112  12.801  17.396  0.1212 -0.0449  0.1903
35404W        W78321  30.184  11.229  16.741  0.1034 -0.2532 -0.3025
35405W        W78322  30.186  11.691  18.311 -0.0440  0.1287 -0.1725
35406W        W78323  27.321  14.195  16.346 -0.0269 -0.0352  0.0791
35407W        W78324  31.625   9.166  17.923 -0.1190  0.1081 -0.4154
35408W        W78325  28.548  11.892  18.584  0.0776 -0.0306  0.1394
35409W        W78326  30.509  12.558  21.238  0.0250  0.1845  0.5251
35410W        W78327  31.392  11.124  19.051  0.0858  0.1134  0.4662
35411W        W78328  32.075  12.364  18.222  0.2551  0.0108  0.1682
35412W        W78329  30.860  13.321  17.897 -0.0604 -0.3221  0.1535
35413W        W78330  29.704  11.610  16.786  0.0532  0.0083  0.1274
35414W        W78331  30.900  11.134  18.334  0.0051 -0.0357 -0.0016
35415W        W78332  30.641  12.701  20.766 -0.2374  0.1019 -0.1962
35416W        W78333  30.517  13.432  20.337  0.2709  0.1846  0.1677
35417W        W78334  30.713  13.178  20.695  0.1273  0.0681  0.0720
35418W        W78335  31.772  13.591  16.962 -0.2123  0.1007  0.1838
35419W        W78336  31.379  11.596  20.971  0.0403  0.0923 -0.3286
35420W        W78337  29.898  11.411  17.250  0.1717 -0.0696 -0.1907
35421W        W78338  29.591  14.491  18.721 -0.0661  0.2565  0.2114
35422W        W78339  28.791  13.357  18.339  0.0244 -0.1717  0.0336
35423W        W78340  31.142  10.264  18.851 -0.2412  0.1574  0.1809
35424W        W78341  29.688  13.634  20.488  0.1057  0.5317 -0.1280
35425W        W78342  31.196  14.956  16.951  0.1767 -0.4193  0.1679
35426W        W78343  32.030  11.598  20.611  0.0878 -0.0533  0.2824
35427W        W78344  30.056  16.417  16.932  0.3057  0.1677  0.0346
35428W        W78345  31.378   9.289  22.109  0.1394 -0.0334 -0.0897
35429W        W78346  28.540  14.806  19.685 -0.1937 -0.2150 -0.2685
35430W        W78347  29.956  12.839  18.789  0.1724  0.0025  0.0630
35431W        W78348  29.160  12.713  17.670  0.0931  0.0548 -0.0603
35432W        W78349  31.769  10.250  18.374  0.1901  0.2875 -0.1989
35433W        W78350  32.246  13.079  17.186 -0.0355  0.2010  0.1383
35434W        W78351  28.969  11.534  19.706 -0.3150  0.1743  0.1079
35435W        W78352  30.768  12.227  18.930  0.0396 -0.1806 -0.0937
35436W        W78353  30.666  12.656  19.199 -0.0984 -0.0783 -0.2810
35437W        W78354  31.070  10.637  20.645 -0.1348 -0.1890  0.1457
35438W        W78355  32.858  10.725  17.019  0.2206 -0.0536 -0.1316
35439W        W78356  31.993  12.325  19.351 -0.2686  0.0803  0.2750
35440W        W78357  31.835  12.044  20.752  0.0406  0.2561 -0.1357
35441W        W78358  28.581  12.443  18.737  0.0692 -0.3874  0.2161
35442W        W78359  32.081  11.109  19.703  0.1549 -0.3419  0.0581
35443W        W78360  30.739  12.069  18.320  0.1166 -0.3047  0.1118
35444W        W78361  30.782  15.627  18.495 -0.0696 -0.1187  0.2065
35445W        W78362  32.487  13.887  18.540 -0.1261  0.1730  0.2006
35446W        W78363  28.120  13.064  19.008 -0.0145 -0.0079  0.0204
35447W        W78364  27.738  13.860  18.306  0.1321  0.1072  0.0597
35448W        W78365  30.085  13.599  21.225 -0.1513 -0.0987 -0.2852
35449W        W78366  33.675  12.600  21.520 -0.1030 -0.1348 -0.0790
35450W        W78367  28.545  13.046  20.887  0.0992  0.1926  0.4747
35451W        W78368  31.200  12.086  18.708 -0.2705 -0.0967  0.1041
35452W        W78369  30.065  12.367  17.738 -0.3631 -0.1706 -0.0795
35453W        W78370  32.188  13.382  21.016  0.5687  0.2335 -0.0122
35454W        W78371  30.960  11.614  18.204 -0.0024 -0.1471 -0.0835
35455W        W78372  30.839  13.361  21.481  0.1958  0.1516 -0.1828
35456W        W78373  32.227   9.244  20.864  0.0191  0.0620  0.1470
35457W        W78374  31.353  13.322  17.693  0.0257 -0.0272  0.0006
35458W        W78375  31.711  13.238  19.494  0.1648  0.0506 -0.1240
35459W        W78376  28.813  14.682  17.373  0.1883 -0.1244 -0.0114
35460W        W78377  29.336  12.796  18.173  0.2615  0.0971 -0.0414
35461W        W78378  30.503  13.860  19.952  0.2422 -0.1135  0.0886
35462W        W78379  31.857  11.256  18.757  0.1376  0.0441 -0.0393
35463W        W78380  29.418  13.304  18.078  0.0459  0.0830  0.0336
35464W        W78381  29.397  15.144  16.575  0.2791  0.0486  0.0559
35465W        W78382  30.014  13.947  21.563  0.0470 -0.0072  0.1805
35466W        W78383  32.142  10.322  18.035  0.0057  0.0231 -0.4298
35467W        W78384  31.085  13.441  18.677  0.0524  0.0744  0.3023
35468W        W78385  31.784  11.111  18.253  0.1686 -0.0192 -0.1982
35469W        W78386  32.588  10.339  19.421  0.1510  0.0759  0.2468
35470W        W78387  32.934  12.393  19.810  0.0082  0.0154  0.1975
35471W        W78388  32.527  12.497  19.107 -0.0389 -0.1315  0.2951
35472W        W78389  28.469  13.346  19.168 -0.1981  0.1504  0.2243
35473W        W78390  31.413  13.906  18.092  0.0434  0.3434  0.0598
35474W        W78391  29.933  12.615  20.764 -0.3367 -0.1117  0.0412
35475W        W78392  29.964  12.729  21.337 -0.3923 -0.1579 -0.0435
35476W        W78393  32.021  14.887  20.380  0.2923  0.0528  0.2540
35477W        W78394  31.634  12.497  18.183 -0.0688 -0.0753  0.0195
35478W        W78395  30.581  10.954  18.965 -0.1860 -0.1456 -0.0730
35479W        W78396  28.897  13.469  18.804 -0.0384  0.1473 -0.1111
35480W        W78397  31.352  10.786  20.159 -0.0357 -0.1297  0.0386
35481W        W78398  29.112  13.589  17.831  0.3181 -0.0304 -0.1130
35482W        W78399  32.820  10.991  18.010 -0.1069 -0.2613  0.0287
35483W        W78400  28.154  12.726  21.055 -0.1128  0.1445  0.1423
35484W        W78401  33.798  13.228  18.749  0.0794 -0.1202 -0.0298
35485W        W78402  30.963  11.916  17.296  0.1133 -0.1585 -0.1066
35486W        W78403  29.217  14.352  18.449  0.2193  0.1221 -0.1050
35487W        W78404  30.292  11.823  20.205  0.1429 -0.1300  0.3411
35488W        W78405  31.827  14.277  18.913 -0.1204  0.1978 -0.2548
35489W        W78406  30.835  10.236  17.753  0.1843  0.1849  0.2070
35490W        W78407  30.147  10.758  18.844 -0.1008  0.0634  0.0827
35491W        W78408  31.044  10.828  18.727 -0.4148 -0.3094 -0.0731
35492W        W78409  30.645  12.945  18.088  0.0447 -0.0989  0.0330
35493W        W78410  30.540  11.383  19.930  0.1078 -0.2385 -0.1385
35494W        W78411  32.037  14.347  20.271  0.0001  0.1710  0.1592
35495W        W78412  29.350  12.506  17.176  0.1727  0.0317 -0.1522
35496W        W78413  33.408  11.658  19.774  0.1057 -0.0996  0.1311
35497W        W78414  30.518  12.414  18.064  0.2608  0.0035  0.0478
35498W        W78415  30.161  12.868  17.900 -0.3063 -0.2866 -0.0742
35499W        W78416  29.569  12.390  21.463 -0.2109 -0.4211 -0.0535
35500W        W78417  31.223  12.825  20.198  0.2918  0.1351  0.0810
35501W        W78418  30.491  11.932  17.483 -0.1813 -0.3688  0.1248
35502W        W78419  32.014  12.886  19.213 -0.0971  0.0185  0.1629
35503W        W78420  30.770  14.045  18.669 -0.1272 -0.1483 -0.0917
35504W        W78421  30.345  14.637  19.393  0.2160  0.0953  0.1938
35505W        W78422  31.761  12.940  17.140  0.2601 -0.1301  0.0888
35506W        W78423  28.627  11.533  20.041  0.0388  0.2315 -0.1662
35507W        W78424  30.635  13.396  21.939 -0.1642 -0.0690  0.0805
35508W        W78425  28.953  11.300  17.616 -0.1677 -0.0982  0.4073
35509W        W78426  28.508  12.725  17.130 -0.1639 -0.0194 -0.2582
35510W        W78427  31.759  13.819  19.169 -0.0987 -0.1297  0.0234
35511W        W78428  34.430  13.727  21.484  0.0737 -0.0944  0.2890
35512W        W78429  32.805  12.968  18.868  0.0935 -0.2740 -0.0564
35513W        W78430  30.990  11.704  20.064  0.0753 -0.0497  0.1134
35514W        W78431  26.354  13.485  18.476 -0.1313  0.3080  0.0824
35515W        W78432  30.903   9.716  17.920 -0.1182 -0.3316  0.2183
35516W        W78433  29.505  12.726  20.581 -0.2300  0.4108 -0.0505
35517W        W78434  28.134  13.630  17.574 -0.0125  0.0411 -0.0412
35518W        W78435  30.682  12.575  18.488  0.0287  0.1694 -0.2384
35519W        W78436  29.434  11.771  18.271  0.0454 -0.0940 -0.0546
35520W        W78437  32.001  13.347  19.009  0.0148 -0.0902  0.0419
35521W        W78438  29.977  14.350  19.099 -0.2767  0.0049 -0.1927
35522W        W78439  31.086  12.525  17.993  0.0227 -0.0274 -0.1552
35523W        W78440  31.780  13.700  21.003  0.1561  0.3961 -0.3300
35524W        W78441  27.026  14.461  18.098 -0.0687 -0.1048 -0.3510
35525W        W78442  30.399  14.162  21.314 -0.1492 -0.0105 -0.0306
35526W        W78443  32.005  13.428  20.054  0.3621 -0.1835 -0.1015
35527W        W78444  29.411  13.631  19.464  0.1608 -0.2186 -0.2696
35528W        W78445  28.428  11.700  21.076 -0.2398 -0.0036 -0.0341
35529W        W78446  27.210  11.537  19.926 -0.0305  0.1131 -0.1924
35530W        W78447  31.450  13.300  20.002 -0.0438  0.0076  0.1303
35531W        W78448  30.321  12.207  18.620  0.1412  0.3295  0.3307
35532W        W78449  30.706  14.387  19.703 -0.1952  0.2241  0.1525
35533W        W78450  30.719  12.920  20.238 -0.0230 -0.1903  0.0041
35534W        W78451  29.788  13.176  20.628  0.0765  0.2793 -0.1644
35535W        W78452  30.411  14.389  17.869  0.2736 -0.1443  0.0508
35536W        W78453  34.430  13.432  19.448 -0.2154  0.0253  0.1270
35537W        W78454  30.527  13.102  17.564 -0.1341  0.1097  0.1234
35538W        W78455  30.296  12.915  19.908  0.1256 -0.1174  0.1469
35539W        W78456  29.019  11.621  17.161 -0.1117 -0.0551  0.1117
35540W        W78457  28.771  12.937  19.477  0.0898  0.3101  0.2580
35541W        W78458  29.530  12.455  18.483  0.1357 -0.0064  0.1895
35542W        W78459  31.825  13.343  17.394 -0.3826  0.1030 -0.0112
35543W        W78460  27.936  12.562  18.727 -0.0851 -0.2756 -0.1768
35544W        W78461  33.236  15.857  18.757  0.3055  0.0929  0.1145
35545W        W78462  31.338  10.990  18.056 -0.1562  0.2604 -0.0387
35546W        W78463  32.386  12.672  17.960  0.0574 -0.0688  0.0016
35547W        W78464  31.118  13.028  18.234  0.0335  0.1627 -0.1324
35548W        W78465  30.887  13.913  21.287  0.3390 -0.2081  0.3861
35549W        W78466  29.154  13.109  19.036 -0.1119  0.0495  0.2681
35550W        W78467  30.469  13.384  16.996 -0.1766  0.2287 -0.1589
35551W        W78468  33.832  13.150  21.827  0.4396  0.0817 -0.0723
35552W        W78469  33.778  10.855  21.024 -0.0324  0.3104 -0.2551
35553W        W78470  29.179  13.518  21.087  0.4687 -0.0010 -0.1102
35554W        W78471  32.102  14.098  17.629 -0.1273  0.1034  0.1445
35555W        W78472  30.208  11.436  17.691  0.4921  0.0584 -0.2675
35556W        W78473  30.153  14.002  18.791  0.2118 -0.2059  0.0258
35557W        W78474  30.768  10.511  18.548  0.0386  0.1466  0.0449
35558W        W78475  29.160  13.683  18.411 -0.0809  0.0220  0.1237
35559W        W78476  29.720  12.681  17.803  0.1764  0.2094 -0.0861
35560W        W78477  30.844  14.065  17.438 -0.0187 -0.0489 -0.0051
35561W        W78478  28.723  14.260  18.686 -0.2068 -0.0124 -0.0810
35562W        W78479  30.200  14.234  19.805  0.0372 -0.2303 -0.1373
35563W        W78480  30.097  10.146  16.850  0.1511 -0.3551  0.3080
35564W        W78481  33.669  12.439  17.918  0.1498  0.0713 -0.0640
35565W        W78482  29.399  12.528  19.804  0.0470 -0.0875 -0.0797
35566W        W78483  33.157   9.473  19.275  0.2358  0.0471 -0.1910
35567W        W78484  28.568  12.014  17.960  0.0854 -0.0663  0.0234
35568W        W78485  30.855  13.484  17.425  0.2657  0.0512 -0.0253
35569W        W78486  31.146  12.079  19.198 -0.0928 -0.2554  0.0751
35570W        W78487  29.191  12.291  20.566 -0.1014 -0.1758  0.3335
35571W        W78488  30.087   9.585  18.039  0.0167  0.0618 -0.0776
35572W        W78489  33.554  12.372  21.080 -0.2978 -0.1695 -0.3775
35573W        W78490  31.884  14.634  18.412 -0.0520  0.1398  0.0570
35574W        W78491  31.463  13.633  21.895 -0.2251 -0.1740  0.0636
35575W        W78492  29.845  12.063  18.175 -0.1359 -0.2235  0.1846
35576W        W78493  32.266   9.848  18.148  0.0991  0.1656  0.0141
35577W        W78494  29.608  13.290  18.604 -0.0415  0.2692 -0.3983
35578W        W78495  29.189  14.034  18.050  0.3021 -0.0046  0.0123
35579W        W78496  31.243  11.551  21.621 -0.2100  0.0049  0.1416
35580W        W78497  29.134  10.600  21.705 -0.1743 -0.1638  0.2490
35581W        W78498  32.160  13.141  18.003  0.1667  0.1177 -0.2076
35582W        W78499  33.786  13.499  21.458  0.0193 -0.0957 -0.5353
35583W        W78500  29.870  13.651  18.407  0.0547  0.1803  0.2437
35584W        W78501  31.059  14.664  20.243  0.0987 -0.1253 -0.0239
35585W        W78502  31.457  14.884  19.982  0.1365 -0.4329  0.1523
35586W        W78503  27.602  12.917  19.900  0.0881 -0.0515 -0.0500
35587W        W78504  32.586  14.241  18.876 -0.0615  0.1246  0.0044
35588W        W78505  32.974  12.760  18.367  0.1171 -0.3644 -0.0258
35589W        W78506  30.825  12.058  17.813 -0.0764  0.2485  0.0905
35590W        W78507  30.225  11.621  19.033 -0.3354  0.1425  0.0462
35591W        W78508  27.754  14.317  20.552  0.0515  0.2401  0.1028
35592W        W78509  33.009  10.648  19.190 -0.3394 -0.3793  0.5691
35593W        W78510  32.698  11.652  19.059 -0.2401  0.2821  0.0641
35594W        W78511  30.354  14.426  16.899 -0.1511  0.5001 -0.0938
35595W        W78512  32.485  12.215  19.630 -0.0931  0.1246 -0.0775
35596W        W78513  32.274  13.888  19.868 -0.1161 -0.1438  0.0384
35597W        W78514  30.769  12.997  21.161 -0.0525 -0.0926  0.2567
35598W        W78515  29.505  13.351  17.574 -0.1115 -0.3886 -0.1090
35599W        W78516  31.233  12.354  22.086 -0.1459 -0.3922  0.2538
35600W        W78517  28.897  14.242  17.544  0.0324  0.2350  0.0687
35601W        W78518  28.843  12.315  18.284 -0.2783  0.2578  0.2273
35602W        W78519  31.513  13.678  20.394  0.0986  0.0805 -0.0558
35603W        W78520  32.386  12.702  19.527 -0.2551  0.1062  0.1790
35604W        W78521  31.121  15.479  18.157  0.0747 -0.1647  0.2542
35605W        W78522  29.089   9.641  22.027 -0.0141 -0.0053 -0.1645
35606W        W78523  32.717  11.102  18.999 -0.0537 -0.1157  0.1176
35607W        W78524  31.133  11.698  17.714 -0.0438 -0.0636  0.1410
35608W        W78525  30.326  12.464  19.557  0.0787 -0.1136  0.0677
35609W        W78526  27.665  14.555  16.604 -0.4622  0.3590  0.0930
35610W        W78527  29.172  13.054  18.557  0.1405  0.0396  0.3212
35611W        W78528  28.055  12.150  17.888 -0.3973  0.0552 -0.0663
35612W        W78529  29.825  10.678  19.842  0.0665  0.2479  0.2315
35613W        W78530  30.641  11.503  20.435  0.2149 -0.0957  0.1159
35614W        W78531  28.703  11.959  21.423 -0.1340 -0.2525 -0.2840
35615W        W78532  29.398  12.215  18.048 -0.0756 -0.2088 -0.0881
35616W        W78533  33.158  14.587  17.085  0.0536  0.0519  0.2937
35617W        W78534  29.418  13.134  19.508 -0.0738 -0.0967  0.0538
35618W        W78535  29.159  12.067  17.463  0.1002  0.0066  0.1804
35619W        W78536  30.492  13.124  18.885  0.1363 -0.2150  0.2309
35620W        W78537  31.153  13.771  17.680 -0.2530 -0.1515  0.0789
35621W        W78538  30.922  10.011  18.397 -0.0198  0.1514 -0.2058
35622W        W78539  33.457  12.204  20.131  0.1104  0.1295  0.0678
35623W        W78540  28.261  15.899  17.007 -0.0140 -0.0994 -0.1336
35624W        W78541  31.604  11.861  19.448  0.2610 -0.2285 -0.1125
35625W        W78542  29.611  12.370  20.206  0.1674  0.0364  0.0798
35626W        W78543  27.856  13.221  18.490 -0.0374  0.0562  0.1552
35627W        W78544  31.696  13.680  19.654 -0.1824  0.1675 -0.1730
35628W        W78545  30.546  13.858  17.938 -0.0233  0.2335  0.3108
35629W        W78546  33.299  12.145  19.665  0.2329  0.0782  0.4514
35630W        W78547  29.518  14.955  20.700 -0.1014 -0.0448  0.1447
35631W        W78548  31.012  13.497  20.902  0.3787 -0.2378  0.0897
35632W        W78549  28.878  11.545  21.602 -0.0728 -0.0150  0.0113
35633W        W78550  32.332  13.980  18.035 -0.2784 -0.2928 -0.0724
35634W        W78551  31.299  13.091  21.287 -0.0863 -0.0137  0.2590
35635W        W78552  32.524  12.928  18.338 -0.1420  0.0985  0.2458
35636W        W78553  31.284  11.557  19.590 -0.2908  0.2624  0.1988
35637W        W78554  30.766  12.209  19.455  0.0126 -0.4421 -0.2543
35638W        W78555  29.513  10.535  20.705 -0.3534 -0.2246  0.2586
35639W        W78556  28.997  12.338  21.453  0.0465 -0.1705 -0.2548
35640W        W78557  32.106  12.326  19.978  0.2418  0.3967  0.1629
35641W        W78558  29.749  11.396  18.241  0.0652  0.1123  0.0917
35642W        W78559  32.148  10.555  17.536 -0.2873 -0.1923 -0.0857
35643W        W78560  29.830  13.689  18.978  0.0055 -0.3686  0.0897
35644W        W78561  28.666  13.416  21.201 -0.1111  0.3217 -0.3798
35645W        W78562  30.405  10.013  18.708  0.1700  0.1877 -0.0389
35646W        W78563  30.772  11.748  19.103  0.3223 -0.0447  0.0250
35647W        W78564  30.101  13.373  18.709  0.1397  0.1302 -0.0730
35648W        W78565  32.860  13.365  23.121 -0.3308 -0.1830 -0.0359
35649W        W78566  28.885  13.013  17.975  0.1887 -0.3971  0.3768
35650W        W78567  33.021  12.247  18.252  0.0270  0.1580 -0.2959
35651W        W78568  30.697  13.495  19.366  0.2903  0.0546  0.2632
35652W        W78569  32.875  13.083  22.140  0.1081  0.1068 -0.0852
35653W        W78570  29.844  12.305  18.934  0.2807 -0.0712  0.0183
35654W        W78571  31.063  11.664  20.640 -0.0194 -0.1537 -0.1288
35655W        W78572  29.160  12.650  20.220  0.0618  0.2802  0.0220
35656W        W78573  28.255  13.677  19.970 -0.2708 -0.4159  0.0746
35657W        W78574  29.074  14.603  17.932  0.1513  0.0827 -0.0547
35658W        W78575  33.050  14.339  19.002 -0.4387 -0.1391  0.2844
35659W        W78576  30.232  11.246  18.710 -0.2876 -0.0887  0.1306
35660W        W78577  31.309   9.500  17.661  0.0893 -0.2841 -0.3486
35661W        W78578  28.291  13.830  19.073 -0.0401  0.0301  0.3227
35662W        W78579  31.394  13.410  19.081 -0.0233 -0.2198 -0.3416
35663W        W78580  31.839  13.704  23.218  0.0311 -0.1527  0.1274
35664W        W78581  28.945   9.381  23.420 -0.1262  0.3028 -0.0738
35665W        W78582  31.754  12.424  20.401  0.1296 -0.2288 -0.0884
35666W        W78583  33.302  11.328  23.232  0.0551 -0.1096 -0.0972
35667W        W78584  29.773   9.910  22.892 -0.0500 -0.0124  0.1764
35668W        W78585  33.660  15.327  21.959  0.2506  0.1683  0.0736
35669W        W78586  27.530   9.464  23.044  0.0562  0.0617 -0.0114
35670W        W78587  31.847  14.201  23.052  0.1152  0.0676 -0.0861
35671W        W78588  33.003  14.281  22.152  0.1062  0.1660 -0.2073
35672W        W78589  31.294  12.107  20.823 -0.2397 -0.0763 -0.5640
35673W        W78590  30.095  13.625  23.191 -0.2870 -0.0868  0.0807
35674W        W78591  31.952  11.468  23.281  0.1105  0.2666  0.1893
35675W        W78592  29.301  10.575  21.210  0.2610 -0.3017 -0.1565
35676W        W78593  29.048  11.074  21.320  0.1422  0.0326 -0.2097
35677W        W78594  31.064  10.342  22.967  0.1104  0.0811 -0.3064
35678W        W78595  29.004  12.536  21.018 -0.0263 -0.0312  0.0415
35679W        W78596  30.282   9.676  22.745 -0.0292  0.0974 -0.1676
35680W        W78597  30.615  11.020  20.255 -0.2385  0.0585 -0.0579
35681W        W78598  28.887  13.735  23.645  0.1117 -0.3088  0.2513
35682W        W78599  29.507  12.258  22.747 -0.0423  0.1453  0.2819
35683W        W78600  31.256  10.518  24.558  0.5371  0.0829 -0.0819
35684W        W78601  29.415  13.293  21.554  0.1115  0.2715  0.1669
35685W        W78602  29.024  11.352  22.423 -0.3264 -0.0598 -0.1211
35686W        W78603  27.397  12.002  21.219  0.0804  0.1377 -0.3028
35687W        W78604  31.271  11.314  23.207  0.1834 -0.1486  0.4103
35688W        W78605  34.312   9.769  22.357 -0.1261 -0.3040 -0.2429
35689W        W78606  31.066  10.742  22.056 -0.0048 -0.1826  0.3248
35690W        W78607  30.958  11.927  22.028  0.2357  0.1489 -0.1975
35691W        W78608  31.153  13.042  21.754 -0.1751  0.0678  0.1607
35692W        W78609  33.074  11.452  23.662  0.0805  0.0952 -0.1793
35693W        W78610  30.889  13.638  23.680  0.0192 -0.2370 -0.1966
35694W        W78611  28.570  15.418  22.463  0.1992  0.4356  0.3791
35695W        W78612  29.296  11.897  21.287 -0.1072  0.2254 -0.0208
35696W        W78613  32.402  12.913  21.021  0.2353 -0.0195 -0.1744
35697W        W78614  33.728  14.581  22.743 -0.0617  0.0386  0.2078
35698W        W78615  29.910  15.080  26.008 -0.1194  0.0001  0.0691
35699W        W78616  29.450  11.419  21.270  0.0377 -0.0962 -0.3855
35700W        W78617  33.764  15.579  22.584  0.3312  0.2341  0.1918
35701W        W78618  32.082  14.207  22.482  0.0488  0.0371  0.0834
35702W        W78619  31.690  11.895  23.898  0.0340 -0.0174 -0.0493
35703W        W78620  32.900  13.162  20.973 -0.3511  0.2131  0.2439
35704W        W78621  28.834  13.572  20.677  0.1137 -0.0166 -0.0877
35705W        W78622  30.281  12.960  20.999 -0.1550 -0.0248  0.1302
35706W        W78623  29.903  15.006  23.718  0.0056 -0.0824  0.0018
35707W        W78624  30.286  12.520  21.755  0.2101 -0.1068 -0.0258
35708W        W78625  31.207  13.323  23.271  0.1069 -0.1740 -0.0151
35709W        W78626  28.916  13.012  19.957  0.1111  0.0777 -0.0298
35710W        W78627  31.779  12.742  19.639 -0.0848  0.1531 -0.0759
35711W        W78628  29.632  12.214  19.493  0.1221  0.0304  0.1681
35712W        W78629  29.749  11.815  21.119  0.4145  0.0842 -0.2617
35713W        W78630  29.011   9.764  23.725 -0.2543 -0.0564 -0.1262
35714W        W78631  27.403  13.223  23.171  0.0992  0.0498  0.0890
35715W        W78632  31.011   8.866  23.897  0.1140 -0.1992  0.0260
35716W        W78633  33.671  11.603  23.028 -0.1437  0.0993 -0.1179
35717W        W78634  33.781  10.217  22.276  0.3402 -0.2123 -0.1026
35718W        W78635  32.509  11.469  22.720  0.1589  0.1384 -0.0206
35719W        W78636  30.482  12.972  22.495 -0.3186  0.2868  0.2078
35720W        W78637  29.253  11.801  22.607 -0.0134 -0.0892 -0.3780
35721W        W78638  32.066  15.359  21.261  0.0321  0.1177  0.2416
35722W        W78639  32.674  12.211  23.996 -0.0192 -0.1718 -0.1655
35723W        W78640  31.267  13.746  19.945  0.1791  0.4170  0.0553
35724W        W78641  30.965  11.183  21.800 -0.0727 -0.0052 -0.1066
35725W        W78642  29.010  11.508  24.089 -0.3644 -0.3234  0.1297
35726W        W78643  29.517  13.322  24.159  0.0947 -0.4488 -0.4184
35727W        W78644  31.338  11.051  20.907 -0.0856 -0.4287 -0.0880
35728W        W78645   0.005  12.822  23.271 -0.3648 -0.1838  0.1682
35729W        W78646  29.753  16.477  23.615  0.0222 -0.0124 -0.5342
35730W        W78647  33.151  12.173  23.757  0.0585 -0.1340  0.2385
35731W        W78648  28.926  11.583  21.107 -0.0274  0.0711 -0.1442
35732W        W78649  31.914  12.981  21.059 -0.0885 -0.1778 -0.0034
35733W        W78650  32.684  13.913  20.613  0.2055 -0.0573  0.0198
35734W        W78651  31.921  10.140  23.729  0.1408  0.1408 -0.0914
35735W        W78652  30.782  11.159  24.638 -0.0465 -0.1127 -0.0937
35736W        W78653  30.192  11.719  20.754 -0.0445 -0.0808  0.0735
35737W        W78654  28.903  13.460  19.350 -0.2552  0.0418  0.0213
35738W        W78655  31.732  11.192  23.879  0.2179 -0.2542  0.0999
35739W        W78656  29.999  10.873  20.770 -0.0783 -0.2298  0.0022
35740W        W78657  30.975  16.136  21.933 -0.2300  0.3628  0.0209
35741W        W78658  29.677   8.990  24.188 -0.0331 -0.4837 -0.1486
35742W        W78659  31.115  14.487  25.205 -0.0209  0.0351  0.0988
35743W        W78660  28.375  13.968  20.366  0.0233 -0.0683  0.2845
35744W        W78661  27.014  13.425  22.214 -0.2267 -0.0848  0.2397
35745W        W78662  27.894  13.549  22.546  0.1698 -0.2889  0.1846
35746W        W78663  27.614  11.873  23.705 -0.3122 -0.0158  0.1084
35747W        W78664  30.735  10.800  23.095  0.0586 -0.3134  0.1010
35748W        W78665  31.116  10.835  21.455  0.0958  0.2953  0.1326
35749W        W78666  30.118  12.692  24.850  0.2437  0.0867 -0.2386
35750W        W78667  31.942  10.411  21.949 -0.0383  0.1335  0.1893
35751W        W78668  27.771  13.661  23.055 -0.0346  0.2344 -0.1725
35752W        W78669  33.399  13.280  21.039 -0.0038 -0.1967 -0.1083
35753W        W78670  29.773  11.981  20.602 -0.2050  0.1553  0.1491
35754W        W78671  30.557  13.425  21.087 -0.1512  0.0394  0.2595
35755W        W78672  29.076  11.782  22.038 -0.1008 -0.1621  0.0377
35756W        W78673  28.391   9.578  22.271  0.0183 -0.1012 -0.0979
35757W        W78674  26.976  11.755  22.054 -0.0788 -0.0751 -0.3246
35758W        W78675  27.773  10.207  22.574  0.0566 -0.1513  0.0462
35759W        W78676  31.698  11.472  24.372 -0.1403 -0.2392  0.0010
35760W        W78677  28.832   8.640  20.533  0.2762 -0.0362  0.1743
35761W        W78678  31.252  12.036  20.314 -0.1227  0.0891 -0.0553
35762W        W78679  29.468  10.947  20.978 -0.0704 -0.1522  0.0173
35763W        W78680  29.437  11.982  21.754  0.0055  0.0561  0.3500
35764W        W78681  34.206  10.529  21.981 -0.2472 -0.2633  0.0944
35765W        W78682  31.614  12.758  23.000 -0.3148  0.3979  0.2381
35766W        W78683  33.460  12.055  22.916  0.2623  0.0230  0.0256
35767W        W78684  30.434  14.607  22.926 -0.2125  0.2467 -0.0467
35768W        W78685  29.661  10.564  23.970  0.2979 -0.1243 -0.0451
35769W        W78686  28.188  10.953  20.248 -0.0501 -0.4112 -0.2138
35770W        W78687  30.101  15.034  22.947  0.1520  0.3143  0.1723
35771W        W78688  30.438  12.716  23.772 -0.0055  0.1602  0.1905
35772W        W78689  30.615  10.362  23.318  0.1161  0.0696 -0.1789
35773W        W78690  33.005  14.422  23.060 -0.0206  0.1370 -0.2888
35774W        W78691  32.425  11.707  19.442  0.2111  0.2289  0.1709
35775W        W78692  31.022  12.899  23.055 -0.1269  0.0931  0.3338
35776W        W78693  30.673  10.292  24.113 -0.1062 -0.2002 -0.3223
35777W        W78694  32.280  12.201  23.636  0.0423  0.0873 -0.0449
35778W        W78695  30.496  12.850  23.158  0.5906  0.3509  0.1007
35779W        W78696  31.541  12.303  21.241  0.3700  0.0385 -0.0935
35780W        W78697  30.998  15.321  23.174  0.1525  0.1140  0.2339
35781W        W78698  29.024  13.978  22.977 -0.1561 -0.0185  0.2025
35782W        W78699  29.604  13.099  22.707  0.1488 -0.1121 -0.1658
35783W        W78700  30.869  12.487  23.585 -0.2526 -0.1877  0.0395
35784W        W78701  30.222   9.728  24.431  0.1643 -0.1670  0.2711
35785W        W78702  27.455  13.649  23.860  0.1580 -0.2665  0.0629
35786W        W78703  31.580  13.547  24.040 -0.1807  0.3636  0.0111
35787W        W78704  30.953  13.093  19.211 -0.3180 -0.2536  0.4165
35788W        W78705  30.909  14.138  22.199  0.1509  0.0418 -0.1191
35789W        W78706  30.873  11.132  22.275  0.1727 -0.1550 -0.0422
35790W        W78707  31.559  11.301  19.931 -0.2351 -0.0265  0.2021
35791W        W78708  31.541  12.632  26.577  0.2528 -0.1553 -0.1798
35792W        W78709  32.331  13.788  22.669 -0.1765 -0.0133 -0.0094
35793W        W78710  31.862  10.892  20.104  0.1563  0.2298 -0.0682
35794W        W78711  30.565  12.291  20.470 -0.2819  0.2690 -0.0879
35795W        W78712  29.733  12.042  25.522  0.1037  0.1712  0.2759
35796W        W78713  30.026  12.205  21.359  0.1048  0.2817  0.3117
35797W        W78714  31.389  10.877  23.657 -0.1293 -0.0161  0.0925
35798W        W78715  32.329  11.193  20.514  0.2528 -0.0627  0.0218
35799W        W78716  31.064  13.227  22.196 -0.2342  0.0693  0.1137
35800W        W78717  29.903  14.491  23.684  0.0529  0.1511  0.1401
35801W        W78718  32.592  14.083  21.659  0.2080  0.0677  0.3130
35802W        W78719  32.178  14.319  21.616 -0.1275 -0.0675  0.1532
35803W        W78720  30.879  10.951  23.928 -0.0191  0.1322 -0.0303
35804W        W78721  30.157  10.798  22.817  0.0962 -0.1465 -0.0761
35805W        W78722  28.557   9.775  21.393 -0.1112  0.0371  0.1485
35806W        W78723  28.256  14.312  20.691 -0.1306 -0.0148  0.0429
35807W        W78724  33.440   8.757  22.486 -0.0513 -0.2617  0.3902
35808W        W78725  29.478  10.620  22.982  0.2175  0.0127 -0.0927
35809W        W78726  29.876   9.235  25.273  0.3743 -0.0235  0.2377
35810W        W78727  33.136  12.480  24.073  0.3683 -0.0876 -0.0730
35811W        W78728  32.483  12.182  21.612  0.0397  0.1409  0.0474
35812W        W78729  31.494  11.082  22.399  0.0063 -0.0801  0.2355
35813W        W78730  30.827  12.087  20.829 -0.4864 -0.1425 -0.0485
35814W        W78731  32.272  11.108  23.080  0.0257 -0.0315  0.0629
35815W        W78732  29.644  13.819  24.510 -0.1502  0.0850  0.2416
35816W        W78733  32.497  11.978  22.719 -0.1030 -0.1145  0.0464
35817W        W78734  31.556  13.282  22.368 -0.0120  0.0351  0.0449
35818W        W78735  33.227  12.738  21.865 -0.1151 -0.2336 -0.1806
35819W        W78736  31.709  11.289  25.414 -0.0310  0.3200  0.1268
35820W        W78737  30.600   9.916  23.069 -0.2053 -0.0602 -0.1849
35821W        W78738  30.116  14.489  21.607 -0.1422  0.2742  0.0086
35822W        W78739  31.613  12.737  21.414 -0.1084  0.0752  0.1714
35823W        W78740  29.459  11.406  24.293  0.1665  0.0299  0.0868
35824W        W78741  32.003  11.671  22.800  0.2479 -0.1300 -0.1781
35825W        W78742  29.861  13.453  19.585 -0.2054 -0.0179 -0.0926
35826W        W78743  31.531  12.969  23.901  0.0427 -0.0609  0.1154
35827W        W78744  29.581  12.025  22.215 -0.0147 -0.0071  0.0366
35828W        W78745  32.050   8.119  24.508  0.2009 -0.1468  0.1407
35829W        W78746  27.021  13.941  23.820  0.1548  0.0642 -0.2467
35830W        W78747  29.107  13.779  20.287 -0.2986 -0.1000  0.1416
35831W        W78748  28.810  10.773  20.950  0.0725  0.0644 -0.0055
35832W        W78749  32.149   9.618  23.045 -0.1016 -0.2810 -0.1146
35833W        W78750  32.391  12.576  20.612  0.0024 -0.0874 -0.0503
35834W        W78751  30.125  11.385  23.540 -0.2727  0.1997 -0.1230
35835W        W78752  30.824   9.493  21.532  0.0107 -0.2215  0.2579
35836W        W78753  28.290  13.622  23.637  0.1867  0.2707  0.2524
35837W        W78754  31.246  13.615  24.739  0.1464 -0.4183  0.3487
35838W        W78755  31.068   9.986  21.475 -0.0393 -0.2348  0.2660
35839W        W78756  33.797  14.269  22.368 -0.2914 -0.0872 -0.0507
35840W        W78757  31.237  13.099  24.342 -0.4191 -0.0727  0.2631
35841W        W78758  30.190  11.272  20.523 -0.2758 -0.4787 -0.2669
35842W        W78759  32.922  12.746  23.163 -0.0897  0.1471  0.1636
35843W        W78760  29.268  10.442  24.416  0.1059  0.1859  0.0719
35844W        W78761  28.963  12.072  22.903 -0.2900  0.2307  0.1841
35845W        W78762  31.264  10.777  23.070  0.1666  0.1740  0.2500
35846W        W78763  30.308  11.910  19.711 -0.0702 -0.0659 -0.1905
35847W        W78764  29.120  13.581  24.257 -0.0485 -0.4018 -0.0544
35848W        W78765  30.387   9.576  23.891  0.0544 -0.1205 -0.1400
35849W        W78766  30.483  13.732  21.525  0.0489 -0.0180  0.1591
35850W        W78767  30.734  12.280  21.733  0.0325  0.0337  0.1223
35851W        W78768  28.359   9.204  22.594 -0.0084  0.1709 -0.2067
35852W        W78769  31.233  12.483  21.587 -0.1171 -0.0790 -0.1085
35853W        W78770  31.956  10.840  22.183  0.2741 -0.0151  0.0863
35854W        W78771  31.419  13.765  23.035  0.1780 -0.1166 -0.2464
35855W        W78772  32.583  13.761  23.505  0.0654  0.4555  0.4459
35856W        W78773  32.220  10.701  23.329  0.0999 -0.2224 -0.0610
35857W        W78774  34.424  13.395  21.059  0.0235  0.0717  0.0967
35858W        W78775  31.295  11.836  23.021  0.2288  0.3103  0.0413
35859W        W78776  29.011  13.513  19.827 -0.1249  0.1319  0.0702
35860W        W78777  29.357  12.654  23.411 -0.0400 -0.3552  0.0780
35861W        W78778  27.808  13.184  22.877  0.2270 -0.0510 -0.2436
35862W        W78779  29.832  12.618  19.297 -0.0195  0.0842  0.1563
35863W        W78780  29.942  14.335  21.157 -0.1798  0.1526 -0.0110
35864W        W78781  28.844  12.830  22.676 -0.1711  0.0674  0.0813
35865W        W78782  28.036  12.527  23.525 -0.1168  0.4332  0.3388
35866W        W78783  30.671  10.337  20.892 -0.1504 -0.0673  0.0945
35867W        W78784  32.740  12.543  21.001 -0.0519 -0.2930  0.2856
35868W        W78785  30.770   9.657  23.511  0.0215 -0.1220 -0.0202
35869W        W78786  32.429  11.127  22.314 -0.0594  0.0394 -0.0510
35870W        W78787  33.354  13.243  21.800  0.1619  0.0623  0.0135
35871W        W78788  30.784   9.771  21.946 -0.0651 -0.0652  0.1234
35872W        W78789  29.258   9.813  24.250 -0.4097  0.4866  0.2208
35873W        W78790  32.824  12.017  23.139 -0.0835 -0.0034 -0.0721
35874W        W78791  29.053   9.658  20.168 -0.0308  0.2038  0.0126
35875W        W78792  31.093  14.045  23.496 -0.0414 -0.0998  0.0582
35876W        W78793  31.160  13.303  23.906 -0.1033  0.2422  0.1338
35877W        W78794  30.267   9.751  20.253 -0.1334 -0.1963 -0.1128
35878W        W78795  30.596  10.442  21.416 -0.0350  0.2305  0.2106
35879W        W78796  31.077  12.897  22.561  0.1647  0.0146 -0.0125
35880W        W78797  32.108  12.234  23.062 -0.0489  0.0838  0.3884
35881W        W78798  31.802  14.108  22.093  0.2137 -0.0008 -0.3021
35882W        W78799  32.179  12.376  22.475  0.0647 -0.0366 -0.0231
35883W        W78800  30.119  13.111  22.976 -0.3185 -0.2219  0.1236
35884W        W78801  32.774  10.682  21.062 -0.0300 -0.1677  0.1078
35885W        W78802  30.806  11.681  19.607 -0.2152  0.0353 -0.1245
35886W        W78803  30.142  12.657  22.797  0.0776  0.1246 -0.0171
35887W        W78804  27.731  10.716  22.702  0.0127  0.3297  0.0677
35888W        W78805  31.313  10.339  23.648 -0.0992  0.1299 -0.0130
35889W        W78806  32.437  10.674  21.908  0.0883  0.3191 -0.2440
35890W        W78807  34.083  10.809  23.316  0.0250  0.1343  0.1367
35891W        W78808  31.557  10.369  24.256 -0.1512  0.0104  0.2510
35892W        W78809  30.522  12.115  23.869  0.2648 -0.3231 -0.0153
35893W        W78810  31.367   9.392  23.883 -0.0328 -0.1759 -0.0571
35894W        W78811  32.371  12.667  23.247  0.0999 -0.0579 -0.0665
35895W        W78812  32.280  11.385  21.926  0.1634 -0.4685  0.0467
35896W        W78813  31.888  10.457  22.483  0.0742 -0.0624  0.0032
35897W        W78814  32.779  10.078  23.573 -0.1347  0.0887 -0.1528
35898W        W78815  30.759  12.904  19.659  0.4506 -0.2410  0.0330
35899W        W78816  27.761  13.336  23.437  0.1498  0.1513 -0.1552
35900W        W78817  30.300  13.625  23.769 -0.1533 -0.0973 -0.0587
35901W        W78818  33.320   9.035  19.011  0.0716  0.0518 -0.0522
35902W        W78819  31.276  10.500  25.722  0.0329 -0.0156  0.0569
35903W        W78820  30.674  15.206  20.876  0.0158 -0.0446 -0.2791
35904W        W78821  30.628  12.554  22.772 -0.1118  0.0601  0.1024
35905W        W78822  33.009  11.190  24.151 -0.0633  0.0336  0.2167
35906W        W78823  29.921  12.471  19.776 -0.0366  0.1508 -0.1240
35907W        W78824  31.324  12.786  23.487  0.0336  0.0174  0.1042
35908W        W78825  29.868  12.020  19.918  0.1140  0.2901 -0.0747
35909W        W78826  31.039  12.542  21.050  0.1376  0.0217  0.0083
35910W        W78827  31.608  14.602  22.856  0.1452 -0.0735 -0.3809
35911W        W78828  32.381  11.801  23.215  0.0478  0.3975 -0.1932
35912W        W78829  32.549   9.636  21.459 -0.3140 -0.0166 -0.1759
35913W        W78830  31.739  13.310  24.437 -0.0709  0.2253 -0.3514
35914W        W78831  29.626  11.797  19.103  0.1321 -0.0002  0.0384
35915W        W78832  30.005  12.683  23.312  0.0199 -0.0117 -0.0889
35916W        W78833  30.842  11.921  23.451  0.4152  0.3343 -0.0916
35917W        W78834  30.888  13.725  23.150 -0.0413 -0.0839  0.0275
35918W        W78835  29.618  13.295  23.280 -0.1033 -0.0308  0.0051
35919W        W78836  29.952   9.613  23.695 -0.0665  0.0544  0.0336
35920W        W78837  33.070  12.534  22.330  0.2227 -0.2498  0.0645
35921W        W78838  30.690  10.649  24.544  0.1006  0.3314 -0.0486
35922W        W78839  31.749  11.989  22.505  0.3967 -0.0639 -0.3236
35923W        W78840  31.273  12.363  24.242  0.0539 -0.2780 -0.5266
35924W        W78841  29.635  12.689  22.973 -0.2145 -0.1613 -0.2088
35925W        W78842  32.721  12.677  23.834 -0.2094  0.3006  0.0357
35926W        W78843   0.056  14.661  20.155  0.2166 -0.1318 -0.0822
35927W        W78844  29.610  14.208  24.793 -0.0480 -0.2434 -0.1780
35928W        W78845  28.541  12.786  23.299  0.1115  0.0690 -0.2719
35929W        W78846  30.726  13.897  24.043 -0.0845  0.1359 -0.3408
35930W        W78847  30.742  12.756  21.657  0.2459 -0.0167  0.3495
35931W        W78848  31.647  10.779  20.570 -0.2298 -0.1147 -0.1674
35932W        W78849  29.300  13.318  20.639  0.1705  0.0568  0.1443
35933W        W78850  28.620  13.189  23.580  0.2682  0.0319  0.0699
35934W        W78851  29.797  14.645  24.921 -0.1120 -0.1408 -0.3309
35935W        W78852  29.331  12.685  22.583 -0.1983 -0.0637  0.2842
35936W        W78853  32.743  12.720  21.865 -0.1309  0.1461 -0.3448
35937W        W78854  32.156  13.783  21.901 -0.2704  0.2656 -0.2071
35938W        W78855   0.966  15.050  21.954 -0.1334  0.1336  0.0194
35939W        W78856  31.969  11.751  19.125  0.1290  0.0577  0.0491
35940W        W78857  29.900  12.356  22.440  0.1272 -0.2748 -0.2344
35941W        W78858  28.768  14.129  20.602  0.1603 -0.1821  0.1743
35942W        W78859  31.722  15.224  20.824  0.0179  0.1672 -0.0281
35943W        W78860  28.108  14.720  24.812 -0.2212  0.2017  0.1908
35944W        W78861  33.576  15.136  22.377  0.2482  0.0628  0.1846
35945W        W78862  33.265  10.383  21.451 -0.2757  0.0731  0.1174
35946W        W78863  32.378  11.477  21.023 -0.0867  0.1415 -0.1556
35947W        W78864  32.016  12.123  21.183  0.0923  0.1150 -0.0879
35948W        W78865  32.159  16.386  25.065 -0.2104 -0.0249 -0.0744
35949W        W78866  29.819  10.611  23.384 -0.3017  0.0476 -0.0387
35950W        W78867  29.059  12.560  18.693 -0.0411 -0.0655  0.0809
35951W        W78868  31.501  16.018  23.793 -0.0656 -0.0414  0.0380
35952W        W78869  31.549  10.327  22.824 -0.0908  0.0304  0.3069
35953W        W78870  31.585  12.811  21.907  0.0239  0.0293  0.1485
35954W        W78871  31.143  13.010  20.797 -0.3918 -0.3162 -0.2282
35955W        W78872  28.472  11.092  19.719  0.1661 -0.2161 -0.2154
35956W        W78873  30.323  11.960  21.692 -0.1094  0.1251 -0.2670
35957W        W78874  31.699  10.512  24.806  0.1106  0.0241  0.0700
35958W        W78875  33.471  11.852  21.155  0.3379 -0.0884 -0.3151
35959W        W78876  31.979  10.808  21.622  0.1493 -0.0370  0.2523
35960W        W78877  28.964  15.398  23.821 -0.1234  0.0398 -0.2017
35961W        W78878  30.110  13.442  21.813 -0.1671 -0.0299  0.2443
35962W        W78879  31.414  13.644  23.576 -0.1733 -0.0713 -0.1760
35963W        W78880  28.890  10.278  21.254  0.0282  0.2394  0.0598
35964W        W78881  32.026  12.541  20.927  0.2750 -0.0611  0.0458
35965W        W78882  29.154  12.208  23.357  0.3377 -0.1253 -0.1456
35966W        W78883  33.346  10.222  22.497 -0.0311  0.2450  0.0693
35967W        W78884  30.272  11.430  21.770  0.4013 -0.4451 -0.2644
35968W        W78885  31.927  10.296  21.460  0.1459  0.0306 -0.1730
35969W        W78886  30.758  12.037  22.879 -0.2157  0.0770 -0.3214
35970W        W78887  28.455  11.452  22.653 -0.2934 -0.0439 -0.4418
35971W        W78888  31.774  11.505  22.252 -0.0265  0.0661 -0.0721
35972W        W78889  33.493  14.250  23.306 -0.0034 -0.3126  0.0966
35973W        W78890  31.247   9.690  19.676 -0.1552  0.3032 -0.1148
35974W        W78891  32.061  11.921  21.894  0.4418 -0.0874  0.1695
35975W        W78892  29.749  11.141  22.118  0.1906 -0.2342 -0.1135
35976W        W78893  31.971  11.961  20.236 -0.0205  0.1382 -0.3828
35977W        W78894  28.606  11.503  22.109  0.0675 -0.0221  0.1131
35978W        W78895  31.670  14.094  23.566  0.0392  0.0213 -0.0602
35979W        W78896  31.632  14.978  21.910  0.2372  0.0661 -0.1530
35980W        W78897  30.352  11.231  21.006  0.0331 -0.0889  0.0251
35981W        W78898  32.987  13.866  21.030 -0.0430 -0.0716 -0.1194
35982W        W78899  32.743  10.793  23.980 -0.2390  0.0571 -0.3043
35983W        W78900  31.974  13.435  20.545  0.0556  0.2011  0.2731
35984W        W78901  31.869  12.384  23.915 -0.0087  0.1939 -0.3711
35985W        W78902  31.059  14.601  22.072 -0.0997  0.0809  0.0958
35986W        W78903  28.012  13.073  22.337 -0.0713 -0.1240  0.0831
35987W        W78904  31.207  16.606  23.805  0.2012  0.0199 -0.0489
35988W        W78905  32.675  13.140  21.567 -0.1467 -0.1078 -0.3239
35989W        W78906  30.345   8.953  22.093 -0.2952 -0.2660 -0.2132
35990W        W78907  30.394  12.038  22.153  0.0341  0.0077  0.1942
35991W        W78908  28.411  11.526  23.646  0.0670  0.2453  0.1297
35992W        W78909  31.001  11.457  23.647  0.0672  0.3834 -0.1720
35993W        W78910  31.024  13.988  24.414  0.1525  0.1496  0.0479
35994W        W78911  29.280  11.599  18.772  0.2173 -0.1001  0.3124
35995W        W78912  29.988   9.179  23.847 -0.1573  0.2304 -0.2735
35996W        W78913  32.950  15.817  22.459  0.0836 -0.0689  0.2312
35997W        W78914  32.941  13.818  22.638  0.2425  0.0417 -0.0186
35998W        W78915  29.390  13.113  20.067  0.1200 -0.0094  0.0494
35999W        W78916  30.884  14.909  22.433  0.3163  0.1451 -0.0669
36000W        W78917  31.698  12.395  22.148 -0.1077 -0.0387 -0.0912
36001W        W78918  31.784  13.253  22.938  0.1477 -0.4062 -0.1369
36002W        W78919  32.233  13.312  21.509  0.0113  0.0248 -0.1527
36003W        W78920  28.984   9.874  21.640  0.1497  0.0439  0.0136
36004W        W78921  34.030  13.902  21.767 -0.0127  0.0716  0.0869
36005W        W78922  28.058  12.021  23.445  0.2049  0.1470 -0.0217
36006W        W78923  33.618   9.322  21.662 -0.1475  0.0336  0.0758
36007W        W78924  32.045  11.220  22.644 -0.2364  0.1439 -0.1932
36008W        W78925  29.965  13.881  22.385  0.1118  0.3463  0.2422
36009W        W78926  26.203  11.116  21.870 -0.0685  0.0960 -0.1862
36010W        W78927  30.038  13.306  20.188  0.1268  0.1005  0.0718
36011W        W78928  29.819  11.851  22.620  0.2185 -0.0900 -0.0086
36012W        W78929  32.738  12.397  23.464  0.2808 -0.2380  0.0077
36013W        W78930  30.175  11.455  25.081  0.3050 -0.2667  0.0708
36014W        W78931  28.489  12.269  21.115  0.0007 -0.2443 -0.1051
36015W        W78932  30.716  11.652  21.062  0.0918  0.3816 -0.1711
36016W        W78933  32.418  12.599  21.394  0.2048 -0.1215  0.2399
36017W        W78934  27.996  11.300  22.441  0.0262  0.0679 -0.2312
36018W        W78935  30.415   9.388  21.815 -0.0641  0.0541  0.0545
36019W        W78936  33.959  14.584  21.189 -0.0032  0.0152 -0.0842
36020W        W78937  31.836  12.082  23.416 -0.3065 -0.0923 -0.3143
36021W        W78938  30.792  11.415  24.136 -0.0045 -0.2139 -0.3188
36022W        W78939  33.166  14.749  22.388 -0.1326 -0.1505 -0.1503
36023W        W78940  26.238  14.464  22.673  0.0516 -0.0644  0.1868
36024W        W78941  28.338  13.200  23.996  0.2128 -0.0153  0.0539
36025W        W78942  29.137  10.690  23.698  0.0351  0.1748  0.0841
36026W        W78943  28.567  10.766  21.398 -0.2207 -0.2277  0.1631
36027W        W78944  29.908  12.153  23.061  0.1580  0.1156 -0.1429
36028W        W78945  28.548  12.244  23.334 -0.1615 -0.0370  0.2472
36029W        W78946  32.650  13.072  23.482  0.1437  0.3641 -0.2712
36030W        W78947  30.205  15.420  22.697 -0.3358 -0.4999 -0.0949
36031W        W78948  31.128  12.403  23.190  0.1837  0.1518  0.2296
36032W        W78949  28.950   7.812  24.365 -0.2997 -0.4436 -0.0183
36033W        W78950  31.283  11.965  22.477 -0.1381 -0.2177  0.3608
36034W        W78951  32.029  14.903  21.534 -0.1603  0.0701  0.3944
36035W        W78952  33.079  14.627  21.808  0.0080  0.0879 -0.0640
36036W        W78953  33.197   9.003  23.216 -0.1145 -0.1293  0.0714
36037W        W78954  33.329  12.584  22.748  0.3114 -0.0706 -0.3139
36038W        W78955  30.382  11.917  24.278  0.1238  0.2355 -0.2346
36039W        W78956  29.893  13.491  22.732  0.1118  0.2466  0.1755
36040W        W78957  32.629  13.804  22.279  0.0706  0.0699  0.2391
36041W        W78958  30.296  10.447  21.748  0.0544  0.0652 -0.2530
36042W        W78959  31.084   9.553  18.715  0.0384  0.0564 -0.0731
36043W        W78960  30.821  14.428  22.641  0.0731 -0.0689 -0.1357
36044W        W78961  28.984  10.611  23.170 -0.0399  0.0394  0.1247
36045W        W78962  32.022  12.946  20.603 -0.0449  0.1807 -0.0835
36046W        W78963  30.552  13.449  23.349  0.0979 -0.0015  0.2639
36047W        W78964  32.363  12.294  25.085 -0.0438  0.4860  0.1235
36048W        W78965  32.981  14.154  23.439 -0.2780 -0.2939  0.4658
36049W        W78966  33.160  13.514  22.212  0.2187  0.0294 -0.2565
36050W        W78967  32.675  13.437  19.642  0.0029  0.0222  0.1353
36051W        W78968  32.292  14.396  22.999 -0.0233 -0.0649  0.0779
36052W        W78969  33.239  15.622  25.072 -0.2139 -0.2339 -0.3380
36053W        W78970  31.754  13.354  21.443  0.0334 -0.0060 -0.0243
36054W        W78971  32.590  14.160  21.082 -0.2706  0.0374 -0.0383
36055W        W78972  30.083   9.265  24.409 -0.0813  0.0101 -0.1310
36056W        W78973  30.283  12.164  22.753 -0.0832 -0.4554  0.2738
36057W        W78974  31.505  12.351  19.970  0.0233 -0.1228 -0.0925
36058W        W78975  29.037  13.003  23.412 -0.0438  0.1274  0.1436
36059W        W78976  31.232  10.691  22.543  0.1004  0.0453  0.1276
36060W        W78977  31.274  11.542  22.161 -0.0015 -0.0222 -0.3913
36061W        W78978  30.283  14.887  22.094  0.1656  0.0774 -0.1202
36062W        W78979  29.733  13.197  25.077  0.1531  0.0148 -0.0170
36063W        W78980  29.805  11.789  27.589 -0.0527 -0.0849 -0.0509
36064W        W78981  28.789  11.989  24.161  0.2014  0.1011 -0.2642
36065W        W78982  31.635  13.194  23.464 -0.2941  0.2285  0.1226
36066W        W78983  33.128  13.076  23.438 -0.0037 -0.0703  0.0187
36067W        W78984  31.921  11.202  25.934 -0.0021 -0.3920 -0.2307
36068W        W78985  31.230  15.537  23.764 -0.1100 -0.1588 -0.1556
36069W        W78986  30.139   9.270  26.518 -0.1191  0.2331  0.0424
36070W        W78987  31.863  13.104  26.883 -0.1045 -0.2839  0.0040
36071W        W78988  31.151  14.686  24.022 -0.1478  0.0724 -0.2515
36072W        W78989  28.848  12.501  24.111 -0.1565  0.2389  0.0082
36073W        W78990  31.369  11.058  27.421  0.2588 -0.0087 -0.0703
36074W        W78991  31.317  13.008  25.308 -0.2137 -0.3659  0.1354
36075W        W78992  30.630  10.169  26.344 -0.2577 -0.3539 -0.1177
36076W        W78993  28.537  11.872  28.097  0.0503 -0.4109  0.0773
36077W        W78994  32.834  12.771  26.033 -0.0404 -0.0635 -0.3693
36078W        W78995  29.832  13.983  23.690 -0.1900  0.0565 -0.1944
36079W        W78996  29.485  12.040  26.449 -0.0797 -0.2234 -0.0862
36080W        W78997  30.590  11.612  25.537 -0.1440 -0.1761  0.2751
36081W        W78998  30.631  14.145  25.950  0.0554 -0.1762 -0.1598
36082W        W78999  31.427  11.576  27.196 -0.1215 -0.0014  0.0932
36083W        W79000  30.301  12.237  27.437  0.0715 -0.0120 -0.0174
36084W        W79001  31.112  14.423  24.695 -0.1431 -0.2850  0.2233
36085W        W79002  31.181  11.719  24.939  0.0121 -0.0354  0.6783
36086W        W79003  28.122  13.425  27.679 -0.1685 -0.4265  0.0892
36087W        W79004  29.778  11.246  26.784  0.0284 -0.0879 -0.1569
36088W        W79005  32.527  10.643  25.599 -0.1329  0.1985 -0.3790
36089W        W79006  31.896  13.992  24.122  0.0599  0.1840  0.0477
36090W        W79007  31.365  14.928  23.189  0.3546  0.0235 -0.0012
36091W        W79008  31.571  14.717  25.314 -0.0286  0.1410  0.0324
36092W        W79009  32.447  13.900  29.209 -0.2600 -0.2940  0.1643
36093W        W79010  29.858  13.296  24.497  0.1809 -0.2107  0.0169
36094W        W79011  28.573  13.407  25.510 -0.2004 -0.1514 -0.5001
36095W        W79012  29.269  11.298  26.812  0.2240  0.1240  0.3000
36096W        W79013  33.336  14.349  23.818 -0.1505  0.0875 -0.3227
36097W        W79014  30.879  13.242  29.332 -0.1749  0.2066 -0.1525
36098W        W79015  31.634  13.764  25.828  0.2469 -0.4991  0.3634
36099W        W79016  29.394  12.656  24.028 -0.1647 -0.1358 -0.1769
36100W        W79017  32.256  14.533  25.082  0.1667 -0.0749  0.1106
36101W        W79018  30.586  13.444  24.889  0.3114  0.3064  0.1004
36102W        W79019  30.455  10.888  28.250  0.2869  0.1066 -0.0716
36103W        W79020  31.066  13.106  24.824 -0.0989 -0.3002 -0.3996
36104W        W79021  32.210  13.245  22.699 -0.1255 -0.3715  0.3338
36105W        W79022  30.897  12.492  26.471 -0.2201  0.2944 -0.0852
36106W        W79023  31.849  10.320  28.664 -0.0538  0.3085 -0.2981
36107W        W79024  29.526  13.276  27.817  0.2000  0.0460  0.0831
36108W        W79025  32.036  14.254  28.436  0.0107  0.1084  0.0938
36109W        W79026  31.314  15.421  22.784 -0.2137 -0.2853  0.1893
36110W        W79027  30.159  13.193  24.874  0.1269  0.4726 -0.1577
36111W        W79028  30.538  11.672  26.799 -0.1029 -0.1482 -0.3010
36112W        W79029  31.935  14.425  24.434 -0.1472  0.0884  0.1916
36113W        W79030  32.178  12.129  27.138  0.0168  0.2277  0.3994
36114W        W79031  30.571  15.200  24.838  0.0787  0.4559  0.1072
36115W        W79032  29.969  10.981  27.898 -0.0676  0.2237  0.1965
36116W        W79033  33.513  14.486  25.573 -0.0750  0.3310 -0.2737
36117W        W79034  32.126  11.840  24.829  0.3851  0.1276  0.1242
36118W        W79035  30.435  11.579  30.269  0.0551 -0.0057  0.0136
36119W        W79036  31.249  11.591  26.301  0.1967 -0.0900 -0.2654
36120W        W79037  30.819  11.090  27.705  0.2205 -0.2890  0.0906
36121W        W79038  33.180  15.179  22.065 -0.2453  0.0289 -0.0403
36122W        W79039  32.113  14.704  22.020  0.0290  0.0148  0.1621
36123W        W79040  32.369  13.470  23.147 -0.2111  0.0681 -0.0293
36124W        W79041  28.947  12.365  25.582 -0.0787 -0.1260 -0.0668
36125W        W79042  29.214  14.566  25.659  0.2249  0.0420  0.1490
36126W        W79043  29.582  11.657  28.479  0.0649  0.3473  0.2933
36127W        W79044  29.862  11.607  23.046 -0.2764  0.0123 -0.1039
36128W        W79045  31.011  13.634  27.659  0.2899  0.1004  0.0854
36129W        W79046  25.416  13.412  30.220  0.3687 -0.0626 -0.0058
36130W        W79047  33.366  11.373  26.087 -0.3276 -0.0472 -0.0006
36131W        W79048  29.007  12.806  27.178 -0.0657 -0.0866 -0.0780
36132W        W79049  30.776  12.446  27.341  0.3457 -0.0955 -0.2030
36133W        W79050  32.688  13.577  24.367 -0.2494  0.0973  0.3519
36134W        W79051  30.986  12.022  26.306 -0.3309 -0.1304  0.0402
36135W        W79052  29.984  11.696  28.756  0.1381 -0.1326  0.0205
36136W        W79053  28.366  12.209  23.947  0.2445  0.2590  0.0796
36137W        W79054  30.116  12.229  23.694  0.2014  0.0437 -0.2780
36138W        W79055  32.499  13.093  25.275 -0.0110 -0.3400  0.0111
36139W        W79056  31.832  12.216  24.369 -0.1051 -0.0695  0.1278
36140W        W79057  29.161  13.896  25.709 -0.0047  0.0859  0.2179
36141W        W79058  30.545  12.316  28.686  0.1449 -0.0801  0.1516
36142W        W79059  30.609  13.005  26.542 -0.0896 -0.1531  0.0956
36143W        W79060  31.082  15.225  25.099 -0.4048 -0.0897 -0.2321
36144W        W79061  29.273  12.008  25.388 -0.0430  0.3882 -0.3327
36145W        W79062  28.987  11.900  24.605 -0.2013 -0.1457  0.0092
36146W        W79063  29.349  11.272  25.001 -0.1407  0.1807 -0.1059
36147W        W79064  32.422  13.889  27.249 -0.0830 -0.0321  0.0483
36148W        W79065  31.655  11.987  27.354 -0.3366  0.2331 -0.0486
36149W        W79066  30.992  10.115  28.713  0.2095  0.0776 -0.1141
36150W        W79067  33.869  11.260  26.047  0.0470  0.0996  0.0632
36151W        W79068  30.377  13.370  24.440  0.1206 -0.0236  0.1262
36152W        W79069  32.201  13.621  24.802 -0.1319  0.0325  0.1867
36153W        W79070  32.108  13.055  24.700  0.2540  0.0306  0.2604
36154W        W79071  32.278  12.554  21.959  0.1405  0.0097 -0.1020
36155W        W79072  29.322  11.176  28.225  0.1673 -0.0371 -0.0901
36156W        W79073  29.972  12.164  26.612  0.1187  0.0181 -0.1052
36157W        W79074  29.714  11.006  25.953 -0.1960 -0.1159  0.0538
36158W        W79075  29.854  10.938  24.721  0.3787 -0.0565 -0.2213
36159W        W79076  32.573  11.385  27.091 -0.0067 -0.1034 -0.0508
36160W        W79077  29.671  10.040  24.432  0.1544  0.2807 -0.0501
36161W        W79078  32.148  10.685  25.919  0.1550 -0.0972  0.3021
36162W        W79079  29.049  12.915  27.643  0.2001 -0.0207  0.1063
36163W        W79080  28.556  15.039  26.140  0.2937  0.2569 -0.1830
36164W        W79081  32.150  12.055  26.154 -0.1308 -0.0494  0.2005
36165W        W79082  32.212  15.048  25.031 -0.0436  0.0790  0.0910
36166W        W79083  32.312  14.270  26.197 -0.0623 -0.0110 -0.4812
36167W        W79084  33.519  14.172  24.666 -0.1164 -0.0413 -0.0939
36168W        W79085  29.672  11.462  27.992  0.0787 -0.4830 -0.1039
36169W        W79086  28.635  10.014  23.955 -0.1886  0.0605 -0.0997
36170W        W79087  31.478  14.847  25.743  0.0228  0.3371 -0.1381
36171W        W79088  29.656  14.609  26.056 -0.2014 -0.3997 -0.0912
36172W        W79089  31.326  11.128  25.749 -0.0848 -0.0352  0.2302
36173W        W79090  32.514  15.879  26.653 -0.0983 -0.0701 -0.0372
36174W        W79091  33.438  12.712  25.263  0.0451  0.0652  0.1242
36175W        W79092  28.331  11.435  27.327  0.0833 -0.2438  0.1893
36176W        W79093  31.736  11.817  26.351  0.1243 -0.0170 -0.2707
36177W        W79094  34.391  12.279  26.884 -0.0648 -0.1302 -0.0084
36178W        W79095  32.927  11.326  25.758  0.1540  0.0247 -0.0386
36179W        W79096  30.751  12.463  24.152  0.0462 -0.0026  0.1557
36180W        W79097  32.674  14.833  24.990  0.0774 -0.3649 -0.0431
36181W        W79098  30.126  15.631  25.935  0.1732  0.1624  0.0578
36182W        W79099  30.996  12.645  24.555  0.0995  0.2766 -0.1612
36183W        W79100  30.337  14.454  25.200  0.0401 -0.0822 -0.1216
36184W        W79101  33.125  12.518  25.711 -0.0589  0.1053 -0.1499
36185W        W79102  27.134  13.040  27.803 -0.1372 -0.4136  0.0157
36186W        W79103  30.652  10.108  28.039 -0.0603 -0.1197  0.1499
36187W        W79104  29.022  13.240  25.033  0.2127  0.0387 -0.1822
36188W        W79105  29.510  12.330  26.873 -0.2335 -0.2282 -0.3176
36189W        W79106  30.876  10.529  27.387 -0.2200 -0.1053  0.3647
36190W        W79107  33.809  12.416  25.311 -0.0016 -0.4660 -0.0634
36191W        W79108  31.618  12.314  26.998  0.1754  0.0310 -0.0738
36192W        W79109  33.619  12.530  24.834  0.0139  0.3608 -0.1312
36193W        W79110  30.801  10.794  25.033  0.0489  0.0621  0.2990
36194W        W79111  32.577  10.632  22.968 -0.0912  0.1074  0.2744
36195W        W79112  32.075  15.196  26.854  0.2770  0.0215 -0.3362
36196W        W79113  33.363  12.046  25.230 -0.2247 -0.1813 -0.1287
36197W        W79114  30.285  14.160  25.617 -0.0325 -0.0399  0.2296
36198W        W79115  32.456  13.925  24.001 -0.1638 -0.0064 -0.0239
36199W        W79116  33.870  13.614  24.050  0.0696  0.1345  0.0509
36200W        W79117  30.440  12.515  26.639  0.2117 -0.1044  0.0507
36201W        W79118  33.678  15.198  27.264  0.2094  0.1924 -0.0295
36202W        W79119  30.159  13.781  24.669 -0.0438  0.4107  0.0592
36203W        W79120  29.510  10.020  26.637  0.1685  0.0391 -0.0720
36204W        W79121  30.219  11.776  25.809 -0.2204 -0.0127  0.0858
36205W        W79122  30.393  12.258  25.649  0.3448  0.2109  0.3640
36206W        W79123  30.628  13.225  23.895 -0.2501  0.0468 -0.1633
36207W        W79124  32.752   9.952  25.658 -0.0886 -0.0571 -0.0914
36208W        W79125  30.702  10.717  26.232 -0.1401  0.0857  0.0460
36209W        W79126  29.523  10.554  25.821  0.0536 -0.1613  0.0374
36210W        W79127  32.094  11.629  27.341 -0.0280  0.0453  0.2414
36211W        W79128  31.694  11.494  24.943 -0.0094  0.1995 -0.0416
36212W        W79129  31.958  12.995  26.409 -0.2072  0.0416 -0.2566
36213W        W79130  30.794  10.711  25.712 -0.1589  0.1595 -0.0663
36214W        W79131  30.129  11.700  28.263 -0.3639 -0.1285 -0.0656
36215W        W79132  28.325  12.270  26.841  0.2438 -0.0400  0.2541
36216W        W79133  30.053  13.698  24.184 -0.1604  0.3409 -0.1370
36217W        W79134  31.211  13.030  28.259 -0.1830  0.1704  0.0423
36218W        W79135  29.954  13.132  24.025  0.0396  0.1725  0.1991
36219W        W79136  33.006   9.868  27.171 -0.0947 -0.0226  0.2369
36220W        W79137  31.876  12.250  26.586 -0.0583 -0.1429 -0.2319
36221W        W79138  30.290  13.696  25.876  0.1150  0.3612 -0.0073
36222W        W79139  30.974  14.924  24.460 -0.2581  0.2028 -0.3652
36223W        W79140  30.729   9.470  26.730  0.0073  0.1651 -0.1910
36224W        W79141  29.162  14.236  26.024  0.0152 -0.0099 -0.0238
36225W        W79142  30.696  14.470  23.332 -0.0822 -0.1822 -0.3863
36226W        W79143  32.819  13.240  26.590 -0.0015  0.1879  0.3610
36227W        W79144  30.087  15.922  24.456  0.0804  0.0119  0.1048
36228W        W79145  32.761  10.554  26.743 -0.2428 -0.1854  0.1127
36229W        W79146  29.507  14.974  25.690 -0.2477  0.1989  0.1027
36230W        W79147  30.901  12.078  24.411  0.3596 -0.0891  0.1767
36231W        W79148  28.945  12.600  23.113  0.3686  0.0290  0.0084
36232W        W79149  30.664  11.145  25.416 -0.3268  0.0720  0.3993
36233W        W79150  33.479  12.605  26.180 -0.2655 -0.2982  0.0055
36234W        W79151  28.771  12.460  26.086 -0.1284 -0.1663 -0.0617
36235W        W79152  31.070  10.927  28.199 -0.3505 -0.0311 -0.2152
36236W        W79153  28.943  14.253  27.418 -0.3883 -0.2434  0.1190
36237W        W79154  32.151  11.565  26.277  0.2380  0.1487 -0.0273
36238W        W79155  31.477   9.964  23.936  0.0985  0.0823  0.3633
36239W        W79156  32.632  14.183  26.893  0.1098 -0.1964  0.0446
36240W        W79157  31.205  12.512  26.965  0.0265 -0.0668  0.3260
36241W        W79158  29.026  11.361  24.618 -0.0230  0.1082 -0.0126
36242W        W79159  33.868  14.659  28.202  0.1437  0.3110 -0.2859
36243W        W79160  31.255  12.903  25.781 -0.1781  0.0653  0.0094
36244W        W79161  28.468  12.547  24.870  0.1380  0.2805 -0.1402
36245W        W79162  33.824  13.664  25.336 -0.0129  0.1574 -0.3586
36246W        W79163  31.617  14.366  24.002 -0.0375 -0.0304 -0.0204
36247W        W79164  29.886  14.153  25.280 -0.1070 -0.0916 -0.0874
36248W        W79165  28.760  12.547  28.531 -0.0552 -0.1665  0.0742
36249W        W79166  31.860  12.307  25.244 -0.2174  0.0087 -0.0505
36250W        W79167  31.435  11.259  26.862 -0.1759 -0.2250  0.1911
36251W        W79168  33.077  15.200  23.209  0.1130  0.0920 -0.2357
36252W        W79169  31.659  11.954  24.890 -0.1861  0.0326  0.0530
36253W        W79170  33.097  13.657  23.479 -0.0272 -0.1388 -0.3353
36254W        W79171  31.995  14.084  25.703  0.0295 -0.2598 -0.0760
36255W        W79172  30.210  12.931  26.884  0.3947  0.2928  0.0012
36256W        W79173  32.927  10.439  25.434  0.0343 -0.1252 -0.1665
36257W        W79174  33.707  14.212  25.121  0.0088 -0.1334  0.0761
36258W        W79175  32.150  11.739  28.358 -0.2512  0.0557 -0.0341
36259W        W79176  30.212  13.457  25.314 -0.0867 -0.0033 -0.0045
36260W        W79177  28.933  12.455  24.640 -0.0965  0.1610 -0.0408
36261W        W79178  30.488  12.556  26.154  0.1460 -0.1954  0.2286
36262W        W79179  30.812   9.327  27.269 -0.4249 -0.2291 -0.0510
36263W        W79180  29.186  14.469  27.022 -0.1923 -0.2142 -0.1322
36264W        W79181  30.740  14.179  24.881 -0.0998 -0.0531  0.0386
36265W        W79182  29.147  13.483  28.421  0.1234  0.4851 -0.0276
36266W        W79183  32.621  10.577  24.978 -0.3991  0.0476 -0.0347
36267W        W79184  30.717  12.979  24.273  0.2040 -0.0373  0.0686
36268W        W79185  31.146  11.410  25.307  0.3343  0.0148  0.2345
36269W        W79186  32.428  10.394  26.316  0.3728  0.0686 -0.5268
36270W        W79187  32.055  12.482  24.726 -0.0921  0.1092  0.2402
36271W        W79188  30.247  10.498  26.492 -0.1560 -0.3543  0.0889
36272W        W79189  28.655  11.358  26.511 -0.0638  0.4453 -0.1665
36273W        W79190  32.636  11.346  23.344  0.1645  0.1191  0.0557
36274W        W79191  28.975  11.966  25.887  0.1831  0.3299 -0.1000
36275W        W79192  30.076  13.063  27.341 -0.0332 -0.0969  0.0737
36276W        W79193  29.248  10.121  29.750  0.2647  0.0739 -0.1971
36277W        W79194  32.483  11.826  25.243 -0.1552  0.2418  0.0339
36278W        W79195  29.414  11.756  23.757 -0.0204 -0.0378 -0.4886
36279W        W79196  32.346  12.784  26.116  0.1414 -0.0743  0.0653
36280W        W79197  32.564  12.358  26.348 -0.1058  0.0221  0.0958
36281W        W79198  30.567  12.460  24.652 -0.0880 -0.0653 -0.1411
36282W        W79199  31.577  12.758  27.239 -0.0039  0.1073 -0.0656
36283W        W79200  30.693  11.026  27.182 -0.0737  0.4261  0.0976
36284W        W79201  31.035  12.494  25.970  0.0783  0.1202 -0.3434
36285W        W79202  29.723  12.345  24.133 -0.0159  0.0818  0.1825
36286W        W79203  30.478  12.035  26.298  0.0453 -0.0992 -0.1732
36287W        W79204  30.225  10.891  25.958  0.0169  0.3098 -0.3919
36288W        W79205  32.029  13.256  25.156 -0.0076  0.0581  0.0850
36289W        W79206  31.504  12.236  27.843 -0.1948  0.2939  0.1065
36290W        W79207  30.762   9.365  28.314  0.0719 -0.0696  0.2975
36291W        W79208  32.904  11.244  27.557  0.0359  0.2111 -0.1824
36292W        W79209  31.288  12.373  27.438 -0.2325 -0.1837  0.3173
36293W        W79210  28.499  11.851  26.373  0.0440  0.0433 -0.2813
36294W        W79211  33.796  14.041  26.409  0.1489  0.2104  0.4536
36295W        W79212  31.607  11.046  24.726 -0.0771  0.3239  0.1320
36296W        W79213  32.852  10.185  29.604 -0.2337 -0.3425 -0.2433
36297W        W79214  33.436  11.575  25.430  0.2200 -0.0534  0.0482
36298W        W79215  30.076  11.819  24.756 -0.3325 -0.2282 -0.1480
36299W        W79216  30.735  13.676  25.320  0.0022 -0.0384 -0.3578
36300W        W79217  33.121  13.392  26.970 -0.1286 -0.0019 -0.0169
36301W        W79218  30.577  12.521  25.233 -0.0909 -0.0599  0.1521
36302W        W79219  33.171  10.712  27.449  0.1567  0.0331 -0.0194
36303W        W79220  31.109  13.893  25.139  0.0179  0.4392  0.3133
36304W        W79221  32.177  13.014  25.687  0.1410  0.5324 -0.0524
36305W        W79222  31.475  12.383  25.550  0.0279 -0.0887  0.2342
36306W        W79223  26.929  10.484  24.146  0.1533  0.0728  0.0352
36307W        W79224  30.909  13.354  25.691  0.3346 -0.1301  0.2233
36308W        W79225  30.639  11.222  23.385  0.2453 -0.1265 -0.2891
36309W        W79226  31.359  12.059  26.616 -0.0289  0.0029  0.3050
36310W        W79227  33.179  13.320  24.617  0.0603 -0.1534  0.2541
36311W        W79228  31.773  14.259  27.329  0.0369 -0.0682  0.2498
36312W        W79229  30.566   9.272  24.449  0.3660  0.1316 -0.0922
36313W        W79230  31.738  13.882  27.980  0.0053 -0.1187 -0.1111
36314W        W79231  28.644  14.728  25.559  0.1309 -0.0472 -0.1011
36315W        W79232  30.986  11.392  27.310 -0.1051 -0.3993  0.2991
36316W        W79233  29.194  14.386  24.828 -0.0698  0.1385  0.0287
36317W        W79234  28.752  12.081  27.239  0.1081  0.1238  0.2532
36318W        W79235  31.781  15.317  25.821  0.2156  0.2685 -0.0249
36319W        W79236  31.042  10.124  27.108  0.0354 -0.0615  0.3188
36320W        W79237  32.067  12.868  27.321  0.0578  0.0361 -0.1396
36321W        W79238  33.495   9.644  26.874 -0.1449  0.1920 -0.1534
36322W        W79239  32.442  12.612  25.515  0.2818 -0.1224  0.2579
36323W        W79240  32.251  10.551  26.790 -0.0706 -0.3432 -0.1925
36324W        W79241  30.278  12.154  26.945  0.1238 -0.0601 -0.0729
36325W        W79242  31.360  13.380  25.915 -0.0203  0.0647  0.0996
36326W        W79243  33.184  14.165  24.305 -0.0169  0.7896  0.0771
36327W        W79244  32.820  13.243  25.697 -0.2911  0.0157 -0.1019
36328W        W79245  29.811  11.175  25.200  0.3330  0.0708 -0.1118
36329W        W79246  31.186  12.579  28.645  0.2320 -0.2072 -0.0386
36330W        W79247  34.178  11.861  25.044  0.1663  0.1247  0.0558
36331W        W79248  30.100  10.941  23.762  0.2898  0.3994 -0.0773
36332W        W79249  32.457  14.349  22.084  0.2808 -0.0517  0.0952
36333W        W79250  30.740  13.673  26.817  0.1134  0.0428  0.2657
36334W        W79251  28.737  13.341  27.826 -0.1065 -0.2178 -0.0805
36335W        W79252  29.417  13.446  24.781  0.1049  0.1968 -0.1083
36336W        W79253  31.327  14.810  24.876 -0.0809 -0.1224 -0.4216
36337W        W79254  31.991  13.221  23.869 -0.1834 -0.3049 -0.2330
36338W        W79255  30.473  13.866  26.337 -0.0105  0.1160  0.2610
36339W        W79256  31.661  12.208  22.972 -0.0994  0.0864  0.1865
36340W        W79257  29.130  12.768  25.701 -0.1117  0.0817 -0.0003
36341W        W79258  29.907  13.318  25.867 -0.0474  0.0095  0.1630
36342W        W79259  33.503  13.031  24.869 -0.1963 -0.2112 -0.0333
36343W        W79260  30.498  11.070  26.550 -0.0385 -0.1726  0.2025
36344W        W79261  31.184  13.895  28.029 -0.0006  0.2318 -0.0811
36345W        W79262  31.094  12.025  23.972  0.0232  0.0804 -0.1379
36346W        W79263  33.079  13.831  24.703 -0.0473  0.1408 -0.0052
36347W        W79264  32.930  12.769  25.364 -0.3263 -0.0242 -0.1040
36348W        W79265  32.017  16.015  27.989  0.2686  0.1167  0.0742
36349W        W79266  31.712  11.272  26.384  0.0118 -0.0736  0.0636
36350W        W79267  29.867  11.824  23.474 -0.0167 -0.3484  0.0402
36351W        W79268  31.769  12.304  28.647  0.1487 -0.0780 -0.0804
36352W        W79269  32.189   9.753  25.521  0.1173  0.2093  0.0468
36353W        W79270  29.829  13.779  25.653 -0.0582  0.2743 -0.0291
36354W        W79271  32.730  14.389  24.186  0.1554  0.1727 -0.1081
36355W        W79272  30.298   9.151  24.940 -0.0174 -0.1553 -0.0111
36356W        W79273  30.713  14.544  24.244  0.2569 -0.2073 -0.2266
36357W        W79274  31.919   9.148  27.311 -0.0916  0.0040 -0.2443
36358W        W79275  29.415  12.470  25.377  0.0416 -0.0011 -0.2053
36359W        W79276  31.544  11.568  25.873 -0.0588  0.1478 -0.0414
36360W        W79277  32.096  15.563  24.999 -0.0056  0.2142 -0.2627
36361W        W79278  30.789  15.591  25.040 -0.0609  0.1704 -0.3914
36362W        W79279  30.886  13.155  27.860 -0.1671 -0.0478 -0.1122
36363W        W79280  28.082  11.389  24.420 -0.2315 -0.2350 -0.1425
36364W        W79281  33.134  11.070  26.497  0.0732  0.0874  0.1104
36365W        W79282  29.424  11.050  26.350 -0.0558 -0.2627 -0.0094
36366W        W79283   0.457  10.726  26.479  0.2355  0.0335 -0.1234
36367W        W79284  31.453   9.425  27.001 -0.0941  0.1513 -0.1601
36368W        W79285  32.513   9.882  26.182  0.0248  0.1188 -0.0458
36369W        W79286  31.060  12.873  27.369  0.1526  0.1712  0.2028
36370W        W79287  29.870  11.851  26.200  0.1142 -0.0319  0.0313
36371W        W79288  31.539  12.671  24.536 -0.1858  0.2335 -0.4198
36372W        W79289  30.744  12.686  28.404  0.0282 -0.0121 -0.0481
36373W        W79290  32.269  11.623  23.666 -0.0837 -0.0714  0.0133
36374W        W79291  32.688  14.518  25.908 -0.1427 -0.3058 -0.1942
36375W        W79292  30.686  11.652  24.640  0.1225 -0.4350 -0.4277
36376W        W79293  29.182  11.226  23.658  0.3206 -0.1464 -0.1782
36377W        W79294  29.734  12.260  25.029  0.0389 -0.4582  0.1352
36378W        W79295  29.691   9.844  25.361  0.2894  0.1346 -0.0164
36379W        W79296  32.451  13.795  26.502 -0.0873 -0.3835  0.0808
36380W        W79297  31.271   9.476  24.901 -0.0744 -0.2771  0.1327
36381W        W79298  32.190  12.717  23.755 -0.1146 -0.0852 -0.1255
36382W        W79299  32.645  11.496  26.205 -0.2756  0.1071  0.0101
36383W        W79300  30.135  17.365  25.605 -0.3547 -0.0218  0.0887
36384W        W79301  31.055  12.669  25.084 -0.1493  0.1750  0.1155
36385W        W79302  31.167  13.882  25.798 -0.1898  0.0947 -0.1521
36386W        W79303  30.178  12.774  25.849  0.1727 -0.2924  0.1249
36387W        W79304  32.659  12.324  25.870  0.0823 -0.0554  0.1443
36388W        W79305  32.596  13.264  24.770  0.2634  0.0974  0.3117
36389W        W79306  30.907  10.323  24.850 -0.1214 -0.1395 -0.1579
36390W        W79307  30.220  12.267  25.009 -0.1982 -0.0773  0.0087
36391W        W79308  31.336  15.363  26.328 -0.0814  0.1055 -0.0207
36392W        W79309  32.576  12.431  26.922 -0.0054  0.0645 -0.1908
36393W        W79310  32.934  12.846  26.964  0.1879 -0.1638  0.0877
36394W        W79311  33.248  15.050  23.846  0.1294 -0.1390 -0.0432
36395W        W79312  30.864  10.311  25.338 -0.0593  0.3321  0.1524
36396W        W79313  32.474  12.903  27.073  0.0740  0.0669  0.1130
36397W        W79314  31.012  13.520  28.264  0.3682 -0.2436 -0.0119
36398W        W79315  29.408  13.497  25.564 -0.0385  0.0471  0.0995
36399W        W79316  30.295  11.205  26.969 -0.0193  0.3572  0.1552
36400W        W79317  30.265  12.964  25.299 -0.0925  0.1707 -0.3438
36401W        W79318  28.875  12.822  22.169  0.3234  0.4219 -0.0262
36402W        W79319  32.164  13.545  25.678  0.1433  0.2732 -0.3499
36403W        W79320  30.801  13.093  25.298  0.0112  0.1069  0.1643
36404W        W79321  31.507  14.101  24.914 -0.1716  0.1390  0.0483
36405W        W79322  30.029  12.347  26.141 -0.1697  0.2616 -0.1391
36406W        W79323  31.855  10.968  26.731 -0.1204  0.2424  0.0559
36407W        W79324  31.919  11.786  25.293 -0.1374 -0.2265 -0.0795
36408W        W79325  30.663  12.755  25.712 -0.0286  0.0023  0.2014
36409W        W79326  26.916  11.827  22.955  0.0967 -0.0693  0.0940
36410W        W79327  27.810  14.469  24.452 -0.0602 -0.1951  0.0433
36411W        W79328  29.080  13.752  26.233 -0.0695  0.0459 -0.3523
36412W        W79329  31.724   9.286  26.079 -0.0720  0.3212 -0.1352
36413W        W79330  28.807  11.837  27.667 -0.2286  0.3071 -0.2481
36414W        W79331  30.208  11.393  24.135 -0.1685 -0.1944 -0.4492
36415W        W79332  29.382  10.928  24.520 -0.0568 -0.0044  0.0110
36416W        W79333  31.535  14.751  24.401  0.0197 -0.1926  0.1700
36417W        W79334  30.002  10.726  26.898 -0.0798  0.0510 -0.0857
36418W        W79335  28.037   9.732  27.080 -0.1826  0.2388 -0.0374
36419W        W79336  34.048  13.832  24.519 -0.1534  0.1138 -0.1577
36420W        W79337  32.615  13.931  24.906 -0.0967  0.0296  0.5473
36421W        W79338  32.046  10.070  26.384  0.2404  0.1015 -0.3909
36422W        W79339  32.941  13.835  27.382 -0.0001 -0.2853  0.0800
36423W        W79340  28.059  13.025  24.419  0.0120  0.0027 -0.0081
36424W        W79341  30.013  12.587  27.221 -0.1392 -0.3019 -0.1554
36425W        W79342  31.789   8.615  27.380  0.0301 -0.2586  0.1215
36426W        W79343  27.342  12.158  23.986 -0.0686 -0.1930 -0.0453
36427W        W79344  31.217  12.020  27.102  0.1193 -0.0682  0.2132
36428W        W79345  33.096  12.234  26.209 -0.1443  0.0047 -0.1181
36429W        W79346  33.249  13.012  25.663 -0.0701 -0.1853 -0.0765
36430W        W79347  28.963  13.673  26.736 -0.0867 -0.1160 -0.2695
36431W        W79348  32.111  13.744  26.116  0.0451  0.0875  0.1360
36432W        W79349  29.011  10.897  25.794 -0.0173 -0.1065 -0.0705
36433W        W79350  33.604  13.787  22.447  0.1455 -0.1449  0.0263
36434W        W79351  31.976  12.773  28.367 -0.1254 -0.0380  0.1931
36435W        W79352  34.521  12.434  24.654 -0.2809  0.1392 -0.1777
36436W        W79353  32.225  10.979  26.384  0.1588 -0.0487 -0.1316
36437W        W79354  31.520  14.212  24.449  0.1060 -0.3036 -0.1171
36438W        W79355  28.929  10.363  27.602  0.1449 -0.0437 -0.2147
36439W        W79356  28.623  11.857  24.989  0.1412  0.1869 -0.0344
36440W        W79357  32.370  13.094  27.669 -0.4833 -0.1845 -0.2788
36441W        W79358  29.567  11.427  23.392  0.1725  0.2820  0.1134
36442W        W79359  31.068   9.367  24.370 -0.3377 -0.2916 -0.0081
36443W        W79360  31.694  13.300  25.576 -0.4795 -0.0999  0.0529
36444W        W79361  31.414  10.338  27.340 -0.1296 -0.2317  0.3862
36445W        W79362  30.036  12.546  25.347 -0.3022  0.0526 -0.5393
36446W        W79363  32.337  13.318  26.803  0.0298 -0.2046 -0.0326
36447W        W79364  32.591  13.371  27.291 -0.1109 -0.0806  0.4292
36448W        W79365  32.536  14.283  28.338 -0.1385  0.2564  0.0537
36449W        W79366  28.858  10.833  24.618 -0.0942 -0.1159  0.0460
36450W        W79367  33.328  11.249  25.010 -0.2403  0.1037 -0.0020
36451W        W79368  30.397  14.334  28.066 -0.0569  0.0530  0.2401
36452W        W79369  33.773  16.790  26.646 -0.0556 -0.1899 -0.0502
36453W        W79370  31.283  13.485  25.345 -0.1795 -0.0988 -0.1734
36454W        W79371  30.591  12.912  24.813  0.0578 -0.1487  0.2414
36455W        W79372  31.898  11.168  27.255 -0.2368 -0.1402 -0.0723
36456W        W79373  31.659  12.697  25.019  0.1539 -0.1587  0.0874
36457W        W79374  32.077  12.665  26.881  0.0444  0.0353  0.5750
36458W        W79375  31.662  12.820  26.025  0.1436  0.1337 -0.0410
36459W        W79376  29.595  10.545  26.451  0.1090  0.0433 -0.1037
36460W        W79377  31.094  11.095  26.213 -0.0767  0.2956  0.0083
36461W        W79378  30.313  14.021  27.621  0.1862  0.2486 -0.0927
36462W        W79379  32.225  11.881  26.668 -0.1695 -0.2256 -0.1779
36463W        W79380  31.938  12.333  29.103 -0.2179  0.1797 -0.0228
36464W        W79381  30.037  10.714  30.106 -0.0950 -0.2732 -0.2324
36465W        W79382  31.586  11.598  27.642  0.0513  0.0835  0.0397
36466W        W79383  34.253  12.412  28.362 -0.0493  0.2617  0.3084
36467W        W79384  28.391  10.849  26.432  0.1374 -0.0984  0.1977
36468W        W79385  32.074  13.532  28.410 -0.3124 -0.0479  0.2699
36469W        W79386  28.546  12.247  30.295 -0.1420 -0.0113  0.0694
36470W        W79387  29.887  13.016  29.679 -0.0192 -0.0525  0.1230
36471W        W79388  33.079  15.688  28.374  0.3886  0.0587 -0.1813
36472W        W79389  29.173  13.086  29.167 -0.1657  0.1408  0.1166
36473W        W79390  29.102  11.793  29.859 -0.3098 -0.0902 -0.0145
36474W        W79391  31.392  11.970  28.496 -0.2248 -0.1923 -0.0199
36475W        W79392  30.393  10.477  28.514 -0.0700 -0.1025 -0.2525
36476W        W79393  29.474  10.107   0.577  0.1378 -0.0864  0.0149
36477W        W79394  30.778  11.173  31.902  0.3591 -0.3988  0.2711
36478W        W79395  28.762  12.751  28.036 -0.3220 -0.0217  0.0991
36479W        W79396  29.789  12.163  29.730  0.2721 -0.1480  0.4165
36480W        W79397  30.926  12.024  28.637  0.1951 -0.0330 -0.2482
36481W        W79398  30.907  15.486  29.238  0.0739  0.0334 -0.0530
36482W        W79399  29.937  11.732  30.162  0.0419  0.2778 -0.2851
36483W        W79400  31.755  12.446  31.032 -0.0544  0.0360  0.0841
36484W        W79401  31.520  13.239  26.459 -0.1645  0.2759 -0.2953
36485W        W79402  27.417  12.257  29.860  0.1462 -0.1389 -0.0325
36486W        W79403  30.437  12.030  29.145 -0.1602 -0.0525 -0.1137
36487W        W79404  29.215  12.657  28.793 -0.0310  0.3121  0.0222
36488W        W79405  32.495  12.787  29.506  0.0471  0.1405 -0.2086
36489W        W79406  33.484  11.241  29.562  0.2298 -0.0977 -0.0118
36490W        W79407  30.325  14.915  30.304  0.0293  0.1064 -0.3966
36491W        W79408  31.663  16.067  30.118 -0.1560  0.0722  0.2576
36492W        W79409  33.999  12.406  31.073 -0.0640  0.1087 -0.0373
36493W        W79410  28.428  13.080  28.917 -0.0513 -0.0841 -0.1981
36494W        W79411  28.604  14.538  27.605 -0.0096  0.0367 -0.0974
36495W        W79412  30.061  13.601  27.385  0.0615  0.0694  0.0149
36496W        W79413  34.255  13.862  28.339  0.0516 -0.2857  0.0627
36497W        W79414  30.033  14.535  31.300  0.4286 -0.3189 -0.4053
36498W        W79415  31.022  13.057  30.564 -0.1293  0.2051  0.1574
36499W        W79416  28.903  14.454  28.007  0.0298 -0.1884  0.2135
36500W        W79417  30.103  13.297  30.434  0.2047 -0.1007  0.1809
36501W        W79418  30.445  15.356  29.958 -0.1112 -0.0234 -0.2533
36502W        W79419  30.073  12.508  31.188  0.4261 -0.1669  0.6375
36503W        W79420  29.410  12.056  29.400 -0.2243 -0.0554 -0.1751
36504W        W79421  32.483  13.293  29.342  0.0434 -0.2399  0.0920
36505W        W79422  28.400  13.787  31.140  0.1031 -0.4270 -0.0086
36506W        W79423  31.095  12.830  29.687 -0.1097  0.1734 -0.0706
36507W        W79424  27.559  12.584  30.204 -0.1871  0.1861 -0.1342
36508W        W79425  34.564  10.908  30.383  0.0951  0.1749 -0.0341
36509W        W79426  29.840  12.097  27.162 -0.4843 -0.1641 -0.0388
36510W        W79427  31.884  10.254  27.432 -0.0603  0.0070  0.0399
36511W        W79428  29.448  12.716  27.823  0.0144  0.1928  0.1274
36512W        W79429  31.600  11.499  28.489  0.0559 -0.1105 -0.0085
36513W        W79430  30.396  11.120  29.973  0.1063  0.2491  0.1344
36514W        W79431  29.833  13.776  29.160  0.0381  0.2309 -0.0537
36515W        W79432  30.800  12.016  29.474 -0.0953 -0.0978  0.2244
36516W        W79433  30.972  13.409  31.874  0.0968 -0.1460  0.2698
36517W        W79434  29.527  12.029  30.105  0.4745 -0.2745  0.2558
36518W        W79435  30.443  12.497  30.138 -0.1760 -0.1702  0.1596
36519W        W79436  30.182  13.926  31.074 -0.0881 -0.1523 -0.2531
36520W        W79437  28.616  12.080  28.954 -0.1903  0.2883  0.1990
36521W        W79438  32.051  13.624  28.919 -0.1990 -0.2683 -0.2271
36522W        W79439  30.773  14.251  28.803 -0.0139  0.0067 -0.0486
36523W        W79440  30.763  12.749  26.943  0.2810 -0.1550 -0.0717
36524W        W79441  28.144  11.987  28.848  0.0685  0.4082 -0.0337
36525W        W79442  29.320  12.551  29.313 -0.1710 -0.0730 -0.1482
36526W        W79443  29.709  11.606  31.160 -0.3471 -0.0599  0.0652
36527W        W79444  33.082  11.499  28.494 -0.1310  0.1720 -0.2822
36528W        W79445  32.931  14.150   0.296  0.1640  0.2273 -0.1251
36529W        W79446  27.936  13.057  31.687  0.1138  0.2269 -0.2217
36530W        W79447  33.965   8.503  26.361  0.0345 -0.1890 -0.1437
36531W        W79448  29.546  13.534  31.629  0.0444 -0.2950 -0.1755
36532W        W79449  32.234  13.821  30.303 -0.0869 -0.2577 -0.1809
36533W        W79450  30.857  13.023  26.106  0.0831 -0.1086  0.1645
36534W        W79451  31.511  12.562  29.877 -0.2169  0.2328 -0.1758
36535W        W79452  29.526  11.214  30.164 -0.1620  0.1170  0.1695
36536W        W79453  29.082  14.444  28.469 -0.1239 -0.0484  0.1848
36537W        W79454  30.197  12.709  28.397  0.2552  0.1004  0.2299
36538W        W79455  33.647  11.517  30.802  0.2321  0.0152 -0.0112
36539W        W79456  33.549  14.442  28.499  0.1095  0.0619 -0.2172
36540W        W79457  28.554  13.876  30.150 -0.0681 -0.2115  0.0845
36541W        W79458  29.736  14.500  30.881  0.1524  0.1291 -0.1109
36542W        W79459  30.170  13.784  31.532  0.0454  0.1122  0.2157
36543W        W79460  29.816  13.206  26.892 -0.3323  0.1735  0.3375
36544W        W79461  29.335  14.893  29.444 -0.4087  0.1145 -0.0477
36545W        W79462  29.482  12.251  28.526  0.0650  0.2758 -0.0432
36546W        W79463  28.155  12.220  29.735 -0.2679  0.2986  0.2606
36547W        W79464  29.678  15.055  31.006 -0.1917  0.1306  0.0059
36548W        W79465  32.780  12.332  28.405 -0.2305  0.1190 -0.0495
36549W        W79466  27.834  12.134   0.034  0.1121 -0.1490  0.3049
36550W        W79467  33.970  10.610  27.262  0.1278  0.2108  0.1142
36551W        W79468  29.715  13.773  27.771 -0.0859  0.0963  0.1621
36552W        W79469  32.076  13.409  27.348 -0.0717 -0.2781 -0.2848
36553W        W79470  32.224  11.779  28.940 -0.1328  0.0474 -0.0368
36554W        W79471  32.956  13.439  27.775  0.1887  0.0522 -0.1416
36555W        W79472  32.186  12.732  28.887 -0.0233 -0.2264 -0.3729
36556W        W79473  29.866  12.427  28.096  0.0966  0.2929  0.5238
36557W        W79474  29.032  12.179  30.215  0.1520 -0.3303 -0.2299
36558W        W79475  27.449  10.915  30.764  0.0504  0.1819 -0.0967
36559W        W79476  32.685  11.986  31.238 -0.2163 -0.0132  0.2407
36560W        W79477  29.061  10.529  28.038 -0.1066  0.0310  0.1895
36561W        W79478  33.254  12.199  28.765 -0.3389  0.1261  0.1747
36562W        W79479  30.355  12.506  29.330 -0.1165  0.0568 -0.3383
36563W        W79480  28.201  13.305  28.551  0.0272 -0.0665 -0.1930
36564W        W79481  33.591  10.646  31.629  0.0928  0.0901  0.1381
36565W        W79482  33.447  15.849  28.693 -0.1054 -0.1168 -0.1239
36566W        W79483  33.022  12.799  29.428 -0.1541  0.0272  0.2735
36567W        W79484  32.641  12.882  28.941  0.0036  0.1178 -0.1716
36568W        W79485  30.988  11.527  31.570  0.0797  0.4254  0.2778
36569W        W79486  29.974  12.218  28.597 -0.1516 -0.1861 -0.1656
36570W        W79487  31.639  14.796  29.484  0.1157  0.0595  0.1053
36571W        W79488  31.340  14.167  29.953 -0.1054  0.1398 -0.2203
36572W        W79489  30.411  10.874  27.588  0.1740 -0.1429  0.0933
36573W        W79490  33.275  13.926  28.757 -0.6159  0.0765 -0.1410
36574W        W79491  31.562  13.181  29.148 -0.0982  0.1011 -0.0920
36575W        W79492  29.184  11.831  28.210  0.2012 -0.0343 -0.0106
36576W        W79493  30.102  11.795   0.457  0.0324  0.1041  0.1703
36577W        W79494  32.466  13.362  30.746  0.1560  0.1859 -0.3238
36578W        W79495  32.494  12.796  28.482 -0.0446 -0.0301  0.1899
36579W        W79496  29.659  10.517  29.642  0.1071 -0.0672  0.0906
36580W        W79497  31.211  15.038  29.259  0.1771 -0.1195 -0.2695
36581W        W79498  28.996  13.259  29.691  0.0467  0.1093  0.1312
36582W        W79499  26.673  11.553  29.384  0.3453 -0.1441  0.0596
36583W        W79500  30.546  13.759  29.409 -0.0353 -0.0259 -0.2568
36584W        W79501  32.824  10.892  28.663  0.1346  0.1909  0.1460
36585W        W79502  28.398  12.574   0.123 -0.0490 -0.2369  0.3826
36586W        W79503  29.272  11.739  30.779 -0.3160  0.1158 -0.3712
36587W        W79504  29.718  11.938  28.076  0.2549 -0.2780 -0.0978
36588W        W79505  28.354  13.023  30.963 -0.0061 -0.0597  0.0807
36589W        W79506  31.095  10.346  28.187  0.0249 -0.1489 -0.0487
36590W        W79507  33.751  10.389  28.538 -0.0737 -0.0392 -0.1665
36591W        W79508  32.306  13.178  28.722  0.1010  0.0124  0.0950
36592W        W79509  30.523  12.958  27.532 -0.2073  0.0445  0.0656
36593W        W79510  31.863  10.943  29.361 -0.1235  0.2720  0.3342
36594W        W79511  31.059  12.270  28.235 -0.1323 -0.5509  0.1727
36595W        W79512  29.730  12.408  30.786 -0.3632  0.0251  0.0576
36596W        W79513  31.671  13.197  27.536 -0.4410  0.1010 -0.1586
36597W        W79514  32.254  14.637  29.711 -0.1267  0.2026  0.1070
36598W        W79515  32.587  11.160  27.925  0.2305 -0.1058  0.0605
36599W        W79516  32.246  14.640  28.186  0.0096  0.1079  0.0807
36600W        W79517  29.544  14.426  28.195 -0.1112 -0.0565  0.1619
36601W        W79518  30.840  13.813  30.023  0.0941 -0.1554 -0.0909
36602W        W79519  29.815  12.703  26.665  0.1377  0.2838 -0.1731
36603W        W79520  30.383  11.057  31.465  0.0723  0.5433  0.2387
36604W        W79521  29.448  13.504  26.649 -0.0127 -0.5036  0.0942
36605W        W79522  30.443  11.150  29.472 -0.1064 -0.1479  0.0581
36606W        W79523  29.074  12.352  27.056  0.1178 -0.3166  0.1738
36607W        W79524  32.008  12.082  30.427 -0.1129  0.1188  0.2060
36608W        W79525  31.722  12.983  29.674  0.0331  0.1070  0.0613
36609W        W79526  31.913  11.883  30.868 -0.1508  0.1263  0.0750
36610W        W79527  31.345  13.214  31.531 -0.2702  0.0530  0.0722
36611W        W79528  32.432  12.576  27.465 -0.1490  0.3856 -0.2661
36612W        W79529  31.208  12.631  30.295 -0.0554 -0.3198 -0.1249
36613W        W79530  30.078  11.623  27.126 -0.1194  0.1283  0.2329
36614W        W79531  30.212  12.435  30.621 -0.0721  0.1010  0.1155
36615W        W79532  27.525  13.395  30.850  0.1617 -0.1096 -0.1233
36616W        W79533  30.199  13.510  30.008  0.1042  0.0111 -0.2391
36617W        W79534  32.298  13.630  29.707 -0.0727 -0.1172 -0.1835
36618W        W79535  30.725  13.724  31.016  0.0283 -0.0295  0.1112
36619W        W79536  28.776  10.867  31.356 -0.0755  0.1753  0.0653
36620W        W79537  30.006  11.082  29.240  0.1226 -0.0744 -0.1616
36621W        W79538  30.365  13.030  28.762  0.4746  0.0444 -0.0002
36622W        W79539  33.646  12.169  28.314 -0.1236 -0.1498  0.1810
36623W        W79540  30.916  10.311  29.689  0.0467  0.0060 -0.0439
36624W        W79541  30.926  14.401  29.928  0.1721 -0.2507 -0.2821
36625W        W79542  30.731  12.820  29.103 -0.0127 -0.0933  0.0321
36626W        W79543  32.392  13.716   0.834  0.0987 -0.3718  0.1182
36627W        W79544  29.106  13.262  27.032 -0.0414 -0.3222 -0.1399
36628W        W79545  32.588  10.777  29.157  0.0567  0.2111 -0.2121
36629W        W79546  30.164  15.574  27.164  0.0240  0.1718  0.0715
36630W        W79547  31.341  13.334  29.563  0.0592  0.2529  0.0838
36631W        W79548  28.796  11.515  28.328 -0.0462 -0.1433  0.0963
36632W        W79549  33.698  10.700  28.894  0.0164 -0.0677  0.0925
36633W        W79550  32.532  13.441  30.162  0.0136 -0.0070  0.3902
36634W        W79551  31.622  12.627  29.363 -0.3020  0.0693  0.1061
36635W        W79552  30.552   9.586  29.577 -0.1170 -0.0979  0.0223
36636W        W79553  28.924  12.711  29.634  0.2557 -0.0368  0.0204
36637W        W79554  31.606  14.527  31.343  0.1404  0.0109 -0.0313
36638W        W79555  33.330  12.415  29.194  0.2645  0.0995 -0.3511
36639W        W79556  30.583  12.239  30.944  0.2261  0.3571  0.0401
36640W        W79557  28.424  14.343   0.371 -0.2174 -0.0489  0.2517
36641W        W79558  29.127  10.408  26.705  0.1050 -0.0790  0.1876
36642W        W79559  30.752  12.551  30.500 -0.1749 -0.0147  0.1773
36643W        W79560  29.765  10.378  28.781  0.0009 -0.0488  0.0985
36644W        W79561  30.982  14.693  28.943  0.0382 -0.0349 -0.1079
36645W        W79562  31.154  15.594  28.832 -0.0428  0.1903  0.0631
36646W        W79563  30.336  11.496  29.113  0.1718 -0.0270 -0.0878
36647W        W79564  30.160  12.576  29.759  0.0825 -0.1155 -0.5021
36648W        W79565  29.206  11.703  30.294 -0.0552 -0.3312  0.2682
36649W        W79566  32.923  13.731  30.909  0.0066  0.3514 -0.0178
36650W        W79567  30.823  11.701  29.050 -0.1000  0.2281  0.0655
36651W        W79568  30.751   9.171  28.763 -0.1353 -0.1913  0.2760
36652W        W79569  31.719  12.151  29.586 -0.1807 -0.1756  0.2077
36653W        W79570  30.882  12.099   0.028 -0.1563  0.0050  0.1541
36654W        W79571  29.935  11.914   0.992  0.1976 -0.0050 -0.0715
36655W        W79572  29.808  15.548  28.937 -0.0481  0.2906  0.0060
36656W        W79573  30.408  12.071  30.438  0.0366  0.3000  0.1305
36657W        W79574  32.501  15.212  28.922 -0.2020  0.1551 -0.0409
36658W        W79575  32.257  13.091   0.027  0.3878 -0.2463 -0.1971
36659W        W79576  28.672  12.331  29.829 -0.0511  0.1216  0.2058
36660W        W79577  26.979  12.415  30.480 -0.0352  0.2027  0.2719
36661W        W79578  29.339  11.559  29.299  0.1180  0.0892  0.0241
36662W        W79579  32.391  13.925  28.632  0.1758  0.3783 -0.2780
36663W        W79580  32.221  13.174  29.804 -0.1369  0.4135 -0.0999
36664W        W79581  31.747  11.799  26.868  0.1656  0.2508 -0.1888
36665W        W79582  30.820  13.370  29.816 -0.0272  0.2554 -0.1920
36666W        W79583  33.296  11.598  27.263 -0.0315  0.1766 -0.1453
36667W        W79584  31.364  13.865  27.030  0.1459 -0.3416 -0.0166
36668W        W79585  31.166  11.865  27.551 -0.0217 -0.1570 -0.0342
36669W        W79586  34.265  10.550  30.608 -0.2199  0.3608 -0.0672
36670W        W79587  33.180  14.876  28.320 -0.1355  0.0351 -0.2003
36671W        W79588  32.017   9.082  30.507 -0.1344  0.0532 -0.1734
36672W        W79589  28.972  10.395  31.075 -0.2546  0.1280 -0.0431
36673W        W79590  29.805  11.206  28.446  0.0422  0.0491 -0.0171
36674W        W79591  30.847  10.842  30.301  0.0168 -0.1090 -0.1819
36675W        W79592  31.355  14.213  31.785 -0.2506  0.2232  0.0835
36676W        W79593  28.863  15.603  30.053  0.2515 -0.0135  0.1203
36677W        W79594  33.014  11.088  28.192  0.0692 -0.1023  0.0022
36678W        W79595  30.707  11.869  27.240 -0.0697 -0.3488  0.0224
36679W        W79596  28.370  12.696  29.409  0.1581  0.0513 -0.0541
36680W        W79597  33.459  14.368  30.968 -0.0540 -0.0923 -0.0840
36681W        W79598  32.019  12.789  27.872  0.3935  0.1478  0.2590
36682W        W79599  33.885  13.576  29.503 -0.4075 -0.1275 -0.0859
36683W        W79600  26.866  15.227  31.478  0.1187 -0.0215 -0.0591
36684W        W79601  33.062  14.091  29.220 -0.0325  0.2349  0.2851
36685W        W79602  31.900  12.227  28.182  0.2838  0.2682 -0.0293
36686W        W79603  28.813  12.735  30.110  0.0420 -0.3276 -0.2439
36687W        W79604  30.822  11.760   0.592 -0.3563 -0.0041  0.0913
36688W        W79605  32.066  12.957  29.332 -0.2616 -0.0020 -0.0576
36689W        W79606  33.760  10.925  29.873  0.1588  0.1106 -0.1843
36690W        W79607  30.937  11.299  29.344  0.0366 -0.0442  0.5479
36691W        W79608  31.707  13.135  28.082 -0.0883 -0.1196 -0.1247
36692W        W79609  30.192  10.357   0.608  0.0220  0.1104  0.0736
36693W        W79610  28.352  11.052  30.650  0.0827  0.1741 -0.2255
36694W        W79611  30.019  14.395  29.898  0.1548 -0.0021 -0.0828
36695W        W79612  31.623  13.964  28.572 -0.4090 -0.0093  0.1134
36696W        W79613  33.317  11.209  30.027  0.0352 -0.0656 -0.1596
36697W        W79614  32.845  11.577  28.026 -0.2480 -0.1171  0.2063
36698W        W79615  31.779  13.323  30.137 -0.0200  0.0141  0.1594
36699W        W79616  29.265  10.957  30.547  0.0394  0.0060 -0.2600
36700W        W79617  31.783  13.192   0.765  0.0806  0.1374  0.1459
36701W        W79618  29.481  11.076  27.677  0.1692 -0.3376 -0.3932
36702W        W79619  30.355  12.128  29.760  0.2114  0.1781 -0.0183
36703W        W79620  29.283  12.646  28.283  0.0029 -0.0583 -0.0227
36704W        W79621  30.973  14.045  29.484 -0.3543 -0.0884 -0.1740
36705W        W79622  31.315  13.009  30.047 -0.0076 -0.3845 -0.1954
36706W        W79623  28.782  11.827  31.042  0.1320 -0.3286  0.1532
36707W        W79624  28.507  13.281  30.548  0.0184 -0.3193 -0.0220
36708W        W79625  29.040   9.221  28.757  0.0833 -0.0071  0.0326
36709W        W79626  31.076  11.532  28.686  0.1035  0.2291 -0.1562
36710W        W79627  31.714  13.392  31.229 -0.0319 -0.4331  0.1482
36711W        W79628  31.916  13.428   1.220  0.3475  0.0388  0.2873
36712W        W79629  30.580   9.185  29.312 -0.1665  0.1021  0.0403
36713W        W79630  33.146  11.342  31.894 -0.1167  0.2018 -0.0972
36714W        W79631  29.183  13.619  27.984  0.2102  0.1114 -0.0349
36715W        W79632  31.413  12.303  29.055  0.1646  0.0965 -0.0590
36716W        W79633  30.511  14.357  30.206 -0.0385  0.1715  0.1385
36717W        W79634  27.846  12.159  30.167  0.0689  0.3412  0.2465
36718W        W79635  27.747  13.040  29.511  0.1175  0.2224  0.1495
36719W        W79636  29.647  10.099  30.094 -0.0710 -0.0154  0.1171
36720W        W79637  34.277  13.382  29.259  0.0175  0.2782 -0.0042
36721W        W79638  32.196  13.960  28.095 -0.0477 -0.0331  0.0521
36722W        W79639  31.149  13.723  31.377  0.0369 -0.0916  0.2028
36723W        W79640  29.601  11.748  31.626  0.1463  0.1514  0.1506
36724W        W79641  29.408  12.972  29.645 -0.1084  0.1529  0.3331
36725W        W79642  32.716  12.958  31.792 -0.2153 -0.0035  0.3930
36726W        W79643  32.424  14.689  27.627 -0.1708  0.2726  0.0556
36727W        W79644  29.965  12.809  27.748 -0.1409  0.4536  0.3212
36728W        W79645  30.592  12.536  31.377 -0.0071  0.1509 -0.1187
36729W        W79646  29.689  13.242  30.106 -0.1639  0.2254  0.0730
36730W        W79647  32.009  14.076  29.411  0.0320 -0.0526 -0.1316
36731W        W79648  29.939  11.131  29.848  0.3235  0.1576  0.3151
36732W        W79649  29.759  11.735  26.757 -0.1652 -0.1279 -0.1839
36733W        W79650  29.481  15.931  30.115 -0.2140 -0.1772  0.2089
36734W        W79651  28.325  12.514  28.881 -0.3091  0.0496 -0.1909
36735W        W79652  29.470  14.442  27.420 -0.3769  0.1840 -0.1132
36736W        W79653  32.485  14.708  29.111  0.2075  0.0151 -0.0412
36737W        W79654  30.968  13.092  28.765  0.0708 -0.1263 -0.1396
36738W        W79655  30.298  14.163  28.516  0.1317 -0.1033  0.2295
36739W        W79656  29.968  10.656  28.331  0.1088 -0.0699  0.0904
36740W        W79657  29.506  13.047  27.364 -0.1780 -0.2430 -0.0688
36741W        W79658  28.782  13.819  27.693 -0.2320  0.2192  0.1877
36742W        W79659  32.710  14.894  28.047  0.0245 -0.0862  0.1293
36743W        W79660  30.011  14.548  28.342 -0.0022  0.1667 -0.3040
36744W        W79661  33.342  13.907  30.682  0.2208 -0.0784  0.2737
36745W        W79662  32.202  11.119  28.327  0.0422  0.1132  0.2524
36746W        W79663  31.291  13.462  28.847 -0.1379 -0.1726  0.1973
36747W        W79664  34.522  11.967  28.540  0.3008 -0.0750  0.2006
36748W        W79665  30.810  12.752  30.957 -0.2624 -0.1710  0.1259
36749W        W79666  30.434  12.027   0.900  0.0912 -0.3532 -0.1987
36750W        W79667  30.776  11.386  28.281 -0.1138  0.3433  0.2495
36751W        W79668  28.898  14.523  30.843  0.0759  0.1257  0.1232
36752W        W79669  32.721  12.158   0.686  0.0479 -0.0990  0.2124
36753W        W79670  29.683  13.348  29.330  0.1102 -0.2292 -0.0499
36754W        W79671  29.774  14.363  29.334 -0.0913 -0.4241  0.0799
36755W        W79672  31.457  12.607  28.224 -0.0000  0.0030  0.1768
36756W        W79673  31.695  11.769  28.938 -0.1732 -0.0293  0.1051
36757W        W79674  31.990  10.378  29.959 -0.1022  0.0584  0.2930
36758W        W79675  30.355  12.935  28.024 -0.3795  0.0502  0.2146
36759W        W79676  30.514  12.967  29.561  0.0937  0.2677  0.0420
36760W        W79677  32.558  13.694  27.662  0.0089 -0.1241  0.0990
36761W        W79678  28.391  14.657  30.604  0.0317 -0.0388  0.0340
36762W        W79679  29.620  13.195  31.015  0.2048  0.1955 -0.0580
36763W        W79680  30.769  10.774  29.522 -0.1540  0.1683 -0.1806
36764W        W79681  32.058  12.503  29.567  0.1119  0.2307  0.0847
36765W        W79682  30.021  11.944  31.486 -0.1869 -0.0080  0.1316
36766W        W79683  32.719  10.563  31.769 -0.3916  0.2402 -0.0376
36767W        W79684  30.422  12.511  27.796 -0.0400 -0.2740 -0.0497
36768W        W79685  30.342  11.352  27.936 -0.2809 -0.1220  0.3982
36769W        W79686  32.130  13.057  30.333 -0.0928  0.1997  0.0103
36770W        W79687  29.291  12.829   0.385  0.1558 -0.0191 -0.1036
36771W        W79688  32.864  13.929  28.464  0.0470 -0.1822  0.0956
36772W        W79689  34.026  12.642   0.519 -0.4152 -0.2808  0.3073
36773W        W79690  32.404  12.375  29.204  0.1164 -0.0790  0.0122
36774W        W79691  31.941  13.420  29.419  0.0338 -0.0552  0.0357
36775W        W79692  29.691   9.507  29.557 -0.0534 -0.0378 -0.1152
36776W        W79693  30.825  10.676  28.640  0.0787 -0.0514  0.1922
36777W        W79694  28.290  13.737  29.003 -0.0747 -0.4148 -0.1319
36778W        W79695  30.426  12.856   1.584 -0.4620 -0.0016  0.1937
36779W        W79696  33.274  13.943  30.139  0.0164 -0.1493 -0.0781
36780W        W79697  28.045  10.729  29.492  0.1980 -0.0323  0.0222
36781W        W79698  31.002  14.353  28.147  0.1289 -0.1675  0.2646
36782W        W79699  33.583  12.663  29.605 -0.3322  0.1905 -0.0416
36783W        W79700  31.156  17.592  30.022 -0.3662  0.2710 -0.0851
36784W        W79701  33.584  12.131  31.029  0.1045  0.0349  0.2543
36785W        W79702  31.424  14.455  27.678  0.0236 -0.0573 -0.0139
36786W        W79703  29.864  12.568  29.381 -0.2792  0.1687 -0.1006
36787W        W79704  32.850  12.453  28.952 -0.0851  0.2582  0.0385
36788W        W79705  33.327  13.629  29.251 -0.0101  0.0982  0.2066
36789W        W79706  31.938   9.752  28.080 -0.2570  0.1346  0.0483
36790W        W79707  30.213  10.693  30.547  0.1121 -0.2282 -0.2615
36791W        W79708  28.305  16.611  27.905  0.2916  0.0566 -0.0050
36792W        W79709  32.913  11.878  30.504 -0.2384 -0.3301  0.2785
36793W        W79710  30.616  14.544  31.544  0.1112 -0.1460  0.3777
36794W        W79711  27.739  13.696  27.907 -0.1342 -0.0700  0.0546
36795W        W79712  30.261   9.818  31.102  0.2701 -0.3809  0.1558
36796W        W79713  27.980  12.771  28.398 -0.0076 -0.1752 -0.1914
36797W        W79714  29.916  12.818  30.306 -0.1166  0.2181 -0.3117
36798W        W79715  30.004  11.292  27.484  0.0089 -0.1115 -0.1228
36799W        W79716  30.470  11.571  31.583  0.2417 -0.1068  0.1252
36800W        W79717  30.305  13.973  29.040  0.1402 -0.1674  0.0074
36801W        W79718  30.097  13.376  27.878 -0.1820  0.0220  0.0870
36802W        W79719  32.336  14.334  28.859 -0.0071  0.2479 -0.2206
36803W        W79720  32.803  13.738  29.465 -0.1641  0.0540 -0.1740
36804W        W79721  30.076  14.959  29.867 -0.2307  0.0021 -0.1407
36805W        W79722  29.877  10.067  30.931 -0.1504  0.2081  0.0997
36806W        W79723  31.995  11.404  29.233 -0.0101 -0.3123 -0.2299
36807W        W79724  30.958   9.228  29.709  0.0549 -0.1321 -0.0809
36808W        W79725  30.727  12.507  29.692  0.1319 -0.2336  0.2448
36809W        W79726  29.196  11.198  28.683  0.1436 -0.1320 -0.2007
36810W        W79727  31.534  13.563  28.332 -0.0856 -0.1059  0.0791
36811W        W79728  28.703  13.084  29.302 -0.1558  0.3601 -0.0768
36812W        W79729  32.067  12.612  30.631 -0.2400 -0.1401 -0.2362
36813W        W79730  29.387  13.129  31.458 -0.0532  0.1865  0.1695
36814W        W79731  29.504  15.220  28.620  0.0868  0.1252  0.2341
36815W        W79732  31.385  11.360  29.036 -0.1314 -0.0823  0.0249
36816W        W79733  32.252  13.134  28.189 -0.1781 -0.0187 -0.2010
36817W        W79734  29.014  10.141   0.209 -0.0888 -0.4677 -0.0560
36818W        W79735  26.656  11.334  28.440  0.0368 -0.0084  0.0406
36819W        W79736  32.961  12.542  27.864  0.5100  0.3389 -0.2180
36820W        W79737  31.460  13.785  29.653 -0.1223  0.1349  0.0637
36821W        W79738  31.222  11.042  28.675  0.0052  0.0198 -0.1672
36822W        W79739   0.642  13.368   2.064 -0.0002  0.2000 -0.3134
36823W        W79740  30.843  12.135  26.798 -0.1219 -0.3784 -0.2102
36824W        W79741  29.994  11.604  31.923  0.3683  0.1322 -0.0968
36825W        W79742  31.035  11.022  30.810  0.1493 -0.0608 -0.1185
36826W        W79743  29.004  11.649  28.916 -0.3520  0.1200 -0.1243
36827W        W79744  32.534  12.731  30.640  0.0130 -0.0211 -0.1053
36828W        W79745  29.606  11.930  28.969  0.0929  0.2145  0.2865
36829W        W79746  32.467  14.225  27.767  0.0069  0.2208 -0.3681
36830W        W79747  31.641  12.742  28.874  0.0216 -0.1256  0.1130
36831W        W79748  31.367  12.901  30.948 -0.0829  0.0549  0.1523
36832W        W79749  27.339  12.775  30.676  0.2217  0.1446 -0.1957
36833W        W79750  31.618  13.719  31.623  0.0819  0.1093  0.1405
36834W        W79751  26.780  11.441  30.050  0.0623 -0.1496 -0.1899
36835W        W79752  33.864  12.705  28.225  0.3386  0.0573  0.1169
36836W        W79753  34.227  10.515  28.782  0.1173 -0.6059 -0.1740
36837W        W79754  32.416  12.470  27.981 -0.0168  0.1522 -0.1218
36838W        W79755  27.941  10.668  30.908 -0.1957 -0.1567  0.0205
36839W        W79756  28.190  13.233  29.334 -0.0912 -0.1307 -0.3130
36840W        W79757  31.594  13.794  30.504  0.2395  0.0340  0.0629
36841W        W79758  29.726   9.893  29.002 -0.1630 -0.0494  0.1287
36842W        W79759  32.624  11.831  29.270 -0.1031 -0.1915  0.0480
36843W        W79760  29.050  12.349  27.578  0.3664 -0.2193  0.1261
36844W        W79761  29.912  13.223  28.795 -0.1867  0.0060  0.4613
36845W        W79762  31.627  11.013  28.237  0.3362 -0.2141  0.1592
36846W        W79763  31.037  12.219   0.492  0.0648  0.2311  0.0382
36847W        W79764  31.613  13.750  29.172 -0.1029  0.3410  0.1648
36848W        W79765  32.123  13.994  31.336 -0.2656  0.1255 -0.0742
36849W        W79766  30.186  11.555  26.447  0.1759  0.1544  0.1804
36850W        W79767   0.504  14.491  28.931 -0.1652  0.1782 -0.0844
36851W        W79768  33.078  14.230  29.743 -0.0749 -0.0427 -0.2479
36852W        W79769  34.275  14.991   0.931  0.0218  0.0990  0.0528
36853W        W79770  30.408  13.684  30.631  0.2273  0.1411  0.0489
36854W        W79771  31.962  13.562  30.836 -0.2359  0.2118 -0.0467
36855W        W79772  28.897  11.781  29.433 -0.0093  0.2942 -0.1434
36856W        W79773  29.264  12.895  30.093  0.2688  0.1876 -0.0043
36857W        W79774  30.600  13.280  27.114 -0.0435  0.3303 -0.0381
36858W        W79775  32.733  13.183  29.761  0.0382 -0.0256  0.0042
36859W        W79776  28.703  10.621  30.010 -0.1779  0.2625 -0.1259
36860W        W79777  30.499   9.554  29.001 -0.1024  0.2079  0.0242
36861W        W79778  29.779  14.456  31.891 -0.1154  0.2585 -0.0637
36862W        W79779  31.948  14.068  30.864 -0.0936  0.1292 -0.0601
36863W        W79780  30.107  12.770  31.623  0.0825  0.0536  0.0984
36864W        W79781  30.186  14.783  29.412  0.0053  0.0044 -0.1154
36865W        W79782  29.969  10.535  30.986  0.1399  0.2547  0.0481
36866W        W79783  28.147  12.915  30.463  0.2813  0.0988 -0.3003
36867W        W79784  28.183  13.454   0.059  0.1287 -0.1393  0.1642
36868W        W79785  28.529  13.062  29.767  0.1599 -0.1464 -0.4263
36869W        W79786  30.943  12.154   0.971 -0.2970 -0.0506  0.3350
36870W        W79787  29.681  11.978   0.176  0.0559  0.1181  0.2450
36871W        W79788  31.311  12.459  31.262 -0.0987  0.0388 -0.1358
36872W        W79789  30.613  12.524   0.777 -0.1325 -0.1316 -0.1196
36873W        W79790  30.284  13.311  31.777 -0.2796 -0.1537  0.2072
36874W        W79791  29.529  10.857   1.466 -0.1899 -0.0786  0.0969
36875W        W79792   0.186  13.132   1.185  0.1644 -0.2717  0.1675
36876W        W79793  30.249  13.803   0.697  0.2329  0.0608 -0.1021
36877W        W79794  32.749  11.457  31.348  0.0446  0.0925  0.3836
36878W        W79795  29.835  14.074   0.494 -0.0700  0.1942  0.0325
36879W        W79796  26.862  12.901  30.340  0.2267 -0.1066 -0.0073
36880W        W79797  33.706  14.692   0.100  0.0569  0.0624  0.0218
36881W        W79798  30.263  11.199   0.096 -0.1025  0.0413 -0.2023
36882W        W79799  28.788  12.837   0.312  0.0697  0.0417 -0.3005
36883W        W79800  29.789  12.882   1.237  0.3008  0.0977 -0.0644
36884W        W79801  29.970  13.380   1.300  0.3925 -0.0470 -0.2046
36885W        W79802  32.400  12.247  30.724 -0.3636 -0.3487  0.0610
36886W        W79803  34.109  12.176  31.597 -0.0556  0.3249 -0.0467
36887W        W79804  30.063  11.181  30.350 -0.3096 -0.2601 -0.4168
36888W        W79805  30.502   9.984   0.217 -0.1199 -0.1480  0.3256
36889W        W79806  31.002  12.496  31.686  0.0589 -0.1174  0.1415
36890W        W79807  29.390  13.564  29.746 -0.1577  0.0801 -0.1944
36891W        W79808  30.391  12.873  30.519 -0.0470 -0.1453 -0.0872
36892W        W79809  31.209  12.416   2.169 -0.0897  0.3194  0.3060
36893W        W79810  31.437  13.308  30.578  0.0194 -0.0392  0.2634
36894W        W79811  31.802  10.373   1.302  0.0056  0.0510 -0.4228
36895W        W79812   0.603  12.180   0.735 -0.4482 -0.1461  0.1955
36896W        W79813  31.048  13.326  31.013  0.3317 -0.0824 -0.3054
36897W        W79814  27.504  11.380  30.509 -0.1317  0.2912  0.3280
36898W        W79815  29.279  12.692  31.908 -0.0894  0.1857 -0.3112
36899W        W79816  32.664  12.365   1.667 -0.1849  0.3999 -0.3089
36900W        W79817  33.034  13.521   1.264 -0.2544 -0.0120  0.2045
36901W        W79818  32.744  12.482  31.035 -0.0730  0.0979  0.0390
36902W        W79819  31.059  12.352  30.791 -0.1964 -0.0297 -0.1182
36903W        W79820  34.640  12.477   1.362  0.0700  0.1293 -0.0030
36904W        W79821  31.917  11.747  31.731  0.2923 -0.0912  0.2897
36905W        W79822  29.222  12.065  31.818  0.1946 -0.1870  0.0348
36906W        W79823  30.145  13.379  30.969  0.3793 -0.0110 -0.0805
36907W        W79824  30.547  11.576   0.160 -0.0563  0.1911  0.0937
36908W        W79825  31.209  12.763  29.162  0.1792  0.0896 -0.1861
36909W        W79826  33.087  10.421  31.407  0.2585 -0.1403 -0.2866
36910W        W79827  32.053  12.653  31.531 -0.0851  0.3735 -0.0801
36911W        W79828  32.595  13.506  31.794  0.2274 -0.0768  0.1694
36912W        W79829  30.216  14.309  31.709  0.1479  0.0004  0.0817
36913W        W79830  31.391  15.640  31.454  0.1186  0.0274 -0.2635
36914W        W79831  31.074  10.080  30.676  0.0091  0.1766  0.2119
36915W        W79832  29.197  11.137  31.635  0.2046  0.0471  0.3754
36916W        W79833  30.502  13.397  31.355  0.0520  0.2236 -0.1117
36917W        W79834  29.182  11.512  31.952  0.2005 -0.1600 -0.1803
36918W        W79835  31.698  12.269  31.525  0.1590 -0.0593  0.1840
36919W        W79836  33.439  12.346   0.259 -0.2139  0.1588 -0.2344
36920W        W79837  31.222  16.130   1.002  0.1686 -0.2687  0.0878
36921W        W79838  29.398  15.368  30.659 -0.4299  0.0922 -0.2625
36922W        W79839  29.939  13.276  31.424 -0.0793 -0.2006 -0.0885
36923W        W79840  28.831  11.819  31.707 -0.3377 -0.2957  0.1687
36924W        W79841  30.458  14.021  29.855 -0.0889 -0.2353  0.3575
36925W        W79842  29.247  14.911  31.762  0.1370 -0.1024  0.0050
36926W        W79843  29.565  10.741  31.772  0.1035  0.1939  0.0976
36927W        W79844  31.599  11.359  31.636  0.1728  0.0298 -0.0770
36928W        W79845  31.132  14.121   0.374  0.0337 -0.2490  0.2065
36929W        W79846  32.358  11.683   0.056 -0.1742 -0.0820 -0.0583
36930W        W79847  26.368  15.306  21.250 -0.3550 -0.3247 -0.0738
36931W        W79848  27.480  14.705  20.535  0.1474 -0.1640 -0.0723
36932W        W79849  29.728  15.496  17.239  0.2237 -0.0128  0.0432
36933W        W79850  31.403  14.824  17.418  0.3523 -0.1530 -0.3873
36934W        W79851  29.521  16.943  19.108  0.2656  0.0473  0.2098
36935W        W79852  31.521  15.772  19.459 -0.2977  0.0488 -0.0883
36936W        W79853  28.707  13.987  19.963  0.0602  0.1664  0.0502
36937W        W79854  31.587  17.121  18.551  0.1202  0.1339 -0.0909
36938W        W79855  33.595  16.750  19.522 -0.1573  0.1821 -0.1795
36939W        W79856  31.250  17.007  16.936 -0.2674 -0.2502  0.2320
36940W        W79857  31.331  14.475  20.855 -0.1856  0.0137  0.6393
36941W        W79858  31.487  17.625  17.857  0.0906  0.1156  0.1165
36942W        W79859  28.888  13.909  19.047  0.0724 -0.0102 -0.0192
36943W        W79860  29.612  16.155  18.844  0.2922  0.0453 -0.1962
36944W        W79861  29.895  14.140  18.357 -0.1332  0.3239  0.2111
36945W        W79862  29.891  15.103  17.020  0.0440 -0.1514  0.0175
36946W        W79863  28.450  16.317  21.486 -0.0519 -0.1213  0.1510
36947W        W79864  28.244  16.130  18.370  0.0020 -0.2020 -0.4787
36948W        W79865  30.348  17.994  18.255 -0.1970 -0.2024 -0.2368
36949W        W79866  32.425  13.189  20.221 -0.4144  0.0433  0.0542
36950W        W79867  33.014  15.605  19.975 -0.0220 -0.1965 -0.1257
36951W        W79868  30.650  16.995  17.768 -0.0821 -0.0219  0.1288
36952W        W79869  28.452  16.253  16.723  0.0819  0.1704 -0.0098
36953W        W79870  29.313  14.853  18.464  0.1904  0.1777  0.0039
36954W        W79871  30.064  15.869  19.932  0.2447  0.1906 -0.0047
36955W        W79872  32.253  14.643  18.789  0.0372 -0.0242  0.1548
36956W        W79873  31.506  14.447  19.296  0.0212  0.0184  0.1394
36957W        W79874  30.437  17.575  16.907  0.0961  0.6946  0.0489
36958W        W79875  31.535  17.338  19.791  0.2576  0.0899  0.0994
36959W        W79876  33.069  13.787  19.643 -0.1866  0.4409  0.0479
36960W        W79877  28.925  16.344  19.674 -0.0693 -0.2166 -0.0146
36961W        W79878  27.460  17.364  18.961 -0.0442  0.3158  0.0031
36962W        W79879  28.387  18.116  18.510 -0.1158 -0.1389 -0.0315
36963W        W79880  31.720  16.709  18.063 -0.2238 -0.4340  0.2817
36964W        W79881  32.025  17.864  19.450  0.0335  0.2768  0.0516
36965W        W79882  30.557  17.181  19.932  0.0429  0.0864  0.1134
36966W        W79883  30.900  15.966  18.087 -0.1087  0.0063 -0.0277
36967W        W79884  30.840  20.553  19.998  0.3137  0.1570  0.0804
36968W        W79885  29.904  18.538  18.921  0.0745 -0.1923  0.0639
36969W        W79886  28.718  15.966  18.623  0.2678  0.0530 -0.1648
36970W        W79887  29.974  16.802  19.472  0.1685 -0.0763 -0.1186
36971W        W79888  29.261  17.844  16.760  0.2954  0.1829  0.0587
36972W        W79889  30.388  15.284  18.301  0.2347  0.2391  0.3348
36973W        W79890  29.631  18.129  21.876  0.1264 -0.2517 -0.1695
36974W        W79891  28.562  15.364  18.074  0.0421  0.0097  0.1646
36975W        W79892  34.168  15.368  21.796  0.0156 -0.0762  0.3919
36976W        W79893  30.416  16.836  18.256 -0.2161  0.0100  0.0936
36977W        W79894  30.376  13.757  18.406  0.4565 -0.0730  0.3677
36978W        W79895  30.561  16.505  16.863  0.0512 -0.1198  0.0108
36979W        W79896  30.810  14.713  18.112 -0.0939 -0.1064 -0.1684
36980W        W79897  29.638  15.615  18.828  0.0041  0.0692  0.3417
36981W        W79898  29.966  18.982  21.355 -0.1818 -0.1529 -0.2019
36982W        W79899  30.448  14.071  22.517 -0.2571  0.2745  0.0509
36983W        W79900  30.712  16.454  19.297  0.2107 -0.0020  0.1323
36984W        W79901  29.510  14.913  17.898 -0.4644 -0.0991  0.1153
36985W        W79902  31.438  14.267  21.281  0.0811 -0.3230 -0.0559
36986W        W79903  30.792  16.501  19.805 -0.1131 -0.4366  0.1811
36987W        W79904  29.579  16.143  20.707 -0.1375  0.1575  0.0033
36988W        W79905  30.140  17.485  18.200  0.1325 -0.2424 -0.3284
36989W        W79906  32.406  16.712  17.560 -0.1346 -0.0957  0.1168
36990W        W79907  32.763  17.676  17.094  0.0695 -0.2297  0.1546
36991W        W79908  28.722  14.938  17.824 -0.0696  0.0405 -0.0230
36992W        W79909  29.310  15.697  20.473 -0.0763 -0.0834 -0.2650
36993W        W79910  29.980  15.298  21.054 -0.4176  0.0327 -0.1279
36994W        W79911  29.621  15.676  16.745 -0.0146 -0.0235  0.0267
36995W        W79912  31.768  16.981  20.149  0.0024  0.1907 -0.0497
36996W        W79913  27.703  15.925  18.307  0.1637 -0.4007 -0.2432
36997W        W79914  32.217  15.420  17.283  0.0258  0.1646  0.0754
36998W        W79915  31.653  16.320  19.127 -0.0617  0.1832 -0.1708
36999W        W79916  31.195  17.861  18.689  0.3551  0.2452  0.1946
37000W        W79917  31.435  17.934  16.902  0.2837 -0.2647 -0.0985
37001W        W79918  29.527  13.950  18.607  0.0779  0.1811  0.1687
37002W        W79919  33.465  14.226  21.926  0.1083 -0.0577 -0.1574
37003W        W79920  28.316  14.965  16.606 -0.0271  0.0659 -0.1271
37004W        W79921  31.721  16.694  16.829  0.0448  0.1657  0.0774
37005W        W79922  32.078  16.046  20.615  0.2222 -0.1336  0.0731
37006W        W79923  31.668  16.303  17.215  0.0090  0.1788  0.0614
37007W        W79924  30.859  18.054  18.272  0.0636  0.0099 -0.2524
37008W        W79925  30.792  12.732  22.132  0.0013 -0.2596 -0.2878
37009W        W79926  31.664  18.482  21.880  0.3292  0.0719 -0.0942
37010W        W79927  28.807  18.302  17.392 -0.1366  0.0569  0.0639
37011W        W79928  30.522  16.001  19.536  0.0078  0.0060 -0.0174
37012W        W79929  28.661  16.397  17.704  0.0477 -0.3674  0.0449
37013W        W79930  27.394  13.939  20.619 -0.0185  0.1835  0.0507
37014W        W79931  29.207  16.663  20.491 -0.3569  0.2351 -0.2548
37015W        W79932  31.286  15.571  16.856  0.1418 -0.2973 -0.3991
37016W        W79933  29.410  16.070  19.695 -0.0310 -0.0987  0.0948
37017W        W79934  32.190  11.690  21.480  0.1739 -0.0806 -0.3157
37018W        W79935  31.232  16.479  17.951 -0.0572  0.2840 -0.1229
37019W        W79936  32.766  18.149  17.262  0.1052 -0.2174 -0.2770
37020W        W79937  29.347  15.283  17.019 -0.0009  0.0353  0.0505
37021W        W79938  31.813  18.157  17.229  0.2597 -0.0704  0.0267
37022W        W79939  29.739  15.801  21.040  0.3537 -0.2390  0.0635
37023W        W79940  27.603  15.303  19.221  0.3572 -0.1903 -0.0688
37024W        W79941  30.823  16.339  21.081 -0.2216  0.1401 -0.2971
37025W        W79942  27.926  14.148  21.062 -0.2870 -0.1453  0.1445
37026W        W79943  32.000  15.497  18.825 -0.2472 -0.0513 -0.1258
37027W        W79944  30.540  14.326  18.366  0.4379 -0.0803  0.1143
37028W        W79945  32.252  13.828  20.861  0.4591 -0.2172 -0.0880
37029W        W79946  30.598  15.592  19.301 -0.1373 -0.0490  0.0274
37030W        W79947  29.107  16.718  18.449  0.1306  0.1317 -0.2144
37031W        W79948  32.307  15.710  23.923 -0.0308  0.0290  0.0286
37032W        W79949  32.984  18.225  18.641 -0.0149  0.3151  0.2064
37033W        W79950  31.675  16.229  17.824 -0.1345  0.0757 -0.2222
37034W        W79951  27.826  18.149  18.728 -0.0672  0.0676  0.0000
37035W        W79952  30.838  17.258  21.053 -0.0196 -0.0980  0.0899
37036W        W79953  28.957  16.040  17.614 -0.0880  0.0757 -0.1283
37037W        W79954  28.935  16.757  17.904 -0.0975  0.0354 -0.0520
37038W        W79955  30.251  17.132  18.674  0.4216  0.2596  0.0402
37039W        W79956  30.253  16.412  19.319  0.2059  0.3655 -0.0238
37040W        W79957  32.569  17.240  18.313 -0.2035 -0.0466 -0.0576
37041W        W79958  29.973  14.849  18.993  0.1649  0.1538  0.0241
37042W        W79959  30.101  15.374  20.013  0.0463 -0.0395  0.2058
37043W        W79960  31.058  14.828  20.996 -0.2343 -0.0300 -0.2221
37044W        W79961  32.443  15.242  18.718 -0.3052  0.0244 -0.1601
37045W        W79962  27.679  14.684  20.083 -0.2287  0.1456  0.0831
37046W        W79963  29.447  16.379  17.627 -0.1619 -0.0232  0.0851
37047W        W79964  32.152  18.610  18.798 -0.0713 -0.3225 -0.0927
37048W        W79965  27.958  16.069  17.458  0.0818  0.1043  0.1571
37049W        W79966  27.908  14.911  18.841  0.0041 -0.0580  0.2023
37050W        W79967  30.541  16.019  17.581 -0.3718 -0.0183  0.0906
37051W        W79968  31.466  12.877  19.219  0.0566 -0.1128  0.2521
37052W        W79969  31.293  18.377  21.543  0.3201  0.0880  0.2412
37053W        W79970  32.972  16.306  18.740  0.1510  0.0964  0.1951
37054W        W79971  28.180  13.979  18.600  0.3244  0.2328  0.1343
37055W        W79972  29.555  16.486  18.479 -0.0917  0.1080 -0.1730
37056W        W79973  30.433  14.409  18.870  0.0595 -0.1955 -0.1537
37057W        W79974  32.588  15.883  18.042  0.0176 -0.2126  0.3940
37058W        W79975  32.325  14.893  19.993  0.4508  0.2337 -0.2855
37059W        W79976  31.052  16.932  17.475 -0.0440  0.1065  0.0529
37060W        W79977  29.374  14.480  17.554 -0.0324 -0.1877  0.2605
37061W        W79978  30.054  13.913  17.924  0.0097 -0.0834 -0.2848
37062W        W79979  27.946  16.417  19.967  0.1972  0.1385 -0.0803
37063W        W79980  29.503  17.458  18.415  0.1927 -0.1738  0.0545
37064W        W79981  30.629  17.297  18.192  0.0239  0.0734  0.0253
37065W        W79982  29.894  14.582  17.111 -0.1784  0.1615 -0.0205
37066W        W79983  33.522  18.027  17.393  0.1446  0.2132  0.1449
37067W        W79984  27.671  17.573  20.404  0.0807 -0.0073  0.2913
37068W        W79985  33.106  18.161  19.637 -0.4424  0.0011 -0.2247
37069W        W79986  31.136  17.024  19.802  0.1349 -0.3173  0.0538
37070W        W79987  29.504  14.109  21.128  0.0244 -0.1435 -0.1453
37071W        W79988  30.806  16.437  17.726  0.1918 -0.1764 -0.0528
37072W        W79989  30.324  14.779  18.156 -0.3442 -0.0347 -0.0496
37073W        W79990  28.303  19.109  17.126  0.0467 -0.1745  0.0684
37074W        W79991  33.414  14.582  20.481  0.1398 -0.5149 -0.2132
37075W        W79992  32.267  14.274  20.696 -0.0590 -0.3446  0.0386
37076W        W79993  29.588  14.586  19.246 -0.2205 -0.0182  0.2060
37077W        W79994  30.358  16.541  17.890  0.0027  0.0408 -0.0422
37078W        W79995  31.811  15.413  17.577  0.1567  0.2260  0.2005
37079W        W79996  32.032  15.142  19.675 -0.0003 -0.0375  0.0280
37080W        W79997  29.870  16.634  18.954  0.1090 -0.1218 -0.1731
37081W        W79998  30.680  14.169  21.714  0.0691 -0.0790  0.2063
37082W        W79999  30.420  15.426  18.842  0.1476 -0.3613  0.2748
37083W        W80000  26.780  17.866  17.374 -0.0607  0.0893  0.0000
37084W        W80001  31.873  17.803  18.141 -0.0527 -0.2282 -0.0933
37085W        W80002  29.563  17.752  17.168 -0.0069 -0.3269  0.1550
37086W        W80003  30.490  13.898  20.906 -0.3027 -0.0599  0.1574
37087W        W80004  30.540  15.636  17.990  0.0579 -0.1895 -0.1212
37088W        W80005  29.547  19.268  18.045 -0.1109 -0.1349  0.1497
37089W        W80006  30.407  18.195  17.278 -0.1757  0.2609 -0.3503
37090W        W80007  29.425  15.228  19.313  0.0788  0.0923  0.1693
37091W        W80008  31.325  17.238  20.201  0.2393  0.0025  0.1876
37092W        W80009  29.659  17.296  17.929 -0.3026  0.0472 -0.1672
37093W        W80010  30.302  14.860  19.968  0.2288 -0.0538 -0.0873
37094W        W80011  30.045  17.883  20.110 -0.2247 -0.0036 -0.2295
37095W        W80012  32.954  13.312  18.470  0.2186 -0.0715  0.0535
37096W        W80013  29.782  16.348  19.937  0.2939  0.0443  0.2111
37097W        W80014  28.916  15.351  18.467 -0.1082  0.0260  0.2331
37098W        W80015  28.638  15.893  18.092  0.0575 -0.1314 -0.0361
37099W        W80016  30.742  15.184  17.914  0.0638 -0.2883  0.0811
37100W        W80017  33.537  17.546  17.655 -0.1753  0.2873 -0.1425
37101W        W80018  28.744  15.878  17.122  0.0494 -0.1792  0.0445
37102W        W80019  29.847  14.899  18.426 -0.1290 -0.5314 -0.3171
37103W        W80020  27.518  17.337  18.013 -0.3863  0.0003  0.4130
37104W        W80021  31.086  16.114  19.601  0.0770 -0.0928  0.1791
37105W        W80022  30.263  14.384  17.368  0.1238  0.0742  0.0101
37106W        W80023  30.868  16.973  19.398  0.1459 -0.2055 -0.2267
37107W        W80024  28.429  16.797  20.581 -0.2008 -0.2083 -0.1051
37108W        W80025  29.877  13.975  17.016 -0.0075 -0.2098 -0.1321
37109W        W80026  32.027  16.109  18.833 -0.1234  0.4406  0.0164
37110W        W80027  29.637  15.382  17.766  0.1170 -0.1090  0.1688
37111W        W80028  28.088  17.249  20.187  0.0245 -0.3206  0.1059
37112W        W80029  34.137  19.232  20.958  0.1067 -0.1847  0.0962
37113W        W80030  31.303  17.379  17.364 -0.0878  0.1898 -0.0898
37114W        W80031  29.548  16.499  19.433 -0.1284  0.3593  0.2559
37115W        W80032  29.606  14.174  20.172 -0.0640 -0.3525 -0.1277
37116W        W80033  29.680  14.880  17.450  0.1645  0.1976  0.1658
37117W        W80034  31.232  14.970  17.961  0.2135  0.1222 -0.0117
37118W        W80035  28.812  16.949  19.800 -0.1790  0.0083  0.1157
37119W        W80036  28.898  13.913  21.115  0.0377 -0.1941 -0.0444
37120W        W80037  29.932  17.265  19.158 -0.0142  0.0907 -0.2564
37121W        W80038  29.037  14.858  19.450  0.0300  0.0839 -0.3403
37122W        W80039  28.762  17.107  20.290 -0.1687  0.1160 -0.2300
37123W        W80040  28.870  15.214  19.812 -0.2142  0.0893  0.0513
37124W        W80041  34.065  19.749  17.831  0.2625  0.2388  0.1613
37125W        W80042  32.816  16.885  18.712 -0.0872  0.0812 -0.1431
37126W        W80043  28.459  15.996  17.540 -0.0059 -0.1951 -0.2020
37127W        W80044  28.284  16.576  17.456  0.0952  0.0291 -0.1373
37128W        W80045  31.859  18.921  18.134 -0.1144 -0.2690  0.2661
37129W        W80046  32.504  14.541  20.275  0.0274 -0.1204  0.0552
37130W        W80047  28.429  16.903  17.793 -0.0264 -0.2641  0.2110
37131W        W80048  29.042  17.521  18.738 -0.1590  0.1596  0.1048
37132W        W80049  28.214  15.753  17.920 -0.0482  0.0689 -0.3022
37133W        W80050  30.923  14.939  17.423 -0.0270  0.3683 -0.1178
37134W        W80051  28.995  17.672  18.221  0.1217 -0.2263  0.0549
37135W        W80052  31.596  14.175  18.467 -0.3135  0.0251  0.1045
37136W        W80053  31.887  15.692  19.736  0.2089 -0.0845  0.3228
37137W        W80054  31.401  15.703  17.335 -0.0162 -0.1194  0.2484
37138W        W80055  31.202  16.602  21.209 -0.0817 -0.4339  0.2811
37139W        W80056  30.234  12.935  19.322 -0.1403  0.0185  0.2175
37140W        W80057  31.699  17.058  17.234 -0.1196 -0.0084  0.2223
37141W        W80058  29.966  13.819  19.910 -0.3442 -0.1427 -0.0236
37142W        W80059  31.363  17.986  21.889 -0.2800 -0.0520 -0.2406
37143W        W80060  28.656  16.677  21.199  0.1239  0.1345  0.2109
37144W        W80061  28.197  16.313  17.887  0.0609  0.0338  0.4354
37145W        W80062  30.498  14.804  17.641 -0.0655 -0.2096 -0.3515
37146W        W80063  32.576  16.116  19.021  0.0578  0.3219  0.0377
37147W        W80064  32.189  16.981  17.958  0.4017  0.3813  0.1812
37148W        W80065  29.346  17.487  17.563 -0.5019 -0.1654  0.2110
37149W        W80066  32.706  15.317  20.874  0.0232 -0.1003 -0.2061
37150W        W80067  29.970  15.296  19.164 -0.0292 -0.4071  0.0498
37151W        W80068  31.373  15.371  19.165  0.1427 -0.2896  0.1996
37152W        W80069  29.518  17.005  18.645  0.0110 -0.0196  0.1645
37153W        W80070  29.064  14.317  20.177 -0.1122  0.1534  0.0509
37154W        W80071  28.620  14.097  21.489 -0.1286 -0.1626 -0.0067
37155W        W80072  30.940  16.571  18.875 -0.1535  0.1910 -0.0414
37156W        W80073  29.539  14.059  19.113 -0.1182  0.0508 -0.1174
37157W        W80074  31.276  15.390  20.346 -0.1778  0.0009  0.1212
37158W        W80075  31.811  14.572  19.821  0.0579  0.0520 -0.0401
37159W        W80076  30.683  16.176  20.140 -0.1440  0.1929  0.0443
37160W        W80077  29.263  16.287  21.510  0.0065  0.2163  0.4177
37161W        W80078  30.687  18.297  21.855  0.1668 -0.2259 -0.0458
37162W        W80079  30.489  16.038  16.953  0.1730  0.1283  0.0500
37163W        W80080  31.587  16.195  20.513  0.0532 -0.0833 -0.1786
37164W        W80081  30.087  15.723  17.690  0.0596 -0.0572  0.1107
37165W        W80082  30.204  15.608  17.104  0.0088  0.2811 -0.0468
37166W        W80083  29.129  16.238  18.589 -0.1719 -0.2161 -0.1285
37167W        W80084  30.990  18.101  20.265 -0.1349 -0.1142  0.1432
37168W        W80085  31.854  16.642  18.781 -0.1214 -0.1884 -0.6372
37169W        W80086  31.760  17.043  20.820 -0.0561 -0.1245  0.0163
37170W        W80087  30.362  17.737  17.520  0.1875  0.0063 -0.0400
37171W        W80088  29.534  17.251  17.185  0.0338  0.0499 -0.3710
37172W        W80089  29.321  13.983  17.544 -0.2159  0.3823 -0.0017
37173W        W80090  26.561  16.156  18.752 -0.3498  0.0763  0.0729
37174W        W80091  27.196  15.929  18.437  0.0361  0.0681 -0.0431
37175W        W80092  29.265  16.528  18.921  0.1921 -0.2068 -0.0460
37176W        W80093  31.856  15.394  19.295 -0.3116  0.2038  0.1824
37177W        W80094  31.737  17.601  17.121 -0.0576 -0.1711 -0.2164
37178W        W80095  31.651  18.142  19.707 -0.3706  0.0053 -0.0466
37179W        W80096  30.737  14.039  16.973  0.0665  0.0265  0.3214
37180W        W80097  30.461  14.835  21.194 -0.1143 -0.2046  0.0104
37181W        W80098  28.756  17.702  16.816  0.0134  0.0557 -0.2879
37182W        W80099  31.083  13.375  20.315  0.3559 -0.2186 -0.0753
37183W        W80100  30.363  17.043  20.881  0.1856  0.2164  0.0094
37184W        W80101  29.656  15.894  20.152  0.1182  0.3304  0.1716
37185W        W80102  28.786  17.904  18.887  0.1809 -0.1417  0.3137
37186W        W80103  33.304  12.987  20.559  0.1900  0.3994 -0.1639
37187W        W80104  30.888  14.253  20.804 -0.1132  0.0008 -0.2035
37188W        W80105  27.608  17.048  20.554 -0.4377  0.0230 -0.2012
37189W        W80106  31.497  16.765  20.524  0.0024  0.2714  0.2260
37190W        W80107  32.082  17.717  18.988 -0.5107 -0.2350  0.2495
37191W        W80108  27.455  14.557  18.539 -0.0516  0.0359 -0.0426
37192W        W80109  31.256  16.361  20.052 -0.1984  0.4026 -0.0262
37193W        W80110  32.539  16.774  18.284  0.0002 -0.1675  0.0919
37194W        W80111  30.789  17.842  17.319 -0.1155  0.0151 -0.1477
37195W        W80112  27.269  14.391  20.865  0.2340  0.2271  0.3974
37196W        W80113  32.386  15.534  19.322 -0.1344 -0.0646 -0.1166
37197W        W80114  31.928  15.907  17.404 -0.0369  0.0115 -0.1315
37198W        W80115  29.746  16.210  18.043  0.0418 -0.1187 -0.2367
37199W        W80116  31.415  18.977  17.052 -0.1797 -0.0951  0.1739
37200W        W80117  31.158  17.653  20.453 -0.0166 -0.1782  0.1317
37201W        W80118  29.195  16.815  19.485 -0.0004 -0.0715 -0.0755
37202W        W80119  29.340  16.906  17.611  0.0607 -0.1830 -0.0893
37203W        W80120  29.913  18.217  17.439  0.1977 -0.0356  0.1400
37204W        W80121  29.291  16.591  19.949 -0.0913  0.4194  0.3375
37205W        W80122  31.287  19.282  19.474 -0.3374  0.0890  0.2151
37206W        W80123  29.927  15.038  19.721  0.0226  0.0423  0.0236
37207W        W80124  30.452  17.579  18.998 -0.0685 -0.0795  0.1184
37208W        W80125  29.184  18.626  17.510  0.0326  0.0081  0.1050
37209W        W80126  31.212  16.544  17.010  0.0249 -0.0301  0.1163
37210W        W80127  29.887  16.739  17.913 -0.1425 -0.1240  0.3815
37211W        W80128  33.620  17.003  20.278  0.1459 -0.0912  0.0069
37212W        W80129  29.857  13.740  17.470 -0.2467  0.0395  0.0078
37213W        W80130  30.568  18.916  17.428 -0.5557  0.0127 -0.0375
37214W        W80131  33.466  16.350  18.645  0.0976 -0.0705 -0.0145
37215W        W80132  29.608  15.361  20.247 -0.0698 -0.0237  0.0897
37216W        W80133  30.583  15.983  19.009  0.2460  0.2217  0.1260
37217W        W80134  28.702  15.591  17.630  0.0134  0.2060  0.0239
37218W        W80135  30.554  16.711  20.229  0.1623  0.2200 -0.2941
37219W        W80136  32.164  13.878  18.915 -0.0438 -0.1673 -0.0675
37220W        W80137  30.316  16.338  19.856  0.3641  0.2360 -0.0736
37221W        W80138  33.204  18.362  17.450 -0.0721 -0.0686 -0.0547
37222W        W80139  30.010  15.356  18.582 -0.2194  0.0659 -0.2787
37223W        W80140  28.341  15.723  19.404 -0.0347 -0.0844 -0.0550
37224W        W80141  33.252  12.768  19.766  0.2662  0.0965 -0.2257
37225W        W80142  30.585  15.516  17.406 -0.0852 -0.3108  0.0246
37226W        W80143  29.946  14.606  17.774  0.2081  0.0369  0.0678
37227W        W80144  29.978  17.544  18.691 -0.0420  0.2416 -0.3077
37228W        W80145  30.886  19.046  18.220  0.1925  0.3231  0.0106
37229W        W80146  30.211  16.296  20.317  0.0482  0.1552  0.5468
37230W        W80147  28.788  14.824  16.420  0.0676  0.1639 -0.0013
37231W        W80148  30.860  18.543  17.505  0.1185 -0.1849  0.0673
37232W        W80149  29.533  15.395  20.843 -0.0920 -0.1967 -0.0425
37233W        W80150  33.600  13.054  21.412  0.0705 -0.0131  0.0934
37234W        W80151  28.474  14.037  16.689 -0.0019 -0.0325 -0.0539
37235W        W80152  31.365  13.940  19.385 -0.1326 -0.0768  0.0054
37236W        W80153  30.416  16.803  19.645 -0.3042 -0.0535 -0.0493
37237W        W80154  27.859  13.888  20.343 -0.0953 -0.2136 -0.0734
37238W        W80155  30.782  16.479  18.294 -0.0342 -0.1092 -0.1523
37239W        W80156  31.974  15.927  19.291  0.4256  0.3327 -0.1376
37240W        W80157  30.346  16.864  19.078  0.1602  0.2267 -0.2607
37241W        W80158  29.576  18.249  20.014  0.0766 -0.1933 -0.0129
37242W        W80159  27.542  15.942  18.838 -0.3529  0.1360 -0.0113
37243W        W80160  30.200  15.198  17.468 -0.0924 -0.0609 -0.2247
37244W        W80161  31.410  16.605  17.514  0.2229  0.0997  0.2079
37245W        W80162  30.996  14.790  19.641  0.1405  0.3050 -0.0856
37246W        W80163  31.384  17.771  19.949  0.1927 -0.0576  0.1507
37247W        W80164  27.897  15.514  18.280 -0.2909  0.0765  0.0706
37248W        W80165  32.113  16.241  16.914  0.0537 -0.1110  0.1841
37249W        W80166  31.483  17.048  17.725 -0.1043  0.0444  0.1263
37250W        W80167  29.073  16.548  17.323  0.1546 -0.1692  0.6270
37251W        W80168  29.989  16.046  18.547  0.0857  0.3199 -0.2192
37252W        W80169  30.277  17.983  19.226  0.1545 -0.1196  0.0582
37253W        W80170  28.294  15.924  18.899 -0.1200 -0.2713 -0.1605
37254W        W80171  30.643  17.636  18.553  0.1882 -0.0618 -0.0253
37255W        W80172  30.736  17.168  18.933 -0.1133  0.2320  0.0597
37256W        W80173  30.055  15.126  17.942  0.0556  0.1496 -0.0918
37257W        W80174  30.238  13.872  20.380  0.1827  0.0513 -0.1606
37258W        W80175  28.576  17.654  18.407 -0.0637  0.1558  0.5435
37259W        W80176  31.859  14.536  20.684 -0.1997 -0.1208  0.4506
37260W        W80177  32.789  13.014  19.783 -0.1509 -0.0152  0.0649
37261W        W80178  29.477  18.327  16.608 -0.0268  0.1522 -0.0731
37262W        W80179  32.717  13.722  19.205  0.1294  0.4600  0.0953
37263W        W80180  30.866  15.095  20.471  0.1112  0.0653  0.2413
37264W        W80181  30.377  17.282  21.293  0.1698 -0.4022  0.1756
37265W        W80182  29.611  15.907  17.458 -0.0313  0.0190  0.1148
37266W        W80183  30.330  17.171  20.386  0.4191 -0.0381 -0.2099
37267W        W80184  27.626  17.640  17.506  0.2360  0.2279  0.0839
37268W        W80185  32.010  17.151  19.659  0.1541  0.0323  0.1211
37269W        W80186  30.862  15.124  18.432 -0.0117 -0.2115 -0.2253
37270W        W80187  28.542  12.948  20.368 -0.1875  0.1147 -0.0668
37271W        W80188  32.336  18.013  18.098 -0.4287 -0.1244  0.1359
37272W        W80189  31.750  15.001  18.934 -0.1955 -0.2041  0.0421
37273W        W80190  31.763  14.740  21.130  0.0315 -0.3432  0.0981
37274W        W80191  31.788  14.822  17.887  0.3301 -0.0090  0.0124
37275W        W80192  30.519  16.461  20.682  0.1542 -0.1709  0.0099
37276W        W80193  27.854  16.159  16.655  0.2076 -0.0639  0.0994
37277W        W80194  27.783  16.459  18.339 -0.1751 -0.0746 -0.1166
37278W        W80195  30.114  15.816  19.069  0.3182  0.1185  0.1550
37279W        W80196  31.160  15.301  20.853  0.0246  0.0378 -0.1828
37280W        W80197  27.493  14.260  19.954  0.1245 -0.2086 -0.1865
37281W        W80198  29.505  15.909  18.432 -0.1989 -0.2043  0.0055
37282W        W80199  27.204  14.155  18.959 -0.1164 -0.0530  0.0070
37283W        W80200  31.099  19.324  16.850 -0.2613 -0.0419  0.3379
37284W        W80201  28.196  15.543  17.397 -0.1428  0.3867  0.2850
37285W        W80202  26.361  15.949  17.512 -0.0907 -0.1662  0.2427
37286W        W80203  32.132  16.387  18.363 -0.0133 -0.0638 -0.0564
37287W        W80204  29.256  18.771  17.058  0.0089  0.2066  0.2506
37288W        W80205  29.172  14.332  19.319  0.1679 -0.1949  0.1235
37289W        W80206  31.268  17.736  20.963 -0.0115 -0.0186  0.0196
37290W        W80207  28.040  17.465  18.044 -0.0836 -0.1120  0.0709
37291W        W80208  31.195  16.421  20.714  0.1060  0.1398  0.1349
37292W        W80209  32.273  14.434  19.773  0.0818  0.1412 -0.0498
37293W        W80210  28.839  15.289  17.218 -0.3934 -0.1475 -0.3175
37294W        W80211  31.006  13.705  19.066  0.0606  0.0950 -0.1099
37295W        W80212  30.020  18.021  17.908 -0.0075  0.1690 -0.1056
37296W        W80213  31.144  18.869  16.582  0.0055  0.0415 -0.2654
37297W        W80214  28.061  18.307  18.097 -0.0755  0.1802  0.3710
37298W        W80215  31.029  18.001  17.813 -0.5023  0.1452  0.1249
37299W        W80216  29.795  13.177  21.189  0.1801 -0.2376 -0.1005
37300W        W80217  30.825  16.923  18.503 -0.2280  0.3497  0.3682
37301W        W80218  28.704  16.887  18.730  0.0740 -0.0436  0.1948
37302W        W80219  30.890  16.261  17.300  0.1206  0.3600 -0.3811
37303W        W80220  33.457  14.803  21.024  0.5265  0.0791 -0.0036
37304W        W80221  31.245  14.491  18.287 -0.1039  0.1575 -0.0222
37305W        W80222  28.651  15.197  19.331 -0.2004 -0.2242 -0.3877
37306W        W80223  31.619  17.273  21.918 -0.1459 -0.1121  0.0375
37307W        W80224  31.615  15.798  18.951 -0.1935 -0.1037 -0.0623
37308W        W80225  29.211  15.604  17.451 -0.0941  0.0282 -0.1060
37309W        W80226  29.799  14.218  17.466  0.2359 -0.0275 -0.0620
37310W        W80227  30.391  18.946  17.891  0.1255 -0.1803 -0.0581
37311W        W80228  31.025  15.256  19.488 -0.2683 -0.0599 -0.0248
37312W        W80229  30.952  15.174  20.005  0.1748 -0.1353  0.3439
37313W        W80230  26.829  15.517  18.425  0.0042 -0.0129  0.0572
37314W        W80231  30.440  15.151  19.619  0.2395  0.1788  0.1907
37315W        W80232  31.075  17.326  18.592 -0.0370 -0.2323  0.1728
37316W        W80233  30.045  16.476  18.320  0.0008  0.0501 -0.1443
37317W        W80234  33.048  16.262  16.874  0.1531 -0.1082 -0.2515
37318W        W80235  30.795  17.971  19.760 -0.0451  0.1778 -0.2065
37319W        W80236  31.236  16.941  18.897  0.2513 -0.1323 -0.2783
37320W        W80237  30.881  16.773  23.072  0.2351  0.0416  0.0999
37321W        W80238  31.741  15.516  18.263  0.1829 -0.1317  0.0810
37322W        W80239  27.137  14.495  19.422 -0.3632 -0.3176  0.1614
37323W        W80240  30.396  14.942  18.628  0.1998 -0.0081 -0.1144
37324W        W80241  30.242  16.098  18.021  0.2414  0.2779 -0.1721
37325W        W80242  30.888  16.090  18.612  0.0410 -0.0282  0.0525
37326W        W80243  28.594  14.813  18.933 -0.3673  0.3582  0.2099
37327W        W80244  29.700  14.181  19.576 -0.3359 -0.2288 -0.0549
37328W        W80245  29.610  17.831  21.504  0.1569 -0.2821 -0.3254
37329W        W80246  29.953  15.704  20.535  0.3351 -0.0372 -0.1313
37330W        W80247  31.895  17.831  22.659 -0.0912 -0.2944 -0.0555
37331W        W80248  29.907  17.325  21.475  0.2693 -0.1887  0.2151
37332W        W80249  30.592  14.734  21.768  0.0158  0.0509 -0.0289
37333W        W80250  34.408  17.800  21.617  0.2911 -0.1272  0.3293
37334W        W80251  30.369  13.687  22.780  0.0609 -0.1478  0.2905
37335W        W80252  32.604  16.486  23.088 -0.1736 -0.2043  0.1429
37336W        W80253  29.991  14.879  24.540 -0.1740 -0.1422  0.2440
37337W        W80254  30.697  17.125  21.776 -0.0983 -0.0986  0.0239
37338W        W80255  32.814  19.644  22.783  0.0739  0.0950 -0.1114
37339W        W80256  31.935  18.754  22.187 -0.2707  0.0198 -0.1887
37340W        W80257  30.166  15.859  21.300  0.2091 -0.0656 -0.2250
37341W        W80258  29.428  17.876  23.499 -0.1563 -0.3271  0.1636
37342W        W80259  31.753  13.978  21.551  0.1669 -0.2090  0.0003
37343W        W80260  28.766  15.503  24.863  0.1342  0.0569 -0.0869
37344W        W80261  33.275  19.660  21.849  0.1447 -0.1501  0.0072
37345W        W80262  28.439  15.841  21.702  0.1671  0.1282  0.0883
37346W        W80263  28.822  16.961  22.659  0.1063 -0.1578 -0.2154
37347W        W80264  30.325  16.347  22.932  0.1763 -0.0292  0.1350
37348W        W80265  28.881  16.266  23.664 -0.0723 -0.1249 -0.0761
37349W        W80266  30.506  14.008  23.470  0.1364 -0.0539  0.0748
37350W        W80267  31.178  16.826  26.252 -0.0883  0.4537  0.0297
37351W        W80268  30.007  16.514  22.618 -0.0996 -0.3416 -0.0083
37352W        W80269  30.072  15.003  21.562  0.1124 -0.3494 -0.0726
37353W        W80270  30.497  15.883  22.762  0.0338  0.2713  0.0585
37354W        W80271  29.959  16.307  24.872 -0.3363 -0.0432  0.2166
37355W        W80272  32.738  14.930  22.185 -0.2221 -0.2129  0.1438
37356W        W80273  30.890  16.373  22.394  0.1081  0.2208 -0.2999
37357W        W80274  30.025  16.433  21.602 -0.1052  0.1592 -0.3389
37358W        W80275  29.500  19.553  21.927 -0.1528 -0.0115  0.6546
37359W        W80276  32.955  18.655  22.193 -0.1379  0.0273  0.0255
37360W        W80277  29.186  19.482  22.872 -0.0072 -0.2727 -0.0225
37361W        W80278  30.528  18.686  22.841  0.4665 -0.0239  0.0810
37362W        W80279  30.046  17.291  23.262 -0.3348 -0.0053 -0.0604
37363W        W80280  32.340  17.001  21.470  0.1120  0.1330  0.0160
37364W        W80281  33.060  18.223  24.024  0.2392  0.2252 -0.1942
37365W        W80282  29.490  19.015  22.735  0.0365  0.1090  0.0532
37366W        W80283  32.220  18.336  21.551  0.1280 -0.3543  0.1092
37367W        W80284  31.544  19.611  23.811  0.5947 -0.0128  0.0088
37368W        W80285  29.796  16.342  23.063 -0.2304 -0.0408  0.3881
37369W        W80286  31.528  14.151  22.586 -0.0448  0.0531 -0.2373
37370W        W80287  30.801  16.103  20.623  0.0980  0.1678  0.0770
37371W        W80288  32.061  16.370  21.752  0.0523  0.1960  0.2703
37372W        W80289  30.589  17.530  23.218 -0.0701 -0.3678 -0.0370
37373W        W80290  31.462  19.006  24.801 -0.1901 -0.2802  0.2092
37374W        W80291  27.183  15.812  22.454 -0.1858  0.1182  0.2427
37375W        W80292  32.550  15.290  24.630 -0.0703  0.1726  0.2777
37376W        W80293  31.214  16.974  21.536  0.2182 -0.2367 -0.0275
37377W        W80294  30.866  15.090  21.374  0.1453  0.1301 -0.2991
37378W        W80295  29.718  16.795  21.711  0.1077 -0.1246 -0.0475
37379W        W80296  32.579  15.611  21.523 -0.2491  0.1514  0.1307
37380W        W80297  29.736  14.825  23.263 -0.0670 -0.2385 -0.2416
37381W        W80298  30.345  17.397  22.813  0.0482  0.4454 -0.0871
37382W        W80299  30.623  14.095  22.975  0.2598  0.0693  0.0995
37383W        W80300  32.483  17.074  22.319  0.4065 -0.2096  0.5745
37384W        W80301  29.765  15.518  22.426 -0.0174  0.1017 -0.0274
37385W        W80302  32.145  17.453  21.489 -0.0350  0.2692 -0.0754
37386W        W80303  28.832  16.486  21.800 -0.1882 -0.4045 -0.2507
37387W        W80304  30.305  16.358  21.207 -0.1681  0.1112  0.2772
37388W        W80305  30.919  17.569  20.028  0.2031 -0.1915 -0.2393
37389W        W80306  31.787  18.450  20.086  0.2661 -0.3726 -0.0045
37390W        W80307  29.285  17.178  22.642 -0.2299 -0.1606  0.0237
37391W        W80308  30.487  15.036  24.369  0.3227  0.0923 -0.0229
37392W        W80309  28.373  16.976  24.639 -0.1943 -0.1314  0.0568
37393W        W80310  30.308  16.577  23.813  0.1399 -0.2290  0.0747
37394W        W80311  30.865  14.482  21.308  0.3056 -0.3423 -0.0105
37395W        W80312  33.743  18.299  23.320  0.0266  0.0978  0.3772
37396W        W80313  30.187  18.783  23.927  0.1449  0.0568  0.1005
37397W        W80314  31.705  14.515  21.684 -0.2135  0.1206 -0.3498
37398W        W80315  30.532  17.456  24.178  0.1208  0.0557 -0.3428
37399W        W80316  31.774  19.290  22.955  0.1099 -0.2463  0.0443
37400W        W80317  31.576  19.422  17.993  0.3152  0.2030 -0.1134
37401W        W80318  32.731  16.440  22.179 -0.3171  0.2343  0.1600
37402W        W80319  32.745  11.832  23.634 -0.1413 -0.1955 -0.0444
37403W        W80320  28.295  17.197  19.497  0.2474  0.1427 -0.1164
37404W        W80321  31.281  14.143  20.470 -0.1824 -0.2719 -0.0959
37405W        W80322  30.940  16.969  22.468 -0.2076 -0.1739  0.0773
37406W        W80323  32.397  15.647  21.067  0.2023 -0.1613 -0.1054
37407W        W80324  28.905  18.142  21.138 -0.1872  0.1354 -0.3689
37408W        W80325  31.014  13.943  22.681 -0.0723  0.0806  0.2684
37409W        W80326  32.348  15.708  22.772  0.2666 -0.2321 -0.0019
37410W        W80327  29.607  17.513  20.038 -0.1619  0.4497 -0.1012
37411W        W80328  27.168  16.569  23.484 -0.0706 -0.1294 -0.3529
37412W        W80329  29.217  15.609  19.977 -0.1142 -0.1085 -0.2140
37413W        W80330  29.673  15.258  22.906 -0.3310 -0.1227  0.5386
37414W        W80331  29.748  16.915  22.395 -0.2101 -0.3046 -0.2354
37415W        W80332  33.106  15.212  20.383 -0.1251  0.0294  0.0099
37416W        W80333  30.141  16.976  22.813  0.4094 -0.0101  0.0591
37417W        W80334  31.352  13.739  22.332 -0.3416 -0.1818  0.1497
37418W        W80335  30.249  15.883  21.809  0.1235 -0.0576 -0.2622
37419W        W80336  32.371  18.836  21.181  0.1887  0.3013  0.0263
37420W        W80337  33.910  14.636  20.672 -0.0132  0.1775 -0.0714
37421W        W80338  30.685  19.258  18.816 -0.1010 -0.1374 -0.0149
37422W        W80339  28.103  15.776  22.247 -0.0230 -0.0781  0.0965
37423W        W80340  30.450  14.808  20.495  0.0935  0.0995 -0.3287
37424W        W80341  30.166  16.492  25.309  0.4004  0.0177  0.0526
37425W        W80342  29.125  13.457  23.196 -0.0076  0.0497  0.0878
37426W        W80343  33.106  16.663  24.264  0.0039 -0.0056 -0.0296
37427W        W80344  28.061  12.627  22.068  0.0914  0.4606 -0.1698
37428W        W80345  30.284  16.913  21.758  0.4049 -0.0838  0.0928
37429W        W80346  31.092  17.208  22.039  0.0327 -0.1006 -0.3831
37430W        W80347  28.100  18.172  21.870 -0.3018  0.1051 -0.0820
37431W        W80348  32.433  15.930  23.217 -0.1975 -0.0686  0.0353
37432W        W80349  32.025  16.612  19.813 -0.0026  0.2012 -0.3520
37433W        W80350  31.298  18.064  23.778 -0.0260 -0.2926 -0.2818
37434W        W80351  32.271  19.549  20.318 -0.1061 -0.3533  0.1369
37435W        W80352  30.706  13.676  22.362 -0.1374  0.3291  0.2112
37436W        W80353  29.986  14.750  20.733  0.3381 -0.0151  0.0760
37437W        W80354  28.538  19.237  21.165  0.0562 -0.3540 -0.4297
37438W        W80355  30.623  18.262  22.602  0.1015  0.1409 -0.0545
37439W        W80356  31.565  15.787  21.491 -0.0262 -0.0769  0.1849
37440W        W80357  34.325  18.505  22.117 -0.0655  0.2912  0.0244
37441W        W80358  29.502  13.840  21.569 -0.2656  0.0417  0.0076
37442W        W80359  29.159  17.461  23.768 -0.2964  0.0115  0.0450
37443W        W80360  30.991  14.821  22.937 -0.1630  0.5539 -0.0453
37444W        W80361  33.550  17.965  22.954 -0.2008 -0.0184  0.0795
37445W        W80362  32.328  16.767  22.722  0.0991  0.0181 -0.1311
37446W        W80363  30.516  14.011  19.228 -0.0302 -0.0653 -0.3078
37447W        W80364  30.773  18.789  21.762  0.2172  0.0637 -0.1634
37448W        W80365  27.380  17.190  21.871  0.1578 -0.3328 -0.1374
37449W        W80366  27.228  17.001  23.152 -0.0735 -0.1324  0.2862
37450W        W80367  29.462  16.124  25.003 -0.1881  0.0148 -0.2016
37451W        W80368  31.035  15.543  22.269  0.0164 -0.0285  0.1875
37452W        W80369  29.295  15.756  24.073  0.0478  0.1372 -0.0529
37453W        W80370  32.350  15.222  23.639 -0.0483 -0.0607 -0.3972
37454W        W80371  29.256  14.021  19.824 -0.2584 -0.0221 -0.0216
37455W        W80372  30.859  17.088  24.176 -0.1595  0.1502 -0.1358
37456W        W80373  30.825  13.808  20.384  0.4483 -0.3375  0.2494
37457W        W80374  33.852  14.728  19.749  0.1475  0.3787  0.0273
37458W        W80375  32.245  17.511  22.522 -0.0306 -0.1521  0.1660
37459W        W80376  30.941  13.763  21.854  0.1005 -0.1377  0.1528
37460W        W80377  31.302  16.639  18.483  0.2186 -0.2552  0.0627
37461W        W80378  30.374  14.350  20.838 -0.0574 -0.2813 -0.0604
37462W        W80379  30.479  18.597  24.855  0.0985 -0.0611 -0.0747
37463W        W80380  32.130  16.414  22.267 -0.1419  0.1421 -0.2512
37464W        W80381  31.006  15.569  21.507 -0.0980  0.1722 -0.0220
37465W        W80382  30.045  14.408  20.372 -0.2379  0.0906  0.1206
37466W        W80383  32.451  17.840  20.286 -0.4108  0.1607 -0.1632
37467W        W80384  30.787  17.208  22.862  0.0148 -0.0351 -0.0605
37468W        W80385  32.686  14.910  23.407 -0.1587 -0.0921  0.1627
37469W        W80386  32.155  17.245  22.012  0.0572  0.1116  0.3370
37470W        W80387  31.575  12.783  22.422 -0.1806 -0.0647 -0.1748
37471W        W80388  29.574  15.274  21.325  0.0278  0.2674  0.0926
37472W        W80389  30.515  15.361  22.309  0.3669 -0.0872 -0.0928
37473W        W80390  28.636  19.878  19.075 -0.1590  0.1739  0.2350
37474W        W80391  30.231  13.377  22.301 -0.1370  0.0090 -0.0032
37475W        W80392  30.364  13.097  21.487 -0.0100 -0.0984 -0.0746
37476W        W80393  29.365  14.799  23.720 -0.0396 -0.2069  0.0121
37477W        W80394  31.608  18.511  24.626 -0.2017  0.0775  0.0464
37478W        W80395  32.149  15.768  20.149 -0.1140  0.1799 -0.0677
37479W        W80396  30.653  16.028  21.451  0.4183  0.0437  0.2613
37480W        W80397  30.912  16.823  20.781  0.0691 -0.1518 -0.2415
37481W        W80398  32.826  17.900  23.186  0.0050 -0.0333 -0.1075
37482W        W80399  29.776  17.882  24.870  0.1360  0.5239  0.0349
37483W        W80400  29.700  15.895  21.962 -0.1331 -0.0117 -0.0117
37484W        W80401  32.479  16.269  23.603  0.0662 -0.0787  0.0553
37485W        W80402  29.353  18.219  24.233  0.0617  0.1875 -0.0443
37486W        W80403  32.172  14.376  24.007 -0.1256 -0.0373 -0.0091
37487W        W80404  32.952  16.219  20.310 -0.0746  0.2909  0.1409
37488W        W80405  30.970  17.420  21.515  0.1828 -0.3446  0.4337
37489W        W80406  29.076  18.021  21.984  0.0411 -0.0807  0.0177
37490W        W80407  30.821  14.324  23.839  0.2814 -0.1996 -0.0983
37491W        W80408  30.602  17.863  21.509 -0.0377  0.0838  0.0877
37492W        W80409  27.809  17.307  19.522 -0.3247  0.2202  0.0656
37493W        W80410  33.947  15.394  23.558 -0.0355 -0.2458 -0.2821
37494W        W80411  31.279  14.740  21.603  0.1154 -0.1997  0.0093
37495W        W80412  33.916  16.458  23.254 -0.0527 -0.0231 -0.1244
37496W        W80413  29.735  17.698  23.198 -0.2647  0.0746 -0.0679
37497W        W80414  28.358  15.414  22.015  0.4059  0.1373 -0.2406
37498W        W80415  29.681  13.266  22.214  0.1861 -0.5374 -0.0112
37499W        W80416  30.172  13.512  20.698 -0.1663 -0.2417  0.1500
37500W        W80417  31.106  17.918  21.428  0.4449 -0.2084 -0.0183
37501W        W80418  31.335  16.093  22.264  0.1571  0.1328  0.2755
37502W        W80419  29.730  14.834  21.243 -0.0449 -0.1545 -0.0800
37503W        W80420  28.739  17.556  22.239 -0.2446 -0.0481 -0.0142
37504W        W80421  30.616  16.005  23.298 -0.0500  0.0693 -0.0193
37505W        W80422  31.919  15.570  22.658 -0.0973 -0.3684  0.2632
37506W        W80423  29.894  17.296  24.332  0.3290 -0.1892  0.2007
37507W        W80424  31.744  16.441  23.588  0.0103  0.3052  0.1952
37508W        W80425  28.422  15.944  20.725 -0.3230  0.2085 -0.2636
37509W        W80426  33.218  15.906  24.068  0.0298 -0.0339  0.5948
37510W        W80427  31.281  12.424  22.707  0.0541 -0.1268 -0.3936
37511W        W80428  26.711  16.587  22.041 -0.3589 -0.2150 -0.0270
37512W        W80429  31.527  16.070  23.216 -0.0291  0.0091 -0.0059
37513W        W80430  30.555  16.797  21.300 -0.0720  0.1528 -0.0192
37514W        W80431  27.900  18.089  23.507 -0.0354  0.1732 -0.1048
37515W        W80432  31.353  15.165  22.303 -0.1495 -0.3296 -0.2950
37516W        W80433  29.140  16.568  24.701  0.1642  0.0157 -0.4520
37517W        W80434  31.169  14.546  23.566  0.0078 -0.0646 -0.1101
37518W        W80435  30.337  13.851  22.027 -0.1148 -0.1031 -0.1158
37519W        W80436  32.010  16.060  23.000  0.2458  0.0529 -0.2180
37520W        W80437  30.900  17.744  21.889 -0.1370  0.0693 -0.1351
37521W        W80438  29.546  14.344  23.319  0.0555  0.1781 -0.2559
37522W        W80439  30.270  18.825  26.236 -0.2270 -0.2789 -0.2512
37523W        W80440  29.823  12.998  21.753 -0.0096  0.1751 -0.0123
37524W        W80441  31.245  17.869  19.463  0.1948  0.0167  0.2072
37525W        W80442  30.043  16.752  23.285 -0.2428  0.0430  0.0843
37526W        W80443  28.847  17.502  22.775 -0.0640  0.0209 -0.2050
37527W        W80444  28.177  17.118  23.419 -0.0379  0.0131 -0.0886
37528W        W80445  29.405  16.577  24.188  0.1641  0.0027 -0.1895
37529W        W80446  31.128  15.799  23.156  0.3609 -0.3655  0.0683
37530W        W80447  29.704  16.978  23.561 -0.1170 -0.1143 -0.0359
37531W        W80448  27.195  17.293  20.549 -0.1343  0.0988  0.0467
37532W        W80449  29.607  16.458  22.275  0.2960 -0.0859 -0.0715
37533W        W80450   0.234  16.235  21.003  0.1233  0.1557  0.1053
37534W        W80451  29.346  17.635  22.896 -0.2717  0.1370  0.0779
37535W        W80452  30.176  15.706  22.264 -0.2637  0.1291 -0.0060
37536W        W80453  31.124  14.335  23.040 -0.1487 -0.0471 -0.1117
37537W        W80454  31.055  15.673  19.883 -0.0093 -0.0438 -0.0032
37538W        W80455  31.003  16.000  23.693 -0.0687 -0.0748  0.4670
37539W        W80456  30.136  14.482  22.481 -0.1192 -0.2483 -0.0644
37540W        W80457  31.795  19.067  19.713  0.2615  0.0398  0.2834
37541W        W80458  30.823  15.095  21.997  0.0836  0.3260  0.2352
37542W        W80459  33.295  17.308  24.205  0.2452  0.3499 -0.0599
37543W        W80460  28.931  16.012  22.583  0.1374 -0.0632  0.2199
37544W        W80461  32.607  14.634  21.651  0.3426  0.0488  0.1845
37545W        W80462  29.269  13.469  23.716 -0.2386  0.1350 -0.2228
37546W        W80463  29.735  17.339  22.835  0.2360  0.2139 -0.0661
37547W        W80464  32.766  15.843  23.672 -0.2070 -0.3643 -0.1869
37548W        W80465  28.765  16.574  20.269 -0.4431 -0.1568 -0.2213
37549W        W80466  31.195  14.227  21.784  0.1589 -0.1586 -0.1516
37550W        W80467  28.508  16.276  22.207 -0.0352  0.2635  0.0604
37551W        W80468  31.218  15.831  20.802  0.0434 -0.0069  0.0477
37552W        W80469  31.069  15.821  19.060  0.1254  0.1792 -0.3017
37553W        W80470  29.838  16.040  22.569  0.2433 -0.0619  0.2154
37554W        W80471  33.793  15.360  24.017  0.3453 -0.1209  0.3539
37555W        W80472  33.364  18.433  22.402 -0.0770  0.1754 -0.1631
37556W        W80473  31.131  17.416  22.540  0.1772 -0.1465 -0.0617
37557W        W80474  29.059  16.521  22.972  0.3681  0.3180  0.0407
37558W        W80475  32.074  15.194  22.208 -0.1241 -0.0296  0.0339
37559W        W80476  31.881  16.987  22.771  0.2691  0.2717 -0.3454
37560W        W80477  29.107  14.660  24.138 -0.0955  0.0640 -0.0288
37561W        W80478  30.918  18.854  23.955  0.0293 -0.1909 -0.0378
37562W        W80479  32.396  16.304  20.298  0.0557 -0.0248 -0.0185
37563W        W80480  31.730  17.118  24.948 -0.2273  0.0099  0.0413
37564W        W80481  30.800  15.581  20.540 -0.1614  0.1577 -0.1340
37565W        W80482  31.783  15.418  21.730 -0.0509 -0.1250  0.0883
37566W        W80483  30.309  13.009  22.010  0.0460  0.6011 -0.0207
37567W        W80484  33.830  17.539  22.599  0.2009  0.0901 -0.0104
37568W        W80485  27.666  15.800  19.996  0.0197  0.0061  0.0855
37569W        W80486  29.549  14.181  22.182  0.1123 -0.3844 -0.4021
37570W        W80487  31.558  16.174  21.096 -0.2391 -0.0492  0.0245
37571W        W80488  30.130  16.539  24.368  0.3138  0.1031  0.1556
37572W        W80489  31.510  15.263  21.293 -0.1249 -0.0080  0.1503
37573W        W80490  28.769  14.511  22.256 -0.0028  0.2571 -0.0438
37574W        W80491  32.345  16.989  23.228 -0.0514  0.1273 -0.1049
37575W        W80492  29.649  14.334  21.580  0.1070  0.0187 -0.1391
37576W        W80493  31.147  19.295  21.563  0.3017  0.3315  0.0599
37577W        W80494  29.388  16.163  23.263 -0.0399 -0.3344 -0.2361
37578W        W80495  32.021  17.615  23.140 -0.1851 -0.4068  0.0047
37579W        W80496  31.924  12.365  21.612  0.1173  0.2537 -0.0252
37580W        W80497  33.049  16.418  22.632 -0.2890  0.1254  0.1907
37581W        W80498  30.506  16.717  22.672 -0.1049  0.0848  0.0225
37582W        W80499  30.999  15.899  22.579 -0.3950 -0.0654  0.0234
37583W        W80500  28.904  17.989  23.613 -0.0347 -0.2109 -0.1810
37584W        W80501  28.298  18.368  22.238  0.1549 -0.1494  0.3923
37585W        W80502  31.497  17.568  23.936  0.1456 -0.0376  0.1815
37586W        W80503  32.173  13.797  21.393 -0.3844 -0.0918  0.0534
37587W        W80504  31.414  16.291  21.752 -0.3961  0.2189  0.0888
37588W        W80505  31.142  17.584  23.043 -0.1766  0.0374  0.3804
37589W        W80506  33.039  16.077  22.085 -0.2764  0.0543 -0.0494
37590W        W80507  32.972  18.456  23.315 -0.2030 -0.0460  0.1584
37591W        W80508  28.404  17.397  21.966  0.3003  0.0768 -0.0056
37592W        W80509  31.394  17.276  21.194 -0.2166  0.1400 -0.2010
37593W        W80510  32.812  18.243  20.051 -0.1658 -0.1132 -0.1259
37594W        W80511  28.269  15.441  21.539 -0.4459 -0.1435  0.0353
37595W        W80512  28.729  15.790  22.072  0.0009 -0.0215 -0.3603
37596W        W80513  31.793  15.945  21.927  0.1648 -0.1086  0.1581
37597W        W80514  31.113  18.817  21.347 -0.1648 -0.0724  0.2731
37598W        W80515  28.735  16.472  20.737 -0.3447 -0.4624 -0.1189
37599W        W80516  30.310  15.330  20.410  0.0715 -0.0130  0.2653
37600W        W80517  30.165  18.521  25.819  0.3596  0.2202  0.1620
37601W        W80518  28.846  16.513  22.446  0.4340 -0.1868  0.1895
37602W        W80519  29.406  21.716  23.180 -0.2665  0.2165  0.1836
37603W        W80520  31.471  17.551  18.925 -0.0415 -0.0191 -0.3421
37604W        W80521  31.797  18.847  23.212  0.1518  0.2623 -0.0786
37605W        W80522  31.417  19.406  20.551 -0.0378 -0.0929 -0.0723
37606W        W80523  29.032  13.063  21.108  0.2392  0.1827  0.3036
37607W        W80524  30.251  17.951  23.109  0.0431 -0.3339 -0.1219
37608W        W80525  30.035  17.569  20.494  0.0566  0.0891 -0.0563
37609W        W80526  29.063  17.729  21.441  0.1200 -0.0910 -0.1069
37610W        W80527  28.816  18.318  22.342 -0.1856  0.3065  0.1022
37611W        W80528  31.806  18.275  23.892 -0.2366  0.0169 -0.2258
37612W        W80529  31.229  13.414  19.566  0.2919  0.1299 -0.2646
37613W        W80530  32.060  15.528  23.274  0.1303 -0.0855 -0.2565
37614W        W80531  32.677  14.626  20.884 -0.0691  0.0354  0.0216
37615W        W80532  31.264  17.021  22.837 -0.2927 -0.1580 -0.0645
37616W        W80533  29.525  16.790  22.950 -0.1793 -0.0680 -0.0342
37617W        W80534  29.643  15.124  18.836 -0.0450  0.0757 -0.1219
37618W        W80535  30.156  16.251  23.425  0.1826 -0.0498  0.0339
37619W        W80536  32.761  15.723  24.233 -0.0496  0.4258  0.1285
37620W        W80537  29.754  18.554  24.190  0.3711  0.0725 -0.0442
37621W        W80538  33.431  17.517  19.846 -0.1338  0.0693  0.1677
37622W        W80539  29.292  13.910  20.738 -0.2630 -0.1341 -0.0104
37623W        W80540  29.453  14.317  23.856 -0.0641  0.0683 -0.2125
37624W        W80541  34.256  13.333  22.590  0.1164  0.1499 -0.1118
37625W        W80542  31.546  16.743  19.778 -0.0647  0.0315  0.0039
37626W        W80543  30.253  14.740  23.462  0.1617  0.1471  0.0987
37627W        W80544  31.413  18.762  22.331  0.3999 -0.0059 -0.0397
37628W        W80545  28.355  19.035  22.886  0.3866 -0.1124  0.0569
37629W        W80546  31.999  16.050  23.482 -0.2482 -0.0832  0.1047
37630W        W80547  28.359  15.336  19.748  0.0079  0.3198  0.1782
37631W        W80548  33.347  16.473  23.053 -0.1767  0.3865 -0.3293
37632W        W80549  30.106  14.285  23.299  0.1695  0.0159  0.1783
37633W        W80550  34.481  15.539  22.215  0.2382  0.0572  0.4138
37634W        W80551  30.429  15.327  21.815  0.0623  0.0899 -0.0020
37635W        W80552  34.495  15.273  22.717  0.0455  0.1672 -0.0113
37636W        W80553  30.507  16.155  23.749 -0.3646 -0.1536  0.2917
37637W        W80554  29.075  17.009  23.052  0.2106 -0.1838 -0.0333
37638W        W80555  32.017  16.583  20.495 -0.0190  0.1029  0.1556
37639W        W80556  32.936  18.012  22.309 -0.0156 -0.2381  0.1146
37640W        W80557  30.944  14.197  20.103  0.1789  0.2007  0.0978
37641W        W80558  30.113  18.309  24.721  0.0411 -0.1086  0.2384
37642W        W80559  31.110  15.073  23.612  0.0282  0.3345  0.1119
37643W        W80560  31.298  16.456  22.681  0.0532  0.0976 -0.1423
37644W        W80561  28.518  17.393  23.157 -0.0173  0.0963 -0.1659
37645W        W80562  30.982  17.644  24.071 -0.0571 -0.1983  0.1567
37646W        W80563  30.856  17.395  24.538 -0.1373 -0.2337 -0.3618
37647W        W80564  29.546  15.693  23.166  0.0160 -0.3705  0.0976
37648W        W80565  33.497  17.828  21.692 -0.2012  0.1633  0.2990
37649W        W80566  31.598  16.504  22.297 -0.0476 -0.0511  0.2505
37650W        W80567  31.895  17.728  19.916 -0.0378  0.2002 -0.2842
37651W        W80568  31.387  18.956  21.860 -0.1421 -0.0461  0.0582
37652W        W80569  30.664  17.728  22.704 -0.0758 -0.2286 -0.2548
37653W        W80570  27.870  18.647  23.121 -0.0925  0.1231 -0.0872
37654W        W80571  33.304  18.907  23.039 -0.1787 -0.0780 -0.0623
37655W        W80572  32.341  17.929  23.428  0.0783 -0.1157  0.2558
37656W        W80573  29.904  12.151  21.856  0.2032  0.0864 -0.2449
37657W        W80574  31.562  15.914  22.732  0.1329 -0.0355  0.1259
37658W        W80575  28.713  19.177  22.592 -0.1069  0.1705 -0.1193
37659W        W80576  32.417  17.058  23.891  0.2469 -0.1178  0.3524
37660W        W80577  31.971  16.865  22.310  0.1267  0.2306 -0.1661
37661W        W80578  30.791  18.022  20.955 -0.2730  0.0267 -0.2236
37662W        W80579  31.363  15.715  21.937  0.0061 -0.1051  0.3442
37663W        W80580  31.079  18.524  23.560 -0.0055 -0.1202 -0.0812
37664W        W80581  30.511  18.338  23.237  0.2095  0.2061 -0.0568
37665W        W80582  29.636  13.625  20.987  0.2229 -0.0461  0.0309
37666W        W80583  30.085  19.269  23.695  0.1341 -0.0304 -0.2034
37667W        W80584  31.646  16.577  21.439 -0.0418 -0.0983 -0.2099
37668W        W80585  30.255  17.057  22.268  0.0752 -0.1230 -0.0231
37669W        W80586  32.268  17.363  20.093 -0.3160  0.1365  0.1478
37670W        W80587  30.026  15.845  23.011 -0.3279 -0.0751  0.1217
37671W        W80588  32.433  16.530  21.364  0.2573  0.0268  0.0626
37672W        W80589  29.696  15.989  21.501 -0.2679  0.0138  0.0841
37673W        W80590  32.186  13.837  20.318 -0.0392  0.3389  0.1522
37674W        W80591  32.535  17.498  23.327 -0.0051  0.1693  0.1032
37675W        W80592  30.571  16.527  23.356  0.1256  0.1289 -0.0002
37676W        W80593  28.672  15.198  21.222  0.4089  0.1674 -0.1194
37677W        W80594  29.301  14.550  19.744  0.0997 -0.2843 -0.0564
37678W        W80595  29.316  16.646  23.426  0.0311 -0.1641 -0.1263
37679W        W80596  32.023  12.930  22.249 -0.0387  0.1853  0.2844
37680W        W80597  30.517  15.671  24.574 -0.0454  0.1318 -0.2654
37681W        W80598  30.871  16.538  21.569 -0.2419 -0.2452  0.1686
37682W        W80599  29.782  11.662  21.610  0.0360 -0.0978 -0.1081
37683W        W80600  32.385  18.252  20.744 -0.2039  0.1832  0.0856
37684W        W80601  29.498  14.341  24.331 -0.0629 -0.3755  0.0711
37685W        W80602  29.937  12.904  22.422  0.0665  0.1712  0.0540
37686W        W80603  31.220  18.278  19.831 -0.1953 -0.2021  0.0621
37687W        W80604  30.103  16.147  20.760  0.1458  0.4552 -0.0929
37688W        W80605  31.704  15.589  22.243 -0.0462 -0.0625 -0.4911
37689W        W80606  31.914  18.195  24.993 -0.1066  0.0280  0.2080
37690W        W80607  30.000  17.804  22.737  0.1968  0.0964 -0.2548
37691W        W80608  31.606  14.549  23.335  0.2120 -0.1764  0.0569
37692W        W80609  30.407  14.565  24.630 -0.3453 -0.0715 -0.1964
37693W        W80610  28.677  15.509  18.968  0.1202 -0.1671 -0.1301
37694W        W80611  30.841  16.255  22.872 -0.1532 -0.1720 -0.0572
37695W        W80612  30.796  18.605  20.975  0.2077 -0.1331  0.3260
37696W        W80613  31.402  18.410  21.083 -0.1733 -0.3057 -0.3833
37697W        W80614  30.462  17.029  23.219 -0.3631  0.0366  0.2646
37698W        W80615  30.895  18.063  23.038 -0.0176  0.1119  0.2981
37699W        W80616  27.052  13.042  22.826 -0.4255 -0.1356  0.1904
37700W        W80617  31.076  16.815  20.270 -0.0480  0.1135 -0.1408
37701W        W80618  30.128  17.720  24.560  0.2480 -0.2151  0.2365
37702W        W80619  28.683  15.276  20.698  0.0372 -0.0875 -0.1114
37703W        W80620  32.599  16.879  20.950 -0.0824 -0.1638 -0.2706
37704W        W80621  32.589  16.112  21.187 -0.2283  0.0335  0.1144
37705W        W80622  28.941  12.739  25.132  0.5210  0.1062  0.1362
37706W        W80623  30.551  17.933  23.969 -0.0988  0.1750  0.0455
37707W        W80624  31.614  16.383  24.157  0.0658 -0.0126 -0.0680
37708W        W80625  30.234  14.921  25.045 -0.0069  0.0362 -0.2009
37709W        W80626  31.803  15.268  20.159  0.2255 -0.5150 -0.0145
37710W        W80627  30.081  16.610  22.122 -0.1808  0.1685 -0.2721
37711W        W80628  29.692  15.515  19.718  0.3025 -0.1006  0.1182
37712W        W80629  30.764  15.392  22.713 -0.2252  0.2736 -0.0871
37713W        W80630  29.347  16.177  22.757  0.1515 -0.2818 -0.1424
37714W        W80631  33.605  18.033  21.224  0.1628 -0.0875 -0.3138
37715W        W80632  33.024  16.775  22.942  0.1720  0.0025 -0.0036
37716W        W80633  28.901  15.781  20.793 -0.0455 -0.3225 -0.1441
37717W        W80634  32.692  15.918  20.675  0.2200 -0.2503  0.0699
37718W        W80635  30.989  20.020  23.040 -0.3721 -0.1199  0.1175
37719W        W80636  32.866  17.157  23.248  0.0740  0.0929 -0.1006
37720W        W80637  31.307  17.354  24.359 -0.1265 -0.2150  0.0355
37721W        W80638  32.162  16.372  19.342 -0.2429 -0.0694 -0.0536
37722W        W80639  30.048  14.092  22.833  0.0813  0.1660  0.2216
37723W        W80640  30.812  15.792  21.030 -0.1129 -0.1400  0.0416
37724W        W80641  32.049  16.668  21.090  0.0718  0.1637 -0.1514
37725W        W80642  31.844  17.637  22.032 -0.1387  0.0744 -0.3670
37726W        W80643  30.075  14.418  24.346  0.0276  0.0681  0.0381
37727W        W80644  30.796  12.204  22.418 -0.0330 -0.1198 -0.0416
37728W        W80645  31.283  19.828  22.259 -0.2296  0.4719  0.3385
37729W        W80646  30.922  17.971  22.323  0.0168 -0.3379  0.2624
37730W        W80647  29.700  16.879  27.852 -0.2716  0.0894  0.0407
37731W        W80648  30.469  16.111  24.219 -0.3219  0.0331  0.3731
37732W        W80649  30.448  16.308  21.871 -0.0791  0.0757 -0.3276
37733W        W80650  31.781  16.981  24.478  0.3560 -0.1107 -0.3615
37734W        W80651  30.507  15.865  25.542 -0.0577  0.1237  0.4113
37735W        W80652  30.492  18.380  26.219 -0.3796  0.0011  0.2181
37736W        W80653  29.625  14.191  25.706  0.1281  0.0324 -0.2719
37737W        W80654  31.980  20.472  24.908  0.2502 -0.0990 -0.1307
37738W        W80655  30.165  17.070  26.144 -0.0943  0.1366  0.1200
37739W        W80656  33.069  17.452  25.142  0.1469 -0.1976  0.3559
37740W        W80657  32.657  15.004  26.108  0.0268  0.1257  0.0543
37741W        W80658  30.330  16.803  26.550  0.0194 -0.1529  0.3688
37742W        W80659  33.111  17.114  24.682  0.2204 -0.0864 -0.1991
37743W        W80660  29.430  14.943  25.197  0.1169  0.4419 -0.0264
37744W        W80661  30.640  15.934  27.046  0.3456  0.1239  0.1145
37745W        W80662  30.367  16.957  24.276  0.0004 -0.1499  0.1811
37746W        W80663  28.561  15.909  23.352  0.1401  0.0556  0.2884
37747W        W80664  30.429  15.745  26.612 -0.0143 -0.1082  0.1365
37748W        W80665  32.462  17.643  25.327 -0.0131  0.1382 -0.1622
37749W        W80666  30.189  13.796  28.096  0.1565 -0.2249 -0.1794
37750W        W80667  31.406  14.970  27.599  0.1178 -0.1227 -0.1484
37751W        W80668  31.613  17.303  26.368 -0.5998 -0.1456 -0.1275
37752W        W80669  30.501  15.552  23.164 -0.0393 -0.0913  0.1908
37753W        W80670  28.750  15.801  26.569 -0.0049  0.0199  0.0388
37754W        W80671  31.275  16.854  24.231 -0.4267  0.2136 -0.1749
37755W        W80672  31.466  13.711  26.321 -0.1423 -0.1682  0.3423
37756W        W80673  31.357  15.615  25.872  0.2215  0.2058  0.0007
37757W        W80674  31.215  18.863  25.284  0.0087  0.2560 -0.0070
37758W        W80675  31.055  14.943  25.477 -0.1668 -0.1468  0.0630
37759W        W80676  31.955  15.979  26.736 -0.1173 -0.0866  0.0407
37760W        W80677  28.632  17.521  23.711 -0.0641  0.0156 -0.0699
37761W        W80678  28.901  17.074  23.679 -0.1814  0.0066  0.3157
37762W        W80679  31.005  17.866  24.592  0.1358 -0.2558  0.2402
37763W        W80680  32.855  18.654  25.517  0.2800 -0.1138 -0.1405
37764W        W80681  30.410  16.418  27.431 -0.0060  0.0135  0.1640
37765W        W80682  30.481  18.332  27.213  0.3280  0.1595  0.1953
37766W        W80683  29.284  18.369  23.279 -0.1866 -0.0922 -0.1939
37767W        W80684  32.093  18.373  27.800 -0.1506  0.2812  0.1111
37768W        W80685  31.042  14.932  27.285 -0.0960  0.0578 -0.0172
37769W        W80686  29.486  16.268  28.631 -0.2152 -0.1497  0.1413
37770W        W80687  29.942  16.904  24.753 -0.0527  0.0062 -0.1654
37771W        W80688  29.600  17.531  26.279 -0.0474  0.1645  0.0795
37772W        W80689  31.213  16.567  24.634 -0.0669  0.0621  0.1029
37773W        W80690  28.810  16.220  28.086 -0.0621 -0.0006  0.0235
37774W        W80691  30.346  16.241  26.503  0.3518  0.0648  0.1024
37775W        W80692  33.736  15.776  27.363  0.1397 -0.2388 -0.1159
37776W        W80693  29.783  18.227  25.256 -0.0670 -0.0006 -0.1979
37777W        W80694  32.125  14.706  23.633  0.0194  0.1413  0.0515
37778W        W80695  28.805  15.809  23.984 -0.1305 -0.2536 -0.1495
37779W        W80696  30.778  15.786  24.130 -0.1223 -0.2877 -0.2492
37780W        W80697  32.287  15.210  22.959  0.1702 -0.0562  0.2181
37781W        W80698  29.196  17.890  25.948  0.1186  0.0016  0.2226
37782W        W80699  31.339  18.041  27.005  0.0338  0.2412  0.2164
37783W        W80700  30.782  18.961  28.798  0.1860  0.1722 -0.1869
37784W        W80701  32.151  16.828  24.770  0.0631 -0.0262 -0.0071
37785W        W80702  29.975  15.981  26.310  0.0490  0.1190  0.1008
37786W        W80703  30.588  16.463  26.893  0.4413  0.0854 -0.1403
37787W        W80704  31.379  17.592  26.757 -0.0960  0.1350 -0.0932
37788W        W80705  31.256  17.051  24.711 -0.3481  0.3938 -0.0179
37789W        W80706  31.594  18.402  27.938  0.0676  0.1782  0.2436
37790W        W80707  29.648  18.475  24.722 -0.1698  0.1943  0.1755
37791W        W80708  30.593  16.406  25.541  0.2702 -0.0567  0.1765
37792W        W80709  29.709  16.556  27.193  0.1098 -0.2207  0.0664
37793W        W80710  30.827  14.780  26.857  0.2713 -0.2037  0.1074
37794W        W80711  28.689  14.117  24.822  0.0621 -0.0184  0.0323
37795W        W80712  32.557  18.380  28.125 -0.2048 -0.1349  0.1093
37796W        W80713  29.653  17.825  27.619  0.0092 -0.3777 -0.0230
37797W        W80714  33.769  15.022  24.406  0.0176 -0.1046 -0.0306
37798W        W80715  30.210  18.562  26.790 -0.0707 -0.0381 -0.0783
37799W        W80716  31.418  17.149  25.335 -0.0380  0.0623 -0.2549
37800W        W80717  32.492  18.216  22.442  0.1996  0.0514  0.2245
37801W        W80718  32.718  14.338  25.244  0.1375 -0.0671 -0.0804
37802W        W80719  32.554  16.014  25.766 -0.1744 -0.0871  0.2026
37803W        W80720  30.738  15.532  23.620  0.0712  0.1782  0.0379
37804W        W80721  30.444  18.922  25.535  0.2601 -0.0409 -0.1523
37805W        W80722  30.717  16.510  24.061  0.0053  0.3215 -0.2232
37806W        W80723  31.895  17.735  23.695  0.2243 -0.1102 -0.0775
37807W        W80724  29.020  17.461  27.764  0.0093 -0.1128  0.0548
37808W        W80725  28.015  12.228  25.474  0.0271  0.2245 -0.0708
37809W        W80726  30.801  15.339  27.132 -0.2595  0.1845  0.0686
37810W        W80727  29.464  16.676  25.962  0.0528 -0.0607 -0.1786
37811W        W80728  29.078  15.886  26.227 -0.2125  0.3256 -0.2525
37812W        W80729  29.752  18.666  23.525  0.3228 -0.1616  0.1358
37813W        W80730  28.096  15.781  25.915 -0.2398  0.1009  0.0834
37814W        W80731  29.586  17.319  28.232  0.0436 -0.2887  0.0208
37815W        W80732  33.333  15.442  24.128  0.2370  0.0824  0.2325
37816W        W80733  29.844  13.736  26.893  0.3095  0.0330 -0.2394
37817W        W80734  32.402  15.224  24.139  0.1462 -0.0889 -0.4804
37818W        W80735  30.964  16.861  26.918 -0.1536  0.1525 -0.1515
37819W        W80736  31.641  18.618  25.133 -0.0267  0.1774  0.1596
37820W        W80737  32.049  16.248  23.913  0.0160 -0.2700 -0.1439
37821W        W80738  32.698  18.749  22.809  0.0790 -0.2377 -0.1618
37822W        W80739  28.862  18.584  26.384 -0.0465 -0.2250 -0.3316
37823W        W80740  29.359  14.771  24.582  0.2377 -0.2423  0.0261
37824W        W80741  31.251  12.981  26.861  0.0577 -0.3834 -0.1098
37825W        W80742  29.936  15.714  24.040 -0.0249 -0.1007  0.0142
37826W        W80743  31.495  14.334  25.640 -0.0749  0.1686  0.0239
37827W        W80744  29.952  12.264  24.581 -0.1286 -0.0189  0.1232
37828W        W80745  32.812  14.880  24.452 -0.0486  0.0155  0.0996
37829W        W80746  31.332  16.255  25.053 -0.2840  0.1245  0.3362
37830W        W80747  30.157  20.018  26.425  0.0701  0.1393 -0.0647
37831W        W80748  30.445  13.203  25.800 -0.1396 -0.0800 -0.4336
37832W        W80749  30.950  18.110  24.159 -0.1181 -0.2640 -0.0693
37833W        W80750  31.227  17.731  25.737 -0.3325  0.1072 -0.1888
37834W        W80751  30.843  18.528  25.247  0.3924  0.0054 -0.2642
37835W        W80752  31.138  15.800  26.282  0.3953  0.0578 -0.1499
37836W        W80753  31.163  17.175  23.786  0.0499 -0.1831  0.0297
37837W        W80754  27.629  18.103  26.426 -0.0718  0.0747 -0.1967
37838W        W80755  31.640  18.017  24.636 -0.2262  0.1543 -0.1020
37839W        W80756  31.815  14.875  22.513  0.0875  0.2229  0.0942
37840W        W80757  32.789  18.419  25.061 -0.2093 -0.1072 -0.1685
37841W        W80758  30.570  17.164  25.874 -0.0906  0.1837  0.0593
37842W        W80759  29.452  16.751  28.286  0.0428  0.1377  0.3112
37843W        W80760  32.267  15.599  27.081 -0.1091 -0.1569 -0.1154
37844W        W80761  32.606  17.984  24.932 -0.1999 -0.1574  0.0111
37845W        W80762  30.737  15.107  26.504 -0.0300  0.1092  0.3238
37846W        W80763  29.293  15.193  24.200  0.0609  0.0371  0.1169
37847W        W80764  31.364  19.739  25.845 -0.3459 -0.1106 -0.2237
37848W        W80765  30.695  18.608  24.351 -0.0790 -0.2267 -0.1992
37849W        W80766  29.154  15.882  24.607 -0.2882  0.1411  0.0313
37850W        W80767  30.381  17.776  25.489  0.0211  0.5003  0.2203
37851W        W80768  31.082  13.513  27.190  0.0829  0.1365  0.0431
37852W        W80769  30.135  14.133  26.542 -0.0365  0.1607  0.0657
37853W        W80770  32.722  16.200  27.325 -0.0599  0.0660 -0.2086
37854W        W80771  30.726  14.786  23.710  0.0860  0.1116 -0.2622
37855W        W80772  29.517  18.097  27.120  0.2380 -0.0591  0.0037
37856W        W80773  33.701  14.690  26.013  0.2721  0.3387 -0.4116
37857W        W80774  33.825  15.914  23.613 -0.2574  0.0331 -0.1227
37858W        W80775  31.677  16.846  27.140  0.0908  0.0286 -0.4869
37859W        W80776  32.858  17.602  24.704 -0.1148 -0.0017 -0.2647
37860W        W80777  32.568  16.626  24.041  0.2092  0.0299  0.0256
37861W        W80778  32.787  14.934  22.862  0.1540 -0.1383 -0.1485
37862W        W80779  28.911  14.486  28.951 -0.0282 -0.0865  0.0700
37863W        W80780  30.992  17.079  25.095  0.0977  0.1546  0.0024
37864W        W80781  31.012  17.345  25.557  0.1140  0.5646 -0.1235
37865W        W80782  31.812  16.741  25.258 -0.1858  0.0140 -0.0360
37866W        W80783  32.387  17.562  23.881  0.4475  0.2812  0.2274
37867W        W80784  30.216  16.613  27.883 -0.0791  0.0520 -0.2284
37868W        W80785  31.666  16.756  26.273 -0.0240  0.0145  0.1612
37869W        W80786  31.379  17.880  25.211  0.0764  0.1082  0.0853
37870W        W80787  29.429  13.117  25.927 -0.0774 -0.3259 -0.5038
37871W        W80788  30.163  17.159  23.732 -0.2112 -0.0297  0.1031
37872W        W80789  32.701  14.895  23.899 -0.1136 -0.1289 -0.3076
37873W        W80790  27.623  18.836  24.726 -0.2498 -0.0654  0.0565
37874W        W80791  33.249  13.509  25.668  0.0101 -0.0549 -0.0624
37875W        W80792  30.760  13.898  27.230  0.0437 -0.3763 -0.3311
37876W        W80793  32.627  13.594  26.057 -0.1046  0.0678 -0.2703
37877W        W80794  31.971  17.383  27.435  0.1119 -0.1173  0.3303
37878W        W80795  34.670  13.997  22.927  0.1070  0.1755 -0.1758
37879W        W80796  31.222  15.130  26.794 -0.1229  0.0186 -0.0706
37880W        W80797  29.544  15.392  23.647 -0.1763 -0.3438  0.0238
37881W        W80798  30.800  14.033  27.802 -0.0318 -0.1845 -0.1308
37882W        W80799  32.201  15.055  27.887 -0.0905 -0.0165 -0.2988
37883W        W80800  27.992  18.414  28.150 -0.0463 -0.1130 -0.0833
37884W        W80801  29.921  16.965  28.355 -0.1672 -0.2815  0.2546
37885W        W80802  33.014  15.237  22.533  0.0313 -0.0926  0.1977
37886W        W80803  32.128  14.119  26.717  0.3445 -0.1107 -0.2138
37887W        W80804  31.822  14.723  24.883 -0.1269 -0.0878  0.0004
37888W        W80805  28.816  17.162  25.553  0.1975  0.0023 -0.1835
37889W        W80806  30.982  17.203  23.311 -0.1145 -0.1055 -0.1773
37890W        W80807  29.891  15.819  24.923 -0.0187 -0.0778 -0.1499
37891W        W80808  30.569  17.932  26.260  0.0925 -0.1206  0.0188
37892W        W80809  31.314  16.835  23.400 -0.1786  0.4674  0.1226
37893W        W80810  31.303  18.378  25.557  0.0050  0.2060 -0.1831
37894W        W80811  27.498  17.527  24.772 -0.3785  0.1874  0.2240
37895W        W80812  32.145  13.619  24.248 -0.3218 -0.1751  0.3039
37896W        W80813  27.576  18.531  25.196  0.4808  0.0804 -0.3781
37897W        W80814  32.613  15.471  23.324  0.0877 -0.0948 -0.0606
37898W        W80815  30.872  15.260  24.064  0.1895  0.1810 -0.1249
37899W        W80816  32.539  16.746  25.040 -0.0081 -0.0151  0.2231
37900W        W80817  31.019  18.426  24.603 -0.0564  0.3174 -0.3166
37901W        W80818  29.356  14.639  26.500 -0.3303 -0.0886  0.0871
37902W        W80819  33.533  13.248  26.077 -0.0633 -0.0327 -0.0226
37903W        W80820  31.240  17.344  26.016  0.0875  0.0216 -0.1434
37904W        W80821  31.741  14.998  26.263 -0.1219 -0.1115 -0.2871
37905W        W80822  31.987  15.969  22.403  0.1461 -0.0508  0.0434
37906W        W80823  30.730  16.660  27.844  0.2881  0.2221  0.1984
37907W        W80824  30.669  13.171  28.350  0.1553  0.1819  0.0432
37908W        W80825  30.273  15.554  25.080 -0.0820  0.0254 -0.2127
37909W        W80826  31.643  18.998  25.824  0.1003  0.1522 -0.0581
37910W        W80827  28.799  14.634  24.579  0.0234  0.0003  0.0613
37911W        W80828  28.300  19.039  25.640 -0.0375  0.1270  0.0274
37912W        W80829  30.497  18.106  26.748  0.0883 -0.1341  0.0259
37913W        W80830  28.256  17.485  24.439  0.0372 -0.1839  0.0147
37914W        W80831  29.798  16.344  26.650 -0.1071 -0.0724  0.0239
37915W        W80832  29.877  14.224  27.817  0.2634 -0.0318  0.1166
37916W        W80833  31.600  17.037  27.754  0.2035 -0.1182 -0.1705
37917W        W80834  32.182  14.938  25.981 -0.4413  0.0350  0.0508
37918W        W80835  29.163  12.172  23.858  0.0129  0.0039 -0.0698
37919W        W80836  31.000  15.945  24.658  0.0368 -0.1064  0.2866
37920W        W80837  31.268  15.566  27.089 -0.0748  0.4438 -0.1022
37921W        W80838  32.849  14.993  26.622 -0.5009 -0.0237 -0.2972
37922W        W80839  31.191  16.960  27.338 -0.0323 -0.1212  0.1224
37923W        W80840  30.576  13.550  28.000  0.2385  0.4648 -0.1178
37924W        W80841  33.009  19.314  25.020  0.2032 -0.2324  0.2565
37925W        W80842  28.951  13.978  28.247  0.0416  0.0115 -0.2642
37926W        W80843  29.238  17.062  25.080 -0.4274  0.1975 -0.0107
37927W        W80844  30.846  16.083  26.583 -0.2736  0.2280 -0.3396
37928W        W80845  31.340  16.755  25.120 -0.2500 -0.1760 -0.0590
37929W        W80846  30.070  15.906  28.739  0.0093 -0.1116  0.2160
37930W        W80847  30.837  16.626  25.039 -0.0953 -0.0888 -0.1249
37931W        W80848  30.886  18.051  25.427  0.0708 -0.0445 -0.1289
37932W        W80849  27.645  18.159  26.991  0.4656 -0.0619 -0.2720
37933W        W80850  32.126  16.513  23.222  0.0099  0.0753  0.2044
37934W        W80851  32.358  18.498  24.841  0.1010  0.1850 -0.3602
37935W        W80852  30.524  14.919  27.240 -0.1101  0.1387  0.2600
37936W        W80853  33.272  16.303  26.748 -0.3805  0.0030  0.0650
37937W        W80854  33.030  17.325  22.834 -0.2048  0.1442  0.2366
37938W        W80855  31.919  14.593  26.419 -0.0975 -0.1677 -0.1231
37939W        W80856  30.496  15.037  25.885 -0.0704 -0.0093 -0.0954
37940W        W80857  31.895  19.157  27.334  0.0891 -0.1902 -0.1358
37941W        W80858  29.490  15.814  26.541 -0.1072  0.1524 -0.1229
37942W        W80859  30.853  18.392  28.948 -0.2074 -0.2717 -0.1462
37943W        W80860  29.158  15.237  27.330 -0.0770  0.1506  0.1546
37944W        W80861  31.627  14.817  23.777  0.1843  0.5098  0.0186
37945W        W80862  32.064  13.691  23.682  0.0443 -0.2518  0.0830
37946W        W80863  30.937  18.300  26.983 -0.1148 -0.1077  0.1942
37947W        W80864  33.312  16.979  25.118  0.1382  0.1637  0.0424
37948W        W80865  29.993  17.400  26.534 -0.3869  0.0114 -0.1454
37949W        W80866  31.034  14.608  25.808  0.0269  0.5226 -0.1047
37950W        W80867  29.926  15.628  26.690  0.4754  0.1320  0.0334
37951W        W80868  32.071  16.721  23.796  0.2164 -0.5140 -0.0027
37952W        W80869  33.455  16.276  24.450  0.4178  0.3912 -0.0418
37953W        W80870  31.782  15.630  23.701  0.0956  0.2011  0.3178
37954W        W80871  30.403  14.847  28.201  0.1392 -0.0442  0.2682
37955W        W80872  29.149  14.181  26.543  0.0252  0.3110 -0.2333
37956W        W80873  31.858  14.283  25.297 -0.0726 -0.0263 -0.0650
37957W        W80874  30.848  16.042  25.242 -0.1334  0.0311 -0.1262
37958W        W80875  32.921  15.638  26.031 -0.1259 -0.0689  0.0281
37959W        W80876  32.465  13.560  25.259  0.2125 -0.1941 -0.0351
37960W        W80877  28.981  15.004  26.944 -0.1669  0.3201 -0.3191
37961W        W80878  30.705  14.713  24.965 -0.5443 -0.0342 -0.2130
37962W        W80879  32.717  16.737  23.525  0.0499 -0.1889 -0.0688
37963W        W80880  32.394  13.256  26.256 -0.0907  0.0166 -0.0921
37964W        W80881  33.608  14.511  24.275  0.2884 -0.2563  0.0131
37965W        W80882  31.777  17.065  25.900 -0.1278  0.0020 -0.2647
37966W        W80883  29.135  15.718  23.479  0.1886  0.2879 -0.1853
37967W        W80884  30.109  16.583  26.936 -0.0020  0.2973 -0.0425
37968W        W80885  31.620  17.033  23.881 -0.1601 -0.0901 -0.4229
37969W        W80886  31.830  16.464  26.833  0.2063 -0.1734 -0.0391
37970W        W80887  29.788  19.518  25.456  0.0229 -0.1591 -0.2438
37971W        W80888  31.082  17.266  26.562 -0.0446 -0.0246 -0.2367
37972W        W80889  30.978  17.597  25.020  0.4184  0.2036 -0.2112
37973W        W80890  29.746  17.084  25.356  0.1284 -0.0531 -0.1208
37974W        W80891  29.986  18.039  25.865 -0.1865  0.0935 -0.1105
37975W        W80892  29.962  15.412  23.301  0.1746  0.0028 -0.0822
37976W        W80893  31.351  15.160  24.084  0.2245 -0.0340  0.0459
37977W        W80894  31.636  16.572  25.812 -0.3519  0.2563 -0.1659
37978W        W80895  31.743  17.032  28.673  0.0034  0.1361  0.2551
37979W        W80896  31.801  12.595  23.413 -0.0118  0.0104 -0.1472
37980W        W80897  33.112  17.474  26.062 -0.0265  0.0221 -0.0555
37981W        W80898  30.157  17.472  25.042 -0.0118  0.2671 -0.2431
37982W        W80899  31.466  14.521  26.143  0.2320 -0.3218  0.0750
37983W        W80900  31.919  18.873  26.779 -0.0969  0.0906 -0.2135
37984W        W80901  29.436  18.133  28.004  0.1972 -0.1522 -0.4670
37985W        W80902  30.126  17.884  26.494  0.1684 -0.0011  0.1598
37986W        W80903  30.919  13.507  26.223 -0.2909 -0.2042  0.1554
37987W        W80904  31.679  15.764  26.283  0.0681 -0.1033 -0.1545
37988W        W80905  32.095  14.862  25.465  0.1904 -0.2659 -0.1583
37989W        W80906  32.569  16.423  25.451  0.0825  0.1956  0.1805
37990W        W80907  30.783  17.708  26.652 -0.2454 -0.1271  0.0555
37991W        W80908  30.781  17.537  27.571 -0.1909  0.2932  0.0026
37992W        W80909  29.036  14.708  26.104  0.1805 -0.2294 -0.0260
37993W        W80910  31.757  15.637  25.390  0.2586  0.1086 -0.1114
37994W        W80911  30.659  15.516  25.926  0.0170  0.1276  0.1095
37995W        W80912  27.719  16.601  28.393 -0.2909  0.0309 -0.0696
37996W        W80913  30.082  15.136  27.928  0.2281  0.1791  0.3404
37997W        W80914  31.079  16.424  25.555 -0.2076 -0.0571 -0.0070
37998W        W80915  32.374  14.464  25.552  0.0545  0.2221  0.2245
37999W        W80916  29.838  17.700  25.364  0.0475 -0.1038 -0.1188
38000W        W80917  27.185  17.225  28.253  0.0797  0.1962 -0.2768
38001W        W80918  29.240  15.446  26.324 -0.0173  0.0516  0.1288
38002W        W80919  27.041  17.798  24.616  0.0127  0.1465  0.0433
38003W        W80920  32.676  17.138  25.312 -0.0018  0.0800  0.0502
38004W        W80921  28.861  17.616  24.663 -0.1719  0.0700 -0.1752
38005W        W80922  32.737  18.872  24.827  0.0252 -0.2877 -0.2134
38006W        W80923  30.601  16.715  22.105  0.0903  0.2362  0.0472
38007W        W80924  27.929  19.468  26.207  0.1793 -0.0832 -0.1925
38008W        W80925  28.126  18.567  22.669  0.1345  0.0039 -0.0874
38009W        W80926  32.732  18.907  23.469 -0.1306  0.2811  0.0790
38010W        W80927  31.236  19.305  25.627 -0.1084  0.0832  0.2076
38011W        W80928  33.995  18.944  26.121 -0.0733 -0.0471 -0.2125
38012W        W80929  32.703  16.312  24.991  0.1660 -0.1966 -0.3877
38013W        W80930  33.274  15.980  25.355  0.0662 -0.2251  0.0901
38014W        W80931  33.520  13.756  24.984  0.0659 -0.1018  0.0127
38015W        W80932  32.675  18.701  26.189 -0.0707  0.1669  0.1308
38016W        W80933  31.072  15.209  25.915 -0.0411 -0.4448 -0.0512
38017W        W80934  30.717  16.908  23.715 -0.2398  0.3221 -0.0325
38018W        W80935  30.377  14.696  27.658  0.2503  0.1032 -0.2000
38019W        W80936  32.722  13.674  26.921  0.0124 -0.2601  0.0889
38020W        W80937  28.013  17.907  26.767  0.0413 -0.1390 -0.2155
38021W        W80938  31.953  19.212  24.518 -0.3371  0.1277  0.0235
38022W        W80939  30.366  15.207  23.564 -0.2788 -0.1094 -0.3291
38023W        W80940  29.965  15.098  28.620  0.0827 -0.2218 -0.0327
38024W        W80941  32.300  14.034  25.308  0.5218  0.2303  0.1192
38025W        W80942  31.685  18.925  24.245  0.2503  0.2325  0.3061
38026W        W80943  32.891  15.513  26.857 -0.4312 -0.2208 -0.1754
38027W        W80944  31.234  19.919  24.074 -0.3377 -0.1032 -0.1658
38028W        W80945  29.967  18.465  27.350  0.0658  0.0423 -0.1105
38029W        W80946  30.661  17.819  27.125 -0.1143 -0.1822  0.0371
38030W        W80947  28.914  14.989  25.128 -0.1593  0.4119  0.0056
38031W        W80948  31.684  15.631  24.605 -0.2037  0.3565 -0.1417
38032W        W80949  31.886  14.557  25.881  0.2626  0.1637  0.0383
38033W        W80950  32.111  15.166  27.362  0.0204  0.1026 -0.0397
38034W        W80951  29.558  16.655  25.152 -0.0328  0.0577 -0.0392
38035W        W80952  32.900  16.181  24.401  0.1128  0.2068  0.0573
38036W        W80953  29.046  15.174  25.857 -0.2935  0.1431 -0.1931
38037W        W80954  30.416  15.275  26.847 -0.1387  0.2145  0.0515
38038W        W80955  31.317  15.884  25.413  0.1382  0.1915  0.3092
38039W        W80956  33.434  14.992  25.664  0.0382 -0.2337  0.2561
38040W        W80957  32.051  17.263  23.628 -0.2145  0.1412  0.3595
38041W        W80958  29.586  15.461  28.148 -0.2096  0.2151  0.1102
38042W        W80959  30.934  15.502  25.525 -0.1665 -0.0115  0.3123
38043W        W80960  31.837  16.884  23.367 -0.2750  0.2348  0.2268
38044W        W80961  30.733  16.409  24.533 -0.2258 -0.1865 -0.0095
38045W        W80962  30.891  15.694  27.544  0.0393  0.0555 -0.1028
38046W        W80963  32.196  19.416  26.437  0.1039 -0.2782  0.0362
38047W        W80964  29.956  14.783  25.430 -0.0593 -0.1508 -0.1533
38048W        W80965  34.100  18.041  21.917 -0.0426 -0.1999  0.0667
38049W        W80966  31.401  16.114  25.891 -0.0139 -0.0928 -0.0919
38050W        W80967  30.109  20.503  22.875 -0.1175  0.3920 -0.0512
38051W        W80968  33.066  16.553  27.179 -0.0184  0.2861 -0.2672
38052W        W80969  32.573  19.614  25.003  0.0777 -0.0743 -0.1078
38053W        W80970  31.255  17.803  26.288 -0.2470  0.0206  0.0099
38054W        W80971  31.587  18.813  27.180  0.1583  0.0330  0.0508
38055W        W80972  32.258  17.745  26.336  0.3336 -0.1430 -0.0569
38056W        W80973  32.519  15.339  22.413 -0.1619 -0.2289  0.0268
38057W        W80974  28.619  16.650  28.290 -0.1791  0.5222  0.3285
38058W        W80975  30.775  18.145  24.966 -0.1561 -0.1337 -0.0020
38059W        W80976  31.791  17.343  26.860 -0.3362 -0.1414 -0.0542
38060W        W80977  31.389  15.278  25.480 -0.0619  0.1499 -0.2434
38061W        W80978  31.093  17.652  23.557 -0.1074  0.0008  0.0964
38062W        W80979  32.940  13.948  27.980  0.0706  0.0788 -0.0207
38063W        W80980  31.454  18.604  26.072 -0.3118  0.0333 -0.1322
38064W        W80981  32.099  17.257  26.220  0.1049  0.3056  0.1108
38065W        W80982  29.627  16.058  24.552 -0.0449  0.4182 -0.0689
38066W        W80983  31.180  14.164  26.191  0.0892 -0.0384  0.0382
38067W        W80984  29.811  16.274  24.096 -0.4043  0.4780  0.1839
38068W        W80985  30.501  16.565  26.081  0.4314 -0.2989 -0.3846
38069W        W80986  34.023  18.712  25.319 -0.0030 -0.1183 -0.0171
38070W        W80987  31.881  16.463  22.672  0.1672  0.0024 -0.0833
38071W        W80988  33.075  16.460  25.486  0.2126  0.2270  0.4610
38072W        W80989  29.136  13.458  27.512  0.2012 -0.0505 -0.0400
38073W        W80990  32.194  15.407  25.478  0.3591  0.0471 -0.0043
38074W        W80991  32.049  14.784  23.081 -0.3628  0.0138 -0.2521
38075W        W80992  30.046  18.077  27.004  0.3193  0.0126  0.3800
38076W        W80993  29.346  16.194  23.799  0.1724 -0.2092 -0.3794
38077W        W80994  29.668  18.140  23.867 -0.1781 -0.2218 -0.1208
38078W        W80995  30.327  16.976  25.278  0.1124 -0.0629 -0.2050
38079W        W80996  32.563  15.122  27.034 -0.4104  0.0810 -0.2762
38080W        W80997  30.392  13.390  26.245 -0.0413 -0.1534 -0.0392
38081W        W80998  29.814  17.591  27.118 -0.0308  0.0101 -0.2172
38082W        W80999  31.097  16.340  23.331 -0.3547  0.1130 -0.0166
38083W        W81000  32.037  17.729  25.133  0.1423  0.3518  0.3211
38084W        W81001  29.993  16.577  26.183  0.4889 -0.0163 -0.3121
38085W        W81002  30.292  15.355  26.306 -0.2320  0.1688  0.1604
38086W        W81003  32.951  13.786  25.384 -0.2007  0.1975  0.0944
38087W        W81004  29.617  18.008  26.211  0.3518 -0.2306  0.3843
38088W        W81005  30.742  17.009  26.342  0.0708 -0.1065 -0.0188
38089W        W81006  33.168  19.446  26.139 -0.1712 -0.1474 -0.0361
38090W        W81007  28.955  16.039  23.107  0.2766 -0.3550  0.1414
38091W        W81008  30.952  15.910  25.720 -0.0495  0.0726  0.0635
38092W        W81009  31.923  13.585  26.647  0.0576 -0.1845  0.2469
38093W        W81010  29.783  14.521  22.829  0.2114 -0.2499  0.2982
38094W        W81011  31.809  14.124  26.166  0.1650 -0.1205  0.0737
38095W        W81012  33.803  17.784  23.905 -0.1422 -0.0059 -0.4621
38096W        W81013  33.659  20.175  23.400 -0.1120 -0.1085  0.2229
38097W        W81014  30.570  15.055  25.344  0.1646  0.1066  0.2241
38098W        W81015  31.535  17.306  27.299 -0.0749  0.2413 -0.1333
38099W        W81016  29.545  13.587  26.122  0.1101 -0.0747  0.1348
38100W        W81017  33.544  13.742  26.032 -0.0382  0.2920  0.2285
38101W        W81018  30.486  16.882  27.144 -0.1026  0.2614  0.1445
38102W        W81019  33.092  18.703  23.930 -0.1295  0.0065 -0.0811
38103W        W81020  32.879  14.376  24.726 -0.1226 -0.0721  0.0814
38104W        W81021  33.321  17.039  23.322 -0.0572 -0.0941 -0.1768
38105W        W81022  27.919  12.500  27.143 -0.0037 -0.0425 -0.0084
38106W        W81023  27.843  18.886  27.523 -0.2122  0.0407  0.2075
38107W        W81024  31.740  18.110  25.487  0.1869  0.3221  0.3541
38108W        W81025  32.106  14.158  24.841 -0.0035  0.0807  0.2458
38109W        W81026  32.423  17.671  24.338  0.1904 -0.0511  0.2026
38110W        W81027  31.893  17.457  24.621 -0.0854 -0.0448 -0.0180
38111W        W81028  30.187  16.252  25.798 -0.0134 -0.0711 -0.0964
38112W        W81029  31.770  15.178  22.936 -0.2249 -0.0727 -0.0477
38113W        W81030  32.019  15.383  26.291 -0.0681  0.0201  0.1824
38114W        W81031  31.080  17.496  27.160  0.0399 -0.1677  0.3745
38115W        W81032  31.474  17.936  27.770 -0.1521  0.0819  0.2875
38116W        W81033  30.262  14.696  23.949 -0.0507  0.1824 -0.0878
38117W        W81034  30.375  16.648  24.877  0.2584 -0.0447 -0.1039
38118W        W81035  32.017  18.238  26.459  0.1974  0.5546 -0.0485
38119W        W81036  34.135  18.431  28.790  0.0604  0.0318 -0.1978
38120W        W81037  29.462  20.828  24.505  0.1033  0.1832  0.0927
38121W        W81038  31.814  16.219  26.168 -0.3083 -0.1124 -0.2108
38122W        W81039  29.855  14.641  26.537 -0.2211  0.0614  0.0149
38123W        W81040  31.650  16.505  24.819 -0.1314 -0.2125  0.1402
38124W        W81041  30.134  16.817  25.707  0.0504  0.1873  0.1919
38125W        W81042  31.828  18.295  26.937  0.0438  0.2170  0.3062
38126W        W81043  30.711  17.724  25.874 -0.2632  0.0435  0.1551
38127W        W81044  32.415  14.610  24.632  0.3154  0.1383  0.3385
38128W        W81045  31.257  19.416  28.908  0.1245 -0.3094 -0.0990
38129W        W81046  31.448  16.698  28.235  0.1771 -0.1305  0.0047
38130W        W81047  27.997  18.693  30.156  0.1442 -0.2079  0.1323
38131W        W81048  29.969  15.300  29.522  0.2597  0.0462 -0.0692
38132W        W81049  30.724  14.164  25.413 -0.1457 -0.0577  0.2554
38133W        W81050  31.928  16.011  28.524  0.0244  0.2077  0.0836
38134W        W81051  29.145  15.844  28.243 -0.0649 -0.1865 -0.2221
38135W        W81052  30.684  17.056  27.597  0.0108  0.1131  0.1764
38136W        W81053  30.519  14.662  29.802 -0.1351  0.0125  0.1212
38137W        W81054  31.018  16.659  29.984  0.0255  0.1699 -0.1989
38138W        W81055  31.902  19.888  31.548 -0.0618  0.1952  0.0780
38139W        W81056  32.453  15.424  25.899 -0.0947  0.0190 -0.0333
38140W        W81057  30.034  16.920  30.032  0.0156  0.0018  0.1929
38141W        W81058  31.377  18.912  28.989  0.3631  0.0730  0.1896
38142W        W81059  30.809  16.429  29.557  0.3406  0.0748 -0.0450
38143W        W81060  31.086  14.524  29.421  0.2197 -0.0483 -0.3116
38144W        W81061  30.702  15.113  31.507 -0.0515  0.2507  0.1935
38145W        W81062  29.957  15.942  27.467 -0.1025  0.0340  0.0011
38146W        W81063  29.033  16.137  31.293  0.0982 -0.0224  0.0190
38147W        W81064  31.008  15.946  28.424 -0.0220  0.0328 -0.3464
38148W        W81065  31.220  17.394  30.927 -0.0648  0.0619 -0.0540
38149W        W81066  29.379  16.511  31.544  0.1599 -0.1223 -0.2142
38150W        W81067  31.837  15.461  31.166  0.0649 -0.0053  0.1348
38151W        W81068  30.668  16.000  27.924  0.1433  0.3363  0.0930
38152W        W81069  28.969  15.063  26.484 -0.2005 -0.1401 -0.1489
38153W        W81070  29.883  16.306  29.958 -0.1640 -0.0376  0.0403
38154W        W81071  29.673  15.746  30.536  0.3796  0.2166 -0.0809
38155W        W81072  32.038  15.023  29.106 -0.5394 -0.2027 -0.0682
38156W        W81073  32.414  17.018  28.379  0.0561 -0.1303  0.0394
38157W        W81074  31.125  18.568  29.374  0.0972  0.1186  0.2007
38158W        W81075  30.592  17.044  30.844 -0.1498 -0.0649 -0.1842
38159W        W81076  33.402  15.621  30.362 -0.0586  0.1537 -0.1784
38160W        W81077  30.833  18.267  31.176 -0.0279  0.4416  0.0314
38161W        W81078  29.394  17.807  28.638 -0.0426  0.1512  0.2765
38162W        W81079  31.115  17.853  30.530 -0.2521 -0.1846  0.0602
38163W        W81080  32.899  16.568  27.638 -0.1459  0.2178 -0.2564
38164W        W81081  31.112  17.867  31.079 -0.0683  0.0600  0.1765
38165W        W81082  30.191  17.923   0.781 -0.5321  0.0357  0.1002
38166W        W81083  30.126  17.436  28.244  0.0064  0.1598  0.0182
38167W        W81084  32.278  16.679  30.133 -0.0243 -0.1395  0.3180
38168W        W81085  31.244  17.158  29.791  0.3213 -0.0706  0.0323
38169W        W81086  31.241  17.985  28.834  0.0870  0.0118  0.2617
38170W        W81087  31.917  14.730  27.500  0.0522  0.0554 -0.0210
38171W        W81088  29.854  17.533  29.974 -0.3971 -0.0333  0.3539
38172W        W81089  31.587  16.587  28.859 -0.2624 -0.1517  0.1652
38173W        W81090  29.129  16.575  31.083 -0.0611  0.1829  0.3272
38174W        W81091  28.816  18.164  30.542  0.0013  0.3566 -0.1065
38175W        W81092  32.234  14.459   0.221  0.0593 -0.0002  0.1893
38176W        W81093  30.212  17.113  27.864 -0.1792  0.1974 -0.1638
38177W        W81094  33.570  16.166  27.683 -0.3086  0.2259 -0.5112
38178W        W81095  31.075  14.012  26.654  0.2431 -0.0805  0.0769
38179W        W81096  31.277  16.598  27.709  0.3717 -0.1915 -0.0751
38180W        W81097  32.832  14.271  28.821 -0.1882 -0.0363 -0.1765
38181W        W81098  28.377  17.429  29.546 -0.0806  0.1842 -0.1703
38182W        W81099  30.544  14.394  27.304 -0.1294  0.0129  0.0608
38183W        W81100  33.247  14.740  30.477  0.0912  0.0539 -0.0087
38184W        W81101  30.875  14.884  28.326  0.1519  0.0376  0.0768
38185W        W81102  31.753  17.045  29.746  0.0546  0.1134  0.3172
38186W        W81103  31.981  18.046  31.303  0.2886  0.1221 -0.1736
38187W        W81104  30.534  16.659  30.043 -0.0982  0.1274 -0.2831
38188W        W81105  31.267  20.565  27.413  0.0426  0.1623 -0.1512
38189W        W81106  33.428  17.445  27.821  0.2137  0.0018  0.3597
38190W        W81107  28.740  19.277  27.353 -0.0895  0.0419 -0.1017
38191W        W81108  31.603  15.511  26.734  0.1298 -0.1278  0.3176
38192W        W81109  30.830  17.705  28.782  0.1822 -0.3126 -0.2265
38193W        W81110  31.868  15.467   0.918  0.0428 -0.0793  0.0849
38194W        W81111  29.480  13.553  28.867 -0.0284 -0.2080 -0.0920
38195W        W81112  34.351  15.789  30.820 -0.1563  0.0599  0.0052
38196W        W81113  29.045  19.067  31.059  0.0189 -0.1284  0.0935
38197W        W81114  32.626  15.496  30.033  0.1568 -0.1976  0.0684
38198W        W81115  31.034  18.759  30.527 -0.0309  0.0693 -0.1658
38199W        W81116  31.993  17.877  30.184 -0.1288  0.2902  0.1233
38200W        W81117  30.693  15.099  28.973  0.3077 -0.2297  0.0212
38201W        W81118  33.095  15.206  30.505  0.0520 -0.3576 -0.0978
38202W        W81119  32.632  15.923  29.757  0.0634  0.2558 -0.2857
38203W        W81120  30.462  15.224  28.562 -0.1338 -0.1163 -0.1373
38204W        W81121  30.429  15.920  27.481 -0.2220  0.1186 -0.1950
38205W        W81122  31.978  17.460  30.510 -0.1489 -0.0819 -0.0840
38206W        W81123  31.332  14.740  28.206  0.1352 -0.1401  0.0430
38207W        W81124  29.359  17.004  29.352 -0.1774  0.1325 -0.2630
38208W        W81125  32.300  14.822  31.737 -0.0361 -0.3372 -0.0896
38209W        W81126  31.540  16.136  30.617 -0.0005 -0.0991 -0.1873
38210W        W81127  28.345  17.684  26.452  0.1815  0.4426  0.0987
38211W        W81128  27.202  17.148  29.805 -0.4915  0.1905  0.1720
38212W        W81129  29.789  18.767  29.063 -0.3267 -0.3396  0.0121
38213W        W81130  29.333  14.062  29.424 -0.2302  0.2013  0.1118
38214W        W81131  28.736  16.511  30.162 -0.2364 -0.1103  0.2506
38215W        W81132  33.573  13.592  29.863 -0.0459 -0.0655 -0.1262
38216W        W81133  29.763  14.145  30.394  0.1317  0.0777 -0.1829
38217W        W81134  33.583  14.785  28.960  0.0470  0.2555 -0.0770
38218W        W81135  30.561  16.563  29.000  0.2318 -0.0636 -0.0400
38219W        W81136  30.698  17.346  28.081  0.0790 -0.0617 -0.1508
38220W        W81137  31.941  16.257  29.135  0.0128 -0.0664 -0.0697
38221W        W81138  31.450  17.046  26.802  0.1606 -0.1111 -0.0874
38222W        W81139  29.400  15.726  27.416  0.0216 -0.2042 -0.0371
38223W        W81140  29.423  17.428  30.224  0.3219  0.1471  0.0489
38224W        W81141  30.955  14.910  29.707  0.0812  0.2562 -0.0152
38225W        W81142  29.575  14.970  27.506 -0.0981 -0.0104  0.1806
38226W        W81143  32.821  16.840  29.641 -0.0285  0.0919 -0.0556
38227W        W81144  29.597  14.049  26.450 -0.1769 -0.1756  0.3114
38228W        W81145  32.680  14.853  30.506  0.2676 -0.1988  0.0496
38229W        W81146  29.773  15.950  28.307 -0.3246 -0.1298 -0.2789
38230W        W81147  30.614  14.610  29.247  0.1886 -0.0351 -0.1499
38231W        W81148  30.295  15.730  30.854  0.1843 -0.4495 -0.0738
38232W        W81149  31.112  18.485  27.437  0.1092 -0.0492  0.1655
38233W        W81150  34.469  18.556  30.758 -0.2942  0.0708  0.2492
38234W        W81151  33.859  18.107  29.675  0.0823  0.0928 -0.1114
38235W        W81152  29.300  15.638  29.757 -0.0561  0.2179 -0.2050
38236W        W81153  29.340  13.930  27.438  0.0802 -0.0165  0.0717
38237W        W81154  29.199  18.308  30.293  0.1363  0.0408  0.3556
38238W        W81155  30.469  18.455  29.840  0.1532  0.1070 -0.0558
38239W        W81156  29.294  14.067  27.905 -0.1692 -0.0704  0.2293
38240W        W81157  32.084  16.666  28.854  0.0155  0.0728 -0.2482
38241W        W81158  30.481  15.724  28.414 -0.0003 -0.2784  0.0387
38242W        W81159  29.858  17.167  29.561  0.1043 -0.1480 -0.0802
38243W        W81160  33.261  14.911  30.976 -0.0946  0.0677 -0.3493
38244W        W81161  32.991  18.724  28.096 -0.0649 -0.1054  0.1706
38245W        W81162  31.188  13.996  30.368  0.0208 -0.1141  0.0984
38246W        W81163  31.136  13.922  28.551 -0.3880  0.3131  0.3440
38247W        W81164  32.125  18.769  29.541  0.3185 -0.0504 -0.0279
38248W        W81165  27.881  19.649  26.816  0.2269  0.0403 -0.0973
38249W        W81166  29.451  15.781  28.640 -0.1859  0.1340  0.0843
38250W        W81167  30.790  16.698  28.598  0.0382 -0.0738 -0.1419
38251W        W81168  33.554  16.085  30.199  0.1374 -0.2445 -0.2895
38252W        W81169  28.197  16.709  30.184  0.1476  0.2517  0.0543
38253W        W81170  32.097  14.603  30.172 -0.1667 -0.2171 -0.1805
38254W        W81171  29.288  14.012  28.943 -0.0523 -0.1470  0.3752
38255W        W81172  29.835  18.602  31.498 -0.1654  0.0706  0.1175
38256W        W81173  32.654  15.381  25.098 -0.3525 -0.1442 -0.3008
38257W        W81174  33.314  15.516  29.183  0.1038  0.0487 -0.2347
38258W        W81175  30.526  15.698  29.510 -0.0238 -0.1216  0.0300
38259W        W81176  31.103  15.718  28.027 -0.2844  0.0935  0.0120
38260W        W81177  32.168  15.605  27.600 -0.2595  0.0155 -0.0859
38261W        W81178  32.269  14.593  26.885  0.0516 -0.2234 -0.1951
38262W        W81179  30.962  15.494  30.240  0.0954  0.2730 -0.2750
38263W        W81180  30.220  16.868  28.732 -0.1250 -0.3907 -0.2005
38264W        W81181  29.796  17.890  30.984 -0.0468 -0.4877  0.1064
38265W        W81182  31.762  17.488  27.893 -0.0892  0.0057 -0.3074
38266W        W81183  32.076  18.695  27.252 -0.0734  0.0239 -0.1168
38267W        W81184  30.971  18.244  30.223  0.0030 -0.2152  0.1453
38268W        W81185  32.430  17.907  30.576  0.0934  0.1632 -0.0324
38269W        W81186  31.504  18.755  30.767 -0.1402  0.2667  0.0393
38270W        W81187  31.834  13.851  30.007  0.1585 -0.1709  0.1959
38271W        W81188  30.942  14.472  27.584 -0.1934 -0.5353  0.0358
38272W        W81189  29.759  12.957  28.155  0.1824  0.1510  0.0880
38273W        W81190  29.925  16.878  29.080 -0.3202  0.1868  0.1505
38274W        W81191  32.586  14.896  31.219  0.0637  0.0522  0.3200
38275W        W81192  31.845  15.870  29.540  0.1933 -0.2070 -0.1499
38276W        W81193  29.889  13.089   0.290  0.0373  0.0770  0.0692
38277W        W81194  32.549  15.405   0.412  0.0738 -0.1049  0.1764
38278W        W81195  30.918  15.434  28.393 -0.1558  0.0469  0.4998
38279W        W81196  31.292  17.488  28.872  0.0108  0.0712 -0.2859
38280W        W81197  29.560  14.797  27.058  0.3746 -0.1393 -0.0998
38281W        W81198  30.458  16.727   0.207  0.1160 -0.2192  0.2331
38282W        W81199  28.794  16.809  29.402  0.1286  0.0450  0.1703
38283W        W81200  30.126  17.994  29.964 -0.2979 -0.1220 -0.2260
38284W        W81201  31.976  15.367  30.468  0.0823 -0.1735  0.1398
38285W        W81202  30.559  17.779  29.754  0.0155 -0.2168 -0.3975
38286W        W81203  31.401  14.650  29.895 -0.0438  0.1609 -0.0067
38287W        W81204  29.959  14.150  26.069 -0.1582  0.2308  0.1473
38288W        W81205  29.368  17.178  28.721 -0.0893 -0.3141  0.0373
38289W        W81206  31.606  15.224  27.256 -0.2115  0.2555 -0.2611
38290W        W81207  30.668  15.764  30.015 -0.3634  0.1624  0.1393
38291W        W81208  28.777  19.144  29.703 -0.1611  0.3283 -0.4145
38292W        W81209  31.577  14.096  26.672  0.1907  0.0731 -0.0060
38293W        W81210  31.422  17.498  30.487 -0.1857 -0.0782 -0.4950
38294W        W81211  29.094  17.611  28.276 -0.2406  0.1254  0.0782
38295W        W81212  33.319  15.305  28.729 -0.0715 -0.0773  0.0301
38296W        W81213  28.994  18.871  28.958  0.0360  0.0175  0.1395
38297W        W81214  30.550  15.454  27.996  0.2066  0.1609  0.0432
38298W        W81215  30.515  15.137  29.490  0.0868 -0.0697 -0.1972
38299W        W81216  31.465  15.973  28.766 -0.1691  0.0587 -0.1633
38300W        W81217  30.392  17.644  27.853  0.2798 -0.0904  0.3122
38301W        W81218  29.828  14.049  28.281 -0.1526  0.1309 -0.2363
38302W        W81219  32.010  14.562  29.247 -0.1339  0.2692 -0.0690
38303W        W81220  29.516  18.066  29.956 -0.4658 -0.1340  0.1804
38304W        W81221  33.031  15.820  30.091  0.1171 -0.0872 -0.0435
38305W        W81222  33.855  14.524  26.589 -0.3230  0.0782 -0.0085
38306W        W81223  33.029  18.575  29.221 -0.2801 -0.1327  0.2576
38307W        W81224  30.689  16.543  30.976  0.2252  0.1419  0.1355
38308W        W81225  28.807  14.142  26.892  0.1637  0.1224 -0.0798
38309W        W81226  33.417  16.336  28.778 -0.0067 -0.0078  0.1567
38310W        W81227  30.903  18.807  28.249 -0.3231 -0.1618 -0.0365
38311W        W81228  30.663  17.899  30.883  0.1747 -0.2579  0.0323
38312W        W81229  31.575  17.961  30.688 -0.2012  0.3741 -0.4131
38313W        W81230  29.417  15.422  29.232 -0.2221 -0.1270 -0.0525
38314W        W81231  30.786  17.449  30.645  0.2039  0.1723  0.1340
38315W        W81232  29.734  15.255   1.048 -0.2765  0.2477 -0.0248
38316W        W81233  32.312  18.099  29.088 -0.1147 -0.3607  0.1092
38317W        W81234  31.344  15.654  29.899  0.2089 -0.0500  0.0262
38318W        W81235  29.851  14.703  30.307  0.1859  0.0372 -0.0247
38319W        W81236  31.786  15.297  27.728 -0.0795 -0.0359  0.1670
38320W        W81237  32.343  15.750  30.666  0.0598 -0.1172  0.0598
38321W        W81238  32.346  14.345  30.537  0.2512 -0.1443  0.0487
38322W        W81239  30.223  19.289  30.693 -0.3003 -0.3064  0.2124
38323W        W81240  31.053  13.672  29.216  0.2619 -0.2433 -0.0913
38324W        W81241  32.740  18.743  28.544  0.1129 -0.1314 -0.0519
38325W        W81242  29.787  16.204  30.439  0.1238 -0.1911  0.2385
38326W        W81243  28.515  14.844  28.017 -0.0435 -0.1462  0.0319
38327W        W81244  30.775  16.221  29.968  0.0113  0.0287 -0.0517
38328W        W81245  32.044  16.981  29.229 -0.2802  0.0486 -0.0909
38329W        W81246  32.710  14.612  30.035  0.1281 -0.3149 -0.0250
38330W        W81247  29.383  16.079  31.878 -0.0503 -0.3531 -0.0164
38331W        W81248  29.840  17.365  28.674  0.0680  0.0990 -0.2967
38332W        W81249  30.094  18.582  30.751 -0.2368  0.1313  0.1858
38333W        W81250  31.669  15.112  28.511  0.0955 -0.0323  0.4305
38334W        W81251  32.138  16.770  25.642 -0.0492  0.1438 -0.0841
38335W        W81252  31.292  17.090  30.276  0.0943  0.3428  0.1524
38336W        W81253  32.726  14.853  29.582  0.1144 -0.0634 -0.4317
38337W        W81254  32.242  14.357  27.302  0.1087  0.0519  0.0012
38338W        W81255  32.325  14.956   0.395 -0.0162  0.3552  0.2015
38339W        W81256  31.001  14.339  27.066  0.3225  0.2688 -0.1885
38340W        W81257  31.537  16.164  27.736  0.2073  0.0986  0.0512
38341W        W81258  31.025  15.697  30.728  0.4033 -0.0281 -0.2500
38342W        W81259  30.789  17.717   0.158  0.2636 -0.1053  0.0131
38343W        W81260  30.732  17.689   0.655  0.1759 -0.0199 -0.0135
38344W        W81261  30.671  17.024  29.053  0.1650 -0.0161  0.3394
38345W        W81262  29.749  15.439  27.564 -0.0486  0.0226 -0.0619
38346W        W81263  28.957  18.272  29.817 -0.2562  0.0218  0.1291
38347W        W81264  32.315  18.061  26.761  0.1503  0.3287  0.1067
38348W        W81265  30.199  15.736  27.856  0.2989 -0.0107 -0.2545
38349W        W81266  31.234  13.539  30.080 -0.0579 -0.3104  0.1229
38350W        W81267  28.787  16.366  29.600  0.4613  0.0228  0.2150
38351W        W81268  30.118  13.451  29.522  0.1187 -0.1450 -0.0012
38352W        W81269  31.811  15.716  27.250  0.3590 -0.0384  0.4727
38353W        W81270  30.291  16.315  29.700  0.0014  0.1697  0.0660
38354W        W81271  29.407  14.650   0.228  0.3600  0.0116 -0.0794
38355W        W81272  31.534  16.141  28.258  0.1013 -0.0491 -0.0715
38356W        W81273  32.998  15.106  29.092 -0.1375 -0.0014  0.1007
38357W        W81274  31.831  14.223  30.425  0.0275 -0.0431  0.0748
38358W        W81275  32.537  15.345  30.521 -0.0090  0.0551 -0.0279
38359W        W81276  30.116  15.857  29.264  0.2177 -0.1893  0.0629
38360W        W81277  31.462  15.607   0.595 -0.1691  0.1573 -0.0048
38361W        W81278  33.652  18.050  30.164 -0.2862 -0.0131 -0.1349
38362W        W81279  33.056  15.776  26.496 -0.0666 -0.1257 -0.1408
38363W        W81280  33.740  13.831  31.052  0.1822  0.0536  0.1811
38364W        W81281  33.487  16.863  28.836  0.0792 -0.0516 -0.1667
38365W        W81282  31.137  14.887  26.274 -0.1788 -0.0402 -0.1658
38366W        W81283  30.968  16.202  28.903 -0.0032  0.2416  0.1852
38367W        W81284  32.241  17.901  29.704  0.0766 -0.0646  0.4723
38368W        W81285  30.256  14.032  27.017  0.3047  0.3588 -0.2663
38369W        W81286  33.503  16.610  30.133 -0.5195 -0.0187 -0.1784
38370W        W81287  32.042  17.835  27.601 -0.0641  0.3310 -0.3163
38371W        W81288  30.284  16.124  28.158 -0.0783 -0.2259  0.1192
38372W        W81289  30.542  16.128  28.666  0.0792 -0.0089  0.3717
38373W        W81290  27.489  16.191  30.626  0.0976  0.4607  0.2934
38374W        W81291  30.381  17.956   0.054  0.7100 -0.0696 -0.2295
38375W        W81292  30.233  13.485  29.032 -0.0644 -0.2185 -0.1279
38376W        W81293  31.424  15.574  27.586  0.3767 -0.0792 -0.1345
38377W        W81294  31.435  16.649  29.562 -0.0743  0.0610 -0.0650
38378W        W81295  32.531  16.414  29.778 -0.0420  0.2526 -0.1871
38379W        W81296  30.755  15.036  27.811  0.4286  0.1391 -0.2428
38380W        W81297  33.025  16.519  31.899 -0.0954 -0.2923  0.1077
38381W        W81298  28.384  17.099  28.569 -0.0602 -0.2760  0.1731
38382W        W81299  32.135  14.754  28.688  0.2458 -0.2054  0.0322
38383W        W81300  29.843  19.163  29.450 -0.0254  0.1294  0.1900
38384W        W81301  29.008  16.065  29.946 -0.4259 -0.2056 -0.2376
38385W        W81302  30.861  17.977  29.270  0.2536 -0.0582  0.0151
38386W        W81303  29.737  12.824  31.295  0.0493  0.0235 -0.1694
38387W        W81304  33.627  14.351  29.925  0.1285  0.0466  0.1914
38388W        W81305  29.610  17.358  29.098  0.1741 -0.2187 -0.0492
38389W        W81306  31.382  17.233  28.321  0.1838 -0.3466  0.0636
38390W        W81307  32.222  17.248  30.084  0.1012 -0.3002  0.3529
38391W        W81308  29.273  17.139  30.685 -0.1744 -0.2893 -0.2403
38392W        W81309  31.488  17.959  30.138  0.0339 -0.0055 -0.1807
38393W        W81310  30.572  16.086  29.190 -0.0786 -0.0645 -0.4060
38394W        W81311  30.328  16.823  30.460 -0.1509  0.0880 -0.0992
38395W        W81312  32.821  16.923  30.726 -0.1469 -0.3061 -0.1443
38396W        W81313  31.126  18.306  30.743 -0.3562  0.1599  0.1214
38397W        W81314  30.797  16.990  30.399  0.0068 -0.0175 -0.0874
38398W        W81315  31.581  14.287  29.443 -0.1902  0.1670  0.1863
38399W        W81316  29.288  16.754  27.551 -0.0892 -0.2294 -0.1084
38400W        W81317  28.061  17.774  30.626 -0.1023 -0.4748  0.1537
38401W        W81318  29.559  15.168  29.751  0.1032  0.1842  0.3596
38402W        W81319  29.725  19.712  27.363 -0.2883  0.1967  0.0748
38403W        W81320  32.539  17.073  25.750  0.3552 -0.3003 -0.0528
38404W        W81321  31.250  14.069  27.492  0.4153  0.2959  0.1402
38405W        W81322  33.413  17.803  29.820  0.1382 -0.1221  0.2034
38406W        W81323  28.986  15.843  27.049 -0.1151  0.3861 -0.2792
38407W        W81324  28.833  17.503  29.322 -0.1896  0.0782  0.4571
38408W        W81325  28.714  15.751  28.579 -0.2018  0.2885 -0.0660
38409W        W81326  31.812  18.473  25.765 -0.1067  0.0067 -0.1008
38410W        W81327  29.026  18.521  28.130  0.1120 -0.0832  0.2612
38411W        W81328  34.039  15.708   0.124  0.0595  0.2423  0.0164
38412W        W81329  32.694  15.255  27.618 -0.2117  0.1866 -0.0977
38413W        W81330  32.655  14.719  28.618  0.0404 -0.3353  0.3202
38414W        W81331  32.552  16.993  27.861  0.2308 -0.1166 -0.1466
38415W        W81332  30.516  18.072   1.092 -0.1560 -0.1822 -0.1807
38416W        W81333  31.359  14.707  30.852 -0.3048  0.2639 -0.1441
38417W        W81334  30.729  14.623  26.190  0.0174 -0.0231 -0.3503
38418W        W81335  29.810  15.758  31.120 -0.2287  0.0793  0.0837
38419W        W81336  32.526  13.954   0.002  0.2842 -0.2646 -0.2181
38420W        W81337  27.157  16.390  30.907  0.0222 -0.2337 -0.4151
38421W        W81338  31.849  20.107  26.881 -0.2360  0.1132  0.0937
38422W        W81339  30.543  13.549  27.532  0.3640 -0.2129  0.2009
38423W        W81340  31.832  17.923  28.103 -0.0471 -0.2472 -0.1502
38424W        W81341  33.761  14.716  30.265 -0.2327 -0.4575  0.3344
38425W        W81342  31.230  16.034  27.336 -0.2779  0.1462  0.0473
38426W        W81343  32.536  16.023  30.268 -0.1725  0.0763 -0.2026
38427W        W81344  29.780  17.022  30.581  0.0059 -0.1699 -0.3225
38428W        W81345  31.474  17.447  29.501  0.0711 -0.2442 -0.0436
38429W        W81346  33.481  17.708  30.860 -0.1764 -0.0735  0.1451
38430W        W81347  28.998  17.124  28.358 -0.2405  0.0734 -0.1475
38431W        W81348  33.759  14.778  30.839 -0.1796  0.3532 -0.1465
38432W        W81349  30.252  16.844  29.471  0.0575  0.3757  0.1805
38433W        W81350  31.911  14.336  27.864  0.0860 -0.2500  0.1462
38434W        W81351  31.499  14.601  29.033  0.2118 -0.1961  0.1318
38435W        W81352  33.235  14.242  27.454 -0.1831  0.0713  0.0063
38436W        W81353  32.276  16.984  29.677 -0.0082 -0.0071  0.0636
38437W        W81354  29.508  16.024   0.680 -0.2488 -0.0544  0.1379
38438W        W81355  31.505  16.021  26.928  0.0309 -0.0863  0.1449
38439W        W81356  31.416  15.231  29.636  0.2404 -0.0745  0.0423
38440W        W81357  31.818  14.189  28.999 -0.1488  0.0050  0.0160
38441W        W81358  30.811  19.668  30.339  0.3036  0.0540  0.1084
38442W        W81359  28.660  14.772  29.695  0.1941  0.0110  0.1303
38443W        W81360  32.684  14.552  26.456 -0.1664  0.0018  0.1063
38444W        W81361  28.274  18.238  30.565 -0.0177 -0.0675  0.0208
38445W        W81362  30.699  13.931  28.296 -0.0526  0.0631 -0.2064
38446W        W81363  31.633  16.452  31.205  0.1267  0.1634 -0.2961
38447W        W81364  30.464  15.354  27.532  0.1338  0.2562 -0.0487
38448W        W81365  32.242  15.864  26.261 -0.2315 -0.0482  0.2045
38449W        W81366  32.215  15.581  29.688  0.1455  0.1164  0.1741
38450W        W81367  29.875  18.484  29.952 -0.2028  0.4970  0.2429
38451W        W81368  32.770  15.683  27.839  0.0342 -0.1299 -0.2269
38452W        W81369  31.077  17.641  28.330 -0.1829 -0.0497 -0.0525
38453W        W81370  30.678  15.961  31.091 -0.0026 -0.0739 -0.0194
38454W        W81371  32.329  17.949  28.063  0.0469 -0.2802  0.2085
38455W        W81372  30.422  19.279  28.826  0.0399 -0.1425  0.0826
38456W        W81373  30.337  15.409  30.415 -0.5321  0.1984  0.1510
38457W        W81374  32.110  16.165  30.524  0.3554  0.0110  0.0675
38458W        W81375  28.011  19.947  28.403 -0.0715  0.3471 -0.0312
38459W        W81376  33.403  16.454  30.891 -0.0410 -0.3261 -0.1554
38460W        W81377  32.217  15.667  30.162 -0.2529 -0.4171 -0.0990
38461W        W81378  32.000  17.057  28.112  0.1122 -0.1354  0.2066
38462W        W81379  33.207  11.796  30.960  0.0041  0.1237  0.0292
38463W        W81380  31.740  17.392  29.075 -0.1267 -0.2171 -0.1582
38464W        W81381  29.509  18.971  31.834 -0.0503  0.0919  0.1836
38465W        W81382  29.862  16.494  28.216 -0.0455 -0.0688  0.2359
38466W        W81383  28.714  14.960  29.234 -0.0038  0.0694  0.0865
38467W        W81384  29.538  16.484  29.270 -0.1191  0.1694  0.1626
38468W        W81385  30.037  14.451  27.376 -0.0761  0.3281 -0.0541
38469W        W81386  31.147  16.408  28.503  0.0249  0.0103 -0.1505
38470W        W81387  31.847  16.558  30.514  0.2783  0.0121 -0.1865
38471W        W81388  31.469  15.599  28.395  0.2201 -0.0920 -0.1491
38472W        W81389  28.756  13.558  28.875 -0.0950 -0.0057 -0.0522
38473W        W81390  31.533  14.277  28.178  0.1019 -0.1110 -0.0077
38474W        W81391  31.883  13.840  27.091  0.0278  0.1472  0.0206
38475W        W81392  30.568  14.665  28.657 -0.1086  0.2008 -0.4856
38476W        W81393  28.595  16.216  27.372 -0.3571  0.2697 -0.1446
38477W        W81394  29.262  15.396  27.815 -0.1287 -0.0837 -0.0740
38478W        W81395  29.696  18.385  31.068 -0.1575 -0.2599 -0.0425
38479W        W81396  31.618  13.987  31.193 -0.0698 -0.3325  0.0614
38480W        W81397  29.254  15.492  31.815 -0.0557  0.2658  0.0203
38481W        W81398  31.172  16.910  30.767 -0.0669 -0.1038 -0.0051
38482W        W81399  29.639  13.486  28.301  0.2024  0.0991 -0.2235
38483W        W81400  31.311  16.489  26.613 -0.1433 -0.4048  0.0278
38484W        W81401  31.378  15.615  29.330 -0.1264 -0.6349  0.0018
38485W        W81402  28.942  13.773  27.193  0.2846  0.3085 -0.1890
38486W        W81403  30.986  18.051  29.745 -0.0235  0.1947  0.1393
38487W        W81404  33.141  16.946  29.169 -0.1261 -0.1335  0.1285
38488W        W81405  29.635  14.968  28.141  0.1601 -0.0173  0.1959
38489W        W81406  34.107  17.568   0.143 -0.3077  0.1583 -0.1413
38490W        W81407  28.231  15.675  28.136  0.3052  0.1630 -0.1522
38491W        W81408  33.686  15.565  31.766 -0.0860 -0.0106  0.1088
38492W        W81409  33.686  15.242  31.266 -0.4383 -0.3689 -0.0655
38493W        W81410  28.454  12.876  28.445 -0.0328  0.0445  0.0395
38494W        W81411  30.175  13.000  29.212  0.0025 -0.0124  0.1674
38495W        W81412  30.597  18.008  27.545  0.2102 -0.1547  0.0445
38496W        W81413  31.356  18.028  28.269  0.0613 -0.3875  0.1693
38497W        W81414  32.443  16.585  30.730 -0.1632 -0.0024  0.5059
38498W        W81415  30.807  16.446  30.455 -0.1588 -0.3379 -0.0603
38499W        W81416  27.312  14.464  30.423  0.1002 -0.1740 -0.3096
38500W        W81417  30.894  16.345  27.512 -0.0823  0.0227 -0.0999
38501W        W81418  29.905  17.929   0.396 -0.1060  0.2458 -0.0283
38502W        W81419  32.587  15.395  26.503  0.0934  0.2079  0.2584
38503W        W81420  34.619  14.479  30.509  0.0535  0.0283  0.0818
38504W        W81421  31.398  16.185  29.247 -0.2131  0.0779 -0.1725
38505W        W81422  29.137  12.151  31.297  0.1328  0.1548  0.1219
38506W        W81423  29.646  19.017  29.918  0.0499 -0.2570  0.1474
38507W        W81424  32.346  16.105  29.388 -0.3199 -0.0648  0.0094
38508W        W81425  31.020  15.951  29.406  0.1200  0.1878 -0.1989
38509W        W81426  31.827  16.590  27.866 -0.0807 -0.0784 -0.1314
38510W        W81427  31.287  18.959  29.682 -0.0760  0.0595  0.0316
38511W        W81428  29.213  14.930  28.882 -0.0533 -0.0172  0.3960
38512W        W81429  31.485  14.712  27.150  0.3628  0.0793  0.1927
38513W        W81430  32.066  16.286  31.016  0.0319 -0.1210  0.1882
38514W        W81431  30.054  18.252  29.048  0.0793 -0.1564 -0.3094
38515W        W81432  33.911  14.287   0.412 -0.0402 -0.2363 -0.1380
38516W        W81433  30.213  15.215  29.072  0.2701 -0.0785  0.0385
38517W        W81434  33.037  15.942  27.015  0.1174 -0.0203 -0.0988
38518W        W81435  30.595  17.905  30.281  0.1632  0.0165  0.0934
38519W        W81436   0.757  18.859  27.423 -0.2188 -0.0189  0.2419
38520W        W81437  30.562  19.190  31.164 -0.1056 -0.0027 -0.1186
38521W        W81438  32.980  16.355  29.447 -0.2950 -0.3474 -0.2951
38522W        W81439  29.691  16.100  29.009 -0.0838  0.3025 -0.0740
38523W        W81440  31.252  16.177  29.806  0.2509  0.0256  0.2822
38524W        W81441  30.781  16.939  29.516 -0.1777 -0.3724 -0.1219
38525W        W81442  30.934  15.415  29.738 -0.2231 -0.1395 -0.0025
38526W        W81443  31.209  16.040  31.236 -0.3709  0.0479  0.2762
38527W        W81444  31.688  14.629  28.551 -0.2226 -0.1697  0.3586
38528W        W81445  29.734  18.096  31.440  0.0738  0.1556  0.0395
38529W        W81446  31.903  18.218  29.372 -0.0141  0.0790  0.0070
38530W        W81447  30.921  14.731  31.088  0.3655  0.1489  0.0623
38531W        W81448  31.808  14.972  29.934  0.2563  0.2552 -0.1478
38532W        W81449  31.049  14.234  31.222  0.0239 -0.3637  0.0930
38533W        W81450  30.858  16.858   1.359  0.0673 -0.2334 -0.1943
38534W        W81451  31.228  16.675   1.111  0.0012 -0.3677 -0.0834
38535W        W81452  28.364  19.248   0.611  0.0210  0.2088  0.2117
38536W        W81453  32.672  16.130  30.712 -0.0403  0.2770  0.0384
38537W        W81454  31.099  14.643  31.593 -0.3721  0.1007  0.0905
38538W        W81455  32.656  15.156  31.935 -0.1360 -0.6052  0.2937
38539W        W81456  34.384  16.313   0.306  0.0069  0.1624 -0.0051
38540W        W81457  29.645  17.359  30.970 -0.0525  0.0925  0.0643
38541W        W81458  31.296  15.134  30.082 -0.1144  0.1888 -0.3491
38542W        W81459  30.830  16.715  31.859 -0.0577 -0.2132  0.1120
38543W        W81460  31.143  15.136  30.588 -0.1059  0.0850 -0.2319
38544W        W81461  32.298  15.335  30.979 -0.0683  0.1552 -0.1919
38545W        W81462  29.267  17.432   0.087 -0.1964 -0.3330  0.1691
38546W        W81463  30.666  18.661   0.086  0.3530 -0.2560  0.0934
38547W        W81464  33.087  18.268   0.770  0.0190 -0.3836 -0.1907
38548W        W81465  28.828  14.483  31.351  0.0009 -0.2039 -0.0676
38549W        W81466  28.958  16.694  30.623  0.0226 -0.2823 -0.1473
38550W        W81467  29.390  14.503  29.072 -0.0158 -0.1761  0.1895
38551W        W81468  28.918  15.689  31.491  0.0123 -0.1440  0.2151
38552W        W81469  33.560  15.962  30.755 -0.1911 -0.2119  0.2679
38553W        W81470  31.427  15.536  30.923  0.2322 -0.3027  0.0035
38554W        W81471  30.115  14.845  30.794  0.4593  0.0806 -0.1240
38555W        W81472  32.051  16.886  31.447 -0.0421  0.0501  0.0503
38556W        W81473  30.227  16.253   0.366  0.1840  0.2336 -0.4768
38557W        W81474  29.585  18.998  31.008  0.1991 -0.2446  0.0533
38558W        W81475  30.842  14.303  30.724  0.0401 -0.1672 -0.0383
38559W        W81476  31.026  17.992   0.947  0.0007  0.1306  0.0209
38560W        W81477  29.114  20.134  31.480  0.0788  0.0507  0.4085
38561W        W81478  30.816  14.946  30.212 -0.0314 -0.2958  0.0854
38562W        W81479  34.129  15.585  31.511  0.4703 -0.0025  0.0204
38563W        W81480  33.195  16.555  31.387 -0.0511 -0.0555  0.1063
38564W        W81481  30.297  14.211  29.439 -0.2147  0.0529 -0.1206
38565W        W81482  29.865  18.082  31.896 -0.0441  0.0110  0.1816
38566W        W81483  30.571  15.271  30.883 -0.0752 -0.1760  0.1568
38567W        W81484  32.888  15.707  30.551 -0.1717 -0.2847 -0.3615
38568W        W81485  33.221  15.362   0.086 -0.0920 -0.1498  0.1929
38569W        W81486  32.490  15.983   0.358  0.0108  0.0866 -0.0099
38570W        W81487  31.871  16.829  30.953  0.0562 -0.5270  0.3893
38571W        W81488  31.083  16.236  30.806  0.1417 -0.1204 -0.0010
38572W        W81489  30.092  15.293  31.206  0.2110 -0.1415  0.0316
38573W        W81490  32.061  19.372   0.973 -0.0730  0.0198  0.0309
38574W        W81491  30.402  14.848  31.195 -0.2953  0.1313  0.1376
38575W        W81492  31.989  17.339  31.064  0.1298 -0.2884 -0.0395
38576W        W81493  30.896  12.272  29.062  0.1216 -0.1415  0.1603
38577W        W81494  30.279  15.756  31.393 -0.0616 -0.2515  0.2923
38578W        W81495  31.551  17.361   1.072  0.1781  0.0326 -0.2018
38579W        W81496  29.411  15.871  31.421  0.2551 -0.0813 -0.0202
38580W        W81497  33.684  17.283  30.871 -0.4412  0.0822 -0.0475
38581W        W81498  31.800  14.365  29.859  0.1484 -0.1134  0.0789
38582W        W81499  30.665  13.989   0.464 -0.3486 -0.0469  0.1792
38583W        W81500  31.640  17.185  30.795 -0.5116  0.1427  0.3266
38584W        W81501  30.295  16.318  31.305  0.0838  0.3082 -0.0840
38585W        W81502  31.581  18.298  31.020 -0.0801  0.2064  0.1407
38586W        W81503  31.366  18.036  29.339  0.0262  0.1790 -0.1941
38587W        W81504  31.284  18.447   1.282 -0.1002 -0.0577 -0.0041
38588W        W81505  30.158  17.337  30.860  0.1303  0.1547  0.1084
38589W        W81506  30.194  15.794  29.893 -0.2583 -0.4376 -0.2786
38590W        W81507  28.806  16.520   0.222  0.0583 -0.0388  0.0752
38591W        W81508  30.844  16.253  31.462  0.0950 -0.2425  0.1292
38592W        W81509  28.336  17.356  30.582 -0.0684 -0.2458  0.0453
38593W        W81510  29.450  14.259  29.937  0.0533  0.0564 -0.0985
38594W        W81511  31.492  18.285   0.802  0.1384  0.0829  0.1672
38595W        W81512  34.532  15.659  30.372  0.2167 -0.0800  0.0627
38596W        W81513  32.490  14.387  31.563 -0.1950  0.1812 -0.1305
38597W        W81514  30.027  19.468  19.205  0.0467 -0.0019  0.0490
38598W        W81515  30.324  20.764  17.707  0.0685  0.0201  0.1560
38599W        W81516  32.574  18.593  17.501  0.2805 -0.1707  0.1819
38600W        W81517  30.867  19.525  17.287 -0.0340 -0.1667 -0.0268
38601W        W81518  27.488  18.492  18.787 -0.0983 -0.0479  0.0587
38602W        W81519  31.705  21.088  17.382  0.0385 -0.3566 -0.4585
38603W        W81520  28.671  17.634  19.483 -0.0239  0.1564 -0.0500
38604W        W81521  30.792  22.047  18.535  0.0105  0.1476 -0.1178
38605W        W81522  30.982  20.856  18.080 -0.2718  0.1305  0.1749
38606W        W81523  31.847  20.171  17.781 -0.2180  0.0024 -0.0960
38607W        W81524  30.820  20.059  19.908  0.4720 -0.0465  0.1324
38608W        W81525  29.666  19.301  20.624  0.5083  0.0536  0.2570
38609W        W81526  30.134  17.755  16.512  0.0637  0.0814  0.0579
38610W        W81527  29.853  18.471  17.853  0.2251 -0.3807  0.0987
38611W        W81528  31.987  20.708  18.646 -0.0054  0.1944  0.1912
38612W        W81529  28.411  20.095  18.453 -0.2107  0.0932  0.1760
38613W        W81530  29.512  18.762  19.061  0.0936  0.1379  0.5788
38614W        W81531  29.798  19.425  17.612  0.2441 -0.2582  0.1375
38615W        W81532  32.040  22.267  17.313 -0.0126  0.0449  0.3755
38616W        W81533  31.208  21.024  19.193 -0.3214 -0.0051 -0.3384
38617W        W81534  29.695  19.779  18.863  0.0241  0.1421  0.0204
38618W        W81535  30.618  21.533  18.383  0.1398 -0.0861  0.0298
38619W        W81536  28.180  19.595  17.212  0.3391 -0.2077  0.1832
38620W        W81537  28.164  19.665  18.781 -0.1857  0.1193  0.0141
38621W        W81538  30.454  19.028  19.444 -0.3456 -0.0859  0.1327
38622W        W81539  30.817  20.107  17.187 -0.2107 -0.1956  0.1185
38623W        W81540  31.337  22.059  19.762  0.1420 -0.0909 -0.2091
38624W        W81541  30.800  20.788  18.989 -0.3964  0.0730 -0.2338
38625W        W81542  34.600  21.918  19.168  0.0368 -0.0268  0.0494
38626W        W81543  31.855  20.804  20.048  0.0349 -0.0932 -0.1413
38627W        W81544  30.113  20.389  17.466  0.0364  0.3273 -0.1279
38628W        W81545  30.752  21.529  17.642  0.2435  0.0752  0.0695
38629W        W81546  31.701  23.056  17.892  0.1455 -0.2294 -0.3667
38630W        W81547  32.732  19.956  17.369 -0.0571  0.1914  0.2617
38631W        W81548  31.124  21.654  18.423 -0.1998  0.1005  0.1019
38632W        W81549  30.346  23.581  20.769  0.2926  0.0538 -0.4291
38633W        W81550  31.184  21.340  17.404 -0.1258 -0.0184  0.1251
38634W        W81551  31.432  21.160  17.834  0.0212  0.1334 -0.3941
38635W        W81552  29.883  20.226  20.391  0.1603  0.0655  0.0039
38636W        W81553  28.407  19.365  20.048  0.0782  0.2092  0.1758
38637W        W81554  31.142  21.061  16.877  0.0110  0.0234 -0.0012
38638W        W81555  29.914  23.158  18.915 -0.1883  0.0983  0.1113
38639W        W81556  32.958  22.387  18.232 -0.1298  0.0936  0.1319
38640W        W81557  30.669  19.946  19.013  0.0741 -0.1346 -0.0826
38641W        W81558  27.356  20.210  18.755 -0.2115 -0.1194  0.1344
38642W        W81559  33.342  19.073  18.335 -0.2420  0.2296  0.0859
38643W        W81560  29.012  22.531  18.189 -0.2868  0.0785  0.0188
38644W        W81561  31.374  19.735  16.743  0.0493 -0.0355 -0.0178
38645W        W81562  27.301  19.624  19.555  0.0889 -0.0224  0.1218
38646W        W81563  30.822  18.264  16.961 -0.0629  0.1765 -0.0476
38647W        W81564  30.440  18.220  20.122  0.1385  0.1661 -0.0675
38648W        W81565  29.434  19.977  19.719  0.1721  0.0339 -0.0848
38649W        W81566  30.389  18.940  18.364  0.1870 -0.0361  0.0928
38650W        W81567  30.791  19.988  20.407 -0.0818  0.3107  0.2126
38651W        W81568  31.511  19.417  17.244  0.1626  0.1229  0.0851
38652W        W81569  31.297  20.256  20.335  0.0276  0.2033  0.1503
38653W        W81570  30.027  21.311  19.280  0.0876  0.2029  0.0267
38654W        W81571  28.802  18.884  17.838  0.0909 -0.2656 -0.0570
38655W        W81572  32.349  22.793  16.572  0.0081 -0.1023 -0.0274
38656W        W81573  33.436  22.946  18.194 -0.1128  0.0483 -0.0056
38657W        W81574  29.759  20.685  17.888  0.1763  0.0846 -0.0743
38658W        W81575  30.294  20.306  16.597  0.2979  0.2030  0.1726
38659W        W81576  30.107  19.432  17.992  0.0799  0.1550 -0.1466
38660W        W81577  30.709  18.501  19.755  0.2043 -0.0222  0.0327
38661W        W81578  30.187  17.107  17.847  0.1658  0.1174 -0.0033
38662W        W81579  34.554  21.437  20.047  0.5876 -0.3247 -0.0003
38663W        W81580  28.232  20.801  20.831  0.0326 -0.3388  0.1780
38664W        W81581  33.902  18.623  18.952  0.2067  0.0061  0.1793
38665W        W81582  28.521  20.373  18.978 -0.0429 -0.0124 -0.2509
38666W        W81583  32.413  20.875  19.888 -0.1009  0.0401  0.0012
38667W        W81584  30.983  20.572  17.026  0.0930 -0.0540 -0.0414
38668W        W81585  30.054  17.282  19.901  0.3698 -0.1618 -0.0687
38669W        W81586  32.692  17.836  18.461  0.1756  0.0162 -0.0766
38670W        W81587  30.300  18.177  16.742  0.1108 -0.1835 -0.3120
38671W        W81588  29.486  20.107  19.170 -0.1266  0.0647  0.1877
38672W        W81589  30.421  20.372  18.601  0.1362 -0.0405 -0.0622
38673W        W81590  29.005  19.992  16.825 -0.0318 -0.0654  0.2654
38674W        W81591  27.901  21.945  19.700  0.0018  0.1477  0.1606
38675W        W81592  30.263  18.565  19.286  0.1327  0.1351  0.0914
38676W        W81593  32.316  22.043  20.495  0.2890 -0.1612 -0.0564
38677W        W81594  29.921  22.262  18.130  0.0647  0.2004 -0.1407
38678W        W81595  29.538  21.140  19.680  0.4448 -0.0267  0.0805
38679W        W81596  28.641  20.270  18.038  0.3212 -0.0186 -0.0378
38680W        W81597  29.968  18.127  22.316  0.0270  0.3356  0.1532
38681W        W81598  30.195  21.896  20.403  0.0923  0.1540  0.0218
38682W        W81599  31.391  17.462  16.810  0.0874 -0.2316  0.0846
38683W        W81600  29.202  17.586  22.346  0.1002 -0.0888  0.1000
38684W        W81601  32.296  17.508  18.004  0.3339  0.0802  0.0326
38685W        W81602  29.938  20.293  17.011  0.3114 -0.0787  0.2169
38686W        W81603  32.120  20.270  19.004 -0.0066 -0.0365  0.3676
38687W        W81604  31.030  19.586  18.595  0.1909 -0.3975  0.1985
38688W        W81605  32.302  21.369  17.516 -0.1198  0.2582 -0.0786
38689W        W81606  31.424  19.198  18.426 -0.0441 -0.1943  0.0774
38690W        W81607  29.218  19.575  17.043  0.0505 -0.0850 -0.1118
38691W        W81608  28.639  19.321  19.054  0.1276 -0.1460 -0.1812
38692W        W81609  27.787  19.193  19.427  0.0540 -0.3636 -0.0090
38693W        W81610  30.995  19.560  18.079 -0.0506 -0.2394  0.0659
38694W        W81611  29.034  17.283  17.883  0.1395  0.2555  0.0282
38695W        W81612  31.392  18.602  17.699 -0.0038  0.0125 -0.2440
38696W        W81613  29.359  19.687  17.931 -0.2131 -0.0876  0.1103
38697W        W81614  28.355  22.041  18.158  0.2224 -0.0685  0.0456
38698W        W81615  31.630  18.519  19.011 -0.1070 -0.1177  0.0153
38699W        W81616  29.517  22.141  17.861  0.2227 -0.0658  0.0421
38700W        W81617  31.424  21.379  20.781  0.0274  0.1954 -0.0690
38701W        W81618  31.666  20.385  18.193  0.0690  0.0626 -0.1823
38702W        W81619  29.084  18.839  18.814  0.0245  0.1515 -0.0532
38703W        W81620  27.933  20.007  17.645 -0.3657  0.1143 -0.1073
38704W        W81621  28.734  20.913  18.883 -0.1057  0.1165 -0.1489
38705W        W81622  30.358  19.834  20.180  0.4140 -0.1685  0.0067
38706W        W81623  30.025  19.129  16.772 -0.2170 -0.1944  0.1059
38707W        W81624  31.176  20.096  18.409  0.0888 -0.1508  0.3205
38708W        W81625  31.329  23.050  17.505 -0.0356 -0.1523 -0.1144
38709W        W81626  28.908  20.819  18.036  0.2059  0.3513 -0.0507
38710W        W81627  32.411  16.537  18.767  0.1175 -0.1568  0.1076
38711W        W81628  30.874  17.450  17.676  0.3176 -0.1023  0.1208
38712W        W81629  30.254  19.627  18.773  0.0021  0.0327  0.2561
38713W        W81630  28.544  18.077  17.964 -0.0873 -0.1188 -0.0669
38714W        W81631  32.128  22.449  17.878  0.0995 -0.2070 -0.1050
38715W        W81632  29.256  21.725  18.058  0.4238  0.0913  0.0670
38716W        W81633  27.948  20.726  18.258  0.0938 -0.1597  0.0353
38717W        W81634  30.183  21.857  19.251 -0.1402 -0.0507 -0.0176
38718W        W81635  31.496  18.031  17.581 -0.0883  0.0635 -0.1376
38719W        W81636  29.832  21.084  21.374 -0.0170  0.0190 -0.0439
38720W        W81637  29.475  20.121  20.671  0.0165 -0.3845  0.0867
38721W        W81638  27.168  22.483  19.614  0.0787 -0.1447 -0.0090
38722W        W81639  31.631  19.795  19.831 -0.2238  0.1847  0.0671
38723W        W81640  29.958  18.910  18.116 -0.1224 -0.4454  0.0770
38724W        W81641  30.686  19.950  18.439 -0.0386  0.0531  0.2227
38725W        W81642  31.955  20.255  21.822 -0.0377  0.2592  0.0135
38726W        W81643  32.473  20.631  16.970 -0.2958  0.1168 -0.0271
38727W        W81644  29.843  19.395  18.578 -0.3404  0.3825 -0.0012
38728W        W81645  30.425  19.502  17.584  0.1515  0.0268  0.3600
38729W        W81646  30.372  22.014  22.034  0.3207  0.2179  0.1240
38730W        W81647  29.147  21.356  17.667  0.1757  0.1623 -0.0253
38731W        W81648  29.320  20.629  18.200 -0.0764 -0.2193 -0.2380
38732W        W81649  29.539  19.888  17.529 -0.1341 -0.1679 -0.1915
38733W        W81650  32.921  21.900  17.350 -0.0173  0.1370 -0.1089
38734W        W81651  30.227  19.534  19.716  0.1216  0.1149  0.1687
38735W        W81652  32.286  22.948  21.602 -0.4076 -0.0638 -0.1201
38736W        W81653  30.749  21.865  18.037  0.0592 -0.0070  0.1522
38737W        W81654  31.002  18.740  17.058  0.0731  0.3759 -0.1939
38738W        W81655  30.914  19.905  17.667  0.0480  0.1540 -0.4212
38739W        W81656  31.243  19.549  17.640  0.0692 -0.0524 -0.2276
38740W        W81657  28.920  22.046  17.986 -0.0406  0.2377  0.0308
38741W        W81658  32.569  19.997  20.218  0.2049 -0.1041  0.4875
38742W        W81659  31.746  17.941  20.754  0.1996 -0.1181  0.2105
38743W        W81660  31.275  17.243  20.705 -0.4581  0.0959 -0.1590
38744W        W81661  31.082  20.145  19.219  0.0460  0.2152 -0.0650
38745W        W81662  31.863  19.759  18.748  0.0662  0.0271  0.0681
38746W        W81663  31.851  21.303  21.514  0.0050  0.1147  0.1007
38747W        W81664  29.517  19.049  20.182 -0.1331 -0.1700 -0.2171
38748W        W81665  30.122  17.812  21.451  0.0197  0.1863 -0.2374
38749W        W81666  29.997  20.174  18.865  0.0061 -0.4197 -0.3845
38750W        W81667  30.993  21.454  19.390 -0.2921  0.2767  0.1894
38751W        W81668  31.857  21.608  19.959  0.0019 -0.0385 -0.3155
38752W        W81669  30.476  20.397  17.102  0.1079  0.1246  0.0099
38753W        W81670  29.683  20.696  21.069 -0.0039 -0.0879  0.3336
38754W        W81671  28.923  19.079  17.294  0.0874 -0.1466  0.3191
38755W        W81672  29.507  22.682  17.949  0.1291  0.1772  0.1761
38756W        W81673  29.343  21.253  16.862 -0.4068 -0.2434 -0.1335
38757W        W81674  30.058  17.750  19.620 -0.1808  0.1711  0.2346
38758W        W81675  27.468  18.331  19.315 -0.2548 -0.0271  0.1177
38759W        W81676  31.579  20.670  17.060  0.2422  0.3770 -0.0539
38760W        W81677  33.077  19.294  19.157  0.2207  0.1097 -0.0717
38761W        W81678  28.385  19.613  18.304  0.2900 -0.3295 -0.0690
38762W        W81679  32.292  19.912  18.132  0.3409  0.1931 -0.1462
38763W        W81680  27.423  21.653  17.274  0.3277  0.2744  0.1912
38764W        W81681  27.809  17.737  18.970 -0.1682 -0.3173  0.2793
38765W        W81682  27.015  19.286  18.086 -0.1013  0.4288  0.1387
38766W        W81683  30.530  18.100  17.815 -0.1131  0.0213  0.0961
38767W        W81684  32.060  20.640  17.246  0.0656  0.0116 -0.1633
38768W        W81685  29.097  17.320  19.412  0.0312  0.0527  0.2113
38769W        W81686  31.991  18.587  17.574  0.1161  0.3064  0.0246
38770W        W81687  29.105  20.954  20.500 -0.0969 -0.1600  0.0371
38771W        W81688  30.258  19.985  21.462  0.0477  0.0061  0.1232
38772W        W81689  32.283  17.853  17.187  0.3152  0.2964  0.2669
38773W        W81690  31.741  18.945  18.675  0.1202  0.0853 -0.0943
38774W        W81691  29.074  20.414  20.434 -0.1038  0.0742  0.1697
38775W        W81692  28.702  19.686  17.914  0.2172 -0.0626  0.0577
38776W        W81693  29.947  20.090  21.025 -0.0342  0.1343  0.2181
38777W        W81694  30.101  19.039  17.491 -0.0706  0.0643  0.0026
38778W        W81695  27.510  19.426  18.138 -0.0765  0.4527  0.2070
38779W        W81696  30.282  21.132  18.677 -0.1060 -0.2165  0.0301
38780W        W81697  26.660  19.847  17.897 -0.0356  0.0711  0.0125
38781W        W81698  30.504  23.322  19.044 -0.0550 -0.0006 -0.0062
38782W        W81699  28.542  19.813  20.228  0.0839  0.4000 -0.1032
38783W        W81700  31.266  20.667  18.453  0.2803 -0.3031  0.1527
38784W        W81701  29.724  19.750  18.238  0.0141 -0.1047  0.0435
38785W        W81702  28.759  16.967  19.266  0.0617  0.1417 -0.1319
38786W        W81703  31.395  19.905  18.891  0.1792 -0.1566 -0.0432
38787W        W81704  31.446  19.770  19.372 -0.2001 -0.0093  0.0616
38788W        W81705  30.971  18.948  19.706  0.2738  0.1348  0.0689
38789W        W81706  29.500  22.442  19.542 -0.0462  0.1675 -0.0923
38790W        W81707  30.812  18.629  19.104 -0.0507 -0.0087 -0.1499
38791W        W81708  30.606  20.870  17.272  0.0759 -0.1912  0.1937
38792W        W81709  31.932  20.677  20.782 -0.2203 -0.0607  0.0159
38793W        W81710  28.120  20.212  18.053  0.1186  0.4758 -0.0042
38794W        W81711  29.583  19.240  18.987  0.3653  0.0884  0.0945
38795W        W81712  29.378  19.098  18.514 -0.1130 -0.4539 -0.4920
38796W        W81713  31.221  18.342  18.568  0.0914  0.3550  0.0996
38797W        W81714  28.525  21.686  18.456  0.3164 -0.0788  0.1240
38798W        W81715  30.292  21.172  16.928 -0.0642 -0.2011  0.0468
38799W        W81716  30.471  20.386  20.239 -0.3221  0.0095 -0.5181
38800W        W81717  32.924  16.739  17.481  0.1554  0.0914 -0.0729
38801W        W81718  30.508  21.185  18.049  0.1318  0.1323  0.0682
38802W        W81719  30.799  19.201  17.766 -0.0533 -0.3025  0.0220
38803W        W81720  29.239  18.576  21.109 -0.1133 -0.2957  0.0543
38804W        W81721  31.465  21.414  18.793 -0.0745 -0.4821  0.0100
38805W        W81722  31.644  18.752  21.453 -0.1481  0.0940 -0.1780
38806W        W81723  28.769  17.071  20.782 -0.0715 -0.1168  0.0798
38807W        W81724  31.984  21.588  17.201  0.1901  0.2064 -0.1697
38808W        W81725  29.083  19.168  19.261  0.0860  0.1777  0.0042
38809W        W81726  32.431  21.444  22.094 -0.0374 -0.2387  0.4939
38810W        W81727  30.991  19.677  19.697  0.1408  0.2689 -0.1336
38811W        W81728  30.956  17.809  16.803  0.0005  0.2966  0.1441
38812W        W81729  29.436  18.312  17.163  0.2025 -0.2130 -0.1203
38813W        W81730  29.896  19.785  20.672  0.0479  0.2314  0.0558
38814W        W81731  33.337  21.492  16.413  0.2118  0.0308  0.2771
38815W        W81732  30.937  22.183  17.653  0.2055  0.1113 -0.1500
38816W        W81733  30.926  17.681  19.074  0.0931 -0.2882 -0.4083
38817W        W81734  30.435  20.599  19.677 -0.0241 -0.2938 -0.1265
38818W        W81735  32.804  17.574  18.023  0.5158  0.0614  0.0831
38819W        W81736  30.385  19.928  16.990 -0.1882  0.0819  0.0480
38820W        W81737  29.327  20.425  16.778 -0.1951 -0.2408  0.3007
38821W        W81738  29.470  17.415  18.957  0.0778 -0.1279 -0.4274
38822W        W81739  31.058  20.575  19.442 -0.1020 -0.1884  0.1284
38823W        W81740  31.664  18.579  17.094 -0.1266 -0.0436 -0.0442
38824W        W81741  32.814  19.755  18.975  0.2917 -0.0083  0.1649
38825W        W81742  30.248  19.090  20.942 -0.0526  0.2329  0.1365
38826W        W81743  30.474  19.139  20.083 -0.1905 -0.3342  0.4355
38827W        W81744  28.478  19.540  21.663  0.1794  0.0068  0.2042
38828W        W81745  34.470  20.652  16.875 -0.0010  0.0320  0.3244
38829W        W81746  30.775  21.056  17.675 -0.0488  0.1897 -0.0150
38830W        W81747  32.926  18.134  20.940 -0.1677 -0.2657  0.2858
38831W        W81748  32.793  19.736  18.450 -0.0423  0.2411 -0.3545
38832W        W81749  30.357  18.899  16.343  0.1569 -0.1932 -0.0999
38833W        W81750  29.866  21.604  19.654 -0.2717  0.3946  0.0215
38834W        W81751  31.169  19.672  21.095  0.2169 -0.1530  0.3392
38835W        W81752  29.794  17.666  17.620 -0.0737 -0.0287 -0.1916
38836W        W81753  29.873  19.131  21.875 -0.1547  0.3755  0.0217
38837W        W81754  30.607  20.408  18.152 -0.1422 -0.1671  0.0695
38838W        W81755  30.787  20.389  17.593  0.2720  0.0973 -0.1191
38839W        W81756  30.364  17.310  19.383  0.0035  0.1693 -0.0173
38840W        W81757  30.082  16.767  20.035  0.1469 -0.2827  0.0789
38841W        W81758  29.772  18.501  19.453  0.1830  0.0678 -0.0245
38842W        W81759  29.492  17.722  18.038  0.0985  0.0280  0.2140
38843W        W81760  32.205  20.403  18.008 -0.1537  0.2022 -0.0231
38844W        W81761  32.721  21.661  19.752  0.2408 -0.2903 -0.0934
38845W        W81762  32.019  21.718  21.906 -0.1767  0.0547  0.3822
38846W        W81763  30.292  18.521  17.632  0.0502 -0.2509  0.2326
38847W        W81764  30.804  17.476  19.563 -0.2999 -0.0519  0.1489
38848W        W81765  31.002  21.137  18.660 -0.1651  0.2931  0.1403
38849W        W81766  30.592  15.674  19.988 -0.2010 -0.2212 -0.1689
38850W        W81767  30.702  20.933  19.502 -0.1157  0.0110 -0.1617
38851W        W81768  29.439  19.063  19.597  0.0959  0.2664 -0.1843
38852W        W81769  31.694  22.391  18.263 -0.3519  0.1096  0.1218
38853W        W81770  31.437  19.691  18.364 -0.0425 -0.0045 -0.2003
38854W        W81771  30.205  20.804  18.189 -0.1621 -0.0287 -0.2313
38855W        W81772  29.054  20.222  18.781 -0.2351 -0.0482  0.1159
38856W        W81773  31.403  18.762  19.870 -0.2842  0.1634 -0.2326
38857W        W81774  32.821  22.115  19.262  0.3337  0.1629  0.1966
38858W        W81775  29.891  22.067  18.668  0.1515 -0.3461 -0.1114
38859W        W81776  30.916  22.572  21.613  0.1131  0.0553 -0.2285
38860W        W81777  32.147  20.207  16.894 -0.0284 -0.0053 -0.2623
38861W        W81778  27.639  19.002  17.874  0.0634 -0.1503  0.0813
38862W        W81779  27.734  18.964  20.997 -0.3383  0.0647 -0.3243
38863W        W81780  28.560  20.211  20.596  0.0641  0.3237 -0.0103
38864W        W81781  31.704  18.976  17.505 -0.2237 -0.0716  0.0612
38865W        W81782  29.024  19.345  18.115  0.2389  0.0159 -0.1936
38866W        W81783  29.728  21.541  17.546  0.2757 -0.0644  0.1358
38867W        W81784  29.304  20.963  21.346  0.2857  0.4417 -0.0121
38868W        W81785  26.746  20.486  20.032  0.0977  0.2550  0.1426
38869W        W81786  30.777  23.015  16.720 -0.1945 -0.3433  0.1641
38870W        W81787  29.178  20.445  17.718  0.0004 -0.2799  0.2317
38871W        W81788  30.533  20.666  16.306 -0.0537  0.1842 -0.1077
38872W        W81789  30.973  22.973  17.927 -0.1152 -0.0237  0.2176
38873W        W81790  27.443  19.753  18.555  0.1842  0.0814 -0.0292
38874W        W81791  30.652  21.277  19.022  0.0054  0.2712  0.1078
38875W        W81792  31.519  21.546  18.120  0.2062 -0.0029  0.4481
38876W        W81793  31.344  21.646  17.028 -0.1071 -0.1288 -0.3836
38877W        W81794  31.929  23.650  18.744 -0.0329  0.2931  0.2466
38878W        W81795  30.945  19.082  19.192 -0.1720 -0.0781  0.2679
38879W        W81796  31.662  17.530  16.245 -0.0172  0.1583 -0.1500
38880W        W81797  30.907  20.360  18.758  0.2096  0.0169  0.1930
38881W        W81798  33.540  22.090  17.914 -0.3293 -0.5050 -0.1012
38882W        W81799  31.034  21.763  20.731  0.4297 -0.0260  0.2827
38883W        W81800  30.804  18.606  18.469 -0.0538  0.2051 -0.3364
38884W        W81801  30.642  19.173  17.043 -0.2792  0.1336  0.0747
38885W        W81802  31.779  20.677  19.164  0.0989 -0.1222  0.2424
38886W        W81803  31.487  19.376  18.902 -0.4157  0.1581  0.0282
38887W        W81804  29.458  20.058  18.480 -0.0755 -0.1175  0.0502
38888W        W81805  32.736  21.698  17.803 -0.3115  0.1765  0.1848
38889W        W81806  29.489  18.610  18.511 -0.1620 -0.0084  0.0102
38890W        W81807  30.656  21.007  20.013 -0.1596 -0.1619 -0.0505
38891W        W81808  32.117  19.286  18.817  0.2059  0.0491  0.0224
38892W        W81809  31.631  20.613  17.721  0.0462  0.0918 -0.2029
38893W        W81810  31.670  20.204  19.219  0.0462  0.1663 -0.0436
38894W        W81811  30.070  21.453  18.322 -0.0473  0.2326  0.0520
38895W        W81812  31.399  21.472  19.697  0.0489  0.4022  0.4384
38896W        W81813  29.070  21.151  19.210  0.2987  0.2164 -0.1264
38897W        W81814  29.520  20.028  16.957 -0.4037  0.1283 -0.1444
38898W        W81815  31.637  19.313  16.767  0.0352  0.0108 -0.1067
38899W        W81816  30.218  18.018  20.598 -0.0641 -0.0812 -0.1522
38900W        W81817  31.726  18.400  20.627 -0.0764 -0.0825  0.2112
38901W        W81818  29.945  17.027  18.296  0.2798  0.2653 -0.3636
38902W        W81819  32.393  18.877  17.135 -0.2705 -0.0944  0.0422
38903W        W81820  31.424  20.548  20.830 -0.0300 -0.0955  0.0876
38904W        W81821  28.308  20.794  19.150 -0.4207 -0.2084 -0.1950
38905W        W81822  29.984  19.877  17.282 -0.0233 -0.1960 -0.1744
38906W        W81823  32.993  20.752  18.686 -0.0967  0.2862 -0.0963
38907W        W81824  31.754  20.262  17.273 -0.1751  0.0164  0.3549
38908W        W81825  32.143  22.517  19.930 -0.1482  0.1393  0.1065
38909W        W81826  28.638  19.277  19.540 -0.0170 -0.0032 -0.0284
38910W        W81827  31.272  18.430  16.761 -0.0106  0.0610 -0.0772
38911W        W81828  30.071  21.586  17.220  0.1869 -0.0301 -0.0275
38912W        W81829  29.989  18.485  18.349  0.0159  0.1085  0.3633
38913W        W81830  30.956  21.409  21.302 -0.0960 -0.1441 -0.2708
38914W        W81831  28.969  17.808  17.695  0.1182  0.3402 -0.0998
38915W        W81832  32.133  22.330  16.489 -0.4980 -0.1488  0.0103
38916W        W81833  32.128  20.305  18.459 -0.0358  0.2116  0.2198
38917W        W81834  31.196  23.499  17.678 -0.2764 -0.2090 -0.2872
38918W        W81835  33.718  21.516  17.582 -0.0136 -0.1840 -0.0114
38919W        W81836  32.768  22.650  17.790 -0.1231  0.1477 -0.1205
38920W        W81837  28.927  18.636  18.402 -0.2972 -0.1863 -0.2554
38921W        W81838  32.562  21.048  19.375 -0.1247 -0.2201 -0.3224
38922W        W81839  31.254  20.162  19.705  0.0277 -0.1044 -0.0252
38923W        W81840  32.851  18.151  17.787 -0.0334 -0.0074  0.3214
38924W        W81841  29.379  18.040  17.561 -0.0971 -0.2182  0.0362
38925W        W81842  29.892  21.248  20.027 -0.0331  0.3325 -0.3670
38926W        W81843  31.434  17.550  18.354  0.1453  0.1949  0.1539
38927W        W81844  30.098  18.237  19.731 -0.0541  0.1577  0.1194
38928W        W81845  30.293  21.601  17.938 -0.0728  0.2383  0.2196
38929W        W81846  32.115  18.857  20.211  0.0382 -0.0746 -0.2566
38930W        W81847  29.913  20.818  19.575 -0.3706 -0.2002  0.0490
38931W        W81848  28.515  18.871  20.073 -0.0421  0.1532 -0.0110
38932W        W81849  29.170  20.133  17.332  0.0235  0.2725 -0.0894
38933W        W81850  29.698  20.913  18.385 -0.0677  0.0564  0.0127
38934W        W81851  30.626  20.812  18.503 -0.3221  0.0653  0.0139
38935W        W81852  31.420  21.715  19.213  0.1675  0.3210 -0.0870
38936W        W81853  31.724  20.353  19.645 -0.0061  0.0449  0.0459
38937W        W81854  31.375  19.935  17.926 -0.2506  0.1519  0.2849
38938W        W81855  32.688  22.379  19.652  0.3216  0.2200 -0.0547
38939W        W81856  31.074  18.493  18.053  0.0746  0.0162 -0.1628
38940W        W81857  31.588  18.526  18.270 -0.0903 -0.3501  0.1269
38941W        W81858  32.837  19.104  18.381 -0.1632  0.1545 -0.2857
38942W        W81859  31.779  19.010  19.190  0.0162 -0.0591 -0.1018
38943W        W81860  27.686  19.148  18.539 -0.0513 -0.2169  0.1303
38944W        W81861  28.948  20.039  17.756  0.0151 -0.3220 -0.0300
38945W        W81862  30.080  20.672  18.719  0.1403 -0.0881  0.2550
38946W        W81863  31.700  17.471  20.461 -0.1155 -0.0128  0.2609
38947W        W81864  28.874  21.308  22.123  0.1500  0.1454  0.0586
38948W        W81865  31.307  18.569  20.323 -0.0264  0.1829 -0.1158
38949W        W81866  29.312  18.619  19.766  0.0525  0.1534  0.0346
38950W        W81867  29.814  20.428  18.331 -0.0676 -0.2550 -0.3026
38951W        W81868  29.084  17.164  21.118  0.1325 -0.1292 -0.0848
38952W        W81869  29.406  16.883  18.101 -0.1757 -0.1949  0.0917
38953W        W81870  30.007  19.848  17.790 -0.4743  0.0438  0.1013
38954W        W81871  32.538  21.367  18.501  0.1891 -0.0974 -0.0129
38955W        W81872  28.498  19.207  18.101 -0.1578 -0.2226 -0.0786
38956W        W81873  32.528  21.835  18.941 -0.3274 -0.0978  0.0387
38957W        W81874  29.474  20.780  17.051 -0.1937  0.3184  0.1176
38958W        W81875  29.190  17.293  19.972 -0.1768  0.1501  0.1180
38959W        W81876  30.452  17.658  19.978 -0.1693  0.0490 -0.0587
38960W        W81877  28.806  20.414  17.032 -0.1418 -0.3445  0.1998
38961W        W81878  30.477  19.473  18.282 -0.2249 -0.1151  0.2738
38962W        W81879  31.693  21.931  17.230  0.0938 -0.2711  0.1753
38963W        W81880  31.510  22.084  17.643 -0.1169 -0.5339  0.0778
38964W        W81881  29.528  20.670  20.500  0.1108  0.0874 -0.0052
38965W        W81882  28.581  21.250  20.198 -0.2104  0.2686  0.3192
38966W        W81883  28.247  16.682  18.463  0.0098  0.3801  0.0796
38967W        W81884  32.949  19.487  17.449 -0.1343  0.1049 -0.1820
38968W        W81885  30.246  19.075  18.943 -0.1132 -0.0472  0.1291
38969W        W81886  32.922  22.397  17.364  0.4144  0.2566 -0.2229
38970W        W81887  33.514  20.991  18.916  0.1397 -0.0570 -0.0358
38971W        W81888  32.053  19.351  17.273  0.1664 -0.1229  0.0663
38972W        W81889  28.448  17.944  22.130  0.0388 -0.1562  0.0312
38973W        W81890  29.835  20.226  21.558 -0.0980  0.1154 -0.0067
38974W        W81891  33.270  22.044  18.407 -0.1082  0.0385  0.4011
38975W        W81892  28.857  18.148  18.402  0.0761  0.1195 -0.0863
38976W        W81893  30.058  18.384  20.331  0.1400  0.2160  0.1028
38977W        W81894  30.352  23.032  17.583  0.1512  0.1089  0.0415
38978W        W81895  28.049  19.133  17.553  0.1374  0.2785 -0.5147
38979W        W81896  31.288  20.360  17.424  0.1729 -0.0995  0.5056
38980W        W81897  31.178  18.419  22.029 -0.0055 -0.2461  0.3039
38981W        W81898  30.969  21.625  18.927 -0.0008 -0.0642  0.0632
38982W        W81899  32.794  20.120  19.324 -0.1933 -0.2147  0.0229
38983W        W81900  28.664  19.527  17.125 -0.0411 -0.4318  0.0601
38984W        W81901  32.421  20.466  16.452 -0.0508  0.0188  0.0272
38985W        W81902  31.977  21.170  20.326  0.1811 -0.1901 -0.0905
38986W        W81903  32.277  20.747  19.153 -0.0503  0.1618 -0.0536
38987W        W81904  30.498  21.489  19.413  0.4199 -0.0481  0.1140
38988W        W81905  31.332  22.016  18.774 -0.0322  0.0274 -0.0842
38989W        W81906  27.979  19.250  18.141  0.1892  0.1901 -0.0396
38990W        W81907  30.129  19.947  18.428  0.2546 -0.0468 -0.1487
38991W        W81908  31.381  21.145  18.344  0.0160 -0.2953 -0.0869
38992W        W81909  32.909  17.357  20.904  0.1495 -0.1314  0.3612
38993W        W81910  29.970  19.758  16.777  0.0572  0.1524 -0.3817
38994W        W81911  30.795  17.341  17.206 -0.1044 -0.0435 -0.1368
38995W        W81912  31.246  22.595  17.917 -0.1046  0.2139 -0.1698
38996W        W81913  29.332  18.191  18.189 -0.4152 -0.2224 -0.0801
38997W        W81914  29.733  20.482  24.182  0.3726 -0.1272 -0.1084
38998W        W81915  30.629  21.305  22.073 -0.0937  0.0188  0.0562
38999W        W81916  31.124  18.954  20.800 -0.1482  0.1113 -0.0357
39000W        W81917  30.611  18.637  20.284  0.0058  0.2911  0.2069
39001W        W81918  30.574  19.121  22.448 -0.1217  0.1792 -0.1153
39002W        W81919  29.903  21.655  22.791  0.1939  0.0871  0.1505
39003W        W81920  29.763  17.479  23.688  0.2929 -0.0588  0.1745
39004W        W81921  31.397  17.913  24.234  0.1953 -0.3794 -0.0678
39005W        W81922  32.775  20.982  22.862  0.3290  0.0113  0.0533
39006W        W81923  29.795  21.517  21.560 -0.1983 -0.0351  0.1309
39007W        W81924  29.409  17.312  23.329  0.2156  0.0440 -0.3302
39008W        W81925  30.904  22.790  22.452 -0.1880  0.0619 -0.1817
39009W        W81926  31.599  17.628  21.560 -0.1040 -0.2576 -0.0812
39010W        W81927  28.891  17.404  21.738 -0.0055  0.1782 -0.1563
39011W        W81928  32.207  20.471  21.275 -0.0089  0.0429 -0.0857
39012W        W81929  30.672  20.797  20.914 -0.2181  0.2725  0.2042
39013W        W81930  30.384  21.218  23.191  0.0031 -0.0109 -0.1908
39014W        W81931  29.590  19.306  21.506  0.0383  0.0644  0.2209
39015W        W81932  30.118  20.555  20.808 -0.0863 -0.0544  0.3028
39016W        W81933  28.772  20.394  24.042  0.0990  0.2212  0.0613
39017W        W81934  30.157  17.584  22.285 -0.1465  0.2250  0.2336
39018W        W81935  30.064  21.481  20.601 -0.0617 -0.0143  0.0353
39019W        W81936  28.514  20.029  23.049 -0.2260 -0.0838 -0.3206
39020W        W81937  29.892  19.827  21.842  0.0758  0.0866 -0.2287
39021W        W81938  28.766  19.367  25.564  0.0732 -0.1907  0.0499
39022W        W81939  33.488  20.161  20.787 -0.3664  0.0903 -0.0229
39023W        W81940  30.502  20.320  21.147  0.0006  0.0483  0.2672
39024W        W81941  30.953  19.248  23.507  0.1312  0.0563  0.1711
39025W        W81942  31.045  21.100  20.769  0.0519  0.0491 -0.0494
39026W        W81943  32.078  21.014  23.402 -0.0373 -0.0233  0.0892
39027W        W81944  29.483  20.613  21.585  0.0213 -0.1449  0.0629
39028W        W81945  28.551  22.829  21.737  0.0022 -0.0835 -0.0599
39029W        W81946  29.221  18.844  20.656 -0.1847 -0.0073  0.2893
39030W        W81947  33.906  22.248  23.657  0.0785  0.2804 -0.0752
39031W        W81948  34.074  21.480  23.023 -0.1475  0.1864  0.0317
39032W        W81949  31.565  23.180  24.188  0.0643  0.1920 -0.0059
39033W        W81950  27.640  19.850  20.488 -0.0045 -0.2247  0.2860
39034W        W81951  31.706  22.320  24.427  0.1025  0.1474 -0.0701
39035W        W81952  30.829  21.289  24.576 -0.3210  0.1497 -0.1651
39036W        W81953  29.248  18.490  22.621 -0.1491 -0.0781  0.1049
39037W        W81954  31.161  21.988  23.371 -0.1230  0.3392 -0.0233
39038W        W81955  30.199  23.692  23.298 -0.0460 -0.0691 -0.0077
39039W        W81956  31.344  20.284  24.392 -0.1773  0.3031  0.0411
39040W        W81957  29.451  19.790  23.577 -0.4590  0.4044 -0.0874
39041W        W81958  28.914  21.059  22.616  0.1322  0.1370  0.0500
39042W        W81959  32.100  18.437  23.427 -0.4302  0.3604 -0.1130
39043W        W81960  29.117  22.973  23.214 -0.0809 -0.0154  0.4400
39044W        W81961  31.046  19.035  20.341 -0.2161  0.1997  0.1087
39045W        W81962  30.095  18.297  22.778  0.0551  0.1260 -0.1052
39046W        W81963  32.658  18.340  21.818 -0.0757  0.2489 -0.2359
39047W        W81964  31.586  18.258  22.316 -0.2511 -0.0096  0.0238
39048W        W81965  32.277  22.083  22.255  0.0978 -0.3786 -0.1038
39049W        W81966  31.437  16.974  22.333 -0.2167  0.1268  0.4159
39050W        W81967  32.220  20.246  20.618 -0.2948  0.0759  0.0467
39051W        W81968  29.485  21.518  21.160  0.0008  0.2974  0.0069
39052W        W81969  32.374  17.966  22.862  0.1527 -0.0541  0.0523
39053W        W81970  29.056  23.070  21.760  0.0945 -0.0552  0.1775
39054W        W81971  28.668  17.370  24.232 -0.2746 -0.0915  0.0868
39055W        W81972  32.306  21.459  19.164  0.0368 -0.3696 -0.2266
39056W        W81973  33.701  20.419  22.661 -0.0491  0.0875  0.0163
39057W        W81974  29.479  20.275  20.124  0.3122 -0.2392 -0.1531
39058W        W81975  32.005  20.819  21.640  0.1900  0.1558 -0.2090
39059W        W81976  30.900  21.465  22.970 -0.4582  0.1289 -0.1223
39060W        W81977  29.619  20.821  22.968  0.1901 -0.0432  0.1348
39061W        W81978  30.383  19.060  21.974  0.1003 -0.2054  0.5515
39062W        W81979  33.661  20.603  23.104 -0.0369  0.0806  0.0848
39063W        W81980  30.341  22.237  23.853 -0.0032  0.0870  0.0870
39064W        W81981  32.844  19.124  22.493  0.3028  0.0030  0.0282
39065W        W81982  29.833  22.414  24.552 -0.2602  0.3865  0.1432
39066W        W81983  32.834  22.564  24.197  0.2705 -0.0983 -0.1234
39067W        W81984  29.416  19.675  21.004  0.1661 -0.1662  0.3810
39068W        W81985  32.576  17.873  21.464 -0.2841 -0.0955  0.0244
39069W        W81986  32.619  18.892  21.769  0.1326  0.2702 -0.0502
39070W        W81987  30.665  21.745  20.336 -0.2874  0.0442 -0.1635
39071W        W81988  31.083  19.749  21.789 -0.0042 -0.0487 -0.0775
39072W        W81989  32.492  18.557  23.987 -0.1073  0.2857 -0.1451
39073W        W81990  29.948  19.984  19.357  0.2304  0.2284  0.2575
39074W        W81991  30.333  22.270  23.154  0.1824  0.0539 -0.0085
39075W        W81992  29.146  19.349  23.372  0.0323  0.1137  0.1715
39076W        W81993  31.228  20.901  24.361  0.0149 -0.0146  0.2735
39077W        W81994  31.032  22.556  20.591 -0.3533 -0.0519  0.0025
39078W        W81995  28.369  21.456  24.641  0.2919  0.3716  0.1642
39079W        W81996  30.172  20.689  21.387  0.2247 -0.1428 -0.0804
39080W        W81997  30.181  18.197  24.174  0.0758 -0.0633  0.0844
39081W        W81998  32.559  20.580  25.370  0.1001 -0.2664  0.1068
39082W        W81999  30.436  19.063  21.444  0.1502  0.2052 -0.2313
39083W        W82000  29.855  20.213  22.475 -0.1316 -0.0689 -0.3669
39084W        W82001  33.632  17.507  21.155  0.2585  0.1929  0.0300
39085W        W82002  29.645  22.509  21.622  0.0615  0.1905  0.1711
39086W        W82003  32.906  22.116  21.905 -0.2992 -0.1857 -0.2637
39087W        W82004  32.081  21.623  22.457  0.2239 -0.2518 -0.0402
39088W        W82005  30.841  20.493  20.537 -0.4338 -0.0699  0.3206
39089W        W82006  30.773  20.719  24.209  0.0167  0.1482  0.1912
39090W        W82007  29.145  20.010  22.997 -0.0276  0.3609 -0.0656
39091W        W82008  30.516  19.680  24.375  0.1512 -0.0242  0.2306
39092W        W82009  28.886  18.384  23.033  0.2186 -0.1428 -0.0037
39093W        W82010  30.379  19.065  24.923 -0.0779 -0.0470  0.0120
39094W        W82011  29.696  16.407  21.126 -0.3558 -0.1179  0.1724
39095W        W82012  31.428  17.761  22.370  0.3636 -0.0597  0.1471
39096W        W82013  29.311  19.164  21.011 -0.1521 -0.0702 -0.2144
39097W        W82014  28.543  20.996  21.749  0.0410  0.0821  0.1485
39098W        W82015  31.446  18.028  22.791 -0.1171 -0.0629  0.2028
39099W        W82016  30.609  21.338  20.813 -0.1480  0.1122  0.0260
39100W        W82017  34.019  22.471  23.156 -0.2720  0.1739  0.2213
39101W        W82018  31.928  21.799  21.322 -0.0610 -0.0719 -0.1131
39102W        W82019  28.902  18.546  23.573  0.3080 -0.1163 -0.4147
39103W        W82020  29.994  19.418  20.239 -0.1123  0.1868  0.0588
39104W        W82021  28.976  23.375  22.679 -0.0572 -0.2921  0.1699
39105W        W82022  31.717  20.490  22.717  0.0250  0.0375 -0.1255
39106W        W82023  31.281  18.731  19.343 -0.2042  0.1174  0.1226
39107W        W82024  32.560  20.424  21.905  0.1035  0.1343  0.4094
39108W        W82025  32.913  21.194  21.889  0.0598 -0.0252  0.0608
39109W        W82026  29.262  20.671  23.873 -0.3022  0.0971  0.0331
39110W        W82027  32.557  19.403  23.608  0.0528  0.0798  0.2517
39111W        W82028  33.115  21.959  21.497 -0.3209  0.1906  0.2596
39112W        W82029  31.357  21.092  22.093  0.2087 -0.0479  0.0119
39113W        W82030  30.789  19.227  21.121 -0.2001  0.1829  0.2658
39114W        W82031  32.720  21.601  23.816  0.2659  0.0098  0.1755
39115W        W82032  29.304  21.651  22.108 -0.2040  0.2237 -0.1467
39116W        W82033  28.787  20.295  23.316 -0.0586 -0.1070 -0.2650
39117W        W82034  31.311  20.702  23.491 -0.1990 -0.2126  0.3007
39118W        W82035  31.458  19.223  21.109  0.3661  0.2342  0.2938
39119W        W82036  30.065  20.550  23.679  0.0185  0.0164  0.0064
39120W        W82037  30.355  18.391  25.397  0.2705 -0.0515 -0.0382
39121W        W82038  31.457  20.894  22.990  0.1609  0.1892  0.1763
39122W        W82039  28.472  22.288  25.021  0.0332 -0.1148 -0.1741
39123W        W82040  32.393  19.214  20.802  0.2711 -0.1568 -0.0215
39124W        W82041  32.575  18.975  20.454 -0.0102  0.0683  0.4893
39125W        W82042  31.487  17.336  23.478 -0.1087  0.1347 -0.0200
39126W        W82043  33.007  20.374  20.238 -0.4643 -0.2160  0.1659
39127W        W82044  32.093  18.743  20.713  0.4029 -0.2848  0.0157
39128W        W82045   0.174  17.967  20.161  0.2330 -0.0134 -0.0070
39129W        W82046  30.368  20.927  24.439 -0.2996 -0.4011  0.0303
39130W        W82047  31.518  18.530  22.875  0.0329  0.1173 -0.2978
39131W        W82048  31.688  21.203  22.605  0.1655 -0.4035  0.1368
39132W        W82049  31.166  19.809  20.149 -0.1827  0.0084  0.0062
39133W        W82050  30.656  24.789  21.208 -0.0790  0.0521 -0.0206
39134W        W82051  28.989  20.809  24.299  0.0069  0.1722 -0.4839
39135W        W82052  33.795  22.004  23.147  0.1032 -0.0113 -0.0429
39136W        W82053  32.626  22.222  22.786 -0.0421 -0.0607  0.1749
39137W        W82054  29.636  18.599  22.977  0.0629 -0.0030 -0.0525
39138W        W82055  30.284  19.659  21.099 -0.2277 -0.0802 -0.3188
39139W        W82056  30.656  17.415  23.695  0.0861 -0.2344 -0.3928
39140W        W82057  27.817  22.170  20.578 -0.1351  0.0716  0.1118
39141W        W82058  33.301  17.784  22.567 -0.0634 -0.1766 -0.2009
39142W        W82059  31.521  19.621  21.412  0.0672 -0.0845  0.2373
39143W        W82060  29.690  17.352  24.944 -0.2545 -0.1299  0.0164
39144W        W82061  31.900  21.609  24.872  0.2582  0.0549 -0.4299
39145W        W82062  31.124  18.387  22.570 -0.1812  0.4970 -0.2855
39146W        W82063  29.817  18.649  21.913  0.0781 -0.1605 -0.1610
39147W        W82064  29.901  18.351  20.805  0.0417  0.1306  0.1101
39148W        W82065  30.235  17.638  23.526  0.2283  0.2915 -0.0036
39149W        W82066  28.668  19.319  23.596  0.1898 -0.0014 -0.1289
39150W        W82067  28.469  23.218  24.477  0.0391 -0.3773 -0.0136
39151W        W82068  32.954  20.592  25.011 -0.1638  0.0633 -0.0484
39152W        W82069  31.535  20.947  20.575 -0.0563  0.1704 -0.0034
39153W        W82070  29.307  18.026  24.700  0.1386  0.0169 -0.1610
39154W        W82071  31.054  20.218  22.042  0.2358  0.2385 -0.1344
39155W        W82072  29.703  21.977  22.381 -0.0166  0.2471 -0.0828
39156W        W82073  30.318  20.079  19.662  0.1017 -0.0485 -0.3607
39157W        W82074  30.625  17.615  20.446  0.0334 -0.0104  0.1445
39158W        W82075  30.985  21.544  23.591 -0.0851 -0.0350 -0.0126
39159W        W82076  29.820  19.257  19.797 -0.0596 -0.1727 -0.1145
39160W        W82077  32.199  19.686  23.872  0.3525 -0.0720  0.0876
39161W        W82078  29.332  21.439  24.545 -0.1777  0.0014 -0.0337
39162W        W82079  32.050  18.085  22.238 -0.0162 -0.1466  0.1280
39163W        W82080  29.231  21.267  22.955  0.2756 -0.3413  0.2475
39164W        W82081  31.616  20.660  21.891  0.2094  0.0175  0.0864
39165W        W82082  30.043  22.689  23.174  0.1586  0.0122 -0.2482
39166W        W82083  31.480  18.108  20.302 -0.0520 -0.0308 -0.1241
39167W        W82084  30.926  21.004  22.369 -0.1030  0.1177 -0.3142
39168W        W82085  31.645  17.480  22.922  0.1554 -0.1902 -0.0252
39169W        W82086  29.660  19.899  23.106 -0.0456 -0.1509  0.2750
39170W        W82087  29.603  23.158  23.132  0.0671 -0.0503 -0.2361
39171W        W82088  30.993  20.753  24.754  0.1677  0.1940 -0.1254
39172W        W82089  31.225  17.294  19.370 -0.0116 -0.5198  0.2001
39173W        W82090  32.032  21.020  23.968  0.0710  0.1318 -0.3108
39174W        W82091  31.658  21.855  24.542  0.1896 -0.0309  0.0624
39175W        W82092  28.998  20.137  22.358 -0.1621  0.1043  0.0936
39176W        W82093  32.349  19.195  21.488  0.2711  0.0522  0.2473
39177W        W82094  30.491  20.721  22.011 -0.3554  0.1176 -0.0572
39178W        W82095  31.019  20.719  22.015 -0.0451 -0.3026  0.2436
39179W        W82096  32.725  20.929  23.352 -0.0819 -0.1427  0.0633
39180W        W82097  28.916  19.442  20.055 -0.1960  0.2163  0.3787
39181W        W82098  31.292  20.217  22.594  0.0294  0.2154  0.2102
39182W        W82099  29.759  18.939  24.632 -0.0499  0.0090  0.2875
39183W        W82100  31.629  20.325  22.191 -0.0556  0.0435 -0.2109
39184W        W82101  31.857  18.895  22.682 -0.0059 -0.0214 -0.0340
39185W        W82102  29.262  19.409  22.397 -0.1876 -0.2708 -0.1909
39186W        W82103  32.423  18.678  22.201 -0.3189 -0.1221  0.1460
39187W        W82104  31.440  19.468  21.911 -0.0830  0.1434 -0.3543
39188W        W82105  31.518  17.879  23.275  0.1272  0.3256 -0.1446
39189W        W82106  30.892  21.985  23.830  0.0634  0.2140 -0.2278
39190W        W82107  30.354  17.557  21.837  0.2869 -0.0615 -0.2129
39191W        W82108  31.017  23.092  21.657 -0.2828  0.1138  0.1981
39192W        W82109  30.287  19.391  22.865  0.0818 -0.3505  0.6552
39193W        W82110  27.333  21.030  20.624  0.3461 -0.1592 -0.0454
39194W        W82111  31.265  21.864  22.721 -0.1627 -0.0537 -0.2194
39195W        W82112  31.196  21.666  24.094  0.0717  0.3913  0.0898
39196W        W82113  29.685  17.549  22.362 -0.1477  0.0707  0.1159
39197W        W82114  31.421  21.004  21.592 -0.1151  0.1735  0.0453
39198W        W82115  31.371  19.314  22.401 -0.0319 -0.0101 -0.2279
39199W        W82116  29.904  22.358  22.030 -0.3169 -0.3504  0.1557
39200W        W82117  31.295  19.368  20.000  0.0113  0.0529 -0.1991
39201W        W82118  30.317  20.911  19.139 -0.1182  0.1752  0.0706
39202W        W82119  31.498  20.087  21.772 -0.0105  0.2743 -0.3447
39203W        W82120  30.751  20.236  24.283  0.2528  0.1110  0.0955
39204W        W82121  30.697  19.819  20.891  0.1819 -0.0111  0.2504
39205W        W82122  30.111  17.671  23.991 -0.1600  0.2576  0.0820
39206W        W82123  30.683  17.460  22.244 -0.0182  0.3605 -0.0412
39207W        W82124  32.444  21.926  21.740 -0.3630  0.1636  0.1734
39208W        W82125  27.624  19.387  24.274  0.0327 -0.1979  0.2123
39209W        W82126  32.875  23.403  25.007  0.1054  0.1259 -0.1584
39210W        W82127  29.512  20.401  25.526 -0.1378 -0.1410  0.1404
39211W        W82128  29.863  19.415  21.072 -0.0567  0.0139 -0.1376
39212W        W82129  29.889  17.219  21.948  0.0839 -0.0417  0.0486
39213W        W82130  28.587  21.167  20.737  0.0768  0.2203  0.3265
39214W        W82131  33.441  20.157  21.866  0.0885  0.0335  0.1954
39215W        W82132  31.626  19.832  20.348 -0.3420 -0.1501  0.1305
39216W        W82133  30.724  19.664  21.400 -0.0487 -0.2204  0.2100
39217W        W82134  31.813  20.148  24.483 -0.2072  0.1505 -0.0263
39218W        W82135  31.417  20.138  21.243  0.1412  0.1569 -0.0743
39219W        W82136  30.273  18.666  19.899 -0.1177 -0.1011  0.0127
39220W        W82137  30.250  23.092  21.003  0.2890 -0.0975  0.0035
39221W        W82138  29.037  18.023  22.694 -0.1279 -0.0245  0.1812
39222W        W82139  31.245  19.507  22.941 -0.1268  0.1919 -0.0501
39223W        W82140  32.385  16.712  21.877  0.1096 -0.2629  0.3413
39224W        W82141  30.681  20.938  25.231  0.3029  0.3150 -0.0274
39225W        W82142  30.145  18.736  22.316 -0.3046 -0.1129  0.1250
39226W        W82143  31.758  19.969  22.529  0.1387 -0.0943 -0.0487
39227W        W82144  28.106  16.154  21.924  0.1138  0.0512 -0.2695
39228W        W82145  31.589  21.573  22.139  0.1617 -0.1520  0.0799
39229W        W82146  32.140  18.700  19.320 -0.1015 -0.2279  0.1167
39230W        W82147  32.023  18.376  22.616  0.0681 -0.1449  0.3226
39231W        W82148  33.012  20.544  21.735  0.2606  0.3183  0.0925
39232W        W82149  30.574  20.402  19.270 -0.4680  0.0985  0.2997
39233W        W82150  30.293  18.647  21.170 -0.2965  0.0570 -0.1478
39234W        W82151  30.124  20.232  24.547 -0.0929 -0.0897  0.1211
39235W        W82152  30.446  18.016  22.158  0.2462 -0.1075 -0.3995
39236W        W82153  32.356  19.870  23.434  0.4117  0.0116 -0.0237
39237W        W82154  29.661  21.155  20.768  0.0972  0.1046 -0.0964
39238W        W82155  32.241  21.158  22.508 -0.3075 -0.1964  0.2428
39239W        W82156  30.382  19.497  20.561  0.0858 -0.0925  0.2016
39240W        W82157  28.957  16.921  21.566 -0.0905 -0.0027 -0.1698
39241W        W82158  30.391  21.380  24.275 -0.0966  0.1263 -0.1619
39242W        W82159  29.125  16.168  20.636 -0.0394 -0.0219  0.2036
39243W        W82160  30.876  21.109  21.690 -0.4531  0.3910 -0.0659
39244W        W82161  31.940  20.910  24.551 -0.0255 -0.1598 -0.0627
39245W        W82162  33.245  20.640  22.778 -0.0888  0.1178  0.1114
39246W        W82163  29.409  17.659  21.906 -0.1368 -0.0205 -0.0943
39247W        W82164  30.838  19.117  23.013 -0.0318  0.0718 -0.2702
39248W        W82165  29.197  20.601  22.497 -0.0207  0.0592 -0.0868
39249W        W82166  31.781  17.336  22.435 -0.0673  0.1173 -0.0765
39250W        W82167  32.969  22.932  23.361  0.2200  0.1409  0.0183
39251W        W82168  29.816  20.438  23.266 -0.0200 -0.4703 -0.1482
39252W        W82169  29.792  21.884  21.877 -0.0068  0.0799 -0.2119
39253W        W82170  32.944  17.648  19.910  0.0654 -0.1947  0.1162
39254W        W82171  30.765  20.682  21.543 -0.2399  0.2913  0.0105
39255W        W82172  28.613  19.649  20.696  0.2287 -0.1001  0.2052
39256W        W82173  32.329  19.633  22.485 -0.3383  0.2010  0.1294
39257W        W82174  30.079  20.857  23.272  0.0231 -0.1110  0.1548
39258W        W82175  30.696  18.800  23.425 -0.1542 -0.1266  0.3491
39259W        W82176  32.542  21.664  22.682  0.1899 -0.0722 -0.1941
39260W        W82177   0.566  21.697  23.251 -0.0751 -0.1993 -0.1199
39261W        W82178  32.385  23.393  24.118  0.2349  0.3370 -0.0799
39262W        W82179  28.791  18.401  25.254 -0.0430 -0.1961  0.2502
39263W        W82180  31.176  20.517  24.008  0.0156 -0.0054 -0.1036
39264W        W82181  31.818  19.822  22.069  0.3586  0.3890 -0.1982
39265W        W82182  29.850  18.345  21.377  0.0214  0.1836  0.0440
39266W        W82183  29.577  21.598  20.549 -0.1100 -0.0355 -0.1913
39267W        W82184  28.799  21.723  26.435 -0.1907 -0.2726  0.0711
39268W        W82185  29.943  20.985  24.166  0.3238 -0.0872  0.0698
39269W        W82186  31.409  23.824  21.129  0.1439  0.2059 -0.4673
39270W        W82187  31.627  22.366  22.028  0.0123 -0.2284  0.0174
39271W        W82188  30.880  20.163  21.453 -0.1933  0.0279 -0.1969
39272W        W82189  31.233  22.748  22.009  0.1242  0.0342 -0.0710
39273W        W82190  29.742  20.768  22.449 -0.3241 -0.1548  0.2373
39274W        W82191  31.641  21.088  23.590  0.2523 -0.4652  0.3926
39275W        W82192  29.056  19.829  20.558  0.2101 -0.1471 -0.0637
39276W        W82193  32.188  22.551  20.397  0.4760  0.2565  0.1357
39277W        W82194  30.947  23.165  22.757  0.0796  0.1559 -0.0339
39278W        W82195  30.343  19.739  23.615 -0.3720  0.0035 -0.2305
39279W        W82196  29.822  19.713  22.289 -0.0113 -0.0531  0.2449
39280W        W82197  30.430  19.229  23.311  0.1880  0.2525  0.3430
39281W        W82198  32.145  17.891  21.184  0.0858  0.0429  0.1930
39282W        W82199  31.312  20.369  23.047 -0.0690 -0.1382  0.2502
39283W        W82200  30.670  19.392  21.795  0.1456 -0.2670  0.2907
39284W        W82201  31.838  17.086  21.512  0.0715  0.4529 -0.2644
39285W        W82202  29.764  21.188  24.642 -0.2804 -0.0549  0.1745
39286W        W82203  32.173  17.913  24.681  0.1047 -0.3819  0.1037
39287W        W82204  30.593  23.456  24.748 -0.0308  0.3049 -0.1182
39288W        W82205  33.410  22.168  23.549  0.1148 -0.4416  0.2870
39289W        W82206  30.585  19.056  20.565 -0.1018 -0.0560 -0.2802
39290W        W82207  28.682  17.904  23.089  0.1458  0.0819  0.2598
39291W        W82208  33.574  18.338  23.837  0.0667  0.2449 -0.0673
39292W        W82209  28.744  20.035  21.600  0.0978  0.0544 -0.1002
39293W        W82210  30.895  19.534  22.648 -0.1321 -0.0223 -0.4041
39294W        W82211  30.389  21.703  22.847  0.0929 -0.3524  0.1992
39295W        W82212  29.779  19.468  22.773 -0.0924 -0.0542  0.4023
39296W        W82213  30.411  20.158  23.888 -0.0539  0.0694 -0.1353
39297W        W82214  28.293  16.343  20.423  0.1960 -0.0663  0.1096
39298W        W82215  33.046  19.964  21.075  0.1143 -0.0669 -0.1227
39299W        W82216  31.429  17.551  24.804  0.2365 -0.1121  0.0782
39300W        W82217  29.982  18.965  22.768  0.1369  0.3030  0.0811
39301W        W82218  29.267  18.277  21.529  0.0666  0.0053  0.1200
39302W        W82219  32.010  19.812  23.007  0.2371  0.3283  0.1772
39303W        W82220  30.245  20.545  24.173 -0.1007 -0.0846 -0.1107
39304W        W82221  29.564  18.091  22.886  0.1077  0.0270  0.3399
39305W        W82222  30.403  19.581  22.245  0.0624  0.1187  0.1271
39306W        W82223  31.904  20.610  23.689  0.0697  0.0851  0.2243
39307W        W82224  31.778  20.175  20.797  0.1157 -0.1157 -0.1014
39308W        W82225  32.982  21.907  23.409  0.0695 -0.1693  0.1301
39309W        W82226  29.930  17.869  20.955 -0.1248 -0.1473 -0.1416
39310W        W82227  30.973  19.109  22.074 -0.1753 -0.1663  0.0003
39311W        W82228  31.758  21.238  23.131 -0.0706  0.1900  0.0530
39312W        W82229  29.928  19.968  24.117  0.3473  0.0806  0.0120
39313W        W82230  30.826  22.043  22.943  0.0899 -0.0545 -0.0858
39314W        W82231  30.292  18.632  21.702 -0.0554 -0.0274 -0.1055
39315W        W82232  33.439  20.805  19.453  0.0395 -0.2731  0.1185
39316W        W82233  30.192  18.762  23.248 -0.2775  0.1732 -0.0333
39317W        W82234  30.419  22.085  19.646 -0.1229 -0.1557  0.0825
39318W        W82235  32.337  18.439  20.268 -0.0436  0.0389  0.1950
39319W        W82236  32.762  21.523  21.556  0.0470  0.3086 -0.2595
39320W        W82237  28.645  18.653  22.634  0.1209 -0.1853  0.4282
39321W        W82238  33.317  20.363  24.596  0.3372  0.2111 -0.3115
39322W        W82239  31.305  19.183  23.902  0.1322  0.1962 -0.2118
39323W        W82240  31.162  15.898  20.331  0.0148  0.2249  0.0217
39324W        W82241  30.829  18.339  21.365 -0.2700  0.0272 -0.3249
39325W        W82242  28.524  24.605  23.564  0.0456  0.0609 -0.0995
39326W        W82243  33.222  19.366  22.253 -0.2105  0.0055 -0.1896
39327W        W82244  34.175  17.721  23.574  0.0643 -0.6859  0.1491
39328W        W82245  30.459  20.804  20.487 -0.1978 -0.2630 -0.0800
39329W        W82246  32.329  18.791  24.408 -0.1205 -0.1929 -0.1097
39330W        W82247  32.236  24.172  23.455 -0.0299 -0.0299  0.1090
39331W        W82248  31.556  21.360  24.467  0.0496 -0.1344  0.2575
39332W        W82249  30.549  19.600  19.360 -0.0725 -0.1531 -0.0908
39333W        W82250  31.924  20.039  21.263  0.0781 -0.1409 -0.3081
39334W        W82251  30.888  20.577  23.232  0.3319 -0.0315 -0.2946
39335W        W82252  29.737  20.898  21.884  0.1959  0.1813  0.0666
39336W        W82253  30.555  19.885  21.855  0.0310 -0.2636 -0.2257
39337W        W82254  30.695  18.660  22.252 -0.1727  0.0421 -0.1837
39338W        W82255  34.143  22.688  23.799 -0.2251  0.0367 -0.0727
39339W        W82256  29.941  17.778  21.909  0.0294 -0.0035  0.0902
39340W        W82257  31.666  19.659  20.941 -0.1162  0.2368  0.0674
39341W        W82258  30.441  20.027  17.518 -0.2737 -0.0894  0.0243
39342W        W82259  29.572  19.119  23.650 -0.1384 -0.3309  0.0935
39343W        W82260  28.172  20.536  20.448 -0.0472 -0.1311 -0.3446
39344W        W82261  29.988  20.961  20.493 -0.0658  0.0523 -0.3623
39345W        W82262  29.445  21.203  23.958  0.2767 -0.0655 -0.2361
39346W        W82263  28.842  19.797  23.353  0.1364 -0.2924  0.0870
39347W        W82264  26.300  18.909  24.870 -0.0504 -0.1247 -0.1278
39348W        W82265  28.112  22.653  21.805  0.0182  0.1912 -0.0430
39349W        W82266  30.959  18.557  23.056  0.0273 -0.0868 -0.1120
39350W        W82267  33.194  21.624  21.895  0.1687 -0.0090  0.1342
39351W        W82268  28.660  18.749  22.084  0.1395  0.3640  0.1927
39352W        W82269  29.009  18.650  21.729 -0.1750 -0.0896  0.3047
39353W        W82270  31.713  22.232  22.899  0.0406 -0.0459 -0.3303
39354W        W82271  33.368  20.638  20.432  0.0944  0.2946 -0.3327
39355W        W82272  31.323  18.444  24.217 -0.0755  0.0292 -0.0608
39356W        W82273  32.577  23.098  25.271  0.0750  0.1684 -0.0272
39357W        W82274  29.017  21.755  21.285 -0.0611 -0.0824  0.2489
39358W        W82275  29.994  19.268  26.347  0.2338  0.1825  0.0262
39359W        W82276  29.185  18.667  24.944 -0.0688 -0.1109 -0.1081
39360W        W82277  30.333  18.146  21.112  0.1637  0.6299  0.3495
39361W        W82278  31.548  18.344  23.419 -0.0583  0.3720 -0.1155
39362W        W82279  31.036  20.432  21.081 -0.2075 -0.0578 -0.0965
39363W        W82280  33.331  21.124  20.364 -0.1328 -0.1230 -0.2285
39364W        W82281  31.283  21.276  23.249 -0.3427  0.1551  0.0208
39365W        W82282  31.959  22.847  24.163  0.1495 -0.1288  0.1144
39366W        W82283  30.420  20.418  23.343 -0.0522  0.1415 -0.3022
39367W        W82284  32.817  20.386  23.391 -0.0147  0.4144 -0.0921
39368W        W82285  30.981  21.902  25.171 -0.1737 -0.4089  0.2314
39369W        W82286  33.876  20.281  20.507  0.2581 -0.1249 -0.0931
39370W        W82287  33.233  19.678  20.649  0.0136 -0.2022 -0.1269
39371W        W82288  31.924  18.456  21.144 -0.2312  0.1491 -0.1762
39372W        W82289  29.306  18.537  23.839 -0.3854  0.1595 -0.0343
39373W        W82290  30.955  20.974  22.879 -0.0082 -0.3893 -0.1448
39374W        W82291  32.222  21.327  24.650  0.0650  0.2672  0.1548
39375W        W82292  31.936  18.159  23.046  0.2146  0.1255 -0.3346
39376W        W82293  31.815  17.509  21.102  0.1318  0.1479  0.3078
39377W        W82294  31.709  21.943  22.521  0.2125  0.3655  0.0655
39378W        W82295  28.233  19.682  22.795 -0.0228 -0.0789  0.1276
39379W        W82296  29.577  21.211  22.592 -0.2334  0.2347  0.1897
39380W        W82297  31.264  18.875  23.314  0.1046 -0.1173 -0.3673
39381W        W82298  30.819  22.577  22.929 -0.2960 -0.0230  0.0258
39382W        W82299  32.129  20.565  24.194 -0.0456 -0.0810  0.0031
39383W        W82300  29.234  21.953  20.352 -0.0029  0.2094  0.0901
39384W        W82301  31.288  19.903  20.682 -0.3707  0.4041 -0.3997
39385W        W82302  31.259  26.113  24.813 -0.0264  0.3585 -0.3603
39386W        W82303  32.775  21.089  25.183  0.2108 -0.4383 -0.0272
39387W        W82304  32.176  20.905  25.323  0.0970 -0.2743  0.2090
39388W        W82305  32.382  20.063  21.512  0.2682  0.0792  0.3893
39389W        W82306  28.984  17.782  24.135  0.1545 -0.0084 -0.0485
39390W        W82307  30.516  20.508  24.626  0.1759  0.3160 -0.0525
39391W        W82308  31.322  20.710  22.471  0.0637 -0.3829 -0.2172
39392W        W82309  32.060  19.218  22.030 -0.2612  0.0039 -0.0921
39393W        W82310  29.473  18.029  22.400 -0.2657  0.2291 -0.1843
39394W        W82311  30.366  18.595  18.708 -0.1103 -0.4314 -0.1168
39395W        W82312  31.929  23.534  23.741  0.3639  0.0175  0.2466
39396W        W82313  32.060  19.515  21.188 -0.0854 -0.3154 -0.5626
39397W        W82314  31.110  21.973  26.106 -0.0366  0.0489 -0.1886
39398W        W82315  31.241  20.212  23.573 -0.1813  0.2152 -0.1284
39399W        W82316  32.054  19.688  24.681  0.0426  0.1888  0.0297
39400W        W82317  32.946  21.223  24.020  0.3020 -0.1098 -0.3647
39401W        W82318  29.671  21.083  27.758 -0.1822  0.1504  0.1876
39402W        W82319  33.563  21.273  25.911 -0.1144 -0.1392  0.0798
39403W        W82320  30.669  19.559  27.781 -0.2313 -0.0526  0.0291
39404W        W82321  31.663  23.059  25.463 -0.3126  0.0660  0.0920
39405W        W82322  33.121  23.108  25.407  0.0924  0.1374  0.0501
39406W        W82323  30.438  19.688  26.737  0.0210  0.0311 -0.1171
39407W        W82324  32.590  19.926  27.375 -0.2236 -0.0498  0.0607
39408W        W82325  29.328  21.442  26.405 -0.1377  0.2587  0.1262
39409W        W82326  30.823  19.611  25.579  0.1791 -0.0345  0.0344
39410W        W82327  28.791  17.494  27.234 -0.0603  0.0811 -0.0244
39411W        W82328  32.983  19.660  25.372  0.0818  0.0969 -0.3386
39412W        W82329  29.434  21.261  25.815  0.2041  0.1394  0.0555
39413W        W82330  29.357  20.806  28.171  0.0191  0.0793 -0.2618
39414W        W82331  32.050  19.062  25.435  0.1409 -0.2237 -0.0911
39415W        W82332  29.653  20.784  25.147 -0.4042 -0.2766 -0.2100
39416W        W82333  29.250  19.764  26.369  0.3905 -0.0925  0.1276
39417W        W82334  31.708  18.695  28.562  0.2987 -0.1578  0.2733
39418W        W82335  30.848  22.706  24.885 -0.0685  0.0539 -0.0165
39419W        W82336  29.683  21.695  26.116 -0.0208 -0.0782  0.0046
39420W        W82337  29.881  19.387  26.803  0.0700 -0.2103  0.3217
39421W        W82338  31.889  19.901  25.714 -0.1896 -0.2823  0.0858
39422W        W82339  31.788  20.324  26.399 -0.1425 -0.1411 -0.0969
39423W        W82340  33.724  20.031  26.055 -0.1974 -0.2902 -0.2088
39424W        W82341  30.548  23.504  27.022  0.0854  0.2732 -0.0101
39425W        W82342  32.301  20.526  26.118  0.1352  0.1011 -0.4250
39426W        W82343  32.324  19.235  26.947  0.2991 -0.1351  0.2430
39427W        W82344  30.962  22.645  24.382  0.0741  0.1859 -0.1662
39428W        W82345  30.709  22.669  25.773  0.1137 -0.2022  0.3591
39429W        W82346  30.000  20.790  24.786  0.0911  0.2274  0.0557
39430W        W82347  32.789  20.472  22.747 -0.0482 -0.2052  0.3680
39431W        W82348  31.436  21.280  28.151  0.1445  0.1743  0.1496
39432W        W82349  32.630  20.522  26.588 -0.0920 -0.0446  0.0513
39433W        W82350  28.038  20.451  26.079 -0.2405  0.0162  0.2032
39434W        W82351  29.509  20.413  29.158  0.0156 -0.0526  0.1454
39435W        W82352  31.829  21.864  30.125  0.0054 -0.2660  0.0283
39436W        W82353  30.939  19.900  26.800 -0.3933 -0.0043  0.4712
39437W        W82354  30.686  19.964  26.357  0.2111 -0.0864 -0.2517
39438W        W82355  31.137  22.472  25.844 -0.0196  0.0860 -0.0259
39439W        W82356  30.879  21.681  27.997 -0.0312 -0.1427  0.3244
39440W        W82357  30.012  19.896  29.657  0.0280 -0.1482 -0.1456
39441W        W82358  30.279  20.923  26.246 -0.1490 -0.6060 -0.0591
39442W        W82359  32.438  18.427  25.694  0.1173  0.5098  0.0711
39443W        W82360  29.121  21.923  26.051  0.1639  0.1292  0.0589
39444W        W82361  30.548  17.705  24.835  0.1714  0.0398  0.2167
39445W        W82362  29.327  16.977  23.936  0.2318 -0.1755 -0.1191
39446W        W82363  30.444  20.958  23.821  0.0059  0.0869 -0.1926
39447W        W82364  28.805  18.143  25.733  0.0426  0.1222 -0.0216
39448W        W82365  30.445  20.592  27.164 -0.1648  0.0055  0.0734
39449W        W82366  29.492  18.570  27.279  0.1661 -0.0766  0.0820
39450W        W82367  31.481  19.278  27.040  0.1135 -0.3890 -0.1041
39451W        W82368  30.534  19.309  23.931 -0.3396  0.0632  0.0023
39452W        W82369  33.451  19.963  27.348  0.0206  0.3492 -0.4845
39453W        W82370  29.506  20.794  28.772  0.0552  0.0639 -0.0806
39454W        W82371  30.493  19.371  27.126  0.1280  0.0701  0.1050
39455W        W82372  34.408  20.927  24.536  0.1561 -0.1104 -0.0912
39456W        W82373  31.430  21.560  25.140  0.2917  0.1985  0.0707
39457W        W82374  32.316  22.390  24.479 -0.1971 -0.1240  0.1397
39458W        W82375  28.094  21.484  26.319 -0.0170 -0.1563  0.1465
39459W        W82376  30.591  20.862  26.639  0.1353  0.0565 -0.1207
39460W        W82377  30.957  21.055  28.290  0.0798  0.4435 -0.0929
39461W        W82378  30.344  19.489  25.504 -0.0489 -0.1051 -0.1918
39462W        W82379  34.288  20.002  29.015 -0.1704  0.2383 -0.0592
39463W        W82380  27.519  21.530  26.379 -0.0271 -0.3251 -0.0317
39464W        W82381  32.253  20.049  24.256 -0.0961 -0.0304  0.4619
39465W        W82382  28.919  20.688  26.335 -0.2669  0.0528 -0.1295
39466W        W82383  33.225  21.309  25.580 -0.0510  0.2523 -0.0663
39467W        W82384  30.975  18.827  22.630 -0.0450 -0.0737 -0.1980
39468W        W82385  33.383  19.318  25.602 -0.0694 -0.0762  0.0446
39469W        W82386  30.558  18.871  27.201  0.2320 -0.0699  0.0069
39470W        W82387  30.126  22.042  24.797 -0.0784 -0.2735 -0.3360
39471W        W82388  30.203  18.843  27.638 -0.0062  0.1220  0.0566
39472W        W82389  32.313  21.345  26.708  0.0099 -0.1894 -0.0945
39473W        W82390  32.514  19.985  22.980 -0.2829  0.1301  0.3014
39474W        W82391  30.958  20.404  26.610 -0.1219 -0.1210  0.0265
39475W        W82392  30.997  18.655  26.279 -0.2666 -0.0727 -0.0965
39476W        W82393  30.947  20.422  27.947  0.4157  0.0500 -0.3098
39477W        W82394  30.794  22.864  23.488 -0.0179  0.0541 -0.0030
39478W        W82395  25.995  20.340  26.496  0.0958 -0.0111 -0.0137
39479W        W82396  30.544  20.764  22.962  0.1346 -0.0020  0.2578
39480W        W82397  30.949  19.324  26.874  0.0151 -0.2873 -0.2934
39481W        W82398  30.511  21.147  27.317 -0.1645  0.0508  0.0239
39482W        W82399  32.990  20.749  24.319  0.5977 -0.1913  0.2627
39483W        W82400  28.408  19.349  26.392  0.0414  0.0106  0.0640
39484W        W82401  31.085  20.066  26.130 -0.1271 -0.3756  0.0396
39485W        W82402  29.575  19.536  24.891 -0.0844  0.0370 -0.1542
39486W        W82403   0.775  22.169  24.250  0.0221 -0.0772  0.1919
39487W        W82404  30.744  19.806  23.961 -0.0850 -0.1632 -0.0769
39488W        W82405  31.358  21.981  25.578 -0.2303 -0.0768 -0.3160
39489W        W82406  28.844  19.755  27.274  0.2275  0.2650 -0.3534
39490W        W82407  30.864  20.477  25.950 -0.2589 -0.0465 -0.0370
39491W        W82408  30.462  17.799  28.311  0.0200 -0.1386 -0.2957
39492W        W82409  27.994  21.420  25.316  0.0017  0.1305 -0.1665
39493W        W82410  31.177  19.251  26.115  0.3749  0.0986 -0.0166
39494W        W82411  28.192  19.719  24.853  0.1406  0.0267 -0.2191
39495W        W82412  33.177  20.784  25.557  0.0667  0.1844  0.0094
39496W        W82413  30.045  21.451  26.321 -0.1560 -0.1195 -0.0895
39497W        W82414  30.008  21.485  25.686  0.2741  0.1529  0.3001
39498W        W82415  29.518  19.115  27.163  0.2537  0.0099  0.1611
39499W        W82416  31.535  23.362  24.941 -0.0372 -0.2584 -0.3072
39500W        W82417  33.663  20.984  25.496  0.1429  0.0672 -0.1289
39501W        W82418  31.502  22.536  25.483  0.4874 -0.2266 -0.1492
39502W        W82419  30.144  18.754  24.470 -0.0663  0.3689 -0.1435
39503W        W82420  29.224  18.852  23.301  0.1489  0.1622  0.2028
39504W        W82421  27.166  23.061  26.453 -0.1164  0.0375 -0.1121
39505W        W82422  30.410  22.048  25.723 -0.1626  0.0780 -0.1782
39506W        W82423  30.213  22.467  25.458 -0.1844  0.2677 -0.1512
39507W        W82424  33.654  20.640  26.894 -0.2837 -0.1121  0.2225
39508W        W82425  30.366  21.178  24.886 -0.4377 -0.0591 -0.1244
39509W        W82426  29.371  21.192  26.837 -0.1713  0.3705 -0.3293
39510W        W82427  30.659  19.470  29.634 -0.1159  0.2384 -0.0186
39511W        W82428  31.807  20.459  28.430 -0.2371  0.2040  0.3916
39512W        W82429  34.352  19.295  25.885  0.3556  0.3496  0.0772
39513W        W82430  29.172  19.208  24.626 -0.1897  0.0382  0.0058
39514W        W82431  32.384  20.122  24.871 -0.0721  0.1903 -0.3688
39515W        W82432  28.162  21.193  27.093 -0.2871 -0.5128 -0.0853
39516W        W82433  29.207  20.850  25.431  0.1176  0.3086 -0.1482
39517W        W82434  31.341  22.842  25.069  0.2403 -0.0628 -0.3354
39518W        W82435  32.009  16.232  24.540 -0.0783  0.1438  0.0532
39519W        W82436  29.661  21.101  27.215 -0.1096  0.0405  0.4138
39520W        W82437  31.358  19.694  24.815  0.1875 -0.2156 -0.1547
39521W        W82438  32.322  22.347  25.953 -0.0603 -0.0300 -0.0660
39522W        W82439  30.807  21.747  29.562 -0.1612 -0.3180 -0.0249
39523W        W82440  31.188  18.914  24.374  0.1379  0.1281 -0.0053
39524W        W82441  32.303  18.978  23.697  0.1168 -0.0801  0.2427
39525W        W82442  32.678  20.556  27.202  0.2951  0.2213 -0.3545
39526W        W82443  33.567  21.779  25.892  0.1971  0.1957  0.0804
39527W        W82444  31.480  18.725  23.785  0.1266  0.2924 -0.4312
39528W        W82445  30.671  19.180  25.887 -0.0734  0.0740 -0.0033
39529W        W82446  28.757  20.307  26.639 -0.2414  0.1831 -0.1592
39530W        W82447  30.826  21.255  24.095  0.1275 -0.0921  0.1349
39531W        W82448  33.285  21.460  26.284  0.1580 -0.2138 -0.1225
39532W        W82449  29.925  19.192  25.015 -0.0821 -0.2459  0.2208
39533W        W82450  31.800  19.064  23.767  0.2324 -0.1589  0.0032
39534W        W82451  31.358  20.101  27.806 -0.0188  0.1412  0.2549
39535W        W82452  32.727  20.113  26.190  0.0659 -0.0301  0.0680
39536W        W82453  32.026  22.112  24.859 -0.3065  0.0851 -0.1325
39537W        W82454  30.279  17.627  26.895 -0.1891 -0.3302 -0.0420
39538W        W82455  29.033  18.892  22.822  0.2404 -0.0153  0.0259
39539W        W82456  29.973  19.841  25.022 -0.0063 -0.0233 -0.1402
39540W        W82457  30.145  21.535  24.632 -0.0048  0.1189  0.1863
39541W        W82458  30.564  20.319  27.611  0.2210 -0.0298  0.1429
39542W        W82459  30.711  18.666  26.725 -0.4269 -0.0484 -0.0415
39543W        W82460  29.805  17.753  28.059 -0.2758 -0.0039 -0.0170
39544W        W82461  31.088  19.625  27.230  0.1094  0.1168  0.0282
39545W        W82462  31.275  18.318  25.028 -0.1695  0.0345  0.1287
39546W        W82463  30.117  19.467  24.664  0.0821  0.0401  0.0553
39547W        W82464  29.584  20.308  23.737 -0.0689 -0.0443  0.2079
39548W        W82465  29.679  20.163  27.714  0.0510  0.2494  0.0958
39549W        W82466  29.368  21.292  28.211  0.0097  0.0613 -0.3361
39550W        W82467  28.963  20.922  28.773 -0.0130 -0.0133  0.2013
39551W        W82468  30.210  20.871  29.038  0.3009 -0.0694  0.0340
39552W        W82469  31.692  22.503  25.060 -0.2553 -0.1221 -0.0711
39553W        W82470  30.272  17.315  27.395 -0.0243  0.4049 -0.0858
39554W        W82471  32.356  18.112  25.324 -0.1253 -0.1617 -0.1141
39555W        W82472  31.197  21.693  24.705 -0.1720  0.1582 -0.0648
39556W        W82473  32.021  20.884  22.857  0.0897 -0.1665 -0.0711
39557W        W82474  30.990  20.849  27.072 -0.2441  0.0961 -0.1078
39558W        W82475  29.473  20.376  28.486 -0.1246  0.2582  0.0413
39559W        W82476  29.821  20.531  26.365 -0.1089  0.4023  0.0744
39560W        W82477  32.989  19.713  27.004  0.0893 -0.1236  0.1941
39561W        W82478  31.000  22.695  26.263  0.0058 -0.0082  0.2519
39562W        W82479  32.052  20.571  25.695 -0.0900 -0.1401 -0.1192
39563W        W82480  29.174  21.334  27.261 -0.1064  0.2550 -0.1270
39564W        W82481  30.599  18.524  23.818  0.0769 -0.0233  0.0635
39565W        W82482  28.446  20.174  25.624  0.1561 -0.1886  0.1781
39566W        W82483  33.498  20.039  25.347 -0.0392  0.2482  0.0698
39567W        W82484  30.804  19.202  25.349  0.3314  0.3866  0.1513
39568W        W82485  29.175  18.984  26.145 -0.2313 -0.1322  0.2172
39569W        W82486  29.404  18.559  26.320 -0.1116 -0.0132 -0.3174
39570W        W82487  28.343  21.617  27.848 -0.1160 -0.1148  0.1445
39571W        W82488  31.132  20.053  25.542 -0.1521 -0.1290 -0.3616
39572W        W82489  30.684  20.288  25.501  0.0392 -0.2034  0.1156
39573W        W82490  31.746  21.082  25.662  0.0882 -0.2212 -0.0292
39574W        W82491  28.749  18.651  27.681 -0.0492  0.0824 -0.1951
39575W        W82492  31.279  22.678  23.527  0.4347  0.1137  0.2233
39576W        W82493  31.773  19.467  26.086 -0.1891  0.3055  0.1740
39577W        W82494  30.806  16.885  24.582  0.0718 -0.1552 -0.1693
39578W        W82495  29.008  22.303  24.903  0.4151  0.0378 -0.1903
39579W        W82496  31.404  22.460  26.441  0.2720  0.1067  0.1072
39580W        W82497  29.512  18.982  25.179 -0.0452  0.1192  0.1233
39581W        W82498  28.327  22.142  24.048 -0.1775  0.1709  0.0358
39582W        W82499  31.354  20.781  28.452  0.0238 -0.1888 -0.1093
39583W        W82500  30.843  20.993  25.664 -0.0274  0.0622 -0.1324
39584W        W82501  29.648  20.216  26.032  0.2862 -0.1799 -0.0380
39585W        W82502  31.023  19.959  24.575 -0.1608 -0.0132  0.2508
39586W        W82503  30.011  22.615  23.979  0.0896 -0.1952  0.2085
39587W        W82504  31.188  21.288  28.726 -0.1891  0.1753  0.1719
39588W        W82505  33.297  19.545  26.673 -0.2078  0.3208  0.1679
39589W        W82506  30.476  20.483  26.306  0.0216  0.1175  0.1171
39590W        W82507  29.990  18.689  25.090  0.0083  0.1475  0.1823
39591W        W82508  33.702  20.855  23.682 -0.1094 -0.0724  0.2243
39592W        W82509  33.691  21.181  26.807 -0.0848 -0.2734  0.1897
39593W        W82510  29.953  20.036  23.552  0.4415  0.0322  0.1100
39594W        W82511  29.426  20.880  26.322  0.3107  0.0744 -0.0655
39595W        W82512  29.828  20.612  25.825 -0.0073  0.0662 -0.1454
39596W        W82513  32.153  20.196  25.313 -0.1127  0.1353  0.2032
39597W        W82514  29.272  21.877  27.305  0.1861  0.3585 -0.0157
39598W        W82515  30.194  20.630  26.699 -0.0342  0.1595  0.0362
39599W        W82516  29.779  20.570  26.912  0.1847 -0.2525 -0.2173
39600W        W82517  32.827  17.116  24.137  0.0373 -0.2587 -0.3681
39601W        W82518  30.553  20.231  22.876  0.1678 -0.0938 -0.3249
39602W        W82519  31.434  19.773  26.916 -0.0742  0.0290 -0.0128
39603W        W82520  32.900  18.140  26.699 -0.2281 -0.0999 -0.1259
39604W        W82521  30.493  19.120  24.430  0.2453  0.1914 -0.2200
39605W        W82522  32.545  18.204  26.275 -0.0117 -0.1169 -0.3696
39606W        W82523  30.536  20.223  26.812 -0.2260 -0.1618 -0.0019
39607W        W82524  33.470  20.545  25.087  0.0432  0.0435  0.1329
39608W        W82525  27.183  18.041  26.024 -0.0405  0.0854 -0.2017
39609W        W82526  30.437  19.512  28.249  0.1251  0.0806  0.2749
39610W        W82527  30.253  21.148  29.475  0.2331  0.0602  0.0374
39611W        W82528  30.292  21.869  24.279  0.0809 -0.0445 -0.0831
39612W        W82529  29.451  19.073  25.676 -0.4602  0.0514 -0.0046
39613W        W82530  30.940  21.481  26.071 -0.2108  0.1713 -0.1377
39614W        W82531  34.305  20.677  26.141  0.3065  0.0903  0.3241
39615W        W82532  32.631  22.743  23.655 -0.0772  0.2000 -0.0308
39616W        W82533  31.788  18.818  27.676  0.2664 -0.0251 -0.2648
39617W        W82534  31.073  20.907  26.562 -0.1274  0.1696 -0.3237
39618W        W82535  32.822  20.576  25.919 -0.0271 -0.1433  0.0598
39619W        W82536  31.809  19.692  24.224  0.0100 -0.2525  0.1431
39620W        W82537  31.842  19.441  25.599 -0.1925  0.1420  0.0000
39621W        W82538  31.505  18.247  26.478 -0.1671  0.5013 -0.2253
39622W        W82539  32.392  20.636  23.605 -0.1729 -0.0047  0.0122
39623W        W82540  32.144  19.702  25.271 -0.1925  0.1585  0.0049
39624W        W82541  31.748  19.524  25.066  0.1335 -0.0396  0.1103
39625W        W82542  30.979  19.829  25.153  0.1457 -0.3750  0.0476
39626W        W82543  29.689  19.121  27.658 -0.1102 -0.0851  0.1430
39627W        W82544  29.679  17.847  26.699 -0.4185 -0.0798 -0.1493
39628W        W82545  32.183  21.849  26.852 -0.0343  0.0372 -0.2485
39629W        W82546  30.850  20.295  24.995 -0.1043  0.1955 -0.1447
39630W        W82547  31.378  20.104  26.583 -0.1592  0.1732  0.3504
39631W        W82548  34.446  17.116  27.479 -0.1420  0.0079 -0.0887
39632W        W82549  31.490  22.033  25.008  0.3396 -0.0527 -0.3523
39633W        W82550  29.234  18.884  27.737 -0.0543 -0.0191  0.1198
39634W        W82551  33.113  19.685  27.571  0.0073 -0.1436 -0.0912
39635W        W82552  30.140  19.859  22.633 -0.2921  0.0501 -0.0396
39636W        W82553  30.574  18.134  24.498 -0.1982  0.1890 -0.2556
39637W        W82554  32.058  22.781  24.751 -0.0684  0.0457 -0.0237
39638W        W82555  30.846  22.230  26.550 -0.1253 -0.0918  0.2628
39639W        W82556  30.886  19.639  26.080  0.2743 -0.1464  0.1583
39640W        W82557  28.267  18.037  25.875  0.1932  0.1027  0.2498
39641W        W82558  28.103  20.703  28.829 -0.0935  0.0266  0.2299
39642W        W82559  29.662  20.419  24.732 -0.0092 -0.0943  0.2841
39643W        W82560  31.356  21.086  25.322 -0.0733  0.2502  0.1776
39644W        W82561  30.883  22.090  25.623 -0.4111  0.0569  0.0509
39645W        W82562  33.115  20.588  26.943 -0.1160 -0.2837  0.1769
39646W        W82563  31.827  19.498  22.444  0.1117 -0.4286 -0.0837
39647W        W82564  30.541  20.683  28.101 -0.0433 -0.1269  0.1455
39648W        W82565  30.485  22.147  25.225 -0.2891  0.2055 -0.2494
39649W        W82566  31.714  17.515  25.569 -0.3302 -0.0255 -0.0368
39650W        W82567  30.744  22.262  29.839  0.0447 -0.0538 -0.1451
39651W        W82568  28.790  19.691  27.863 -0.0130  0.0168  0.3573
39652W        W82569  29.653  22.345  27.108  0.0128 -0.1937  0.0832
39653W        W82570  30.204  18.007  25.090 -0.4065 -0.1438  0.0279
39654W        W82571  31.701  20.714  25.288 -0.1021 -0.2778 -0.0026
39655W        W82572  30.426  21.314  25.971 -0.3325  0.0186  0.1439
39656W        W82573  33.262  18.355  26.997  0.1562  0.3495 -0.0274
39657W        W82574  29.322  21.647  27.773  0.1943  0.0452 -0.1348
39658W        W82575  30.304  19.125  26.705  0.1334 -0.2154 -0.0194
39659W        W82576  31.709  21.223  26.225 -0.0229  0.1788  0.2939
39660W        W82577  32.450  21.258  23.639 -0.0816 -0.5153 -0.1450
39661W        W82578  30.036  22.838  26.396  0.1228 -0.1049  0.1381
39662W        W82579  27.716  20.302  28.568 -0.0716  0.2965 -0.2742
39663W        W82580  32.109  19.760  27.306 -0.0228  0.3201  0.3090
39664W        W82581  31.208  19.342  25.144  0.3026  0.0101  0.0033
39665W        W82582  31.727  18.894  26.353 -0.1889 -0.3653 -0.4604
39666W        W82583  32.341  23.078  22.514  0.0388  0.0353  0.0464
39667W        W82584  30.218  20.332  28.001 -0.2095 -0.0251  0.0861
39668W        W82585  30.541  19.829  27.354  0.0729  0.1763 -0.2066
39669W        W82586  31.329  20.189  24.863 -0.0010  0.1318 -0.2053
39670W        W82587  31.507  21.340  27.577  0.0931  0.1062 -0.2986
39671W        W82588  32.075  21.920  24.287  0.0525  0.2220 -0.0343
39672W        W82589  30.708  21.737  26.699  0.1057 -0.3897  0.0947
39673W        W82590  29.426  20.015  25.255  0.1289  0.0086  0.2566
39674W        W82591  28.990  21.464  25.720  0.3001 -0.1141 -0.0129
39675W        W82592  28.478  22.756  24.743  0.3106  0.0319  0.1790
39676W        W82593  32.755  22.068  25.132  0.1174 -0.2553 -0.1180
39677W        W82594  30.021  22.028  26.055  0.1498  0.1447  0.0804
39678W        W82595  33.240  20.151  28.846 -0.0221 -0.1456  0.0212
39679W        W82596  30.521  19.789  24.981 -0.2374  0.2235 -0.1491
39680W        W82597  32.444  19.398  25.566  0.1514 -0.0990 -0.1617
39681W        W82598  34.008  21.702  24.961  0.1120 -0.2815  0.0800
39682W        W82599  30.084  21.017  27.013  0.0734  0.1827 -0.2395
39683W        W82600  31.305  20.545  26.246  0.0323 -0.1025  0.1662
39684W        W82601  30.641  17.254  26.840  0.2866  0.2061 -0.0567
39685W        W82602  31.806  19.824  26.435 -0.3735  0.0555  0.0658
39686W        W82603  32.368  19.605  27.746 -0.0704 -0.0340 -0.2645
39687W        W82604  28.875  21.523  28.033 -0.1632  0.0110 -0.1869
39688W        W82605  33.466  21.766  24.957 -0.0147 -0.1168 -0.0150
39689W        W82606  30.666  19.681  23.147 -0.0041  0.3703  0.3086
39690W        W82607  28.900  19.831  25.581  0.1313 -0.1089  0.0917
39691W        W82608  33.547  17.448  26.945 -0.0725 -0.0721 -0.1526
39692W        W82609  29.481  20.289  21.202 -0.0027 -0.2177 -0.2555
39693W        W82610  30.063  20.156  25.556  0.1449  0.2178 -0.0579
39694W        W82611  30.862  23.221  26.149  0.0312  0.0836  0.1838
39695W        W82612  28.920  22.169  27.503  0.2419  0.0710  0.0621
39696W        W82613  31.573  20.212  25.956 -0.1152  0.1490 -0.0725
39697W        W82614  29.723  18.495  22.471  0.0648 -0.0994 -0.0467
39698W        W82615  33.204  19.006  24.704 -0.0123  0.1655  0.1358
39699W        W82616  30.883  19.214  27.438  0.2151  0.2084  0.0230
39700W        W82617  31.990  18.840  24.917 -0.1790 -0.1347 -0.0883
39701W        W82618  29.353  20.696  25.906  0.4943  0.0965  0.0758
39702W        W82619  33.095  18.860  25.964 -0.0704  0.0676 -0.3436
39703W        W82620  32.798  19.647  26.487  0.1755 -0.0885 -0.0494
39704W        W82621  30.032  19.338  28.440  0.1493 -0.1363 -0.2615
39705W        W82622  28.843  21.344  24.521  0.0975 -0.0037 -0.1777
39706W        W82623  34.094  20.804  25.616 -0.2108  0.1505  0.2354
39707W        W82624  30.182  18.123  23.614 -0.0313  0.0357 -0.0204
39708W        W82625  31.042  22.182  29.501 -0.1975 -0.0895  0.3542
39709W        W82626  30.944  19.352  24.144 -0.1564 -0.1323 -0.0289
39710W        W82627  31.610  20.771  24.134 -0.0981 -0.2756  0.0299
39711W        W82628  30.363  21.815  28.136  0.0660 -0.2428  0.1496
39712W        W82629  32.631  20.921  26.332  0.3145  0.1170 -0.1479
39713W        W82630  31.579  20.008  28.265  0.2502 -0.0829  0.1218
39714W        W82631  29.112  19.423  25.935 -0.1347  0.2940 -0.1367
39715W        W82632  33.632  20.919  22.531  0.2586  0.0196  0.0521
39716W        W82633   0.290  19.997  26.190  0.1044  0.1307  0.0980
39717W        W82634  30.466  22.479  21.755  0.0519  0.1440 -0.0607
39718W        W82635  33.715  19.458  24.740 -0.2013 -0.2402  0.0789
39719W        W82636  34.365  19.705  25.459 -0.0174 -0.0345 -0.3233
39720W        W82637  27.615  19.786  25.951  0.3300  0.0581 -0.3098
39721W        W82638  31.563  22.124  26.896 -0.2268  0.0079  0.0670
39722W        W82639  31.897  21.270  25.239  0.0604  0.1060  0.0928
39723W        W82640  30.825  20.275  27.193  0.2764  0.2241  0.0937
39724W        W82641  28.256  19.935  26.068  0.0093  0.0984  0.4885
39725W        W82642  29.203  20.592  26.739 -0.1552  0.0173 -0.1913
39726W        W82643  34.164  19.438  26.369  0.6032  0.0274  0.1929
39727W        W82644  30.127  18.153  27.846  0.1550  0.1032  0.0439
39728W        W82645  32.406  22.584  22.552  0.0128  0.1072 -0.3049
39729W        W82646  31.652  18.314  27.432 -0.1599  0.1067 -0.0486
39730W        W82647  32.199  21.122  26.219 -0.1937  0.0731  0.1017
39731W        W82648  29.401  20.183  27.278 -0.4245  0.3094 -0.2347
39732W        W82649  31.423  20.675  25.698 -0.0514 -0.3267  0.3655
39733W        W82650  32.005  19.251  27.808  0.0792  0.1136 -0.3289
39734W        W82651  29.571  20.120  26.673 -0.0351 -0.0839  0.0805
39735W        W82652  30.142  22.844  24.449 -0.1659 -0.0068 -0.3558
39736W        W82653  31.243  24.124  26.081 -0.0721  0.1641 -0.1354
39737W        W82654  29.420  19.963  24.072 -0.0338 -0.2809  0.0140
39738W        W82655  34.301  21.764  26.256 -0.1674  0.0823 -0.2394
39739W        W82656  29.839  18.783  25.539  0.2309 -0.1698 -0.0221
39740W        W82657  33.583  17.542  25.223 -0.1663 -0.0182 -0.0664
39741W        W82658  32.243  19.297  24.937  0.2047  0.0408  0.2362
39742W        W82659  30.210  21.052  25.494 -0.2325 -0.1950 -0.1366
39743W        W82660  27.976  17.998  25.109 -0.0525 -0.2841  0.0860
39744W        W82661  30.678  22.398  27.043  0.3239 -0.1652  0.1256
39745W        W82662  28.496  20.688  28.132 -0.1614  0.2963  0.0401
39746W        W82663  28.999  20.278  28.925  0.0990 -0.0974 -0.0878
39747W        W82664  29.519  17.039  29.925  0.1480  0.1296 -0.2607
39748W        W82665  30.603  21.162  27.878 -0.0969 -0.1919 -0.4192
39749W        W82666  28.379  18.517  25.522 -0.4283 -0.2238 -0.1905
39750W        W82667  32.520  21.860  25.730  0.0494 -0.0966  0.4711
39751W        W82668  29.426  19.268  26.427 -0.0813 -0.1389 -0.2823
39752W        W82669  28.270  18.893  27.006 -0.2499 -0.0960  0.2828
39753W        W82670  32.173  23.104  25.609 -0.1558  0.0741 -0.0935
39754W        W82671  33.447  19.644  23.291 -0.1154  0.0082  0.0240
39755W        W82672  29.806  18.248  23.266 -0.0909 -0.0003 -0.0257
39756W        W82673  31.361  22.686  27.645 -0.0122  0.0053  0.0372
39757W        W82674  31.309  21.098  24.816  0.1085  0.1445 -0.1937
39758W        W82675  32.630  18.835  27.235  0.1887  0.2104 -0.4573
39759W        W82676  31.370  20.479  26.923 -0.2247 -0.1932  0.0355
39760W        W82677  28.165  19.382  24.371 -0.0294  0.0732 -0.3679
39761W        W82678  31.357  20.050  27.318 -0.3617 -0.0270  0.2097
39762W        W82679  31.745  24.171  23.715  0.2368  0.3879  0.0603
39763W        W82680  30.219  21.911  21.383  0.0914 -0.0987 -0.2016
39764W        W82681  31.241  21.139  25.969 -0.0299  0.1957 -0.2535
39765W        W82682  30.923  21.418  25.150  0.0468  0.2125 -0.2767
39766W        W82683  26.363  19.612  26.776 -0.0656  0.1707  0.0413
39767W        W82684  33.312  21.045  25.170 -0.0036 -0.0704 -0.0180
39768W        W82685  31.886  19.544  26.897 -0.2527 -0.1317  0.0415
39769W        W82686  32.180  20.223  23.759 -0.1289 -0.0054 -0.1147
39770W        W82687  31.582  19.328  26.541 -0.0419 -0.0239  0.0712
39771W        W82688  31.830  21.516  27.200  0.0663 -0.0411 -0.4462
39772W        W82689  25.685  18.943  26.625  0.1332  0.1976 -0.4733
39773W        W82690  28.251  22.076  28.143 -0.2852  0.0555 -0.1261
39774W        W82691  31.761  20.768  26.093  0.1323  0.1753 -0.1578
39775W        W82692  28.463  18.544  26.009 -0.1168 -0.1179  0.0147
39776W        W82693   0.073  20.754  26.440  0.2139  0.0425 -0.3071
39777W        W82694  31.115  20.605  25.324 -0.0725 -0.3076  0.4413
39778W        W82695  29.230  19.750  24.591  0.0616 -0.1876  0.3628
39779W        W82696  31.589  20.243  25.431  0.1091  0.4356 -0.1341
39780W        W82697  30.064  20.068  27.014 -0.1931  0.1617 -0.1022
39781W        W82698  30.567  21.739  26.180 -0.1156 -0.0790 -0.1235
39782W        W82699  31.480  20.964  27.121  0.0014 -0.0950  0.0517
39783W        W82700  30.195  20.007  23.121 -0.1838  0.1442  0.1659
39784W        W82701  32.669  20.051  23.827 -0.1378 -0.0644  0.2219
39785W        W82702  30.630  21.547  25.571  0.1734  0.1046 -0.0335
39786W        W82703  33.834  23.517  28.334  0.0734 -0.1571  0.0434
39787W        W82704  31.337  21.325  26.733  0.2495 -0.3024  0.0282
39788W        W82705  31.241  20.892  27.790 -0.2636  0.1180 -0.2977
39789W        W82706  28.175  20.447  28.367  0.0121 -0.1489  0.2116
39790W        W82707  28.351  19.456  25.900 -0.0384  0.3758 -0.1026
39791W        W82708  28.035  20.595  29.295 -0.0699 -0.3301  0.2029
39792W        W82709  31.613  20.785  26.602 -0.1226 -0.0863 -0.1332
39793W        W82710  29.012  18.431  27.109  0.1613  0.1706  0.0425
39794W        W82711  32.836  18.661  24.380  0.1025  0.2201  0.2369
39795W        W82712  31.806  22.112  25.394  0.1707 -0.3550  0.0037
39796W        W82713  32.967  19.145  25.474 -0.2235  0.1803 -0.0134
39797W        W82714  32.076  20.508  29.898 -0.2471 -0.1632 -0.1402
39798W        W82715  28.330  19.203  27.940  0.1742 -0.0034 -0.0997
39799W        W82716  31.062  18.855  27.783  0.0284 -0.2529  0.1655
39800W        W82717  31.981  16.187  27.523 -0.1688  0.1614 -0.3191
39801W        W82718  28.565  18.935  29.292  0.0348  0.0310 -0.0997
39802W        W82719  32.700  20.077  28.605 -0.0375  0.3926  0.0422
39803W        W82720  27.719  19.362  30.467 -0.1717  0.2087  0.1129
39804W        W82721  33.025  21.078  29.639  0.1169 -0.0603 -0.0955
39805W        W82722  33.173  20.061  31.696 -0.1489  0.2785 -0.1355
39806W        W82723  31.965  20.993  27.980  0.1507 -0.1233  0.1603
39807W        W82724  30.192  20.213  29.972  0.0626  0.0921 -0.0580
39808W        W82725  30.059  19.586  30.193  0.5871 -0.0718 -0.2298
39809W        W82726  30.090  18.588  28.056  0.2651  0.1349  0.1831
39810W        W82727  28.163  19.175  29.511 -0.1414 -0.0088 -0.1794
39811W        W82728  32.584  19.677  29.976 -0.0646  0.1029 -0.1770
39812W        W82729  29.640  18.996  28.488  0.1558 -0.3346  0.2068
39813W        W82730  27.235  20.627  29.073 -0.3181 -0.4516  0.1395
39814W        W82731  30.239  19.490  29.241 -0.0137 -0.2433  0.0714
39815W        W82732  31.152  20.858  29.597  0.0844  0.1965 -0.0911
39816W        W82733  31.395  19.142  27.519 -0.4269 -0.1479 -0.2871
39817W        W82734  30.273  18.340  30.266  0.0108  0.0309 -0.1488
39818W        W82735  30.686  20.439  28.514 -0.1457 -0.1979  0.0194
39819W        W82736  28.392  20.028  27.551  0.0419 -0.1920 -0.0526
39820W        W82737  29.061  19.699  29.690 -0.3306  0.1694 -0.2267
39821W        W82738  28.772  18.005  28.302  0.0962  0.2782  0.0597
39822W        W82739  32.459  19.210  28.297 -0.0035 -0.0971  0.4218
39823W        W82740  32.976  19.325  29.966  0.0702  0.1586 -0.0050
39824W        W82741  31.682  21.639  29.063 -0.3542 -0.0563 -0.0609
39825W        W82742  32.733  19.076  28.933 -0.0632 -0.1524  0.3844
39826W        W82743  30.705  18.261  31.698  0.0503 -0.0659 -0.1557
39827W        W82744  30.190  19.436  29.723 -0.2736  0.2541  0.0274
39828W        W82745  30.242  18.895  29.867 -0.0365 -0.4509  0.2344
39829W        W82746  28.550  20.696  29.596  0.2351 -0.1351 -0.1091
39830W        W82747  34.140  20.552  29.076 -0.1175  0.0436  0.1370
39831W        W82748  31.546  20.768  30.607 -0.1251  0.3240 -0.2687
39832W        W82749  30.960  22.351   0.075 -0.3627 -0.2312  0.0969
39833W        W82750  28.392  20.715  27.080 -0.0817 -0.0773 -0.0758
39834W        W82751  31.471  22.196  31.856  0.3929  0.0293 -0.2313
39835W        W82752  29.138  21.496  30.143 -0.4405  0.2229 -0.0084
39836W        W82753  31.652  19.551  31.167 -0.0679 -0.0276  0.1149
39837W        W82754  31.651  19.643  27.453 -0.0038 -0.1797  0.1832
39838W        W82755  30.854  21.695  30.031 -0.0990 -0.1591  0.2495
39839W        W82756  30.336  20.447  30.624  0.0776  0.0872 -0.0189
39840W        W82757  30.351  20.793   0.062  0.1386  0.1936 -0.1479
39841W        W82758  31.172  20.036  30.307 -0.0315  0.1853 -0.1158
39842W        W82759  32.860  18.643   1.062 -0.0728 -0.0375 -0.2016
39843W        W82760  30.447  19.079  29.362  0.1299  0.0724 -0.1498
39844W        W82761  30.217  19.902  27.719  0.0057 -0.2482  0.0718
39845W        W82762  30.496  18.047  28.876 -0.2596 -0.0643  0.0163
39846W        W82763  30.331  18.707  28.907 -0.0977 -0.0372  0.0836
39847W        W82764  30.583  19.988  28.063 -0.3714  0.2409  0.0122
39848W        W82765  29.432  19.993  29.462 -0.0790 -0.2277  0.1687
39849W        W82766  31.580  19.047  30.355 -0.0756  0.2173 -0.3325
39850W        W82767  33.452  18.561  30.266  0.0691  0.2368  0.0428
39851W        W82768  30.662  20.547  29.092  0.1644  0.2386 -0.0995
39852W        W82769  29.572  17.540  29.561 -0.0052 -0.2738 -0.0316
39853W        W82770  31.203  19.684  29.883 -0.1405  0.1801 -0.0735
39854W        W82771  27.328  21.065  29.274 -0.2944  0.1450 -0.1081
39855W        W82772  30.736  22.276  26.074 -0.1061 -0.0881 -0.0928
39856W        W82773  33.432  20.535  29.686 -0.1118  0.2770 -0.0384
39857W        W82774  31.961  21.027  27.333  0.2782 -0.0875 -0.1552
39858W        W82775  31.085  18.646  29.986  0.0491  0.1431 -0.0163
39859W        W82776  26.861  20.008  30.109 -0.0462 -0.3515  0.3178
39860W        W82777  29.759  19.596  29.293  0.1240 -0.3691  0.0102
39861W        W82778  30.577  18.192  28.012 -0.0898 -0.1314  0.1842
39862W        W82779  33.670  19.710  30.382 -0.1399  0.2196  0.2346
39863W        W82780  30.036  23.301  30.326  0.0839 -0.0015 -0.1394
39864W        W82781  33.006  18.816  30.236 -0.1600  0.3359 -0.0183
39865W        W82782  30.135  18.732  29.417  0.3535 -0.2233 -0.1271
39866W        W82783  32.620  18.850  29.400  0.0419  0.0226  0.3340
39867W        W82784  33.269  20.762  26.001  0.0654 -0.1668 -0.0455
39868W        W82785  31.579  19.198  29.347 -0.0126 -0.0333  0.2217
39869W        W82786  33.170  17.664  28.249 -0.1229 -0.3161 -0.1434
39870W        W82787  29.289  21.254  28.726 -0.0921 -0.2209 -0.0546
39871W        W82788  30.057  19.856  28.238 -0.0499  0.0015  0.0360
39872W        W82789  31.767  19.602  29.037  0.4114 -0.0663 -0.0840
39873W        W82790  32.023  19.258  29.633  0.0617 -0.1217 -0.0934
39874W        W82791  30.921  22.119  30.338  0.2599  0.2983  0.0781
39875W        W82792  30.456  18.636  31.213 -0.0888  0.1687 -0.1295
39876W        W82793  31.326  22.679   0.086  0.1343  0.2048  0.3244
39877W        W82794  30.662  20.848  29.440 -0.1654  0.0247 -0.0514
39878W        W82795  29.050  20.462  30.293  0.4923 -0.1178  0.0219
39879W        W82796  28.212  21.086  29.545  0.0025  0.2572  0.0424
39880W        W82797  27.453  18.908  30.221 -0.2016  0.0403 -0.0437
39881W        W82798  31.616  20.663  29.691 -0.3436 -0.1240  0.0827
39882W        W82799  30.382  17.484  28.799 -0.0238  0.1981  0.0940
39883W        W82800  28.114  18.997  31.173  0.1623 -0.2443 -0.0084
39884W        W82801  30.917  17.843  27.947  0.0443  0.4877 -0.1230
39885W        W82802  30.156  22.691  29.330 -0.0081  0.4482  0.2632
39886W        W82803  30.809  23.076  27.648  0.1730 -0.1487 -0.2231
39887W        W82804  30.476  19.881  29.384 -0.0822  0.1308  0.2399
39888W        W82805  31.150  19.568  27.727  0.2696 -0.0192  0.0833
39889W        W82806  27.378  18.069  29.815  0.0769  0.3511  0.0704
39890W        W82807  30.108  16.373  29.215 -0.2428 -0.0067  0.2010
39891W        W82808  28.682  19.537  30.049 -0.0703 -0.0185  0.1361
39892W        W82809  29.789  18.187  30.448  0.0757  0.1119 -0.3086
39893W        W82810  33.313  19.346  30.273 -0.0296 -0.3695 -0.3530
39894W        W82811  29.800  17.297  27.657 -0.0838 -0.1783 -0.3093
39895W        W82812  33.574  18.156  27.486  0.1789  0.2952 -0.0829
39896W        W82813  32.234  17.597  29.165 -0.0444 -0.2294  0.0087
39897W        W82814  28.518  20.430  29.088  0.0110  0.2143 -0.1507
39898W        W82815  32.299  16.671   0.744  0.1153 -0.2011  0.0922
39899W        W82816  31.231  20.471  28.909 -0.2222  0.1375 -0.1526
39900W        W82817  31.850  22.807  29.988  0.0053  0.0458  0.0967
39901W        W82818  34.119  21.019  28.065  0.0596 -0.1397 -0.2786
39902W        W82819  30.223  18.296  31.587 -0.0005 -0.0839  0.0247
39903W        W82820  29.180  19.904  28.438  0.0812 -0.0435  0.3793
39904W        W82821  29.891  20.149  28.564 -0.1868  0.1087  0.1002
39905W        W82822  30.061  21.272  27.552  0.1648  0.3493  0.2676
39906W        W82823  28.533  20.716  28.612 -0.2488  0.1844 -0.3255
39907W        W82824  31.366  22.593  28.694 -0.2670 -0.3287 -0.0354
39908W        W82825  31.404  21.632  29.469  0.4220  0.0274 -0.0114
39909W        W82826  29.670  21.308  29.467  0.1771 -0.0816 -0.1460
39910W        W82827  31.482  19.029  31.325  0.0036 -0.2458 -0.1724
39911W        W82828  31.569  17.644  31.133 -0.0892 -0.0714  0.1399
39912W        W82829  31.063  19.182  30.097 -0.0738  0.2378  0.0424
39913W        W82830  29.267  18.793  26.781  0.0894  0.0874  0.2276
39914W        W82831  32.552  23.085  29.486  0.1507  0.1221  0.0085
39915W        W82832  29.977  22.824  29.768 -0.2151  0.0064  0.2452
39916W        W82833  29.156  21.147  29.650 -0.1148 -0.2253 -0.1324
39917W        W82834  30.912  21.674  28.988  0.1455  0.0402  0.1182
39918W        W82835  34.588  18.347  27.436  0.4398 -0.0184 -0.1654
39919W        W82836  31.152  21.393  31.610 -0.2213 -0.2818 -0.0338
39920W        W82837  32.792  18.105  28.972  0.1638  0.1701  0.1135
39921W        W82838  29.184  20.231  28.023  0.0382 -0.0655 -0.1747
39922W        W82839  28.329  19.726  31.287 -0.1604 -0.1807  0.1640
39923W        W82840  31.441  17.003  29.215 -0.2451 -0.1497 -0.2038
39924W        W82841  31.044  18.872  27.126  0.0451 -0.0740 -0.0026
39925W        W82842  32.413  18.261  29.996 -0.1628  0.0050 -0.3837
39926W        W82843  31.143  20.276  28.427 -0.2525  0.1641 -0.1847
39927W        W82844  31.874  20.623  27.019  0.1133  0.3102  0.2642
39928W        W82845  30.200  19.396  27.575  0.1014  0.2567 -0.1255
39929W        W82846  28.489  20.656  31.101 -0.4557  0.2304 -0.1253
39930W        W82847  31.529  21.894  28.552 -0.0041 -0.1236 -0.0349
39931W        W82848  31.610  19.406  29.931  0.0249 -0.1077  0.0143
39932W        W82849  28.522  19.891  29.033  0.1248  0.4543  0.0950
39933W        W82850  32.055  21.892  28.615 -0.1740  0.1368 -0.1300
39934W        W82851  28.354  20.079  30.342 -0.1876 -0.1497  0.0210
39935W        W82852  32.381  18.823  31.045  0.2183  0.4037  0.1605
39936W        W82853  31.447  22.671  28.197 -0.2127  0.0022  0.1506
39937W        W82854  27.781  18.630   0.411 -0.0572 -0.1746  0.0059
39938W        W82855  30.242  20.414  29.339 -0.0271 -0.2128 -0.3224
39939W        W82856  30.699  18.988  29.763 -0.0937 -0.1141 -0.2938
39940W        W82857  30.488  21.823  28.747 -0.1176  0.0295  0.0197
39941W        W82858  30.674  18.199   0.349 -0.1530  0.2304  0.1913
39942W        W82859  34.086  19.468  28.984  0.0299 -0.0685  0.0028
39943W        W82860  32.480  17.675  31.165 -0.3877 -0.0179 -0.1838
39944W        W82861  32.556  19.868  31.528 -0.0263 -0.0559 -0.1390
39945W        W82862  32.250  19.141  29.171  0.1597  0.1745  0.1283
39946W        W82863  32.816  18.523  29.748 -0.0515 -0.0301  0.1726
39947W        W82864  28.805  21.021  27.341  0.0991 -0.1275 -0.0492
39948W        W82865  31.746  17.859  29.629 -0.0899  0.1420  0.1154
39949W        W82866  29.685  19.167  30.575 -0.0944 -0.0420  0.1689
39950W        W82867  29.853  20.991  31.721  0.2162  0.0643 -0.4415
39951W        W82868  30.003  20.798  30.687  0.1397  0.0791  0.0111
39952W        W82869  32.114  21.019  29.757  0.4604 -0.1725  0.3437
39953W        W82870  30.216  18.180  31.038  0.0772  0.1332 -0.0459
39954W        W82871  29.686  18.607  27.732  0.0439 -0.0040  0.0829
39955W        W82872  29.249  23.577  30.053  0.0295 -0.1463  0.1225
39956W        W82873  31.481  20.974  28.974 -0.2046 -0.1570  0.0975
39957W        W82874  31.228  18.500  28.443  0.2580  0.2110 -0.0487
39958W        W82875  29.937  19.309  31.925 -0.1333 -0.3317 -0.1137
39959W        W82876  30.627  18.599  29.370 -0.0809 -0.0193 -0.2229
39960W        W82877  33.634  21.070  29.972 -0.0787  0.0622  0.0193
39961W        W82878  30.914  23.525  28.770 -0.1257  0.1487  0.3376
39962W        W82879  31.486  18.425  28.935 -0.1764  0.0208  0.0792
39963W        W82880  29.709  18.492  29.449 -0.0130  0.2055  0.0343
39964W        W82881  30.870  19.972  27.660 -0.0548 -0.0650 -0.2246
39965W        W82882  28.392  19.028  27.512 -0.0804 -0.0212  0.1400
39966W        W82883  30.250  19.749  28.798 -0.3797 -0.0578  0.3991
39967W        W82884  33.269  20.736  29.226 -0.1374  0.1133  0.0891
39968W        W82885  31.719  18.738  29.943 -0.2236 -0.0415  0.1309
39969W        W82886  29.201  19.804  30.251  0.1318  0.0211 -0.1535
39970W        W82887  30.018  21.537  30.272 -0.0800  0.1492 -0.0692
39971W        W82888  32.522  19.178  30.245  0.2189  0.0777 -0.0666
39972W        W82889  30.694  18.509  27.687  0.0328 -0.3348  0.0547
39973W        W82890  31.179  19.501  29.431 -0.3028  0.1481  0.0482
39974W        W82891  30.132  21.247  31.179  0.0652  0.0672  0.2649
39975W        W82892  30.992  16.913  28.159  0.0077  0.1801  0.0979
39976W        W82893  33.751  19.555  30.945  0.0737 -0.0312 -0.0482
39977W        W82894  29.915  20.042  29.135  0.0313  0.1582  0.0515
39978W        W82895  31.549  18.420  30.315  0.2567 -0.0918 -0.2536
39979W        W82896  32.088  20.108  30.611 -0.0193  0.1160 -0.1081
39980W        W82897  30.105  17.769  29.103 -0.2066 -0.0847 -0.1439
39981W        W82898  28.952  20.769  29.287 -0.0852 -0.1758  0.1671
39982W        W82899  29.006  19.681   0.022 -0.4249  0.2046  0.0515
39983W        W82900  33.062  18.014  29.391  0.0951  0.0605 -0.1097
39984W        W82901  29.974  18.653  28.551  0.0839 -0.1248  0.1142
39985W        W82902  30.655  20.359  29.639  0.0450 -0.1590 -0.1809
39986W        W82903  28.629  19.999  29.748  0.0247 -0.3763  0.0417
39987W        W82904  32.068  20.289  29.008  0.2154 -0.2371  0.1561
39988W        W82905  30.244  18.957   0.242  0.0013 -0.1201 -0.0126
39989W        W82906  30.561  20.838  30.416  0.1782  0.0572 -0.0749
39990W        W82907  30.409  18.131  29.407  0.1348 -0.0310 -0.0728
39991W        W82908  34.048  21.076  28.992 -0.0141 -0.0318 -0.2267
39992W        W82909  32.520  21.270  29.515 -0.2448 -0.1043  0.3565
39993W        W82910  30.574  22.395  30.798  0.1800 -0.4409  0.1906
39994W        W82911  31.931  19.212  30.727  0.3544  0.0683 -0.0964
39995W        W82912  28.121  20.452  29.805  0.0193  0.0485 -0.1055
39996W        W82913  29.858  19.470  30.982 -0.2197  0.0240  0.0713
39997W        W82914  30.041  21.461  29.783  0.0327 -0.1776  0.2331
39998W        W82915  29.904  20.497  28.911 -0.1368 -0.2103  0.2420
39999W        W82916  31.075  21.351  29.698 -0.1516 -0.4093 -0.1028
40000W        W82917  32.309  19.854  28.938 -0.0210  0.1935  0.5310
40001W        W82918  29.817  21.159  28.901 -0.0663 -0.0111  0.1161
40002W        W82919  31.071  20.448  29.922 -0.0700 -0.0350 -0.0871
40003W        W82920  31.950  19.240  31.823  0.2553 -0.0356  0.1797
40004W        W82921  28.963  20.347  29.599  0.3352  0.4862  0.2504
40005W        W82922  31.304  18.504  31.740  0.1106  0.0855  0.0012
40006W        W82923  28.698  18.418  28.526 -0.3274 -0.1991  0.3393
40007W        W82924  33.324  21.603  26.844  0.2377 -0.0956 -0.3866
40008W        W82925  29.184  19.266  30.005 -0.1245 -0.2255  0.3632
40009W        W82926  32.797  20.254  31.226  0.4715  0.0435 -0.2930
40010W        W82927  28.259  18.733  30.730  0.2416 -0.0299  0.0695
40011W        W82928  30.503  16.979  28.293  0.0074 -0.0477  0.1009
40012W        W82929  29.941  17.941  29.543  0.0587  0.1556  0.1405
40013W        W82930  29.666  19.946  31.054  0.0212 -0.3699  0.0612
40014W        W82931  32.717  19.247  27.776  0.2789  0.1022  0.2796
40015W        W82932  30.623  19.948  28.547  0.0829  0.0471  0.0904
40016W        W82933  30.799  19.551  29.131  0.1956  0.1544  0.1982
40017W        W82934  28.586  19.965  28.532 -0.1942  0.0714  0.0305
40018W        W82935  29.771  20.816  29.281 -0.2647  0.0589 -0.0862
40019W        W82936  31.704  19.705  29.521  0.1912 -0.2217  0.3587
40020W        W82937  29.387  19.074  29.092 -0.0878 -0.1570 -0.1792
40021W        W82938  30.371  19.685   0.254  0.0838 -0.0842  0.1389
40022W        W82939  30.402  19.985  30.362 -0.0088 -0.1070  0.1328
40023W        W82940  32.185  18.789  28.095  0.2145  0.0301 -0.1669
40024W        W82941  33.133  17.628  30.210 -0.1000 -0.0578 -0.1181
40025W        W82942  31.657  17.484  29.966  0.2019  0.2144 -0.3034
40026W        W82943  30.408  20.906  30.938  0.0127 -0.0604 -0.1010
40027W        W82944  28.130  19.609  31.759 -0.3329 -0.0083  0.1311
40028W        W82945  33.305  20.109  29.500 -0.0244  0.0752 -0.3329
40029W        W82946  34.665  19.977  26.661  0.0721 -0.0973  0.0839
40030W        W82947  33.993  18.890  29.320 -0.2094  0.0497  0.1241
40031W        W82948  30.939  19.050  29.342  0.3314  0.3475  0.1208
40032W        W82949  29.236  19.434  27.378 -0.1467 -0.1857 -0.0014
40033W        W82950  27.979  19.665  29.323 -0.3148  0.0501  0.2122
40034W        W82951  32.982  18.967  31.126 -0.1157 -0.0845  0.0844
40035W        W82952  30.039  18.999  27.146 -0.2804 -0.0368 -0.0675
40036W        W82953  32.137  19.653  30.945  0.1011  0.2008  0.4724
40037W        W82954  32.036  20.475  27.931  0.1231  0.2044  0.0793
40038W        W82955  32.285  21.045  29.165 -0.1100  0.0829  0.1489
40039W        W82956  30.320  20.246  28.845 -0.1480 -0.2414 -0.1155
40040W        W82957  28.454  21.347  27.432  0.2021  0.1970 -0.0754
40041W        W82958  30.643  22.703   0.127 -0.3069 -0.4190 -0.1107
40042W        W82959  29.146  18.178  26.636 -0.0857  0.1546 -0.4059
40043W        W82960  30.256  20.705  29.758 -0.0583 -0.3143  0.1155
40044W        W82961  32.311  18.779  30.021  0.5780  0.0795  0.2838
40045W        W82962  33.377  22.646   0.510 -0.0332 -0.3566  0.0376
40046W        W82963  30.711  18.507  25.791  0.0293  0.2279 -0.1190
40047W        W82964  31.043  19.338  31.169 -0.0337 -0.0312  0.1995
40048W        W82965  29.612  20.554  30.204  0.0937 -0.0207  0.3658
40049W        W82966  33.056  17.501  29.210 -0.2019  0.0193 -0.1878
40050W        W82967  28.849  20.917  30.470  0.2177  0.1627 -0.0327
40051W        W82968  29.367  20.418  31.096  0.0750 -0.2744  0.0695
40052W        W82969  29.820  20.825  28.374  0.1412  0.2542  0.2945
40053W        W82970  29.333  19.538  28.938  0.0570 -0.0322 -0.1613
40054W        W82971  31.243  18.574  31.295  0.1962 -0.2606  0.0241
40055W        W82972  32.853  18.137  30.247  0.0077 -0.0969 -0.0249
40056W        W82973  32.662  20.603  30.419 -0.0324 -0.1435 -0.1789
40057W        W82974  32.384  23.402  30.313 -0.1077  0.2413 -0.0527
40058W        W82975  28.726  18.908  28.365  0.1487  0.1260 -0.1469
40059W        W82976  32.889  21.051  30.480 -0.2035  0.1675  0.2783
40060W        W82977  31.082  17.960  27.420 -0.3301  0.0797  0.0707
40061W        W82978  32.013  19.459   0.409 -0.1371 -0.0655 -0.0524
40062W        W82979  28.505  18.618  29.699  0.0554  0.2462 -0.0092
40063W        W82980  30.117  20.125  31.419  0.0640 -0.4488  0.1276
40064W        W82981  32.243  20.100  30.150  0.1393  0.0834 -0.0180
40065W        W82982  31.481  18.867  28.104  0.2119  0.3598 -0.0421
40066W        W82983  30.573  21.627  30.444 -0.0118 -0.2578  0.0500
40067W        W82984  30.531  21.059   1.112 -0.0867 -0.1267  0.2328
40068W        W82985  27.415  19.715   0.378  0.0425  0.0334  0.2790
40069W        W82986  29.768  22.395  29.482 -0.2452 -0.3082  0.0263
40070W        W82987  31.064  20.403  29.355 -0.1487 -0.1484 -0.1353
40071W        W82988  31.904  19.185  28.313  0.2435 -0.1225  0.0944
40072W        W82989  33.868  20.142  29.996 -0.0842  0.1367 -0.0701
40073W        W82990  31.291  19.122  28.530  0.0808  0.2492  0.2111
40074W        W82991  30.675  20.431  30.162  0.1675  0.2016  0.1271
40075W        W82992  29.265  19.828  27.722  0.1236  0.1649  0.1920
40076W        W82993  32.257  21.294  28.487 -0.1616  0.0354 -0.2037
40077W        W82994  30.515  20.940  28.632  0.0596  0.1864  0.0138
40078W        W82995  31.994  20.564  30.963 -0.0549  0.1590  0.0608
40079W        W82996  29.626  18.380  26.738 -0.0111  0.1410 -0.1813
40080W        W82997  32.069  19.715  29.898  0.0784 -0.1734 -0.3388
40081W        W82998  32.268  18.908  28.655  0.3382  0.0182  0.1183
40082W        W82999  31.438  22.920  31.004  0.2521  0.2439 -0.0074
40083W        W83000  31.551  21.740  31.552 -0.4216 -0.1835 -0.0246
40084W        W83001  30.458  18.452  28.500 -0.3986 -0.1059  0.0904
40085W        W83002  29.206  19.005  30.492 -0.2249 -0.0353 -0.1333
40086W        W83003  31.939  18.257  30.541 -0.0008  0.1117  0.3802
40087W        W83004  29.344  21.790   0.601  0.2194 -0.3385 -0.0039
40088W        W83005  31.927  22.464  29.360  0.2086  0.0146  0.0561
40089W        W83006  28.843  19.612  28.760 -0.3307  0.2314  0.0249
40090W        W83007  28.069  20.875  27.917  0.0024  0.1670 -0.1527
40091W        W83008  30.860  17.230  28.553  0.1086  0.0864  0.0905
40092W        W83009  33.017  20.191  27.425  0.2586  0.2949 -0.0865
40093W        W83010  29.311  19.346  27.884 -0.0297  0.1727  0.2845
40094W        W83011  30.116  20.707  30.219  0.0210  0.0382 -0.0340
40095W        W83012  27.997  20.446   0.284  0.2692  0.3265  0.2673
40096W        W83013  30.924  20.744  31.374 -0.1298  0.0488  0.0346
40097W        W83014  28.869  18.054  27.829  0.0577  0.0693 -0.1668
40098W        W83015  31.571  19.549  28.460 -0.1301  0.0690 -0.1258
40099W        W83016  29.613  18.681  30.424 -0.0070  0.2008 -0.1437
40100W        W83017  31.583  15.241  28.974  0.1208  0.3030 -0.0702
40101W        W83018  29.651  18.383  28.765  0.1505 -0.0185  0.1888
40102W        W83019  31.134  19.809  28.172 -0.2659 -0.1233 -0.3820
40103W        W83020  31.297  20.996  30.083  0.3269  0.5847 -0.1420
40104W        W83021  29.619  19.716  30.527  0.0977  0.0144  0.0646
40105W        W83022  29.974  19.063  28.019  0.3305  0.5237  0.0653
40106W        W83023  28.829  19.582  31.157 -0.0210 -0.2423  0.1291
40107W        W83024  32.928  21.177  25.978  0.0711  0.1980 -0.2822
40108W        W83025  32.558  20.369   2.203 -0.0969 -0.0820  0.0016
40109W        W83026  30.341  18.946  28.406 -0.1623 -0.1345  0.0602
40110W        W83027  32.050  19.669  28.218 -0.1678  0.2575 -0.1422
40111W        W83028  28.074  21.929  28.635 -0.1503  0.2738 -0.1174
40112W        W83029  32.304  19.663  29.452 -0.2593 -0.0896 -0.1091
40113W        W83030   0.222  20.743  28.945 -0.1712  0.0877  0.1035
40114W        W83031  27.843  18.668  28.668 -0.0582  0.1333  0.0637
40115W        W83032  34.443  19.007  28.036  0.1797 -0.3634  0.0993
40116W        W83033  34.157  18.961  29.898 -0.0843 -0.0387 -0.4225
40117W        W83034  32.266  20.157  27.688  0.0952 -0.0398 -0.0823
40118W        W83035  32.039  19.332  30.208 -0.1693  0.4322 -0.0108
40119W        W83036  32.104  21.562  29.502  0.0781 -0.1272 -0.2776
40120W        W83037  28.949  19.364  29.249  0.1104  0.0058  0.0528
40121W        W83038   0.144  20.686  29.663  0.2225  0.1960  0.1198
40122W        W83039  32.210  20.637  29.412 -0.1886 -0.3669 -0.4017
40123W        W83040  30.683  16.374  28.241  0.1299 -0.0498 -0.3835
40124W        W83041  28.542  20.424  30.037 -0.0417 -0.0257  0.1367
40125W        W83042  31.376  21.667  30.281  0.7152 -0.1659  0.0823
40126W        W83043  32.657  18.851  30.617  0.0442 -0.2369  0.0078
40127W        W83044  32.657  20.076  30.415 -0.0102  0.0362 -0.1721
40128W        W83045  31.577  21.848  27.536  0.0601 -0.0126 -0.1254
40129W        W83046  31.922  18.270  29.931  0.0515 -0.1761  0.1671
40130W        W83047  31.534  21.498  31.103 -0.2476  0.1971 -0.3586
40131W        W83048  31.174  23.193   0.005 -0.1652 -0.0670 -0.2960
40132W        W83049  28.082  20.180  28.846 -0.0406  0.1147 -0.0108
40133W        W83050  29.140  18.873  29.483 -0.1286  0.0639 -0.2954
40134W        W83051  31.861  21.144  29.288 -0.1037 -0.2059  0.1177
40135W        W83052  33.798  21.725  28.490  0.0608 -0.1141  0.1657
40136W        W83053  31.723  20.604  29.191  0.0121 -0.0460  0.0115
40137W        W83054  30.149  16.032  26.918 -0.0454  0.1048  0.2267
40138W        W83055  32.647  19.519  28.710  0.0393  0.1661  0.1522
40139W        W83056  32.516  17.765  30.139  0.4193 -0.3171  0.2846
40140W        W83057  32.099  17.539  28.335 -0.0492  0.0769 -0.2537
40141W        W83058  32.335  19.042  27.568 -0.1400 -0.0036  0.2440
40142W        W83059  30.560  19.875  29.901  0.0872  0.3344 -0.0370
40143W        W83060  28.180  20.330  27.926  0.0536 -0.3356 -0.1152
40144W        W83061  29.443  19.653  26.908  0.2850  0.4037 -0.1457
40145W        W83062  28.500  20.605  30.518 -0.1287 -0.1714 -0.4162
40146W        W83063  28.652  18.763  31.286 -0.0722 -0.4108 -0.1486
40147W        W83064  29.631  20.220  31.454 -0.0006  0.0201  0.0503
40148W        W83065  29.056  19.865  29.194  0.1680  0.0932 -0.1355
40149W        W83066  27.849  19.844  30.523 -0.2440  0.0874 -0.0435
40150W        W83067  31.996  20.146  29.554 -0.1248  0.0208  0.2646
40151W        W83068  29.356  18.159  29.472 -0.3050  0.1121 -0.0888
40152W        W83069  31.249  16.998  28.771  0.0378 -0.1732 -0.0090
40153W        W83070  31.185  21.219  29.247  0.2232  0.1135 -0.2081
40154W        W83071  31.201  17.327  27.853  0.2035 -0.0105 -0.1340
40155W        W83072  31.078  18.349  27.958  0.0839 -0.0623  0.4215
40156W        W83073  32.150  24.995   0.236  0.0082  0.1035 -0.1269
40157W        W83074  27.385  20.132  27.217  0.3325  0.4853 -0.1987
40158W        W83075  31.992  20.236   0.790  0.1420 -0.1191 -0.1486
40159W        W83076  30.859  17.795  31.646  0.4597  0.2359  0.0351
40160W        W83077  26.662  18.012  28.911  0.2574 -0.0484  0.0218
40161W        W83078  29.273  20.248  29.939 -0.0926 -0.1615 -0.1250
40162W        W83079  33.477  21.836  28.001  0.1298  0.1595 -0.0429
40163W        W83080  29.834  21.454  26.811 -0.3926  0.1598  0.0230
40164W        W83081  30.873  19.239  30.586  0.0298  0.2994 -0.0403
40165W        W83082  31.695  21.280  28.596 -0.2530 -0.2060 -0.1165
40166W        W83083  30.295  19.260  31.581  0.1609 -0.0681 -0.3527
40167W        W83084  30.952  19.954  29.550 -0.0311 -0.0080 -0.2446
40168W        W83085  30.307  20.560  31.218 -0.1755 -0.2618  0.0209
40169W        W83086  33.049  19.647  28.114  0.0050  0.0095  0.2785
40170W        W83087  33.551  18.489  29.426 -0.0253 -0.1740  0.1025
40171W        W83088  30.635  18.670  30.267 -0.0243  0.2107  0.0468
40172W        W83089  26.704  18.501  30.229  0.1934  0.0153  0.0762
40173W        W83090  28.922  19.637  30.620 -0.0864 -0.0146  0.2576
40174W        W83091  33.787  20.590  30.305 -0.0697 -0.3684  0.0794
40175W        W83092  29.732  20.007  30.062 -0.0450  0.1134  0.1345
40176W        W83093  30.168  16.413  28.582 -0.1187 -0.2612  0.1176
40177W        W83094  32.350  20.262  26.988 -0.0827 -0.1709 -0.2111
40178W        W83095  29.463  20.214  30.589  0.1556  0.1378 -0.3577
40179W        W83096  29.503  19.524  28.347  0.0167 -0.2936  0.1361
40180W        W83097  29.834  18.620   0.026  0.0471  0.0976 -0.0289
40181W        W83098  31.154  19.824  28.650 -0.1380 -0.2960  0.0417
40182W        W83099  32.017  21.430  30.385  0.0113 -0.0924 -0.0597
40183W        W83100  28.211  19.713  29.875 -0.2463 -0.1737 -0.0680
40184W        W83101  31.867  21.484  28.193 -0.1769 -0.2129 -0.2145
40185W        W83102  31.374  21.291  30.548  0.1611  0.0303 -0.0371
40186W        W83103  34.382  21.845  31.882 -0.0018 -0.1890 -0.0004
40187W        W83104  31.554  22.433  30.853 -0.0043  0.1101 -0.0281
40188W        W83105  31.498  20.305  30.775 -0.1231  0.1267  0.1159
40189W        W83106  29.366  18.611  29.833  0.0810 -0.0322 -0.1490
40190W        W83107  29.802  20.703  27.457  0.1573 -0.1539  0.0915
40191W        W83108  30.534  19.264  30.237 -0.4122  0.0660  0.1385
40192W        W83109  32.548  19.268  29.633 -0.0358  0.2268 -0.1913
40193W        W83110  30.369  19.674  31.231 -0.1977  0.0575 -0.1795
40194W        W83111  29.170  18.370  27.613  0.0249  0.3710  0.0148
40195W        W83112  26.449  20.946  31.769  0.0155  0.1460 -0.0283
40196W        W83113  30.208  17.924  30.551  0.1049  0.4018 -0.0569
40197W        W83114  31.748  18.603   0.163  0.0860 -0.0726 -0.1830
40198W        W83115  31.930  18.968   0.472 -0.1686 -0.0122 -0.1104
40199W        W83116  28.079  19.450   0.290 -0.0378 -0.2185  0.0893
40200W        W83117  28.767  22.025  30.419 -0.2237 -0.2701 -0.0440
40201W        W83118  30.637  22.473  31.323 -0.0850 -0.0860 -0.2208
40202W        W83119  30.630  20.500   0.340  0.4818 -0.3701  0.1253
40203W        W83120  32.032  17.805  30.872  0.1479 -0.0155 -0.1842
40204W        W83121  31.299  18.453   0.328 -0.0651  0.2148 -0.4070
40205W        W83122  30.808  18.727  31.571  0.0907  0.2168 -0.0162
40206W        W83123  33.652  21.765  31.243 -0.1137 -0.0802  0.1818
40207W        W83124  33.066  20.762  30.027  0.3707  0.0682 -0.0034
40208W        W83125  29.295  18.243  31.411  0.0470  0.0542  0.2066
40209W        W83126  31.012  20.301  31.104 -0.3783  0.2276  0.3315
40210W        W83127  29.957  20.227  30.444 -0.0134  0.2015 -0.3200
40211W        W83128  33.459  19.285  31.369 -0.2170 -0.2771  0.2390
40212W        W83129  28.738  21.147  30.053 -0.1769 -0.2389  0.1488
40213W        W83130  30.979  19.519   0.131 -0.3755  0.1937 -0.2734
40214W        W83131  31.435  20.748  31.722 -0.0762  0.0393 -0.2872
40215W        W83132  28.565  18.793   1.556 -0.1687  0.3245 -0.2501
40216W        W83133  27.478  19.928   2.340 -0.1574  0.0197 -0.2058
40217W        W83134  29.503  19.333   0.313 -0.1571  0.0283 -0.1229
40218W        W83135  28.439  22.316   0.518 -0.0585  0.0420 -0.2122
40219W        W83136  33.554  18.366  31.618 -0.1622  0.0571 -0.0658
40220W        W83137  29.965  16.617  31.544 -0.0730  0.0002  0.1094
40221W        W83138  30.390  20.943  31.541  0.0104 -0.0657  0.1654
40222W        W83139  30.717  20.061   1.507 -0.2062  0.0474  0.1411
40223W        W83140  32.448  17.409   0.069  0.0911 -0.1620 -0.0337
40224W        W83141  31.023  21.558   0.781 -0.0183 -0.0942  0.2109
40225W        W83142  31.635  21.231  31.534  0.2334  0.0031  0.1836
40226W        W83143  31.174  20.421   0.160  0.1943 -0.2320  0.2274
40227W        W83144  29.959  21.936  30.000 -0.0935 -0.2089 -0.0116
40228W        W83145  29.658  16.935  31.754  0.3844  0.0908  0.3874
40229W        W83146  33.924  23.057  30.456  0.2704  0.0398 -0.3163
40230W        W83147  33.032  18.098  31.588 -0.1353 -0.1404 -0.2299
40231W        W83148  28.573  19.303   0.076 -0.1671  0.4624  0.2344
40232W        W83149  29.724  22.663   0.499 -0.0814 -0.2082 -0.1628
40233W        W83150  30.593  19.614  30.807 -0.1647 -0.0077  0.4585
40234W        W83151  32.874  20.255  30.063  0.1840 -0.1730 -0.2202
40235W        W83152  32.386  20.549  31.301 -0.1799  0.0983 -0.1098
40236W        W83153  30.669  21.489  31.794  0.0513  0.0970 -0.0841
40237W        W83154  31.459  18.922   0.419  0.0215  0.0118  0.2789
40238W        W83155  32.456  20.262   0.621 -0.1393 -0.0263  0.3814
40239W        W83156  28.519  18.650  30.303 -0.3092 -0.1077  0.1279
40240W        W83157  29.234  22.713   0.415  0.1944 -0.2981  0.2569
40241W        W83158  29.979  19.314   0.505  0.0357 -0.2871 -0.1361
40242W        W83159  29.311  21.206  30.606 -0.1871  0.0572 -0.2728
40243W        W83160  31.463  14.273  30.772  0.3730  0.1417  0.2042
40244W        W83161  31.612  19.936  30.060 -0.1970  0.3176 -0.3459
40245W        W83162  33.276  19.675  30.790 -0.2324  0.1383 -0.1556
40246W        W83163  28.650  20.373  31.538 -0.0589  0.1307  0.0228
40247W        W83164  32.417  22.867  30.365  0.3605  0.2532  0.1101
40248W        W83165  31.443  16.960  31.202 -0.2923 -0.1826  0.2266
40249W        W83166  30.642  19.182  31.902  0.2112 -0.1090 -0.2133
40250W        W83167  32.412  21.069  27.145 -0.1784  0.1546 -0.0775
40251W        W83168  32.476  20.388  30.806  0.0176 -0.0069  0.1248
40252W        W83169  31.031  19.155  31.625  0.0705  0.0438 -0.1971
40253W        W83170  31.125  20.616  30.403 -0.1610 -0.2749 -0.0940
40254W        W83171  31.988  22.588  30.629 -0.0472 -0.4429  0.0747
40255W        W83172  31.851  19.696  30.510 -0.2151  0.1059 -0.0170
40256W        W83173  31.792  20.942  30.147  0.0300 -0.0779  0.1050
40257W        W83174  26.390  19.593  31.666  0.0934 -0.1391  0.4119
40258W        W83175  27.670  19.414  31.817  0.0643 -0.2567  0.0444
40259W        W83176  30.050  20.526  31.671  0.3225  0.1204  0.2297
40260W        W83177  26.539  15.445  31.786  0.3122  0.1311  0.0137
40261W        W83178  30.591  20.372  31.620  0.5201 -0.3303  0.2505
40262W        W83179  32.763  21.029  31.600 -0.1594  0.2391 -0.3116
40263W        W83180  32.413  21.789   0.897 -0.1462  0.1071  0.4404
40264W        W83181  30.199  25.850  19.801  0.3104 -0.2000 -0.2105
40265W        W83182  32.277  25.084  18.811  0.0236  0.0591 -0.4631
40266W        W83183  30.132  22.584  17.714  0.3615  0.1948 -0.1380
40267W        W83184  32.463  24.108  18.041  0.0592 -0.0833  0.2352
40268W        W83185  31.297  22.452  16.515 -0.1219  0.3274  0.0394
40269W        W83186  32.394  25.566  18.318  0.0268 -0.0527  0.2207
40270W        W83187  31.273  18.854  18.867  0.0920  0.2481  0.3076
40271W        W83188  33.341  24.330  17.604  0.0569  0.1640 -0.1609
40272W        W83189  29.156  25.008  21.755  0.2033  0.1013  0.3458
40273W        W83190  31.435  24.573  17.546 -0.1073 -0.1527 -0.1279
40274W        W83191  30.322  23.042  18.587  0.2573  0.3288 -0.0539
40275W        W83192  28.782  25.554  19.364  0.0372 -0.2809  0.1259
40276W        W83193  29.407  20.907  17.593  0.0381  0.1875  0.0169
40277W        W83194  27.965  21.774  17.611 -0.3562  0.0346 -0.3003
40278W        W83195  30.347  24.082  20.025  0.0029 -0.1038  0.0336
40279W        W83196  29.806  23.756  17.533  0.2288 -0.0105  0.0801
40280W        W83197  29.746  23.961  18.911 -0.1708 -0.0048  0.3929
40281W        W83198  30.954  21.823  17.305  0.2779  0.2468  0.2400
40282W        W83199  32.542  24.697  18.604 -0.4271 -0.1340  0.1238
40283W        W83200  31.805  23.205  19.389  0.1153  0.0177 -0.1208
40284W        W83201  30.624  25.695  21.321 -0.1577  0.1088 -0.1994
40285W        W83202  31.918  24.951  18.373  0.1307 -0.1311 -0.0071
40286W        W83203  29.286  23.747  17.742  0.0494 -0.1700  0.2799
40287W        W83204  29.985  23.786  19.878  0.3465 -0.2453  0.0135
40288W        W83205  29.723  24.307  21.269 -0.0219  0.0732 -0.0223
40289W        W83206  31.569  20.912  18.732 -0.1265 -0.4576 -0.1062
40290W        W83207  31.967  21.325  17.884 -0.1361 -0.2867  0.1190
40291W        W83208  29.952  26.545  19.809  0.0827 -0.2102 -0.1874
40292W        W83209  32.354  22.654  17.473  0.3355 -0.0490 -0.1134
40293W        W83210  31.964  22.980  20.196  0.1202 -0.0170 -0.2433
40294W        W83211  31.114  22.618  17.426  0.0014 -0.0796 -0.3755
40295W        W83212  29.417  25.719  19.243  0.2185  0.2381 -0.5076
40296W        W83213  30.938  24.257  19.860  0.1639  0.2235  0.1150
40297W        W83214  33.452  24.805  18.138 -0.2000  0.4481  0.1155
40298W        W83215  29.494  25.961  20.444  0.1574 -0.0696 -0.1631
40299W        W83216  30.612  25.129  20.508 -0.2705 -0.2193  0.0462
40300W        W83217  31.364  25.074  17.679  0.0624 -0.1638  0.1393
40301W        W83218  31.221  25.358  19.918  0.1400 -0.1917  0.3374
40302W        W83219  30.205  26.359  19.315 -0.0881 -0.2971 -0.0754
40303W        W83220  30.937  21.664  19.781 -0.0979 -0.3770 -0.2241
40304W        W83221  31.004  22.606  19.357 -0.2644  0.0354  0.1735
40305W        W83222  28.515  24.446  18.746 -0.0290 -0.4609  0.0219
40306W        W83223  30.316  23.975  17.652 -0.2191  0.1009  0.0294
40307W        W83224  30.695  26.376  22.486  0.1534  0.2518 -0.0010
40308W        W83225  29.638  26.054  19.909  0.0990 -0.1323  0.0584
40309W        W83226  32.424  21.464  21.140 -0.0130 -0.0601 -0.1463
40310W        W83227  30.803  25.537  19.044 -0.0917 -0.3097 -0.2140
40311W        W83228  32.265  24.012  16.827  0.1115 -0.1255  0.1450
40312W        W83229  31.054  24.076  17.583 -0.0719  0.0618  0.0100
40313W        W83230  33.756  22.476  18.143 -0.0941 -0.0062  0.0032
40314W        W83231  31.504  21.344  20.279 -0.3225 -0.1831 -0.0577
40315W        W83232  30.987  23.936  18.808  0.1729 -0.0166  0.0772
40316W        W83233  30.576  23.264  18.000 -0.1559 -0.1417 -0.1214
40317W        W83234  29.589  25.308  21.741 -0.1980 -0.0888 -0.1114
40318W        W83235  32.861  22.897  17.349 -0.0138  0.1546  0.1218
40319W        W83236  29.629  23.349  21.157 -0.1718  0.1975 -0.0288
40320W        W83237  28.479  26.201  20.584 -0.2565 -0.0930  0.1799
40321W        W83238  29.549  25.506  20.655  0.0093  0.0021 -0.1427
40322W        W83239  32.463  23.687  17.203 -0.1272  0.0194 -0.0412
40323W        W83240  32.778  25.830  18.553 -0.0283 -0.0289  0.0088
40324W        W83241  32.889  25.091  17.242  0.1517 -0.1501  0.0618
40325W        W83242  31.931  23.506  20.123  0.0630  0.0548 -0.1268
40326W        W83243  28.318  23.066  20.516 -0.0032  0.0103  0.1369
40327W        W83244  29.419  24.011  19.832  0.0466 -0.0279 -0.2271
40328W        W83245  29.815  21.258  16.679 -0.2089 -0.1878  0.3178
40329W        W83246  33.687  26.412  18.632 -0.1196 -0.0914  0.0565
40330W        W83247  27.486  23.232  22.204  0.0953 -0.0375 -0.1649
40331W        W83248  34.238  22.455  18.405 -0.0861 -0.0448 -0.3775
40332W        W83249  32.498  22.802  20.103 -0.0668 -0.6214  0.2665
40333W        W83250  32.027  23.766  17.989 -0.1118  0.0320 -0.2022
40334W        W83251  33.538  25.430  17.446 -0.1320 -0.0119 -0.1287
40335W        W83252  34.213  20.681  17.808  0.0350 -0.1297 -0.1995
40336W        W83253  31.409  22.416  19.019  0.2493 -0.3687  0.2341
40337W        W83254  31.221  25.113  18.823 -0.3817  0.2911  0.2203
40338W        W83255  29.896  23.381  20.713  0.1449  0.0338  0.0654
40339W        W83256  33.436  25.872  19.837 -0.4174 -0.1330  0.1213
40340W        W83257  33.442  22.405  19.042  0.0660 -0.2022 -0.2736
40341W        W83258  30.830  24.384  19.120 -0.2954 -0.1843 -0.0109
40342W        W83259  31.910  22.689  21.397 -0.0605 -0.1313  0.0053
40343W        W83260  32.464  25.865  22.671  0.0130  0.0752 -0.0123
40344W        W83261  30.054  25.995  17.733 -0.0091  0.2286 -0.0092
40345W        W83262  28.629  24.393  18.073  0.1138 -0.2425  0.0828
40346W        W83263  31.539  25.266  18.343  0.1670 -0.2203  0.0189
40347W        W83264  30.327  22.172  18.881 -0.1493 -0.0830 -0.1974
40348W        W83265  29.991  24.360  20.291 -0.0155  0.0252 -0.0381
40349W        W83266  32.844  23.106  19.131 -0.2314 -0.0900 -0.2195
40350W        W83267  30.880  22.184  19.745 -0.1450 -0.0681  0.0995
40351W        W83268  31.727  21.218  19.295  0.1739 -0.1383  0.1590
40352W        W83269  31.096  23.139  17.060 -0.0074 -0.0221 -0.1646
40353W        W83270  33.668  26.722  18.147 -0.2077  0.0596 -0.3485
40354W        W83271  32.098  24.085  18.408  0.0722  0.1785 -0.0139
40355W        W83272  32.760  24.826  17.706  0.0103 -0.0632 -0.2349
40356W        W83273  27.868  24.032  18.937 -0.1104  0.2913 -0.2372
40357W        W83274  30.996  23.431  18.744  0.3195 -0.0078  0.1367
40358W        W83275  30.330  24.110  21.264  0.1759 -0.1962 -0.0146
40359W        W83276  28.702  22.956  18.615  0.1803  0.1892 -0.0105
40360W        W83277  32.080  24.259  20.667 -0.1590  0.1236 -0.3590
40361W        W83278  30.472  22.778  18.094  0.0173  0.2611  0.1006
40362W        W83279  34.106  23.937  19.500 -0.2231 -0.1464  0.1210
40363W        W83280  30.990  23.431  18.197  0.4217  0.1965 -0.3690
40364W        W83281  31.693  24.097  18.740 -0.1206 -0.1420 -0.0366
40365W        W83282  33.674  22.100  19.489  0.3538  0.1419  0.1057
40366W        W83283  31.878  22.083  20.301  0.0171 -0.0694  0.1052
40367W        W83284  32.505  26.274  19.960  0.0131  0.2134 -0.0466
40368W        W83285  31.244  26.393  18.134 -0.2577 -0.0741 -0.0179
40369W        W83286  31.126  22.121  19.319 -0.0328 -0.1362  0.3129
40370W        W83287  31.151  20.405  18.023  0.3740  0.0476  0.0682
40371W        W83288  29.410  24.997  20.574  0.1440  0.2244  0.1029
40372W        W83289  32.503  25.078  19.283 -0.2513  0.0224  0.1342
40373W        W83290  30.873  22.044  16.468 -0.0111  0.0590 -0.3491
40374W        W83291  31.066  26.248  19.490  0.1530  0.0270  0.0811
40375W        W83292  32.783  23.350  18.504  0.1685  0.0436  0.0818
40376W        W83293  31.184  22.278  20.214 -0.0824 -0.4111  0.0547
40377W        W83294  32.444  22.026  19.860 -0.0602 -0.1939 -0.0575
40378W        W83295  33.961  23.588  20.577 -0.1661 -0.1344  0.1953
40379W        W83296  31.863  22.662  19.185 -0.1619  0.2117 -0.3205
40380W        W83297  29.700  22.495  17.017 -0.0423 -0.0634  0.1703
40381W        W83298  33.094  26.541  18.541  0.1593  0.1831  0.1729
40382W        W83299  29.660  24.714  17.349 -0.1618 -0.2068  0.0542
40383W        W83300  30.438  21.657  18.817  0.1475 -0.2037  0.0424
40384W        W83301  30.267  24.678  20.544 -0.0699 -0.0246  0.0774
40385W        W83302  31.873  21.676  18.970  0.2550  0.1079  0.1637
40386W        W83303  27.519  24.747  19.948 -0.0939 -0.1075 -0.0230
40387W        W83304  30.024  22.443  19.215 -0.0915 -0.3451 -0.0635
40388W        W83305  31.050  23.605  17.238  0.4661 -0.0689  0.1427
40389W        W83306  28.953  25.873  19.737 -0.0023 -0.3482 -0.0095
40390W        W83307  32.498  22.226  18.585  0.0176 -0.0645  0.1520
40391W        W83308  33.633  21.487  16.826  0.0470 -0.0833  0.0418
40392W        W83309  31.073  23.341  20.284  0.2372 -0.1020 -0.1494
40393W        W83310  32.346  22.916  17.876  0.0006  0.2540  0.0982
40394W        W83311  31.266  24.764  18.073  0.2601 -0.0605 -0.5950
40395W        W83312  32.110  21.896  17.670 -0.0205  0.2739 -0.2130
40396W        W83313  28.437  24.588  22.214 -0.1412 -0.0925  0.3533
40397W        W83314  32.191  22.412  19.463 -0.2389 -0.3436 -0.1279
40398W        W83315  30.716  23.789  20.493  0.1082  0.1408 -0.4274
40399W        W83316  31.743  22.747  16.523  0.0497 -0.1157  0.1156
40400W        W83317  33.158  22.981  17.756  0.0229 -0.0031 -0.1392
40401W        W83318  30.333  24.220  18.084 -0.1317 -0.4269  0.3741
40402W        W83319  31.328  24.356  21.017 -0.0477 -0.0775  0.1358
40403W        W83320  32.604  25.602  19.453  0.1199 -0.0194 -0.1076
40404W        W83321  28.939  22.805  19.052  0.1177 -0.3491  0.1310
40405W        W83322  31.993  22.788  18.208 -0.0534 -0.0616  0.2489
40406W        W83323  30.914  22.368  18.911 -0.0150  0.0039  0.1094
40407W        W83324  30.462  24.668  17.223 -0.1477  0.0602  0.0637
40408W        W83325  30.137  20.318  17.975  0.1123  0.0153 -0.2633
40409W        W83326  30.256  21.946  18.314  0.0106  0.0481  0.2043
40410W        W83327  29.407  22.114  18.306  0.0333  0.0804 -0.1903
40411W        W83328   0.130  22.321  19.241  0.0808 -0.3186 -0.0099
40412W        W83329  32.956  22.266  18.794 -0.0124 -0.1267 -0.1571
40413W        W83330  31.271  22.830  20.205 -0.0581 -0.2282 -0.3326
40414W        W83331  31.338  24.409  17.124  0.3112  0.1278  0.1751
40415W        W83332  30.966  21.362  20.218 -0.0024  0.0683 -0.1395
40416W        W83333  29.704  23.771  19.459 -0.2675 -0.0239  0.0207
40417W        W83334  29.087  27.033  19.682 -0.1215 -0.0871  0.0304
40418W        W83335  31.826  25.907  19.853  0.0936 -0.1455 -0.1271
40419W        W83336  32.319  22.921  19.120  0.0718 -0.2164  0.1455
40420W        W83337  30.693  22.630  17.688 -0.1301  0.2425  0.0688
40421W        W83338  31.646  24.002  18.228 -0.4535  0.0568  0.2118
40422W        W83339  29.700  25.704  18.757 -0.1221 -0.1590  0.0310
40423W        W83340  31.654  22.471  20.020  0.0430 -0.1966  0.1094
40424W        W83341  29.559  20.546  18.780  0.2631  0.0387 -0.1512
40425W        W83342  31.098  26.090  20.511 -0.1788  0.2225  0.0102
40426W        W83343  31.954  24.700  17.438 -0.0303  0.0239  0.0155
40427W        W83344  30.601  24.070  19.469 -0.0917  0.3337  0.1359
40428W        W83345  29.870  25.104  18.875 -0.1738 -0.2549 -0.2547
40429W        W83346  31.658  20.280  18.681  0.3018  0.0036  0.2033
40430W        W83347  29.200  26.347  19.060 -0.0555 -0.0195 -0.0553
40431W        W83348  30.473  23.273  17.120  0.2199 -0.0773  0.0832
40432W        W83349  30.007  22.019  17.646 -0.2815 -0.0197 -0.0208
40433W        W83350  32.959  21.822  16.521  0.1153 -0.4081  0.1486
40434W        W83351  31.994  23.125  16.714  0.3506 -0.1728 -0.4969
40435W        W83352  30.597  22.989  19.438  0.0701 -0.0492  0.1421
40436W        W83353  31.500  23.237  18.850 -0.0008 -0.2036 -0.3313
40437W        W83354  29.514  25.275  20.081  0.2192  0.1089 -0.0179
40438W        W83355  30.452  25.415  20.097 -0.1404  0.0944  0.3843
40439W        W83356  32.496  22.184  17.486 -0.1716 -0.0621 -0.1690
40440W        W83357  31.969  25.338  18.002  0.1710  0.0319  0.2180
40441W        W83358  29.921  25.551  20.149 -0.2157  0.1830  0.1648
40442W        W83359  29.812  23.919  18.383  0.0196 -0.0448 -0.0699
40443W        W83360  32.892  23.482  20.614 -0.2660 -0.2512 -0.1339
40444W        W83361  28.346  23.978  18.681  0.0448 -0.3767  0.0255
40445W        W83362  29.302  24.004  21.405  0.1545  0.2630  0.0241
40446W        W83363  33.049  22.677  19.058 -0.1065  0.2202 -0.2048
40447W        W83364  30.892  24.272  18.035  0.0187 -0.1067  0.0890
40448W        W83365  30.725  23.669  17.780 -0.3013  0.1930  0.0430
40449W        W83366  29.294  22.523  22.411  0.1202 -0.2413 -0.0800
40450W        W83367  29.928  22.849  20.691 -0.2507 -0.0036 -0.4328
40451W        W83368  30.978  23.104  19.178  0.2341  0.1014 -0.1452
40452W        W83369  29.817  22.869  21.248  0.2107  0.1970 -0.1857
40453W        W83370  30.368  23.566  19.608  0.1370 -0.3558 -0.1808
40454W        W83371  32.911  24.753  19.059  0.1460 -0.1991 -0.0215
40455W        W83372  31.117  24.048  20.303  0.1992 -0.0429  0.3322
40456W        W83373  30.596  23.980  22.292 -0.0423 -0.4366 -0.2367
40457W        W83374  29.573  21.330  17.976  0.2002  0.1612 -0.0241
40458W        W83375  33.819  26.970  16.734 -0.1378 -0.1284 -0.0501
40459W        W83376  30.735  25.738  19.842 -0.2466  0.3572  0.1467
40460W        W83377  30.741  24.983  19.077 -0.0436 -0.1443 -0.4425
40461W        W83378  29.328  24.106  18.525 -0.0937 -0.0399 -0.3057
40462W        W83379  30.257  24.312  18.576 -0.2152  0.0409 -0.2016
40463W        W83380  30.662  21.967  19.190 -0.3550  0.0124 -0.2465
40464W        W83381  30.784  26.117  20.932 -0.1434  0.1369  0.2225
40465W        W83382  30.852  25.071  18.019 -0.3187 -0.0754 -0.1130
40466W        W83383  29.706  23.785  20.406  0.0170 -0.1452  0.1449
40467W        W83384  33.075  21.597  16.941 -0.1290 -0.0134 -0.2273
40468W        W83385  30.888  22.621  19.958  0.0734  0.0969  0.1380
40469W        W83386  31.596  23.872  17.680  0.1889  0.0425 -0.0454
40470W        W83387  32.067  19.936  20.041  0.1499  0.3760 -0.0375
40471W        W83388  33.345  22.561  17.899  0.0123 -0.2459  0.0334
40472W        W83389  33.865  20.179  21.581 -0.3650  0.0134 -0.1489
40473W        W83390  30.817  22.394  18.144  0.0166  0.0841 -0.0921
40474W        W83391  31.783  24.251  19.215 -0.0368 -0.1108 -0.0379
40475W        W83392  28.154  22.371  21.358 -0.1730  0.2056  0.0278
40476W        W83393  30.341  27.098  22.054  0.0155  0.0091  0.1656
40477W        W83394  29.721  26.270  20.958 -0.0321  0.0376  0.3947
40478W        W83395  30.745  21.339  17.125 -0.1977  0.0674 -0.1150
40479W        W83396  30.661  22.831  17.257 -0.0140  0.1489  0.1488
40480W        W83397  28.814  23.837  18.540 -0.1345 -0.0852 -0.2881
40481W        W83398  32.837  23.867  18.215  0.1356 -0.0585  0.3196
40482W        W83399  32.222  24.009  17.568 -0.2379  0.3991 -0.0582
40483W        W83400  32.500  22.608  18.260  0.5306 -0.0314 -0.0353
40484W        W83401  29.559  23.148  21.664  0.0501 -0.1189 -0.0831
40485W        W83402  31.716  23.667  21.460  0.2275 -0.0495  0.1106
40486W        W83403  32.013  23.042  17.507  0.0920  0.3310  0.0169
40487W        W83404  29.013  23.369  18.610  0.0161 -0.2009  0.2109
40488W        W83405  30.189  22.906  19.261 -0.1386 -0.4188  0.1594
40489W        W83406  32.292  23.710  19.804  0.0920  0.1600  0.0335
40490W        W83407  30.546  22.764  18.916 -0.0917 -0.1658 -0.1813
40491W        W83408  31.544  20.901  19.548 -0.0366 -0.3547 -0.0219
40492W        W83409  29.604  25.279  21.216 -0.1925  0.0084  0.1748
40493W        W83410  29.614  22.784  22.057 -0.0837  0.1590 -0.1539
40494W        W83411  30.219  23.018  19.934  0.2545  0.0573  0.1543
40495W        W83412  31.047  27.282  19.502  0.0184 -0.1303 -0.0612
40496W        W83413  33.968  23.447  17.538  0.2220 -0.1737  0.0913
40497W        W83414  31.711  23.632  19.625  0.1632 -0.3249  0.0272
40498W        W83415  32.384  22.833  19.589 -0.0940 -0.1338 -0.0806
40499W        W83416  31.556  23.513  18.091  0.2695 -0.0750 -0.0208
40500W        W83417  30.893  23.353  19.668  0.2426  0.0837 -0.2465
40501W        W83418  31.190  24.513  20.548 -0.0861  0.0964 -0.0295
40502W        W83419  30.452  21.845  17.443  0.1245 -0.1405 -0.1329
40503W        W83420  31.405  22.152  20.593  0.0960 -0.1691 -0.1709
40504W        W83421  31.488  24.920  17.129 -0.1888  0.0779 -0.1443
40505W        W83422  31.916  24.365  17.811 -0.2819 -0.0811 -0.4143
40506W        W83423  32.714  22.057  16.952 -0.0396  0.1902  0.1189
40507W        W83424  28.064  22.742  18.554  0.3251  0.0597  0.0644
40508W        W83425  30.655  25.203  21.460  0.2780  0.1241 -0.1616
40509W        W83426  31.489  24.818  18.568 -0.1062  0.1527  0.0140
40510W        W83427  32.452  24.439  17.633  0.4176  0.2572 -0.3937
40511W        W83428  32.401  23.487  19.355 -0.0125  0.0939 -0.4123
40512W        W83429  29.857  23.512  21.952  0.0704 -0.1921  0.0274
40513W        W83430  31.006  21.527  16.635  0.4583 -0.2502  0.0367
40514W        W83431  31.115  23.621  20.743 -0.0229  0.1860 -0.2166
40515W        W83432  30.898  27.180  18.989  0.0846  0.0994  0.0864
40516W        W83433  31.613  22.602  17.526 -0.0651 -0.1664 -0.1312
40517W        W83434  28.490  25.761  20.007 -0.0752  0.1343 -0.1411
40518W        W83435  29.223  25.501  19.646 -0.2221 -0.1719 -0.1600
40519W        W83436  31.806  25.287  17.422 -0.3733  0.0779 -0.0262
40520W        W83437  32.302  19.748  19.052  0.1446  0.0631 -0.4500
40521W        W83438  31.187  22.956  19.690 -0.0500  0.0178  0.2222
40522W        W83439  30.399  23.537  20.202 -0.2581 -0.1349  0.2563
40523W        W83440  33.227  21.900  19.090  0.0221 -0.2649  0.1135
40524W        W83441  29.996  24.286  21.726 -0.2216  0.2572  0.0337
40525W        W83442  29.480  24.801  21.293  0.1441  0.1769  0.1508
40526W        W83443  31.041  26.113  21.603  0.1123  0.2272 -0.2894
40527W        W83444  33.173  21.745  19.597 -0.0589  0.1354  0.3010
40528W        W83445  30.446  24.665  18.858 -0.0826 -0.2447  0.4837
40529W        W83446  31.897  22.073  19.794  0.1632 -0.1402 -0.2240
40530W        W83447  30.952  23.765  22.043  0.1188  0.1406  0.2264
40531W        W83448  31.965  23.764  19.214 -0.2471 -0.1118  0.0141
40532W        W83449  31.404  24.270  17.897 -0.0846  0.0564  0.0795
40533W        W83450  31.284  27.715  17.765  0.1229  0.0194  0.0256
40534W        W83451  29.844  26.085  19.465 -0.1325  0.2789  0.3389
40535W        W83452  28.770  25.077  19.504  0.0338 -0.0710 -0.1048
40536W        W83453  30.076  24.821  17.619  0.2171  0.1172 -0.1647
40537W        W83454  33.639  25.211  17.881 -0.1260  0.3093 -0.1147
40538W        W83455  32.345  23.082  18.401 -0.0089  0.1746 -0.2260
40539W        W83456  32.338  26.051  18.221 -0.1164  0.1811 -0.1062
40540W        W83457  31.836  22.239  18.726  0.4303 -0.1631  0.1329
40541W        W83458  30.703  24.290  20.309  0.2611  0.0987 -0.0254
40542W        W83459  31.620  27.160  18.496 -0.2386 -0.4416  0.3372
40543W        W83460  31.321  27.260  18.087 -0.2187  0.0133 -0.0718
40544W        W83461  31.746  26.680  19.520  0.0205  0.0306  0.3109
40545W        W83462  32.140  25.598  19.053 -0.1721  0.0969  0.0503
40546W        W83463  32.047  23.507  17.590  0.1542  0.0025 -0.1952
40547W        W83464  30.244  23.911  20.444  0.3145 -0.0197 -0.2563
40548W        W83465  33.563  24.471  19.785 -0.3367 -0.2319  0.0041
40549W        W83466  30.128  26.790  21.695 -0.1829 -0.2986 -0.2220
40550W        W83467  29.871  23.313  19.619 -0.2452 -0.1490  0.1829
40551W        W83468  30.988  22.625  16.953 -0.2854 -0.0840 -0.0290
40552W        W83469  29.929  23.365  20.201  0.0593  0.1285  0.0051
40553W        W83470  34.257  20.232  19.239 -0.2012 -0.0046 -0.0329
40554W        W83471  28.743  27.059  20.123 -0.3159 -0.2248 -0.1060
40555W        W83472   0.068  26.409  17.845  0.1102 -0.0848  0.0103
40556W        W83473  30.288  23.692  18.009  0.2699 -0.2778  0.0623
40557W        W83474  29.328  23.638  18.304 -0.3716 -0.0690  0.0561
40558W        W83475  32.324  21.700  18.094  0.1969  0.0905 -0.1422
40559W        W83476  30.108  25.314  19.716 -0.2048 -0.3778  0.3229
40560W        W83477  32.141  22.137  18.279 -0.0608 -0.4856 -0.2188
40561W        W83478  33.800  26.149  18.066 -0.2664  0.0803  0.1334
40562W        W83479  30.136  25.461  17.814 -0.3844 -0.2271 -0.1737
40563W        W83480  30.384  25.873  19.218 -0.2486  0.0852 -0.1038
40564W        W83481  29.734  21.220  17.147  0.1049  0.4007 -0.1312
40565W        W83482  34.651  23.452  19.397  0.4486  0.2006  0.0660
40566W        W83483  30.686  23.131  20.084  0.0044 -0.0531  0.2391
40567W        W83484  32.515  20.621  18.663 -0.0127 -0.1626  0.0784
40568W        W83485  31.341  23.393  19.394  0.1896  0.2835  0.0980
40569W        W83486  33.078  21.453  18.110  0.0714  0.3462  0.0761
40570W        W83487  29.975  23.939  22.182  0.1249  0.1178  0.2032
40571W        W83488  29.188  21.508  19.548  0.2771 -0.3189  0.0141
40572W        W83489  32.144  22.624  18.677  0.0168 -0.0863 -0.3633
40573W        W83490  31.532  22.666  21.036  0.0995  0.2279 -0.0488
40574W        W83491  33.423  22.232  17.485 -0.1225  0.3509 -0.0548
40575W        W83492  30.057  25.913  22.073 -0.0129  0.1340  0.1093
40576W        W83493  30.013  22.133  17.082 -0.4866 -0.6538 -0.0070
40577W        W83494  32.630  23.271  18.029  0.1935 -0.1349  0.0534
40578W        W83495  28.878  25.121  17.742 -0.0333  0.0407  0.3552
40579W        W83496  29.437  26.663  19.681  0.0568  0.2721 -0.1381
40580W        W83497  31.584  26.681  21.836  0.5205 -0.0050 -0.1113
40581W        W83498  31.163  23.874  18.015 -0.0409  0.2928 -0.2129
40582W        W83499   0.169  26.274  17.136  0.0349 -0.2480 -0.0398
40583W        W83500  30.320  23.109  20.453 -0.0824  0.2700 -0.0113
40584W        W83501  32.774  25.718  18.044  0.0784  0.2776 -0.1489
40585W        W83502  31.276  24.230  18.427 -0.0007 -0.1048 -0.5210
40586W        W83503  33.150  23.399  18.134  0.1095  0.1282 -0.2337
40587W        W83504  30.530  24.518  19.845  0.0853  0.0495  0.2534
40588W        W83505  32.530  26.234  17.823  0.1335 -0.1390 -0.0911
40589W        W83506  33.783  25.924  18.718 -0.1349  0.0710 -0.0210
40590W        W83507  31.614  21.546  17.570 -0.2147 -0.3498  0.0430
40591W        W83508  30.626  23.895  18.320 -0.1294 -0.1906 -0.1252
40592W        W83509  30.445  26.032  18.252  0.1546  0.2969  0.1933
40593W        W83510  31.456  22.770  17.040 -0.0281 -0.3017 -0.2179
40594W        W83511  32.611  22.349  20.231  0.1659 -0.0701 -0.1282
40595W        W83512  30.651  25.733  18.540  0.4669 -0.1281 -0.1015
40596W        W83513  30.663  21.836  21.140 -0.2159  0.0616 -0.1454
40597W        W83514  32.631  24.186  19.733  0.0933  0.2135  0.1397
40598W        W83515  28.606  24.879  20.633 -0.3046 -0.1156 -0.0103
40599W        W83516  29.739  25.177  16.975 -0.0444 -0.2019  0.0807
40600W        W83517  30.965  24.730  18.666 -0.1576  0.3012 -0.0826
40601W        W83518  28.031  25.036  19.771  0.2309 -0.0094 -0.2582
40602W        W83519  32.877  24.114  17.702  0.0930  0.0835  0.1696
40603W        W83520  33.554  23.842  18.742 -0.4301  0.0969  0.1826
40604W        W83521  31.450  24.188  19.955 -0.0664  0.1127  0.0020
40605W        W83522  32.569  25.456  18.969 -0.2071 -0.1399  0.1037
40606W        W83523  31.199  22.417  18.503  0.2645  0.1563  0.1753
40607W        W83524  30.360  21.260  17.441 -0.0419 -0.2023 -0.0350
40608W        W83525  31.270  22.043  18.171  0.0080 -0.1817  0.0388
40609W        W83526  31.589  26.171  21.636  0.0890  0.1858  0.0249
40610W        W83527  29.584  23.018  16.983  0.2025  0.1702  0.5055
40611W        W83528  27.964  24.973  18.981 -0.0530 -0.0590  0.0245
40612W        W83529  30.480  24.454  17.685 -0.0262  0.2981 -0.0630
40613W        W83530  32.207  20.968  21.203 -0.2090  0.0238 -0.0901
40614W        W83531  28.420  21.788  19.795 -0.2180 -0.3947  0.3101
40615W        W83532  29.851  24.086  20.756  0.1328 -0.1280  0.0948
40616W        W83533  31.206  20.847  17.399  0.1584 -0.1997 -0.3936
40617W        W83534  33.885  25.715  17.204  0.2128 -0.1312  0.3937
40618W        W83535  28.122  22.795  19.752 -0.0654  0.1929  0.1784
40619W        W83536  28.915  24.373  18.469 -0.2508 -0.0355  0.1626
40620W        W83537  32.253  24.897  19.727 -0.1898 -0.1207  0.1065
40621W        W83538  31.656  22.768  18.657 -0.0366 -0.1508  0.0123
40622W        W83539  31.844  23.249  18.423  0.2110 -0.0359 -0.3023
40623W        W83540  30.629  23.330  21.212 -0.1141  0.1348 -0.0193
40624W        W83541  30.562  25.045  17.605  0.1351 -0.0674 -0.1956
40625W        W83542  30.148  22.997  22.122  0.0729 -0.1250 -0.1791
40626W        W83543  32.816  21.093  21.129  0.2061 -0.0408 -0.1098
40627W        W83544  28.067  20.973  17.306  0.2914 -0.1778 -0.0561
40628W        W83545  30.472  24.226  20.797 -0.0729  0.0905  0.1946
40629W        W83546  33.196  23.531  19.009  0.3760  0.0158  0.0497
40630W        W83547  33.600  27.227  18.071  0.1908 -0.2232 -0.2311
40631W        W83548  31.956  21.640  20.502 -0.0811 -0.0217  0.0131
40632W        W83549  31.438  25.202  21.986 -0.0266 -0.3874  0.0187
40633W        W83550  29.014  20.510  21.388  0.3257  0.1239  0.1168
40634W        W83551  31.568  25.788  18.682 -0.1577 -0.1583 -0.0947
40635W        W83552  31.315  24.305  19.439  0.4292  0.2115  0.1376
40636W        W83553  33.155  25.094  17.718 -0.0242  0.1269 -0.1178
40637W        W83554  31.539  23.255  19.905  0.2270  0.1400  0.0378
40638W        W83555  33.794  23.558  20.128 -0.1043  0.2150 -0.3013
40639W        W83556  30.359  21.314  20.254 -0.2539 -0.0765 -0.1546
40640W        W83557  29.979  24.072  23.541 -0.2411  0.1551  0.2502
40641W        W83558  30.800  24.822  20.164 -0.3832 -0.2395 -0.0543
40642W        W83559  28.790  21.507  18.068  0.1533  0.1014 -0.0337
40643W        W83560  31.800  22.384  16.838 -0.1061 -0.1420  0.2289
40644W        W83561   0.345  26.697  17.361  0.3071  0.1618  0.0037
40645W        W83562  31.142  25.198  19.386  0.1057 -0.2349  0.0470
40646W        W83563  32.514  23.274  17.507  0.1607  0.2381 -0.1145
40647W        W83564  30.895  23.686  19.262 -0.0368 -0.0544  0.2151
40648W        W83565  32.850  26.028  20.268  0.2459  0.0624 -0.0244
40649W        W83566  30.305  24.957  20.038 -0.0039  0.1175 -0.0217
40650W        W83567  32.496  24.750  17.232  0.1621 -0.3023  0.5041
40651W        W83568  31.779  24.450  18.353  0.1072 -0.0145 -0.1283
40652W        W83569  32.098  27.056  20.292 -0.1974 -0.1868 -0.0013
40653W        W83570  31.605  26.974  20.008 -0.1303 -0.0822 -0.1097
40654W        W83571  28.909  26.051  20.830 -0.2200 -0.0399 -0.2069
40655W        W83572  32.601  24.229  18.466  0.2561 -0.1388  0.0826
40656W        W83573  28.695  22.146  20.529  0.0936 -0.3465  0.0071
40657W        W83574  30.803  23.210  17.517  0.3821 -0.1824 -0.1707
40658W        W83575  28.580  23.287  21.397  0.0126 -0.1203  0.1233
40659W        W83576  32.354  21.941  19.389  0.0868 -0.0127 -0.4188
40660W        W83577  30.768  24.295  18.565 -0.2532  0.3774  0.0894
40661W        W83578  33.045  22.149  17.788  0.0417 -0.0638 -0.2172
40662W        W83579  30.375  26.210  20.076  0.1835 -0.1138 -0.0118
40663W        W83580  33.221  23.119  20.661  0.1252  0.0360  0.1954
40664W        W83581  27.649  24.141  23.770  0.1138 -0.3647  0.1888
40665W        W83582  29.261  25.646  21.472 -0.0992 -0.1171  0.0447
40666W        W83583  32.447  23.242  20.254  0.4501 -0.0238  0.1786
40667W        W83584  32.755  23.789  23.542  0.0308 -0.2151 -0.1330
40668W        W83585  28.214  23.632  21.357  0.0678 -0.2303 -0.1346
40669W        W83586  32.589  26.409  22.778  0.1196 -0.4222 -0.1104
40670W        W83587  31.893  22.476  22.487  0.2185  0.1371  0.0367
40671W        W83588  33.317  24.076  22.269  0.2691 -0.0505  0.0948
40672W        W83589  33.342  25.219  23.682 -0.2104 -0.1435  0.1031
40673W        W83590  31.529  23.222  21.859 -0.0390 -0.1313  0.0904
40674W        W83591  29.429  23.625  25.014 -0.0101  0.2738  0.0525
40675W        W83592  31.086  25.108  21.654  0.3562  0.1632  0.0130
40676W        W83593  34.150  22.190  20.336  0.0861  0.0877 -0.1591
40677W        W83594  31.838  23.824  23.355  0.0180  0.3109  0.0210
40678W        W83595  31.736  23.774  22.798 -0.0647 -0.0675 -0.1122
40679W        W83596  29.199  23.538  21.598 -0.2184 -0.4630  0.1619
40680W        W83597  30.426  24.367  25.430 -0.0237 -0.1585 -0.1879
40681W        W83598  32.197  22.490  22.956  0.0239  0.1254 -0.2447
40682W        W83599  29.062  25.303  23.308  0.0812 -0.1502  0.2015
40683W        W83600  32.670  22.640  23.037 -0.0946 -0.2112  0.0435
40684W        W83601  33.564  23.100  24.603  0.0765 -0.1788  0.0017
40685W        W83602  32.452  24.766  23.505  0.1666 -0.1011  0.3669
40686W        W83603  30.233  23.846  22.678 -0.3694  0.1981 -0.1600
40687W        W83604  30.364  23.844  25.084 -0.0069  0.0991  0.2212
40688W        W83605  30.674  24.916  23.857 -0.1323 -0.2480 -0.0263
40689W        W83606  34.074  21.730  23.675  0.2304 -0.2576 -0.1066
40690W        W83607  32.757  22.510  22.171 -0.5022  0.0656  0.3730
40691W        W83608  31.062  24.892  22.082  0.4110  0.2813 -0.3030
40692W        W83609  33.621  26.727  25.712 -0.0511 -0.1449 -0.1089
40693W        W83610  31.098  24.628  21.531 -0.0437 -0.2764 -0.0812
40694W        W83611  30.116  24.700  21.970  0.2434 -0.0472 -0.0192
40695W        W83612  27.871  25.359  22.411  0.1951  0.0379  0.0567
40696W        W83613  32.162  25.003  21.869  0.0229  0.3489  0.2653
40697W        W83614  32.619  25.105  20.409 -0.2488  0.0660 -0.0914
40698W        W83615  32.859  25.284  24.783 -0.3940 -0.1502 -0.1119
40699W        W83616  30.022  26.199  23.480 -0.0839 -0.2816  0.0275
40700W        W83617  29.566  24.476  22.270  0.1247 -0.0784  0.1500
40701W        W83618  31.497  26.881  24.859 -0.3907 -0.0503  0.0867
40702W        W83619  30.083  24.585  23.297 -0.1643  0.2357  0.1167
40703W        W83620  32.734  23.425  22.580 -0.0895  0.2740  0.0420
40704W        W83621  30.794  25.233  20.945  0.2583  0.0492  0.1136
40705W        W83622  28.828  26.540  21.510 -0.1880  0.0610  0.1936
40706W        W83623  31.273  25.131  22.563  0.2345 -0.1118 -0.3184
40707W        W83624  29.691  24.749  23.668  0.1807 -0.1611 -0.1652
40708W        W83625  29.281  26.359  21.885  0.0413  0.1047  0.3119
40709W        W83626  32.283  22.051  23.804  0.3070 -0.2135  0.0196
40710W        W83627  31.016  24.251  22.448 -0.2194 -0.1309 -0.0336
40711W        W83628  33.285  22.003  21.000  0.1572 -0.4211 -0.1387
40712W        W83629  30.399  22.536  19.816 -0.2377  0.0741 -0.0898
40713W        W83630  32.866  20.030  20.606 -0.0548 -0.1629 -0.0075
40714W        W83631  31.489  21.482  21.314  0.1533 -0.1372  0.1832
40715W        W83632  30.596  25.787  22.219 -0.1347  0.0420 -0.0350
40716W        W83633  30.529  22.911  21.448  0.0423  0.1571 -0.0668
40717W        W83634  34.088  24.525  23.351  0.1949 -0.0857  0.3202
40718W        W83635  29.672  24.586  22.800 -0.2290 -0.2074  0.1866
40719W        W83636  32.750  21.814  22.207  0.2650  0.1215 -0.0814
40720W        W83637  30.152  26.869  24.967 -0.0255 -0.2393 -0.3833
40721W        W83638  29.042  24.249  23.473  0.1671 -0.2591  0.1713
40722W        W83639  30.774  24.655  20.719  0.1026  0.0117 -0.4484
40723W        W83640  32.874  24.103  21.879 -0.0211 -0.3557  0.0851
40724W        W83641  30.105  24.045  19.304 -0.4364 -0.0539 -0.2246
40725W        W83642  29.794  21.883  20.106 -0.1034  0.0341 -0.3079
40726W        W83643  28.774  26.721  22.730 -0.0352 -0.0308 -0.2199
40727W        W83644  28.138  24.102  25.995  0.1184 -0.0577 -0.1439
40728W        W83645  29.746  21.994  21.337 -0.1217  0.0985 -0.0780
40729W        W83646  33.605  23.916  25.046 -0.0126  0.0096  0.2010
40730W        W83647  30.193  25.738  23.121 -0.0796  0.1420  0.0200
40731W        W83648  32.868  23.602  23.054 -0.2190 -0.0249  0.0207
40732W        W83649  30.159  25.649  22.559  0.0602 -0.1027 -0.2015
40733W        W83650  33.106  24.799  22.642 -0.0318  0.0887 -0.2555
40734W        W83651  31.550  23.588  22.186  0.4022 -0.0248  0.1696
40735W        W83652  31.442  22.543  21.557  0.1828  0.1786  0.2926
40736W        W83653  33.604  22.403  21.285 -0.0765 -0.2034 -0.1870
40737W        W83654  31.432  24.533  22.067 -0.0644 -0.1087 -0.1611
40738W        W83655  33.388  23.521  22.282 -0.0447  0.3426  0.2528
40739W        W83656  33.342  24.530  23.256 -0.1311  0.2605 -0.3209
40740W        W83657  30.933  24.062  21.593  0.1559  0.1279  0.4884
40741W        W83658  27.656  27.105  23.346 -0.0518  0.2305  0.3380
40742W        W83659  31.965  22.927  22.779  0.1962 -0.0902 -0.1460
40743W        W83660  32.578  24.862  23.988  0.0232  0.2257  0.0111
40744W        W83661  28.549  27.046  20.837 -0.0501  0.2218  0.1391
40745W        W83662  28.555  24.203  23.129  0.0592  0.0049 -0.1026
40746W        W83663  30.564  25.000  23.340  0.3816 -0.4810  0.1720
40747W        W83664  32.113  24.802  24.147 -0.0048 -0.0159 -0.2011
40748W        W83665  29.627  25.003  22.174 -0.1886 -0.2087 -0.2885
40749W        W83666  31.188  23.072  20.721  0.0500  0.0974  0.1034
40750W        W83667  29.312  22.310  24.257  0.2504  0.0668  0.1548
40751W        W83668  32.269  24.616  22.359  0.1087  0.2616 -0.0086
40752W        W83669  30.763  23.788  21.024  0.4825  0.2801  0.3044
40753W        W83670  33.123  26.352  22.686 -0.1003 -0.1096  0.1363
40754W        W83671  32.325  24.008  21.972  0.1411  0.1482  0.0030
40755W        W83672  33.065  25.460  20.360  0.2946 -0.0000 -0.1752
40756W        W83673  28.583  22.550  23.927  0.1973 -0.2000  0.0509
40757W        W83674  31.954  23.378  23.126 -0.1265 -0.0932 -0.3161
40758W        W83675  29.780  22.095  23.150 -0.0923 -0.0394 -0.0985
40759W        W83676  27.690  22.949  21.818 -0.4152 -0.2735 -0.0867
40760W        W83677  31.874  24.394  22.589 -0.2321  0.2978 -0.2261
40761W        W83678  30.101  22.398  21.274  0.4901  0.0598 -0.3294
40762W        W83679  32.119  21.577  23.033  0.2461 -0.1505  0.1125
40763W        W83680  30.732  23.632  21.561  0.0608  0.1519  0.3281
40764W        W83681  28.806  25.192  23.774 -0.1034 -0.0577  0.0719
40765W        W83682  30.158  23.482  25.727 -0.2139 -0.0572 -0.2510
40766W        W83683  28.894  25.404  22.814  0.0919 -0.0690 -0.0558
40767W        W83684  32.634  26.356  21.832 -0.1435 -0.1555  0.0498
40768W        W83685  32.937  25.259  22.047 -0.1909 -0.0803 -0.2879
40769W        W83686  32.384  22.506  23.994  0.0051  0.0316  0.0773
40770W        W83687  28.731  21.722  20.865  0.0783 -0.0944 -0.1420
40771W        W83688  27.154  26.627  22.110 -0.3152  0.0424  0.1141
40772W        W83689  30.244  24.737  22.732  0.6882 -0.4225 -0.2412
40773W        W83690  30.550  23.096  22.415  0.0281 -0.2097  0.0501
40774W        W83691  33.037  23.889  22.730  0.3034 -0.1488  0.0824
40775W        W83692  29.633  24.680  21.762  0.2499 -0.0213 -0.0612
40776W        W83693  28.893  23.022  24.619  0.1340 -0.1740  0.1438
40777W        W83694  31.355  24.195  24.122  0.2754  0.0885  0.2293
40778W        W83695  32.998  24.684  22.129 -0.2113 -0.3363  0.1208
40779W        W83696  30.995  24.677  22.757  0.1065 -0.1724 -0.3209
40780W        W83697  28.990  22.465  20.240 -0.1318 -0.0167 -0.2501
40781W        W83698  30.758  26.846  19.447  0.2630 -0.1823 -0.3522
40782W        W83699  30.313  25.417  18.870  0.0565 -0.0009 -0.1684
40783W        W83700  28.048  24.453  23.901  0.0756  0.2434  0.0717
40784W        W83701  29.099  25.454  21.019  0.0002 -0.0710  0.0321
40785W        W83702  31.291  22.420  22.589  0.0473  0.1775  0.1720
40786W        W83703  30.221  24.962  24.582  0.2364 -0.0368  0.2207
40787W        W83704  31.655  24.972  23.944  0.0205  0.0236  0.0107
40788W        W83705  30.695  22.214  20.268 -0.3177 -0.1046 -0.3826
40789W        W83706  30.238  26.550  23.814  0.0118 -0.1501 -0.1445
40790W        W83707  31.147  21.478  22.254  0.0200  0.1042  0.0846
40791W        W83708   0.008  23.337  20.524  0.2367  0.2066  0.2992
40792W        W83709  29.685  22.358  20.535 -0.0407  0.3765  0.3480
40793W        W83710  31.706  25.327  22.545 -0.3316  0.2560  0.2166
40794W        W83711  34.108  23.173  20.932 -0.0443  0.0449 -0.1268
40795W        W83712  33.410  21.450  20.915 -0.4295  0.2389 -0.0875
40796W        W83713  31.635  25.559  24.370  0.0537 -0.5081 -0.0650
40797W        W83714  32.068  26.815  21.769  0.0355  0.2564 -0.0958
40798W        W83715  31.472  25.179  21.399 -0.0543 -0.0478 -0.0454
40799W        W83716  33.127  22.244  20.331  0.0573  0.1242 -0.2312
40800W        W83717  32.602  24.744  20.104  0.0991  0.0732 -0.1263
40801W        W83718  30.756  25.075  22.494 -0.1284  0.2906 -0.0622
40802W        W83719  34.280  24.690  23.942 -0.4042 -0.0613  0.1675
40803W        W83720  31.974  23.951  22.329  0.0826 -0.2996  0.0793
40804W        W83721  31.100  20.943  23.838 -0.1070  0.0858 -0.0823
40805W        W83722  32.121  22.051  22.753 -0.5665 -0.3305 -0.0735
40806W        W83723  30.347  22.533  22.298  0.2239  0.0632  0.2121
40807W        W83724  29.743  25.186  19.460 -0.1677 -0.3016  0.0121
40808W        W83725  32.401  23.666  22.273  0.0847  0.1134 -0.2835
40809W        W83726  30.620  22.030  21.605  0.0104  0.0713  0.0883
40810W        W83727  31.521  20.666  24.746 -0.0478  0.0377 -0.0167
40811W        W83728   0.868  21.838  24.949  0.0335  0.1188  0.3403
40812W        W83729  32.478  22.185  23.258  0.2118  0.0628 -0.0668
40813W        W83730  32.585  24.035  22.983 -0.0464  0.1660  0.1141
40814W        W83731  30.122  24.856  18.463  0.2209  0.0088 -0.0218
40815W        W83732  32.288  23.696  23.409 -0.2220  0.2691  0.2450
40816W        W83733  27.153  24.595  24.298  0.0188  0.1602  0.1458
40817W        W83734  29.624  26.036  24.219 -0.3491 -0.2940  0.0587
40818W        W83735  31.760  24.934  23.397  0.1644  0.0531 -0.0764
40819W        W83736  32.670  23.932  24.101  0.2003 -0.0989 -0.2057
40820W        W83737  33.541  21.870  22.643 -0.2160 -0.1621  0.2284
40821W        W83738  31.604  21.833  20.908  0.0277 -0.1083  0.4043
40822W        W83739  28.700  24.849  21.913 -0.0339 -0.0912 -0.4157
40823W        W83740  30.552  22.266  20.783 -0.1027 -0.0165  0.2034
40824W        W83741  28.846  20.791  22.160  0.2678  0.2320  0.2055
40825W        W83742  30.321  25.227  25.083 -0.0818  0.1174  0.0351
40826W        W83743  29.729  25.245  18.427  0.1449  0.0643 -0.0074
40827W        W83744  29.591  23.664  24.528  0.0970  0.0041  0.1392
40828W        W83745  28.385  25.881  21.717  0.2764 -0.2460 -0.0612
40829W        W83746  32.222  22.613  22.025 -0.0611 -0.1546  0.1135
40830W        W83747  27.844  22.578  22.196  0.0429  0.0078 -0.1106
40831W        W83748  31.442  21.839  20.227  0.1188  0.2616  0.0078
40832W        W83749  30.823  24.235  23.466  0.1376  0.0436  0.2046
40833W        W83750  31.820  22.811  21.854  0.0385 -0.1348 -0.2105
40834W        W83751  31.321  25.590  19.093 -0.2420  0.1912 -0.0664
40835W        W83752  28.968  23.296  25.036  0.3220 -0.2850  0.0506
40836W        W83753  31.364  20.610  19.989 -0.0073 -0.2698 -0.0158
40837W        W83754  28.599  26.966  24.085  0.0912  0.0211  0.1207
40838W        W83755  34.068  25.509  22.728  0.0568 -0.4745  0.4332
40839W        W83756  30.525  21.060  21.329  0.0256 -0.1475 -0.3522
40840W        W83757  32.512  25.198  24.328  0.0458 -0.1314  0.0664
40841W        W83758  31.585  27.007  23.835  0.0348  0.1238  0.0465
40842W        W83759  29.184  22.517  20.710  0.2156  0.0569 -0.3158
40843W        W83760  32.803  24.630  23.113 -0.2755 -0.0657 -0.0094
40844W        W83761  29.980  22.320  23.574  0.1499  0.3519  0.4039
40845W        W83762  27.352  23.590  23.185  0.4921 -0.2150 -0.0408
40846W        W83763  32.352  25.566  21.732 -0.2845 -0.1333 -0.3436
40847W        W83764  30.318  23.753  23.808  0.2201 -0.1802 -0.2903
40848W        W83765  28.395  27.785  21.542 -0.1826 -0.0801 -0.0896
40849W        W83766  31.283  22.388  23.069  0.0830  0.0054  0.2299
40850W        W83767  32.153  25.105  23.674 -0.3447  0.1029  0.1030
40851W        W83768  30.271  23.355  22.726 -0.4008 -0.1200 -0.1606
40852W        W83769  31.539  23.155  23.323 -0.2278 -0.1948 -0.0011
40853W        W83770  31.959  23.618  21.916 -0.4808 -0.0170 -0.0605
40854W        W83771  30.769  23.296  20.650  0.6153 -0.1222  0.1055
40855W        W83772  31.763  24.463  24.200  0.0094  0.0611 -0.0116
40856W        W83773  31.191  25.209  24.408  0.1077  0.1204  0.0628
40857W        W83774  32.472  21.713  23.412  0.2505  0.0161 -0.1447
40858W        W83775  34.218  25.025  23.506 -0.1156 -0.1757  0.0509
40859W        W83776  31.219  24.196  24.708  0.3542  0.1278 -0.0090
40860W        W83777  30.616  24.786  21.785 -0.1910  0.1411  0.1382
40861W        W83778  28.659  23.558  24.757 -0.2391 -0.0045 -0.1297
40862W        W83779  29.863  23.419  22.408 -0.1566 -0.1189  0.1263
40863W        W83780  30.571  21.723  24.844 -0.1073 -0.0139 -0.0326
40864W        W83781  29.052  25.571  24.107 -0.0757 -0.1354  0.1155
40865W        W83782  29.676  26.262  21.591 -0.4271  0.1045  0.0020
40866W        W83783  29.290  24.139  23.013  0.0467  0.2634 -0.0450
40867W        W83784  30.128  23.180  23.179  0.1147  0.1116  0.1106
40868W        W83785  31.760  25.567  22.012  0.1611 -0.3127 -0.0704
40869W        W83786  31.229  22.028  22.266  0.1868  0.2368 -0.0451
40870W        W83787   0.262  22.611  22.976  0.0372 -0.0934  0.1671
40871W        W83788  32.556  22.463  20.799  0.3654 -0.1986  0.1433
40872W        W83789  31.604  21.780  23.068  0.0600 -0.3254 -0.0587
40873W        W83790  29.926  21.235  25.106 -0.2147 -0.2492  0.2548
40874W        W83791  33.489  24.558  22.344  0.1744 -0.1540  0.1398
40875W        W83792  31.337  24.728  23.132 -0.0731 -0.3636  0.1703
40876W        W83793  32.163  26.875  23.751 -0.0878  0.0084 -0.0792
40877W        W83794  29.411  23.603  22.608 -0.4945 -0.2165  0.2705
40878W        W83795  28.566  23.682  21.791  0.3025  0.0674  0.2639
40879W        W83796  28.175  22.970  24.116 -0.0674 -0.1796 -0.0352
40880W        W83797  31.240  22.863  23.056 -0.0791 -0.0376  0.0798
40881W        W83798  30.282  23.806  21.693 -0.0552  0.1038  0.0190
40882W        W83799  34.350  22.817  20.573  0.1437  0.1826  0.1422
40883W        W83800  32.121  26.321  21.760 -0.3409  0.3010 -0.1235
40884W        W83801  31.632  24.650  24.799  0.0539  0.0773  0.1346
40885W        W83802  32.166  24.625  22.917 -0.0079  0.1294 -0.0075
40886W        W83803  30.708  22.836  22.003 -0.2159 -0.0845  0.0331
40887W        W83804  30.491  25.779  23.553  0.0303 -0.3873  0.0094
40888W        W83805  30.550  22.148  22.530  0.0164  0.2499  0.2760
40889W        W83806  32.753  26.112  22.359 -0.1157  0.4605  0.4541
40890W        W83807  30.079  22.811  21.662  0.0719 -0.1492  0.1763
40891W        W83808  31.555  21.817  21.695 -0.0900 -0.0034 -0.0764
40892W        W83809  32.114  24.096  22.960  0.1018 -0.1168 -0.1651
40893W        W83810  31.487  25.297  23.062  0.1379 -0.1767  0.0047
40894W        W83811  28.278  22.710  25.268 -0.0646  0.0255 -0.1962
40895W        W83812  32.739  26.519  23.937  0.1244 -0.4095 -0.2169
40896W        W83813  32.134  22.787  20.922  0.1284  0.0888  0.1861
40897W        W83814  31.189  23.643  22.534 -0.0871  0.1616  0.0450
40898W        W83815  32.580  21.900  21.214  0.0583  0.4885  0.2118
40899W        W83816  31.506  23.274  22.678 -0.1191 -0.0513 -0.1776
40900W        W83817  29.892  23.026  22.728  0.1543 -0.4662  0.1837
40901W        W83818  33.797  24.302  24.195 -0.0773 -0.0728 -0.2773
40902W        W83819  31.051  20.906  20.347  0.4417  0.1112 -0.3636
40903W        W83820  32.050  22.220  21.752 -0.2265  0.0968  0.0012
40904W        W83821  31.296  24.405  18.888 -0.0883 -0.1008 -0.0140
40905W        W83822  30.554  24.612  22.273  0.0521 -0.1169  0.1354
40906W        W83823  31.478  21.640  23.561  0.3048  0.0496 -0.0481
40907W        W83824  28.639  22.353  23.076  0.2961 -0.3532 -0.1316
40908W        W83825  27.685  23.943  23.346 -0.2491  0.0205 -0.0694
40909W        W83826  30.592  21.550  21.562  0.2034  0.0124 -0.0282
40910W        W83827  30.741  25.776  20.390  0.1900  0.4041 -0.2596
40911W        W83828  31.750  24.415  23.120 -0.2432 -0.1295  0.0307
40912W        W83829  31.688  24.077  24.505  0.0110  0.2108  0.0540
40913W        W83830  30.234  21.535  21.902  0.1757 -0.3344  0.0018
40914W        W83831  32.152  21.661  25.425 -0.2977  0.0982  0.1287
40915W        W83832  29.883  26.893  22.129  0.0402 -0.0712 -0.1143
40916W        W83833  31.980  21.532  23.619  0.0117 -0.3301 -0.2785
40917W        W83834  31.904  26.739  22.264 -0.1362  0.0941 -0.3178
40918W        W83835  27.287  24.906  24.626 -0.0614 -0.0040 -0.2066
40919W        W83836  30.815  25.681  21.785  0.2153  0.0320  0.0752
40920W        W83837  30.657  25.519  23.097  0.0460 -0.2885  0.0512
40921W        W83838  31.305  24.232  23.400 -0.0328  0.1177  0.0917
40922W        W83839  30.547  23.024  23.025  0.2216 -0.0854 -0.0406
40923W        W83840  31.246  24.230  22.893 -0.0646  0.1237 -0.3148
40924W        W83841  32.204  24.649  24.971  0.1536  0.0729 -0.0030
40925W        W83842  29.211  24.675  23.250  0.1125  0.0214 -0.0336
40926W        W83843  33.145  25.322  22.559  0.1279  0.0796 -0.0006
40927W        W83844  31.752  24.520  19.768  0.1521  0.0755 -0.0197
40928W        W83845  30.506  26.747  22.725  0.3520  0.2273  0.2427
40929W        W83846  26.919  25.209  23.481 -0.0239  0.1860 -0.2092
40930W        W83847  32.246  23.124  23.725  0.2210 -0.1656  0.0650
40931W        W83848  31.918  25.322  21.599 -0.3531  0.4036  0.0046
40932W        W83849  31.084  22.817  21.197  0.0282 -0.1654  0.0737
40933W        W83850  28.465  25.149  20.036 -0.1874  0.0015  0.1143
40934W        W83851  30.344  24.673  24.158  0.0192  0.0350  0.0019
40935W        W83852  29.452  24.170  24.886  0.0469  0.0318  0.0084
40936W        W83853  32.172  25.381  22.259  0.1758 -0.1875  0.0792
40937W        W83854  30.685  23.548  22.486 -0.1171  0.0532  0.1159
40938W        W83855  31.244  26.119  22.797 -0.2509  0.2219  0.0272
40939W        W83856  30.610  23.300  21.942  0.4030  0.3124 -0.3418
40940W        W83857  32.698  24.360  23.692 -0.1294  0.2111  0.0392
40941W        W83858  29.016  27.579  22.464  0.2991 -0.2111  0.0794
40942W        W83859  29.131  24.702  22.159 -0.2366 -0.1951  0.1767
40943W        W83860  31.451  26.051  23.347  0.0103 -0.3097 -0.1480
40944W        W83861  27.456  25.182  21.160  0.0898 -0.1561 -0.3377
40945W        W83862  30.473  24.733  26.392  0.4916  0.0326  0.0136
40946W        W83863  31.998  19.951  19.515 -0.3580  0.2654 -0.2273
40947W        W83864  31.893  23.219  21.523 -0.1642  0.4332  0.0203
40948W        W83865  32.658  23.323  23.422 -0.2177  0.3905  0.3375
40949W        W83866  30.623  23.565  24.241  0.1115 -0.0091 -0.1299
40950W        W83867  31.108  23.229  22.320 -0.2107 -0.1151 -0.1704
40951W        W83868  30.301  20.099  20.652  0.1042 -0.1487  0.1040
40952W        W83869  30.461  23.897  25.571 -0.1561  0.2338 -0.1755
40953W        W83870  32.404  20.214  25.754 -0.1243  0.1425  0.1005
40954W        W83871  29.706  26.056  27.233 -0.1584  0.1553 -0.0740
40955W        W83872  31.116  26.556  24.600 -0.3325  0.0475  0.0586
40956W        W83873  28.923  23.755  23.340 -0.1862  0.0890 -0.0550
40957W        W83874  28.642  25.307  24.486  0.3253  0.0485  0.3633
40958W        W83875  33.744  22.537  22.023  0.1581 -0.1954  0.1221
40959W        W83876  30.531  24.941  19.590  0.0095  0.2109 -0.0387
40960W        W83877  30.197  25.072  22.373  0.2585 -0.1822  0.2143
40961W        W83878  28.499  24.261  20.865 -0.2000  0.0172 -0.3108
40962W        W83879  31.642  25.630  21.323  0.0568  0.0701 -0.2884
40963W        W83880  32.794  25.146  21.556 -0.2104  0.1245 -0.0197
40964W        W83881  29.212  23.737  20.364 -0.1608  0.0618  0.0892
40965W        W83882  33.082  21.667  22.698  0.1013 -0.0183 -0.1792
40966W        W83883  30.676  23.086  24.444  0.3093 -0.3711  0.4097
40967W        W83884  33.019  22.125  22.461 -0.0798 -0.1070 -0.1095
40968W        W83885  29.980  23.683  21.163  0.1509 -0.0940  0.2285
40969W        W83886  32.992  22.372  21.145 -0.3434  0.1396 -0.2115
40970W        W83887  32.404  24.120  22.462  0.0597 -0.1438  0.1019
40971W        W83888  29.911  24.333  23.947  0.0106  0.0802 -0.1404
40972W        W83889  31.052  20.930  21.209 -0.1352 -0.0588 -0.0941
40973W        W83890  31.429  24.647  22.603  0.0949  0.1115  0.0510
40974W        W83891  30.049  24.721  21.276  0.0584 -0.0562  0.4428
40975W        W83892  32.326  25.513  23.441 -0.1878  0.3090 -0.0689
40976W        W83893  29.681  22.453  21.012 -0.1344 -0.0259  0.2389
40977W        W83894  30.064  22.114  22.706  0.1439 -0.0770  0.0354
40978W        W83895  28.031  24.919  23.630  0.0607  0.1717 -0.0742
40979W        W83896  30.607  23.953  24.658 -0.3218  0.1262 -0.1486
40980W        W83897  32.734  25.172  22.843  0.0095  0.2496  0.0255
40981W        W83898  30.219  21.038  21.718  0.0328 -0.0104  0.3085
40982W        W83899  32.887  23.016  20.279 -0.0437  0.2434 -0.0250
40983W        W83900  33.513  22.642  23.397  0.1124  0.0712 -0.2575
40984W        W83901  30.284  26.102  21.041 -0.0176 -0.1650  0.0345
40985W        W83902  34.367  23.873  20.894 -0.0129  0.1534  0.0721
40986W        W83903  33.223  25.503  21.751  0.0111  0.1988 -0.3644
40987W        W83904  29.958  23.427  24.877  0.2812 -0.2966  0.2031
40988W        W83905  32.069  24.318  21.477  0.1498  0.2258 -0.2955
40989W        W83906  33.854  24.955  22.463 -0.0677 -0.1789  0.0665
40990W        W83907  32.190  21.891  20.932  0.0293  0.2467 -0.3735
40991W        W83908  29.352  22.656  24.598  0.0822 -0.1379 -0.1921
40992W        W83909  30.348  28.264  21.816  0.3337 -0.0538 -0.1744
40993W        W83910  33.316  23.454  22.759  0.4655 -0.0165  0.1812
40994W        W83911  31.940  23.424  22.441  0.0163 -0.0752  0.1778
40995W        W83912  30.056  25.482  21.199  0.0893  0.2923 -0.1129
40996W        W83913  32.976  23.066  22.851  0.0416  0.1460  0.0541
40997W        W83914  31.470  25.822  22.444 -0.3221 -0.0188 -0.2013
40998W        W83915  33.334  24.277  24.841  0.2192 -0.1403  0.0956
40999W        W83916  29.491  22.385  20.028 -0.0554 -0.0775 -0.3150
41000W        W83917  30.108  25.128  23.067 -0.1206  0.1154  0.2514
41001W        W83918  28.400  25.782  20.838 -0.0264 -0.2795 -0.0100
41002W        W83919  29.207  25.407  22.022 -0.1055 -0.0102 -0.0428
41003W        W83920  31.792  24.902  22.211  0.1682  0.1807  0.0471
41004W        W83921  29.464  23.260  20.460 -0.0395  0.0891 -0.0937
41005W        W83922  33.147  27.151  23.136 -0.1808  0.0822  0.2762
41006W        W83923  30.328  22.647  22.764 -0.0165 -0.0001 -0.0551
41007W        W83924  31.197  21.491  21.769 -0.1678 -0.0020 -0.4001
41008W        W83925  31.121  19.723  23.529  0.0910  0.0402 -0.0789
41009W        W83926  30.637  24.782  24.889 -0.2269  0.1802 -0.0092
41010W        W83927  31.835  22.838  19.678  0.2288 -0.0306  0.2400
41011W        W83928  30.960  24.392  21.993  0.3927 -0.0377  0.1598
41012W        W83929  27.827  23.461  23.274 -0.1648  0.2283  0.4587
41013W        W83930  33.377  23.070  23.638  0.0640 -0.2009  0.1769
41014W        W83931  28.890  24.769  24.651  0.3483  0.0547 -0.0166
41015W        W83932  29.273  22.977  22.711 -0.2670 -0.0752  0.5326
41016W        W83933  30.015  22.309  20.169 -0.2304 -0.1662  0.1147
41017W        W83934  32.720  27.435  19.039  0.1074 -0.0299 -0.1497
41018W        W83935  31.264  21.346  22.762  0.2018  0.1508 -0.0893
41019W        W83936  30.091  24.354  22.395 -0.2514  0.0278 -0.1786
41020W        W83937  33.502  24.665  20.864  0.2033 -0.3447 -0.2857
41021W        W83938  31.870  26.225  22.893  0.1017 -0.0230 -0.0431
41022W        W83939  30.688  22.831  20.846  0.0627  0.1066 -0.0139
41023W        W83940  33.657  26.206  25.734  0.0358 -0.0796 -0.2052
41024W        W83941  31.401  24.058  21.927  0.0233 -0.0149  0.1173
41025W        W83942  33.165  22.067  22.987 -0.2952  0.1239  0.2949
41026W        W83943  31.989  23.289  24.470 -0.0990 -0.1132 -0.0758
41027W        W83944  30.277  21.665  19.900 -0.0886 -0.1430  0.3763
41028W        W83945  29.849  23.642  22.909  0.1693  0.0849 -0.0773
41029W        W83946  29.136  23.213  21.244 -0.0737  0.1065  0.0138
41030W        W83947  31.738  26.649  20.376  0.1284  0.1257  0.0842
41031W        W83948  29.795  25.081  22.683  0.1306 -0.1431 -0.0961
41032W        W83949  30.774  26.887  24.380  0.2506 -0.4262 -0.5053
41033W        W83950  29.783  21.267  23.113 -0.3119 -0.0708 -0.2152
41034W        W83951  32.696  23.233  19.840 -0.0000 -0.2074 -0.2235
41035W        W83952  32.116  25.623  22.972 -0.1267 -0.0646  0.1273
41036W        W83953  28.824  24.414  22.539  0.0388 -0.0230 -0.0953
41037W        W83954  32.081  22.464  23.496 -0.0168 -0.0015 -0.3128
41038W        W83955  30.134  21.490  21.158 -0.0868 -0.1471  0.1984
41039W        W83956  28.655  22.181  23.581  0.0208 -0.1867  0.1804
41040W        W83957  28.136  25.307  24.699 -0.0712  0.1335 -0.0781
41041W        W83958  33.535  23.927  24.349 -0.0005  0.0096 -0.2809
41042W        W83959  30.564  21.229  22.613 -0.2128  0.1515  0.0838
41043W        W83960  33.934  22.696  20.845 -0.0880  0.2215 -0.2258
41044W        W83961  32.046  25.625  20.399 -0.2016 -0.0314  0.0569
41045W        W83962  28.478  23.161  23.535 -0.0062 -0.0790  0.2786
41046W        W83963  31.752  24.957  22.889  0.4769  0.3103  0.1211
41047W        W83964  30.617  24.564  23.137  0.0306  0.1971 -0.2144
41048W        W83965  30.961  24.697  23.462 -0.2965  0.0248 -0.2383
41049W        W83966  32.966  23.318  21.913  0.2638 -0.1618 -0.1439
41050W        W83967  30.513  23.813  18.945  0.4667  0.0735  0.2168
41051W        W83968  30.965  24.159  20.742  0.1754 -0.2076  0.3802
41052W        W83969  32.285  26.335  23.908 -0.0594  0.0501  0.1285
41053W        W83970  32.953  24.922  26.924  0.6280  0.1747 -0.0740
41054W        W83971  31.963  27.173  24.183 -0.1550  0.5320  0.5511
41055W        W83972  32.191  23.806  21.470  0.1882 -0.2264  0.1094
41056W        W83973  31.427  21.247  24.017  0.2772  0.2596  0.2987
41057W        W83974  30.288  23.609  22.166 -0.0274  0.0086  0.0542
41058W        W83975  30.727  23.753  19.891 -0.2759 -0.1749 -0.1120
41059W        W83976  30.560  24.273  22.714  0.1198  0.0778  0.0597
41060W        W83977  29.294  22.263  23.258 -0.0149  0.1846 -0.0198
41061W        W83978  32.467  19.986  21.021  0.2557 -0.1625  0.0469
41062W        W83979  31.181  25.738  24.420 -0.1693  0.3002 -0.1229
41063W        W83980  32.812  25.604  21.363  0.2453  0.2169 -0.0001
41064W        W83981  29.556  23.686  28.751  0.0922  0.0961 -0.2793
41065W        W83982  30.409  24.116  23.210 -0.0593  0.0816  0.0590
41066W        W83983  32.029  25.166  25.638  0.0840  0.0169 -0.4881
41067W        W83984  29.653  24.921  23.166 -0.0594 -0.1604  0.0944
41068W        W83985  30.596  23.238  25.656 -0.0540  0.1272  0.3927
41069W        W83986  32.829  26.180  25.737 -0.1078 -0.1434  0.2327
41070W        W83987  31.032  22.666  26.812 -0.1312 -0.0692  0.0171
41071W        W83988  32.802  23.894  24.904  0.3517 -0.2551 -0.1417
41072W        W83989  31.773  25.464  25.372  0.0468  0.1594 -0.1475
41073W        W83990  31.998  23.240  25.027  0.2499 -0.1183  0.1313
41074W        W83991  29.291  23.213  25.512 -0.0281  0.0005  0.1099
41075W        W83992  31.144  25.098  27.055  0.0809  0.2852  0.3309
41076W        W83993  29.360  23.305  23.602 -0.0129  0.3480 -0.1012
41077W        W83994  28.329  22.116  27.613 -0.4508  0.0972 -0.1018
41078W        W83995  31.489  23.883  24.958 -0.0991 -0.0341 -0.0243
41079W        W83996  29.640  23.899  26.180 -0.0295 -0.0150  0.1905
41080W        W83997  28.278  22.301  25.915 -0.1857 -0.1176 -0.1127
41081W        W83998  30.327  24.327  24.956  0.0758 -0.0813 -0.0829
41082W        W83999  31.706  25.955  24.649  0.2939 -0.1622  0.2134
41083W        W84000  30.672  22.073  29.193 -0.1186 -0.2015  0.1508
41084W        W84001  31.798  20.278  27.447  0.1939 -0.2898 -0.0967
41085W        W84002  32.871  25.629  24.302 -0.1804 -0.0115 -0.3543
41086W        W84003  29.017  23.818  26.886 -0.1589  0.0439  0.2101
41087W        W84004  29.416  22.740  25.835  0.1272  0.2668  0.0377
41088W        W84005  29.268  23.228  27.534  0.1446  0.0893 -0.2617
41089W        W84006  31.246  21.802  26.624  0.2281  0.0514  0.0559
41090W        W84007  31.478  24.296  27.392  0.0722 -0.0101  0.1077
41091W        W84008  32.381  24.316  27.023 -0.2968 -0.2591 -0.0167
41092W        W84009  29.737  23.667  27.620  0.0699 -0.2795 -0.2649
41093W        W84010  31.038  25.668  29.926 -0.2493 -0.2803 -0.2227
41094W        W84011  31.516  25.343  26.663 -0.0289  0.0649  0.1872
41095W        W84012  28.608  25.783  24.262  0.2818  0.4089  0.0400
41096W        W84013  30.344  25.165  24.087  0.0937  0.5898  0.1600
41097W        W84014  31.348  25.102  26.286  0.1772  0.2277  0.1785
41098W        W84015  33.680  23.990  28.373  0.2576 -0.3510 -0.1878
41099W        W84016  29.670  25.856  24.666  0.1750  0.1291  0.0374
41100W        W84017  30.766  24.989  24.401 -0.0191 -0.1252  0.3768
41101W        W84018  29.613  24.570  27.769 -0.3513 -0.0191 -0.1044
41102W        W84019  30.878  24.952  26.261  0.0252 -0.0568  0.0458
41103W        W84020  29.092  23.271  27.120  0.2148 -0.0036  0.0087
41104W        W84021  32.184  24.891  26.312  0.3969  0.2440 -0.0810
41105W        W84022  28.099  24.399  24.470  0.0537  0.1737 -0.2666
41106W        W84023  31.320  25.536  27.152  0.2918  0.0556 -0.0564
41107W        W84024  27.840  25.029  25.498 -0.2267 -0.0505  0.1562
41108W        W84025  30.085  24.011  26.790  0.0881  0.0445  0.0740
41109W        W84026  31.774  22.211  28.969  0.1328 -0.1296  0.1582
41110W        W84027  31.840  25.214  26.282  0.1123 -0.0283 -0.0947
41111W        W84028  31.374  25.556  24.875 -0.0320  0.1115  0.1313
41112W        W84029  31.717  21.692  24.030 -0.0584 -0.3405  0.1874
41113W        W84030  32.148  24.309  25.394  0.3839 -0.0882 -0.1799
41114W        W84031  28.676  21.899  25.795  0.0961  0.1689  0.1094
41115W        W84032  28.975  25.448  24.909 -0.2162 -0.0749  0.0844
41116W        W84033  34.185  21.197  25.976  0.0903  0.5133 -0.0813
41117W        W84034  32.830  23.864  27.026 -0.2341  0.2211 -0.1566
41118W        W84035  32.758  23.029  24.102 -0.1065 -0.0253  0.0994
41119W        W84036  31.097  22.999  25.625 -0.1585 -0.1840  0.1466
41120W        W84037  30.462  24.296  25.934 -0.1812  0.1195  0.0216
41121W        W84038  31.365  25.114  25.214 -0.1024 -0.0499  0.1502
41122W        W84039  32.741  24.797  24.924 -0.0266 -0.0928  0.1170
41123W        W84040  33.891  24.708  26.454  0.1909 -0.3978 -0.1450
41124W        W84041  32.808  26.608  24.451  0.0002 -0.0492 -0.2264
41125W        W84042  29.048  23.679  25.396 -0.0944 -0.4534  0.1282
41126W        W84043  29.771  22.782  26.973  0.0551  0.2126  0.4090
41127W        W84044  29.259  24.243  28.269  0.1334  0.0355 -0.2416
41128W        W84045  30.474  21.511  23.785  0.0524 -0.0768 -0.4028
41129W        W84046  32.605  25.510  27.782  0.0587  0.0537 -0.1709
41130W        W84047  27.348  23.704  28.256  0.3435  0.0812 -0.0902
41131W        W84048  32.836  21.351  26.544 -0.1226 -0.0137  0.1759
41132W        W84049  31.493  26.042  27.185 -0.1697 -0.1419 -0.1472
41133W        W84050  31.551  25.037  28.498  0.1697  0.0567 -0.2072
41134W        W84051  32.274  23.447  25.974  0.1841 -0.1214 -0.1231
41135W        W84052  31.195  21.515  25.592  0.1775 -0.2507  0.2337
41136W        W84053  31.451  23.076  29.456  0.2748 -0.2942  0.0951
41137W        W84054  30.986  23.927  23.885  0.2247 -0.0706  0.0242
41138W        W84055  31.275  25.510  23.935 -0.2395 -0.0067 -0.1621
41139W        W84056  33.083  22.598  25.396  0.0494  0.1935  0.0322
41140W        W84057  33.174  24.978  23.079  0.3209 -0.2902  0.3295
41141W        W84058  28.078  23.382  26.663  0.3741 -0.0818  0.0034
41142W        W84059  30.407  22.731  28.432  0.1930  0.0791  0.0206
41143W        W84060  31.945  24.704  29.046 -0.0245  0.1423 -0.1508
41144W        W84061  29.371  25.107  25.116 -0.2191  0.1772  0.0487
41145W        W84062  31.802  24.825  25.393  0.1538  0.0427 -0.0265
41146W        W84063  28.606  24.350  24.554 -0.0017  0.2892 -0.2170
41147W        W84064  29.504  22.273  26.165  0.0170  0.0904 -0.1406
41148W        W84065  27.911  23.574  27.294  0.0673  0.0331 -0.1164
41149W        W84066  32.594  21.373  25.542  0.0899  0.0546  0.1128
41150W        W84067  28.817  22.365  26.719 -0.1380  0.0590 -0.0816
41151W        W84068  31.611  22.279  25.973  0.2420  0.0414 -0.1623
41152W        W84069  29.204  23.434  24.595 -0.1299 -0.0135 -0.0627
41153W        W84070  31.875  26.185  26.733 -0.0278  0.1979 -0.0402
41154W        W84071  34.501  21.700  24.869  0.1480 -0.2591  0.0954
41155W        W84072  32.235  23.906  23.852  0.0185 -0.0064 -0.0085
41156W        W84073  28.584  24.323  25.732  0.1143  0.0463 -0.2128
41157W        W84074  30.306  22.487  26.178 -0.1048  0.0014 -0.0153
41158W        W84075  29.066  23.955  28.757 -0.1393 -0.0365  0.0865
41159W        W84076  29.112  22.324  27.102 -0.1062 -0.2203  0.2839
41160W        W84077  31.353  25.534  28.402 -0.0426  0.3590 -0.0315
41161W        W84078  30.825  22.158  24.776 -0.1751 -0.2068 -0.1358
41162W        W84079  30.987  23.477  27.338  0.3561  0.0930 -0.1388
41163W        W84080  32.356  23.810  25.029  0.0878  0.0071  0.0100
41164W        W84081  29.281  23.977  25.816  0.0576 -0.2978  0.0604
41165W        W84082  34.652  22.796  25.400 -0.1091 -0.1518 -0.0324
41166W        W84083  34.201  24.712  25.532 -0.0154  0.1633  0.2901
41167W        W84084  32.730  25.218  25.262  0.2630 -0.0011  0.1557
41168W        W84085  30.847  25.677  27.683 -0.1423 -0.0842  0.1533
41169W        W84086  28.090  23.119  26.128 -0.1058  0.1806 -0.2394
41170W        W84087  31.459  22.655  24.153 -0.1254  0.1030 -0.2673
41171W        W84088  28.383  25.152  25.950 -0.0154 -0.3366 -0.2423
41172W        W84089  30.960  25.628  28.131  0.2567  0.1357 -0.0555
41173W        W84090  31.095  23.853  24.371  0.0611 -0.0247 -0.0610
41174W        W84091  31.898  26.194  26.138 -0.2219  0.0425 -0.0285
41175W        W84092  31.178  23.615  26.360  0.1688 -0.0145  0.2093
41176W        W84093  29.757  22.879  28.294  0.1534  0.1264  0.3264
41177W        W84094  31.987  21.938  25.989 -0.1525  0.0973  0.0005
41178W        W84095  34.225  22.619  26.553 -0.1528 -0.2404  0.0647
41179W        W84096  31.113  23.360  24.226  0.0552  0.1942 -0.1021
41180W        W84097  29.905  23.699  25.283 -0.1026 -0.0489 -0.3146
41181W        W84098  32.282  25.430  26.212 -0.1164  0.1516  0.0661
41182W        W84099  28.970  25.500  26.388 -0.1962  0.1777  0.0586
41183W        W84100  30.565  22.789  25.308 -0.1099 -0.1375 -0.1660
41184W        W84101  30.587  24.744  25.848  0.0768 -0.0950  0.1362
41185W        W84102  32.109  21.609  26.353 -0.2381 -0.1971 -0.2068
41186W        W84103  27.978  25.033  27.452 -0.1875  0.0351  0.3004
41187W        W84104  32.641  23.549  28.770 -0.3014 -0.1683  0.0214
41188W        W84105  31.146  23.140  24.688  0.0266 -0.0979  0.1743
41189W        W84106  30.082  23.937  27.911  0.0332  0.2878 -0.3736
41190W        W84107  32.267  21.481  24.146 -0.0753 -0.2122 -0.0778
41191W        W84108  32.563  22.843  24.557  0.1979 -0.2142  0.0518
41192W        W84109  31.630  24.236  26.533  0.0137 -0.0517  0.1428
41193W        W84110  31.381  23.957  25.565 -0.2182 -0.2915  0.0251
41194W        W84111  32.440  23.092  23.058  0.1919 -0.2262  0.2205
41195W        W84112  31.189  22.130  24.403 -0.0517 -0.1421 -0.1432
41196W        W84113  27.893  25.260  26.630 -0.0030 -0.0018  0.2297
41197W        W84114  29.895  24.316  25.268  0.0455  0.2171 -0.2067
41198W        W84115  31.588  25.324  28.011 -0.1034  0.1687  0.2358
41199W        W84116  32.659  22.067  24.175  0.3662 -0.3121 -0.1504
41200W        W84117  32.764  22.520  26.044 -0.1509  0.1698 -0.2612
41201W        W84118  27.468  24.653  27.681 -0.0073 -0.1255  0.4463
41202W        W84119  28.536  22.677  28.916 -0.1024 -0.0837  0.2733
41203W        W84120  30.990  25.139  24.854  0.1011 -0.0115 -0.1767
41204W        W84121  30.733  19.204  26.424  0.1601  0.0771  0.0623
41205W        W84122  29.433  21.827  24.054  0.1571 -0.0028  0.0802
41206W        W84123  31.134  21.983  27.594  0.1533 -0.4762 -0.0688
41207W        W84124  28.859  24.807  25.249  0.1687 -0.2216 -0.0729
41208W        W84125  30.345  21.474  26.925 -0.1187 -0.1207 -0.2636
41209W        W84126  31.684  23.856  26.218 -0.1291  0.1008 -0.0868
41210W        W84127  30.698  21.289  29.243  0.0412 -0.0366 -0.3665
41211W        W84128  33.105  23.774  28.247 -0.2986 -0.0171  0.0469
41212W        W84129  32.470  22.521  25.017  0.2152 -0.1059  0.2698
41213W        W84130  31.813  25.708  26.462  0.0810  0.1889 -0.0450
41214W        W84131  29.518  22.704  24.055  0.1347 -0.1043 -0.0917
41215W        W84132  30.347  22.139  26.498 -0.1378 -0.0351  0.1016
41216W        W84133  29.344  24.819  26.937 -0.2529 -0.3232 -0.5241
41217W        W84134  27.623  24.023  26.121 -0.6472 -0.0200  0.1824
41218W        W84135  32.594  24.996  28.544  0.1453 -0.0126 -0.1211
41219W        W84136  30.824  24.246  25.059  0.0649 -0.0359  0.3483
41220W        W84137  31.717  21.578  25.564  0.0258  0.1720  0.1112
41221W        W84138  31.350  23.219  23.763  0.1306 -0.1333  0.0447
41222W        W84139  30.357  27.035  23.148  0.1360  0.2211  0.0957
41223W        W84140  32.005  24.634  23.688  0.0048  0.0405 -0.0850
41224W        W84141  29.681  21.938  26.548 -0.0592 -0.2039  0.2434
41225W        W84142  29.162  23.400  28.002  0.1137 -0.1156 -0.2708
41226W        W84143  30.136  24.416  26.505  0.0462 -0.0341  0.0406
41227W        W84144  31.478  23.673  27.204  0.0592 -0.0676  0.3475
41228W        W84145  30.474  24.157  24.058  0.1832 -0.5081  0.0257
41229W        W84146  30.765  21.014  26.156  0.1273  0.0261  0.0543
41230W        W84147  28.605  25.130  24.946 -0.3462 -0.0221  0.0106
41231W        W84148  32.434  20.655  23.063 -0.0063 -0.2082  0.1121
41232W        W84149  29.404  22.910  25.022 -0.1529  0.0444 -0.2565
41233W        W84150  30.545  21.314  26.474 -0.0553 -0.0902  0.1848
41234W        W84151  32.448  23.312  24.697 -0.0179 -0.1557 -0.0300
41235W        W84152  29.463  22.659  28.795 -0.3158 -0.0625 -0.0388
41236W        W84153  30.796  20.772  27.584  0.2712  0.0409 -0.1012
41237W        W84154  29.660  24.383  26.922 -0.2155 -0.1218  0.2284
41238W        W84155  31.119  22.189  27.143 -0.0109  0.0148  0.0531
41239W        W84156  31.916  22.272  23.979  0.0447  0.1564 -0.0630
41240W        W84157  30.246  24.461  26.996 -0.1155 -0.1172  0.1680
41241W        W84158  30.219  23.465  27.990  0.1561 -0.1156  0.0670
41242W        W84159  30.388  22.471  24.876  0.1775  0.0158  0.1531
41243W        W84160  31.792  23.389  26.356  0.1125  0.0566 -0.0728
41244W        W84161  29.935  22.356  26.624  0.3963 -0.0032 -0.3303
41245W        W84162  29.053  25.737  25.323 -0.0117  0.1858 -0.3241
41246W        W84163  32.843  25.365  26.130  0.0784 -0.1008 -0.1187
41247W        W84164  28.568  24.067  26.825  0.1346 -0.1770  0.2445
41248W        W84165  30.997  21.322  27.490  0.0700 -0.0125 -0.0489
41249W        W84166  30.482  23.200  26.457 -0.1101 -0.0554  0.1929
41250W        W84167  32.165  24.220  28.288 -0.0837 -0.1379 -0.0769
41251W        W84168  30.716  23.629  26.556 -0.1274 -0.1225 -0.1338
41252W        W84169  30.758  21.870  24.414  0.0259  0.2811  0.0610
41253W        W84170  32.963  24.909  24.412 -0.1493  0.0615 -0.0908
41254W        W84171  30.396  20.105  25.928 -0.1683  0.1526 -0.3244
41255W        W84172  29.696  23.208  26.673  0.2810 -0.0546  0.0537
41256W        W84173  31.155  26.199  27.620 -0.0793 -0.0328 -0.1939
41257W        W84174  32.243  23.210  26.510 -0.1597  0.0086  0.1777
41258W        W84175  33.094  26.907  25.469 -0.1411  0.1471 -0.1804
41259W        W84176  30.833  24.648  27.857 -0.0323  0.0273  0.0015
41260W        W84177  29.176  25.108  22.453 -0.0172 -0.0203 -0.1253
41261W        W84178  28.736  24.018  26.136 -0.0949  0.1046 -0.1172
41262W        W84179  29.445  25.602  25.000  0.0775  0.3048  0.0648
41263W        W84180  30.127  21.932  26.888  0.0517  0.0193 -0.0761
41264W        W84181  29.554  24.446  25.704 -0.3788 -0.0254 -0.0543
41265W        W84182  28.014  23.604  26.075 -0.3010 -0.1868  0.1052
41266W        W84183  29.608  25.767  26.876 -0.1408  0.1675  0.0172
41267W        W84184  30.374  19.623  26.129 -0.0125  0.2253  0.2116
41268W        W84185  31.177  24.665  24.388  0.2502 -0.0927 -0.1999
41269W        W84186  30.186  23.959  26.197  0.1341  0.0890  0.2178
41270W        W84187  33.465  22.667  28.265 -0.0480  0.0250 -0.2539
41271W        W84188  31.939  24.179  24.939 -0.0435 -0.0393  0.0525
41272W        W84189  32.331  23.039  27.453  0.0749 -0.1760  0.0310
41273W        W84190  28.384  21.620  26.718 -0.1819  0.0177  0.4344
41274W        W84191  32.609  24.557  26.587 -0.2227  0.5485 -0.0735
41275W        W84192  26.794  23.311  28.054  0.1042 -0.0949  0.2861
41276W        W84193  31.069  23.706  26.909  0.2575 -0.1123 -0.1454
41277W        W84194  28.974  25.059  27.301  0.3337  0.3430  0.1542
41278W        W84195  33.323  22.035  24.536 -0.2432  0.3808 -0.0895
41279W        W84196  31.404  22.078  23.959  0.0167 -0.0354 -0.2668
41280W        W84197  31.439  23.202  26.811  0.1207  0.2482  0.0811
41281W        W84198  33.471  23.944  26.920  0.1398 -0.0089  0.1270
41282W        W84199  31.611  22.269  23.533 -0.0232  0.2432  0.0751
41283W        W84200  33.077  23.955  26.575  0.0487  0.0536 -0.3309
41284W        W84201  28.498  25.083  27.392  0.0453  0.1570  0.0592
41285W        W84202  33.036  24.111  23.213  0.0770  0.2289 -0.0401
41286W        W84203  30.765  25.112  25.249 -0.2953 -0.1487 -0.2790
41287W        W84204  29.969  23.974  24.826 -0.0716 -0.0221 -0.1992
41288W        W84205  30.146  20.974  28.049  0.3570 -0.2258  0.0670
41289W        W84206  31.743  24.330  25.708 -0.2540 -0.0315  0.3890
41290W        W84207  31.957  22.556  25.717 -0.3670  0.2159  0.4623
41291W        W84208  29.464  22.116  28.687  0.0384  0.0742 -0.0861
41292W        W84209  32.051  23.969  25.921 -0.1452  0.0343 -0.1952
41293W        W84210  29.472  23.564  27.163 -0.1037  0.0714  0.0967
41294W        W84211  30.686  21.426  28.495 -0.0485  0.1462 -0.0020
41295W        W84212  32.381  23.852  27.455  0.0875 -0.1348 -0.1753
41296W        W84213  33.730  20.357  23.938  0.0256 -0.0528  0.2534
41297W        W84214  31.002  21.782  28.486  0.1104  0.0056  0.0787
41298W        W84215  33.495  21.392  23.984  0.0232 -0.0952  0.0074
41299W        W84216  29.740  22.730  25.407  0.0688  0.2179 -0.1275
41300W        W84217  31.129  22.369  25.169 -0.0285  0.0146 -0.1901
41301W        W84218  31.646  24.530  28.427  0.0312 -0.0996 -0.0421
41302W        W84219  30.876  22.301  22.077 -0.1015 -0.1998  0.2800
41303W        W84220  30.725  23.275  28.173  0.1188  0.0690  0.1133
41304W        W84221  33.550  26.252  24.981  0.2300 -0.2617  0.3457
41305W        W84222  34.203  23.476  23.528 -0.2730 -0.0623  0.2183
41306W        W84223  30.828  23.719  25.216  0.1356 -0.0887 -0.0751
41307W        W84224  26.528  22.373  27.879  0.3598  0.0805 -0.0052
41308W        W84225  27.399  24.180  28.492  0.1257  0.3390  0.1813
41309W        W84226  30.765  21.053  23.366 -0.1216  0.0000  0.0053
41310W        W84227  30.255  23.582  26.626  0.2426 -0.1205  0.0619
41311W        W84228  31.777  23.527  25.824  0.0347  0.2791  0.1195
41312W        W84229  33.127  26.901  28.384  0.2054 -0.0235 -0.2232
41313W        W84230  31.327  22.431  24.747 -0.3238  0.1914  0.1579
41314W        W84231  31.658  22.926  26.464  0.3041 -0.2295  0.1344
41315W        W84232  28.363  25.063  23.936 -0.2757 -0.2345 -0.1972
41316W        W84233  31.318  23.473  25.414 -0.1541 -0.0274 -0.0991
41317W        W84234  30.114  25.685  25.435  0.1589  0.1002  0.0843
41318W        W84235  28.388  21.903  26.248 -0.1842  0.1082  0.0706
41319W        W84236  31.217  25.597  26.292 -0.0992  0.2291  0.1552
41320W        W84237  30.597  22.153  27.476 -0.2836  0.2106  0.1623
41321W        W84238  29.937  24.095  25.745  0.0787 -0.0297  0.0602
41322W        W84239  29.599  23.252  28.572 -0.1066 -0.0633  0.2470
41323W        W84240  33.113  23.309  27.676 -0.2027  0.0194 -0.2689
41324W        W84241  32.698  24.861  27.907 -0.2301 -0.0255 -0.1683
41325W        W84242  30.652  25.605  25.409  0.4293 -0.0588  0.0508
41326W        W84243  31.705  25.807  28.166 -0.1928  0.0129  0.0674
41327W        W84244   0.174  23.267  25.221 -0.1618 -0.2889  0.0659
41328W        W84245  30.610  24.458  27.377 -0.1225  0.0954 -0.0726
41329W        W84246  29.124  21.116  27.751  0.0962 -0.3871 -0.0957
41330W        W84247  30.017  22.416  28.516 -0.1780 -0.1555 -0.1125
41331W        W84248  30.516  23.535  26.071  0.0925 -0.0073  0.0535
41332W        W84249  29.984  23.397  26.163 -0.0777 -0.1234  0.2164
41333W        W84250  31.162  24.974  23.973  0.3561  0.0208 -0.0650
41334W        W84251  29.660  23.625  25.753 -0.3245  0.1490  0.1384
41335W        W84252  30.016  24.036  27.328  0.1507  0.1011 -0.0743
41336W        W84253  31.622  27.060  25.766 -0.2044 -0.1533  0.0408
41337W        W84254  30.469  26.076  25.627  0.0792 -0.5314 -0.2044
41338W        W84255  32.515  24.774  25.357  0.4506  0.0749 -0.1497
41339W        W84256  30.295  25.519  25.842 -0.2600 -0.1123 -0.0744
41340W        W84257  31.858  24.276  26.982 -0.1373  0.0817 -0.1090
41341W        W84258  29.579  24.898  25.956  0.0732 -0.1607 -0.0340
41342W        W84259  29.444  25.396  25.711 -0.1814  0.1026  0.0575
41343W        W84260  32.991  25.819  22.685 -0.0524 -0.0337 -0.1277
41344W        W84261  29.007  24.433  25.980  0.1047  0.2359  0.0787
41345W        W84262  32.215  26.024  29.579  0.0775 -0.1311 -0.0108
41346W        W84263  33.439  24.072  23.426 -0.3332  0.0109 -0.2101
41347W        W84264  33.367  22.998  24.134  0.0418  0.0048  0.0829
41348W        W84265  33.182  22.229  24.105 -0.1763  0.1357 -0.0160
41349W        W84266  31.932  25.189  29.257  0.1680 -0.2064 -0.2235
41350W        W84267  29.626  23.770  26.717  0.0801 -0.1833 -0.0863
41351W        W84268  30.329  22.410  24.335  0.1120  0.0348  0.2294
41352W        W84269  30.699  24.960  27.469 -0.0425  0.0414  0.2219
41353W        W84270  32.272  22.340  28.128 -0.1141 -0.3134  0.2393
41354W        W84271  26.585  24.423  28.906 -0.0391 -0.1901 -0.2941
41355W        W84272  31.863  23.686  25.321 -0.0598 -0.1082 -0.4128
41356W        W84273  30.566  24.103  26.561  0.4022  0.1290  0.0195
41357W        W84274  31.067  23.631  27.932  0.0583  0.1659  0.0648
41358W        W84275  30.399  21.661  27.462  0.0870  0.1522 -0.0596
41359W        W84276  31.318  23.692  23.519 -0.1957 -0.0557  0.2237
41360W        W84277  31.180  24.208  27.001  0.0096  0.2627 -0.0796
41361W        W84278  31.699  25.162  24.897 -0.1866  0.1604  0.0667
41362W        W84279  30.509  25.586  26.724 -0.0669 -0.1192  0.0414
41363W        W84280  29.153  26.001  27.957  0.0951 -0.0357  0.1193
41364W        W84281  28.845  22.720  25.112  0.0147 -0.4430  0.0451
41365W        W84282  33.406  22.565  24.452 -0.1293  0.1768  0.0223
41366W        W84283  30.503  24.047  27.036  0.1037  0.1741 -0.4041
41367W        W84284  31.514  20.489  28.053 -0.4666  0.1656 -0.1811
41368W        W84285  30.159  22.976  25.525 -0.0682  0.2257  0.0740
41369W        W84286  30.909  23.130  25.136  0.1771 -0.2774  0.1276
41370W        W84287  30.743  24.538  26.782 -0.2550 -0.1301  0.0143
41371W        W84288  29.024  22.250  28.920 -0.1247  0.3493 -0.1584
41372W        W84289  30.827  23.870  22.959  0.0067 -0.0356  0.1733
41373W        W84290  34.661  22.287  25.421  0.1694 -0.4527  0.0950
41374W        W84291  31.737  22.784  23.698  0.1523 -0.2509  0.1546
41375W        W84292   0.153  22.468  27.550  0.1222 -0.1246 -0.1076
41376W        W84293  28.567  23.423  26.560 -0.0796  0.0728  0.3458
41377W        W84294  34.015  21.497  24.201 -0.0200  0.0334 -0.0675
41378W        W84295  30.039  24.828  26.189  0.0021  0.0719  0.0147
41379W        W84296  28.990  22.079  28.421 -0.1392 -0.0358 -0.0615
41380W        W84297  31.535  23.747  26.679  0.0625  0.1423 -0.1090
41381W        W84298  28.158  21.821  25.664 -0.1466  0.1332 -0.0301
41382W        W84299  30.804  23.922  26.085  0.0070 -0.0245 -0.0048
41383W        W84300  33.886  22.209  27.314  0.1478  0.0202  0.1033
41384W        W84301  29.813  25.116  24.062  0.2265  0.2634  0.2408
41385W        W84302  31.910  24.411  26.140  0.1492 -0.2951 -0.1639
41386W        W84303  33.002  25.717  25.079 -0.5027  0.2525 -0.2678
41387W        W84304  27.033  22.879  28.004  0.2082 -0.1382  0.4368
41388W        W84305  31.441  24.627  27.046 -0.0655 -0.0735 -0.1583
41389W        W84306  31.822  23.460  26.956 -0.1022 -0.1468 -0.0050
41390W        W84307  31.760  24.840  25.947  0.0568  0.3809  0.0926
41391W        W84308  32.020  22.980  27.014  0.1974 -0.0082  0.2199
41392W        W84309  29.440  25.066  27.441 -0.0880  0.1700  0.2028
41393W        W84310  30.871  24.115  25.567  0.0337 -0.1344  0.2495
41394W        W84311  31.527  22.597  29.661  0.2828  0.1015  0.3218
41395W        W84312  30.069  23.792  24.282 -0.1077  0.0118 -0.0202
41396W        W84313  32.940  22.668  27.113 -0.2438  0.2080  0.2554
41397W        W84314  32.100  24.863  28.578 -0.1080  0.0197 -0.0817
41398W        W84315  28.763  25.660  27.871  0.0780 -0.0668 -0.0637
41399W        W84316  30.343  23.355  25.251  0.4279  0.0537 -0.0740
41400W        W84317  30.251  24.110  28.445  0.0691  0.0376 -0.1706
41401W        W84318  30.861  25.967  26.517  0.0561  0.1401 -0.1164
41402W        W84319  29.883  25.275  25.892  0.1569 -0.0326 -0.1677
41403W        W84320  32.092  25.281  26.704 -0.1094 -0.0370 -0.0778
41404W        W84321  31.696  24.818  26.578  0.0395 -0.4781  0.0966
41405W        W84322  32.326  22.183  25.443  0.2226  0.0687  0.0062
41406W        W84323  30.672  23.748  23.457  0.0772  0.0148 -0.0606
41407W        W84324  30.906  21.355  26.972 -0.1853  0.2244 -0.0722
41408W        W84325  32.065  22.723  25.244 -0.0430  0.1367 -0.2402
41409W        W84326  32.644  24.373  27.904 -0.0864 -0.2327  0.2057
41410W        W84327  30.410  24.461  23.676 -0.2825  0.0088  0.4296
41411W        W84328  29.358  25.218  22.894 -0.0846 -0.0369 -0.0109
41412W        W84329  31.081  24.085  26.568  0.0100 -0.2335 -0.1352
41413W        W84330  29.878  21.887  27.624 -0.1346  0.0904  0.1072
41414W        W84331  29.404  22.487  26.652  0.3016 -0.0520 -0.0991
41415W        W84332  30.062  24.557  25.754  0.1292 -0.1300 -0.0883
41416W        W84333  32.478  22.670  25.562  0.0150  0.0932  0.1414
41417W        W84334  32.768  24.487  25.702  0.1577 -0.2085  0.2227
41418W        W84335  28.998  21.083  26.056 -0.1065  0.2200 -0.2822
41419W        W84336  28.763  22.900  26.435 -0.1422 -0.2661  0.2588
41420W        W84337  32.177  24.275  26.550 -0.0779 -0.0898  0.2090
41421W        W84338  33.200  23.713  25.304 -0.2298  0.2373  0.0224
41422W        W84339  29.499  23.394  26.262 -0.0971  0.1453 -0.1762
41423W        W84340  33.193  22.253  25.939  0.2750 -0.1275  0.1470
41424W        W84341  27.451  24.067  24.423  0.2654  0.0678  0.0837
41425W        W84342  31.540  24.449  28.993 -0.1148  0.1333 -0.0300
41426W        W84343  29.462  22.367  27.621  0.1420  0.0578  0.0724
41427W        W84344  29.496  24.043  25.325  0.1263 -0.0863  0.1442
41428W        W84345  31.908  22.537  26.277  0.1988  0.1128  0.1287
41429W        W84346  30.449  25.396  24.558 -0.1331 -0.3685  0.2001
41430W        W84347  32.332  27.394  23.896  0.0036  0.0689  0.2407
41431W        W84348  29.818  23.199  27.321 -0.1379 -0.0511  0.1604
41432W        W84349  30.230  25.117  27.213  0.1803 -0.0127 -0.0502
41433W        W84350  29.161  22.102  27.976  0.1696 -0.2293  0.0619
41434W        W84351  32.376  24.362  24.080  0.3546 -0.0327 -0.1823
41435W        W84352  31.175  24.435  25.732  0.0605  0.3660  0.0878
41436W        W84353  32.728  23.946  25.523  0.2417  0.2255 -0.0045
41437W        W84354  32.905  21.721  24.762  0.5949 -0.2521 -0.2152
41438W        W84355  31.115  23.616  24.815  0.2055  0.0523  0.2235
41439W        W84356  30.076  20.338  27.474  0.0939 -0.3674  0.2602
41440W        W84357  29.757  22.927  29.129 -0.0182 -0.2010  0.0853
41441W        W84358  31.934  23.689  24.763 -0.1069 -0.2069 -0.3882
41442W        W84359  28.308  22.119  26.774 -0.1597  0.0626 -0.1230
41443W        W84360  31.963  23.727  24.257  0.0229 -0.1474 -0.0699
41444W        W84361  30.783  26.641  25.024 -0.0290  0.3913 -0.0826
41445W        W84362  30.313  23.020  26.009  0.0366  0.0038  0.1851
41446W        W84363  32.906  23.543  24.485 -0.1205  0.1615 -0.1016
41447W        W84364  31.335  23.266  27.622 -0.1852 -0.1421 -0.0647
41448W        W84365  31.912  24.671  27.350  0.0845  0.0912 -0.0562
41449W        W84366  33.447  26.376  29.293 -0.0341 -0.2613  0.1954
41450W        W84367  29.646  23.089  24.576 -0.0816 -0.1521  0.1608
41451W        W84368  34.296  22.038  25.194  0.4357  0.2333  0.1603
41452W        W84369  29.772  26.825  26.861 -0.2699 -0.0373 -0.0986
41453W        W84370  31.592  27.609  27.442 -0.0192 -0.0026 -0.1470
41454W        W84371  33.168  24.947  25.127  0.0379 -0.1969  0.1480
41455W        W84372  31.864  23.975  27.443 -0.0723 -0.0580 -0.2887
41456W        W84373  29.685  21.609  27.274  0.2032  0.0893 -0.3718
41457W        W84374  28.815  24.390  26.465 -0.0471 -0.0584 -0.0731
41458W        W84375  32.337  24.608  27.585 -0.0341  0.2687 -0.0757
41459W        W84376  30.935  20.886  28.892  0.4291  0.3110  0.0699
41460W        W84377  30.913  22.590  27.436  0.1177 -0.0717  0.0922
41461W        W84378  31.137  24.689  24.920 -0.2936  0.0802  0.3277
41462W        W84379  28.379  25.579  27.542 -0.3649 -0.0491  0.0025
41463W        W84380  32.963  24.201  29.429 -0.2658 -0.2207  0.0263
41464W        W84381  30.877  23.994  29.638 -0.1337  0.1618 -0.4261
41465W        W84382  30.426  22.641  27.518 -0.2667 -0.1277  0.3825
41466W        W84383  33.013  22.852  28.151 -0.3074 -0.4222 -0.3055
41467W        W84384  32.325  25.166  28.174 -0.5268 -0.3324 -0.1780
41468W        W84385  30.359  22.130  30.351  0.0220  0.0073 -0.2734
41469W        W84386  30.238  27.113  30.210 -0.1134  0.0644 -0.0702
41470W        W84387  31.303  22.007   0.843 -0.0297  0.1040 -0.0243
41471W        W84388  30.683  25.189  29.126  0.0116  0.2590 -0.1052
41472W        W84389  33.545  24.918  30.238  0.0277 -0.0594  0.0459
41473W        W84390  31.667  23.117  27.292  0.1422 -0.0800  0.1496
41474W        W84391  30.823  21.771  27.234 -0.0018 -0.1708  0.0795
41475W        W84392  29.849  25.420  29.458 -0.2841  0.0670 -0.0191
41476W        W84393  30.583  21.363  29.768  0.0447 -0.1445  0.0281
41477W        W84394  32.015  22.962  29.574  0.3447 -0.0365 -0.1602
41478W        W84395  32.536  24.894  29.862 -0.3057 -0.2835 -0.0978
41479W        W84396  29.455  24.669  28.318  0.0600 -0.1024  0.1697
41480W        W84397  27.626  23.839  29.471  0.3694 -0.1262  0.1402
41481W        W84398  30.638  22.853  28.985  0.1060 -0.0270  0.3557
41482W        W84399  29.511  26.220  29.265 -0.2433 -0.0433 -0.0386
41483W        W84400  29.171  19.974  30.960 -0.3376 -0.1480  0.0763
41484W        W84401  32.024  21.968   0.419  0.0254 -0.0846  0.1861
41485W        W84402  28.799  24.444  29.629  0.2591  0.0023 -0.1364
41486W        W84403  28.847  24.080  27.316 -0.4590 -0.0316  0.3259
41487W        W84404  30.268  23.008   0.083 -0.2132 -0.0808 -0.0283
41488W        W84405  29.654  24.642  29.153 -0.4345 -0.2034 -0.0437
41489W        W84406  30.631  23.564  27.686 -0.1130  0.3170 -0.1878
41490W        W84407  30.479  23.358  29.093  0.2470  0.2065 -0.0800
41491W        W84408  30.242  25.004  28.939  0.2481  0.0558  0.0841
41492W        W84409  31.065  24.694  29.619 -0.0549 -0.1649  0.1420
41493W        W84410  31.188  23.660  31.532  0.2185  0.1892 -0.0817
41494W        W84411  28.731  23.298  28.263 -0.0734 -0.2748  0.2166
41495W        W84412  29.239  25.930  28.684 -0.1171 -0.1750  0.1065
41496W        W84413  29.270  25.431  28.754  0.1763 -0.0637  0.3420
41497W        W84414  34.286  24.824  29.016  0.0886 -0.0305 -0.0395
41498W        W84415  30.036  24.613  29.660 -0.0324 -0.2346  0.2749
41499W        W84416  27.707  24.700  30.548 -0.0555  0.1158  0.0989
41500W        W84417  28.405  25.138  29.813  0.0132 -0.2499 -0.4250
41501W        W84418  30.142  26.441  29.461  0.0684 -0.1496  0.1631
41502W        W84419  29.451  24.333  31.094 -0.1583  0.0925 -0.1074
41503W        W84420  30.242  24.449  29.172  0.0116 -0.2041  0.0012
41504W        W84421  30.927  24.130  27.855  0.1140  0.0036 -0.0161
41505W        W84422  29.596  25.812  27.789 -0.0763  0.3735 -0.0692
41506W        W84423  29.616  23.415  29.159  0.1175  0.0153  0.0990
41507W        W84424  29.764  23.877  31.183  0.1207 -0.3615  0.1745
41508W        W84425  28.847  24.993  29.551 -0.1606  0.0208  0.0856
41509W        W84426  32.909  20.492  29.487  0.1570 -0.2297 -0.1419
41510W        W84427  29.240  25.796  29.212 -0.2787  0.2606  0.1138
41511W        W84428  33.356  22.869  26.804  0.1203 -0.0518 -0.3797
41512W        W84429  32.766  20.059  27.850 -0.1476 -0.1427  0.3196
41513W        W84430  31.198  22.075  29.049 -0.1224 -0.1547  0.0697
41514W        W84431  30.170  21.726  30.819  0.0191  0.0284 -0.0912
41515W        W84432  30.137  23.177  28.395 -0.0553  0.3401 -0.1216
41516W        W84433  31.110  23.753  29.288  0.1523 -0.1245  0.1418
41517W        W84434  31.825  24.133  29.851 -0.3325  0.1913  0.0605
41518W        W84435  29.891  24.125  28.936  0.1575 -0.1638  0.4172
41519W        W84436  32.443  22.441  29.363  0.1231 -0.2648  0.1327
41520W        W84437  29.479  25.048  31.622 -0.0908 -0.3391 -0.2371
41521W        W84438  29.305  21.581  29.623  0.1038 -0.4373 -0.1348
41522W        W84439  31.425  25.003  29.023  0.0925  0.2392  0.0760
41523W        W84440  34.298  24.424  31.218  0.2424 -0.1880  0.1589
41524W        W84441  27.962  24.542  27.680  0.0791  0.1681 -0.3461
41525W        W84442  28.991  22.829  29.136 -0.1085 -0.2090  0.3595
41526W        W84443  28.699  26.064  29.854  0.0455  0.3014 -0.1204
41527W        W84444  28.386  24.474  29.067  0.1282  0.5060 -0.2357
41528W        W84445  30.148  21.364  28.296  0.1069 -0.3400  0.1577
41529W        W84446  31.783  24.297   0.103 -0.1345  0.4407  0.0758
41530W        W84447  28.631  24.285  30.150 -0.2389  0.0594 -0.0260
41531W        W84448  31.132  22.521  31.201 -0.0639  0.0435  0.1718
41532W        W84449  30.571  23.887  28.139 -0.0736 -0.3486  0.0715
41533W        W84450  32.009  26.030  30.511 -0.0955  0.3414  0.2413
41534W        W84451  31.926  27.941  29.817  0.1899 -0.0390  0.0405
41535W        W84452  32.174  23.714  30.648 -0.2654  0.0672 -0.0334
41536W        W84453  32.041  22.387  31.118  0.0717  0.0986  0.2130
41537W        W84454  31.084  23.003  28.713  0.0223 -0.0363 -0.3092
41538W        W84455  30.410  24.354  28.006  0.0797  0.0039  0.0474
41539W        W84456  31.269  23.375  30.234 -0.0962  0.1454 -0.3187
41540W        W84457  34.625  23.187  28.589  0.0571 -0.0879  0.1475
41541W        W84458  30.248  25.566  29.187 -0.0581  0.2160 -0.0775
41542W        W84459  31.567  22.741  30.401 -0.1509 -0.1489 -0.0306
41543W        W84460  29.347  23.199  30.865 -0.2507  0.0465  0.2170
41544W        W84461  27.764  25.357  27.070  0.1513  0.1474 -0.0185
41545W        W84462  28.709  27.781  28.351 -0.2162  0.0273  0.3399
41546W        W84463  26.570  23.335  29.739  0.1805  0.2842  0.1432
41547W        W84464  27.626  22.323  31.463 -0.0720  0.4046 -0.1467
41548W        W84465  31.518  24.863  29.935  0.3746 -0.3334 -0.0899
41549W        W84466  32.067  20.797  28.790 -0.0987  0.0002  0.3738
41550W        W84467  31.256  22.024  30.946  0.2128  0.0802 -0.0511
41551W        W84468  31.571  20.116  28.807 -0.1878 -0.2061  0.2523
41552W        W84469  29.209  23.031  28.376 -0.0654  0.0557  0.1638
41553W        W84470  32.976  26.103  27.733  0.0681  0.2269 -0.2112
41554W        W84471  32.242  24.597  29.500 -0.1658  0.2708 -0.3047
41555W        W84472  32.313  25.742  28.686 -0.0137  0.2024 -0.2743
41556W        W84473  28.170  23.257  31.378  0.3166 -0.2451 -0.2968
41557W        W84474  29.671  25.002  28.018 -0.1455  0.2020  0.0695
41558W        W84475  29.696  22.314  30.251 -0.1977  0.0330  0.3240
41559W        W84476  28.939  21.859  29.331 -0.1631  0.1356  0.0986
41560W        W84477  31.457  24.436  30.432  0.0802  0.0335 -0.0376
41561W        W84478  29.059  22.547  28.518 -0.0035 -0.5259 -0.2902
41562W        W84479  30.589  22.759  27.997  0.0305 -0.1837  0.1068
41563W        W84480  29.345  20.650  29.571  0.2622 -0.1769  0.0807
41564W        W84481  26.725  23.992  28.736  0.0090 -0.1996  0.0705
41565W        W84482  33.760  22.583  31.474  0.0020 -0.3380 -0.0889
41566W        W84483  29.479  25.670  28.268 -0.2763  0.0753 -0.2054
41567W        W84484  32.620  26.153  30.537 -0.2174  0.0696  0.0949
41568W        W84485  31.284  24.270  29.365  0.0535 -0.2273  0.2789
41569W        W84486  29.443  24.074  29.131 -0.0366  0.2947 -0.2561
41570W        W84487  28.909  23.807  28.321 -0.1169 -0.3566  0.3392
41571W        W84488  30.575  26.631  28.382  0.1071 -0.0047 -0.0120
41572W        W84489  30.243  25.661  27.214 -0.1540  0.2105 -0.0760
41573W        W84490  30.690  22.563  30.330 -0.1033  0.0570 -0.3670
41574W        W84491  31.908  25.138  31.788 -0.2659 -0.1860 -0.0946
41575W        W84492  30.488  22.680  26.640 -0.4509 -0.0579 -0.4469
41576W        W84493  29.078  23.586  29.073 -0.3739 -0.2554 -0.1141
41577W        W84494  33.271  22.330  30.052  0.5752 -0.0506  0.0201
41578W        W84495  32.245  25.268  28.869 -0.2187  0.0793 -0.0859
41579W        W84496  32.629  25.659  30.630  0.0831 -0.2253  0.2130
41580W        W84497  29.341  22.576  29.300  0.1195 -0.0744  0.2564
41581W        W84498  31.291  26.035  28.194  0.2844 -0.0891 -0.4777
41582W        W84499  28.208  25.082  28.361  0.1460 -0.0616 -0.2373
41583W        W84500  28.068  22.418  28.926  0.0888  0.3475 -0.0750
41584W        W84501  29.579  25.892  29.620  0.0815 -0.4682 -0.0523
41585W        W84502  31.991  20.592  30.391 -0.3065 -0.1933  0.1872
41586W        W84503  28.110  20.214  31.370  0.0600  0.1808  0.3908
41587W        W84504  32.644  22.745  30.782  0.1452 -0.2321  0.2014
41588W        W84505  29.042  24.272  27.773  0.2958 -0.1124  0.1303
41589W        W84506  27.579  26.225  30.064 -0.1144 -0.1665  0.2978
41590W        W84507  31.553  23.063  28.538  0.2251 -0.2525  0.2830
41591W        W84508  33.230  22.291  27.981 -0.1219  0.1799 -0.0528
41592W        W84509  31.238  25.983  28.810 -0.0790  0.2517 -0.0463
41593W        W84510  30.872  23.991  27.347 -0.0730 -0.0245 -0.2178
41594W        W84511  32.752  23.796  27.804  0.3081 -0.2478  0.0397
41595W        W84512  30.980  25.525  26.801  0.0401  0.1499 -0.1743
41596W        W84513  29.377  24.513  31.671  0.0288  0.1787  0.2615
41597W        W84514  30.358  26.409  28.002  0.0377  0.3776 -0.0920
41598W        W84515  29.982  23.674  28.365 -0.2231 -0.0273 -0.0320
41599W        W84516  32.380  25.002  29.300  0.2767 -0.0952 -0.2956
41600W        W84517  34.066  26.580  28.643  0.1316  0.0833 -0.0625
41601W        W84518  29.269  25.441  27.720  0.0484 -0.0271 -0.2151
41602W        W84519  30.827  23.075  29.999 -0.3090  0.1214  0.0280
41603W        W84520  31.051  26.452  28.259  0.0602  0.2929 -0.0422
41604W        W84521  29.664  21.548  28.595  0.0848  0.0630 -0.1217
41605W        W84522  30.688  25.078  26.769 -0.0067  0.0350  0.0071
41606W        W84523  32.627  21.796  29.465 -0.1491  0.2417 -0.0220
41607W        W84524  27.120  26.072  28.525 -0.2870 -0.0277  0.1181
41608W        W84525  31.164  22.607  29.194  0.1856 -0.2732 -0.2683
41609W        W84526  30.834  24.229  29.186 -0.0274  0.0832  0.0456
41610W        W84527  30.627  21.374  31.293 -0.1013 -0.0551  0.1538
41611W        W84528  31.333  23.418  30.753 -0.1965 -0.0451 -0.0187
41612W        W84529  31.168  25.267  27.583  0.1835  0.2797  0.2881
41613W        W84530  30.494  22.702  29.835  0.0304 -0.3671  0.1985
41614W        W84531  29.907  21.959  28.313 -0.1126  0.1453  0.0359
41615W        W84532  32.224  22.327  30.240 -0.1511  0.0714 -0.0117
41616W        W84533  29.635  23.358  31.261 -0.1203  0.0905 -0.0832
41617W        W84534  28.082  24.411  30.068 -0.0099  0.0805  0.5015
41618W        W84535  31.690  25.331  29.866 -0.0235  0.0512 -0.2003
41619W        W84536  31.065  24.556  27.379 -0.0692 -0.3260  0.0887
41620W        W84537  32.300  20.968  30.209  0.2878 -0.0717  0.1587
41621W        W84538  28.853  21.414  28.506  0.1335  0.2534 -0.0226
41622W        W84539  28.005  25.944  27.302  0.2658 -0.1029  0.1420
41623W        W84540  27.903  25.531  27.771  0.0813  0.1083  0.2690
41624W        W84541  33.560  20.808  30.766  0.0899  0.2811  0.0283
41625W        W84542  27.883  25.381  31.068  0.1445  0.1765  0.1687
41626W        W84543  30.292  23.100  27.564 -0.0715 -0.1631  0.1188
41627W        W84544  32.010  25.578  29.616 -0.0251 -0.1971 -0.1789
41628W        W84545  28.279  25.201  27.873  0.0925  0.0304 -0.0984
41629W        W84546  31.268  21.999  29.858  0.3307  0.2395  0.0150
41630W        W84547  28.377  24.334  27.799 -0.0528  0.0442  0.1586
41631W        W84548  28.837  22.451  28.043  0.3404  0.3262 -0.1292
41632W        W84549  28.250  22.632  28.296 -0.0786 -0.1103  0.3443
41633W        W84550  32.761  20.993  27.967 -0.0962  0.1526 -0.1608
41634W        W84551  32.613  24.045  28.658  0.0450  0.0879  0.1521
41635W        W84552  31.062  23.213  31.260  0.2987 -0.2130 -0.0090
41636W        W84553  31.437  21.720  27.998 -0.1976 -0.0310 -0.0959
41637W        W84554  28.378  25.700  30.069  0.3657 -0.1217 -0.0338
41638W        W84555  30.845  24.244  31.182  0.3264  0.2145 -0.1462
41639W        W84556  30.600  25.301  28.048 -0.2636  0.2618 -0.1289
41640W        W84557  31.327  25.816  30.288 -0.1862 -0.1239  0.2414
41641W        W84558  30.035  23.058  31.182 -0.0260  0.0531 -0.0560
41642W        W84559  29.290  23.160  28.931  0.0885 -0.0486  0.1152
41643W        W84560  32.817  20.907  29.250  0.1725  0.1068  0.0650
41644W        W84561  30.433  22.424  28.842 -0.1575 -0.0491  0.2224
41645W        W84562  28.583  23.691  30.552  0.0500  0.0018  0.1611
41646W        W84563  29.656  25.675  29.010  0.0481 -0.1132  0.1932
41647W        W84564  29.042  22.639  27.474 -0.0009  0.1760 -0.1597
41648W        W84565  29.419  24.398  28.767 -0.1407  0.0755 -0.2129
41649W        W84566  29.273  23.028   0.770  0.1632  0.0696 -0.1252
41650W        W84567  31.935  24.273  28.785  0.1453  0.0119 -0.1226
41651W        W84568  29.903  25.124  29.932 -0.1637 -0.0622  0.1391
41652W        W84569  30.929  22.716  28.370 -0.0741 -0.1193 -0.0997
41653W        W84570  31.800  23.246  30.828 -0.1214  0.0420  0.1268
41654W        W84571  30.955  22.353  27.918 -0.0864  0.1054  0.0485
41655W        W84572  31.340  20.666  31.129 -0.0027 -0.0609 -0.3250
41656W        W84573  28.104  24.017  31.874  0.2103  0.0795 -0.0602
41657W        W84574  31.957  22.768  28.360  0.0445  0.2230 -0.1901
41658W        W84575  32.123  26.497  31.233  0.0656  0.1467  0.0173
41659W        W84576  30.229  23.283  31.597  0.1480  0.3388 -0.0265
41660W        W84577  29.610  24.075  27.916  0.2428 -0.1638 -0.0886
41661W        W84578  29.779  23.337  29.867  0.0408  0.3968 -0.0964
41662W        W84579  29.175  25.180  29.247  0.1747 -0.0708 -0.1503
41663W        W84580  30.568  24.067  28.819 -0.0302 -0.3377 -0.1222
41664W        W84581  27.815  25.447  28.260  0.2765 -0.2971  0.4317
41665W        W84582  27.770  23.357  29.222 -0.0478  0.0816 -0.1019
41666W        W84583  29.757  24.251  29.514 -0.2751  0.2276  0.0948
41667W        W84584  33.999  22.112  26.623 -0.1476  0.0460 -0.1607
41668W        W84585  29.131  23.451  28.578  0.2491  0.0460 -0.1404
41669W        W84586  29.777  20.974  29.843  0.1444  0.1374 -0.4170
41670W        W84587  32.877  21.748   0.731 -0.0231 -0.2780 -0.0257
41671W        W84588  29.479  23.737  28.294  0.3523 -0.0461 -0.0052
41672W        W84589  32.138  21.487   0.390 -0.0588  0.0676  0.2293
41673W        W84590  29.196  22.220  29.637 -0.1201 -0.3107 -0.0667
41674W        W84591   0.518  25.693  28.338  0.1479 -0.2731  0.2139
41675W        W84592  29.776  21.764  31.705  0.3461  0.0024  0.2378
41676W        W84593  28.938  25.321  30.568 -0.1736 -0.0070 -0.0912
41677W        W84594  29.318  23.248  31.793  0.2497 -0.0914  0.0229
41678W        W84595  30.169  22.980  28.867 -0.0053  0.0040 -0.0504
41679W        W84596  29.203  21.729  28.874  0.0159 -0.0640 -0.1856
41680W        W84597  30.196  23.548  31.084 -0.0781 -0.0255  0.0000
41681W        W84598  30.990  25.475  28.869 -0.3050  0.0950  0.1920
41682W        W84599  29.937  24.995  27.600  0.2524  0.0744 -0.1477
41683W        W84600  33.413  22.044  27.416  0.3219 -0.1463  0.3763
41684W        W84601  28.521  24.729  30.848  0.0139 -0.0733  0.1378
41685W        W84602  29.929  24.626  28.693 -0.1220  0.0538  0.0325
41686W        W84603  28.932  22.970  27.906  0.0787 -0.2825  0.1746
41687W        W84604  28.680  23.599  28.672  0.0306 -0.1552  0.1006
41688W        W84605  31.636  22.744  29.051 -0.3885 -0.4105 -0.1457
41689W        W84606  31.685  24.797  28.016  0.1218  0.2779 -0.1159
41690W        W84607  31.021  21.662  30.656  0.0960  0.0404 -0.0728
41691W        W84608  31.445  22.256  27.958  0.0399  0.1536  0.0167
41692W        W84609  33.148  22.443  29.509 -0.1141  0.2387 -0.0161
41693W        W84610  32.528  20.694  29.858  0.0566  0.0846  0.0012
41694W        W84611  31.072  22.418  30.731 -0.2788 -0.0767  0.0592
41695W        W84612  31.288  25.266  30.146 -0.1069  0.0697 -0.0522
41696W        W84613  34.135  22.866  28.605  0.4014  0.1148  0.0535
41697W        W84614  33.564  21.626  30.439  0.3394  0.0813  0.0063
41698W        W84615  32.030  23.292  28.175 -0.1055 -0.1014 -0.2195
41699W        W84616  30.713  24.851  28.268 -0.0963  0.2183  0.2706
41700W        W84617  27.687  23.614  30.182  0.0506 -0.1139  0.2417
41701W        W84618  31.716  21.679  30.655 -0.1915 -0.2401  0.0257
41702W        W84619  28.016  23.340  28.203 -0.4894  0.2138 -0.1028
41703W        W84620  31.239  23.411  29.760  0.1620  0.0925 -0.5622
41704W        W84621  29.450  26.326  27.740 -0.0700  0.3567 -0.0178
41705W        W84622  32.965  26.895  29.671 -0.3421  0.0986  0.0662
41706W        W84623  32.673  22.157  27.097  0.2412 -0.0034  0.0006
41707W        W84624  30.083  23.210  29.368 -0.0665 -0.1748 -0.2583
41708W        W84625  28.373  23.359  29.668  0.0961  0.3105 -0.1367
41709W        W84626  30.170  22.530  27.050 -0.3033  0.0332 -0.2954
41710W        W84627  30.190  25.008  26.708 -0.1415  0.0751 -0.1645
41711W        W84628  32.134  25.510  30.566  0.1446 -0.1268 -0.0858
41712W        W84629  31.721  25.072  30.904 -0.1280  0.1283  0.0312
41713W        W84630  31.826  22.568  27.925 -0.0211  0.1532 -0.2427
41714W        W84631  32.629  23.447  31.200 -0.0081  0.0044 -0.0488
41715W        W84632  29.519  24.488  29.991 -0.3143  0.3426  0.0765
41716W        W84633  31.549  20.421  30.171  0.0913 -0.0087 -0.0343
41717W        W84634  30.646  24.698  29.318 -0.2877 -0.0249  0.1979
41718W        W84635  29.181  25.305   0.881  0.3176 -0.2063 -0.0831
41719W        W84636  31.173  25.062  28.151  0.0393 -0.0471 -0.0886
41720W        W84637  31.229  21.117  31.008 -0.2598  0.0765 -0.2264
41721W        W84638  30.062  22.201  31.591  0.0175 -0.0043 -0.1533
41722W        W84639  31.551  23.570  28.069 -0.0050  0.3220 -0.1815
41723W        W84640  32.461  23.215  27.948  0.0533 -0.2724  0.1238
41724W        W84641  30.277  24.904  30.512  0.0360 -0.1104 -0.0467
41725W        W84642  27.366  23.064  29.417 -0.0626 -0.3201 -0.0671
41726W        W84643  32.321  26.957  28.614 -0.0664 -0.1695  0.0414
41727W        W84644   0.143  24.821  28.843  0.4705  0.1535  0.0706
41728W        W84645  30.650  23.285  30.430  0.0016  0.1484 -0.0501
41729W        W84646  29.763  22.879  30.758 -0.2467 -0.0728  0.1940
41730W        W84647  31.734  21.987  31.103  0.2713 -0.3960 -0.1128
41731W        W84648  30.868  26.349  28.756  0.3714  0.0598  0.4375
41732W        W84649  31.749  22.361  30.072  0.0850 -0.0159  0.0606
41733W        W84650  30.016  26.038  28.086  0.0131 -0.2482 -0.0713
41734W        W84651  25.132  26.577  30.415  0.2180 -0.0542  0.0527
41735W        W84652  29.090  26.181  29.564  0.1670  0.3984  0.1849
41736W        W84653  29.793  26.220  28.881 -0.3466  0.0555 -0.2509
41737W        W84654  31.127  26.104  26.066 -0.0862 -0.0798 -0.1481
41738W        W84655  32.354  25.677  29.279  0.3378  0.0782 -0.2281
41739W        W84656  29.977  24.261  29.994 -0.2142 -0.0947 -0.0353
41740W        W84657  32.544  24.575  28.351  0.1047  0.0393  0.3028
41741W        W84658  28.096  24.766  28.769  0.3580  0.3572 -0.3388
41742W        W84659  30.434  23.594  28.525  0.0807 -0.0061  0.2424
41743W        W84660  28.750  24.642  27.581 -0.3192  0.1323  0.2111
41744W        W84661  28.312  25.594  28.197  0.1426  0.0583 -0.1421
41745W        W84662  31.682  26.453  28.984 -0.1789 -0.1752  0.1185
41746W        W84663  31.167  23.032  27.167 -0.0130  0.0441 -0.0733
41747W        W84664  33.758  25.775  29.260  0.1543 -0.0127  0.2106
41748W        W84665  31.688  25.152  30.421  0.1197  0.2531  0.0408
41749W        W84666  32.680  25.151  30.757  0.0741 -0.2062 -0.0572
41750W        W84667  30.105  24.514  27.492  0.2199 -0.0542  0.1578
41751W        W84668  30.119  21.999  29.057 -0.0695 -0.0835 -0.0265
41752W        W84669  29.038  22.677  29.686 -0.2168 -0.0062 -0.0749
41753W        W84670  33.225  21.929  31.499  0.1775  0.2055  0.0459
41754W        W84671  28.897  25.601  30.143 -0.1695  0.3181  0.1812
41755W        W84672  32.879  26.596  29.287 -0.1599  0.0658  0.0919
41756W        W84673  29.938  23.576  27.033 -0.1653 -0.0960 -0.0115
41757W        W84674  28.112  22.979  29.484  0.1234  0.3091  0.2503
41758W        W84675  33.182  21.333  30.718  0.2023  0.5129  0.1117
41759W        W84676  32.703  23.430  27.339  0.0923  0.3686  0.2418
41760W        W84677  31.585  23.818  28.596  0.1319  0.1224  0.2356
41761W        W84678  28.663  26.717  28.446  0.2396 -0.2787  0.3686
41762W        W84679  28.820  25.117  28.721  0.1228  0.2277  0.1123
41763W        W84680  31.352  23.344  28.976  0.3518  0.0471  0.1745
41764W        W84681  30.276  22.192  29.524 -0.0255  0.4130 -0.0105
41765W        W84682  32.769  23.323  29.906 -0.2391  0.3280  0.3878
41766W        W84683  30.324  22.899  30.278 -0.1300 -0.0900  0.1445
41767W        W84684  32.174  22.104   1.240  0.1549  0.0255  0.1343
41768W        W84685  29.554  21.632  30.474  0.0999 -0.3687  0.3141
41769W        W84686  32.861  24.982  28.996 -0.0951  0.1512 -0.0151
41770W        W84687  31.308  24.490  27.840 -0.0314 -0.0428  0.0285
41771W        W84688  30.245  22.143  31.098  0.1379 -0.5063 -0.0048
41772W        W84689  30.761  25.113  29.736 -0.0779 -0.2143  0.3629
41773W        W84690  33.055  26.492  30.767  0.1254 -0.1210 -0.1123
41774W        W84691  31.836  24.310  27.826 -0.0950 -0.0625 -0.2267
41775W        W84692  32.587  26.737  30.789 -0.0161  0.1719  0.0352
41776W        W84693  31.917  23.152  30.323  0.1715 -0.1243  0.2332
41777W        W84694  30.489  24.596  28.725  0.0877 -0.1115 -0.0307
41778W        W84695  28.431  23.684  28.181  0.0399 -0.1443  0.0324
41779W        W84696  30.932  22.429  28.752  0.3553 -0.1944 -0.2013
41780W        W84697  30.701  25.374  30.932  0.0265 -0.1499 -0.2843
41781W        W84698  30.261  21.150  30.134  0.0142 -0.1180 -0.0450
41782W        W84699  32.536  24.801  27.104 -0.1968 -0.0626  0.2629
41783W        W84700  32.667  22.742  28.820  0.0918  0.1516  0.2520
41784W        W84701  28.099  25.756  26.793  0.1775  0.0927  0.2098
41785W        W84702  33.125  23.961  28.815 -0.1894 -0.0298  0.2838
41786W        W84703  32.535  26.195  28.222  0.1261  0.0405  0.0060
41787W        W84704  27.524  25.094  29.995  0.0660  0.2134  0.2206
41788W        W84705  31.479  22.634  27.040  0.1353 -0.1219 -0.2611
41789W        W84706  33.095  24.054  30.599  0.2779 -0.1148 -0.1190
41790W        W84707  30.597  22.934  27.147  0.0765 -0.0619 -0.2657
41791W        W84708  28.026  22.974  30.068 -0.0987 -0.0558 -0.2701
41792W        W84709  27.787  24.733  29.197 -0.0284  0.1099 -0.1172
41793W        W84710  31.730  22.084  29.661 -0.3020 -0.4308 -0.0606
41794W        W84711  33.018  22.813  29.212  0.1915  0.4859  0.3834
41795W        W84712  27.226  25.571  28.878 -0.0022 -0.1698  0.1602
41796W        W84713  31.229  23.411  28.419 -0.0308  0.1876  0.0991
41797W        W84714  29.667  25.881  30.994  0.0000 -0.1910 -0.1447
41798W        W84715  29.674  24.201  30.698  0.1818  0.1295  0.1714
41799W        W84716  29.303  24.953  28.710  0.0747  0.0158 -0.2848
41800W        W84717  29.696  25.090  28.497  0.0863  0.1898 -0.0584
41801W        W84718  30.226  24.978  28.424 -0.0061  0.1806 -0.4066
41802W        W84719  28.890  25.668  28.434  0.2825  0.0946  0.2829
41803W        W84720  33.397  25.792  30.051 -0.1569  0.1508  0.1723
41804W        W84721  31.156  23.053  28.027  0.0496 -0.2486  0.0956
41805W        W84722  32.646  25.484  28.447 -0.2347 -0.1369 -0.2080
41806W        W84723  31.372  22.141  30.457 -0.1058  0.2468 -0.1269
41807W        W84724  32.957  21.325  27.067 -0.1418  0.0781  0.0287
41808W        W84725  32.210  22.392  28.677  0.1369  0.1198  0.0403
41809W        W84726  29.762  22.883  30.247  0.1088 -0.1072  0.1898
41810W        W84727  28.706  24.808  25.734 -0.0972 -0.1853  0.1428
41811W        W84728  29.199  25.267  28.283 -0.1589  0.1787  0.0541
41812W        W84729  28.918  24.788  28.292  0.1542 -0.3547 -0.2497
41813W        W84730  33.045  21.447  31.174 -0.0682 -0.0816  0.3069
41814W        W84731  30.163  23.716  29.978 -0.2171  0.0498 -0.2769
41815W        W84732  27.913  22.952  28.635  0.0764  0.0800 -0.0811
41816W        W84733  28.424  22.771  29.908 -0.0174 -0.3617 -0.1823
41817W        W84734  31.468  24.826  27.515 -0.2551 -0.1677  0.3629
41818W        W84735  29.268  21.036  30.126 -0.3606  0.0818 -0.1415
41819W        W84736  30.732  23.397  30.879 -0.1817  0.1661  0.0342
41820W        W84737  31.612  23.817  29.109 -0.1198 -0.0172 -0.3748
41821W        W84738  30.493  24.022  27.663  0.0209  0.1700 -0.1474
41822W        W84739  33.116  21.479  27.935  0.0650  0.4614  0.0809
41823W        W84740  33.298  25.281   0.081 -0.0193  0.0904 -0.0323
41824W        W84741  29.206  24.863  27.921 -0.3123 -0.1297  0.2963
41825W        W84742  31.380  22.931  29.978 -0.2822  0.0293 -0.5135
41826W        W84743  32.150  21.442  30.851  0.3264 -0.0508  0.0519
41827W        W84744  28.690  22.810  28.343 -0.2125 -0.0936  0.2250
41828W        W84745  32.101  22.678  31.548 -0.3405  0.1861  0.2696
41829W        W84746  28.716  27.379  27.258  0.1332  0.0725 -0.0576
41830W        W84747  32.807  25.974  28.678  0.0944  0.1223 -0.2179
41831W        W84748  30.335  23.223  29.911  0.1221  0.4123 -0.1059
41832W        W84749  31.226  26.335  29.149  0.0715 -0.0254  0.0315
41833W        W84750  28.503  21.480  31.334  0.2063  0.0056  0.2285
41834W        W84751  31.533  25.434  28.876 -0.1908  0.1669 -0.1927
41835W        W84752  31.373  24.336  29.858 -0.0332 -0.0578 -0.0285
41836W        W84753  33.166  24.156  27.774 -0.0421 -0.0864 -0.5215
41837W        W84754  32.656  22.227  30.583  0.0573  0.1074 -0.1975
41838W        W84755  30.651  22.172  28.326  0.0821 -0.2401  0.2334
41839W        W84756  30.253  23.100  30.740 -0.3703 -0.0458  0.0312
41840W        W84757  29.487  25.040   0.637  0.1780  0.2623 -0.1615
41841W        W84758  33.062  25.434  29.835  0.1654 -0.2845 -0.0685
41842W        W84759  31.564  22.790  25.924 -0.1720  0.3244 -0.2042
41843W        W84760  30.219  23.612  27.404 -0.0214  0.0482  0.1532
41844W        W84761  29.310  22.650  28.052 -0.0688  0.2676 -0.0084
41845W        W84762  30.373  24.038  29.630  0.2421 -0.2302  0.1671
41846W        W84763  31.109  23.946  28.322  0.0319  0.0877 -0.1666
41847W        W84764  33.325  21.843  30.030 -0.0745  0.1624 -0.0068
41848W        W84765  28.909  24.754  29.110 -0.4012 -0.0564  0.1393
41849W        W84766  29.966  24.619  28.185  0.1664  0.2695  0.1413
41850W        W84767  30.026  23.552  28.884  0.0776  0.0350 -0.0895
41851W        W84768  33.637  25.926  28.811 -0.0375  0.2046 -0.0608
41852W        W84769  32.309  25.561  31.897  0.0450 -0.0327  0.1010
41853W        W84770  32.309  26.227  30.137 -0.1147 -0.1327 -0.0579
41854W        W84771  29.976  25.970  29.319 -0.0143  0.0181 -0.0828
41855W        W84772  28.923  24.440  28.673  0.0543  0.2277 -0.0508
41856W        W84773  29.558  22.975  29.574 -0.0950  0.1974 -0.0903
41857W        W84774  27.735  22.800  29.161 -0.2327 -0.2273 -0.1500
41858W        W84775  28.570  22.447  30.392  0.2801 -0.3117  0.0523
41859W        W84776  30.995  22.731  29.672  0.1898  0.0594 -0.1755
41860W        W84777  30.593  23.014  29.498  0.1887 -0.0544 -0.3543
41861W        W84778  30.633  22.543  29.381 -0.0629  0.2498 -0.0802
41862W        W84779  31.014  23.159  29.238  0.0128  0.2017  0.0013
41863W        W84780  32.481  24.208  30.563  0.1742  0.1645  0.0177
41864W        W84781  31.549  23.823  29.585  0.2402  0.3001 -0.0288
41865W        W84782  31.955  22.918  31.147 -0.0297  0.0593 -0.4185
41866W        W84783  27.770  24.452  29.635 -0.0457  0.2171 -0.1590
41867W        W84784  29.086  23.573   1.186  0.1916 -0.3030  0.2001
41868W        W84785  30.457  25.027  31.952  0.2565  0.1686  0.0097
41869W        W84786  26.926  24.532  31.493 -0.0813 -0.1079  0.1524
41870W        W84787  32.302  24.786  30.510 -0.0034  0.0071  0.0495
41871W        W84788  29.255  23.030  29.985  0.1897  0.2099  0.0031
41872W        W84789  32.739  25.918  31.924  0.4712 -0.0198 -0.2122
41873W        W84790  32.017  27.103  31.444 -0.4096  0.4160 -0.1942
41874W        W84791  32.832  25.589   0.927  0.1236  0.3276  0.1699
41875W        W84792  32.242  21.815  30.488 -0.0266 -0.0946 -0.0235
41876W        W84793  30.008  25.482  28.717 -0.0979 -0.2400 -0.2866
41877W        W84794  32.054  23.380   0.085 -0.0975 -0.2562 -0.2970
41878W        W84795  31.105  25.198  29.396  0.0335  0.2895 -0.0365
41879W        W84796  28.809  26.054  30.425 -0.1144 -0.3018  0.0335
41880W        W84797  29.004  25.810   0.905 -0.0301 -0.2361 -0.1051
41881W        W84798  31.190  25.385  30.669  0.0244 -0.2017 -0.0332
41882W        W84799  29.027  23.659  31.685 -0.0887  0.0507 -0.0198
41883W        W84800  30.039  22.526  30.622  0.1048  0.2048  0.0390
41884W        W84801  30.266  21.855  31.845 -0.0802 -0.1535  0.4415
41885W        W84802  31.054  23.805  30.961 -0.4367 -0.0597  0.1668
41886W        W84803  33.365  22.774  31.212 -0.1100  0.3442  0.3340
41887W        W84804  30.149  22.784   1.681  0.1148  0.2023 -0.1502
41888W        W84805  31.581  22.396  31.406 -0.1233 -0.1392 -0.0150
41889W        W84806  30.532  22.461   0.828 -0.1940  0.0497  0.1558
41890W        W84807  30.610  23.029  31.327 -0.2571 -0.1582 -0.4510
41891W        W84808  28.586  25.703   1.216 -0.2995  0.0284  0.1739
41892W        W84809  28.326  24.854  31.667  0.0592 -0.3460  0.2206
41893W        W84810  30.041  23.697  29.447 -0.1389  0.0387 -0.2557
41894W        W84811  30.870  26.361  30.027  0.1908  0.0383  0.1829
41895W        W84812  31.601  21.370  29.826  0.0521 -0.1804 -0.0668
41896W        W84813  30.984  23.733  30.481 -0.3006 -0.0429  0.2566
41897W        W84814  32.894  22.712   0.649  0.2941  0.3023 -0.4580
41898W        W84815  30.125  21.362  31.769 -0.0451  0.1317 -0.3068
41899W        W84816  30.408  23.477   0.303  0.3105 -0.0128  0.0363
41900W        W84817  28.562  23.961  31.738  0.1880 -0.0079 -0.0889
41901W        W84818  33.160  23.085   0.424 -0.1062  0.2568  0.0347
41902W        W84819  30.726  22.861  30.778 -0.0735 -0.0818  0.3109
41903W        W84820  28.951  23.296  30.424  0.1637  0.0333  0.1169
41904W        W84821  32.969  21.623  29.782 -0.0057 -0.0455  0.1493
41905W        W84822  31.093  22.941  30.419  0.2108  0.0170 -0.0246
41906W        W84823  31.396  23.947  30.594  0.0980 -0.4063 -0.4550
41907W        W84824  31.879  24.646  30.770  0.1805  0.2661 -0.0906
41908W        W84825  28.626  23.097  30.803  0.1160  0.2396  0.0901
41909W        W84826  28.306  22.819  31.628 -0.0087 -0.1319 -0.0286
41910W        W84827  31.796  22.549  31.911  0.0203  0.1282  0.1455
41911W        W84828  33.028  25.950  30.678 -0.1566  0.2259 -0.0968
41912W        W84829  31.118  24.101   0.712  0.0158 -0.1498  0.0850
41913W        W84830  27.620  23.377  31.445 -0.1009 -0.1591  0.0221
41914W        W84831  32.842  25.927   0.458 -0.0579 -0.0528 -0.0258
41915W        W84832  31.707  23.743  30.931  0.0178 -0.0670 -0.0255
41916W        W84833  31.823  22.404   0.954 -0.2704 -0.3095  0.0087
41917W        W84834  31.853  23.908  31.392  0.0697  0.0586 -0.1764
41918W        W84835  32.190  23.958   0.389  0.1236  0.2039  0.0017
41919W        W84836  31.976  22.450   0.469 -0.1004 -0.0897  0.0759
41920W        W84837  34.040  25.302  31.747 -0.1075 -0.2643  0.0100
41921W        W84838  31.162  24.632  28.331  0.3220 -0.0317 -0.0901
41922W        W84839  29.569  26.778  30.540 -0.0165 -0.1106 -0.2208
41923W        W84840  30.567  23.895  31.040  0.1019  0.1099 -0.2529
41924W        W84841  29.080  21.670  30.921 -0.2574  0.0774  0.0708
41925W        W84842  28.761  23.556  30.084 -0.1225  0.1576  0.0272
41926W        W84843  27.326  24.378  30.589  0.2645  0.0241  0.0150
41927W        W84844  29.017  22.459  30.640 -0.0010  0.1052 -0.2109
41928W        W84845  32.084  26.435   0.938  0.2829  0.2593  0.1264
41929W        W84846  32.118  23.508  31.125  0.1797 -0.0366  0.1153
41930W        W84847  31.074  24.054   0.218  0.0619 -0.1046  0.0370
41931W        W84848  30.931  28.144  19.082  0.0252 -0.0951 -0.0841
41932W        W84849  30.057  26.957  19.416  0.2337 -0.0549 -0.3235
41933W        W84850  33.428  26.464  17.239  0.0678 -0.1036 -0.3218
41934W        W84851  34.051  27.516  16.667 -0.3605  0.1557 -0.3677
41935W        W84852  27.293  25.662  20.000 -0.2111 -0.0005  0.2907
41936W        W84853  32.093  28.122  19.374 -0.2709 -0.1283  0.2740
41937W        W84854  28.739  25.636  21.291 -0.0120  0.2650 -0.0967
41938W        W84855  34.368  28.008  18.489  0.1439 -0.1061  0.2347
41939W        W84856  33.976  28.558  19.170 -0.0615 -0.0289  0.2190
41940W        W84857  33.151  27.405  17.942  0.0393  0.0220  0.0840
41941W        W84858  32.678  26.233  19.442 -0.0658  0.0680 -0.1690
41942W        W84859  29.599  26.426  20.209 -0.2266 -0.3116 -0.0952
41943W        W84860  32.807  27.073  17.856  0.2740  0.1018 -0.2869
41944W        W84861  29.069  25.781  18.877  0.0749  0.0143  0.3007
41945W        W84862  31.908  26.965  17.973 -0.1913 -0.0592 -0.2336
41946W        W84863  28.925  25.793  18.381  0.1394 -0.0550  0.1382
41947W        W84864  30.739  28.674  19.692  0.1466 -0.0307 -0.0917
41948W        W84865  31.623  26.682  18.337  0.1662 -0.1507  0.0537
41949W        W84866  31.366  29.846  18.200 -0.1275 -0.0204  0.3135
41950W        W84867  31.593  27.833  18.912 -0.0508 -0.0517 -0.0610
41951W        W84868  32.122  26.127  20.415 -0.0817 -0.1507 -0.0490
41952W        W84869  30.788  28.266  18.050 -0.2021  0.1661  0.0915
41953W        W84870  27.685  26.806  17.259 -0.1634  0.2749  0.2485
41954W        W84871  28.029  27.152  19.524 -0.0124  0.2826 -0.3595
41955W        W84872  28.125  26.441  21.196 -0.2179  0.2066 -0.0144
41956W        W84873  31.134  27.436  18.548 -0.1187  0.2334 -0.3922
41957W        W84874  33.458  26.855  18.571 -0.0157 -0.0462  0.2082
41958W        W84875  29.936  30.578  19.122  0.1667 -0.0642 -0.0676
41959W        W84876  32.763  29.200  18.593 -0.0291  0.0169 -0.2862
41960W        W84877  32.817  27.394  19.533 -0.0730 -0.1764 -0.2215
41961W        W84878  29.256  27.688  18.590  0.1327  0.0096  0.1229
41962W        W84879  29.984  28.929  17.744  0.2716  0.3169  0.0425
41963W        W84880  30.330  28.606  17.906  0.1309 -0.0723 -0.2024
41964W        W84881  32.364  29.501  16.874  0.1802  0.0233  0.0370
41965W        W84882  34.382  30.225  20.246  0.3634 -0.3605  0.0953
41966W        W84883  31.458  28.099  19.463 -0.1830  0.0340 -0.2286
41967W        W84884  29.169  28.360  17.152 -0.3603  0.2577 -0.0179
41968W        W84885  33.284  29.799  21.015 -0.2312 -0.0098 -0.0449
41969W        W84886  31.035  27.812  18.217 -0.0382 -0.1627  0.1528
41970W        W84887  29.827  29.679  18.781  0.0678  0.0365  0.1434
41971W        W84888  33.348  28.393  20.306  0.2298 -0.1044  0.0975
41972W        W84889  31.008  27.230  17.091  0.2766  0.0549  0.0680
41973W        W84890  32.783  27.905  19.768  0.3292 -0.0241 -0.0267
41974W        W84891  30.969  28.789  19.210 -0.4339 -0.2485  0.0514
41975W        W84892  29.829  26.886  18.416 -0.3043  0.0436  0.1999
41976W        W84893  33.160  26.545  21.496  0.0804  0.1395  0.1001
41977W        W84894  29.245  28.834  17.361  0.1181 -0.3457  0.2893
41978W        W84895  33.508  26.000  17.520 -0.1521 -0.2230 -0.0526
41979W        W84896  31.316  26.865  19.309 -0.1236  0.0431  0.0762
41980W        W84897  33.391  28.238  17.497 -0.0980 -0.0055  0.1427
41981W        W84898  31.786  24.863  17.909 -0.1346 -0.2375 -0.1184
41982W        W84899  33.155  29.398  18.882 -0.1300  0.1178  0.2515
41983W        W84900  30.211  25.903  20.409  0.2576  0.0061 -0.0224
41984W        W84901  33.065  28.370  18.299 -0.0147  0.2474  0.0357
41985W        W84902  31.679  26.559  17.817 -0.0408  0.0135 -0.0875
41986W        W84903  33.219  26.278  19.316 -0.0017  0.3360  0.0319
41987W        W84904  29.350  28.636  19.131 -0.2156 -0.1162 -0.0098
41988W        W84905  30.284  27.278  17.822 -0.2100  0.0692 -0.5264
41989W        W84906  33.600  30.412  17.006  0.3743  0.1116 -0.1168
41990W        W84907  32.996  28.346  19.671 -0.0821 -0.1922  0.0483
41991W        W84908  31.764  28.520  18.112  0.1321 -0.0576 -0.3535
41992W        W84909  29.926  25.645  19.230 -0.1121  0.1145  0.1922
41993W        W84910  29.984  28.081  20.007 -0.1819 -0.1740  0.0782
41994W        W84911  29.645  26.864  20.637 -0.1383 -0.2410  0.1116
41995W        W84912  31.097  26.599  18.860  0.1355 -0.0813 -0.0088
41996W        W84913  32.863  28.163  22.090  0.1730  0.1635  0.1887
41997W        W84914  29.456  28.212  19.334 -0.1070  0.0789  0.1105
41998W        W84915   0.393  27.677  19.314  0.1448  0.2345  0.0507
41999W        W84916  30.215  27.134  18.749  0.0687  0.1439  0.0727
42000W        W84917  33.679  30.048  21.228 -0.0486  0.1522 -0.0289
42001W        W84918  34.287  28.902  17.725 -0.3858  0.1441 -0.0024
42002W        W84919  31.287  24.669  20.050 -0.0565  0.2594  0.0307
42003W        W84920  29.966  27.186  20.361 -0.1082 -0.2850  0.0802
42004W        W84921  30.937  26.873  17.453 -0.1820  0.0065 -0.0403
42005W        W84922  30.093  27.086  19.883 -0.0088 -0.1539  0.1159
42006W        W84923   0.140  31.154  20.989 -0.0629  0.0063 -0.0732
42007W        W84924   0.163  28.203  18.573  0.0782  0.1135  0.2838
42008W        W84925  30.615  26.601  20.974 -0.2401 -0.1309  0.1117
42009W        W84926  30.887  27.779  20.254  0.0206 -0.1644 -0.1793
42010W        W84927  31.059  28.754  20.112 -0.1155  0.3290  0.1642
42011W        W84928  30.324  29.724  18.080  0.2209  0.2288 -0.0362
42012W        W84929  29.373  27.037  18.040 -0.3463 -0.1075  0.0393
42013W        W84930  28.501  27.705  17.360 -0.3556  0.2383 -0.2113
42014W        W84931  29.296  26.438  20.649 -0.1739 -0.2458  0.2005
42015W        W84932  29.375  27.275  19.100 -0.2081  0.2800 -0.1068
42016W        W84933   0.114  26.767  18.917 -0.2744 -0.1119  0.0841
42017W        W84934  30.537  25.249  21.970 -0.0253 -0.0762 -0.2943
42018W        W84935  33.024  27.915  18.764 -0.1672  0.0992  0.1437
42019W        W84936  31.820  25.079  18.922  0.0200 -0.1464  0.1502
42020W        W84937  33.175  27.373  17.164 -0.1371 -0.0642 -0.1036
42021W        W84938  32.853  28.123  17.305  0.0809 -0.4515 -0.2094
42022W        W84939  31.847  29.125  17.575 -0.2475  0.2118  0.2203
42023W        W84940  31.523  27.256  21.381 -0.2800  0.0073 -0.0568
42024W        W84941  30.513  26.297  18.653 -0.0806  0.1172  0.1378
42025W        W84942  29.472  24.219  19.287  0.2920  0.1651  0.1108
42026W        W84943  28.366  25.351  19.068 -0.0984 -0.0584  0.0667
42027W        W84944  32.811  26.839  20.702 -0.1464  0.0988 -0.1269
42028W        W84945  31.001  25.801  19.443 -0.0520  0.0113 -0.2350
42029W        W84946  30.293  26.703  20.400  0.3575  0.1458 -0.1357
42030W        W84947  31.116  25.490  18.102 -0.0905  0.0108 -0.0706
42031W        W84948  29.291  28.728  18.655  0.0135 -0.0428 -0.4489
42032W        W84949  31.223  25.897  19.981  0.1362 -0.1147  0.2067
42033W        W84950  31.116  28.175  17.607 -0.2706  0.0978 -0.4264
42034W        W84951  33.967  30.439  20.978  0.0020 -0.0383  0.0430
42035W        W84952  33.091  29.544  20.522  0.3356  0.1344  0.3333
42036W        W84953  29.303  28.239  21.243  0.0545 -0.2230 -0.1889
42037W        W84954  28.343  27.270  17.666 -0.0758 -0.1248 -0.0624
42038W        W84955  30.820  30.374  18.495  0.2414  0.1851 -0.5113
42039W        W84956  31.080  29.263  19.134  0.1467  0.4477  0.2295
42040W        W84957  31.609  27.641  18.404  0.2770 -0.0768 -0.2145
42041W        W84958  32.065  29.820  20.349 -0.0097 -0.1804  0.0456
42042W        W84959  31.363  26.727  17.321 -0.2255 -0.0646 -0.3014
42043W        W84960  31.706  29.269  18.848  0.1719  0.0376 -0.0484
42044W        W84961  32.041  26.419  19.871 -0.0221  0.0566  0.0600
42045W        W84962  32.482  29.996  20.610 -0.0180 -0.1933 -0.0625
42046W        W84963  32.673  27.985  19.134  0.0343  0.1633  0.0973
42047W        W84964  29.656  24.105  17.064 -0.2815 -0.1439 -0.2139
42048W        W84965  32.438  27.217  18.683  0.3375  0.3766 -0.1438
42049W        W84966  30.004  27.593  17.473 -0.0085  0.0156  0.2022
42050W        W84967  29.321  26.582  18.306  0.0878 -0.0422  0.1632
42051W        W84968  31.938  28.050  18.115  0.2078 -0.0287  0.0640
42052W        W84969  32.789  26.610  18.050 -0.0112  0.0954  0.0610
42053W        W84970  28.442  29.077  18.805  0.1991  0.3585 -0.0066
42054W        W84971  31.411  29.145  20.157 -0.1666  0.2242  0.0533
42055W        W84972  29.130  25.324  18.315  0.0699  0.2519  0.1117
42056W        W84973  28.472  27.327  21.266 -0.2219  0.3190 -0.1224
42057W        W84974  31.565  26.020  17.713 -0.1232 -0.0727  0.0383
42058W        W84975  33.260  25.884  18.742 -0.0196  0.3038 -0.2795
42059W        W84976  31.770  28.728  18.699  0.1319  0.0565 -0.2007
42060W        W84977  32.585  28.528  17.429 -0.1205 -0.1963  0.0911
42061W        W84978  31.525  25.522  17.813  0.1923 -0.0830 -0.0696
42062W        W84979  34.418  27.110  16.829 -0.1271 -0.2263 -0.2417
42063W        W84980  27.566  30.201  19.923  0.1106 -0.4069  0.1712
42064W        W84981  32.404  28.000  18.163 -0.1323  0.1970 -0.0351
42065W        W84982  30.777  28.029  18.558 -0.1840  0.0159  0.4874
42066W        W84983  31.490  28.112  17.944  0.0236 -0.0839 -0.0085
42067W        W84984  33.061  28.654  16.529  0.0072 -0.1264  0.1663
42068W        W84985  28.868  28.028  18.557 -0.0518 -0.0543 -0.0948
42069W        W84986  31.358  27.435  22.116  0.2194 -0.1887  0.0666
42070W        W84987  30.517  29.294  17.843 -0.4211  0.0010  0.0915
42071W        W84988  31.534  26.279  19.704  0.4231 -0.0314  0.0159
42072W        W84989  30.492  27.644  18.172 -0.1070 -0.1063  0.0603
42073W        W84990  32.386  27.987  20.047  0.1348  0.3350 -0.0651
42074W        W84991  29.673  29.044  18.379  0.1509 -0.2197 -0.1001
42075W        W84992  31.584  25.976  20.351  0.2382 -0.2352  0.1366
42076W        W84993  30.999  24.883  19.722  0.2552 -0.3832  0.2722
42077W        W84994  30.204  26.118  22.551  0.3724  0.0306 -0.0111
42078W        W84995  32.085  29.863  21.294 -0.3689 -0.1249 -0.2392
42079W        W84996  32.950  26.944  17.297  0.0299 -0.3689  0.0340
42080W        W84997  31.491  29.031  19.267  0.1614 -0.1776  0.0068
42081W        W84998  30.270  25.579  16.952 -0.0817  0.0020  0.0822
42082W        W84999  32.392  25.762  19.976  0.2086 -0.0352 -0.5395
42083W        W85000  29.021  24.570  21.518  0.1226 -0.0020  0.0113
42084W        W85001  30.478  29.900  19.705 -0.1442  0.0103 -0.2049
42085W        W85002  33.778  26.969  20.724 -0.1105  0.0336  0.2578
42086W        W85003  30.619  27.279  18.530  0.3112  0.0327 -0.0044
42087W        W85004  32.262  26.890  22.692 -0.0615 -0.1417  0.3213
42088W        W85005  31.541  26.017  19.248  0.2941  0.0917 -0.1737
42089W        W85006  31.238  28.581  16.735 -0.1928 -0.1533  0.0741
42090W        W85007  32.122  25.549  19.587 -0.1083 -0.1561 -0.0196
42091W        W85008  31.289  26.479  20.223  0.2003 -0.0079 -0.2446
42092W        W85009  32.145  29.353  18.621 -0.1240  0.0853  0.0859
42093W        W85010  29.457  27.804  17.826 -0.0021 -0.2420  0.1687
42094W        W85011  34.287  28.111  19.035  0.1552 -0.3430  0.2063
42095W        W85012  29.947  28.085  17.453 -0.0551 -0.1078  0.0219
42096W        W85013  32.196  26.540  18.074 -0.0419 -0.1240  0.0254
42097W        W85014  29.984  28.002  19.468 -0.0069  0.1363  0.0905
42098W        W85015  30.626  26.830  17.818  0.3503 -0.3220 -0.3588
42099W        W85016  28.875  27.114  17.874 -0.1242  0.0758  0.0519
42100W        W85017  33.407  24.325  18.962  0.1038  0.1788 -0.0687
42101W        W85018  33.606  27.398  16.882  0.3008  0.0626 -0.2632
42102W        W85019  30.847  26.313  20.111  0.2073  0.2345 -0.2284
42103W        W85020  30.595  26.197  19.641  0.1426 -0.0425  0.1588
42104W        W85021  27.986  27.402  18.005 -0.1320 -0.0983 -0.0509
42105W        W85022  32.337  28.014  20.541 -0.0127  0.0251 -0.0343
42106W        W85023  32.671  25.269  17.883  0.2636  0.4154 -0.1396
42107W        W85024  31.987  28.304  18.938  0.0128  0.1110  0.0088
42108W        W85025  28.859  26.038  21.582 -0.0847 -0.0685 -0.0823
42109W        W85026  29.178  26.185  18.592  0.0616  0.0612 -0.2185
42110W        W85027  32.871  26.222  18.850 -0.0256 -0.2100 -0.0681
42111W        W85028  31.949  27.417  18.750  0.4020  0.2180 -0.1211
42112W        W85029  30.246  29.902  18.945  0.2014  0.0796  0.0915
42113W        W85030  32.332  28.445  20.195 -0.0018 -0.2933 -0.4759
42114W        W85031  32.097  27.737  17.714  0.0559 -0.0300 -0.0257
42115W        W85032  32.952  26.726  19.350 -0.3270  0.1720 -0.1171
42116W        W85033  29.325  26.714  21.330  0.0419  0.2531  0.3585
42117W        W85034  32.671  28.547  19.369  0.0395 -0.0221  0.0477
42118W        W85035  30.758  27.775  17.769 -0.1282 -0.0510  0.2318
42119W        W85036  31.975  25.445  18.583 -0.0663 -0.2366  0.2352
42120W        W85037  30.977  26.190  18.519  0.4192  0.2111 -0.1077
42121W        W85038  32.028  27.577  21.525 -0.0426  0.1292  0.0186
42122W        W85039  31.796  28.453  19.818 -0.1345  0.0353  0.1450
42123W        W85040  30.484  31.808  19.470  0.2410  0.4349 -0.0470
42124W        W85041  31.594  26.308  18.620  0.2958  0.1672 -0.0011
42125W        W85042  33.942  29.826  18.662 -0.0874  0.1148  0.3541
42126W        W85043  30.660  27.516  19.757 -0.0866  0.2296  0.0905
42127W        W85044  32.018  28.661  17.396 -0.0163  0.0820 -0.2484
42128W        W85045  29.799  27.831  18.471 -0.3046 -0.0103  0.0709
42129W        W85046  31.882  28.016  20.163 -0.1464  0.4054  0.0394
42130W        W85047  32.573  26.722  19.754  0.0019 -0.0429  0.0857
42131W        W85048  30.127  28.454  21.357 -0.0622  0.1439  0.1885
42132W        W85049  28.732  27.578  18.387 -0.2934  0.1161 -0.3838
42133W        W85050  29.738  28.699  18.876 -0.1152  0.3030 -0.1192
42134W        W85051   0.425  27.788  18.822 -0.1025 -0.1438  0.1499
42135W        W85052  33.555  28.299  19.571  0.0982 -0.0022  0.0578
42136W        W85053  31.154  23.797  19.685 -0.0914 -0.0128  0.1094
42137W        W85054  31.370  27.360  20.773  0.1383  0.0176  0.0353
42138W        W85055  32.100  27.231  17.597 -0.1631  0.0062  0.0094
42139W        W85056  32.853  27.087  22.692 -0.4369 -0.2877 -0.2392
42140W        W85057  30.183  25.002  19.223  0.4170 -0.2192  0.0074
42141W        W85058  34.147  28.044  17.921  0.1516 -0.1269  0.1522
42142W        W85059  29.438  27.282  21.005  0.2150 -0.0392 -0.0154
42143W        W85060  31.500  27.706  20.448  0.0655 -0.0958  0.0254
42144W        W85061  30.058  28.411  19.162 -0.1031  0.1008 -0.0119
42145W        W85062  33.058  26.045  17.215  0.0343 -0.0960  0.0198
42146W        W85063  30.149  26.515  18.416  0.0516 -0.3405 -0.1480
42147W        W85064  29.406  27.273  20.501  0.1009 -0.0781 -0.0029
42148W        W85065  32.786  26.972  18.444  0.3249 -0.0476  0.0932
42149W        W85066  29.206  26.196  21.269  0.0739  0.2720  0.0624
42150W        W85067  32.201  26.614  19.394 -0.0094  0.2165  0.0978
42151W        W85068  29.736  27.974  18.993  0.1821  0.0877 -0.2617
42152W        W85069  32.185  26.811  18.901 -0.3130 -0.0857  0.1983
42153W        W85070  31.803  26.358  17.296  0.0643 -0.0269  0.0080
42154W        W85071  30.671  26.730  18.460 -0.4682  0.3157  0.0649
42155W        W85072  29.785  25.769  21.661 -0.0344 -0.3115 -0.4688
42156W        W85073  32.244  27.770  19.002 -0.0561  0.3540 -0.1349
42157W        W85074  32.672  28.097  18.533 -0.1480 -0.0567 -0.2594
42158W        W85075  30.830  27.324  18.045  0.3257  0.0417  0.2062
42159W        W85076  31.448  25.676  19.616 -0.0512  0.2681  0.1799
42160W        W85077  34.174  29.178  20.433  0.0758  0.2192  0.0563
42161W        W85078  29.323  27.330  20.010 -0.1243  0.0664 -0.0022
42162W        W85079  31.971  28.677  20.549 -0.1135  0.1714 -0.0218
42163W        W85080  34.450  26.619  17.522  0.0742  0.2791  0.0270
42164W        W85081  33.892  26.799  18.836 -0.1949 -0.2159 -0.0816
42165W        W85082  32.598  28.460  18.093  0.0752  0.1767 -0.0932
42166W        W85083  32.269  26.482  17.347  0.2782  0.1093  0.2133
42167W        W85084  31.676  28.478  17.648 -0.1710 -0.1064  0.1348
42168W        W85085  31.847  24.914  20.100  0.1403  0.1720  0.1020
42169W        W85086  28.797  24.835  18.298 -0.3576  0.0188  0.1475
42170W        W85087  31.448  27.788  21.020  0.0500  0.1562  0.3978
42171W        W85088  30.011  29.472  17.731  0.3761 -0.0627 -0.1851
42172W        W85089   0.216  26.532  18.435  0.0192 -0.0032  0.1592
42173W        W85090  32.760  27.318  16.924  0.3957 -0.2294 -0.3541
42174W        W85091  30.029  26.561  18.898  0.0749 -0.0643 -0.1029
42175W        W85092  29.713  29.056  19.322 -0.2803  0.0590 -0.6411
42176W        W85093  28.855  25.423  19.933  0.1315 -0.3553 -0.2678
42177W        W85094  31.502  27.561  17.269  0.2778 -0.1739  0.0813
42178W        W85095  30.526  26.796  18.949 -0.0697  0.1102 -0.1104
42179W        W85096  34.018  27.792  20.837  0.0791  0.0287 -0.3962
42180W        W85097  31.492  24.790  19.130  0.0719 -0.2462  0.0774
42181W        W85098  32.961  25.856  19.233 -0.0425 -0.0692  0.2834
42182W        W85099  30.303  27.957  18.581  0.0050 -0.0816  0.0927
42183W        W85100  34.013  27.209  19.445 -0.0859  0.3174 -0.3791
42184W        W85101  32.469  29.918  19.170 -0.2043 -0.2396  0.1576
42185W        W85102  27.579  29.735  19.643 -0.1649  0.1127 -0.2485
42186W        W85103  30.307  28.193  18.153  0.2523 -0.1057  0.0612
42187W        W85104  29.816  27.184  21.642  0.2872 -0.0272  0.0167
42188W        W85105  33.740  28.982  19.303 -0.0545 -0.3927  0.2434
42189W        W85106  31.154  26.628  19.756  0.3314 -0.4642 -0.4214
42190W        W85107  31.036  25.700  20.863  0.0079 -0.2458 -0.1101
42191W        W85108  29.816  29.577  18.289 -0.1889  0.0988  0.2331
42192W        W85109  30.701  26.421  18.110 -0.0198 -0.1942 -0.0710
42193W        W85110  31.944  27.971  21.158 -0.2528  0.0450  0.0537
42194W        W85111  32.154  28.133  17.402 -0.0308 -0.0897  0.0101
42195W        W85112  31.679  27.973  17.522 -0.0895 -0.0585 -0.1093
42196W        W85113  27.422  26.635  20.158 -0.1587 -0.1349  0.0275
42197W        W85114  33.630  28.793  20.275 -0.2583  0.0050  0.1538
42198W        W85115  32.918  27.053  19.865  0.1247 -0.2602 -0.2006
42199W        W85116  30.610  25.571  18.005  0.0522 -0.0460 -0.1535
42200W        W85117  30.716  27.654  18.951  0.1920  0.0460 -0.1496
42201W        W85118  28.406  29.524  19.167 -0.0871 -0.1073 -0.1896
42202W        W85119  29.755  27.539  19.278 -0.2440 -0.0541 -0.1608
42203W        W85120  29.662  27.369  17.763  0.1334  0.1180 -0.0021
42204W        W85121  32.650  28.402  16.857 -0.1103 -0.0781  0.2280
42205W        W85122  31.182  27.264  17.596  0.3146  0.3446  0.0809
42206W        W85123  31.507  27.342  19.521  0.1641 -0.2074  0.1498
42207W        W85124  31.544  26.779  18.816 -0.1201 -0.0440 -0.0093
42208W        W85125  31.573  29.800  21.188 -0.2048 -0.0046 -0.2479
42209W        W85126  29.244  29.935  17.148 -0.2080 -0.2578 -0.0552
42210W        W85127  32.735  29.616  17.661 -0.0656  0.0609  0.0942
42211W        W85128  30.649  30.569  17.939  0.1450  0.0135 -0.2027
42212W        W85129  31.246  29.633  22.144 -0.2755  0.0882  0.0110
42213W        W85130  34.046  26.212  17.376 -0.3080  0.2809  0.3470
42214W        W85131  32.400  26.829  17.668 -0.2655  0.3074  0.0516
42215W        W85132   0.065  25.847  17.881 -0.1497 -0.1142  0.4915
42216W        W85133  31.184  28.868  21.095  0.2362 -0.5380  0.2934
42217W        W85134  31.844  27.093  19.176 -0.0285 -0.0551 -0.0452
42218W        W85135  30.908  25.971  18.103 -0.3242 -0.0822  0.0914
42219W        W85136  27.528  27.028  21.370 -0.1020 -0.3144  0.4738
42220W        W85137  30.312  25.114  21.004  0.1155  0.0119  0.0095
42221W        W85138  28.753  29.438  18.389 -0.1632 -0.0859 -0.1465
42222W        W85139  34.030  31.849  18.470  0.2804 -0.0615 -0.3343
42223W        W85140  29.778  26.986  19.008  0.1155 -0.2521 -0.2156
42224W        W85141  31.547  28.960  20.801 -0.2616 -0.0135 -0.5058
42225W        W85142  32.531  25.791  20.578 -0.1168  0.2043 -0.1515
42226W        W85143  33.867  27.194  17.309 -0.2233  0.3363  0.0350
42227W        W85144  31.038  25.985  18.954  0.2890 -0.0460 -0.1265
42228W        W85145  31.659  29.875  20.697  0.4421 -0.1575 -0.1940
42229W        W85146  29.890  28.339  17.848  0.0211 -0.0879  0.0584
42230W        W85147  31.195  28.315  18.344 -0.0258 -0.1031 -0.2240
42231W        W85148  30.264  26.535  17.942 -0.1328 -0.2133 -0.0772
42232W        W85149  32.640  23.698  17.692  0.2040  0.3418 -0.0308
42233W        W85150  30.212  26.022  21.551 -0.0047  0.0258  0.4197
42234W        W85151  30.066  25.214  20.520  0.2124  0.1577 -0.0400
42235W        W85152  30.572  26.006  17.745 -0.1115 -0.1130  0.0702
42236W        W85153  32.865  26.175  18.251  0.0267  0.2501  0.3802
42237W        W85154  31.324  28.639  19.613  0.3272  0.1501 -0.0513
42238W        W85155  28.062  27.828  21.081  0.1219  0.1112  0.3042
42239W        W85156  32.180  27.531  18.288  0.0082 -0.0051 -0.0969
42240W        W85157  32.599  28.607  20.599  0.0610  0.1105  0.3555
42241W        W85158  29.948  26.550  17.561  0.0662 -0.0615 -0.0088
42242W        W85159  32.003  29.469  19.977 -0.2781 -0.1192 -0.1807
42243W        W85160  29.708  26.146  19.012  0.1573 -0.0034  0.3669
42244W        W85161  31.923  25.766  17.451  0.0940  0.0793 -0.1440
42245W        W85162  29.568  25.883  17.737 -0.0350 -0.0489 -0.2066
42246W        W85163  29.203  26.835  20.387  0.4475  0.0490  0.0925
42247W        W85164  33.759  27.421  20.532 -0.1193  0.1012 -0.2750
42248W        W85165  31.784  26.255  18.152 -0.3423 -0.1230 -0.0906
42249W        W85166  33.205  29.885  16.225 -0.2256  0.0328 -0.1047
42250W        W85167  31.620  28.198  18.507 -0.2325 -0.2314  0.0087
42251W        W85168  32.169  28.369  17.834  0.0360 -0.0300 -0.2104
42252W        W85169  32.728  27.596  18.495 -0.0178  0.1537  0.0088
42253W        W85170  31.174  28.698  17.542 -0.3274 -0.1580 -0.0039
42254W        W85171  31.425  27.279  18.932 -0.0514 -0.0332 -0.0964
42255W        W85172  33.364  26.781  19.996  0.1585 -0.3758  0.1208
42256W        W85173  33.851  27.711  17.285 -0.0945  0.0530 -0.1257
42257W        W85174  31.949  26.330  19.014 -0.0331  0.2232 -0.1643
42258W        W85175  32.058  26.995  18.447  0.2187  0.1386  0.2326
42259W        W85176  30.275  30.256  19.356  0.3469  0.2632  0.2675
42260W        W85177  33.128  27.290  18.486 -0.1347 -0.1810  0.1605
42261W        W85178  33.063  26.046  17.781  0.1291  0.0105  0.1823
42262W        W85179  31.830  28.718  16.557 -0.1039 -0.0494  0.3073
42263W        W85180  32.380  27.157  19.349  0.3183 -0.3119  0.3654
42264W        W85181  33.861  28.522  17.941  0.1995 -0.2073  0.0454
42265W        W85182  30.288  28.379  20.270  0.0980  0.0473 -0.1172
42266W        W85183  30.677  26.313  19.125  0.0092 -0.0631 -0.0945
42267W        W85184  32.143  27.568  20.104  0.4495 -0.1361  0.0862
42268W        W85185  31.553  28.661  20.290  0.0785 -0.0097  0.0925
42269W        W85186  31.015  30.790  18.224  0.1039  0.0311  0.1573
42270W        W85187  33.535  28.335  18.673 -0.1387 -0.2839 -0.1498
42271W        W85188  33.486  27.779  18.785  0.0864  0.1507 -0.3321
42272W        W85189  33.928  29.006  18.815 -0.2246 -0.3300  0.1668
42273W        W85190  33.313  25.582  17.907  0.0979 -0.3444 -0.0028
42274W        W85191  33.902  25.745  17.745  0.1035 -0.0622  0.1341
42275W        W85192  32.279  25.652  17.817 -0.0861  0.1213 -0.3849
42276W        W85193  27.198  29.065  19.746  0.2162 -0.3152 -0.1180
42277W        W85194  28.852  26.413  17.375 -0.3713 -0.1012  0.1453
42278W        W85195  30.257  27.919  17.062  0.0510  0.2187 -0.2037
42279W        W85196  29.726  27.655  20.783  0.1575 -0.1556 -0.0120
42280W        W85197  30.966  26.983  20.774 -0.1132  0.1091 -0.2833
42281W        W85198  27.916  27.685  18.488 -0.1845  0.0137 -0.0362
42282W        W85199  30.122  27.576  19.664  0.0020 -0.1245 -0.1487
42283W        W85200  31.408  25.920  18.238  0.0454  0.1158  0.0557
42284W        W85201  34.550  28.678  18.531  0.2514  0.2742  0.1545
42285W        W85202  32.650  25.236  19.810  0.1477 -0.0927  0.0794
42286W        W85203  31.119  25.551  18.603  0.1278  0.0992  0.0177
42287W        W85204  32.997  28.307  17.807  0.1375  0.0364  0.0831
42288W        W85205  33.439  27.754  18.225 -0.1605 -0.2073  0.0304
42289W        W85206  34.651  26.243  18.760  0.0103 -0.2117 -0.0975
42290W        W85207  33.377  27.579  21.512 -0.3384  0.0423  0.0415
42291W        W85208  29.488  28.686  16.929  0.1744  0.3069  0.1758
42292W        W85209  33.168  27.766  20.578 -0.0642  0.0995 -0.0513
42293W        W85210  29.904  29.218  19.951 -0.0423 -0.1810  0.2211
42294W        W85211  28.717  25.801  17.405  0.0185 -0.2199  0.0175
42295W        W85212  32.633  28.728  18.566  0.1302  0.3433  0.1603
42296W        W85213  32.022  27.921  18.607 -0.0270  0.3146 -0.0065
42297W        W85214  33.006  30.922  17.397 -0.0311 -0.1249  0.1051
42298W        W85215  30.434  26.653  19.862  0.0218 -0.0020 -0.1117
42299W        W85216  31.589  29.393  19.694 -0.1862 -0.0498  0.0314
42300W        W85217  28.246  26.198  20.039  0.2577  0.2006  0.1923
42301W        W85218  32.575  27.556  18.014  0.3453  0.1007  0.3241
42302W        W85219  33.759  29.500  20.361  0.2085 -0.0560  0.2332
42303W        W85220  32.587  27.947  17.672 -0.1532  0.1999  0.1813
42304W        W85221  32.422  25.106  18.264 -0.1702  0.2004  0.3196
42305W        W85222  33.168  26.893  18.169  0.0956  0.0603  0.3668
42306W        W85223  26.404  27.105  18.963  0.2681  0.1857  0.0818
42307W        W85224  29.817  28.359  22.052 -0.0483  0.2780  0.0027
42308W        W85225  32.982  27.902  18.119  0.1867  0.1908 -0.1069
42309W        W85226  29.145  26.393  19.979  0.1961 -0.3045  0.0930
42310W        W85227   0.147  26.980  17.698 -0.0393 -0.0507 -0.0977
42311W        W85228  33.225  30.439  18.825 -0.0314  0.1491  0.1171
42312W        W85229  28.752  27.625  18.976 -0.0160 -0.3266  0.1470
42313W        W85230  32.039  26.145  17.720 -0.0077  0.0459 -0.2264
42314W        W85231  32.599  28.749  19.899 -0.0619 -0.0315  0.2812
42315W        W85232  31.964  29.135  18.117  0.0318 -0.0690 -0.2144
42316W        W85233  32.698  27.942  20.961 -0.0764  0.0014 -0.5407
42317W        W85234  31.770  25.283  19.359  0.0005 -0.0891 -0.0606
42318W        W85235  33.995  26.922  17.856  0.2795  0.0665 -0.2678
42319W        W85236  32.413  28.739  21.313 -0.1509 -0.3435 -0.0254
42320W        W85237  31.863  27.290  20.976  0.1245  0.3022  0.1774
42321W        W85238  32.880  29.055  19.627 -0.1152 -0.0123  0.1130
42322W        W85239  32.142  26.072  19.519  0.2409 -0.0691 -0.2851
42323W        W85240  28.111  29.040  19.731  0.0752  0.0475  0.1120
42324W        W85241  31.254  26.827  17.872  0.0321 -0.1402 -0.0857
42325W        W85242  33.667  26.195  19.117  0.1508 -0.0134 -0.0634
42326W        W85243  32.027  26.503  18.577 -0.1923  0.0199  0.2184
42327W        W85244  31.133  26.870  18.413 -0.1860  0.0598 -0.0243
42328W        W85245  31.954  23.094  18.862  0.1512 -0.4220 -0.1553
42329W        W85246  32.423  28.988  20.391  0.0224  0.3873  0.0187
42330W        W85247  33.662  27.303  19.794 -0.0491 -0.2429 -0.0685
42331W        W85248  31.223  28.055  22.025  0.0034  0.0924  0.0549
42332W        W85249  27.710  28.120  21.386  0.2740  0.2783  0.1258
42333W        W85250  31.092  26.502  20.873  0.2929 -0.1257 -0.0244
42334W        W85251  30.647  26.834  21.685 -0.0796 -0.0364 -0.0719
42335W        W85252  28.853  27.913  21.402  0.3560  0.1694  0.1911
42336W        W85253  31.596  29.470  22.517  0.0235 -0.1210  0.0607
42337W        W85254  29.367  24.877  24.184  0.1698 -0.3789  0.1630
42338W        W85255  31.844  29.069  24.553 -0.1512  0.1562 -0.0618
42339W        W85256  31.758  30.623  23.639 -0.0266 -0.2461 -0.2236
42340W        W85257  31.940  27.344  19.707  0.1620  0.0482  0.0555
42341W        W85258  29.271  27.244  21.474 -0.1085 -0.1039  0.3480
42342W        W85259  30.737  28.053  24.673  0.0059  0.3041  0.1484
42343W        W85260  31.475  24.110  22.440 -0.1119 -0.2896 -0.1393
42344W        W85261  26.046  27.327  22.370 -0.2717 -0.5093 -0.3130
42345W        W85262  30.749  26.835  22.261 -0.1452  0.2243  0.1697
42346W        W85263  29.212  28.662  21.019 -0.0386  0.0861  0.1711
42347W        W85264  29.636  25.508  22.384  0.0428  0.1817  0.4099
42348W        W85265  30.139  26.473  21.353  0.1859  0.1545 -0.0410
42349W        W85266  32.107  27.418  22.530 -0.1969 -0.1271 -0.0389
42350W        W85267  30.057  26.152  24.007  0.0088 -0.1117 -0.3000
42351W        W85268  33.238  26.407  25.511  0.0532  0.0672 -0.0754
42352W        W85269  30.942  29.219  20.341 -0.0928 -0.4618 -0.0430
42353W        W85270  28.814  27.542  19.881 -0.1230 -0.0613 -0.0565
42354W        W85271  29.195  27.594  21.880 -0.1380  0.2357 -0.0102
42355W        W85272  29.098  26.253  23.462 -0.4790 -0.2638 -0.1812
42356W        W85273  33.594  24.771  22.840  0.1584  0.0301  0.0145
42357W        W85274  30.846  28.227  23.648  0.3530  0.0720  0.0203
42358W        W85275  32.672  26.912  23.529 -0.0071 -0.0161  0.1618
42359W        W85276  30.996  27.966  21.282 -0.2820 -0.1475 -0.1385
42360W        W85277  30.610  25.958  22.854  0.1902  0.0007 -0.0412
42361W        W85278  28.763  27.437  21.632 -0.0675 -0.1144 -0.0457
42362W        W85279  28.944  30.059  19.646  0.1454  0.0930 -0.2341
42363W        W85280  32.199  29.796  22.236 -0.2858  0.1308  0.0133
42364W        W85281  31.668  27.211  22.440  0.0658 -0.1634  0.1924
42365W        W85282  33.149  29.395  23.710 -0.2362  0.2749  0.2016
42366W        W85283  30.923  28.868  23.523  0.2154  0.2868  0.0927
42367W        W85284  28.280  28.000  20.602 -0.0709 -0.0274  0.2545
42368W        W85285  30.606  29.344  24.302  0.1226  0.2887  0.0017
42369W        W85286  30.038  27.897  22.091 -0.0341  0.1797 -0.0975
42370W        W85287  32.010  25.938  25.432  0.0578  0.1561 -0.1161
42371W        W85288  30.409  28.550  20.751  0.0046 -0.0572  0.1901
42372W        W85289  31.225  27.702  19.262 -0.0783  0.4936  0.2938
42373W        W85290  29.885  26.841  21.244  0.0224  0.0890 -0.2475
42374W        W85291  30.734  26.006  24.616 -0.0011 -0.2620  0.3987
42375W        W85292  28.474  28.581  24.104 -0.0200  0.4913  0.2899
42376W        W85293  32.822  25.763  21.966  0.3120 -0.0476 -0.0333
42377W        W85294  30.643  29.113  19.322 -0.4564 -0.1908 -0.1315
42378W        W85295  33.168  28.777  20.773  0.1210 -0.1338 -0.3199
42379W        W85296  32.696  27.469  21.338 -0.1041 -0.0761  0.1540
42380W        W85297  32.724  25.746  23.198 -0.2280 -0.1651 -0.2689
42381W        W85298  30.509  26.246  21.922 -0.3194  0.0028  0.0389
42382W        W85299  30.586  28.880  21.114  0.0045  0.1843  0.1929
42383W        W85300  31.129  25.554  22.784  0.0768  0.0961 -0.0651
42384W        W85301  32.530  28.558  24.503  0.1237 -0.1785  0.2132
42385W        W85302  31.018  28.399  20.890  0.0749  0.1297  0.1238
42386W        W85303  31.425  27.085  23.087  0.1649 -0.0494 -0.0146
42387W        W85304  30.499  29.228  22.504  0.2863  0.0498 -0.2438
42388W        W85305  28.292  26.515  22.949 -0.4542 -0.1061  0.2058
42389W        W85306  31.651  27.781  21.731  0.0176 -0.2373 -0.1282
42390W        W85307  32.112  27.051  21.327  0.0012 -0.2335  0.1600
42391W        W85308  33.124  27.563  19.904 -0.1964 -0.1946 -0.0892
42392W        W85309  30.925  27.011  21.240 -0.0655 -0.1646 -0.2344
42393W        W85310  28.432  27.606  23.050  0.1867 -0.0462 -0.0186
42394W        W85311  29.582  26.124  23.686 -0.3102  0.2578  0.0829
42395W        W85312  28.401  27.547  20.778 -0.3639 -0.3740 -0.2359
42396W        W85313  31.116  28.242  24.970  0.0747  0.0730 -0.1503
42397W        W85314  28.789  27.518  23.487 -0.0684  0.0226  0.1951
42398W        W85315  31.516  26.327  20.699  0.0286 -0.1274  0.3319
42399W        W85316  30.395  27.552  22.301 -0.1770 -0.5460 -0.1198
42400W        W85317  32.812  27.365  23.416  0.3426 -0.1512 -0.0310
42401W        W85318  32.130  28.497  20.989 -0.0242  0.0340 -0.0976
42402W        W85319  30.560  26.293  20.526 -0.0364 -0.1744 -0.0520
42403W        W85320  32.268  26.565  21.252  0.3347  0.3850  0.1619
42404W        W85321  30.583  27.709  20.937  0.2792 -0.2469 -0.0944
42405W        W85322  31.915  28.436  21.446 -0.0836 -0.2130 -0.3950
42406W        W85323  31.911  30.799  25.141 -0.1525  0.0118 -0.0146
42407W        W85324  34.401  27.734  20.525 -0.0162  0.1125 -0.1491
42408W        W85325  30.725  29.616  22.728 -0.0527 -0.0392 -0.0050
42409W        W85326  32.950  25.209  23.981  0.0355 -0.1920 -0.0642
42410W        W85327  31.225  28.486  26.416  0.0335 -0.0930 -0.3753
42411W        W85328  30.434  30.354  21.172 -0.1254 -0.4146  0.1261
42412W        W85329  27.278  29.398  21.621  0.0297  0.0582 -0.0301
42413W        W85330  28.719  27.939  22.585  0.0391 -0.0390 -0.1402
42414W        W85331  29.721  23.110  25.884  0.3986  0.0708  0.1656
42415W        W85332  31.135  27.690  21.748 -0.4124 -0.0362 -0.0318
42416W        W85333  31.774  26.621  21.356 -0.2743 -0.1573  0.0072
42417W        W85334  29.626  26.867  23.660  0.0551  0.1274  0.0211
42418W        W85335  31.865  26.860  23.332 -0.0189  0.0812  0.0976
42419W        W85336  30.192  27.581  21.756  0.1181 -0.0356 -0.3062
42420W        W85337  31.419  30.295  21.006  0.1064 -0.4310 -0.0617
42421W        W85338  31.193  27.239  22.589  0.0296  0.1681  0.1253
42422W        W85339   0.325  29.570  19.306 -0.2254  0.0000  0.2386
42423W        W85340  28.743  28.403  23.556  0.1201  0.0030  0.0199
42424W        W85341  28.329  25.590  22.487 -0.2476  0.1258 -0.0548
42425W        W85342  29.478  26.714  22.291  0.1440  0.0945 -0.3109
42426W        W85343  34.104  25.753  23.626  0.1234  0.0187  0.0909
42427W        W85344  30.904  26.591  26.165 -0.0821  0.2690 -0.0067
42428W        W85345  27.406  27.252  20.947  0.2363  0.0317 -0.0343
42429W        W85346  31.073  28.596  22.966  0.0009  0.0991 -0.0099
42430W        W85347  28.139  29.126  22.103 -0.2236 -0.2303  0.1593
42431W        W85348  29.091  30.768  20.688 -0.2073 -0.5246  0.4776
42432W        W85349  30.984  24.453  23.919 -0.0836  0.0307  0.1875
42433W        W85350  30.333  28.317  19.702 -0.0494  0.0632  0.0432
42434W        W85351  33.840  28.046  23.784  0.3319 -0.2594  0.0565
42435W        W85352  32.773  30.159  23.434 -0.0662 -0.0489  0.0728
42436W        W85353  28.128  25.469  24.188  0.0763 -0.2381  0.0754
42437W        W85354  28.797  26.267  22.444  0.1647 -0.0253 -0.2512
42438W        W85355  30.340  27.548  20.431 -0.0433 -0.0866 -0.1825
42439W        W85356  31.955  27.887  23.889  0.0911  0.0364 -0.1229
42440W        W85357  29.379  24.183  20.546 -0.0639 -0.0653  0.1432
42441W        W85358  32.765  27.648  22.949  0.3025  0.0342  0.0359
42442W        W85359  32.568  26.337  20.573 -0.1923 -0.0867  0.0967
42443W        W85360  29.604  28.906  23.529  0.0830  0.2798  0.2190
42444W        W85361  33.847  25.323  23.683  0.0180  0.0437  0.0560
42445W        W85362  33.914  28.872  23.439 -0.0658 -0.0784  0.1456
42446W        W85363  32.224  26.053  20.974 -0.0673  0.0193  0.1308
42447W        W85364  27.386  27.266  20.316  0.3092  0.3556  0.0832
42448W        W85365  31.624  28.140  23.591  0.2298 -0.1729  0.1942
42449W        W85366  28.878  28.998  18.559  0.1070 -0.0981 -0.2583
42450W        W85367  27.515  27.643  22.031 -0.1217  0.2860  0.1860
42451W        W85368  30.932  29.204  22.013  0.0594 -0.2822 -0.1825
42452W        W85369  33.682  26.881  22.177  0.0356 -0.0332  0.1824
42453W        W85370  27.287  28.399  24.863 -0.1859 -0.2054 -0.2962
42454W        W85371  33.035  26.761  24.994  0.1919  0.4500 -0.0268
42455W        W85372  27.202  28.765  22.169 -0.0472  0.0588 -0.0069
42456W        W85373  30.730  30.430  23.058 -0.0758 -0.1193  0.0917
42457W        W85374  30.327  26.602  22.230  0.0586  0.0324  0.1089
42458W        W85375  29.721  27.041  23.181  0.0440  0.1871 -0.0425
42459W        W85376  32.850  29.946  24.284 -0.0947 -0.2632  0.1898
42460W        W85377  31.651  28.161  24.154 -0.1313  0.2518 -0.1420
42461W        W85378  29.563  25.840  21.165 -0.1472  0.0325 -0.0026
42462W        W85379  31.283  26.721  22.728 -0.1481  0.4109  0.3559
42463W        W85380  29.356  27.149  24.057 -0.6043  0.0020 -0.1043
42464W        W85381  32.106  28.109  24.311 -0.2395  0.2381  0.1824
42465W        W85382  30.518  29.072  20.628  0.3386  0.0715 -0.0466
42466W        W85383  31.218  27.031  21.691  0.2698  0.1354 -0.0426
42467W        W85384  32.353  28.974  22.054 -0.2082  0.0932 -0.0377
42468W        W85385  28.036  30.446  20.725  0.2110 -0.1595 -0.0055
42469W        W85386  31.188  27.879  23.762  0.1240 -0.0674 -0.7547
42470W        W85387  32.426  29.460  23.036  0.2250  0.5090 -0.0387
42471W        W85388  31.328  25.199  23.532 -0.0553 -0.1770  0.1775
42472W        W85389  30.489  27.144  20.174 -0.1321 -0.2436 -0.1248
42473W        W85390  30.449  25.851  24.078 -0.1363  0.1672 -0.2420
42474W        W85391  31.476  28.350  19.005  0.2849 -0.3945 -0.3279
42475W        W85392  33.999  26.098  23.206  0.0523 -0.1486  0.0429
42476W        W85393  31.048  25.990  22.113  0.2165  0.0028  0.0865
42477W        W85394  33.035  26.157  23.181 -0.0365 -0.0294 -0.3360
42478W        W85395  31.406  24.636  23.641  0.0438 -0.1564  0.0629
42479W        W85396  31.434  26.831  21.054 -0.0379  0.0947 -0.0270
42480W        W85397  30.845  28.228  22.719  0.0838  0.1364 -0.0255
42481W        W85398  29.169  26.837  20.894  0.1429 -0.0791 -0.3173
42482W        W85399  32.200  25.085  22.662 -0.3227 -0.0499  0.0206
42483W        W85400  30.533  28.114  25.134  0.0182 -0.3551 -0.1973
42484W        W85401  28.773  29.358  20.744 -0.0399  0.4400 -0.0284
42485W        W85402  32.061  27.917  26.137 -0.0667 -0.1264  0.0164
42486W        W85403  32.775  28.395  23.724  0.0766  0.3214 -0.0885
42487W        W85404  32.523  26.007  25.224  0.1516  0.2196  0.1311
42488W        W85405  30.640  27.819  21.915 -0.1071  0.1350 -0.0461
42489W        W85406  29.762  28.578  20.183 -0.3117  0.0310 -0.0233
42490W        W85407  30.883  29.696  20.553 -0.0317 -0.2050 -0.1671
42491W        W85408  28.763  24.896  22.438 -0.1238  0.2532  0.3624
42492W        W85409  31.258  28.367  23.389  0.2648  0.0468 -0.2107
42493W        W85410  33.380  28.073  23.514 -0.0995  0.1200  0.0877
42494W        W85411  32.424  29.024  24.795  0.2524  0.0647 -0.1310
42495W        W85412  29.949  27.391  22.208 -0.1507 -0.2745 -0.1238
42496W        W85413  33.847  25.725  24.896 -0.2742  0.3725  0.0604
42497W        W85414  29.472  28.026  21.964 -0.2343  0.1053  0.0944
42498W        W85415  29.684  25.608  19.700  0.2271 -0.0887 -0.1923
42499W        W85416  29.959  27.740  22.630 -0.2490 -0.1635 -0.1026
42500W        W85417  31.483  26.482  23.110 -0.1574 -0.0339  0.0136
42501W        W85418  34.201  27.153  19.921 -0.1439  0.1615  0.0981
42502W        W85419  30.244  28.494  22.238  0.1285 -0.2108 -0.2663
42503W        W85420  31.001  25.121  23.020 -0.0676  0.2091  0.1491
42504W        W85421  29.969  29.117  23.271 -0.0517  0.0230  0.0356
42505W        W85422  31.343  27.783  22.503  0.2562  0.3330 -0.1082
42506W        W85423  29.702  25.329  23.553 -0.3205 -0.2113 -0.2817
42507W        W85424  31.355  26.978  20.447  0.0735 -0.0418 -0.1542
42508W        W85425  30.609  26.219  23.687  0.0584  0.0734  0.0991
42509W        W85426  28.859  26.089  20.245 -0.0761 -0.0855 -0.1683
42510W        W85427  32.679  25.973  24.727 -0.2684 -0.0644 -0.0637
42511W        W85428  28.534  27.648  22.022  0.2417  0.4770  0.0198
42512W        W85429  29.266  29.165  21.182  0.0870  0.1699 -0.0009
42513W        W85430  32.996  26.122  23.743 -0.1884 -0.5467 -0.1704
42514W        W85431  29.078  28.228  21.697 -0.1353  0.0799 -0.0835
42515W        W85432  30.511  27.263  19.361  0.3180 -0.0812  0.4039
42516W        W85433  29.738  25.528  22.961 -0.1417  0.0955  0.1903
42517W        W85434  29.971  26.489  24.361  0.1548 -0.1278  0.0335
42518W        W85435  29.886  26.506  22.493 -0.0296  0.1353 -0.1739
42519W        W85436  28.976  27.938  22.108 -0.1149 -0.2668  0.0182
42520W        W85437  31.035  25.454  22.200 -0.0281  0.0012 -0.1396
42521W        W85438  32.530  25.520  23.919  0.3555  0.0142 -0.1594
42522W        W85439  29.983  26.236  22.973  0.0599  0.2906  0.2348
42523W        W85440  30.113  27.407  22.911  0.0652 -0.2464  0.1296
42524W        W85441  29.123  26.090  23.998 -0.1380 -0.0419  0.1803
42525W        W85442  33.894  31.181  20.852 -0.0912  0.0731  0.1717
42526W        W85443  32.287  27.798  26.898 -0.0866  0.0540 -0.2332
42527W        W85444  30.247  27.460  21.235 -0.4740  0.0229  0.0715
42528W        W85445  26.250  26.634  23.684 -0.5345  0.2417  0.0164
42529W        W85446  33.055  28.001  21.604 -0.3483  0.0118  0.1731
42530W        W85447  30.061  26.701  23.375 -0.1591 -0.3108  0.1636
42531W        W85448  27.796  28.316  23.353 -0.1847 -0.1956 -0.4036
42532W        W85449  33.725  28.303  22.830  0.1500  0.0796  0.0255
42533W        W85450  28.207  27.377  22.642 -0.0157 -0.0909 -0.0017
42534W        W85451  32.910  26.670  23.091 -0.0099 -0.2135 -0.1203
42535W        W85452  32.455  27.295  19.845 -0.0545  0.1758  0.1364
42536W        W85453  31.182  26.927  23.567 -0.0852  0.4492  0.1905
42537W        W85454  33.497  25.384  25.066  0.1000 -0.3135  0.2164
42538W        W85455  34.099  28.706  20.184  0.1057  0.0748 -0.1950
42539W        W85456  30.705  27.159  23.638  0.0384 -0.0036  0.1289
42540W        W85457  29.202  24.709  22.748 -0.0639  0.0797  0.0352
42541W        W85458  32.930  28.248  24.145 -0.1162  0.1453 -0.1109
42542W        W85459  28.592  26.698  23.348  0.5365  0.2123 -0.0441
42543W        W85460  30.277  28.893  22.935  0.0264 -0.1455 -0.0524
42544W        W85461  29.902  27.904  23.072 -0.1573 -0.1497  0.2468
42545W        W85462  29.455  23.839  20.895 -0.3504  0.1957  0.0721
42546W        W85463  29.128  26.922  21.862 -0.0208  0.1089  0.2781
42547W        W85464  28.874  27.005  21.327 -0.6531 -0.0254 -0.2260
42548W        W85465  33.757  26.449  21.441 -0.3386  0.2628  0.0026
42549W        W85466  30.912  29.265  20.809 -0.1998 -0.2080  0.0184
42550W        W85467  34.069  25.075  22.956  0.1694  0.1989 -0.0949
42551W        W85468  30.489  27.760  22.766 -0.4044  0.0802  0.0874
42552W        W85469  33.239  27.596  23.359 -0.0506 -0.1766 -0.3155
42553W        W85470  31.779  28.293  22.035  0.1092 -0.1743  0.0646
42554W        W85471  30.617  26.735  23.447  0.0958 -0.0223  0.2633
42555W        W85472  30.482  26.359  24.212  0.1222 -0.2089 -0.0539
42556W        W85473  32.987  27.315  24.927 -0.0626  0.0473  0.2281
42557W        W85474  30.452  26.361  23.173  0.0976 -0.1733  0.1724
42558W        W85475  30.873  25.992  23.227 -0.2245 -0.0007 -0.2524
42559W        W85476  30.913  26.192  24.085 -0.1733  0.1073  0.0723
42560W        W85477  30.891  27.632  24.196  0.1323  0.0641  0.0227
42561W        W85478  29.748  23.887  23.944  0.0343 -0.1965 -0.0378
42562W        W85479  31.315  30.602  23.932 -0.0337  0.2170  0.3242
42563W        W85480  31.769  25.427  20.018  0.0391 -0.1045 -0.0490
42564W        W85481  33.203  26.985  24.564  0.2097 -0.2431 -0.0276
42565W        W85482  34.459  27.607  21.009 -0.0786  0.0225  0.0769
42566W        W85483  32.089  26.890  19.809  0.0833 -0.2553  0.1310
42567W        W85484  28.548  25.036  23.312  0.4315  0.2371 -0.1155
42568W        W85485  31.870  27.410  23.755 -0.0659 -0.1570  0.2283
42569W        W85486  31.789  25.469  23.448 -0.0195 -0.3064 -0.2655
42570W        W85487  31.555  25.895  23.796  0.4369 -0.2143  0.2177
42571W        W85488  30.710  29.440  19.840  0.0348  0.3914 -0.0644
42572W        W85489  32.753  26.660  22.378  0.0440  0.1650  0.1614
42573W        W85490  29.530  25.927  22.107  0.0993  0.0005  0.0571
42574W        W85491  28.388  24.918  22.775 -0.0452 -0.2070  0.0688
42575W        W85492  30.573  28.620  22.602 -0.2039 -0.0016 -0.0177
42576W        W85493  29.498  27.702  22.327  0.2790 -0.0874  0.0391
42577W        W85494  33.262  28.035  19.933  0.2179 -0.3400  0.0420
42578W        W85495  31.422  27.575  24.064 -0.1447 -0.1946  0.1386
42579W        W85496  31.330  27.694  24.540  0.0768  0.1571 -0.1193
42580W        W85497  28.862  24.154  21.713  0.0966 -0.2044 -0.3178
42581W        W85498  31.442  26.184  24.248 -0.1382 -0.1438 -0.0714
42582W        W85499  30.082  29.776  20.989  0.0221  0.2621 -0.2038
42583W        W85500  32.520  25.023  22.196  0.0108 -0.1281 -0.0606
42584W        W85501  29.707  28.818  21.335 -0.3029 -0.0995 -0.0778
42585W        W85502  28.825  28.442  22.943 -0.2248  0.0153  0.0134
42586W        W85503  31.878  29.092  22.391 -0.1106  0.1089 -0.2622
42587W        W85504  31.648  25.761  22.961  0.1128 -0.0394  0.2012
42588W        W85505  30.629  27.672  23.730 -0.0100 -0.1049  0.2585
42589W        W85506  32.370  28.377  24.010 -0.0434  0.1316 -0.1106
42590W        W85507  32.402  26.320  25.837 -0.0769  0.2616  0.0472
42591W        W85508  28.743  28.600  22.478 -0.2083  0.0890 -0.2093
42592W        W85509  31.556  28.804  21.564  0.0317  0.0132 -0.1173
42593W        W85510  29.937  30.355  25.318  0.0922  0.2001  0.1148
42594W        W85511  33.695  26.426  22.032 -0.0074  0.2671  0.1042
42595W        W85512  29.585  28.795  21.881  0.0806 -0.1763  0.0966
42596W        W85513  28.090  27.932  23.242  0.0642  0.0773  0.2448
42597W        W85514  30.700  27.308  21.556 -0.1534  0.0745  0.0514
42598W        W85515  32.278  26.640  23.184  0.1123 -0.0002 -0.1440
42599W        W85516  29.975  26.393  21.967  0.3235 -0.2197  0.0654
42600W        W85517   0.079  30.435  20.475 -0.1514  0.2209 -0.2926
42601W        W85518  28.898  27.701  23.009 -0.0347  0.1595  0.1832
42602W        W85519  30.146  28.735  21.800 -0.0097  0.0082  0.1220
42603W        W85520  31.257  28.188  20.466 -0.0907  0.1725 -0.2175
42604W        W85521  31.310  28.817  18.861 -0.0172  0.2760  0.2710
42605W        W85522  32.173  27.644  22.052  0.3133 -0.0409 -0.2038
42606W        W85523  31.241  28.303  22.426 -0.1126  0.0007 -0.1332
42607W        W85524  31.790  27.731  19.367 -0.2642 -0.0065 -0.1117
42608W        W85525  29.705  27.612  21.818  0.0684  0.2173 -0.1241
42609W        W85526  29.008  27.466  19.392 -0.2960  0.0267 -0.3913
42610W        W85527  31.944  28.930  21.190  0.2614  0.1258  0.0071
42611W        W85528  28.791  28.952  21.179  0.2270 -0.0011 -0.0504
42612W        W85529  31.852  27.572  25.733 -0.0653  0.3694  0.0050
42613W        W85530  33.266  27.405  22.744  0.1698  0.1999  0.0214
42614W        W85531  33.041  26.353  20.613 -0.2510 -0.2815  0.0978
42615W        W85532  32.688  26.846  21.567 -0.2579  0.1823 -0.0263
42616W        W85533  32.251  28.725  26.677  0.1775  0.3255  0.0829
42617W        W85534  33.239  27.976  22.744 -0.0821 -0.1189 -0.2436
42618W        W85535  31.324  25.661  21.762  0.2417 -0.1973 -0.1849
42619W        W85536  31.055  27.171  23.974 -0.0879  0.0144  0.0035
42620W        W85537  33.661  25.661  24.438  0.2242 -0.0482 -0.1596
42621W        W85538  29.612  28.720  25.077 -0.0272  0.1309 -0.0205
42622W        W85539  32.341  28.105  22.121  0.0081  0.1894  0.3536
42623W        W85540  27.895  27.690  21.564 -0.1506 -0.3314  0.2310
42624W        W85541  31.092  28.581  21.491  0.1732  0.3363  0.4150
42625W        W85542  32.996  24.822  23.521  0.0272 -0.1206 -0.0875
42626W        W85543   0.389  29.154  19.695 -0.1056  0.0060 -0.1265
42627W        W85544  29.118  27.043  22.402  0.0767  0.1632 -0.0846
42628W        W85545  30.669  28.420  21.307 -0.1329  0.1511 -0.1643
42629W        W85546  31.811  28.629  23.334  0.0529 -0.0118  0.0465
42630W        W85547  30.645  28.885  22.180  0.0156  0.1544 -0.0446
42631W        W85548  29.614  26.751  21.750  0.0007  0.0982 -0.2173
42632W        W85549  30.609  26.340  21.405  0.0828 -0.0010 -0.1457
42633W        W85550  28.836  27.267  22.104  0.0516 -0.2502  0.0464
42634W        W85551  30.066  26.982  25.495  0.2017 -0.0659  0.0589
42635W        W85552  29.478  26.655  22.832  0.1234 -0.1486  0.1449
42636W        W85553  31.021  27.417  23.332 -0.0646  0.1056 -0.2635
42637W        W85554  31.817  27.727  24.343  0.2328  0.2592  0.0134
42638W        W85555  29.705  27.366  23.662 -0.0155 -0.1472 -0.2656
42639W        W85556  30.487  29.927  21.380  0.0735  0.2955 -0.4137
42640W        W85557  32.582  25.945  23.685  0.1205  0.2067  0.0930
42641W        W85558  32.850  28.148  20.218 -0.1768  0.2575  0.0944
42642W        W85559  32.964  29.472  24.738  0.1078 -0.0539  0.0449
42643W        W85560  27.383  27.130  22.217 -0.0501  0.5193  0.0723
42644W        W85561  31.108  25.505  21.350  0.2328  0.3855 -0.0024
42645W        W85562  31.027  27.487  21.105 -0.1133 -0.1098 -0.0399
42646W        W85563  30.840  26.990  22.983  0.0410  0.0693 -0.0540
42647W        W85564  30.447  30.133  24.630 -0.1106 -0.3525  0.0475
42648W        W85565  29.552  23.870  23.424 -0.2656 -0.0456 -0.0130
42649W        W85566  33.513  28.192  22.344  0.1547 -0.1119  0.0602
42650W        W85567  31.807  26.719  22.765 -0.1794 -0.1879  0.0285
42651W        W85568  29.579  29.655  20.048 -0.2166  0.1294 -0.1278
42652W        W85569  31.960  27.584  20.584 -0.3022  0.1116 -0.0860
42653W        W85570  33.292  28.630  22.860 -0.2412  0.1082 -0.0696
42654W        W85571  28.185  26.326  23.566 -0.0140  0.1222 -0.0147
42655W        W85572  32.263  29.701  24.087  0.1750  0.1935 -0.0849
42656W        W85573  33.185  27.147  23.692  0.1067 -0.1561 -0.0337
42657W        W85574  31.613  26.437  23.674  0.1918 -0.0756 -0.0865
42658W        W85575  30.443  26.988  21.259 -0.1022  0.0074 -0.0825
42659W        W85576  30.863  28.222  21.700 -0.2468 -0.1410 -0.0262
42660W        W85577  30.902  26.433  22.999  0.0791  0.0567  0.1038
42661W        W85578  32.055  25.346  24.131  0.0102  0.0976 -0.0746
42662W        W85579  32.287  27.670  21.046  0.0719  0.1555 -0.1089
42663W        W85580  33.287  25.599  23.262  0.2101  0.4265 -0.3668
42664W        W85581  30.509  29.267  24.928  0.0933 -0.4811  0.0095
42665W        W85582  30.787  28.450  24.134 -0.2189 -0.0643 -0.1703
42666W        W85583  29.979  26.305  20.555 -0.0152  0.3059  0.1855
42667W        W85584  31.024  27.612  22.862  0.1501  0.0891  0.1564
42668W        W85585  33.600  26.504  22.509 -0.1188 -0.0591 -0.0201
42669W        W85586  32.135  28.511  22.923 -0.3826 -0.0882 -0.0706
42670W        W85587  32.166  30.485  22.745 -0.1405  0.0569 -0.1160
42671W        W85588  30.863  27.265  22.040 -0.3534  0.2187 -0.0235
42672W        W85589  32.789  27.025  24.019 -0.0373 -0.1660 -0.0898
42673W        W85590  28.317  27.133  22.177  0.1017 -0.0321 -0.1157
42674W        W85591  32.212  25.206  25.168 -0.0116  0.1142 -0.2087
42675W        W85592  30.992  27.005  19.961  0.2406 -0.3476  0.1810
42676W        W85593  32.218  28.025  22.620 -0.0427 -0.6291  0.0517
42677W        W85594  30.009  26.746  22.904  0.2997  0.2802 -0.3311
42678W        W85595  31.372  28.160  19.973  0.1257  0.2258  0.1321
42679W        W85596  29.555  29.191  22.249  0.1496 -0.0003 -0.0638
42680W        W85597  31.211  25.642  23.270  0.2050 -0.2203 -0.1536
42681W        W85598  27.894  27.555  23.510 -0.3842  0.0639 -0.2514
42682W        W85599  28.515  29.066  22.610  0.3005  0.2083  0.0364
42683W        W85600  29.085  26.316  22.974 -0.1025  0.0295 -0.0158
42684W        W85601  32.703  27.627  20.191 -0.0801  0.1697  0.0779
42685W        W85602  27.490  25.191  22.847 -0.0081 -0.2055 -0.0441
42686W        W85603  28.166  24.749  23.165 -0.3538 -0.1893 -0.0532
42687W        W85604  32.292  26.579  20.254 -0.0701 -0.3506 -0.2950
42688W        W85605  33.089  29.426  22.340 -0.2549 -0.1843  0.0840
42689W        W85606  29.226  28.103  22.559  0.2528  0.0387 -0.2585
42690W        W85607  32.176  29.326  25.210  0.1077 -0.1837 -0.0788
42691W        W85608  28.270  27.831  19.771 -0.0808  0.0076  0.1422
42692W        W85609  29.322  25.670  23.531 -0.3136  0.3889  0.0135
42693W        W85610  29.692  26.622  25.795  0.2997 -0.2544 -0.0832
42694W        W85611  29.878  25.834  20.773  0.1738  0.1565 -0.1523
42695W        W85612  30.608  27.455  23.135  0.1923  0.0652 -0.5791
42696W        W85613  33.766  30.132  23.050  0.1245  0.0371 -0.3659
42697W        W85614  31.853  28.086  20.660 -0.0333  0.1718  0.1421
42698W        W85615  30.221  28.166  22.778  0.1297  0.0138  0.1048
42699W        W85616  31.384  28.929  23.184 -0.1553 -0.3051  0.3244
42700W        W85617  29.078  26.583  23.949  0.1146  0.0564  0.1008
42701W        W85618  31.765  27.774  22.200  0.0774 -0.1697  0.1846
42702W        W85619  29.616  29.545  24.741  0.1659  0.1563 -0.0456
42703W        W85620  32.255  27.245  23.421 -0.0483  0.4291 -0.0046
42704W        W85621  34.048  26.510  22.780 -0.1265 -0.0933  0.2255
42705W        W85622  30.422  27.180  20.755  0.1705 -0.1395 -0.2857
42706W        W85623  29.385  24.663  24.697 -0.2890  0.0336  0.1151
42707W        W85624  30.510  27.945  21.447  0.0340 -0.0558 -0.1869
42708W        W85625  33.750  28.796  23.928  0.1595  0.4220  0.1437
42709W        W85626  30.213  25.336  23.532  0.0570 -0.0834  0.1882
42710W        W85627  31.403  25.410  20.911  0.1874 -0.2310  0.2524
42711W        W85628  31.666  27.682  19.912 -0.0610 -0.1136 -0.3055
42712W        W85629  30.207  29.444  23.902  0.0132  0.0483 -0.1326
42713W        W85630  29.521  28.251  19.942  0.3519 -0.1337 -0.1323
42714W        W85631  31.022  25.918  23.703 -0.1935  0.0603 -0.0865
42715W        W85632  31.830  27.722  23.368  0.1318 -0.0111 -0.0290
42716W        W85633  32.136  27.854  24.733  0.3291 -0.2201  0.3208
42717W        W85634  30.854  26.735  20.389  0.2995  0.0593  0.0292
42718W        W85635  33.116  26.539  22.072 -0.0421 -0.3369  0.0244
42719W        W85636  31.484  29.862  24.118 -0.1436 -0.1609 -0.1987
42720W        W85637  30.946  29.662  24.208  0.0365  0.2382  0.1784
42721W        W85638  31.646  28.669  22.302 -0.0751  0.0734  0.1818
42722W        W85639  32.349  25.094  23.127 -0.1869  0.0234 -0.1395
42723W        W85640  28.757  25.412  22.327 -0.0375  0.0941 -0.3121
42724W        W85641  30.227  28.118  21.010 -0.0319  0.0768  0.0904
42725W        W85642  30.614  27.249  22.646 -0.2949 -0.1219 -0.0292
42726W        W85643  30.918  26.253  25.609 -0.1076 -0.0351 -0.1118
42727W        W85644  29.464  27.205  22.049 -0.0196 -0.0726 -0.0598
42728W        W85645  33.297  26.662  19.013 -0.1833  0.0892  0.2837
42729W        W85646  29.365  28.967  23.065 -0.2974  0.0498 -0.0360
42730W        W85647  30.080  26.080  24.616 -0.4453  0.3076  0.3033
42731W        W85648  30.938  26.425  26.722  0.2799 -0.2755 -0.2321
42732W        W85649  28.910  26.483  24.929 -0.0845 -0.1663 -0.1874
42733W        W85650  31.679  27.765  26.449  0.2480 -0.2641 -0.2240
42734W        W85651  30.501  26.944  25.791 -0.1464 -0.0280  0.0967
42735W        W85652  29.649  25.311  24.613  0.0356 -0.2384  0.1197
42736W        W85653  31.229  31.057  24.734 -0.0297  0.1555 -0.1627
42737W        W85654  28.423  26.123  25.995 -0.2321  0.1992  0.1173
42738W        W85655  32.336  28.587  27.855  0.2676  0.0160  0.3838
42739W        W85656  32.422  29.211  27.850 -0.3878 -0.2268  0.1001
42740W        W85657  31.525  28.159  26.696  0.2270  0.3366 -0.0947
42741W        W85658  28.583  26.184  24.656  0.1432 -0.2357 -0.4615
42742W        W85659  30.873  29.430  25.758  0.1305 -0.0587  0.1357
42743W        W85660  30.820  24.641  25.363 -0.0283  0.2847 -0.2836
42744W        W85661  28.965  23.618  25.917  0.0466 -0.1803 -0.1796
42745W        W85662  30.514  26.095  27.481  0.0555 -0.0825 -0.0959
42746W        W85663  30.106  28.534  23.348  0.0715 -0.1981  0.1241
42747W        W85664  30.840  25.599  24.932 -0.1538  0.0338  0.2392
42748W        W85665  29.857  26.274  26.146  0.0231 -0.0837  0.0160
42749W        W85666  32.932  27.673  26.944  0.2574  0.1387 -0.2986
42750W        W85667  29.475  27.146  27.056  0.0281 -0.0089  0.0863
42751W        W85668  32.566  25.857  25.994  0.0841  0.2279 -0.1655
42752W        W85669  31.863  30.288  25.782 -0.0437  0.0847  0.0027
42753W        W85670  29.144  29.128  23.507  0.1461  0.2014  0.3312
42754W        W85671  29.770  28.494  25.578  0.1849 -0.0451 -0.0153
42755W        W85672  29.928  27.444  26.675 -0.1568  0.1257 -0.1280
42756W        W85673  31.878  25.735  26.010 -0.2161 -0.0194 -0.2401
42757W        W85674  30.312  26.635  26.228 -0.1284 -0.0232  0.1631
42758W        W85675  31.384  28.860  26.169  0.0602 -0.3735 -0.0787
42759W        W85676  32.434  29.801  25.969 -0.1439 -0.2984  0.0610
42760W        W85677  33.418  26.986  27.452  0.0255  0.1672 -0.0588
42761W        W85678  29.849  29.943  25.548 -0.1562 -0.0047 -0.0875
42762W        W85679  28.901  26.963  27.078 -0.1226  0.1797 -0.0085
42763W        W85680  31.312  28.422  23.916  0.1387 -0.2031 -0.3447
42764W        W85681  34.296  27.689  25.226  0.0345 -0.2962  0.0673
42765W        W85682  31.478  28.411  27.805  0.0685 -0.0264 -0.1959
42766W        W85683  30.991  28.813  27.625  0.1974 -0.0788  0.1525
42767W        W85684  29.707  28.148  22.527  0.0155  0.1060  0.0982
42768W        W85685  29.868  27.265  28.188  0.1027  0.3204  0.0511
42769W        W85686  29.859  26.586  25.319 -0.5056 -0.2663 -0.1228
42770W        W85687  27.882  26.835  24.837 -0.0511 -0.1853 -0.3035
42771W        W85688  29.142  26.218  26.754  0.3738 -0.2017  0.1240
42772W        W85689  29.390  27.476  25.446  0.1139  0.1275 -0.2731
42773W        W85690  30.608  26.173  26.083 -0.0560  0.1306  0.2122
42774W        W85691  29.943  28.500  27.556  0.0669 -0.1012 -0.2849
42775W        W85692  29.641  27.851  24.496  0.4800  0.1992 -0.0995
42776W        W85693  32.002  24.924  29.756 -0.2962 -0.1134  0.0240
42777W        W85694  29.635  28.378  23.164 -0.4729 -0.0026  0.0302
42778W        W85695  31.114  27.770  25.137 -0.0519 -0.1503  0.0927
42779W        W85696  31.368  27.340  24.927  0.3527 -0.1408 -0.0114
42780W        W85697  30.907  27.330  25.239  0.4475  0.1107  0.0047
42781W        W85698  28.995  25.241  25.460  0.0653 -0.0587 -0.1237
42782W        W85699  32.390  27.605  25.881  0.0459  0.2741 -0.1769
42783W        W85700  30.888  24.451  26.243  0.1406  0.0983 -0.0224
42784W        W85701  32.371  25.983  27.781  0.0164 -0.4836  0.3120
42785W        W85702  31.178  27.302  27.264  0.1400 -0.3079 -0.1488
42786W        W85703  33.221  25.856  24.677  0.1148  0.0341  0.3318
42787W        W85704  28.898  28.505  26.903  0.1183  0.1041 -0.1951
42788W        W85705  30.181  28.204  25.631  0.0587 -0.1140  0.2625
42789W        W85706  31.351  27.166  24.470 -0.2348  0.0297  0.0041
42790W        W85707  29.883  29.990  24.337  0.0672 -0.0295 -0.0302
42791W        W85708  31.286  28.084  22.901  0.0738  0.1136 -0.1414
42792W        W85709  29.246  25.806  25.849  0.0669 -0.2602 -0.0632
42793W        W85710  30.313  27.339  27.365 -0.1765  0.1429  0.0897
42794W        W85711  28.752  28.124  25.862 -0.0999  0.1458  0.0551
42795W        W85712  30.027  25.661  24.313  0.0251  0.1889 -0.0309
42796W        W85713  32.962  27.009  27.223 -0.0741 -0.2970 -0.0944
42797W        W85714  27.884  28.242  28.725 -0.2481  0.1765 -0.0695
42798W        W85715  32.726  26.497  25.372  0.0771 -0.1813 -0.0829
42799W        W85716  30.776  28.611  27.013  0.4007  0.0743  0.0764
42800W        W85717  31.772  29.875  26.068 -0.0768  0.0760  0.0157
42801W        W85718  31.877  28.161  25.141 -0.0205 -0.1080 -0.1493
42802W        W85719  31.744  26.285  25.035 -0.4790 -0.0001  0.1212
42803W        W85720  31.211  24.916  25.621 -0.0852  0.0591 -0.0585
42804W        W85721  28.940  27.168  24.352  0.0090  0.0640 -0.2215
42805W        W85722  28.364  27.909  24.114 -0.2126  0.4849  0.3282
42806W        W85723  31.971  28.402  27.539 -0.0634 -0.2315  0.0015
42807W        W85724  31.375  27.730  25.579 -0.0171 -0.0927 -0.3667
42808W        W85725  30.677  30.117  26.047 -0.0007  0.2474 -0.2301
42809W        W85726  28.501  26.656  26.751 -0.0583 -0.1212 -0.0028
42810W        W85727  31.525  27.057  27.594  0.0589  0.3204 -0.2498
42811W        W85728  30.363  30.476  24.992 -0.2882  0.0471  0.1355
42812W        W85729  29.390  28.189  25.271 -0.1405 -0.1857  0.4021
42813W        W85730  28.957  28.990  26.175 -0.0385  0.1235 -0.1462
42814W        W85731  28.177  28.510  27.509 -0.1140  0.1913 -0.0164
42815W        W85732  28.719  27.923  27.870 -0.3052  0.0797 -0.1886
42816W        W85733  29.849  24.987  24.930 -0.0843  0.0868 -0.2517
42817W        W85734  29.661  25.582  27.377  0.2293  0.0280 -0.2051
42818W        W85735  32.082  25.188  24.618  0.1547 -0.4434 -0.0950
42819W        W85736  30.980  28.232  25.481  0.0133  0.0457 -0.2117
42820W        W85737   0.358  29.684  26.180 -0.2165  0.2210  0.2634
42821W        W85738  32.810  27.196  25.761 -0.2691 -0.0294  0.1699
42822W        W85739  31.805  27.322  24.743 -0.1456 -0.2816 -0.2018
42823W        W85740  29.775  27.895  26.375  0.1223  0.0184  0.0887
42824W        W85741  27.728  27.112  25.261 -0.1407  0.2299  0.3496
42825W        W85742  28.411  26.300  28.517  0.4040  0.2187  0.1134
42826W        W85743  26.943  26.310  26.133 -0.3345 -0.1216  0.1115
42827W        W85744  32.012  26.208  28.138 -0.1063 -0.2722  0.0909
42828W        W85745  29.208  25.721  22.977 -0.0341  0.0313  0.2761
42829W        W85746  31.654  25.000  24.438 -0.0993 -0.4525  0.0974
42830W        W85747  31.679  26.493  24.586 -0.0015 -0.0666 -0.2098
42831W        W85748  28.714  26.788  25.272  0.2669 -0.1955 -0.0588
42832W        W85749  32.584  27.766  27.343  0.1188  0.0959 -0.1922
42833W        W85750  31.919  26.624  24.151  0.0581  0.0897 -0.0049
42834W        W85751  33.258  28.855  27.592  0.1071  0.2093 -0.2057
42835W        W85752  31.844  29.521  25.546  0.1458 -0.0734  0.0063
42836W        W85753  29.003  27.024  27.542 -0.1996 -0.0744  0.0771
42837W        W85754  32.847  27.860  23.565  0.0448 -0.0679  0.0409
42838W        W85755  30.286  29.806  25.146  0.4657  0.0310  0.1535
42839W        W85756  31.441  26.570  25.915 -0.3826  0.1486 -0.0452
42840W        W85757  30.544  26.968  25.294  0.2165  0.0557  0.1446
42841W        W85758  32.225  31.010  26.508 -0.1426  0.2160  0.1069
42842W        W85759  30.784  27.347  27.629  0.1615  0.2184 -0.4965
42843W        W85760  29.027  29.141  26.991 -0.0955  0.1866  0.0541
42844W        W85761  31.514  25.320  25.734  0.0433  0.3386  0.1208
42845W        W85762  30.533  27.795  27.519 -0.0655 -0.0062 -0.3192
42846W        W85763  30.321  26.418  25.213 -0.1054 -0.2891 -0.2422
42847W        W85764  29.956  27.205  20.899  0.1875  0.0382  0.0111
42848W        W85765  31.016  29.717  26.282  0.0827  0.2732 -0.1141
42849W        W85766  28.557  27.643  26.519 -0.0065  0.2766 -0.0510
42850W        W85767  29.250  28.144  24.399 -0.2075 -0.1144 -0.3597
42851W        W85768  30.414  28.538  26.609 -0.1725 -0.0183 -0.0812
42852W        W85769  30.351  25.112  25.594 -0.0851 -0.2346  0.0784
42853W        W85770  26.937  29.130  27.325  0.1217 -0.0952  0.0450
42854W        W85771  30.170  28.088  27.315  0.2513 -0.0939 -0.1328
42855W        W85772  29.103  26.748  23.355  0.0220 -0.0289  0.0311
42856W        W85773  31.561  29.548  24.641  0.1749  0.2276 -0.0672
42857W        W85774  32.035  26.660  25.768 -0.2879  0.0521  0.1472
42858W        W85775  30.193  28.633  25.970  0.0782 -0.0021  0.0056
42859W        W85776  32.073  25.578  27.692 -0.0391  0.4092  0.0537
42860W        W85777  34.091  29.216  25.579 -0.0317 -0.1833  0.3032
42861W        W85778  28.372  26.467  25.015 -0.1132 -0.2019  0.0599
42862W        W85779  32.281  25.573  25.532 -0.0739 -0.1161 -0.1144
42863W        W85780  31.989  29.696  27.593 -0.1502 -0.1133  0.1969
42864W        W85781  31.152  27.835  26.414  0.0436 -0.1316 -0.1922
42865W        W85782  29.139  26.594  28.081  0.1232 -0.2311 -0.1099
42866W        W85783  30.440  26.568  24.626  0.0553 -0.1253 -0.1603
42867W        W85784  33.225  28.454  25.110  0.2280 -0.1913 -0.0187
42868W        W85785  30.484  27.956  25.912  0.1361  0.1153  0.1378
42869W        W85786  29.061  27.293  26.724  0.0574  0.1685 -0.1270
42870W        W85787  32.716  29.692  26.893 -0.2349 -0.0537 -0.1880
42871W        W85788  30.324  25.384  27.586 -0.2926  0.2565 -0.2030
42872W        W85789  30.323  26.888  24.242 -0.1873  0.0880  0.1147
42873W        W85790  29.835  25.779  25.915  0.0337 -0.1635  0.0874
42874W        W85791  29.333  29.592  26.119  0.2537  0.3080  0.0344
42875W        W85792  33.472  24.903  27.282  0.1039  0.4102 -0.0467
42876W        W85793  30.179  24.764  25.277 -0.1026  0.2569 -0.0148
42877W        W85794  30.987  25.911  27.218  0.1360 -0.2477 -0.0627
42878W        W85795  32.041  28.267  27.030 -0.1629  0.2703 -0.2078
42879W        W85796  32.340  26.374  26.783 -0.2252  0.1363 -0.3385
42880W        W85797  31.450  25.976  25.697 -0.1729 -0.0086 -0.0974
42881W        W85798  31.867  28.180  25.726 -0.0282  0.1227  0.1741
42882W        W85799  29.182  24.524  27.361  0.1036  0.1014  0.3848
42883W        W85800  30.562  27.930  28.384  0.3383  0.0953  0.0609
42884W        W85801  28.269  29.601  26.980  0.1958  0.1676  0.0793
42885W        W85802  29.754  28.325  28.926  0.0671 -0.3734 -0.2332
42886W        W85803  29.431  27.736  26.032  0.2148 -0.1962  0.0313
42887W        W85804  30.086  26.908  28.610  0.1782 -0.0174 -0.1439
42888W        W85805  33.635  25.138  25.481  0.1077 -0.1750  0.0835
42889W        W85806  28.529  30.319  24.150  0.1560  0.3300 -0.1360
42890W        W85807  31.115  28.095  24.288 -0.3768 -0.3645  0.0416
42891W        W85808  30.902  25.270  25.796  0.1633 -0.0582  0.0347
42892W        W85809  30.808  28.225  26.302 -0.0470  0.0686 -0.1354
42893W        W85810  31.040  28.892  24.043  0.3194  0.0592 -0.2548
42894W        W85811  32.730  26.071  26.765 -0.0239 -0.2963 -0.0428
42895W        W85812  29.844  26.977  24.165  0.0562 -0.1806 -0.1137
42896W        W85813  30.414  25.841  25.019  0.1261  0.4594 -0.0286
42897W        W85814  29.377  29.595  25.439  0.1149 -0.0376 -0.0494
42898W        W85815  29.756  27.155  24.991 -0.1012  0.2560  0.1111
42899W        W85816  27.621  26.705  23.672  0.0535  0.1944  0.0346
42900W        W85817  33.960  25.508  23.226 -0.0245  0.0209  0.1986
42901W        W85818  32.355  26.106  23.085 -0.0514 -0.0745 -0.1695
42902W        W85819  28.481  27.501  24.461  0.1080  0.0146 -0.0716
42903W        W85820  31.161  24.793  26.671  0.0641 -0.2987 -0.0120
42904W        W85821  28.407  28.538  26.604 -0.1541 -0.2122 -0.1688
42905W        W85822  31.054  26.880  27.587  0.0161 -0.2616  0.0073
42906W        W85823  32.249  26.557  26.287  0.2791  0.2910 -0.1791
42907W        W85824  32.616  29.483  29.238  0.0381  0.3365 -0.2272
42908W        W85825  30.750  26.125  28.043  0.0754 -0.1528 -0.0414
42909W        W85826  29.142  26.800  25.651 -0.2167  0.3689 -0.2757
42910W        W85827  32.555  27.069  27.618  0.0796 -0.1513  0.0140
42911W        W85828  31.345  25.945  26.726  0.0710 -0.0523  0.1396
42912W        W85829  30.419  27.310  26.736 -0.0669 -0.0203  0.1563
42913W        W85830  29.980  27.758  25.909 -0.0384  0.0500 -0.0218
42914W        W85831  29.939  25.727  23.687 -0.2057 -0.0438 -0.1702
42915W        W85832  29.981  29.892  23.801 -0.1989  0.1520 -0.0199
42916W        W85833  29.279  25.406  27.056 -0.0567  0.1724 -0.2387
42917W        W85834  31.843  29.055  26.541 -0.0147 -0.0783  0.1302
42918W        W85835  32.053  25.015  27.712  0.1216 -0.1939  0.1497
42919W        W85836  29.880  26.460  24.863  0.0215 -0.2646  0.0207
42920W        W85837  29.501  27.100  25.794 -0.0500 -0.1402 -0.1672
42921W        W85838  31.622  27.228  27.034 -0.0550 -0.2094  0.3139
42922W        W85839  29.887  27.443  27.200  0.0147 -0.0391 -0.2178
42923W        W85840  30.111  29.911  26.806 -0.3296 -0.1277 -0.2087
42924W        W85841  29.949  25.440  27.883 -0.0402 -0.0422  0.0958
42925W        W85842  34.101  29.463  24.499  0.1151  0.1262 -0.2510
42926W        W85843  31.192  26.851  27.067  0.0076 -0.1061 -0.0242
42927W        W85844  30.394  27.376  25.581 -0.0159 -0.3181  0.1902
42928W        W85845  28.393  27.688  27.025  0.4361 -0.1763  0.0202
42929W        W85846  30.421  27.730  24.487 -0.0484  0.0625 -0.1218
42930W        W85847  29.850  26.648  27.908  0.0844 -0.0264 -0.0654
42931W        W85848  30.591  29.050  25.849  0.2088 -0.0222 -0.0327
42932W        W85849  33.606  27.359  23.116  0.0769  0.1780  0.2789
42933W        W85850  27.520  28.630  26.328 -0.1730 -0.2238  0.1000
42934W        W85851  32.257  24.246  24.545  0.5315 -0.0446  0.0173
42935W        W85852  29.495  26.381  24.582 -0.1514 -0.1432  0.0484
42936W        W85853  30.114  26.911  27.243  0.1436  0.1869  0.0474
42937W        W85854  30.433  26.493  27.110  0.2773 -0.0895  0.2476
42938W        W85855  32.564  27.440  25.401  0.3518 -0.0101 -0.2447
42939W        W85856  32.743  25.476  28.950 -0.2246  0.2682 -0.0843
42940W        W85857  28.680  25.261  28.222  0.4075  0.1104 -0.1396
42941W        W85858  32.581  28.603  24.986 -0.1492 -0.0176 -0.0663
42942W        W85859  27.901  26.511  26.457  0.0765  0.2536  0.4014
42943W        W85860  32.591  29.663  28.739  0.2178  0.2666 -0.1357
42944W        W85861  29.261  27.660  27.111  0.2726 -0.0629  0.0410
42945W        W85862  30.220  26.523  25.682  0.1748 -0.0763  0.0364
42946W        W85863  30.841  25.382  23.555  0.1220  0.1362 -0.3974
42947W        W85864  29.460  26.829  27.550  0.1043 -0.0236  0.3284
42948W        W85865  32.160  30.078  26.371  0.0491  0.1644 -0.2161
42949W        W85866  31.245  27.034  26.087 -0.1044  0.3786 -0.0059
42950W        W85867  32.305  26.940  26.768  0.0340 -0.0459 -0.0897
42951W        W85868  31.474  29.605  26.987 -0.1845 -0.1114 -0.5121
42952W        W85869  33.183  27.917  25.143 -0.0867 -0.0860  0.0151
42953W        W85870  30.111  27.411  24.295 -0.0535  0.1191 -0.1782
42954W        W85871  29.234  28.088  23.046  0.1338 -0.0370  0.2726
42955W        W85872  28.846  25.558  27.354 -0.2850 -0.1215  0.1154
42956W        W85873  33.971  28.334  24.265  0.2708 -0.1011 -0.1464
42957W        W85874  31.020  27.019  24.801 -0.6365 -0.3062  0.4205
42958W        W85875  30.743  26.500  27.661 -0.1505  0.2254 -0.1976
42959W        W85876  32.772  28.440  25.853  0.2749  0.1657  0.2098
42960W        W85877  27.975  25.931  28.413 -0.2074  0.0891  0.0247
42961W        W85878  28.729  25.410  29.119 -0.2614  0.1520  0.0465
42962W        W85879  31.740  28.560  28.762  0.0382 -0.2370  0.0132
42963W        W85880  33.376  25.934  25.389 -0.1026 -0.1599 -0.2804
42964W        W85881  32.814  26.872  28.787  0.3956  0.3389 -0.1619
42965W        W85882  31.295  26.778  26.587 -0.0952 -0.0022 -0.0409
42966W        W85883  32.155  27.764  25.368 -0.2072 -0.2975  0.2554
42967W        W85884  28.175  26.015  24.895 -0.1882 -0.3103  0.1189
42968W        W85885  31.581  26.420  28.286  0.3380 -0.1490  0.2879
42969W        W85886  29.444  26.230  25.044  0.0017  0.3390  0.0837
42970W        W85887  30.307  25.790  26.234  0.1734  0.0371  0.2543
42971W        W85888  34.562  28.973  23.921  0.2663 -0.0874  0.4092
42972W        W85889  31.974  27.346  26.155 -0.0572 -0.4483 -0.1283
42973W        W85890  30.857  28.691  26.104 -0.1015 -0.3896  0.0165
42974W        W85891  28.129  23.841  26.954  0.1164 -0.0546  0.0910
42975W        W85892  28.708  29.435  26.694 -0.2844  0.2249 -0.0120
42976W        W85893  30.166  27.038  22.568  0.1241  0.1403 -0.2284
42977W        W85894  31.439  28.231  25.328  0.0658 -0.2068  0.0150
42978W        W85895  32.169  25.169  27.244  0.1595 -0.1244 -0.0914
42979W        W85896  32.996  27.647  27.755  0.2012 -0.1949 -0.0854
42980W        W85897  30.558  27.268  24.080 -0.1856  0.0762 -0.3115
42981W        W85898  30.657  27.156  28.474  0.0465  0.0707 -0.1632
42982W        W85899  26.589  31.736  27.070 -0.1382  0.2023  0.0564
42983W        W85900  30.551  26.773  26.697 -0.0207 -0.4857  0.0299
42984W        W85901  29.254  28.747  25.421  0.0485  0.1456 -0.0920
42985W        W85902  29.284  28.623  26.015 -0.1260 -0.3047  0.2653
42986W        W85903  29.977  29.141  24.908  0.0392  0.3342 -0.4195
42987W        W85904  32.176  26.430  25.387 -0.2537 -0.2380 -0.2630
42988W        W85905  30.391  26.271  26.529  0.1412 -0.0111  0.0049
42989W        W85906  31.564  28.177  27.185 -0.0417 -0.0741 -0.2295
42990W        W85907  31.821  25.608  27.027 -0.0675  0.2343  0.3579
42991W        W85908  30.718  27.499  27.062 -0.1009  0.3752  0.5466
42992W        W85909  29.277  28.195  26.437 -0.0304 -0.0031 -0.0740
42993W        W85910  30.082  27.025  26.488  0.1749 -0.3124 -0.0207
42994W        W85911  32.564  28.077  24.447 -0.1843  0.1142 -0.4563
42995W        W85912  28.903  29.295  27.530 -0.2845  0.0303  0.1293
42996W        W85913  28.447  27.710  25.892  0.0694  0.0985  0.0108
42997W        W85914  30.779  26.968  27.984  0.2537 -0.3693 -0.2208
42998W        W85915  30.722  27.540  26.295  0.1797 -0.0978 -0.1156
42999W        W85916  30.779  26.697  23.933 -0.1143  0.2655  0.2350
43000W        W85917  30.558  28.495  23.081 -0.1072  0.2642 -0.0843
43001W        W85918  29.737  28.716  26.083 -0.0298  0.1330  0.0095
43002W        W85919  28.679  28.385  28.990 -0.0188 -0.0077  0.1098
43003W        W85920  29.446  29.270  24.055  0.1841  0.0433 -0.1456
43004W        W85921  32.271  28.446  25.287  0.4374  0.1175 -0.0740
43005W        W85922  30.118  29.177  25.806 -0.0340 -0.3834  0.0994
43006W        W85923  31.323  28.626  26.924 -0.3121 -0.2886 -0.2595
43007W        W85924  31.710  26.347  25.533  0.2341 -0.1175  0.0745
43008W        W85925  30.965  27.724  25.936 -0.1012 -0.1312  0.1488
43009W        W85926  30.794  28.015  23.192  0.0507 -0.1153  0.0326
43010W        W85927  32.170  27.130  25.570 -0.2825 -0.3941 -0.0386
43011W        W85928  30.080  28.911  23.704 -0.1873  0.2057 -0.1823
43012W        W85929  32.458  28.901  28.271 -0.2089  0.1307  0.1788
43013W        W85930  32.800  25.723  25.589  0.0712  0.1271  0.4616
43014W        W85931  31.709  26.756  25.341 -0.0323  0.0056 -0.4452
43015W        W85932  33.268  26.451  24.548 -0.3591  0.0268  0.3731
43016W        W85933  33.483  29.679  28.166 -0.1976  0.0994  0.2326
43017W        W85934  29.930  26.044  25.103 -0.0245  0.1860  0.0410
43018W        W85935  31.275  26.459  25.329  0.0863  0.1175 -0.0664
43019W        W85936  29.013  28.542  27.759  0.2709  0.1691 -0.1570
43020W        W85937  31.829  26.801  28.503  0.1746  0.1927  0.1647
43021W        W85938  28.545  29.806  29.321  0.3728  0.2148  0.2314
43022W        W85939  33.194  28.282  25.588 -0.3275 -0.1701 -0.0667
43023W        W85940  29.411  26.262  25.605  0.2898 -0.0809  0.2783
43024W        W85941  28.689  26.038  27.559 -0.2882 -0.1241  0.0510
43025W        W85942  34.198  24.330  26.804 -0.0249  0.0652 -0.1065
43026W        W85943  28.029  27.630  22.104  0.0954 -0.2460  0.0625
43027W        W85944  29.804  27.400  26.157  0.0636  0.3196 -0.2324
43028W        W85945  30.565  28.007  24.120  0.0831 -0.1272 -0.1450
43029W        W85946  30.822  28.994  25.310  0.0091  0.0396 -0.2186
43030W        W85947  32.748  28.702  26.850  0.0418 -0.4302  0.1513
43031W        W85948  28.780  26.628  24.436  0.1216 -0.0317 -0.1343
43032W        W85949  30.832  26.084  25.145  0.1565 -0.1306  0.0072
43033W        W85950  30.019  26.957  25.967  0.0209 -0.0833 -0.0409
43034W        W85951  32.186  23.774  26.934  0.0580 -0.0395 -0.0315
43035W        W85952  29.355  26.752  25.103 -0.4296 -0.1813  0.1144
43036W        W85953  31.586  27.807  24.958 -0.0283  0.1473 -0.1240
43037W        W85954  30.713  27.072  26.233  0.1621 -0.2074  0.1422
43038W        W85955  27.434  27.413  26.853  0.3521 -0.2088 -0.2303
43039W        W85956  28.784  27.481  24.038 -0.1756 -0.2064  0.3095
43040W        W85957  34.042  27.686  27.669  0.1261 -0.1016  0.1025
43041W        W85958  30.689  28.267  22.251  0.1288 -0.0716  0.1243
43042W        W85959  31.877  27.827  28.856 -0.1789  0.1602 -0.4234
43043W        W85960  29.523  22.875  26.343  0.2953 -0.1706 -0.0298
43044W        W85961  33.431  26.135  23.464 -0.0055 -0.0438  0.2428
43045W        W85962  28.936  26.358  25.395 -0.1447 -0.0253 -0.0681
43046W        W85963  28.022  26.423  25.759  0.0686  0.1531 -0.2372
43047W        W85964  33.208  25.360  27.240  0.2105 -0.1700 -0.3415
43048W        W85965  29.137  23.806  26.378 -0.0603  0.5608 -0.0312
43049W        W85966  33.528  29.205  24.043  0.0462 -0.0044 -0.2124
43050W        W85967  32.663  27.278  26.677 -0.1859  0.0209  0.0240
43051W        W85968  32.026  28.611  24.277 -0.0398 -0.2898 -0.0128
43052W        W85969  32.642  27.795  28.200  0.4486 -0.0318  0.3096
43053W        W85970  32.550  29.347  26.088  0.2877 -0.2993  0.1358
43054W        W85971  28.991  26.007  26.336  0.3083  0.2029 -0.2717
43055W        W85972  33.230  27.361  28.236  0.1362 -0.0452  0.1983
43056W        W85973  33.184  30.321  25.889 -0.4898  0.2288 -0.2823
43057W        W85974  30.563  25.972  27.000 -0.5600 -0.0210  0.2331
43058W        W85975  28.997  26.983  24.855  0.1167  0.3074 -0.1181
43059W        W85976  28.962  28.506  24.270  0.0982 -0.0549  0.0229
43060W        W85977  32.210  26.437  27.660 -0.0328  0.4304 -0.1054
43061W        W85978  32.354  25.702  26.880 -0.0028 -0.0325  0.1883
43062W        W85979  30.313  27.950  23.360  0.0024  0.0321  0.1289
43063W        W85980  34.113  25.001  26.088  0.0486  0.1632  0.0119
43064W        W85981  32.461  29.485  25.605 -0.0543  0.0472 -0.0075
43065W        W85982  30.331  29.444  28.575  0.3793 -0.0003  0.0448
43066W        W85983  29.325  27.481  23.301 -0.0641 -0.2489 -0.2707
43067W        W85984  31.846  28.679  27.093 -0.1573  0.1668  0.3096
43068W        W85985  30.489  27.615  25.044  0.3572 -0.3900 -0.1716
43069W        W85986  30.147  28.195  23.908 -0.0104 -0.1524 -0.1186
43070W        W85987  32.957  29.380  25.547 -0.1458 -0.3124 -0.2235
43071W        W85988  31.200  25.566  25.387 -0.1057  0.0091 -0.0230
43072W        W85989  32.475  28.290  27.306 -0.1290 -0.0633  0.0968
43073W        W85990  30.867  25.763  25.837 -0.0180  0.1664 -0.0441
43074W        W85991  33.750  27.283  24.790  0.0811  0.1942 -0.0478
43075W        W85992  33.796  27.382  26.026  0.2377 -0.0669  0.1034
43076W        W85993  31.064  28.403  27.365 -0.0273  0.0711 -0.1701
43077W        W85994  29.764  26.825  24.637  0.1406  0.0220  0.2967
43078W        W85995  29.736  28.847  24.053  0.0730  0.3139 -0.1007
43079W        W85996  28.974  27.872  26.251  0.2597  0.1692  0.0186
43080W        W85997  29.299  26.560  27.066  0.1085 -0.1602 -0.1174
43081W        W85998  29.752  25.445  26.463  0.1926 -0.1867  0.1126
43082W        W85999  27.184  27.121  25.571  0.0982  0.0524  0.1044
43083W        W86000  29.373  25.366  26.161 -0.0120  0.0735 -0.1814
43084W        W86001  33.336  28.115  24.666  0.0976  0.1770  0.2426
43085W        W86002  28.502  25.907  26.506  0.1352 -0.0118  0.1543
43086W        W86003  28.833  24.915  24.156  0.3231 -0.2062  0.1901
43087W        W86004  33.400  28.037  26.440  0.1704  0.3602  0.2201
43088W        W86005  33.042  29.122  26.047  0.0357 -0.3815 -0.1541
43089W        W86006  30.882  27.506  24.702 -0.3348  0.0744  0.1984
43090W        W86007  33.529  29.268  29.234 -0.2506  0.0014  0.0194
43091W        W86008  24.897  27.059  23.530  0.4979 -0.3698 -0.0095
43092W        W86009  31.724  27.462  27.954 -0.0854 -0.2883 -0.1090
43093W        W86010  30.306  24.824  27.884  0.2861  0.1721  0.0090
43094W        W86011  29.681  25.916  23.239  0.2935  0.0255  0.2606
43095W        W86012  28.801  26.496  26.388 -0.0677  0.3104  0.2642
43096W        W86013  31.454  29.124  28.025 -0.0939  0.2637  0.0031
43097W        W86014  32.237  30.354  25.363 -0.1642 -0.0452  0.3485
43098W        W86015  29.505  27.142  26.502  0.1660 -0.4500 -0.1065
43099W        W86016  31.870  26.870  26.197 -0.2495 -0.0371 -0.1847
43100W        W86017  29.572  25.813  25.428  0.0843  0.1502  0.0095
43101W        W86018  32.602  28.901  25.860  0.2990 -0.1191 -0.2776
43102W        W86019  30.104  28.123  26.720  0.0425 -0.0230  0.2218
43103W        W86020  32.135  28.357  24.758 -0.0141 -0.1093 -0.0345
43104W        W86021  33.799  24.260  27.979 -0.2780 -0.0335  0.0582
43105W        W86022  30.041  26.403  26.904 -0.0379 -0.1214 -0.2691
43106W        W86023  29.136  23.800  27.692  0.1890 -0.2174  0.1265
43107W        W86024  29.424  27.648  26.547  0.2505 -0.3081 -0.1314
43108W        W86025  33.902  26.500  26.134  0.0136 -0.0477  0.0557
43109W        W86026  28.835  26.497  25.914 -0.0000 -0.0907  0.1425
43110W        W86027  29.723  26.745  26.277  0.2160 -0.0267 -0.2910
43111W        W86028  30.631  28.737  21.724 -0.0711 -0.1224  0.1330
43112W        W86029  31.749  29.755  26.561  0.0522 -0.0448 -0.1456
43113W        W86030  29.036  24.423  24.941  0.1123  0.1509  0.2336
43114W        W86031  31.294  27.949  27.617  0.0675 -0.0873 -0.1279
43115W        W86032  30.073  28.113  24.444 -0.3792 -0.0825  0.0922
43116W        W86033  32.905  29.241  27.037  0.1254  0.0882 -0.3612
43117W        W86034  31.424  27.284  26.513  0.2542  0.3792  0.3659
43118W        W86035  31.645  29.067  25.582 -0.0924 -0.0625  0.0503
43119W        W86036  30.351  28.802  27.925  0.1178 -0.0182 -0.1687
43120W        W86037  34.555  29.697  28.763 -0.0023  0.2535  0.0126
43121W        W86038  32.356  28.753  27.132  0.1641 -0.1798  0.0634
43122W        W86039  31.868  26.406  27.181 -0.0445  0.0543 -0.0718
43123W        W86040  27.222  25.942  27.808 -0.1043  0.2547  0.1952
43124W        W86041  29.136  26.796  26.644 -0.1539  0.1965 -0.1023
43125W        W86042  29.314  24.683  26.340 -0.0115  0.1099  0.2151
43126W        W86043  31.417  25.930  25.230 -0.0284  0.4263 -0.0718
43127W        W86044  29.946  26.153  25.606  0.0782 -0.5708  0.1848
43128W        W86045  32.723  25.183  23.564  0.4620 -0.0424 -0.0068
43129W        W86046  30.596  29.056  26.375  0.2358  0.2027 -0.0993
43130W        W86047  30.917  27.134  26.676  0.1510  0.2892 -0.0114
43131W        W86048  29.765  28.711  28.612  0.1611  0.2929 -0.0387
43132W        W86049  30.437  26.917  27.626 -0.1110  0.4291  0.2447
43133W        W86050  31.401  27.693  28.715  0.0577 -0.0371 -0.1971
43134W        W86051  33.574  28.260  28.319  0.0136 -0.2081 -0.1722
43135W        W86052  28.140  26.387  26.929 -0.1276  0.0293 -0.1253
43136W        W86053  29.130  29.365  29.097  0.0668  0.0415 -0.0510
43137W        W86054  28.911  24.530   0.604 -0.2760 -0.2242  0.0248
43138W        W86055  31.215  29.179  29.973  0.3636  0.0550 -0.2379
43139W        W86056  33.294  31.145  31.374 -0.0017 -0.2080 -0.1048
43140W        W86057  33.190  26.209  29.661  0.1446 -0.1539  0.3263
43141W        W86058  29.900  24.452  31.252 -0.0594 -0.1724 -0.0115
43142W        W86059  32.353  27.964  30.245 -0.0497 -0.1255  0.2880
43143W        W86060  28.370  25.457  28.677  0.0356 -0.2579 -0.0175
43144W        W86061  29.188  27.237  28.936 -0.2676 -0.1518 -0.0229
43145W        W86062  31.155  26.685  30.237  0.3186 -0.0381 -0.1283
43146W        W86063  29.079  27.627  28.645  0.1377 -0.0187  0.2270
43147W        W86064  30.245  25.053  29.514  0.0615  0.0773 -0.0733
43148W        W86065  30.404  27.298  28.905  0.2035  0.0991 -0.3096
43149W        W86066  32.196  28.252  29.545  0.0134 -0.0117 -0.2906
43150W        W86067  29.690  24.943  29.540  0.0196 -0.1139 -0.2223
43151W        W86068  30.739  27.004  27.195 -0.0427 -0.2554 -0.2663
43152W        W86069  29.942  27.346  29.858  0.2458 -0.4312 -0.0084
43153W        W86070  27.333  28.322  27.347  0.1121  0.0464  0.1148
43154W        W86071  30.278  26.413  28.966  0.1970  0.3096  0.0306
43155W        W86072  29.023  27.394  30.795 -0.0311  0.1125 -0.3184
43156W        W86073  30.595  26.860  28.835 -0.1324  0.0343  0.1235
43157W        W86074  33.025  27.557  29.611  0.0280 -0.0300 -0.1147
43158W        W86075  30.610  28.895  29.163  0.0971  0.0703 -0.1538
43159W        W86076  33.475  30.127  27.797  0.0919 -0.0377 -0.1302
43160W        W86077  33.443  26.745  30.959 -0.0735  0.0331 -0.1413
43161W        W86078  30.704  27.374  29.363  0.1618 -0.0142  0.5003
43162W        W86079  28.096  28.067  28.349  0.3096 -0.1095  0.2858
43163W        W86080  31.039  28.324  28.445  0.0603 -0.2539  0.1302
43164W        W86081  34.394  30.038  27.568 -0.0871  0.2605 -0.2430
43165W        W86082  30.544  28.631  29.957 -0.1128  0.2584  0.1225
43166W        W86083  30.205  27.648  31.848  0.1620 -0.2523 -0.2655
43167W        W86084  26.632  28.059  26.015  0.0118  0.0498  0.0816
43168W        W86085  31.275  27.716   0.880 -0.0800  0.6597  0.0726
43169W        W86086  29.286  25.974  30.528  0.1115  0.2085 -0.3436
43170W        W86087  28.668  27.606  29.019 -0.0624 -0.0305  0.0172
43171W        W86088  31.266  27.135  29.960  0.0746  0.2197 -0.0161
43172W        W86089  30.271  27.355  27.854 -0.0896  0.3331 -0.2458
43173W        W86090  32.547  28.951  30.352 -0.2693  0.0260  0.0924
43174W        W86091  28.775  27.823   0.109  0.1363 -0.0239  0.1390
43175W        W86092  29.846  29.495  28.185 -0.0473 -0.2383  0.3843
43176W        W86093  32.749  26.500  27.598  0.2312 -0.3287  0.1475
43177W        W86094  32.019  28.922  27.495  0.4152  0.0538 -0.0396
43178W        W86095  32.496  28.452  30.367 -0.1273  0.0257 -0.0414
43179W        W86096  29.618  26.705  28.336 -0.1967  0.0469  0.0586
43180W        W86097  32.556  27.418  29.500 -0.0261  0.0753 -0.0396
43181W        W86098  30.451  25.785  27.880  0.2115 -0.0460 -0.1468
43182W        W86099  29.482  30.232  28.328 -0.1934 -0.1889 -0.0868
43183W        W86100  29.696  26.864  30.009 -0.1082  0.1622  0.2979
43184W        W86101  31.167  27.813  30.220  0.0875 -0.2909 -0.0731
43185W        W86102  30.478  27.794  29.204 -0.0969  0.0178 -0.3046
43186W        W86103  33.686  27.568  30.452 -0.1723 -0.1086 -0.0818
43187W        W86104  29.568  28.386  29.455  0.3287  0.1635 -0.1002
43188W        W86105  28.050  28.314  30.597  0.1080  0.0864 -0.0414
43189W        W86106  31.590  27.860  28.280  0.0770 -0.0536 -0.0582
43190W        W86107  34.660  27.969  30.596  0.0027  0.1350 -0.2006
43191W        W86108  31.872  26.679  27.921  0.1453  0.0222  0.1257
43192W        W86109  28.638  27.078  29.733  0.0193 -0.0925 -0.0588
43193W        W86110  27.873  29.015  30.991 -0.1256 -0.0536  0.1531
43194W        W86111  28.180  28.190  31.086 -0.1475 -0.0162  0.1440
43195W        W86112  27.875  24.776  26.772 -0.2555 -0.0545 -0.1520
43196W        W86113  32.387  28.649  31.277  0.0952  0.0234 -0.3006
43197W        W86114  27.726  26.039   0.249  0.0871  0.1521 -0.3309
43198W        W86115  29.589  27.348  30.343 -0.1173  0.0404 -0.1666
43199W        W86116  29.542  26.347  30.816 -0.0600  0.0208  0.2380
43200W        W86117  32.493  28.075  30.678 -0.1310  0.2165 -0.2076
43201W        W86118  30.681  28.568  28.700 -0.1646 -0.2436  0.1562
43202W        W86119  30.253  25.910  28.842  0.0333  0.0117 -0.2277
43203W        W86120  30.173  25.864  30.296 -0.2421 -0.1043 -0.2077
43204W        W86121  29.451  27.352  27.497 -0.2001  0.0061  0.1749
43205W        W86122  30.265  27.526  28.508  0.1942  0.1868 -0.0774
43206W        W86123  34.138  29.799  31.535  0.1130 -0.0877  0.0606
43207W        W86124  29.503  27.570  28.036  0.0448  0.2633 -0.0435
43208W        W86125  29.946  27.658  27.653 -0.4013 -0.2126 -0.1451
43209W        W86126  31.784  26.608  29.701  0.3162 -0.1447 -0.0983
43210W        W86127  31.069  28.712  30.850  0.1180 -0.0176 -0.0146
43211W        W86128  29.917  28.814  26.716 -0.3313  0.3630  0.1005
43212W        W86129  28.755  25.884  29.314 -0.0911 -0.0225  0.0540
43213W        W86130  28.936  26.245  28.452  0.0198  0.2382 -0.2295
43214W        W86131  25.768  26.106  30.028  0.1344  0.0601 -0.0529
43215W        W86132  29.824  27.789  29.580 -0.2751 -0.0649 -0.0494
43216W        W86133  33.812  24.877  29.837 -0.0303 -0.3887 -0.1370
43217W        W86134  30.727  25.554  29.474  0.1181  0.0766 -0.0277
43218W        W86135  33.798  27.067  29.528 -0.0296 -0.0806  0.0503
43219W        W86136  28.781  26.927  27.990 -0.1348  0.0488  0.2184
43220W        W86137  34.374  29.182  26.578 -0.2464 -0.0650  0.0573
43221W        W86138  32.376  27.072  30.388  0.2194  0.0170 -0.0597
43222W        W86139  32.351  27.453  28.573  0.0118 -0.0924  0.1281
43223W        W86140  27.941  25.408  29.879 -0.1712  0.0165 -0.1463
43224W        W86141  27.586  26.918  28.768 -0.1508 -0.1668  0.1184
43225W        W86142  29.343  26.628  29.715 -0.1372  0.1427 -0.3936
43226W        W86143  28.251  25.847  29.078  0.0310 -0.1892 -0.3024
43227W        W86144  34.430  26.621  30.869 -0.0792 -0.2261 -0.1045
43228W        W86145  27.520  26.387  26.010 -0.3627  0.0608  0.0635
43229W        W86146  30.492  27.220  29.779 -0.0111 -0.1092  0.0008
43230W        W86147  30.329  25.694  28.354 -0.2196 -0.4524 -0.2566
43231W        W86148  28.653  29.665  27.806  0.0531  0.3980 -0.1207
43232W        W86149  31.067  27.029  30.754  0.1932 -0.2253  0.0577
43233W        W86150  30.640  29.533  27.706 -0.0448 -0.2808  0.0212
43234W        W86151  30.931  29.162  31.423  0.3264  0.1258  0.0707
43235W        W86152  33.744  29.361  29.676 -0.1116 -0.1172  0.0940
43236W        W86153  30.627  24.579  30.262  0.1004 -0.2937  0.0751
43237W        W86154  28.288  25.390  29.381  0.2316 -0.4389  0.0330
43238W        W86155  29.696  28.731  30.221  0.2311  0.2978 -0.0500
43239W        W86156  33.055  30.114  29.964 -0.0453 -0.0719  0.0247
43240W        W86157  28.370  26.417  27.377  0.0414  0.1044 -0.1536
43241W        W86158  33.071  29.098  29.975  0.0014  0.0525 -0.2281
43242W        W86159  29.926  26.760  29.099  0.3193  0.4445  0.2675
43243W        W86160  29.047  27.380  28.141 -0.1332  0.3474  0.0302
43244W        W86161  30.677  26.037  29.108 -0.1570 -0.1983  0.1142
43245W        W86162  32.470  26.810  29.564 -0.0978  0.1252  0.1448
43246W        W86163  28.903  26.502  29.981 -0.1371  0.1285  0.1399
43247W        W86164  27.248  25.956  29.648 -0.0110 -0.1610 -0.0393
43248W        W86165  31.713  31.598  27.808 -0.4100 -0.1579  0.2397
43249W        W86166  29.791  28.183  28.469  0.2370 -0.0014  0.1155
43250W        W86167  27.729  26.402  28.414 -0.2322 -0.0294  0.2041
43251W        W86168  30.245  26.923  28.132  0.0146 -0.1227  0.0473
43252W        W86169  32.351  24.380  30.031 -0.0194 -0.0464 -0.0622
43253W        W86170  30.151  27.426  29.355  0.1384 -0.2597  0.0773
43254W        W86171  29.910  26.673  30.962  0.0128 -0.1530  0.0219
43255W        W86172  29.814  25.232  26.994  0.1952  0.1418  0.1733
43256W        W86173  28.966  29.835  30.061  0.1952 -0.1508  0.0394
43257W        W86174  31.977  26.941  28.988 -0.0888  0.0938 -0.0369
43258W        W86175  32.086  26.579  29.336 -0.0308 -0.2113 -0.0154
43259W        W86176  29.035  26.395  30.698  0.0862  0.1608  0.2419
43260W        W86177   0.234  28.512  29.237 -0.1481 -0.0357  0.1155
43261W        W86178  29.741  27.853  26.870  0.1707 -0.0448  0.1174
43262W        W86179  31.392  26.451  26.957 -0.1769  0.3569 -0.1017
43263W        W86180  28.899  26.917   0.439  0.1162  0.1427  0.0574
43264W        W86181  28.470  25.760  31.236  0.4132  0.1143 -0.1528
43265W        W86182  29.707  25.996  30.189  0.0316 -0.1957  0.0433
43266W        W86183  32.481  27.568  27.766 -0.1247 -0.2617 -0.0323
43267W        W86184  32.569  28.517  28.741  0.1828  0.1471 -0.0780
43268W        W86185  28.771  28.771  29.967 -0.0417 -0.3681  0.1440
43269W        W86186  31.525  28.330   1.164 -0.2814  0.4699  0.2275
43270W        W86187  33.345  27.554  26.582  0.2361 -0.1197 -0.1806
43271W        W86188  31.230  27.303  29.401  0.2187  0.1139  0.0480
43272W        W86189  31.402  25.664  27.644  0.2165  0.0498 -0.1987
43273W        W86190  27.343  25.393  28.392 -0.2432  0.1558 -0.0333
43274W        W86191  30.582  30.153  27.957  0.0425  0.0254 -0.2579
43275W        W86192  31.699  25.894  31.080  0.3941  0.1844 -0.3068
43276W        W86193  30.414  26.192  28.462 -0.2426  0.1715 -0.0691
43277W        W86194  30.363  24.400  31.075  0.0387 -0.0171 -0.0877
43278W        W86195  30.643  27.566  30.178  0.0334 -0.1315 -0.1985
43279W        W86196  29.846  25.880  28.518  0.0579  0.1289 -0.0745
43280W        W86197  29.011  25.171  31.505 -0.0577  0.0167  0.0559
43281W        W86198  29.516  27.287  28.528 -0.3212  0.1100 -0.1149
43282W        W86199  31.527  26.152  30.551  0.3149 -0.0138 -0.0065
43283W        W86200  29.954  26.397  28.465  0.2776 -0.0223  0.1674
43284W        W86201  29.226  27.019  29.454  0.4210  0.0035 -0.2103
43285W        W86202  32.462  27.107  29.064 -0.1295  0.1040  0.0945
43286W        W86203  31.126  27.248  28.386 -0.2863 -0.2270 -0.0735
43287W        W86204  29.912  24.683  30.227  0.1377  0.0293 -0.0280
43288W        W86205  30.212  25.297  26.310 -0.1000 -0.0685 -0.1716
43289W        W86206  31.620  27.114  29.570  0.3246  0.1350  0.2189
43290W        W86207  29.398  28.528  28.361 -0.1700 -0.0685 -0.0323
43291W        W86208  29.010  24.598  30.044 -0.1203  0.0488  0.2703
43292W        W86209  30.193  28.133  30.605  0.1924  0.4095 -0.0692
43293W        W86210  30.245  27.717  26.414 -0.2046 -0.1029  0.2417
43294W        W86211  33.121  27.703  29.030  0.1873 -0.1195 -0.0573
43295W        W86212  29.338  28.918  29.286  0.1665 -0.3383 -0.2477
43296W        W86213  32.736  27.623  30.004 -0.0618 -0.3425  0.2485
43297W        W86214  27.468  28.907  29.475  0.2768  0.2950 -0.1700
43298W        W86215  27.515  25.974  29.184 -0.1480  0.1309 -0.2024
43299W        W86216  27.691  26.894  28.258  0.4478 -0.2027  0.0523
43300W        W86217  30.402  26.942  29.302 -0.3790 -0.1098  0.0016
43301W        W86218  33.031  28.459  30.663  0.0672  0.1946  0.1525
43302W        W86219  29.876  25.360  30.999  0.1750  0.0056  0.0969
43303W        W86220  29.700  25.520  29.899  0.2136  0.0257  0.1636
43304W        W86221  28.395  28.437  29.410 -0.0287 -0.4182  0.2087
43305W        W86222  32.212  26.648   0.517 -0.0791  0.0976 -0.2527
43306W        W86223  30.595  25.278  28.536 -0.0903 -0.2944  0.0712
43307W        W86224  32.923  27.919  30.860  0.1289 -0.1962 -0.0606
43308W        W86225  29.513  29.913  30.311  0.0624  0.0203  0.3704
43309W        W86226  27.772  25.984  27.919  0.2310  0.2234  0.3601
43310W        W86227  29.972  27.892  28.905  0.0973  0.1172 -0.1261
43311W        W86228  29.725  26.321  29.802  0.2556 -0.0632 -0.0179
43312W        W86229  29.890  30.800  29.573 -0.1392  0.1614 -0.1248
43313W        W86230  30.694  27.941  30.471 -0.2492 -0.1475  0.0961
43314W        W86231  29.086  27.552  29.373  0.0888  0.1829  0.0354
43315W        W86232  30.533  28.405  27.468 -0.0717 -0.1089  0.0132
43316W        W86233  28.502  25.198  30.367 -0.1781  0.3135  0.2278
43317W        W86234  32.211  28.549  29.904  0.1322  0.1236 -0.0421
43318W        W86235  32.259  26.736  29.987  0.0227 -0.1824 -0.1880
43319W        W86236  28.456  27.208  28.247  0.1271 -0.1062  0.1501
43320W        W86237  29.551  26.212  28.225 -0.0547 -0.0063 -0.0620
43321W        W86238  33.087  28.064  29.775 -0.0544  0.0664 -0.2599
43322W        W86239  31.042  24.266  30.192  0.0353  0.2693 -0.2956
43323W        W86240  28.074  25.987  30.824 -0.0362  0.2059  0.0673
43324W        W86241  31.229  25.891  30.792 -0.0979 -0.3527 -0.0193
43325W        W86242  32.736  26.818  26.504 -0.0854  0.1344  0.2759
43326W        W86243  32.967  26.931  31.208 -0.0112  0.1566 -0.1099
43327W        W86244  31.360  26.662  27.900 -0.2084 -0.0033 -0.1182
43328W        W86245  28.552  27.139  30.775  0.1095  0.1830 -0.1030
43329W        W86246  30.390  28.144  28.774 -0.0306  0.0095  0.2186
43330W        W86247  31.668  26.184  29.415 -0.0695 -0.0269  0.0668
43331W        W86248  31.702  29.122  29.012  0.2081 -0.3431  0.3340
43332W        W86249  27.933  29.198  27.093  0.0764  0.0190 -0.0491
43333W        W86250  29.091  27.618  31.692 -0.0540  0.1987  0.1725
43334W        W86251  31.247  26.513  29.655  0.1291 -0.3238 -0.1414
43335W        W86252  30.826  25.893  28.537 -0.0614  0.1605 -0.1211
43336W        W86253  30.962  26.752  29.195  0.2618  0.1172  0.3189
43337W        W86254  32.506  24.153  29.586 -0.0548  0.0910 -0.1001
43338W        W86255  31.735  28.111  29.261  0.2005 -0.2059  0.2847
43339W        W86256  31.930  25.664  30.145  0.0709  0.0845  0.0151
43340W        W86257  28.519  26.870  27.399 -0.1240  0.0607 -0.1198
43341W        W86258  33.935  29.981  29.665  0.2189 -0.0198 -0.3436
43342W        W86259  28.504  26.696   0.135  0.3132  0.2164 -0.0003
43343W        W86260  33.955  28.850  31.785  0.4055  0.0453 -0.0422
43344W        W86261  29.607  29.754  29.351  0.1059 -0.0712 -0.0835
43345W        W86262  28.521  26.291  30.912  0.1298 -0.1577  0.0217
43346W        W86263  28.163  24.607  28.182 -0.1835  0.4833 -0.1326
43347W        W86264  29.404  26.443  30.220  0.0421  0.3808 -0.0626
43348W        W86265  33.412  28.748  30.015 -0.2051  0.1187  0.0147
43349W        W86266  31.190  28.733  28.168  0.0033 -0.1377 -0.0406
43350W        W86267  32.514  28.929  29.203  0.0140  0.1707  0.0631
43351W        W86268  29.381  27.460  29.808 -0.0324  0.1494 -0.1581
43352W        W86269  33.768  28.739  28.197 -0.3407 -0.0091 -0.1093
43353W        W86270  29.386  29.441  28.330 -0.0677 -0.3057  0.1167
43354W        W86271  30.073  28.119  29.329  0.1332 -0.0792 -0.0409
43355W        W86272  32.254  24.952  30.994 -0.1746 -0.0799  0.1329
43356W        W86273  30.563  29.036  28.684 -0.1598 -0.0982  0.0662
43357W        W86274  30.793  27.575  30.762  0.1044 -0.1137  0.0833
43358W        W86275  30.651  25.930  30.031  0.0381 -0.1095  0.0254
43359W        W86276  31.373  27.302  30.401  0.1595 -0.0012 -0.1848
43360W        W86277  28.937  26.907  30.963 -0.0882  0.2263  0.1600
43361W        W86278  28.044  24.378  30.776 -0.0363  0.0483  0.0281
43362W        W86279  33.953  29.919  30.387  0.1053  0.2859 -0.0965
43363W        W86280  31.098  24.660  29.107  0.2269  0.2325  0.3302
43364W        W86281  33.121  25.843  29.001  0.0532 -0.0691 -0.0157
43365W        W86282  32.419  27.824  29.734 -0.0975  0.0741  0.0761
43366W        W86283  30.448  26.012  29.529 -0.1258 -0.1508  0.3959
43367W        W86284  32.117  26.422  28.601 -0.1915 -0.0886  0.0998
43368W        W86285  30.623  25.879  30.707  0.0480 -0.0436 -0.0962
43369W        W86286  28.014  26.040  26.337  0.3043  0.0363  0.1242
43370W        W86287  30.851  25.602  30.345  0.0134  0.3436 -0.0692
43371W        W86288  31.018  28.224  26.769  0.1429 -0.2799  0.0949
43372W        W86289  30.706  27.382  31.249  0.3572  0.0997  0.0814
43373W        W86290  33.269  26.776  28.869  0.0053 -0.3285 -0.3448
43374W        W86291  28.944  25.001  31.008  0.0871  0.1160 -0.0410
43375W        W86292  29.971  27.996  31.529  0.1423 -0.0149  0.0614
43376W        W86293  29.620  26.304  26.615  0.3209 -0.2599 -0.0565
43377W        W86294  30.885  28.823  29.590 -0.1195  0.0709 -0.0804
43378W        W86295  31.111  27.726  29.163 -0.0446 -0.3500  0.2492
43379W        W86296  30.704  27.970   0.059 -0.3480 -0.0042 -0.1652
43380W        W86297  29.760  24.160  28.436 -0.1236  0.1378 -0.1804
43381W        W86298  34.548  28.940  29.092 -0.0880  0.0272  0.1074
43382W        W86299  29.285  27.912  27.705  0.1581  0.0504 -0.2029
43383W        W86300  31.535  27.151  28.722 -0.0979  0.0472  0.1896
43384W        W86301  27.988  28.592  29.655 -0.1853 -0.1298 -0.1815
43385W        W86302  28.171  27.771  29.607  0.1002 -0.1808 -0.1888
43386W        W86303  29.402  26.730  29.106 -0.1322 -0.2099  0.0298
43387W        W86304  29.807  23.384  30.802 -0.2621 -0.1044  0.2458
43388W        W86305  32.727  26.659  30.322  0.1016  0.2444  0.0744
43389W        W86306  29.910  26.486  30.242  0.0165 -0.1225 -0.2104
43390W        W86307   0.817  27.631  31.125 -0.3453  0.0569 -0.1958
43391W        W86308  31.809  27.626  31.283  0.0202  0.0987  0.4014
43392W        W86309  29.435  29.017  28.802 -0.0947  0.2012  0.0222
43393W        W86310  30.279  27.543  30.520 -0.3738  0.1819 -0.1503
43394W        W86311  33.670  26.840  28.553  0.1719 -0.3930 -0.3156
43395W        W86312  28.807  27.862  31.075 -0.3569  0.0737  0.1079
43396W        W86313  29.099  26.962  30.491 -0.0246 -0.1175 -0.2580
43397W        W86314  30.800  24.678  30.772  0.0807 -0.1944  0.1528
43398W        W86315  31.535  27.704  29.472  0.3670  0.0266 -0.0206
43399W        W86316  30.710  25.470  27.195  0.0052  0.2667  0.3158
43400W        W86317  30.567  28.334  29.186  0.0026 -0.1663  0.1278
43401W        W86318  28.761  30.867  31.623  0.2380 -0.5265  0.0827
43402W        W86319  26.989  26.549  28.420  0.1484 -0.2229 -0.1897
43403W        W86320  30.723  28.613  28.188  0.0880  0.1143  0.0504
43404W        W86321  29.399  27.054  27.971 -0.1662 -0.1728 -0.1982
43405W        W86322  31.873  29.356  29.626  0.0290 -0.1266 -0.1630
43406W        W86323  31.523  28.565  29.215  0.3846  0.2069 -0.2598
43407W        W86324  31.730  25.056  27.026  0.0160  0.2762  0.0076
43408W        W86325  29.835  29.897  28.557 -0.4415  0.1648  0.1791
43409W        W86326  30.262  28.652  27.104 -0.1497 -0.2095 -0.1236
43410W        W86327  31.241  28.771  28.699 -0.1473  0.0405 -0.3794
43411W        W86328  28.423  27.299  27.699 -0.1345  0.2304  0.3792
43412W        W86329  31.650  26.733  30.146 -0.1240  0.0549 -0.3492
43413W        W86330  32.086  26.126  29.056  0.0927  0.2361 -0.2422
43414W        W86331  34.392  30.199  29.519 -0.0281  0.2678 -0.0636
43415W        W86332  32.113  28.577  28.425  0.1282  0.1082  0.1273
43416W        W86333  30.655  28.191  31.534 -0.0375  0.0609 -0.2603
43417W        W86334  30.210  27.511  31.010  0.2896 -0.0650  0.2718
43418W        W86335  31.396  27.518  26.041  0.0068  0.1439  0.4281
43419W        W86336  28.238  28.220  29.837  0.0712 -0.1624 -0.1012
43420W        W86337  32.601  27.222  30.820 -0.2383  0.0824  0.4377
43421W        W86338  30.618  28.062  30.006  0.1745 -0.2427  0.2214
43422W        W86339  32.968  28.936  29.423  0.1401 -0.1923  0.0409
43423W        W86340  28.868  26.535  27.581  0.1301 -0.3315 -0.0429
43424W        W86341  28.885  26.688  28.908 -0.0209 -0.2616 -0.1315
43425W        W86342  31.555  25.779  29.748 -0.0620  0.0607  0.1559
43426W        W86343  33.211  29.471  28.565 -0.2691  0.0172 -0.2815
43427W        W86344  27.360  27.242  31.339 -0.1553  0.0341  0.0057
43428W        W86345  31.247  27.414  27.812  0.1039 -0.2448  0.0100
43429W        W86346  29.941  29.108  30.460  0.0941 -0.0098  0.0019
43430W        W86347  30.399  29.141  29.478  0.1241  0.2986 -0.1515
43431W        W86348  27.961  27.185  24.334  0.1817  0.0754  0.1718
43432W        W86349  33.828  29.212  28.043 -0.1460  0.1141  0.2714
43433W        W86350  30.413  27.768  31.409  0.0133  0.0192 -0.3806
43434W        W86351  32.664  25.256  30.271 -0.0796 -0.1975 -0.1271
43435W        W86352  28.337  27.159  28.869 -0.0148  0.1085  0.0265
43436W        W86353  32.153  25.769  31.395  0.1122 -0.1894 -0.1138
43437W        W86354  32.344  27.652  30.967 -0.1121  0.1056 -0.0050
43438W        W86355  28.510  26.482   0.567  0.0585  0.1398  0.0420
43439W        W86356  33.206  28.450  29.176  0.1794  0.0573 -0.0152
43440W        W86357  34.199  28.636   0.203 -0.0730  0.0446 -0.0600
43441W        W86358  30.978  26.419  27.243  0.0678 -0.1162 -0.2619
43442W        W86359  32.158  29.384  29.090  0.2860 -0.0528 -0.0428
43443W        W86360  29.133  26.902  28.502  0.5272 -0.0170  0.0485
43444W        W86361  28.918  25.769  26.878  0.2004 -0.0273 -0.3109
43445W        W86362  28.850  25.176  27.758  0.2746 -0.3074  0.0882
43446W        W86363  29.156  26.969  29.991 -0.1943  0.0397  0.1611
43447W        W86364  32.641  28.285  29.869 -0.2041  0.0818  0.2528
43448W        W86365  28.500  24.681  28.502  0.0633  0.0557  0.1479
43449W        W86366  32.149  28.897  28.834 -0.0878  0.1914  0.1436
43450W        W86367  31.654  27.411  29.138  0.2584  0.0371 -0.3176
43451W        W86368  29.905  27.080  27.640 -0.2516 -0.0397 -0.2014
43452W        W86369  31.563  27.097  30.842 -0.3512 -0.1028  0.1174
43453W        W86370  33.231  28.859  27.109  0.0430 -0.2136  0.0719
43454W        W86371  30.061  26.294  31.261  0.2255 -0.0380  0.1451
43455W        W86372  34.478  31.467  30.850  0.0068  0.2749 -0.1937
43456W        W86373  34.519  30.550  30.894  0.3917 -0.2756 -0.0675
43457W        W86374  29.791  24.732  26.616  0.3222 -0.0534 -0.1710
43458W        W86375  29.591  27.740  28.536 -0.2803  0.0075  0.2917
43459W        W86376  31.934  29.355  27.967 -0.0696 -0.3226 -0.0860
43460W        W86377  32.657  27.615  29.026  0.2440  0.1242  0.0957
43461W        W86378  30.703  27.122  31.640  0.1866  0.0699 -0.0767
43462W        W86379  32.402  30.126  26.823  0.2060 -0.1722 -0.2538
43463W        W86380  31.177  25.742  29.265  0.0681 -0.0687  0.1231
43464W        W86381  32.916  28.100  30.337 -0.1495  0.0416  0.1229
43465W        W86382  30.878  28.708  31.597  0.1057 -0.3849  0.1610
43466W        W86383  29.662  27.925  25.565 -0.0015  0.0699 -0.1605
43467W        W86384  33.896  28.424  30.135  0.3380  0.1654  0.2288
43468W        W86385  28.828  26.677  29.527 -0.0552  0.0450 -0.0130
43469W        W86386  31.236  29.605  29.764 -0.0534  0.3811  0.1346
43470W        W86387   0.052  30.577  28.494 -0.0794  0.1855  0.0339
43471W        W86388  30.869  26.864  29.762  0.2363 -0.0301 -0.1183
43472W        W86389  34.202  30.118  31.161  0.0591 -0.1053 -0.1238
43473W        W86390  27.624  26.432  29.624  0.0173  0.0785 -0.0470
43474W        W86391  33.546  25.415  28.682  0.0008 -0.2186 -0.1228
43475W        W86392  30.745  25.087  30.486  0.3504 -0.1459  0.4135
43476W        W86393  29.747  26.890  29.531 -0.2263  0.4353 -0.2066
43477W        W86394  28.147  26.656  28.778 -0.1044  0.2034  0.2493
43478W        W86395  28.385  28.056  28.800 -0.0664  0.3141  0.1215
43479W        W86396  29.803  27.229  28.894 -0.1812 -0.0663  0.1551
43480W        W86397  29.208  27.521   1.101 -0.0497  0.0748 -0.1345
43481W        W86398  30.498  26.708  30.146  0.2150  0.0214 -0.0059
43482W        W86399  28.848  26.076  31.522  0.0769 -0.1359  0.2898
43483W        W86400  28.659  27.526  29.519 -0.0775  0.2068  0.3371
43484W        W86401  32.633  28.797  29.764  0.0572 -0.0896 -0.0906
43485W        W86402  29.586  25.206  29.039 -0.2140 -0.2265 -0.0137
43486W        W86403  29.245  25.514  29.692  0.0763  0.3707 -0.0802
43487W        W86404  31.840  27.466  28.515  0.0182 -0.0025  0.1694
43488W        W86405  33.963  30.055  28.735  0.1448 -0.0251 -0.1524
43489W        W86406  29.413  25.108  26.571 -0.1749 -0.1995 -0.0470
43490W        W86407  33.849  28.658  30.811  0.3637 -0.2188  0.1955
43491W        W86408  27.723  28.802  27.238  0.2400  0.3182  0.0523
43492W        W86409  30.951  26.113  29.600  0.0703  0.2458  0.1859
43493W        W86410  28.901  23.680  29.605 -0.2959  0.3012 -0.1805
43494W        W86411  28.328  26.592  26.101 -0.4346  0.1138 -0.0524
43495W        W86412  31.291  26.600  30.683 -0.1082  0.0934  0.2763
43496W        W86413  29.762  28.418  26.530  0.0786  0.0440 -0.0931
43497W        W86414  32.921  27.860  28.587 -0.1140  0.1650 -0.1658
43498W        W86415  31.271  28.109  29.379 -0.0672  0.1378  0.1638
43499W        W86416  32.110  27.532  30.276 -0.1738  0.2214 -0.0757
43500W        W86417  28.717  25.553  29.710  0.4216  0.0136  0.2424
43501W        W86418  32.493  27.320  27.168 -0.2174  0.0720 -0.0087
43502W        W86419  30.700  28.486  31.168 -0.0260 -0.1734  0.0022
43503W        W86420  33.170  29.363  29.531  0.2075  0.0648  0.0109
43504W        W86421  33.229  24.464  30.247  0.4446  0.1953 -0.3525
43505W        W86422  31.483  26.906  29.133 -0.1091  0.1498  0.0286
43506W        W86423  30.061  25.909  29.823  0.2878  0.1371 -0.2153
43507W        W86424  27.119  27.074  31.803  0.0882  0.2771  0.3659
43508W        W86425  32.269  27.740  31.504 -0.2596  0.0571 -0.1776
43509W        W86426  28.688  25.817  30.826 -0.0110  0.1444  0.0803
43510W        W86427  32.350  25.991  30.964 -0.0130  0.1230 -0.2580
43511W        W86428  31.041  27.123  28.855 -0.0278 -0.0348 -0.3151
43512W        W86429  27.954  26.297  31.292  0.0333 -0.2415  0.2807
43513W        W86430  30.029  25.897  27.604 -0.1267 -0.0837  0.3410
43514W        W86431  29.360  27.975  29.614  0.0858 -0.0823  0.2874
43515W        W86432  32.135  28.313  28.928 -0.1330 -0.0227 -0.1203
43516W        W86433  30.288  27.737  29.713  0.1127 -0.1152 -0.0768
43517W        W86434  31.530  27.043  28.161  0.5928 -0.1084 -0.2765
43518W        W86435  32.804  28.160  28.959 -0.1514 -0.0255 -0.1423
43519W        W86436  28.921  26.572  31.327 -0.1120  0.1335  0.0222
43520W        W86437  32.169  28.563  31.682  0.2390 -0.0681  0.4508
43521W        W86438  29.398  27.944  30.883  0.1735 -0.2533  0.1487
43522W        W86439  31.089  27.809  28.227 -0.2923 -0.0813 -0.2375
43523W        W86440  29.812  25.659  30.541 -0.3220 -0.2673 -0.1219
43524W        W86441  31.794  27.919  27.762  0.1085  0.2170  0.0050
43525W        W86442  30.641  26.492  29.493  0.2589  0.1552  0.0307
43526W        W86443  31.990  27.585  29.521 -0.2792 -0.1707 -0.0438
43527W        W86444  30.696  25.426  26.210 -0.2775 -0.0168 -0.3491
43528W        W86445  31.680  25.789  29.168  0.0164  0.0082  0.0334
43529W        W86446  30.336  28.634  30.900 -0.1287 -0.0331  0.3259
43530W        W86447  32.987  27.377  31.586 -0.2276  0.2003  0.0999
43531W        W86448  30.367  24.885  30.981  0.2161  0.3304 -0.0940
43532W        W86449  31.956  27.827   0.366  0.2594 -0.1780  0.1183
43533W        W86450  29.373  27.943  31.458 -0.0071  0.1934 -0.1642
43534W        W86451  29.787  28.595   0.080 -0.1193 -0.0318  0.0195
43535W        W86452  29.497  30.246  31.199  0.3983  0.2633  0.1179
43536W        W86453  30.675  30.722  30.797  0.1175  0.3855 -0.0199
43537W        W86454  33.192  26.628  30.274 -0.1665  0.2080  0.0246
43538W        W86455  32.768  23.625  31.644  0.0467 -0.1563 -0.4866
43539W        W86456  31.485  27.344  31.573 -0.0591 -0.0178 -0.1277
43540W        W86457  33.470  29.349  31.832  0.1072  0.0271  0.2946
43541W        W86458  31.947  29.297  30.461 -0.1700  0.2419 -0.2318
43542W        W86459  28.582  22.834  29.384  0.0069 -0.5928  0.0809
43543W        W86460  30.780  27.064  30.281  0.2567 -0.0390 -0.2191
43544W        W86461  30.741  25.854  31.284 -0.0971 -0.1640  0.0706
43545W        W86462  32.430  26.866  31.256  0.1168  0.2640 -0.1250
43546W        W86463  29.406  29.916  29.822  0.0600 -0.3118  0.0567
43547W        W86464  28.534  28.407  31.370  0.2646  0.1884  0.1426
43548W        W86465  31.340  27.706  30.706 -0.1428  0.0926  0.1982
43549W        W86466  29.267  26.246  31.931  0.1723  0.2138  0.1309
43550W        W86467  27.649  22.840   0.347  0.2231  0.1137 -0.0795
43551W        W86468  31.083  25.055  31.053  0.1033 -0.1260  0.0551
43552W        W86469  28.741  27.375   0.315 -0.0430 -0.1189  0.1324
43553W        W86470  30.590  25.569  31.650 -0.2233  0.1406 -0.0712
43554W        W86471  30.181  28.370  31.275  0.0316 -0.0784 -0.0672
43555W        W86472  30.758  26.626  30.606 -0.0443  0.0835 -0.2391
43556W        W86473  29.349  25.538   1.509  0.0633  0.0583 -0.3211
43557W        W86474  30.321  28.339   0.283  0.1259  0.0501  0.1359
43558W        W86475  28.640  30.003   0.784 -0.1539 -0.1558 -0.3262
43559W        W86476  30.605  24.118   0.115 -0.0323 -0.0515  0.3266
43560W        W86477  29.380  26.821  31.155 -0.0374  0.0806  0.1506
43561W        W86478  31.229  28.987  29.170 -0.0384  0.0115  0.1283
43562W        W86479  29.120  26.028  31.076 -0.3473  0.0050 -0.2753
43563W        W86480  32.131  27.000  30.898 -0.1115  0.0256 -0.1052
43564W        W86481  30.391  24.930  29.997 -0.2243 -0.0199 -0.0342
43565W        W86482  29.098  25.251   0.121 -0.0801  0.0995 -0.0018
43566W        W86483  29.430  28.075  31.904  0.0908 -0.0642  0.1753
43567W        W86484  31.589  28.516  31.072 -0.2696 -0.0490 -0.3267
43568W        W86485  32.533  27.330  31.323 -0.2137  0.2240  0.2916
43569W        W86486  31.006  27.676   0.472 -0.0443 -0.3400  0.2712
43570W        W86487  29.427  28.939  31.243  0.0046 -0.0979  0.2797
43571W        W86488  30.139  27.145  31.607 -0.3157 -0.1542 -0.1684
43572W        W86489  31.457  26.336  31.056  0.1051 -0.0214 -0.1097
43573W        W86490  30.818  25.746   1.772 -0.1341  0.0864 -0.1466
43574W        W86491  30.797  26.922   0.391 -0.2501 -0.0847  0.0264
43575W        W86492  31.292  24.583  31.234 -0.0100 -0.0340 -0.0054
43576W        W86493  29.825  29.613  30.577 -0.0860 -0.1904 -0.2060
43577W        W86494  31.124  24.913  31.651 -0.2027 -0.0310  0.4295
43578W        W86495  30.857  26.576  31.776  0.2073  0.0704  0.2238
43579W        W86496  31.689  27.818  30.324  0.1033  0.0842 -0.3580
43580W        W86497  28.651  29.340  29.085  0.0112 -0.2100 -0.0976
43581W        W86498  31.166  28.191   0.290  0.1798  0.1729  0.0695
43582W        W86499  31.078  26.041   0.294 -0.1056  0.1915 -0.1492
43583W        W86500  31.021  24.830  30.104  0.1905 -0.0320 -0.0688
43584W        W86501  29.368  28.470  30.521  0.1531 -0.0954 -0.0844
43585W        W86502  29.414  26.359  31.378  0.0917  0.2179 -0.0958
43586W        W86503  31.188  26.445  31.476 -0.0117 -0.4461 -0.0621
43587W        W86504  33.449  28.354  31.502 -0.0858  0.0355  0.0282
43588W        W86505  29.966  29.281  31.454  0.0319 -0.1771 -0.0925
43589W        W86506  31.018  27.889  31.227  0.1769 -0.2498  0.2864
43590W        W86507  28.359  28.971   0.242 -0.1033 -0.0505  0.0481
43591W        W86508  29.756  24.914  31.244  0.0009  0.0115  0.0827
43592W        W86509  29.368  27.385  31.249  0.0676  0.2810  0.0980
43593W        W86510  29.605  27.241   0.373  0.1596 -0.0016  0.0411
43594W        W86511  28.943  24.022  29.947  0.1134 -0.0830 -0.1159
43595W        W86512  31.237  27.447  31.122  0.0439 -0.0186  0.1671
43596W        W86513  33.355  28.000  30.597 -0.1982  0.1852  0.1138
43597W        W86514  32.749  26.528  31.570 -0.1993 -0.1869  0.0692
43598W        W86515  30.872  32.262  18.580  0.0446 -0.1858 -0.1505
43599W        W86516  29.341  29.436  18.615  0.0563 -0.1935  0.1225
43600W        W86517  33.527  31.083  17.218 -0.0477 -0.0001  0.1607
43601W        W86518  33.182  30.036  16.720  0.2883  0.0191 -0.1263
43602W        W86519  29.645  29.103  20.311 -0.1402  0.1717  0.0677
43603W        W86520  33.580  31.916  19.273  0.3212 -0.2045  0.1265
43604W        W86521  30.549  29.966  18.551 -0.1376  0.0579 -0.0479
43605W        W86522  32.069  32.941  19.970 -0.0426  0.2150  0.0185
43606W        W86523  34.066  32.209  17.542 -0.2174 -0.1640  0.0123
43607W        W86524  34.228  29.751  16.653  0.0958  0.0483  0.1755
43608W        W86525  33.186  28.656  19.364  0.2087 -0.0233  0.0060
43609W        W86526  30.895  30.576  19.951  0.0768 -0.0674 -0.1268
43610W        W86527  32.336  30.572  18.552 -0.2057  0.0860 -0.1385
43611W        W86528  29.400  29.755  19.000 -0.3466  0.1784 -0.1501
43612W        W86529  33.317  29.837  18.973 -0.1516 -0.1276  0.1491
43613W        W86530  30.417  30.376  18.818  0.0060  0.0846 -0.0245
43614W        W86531  31.589  30.281  19.540  0.1891  0.1334  0.1352
43615W        W86532  29.938  31.530  18.317  0.3034 -0.0905  0.0614
43616W        W86533  30.818  32.858  17.579 -0.1383  0.1715 -0.0754
43617W        W86534  33.454  31.109  21.074 -0.2574 -0.0211 -0.0595
43618W        W86535   0.096  30.559  19.862  0.2527 -0.0160  0.0321
43619W        W86536  32.263  31.498  18.070 -0.0346  0.1653  0.0648
43620W        W86537  32.472  29.752  18.670 -0.1398  0.0524  0.1323
43621W        W86538  30.004  30.569  20.207 -0.0320  0.2254 -0.2453
43622W        W86539  30.354  32.547  20.285  0.3734 -0.2094 -0.2889
43623W        W86540  32.293  29.327  17.753  0.1832  0.0685 -0.2871
43624W        W86541  33.371  31.119  17.645  0.2511 -0.0292  0.2812
43625W        W86542  31.414  33.409  17.862  0.0394  0.2599 -0.3677
43626W        W86543  31.039  31.034  19.737  0.1724  0.1751  0.3511
43627W        W86544  33.237  31.776  18.181  0.0683  0.1045 -0.1215
43628W        W86545  31.028  29.989  17.537  0.3693 -0.0201  0.1844
43629W        W86546  29.968  33.160  19.124  0.1291 -0.1079 -0.0828
43630W        W86547  31.408  30.649  19.108  0.2989 -0.1176  0.0835
43631W        W86548  33.612  31.794  18.737 -0.2319 -0.0020 -0.1934
43632W        W86549  30.895  33.678  19.744  0.0217  0.0603  0.1876
43633W        W86550  31.564  31.376  19.750  0.0863  0.0372  0.1907
43634W        W86551  31.489  31.695  18.681 -0.2130 -0.1817  0.1280
43635W        W86552  29.917  32.229  20.103  0.0204  0.1698  0.1832
43636W        W86553  29.402  31.790  21.067  0.1373  0.0685 -0.0845
43637W        W86554  30.752  29.553  18.737  0.3872  0.1693 -0.0592
43638W        W86555  30.129  29.441  16.970 -0.2283 -0.0983  0.0564
43639W        W86556  30.387  32.477  16.906 -0.2323  0.2149 -0.2203
43640W        W86557  29.921  31.019  20.016  0.0270  0.0105  0.0822
43641W        W86558  31.028  31.667  20.858  0.1533  0.1390 -0.1573
43642W        W86559  31.665  33.418  19.204  0.3611  0.2512 -0.3075
43643W        W86560  34.167  32.576  18.768 -0.1753 -0.1997 -0.1387
43644W        W86561  30.160  31.818  17.456 -0.2377  0.3754  0.0980
43645W        W86562  33.016  31.099  16.955  0.0580  0.0897  0.2399
43646W        W86563  32.606  31.456  16.849  0.0148  0.0508 -0.1451
43647W        W86564  33.307  30.978  18.840  0.0740 -0.3072 -0.2288
43648W        W86565  30.152  30.601  17.929  0.2452  0.0692  0.0136
43649W        W86566  30.856  32.886  20.200 -0.2180  0.0316 -0.0401
43650W        W86567  30.006  31.199  20.574  0.2036 -0.0554  0.0290
43651W        W86568  33.330  32.041  21.111  0.0696  0.1482  0.1670
43652W        W86569  30.968  31.107  18.564 -0.2525  0.0634  0.1101
43653W        W86570  32.781  30.024  19.609 -0.2833 -0.0748 -0.5211
43654W        W86571  32.313  31.710  19.892  0.1305  0.1428 -0.0247
43655W        W86572  29.314  30.301  20.550 -0.0861  0.0893 -0.2910
43656W        W86573  32.133  30.707  16.672  0.0779 -0.0439 -0.0927
43657W        W86574  33.565  33.081  16.524  0.3044 -0.1052 -0.4449
43658W        W86575  31.445  31.420  16.646 -0.1909 -0.0478  0.1803
43659W        W86576  30.537  29.723  16.843 -0.5849  0.2575 -0.0471
43660W        W86577  29.386  31.364  21.491 -0.1791 -0.0156 -0.0116
43661W        W86578  30.292  31.446  21.196 -0.1144 -0.1617 -0.0977
43662W        W86579  30.175  28.496  17.467  0.0769 -0.1136 -0.0952
43663W        W86580  33.502  31.673  17.748  0.1358 -0.1262  0.1041
43664W        W86581  31.257  31.395  20.112  0.0876  0.0990  0.2962
43665W        W86582  32.390  28.973  19.468  0.2935  0.0191 -0.2349
43666W        W86583  29.214  32.797  18.360  0.1785  0.2244  0.0755
43667W        W86584  31.053  31.629  19.714  0.1587 -0.0238 -0.4126
43668W        W86585  32.175  32.829  16.791  0.1519 -0.1860  0.0067
43669W        W86586  32.245  28.480  19.701  0.1348 -0.2589 -0.2424
43670W        W86587  32.243  28.847  17.829 -0.1536  0.1132 -0.1010
43671W        W86588  28.582  28.506  17.093 -0.1305  0.0035 -0.0501
43672W        W86589  31.095  30.625  16.985 -0.0140 -0.2107 -0.2118
43673W        W86590  33.409  34.528  17.644  0.2833 -0.2827 -0.0347
43674W        W86591  32.661  30.573  17.197 -0.0882 -0.2417 -0.1192
43675W        W86592  30.090  32.811  18.212 -0.2748 -0.3447 -0.2269
43676W        W86593  31.421  29.260  21.602  0.1777 -0.0560  0.0663
43677W        W86594  31.406  29.927  19.793  0.0265 -0.1830 -0.1614
43678W        W86595  29.252  32.381  17.165 -0.0730  0.0176  0.1153
43679W        W86596  32.726  32.666  20.589  0.0118  0.1302 -0.1847
43680W        W86597  31.879  30.522  18.808  0.1803  0.0898  0.1614
43681W        W86598  30.092  27.617  18.955  0.1265  0.2546  0.1274
43682W        W86599  32.192  31.506  19.098 -0.0913 -0.1589 -0.1394
43683W        W86600  32.347  30.170  17.095  0.0564  0.0165  0.1674
43684W        W86601  29.401  28.712  18.129 -0.1912  0.0406 -0.0881
43685W        W86602  32.770  28.449  21.126  0.2145 -0.0435 -0.3337
43686W        W86603  29.323  29.424  17.417 -0.0308  0.1436 -0.2686
43687W        W86604  33.824  31.341  16.946  0.2107  0.1186  0.1283
43688W        W86605   0.723  30.496  17.084 -0.0104  0.2605  0.0076
43689W        W86606  33.195  33.801  17.745  0.0440 -0.1037  0.5633
43690W        W86607  29.409  29.926  18.433 -0.0445  0.0287 -0.0669
43691W        W86608  29.618  29.864  17.630  0.2950 -0.2679 -0.0233
43692W        W86609  30.143  28.945  18.704 -0.0322  0.2558 -0.0252
43693W        W86610  31.136  29.871  20.975  0.0771  0.3277  0.3578
43694W        W86611  33.617  30.160  18.608  0.1165  0.1558 -0.3634
43695W        W86612  31.600  28.784  17.194  0.3387  0.0173 -0.0870
43696W        W86613  31.534  29.572  16.760 -0.2403  0.2292  0.1634
43697W        W86614  29.374  30.261  17.529 -0.2330 -0.4092  0.0271
43698W        W86615  30.384  31.815  18.429 -0.0511 -0.0290 -0.3279
43699W        W86616  34.029  32.486  20.432  0.2184 -0.2083 -0.4675
43700W        W86617  30.715  32.177  16.865 -0.0590  0.2121  0.0933
43701W        W86618  34.563  32.240  17.272 -0.3990  0.2399  0.1065
43702W        W86619  32.936  32.339  16.797 -0.1779 -0.1905 -0.0776
43703W        W86620  30.993  28.848  18.366  0.0167 -0.2498 -0.0154
43704W        W86621  30.825  28.906  17.883  0.2436  0.1146 -0.5902
43705W        W86622  29.222   0.311  18.697  0.2657 -0.3569  0.1357
43706W        W86623  32.672  32.114  20.419  0.2650 -0.1749  0.0220
43707W        W86624  30.024  29.873  17.360  0.0844  0.2045 -0.0999
43708W        W86625  31.900  31.089  17.255 -0.3294 -0.1801 -0.3049
43709W        W86626  31.968  30.885  18.495  0.0603  0.0628 -0.2121
43710W        W86627  31.335  29.433  20.558 -0.1888 -0.0088  0.1904
43711W        W86628  34.522  29.724  20.314 -0.0654  0.0794 -0.1901
43712W        W86629  34.133  30.588  20.041  0.3644 -0.0952 -0.1086
43713W        W86630  31.470  29.841  17.258  0.0435 -0.0426 -0.0465
43714W        W86631  31.075  29.540  17.103  0.1289  0.0669 -0.0422
43715W        W86632  31.251  29.422  18.637  0.0902  0.0352  0.0224
43716W        W86633  30.863  34.243  17.278  0.0302  0.0624 -0.0735
43717W        W86634  30.641  30.993  17.331 -0.0875 -0.1108  0.2535
43718W        W86635  32.183  32.448  18.126  0.1226  0.0541 -0.0939
43719W        W86636  31.836  29.784  17.603 -0.2352  0.2101 -0.2053
43720W        W86637  29.390  28.618  20.521  0.0990 -0.1837 -0.1358
43721W        W86638  32.304  27.026  22.192 -0.1008  0.1789 -0.2624
43722W        W86639  29.515  30.823  17.351  0.0008 -0.0951  0.1492
43723W        W86640  31.225  32.276  19.455 -0.1894  0.0084 -0.0652
43724W        W86641  30.702  28.498  17.563 -0.0248 -0.0390  0.1384
43725W        W86642  33.100  30.594  16.940  0.1525  0.1421  0.1424
43726W        W86643  32.741  31.529  18.910  0.2172 -0.2956 -0.1235
43727W        W86644  33.189  32.768  16.702 -0.1886 -0.1252  0.1645
43728W        W86645  33.739  30.140  16.423  0.1459 -0.3225  0.1033
43729W        W86646  33.230  29.195  15.961 -0.0584  0.2037  0.0611
43730W        W86647  29.480  29.936  19.646 -0.2094 -0.0215 -0.0706
43731W        W86648  29.899  32.378  17.996  0.0191  0.0242 -0.1642
43732W        W86649  32.941  30.145  19.163  0.1122  0.0310  0.4619
43733W        W86650  31.882  29.799  19.562 -0.1235 -0.2215 -0.0265
43734W        W86651  34.557  31.550  16.550  0.0821  0.1842  0.1318
43735W        W86652  30.133  33.700  19.320 -0.1377 -0.0590 -0.1462
43736W        W86653  32.904  30.598  19.378 -0.1420  0.0358  0.1927
43737W        W86654  31.485  32.474  17.330  0.1449 -0.1091  0.0896
43738W        W86655  30.175  31.252  19.624  0.1659  0.3151 -0.0301
43739W        W86656  31.182  29.283  18.109  0.0024  0.0469  0.0352
43740W        W86657  33.429  28.812  18.900 -0.1411 -0.0444 -0.1306
43741W        W86658  30.119  32.266  17.505 -0.0427  0.0612  0.1775
43742W        W86659  34.051  28.441  18.656 -0.0505  0.3075 -0.1888
43743W        W86660  33.285  29.464  19.983  0.1765  0.0542  0.0434
43744W        W86661  32.084  29.493  22.690 -0.3103 -0.3568 -0.2032
43745W        W86662  32.987  29.777  21.862  0.1284 -0.0514 -0.1994
43746W        W86663  34.133  30.223  18.300 -0.0779  0.2121 -0.3334
43747W        W86664  33.223  29.267  18.366 -0.0287  0.0036  0.2019
43748W        W86665  32.420  30.061  18.302 -0.0044  0.0744  0.2087
43749W        W86666  33.638  29.462  19.006 -0.2920  0.1812  0.1914
43750W        W86667  30.752  30.676  19.421  0.3519 -0.1324 -0.0282
43751W        W86668  29.697  31.402  20.192 -0.1450 -0.1948  0.0807
43752W        W86669  30.069  31.003  18.768  0.2563  0.0838 -0.2544
43753W        W86670  31.501  30.143  17.772 -0.0304  0.1756 -0.1260
43754W        W86671  30.940  28.254  19.570  0.2382 -0.1065 -0.1070
43755W        W86672  31.212  29.603  17.722 -0.1003 -0.3239  0.0573
43756W        W86673  30.017  33.390  16.943  0.0556  0.4466 -0.1623
43757W        W86674  31.225  32.840  19.440 -0.1459  0.0810  0.1830
43758W        W86675  32.169  28.921  18.450 -0.0652 -0.0931 -0.3498
43759W        W86676  29.329  30.929  19.885  0.2424 -0.0028  0.0508
43760W        W86677  31.137  34.308  17.680 -0.0154 -0.2744  0.1939
43761W        W86678  33.388  32.901  17.716 -0.1663 -0.1971  0.1495
43762W        W86679  29.505  31.687  18.426 -0.3412  0.1892 -0.0685
43763W        W86680  32.540  27.759  21.676 -0.3282 -0.0902 -0.1335
43764W        W86681  27.575  32.481  17.695  0.2765  0.0380  0.0279
43765W        W86682  29.205  29.179  18.201  0.0505  0.3597  0.0890
43766W        W86683  29.402  30.381  18.378  0.0986  0.1382 -0.0582
43767W        W86684  33.274  29.279  20.953 -0.0687 -0.0239  0.0816
43768W        W86685  33.785  32.802  16.957  0.1594  0.0051 -0.1416
43769W        W86686  32.396  31.131  18.752  0.1642 -0.2569 -0.2162
43770W        W86687  32.863  29.549  19.765  0.0901  0.1346  0.1748
43771W        W86688  30.702  32.303  17.434 -0.0224  0.2552  0.0908
43772W        W86689  33.839  30.847  21.298 -0.0222 -0.0359  0.0628
43773W        W86690  33.270  28.907  17.011 -0.1615 -0.2337  0.0623
43774W        W86691  32.150  34.240  19.222 -0.3344 -0.0823  0.0139
43775W        W86692  32.161  30.605  20.718 -0.0341 -0.1060  0.2170
43776W        W86693  29.006  29.783  18.113 -0.2683 -0.0276  0.2554
43777W        W86694  33.946  30.846  18.456  0.0850  0.0378  0.3123
43778W        W86695  28.754  30.157  19.132  0.0039  0.0861  0.1449
43779W        W86696  30.308  31.403  19.123  0.2063 -0.1706  0.5191
43780W        W86697  31.735  31.268  18.131  0.0160 -0.2132  0.1030
43781W        W86698  31.308  30.662  18.616 -0.1537  0.0216 -0.0736
43782W        W86699  30.052  31.823  18.797  0.0229  0.2264 -0.3614
43783W        W86700  32.145  31.023  21.156  0.0842 -0.0108 -0.1522
43784W        W86701  32.285  29.979  19.846  0.0508  0.4258  0.0925
43785W        W86702  31.709  29.452  18.381 -0.1720 -0.4917  0.0858
43786W        W86703  31.090  30.015  18.657 -0.0093 -0.0938  0.0181
43787W        W86704  30.407  31.370  18.557  0.2308  0.0231  0.2658
43788W        W86705  33.273  33.054  18.337 -0.1597 -0.0628  0.0160
43789W        W86706  32.694  30.478  20.572 -0.2011 -0.2395 -0.0956
43790W        W86707  31.761  32.370  20.898 -0.1141 -0.4537 -0.0119
43791W        W86708  32.790  29.944  21.236 -0.0840 -0.3205 -0.0254
43792W        W86709  32.628  31.975  16.887 -0.1667 -0.1176 -0.1905
43793W        W86710  32.420  30.411  19.440 -0.0888 -0.0048 -0.2077
43794W        W86711  32.527  31.272  17.695 -0.2539  0.0736 -0.0265
43795W        W86712  29.964  30.195  19.787 -0.1054  0.0526  0.0642
43796W        W86713  28.128  30.876  18.064  0.2773  0.1502 -0.0377
43797W        W86714  31.377  30.997  17.997 -0.1449  0.1122 -0.1891
43798W        W86715  32.806  32.973  19.333  0.0981 -0.1928 -0.2129
43799W        W86716  31.566  33.485  17.379  0.0197 -0.3203 -0.1862
43800W        W86717  29.718  32.942  21.332  0.0570 -0.2194  0.0812
43801W        W86718  33.603  28.872  18.408 -0.2875 -0.2841 -0.1000
43802W        W86719  32.628  30.338  16.660 -0.1159 -0.2867 -0.0336
43803W        W86720  34.237  30.616  19.519  0.2297  0.2093 -0.2183
43804W        W86721  33.256  29.777  19.531  0.0527 -0.0927 -0.0524
43805W        W86722  31.946  30.163  18.019 -0.0563 -0.0375 -0.1260
43806W        W86723  31.599  29.658  20.166  0.1890 -0.0867  0.3599
43807W        W86724  30.905  28.499  18.759  0.1896 -0.1103  0.1151
43808W        W86725  32.565  31.066  17.218  0.0031  0.1066 -0.1485
43809W        W86726  30.210  31.321  22.050 -0.2022 -0.1776  0.0339
43810W        W86727  31.920  31.133  19.490 -0.0561  0.0786  0.0569
43811W        W86728  30.513  32.576  18.915  0.0974  0.4582  0.2639
43812W        W86729  33.487  30.679  18.385 -0.2055  0.2189  0.1308
43813W        W86730  30.355  28.410  18.727  0.3455 -0.2884  0.1131
43814W        W86731  31.223  30.531  17.841 -0.0554  0.1801 -0.3690
43815W        W86732  32.961  30.856  18.454  0.2590 -0.1720  0.0125
43816W        W86733  33.440  31.102  19.591 -0.1112 -0.0991 -0.1074
43817W        W86734  31.634  30.569  18.121  0.1098  0.5118 -0.3602
43818W        W86735  31.981  30.115  19.223  0.2244 -0.0298 -0.1179
43819W        W86736  33.824  29.596  20.937  0.0017 -0.0030  0.0802
43820W        W86737  32.541  30.945  16.762  0.3913  0.1123  0.2534
43821W        W86738  31.565  29.565  19.213  0.4910  0.0485 -0.2429
43822W        W86739  31.248  30.018  20.392 -0.5425 -0.3366 -0.0366
43823W        W86740  32.160  31.999  17.824  0.2154 -0.0308  0.1963
43824W        W86741  32.174  28.423  18.469  0.1778  0.2295 -0.0657
43825W        W86742  32.280  29.350  21.248 -0.2643 -0.0893  0.2519
43826W        W86743  29.906  31.530  21.514  0.1914 -0.3454 -0.1805
43827W        W86744  31.807  29.151  20.459 -0.0946  0.0960 -0.1949
43828W        W86745  30.810  28.281  20.151  0.0278 -0.1620 -0.0573
43829W        W86746  32.730  33.406  19.137  0.0970  0.0022 -0.0050
43830W        W86747  32.816  31.001  15.966 -0.2214 -0.1823 -0.1100
43831W        W86748  34.601  30.426  18.294 -0.2557 -0.1962  0.0697
43832W        W86749  32.446  31.026  18.253  0.0762 -0.2786 -0.1411
43833W        W86750  31.803  29.449  17.171 -0.0513  0.1399 -0.0891
43834W        W86751  29.067  29.897  17.609 -0.2822  0.3024  0.2272
43835W        W86752  33.409  32.240  18.610 -0.0679 -0.2511  0.1075
43836W        W86753  31.344  30.314  17.314  0.2973 -0.0345  0.4071
43837W        W86754  33.227  29.966  20.241  0.2793  0.2055 -0.0554
43838W        W86755  30.862  30.560  17.516 -0.0177  0.1629 -0.0697
43839W        W86756  32.854  31.782  16.417 -0.0068 -0.1017  0.0060
43840W        W86757  32.759  30.186  18.699  0.0489 -0.0628  0.1166
43841W        W86758  28.932  30.309  20.946  0.0678 -0.1949  0.2728
43842W        W86759  30.930  33.616  20.754  0.4244 -0.1295  0.1546
43843W        W86760  31.961  29.929  18.470 -0.1959 -0.3289  0.2223
43844W        W86761  31.080  31.122  16.786 -0.1171  0.0245 -0.0155
43845W        W86762  30.237  31.474  20.147 -0.3023 -0.2531 -0.0845
43846W        W86763  32.145  32.028  20.216  0.1634 -0.2273  0.0195
43847W        W86764  33.095  29.342  17.878 -0.1224 -0.2557 -0.0590
43848W        W86765   0.243  31.024  19.690  0.0055 -0.2728 -0.0345
43849W        W86766  28.567  31.644  18.238 -0.2304  0.4254  0.0114
43850W        W86767  31.657  29.460  17.903 -0.2429  0.3523  0.2261
43851W        W86768  30.522  31.950  18.968  0.0844  0.1814 -0.0637
43852W        W86769  28.469  31.313  19.773  0.0960  0.2815 -0.3400
43853W        W86770  32.711  30.485  18.185 -0.0361  0.0041  0.0328
43854W        W86771  31.443  29.902  21.659 -0.2844 -0.2331 -0.1244
43855W        W86772  32.822  31.984  18.717 -0.1716  0.0778  0.0043
43856W        W86773  32.294  29.875  17.790 -0.2441  0.0665 -0.2571
43857W        W86774  34.138  29.234  19.547  0.3140 -0.1649 -0.2770
43858W        W86775  31.940  30.798  20.187 -0.0621  0.1700 -0.0018
43859W        W86776  30.227  31.309  17.395 -0.2032  0.2920  0.3284
43860W        W86777  33.093  31.142  19.240  0.0874 -0.3152  0.0537
43861W        W86778  32.629  30.623  17.700  0.3830  0.3646  0.1117
43862W        W86779  31.638  31.468  19.085  0.0400  0.0592 -0.1424
43863W        W86780  32.853  31.054  19.658 -0.1566 -0.0223 -0.2012
43864W        W86781  34.442  31.053  19.520  0.2232 -0.0369 -0.1030
43865W        W86782  31.872  33.092  18.820  0.1070  0.2470  0.0151
43866W        W86783  29.472  27.191  17.233 -0.1406  0.1153  0.2753
43867W        W86784  31.663  30.684  17.471  0.0503  0.0785  0.3047
43868W        W86785  29.981  33.052  19.618 -0.1737 -0.1058 -0.0269
43869W        W86786  32.036  31.284  19.947 -0.2766  0.1751 -0.0808
43870W        W86787  30.477  33.044  19.442  0.2530 -0.2944  0.1130
43871W        W86788  32.388  31.704  16.475 -0.0929  0.0624  0.0069
43872W        W86789  31.566  30.211  18.543 -0.3057 -0.0272  0.2448
43873W        W86790  31.178  34.055  18.514 -0.1759  0.0623 -0.0940
43874W        W86791  32.674  30.089  17.481  0.2422 -0.0064 -0.2022
43875W        W86792  30.440  32.342  22.962  0.0700  0.0109 -0.0330
43876W        W86793  30.577  31.777  17.865 -0.0414 -0.1173  0.1964
43877W        W86794  33.765  31.150  17.938  0.4391 -0.1492  0.0248
43878W        W86795  29.921  31.749  20.445 -0.2023 -0.1041  0.0946
43879W        W86796  32.766  33.769  20.073 -0.0757  0.0970 -0.0016
43880W        W86797  33.478  30.269  15.929  0.0221 -0.0338  0.2482
43881W        W86798  33.406  29.762  18.389 -0.1739 -0.3463  0.0167
43882W        W86799  33.992  31.676  19.062  0.1230 -0.4483  0.1334
43883W        W86800  31.783  30.121  20.089  0.0550 -0.1180  0.0380
43884W        W86801  32.515  30.738  21.380  0.1583 -0.0339  0.1142
43885W        W86802  30.894  29.279  17.520 -0.2384 -0.1425 -0.0866
43886W        W86803  31.876  30.554  21.134  0.2520  0.0029  0.0963
43887W        W86804  32.403  30.311  21.074  0.2640 -0.2419 -0.1290
43888W        W86805  30.513  33.445  21.254  0.1938 -0.0948 -0.1930
43889W        W86806  33.054  31.732  16.921 -0.3171 -0.1567 -0.2079
43890W        W86807  31.911  31.432  18.626  0.2784 -0.0125 -0.2867
43891W        W86808  31.848  29.483  21.492  0.0379 -0.0991  0.1676
43892W        W86809  33.343  27.167  20.764  0.1789 -0.1613  0.0987
43893W        W86810  31.107  29.751  16.632 -0.0071  0.0411  0.1924
43894W        W86811  32.047  31.117  17.729  0.1698  0.4810 -0.1355
43895W        W86812  29.715  32.630  18.456 -0.1343  0.1853  0.2268
43896W        W86813  31.550  32.796  18.502  0.1695 -0.1762  0.3337
43897W        W86814  29.760  33.154  17.391  0.2651 -0.2376  0.3845
43898W        W86815  28.797  28.340  17.520 -0.0553 -0.0255 -0.4464
43899W        W86816   0.590  29.204  17.722  0.1460  0.0258 -0.0034
43900W        W86817  31.059  29.641  19.509 -0.1758  0.2930  0.0846
43901W        W86818  34.001  31.408  19.501  0.0416  0.3198 -0.0571
43902W        W86819  32.189  30.616  18.035 -0.0650  0.1744  0.0139
43903W        W86820  31.960  29.288  19.300  0.0361 -0.0334 -0.0942
43904W        W86821  31.896  30.976  19.006 -0.0410 -0.0229  0.0379
43905W        W86822  31.846  28.973  19.770  0.1026  0.1303  0.2294
43906W        W86823  31.385  29.210  17.404 -0.1733 -0.0858  0.0394
43907W        W86824  33.286  31.180  18.203  0.1006  0.0504 -0.0476
43908W        W86825  31.934  31.631  16.639 -0.0136  0.1634 -0.1620
43909W        W86826  32.519  32.978  20.247 -0.1271  0.1572 -0.2121
43910W        W86827  34.033  29.371  17.980 -0.0457 -0.1562  0.1785
43911W        W86828  33.126  30.330  18.367 -0.0379 -0.1088 -0.2011
43912W        W86829  29.687  30.260  17.114 -0.3312 -0.2615 -0.0720
43913W        W86830  32.463  30.822  20.283 -0.1888  0.1797  0.0115
43914W        W86831  32.892  31.513  19.497 -0.0535  0.0079 -0.2666
43915W        W86832  30.615  30.119  17.275  0.1670  0.1703  0.0496
43916W        W86833  33.776  32.004  15.789 -0.1798 -0.0345 -0.5430
43917W        W86834  32.954  29.744  18.549 -0.3071 -0.0504 -0.0787
43918W        W86835  30.705  31.387  18.148 -0.2651 -0.2557 -0.0153
43919W        W86836  31.677  31.525  17.115  0.1207 -0.2421 -0.1139
43920W        W86837  30.810  32.190  18.105  0.1761  0.0385  0.2802
43921W        W86838  31.404  30.406  20.046  0.2544  0.0030  0.0159
43922W        W86839  33.126  32.646  17.196 -0.0971 -0.1525 -0.0336
43923W        W86840  34.476  32.511  17.712 -0.2232  0.0869 -0.0792
43924W        W86841  32.664  29.637  20.271  0.1029 -0.1467  0.1608
43925W        W86842  30.698  32.260  19.317 -0.1916 -0.1918  0.1715
43926W        W86843  30.050  32.730  18.905  0.1404 -0.0053 -0.3694
43927W        W86844  33.091  28.824  18.395 -0.1878  0.0460 -0.0166
43928W        W86845  33.997  29.973  20.270  0.0751  0.1322 -0.1096
43929W        W86846  30.867  31.048  17.772 -0.0477 -0.1377 -0.2876
43930W        W86847  33.694  27.988  20.544 -0.0026  0.4440  0.1102
43931W        W86848  32.862  31.473  17.326 -0.0531 -0.1438  0.1065
43932W        W86849  30.360  33.572  20.637  0.1526 -0.0936 -0.0440
43933W        W86850  29.248  31.565  18.067  0.1598  0.3192 -0.1091
43934W        W86851  33.607  31.368  19.120  0.0745 -0.0895 -0.0893
43935W        W86852  30.792  31.467  18.909 -0.2819 -0.1102 -0.0383
43936W        W86853  31.805  32.311  18.409  0.3670 -0.1187 -0.2571
43937W        W86854  32.862  33.060  18.818 -0.0804 -0.1631  0.0923
43938W        W86855  32.051  29.718  18.987  0.1242  0.1560 -0.2631
43939W        W86856  32.912  33.452  19.580  0.1678 -0.0909  0.0968
43940W        W86857  33.261  29.194  19.294 -0.2237 -0.0803  0.0894
43941W        W86858  33.862  29.882  18.045  0.0092  0.0829 -0.1129
43942W        W86859  31.974  29.131  16.790  0.1302 -0.0308  0.1702
43943W        W86860  29.605  32.039  17.413  0.1656  0.0812 -0.1328
43944W        W86861  29.357  31.114  17.746 -0.0380  0.0260  0.1723
43945W        W86862  32.298  32.267  17.430  0.2207 -0.4330 -0.0863
43946W        W86863  31.011  32.816  18.606  0.0638 -0.3690 -0.1450
43947W        W86864  32.372  26.876  20.900  0.1437 -0.1704  0.1944
43948W        W86865  30.402  30.273  18.225 -0.0250 -0.2873 -0.1184
43949W        W86866  30.692  32.105  20.598 -0.0069 -0.0718  0.0349
43950W        W86867  27.669  30.543  18.092  0.1928  0.2477  0.0737
43951W        W86868  33.779  33.081  17.453 -0.2769  0.4493  0.0270
43952W        W86869  32.003  30.552  19.758 -0.0671  0.2054 -0.0738
43953W        W86870  30.876  29.646  18.179 -0.0482 -0.2886  0.3148
43954W        W86871  31.954  32.489  17.126 -0.1731 -0.2233 -0.0778
43955W        W86872  33.055  31.924  17.627  0.0364 -0.0032  0.3821
43956W        W86873  32.255  28.910  18.958  0.0271 -0.1815  0.3213
43957W        W86874  32.432  33.391  18.697 -0.2346 -0.1139 -0.0314
43958W        W86875  29.292  30.152  17.981  0.0998  0.0156  0.1052
43959W        W86876  28.825  30.906  19.919  0.1895  0.3362 -0.0755
43960W        W86877  30.439  27.882  20.048 -0.0548 -0.2932  0.1192
43961W        W86878  29.324  31.423  19.256 -0.3007  0.0904  0.1926
43962W        W86879  33.929  30.940  20.355  0.3506  0.2307 -0.1041
43963W        W86880  32.811  32.207  17.298 -0.3225 -0.0001 -0.6040
43964W        W86881  31.536  31.700  17.876  0.3414 -0.0744  0.1764
43965W        W86882  31.208  31.421  18.282  0.1952 -0.0484  0.0099
43966W        W86883  31.225  31.902  21.662 -0.2118 -0.1050  0.0790
43967W        W86884  30.855  30.131  18.053  0.1386 -0.2100 -0.2728
43968W        W86885  29.539  32.465  17.655  0.1377 -0.1875 -0.0994
43969W        W86886  31.947  31.804  20.588  0.0635  0.0923  0.0286
43970W        W86887  34.380   0.989  18.424 -0.0127  0.2024  0.1621
43971W        W86888  32.351  27.735  19.561  0.1046  0.1169 -0.1834
43972W        W86889  31.718  30.352  20.600  0.1058  0.3442  0.0993
43973W        W86890  30.559  28.496  19.214  0.1445 -0.0163  0.0322
43974W        W86891  29.063  29.662  21.059  0.1731  0.0321  0.0625
43975W        W86892   0.025  30.412  19.388 -0.1773 -0.1401 -0.1191
43976W        W86893  31.494  29.017  17.852  0.4500 -0.1779  0.0184
43977W        W86894  31.278  28.619  17.976 -0.0899 -0.0159 -0.3354
43978W        W86895  31.591  31.986  16.935  0.0765 -0.0629 -0.0692
43979W        W86896  31.877  30.616  19.304 -0.1912 -0.3401  0.0468
43980W        W86897  32.110  30.236  17.511  0.4629 -0.0004  0.1331
43981W        W86898  32.861  28.946  19.007 -0.2262 -0.1071 -0.2051
43982W        W86899  32.577  31.787  17.560 -0.2151 -0.2023  0.2506
43983W        W86900  32.622  32.300  18.356  0.1503  0.0715  0.1736
43984W        W86901  29.189  29.474  16.906  0.3341 -0.2500 -0.0636
43985W        W86902   0.134  31.021  17.639 -0.4574  0.0319 -0.0248
43986W        W86903  33.100  33.884  19.747  0.3436 -0.0702 -0.1622
43987W        W86904  32.768  30.665  18.807  0.0606  0.0574  0.1718
43988W        W86905  31.676  33.412  20.137  0.0304  0.0074 -0.0292
43989W        W86906  32.467  29.354  19.033  0.3261  0.2874  0.3323
43990W        W86907  30.210  29.290  19.081  0.4709 -0.0426  0.1621
43991W        W86908  29.857  31.004  17.686 -0.1858 -0.1758  0.4264
43992W        W86909  32.334  29.540  19.522 -0.0384  0.0376  0.1722
43993W        W86910  31.156  29.525  20.009  0.2441  0.0138 -0.0746
43994W        W86911  32.435  29.219  19.937 -0.0555  0.0396 -0.0757
43995W        W86912  32.784  29.113  17.558  0.0603 -0.0116  0.1757
43996W        W86913  32.186  32.050  21.064  0.0207 -0.0487  0.3296
43997W        W86914  30.563  30.949  18.783  0.0481  0.0510 -0.0666
43998W        W86915  29.675  32.603  23.293 -0.0386  0.3323 -0.1865
43999W        W86916  30.076  29.687  19.898  0.1109  0.0688 -0.0821
44000W        W86917  32.017  29.735  23.200  0.2045  0.1033 -0.0445
44001W        W86918  33.356  30.749  19.234  0.0126  0.0313 -0.4856
44002W        W86919  27.657  30.111  20.422 -0.0514 -0.1007 -0.2259
44003W        W86920  33.452  32.877  21.790 -0.0770  0.0813  0.1629
44004W        W86921  29.126  28.410  22.224 -0.0837 -0.3020  0.0437
44005W        W86922  30.278  33.190  22.901 -0.1433 -0.0488 -0.1564
44006W        W86923  32.018  32.011  23.052  0.1117  0.4099 -0.0487
44007W        W86924  32.369  33.152  19.549  0.1019  0.0600  0.1243
44008W        W86925  27.993  29.098  22.653  0.3792 -0.0926  0.0452
44009W        W86926  29.043  31.101  22.882  0.2727  0.0751 -0.0333
44010W        W86927  30.690  30.007  19.022  0.0979 -0.0419  0.0004
44011W        W86928  28.692  28.372  21.255 -0.0939  0.1310 -0.2265
44012W        W86929  30.494  30.867  23.465 -0.3951 -0.1204 -0.2185
44013W        W86930  29.429  29.957  20.997 -0.3507  0.1391  0.2501
44014W        W86931  31.191  28.615  21.972  0.3215 -0.3141 -0.1723
44015W        W86932  31.765  30.243  21.475 -0.2746 -0.1288  0.0785
44016W        W86933  31.757  31.178  23.182  0.0676 -0.0986 -0.0847
44017W        W86934  28.145  29.475  22.425  0.2439 -0.0836  0.0203
44018W        W86935  31.821  29.476  24.225 -0.0811  0.0651  0.1772
44019W        W86936  33.364  32.603  22.260  0.3600 -0.2832 -0.0925
44020W        W86937  29.738  32.486  20.484 -0.0875  0.1333  0.1549
44021W        W86938  31.462  29.012  22.650  0.1624  0.1588  0.1668
44022W        W86939  29.064  32.551  23.385 -0.0536 -0.1488 -0.0334
44023W        W86940  32.546  32.301  21.420  0.1090  0.0174  0.2948
44024W        W86941  33.160  32.166  19.016  0.0451  0.2554  0.2356
44025W        W86942  30.934  32.986  21.779 -0.1758  0.1043 -0.0044
44026W        W86943  31.090  30.530  22.476 -0.1136  0.0204  0.2136
44027W        W86944  33.091  30.298  24.848 -0.0815 -0.2192  0.1589
44028W        W86945  30.223  30.740  23.867  0.0179  0.2106  0.0762
44029W        W86946  28.979  32.892  19.513 -0.0228  0.1267  0.0616
44030W        W86947  31.605  31.037  21.289 -0.0777 -0.2401  0.0896
44031W        W86948  31.744  32.501  20.079  0.1893 -0.1185  0.1072
44032W        W86949  31.489  34.011  24.828 -0.4166 -0.3728  0.0862
44033W        W86950  32.500  33.779  24.938  0.1025  0.5890  0.2083
44034W        W86951  27.652  32.876  18.269 -0.2889 -0.0233  0.1779
44035W        W86952  32.079  33.963  24.166 -0.1271 -0.1200  0.0148
44036W        W86953  30.579  32.100  23.929  0.0899  0.1036 -0.2473
44037W        W86954  32.296  30.113  23.205  0.1250  0.2080  0.1720
44038W        W86955  30.554  31.766  22.089 -0.1779  0.1275 -0.0615
44039W        W86956  30.669  31.830  21.146  0.0888  0.3649  0.0212
44040W        W86957  30.713  29.640  22.239  0.1124  0.0729 -0.0773
44041W        W86958  28.969  30.208  23.563 -0.0337  0.1006  0.2746
44042W        W86959  30.072  30.747  22.580 -0.1083 -0.1204 -0.1162
44043W        W86960  32.238  28.979  26.191 -0.3647  0.1623 -0.0867
44044W        W86961  32.492  32.308  22.304 -0.3033 -0.1717 -0.0808
44045W        W86962  30.982  30.084  21.462 -0.0060  0.1500  0.1009
44046W        W86963  29.787  30.380  20.627 -0.4499  0.1022 -0.2189
44047W        W86964  32.968  30.032  20.712  0.0955 -0.3033 -0.1820
44048W        W86965  31.618  27.698  22.849 -0.0112 -0.0621 -0.0094
44049W        W86966  31.496  31.380  21.646  0.0451 -0.0586  0.2119
44050W        W86967  31.234  30.761  22.985 -0.1380  0.0972 -0.0290
44051W        W86968  31.865  30.778  22.096 -0.0328  0.1463 -0.0572
44052W        W86969  31.218  30.505  20.522  0.0787 -0.0140 -0.3649
44053W        W86970  32.573  29.517  24.440  0.1579  0.1188 -0.1199
44054W        W86971  29.441  33.426  22.508 -0.1614 -0.0451  0.1199
44055W        W86972  27.926  31.424  22.370 -0.0871 -0.0458 -0.0489
44056W        W86973  31.572  32.767  19.076  0.0406 -0.2331  0.1201
44057W        W86974  33.127  33.538  20.334  0.0574  0.1686  0.0606
44058W        W86975  34.181  32.996  21.234  0.0357  0.1919  0.0331
44059W        W86976  30.271  30.627  21.686 -0.1584  0.2079 -0.0083
44060W        W86977  28.835  28.881  23.841 -0.1763  0.3125 -0.0114
44061W        W86978  31.121  30.543  21.917 -0.1315 -0.0791 -0.1110
44062W        W86979  31.612  28.383  21.047 -0.0303 -0.0788  0.2640
44063W        W86980  32.381  32.780  23.169  0.0634 -0.1766  0.0063
44064W        W86981  30.360  32.834  24.603  0.0011  0.0696 -0.3635
44065W        W86982   0.611  30.713  20.438 -0.1044  0.1783  0.2914
44066W        W86983  31.181  30.867  21.085 -0.2101  0.2490 -0.0939
44067W        W86984  32.691  31.645  24.161  0.0036  0.0120  0.2121
44068W        W86985  32.393  31.337  19.600 -0.4184 -0.0329  0.1345
44069W        W86986  31.894  29.023  23.914 -0.0322 -0.2237  0.0596
44070W        W86987  31.604  28.685  24.914 -0.1736  0.1448  0.1666
44071W        W86988  29.201  31.024  18.988 -0.0188 -0.1937  0.2022
44072W        W86989  32.523  30.251  22.040 -0.0907 -0.3915  0.3975
44073W        W86990  33.814  32.541  23.047  0.1731  0.2967 -0.5205
44074W        W86991  33.398  30.567  21.222  0.0881  0.0824 -0.1850
44075W        W86992  29.646  32.937  23.840  0.3235  0.2508  0.3566
44076W        W86993  31.457  29.886  23.269  0.1956 -0.0044 -0.0510
44077W        W86994  32.062  31.827  23.540  0.2723 -0.1001 -0.0073
44078W        W86995  30.896  31.278  21.191 -0.0615 -0.2067 -0.1075
44079W        W86996  28.530  30.011  22.286  0.2604  0.0565  0.4010
44080W        W86997  32.243  30.329  21.609 -0.0045 -0.2958  0.1593
44081W        W86998  28.668  29.318  24.052  0.1821  0.1743 -0.2704
44082W        W86999  31.323  30.075  22.328  0.2218  0.0666  0.3090
44083W        W87000  31.773  29.927  22.349 -0.0564 -0.4164 -0.3971
44084W        W87001  28.407  29.892  22.761 -0.0849  0.2690 -0.0732
44085W        W87002  32.660  30.584  23.087 -0.0278 -0.0643 -0.2790
44086W        W87003  29.265  32.426  21.643 -0.0866  0.0410 -0.2291
44087W        W87004  33.100  32.703  20.114  0.0603 -0.2373  0.0268
44088W        W87005  32.023  30.096  20.898 -0.2775  0.3331 -0.1781
44089W        W87006  32.282  32.617  19.520 -0.0568  0.1027  0.5085
44090W        W87007  28.236  33.050  23.010  0.0136 -0.1242 -0.0953
44091W        W87008  30.211  29.085  21.520  0.0186  0.2829 -0.0462
44092W        W87009  29.480  29.735  22.411  0.0787 -0.3371  0.0092
44093W        W87010  30.085  29.583  21.518 -0.3227  0.0689 -0.1821
44094W        W87011  31.509  30.357  24.808 -0.2399 -0.1713 -0.0075
44095W        W87012  28.186  30.081  18.658 -0.0542  0.1317  0.0988
44096W        W87013  32.158  32.328  23.383 -0.0104  0.3307  0.1757
44097W        W87014  30.586  29.407  21.735 -0.1094 -0.2509  0.4550
44098W        W87015  30.683  30.754  20.962  0.0872 -0.0377 -0.0389
44099W        W87016  31.778  30.865  24.070  0.0882  0.1516 -0.0429
44100W        W87017  31.360  34.103  22.118  0.1039 -0.1234 -0.0686
44101W        W87018  34.162  32.251  23.573 -0.1415 -0.0821 -0.0901
44102W        W87019  33.833  33.745  21.384 -0.0320 -0.0381 -0.1263
44103W        W87020  31.808  29.937  24.614 -0.0850  0.1065 -0.3020
44104W        W87021  29.913  31.234  22.588 -0.1288 -0.2473 -0.0517
44105W        W87022  31.383  31.489  21.188 -0.2724  0.0719  0.2100
44106W        W87023  30.013  31.457  23.087  0.1189  0.0229  0.1402
44107W        W87024  31.450  29.094  22.086  0.2012 -0.4074  0.0721
44108W        W87025  32.046  32.884  21.314  0.0287 -0.2102 -0.2595
44109W        W87026  31.637  30.259  21.936  0.0848 -0.1907  0.1409
44110W        W87027  30.031  33.087  23.306 -0.0131 -0.1201 -0.1923
44111W        W87028  31.234  30.663  24.418 -0.1721 -0.2970 -0.1213
44112W        W87029  32.573  30.418  24.566 -0.0689 -0.0830  0.2294
44113W        W87030  32.240  31.543  23.196 -0.0838 -0.1335 -0.1765
44114W        W87031  30.274  29.301  19.613  0.0633  0.1820  0.1394
44115W        W87032  33.170  31.368  21.377  0.1299 -0.2297 -0.1697
44116W        W87033  29.120  31.444  21.959 -0.1112 -0.4058  0.1736
44117W        W87034  32.337  30.908  19.813  0.5034  0.1629 -0.1884
44118W        W87035  31.303  32.940  22.131 -0.0939  0.1623  0.1300
44119W        W87036  32.344  28.978  23.178 -0.1855 -0.0430  0.4057
44120W        W87037  28.835  30.013  23.129  0.4449  0.2142 -0.2254
44121W        W87038  30.910  30.898  22.150 -0.2552  0.0828 -0.0917
44122W        W87039  29.798  28.548  19.588 -0.2941 -0.2389  0.1620
44123W        W87040  32.288  29.989  22.706  0.2562  0.1103  0.1798
44124W        W87041  31.519  30.791  20.756 -0.0934  0.2374 -0.0372
44125W        W87042  32.836  29.942  22.306 -0.2908  0.0409  0.0153
44126W        W87043  31.068  31.883  24.018  0.1754  0.1497  0.1655
44127W        W87044  31.816  31.372  20.824  0.0830 -0.1430  0.2449
44128W        W87045  31.425  31.094  19.345 -0.1071 -0.2111 -0.0442
44129W        W87046  32.557  29.101  21.603  0.1046 -0.2098  0.2669
44130W        W87047  28.639  34.133  23.300 -0.2434  0.1054 -0.0953
44131W        W87048  32.327  31.239  22.499 -0.3067 -0.0895 -0.2189
44132W        W87049  32.103  31.685  22.285  0.1319  0.0188  0.2553
44133W        W87050  32.810  30.333  21.554  0.1435  0.1829 -0.0554
44134W        W87051   0.283  33.535  21.800  0.0446  0.1469  0.0864
44135W        W87052  29.145  32.298  22.613 -0.1822 -0.0536  0.2631
44136W        W87053  32.017  30.235  24.914  0.1171  0.4208  0.0467
44137W        W87054   0.287  31.516  21.915 -0.1754  0.2397  0.0711
44138W        W87055  28.883  30.259  22.633 -0.0428 -0.2074  0.4292
44139W        W87056  31.655  31.885  21.081 -0.0952 -0.0436 -0.1840
44140W        W87057  31.879  28.490  23.817 -0.2336 -0.1979  0.3570
44141W        W87058  28.684  32.744  20.419  0.1723  0.2689  0.0516
44142W        W87059  33.211  29.196  23.233  0.0896  0.0176 -0.1150
44143W        W87060  31.024  29.327  24.831  0.0347  0.0501 -0.1042
44144W        W87061  30.599  31.045  21.790  0.2315  0.0398 -0.0262
44145W        W87062   0.366  29.013  23.005 -0.1099 -0.0911  0.0547
44146W        W87063  31.910  30.719  21.607 -0.2749  0.0710 -0.0318
44147W        W87064  29.946  30.597  23.429  0.0656  0.0133 -0.2221
44148W        W87065  30.925  30.339  21.044  0.1233  0.0585 -0.2855
44149W        W87066  31.946  30.061  24.044  0.2172  0.1060 -0.1524
44150W        W87067  27.813  30.519  23.006  0.0463 -0.2326  0.1211
44151W        W87068  27.870  32.660  18.827  0.2001  0.0073  0.0692
44152W        W87069  31.251  31.221  24.123  0.1707 -0.0224  0.0202
44153W        W87070  32.050  30.338  22.184  0.2269 -0.2541 -0.0645
44154W        W87071  31.312  27.822  23.256  0.1817  0.1278  0.1508
44155W        W87072  30.339  29.251  20.154  0.0178 -0.2964 -0.0465
44156W        W87073  30.798  31.326  23.460 -0.1508 -0.4483  0.0104
44157W        W87074  33.390  32.005  20.621  0.1817  0.0292 -0.2614
44158W        W87075  30.550  30.195  21.752  0.0665  0.0923 -0.1873
44159W        W87076  30.772  31.058  23.037 -0.1598 -0.0303  0.0962
44160W        W87077  30.320  31.673  21.671  0.2080 -0.2519  0.2081
44161W        W87078  31.488  31.762  24.319 -0.0973 -0.2984 -0.3486
44162W        W87079  29.297  30.410  21.674  0.2278 -0.2432 -0.0195
44163W        W87080  32.455  32.081  21.808  0.3505 -0.2074  0.1549
44164W        W87081  29.538  31.794  21.763 -0.0442  0.0529 -0.0246
44165W        W87082  31.946  29.542  20.882  0.2748 -0.2381 -0.0141
44166W        W87083  31.113  31.946  23.522 -0.2084  0.0054 -0.0264
44167W        W87084  33.737  27.129  22.579  0.0888 -0.0706 -0.2966
44168W        W87085  32.695  30.536  19.876 -0.2319  0.1060 -0.0772
44169W        W87086  29.963  27.997  21.605  0.1499  0.3033  0.2296
44170W        W87087  32.055  28.861  25.123  0.1070  0.0001  0.1529
44171W        W87088  29.352  32.233  23.172 -0.1001 -0.2238 -0.2678
44172W        W87089  31.219  31.485  23.717 -0.0969  0.0121 -0.2167
44173W        W87090  32.598  27.535  22.426  0.0588 -0.1971  0.0818
44174W        W87091  30.764  31.629  25.411  0.0087 -0.0305  0.1878
44175W        W87092  29.991  31.758  22.179  0.0067  0.0448  0.0865
44176W        W87093  30.642  29.847  20.928 -0.1706  0.1211 -0.1623
44177W        W87094  33.130  31.042  22.409 -0.0173 -0.0072 -0.0351
44178W        W87095  31.566  29.774  18.769 -0.2083 -0.0558 -0.2484
44179W        W87096  28.192  32.148  23.260  0.2128 -0.0371  0.1342
44180W        W87097  29.364  31.227  23.645 -0.2686 -0.1282  0.2263
44181W        W87098  29.934  30.235  21.062  0.4586  0.2499 -0.1160
44182W        W87099  29.577  32.052  22.191  0.1976 -0.0265  0.2398
44183W        W87100  29.999  31.825  23.502  0.3538 -0.1231  0.0986
44184W        W87101  31.634  31.177  25.086  0.1579  0.0222 -0.1009
44185W        W87102  31.049  28.760  22.483 -0.0087 -0.1948  0.0434
44186W        W87103  30.384  29.556  20.615 -0.1320  0.1787 -0.0262
44187W        W87104  30.983  29.283  22.499 -0.0982 -0.1704 -0.1062
44188W        W87105  31.027  31.532  24.946 -0.1084  0.0525 -0.1301
44189W        W87106  28.618  29.301  23.556  0.1734 -0.0811 -0.3232
44190W        W87107  30.092  32.704  22.985 -0.0428  0.1562  0.3392
44191W        W87108  32.348  28.176  21.280 -0.1452  0.0913 -0.0673
44192W        W87109  32.453  31.744  18.474 -0.0862 -0.2490 -0.2586
44193W        W87110  31.146  29.777  23.709  0.0733 -0.0556  0.1461
44194W        W87111  30.125  30.016  20.310 -0.2185 -0.2001 -0.3158
44195W        W87112  31.035  31.022  21.599 -0.0524 -0.2041  0.3092
44196W        W87113  30.935  29.094  21.511  0.1882 -0.1266  0.0459
44197W        W87114  29.671  28.722  22.363 -0.0084  0.2924  0.1756
44198W        W87115  29.843  31.405  25.032  0.0285 -0.0496  0.3342
44199W        W87116  30.779  32.287  22.558  0.3953  0.1205 -0.1509
44200W        W87117  29.718  33.170  22.939  0.0618 -0.3375 -0.1123
44201W        W87118  31.600  28.515  22.874  0.4087 -0.0443  0.5479
44202W        W87119  32.614  31.001  19.205  0.2207 -0.0005  0.1304
44203W        W87120  31.908  31.137  21.751  0.2352 -0.0182 -0.0612
44204W        W87121  31.765  31.294  22.194 -0.1746 -0.1748 -0.0693
44205W        W87122  32.328  30.646  19.031 -0.1025  0.3080  0.1564
44206W        W87123  32.815  27.344  24.420 -0.0075 -0.2023  0.0208
44207W        W87124  31.175  30.101  24.560  0.0887 -0.0927 -0.1334
44208W        W87125  33.239  32.724  20.829  0.0751 -0.1144 -0.1785
44209W        W87126  29.968  29.437  22.477  0.5864  0.1403 -0.0120
44210W        W87127  33.340  33.259  24.024 -0.2218 -0.0712 -0.1004
44211W        W87128  29.864  31.961  22.647  0.0190 -0.0482  0.0535
44212W        W87129  32.609  29.497  22.557  0.0261 -0.1445  0.1168
44213W        W87130  30.501  28.728  18.373  0.2651 -0.1715  0.4703
44214W        W87131  31.725  28.154  22.542 -0.3292 -0.1552 -0.2054
44215W        W87132  32.819  31.084  23.714 -0.3559  0.1447 -0.1066
44216W        W87133  31.354  33.261  20.967  0.3265  0.0618  0.2030
44217W        W87134  33.106  31.556  22.319  0.0816  0.1219  0.4706
44218W        W87135  31.040  31.897  22.108  0.0831  0.3598  0.0117
44219W        W87136  31.368  30.426  23.306 -0.0018 -0.0939  0.0452
44220W        W87137  30.691  29.211  18.310 -0.1175  0.3781  0.1021
44221W        W87138  32.604  30.880  20.880  0.1194  0.2728 -0.0142
44222W        W87139  27.441  28.984  21.331  0.0538 -0.0537  0.1097
44223W        W87140  30.819  31.018  24.358 -0.2957 -0.0682  0.1416
44224W        W87141  31.724  29.320  23.512  0.1606 -0.0002  0.1412
44225W        W87142  31.601  30.361  24.247  0.2230 -0.0484  0.1809
44226W        W87143  33.317  30.042  24.176 -0.1582  0.4715 -0.0189
44227W        W87144  28.362  30.402  22.593 -0.0968  0.2818 -0.2013
44228W        W87145  28.512  30.328  21.453  0.0272  0.1148 -0.0812
44229W        W87146  33.995  33.129  22.952  0.0235 -0.0601  0.0354
44230W        W87147  32.651  28.568  22.243 -0.0542 -0.2893  0.0563
44231W        W87148  33.486  28.543  23.374 -0.0593 -0.2312  0.2206
44232W        W87149  33.614  32.376  20.788  0.2161 -0.0098  0.0285
44233W        W87150  32.837  31.788  19.902  0.0339 -0.0379  0.3156
44234W        W87151  27.850  30.453  22.530 -0.4225  0.2333  0.0655
44235W        W87152  32.725  29.983  25.605  0.3348  0.1195 -0.1231
44236W        W87153  31.972  29.924  21.834  0.2389  0.0594 -0.6201
44237W        W87154   0.145  29.743  24.130 -0.0776 -0.1615 -0.1412
44238W        W87155  31.802  31.662  20.139  0.0943  0.0974  0.1710
44239W        W87156  32.734  32.374  22.990  0.2002  0.4521 -0.0870
44240W        W87157  31.816  30.201  23.265  0.0343 -0.1099 -0.3902
44241W        W87158  29.372  30.837  21.412  0.1558 -0.2205 -0.0419
44242W        W87159  31.617  31.826  22.876 -0.2696 -0.0266 -0.2109
44243W        W87160  31.640  32.091  20.315 -0.1429  0.0931  0.0986
44244W        W87161  32.161  31.151  20.522  0.4570  0.0468  0.3215
44245W        W87162  30.464  29.988  23.044  0.1081 -0.1901  0.0510
44246W        W87163  33.257  31.425  23.825  0.1455 -0.2466  0.1596
44247W        W87164  30.225  28.820  19.426 -0.1178 -0.2047 -0.0690
44248W        W87165  33.289  29.874  25.620  0.2072  0.1195  0.2441
44249W        W87166  29.685  32.059  21.379  0.2595  0.0926 -0.3588
44250W        W87167  31.863  27.320  23.088  0.2732  0.2803  0.0107
44251W        W87168  30.917  33.380  22.122  0.0347  0.2409  0.2878
44252W        W87169  29.398  31.630  22.324 -0.0784 -0.0311 -0.1563
44253W        W87170  29.863  30.666  21.303 -0.0249  0.3816 -0.3785
44254W        W87171  33.148  26.626  23.496 -0.1407  0.1589 -0.1214
44255W        W87172  32.472  31.171  24.072  0.0090 -0.0967 -0.0682
44256W        W87173  31.603  30.460  22.438 -0.1579  0.0192 -0.2510
44257W        W87174  32.700  30.003  24.732  0.3151 -0.5522  0.0331
44258W        W87175  30.085  32.786  24.107  0.0902  0.0243 -0.0138
44259W        W87176  29.789  30.484  21.770 -0.0134  0.1295 -0.0309
44260W        W87177  32.040  32.487  22.205  0.1456 -0.1586 -0.1588
44261W        W87178  32.425  31.220  21.454 -0.2343 -0.2323 -0.0316
44262W        W87179  30.532  32.923  21.461  0.1117  0.2770  0.1716
44263W        W87180  30.315  31.155  22.838 -0.0736  0.3437  0.1879
44264W        W87181  29.728  32.451  24.192 -0.1168 -0.1171 -0.2229
44265W        W87182  33.701  31.680  21.255  0.1813 -0.2485 -0.0393
44266W        W87183  31.325  30.521  21.445  0.4153 -0.1977  0.1142
44267W        W87184  32.243  30.172  18.819  0.0857 -0.0193 -0.2058
44268W        W87185  28.544  31.358  24.343  0.2189  0.2180 -0.0989
44269W        W87186  29.787  31.487  23.998 -0.0642 -0.4377 -0.5106
44270W        W87187  29.339  30.798  23.297  0.1940 -0.0353  0.1607
44271W        W87188  31.726  32.375  22.962 -0.2113 -0.5867  0.0974
44272W        W87189  32.196  30.377  20.160 -0.3715  0.3904 -0.0846
44273W        W87190  32.368  30.768  21.892  0.0637 -0.0964 -0.0063
44274W        W87191  29.556  30.066  21.462 -0.1459 -0.2739  0.3244
44275W        W87192  27.789  32.005  22.155  0.0466  0.0609 -0.0435
44276W        W87193  29.013  34.521  20.367 -0.0030 -0.0730  0.0834
44277W        W87194  32.609  31.268  20.074 -0.2015  0.2958  0.1804
44278W        W87195  28.962  32.709  19.987 -0.0373 -0.3165 -0.3641
44279W        W87196  33.160  33.738  22.843  0.1630 -0.0494  0.2620
44280W        W87197  32.964  30.966  20.261 -0.1290 -0.0146 -0.1420
44281W        W87198   0.266  32.984  20.359 -0.1015  0.3969 -0.3511
44282W        W87199  32.808  30.963  21.706 -0.2045  0.0931  0.1104
44283W        W87200  31.491   0.096  24.048 -0.1892 -0.3167 -0.1063
44284W        W87201  29.577  30.615  22.264  0.1932  0.2773  0.3914
44285W        W87202  31.933  29.008  21.809 -0.0146 -0.0107  0.2568
44286W        W87203  30.032  32.063  21.791 -0.4047 -0.3563 -0.0610
44287W        W87204  34.132  28.796  24.250  0.0703 -0.1521 -0.1569
44288W        W87205  30.491  33.683  22.647  0.0913 -0.4626  0.1175
44289W        W87206  33.152  31.677  19.087  0.4247  0.2715 -0.0487
44290W        W87207  29.931  29.573  20.356  0.2063  0.1679  0.0123
44291W        W87208  31.305  30.897  20.172  0.1279 -0.0400  0.0481
44292W        W87209  34.195  28.618  23.777  0.3395 -0.2767 -0.1749
44293W        W87210  31.594  30.814  19.806 -0.0422  0.1177 -0.0212
44294W        W87211  31.552  28.792  24.213  0.1334  0.1255  0.0786
44295W        W87212  30.831  30.916  23.885 -0.0006 -0.1342 -0.1542
44296W        W87213  29.359  32.860  22.509  0.3608 -0.4842 -0.2453
44297W        W87214  30.909  30.068  22.027 -0.2738 -0.2592  0.0342
44298W        W87215  29.910  31.710  21.039 -0.1681 -0.0809 -0.1298
44299W        W87216  33.753  32.075  21.603 -0.1160 -0.2579 -0.0707
44300W        W87217  30.755  29.722  24.741  0.3246  0.0340 -0.2618
44301W        W87218  33.109  30.676  23.465  0.0132 -0.1681  0.0181
44302W        W87219  31.365  30.988  22.361 -0.1510  0.0780 -0.0607
44303W        W87220  32.955  32.061  24.281 -0.0470 -0.2059  0.0184
44304W        W87221  31.759  30.011  22.835 -0.2736 -0.0186 -0.2478
44305W        W87222  28.626  29.526  22.451 -0.2849 -0.0247  0.0299
44306W        W87223  31.304  32.098  20.677  0.1709  0.5050 -0.1275
44307W        W87224  30.986  31.287  22.544  0.1491  0.0218 -0.2330
44308W        W87225  31.727  29.495  21.975 -0.2664 -0.1768 -0.3689
44309W        W87226  32.018  34.516  23.162  0.0073  0.1097 -0.0616
44310W        W87227  28.945  28.285  20.856 -0.0759  0.1039 -0.3676
44311W        W87228  32.562  31.511  23.678  0.0396 -0.2361  0.2218
44312W        W87229  30.766  30.559  21.466  0.1171 -0.0527 -0.1270
44313W        W87230  34.077  31.596  23.945  0.0615 -0.2354 -0.0823
44314W        W87231   0.013  31.736  25.934  0.3963  0.1009 -0.1096
44315W        W87232  29.371  27.780  20.226 -0.2102  0.0166 -0.2579
44316W        W87233  31.639  31.199  20.369 -0.0944  0.2334  0.0715
44317W        W87234  34.168  30.154  22.503  0.1731  0.0878 -0.1213
44318W        W87235  29.062  33.060  20.716 -0.0709  0.1121  0.0320
44319W        W87236  32.276  31.233  21.994 -0.0260 -0.2863  0.1637
44320W        W87237  30.833  32.528  21.559 -0.1504  0.2494  0.1748
44321W        W87238  27.785  30.997  21.454 -0.1459 -0.0525 -0.1751
44322W        W87239  32.419  31.754  21.375 -0.0632  0.1189 -0.2334
44323W        W87240  32.990  32.142  22.261  0.1256 -0.4445  0.0561
44324W        W87241  30.632  29.002  18.857  0.5969 -0.1174 -0.2395
44325W        W87242  29.662  31.947  23.949  0.3531 -0.0436 -0.1798
44326W        W87243  28.686  34.222  21.156 -0.1080  0.1758 -0.1966
44327W        W87244  33.012  30.326  23.847  0.4603 -0.0025  0.0169
44328W        W87245  30.754  28.544  24.938 -0.0915 -0.1202 -0.0965
44329W        W87246  30.359  32.495  21.676  0.3002 -0.3160  0.0015
44330W        W87247  32.403  29.801  25.129  0.1158  0.0610  0.0055
44331W        W87248  31.161  32.436  24.856  0.3859  0.0404 -0.0057
44332W        W87249  31.084  32.984  20.686 -0.0100 -0.1002 -0.0246
44333W        W87250  31.921  32.335  21.416  0.1567  0.0828 -0.1237
44334W        W87251  31.475  28.852  23.676  0.0978  0.2771  0.0366
44335W        W87252  30.649  30.439  22.199 -0.0358  0.1504 -0.0197
44336W        W87253  32.240  32.511  20.020 -0.0873 -0.1524 -0.1753
44337W        W87254  31.505  31.202  22.777 -0.0922 -0.0707  0.0626
44338W        W87255  32.505  30.189  24.043  0.0986  0.3124  0.2756
44339W        W87256  33.565  32.741  21.263 -0.0354  0.1498  0.0919
44340W        W87257  31.371  28.167  21.540 -0.0647 -0.0390  0.0168
44341W        W87258  33.172  30.645  21.800 -0.1042 -0.1162  0.1432
44342W        W87259  33.343  29.551  21.423  0.0056  0.1776  0.1910
44343W        W87260  32.014  31.439  22.789  0.1670 -0.1435  0.1537
44344W        W87261  29.208  29.032  19.443  0.4187 -0.3381  0.2240
44345W        W87262  29.067  30.328  18.790  0.1601  0.0577 -0.3904
44346W        W87263  30.064  29.327  21.936 -0.3019 -0.0404  0.0374
44347W        W87264  30.233  29.539  23.384  0.2925  0.1431 -0.2144
44348W        W87265  29.884  29.838  22.800  0.2123  0.1666 -0.0605
44349W        W87266  30.539  31.532  23.063  0.3338 -0.2953  0.2416
44350W        W87267  30.948  30.019  19.956 -0.1256  0.1226 -0.2867
44351W        W87268  33.165  30.485  20.291  0.2883 -0.0464  0.0348
44352W        W87269  27.600  28.527  22.365  0.0089 -0.0363 -0.0380
44353W        W87270  30.416  29.360  21.124  0.1372  0.1118  0.1339
44354W        W87271  31.456  29.354  21.097  0.1872  0.1298  0.0453
44355W        W87272  33.584  32.669  19.823  0.0808  0.0325  0.2437
44356W        W87273  30.561  28.041  20.571 -0.1803 -0.2812 -0.1661
44357W        W87274  34.628  32.949  25.832  0.6080  0.0678  0.0520
44358W        W87275  28.452  32.853  19.951  0.1651 -0.2008  0.0568
44359W        W87276  30.255  30.663  23.045 -0.0118  0.1049  0.0691
44360W        W87277  30.548  31.827  23.454  0.0557  0.2610 -0.2682
44361W        W87278  29.845  29.573  19.446  0.0353  0.0861 -0.3148
44362W        W87279  31.524  30.164  23.714  0.0506 -0.1716  0.1750
44363W        W87280  32.606  32.941  22.719  0.0343 -0.0992 -0.1499
44364W        W87281  32.663  31.901  20.864  0.0162 -0.0370  0.0206
44365W        W87282  32.278  30.772  22.349  0.5351  0.0123  0.1378
44366W        W87283  32.204  32.788  23.673 -0.1579  0.0201  0.0215
44367W        W87284  28.915  30.617  21.357  0.1815 -0.2397  0.3121
44368W        W87285  33.120  32.023  19.516 -0.1312 -0.0341 -0.0341
44369W        W87286  28.724  30.748  22.457  0.1469 -0.3329 -0.2188
44370W        W87287  32.764  31.240  20.585 -0.1026 -0.1003  0.0424
44371W        W87288  32.342  27.779  23.505 -0.0313 -0.3911 -0.0785
44372W        W87289  32.727  31.173  22.206  0.0187  0.1154  0.0982
44373W        W87290  30.175  27.667  23.888 -0.0185 -0.3217 -0.0065
44374W        W87291  29.989  31.946  24.337 -0.0772  0.5011 -0.0311
44375W        W87292  30.280  32.713  22.493  0.3689 -0.3348  0.1420
44376W        W87293  30.295  29.816  22.538  0.1889 -0.3498 -0.3475
44377W        W87294  31.079  28.840  20.621  0.0888 -0.1702  0.0548
44378W        W87295  33.003  32.532  21.892  0.2078  0.0929  0.0983
44379W        W87296  31.380  31.555  22.422 -0.2754 -0.0287 -0.1271
44380W        W87297  31.265  29.296  23.518 -0.1869  0.0484  0.0788
44381W        W87298  32.251  30.707  23.940 -0.1503 -0.2035  0.1476
44382W        W87299  32.179  30.638  23.295  0.1797  0.1161 -0.1432
44383W        W87300  31.710  31.316  23.856 -0.1708  0.0034 -0.2935
44384W        W87301  30.352  31.615  20.670 -0.1865 -0.1181 -0.0586
44385W        W87302   0.665  31.364  18.538  0.2482  0.0738  0.1848
44386W        W87303  33.374  32.728  22.883  0.0048  0.1543  0.2505
44387W        W87304  31.915  32.303  23.830  0.3084  0.1819 -0.1339
44388W        W87305  32.303  33.276  21.371  0.2601  0.1507  0.1716
44389W        W87306  32.913  32.365  23.913  0.0026 -0.1775  0.0757
44390W        W87307  29.703  29.729  21.862 -0.0029  0.1636 -0.0561
44391W        W87308  31.019  31.370  22.089  0.2327 -0.1167 -0.0161
44392W        W87309  29.387  29.377  22.727  0.0046 -0.1192  0.1585
44393W        W87310  32.684  30.637  25.579 -0.1877  0.1159  0.2036
44394W        W87311  30.607  28.770  20.211 -0.0376 -0.0034 -0.0534
44395W        W87312  32.479  29.907  21.648 -0.0847  0.5406 -0.5100
44396W        W87313  31.467  30.856  21.840 -0.2148 -0.0979  0.3287
44397W        W87314  30.785  32.014  22.982 -0.0519 -0.1217  0.0464
44398W        W87315  29.629  32.442  25.555  0.0339  0.2256 -0.1875
44399W        W87316  29.513  31.780  24.424  0.0162 -0.1335 -0.0847
44400W        W87317  33.301  29.207  25.280  0.2099 -0.0564 -0.1650
44401W        W87318  33.330  31.462  24.577 -0.0679  0.0931 -0.1025
44402W        W87319  29.885  27.418  25.545  0.1384 -0.0392 -0.0422
44403W        W87320  32.060  31.771  24.682  0.3202  0.2281  0.0089
44404W        W87321  29.145  27.868  25.649 -0.1132  0.0599 -0.1139
44405W        W87322  30.643  32.217  26.262 -0.2627 -0.0749  0.0723
44406W        W87323  34.119  32.359  26.242 -0.0757 -0.1133 -0.0111
44407W        W87324  31.975  31.250  25.937  0.1151  0.1315  0.0373
44408W        W87325  30.437  29.511  26.017  0.0908  0.1564  0.2875
44409W        W87326  33.366  33.255  25.229 -0.1536  0.1806 -0.1290
44410W        W87327  29.830  29.947  25.061  0.2741  0.0143  0.1713
44411W        W87328  30.305  27.320  26.110  0.1546  0.0915 -0.2707
44412W        W87329  32.247  31.944  26.266  0.2907  0.0766 -0.1913
44413W        W87330  30.353  31.176  24.097  0.2256 -0.3623  0.2243
44414W        W87331  31.430  28.894  27.411  0.1253  0.2555  0.0122
44415W        W87332  30.554  28.904  23.961  0.2642 -0.4754 -0.0351
44416W        W87333  31.748  33.142  25.935  0.0053  0.0038  0.0327
44417W        W87334  30.439  30.674  27.795 -0.2962  0.1363 -0.0515
44418W        W87335  31.416  29.362  26.463  0.0441 -0.2712 -0.0582
44419W        W87336  31.435  32.822  25.196  0.1759 -0.1962  0.2764
44420W        W87337  30.312  31.322  23.650  0.0554  0.0450  0.0600
44421W        W87338  30.332  29.412  26.633 -0.0417  0.2302  0.0751
44422W        W87339  29.861  29.476  25.274  0.0859 -0.0843  0.0521
44423W        W87340  31.042  29.026  27.134 -0.0269  0.0158  0.2079
44424W        W87341  32.655  29.371  25.131 -0.0879 -0.1104 -0.0730
44425W        W87342  31.044  31.889  25.753  0.1811  0.0268 -0.1060
44426W        W87343  31.718  31.171  26.403  0.2175 -0.1052  0.0898
44427W        W87344  32.855  30.182  27.688  0.1996 -0.0084  0.0400
44428W        W87345  29.721  32.731  25.146  0.4599 -0.0046  0.0402
44429W        W87346  28.415  30.715  23.856 -0.1458  0.3395  0.0082
44430W        W87347  29.953  33.152  25.328 -0.0460  0.1857 -0.2969
44431W        W87348  32.825  31.963  25.316 -0.4885 -0.1479 -0.0134
44432W        W87349  33.275  32.562  25.845 -0.1498 -0.2000  0.1431
44433W        W87350  31.672  34.432  28.254 -0.0970 -0.0237 -0.0377
44434W        W87351  30.218  31.691  25.242  0.4057 -0.3819 -0.1273
44435W        W87352  31.604   0.274  28.020  0.1169  0.0932  0.1516
44436W        W87353  30.961  29.550  26.781  0.0472  0.1866 -0.4692
44437W        W87354  30.607  31.437  25.821  0.0100  0.0696  0.0847
44438W        W87355  31.628  30.964  25.513 -0.1316  0.2447  0.3967
44439W        W87356  30.896  34.596  24.174  0.0753 -0.1917 -0.1365
44440W        W87357  31.458  32.406  25.899  0.3076  0.4349  0.1173
44441W        W87358  29.606  30.593  26.176 -0.0715  0.0567 -0.2852
44442W        W87359  30.929  30.552  26.053 -0.1494 -0.0790 -0.1983
44443W        W87360  31.761  28.398  29.646 -0.0886 -0.3633  0.0382
44444W        W87361  30.040   0.403  24.856 -0.1848 -0.1694 -0.0717
44445W        W87362  31.352  31.731  25.242  0.1002  0.2160 -0.0836
44446W        W87363  31.137  29.342  22.985  0.1003  0.0069  0.0826
44447W        W87364  32.806  31.584  23.198 -0.2846 -0.1443 -0.1967
44448W        W87365  31.156  28.910  24.917 -0.2701  0.2095  0.0564
44449W        W87366  31.015  32.481  26.067 -0.1230  0.2602 -0.0044
44450W        W87367  30.370  31.948  26.625  0.1091  0.1593  0.1017
44451W        W87368  32.610  29.725  26.434 -0.1420 -0.0432 -0.1738
44452W        W87369  31.019  31.582  24.440  0.0332  0.1352  0.0898
44453W        W87370  31.388  29.542  25.938  0.1881  0.2803 -0.1552
44454W        W87371  30.905  31.917  26.556 -0.1049 -0.1003 -0.0445
44455W        W87372  29.158  28.604  23.370 -0.0086  0.0128 -0.0404
44456W        W87373  32.793  33.916  22.540 -0.1948 -0.0064 -0.0468
44457W        W87374  31.552  33.715  22.807  0.2813  0.3471 -0.0235
44458W        W87375  34.024  31.022  22.878  0.1304 -0.0627  0.1129
44459W        W87376  29.823  29.504  24.268 -0.4242  0.2103 -0.0110
44460W        W87377  28.165  30.851  25.223 -0.1376  0.0982 -0.1682
44461W        W87378  30.451  30.929  25.977 -0.2124 -0.1385 -0.2186
44462W        W87379  28.687  29.784  23.662 -0.2451  0.0217 -0.0331
44463W        W87380  32.160  34.208  27.621  0.0174 -0.0477 -0.0206
44464W        W87381  29.416  29.181  27.335 -0.0323  0.2877  0.1191
44465W        W87382  31.698  32.120  24.904  0.1119  0.0286  0.0727
44466W        W87383  30.286  32.138  24.782 -0.2851  0.0880 -0.1502
44467W        W87384  33.550  30.836  25.547  0.0303 -0.1945 -0.3744
44468W        W87385  33.745  31.117  22.150 -0.0701 -0.1796 -0.4058
44469W        W87386  31.008  28.326  27.880 -0.1101 -0.1158 -0.1219
44470W        W87387  30.550  29.756  25.618 -0.2427 -0.1972 -0.1072
44471W        W87388  31.744  30.618  22.982 -0.2543 -0.3619 -0.2060
44472W        W87389  30.803  30.145  22.622  0.2942 -0.3648 -0.1735
44473W        W87390  33.683  31.214  24.036  0.1487 -0.0448  0.0073
44474W        W87391  32.193  31.071  23.596  0.2552  0.0228  0.1424
44475W        W87392  30.134  31.462  26.798 -0.3557 -0.2718 -0.0847
44476W        W87393  30.749  31.679  27.263 -0.2706 -0.2075 -0.3258
44477W        W87394  31.486  30.550  27.282  0.0127 -0.4905 -0.1249
44478W        W87395  31.308  33.966  24.295 -0.1611  0.2336 -0.0724
44479W        W87396  29.069  31.529  23.151 -0.0771 -0.0071 -0.3668
44480W        W87397  29.561  34.312  23.101 -0.0575  0.0373 -0.1580
44481W        W87398  27.671  29.455  25.789  0.0671 -0.2230  0.2681
44482W        W87399  30.514  30.747  27.207 -0.1994 -0.0105  0.0424
44483W        W87400  32.200  33.028  24.169 -0.3104  0.3401  0.0787
44484W        W87401  28.736  28.924  26.688  0.1523  0.1527  0.1086
44485W        W87402  31.084  28.963  26.605 -0.0688  0.1778 -0.0207
44486W        W87403  27.902  31.669  23.246 -0.2296 -0.1044 -0.3838
44487W        W87404  33.057  34.006  24.102 -0.1442  0.0108 -0.2198
44488W        W87405  31.373  30.699  25.140 -0.0476 -0.2874  0.4037
44489W        W87406  31.947  32.325  25.773  0.2378  0.1729  0.1621
44490W        W87407  29.511  30.400  23.595  0.1429  0.1858  0.1104
44491W        W87408  31.153  28.972  25.684  0.0363 -0.1828  0.1105
44492W        W87409  30.517  29.001  26.869 -0.1138 -0.1216  0.0233
44493W        W87410  30.626  29.795  23.793  0.0911 -0.0719  0.2323
44494W        W87411  32.243  30.135  27.838 -0.3824  0.0163  0.0959
44495W        W87412  29.470  29.217  25.164  0.5134 -0.0824 -0.4123
44496W        W87413  33.177  29.725  26.432 -0.1116 -0.2350  0.0741
44497W        W87414  31.646  31.595  26.144  0.1282 -0.2127 -0.1510
44498W        W87415  29.717  32.238  23.577  0.1424  0.2172 -0.2584
44499W        W87416  30.800  27.587  28.707 -0.3060  0.0077 -0.1180
44500W        W87417  30.261  34.110  26.098  0.3650 -0.1538  0.0671
44501W        W87418  34.429  32.002  26.330  0.1716 -0.1499  0.2276
44502W        W87419  32.624  32.412  23.500  0.0618  0.1865  0.3972
44503W        W87420  32.542  31.073  24.614 -0.1534  0.0194  0.1301
44504W        W87421  29.370  29.923  23.006  0.3731  0.1759 -0.0924
44505W        W87422  31.217  31.962  24.699 -0.1019 -0.0520  0.0715
44506W        W87423  33.113  31.278  25.420 -0.0047 -0.0583  0.0268
44507W        W87424  30.170  28.616  24.187  0.0423  0.1999 -0.2217
44508W        W87425  32.200  33.121  28.371 -0.1857  0.0263  0.0555
44509W        W87426  31.166  31.132  25.383 -0.2708 -0.1446  0.0465
44510W        W87427  30.789  32.934  25.837  0.5421  0.0824 -0.0306
44511W        W87428  32.083  28.657  29.262 -0.1830 -0.3195 -0.0986
44512W        W87429  30.642  31.823  24.967  0.1267 -0.2487 -0.3295
44513W        W87430  32.109  31.516  26.586 -0.2484 -0.0481 -0.0760
44514W        W87431  30.453  28.520  23.721 -0.0627 -0.2146 -0.0383
44515W        W87432  31.015  30.776  27.329 -0.1226  0.1966  0.0807
44516W        W87433  29.713  30.563  22.929  0.2281 -0.0547 -0.2996
44517W        W87434  29.441  31.107  22.483 -0.0107 -0.1057 -0.1240
44518W        W87435  31.545  32.344  25.300 -0.3844 -0.2932  0.0512
44519W        W87436  30.126  29.022  28.402  0.0104  0.3786 -0.0674
44520W        W87437  28.464  29.611  28.427 -0.3614 -0.0521 -0.0103
44521W        W87438  33.010  30.583  27.454  0.0790  0.2055 -0.1503
44522W        W87439  28.813  30.628  23.242 -0.1388 -0.0767 -0.0026
44523W        W87440  30.045  30.956  26.940 -0.0886 -0.0529 -0.0983
44524W        W87441  33.625  29.627  24.393  0.1438 -0.1822 -0.0266
44525W        W87442  32.069  29.506  24.623  0.0051 -0.1808  0.0617
44526W        W87443  29.194  30.311  26.737 -0.0833  0.0866 -0.3929
44527W        W87444  31.887  32.169  26.690  0.2132  0.2316 -0.1463
44528W        W87445  32.282  27.351  24.967 -0.1453 -0.0355  0.0496
44529W        W87446  30.271  29.850  21.955  0.1960 -0.0521  0.2293
44530W        W87447  30.229  30.962  25.011 -0.3739  0.0231  0.0687
44531W        W87448  31.759  32.713  25.565  0.0672 -0.0641 -0.1825
44532W        W87449  31.652  31.388  26.904  0.1031  0.0023 -0.4209
44533W        W87450  31.294  29.144  24.451  0.0887  0.0937 -0.0994
44534W        W87451  32.450  32.342  25.581 -0.1633 -0.1240  0.1116
44535W        W87452  29.502  32.560  26.093  0.1704 -0.0662 -0.0888
44536W        W87453  34.086  31.632  26.676  0.3434 -0.0466 -0.0888
44537W        W87454  31.359  32.883  24.584 -0.1940  0.2423  0.0138
44538W        W87455  31.491  29.103  26.908  0.1677  0.2612 -0.2137
44539W        W87456  30.700  31.171  25.186 -0.1720 -0.0002  0.0348
44540W        W87457  33.043  30.420  24.331 -0.2074 -0.2890  0.0233
44541W        W87458  30.298  34.468  22.789  0.2691  0.1233 -0.2358
44542W        W87459  32.129  30.510  26.190 -0.1318 -0.0129 -0.1482
44543W        W87460  32.897  30.102  26.661  0.0203  0.0702  0.0962
44544W        W87461  29.303  29.895  24.947 -0.3347  0.0372 -0.1211
44545W        W87462  34.107  30.278  27.919 -0.1167 -0.2726  0.0539
44546W        W87463  32.561  31.151  25.583  0.2479  0.2257  0.0136
44547W        W87464  31.523  31.762  26.605  0.2052 -0.1587  0.2346
44548W        W87465  30.790  31.607  21.583  0.0884  0.0805 -0.0608
44549W        W87466  29.616  30.093  26.888 -0.1646 -0.1269  0.1914
44550W        W87467  29.415  30.222  25.448 -0.1300  0.0666 -0.1409
44551W        W87468  31.184  32.032  27.239  0.1241 -0.0305  0.1295
44552W        W87469  31.481  31.605  28.828  0.1266 -0.1415 -0.1480
44553W        W87470  30.323  30.713  25.471 -0.1777  0.4529 -0.0140
44554W        W87471  30.425  31.141  27.712 -0.0647 -0.0731  0.0940
44555W        W87472  32.128  30.280  23.627  0.0478  0.0703  0.0709
44556W        W87473  30.952  32.568  23.738  0.3294  0.1073 -0.2330
44557W        W87474  30.978  30.756  23.453 -0.1327  0.1997  0.4076
44558W        W87475  30.333  29.753  24.241 -0.1388  0.1531  0.2170
44559W        W87476  30.989  29.218  26.165  0.0245 -0.3044 -0.3260
44560W        W87477  29.539  33.459  25.608 -0.0442 -0.1989 -0.1142
44561W        W87478  31.736  30.807  25.995 -0.0050  0.2646  0.0479
44562W        W87479  29.612  31.798  25.406  0.1338  0.2481  0.2226
44563W        W87480  31.987  28.288  28.033  0.0020  0.1289  0.3168
44564W        W87481  29.376  31.999  26.256  0.4179  0.1225 -0.1839
44565W        W87482  30.770  30.483  24.375  0.0369  0.4363  0.0656
44566W        W87483  30.903  30.016  23.284 -0.4918  0.0284 -0.0129
44567W        W87484  30.402  29.299  28.061 -0.1316  0.0775  0.1827
44568W        W87485  32.100  30.739  25.664  0.4040  0.3096 -0.1151
44569W        W87486  28.773  28.005  24.475  0.1956 -0.0016 -0.0672
44570W        W87487  32.262  29.995  24.499 -0.0601 -0.0209  0.1953
44571W        W87488  29.681  32.055  25.885 -0.1032  0.0548 -0.1443
44572W        W87489  31.807  30.809  27.029  0.0972 -0.0734 -0.0094
44573W        W87490  30.172  27.461  23.433  0.1542 -0.0515  0.1395
44574W        W87491  32.939  33.060  25.712 -0.0892  0.1044 -0.2082
44575W        W87492  30.882  31.316  27.572 -0.0638  0.0283 -0.0815
44576W        W87493  31.088  30.161  24.026 -0.0830 -0.0483  0.1295
44577W        W87494  32.119  29.814  28.238  0.0042  0.1870 -0.1495
44578W        W87495  30.825  30.898  25.661  0.1788 -0.0566 -0.0377
44579W        W87496  29.966  32.570  24.611 -0.1677  0.0262  0.2855
44580W        W87497  33.414  31.871  25.479  0.0651 -0.3397  0.2435
44581W        W87498  30.217  31.586  22.588  0.3241  0.2787  0.0889
44582W        W87499  30.499  31.711  24.414 -0.1240 -0.2113 -0.2102
44583W        W87500  30.047  30.202  29.148  0.1193  0.1047 -0.1583
44584W        W87501  33.058  31.769  28.484  0.0985 -0.1241  0.0785
44585W        W87502  31.799  29.834  25.115 -0.0261  0.1943 -0.0812
44586W        W87503  28.823  29.627  25.696  0.0998  0.3165  0.0046
44587W        W87504  31.285  29.407  25.404 -0.0483 -0.2053 -0.0864
44588W        W87505  32.695  31.094  28.512  0.0437  0.1562 -0.1479
44589W        W87506  33.634  31.325  27.242 -0.1286  0.0327 -0.0761
44590W        W87507  33.347  32.156  26.129  0.2816  0.0763 -0.2671
44591W        W87508  30.802  29.582  25.223  0.0236 -0.1603  0.1424
44592W        W87509  31.527  33.637  23.399  0.1176  0.0451 -0.0089
44593W        W87510  31.209  29.838  28.443 -0.0871 -0.4198  0.2876
44594W        W87511  29.221  30.390  23.049  0.1086 -0.0846 -0.2525
44595W        W87512  30.365  30.205  25.574 -0.2576 -0.0224  0.2756
44596W        W87513  29.664  31.527  26.086 -0.0807  0.0733  0.0288
44597W        W87514  31.420  28.502  25.793 -0.1377  0.1244  0.1791
44598W        W87515  31.262  30.444  27.764 -0.2122 -0.2403 -0.0911
44599W        W87516  31.713  32.638  24.830 -0.1935  0.1884  0.2436
44600W        W87517  30.049  32.337  26.566  0.1036 -0.1543  0.0952
44601W        W87518  32.387  29.251  26.707 -0.2860  0.0398  0.0514
44602W        W87519  32.604  31.947  25.910  0.2093  0.0606 -0.3221
44603W        W87520  31.758  28.586  26.555 -0.0694  0.0756  0.0954
44604W        W87521  34.354  30.050  26.798  0.1100  0.2120 -0.0361
44605W        W87522  32.138  30.936  24.382  0.0323  0.0347  0.0148
44606W        W87523  30.281  28.412  28.356  0.1020 -0.3237 -0.4396
44607W        W87524  29.996  30.393  25.878 -0.0072 -0.3947  0.1580
44608W        W87525  32.954  30.763  24.650 -0.0573 -0.0086  0.3010
44609W        W87526  29.468  30.727  27.963 -0.0009  0.3684 -0.0583
44610W        W87527  31.464  32.457  27.170 -0.0459 -0.1710 -0.1251
44611W        W87528  30.437  31.270  27.227 -0.0837  0.3292  0.3791
44612W        W87529  30.733  27.776  25.493 -0.1121 -0.1691 -0.0594
44613W        W87530  29.782  29.024  22.761  0.2177 -0.2073 -0.1021
44614W        W87531  31.398  31.164  25.986  0.1853 -0.0274 -0.0850
44615W        W87532  33.315  30.217  28.284  0.0753 -0.1150  0.3302
44616W        W87533  30.294  30.660  24.523  0.3240  0.1621  0.1290
44617W        W87534  33.428  31.592  27.730 -0.2479  0.0988  0.0312
44618W        W87535  30.916  30.763  26.647 -0.1989  0.0212 -0.1439
44619W        W87536  29.999  30.883  26.394 -0.0704 -0.1106 -0.2357
44620W        W87537  31.329  30.308  22.831  0.3385 -0.0319 -0.0666
44621W        W87538  30.314  32.391  24.320 -0.0396  0.0157  0.1504
44622W        W87539  30.223  28.607  28.910 -0.1396 -0.1023 -0.2780
44623W        W87540  30.692  30.076  25.224 -0.0699  0.1007  0.0736
44624W        W87541  31.170  30.211  25.260  0.1164 -0.1786 -0.0861
44625W        W87542  29.781  30.046  27.459  0.2904 -0.1187  0.1089
44626W        W87543  31.698  30.037  28.442 -0.0698 -0.1591  0.2888
44627W        W87544  31.392  30.471  26.774 -0.0720  0.0424  0.0401
44628W        W87545  28.617  30.100  28.510 -0.2069 -0.0370 -0.2634
44629W        W87546  32.531  33.015  26.817  0.0017 -0.1438  0.1504
44630W        W87547  33.371  30.782  26.116 -0.1851  0.0509  0.0835
44631W        W87548   0.982  29.176  26.629  0.1489  0.0376 -0.4108
44632W        W87549  31.519  29.903  25.597 -0.0848 -0.3130 -0.0319
44633W        W87550  33.019  30.778  25.156 -0.0517 -0.2215  0.1724
44634W        W87551  30.878  30.321  25.664  0.2729  0.3583  0.2283
44635W        W87552  30.567  29.806  26.460 -0.0607  0.2231  0.3469
44636W        W87553  30.015  30.153  23.181 -0.2517  0.1345  0.0142
44637W        W87554  33.608  29.704  30.038 -0.0488  0.0349  0.1184
44638W        W87555  32.690  32.774  24.054  0.0090 -0.0628  0.1801
44639W        W87556  33.399  31.057  24.953 -0.1436  0.0033  0.2701
44640W        W87557  31.617  31.608  24.842 -0.0163  0.3456  0.0135
44641W        W87558  29.370  31.783  24.887 -0.1713  0.0386 -0.1099
44642W        W87559  30.540  30.874  28.329 -0.2011  0.0941  0.3907
44643W        W87560  29.239  31.952  23.661 -0.1447  0.0870  0.2528
44644W        W87561  30.910  30.623  25.244 -0.1336 -0.3388 -0.0212
44645W        W87562  31.011  29.886  25.625 -0.2418  0.2283  0.0265
44646W        W87563  33.559  30.310  26.261 -0.0900 -0.0863 -0.5899
44647W        W87564  31.872  30.209  26.795 -0.2187 -0.0628 -0.0662
44648W        W87565  32.789  31.694  27.582  0.2484 -0.0955  0.1490
44649W        W87566  27.731  32.629  25.656 -0.0326  0.0633  0.1695
44650W        W87567  32.650  28.880  26.423 -0.0996  0.1057 -0.0578
44651W        W87568  30.598  32.057  27.515 -0.0817  0.2462 -0.0498
44652W        W87569  29.059  31.297  24.857 -0.0686  0.3231 -0.1399
44653W        W87570  31.287  31.994  26.214  0.2874 -0.0587 -0.3718
44654W        W87571  32.792  30.117  26.162 -0.0981  0.2635 -0.4119
44655W        W87572  30.620  29.919  26.920 -0.0204  0.2047  0.0977
44656W        W87573  29.985  30.892  25.846  0.3946 -0.2732  0.2286
44657W        W87574  34.097  28.891  26.951 -0.1496 -0.1462 -0.2315
44658W        W87575  31.985  31.237  24.743  0.0753 -0.0425 -0.0397
44659W        W87576  31.330  31.554  27.439 -0.0497 -0.3012  0.2030
44660W        W87577  32.335  32.759  30.267  0.1102 -0.0122 -0.2538
44661W        W87578  32.387  31.451  26.181  0.4222 -0.1831  0.1001
44662W        W87579  29.540  31.277  24.541  0.0717 -0.0218 -0.2107
44663W        W87580  30.261  31.721  27.236  0.0413 -0.1791 -0.2516
44664W        W87581  29.913  31.278  27.394  0.0505 -0.0682 -0.0167
44665W        W87582  30.250  32.242  27.033 -0.0126 -0.0363 -0.0963
44666W        W87583  31.117  28.540  24.555  0.0261  0.0788  0.1908
44667W        W87584  32.102  31.732  24.096  0.0082 -0.0667 -0.2030
44668W        W87585  30.856  30.522  28.200  0.2590 -0.3669  0.0567
44669W        W87586  29.013  29.783  24.082 -0.1219  0.0993 -0.1681
44670W        W87587  30.829  33.086  23.578  0.1133  0.0662  0.2027
44671W        W87588  31.820  32.707  24.310 -0.0222 -0.2580 -0.1538
44672W        W87589  30.698  31.505  26.770  0.2390 -0.2451 -0.1517
44673W        W87590  33.180  30.980  26.557 -0.0453 -0.3448  0.0013
44674W        W87591  31.415  32.308  23.870 -0.1110  0.0149 -0.1020
44675W        W87592  32.059  32.494  25.264 -0.3455  0.1006 -0.1752
44676W        W87593  29.426  33.029  23.337  0.0357  0.0059  0.3816
44677W        W87594  32.977  32.190  24.938  0.0651  0.0675 -0.1522
44678W        W87595  30.352  33.924  23.979 -0.2759  0.1426  0.1549
44679W        W87596  31.657  31.211  28.207 -0.0097 -0.0077  0.0872
44680W        W87597  32.112  28.246  23.441  0.0688  0.1955 -0.1491
44681W        W87598   0.376  31.114  25.981 -0.3036  0.2284  0.0400
44682W        W87599   0.409  29.525  25.280  0.0779  0.0325  0.1843
44683W        W87600  31.040  31.858  28.735  0.2921  0.0813 -0.2614
44684W        W87601  30.444  30.492  26.780 -0.2176 -0.1271 -0.0118
44685W        W87602  30.440  29.302  25.407  0.0368 -0.1693  0.0654
44686W        W87603  30.212  31.254  25.566 -0.2189 -0.4314 -0.1578
44687W        W87604  32.180  29.364  27.240 -0.5785 -0.1905 -0.3306
44688W        W87605  29.753  34.232  27.515  0.0155  0.1346  0.3098
44689W        W87606  32.265  32.419  24.230 -0.1959 -0.0844 -0.3484
44690W        W87607  29.370  30.395  24.616  0.2786  0.0639 -0.1834
44691W        W87608  30.773  32.153  24.490  0.2720 -0.0749 -0.1342
44692W        W87609  31.906  30.285  27.317 -0.0502 -0.0556  0.3133
44693W        W87610  32.046  33.729  24.727 -0.0178 -0.2651 -0.2932
44694W        W87611  31.320  29.767  27.526  0.1750 -0.1033 -0.1566
44695W        W87612  30.880  31.088  26.135 -0.3474 -0.1690 -0.3544
44696W        W87613  30.450  30.512  26.279  0.0560  0.2340  0.2959
44697W        W87614  29.429  32.888  24.715 -0.0371  0.0115 -0.3077
44698W        W87615  29.158  30.816  26.472 -0.0467  0.4040  0.1171
44699W        W87616  33.726  29.903  24.759 -0.3032 -0.0507 -0.0542
44700W        W87617  29.371  28.693  27.000  0.2931 -0.0978  0.1714
44701W        W87618  32.976  29.053  28.436  0.1508 -0.2143  0.1139
44702W        W87619  29.870  29.994  22.347 -0.0993  0.0259 -0.0340
44703W        W87620  30.243  29.807  28.274  0.1274  0.0407  0.4451
44704W        W87621  33.123  30.483  27.952 -0.1201 -0.1289 -0.1156
44705W        W87622  30.108  29.901  26.149 -0.0663  0.0138  0.0400
44706W        W87623  32.442  32.086  23.863  0.4991 -0.2220 -0.1596
44707W        W87624  31.434  32.245  28.537 -0.2882 -0.1079  0.0161
44708W        W87625  33.233  31.637  25.054 -0.0203  0.0253  0.1248
44709W        W87626  34.590  33.740  29.067 -0.0274 -0.0669  0.0039
44710W        W87627  29.067  30.275  25.045  0.0736 -0.3716 -0.1234
44711W        W87628  31.793  28.119  23.055 -0.1642  0.1889  0.1069
44712W        W87629  28.879  30.671  23.802  0.0449 -0.1187  0.0257
44713W        W87630  29.165  29.325  26.537  0.0830  0.2080  0.0259
44714W        W87631  31.728  31.689  28.417 -0.3469  0.1669  0.1203
44715W        W87632  29.580  29.097  24.518  0.1999  0.0437  0.0879
44716W        W87633  33.516  30.308  24.568  0.2151  0.0191 -0.1882
44717W        W87634  33.039  31.186  26.991  0.0417  0.1802 -0.1935
44718W        W87635  30.749  32.320  23.356  0.3206 -0.2298  0.2942
44719W        W87636  31.739  30.731  24.572 -0.0511 -0.0215 -0.0428
44720W        W87637  33.051  32.124  25.752  0.2527  0.3091  0.0984
44721W        W87638  28.802  28.668  25.739  0.0335  0.0257  0.3258
44722W        W87639  31.236  31.207  23.208 -0.1537 -0.1491  0.2044
44723W        W87640  33.095  30.805  25.702  0.3384  0.1257 -0.0353
44724W        W87641  32.423  28.107  25.710  0.2084 -0.1704  0.1234
44725W        W87642  28.885  31.111  23.352  0.1799  0.1429 -0.2409
44726W        W87643  29.286  32.207  24.148 -0.4798  0.2766 -0.1891
44727W        W87644  33.477  30.138  26.874 -0.5298 -0.0481  0.2789
44728W        W87645  31.944  30.823  29.024 -0.0563 -0.1771 -0.0228
44729W        W87646  29.871  30.998  23.100  0.2113  0.0581  0.2622
44730W        W87647  31.061  29.335  27.496 -0.3026  0.0161 -0.0555
44731W        W87648  32.948  32.508  27.780  0.1407  0.0372 -0.0534
44732W        W87649  29.743  33.137  27.496 -0.0454  0.0032 -0.0031
44733W        W87650  28.352  31.858  24.490  0.2485 -0.2498  0.1953
44734W        W87651  31.412  30.919  27.729  0.1848 -0.2686  0.0261
44735W        W87652  29.816  32.267  25.076  0.1671 -0.2404  0.2192
44736W        W87653  31.485  31.577  23.320  0.1250 -0.0873  0.1851
44737W        W87654  32.164  32.218  24.727 -0.0672  0.0890 -0.0193
44738W        W87655  31.309  30.712  25.754  0.2715 -0.1417 -0.0979
44739W        W87656  32.517  31.932  23.389  0.0067  0.2016 -0.1772
44740W        W87657  30.835  29.312  23.815 -0.1094 -0.1814 -0.2667
44741W        W87658  33.523  29.649  23.884  0.3630  0.1398 -0.2355
44742W        W87659  34.465  31.336  27.058  0.0733  0.1539  0.0313
44743W        W87660  31.639  31.912  27.114 -0.0150  0.0766 -0.1325
44744W        W87661  28.529  29.420  23.101 -0.2025 -0.2865 -0.0006
44745W        W87662  30.384  33.917  24.730 -0.1208  0.0340 -0.1496
44746W        W87663  29.859  31.002  24.217 -0.1297 -0.4673 -0.0387
44747W        W87664  30.211  28.685  29.407  0.0601  0.0727 -0.0484
44748W        W87665  33.371  29.168  28.192 -0.0395  0.0682  0.2902
44749W        W87666  28.179  30.415  25.510 -0.2046  0.1583  0.2128
44750W        W87667  30.264  30.304  22.695 -0.1248  0.3659 -0.2655
44751W        W87668  30.670  30.848  24.803 -0.2187 -0.1258 -0.3816
44752W        W87669  30.364  28.819  25.076  0.0339  0.2610  0.3307
44753W        W87670  29.690  29.489  25.782 -0.1422  0.0460 -0.1764
44754W        W87671  30.127  29.569  24.679 -0.1606  0.0682 -0.0307
44755W        W87672  32.266  32.777  24.808  0.1314 -0.3154  0.0298
44756W        W87673  30.242  30.305  24.151 -0.0578  0.2792  0.1776
44757W        W87674  32.049  31.695  27.310  0.0297  0.2730  0.0970
44758W        W87675  29.393  29.857  24.431 -0.2199  0.1588  0.1445
44759W        W87676  31.737  30.068  27.932  0.1894  0.0736 -0.0579
44760W        W87677  31.756  32.093  26.183 -0.0407  0.0273 -0.1065
44761W        W87678  28.800  29.516  24.453 -0.1371 -0.1249  0.0059
44762W        W87679  30.573  29.465  27.141  0.2965 -0.3318  0.2092
44763W        W87680  30.872  32.647  24.501 -0.2504  0.1508 -0.0788
44764W        W87681  32.280  33.042  26.322 -0.1396 -0.2625 -0.2488
44765W        W87682  30.918  30.917  27.839  0.1890 -0.0110  0.0276
44766W        W87683  30.146  32.043  27.664 -0.2445  0.1576 -0.1197
44767W        W87684  28.532  28.259  28.223 -0.3861  0.3774  0.3387
44768W        W87685  31.645  32.635  26.770  0.0476 -0.2525  0.0944
44769W        W87686  32.817  31.974  27.035 -0.2436  0.0745  0.3073
44770W        W87687  31.602  31.794  23.796  0.2485  0.1605  0.2072
44771W        W87688  33.937  28.080  27.281 -0.1008  0.3138  0.0615
44772W        W87689  32.358  32.867  25.397  0.0916  0.0883 -0.1150
44773W        W87690  28.746  30.446  27.193  0.3604  0.0513 -0.0519
44774W        W87691  30.554  33.879  26.492  0.1352  0.1564 -0.0149
44775W        W87692  32.376  30.301  25.845  0.0119 -0.0328  0.0775
44776W        W87693  27.204  27.967  25.702  0.1864 -0.0867  0.3861
44777W        W87694  32.955  30.667  26.852 -0.1449  0.2631 -0.2972
44778W        W87695  31.450  32.468  26.364  0.1537 -0.2621  0.4208
44779W        W87696  29.551  30.649  25.658 -0.2296  0.2313  0.0355
44780W        W87697  30.795  28.933  24.534  0.0699 -0.1404  0.0803
44781W        W87698  32.789  30.614  26.068  0.0472  0.5701  0.1813
44782W        W87699  29.723  29.528  26.497 -0.6622 -0.1424 -0.0831
44783W        W87700  31.168  29.992  26.843  0.1829  0.0938 -0.0729
44784W        W87701  31.153  31.399  26.447 -0.0481  0.0724 -0.0843
44785W        W87702  31.209  29.764  24.978 -0.1064  0.0209  0.0311
44786W        W87703  30.635  32.724  25.399 -0.0330 -0.0406 -0.0331
44787W        W87704  32.867  33.385  26.715 -0.1116 -0.1391 -0.2284
44788W        W87705  30.874  30.447  27.037  0.0552  0.1114 -0.0112
44789W        W87706  32.077  31.238  25.391  0.0204 -0.1014  0.2061
44790W        W87707  29.179  29.271  25.782  0.2896  0.0758  0.0548
44791W        W87708  30.489  31.357  24.740  0.0771 -0.1021 -0.1540
44792W        W87709  31.623  31.459  25.627  0.0607 -0.1537  0.0289
44793W        W87710  31.277  30.038  26.006 -0.0679 -0.0159 -0.2992
44794W        W87711  29.811  31.023  23.606 -0.0877 -0.0548 -0.1500
44795W        W87712  33.008  28.780  25.580 -0.0034  0.1359  0.1077
44796W        W87713  30.956  33.347  27.165  0.2128 -0.0393  0.1654
44797W        W87714  32.708  31.235  26.563  0.6357  0.2155 -0.0040
44798W        W87715  30.224  32.022  29.486 -0.0124  0.3440  0.1666
44799W        W87716  28.379  30.514  28.160 -0.1737 -0.1109 -0.0548
44800W        W87717  32.608  32.709  28.518  0.0662 -0.0214 -0.0307
44801W        W87718  33.515  34.101  29.205  0.1431  0.1612 -0.1236
44802W        W87719  27.797  28.925  28.787 -0.2787  0.0813 -0.0159
44803W        W87720  32.407  33.382  29.107 -0.2278 -0.1050 -0.0379
44804W        W87721  29.892  30.067  29.723  0.2032  0.0306 -0.1974
44805W        W87722  32.682  32.920  29.955  0.3846 -0.1586 -0.3006
44806W        W87723  32.523  30.788  30.702  0.0712 -0.1993 -0.0572
44807W        W87724  32.078  32.016  28.309  0.1504 -0.3755  0.3632
44808W        W87725  29.762  32.669  29.015 -0.1256 -0.0532  0.3903
44809W        W87726  31.890  29.440  31.445 -0.1637  0.1490 -0.1125
44810W        W87727  28.997  29.495  28.618  0.1898  0.1321  0.0408
44811W        W87728  27.982  29.045  29.360 -0.0930  0.0301  0.0699
44812W        W87729  30.166  29.113  30.968  0.2515  0.1686 -0.0374
44813W        W87730  27.193  30.366  26.699  0.0457  0.5177 -0.2585
44814W        W87731  31.343  31.265  30.601  0.2394  0.2264 -0.0955
44815W        W87732  29.974  29.682  27.721  0.1877 -0.3140 -0.0280
44816W        W87733  32.882  31.864  29.015 -0.2781  0.1821 -0.5183
44817W        W87734  31.000  27.595  29.763 -0.0904 -0.2369  0.2841
44818W        W87735  31.991  28.933  31.358 -0.0365 -0.2583  0.1055
44819W        W87736  30.040  30.284  27.124  0.2712 -0.4580 -0.3529
44820W        W87737  27.533  30.089  27.041  0.0815 -0.3201  0.2918
44821W        W87738  30.318  33.488  30.632 -0.0015  0.3408 -0.2737
44822W        W87739  29.205  29.952  28.568  0.3828 -0.2279 -0.0175
44823W        W87740  32.036  28.282  30.379 -0.0041  0.1367 -0.1139
44824W        W87741  33.123  29.928  31.374 -0.0185 -0.0430 -0.2311
44825W        W87742  29.762  32.807  27.974  0.1854  0.1657  0.1837
44826W        W87743  31.631  30.463  29.729  0.1738  0.2285  0.0991
44827W        W87744   0.856  31.394   0.219 -0.1468 -0.1501  0.0038
44828W        W87745  28.900  31.636  29.477 -0.1214 -0.1329  0.1529
44829W        W87746  30.138  30.999  28.639  0.0996 -0.0997  0.3177
44830W        W87747  31.797  29.824  29.302  0.1541  0.2254 -0.0461
44831W        W87748   0.746  31.700  28.574 -0.1069 -0.0336 -0.0474
44832W        W87749  32.542  30.808  29.686 -0.1165 -0.1865 -0.0743
44833W        W87750  31.566  29.935  29.745  0.0625 -0.0598  0.2514
44834W        W87751  29.956  31.558  27.860 -0.0642  0.3791  0.1745
44835W        W87752  32.991  31.823  30.007 -0.0951 -0.0373 -0.4072
44836W        W87753  32.002  31.920  30.096 -0.4225 -0.3519 -0.2470
44837W        W87754  31.110  29.203  30.993 -0.2669  0.1616 -0.0238
44838W        W87755  32.472  30.732  28.315  0.0415  0.1048  0.4065
44839W        W87756  32.510  32.883  29.100  0.0360 -0.1771  0.4777
44840W        W87757  33.467  31.469  28.278  0.3507  0.2012 -0.0502
44841W        W87758  30.484  29.313  31.353 -0.4112 -0.0587  0.0330
44842W        W87759  30.839  29.840  27.358 -0.1815 -0.0742 -0.0393
44843W        W87760  33.089  29.287  29.059  0.1276  0.0972  0.1903
44844W        W87761  29.146  30.925  28.896  0.0911 -0.2276  0.0868
44845W        W87762  33.361  31.061  28.038 -0.1020  0.4729 -0.0958
44846W        W87763  31.621  29.527  28.306 -0.0084 -0.2788 -0.4920
44847W        W87764  32.862  31.524  29.372  0.2183 -0.0978 -0.0107
44848W        W87765  32.236  29.008  29.580  0.4520 -0.2411 -0.3414
44849W        W87766  33.533  33.288  28.209  0.0131  0.0906 -0.1439
44850W        W87767  27.257  30.486  27.203  0.2756  0.2134 -0.1077
44851W        W87768  31.961  32.669  29.260  0.1025  0.0731 -0.0709
44852W        W87769  31.416  30.599  28.976 -0.0171  0.0723  0.1663
44853W        W87770  29.790  28.316  29.895 -0.1082  0.0364  0.1806
44854W        W87771  31.086  33.707  29.988 -0.2423  0.0679  0.1087
44855W        W87772  29.923  30.154  28.058 -0.2852 -0.1163 -0.0353
44856W        W87773  31.164  31.637  26.937  0.1274 -0.0089  0.2037
44857W        W87774  34.491  31.183  28.430 -0.0530 -0.0180  0.3239
44858W        W87775  31.568  31.222  29.157  0.0864 -0.2410 -0.0015
44859W        W87776  32.997  31.470  28.045  0.0510 -0.0554 -0.0522
44860W        W87777  29.990  30.103  31.100 -0.0509  0.0237  0.0028
44861W        W87778  30.146  29.608  31.119  0.0886  0.0429 -0.1956
44862W        W87779  31.812  28.608  25.448 -0.3199 -0.4355 -0.0857
44863W        W87780  32.399  32.942  31.580  0.2405 -0.0917 -0.0487
44864W        W87781  29.388  33.963  31.603  0.0668 -0.0641  0.1289
44865W        W87782   0.151  29.859   0.250 -0.1138  0.0988  0.0756
44866W        W87783  32.574  29.904  29.999 -0.2530 -0.0462  0.0740
44867W        W87784  31.059  29.617  30.220 -0.3547  0.1965  0.0179
44868W        W87785  32.430  30.138  28.554  0.3342 -0.4018 -0.0168
44869W        W87786  31.344  29.471  30.572  0.2068 -0.1046 -0.1000
44870W        W87787  31.651  28.969  29.486  0.0050 -0.0012 -0.0188
44871W        W87788  30.848  29.092  28.049  0.1363 -0.0638 -0.1126
44872W        W87789  32.301  29.660  29.606 -0.2810 -0.3345  0.1186
44873W        W87790  32.561  30.206  29.525  0.0680  0.0278 -0.4278
44874W        W87791  33.854  29.862  27.554 -0.1127 -0.1676 -0.0644
44875W        W87792  30.472  33.134  29.310 -0.0017  0.2026  0.1052
44876W        W87793  30.628  29.932  31.952  0.2392 -0.3318 -0.0117
44877W        W87794  30.520  32.255  31.330 -0.1367 -0.0365 -0.0433
44878W        W87795  30.641   0.538  27.968 -0.1893  0.0899  0.2188
44879W        W87796  30.286  32.519  29.786  0.3240  0.0393  0.2155
44880W        W87797  28.906  29.880  28.170 -0.0254 -0.1007 -0.0391
44881W        W87798  29.096  30.563  29.231 -0.0189 -0.1669 -0.2121
44882W        W87799  30.958  30.972  30.355 -0.0224 -0.1024 -0.3975
44883W        W87800  33.684  30.558  28.026 -0.0021 -0.3042  0.1433
44884W        W87801  27.922  29.251  28.374 -0.3190 -0.0676 -0.0910
44885W        W87802  34.044  26.917  30.505 -0.1658 -0.0049 -0.0559
44886W        W87803  31.582  30.672  28.081 -0.2430 -0.3885  0.3680
44887W        W87804  33.531  32.444  27.987 -0.2185  0.1569 -0.0725
44888W        W87805   0.355  30.698  30.147  0.1945  0.3436 -0.0913
44889W        W87806  33.969  33.514  28.394  0.0868  0.1036 -0.0076
44890W        W87807  27.403  30.330  28.034  0.0172 -0.2471  0.1835
44891W        W87808  28.044  29.611  29.206  0.2709  0.0355  0.0490
44892W        W87809  30.293  30.051  30.752 -0.2548  0.1850  0.0861
44893W        W87810  30.568  28.156  27.043  0.3679 -0.1626 -0.2971
44894W        W87811  30.674  31.241  30.740  0.2800 -0.0139  0.4034
44895W        W87812  29.705  29.607  27.194  0.1186 -0.2171  0.0601
44896W        W87813  33.111  30.177  29.455  0.0586  0.0029  0.0749
44897W        W87814  32.783  28.168  27.726  0.1361 -0.1301  0.1851
44898W        W87815  29.591  30.121  26.415 -0.0268 -0.1234 -0.0080
44899W        W87816  33.301  31.035  31.902 -0.1325  0.1384  0.0169
44900W        W87817  32.111  31.230  27.063  0.2187  0.0686  0.1019
44901W        W87818  32.646  34.075  29.721  0.1637 -0.1842  0.0556
44902W        W87819  31.993  33.462  28.695  0.2170 -0.3646  0.1005
44903W        W87820  30.947  29.397  28.923  0.2837 -0.0348 -0.0249
44904W        W87821  28.558  29.099  28.475 -0.2089 -0.3331  0.1066
44905W        W87822  30.509  32.636  27.080  0.0395 -0.5270 -0.0080
44906W        W87823  30.294  31.062  29.723  0.1832  0.0232  0.0852
44907W        W87824  32.923  30.010  27.181  0.1168 -0.0440 -0.0233
44908W        W87825   0.105  33.365  30.769  0.0217  0.0305 -0.1800
44909W        W87826  31.390  29.550  31.289 -0.1034 -0.0697  0.0500
44910W        W87827  29.029  32.750  29.632 -0.0124 -0.0381 -0.0694
44911W        W87828  32.188  28.480  30.813  0.0311 -0.1871 -0.1677
44912W        W87829  31.993  31.404  30.154  0.1725 -0.4460 -0.0800
44913W        W87830  30.694  30.672  29.916 -0.0008 -0.1334 -0.2544
44914W        W87831  31.932  29.737  27.033 -0.0897  0.0999  0.3764
44915W        W87832  31.669  34.407  28.750 -0.2319  0.0994  0.2915
44916W        W87833  30.690  33.016  26.712  0.1351 -0.0450  0.3164
44917W        W87834  29.913  33.199  30.515 -0.0830  0.0701  0.2543
44918W        W87835  31.024  33.996  28.023  0.1054 -0.2074 -0.1225
44919W        W87836  31.405  29.520  29.284 -0.3029 -0.3293 -0.3302
44920W        W87837  28.584  30.070  30.849 -0.1301 -0.1743 -0.0763
44921W        W87838  33.400  28.695  30.505  0.3110 -0.3085  0.0615
44922W        W87839  30.060  30.506  29.982 -0.0670 -0.0875 -0.0958
44923W        W87840  29.229  33.807  30.474 -0.1817  0.1371 -0.2559
44924W        W87841  30.684  29.123  30.019  0.1688  0.0352  0.3639
44925W        W87842  32.356  29.927  27.370 -0.3261  0.0458 -0.2527
44926W        W87843  31.308  33.545  29.049 -0.0151 -0.2185  0.1606
44927W        W87844  30.359  30.565  29.489 -0.2503 -0.2277 -0.0222
44928W        W87845  30.180  29.776  29.435 -0.0079 -0.1728  0.0141
44929W        W87846  31.769  29.275  26.010  0.0128 -0.0220  0.1039
44930W        W87847  31.573  31.056  28.669  0.0837  0.1083  0.0058
44931W        W87848  29.425  29.644  28.863 -0.0255  0.0133  0.1982
44932W        W87849  30.395  28.913  30.467 -0.2300 -0.1598  0.0559
44933W        W87850  32.931  30.959  28.945 -0.2163  0.0284 -0.1329
44934W        W87851  32.584  32.405  27.130  0.2244  0.0838  0.2903
44935W        W87852  31.072  31.226  28.872 -0.0466  0.1208 -0.3783
44936W        W87853  30.092  33.101  31.422 -0.0507 -0.0354 -0.0549
44937W        W87854  32.277  33.311  27.798  0.2065 -0.1635  0.2895
44938W        W87855  30.801  27.974  29.512  0.1147 -0.0736  0.3556
44939W        W87856  30.235  31.283  28.165  0.2526  0.1206 -0.2409
44940W        W87857  29.139  30.060  29.299 -0.1987 -0.0910 -0.0844
44941W        W87858  29.642  33.580  26.719  0.1738  0.3780  0.3147
44942W        W87859  32.987  30.047  28.614  0.3925 -0.2706  0.0230
44943W        W87860  31.425  28.011  29.838  0.0341 -0.0380  0.2198
44944W        W87861  29.850  28.673  30.711  0.0078 -0.2156  0.1633
44945W        W87862  32.634  29.436  30.816  0.2760  0.0077  0.2989
44946W        W87863  32.881  30.905  28.036 -0.0647 -0.3188  0.0295
44947W        W87864  31.128  30.141  29.826  0.0851 -0.0671 -0.1082
44948W        W87865  30.980  29.839  29.395  0.1353  0.1839  0.0642
44949W        W87866  31.042  28.548  29.226 -0.1891  0.0737 -0.1602
44950W        W87867  31.758  28.891  29.942  0.0008 -0.2222 -0.2199
44951W        W87868  28.566  34.339   0.229  0.3791 -0.1552 -0.0082
44952W        W87869  31.197  30.752  29.809  0.3425  0.2726 -0.1223
44953W        W87870  31.765  30.349  29.236 -0.1801  0.0262 -0.4134
44954W        W87871  31.960  29.446   1.743 -0.3700  0.0680 -0.4848
44955W        W87872  28.824  29.876  28.914  0.1588 -0.0735 -0.3248
44956W        W87873  31.698  32.333  28.086 -0.0374 -0.2288 -0.1538
44957W        W87874  29.413  30.234  27.715  0.2453  0.0753  0.0818
44958W        W87875  33.438  28.372  30.906 -0.0083  0.0296 -0.0562
44959W        W87876  30.837  32.311  28.492  0.0631 -0.0184 -0.0880
44960W        W87877  30.345  30.376  28.415 -0.0683  0.1665 -0.1896
44961W        W87878  32.333  31.316  29.788 -0.2315 -0.1483 -0.0413
44962W        W87879  30.031  32.525  30.723 -0.0698 -0.1009  0.1673
44963W        W87880  33.100  29.411  30.891  0.1736  0.2195  0.0136
44964W        W87881  28.979  32.128  29.603  0.1338  0.0017 -0.2278
44965W        W87882  29.567  30.392  30.038 -0.1515  0.0134  0.1926
44966W        W87883  29.558  28.792  27.678 -0.0561  0.1064  0.1961
44967W        W87884  33.201  29.758  29.053 -0.1739 -0.0403 -0.1602
44968W        W87885  34.018  30.587  28.902  0.1051  0.3326  0.0631
44969W        W87886  31.360  30.056  30.337  0.2655  0.0208 -0.0429
44970W        W87887  32.523  31.272  27.929 -0.2158 -0.0019  0.0698
44971W        W87888  28.761  34.012   0.619 -0.1663  0.1000  0.2528
44972W        W87889  32.005  29.827  30.087 -0.1882 -0.0633 -0.0353
44973W        W87890  32.082  29.829  28.715  0.1112  0.1330 -0.0964
44974W        W87891  32.122  31.212  30.580 -0.0681  0.2499 -0.2845
44975W        W87892  29.764  31.554  30.011 -0.1781 -0.1376 -0.0605
44976W        W87893  27.656  29.575  27.426  0.2118 -0.3374 -0.0789
44977W        W87894  30.255  28.286  29.739  0.2185 -0.0159 -0.2076
44978W        W87895  30.766  29.617  28.313  0.0222 -0.2875  0.3802
44979W        W87896  29.618  31.231  29.658 -0.2443  0.0639  0.0505
44980W        W87897  32.664  32.243  28.700 -0.0020  0.0725  0.4621
44981W        W87898  29.463  30.906  29.291  0.1788 -0.0225 -0.2490
44982W        W87899  32.148  32.815  27.937 -0.2908  0.2195  0.1783
44983W        W87900  31.998  27.205  29.901 -0.0815  0.1059  0.0816
44984W        W87901  34.460  31.685  28.345  0.0712  0.2512  0.2991
44985W        W87902  30.935  28.108  28.933 -0.4119 -0.1366 -0.0865
44986W        W87903  29.964  30.357  28.695  0.1508  0.1914  0.1439
44987W        W87904  30.078  29.937  30.204 -0.3965 -0.1309 -0.4424
44988W        W87905  32.116  31.255  29.324  0.0227 -0.2751  0.1246
44989W        W87906  31.965  30.418  28.772  0.2775  0.0710  0.1437
44990W        W87907  30.844  30.616  31.248  0.1314  0.1798  0.0636
44991W        W87908  30.458  30.210  29.793 -0.1509 -0.1867  0.0734
44992W        W87909  31.947  33.087  26.810 -0.0942  0.3990  0.0725
44993W        W87910  30.928  30.337  30.235 -0.1340  0.1972 -0.1271
44994W        W87911  29.531  30.130  28.903  0.0362 -0.1877 -0.2546
44995W        W87912  28.141  30.874  28.590  0.0094 -0.1584  0.2842
44996W        W87913  29.205  31.696  27.084  0.0291 -0.3282 -0.2914
44997W        W87914  28.958  28.935  28.910 -0.2342  0.0734 -0.1569
44998W        W87915  32.092  31.313  28.854 -0.0041 -0.1148 -0.3556
44999W        W87916  30.601  31.419  29.090 -0.2384  0.1343  0.1822
45000W        W87917  30.243  32.635  31.291 -0.1961 -0.1020  0.4666
45001W        W87918  32.832  30.523  29.264 -0.3386 -0.2067 -0.0264
45002W        W87919  31.418  29.989  28.904 -0.0746 -0.1983  0.0417
45003W        W87920  28.237  29.205  28.882 -0.0657  0.1889 -0.1856
45004W        W87921  32.272  29.970  31.363 -0.3410 -0.1300 -0.3620
45005W        W87922  33.421  30.970  29.080  0.0176 -0.1567 -0.0326
45006W        W87923  30.784  30.218  31.594  0.2094  0.1327 -0.0838
45007W        W87924  29.071  28.983  28.410 -0.1757  0.4042  0.1368
45008W        W87925  34.179  32.120  28.031 -0.0727 -0.2069 -0.2725
45009W        W87926  30.412  28.757  31.484 -0.1145 -0.1172 -0.3013
45010W        W87927  31.850  32.172  28.872  0.0103  0.0782  0.1354
45011W        W87928  29.260  30.782  29.777  0.2789 -0.4925  0.1318
45012W        W87929  30.168  29.407  30.084 -0.3756  0.2033  0.2260
45013W        W87930  31.694  29.325  27.345 -0.2013 -0.1698 -0.2696
45014W        W87931  32.061  30.779  29.537  0.1885 -0.1701 -0.2776
45015W        W87932  33.542  31.176  29.502  0.0700  0.0751 -0.2118
45016W        W87933  30.478  29.478  29.110  0.3943  0.1208  0.0007
45017W        W87934  32.071  30.070  29.652 -0.1287 -0.2658 -0.3347
45018W        W87935  28.658  30.269  29.430  0.2689 -0.1233 -0.2302
45019W        W87936  30.082  27.903  28.159  0.1050 -0.1579 -0.1263
45020W        W87937  31.094  31.901  27.716  0.0959  0.3374  0.0899
45021W        W87938  29.653  31.055  28.785 -0.3391  0.3043  0.1476
45022W        W87939  29.102  27.934  30.046 -0.0267  0.0837 -0.0264
45023W        W87940  32.793  30.963  30.100 -0.0587  0.3292 -0.0735
45024W        W87941  32.174  29.363  28.491 -0.0974 -0.0478  0.1022
45025W        W87942  33.913  28.944  30.395  0.1318  0.0091  0.0186
45026W        W87943  30.010  30.016  31.903 -0.0578 -0.2445 -0.2455
45027W        W87944  29.732  28.407  31.549 -0.0111  0.4000 -0.0565
45028W        W87945  27.803  29.908  30.956  0.3036 -0.0035  0.0906
45029W        W87946  31.739  32.281   0.276 -0.0420  0.1154  0.1888
45030W        W87947   0.937  31.153  29.206  0.0859  0.0291  0.0032
45031W        W87948  33.278  28.925  31.545 -0.1633 -0.0969  0.1513
45032W        W87949  33.976  31.500  29.066 -0.1660  0.0460 -0.0457
45033W        W87950  30.330  29.150  27.507 -0.1102  0.1367 -0.0585
45034W        W87951  29.403  31.203  30.100 -0.1007  0.1006  0.0612
45035W        W87952  29.799  30.840  30.542  0.1885  0.0028  0.1927
45036W        W87953  30.482  31.053  26.463  0.0191  0.1685  0.1694
45037W        W87954  31.700  28.946  30.851  0.1418 -0.2685 -0.0475
45038W        W87955  30.631  31.381  28.592 -0.1714  0.0893  0.2446
45039W        W87956  31.449  31.663  29.978 -0.1556 -0.0476  0.4376
45040W        W87957  34.343  30.113  30.671 -0.0474 -0.0497 -0.0039
45041W        W87958  27.106  28.258  29.660 -0.3125  0.0286  0.0873
45042W        W87959  29.135  33.056  31.127 -0.4327  0.4534  0.0164
45043W        W87960  30.223  30.250  27.628  0.0070 -0.1998 -0.1738
45044W        W87961  30.288  28.230  27.848 -0.1650 -0.0084  0.2034
45045W        W87962  31.087  30.386  30.852  0.1795  0.1689 -0.0818
45046W        W87963  30.468  30.427   0.051  0.1281 -0.1128 -0.1892
45047W        W87964  32.037  28.094  28.496 -0.3428 -0.1323 -0.2037
45048W        W87965  32.962  28.549  30.156  0.0107 -0.0363 -0.2139
45049W        W87966  31.512  32.919  29.233 -0.1205  0.0315 -0.3209
45050W        W87967  32.707  30.336  28.173  0.0734  0.0152  0.1958
45051W        W87968  31.049  32.344  31.014 -0.1904 -0.2844  0.1807
45052W        W87969  30.078  31.959  30.461 -0.0079 -0.2427  0.0312
45053W        W87970  30.468  30.386  28.922  0.1376 -0.1710 -0.1609
45054W        W87971  30.357  29.881  28.723 -0.3366  0.0498 -0.3799
45055W        W87972  33.279  30.588  30.204  0.1565 -0.0878 -0.1149
45056W        W87973  31.393  30.736  31.493 -0.0012  0.2151  0.2223
45057W        W87974  30.931  29.399  31.877 -0.1919  0.1417 -0.2536
45058W        W87975  29.714  28.178  30.383  0.3220 -0.3015  0.2869
45059W        W87976  32.679  30.501  28.784  0.0892 -0.1419  0.3723
45060W        W87977  32.315  30.904  30.206  0.1515 -0.0897 -0.0207
45061W        W87978  34.249  31.340  28.004  0.0151 -0.0367  0.3866
45062W        W87979  30.740  31.746  30.988  0.2751  0.1274  0.0925
45063W        W87980  29.914  31.086  30.087  0.2106  0.0649 -0.2717
45064W        W87981  32.191  30.262  31.785 -0.0976  0.0801 -0.0241
45065W        W87982  29.723  31.614  28.307  0.2485  0.0815 -0.0858
45066W        W87983  31.143  29.303  28.485 -0.4285  0.1949  0.2096
45067W        W87984  32.021  32.124  27.765 -0.0124  0.0601 -0.2152
45068W        W87985  29.311  31.818  29.267  0.2278  0.3409  0.2095
45069W        W87986  31.080  30.021  27.991 -0.1075  0.1628  0.1436
45070W        W87987  28.348  33.957  28.599 -0.1606  0.4216  0.1239
45071W        W87988  33.668  30.958  28.529  0.0162  0.0552 -0.2796
45072W        W87989  33.846  30.885  30.392  0.0881  0.2091  0.2340
45073W        W87990  32.064  32.157  29.633 -0.0455  0.2278  0.0792
45074W        W87991  32.623  29.317  29.799 -0.1525 -0.1389  0.0136
45075W        W87992  29.375  33.667  29.231  0.0077  0.2019 -0.0183
45076W        W87993  29.275  31.361  28.565 -0.2129  0.3452  0.3028
45077W        W87994  31.198  33.042  28.780 -0.2375  0.0369  0.0415
45078W        W87995  31.733  33.334  29.090 -0.4210  0.1361 -0.4849
45079W        W87996  31.355  28.902  31.317 -0.0220 -0.0703 -0.0419
45080W        W87997  32.573  29.177  28.728 -0.0381  0.1859  0.1198
45081W        W87998  33.800  30.124  30.870  0.0748 -0.0326  0.1693
45082W        W87999  34.446  30.804  28.825  0.1251  0.0067  0.4813
45083W        W88000  30.158  31.473  31.018  0.2074  0.1490  0.1041
45084W        W88001  27.266  32.113  28.987 -0.3425  0.1876  0.1756
45085W        W88002  29.575  30.476  27.204 -0.0396 -0.2383 -0.0786
45086W        W88003  30.957  29.679   0.335  0.2100 -0.1615  0.3653
45087W        W88004  33.191  29.402  31.432  0.0368  0.1114 -0.0416
45088W        W88005  31.058  32.223  30.117 -0.3412 -0.2141 -0.3564
45089W        W88006  34.636  32.136  27.529  0.4800  0.3697 -0.0095
45090W        W88007  31.508  30.086  27.163  0.0228 -0.1010  0.1103
45091W        W88008  29.569  30.372  29.433 -0.0587 -0.2519  0.2510
45092W        W88009  32.940  29.532   0.312  0.0480  0.1105  0.3944
45093W        W88010  33.456  32.762  28.387 -0.3755  0.2493  0.0509
45094W        W88011  30.411  29.615  30.466 -0.3932 -0.1040 -0.2149
45095W        W88012  32.173  31.618  27.960 -0.0677  0.0594  0.2244
45096W        W88013  31.058  30.789  29.313 -0.0016 -0.0527  0.3438
45097W        W88014  32.418  32.349  29.309 -0.0419 -0.1113 -0.0004
45098W        W88015  29.839  28.788  29.109 -0.0565 -0.1752 -0.4405
45099W        W88016  32.062  30.584  30.636 -0.0968  0.0148 -0.1066
45100W        W88017  33.015  29.816  28.167 -0.0186 -0.0235 -0.0173
45101W        W88018  32.994  28.984   0.168 -0.3598 -0.0176 -0.2553
45102W        W88019  31.753  31.211  29.658 -0.0605  0.0748  0.0670
45103W        W88020  30.903  29.291  29.398  0.1960  0.1774 -0.2599
45104W        W88021  30.699  31.609  29.694 -0.2234  0.1646 -0.0844
45105W        W88022  30.164  30.523  30.642  0.0546  0.0348 -0.0086
45106W        W88023  30.246  29.854  27.342  0.1056 -0.1458 -0.0857
45107W        W88024  30.821  29.677  31.458  0.2885  0.0181 -0.1863
45108W        W88025  33.939  31.814  28.557  0.0656  0.0871 -0.0456
45109W        W88026  31.461  31.827  30.886 -0.0232 -0.0358  0.2364
45110W        W88027  30.826  29.853  28.908 -0.2308 -0.5036  0.1023
45111W        W88028  29.767  29.327  28.678 -0.1957  0.1026 -0.0992
45112W        W88029  30.174  32.299  29.050 -0.0035  0.1597  0.0121
45113W        W88030  31.857  28.825  28.002 -0.0376  0.1370 -0.0394
45114W        W88031  31.743  34.388  31.525 -0.2003  0.0550 -0.0331
45115W        W88032  27.137  29.539  29.143  0.3939 -0.0414 -0.1901
45116W        W88033  31.159  30.939  28.272  0.0626  0.2089 -0.1647
45117W        W88034  32.964  30.761  31.473 -0.1399 -0.0754 -0.2157
45118W        W88035  29.868  31.884  26.841  0.1882  0.0948 -0.0489
45119W        W88036  33.430  30.080  30.316  0.0979 -0.0984  0.1584
45120W        W88037  33.570  31.423  28.742  0.2251 -0.0603 -0.1964
45121W        W88038  29.211  29.799  27.585 -0.2344  0.0814  0.0721
45122W        W88039  31.741  34.598  29.285 -0.1358 -0.1340 -0.0749
45123W        W88040  33.052  31.009  29.442 -0.0155 -0.2381 -0.0832
45124W        W88041  31.550  28.477  28.352 -0.1494  0.1743 -0.1190
45125W        W88042  30.243  30.972  30.839  0.1500 -0.2387  0.3419
45126W        W88043  29.974  33.177  28.953  0.1188 -0.2192 -0.2615
45127W        W88044   0.039  30.180  29.026  0.2950  0.0697 -0.1496
45128W        W88045  31.877  27.499  30.732  0.3632 -0.1828 -0.3145
45129W        W88046  31.215  29.535  27.979  0.0003  0.0465 -0.1255
45130W        W88047  32.694  30.763   0.423 -0.0604 -0.0191  0.0702
45131W        W88048  33.277  31.540  29.767  0.2974  0.1005  0.2364
45132W        W88049  30.779  32.777  31.241  0.0658  0.1106  0.2797
45133W        W88050  30.830  30.764  28.744 -0.3301  0.1693  0.1647
45134W        W88051  31.089  30.117   0.598 -0.6005 -0.3887 -0.0568
45135W        W88052  32.285  31.318  28.349 -0.2129 -0.1367 -0.0764
45136W        W88053  31.918  30.822  28.440 -0.1393  0.1786  0.3413
45137W        W88054  34.054  31.285  28.615 -0.5280 -0.2175 -0.1787
45138W        W88055  28.649  31.411  30.349 -0.1873  0.0714  0.2604
45139W        W88056  33.856  32.296  28.897 -0.1120  0.0674  0.1582
45140W        W88057  29.152  30.614  27.555 -0.0198  0.2282 -0.2002
45141W        W88058  31.656  29.533  28.781 -0.2131  0.0059  0.3221
45142W        W88059  32.448  28.266  28.200 -0.1170  0.0479 -0.1118
45143W        W88060  30.418  30.342  30.285  0.2877  0.2441 -0.2259
45144W        W88061  29.992  29.708  28.974  0.1449 -0.2352  0.0814
45145W        W88062  29.535  29.853  27.992 -0.3012  0.2166  0.2081
45146W        W88063  30.244  32.665  28.094 -0.3259 -0.4306 -0.1038
45147W        W88064  29.993  30.115   1.017 -0.1783 -0.0219  0.1070
45148W        W88065  30.704  28.499   0.038 -0.0192 -0.0685 -0.0974
45149W        W88066  29.476  32.188  29.822  0.0821  0.1046  0.2197
45150W        W88067  27.907  30.497  28.079 -0.1478  0.0816 -0.1507
45151W        W88068  31.233  32.972  26.753  0.1840 -0.1022 -0.0814
45152W        W88069  27.823  30.057  27.875  0.1415  0.0755  0.1847
45153W        W88070  29.638  28.989  28.192 -0.2690 -0.2704  0.1930
45154W        W88071  33.098  30.959  30.589  0.0632 -0.2246 -0.1451
45155W        W88072  33.111  33.015  27.924 -0.3415 -0.1789  0.1507
45156W        W88073  31.408  28.181  28.755 -0.0345  0.1169 -0.0117
45157W        W88074  33.646  30.454  28.612  0.3341 -0.0470 -0.1988
45158W        W88075  29.137  30.164  27.285  0.2051 -0.1060  0.2164
45159W        W88076  30.336  30.470  31.339 -0.0345 -0.0693 -0.0757
45160W        W88077  30.655  28.430  30.434  0.2720  0.0358  0.1471
45161W        W88078  27.194  27.291  26.338  0.0305 -0.0554  0.0955
45162W        W88079  28.763  30.662  29.655 -0.1273  0.1824 -0.1064
45163W        W88080  30.705  31.209  29.997 -0.0175  0.1459 -0.3413
45164W        W88081  31.968  32.334  27.202  0.1042  0.0688  0.1542
45165W        W88082  31.295  29.744  31.736  0.1178 -0.1494  0.3425
45166W        W88083  32.929  32.022  31.641  0.2119 -0.1154  0.0859
45167W        W88084  27.927  29.478  29.723  0.1696 -0.1539 -0.3421
45168W        W88085  30.631  29.866  30.078  0.1859 -0.0500 -0.1597
45169W        W88086  31.710  30.914  30.566 -0.0502  0.0059 -0.4222
45170W        W88087  32.548  30.404  27.299  0.2863  0.4099  0.2298
45171W        W88088   0.909  29.994  31.202  0.3609  0.1578  0.1020
45172W        W88089  33.072  31.438  28.880 -0.0115  0.1012 -0.0464
45173W        W88090  28.590  26.469  28.014  0.0593  0.1305  0.1024
45174W        W88091  32.501  30.571  27.788  0.3492 -0.1468 -0.0176
45175W        W88092   0.409  32.844  29.938  0.1948  0.0601  0.3385
45176W        W88093  30.554  30.033  29.314  0.0239  0.1147  0.3266
45177W        W88094  32.680  30.430  30.065  0.0652  0.1458 -0.1157
45178W        W88095  32.526  32.382  28.166  0.0246 -0.1502 -0.0033
45179W        W88096  31.282  30.260  29.368  0.0587  0.0781 -0.1695
45180W        W88097  31.631  28.322  30.169 -0.0107  0.1878 -0.0115
45181W        W88098  28.970  30.963   0.186  0.0374 -0.1273 -0.2254
45182W        W88099  32.488  31.448  30.235  0.0922  0.2205  0.0397
45183W        W88100  33.408  31.740  30.484  0.1897  0.1987  0.3264
45184W        W88101  29.776  28.817  27.254 -0.0180  0.2870  0.1484
45185W        W88102  33.377  32.510  28.853  0.0491  0.1407 -0.1382
45186W        W88103  30.584  33.464  29.831  0.0862  0.1025  0.3888
45187W        W88104  31.666  31.148  31.618 -0.1593  0.0051  0.0226
45188W        W88105  32.779  33.691  28.626 -0.0727 -0.2066 -0.1615
45189W        W88106  33.069  29.056  30.513  0.2493 -0.2382 -0.1410
45190W        W88107  28.634  30.659  28.555 -0.1560 -0.2890  0.1394
45191W        W88108  30.809  33.531  29.092  0.0077 -0.3715  0.0299
45192W        W88109  30.069  31.524  28.650  0.0607  0.0513 -0.0550
45193W        W88110  34.139  29.695  30.845 -0.0583 -0.0822  0.1917
45194W        W88111  28.575  29.021  30.301 -0.1435  0.2834 -0.0695
45195W        W88112  31.735  29.123  28.499 -0.1212  0.0669 -0.0067
45196W        W88113  31.540  31.676  29.443  0.0564  0.2290 -0.0228
45197W        W88114  30.991  32.650  30.540 -0.2183  0.3494  0.0852
45198W        W88115  31.347  28.702  29.786  0.0799  0.1934  0.1786
45199W        W88116  31.047  31.091  31.417 -0.1107 -0.1435  0.1479
45200W        W88117  29.818  29.782  31.475 -0.2873 -0.1027  0.1887
45201W        W88118  29.539  32.002   0.155 -0.0349 -0.1424 -0.1269
45202W        W88119  27.786  32.799   0.286 -0.1249  0.2375  0.1052
45203W        W88120  28.255  33.414   1.005  0.1274  0.0133 -0.0602
45204W        W88121  30.665  28.971  30.970 -0.0152  0.0948 -0.1526
45205W        W88122  28.402  29.413  29.567  0.2214 -0.1930  0.0043
45206W        W88123  30.961  28.812  30.243 -0.0534 -0.2754 -0.2083
45207W        W88124  30.554  33.042  31.665 -0.1022 -0.2899  0.0470
45208W        W88125  30.441  31.740  31.414 -0.1612  0.1068  0.0221
45209W        W88126  30.127  27.871  30.130 -0.0766 -0.3724 -0.2126
45210W        W88127  30.932  30.909   0.238 -0.1165  0.1858 -0.0781
45211W        W88128  28.209  29.258  30.587 -0.0477  0.0621 -0.2681
45212W        W88129  32.683  29.563  31.375  0.0232 -0.0909  0.0868
45213W        W88130  29.563  31.467  30.516 -0.1617 -0.1038  0.0510
45214W        W88131  27.807  30.713  31.472  0.0556  0.0025  0.2891
45215W        W88132  31.220  30.846  30.908  0.0444 -0.1910  0.1288
45216W        W88133  30.074  30.973  31.311 -0.0586  0.3623 -0.1180
45217W        W88134  27.317  30.464  31.602  0.2460  0.1850 -0.2085
45218W        W88135  29.764  28.898  29.596 -0.1394  0.0034  0.0132
45219W        W88136  29.941  31.798  31.336  0.1131  0.0870  0.1110
45220W        W88137  33.993  29.822   0.520  0.2539  0.1502 -0.3181
45221W        W88138  30.226  30.755   0.729 -0.2621 -0.2012  0.1540
45222W        W88139  32.699  29.445  30.264  0.1603  0.1531  0.0637
45223W        W88140  31.259  28.539  31.948  0.2140  0.1361  0.0688
45224W        W88141  31.051  31.669  30.607 -0.3155  0.1215 -0.0280
45225W        W88142  29.027  32.134  30.165  0.0893  0.1113  0.0529
45226W        W88143  29.129  31.564  30.315  0.1699  0.0728  0.1091
45227W        W88144  29.913  30.742  31.830  0.0925 -0.0632  0.0069
45228W        W88145  30.404  30.908  30.333  0.0722 -0.0605  0.1120
45229W        W88146  28.560  30.577   0.142 -0.0233  0.2960  0.0691
45230W        W88147  30.933  30.719  31.771 -0.1895  0.1203 -0.2874
45231W        W88148  31.522  27.800   0.256  0.0155 -0.0553  0.0344
45232W        W88149  30.705  31.547   0.373  0.1126  0.0393 -0.0614
45233W        W88150  29.409  30.934   0.012 -0.0766 -0.2565  0.0237
45234W        W88151  30.184  32.713  31.795  0.1877 -0.0876  0.0273
45235W        W88152  32.718  30.279   0.251 -0.2006 -0.2149 -0.1663
45236W        W88153  31.395  29.246  31.733  0.0283  0.2298  0.0468
45237W        W88154  32.134  32.244  31.942  0.2514 -0.0260  0.5248
45238W        W88155  34.032  30.470   0.366  0.4416 -0.2657 -0.1881
45239W        W88156  30.434  31.199   0.894  0.0815 -0.0198 -0.2733
45240W        W88157  28.850  29.325  28.152 -0.1412  0.0872  0.0603
45241W        W88158  30.333  32.017  30.916 -0.2931 -0.0746 -0.2039
45242W        W88159  28.193  30.402  29.392  0.0131 -0.0279  0.0209
45243W        W88160  31.431  31.096  30.126 -0.0607 -0.1808  0.1209
45244W        W88161  29.906  28.772  31.276  0.1797  0.3991  0.2782
45245W        W88162  28.453  30.760  30.102  0.4044  0.0263 -0.0316
45246W        W88163  30.124  29.238   0.354 -0.1995  0.0358  0.1973
45247W        W88164  31.272  30.382  28.437 -0.1688 -0.4011 -0.6064
45248W        W88165  31.342  33.257   0.111 -0.1308  0.0245 -0.2589
45249W        W88166  30.631  29.521  30.937 -0.2728 -0.1954 -0.1595
45250W        W88167  31.150  28.372  31.330  0.1235  0.2105  0.0591
45251W        W88168  29.060  30.086  30.609  0.0467  0.0610  0.0110
45252W        W88169  30.950  28.377  29.819  0.2212 -0.1392 -0.0081
45253W        W88170  31.400  31.863  31.708  0.0623  0.3045  0.1184
45254W        W88171  33.401  30.848  30.972  0.1087 -0.2814 -0.0312
45255W        W88172  32.513  33.304  30.304 -0.3983 -0.0610 -0.3235
45256W        W88173  32.540  32.818  30.699  0.1504 -0.0174 -0.1287
45257W        W88174  28.323  32.256  30.398 -0.0094  0.1991  0.1101
45258W        W88175  29.784  31.127  30.930  0.0619  0.1653 -0.3046
45259W        W88176  29.456  30.614  28.669  0.0350 -0.0877 -0.0220
45260W        W88177  31.523  30.830  29.447 -0.5093  0.0932  0.1126
45261W        W88178  30.922  27.547   1.605 -0.2220 -0.1626 -0.2836
45262W        W88179  32.452  32.340  29.995 -0.0587 -0.0472  0.2405
45263W        W88180  31.662  32.190   1.376  0.1576  0.2293  0.2252
45264W        W88181  32.198  31.415  31.496  0.2581 -0.1427  0.1980
45265W        W88182  30.488  32.585  18.331 -0.0736  0.1192  0.0433
45266W        W88183  31.983  33.254  16.968  0.1412 -0.0599  0.0951
45267W        W88184  32.717   0.187  18.578  0.1005 -0.3824  0.2271
45268W        W88185  29.689  34.031  20.384  0.1319  0.0133  0.1408
45269W        W88186  31.268  32.257  23.093  0.3848 -0.2558  0.1045
45270W        W88187  30.405  34.560  17.261 -0.2544 -0.4110 -0.1275
45271W        W88188  30.249  34.643  18.829  0.2454  0.0084 -0.1532
45272W        W88189  30.850  31.336  19.376 -0.0258 -0.2686  0.1337
45273W        W88190  28.944  30.227  18.330 -0.4476 -0.0398 -0.0255
45274W        W88191  32.883   0.614  18.895 -0.0566 -0.0950 -0.3064
45275W        W88192  31.219  32.467  18.282 -0.0481  0.3982  0.3258
45276W        W88193  31.246   1.181  19.314 -0.1855 -0.2836 -0.3032
45277W        W88194  31.869  33.761  17.974 -0.2131 -0.4220  0.2429
45278W        W88195  30.321  32.609  19.359  0.2989  0.1792 -0.1528
45279W        W88196  32.544  32.857  21.323 -0.0408 -0.1316  0.0503
45280W        W88197  28.937  33.550  18.297 -0.1933 -0.1128  0.5324
45281W        W88198  26.987  34.313  18.114  0.1186 -0.0659  0.1631
45282W        W88199  28.990   0.704  19.782 -0.0771 -0.2648 -0.0819
45283W        W88200  31.423   0.716  19.134 -0.5023  0.0252 -0.2176
45284W        W88201   0.063   1.279  18.231 -0.0774  0.3318  0.0673
45285W        W88202  31.552  33.138  19.637 -0.1820 -0.2135 -0.0617
45286W        W88203  30.636   1.300  20.927  0.3160  0.3684  0.0373
45287W        W88204  31.191  33.157  19.959 -0.0541  0.0526 -0.0711
45288W        W88205  34.062  33.563  20.521  0.2755 -0.0864 -0.0160
45289W        W88206  31.744  34.464  17.288  0.1637  0.2447  0.3903
45290W        W88207  31.488  32.521  16.279 -0.0349 -0.0846  0.1836
45291W        W88208  33.079  34.234  17.878  0.1378 -0.0861  0.3001
45292W        W88209  31.254  31.981  18.202 -0.0238 -0.1812 -0.0866
45293W        W88210  31.411  32.231  18.677 -0.1144 -0.0049 -0.1486
45294W        W88211  31.151  32.482  17.690  0.1520  0.1740 -0.1698
45295W        W88212  31.019   1.353  18.420 -0.0948  0.0684 -0.2410
45296W        W88213  28.745   2.302  19.826  0.2831 -0.2296  0.0615
45297W        W88214  29.077  34.057  18.364  0.1797 -0.3966 -0.0534
45298W        W88215  30.821  34.512  19.495 -0.1475 -0.1991 -0.0688
45299W        W88216  29.251   1.447  18.945  0.1537 -0.1579 -0.2198
45300W        W88217  31.097  32.130  17.192 -0.1191  0.0045 -0.1547
45301W        W88218  32.751   0.519  17.840  0.1243 -0.0499  0.0543
45302W        W88219  32.529  34.293  17.964  0.4839 -0.0262 -0.1077
45303W        W88220  32.792  31.393  18.300 -0.1611 -0.2128 -0.3628
45304W        W88221  32.474  33.210  16.631  0.2928  0.1187  0.4103
45305W        W88222  31.241  32.536  20.836  0.2774 -0.0486 -0.3630
45306W        W88223  30.326   0.571  19.094  0.1337 -0.0021 -0.1717
45307W        W88224  30.908  33.349  18.750 -0.1269  0.0833 -0.1212
45308W        W88225  31.452  31.651  20.511  0.1229  0.1838 -0.0705
45309W        W88226  32.828  33.733  18.082 -0.0220 -0.1462 -0.0409
45310W        W88227  31.447  33.388  16.889 -0.1660 -0.1803  0.2794
45311W        W88228  28.809   0.203  19.035 -0.0718  0.0783  0.0405
45312W        W88229  32.433  33.843  19.061 -0.2474 -0.2490 -0.1035
45313W        W88230  31.054  33.741  18.105 -0.3347 -0.0138  0.0189
45314W        W88231  31.064  33.302  19.520  0.0025  0.0754 -0.3690
45315W        W88232  33.201  34.328  19.490  0.3536  0.1330  0.1932
45316W        W88233  31.066  31.920  18.983  0.0907 -0.0304  0.1970
45317W        W88234  30.612  33.418  17.556  0.0642  0.1702 -0.1394
45318W        W88235  30.353  33.453  17.998  0.1145 -0.1123  0.0125
45319W        W88236  31.712  33.421  18.261  0.0761 -0.2744 -0.1219
45320W        W88237  29.724  33.351  20.960  0.0611 -0.0300  0.1342
45321W        W88238  29.749  33.536  18.383 -0.0495  0.0196 -0.0878
45322W        W88239  30.867  33.689  17.245 -0.0665 -0.0076 -0.0068
45323W        W88240  29.510  34.489  20.489 -0.1630  0.0833 -0.0750
45324W        W88241  33.813  33.793  18.185  0.0576  0.0812  0.3720
45325W        W88242  29.906  33.223  18.010  0.2408  0.0009 -0.2732
45326W        W88243  29.756   0.145  18.750 -0.0510 -0.2558 -0.2968
45327W        W88244  32.385  32.974  18.991 -0.0581 -0.2586  0.3471
45328W        W88245  24.665  32.693  18.748  0.2175  0.1308  0.1598
45329W        W88246  31.711  34.147  19.553 -0.0639 -0.2553 -0.1416
45330W        W88247  28.966  33.307  17.107 -0.0848 -0.0370 -0.3037
45331W        W88248  31.533  31.278  17.527 -0.1740 -0.0206 -0.2782
45332W        W88249  31.370  31.782  17.410  0.0737 -0.5272  0.1214
45333W        W88250  31.429  33.308  16.382  0.0303 -0.0722 -0.1207
45334W        W88251  31.103  34.105  16.718 -0.0974 -0.2184  0.0452
45335W        W88252  30.623  33.876  17.655 -0.3955 -0.2047 -0.1456
45336W        W88253  31.789  31.994  17.498  0.0849 -0.3091 -0.2315
45337W        W88254  31.010  33.604  16.774  0.2520  0.1290 -0.2016
45338W        W88255  32.278  33.697  18.246  0.1138  0.1242  0.0651
45339W        W88256  31.547  34.445  18.247 -0.0015 -0.1578 -0.0023
45340W        W88257  30.787  31.679  20.399 -0.1120 -0.0551 -0.1519
45341W        W88258  32.258  33.597  20.954  0.0891 -0.4042  0.3464
45342W        W88259  33.651   0.058  18.133  0.1245  0.0800 -0.1662
45343W        W88260  32.406   0.876  18.062 -0.0181 -0.0146  0.3402
45344W        W88261  33.391   1.745  18.270 -0.0127  0.1166 -0.2915
45345W        W88262  30.932  32.657  17.065  0.1201 -0.0586  0.1824
45346W        W88263  31.196  31.928  20.169 -0.2196  0.2427  0.1810
45347W        W88264  31.476   0.544  21.442 -0.1907  0.0447 -0.2939
45348W        W88265  30.777  34.509  16.858 -0.1534 -0.1457  0.0640
45349W        W88266  32.274  32.175  19.251 -0.0529 -0.0164 -0.0829
45350W        W88267  33.561  32.157  17.694  0.0600  0.1888  0.1332
45351W        W88268  31.320  33.162  18.798  0.0732 -0.1497 -0.0400
45352W        W88269  30.361  33.671  17.205  0.0278 -0.1644 -0.0182
45353W        W88270  31.238   0.412  16.852  0.1451  0.0364  0.0097
45354W        W88271  29.471  34.437  18.544  0.0826  0.0489  0.2118
45355W        W88272  31.643   0.309  19.384  0.0113  0.2088 -0.1505
45356W        W88273  32.661   0.595  21.664  0.2249 -0.2267  0.0533
45357W        W88274  32.968  32.348  16.316 -0.0497  0.1716  0.2397
45358W        W88275  29.034   0.778  21.867 -0.2999  0.2711 -0.0008
45359W        W88276  29.297  33.280  18.102  0.0320  0.0677  0.2185
45360W        W88277  33.456  32.604  18.185  0.2464  0.1525 -0.1203
45361W        W88278  30.550  34.083  18.137 -0.1519 -0.2289  0.1803
45362W        W88279  31.335  33.853  17.118  0.2780  0.0025 -0.0324
45363W        W88280  30.447  34.198  22.269  0.3618  0.2183 -0.2113
45364W        W88281  30.658  33.540  19.270 -0.2579 -0.1454  0.0737
45365W        W88282  28.853   1.858  20.630  0.0567 -0.1332 -0.2375
45366W        W88283  31.438  31.797  19.419  0.1834 -0.6200  0.0405
45367W        W88284  31.311  34.521  18.698  0.1069  0.0158  0.3946
45368W        W88285  31.452  34.027  18.008  0.3622 -0.1666  0.2771
45369W        W88286  30.640  34.534  20.379 -0.0580  0.3398 -0.1057
45370W        W88287  31.220  30.569  19.564  0.0104  0.0202  0.3304
45371W        W88288  32.607  32.306  17.850 -0.0176 -0.0460 -0.1256
45372W        W88289  30.650   1.147  20.214 -0.3180 -0.1097 -0.3985
45373W        W88290  32.332  32.140  18.708 -0.0547 -0.1361 -0.0467
45374W        W88291  31.561  34.310  16.810 -0.0877  0.1880  0.1996
45375W        W88292  31.903  33.215  20.562  0.4121 -0.2834  0.2651
45376W        W88293  29.920  31.677  19.248  0.1689 -0.1016 -0.1482
45377W        W88294  26.807   0.491  19.590  0.4198  0.2148  0.1440
45378W        W88295  32.253  34.073  20.670 -0.0013  0.1627 -0.0441
45379W        W88296  30.867  32.748  18.057 -0.1294  0.2312 -0.0590
45380W        W88297  29.389  31.596  17.572  0.0359  0.2018  0.0158
45381W        W88298  30.625  33.116  18.317 -0.1879  0.2119 -0.2025
45382W        W88299  33.297   0.922  16.851 -0.0522 -0.1407 -0.0350
45383W        W88300  30.217  34.044  19.769  0.0665 -0.0011  0.0928
45384W        W88301  31.262  34.617  17.160  0.1418  0.0990  0.0160
45385W        W88302  30.648  34.008  20.550 -0.2464  0.0764 -0.0602
45386W        W88303  34.103  32.243  19.328  0.0070 -0.0457  0.0051
45387W        W88304  29.424  34.469  21.577 -0.2938  0.3313  0.0510
45388W        W88305  31.886  34.426  20.803  0.0246 -0.1182  0.1741
45389W        W88306  30.505   2.207  19.184  0.1434  0.0944 -0.2247
45390W        W88307  29.709  33.438  21.691 -0.0484  0.0422  0.1574
45391W        W88308  34.134  31.880  17.027 -0.3425  0.0709 -0.3288
45392W        W88309  31.598  32.371  17.936 -0.2263  0.3488  0.2938
45393W        W88310  33.069  34.491  18.620  0.2803  0.0708  0.1142
45394W        W88311  32.412  33.359  17.778  0.2214 -0.0747 -0.1292
45395W        W88312  29.390  33.045  19.832 -0.2617 -0.0775  0.1081
45396W        W88313  30.699  32.789  22.218 -0.1944  0.1538 -0.2216
45397W        W88314  31.822  33.845  16.993 -0.0827 -0.1146  0.1645
45398W        W88315  33.140  32.234  18.121 -0.1029 -0.0479  0.0473
45399W        W88316  31.877  32.837  18.043 -0.0182  0.1117  0.0748
45400W        W88317  27.657  33.365  18.268  0.0634 -0.0711  0.2885
45401W        W88318  31.168  33.226  17.223  0.2932 -0.2298  0.0592
45402W        W88319  29.204  34.572  17.529 -0.3328 -0.0363  0.4620
45403W        W88320  32.093  32.060  16.756 -0.0214  0.0661  0.2322
45404W        W88321  33.346  34.347  20.815  0.1586  0.2178  0.2147
45405W        W88322  32.757  33.306  18.302 -0.0636 -0.0501 -0.0960
45406W        W88323  32.636  32.807  18.244  0.4170 -0.1031 -0.1877
45407W        W88324  32.719  31.857  18.073 -0.0649 -0.0049  0.4357
45408W        W88325  31.927  32.992  19.358  0.0036  0.0132  0.0195
45409W        W88326  32.356  33.105  20.827  0.1214  0.0291  0.1225
45410W        W88327  30.374  32.727  17.400 -0.1397 -0.1260 -0.0356
45411W        W88328  27.972  33.968  20.265 -0.1284 -0.1619  0.0267
45412W        W88329  28.485  33.345  18.993  0.0427  0.1317  0.1889
45413W        W88330  30.870   0.157  17.907  0.0090 -0.1134 -0.4521
45414W        W88331  32.799  29.933  18.050 -0.0772  0.1471  0.1157
45415W        W88332  33.789   1.489  18.035  0.1032  0.0274  0.2527
45416W        W88333  32.102  33.640  20.330 -0.4191  0.1541  0.0542
45417W        W88334  31.680  32.177  19.172  0.0296  0.0982  0.0406
45418W        W88335  31.435  31.154  18.778 -0.0066  0.1185  0.0872
45419W        W88336  29.905  33.075  20.570 -0.2057 -0.1303  0.2059
45420W        W88337  32.955  33.549  18.707  0.0075 -0.1238  0.2596
45421W        W88338  29.198  31.276  18.533 -0.1691  0.2296 -0.0912
45422W        W88339  32.607  32.656  17.434  0.0303 -0.0657 -0.0738
45423W        W88340  31.011  31.990  17.704  0.1026 -0.1179 -0.3559
45424W        W88341  30.428   0.556  20.463  0.0154 -0.0304 -0.1079
45425W        W88342  29.398  33.174  19.180 -0.2314  0.1583 -0.0289
45426W        W88343  32.179  34.659  17.936 -0.0009 -0.1079  0.0103
45427W        W88344  30.682  34.068  19.421  0.0237 -0.0610  0.2610
45428W        W88345  31.072  31.497  17.773  0.0030  0.0309 -0.3943
45429W        W88346  31.681  34.001  20.409 -0.1036  0.0788  0.3210
45430W        W88347  31.364  33.661  18.755  0.2864 -0.0215 -0.1548
45431W        W88348  31.191  31.191  20.597  0.0166  0.0090  0.1262
45432W        W88349  30.138  33.792  16.666 -0.1256 -0.1243 -0.3102
45433W        W88350  32.156   0.216  18.682  0.0991  0.1829 -0.1565
45434W        W88351  30.381  32.391  17.881  0.1879 -0.1526 -0.1446
45435W        W88352  30.179  33.246  18.445  0.0679  0.1081  0.1971
45436W        W88353  30.539   0.374  16.886  0.1552  0.0427  0.1901
45437W        W88354  29.925  32.871  20.122  0.4738 -0.0568 -0.3671
45438W        W88355  31.878  34.661  19.632  0.1004 -0.1757  0.1596
45439W        W88356  29.552  31.452  20.663  0.1099  0.1260  0.2032
45440W        W88357  34.455   0.353  19.161 -0.0047 -0.0977  0.1823
45441W        W88358  33.545   1.808  17.055 -0.2565  0.0227  0.1418
45442W        W88359  26.465  34.608  18.828 -0.0435  0.3977 -0.2292
45443W        W88360  32.221  31.648  17.079 -0.2005  0.0211  0.5140
45444W        W88361  29.602  34.025  18.335  0.3081 -0.1978 -0.2257
45445W        W88362  32.153  33.388  19.117 -0.1128  0.2395  0.2562
45446W        W88363  31.945  31.883  18.856 -0.1231 -0.2971 -0.3690
45447W        W88364  34.500  34.664  18.739  0.4181  0.1046 -0.2226
45448W        W88365  32.305  33.964  17.149 -0.2888  0.0869 -0.0644
45449W        W88366  29.921  33.798  20.055 -0.1813 -0.0850  0.0403
45450W        W88367  32.234  34.099  18.644  0.0079  0.1264 -0.0242
45451W        W88368  31.882  33.204  17.735  0.2021 -0.1350 -0.1405
45452W        W88369  28.860   2.134  21.490  0.1710  0.0686 -0.3210
45453W        W88370  31.382  32.891  17.611 -0.1452 -0.3169 -0.0006
45454W        W88371  32.311  31.533  20.852 -0.1611  0.0346  0.1967
45455W        W88372  29.030  34.461  19.285  0.0237 -0.2257  0.2115
45456W        W88373  32.784  34.120  17.524 -0.0619  0.0880 -0.1776
45457W        W88374  30.172  32.139  19.309 -0.0497 -0.4322 -0.1134
45458W        W88375  29.767  33.978  19.523  0.1943 -0.1587  0.2021
45459W        W88376  31.517  33.655  19.648 -0.2422  0.0365 -0.1156
45460W        W88377  31.243  33.806  17.647 -0.0151 -0.0406 -0.0816
45461W        W88378  31.047   0.288  20.939 -0.3178 -0.1524 -0.0997
45462W        W88379  30.790   0.861  20.684 -0.2768  0.0722 -0.2043
45463W        W88380  27.840  32.489  16.661  0.1584  0.0606 -0.0368
45464W        W88381  31.819   0.200  18.345  0.0265  0.1649  0.2767
45465W        W88382  30.824  30.990  20.315  0.1065  0.0933  0.0099
45466W        W88383  33.165  32.681  19.024  0.1024  0.0576 -0.0445
45467W        W88384  32.628  34.491  17.157 -0.0645  0.1761 -0.0123
45468W        W88385  30.608  31.821  19.946  0.1614  0.0428 -0.0161
45469W        W88386  30.301  32.003  20.292  0.3279 -0.3307  0.0550
45470W        W88387  30.861   0.245  17.316  0.2298 -0.1645 -0.2905
45471W        W88388  30.696   1.382  19.321 -0.2505 -0.1166  0.1333
45472W        W88389  31.676   0.146  16.971 -0.1014 -0.1446 -0.1980
45473W        W88390  31.849  34.458  18.668 -0.0437 -0.1678  0.3516
45474W        W88391  30.976  33.750  16.265 -0.0969 -0.0419 -0.0115
45475W        W88392  30.844   1.973  18.001 -0.1263  0.3839 -0.0014
45476W        W88393  29.765  32.312  18.889 -0.1736  0.1902  0.0874
45477W        W88394  30.531  33.497  16.748 -0.2477  0.0991  0.1902
45478W        W88395  31.219  33.375  18.371  0.0230  0.0014  0.2010
45479W        W88396  32.768   1.029  17.756  0.1799 -0.0665 -0.1004
45480W        W88397  31.356  32.492  20.389  0.4428 -0.0358  0.3915
45481W        W88398  31.629  32.968  17.142  0.1164 -0.0671 -0.0672
45482W        W88399  30.163  33.180  21.040  0.0746 -0.0924 -0.2063
45483W        W88400  32.456  34.546  18.948 -0.1339  0.1947 -0.0518
45484W        W88401  32.676   0.819  21.226 -0.0923 -0.0890 -0.0152
45485W        W88402  28.662  33.221  22.698  0.0805 -0.0620  0.0024
45486W        W88403  28.225  34.104  23.923 -0.0056  0.0297 -0.1434
45487W        W88404  30.885  33.543  20.253  0.0559  0.3510 -0.1436
45488W        W88405  30.435  32.558  23.801  0.1230 -0.1906 -0.0447
45489W        W88406  30.697  31.695  22.575 -0.0383 -0.1879 -0.1349
45490W        W88407  29.118  32.328  22.116 -0.0780 -0.0329 -0.0309
45491W        W88408  31.899  32.735  23.306 -0.1935 -0.0307 -0.4068
45492W        W88409  27.490  33.883  21.599  0.1669  0.0232  0.1801
45493W        W88410  30.695  32.770  22.791  0.1421 -0.3034 -0.0457
45494W        W88411  32.236  32.947  22.394 -0.1829 -0.0640 -0.1090
45495W        W88412  32.225   0.542  24.337  0.2837  0.1502 -0.0455
45496W        W88413  31.736  32.817  23.778 -0.1952  0.0315  0.0552
45497W        W88414  29.345   0.499  21.045  0.0256  0.1368 -0.1108
45498W        W88415  29.013  34.499  23.367 -0.2933 -0.2251  0.2606
45499W        W88416  31.096  33.866  23.057  0.3720  0.1776 -0.3930
45500W        W88417  31.791  32.073  22.510  0.0225  0.0981  0.0816
45501W        W88418  31.993   1.548  22.646  0.4141 -0.0579  0.0198
45502W        W88419  32.696  33.452  22.754  0.1157  0.2157  0.1527
45503W        W88420  29.356   0.709  24.165  0.0463 -0.2960  0.3303
45504W        W88421  31.339  33.846  20.827  0.0550 -0.2503  0.0888
45505W        W88422  34.342  33.628  23.160  0.1781 -0.2695  0.0038
45506W        W88423  30.916  34.079  20.001  0.0240  0.1505  0.1218
45507W        W88424  29.270  34.107  19.905  0.1185  0.0273 -0.0737
45508W        W88425  33.277  33.251  20.876  0.0584  0.3579  0.1289
45509W        W88426  31.370  31.059  23.621 -0.0824  0.0286  0.0812
45510W        W88427  30.047  33.617  21.178 -0.3409 -0.1983 -0.4038
45511W        W88428  30.477  33.771  20.140 -0.1767  0.0641  0.2412
45512W        W88429  32.971  32.014  23.336  0.0171 -0.0096  0.0717
45513W        W88430  28.547  32.492  23.387 -0.1434  0.0117 -0.0169
45514W        W88431  29.900  34.212  21.973  0.0826  0.1123  0.0188
45515W        W88432  29.616   0.564  23.486  0.0670  0.0193 -0.3339
45516W        W88433  31.320  34.358  23.925  0.2682 -0.0672 -0.1713
45517W        W88434  28.688  31.837  20.993 -0.1800  0.0220  0.1514
45518W        W88435  33.592  34.520  20.292 -0.0990 -0.1945  0.2456
45519W        W88436  31.121  31.601  22.926  0.1009  0.0264  0.1699
45520W        W88437  31.428  32.221  22.258  0.1094  0.0123  0.0489
45521W        W88438  34.118   0.527  21.887  0.1366 -0.1760  0.0266
45522W        W88439  34.107  33.833  22.078 -0.0977  0.0640 -0.2313
45523W        W88440  27.027  33.893  22.599  0.0202  0.1433  0.1225
45524W        W88441  32.402  33.392  19.995  0.0723  0.0280  0.0157
45525W        W88442  28.926   0.610  22.356 -0.1020 -0.1519 -0.1851
45526W        W88443  30.003  33.548  23.078 -0.0175  0.0166  0.0150
45527W        W88444  33.649  32.785  20.464 -0.3042  0.1007 -0.0291
45528W        W88445  29.052  32.784  21.928 -0.4103 -0.1101 -0.0130
45529W        W88446  31.485  32.619  21.247  0.2364  0.3094 -0.3109
45530W        W88447  30.066  32.236  23.895  0.0342 -0.0398 -0.3887
45531W        W88448  30.030  34.143  23.104 -0.0467 -0.1817 -0.0112
45532W        W88449  32.239  34.185  23.611  0.1199 -0.2306 -0.1922
45533W        W88450  29.404  33.095  20.291 -0.2462  0.2403 -0.1762
45534W        W88451  32.049  32.156  19.717 -0.1114  0.0513  0.0202
45535W        W88452  29.928  34.446  21.549  0.1121  0.0902 -0.2373
45536W        W88453   0.866   0.219  23.785 -0.1764 -0.2332  0.1870
45537W        W88454  30.249  31.904  23.039  0.3198 -0.0706 -0.2456
45538W        W88455  28.051  33.231  21.819 -0.1255  0.0826 -0.0162
45539W        W88456  32.198  33.045  21.833  0.1014 -0.3646  0.0014
45540W        W88457  33.970  32.524  24.012 -0.1199  0.0688 -0.2642
45541W        W88458  30.451  33.151  20.381  0.2560 -0.3170  0.2018
45542W        W88459  30.170  30.302  22.088  0.2126 -0.1626  0.0103
45543W        W88460  28.738   0.361  21.623 -0.1080 -0.0248  0.2857
45544W        W88461  33.015  31.922  21.813 -0.0866 -0.0622  0.0289
45545W        W88462  28.713   0.038  23.712  0.0120  0.1593  0.0576
45546W        W88463  30.523  33.208  22.457 -0.1086 -0.0966 -0.0031
45547W        W88464  29.929  33.771  20.764  0.3386 -0.2064 -0.2510
45548W        W88465  33.348  32.429  21.576 -0.0047  0.1812 -0.0878
45549W        W88466  31.956  31.727  19.452 -0.0483 -0.1558 -0.1936
45550W        W88467  31.513  32.106  19.814 -0.0817  0.4050 -0.2886
45551W        W88468  31.804  33.685  20.746  0.2452 -0.2335 -0.0535
45552W        W88469  32.184  31.680  21.784  0.2265  0.0066  0.4091
45553W        W88470  30.550  33.864  21.007 -0.0062  0.0211 -0.2822
45554W        W88471  29.577   0.677  19.550  0.0738  0.3568 -0.3357
45555W        W88472  32.267  33.293  23.278 -0.2513  0.0779  0.0757
45556W        W88473  32.751  32.947  21.784 -0.0163 -0.4357  0.2262
45557W        W88474  32.072  32.747  20.439  0.2005  0.2018  0.1866
45558W        W88475  31.343  33.105  23.434  0.1464 -0.0314 -0.0049
45559W        W88476  32.877  34.363  24.457  0.0443 -0.1663 -0.1618
45560W        W88477  31.345   1.672  20.582  0.1637 -0.1754 -0.1466
45561W        W88478  30.336   0.361  22.682  0.1162 -0.0796 -0.2572
45562W        W88479  29.594  33.523  20.462  0.0774  0.1819 -0.2237
45563W        W88480  32.795  33.010  23.595  0.1538 -0.0167  0.2777
45564W        W88481  30.513  33.428  23.410  0.1090 -0.1586 -0.1894
45565W        W88482  31.169  34.097  20.446  0.2576  0.0539 -0.3983
45566W        W88483  32.839   0.087  19.671 -0.3412  0.1354 -0.2861
45567W        W88484  31.838  33.301  23.603 -0.0212  0.3832 -0.0408
45568W        W88485  29.763  32.513  22.625  0.0254  0.1170  0.2743
45569W        W88486  32.228  32.285  20.601  0.2263 -0.2113  0.1786
45570W        W88487  32.467  31.658  20.367  0.1852  0.0123 -0.0215
45571W        W88488  29.995  33.417  23.768 -0.0413 -0.1999  0.1582
45572W        W88489  33.626  33.269  22.181 -0.1716 -0.4178 -0.2376
45573W        W88490  29.080  34.157  22.926  0.2023  0.1402 -0.0265
45574W        W88491  32.620  32.221  19.714  0.1858  0.2509 -0.0913
45575W        W88492  29.768   1.843  24.340  0.2568 -0.1061 -0.0254
45576W        W88493  30.109  32.681  21.276  0.0192  0.0197 -0.2004
45577W        W88494  34.438   0.442  22.344  0.1073 -0.0730  0.4955
45578W        W88495  28.730   0.317  23.233  0.2743  0.2282 -0.3376
45579W        W88496  29.260  33.688  20.755  0.0482 -0.1152 -0.3076
45580W        W88497  30.351  34.409  23.688 -0.1885  0.0123  0.0246
45581W        W88498  31.058  34.408  22.972 -0.0147  0.3874 -0.2684
45582W        W88499  27.988  33.590  21.493 -0.2814  0.0148 -0.1124
45583W        W88500  31.582  33.862  21.735  0.0630 -0.1123  0.0392
45584W        W88501  33.834   0.744  23.057  0.3392 -0.0680  0.2605
45585W        W88502  32.505  34.013  21.130 -0.0213  0.1847  0.0103
45586W        W88503  32.154  33.745  21.464  0.0178  0.2553  0.1308
45587W        W88504  32.072  33.716  22.906  0.1858  0.2382  0.0814
45588W        W88505  33.928  32.988  19.634  0.1550  0.2024  0.2721
45589W        W88506  31.379  33.634  21.342 -0.1805  0.1587 -0.0363
45590W        W88507  33.023  33.056  22.499 -0.2367 -0.1692  0.0652
45591W        W88508  33.613  34.144  19.952  0.2018 -0.0589 -0.1780
45592W        W88509  33.421  33.481  21.801  0.0798 -0.3378 -0.0350
45593W        W88510  30.127  33.979  22.632 -0.2024  0.1352  0.2247
45594W        W88511  29.265  32.405  25.010  0.0293 -0.3665 -0.1029
45595W        W88512  29.080  33.924  23.421  0.1765  0.1078  0.3185
45596W        W88513  32.870  31.922  21.329 -0.4730 -0.0983  0.0793
45597W        W88514  30.682  32.082  21.655 -0.2537  0.0758  0.0214
45598W        W88515  30.943  34.379  22.302 -0.1267  0.1238 -0.0816
45599W        W88516  33.702  34.302  21.607  0.0341  0.3313 -0.0163
45600W        W88517  27.802  33.547  22.123 -0.0382  0.0757  0.0587
45601W        W88518  33.208  33.183  22.940  0.1073 -0.2659 -0.1278
45602W        W88519  30.640  32.395  24.903  0.1778 -0.0523 -0.2804
45603W        W88520  31.756  31.848  21.520  0.4520 -0.0311 -0.2780
45604W        W88521  32.046  32.785  22.807  0.0227 -0.1647  0.1325
45605W        W88522  34.456   0.887  23.777  0.3108  0.0228  0.2357
45606W        W88523  30.761  33.679  24.345 -0.3345 -0.2897 -0.1411
45607W        W88524  30.787  33.171  24.505 -0.1320 -0.0079 -0.0026
45608W        W88525  31.197  34.102  19.546  0.3968  0.2571  0.2168
45609W        W88526  31.671  33.649  23.991 -0.1227 -0.4606 -0.0828
45610W        W88527  31.304  33.397  20.464  0.2667  0.2287  0.0213
45611W        W88528  31.989  33.590  21.980  0.2248  0.2305 -0.1350
45612W        W88529  29.199  33.184  23.807  0.0538 -0.0510 -0.0097
45613W        W88530  32.695   0.856  24.381  0.1857  0.1277  0.3226
45614W        W88531  29.241  33.993  19.436  0.1156 -0.0050  0.5652
45615W        W88532  31.780  33.263  23.075 -0.0434 -0.2894 -0.0087
45616W        W88533  32.761  34.003  20.703  0.1127  0.1853  0.4022
45617W        W88534  28.219  33.795  23.422  0.1791 -0.1823 -0.1356
45618W        W88535  28.108  34.309  20.583 -0.0146 -0.0173 -0.0469
45619W        W88536  31.279  32.665  19.873 -0.1822 -0.0728 -0.0476
45620W        W88537  30.378  30.984  21.339  0.1150  0.0293 -0.1826
45621W        W88538  32.555  34.348  22.689 -0.2178 -0.1289  0.2381
45622W        W88539  31.436  34.336  20.929  0.1832  0.0095  0.1171
45623W        W88540  30.761  33.196  23.017  0.2591 -0.2596 -0.1113
45624W        W88541  33.272   0.903  22.264 -0.1843 -0.0647 -0.0595
45625W        W88542  32.336  33.821  22.431 -0.1340  0.1480 -0.1073
45626W        W88543  32.710  34.284  22.251  0.1658 -0.0529 -0.0124
45627W        W88544  30.814  33.694  23.783  0.0219 -0.0261 -0.0192
45628W        W88545  28.846   0.902  24.107 -0.0984  0.1033  0.0333
45629W        W88546  29.820  32.157  23.100 -0.0895 -0.0309  0.3003
45630W        W88547  31.188  32.549  22.626  0.0616  0.1008  0.0552
45631W        W88548  31.190  33.695  19.241  0.2618  0.0667  0.0401
45632W        W88549  33.232  34.204  21.356 -0.0013  0.1590  0.0418
45633W        W88550  31.386   1.271  21.138 -0.0851  0.2437 -0.0546
45634W        W88551  31.794  33.849  22.331  0.0916 -0.2884  0.1216
45635W        W88552  30.988  33.376  21.463  0.3813 -0.4030  0.1100
45636W        W88553  28.462  34.415  22.465 -0.0248 -0.0743 -0.3107
45637W        W88554   0.465  32.270  22.458 -0.1139  0.1684  0.0512
45638W        W88555  28.853  33.470  21.317 -0.0337 -0.1580  0.0783
45639W        W88556  29.694  33.906  23.372  0.0626  0.0341  0.0769
45640W        W88557  32.345  33.274  25.038 -0.3483 -0.2854 -0.0865
45641W        W88558  34.380  33.742  20.080  0.1242 -0.2373 -0.2253
45642W        W88559  30.256  32.592  20.790 -0.0031 -0.1525 -0.2124
45643W        W88560  31.816  33.349  21.594 -0.2012 -0.0936 -0.0309
45644W        W88561  30.349  33.707  22.183  0.2431 -0.0678  0.1154
45645W        W88562  31.051  32.770  23.121  0.1383  0.4798 -0.4832
45646W        W88563  31.344   0.265  20.444 -0.0644  0.0858 -0.1675
45647W        W88564  33.279  33.527  21.305 -0.0343  0.4174 -0.2048
45648W        W88565  29.375  34.225  23.660 -0.1251  0.1799  0.0078
45649W        W88566  30.136  33.233  21.559 -0.0511  0.1340 -0.1127
45650W        W88567  33.004   0.118  22.978 -0.0818  0.0741 -0.0334
45651W        W88568  30.052  34.547  19.691  0.0428 -0.0509  0.1742
45652W        W88569  30.499  32.309  22.102 -0.2219  0.3267 -0.0980
45653W        W88570  33.799   0.349  20.971  0.0635  0.0468 -0.2643
45654W        W88571  30.557  33.928  21.529 -0.3026 -0.0379  0.2448
45655W        W88572  31.662  32.842  20.830  0.0059 -0.0082 -0.1984
45656W        W88573  29.156  32.508  20.428 -0.1881  0.1147  0.0421
45657W        W88574  32.965  33.827  22.072  0.1086  0.1340  0.0233
45658W        W88575  32.607   0.862  23.064 -0.1224 -0.7656 -0.0005
45659W        W88576  29.420  34.391  22.641 -0.1405 -0.0225  0.2271
45660W        W88577  32.697  32.789  22.238 -0.0448  0.1439 -0.0264
45661W        W88578  27.522  34.081  22.337 -0.1403 -0.2745 -0.2940
45662W        W88579  33.273  32.728  23.493 -0.0281 -0.1601  0.0456
45663W        W88580  34.305  32.759  22.897 -0.1246  0.1133  0.0945
45664W        W88581  32.895  32.831  23.095  0.0452  0.5064  0.0393
45665W        W88582  30.622  32.413  21.130  0.1342  0.3505 -0.3156
45666W        W88583  30.441  33.094  21.967 -0.3390 -0.2028 -0.0264
45667W        W88584  33.037  33.024  20.466 -0.1090 -0.2156 -0.0736
45668W        W88585  34.111  33.924  20.914 -0.1175  0.0662  0.2465
45669W        W88586  30.544  33.802  23.101  0.0336  0.1669  0.1540
45670W        W88587  29.737  34.344  19.995  0.2189  0.1796  0.4103
45671W        W88588  31.028  33.528  23.397  0.2449  0.0559  0.3032
45672W        W88589  30.444   0.604  23.414  0.0459  0.0868 -0.1267
45673W        W88590  28.115   0.495  21.517 -0.1466  0.4359 -0.1677
45674W        W88591  29.015  31.637  21.308  0.2828 -0.0675 -0.0856
45675W        W88592  29.554  33.459  23.485  0.0650 -0.2476  0.0010
45676W        W88593  29.782  33.777  22.101  0.1454  0.2137 -0.0129
45677W        W88594  31.865  34.022  21.171 -0.1964 -0.3420 -0.2300
45678W        W88595  31.173   0.675  22.083 -0.1370 -0.0255 -0.2305
45679W        W88596  30.037  33.622  24.868 -0.1632  0.1909 -0.0297
45680W        W88597  28.901  33.718  19.952  0.0644 -0.0348 -0.0809
45681W        W88598  32.298  32.325  22.787  0.0201 -0.2124 -0.2151
45682W        W88599  31.765  33.177  22.068  0.1141 -0.2204 -0.0395
45683W        W88600  31.991  31.470  21.338 -0.0483 -0.2289 -0.0014
45684W        W88601  31.958  34.140  21.965 -0.0934 -0.0244  0.0115
45685W        W88602  31.692  33.159  24.153  0.0184 -0.1142 -0.0201
45686W        W88603  30.314  32.061  22.528 -0.1351 -0.0614 -0.0176
45687W        W88604  31.949  33.403  19.741  0.0970  0.0473  0.1983
45688W        W88605  31.027  33.794  21.791  0.2028 -0.2656 -0.2594
45689W        W88606  30.170   0.004  21.155  0.1933  0.0289  0.3838
45690W        W88607  29.390   0.473  22.741 -0.0681 -0.0040  0.2686
45691W        W88608  29.900   0.122  19.232  0.0073  0.2700  0.3299
45692W        W88609  32.376  34.062  20.189 -0.0164  0.2039  0.0998
45693W        W88610  31.218  32.019  22.621  0.2237  0.1593  0.1428
45694W        W88611  26.801   0.969  20.439  0.0939  0.2802 -0.1777
45695W        W88612  30.177  33.859  23.519 -0.0047  0.1003  0.2145
45696W        W88613  31.345  33.376  21.850  0.0816  0.2031 -0.1817
45697W        W88614  31.683  32.734  22.444 -0.1184 -0.3961 -0.0646
45698W        W88615  33.758  33.277  21.400  0.0006  0.1241  0.0045
45699W        W88616  31.279  32.343  24.361 -0.3247 -0.1292  0.1250
45700W        W88617  31.770  34.056  23.247 -0.0034 -0.1037  0.2825
45701W        W88618  32.558  33.802  23.796  0.2253  0.0079 -0.1247
45702W        W88619  30.806  32.252  27.023 -0.0023 -0.1301  0.0263
45703W        W88620  29.596  33.857  27.140  0.0819  0.0418 -0.0931
45704W        W88621  32.710  33.897  23.137 -0.0466  0.0054 -0.1970
45705W        W88622  30.903   2.427  26.902 -0.0228  0.0352 -0.0958
45706W        W88623  32.095  33.338  25.567  0.1502 -0.2329 -0.1345
45707W        W88624  31.255  31.334  27.966  0.2027  0.4877 -0.4196
45708W        W88625  34.242  33.075  25.587  0.1978 -0.2123  0.1226
45709W        W88626  30.323   0.721  23.872 -0.0025 -0.0333  0.0169
45710W        W88627  30.987  33.017  26.317 -0.1252  0.1230  0.1870
45711W        W88628  30.856  34.124  24.000 -0.1167 -0.0393 -0.0926
45712W        W88629  31.457  33.369  27.469 -0.0210  0.3540 -0.3791
45713W        W88630  33.774  32.890  27.136  0.0524  0.1400  0.4760
45714W        W88631  29.686  33.042  24.350  0.0930 -0.0563  0.0515
45715W        W88632  29.385  33.412  27.291  0.0180  0.1053 -0.0164
45716W        W88633  30.150  34.441  24.873 -0.2642 -0.0835  0.0922
45717W        W88634  31.885  33.925  26.307 -0.5390 -0.2589 -0.2610
45718W        W88635  30.404  34.582  26.393 -0.4137  0.2309  0.4048
45719W        W88636  31.765  34.607  25.847 -0.1302 -0.1160 -0.2279
45720W        W88637  33.186   1.746  26.035 -0.5086  0.2875  0.1447
45721W        W88638  31.350  32.752  24.081  0.4417 -0.3711 -0.0503
45722W        W88639  31.375  31.083  27.233 -0.1477  0.2462 -0.0520
45723W        W88640  33.239  33.224  23.552  0.0846 -0.1485 -0.1086
45724W        W88641  30.174  34.583  23.294  0.0855 -0.2481  0.0705
45725W        W88642  34.322  33.126  23.765  0.1536  0.0990  0.1604
45726W        W88643  30.336  34.509  25.561 -0.1068  0.1417  0.1269
45727W        W88644  33.730  32.365  25.849 -0.1125 -0.3368  0.1021
45728W        W88645  30.504   0.252  23.730  0.1218 -0.1487  0.0074
45729W        W88646  30.440   0.381  26.305 -0.0228 -0.1021 -0.3469
45730W        W88647  29.982  31.701  25.733  0.0056  0.0249 -0.1040
45731W        W88648  28.535   0.364  25.425 -0.3184 -0.0772 -0.0667
45732W        W88649  30.196  32.906  26.769  0.0525 -0.0711  0.2205
45733W        W88650  29.325  33.876  25.861  0.0285  0.1034 -0.3011
45734W        W88651  30.033  32.669  23.586  0.2077 -0.2637  0.0800
45735W        W88652  32.619  32.456  24.549  0.0848 -0.3304 -0.0456
45736W        W88653  31.320  32.204  26.774  0.0514 -0.3011 -0.0434
45737W        W88654  31.788  32.577  27.600 -0.0294 -0.2263 -0.0661
45738W        W88655  31.488  34.348  25.281  0.2545 -0.1255 -0.2041
45739W        W88656  33.755  33.717  25.986 -0.0485  0.1727 -0.4076
45740W        W88657  30.704  32.313  28.966 -0.0325 -0.1035  0.2040
45741W        W88658  32.857  33.304  24.081 -0.0728  0.0377  0.1445
45742W        W88659  30.843  31.968  29.312 -0.0173 -0.0492  0.0703
45743W        W88660  32.803  33.431  25.099  0.0761  0.0343 -0.1497
45744W        W88661  34.106  34.230  23.801  0.0208  0.0928  0.2061
45745W        W88662  28.764  32.843  26.736 -0.1111  0.1353 -0.3676
45746W        W88663  30.097  33.604  25.569 -0.1045  0.4532 -0.1025
45747W        W88664  30.299  32.356  28.493 -0.2527 -0.2564 -0.1564
45748W        W88665  29.020  32.948  27.163  0.0639 -0.0187  0.3298
45749W        W88666  34.450   0.065  26.332  0.1701 -0.1936  0.0894
45750W        W88667  31.893  33.111  24.630  0.0423  0.1055 -0.0884
45751W        W88668  32.826  34.192  23.652  0.0930 -0.0415  0.2402
45752W        W88669  29.770   0.369  25.883  0.1344  0.2945  0.0792
45753W        W88670  33.372   0.016  25.945 -0.0780 -0.0910  0.3086
45754W        W88671  29.909   0.037  26.270  0.0578 -0.0968 -0.2604
45755W        W88672  30.858   0.045  24.678 -0.3514  0.2409 -0.0334
45756W        W88673  30.261  31.744  23.936  0.0741  0.4492 -0.0314
45757W        W88674  31.793  33.515  27.083 -0.3121 -0.0624  0.0927
45758W        W88675  31.595   1.554  25.111 -0.1479  0.6095  0.1348
45759W        W88676  30.472  32.582  26.563 -0.4152 -0.1395 -0.1558
45760W        W88677  29.353  34.006  24.872  0.0399  0.2376 -0.0644
45761W        W88678  32.819  32.792  24.863 -0.0787 -0.2804 -0.1556
45762W        W88679  30.867  34.181  27.447  0.1586 -0.0780  0.2780
45763W        W88680  30.828   0.617  26.039  0.2061 -0.1061 -0.2836
45764W        W88681  30.032   1.370  24.523 -0.0207  0.0597 -0.2568
45765W        W88682  29.981  32.839  26.202 -0.1046 -0.1457  0.1297
45766W        W88683  33.421  33.704  24.991 -0.0938 -0.0253 -0.0378
45767W        W88684  29.838  33.012  22.477 -0.1457 -0.0531  0.1109
45768W        W88685  31.569  33.207  22.510 -0.0572  0.0572 -0.2094
45769W        W88686  32.492  34.198  25.310 -0.1394  0.1135 -0.2346
45770W        W88687  30.604  32.386  25.764 -0.0616 -0.2539  0.0637
45771W        W88688  30.161   0.123  24.052 -0.0738 -0.3063  0.0909
45772W        W88689  32.535  34.267  24.046 -0.0579  0.0583  0.1277
45773W        W88690  31.077  34.255  24.966 -0.0145 -0.3884 -0.0414
45774W        W88691  31.310   0.063  24.993 -0.0900 -0.5325  0.3464
45775W        W88692  31.004  32.384  27.486 -0.1445 -0.3193  0.0801
45776W        W88693  34.325   0.540  26.603 -0.2521  0.0711  0.0740
45777W        W88694  33.716  33.259  26.412  0.3223 -0.0608 -0.0078
45778W        W88695  33.588   0.565  26.195 -0.1380 -0.1267  0.2042
45779W        W88696  29.854  34.384  23.696  0.0018  0.0860  0.0049
45780W        W88697  31.809  30.662  26.527  0.0823  0.0225  0.0117
45781W        W88698  31.023  32.711  27.131 -0.1056  0.0737 -0.1576
45782W        W88699  32.848  33.376  23.233 -0.1040  0.0951  0.0625
45783W        W88700  31.078  32.115  25.269 -0.0805  0.1067  0.0811
45784W        W88701  31.212  31.473  28.411 -0.0287  0.2876  0.1053
45785W        W88702  31.555  33.507  24.469 -0.2850  0.2659  0.1722
45786W        W88703  30.030   0.124  25.294 -0.2293  0.0657 -0.2003
45787W        W88704  31.681  34.269  24.270 -0.2480 -0.2097  0.1897
45788W        W88705  29.921   0.479  27.063  0.0630  0.0550  0.0274
45789W        W88706  30.250  33.125  25.748 -0.1247  0.0367  0.0523
45790W        W88707  32.365   0.568  27.406  0.0667 -0.0377 -0.4449
45791W        W88708  31.827   0.030  24.421 -0.0865  0.0659  0.2178
45792W        W88709  29.825  33.777  26.309  0.1363 -0.0383 -0.1945
45793W        W88710  30.152  32.650  25.673  0.0150  0.0200  0.1761
45794W        W88711   0.866   0.341  24.594  0.0916  0.0252 -0.0164
45795W        W88712  32.188  33.656  25.945 -0.1490 -0.1029  0.3158
45796W        W88713  26.865  34.582  23.379 -0.1805  0.1948 -0.1734
45797W        W88714  28.390  34.262  26.011  0.0636 -0.0548 -0.0643
45798W        W88715  31.035  33.794  26.316 -0.0720 -0.2961  0.0358
45799W        W88716  30.612  33.990  25.689 -0.1071  0.1049  0.2713
45800W        W88717  30.229  32.644  25.101 -0.0800  0.3184  0.0199
45801W        W88718  31.320   0.811  25.848  0.1770 -0.1816 -0.4236
45802W        W88719  31.659  34.115  25.778 -0.0969 -0.0936  0.1066
45803W        W88720  33.044   0.377  25.381 -0.2397 -0.2317 -0.2534
45804W        W88721  31.537  32.058  27.614  0.1371  0.1550  0.0859
45805W        W88722  34.211  32.693  25.254 -0.0465 -0.0740 -0.0340
45806W        W88723  32.821  31.710  24.672  0.0135 -0.2361  0.1765
45807W        W88724  32.546  33.317  25.860  0.1546  0.0104  0.2447
45808W        W88725  32.013  34.470  23.980  0.1776  0.1611 -0.0661
45809W        W88726  31.598  32.973  27.200  0.0263 -0.1254  0.5197
45810W        W88727  31.034   0.369  26.961 -0.0603 -0.3903  0.2240
45811W        W88728  29.438  32.940  28.322  0.1738 -0.4269 -0.0735
45812W        W88729  28.342  33.302  27.715  0.0533  0.2496 -0.0606
45813W        W88730  31.809   0.622  25.650  0.1132  0.3641  0.0151
45814W        W88731  30.621  34.339  25.095  0.1124  0.1791  0.3031
45815W        W88732  33.721  34.391  25.477  0.1192  0.1063  0.0383
45816W        W88733  31.940  33.033  25.188 -0.0573 -0.0870  0.0172
45817W        W88734  32.649   1.685  26.495 -0.2285  0.0163 -0.0837
45818W        W88735   0.213   0.727  25.732 -0.3159  0.0224  0.1371
45819W        W88736  32.052  31.038  27.925 -0.0288  0.0340  0.0362
45820W        W88737  32.120   0.259  23.904 -0.3316  0.2219 -0.0225
45821W        W88738  31.665  33.671  25.979  0.0243  0.3821 -0.1924
45822W        W88739  30.426  31.636  27.831 -0.2951  0.3016  0.3226
45823W        W88740  31.833   1.277  27.002  0.0718  0.0361  0.0163
45824W        W88741  30.083  33.848  27.338  0.1662 -0.4349 -0.0524
45825W        W88742  32.675  33.076  24.506  0.0044 -0.0449 -0.1252
45826W        W88743  31.410  34.143  26.264  0.0166  0.0391 -0.2415
45827W        W88744   0.031  33.456  25.566 -0.2001 -0.0978  0.3222
45828W        W88745  30.289   0.240  25.872 -0.2365 -0.0177 -0.2343
45829W        W88746  31.004  32.571  26.607  0.0265 -0.1504 -0.1007
45830W        W88747  31.763  34.168  27.306 -0.0720 -0.0525  0.3656
45831W        W88748  31.262  33.280  23.896  0.4031 -0.0014 -0.2390
45832W        W88749  32.158  32.868  25.863 -0.0494 -0.0746 -0.0061
45833W        W88750  32.755  34.626  25.595  0.0224  0.1950 -0.0209
45834W        W88751  29.369  32.661  26.800  0.1728  0.0611  0.0420
45835W        W88752  30.819  34.019  23.438  0.1384  0.3026 -0.1523
45836W        W88753  32.980  33.782  24.714 -0.1483  0.3428 -0.2291
45837W        W88754  31.482  32.305  21.749  0.0083 -0.0718  0.2984
45838W        W88755   0.654   0.397  25.536  0.1924  0.2412  0.1845
45839W        W88756  33.079  34.386  26.499 -0.1985  0.2887 -0.4379
45840W        W88757  32.190  30.805  27.378  0.0202 -0.1714 -0.1897
45841W        W88758  33.198   0.528  26.847  0.3190  0.3749 -0.0414
45842W        W88759  32.732   0.924  25.979  0.3860 -0.3956  0.1100
45843W        W88760  33.664   0.056  26.356  0.2051 -0.4447 -0.2346
45844W        W88761  32.303  34.450  25.796  0.2331  0.1371  0.0536
45845W        W88762  30.559  33.925  27.809 -0.1228  0.2338 -0.2430
45846W        W88763  31.256  33.888  23.826 -0.1207  0.2108 -0.1813
45847W        W88764  31.423  33.743  25.286 -0.0376  0.0025 -0.2626
45848W        W88765  33.548  33.884  22.063 -0.2180 -0.0217 -0.2078
45849W        W88766  33.600   0.351  25.673  0.1342  0.0020 -0.1583
45850W        W88767  33.828  33.025  25.182  0.0417  0.1438 -0.5084
45851W        W88768  31.303   0.312  24.591 -0.0797 -0.3615 -0.1024
45852W        W88769  31.279  33.282  22.966 -0.4578 -0.1518  0.1768
45853W        W88770  33.710   0.048  28.058  0.0030 -0.1814 -0.0465
45854W        W88771  32.863  33.141  27.176 -0.1487  0.0169 -0.0876
45855W        W88772  30.031  33.728  24.316 -0.2192 -0.1225  0.0100
45856W        W88773  30.099   0.542  24.342 -0.3120  0.2211 -0.0482
45857W        W88774  32.192  32.640  26.714  0.1619  0.0499 -0.3745
45858W        W88775  31.865   0.469  24.751 -0.0912  0.1553  0.0385
45859W        W88776  31.205   0.659  25.390 -0.0153  0.0023 -0.2436
45860W        W88777  33.623  33.131  24.673  0.1608 -0.0125 -0.0923
45861W        W88778  31.885  33.662  27.635 -0.1333  0.0492  0.1087
45862W        W88779  33.281  33.018  26.141 -0.0611 -0.1618  0.1334
45863W        W88780  30.113  32.290  26.025  0.0175 -0.0147  0.0620
45864W        W88781  31.536  34.523  23.001 -0.2001 -0.1222 -0.0775
45865W        W88782  30.617  33.783  27.161  0.1025 -0.1420  0.0458
45866W        W88783  30.725   0.537  22.470  0.0072  0.0719  0.3163
45867W        W88784  32.083   0.977  28.918  0.0837 -0.1220  0.0851
45868W        W88785  31.562  32.842  22.922 -0.1057  0.3129  0.1493
45869W        W88786  32.316  32.022  25.219  0.1901 -0.1891  0.0042
45870W        W88787  31.410  34.448  22.531  0.3579 -0.3777  0.0688
45871W        W88788  30.318  33.158  25.001 -0.1637 -0.2831 -0.1971
45872W        W88789  31.266  34.456  25.866  0.0970 -0.3923 -0.0258
45873W        W88790  31.261  32.888  25.870  0.1094  0.1927 -0.2234
45874W        W88791  32.617   1.003  26.445  0.3944 -0.2137 -0.0463
45875W        W88792  31.986  34.618  25.271 -0.0851  0.3044 -0.1142
45876W        W88793  29.516  33.198  26.373  0.0103 -0.0136  0.1796
45877W        W88794  29.253  31.557  24.013 -0.0945  0.0679 -0.3033
45878W        W88795  31.298  32.843  27.533  0.0638 -0.1963  0.0506
45879W        W88796  32.981  33.987  25.241  0.1404 -0.3982 -0.0726
45880W        W88797  33.550   1.373  26.915 -0.0486 -0.1729 -0.0303
45881W        W88798  32.657  30.918  27.409  0.0446 -0.2030  0.3348
45882W        W88799  31.078  32.557  25.539 -0.0964 -0.1479  0.0787
45883W        W88800  31.571  33.066  26.430 -0.3818  0.2943  0.3773
45884W        W88801  33.859  32.161  24.366 -0.3059 -0.1431 -0.1863
45885W        W88802  31.141  33.205  24.883 -0.2125 -0.1136 -0.1431
45886W        W88803  31.178  33.771  27.202 -0.3698 -0.0167  0.0143
45887W        W88804  28.864   2.085  24.103  0.0436 -0.0315  0.1195
45888W        W88805  30.772  31.367  28.035  0.0127  0.1574 -0.3663
45889W        W88806  31.182  32.343  27.960  0.1988  0.0619  0.0706
45890W        W88807  29.814  34.031  24.784 -0.0504  0.1328  0.0407
45891W        W88808  30.568   0.157  26.771  0.0444  0.0176 -0.2810
45892W        W88809  29.115  31.564  25.300  0.0214 -0.1009  0.1414
45893W        W88810  28.228  33.596  23.859  0.0112 -0.3041 -0.0815
45894W        W88811  30.608   0.422  25.480 -0.6215 -0.2287 -0.0742
45895W        W88812  31.856  32.678  26.215  0.3323  0.1752 -0.3315
45896W        W88813  32.595  32.949  28.023 -0.3484 -0.0516 -0.0148
45897W        W88814  29.921  33.540  22.543 -0.3213 -0.0262  0.0035
45898W        W88815  32.735  32.659  25.920  0.0918  0.1522  0.1489
45899W        W88816  32.018  34.408  26.246  0.1171 -0.0217 -0.0329
45900W        W88817  33.546  31.780  26.511  0.0418 -0.3667 -0.2210
45901W        W88818  29.966   0.914  24.712  0.1760  0.1175  0.0554
45902W        W88819  31.841  31.190  27.440  0.0988  0.0934 -0.1555
45903W        W88820  29.596  34.488  24.135  0.0808 -0.4124 -0.0196
45904W        W88821  31.709  33.460  24.948  0.3021  0.1359  0.0599
45905W        W88822  31.785   0.550  26.358  0.1919  0.0664 -0.0235
45906W        W88823  31.073   1.089  26.189  0.0748 -0.3639  0.1472
45907W        W88824  33.367   2.052  25.092 -0.0027  0.0207 -0.0278
45908W        W88825  29.588   0.832  25.906 -0.1274  0.0425  0.0423
45909W        W88826  34.609   1.314  25.171  0.1680  0.0770  0.0785
45910W        W88827  29.421  32.111  26.762  0.1958  0.0334  0.0091
45911W        W88828  31.694   0.529  24.253  0.3856  0.1401  0.1038
45912W        W88829  30.786   2.022  24.985 -0.0624 -0.2566  0.1006
45913W        W88830   0.168   0.141  26.670  0.1609 -0.3201  0.1924
45914W        W88831  30.975  33.466  26.649  0.0724 -0.0739 -0.3816
45915W        W88832  32.010  33.743  23.592 -0.0825  0.2493 -0.1093
45916W        W88833  28.551  32.962  28.205 -0.0390 -0.2815  0.1891
45917W        W88834  32.662  34.429  26.668  0.0635 -0.0852  0.0790
45918W        W88835  31.549  32.796  28.032 -0.2821 -0.2401 -0.0626
45919W        W88836  28.915   0.036  28.383  0.0058  0.0611 -0.0796
45920W        W88837  29.752  31.732  29.474  0.1283 -0.2945 -0.0955
45921W        W88838  31.013  33.987  26.816  0.1420 -0.0436  0.2100
45922W        W88839  30.612  34.508  28.703 -0.0650 -0.1767 -0.0687
45923W        W88840  30.828  33.231  28.512 -0.0131  0.2344 -0.1994
45924W        W88841  30.550  34.060  30.656  0.1199 -0.0810 -0.1397
45925W        W88842  34.406  33.130  30.341  0.1725  0.1653  0.1404
45926W        W88843  28.689   0.665  26.396  0.1328  0.5210  0.0745
45927W        W88844  30.708  33.287  30.306  0.1663  0.1483  0.0598
45928W        W88845  31.546  32.523  30.890  0.0325 -0.1093 -0.0279
45929W        W88846  30.216  33.003  27.648  0.0088  0.0153  0.1506
45930W        W88847  31.477  32.154  31.274  0.0116  0.0821  0.0565
45931W        W88848  31.774  34.439  26.675  0.0256  0.2821  0.0882
45932W        W88849  28.367   0.001  31.153 -0.2800 -0.2817 -0.1401
45933W        W88850  31.006  33.855  29.452  0.2928 -0.2533 -0.1562
45934W        W88851  31.949   0.755  30.008 -0.3070 -0.2796 -0.3022
45935W        W88852  32.655  34.542  30.402 -0.0173  0.0739 -0.0651
45936W        W88853  34.264  34.591   0.002 -0.1070  0.2354  0.0488
45937W        W88854  30.342  34.175  31.772  0.1492  0.0152  0.0279
45938W        W88855  30.338  32.991  29.861  0.0504  0.1421  0.1604
45939W        W88856  32.743  33.481  29.883 -0.0926  0.1328  0.0743
45940W        W88857  32.907  33.851  27.553 -0.1806 -0.2826  0.0352
45941W        W88858  31.123   0.313  27.869  0.0829  0.0722 -0.0352
45942W        W88859  32.117  34.363  27.081 -0.0363  0.1622 -0.1022
45943W        W88860  33.530  34.093  28.687  0.2059 -0.0313 -0.1390
45944W        W88861  31.110  32.399  29.404 -0.1197  0.1528 -0.1231
45945W        W88862  30.774   0.286  29.657  0.1466  0.3531 -0.0183
45946W        W88863  30.995  34.244  30.427  0.1093  0.0277 -0.2699
45947W        W88864  29.059  33.399  28.945  0.1764  0.0045  0.1046
45948W        W88865  28.942   0.147  30.012 -0.0477 -0.2561 -0.0134
45949W        W88866  29.097  34.339   0.256 -0.0318 -0.1091 -0.3187
45950W        W88867  28.638  34.209   1.070 -0.0753 -0.2375  0.0235
45951W        W88868  30.335  32.460  27.536  0.1217 -0.2348  0.3392
45952W        W88869  33.115  34.430  28.964  0.0887 -0.1436 -0.0275
45953W        W88870  32.536  31.675  28.598 -0.2269 -0.3782  0.0702
45954W        W88871  33.474  32.743  30.341 -0.0121 -0.1171  0.1811
45955W        W88872  33.461   0.654  28.188 -0.0004 -0.0998 -0.3514
45956W        W88873  30.533  33.241  31.165  0.1502  0.0157  0.0046
45957W        W88874  28.482  33.165  30.961 -0.2200  0.0511 -0.0014
45958W        W88875  32.984   0.897  28.144 -0.1118  0.0598 -0.1965
45959W        W88876  32.497  31.820  29.862 -0.0657 -0.2227  0.2088
45960W        W88877  31.247  32.697  28.342 -0.0544  0.3282 -0.1001
45961W        W88878  33.467  33.295  26.935 -0.1942 -0.0550 -0.2390
45962W        W88879  30.510   0.614  30.184 -0.1858  0.0481  0.3227
45963W        W88880  30.636  32.265  27.963  0.0575 -0.1815 -0.1426
45964W        W88881  31.061  32.321  31.922  0.3046  0.0347  0.5309
45965W        W88882  28.207  33.548  30.907 -0.0596  0.1478  0.0188
45966W        W88883  30.790  34.388  31.440 -0.1496 -0.3870 -0.0683
45967W        W88884  28.795  31.398  27.124 -0.2617  0.0062  0.3605
45968W        W88885  31.891   1.373  29.160  0.0789  0.0468 -0.1495
45969W        W88886  29.970  32.276  28.111 -0.0262  0.3160  0.1028
45970W        W88887  31.808  33.397  31.860 -0.2286  0.2054  0.1457
45971W        W88888  30.699   1.009  30.484 -0.0921 -0.2748  0.1694
45972W        W88889  30.751  32.769  27.667  0.0774  0.1293 -0.1000
45973W        W88890  31.119  34.546  28.811  0.0488  0.1063 -0.2104
45974W        W88891  31.545  32.191  29.961  0.3480 -0.0116  0.0719
45975W        W88892  32.174   0.505  28.814 -0.3298  0.1203  0.1736
45976W        W88893  29.494  32.784  27.298  0.3907 -0.0825  0.2270
45977W        W88894  28.345   1.555  27.730 -0.1452 -0.0808 -0.1134
45978W        W88895   1.319  34.505  29.740  0.0124 -0.0810  0.2442
45979W        W88896  27.637  32.687  31.249  0.2679 -0.0054 -0.0723
45980W        W88897  32.919  34.335  30.038  0.0717 -0.1733  0.0629
45981W        W88898  30.534  33.647  28.653  0.0624  0.1208  0.3060
45982W        W88899  32.574  34.353  27.767  0.0923 -0.2901  0.0177
45983W        W88900  34.183  33.695  27.481 -0.1187 -0.1107  0.0028
45984W        W88901  31.616   0.325  26.774 -0.0322 -0.0274 -0.0077
45985W        W88902  31.647  33.067  28.518 -0.0323 -0.2451 -0.0196
45986W        W88903  32.311  33.473  26.758  0.1185 -0.0299  0.0121
45987W        W88904  28.536  33.894  31.493  0.0263  0.3686  0.2182
45988W        W88905  31.864  34.010  28.538 -0.0006  0.2050 -0.1313
45989W        W88906  31.806  34.208  30.148 -0.0324  0.0558 -0.0239
45990W        W88907  33.181  33.803  28.985 -0.2764  0.1401 -0.1801
45991W        W88908  30.376   0.285  28.713 -0.1748 -0.1273 -0.0010
45992W        W88909  31.007  31.719  30.123  0.1308 -0.0261  0.0687
45993W        W88910  31.735  33.856  31.766 -0.1696  0.1006  0.0864
45994W        W88911  31.886  33.080  27.578  0.1568  0.0245 -0.0081
45995W        W88912  29.578  34.125  28.980  0.1131 -0.2913  0.1465
45996W        W88913  30.429  33.136  26.234 -0.0428 -0.0040 -0.0420
45997W        W88914  30.966   0.444  30.116 -0.3477 -0.2805  0.2674
45998W        W88915  32.495  30.945  29.232  0.0068 -0.2438  0.2250
45999W        W88916  32.139  33.976  26.758  0.0934  0.1907  0.3826
46000W        W88917  30.341  33.159  28.599 -0.1247  0.0663 -0.0849
46001W        W88918  33.679  32.075  30.758 -0.0673  0.1670  0.1272
46002W        W88919  30.137  33.847  26.781  0.3927 -0.1933 -0.0225
46003W        W88920  29.552  33.420  28.450 -0.1105 -0.1296 -0.3659
46004W        W88921  30.824   0.233  28.406 -0.0305 -0.0612 -0.1177
46005W        W88922  30.193  33.364  30.123 -0.2030 -0.3476 -0.1344
46006W        W88923  31.390  30.555  30.407  0.0121  0.0190  0.2968
46007W        W88924  33.008  34.090  31.732  0.1933  0.0832  0.2996
46008W        W88925  33.174   0.002  27.964 -0.1509  0.0716 -0.1031
46009W        W88926  30.987  33.793   0.196  0.0467  0.0368  0.0575
46010W        W88927  29.578  33.602  29.702 -0.1397 -0.1685  0.2486
46011W        W88928  31.974  33.090  31.391 -0.1906 -0.2412 -0.0146
46012W        W88929  30.049  34.567  29.857 -0.1752  0.1431  0.1294
46013W        W88930  31.302   0.082  27.454 -0.0537 -0.3218 -0.1718
46014W        W88931  29.353  34.008  30.056  0.3506  0.3905 -0.0331
46015W        W88932  32.356  32.460  27.632 -0.0023  0.0750  0.2498
46016W        W88933  30.038  34.060  28.916 -0.2933  0.0204 -0.1890
46017W        W88934  29.324   1.284  26.838  0.0183 -0.0219 -0.0903
46018W        W88935  30.025  34.659  30.901 -0.0586  0.2975 -0.1870
46019W        W88936  30.768  34.068  29.819 -0.2823 -0.1808 -0.1889
46020W        W88937  31.233  32.469   1.547 -0.2241 -0.1011  0.6154
46021W        W88938  32.407   0.243  30.257 -0.1042 -0.1675 -0.0180
46022W        W88939  32.573  33.427  28.215  0.0172  0.2738 -0.1512
46023W        W88940  30.809  33.561  28.140 -0.0071 -0.0935  0.0485
46024W        W88941  33.056  32.858  30.676  0.0009  0.1513  0.2366
46025W        W88942  31.556  33.613  28.476  0.1784  0.3935  0.2356
46026W        W88943  30.793  33.518  31.402 -0.0236  0.2561  0.0311
46027W        W88944  29.777  33.634  30.172  0.2048  0.0985  0.1700
46028W        W88945  28.076   0.333  30.343 -0.1111 -0.1136  0.3514
46029W        W88946  29.056   0.438  31.670  0.1591  0.0196  0.0505
46030W        W88947  31.955  32.632  28.417  0.0440  0.3336 -0.2806
46031W        W88948  30.394  32.946  30.561 -0.0218  0.1972  0.3775
46032W        W88949  29.664   0.537  28.063  0.0782  0.1609 -0.0130
46033W        W88950   0.322  34.243  28.103  0.2932  0.3325 -0.1517
46034W        W88951  29.721   0.335  31.117 -0.1122 -0.0911  0.0911
46035W        W88952  32.293  33.851  27.229  0.3345  0.0476  0.1088
46036W        W88953  32.229  32.279  30.532  0.0511  0.0474  0.0147
46037W        W88954  32.497  34.319  28.513 -0.0451 -0.1488  0.4101
46038W        W88955  32.645  33.176  29.492 -0.0487  0.0419 -0.0878
46039W        W88956  32.257  34.535  29.469  0.3484  0.2576 -0.0082
46040W        W88957  30.838  33.656  30.871 -0.1038 -0.0876  0.2000
46041W        W88958  29.772  34.545  30.373  0.1543  0.3015  0.0641
46042W        W88959  33.428  33.463  27.678  0.2710  0.0227  0.1736
46043W        W88960  32.822  32.505  30.300  0.0740 -0.0954  0.2379
46044W        W88961  29.621   1.369  28.663 -0.2477 -0.0108  0.0687
46045W        W88962  30.047   0.063  26.767 -0.1323 -0.2627 -0.3644
46046W        W88963  29.870   0.442  29.001 -0.0355  0.0410 -0.1327
46047W        W88964  32.797  33.875  30.256 -0.0661  0.0452  0.0326
46048W        W88965  31.141  34.004  28.972 -0.0574  0.0789 -0.1141
46049W        W88966  30.929  31.724  31.846 -0.2913  0.0962 -0.1886
46050W        W88967  29.589  34.129  27.982  0.1658 -0.1286 -0.0933
46051W        W88968  27.471   1.192  30.035 -0.0209  0.3427  0.1429
46052W        W88969  31.263  33.333  26.065 -0.0765 -0.0214 -0.2576
46053W        W88970  30.249  34.068  28.401 -0.2602  0.1671 -0.3063
46054W        W88971  31.430  33.993  27.584  0.0887 -0.1801 -0.0160
46055W        W88972  33.489   0.212  31.545 -0.1924  0.1714 -0.2143
46056W        W88973  32.861   0.092  31.313 -0.1393 -0.1002 -0.0698
46057W        W88974  32.050  32.988  28.882 -0.0802 -0.0638 -0.0432
46058W        W88975  31.682  34.460  29.770 -0.3997  0.2590 -0.1657
46059W        W88976  30.802  32.935  29.657  0.0926 -0.0417  0.1647
46060W        W88977  33.552  33.462  31.394 -0.0858 -0.0978  0.2165
46061W        W88978  27.684  32.242  27.430  0.2632 -0.0973 -0.3556
46062W        W88979  29.592  32.842   1.430 -0.1608  0.1855 -0.1559
46063W        W88980  31.383  33.576  27.916  0.1024  0.0734  0.2540
46064W        W88981  29.993  33.208  28.168  0.1591 -0.1821 -0.0939
46065W        W88982  32.582  32.914  27.491  0.1608  0.2695  0.0792
46066W        W88983  33.163  32.781  29.914  0.0346  0.2577  0.1394
46067W        W88984  33.039   0.407  28.265  0.0091  0.2494  0.1337
46068W        W88985  30.153  33.813  29.891 -0.1649  0.2202 -0.4690
46069W        W88986  32.359  31.764  29.413 -0.1591  0.0094  0.0999
46070W        W88987  27.854  33.546  31.891  0.1325 -0.1651  0.1039
46071W        W88988  32.706  32.301  30.713 -0.1682 -0.1776 -0.1841
46072W        W88989  28.943  33.906  27.235 -0.2497 -0.2441  0.2770
46073W        W88990  29.689  34.415  29.397  0.0822  0.0265 -0.0155
46074W        W88991  33.053  32.271  29.850 -0.2014 -0.0415 -0.1517
46075W        W88992  31.457  34.637  30.184 -0.1386  0.5154  0.3574
46076W        W88993  28.297  33.332  26.106 -0.0683  0.3170 -0.0029
46077W        W88994  34.297  34.660  27.991 -0.1363 -0.0818  0.0876
46078W        W88995  31.329  33.895  30.806 -0.0671 -0.2270 -0.2103
46079W        W88996  33.521  33.289  30.398  0.3288 -0.2149  0.0239
46080W        W88997  30.451  33.098  27.204 -0.0133 -0.2378 -0.3416
46081W        W88998  30.811  34.289  26.399 -0.3864  0.1495  0.4325
46082W        W88999  29.054  33.866  31.242 -0.0400 -0.0851 -0.0082
46083W        W89000  31.221  33.883  25.722 -0.0800 -0.3186  0.0421
46084W        W89001  33.674   1.238   0.177  0.1609  0.1964 -0.1377
46085W        W89002  33.180   0.229  26.377 -0.1468  0.0341  0.1932
46086W        W89003  31.104  33.146  30.077 -0.1056  0.0681 -0.1237
46087W        W89004  32.379  33.799  27.729  0.4128 -0.1471  0.0606
46088W        W89005  29.206  33.030  27.640  0.2336  0.1615  0.0281
46089W        W89006  31.315   0.185  29.210  0.1269 -0.1842 -0.0838
46090W        W89007  29.072  33.385  28.437 -0.0443 -0.0739  0.0114
46091W        W89008  33.476   0.473  28.776  0.2466 -0.0731 -0.2674
46092W        W89009  33.982   0.013  31.515  0.2199 -0.2567  0.0592
46093W        W89010  28.743  31.861  30.490  0.1783  0.0041 -0.4442
46094W        W89011  30.398   0.764  28.893  0.0909  0.1219  0.1094
46095W        W89012  32.124  33.116  30.617 -0.0304  0.1537  0.0822
46096W        W89013  32.916   0.740  29.397  0.0509  0.1557  0.1351
46097W        W89014  32.600  34.402  31.587  0.2701  0.1718 -0.2625
46098W        W89015  32.800  32.034  29.486 -0.2643 -0.0931 -0.2354
46099W        W89016  31.642  33.957  31.243 -0.1011  0.2125 -0.3131
46100W        W89017  32.310  31.996  28.977 -0.1439 -0.0335 -0.1494
46101W        W89018  32.022  33.702  29.262  0.2263 -0.1807  0.1221
46102W        W89019  30.896  33.024  29.200 -0.1805  0.0951  0.1221
46103W        W89020  28.353  34.407  31.713 -0.0098 -0.2334  0.3041
46104W        W89021  29.351  34.326  28.544  0.0835  0.1896  0.1649
46105W        W89022  34.514  32.761  26.746  0.1149  0.0001  0.6359
46106W        W89023  32.841  33.622  29.391 -0.1770  0.1477 -0.0588
46107W        W89024  28.707  33.852  28.995  0.2813 -0.2291  0.2682
46108W        W89025  29.279  33.547  30.935  0.2344  0.2386  0.0825
46109W        W89026  30.526  33.782  29.424  0.0947 -0.0568  0.0602
46110W        W89027  29.150  34.286  29.125  0.1502  0.1271  0.0400
46111W        W89028  31.398  31.868  28.107 -0.1564 -0.2278 -0.1633
46112W        W89029  31.761  34.386   1.892 -0.1062  0.0521  0.4902
46113W        W89030  29.802  33.476  31.567 -0.0929 -0.2693  0.0334
46114W        W89031  28.465  33.153  26.601 -0.0853 -0.1616 -0.1190
46115W        W89032  30.289  33.532  29.039 -0.1110  0.3811  0.1013
46116W        W89033  32.000  33.937   1.909  0.5545  0.1362  0.0627
46117W        W89034  30.062  33.466  27.675 -0.2272 -0.1654 -0.0054
46118W        W89035  30.769  34.634  27.725  0.4465 -0.1817 -0.1439
46119W        W89036  27.249  32.382  30.999 -0.2595  0.2293  0.1210
46120W        W89037  31.147  31.357  29.695 -0.0170  0.1342 -0.0471
46121W        W89038  33.745  33.958  27.754 -0.0039 -0.0226  0.2069
46122W        W89039  29.865  33.707  28.106  0.1833 -0.1173 -0.1832
46123W        W89040  29.259  34.280  27.066  0.2342  0.0820 -0.2553
46124W        W89041  32.304  33.953  30.048 -0.0787 -0.0562 -0.3315
46125W        W89042  31.066  33.638  28.622  0.3208 -0.2343  0.4384
46126W        W89043  33.980   0.325  28.524 -0.0200 -0.1933  0.0483
46127W        W89044  30.791  30.045  30.635  0.0056 -0.2247  0.0548
46128W        W89045  32.122  33.106  29.372 -0.0767 -0.0423 -0.0619
46129W        W89046  29.964   1.372  29.128 -0.0629 -0.1395  0.3721
46130W        W89047  31.913   0.014  30.360  0.2338 -0.2717  0.0143
46131W        W89048  31.095  33.320  29.609 -0.2972 -0.1004 -0.1697
46132W        W89049  30.109  34.040  27.849  0.2727 -0.3683 -0.0727
46133W        W89050  32.455  32.643   0.073 -0.1869  0.1786  0.3843
46134W        W89051  31.793  33.996  30.688  0.1022 -0.0967  0.0110
46135W        W89052  28.250   0.304  31.528  0.3096  0.2838 -0.4055
46136W        W89053  31.969  31.678  29.680 -0.0125  0.0244 -0.3078
46137W        W89054  31.420  34.388  30.704  0.1744  0.0680 -0.1376
46138W        W89055  30.790   0.431  31.671 -0.1165 -0.1487  0.0865
46139W        W89056  30.710  30.065  31.110  0.1535  0.0719 -0.0848
46140W        W89057  31.579   0.590   1.483 -0.0456 -0.1746 -0.1076
46141W        W89058  31.861  32.701  30.480 -0.2169  0.0167  0.0336
46142W        W89059  30.502  33.935  31.165  0.2635  0.0720  0.1489
46143W        W89060  28.721  34.106  30.506 -0.2901 -0.1455 -0.3352
46144W        W89061  32.005  32.947   0.021 -0.2936  0.1737  0.1872
46145W        W89062  33.093  33.101   0.986 -0.3579 -0.3016  0.0119
46146W        W89063  31.158  32.583  31.483 -0.0320 -0.1471 -0.1227
46147W        W89064  31.735   0.729  30.910  0.1962 -0.1500 -0.1963
46148W        W89065  31.299   0.317  31.590 -0.0374  0.2170 -0.3075
46149W        W89066  30.013  34.121  30.910  0.0768  0.0472  0.2457
46150W        W89067  31.106  33.129  31.501 -0.3365  0.2397  0.0922
46151W        W89068   0.164   0.103   0.071  0.3363  0.1540 -0.0056
46152W        W89069  28.842  33.395  30.534  0.1341 -0.1244  0.0093
46153W        W89070  31.166  33.859  31.292 -0.2075  0.0681  0.0333
46154W        W89071  33.032  33.662  31.143  0.2625 -0.1661 -0.0506
46155W        W89072  32.002  31.657  31.001 -0.3885 -0.0456  0.2470
46156W        W89073  30.455  30.896  31.657 -0.3312  0.2565  0.2802
46157W        W89074  28.512  33.149  29.590 -0.1759  0.0174 -0.0030
46158W        W89075  31.292   0.493  31.038 -0.0093  0.4120 -0.1116
46159W        W89076  32.266  33.033   0.538 -0.2420 -0.0042  0.0096
46160W        W89077  32.058  32.044   1.644  0.1202 -0.2412 -0.0003
46161W        W89078  30.240  31.537  29.541 -0.1977  0.2312 -0.0126
46162W        W89079  31.300  33.897   0.670  0.0000  0.0250 -0.3556
46163W        W89080  31.205  32.922   0.511 -0.1387 -0.0873  0.1327
46164W        W89081  30.175   0.681  29.360 -0.1768  0.2419 -0.1696
46165W        W89082  26.645  32.685  31.634  0.1794 -0.1281  0.1598
46166W        W89083  34.070   2.409   0.013 -0.0799 -0.0167  0.2767
46167W        W89084  31.842   2.589  20.396  0.0115 -0.0123  0.0977
46168W        W89085  34.276   1.841  17.187  0.2640 -0.1143 -0.2182
46169W        W89086  32.896   2.520  16.678  0.1290 -0.0398  0.1436
46170W        W89087  32.577   0.704  20.382  0.2756 -0.1024  0.0016
46171W        W89088  33.135   2.073  19.312 -0.1805  0.3241 -0.4028
46172W        W89089  34.260   3.611  18.274  0.0388 -0.0744 -0.1082
46173W        W89090  34.489  34.203  16.704 -0.0894  0.1146  0.2203
46174W        W89091  33.717   1.969  18.005  0.0778  0.0204  0.3158
46175W        W89092  32.924   1.649  18.478  0.0596 -0.3846  0.2513
46176W        W89093  32.617   0.675  18.492  0.4273 -0.0663 -0.1001
46177W        W89094  33.776   2.118  18.892  0.0598 -0.3409 -0.1506
46178W        W89095   1.087  33.501  17.927  0.1723  0.0416 -0.2606
46179W        W89096   0.475   3.112  16.420  0.0254 -0.2453 -0.1049
46180W        W89097  33.751   3.484  18.222  0.2094 -0.1705  0.2050
46181W        W89098  32.795   1.692  19.454 -0.1317 -0.0976 -0.1770
46182W        W89099  33.687   2.615  17.476 -0.1938 -0.2359  0.1285
46183W        W89100  32.170   2.289  18.472  0.0967 -0.2531  0.0125
46184W        W89101   0.747   4.831  17.094 -0.0479  0.1573 -0.0084
46185W        W89102  31.791   1.941  19.133  0.0618 -0.0650 -0.0594
46186W        W89103  31.937   1.440  19.910 -0.2198  0.0606 -0.1955
46187W        W89104  33.951   4.380  18.564 -0.0275  0.5177  0.2094
46188W        W89105  33.010   4.309  18.312 -0.2202  0.3200  0.1487
46189W        W89106  32.549   3.131  18.521  0.3135  0.1263  0.1497
46190W        W89107  33.228   3.831  20.625  0.1310 -0.3365  0.0066
46191W        W89108  33.525   2.053  16.601 -0.1464 -0.3305  0.2988
46192W        W89109   0.054   3.537  18.960  0.0700  0.1547  0.0433
46193W        W89110  33.567   1.856  19.303 -0.0122 -0.0982 -0.2389
46194W        W89111  33.134   5.118  17.750 -0.0107  0.2894 -0.0963
46195W        W89112  34.339   3.085  16.111 -0.4001  0.0608 -0.0613
46196W        W89113  34.545   0.822  16.150  0.2743  0.1050 -0.3815
46197W        W89114  32.992   2.060  19.817  0.0388 -0.2417  0.1277
46198W        W89115  33.529   4.151  17.932 -0.3224  0.1148  0.0726
46199W        W89116  33.250   0.908  19.160 -0.4175  0.0493  0.0873
46200W        W89117  34.320   4.144  18.274  0.0722 -0.1916 -0.1326
46201W        W89118  32.630   2.203  19.426  0.2309  0.1707 -0.0592
46202W        W89119  32.516   2.269  18.097 -0.0421 -0.2462 -0.0676
46203W        W89120  33.117   3.554  19.457 -0.0735  0.0339  0.0440
46204W        W89121  32.861   1.908  20.829 -0.1204 -0.1607 -0.1161
46205W        W89122  33.727   0.964  16.649 -0.0848  0.0628 -0.1200
46206W        W89123  33.314   2.821  19.123  0.1004  0.0432  0.1658
46207W        W89124  32.907   2.435  19.066 -0.3335  0.0471 -0.1777
46208W        W89125  32.736   1.701  16.150 -0.1011 -0.0144 -0.1194
46209W        W89126  33.301   3.063  16.034 -0.1374  0.0664 -0.2194
46210W        W89127  31.345   4.272  18.890 -0.1502  0.0442 -0.2879
46211W        W89128  33.179   0.371  19.216  0.0921  0.1504  0.1062
46212W        W89129   0.351   2.719  18.862 -0.3552  0.2906 -0.1860
46213W        W89130  30.410   1.946  18.802  0.2329  0.0049  0.1986
46214W        W89131  30.389   2.485  18.773 -0.1355  0.0533  0.1505
46215W        W89132  32.740   3.867  18.259 -0.1297 -0.0055 -0.0374
46216W        W89133  32.061   0.781  18.533  0.0026 -0.1468 -0.0864
46217W        W89134  34.389   3.253  19.814  0.0583  0.2352 -0.1274
46218W        W89135  32.446   1.885  20.504  0.2626  0.2080  0.2296
46219W        W89136  32.464   3.483  18.046 -0.0991 -0.2626  0.3938
46220W        W89137   0.488   1.375  18.967  0.1736 -0.0149 -0.1955
46221W        W89138  33.017   2.676  18.147  0.0888  0.1583 -0.1497
46222W        W89139  34.028  34.024  20.240  0.0299  0.5941 -0.2086
46223W        W89140  33.847   0.262  18.680 -0.0743  0.3489 -0.1374
46224W        W89141  32.412   1.031  18.809  0.2865 -0.0178  0.0229
46225W        W89142   0.631   2.453  17.334  0.0072 -0.0452 -0.0723
46226W        W89143  32.894   1.992  17.399  0.0668  0.0615  0.0029
46227W        W89144   0.052   1.570  19.254 -0.1013 -0.1099 -0.3362
46228W        W89145  34.633   1.888  16.451 -0.3494  0.1202  0.1225
46229W        W89146  31.381   2.498  18.543 -0.0055  0.1147  0.1748
46230W        W89147   0.054   2.756  18.366  0.3604  0.3631  0.1792
46231W        W89148  33.524   1.040  18.272  0.2298 -0.0390  0.1693
46232W        W89149   0.135   4.031  18.681 -0.6121 -0.1399 -0.0873
46233W        W89150  34.098   0.758  16.393 -0.4007 -0.2744 -0.1900
46234W        W89151  33.892   3.923  18.405 -0.2108  0.0742  0.0617
46235W        W89152  30.708   0.567  20.016 -0.2722  0.3048  0.1276
46236W        W89153   0.610   2.043  16.940 -0.1812 -0.0655 -0.0531
46237W        W89154  33.498   2.079  19.763 -0.1386  0.0096 -0.0201
46238W        W89155  31.436   4.058  18.423  0.0963 -0.0886  0.0689
46239W        W89156  34.034   1.889  19.312  0.0162 -0.1608  0.0985
46240W        W89157  34.166   3.354  20.872 -0.0283  0.0833 -0.1184
46241W        W89158   1.781   2.380  16.448  0.0112 -0.5371  0.1207
46242W        W89159   0.224   2.418  17.536  0.0243  0.0906 -0.2114
46243W        W89160  34.348   2.564  20.582  0.0286 -0.1953 -0.1261
46244W        W89161   1.206   0.188  18.744 -0.0885  0.2492 -0.5952
46245W        W89162  34.474   2.309  16.283 -0.1302 -0.1304 -0.1548
46246W        W89163  30.670   4.695  18.909 -0.0624  0.2107 -0.0434
46247W        W89164   0.185   0.796  18.331 -0.3915  0.4872  0.0337
46248W        W89165  32.442   0.740  16.770  0.0028  0.1516  0.1476
46249W        W89166   1.101   0.005  20.877  0.2688 -0.0037  0.0546
46250W        W89167  33.361   2.483  20.317  0.2735 -0.0305 -0.3229
46251W        W89168  32.349   4.169  18.525  0.1863 -0.1212  0.0030
46252W        W89169   0.018   1.770  21.642  0.0263 -0.1375 -0.3926
46253W        W89170  31.637   3.548  19.501  0.1345  0.0348 -0.1679
46254W        W89171  33.041   3.323  17.544  0.1065 -0.1679  0.1654
46255W        W89172  33.437  30.970  20.118 -0.1159  0.2646  0.1975
46256W        W89173  33.921   4.376  18.070 -0.0616 -0.0027 -0.0501
46257W        W89174  32.190   2.808  17.251  0.1523 -0.2088 -0.0485
46258W        W89175  31.406   0.720  19.680 -0.0785  0.4267 -0.0424
46259W        W89176  32.410  34.552  18.387  0.2041  0.0983 -0.2865
46260W        W89177  34.667   2.190  18.398  0.0064 -0.1502  0.1456
46261W        W89178  31.145   0.744  17.420 -0.0977 -0.2352 -0.1141
46262W        W89179  33.691   2.340  19.324  0.0019  0.1014 -0.0987
46263W        W89180   1.268   1.326  21.069 -0.0243  0.3120  0.0825
46264W        W89181  31.310   1.762  19.134 -0.1953  0.1371 -0.0871
46265W        W89182   1.040   2.383  20.852 -0.0719 -0.4079 -0.2428
46266W        W89183   0.688   2.652  16.768  0.1039 -0.6173  0.0893
46267W        W89184   1.459   3.402  18.484  0.1164 -0.1921 -0.2261
46268W        W89185  30.669   3.971  20.929  0.0404  0.3833 -0.3121
46269W        W89186   0.262   2.393  16.555 -0.1658  0.1019  0.0564
46270W        W89187  31.183   3.124  19.271 -0.0885 -0.0471  0.1438
46271W        W89188  31.920   0.626  20.991  0.1011 -0.1103 -0.0688
46272W        W89189   0.502   1.686  17.865  0.4451 -0.0588 -0.1020
46273W        W89190   0.191   0.055  17.757 -0.0157 -0.1210  0.3097
46274W        W89191   0.652   2.609  17.780 -0.0647  0.0089 -0.0579
46275W        W89192  33.086   0.669  19.629 -0.2046 -0.1724  0.2427
46276W        W89193  34.536   3.036  20.749  0.2735 -0.2420 -0.0412
46277W        W89194  33.054   3.003  16.512 -0.0416  0.2906  0.1224
46278W        W89195  33.075   0.547  20.558  0.0398 -0.0480  0.1527
46279W        W89196  34.631   3.327  18.506 -0.2642  0.0051  0.0512
46280W        W89197  34.427   2.816  18.757  0.1608 -0.0958  0.1903
46281W        W89198  33.383   3.245  18.696  0.1527 -0.1786  0.0083
46282W        W89199  32.541   3.313  17.423  0.0615  0.0226 -0.1494
46283W        W89200  31.851   4.421  20.245 -0.1530  0.3173  0.2773
46284W        W89201   0.388   2.242  18.745  0.2448 -0.0815 -0.3503
46285W        W89202   0.245   0.326  18.196  0.1975  0.2388  0.1496
46286W        W89203  33.432   1.302  20.130  0.0496 -0.0307  0.0949
46287W        W89204  32.863   1.472  20.529 -0.2939 -0.0054 -0.3407
46288W        W89205  33.405   2.204  17.465  0.0485 -0.2676 -0.3347
46289W        W89206  33.460   2.410  16.972  0.2264  0.2241 -0.1219
46290W        W89207  34.153   2.638  16.041  0.3825  0.3155  0.0780
46291W        W89208   0.222   0.015  19.156 -0.1959 -0.1518  0.3579
46292W        W89209   0.422   1.390  17.379  0.0849 -0.0974 -0.1403
46293W        W89210  33.513   4.341  18.425 -0.0432  0.0591  0.1747
46294W        W89211   0.519   0.522  19.412 -0.0339  0.3927  0.0161
46295W        W89212  34.339   0.853  19.957  0.1894 -0.2082  0.1743
46296W        W89213  34.516   0.443  18.589  0.0524 -0.1010  0.1430
46297W        W89214  32.029   2.034  19.658  0.1213  0.1451 -0.1431
46298W        W89215  34.346   0.986  17.491  0.2111  0.2222  0.3416
46299W        W89216   0.042   2.742  16.137 -0.0613  0.0080  0.2616
46300W        W89217  31.528   1.935  17.779  0.2249  0.0554  0.0016
46301W        W89218  30.984   3.521  20.746  0.2717 -0.1475 -0.2674
46302W        W89219  34.629   1.248  17.141 -0.0464 -0.1440  0.2261
46303W        W89220  34.503   2.334  15.759 -0.0155  0.3366  0.0262
46304W        W89221   0.758   3.875  18.061 -0.3918  0.0889 -0.0488
46305W        W89222  34.659   0.149  17.252  0.0224 -0.1097 -0.0625
46306W        W89223  31.696   1.494  19.465 -0.1659  0.2046  0.0285
46307W        W89224  32.977   2.276  21.185  0.3327  0.2409  0.1924
46308W        W89225  32.073   3.445  19.312  0.0385  0.2304 -0.0849
46309W        W89226  34.041   4.186  17.489 -0.0538  0.0836  0.0109
46310W        W89227   0.917   2.846  18.783 -0.1034  0.1212  0.0350
46311W        W89228  32.684   2.499  18.506  0.1223 -0.1094 -0.0015
46312W        W89229  33.464   2.438  17.942 -0.3479  0.2929 -0.0600
46313W        W89230  32.988  34.653  20.646  0.0399 -0.0698 -0.0182
46314W        W89231   1.100   0.928  18.277  0.3898 -0.2086  0.1153
46315W        W89232  32.357   2.853  21.461 -0.0846  0.1256 -0.2590
46316W        W89233  33.837   0.958  19.448 -0.0120  0.1799  0.1586
46317W        W89234  31.912   2.022  17.506  0.1255 -0.0163 -0.2004
46318W        W89235   0.538   0.879  18.908  0.1392  0.1090  0.2670
46319W        W89236  32.249   2.615  18.069  0.2789  0.1678  0.4181
46320W        W89237  32.985   3.995  16.411  0.1086  0.0268 -0.3329
46321W        W89238  29.743   2.568  19.465  0.0703  0.3971  0.5327
46322W        W89239  34.584   2.297  17.893 -0.0493 -0.0128  0.1687
46323W        W89240   1.365  34.343  18.577  0.1226  0.0226 -0.0948
46324W        W89241   1.252   3.535  19.023  0.1617 -0.2298 -0.1734
46325W        W89242  33.134   2.517  20.756  0.3148 -0.0782  0.2396
46326W        W89243  33.393   2.629  16.516 -0.2378  0.2398  0.0133
46327W        W89244  33.899   3.645  20.029  0.0005 -0.1300  0.1822
46328W        W89245  34.015   2.651  16.594 -0.4477 -0.2802 -0.0908
46329W        W89246  32.571   4.216  16.959 -0.1929 -0.0941 -0.1321
46330W        W89247  32.952   4.025  18.729  0.0499  0.1648 -0.0773
46331W        W89248  33.939   4.649  17.136 -0.1874  0.0153  0.2081
46332W        W89249  33.139   2.080  16.968  0.1506  0.1692  0.1897
46333W        W89250  34.054   0.686  18.694  0.1678  0.0669  0.1262
46334W        W89251  33.987   2.306  17.723  0.0477 -0.3174  0.3122
46335W        W89252  33.272   1.899  17.810 -0.0371  0.2742  0.1075
46336W        W89253   2.153   1.446  16.753  0.3438  0.0042  0.1023
46337W        W89254  33.050   3.256  18.285  0.2930 -0.1551  0.1234
46338W        W89255  33.922   2.142  17.215 -0.0717  0.4208  0.1178
46339W        W89256   0.739   2.389  19.022 -0.2512  0.3433  0.2069
46340W        W89257  33.992   0.637  17.446 -0.0246  0.0532 -0.0672
46341W        W89258  32.287   3.227  16.980  0.2001  0.1091 -0.2301
46342W        W89259  34.400   3.123  18.049  0.3228  0.3834 -0.0267
46343W        W89260  33.173  33.991  16.233  0.1993  0.0394 -0.1706
46344W        W89261  32.483   1.555  18.659 -0.0932 -0.2020  0.3558
46345W        W89262  31.037   4.107  19.654  0.2040  0.1908  0.2448
46346W        W89263  33.728   2.848  16.920 -0.0671  0.1295  0.0826
46347W        W89264   1.904   4.519  18.258 -0.3706  0.1376  0.1596
46348W        W89265  30.430   4.428  21.101  0.3637  0.2783 -0.1006
46349W        W89266  32.799   3.036  17.924 -0.0580  0.1495 -0.2216
46350W        W89267  34.476   1.905  19.537 -0.5017 -0.0022 -0.1244
46351W        W89268  33.479   3.699  17.105  0.0538  0.1317 -0.0187
46352W        W89269  33.120   3.746  16.771  0.1412  0.2484  0.0480
46353W        W89270   0.156   1.889  17.097  0.0565  0.0076 -0.0976
46354W        W89271  34.455   2.281  17.391 -0.0856  0.0458  0.0406
46355W        W89272  33.909   1.134  19.933  0.1439 -0.3975 -0.2529
46356W        W89273  33.199   2.834  17.567 -0.2429 -0.0181 -0.0194
46357W        W89274  32.788   2.940  17.284  0.0247  0.0770 -0.2519
46358W        W89275  31.950   1.402  17.315 -0.1546  0.0692  0.0070
46359W        W89276  32.152   0.465  20.215  0.0563 -0.1206 -0.0450
46360W        W89277   0.476   3.127  18.619  0.1072  0.2738 -0.1625
46361W        W89278   0.403  34.611  17.344  0.0090 -0.0375  0.3201
46362W        W89279  34.350   1.690  18.989 -0.0948 -0.0463 -0.1231
46363W        W89280  34.055   0.441  18.247 -0.0808  0.0288 -0.1292
46364W        W89281   0.559  33.384  19.425 -0.1734 -0.3665 -0.2670
46365W        W89282  32.886   1.675  16.788 -0.0694 -0.2110  0.1122
46366W        W89283   0.694   0.779  19.853  0.0680 -0.2611 -0.0360
46367W        W89284   0.048   1.168  17.728 -0.0774 -0.0619 -0.5170
46368W        W89285  33.107   1.397  17.977 -0.3020  0.0549 -0.1977
46369W        W89286   0.055   0.632  19.473  0.0970  0.0555 -0.1913
46370W        W89287  34.300   2.619  18.153 -0.4257 -0.0356 -0.3685
46371W        W89288  34.481   4.900  19.085  0.2722 -0.0288 -0.2004
46372W        W89289  31.318  33.800  20.051 -0.3407 -0.0258  0.1661
46373W        W89290  34.456   1.792  20.112 -0.0482 -0.0856 -0.3306
46374W        W89291   0.760  34.553  20.486  0.0678  0.2433 -0.0975
46375W        W89292  33.504   3.371  19.215 -0.0090  0.1589  0.1474
46376W        W89293   0.720   0.567  18.242 -0.2928  0.1214  0.3278
46377W        W89294  32.313   1.787  18.223 -0.1845 -0.3525 -0.2145
46378W        W89295   0.227   0.880  17.305 -0.1609 -0.1773  0.0542
46379W        W89296  33.095   3.604  17.939 -0.0239  0.0461  0.0819
46380W        W89297   0.157   1.943  17.589 -0.1343 -0.0293  0.1645
46381W        W89298   0.657   5.288  19.531 -0.1108  0.0570 -0.1578
46382W        W89299  33.167   1.594  17.264  0.1289 -0.0453 -0.2439
46383W        W89300  34.447   1.565  16.785  0.2618 -0.0355 -0.0935
46384W        W89301  34.217   4.085  17.051  0.1230 -0.0895 -0.0753
46385W        W89302  34.283   2.120  18.692  0.2435  0.0889  0.0220
46386W        W89303  31.393   4.291  19.391  0.3108  0.0620 -0.2234
46387W        W89304  32.851   2.412  23.046 -0.0342 -0.1130 -0.0301
46388W        W89305   0.188   0.786  22.635 -0.2825  0.0709  0.2351
46389W        W89306  33.571   1.476  21.413  0.0771 -0.2951  0.0106
46390W        W89307  34.036   0.587  23.931 -0.0726  0.2461 -0.0945
46391W        W89308  34.207   1.707  22.719  0.0255 -0.1161  0.1261
46392W        W89309   1.332   3.744  21.611 -0.1102  0.1306  0.0622
46393W        W89310   1.312   0.797  19.880  0.1590 -0.1455 -0.3177
46394W        W89311  33.880   1.229  21.897 -0.2176  0.2510  0.0977
46395W        W89312  33.590   0.569  19.630 -0.2501 -0.3745  0.3542
46396W        W89313  33.137   2.798  22.771 -0.1625 -0.2832 -0.0879
46397W        W89314  34.026   0.179  20.361 -0.0685 -0.1144 -0.0146
46398W        W89315  34.406   0.453  23.589  0.0967  0.0378 -0.1050
46399W        W89316  33.721   2.914  19.473 -0.0895 -0.3305 -0.0903
46400W        W89317  31.490   1.713  20.053 -0.0170 -0.0305 -0.2414
46401W        W89318  31.948   0.378  21.552 -0.1718 -0.0603  0.2217
46402W        W89319  33.660   3.079  21.588  0.0729  0.1785 -0.2868
46403W        W89320   1.749   2.938  21.822 -0.1244  0.1466  0.1461
46404W        W89321   1.103   3.305  22.890 -0.6253 -0.0316 -0.0608
46405W        W89322  33.052   4.669  23.293  0.0967 -0.2045  0.1293
46406W        W89323  32.610   4.097  22.797  0.0784  0.1416 -0.0294
46407W        W89324  32.544   2.162  22.082 -0.0707  0.1737  0.0319
46408W        W89325  33.603   3.749  23.572  0.1397 -0.2027 -0.0753
46409W        W89326  31.281   3.834  19.228  0.2430  0.2632  0.5020
46410W        W89327   0.882   3.009  22.328  0.1498 -0.1596  0.1925
46411W        W89328  32.824   0.914  20.744 -0.0851 -0.4207 -0.2044
46412W        W89329  33.858   3.012  22.067 -0.1498 -0.3079 -0.3557
46413W        W89330  34.568   2.920  22.714  0.0848 -0.2455  0.1789
46414W        W89331   0.621   3.487  20.795  0.2415  0.0703 -0.1172
46415W        W89332  34.142   4.215  22.371  0.3287  0.1601  0.1139
46416W        W89333  33.386  34.245  19.030 -0.2388 -0.1038  0.2536
46417W        W89334   0.502   1.538  21.901 -0.4045 -0.1276 -0.2782
46418W        W89335  33.239   2.854  21.735 -0.0906  0.1041 -0.3799
46419W        W89336  34.621   0.540  21.773  0.3086 -0.2388  0.1269
46420W        W89337   1.677   3.689  22.466  0.1980 -0.0095  0.2176
46421W        W89338  34.422   0.894  22.039 -0.1585  0.1204  0.1070
46422W        W89339  33.770   2.490  22.321 -0.1613  0.0661 -0.0700
46423W        W89340  34.542   4.025  22.205  0.1019 -0.1959  0.0784
46424W        W89341  31.170   2.336  25.559  0.0076 -0.0422 -0.0007
46425W        W89342   0.318  34.165  19.027 -0.0026  0.0569 -0.0505
46426W        W89343  32.207   3.278  23.085  0.1243 -0.0021  0.1169
46427W        W89344   0.675   3.562  20.269  0.4121  0.2605  0.0989
46428W        W89345  33.551   1.565  20.595 -0.0271  0.3368 -0.0874
46429W        W89346  33.857   1.146  22.786 -0.2624  0.0532 -0.2466
46430W        W89347   0.655   2.574  22.528 -0.0992  0.2727  0.0033
46431W        W89348  32.907   1.299  23.686  0.0204 -0.1774 -0.6495
46432W        W89349  34.191   2.077  24.356  0.0699  0.1871 -0.0152
46433W        W89350  34.224   4.305  21.378  0.2833  0.0624  0.1236
46434W        W89351  31.930   3.138  21.617  0.1193 -0.0265 -0.0972
46435W        W89352  33.287   1.911  21.448  0.1166  0.2470 -0.0671
46436W        W89353  32.550  34.465  23.308 -0.1289  0.0637 -0.0933
46437W        W89354  34.401   1.612  21.175 -0.0969  0.2248  0.0938
46438W        W89355  33.384   0.426  23.410  0.0649 -0.1882  0.1525
46439W        W89356  32.678   2.630  23.657 -0.0383  0.1618 -0.2819
46440W        W89357  33.505   0.715  22.718 -0.0070  0.1783 -0.0123
46441W        W89358  34.340   1.405  21.701 -0.1440 -0.2576  0.1006
46442W        W89359  34.403  33.195  23.274  0.0531 -0.2043  0.0694
46443W        W89360  34.577   2.214  23.758 -0.0937 -0.0739 -0.2457
46444W        W89361  33.264   0.299  20.935 -0.3061 -0.2041  0.2981
46445W        W89362  33.465   3.447  19.801  0.1200 -0.2547  0.3772
46446W        W89363  34.402   1.113  21.050 -0.0040  0.2351 -0.0015
46447W        W89364   0.227   0.659  22.157 -0.1041 -0.1714 -0.1475
46448W        W89365  34.061  34.588  22.660  0.0007 -0.0329 -0.1316
46449W        W89366  32.626   2.862  24.156 -0.2167 -0.2859 -0.1347
46450W        W89367  33.824   2.668  20.243 -0.2403 -0.2230  0.1670
46451W        W89368   1.072   0.335  20.092 -0.1819  0.0879 -0.0168
46452W        W89369  33.908   1.878  23.112 -0.0494 -0.0714  0.2962
46453W        W89370  32.988   0.993  20.029  0.0971 -0.0942  0.1995
46454W        W89371  34.279   3.850  19.892  0.0601  0.0894 -0.2706
46455W        W89372  32.892   0.069  22.030 -0.2061 -0.2110 -0.1153
46456W        W89373  33.951   4.795  19.559 -0.1407  0.1104  0.0702
46457W        W89374  32.598   2.682  22.436 -0.0624 -0.1816  0.0352
46458W        W89375  32.341   0.495  21.260  0.1384  0.2024  0.0266
46459W        W89376   0.677   3.810  22.098 -0.2931  0.2820  0.1658
46460W        W89377  32.123   2.502  24.072  0.2213 -0.1771  0.0555
46461W        W89378   0.666   2.040  19.738  0.0822  0.0213  0.0210
46462W        W89379   0.019   2.691  22.045  0.0681  0.1627  0.1014
46463W        W89380  31.646   1.948  22.755 -0.2587 -0.0400  0.2576
46464W        W89381   1.220   0.701  23.659  0.1450  0.2751  0.1032
46465W        W89382  33.827   0.223  19.865 -0.2020 -0.1832 -0.2557
46466W        W89383  32.131   2.272  20.755  0.1906 -0.2033 -0.0234
46467W        W89384   2.261   0.903  21.531 -0.2423  0.0664  0.0233
46468W        W89385  31.840   1.801  20.816  0.2919 -0.0451  0.0614
46469W        W89386  33.254   2.332  22.563  0.0892  0.2901  0.2452
46470W        W89387  33.561   2.484  22.929  0.0014 -0.0789 -0.1051
46471W        W89388  34.371   2.673  23.071 -0.0739 -0.0458 -0.0845
46472W        W89389   1.093   0.577  22.956  0.0074 -0.1974  0.0031
46473W        W89390   2.095   3.326  21.824  0.0392 -0.0334 -0.0053
46474W        W89391  33.813   3.264  20.445  0.1362  0.2046 -0.2975
46475W        W89392   2.085   0.515  22.879 -0.1356  0.0139 -0.2710
46476W        W89393   0.038   1.779  22.599 -0.0770 -0.1525 -0.3020
46477W        W89394  34.010   2.530  18.520  0.0947  0.0866  0.0929
46478W        W89395  32.376   0.773  20.823 -0.0864  0.1788 -0.1944
46479W        W89396  33.367   3.783  22.433  0.2070 -0.2463 -0.1258
46480W        W89397  33.563   0.942  21.396  0.1739  0.2772 -0.2528
46481W        W89398  32.327   0.886  22.104  0.1851 -0.2376 -0.1107
46482W        W89399  33.151  33.997  23.318  0.0593 -0.1298 -0.0404
46483W        W89400  34.648   0.120  21.460  0.0031 -0.1983 -0.2641
46484W        W89401   0.086   3.423  22.145  0.5099  0.2199 -0.1015
46485W        W89402   2.880   1.151  24.539 -0.2291  0.4674 -0.0352
46486W        W89403  33.217   0.338  20.013 -0.1223  0.0625  0.0702
46487W        W89404   0.477   1.092  22.346  0.1705 -0.1213 -0.2515
46488W        W89405  33.159   1.750  21.903  0.0877  0.0740 -0.0795
46489W        W89406  32.921   1.461  22.293 -0.1006  0.1248  0.0919
46490W        W89407  32.116   1.485  20.401 -0.5037  0.0083  0.2035
46491W        W89408  33.150   0.879  23.457 -0.1025 -0.1537 -0.0109
46492W        W89409  34.234   3.097  22.356 -0.2174 -0.0039 -0.0880
46493W        W89410  33.441   1.122  19.606  0.1737  0.1740  0.1294
46494W        W89411   0.948   0.681  21.941 -0.1610  0.1392  0.1338
46495W        W89412   0.838   1.428  22.637  0.3450 -0.1184 -0.1487
46496W        W89413  32.390   3.374  24.084  0.0019  0.1726 -0.1021
46497W        W89414  33.433   0.748  20.185  0.0189 -0.1121 -0.1776
46498W        W89415  30.451  34.624  21.873 -0.0173 -0.0985 -0.3773
46499W        W89416  32.528   1.774  22.500 -0.3041 -0.0461  0.1999
46500W        W89417  34.569   2.714  21.510  0.0559  0.0797 -0.1366
46501W        W89418  32.686   1.007  22.492  0.1413  0.0748 -0.2057
46502W        W89419  33.051   1.405  21.564  0.1446 -0.4493 -0.0113
46503W        W89420  34.081   1.694  20.753 -0.1285 -0.2862 -0.0103
46504W        W89421  33.848  33.700  23.095 -0.0495  0.2403 -0.0749
46505W        W89422  34.670   1.145  22.422  0.1001  0.0435 -0.0248
46506W        W89423  33.701   3.698  24.719 -0.1380 -0.0985  0.0619
46507W        W89424  32.162   2.321  25.557 -0.0391 -0.3187 -0.1270
46508W        W89425  33.464   0.796  20.875  0.3357  0.0788  0.0517
46509W        W89426   0.142   2.370  22.469 -0.0168  0.2020  0.0059
46510W        W89427  32.131   1.353  21.747  0.0503 -0.2109 -0.0507
46511W        W89428  34.379   2.137  22.257  0.1879 -0.1300  0.1968
46512W        W89429  32.635   2.874  20.179  0.1620 -0.1589 -0.0089
46513W        W89430  33.051   2.082  23.873  0.0539 -0.2524  0.0062
46514W        W89431   0.279   1.248  22.779 -0.1248  0.0142 -0.2736
46515W        W89432  33.155   0.866  24.434 -0.3416 -0.0381  0.0601
46516W        W89433  31.263  34.598  22.045 -0.1375  0.0899  0.0994
46517W        W89434  33.865   0.905  23.534 -0.2649 -0.1069  0.1980
46518W        W89435  34.636   0.111  20.900 -0.0315  0.1373 -0.0533
46519W        W89436  33.509   4.637  19.793 -0.2295  0.0854 -0.1580
46520W        W89437  33.329  34.577  24.638 -0.0724 -0.0576  0.0059
46521W        W89438  33.513   0.574  23.901  0.0499 -0.0155  0.1377
46522W        W89439  32.831  33.742  21.485  0.2120  0.0094  0.0331
46523W        W89440   0.232   1.720  18.720  0.0457  0.3445 -0.0649
46524W        W89441   0.736   2.824  20.131  0.1668 -0.0289  0.4143
46525W        W89442   1.175   0.443  21.082 -0.3798 -0.1670 -0.1570
46526W        W89443  32.154   2.611  21.083 -0.2028 -0.4158  0.1339
46527W        W89444  32.855   2.135  20.288 -0.0861 -0.1284  0.1988
46528W        W89445   0.339   3.328  23.838  0.4154 -0.0837  0.0471
46529W        W89446   2.370   2.121  22.970  0.2313  0.0976  0.0310
46530W        W89447  33.184   2.496  19.570 -0.0030  0.0691  0.1821
46531W        W89448  33.936   1.651  20.267 -0.4119 -0.3589 -0.1812
46532W        W89449  32.114   3.530  22.524 -0.1188  0.0127 -0.3175
46533W        W89450  32.128  33.467  24.267  0.1562 -0.0450 -0.0318
46534W        W89451   0.971  33.203  21.322 -0.0902 -0.2254  0.0382
46535W        W89452  32.025   3.541  21.882  0.1053  0.1556 -0.2376
46536W        W89453  33.275   3.426  23.824  0.2732  0.0006 -0.0251
46537W        W89454  33.054   3.316  22.732 -0.0135  0.2242 -0.3500
46538W        W89455   0.413   1.075  20.960 -0.1987  0.2386  0.2181
46539W        W89456  33.725   4.563  21.527 -0.1272  0.0663 -0.2013
46540W        W89457  31.819   2.611  21.606 -0.4136  0.1378 -0.0866
46541W        W89458  33.751   3.740  20.728  0.0195 -0.1631  0.0779
46542W        W89459  33.645   1.868  20.977  0.0616 -0.0761  0.1833
46543W        W89460  34.300   0.449  20.739  0.1659  0.0104  0.2608
46544W        W89461   2.162  34.212  26.423  0.1707 -0.1426 -0.0829
46545W        W89462  33.809   4.556  23.127 -0.0624 -0.2509 -0.0476
46546W        W89463  32.342   1.351  22.289  0.0371 -0.1926 -0.0558
46547W        W89464   0.428   2.886  21.843 -0.1600  0.1083 -0.3056
46548W        W89465  32.910   0.381  21.311  0.0343  0.1779 -0.0383
46549W        W89466  33.356   1.204  21.861  0.0916 -0.2177  0.1860
46550W        W89467   1.328   2.974  22.054 -0.0041  0.3692 -0.0825
46551W        W89468   0.320   2.167  21.595 -0.3700  0.0719 -0.0440
46552W        W89469  31.014  33.902  21.248  0.1404 -0.1063  0.0093
46553W        W89470  32.250  34.302  22.308  0.0720 -0.1040 -0.1484
46554W        W89471  34.430   3.702  23.173 -0.0566 -0.2877 -0.3217
46555W        W89472  32.166   0.557  23.009 -0.2532 -0.0523 -0.1612
46556W        W89473  34.133   2.159  21.020 -0.0376 -0.1747  0.0823
46557W        W89474  32.779  34.281  21.742 -0.3176  0.1958 -0.0431
46558W        W89475  33.666   0.674  24.375  0.1409  0.2495  0.3568
46559W        W89476  33.797   1.641  24.493  0.3344  0.1830 -0.1100
46560W        W89477  34.486   1.296  22.860 -0.1084 -0.0974 -0.0554
46561W        W89478  34.162   4.282  20.846  0.3394  0.0508  0.0887
46562W        W89479  33.783  33.816  24.601 -0.3252  0.0346  0.0019
46563W        W89480   2.010   1.399  21.310 -0.0849  0.1725  0.0605
46564W        W89481  32.635   1.663  21.919 -0.3330  0.1145  0.1588
46565W        W89482  34.215   2.614  21.996 -0.1387 -0.2066 -0.0575
46566W        W89483   1.763   3.537  18.880  0.0123  0.0381 -0.1531
46567W        W89484   3.119   0.737  21.660  0.0303 -0.2735  0.1237
46568W        W89485  32.552   3.633  24.542 -0.0807  0.2033  0.0611
46569W        W89486  34.465   3.415  20.284  0.0689  0.1837 -0.1208
46570W        W89487   1.874   2.360  22.475  0.0144  0.2370  0.2529
46571W        W89488   0.237   1.978  22.184  0.0034 -0.0819 -0.2642
46572W        W89489   0.481   3.968  19.981 -0.0878 -0.0049 -0.2104
46573W        W89490   0.114   3.213  21.658 -0.1639  0.3863 -0.1031
46574W        W89491   0.841   0.298  21.683 -0.1229 -0.0382  0.2399
46575W        W89492  33.995   2.235  22.723  0.0715  0.0959  0.0211
46576W        W89493  32.909   2.526  19.953  0.1630  0.0090  0.2901
46577W        W89494  32.904   3.313  19.926  0.1731  0.0241 -0.1086
46578W        W89495  34.347   3.577  22.463  0.2397  0.0859 -0.0993
46579W        W89496  33.210   0.386  24.321 -0.1352 -0.0629 -0.0152
46580W        W89497  32.956   1.300  24.618 -0.0010  0.0844  0.0541
46581W        W89498  33.830  34.372  22.059  0.2491  0.0621 -0.0960
46582W        W89499   0.695   0.275  21.186 -0.0519 -0.0398 -0.1605
46583W        W89500  33.621  33.444  22.763  0.0770  0.2429  0.1772
46584W        W89501  34.562   2.059  20.704 -0.1210  0.1622 -0.0047
46585W        W89502  34.233   1.406  22.351  0.0682 -0.0200  0.0317
46586W        W89503  34.020   2.540  24.696  0.0114 -0.0540 -0.0878
46587W        W89504  33.636   0.514  22.303 -0.2872 -0.3080 -0.0113
46588W        W89505  32.676  34.431  20.353  0.0221  0.3353  0.0945
46589W        W89506   0.836   0.178  22.245 -0.0243 -0.2397  0.0490
46590W        W89507   2.103   1.328  20.264  0.0482 -0.2300  0.0777
46591W        W89508  33.477   4.960  23.031 -0.0954 -0.1229 -0.1327
46592W        W89509  31.205  33.998  22.605  0.2720 -0.1596  0.1076
46593W        W89510  33.948   5.090  23.382 -0.0373  0.1808  0.1045
46594W        W89511   0.472   0.512  22.980 -0.2437 -0.2140 -0.1407
46595W        W89512  33.508   3.056  22.995  0.0571  0.0731 -0.3099
46596W        W89513  32.160   1.002  24.407 -0.0659 -0.0797 -0.1446
46597W        W89514  33.725   3.138  21.094 -0.4991 -0.3298  0.0153
46598W        W89515  34.446   0.588  21.294  0.2798 -0.0831  0.0575
46599W        W89516   1.024   2.259  22.944 -0.2622  0.0646  0.1557
46600W        W89517  33.924   3.354  19.619  0.0271  0.1030 -0.0180
46601W        W89518  34.527   3.193  21.211  0.1153 -0.0955 -0.0335
46602W        W89519   0.727   1.834  20.826  0.0378 -0.2404  0.2020
46603W        W89520  32.732   0.236  20.249 -0.1541  0.0477  0.1218
46604W        W89521  33.768   3.518  21.877 -0.1405 -0.0758  0.1947
46605W        W89522  33.108  34.587  24.028  0.1795  0.1910  0.0041
46606W        W89523  34.475   4.622  23.216  0.2519  0.2659  0.0717
46607W        W89524  34.478   2.625  26.740 -0.0186  0.2108 -0.0363
46608W        W89525   0.254   1.156  24.726  0.1990  0.2335 -0.4286
46609W        W89526  33.612   1.582  22.816 -0.0237  0.1854  0.1277
46610W        W89527  33.929   0.047  25.890  0.4434  0.1616 -0.1497
46611W        W89528   1.149   0.626  27.107  0.4717  0.1448  0.0619
46612W        W89529  34.220   4.576  26.873  0.1176  0.3388  0.2652
46613W        W89530   0.489   0.768  21.760  0.0545  0.1918  0.0225
46614W        W89531  34.427   0.178  25.746  0.1957  0.0735  0.0464
46615W        W89532  28.159   2.368  25.201 -0.1240  0.1883 -0.2589
46616W        W89533  34.233   1.875  24.834  0.0886  0.0343  0.0479
46617W        W89534  34.408   1.727  23.225 -0.0468  0.1926  0.0924
46618W        W89535   0.216   0.608  26.961 -0.0534 -0.0550  0.0972
46619W        W89536  34.155   3.041  23.828  0.0123  0.2441 -0.2654
46620W        W89537  33.069   0.392  23.838  0.0963 -0.1519 -0.1198
46621W        W89538  33.445   1.107  26.379  0.0024 -0.4269  0.0021
46622W        W89539  34.459  34.661  25.031  0.1060  0.1672  0.2118
46623W        W89540  34.301   4.700  23.971  0.0424  0.1027 -0.2857
46624W        W89541  33.689   5.371  23.891 -0.0117 -0.0662 -0.1699
46625W        W89542  33.389   1.684  25.465 -0.0684  0.0402 -0.1203
46626W        W89543  28.811   5.081  26.480 -0.1034  0.3183  0.3703
46627W        W89544  34.064   1.802  23.569 -0.2519 -0.3139 -0.0892
46628W        W89545  33.334   5.729  28.005  0.1276  0.1955 -0.3270
46629W        W89546  32.901   3.581  22.329  0.1538  0.0883 -0.0495
46630W        W89547  34.267   4.875  25.378 -0.0051  0.0744  0.0140
46631W        W89548   0.029   1.188  23.430  0.1728  0.0384 -0.2042
46632W        W89549  34.634   2.619  24.472 -0.0960 -0.1256 -0.0350
46633W        W89550  34.118   3.575  25.907 -0.0324  0.1803  0.1214
46634W        W89551  31.414   4.089  26.425  0.0194  0.3249  0.1148
46635W        W89552  33.016   3.472  24.745  0.0155  0.2359 -0.1937
46636W        W89553  34.655   0.169  24.550 -0.0775 -0.3609 -0.0420
46637W        W89554  34.417   0.641  25.364  0.0493  0.3900 -0.0421
46638W        W89555  32.633   4.464  26.152  0.1433  0.1340  0.2128
46639W        W89556   0.489  33.481  26.513  0.3645  0.0568  0.0234
46640W        W89557  32.626   3.239  27.082  0.4299  0.1444  0.0688
46641W        W89558  33.526   1.382  25.875  0.2124 -0.2413 -0.2703
46642W        W89559  33.118   0.757  22.975  0.1113  0.2294  0.2271
46643W        W89560  33.582   2.292  27.870  0.2410  0.2261  0.2661
46644W        W89561  34.487   1.315  27.252 -0.1954  0.0199 -0.2484
46645W        W89562  33.932  33.333  23.424  0.0201  0.1954 -0.3973
46646W        W89563  32.121   2.218  27.040 -0.0192 -0.0104 -0.1857
46647W        W89564  33.680   3.936  24.300 -0.1661  0.0689 -0.0287
46648W        W89565  34.387   1.777  23.996  0.0886  0.1031  0.4004
46649W        W89566  33.149   0.453  22.425  0.3662 -0.1272  0.1823
46650W        W89567  33.766   3.204  25.748 -0.2095  0.1512 -0.0762
46651W        W89568  34.027  34.294  26.900  0.1089 -0.1263  0.0074
46652W        W89569  33.190   2.331  24.633  0.1300  0.2429 -0.1381
46653W        W89570  33.107   2.624  25.725 -0.0268  0.2351 -0.1504
46654W        W89571  32.645   3.147  26.243  0.0669  0.1813  0.0427
46655W        W89572  32.634   0.681  25.145  0.0757 -0.0393 -0.1879
46656W        W89573  33.082   1.532  25.089 -0.0781  0.0925 -0.3293
46657W        W89574  33.441   5.409  27.056  0.0659  0.1482 -0.0037
46658W        W89575  33.829   1.047  26.101 -0.3838 -0.2133 -0.2030
46659W        W89576  33.747   1.025  24.001  0.0146  0.0642 -0.1394
46660W        W89577  33.797   1.494  29.294  0.3944 -0.2158 -0.2289
46661W        W89578  33.885   1.530  24.003  0.3579  0.1846 -0.1590
46662W        W89579  34.529   0.269  27.042 -0.3500  0.0554  0.0309
46663W        W89580  32.656  34.289  27.195  0.1050  0.0413  0.0916
46664W        W89581   0.222  33.343  23.161  0.0028  0.0438 -0.4660
46665W        W89582  34.609   3.455  24.548 -0.0600 -0.2062  0.1471
46666W        W89583  32.504   2.764  25.880  0.0683  0.1551 -0.1053
46667W        W89584  34.062   2.240  25.730 -0.1911  0.3383 -0.0452
46668W        W89585   0.195   0.198  23.735  0.0214 -0.2908 -0.0104
46669W        W89586  34.592   4.816  25.805 -0.1463  0.1272 -0.0591
46670W        W89587  32.638   2.556  25.047 -0.0254 -0.2813 -0.0010
46671W        W89588  34.071   1.295  23.235 -0.2539  0.0716  0.0117
46672W        W89589  33.176   2.026  27.973 -0.1874  0.5749 -0.0950
46673W        W89590  34.265   0.275  23.072 -0.0289  0.0869 -0.0409
46674W        W89591  33.337   4.408  22.971  0.1388 -0.1783 -0.3193
46675W        W89592  33.317   2.628  27.462  0.1311  0.0311 -0.0939
46676W        W89593   0.589   2.842  23.647 -0.2631 -0.0905 -0.2257
46677W        W89594  33.232   1.441  29.197  0.2533  0.1879 -0.1755
46678W        W89595  33.703   1.406  23.559  0.1823  0.2297  0.3058
46679W        W89596  33.733   1.839  28.793 -0.1404 -0.0303 -0.0930
46680W        W89597  33.163   0.267  29.290  0.2310 -0.1062  0.0456
46681W        W89598  33.832   3.855  25.176  0.3049  0.1033  0.0577
46682W        W89599  34.413   4.401  25.424  0.0152  0.0464 -0.1868
46683W        W89600  32.965   1.369  25.811 -0.0093 -0.1809 -0.0518
46684W        W89601   0.369   2.303  24.528 -0.3655  0.0876  0.2997
46685W        W89602   1.612   2.733  23.970 -0.2219 -0.1404  0.1549
46686W        W89603  31.698   2.771  23.832  0.4672 -0.1058  0.0520
46687W        W89604   0.703   1.439  26.634  0.3751  0.2218  0.1278
46688W        W89605  32.685   0.360  24.141 -0.0979  0.0806 -0.1862
46689W        W89606  33.290   1.736  27.360  0.0414 -0.0995 -0.0502
46690W        W89607  33.431   3.097  26.496 -0.0391  0.2271  0.0476
46691W        W89608  31.456   3.696  28.062  0.2148  0.2170 -0.0098
46692W        W89609   0.292   1.654  28.799 -0.0975 -0.0160 -0.1559
46693W        W89610   0.306   2.532  25.485  0.2044 -0.0715  0.0324
46694W        W89611   0.291   0.706  24.102 -0.0843  0.1127  0.0301
46695W        W89612   0.743   0.669  25.056 -0.1760  0.0372 -0.4914
46696W        W89613  32.946   2.793  24.639 -0.0040  0.3614  0.1464
46697W        W89614  32.867   1.767  23.509  0.1352  0.0854  0.0631
46698W        W89615  32.377   3.377  24.995 -0.0396 -0.0146 -0.0530
46699W        W89616  33.134   3.443  26.870  0.1004 -0.0081  0.3855
46700W        W89617  34.201   1.125  24.230 -0.3655  0.2409  0.0717
46701W        W89618  33.399   0.060  26.804 -0.2247  0.0681  0.3670
46702W        W89619  34.006   1.165  27.014  0.0206  0.0460  0.0833
46703W        W89620  33.808   1.373  25.520  0.0333 -0.2767  0.0101
46704W        W89621  34.119   3.424  26.425 -0.1910 -0.0278 -0.2653
46705W        W89622  33.277   1.507  27.850 -0.0642 -0.3407  0.1422
46706W        W89623  32.154   0.495  25.180 -0.4059 -0.3128  0.0916
46707W        W89624  33.907   2.836  23.221  0.0115 -0.0752 -0.2355
46708W        W89625  32.865   3.236  24.342  0.0567 -0.0826  0.1138
46709W        W89626  33.300   1.221  25.432  0.0765  0.2697  0.1904
46710W        W89627  32.625   3.903  25.055 -0.0112  0.1824 -0.1713
46711W        W89628  33.289   1.924  28.974  0.0158 -0.2122  0.0827
46712W        W89629   1.072  34.672  24.205  0.0228  0.0054 -0.1093
46713W        W89630  33.814   2.401  24.268  0.1939  0.1531  0.3266
46714W        W89631  34.127   1.433  25.068  0.0883  0.1984  0.0002
46715W        W89632   0.820   1.103  27.628 -0.0279  0.2220  0.1208
46716W        W89633  33.714   2.341  28.776  0.1736 -0.4911  0.1015
46717W        W89634  34.218   1.085  25.531 -0.2821  0.4202  0.3148
46718W        W89635  32.096   1.320  24.019 -0.0422  0.1359 -0.3791
46719W        W89636  34.307   3.069  24.569 -0.1601  0.0178  0.2101
46720W        W89637  33.814   2.310  26.143 -0.3023 -0.1165  0.3032
46721W        W89638  32.617   4.218  28.335  0.1228 -0.0512 -0.0970
46722W        W89639  33.290   1.631  24.642 -0.1252 -0.2543  0.2957
46723W        W89640  31.950   3.410  25.903  0.2437 -0.0642  0.2597
46724W        W89641   0.908   1.633  24.934 -0.0446  0.2143  0.2852
46725W        W89642  34.002  34.425  25.065 -0.0775  0.0907  0.0055
46726W        W89643  34.252   0.802  27.494 -0.1280 -0.0981 -0.0800
46727W        W89644   0.103   0.978  28.551  0.0740  0.2742  0.2028
46728W        W89645   0.415  33.835  25.918  0.0034 -0.0001 -0.0035
46729W        W89646   0.002   2.351  25.865 -0.0687 -0.3464  0.3245
46730W        W89647  34.503   3.286  25.117 -0.0838  0.0974  0.0387
46731W        W89648  34.632   3.814  27.252 -0.0656  0.2863 -0.1386
46732W        W89649   0.256   4.123  26.193  0.4106  0.4758  0.0738
46733W        W89650  32.698   2.266  25.559 -0.1244 -0.0438  0.0797
46734W        W89651   1.658   1.608  27.627  0.1642 -0.2000 -0.1106
46735W        W89652   1.069   0.446  26.483 -0.2094 -0.0940  0.2724
46736W        W89653   0.199   1.369  26.531  0.0007  0.1155 -0.1429
46737W        W89654  32.712   1.746  25.967  0.1493  0.1637 -0.2653
46738W        W89655  32.975  34.614  22.502  0.2531 -0.2770  0.2639
46739W        W89656  32.334   3.355  23.549  0.0356 -0.4479 -0.1732
46740W        W89657  32.005   2.070  26.017 -0.0658 -0.0292  0.1943
46741W        W89658  34.266   5.161  28.041  0.1605  0.0142  0.2165
46742W        W89659  33.829   2.292  23.324 -0.2483 -0.0321 -0.0349
46743W        W89660   0.134   2.056  23.348 -0.4344 -0.0417  0.0789
46744W        W89661  33.554   2.554  24.988 -0.0118 -0.0841  0.2957
46745W        W89662  34.037   0.577  25.753 -0.3787 -0.1305 -0.1596
46746W        W89663  33.474   4.784  25.862 -0.2620  0.3406 -0.0341
46747W        W89664  33.925   4.185  24.749  0.0422  0.0861 -0.5269
46748W        W89665  32.491   0.051  27.076  0.0133 -0.1142 -0.1066
46749W        W89666  33.449   2.662  26.242  0.2923 -0.2166 -0.0223
46750W        W89667  34.545   1.752  24.491  0.0913 -0.0234  0.1733
46751W        W89668  34.598   1.801  25.174  0.3201  0.0800 -0.1664
46752W        W89669  31.657   1.819  26.231 -0.0838  0.1991  0.0379
46753W        W89670  33.039  34.545  27.055 -0.0168 -0.3490  0.1469
46754W        W89671  32.664   1.187  25.349  0.1740 -0.0311  0.0515
46755W        W89672  32.383   3.859  28.042 -0.1397 -0.2478 -0.1008
46756W        W89673  33.181   4.243  26.967 -0.0330 -0.0612  0.2686
46757W        W89674  33.267   3.297  25.537 -0.0174  0.1335 -0.0304
46758W        W89675   1.282   1.764  25.966 -0.0073  0.0778 -0.0225
46759W        W89676  31.692   4.275  26.036  0.1457 -0.0322  0.0359
46760W        W89677  31.687   3.658  23.910 -0.1194 -0.1560  0.1821
46761W        W89678  32.689   5.191  27.916 -0.0348 -0.2246  0.1329
46762W        W89679  34.221   2.589  26.154 -0.3775 -0.1933  0.1428
46763W        W89680  34.530  34.179  23.486  0.0678 -0.1156 -0.2291
46764W        W89681  34.197   1.747  27.322 -0.2174  0.2163 -0.1178
46765W        W89682  30.227   3.403  26.754 -0.0196  0.0511 -0.0692
46766W        W89683  33.855   0.542  25.307  0.0097 -0.0251  0.2103
46767W        W89684  33.664   3.196  23.508 -0.0797  0.3013 -0.1571
46768W        W89685   0.026   3.353  22.800 -0.1493 -0.0994  0.1570
46769W        W89686  34.255   3.648  25.404  0.1106 -0.0515  0.0545
46770W        W89687   0.263   1.937  25.598 -0.1489  0.1386 -0.0446
46771W        W89688  34.461   4.333  26.005  0.3555 -0.1678  0.1170
46772W        W89689  33.391   0.754  25.229  0.0545  0.2865 -0.2796
46773W        W89690  34.386   4.428  24.414 -0.1889 -0.4050  0.1055
46774W        W89691  32.903   2.059  25.021  0.3328 -0.0749 -0.1031
46775W        W89692  33.961   2.688  25.297  0.0324  0.0865 -0.2676
46776W        W89693   1.031   1.499  23.158 -0.2134  0.0307 -0.1326
46777W        W89694   0.295   1.653  24.758  0.0785 -0.0135 -0.1304
46778W        W89695  33.156   2.129  25.586  0.1550  0.1628 -0.3346
46779W        W89696  33.727   1.409  28.654 -0.2701  0.2213 -0.1037
46780W        W89697  33.226   2.232  26.049  0.1761  0.1381 -0.2179
46781W        W89698  34.226   3.891  24.233  0.1533 -0.2214 -0.1170
46782W        W89699  34.071   1.476  26.014  0.2443  0.0453 -0.1694
46783W        W89700   2.546   0.038  25.255 -0.0826 -0.0349  0.5073
46784W        W89701  33.626   2.071  27.409  0.0891  0.0572 -0.2359
46785W        W89702  31.565   2.268  26.153 -0.2611 -0.4997 -0.1228
46786W        W89703  34.521   4.166  21.717 -0.0353  0.0295  0.1041
46787W        W89704  34.177   4.030  25.698  0.3521 -0.3077  0.0638
46788W        W89705   0.315   3.562  29.184 -0.2740  0.0141 -0.1065
46789W        W89706  32.526   1.129  24.741 -0.2730  0.1674 -0.1375
46790W        W89707  34.281   2.321  25.033  0.1505 -0.2139  0.1053
46791W        W89708   0.329   3.002  23.225 -0.1858 -0.0939 -0.1693
46792W        W89709  32.425   4.106  24.644 -0.0276 -0.0266  0.0487
46793W        W89710  34.239   3.118  25.487  0.0688 -0.0351 -0.0424
46794W        W89711  33.064   2.483  25.283 -0.2424 -0.0964 -0.2527
46795W        W89712  34.630   3.693  27.941 -0.1212  0.2969 -0.5756
46796W        W89713  32.896   1.545  24.176  0.2053  0.1256  0.1430
46797W        W89714  34.301   0.762  23.240 -0.1758  0.1363 -0.0320
46798W        W89715  33.067   4.701  26.200  0.0118 -0.1782  0.0854
46799W        W89716  34.304   1.918  26.033  0.1147  0.0075 -0.1095
46800W        W89717  32.878   1.943  24.543 -0.0267 -0.1176  0.3102
46801W        W89718  33.971   0.072  24.129 -0.0480 -0.0213 -0.1114
46802W        W89719  33.686   0.909  25.619  0.1934 -0.0523  0.0451
46803W        W89720  33.838   3.019  24.832 -0.0990 -0.0661  0.0660
46804W        W89721   0.708   0.824  23.845  0.3788 -0.0786  0.3996
46805W        W89722  32.980   3.761  22.846  0.0959 -0.3621  0.2938
46806W        W89723  33.899   3.342  25.200  0.2452  0.2454 -0.1679
46807W        W89724   0.683   0.552  26.858  0.1446 -0.1457  0.2130
46808W        W89725  32.599  34.237  24.802 -0.0390 -0.3752  0.1048
46809W        W89726   0.718   2.084  24.239 -0.3943  0.0324  0.0799
46810W        W89727  34.160   1.619  26.840  0.3967  0.1084 -0.0619
46811W        W89728  34.333   1.620  28.065 -0.2542 -0.2037  0.0535
46812W        W89729   0.207  34.358  25.822 -0.0379 -0.2139 -0.4688
46813W        W89730  34.343   2.637  25.597  0.2250  0.0777 -0.1531
46814W        W89731  33.282   0.691  27.347  0.2669 -0.0028  0.1054
46815W        W89732  33.626   1.924  25.856 -0.1298  0.0311  0.0261
46816W        W89733  33.104   0.796  26.376  0.1761 -0.0736 -0.2343
46817W        W89734  32.404   1.295  25.821 -0.1667 -0.1430  0.3249
46818W        W89735   1.091   1.266  24.416  0.0879 -0.1688 -0.2588
46819W        W89736  32.788   1.741  25.404  0.0133 -0.2323  0.2397
46820W        W89737   0.070   0.804  23.118 -0.0004 -0.1820  0.0133
46821W        W89738   0.411   4.585  26.006  0.3998  0.1774  0.1081
46822W        W89739  34.655   0.534  24.902  0.0646  0.3436 -0.0804
46823W        W89740  30.327   2.397  23.516 -0.2474 -0.0323  0.0188
46824W        W89741  34.241   2.612  24.176  0.0047  0.0781  0.3710
46825W        W89742  34.356   2.852  25.052 -0.4419  0.3176 -0.1976
46826W        W89743  34.531   3.943  24.619 -0.0914  0.0140 -0.3347
46827W        W89744  34.097   2.493  29.356 -0.0797 -0.0935 -0.1003
46828W        W89745   0.947  33.723  29.865  0.0330 -0.2779 -0.2425
46829W        W89746  33.976  33.466  30.483  0.2278 -0.2260  0.2380
46830W        W89747  34.569  33.807  29.967 -0.0572 -0.2815 -0.0069
46831W        W89748   0.246   0.458  30.829 -0.1645  0.2266 -0.4125
46832W        W89749  34.022   1.865  27.754 -0.2439  0.1287  0.0613
46833W        W89750  34.063   1.033  27.966  0.2357 -0.0958  0.1392
46834W        W89751  33.100   0.146  30.316  0.1399  0.1727 -0.0581
46835W        W89752  32.410   1.642  31.478  0.1905  0.2723  0.2972
46836W        W89753  33.351   1.440  31.332  0.1429  0.0984  0.1465
46837W        W89754   0.001   1.637  26.908 -0.1224 -0.1586  0.0784
46838W        W89755  34.447  33.642  30.438 -0.3103  0.0203 -0.1369
46839W        W89756   0.800  34.323  28.932  0.1833  0.2139 -0.1040
46840W        W89757   0.050  34.566  28.492  0.4775 -0.0451  0.0218
46841W        W89758  32.256   1.923  29.831  0.1511  0.0844  0.1200
46842W        W89759   0.515   1.306  30.564  0.2376  0.0634 -0.0079
46843W        W89760  33.545   3.304  29.945 -0.0496 -0.1474 -0.0785
46844W        W89761   1.747   5.181  29.524 -0.0232  0.0941 -0.1234
46845W        W89762  32.145  34.477  29.987  0.2802 -0.0687  0.1213
46846W        W89763  34.013   4.234  28.982 -0.3640 -0.0774 -0.1399
46847W        W89764  32.649   2.092  28.125 -0.1298  0.1040 -0.2067
46848W        W89765  33.390   2.083  29.949  0.1648  0.2025  0.0560
46849W        W89766  34.170   2.887  28.020  0.1909  0.0405 -0.0385
46850W        W89767  32.382   2.109  30.805 -0.1103 -0.2032 -0.1096
46851W        W89768  34.162   2.209  28.739 -0.0502  0.1164  0.1302
46852W        W89769   0.328   4.256  27.161  0.0718  0.3013 -0.2260
46853W        W89770  34.583   0.161  30.174 -0.1348 -0.1040  0.1653
46854W        W89771  32.650   2.930  30.322  0.1067 -0.2123  0.2441
46855W        W89772  33.495   1.803  28.335 -0.3623  0.0370 -0.0285
46856W        W89773   1.100   0.137  27.025 -0.1090 -0.3168 -0.2853
46857W        W89774   0.450   1.786  29.612  0.0596  0.1069  0.1409
46858W        W89775  34.049   1.109  29.563  0.0215 -0.1173  0.0880
46859W        W89776  33.825   1.319  30.479 -0.2532  0.3102  0.1695
46860W        W89777  34.244   2.038  30.503  0.0787  0.2665  0.2982
46861W        W89778  33.080   0.836  29.821  0.1118  0.0622  0.1927
46862W        W89779  31.887   0.351  27.568 -0.0667  0.0965  0.0701
46863W        W89780  32.540   2.446  31.806 -0.2829 -0.0498  0.2632
46864W        W89781  31.768   1.917  30.294  0.1765 -0.1638 -0.1683
46865W        W89782  33.022  34.045  27.008  0.0607 -0.1476  0.1507
46866W        W89783   0.480   1.084  29.905  0.1982  0.0867 -0.3344
46867W        W89784  33.677  34.280  31.248 -0.4378  0.0579 -0.0971
46868W        W89785  34.262   3.382  27.841 -0.0272 -0.1951  0.3265
46869W        W89786  34.593   2.864  29.145  0.0797  0.1513  0.2790
46870W        W89787  34.575   2.387  30.662  0.2240  0.1225  0.0991
46871W        W89788   0.161   0.682  31.363 -0.3307  0.0880 -0.1932
46872W        W89789  34.121   1.293  31.517 -0.1214 -0.0445 -0.2363
46873W        W89790   0.198   5.524  28.555 -0.0049  0.0160  0.2469
46874W        W89791  32.809   3.316  28.633 -0.0841  0.1915 -0.0778
46875W        W89792  32.456   3.045  28.352 -0.0570 -0.0635  0.1272
46876W        W89793  31.260   0.047  29.714 -0.1134  0.0479  0.1715
46877W        W89794  34.166   2.598  29.862  0.2750  0.2586 -0.0060
46878W        W89795  34.371   1.467  29.381  0.0368 -0.2582 -0.1010
46879W        W89796  33.562   0.914  26.965 -0.0470  0.1060  0.0717
46880W        W89797  31.908   0.713  31.363 -0.0901 -0.2113 -0.1356
46881W        W89798  34.010   1.920  28.352 -0.2837  0.3114  0.2984
46882W        W89799  34.264   1.536  30.696 -0.0105 -0.6024 -0.1979
46883W        W89800  30.981   1.543  29.099  0.1212 -0.1296  0.0622
46884W        W89801  31.747  33.270  28.060  0.1683  0.1075  0.0869
46885W        W89802  33.333   2.509  29.059  0.2203 -0.0665  0.1005
46886W        W89803  30.503   0.905  25.742  0.2108  0.0298  0.1466
46887W        W89804  32.069   0.496  30.513 -0.1612 -0.1206  0.0319
46888W        W89805  33.781   0.882  27.430 -0.2529  0.1338 -0.0214
46889W        W89806  33.242   3.480  31.605  0.1539 -0.1022  0.2210
46890W        W89807  33.729   2.825  29.557 -0.1738  0.3103 -0.0538
46891W        W89808   0.159   0.256  29.747 -0.0399  0.0013  0.0220
46892W        W89809  31.812   2.799  31.922 -0.2947 -0.1162 -0.2006
46893W        W89810   0.437   1.027  28.219 -0.1674 -0.0441  0.0916
46894W        W89811  32.521   3.870  30.275 -0.0829 -0.0845  0.1160
46895W        W89812  32.966   1.051  28.968  0.1491 -0.2152  0.0264
46896W        W89813  32.746   1.804  27.744 -0.2051  0.0662  0.0818
46897W        W89814  31.583   1.558  31.189  0.1134 -0.4043 -0.1392
46898W        W89815  32.389   1.079  27.492 -0.0174  0.1618 -0.0332
46899W        W89816  33.949   3.647  28.965 -0.4442 -0.4617  0.0118
46900W        W89817  32.105   5.084  31.668 -0.2005 -0.1155  0.1600
46901W        W89818   0.317   2.651  28.907  0.0632 -0.0727 -0.0549
46902W        W89819  33.575   0.611  29.811 -0.1875  0.1194 -0.2889
46903W        W89820  32.076   2.277  31.549  0.1062 -0.1271  0.1211
46904W        W89821  34.462  34.100  29.511  0.0082  0.1516  0.2645
46905W        W89822   0.538   0.377  29.220 -0.1220 -0.2395 -0.3717
46906W        W89823  32.399   2.803  29.309  0.4014  0.0076  0.1943
46907W        W89824   0.898   0.136  29.637 -0.0344  0.0803 -0.2959
46908W        W89825  33.058   0.428  27.743 -0.2222 -0.0929 -0.4530
46909W        W89826   1.490   0.119  30.127 -0.1305  0.0160  0.1672
46910W        W89827  32.813   2.717  31.446  0.0645  0.0494 -0.0506
46911W        W89828  33.700   2.579  30.024 -0.2364 -0.3522 -0.0022
46912W        W89829   0.796   3.021  30.130  0.0322  0.1785  0.4197
46913W        W89830  34.180   3.535  28.491 -0.0350  0.1622  0.2473
46914W        W89831   0.568   2.004  27.994 -0.0057  0.2303 -0.3974
46915W        W89832  34.619  34.635  31.570  0.0651 -0.3341 -0.0823
46916W        W89833  34.323   2.061  29.970  0.0173 -0.0177  0.1933
46917W        W89834   0.125   2.503  28.143  0.0567  0.0078 -0.0291
46918W        W89835  32.050   3.592  28.936  0.1579  0.1682 -0.4755
46919W        W89836  33.502   2.712  28.426  0.0594 -0.0987 -0.0159
46920W        W89837  34.460   0.650  27.915  0.2398 -0.0198  0.0457
46921W        W89838   0.062  34.302  27.665  0.1648 -0.0102  0.2273
46922W        W89839  33.077   0.101  29.831  0.1004 -0.3587  0.0052
46923W        W89840  33.751   0.254  29.478  0.2857  0.0522  0.1121
46924W        W89841  32.189   1.434  30.193  0.0719 -0.1234  0.2565
46925W        W89842  33.732   1.263  29.953 -0.1724 -0.1552 -0.1176
46926W        W89843  32.439   1.096  28.138 -0.1165  0.1194 -0.1302
46927W        W89844  32.604  34.662  29.813 -0.0135  0.0613 -0.1435
46928W        W89845  31.735   2.289  29.893  0.0691 -0.1090 -0.1011
46929W        W89846  32.023   0.253  29.842  0.2171 -0.2895  0.1357
46930W        W89847  32.750   1.835  31.878 -0.0900  0.0755  0.0776
46931W        W89848   0.757   1.587  30.248 -0.0269  0.0617 -0.1953
46932W        W89849  33.731   0.476  31.134  0.1796  0.2141 -0.2077
46933W        W89850  32.885  34.640  27.537 -0.2484 -0.2422  0.1139
46934W        W89851   0.516   1.991  29.141 -0.2084  0.4255 -0.0848
46935W        W89852   1.784   0.994  28.761 -0.0009  0.3295  0.0117
46936W        W89853   1.260   0.615  30.382  0.1591  0.0031  0.1536
46937W        W89854  33.266   1.432  28.695  0.3746 -0.0655 -0.1416
46938W        W89855  33.217   2.993  28.771 -0.1687 -0.1511  0.2327
46939W        W89856  34.555   2.382  29.072  0.1359  0.0652 -0.1280
46940W        W89857   2.354   0.953  30.909 -0.0281 -0.2596  0.0404
46941W        W89858  34.097   2.591  30.413 -0.3982 -0.0438 -0.0333
46942W        W89859  32.128   0.853  28.451  0.1000 -0.0853 -0.0217
46943W        W89860  33.080   2.421  30.153 -0.1122 -0.1062 -0.1631
46944W        W89861   0.171  33.634  29.588 -0.3054  0.0014  0.0536
46945W        W89862  33.890  33.849  31.445 -0.1870  0.1378  0.0874
46946W        W89863  34.300   0.253  29.412 -0.1303 -0.3287  0.1028
46947W        W89864  33.164   2.920  31.820  0.0751  0.0126 -0.2387
46948W        W89865  33.299   0.050  28.481  0.1496  0.0519 -0.0644
46949W        W89866   1.980   0.920  30.402  0.0829 -0.1092  0.0881
46950W        W89867  33.703   3.785  28.513 -0.3071  0.0559  0.0127
46951W        W89868  32.793   2.682  29.864  0.2024 -0.3997  0.0907
46952W        W89869  33.186   1.390  29.753 -0.1027 -0.3208 -0.0659
46953W        W89870  33.466   1.235  28.232 -0.0695 -0.1691  0.1443
46954W        W89871  32.278   0.330   0.752  0.0947 -0.2383 -0.0195
46955W        W89872  34.037   0.367  29.884 -0.1031  0.0676  0.0185
46956W        W89873  33.813  34.477  30.298 -0.0778 -0.1151 -0.0103
46957W        W89874  32.105   1.788  31.145 -0.0788 -0.3413  0.3201
46958W        W89875  33.995   1.827  26.392 -0.0563 -0.1508 -0.0519
46959W        W89876  33.784   2.716  25.791 -0.1508  0.0923 -0.0688
46960W        W89877  33.572  34.671  28.993  0.2376  0.2352  0.1588
46961W        W89878  33.549   3.322  31.925 -0.1164  0.0803  0.0073
46962W        W89879  34.479  34.165  26.446 -0.1200  0.0547  0.1136
46963W        W89880  34.583   2.573  28.621 -0.1583  0.0983 -0.3340
46964W        W89881   0.782   2.716  29.382  0.0578 -0.1192  0.0287
46965W        W89882   0.017  33.807  27.533 -0.0928  0.2646 -0.1180
46966W        W89883  32.845   3.324  28.123 -0.1158  0.1384 -0.0167
46967W        W89884  33.786   4.809  30.375  0.1426 -0.0020 -0.0242
46968W        W89885  33.813   1.537  31.127  0.0142  0.1715 -0.1297
46969W        W89886   0.323   2.944  28.533  0.4504  0.3426 -0.0716
46970W        W89887   0.998   2.231  30.066  0.2324 -0.0158 -0.1956
46971W        W89888  32.262   1.955  30.336 -0.0278  0.3459  0.1568
46972W        W89889  33.679   2.430  30.951  0.0027 -0.1341 -0.0955
46973W        W89890  32.227   1.895  31.907 -0.1092 -0.0963 -0.0932
46974W        W89891  34.488   0.931  29.362 -0.0998  0.2353 -0.1389
46975W        W89892  34.022   3.960  29.479 -0.0201  0.1562  0.1675
46976W        W89893  32.849   1.426  31.568 -0.0168 -0.1781 -0.2905
46977W        W89894   0.578   4.452  29.075  0.0497  0.1350  0.1872
46978W        W89895   0.175  34.139  26.824 -0.1891  0.0635 -0.1945
46979W        W89896  33.506   3.668  28.064  0.1376 -0.3399 -0.1723
46980W        W89897  33.820   2.067  29.193  0.0872  0.1439 -0.1183
46981W        W89898  32.482   1.354  29.136 -0.0703 -0.0384  0.1002
46982W        W89899  33.879   1.718  29.726 -0.0799  0.1897 -0.0520
46983W        W89900   0.538  34.487  27.616  0.1035  0.0661  0.0917
46984W        W89901  32.957   2.667  29.307 -0.0182 -0.0573 -0.1980
46985W        W89902  31.710   2.178  31.822 -0.1192 -0.1130  0.2298
46986W        W89903  32.881   0.526  30.202  0.0126  0.0416  0.0931
46987W        W89904   0.798   1.422  29.196 -0.0940 -0.2075  0.0699
46988W        W89905  34.100   1.298  27.556 -0.4524  0.1545 -0.1775
46989W        W89906   0.111   4.419  28.928  0.0478  0.4619 -0.0151
46990W        W89907  33.424   3.947  31.643 -0.2795 -0.0931  0.1479
46991W        W89908  33.309   1.161  31.734 -0.0790 -0.2172 -0.1576
46992W        W89909  34.456   1.838  28.608 -0.1119 -0.1790 -0.0542
46993W        W89910  34.185  34.240  31.287 -0.0050 -0.2310  0.0600
46994W        W89911  34.168   1.345  28.520 -0.1069 -0.1229 -0.0171
46995W        W89912  31.459   2.482  30.274  0.0870 -0.0869  0.1147
46996W        W89913  34.548   2.215  26.400  0.2067 -0.1393  0.0946
46997W        W89914  32.833   1.145  30.128  0.2341 -0.4531 -0.0828
46998W        W89915  33.345   1.082  30.263 -0.3060  0.1678 -0.3563
46999W        W89916  34.521   2.844  30.755  0.2989 -0.0947  0.0627
47000W        W89917  33.546  34.480  29.480 -0.2689 -0.1522  0.4915
47001W        W89918  34.200   3.020  29.369  0.2409 -0.1175  0.2547
47002W        W89919  32.717   0.327  30.622 -0.4052 -0.1504  0.4143
47003W        W89920  33.963   0.546  28.058 -0.0080  0.2200  0.2550
47004W        W89921  33.449   1.843  29.504 -0.0498  0.2666  0.0213
47005W        W89922  32.691   3.580  29.488 -0.3513 -0.1727  0.2151
47006W        W89923  33.497   4.864  26.400  0.0488 -0.1807  0.1794
47007W        W89924  34.265   1.995  29.466 -0.0710  0.2639  0.1033
47008W        W89925  33.806   4.364  30.679  0.1727 -0.0931  0.0761
47009W        W89926  34.390   1.603  25.618 -0.1046 -0.0763 -0.3343
47010W        W89927   0.576   1.997  30.064 -0.0079  0.1131 -0.1604
47011W        W89928   1.858   3.392  29.203  0.1528 -0.0068  0.1328
47012W        W89929   0.170   4.133  28.126  0.1775 -0.0154 -0.1726
47013W        W89930   1.521   2.154  28.004  0.2780 -0.0422  0.0931
47014W        W89931  33.014  33.220  30.288  0.1824 -0.1726 -0.2133
47015W        W89932  31.507   1.017  31.368 -0.4235 -0.1365  0.2065
47016W        W89933  32.029   0.539  28.035  0.1498  0.3328 -0.0948
47017W        W89934  33.878   2.773  26.649 -0.0249 -0.2966 -0.1562
47018W        W89935  33.061   2.162  29.411  0.2343  0.0980 -0.1727
47019W        W89936  33.715  34.356  30.745  0.1948 -0.3291  0.2268
47020W        W89937  32.236   2.706  28.666  0.1601 -0.0142  0.2474
47021W        W89938  33.478  34.310  28.188  0.0960 -0.2682 -0.0787
47022W        W89939  34.314   0.779  28.379  0.4187  0.0811 -0.1326
47023W        W89940  33.765   0.802  30.267 -0.2791  0.3162  0.3175
47024W        W89941   0.739   0.598  28.083 -0.4681 -0.4515  0.0327
47025W        W89942  31.843   1.846  27.544 -0.0736 -0.1844 -0.0815
47026W        W89943   1.856   1.030  29.339  0.0497 -0.2536 -0.1037
47027W        W89944  33.899   0.308   0.053 -0.1941  0.2201 -0.2618
47028W        W89945  32.684   0.072  28.733  0.0260  0.3563  0.1969
47029W        W89946  34.623  34.578  29.307 -0.0727  0.1196  0.0624
47030W        W89947  33.471   1.942  31.176  0.1799 -0.1810 -0.0477
47031W        W89948   1.008   4.588  30.457 -0.1815  0.0651  0.3642
47032W        W89949  32.235  32.695  29.715 -0.3073  0.2654 -0.4116
47033W        W89950   1.769   2.501  28.686  0.0537 -0.1686 -0.2990
47034W        W89951  34.057   0.530   0.713  0.2341  0.0843 -0.1704
47035W        W89952  33.030   1.320  30.580 -0.1464  0.2057  0.0914
47036W        W89953  34.472   0.305  28.353 -0.1321  0.0467  0.4388
47037W        W89954  30.941   0.845  31.367 -0.2893 -0.0860  0.0771
47038W        W89955   0.467   1.646  28.347  0.0918 -0.1203  0.1316
47039W        W89956   1.467   1.435  30.299  0.0085 -0.0363  0.0124
47040W        W89957   0.223   0.327  28.616 -0.0677 -0.1693  0.1155
47041W        W89958  34.663   2.887  31.216  0.2233  0.0422  0.0647
47042W        W89959  33.458  33.332  29.178  0.2397  0.1207  0.0752
47043W        W89960   1.581   2.497  29.156 -0.1148 -0.0134 -0.0154
47044W        W89961   1.017   2.715  27.840  0.1541  0.1713 -0.0168
47045W        W89962  32.582   2.517  31.011 -0.0700  0.3303 -0.1460
47046W        W89963  33.709   4.712   2.351  0.1855  0.2248  0.3372
47047W        W89964  33.784   1.180   0.892  0.0511  0.0191  0.3010
47048W        W89965  32.542   3.530   0.870  0.4300  0.0069  0.0621
47049W        W89966   0.886   3.329   0.414 -0.0622 -0.1488  0.0993
47050W        W89967  31.861   3.834  31.925 -0.0720  0.1257 -0.0864
47051W        W89968   1.698   2.585  31.844  0.0989 -0.0344 -0.2501
47052W        W89969   0.376  34.013  30.935  0.3496 -0.3654  0.0804
47053W        W89970  33.485   0.111  30.644 -0.2154  0.2530  0.0600
47054W        W89971  32.999   3.922  31.420  0.1134  0.1458  0.0796
47055W        W89972  32.026   2.701   1.072  0.3056 -0.0414  0.2061
47056W        W89973  33.759   1.605   0.677 -0.1946 -0.2153  0.0700
47057W        W89974  30.686   1.331  31.617 -0.0640 -0.3158  0.4841
47058W        W89975  32.987   3.388   0.073 -0.1382  0.2486 -0.0457
47059W        W89976  33.457   1.706   2.004  0.0614 -0.3962  0.2133
47060W        W89977   0.334   1.539  30.023 -0.1155 -0.1269 -0.1106
47061W        W89978  31.956   2.645   0.539 -0.3538  0.1431 -0.2854
47062W        W89979  32.056   1.670  30.677 -0.4311 -0.0037  0.1624
47063W        W89980  32.195   1.570   0.383  0.2068  0.0801  0.2013
47064W        W89981  34.238   2.280  31.502  0.2116 -0.1370 -0.0421
47065W        W89982  33.903   0.704  28.881  0.1990  0.2285  0.0636
47066W        W89983  34.294  33.412  30.900 -0.2236  0.1820  0.0281
47067W        W89984   0.023   2.389  31.192 -0.2455 -0.0597 -0.4981
47068W        W89985  33.735   3.831  30.329  0.2702  0.0658 -0.1030
47069W        W89986  33.996   2.777   0.392 -0.3049  0.0902 -0.1823
47070W        W89987  33.127   1.774  30.823  0.2099  0.0073  0.0084
47071W        W89988  33.862   2.885  31.855  0.0540  0.0613 -0.0063
47072W        W89989  33.708   1.096  31.323 -0.1593 -0.1621  0.2054
47073W        W89990   0.641   1.419  31.032  0.0266  0.1181 -0.0095
47074W        W89991   0.617   0.530  29.745 -0.2145 -0.0611  0.0254
47075W        W89992  32.676   3.080   1.643  0.0890 -0.0856  0.1520
47076W        W89993   0.740   2.455  28.987  0.0550 -0.2164  0.0225
47077W        W89994  34.115   0.890   0.369 -0.1030 -0.3471  0.1334
47078W        W89995   1.657   1.257  31.348 -0.1712  0.0575 -0.0743
47079W        W89996  34.669   4.281   1.702 -0.1243 -0.2295  0.1828
47080W        W89997  33.509   2.585  31.779  0.2118 -0.1801 -0.0305
47081W        W89998  31.696   2.763  29.556  0.0620  0.1140  0.1276
47082W        W89999  31.073   1.098  31.887 -0.0188  0.0778 -0.3188
47083W        W90000  33.752   2.153   1.148  0.1059  0.0404 -0.4848
47084W        W90001  34.155   1.711   0.952 -0.0293  0.2770  0.0115
47085W        W90002   1.196   0.018  31.120  0.1674 -0.0789  0.2610
47086W        W90003  32.994   6.961  19.829 -0.2195 -0.1584 -0.1351
47087W        W90004  34.463   5.443  17.405 -0.1321  0.0314 -0.0170
47088W        W90005  32.780   5.111  18.630 -0.1278  0.0235 -0.5122
47089W        W90006  32.619   2.891  19.031  0.0328  0.0290 -0.4347
47090W        W90007  31.675   3.733  18.894 -0.0936 -0.0030  0.0590
47091W        W90008  32.564   4.824  19.008  0.0535 -0.0084  0.0968
47092W        W90009  32.554   3.822  16.468 -0.0160  0.0573  0.0263
47093W        W90010  33.185   2.907  16.987  0.0815  0.1772  0.1081
47094W        W90011  31.619   6.079  18.149  0.2056 -0.2952  0.2407
47095W        W90012  34.234   4.354  19.944 -0.0170  0.1429  0.0104
47096W        W90013   0.165   3.339  17.949 -0.1049 -0.3830 -0.1173
47097W        W90014  34.503   4.696  19.578 -0.0409 -0.1271  0.1282
47098W        W90015  34.602   6.673  17.268 -0.2433 -0.0845  0.2726
47099W        W90016  33.183   4.927  16.643 -0.1118 -0.1385 -0.2189
47100W        W90017  31.655   3.954  21.043  0.1255 -0.0904 -0.3504
47101W        W90018   1.001   3.759  17.647  0.2477  0.0812 -0.0051
47102W        W90019  32.868   8.111  18.882  0.2903  0.0400  0.0094
47103W        W90020   1.226   6.782  17.771  0.3895  0.1280 -0.1207
47104W        W90021   0.664   7.222  20.267 -0.1744 -0.1569 -0.1784
47105W        W90022  33.489   6.331  18.662 -0.0388 -0.0874  0.4877
47106W        W90023  31.647   5.605  18.916 -0.1245 -0.0767 -0.3175
47107W        W90024  33.971   6.588  20.779 -0.1225  0.3342  0.1339
47108W        W90025  31.323   7.518  17.086 -0.2308  0.1286 -0.0743
47109W        W90026   0.693   4.336  17.252  0.3336 -0.2263 -0.2501
47110W        W90027  33.240   5.117  17.263 -0.0028 -0.0401  0.3052
47111W        W90028  34.342   5.619  19.309 -0.0527 -0.3258 -0.1693
47112W        W90029  31.755   5.186  19.256 -0.0513  0.3643  0.2610
47113W        W90030   0.077   6.454  17.742  0.0242  0.3181 -0.0811
47114W        W90031  34.078   6.627  17.493 -0.0339 -0.0020  0.0494
47115W        W90032  34.069   3.010  17.279 -0.1175  0.1908  0.0704
47116W        W90033  32.437   2.400  18.962 -0.2263  0.0479  0.3191
47117W        W90034  32.866   7.794  18.432  0.0709 -0.0121 -0.1452
47118W        W90035  32.155   4.789  20.392 -0.0840 -0.0588  0.0357
47119W        W90036  33.113   7.013  18.835  0.3431 -0.1284 -0.1549
47120W        W90037  31.441   5.474  17.957 -0.4111  0.3683  0.1845
47121W        W90038  30.327   5.554  18.529 -0.1820 -0.2647  0.1169
47122W        W90039  32.258   5.889  20.372  0.5465  0.0912 -0.0920
47123W        W90040  33.851   5.982  18.770  0.0196 -0.1474 -0.1232
47124W        W90041  33.657   4.214  17.046  0.1653  0.1436 -0.0624
47125W        W90042  34.440   5.781  20.738 -0.2181  0.1650  0.2118
47126W        W90043   1.827   6.307  17.812  0.1854  0.2429  0.0887
47127W        W90044  34.336   4.481  16.801 -0.1164  0.3248 -0.0490
47128W        W90045   0.675   4.494  16.743  0.1210 -0.0669  0.0937
47129W        W90046  33.004   6.268  19.515  0.0422  0.0718  0.0515
47130W        W90047  33.167   5.492  19.763 -0.1307  0.1503  0.0597
47131W        W90048  34.042   5.283  20.450 -0.0738 -0.1307  0.1088
47132W        W90049  32.310   5.522  17.291 -0.0041  0.0808 -0.2724
47133W        W90050  32.840   6.498  18.222 -0.1417  0.0989  0.1747
47134W        W90051  31.752   6.086  17.590  0.1318 -0.0572 -0.2241
47135W        W90052  32.342   5.984  19.037  0.0434 -0.1184 -0.1634
47136W        W90053  34.362   6.437  19.493 -0.2041 -0.0657  0.0959
47137W        W90054  32.183   4.499  19.068 -0.0382 -0.2577 -0.2618
47138W        W90055   0.241   5.044  16.208  0.0110  0.0787 -0.0386
47139W        W90056  32.794   4.696  19.461  0.1433  0.1040  0.0923
47140W        W90057  34.332   3.872  18.741  0.4544 -0.0185  0.2379
47141W        W90058  32.995   4.149  19.281 -0.2826  0.0002  0.2779
47142W        W90059  33.122   4.263  16.950  0.3693 -0.0761 -0.1729
47143W        W90060  32.130   3.688  17.376 -0.0747  0.3340  0.1743
47144W        W90061  32.423   3.673  17.001 -0.0902  0.0019  0.2915
47145W        W90062   0.189   4.178  17.439 -0.0135 -0.1210 -0.0378
47146W        W90063  31.754   5.809  20.725  0.1787  0.1742 -0.0295
47147W        W90064  34.065   4.700  16.406  0.0312 -0.1897  0.0928
47148W        W90065   0.192   6.879  19.071 -0.1054 -0.2087  0.0126
47149W        W90066  33.888   6.184  17.737 -0.0883  0.1561 -0.2911
47150W        W90067  33.216   4.465  16.536  0.0790  0.0299  0.2485
47151W        W90068  32.546   5.350  19.058  0.1922 -0.2454 -0.2394
47152W        W90069  34.477   3.183  17.016  0.0272 -0.1849 -0.0182
47153W        W90070  33.096   7.275  17.095 -0.1381 -0.0847 -0.0078
47154W        W90071  34.296   5.155  17.802  0.1435 -0.0825 -0.2305
47155W        W90072   0.438   7.868  18.599 -0.2605  0.1902  0.1167
47156W        W90073  33.361   4.689  18.089  0.2115 -0.0343  0.0624
47157W        W90074  32.479   5.418  16.759 -0.3374  0.1193  0.1083
47158W        W90075  32.127   6.416  18.864  0.2479  0.0254  0.0899
47159W        W90076  33.292   4.794  20.192  0.2382  0.3003  0.0510
47160W        W90077  33.199   6.940  18.165 -0.3041 -0.2234 -0.0238
47161W        W90078   1.664   6.596  21.463 -0.2224 -0.3231  0.2838
47162W        W90079   1.347   4.961  17.809  0.1529 -0.0122  0.3321
47163W        W90080   0.500   2.980  18.105  0.0243  0.0753  0.0154
47164W        W90081  32.985   5.019  18.211  0.2587  0.0188  0.0818
47165W        W90082  30.296   9.288  17.199 -0.1332  0.0588 -0.0649
47166W        W90083   0.220   3.125  19.529 -0.1023 -0.1887  0.2750
47167W        W90084  33.622   5.453  17.212  0.0329  0.1511  0.2061
47168W        W90085  33.637   3.838  19.406 -0.2685 -0.0422  0.3217
47169W        W90086  32.158   5.335  19.453  0.1399 -0.0545  0.0294
47170W        W90087  32.987   6.909  19.320 -0.2438  0.0400 -0.0894
47171W        W90088  33.360   3.455  20.280  0.1866  0.0935 -0.0449
47172W        W90089  34.416   7.008  17.696 -0.2025 -0.3425 -0.0874
47173W        W90090  34.185   5.978  17.043 -0.2925  0.0889  0.0444
47174W        W90091  32.221   3.972  19.025 -0.0361 -0.3025  0.0576
47175W        W90092  33.731   6.711  19.866 -0.1182 -0.1494  0.0134
47176W        W90093  34.437   7.380  18.570  0.0706 -0.2027 -0.4039
47177W        W90094  33.851   7.168  18.303 -0.3476 -0.3565 -0.2327
47178W        W90095  33.389   5.809  18.826  0.1539 -0.0872 -0.0968
47179W        W90096  33.614   3.120  17.349  0.1258  0.2880 -0.0937
47180W        W90097  32.442   6.822  18.639  0.2504  0.2812  0.0231
47181W        W90098   0.142   5.826  20.073 -0.3218 -0.2312  0.2386
47182W        W90099   1.381   5.954  17.338 -0.0340 -0.0110  0.1007
47183W        W90100  31.560   6.108  19.638 -0.2935 -0.1027  0.0031
47184W        W90101   0.409   8.009  20.827  0.0037 -0.0072  0.0717
47185W        W90102  33.016   3.794  17.305 -0.3262  0.2664 -0.0008
47186W        W90103   1.734   4.309  17.373 -0.1766 -0.0808 -0.1136
47187W        W90104  32.105   5.459  18.878 -0.1790  0.2218  0.3034
47188W        W90105  34.409   5.091  16.391  0.0539 -0.0962 -0.1228
47189W        W90106  32.073   5.835  18.040  0.2851 -0.0144  0.1607
47190W        W90107  33.942   5.171  18.829 -0.3041 -0.3207  0.3767
47191W        W90108  33.386   4.131  17.445 -0.0435 -0.0900  0.1226
47192W        W90109  34.479   3.669  17.797 -0.1064  0.2083  0.1615
47193W        W90110   1.181   4.228  17.479  0.1607  0.1510  0.2278
47194W        W90111   0.309   5.398  20.521  0.0338  0.2337  0.1266
47195W        W90112   0.077   6.119  18.095 -0.1162 -0.1532 -0.2677
47196W        W90113  34.056   5.732  17.474 -0.1291 -0.1818 -0.0287
47197W        W90114  31.676   4.588  19.051  0.2029  0.0034 -0.2768
47198W        W90115  34.357   7.397  18.072 -0.0616 -0.0852  0.2831
47199W        W90116   0.100   4.352  18.257 -0.3462  0.2536  0.1991
47200W        W90117  34.459   4.439  17.321  0.1174 -0.1064  0.2009
47201W        W90118  32.815   6.254  17.372  0.3728 -0.0946  0.2168
47202W        W90119  33.551   4.593  18.871  0.3770  0.0126  0.0461
47203W        W90120   0.244   4.329  16.540 -0.0119  0.0406 -0.2601
47204W        W90121  31.605   3.303  19.062  0.0086  0.3707 -0.1003
47205W        W90122  31.913   3.999  19.393  0.1275 -0.0065  0.0580
47206W        W90123  31.013   6.766  19.105 -0.4580  0.1507  0.3128
47207W        W90124  33.378   4.176  18.945  0.0233  0.1271  0.2688
47208W        W90125   1.949   5.712  19.778  0.0874 -0.0244  0.2302
47209W        W90126  33.332   5.871  17.090  0.3782  0.1275 -0.0289
47210W        W90127  32.473   5.056  18.046  0.3702 -0.1058  0.0691
47211W        W90128   1.328   6.355  18.010 -0.1794  0.0981  0.0268
47212W        W90129  33.082   5.971  18.410  0.3435 -0.0002  0.0283
47213W        W90130  32.513   3.695  20.766  0.1620  0.0242 -0.2331
47214W        W90131  31.576   3.937  19.769 -0.0226  0.0635 -0.2350
47215W        W90132  33.806   4.609  21.030  0.2542  0.4629  0.1855
47216W        W90133  33.807   4.842  18.426  0.0502 -0.0893 -0.0236
47217W        W90134  32.848   4.318  17.396  0.2328 -0.1340  0.0751
47218W        W90135  32.089   4.962  18.949 -0.0388 -0.2025 -0.2837
47219W        W90136  33.718   4.531  16.682  0.1443 -0.0542  0.0996
47220W        W90137  34.271   5.369  21.357 -0.1824  0.0212  0.0748
47221W        W90138  33.578   3.957  16.629 -0.1325 -0.2183 -0.0240
47222W        W90139   0.268   4.915  19.411 -0.0238  0.1234 -0.1518
47223W        W90140   0.440   6.137  19.486  0.2027 -0.3054  0.2352
47224W        W90141   0.918   3.030  15.760 -0.2084  0.4531  0.2701
47225W        W90142  32.256   6.773  19.300  0.0649  0.1362 -0.0499
47226W        W90143  32.859   5.718  19.425 -0.1223 -0.1237  0.0713
47227W        W90144  33.243   3.680  18.933 -0.3618 -0.0353  0.2214
47228W        W90145  33.790   5.467  18.444  0.1960  0.2471  0.0572
47229W        W90146   0.892   5.928  18.761 -0.0172  0.0943 -0.2513
47230W        W90147   0.436   6.855  19.538  0.0150  0.0403 -0.1599
47231W        W90148   0.269   4.467  17.037 -0.0616  0.0632 -0.0656
47232W        W90149  30.867   4.420  20.151  0.0655  0.0372 -0.1809
47233W        W90150  32.103   5.082  17.634 -0.1276 -0.2751  0.4247
47234W        W90151  33.304   5.894  19.426 -0.0052  0.2476 -0.0976
47235W        W90152  33.853   2.961  18.934  0.0799 -0.1504 -0.0768
47236W        W90153  33.347   6.266  17.432 -0.0185 -0.1071  0.0693
47237W        W90154   0.407   3.575  16.139 -0.0579  0.1248 -0.1154
47238W        W90155  34.351   6.692  19.053 -0.0862 -0.1604  0.1979
47239W        W90156  31.515   4.999  17.764 -0.3106  0.2865 -0.0754
47240W        W90157  33.664   7.126  20.207 -0.1000 -0.0175 -0.1382
47241W        W90158   0.041   5.256  18.145 -0.0808 -0.0594 -0.4462
47242W        W90159  33.349   3.137  17.919  0.1132 -0.0609 -0.0120
47243W        W90160  34.044   5.194  19.300  0.0376  0.1429  0.0091
47244W        W90161   0.190   7.517  21.053  0.1303  0.0097  0.0486
47245W        W90162  33.600   5.820  17.555 -0.1599 -0.1597 -0.4530
47246W        W90163  33.191   4.746  18.540 -0.1453  0.0678  0.3210
47247W        W90164  33.793   5.540  16.342 -0.0253  0.0921 -0.1062
47248W        W90165  34.120   6.013  19.522 -0.0482 -0.1021  0.1079
47249W        W90166  33.791   5.691  20.502  0.1768  0.0080  0.0147
47250W        W90167  33.675   7.502  19.262 -0.1505 -0.3274 -0.1417
47251W        W90168  32.181   4.607  17.231 -0.1907 -0.1622  0.1120
47252W        W90169   0.442   5.355  20.031 -0.0519 -0.0448  0.1609
47253W        W90170  32.657   3.263  19.439 -0.0811  0.0573 -0.1853
47254W        W90171   1.655   5.163  18.378 -0.0505 -0.1259  0.0274
47255W        W90172   0.987   6.055  16.821 -0.0782 -0.4250  0.1368
47256W        W90173  34.300   3.633  16.838 -0.2043 -0.2325 -0.3657
47257W        W90174  32.428   5.031  17.094  0.0263  0.2657  0.2514
47258W        W90175  33.107   3.776  19.993  0.1445 -0.0387  0.1610
47259W        W90176  32.569   4.231  17.956  0.3607 -0.0397 -0.4031
47260W        W90177  33.967   8.347  16.465 -0.0900 -0.2725 -0.0302
47261W        W90178  32.437   4.361  20.704 -0.0411 -0.2787 -0.1970
47262W        W90179  33.485   3.649  17.637 -0.1807  0.2437 -0.1130
47263W        W90180  31.832   4.939  19.775  0.1495 -0.0368 -0.0643
47264W        W90181  34.033   5.191  17.323 -0.2470 -0.2602  0.1401
47265W        W90182  31.669   7.111  17.073  0.1991 -0.1687 -0.2161
47266W        W90183   0.894   4.677  18.972 -0.2944  0.0306 -0.2060
47267W        W90184  33.805   5.351  22.123 -0.1126 -0.2261  0.0269
47268W        W90185  31.373   6.350  17.827  0.0841  0.2438 -0.2070
47269W        W90186  34.031   3.896  17.913  0.1216 -0.2852 -0.1584
47270W        W90187   0.536   6.141  18.507  0.0737 -0.0863  0.1027
47271W        W90188   0.781   6.614  17.557 -0.0177  0.1133  0.0608
47272W        W90189   1.358   5.477  17.586 -0.0554  0.0447 -0.0509
47273W        W90190  30.853   3.933  18.359 -0.1227  0.1791  0.1594
47274W        W90191  32.988   5.526  18.989 -0.1940 -0.1602  0.3041
47275W        W90192  33.345   5.423  16.677  0.1779 -0.1612  0.2338
47276W        W90193  30.348   5.116  19.189  0.2334  0.2931 -0.2213
47277W        W90194  32.660   8.707  18.204  0.0007 -0.0698 -0.2587
47278W        W90195   1.731   4.919  17.531 -0.1990  0.1195  0.0107
47279W        W90196  32.760   3.710  19.044 -0.0000  0.1091 -0.2358
47280W        W90197  31.939   5.776  19.265  0.0052  0.0516  0.1707
47281W        W90198  34.253   6.010  18.406  0.0753 -0.2296  0.1340
47282W        W90199  31.718   2.891  19.375  0.2271 -0.2320  0.0340
47283W        W90200  33.452   5.157  18.194  0.2732  0.2096 -0.1423
47284W        W90201   0.237   3.531  17.476  0.3756 -0.0964 -0.2737
47285W        W90202  32.556   5.937  18.195 -0.2712 -0.2567 -0.0532
47286W        W90203  34.263   7.309  21.761  0.1701  0.1212  0.2094
47287W        W90204   1.063   5.551  19.053  0.2322  0.2967 -0.0740
47288W        W90205  31.892   4.194  17.503  0.0647 -0.0562 -0.1355
47289W        W90206   0.352   5.739  18.074 -0.0014  0.2411  0.1272
47290W        W90207  34.579   5.367  20.264  0.1667 -0.0106  0.0123
47291W        W90208  33.306   5.323  19.268 -0.1385 -0.3690 -0.4066
47292W        W90209  30.944   3.980  20.477  0.2044  0.0738  0.0389
47293W        W90210  34.397   5.139  18.603  0.0246  0.3465 -0.4970
47294W        W90211  32.873   3.475  20.388 -0.0254 -0.0236  0.1117
47295W        W90212  33.539   6.687  20.480  0.1759 -0.1683  0.2085
47296W        W90213  34.484   4.432  18.727 -0.1333  0.0617 -0.2925
47297W        W90214   0.591   6.172  20.134 -0.1150  0.0500 -0.0544
47298W        W90215   2.391   5.003  17.614 -0.3078  0.1444  0.1320
47299W        W90216   0.102   4.468  19.203  0.0317  0.0042  0.1053
47300W        W90217   1.273   5.149  17.222  0.2676 -0.2310  0.0983
47301W        W90218   0.602   6.540  19.224  0.2588 -0.1543  0.0657
47302W        W90219  30.828   4.907  19.365 -0.1660 -0.0360 -0.1238
47303W        W90220  34.212   5.480  16.071 -0.1889  0.1269 -0.2115
47304W        W90221   1.214   5.263  19.455 -0.1114 -0.2664  0.1617
47305W        W90222  34.662   5.831  17.047 -0.2865  0.2005  0.2414
47306W        W90223  33.460   5.095  18.752 -0.2046 -0.0374  0.0679
47307W        W90224   0.642   4.619  22.818  0.0360  0.0719  0.1809
47308W        W90225   0.345   4.864  20.866 -0.0356  0.2137 -0.3315
47309W        W90226  34.238   4.741  21.521  0.1549  0.1474  0.1133
47310W        W90227  33.825   5.413  22.982  0.2277  0.3158 -0.1439
47311W        W90228  34.123   5.887  22.962  0.0494 -0.1100 -0.0262
47312W        W90229  34.171   7.505  23.216 -0.0363 -0.0016 -0.1734
47313W        W90230   0.994   4.832  19.498  0.0090 -0.2346 -0.1413
47314W        W90231  33.728   3.394  22.583  0.0175  0.2631  0.1222
47315W        W90232  34.391   5.273  20.873 -0.1513  0.3457 -0.1966
47316W        W90233   0.035   7.788  22.332  0.1329  0.1510 -0.1246
47317W        W90234   2.055   3.675  22.188 -0.1272  0.1096 -0.0601
47318W        W90235   1.556   3.029  21.142 -0.0713 -0.2156  0.2612
47319W        W90236  33.303   4.194  19.664  0.1891 -0.1286 -0.3440
47320W        W90237  33.860   3.776  22.286  0.1606 -0.2078 -0.1442
47321W        W90238   0.556   3.359  21.973 -0.2868  0.1069  0.1160
47322W        W90239   0.155   4.503  21.962 -0.4401  0.2139  0.1835
47323W        W90240  34.495   5.569  23.975 -0.2061 -0.0148 -0.1129
47324W        W90241  33.507   8.271  23.322  0.0850 -0.1657  0.4428
47325W        W90242   0.814   6.989  23.376 -0.0370  0.2990 -0.2239
47326W        W90243  34.132   9.059  22.611 -0.0822  0.1195  0.0197
47327W        W90244  34.495   6.349  22.491  0.2443  0.1449 -0.2092
47328W        W90245   0.719   6.906  25.068  0.1077  0.3353 -0.0352
47329W        W90246  33.752   7.437  20.586 -0.0151 -0.5160  0.1159
47330W        W90247   0.311   6.876  23.758  0.2278 -0.3340  0.0232
47331W        W90248  33.847   5.568  19.607  0.0283 -0.1423  0.2151
47332W        W90249   0.738   6.106  22.810  0.2456 -0.0530  0.0402
47333W        W90250   0.574   5.101  23.212 -0.0973 -0.0407  0.2437
47334W        W90251  33.040   6.388  22.311 -0.1954 -0.0725 -0.2149
47335W        W90252   0.984   8.015  22.439  0.0232  0.2098  0.0043
47336W        W90253  33.274   2.760  21.165  0.1967  0.1100 -0.1173
47337W        W90254  33.171   1.647  21.080 -0.3081  0.1400  0.1172
47338W        W90255  33.886   6.536  21.284  0.0259  0.0392 -0.2259
47339W        W90256   1.643   4.011  22.099  0.1881  0.0959  0.1080
47340W        W90257  33.669   6.138  21.458  0.1470  0.1443  0.1901
47341W        W90258  34.560   4.508  22.410 -0.1688  0.2324  0.4131
47342W        W90259  34.003   2.877  20.716  0.0951 -0.2078 -0.4442
47343W        W90260  34.574   5.917  21.748 -0.1542 -0.2693 -0.2172
47344W        W90261  33.184   6.826  21.949  0.0383 -0.0654  0.2544
47345W        W90262   0.184   4.842  18.458  0.3920 -0.0740  0.1318
47346W        W90263  31.953   6.598  22.697  0.1016 -0.2973  0.0456
47347W        W90264  33.747   6.566  21.753 -0.0238  0.1576 -0.1230
47348W        W90265  33.021   4.523  18.965  0.1065 -0.0490  0.0207
47349W        W90266   0.434   5.186  22.250  0.2042 -0.1501 -0.0885
47350W        W90267  33.775   7.613  22.015  0.0006 -0.0003  0.2215
47351W        W90268  34.298   4.075  23.510 -0.0935 -0.1883  0.2250
47352W        W90269   0.104   6.082  24.994  0.1946  0.0182  0.1290
47353W        W90270  34.068   6.735  20.249  0.5014 -0.2801 -0.0029
47354W        W90271  33.989   5.031  21.133 -0.0873 -0.2290 -0.1696
47355W        W90272  33.152   5.001  22.305  0.1895 -0.0570  0.5029
47356W        W90273  31.870   3.494  23.441  0.2921 -0.1338 -0.0124
47357W        W90274  33.594   6.526  22.720  0.2774 -0.1280  0.0115
47358W        W90275  34.627   3.730  23.640  0.2316  0.0252 -0.0547
47359W        W90276   0.542   5.597  23.492 -0.2742 -0.0225 -0.1290
47360W        W90277  32.446   5.200  22.921 -0.0713  0.0608 -0.1279
47361W        W90278   0.432   3.487  21.349 -0.1149 -0.2169  0.1188
47362W        W90279  33.985   5.496  24.244  0.2596  0.0068 -0.3610
47363W        W90280  34.158   4.817  20.685  0.2507  0.2607  0.1260
47364W        W90281  32.384   4.035  21.129  0.2043  0.0783  0.0291
47365W        W90282  31.415   4.888  20.078 -0.0415  0.0887 -0.0487
47366W        W90283  32.598   4.273  18.977  0.1363 -0.0265 -0.1450
47367W        W90284   0.844   3.458  22.490 -0.1261  0.0692 -0.1955
47368W        W90285  34.351   4.684  22.005 -0.1419  0.0189 -0.2332
47369W        W90286   0.719   7.279  23.757 -0.1554 -0.0665 -0.0758
47370W        W90287  33.606   6.991  20.927  0.0387 -0.1360  0.2262
47371W        W90288  34.320   4.805  20.152 -0.1498  0.1062 -0.4120
47372W        W90289  32.658   6.324  22.026 -0.0467 -0.0240  0.0564
47373W        W90290  32.327   2.399  21.691  0.1314  0.3950  0.0860
47374W        W90291  32.803   5.570  20.087  0.1839 -0.1177 -0.0711
47375W        W90292   0.357   4.668  22.387 -0.0649 -0.0673 -0.3670
47376W        W90293  34.468   5.208  19.523 -0.1550  0.0412  0.0582
47377W        W90294  34.624   6.417  21.993  0.1048  0.0586 -0.0653
47378W        W90295  34.111   5.207  19.904 -0.0165  0.1204 -0.1689
47379W        W90296  33.323   7.330  23.196 -0.1800  0.2205  0.0879
47380W        W90297  33.866   4.933  23.908  0.0486 -0.1308 -0.1471
47381W        W90298   0.792   3.705  21.641  0.0519  0.1849 -0.3019
47382W        W90299   0.762   3.655  24.113 -0.0309 -0.1542  0.2622
47383W        W90300  34.098   3.989  20.352 -0.2813  0.1632 -0.2335
47384W        W90301  34.347   2.231  23.314  0.2387  0.0825  0.1136
47385W        W90302   0.612   5.287  21.107 -0.0460  0.3256 -0.1350
47386W        W90303  33.386   6.474  20.062  0.1756  0.0364 -0.2212
47387W        W90304   1.588   2.803  22.921  0.2551 -0.0768 -0.1903
47388W        W90305  31.425   4.837  19.495  0.0954  0.3172 -0.1521
47389W        W90306   2.336   4.811  23.380  0.0643  0.3277 -0.2326
47390W        W90307  32.899   5.594  23.298 -0.0299  0.4870 -0.1836
47391W        W90308  34.010   6.249  22.529 -0.1497  0.0740  0.1028
47392W        W90309   2.580   4.460  22.261  0.1697  0.0986 -0.0956
47393W        W90310  33.732   6.138  22.035  0.1247 -0.1552  0.0875
47394W        W90311   0.225   5.326  19.160 -0.0090  0.2725  0.1392
47395W        W90312   1.010   2.403  22.115 -0.1109 -0.0073 -0.3879
47396W        W90313   0.334   6.386  22.934  0.1763  0.4213 -0.1105
47397W        W90314  32.708   5.441  21.548  0.0044  0.0850 -0.1445
47398W        W90315  34.484   6.712  20.716 -0.1149  0.1087 -0.0458
47399W        W90316  33.559   8.184  22.832  0.2186  0.2346 -0.0934
47400W        W90317  32.975   3.048  20.553  0.1269  0.2034 -0.2611
47401W        W90318  34.663   3.877  22.722  0.2940  0.3658 -0.0034
47402W        W90319  33.815   3.517  23.143 -0.1933  0.2197  0.1215
47403W        W90320  34.472   5.813  22.611 -0.1698 -0.0836 -0.2634
47404W        W90321  31.979   6.184  23.044 -0.0707  0.1758  0.1817
47405W        W90322   0.312   4.937  23.643 -0.3136  0.3186  0.0732
47406W        W90323  31.964   3.062  20.688 -0.1191  0.1147  0.0807
47407W        W90324   1.531   3.482  20.651  0.0906 -0.1052 -0.0137
47408W        W90325  34.661   5.927  21.203  0.0952  0.3584  0.0019
47409W        W90326   0.052   5.881  18.527  0.1699  0.4378  0.1375
47410W        W90327  33.037   6.830  20.529  0.3120 -0.3057  0.0294
47411W        W90328  30.534   4.247  23.912 -0.0045 -0.4608  0.0385
47412W        W90329   2.204   3.996  21.108  0.2983 -0.2522  0.3763
47413W        W90330   0.130   4.348  22.823  0.3723 -0.0173 -0.0990
47414W        W90331   1.364   4.502  20.860 -0.1430 -0.2141  0.1378
47415W        W90332  34.573   5.042  22.262 -0.1409  0.1075  0.2530
47416W        W90333  34.311   6.334  21.042 -0.0855  0.2112 -0.1813
47417W        W90334  33.147   5.021  19.617  0.1831  0.4061  0.0518
47418W        W90335   1.162   3.925  22.049  0.1280 -0.0333  0.4273
47419W        W90336  33.499   5.022  21.017  0.1013 -0.1797 -0.0924
47420W        W90337   1.564   5.518  23.544  0.0444 -0.3845  0.2265
47421W        W90338  33.535   5.693  21.782 -0.0942 -0.0168 -0.1560
47422W        W90339  32.676   7.322  20.503 -0.0072 -0.2954 -0.2298
47423W        W90340  34.222   6.057  22.086  0.1609 -0.0655  0.0210
47424W        W90341   1.818   4.855  21.591 -0.3277  0.3018 -0.0570
47425W        W90342  34.174   5.148  21.819  0.1296  0.0307  0.2045
47426W        W90343  32.899   3.734  24.188  0.0214 -0.0984  0.0624
47427W        W90344  33.364   5.880  23.387  0.0393 -0.1442 -0.0395
47428W        W90345  33.269   3.052  19.578  0.0491  0.0080 -0.1098
47429W        W90346  33.079   5.788  21.664  0.1934 -0.4060  0.1305
47430W        W90347   1.680   4.845  20.751 -0.2921  0.1314 -0.0570
47431W        W90348  32.143   6.064  21.708 -0.2578  0.3107 -0.2112
47432W        W90349   1.548   4.458  20.344 -0.2056  0.1256 -0.3146
47433W        W90350  33.809   4.096  21.168 -0.1314  0.2085 -0.2438
47434W        W90351  34.091   5.634  25.450  0.0407  0.0686  0.2616
47435W        W90352   0.383   5.151  24.800 -0.3209  0.0035 -0.0204
47436W        W90353   0.100   5.432  23.619  0.1174 -0.1163  0.4890
47437W        W90354  33.767   5.234  21.530  0.2081  0.0367  0.0608
47438W        W90355  33.810   4.870  20.178 -0.1453 -0.3031  0.2645
47439W        W90356  34.215   8.885  22.108  0.1165  0.3500 -0.3031
47440W        W90357  31.214   2.953  22.244  0.1785  0.0727 -0.2026
47441W        W90358  34.047   8.156  22.648 -0.4092  0.2439 -0.0367
47442W        W90359  32.443   3.205  21.033 -0.0623  0.1782  0.0715
47443W        W90360  33.349   3.468  21.676  0.2144 -0.1937  0.0721
47444W        W90361   0.979   5.960  23.255 -0.1116  0.0250 -0.0377
47445W        W90362   0.693   5.716  20.425 -0.0726  0.0458 -0.0224
47446W        W90363  33.742   7.064  22.387  0.4490  0.4264  0.3863
47447W        W90364  32.850   6.647  21.613  0.1058 -0.0176  0.3615
47448W        W90365  32.740   4.604  21.663  0.1646 -0.1892 -0.1035
47449W        W90366  34.368   6.987  22.129 -0.0187 -0.0308 -0.1000
47450W        W90367   1.845   4.478  22.693  0.0944  0.0262  0.1138
47451W        W90368  33.324   7.674  22.875 -0.0181 -0.0042 -0.2236
47452W        W90369  33.819   6.156  23.376 -0.0269  0.1532  0.2385
47453W        W90370  32.131   4.029  23.615  0.0877  0.1402  0.1742
47454W        W90371   0.075   4.083  23.294  0.0252 -0.1380  0.3389
47455W        W90372  33.686   6.448  24.238  0.0943 -0.1351  0.0594
47456W        W90373  34.197   3.258  22.865  0.0013  0.0215  0.1286
47457W        W90374  33.826   7.026  21.432  0.1324 -0.0141 -0.0801
47458W        W90375  34.335   6.274  19.968  0.1846 -0.2523  0.1838
47459W        W90376  33.072   7.666  20.578 -0.1129  0.1077 -0.1661
47460W        W90377  32.111   6.965  21.147 -0.0542 -0.5142  0.0427
47461W        W90378  33.141   7.853  21.596  0.2335  0.1005 -0.0970
47462W        W90379   0.304   6.469  22.321  0.0563  0.1476  0.0039
47463W        W90380  34.612   3.979  19.197  0.1189 -0.0609  0.1728
47464W        W90381  32.926   5.222  26.058 -0.0008  0.4621 -0.2929
47465W        W90382  33.863   7.563  22.672  0.3936  0.0465  0.0663
47466W        W90383   0.332   4.262  20.407 -0.1674 -0.0499 -0.4238
47467W        W90384   1.139   4.791  20.466  0.0168  0.2659 -0.1718
47468W        W90385   0.931   5.700  19.605 -0.1627  0.2256  0.1652
47469W        W90386   0.538   4.114  21.554 -0.1286  0.0558 -0.0145
47470W        W90387  33.860   7.382  23.857 -0.1921 -0.1541  0.0764
47471W        W90388  34.157   5.891  21.317  0.1665  0.1677  0.2303
47472W        W90389  32.796   3.131  21.434  0.0448  0.0374 -0.0714
47473W        W90390   0.220   4.193  24.397 -0.0135  0.1362  0.0731
47474W        W90391   0.086   5.448  22.037  0.0330 -0.0136 -0.2085
47475W        W90392   0.120   5.422  22.560 -0.4274 -0.0365  0.0813
47476W        W90393   0.098   3.832  18.252 -0.2996  0.0840 -0.2340
47477W        W90394  33.564   3.880  20.276  0.2640  0.1831 -0.0520
47478W        W90395   0.586   6.321  21.268 -0.0553  0.0363 -0.5024
47479W        W90396  33.277   3.239  21.263 -0.0520  0.0533  0.1840
47480W        W90397  32.431   3.219  20.471  0.1516 -0.1588  0.0281
47481W        W90398   0.574   8.394  20.425 -0.2939 -0.0675  0.0906
47482W        W90399   0.325   4.160  22.296  0.1999 -0.0550 -0.0509
47483W        W90400   1.106   4.280  20.454 -0.3738 -0.0046 -0.2606
47484W        W90401   0.939   5.797  22.066 -0.0711  0.0262 -0.0714
47485W        W90402  33.411   6.395  23.165  0.1229  0.2013  0.2392
47486W        W90403   0.041   6.285  20.286 -0.0611 -0.3388 -0.1654
47487W        W90404   0.738   7.060  24.133  0.0795  0.1889 -0.1647
47488W        W90405  34.357   8.552  24.901 -0.0110  0.0177  0.0246
47489W        W90406  34.185   6.848  19.763 -0.0390  0.0692  0.1103
47490W        W90407   1.265   5.332  24.722  0.0196  0.1251 -0.0399
47491W        W90408  33.629   5.409  20.096  0.1265 -0.1822  0.0612
47492W        W90409   0.783   4.570  21.556  0.2958 -0.2166 -0.1553
47493W        W90410   0.862   4.813  21.071 -0.0038  0.2332  0.1707
47494W        W90411   2.039   4.419  23.127  0.2537  0.4321  0.0715
47495W        W90412  33.155   6.285  21.260 -0.2032 -0.0726  0.0106
47496W        W90413  33.419   3.385  20.791 -0.2029 -0.3125  0.4998
47497W        W90414   0.265   5.965  22.686  0.3014 -0.2026 -0.0101
47498W        W90415  34.622   5.708  23.079  0.1316  0.0217 -0.1277
47499W        W90416  33.980   0.927  22.327 -0.0844 -0.3194 -0.3239
47500W        W90417  33.288   5.482  22.990 -0.0296  0.1347  0.0842
47501W        W90418  32.998   4.888  20.785  0.3645  0.0217  0.1110
47502W        W90419  34.119   3.455  21.469  0.1394  0.2129  0.1324
47503W        W90420   1.302   3.197  21.550  0.2463 -0.1810 -0.1084
47504W        W90421  33.090   2.963  23.981 -0.0845  0.1169 -0.0485
47505W        W90422   0.033   4.993  21.753  0.1231  0.2162 -0.0875
47506W        W90423  33.351   6.681  19.596 -0.0973 -0.2989 -0.0417
47507W        W90424  34.351   4.063  25.071 -0.2337 -0.2054 -0.3674
47508W        W90425  32.456   4.223  24.022  0.4443  0.0508 -0.4975
47509W        W90426  33.362   4.291  20.165 -0.0530  0.1486 -0.0672
47510W        W90427   0.643   6.578  21.959  0.1139  0.0810 -0.1054
47511W        W90428  34.592   6.373  24.637 -0.0761  0.3392 -0.2637
47512W        W90429   0.821   6.577  23.074  0.0749  0.1902 -0.1309
47513W        W90430  33.430   3.420  24.367 -0.0266 -0.1412  0.3604
47514W        W90431   1.240   6.206  22.877  0.2797 -0.1312 -0.1114
47515W        W90432  32.669   4.981  22.350  0.0029 -0.1495 -0.2400
47516W        W90433  34.234   6.456  23.314 -0.0088  0.3586 -0.1179
47517W        W90434   0.364   3.074  20.999 -0.0559 -0.1768  0.1165
47518W        W90435   1.325   4.280  22.347 -0.0259 -0.0507 -0.0937
47519W        W90436   2.055   3.289  20.626  0.1873  0.1228 -0.1414
47520W        W90437   0.063   5.989  22.204 -0.4989  0.2993  0.1146
47521W        W90438  33.854   4.868  22.096  0.2915  0.1087  0.1861
47522W        W90439   1.700   6.738  22.691  0.0133 -0.1192  0.2825
47523W        W90440   0.810   4.146  22.490 -0.0621  0.0695 -0.2707
47524W        W90441   1.109   5.518  20.665 -0.1966  0.2333  0.1634
47525W        W90442  34.281   6.841  21.163 -0.1902  0.0393 -0.2453
47526W        W90443   0.008   4.844  22.699 -0.2475  0.4618 -0.0138
47527W        W90444   0.698   7.939  21.733  0.1391  0.0460 -0.2318
47528W        W90445   0.473   7.584  28.154 -0.4527 -0.0352 -0.1495
47529W        W90446  34.504   6.045  24.038  0.1235 -0.2927  0.1472
47530W        W90447  31.372   2.899  27.822  0.0252 -0.1791 -0.0435
47531W        W90448  33.947   2.465  28.126 -0.0979  0.1763  0.0015
47532W        W90449  32.713   4.315  27.849  0.1402 -0.0801  0.1813
47533W        W90450  33.755   6.582  29.483 -0.2460 -0.1427  0.1911
47534W        W90451  33.460   5.669  24.272 -0.2434 -0.0357 -0.1420
47535W        W90452  32.049   3.297  24.608  0.1153  0.0532  0.2216
47536W        W90453  31.975   4.659  26.229 -0.1297 -0.1183 -0.1129
47537W        W90454   0.059   5.671  26.986  0.1852 -0.1920  0.1854
47538W        W90455  33.413   4.691  24.854  0.3697 -0.0512  0.1633
47539W        W90456  32.499   4.007  26.631 -0.2229 -0.3024 -0.0316
47540W        W90457  34.276   6.457  24.247  0.0431 -0.3389  0.0485
47541W        W90458  32.419   5.143  25.048 -0.3985 -0.0307 -0.0436
47542W        W90459  33.160   6.223  24.927  0.0541 -0.3311  0.2518
47543W        W90460  34.562   4.222  27.003 -0.0757 -0.2089  0.2045
47544W        W90461  33.538   5.662  25.833  0.0256  0.0355 -0.0571
47545W        W90462   0.496   6.230  27.340  0.2472 -0.2835 -0.0280
47546W        W90463  32.652   6.234  22.665  0.1561 -0.1105 -0.1038
47547W        W90464  33.250   5.656  24.817  0.0679 -0.0287  0.1137
47548W        W90465   0.267   8.768  25.643  0.1297  0.1158 -0.2237
47549W        W90466  34.183   6.832  27.696  0.1832 -0.0657 -0.0899
47550W        W90467  33.412   5.289  23.442  0.0589  0.0673 -0.2503
47551W        W90468  32.692   8.972  28.159  0.4647  0.1478 -0.4527
47552W        W90469  34.622   5.731  25.560  0.1818 -0.1052  0.2532
47553W        W90470   0.518   4.717  24.482  0.1261 -0.6245  0.1468
47554W        W90471  34.178   6.106  28.914  0.0136 -0.1335  0.2244
47555W        W90472  32.152   5.441  25.708  0.2825  0.2079  0.0139
47556W        W90473   0.019   7.124  21.553 -0.0432  0.3669 -0.0833
47557W        W90474   0.030   6.069  23.458  0.2971 -0.0467 -0.1040
47558W        W90475   0.434   2.792  24.319 -0.3471 -0.0103  0.2492
47559W        W90476  34.205   6.026  25.120  0.0642 -0.1450  0.1901
47560W        W90477  33.498   4.202  25.025  0.0894  0.2410  0.0832
47561W        W90478  34.201   7.273  27.507 -0.0338 -0.3047  0.0049
47562W        W90479  34.008   5.207  25.137  0.1939 -0.0467 -0.2265
47563W        W90480  33.855   5.641  27.075  0.1644 -0.0961  0.0764
47564W        W90481  33.955   7.351  26.315  0.0251 -0.0385  0.0258
47565W        W90482  33.900   5.012  26.083  0.0121  0.4900  0.0562
47566W        W90483   0.009   2.165  24.767 -0.0205  0.0208 -0.0027
47567W        W90484  33.027   6.270  27.467  0.0069  0.1227 -0.1262
47568W        W90485  34.614   5.193  27.608  0.2660  0.1525 -0.0597
47569W        W90486  34.486   6.599  23.751 -0.0222  0.2630  0.3063
47570W        W90487  33.161   5.559  23.735  0.2465  0.1797  0.0907
47571W        W90488  33.398   6.389  25.407 -0.0630 -0.2106 -0.1091
47572W        W90489  32.136   4.424  25.732 -0.0728 -0.0106  0.0033
47573W        W90490   0.485   6.400  27.988 -0.0863  0.0951 -0.3437
47574W        W90491  34.008   6.861  24.036 -0.1419  0.4289 -0.0154
47575W        W90492  33.388   6.612  24.624 -0.1616 -0.1260  0.0645
47576W        W90493  31.105   5.149  25.824 -0.0298 -0.1045 -0.4325
47577W        W90494  31.684   3.545  24.886 -0.2250  0.2300 -0.0487
47578W        W90495  34.034   5.029  26.586 -0.0081 -0.0855 -0.2444
47579W        W90496  33.590   5.479  25.125 -0.1176  0.0897  0.2784
47580W        W90497  33.096   4.711  24.380 -0.3426 -0.0412 -0.0679
47581W        W90498  31.640   4.727  26.663  0.2518  0.0152 -0.2200
47582W        W90499  30.764   4.251  25.418  0.1198 -0.1409 -0.1878
47583W        W90500  32.839   3.110  29.584  0.0506 -0.4456  0.0084
47584W        W90501  32.580   4.495  24.899  0.1600  0.1519 -0.1614
47585W        W90502  32.040   2.573  24.613 -0.1424  0.1329  0.1372
47586W        W90503  31.554   5.119  25.008  0.0348 -0.1225  0.2604
47587W        W90504  32.667   5.556  24.685  0.2539  0.0620 -0.0468
47588W        W90505  32.644   4.898  26.377  0.0338 -0.2400  0.0987
47589W        W90506  33.333   3.027  25.944  0.0042 -0.4290  0.0685
47590W        W90507  32.121   6.444  25.701  0.0637  0.2020  0.2162
47591W        W90508   0.998   5.645  25.409 -0.0346  0.1654 -0.1190
47592W        W90509  31.672   5.896  25.934 -0.0165 -0.0868 -0.0493
47593W        W90510   1.361   8.291  28.315 -0.3035  0.1109 -0.0885
47594W        W90511  32.408   5.409  22.457 -0.0829  0.2732 -0.1804
47595W        W90512  32.349   7.825  24.289 -0.2791 -0.0078  0.1599
47596W        W90513  31.944   5.892  25.438  0.0822  0.1531 -0.0428
47597W        W90514  33.391   4.283  23.459  0.1032  0.0618 -0.0887
47598W        W90515  32.408   5.967  28.417  0.3295  0.0066 -0.0556
47599W        W90516  32.822   4.473  21.072  0.1712 -0.0898  0.2117
47600W        W90517  33.130   6.702  26.315  0.0981 -0.0841 -0.1032
47601W        W90518   0.612   8.331  29.142 -0.2141 -0.0057 -0.1226
47602W        W90519  34.438   5.686  27.595  0.3797  0.0245 -0.0085
47603W        W90520   1.025   5.786  24.842  0.1093 -0.1810 -0.2708
47604W        W90521  33.443   7.558  24.337 -0.3120  0.0015 -0.1872
47605W        W90522  33.065   4.370  24.831 -0.0623 -0.2811 -0.0690
47606W        W90523   0.123   4.789  25.305 -0.0672  0.2857  0.1226
47607W        W90524  33.343   7.256  21.256 -0.0650 -0.0427  0.1736
47608W        W90525  32.714   3.288  27.597  0.1648  0.1325  0.1650
47609W        W90526  33.305   5.037  23.960 -0.0969 -0.1212 -0.0370
47610W        W90527   0.995   4.620  27.848  0.1319  0.1507  0.3169
47611W        W90528  33.062   5.713  26.047 -0.0759 -0.0079 -0.2719
47612W        W90529  31.527   6.201  28.095  0.0271 -0.0786 -0.2501
47613W        W90530  33.769   3.895  27.593  0.1642 -0.3047 -0.1092
47614W        W90531  34.068   6.315  24.660 -0.2668  0.0130  0.1397
47615W        W90532  34.153   5.373  23.754 -0.0854  0.0516  0.1785
47616W        W90533   0.062   3.776  24.214  0.0950 -0.0266  0.2006
47617W        W90534  33.935   7.005  28.256 -0.1329  0.3759 -0.3839
47618W        W90535  33.192   5.894  22.122 -0.4080  0.0675  0.0126
47619W        W90536  33.227   6.057  24.029  0.0970  0.2069 -0.3610
47620W        W90537  32.914   6.927  24.501  0.1860  0.0396 -0.3694
47621W        W90538  33.873   4.065  23.219 -0.2821 -0.1609  0.0671
47622W        W90539  32.479   7.674  26.774 -0.1299 -0.0280  0.2809
47623W        W90540  32.826   3.918  26.243  0.0466 -0.0886 -0.3521
47624W        W90541  33.722   4.473  26.172  0.3679 -0.1321  0.0044
47625W        W90542  33.871   5.768  24.690  0.1501 -0.2192 -0.1745
47626W        W90543   0.043   6.396  28.306  0.1774  0.0813 -0.0248
47627W        W90544  31.264   4.117  25.353 -0.1506 -0.1039  0.1154
47628W        W90545  34.380   5.920  24.585 -0.1134  0.1332 -0.0046
47629W        W90546   0.212   5.526  24.271 -0.1407  0.1957 -0.0646
47630W        W90547  34.194   6.130  25.609  0.0790  0.1809  0.1260
47631W        W90548  33.939   4.019  23.850 -0.2280 -0.1852  0.0428
47632W        W90549  32.370   3.615  26.214  0.1632 -0.1722  0.1853
47633W        W90550  33.427   4.317  24.461 -0.0466 -0.3997 -0.0288
47634W        W90551  33.629   3.729  25.654  0.0558 -0.0796 -0.0263
47635W        W90552  34.292   6.649  24.950 -0.0664 -0.1869 -0.0140
47636W        W90553  33.944   4.169  26.616  0.1168  0.2630  0.3977
47637W        W90554  33.930   7.745  27.440 -0.2757  0.0343  0.3290
47638W        W90555  32.224   5.821  23.829  0.1791  0.1076  0.1207
47639W        W90556  32.478   6.002  26.419  0.1594 -0.1174  0.1438
47640W        W90557  34.426   7.077  23.993 -0.0089 -0.0137  0.0141
47641W        W90558  33.664   5.369  26.594  0.0443  0.0259  0.1818
47642W        W90559  32.526   5.397  26.487 -0.0367  0.2294 -0.0192
47643W        W90560  32.991   5.981  24.497  0.0073 -0.2864 -0.1726
47644W        W90561  33.232   6.300  28.062  0.1990  0.0767 -0.2411
47645W        W90562   0.179   5.531  25.208 -0.0714  0.4102 -0.0701
47646W        W90563  33.876   5.172  29.374 -0.1972  0.0246  0.1469
47647W        W90564  33.755   6.081  25.773 -0.0630 -0.3943  0.0221
47648W        W90565  33.713   7.682  28.815 -0.3260  0.2195  0.1693
47649W        W90566  33.920   4.299  25.320  0.0600  0.0714  0.1185
47650W        W90567   0.464   7.110  27.867  0.2077 -0.1487 -0.0796
47651W        W90568   0.992   7.558  24.378 -0.0701  0.1449  0.3545
47652W        W90569  32.992   6.149  26.919  0.3638  0.0556 -0.0438
47653W        W90570   0.286   5.887  23.845  0.0003  0.0647 -0.0406
47654W        W90571  33.955   6.005  24.249 -0.0852  0.1188 -0.0106
47655W        W90572  33.682   2.838  28.942 -0.3385 -0.1418  0.1152
47656W        W90573  34.109   5.317  27.563 -0.2767 -0.2095 -0.0453
47657W        W90574  31.302   4.558  26.956  0.0432 -0.3571  0.1596
47658W        W90575  32.220   4.817  24.755 -0.0646  0.1588 -0.2361
47659W        W90576  32.832   3.562  25.820  0.0740 -0.1604  0.1440
47660W        W90577   0.110   7.692  25.062 -0.1597  0.0654 -0.3276
47661W        W90578  34.165   5.572  26.614  0.0892 -0.0918 -0.2597
47662W        W90579  34.239   8.422  28.261 -0.1934  0.0923 -0.1024
47663W        W90580  32.930   4.254  24.314  0.3206 -0.1106 -0.5258
47664W        W90581  34.637   5.064  24.061  0.0531 -0.1396 -0.3255
47665W        W90582  34.624   5.471  26.483 -0.0654  0.0536  0.2046
47666W        W90583  33.389   3.894  23.087 -0.2287 -0.0276  0.1006
47667W        W90584  33.198   5.235  24.417  0.0269  0.1572  0.1396
47668W        W90585  32.308   6.935  25.832  0.2774 -0.3389  0.1561
47669W        W90586  33.479   7.537  27.650 -0.0769  0.0905  0.0130
47670W        W90587  33.883   6.776  24.541  0.0438 -0.1345 -0.1184
47671W        W90588   0.971   5.114  27.851 -0.5906  0.1597  0.1646
47672W        W90589  33.159   6.669  24.130  0.0323  0.2294 -0.4314
47673W        W90590  33.574   5.959  26.262 -0.0988 -0.1414  0.2093
47674W        W90591  32.894   5.735  26.549  0.0796  0.0844 -0.2536
47675W        W90592  32.687   3.331  23.178  0.0987  0.3357  0.0740
47676W        W90593  33.309   9.516  28.153 -0.1707 -0.1277 -0.2954
47677W        W90594  33.965   6.858  26.475 -0.1091  0.2367  0.3101
47678W        W90595  34.269   5.834  23.501 -0.1972 -0.1847 -0.0361
47679W        W90596  32.135   3.795  24.998 -0.2083 -0.1953  0.0792
47680W        W90597  32.758   5.692  25.499  0.2300 -0.1107 -0.0324
47681W        W90598  31.896   5.474  24.155  0.0212  0.3528 -0.1994
47682W        W90599  33.912   5.986  26.617 -0.0302 -0.0221 -0.1393
47683W        W90600  34.409   4.583  24.910 -0.0018 -0.1771 -0.1216
47684W        W90601  33.204   3.905  24.626 -0.3156  0.0406 -0.4265
47685W        W90602   0.485   7.578  29.647 -0.0888  0.0203 -0.2948
47686W        W90603   0.388   7.951  26.803  0.0062 -0.1380  0.0127
47687W        W90604  32.280   5.922  23.347  0.1785  0.0022 -0.1519
47688W        W90605  34.147   5.185  25.742  0.1302  0.0681  0.0805
47689W        W90606   0.120   6.843  24.803 -0.2847 -0.1721  0.3205
47690W        W90607   1.500   7.328  25.589  0.0929 -0.1830 -0.0486
47691W        W90608  32.732   7.050  25.377 -0.2554 -0.1850 -0.1213
47692W        W90609   2.084   6.923  26.533 -0.3280 -0.1650  0.2222
47693W        W90610  32.819   4.883  25.206 -0.2515 -0.0658  0.2581
47694W        W90611  31.981   5.485  26.716  0.1498  0.0392  0.1161
47695W        W90612  33.254   6.050  25.781  0.1628  0.0079 -0.0862
47696W        W90613  32.891   4.040  28.803 -0.0729  0.4271 -0.1001
47697W        W90614   0.186   4.196  25.054  0.1134  0.0017  0.2296
47698W        W90615  33.577   3.496  26.152  0.0534  0.1384 -0.0373
47699W        W90616   0.726   4.762  26.425 -0.1411 -0.2099  0.0491
47700W        W90617  33.522   6.886  27.177 -0.0211  0.2058  0.0229
47701W        W90618  32.123   6.294  27.421 -0.0583  0.1172  0.0762
47702W        W90619   0.570   5.851  24.632  0.2332 -0.0768  0.2035
47703W        W90620  33.218   3.823  25.899 -0.2321  0.0706 -0.2337
47704W        W90621   0.507   4.693  25.021 -0.0172 -0.3141  0.0904
47705W        W90622  34.326   5.926  26.976  0.0187  0.3641  0.0321
47706W        W90623  31.309   8.635  24.566 -0.0210  0.3044 -0.2585
47707W        W90624   0.635   8.462  25.791 -0.1611  0.0670  0.1700
47708W        W90625  34.504   6.241  25.962  0.3525  0.0194  0.1023
47709W        W90626   0.381   5.979  28.242  0.0934 -0.1710  0.3037
47710W        W90627   0.183   6.037  24.366  0.0630 -0.3442 -0.1310
47711W        W90628   0.062   6.826  28.575  0.2749  0.0077  0.1708
47712W        W90629   0.574   7.023  24.587 -0.2380 -0.1512 -0.3117
47713W        W90630  33.172   7.729  23.939 -0.0229 -0.1256 -0.1973
47714W        W90631   0.138   3.689  24.990  0.0085 -0.1120 -0.1789
47715W        W90632   0.922   3.443  24.505 -0.1557 -0.1978 -0.1722
47716W        W90633  34.407   5.451  28.426  0.0037 -0.3193 -0.2223
47717W        W90634  32.908   5.158  23.579 -0.0332  0.0429 -0.2099
47718W        W90635  34.236   6.970  23.083 -0.2766  0.0846  0.2388
47719W        W90636  33.415   6.284  26.608 -0.0417  0.0976 -0.0536
47720W        W90637  34.062   5.611  28.735 -0.0166  0.0390 -0.1081
47721W        W90638  31.232   3.142  27.349 -0.1074  0.3292 -0.0119
47722W        W90639  32.686   5.964  24.082  0.1745  0.2411 -0.0665
47723W        W90640  31.984   5.804  27.322 -0.1040  0.2223 -0.0250
47724W        W90641  34.022   4.676  25.803  0.0914  0.0286 -0.2008
47725W        W90642  31.309   4.558  26.341  0.0990 -0.1481  0.1729
47726W        W90643  33.418   3.499  25.107  0.1777 -0.2806 -0.3406
47727W        W90644   0.453   6.388  24.730  0.1624 -0.0949  0.0706
47728W        W90645  34.340   3.191  26.924  0.0759 -0.1904 -0.3332
47729W        W90646  34.020   4.077  27.182  0.0960  0.1578  0.0800
47730W        W90647  33.491   2.917  25.275 -0.1153  0.1021  0.0970
47731W        W90648  33.605   6.089  28.261  0.1111  0.1448  0.1016
47732W        W90649  32.724   6.614  25.602  0.2698  0.1845 -0.1711
47733W        W90650   0.072   8.959  26.870  0.2099  0.1888 -0.1255
47734W        W90651  33.521   2.982  27.103 -0.1419  0.3592  0.0627
47735W        W90652  33.368   6.958  29.457  0.0890 -0.1376  0.1937
47736W        W90653  34.462   3.256  27.441  0.1603 -0.2804  0.1264
47737W        W90654  32.672   6.185  28.762 -0.1327  0.0169  0.1103
47738W        W90655  32.504   4.014  25.769  0.3005 -0.2482 -0.1551
47739W        W90656  34.356   6.434  26.507 -0.0966 -0.4237  0.0162
47740W        W90657   0.039   5.119  23.159  0.0223 -0.0726  0.2936
47741W        W90658   0.987   7.338  30.128  0.1517  0.0584  0.1827
47742W        W90659   0.089   6.706  25.765  0.0786  0.0515 -0.3966
47743W        W90660   0.568   6.817  28.267 -0.0050  0.1694 -0.0467
47744W        W90661   0.218   4.633  26.824 -0.0252  0.1348  0.0719
47745W        W90662  32.558   4.635  24.339  0.0866 -0.1380  0.2706
47746W        W90663   0.943   6.278  27.590  0.0273  0.0941 -0.1981
47747W        W90664  31.907   2.959  26.733 -0.0489  0.0777  0.3248
47748W        W90665   0.474   7.565  25.392  0.3933 -0.1010 -0.1123
47749W        W90666  33.845   7.975  29.809 -0.2828 -0.1343 -0.0407
47750W        W90667  34.444   4.291  27.478  0.1635  0.1847  0.1404
47751W        W90668  34.650   4.223  29.978 -0.0445  0.1084 -0.0838
47752W        W90669  33.397   2.147  30.518 -0.0721 -0.2371 -0.0621
47753W        W90670  33.685   5.791  31.008 -0.3732 -0.0045 -0.0066
47754W        W90671  33.569   7.381  31.172 -0.0606  0.0443  0.1348
47755W        W90672  33.998   2.899  28.497 -0.1032  0.1861  0.1108
47756W        W90673  33.766   3.998  31.181  0.2102  0.1258  0.1761
47757W        W90674  34.588   5.929  28.460 -0.0507 -0.0478 -0.2717
47758W        W90675  32.938   5.947  29.574 -0.0033  0.1689  0.3511
47759W        W90676   0.514   5.067  28.440  0.0930  0.0919 -0.1770
47760W        W90677  34.197   2.034  31.001  0.0358  0.1396 -0.1787
47761W        W90678  32.674   6.247  29.258 -0.2597  0.0326 -0.0377
47762W        W90679  33.610   7.158  28.741  0.1573  0.1987  0.0852
47763W        W90680  33.036   4.804  31.642  0.1805 -0.0864  0.1152
47764W        W90681  34.271   4.843  31.283  0.0633  0.1046 -0.1110
47765W        W90682   0.831   8.251  30.130 -0.2168 -0.0204 -0.1702
47766W        W90683   1.945   7.850  31.206  0.2337 -0.0870 -0.5412
47767W        W90684  34.113   6.122  28.413 -0.0733 -0.0698 -0.0080
47768W        W90685  33.615   7.914  29.339  0.0744  0.3552 -0.1216
47769W        W90686   1.877   5.546  28.703 -0.2025 -0.0485  0.1647
47770W        W90687  34.359   7.937  30.063  0.0856 -0.0292 -0.3229
47771W        W90688  34.045   7.379  29.022  0.0857  0.1836 -0.1668
47772W        W90689  34.503   8.204  29.043  0.0713  0.3760 -0.1795
47773W        W90690  34.230   4.813  27.659 -0.1049 -0.1807  0.0814
47774W        W90691   2.351   5.621  28.508  0.1918 -0.0787  0.1637
47775W        W90692  33.101   8.372  30.209  0.1676  0.2826 -0.0956
47776W        W90693   0.240   5.138  31.006  0.0218  0.0384 -0.1085
47777W        W90694  32.303   7.432  27.177  0.1779 -0.1034 -0.0865
47778W        W90695  33.129   4.875  27.837  0.0404  0.1202  0.1917
47779W        W90696   0.475   7.181   0.877 -0.1360  0.0982 -0.3329
47780W        W90697   0.268   9.450  28.238  0.1098 -0.3373 -0.2271
47781W        W90698   0.172   2.876  31.657 -0.1095  0.0010  0.1558
47782W        W90699  34.383   7.171  28.687 -0.3103  0.0197 -0.1883
47783W        W90700  34.219   6.549  29.146 -0.1402  0.1394 -0.0891
47784W        W90701   0.436   3.757  27.283 -0.2082 -0.0715  0.1146
47785W        W90702  33.925   4.821  31.942  0.0560  0.0575 -0.0450
47786W        W90703  32.991   5.181   0.159 -0.3705  0.0593  0.0949
47787W        W90704  33.654   4.375  29.332  0.1746  0.1974  0.1551
47788W        W90705  33.519   6.401  31.103 -0.1389  0.1253  0.1271
47789W        W90706   2.824   8.457  30.808 -0.2159  0.0280  0.3300
47790W        W90707   0.909   5.848  28.397  0.3076 -0.1222 -0.0907
47791W        W90708   0.089   7.431  29.961 -0.2676  0.3663 -0.1014
47792W        W90709  34.293   6.628  30.971 -0.0009 -0.3238 -0.2306
47793W        W90710   0.309   4.149   0.950  0.0379 -0.0554 -0.2235
47794W        W90711  34.374   8.137  31.545 -0.0167 -0.1517  0.0502
47795W        W90712   2.017   9.034  30.139 -0.3671 -0.0953 -0.2550
47796W        W90713  32.578   6.863  28.264  0.2868  0.4445  0.2169
47797W        W90714  33.324   6.771  28.882  0.0201  0.3446 -0.1398
47798W        W90715  33.002   5.807  31.261  0.1763  0.0624  0.1043
47799W        W90716   1.704   7.788  30.212  0.2120 -0.0393 -0.0041
47800W        W90717   0.472   4.253  31.207 -0.3705 -0.0700 -0.0257
47801W        W90718  34.223   5.648  29.241  0.0370 -0.1289  0.1113
47802W        W90719  34.144   5.180   0.280  0.0486 -0.0177  0.3431
47803W        W90720  33.611   3.737  26.818 -0.1672 -0.2709 -0.2275
47804W        W90721  34.057   4.330   0.696  0.1774 -0.1611 -0.1088
47805W        W90722  33.389   0.916  30.897 -0.2036 -0.2439  0.0556
47806W        W90723   0.074   5.086  28.154 -0.0984 -0.1490  0.0658
47807W        W90724  34.559   4.854  29.204  0.0557 -0.0357  0.1498
47808W        W90725  33.735   5.979  28.710  0.1004 -0.1269  0.0635
47809W        W90726  32.923   2.676  30.640  0.0383  0.0396  0.0708
47810W        W90727  34.224   3.205  28.895 -0.3171  0.1680 -0.0653
47811W        W90728   0.874   8.430  28.354  0.1726 -0.1787  0.1225
47812W        W90729   1.707   6.006  28.945 -0.0909  0.1276 -0.1828
47813W        W90730  33.890   3.531  30.964 -0.0135  0.2349  0.0206
47814W        W90731  33.352   6.425   0.086  0.1895 -0.0254  0.1015
47815W        W90732  33.979   3.071  27.404  0.0507  0.0390  0.2171
47816W        W90733   0.919   7.205  28.157 -0.2219 -0.0806  0.1244
47817W        W90734  34.017   6.926  28.838  0.1938  0.2162  0.2236
47818W        W90735   1.452   8.365  29.688  0.0120  0.2725 -0.1612
47819W        W90736  32.248   5.626  31.856  0.1748 -0.2340  0.0164
47820W        W90737  33.407   3.872  27.228  0.0447  0.2304  0.2143
47821W        W90738  34.232   5.544  29.914  0.2599 -0.1349  0.2247
47822W        W90739  32.732   7.621   0.117  0.5707  0.2026 -0.1583
47823W        W90740   1.033   5.953  29.779  0.0465 -0.2152 -0.0458
47824W        W90741   0.126   8.970  29.183  0.2818  0.0739  0.0772
47825W        W90742  34.661   5.794  31.375 -0.2449 -0.0288 -0.0468
47826W        W90743   0.254   5.061  30.426 -0.0464 -0.0813 -0.1304
47827W        W90744  33.113   5.258  26.517 -0.2369 -0.2011  0.1697
47828W        W90745   0.074   6.074  27.268  0.1700  0.1945  0.0774
47829W        W90746   0.221   1.426  31.345  0.3882  0.2734  0.0470
47830W        W90747  34.649   5.805  28.930 -0.0568 -0.1433  0.2417
47831W        W90748  33.639   3.229  30.447  0.0554 -0.2581 -0.0187
47832W        W90749   0.603   8.082  30.916  0.0241  0.0626 -0.0757
47833W        W90750  34.203   6.625  31.644 -0.2429 -0.4492  0.0558
47834W        W90751   0.871   6.548  30.735 -0.1177  0.1768 -0.1180
47835W        W90752   1.015   6.639  29.011 -0.1161  0.2200  0.5113
47836W        W90753   1.443   6.437  28.863  0.2203 -0.1273  0.1419
47837W        W90754   0.813   2.496  30.444  0.3359 -0.0353  0.1605
47838W        W90755   1.370   8.603  31.445 -0.1757  0.0100 -0.3270
47839W        W90756   1.122   6.026  28.901 -0.0602 -0.1599  0.2133
47840W        W90757  33.197   5.914  28.997 -0.1344 -0.0484 -0.0761
47841W        W90758  31.987   5.657  29.241 -0.1063  0.1649 -0.1651
47842W        W90759  32.764   5.663  28.212  0.0535  0.1241 -0.1391
47843W        W90760  34.084   3.827  28.045  0.2642 -0.0365 -0.3917
47844W        W90761  33.573   1.723  30.226 -0.1838 -0.0546 -0.1425
47845W        W90762   0.272   6.133  29.971 -0.0165 -0.2322 -0.1583
47846W        W90763  32.391   6.763  29.537 -0.1447  0.1275  0.1928
47847W        W90764  33.786   6.145  29.872 -0.3914  0.4033 -0.1847
47848W        W90765  32.878   3.426  29.968 -0.0352 -0.1368  0.1449
47849W        W90766  33.457   2.428  29.538  0.1796  0.0072 -0.4383
47850W        W90767  32.310   6.437  28.541 -0.1199  0.1132  0.1549
47851W        W90768  33.680   6.381  29.021  0.1631 -0.0223 -0.0574
47852W        W90769  34.091   4.400  31.290  0.2468  0.1412 -0.2571
47853W        W90770  34.123   3.629   0.635  0.2251 -0.0247  0.1072
47854W        W90771  33.512   4.352  30.299  0.0252  0.1143  0.0851
47855W        W90772  33.275   4.625  28.845  0.4234  0.1532  0.3294
47856W        W90773   0.829   3.808  28.449 -0.0560 -0.3269 -0.1194
47857W        W90774  33.726   3.501  31.474 -0.0215  0.1724 -0.0937
47858W        W90775  34.508   6.926  29.539 -0.2859  0.0325  0.1394
47859W        W90776  34.440   5.748  30.547  0.1170 -0.1350 -0.1519
47860W        W90777  33.358   4.848  28.282  0.1308  0.2583  0.1624
47861W        W90778  34.471   5.295  31.243  0.2528  0.0294  0.0513
47862W        W90779  33.857   2.223  29.733  0.2137  0.3738 -0.1014
47863W        W90780  32.982   4.655  27.318  0.0623 -0.0170  0.0960
47864W        W90781   1.897   6.664  27.024 -0.0625 -0.1063 -0.1887
47865W        W90782  32.466   4.335  30.094 -0.2720  0.0006 -0.2041
47866W        W90783  34.378   6.017  28.014  0.2771 -0.3657 -0.1112
47867W        W90784  32.875   3.190  31.434  0.1883  0.3148 -0.1061
47868W        W90785  34.641   4.103  30.919 -0.1058 -0.0154  0.0194
47869W        W90786  33.729   6.544  31.568  0.1077 -0.2087  0.0780
47870W        W90787  32.829   4.561  28.663  0.2001  0.1072  0.2082
47871W        W90788  34.068   5.932  30.298  0.2753  0.1098  0.0822
47872W        W90789  33.851   5.169  29.883  0.1209 -0.3130 -0.0419
47873W        W90790  32.183   4.355  27.932  0.0148  0.0080 -0.0022
47874W        W90791  34.364   4.751  28.287 -0.2164  0.0266 -0.0005
47875W        W90792  34.329   6.961  29.967  0.2300  0.1258  0.1117
47876W        W90793  32.101   3.635  31.547  0.0490 -0.1318  0.0548
47877W        W90794   0.021   4.823   0.087  0.1442  0.0350  0.1060
47878W        W90795  32.937   3.909   0.005  0.0860 -0.2773 -0.2535
47879W        W90796  33.352   5.670  29.437  0.0376  0.0233 -0.0518
47880W        W90797   0.247   4.112  27.651  0.2353  0.2409 -0.1367
47881W        W90798   0.124   8.421  29.433  0.0477  0.1559 -0.0947
47882W        W90799  32.849   4.460  29.689 -0.0226 -0.3951  0.2196
47883W        W90800  32.606  10.076  30.886 -0.1643 -0.1472  0.1683
47884W        W90801  33.087   4.291  25.911  0.1921 -0.0229 -0.2064
47885W        W90802  34.646   6.957  27.883 -0.1271 -0.1667  0.0570
47886W        W90803   1.136   7.857  31.102  0.0536  0.1139 -0.0076
47887W        W90804   0.053   5.065  28.677  0.0592 -0.2946  0.0464
47888W        W90805   0.608   7.340  28.639  0.1010 -0.2152  0.2786
47889W        W90806   0.837   7.332  31.289 -0.4021 -0.1542 -0.1611
47890W        W90807  32.499   5.374  31.529  0.0331  0.0493 -0.1286
47891W        W90808  33.395   7.089  30.800  0.3286 -0.1693  0.1972
47892W        W90809  33.797   6.869  30.961 -0.1875  0.1565 -0.3081
47893W        W90810  34.301   5.094  30.761 -0.0916 -0.1678  0.3779
47894W        W90811   1.233   7.702  30.300 -0.4089  0.1917  0.2623
47895W        W90812  32.526   3.790  31.262 -0.2931 -0.0106 -0.0878
47896W        W90813  33.207   4.647  29.367  0.2264 -0.1426  0.1711
47897W        W90814   0.106   6.203   0.562  0.0228 -0.2928 -0.0698
47898W        W90815  33.654   6.065  30.539 -0.2784  0.0728 -0.0253
47899W        W90816   0.510   8.195  29.739  0.1405 -0.0564 -0.1479
47900W        W90817  32.844   5.011  28.439 -0.2116  0.0132  0.3296
47901W        W90818  33.363   6.956  31.359  0.0529  0.2297  0.1705
47902W        W90819  33.163   8.616  29.724  0.0971 -0.0770 -0.1022
47903W        W90820  34.526   7.686  28.884 -0.4829  0.5461 -0.1638
47904W        W90821   0.148   4.688  30.823  0.2219 -0.0144 -0.1441
47905W        W90822   1.267   2.811  28.647 -0.0138  0.0186  0.1208
47906W        W90823  34.195   7.472  29.761 -0.1090 -0.3335  0.0118
47907W        W90824  33.603   7.128   0.418 -0.1004  0.1460 -0.1141
47908W        W90825  33.053   5.325  27.534  0.1611  0.0117 -0.0006
47909W        W90826   1.906   5.646  31.180 -0.0568 -0.1703  0.1401
47910W        W90827  32.729   6.320  28.211 -0.0097  0.0772  0.0422
47911W        W90828  33.045   7.892  29.433  0.1404 -0.4229 -0.3015
47912W        W90829  32.917   6.882  31.669 -0.0669 -0.1395 -0.3442
47913W        W90830  34.351   7.969  30.581  0.1239  0.0053  0.0798
47914W        W90831  32.576   2.407  29.514 -0.0055  0.1653  0.4121
47915W        W90832   0.173   6.452  30.829  0.2837 -0.0375 -0.0220
47916W        W90833  34.666   3.969  31.909  0.4298  0.3800  0.0599
47917W        W90834  33.755   5.211   0.686 -0.1916 -0.0416  0.0983
47918W        W90835  33.418   4.982  27.299 -0.1978 -0.2174  0.1352
47919W        W90836   1.118   2.998  29.090  0.3381 -0.0343  0.0358
47920W        W90837  33.645   2.956  30.960 -0.1614 -0.0370  0.2560
47921W        W90838  34.075   3.937  30.661 -0.1475  0.0134 -0.1340
47922W        W90839  33.031   3.908  29.619 -0.0335 -0.4149  0.0615
47923W        W90840   0.460   7.697  27.637 -0.3068  0.0040 -0.1928
47924W        W90841  34.241   3.905  31.098 -0.0992 -0.0973 -0.0193
47925W        W90842  33.138   4.184  29.179  0.0912  0.0200  0.1038
47926W        W90843  34.421   4.591  31.731  0.1549 -0.0988 -0.2781
47927W        W90844  34.597   7.192  30.370  0.0856  0.0080  0.2028
47928W        W90845  34.262   6.492  27.062  0.0605 -0.1762 -0.2392
47929W        W90846   0.599   7.397  31.847  0.0176 -0.1729  0.1712
47930W        W90847  32.884   7.007  30.716  0.3812  0.0782 -0.2623
47931W        W90848  33.066   5.953  28.500  0.1117 -0.0632  0.2048
47932W        W90849   0.290   5.440  31.589  0.3037 -0.0575 -0.1659
47933W        W90850  34.448   6.234  30.680 -0.2542  0.2985 -0.1004
47934W        W90851  34.164   8.345  29.530  0.0506  0.1275 -0.0267
47935W        W90852   0.323   5.802  29.276  0.0300  0.0274 -0.1191
47936W        W90853  34.537   6.185  29.226  0.0623 -0.0136 -0.0060
47937W        W90854   2.631   6.713   0.250 -0.0366  0.0694  0.1836
47938W        W90855  32.538   3.638  29.005 -0.1249  0.1261 -0.0537
47939W        W90856   0.053   4.590  27.844 -0.1241  0.0501  0.1183
47940W        W90857  34.273   5.209  28.979 -0.2026 -0.0680  0.0367
47941W        W90858  34.642   3.469  31.825 -0.0800 -0.0940 -0.2141
47942W        W90859  33.995   4.840   0.863 -0.0066  0.3909 -0.2535
47943W        W90860  33.553   5.096  28.665 -0.1888 -0.0766 -0.3037
47944W        W90861   0.130   3.877  28.793 -0.0715 -0.0597  0.0395
47945W        W90862   0.435   2.471  31.473 -0.0523  0.1594 -0.0192
47946W        W90863  34.141   3.519  30.357  0.1248 -0.1576  0.0861
47947W        W90864   0.436   5.087  27.492  0.2843 -0.0764  0.2888
47948W        W90865   1.058   7.064  28.650 -0.0322 -0.0802  0.1603
47949W        W90866   0.031   6.678  31.223 -0.4819  0.1542 -0.2682
47950W        W90867   0.489   3.817  31.674 -0.1076 -0.0743  0.0885
47951W        W90868  31.807   4.287  27.571  0.1125  0.1751 -0.1362
47952W        W90869   0.624   5.886  30.327  0.2330 -0.0945 -0.0654
47953W        W90870   0.213   6.218  31.317 -0.1161 -0.0103  0.0734
47954W        W90871   1.138   7.464  30.849 -0.0464 -0.1767 -0.2122
47955W        W90872  32.621   4.892  31.350  0.1067  0.3883 -0.0849
47956W        W90873  34.176   4.379  30.317  0.1859  0.4403  0.2115
47957W        W90874  34.279   4.096   0.201 -0.1215  0.1952  0.1259
47958W        W90875  33.904  10.236  30.697 -0.1765  0.3528  0.0326
47959W        W90876  34.557   6.010  29.684 -0.0193  0.0766  0.1487
47960W        W90877  33.147   2.900  31.076  0.2119  0.1707 -0.1027
47961W        W90878   0.117   6.246  28.793  0.1291  0.1719 -0.1092
47962W        W90879   0.171   5.357   1.294  0.0926  0.0662 -0.2841
47963W        W90880  34.051   5.049  28.534  0.2070  0.2085  0.0682
47964W        W90881  34.577   7.540  29.363  0.2356  0.1440 -0.0452
47965W        W90882  33.290   4.833   0.498  0.3002 -0.2007  0.2618
47966W        W90883  34.662   5.775  30.122  0.2419  0.3987  0.4610
47967W        W90884  34.450   6.314  30.066 -0.2420 -0.1236  0.1787
47968W        W90885  33.276   2.156   0.135  0.0404  0.0850 -0.1026
47969W        W90886  33.114   8.487  30.839  0.2226  0.1801 -0.2159
47970W        W90887  31.880   3.392   2.598 -0.0463 -0.0355 -0.1792
47971W        W90888  32.773   8.637  29.443 -0.1066 -0.1515 -0.0088
47972W        W90889   0.141   5.820  30.892  0.0020 -0.1030 -0.0469
47973W        W90890  31.722   4.845  31.939  0.0295  0.1045  0.3187
47974W        W90891   0.840   3.860   0.311 -0.1595 -0.4289  0.0222
47975W        W90892  34.273   4.673   0.308  0.1290 -0.0533 -0.0266
47976W        W90893  34.375   7.943   0.209  0.3266 -0.0107 -0.1063
47977W        W90894  32.324  10.027  31.643 -0.0436 -0.2506  0.1705
47978W        W90895  32.473   5.966  31.432  0.1510 -0.3599 -0.2220
47979W        W90896   0.613   3.600   0.817  0.0759 -0.1613  0.3633
47980W        W90897  34.532   3.684   0.351  0.1763  0.3186  0.2046
47981W        W90898  34.329   3.144   0.087  0.1659 -0.3822 -0.1045
47982W        W90899  33.920   7.351   1.369  0.1958 -0.0618  0.1376
47983W        W90900   1.072   6.115  30.820 -0.3098 -0.0660  0.1570
47984W        W90901  30.200   8.451  30.793  0.0125 -0.2060  0.2819
47985W        W90902  32.782   5.474   1.168  0.0828 -0.1020  0.1149
47986W        W90903  34.443   6.203  31.166  0.0649  0.0909 -0.0855
47987W        W90904  32.497   6.053  30.230  0.0998 -0.0610 -0.1235
47988W        W90905  33.582   3.907   0.803  0.1306 -0.1615  0.1188
47989W        W90906  31.917   5.093  30.456 -0.0737 -0.2355 -0.0258
47990W        W90907  34.178   4.173   1.517  0.0670 -0.1141 -0.2161
47991W        W90908  33.931   7.305   0.835  0.2912 -0.1618 -0.2428
47992W        W90909   3.198   7.144   0.098  0.0366 -0.0094 -0.2090
47993W        W90910  33.940   6.240   0.124  0.1611 -0.2400 -0.1631
47994W        W90911   0.671   6.909   0.090 -0.1331  0.2337 -0.0776
47995W        W90912  34.113   3.911   1.120 -0.1337  0.1009  0.0391
47996W        W90913  34.387   6.060   0.220 -0.3705  0.4495 -0.2027
47997W        W90914  33.832   4.788   1.319  0.0567 -0.1304 -0.2282
47998W        W90915  33.787   7.188  31.932  0.1916  0.0287  0.1132
47999W        W90916   0.865   4.674  31.570 -0.0088 -0.1846  0.0844
48000W        W90917  34.113   7.017  30.541  0.0532  0.2853  0.2657
48001W        W90918   3.407   5.826   1.702 -0.1914  0.3225 -0.0718
48002W        W90919  33.855   7.050  31.425  0.0135  0.3022 -0.0989
48003W        W90920   0.170   8.201   0.366 -0.1739  0.1183  0.1185
48004W        W90921  34.022   6.149  31.406 -0.6431 -0.0487  0.1699
48005W        W90922  32.833   4.567   1.607 -0.0316  0.2326  0.0038
48006W        W90923  33.813   4.905  31.443 -0.2482 -0.0137 -0.3248
48007W        W90924  33.985   5.612  31.367  0.1429  0.1136  0.1942
48008W        W90925  33.247   4.186   1.199 -0.1701  0.0976 -0.1378
48009W        W90926   0.270   8.221  18.948 -0.0498 -0.0383 -0.2873
48010W        W90927  34.043   6.761  18.012  0.1373 -0.0494  0.1924
48011W        W90928  30.994   6.318  16.887 -0.0936 -0.0887 -0.0582
48012W        W90929  33.667   8.378  20.949  0.3419  0.1091  0.0485
48013W        W90930  33.015   5.014  19.008  0.0257 -0.1519 -0.2486
48014W        W90931  33.191   9.727  20.494  0.0184 -0.4209 -0.2300
48015W        W90932  34.325   6.368  17.973 -0.0182  0.1590  0.1267
48016W        W90933  33.985   7.276  18.893 -0.0465  0.0274  0.0539
48017W        W90934  32.153   8.378  17.915 -0.0801 -0.0663  0.0783
48018W        W90935  32.519   6.347  19.496  0.0700 -0.1043  0.0916
48019W        W90936   0.946   8.648  17.100 -0.3228  0.1568 -0.1026
48020W        W90937   0.774   6.492  19.671 -0.0924 -0.1395  0.2452
48021W        W90938  33.101   9.477  17.947 -0.1688  0.1280 -0.1060
48022W        W90939  32.387   7.108  17.603  0.0065 -0.0783 -0.2604
48023W        W90940  33.171   8.461  19.036 -0.0525 -0.0389 -0.0614
48024W        W90941  34.609   7.697  18.920  0.0022  0.1807 -0.3130
48025W        W90942  34.591  11.529  18.725  0.0918  0.3143  0.1073
48026W        W90943   2.316   9.978  18.981 -0.1877 -0.1556 -0.1550
48027W        W90944  33.453  10.865  18.166 -0.1163  0.0107  0.0634
48028W        W90945  33.122   8.938  18.116  0.0006 -0.2879 -0.0881
48029W        W90946  33.775  10.296  16.707  0.0880  0.1010 -0.5001
48030W        W90947  34.155  10.307  19.831 -0.0367  0.5214  0.0875
48031W        W90948  32.094  10.096  17.135  0.2668  0.0596 -0.1290
48032W        W90949  33.946   9.779  18.140 -0.2891  0.2911  0.1372
48033W        W90950  32.305  10.703  19.200 -0.1480  0.3230 -0.5237
48034W        W90951   0.060   7.408  17.763 -0.2129 -0.3000  0.2235
48035W        W90952   1.181  10.293  22.742  0.0399  0.1177 -0.1193
48036W        W90953  31.777  11.250  17.743  0.0851 -0.2137  0.0065
48037W        W90954  33.204   8.057  17.541  0.1095  0.0627  0.0556
48038W        W90955   2.108   9.556  17.840 -0.2579  0.1804 -0.2213
48039W        W90956   0.819   8.175  18.819 -0.4320  0.2993 -0.0717
48040W        W90957  33.511   9.210  18.127 -0.0141 -0.1480 -0.0648
48041W        W90958  32.912   8.843  18.623  0.1015 -0.4608 -0.0637
48042W        W90959  32.701   9.884  20.510 -0.4027  0.2381 -0.1778
48043W        W90960  32.660  10.561  18.746  0.0091  0.2126  0.1503
48044W        W90961  34.068   8.477  19.249 -0.0282 -0.1369  0.2791
48045W        W90962  31.543  10.291  20.868  0.3905  0.1270 -0.2173
48046W        W90963  32.412   8.669  20.656 -0.0928  0.2151 -0.0677
48047W        W90964   0.558   8.328  17.121  0.0042  0.0486 -0.2704
48048W        W90965  32.916  10.902  19.769  0.3390 -0.0434 -0.3290
48049W        W90966  33.618   8.023  20.564  0.0414 -0.3805  0.0881
48050W        W90967  33.268   6.752  17.271  0.0203  0.2487 -0.1612
48051W        W90968  33.476   8.770  17.193  0.4110 -0.2053  0.0195
48052W        W90969  32.542   9.872  19.332 -0.1303  0.0279  0.0321
48053W        W90970  32.280   7.942  17.802  0.0118  0.1145  0.1352
48054W        W90971  34.596  10.971  20.446  0.2010 -0.1455  0.1291
48055W        W90972  33.212  11.390  17.837 -0.2400  0.2264  0.0140
48056W        W90973  32.464   8.797  17.490 -0.0886 -0.0823  0.1347
48057W        W90974  32.846   8.948  19.158  0.0244 -0.1475  0.0662
48058W        W90975  31.940   6.568  19.767  0.4084 -0.0762 -0.2263
48059W        W90976   0.967   9.283  19.426 -0.0726 -0.1983 -0.2259
48060W        W90977  33.439   9.120  19.539 -0.3261  0.0115 -0.3702
48061W        W90978  30.484   9.266  18.196 -0.0797  0.2921 -0.1293
48062W        W90979  31.799   9.179  21.655 -0.2453 -0.2414 -0.0131
48063W        W90980   1.129   7.419  17.795 -0.1057  0.2780 -0.0860
48064W        W90981  32.858   8.470  20.345 -0.1167 -0.1609  0.0268
48065W        W90982  32.022   8.420  20.370 -0.1709  0.1361  0.1085
48066W        W90983  33.808   6.278  17.280 -0.0874 -0.1198 -0.0235
48067W        W90984  33.320   8.072  18.668 -0.3275  0.0442  0.0350
48068W        W90985  32.518   8.154  18.240  0.2017 -0.1191 -0.1750
48069W        W90986  34.116   9.023  20.131  0.0352  0.0593  0.0477
48070W        W90987  33.834   8.382  16.943  0.1871  0.0560 -0.0187
48071W        W90988  33.618   7.756  17.875  0.1438  0.0568  0.0094
48072W        W90989  32.871   7.792  17.288 -0.0722 -0.0502 -0.0555
48073W        W90990  33.391   7.700  17.116 -0.0147  0.1429  0.0421
48074W        W90991  34.143   9.320  17.921 -0.2455  0.0444 -0.0173
48075W        W90992  31.639   6.720  17.490  0.0354 -0.0482  0.0053
48076W        W90993  33.006  10.004  17.452  0.0349  0.1715 -0.1640
48077W        W90994  34.219   8.215  18.297 -0.0790  0.1238  0.0459
48078W        W90995  32.242  10.000  20.622 -0.0324  0.1039  0.2876
48079W        W90996  31.951   8.816  20.827 -0.2299 -0.3101  0.0545
48080W        W90997  31.958   8.705  16.210 -0.1810  0.4326 -0.1209
48081W        W90998   0.496   8.408  21.169  0.1472  0.3322  0.0312
48082W        W90999   0.401   7.331  19.795  0.2173 -0.0999  0.0936
48083W        W91000  34.087   8.459  17.395 -0.0299  0.1382  0.3662
48084W        W91001  33.718   7.740  18.836 -0.1892  0.1429 -0.0616
48085W        W91002  32.583   9.922  19.829  0.2236 -0.2014 -0.2227
48086W        W91003   0.156   8.026  21.319  0.1283  0.0242  0.0211
48087W        W91004  32.615   8.419  17.802 -0.1514 -0.0003 -0.1328
48088W        W91005  31.606  10.046  17.097 -0.2286  0.1305 -0.0682
48089W        W91006   1.650   7.248  21.190  0.0231  0.1760 -0.2165
48090W        W91007  32.594   7.835  16.419  0.2242  0.4620 -0.0779
48091W        W91008  32.986   7.843  20.107  0.0895  0.0755 -0.1571
48092W        W91009  30.965   8.214  21.643 -0.0015  0.0267 -0.0148
48093W        W91010  31.875  11.581  21.078  0.1610  0.0483  0.1572
48094W        W91011   1.041   8.420  20.233  0.0548  0.0880  0.3018
48095W        W91012  33.810  10.725  17.821  0.3284 -0.1366 -0.0187
48096W        W91013  34.511   9.378  16.414  0.0865  0.0665 -0.2168
48097W        W91014  34.338   6.082  19.017  0.3574  0.1569 -0.1915
48098W        W91015  32.907   9.773  18.342  0.0172 -0.1082  0.0632
48099W        W91016   0.211   9.979  17.556 -0.0787 -0.1684  0.0752
48100W        W91017  32.264   9.025  18.295  0.2901  0.0853  0.0335
48101W        W91018  33.624   9.089  18.600 -0.0240 -0.0126  0.0535
48102W        W91019  34.207   6.963  17.162  0.0623 -0.3730 -0.2021
48103W        W91020  32.178   9.353  19.142 -0.1612 -0.0741 -0.1020
48104W        W91021  32.740   7.333  19.506 -0.1321  0.0432 -0.0696
48105W        W91022  32.907   6.095  18.964 -0.1262 -0.1786 -0.3075
48106W        W91023  31.301  10.559  17.288  0.0363 -0.0002  0.2326
48107W        W91024  33.500  10.108  20.196  0.1590  0.1958  0.1118
48108W        W91025  31.894   7.552  17.098 -0.2011 -0.0132 -0.1016
48109W        W91026  32.469   7.941  18.685  0.0847 -0.0775  0.1887
48110W        W91027  32.281  10.947  18.758  0.1004  0.2657  0.1410
48111W        W91028  32.766   7.416  17.578 -0.0129  0.0007  0.2735
48112W        W91029  33.211  12.017  19.070 -0.0412 -0.0753 -0.1884
48113W        W91030  31.780   8.282  19.358 -0.0256  0.2702 -0.0063
48114W        W91031  34.511   8.020  17.784  0.1030 -0.0900  0.2458
48115W        W91032   0.284   7.270  18.750 -0.0429  0.4753 -0.0133
48116W        W91033   1.287   6.772  19.705 -0.1285 -0.0863 -0.1920
48117W        W91034  33.975   7.726  20.250  0.1659 -0.1488  0.0488
48118W        W91035  34.097   9.413  20.473 -0.0308 -0.0729  0.0227
48119W        W91036  34.555   7.801  16.933 -0.3009  0.2724  0.2541
48120W        W91037  31.702   9.573  18.882  0.5094 -0.2801 -0.1607
48121W        W91038  32.566   7.211  17.152 -0.2867  0.2331  0.2227
48122W        W91039   0.437   7.508  21.709  0.0319 -0.1404  0.0248
48123W        W91040  33.703  10.244  18.047 -0.0432  0.1234  0.3242
48124W        W91041  33.129   7.460  18.036 -0.4447 -0.1854  0.0028
48125W        W91042  31.667   9.569  17.263 -0.1147 -0.0423  0.0510
48126W        W91043   0.555   8.697  19.097  0.0129  0.2144  0.0942
48127W        W91044  32.479   7.744  19.138  0.0512  0.1695  0.0370
48128W        W91045  31.170   7.329  20.905 -0.1142  0.2438 -0.3116
48129W        W91046  32.499   9.670  20.936  0.0303 -0.1242 -0.2282
48130W        W91047  33.527   7.259  18.727  0.0608 -0.0811 -0.0980
48131W        W91048  34.031   8.139  17.834  0.1883 -0.0195  0.2103
48132W        W91049  33.262   7.559  17.571  0.0799 -0.2681  0.3958
48133W        W91050  32.771   9.366  20.641  0.0878  0.1187  0.1256
48134W        W91051  32.984   8.674  16.827  0.0553 -0.2414 -0.0621
48135W        W91052  33.279   8.107  19.669 -0.1224  0.0200 -0.2672
48136W        W91053  34.187   7.593  20.726 -0.3871 -0.4165 -0.0134
48137W        W91054  33.505   7.174  19.673 -0.1042  0.1539 -0.0052
48138W        W91055  33.884   8.872  19.584 -0.0138 -0.0184 -0.0949
48139W        W91056  32.193   7.683  18.272 -0.3114  0.1355 -0.0826
48140W        W91057  32.773   6.746  17.478 -0.4320 -0.0984  0.3378
48141W        W91058  33.826  11.102  18.394 -0.2910  0.1366 -0.0278
48142W        W91059  31.437   8.130  18.797  0.1488  0.2019 -0.2690
48143W        W91060  34.405   9.708  21.858 -0.5040 -0.3584 -0.0726
48144W        W91061  33.783   6.380  18.247  0.0687  0.0832  0.0677
48145W        W91062  32.825   9.060  17.166  0.1984  0.0512  0.0096
48146W        W91063  34.048  11.024  19.095 -0.2326  0.0924 -0.1538
48147W        W91064   0.845   7.060  16.727  0.0167 -0.1014 -0.0660
48148W        W91065   0.113   7.779  17.389  0.3296  0.1805 -0.1815
48149W        W91066  33.970   9.410  20.987 -0.0086 -0.1540  0.0433
48150W        W91067  33.507   9.797  19.438  0.2123  0.1337  0.4831
48151W        W91068  32.560  10.779  17.678  0.1717  0.2249 -0.1194
48152W        W91069  34.583   8.759  20.746  0.2063 -0.1480 -0.3395
48153W        W91070  32.651   8.257  17.326  0.0173 -0.0871  0.2173
48154W        W91071  33.728   8.107  18.325  0.0872 -0.3461  0.4091
48155W        W91072  33.153   6.322  20.529  0.1999  0.0555  0.0284
48156W        W91073  34.509   7.206  19.011 -0.1423 -0.0576  0.1353
48157W        W91074  33.026  10.297  20.474  0.1851 -0.3377 -0.0457
48158W        W91075  32.177   9.645  19.571  0.1316 -0.3043 -0.0079
48159W        W91076  32.365   9.546  20.312  0.0072 -0.0285  0.0159
48160W        W91077   0.836   9.194  18.528  0.1177 -0.3681  0.1669
48161W        W91078  32.517   9.167  19.930 -0.3995 -0.3398  0.0420
48162W        W91079  31.921   8.865  17.387 -0.1110  0.0103  0.1919
48163W        W91080  33.309   9.786  16.703 -0.1184 -0.1377 -0.1363
48164W        W91081  32.306   7.562  17.389  0.0555 -0.2124  0.1409
48165W        W91082  31.748   8.344  16.500 -0.1172  0.1531  0.2493
48166W        W91083  34.159   7.774  18.695  0.0974 -0.4222  0.4408
48167W        W91084  33.843  10.120  19.179  0.1567 -0.1425 -0.0344
48168W        W91085  31.905   6.979  17.807 -0.1910 -0.1475 -0.2726
48169W        W91086  33.731   9.224  17.332  0.1395 -0.0797 -0.1687
48170W        W91087  33.043   9.492  17.422  0.0835  0.3210 -0.0092
48171W        W91088  34.663  10.928  16.819  0.1854  0.0219  0.1676
48172W        W91089  32.865   7.242  18.422  0.2468  0.0225 -0.1211
48173W        W91090  32.801  12.320  20.548 -0.2233  0.2522  0.2431
48174W        W91091  33.363   6.159  17.955 -0.1079  0.4070 -0.1970
48175W        W91092  32.396   8.844  21.121 -0.0296  0.0551 -0.0410
48176W        W91093   0.176   9.105  17.311  0.0345 -0.2554  0.1397
48177W        W91094  32.872   9.482  20.087  0.3512  0.0556  0.0682
48178W        W91095  34.423   9.997  17.412  0.2729 -0.1465  0.1970
48179W        W91096  34.558   6.792  18.093 -0.1094  0.0407 -0.1534
48180W        W91097  33.593   7.707  19.698 -0.2010  0.0210 -0.1013
48181W        W91098  32.989   9.141  19.726 -0.1683  0.0716  0.0684
48182W        W91099  32.046   7.678  18.833 -0.1226 -0.0695 -0.0798
48183W        W91100  32.249   9.517  17.105  0.0323 -0.1423 -0.1541
48184W        W91101  31.968   8.137  18.944 -0.2400 -0.0790 -0.0839
48185W        W91102   1.076   6.952  18.859 -0.3872 -0.3256  0.0145
48186W        W91103  33.083   7.545  19.755  0.0105  0.0001 -0.1986
48187W        W91104  32.341   9.066  16.960  0.0210  0.6481 -0.0283
48188W        W91105  33.342  10.079  17.062  0.2413 -0.0077 -0.1504
48189W        W91106   1.409   9.699  20.244  0.2988 -0.0510  0.1412
48190W        W91107  33.541  10.510  18.465 -0.4538  0.4435 -0.0141
48191W        W91108  32.712   9.321  18.323  0.3139 -0.1870  0.2465
48192W        W91109  33.720   6.800  18.750 -0.1969  0.0107 -0.2941
48193W        W91110  32.546   9.341  17.497 -0.2606  0.0714  0.0128
48194W        W91111  31.849   9.196  17.007  0.2607 -0.2303  0.0368
48195W        W91112  34.478   8.941  18.263 -0.0647 -0.0749  0.1026
48196W        W91113  33.188   6.497  19.118 -0.3178 -0.2514 -0.0093
48197W        W91114  33.874   9.747  21.587  0.0559  0.2132  0.0137
48198W        W91115  31.753   6.604  16.976 -0.1067  0.3514  0.2679
48199W        W91116  32.234   8.009  17.137 -0.1690 -0.1067 -0.0308
48200W        W91117   0.062   8.288  17.192 -0.2064 -0.0508 -0.0618
48201W        W91118   1.302   9.393  22.529 -0.1492  0.4305 -0.1877
48202W        W91119  34.638   9.525  20.346  0.0666  0.1124 -0.0708
48203W        W91120  32.751  10.324  17.789  0.0518  0.3262 -0.1627
48204W        W91121  33.986   6.081  16.420  0.0373  0.3021 -0.2202
48205W        W91122   0.100   5.395  18.687 -0.1333 -0.0336 -0.1099
48206W        W91123  33.732   6.770  17.025  0.1583  0.0576  0.1863
48207W        W91124   0.263   8.111  18.025 -0.0635 -0.3081 -0.4956
48208W        W91125  31.971   9.320  17.565  0.1969 -0.0678 -0.0737
48209W        W91126  34.034  11.051  21.768 -0.0072 -0.2072 -0.0450
48210W        W91127   0.780   9.645  21.195 -0.2015  0.1059 -0.1312
48211W        W91128  32.043   7.504  17.818 -0.1566  0.3046 -0.0369
48212W        W91129  33.943   6.709  19.308  0.0098  0.1627  0.3355
48213W        W91130   0.262  11.295  20.252 -0.1689  0.1473  0.2433
48214W        W91131  33.252  10.612  20.072 -0.0032  0.0651 -0.1479
48215W        W91132  33.646   6.273  19.167 -0.1887  0.1399 -0.0349
48216W        W91133   1.214  10.472  19.663  0.2591  0.2763 -0.4012
48217W        W91134  32.391   6.882  21.653  0.2403 -0.1855  0.0816
48218W        W91135  33.310  10.716  20.961 -0.1088 -0.1297  0.0802
48219W        W91136   1.144   6.976  20.184 -0.1409  0.3608 -0.0577
48220W        W91137  32.038   7.796  19.328 -0.0144 -0.1318 -0.1548
48221W        W91138   0.406   9.440  18.544 -0.2188  0.0769 -0.1380
48222W        W91139  32.970   9.919  19.482  0.0351 -0.0425  0.1034
48223W        W91140  32.540   9.888  17.282  0.0321 -0.0590 -0.1630
48224W        W91141  33.016  10.386  19.693 -0.1284  0.0536  0.1455
48225W        W91142  32.048   7.572  19.940 -0.0801 -0.3854  0.3634
48226W        W91143  33.434   7.960  19.204  0.0224 -0.1717  0.1201
48227W        W91144  34.390   8.514  17.945 -0.2530  0.2334 -0.1378
48228W        W91145  33.479   7.730  20.184 -0.0168  0.0835  0.1971
48229W        W91146  31.125  10.773  19.496 -0.0402  0.0421 -0.0553
48230W        W91147  33.982   9.453  22.972  0.1318 -0.1795  0.0896
48231W        W91148  33.911   8.218  22.176 -0.0526  0.1359 -0.1128
48232W        W91149  31.036   9.408  20.611  0.1217 -0.2038 -0.0777
48233W        W91150  33.537   6.965  24.215 -0.0520  0.0924 -0.1542
48234W        W91151   1.374   8.598  25.072 -0.1415  0.0864 -0.2810
48235W        W91152  33.631   8.328  23.810 -0.2331 -0.1203  0.2358
48236W        W91153  33.752   8.505  20.462  0.1528  0.1954 -0.3286
48237W        W91154  32.935   7.691  22.445  0.0533 -0.2334  0.2209
48238W        W91155  32.854   8.871  20.897 -0.1935  0.0336  0.1138
48239W        W91156  34.111   6.562  22.132 -0.2536 -0.1384 -0.1848
48240W        W91157  32.962   7.742  24.370 -0.3505 -0.0952  0.0558
48241W        W91158   0.706   8.471  25.319  0.2430  0.2150 -0.0699
48242W        W91159   0.638  10.578  21.654  0.0409  0.0078  0.1238
48243W        W91160  33.532   8.614  21.486  0.4639  0.1857  0.0059
48244W        W91161  31.576   9.213  22.561  0.2844  0.0766  0.1996
48245W        W91162  33.592   8.051  21.810  0.0705  0.0477  0.1934
48246W        W91163   0.241  10.104  23.145  0.0334  0.0317 -0.2021
48247W        W91164   0.011  10.741  21.309 -0.1389 -0.1758 -0.0353
48248W        W91165  33.929   8.180  21.448 -0.1565 -0.1838  0.1594
48249W        W91166  33.375   9.607  22.624  0.0155  0.0645  0.0100
48250W        W91167  32.684   7.344  20.000 -0.0010  0.4398 -0.1673
48251W        W91168  31.915   8.715  25.097 -0.0086  0.2412 -0.0479
48252W        W91169   0.111   9.449  21.565  0.0687 -0.1503  0.0306
48253W        W91170  34.139  11.103  21.270 -0.0858  0.0183  0.0851
48254W        W91171   1.483  10.349  20.174 -0.0566 -0.2204 -0.0565
48255W        W91172  34.446  12.240  21.378  0.1147 -0.2160 -0.0618
48256W        W91173  32.303   9.698  23.521  0.0775 -0.1991 -0.0836
48257W        W91174  33.745   8.756  24.091 -0.0052  0.0702  0.1219
48258W        W91175  31.811  11.405  21.710 -0.2083  0.0700  0.1216
48259W        W91176   1.486   8.344  21.507 -0.1001  0.1240  0.1262
48260W        W91177   0.061   7.915  24.574 -0.1471 -0.1579  0.1178
48261W        W91178  33.195   9.606  23.920 -0.0938  0.1256 -0.5560
48262W        W91179  33.066   8.104  22.954 -0.0773  0.0264  0.3516
48263W        W91180   1.041   9.751  22.802  0.1285 -0.2206  0.0384
48264W        W91181  33.185   8.708  20.012 -0.1283  0.2217  0.2336
48265W        W91182  33.652   8.878  20.045  0.0732 -0.0985  0.3573
48266W        W91183  33.359   8.640  22.947  0.0041 -0.3201  0.0176
48267W        W91184  33.582   7.627  25.979 -0.3285  0.1675 -0.0408
48268W        W91185  33.829   7.063  21.917 -0.2587  0.2426 -0.0544
48269W        W91186  32.737   9.538  23.730 -0.0538 -0.3369 -0.3254
48270W        W91187  34.392   8.848  21.634 -0.2105 -0.1396 -0.1625
48271W        W91188  32.412   8.166  20.519  0.0520  0.1784 -0.0802
48272W        W91189  34.417   8.202  22.268  0.2221  0.4243 -0.1556
48273W        W91190  31.848   8.973  23.884 -0.3548  0.0673 -0.0330
48274W        W91191   0.419   8.065  26.222  0.0188 -0.0560 -0.1490
48275W        W91192  33.928  10.969  22.850 -0.0618  0.0087 -0.2636
48276W        W91193  33.080  12.159  21.065 -0.1260 -0.1151  0.2110
48277W        W91194  30.880   8.493  21.216  0.0545 -0.1546  0.0013
48278W        W91195  34.387   9.931  20.763 -0.2078 -0.3747 -0.0597
48279W        W91196  33.216   7.836  23.341 -0.1690 -0.2803 -0.2034
48280W        W91197  33.675   8.942  23.245 -0.1208 -0.0859  0.1073
48281W        W91198  33.815   6.701  23.163 -0.1110 -0.1061  0.0466
48282W        W91199  31.391   8.802  22.019  0.0655 -0.0347 -0.1278
48283W        W91200  33.310   7.656  22.014 -0.0178  0.2562 -0.0204
48284W        W91201  34.478   9.237  21.957  0.1079  0.0457  0.0332
48285W        W91202  33.209   8.648  24.009 -0.1762 -0.1406  0.3799
48286W        W91203  33.359   7.409  22.434  0.1131  0.1949  0.1766
48287W        W91204  34.548   7.613  21.511 -0.1130 -0.2268 -0.0238
48288W        W91205   0.944   9.179  23.330  0.2708 -0.0365 -0.0412
48289W        W91206  30.351   9.170  19.924 -0.1189  0.1302 -0.0003
48290W        W91207  34.421   7.574  22.789  0.3025  0.1174 -0.1779
48291W        W91208   0.749   8.356  22.096 -0.0409  0.0512 -0.2045
48292W        W91209  32.810  10.109  24.763 -0.0848 -0.1202  0.3570
48293W        W91210  34.140   8.101  20.626  0.0423  0.3595  0.1060
48294W        W91211  32.943   7.189  21.620 -0.3067 -0.0481 -0.1554
48295W        W91212  32.596   9.002  22.943  0.2793 -0.1952  0.0301
48296W        W91213  31.392   7.925  19.631  0.1674  0.2533  0.0546
48297W        W91214  31.246   7.869  20.931 -0.1175  0.0140  0.0003
48298W        W91215  31.764  10.336  19.938  0.1944  0.0149 -0.1021
48299W        W91216  33.938  10.361  20.792 -0.2648 -0.0550 -0.1112
48300W        W91217  32.185   7.180  25.386 -0.4054 -0.0903 -0.1488
48301W        W91218  34.403   8.353  21.588 -0.0981  0.3960  0.0821
48302W        W91219  31.803   9.902  23.282 -0.1213 -0.1728  0.1194
48303W        W91220  34.484   9.873  23.247 -0.0578  0.1769 -0.0039
48304W        W91221   0.869  10.098  20.970 -0.0906  0.2039 -0.0697
48305W        W91222  33.169   9.427  23.475 -0.1035  0.0009 -0.0592
48306W        W91223  34.481   8.775  23.621 -0.2398  0.2082  0.0495
48307W        W91224   1.225   7.206  24.036  0.0885  0.1449  0.0992
48308W        W91225  34.236   8.518  20.255 -0.1808 -0.0388  0.3080
48309W        W91226  31.213  10.103  22.027  0.0581 -0.0817  0.0048
48310W        W91227   0.827   7.414  23.158  0.1547  0.2361  0.2331
48311W        W91228   1.183   8.479  19.178  0.1617  0.4766 -0.1643
48312W        W91229   1.377   7.146  24.502  0.2733 -0.1505  0.3203
48313W        W91230  33.886   8.019  23.525 -0.0358 -0.0067 -0.1563
48314W        W91231  31.596   8.704  22.546  0.1009 -0.0650 -0.2233
48315W        W91232   1.370   7.101  25.047  0.1532 -0.2190 -0.1383
48316W        W91233   0.076   9.148  21.151 -0.5641 -0.0631 -0.1750
48317W        W91234   0.578   8.511  19.830 -0.0234 -0.0387  0.2625
48318W        W91235   0.094   8.470  26.098 -0.1486  0.3513  0.1636
48319W        W91236   0.420  10.573  23.064  0.2368 -0.1173 -0.1306
48320W        W91237  33.251   8.727  20.556 -0.0029  0.1950 -0.1344
48321W        W91238  31.407  10.556  19.166  0.0483 -0.2385  0.0595
48322W        W91239  32.616   8.298  21.297  0.0199  0.1325  0.1321
48323W        W91240   0.055   8.583  21.316 -0.3407  0.4601 -0.0169
48324W        W91241  33.521   6.440  20.918  0.1108  0.2223  0.3250
48325W        W91242  32.357   6.528  22.395 -0.0528  0.1282  0.2094
48326W        W91243   0.878   5.540  22.911  0.0370 -0.0142 -0.3244
48327W        W91244  32.817   9.407  22.347 -0.0834 -0.1098 -0.1543
48328W        W91245  34.041   9.554  24.688 -0.1302  0.2971  0.1063
48329W        W91246  32.646   7.850  19.723 -0.1541  0.1038  0.3958
48330W        W91247   1.156   9.744  23.945 -0.1084 -0.0353 -0.0423
48331W        W91248  31.287   9.095  20.301  0.1368 -0.0208  0.3508
48332W        W91249  33.235   9.256  20.808  0.0090 -0.1230 -0.1634
48333W        W91250  30.791   9.001  21.457 -0.0150 -0.2639  0.0050
48334W        W91251  32.591   7.014  24.888  0.3818  0.0247 -0.1274
48335W        W91252  33.838   7.169  23.345  0.2404 -0.2029 -0.2599
48336W        W91253  33.413   7.260  21.794 -0.0703 -0.1046  0.0539
48337W        W91254  33.559   7.666  21.463  0.0665  0.1120 -0.2406
48338W        W91255  34.381   7.634  24.728 -0.0110  0.0398 -0.1502
48339W        W91256  33.281   9.888  21.790  0.2674 -0.1351  0.1305
48340W        W91257   0.818   8.816  19.497 -0.1726 -0.2877 -0.0795
48341W        W91258  32.246   8.349  24.052  0.2387  0.2132 -0.2245
48342W        W91259  32.906   8.985  23.572 -0.1623  0.1759 -0.3066
48343W        W91260   0.106   8.121  21.857 -0.0600 -0.0119 -0.3530
48344W        W91261  33.365  11.262  21.088 -0.2344  0.0916 -0.1628
48345W        W91262  34.443   9.334  20.789 -0.1891 -0.0157  0.3483
48346W        W91263  31.883   9.585  23.759  0.3723 -0.0082 -0.1795
48347W        W91264  34.669   7.175  23.058 -0.0195 -0.0160  0.1268
48348W        W91265  34.110   6.622  22.755 -0.2733  0.1133 -0.1899
48349W        W91266   0.035   7.142  22.501  0.1745  0.0529 -0.0605
48350W        W91267  32.007   8.333  23.153 -0.3016 -0.0017 -0.0324
48351W        W91268  33.877   7.385  21.092  0.3760  0.0216  0.1161
48352W        W91269  33.830   8.199  24.273 -0.1659 -0.2940  0.0478
48353W        W91270  32.816   7.719  21.970  0.0764  0.0489  0.2467
48354W        W91271  34.571   7.313  23.568 -0.0784 -0.1930  0.3779
48355W        W91272   2.349   9.590  21.484  0.1694  0.1603  0.0023
48356W        W91273  33.960   9.425  21.956  0.0299 -0.0165 -0.1408
48357W        W91274  32.760   7.882  23.605 -0.0327 -0.0093 -0.2348
48358W        W91275  34.343   8.585  22.522 -0.0637 -0.0080 -0.2248
48359W        W91276  33.535   6.537  22.194  0.0452 -0.4703 -0.0208
48360W        W91277  33.016   8.514  23.349  0.1742  0.0005 -0.2738
48361W        W91278  32.084   7.849  20.849  0.0706 -0.0960  0.2638
48362W        W91279   1.638  10.077  21.141 -0.2527 -0.0923  0.0106
48363W        W91280  30.532   8.143  24.857 -0.3044 -0.4357  0.1664
48364W        W91281  30.537   9.409  23.028 -0.1411 -0.5198 -0.0491
48365W        W91282  32.235   7.957  21.350 -0.3520  0.1589 -0.0445
48366W        W91283  33.942   9.869  20.561  0.1871  0.0368  0.0985
48367W        W91284   0.927  10.802  20.680  0.0636 -0.2265 -0.0050
48368W        W91285   1.198   7.951  21.951  0.0056  0.0146  0.2271
48369W        W91286  31.696   7.874  21.202 -0.0093 -0.1843  0.2441
48370W        W91287  33.076   9.965  22.238 -0.1059 -0.2126 -0.1662
48371W        W91288  29.945   9.090  21.802  0.0630 -0.3955 -0.1580
48372W        W91289  32.397  10.395  22.309  0.1405  0.1503 -0.1222
48373W        W91290   0.833   9.403  24.418  0.0731 -0.0893  0.1757
48374W        W91291   0.422   8.130  22.856  0.3161 -0.1170 -0.0627
48375W        W91292  33.894   8.480  22.962  0.0107 -0.1881 -0.1988
48376W        W91293  32.443   8.737  23.387  0.1689 -0.0438  0.2579
48377W        W91294  31.888   6.285  22.230  0.1903  0.1216 -0.2689
48378W        W91295  32.898   9.897  22.703 -0.4989  0.0978 -0.0217
48379W        W91296  31.123   8.688  23.308 -0.0084  0.4765 -0.2950
48380W        W91297  32.911   8.596  21.957  0.3869 -0.1709 -0.2113
48381W        W91298   0.153   9.636  20.862  0.2621 -0.3888 -0.0540
48382W        W91299  32.963   7.245  22.160 -0.2604 -0.2378  0.0784
48383W        W91300  33.605   9.775  22.164 -0.1332  0.0764  0.1596
48384W        W91301  33.597  10.726  22.472 -0.0393 -0.0346  0.0082
48385W        W91302  32.688   8.226  22.372  0.1334 -0.1862 -0.0203
48386W        W91303  32.914   7.495  21.065  0.2035 -0.1672  0.1744
48387W        W91304  33.932   8.603  23.475 -0.0773  0.0336 -0.3358
48388W        W91305  31.743  11.021  23.337  0.0307 -0.3435 -0.1304
48389W        W91306  34.250   5.746  20.284 -0.1005 -0.0978  0.2325
48390W        W91307  33.585   9.904  20.862  0.0670 -0.0379 -0.0850
48391W        W91308   0.171  10.664  20.820 -0.3427  0.0384 -0.1493
48392W        W91309  33.798  10.411  22.894 -0.0546 -0.1773  0.0496
48393W        W91310  32.334   9.171  21.567  0.1974 -0.0473 -0.0823
48394W        W91311   0.044   9.930  22.649 -0.0181 -0.0114  0.0698
48395W        W91312  33.707   6.261  19.653  0.1459  0.1305 -0.2741
48396W        W91313  32.182   5.891  24.917 -0.1249 -0.2968  0.1035
48397W        W91314   0.388   8.463  21.680  0.2068 -0.2960  0.1090
48398W        W91315  32.665   7.798  24.796 -0.1198  0.0474  0.2805
48399W        W91316  34.297   8.888  21.115  0.2952 -0.0602  0.0762
48400W        W91317  32.594   6.633  22.934 -0.2565  0.0127  0.0766
48401W        W91318  34.009  10.023  21.118 -0.1657 -0.2420  0.0085
48402W        W91319  33.130   8.095  22.080  0.2772 -0.1120  0.2436
48403W        W91320  34.106   6.848  23.554 -0.5486  0.2005 -0.0149
48404W        W91321   0.780  12.385  21.329  0.1731  0.1545  0.0006
48405W        W91322  31.187   8.406  22.224  0.0216 -0.0600 -0.0792
48406W        W91323   0.192   8.990  21.702  0.0288  0.1212 -0.0111
48407W        W91324  31.977   9.139  23.390 -0.2295  0.2640  0.0661
48408W        W91325  32.785  10.102  21.346  0.2001  0.2796 -0.4302
48409W        W91326  34.272  10.799  20.124 -0.1334 -0.1424  0.3540
48410W        W91327   0.422   9.603  24.049 -0.1150 -0.0971  0.3811
48411W        W91328   0.912  11.086  22.067  0.1681  0.0712  0.3093
48412W        W91329  33.186   8.215  20.675  0.0304  0.1983 -0.0647
48413W        W91330  33.513   9.125  24.425  0.0673 -0.2645 -0.0130
48414W        W91331   1.305   9.670  21.057  0.3669 -0.0618  0.0758
48415W        W91332  32.140  10.027  20.143  0.0462 -0.2754  0.1646
48416W        W91333   0.404   7.176  20.688  0.0375 -0.2274 -0.1460
48417W        W91334  32.676   8.781  22.347 -0.1636 -0.2195 -0.1631
48418W        W91335  32.838  10.944  25.423  0.1062 -0.0638  0.0822
48419W        W91336  33.312  11.176  19.708  0.0097 -0.1230 -0.3134
48420W        W91337  33.211  10.212  20.911 -0.0195 -0.1311  0.0201
48421W        W91338  33.022   9.178  22.749 -0.1147  0.0013 -0.0752
48422W        W91339   0.338   7.641  23.683 -0.0850  0.1098 -0.0418
48423W        W91340  32.729   7.488  23.997 -0.0280 -0.0546 -0.0359
48424W        W91341  33.137   7.622  25.411  0.0220  0.0089  0.3279
48425W        W91342  34.257   6.808  21.657 -0.2680 -0.0467 -0.1075
48426W        W91343  34.192   8.042  23.169  0.0083  0.5031  0.2942
48427W        W91344   0.785   7.055  22.801 -0.0255  0.0640 -0.0102
48428W        W91345   1.199   8.535  22.168  0.2035  0.0131  0.1739
48429W        W91346  32.895   7.287  22.716  0.0597 -0.0708  0.0784
48430W        W91347  33.289   8.223  25.191 -0.0865 -0.0911 -0.0863
48431W        W91348  33.714   5.931  23.812 -0.1769  0.2671  0.0952
48432W        W91349  32.889   5.831  21.175 -0.2366 -0.3227  0.0821
48433W        W91350   0.736   9.933  23.836  0.1345 -0.0458 -0.2496
48434W        W91351   1.184  11.263  24.304 -0.4210  0.2161 -0.0214
48435W        W91352  33.270   9.897  23.524  0.0041 -0.1841 -0.2403
48436W        W91353  31.791   6.969  22.387  0.1733 -0.1912 -0.3385
48437W        W91354   0.205  12.704  22.244 -0.0831 -0.0623  0.1797
48438W        W91355  34.672   6.710  22.791 -0.0525  0.1771 -0.2207
48439W        W91356  34.215  10.383  22.502 -0.0932 -0.3327  0.0283
48440W        W91357  33.145   6.802  21.029 -0.0924  0.0324 -0.0094
48441W        W91358  32.746   8.079  24.071  0.0219  0.0175  0.1250
48442W        W91359  33.489   8.458  22.075  0.0573 -0.0259  0.1746
48443W        W91360  33.899   9.453  22.438 -0.1437 -0.4133 -0.3689
48444W        W91361  33.273   8.889  21.819  0.0672 -0.1162  0.2619
48445W        W91362  34.351  11.276  22.968 -0.0470  0.0291 -0.1284
48446W        W91363  33.344   5.906  20.757 -0.0556 -0.1168  0.2409
48447W        W91364  31.374   7.784  22.124 -0.2983 -0.1965  0.1651
48448W        W91365   0.792   9.524  20.260 -0.4142  0.2885 -0.0738
48449W        W91366  32.856   9.071  25.038 -0.0887 -0.3297  0.3069
48450W        W91367   0.342  11.741  22.449  0.0239 -0.0325 -0.1345
48451W        W91368   0.928   9.050  26.488  0.1021  0.1187 -0.2403
48452W        W91369  34.529   9.479  26.991  0.2399  0.1439  0.1041
48453W        W91370  33.372   7.280  23.798  0.0311  0.1650 -0.2335
48454W        W91371  33.117   5.370  25.569 -0.1050  0.3183  0.2642
48455W        W91372   0.404   6.968  26.650 -0.0880  0.2606  0.0146
48456W        W91373   0.398   9.390  26.562 -0.0984  0.2629  0.0364
48457W        W91374   0.874   8.309  23.519  0.2445  0.0557 -0.0465
48458W        W91375  31.528   5.549  26.370 -0.2207  0.0564 -0.1295
48459W        W91376  33.719   9.856  23.874  0.0691 -0.1059  0.0842
48460W        W91377  33.562   7.145  25.534  0.1706 -0.0330 -0.1425
48461W        W91378  34.343   7.214  26.632  0.4327  0.0679 -0.2128
48462W        W91379  34.570   9.812  28.232 -0.0769  0.0330 -0.1909
48463W        W91380  33.337  11.652  24.336 -0.0624 -0.0365  0.4655
48464W        W91381  32.317   8.960  25.258  0.0596 -0.2167  0.1863
48465W        W91382  32.085   7.481  25.947 -0.0535  0.0512  0.3467
48466W        W91383  34.148   9.678  25.626  0.1425 -0.0973  0.1581
48467W        W91384  34.358  10.102  26.581 -0.0123  0.0575 -0.0752
48468W        W91385  34.523  10.720  25.790  0.0304 -0.0162  0.1161
48469W        W91386  31.502  10.138  26.363  0.1601  0.0448 -0.1249
48470W        W91387  33.636   8.818  25.461 -0.0031 -0.0243 -0.0620
48471W        W91388   0.058  10.162  23.622 -0.1583 -0.1730  0.0874
48472W        W91389  33.488   9.323  29.031 -0.2147  0.0008 -0.1331
48473W        W91390  33.821   9.959  24.972 -0.0991  0.1346  0.2385
48474W        W91391   0.033  10.220  26.897  0.1873  0.1301  0.2089
48475W        W91392  33.897   9.420  24.032 -0.2194  0.1243 -0.0451
48476W        W91393  32.193  10.673  24.703  0.1861 -0.1929 -0.1747
48477W        W91394  34.277  10.230  27.138  0.1596 -0.3287 -0.0405
48478W        W91395   0.355  10.097  24.086 -0.3070 -0.0339  0.2639
48479W        W91396  33.947   8.627  24.564 -0.1185 -0.2357  0.1429
48480W        W91397  33.921   7.884  25.080 -0.2172 -0.0428 -0.1431
48481W        W91398  33.545   6.824  25.098  0.1097  0.2032  0.1233
48482W        W91399  32.856  11.167  24.955  0.3531  0.0743  0.1582
48483W        W91400  34.288   6.187  27.464  0.0642  0.1030 -0.0333
48484W        W91401  34.640   9.435  27.875 -0.3571 -0.2147 -0.0714
48485W        W91402  31.740   8.859  26.869 -0.0287  0.2791  0.0912
48486W        W91403  32.288   7.930  26.165 -0.0694  0.0269 -0.3357
48487W        W91404  34.227  10.395  26.209 -0.2532  0.0382  0.0353
48488W        W91405  32.010   8.717  26.499 -0.2456  0.0801 -0.0893
48489W        W91406  34.394   8.048  25.137 -0.0812  0.0843  0.1808
48490W        W91407  32.743  10.709  27.772  0.0250 -0.0658 -0.0837
48491W        W91408  33.647   8.107  24.810  0.3755 -0.0960 -0.2634
48492W        W91409   0.171   9.256  25.839  0.1811  0.1041 -0.0190
48493W        W91410  32.552  11.096  24.425 -0.4817 -0.0174 -0.0943
48494W        W91411  31.908   8.829  26.049 -0.0139 -0.2296  0.0013
48495W        W91412   0.093  10.846  29.970 -0.2334  0.2303  0.0284
48496W        W91413   0.554   9.994  27.868  0.3172  0.0394 -0.1486
48497W        W91414  32.801  10.243  24.031  0.0029  0.0345 -0.2599
48498W        W91415  34.056   9.074  25.698  0.1982  0.2037 -0.4747
48499W        W91416   0.475   9.216  24.845  0.2841  0.0533 -0.1413
48500W        W91417  32.047   7.445  28.970  0.1104 -0.1042  0.0038
48501W        W91418  33.744   9.306  25.370 -0.0885  0.4304  0.2331
48502W        W91419  32.054   7.072  26.330 -0.0337  0.0503  0.0072
48503W        W91420  32.744   8.503  25.612 -0.2214 -0.1967  0.3909
48504W        W91421  33.287   9.406  27.609  0.1988  0.3941  0.0283
48505W        W91422   0.529   7.579  24.191  0.1418  0.2994 -0.0653
48506W        W91423  33.342   7.286  26.948  0.1029 -0.0420  0.0551
48507W        W91424  33.839   6.588  27.434  0.1722 -0.2308  0.2675
48508W        W91425  34.333   8.040  24.138  0.0587 -0.0089  0.0369
48509W        W91426   1.941  10.464  24.861  0.0203 -0.1143  0.0416
48510W        W91427  32.071   9.277  25.640  0.1853 -0.1709 -0.1508
48511W        W91428  31.378   6.818  25.586  0.1967  0.3003  0.3062
48512W        W91429  32.809   6.911  25.993  0.0208 -0.1382  0.1435
48513W        W91430  31.748  12.812  25.506 -0.0703  0.0765  0.0851
48514W        W91431  33.578  10.708  23.716 -0.0705 -0.0443 -0.1302
48515W        W91432  33.113   7.262  25.730 -0.1343 -0.0215 -0.0412
48516W        W91433   1.215   9.720  26.436  0.2999 -0.0104  0.0307
48517W        W91434  33.043   5.874  22.854  0.2142 -0.0195  0.2167
48518W        W91435  33.023   9.981  25.170  0.1095 -0.3893 -0.0418
48519W        W91436  30.177   8.245  26.284 -0.3319  0.1736 -0.0357
48520W        W91437  33.867  10.444  25.032 -0.1072  0.1543  0.3578
48521W        W91438  32.019   9.430  28.404 -0.2181 -0.2301  0.1034
48522W        W91439  34.238   6.633  25.711  0.1040 -0.0515  0.0967
48523W        W91440  32.364  10.375  28.896  0.1160  0.2058  0.1000
48524W        W91441  32.458   9.837  27.238 -0.1082 -0.1359  0.0006
48525W        W91442   0.729   7.680  26.198 -0.1589  0.3170 -0.1105
48526W        W91443   1.871  10.101  27.636 -0.2525 -0.2739 -0.1359
48527W        W91444  33.265   8.165  25.796  0.0088 -0.2723 -0.1875
48528W        W91445   1.152   5.093  26.342 -0.2363  0.3570  0.3213
48529W        W91446  33.476   8.574  24.446 -0.0051 -0.0055  0.1825
48530W        W91447  32.847  11.079  22.938 -0.2185  0.0762  0.2480
48531W        W91448  33.472   6.973  26.067 -0.3535 -0.1555  0.0845
48532W        W91449  32.610   8.244  24.620 -0.1174 -0.2213 -0.1033
48533W        W91450  31.776  10.051  25.301 -0.0322 -0.2092 -0.3109
48534W        W91451  33.579   9.105  27.001  0.0177 -0.2021  0.0995
48535W        W91452  32.586   9.446  25.328 -0.1115 -0.1013  0.0103
48536W        W91453  33.908   8.801  26.767  0.0167  0.0590  0.0137
48537W        W91454  31.846  10.834  24.344  0.1641  0.2411 -0.1032
48538W        W91455   1.114  11.291  23.388 -0.0090 -0.0591 -0.0524
48539W        W91456  33.173   6.538  25.866  0.1085  0.1622  0.1067
48540W        W91457  33.725   9.656  27.934 -0.1572 -0.3518  0.0867
48541W        W91458  33.414  10.347  23.333  0.1676 -0.0555 -0.1652
48542W        W91459  33.415  10.293  25.053  0.0876  0.0857 -0.1549
48543W        W91460   0.660   9.118  25.693 -0.1878 -0.2805 -0.2118
48544W        W91461   0.041  10.251  25.798 -0.4226  0.0464  0.0286
48545W        W91462  31.480   8.364  23.213  0.0197  0.0114 -0.1465
48546W        W91463  33.189   6.847  25.470  0.0631  0.1272 -0.1971
48547W        W91464  33.222   8.912  27.381 -0.2786 -0.1476  0.2090
48548W        W91465  32.621   9.353  26.375  0.3578 -0.0864  0.2200
48549W        W91466   0.348   9.074  27.881 -0.2256 -0.2192  0.0160
48550W        W91467  31.460   7.189  23.383  0.0666 -0.1149 -0.0593
48551W        W91468  34.464   8.861  25.931 -0.0072 -0.0173  0.0240
48552W        W91469  32.284   7.692  25.553  0.0401 -0.0136  0.1088
48553W        W91470  33.068   8.684  25.336 -0.1487  0.2426 -0.1601
48554W        W91471  32.517   8.923  26.578 -0.2796 -0.4012 -0.1059
48555W        W91472  33.074   9.272  26.108 -0.0769 -0.2823 -0.4764
48556W        W91473  33.571   8.608  27.076 -0.0866 -0.0207  0.0398
48557W        W91474   0.341   6.385  23.845 -0.0068  0.1516  0.1047
48558W        W91475  34.170   8.129  24.656 -0.0782 -0.3658 -0.4747
48559W        W91476   1.114   8.460  27.854  0.2221  0.1715 -0.2920
48560W        W91477  31.468  10.059  28.387 -0.1433 -0.3983 -0.0318
48561W        W91478  31.791   7.551  25.253 -0.0834 -0.0402  0.2668
48562W        W91479  32.414   8.164  25.679  0.4438  0.3101 -0.0563
48563W        W91480  32.270   9.302  23.847 -0.0020 -0.1220 -0.0005
48564W        W91481  34.094   7.734  26.678 -0.0212 -0.0961  0.3118
48565W        W91482  32.965  11.614  25.263  0.0061  0.1631  0.4705
48566W        W91483  33.503   9.437  24.863 -0.2473 -0.1350  0.0052
48567W        W91484  32.621  11.782  25.739 -0.5387  0.2869 -0.0654
48568W        W91485  33.868   7.307  26.783 -0.2155  0.0643  0.1243
48569W        W91486  31.970   6.369  26.171 -0.3729 -0.0278 -0.0278
48570W        W91487  31.967   6.017  26.558 -0.0696 -0.4572  0.0545
48571W        W91488   0.379   9.395  27.091 -0.0242  0.1175  0.1661
48572W        W91489   0.552   7.515  24.763  0.1199 -0.2586 -0.0293
48573W        W91490   1.062   7.662  27.203  0.0125  0.2589  0.1196
48574W        W91491   1.379   9.853  25.917  0.2190  0.1049  0.0728
48575W        W91492  34.552  10.690  26.959  0.5130 -0.1895 -0.0171
48576W        W91493   2.328  11.171  24.533 -0.0267 -0.0250  0.0671
48577W        W91494   0.998   9.593  27.164  0.1778  0.0514 -0.5869
48578W        W91495  33.939   7.453  25.631 -0.1733 -0.0473  0.1774
48579W        W91496  32.657   8.950  28.706  0.1040 -0.0812 -0.0657
48580W        W91497  31.682   7.463  26.233 -0.0310  0.1932 -0.0592
48581W        W91498  32.566   6.368  24.983 -0.0855 -0.1108 -0.0245
48582W        W91499  32.706   8.170  21.819  0.1345 -0.1452 -0.0865
48583W        W91500  34.296  10.250  25.606 -0.0201  0.0587 -0.0025
48584W        W91501  32.265   6.468  26.593  0.1232  0.0651 -0.0156
48585W        W91502  32.801  12.964  28.045  0.1457  0.0408 -0.5142
48586W        W91503  31.689   8.463  24.253  0.0207 -0.3291 -0.0621
48587W        W91504  34.172   8.979  23.185 -0.1104  0.4781  0.3535
48588W        W91505   0.927  10.800  26.915 -0.1083 -0.2436 -0.1079
48589W        W91506  33.741   8.066  26.007 -0.2063  0.1753 -0.0682
48590W        W91507  33.160  10.409  24.643 -0.0376 -0.1316  0.0171
48591W        W91508   0.676   9.730  25.864 -0.1773  0.2934 -0.1692
48592W        W91509  34.358   7.255  28.133 -0.1858 -0.0479 -0.0864
48593W        W91510  32.552  10.096  25.201 -0.2331 -0.2355 -0.0379
48594W        W91511   0.355  10.936  24.749  0.0314 -0.0928 -0.3643
48595W        W91512  31.874   9.279  25.110 -0.2558 -0.0584  0.3503
48596W        W91513  33.556   9.641  24.307  0.2134  0.1360 -0.0084
48597W        W91514  32.522   8.518  26.848 -0.1228 -0.1838  0.0322
48598W        W91515  32.921   9.682  23.163 -0.0198  0.1420 -0.1104
48599W        W91516  31.238   9.007  25.966  0.0436 -0.1043 -0.1150
48600W        W91517  32.166   9.177  26.318  0.0616 -0.3246  0.1371
48601W        W91518  34.027   9.829  24.240 -0.0330 -0.0145 -0.6233
48602W        W91519  34.210   7.527  24.159  0.2486 -0.0187 -0.3709
48603W        W91520  34.187   9.505  23.654  0.0247 -0.2852 -0.3709
48604W        W91521  33.576  11.271  24.123  0.1256 -0.5708  0.0907
48605W        W91522  33.131  10.736  25.081 -0.2336 -0.0435  0.0922
48606W        W91523   0.489   8.499  24.328 -0.0590  0.1976  0.2731
48607W        W91524  34.410   7.018  24.474  0.2408  0.0293 -0.1570
48608W        W91525  32.267   8.129  26.654  0.0306 -0.0310  0.1103
48609W        W91526  31.797   9.155  27.900 -0.0790 -0.0596  0.1180
48610W        W91527  34.006   6.983  25.939 -0.0061 -0.0933 -0.3988
48611W        W91528  32.954   7.382  24.711 -0.2434  0.3272  0.1278
48612W        W91529   1.326  10.379  24.579  0.2038  0.3121 -0.0688
48613W        W91530  33.166  10.815  25.955 -0.2687 -0.3201  0.0899
48614W        W91531  34.661   8.146  26.951  0.0461 -0.0463 -0.1220
48615W        W91532   0.326  10.020  25.472 -0.0099 -0.1655 -0.1312
48616W        W91533   0.207   7.109  24.218  0.1362  0.0020  0.1933
48617W        W91534  34.310   8.183  26.563  0.1669  0.2887 -0.1439
48618W        W91535  32.946   6.750  27.368 -0.2782  0.0927  0.3810
48619W        W91536  31.801   8.587  28.093 -0.1376  0.1296  0.0031
48620W        W91537   0.010   7.569  24.045 -0.2957  0.3881 -0.2330
48621W        W91538  32.407   6.607  24.427 -0.0337 -0.2132  0.1984
48622W        W91539  32.061   8.765  24.289 -0.1116  0.1070 -0.0942
48623W        W91540   0.344   8.049  25.643 -0.1032  0.2611 -0.1574
48624W        W91541  31.646   6.785  24.485 -0.2942 -0.1904 -0.0292
48625W        W91542   1.160   9.857  24.455  0.0368 -0.3554 -0.1745
48626W        W91543  31.688   7.454  26.939 -0.0974 -0.2477 -0.2572
48627W        W91544  34.628   6.868  25.317 -0.0253  0.3682  0.1313
48628W        W91545  32.581   6.909  26.949  0.2141 -0.2991  0.0602
48629W        W91546  31.160  11.403  24.508  0.1331  0.3764 -0.2534
48630W        W91547   0.536  11.108  24.256 -0.0846 -0.1191 -0.1252
48631W        W91548   0.807   8.152  27.116 -0.1443 -0.0159 -0.1272
48632W        W91549  33.786  10.279  29.129 -0.1812  0.0537  0.0756
48633W        W91550  31.679   7.946  23.066 -0.3785 -0.0313 -0.0607
48634W        W91551   0.911   9.702  27.678  0.2346  0.5492  0.4527
48635W        W91552  33.538  12.207  24.339  0.2632 -0.1594  0.1998
48636W        W91553  33.043   9.504  25.472  0.1069  0.1543  0.1311
48637W        W91554  34.636   8.325  25.601 -0.1042 -0.1743 -0.3398
48638W        W91555   0.672   8.504  26.323  0.1280  0.1246 -0.1843
48639W        W91556   0.122   7.300  26.899 -0.1034 -0.0345  0.1641
48640W        W91557  33.662   6.681  25.724  0.2783 -0.2918  0.6246
48641W        W91558  31.442   8.531  23.800 -0.2348  0.0102  0.0372
48642W        W91559  33.293   9.869  24.728  0.0183  0.2347  0.2967
48643W        W91560  32.989   8.582  27.747  0.0870 -0.1874  0.5563
48644W        W91561  31.661   7.281  24.747 -0.2142  0.0929 -0.1651
48645W        W91562  30.674   8.348  28.055 -0.0613  0.0335  0.1430
48646W        W91563  31.885   7.508  23.137  0.3015 -0.3456  0.1190
48647W        W91564  33.888   6.428  25.361  0.2017  0.2572  0.0271
48648W        W91565  31.803   6.879  25.314  0.0792 -0.0072  0.0268
48649W        W91566  33.459   7.156  24.645 -0.1691 -0.0521  0.0263
48650W        W91567  32.944  10.272  23.118  0.0523  0.1572  0.0496
48651W        W91568   0.135   8.568  27.195 -0.0175  0.3039  0.3335
48652W        W91569   0.821   7.959  25.573  0.0445  0.0092 -0.3343
48653W        W91570  31.776   7.583  23.815  0.1498 -0.1050 -0.0127
48654W        W91571  34.495   7.193  24.964  0.3105  0.0985  0.3973
48655W        W91572   0.890   9.004  27.006  0.2052  0.2656  0.0755
48656W        W91573   0.723   9.366  26.150  0.0808  0.0155 -0.0252
48657W        W91574  32.915   6.231  25.344  0.1740  0.0569  0.0010
48658W        W91575  34.640   9.750  25.600 -0.1692 -0.0029 -0.0661
48659W        W91576  33.203   7.881  26.219  0.2812 -0.1446  0.0151
48660W        W91577  32.155   8.209  28.173 -0.0196 -0.1781  0.3331
48661W        W91578  32.494   7.402  24.476  0.2314 -0.1170 -0.0799
48662W        W91579  33.899  10.001  26.013 -0.5125  0.1275 -0.1129
48663W        W91580  34.242   7.959  27.140 -0.0839 -0.1265 -0.2131
48664W        W91581  34.555   8.804  28.693  0.3147 -0.0441 -0.1393
48665W        W91582   0.566   7.913  24.512  0.1476  0.1682 -0.0449
48666W        W91583   1.699   9.970  27.007 -0.1428  0.3904 -0.0091
48667W        W91584  33.779   5.594  23.434  0.2368 -0.0513  0.0547
48668W        W91585  33.575   7.788  25.436  0.1426 -0.0100  0.0277
48669W        W91586  33.733   9.245  26.508 -0.2511  0.3619  0.0867
48670W        W91587  33.022   7.103  26.592 -0.0183  0.0685  0.2436
48671W        W91588  34.587  10.699  26.309 -0.4826  0.0510 -0.0876
48672W        W91589  34.060  10.506  29.666 -0.1965 -0.1840  0.1997
48673W        W91590  33.382   9.828  29.257 -0.2283 -0.1136  0.2789
48674W        W91591  33.421   7.854  30.270  0.0711  0.2999  0.0834
48675W        W91592  33.562   8.406  31.296  0.0735  0.2892 -0.0785
48676W        W91593   0.983   7.107  31.698 -0.0982  0.0737 -0.1014
48677W        W91594  32.367   9.610  29.448  0.0593 -0.4441 -0.2763
48678W        W91595  33.694   9.434  28.511 -0.3183  0.0574 -0.3838
48679W        W91596  33.977   9.231   0.299 -0.1804 -0.3097 -0.1260
48680W        W91597  32.818  11.193  29.841  0.1098  0.1093  0.1102
48681W        W91598  33.391   9.564  31.141  0.4207 -0.1251  0.1204
48682W        W91599   0.214   8.537  28.923  0.0696 -0.1465 -0.0698
48683W        W91600  32.912   6.080  31.725  0.2952 -0.1574  0.0348
48684W        W91601   2.105   9.688  29.698 -0.0371 -0.2761  0.0582
48685W        W91602  32.144   8.728  30.009  0.1416 -0.1602  0.0386
48686W        W91603  33.059   8.968  30.057 -0.0732 -0.4327  0.0215
48687W        W91604  33.207   6.871  30.366  0.0293  0.2832 -0.0997
48688W        W91605   1.575  11.847  28.969 -0.3722 -0.3629 -0.0838
48689W        W91606   1.060  11.346  29.183 -0.1808  0.2761  0.1968
48690W        W91607  34.640   9.954  31.466 -0.3144  0.1470  0.1764
48691W        W91608  33.974  11.001  28.695 -0.0594  0.2670 -0.1490
48692W        W91609   0.729   9.985  28.533  0.3918 -0.1603  0.2971
48693W        W91610  33.786  11.572  29.829 -0.1998  0.1451 -0.3133
48694W        W91611  32.842   9.822  29.057 -0.0910  0.2498 -0.2655
48695W        W91612   0.234  10.117  29.484  0.2127 -0.1557 -0.2010
48696W        W91613   1.730   9.257  28.246 -0.2525 -0.1330  0.0475
48697W        W91614   0.349   9.532  27.593  0.1441 -0.0611 -0.1478
48698W        W91615  33.535  10.191  30.293  0.1113 -0.0174  0.1057
48699W        W91616  33.900  12.268  29.724  0.2295  0.0814 -0.2710
48700W        W91617  32.735   9.823  28.423  0.1935  0.0517 -0.2507
48701W        W91618  32.765   8.101  26.968  0.0409 -0.1709  0.0695
48702W        W91619   0.474   7.548  30.885  0.0089 -0.2165 -0.1592
48703W        W91620   0.440  10.835  28.904 -0.0056  0.3778  0.0423
48704W        W91621  34.291   7.648  31.738  0.0087  0.0924 -0.0761
48705W        W91622  31.882   9.513  30.821 -0.0567 -0.0691  0.0481
48706W        W91623  32.221   8.149  29.480  0.2829  0.3047  0.0290
48707W        W91624  34.507   9.555  30.745 -0.0458 -0.3747 -0.0047
48708W        W91625  31.578  10.339  30.385  0.5288  0.1886 -0.1508
48709W        W91626  31.379   9.659  30.786 -0.2977  0.3653  0.1164
48710W        W91627  33.227   7.687  27.233 -0.1477  0.0717  0.0270
48711W        W91628  30.904  10.449  30.978  0.2017  0.2539 -0.0413
48712W        W91629   1.451   7.987  31.526 -0.2800  0.2876  0.0721
48713W        W91630  32.231   8.841  27.120 -0.1405 -0.2135  0.2655
48714W        W91631  32.393  10.175  27.598  0.0163 -0.0782 -0.3483
48715W        W91632  34.032  11.756  29.188  0.0577 -0.1298 -0.0628
48716W        W91633  33.746   8.730  31.883 -0.0897  0.3319 -0.1985
48717W        W91634   0.087  11.794  29.386  0.2050 -0.0198 -0.3059
48718W        W91635  30.758  11.609  27.754  0.1184 -0.0480  0.1043
48719W        W91636  34.397  11.120  28.465  0.2032 -0.0226 -0.1669
48720W        W91637  32.483   8.543  28.020  0.2461  0.0340  0.2077
48721W        W91638  32.762   6.552  30.652  0.2304 -0.0927  0.2474
48722W        W91639  33.708  11.223  29.065 -0.2267 -0.0865 -0.2582
48723W        W91640  33.783   7.845  31.030  0.2266 -0.1683  0.3143
48724W        W91641  33.197   8.997  27.906 -0.3123 -0.0833 -0.2230
48725W        W91642  33.808   9.781  30.440 -0.1401  0.0644 -0.0368
48726W        W91643  33.855   8.935  30.333  0.4840  0.0680 -0.2321
48727W        W91644  33.046   8.819   0.717  0.0305  0.1468  0.1514
48728W        W91645   0.822   7.728  30.610  0.0969 -0.0857  0.2533
48729W        W91646  32.850  11.200  29.302  0.0074  0.2237 -0.1947
48730W        W91647  34.397   8.655  30.261  0.4929 -0.1424 -0.2141
48731W        W91648  33.330   9.922  29.784 -0.1388  0.2753 -0.1740
48732W        W91649  32.997   7.337  31.154  0.0039  0.1558 -0.1281
48733W        W91650  33.104   8.820  28.932  0.2004 -0.1283  0.0230
48734W        W91651  33.436  13.818  27.223 -0.1737  0.0105 -0.2861
48735W        W91652  33.563   8.986  28.651  0.0346 -0.0219 -0.1340
48736W        W91653  32.959   7.870  30.012  0.2775 -0.1041  0.2309
48737W        W91654  33.417  10.452  30.762  0.1895  0.1107  0.4127
48738W        W91655  34.327   8.653  29.137  0.3104 -0.0428 -0.0526
48739W        W91656  34.066   8.973  26.175  0.4406  0.2192 -0.1850
48740W        W91657  33.522   8.171  28.935  0.0414  0.2584  0.2044
48741W        W91658   1.612  10.929  29.042  0.1214 -0.0080  0.5068
48742W        W91659  29.797   9.112  30.515 -0.0620  0.1227  0.3146
48743W        W91660  33.296   9.702  30.215  0.0258  0.1998 -0.0819
48744W        W91661  32.066  11.378  28.718  0.0543  0.0487 -0.0134
48745W        W91662  33.299  12.265  29.777  0.1383 -0.0939 -0.0786
48746W        W91663   0.681   9.496  28.511  0.0721  0.0438 -0.3896
48747W        W91664  34.107   8.924  30.869 -0.0098 -0.2719 -0.2133
48748W        W91665   1.497   9.714  28.422 -0.2063 -0.0911  0.0641
48749W        W91666  33.940   5.565  30.616 -0.4256  0.0449  0.1174
48750W        W91667  34.274   9.180  27.588 -0.0736 -0.1429 -0.2643
48751W        W91668  32.109  12.014  27.673 -0.0562  0.0241  0.2466
48752W        W91669  34.615   6.988  30.845  0.0214 -0.0594  0.0631
48753W        W91670  33.881   8.893  27.353  0.0008  0.1397  0.1924
48754W        W91671   0.548   6.442  30.358  0.0220  0.2101  0.0213
48755W        W91672  33.386   9.444   1.997  0.1435 -0.1741  0.1625
48756W        W91673  33.523  12.600  31.177 -0.0454  0.1699  0.1473
48757W        W91674   0.246  10.435  31.224  0.0020  0.1499 -0.1999
48758W        W91675  34.083   8.973  28.347 -0.1880 -0.2384 -0.1436
48759W        W91676  33.740  10.112  26.988  0.2665 -0.1511  0.2390
48760W        W91677  34.199   7.521  30.332  0.2771 -0.3011 -0.2235
48761W        W91678   0.232  10.039  30.000  0.2829 -0.0756  0.0662
48762W        W91679  32.830   9.436  28.036 -0.2913  0.2439 -0.3084
48763W        W91680  33.564  10.779  29.408 -0.0493 -0.0678 -0.2805
48764W        W91681  33.102  11.945  29.197  0.0311 -0.0289 -0.0429
48765W        W91682  33.081  10.949  31.596 -0.0229 -0.1434  0.1085
48766W        W91683  32.424   9.748  29.967  0.1461 -0.1655 -0.1603
48767W        W91684  34.007   8.630  28.690 -0.0241 -0.1387 -0.0221
48768W        W91685  33.852   7.987  30.384 -0.0674  0.0778  0.1067
48769W        W91686  34.496  10.804  29.467  0.0102  0.3444  0.1789
48770W        W91687   0.006   9.512  31.238  0.0563  0.0934  0.1473
48771W        W91688  33.733   8.679  28.109 -0.0941 -0.0585  0.2987
48772W        W91689  33.979   8.318  29.092  0.0187  0.2209  0.0634
48773W        W91690  31.836  11.195  30.243  0.0929 -0.0725  0.1649
48774W        W91691  32.064   9.789  27.621 -0.1231 -0.2157 -0.0208
48775W        W91692  32.765  10.340  28.520 -0.3526 -0.0284  0.2670
48776W        W91693   1.345  11.134  30.706  0.0757 -0.2264 -0.1737
48777W        W91694  33.541   8.826  29.961 -0.1032  0.2061  0.2201
48778W        W91695  33.477   7.916  31.524  0.0909  0.1249 -0.0168
48779W        W91696  32.498  10.100  29.253  0.2349  0.1759 -0.0271
48780W        W91697   0.708  11.827  31.358  0.1277  0.1111  0.1514
48781W        W91698   0.072   8.961  30.963 -0.0352 -0.0956 -0.0349
48782W        W91699  33.747   9.896  28.816 -0.2881  0.0741 -0.0263
48783W        W91700  34.443  10.052  29.783 -0.2364  0.0987 -0.2793
48784W        W91701  32.873  10.712  29.575  0.3699 -0.3357 -0.0829
48785W        W91702  33.838   9.302  31.196  0.1612  0.1427  0.3455
48786W        W91703  32.118  11.886  29.404  0.2089  0.0762  0.0439
48787W        W91704   1.030   8.680  27.341  0.0530  0.0503  0.3227
48788W        W91705  34.276  12.310  29.362 -0.0132 -0.2593 -0.0071
48789W        W91706  34.051   8.397  30.032 -0.1925 -0.0239  0.0179
48790W        W91707  33.137   8.981  31.005  0.0357 -0.2159  0.2855
48791W        W91708  31.938  10.881  29.854  0.0093  0.0921  0.1219
48792W        W91709  33.048   9.963  31.156 -0.2189  0.1156  0.3838
48793W        W91710  34.642   8.280  28.514 -0.1645  0.0634  0.0894
48794W        W91711  33.337   8.164  29.762 -0.0809  0.0196 -0.1715
48795W        W91712  33.600  10.450  29.886 -0.2523 -0.0772  0.0229
48796W        W91713  32.243   8.734   0.746 -0.0794 -0.1607 -0.1931
48797W        W91714  32.819   8.285  26.044 -0.0866 -0.1000  0.2993
48798W        W91715  34.387  10.269  29.371  0.0853  0.1844 -0.0081
48799W        W91716  33.815   7.548  31.587  0.0137  0.1068  0.0513
48800W        W91717  33.228  10.542  31.897  0.0423 -0.0265  0.1702
48801W        W91718  33.190   8.066  31.119 -0.3043 -0.1568  0.2497
48802W        W91719  31.756   8.729  29.644 -0.0694  0.0236  0.1640
48803W        W91720  34.108   8.666  27.827 -0.2029 -0.2658  0.2432
48804W        W91721   1.268  10.767  27.259 -0.2434 -0.3088 -0.1777
48805W        W91722  32.465   9.003  30.253  0.0477 -0.3964  0.2608
48806W        W91723  30.924  10.653  31.818 -0.0874 -0.2095  0.0410
48807W        W91724  33.190  10.545  28.013  0.2149 -0.0301  0.0500
48808W        W91725  34.230  10.436  27.803 -0.0008 -0.2849  0.2426
48809W        W91726   1.783   9.480  30.177 -0.2440  0.1154  0.2458
48810W        W91727   1.620   6.842  29.848  0.0407  0.0296  0.3370
48811W        W91728  31.619  10.593  29.105  0.4240  0.0642 -0.1048
48812W        W91729  31.977  13.083  30.750 -0.0197 -0.0231 -0.2980
48813W        W91730  31.603  11.601  29.557 -0.3102  0.0544  0.1122
48814W        W91731  34.116   9.081  28.859  0.2824  0.0930  0.2790
48815W        W91732  34.630   9.913  29.144 -0.3149  0.0441  0.3407
48816W        W91733  34.452   8.484  30.777  0.2051  0.3750  0.0273
48817W        W91734  34.484  11.188  27.059 -0.0496  0.0055 -0.3259
48818W        W91735  33.529   8.774   0.843 -0.1507 -0.1759  0.0708
48819W        W91736  34.198   7.890  28.121 -0.1562 -0.1910  0.2288
48820W        W91737  32.425  12.336  30.247  0.0435  0.0698 -0.0905
48821W        W91738  32.391  10.206  30.335  0.0945  0.0848 -0.0635
48822W        W91739   0.312  12.162  28.279  0.1067 -0.1691  0.2989
48823W        W91740  33.413   6.667  27.693 -0.0639  0.3403  0.0852
48824W        W91741  31.718  10.988  28.705  0.0839 -0.1288 -0.2159
48825W        W91742  32.207   8.932  27.682 -0.4025  0.1400  0.2301
48826W        W91743  33.768  11.476  27.226 -0.0912  0.3684 -0.5269
48827W        W91744  34.086   9.385  30.196  0.2042 -0.0027  0.1001
48828W        W91745  33.109   8.039  27.744  0.0406 -0.2838  0.0556
48829W        W91746  34.381   8.042  31.052  0.1712  0.1017  0.1842
48830W        W91747  32.818  11.505  30.194  0.0264 -0.0943 -0.2368
48831W        W91748  32.890   6.922  29.661 -0.0607  0.0138 -0.2357
48832W        W91749  34.172   9.613  28.424  0.2838 -0.0536  0.1325
48833W        W91750   0.444   8.913  26.554  0.3572 -0.2248 -0.4424
48834W        W91751   0.651  10.466  29.255 -0.1856  0.0767  0.0231
48835W        W91752  32.475  11.304  29.021  0.1074 -0.0567 -0.4787
48836W        W91753   0.012  11.359  29.864  0.2276 -0.2376 -0.0904
48837W        W91754  32.423   8.473  26.238  0.1514 -0.1333  0.2606
48838W        W91755  34.340   9.122  31.323 -0.1550 -0.1644 -0.1221
48839W        W91756  33.273  10.313  29.401 -0.0758 -0.2286 -0.1209
48840W        W91757  32.503   8.823  31.565 -0.0821 -0.2843 -0.0626
48841W        W91758   0.957   7.472  29.622  0.1225 -0.0065 -0.0325
48842W        W91759  31.852   8.067  31.858 -0.0554  0.0057 -0.2764
48843W        W91760  32.594   9.768  31.301 -0.1426  0.0689 -0.2997
48844W        W91761   1.006   6.901  31.064  0.1102 -0.3515 -0.0354
48845W        W91762  32.697   8.200  29.700  0.0101 -0.3441 -0.0356
48846W        W91763  34.365  11.373  28.015 -0.3459  0.0901 -0.2516
48847W        W91764  33.542   9.543   0.085 -0.1322 -0.1610  0.3894
48848W        W91765   1.554   7.658  29.173  0.0599  0.1469 -0.2447
48849W        W91766  33.874   7.073  29.867 -0.0889  0.0823 -0.2535
48850W        W91767  33.970   7.539  27.880 -0.1719  0.0658 -0.0359
48851W        W91768  33.418   8.457  26.247 -0.0183  0.1545 -0.6293
48852W        W91769   1.052  10.006  30.005 -0.1945 -0.0870  0.1084
48853W        W91770  32.577  10.704  30.012 -0.0535  0.2823  0.3293
48854W        W91771   0.246   9.441  29.151  0.2352 -0.1437  0.0972
48855W        W91772   0.245   8.759  30.488 -0.1897  0.0927  0.1892
48856W        W91773   0.718   9.910  29.423 -0.0598  0.0613 -0.0065
48857W        W91774   0.490  11.131  28.468  0.1401  0.0176 -0.0261
48858W        W91775  33.735   9.306  29.663 -0.0689  0.2214 -0.1082
48859W        W91776   1.406   7.291  29.449 -0.2119 -0.1630 -0.2354
48860W        W91777   0.569   8.954  30.770  0.0982 -0.1145 -0.3275
48861W        W91778  32.740   6.519  26.649  0.3898 -0.2142  0.0983
48862W        W91779  32.330   9.391  27.882 -0.4909 -0.1925  0.0432
48863W        W91780  34.203   9.788  28.926  0.2254  0.0314  0.1774
48864W        W91781   0.487   6.754  29.471 -0.0508 -0.1689 -0.0993
48865W        W91782  34.088  10.205  30.154 -0.1096 -0.0003 -0.1761
48866W        W91783  32.730   9.353  29.090  0.1743  0.2002  0.0750
48867W        W91784  33.351   8.391  28.111 -0.0759  0.0954 -0.1629
48868W        W91785   0.036   7.741  30.372  0.2863 -0.0211 -0.2418
48869W        W91786  33.029   6.632  31.125  0.2311  0.0585  0.3762
48870W        W91787   1.731   7.826  28.352 -0.1652  0.0888 -0.2902
48871W        W91788   0.182  10.232  26.364  0.0460 -0.1489  0.0594
48872W        W91789  33.357   7.639  29.795 -0.0967 -0.1539  0.0172
48873W        W91790  33.641   7.580  30.588  0.0469 -0.3592 -0.0075
48874W        W91791  34.367   5.442  27.167  0.2586 -0.1772  0.2742
48875W        W91792  33.441   9.427  30.652 -0.1553 -0.5115 -0.2936
48876W        W91793  32.996   9.575  31.461 -0.2502 -0.1611 -0.0816
48877W        W91794  34.314  12.875  29.197 -0.2823 -0.3322  0.2215
48878W        W91795  31.267   6.180  30.559 -0.3297 -0.1771 -0.0691
48879W        W91796   0.354   9.207  29.590 -0.2030 -0.0985 -0.0557
48880W        W91797  32.600   6.872  31.110 -0.1662 -0.0763  0.0452
48881W        W91798  32.197  10.706  30.362 -0.1412  0.1426 -0.0888
48882W        W91799   0.780   7.858  29.341 -0.1791 -0.1928  0.0139
48883W        W91800  32.518  11.228  30.555 -0.0505 -0.0184 -0.1234
48884W        W91801  33.886   8.260  26.843 -0.4096  0.1638  0.2497
48885W        W91802  34.346  10.002  30.540  0.1739 -0.1966  0.1637
48886W        W91803  34.354   9.676  27.441  0.0896 -0.0231 -0.3144
48887W        W91804   2.396  12.797  29.498  0.1680  0.0601 -0.0373
48888W        W91805  32.143   6.164  29.296 -0.1160  0.0964  0.0671
48889W        W91806  33.174   8.421  29.265 -0.0491 -0.0332 -0.0590
48890W        W91807  33.265  10.181  28.930 -0.5267  0.0829  0.1856
48891W        W91808  32.254   9.151  29.212 -0.0069  0.2595  0.3632
48892W        W91809   0.336  10.800  29.530 -0.0064  0.1220  0.0624
48893W        W91810  33.314   7.782   0.086 -0.2367 -0.2330 -0.1269
48894W        W91811  32.331  11.278  31.104 -0.1521  0.1952  0.2630
48895W        W91812   1.568  10.813  31.221  0.0624  0.4648  0.0344
48896W        W91813  32.844  11.556  28.902 -0.1241 -0.2878  0.2614
48897W        W91814   0.523   7.302   0.382  0.0040  0.0571 -0.0872
48898W        W91815  33.313   6.009  29.916 -0.1691  0.1003  0.1061
48899W        W91816   0.543   7.862   0.098  0.2656  0.2889 -0.2851
48900W        W91817  31.560  11.578  30.085  0.1031 -0.1885  0.1949
48901W        W91818  34.173   7.643  31.233  0.2280 -0.0156 -0.1611
48902W        W91819  33.458   8.591   0.402 -0.2182 -0.0323  0.0132
48903W        W91820  33.729   6.540   0.558 -0.0759  0.0928  0.1405
48904W        W91821  32.749   7.039   0.206 -0.2120  0.0471 -0.0720
48905W        W91822  34.042  10.216  31.409 -0.0035 -0.1129  0.1212
48906W        W91823   0.176   9.916  30.485 -0.0828 -0.0271  0.0967
48907W        W91824  31.702  10.375  31.389  0.0189 -0.3335 -0.0633
48908W        W91825  32.629   8.655   1.030 -0.1755 -0.1343  0.1694
48909W        W91826  32.798   9.453  30.024  0.1353 -0.1624 -0.2703
48910W        W91827  32.422   9.367   0.289  0.3666 -0.1378  0.1560
48911W        W91828   1.802   6.683  29.132 -0.0977 -0.1699 -0.1554
48912W        W91829  32.376   9.778  30.570  0.0162  0.3020  0.0778
48913W        W91830   1.795   9.521  31.064 -0.1624 -0.2460 -0.0851
48914W        W91831  33.583  10.374  31.216 -0.0883  0.2594 -0.1181
48915W        W91832  33.659  11.667  31.295  0.0238 -0.1827  0.0767
48916W        W91833  34.349  10.886  30.978  0.0551  0.3016  0.1092
48917W        W91834   0.764  11.024  31.493  0.1691 -0.0643  0.1265
48918W        W91835  31.508   9.144  30.645  0.0527  0.3620  0.1151
48919W        W91836   0.315  11.238  30.267  0.1861  0.2081  0.1340
48920W        W91837   0.712   9.209  31.700  0.2396  0.0408  0.2475
48921W        W91838  33.918   9.731   1.025  0.0257 -0.0438  0.1508
48922W        W91839  32.946  10.267  30.520  0.2054  0.1137  0.3811
48923W        W91840  34.335  11.160  31.371  0.1792 -0.0691 -0.0199
48924W        W91841  33.888   8.807  31.359 -0.1088 -0.1685  0.0423
48925W        W91842   1.590  12.257  30.958  0.1034  0.1160 -0.0988
48926W        W91843   0.552   9.614  30.749  0.2073  0.1515  0.2647
48927W        W91844  32.244   8.870   0.051 -0.1874  0.1598 -0.0012
48928W        W91845  33.606   8.282   0.979  0.1000  0.1015 -0.0503
48929W        W91846  32.936   9.053  31.521 -0.1263 -0.2140  0.2098
48930W        W91847  32.564  10.333  31.300  0.0638  0.1749  0.1671
48931W        W91848  33.669   7.067  30.356 -0.2691  0.0663 -0.2696
48932W        W91849  31.208  14.365  19.662  0.0060  0.0133 -0.2192
48933W        W91850  32.727  14.167  19.394  0.0614  0.1186  0.5883
48934W        W91851  31.971  10.988  17.334  0.0832  0.0012  0.0704
48935W        W91852  32.604  10.196  18.250 -0.0850  0.2785  0.0353
48936W        W91853   0.111  11.864  20.156  0.0751  0.1094 -0.3267
48937W        W91854  33.754  13.293  17.875  0.2157  0.0891  0.0473
48938W        W91855  32.815  10.231  16.939  0.3330 -0.0050 -0.1238
48939W        W91856  31.327  10.442  17.787 -0.1203  0.1219 -0.3478
48940W        W91857  30.993  12.415  17.508  0.1071 -0.3487  0.2003
48941W        W91858  33.712  11.050  22.155  0.0864  0.0282  0.0785
48942W        W91859  32.381  11.931  17.689  0.0443 -0.0152  0.2580
48943W        W91860  32.600  10.724  20.474  0.0733  0.2488  0.0926
48944W        W91861  34.647  14.915  17.403  0.0569  0.2869  0.0042
48945W        W91862  34.117  10.610  16.624 -0.1558  0.1892 -0.0054
48946W        W91863  33.722  11.945  17.958  0.2005  0.0631  0.1661
48947W        W91864  34.120   8.758  20.677  0.1595 -0.1404  0.0302
48948W        W91865  33.803  14.143  17.688  0.3217  0.3588  0.0847
48949W        W91866  34.349  12.889  18.298 -0.1009 -0.0731  0.1497
48950W        W91867  32.461  13.454  18.300 -0.2041 -0.0336 -0.2168
48951W        W91868  31.500  14.366  17.849 -0.0312 -0.2477 -0.0956
48952W        W91869  33.790  11.938  19.826 -0.0461  0.1104  0.0255
48953W        W91870  33.873  14.518  18.972  0.0338 -0.1236 -0.3108
48954W        W91871  32.474  14.032  17.317 -0.0989  0.1333  0.1738
48955W        W91872  34.068  14.171  20.557  0.1971  0.1197  0.2216
48956W        W91873   0.049  14.266  18.293 -0.1814  0.2018  0.0573
48957W        W91874   0.384  14.146  18.730 -0.0742 -0.1377 -0.0654
48958W        W91875  33.815  12.597  19.222 -0.4743  0.2572  0.3114
48959W        W91876  32.807  12.884  20.521  0.0227  0.0600 -0.0754
48960W        W91877  32.603  15.226  16.439  0.1953 -0.1202 -0.2089
48961W        W91878  33.254  11.309  18.334 -0.0472  0.0631  0.0977
48962W        W91879  32.849  12.246  17.469 -0.0469 -0.1565  0.1561
48963W        W91880  31.767  14.515  17.477  0.2659 -0.2026  0.2650
48964W        W91881  33.937   7.073  17.639 -0.2310 -0.0385  0.1269
48965W        W91882  33.061  12.619  20.221  0.0263  0.1446 -0.3136
48966W        W91883  33.649  10.296  19.731 -0.3164 -0.0974 -0.2135
48967W        W91884  33.946  12.727  18.764 -0.0284  0.2609  0.4392
48968W        W91885  32.981  13.489  20.610 -0.2852  0.2948  0.2253
48969W        W91886  31.623  10.767  19.646 -0.0861 -0.1957 -0.4914
48970W        W91887  33.593   8.501  17.616 -0.2574  0.1961 -0.0713
48971W        W91888  31.278  15.228  21.761 -0.1249 -0.1291 -0.1700
48972W        W91889  34.232  14.022  18.182 -0.0759  0.1662 -0.1757
48973W        W91890  33.444  11.683  20.281 -0.0822 -0.2001 -0.0877
48974W        W91891  33.652  11.865  17.052 -0.0669 -0.0831  0.0637
48975W        W91892  33.776  14.975  18.083 -0.2413 -0.0410 -0.0114
48976W        W91893  32.837  11.419  19.471  0.0847  0.0509 -0.0643
48977W        W91894  33.951  13.395  20.163 -0.0309  0.0494 -0.0620
48978W        W91895  31.292  16.129  17.554 -0.1125 -0.1363  0.2750
48979W        W91896  31.671  12.195  19.044 -0.1865 -0.2232 -0.4295
48980W        W91897  33.145  11.818  16.839  0.1492 -0.0539  0.2093
48981W        W91898  34.421  11.408  19.184 -0.0013 -0.2516  0.0846
48982W        W91899  33.381  12.837  17.898 -0.1006  0.2961  0.0305
48983W        W91900  32.046  10.664  18.436 -0.1990  0.1228  0.3657
48984W        W91901  34.640  13.391  18.953 -0.3556 -0.0258  0.2455
48985W        W91902  31.716  11.294  19.438 -0.0419  0.0298 -0.0871
48986W        W91903  32.160  10.517  20.303  0.1616 -0.0538 -0.2633
48987W        W91904  33.020  13.164  20.178 -0.1739  0.0048 -0.2651
48988W        W91905  33.508  10.972  18.788  0.1106 -0.0115  0.0564
48989W        W91906  34.523  10.578  17.175 -0.0712 -0.2094  0.1476
48990W        W91907  32.104  10.875  17.882 -0.0170 -0.0039 -0.4705
48991W        W91908  32.384  11.493  18.717 -0.3356  0.1508  0.3459
48992W        W91909  33.419   8.728  23.569 -0.1633 -0.0756 -0.1393
48993W        W91910  31.930  12.521  17.211 -0.1733 -0.0670  0.1156
48994W        W91911  33.452  16.259  19.516  0.3041  0.3019 -0.0372
48995W        W91912   0.383  14.163  19.274 -0.0296 -0.0671  0.1956
48996W        W91913   1.071  11.537  20.526 -0.1359 -0.1321 -0.0858
48997W        W91914  32.610  11.986  21.140  0.0250  0.2305 -0.1488
48998W        W91915   0.879  10.715  17.146  0.1051  0.1482 -0.1771
48999W        W91916  32.686  14.574  17.419  0.0675 -0.0459 -0.0417
49000W        W91917  32.623  12.250  17.960  0.0284  0.1341  0.0787
49001W        W91918  32.713  13.756  17.652  0.0678 -0.0311 -0.0073
49002W        W91919  32.042  11.834  19.771 -0.1622  0.2983 -0.1941
49003W        W91920  32.150  12.366  17.683 -0.1366  0.1542  0.1614
49004W        W91921  34.626  11.968  20.901 -0.2238  0.4636  0.1994
49005W        W91922  31.591  13.130  20.438 -0.0752  0.0616 -0.0356
49006W        W91923   0.633  14.991  18.728 -0.0919 -0.1043  0.1209
49007W        W91924   0.215  12.940  18.674 -0.2298  0.0327 -0.3820
49008W        W91925  31.167  12.550  18.960 -0.0429  0.1581 -0.3665
49009W        W91926  33.705  10.661  19.118  0.0351 -0.1034  0.0115
49010W        W91927  33.237  12.200  17.787  0.2770  0.3509 -0.0923
49011W        W91928  30.730  14.767  16.794  0.0834 -0.1263  0.0236
49012W        W91929  34.194  11.698  20.662 -0.2353  0.1688 -0.1045
49013W        W91930  32.802  13.307  17.961 -0.1846  0.1641 -0.3642
49014W        W91931   1.697  12.014  19.925 -0.1038 -0.0066 -0.0970
49015W        W91932  33.355  13.061  18.600 -0.1789  0.0928 -0.0398
49016W        W91933  33.412  13.563  18.709  0.2166  0.1370 -0.0022
49017W        W91934  34.088  11.819  20.184  0.0782  0.1642  0.0930
49018W        W91935   0.861  14.446  17.967  0.0306 -0.0750  0.1114
49019W        W91936  33.623  12.163  17.469  0.1637 -0.0655  0.1737
49020W        W91937  34.167  11.046  18.054  0.1095 -0.2248  0.2403
49021W        W91938  33.265  14.247  19.466  0.0163 -0.0778 -0.1483
49022W        W91939  33.248  13.844  18.349 -0.1131 -0.0197  0.1071
49023W        W91940  33.089  15.620  18.119  0.1881  0.1789 -0.1464
49024W        W91941  33.028  14.728  18.324 -0.1639  0.2145 -0.1291
49025W        W91942  31.200   8.821  17.734  0.0452 -0.0401 -0.0877
49026W        W91943  33.131  14.107  17.874 -0.0838 -0.1775  0.3183
49027W        W91944  31.855  11.146  20.821 -0.2139 -0.1150 -0.0526
49028W        W91945  33.063   9.718  18.785 -0.3391  0.0313  0.1726
49029W        W91946  30.326  13.388  19.741 -0.1382  0.0952  0.1213
49030W        W91947   0.447  12.834  19.527 -0.2371 -0.1491  0.1383
49031W        W91948  32.902  12.215  16.973  0.0196 -0.0117  0.0949
49032W        W91949  33.764  11.353  19.920 -0.0017 -0.1675 -0.2473
49033W        W91950  34.495  12.518  18.634 -0.2044  0.1084 -0.0902
49034W        W91951  34.533  12.986  17.802 -0.2366 -0.1249 -0.1284
49035W        W91952  32.996  11.975  20.133 -0.4682  0.2536 -0.1658
49036W        W91953  31.518  13.313  20.844  0.3055  0.2419  0.3367
49037W        W91954   0.148  11.708  19.216  0.5048 -0.0593  0.2300
49038W        W91955  33.827  11.389  17.070 -0.1826  0.0532 -0.0545
49039W        W91956   0.368  10.708  17.072 -0.1249 -0.1237 -0.1363
49040W        W91957  34.121  11.491  21.564  0.0490 -0.1353 -0.0351
49041W        W91958  33.402  13.966  20.509 -0.0285 -0.4908 -0.1391
49042W        W91959  33.206  15.487  17.470  0.1540 -0.2232  0.1320
49043W        W91960  32.572  10.264  20.206  0.1527 -0.3268 -0.2705
49044W        W91961  33.976  12.501  18.331 -0.0668 -0.2944  0.1979
49045W        W91962   0.873  12.604  19.773  0.5717  0.0617 -0.2079
49046W        W91963  32.446  14.857  18.339 -0.3045  0.2009 -0.1869
49047W        W91964  32.557  13.556  17.139 -0.2205 -0.1300  0.1257
49048W        W91965  32.083  12.479  18.868  0.3821  0.1559 -0.1545
49049W        W91966   0.331  11.578  21.100 -0.1768  0.3764  0.1298
49050W        W91967   0.319  11.500  18.392  0.2430 -0.1588  0.0528
49051W        W91968  33.726  11.396  18.873 -0.1168 -0.0847 -0.0678
49052W        W91969  32.844  11.900  19.670  0.2562  0.1079  0.1245
49053W        W91970  32.688   9.770  17.805 -0.0489 -0.2360 -0.0045
49054W        W91971   0.610  12.247  18.863 -0.0835  0.0359 -0.1720
49055W        W91972  33.279  11.830  18.114  0.0899 -0.1012  0.0524
49056W        W91973  33.207  13.722  20.139  0.2469 -0.2419 -0.0584
49057W        W91974   0.403  13.672  18.436  0.0957 -0.0286 -0.1037
49058W        W91975  33.080  13.398  19.049 -0.2875  0.2711  0.0638
49059W        W91976   0.139  11.198  19.388  0.2154 -0.2642  0.1707
49060W        W91977  33.549  12.428  18.861 -0.0449 -0.0436  0.1601
49061W        W91978  33.088   9.528  21.451 -0.1716 -0.1419 -0.1422
49062W        W91979  33.936   9.886  20.035 -0.0059 -0.0986 -0.2920
49063W        W91980  33.766  11.070  17.476 -0.1319  0.0862  0.0538
49064W        W91981   0.123  15.459  17.649  0.0397 -0.4463  0.1404
49065W        W91982  32.835  11.752  17.771 -0.0780  0.1111  0.1976
49066W        W91983  31.834  14.161  19.570 -0.1741  0.0441 -0.3808
49067W        W91984  33.714  11.636  17.515  0.0918 -0.2338  0.1150
49068W        W91985  32.853  11.693  18.411 -0.2392  0.1678  0.0005
49069W        W91986   0.020  13.827  18.043 -0.0503  0.0327 -0.2456
49070W        W91987  34.642  11.416  17.699  0.2768 -0.0090 -0.4950
49071W        W91988  32.762  14.702  18.740 -0.0047  0.0857 -0.0661
49072W        W91989   1.693  14.854  18.063 -0.2781 -0.0691 -0.2764
49073W        W91990  33.541  12.702  20.183 -0.0730 -0.1700 -0.1061
49074W        W91991  33.645  12.967  17.472  0.1123  0.0162 -0.1974
49075W        W91992  34.284  11.691  19.731  0.1723 -0.1298  0.0096
49076W        W91993  34.571  10.906  19.047 -0.4056 -0.1377  0.0594
49077W        W91994   0.403  14.995  19.132 -0.0806  0.1028 -0.2225
49078W        W91995  31.881  12.088  17.421  0.0473  0.0447  0.0814
49079W        W91996  30.838  10.753  18.030 -0.2220  0.1732  0.1258
49080W        W91997   0.464  12.587  21.739 -0.0412  0.1795  0.1319
49081W        W91998   0.138  12.387  21.040 -0.0695 -0.1978  0.0762
49082W        W91999  32.733  14.739  17.879  0.1352 -0.2083  0.2472
49083W        W92000  33.150  11.802  17.403  0.1256  0.1334 -0.0831
49084W        W92001  32.468  15.098  17.664 -0.2331 -0.2752  0.0900
49085W        W92002  32.831  13.788  18.166  0.2145 -0.1927  0.2609
49086W        W92003  32.615  14.357  18.364  0.1375 -0.4256 -0.1785
49087W        W92004  31.792  13.450  17.903  0.3250 -0.1527 -0.0861
49088W        W92005  33.935   8.966  18.244 -0.1045  0.0309 -0.2177
49089W        W92006  34.285  13.008  18.885  0.2431 -0.0353 -0.2978
49090W        W92007  32.182  13.604  19.417 -0.6468 -0.2833 -0.1322
49091W        W92008  31.921  11.603  18.291 -0.0455  0.3027  0.2307
49092W        W92009   0.430  11.710  17.945  0.1279  0.2302 -0.3625
49093W        W92010  34.042  13.283  17.354 -0.3278 -0.0389  0.2812
49094W        W92011  33.289  16.820  17.838 -0.0540  0.0563  0.1428
49095W        W92012  33.548  15.436  18.104  0.0469  0.0211 -0.3303
49096W        W92013   0.386  15.154  18.241  0.0492  0.2175 -0.0629
49097W        W92014  31.683  11.654  17.470  0.1238  0.0524 -0.0376
49098W        W92015  33.225  11.563  18.800 -0.0764  0.0355 -0.0025
49099W        W92016  32.753  11.239  18.521  0.1032  0.1227 -0.4090
49100W        W92017  31.202   9.141  21.657 -0.3694 -0.1180  0.0933
49101W        W92018   0.018  11.846  17.263 -0.1126  0.4878  0.1524
49102W        W92019  33.569   9.562  17.783  0.0992 -0.0563  0.0818
49103W        W92020  33.245  11.115  19.192  0.3500  0.2661  0.2006
49104W        W92021  33.951  12.410  20.128 -0.2296 -0.3170 -0.0764
49105W        W92022  32.423  11.130  17.194  0.1854 -0.2891  0.0190
49106W        W92023  30.983  14.162  17.963  0.5072 -0.1000  0.1861
49107W        W92024  33.983  14.589  18.381 -0.1968  0.1974 -0.1073
49108W        W92025   0.089  10.768  18.586 -0.1673  0.2360 -0.1735
49109W        W92026  33.539  13.456  20.572 -0.0184 -0.1955  0.1027
49110W        W92027  33.010  15.160  18.061 -0.0442 -0.1133 -0.2292
49111W        W92028  32.959  14.179  17.348 -0.0346 -0.1289 -0.1763
49112W        W92029  32.689  14.246  17.789  0.0694  0.0226 -0.2353
49113W        W92030   0.362  14.356  20.614 -0.4010 -0.1934 -0.2960
49114W        W92031  32.471  13.095  17.624 -0.3186 -0.1417  0.2537
49115W        W92032  33.625  13.717  19.724  0.0000  0.4188 -0.1276
49116W        W92033  33.316  10.903  17.720 -0.0128 -0.1935 -0.2161
49117W        W92034  31.483  15.217  16.591 -0.0045  0.2604  0.0700
49118W        W92035  33.779  11.234  19.444 -0.0062  0.1183 -0.0242
49119W        W92036  32.754   9.135  17.889 -0.2673 -0.0789  0.2635
49120W        W92037  33.521  14.706  19.338 -0.1664 -0.4365 -0.0032
49121W        W92038  32.358  12.022  19.002  0.1915  0.2319 -0.0819
49122W        W92039  32.891  12.714  17.827  0.1250 -0.1454  0.2020
49123W        W92040  31.759  13.947  20.060  0.0463  0.2043  0.0485
49124W        W92041   0.812  10.072  21.564 -0.1910  0.0512 -0.0209
49125W        W92042  32.331  12.101  20.704 -0.0451  0.0108 -0.3318
49126W        W92043  34.152  13.481  18.482 -0.1536 -0.0732 -0.3159
49127W        W92044  32.794  12.070  18.726  0.3248 -0.1297  0.4982
49128W        W92045  32.033   9.931  18.649 -0.0501 -0.4763 -0.4201
49129W        W92046  32.994  11.479  20.000 -0.0216 -0.0650 -0.0882
49130W        W92047  33.515  10.218  17.505 -0.2139  0.0050 -0.1299
49131W        W92048  32.738  13.128  17.187 -0.0780  0.2394  0.1024
49132W        W92049   1.606   9.420  20.707 -0.3583  0.1783  0.0703
49133W        W92050  33.635  10.376  21.147  0.1542 -0.0120 -0.5409
49134W        W92051  32.530  11.316  17.778 -0.3740  0.1935 -0.1181
49135W        W92052  34.373  12.184  19.923  0.0678 -0.3005  0.0179
49136W        W92053  33.683  12.872  20.965  0.0495  0.0016 -0.0937
49137W        W92054  33.020  16.604  18.282 -0.1383  0.2854  0.0398
49138W        W92055  32.858   8.642  22.825  0.0355 -0.1330  0.1122
49139W        W92056  33.073  14.259  18.545 -0.1059  0.1700  0.1584
49140W        W92057  33.413  11.629  19.285 -0.0083  0.1700  0.1789
49141W        W92058   0.108  13.513  21.925 -0.0953  0.2494 -0.0726
49142W        W92059  32.094  12.941  18.607  0.4061  0.2188  0.0077
49143W        W92060  32.389  10.941  20.055 -0.2954  0.0891 -0.1106
49144W        W92061  34.015  10.334  17.562  0.3116  0.0146  0.3199
49145W        W92062   0.628  11.619  20.110 -0.0861 -0.0050  0.1474
49146W        W92063  31.159  11.235  20.312  0.2322  0.1022  0.0726
49147W        W92064  34.103  15.285  20.401  0.1456 -0.2055  0.1678
49148W        W92065   0.047   9.629  19.475 -0.0198 -0.0474  0.0161
49149W        W92066  32.741   9.336  18.838  0.0802  0.2824 -0.0683
49150W        W92067  34.240  13.346  17.996 -0.0885 -0.1474  0.4295
49151W        W92068  33.322  11.203  20.194  0.1057  0.3078  0.0606
49152W        W92069  32.548  15.337  18.172  0.0778 -0.0793  0.3701
49153W        W92070  33.345  13.033  22.334 -0.2256 -0.1402 -0.1327
49154W        W92071  33.055   9.743  20.974 -0.1260  0.0451 -0.2723
49155W        W92072  33.259   9.443  22.062  0.0161  0.1342 -0.0476
49156W        W92073  33.396   9.940  22.993  0.0340 -0.0930 -0.1006
49157W        W92074  34.483  11.052  23.462  0.0906  0.2501 -0.2888
49158W        W92075  33.977  11.405  22.499  0.2047 -0.0311 -0.1800
49159W        W92076   0.129   9.714  22.193 -0.0537 -0.3483  0.1224
49160W        W92077  32.022  10.340  22.960  0.3425  0.2788  0.1445
49161W        W92078  32.608  12.168  22.239 -0.0181  0.4047  0.1836
49162W        W92079  33.108  11.709  21.953  0.1192 -0.2226  0.1731
49163W        W92080   0.405  12.762  21.256 -0.1029 -0.0033 -0.2013
49164W        W92081  34.441  10.849  22.783 -0.0396  0.1877  0.0265
49165W        W92082   1.519  14.513  20.201  0.1778  0.1513 -0.4174
49166W        W92083  33.220  12.758  21.027 -0.0213  0.0156  0.0847
49167W        W92084  31.370  11.756  23.474 -0.1116 -0.2200 -0.2163
49168W        W92085  34.641  10.386  20.033 -0.1244  0.0613 -0.0005
49169W        W92086   0.477  14.775  22.420 -0.1968 -0.1838  0.2273
49170W        W92087  34.260  12.252  22.819  0.1913 -0.0477 -0.0928
49171W        W92088  34.662  13.128  22.388 -0.0950 -0.2375  0.2719
49172W        W92089  32.488  13.338  20.677  0.2048 -0.1936  0.0385
49173W        W92090   0.734  11.917  21.444 -0.0691 -0.0138  0.1423
49174W        W92091  32.979  13.966  23.899 -0.1405  0.1996  0.0263
49175W        W92092  34.302  13.381  21.859  0.3075  0.0498 -0.0166
49176W        W92093  33.637  13.131  24.278 -0.3135 -0.1672  0.1238
49177W        W92094  34.078  13.658  20.636  0.2976 -0.2945  0.0754
49178W        W92095  32.801  14.574  19.778  0.2161  0.0913 -0.0914
49179W        W92096  33.585  12.246  23.541  0.2881 -0.0729 -0.0388
49180W        W92097  33.178  10.030  24.281 -0.1232  0.1927  0.1881
49181W        W92098  31.616  13.717  18.595  0.0573  0.1655 -0.0347
49182W        W92099  32.600  11.593  20.547  0.1485  0.1711  0.0615
49183W        W92100  34.651  11.576  20.556  0.2991 -0.2027 -0.1448
49184W        W92101  33.642  13.617  21.946  0.0217  0.0252 -0.0719
49185W        W92102  34.147  10.920  22.383  0.0479 -0.0334  0.0366
49186W        W92103  34.473  14.124  22.455  0.0331  0.2261 -0.2861
49187W        W92104  32.219  10.760  22.650 -0.2760 -0.2032 -0.1041
49188W        W92105  31.558  11.633  20.449  0.1658 -0.1428 -0.2824
49189W        W92106  32.850  12.498  24.482  0.0529  0.1043 -0.0720
49190W        W92107  34.358  13.465  23.209  0.3955  0.0752  0.1269
49191W        W92108  32.111   9.535  21.911 -0.0800 -0.1475 -0.3302
49192W        W92109  32.113  13.109  23.273  0.1102 -0.1946 -0.0229
49193W        W92110   0.032  11.174  20.963  0.2107 -0.0883 -0.3688
49194W        W92111  32.083  11.420  20.142  0.1064 -0.0235 -0.1787
49195W        W92112   0.206  13.566  21.060  0.0038  0.1878 -0.2849
49196W        W92113  32.810  15.121  21.689 -0.1824 -0.2291  0.2731
49197W        W92114  32.540  11.633  24.321 -0.1649  0.0172  0.0503
49198W        W92115   0.464  13.869  22.826 -0.0528 -0.0603  0.0523
49199W        W92116  31.975  14.718  19.301  0.1360  0.1563  0.1193
49200W        W92117  33.508  10.539  20.519  0.0943  0.0952  0.3671
49201W        W92118  33.987  12.146  23.235  0.0175 -0.2125 -0.4434
49202W        W92119  32.183  11.957  24.044 -0.0688  0.0745 -0.3621
49203W        W92120  32.777  11.152  21.904 -0.0229 -0.0052 -0.0859
49204W        W92121  34.117  10.292  24.552  0.1403 -0.1269  0.0132
49205W        W92122  33.543  15.482  20.238 -0.0261 -0.0517  0.0616
49206W        W92123  33.353  11.620  22.668  0.0089 -0.1212 -0.2663
49207W        W92124  33.546  11.263  23.649  0.4645  0.0760  0.1723
49208W        W92125  33.174  10.576  24.165 -0.0036  0.0201  0.1355
49209W        W92126  32.977  13.002  22.718  0.3020  0.0972  0.2552
49210W        W92127  33.861  11.507  21.151 -0.0704  0.0467 -0.3008
49211W        W92128  33.010  11.929  21.505 -0.0021  0.1481  0.0773
49212W        W92129  32.778  10.582  21.553  0.1548  0.2740  0.1253
49213W        W92130   0.219  11.274  22.105  0.1992 -0.0319  0.0187
49214W        W92131  32.366  13.186  22.007  0.1480  0.3279 -0.2860
49215W        W92132  31.239  13.442  22.705 -0.0094  0.0008 -0.0070
49216W        W92133  33.968  14.132  23.678  0.4172 -0.1337 -0.1516
49217W        W92134  33.119  10.885  20.537 -0.1931 -0.1339 -0.3235
49218W        W92135  33.056  13.881  21.846  0.0847 -0.0989 -0.1266
49219W        W92136  33.381  12.934  19.083 -0.0242  0.1778 -0.0689
49220W        W92137  32.089  11.219  21.341  0.0550  0.0628  0.1568
49221W        W92138  31.529  10.603  22.168  0.1336  0.7254  0.2727
49222W        W92139   0.831  11.296  20.980 -0.0246  0.4875 -0.0059
49223W        W92140  32.306  12.505  24.173 -0.1253  0.0745  0.1155
49224W        W92141  32.801  11.743  22.370  0.0147 -0.0520 -0.0013
49225W        W92142  32.250  11.621  22.347 -0.3569  0.1569 -0.1126
49226W        W92143  33.520  11.762  23.914  0.2823 -0.0619  0.1081
49227W        W92144  34.648  13.239  21.507  0.0947  0.2178 -0.1970
49228W        W92145   1.419  11.130  23.832 -0.0034  0.2924  0.0225
49229W        W92146   0.952  11.949  23.247 -0.2957 -0.1520  0.0034
49230W        W92147  34.503  11.558  21.922  0.1770 -0.1337  0.4464
49231W        W92148  33.601  12.981  19.541  0.1168  0.0770 -0.1977
49232W        W92149  32.943  13.832  18.764  0.2078 -0.5455 -0.1380
49233W        W92150   1.857  11.168  24.109 -0.0347  0.3028  0.0394
49234W        W92151  34.387  14.298  21.451  0.0724 -0.3441 -0.0746
49235W        W92152   0.687  12.559  22.948 -0.0326  0.2537  0.0055
49236W        W92153  33.645  12.557  23.977  0.2349  0.2328  0.0220
49237W        W92154  33.141  10.801  23.238  0.3139  0.1684 -0.1675
49238W        W92155  33.147  10.943  23.715 -0.7425 -0.0418  0.1310
49239W        W92156  34.505  13.641  20.215  0.1052  0.0735 -0.0482
49240W        W92157  33.485  14.492  21.451 -0.1044  0.1280  0.1243
49241W        W92158  32.879  10.722  22.248  0.2209 -0.0262  0.1664
49242W        W92159   2.362  11.012  22.941 -0.2199 -0.4774  0.0616
49243W        W92160  34.627  13.914  19.089  0.0012  0.0216 -0.1132
49244W        W92161  34.238  11.965  21.789  0.0349 -0.0042  0.3702
49245W        W92162  31.829  13.304  21.927 -0.2862  0.1539 -0.2832
49246W        W92163  31.714  11.854  21.441 -0.2766  0.0913 -0.0236
49247W        W92164  33.009  10.980  21.356  0.2939 -0.2529 -0.3116
49248W        W92165  33.927  12.047  24.104 -0.0211 -0.0577 -0.2410
49249W        W92166  33.239  10.597  22.835  0.0580 -0.1386 -0.0086
49250W        W92167  31.732  16.751  21.864 -0.1794  0.0432 -0.1430
49251W        W92168   0.073  12.763  23.827 -0.4455 -0.1539 -0.0563
49252W        W92169  33.348  11.999  18.567  0.0549 -0.1763  0.2905
49253W        W92170  34.550  10.442  23.186  0.3395 -0.0321  0.2058
49254W        W92171  32.008  12.761  22.726  0.2657 -0.1068  0.4308
49255W        W92172  33.009  12.486  21.431  0.3422 -0.0270  0.1100
49256W        W92173  34.355  12.899  21.838 -0.0171  0.2183 -0.0317
49257W        W92174  33.618  10.182  24.477  0.0158  0.1434 -0.0904
49258W        W92175  34.102  10.306  23.287 -0.0378  0.1225  0.2290
49259W        W92176  33.305  10.477  22.082  0.0321 -0.1825 -0.2879
49260W        W92177  34.071  11.419  22.050 -0.1540 -0.1507 -0.0652
49261W        W92178  34.320  11.788  22.349  0.0342 -0.2194 -0.2230
49262W        W92179  33.465  13.359  23.852  0.2266 -0.1781  0.1727
49263W        W92180  33.862  12.519  20.617  0.1355 -0.2019  0.0088
49264W        W92181  32.014  12.872  21.628  0.0450  0.0705 -0.1356
49265W        W92182   0.626  13.438  20.526  0.0231 -0.0636  0.1110
49266W        W92183  34.202  10.686  24.275  0.0483  0.2230  0.0631
49267W        W92184  33.530  11.745  21.634 -0.0357 -0.0779  0.0462
49268W        W92185  33.139  13.538  21.441  0.4309  0.1027  0.1390
49269W        W92186  33.924  13.818  23.268  0.0814  0.3272 -0.1914
49270W        W92187  34.600  11.243  21.481  0.0348 -0.0091 -0.2816
49271W        W92188   1.724  11.358  24.545 -0.1301  0.0648  0.0000
49272W        W92189  31.962  12.813  24.236 -0.0253 -0.1270 -0.0406
49273W        W92190  31.800  13.827  24.578  0.1626  0.0540 -0.1984
49274W        W92191  32.303  10.038  21.187  0.1469  0.1989 -0.1078
49275W        W92192  34.548   9.686  24.188  0.1640  0.1665 -0.2045
49276W        W92193   0.198  13.753  20.525 -0.0422  0.2837 -0.0552
49277W        W92194  33.033  10.475  23.601  0.1829  0.0598  0.0799
49278W        W92195   0.736  10.782  19.767  0.6087  0.1356  0.3963
49279W        W92196  33.169  13.286  19.635 -0.0268  0.0368 -0.2612
49280W        W92197  34.563  10.170  22.149 -0.0906 -0.0239 -0.1415
49281W        W92198   1.203  12.369  23.670 -0.0291 -0.0362 -0.0244
49282W        W92199  32.691  10.869  23.475 -0.1396 -0.0614  0.2666
49283W        W92200  31.411  11.460  22.735 -0.2769  0.3207 -0.0715
49284W        W92201  32.100   9.566  21.298  0.1224  0.0171 -0.2299
49285W        W92202  32.582  14.979  21.258 -0.1766  0.0231  0.4473
49286W        W92203  30.576  12.089  21.298  0.1014 -0.0660  0.3769
49287W        W92204  32.935  13.281  23.898  0.3864  0.0433 -0.0255
49288W        W92205  32.333  10.525  21.353  0.0352  0.2500  0.0193
49289W        W92206  33.774  13.018  20.438  0.1750 -0.0386 -0.2039
49290W        W92207   2.070  13.641  21.547 -0.0281 -0.0384  0.1437
49291W        W92208  34.084  11.217  20.797  0.1424  0.0557  0.1358
49292W        W92209  32.992  14.713  21.277  0.1009  0.0811 -0.1913
49293W        W92210  34.532  12.026  23.267  0.0412 -0.1616  0.2329
49294W        W92211  32.636  13.981  23.069 -0.0067 -0.0239  0.2674
49295W        W92212  33.669  14.235  20.822  0.1229  0.2595  0.1194
49296W        W92213   3.047  11.734  21.497 -0.2625 -0.2293  0.5247
49297W        W92214  34.248  11.985  23.734  0.0306 -0.1228 -0.3296
49298W        W92215   0.629  13.198  21.161  0.2676  0.1313 -0.0090
49299W        W92216  34.038  12.518  23.645  0.0797 -0.0257 -0.1888
49300W        W92217  31.894   9.904  22.775 -0.0071 -0.0339  0.1531
49301W        W92218  34.230  12.528  24.069  0.0697  0.2304  0.0453
49302W        W92219  31.573  14.501  22.224 -0.1676  0.0098 -0.2131
49303W        W92220  31.571  14.511  20.246  0.1507 -0.1958 -0.5790
49304W        W92221  34.084  12.664  21.219 -0.1215  0.0032 -0.1381
49305W        W92222  33.929  15.261  20.903  0.1947 -0.0725  0.3910
49306W        W92223  32.550  13.034  22.939 -0.0900  0.2829 -0.1876
49307W        W92224  33.308  12.498  19.280  0.1818 -0.0433  0.2483
49308W        W92225   0.541  10.972  21.137 -0.0459 -0.1804  0.2190
49309W        W92226   1.306  11.742  20.093  0.2649 -0.0184  0.1913
49310W        W92227  33.348  12.069  22.330 -0.0338 -0.0259 -0.1298
49311W        W92228  31.424  12.300  23.645 -0.0955  0.1582 -0.2208
49312W        W92229  33.003  11.226  22.377 -0.0828  0.2874 -0.0188
49313W        W92230   0.793  12.978  20.559 -0.0224  0.1187 -0.0943
49314W        W92231   0.788  13.623  20.968  0.0223  0.0767  0.2665
49315W        W92232   0.286  13.933  22.300  0.0407  0.2871 -0.3934
49316W        W92233   0.052  12.146  22.279  0.0050  0.1317 -0.0588
49317W        W92234  34.055  14.934  23.970 -0.0514  0.3574  0.0574
49318W        W92235  32.579  13.450  18.787 -0.0587 -0.0013  0.2021
49319W        W92236  32.666  11.497  21.455 -0.1547  0.1084  0.1006
49320W        W92237  33.368  11.123  22.761 -0.5709 -0.1115 -0.1737
49321W        W92238  32.490  12.711  24.762 -0.0283  0.0930  0.0190
49322W        W92239   1.246  10.920  21.045 -0.0240 -0.2683  0.1919
49323W        W92240   0.289  12.223  21.493 -0.1727  0.0290 -0.3607
49324W        W92241  34.223  13.819  22.853  0.2048 -0.1435  0.0586
49325W        W92242  33.127  10.920  24.609 -0.2700  0.0486 -0.2706
49326W        W92243  32.809   9.679  21.868  0.1297 -0.0793 -0.0631
49327W        W92244   0.627  13.024  20.075  0.0075 -0.1283 -0.2600
49328W        W92245  32.033   9.986  22.239  0.2900  0.2035 -0.1016
49329W        W92246   0.203   9.407  22.626  0.4587 -0.0082  0.3364
49330W        W92247  33.385  12.217  21.632 -0.0399 -0.1881  0.1291
49331W        W92248  32.981  14.314  20.403  0.0908  0.0350  0.2057
49332W        W92249  30.554  13.614  18.857  0.3896  0.0416  0.3737
49333W        W92250  33.818  11.754  23.493  0.0842 -0.1718  0.0261
49334W        W92251  34.116  12.753  25.684 -0.4399  0.0439  0.0041
49335W        W92252  32.534  10.989  21.499  0.3014 -0.3502 -0.3122
49336W        W92253  34.332  11.574  23.431  0.0710 -0.0752 -0.0355
49337W        W92254  33.661  12.409  22.002 -0.1011  0.1052  0.1652
49338W        W92255  33.140  11.389  21.543 -0.0794 -0.0941 -0.4796
49339W        W92256   2.874  10.613  19.577  0.1561 -0.0264 -0.0208
49340W        W92257   0.613  11.532  23.316  0.3286  0.0723 -0.0155
49341W        W92258  33.744  12.595  23.107  0.1328  0.2716  0.0562
49342W        W92259  32.953  11.615  22.937 -0.0194  0.0386 -0.0155
49343W        W92260  32.773  12.131  19.264 -0.2549 -0.2666  0.0223
49344W        W92261  33.655  10.661  21.642 -0.0462  0.0049  0.0577
49345W        W92262  34.515   8.825  24.527 -0.0738  0.2890  0.2272
49346W        W92263  31.040  12.786  23.936 -0.0715  0.0050  0.1661
49347W        W92264  33.289  11.821  23.370 -0.2998 -0.2068 -0.0461
49348W        W92265  34.252   7.932  21.854  0.2551 -0.0649  0.0276
49349W        W92266  33.963  10.824  20.517  0.2542 -0.0460  0.1332
49350W        W92267  30.947  11.605  22.545 -0.2335  0.1921 -0.0569
49351W        W92268  32.783  11.182  20.284  0.1910 -0.0070  0.0212
49352W        W92269  33.431  12.537  18.396  0.2323  0.3482  0.0615
49353W        W92270   0.185  12.450  25.608 -0.0072  0.1545  0.2739
49354W        W92271   0.967  10.286  24.192 -0.0411  0.5735  0.1698
49355W        W92272  30.661  10.808  22.587  0.0659  0.0541  0.3130
49356W        W92273  33.797  11.928  22.054  0.0409 -0.0592  0.0414
49357W        W92274  32.481  12.124  24.591  0.1726 -0.1267  0.1605
49358W        W92275   0.149  15.170  22.295  0.2420 -0.0022  0.0203
49359W        W92276  32.969  12.166  22.667  0.0770  0.0344  0.0112
49360W        W92277  33.850  11.701  24.478 -0.0943  0.0633 -0.0919
49361W        W92278  31.260  12.235  24.780 -0.3071 -0.3415 -0.1182
49362W        W92279   0.102  11.978  22.773 -0.1115  0.0452  0.3286
49363W        W92280  33.581  11.216  21.609 -0.2460  0.1973  0.0897
49364W        W92281  33.188  12.307  23.213 -0.1474  0.1797  0.1099
49365W        W92282   0.936  11.768  20.917  0.2159  0.2416 -0.0341
49366W        W92283  34.304  10.534  23.708  0.0406 -0.1193  0.1908
49367W        W92284  34.644  12.496  21.886  0.1740 -0.3260 -0.1394
49368W        W92285   0.459  14.919  23.322 -0.1673 -0.1286  0.1622
49369W        W92286  32.831  10.384  22.566  0.0634  0.0460 -0.5672
49370W        W92287  34.145  12.466  21.723  0.0551  0.0225  0.0294
49371W        W92288   1.831  12.503  21.192  0.1407  0.0660  0.0099
49372W        W92289  33.185   8.353  22.513  0.0693  0.1127 -0.0304
49373W        W92290  32.592  12.437  22.825  0.0035  0.4109 -0.2084
49374W        W92291  33.959  12.033  26.913  0.0346  0.1076  0.0706
49375W        W92292  34.172  12.045  25.917 -0.0648  0.0214  0.1069
49376W        W92293  32.749   9.715  24.201 -0.2556 -0.1165  0.0068
49377W        W92294  33.708   9.362  26.025  0.0150 -0.2421  0.1950
49378W        W92295  32.165  11.557  25.669  0.1997  0.0223 -0.2428
49379W        W92296  33.270  11.096  25.516 -0.2027 -0.2271 -0.1085
49380W        W92297  30.973  11.133  22.805 -0.0627  0.2171 -0.0438
49381W        W92298   0.066  10.226  25.070  0.0800  0.2272  0.0182
49382W        W92299   1.250  11.771  26.018 -0.0306  0.0151 -0.1807
49383W        W92300  32.941  13.300  25.197  0.2309 -0.1547 -0.0979
49384W        W92301   1.261  11.179  26.778  0.1901  0.1978  0.0184
49385W        W92302  34.480  10.655  27.459 -0.1401  0.0315  0.4177
49386W        W92303   0.752  13.376  24.727 -0.0918  0.2077  0.1751
49387W        W92304  32.175  11.095  23.632 -0.1205 -0.1045 -0.0008
49388W        W92305  31.863  13.308  26.028  0.0463  0.1591  0.0103
49389W        W92306  34.044  11.453  26.802 -0.1438  0.2814  0.1758
49390W        W92307   1.864  12.493  25.320  0.2255  0.1622  0.1518
49391W        W92308   0.206  14.248  24.771 -0.2172 -0.0219  0.3498
49392W        W92309  33.246  12.930  23.959 -0.2078  0.2854  0.2219
49393W        W92310  32.042  13.532  22.325 -0.1084 -0.1001  0.1991
49394W        W92311  33.994  11.498  23.854 -0.0795 -0.2534  0.4654
49395W        W92312  34.578  14.049  27.587  0.4210 -0.1373  0.0772
49396W        W92313  33.270  12.633  23.567 -0.0718 -0.0783  0.0331
49397W        W92314  33.876  13.108  27.346  0.0828  0.0115  0.1320
49398W        W92315  34.305  15.161  24.454 -0.0053  0.0302 -0.0298
49399W        W92316  34.622  12.202  25.148 -0.0376 -0.0483 -0.1295
49400W        W92317  34.667  12.931  25.903 -0.0687 -0.2823  0.0860
49401W        W92318  33.614  12.196  25.884  0.1732 -0.1043  0.0831
49402W        W92319  33.608  13.574  24.500  0.0733 -0.1091 -0.2338
49403W        W92320  34.167  12.492  24.985 -0.0470  0.3255 -0.0282
49404W        W92321  33.525  10.616  25.397 -0.0167 -0.1096 -0.0085
49405W        W92322  33.473  13.948  25.537  0.2976  0.2041  0.1087
49406W        W92323  33.938  10.013  27.416  0.2453 -0.1697 -0.3862
49407W        W92324  33.108  11.751  26.428 -0.2412 -0.0541  0.0821
49408W        W92325  34.261  11.575  26.294  0.2179 -0.3331  0.0832
49409W        W92326  34.501  12.721  25.383 -0.2435 -0.0390  0.2631
49410W        W92327  32.959  14.537  27.798  0.1174 -0.2288  0.0694
49411W        W92328  32.149  11.391  26.725 -0.2553  0.1074 -0.1635
49412W        W92329  32.123  11.386  24.161 -0.0531 -0.2616  0.0241
49413W        W92330  33.064  12.641  26.480 -0.1037  0.1828 -0.2260
49414W        W92331  33.511  13.576  26.511 -0.3190 -0.0367 -0.3290
49415W        W92332  33.606  10.859  23.176  0.0860 -0.0747 -0.2215
49416W        W92333   2.017  12.140  25.628  0.0854 -0.0337  0.0999
49417W        W92334  33.094  15.486  27.517 -0.1945  0.0302  0.3796
49418W        W92335  34.203  11.309  27.459 -0.1304 -0.1444  0.3197
49419W        W92336   3.039  14.540  26.738  0.2541 -0.1009 -0.0159
49420W        W92337  34.267  12.228  25.468 -0.0604 -0.1370  0.1691
49421W        W92338  32.600  14.404  23.609  0.1117  0.2377 -0.3076
49422W        W92339  34.001  12.985  24.003  0.1111 -0.3172 -0.0685
49423W        W92340  32.098  11.545  27.884 -0.0743 -0.1689 -0.0312
49424W        W92341  32.855  10.182  28.049  0.0606  0.0032  0.2884
49425W        W92342  33.501  11.094  27.342  0.4337  0.1751 -0.0600
49426W        W92343  34.469  12.886  24.426 -0.0045  0.2317 -0.0313
49427W        W92344  31.998  12.516  25.841 -0.3002  0.0093  0.0952
49428W        W92345  33.635  12.706  25.723 -0.0075 -0.1377  0.1069
49429W        W92346  34.151   9.783  26.876  0.3253 -0.2130 -0.3253
49430W        W92347  34.090   9.662  26.390 -0.0445 -0.0838  0.2295
49431W        W92348  30.914  13.504  24.385 -0.0780  0.0066  0.0892
49432W        W92349  34.246  11.156  25.128 -0.1121  0.1856  0.0648
49433W        W92350  31.969  15.117  24.612 -0.0991  0.0244 -0.0409
49434W        W92351   0.062   9.113  27.460  0.1970 -0.4040 -0.2693
49435W        W92352  33.807  11.856  22.593 -0.0755  0.1794 -0.3288
49436W        W92353  33.600  14.839  25.210  0.1027  0.0068 -0.0424
49437W        W92354  34.451  13.387  25.982 -0.2684 -0.2217  0.1808
49438W        W92355   1.073  11.779  25.583 -0.1401  0.3344  0.2137
49439W        W92356  32.029  13.528  27.914  0.1101  0.0939 -0.1116
49440W        W92357  32.881  11.990  24.956  0.1259 -0.1806  0.1071
49441W        W92358  33.999  13.122  23.146  0.0732 -0.5622 -0.0405
49442W        W92359  32.357  13.163  24.271 -0.0410 -0.1750  0.1036
49443W        W92360   0.417  14.227  25.285  0.1711  0.1455  0.1829
49444W        W92361  33.033  11.950  27.760  0.0926  0.0099  0.2029
49445W        W92362  33.241  12.262  24.786  0.2522  0.3684 -0.2847
49446W        W92363  33.765  13.556  27.526 -0.2072  0.0014  0.4530
49447W        W92364  32.780  12.940  27.470 -0.0026  0.0032  0.0095
49448W        W92365   0.412  11.339  25.090 -0.0673 -0.0347  0.0175
49449W        W92366   0.376  12.867  27.669  0.0998  0.1858 -0.1246
49450W        W92367  31.577  13.288  24.893  0.2317  0.0377  0.4647
49451W        W92368  32.740   9.034  27.670 -0.1436 -0.2707 -0.1474
49452W        W92369  33.646  10.758  24.208  0.1447 -0.0961 -0.2733
49453W        W92370  32.084  16.649  24.297 -0.2471 -0.0202  0.1263
49454W        W92371  32.916  12.183  26.689  0.0283 -0.2462  0.3671
49455W        W92372  33.829  13.314  22.320 -0.0109 -0.0446 -0.4424
49456W        W92373  33.244  10.392  27.076 -0.4210 -0.1077  0.0969
49457W        W92374  30.745  11.441  26.375 -0.2139  0.3880  0.5385
49458W        W92375   0.421  13.820  27.408 -0.0969  0.1420 -0.1046
49459W        W92376   0.297  10.360  27.492 -0.1259 -0.2758 -0.2030
49460W        W92377  33.482  16.712  22.601  0.0059 -0.1180  0.1667
49461W        W92378  34.521  12.122  24.158  0.0627  0.0184  0.0151
49462W        W92379  34.121  10.909  24.746  0.1569 -0.1039  0.0253
49463W        W92380   0.721  12.339  26.355  0.1670 -0.1213  0.2227
49464W        W92381  33.541  13.433  23.266  0.0452 -0.3360  0.0603
49465W        W92382  33.550  10.756  24.761  0.0636 -0.1569 -0.1976
49466W        W92383  33.975  13.537  26.287 -0.0025 -0.0835 -0.1037
49467W        W92384  32.551  11.355  25.402 -0.0013 -0.1714  0.0875
49468W        W92385  32.853  12.458  25.022  0.1568 -0.1930  0.0175
49469W        W92386  33.131   9.332  26.869 -0.1263 -0.2448 -0.0566
49470W        W92387  34.224  11.119  25.690 -0.2797 -0.1317 -0.0808
49471W        W92388  34.319  13.195  26.480  0.0040  0.0216 -0.1208
49472W        W92389  33.782  14.169  28.147 -0.2427  0.3333 -0.1435
49473W        W92390  32.387  10.208  23.365 -0.0476  0.3299 -0.0493
49474W        W92391  31.269  10.815  27.016  0.0147 -0.0805  0.3912
49475W        W92392  33.369  12.705  27.401 -0.0405  0.1148 -0.2189
49476W        W92393  33.860  11.955  25.482 -0.0185 -0.4771 -0.1399
49477W        W92394  32.514  13.981  25.763  0.0181  0.0484 -0.1901
49478W        W92395  33.968  11.040  27.063  0.1589  0.1695 -0.0722
49479W        W92396  33.965  12.474  26.111  0.1059 -0.2848  0.0683
49480W        W92397  32.422  11.158  25.905 -0.2399 -0.3616 -0.1637
49481W        W92398  34.445  11.790  26.679  0.0046 -0.2814 -0.0817
49482W        W92399  34.402   8.692  27.454  0.1367 -0.0101 -0.0747
49483W        W92400   1.753  12.518  27.494 -0.0358  0.1667 -0.0405
49484W        W92401  33.628  14.042  24.173  0.1946  0.0775  0.2155
49485W        W92402  32.148  12.782  25.166  0.0586  0.1114  0.0124
49486W        W92403   1.517  12.778  23.646  0.0898 -0.0578  0.2639
49487W        W92404  33.799  11.011  25.178  0.0188 -0.1025  0.0765
49488W        W92405   1.172  13.760  26.331  0.3788  0.0065 -0.0989
49489W        W92406  33.734  12.083  24.863 -0.2369  0.2772 -0.0343
49490W        W92407  33.768  13.167  26.613 -0.1255 -0.2422 -0.2431
49491W        W92408   0.682  10.854  25.264 -0.0199 -0.1858 -0.1641
49492W        W92409  34.584   9.011  24.962 -0.1666 -0.1697 -0.1919
49493W        W92410  32.574  12.136  27.516 -0.0496 -0.0322  0.0248
49494W        W92411  32.210  10.861  27.939  0.0845 -0.0156 -0.1184
49495W        W92412  33.447  10.361  25.976 -0.0014 -0.1617  0.0335
49496W        W92413  34.627  12.007  25.705 -0.1262 -0.1370  0.0512
49497W        W92414  34.359  13.305  23.927  0.0734 -0.2158  0.0226
49498W        W92415  34.549  13.177  27.778  0.2697  0.1536 -0.0730
49499W        W92416  34.569  11.083  24.575 -0.3036 -0.1022  0.1032
49500W        W92417  33.191  13.652  24.195  0.0221 -0.2743 -0.0211
49501W        W92418  32.855   9.913  27.661  0.0984  0.0388 -0.1607
49502W        W92419  34.243  12.208  26.438 -0.0894  0.5107  0.0961
49503W        W92420  32.770  10.309  27.270 -0.3213  0.1182 -0.0130
49504W        W92421  33.256   9.040  26.523 -0.0441 -0.2130 -0.0271
49505W        W92422  34.577  10.879  23.929 -0.1611  0.1266 -0.1502
49506W        W92423  34.295  13.277  25.241  0.3205  0.3339 -0.0971
49507W        W92424  33.343  10.065  27.849 -0.0856  0.0927 -0.0507
49508W        W92425  33.841  15.204  28.536  0.1656  0.1688  0.0496
49509W        W92426  33.910  13.252  25.695 -0.5301 -0.0605 -0.2421
49510W        W92427   2.092  12.385  24.446 -0.0774 -0.1988 -0.0479
49511W        W92428   0.386  14.545  24.082  0.0957  0.0259  0.3370
49512W        W92429  34.209   9.371  25.100 -0.0709 -0.2640 -0.3945
49513W        W92430  33.895  12.973  25.225  0.0620 -0.0357 -0.0468
49514W        W92431  33.024  13.311  26.157  0.5053 -0.0722 -0.3839
49515W        W92432  32.541  12.807  26.581 -0.0114  0.0770  0.1157
49516W        W92433  33.362  15.841  22.827  0.1517 -0.2163  0.2402
49517W        W92434  32.258  10.526  27.268 -0.1048 -0.0176  0.4607
49518W        W92435  33.294  12.458  26.970 -0.0871  0.2112  0.1519
49519W        W92436  33.247  13.928  23.017 -0.2951  0.1021  0.0921
49520W        W92437  31.530  12.742  27.733 -0.0306  0.2253  0.0836
49521W        W92438   0.224  10.554  24.049 -0.2724  0.0718 -0.5329
49522W        W92439   0.375  13.362  27.655  0.1204 -0.4479 -0.4713
49523W        W92440  34.013  13.792  25.865  0.0343 -0.2629  0.0945
49524W        W92441  32.352  14.849  22.604 -0.0655 -0.0623 -0.0790
49525W        W92442   2.190  13.781  25.138  0.0013 -0.1804 -0.2876
49526W        W92443  30.269  12.840  24.392  0.3403 -0.0472 -0.2445
49527W        W92444  32.987  14.219  25.648 -0.1017 -0.1843 -0.0146
49528W        W92445  33.317  13.066  26.545 -0.0463  0.2660 -0.0589
49529W        W92446  30.990  11.496  25.796  0.1950 -0.3181  0.7586
49530W        W92447  32.946  11.457  24.558 -0.2464  0.0174  0.1020
49531W        W92448  33.527   9.769  26.385 -0.2143 -0.1048  0.1415
49532W        W92449  33.070  13.689  26.554 -0.0520  0.0907 -0.1014
49533W        W92450  31.789  12.020  25.811 -0.2321  0.1023  0.0533
49534W        W92451   0.415  10.510  25.545 -0.0318  0.3773 -0.0830
49535W        W92452   0.015  12.531  22.681 -0.1842 -0.0477 -0.1817
49536W        W92453   0.345  12.375  23.788 -0.0476 -0.2771 -0.1958
49537W        W92454  33.959  14.940  25.527 -0.1420 -0.0575  0.0648
49538W        W92455  34.345  13.669  25.516  0.2052  0.1545 -0.1697
49539W        W92456  32.431  10.996  25.048 -0.0410 -0.1835 -0.0602
49540W        W92457  31.797  11.142  27.719 -0.3779  0.0908  0.3240
49541W        W92458  33.867  11.468  27.785  0.4092 -0.0221 -0.0721
49542W        W92459  33.455  14.374  26.949 -0.3809  0.0312  0.3344
49543W        W92460   1.126  11.954  24.099 -0.4400 -0.0369 -0.3852
49544W        W92461  32.258  11.003  26.975  0.0139 -0.0106 -0.0582
49545W        W92462   0.010  13.287  25.593 -0.0699  0.2020  0.0590
49546W        W92463  34.470  12.478  26.022 -0.2792 -0.1740 -0.3849
49547W        W92464  32.141  10.426  25.279  0.0021  0.0377 -0.0040
49548W        W92465  33.472  13.844  23.727 -0.0893 -0.0614  0.1627
49549W        W92466  33.569  10.376  27.487  0.1273  0.3037  0.0450
49550W        W92467  33.886  12.692  24.440 -0.0377 -0.3416  0.0567
49551W        W92468  33.281  11.713  24.864 -0.1033 -0.0127 -0.1588
49552W        W92469   0.288  13.703  23.779  0.1622 -0.0535 -0.0817
49553W        W92470  34.216  12.974  23.535 -0.1418 -0.0385  0.2007
49554W        W92471  34.347  12.860  27.432  0.1985 -0.1817 -0.1622
49555W        W92472  34.234  14.156  27.895 -0.0314  0.3067 -0.2574
49556W        W92473  32.836  12.977  24.268 -0.2666 -0.1171 -0.4964
49557W        W92474  34.323  11.096  26.574 -0.3061  0.3800  0.2018
49558W        W92475  34.549  13.127  22.881  0.0423 -0.0873  0.0466
49559W        W92476  33.292  14.920  24.357 -0.0167  0.2168  0.0809
49560W        W92477   0.348  12.629  26.181  0.0086 -0.1171 -0.2532
49561W        W92478  32.524  11.498  24.819  0.0609 -0.0594  0.1268
49562W        W92479  33.254  13.245  27.438  0.0354 -0.2792  0.0765
49563W        W92480  31.706  10.774  25.579  0.0294 -0.0071  0.0946
49564W        W92481  33.361  12.770  24.469 -0.1682  0.2666 -0.1282
49565W        W92482  33.948  12.969  26.121 -0.2266  0.0916  0.0505
49566W        W92483   0.428  11.651  27.851 -0.2077  0.0941 -0.1445
49567W        W92484  33.172  11.995  28.262  0.1261 -0.1736  0.0329
49568W        W92485  31.884  13.774  25.158 -0.1310 -0.4390 -0.3526
49569W        W92486  32.590  11.324  23.912  0.1659  0.1415  0.0813
49570W        W92487  31.851  10.496  26.369 -0.0056 -0.1014  0.2160
49571W        W92488  33.484   9.740  25.242  0.1511 -0.1424  0.1217
49572W        W92489  34.245  11.450  24.708  0.3482 -0.1196 -0.1695
49573W        W92490  32.479  13.424  23.871  0.1645 -0.0095 -0.0037
49574W        W92491  32.906  12.461  27.300 -0.0632 -0.0952  0.0229
49575W        W92492  33.109   9.226  28.603 -0.0467  0.2790  0.0508
49576W        W92493  32.459  10.019  22.918  0.4927 -0.0944 -0.3914
49577W        W92494   0.293  10.740  25.991  0.0539  0.1944  0.0224
49578W        W92495   0.414  13.090  26.421 -0.2336  0.0333 -0.2126
49579W        W92496  33.499  13.338  25.244  0.1048 -0.0582  0.3384
49580W        W92497  34.141  11.938  28.066  0.1118  0.0338 -0.0875
49581W        W92498  33.436  11.862  26.894  0.1711 -0.3070  0.0794
49582W        W92499  33.975   9.500  27.211  0.2776  0.1192  0.1598
49583W        W92500  33.415  12.997  27.017  0.0320 -0.2140  0.0492
49584W        W92501  33.971  10.328  24.031  0.3392 -0.1163  0.1928
49585W        W92502  30.807  11.977  25.816  0.0431 -0.2019  0.0356
49586W        W92503  33.176  11.796  25.826  0.1410 -0.1220 -0.1987
49587W        W92504  34.228  12.908  26.969 -0.0348  0.1300 -0.0932
49588W        W92505   1.693  12.716  24.521 -0.0401  0.1387  0.0743
49589W        W92506   0.303  13.401  26.021 -0.1119 -0.2160 -0.0691
49590W        W92507  33.645   9.732  25.689 -0.0792  0.1380 -0.2087
49591W        W92508  34.105  10.867  26.125 -0.0210  0.1119  0.0548
49592W        W92509  32.759  10.822  26.266 -0.1529 -0.2848 -0.3291
49593W        W92510  31.799  10.601  27.743  0.1310 -0.2224 -0.0252
49594W        W92511   1.544  13.167  25.395 -0.1680  0.4118  0.1421
49595W        W92512   3.094  13.191  31.418 -0.2293  0.2020  0.0325
49596W        W92513  32.990  12.962  28.560  0.2310 -0.2555  0.3544
49597W        W92514  31.899  12.436  27.508 -0.2765 -0.0778 -0.0938
49598W        W92515  33.497  11.023  30.766  0.0518  0.0815  0.0933
49599W        W92516   1.051  12.857  31.579  0.0520 -0.2271 -0.0328
49600W        W92517   1.007  14.812   1.434  0.2732  0.1352  0.0082
49601W        W92518  34.429  10.912  27.954  0.0997 -0.2631 -0.1258
49602W        W92519  32.886  12.330  29.457 -0.2770  0.2113 -0.0018
49603W        W92520  33.109  14.324  28.331  0.1340  0.0022  0.1088
49604W        W92521  33.791  12.169  29.216 -0.0079  0.0915  0.4685
49605W        W92522  33.364  11.432  27.765 -0.1022  0.2520  0.0547
49606W        W92523   0.552  12.731  31.628  0.1937  0.1712  0.2304
49607W        W92524   1.775  11.670  29.425 -0.2875 -0.0409 -0.2551
49608W        W92525  32.900  12.166  25.429  0.0165  0.0214 -0.1460
49609W        W92526  33.668  11.433  30.296 -0.0372  0.1909  0.1690
49610W        W92527  33.864  13.077  29.387 -0.0307  0.2140 -0.1097
49611W        W92528   1.818  13.638  29.605  0.1359  0.0960 -0.1665
49612W        W92529   1.672  13.505  30.152 -0.1808 -0.1800  0.1838
49613W        W92530  33.334  12.884  27.960 -0.0733 -0.2444 -0.0947
49614W        W92531  32.012  16.589  29.546  0.0809  0.1217 -0.0596
49615W        W92532  33.956  14.682  28.677 -0.1887 -0.0094 -0.1186
49616W        W92533   0.777  14.133  31.192 -0.2010  0.0785 -0.1775
49617W        W92534  34.022  14.180  26.923  0.2583  0.1788  0.1292
49618W        W92535   0.311  15.049  30.174  0.1673  0.1829 -0.1025
49619W        W92536   0.502  12.323  28.835  0.2104  0.3189  0.2738
49620W        W92537   0.521  13.425  29.107  0.0445  0.1288  0.2717
49621W        W92538  34.221  11.843   1.314 -0.0375  0.1900 -0.2087
49622W        W92539  34.236  13.190  29.760 -0.0555 -0.0656 -0.1677
49623W        W92540  32.710  14.296  27.379 -0.0840 -0.1295  0.3090
49624W        W92541  33.649  10.724  27.932 -0.1169  0.1986 -0.1692
49625W        W92542   0.890  10.395  27.283  0.3122 -0.3041 -0.0281
49626W        W92543  33.096  14.379  31.315 -0.3414 -0.2491 -0.0865
49627W        W92544   0.719  11.842  29.113 -0.0990 -0.2336 -0.0583
49628W        W92545  34.367  12.578   0.915  0.0386 -0.1650  0.0393
49629W        W92546   0.030  12.149  29.687 -0.2638 -0.0670 -0.0536
49630W        W92547   0.854  13.975  27.652  0.0536 -0.0813 -0.1073
49631W        W92548   0.003  11.959   1.264  0.2993  0.0695 -0.1459
49632W        W92549   1.417  12.188   0.348 -0.2865  0.1257  0.2574
49633W        W92550  33.790  10.175  28.005 -0.2894  0.0974 -0.3270
49634W        W92551  32.485  14.099   0.509  0.1042 -0.2640 -0.4587
49635W        W92552  34.011  14.453  29.177 -0.1663 -0.2154 -0.2134
49636W        W92553   0.169  12.534  28.572  0.2504 -0.1345 -0.1626
49637W        W92554   0.314  12.174  27.718  0.3974 -0.2472 -0.0646
49638W        W92555  32.738  13.851  30.469 -0.0003 -0.1172  0.0266
49639W        W92556  34.237  12.190   0.533  0.1891  0.1026 -0.2554
49640W        W92557   1.269  12.388  31.407  0.3900 -0.1654  0.1329
49641W        W92558   0.494  13.395  27.119 -0.2897  0.0384 -0.0581
49642W        W92559  32.537  13.489  31.290 -0.2759  0.0169 -0.2242
49643W        W92560  34.194  14.334  27.405  0.3177  0.1103 -0.2418
49644W        W92561  31.342  11.961  30.917  0.1738 -0.1420 -0.2034
49645W        W92562   0.501  13.490  29.880  0.0808 -0.0995  0.0889
49646W        W92563  34.172  12.551  30.632 -0.0758 -0.1163  0.0052
49647W        W92564  33.113  12.767  30.664 -0.0588  0.0253 -0.1103
49648W        W92565  33.372  12.667  31.739  0.0086  0.0923 -0.0583
49649W        W92566  33.372  13.140  29.365  0.3772 -0.2042  0.3739
49650W        W92567  34.523  12.200  31.194 -0.0063  0.1552  0.0206
49651W        W92568  33.024  11.455  26.844  0.2131 -0.2923 -0.0502
49652W        W92569  32.058  10.093  26.948 -0.1211 -0.2216  0.2471
49653W        W92570  33.250  12.846  28.951 -0.1511  0.2049  0.1216
49654W        W92571  32.838  15.186  28.532  0.3863  0.2680 -0.0108
49655W        W92572  34.096  12.727  29.668  0.1404  0.2041 -0.1227
49656W        W92573  32.414  11.987  28.060 -0.0035  0.0193 -0.4084
49657W        W92574  33.414  13.242  30.247 -0.0264 -0.0507  0.1270
49658W        W92575   0.938  14.747  29.015  0.1901  0.1890 -0.1955
49659W        W92576  33.725  11.634  26.411 -0.2580  0.0999 -0.1146
49660W        W92577  33.004  13.235  30.834 -0.1141 -0.3220 -0.4187
49661W        W92578  32.167   9.008  28.204  0.2421  0.0129 -0.1977
49662W        W92579  34.400  14.586  28.917 -0.6325 -0.4276 -0.0451
49663W        W92580  33.959  13.400  30.146  0.0491 -0.1199  0.0474
49664W        W92581   1.409  13.256  29.803 -0.0736 -0.2535  0.0484
49665W        W92582   0.438  14.014  29.013 -0.0475 -0.0074  0.2037
49666W        W92583  33.466  14.004  29.569  0.3299 -0.0401  0.4069
49667W        W92584  33.892  12.950  30.530 -0.4732 -0.0667 -0.1168
49668W        W92585  33.056  13.721  31.770  0.2946  0.0437  0.1183
49669W        W92586  33.771  12.651  27.134 -0.3176  0.0942  0.2892
49670W        W92587   1.047  13.246  29.286 -0.0284 -0.1712  0.2739
49671W        W92588  32.622  12.986  31.131  0.2051 -0.1312 -0.2482
49672W        W92589   0.375  11.673  28.323  0.2715  0.0293 -0.0147
49673W        W92590  34.250  12.729  27.911 -0.1504  0.1004 -0.0924
49674W        W92591  32.792  14.104  26.399  0.1950 -0.3216 -0.2186
49675W        W92592   1.397  11.170  30.086  0.2003  0.1571  0.1898
49676W        W92593  34.647  13.589  27.493  0.0874  0.1042 -0.2304
49677W        W92594   0.976  11.993  30.957 -0.0278  0.0981  0.0235
49678W        W92595  32.386  12.616  31.952 -0.1445 -0.2346 -0.0582
49679W        W92596  33.943  14.925  29.336  0.0773  0.3184  0.3132
49680W        W92597   0.012  12.492  30.826 -0.2887  0.2310  0.0415
49681W        W92598  33.552  15.400  27.727  0.1033  0.1098  0.1202
49682W        W92599  34.102  14.825  27.494 -0.0575 -0.2005 -0.0013
49683W        W92600   0.818  13.012  27.459 -0.1924 -0.0973  0.0427
49684W        W92601  34.461  13.411  30.221  0.0833  0.0599 -0.0110
49685W        W92602  33.278  14.154  26.425  0.0370 -0.1160 -0.3104
49686W        W92603  34.340  13.714  29.751 -0.0682 -0.1688 -0.3867
49687W        W92604  30.489  14.366  31.062  0.1634  0.1166  0.1488
49688W        W92605  33.399  12.375  27.869 -0.0965  0.1202 -0.2050
49689W        W92606  29.686  12.688  28.567  0.4471 -0.2549  0.0445
49690W        W92607   0.797  12.411  29.259  0.1779 -0.0499 -0.4891
49691W        W92608   0.704  12.995  28.069 -0.0493  0.1525  0.0954
49692W        W92609  32.958  14.206  31.808  0.0940 -0.2067  0.3196
49693W        W92610   0.081  13.776  30.043 -0.3711 -0.0097  0.1802
49694W        W92611  32.299  11.137  27.544  0.1146  0.1027 -0.1464
49695W        W92612   0.249  11.828  28.872  0.0492  0.0145  0.2380
49696W        W92613  31.831  15.719  28.993 -0.3619  0.0125 -0.2335
49697W        W92614  33.961  13.906  29.096  0.1701 -0.1215  0.2079
49698W        W92615  31.143  13.449  26.663 -0.3196 -0.2337 -0.3901
49699W        W92616   0.804  13.595  31.268 -0.1003  0.1495 -0.0815
49700W        W92617  33.540  10.997  28.419  0.2027 -0.0902  0.2093
49701W        W92618   1.258  11.702  27.822  0.2701  0.3425 -0.1918
49702W        W92619   0.100  11.354  28.689 -0.1793 -0.2502 -0.0283
49703W        W92620  34.640  12.721  29.803  0.0284 -0.0739  0.3001
49704W        W92621  32.656  13.046   0.336 -0.1890 -0.1411 -0.0725
49705W        W92622  33.990  14.007  29.665  0.2299 -0.3583 -0.0141
49706W        W92623  33.423  13.372  27.922 -0.2190 -0.0226 -0.0221
49707W        W92624  33.688  14.168  27.599 -0.0903  0.0182  0.0800
49708W        W92625   1.014  13.386   0.413 -0.1802 -0.2528  0.3951
49709W        W92626   1.616  12.912  30.239 -0.3253 -0.0945  0.0231
49710W        W92627  33.080  13.515  29.835  0.0940 -0.0751 -0.0528
49711W        W92628   0.432  12.876  29.919 -0.0704 -0.1539  0.1194
49712W        W92629  33.655  12.203  27.355 -0.0904 -0.0387  0.0057
49713W        W92630   0.344  11.774  29.845 -0.2382 -0.0747 -0.0917
49714W        W92631  32.466  12.826  30.083 -0.1331  0.2346 -0.0222
49715W        W92632   0.260  12.716   0.064 -0.0386 -0.0997 -0.3077
49716W        W92633  32.697  10.893  27.279 -0.1111 -0.2507 -0.3402
49717W        W92634  34.305  13.585  27.802  0.1167 -0.3314  0.0453
49718W        W92635   0.181  15.783  28.305 -0.1167 -0.3132  0.0459
49719W        W92636  33.226  12.956  29.872 -0.2565  0.1814 -0.1363
49720W        W92637   0.761  11.957  28.034 -0.0357 -0.3560  0.1639
49721W        W92638  32.949  14.601  29.221 -0.0232  0.0959  0.1583
49722W        W92639  33.782  12.667  29.134  0.1639 -0.0024  0.0330
49723W        W92640   0.509  12.641  30.656 -0.1081  0.0144 -0.0705
49724W        W92641  34.223  12.754  31.915  0.0336 -0.2631 -0.1469
49725W        W92642  31.803  11.475  31.126 -0.0590 -0.1497 -0.2428
49726W        W92643  33.241   8.713  25.809 -0.3391  0.1382 -0.1111
49727W        W92644  33.938  14.168  28.668 -0.2220  0.1698  0.0402
49728W        W92645  31.945  12.557  30.135  0.2434 -0.1221 -0.1407
49729W        W92646  34.142  13.465  30.661 -0.1213  0.0494 -0.2661
49730W        W92647  33.729  13.497  26.984 -0.0826  0.3653  0.0278
49731W        W92648   0.868  12.648  26.966 -0.0208 -0.0459  0.1663
49732W        W92649   1.231  14.445  28.665 -0.3467  0.0925 -0.3980
49733W        W92650  34.454   9.251  29.374 -0.0245 -0.0693  0.3638
49734W        W92651  31.657  11.795  28.078  0.1125 -0.0725 -0.0500
49735W        W92652  33.001  14.275  30.825  0.0882 -0.6039  0.0527
49736W        W92653  32.229  14.096  29.817  0.2563 -0.0021 -0.1865
49737W        W92654  34.575  13.369  28.238 -0.0909 -0.0366  0.0230
49738W        W92655  34.100  11.904  30.967 -0.1185 -0.1580  0.1046
49739W        W92656  34.483  13.465  31.612  0.3390 -0.0647  0.0820
49740W        W92657  34.055  15.621  29.404 -0.1349  0.0531  0.1385
49741W        W92658   1.264  12.500  31.913 -0.0357  0.3062 -0.0442
49742W        W92659  34.028  10.854  29.277 -0.3493  0.0080  0.0447
49743W        W92660  33.982  14.252  31.185  0.1419 -0.2371 -0.2638
49744W        W92661  34.027  13.697  31.565 -0.0227 -0.0562 -0.1495
49745W        W92662  32.565  15.656  28.597 -0.0845 -0.2750 -0.0246
49746W        W92663  34.510  13.236  28.807 -0.0290 -0.2502 -0.1275
49747W        W92664   0.340  13.937  30.444 -0.2265  0.1655 -0.4044
49748W        W92665   0.060  13.691  29.040  0.1813 -0.3573  0.2382
49749W        W92666  34.224  14.882  30.404 -0.2493  0.0862  0.0001
49750W        W92667  33.269  11.182  28.833 -0.3615  0.0040 -0.3248
49751W        W92668  33.957  11.136  28.100  0.0596  0.1031  0.3513
49752W        W92669   0.306  13.237  31.403 -0.3104 -0.1060  0.2663
49753W        W92670  34.167  13.062  31.511  0.0004 -0.1262 -0.0444
49754W        W92671   0.266  13.393  28.657  0.0929 -0.1649  0.0212
49755W        W92672  33.840  13.632  28.004 -0.0264 -0.2473  0.1792
49756W        W92673  34.315  13.350  27.175 -0.2016 -0.0663  0.3025
49757W        W92674   0.467  13.380  28.222  0.2009  0.2565 -0.0441
49758W        W92675  34.086  14.547  31.722  0.1588  0.5603  0.0042
49759W        W92676   1.576  12.692  30.678  0.0496  0.2061  0.0349
49760W        W92677  33.338  12.604  28.361  0.0502 -0.1826 -0.1717
49761W        W92678  33.047  12.778  31.382 -0.1857  0.0769  0.2067
49762W        W92679   0.703  12.576  30.196  0.2176  0.0443  0.0090
49763W        W92680   0.819  12.923   0.134  0.0499  0.0916  0.2014
49764W        W92681  34.205  12.497  28.864  0.0073  0.1835  0.5778
49765W        W92682  33.738  12.716  27.731 -0.0709 -0.0384 -0.0520
49766W        W92683  34.367  13.975  29.346  0.2322 -0.0235  0.2971
49767W        W92684   2.177  13.363  30.893 -0.0372 -0.0990 -0.2316
49768W        W92685   0.814  10.493  28.723  0.0611  0.0825 -0.0486
49769W        W92686   2.006  13.551  26.966 -0.1805  0.0376  0.5427
49770W        W92687  33.576  11.743  29.426 -0.3866 -0.0232 -0.0617
49771W        W92688   0.936  10.883  28.328 -0.0263  0.0334  0.0098
49772W        W92689   0.047  14.189  28.117  0.0851 -0.0539 -0.1708
49773W        W92690  31.407  13.480  27.865  0.0876 -0.1632 -0.4727
49774W        W92691   0.086  11.992  27.001  0.1185 -0.0029  0.0818
49775W        W92692   0.338  13.422  30.348 -0.2029  0.0970  0.0965
49776W        W92693  34.507  13.232  31.161 -0.0607  0.0134  0.2379
49777W        W92694  33.590  13.104  28.337 -0.0833 -0.1435 -0.3501
49778W        W92695   0.079  13.235  29.254 -0.0915 -0.1465 -0.3171
49779W        W92696  32.715  13.453  28.545 -0.0891  0.0025 -0.3886
49780W        W92697   0.060  13.860  28.536  0.0964 -0.1406 -0.2169
49781W        W92698   0.844  12.033  29.587  0.2560 -0.1246  0.3742
49782W        W92699  33.576  12.240  31.519  0.3579  0.0388 -0.0377
49783W        W92700   1.079  12.819  29.520 -0.2151 -0.1026 -0.1868
49784W        W92701  34.063  13.995  30.637  0.0932 -0.1965  0.1982
49785W        W92702  34.311  12.850  30.174 -0.1508 -0.0962 -0.2748
49786W        W92703  32.905  13.108  30.265 -0.0774  0.1556 -0.2841
49787W        W92704   1.119  12.471  30.870  0.2233 -0.1273  0.0023
49788W        W92705  34.380  13.037  30.616 -0.2107 -0.0281  0.1174
49789W        W92706  32.553  11.639  27.578 -0.0866 -0.1812  0.0374
49790W        W92707  33.319  10.125  28.394 -0.2371 -0.1704 -0.3114
49791W        W92708  33.240  11.501  29.206  0.1595 -0.1932  0.1193
49792W        W92709  34.252  11.824  29.643  0.1614  0.1169  0.1538
49793W        W92710  32.800  12.083  30.007  0.3682 -0.0971 -0.1602
49794W        W92711  33.094  13.341  28.246  0.0834 -0.1841 -0.2818
49795W        W92712   1.328  13.294  30.807 -0.1006 -0.2307 -0.0485
49796W        W92713   2.552  12.633   1.365  0.1079 -0.2091  0.4291
49797W        W92714  33.623  10.679  26.929 -0.2487  0.1406 -0.1708
49798W        W92715  33.891  12.963  28.726  0.2962  0.4926  0.1494
49799W        W92716   1.625  14.197  28.525  0.3614  0.3403 -0.3463
49800W        W92717   1.171  14.653  31.097  0.0530  0.1565  0.1221
49801W        W92718  33.270  11.729  30.068  0.1103  0.0418  0.1714
49802W        W92719   0.144  13.774  29.510  0.0281 -0.0908  0.0726
49803W        W92720  33.481  10.910   0.141  0.0099 -0.1232  0.0538
49804W        W92721  32.734  12.420  31.559 -0.1413  0.0995  0.0677
49805W        W92722  33.514  11.526  28.234 -0.2126  0.3150 -0.0456
49806W        W92723  33.745  12.379  28.749 -0.2314  0.3271 -0.0080
49807W        W92724  32.879  12.538  30.009 -0.0030 -0.1735  0.1152
49808W        W92725   1.133  12.853  30.063 -0.2796  0.2519  0.2523
49809W        W92726  33.983  13.173  27.843  0.1695  0.1482 -0.1135
49810W        W92727   0.986  15.115  30.824  0.1557 -0.4258 -0.1747
49811W        W92728  34.180  12.339  27.342  0.3733  0.1772 -0.2423
49812W        W92729  33.749  13.702  28.581  0.0230  0.4922 -0.0436
49813W        W92730  34.047  15.407  27.513 -0.1287 -0.0270 -0.0997
49814W        W92731   0.725  10.825  27.489 -0.2550  0.0800 -0.1109
49815W        W92732   0.513  12.439  29.722 -0.0958 -0.0399  0.2368
49816W        W92733   0.552  12.649   0.507  0.1573  0.1404  0.4044
49817W        W92734  33.077  12.678   0.204 -0.1025 -0.1646 -0.4545
49818W        W92735   1.043  14.711   1.948 -0.3810  0.2228  0.2830
49819W        W92736  33.293  13.401  28.714 -0.1016  0.0394 -0.0728
49820W        W92737   0.240  11.298  30.751  0.1172  0.0542  0.1179
49821W        W92738   1.259  11.657  29.654  0.3377  0.2100  0.0500
49822W        W92739  34.612  13.002  31.618  0.0351  0.1395 -0.3763
49823W        W92740  33.270  13.899  31.296  0.2816 -0.2122  0.1001
49824W        W92741  33.790  13.031   1.999  0.0428  0.1042  0.2965
49825W        W92742  34.395  11.803   0.833  0.0610  0.0194  0.0846
49826W        W92743  34.297  11.858   0.045 -0.0367 -0.1920 -0.0147
49827W        W92744  34.080  11.958  30.071 -0.1151  0.1563 -0.1001
49828W        W92745  33.580  13.715   1.506 -0.2356 -0.1224  0.1609
49829W        W92746   1.348  12.452  29.222 -0.2254 -0.0050 -0.0504
49830W        W92747  33.511  13.535  31.563 -0.2437  0.0092 -0.0029
49831W        W92748  33.223  13.156   0.431  0.0441 -0.0557 -0.1768
49832W        W92749   0.300  13.842   0.242 -0.1487 -0.2269 -0.1031
49833W        W92750  33.619  14.265  30.448 -0.1251 -0.0120 -0.2674
49834W        W92751  33.240  11.678  31.538  0.0678 -0.3098 -0.3528
49835W        W92752  34.369  10.338  31.019  0.2521  0.1076  0.1671
49836W        W92753   0.838  13.788   1.110 -0.2273 -0.0726  0.2006
49837W        W92754   0.573  12.929   1.733 -0.2988 -0.0809  0.0296
49838W        W92755  34.587  12.498  31.641  0.0430  0.1140  0.1840
49839W        W92756  32.405  11.810  30.184 -0.1965  0.0743 -0.0247
49840W        W92757   1.180  12.701   1.840  0.1592  0.1315 -0.2747
49841W        W92758   0.450  10.999   0.505  0.1490 -0.1250 -0.4658
49842W        W92759  33.180  11.442  30.545 -0.1792  0.2315  0.1626
49843W        W92760  34.133  11.667  30.546 -0.0943  0.0332 -0.0877
49844W        W92761  33.724  12.463   0.941 -0.1879  0.3139 -0.3290
49845W        W92762   1.849  13.042   0.115  0.0238  0.1079 -0.1849
49846W        W92763   1.185  13.749  28.509  0.0578 -0.3003 -0.1920
49847W        W92764   0.563  11.379  31.233 -0.1249 -0.1445 -0.0928
49848W        W92765   0.399  14.479  30.071  0.1598  0.1489  0.0355
49849W        W92766  34.288  16.014  31.265 -0.0883  0.1216 -0.2800
49850W        W92767  33.912  13.410   0.866 -0.3190 -0.1234  0.1273
49851W        W92768  33.705  11.334   0.078  0.1681  0.1128 -0.0003
49852W        W92769   0.632  16.028   0.110 -0.0711  0.0596 -0.1844
49853W        W92770   0.386  13.123   0.369  0.0541 -0.0209  0.2562
49854W        W92771  32.846  10.066  31.659  0.0343  0.3173 -0.1181
49855W        W92772  33.342  19.461  19.646 -0.0826  0.2639  0.0354
49856W        W92773  33.181  17.217  16.777  0.0346 -0.1995 -0.1984
49857W        W92774  29.308  15.045  19.846 -0.1504 -0.1977  0.0396
49858W        W92775  32.614  14.632  19.176  0.3986  0.1483  0.0577
49859W        W92776  34.297  19.123  18.458  0.0105  0.1827 -0.0774
49860W        W92777  33.967  15.953  19.504 -0.0402 -0.0095 -0.0526
49861W        W92778  31.658  13.817  17.571 -0.1777  0.2413 -0.1813
49862W        W92779  32.869  14.081  19.960  0.2190 -0.2097 -0.3041
49863W        W92780  30.716  18.141  18.913 -0.3809 -0.1528 -0.2661
49864W        W92781  33.084  15.733  20.447  0.0878 -0.0960  0.3485
49865W        W92782  34.434  15.886  18.041 -0.1432 -0.0876 -0.1644
49866W        W92783   0.825  15.003  20.884 -0.0845 -0.0037 -0.2034
49867W        W92784   0.708  16.934  16.926 -0.0321 -0.0623 -0.0682
49868W        W92785  32.160  16.566  16.591 -0.0424 -0.1254  0.0740
49869W        W92786  31.768  18.274  17.917  0.1119  0.1010  0.1484
49870W        W92787  31.979  18.018  20.307 -0.0773  0.1888 -0.1593
49871W        W92788  32.339  19.057  17.583 -0.4182  0.1459  0.2296
49872W        W92789  34.512  18.126  18.524 -0.1366  0.1098 -0.0525
49873W        W92790  34.530  19.571  17.626  0.1724 -0.0263 -0.2027
49874W        W92791  32.081  16.961  18.468  0.0498 -0.1944  0.1316
49875W        W92792  33.912  17.664  17.361  0.1739 -0.1304 -0.1046
49876W        W92793  32.473  17.702  19.742  0.2461 -0.2137  0.0575
49877W        W92794  30.672  16.893  17.160 -0.2331 -0.0590  0.3697
49878W        W92795  33.276  17.784  20.784 -0.2937 -0.0169  0.1189
49879W        W92796  34.449  17.881  16.601 -0.1590 -0.0269  0.2119
49880W        W92797   0.890  16.848  19.514 -0.1447 -0.2892 -0.0967
49881W        W92798  33.036  14.831  19.400 -0.2205  0.2233 -0.0640
49882W        W92799  32.697  18.054  19.451  0.0972 -0.3066  0.1154
49883W        W92800  33.213  18.676  18.655  0.1974 -0.0718  0.0917
49884W        W92801  33.590  15.530  17.134  0.0319 -0.2079  0.1088
49885W        W92802  33.745  13.606  18.238  0.0418 -0.1737 -0.2341
49886W        W92803  33.440  18.495  19.096  0.1971 -0.2259 -0.0411
49887W        W92804  32.552  16.520  16.953  0.1430 -0.2650  0.3633
49888W        W92805   0.261  16.148  20.444 -0.4261 -0.0706  0.1764
49889W        W92806  33.019  17.692  19.389 -0.0716  0.0532  0.0856
49890W        W92807  33.521  16.724  16.838 -0.1758  0.0896 -0.1461
49891W        W92808  32.588  16.888  20.397  0.0310 -0.2070  0.2977
49892W        W92809  32.757  15.654  18.487  0.0103  0.0496 -0.0263
49893W        W92810  34.214  16.800  17.692 -0.3176  0.0684  0.2979
49894W        W92811  31.749  16.186  19.636  0.0014 -0.1141  0.1601
49895W        W92812  33.952  17.627  19.865 -0.1765  0.3997 -0.3070
49896W        W92813  31.504  14.926  19.455 -0.0781 -0.0022 -0.0119
49897W        W92814  33.333  17.320  18.819  0.2423  0.0743 -0.0440
49898W        W92815   0.634  19.215  18.623  0.0993 -0.0684 -0.3975
49899W        W92816  32.215  14.239  19.225  0.1789  0.1107  0.1250
49900W        W92817  34.669  18.429  20.154  0.2208  0.0442 -0.1865
49901W        W92818  32.695  17.168  17.025 -0.1325  0.1515  0.0467
49902W        W92819  32.417  17.216  17.529  0.1388 -0.1368  0.2824
49903W        W92820  32.146  16.442  17.893 -0.1475 -0.0201 -0.3757
49904W        W92821  31.373  15.468  18.647  0.3647  0.2290  0.4335
49905W        W92822  32.669  15.472  20.349  0.3409 -0.3096  0.2042
49906W        W92823   0.030  14.497  18.947  0.2115 -0.2339 -0.1566
49907W        W92824  33.020  16.090  19.182  0.2948  0.0479 -0.0117
49908W        W92825  33.033  16.102  18.244 -0.1252  0.0923  0.1171
49909W        W92826  32.431  15.917  17.497 -0.2421  0.3659  0.1197
49910W        W92827  33.036  14.725  20.200  0.0983 -0.0061 -0.1563
49911W        W92828  32.735  15.488  17.693 -0.0866 -0.6658 -0.0020
49912W        W92829  32.109  14.240  18.530  0.2040  0.0596 -0.0611
49913W        W92830   0.304  16.109  17.903 -0.0116  0.1509 -0.2583
49914W        W92831  31.469  15.777  17.855 -0.1050 -0.0378 -0.6014
49915W        W92832  33.037  14.863  20.736  0.1916 -0.1731 -0.2163
49916W        W92833  32.317  15.230  16.836 -0.2812 -0.0195 -0.1337
49917W        W92834  34.523  18.747  18.827 -0.0345 -0.0887  0.0200
49918W        W92835  34.203  17.762  18.955 -0.1687  0.0564 -0.0335
49919W        W92836  31.498  14.579  17.014 -0.1243  0.3611  0.0747
49920W        W92837  31.190  16.522  19.286  0.0684  0.2209  0.1285
49921W        W92838  33.545  14.345  18.055 -0.0280  0.0641 -0.0757
49922W        W92839  31.413  17.079  16.377 -0.0122 -0.1192 -0.0376
49923W        W92840  31.319  16.237  18.772  0.0404 -0.2715  0.2437
49924W        W92841  33.630  18.014  18.344 -0.0977  0.1756  0.0330
49925W        W92842  32.066  15.809  21.537  0.0341 -0.1225  0.3304
49926W        W92843  33.367  15.953  17.317  0.2099  0.0261  0.0288
49927W        W92844  33.410  17.246  20.725  0.1945 -0.0946  0.2027
49928W        W92845  32.790  18.539  19.585  0.2996  0.1927 -0.0222
49929W        W92846  34.129  18.898  18.065 -0.0702  0.1790  0.0454
49930W        W92847  34.061  17.971  19.476 -0.1737 -0.0241  0.1437
49931W        W92848  32.051  17.458  18.497 -0.1996  0.0476  0.2765
49932W        W92849  33.256  15.298  19.004 -0.2860 -0.1064 -0.1712
49933W        W92850  32.571  16.035  16.967 -0.1478 -0.2074 -0.0627
49934W        W92851  32.504  18.358  18.473  0.2320  0.0340 -0.1091
49935W        W92852  33.514  16.547  19.991 -0.0358  0.1621 -0.1955
49936W        W92853  32.688  15.374  17.124 -0.1562 -0.0416 -0.1360
49937W        W92854  33.875  16.053  18.738 -0.0140 -0.1580  0.0217
49938W        W92855  32.620  15.947  20.038  0.4178  0.3860  0.5364
49939W        W92856  31.393  18.066  18.150  0.0027 -0.1586 -0.1167
49940W        W92857  34.368  15.175  19.937 -0.1598 -0.0968  0.0305
49941W        W92858  32.912  17.267  17.467 -0.0644  0.0202  0.2919
49942W        W92859  32.794  15.819  19.551 -0.3451 -0.2408  0.1274
49943W        W92860  34.157  14.994  17.725  0.1031 -0.3822 -0.1574
49944W        W92861  33.723  18.971  19.285 -0.3366  0.2366  0.0361
49945W        W92862  33.822  17.193  17.500 -0.0234 -0.0585  0.3387
49946W        W92863  34.550  19.130  17.966 -0.0522  0.1122 -0.0374
49947W        W92864  31.046  17.611  18.122  0.1508 -0.0089  0.0881
49948W        W92865  33.431  15.803  17.834 -0.2505  0.0432 -0.1090
49949W        W92866  31.188  14.883  19.068 -0.3900 -0.0607  0.2539
49950W        W92867  31.360  15.010  18.412 -0.0046  0.0071  0.2708
49951W        W92868  32.263  15.053  19.136 -0.2545 -0.1603  0.0422
49952W        W92869  32.026  18.410  18.364 -0.0389 -0.0146 -0.0600
49953W        W92870  33.631  15.776  21.208  0.0336 -0.0083  0.1882
49954W        W92871  32.164  16.775  17.131  0.3440  0.2960 -0.0404
49955W        W92872  34.582  18.097  17.974  0.1015  0.2345 -0.3054
49956W        W92873  31.788  17.221  18.118  0.0076  0.1442  0.3917
49957W        W92874  33.398  15.843  16.245 -0.2106 -0.2882  0.1915
49958W        W92875  33.744  18.560  17.292 -0.2030 -0.4274 -0.2175
49959W        W92876  32.042  16.172  21.167 -0.1591 -0.1191  0.1827
49960W        W92877  30.925  15.352  18.928  0.1241 -0.2804 -0.2368
49961W        W92878  34.210  15.379  18.101  0.0567  0.1012  0.1033
49962W        W92879  33.062  17.133  18.341 -0.2574 -0.0064  0.0999
49963W        W92880  32.780  15.112  19.953 -0.2577 -0.0279  0.0333
49964W        W92881  32.962  17.948  20.432 -0.1661 -0.2343  0.0264
49965W        W92882  33.115  17.837  17.502  0.3455 -0.0323 -0.2542
49966W        W92883  33.272  14.792  18.908  0.1980 -0.2776  0.2256
49967W        W92884  33.657  17.046  19.108 -0.1063  0.0866 -0.0069
49968W        W92885  32.461  15.479  19.861 -0.0597  0.1447 -0.1825
49969W        W92886  33.885  18.343  18.561  0.1821  0.1418  0.0462
49970W        W92887  34.570  18.127  17.464  0.1724 -0.1984 -0.0999
49971W        W92888  33.561  17.935  19.570  0.1358  0.1381 -0.0572
49972W        W92889   0.217  16.228  19.259 -0.0845 -0.0326  0.0819
49973W        W92890  32.772  15.667  19.014 -0.0258  0.0524  0.4222
49974W        W92891  31.630  16.916  19.334 -0.0046  0.2947  0.0350
49975W        W92892  32.700  16.589  20.022 -0.1331  0.0763  0.4180
49976W        W92893  32.626  12.912  16.733 -0.1360 -0.2112  0.0401
49977W        W92894  34.209  17.392  18.502 -0.1850 -0.2156  0.2749
49978W        W92895   1.319  17.996  16.763 -0.0104  0.1039 -0.0043
49979W        W92896  33.375  17.790  19.105 -0.0840  0.0610  0.2547
49980W        W92897   1.130  17.808  17.186  0.2363 -0.0412  0.0215
49981W        W92898  33.898  18.006  20.237 -0.2521  0.1049 -0.6502
49982W        W92899  31.454  15.348  19.769 -0.2098  0.0558 -0.0793
49983W        W92900  34.141  15.271  18.948  0.2307  0.0941 -0.5370
49984W        W92901  32.803  15.137  19.068  0.0793 -0.1690 -0.0415
49985W        W92902  31.838  17.183  18.994  0.0092 -0.2478 -0.2406
49986W        W92903  33.381  13.955  17.445  0.1965 -0.1917  0.3294
49987W        W92904  34.222  17.361  16.944  0.3581 -0.0978 -0.0238
49988W        W92905  33.552  15.153  19.511 -0.0417  0.0761 -0.1765
49989W        W92906  32.380  20.358  19.465  0.0927 -0.1448  0.1182
49990W        W92907  32.191  15.692  16.854  0.0277  0.0994  0.1697
49991W        W92908  34.077  17.853  18.408 -0.2000 -0.0345 -0.0189
49992W        W92909  34.341  14.614  19.812  0.2155  0.2081  0.0486
49993W        W92910   1.937  14.345  17.876  0.0733  0.0324  0.3849
49994W        W92911  32.568  16.158  18.483 -0.1975  0.0592 -0.3821
49995W        W92912  34.113  18.259  18.052  0.2432  0.2871 -0.0152
49996W        W92913  33.540  18.554  18.238  0.1045  0.4647  0.0226
49997W        W92914  34.359  18.407  16.542  0.3502  0.0325  0.0921
49998W        W92915   0.228  18.414  18.761 -0.3514  0.0771 -0.2832
49999W        W92916  33.455  16.780  18.276  0.0238 -0.2826 -0.1751
50000W        W92917  32.782  16.627  19.118  0.0091 -0.3670 -0.0696
50001W        W92918  31.792  15.674  20.498  0.1560 -0.0515  0.2472
50002W        W92919  32.951  15.980  17.690  0.0141  0.0889 -0.2053
50003W        W92920  32.827  17.236  19.439 -0.0852  0.0761  0.0678
50004W        W92921  31.674  16.222  18.358 -0.0695  0.1813 -0.0922
50005W        W92922  31.647  18.005  19.165 -0.0644 -0.1426  0.0396
50006W        W92923   0.074  17.339  17.080 -0.0685  0.3673 -0.0601
50007W        W92924   0.783  17.931  17.822 -0.1438 -0.1809 -0.1828
50008W        W92925  33.017  16.777  16.960  0.1381  0.0378 -0.0096
50009W        W92926   0.642  18.909  18.207 -0.0890 -0.1664  0.0518
50010W        W92927  33.789  17.148  19.801 -0.0421 -0.1574  0.0068
50011W        W92928  34.570  15.911  17.567 -0.2779 -0.2502 -0.0140
50012W        W92929  32.116  16.318  17.410 -0.2629 -0.1219 -0.1819
50013W        W92930  33.394  17.346  19.374 -0.0741  0.1871  0.3036
50014W        W92931  30.377  16.413  18.752  0.0785  0.2361  0.2478
50015W        W92932   0.318  17.804  17.933 -0.0560  0.0487  0.0986
50016W        W92933  31.257  18.375  17.296 -0.0096 -0.1940  0.1074
50017W        W92934  33.759  17.674  18.750  0.1554 -0.2532  0.0885
50018W        W92935  32.189  17.955  18.590  0.6750  0.0971 -0.0439
50019W        W92936  33.461  18.113  17.884 -0.0359 -0.1365 -0.0592
50020W        W92937  30.671  14.987  19.138 -0.2748 -0.1559  0.0522
50021W        W92938  31.523  15.847  20.013  0.0687  0.0876 -0.1144
50022W        W92939  31.923  16.739  17.564 -0.0108 -0.1389 -0.2665
50023W        W92940  31.889  16.204  20.142  0.0816 -0.4072  0.0103
50024W        W92941   0.364  16.037  16.506  0.1431  0.2146  0.1162
50025W        W92942  32.036  14.981  17.428  0.3395 -0.2859  0.0762
50026W        W92943  32.086  15.165  18.016  0.1438  0.1878 -0.1661
50027W        W92944  32.380  16.428  20.833  0.0699 -0.0871 -0.1006
50028W        W92945  33.139  14.582  17.664  0.1965 -0.3312 -0.1358
50029W        W92946  34.512  16.931  17.251  0.0826  0.0307  0.0189
50030W        W92947  31.441  13.078  18.687  0.1814 -0.0042 -0.0784
50031W        W92948   0.608  15.369  17.394 -0.2455 -0.0614  0.1605
50032W        W92949  34.092  17.245  18.961 -0.3245  0.4134 -0.1411
50033W        W92950  34.476  17.646  19.372  0.2151  0.0089 -0.2900
50034W        W92951   0.142  18.208  16.511 -0.0594 -0.3024 -0.4004
50035W        W92952  34.584  18.419  19.237 -0.3715 -0.0798 -0.0721
50036W        W92953  34.166  18.970  19.882 -0.3080  0.0980 -0.0554
50037W        W92954  32.848  17.341  18.921 -0.0584  0.4532  0.0358
50038W        W92955  32.817  18.450  20.509  0.1495  0.1356  0.1899
50039W        W92956  33.287  16.328  17.903  0.0125  0.2549  0.0478
50040W        W92957  33.357  18.150  16.543 -0.1373 -0.3330 -0.0755
50041W        W92958   0.893  15.397  19.290 -0.0770  0.2523 -0.1757
50042W        W92959  33.290  16.848  18.713 -0.1176 -0.0394  0.3524
50043W        W92960  33.773  14.918  20.222  0.1148  0.0450 -0.1294
50044W        W92961  32.916  15.019  17.397 -0.0616  0.1515  0.1681
50045W        W92962  33.723  17.179  17.026 -0.2342 -0.2390 -0.2063
50046W        W92963  32.738  18.849  17.878 -0.2434 -0.1664  0.1895
50047W        W92964  33.551  16.010  19.124  0.2777 -0.0143 -0.1031
50048W        W92965  31.935  14.173  21.065 -0.0627 -0.0774 -0.1790
50049W        W92966  32.033  15.939  18.060 -0.1354 -0.2157 -0.0149
50050W        W92967  32.974  15.765  17.036 -0.1867  0.1754 -0.1744
50051W        W92968  33.113  13.076  17.528  0.2887 -0.2051  0.0327
50052W        W92969  30.438  15.909  18.437  0.1109 -0.1268  0.0117
50053W        W92970  33.899  15.822  17.943  0.3104 -0.0958 -0.3288
50054W        W92971  32.328  17.065  16.645 -0.3267 -0.1697  0.0174
50055W        W92972   0.080  15.878  20.028 -0.0944  0.0409 -0.0015
50056W        W92973   0.266  15.607  20.401  0.0830 -0.2870  0.1379
50057W        W92974  33.333  16.538  17.280  0.2481 -0.4292  0.1488
50058W        W92975  33.205  17.288  17.897  0.1135 -0.0225  0.1978
50059W        W92976  34.544  17.648  18.213  0.1766 -0.0067 -0.0894
50060W        W92977  34.296  18.571  18.385 -0.2170 -0.1236 -0.3942
50061W        W92978  31.008  14.348  19.211  0.3802  0.0042  0.4217
50062W        W92979  34.276  17.270  19.745 -0.1978  0.2411  0.1876
50063W        W92980  34.303  14.441  20.874  0.1060 -0.0572  0.0103
50064W        W92981  32.130  17.100  20.525 -0.3368 -0.0385  0.2705
50065W        W92982  32.230  15.795  18.526 -0.2322  0.1241 -0.1750
50066W        W92983  30.972  15.738  17.671 -0.0518 -0.1678 -0.1862
50067W        W92984   1.437  14.994  19.626 -0.1642 -0.2280 -0.0286
50068W        W92985  33.406  16.484  20.467 -0.1881 -0.0042 -0.0342
50069W        W92986  33.342  17.044  17.359 -0.1259 -0.0597 -0.0427
50070W        W92987  34.343  19.554  18.219  0.3462 -0.0532  0.1388
50071W        W92988  32.405  13.194  19.283 -0.0432  0.2493 -0.0396
50072W        W92989  33.927  15.736  16.796 -0.0009 -0.1330  0.0315
50073W        W92990  34.497  15.863  19.394 -0.1525 -0.1362  0.2011
50074W        W92991  33.472  17.482  18.322 -0.1703 -0.1859 -0.1016
50075W        W92992   0.062  17.625  20.540 -0.1575 -0.0105  0.1390
50076W        W92993  33.035  17.378  21.576  0.1715 -0.0375  0.4379
50077W        W92994  33.899  16.194  20.741 -0.0988  0.2972 -0.2055
50078W        W92995  32.265  14.552  21.222 -0.1443  0.0524  0.0900
50079W        W92996  33.531  14.760  21.969 -0.2899  0.2242 -0.0991
50080W        W92997  33.389  15.640  22.234 -0.1495  0.2511 -0.1879
50081W        W92998  34.143  16.984  21.049 -0.0571 -0.2043 -0.0250
50082W        W92999  34.381  13.275  20.552 -0.0324  0.0207 -0.2868
50083W        W93000  32.609  13.596  21.738  0.2124 -0.0258 -0.1641
50084W        W93001  33.907  14.764  22.295 -0.1034  0.0464 -0.4489
50085W        W93002   1.705  16.241  21.762  0.4057  0.4942 -0.0412
50086W        W93003  34.321  14.147  20.081  0.0154 -0.1367  0.0635
50087W        W93004  32.956  16.287  23.914  0.0929 -0.4713  0.1785
50088W        W93005  33.035  15.215  21.248  0.2688  0.0136 -0.1478
50089W        W93006  32.245  16.866  19.209  0.0415  0.2764 -0.1908
50090W        W93007  34.418  15.827  21.233  0.0474 -0.2645 -0.0780
50091W        W93008  33.703  17.720  23.386 -0.1177  0.0975 -0.2535
50092W        W93009  33.712  17.412  22.072  0.0162  0.3421  0.2189
50093W        W93010   1.218  18.920  20.612  0.0690 -0.1953  0.1636
50094W        W93011  31.574  16.583  23.091  0.0917  0.1368 -0.1912
50095W        W93012  33.751  18.702  20.644 -0.1781 -0.0766 -0.3184
50096W        W93013  33.686  16.961  21.246 -0.0613  0.2293 -0.1541
50097W        W93014  33.062  19.561  24.544  0.0023  0.1542 -0.1236
50098W        W93015  33.277  15.669  19.299  0.1301  0.0919  0.1504
50099W        W93016  34.142  17.203  22.042 -0.0677  0.0410 -0.2577
50100W        W93017  34.007  17.762  21.173 -0.2052 -0.1053  0.2348
50101W        W93018   0.222  15.719  20.908 -0.0415 -0.1009 -0.2284
50102W        W93019   0.323  16.184  24.346 -0.0581 -0.1659 -0.3929
50103W        W93020  32.345  17.261  18.863 -0.2138 -0.0796  0.3350
50104W        W93021  33.933  16.152  21.312 -0.2231  0.0987 -0.0514
50105W        W93022  34.336  16.168  22.813 -0.2740 -0.2966 -0.0497
50106W        W93023   1.253  14.788  21.643 -0.0754 -0.0188  0.1915
50107W        W93024   0.527  16.400  21.362  0.2069  0.0843 -0.4880
50108W        W93025   0.939  15.098  23.119  0.2702  0.1154  0.2926
50109W        W93026  33.517  16.770  24.627  0.0856 -0.2175  0.1103
50110W        W93027   0.039  15.879  22.945 -0.0953  0.0968 -0.1510
50111W        W93028  31.821  15.697  20.990  0.0131 -0.0707  0.1399
50112W        W93029  32.503  19.377  22.090  0.1567 -0.1679 -0.2600
50113W        W93030  33.410  17.192  22.586 -0.3552  0.1550  0.2747
50114W        W93031  33.786  14.131  18.443  0.4126 -0.1743  0.2302
50115W        W93032   0.780  16.596  23.595  0.1314  0.2360 -0.3041
50116W        W93033   0.119  17.324  19.605  0.0732 -0.0469  0.0823
50117W        W93034  32.569  13.571  21.244  0.0259  0.0318 -0.0763
50118W        W93035  32.930  16.224  23.376  0.0080  0.1248 -0.1894
50119W        W93036  33.811  18.444  22.252  0.2026  0.2438  0.1559
50120W        W93037  34.459  14.647  24.036 -0.1711  0.2285  0.0105
50121W        W93038  32.874  16.020  22.894 -0.1419 -0.0233 -0.1220
50122W        W93039  33.624  18.324  21.724 -0.1417 -0.2616 -0.1243
50123W        W93040  31.185  16.699  21.981  0.1256  0.1796 -0.5410
50124W        W93041  32.924  15.739  21.083 -0.1734  0.1026  0.2781
50125W        W93042  31.786  13.987  20.653 -0.0955 -0.0364 -0.1060
50126W        W93043  34.534  17.720  22.678 -0.0984 -0.0456  0.0795
50127W        W93044  33.349  14.871  22.814  0.3634  0.0147  0.1477
50128W        W93045  33.675  13.766  21.011 -0.1984 -0.0262 -0.1616
50129W        W93046  33.282  16.772  21.618  0.2062 -0.3490 -0.1525
50130W        W93047  32.612  14.368  22.629  0.2051  0.0484 -0.0304
50131W        W93048   0.113  14.864  22.729  0.2850  0.2415 -0.2182
50132W        W93049  34.183  14.320  22.866  0.3156  0.0171  0.1040
50133W        W93050  34.406  15.514  18.568  0.0869 -0.2344 -0.1227
50134W        W93051   1.645  13.914  21.517  0.1366 -0.0751  0.2614
50135W        W93052  32.612  17.404  20.517 -0.0517 -0.2496 -0.1303
50136W        W93053  32.503  15.914  22.304 -0.0175 -0.0148  0.1462
50137W        W93054  34.186  17.571  20.362 -0.2330 -0.0866 -0.0355
50138W        W93055  33.443  18.648  19.672 -0.1184  0.1639 -0.1167
50139W        W93056   0.248  15.946  21.627  0.1107 -0.4767 -0.2632
50140W        W93057   1.453  13.591  20.715  0.1169  0.2064 -0.0305
50141W        W93058  33.939  16.495  22.606  0.2305  0.0697  0.0926
50142W        W93059  32.658  13.362  22.529 -0.0094  0.1388  0.1828
50143W        W93060  29.405  17.318  21.557  0.2586  0.2169 -0.1391
50144W        W93061   1.009  16.087  22.752 -0.1716  0.0801 -0.1208
50145W        W93062   1.212  16.744  22.090  0.3636  0.0913 -0.1859
50146W        W93063  32.033  14.839  24.218 -0.0194  0.2175 -0.1248
50147W        W93064  33.058  16.160  19.824 -0.1654 -0.1244  0.1790
50148W        W93065  34.321  17.975  24.698  0.1840  0.1313 -0.1019
50149W        W93066  33.508  19.108  25.127 -0.1762  0.0670 -0.2855
50150W        W93067   2.450  16.942  21.640  0.1343  0.1952 -0.0766
50151W        W93068   1.231  17.154  22.374  0.4125 -0.0958  0.0612
50152W        W93069  33.785  16.040  22.890 -0.1333  0.1752 -0.1811
50153W        W93070  33.640  15.084  23.240  0.1894 -0.0226 -0.1465
50154W        W93071  32.727  16.403  17.897 -0.1614 -0.1539 -0.0006
50155W        W93072  33.930  20.777  20.538  0.0604  0.1188  0.0526
50156W        W93073  33.695  15.861  24.129 -0.3193 -0.1557  0.1878
50157W        W93074  31.144  16.059  21.340  0.1222 -0.3150  0.1597
50158W        W93075  34.230  15.693  22.625  0.2181 -0.1358 -0.5149
50159W        W93076  33.646  16.494  21.518  0.1983 -0.1322  0.1617
50160W        W93077   0.027  17.935  21.183 -0.1570  0.3121 -0.4063
50161W        W93078   1.185  18.779  25.317  0.2126  0.3020  0.1335
50162W        W93079  33.217  17.096  21.170 -0.2692 -0.5165 -0.0716
50163W        W93080  33.811  15.035  22.781 -0.0761  0.1594  0.2518
50164W        W93081   1.168  14.137  20.151 -0.2901  0.1206 -0.1485
50165W        W93082   0.079  15.499  21.353 -0.3840 -0.0455 -0.0361
50166W        W93083  33.342  16.518  19.107 -0.0422 -0.0904  0.0907
50167W        W93084  31.142  18.267  20.751 -0.0892  0.1250 -0.0424
50168W        W93085  33.291  18.070  23.430 -0.1889  0.1205 -0.2764
50169W        W93086  33.247  13.822  19.150 -0.1219  0.2876 -0.0546
50170W        W93087  33.026  14.197  21.468  0.0764  0.3054 -0.0988
50171W        W93088  33.659  15.333  21.366  0.1853 -0.0567 -0.0224
50172W        W93089   0.744  13.866  21.997 -0.0443 -0.1318 -0.0906
50173W        W93090  33.496  17.272  21.629  0.3539  0.0261  0.0137
50174W        W93091  32.176  16.321  25.794 -0.4344 -0.1405 -0.1436
50175W        W93092   0.401  14.932  21.929  0.0125  0.0265 -0.0460
50176W        W93093   0.944  13.488  21.510  0.3024 -0.1335 -0.1864
50177W        W93094  32.850  16.440  21.674 -0.2219  0.1034  0.2368
50178W        W93095  32.533  16.040  21.823  0.0511  0.0793 -0.2391
50179W        W93096  33.901  16.362  20.254  0.0387 -0.0639 -0.0371
50180W        W93097  34.328  14.064  23.282 -0.0706 -0.0750  0.0249
50181W        W93098  34.275  14.806  22.996  0.0897  0.0719 -0.3716
50182W        W93099  34.404  14.950  22.062 -0.1225 -0.1262 -0.4691
50183W        W93100   1.679  15.062  20.334 -0.1445  0.2420 -0.0331
50184W        W93101  32.853  15.399  23.854  0.0908  0.2088 -0.1352
50185W        W93102  34.303  17.855  24.081  0.2790  0.0514  0.2017
50186W        W93103  33.707  15.745  21.708  0.2538  0.2050  0.1607
50187W        W93104  32.716  18.512  21.330 -0.4177  0.3794  0.0993
50188W        W93105  32.357  17.384  19.375  0.2167 -0.0502  0.0065
50189W        W93106   1.457  14.915  22.071  0.0771  0.0954  0.0250
50190W        W93107   0.274  17.458  23.322  0.1036  0.1819 -0.2337
50191W        W93108   1.548  15.503  19.675 -0.0673 -0.0033 -0.1905
50192W        W93109  32.408  16.224  22.678 -0.1856 -0.2451  0.1759
50193W        W93110  33.840  13.303  20.917 -0.2869  0.0433 -0.0644
50194W        W93111   0.455  14.261  22.014 -0.3160 -0.0577 -0.1408
50195W        W93112  32.169  15.634  22.018 -0.1696  0.2719  0.5849
50196W        W93113  32.787  17.644  22.587  0.1856 -0.2685 -0.3096
50197W        W93114  34.030  13.827  19.414 -0.0404  0.0377  0.2653
50198W        W93115   0.966  14.973  22.596 -0.1509 -0.0115 -0.3176
50199W        W93116   0.664  18.123  18.844 -0.3755 -0.3749 -0.1451
50200W        W93117   0.190  18.427  21.987  0.4223 -0.1731  0.2886
50201W        W93118  34.114  16.905  20.211  0.2919 -0.2291 -0.1707
50202W        W93119   0.019  16.680  21.667  0.0135  0.1928  0.0804
50203W        W93120  33.405  13.023  23.000 -0.1372 -0.2345  0.0302
50204W        W93121  34.526  16.244  21.502 -0.0815  0.2245  0.0986
50205W        W93122  34.464  16.668  22.473  0.0148 -0.1050  0.3012
50206W        W93123  34.099  15.223  22.354 -0.2190  0.1349 -0.1351
50207W        W93124  32.651  14.989  20.420  0.2603 -0.1588  0.3168
50208W        W93125  33.993  16.219  21.848 -0.0375 -0.0606 -0.3896
50209W        W93126  33.413  16.037  23.331  0.2653 -0.0111 -0.1628
50210W        W93127  33.842  18.369  22.714  0.0630  0.0126  0.0093
50211W        W93128  32.210  13.121  19.700  0.1633 -0.0313  0.2422
50212W        W93129   1.744  15.952  21.028  0.0835 -0.0016  0.0701
50213W        W93130   2.402  15.338  22.611 -0.4113  0.2684 -0.0272
50214W        W93131  33.595  13.960  21.540  0.0674 -0.1246  0.0726
50215W        W93132  32.728  17.181  20.006 -0.2248  0.0844  0.2138
50216W        W93133  33.008  17.455  22.129 -0.1309 -0.0393 -0.0314
50217W        W93134  34.101  17.404  23.018 -0.1020 -0.1217  0.5895
50218W        W93135   1.777  16.755  21.758  0.3395  0.3913  0.1282
50219W        W93136   0.575  15.824  21.246  0.1912 -0.0695 -0.1216
50220W        W93137  33.639  15.691  20.718  0.2498  0.1843  0.2157
50221W        W93138  33.090  15.677  23.286 -0.0788 -0.0463  0.1229
50222W        W93139  33.656  16.744  24.122 -0.0072 -0.1579  0.0723
50223W        W93140   0.635  15.283  22.251 -0.0780  0.0933 -0.2691
50224W        W93141  33.983  18.116  24.298  0.2238 -0.0869  0.0836
50225W        W93142  32.270  19.135  22.595  0.0337 -0.1770  0.2887
50226W        W93143  32.938  18.304  22.767 -0.2478  0.0716  0.1780
50227W        W93144  32.211  16.087  19.792  0.0557 -0.0500  0.0692
50228W        W93145  32.925  16.911  21.953  0.2904  0.1351 -0.1137
50229W        W93146  31.723  18.554  19.472 -0.0054  0.0366  0.1401
50230W        W93147  33.430  16.019  20.226 -0.3278 -0.1283 -0.0471
50231W        W93148  34.611  16.939  22.072  0.0146  0.0947 -0.2734
50232W        W93149  32.933  15.162  18.571  0.1328  0.0848  0.0286
50233W        W93150   0.020  17.402  21.921 -0.0411  0.2036  0.2347
50234W        W93151  32.974  17.806  21.799 -0.0203  0.2146 -0.2106
50235W        W93152  32.021  15.129  18.513 -0.0278 -0.0099  0.2016
50236W        W93153  33.310  16.156  21.233  0.4020  0.2503  0.0392
50237W        W93154  33.876  17.775  17.937  0.1534 -0.0631  0.2157
50238W        W93155   0.608  18.132  22.180  0.1252  0.0834  0.0170
50239W        W93156   0.349  17.700  22.278 -0.2687 -0.1548 -0.1695
50240W        W93157  33.687  17.936  22.186 -0.1770  0.1536 -0.1732
50241W        W93158  33.510  13.276  20.011  0.0936  0.4182  0.0583
50242W        W93159  33.228  16.570  22.174  0.0915 -0.4399 -0.1994
50243W        W93160  33.230  15.502  21.675  0.1201  0.0121 -0.1629
50244W        W93161  34.096  17.977  23.007  0.0383  0.2361  0.0473
50245W        W93162  32.631  16.333  19.556 -0.0612 -0.2089 -0.0165
50246W        W93163  34.204  12.364  22.256 -0.1976 -0.0600 -0.0422
50247W        W93164  33.115  16.830  20.163 -0.2511  0.1338  0.1724
50248W        W93165  34.433  17.083  21.590 -0.1862  0.0256 -0.0249
50249W        W93166  33.103  12.977  21.431 -0.0920  0.0093  0.1512
50250W        W93167  32.970  16.968  22.410  0.0687 -0.0757 -0.3190
50251W        W93168  32.781  15.478  22.042  0.2547  0.1214  0.1002
50252W        W93169  33.720  15.064  18.988 -0.0712 -0.1131  0.1058
50253W        W93170  33.387  16.480  23.593  0.1112 -0.0400  0.0989
50254W        W93171  32.726  18.861  20.012 -0.1030  0.1255 -0.1006
50255W        W93172   0.183  17.390  21.392 -0.0794 -0.1169  0.2026
50256W        W93173   0.824  15.728  22.166  0.3529 -0.2598  0.4256
50257W        W93174  33.185  18.773  25.161  0.0733 -0.0834  0.0290
50258W        W93175  33.559  15.117  20.648 -0.2336  0.1235 -0.0279
50259W        W93176   0.357  17.224  22.213 -0.2317 -0.0653  0.1156
50260W        W93177  34.230  16.654  21.969  0.0344 -0.0352 -0.2421
50261W        W93178  34.614  17.083  20.155 -0.3030 -0.0905 -0.1292
50262W        W93179   1.564  14.421  22.775  0.1781  0.3358  0.1075
50263W        W93180   0.040  14.553  22.053  0.2900  0.0184  0.2506
50264W        W93181   0.294  16.282  22.736  0.0629  0.0101 -0.0513
50265W        W93182   0.564  15.349  21.188  0.0072  0.1028  0.2707
50266W        W93183  33.318  16.073  20.760  0.2093  0.0318 -0.0966
50267W        W93184  34.401  15.723  20.418  0.1806 -0.2196  0.2648
50268W        W93185   0.222  13.946  24.223  0.0347  0.0145  0.1830
50269W        W93186  33.768  17.838  20.728  0.1022 -0.3240 -0.0213
50270W        W93187  33.231  18.864  22.560  0.1686 -0.0205  0.0748
50271W        W93188   0.018  15.319  21.794 -0.3355 -0.3272  0.2765
50272W        W93189  33.671  12.909  23.545  0.2819 -0.0944  0.2142
50273W        W93190  33.158  14.363  20.907 -0.0481  0.0749  0.1608
50274W        W93191   0.546  14.580  21.151  0.0925 -0.0003 -0.1964
50275W        W93192  32.899  16.451  20.830 -0.1293  0.0749  0.0192
50276W        W93193   0.399  13.446  21.498  0.0351 -0.1914  0.0728
50277W        W93194  34.523  13.795  24.662  0.0215  0.0477 -0.0146
50278W        W93195  34.046  14.949  19.366  0.1357 -0.0139  0.0424
50279W        W93196  34.479  13.737  23.647  0.0600  0.1469 -0.1191
50280W        W93197   1.134  16.657  21.152  0.0139  0.2744 -0.0234
50281W        W93198   0.230  17.239  23.729  0.2504 -0.0166 -0.3282
50282W        W93199  34.019  13.818  22.264 -0.2097 -0.0929 -0.0806
50283W        W93200   1.501  15.999  24.023  0.0138 -0.1989  0.1031
50284W        W93201  33.965  15.704  22.149  0.2859 -0.0344 -0.0251
50285W        W93202   0.303  18.351  25.209  0.4322 -0.1971  0.0242
50286W        W93203  34.469  13.929  20.993 -0.3989 -0.0946 -0.0637
50287W        W93204  32.246  14.975  20.804 -0.1010 -0.0471 -0.0297
50288W        W93205  34.306  14.951  21.044 -0.1936  0.0364  0.3777
50289W        W93206   0.697  12.880  22.212 -0.0127  0.0842  0.2155
50290W        W93207  32.318  15.242  21.778  0.0113  0.1312 -0.2308
50291W        W93208   0.289  17.473  22.747  0.1115  0.2403 -0.3095
50292W        W93209  34.161  12.730  22.664  0.2680  0.0192  0.0116
50293W        W93210   0.727  14.136  20.920 -0.3110  0.3745 -0.0944
50294W        W93211   0.363  17.459  20.175 -0.2813 -0.2244 -0.0695
50295W        W93212  33.432  15.558  23.682 -0.0112 -0.3220  0.1132
50296W        W93213   0.571  17.844  21.300  0.1734  0.2014  0.0990
50297W        W93214  33.365  17.128  26.507  0.0876 -0.4169  0.0154
50298W        W93215  31.818  15.124  23.440 -0.0893  0.2430 -0.0014
50299W        W93216  32.797  15.519  22.844 -0.3087  0.0348  0.0615
50300W        W93217   1.426  14.494  25.919 -0.3297  0.2863 -0.2766
50301W        W93218  32.451  16.031  27.749 -0.1345 -0.0850  0.0844
50302W        W93219  33.194  17.189  25.605  0.0579  0.1580  0.3848
50303W        W93220  34.598  15.938  24.243  0.1292 -0.1917  0.1023
50304W        W93221  32.959  15.152  25.784  0.1450  0.3005 -0.1184
50305W        W93222  33.039  16.038  25.755  0.0322 -0.0303 -0.1770
50306W        W93223  34.009  14.371  25.831 -0.4104 -0.1319  0.0880
50307W        W93224  32.829  15.761  24.805  0.1110 -0.3254 -0.1035
50308W        W93225  34.057  14.973  24.843  0.0877  0.1348 -0.4007
50309W        W93226  34.264  15.476  25.384  0.1598  0.1581 -0.1603
50310W        W93227  31.291  15.690  24.950  0.0195 -0.2828  0.0755
50311W        W93228  33.293  15.482  25.561 -0.1621  0.1139 -0.2950
50312W        W93229   0.551  16.088  25.655 -0.2648  0.1426 -0.0096
50313W        W93230  34.111  20.745  27.614 -0.1458  0.0478  0.0288
50314W        W93231   1.293  15.400  25.470 -0.0776  0.0504  0.0045
50315W        W93232  31.741  16.164  25.516 -0.1588  0.0612 -0.1517
50316W        W93233  33.449  18.494  24.303 -0.1788 -0.1110 -0.2250
50317W        W93234  33.917  17.685  24.866  0.0042  0.1310 -0.0537
50318W        W93235   0.754  16.723  27.316 -0.4172 -0.1704  0.3065
50319W        W93236  32.383  18.443  22.957  0.3600 -0.0053 -0.2317
50320W        W93237  33.135  18.485  26.335 -0.0295 -0.4466 -0.1805
50321W        W93238   0.587  15.958  22.940 -0.0739  0.1413 -0.0170
50322W        W93239   1.258  16.712  24.163  0.1495  0.0033  0.1714
50323W        W93240  33.998  17.995  28.423  0.0006  0.0491  0.2083
50324W        W93241  30.859  18.908  24.899 -0.2211 -0.0237 -0.0329
50325W        W93242  34.539  17.128  25.284  0.0589  0.0556 -0.0024
50326W        W93243   0.257  16.643  22.283  0.3086 -0.0281  0.0037
50327W        W93244  34.468  13.293  24.769  0.0314 -0.1591  0.0632
50328W        W93245  33.366  18.419  28.023  0.2576  0.0507 -0.0957
50329W        W93246  33.789  15.448  25.680 -0.1516  0.2127  0.1763
50330W        W93247  32.627  17.487  28.391  0.2482 -0.0831  0.0421
50331W        W93248  31.762  16.017  24.997 -0.1548 -0.3191  0.1954
50332W        W93249  34.500  17.343  24.055  0.1128  0.0112 -0.5057
50333W        W93250  31.046  16.326  27.007  0.0707 -0.5271  0.2262
50334W        W93251  33.013  14.706  25.479  0.0833 -0.1747 -0.2031
50335W        W93252   0.332  13.078  24.552  0.1466  0.1711 -0.0816
50336W        W93253  32.483  19.016  26.507  0.0397  0.1646 -0.1902
50337W        W93254  33.823  16.282  26.902  0.0260  0.2812  0.0105
50338W        W93255   0.426  17.053  23.011  0.0372 -0.0817  0.2069
50339W        W93256  33.209  17.590  23.322 -0.3033 -0.2284  0.0568
50340W        W93257  32.530  18.952  25.773  0.0017  0.0135  0.2298
50341W        W93258  34.397  14.725  27.975  0.0420  0.1416 -0.3222
50342W        W93259   1.557  16.467  27.159  0.0557 -0.3757 -0.0647
50343W        W93260   0.546  17.379  24.682  0.2113 -0.2722  0.2303
50344W        W93261  34.024  17.581  26.101 -0.1279  0.0453 -0.2172
50345W        W93262  32.426  17.513  24.881  0.1924  0.0019 -0.2997
50346W        W93263  32.693  15.690  27.356  0.0574  0.0291  0.1577
50347W        W93264  33.378  15.577  27.120 -0.0352  0.3037  0.2574
50348W        W93265  33.617  12.673  26.641 -0.0702 -0.3374 -0.2579
50349W        W93266   0.106  18.237  26.243 -0.0625 -0.2171 -0.0980
50350W        W93267   0.283  14.837  24.951 -0.1410 -0.1027  0.1190
50351W        W93268  34.129  14.917  23.483 -0.0004 -0.1021  0.0781
50352W        W93269  32.559  13.575  28.097  0.2146  0.3364 -0.1532
50353W        W93270  33.152  15.012  26.277 -0.1590  0.0951  0.0776
50354W        W93271  33.285  15.736  24.497  0.2113 -0.2833 -0.3419
50355W        W93272  34.210  17.736  25.418 -0.2987  0.1282  0.0864
50356W        W93273  33.049  17.990  24.509  0.0416  0.1309 -0.1305
50357W        W93274  34.209  15.152  25.897 -0.3211 -0.0631  0.1272
50358W        W93275  33.341  14.213  22.627  0.0741 -0.3515  0.0549
50359W        W93276  33.405  16.460  25.874 -0.2925  0.0507 -0.1899
50360W        W93277  33.608  16.830  25.555  0.0167 -0.0405  0.0760
50361W        W93278  33.732  15.476  24.592 -0.1007 -0.0244  0.0177
50362W        W93279  31.213  16.888  25.771 -0.0450 -0.2098  0.0158
50363W        W93280  33.818  13.525  22.794 -0.2683 -0.0620 -0.0803
50364W        W93281  33.952  18.392  26.494  0.4097 -0.0593 -0.0740
50365W        W93282  32.523  19.031  25.263 -0.1203 -0.0971  0.2367
50366W        W93283   0.165  18.482  26.982  0.0053 -0.2704 -0.0691
50367W        W93284  31.020  18.145  25.919 -0.1593 -0.0235  0.2764
50368W        W93285  34.426  15.181  23.758  0.2063  0.1932 -0.4338
50369W        W93286  33.308  18.341  25.607 -0.1555 -0.0776 -0.1615
50370W        W93287  32.204  18.132  27.258 -0.1303  0.1418  0.1417
50371W        W93288   0.389  17.730  25.843 -0.2818  0.1892  0.1602
50372W        W93289   1.048  17.210  24.826  0.0124  0.1297 -0.1077
50373W        W93290  30.980  18.191  26.484  0.1310  0.2367 -0.1590
50374W        W93291  34.404  15.776  27.550  0.0705  0.0727  0.0993
50375W        W93292  30.985  16.365  26.021 -0.0633  0.0761  0.0372
50376W        W93293  33.702  17.553  24.352 -0.0530  0.0707 -0.1446
50377W        W93294   0.928  13.542  27.246  0.1160 -0.0606  0.1394
50378W        W93295  31.923  15.295  24.126  0.1689  0.1935  0.2542
50379W        W93296   0.891  15.095  25.501 -0.2501 -0.0874 -0.1138
50380W        W93297  31.573  16.360  27.315  0.1098 -0.0697  0.0637
50381W        W93298  31.096  19.265  28.116  0.5024 -0.2355 -0.1152
50382W        W93299   0.159  17.430  27.552 -0.0532  0.4397  0.0684
50383W        W93300  32.326  20.608  22.550 -0.0489  0.1153 -0.0939
50384W        W93301   0.092  17.561  25.446 -0.0821  0.1215 -0.1028
50385W        W93302  33.511  12.197  26.556  0.1019 -0.1850  0.1003
50386W        W93303  32.978  18.338  27.521 -0.1285  0.2018 -0.1815
50387W        W93304  33.014  17.394  23.755 -0.0505  0.0545 -0.0464
50388W        W93305  34.589  16.504  25.086  0.2311 -0.0495  0.4003
50389W        W93306  31.119  18.840  25.789  0.0610  0.1173  0.1065
50390W        W93307  33.489  15.145  24.842  0.1813  0.1001  0.0560
50391W        W93308  31.269  15.769  24.247  0.0354 -0.1781  0.0474
50392W        W93309  33.152  14.729  24.929  0.1512 -0.0722 -0.0016
50393W        W93310  34.419  14.975  25.315  0.2783 -0.0585 -0.1545
50394W        W93311  32.193  17.678  27.044 -0.1064  0.0331  0.1059
50395W        W93312  34.573  15.197  26.700  0.0231 -0.0076 -0.2467
50396W        W93313  30.829  18.072  23.588 -0.0140  0.0890  0.1119
50397W        W93314   0.123  16.090  25.906 -0.1019 -0.2184  0.0677
50398W        W93315   0.283  16.565  24.632 -0.3387  0.3105  0.0857
50399W        W93316  34.162  16.662  25.322  0.0459  0.1066 -0.2028
50400W        W93317  33.138  15.125  25.260  0.2121  0.0711  0.0134
50401W        W93318  33.586  15.103  28.146 -0.3164  0.1191 -0.0684
50402W        W93319  33.742  15.018  26.769 -0.0311  0.2948 -0.2034
50403W        W93320  33.821  15.943  24.719  0.3302 -0.1810 -0.0891
50404W        W93321   0.359  15.483  26.802 -0.0578 -0.1345  0.0121
50405W        W93322  32.968  14.583  26.951 -0.0023 -0.0638  0.1199
50406W        W93323  33.754  17.154  27.524 -0.0644  0.3313 -0.4080
50407W        W93324  32.238  16.321  26.463  0.0074 -0.2541  0.3113
50408W        W93325  32.694  16.090  26.225  0.0827  0.3432  0.2481
50409W        W93326  33.364  17.537  24.672  0.0928  0.0529 -0.0330
50410W        W93327  34.136  14.114  25.405 -0.0274 -0.3478 -0.2098
50411W        W93328  32.217  17.526  25.796 -0.0595  0.1640 -0.0248
50412W        W93329   0.568  18.990  22.721 -0.2812  0.0235  0.1015
50413W        W93330  32.661  16.877  26.352  0.0701  0.2279 -0.1091
50414W        W93331  33.812  16.197  26.197  0.3671  0.0436  0.1686
50415W        W93332  34.081  17.024  25.717 -0.1673  0.3904 -0.1687
50416W        W93333  32.905  16.122  28.062 -0.2012  0.1025 -0.0423
50417W        W93334  31.921  17.799  24.214  0.2657  0.0254 -0.0063
50418W        W93335  33.445  15.382  22.872 -0.0243  0.1031  0.0348
50419W        W93336  33.601  15.907  25.828  0.4971 -0.4196  0.0642
50420W        W93337  34.291  15.991  24.660  0.0748  0.1031  0.4606
50421W        W93338  32.383  15.642  28.115 -0.0962  0.3316 -0.0187
50422W        W93339  33.170  16.096  24.826  0.0857 -0.0311  0.1822
50423W        W93340  32.216  15.618  24.460  0.2264  0.2611 -0.2449
50424W        W93341   0.368  16.424  26.216 -0.0216  0.1072 -0.1703
50425W        W93342   0.837  14.735  25.886  0.1374 -0.1644 -0.0844
50426W        W93343  33.312  14.629  26.546  0.1535 -0.5140 -0.0020
50427W        W93344  33.357  15.427  26.046 -0.4297 -0.0849 -0.1715
50428W        W93345  31.483  16.077  24.601  0.1583 -0.2207  0.0959
50429W        W93346   0.503  16.484  23.191  0.0176  0.1762  0.1924
50430W        W93347  32.987  16.820  25.883  0.0252 -0.1028 -0.0811
50431W        W93348  34.175  19.313  28.337  0.1940  0.2681 -0.0257
50432W        W93349  34.147  16.204  22.312 -0.3709 -0.1500 -0.1075
50433W        W93350  32.663  18.277  23.641  0.1044  0.1078  0.3586
50434W        W93351  33.199  17.702  25.530  0.1355  0.2823 -0.0041
50435W        W93352  34.613  13.386  24.325 -0.2306  0.0790  0.1786
50436W        W93353  33.769  16.330  23.898  0.1127  0.1278 -0.0341
50437W        W93354  33.679  19.339  28.171  0.1492  0.0428 -0.1728
50438W        W93355  32.161  18.599  26.128 -0.0805  0.0062 -0.1630
50439W        W93356  34.604  14.979  26.218  0.0208 -0.0936  0.0054
50440W        W93357  34.144  16.490  26.449 -0.2431 -0.1969 -0.1733
50441W        W93358   0.016  14.380  26.126  0.1228 -0.1561  0.0031
50442W        W93359  32.293  16.163  27.065  0.2469  0.0084 -0.1792
50443W        W93360  33.310  16.064  26.230  0.0231 -0.1510  0.1749
50444W        W93361  32.611  11.874  27.028  0.0597 -0.0725 -0.1169
50445W        W93362  32.658  17.745  26.562  0.1529  0.2774  0.1792
50446W        W93363  30.957  15.471  24.594 -0.3176 -0.0649  0.2576
50447W        W93364  32.300  18.852  23.215  0.0422 -0.2489 -0.1280
50448W        W93365  33.902  16.778  23.682  0.0647  0.2306 -0.0258
50449W        W93366  33.304  17.911  24.972  0.0038  0.0575 -0.2637
50450W        W93367  33.870  19.303  22.948  0.3281  0.0780  0.2053
50451W        W93368   0.340  19.357  24.838 -0.2927 -0.1276  0.1225
50452W        W93369   2.127  15.717  25.065 -0.0269  0.0573  0.0672
50453W        W93370  34.068  14.578  25.192 -0.1922 -0.1063  0.1324
50454W        W93371  32.879  17.268  26.635 -0.0338  0.3663 -0.1103
50455W        W93372  31.859  17.791  26.652 -0.1978 -0.1057  0.2496
50456W        W93373  33.713  17.231  24.896  0.0951  0.1546  0.0779
50457W        W93374   0.102  16.062  25.385 -0.2081 -0.3751  0.3030
50458W        W93375  34.294  16.791  22.906  0.0533 -0.0780  0.0299
50459W        W93376  33.922  18.696  23.592 -0.0970 -0.1304 -0.1121
50460W        W93377  32.087  18.012  25.826  0.0934  0.4883 -0.0375
50461W        W93378  33.360  17.895  27.117  0.0834 -0.0855 -0.2234
50462W        W93379  33.917  13.386  24.808 -0.4353  0.2420  0.0583
50463W        W93380  33.761  15.276  29.042 -0.1255  0.1794 -0.0199
50464W        W93381   0.031  15.612  25.203 -0.2304 -0.3024 -0.3633
50465W        W93382  33.853  14.619  27.123 -0.1801  0.0301  0.0964
50466W        W93383  33.022  15.243  24.749  0.1260  0.0925 -0.2646
50467W        W93384  33.188  14.203  25.088 -0.1326 -0.0787  0.1254
50468W        W93385  32.714  15.906  25.289  0.0749 -0.1129 -0.1081
50469W        W93386  33.914  15.503  26.930 -0.2671  0.0229 -0.1608
50470W        W93387  32.575  14.991  25.466  0.1509 -0.0815 -0.1522
50471W        W93388  33.450  18.690  23.484 -0.1040  0.1201  0.2305
50472W        W93389  31.975  15.816  25.829 -0.1116 -0.2485  0.0462
50473W        W93390  33.751  15.691  26.257 -0.1614  0.1414 -0.2169
50474W        W93391   0.117  13.995  26.586 -0.0231  0.0429 -0.3132
50475W        W93392  32.084  17.189  25.345  0.0786  0.1601 -0.0460
50476W        W93393  34.444  17.302  23.527 -0.2208 -0.2541 -0.0722
50477W        W93394  33.511  18.103  25.996  0.0930 -0.0208  0.1386
50478W        W93395  33.049  18.336  28.437 -0.1303  0.0028  0.2065
50479W        W93396  31.952  17.329  24.135  0.3627 -0.4532  0.1622
50480W        W93397  33.538  17.516  26.308  0.0827  0.1164 -0.0050
50481W        W93398  34.294  18.371  25.587  0.1056 -0.2272  0.1345
50482W        W93399  33.859  17.260  26.577 -0.0974 -0.1061 -0.1789
50483W        W93400  34.371  16.808  23.380  0.0184 -0.0434  0.2889
50484W        W93401  34.148  15.564  24.848  0.0158 -0.0573  0.0875
50485W        W93402   0.893  16.031  25.187  0.2891  0.1888 -0.0428
50486W        W93403  34.289  17.100  24.778 -0.2488  0.0212 -0.1464
50487W        W93404  33.513  17.399  23.735 -0.1507 -0.0058 -0.1178
50488W        W93405  32.490  16.463  24.506  0.0283 -0.0891 -0.0083
50489W        W93406  32.998  12.875  24.788 -0.0977 -0.2818  0.1496
50490W        W93407  34.334  14.297  26.559 -0.0996  0.3222  0.1219
50491W        W93408  34.560  15.730  26.263  0.1763  0.1775 -0.0838
50492W        W93409  32.474  17.304  22.840  0.0210 -0.2317  0.2439
50493W        W93410  34.154  12.924  24.802  0.4038 -0.0253 -0.0657
50494W        W93411  32.442  14.078  24.469  0.0139 -0.0721 -0.0814
50495W        W93412   0.471  15.824  25.119 -0.0873  0.0354 -0.0762
50496W        W93413  33.388  18.455  22.959 -0.2009  0.0204 -0.0911
50497W        W93414   0.854  14.172  28.781 -0.1393  0.2105 -0.2399
50498W        W93415   0.759  14.406  27.348 -0.0615  0.3474  0.0156
50499W        W93416  32.160  14.207  23.458  0.2485 -0.5046 -0.1705
50500W        W93417   0.511  15.592  25.570 -0.0972 -0.0976 -0.0025
50501W        W93418   0.081  14.882  27.077 -0.2203 -0.2874  0.4191
50502W        W93419  33.451  16.890  26.980  0.2587 -0.4971 -0.1067
50503W        W93420  33.074  13.890  26.061 -0.0075 -0.3477  0.2386
50504W        W93421   2.046  16.115  26.345 -0.2817 -0.2437  0.2381
50505W        W93422  33.360  13.804  28.252 -0.0658  0.2544 -0.0217
50506W        W93423  33.884  18.300  27.911 -0.1227  0.0111 -0.2697
50507W        W93424  34.170  14.630  26.192  0.2727 -0.0191 -0.2588
50508W        W93425  33.523  16.378  24.997 -0.1937 -0.0033 -0.2140
50509W        W93426  33.537  14.192  25.969 -0.1695 -0.1870 -0.2359
50510W        W93427  33.457  16.136  28.268 -0.0250  0.0185  0.3601
50511W        W93428  32.153  15.932  25.355  0.1098  0.0020 -0.2762
50512W        W93429   1.696  18.373  26.832 -0.0033 -0.0169  0.1390
50513W        W93430  33.184  14.601  25.989 -0.2756 -0.1475 -0.1804
50514W        W93431   0.638  16.220  22.317 -0.0229 -0.0063 -0.1388
50515W        W93432  34.134  16.086  24.152 -0.0164 -0.0815 -0.1196
50516W        W93433  31.953  16.916  26.615 -0.0337  0.1583  0.0951
50517W        W93434  34.289  17.518  26.664 -0.3034  0.1279  0.1361
50518W        W93435   0.274  16.265  31.795  0.1427  0.0716  0.1321
50519W        W93436  33.744  15.613  28.253  0.2698 -0.0364 -0.1611
50520W        W93437  32.935  14.804  27.385  0.2032 -0.2035  0.3203
50521W        W93438  34.340  14.084  31.472 -0.1902 -0.1717 -0.0753
50522W        W93439  34.319  14.536  29.561 -0.1596 -0.3436  0.0657
50523W        W93440  34.348  18.096  30.531 -0.1682  0.0243 -0.0036
50524W        W93441   0.384  15.306  28.173 -0.0529 -0.1701 -0.2465
50525W        W93442  31.752  14.805  27.975  0.2208  0.0866 -0.0742
50526W        W93443  32.825  17.425  27.705  0.1185  0.4768 -0.2356
50527W        W93444  34.103  16.177  29.146  0.1486 -0.0397  0.2508
50528W        W93445  32.272  15.099  30.155 -0.0863 -0.5071 -0.0598
50529W        W93446   0.198  15.540  27.668  0.4698 -0.2434  0.2531
50530W        W93447  33.261  14.950  27.800 -0.1653  0.4972  0.1664
50531W        W93448  34.607  15.196  24.852  0.0400  0.2122  0.3274
50532W        W93449  32.732  13.897  29.949  0.0969  0.2096  0.0577
50533W        W93450   0.062  14.307  29.225  0.0379 -0.0575  0.4661
50534W        W93451  33.649  19.092  30.665  0.0780  0.0837 -0.3664
50535W        W93452   1.272  17.380  30.715  0.2402  0.2485  0.0979
50536W        W93453   0.690  18.582  29.239  0.3174  0.2984 -0.0326
50537W        W93454  32.361  16.082  28.832 -0.0657  0.0097  0.2801
50538W        W93455  34.177  17.513  27.556 -0.0507 -0.0985 -0.0309
50539W        W93456   1.126  16.058  30.197 -0.2829 -0.0415  0.0514
50540W        W93457  31.638  17.646  28.550 -0.2074  0.1124 -0.0718
50541W        W93458  33.471  16.464  29.249  0.0140  0.1615 -0.2059
50542W        W93459  34.079  16.698  27.027 -0.0549  0.0327 -0.1007
50543W        W93460  33.949  15.019  31.647 -0.0930 -0.3710  0.4150
50544W        W93461   1.342  15.182  30.427  0.3157  0.1478 -0.0531
50545W        W93462  32.908  17.050  28.290 -0.1915 -0.0071  0.1584
50546W        W93463  32.572  17.884  27.622  0.0315  0.0321  0.1093
50547W        W93464  34.438  14.061  28.858 -0.1471  0.0400  0.2371
50548W        W93465  34.323  14.870  28.437  0.2390 -0.1564  0.0920
50549W        W93466  34.007  17.693  27.984 -0.2279  0.1064  0.1405
50550W        W93467  33.752  14.887  29.781  0.0443  0.4100 -0.0906
50551W        W93468  34.369  17.154  30.135  0.2108 -0.1465  0.0586
50552W        W93469  32.944  15.573  28.914  0.2365 -0.0403 -0.1545
50553W        W93470  34.025  15.095  27.897  0.0388  0.1315  0.4519
50554W        W93471  34.017  16.772  31.545 -0.1495 -0.2959  0.2007
50555W        W93472  33.181  16.634  30.504  0.1533 -0.1574 -0.1487
50556W        W93473   2.333  14.507  28.689  0.0472 -0.0105 -0.1107
50557W        W93474  31.806  17.006  30.252 -0.3145  0.3610 -0.1510
50558W        W93475   0.383  15.284  27.251  0.3642  0.3062 -0.3580
50559W        W93476  33.323  14.877  27.032  0.0152 -0.2514  0.0830
50560W        W93477  34.485  16.362  25.653  0.0967  0.0318  0.0254
50561W        W93478  33.507  17.941  27.980 -0.0214  0.1417  0.1678
50562W        W93479  34.618  15.537  31.138  0.0006 -0.3525 -0.1522
50563W        W93480  33.184  14.697  29.799  0.0165  0.0023  0.0048
50564W        W93481  32.253  18.312  28.533  0.2055  0.1546 -0.1198
50565W        W93482  31.642  17.750  27.258  0.1735  0.1245 -0.0831
50566W        W93483  32.288  16.524  27.826 -0.2189  0.1624 -0.1498
50567W        W93484  31.695  16.525  29.983  0.1267  0.0309 -0.0454
50568W        W93485  31.111  16.252  27.997  0.2685 -0.2479 -0.0500
50569W        W93486  30.662  13.664  28.816  0.0775  0.3883 -0.0839
50570W        W93487   0.072  15.460  28.653  0.1342  0.0796 -0.0552
50571W        W93488  33.037  16.627  28.540 -0.1124  0.1566 -0.0854
50572W        W93489  33.076  15.326  28.023 -0.0597  0.5993 -0.2220
50573W        W93490  34.055  14.235  30.170  0.0575 -0.0639 -0.0331
50574W        W93491  32.388  13.871  30.919 -0.2501  0.1642 -0.1503
50575W        W93492  32.804  13.710  28.935 -0.0823 -0.0692 -0.0828
50576W        W93493  33.590  15.884  26.690 -0.3648  0.2081 -0.0811
50577W        W93494  32.104  16.596  27.313  0.1164  0.0157 -0.1150
50578W        W93495  33.432  15.031  29.433 -0.1060 -0.0025 -0.1027
50579W        W93496  33.585  14.515  29.431 -0.0649 -0.1704  0.0410
50580W        W93497   0.449  18.799  29.624  0.1544 -0.2175 -0.1417
50581W        W93498  34.110  16.693  30.676 -0.3390  0.1807 -0.1072
50582W        W93499  31.342  15.225  28.029  0.0123  0.2160  0.0954
50583W        W93500  32.298  17.219  28.811  0.0623 -0.2849 -0.3095
50584W        W93501  34.079  15.744  29.985 -0.1570 -0.0293 -0.2374
50585W        W93502  34.294  18.983  27.140 -0.2612 -0.3325  0.1941
50586W        W93503   0.928  16.720  28.377 -0.0908 -0.1592 -0.1184
50587W        W93504   0.670  16.273  27.072  0.1295 -0.2101  0.2234
50588W        W93505  33.599  17.428  29.504  0.0198  0.0554  0.0108
50589W        W93506  32.760  16.329  26.826 -0.2016  0.1532 -0.1378
50590W        W93507  33.288  18.254  29.834 -0.4801 -0.1389  0.2400
50591W        W93508  32.395  17.020  31.073  0.2507  0.0553 -0.1586
50592W        W93509   0.614  15.667  27.988  0.3235 -0.2376 -0.1114
50593W        W93510  34.326  16.500  28.529  0.1404  0.1219 -0.0697
50594W        W93511  32.546  17.111  29.261 -0.2571 -0.2068  0.1116
50595W        W93512   0.387  16.247  29.169 -0.2027  0.1008  0.0287
50596W        W93513  32.788  17.749  27.046 -0.0130 -0.0994 -0.0938
50597W        W93514  31.386  18.556  26.786  0.4477  0.0365 -0.1087
50598W        W93515   0.125  14.545  31.081  0.2455  0.2396  0.0437
50599W        W93516  33.125  16.017  27.519  0.0474  0.0709  0.1193
50600W        W93517   1.496  14.122  29.449 -0.0146 -0.1393  0.1904
50601W        W93518  32.072  17.437  29.625 -0.1085  0.3813  0.1882
50602W        W93519  34.503  16.161  29.474  0.1217 -0.2035 -0.0217
50603W        W93520   2.197  13.625   0.070 -0.0180 -0.3691  0.0514
50604W        W93521   0.302  19.127  27.776 -0.1840 -0.0446  0.2797
50605W        W93522  33.732  16.344  25.507 -0.3030  0.0211 -0.0006
50606W        W93523  33.762  16.619  27.996 -0.0792  0.1343 -0.4641
50607W        W93524  33.087  16.310  30.017 -0.2069 -0.1540  0.0017
50608W        W93525  32.581  16.569  25.951  0.2543  0.0175  0.2890
50609W        W93526  33.338  18.310  28.910 -0.1105 -0.4328  0.2153
50610W        W93527  32.106  18.573  25.284  0.0352  0.2026 -0.2126
50611W        W93528  31.169  15.050  28.697  0.0015 -0.0044  0.4161
50612W        W93529  32.344  16.667  26.840 -0.2134 -0.2156 -0.0597
50613W        W93530  32.317  15.092  29.474 -0.2148 -0.1535 -0.1658
50614W        W93531  34.503  15.208  30.151 -0.0832  0.0440 -0.2308
50615W        W93532  32.802  15.974  29.162  0.2571 -0.0218 -0.3323
50616W        W93533  34.186  14.485  30.718 -0.0463 -0.0295  0.2494
50617W        W93534  34.208  15.346  30.599  0.2431  0.0124 -0.0748
50618W        W93535   1.092  14.955  28.645 -0.0333  0.3562 -0.1149
50619W        W93536  33.661  15.897  29.434  0.4513 -0.0246 -0.0006
50620W        W93537  33.255  17.287  28.600  0.1328  0.1482  0.0657
50621W        W93538  33.868  16.096  28.700  0.1151  0.2299  0.1634
50622W        W93539   0.755  13.746   0.136 -0.0213  0.0190  0.0144
50623W        W93540   0.730  14.566  28.444  0.3732  0.0271 -0.3049
50624W        W93541  31.171  16.015  30.334  0.6861  0.0929 -0.2684
50625W        W93542  34.434  15.941  28.575 -0.1882 -0.1241  0.0251
50626W        W93543  33.498  13.024  30.853 -0.0242 -0.1069 -0.1322
50627W        W93544  30.904  16.960  31.215  0.0043 -0.1847  0.3737
50628W        W93545  34.457  16.136  29.958  0.1035  0.0878  0.1462
50629W        W93546  30.050  15.520  28.316  0.0227 -0.3684  0.0713
50630W        W93547  33.190  15.889  29.625  0.1702  0.1091  0.0008
50631W        W93548   0.931  13.807  30.784 -0.2249  0.2327 -0.0771
50632W        W93549  33.585  18.794  27.719  0.1064  0.0299  0.3617
50633W        W93550  33.013  14.323  30.293 -0.0378 -0.2549 -0.1476
50634W        W93551  32.669  16.985  30.245 -0.0219 -0.3017  0.1079
50635W        W93552  34.046  15.617  28.824 -0.2670  0.1106 -0.2924
50636W        W93553  32.097  14.501  31.315  0.1625 -0.0119 -0.1968
50637W        W93554  33.706  16.364  30.536  0.1082  0.1586 -0.2399
50638W        W93555  33.959  15.286  30.138  0.0067 -0.1358 -0.0363
50639W        W93556  32.930  16.110  28.594  0.1936 -0.0407  0.0508
50640W        W93557   0.530  15.200  30.615  0.1028  0.3828  0.2092
50641W        W93558   2.565  15.245  27.040 -0.3530 -0.1327  0.2841
50642W        W93559  33.584  15.642  29.871  0.0343 -0.5552  0.1570
50643W        W93560  33.362  16.782  29.663  0.0147 -0.1175 -0.1920
50644W        W93561  33.657  16.932  30.502  0.1581  0.0113 -0.1031
50645W        W93562  33.050  15.009  31.462  0.1981  0.4399  0.1701
50646W        W93563   0.664  14.690   0.026  0.0894  0.1656 -0.0130
50647W        W93564  33.314  15.783  27.913 -0.3565  0.2027 -0.0249
50648W        W93565  32.368  15.139  28.399 -0.0256 -0.2660  0.0302
50649W        W93566   0.053  13.149  27.340  0.0712  0.2349 -0.0508
50650W        W93567   0.248  16.876  29.127  0.1661  0.0240 -0.1083
50651W        W93568  33.127  13.541  30.489 -0.0309 -0.0533  0.3274
50652W        W93569  33.652  16.339  31.295 -0.1540 -0.3226 -0.0244
50653W        W93570  30.537  15.688  28.927 -0.2785 -0.2207  0.1968
50654W        W93571   0.041  16.695  26.559 -0.2798 -0.2598  0.1368
50655W        W93572  34.504  15.675  29.719 -0.1912  0.1188  0.2520
50656W        W93573   2.380  14.252  25.918  0.0430  0.2007 -0.0936
50657W        W93574  31.938  15.425  28.197 -0.2895 -0.0215 -0.0189
50658W        W93575  34.531  17.536  28.930  0.1697  0.0023 -0.1827
50659W        W93576  33.500  18.022  28.440 -0.0837 -0.4327  0.0238
50660W        W93577  33.701  17.585  28.333  0.0797 -0.0324 -0.2496
50661W        W93578  33.610  17.084  29.943 -0.2952 -0.0475  0.1433
50662W        W93579  34.126  16.703  29.059  0.1557 -0.2168 -0.0569
50663W        W93580  34.205  16.765  28.148 -0.1043 -0.2390 -0.1462
50664W        W93581  32.108  15.037  31.325  0.1938 -0.0607 -0.1474
50665W        W93582  34.066  12.032  28.819  0.2182 -0.1067 -0.1265
50666W        W93583  32.205  16.553  31.943  0.1650  0.1534  0.2661
50667W        W93584  33.648  17.345  28.965  0.3487 -0.0560 -0.2158
50668W        W93585  32.976  18.060  27.974 -0.0131  0.0590 -0.0893
50669W        W93586  34.141  15.960  26.533  0.0762  0.1787 -0.1601
50670W        W93587  34.521  16.654  30.364 -0.4121 -0.3886 -0.2881
50671W        W93588  32.641  18.345  27.122 -0.4345  0.1154  0.2775
50672W        W93589   0.171  19.010  28.779  0.0460  0.2896  0.2420
50673W        W93590  34.070  16.756  27.640  0.2165  0.0945  0.0872
50674W        W93591  33.464  14.497  27.945 -0.1759 -0.0952  0.1902
50675W        W93592  33.096  17.300  29.653  0.1210 -0.3724  0.1075
50676W        W93593  33.246  18.343  31.190  0.2740  0.0030  0.1207
50677W        W93594  31.849  14.583  30.847  0.0111 -0.2371  0.0039
50678W        W93595  34.243  15.081  27.066 -0.0689 -0.4336  0.2763
50679W        W93596  33.276  16.037  29.119  0.0824 -0.0770 -0.2710
50680W        W93597   0.351  17.629  29.278  0.0253 -0.1614 -0.0759
50681W        W93598   1.420  16.731  29.868  0.4020  0.2220 -0.1589
50682W        W93599  33.557  19.279  29.800  0.1005  0.1608  0.0679
50683W        W93600  31.303  14.122  28.983  0.1320 -0.2982  0.0664
50684W        W93601  34.260  13.780  31.066 -0.5199  0.0562 -0.1063
50685W        W93602  32.337  15.616  29.178 -0.2858 -0.3687 -0.2845
50686W        W93603  31.811  15.446  29.969  0.1919 -0.1157 -0.0913
50687W        W93604   0.570  14.442  26.854 -0.0472  0.2579  0.0051
50688W        W93605  32.055  15.383  28.735 -0.2056 -0.0546 -0.2021
50689W        W93606  31.760  18.217  28.519  0.2002  0.0293 -0.1896
50690W        W93607   1.084  15.074  29.880 -0.1032 -0.0731 -0.2497
50691W        W93608  34.284  14.366  28.348  0.0358  0.0069  0.0690
50692W        W93609   0.540  17.767  26.400 -0.2311  0.0830 -0.0507
50693W        W93610  32.392  16.605  29.260  0.0012  0.0494  0.0778
50694W        W93611   1.611  14.556  27.533  0.5443  0.2498 -0.0804
50695W        W93612   0.255  14.741  28.274  0.1281 -0.0896  0.2847
50696W        W93613  33.148  16.972  27.565  0.0491  0.0064 -0.1255
50697W        W93614   0.098  18.232  25.686 -0.0298  0.4363  0.0667
50698W        W93615  34.652  15.404  29.306  0.1668  0.1214 -0.4959
50699W        W93616   1.279  18.742  31.872 -0.0119 -0.2011 -0.1832
50700W        W93617   0.019  13.665  26.983 -0.2536 -0.1517 -0.0768
50701W        W93618   0.356  15.634  30.479 -0.3131 -0.2358 -0.3842
50702W        W93619  34.477  18.335  29.194 -0.0992 -0.0467 -0.6107
50703W        W93620   1.002  18.965  28.357 -0.0325  0.1695 -0.1611
50704W        W93621   0.927  16.062  27.879 -0.0600  0.1858  0.2275
50705W        W93622   0.595  14.885  29.756 -0.1828 -0.1132 -0.0602
50706W        W93623  33.165  15.385  29.684  0.1980  0.0206 -0.3974
50707W        W93624  32.040  13.910  27.592  0.4056 -0.1551 -0.1883
50708W        W93625  32.420  16.143  28.238 -0.1339  0.1361  0.1231
50709W        W93626  32.337  17.826  28.652 -0.0410  0.2655 -0.1732
50710W        W93627   1.001  15.359  28.396  0.2405  0.2309 -0.0364
50711W        W93628  32.915  15.070  30.067  0.0117 -0.1123  0.1163
50712W        W93629  33.937  17.015  28.748  0.4075  0.0153 -0.0897
50713W        W93630  34.516  14.907  29.287  0.0245  0.1005 -0.0169
50714W        W93631   0.511  14.139   0.989 -0.1269  0.0817  0.2046
50715W        W93632  31.815  15.344  29.423 -0.1460  0.1257 -0.2789
50716W        W93633   1.669  13.956  29.989  0.0393  0.2908  0.2181
50717W        W93634  33.332  13.803  27.700  0.0141  0.0433 -0.0458
50718W        W93635   1.334  17.499   0.377  0.0933  0.3756 -0.0106
50719W        W93636   0.397  14.570  31.527 -0.0446 -0.0149  0.1556
50720W        W93637  32.666  16.605  28.197 -0.0379  0.0253  0.0371
50721W        W93638   0.680  15.359  29.997  0.0760  0.0350  0.0117
50722W        W93639  34.516  16.886  28.846  0.1817 -0.0223  0.1358
50723W        W93640  34.342  17.664  30.250 -0.3255  0.0279 -0.0887
50724W        W93641  31.161  14.642  30.456 -0.0604  0.1838 -0.1949
50725W        W93642  34.517  18.213  31.777  0.0138  0.0542 -0.0784
50726W        W93643  34.176  15.232  31.155  0.1076  0.3475 -0.2164
50727W        W93644  34.031  17.330  30.459 -0.2797  0.0990 -0.1309
50728W        W93645  32.979  13.262  31.396 -0.0778 -0.0330  0.0072
50729W        W93646  32.914  16.548  29.002 -0.1560 -0.2228 -0.0951
50730W        W93647  34.235  15.106  28.891 -0.0618  0.0263 -0.2654
50731W        W93648   1.937  15.223  29.946 -0.2322 -0.3372 -0.0029
50732W        W93649   1.158  14.288  28.217  0.2406  0.2473  0.3370
50733W        W93650   0.064  17.408  31.065 -0.3483  0.1715  0.0135
50734W        W93651  32.796  15.492  29.401  0.0067 -0.2139  0.0828
50735W        W93652  32.151  16.718  26.140 -0.0300  0.0281 -0.0296
50736W        W93653  34.263  18.534  29.635  0.0375  0.1886  0.0984
50737W        W93654  32.322  14.911  26.463  0.3861 -0.1853  0.2216
50738W        W93655  33.850  18.599  29.909 -0.0243 -0.0490 -0.3153
50739W        W93656   0.782  14.982  31.502 -0.0480 -0.1163 -0.0784
50740W        W93657  33.142  17.027  30.064 -0.0855 -0.1259 -0.4202
50741W        W93658  34.212  19.642  30.656 -0.1946 -0.2349  0.0902
50742W        W93659  33.534  16.851  31.541 -0.0351  0.0609 -0.2596
50743W        W93660   0.506  16.408   0.438  0.0435 -0.2530  0.0549
50744W        W93661  34.503  13.035   0.280 -0.3232  0.1221  0.0956
50745W        W93662   0.662  15.396   0.842  0.0492 -0.1572  0.2241
50746W        W93663  32.186  17.613   1.164  0.2991 -0.0158 -0.0854
50747W        W93664   0.198  18.295  30.527  0.1884  0.0209  0.1340
50748W        W93665  32.595  14.305  29.458 -0.3006 -0.0823  0.1417
50749W        W93666  33.734  13.808  30.309 -0.2366  0.1577 -0.0402
50750W        W93667  32.520  13.521   0.342  0.1396  0.0353  0.1741
50751W        W93668  32.475  19.261  30.843 -0.2630 -0.1244  0.0748
50752W        W93669   0.179  15.816   0.689 -0.0022  0.0259 -0.1004
50753W        W93670  31.841  17.639   0.768  0.0079  0.0830 -0.0661
50754W        W93671  33.104  16.302   0.367 -0.0753  0.3927  0.1515
50755W        W93672   0.566  19.155  30.562  0.0783 -0.0501  0.1198
50756W        W93673  32.859  18.262  30.747 -0.2415 -0.1155 -0.0922
50757W        W93674   0.370  13.705  31.651  0.2343 -0.0512 -0.1988
50758W        W93675   0.133  15.137  29.690 -0.1093  0.0145  0.0201
50759W        W93676   0.410  17.085   0.168 -0.2608  0.0645 -0.1316
50760W        W93677  32.595  17.031   0.522 -0.3856 -0.4281  0.1498
50761W        W93678   0.168  17.748  30.614 -0.1847  0.0595 -0.1415
50762W        W93679   0.180  13.867   0.723 -0.1402 -0.0241  0.3452
50763W        W93680   0.065  18.039  30.973  0.1731 -0.1799 -0.0986
50764W        W93681  33.955  16.598  29.620 -0.1574  0.1737  0.1139
50765W        W93682  31.035  17.422  31.364 -0.0236 -0.3379  0.0746
50766W        W93683  32.907  13.895   0.786 -0.0895 -0.0216 -0.0506
50767W        W93684  34.383  17.966  29.560  0.2181 -0.1138 -0.0194
50768W        W93685  33.975  13.736   0.481  0.0700  0.2691 -0.3864
50769W        W93686   0.548  14.037  29.829  0.1994  0.0397  0.3001
50770W        W93687   0.959  14.616  30.666 -0.0255  0.0744  0.2521
50771W        W93688   1.367  20.297  31.497  0.2781 -0.0045  0.0271
50772W        W93689  33.230  17.230  30.597  0.0646 -0.1901  0.0588
50773W        W93690  34.234  14.662  31.277 -0.1076  0.0400  0.1889
50774W        W93691  34.583  15.443   0.281 -0.1481 -0.2293 -0.1104
50775W        W93692   0.494  15.390  29.078 -0.2834 -0.0900  0.2780
50776W        W93693  33.296  16.937  31.025 -0.1140  0.5283 -0.0020
50777W        W93694  33.586  16.451   0.361 -0.1643  0.1800  0.1400
50778W        W93695   0.468  20.843  19.633 -0.0445 -0.2142 -0.0487
50779W        W93696  34.133  19.263  17.698  0.0386 -0.3650 -0.4632
50780W        W93697  32.551  17.735  18.961  0.1198  0.3303 -0.0054
50781W        W93698  32.590  18.355  19.072 -0.0574 -0.1076  0.0572
50782W        W93699  33.409  17.837  20.257  0.0691  0.0528  0.4223
50783W        W93700  33.883  20.604  19.047 -0.1637 -0.0160  0.1402
50784W        W93701  34.194  18.703  17.029 -0.0300 -0.1740  0.0601
50785W        W93702  32.000  19.578  17.830 -0.2595 -0.1891  0.0527
50786W        W93703  34.239  21.140  17.666 -0.0364 -0.0788  0.0153
50787W        W93704  33.410  19.025  18.890  0.3272  0.0545  0.2058
50788W        W93705  33.681  19.445  16.779 -0.1951  0.1478 -0.1232
50789W        W93706   1.377  19.307  19.189 -0.0614  0.0225 -0.0642
50790W        W93707  33.409  20.651  17.306 -0.2617 -0.3778 -0.1466
50791W        W93708  34.393  19.594  17.133 -0.0992 -0.0404 -0.0406
50792W        W93709  32.742  19.541  19.423  0.0616 -0.0441 -0.0426
50793W        W93710  34.651  19.506  19.374  0.0013  0.2562 -0.2487
50794W        W93711  33.335  21.264  17.194  0.1980  0.1962 -0.3182
50795W        W93712   1.525  21.133  18.290 -0.4602  0.2885 -0.0888
50796W        W93713  31.856  19.396  20.079 -0.1223 -0.0665 -0.0066
50797W        W93714  34.160  23.217  20.315 -0.0657  0.2192  0.1778
50798W        W93715  33.618  23.048  17.591 -0.1466  0.4186 -0.1157
50799W        W93716   0.786  19.545  19.921 -0.0773  0.3202 -0.1191
50800W        W93717  32.918  20.411  17.268  0.1561  0.2867 -0.1498
50801W        W93718  33.846  20.064  21.089 -0.0518 -0.1123 -0.0278
50802W        W93719  33.998  22.894  18.012 -0.1625  0.1714 -0.0675
50803W        W93720   0.128  21.489  18.394  0.0905  0.2128 -0.0315
50804W        W93721  33.143  17.675  21.235 -0.3637 -0.1007  0.0206
50805W        W93722  31.242  19.873  17.258  0.1589  0.0416  0.1127
50806W        W93723   0.818  20.394  18.289  0.1569 -0.1099  0.1157
50807W        W93724   1.059  19.025  17.905  0.1532 -0.0935  0.0696
50808W        W93725  33.588  19.036  17.892  0.1002  0.2052 -0.3910
50809W        W93726   0.357  22.730  18.841  0.1408 -0.1450  0.0098
50810W        W93727  34.556  18.628  17.956 -0.0406  0.0713  0.0633
50811W        W93728  34.401  22.493  18.915  0.0455  0.1615 -0.1800
50812W        W93729  32.721  21.180  17.852 -0.2815 -0.0692 -0.0820
50813W        W93730   0.600  21.480  18.497  0.0568  0.1724  0.1023
50814W        W93731  32.321  19.631  18.529 -0.2270 -0.3795 -0.1295
50815W        W93732   0.489  19.686  19.508  0.0854  0.2341  0.5042
50816W        W93733  32.315  18.173  17.565  0.0175 -0.0307  0.2508
50817W        W93734  32.647  20.281  18.300  0.0958  0.3818  0.2032
50818W        W93735  32.505  19.871  19.697 -0.2359 -0.0098 -0.1060
50819W        W93736  32.820  21.380  17.412  0.0528 -0.0361 -0.0833
50820W        W93737   0.421  19.668  18.544  0.4548 -0.1113  0.1342
50821W        W93738  31.844  21.670  19.471  0.0156  0.0060  0.1138
50822W        W93739  32.862  20.693  19.562 -0.0919 -0.0719  0.1713
50823W        W93740  34.625  20.983  19.663 -0.1600 -0.0599 -0.0223
50824W        W93741  33.210  21.613  17.664  0.1552 -0.2584 -0.0652
50825W        W93742  33.742  19.862  17.032 -0.0768  0.0704  0.1571
50826W        W93743  32.431  20.966  16.610  0.1763  0.1630 -0.2625
50827W        W93744  32.594  17.357  21.833 -0.1784  0.0755  0.2349
50828W        W93745   0.495  21.064  19.201  0.1460  0.1888  0.0880
50829W        W93746  31.233  17.087  18.153  0.0712  0.0872  0.4035
50830W        W93747  32.464  19.559  17.564 -0.1608  0.2507  0.1046
50831W        W93748  34.541  18.910  20.299  0.4820 -0.0704  0.3493
50832W        W93749  32.700  19.479  19.916 -0.1329 -0.0859  0.2515
50833W        W93750  32.341  19.142  19.892  0.0387  0.0828  0.0107
50834W        W93751  32.168  17.616  20.684 -0.1336 -0.0827  0.1365
50835W        W93752  32.289  18.350  17.106 -0.6151 -0.1504  0.1961
50836W        W93753  32.733  19.771  17.889  0.1072  0.0154 -0.2042
50837W        W93754  31.862  21.286  18.432 -0.2528  0.1356 -0.1085
50838W        W93755  33.335  19.575  20.180  0.3055  0.4183 -0.1521
50839W        W93756  33.139  17.912  18.214  0.1135  0.0888 -0.2494
50840W        W93757  34.639  20.919  18.130  0.0222  0.1058 -0.0728
50841W        W93758  33.913  21.904  17.092  0.1104  0.0354 -0.1130
50842W        W93759  32.318  18.555  18.004 -0.2150  0.0111 -0.1323
50843W        W93760   0.704  23.854  19.921  0.2749 -0.5535 -0.1511
50844W        W93761  31.146  18.953  17.471 -0.0686 -0.1331 -0.2780
50845W        W93762   0.410  21.660  18.019  0.0867 -0.2924  0.0537
50846W        W93763  33.120  20.502  18.200  0.0802 -0.0315 -0.0120
50847W        W93764   0.376  22.191  18.370 -0.2782  0.0959 -0.3072
50848W        W93765  30.476  19.889  17.964  0.2548  0.1639  0.4074
50849W        W93766  32.986  18.467  16.447 -0.0744  0.2815 -0.0488
50850W        W93767  31.829  19.944  18.282  0.1753  0.1914 -0.0169
50851W        W93768  31.251  20.521  21.573  0.0802 -0.1076  0.3653
50852W        W93769  33.790  22.379  18.630 -0.2511  0.1746  0.0437
50853W        W93770   1.443  21.026  17.763 -0.3585 -0.1261  0.0636
50854W        W93771  32.116  21.113  18.848 -0.0692  0.2044 -0.0082
50855W        W93772   0.073  20.279  20.995 -0.1949  0.0935  0.2721
50856W        W93773   0.099  19.303  16.957 -0.2360 -0.1714  0.0017
50857W        W93774  33.950  23.557  18.567  0.1588 -0.2747 -0.3348
50858W        W93775  30.689  18.217  19.361 -0.1244  0.0053 -0.1221
50859W        W93776  32.446  20.361  17.385  0.2608 -0.0316 -0.1279
50860W        W93777  32.381  18.946  18.411  0.0722 -0.0222  0.0880
50861W        W93778   0.826  21.830  19.728  0.0037 -0.0300  0.2319
50862W        W93779  32.985  22.090  19.899  0.3299  0.2022  0.1988
50863W        W93780   1.134  19.926  20.026 -0.0100 -0.1082 -0.1720
50864W        W93781   0.022  22.309  18.076 -0.0662  0.0809 -0.2297
50865W        W93782  32.807  21.856  18.231  0.0969 -0.1217  0.2081
50866W        W93783  33.750  18.110  19.024 -0.1213 -0.0023 -0.0611
50867W        W93784  32.120  20.845  17.818  0.1578 -0.2906  0.1648
50868W        W93785  34.094  20.685  16.571  0.0006 -0.0782 -0.1491
50869W        W93786  31.341  20.528  18.950  0.4345  0.0526  0.2317
50870W        W93787  32.689  22.814  18.674 -0.0054  0.0507  0.2595
50871W        W93788  33.582  19.530  17.781  0.1165 -0.2873 -0.3536
50872W        W93789  32.913  20.984  18.295  0.2825  0.0248 -0.4600
50873W        W93790  32.285  18.654  19.760 -0.0134  0.2731 -0.3373
50874W        W93791  33.673  18.925  16.921 -0.1299  0.0220  0.0888
50875W        W93792  33.208  19.533  18.183 -0.1515  0.0168  0.1012
50876W        W93793  34.232  20.860  18.859 -0.1368 -0.0597 -0.1515
50877W        W93794  30.209  19.416  17.142 -0.2624  0.0402  0.1057
50878W        W93795  31.226  18.293  19.109  0.1621  0.1101  0.1706
50879W        W93796  34.023  23.877  18.992 -0.4970  0.0974  0.0186
50880W        W93797  33.103  20.039  18.125  0.0307  0.0542 -0.2222
50881W        W93798  34.136  19.973  17.358  0.0596 -0.1707  0.0376
50882W        W93799  33.539  18.875  21.537  0.1028  0.0140  0.2467
50883W        W93800   1.084  18.356  19.011 -0.0021  0.0077 -0.0267
50884W        W93801  33.713  20.149  18.891 -0.2124  0.0145 -0.2585
50885W        W93802  33.399  21.118  17.761  0.1944 -0.1150 -0.2393
50886W        W93803   0.630  18.615  20.009  0.2127 -0.2364 -0.1170
50887W        W93804  33.224  20.840  22.176 -0.0383  0.1992 -0.3751
50888W        W93805  33.048  20.095  16.588 -0.1983 -0.2261 -0.2722
50889W        W93806  33.711  20.247  17.364  0.0183  0.2689 -0.0799
50890W        W93807   1.798  22.529  17.498 -0.0373 -0.1273  0.1292
50891W        W93808  32.806  17.008  17.949  0.0948 -0.3807 -0.1507
50892W        W93809   0.316  21.054  18.643 -0.0593 -0.1878 -0.1824
50893W        W93810  34.170  22.175  18.002  0.2964 -0.2129 -0.1623
50894W        W93811  34.314  21.322  19.360  0.0634  0.2067 -0.2798
50895W        W93812   0.632  19.372  17.290 -0.2702  0.2486  0.0818
50896W        W93813  32.072  18.255  19.145  0.0115 -0.0493 -0.1644
50897W        W93814  31.826  20.380  20.351  0.3591  0.0292  0.0986
50898W        W93815  31.001  19.621  19.121  0.1368  0.2941  0.0355
50899W        W93816  34.184  18.113  16.988  0.0694  0.0898  0.1658
50900W        W93817  32.853  21.499  19.180 -0.0475  0.0322 -0.1342
50901W        W93818  33.884  19.558  17.400  0.3881 -0.0466  0.3251
50902W        W93819  33.281  20.204  17.039 -0.0331  0.4070  0.0016
50903W        W93820   1.711  21.672  19.111 -0.1927 -0.4051 -0.1741
50904W        W93821  33.677  20.659  18.008 -0.1265 -0.0106  0.0177
50905W        W93822  32.241  20.385  19.988 -0.5549 -0.0486 -0.2946
50906W        W93823   0.627  17.910  19.324  0.0693 -0.0664  0.0875
50907W        W93824  32.830  18.861  20.869 -0.2766  0.1163 -0.1111
50908W        W93825  34.270  20.157  18.249  0.1443  0.0721 -0.1935
50909W        W93826  33.436  19.358  17.249  0.0198  0.5600  0.1095
50910W        W93827  34.558  21.867  18.121  0.3210  0.0309  0.2298
50911W        W93828  32.430  19.413  18.095  0.1364  0.1956  0.0285
50912W        W93829  33.867  21.961  18.383  0.0395  0.0087 -0.0607
50913W        W93830  32.717  18.759  18.756 -0.3314  0.0072  0.1049
50914W        W93831  33.815  19.006  17.455  0.0600  0.0449  0.3251
50915W        W93832  34.428  21.258  18.634 -0.0295  0.1802  0.1027
50916W        W93833  34.200  18.741  17.604 -0.2890  0.3916 -0.2178
50917W        W93834  33.564  21.534  18.207  0.1778 -0.0970 -0.0152
50918W        W93835   0.950  22.034  20.206 -0.1390 -0.1428 -0.2285
50919W        W93836  32.125  19.994  17.442 -0.2877 -0.0550 -0.1748
50920W        W93837   0.023  22.008  17.147  0.0988  0.3148  0.0264
50921W        W93838  33.495  21.603  18.793  0.3967 -0.2304  0.0045
50922W        W93839  33.200  17.769  18.677 -0.0374 -0.1139  0.2979
50923W        W93840  33.293  19.872  19.014 -0.0189  0.1164  0.1485
50924W        W93841  33.294  18.359  20.302 -0.0820 -0.0559  0.2975
50925W        W93842  33.124  19.179  17.767 -0.2080 -0.0309 -0.2535
50926W        W93843  33.162  21.491  20.052  0.3402  0.2020  0.1830
50927W        W93844  33.862  19.389  19.804  0.2638  0.0649  0.2357
50928W        W93845  33.095  21.280  18.702 -0.1035 -0.3073 -0.0344
50929W        W93846   1.378  20.076  17.619  0.0089  0.3861  0.0165
50930W        W93847  33.794  22.563  17.612 -0.1502  0.0204 -0.1736
50931W        W93848  32.071  21.101  16.958  0.0053 -0.1998 -0.1450
50932W        W93849   0.153  22.629  20.803 -0.2317  0.2223  0.0367
50933W        W93850   0.928  21.123  19.025 -0.1112  0.1065 -0.1731
50934W        W93851  34.171  19.762  16.665 -0.0521 -0.2726  0.0386
50935W        W93852  34.281  19.923  20.809 -0.0586 -0.2478 -0.2368
50936W        W93853  28.859  20.548  18.429  0.1435 -0.0340 -0.5438
50937W        W93854  31.695  18.009  18.597 -0.0035  0.0540  0.3348
50938W        W93855  33.736  20.583  20.110 -0.0740 -0.1496  0.2119
50939W        W93856   0.674  21.252  17.626  0.0362  0.0957  0.1299
50940W        W93857  33.711  24.206  19.345  0.2143 -0.0444  0.1731
50941W        W93858  33.998  22.045  19.863  0.0533 -0.1981  0.0105
50942W        W93859   2.592  21.888  17.439  0.1017 -0.0309  0.1216
50943W        W93860  32.324  19.794  17.056  0.0639  0.0221  0.1249
50944W        W93861  33.253  18.667  17.835  0.0407  0.1136 -0.0893
50945W        W93862  32.612  20.704  18.060  0.1890  0.2094 -0.0972
50946W        W93863  33.012  20.967  19.118  0.2729  0.0927 -0.0673
50947W        W93864   0.815  19.097  16.921  0.2550  0.1313 -0.1744
50948W        W93865  31.959  17.796  17.648  0.0028  0.2917 -0.0569
50949W        W93866  31.811  20.824  18.183 -0.0199  0.0771 -0.0003
50950W        W93867  33.405  19.952  19.543  0.1288  0.0403 -0.0947
50951W        W93868  33.443  20.023  18.474  0.1540  0.3328  0.1388
50952W        W93869  33.917  22.058  17.561  0.0268 -0.0687  0.3076
50953W        W93870  32.557  17.750  17.557 -0.1309  0.0650  0.0384
50954W        W93871  33.864  20.916  18.506  0.1553  0.3724 -0.0002
50955W        W93872  34.453  19.006  17.297  0.1433  0.0880  0.1290
50956W        W93873  32.868  21.001  17.089  0.0659 -0.2079  0.2179
50957W        W93874   1.068  21.332  17.282 -0.0360 -0.0217 -0.2055
50958W        W93875  33.110  23.075  18.754 -0.0969 -0.3104 -0.1574
50959W        W93876   2.998  21.533  18.583  0.0414  0.1419  0.0218
50960W        W93877  32.494  20.871  17.456 -0.2058  0.2684 -0.0393
50961W        W93878   1.271  19.770  19.082  0.2425  0.1924  0.1662
50962W        W93879   0.855  21.994  20.825 -0.1228 -0.1159  0.3640
50963W        W93880  33.369  20.390  17.735 -0.2040 -0.0591  0.0036
50964W        W93881  32.957  18.530  18.241  0.2399  0.1099 -0.1585
50965W        W93882  33.879  19.819  18.292 -0.1128 -0.0778  0.1644
50966W        W93883  34.412  20.249  17.785 -0.0648 -0.0303  0.0772
50967W        W93884  31.127  20.993  19.777  0.0178  0.4579  0.2633
50968W        W93885  32.293  20.982  18.351  0.0096 -0.3080  0.3288
50969W        W93886  32.923  21.756  18.702 -0.4418 -0.1380  0.1882
50970W        W93887  33.527  19.258  20.581  0.1914 -0.3676 -0.1176
50971W        W93888  32.233  18.110  19.874 -0.0928 -0.1802  0.1716
50972W        W93889  32.234  22.228  19.025 -0.0592  0.1015  0.0943
50973W        W93890  32.841  20.284  17.827  0.3601  0.0946 -0.0363
50974W        W93891  33.997  18.169  17.513  0.3498 -0.1348  0.1384
50975W        W93892  31.327  18.985  17.997 -0.1029 -0.1373 -0.2259
50976W        W93893  33.868  20.669  17.475 -0.0323 -0.1463 -0.0219
50977W        W93894  32.541  22.182  17.991  0.0185  0.2833  0.1139
50978W        W93895  33.304  20.362  19.793  0.0380 -0.1442 -0.0334
50979W        W93896  34.185  18.782  20.933 -0.0842 -0.0601  0.1650
50980W        W93897  32.974  20.199  18.692 -0.1413  0.0499  0.1124
50981W        W93898  34.430  20.945  17.272 -0.1495 -0.0241  0.2290
50982W        W93899   0.959  20.951  19.488  0.0026  0.1548 -0.0906
50983W        W93900  33.866  21.123  18.049  0.2173 -0.1040  0.1023
50984W        W93901  31.954  17.309  17.646  0.0893 -0.0879  0.0608
50985W        W93902  34.006  21.539  18.926  0.4602 -0.1211  0.3141
50986W        W93903  33.116  17.412  20.352 -0.0885  0.0964  0.0539
50987W        W93904  34.264  19.910  19.791 -0.2944  0.1460 -0.0270
50988W        W93905  34.446  20.456  19.756  0.2216  0.0270 -0.0493
50989W        W93906  32.636  18.986  19.460  0.0548  0.0820  0.0748
50990W        W93907   2.426  19.090  18.388  0.3653 -0.1131 -0.2672
50991W        W93908   0.512  20.106  19.732  0.0530 -0.1243 -0.2352
50992W        W93909  34.290  17.743  17.684 -0.0677 -0.3538  0.2912
50993W        W93910   1.397  22.374  19.932 -0.0227  0.1943 -0.1098
50994W        W93911  33.706  17.468  20.287 -0.1641  0.2468 -0.2371
50995W        W93912  33.942  21.349  17.208 -0.0351  0.1474  0.1582
50996W        W93913  34.018  20.651  19.752  0.0712  0.0390 -0.1140
50997W        W93914  32.271  19.282  19.298 -0.2245 -0.0216 -0.3228
50998W        W93915  33.860  21.120  19.297 -0.1896  0.0992 -0.0399
50999W        W93916  33.187  18.429  24.720 -0.0354  0.1114 -0.1141
51000W        W93917  33.305  20.570  23.534  0.3648 -0.0150 -0.1756
51001W        W93918  32.678  19.629  21.493 -0.3990  0.1314  0.2293
51002W        W93919  34.236  18.645  22.570  0.1059  0.0836  0.0725
51003W        W93920  32.049  18.683  23.996  0.2148 -0.0286  0.1595
51004W        W93921   0.089  22.551  24.474  0.3028 -0.1154 -0.0438
51005W        W93922   1.146  18.070  19.479 -0.2269  0.0151  0.0217
51006W        W93923  34.063  18.270  20.809  0.0175  0.1863 -0.0197
51007W        W93924  33.648  21.918  20.718 -0.1949 -0.1060  0.0540
51008W        W93925  31.732  20.171  23.957 -0.3364 -0.0945  0.0354
51009W        W93926  33.016  19.971  24.206 -0.3994  0.3046  0.1658
51010W        W93927  33.961  19.205  21.458  0.3152 -0.1525 -0.0170
51011W        W93928   1.510  21.277  20.681 -0.1306 -0.1271  0.1257
51012W        W93929  33.747  21.034  20.137 -0.0925 -0.0073 -0.0109
51013W        W93930  31.595  21.007  21.138 -0.0392  0.0626 -0.2200
51014W        W93931   1.421  18.256  22.798  0.0709  0.3036 -0.1988
51015W        W93932  33.730  21.084  23.086  0.0243  0.0059  0.4137
51016W        W93933   0.398  20.018  21.318  0.0059 -0.0628 -0.2333
51017W        W93934  33.281  19.815  22.554  0.1390  0.0052  0.4044
51018W        W93935  31.711  20.527  21.365  0.1337  0.2297 -0.1954
51019W        W93936  33.550  21.833  20.015  0.4154 -0.1298  0.1880
51020W        W93937   0.910  23.202  22.113  0.0403  0.0385 -0.0568
51021W        W93938  32.342  20.699  20.422 -0.1133  0.2054 -0.3137
51022W        W93939  33.422  20.333  21.294  0.3003 -0.0586 -0.0817
51023W        W93940   0.444  20.792  20.454  0.0213 -0.0366 -0.4475
51024W        W93941  34.524  21.541  22.694 -0.0558  0.2505  0.0238
51025W        W93942  32.879  19.285  23.115 -0.0893  0.0911 -0.0528
51026W        W93943  33.628  20.564  22.158 -0.2117 -0.0869 -0.0376
51027W        W93944  32.084  19.772  20.721 -0.0594 -0.0415 -0.1173
51028W        W93945  34.421  19.343  21.338 -0.1606  0.0786  0.0981
51029W        W93946   1.692  17.320  22.376  0.0593  0.0962  0.2013
51030W        W93947  32.269  22.379  21.245  0.1854 -0.3330 -0.0335
51031W        W93948  32.659  19.605  24.044 -0.0881 -0.1444  0.2406
51032W        W93949  33.428  21.409  22.241 -0.1586  0.1195 -0.0557
51033W        W93950  33.090  19.577  23.825 -0.1547 -0.1734 -0.4305
51034W        W93951  31.947  19.389  18.317 -0.1126 -0.1120 -0.2377
51035W        W93952   0.296  18.839  25.075  0.2349 -0.0643 -0.2017
51036W        W93953  33.070  21.152  23.557  0.0789  0.1554  0.1022
51037W        W93954  33.155  19.254  20.887  0.1095  0.0621  0.1505
51038W        W93955  32.098  20.281  22.348 -0.1235  0.1787  0.1912
51039W        W93956   0.504  19.605  21.657  0.0229 -0.2310  0.1358
51040W        W93957   0.728  19.210  21.372 -0.1349 -0.1761 -0.4618
51041W        W93958   1.162  21.145  20.281  0.3307 -0.0140  0.0134
51042W        W93959   0.288  21.654  22.645 -0.1374 -0.3838  0.3725
51043W        W93960  33.753  18.867  22.603  0.1400 -0.0169 -0.2752
51044W        W93961  34.441  21.861  24.048 -0.0529 -0.2023  0.1676
51045W        W93962  33.894  21.143  22.067 -0.1227  0.1433  0.2042
51046W        W93963  32.514  20.591  20.899 -0.1746 -0.1087  0.0175
51047W        W93964  33.586  20.634  20.893 -0.1219  0.1764 -0.1478
51048W        W93965  32.531  17.792  22.096  0.1367  0.0280  0.0396
51049W        W93966  33.427  21.528  23.114 -0.2133 -0.3373 -0.1286
51050W        W93967  32.117  20.319  23.217 -0.1079 -0.2276 -0.3641
51051W        W93968  33.354  21.092  21.702  0.1471 -0.2784  0.1636
51052W        W93969  32.939  20.043  21.685  0.0019  0.0836 -0.0224
51053W        W93970  32.852  20.397  21.281 -0.0631 -0.1276  0.2988
51054W        W93971  33.622  18.953  23.867 -0.0738 -0.0306  0.3388
51055W        W93972  33.140  19.164  23.592 -0.2902  0.0389  0.2748
51056W        W93973  32.184  17.203  21.014 -0.2611  0.0440 -0.0141
51057W        W93974   1.317  18.505  20.920  0.0803  0.2181  0.1406
51058W        W93975  33.197  21.771  20.522  0.3154 -0.0320  0.1648
51059W        W93976  33.378  19.402  22.837  0.1311  0.0780 -0.2787
51060W        W93977  33.706  18.576  21.166  0.0171  0.1868  0.2421
51061W        W93978  31.497  24.016  20.676 -0.2848  0.0030 -0.0528
51062W        W93979   0.493  19.730  22.164  0.4082 -0.0945  0.0175
51063W        W93980  32.579  17.764  20.924  0.2718  0.1954  0.1115
51064W        W93981  31.738  20.593  23.247  0.0463  0.4337 -0.1259
51065W        W93982  32.181  17.866  21.733 -0.0727  0.0154 -0.0125
51066W        W93983  34.452  22.290  20.745  0.0587  0.0480  0.1458
51067W        W93984  32.377  20.929  22.049  0.0355  0.1348 -0.1064
51068W        W93985   1.785  21.540  19.710 -0.1290 -0.1098  0.0651
51069W        W93986  32.531  21.476  26.108 -0.2287  0.0178 -0.0405
51070W        W93987  33.155  16.907  23.780  0.0977  0.1754 -0.0325
51071W        W93988  31.948  21.194  22.048 -0.0089  0.0292  0.1364
51072W        W93989   1.154  21.294  24.462  0.3034  0.1943  0.0883
51073W        W93990   3.530  21.614  21.086  0.4619  0.0183 -0.0751
51074W        W93991  34.118  21.041  21.576 -0.0495  0.2058 -0.2448
51075W        W93992  33.788  23.164  23.932  0.0962 -0.2647  0.0728
51076W        W93993   0.888  17.914  24.011  0.0849  0.0845  0.1859
51077W        W93994  34.524  18.864  21.788  0.1040  0.0601  0.3424
51078W        W93995  34.177  20.433  20.858 -0.3016 -0.0887 -0.1493
51079W        W93996   0.955  18.328  23.691  0.1655 -0.0014 -0.0567
51080W        W93997  33.233  20.994  20.844  0.5038  0.0114  0.1773
51081W        W93998   0.236  19.333  21.272  0.0821 -0.2070 -0.0686
51082W        W93999  31.762  20.143  23.460 -0.1165 -0.2413 -0.0938
51083W        W94000  33.097  21.672  24.202 -0.1162 -0.0368  0.2051
51084W        W94001   1.463  19.461  24.459  0.0272  0.0077 -0.0573
51085W        W94002  34.563  21.746  21.498  0.1013 -0.2710  0.1616
51086W        W94003  33.094  20.476  20.831 -0.1416  0.1883  0.1201
51087W        W94004  33.731  19.388  22.485 -0.3413 -0.0609 -0.0184
51088W        W94005  32.732  19.556  20.981 -0.0956  0.0082 -0.1462
51089W        W94006  33.830  20.182  19.875  0.5023 -0.0072  0.1805
51090W        W94007  34.327  21.764  20.454 -0.0350  0.1168  0.2976
51091W        W94008  32.256  21.308  19.673 -0.3127 -0.2506  0.2780
51092W        W94009  32.738  19.444  20.486  0.2270 -0.0345  0.0788
51093W        W94010  32.912  21.313  20.670 -0.3481  0.1289 -0.0889
51094W        W94011  33.826  16.938  21.773 -0.2471  0.1069 -0.3877
51095W        W94012  34.228  18.124  22.503  0.1148  0.2131  0.2777
51096W        W94013  33.710  22.875  21.665 -0.2220 -0.2794 -0.2656
51097W        W94014  33.542  19.548  24.292 -0.1533 -0.0221  0.0365
51098W        W94015  33.645  20.362  19.443 -0.0131 -0.2302  0.0926
51099W        W94016   1.148  19.903  22.388  0.0183  0.0433 -0.2267
51100W        W94017  31.486  23.037  21.384 -0.0435  0.0464  0.4276
51101W        W94018   1.567  22.015  19.448  0.0561  0.0111 -0.1915
51102W        W94019  33.333  22.931  22.031 -0.0059 -0.0366  0.3101
51103W        W94020   0.041  20.980  23.446 -0.3657 -0.1816  0.1937
51104W        W94021  34.121  19.219  23.519  0.0018 -0.2439 -0.1218
51105W        W94022   1.951  17.663  21.161 -0.0907  0.0899  0.2310
51106W        W94023  33.454  18.793  22.074 -0.2619 -0.1642  0.1577
51107W        W94024  34.042  19.803  22.780 -0.0518 -0.1459 -0.3000
51108W        W94025  33.321  20.863  24.000  0.2042  0.0522  0.2920
51109W        W94026  32.993  22.640  20.589 -0.3065  0.2492  0.1482
51110W        W94027  34.131  19.477  20.527  0.1770  0.2060 -0.0086
51111W        W94028  33.352  19.378  21.422 -0.0690  0.0172 -0.4212
51112W        W94029  34.246  18.894  24.445  0.1832  0.1307 -0.1748
51113W        W94030  31.972  21.986  23.362 -0.0520  0.2369  0.0051
51114W        W94031  32.861  20.788  20.458 -0.2054  0.1734 -0.0246
51115W        W94032  32.588  22.440  21.659  0.2248 -0.1418 -0.0902
51116W        W94033   1.246  18.518  21.932 -0.2735 -0.0092 -0.0048
51117W        W94034  32.838  19.780  22.201 -0.2630 -0.1380  0.2345
51118W        W94035  32.103  19.627  21.662  0.1080  0.0777  0.2729
51119W        W94036  34.406  22.232  23.561 -0.0763 -0.0271  0.0648
51120W        W94037  33.156  19.485  18.701  0.1597  0.0214 -0.2117
51121W        W94038   1.102  21.106  21.064  0.0148 -0.0577 -0.2375
51122W        W94039   0.527  21.062  21.216  0.1016  0.0480  0.0665
51123W        W94040  32.925  21.265  22.368  0.1299  0.3606 -0.4035
51124W        W94041  31.919  19.322  20.640 -0.0878 -0.0210 -0.2213
51125W        W94042   1.510  20.252  21.610 -0.2091 -0.0688  0.1746
51126W        W94043   0.063  18.615  22.519 -0.4116 -0.1193 -0.3462
51127W        W94044  32.827  19.734  23.309  0.1694  0.1388  0.0410
51128W        W94045  32.671  19.048  24.034  0.0551  0.1069 -0.0456
51129W        W94046  32.119  18.799  21.708 -0.1462 -0.0772 -0.1701
51130W        W94047  34.020  19.184  22.175 -0.0562  0.0244 -0.2132
51131W        W94048   0.880  21.888  21.410  0.1118 -0.2915  0.0253
51132W        W94049  34.645  19.746  21.503  0.1059  0.3458  0.2115
51133W        W94050   1.167  23.048  23.181 -0.0281 -0.4754  0.1120
51134W        W94051  31.841  19.526  19.230 -0.0827  0.0691  0.0453
51135W        W94052  34.247  20.856  19.337  0.2635  0.1615 -0.1263
51136W        W94053   0.960  20.896  23.238  0.1459  0.0509  0.3047
51137W        W94054  34.548  18.390  21.106 -0.1843 -0.0226 -0.1421
51138W        W94055  33.705  21.141  20.748 -0.3456 -0.0573  0.3857
51139W        W94056  33.514  23.372  20.984  0.0087  0.0185 -0.2192
51140W        W94057  32.395  19.455  23.067  0.1640 -0.1327  0.0309
51141W        W94058   0.166  20.602  20.056 -0.2461  0.0604  0.0858
51142W        W94059   1.311  19.046  21.226 -0.0233  0.1160 -0.0585
51143W        W94060   0.085  19.545  23.373  0.1954 -0.1330 -0.1197
51144W        W94061  34.172  21.138  19.827  0.1533  0.0750 -0.0689
51145W        W94062  31.790  19.209  21.641  0.1359  0.0849 -0.1509
51146W        W94063  33.016  20.293  22.292 -0.1763 -0.0383 -0.4846
51147W        W94064  32.390  21.241  21.646 -0.0032  0.0619 -0.0024
51148W        W94065  32.885  20.735  23.812  0.0890 -0.1331 -0.1253
51149W        W94066  33.641  19.882  22.217  0.1553 -0.1228 -0.2786
51150W        W94067   1.632  18.096  20.912 -0.1492 -0.0906 -0.2786
51151W        W94068  33.182  20.082  23.600 -0.0943  0.1085 -0.1324
51152W        W94069  31.116  21.840  21.388 -0.4606  0.0826  0.2780
51153W        W94070  33.364  21.510  21.419 -0.1813  0.3587 -0.0725
51154W        W94071  33.560  20.055  24.323 -0.0439  0.2636 -0.2275
51155W        W94072  33.292  18.800  20.608  0.2097  0.0232 -0.0761
51156W        W94073  34.353  19.431  23.119 -0.2900 -0.2406 -0.0617
51157W        W94074  33.679  21.413  22.688  0.0530 -0.1365 -0.1168
51158W        W94075  32.720  20.292  19.841 -0.1841 -0.2090 -0.1739
51159W        W94076   0.629  19.637  21.141 -0.0813  0.1681  0.0256
51160W        W94077   0.731  21.260  20.594 -0.0260  0.0697  0.3946
51161W        W94078  32.493  21.578  20.617 -0.1156  0.0183 -0.1315
51162W        W94079   0.216  21.944  23.627 -0.1094 -0.2460  0.3086
51163W        W94080  34.519  21.395  24.240  0.1304  0.1337 -0.0073
51164W        W94081  33.056  18.210  19.140  0.0535  0.3924 -0.0073
51165W        W94082   0.590  19.174  21.898 -0.0960 -0.1689  0.2339
51166W        W94083  33.952  19.055  20.355  0.1662 -0.1007 -0.0651
51167W        W94084  33.065  18.702  21.679 -0.1973 -0.1494 -0.0578
51168W        W94085  33.726  19.585  20.945 -0.1080 -0.0765 -0.0299
51169W        W94086  33.130  18.270  21.880 -0.1064 -0.0851  0.2117
51170W        W94087  33.579  20.607  21.650 -0.0188 -0.2273  0.0659
51171W        W94088   0.315  18.939  24.594 -0.1130 -0.1075  0.1412
51172W        W94089  34.313  20.143  21.277  0.0693  0.0835 -0.1844
51173W        W94090  32.737  21.844  20.246 -0.1794 -0.0598  0.1615
51174W        W94091  33.248  18.711  21.172  0.0728 -0.0077  0.0426
51175W        W94092  33.951  17.331  20.776  0.1811  0.3544  0.1813
51176W        W94093  31.385  19.017  22.809 -0.0449  0.0295  0.0943
51177W        W94094   0.607  21.795  22.299  0.1372 -0.1136  0.1201
51178W        W94095   1.041  20.765  20.530 -0.1375  0.2304  0.0341
51179W        W94096  33.652  22.590  23.952  0.0878 -0.1917 -0.1213
51180W        W94097  33.983  21.638  22.266 -0.0484 -0.4116  0.0572
51181W        W94098  31.587  18.970  20.274 -0.1503  0.2193  0.1509
51182W        W94099  33.114  20.120  22.935 -0.0042  0.1157  0.1203
51183W        W94100   1.408  22.322  21.330  0.2158  0.0695 -0.2145
51184W        W94101  34.054  20.630  21.834  0.3400 -0.3245 -0.0941
51185W        W94102   0.439  19.252  23.109  0.0428 -0.4905 -0.1151
51186W        W94103  31.495  19.894  23.069  0.4250  0.3583  0.1315
51187W        W94104  32.610  19.753  24.541 -0.0107  0.1713 -0.1636
51188W        W94105  30.817  19.503  20.199  0.1423 -0.1265 -0.0333
51189W        W94106  32.124  19.522  19.691  0.2129 -0.0326  0.1050
51190W        W94107  32.838  21.430  23.218 -0.0807  0.0772  0.1922
51191W        W94108  33.785  16.930  22.881  0.1586 -0.0568  0.1508
51192W        W94109  31.852  20.779  22.309  0.2906 -0.1692 -0.2636
51193W        W94110  32.431  21.073  20.748 -0.0403 -0.2395  0.2860
51194W        W94111  33.492  19.104  20.050 -0.1512  0.1769  0.0313
51195W        W94112  31.928  19.072  21.136 -0.2065  0.0410  0.3126
51196W        W94113  32.303  19.961  21.991  0.3154 -0.1074  0.0382
51197W        W94114  33.614  19.251  21.929 -0.3124 -0.2447 -0.3573
51198W        W94115  33.042  18.804  19.158 -0.1567  0.0214  0.1126
51199W        W94116  31.451  19.335  23.398 -0.1826  0.4200 -0.1222
51200W        W94117   1.580  20.236  22.545  0.1937  0.0170  0.0645
51201W        W94118  32.578  17.386  21.271  0.0141  0.2594  0.1300
51202W        W94119  34.417  18.695  23.767 -0.3339  0.2384  0.0673
51203W        W94120  34.512  20.506  23.241  0.1568 -0.1701 -0.1768
51204W        W94121  32.620  20.475  24.102  0.2064 -0.1646  0.2839
51205W        W94122  34.306  17.663  22.203  0.1744 -0.2515  0.0785
51206W        W94123   1.923  20.481  21.499  0.1253  0.2747  0.0615
51207W        W94124  34.367  18.886  23.255 -0.0972  0.0789 -0.0446
51208W        W94125  33.242  20.913  23.171 -0.0873 -0.0561 -0.2661
51209W        W94126  33.618  19.037  21.012 -0.0836  0.1320 -0.0153
51210W        W94127  33.471  19.857  21.373  0.0566  0.0059 -0.0298
51211W        W94128   1.807  19.236  21.372  0.0315  0.2166 -0.1664
51212W        W94129   1.406  18.392  21.389  0.3543  0.2062 -0.1272
51213W        W94130   0.371  20.898  22.384  0.0736  0.0040 -0.1075
51214W        W94131   0.596  22.719  24.512 -0.2054 -0.3420 -0.0108
51215W        W94132  34.162  18.678  21.449  0.3820  0.0168  0.2954
51216W        W94133  34.014  21.526  21.371 -0.1549 -0.2828  0.0014
51217W        W94134  32.809  19.156  21.342  0.0609 -0.0206  0.0328
51218W        W94135   0.344  18.842  22.199 -0.2259  0.2861 -0.1518
51219W        W94136   0.606  20.366  21.677  0.0520 -0.2103  0.2517
51220W        W94137  34.537  21.537  25.800 -0.0436 -0.1459 -0.2409
51221W        W94138   0.532  19.751  23.212  0.2648 -0.0470  0.0269
51222W        W94139  32.824  20.165  26.914  0.1985  0.2096 -0.1488
51223W        W94140  32.472  17.260  27.391 -0.0617 -0.1448  0.1580
51224W        W94141   0.325  18.979  27.139  0.1034 -0.0546 -0.3761
51225W        W94142  33.117  20.192  28.184 -0.0153 -0.0020 -0.1437
51226W        W94143  33.438  18.708  27.247  0.1291 -0.2284  0.2204
51227W        W94144  32.857  19.243  26.792  0.1369 -0.0709  0.1614
51228W        W94145  32.790  20.329  24.619  0.0202 -0.2470 -0.0850
51229W        W94146  32.632  19.264  24.519  0.0709 -0.0011  0.0081
51230W        W94147  33.539  19.833  23.818 -0.2153  0.1697  0.1411
51231W        W94148  33.605  20.826  27.656 -0.1057  0.0409  0.0976
51232W        W94149   2.684  23.742  24.437 -0.1799  0.0796  0.0482
51233W        W94150  33.972  19.938  25.044 -0.0169 -0.0021 -0.1338
51234W        W94151  33.814  19.013  27.109  0.0139 -0.1459 -0.1016
51235W        W94152  33.949  19.844  27.370  0.0007  0.0271 -0.0780
51236W        W94153   1.684  21.521  25.212  0.3350 -0.2563  0.1967
51237W        W94154   0.043  20.635  24.268 -0.1362  0.1867  0.1222
51238W        W94155  32.558  18.225  24.426 -0.0689 -0.0635 -0.0857
51239W        W94156   0.109  21.954  24.463 -0.2192  0.1746  0.2868
51240W        W94157   1.798  20.051  23.735  0.1667  0.1184 -0.1744
51241W        W94158   0.475  23.174  28.407 -0.1174 -0.0519  0.1600
51242W        W94159  34.196  21.340  24.653 -0.1377  0.0579 -0.2033
51243W        W94160   1.020  21.345  24.936 -0.0892  0.1177  0.1675
51244W        W94161  34.140  20.724  22.336 -0.1384 -0.0161 -0.0974
51245W        W94162  34.673  20.007  27.563  0.3484  0.0742 -0.1617
51246W        W94163  33.988  20.207  26.992  0.0557 -0.1215  0.0109
51247W        W94164   0.113  21.993  27.775  0.2254  0.2831 -0.1515
51248W        W94165   1.963  22.165  22.460  0.1752  0.1554 -0.3281
51249W        W94166  32.036  19.481  23.429  0.0161 -0.0932  0.3435
51250W        W94167   1.435  18.232  26.407  0.0487  0.1624 -0.2069
51251W        W94168   0.034  21.763  25.327 -0.1812  0.1147  0.1748
51252W        W94169  33.518  17.031  26.016  0.1609  0.3390  0.2210
51253W        W94170  32.572  21.968  26.225  0.1153  0.3493  0.0154
51254W        W94171  34.272  18.535  26.114  0.1140  0.3388 -0.0809
51255W        W94172  34.653  18.895  26.779  0.1297  0.0495 -0.0777
51256W        W94173  31.291  19.950  29.185  0.1167 -0.1699 -0.1950
51257W        W94174  33.748  18.141  26.923  0.1696  0.2026  0.1440
51258W        W94175   0.649  17.030  23.971 -0.3444 -0.2317 -0.0504
51259W        W94176  31.703  21.656  26.657  0.1465 -0.0460  0.1868
51260W        W94177   1.811  19.385  28.504  0.1039  0.4369  0.2145
51261W        W94178  32.208  19.261  24.123  0.3014 -0.3540 -0.1061
51262W        W94179  34.479  19.882  23.049  0.0143  0.2596 -0.1632
51263W        W94180  33.322  22.006  25.387  0.0925 -0.2212 -0.3284
51264W        W94181   1.388  20.255  27.376  0.2295  0.1225 -0.0702
51265W        W94182   1.122  18.664  28.821  0.1956  0.1367 -0.1705
51266W        W94183   0.277  21.182  22.794  0.0093  0.3052  0.1701
51267W        W94184  33.337  19.787  25.826  0.1693  0.0402 -0.0022
51268W        W94185  33.435  19.834  24.750  0.0172 -0.1452 -0.2541
51269W        W94186  31.382  19.363  24.455 -0.0159 -0.1328  0.1375
51270W        W94187   1.428  20.898  24.364 -0.1549 -0.1972  0.0450
51271W        W94188  34.593  19.508  27.739  0.2723 -0.1463  0.1691
51272W        W94189  34.287  18.005  26.493 -0.0633  0.0091  0.1756
51273W        W94190  33.112  20.020  26.511 -0.0594  0.1333  0.2318
51274W        W94191  33.781  19.520  25.791 -0.0002  0.1909 -0.3084
51275W        W94192  33.252  18.774  28.716  0.1986  0.0072 -0.1282
51276W        W94193   0.359  19.478  28.713  0.1603 -0.1474  0.4174
51277W        W94194  34.034  19.971  23.914  0.3375  0.0735 -0.0725
51278W        W94195   0.654  20.538  24.791 -0.0313 -0.3087  0.2001
51279W        W94196   0.949  20.967  24.195 -0.0035  0.1590  0.0521
51280W        W94197  34.456  17.735  28.477  0.0072 -0.2024 -0.0011
51281W        W94198  34.283  19.561  24.862  0.1685 -0.0433  0.0363
51282W        W94199  31.527  22.293  27.383  0.0082  0.0742  0.1225
51283W        W94200  33.955  20.489  25.264 -0.1127 -0.2091  0.0474
51284W        W94201   0.224  18.443  23.520  0.4780 -0.2262  0.2545
51285W        W94202  34.238  19.431  27.339  0.0496  0.2013 -0.0052
51286W        W94203  33.655  19.133  23.366  0.1784  0.0802 -0.0318
51287W        W94204   0.355  22.141  25.150 -0.0629 -0.1919  0.2880
51288W        W94205   0.092  20.213  27.091 -0.0414 -0.1536  0.2505
51289W        W94206   0.962  21.914  23.427 -0.1830  0.2128  0.0454
51290W        W94207  32.770  20.930  27.462 -0.4022  0.1771 -0.1548
51291W        W94208  34.171  18.524  24.781 -0.0508 -0.1145  0.5894
51292W        W94209  33.073  20.651  28.776 -0.2896  0.0760 -0.1033
51293W        W94210  33.485  20.472  28.511 -0.1366 -0.0312 -0.1507
51294W        W94211  34.653  22.063  26.552 -0.0206 -0.0489  0.0236
51295W        W94212   0.564  20.668  24.314  0.3426  0.1954  0.0479
51296W        W94213  34.089  18.220  23.809 -0.0897 -0.3888 -0.1323
51297W        W94214  34.031  18.060  26.074 -0.1397  0.1564 -0.0921
51298W        W94215   0.174  19.629  22.823  0.0329 -0.1922  0.2684
51299W        W94216  33.983  19.660  23.328 -0.0845  0.0287  0.0040
51300W        W94217  32.884  17.083  27.103  0.1334  0.0371  0.0325
51301W        W94218   0.270  20.321  24.542 -0.0876 -0.2554 -0.3254
51302W        W94219   1.017  19.522  26.313  0.4618  0.1546  0.1683
51303W        W94220   1.311  19.598  28.023 -0.1393 -0.1533  0.0144
51304W        W94221  33.418  21.479  27.410  0.0964  0.1630  0.0332
51305W        W94222   1.726  19.406  26.561 -0.1597  0.0514  0.1592
51306W        W94223   1.444  22.056  23.333  0.4292 -0.5844 -0.1033
51307W        W94224  32.421  21.225  23.032 -0.0318 -0.2388  0.2884
51308W        W94225  32.596  17.953  25.844  0.2179 -0.1051 -0.1682
51309W        W94226   1.627  21.285  24.670  0.0228 -0.0801  0.1690
51310W        W94227   0.411  18.072  23.920  0.1597  0.2077 -0.0112
51311W        W94228   1.536  21.295  24.122  0.1617 -0.1416  0.1194
51312W        W94229  32.851  22.944  25.767  0.2124  0.1229 -0.0471
51313W        W94230  32.665  20.110  25.320 -0.0077 -0.1083 -0.2285
51314W        W94231  33.353  20.537  27.357 -0.1057  0.1010  0.0773
51315W        W94232  33.458  18.838  25.630  0.0064  0.1267 -0.0315
51316W        W94233  34.538  19.377  24.095  0.1473 -0.0532  0.0744
51317W        W94234  33.015  22.403  27.483 -0.0516  0.1064 -0.2102
51318W        W94235   1.491  19.409  27.548  0.1895  0.2441 -0.2863
51319W        W94236  31.398  19.738  25.369 -0.1548  0.1563  0.1010
51320W        W94237   0.020  20.543  25.633  0.2799  0.0588 -0.0729
51321W        W94238  31.740  20.006  25.000 -0.0028  0.0329  0.1558
51322W        W94239  33.569  18.621  26.164 -0.0237  0.1109  0.0993
51323W        W94240  32.222  20.053  26.497 -0.3684  0.2708  0.0966
51324W        W94241   0.527  18.251  26.606  0.2040 -0.0560  0.0121
51325W        W94242  33.939  17.295  23.945  0.1692  0.1577  0.1710
51326W        W94243   0.816  18.384  27.520  0.2327  0.2442  0.0233
51327W        W94244   0.342  18.082  27.217 -0.0204 -0.0382 -0.0972
51328W        W94245   0.115  17.189  26.543 -0.1811  0.2308 -0.2628
51329W        W94246  32.987  21.778  27.334 -0.1008 -0.0701  0.0172
51330W        W94247  33.677  20.629  24.346  0.0645  0.0206 -0.0086
51331W        W94248  33.417  19.594  25.201  0.3096 -0.1836 -0.1614
51332W        W94249   0.645  20.052  24.911 -0.0788 -0.2295  0.0126
51333W        W94250   0.809  20.950  26.954 -0.2402 -0.1654 -0.1383
51334W        W94251  33.809  20.356  27.453  0.1977  0.2285  0.1257
51335W        W94252  34.547  20.520  23.813  0.1539 -0.0438 -0.2066
51336W        W94253  34.339  22.249  26.213 -0.1095 -0.0625 -0.2054
51337W        W94254   0.429  20.334  25.430  0.0934  0.0031  0.1114
51338W        W94255  31.228  19.007  26.658  0.1450 -0.3017  0.3424
51339W        W94256   0.480  19.878  27.289 -0.1421  0.1044  0.0301
51340W        W94257  32.023  20.021  28.541 -0.0856  0.2087 -0.0003
51341W        W94258  30.775  20.076  23.521 -0.2001  0.0717  0.1654
51342W        W94259   1.549  20.522  27.870 -0.0250 -0.0384 -0.0755
51343W        W94260  34.653  19.424  25.129  0.1704  0.1472 -0.0416
51344W        W94261  34.636  19.504  24.556  0.0728 -0.1363 -0.0135
51345W        W94262  34.344  19.958  21.850  0.1179 -0.0540  0.3612
51346W        W94263  33.664  18.664  24.812  0.2328 -0.0399  0.4878
51347W        W94264  33.281  19.063  26.918 -0.0815  0.0002  0.2575
51348W        W94265  33.119  19.198  27.368  0.0357  0.2109  0.2787
51349W        W94266  32.638  19.372  27.313  0.1867 -0.0116 -0.1082
51350W        W94267  31.601  19.116  25.307  0.1129  0.2466 -0.1152
51351W        W94268  34.463  18.361  22.881  0.0205  0.0245  0.3307
51352W        W94269   1.076  22.181  24.631 -0.0342 -0.2754 -0.0698
51353W        W94270  32.130  19.083  26.009 -0.1085 -0.0513  0.3179
51354W        W94271  34.636  20.739  27.157 -0.0658  0.0072  0.0283
51355W        W94272  34.196  19.820  25.998  0.2403 -0.1009 -0.1319
51356W        W94273   0.385  20.254  24.030 -0.2185 -0.1246  0.1767
51357W        W94274  32.980  19.167  28.380 -0.3166  0.2646 -0.0398
51358W        W94275  32.325  18.062  23.923 -0.1030  0.1438 -0.1220
51359W        W94276  34.352  20.263  24.379  0.3855 -0.0919  0.2890
51360W        W94277   0.375  22.233  26.155  0.0497  0.1087 -0.0165
51361W        W94278  32.893  21.947  27.792  0.1014 -0.5141 -0.0381
51362W        W94279   1.261  20.152  23.654  0.0025 -0.2968 -0.0990
51363W        W94280   0.152  19.490  27.284  0.1759 -0.0854  0.0399
51364W        W94281   1.586  21.691  27.838 -0.3836  0.1706 -0.3945
51365W        W94282  34.406  20.303  27.941 -0.1246  0.0658  0.0579
51366W        W94283  34.475  20.195  26.206  0.1569  0.0326 -0.0450
51367W        W94284  32.804  17.836  23.650 -0.0822  0.2065  0.1088
51368W        W94285   0.441  20.447  28.566 -0.1647  0.0405 -0.1051
51369W        W94286  33.824  21.033  27.254 -0.0606 -0.0683 -0.2668
51370W        W94287  33.947  19.941  25.549 -0.1589 -0.1585  0.0149
51371W        W94288   0.422  17.538  24.103 -0.0725  0.1779  0.1283
51372W        W94289  32.755  20.882  26.852 -0.1954  0.1185  0.0534
51373W        W94290  34.585  20.973  23.924 -0.0061 -0.3040  0.2021
51374W        W94291  33.927  22.054  26.031 -0.0543  0.3707 -0.1355
51375W        W94292  34.357  20.469  24.815 -0.0618  0.4330 -0.1582
51376W        W94293  32.138  17.046  27.097 -0.0695  0.0193 -0.0497
51377W        W94294   0.507  19.513  26.341  0.0048 -0.1233 -0.2490
51378W        W94295   0.028  21.965  29.290  0.2727  0.1087 -0.0548
51379W        W94296  30.918  20.523  22.673  0.2808 -0.4617  0.0481
51380W        W94297  34.195  20.315  25.753  0.2645  0.0421 -0.2303
51381W        W94298  34.388  21.314  22.159  0.2405 -0.2183  0.2985
51382W        W94299  33.230  20.383  24.042  0.2005 -0.4220  0.0001
51383W        W94300   1.126  21.621  25.744  0.1909 -0.3728 -0.1326
51384W        W94301  31.722  23.055  27.785 -0.1879 -0.0704  0.1002
51385W        W94302  32.676  19.264  26.108  0.1841 -0.2249 -0.0153
51386W        W94303  34.597  18.836  27.504 -0.2932 -0.0740 -0.1978
51387W        W94304   1.382  20.647  26.820  0.1022  0.2494 -0.1788
51388W        W94305  30.825  19.412  28.555 -0.0375 -0.1138 -0.1513
51389W        W94306  34.546  19.940  22.536  0.3299 -0.1158 -0.1757
51390W        W94307  33.244  17.828  23.817 -0.0193 -0.2381 -0.2012
51391W        W94308  33.389  20.192  26.952 -0.0313 -0.0392  0.2492
51392W        W94309  34.372  19.659  29.443 -0.1793 -0.1488  0.0345
51393W        W94310  33.032  19.985  24.956  0.0109 -0.2995  0.2994
51394W        W94311  32.472  21.481  25.042  0.0010  0.2233 -0.0852
51395W        W94312  32.465  19.696  26.936 -0.0147 -0.0994 -0.1289
51396W        W94313   0.733  18.835  24.390 -0.3685 -0.0297 -0.1562
51397W        W94314  34.117  18.865  26.710  0.2264  0.0823  0.0262
51398W        W94315   0.142  20.063  23.416 -0.2877 -0.0154  0.0974
51399W        W94316   0.506  21.136  23.232  0.0044  0.1652 -0.2872
51400W        W94317  34.242  21.495  28.667  0.2384 -0.0797 -0.2132
51401W        W94318  34.437  22.340  27.886 -0.2794 -0.0935  0.2047
51402W        W94319  33.721  21.273  24.869  0.1746  0.3658 -0.0370
51403W        W94320  33.226  19.172  27.898  0.1542 -0.0115 -0.4265
51404W        W94321  31.894  21.125  26.853  0.2870  0.0751  0.0786
51405W        W94322  34.607  19.640  26.274 -0.2392  0.2389  0.1639
51406W        W94323  34.081  17.740  27.084  0.1412  0.2510  0.0104
51407W        W94324   0.051  19.006  22.882 -0.1043 -0.2296  0.0106
51408W        W94325   0.585  20.746  26.448  0.1622 -0.0047 -0.1449
51409W        W94326  29.178  20.591  24.970 -0.1209 -0.0624  0.2361
51410W        W94327   1.224  20.917  25.685  0.4579 -0.0238  0.1458
51411W        W94328  34.013  19.430  26.847  0.3522 -0.0404 -0.3202
51412W        W94329  33.520  17.832  29.236 -0.0209  0.0187  0.0628
51413W        W94330  32.373  20.758  28.183 -0.1243 -0.0785 -0.0538
51414W        W94331  33.102  20.585  26.406  0.1561  0.1826  0.0856
51415W        W94332  33.094  20.209  25.563  0.2214  0.2213  0.0337
51416W        W94333  33.695  19.113  26.500  0.1559 -0.1157  0.0841
51417W        W94334  33.220  19.129  24.201 -0.0589 -0.0087  0.1787
51418W        W94335  33.683  19.307  27.532  0.0307  0.3371  0.0707
51419W        W94336  34.048  20.758  22.827 -0.0640  0.1396 -0.0181
51420W        W94337   1.614  19.342  27.065  0.1836  0.3846 -0.0461
51421W        W94338  33.439  18.128  26.538  0.0064  0.0266 -0.0239
51422W        W94339  31.982  18.271  24.361 -0.0801 -0.0374 -0.0422
51423W        W94340   0.213  20.165  28.006  0.0796  0.1164  0.2958
51424W        W94341  34.381  21.182  27.355  0.3849 -0.0697  0.1516
51425W        W94342  34.306  21.497  26.713  0.1513  0.2785  0.1741
51426W        W94343  34.095  19.434  27.836  0.0183 -0.0433  0.1063
51427W        W94344  34.375  21.990  25.779 -0.0205  0.3598  0.0954
51428W        W94345  34.432  16.339  26.853 -0.0720 -0.1396  0.0253
51429W        W94346  32.662  22.302  26.576 -0.1329 -0.0088  0.2315
51430W        W94347  33.638  17.931  25.497  0.0246 -0.1708 -0.1294
51431W        W94348  33.844  19.412  25.266 -0.0175  0.1253  0.1110
51432W        W94349  33.539  19.090  26.023  0.1437 -0.0441 -0.1888
51433W        W94350   2.017  19.633  27.064  0.0146 -0.1504 -0.1571
51434W        W94351   0.598  19.531  24.470  0.1408  0.0797  0.2528
51435W        W94352   1.332  23.854  27.522  0.3018  0.0945 -0.1075
51436W        W94353  33.049  18.995  26.433  0.0081 -0.0374 -0.0031
51437W        W94354  33.541  20.362  26.399 -0.0827  0.1635 -0.2851
51438W        W94355  34.108  19.402  24.400 -0.1275  0.0364  0.2260
51439W        W94356  34.430  17.553  24.983 -0.0683 -0.1883 -0.2560
51440W        W94357  34.353  22.525  27.377  0.1294 -0.1231 -0.2336
51441W        W94358  32.122  19.493  28.646  0.0390 -0.4864 -0.1677
51442W        W94359  32.361  18.624  26.800  0.2048 -0.1336 -0.1032
51443W        W94360  32.545  16.546  28.692 -0.3066  0.5948  0.1302
51444W        W94361  33.423  18.797  31.293  0.2903  0.1691 -0.1401
51445W        W94362   1.904  18.577  28.152  0.0712  0.0139 -0.1690
51446W        W94363  34.080  20.683  28.609 -0.0682  0.1503  0.0231
51447W        W94364   0.131  17.984  28.204 -0.1737 -0.2552  0.1609
51448W        W94365  32.805  19.515  30.564 -0.2553 -0.1676  0.0064
51449W        W94366  33.365  18.141  30.725  0.1747  0.0663  0.0599
51450W        W94367  33.310  19.601  29.370 -0.0438 -0.5077 -0.1995
51451W        W94368  33.716  21.430  28.894 -0.0027 -0.2785 -0.2724
51452W        W94369   0.001  19.205  31.325 -0.0053 -0.0368 -0.0652
51453W        W94370   2.713  22.521  30.452  0.0359  0.1547 -0.1760
51454W        W94371  32.393  18.335  29.509  0.2155 -0.1860 -0.0559
51455W        W94372  31.963  18.461  28.956 -0.1062 -0.0302 -0.0107
51456W        W94373  33.476  20.181  30.288 -0.0965 -0.1408  0.3292
51457W        W94374  33.300  22.437  29.021 -0.2522  0.0914  0.0375
51458W        W94375   1.365  21.438  29.567  0.2399 -0.1102  0.1221
51459W        W94376  30.259  21.368  28.838 -0.1939 -0.0952 -0.0700
51460W        W94377   1.180  20.453  28.264 -0.1176 -0.0015  0.1157
51461W        W94378   0.613  19.940  28.863  0.1190 -0.2052  0.1020
51462W        W94379  31.869  22.153  30.619  0.0634  0.4052  0.0302
51463W        W94380  33.589  19.213  28.685  0.3250 -0.0367  0.0467
51464W        W94381   0.043  21.598  29.612  0.3454 -0.0930  0.0472
51465W        W94382   1.430  20.609  28.670 -0.3265  0.2763 -0.1191
51466W        W94383   1.845  21.934  28.307 -0.2531  0.0769 -0.0109
51467W        W94384  33.093  22.469  31.589 -0.4533 -0.0364 -0.1741
51468W        W94385  33.052  19.132  29.426 -0.1482 -0.0008 -0.2179
51469W        W94386   0.391  21.212  28.816 -0.1847  0.0576 -0.1510
51470W        W94387   1.768  18.522  27.617 -0.1080  0.2718  0.0299
51471W        W94388  34.022  18.886  28.568 -0.1889  0.1334  0.0087
51472W        W94389  34.625  21.364  29.108  0.0231 -0.0341 -0.0256
51473W        W94390  33.824  18.310  30.575 -0.3100  0.2493 -0.1156
51474W        W94391  33.394  21.436  28.396 -0.0819  0.2730  0.2876
51475W        W94392  33.718  19.833  26.768 -0.1195 -0.3380  0.0364
51476W        W94393   0.198  17.945  27.732  0.2789 -0.4659 -0.0947
51477W        W94394  33.220  20.989  31.119  0.3832 -0.0461  0.2252
51478W        W94395  33.118  20.929   0.572 -0.3038  0.1780  0.1701
51479W        W94396   0.179  17.482  28.426 -0.2670 -0.0826 -0.0976
51480W        W94397  30.225  21.266  30.636 -0.1730  0.2507  0.1086
51481W        W94398  32.537  20.108  29.523  0.1051  0.1446  0.0780
51482W        W94399   0.341  18.571  27.451  0.0512 -0.0247  0.3670
51483W        W94400   0.393  19.739  28.262 -0.1708  0.0880 -0.3426
51484W        W94401  33.642  22.408  30.750 -0.0777  0.4231  0.1316
51485W        W94402   0.241  18.525  30.101  0.3518 -0.0051  0.0817
51486W        W94403  34.534  20.946   0.177  0.3255  0.0889 -0.1385
51487W        W94404  31.177  22.203  28.361 -0.0234  0.0689 -0.1374
51488W        W94405  32.701  21.295  30.898 -0.1698 -0.1027 -0.1920
51489W        W94406  34.018  20.549  26.530  0.1563 -0.1705  0.1238
51490W        W94407  32.115  16.976  27.614 -0.0284 -0.3440 -0.1426
51491W        W94408   1.775  22.338  29.760  0.0537  0.1693  0.1294
51492W        W94409  33.113  17.857  27.540  0.0035  0.2530  0.0039
51493W        W94410  33.875  21.171  28.469 -0.3941  0.1400  0.0353
51494W        W94411  30.831  20.056  28.973 -0.2537 -0.0492  0.2550
51495W        W94412  33.888  18.890  28.070  0.1128 -0.2054 -0.3243
51496W        W94413  34.246  20.449  30.165  0.1402  0.0328  0.1733
51497W        W94414  31.631  18.621  29.442  0.0309 -0.0418  0.1144
51498W        W94415  34.653  18.018  26.910 -0.0699 -0.3024 -0.0209
51499W        W94416   1.905  19.030  28.769  0.1202 -0.1617 -0.3311
51500W        W94417  32.489  18.557  28.990  0.0057 -0.1907  0.0246
51501W        W94418  33.905  18.407   0.031 -0.0142  0.0801 -0.3590
51502W        W94419  33.950  19.760  28.408  0.3156  0.2347 -0.0375
51503W        W94420  32.366  21.347  27.976 -0.4300  0.2085 -0.2245
51504W        W94421  34.257  20.108  29.652 -0.0929  0.0390  0.0348
51505W        W94422  33.820  18.458  25.728 -0.1184 -0.2274  0.0895
51506W        W94423  32.890  17.832  29.826 -0.0208 -0.1349 -0.2520
51507W        W94424  32.890  18.708  26.787  0.0627  0.0741  0.1014
51508W        W94425  34.488  20.714  28.236 -0.2635  0.0352  0.1047
51509W        W94426  33.574  19.673  28.949 -0.0740 -0.1805 -0.1203
51510W        W94427   2.111  19.882  28.313  0.1311 -0.1379 -0.3202
51511W        W94428  33.631  20.833  31.300 -0.1928  0.2131  0.2019
51512W        W94429  33.011  18.794  27.612  0.0869 -0.1422 -0.3556
51513W        W94430  33.513  21.216  29.300  0.2835  0.0071 -0.0627
51514W        W94431  33.714  19.201  31.772 -0.1140 -0.1468 -0.0887
51515W        W94432   0.980  19.865  27.375 -0.1138  0.1131 -0.2041
51516W        W94433   0.684  20.216  27.610  0.0397 -0.2538 -0.2202
51517W        W94434  32.384  20.468  28.595 -0.1429 -0.1063  0.5856
51518W        W94435   0.327  15.057  31.049  0.2438  0.0639 -0.1161
51519W        W94436   0.116  18.489  27.942 -0.1473 -0.3305 -0.0951
51520W        W94437  32.202  20.807  26.601 -0.1827  0.4229 -0.0715
51521W        W94438   0.303  19.644  30.660  0.2766 -0.2660 -0.0519
51522W        W94439  33.452  18.852  28.278  0.0865 -0.3354  0.0267
51523W        W94440   0.989  18.672  29.574  0.0359  0.2073 -0.2088
51524W        W94441   0.298  16.852  30.366 -0.1159 -0.1862  0.1281
51525W        W94442  30.066  19.850  30.764  0.0609 -0.0789 -0.5211
51526W        W94443  34.088  19.741   0.534 -0.1201  0.2332 -0.0174
51527W        W94444   1.431  20.131  28.771  0.0564 -0.0791 -0.0867
51528W        W94445   0.039  20.598  27.603  0.1960 -0.2426  0.0829
51529W        W94446   0.567  20.097  31.588 -0.5678  0.3017  0.2442
51530W        W94447   0.178  21.296  29.954 -0.1091  0.0969 -0.0768
51531W        W94448  32.332  20.171  28.201  0.2906  0.0019 -0.0854
51532W        W94449   1.016  22.021  28.653  0.4225 -0.2264  0.0635
51533W        W94450  34.535  20.373  28.832  0.1898  0.1584  0.0351
51534W        W94451  34.373  18.068  27.925 -0.2178 -0.3347  0.0341
51535W        W94452  34.156  17.231  29.181 -0.0780  0.2877  0.0948
51536W        W94453  34.468  19.335   0.468 -0.0653 -0.1529  0.1922
51537W        W94454  32.730  16.518  30.325  0.0116  0.3639  0.2027
51538W        W94455  32.578  20.533  27.812  0.1262 -0.3647 -0.1554
51539W        W94456  34.457  20.890  29.313  0.2542 -0.1305  0.5057
51540W        W94457  31.765  19.150  28.788  0.1829 -0.1877 -0.1598
51541W        W94458  33.705  18.490  28.462  0.0078  0.1815 -0.2776
51542W        W94459   1.032  21.006  27.405 -0.2188 -0.0711  0.1407
51543W        W94460  33.478  20.225  27.815  0.1912 -0.1042 -0.3222
51544W        W94461  33.121  19.764  28.589 -0.2841 -0.1736  0.1491
51545W        W94462  33.838  19.207  30.220  0.2280  0.3958 -0.0874
51546W        W94463  34.649  18.256  28.651 -0.2763 -0.0134 -0.2186
51547W        W94464   1.179  17.779  29.729 -0.0981  0.2534 -0.0629
51548W        W94465  34.309  20.146  28.432  0.0927 -0.0519  0.0000
51549W        W94466   1.059  18.473  28.390  0.1162 -0.2338 -0.1075
51550W        W94467  34.531  21.377  30.937  0.0189  0.1382  0.4846
51551W        W94468  34.288  18.583  27.840  0.1709 -0.0920 -0.0393
51552W        W94469  33.509  19.986  31.244  0.2035  0.3774  0.1626
51553W        W94470   0.723  20.769  28.301 -0.0325 -0.1665 -0.1736
51554W        W94471   0.168  19.770  29.618 -0.1097  0.1173  0.1073
51555W        W94472  33.621  19.700  27.790  0.0791 -0.2869 -0.2224
51556W        W94473  32.803  20.610  28.296  0.1365  0.0046  0.0361
51557W        W94474   0.356  20.425  30.236  0.1780 -0.0133 -0.0250
51558W        W94475   0.482  20.942  30.729  0.1261 -0.0478  0.2085
51559W        W94476  33.965  16.349  30.080 -0.2421 -0.1854 -0.0526
51560W        W94477   1.233  19.187  28.735 -0.0215  0.1883  0.0138
51561W        W94478  34.305  19.919  30.155 -0.1360 -0.0461  0.1843
51562W        W94479  33.700  17.632  27.429 -0.0060 -0.0516  0.0165
51563W        W94480   1.540  18.959  28.346 -0.0333  0.1523  0.1089
51564W        W94481   1.101  21.306  28.255 -0.3664  0.0841  0.1267
51565W        W94482  32.536  19.698  28.259  0.0539  0.2731  0.1204
51566W        W94483   1.907  20.540  29.482 -0.0199 -0.2142 -0.0480
51567W        W94484   1.007  19.956  28.378  0.0298  0.0134  0.0150
51568W        W94485  32.386  18.419  30.475 -0.1367 -0.2513 -0.0250
51569W        W94486  33.827  19.079  31.173 -0.0757  0.2408 -0.1637
51570W        W94487  32.524  17.360  30.634 -0.0760  0.0266  0.0543
51571W        W94488   0.684  19.278  28.078 -0.2068  0.0419 -0.1446
51572W        W94489  34.175  18.452  28.316 -0.1263  0.2372  0.0103
51573W        W94490   0.720  21.830  27.302 -0.1156  0.0927 -0.0275
51574W        W94491  33.519  19.034  29.179 -0.0787 -0.1471  0.1067
51575W        W94492  34.070  21.522  30.912  0.0402  0.0619 -0.1557
51576W        W94493  32.515  18.562  27.673  0.1519  0.0288  0.0594
51577W        W94494   0.709  16.647  29.121 -0.4375 -0.2089  0.0881
51578W        W94495   2.443  22.915  31.100 -0.2328  0.2079  0.1624
51579W        W94496   1.103  17.762  28.517  0.1223  0.4885  0.1558
51580W        W94497  33.879  20.217  28.219 -0.0698  0.0771  0.1755
51581W        W94498   2.723  22.960  28.525  0.3195  0.0613 -0.1555
51582W        W94499  32.925  19.769  29.663 -0.0584 -0.0854 -0.2561
51583W        W94500  34.633  23.418  29.118  0.2248 -0.1540  0.4040
51584W        W94501   1.587  20.141  28.303  0.0551  0.0391 -0.0508
51585W        W94502   0.365  18.184  29.180 -0.1353 -0.1528 -0.1747
51586W        W94503  34.505  21.024  28.759  0.3088  0.0617 -0.0778
51587W        W94504  32.531  18.047  31.463 -0.0366  0.1120  0.2331
51588W        W94505  33.987  18.262  29.231  0.1037  0.1204 -0.0466
51589W        W94506  32.290  19.689  31.900 -0.1285  0.1450  0.2227
51590W        W94507  34.466  19.424  29.905  0.0191  0.2585  0.1404
51591W        W94508   1.497  21.912  29.464 -0.1672  0.0679  0.0251
51592W        W94509   0.497  19.374  25.408 -0.1293  0.3297 -0.0715
51593W        W94510  33.883  20.446  29.545  0.0182  0.1830 -0.1901
51594W        W94511  31.500  20.179  29.641  0.1834 -0.0854  0.0191
51595W        W94512  33.921  21.460  29.523 -0.0517  0.1842 -0.2951
51596W        W94513  34.456  19.133  29.497 -0.1090  0.2412  0.0532
51597W        W94514  33.184  17.675  26.670  0.0511 -0.4009  0.1462
51598W        W94515  33.916  19.654  31.441 -0.0043 -0.3017  0.0024
51599W        W94516  31.770  21.706   0.072  0.1157  0.0173  0.3713
51600W        W94517   1.476  19.942  29.310  0.1309  0.1184 -0.1001
51601W        W94518  33.246  20.948  28.322 -0.4205 -0.2474 -0.4927
51602W        W94519  34.127  21.059  26.517 -0.0179 -0.5746 -0.2128
51603W        W94520   1.969  22.485  28.179 -0.0059  0.1530  0.5627
51604W        W94521  33.933  21.442  30.005  0.0362  0.0863  0.3414
51605W        W94522   0.318  19.285  29.605  0.3839 -0.2400 -0.2650
51606W        W94523   0.840  19.454  28.611  0.0195 -0.1131 -0.1088
51607W        W94524  32.339  19.701  30.465 -0.3019 -0.0777  0.2300
51608W        W94525  34.483  19.713  28.206 -0.2557 -0.4598 -0.1913
51609W        W94526  33.425  19.780  29.928 -0.1876  0.0755 -0.4182
51610W        W94527  33.497  19.893  28.239  0.2736  0.1093 -0.2232
51611W        W94528   0.491  18.359  28.258  0.0279 -0.0291 -0.0547
51612W        W94529   0.156  19.265  28.259 -0.0258  0.3191  0.0168
51613W        W94530  34.587  20.412  30.473 -0.0514  0.0324 -0.1644
51614W        W94531  32.569  16.767  27.352  0.1022 -0.1932 -0.0715
51615W        W94532  33.040  21.981  26.334  0.1386  0.1528 -0.1164
51616W        W94533  32.694  17.571  28.898  0.0444 -0.0287  0.2292
51617W        W94534  34.071  17.695  29.278  0.1609 -0.0145  0.0461
51618W        W94535  32.902  20.006  29.185 -0.1870  0.2849 -0.0459
51619W        W94536  32.460  22.296  27.501  0.2535 -0.1106  0.0174
51620W        W94537  34.608  21.288  26.273  0.1620 -0.2729  0.1114
51621W        W94538   0.466  20.819  31.654 -0.3772  0.0473 -0.2503
51622W        W94539  33.096  21.478  29.324 -0.0789  0.1724  0.0435
51623W        W94540  31.575  19.466  27.946  0.0686 -0.2121  0.3091
51624W        W94541   1.577  21.443  29.068 -0.3546 -0.1152 -0.1025
51625W        W94542   0.907  20.192  29.198 -0.0446 -0.0398 -0.1382
51626W        W94543   0.221  22.831  29.503  0.0053 -0.1934  0.2467
51627W        W94544   2.053  19.060  27.139  0.2245 -0.2439  0.1066
51628W        W94545   0.689  17.249  27.577 -0.0145  0.0643 -0.0114
51629W        W94546   0.824  20.584  30.551  0.2691 -0.1923 -0.1433
51630W        W94547  32.765  17.931  28.453  0.0429 -0.3648  0.2290
51631W        W94548  34.493  20.435  26.722 -0.2412 -0.3664  0.0861
51632W        W94549   0.029  19.367  29.160 -0.0583 -0.1144  0.2368
51633W        W94550  32.606  17.321  29.739 -0.1837  0.1212  0.2688
51634W        W94551  33.751  18.670  28.938 -0.1996 -0.0413  0.0318
51635W        W94552  31.841  19.921  27.814  0.1823 -0.1091 -0.0347
51636W        W94553  34.551  19.547  28.734 -0.0665 -0.1968  0.0039
51637W        W94554   0.422  18.861  28.271 -0.2385 -0.1459  0.0355
51638W        W94555  30.942  17.535  29.490 -0.1015 -0.2269 -0.0227
51639W        W94556  33.134  19.320  28.917  0.5220 -0.2265  0.0109
51640W        W94557  33.082  21.902  28.257 -0.2703 -0.0440 -0.1353
51641W        W94558   0.576  18.313  29.673 -0.0254 -0.1905  0.1110
51642W        W94559  33.546  17.390   0.220 -0.0351  0.0037 -0.2131
51643W        W94560  32.879  18.078  25.395  0.1940  0.0939  0.0967
51644W        W94561   0.941  19.231  30.229 -0.0840  0.1054 -0.2200
51645W        W94562  33.614  20.398  29.116 -0.2247 -0.1468  0.4057
51646W        W94563  33.967  20.993  30.962 -0.0319 -0.1125 -0.2160
51647W        W94564  31.420  18.362  29.798  0.0894  0.2713 -0.0270
51648W        W94565  31.918  22.069  31.630  0.1060 -0.0938 -0.1213
51649W        W94566  32.588  17.741  29.420  0.3384  0.0105 -0.1457
51650W        W94567  31.791  19.996  31.005  0.0971  0.1054 -0.0313
51651W        W94568  34.298  17.985  28.880  0.0442 -0.1109  0.1074
51652W        W94569  34.085  19.011  27.595  0.0337  0.6047  0.2826
51653W        W94570  33.658  21.948  26.981 -0.3637 -0.3220 -0.0730
51654W        W94571  34.564  22.469  29.258  0.1454 -0.2217 -0.1916
51655W        W94572  34.013  17.491  28.727  0.0276  0.0839  0.0198
51656W        W94573  34.305  22.252  30.166 -0.0030 -0.1058  0.0222
51657W        W94574   1.541  17.862  27.641  0.2532 -0.0737  0.0879
51658W        W94575  33.903  21.992  30.772 -0.2573 -0.0647  0.1026
51659W        W94576   0.196  21.034  27.603  0.2915 -0.1218  0.0196
51660W        W94577  34.012  16.851  30.131  0.0307 -0.0527 -0.0068
51661W        W94578   1.195  21.960  30.352  0.1180  0.0168  0.0328
51662W        W94579  32.870  17.683  30.664  0.2661 -0.2335 -0.0659
51663W        W94580  33.022  19.784  30.221  0.0426  0.2072  0.0378
51664W        W94581  34.503  22.633  29.738 -0.0720  0.0319 -0.0815
51665W        W94582   0.181  20.432  31.508  0.0376 -0.0231  0.2325
51666W        W94583   0.619  19.857  29.495  0.1358 -0.0442  0.1871
51667W        W94584  32.754  18.855   0.001  0.0734  0.1155 -0.0289
51668W        W94585  33.391  20.500   0.716 -0.1719  0.4991  0.0757
51669W        W94586  33.776  20.230   0.500 -0.3256  0.0478 -0.0498
51670W        W94587  33.910  19.615  29.921  0.4098  0.2344 -0.1218
51671W        W94588  32.221  17.016  30.501 -0.1020  0.0354  0.2185
51672W        W94589  32.424  18.191  31.027  0.0196  0.1495  0.1303
51673W        W94590  30.558  17.375  31.223 -0.3092 -0.1611 -0.4894
51674W        W94591  32.018  21.564  31.308  0.3454 -0.0724  0.0098
51675W        W94592  33.090  19.673  31.262  0.1666 -0.0735  0.1946
51676W        W94593  32.228  21.984  29.260 -0.1443  0.0707  0.3729
51677W        W94594  34.054  18.159   0.418  0.0367 -0.0287 -0.0299
51678W        W94595  34.531  21.695  30.064 -0.1779  0.1448 -0.1670
51679W        W94596  33.262  21.229  30.202  0.1875 -0.2199  0.1148
51680W        W94597  33.702  18.173  31.066  0.0199  0.0924 -0.1572
51681W        W94598  32.962  20.558   0.965 -0.3208  0.1796 -0.1828
51682W        W94599  33.820  20.415  31.069 -0.2086 -0.2238 -0.3468
51683W        W94600  32.555  21.950  30.102  0.1270  0.0838 -0.2900
51684W        W94601  33.823  19.969   0.003  0.0580  0.2315 -0.4604
51685W        W94602  31.776  19.260   1.382 -0.0139  0.0086 -0.0957
51686W        W94603  34.443  20.409  31.797 -0.3569  0.0094 -0.0946
51687W        W94604  32.420  19.169  31.940 -0.1910  0.1324  0.3679
51688W        W94605   0.318  20.286  29.043  0.2139 -0.1499  0.1086
51689W        W94606  32.903  17.596  31.479 -0.2130 -0.0715 -0.2755
51690W        W94607  31.914  20.858  31.948  0.1896  0.1042  0.2638
51691W        W94608  33.762  19.015   0.916  0.2173  0.6871  0.0037
51692W        W94609  34.171  20.257  30.665 -0.0385  0.3138  0.0753
51693W        W94610  33.119  19.122  30.684  0.1249 -0.1081  0.0165
51694W        W94611  34.064  21.094  31.870  0.1808 -0.0676 -0.3310
51695W        W94612  33.301  21.154  31.608 -0.4467 -0.0689 -0.0007
51696W        W94613  34.547  20.129  31.272 -0.1423 -0.1413  0.1482
51697W        W94614  31.952  20.841  31.415 -0.2544 -0.3098 -0.1195
51698W        W94615  32.084  21.374  31.734 -0.0058 -0.3390  0.1960
51699W        W94616   0.033  20.225  29.828 -0.0201  0.1540  0.0507
51700W        W94617  31.674  17.465   0.141  0.3218  0.0741  0.3096
51701W        W94618  32.782  25.152  18.670  0.2748 -0.1185  0.0374
51702W        W94619  33.666  24.398  17.988 -0.3004 -0.2208  0.0904
51703W        W94620  31.979  22.775  17.125  0.2937  0.0361 -0.0510
51704W        W94621  33.370  22.448  20.823  0.2570  0.0784  0.0237
51705W        W94622   0.350  23.238  20.971  0.5078 -0.0419  0.1780
51706W        W94623  32.452  26.006  19.061 -0.3682 -0.0916 -0.1253
51707W        W94624   1.069  21.889  17.936 -0.1939  0.2878 -0.2482
51708W        W94625  32.726  20.561  19.117 -0.0337 -0.2558 -0.0402
51709W        W94626  33.791  23.231  17.132 -0.0840 -0.3843 -0.0227
51710W        W94627   0.387  23.021  20.538 -0.0020  0.0590  0.1867
51711W        W94628   0.161  22.331  17.488  0.0325  0.0048  0.1068
51712W        W94629  31.631  22.618  20.478  0.1818 -0.1227  0.0681
51713W        W94630  34.188  25.258  18.048  0.1614 -0.2426 -0.4404
51714W        W94631  33.336  22.699  17.438  0.0118 -0.2096 -0.0558
51715W        W94632  32.054  20.817  19.596 -0.1625 -0.0275  0.1086
51716W        W94633  34.589  24.214  20.038  0.0213  0.0259  0.1247
51717W        W94634  34.054  26.034  19.334  0.1418 -0.0615  0.0501
51718W        W94635  34.488  23.999  19.161 -0.4812 -0.2329  0.3580
51719W        W94636  31.919  24.069  19.740 -0.2189  0.0286  0.0912
51720W        W94637  34.167  22.033  19.322 -0.0617 -0.1324  0.2787
51721W        W94638   0.913  26.498  19.271 -0.2497 -0.2379  0.1186
51722W        W94639  31.215  25.620  20.346 -0.1590  0.3799 -0.2233
51723W        W94640   1.755  22.665  16.564 -0.1195  0.2506 -0.1111
51724W        W94641  34.565  25.759  18.564  0.2817  0.1947  0.1074
51725W        W94642  34.455  25.275  18.933  0.2671 -0.0907 -0.2525
51726W        W94643   1.558  25.656  18.808 -0.0500 -0.0584 -0.0430
51727W        W94644  33.323  22.764  20.271 -0.3010  0.1049 -0.3677
51728W        W94645  32.410  23.353  18.852 -0.0229 -0.2308 -0.1044
51729W        W94646   0.186  26.692  16.855 -0.1100 -0.3149  0.0941
51730W        W94647  34.415  24.207  16.577 -0.0295 -0.2489  0.1080
51731W        W94648   1.531  23.748  18.806 -0.0258  0.3129  0.1488
51732W        W94649  32.211  25.195  20.220  0.3033  0.0354  0.3076
51733W        W94650  34.563  22.009  20.066 -0.0415 -0.2317 -0.1365
51734W        W94651  31.901  25.781  18.231 -0.1238  0.0387 -0.0313
51735W        W94652  33.726  21.976  19.003 -0.2689 -0.2631 -0.0489
51736W        W94653  31.529  25.020  19.685 -0.0540  0.1594 -0.0209
51737W        W94654  33.510  24.577  20.315 -0.0499  0.0663  0.1759
51738W        W94655  33.895  21.646  19.445 -0.1708 -0.0119 -0.1585
51739W        W94656  34.249  21.199  16.789  0.0659  0.2849 -0.0811
51740W        W94657  30.383  25.583  20.829 -0.1153  0.1647 -0.0740
51741W        W94658  32.442  23.640  20.627 -0.0349 -0.1840  0.0359
51742W        W94659  32.001  24.787  19.279  0.2314 -0.0776  0.1715
51743W        W94660  34.203  23.898  17.459  0.0248 -0.2044 -0.4415
51744W        W94661  34.586  27.762  18.824  0.1929  0.0959  0.0028
51745W        W94662   0.925  23.473  19.167 -0.1036  0.0537  0.1026
51746W        W94663   0.680  22.779  21.369 -0.1609 -0.0085 -0.1682
51747W        W94664  33.159  23.911  17.342  0.1096 -0.1636  0.5223
51748W        W94665  34.105  24.836  19.695  0.4512 -0.2044  0.1306
51749W        W94666  33.484  23.520  17.425  0.2419 -0.0691 -0.0831
51750W        W94667  32.140  23.246  19.788  0.0590 -0.2007  0.2252
51751W        W94668   0.066  26.964  19.978  0.0394  0.1184 -0.0540
51752W        W94669  33.816  23.915  20.909 -0.1689 -0.0193  0.2011
51753W        W94670  32.798  24.522  18.095  0.3757  0.0897  0.1551
51754W        W94671  31.212  25.026  20.472 -0.0659 -0.0956  0.4721
51755W        W94672  33.988  24.663  18.410 -0.1605 -0.3271  0.3645
51756W        W94673   1.568  21.373  17.398  0.2918 -0.0110  0.0479
51757W        W94674  31.428  22.922  19.238 -0.2289 -0.0272 -0.0991
51758W        W94675  33.887  22.877  18.521 -0.1769  0.0781 -0.0417
51759W        W94676   0.087  25.464  19.237 -0.0532 -0.1857 -0.2169
51760W        W94677  32.300  24.600  18.188  0.2624  0.0665  0.3112
51761W        W94678  32.382  24.054  20.284 -0.0188 -0.0128  0.2120
51762W        W94679   0.663  23.285  18.298 -0.0880  0.0293 -0.4175
51763W        W94680  33.617  29.829  19.905  0.0275  0.1933 -0.0450
51764W        W94681  33.884  24.154  18.394 -0.1915  0.2654 -0.1321
51765W        W94682   0.935  22.962  17.089  0.0468  0.0054  0.3440
51766W        W94683  33.692  26.118  21.087 -0.2379 -0.0056  0.0185
51767W        W94684  32.934  22.868  18.199  0.3074  0.0345 -0.0260
51768W        W94685  33.519  23.754  18.285  0.0925  0.0021  0.2190
51769W        W94686  34.395  24.681  20.105 -0.1122  0.1933 -0.1280
51770W        W94687  32.975  24.977  18.215 -0.1825  0.0180 -0.1207
51771W        W94688  34.007  24.955  20.208  0.0386  0.0707 -0.2478
51772W        W94689  34.634  24.485  19.574 -0.0175  0.0490 -0.1229
51773W        W94690  32.688  24.733  19.600 -0.1073  0.1555 -0.0393
51774W        W94691  32.081  24.617  18.755 -0.2100 -0.4176 -0.1677
51775W        W94692  33.206  24.213  18.258  0.1759 -0.1069 -0.0151
51776W        W94693  34.562  24.652  18.427  0.7119 -0.3168  0.2095
51777W        W94694  33.128  23.932  19.294  0.0825  0.4564  0.0666
51778W        W94695   0.732  21.435  20.160 -0.3239 -0.1336 -0.0162
51779W        W94696   0.256  23.043  18.458 -0.2683 -0.0061 -0.3510
51780W        W94697  32.989  24.401  19.414  0.1060  0.0509 -0.2665
51781W        W94698   2.267  18.657  21.761 -0.0110  0.0319  0.2060
51782W        W94699  33.584  24.213  17.219  0.1195 -0.2035 -0.0094
51783W        W94700  34.389  22.083  17.537  0.0218 -0.0359  0.1183
51784W        W94701  34.672  24.312  20.929 -0.0406  0.2862  0.0898
51785W        W94702  33.077  25.473  18.912  0.0869 -0.1567 -0.0646
51786W        W94703  34.154  22.963  21.378  0.2764  0.1015  0.1310
51787W        W94704  34.251  24.357  18.122  0.1189  0.1489  0.1887
51788W        W94705   0.089  24.514  17.764  0.1254  0.1821  0.2692
51789W        W94706   0.212  21.458  18.877  0.1407  0.0147 -0.1605
51790W        W94707  34.324  23.620  21.453  0.1996 -0.3929  0.0117
51791W        W94708  34.396  26.182  16.750  0.0238  0.4987 -0.0253
51792W        W94709  32.885  23.522  19.456 -0.0520  0.1392 -0.0722
51793W        W94710   1.680  24.754  16.908 -0.2093 -0.1388  0.0738
51794W        W94711   0.197  23.484  17.613  0.0263  0.0599 -0.2033
51795W        W94712  31.481  23.692  20.217 -0.1241  0.3273 -0.1265
51796W        W94713  34.112  22.660  20.158  0.0662  0.1266 -0.0351
51797W        W94714   2.443  21.727  18.374 -0.1031  0.1214 -0.2896
51798W        W94715  34.001  25.383  20.560  0.2422  0.1743 -0.1351
51799W        W94716  33.117  23.908  21.048  0.0516 -0.0435  0.1818
51800W        W94717  33.973  24.377  17.576  0.0828 -0.3061 -0.0313
51801W        W94718   0.002  24.877  19.255 -0.0506  0.0386  0.0584
51802W        W94719  33.427  23.717  20.663 -0.0860  0.1263  0.0842
51803W        W94720  34.130  22.386  17.272 -0.1865 -0.3660  0.0776
51804W        W94721  34.314  24.283  18.664  0.2241  0.3509 -0.1157
51805W        W94722  34.144  22.231  22.119 -0.0757  0.0214 -0.0863
51806W        W94723   1.205  22.612  18.465 -0.0475 -0.0513 -0.1176
51807W        W94724  33.401  22.731  19.552  0.2958  0.0037  0.2603
51808W        W94725   1.149  22.795  18.866 -0.1343  0.1727 -0.0490
51809W        W94726  34.039  21.645  17.950  0.0894 -0.1093  0.0826
51810W        W94727  32.722  23.717  20.087 -0.3179  0.1735 -0.2381
51811W        W94728  33.200  24.080  19.795  0.0722 -0.1999 -0.1723
51812W        W94729  32.372  21.432  20.108  0.1984 -0.0133 -0.0288
51813W        W94730   0.140  24.746  17.300  0.1185 -0.1745  0.0264
51814W        W94731   2.123  22.590  18.893 -0.1290 -0.0548 -0.1517
51815W        W94732  31.451  23.807  19.220 -0.2011  0.1218 -0.0310
51816W        W94733  32.911  22.809  19.520  0.1075  0.1567  0.0628
51817W        W94734  34.018  24.758  17.961 -0.3219 -0.2150 -0.2688
51818W        W94735  33.925  22.476  19.150  0.0950  0.1290  0.0365
51819W        W94736  33.523  22.923  18.952  0.0255  0.2372  0.1380
51820W        W94737  34.215  20.155  18.726 -0.0816 -0.1353  0.1399
51821W        W94738  31.878  23.687  20.634  0.0979  0.0796  0.0328
51822W        W94739  33.289  23.068  17.110  0.0952 -0.1155  0.2049
51823W        W94740  33.368  25.837  20.321  0.1032 -0.1538  0.0280
51824W        W94741   1.600  24.222  18.759 -0.1877 -0.3204 -0.1436
51825W        W94742  31.148  24.880  20.968  0.0394  0.0084  0.0222
51826W        W94743   0.528  25.297  18.022 -0.1429  0.0962 -0.1626
51827W        W94744   0.267  24.239  19.117 -0.2193 -0.1500  0.2332
51828W        W94745  34.371  25.334  19.532  0.2897 -0.1385  0.1110
51829W        W94746  33.887  24.376  18.865 -0.1730  0.2390  0.2953
51830W        W94747  34.380  21.677  19.666  0.1418  0.1796 -0.3618
51831W        W94748   0.045  22.526  18.507 -0.0380  0.1735  0.2352
51832W        W94749  34.290  21.926  16.728 -0.0961 -0.1684 -0.0787
51833W        W94750  34.335  26.798  19.568 -0.2092  0.0443 -0.2983
51834W        W94751  30.958  21.326  18.034 -0.3747  0.0703  0.0265
51835W        W94752  33.971  25.701  19.690  0.0813  0.0664  0.0024
51836W        W94753  33.787  24.014  16.694  0.2535  0.0395  0.0266
51837W        W94754  33.748  23.950  17.607 -0.0787  0.1114 -0.1902
51838W        W94755  33.049  24.627  18.549  0.0373  0.3146  0.0168
51839W        W94756   0.127  21.793  17.649  0.5445  0.4867 -0.0963
51840W        W94757  33.763  25.672  18.276 -0.0286 -0.2318 -0.0219
51841W        W94758  34.625  27.404  19.636  0.2610 -0.1401 -0.0132
51842W        W94759  30.204  23.310  21.464  0.1458 -0.2086 -0.2388
51843W        W94760  33.833  25.148  18.400 -0.1168 -0.2803  0.0726
51844W        W94761  33.627  25.229  20.980  0.3006 -0.0646 -0.0531
51845W        W94762  31.778  22.119  19.271  0.2132 -0.1269  0.3164
51846W        W94763  32.575  23.986  19.240  0.0826  0.1732 -0.0177
51847W        W94764  32.648  21.024  18.835 -0.0777  0.0187 -0.1143
51848W        W94765   2.443  23.567  18.932  0.2760  0.1952  0.1792
51849W        W94766  30.524  27.914  19.552 -0.4526  0.0069  0.2695
51850W        W94767  32.874  24.254  18.842 -0.0188 -0.3541 -0.0280
51851W        W94768  32.266  24.929  17.774 -0.1409 -0.1482  0.1732
51852W        W94769  34.112  22.936  17.437 -0.1209  0.1746  0.1243
51853W        W94770  32.635  22.508  19.146 -0.0089 -0.0704  0.2728
51854W        W94771  34.301  23.534  19.924 -0.1488  0.2609 -0.3390
51855W        W94772  33.163  25.505  18.378  0.0417 -0.4665  0.1099
51856W        W94773  33.493  23.356  18.564 -0.4478 -0.0021  0.2503
51857W        W94774  34.380  22.725  19.408 -0.2498 -0.1002 -0.0553
51858W        W94775   0.311  23.657  20.166 -0.1866  0.4475  0.5546
51859W        W94776  31.871  25.185  21.128  0.0851 -0.1179  0.2967
51860W        W94777  31.688  24.474  20.333 -0.2603  0.1146  0.3607
51861W        W94778  32.318  23.619  18.409  0.2509 -0.1748  0.0097
51862W        W94779  33.291  23.801  17.858  0.1362  0.2002  0.0696
51863W        W94780  34.076  26.011  20.720 -0.1456 -0.2974  0.1341
51864W        W94781  30.361  24.512  19.349 -0.0612 -0.0081 -0.1526
51865W        W94782  34.570  23.360  21.067  0.0263  0.2932 -0.2848
51866W        W94783  31.363  23.680  18.555 -0.0476  0.2142  0.1359
51867W        W94784   0.473  23.828  20.996  0.1025 -0.0425  0.1761
51868W        W94785  33.932  23.797  18.021 -0.1913 -0.2368  0.3733
51869W        W94786  33.208  23.063  19.854 -0.1672  0.0237 -0.0716
51870W        W94787   0.524  23.124  17.495 -0.1440  0.2582  0.4348
51871W        W94788   0.081  23.325  19.846 -0.1561  0.2559  0.1255
51872W        W94789  32.199  21.749  18.598  0.0052 -0.3132  0.1080
51873W        W94790  34.376  25.105  18.466  0.0670 -0.1089  0.2880
51874W        W94791  34.636  23.441  18.430 -0.0438 -0.3800 -0.0700
51875W        W94792  34.396  25.717  17.096 -0.3362 -0.2683  0.2685
51876W        W94793  31.778  21.959  18.037 -0.2051 -0.1369  0.1632
51877W        W94794  34.654  20.701  18.607 -0.1422  0.0444  0.1139
51878W        W94795  34.142  24.283  21.000  0.1380  0.1263  0.2202
51879W        W94796  34.011  25.298  17.495 -0.0040  0.1565  0.2650
51880W        W94797   1.594  27.039  17.559 -0.1949 -0.3485 -0.0555
51881W        W94798  33.075  24.671  20.561  0.1946 -0.2213  0.1541
51882W        W94799  34.388  24.637  21.272  0.4763  0.0048  0.0400
51883W        W94800  33.309  24.699  17.212  0.2613 -0.1598 -0.1627
51884W        W94801   0.162  22.127  20.510 -0.1360 -0.1580  0.0792
51885W        W94802  33.802  24.001  20.423  0.0159  0.1224 -0.1274
51886W        W94803  33.235  27.291  18.996  0.1300 -0.0306 -0.1124
51887W        W94804  33.713  24.006  19.811  0.2383 -0.2759  0.4069
51888W        W94805  34.007  21.579  20.032 -0.0549  0.0818  0.1379
51889W        W94806  33.593  23.691  19.361  0.3516 -0.2133 -0.3222
51890W        W94807  34.114  22.434  16.724 -0.0456 -0.0861 -0.1028
51891W        W94808  34.579  26.067  17.466  0.2002  0.1347  0.1189
51892W        W94809  32.568  24.495  21.963  0.1263  0.1693  0.3009
51893W        W94810  33.611  21.345  19.697  0.1960  0.3893 -0.0426
51894W        W94811  33.325  23.904  20.202 -0.1366 -0.0912  0.0565
51895W        W94812  33.700  22.985  19.912 -0.0894  0.0416  0.0065
51896W        W94813  32.189  24.109  18.899 -0.1773  0.2823 -0.0515
51897W        W94814  34.653  20.710  17.626  0.0242 -0.0497  0.1854
51898W        W94815  33.333  23.250  19.394 -0.0098  0.1337 -0.1834
51899W        W94816  34.025  22.963  18.978 -0.0347 -0.0568 -0.0024
51900W        W94817  33.178  22.602  16.960 -0.0394  0.1688 -0.0543
51901W        W94818   0.857  22.929  20.403  0.3387  0.0282  0.1041
51902W        W94819   0.748  23.160  18.771  0.3019  0.1112  0.0323
51903W        W94820  33.169  22.333  19.502  0.0688 -0.2445  0.2225
51904W        W94821   2.133  22.063  17.208  0.0300 -0.0538  0.2258
51905W        W94822  33.733  23.415  19.017  0.0086 -0.0285  0.0072
51906W        W94823   1.990  23.888  18.850 -0.0039 -0.3023  0.2296
51907W        W94824  32.948  22.596  19.973  0.0605  0.4518 -0.1609
51908W        W94825   0.225  24.592  19.962 -0.0265  0.0907  0.1232
51909W        W94826  33.672  23.098  20.421  0.2380 -0.3154 -0.0385
51910W        W94827  34.533  23.887  19.681 -0.3860 -0.0497  0.4400
51911W        W94828  34.128  23.983  20.055 -0.0948  0.0693  0.0639
51912W        W94829  31.494  22.478  19.553  0.3778  0.2678  0.1737
51913W        W94830   1.940  23.852  17.030  0.0967 -0.2032  0.1583
51914W        W94831   1.065  24.950  21.147  0.0689 -0.1042 -0.0548
51915W        W94832  33.859  25.083  18.961  0.1796 -0.1448 -0.4096
51916W        W94833   0.262  25.678  20.280  0.1052 -0.1554 -0.0424
51917W        W94834   0.016  22.039  18.696  0.0798 -0.0325 -0.0097
51918W        W94835  34.343  23.420  17.242  0.4272 -0.0578  0.0044
51919W        W94836  34.448  25.148  21.027 -0.0923 -0.1367 -0.1276
51920W        W94837   0.626  22.333  20.513 -0.3392  0.0230 -0.2073
51921W        W94838  33.938  24.413  20.152  0.0624  0.1458  0.0180
51922W        W94839   0.652  24.022  23.025 -0.1848 -0.3511 -0.3478
51923W        W94840  34.117  21.309  20.449  0.2655  0.2033  0.0587
51924W        W94841  33.131  20.835  19.998 -0.1660  0.0564  0.0012
51925W        W94842   0.274  22.232  24.028 -0.0210 -0.2912 -0.0281
51926W        W94843  34.469  21.368  20.784 -0.1522 -0.0182  0.3114
51927W        W94844  34.386  22.683  21.052  0.1620  0.1870 -0.0455
51928W        W94845  33.596  21.084  21.240 -0.1679  0.1079 -0.4814
51929W        W94846  33.407  20.856  24.724 -0.1164  0.2935 -0.0608
51930W        W94847  34.421  22.305  22.742 -0.3179 -0.0449 -0.0447
51931W        W94848   0.280  22.495  23.541 -0.0106  0.1211 -0.0135
51932W        W94849  34.599  22.994  19.062 -0.3457 -0.3294  0.2681
51933W        W94850   0.159  23.086  23.290 -0.2513 -0.0234 -0.0122
51934W        W94851  32.958  23.391  21.075 -0.4372 -0.1330  0.0281
51935W        W94852  33.453  22.301  19.954  0.1305 -0.2882 -0.2232
51936W        W94853  29.800  24.937  20.897 -0.0663  0.2801 -0.0382
51937W        W94854  34.183  23.793  22.627  0.0299  0.0501 -0.0575
51938W        W94855  34.435  25.634  20.439 -0.1142 -0.2313 -0.0286
51939W        W94856   1.530  26.131  20.883 -0.1297 -0.0664 -0.3207
51940W        W94857  34.214  22.896  21.908 -0.1721  0.0482 -0.0016
51941W        W94858  33.811  24.872  23.913  0.2553  0.1127 -0.0297
51942W        W94859   0.034  26.028  20.551 -0.1265  0.0519  0.2767
51943W        W94860  34.457  24.803  23.074 -0.0413 -0.0267 -0.2133
51944W        W94861  32.237  25.600  21.167  0.1096  0.0306  0.0234
51945W        W94862  33.555  25.278  22.909  0.2259 -0.0671  0.2233
51946W        W94863  33.927  24.297  21.948 -0.1869 -0.3291 -0.0074
51947W        W94864  32.563  24.423  20.581  0.0568  0.1041  0.1923
51948W        W94865  34.240  23.911  21.893  0.2263  0.2836 -0.0196
51949W        W94866  31.880  24.355  21.949 -0.1313 -0.2453  0.3610
51950W        W94867  30.179  25.048  21.596  0.1765  0.0744  0.0319
51951W        W94868   0.149  24.272  21.704 -0.0957 -0.2231 -0.0008
51952W        W94869  33.457  23.781  21.364 -0.2780 -0.0139  0.0611
51953W        W94870  33.435  22.912  21.141 -0.0501  0.1927  0.0127
51954W        W94871  33.526  23.141  23.136 -0.0719  0.1211  0.0398
51955W        W94872  33.788  23.125  22.148 -0.0718 -0.0127 -0.2593
51956W        W94873   0.799  21.688  21.865  0.1651 -0.1288 -0.1418
51957W        W94874  33.451  24.429  21.695 -0.0207  0.3693 -0.0331
51958W        W94875  34.093  22.782  22.400  0.2919 -0.1391  0.0478
51959W        W94876  32.994  22.751  21.542 -0.4323  0.1126  0.1530
51960W        W94877  34.014  19.801  20.161  0.2155 -0.1221  0.1698
51961W        W94878   0.205  26.035  22.891  0.0565 -0.0314  0.2150
51962W        W94879  33.811  24.243  22.537 -0.2607  0.0066 -0.2019
51963W        W94880   0.079  23.834  21.298  0.1291  0.0390 -0.0077
51964W        W94881   0.943  21.350  21.530  0.0559  0.3017 -0.0199
51965W        W94882  34.168  24.652  22.268  0.2624  0.0442 -0.0346
51966W        W94883   1.325  22.094  20.679 -0.3381 -0.1396  0.1538
51967W        W94884  34.209  25.287  24.045 -0.1795 -0.2052 -0.1346
51968W        W94885  32.560  23.842  18.804 -0.0884  0.2465  0.0090
51969W        W94886  31.830  24.068  21.094  0.1431  0.0234  0.0619
51970W        W94887  32.645  23.815  21.080  0.1793 -0.0761  0.1525
51971W        W94888  32.615  22.944  20.700 -0.2391 -0.0512  0.1321
51972W        W94889  34.543  25.460  23.660 -0.0459 -0.2012 -0.1284
51973W        W94890  31.571  24.329  25.242 -0.1205  0.2001 -0.2070
51974W        W94891  34.220  23.062  19.741 -0.0734 -0.0025  0.2069
51975W        W94892  33.126  23.445  23.481 -0.0332 -0.0593  0.2085
51976W        W94893   1.175  23.232  19.568 -0.3135  0.0251  0.1598
51977W        W94894  31.498  23.575  24.486 -0.1112  0.0904 -0.3269
51978W        W94895  33.398  21.654  23.582 -0.1008  0.0463  0.1821
51979W        W94896  32.986  21.195  19.644 -0.4251 -0.1326  0.2301
51980W        W94897   1.664  24.991  21.500 -0.2166 -0.1040 -0.0104
51981W        W94898  31.667  22.226  21.263  0.0859 -0.2418 -0.2244
51982W        W94899  33.459  23.929  21.825 -0.0848  0.0757 -0.1332
51983W        W94900  33.456  21.413  19.241  0.1809  0.1383  0.0569
51984W        W94901  32.945  24.569  21.641 -0.0761  0.0226  0.0379
51985W        W94902  31.957  25.844  21.635 -0.6797  0.0327  0.1974
51986W        W94903   2.033  21.342  19.334 -0.0367  0.2541  0.1316
51987W        W94904  33.716  25.317  21.745  0.1064 -0.0628 -0.0287
51988W        W94905   0.330  21.168  20.010  0.0245 -0.4481  0.3111
51989W        W94906  32.669  22.964  21.937 -0.0727  0.3037  0.1910
51990W        W94907  31.539  23.376  20.973 -0.2336  0.0701  0.0903
51991W        W94908   0.141  26.630  21.206  0.1791 -0.0936 -0.1938
51992W        W94909  33.350  24.404  24.372 -0.1494 -0.4428  0.2734
51993W        W94910  33.832  23.430  19.676 -0.0058 -0.1497  0.1811
51994W        W94911  32.667  24.601  22.636  0.1266  0.5064  0.1231
51995W        W94912  34.246  24.312  24.527 -0.0294 -0.0454 -0.0768
51996W        W94913  31.259  23.592  21.605 -0.0745  0.3569 -0.0076
51997W        W94914   0.426  24.902  22.397 -0.0722 -0.2176  0.1230
51998W        W94915  33.723  24.262  23.027  0.1780 -0.0312  0.2406
51999W        W94916  33.967  23.022  23.458  0.1669  0.0009  0.0137
52000W        W94917  34.538  23.211  21.581  0.0670  0.1150 -0.1341
52001W        W94918  31.023  26.490  21.906 -0.2859  0.2401 -0.1373
52002W        W94919  34.404  23.155  23.775 -0.3103  0.1087 -0.0283
52003W        W94920  33.914  22.374  22.675 -0.0104 -0.1817  0.1756
52004W        W94921  34.448  21.416  23.713  0.0281  0.0664 -0.0217
52005W        W94922   0.246  23.307  22.112  0.0688  0.1454  0.1175
52006W        W94923  31.467  27.993  26.008  0.0123  0.0439  0.1185
52007W        W94924   2.575  21.083  25.202 -0.0630 -0.4882  0.0762
52008W        W94925   0.332  25.320  21.592 -0.0380 -0.0276  0.0860
52009W        W94926   0.535  25.280  20.437 -0.3618 -0.3029 -0.1631
52010W        W94927  34.511  21.078  20.366 -0.2514 -0.2026  0.0129
52011W        W94928  34.084  24.533  22.847  0.2380 -0.0882  0.2448
52012W        W94929   1.670  26.141  18.861 -0.1026  0.0462 -0.1670
52013W        W94930  32.040  23.231  20.731 -0.0643  0.0300  0.1728
52014W        W94931   0.190  22.891  21.868  0.2296 -0.1243 -0.1389
52015W        W94932   0.513  22.163  20.020  0.0779 -0.1838 -0.0733
52016W        W94933  33.286  24.221  20.637 -0.2087  0.2243 -0.2303
52017W        W94934  32.450  20.871  24.840  0.2083  0.1442  0.0882
52018W        W94935  34.364  23.234  23.171  0.2730  0.3768  0.1397
52019W        W94936  32.281  25.864  22.168  0.1209 -0.0638 -0.0108
52020W        W94937   1.155  23.581  22.315  0.4144 -0.1070 -0.0453
52021W        W94938  34.574  22.153  21.845 -0.3204 -0.2001  0.0783
52022W        W94939   0.848  23.218  21.574 -0.1466  0.0176  0.3600
52023W        W94940  34.021  24.911  20.942  0.1976 -0.0792  0.2944
52024W        W94941  32.778  23.984  20.630  0.0906  0.2059 -0.0218
52025W        W94942  31.161  22.158  21.740  0.0668 -0.1750  0.3993
52026W        W94943   1.821  23.444  21.832 -0.2167  0.2443  0.1892
52027W        W94944   0.028  22.734  23.939  0.3443 -0.0651  0.0788
52028W        W94945   0.716  21.452  22.829  0.3004 -0.1486 -0.2791
52029W        W94946  33.001  23.672  21.536 -0.0767  0.1730  0.1478
52030W        W94947   0.863  23.452  22.877  0.2034 -0.0853  0.1838
52031W        W94948  33.872  23.432  24.327 -0.0757  0.2394  0.0381
52032W        W94949   0.364  21.466  21.474 -0.2059 -0.1199  0.3802
52033W        W94950  30.797  24.349  21.212 -0.0416 -0.2475  0.0558
52034W        W94951  33.291  23.452  20.288  0.3212  0.2948 -0.1497
52035W        W94952   0.336  21.277  22.124  0.1299 -0.1348  0.0787
52036W        W94953   0.850  24.009  22.236  0.0229  0.0997  0.1723
52037W        W94954   0.183  23.941  20.621  0.0217  0.0429  0.1850
52038W        W94955  32.795  24.387  24.620 -0.2412  0.2125 -0.4748
52039W        W94956   0.408  22.788  20.127  0.0402 -0.0450 -0.1223
52040W        W94957   0.782  21.266  22.294 -0.1110 -0.2694 -0.1104
52041W        W94958  34.411  23.895  23.418 -0.2531 -0.2702 -0.0185
52042W        W94959  33.059  22.555  22.684  0.1516  0.1301  0.0590
52043W        W94960  31.910  22.307  20.774 -0.1628  0.1064 -0.0698
52044W        W94961  33.460  22.366  22.429 -0.3284 -0.1349 -0.2245
52045W        W94962   3.475  24.324  20.386  0.1361 -0.0004 -0.0218
52046W        W94963   0.128  23.264  22.651  0.2495  0.1027  0.0631
52047W        W94964   2.198  24.131  21.033 -0.2980 -0.2501 -0.1354
52048W        W94965  34.487  23.567  22.265 -0.1155 -0.4623 -0.0304
52049W        W94966   0.859  23.081  24.237 -0.1411  0.0931  0.0840
52050W        W94967   0.830  25.208  23.833 -0.1629 -0.3232  0.1697
52051W        W94968  34.419  21.874  23.099  0.0053  0.1146  0.1382
52052W        W94969  31.164  22.295  21.106 -0.0760 -0.0277 -0.0421
52053W        W94970  33.175  20.355  19.145 -0.0578  0.0989  0.1920
52054W        W94971  33.329  23.601  19.815 -0.0218 -0.0120  0.1455
52055W        W94972  30.603  22.422  21.263 -0.2770 -0.1985  0.2441
52056W        W94973   0.166  25.965  24.441  0.1199 -0.1887 -0.0671
52057W        W94974  31.998  23.556  21.094 -0.0365 -0.1310  0.1647
52058W        W94975   0.958  22.375  21.202  0.1179  0.0591 -0.1247
52059W        W94976   0.684  25.658  22.255  0.1314 -0.0178  0.0833
52060W        W94977   0.022  21.391  21.819 -0.0985 -0.1112 -0.3839
52061W        W94978  32.696  23.219  21.466 -0.2754 -0.3442 -0.0060
52062W        W94979  33.726  24.764  21.937  0.0311  0.0561  0.0251
52063W        W94980   1.032  23.888  22.708  0.1489  0.1882 -0.0661
52064W        W94981  32.943  22.890  21.075  0.0842  0.1181 -0.0865
52065W        W94982   1.988  23.119  24.472 -0.0281  0.1813  0.1861
52066W        W94983  32.460  23.347  21.009  0.2857 -0.0540 -0.1033
52067W        W94984   0.030  24.061  22.631 -0.2303  0.1018  0.1629
52068W        W94985   0.744  22.781  23.323 -0.1063  0.0663  0.2657
52069W        W94986  32.829  22.011  20.734 -0.1502  0.1219 -0.3054
52070W        W94987  34.306  25.562  25.192  0.2913  0.0264 -0.2570
52071W        W94988  33.388  23.538  23.929 -0.1910  0.0462  0.0764
52072W        W94989  33.028  23.063  22.389  0.2444 -0.1080  0.0717
52073W        W94990   0.807  20.023  18.630 -0.0076 -0.0900  0.0614
52074W        W94991  33.810  23.857  22.183 -0.3802  0.1687  0.3018
52075W        W94992  31.596  23.146  20.439  0.3412 -0.1860  0.0068
52076W        W94993  32.468  24.636  21.446 -0.1566 -0.1386 -0.1359
52077W        W94994  34.017  22.517  21.574 -0.1975  0.1927  0.0916
52078W        W94995   0.307  21.817  21.921  0.1551 -0.0733  0.3276
52079W        W94996  33.663  23.789  22.746 -0.2032 -0.1398 -0.1293
52080W        W94997  33.704  25.320  24.130  0.0876  0.1861  0.2481
52081W        W94998  34.334  22.361  19.685 -0.2061  0.1102 -0.3743
52082W        W94999  32.868  24.236  22.388  0.1789 -0.0458 -0.1167
52083W        W95000  33.942  23.905  21.463  0.0911 -0.2728  0.0112
52084W        W95001  32.130  24.688  20.392  0.0437 -0.2394 -0.3350
52085W        W95002  34.466  25.731  22.776  0.0039 -0.1643  0.1972
52086W        W95003  33.063  25.141  20.834  0.1654  0.0556 -0.0173
52087W        W95004  32.198  23.202  22.004  0.2662  0.1659  0.2334
52088W        W95005  33.722  23.490  23.561  0.0251  0.1239  0.0127
52089W        W95006  34.483  23.066  22.286  0.1150 -0.0069 -0.2785
52090W        W95007  32.278  23.578  22.761 -0.0174 -0.4157  0.0419
52091W        W95008   0.581  22.199  19.498  0.1498 -0.0468  0.1124
52092W        W95009  32.973  21.619  21.086  0.0406  0.0842 -0.0336
52093W        W95010  33.693  22.356  20.440 -0.0503 -0.1816  0.0471
52094W        W95011  34.622  24.954  22.139 -0.2128  0.0022  0.4340
52095W        W95012  33.530  22.556  22.903 -0.3262  0.0936 -0.5030
52096W        W95013  34.457  25.689  20.922 -0.3147  0.1759  0.4612
52097W        W95014  33.664  21.906  24.004  0.1557 -0.2466 -0.1401
52098W        W95015  34.170  23.344  19.339 -0.2304 -0.0894  0.3579
52099W        W95016   1.001  24.487  20.946  0.0218  0.1022  0.1039
52100W        W95017  34.502  25.813  23.991  0.0080  0.1736  0.1876
52101W        W95018   1.212  25.936  22.174 -0.3660 -0.1330 -0.0966
52102W        W95019   1.372  25.674  24.922  0.2262 -0.0238  0.4018
52103W        W95020   0.106  25.138  24.634  0.0891  0.1803  0.0070
52104W        W95021  33.378  24.988  19.004 -0.3000  0.2662 -0.0997
52105W        W95022  34.273  22.399  24.571 -0.1124 -0.1102  0.0990
52106W        W95023  34.499  26.403  20.857  0.1181  0.0479  0.2256
52107W        W95024  33.474  25.492  19.340 -0.2783 -0.1385 -0.0236
52108W        W95025   0.253  25.549  21.182  0.0179 -0.0421 -0.0967
52109W        W95026  33.904  23.928  23.473 -0.0153  0.1699 -0.2244
52110W        W95027  32.980  25.610  23.661  0.2206  0.1018 -0.0921
52111W        W95028  31.111  23.370  21.221 -0.2654  0.2242  0.0218
52112W        W95029  31.629  24.673  21.244 -0.2198 -0.1145  0.0615
52113W        W95030  32.165  24.648  21.075  0.2091  0.0543 -0.3353
52114W        W95031  34.409  22.375  24.103 -0.0759  0.2008 -0.0989
52115W        W95032  32.073  22.938  23.310  0.0237  0.1572  0.1274
52116W        W95033  33.125  22.635  23.781 -0.4389 -0.1854 -0.3899
52117W        W95034  33.735  21.600  21.788 -0.3476  0.0553 -0.0010
52118W        W95035   0.679  23.219  19.487 -0.0103 -0.1384 -0.2046
52119W        W95036  34.422  20.731  21.291  0.2664 -0.0763 -0.0769
52120W        W95037  33.947  21.570  20.893 -0.1467  0.1224 -0.0366
52121W        W95038  34.235  24.537  19.291  0.2174 -0.1250  0.1293
52122W        W95039   0.509  23.460  23.286  0.1018 -0.0200  0.0427
52123W        W95040  34.483  22.973  24.311  0.2613 -0.0674 -0.1549
52124W        W95041  32.496  23.546  21.746 -0.0268  0.1917  0.3682
52125W        W95042   0.078  25.136  23.990 -0.1068 -0.2532 -0.3820
52126W        W95043   0.399  24.687  24.378 -0.0304  0.1865  0.0491
52127W        W95044  34.132  27.257  24.378  0.0033  0.4100 -0.1267
52128W        W95045  33.324  22.388  21.723  0.0945 -0.4430  0.1324
52129W        W95046  34.605  23.949  24.325  0.1346 -0.1492 -0.0835
52130W        W95047   0.238  22.224  22.560  0.2074 -0.0800  0.0157
52131W        W95048  34.006  23.558  23.093  0.1644 -0.1330 -0.2463
52132W        W95049  33.886  22.504  19.648 -0.0273  0.2883 -0.0049
52133W        W95050  34.253  23.275  22.661  0.2344  0.1873 -0.1352
52134W        W95051   0.633  23.623  21.914 -0.0319  0.1387 -0.0396
52135W        W95052   0.420  22.746  22.403  0.0534 -0.2541  0.3254
52136W        W95053   0.358  23.694  18.066  0.0973 -0.0065  0.1566
52137W        W95054  34.557  27.757  22.612 -0.1774  0.0589 -0.0567
52138W        W95055  34.492  21.013  22.986 -0.2338 -0.0865 -0.1566
52139W        W95056   1.204  22.705  19.460  0.2484 -0.2154  0.0728
52140W        W95057   0.018  23.673  21.857 -0.1180 -0.1575 -0.1284
52141W        W95058  32.770  20.727  22.268 -0.2974  0.1344 -0.2557
52142W        W95059   0.344  26.959  24.036 -0.1075 -0.3089  0.0881
52143W        W95060  32.591  24.015  26.623 -0.0585 -0.0971 -0.4552
52144W        W95061  33.802  22.301  24.361 -0.1825 -0.1639 -0.3769
52145W        W95062   1.051  22.656  24.440  0.3507 -0.0085 -0.1184
52146W        W95063  33.517  22.545  27.261 -0.0821 -0.1033 -0.5309
52147W        W95064  33.705  23.061  27.048 -0.0741 -0.2026 -0.0900
52148W        W95065   0.809  24.925  26.748  0.0790 -0.3469  0.0632
52149W        W95066   0.553  22.669  24.003 -0.1374 -0.1087 -0.3146
52150W        W95067  34.024  21.600  25.728  0.1010  0.0855  0.0252
52151W        W95068  32.524  21.002  24.065  0.0456 -0.1915  0.0733
52152W        W95069  32.461  25.548  24.908  0.1594  0.1013 -0.0863
52153W        W95070   0.012  22.442  24.946  0.3390  0.0432 -0.0522
52154W        W95071   1.294  23.007  28.617 -0.2201  0.1371 -0.0792
52155W        W95072   2.110  23.522  22.899 -0.4200 -0.0693 -0.0927
52156W        W95073  33.454  23.665  23.187 -0.0609  0.0282  0.4712
52157W        W95074  31.699  22.074  26.393  0.0173  0.1586 -0.1296
52158W        W95075  31.982  22.435  27.002  0.0120 -0.0047 -0.1309
52159W        W95076   0.305  24.551  25.754 -0.1108  0.1433 -0.1132
52160W        W95077   1.745  24.573  25.397  0.0109  0.2814  0.2845
52161W        W95078  32.361  23.568  25.497 -0.2227 -0.2444 -0.2783
52162W        W95079  32.968  25.435  26.681 -0.3027  0.2718 -0.3720
52163W        W95080  33.080  24.277  25.338 -0.3495  0.0607 -0.3452
52164W        W95081  33.533  24.495  27.631  0.2601 -0.3503  0.0896
52165W        W95082  31.931  25.586  24.917 -0.1433 -0.0362  0.0204
52166W        W95083  33.511  24.448  28.889  0.4542 -0.2925 -0.0199
52167W        W95084  32.415  23.762  24.520 -0.1265 -0.1459  0.0678
52168W        W95085   1.548  24.940  23.793 -0.0640 -0.2270  0.0819
52169W        W95086  33.601  23.926  26.454  0.1626  0.2610 -0.1020
52170W        W95087  33.186  24.109  25.811 -0.2141  0.4153 -0.0332
52171W        W95088  33.845  25.257  24.599 -0.0422  0.0768  0.0254
52172W        W95089  34.168  21.042  23.400 -0.1693  0.0084 -0.0568
52173W        W95090   1.595  21.824  24.331  0.0531  0.1577  0.2818
52174W        W95091  33.558  25.081  26.296  0.1118 -0.0340 -0.0288
52175W        W95092  33.641  21.499  25.396 -0.1149 -0.2134  0.0294
52176W        W95093   0.238  26.518  28.889  0.0348 -0.2250  0.1174
52177W        W95094  31.420  23.260  26.097  0.0459 -0.0344  0.2626
52178W        W95095  34.598  24.586  27.012  0.0176  0.0211  0.2720
52179W        W95096  32.889  23.279  26.158 -0.1891  0.1650  0.0730
52180W        W95097  34.627  22.826  28.245  0.2822  0.0604  0.3563
52181W        W95098   0.246  20.724  22.977 -0.2141 -0.0662 -0.0440
52182W        W95099  32.808  24.163  27.415 -0.2251  0.0280 -0.0434
52183W        W95100  34.273  24.137  25.583 -0.2255  0.3208  0.0227
52184W        W95101  32.437  21.825  24.642  0.4049 -0.0256 -0.2330
52185W        W95102  33.656  21.694  24.468  0.1269  0.0468  0.0734
52186W        W95103  32.460  24.300  26.064  0.1291  0.0003 -0.1105
52187W        W95104   0.526  22.586  26.587  0.0537  0.1496  0.1551
52188W        W95105  34.605  25.294  28.651 -0.0013  0.0962  0.1051
52189W        W95106  33.797  24.362  24.710  0.0787  0.1852 -0.4737
52190W        W95107  32.101  24.766  26.805 -0.0240 -0.0475 -0.3162
52191W        W95108  31.983  22.975  26.064  0.2151 -0.0585  0.0081
52192W        W95109  32.452  22.763  26.958 -0.1432 -0.0029  0.1363
52193W        W95110   0.344  24.302  26.166 -0.1460 -0.2157 -0.2590
52194W        W95111  31.407  23.894  27.698 -0.0931  0.1320  0.0295
52195W        W95112  32.194  24.711  25.746 -0.3878 -0.3226 -0.4383
52196W        W95113  30.188  23.168  26.937 -0.1554 -0.1372  0.2507
52197W        W95114   0.891  20.530  23.911  0.2857 -0.0242 -0.1869
52198W        W95115  33.690  22.429  27.846 -0.2904 -0.1426 -0.2540
52199W        W95116  33.521  22.870  22.540  0.1912  0.1004 -0.1186
52200W        W95117  33.678  24.940  23.378 -0.0045 -0.0900 -0.2367
52201W        W95118   0.355  23.011  25.608 -0.0181 -0.0969  0.2138
52202W        W95119  34.599  24.318  24.879 -0.2289 -0.1499  0.3013
52203W        W95120  34.660  21.211  24.993  0.0904 -0.0031 -0.1711
52204W        W95121  33.197  20.255  26.012  0.0415  0.1532 -0.1867
52205W        W95122  34.254  25.744  25.721  0.0871  0.2252  0.0930
52206W        W95123  33.473  23.472  26.672  0.0590 -0.0224 -0.0169
52207W        W95124  34.626  22.953  24.905  0.1151  0.1502  0.2946
52208W        W95125  33.230  23.013  27.294 -0.0570  0.2342  0.1646
52209W        W95126  34.533  22.826  22.792 -0.1109  0.0388 -0.2586
52210W        W95127  32.919  26.753  26.018 -0.1929  0.0779 -0.0542
52211W        W95128  32.826  22.816  26.478  0.0077  0.1040 -0.0171
52212W        W95129   1.564  25.351  23.518 -0.1323 -0.0411  0.1337
52213W        W95130  30.620  24.476  29.799  0.2239 -0.0990  0.0345
52214W        W95131  33.760  22.421  25.201  0.1281 -0.1439 -0.1363
52215W        W95132  33.144  26.200  28.307 -0.3648 -0.1376  0.0542
52216W        W95133  31.896  25.401  28.464  0.0356 -0.1141  0.0755
52217W        W95134  34.549  26.046  25.238 -0.0365 -0.2414  0.4105
52218W        W95135   0.301  23.275  26.430 -0.1311 -0.1220  0.1403
52219W        W95136  32.951  21.679  25.374  0.1304 -0.2405 -0.2738
52220W        W95137   0.309  21.128  24.224  0.0498 -0.1277  0.0069
52221W        W95138   0.923  23.051  23.690 -0.2482  0.2163  0.2949
52222W        W95139   0.593  26.195  24.453  0.0011 -0.0473 -0.1051
52223W        W95140   1.833  20.742  28.262 -0.1036  0.0371 -0.2080
52224W        W95141   0.427  23.011  23.675  0.0172 -0.4038 -0.1592
52225W        W95142  34.576  21.054  25.574 -0.0909 -0.0994  0.2015
52226W        W95143  33.066  23.006  24.552 -0.1694  0.1208  0.0156
52227W        W95144  33.322  25.610  26.396 -0.0665 -0.2952 -0.1166
52228W        W95145   0.691  23.197  27.022  0.0145  0.1726  0.0732
52229W        W95146  33.969  25.817  26.098 -0.1727 -0.1479 -0.0873
52230W        W95147  32.943  23.726  22.244  0.1844  0.0546  0.2880
52231W        W95148   1.806  22.978  26.901  0.0114 -0.2204  0.0261
52232W        W95149   0.098  25.054  27.853 -0.0669 -0.0146  0.1287
52233W        W95150   0.540  23.043  22.926  0.0012  0.1008 -0.0886
52234W        W95151  33.661  24.619  25.110 -0.2151  0.0080 -0.2843
52235W        W95152  32.533  25.246  25.771  0.2475  0.1563 -0.3153
52236W        W95153  33.844  22.658  24.739  0.0519  0.3821 -0.1590
52237W        W95154  33.226  22.512  26.343 -0.1822  0.0506  0.1087
52238W        W95155  32.465  21.602  27.224  0.1886  0.0496 -0.1236
52239W        W95156  33.301  22.312  24.976  0.1778  0.3020  0.4084
52240W        W95157  33.230  25.192  25.911 -0.2149  0.1339  0.0292
52241W        W95158   1.835  24.505  28.226  0.3026  0.0968  0.1763
52242W        W95159  32.921  23.536  23.986  0.4293 -0.1593 -0.1339
52243W        W95160  34.401  20.178  25.287  0.0176 -0.0703 -0.1963
52244W        W95161  34.159  25.241  25.617 -0.1388 -0.3230 -0.1545
52245W        W95162  33.694  22.420  25.775 -0.1729  0.0337  0.4440
52246W        W95163  32.797  22.243  23.753 -0.0727 -0.2416  0.1081
52247W        W95164  34.438  23.010  26.845 -0.0776 -0.1439 -0.0804
52248W        W95165  33.510  21.953  26.522 -0.0003  0.0734 -0.5501
52249W        W95166  34.274  23.725  23.996  0.1820 -0.0200  0.3342
52250W        W95167  32.470  22.962  26.061  0.0336 -0.2616  0.0067
52251W        W95168  32.175  22.133  26.417  0.1658  0.4503 -0.1234
52252W        W95169  33.186  25.713  28.481  0.0782  0.1438 -0.0421
52253W        W95170  33.292  21.349  24.546  0.2547 -0.1719 -0.1700
52254W        W95171  34.644  22.556  25.871  0.2461 -0.1292  0.2135
52255W        W95172  33.645  24.271  25.556 -0.1758  0.0171 -0.0327
52256W        W95173  34.142  22.385  25.539  0.0087 -0.0555 -0.0254
52257W        W95174  34.656  23.935  25.229  0.0051 -0.0200  0.2033
52258W        W95175  33.278  25.743  24.099 -0.2630 -0.2860  0.3375
52259W        W95176  32.071  21.422  25.859  0.1773 -0.1327 -0.2314
52260W        W95177   0.201  23.316  24.664  0.1144 -0.5905 -0.1263
52261W        W95178  33.720  22.612  26.273 -0.0951  0.0232  0.2285
52262W        W95179  32.355  20.950  27.664 -0.0682  0.0506  0.2955
52263W        W95180  32.675  24.794  26.068  0.1215 -0.0919  0.0557
52264W        W95181  33.970  22.829  24.293  0.0652 -0.3919  0.2453
52265W        W95182  33.755  25.383  25.938 -0.0561  0.1968  0.1442
52266W        W95183  34.427  24.238  23.043 -0.1532 -0.1743  0.2255
52267W        W95184  33.728  24.779  25.894  0.0654 -0.0652  0.1128
52268W        W95185  34.036  23.800  25.317 -0.3293 -0.0117  0.3247
52269W        W95186  33.234  24.655  25.934 -0.0630 -0.3750 -0.0183
52270W        W95187  33.309  21.035  27.180  0.0370 -0.0656 -0.0999
52271W        W95188  34.457  22.041  28.783  0.2021  0.0492  0.0845
52272W        W95189  32.571  23.767  28.274  0.1997  0.1441 -0.2463
52273W        W95190  33.314  23.088  26.313  0.1520  0.3001 -0.2096
52274W        W95191  33.778  22.148  24.818  0.2346  0.1845 -0.0729
52275W        W95192  33.440  23.587  24.678  0.3214  0.1215  0.0329
52276W        W95193   0.242  21.885  25.743 -0.1362 -0.0158  0.2641
52277W        W95194  33.202  24.708  29.285  0.2360  0.1474 -0.0759
52278W        W95195  34.227  21.830  24.502  0.0470 -0.0274  0.3448
52279W        W95196   1.524  22.904  23.521 -0.0226 -0.0885 -0.0680
52280W        W95197  34.322  23.224  25.285 -0.3669 -0.1231  0.0957
52281W        W95198  34.110  20.552  23.541  0.0330 -0.0496  0.1287
52282W        W95199  33.810  23.935  23.937  0.2605  0.2304  0.0246
52283W        W95200  32.412  26.100  27.244 -0.1417 -0.2302  0.1352
52284W        W95201  32.957  24.238  28.321  0.0260  0.3710 -0.1421
52285W        W95202   0.091  25.235  26.459  0.1465 -0.0767  0.2053
52286W        W95203  34.562  24.720  24.501  0.1883 -0.2046 -0.0941
52287W        W95204  33.531  24.070  27.422  0.1096  0.2287 -0.2310
52288W        W95205  32.403  24.764  24.556  0.1132 -0.0370  0.1139
52289W        W95206  32.161  24.676  28.069 -0.3226 -0.0312 -0.1251
52290W        W95207   2.136  21.182  24.935  0.0051 -0.0009  0.0610
52291W        W95208  32.985  24.304  26.257 -0.1232  0.1850 -0.0142
52292W        W95209  33.156  24.606  27.954 -0.2288  0.0816 -0.0328
52293W        W95210  34.209  27.119  25.035  0.1317 -0.0645  0.1822
52294W        W95211   1.208  21.590  23.899  0.0108 -0.1564  0.2623
52295W        W95212  33.188  25.368  25.471 -0.1523  0.0427  0.0224
52296W        W95213  34.265  25.975  24.821  0.4208  0.4390 -0.0410
52297W        W95214  34.263  23.414  26.069 -0.1731  0.2352 -0.4640
52298W        W95215  33.338  22.747  25.870  0.3930  0.0149 -0.3424
52299W        W95216   1.300  21.970  25.302  0.1125 -0.1510  0.1184
52300W        W95217  32.335  22.625  26.490 -0.0719  0.2004  0.1603
52301W        W95218  33.033  25.984  26.232  0.1464 -0.0579  0.1309
52302W        W95219  34.156  23.145  24.731  0.0909  0.0980 -0.0740
52303W        W95220  34.349  23.510  24.446  0.2127  0.0838  0.0968
52304W        W95221  34.064  24.353  25.208  0.1323 -0.1524  0.0505
52305W        W95222  33.867  24.767  24.391 -0.1163 -0.1313  0.0734
52306W        W95223  33.573  24.254  26.057 -0.0864  0.1974 -0.0111
52307W        W95224  34.450  23.609  25.630 -0.1031 -0.1896  0.1680
52308W        W95225  32.814  22.263  25.613 -0.3488 -0.0120 -0.2332
52309W        W95226  32.015  22.155  27.388 -0.5673 -0.1330  0.0233
52310W        W95227  32.451  23.264  27.001  0.4359  0.0769 -0.0342
52311W        W95228  31.856  22.697  27.459 -0.0075 -0.3256  0.2859
52312W        W95229  34.560  23.590  22.930  0.0656 -0.2519  0.1061
52313W        W95230  33.040  22.413  23.289 -0.0640 -0.2515 -0.2304
52314W        W95231  31.936  23.480  27.453 -0.2180  0.2859  0.1198
52315W        W95232  31.294  21.658  27.100 -0.0390 -0.1263 -0.0480
52316W        W95233  33.027  21.786  25.853 -0.0159  0.2942  0.1089
52317W        W95234  34.297  26.602  23.934  0.0174  0.0502 -0.0909
52318W        W95235  33.634  23.783  25.797 -0.0593  0.0029  0.1299
52319W        W95236   0.294  21.678  26.192 -0.2529  0.1146 -0.0758
52320W        W95237   0.889  22.618  24.913  0.0300  0.2104  0.2914
52321W        W95238  30.940  23.202  26.705 -0.1292  0.5552 -0.0721
52322W        W95239   1.272  25.059  24.302 -0.2042 -0.0039 -0.2092
52323W        W95240  32.694  23.521  26.570 -0.0204 -0.3133  0.2336
52324W        W95241  33.174  25.050  27.671  0.0021 -0.1544  0.3314
52325W        W95242  34.051  22.857  25.547  0.2821 -0.1652  0.2084
52326W        W95243  33.347  25.754  25.844  0.0367  0.1382  0.1689
52327W        W95244   0.037  23.465  24.084  0.1451 -0.0165  0.0280
52328W        W95245   0.701  23.493  24.427 -0.2031  0.2035  0.0120
52329W        W95246   0.757  23.756  25.325 -0.1161 -0.1191  0.0214
52330W        W95247   0.989  21.358  23.342  0.1746 -0.0174  0.2926
52331W        W95248  32.782  23.840  26.095  0.1049 -0.2371 -0.2770
52332W        W95249  32.696  21.330  24.445 -0.1996 -0.1658  0.1065
52333W        W95250  33.284  25.629  22.195 -0.0022 -0.1009  0.0273
52334W        W95251  31.076  23.588  25.847 -0.1996 -0.0546 -0.0833
52335W        W95252  34.149  23.410  27.776 -0.2852 -0.1841 -0.0671
52336W        W95253   1.247  23.294  27.945  0.1826 -0.1359 -0.1812
52337W        W95254   0.209  24.881  26.168  0.1484  0.0472 -0.0809
52338W        W95255   0.110  21.619  26.811  0.3360  0.0892  0.0637
52339W        W95256  33.400  22.771  24.932  0.2895  0.0939  0.1289
52340W        W95257  32.918  22.665  24.883  0.2905  0.0280  0.0522
52341W        W95258   0.454  22.867  25.011  0.0514 -0.1504  0.1381
52342W        W95259  33.894  26.247  23.780  0.1810  0.1361  0.0099
52343W        W95260  34.480  22.957  26.250  0.0278  0.1002  0.0399
52344W        W95261  33.215  21.102  26.696  0.1538  0.0072 -0.2008
52345W        W95262  33.937  20.786  24.753  0.0811 -0.2897  0.2673
52346W        W95263  33.263  23.694  26.137  0.1567 -0.2526  0.1527
52347W        W95264  34.530  25.024  25.216  0.1447  0.0155  0.1741
52348W        W95265  34.468  24.367  28.944 -0.1448 -0.2955 -0.1611
52349W        W95266  33.552  20.912  28.797  0.1878 -0.0009  0.0890
52350W        W95267  34.340  22.146  27.037  0.3633 -0.2107  0.0119
52351W        W95268  32.210  20.557  27.462 -0.3109 -0.1815 -0.1453
52352W        W95269  33.029  24.740  28.438 -0.0122  0.0073  0.1503
52353W        W95270   2.028  21.499  29.272 -0.3187  0.3687  0.1413
52354W        W95271  32.222  23.690  26.390  0.1078  0.1178  0.2128
52355W        W95272  33.757  23.041  25.999 -0.0319  0.0358 -0.0423
52356W        W95273   0.796  23.803  27.402 -0.0473 -0.0563  0.1438
52357W        W95274  34.184  20.678  24.147 -0.0404  0.0989  0.1223
52358W        W95275   1.111  24.491  26.597 -0.0390  0.0542  0.0401
52359W        W95276  33.576  20.878  26.424 -0.1411  0.0410 -0.5138
52360W        W95277  33.151  24.024  23.892 -0.1928 -0.1510  0.3145
52361W        W95278  32.946  24.904  25.574  0.0521  0.1075  0.1110
52362W        W95279  33.611  20.421  25.654  0.2417 -0.0491 -0.2920
52363W        W95280  33.462  24.264  29.332  0.0588  0.1064  0.1837
52364W        W95281  32.785  25.734  31.097  0.0366 -0.0027  0.0295
52365W        W95282   0.008  22.891  27.253 -0.2793 -0.0612 -0.0677
52366W        W95283  31.952  21.945  27.932  0.0762 -0.2036  0.1253
52367W        W95284   0.163  22.312  30.269 -0.1886  0.2763  0.0674
52368W        W95285  32.950  21.633  30.333  0.0531 -0.2633 -0.2146
52369W        W95286   0.583  23.491  29.895 -0.1326 -0.0270 -0.1074
52370W        W95287  34.664  22.271  28.360 -0.1633  0.0945  0.0153
52371W        W95288  32.675  22.260  28.365  0.1975  0.1013 -0.2449
52372W        W95289  32.885  25.773  28.107 -0.0239  0.2089 -0.1391
52373W        W95290  33.241  22.856  29.984  0.1769  0.1257 -0.1266
52374W        W95291  33.827  21.580  26.244  0.3813 -0.1909 -0.2718
52375W        W95292  33.409  22.858  31.755 -0.1594 -0.4005 -0.3085
52376W        W95293  32.986  27.175  29.212 -0.0053  0.0546  0.1818
52377W        W95294  32.743  21.771  26.763  0.0230 -0.1925  0.0422
52378W        W95295  32.728  21.230  30.011 -0.1855 -0.1663  0.1819
52379W        W95296  33.859  22.961  29.076 -0.0776  0.1614 -0.0065
52380W        W95297  34.620  27.259  29.529  0.0190 -0.3825  0.0615
52381W        W95298   0.256  26.190  28.127  0.4604  0.0171 -0.0494
52382W        W95299  34.405  24.642  28.466 -0.3227 -0.1335  0.2556
52383W        W95300  32.872  23.321  29.153  0.3264  0.1287  0.0371
52384W        W95301   0.444  23.276  27.413 -0.1746  0.1750 -0.0597
52385W        W95302  33.917  24.398  29.608  0.0663 -0.3176 -0.0946
52386W        W95303  32.060  23.802  28.488  0.1002  0.1587 -0.1364
52387W        W95304  32.248  24.263  29.163 -0.1672 -0.1983 -0.1404
52388W        W95305  33.725  23.510  26.232  0.0069  0.0875  0.1419
52389W        W95306   1.258  26.361  28.031 -0.3361 -0.0727 -0.0560
52390W        W95307  34.126  24.006   0.472 -0.2470 -0.0945 -0.0278
52391W        W95308  33.334  24.685  29.794  0.2161 -0.0368  0.2692
52392W        W95309  33.580  24.311  30.614 -0.0729 -0.0304 -0.2466
52393W        W95310   0.672  24.009  28.958 -0.1056 -0.1856 -0.2307
52394W        W95311   1.406  21.110  28.605 -0.0742  0.0256  0.4446
52395W        W95312   2.313  25.572  29.215 -0.1104  0.0491 -0.0945
52396W        W95313  34.433  21.749  30.639  0.2951 -0.1030  0.3096
52397W        W95314  34.612  25.086  30.156 -0.0329  0.1306 -0.2850
52398W        W95315  33.489  23.503  29.851  0.2585 -0.3652  0.2852
52399W        W95316  34.613  25.805  28.532 -0.0006  0.1261 -0.0105
52400W        W95317  32.318  22.618  29.879  0.2133 -0.1114  0.4035
52401W        W95318  32.580  22.516   0.305 -0.1016  0.2549  0.0610
52402W        W95319  32.129  22.797  29.001  0.0872 -0.0366  0.0054
52403W        W95320  32.482  22.947  31.286  0.0059 -0.0167 -0.3067
52404W        W95321  33.365  23.020  30.569  0.1957  0.1435  0.0141
52405W        W95322  33.939  23.909  26.996 -0.1274  0.0075 -0.1375
52406W        W95323  33.802  24.000  28.915  0.2758  0.2134 -0.0888
52407W        W95324  33.291  25.789  31.051 -0.1201 -0.0800 -0.1811
52408W        W95325  33.761  24.267  31.561 -0.0565  0.0018 -0.4318
52409W        W95326  33.538  24.915  31.714  0.0797  0.0490 -0.3269
52410W        W95327  31.702  25.295  27.454 -0.1999  0.2058 -0.1685
52411W        W95328  33.389  24.952  28.919 -0.3331  0.1225 -0.1323
52412W        W95329  32.811  22.822  27.637 -0.0549 -0.0568  0.1547
52413W        W95330  32.244  22.139  29.747  0.1494  0.2160  0.3725
52414W        W95331  33.706  22.242  29.232 -0.0968 -0.0633  0.0317
52415W        W95332  33.331  21.768  30.859 -0.0362  0.0054 -0.0959
52416W        W95333  33.983  24.375  28.568  0.4428  0.0738  0.2485
52417W        W95334  31.853  23.440  29.337  0.1080 -0.1766 -0.1905
52418W        W95335  34.571  20.393  29.312 -0.0985 -0.1982  0.0326
52419W        W95336  34.102  21.804  30.294 -0.1928  0.1993 -0.1308
52420W        W95337  32.929  22.615  30.317 -0.1161 -0.2274  0.1527
52421W        W95338  33.172  21.072  27.729 -0.2155  0.2163 -0.1259
52422W        W95339  33.997  21.380  27.596  0.0320  0.0267 -0.0320
52423W        W95340  32.295  22.756  27.833 -0.3203  0.0109 -0.1354
52424W        W95341  33.739  21.894  29.711  0.1100  0.0448 -0.0260
52425W        W95342  32.763  21.388  27.559  0.0102  0.0174 -0.2107
52426W        W95343  33.006  26.049  31.402  0.0016 -0.0539  0.1444
52427W        W95344   0.341  25.190  29.584  0.0830  0.0002 -0.1904
52428W        W95345  34.585  21.117  26.870  0.0188  0.0943 -0.2870
52429W        W95346  33.017  25.434  29.317  0.2357 -0.1945 -0.2052
52430W        W95347  31.993  21.470  27.702 -0.0006 -0.0110  0.1642
52431W        W95348  34.362  25.569  29.610 -0.1669  0.4219 -0.1471
52432W        W95349  32.384  25.732  30.027 -0.1056  0.0118  0.1653
52433W        W95350  32.265  25.751  28.163 -0.2570  0.1307 -0.2426
52434W        W95351  32.905  21.525  31.681  0.1943 -0.1546  0.1920
52435W        W95352  33.344  22.847  27.772  0.2069 -0.2106 -0.0969
52436W        W95353  32.629  25.143  31.296 -0.0554 -0.2378 -0.0616
52437W        W95354  32.670  25.589  31.577  0.0437 -0.0236  0.1161
52438W        W95355  34.628  24.664  29.350 -0.1688 -0.2092  0.0095
52439W        W95356  34.277  23.771  29.048 -0.6159  0.1310  0.2864
52440W        W95357  32.598  22.249  28.905  0.3147 -0.0022  0.0665
52441W        W95358   0.457  23.881  29.503  0.0542  0.1684  0.0708
52442W        W95359  34.024  24.033  27.491  0.1154  0.0897  0.2372
52443W        W95360  32.951  24.696  27.384 -0.1016  0.2515  0.1064
52444W        W95361  34.044  22.715  30.039 -0.0327 -0.0751  0.0916
52445W        W95362  33.976  24.449  29.079 -0.0918 -0.0508 -0.3049
52446W        W95363  34.580  22.399  31.680  0.0469 -0.2681  0.0475
52447W        W95364  33.904  23.861  29.430  0.2417  0.0510 -0.1449
52448W        W95365  32.651  24.655  30.898 -0.1162 -0.1915  0.0211
52449W        W95366  33.464  22.279  31.216  0.1155 -0.0740 -0.2848
52450W        W95367  32.121  27.105  29.441  0.0530 -0.1677 -0.0653
52451W        W95368  34.216  26.059  28.370  0.3145 -0.0030 -0.2000
52452W        W95369   0.186  23.453  28.052  0.0600 -0.0864 -0.3411
52453W        W95370  33.418  23.125  29.054 -0.0195 -0.2047 -0.1085
52454W        W95371  32.963  24.426  28.788 -0.0175  0.0195 -0.1616
52455W        W95372  33.986  23.076  26.477  0.1849  0.0055  0.0870
52456W        W95373  33.449  23.950  30.282  0.1198 -0.4240  0.0515
52457W        W95374   0.048  24.481  29.900 -0.4054  0.2294  0.0711
52458W        W95375  33.690  24.396  30.068  0.0828 -0.1900  0.2138
52459W        W95376  32.565  21.751  28.667 -0.1809  0.1534 -0.1427
52460W        W95377   0.376  22.783  30.382  0.0653  0.2001 -0.0241
52461W        W95378  32.723  25.856  29.684  0.0417  0.2997 -0.1203
52462W        W95379  34.076  22.466  31.025  0.0348  0.0201  0.2469
52463W        W95380  33.359  23.278  25.832  0.1421  0.0632  0.0389
52464W        W95381   0.539  22.716  27.280  0.0760  0.0852  0.0537
52465W        W95382   0.797  26.200  29.600 -0.1846 -0.2337  0.0618
52466W        W95383  32.749  23.261  28.394  0.0402 -0.0458 -0.1435
52467W        W95384  34.108  25.645  28.630  0.1017 -0.1220 -0.2487
52468W        W95385  34.403  23.050  30.005  0.0450 -0.4263  0.0788
52469W        W95386  34.246  21.847  29.727 -0.1985  0.1825  0.1410
52470W        W95387   0.785  22.502  29.576  0.0296  0.1766  0.2144
52471W        W95388   0.204  23.977  30.067  0.0888  0.0124 -0.1625
52472W        W95389  33.536  22.757  29.464  0.0764 -0.3342  0.0726
52473W        W95390  32.675  22.666  31.731  0.1697  0.0992  0.0914
52474W        W95391  34.026  23.801  28.018  0.1227  0.1326 -0.1474
52475W        W95392  31.910  23.395  28.818 -0.0829  0.0016 -0.2658
52476W        W95393  33.602  23.088  28.560  0.4727  0.0713 -0.0628
52477W        W95394  33.769  23.089  28.046 -0.4030 -0.1109  0.2822
52478W        W95395  32.760  24.012  30.225 -0.1043  0.1435  0.1296
52479W        W95396   0.496  24.501  28.913  0.1622  0.2165 -0.1666
52480W        W95397  33.922  25.679  29.870  0.0406  0.1014  0.0374
52481W        W95398   0.767  22.075  30.051  0.1403  0.0617 -0.1512
52482W        W95399  32.761  22.807  29.810  0.1238 -0.5086  0.1707
52483W        W95400  33.477  21.471  29.728 -0.0478  0.2212 -0.2327
52484W        W95401  31.235  23.855  29.999  0.0526  0.0904  0.1721
52485W        W95402  33.840  21.846  27.643  0.0265 -0.1613  0.0686
52486W        W95403  32.196  23.913  27.925  0.0334  0.2243 -0.4017
52487W        W95404   0.229  22.281  28.914 -0.1566  0.0188  0.1663
52488W        W95405  31.905  23.862  31.910 -0.2788  0.0218  0.0681
52489W        W95406   0.647  23.031  29.747 -0.4677 -0.0884 -0.0233
52490W        W95407   0.988  24.346  30.777 -0.1887  0.0376 -0.0061
52491W        W95408  33.210  23.501  30.720  0.3044 -0.2510 -0.1781
52492W        W95409  32.297  23.142  30.783 -0.0858 -0.1091  0.1620
52493W        W95410  31.614  24.086  28.177  0.1796 -0.0321  0.1437
52494W        W95411  33.608  21.254  27.986 -0.0009  0.2326  0.0270
52495W        W95412  32.802  21.273  28.382 -0.1510  0.3138  0.2530
52496W        W95413  33.069  22.867  28.632  0.0204  0.1550  0.3091
52497W        W95414  32.476  22.751  28.309 -0.1176  0.0436  0.2933
52498W        W95415  34.051  25.949  31.683 -0.2312  0.1048 -0.0696
52499W        W95416  33.572  23.722  27.808  0.1725  0.2859 -0.3647
52500W        W95417   1.429  24.237  26.953 -0.3019  0.0151  0.0320
52501W        W95418   1.796  24.538  29.448  0.0458  0.1158 -0.2462
52502W        W95419   1.619  22.961  25.667 -0.3571  0.2401 -0.0969
52503W        W95420   0.080  25.438  30.491 -0.0138  0.1966 -0.0051
52504W        W95421   0.192  26.290  30.681 -0.0106 -0.0118 -0.1295
52505W        W95422  31.888  24.720  31.271  0.3022  0.0421 -0.1146
52506W        W95423  33.891  26.935  30.026 -0.0048 -0.2986 -0.0865
52507W        W95424  31.818  22.239  28.328  0.0965 -0.4694 -0.0881
52508W        W95425  32.291  23.116  29.922  0.0328  0.0224 -0.4260
52509W        W95426  33.426  24.063  31.020 -0.0103  0.0346  0.0549
52510W        W95427  33.958  24.638  30.394  0.2184 -0.2509  0.0186
52511W        W95428   0.543  21.343  28.348  0.0734  0.1916  0.1695
52512W        W95429  33.560  25.015  31.184 -0.1973  0.1146 -0.1816
52513W        W95430  32.748  22.335  29.797  0.1213 -0.0428  0.1544
52514W        W95431  33.860  24.856  28.732  0.0263  0.2913 -0.0450
52515W        W95432  32.534  23.823  29.206  0.1399 -0.0085  0.0049
52516W        W95433  33.699  24.793  29.309 -0.0830  0.0342 -0.2151
52517W        W95434  32.394  21.740  27.695  0.2573  0.0363 -0.1325
52518W        W95435  34.506  27.193  30.460  0.2489 -0.1795  0.0950
52519W        W95436  31.577  24.734  29.442 -0.0932 -0.2635  0.1134
52520W        W95437   0.948  23.336  28.314  0.1491 -0.2024  0.3417
52521W        W95438  32.550  24.158   0.058  0.4539 -0.0132  0.0787
52522W        W95439  32.889  25.753  30.243  0.2994 -0.0399  0.1841
52523W        W95440  34.274  24.191  28.178 -0.2467 -0.1643  0.1619
52524W        W95441  32.228  24.378  30.958  0.2325 -0.0821 -0.0958
52525W        W95442  32.912  23.828  29.745  0.2125 -0.0550  0.1232
52526W        W95443  34.494  27.366  28.359  0.0117 -0.2920 -0.1734
52527W        W95444   1.297  25.481  29.321 -0.0596 -0.0043 -0.0498
52528W        W95445  33.751  22.406  29.827 -0.2004 -0.2033  0.0727
52529W        W95446  33.816  20.165  28.696 -0.0783 -0.0025 -0.2233
52530W        W95447  34.140  23.321  28.761 -0.5180  0.3314 -0.0942
52531W        W95448   0.728  22.623  27.750  0.0325 -0.4856 -0.1871
52532W        W95449  32.269  21.526  29.980  0.0337 -0.0393  0.2162
52533W        W95450  34.154  23.892  28.566 -0.3604  0.2159 -0.1312
52534W        W95451  33.126  20.551  27.753  0.2367 -0.1756 -0.0528
52535W        W95452  33.152  23.143  29.578  0.1154 -0.0111  0.0672
52536W        W95453  33.109  23.781  27.473  0.0750 -0.3271 -0.3369
52537W        W95454   0.325  22.723  28.544 -0.0645  0.1161 -0.1543
52538W        W95455  33.706  26.113  29.677  0.2126  0.1411  0.0023
52539W        W95456  33.183  21.249  28.913 -0.2631 -0.2947  0.2909
52540W        W95457   1.970  22.907  30.991 -0.0599 -0.3811 -0.4843
52541W        W95458  33.324  23.309  28.152  0.0665  0.0109 -0.1907
52542W        W95459  33.507  27.741  28.576  0.1819 -0.4616 -0.3109
52543W        W95460  33.108  22.115  26.844 -0.0976 -0.1920 -0.0859
52544W        W95461  33.067  23.104  30.951 -0.1848 -0.0869 -0.4095
52545W        W95462  34.076  25.450  30.747  0.0838 -0.1397  0.0306
52546W        W95463  34.289  26.062  29.449  0.1905 -0.1344  0.2005
52547W        W95464   1.656  25.354  29.632  0.2780 -0.1024 -0.2886
52548W        W95465  33.427  25.013  28.341  0.3158 -0.1083 -0.2302
52549W        W95466   0.769  24.645  28.429 -0.3082 -0.1995 -0.1922
52550W        W95467   1.543  23.326  30.181 -0.5472  0.0873  0.2202
52551W        W95468   0.435  22.504  29.949  0.0682 -0.0244 -0.1558
52552W        W95469  32.297  23.821  30.113 -0.0321 -0.1148 -0.1989
52553W        W95470  32.417  24.635  28.874 -0.1331 -0.0349 -0.3183
52554W        W95471   0.835  23.038  27.593 -0.3292 -0.1186 -0.1102
52555W        W95472  33.791  23.932  29.901 -0.1465 -0.1348  0.2606
52556W        W95473   1.414  25.256  30.038 -0.0989 -0.0364 -0.1068
52557W        W95474  31.058  25.038  28.695 -0.2290 -0.1166  0.0662
52558W        W95475  32.058  23.886  29.465 -0.2506 -0.6349 -0.2111
52559W        W95476  34.539  21.762  28.187  0.0516  0.0015 -0.4081
52560W        W95477  33.033  21.710  28.736  0.0160  0.1201  0.3962
52561W        W95478  34.199  22.341  28.422  0.1140 -0.3180  0.0165
52562W        W95479  33.864  21.980  25.442 -0.2508  0.0705 -0.0669
52563W        W95480  33.033  23.292  26.808 -0.1738  0.2249 -0.0155
52564W        W95481   0.134  22.964  31.018 -0.1043  0.1559 -0.0784
52565W        W95482  34.057  22.578  30.537 -0.1633 -0.0647  0.0157
52566W        W95483  32.374  21.792  28.198 -0.1308  0.0922  0.0187
52567W        W95484  33.688  23.059  29.959 -0.2307  0.0541 -0.2680
52568W        W95485  34.516  24.122  30.441  0.3100  0.3528 -0.3915
52569W        W95486  33.671  22.130  30.286 -0.2752 -0.0129 -0.0365
52570W        W95487  33.430  22.204  28.450  0.3401 -0.3569 -0.0158
52571W        W95488  34.506  23.237  29.565  0.2126 -0.0594 -0.1782
52572W        W95489  33.611  22.522   0.033 -0.0200  0.1878 -0.1721
52573W        W95490  32.970  24.924  30.521 -0.2987  0.1799 -0.0364
52574W        W95491  34.330  21.984  27.551 -0.2167  0.2740  0.2101
52575W        W95492  32.726  21.769  30.804 -0.0587  0.2743 -0.2148
52576W        W95493   1.958  23.605  30.248 -0.0707  0.0371 -0.0920
52577W        W95494  34.336  23.293  30.541 -0.0633  0.2326 -0.2297
52578W        W95495  33.743  22.511  28.717 -0.1394 -0.2665 -0.1883
52579W        W95496  34.276  24.209  30.045  0.2536 -0.1822 -0.0343
52580W        W95497  32.187  21.532  28.959  0.0791 -0.0308 -0.0085
52581W        W95498  32.110  23.816  28.958  0.0306 -0.3278 -0.0971
52582W        W95499  33.873  26.534  29.090 -0.0388 -0.0953  0.3244
52583W        W95500  33.989  22.133  28.059 -0.1173  0.3825 -0.0087
52584W        W95501   0.370  24.375  30.370  0.3550 -0.0034 -0.0619
52585W        W95502  32.348  23.322  29.088  0.3269 -0.1738 -0.3092
52586W        W95503  33.867  25.126   0.269 -0.2286  0.1706 -0.1751
52587W        W95504  31.755  25.597  31.599  0.0978  0.0819  0.2904
52588W        W95505   1.983  25.982  30.265 -0.0255 -0.0694 -0.0176
52589W        W95506  33.411  22.365   0.917 -0.2083 -0.2392 -0.0270
52590W        W95507  32.721  22.537  31.226 -0.2106  0.1758  0.4350
52591W        W95508  33.543  23.304  31.136  0.3121  0.0931  0.2711
52592W        W95509  33.926  24.526   0.680  0.1168  0.1499 -0.1608
52593W        W95510  32.778  25.110   0.547 -0.0183  0.1063 -0.2295
52594W        W95511  30.850  23.289   1.610 -0.0057 -0.1600 -0.0402
52595W        W95512  34.175  23.346  31.809 -0.1692 -0.1397 -0.2040
52596W        W95513  31.031  21.011  31.870  0.1149  0.0604  0.1818
52597W        W95514  33.603  25.474   0.584 -0.0674 -0.0966 -0.2766
52598W        W95515  33.201  23.481  31.470  0.2160  0.1174 -0.1211
52599W        W95516  31.443  26.217   0.057 -0.2808  0.3492  0.0772
52600W        W95517  31.673  23.675  30.184  0.2528 -0.1500 -0.2184
52601W        W95518  33.006  23.741  31.091 -0.0733 -0.1024  0.0651
52602W        W95519   0.037  22.940   0.350 -0.0449 -0.3094  0.0325
52603W        W95520   0.275  25.186   2.165 -0.0809  0.0645 -0.2558
52604W        W95521  32.725  24.558  30.302  0.0999 -0.1000  0.1082
52605W        W95522  32.630  24.144   1.512 -0.0053  0.0021 -0.2864
52606W        W95523  33.096  23.588   0.332  0.0522 -0.2147 -0.0903
52607W        W95524  34.007  23.393  30.932  0.2007  0.0558 -0.1918
52608W        W95525  34.609  22.728   1.228 -0.1157 -0.0651 -0.3910
52609W        W95526   2.610  25.412  30.042  0.3201  0.3803 -0.5159
52610W        W95527  32.334  21.798  31.683  0.0780 -0.1422 -0.0343
52611W        W95528  31.709  25.213   0.567  0.0452 -0.0537  0.0684
52612W        W95529  33.684  20.685   0.304 -0.0361  0.1288  0.0857
52613W        W95530  31.884  24.775   0.650 -0.0023  0.0101 -0.4369
52614W        W95531  33.191  24.017  31.537 -0.1140  0.1307 -0.1355
52615W        W95532   0.380  25.071  31.582 -0.3387  0.3432 -0.0934
52616W        W95533  33.072  22.627   0.082  0.1485  0.0814 -0.0986
52617W        W95534  33.399  24.151  29.762  0.1484 -0.1150 -0.0399
52618W        W95535   0.050  24.309  30.887  0.0009  0.0474  0.2587
52619W        W95536  33.636  22.075  31.785 -0.1282 -0.1870  0.0825
52620W        W95537  32.374  20.797  31.795  0.3064  0.1646  0.1829
52621W        W95538  30.363  23.755  31.888  0.1651 -0.0475 -0.0861
52622W        W95539  32.415  25.051  31.750  0.3660  0.4896 -0.4454
52623W        W95540  33.646  20.032  30.709  0.1367 -0.0654 -0.2501
52624W        W95541  34.112  28.228  19.588 -0.1053 -0.1737 -0.2655
52625W        W95542   0.512  27.096  18.693 -0.0236  0.0813 -0.1062
52626W        W95543  32.978  25.258  19.318 -0.1513 -0.0841 -0.1615
52627W        W95544   0.047  26.224  22.030  0.1462  0.1184  0.0194
52628W        W95545  33.232  24.885  19.589  0.0265  0.1280 -0.1651
52629W        W95546  33.279  29.156  17.421  0.0815  0.0647 -0.2440
52630W        W95547   0.401  24.932  18.419 -0.0827  0.1323 -0.1593
52631W        W95548  34.171  26.151  19.872 -0.3160 -0.3899 -0.2860
52632W        W95549  32.616  27.279  17.459 -0.1522  0.0849 -0.0998
52633W        W95550  33.776  28.274  20.065  0.0675 -0.2234  0.3969
52634W        W95551   0.546  26.910  19.156 -0.2148 -0.5562  0.1267
52635W        W95552   1.876  24.889  20.579 -0.0527 -0.0131 -0.0615
52636W        W95553   2.056  28.379  17.337  0.0863 -0.1801  0.0615
52637W        W95554  34.401  26.550  17.046  0.0715 -0.4051  0.0218
52638W        W95555  33.188  28.202  19.138  0.0918  0.1786  0.2694
52639W        W95556  33.310  26.967  17.693  0.1735 -0.0242 -0.0439
52640W        W95557  33.839  29.227  17.374  0.2998 -0.0317  0.5004
52641W        W95558   0.916  29.247  19.853  0.0556 -0.0645 -0.3957
52642W        W95559  33.459  28.285  18.031 -0.0006 -0.2954 -0.1147
52643W        W95560  32.751  28.962  18.063 -0.0801 -0.0584 -0.0663
52644W        W95561   1.871  28.113  16.761 -0.1144  0.1330 -0.1377
52645W        W95562  32.888  29.354  17.153  0.1351 -0.1181 -0.1260
52646W        W95563  33.353  27.879  17.171  0.2080 -0.0681 -0.3082
52647W        W95564   0.371  27.686  17.122 -0.0059  0.1793  0.1813
52648W        W95565  34.303  29.444  17.477 -0.1156 -0.2781 -0.0253
52649W        W95566  34.090  26.498  18.352 -0.0334  0.0140  0.1312
52650W        W95567  34.500  28.544  19.029  0.0402  0.1252 -0.0285
52651W        W95568   0.378  27.199  19.566 -0.0706  0.0528  0.1685
52652W        W95569  34.134  28.055  17.043 -0.1658 -0.0430  0.1664
52653W        W95570   1.226  26.013  17.055  0.2774  0.3266  0.0694
52654W        W95571   2.014  26.836  17.844 -0.2259 -0.0007 -0.0778
52655W        W95572  34.149  29.774  19.363 -0.3602  0.0211  0.2597
52656W        W95573   1.127  24.396  21.792  0.1360  0.0031  0.0438
52657W        W95574  34.375  31.173  20.545  0.4039  0.1876  0.0272
52658W        W95575  32.686  26.699  18.938  0.5937  0.1834 -0.0101
52659W        W95576  33.073  27.773  17.567  0.1181 -0.1766 -0.0305
52660W        W95577  33.506  27.459  17.558  0.0616  0.3088 -0.4529
52661W        W95578  34.194  25.315  22.316  0.1554 -0.0388  0.0090
52662W        W95579   1.936  25.336  19.069 -0.1060  0.1425  0.1545
52663W        W95580  34.145  27.731  21.827 -0.3044 -0.3295 -0.1893
52664W        W95581  34.617  29.123  18.146 -0.1250  0.2363 -0.3072
52665W        W95582  34.453  29.059  19.990 -0.0543  0.1757 -0.1653
52666W        W95583  33.965  27.627  18.130  0.0479  0.1509  0.1331
52667W        W95584   1.204  30.016  19.964 -0.0099 -0.1377  0.1376
52668W        W95585   1.179  28.192  18.907  0.1404 -0.1652 -0.2108
52669W        W95586   1.963  27.749  20.686 -0.1225  0.2104 -0.2387
52670W        W95587   0.571  30.914  16.614  0.0900  0.2514 -0.1503
52671W        W95588  32.987  28.460  18.758  0.1241 -0.4759 -0.1603
52672W        W95589  33.483  28.383  16.558  0.4111  0.0947  0.1061
52673W        W95590  32.498  24.528  19.044 -0.1663 -0.3150 -0.3863
52674W        W95591  33.982  30.583  16.618 -0.2165  0.1403  0.0974
52675W        W95592   0.428  24.753  20.397 -0.0914 -0.0853 -0.1500
52676W        W95593   1.299  27.483  17.465  0.0780 -0.3494 -0.5476
52677W        W95594  33.338  28.853  19.810  0.3214  0.0169  0.1781
52678W        W95595  33.630  27.307  18.634  0.1230 -0.1443  0.1215
52679W        W95596  32.909  24.250  20.243 -0.3566 -0.4056 -0.2914
52680W        W95597  33.007  26.345  19.795  0.1505  0.0231  0.0174
52681W        W95598  33.918  26.701  17.150 -0.0139 -0.0199 -0.0680
52682W        W95599  34.094  27.086  18.421 -0.1296 -0.1427 -0.3295
52683W        W95600  32.500  26.885  17.105  0.1053  0.2816  0.0900
52684W        W95601  31.458  26.385  22.368 -0.1368 -0.0111 -0.3890
52685W        W95602  34.253  26.207  17.882 -0.0263 -0.0382  0.1698
52686W        W95603  33.362  30.263  19.347 -0.1085 -0.0395 -0.1597
52687W        W95604   1.870  28.727  19.077 -0.2302  0.0314  0.0582
52688W        W95605  33.304  26.429  18.026  0.0482  0.3921  0.1864
52689W        W95606  33.896  29.208  19.974 -0.0020  0.0517  0.1002
52690W        W95607  33.642  23.388  17.978  0.1167  0.2484  0.0196
52691W        W95608  33.246  28.760  17.960  0.3440  0.1730  0.3146
52692W        W95609  34.449  30.140  19.750  0.2907 -0.0667  0.1426
52693W        W95610  33.078  29.772  17.274 -0.2489  0.0702  0.0465
52694W        W95611  31.857  26.069  22.061  0.0795  0.1326 -0.4107
52695W        W95612   0.393  24.924  17.725 -0.0612 -0.0585  0.0343
52696W        W95613   0.290  29.996  19.595  0.2869  0.1673  0.0139
52697W        W95614  32.638  28.378  21.645  0.0359 -0.2071  0.0882
52698W        W95615   3.059  26.941  17.899  0.0866  0.4330  0.0440
52699W        W95616   1.608  28.324  19.097 -0.2234  0.2297 -0.3317
52700W        W95617  33.716  28.191  21.091  0.0597 -0.1359  0.0428
52701W        W95618  33.590  26.302  19.735  0.1455  0.2562 -0.3749
52702W        W95619  34.383  25.646  17.611 -0.0627 -0.0488  0.0527
52703W        W95620  31.667  29.263  16.401  0.4581  0.1216  0.0090
52704W        W95621   0.803  27.445  19.594 -0.1283 -0.0705  0.0245
52705W        W95622  33.114  26.365  16.712 -0.0804  0.1373 -0.4566
52706W        W95623  33.556  24.951  19.980 -0.1430 -0.0231 -0.2231
52707W        W95624  32.129  25.947  18.650  0.0268  0.1788  0.2586
52708W        W95625  34.608  29.680  19.589  0.0115  0.0935  0.2830
52709W        W95626   1.207  25.449  19.863 -0.1805 -0.0015  0.0199
52710W        W95627   0.209  30.637  17.034 -0.1190  0.2255  0.5944
52711W        W95628   1.056  29.084  17.591 -0.1642 -0.1091 -0.1912
52712W        W95629   0.358  27.399  19.998 -0.0235 -0.0664 -0.1270
52713W        W95630   0.845  30.662  19.178 -0.2085 -0.0228 -0.3970
52714W        W95631   0.094  28.724  16.863 -0.1609  0.1208 -0.2129
52715W        W95632  34.544  29.004  17.284  0.0048  0.1241 -0.0756
52716W        W95633  33.313  27.309  19.461 -0.0993  0.0319 -0.2013
52717W        W95634  33.421  26.959  17.099 -0.3946  0.1304  0.0309
52718W        W95635  31.752  27.471  17.906 -0.0144  0.1540  0.1484
52719W        W95636   1.026  26.202  18.340  0.1283  0.1131 -0.0438
52720W        W95637  33.157  27.870  19.490  0.0826  0.1632 -0.2192
52721W        W95638  32.310  29.644  17.352  0.0851  0.1291  0.2254
52722W        W95639   1.015  28.284  19.901 -0.3457  0.1060 -0.0622
52723W        W95640  34.435  27.509  18.377  0.3276  0.0686 -0.3541
52724W        W95641  34.453  27.197  17.925  0.0969  0.2394  0.0877
52725W        W95642   0.765  26.646  18.748 -0.0344 -0.0020  0.3970
52726W        W95643   0.587  26.231  18.049  0.1209 -0.1018 -0.2513
52727W        W95644  33.671  28.993  16.103 -0.0861  0.0546 -0.0992
52728W        W95645  34.046  27.440  17.681 -0.4432 -0.3005 -0.0334
52729W        W95646  34.347  27.098  17.364 -0.0163  0.0661  0.0711
52730W        W95647   0.478  26.780  18.019  0.2475  0.0176 -0.0844
52731W        W95648   2.123  26.889  19.669 -0.2605  0.0173  0.0330
52732W        W95649   0.992  25.935  19.716  0.3456  0.2610  0.0723
52733W        W95650   0.262  30.014  18.062  0.3188 -0.1306 -0.1092
52734W        W95651  33.332  29.166  16.518 -0.0546 -0.1070  0.2355
52735W        W95652  33.667  27.780  19.665 -0.0582  0.0591 -0.0455
52736W        W95653  34.594  27.683  17.893 -0.0602 -0.0770 -0.1519
52737W        W95654   0.583  28.157  19.590 -0.0505 -0.0637 -0.0966
52738W        W95655   0.500  29.050  18.519  0.0220 -0.0190  0.1710
52739W        W95656   1.833  26.387  17.832 -0.3527 -0.1482  0.1387
52740W        W95657  34.358  30.128  21.289  0.1091 -0.1134 -0.0702
52741W        W95658   1.915  25.997  19.311 -0.1320 -0.1106 -0.2666
52742W        W95659  34.464  25.848  19.549  0.2977  0.0125  0.3256
52743W        W95660  34.254  27.255  20.501 -0.2222 -0.0012  0.0366
52744W        W95661   0.157  28.030  17.594  0.0223  0.2480  0.3682
52745W        W95662  33.060  23.789  18.637 -0.2045  0.3028  0.0612
52746W        W95663  32.690  29.612  20.838  0.0243 -0.1558  0.2565
52747W        W95664  33.918  28.849  17.018  0.0758 -0.2203  0.0032
52748W        W95665   0.090  28.287  19.581  0.1147  0.3027 -0.1192
52749W        W95666   0.740  27.633  18.354 -0.4221  0.0386  0.2040
52750W        W95667  32.869  29.632  19.270  0.0361 -0.0808 -0.2199
52751W        W95668  31.842  24.023  20.262 -0.1436 -0.1562 -0.5510
52752W        W95669  33.840  26.989  20.233  0.0968  0.0233 -0.0558
52753W        W95670  32.636  25.405  20.918  0.1796  0.2946  0.1485
52754W        W95671  33.978  27.757  20.192  0.3052  0.1353  0.0453
52755W        W95672   0.962  28.493  16.719  0.0084 -0.0894  0.0469
52756W        W95673   1.107  28.345  16.248 -0.0638 -0.2431  0.2208
52757W        W95674  33.699  28.087  19.138  0.2344  0.0700 -0.1631
52758W        W95675  33.512  31.225  20.515  0.0818 -0.2627  0.1919
52759W        W95676  34.238  25.771  18.176 -0.0812 -0.1072 -0.0298
52760W        W95677   0.848  26.721  17.460 -0.0306 -0.2151  0.1660
52761W        W95678   0.794  28.634  17.468  0.2589 -0.0273  0.1753
52762W        W95679   0.634  26.183  18.702 -0.1130 -0.1432  0.0395
52763W        W95680  33.655  29.743  16.704 -0.1857  0.2077  0.2473
52764W        W95681  33.859  28.686  19.730 -0.1001  0.1960 -0.1285
52765W        W95682  33.831  28.805  22.035 -0.0516  0.1546  0.3032
52766W        W95683  33.474  29.350  17.003 -0.0117 -0.0637 -0.2163
52767W        W95684   0.958  28.078  18.405 -0.2051  0.1072 -0.2900
52768W        W95685  34.222  27.611  19.233 -0.1957  0.3468 -0.1233
52769W        W95686   0.535  28.156  17.283 -0.1834 -0.1004 -0.0863
52770W        W95687  32.910  25.876  19.785  0.0325 -0.1842 -0.0740
52771W        W95688  34.155  28.205  20.434  0.2234  0.0231  0.2198
52772W        W95689  34.019  28.662  21.090 -0.0094  0.1227  0.1836
52773W        W95690   0.152  28.678  19.893 -0.2375  0.3555  0.0370
52774W        W95691  32.622  29.443  18.191 -0.0303  0.2043 -0.3290
52775W        W95692   1.652  25.399  19.951 -0.1406  0.0547 -0.0252
52776W        W95693  33.858  29.568  15.631 -0.2973 -0.0804  0.4566
52777W        W95694  33.337  30.435  16.405  0.1288  0.2331 -0.3263
52778W        W95695  33.731  28.744  17.452 -0.1717  0.1122 -0.3251
52779W        W95696  33.506  28.899  21.106 -0.2092 -0.2380 -0.2723
52780W        W95697  34.410  26.712  18.657  0.1942 -0.0730  0.1522
52781W        W95698  33.833  28.122  18.318 -0.0939  0.1330  0.0933
52782W        W95699  33.226  28.959  22.130  0.1496 -0.2350  0.5091
52783W        W95700   1.109  26.757  18.388 -0.0510  0.2898 -0.0944
52784W        W95701   0.207  28.572  17.288 -0.1142 -0.0606 -0.1525
52785W        W95702   0.352  28.255  16.802 -0.1206  0.3795  0.3171
52786W        W95703  34.458  28.428  17.681 -0.2130  0.2287 -0.2273
52787W        W95704  33.771  30.099  19.057  0.0097  0.0134  0.1758
52788W        W95705  34.190  29.396  19.016  0.0934  0.0001  0.2813
52789W        W95706  32.400  27.074  18.081  0.0145  0.2289  0.0696
52790W        W95707   1.581  26.485  19.954  0.1879  0.2129 -0.2096
52791W        W95708  34.484  28.389  16.675  0.2918  0.0943 -0.1241
52792W        W95709  33.093  25.784  20.738  0.2416  0.0708  0.0936
52793W        W95710   1.379  26.543  17.541  0.0023 -0.3317  0.2729
52794W        W95711   0.704  25.988  19.137  0.2051 -0.1649  0.0581
52795W        W95712  32.446  28.443  18.927 -0.2804  0.0242  0.0157
52796W        W95713  34.309  28.446  18.153  0.1712  0.2670 -0.2007
52797W        W95714  32.216  24.415  19.933  0.1714 -0.1488 -0.0962
52798W        W95715   1.089  30.626  18.664 -0.0939  0.4768  0.1547
52799W        W95716  33.670  27.083  19.166  0.0682 -0.0883 -0.1686
52800W        W95717  34.490  27.534  20.116  0.1918 -0.0178 -0.1667
52801W        W95718  33.732  27.594  19.158 -0.5378 -0.1104 -0.2102
52802W        W95719  33.852  30.107  19.596 -0.0915  0.0717  0.0085
52803W        W95720  32.718  28.884  17.103 -0.1250  0.0383  0.0835
52804W        W95721  34.583  29.034  18.837 -0.0673  0.1672 -0.2055
52805W        W95722  33.800  28.585  21.506  0.1015 -0.0260 -0.0509
52806W        W95723  34.179  28.922  18.290  0.0194  0.1570 -0.0755
52807W        W95724   0.005  29.830  17.615  0.0469  0.0894  0.0339
52808W        W95725   1.523  29.112  18.996  0.3463 -0.0218 -0.4110
52809W        W95726   1.394  29.187  16.854  0.1406  0.1272  0.1962
52810W        W95727   0.726  27.406  19.103  0.0657  0.0993 -0.2106
52811W        W95728   0.197  25.860  18.981  0.1027 -0.0473 -0.2220
52812W        W95729  33.171  28.380  16.989  0.1454 -0.1129  0.1554
52813W        W95730  34.016  27.782  18.697  0.0304  0.0438 -0.1792
52814W        W95731   1.312  27.678  18.318 -0.1116  0.0643  0.0737
52815W        W95732   0.149  30.515  16.542 -0.0618  0.1635 -0.4438
52816W        W95733  34.351  24.730  20.645 -0.1911  0.0643  0.0808
52817W        W95734  33.301  29.115  20.417  0.0735 -0.0999 -0.1477
52818W        W95735  34.373  28.102  20.962  0.1128  0.3453 -0.0658
52819W        W95736  33.389  25.065  18.528 -0.0381  0.0469  0.0854
52820W        W95737   0.063  27.026  18.454 -0.0524  0.0745  0.3235
52821W        W95738  33.738  24.757  19.380  0.0204 -0.5207  0.1799
52822W        W95739   1.243  25.955  19.189  0.1686 -0.0376 -0.0226
52823W        W95740  33.679  28.778  16.585 -0.2957 -0.1359  0.0248
52824W        W95741   1.685  27.913  18.783 -0.1569  0.3496 -0.0500
52825W        W95742  32.486  25.988  21.519  0.0410  0.0810 -0.0035
52826W        W95743  32.608  25.931  17.481  0.1689  0.1617 -0.0025
52827W        W95744  33.126  28.706  17.427 -0.1138  0.1433 -0.3665
52828W        W95745  33.556  29.937  17.198 -0.0623  0.1630  0.2747
52829W        W95746  34.659  29.232  19.383 -0.4545 -0.1189  0.4793
52830W        W95747  33.039  24.540  19.874 -0.2779  0.0944  0.4203
52831W        W95748  33.772  29.116  20.761 -0.0482 -0.0827  0.1141
52832W        W95749  31.233  26.062  21.139 -0.1967 -0.0528  0.4190
52833W        W95750  34.188  27.645  19.719 -0.0369  0.0658  0.0210
52834W        W95751  34.451  26.737  18.119  0.0082  0.2821  0.3228
52835W        W95752  33.962  26.607  19.298  0.0840  0.2633  0.5687
52836W        W95753  34.438  27.611  17.026  0.1081  0.2245 -0.2624
52837W        W95754   0.421  26.179  17.569 -0.1785  0.3054 -0.2929
52838W        W95755   1.101  27.746  18.746  0.3409 -0.0508 -0.0486
52839W        W95756  34.484  31.530  19.756 -0.0734  0.0745  0.0550
52840W        W95757   0.116  27.496  21.484  0.0976 -0.2794 -0.1432
52841W        W95758   1.073  28.244  17.287  0.1424 -0.0306  0.3253
52842W        W95759  34.651  28.188  17.119  0.0646  0.0525  0.1882
52843W        W95760  34.307  26.904  19.082 -0.0244 -0.0005 -0.0298
52844W        W95761  34.118  29.645  19.885 -0.2007  0.1023  0.2819
52845W        W95762  34.633  26.282  24.769  0.0490  0.3180  0.0164
52846W        W95763  33.291  26.702  20.944  0.0380  0.0847 -0.0377
52847W        W95764  32.618  27.016  20.273  0.0220 -0.1727 -0.3363
52848W        W95765  34.570  26.379  22.518 -0.0649 -0.0860  0.2951
52849W        W95766   1.644  25.731  22.516  0.1670 -0.0550  0.0803
52850W        W95767  33.565  28.777  22.477 -0.0270 -0.0202  0.2084
52851W        W95768  31.504  24.237  21.492  0.0447 -0.0199 -0.5883
52852W        W95769  34.389  27.716  24.308  0.2340  0.2514 -0.6634
52853W        W95770  33.707  27.291  21.716 -0.1174  0.2914  0.0889
52854W        W95771   0.056  26.344  24.131  0.1779  0.3804 -0.1542
52855W        W95772   0.044  27.366  22.857  0.0086  0.1282 -0.0110
52856W        W95773  33.656  27.918  23.168 -0.1793 -0.1456  0.3986
52857W        W95774   0.906  28.682  18.718 -0.0282  0.0243 -0.0709
52858W        W95775  31.905  28.692  19.319  0.2900  0.0176 -0.2753
52859W        W95776  32.167  26.291  22.488 -0.2027  0.1283  0.3713
52860W        W95777  34.409  25.816  23.275 -0.3283  0.1280  0.1356
52861W        W95778  34.457  28.614  22.218  0.1618 -0.0462 -0.2056
52862W        W95779  34.538  30.404  20.935 -0.1574 -0.0155  0.2178
52863W        W95780  32.884  27.534  23.947  0.1612 -0.0892  0.2683
52864W        W95781   0.263  26.893  23.220  0.4404 -0.2097  0.1485
52865W        W95782  34.551  28.545  21.289  0.1204  0.1276 -0.0291
52866W        W95783  33.755  26.754  24.865 -0.1095 -0.2786  0.3115
52867W        W95784  32.964  27.514  21.833 -0.3723 -0.0528 -0.0092
52868W        W95785   0.684  28.869  23.710 -0.1142  0.0700 -0.1496
52869W        W95786  32.396  28.986  22.667 -0.0242 -0.3236  0.0033
52870W        W95787   0.639  29.766  19.935  0.1407 -0.2703  0.2664
52871W        W95788  34.159  27.550  24.784 -0.1296  0.2597 -0.4835
52872W        W95789  33.174  26.666  24.072  0.1267  0.1326 -0.0448
52873W        W95790  33.923  25.886  20.188  0.1510  0.1038  0.1921
52874W        W95791  33.416  26.780  19.500 -0.0008  0.0219  0.3248
52875W        W95792  33.570  27.767  21.962 -0.0850  0.1134  0.1196
52876W        W95793  32.780  29.052  22.376 -0.3529 -0.1035 -0.0307
52877W        W95794  33.271  24.990  21.740 -0.0941  0.1451 -0.1422
52878W        W95795  32.064  26.808  24.635  0.0943 -0.2362 -0.1261
52879W        W95796  34.501  28.154  21.944  0.1253 -0.0225  0.1162
52880W        W95797  33.489  25.141  20.506 -0.0103 -0.1623  0.0299
52881W        W95798  33.017  27.804  24.384 -0.4528 -0.0105 -0.1405
52882W        W95799  32.954  26.191  24.246 -0.0986 -0.0345 -0.0153
52883W        W95800  32.340  24.189  21.046 -0.1481  0.1071  0.1131
52884W        W95801  32.821  29.079  24.443  0.2776  0.5135  0.1673
52885W        W95802  34.156  25.018  21.405  0.1235 -0.0594  0.0923
52886W        W95803  31.979  25.814  22.559  0.2353  0.3406  0.0004
52887W        W95804  34.396  28.042  19.950 -0.0763  0.0757  0.0504
52888W        W95805  33.365  27.598  24.775 -0.1934  0.0282  0.0761
52889W        W95806  32.717  27.697  24.815  0.0269 -0.0676 -0.0623
52890W        W95807   2.393  26.544  23.383  0.0162  0.1776 -0.4323
52891W        W95808  33.685  30.570  19.613 -0.0544  0.0720  0.0073
52892W        W95809  33.253  28.783  24.172  0.1169  0.0522 -0.1864
52893W        W95810  34.170  26.737  20.541 -0.0376  0.3729 -0.1001
52894W        W95811  34.315  26.468  21.483  0.1197  0.0195  0.2248
52895W        W95812  33.569  26.584  23.765  0.1134  0.2125 -0.0265
52896W        W95813   0.425  25.535  23.902  0.2444  0.0674 -0.0877
52897W        W95814  33.026  28.239  20.696  0.0461 -0.1388 -0.0715
52898W        W95815  31.912  26.041  24.191 -0.2442 -0.0284  0.0386
52899W        W95816  34.362  29.140  21.516 -0.2538 -0.1718 -0.4286
52900W        W95817  34.154  27.254  25.606  0.0145 -0.1685 -0.3258
52901W        W95818  34.091  27.630  23.918 -0.1951 -0.2344  0.1081
52902W        W95819  31.250  26.838  22.160 -0.0232 -0.0723 -0.0882
52903W        W95820  33.065  24.798  21.166  0.4371  0.2061  0.0866
52904W        W95821  32.998  28.259  23.027 -0.2137 -0.0482  0.1073
52905W        W95822  34.205  26.511  23.263  0.3063  0.0019  0.2738
52906W        W95823  33.281  26.117  22.223  0.3690  0.0522 -0.0360
52907W        W95824  32.997  27.070  21.131 -0.0978  0.3358  0.0216
52908W        W95825  33.212  26.900  22.429 -0.0159  0.0257 -0.0258
52909W        W95826  33.239  28.029  21.113  0.1689 -0.3268  0.1982
52910W        W95827  34.420  26.202  22.958  0.0353 -0.0064  0.2529
52911W        W95828  32.360  25.128  21.241  0.0177 -0.0833  0.1093
52912W        W95829  33.561  28.089  21.568 -0.2061  0.5184 -0.0092
52913W        W95830  34.275  26.654  20.027  0.1984 -0.0613 -0.0997
52914W        W95831  34.023  28.993  22.511  0.0633 -0.2111 -0.1723
52915W        W95832  32.157  26.845  25.131  0.0124  0.1651 -0.0054
52916W        W95833  33.097  27.736  22.308 -0.0167 -0.2716  0.1188
52917W        W95834  32.876  28.902  23.897 -0.0689  0.0022  0.0842
52918W        W95835  33.631  28.981  23.015 -0.0692  0.0157  0.1659
52919W        W95836  34.328  28.651  20.664  0.2394  0.1905 -0.0906
52920W        W95837   0.326  26.555  22.280  0.1358 -0.0817  0.1127
52921W        W95838  31.262  28.662  25.342  0.0511 -0.0873  0.0591
52922W        W95839  34.325  27.356  21.505  0.0040  0.3806 -0.2583
52923W        W95840   0.725  28.575  20.221 -0.1027 -0.0651 -0.0084
52924W        W95841   0.254  30.234  21.407  0.0102 -0.1932 -0.0451
52925W        W95842   0.499  26.286  23.841 -0.0707  0.1158  0.2090
52926W        W95843  33.491  27.693  20.197  0.0986 -0.3150 -0.0109
52927W        W95844   0.946  24.715  23.946 -0.0788  0.1010  0.0660
52928W        W95845  33.469  26.884  22.896 -0.1123 -0.2490 -0.0748
52929W        W95846  32.012  26.128  23.460  0.2714 -0.0269 -0.1885
52930W        W95847   1.590  26.157  23.453 -0.0557 -0.2173  0.2457
52931W        W95848   0.290  28.232  20.133  0.0127 -0.0148 -0.0662
52932W        W95849  33.476  28.930  21.648 -0.2083  0.1127  0.1990
52933W        W95850   0.671  27.950  24.090  0.2167  0.1588 -0.2969
52934W        W95851  34.021  27.708  21.295 -0.0412 -0.1061 -0.1931
52935W        W95852  33.809  29.491  21.538  0.2064  0.1604 -0.1414
52936W        W95853   0.252  27.886  19.792  0.3077 -0.1953 -0.1345
52937W        W95854  33.488  26.191  24.147 -0.2262  0.0186  0.0640
52938W        W95855  33.539  26.219  20.610  0.2425  0.0546 -0.2146
52939W        W95856  33.069  24.966  20.119 -0.2620 -0.0685  0.1319
52940W        W95857   1.177  27.802  23.207 -0.0832  0.1553  0.2908
52941W        W95858  31.749  24.736  20.753  0.2372  0.0812  0.1869
52942W        W95859  32.845  29.785  23.835  0.0533 -0.0510  0.0686
52943W        W95860  33.754  26.110  24.559 -0.0308 -0.0022  0.0571
52944W        W95861  32.374  27.268  21.729 -0.0436 -0.0695 -0.1335
52945W        W95862  34.525  28.476  20.181  0.2002  0.1216 -0.1537
52946W        W95863  31.375  27.379  23.635  0.3719  0.0086  0.3927
52947W        W95864  33.260  26.330  20.173 -0.1066 -0.1227  0.0813
52948W        W95865  33.605  29.244  22.289  0.1761 -0.2017 -0.0507
52949W        W95866  33.791  26.479  25.348 -0.1020  0.3866 -0.0346
52950W        W95867   0.325  26.537  22.823  0.0576 -0.5285 -0.0902
52951W        W95868   0.412  27.029  21.508  0.0426  0.0450  0.2509
52952W        W95869   0.309  25.353  22.183  0.1550  0.0926  0.0481
52953W        W95870   0.079  24.125  25.726 -0.0269  0.2399  0.1105
52954W        W95871  33.317  28.937  23.718  0.0025  0.0101  0.0932
52955W        W95872   1.157  28.227  19.419  0.1536 -0.2040 -0.0456
52956W        W95873  32.292  29.098  24.299  0.0885  0.0113 -0.3578
52957W        W95874  32.554  26.488  18.483 -0.0987 -0.0178 -0.0840
52958W        W95875  34.498  27.365  23.326 -0.6275 -0.0649 -0.0631
52959W        W95876  33.411  27.680  23.896 -0.0207  0.1041  0.2478
52960W        W95877  32.919  29.203  20.129  0.1604  0.0223  0.1048
52961W        W95878  30.940  27.247  25.722  0.0891 -0.3565 -0.3045
52962W        W95879  34.600  28.000  21.477  0.2623 -0.3219 -0.0510
52963W        W95880  33.792  25.937  22.218 -0.0731 -0.0620  0.2151
52964W        W95881  33.389  25.002  22.271 -0.0990  0.2582  0.0555
52965W        W95882  33.999  25.827  24.134 -0.0082  0.0340 -0.0431
52966W        W95883  33.998  25.447  21.297  0.1971  0.3687 -0.2588
52967W        W95884  34.016  27.632  22.917 -0.2325  0.1002  0.0765
52968W        W95885  34.267  30.646  20.572 -0.4276 -0.0370 -0.0383
52969W        W95886  31.696  26.186  21.121 -0.2427  0.1162 -0.1194
52970W        W95887   1.560  26.365  19.231 -0.2829  0.1127  0.1166
52971W        W95888   0.895  29.453  20.422  0.1401  0.0221  0.2638
52972W        W95889  33.568  26.832  21.680  0.1845 -0.0022 -0.2390
52973W        W95890  33.216  27.314  24.191  0.3062 -0.0594 -0.0547
52974W        W95891  33.603  25.739  23.697  0.3720 -0.2260  0.0462
52975W        W95892  33.539  27.613  21.017  0.1619 -0.4016 -0.1045
52976W        W95893  33.244  25.251  21.291 -0.1728 -0.0306  0.1861
52977W        W95894   0.731  28.494  19.249 -0.1146 -0.3199 -0.1409
52978W        W95895  33.481  26.685  20.458 -0.2340  0.0376  0.1460
52979W        W95896  33.334  29.072  24.591  0.3197 -0.0141 -0.4051
52980W        W95897   0.490  26.999  20.880  0.0160 -0.0337  0.0567
52981W        W95898  32.969  28.712  20.261 -0.1610 -0.1907 -0.0333
52982W        W95899  33.339  28.432  21.925 -0.3674  0.1856  0.1833
52983W        W95900  32.650  24.847  20.867 -0.2824 -0.3385  0.2889
52984W        W95901  32.344  29.031  20.872  0.2655  0.3134 -0.0738
52985W        W95902  33.206  29.073  22.671 -0.0023  0.1097  0.2006
52986W        W95903   0.801  29.420  23.898  0.0606  0.2945  0.0059
52987W        W95904   0.269  28.366  21.595  0.2188  0.0884  0.3058
52988W        W95905  34.656  29.171  20.457 -0.2274  0.1919 -0.2198
52989W        W95906   1.070  28.223  20.884  0.0503  0.0818  0.4472
52990W        W95907  34.535  26.729  22.033 -0.2740  0.0212 -0.4731
52991W        W95908  32.581  26.376  23.464  0.2135 -0.1932 -0.0775
52992W        W95909  33.658  24.246  21.200  0.0289 -0.2328 -0.2751
52993W        W95910  34.078  28.024  24.606 -0.0839 -0.0531 -0.1767
52994W        W95911  31.853  28.762  25.985  0.0236  0.1411 -0.3678
52995W        W95912  33.679  28.504  20.650  0.2103  0.0430  0.0087
52996W        W95913  34.112  25.595  21.837  0.1089  0.1834 -0.0219
52997W        W95914  32.749  28.064  22.580 -0.4389  0.0594  0.1099
52998W        W95915  32.074  28.059  21.713  0.1769  0.0443 -0.0113
52999W        W95916  33.641  29.359  23.458  0.1497 -0.2865 -0.2917
53000W        W95917   0.782  28.512  22.008  0.1244  0.0156  0.3548
53001W        W95918  33.387  27.202  20.191  0.3544  0.0085  0.0497
53002W        W95919  34.490  26.221  23.672 -0.1690 -0.2914  0.0465
53003W        W95920  32.679  29.371  23.971 -0.0513  0.4061 -0.3923
53004W        W95921  31.680  24.814  21.737 -0.0537 -0.0702  0.0211
53005W        W95922   0.187  28.741  19.408  0.1578 -0.2059  0.2621
53006W        W95923  32.784  29.143  21.146  0.0188 -0.2267 -0.4055
53007W        W95924   1.509  30.211  20.395  0.0121  0.0573 -0.1795
53008W        W95925  32.152  28.533  22.422  0.2631 -0.1188  0.1088
53009W        W95926  33.386  28.377  23.887  0.0546 -0.1003  0.3605
53010W        W95927  33.407  25.739  21.292  0.1032 -0.1627  0.4279
53011W        W95928  33.414  24.793  24.643  0.4104 -0.2550 -0.2085
53012W        W95929   1.157  27.787  19.673 -0.2911 -0.0387 -0.2190
53013W        W95930  32.371  26.838  24.267 -0.0070 -0.2039 -0.0115
53014W        W95931  33.245  26.226  21.054  0.1361 -0.4421 -0.5040
53015W        W95932  33.279  25.293  24.452  0.0658 -0.1789 -0.1071
53016W        W95933  32.789  26.517  21.148  0.1739 -0.0966  0.1354
53017W        W95934   0.772  26.625  24.106  0.0742  0.0528  0.1359
53018W        W95935  33.958  26.991  21.423  0.3380 -0.1451  0.1106
53019W        W95936   0.949  29.978  20.413 -0.1357  0.4268  0.3514
53020W        W95937  30.992  26.752  25.712  0.0593 -0.0022 -0.1211
53021W        W95938  31.704  25.253  20.557 -0.3266  0.3369  0.0517
53022W        W95939  34.018  27.032  23.001  0.1404 -0.1005  0.0565
53023W        W95940  32.457  27.249  22.987 -0.1210  0.1799 -0.1484
53024W        W95941   0.611  29.487  18.094  0.0736  0.0502 -0.0765
53025W        W95942   0.495  27.465  21.826  0.2812  0.0096 -0.4624
53026W        W95943   1.175  28.673  25.024 -0.0174 -0.0177 -0.1807
53027W        W95944  32.478  27.335  20.667  0.1876  0.3398  0.0409
53028W        W95945  33.071  26.028  21.457 -0.1528  0.2757 -0.0804
53029W        W95946  33.337  28.503  21.372  0.0892  0.0230  0.4636
53030W        W95947   0.733  28.514  21.526  0.1813 -0.2147 -0.2026
53031W        W95948   1.410  25.049  19.559 -0.0125 -0.0558  0.0713
53032W        W95949  33.635  25.704  20.848 -0.1412  0.3021 -0.1604
53033W        W95950  33.648  26.558  23.276  0.0950 -0.4801 -0.1199
53034W        W95951  30.839  27.414  20.534  0.2123  0.2153  0.1205
53035W        W95952  34.335  29.547  20.759  0.2868 -0.0287  0.2772
53036W        W95953  33.957  26.014  22.709 -0.5676  0.2915  0.0295
53037W        W95954  33.966  23.911  24.497  0.1810  0.0884 -0.0551
53038W        W95955  34.196  26.807  22.376  0.4030 -0.0325  0.4199
53039W        W95956  32.186  27.715  23.022 -0.1466  0.0130 -0.0637
53040W        W95957  31.798  27.336  21.940 -0.0284  0.1740 -0.0408
53041W        W95958  32.840  27.146  22.139 -0.2110  0.1027  0.1525
53042W        W95959  33.954  26.539  21.006 -0.0824 -0.1687  0.2100
53043W        W95960   1.050  28.762  19.593 -0.0110  0.1129  0.1915
53044W        W95961  32.838  29.146  20.646 -0.0798 -0.0504 -0.0170
53045W        W95962   0.729  28.980  24.225 -0.1463  0.0984  0.0567
53046W        W95963  34.627  26.819  23.668  0.2705 -0.1396 -0.0175
53047W        W95964  31.271  26.498  21.429 -0.0520 -0.2878 -0.1875
53048W        W95965   0.581  26.892  23.624  0.3128 -0.1077  0.2441
53049W        W95966  33.395  27.298  22.227  0.0301  0.0080  0.0403
53050W        W95967  34.288  27.177  23.934  0.0962 -0.1861 -0.0989
53051W        W95968  32.702  25.520  22.392 -0.3175 -0.1337 -0.0516
53052W        W95969  34.625  28.370  24.665  0.3223 -0.0290  0.0764
53053W        W95970  33.351  24.919  24.073 -0.1100 -0.0338 -0.0188
53054W        W95971  34.465  26.819  24.393  0.3134 -0.0490  0.1253
53055W        W95972  31.829  25.686  20.863  0.0453 -0.3062 -0.1761
53056W        W95973  31.095  26.391  23.531 -0.0252 -0.0520  0.0628
53057W        W95974  33.819  26.840  19.758  0.0785 -0.1357  0.2976
53058W        W95975   1.544  28.359  24.005 -0.0876 -0.1474 -0.0396
53059W        W95976   0.239  27.868  20.994 -0.0733 -0.1340  0.0849
53060W        W95977   1.203  27.786  24.765 -0.1199  0.0777 -0.1932
53061W        W95978  34.389  26.883  21.109 -0.4034  0.1596 -0.2268
53062W        W95979  33.646  25.451  19.991  0.0577 -0.3663 -0.0829
53063W        W95980   0.042  28.164  20.552 -0.0455 -0.0109  0.2628
53064W        W95981  32.543  24.173  21.519  0.1494  0.1045 -0.1610
53065W        W95982  33.225  30.305  23.052  0.0501 -0.0167 -0.0945
53066W        W95983  32.068  27.729  27.334  0.2751 -0.3269 -0.0424
53067W        W95984  32.219  26.360  24.422  0.1571  0.0717  0.6052
53068W        W95985  32.602  26.985  24.761  0.4095 -0.0142 -0.1072
53069W        W95986  32.410  26.742  27.220 -0.1079 -0.0462  0.1805
53070W        W95987  34.551  27.770  25.789  0.5837 -0.1673 -0.0145
53071W        W95988   0.618  28.696  26.594 -0.1873  0.0358  0.3416
53072W        W95989  34.092  28.636  25.406 -0.1005  0.3428 -0.1152
53073W        W95990  31.885  26.880  27.148 -0.1301 -0.0625 -0.0845
53074W        W95991  32.569  28.035  25.156  0.1401 -0.1045  0.1209
53075W        W95992  32.929  25.190  28.131  0.1626  0.0103  0.0497
53076W        W95993  34.091  26.152  26.443  0.0390  0.2348  0.0085
53077W        W95994  33.813  23.597  27.374 -0.1452  0.0779  0.0877
53078W        W95995  33.619  28.492  26.342  0.1319  0.0902 -0.0727
53079W        W95996  32.352  27.505  24.404  0.1830  0.0549 -0.1859
53080W        W95997  32.498  26.812  25.718 -0.0788  0.4819 -0.1192
53081W        W95998  33.895  25.182  27.840 -0.1287  0.0928 -0.1604
53082W        W95999  34.142  28.872  25.937  0.4612  0.0578  0.1133
53083W        W96000  33.232  27.537  27.342  0.0597  0.1724  0.1869
53084W        W96001  33.696  28.134  25.431 -0.1159 -0.0856 -0.0918
53085W        W96002  33.427  29.501  24.900 -0.0992  0.0220 -0.4613
53086W        W96003   0.057  29.839  25.148  0.1833 -0.1561 -0.3689
53087W        W96004   1.591  30.249  28.203  0.3026 -0.2192 -0.2774
53088W        W96005  31.773  28.303  26.183  0.2873 -0.1947  0.0059
53089W        W96006  32.528  28.226  26.706 -0.1230 -0.2450 -0.1387
53090W        W96007   0.141  27.418  24.119 -0.1443  0.0330  0.1426
53091W        W96008   1.247  27.034  26.600  0.0788  0.0906  0.0104
53092W        W96009  34.322  28.277  27.837 -0.0872  0.5137 -0.1832
53093W        W96010  34.286  27.956  26.687  0.1261 -0.0601 -0.2417
53094W        W96011   1.380  28.900  23.961  0.3040 -0.1442  0.0329
53095W        W96012   0.246  24.764  24.903 -0.0745 -0.1027  0.0185
53096W        W96013  33.577  26.064  26.297 -0.1355  0.2056 -0.2085
53097W        W96014  33.539  28.737  25.496  0.0273  0.1114 -0.0846
53098W        W96015   0.906  27.188  25.342 -0.0097  0.0001 -0.1978
53099W        W96016  32.621  28.017  26.186  0.0179 -0.2041 -0.1239
53100W        W96017  32.871  27.579  26.180 -0.1971  0.3839 -0.2356
53101W        W96018  31.455  26.559  27.457 -0.2186 -0.3979 -0.0792
53102W        W96019  31.648  26.227  27.804  0.1432  0.0534 -0.0481
53103W        W96020  31.724  27.793  26.956  0.1789  0.2894  0.0919
53104W        W96021   1.717  26.802  24.662  0.2076  0.2102 -0.4455
53105W        W96022  31.986  28.103  26.582  0.0453  0.3312  0.2010
53106W        W96023  34.626  26.530  25.732  0.2252 -0.0362  0.1876
53107W        W96024  31.998  27.444  26.667  0.2038 -0.0796  0.0974
53108W        W96025  34.403  24.780  26.490  0.2361  0.0541  0.1495
53109W        W96026  33.289  28.292  27.615 -0.2398 -0.6416 -0.4950
53110W        W96027  33.210  26.572  27.898  0.0049 -0.0089 -0.1904
53111W        W96028  34.600  28.728  26.329 -0.0216 -0.2064  0.2456
53112W        W96029  32.927  28.949  25.064  0.1342 -0.1275 -0.2643
53113W        W96030  32.901  28.552  27.329 -0.2095  0.3135  0.0238
53114W        W96031  33.268  28.787  26.470  0.1892  0.0643 -0.3266
53115W        W96032  31.284  26.692  28.678  0.1282 -0.0512 -0.1247
53116W        W96033  34.252  27.611  27.210  0.0331 -0.4273  0.0633
53117W        W96034  32.520  27.162  29.915 -0.2152 -0.1414 -0.1991
53118W        W96035  32.797  28.407  25.350  0.2786  0.1724  0.0612
53119W        W96036  32.843  27.883  25.594 -0.1622 -0.3066 -0.1783
53120W        W96037  33.381  27.750  25.609 -0.2027  0.0991 -0.2432
53121W        W96038  32.441  25.623  27.337 -0.3644 -0.1883  0.2924
53122W        W96039  31.970  25.935  27.398  0.2162  0.1763  0.1438
53123W        W96040  32.921  24.323  26.907  0.2436 -0.0060  0.0287
53124W        W96041   0.009  27.324  25.570 -0.2194 -0.0049  0.0021
53125W        W96042  32.478  28.940  25.363 -0.0872 -0.1784 -0.1629
53126W        W96043  33.479  25.369  29.221  0.0729 -0.1856  0.2920
53127W        W96044  33.016  26.225  25.024 -0.1144 -0.0859  0.2787
53128W        W96045   0.690  28.914  25.138  0.0360 -0.1373  0.0712
53129W        W96046  33.725  26.844  27.055  0.1408  0.1310  0.2098
53130W        W96047  34.433  25.408  26.011 -0.1537 -0.1155 -0.1039
53131W        W96048  33.107  24.896  26.360 -0.3335 -0.2503 -0.1190
53132W        W96049  32.490  25.951  24.199 -0.4944 -0.1225  0.2229
53133W        W96050   0.108  28.123  22.935 -0.1594 -0.3147  0.0939
53134W        W96051  34.167  27.479  26.628 -0.3246  0.2338 -0.2235
53135W        W96052  34.464  27.780  28.064  0.3196  0.3496  0.1113
53136W        W96053  31.249  26.970  25.295 -0.1743 -0.0452  0.0783
53137W        W96054   0.202  28.115  23.898  0.2198 -0.1150 -0.1002
53138W        W96055  33.398  27.790  28.097  0.0267  0.0454 -0.4243
53139W        W96056  33.462  27.799  29.577 -0.0187 -0.0049  0.0796
53140W        W96057   0.938  25.409  24.502  0.1351 -0.2203 -0.1322
53141W        W96058  33.988  26.453  27.059  0.0285 -0.0864  0.2483
53142W        W96059  33.857  27.783  26.401 -0.0387  0.3221  0.1819
53143W        W96060   1.342  25.184  26.953  0.0204 -0.2281  0.1823
53144W        W96061  34.485  25.317  23.143 -0.1536  0.1429  0.3154
53145W        W96062  33.402  29.395  25.784  0.1831 -0.1508  0.2263
53146W        W96063   0.328  24.806  26.762  0.0154 -0.0426  0.0118
53147W        W96064  33.714  27.581  24.319 -0.3235 -0.1466 -0.2428
53148W        W96065   0.277  25.450  25.970 -0.0559  0.1210 -0.2006
53149W        W96066  33.852  28.413  27.740  0.5235 -0.0435  0.0732
53150W        W96067  33.285  29.319  27.355  0.3817  0.2646 -0.0258
53151W        W96068   0.496  26.679  28.419  0.2310  0.0283  0.0797
53152W        W96069  33.093  28.004  25.998 -0.0175 -0.1795 -0.1880
53153W        W96070   0.537  28.268  24.456  0.1701 -0.0896 -0.0133
53154W        W96071  33.739  26.054  26.794 -0.1404 -0.4213 -0.1625
53155W        W96072   1.568  28.883  27.713  0.0889  0.0986 -0.3000
53156W        W96073   1.720  28.267  22.981 -0.0757  0.0312  0.0009
53157W        W96074   0.169  27.819  25.243 -0.0775  0.1673 -0.0281
53158W        W96075  31.601  30.251  26.388 -0.1163 -0.3651 -0.2973
53159W        W96076  34.519  28.984  25.649  0.0713  0.3279 -0.0308
53160W        W96077  32.968  28.057  26.617  0.1618  0.0846 -0.0853
53161W        W96078  34.226  26.243  25.645  0.0888 -0.1091 -0.1972
53162W        W96079   0.835  24.568  27.942  0.3076 -0.1841 -0.0901
53163W        W96080  32.137  29.470  26.284 -0.0707 -0.1474 -0.1897
53164W        W96081  32.830  26.554  27.048  0.4144  0.0825 -0.2007
53165W        W96082  31.623  28.203  24.667 -0.1242 -0.0102 -0.0748
53166W        W96083  33.898  26.519  28.127  0.1765 -0.2391 -0.3037
53167W        W96084   0.179  28.326  25.161  0.3531  0.2095 -0.2817
53168W        W96085   0.264  26.795  26.368 -0.0780  0.0371  0.0641
53169W        W96086   0.448  27.327  25.344 -0.0354 -0.0590  0.0332
53170W        W96087  34.176  26.913  29.220  0.0746  0.1406 -0.0291
53171W        W96088  34.101  24.325  26.293 -0.1591 -0.1193  0.0258
53172W        W96089  32.645  25.674  26.475 -0.0562  0.0048 -0.1045
53173W        W96090  34.360  26.650  28.096  0.0110 -0.1865 -0.1360
53174W        W96091   0.079  27.539  27.344 -0.0444 -0.2083 -0.1067
53175W        W96092  33.427  27.364  27.778  0.2891 -0.1271 -0.1040
53176W        W96093   1.049  24.968  25.481  0.0852  0.2520  0.1828
53177W        W96094  31.984  27.224  27.534  0.4248  0.0964  0.0619
53178W        W96095  34.286  27.444  26.088  0.2876  0.0294 -0.1900
53179W        W96096  33.304  24.450  27.162 -0.0652  0.1447 -0.0750
53180W        W96097  34.196  27.150  27.083 -0.1998 -0.0730  0.0587
53181W        W96098   1.011  28.334  26.254 -0.0745  0.5619 -0.2215
53182W        W96099  33.701  28.360  28.778  0.1221 -0.0603 -0.2786
53183W        W96100   0.348  25.980  24.900 -0.0081 -0.0055 -0.1785
53184W        W96101  33.856  26.975  25.323  0.4014  0.0562 -0.0657
53185W        W96102  34.487  26.913  27.689 -0.0841  0.0400  0.1963
53186W        W96103  34.593  26.406  28.495 -0.1829 -0.0022 -0.2460
53187W        W96104  33.391  27.092  25.115  0.1114 -0.0164  0.1490
53188W        W96105  33.335  24.708  26.756  0.1736 -0.1652 -0.1021
53189W        W96106   0.192  27.226  23.644 -0.0029  0.3297 -0.0688
53190W        W96107  33.976  26.100  27.929  0.3521  0.1631  0.2856
53191W        W96108   3.705  27.488  22.866  0.3623 -0.2589  0.1233
53192W        W96109   0.716  30.432  26.546 -0.2437 -0.2598 -0.2947
53193W        W96110  34.010  27.009  26.289  0.1592 -0.1650  0.1154
53194W        W96111  32.628  27.284  28.148 -0.1734 -0.3005 -0.0299
53195W        W96112  33.292  26.015  27.311  0.2762 -0.0556 -0.1045
53196W        W96113  32.230  28.527  25.755 -0.0115 -0.0699 -0.0488
53197W        W96114   0.646  27.458  25.784  0.1658  0.0785 -0.2473
53198W        W96115   2.441  28.909  24.366 -0.0758  0.3015  0.3082
53199W        W96116  32.566  26.489  24.854  0.0904 -0.0884  0.0787
53200W        W96117   1.325  29.355  26.244  0.0718 -0.2193  0.4188
53201W        W96118  33.677  28.353  24.968 -0.2153  0.1493  0.4208
53202W        W96119   0.467  25.535  24.703 -0.3554 -0.1050 -0.0474
53203W        W96120  33.784  27.671  26.947 -0.1168  0.0257  0.1253
53204W        W96121  34.179  24.689  24.820 -0.0802 -0.0263  0.2728
53205W        W96122   0.535  29.525  24.364 -0.0292  0.0571 -0.2162
53206W        W96123   0.095  26.275  27.231 -0.2346 -0.2169 -0.0277
53207W        W96124  31.137  27.561  26.813 -0.1664 -0.1720 -0.0976
53208W        W96125   0.224  29.277  25.825  0.0882 -0.0234 -0.2700
53209W        W96126  33.786  27.844  24.969  0.3049  0.2725  0.0113
53210W        W96127  33.548  26.929  26.193 -0.1516 -0.0130 -0.1074
53211W        W96128  34.015  26.889  27.470  0.0124  0.1671 -0.1168
53212W        W96129  33.674  26.126  28.340  0.1104  0.0424  0.4106
53213W        W96130  33.372  24.663  25.476  0.1220 -0.0872  0.1775
53214W        W96131  33.912  27.530  28.824  0.0757 -0.3082 -0.0572
53215W        W96132  33.041  28.826  28.881  0.1464  0.0476  0.1057
53216W        W96133  34.523  28.527  25.852  0.3102  0.3000  0.0874
53217W        W96134  34.307  25.149  24.645 -0.1216  0.1494  0.1209
53218W        W96135  32.432  27.595  26.397  0.0002  0.1303  0.1589
53219W        W96136  32.443  27.104  26.120 -0.1875  0.0500  0.2288
53220W        W96137  33.102  28.218  28.099 -0.0758  0.3540 -0.1634
53221W        W96138  34.253  26.733  26.759  0.2093 -0.0266  0.1811
53222W        W96139  32.124  25.775  23.842 -0.1514  0.4248  0.3351
53223W        W96140  33.377  27.997  26.980  0.2190 -0.2036 -0.0354
53224W        W96141  34.211  30.815  27.739  0.1289 -0.0524 -0.0800
53225W        W96142  33.625  28.011  25.992  0.1162  0.0826 -0.0929
53226W        W96143  34.141  26.716  25.684 -0.0816  0.0510  0.2753
53227W        W96144  33.924  26.522  24.342 -0.2000  0.0861  0.0314
53228W        W96145  34.146  29.784  26.408 -0.3846 -0.0723 -0.1429
53229W        W96146  34.271  29.728  25.761 -0.0429 -0.2548  0.1945
53230W        W96147  32.368  28.439  26.251  0.4118 -0.0632  0.0183
53231W        W96148  33.119  27.149  26.292  0.2284 -0.3042  0.3029
53232W        W96149  33.666  24.356  26.735 -0.2244  0.3305  0.2327
53233W        W96150   0.341  28.856  25.437 -0.0536 -0.1600  0.1048
53234W        W96151  33.564  25.493  27.595 -0.0215  0.0436 -0.1612
53235W        W96152   0.007  25.664  24.871  0.0703  0.3063  0.1008
53236W        W96153  32.617  26.272  26.317  0.0011 -0.1306  0.0900
53237W        W96154  31.758  27.314  25.255  0.1039 -0.1021 -0.0795
53238W        W96155  34.428  26.628  27.205  0.0075  0.2324  0.0871
53239W        W96156  31.500  26.350  26.396 -0.0549 -0.2840  0.0671
53240W        W96157  34.461  28.397  24.141  0.0111  0.0106 -0.1498
53241W        W96158  31.893  26.689  26.669  0.0800  0.1369  0.1908
53242W        W96159  34.132  25.624  27.003 -0.2788 -0.1262 -0.1410
53243W        W96160  32.609  25.296  27.001  0.0149  0.2110  0.0709
53244W        W96161  33.291  26.886  26.640  0.0631  0.1950  0.0022
53245W        W96162  33.715  27.476  25.322 -0.0808 -0.1439  0.2180
53246W        W96163  33.806  28.155  26.736 -0.0359  0.2054 -0.0158
53247W        W96164  33.352  28.636  28.006 -0.1644  0.2231 -0.1421
53248W        W96165  32.169  26.050  24.914  0.0274 -0.2645  0.0476
53249W        W96166  33.516  28.935  25.973 -0.0032 -0.1391  0.0090
53250W        W96167  34.596  27.822  24.825  0.1870  0.2186 -0.0621
53251W        W96168   0.501  29.927  24.952 -0.3388  0.2634 -0.4516
53252W        W96169   0.598  25.270  27.038  0.2691  0.0465  0.2728
53253W        W96170  33.441  27.227  25.682  0.2520 -0.0553  0.0269
53254W        W96171   0.517  27.660  27.654  0.2071 -0.1992 -0.1967
53255W        W96172  32.186  25.720  24.462  0.0988  0.2878 -0.1043
53256W        W96173  32.594  26.984  25.243  0.2326  0.1274  0.0817
53257W        W96174  34.083  25.716  27.677  0.2876 -0.2479  0.2787
53258W        W96175  31.827  24.310  29.387  0.2318 -0.0754  0.2051
53259W        W96176  33.089  25.591  27.668  0.0743 -0.2025  0.1054
53260W        W96177  33.084  26.416  26.569  0.3353  0.1829  0.0477
53261W        W96178  33.291  26.457  26.055 -0.1805  0.0218  0.1507
53262W        W96179  33.202  25.961  26.738  0.0376  0.1226 -0.2720
53263W        W96180  33.292  24.483  23.806 -0.1725 -0.1048 -0.0173
53264W        W96181  32.878  28.172  24.807 -0.2048  0.0132 -0.1406
53265W        W96182  33.049  27.445  25.390 -0.1757  0.2706  0.2119
53266W        W96183   0.977  27.335  26.891  0.0823 -0.0474 -0.1944
53267W        W96184  33.383  25.456  28.105 -0.2368 -0.2409  0.3263
53268W        W96185  33.223  24.330  22.746 -0.1875 -0.2844  0.1163
53269W        W96186   1.494  26.947  27.258 -0.4078  0.0409 -0.0742
53270W        W96187  34.435  28.223  25.471  0.0034  0.2678 -0.0484
53271W        W96188  33.957  30.000  27.049  0.0759  0.1940 -0.2446
53272W        W96189  32.492  26.522  28.952  0.2160 -0.0021  0.0277
53273W        W96190  33.442  27.239  27.032 -0.0228  0.0263 -0.0488
53274W        W96191  32.540  25.100  26.570 -0.0460 -0.0508  0.1152
53275W        W96192  34.094  27.020  28.326 -0.2515 -0.0624  0.3007
53276W        W96193  33.794  25.703  25.497  0.0354  0.0812  0.2129
53277W        W96194  33.351  27.572  26.060 -0.1105 -0.0285  0.4628
53278W        W96195   0.191  27.275  26.152  0.0314  0.3444  0.2402
53279W        W96196   0.045  26.398  27.674 -0.1441 -0.3519  0.1212
53280W        W96197   0.930  25.371  25.166  0.0322  0.0671  0.0139
53281W        W96198  33.683  29.760  26.519  0.0628 -0.0430 -0.1058
53282W        W96199  33.434  25.219  26.776 -0.0800 -0.1009  0.0660
53283W        W96200  34.001  27.740  25.681  0.3364  0.0151 -0.2253
53284W        W96201   0.379  28.021  24.839 -0.2202  0.0721 -0.1395
53285W        W96202   0.137  26.867  25.366 -0.2262 -0.0327 -0.1080
53286W        W96203  34.420  29.089  27.323 -0.1734 -0.1588 -0.3356
53287W        W96204  34.227  29.470  29.424 -0.1392 -0.0839  0.1470
53288W        W96205  32.293  27.928  29.186  0.1233  0.1918 -0.0111
53289W        W96206   0.952  27.273  27.460  0.2989 -0.1063  0.1554
53290W        W96207  34.494  25.128  29.689 -0.0424 -0.1396  0.0818
53291W        W96208  33.874  27.542  29.387 -0.4423 -0.1339 -0.0758
53292W        W96209  33.722  27.026  29.028  0.1270 -0.0896  0.0425
53293W        W96210  34.642  26.000  28.961  0.1566 -0.1682 -0.4134
53294W        W96211  33.510  25.834  30.581  0.2226 -0.1265  0.3396
53295W        W96212  32.463  27.955  28.722 -0.0086  0.0137  0.1010
53296W        W96213  33.500  26.610  29.883 -0.0805  0.1847  0.1388
53297W        W96214  34.416  26.479  29.009  0.2780 -0.2875  0.0918
53298W        W96215  33.987  26.551  31.633 -0.2272 -0.0662  0.2871
53299W        W96216   0.494  29.335  27.280 -0.0781 -0.0082  0.0280
53300W        W96217  32.230  25.944  26.435 -0.0409 -0.1690  0.0466
53301W        W96218  33.107  28.520  29.661 -0.1860 -0.1602 -0.1584
53302W        W96219   1.318  27.744  30.184 -0.0686 -0.3188  0.0926
53303W        W96220   0.704  29.453  28.699 -0.0130 -0.1072  0.1330
53304W        W96221   1.285  28.570  30.626  0.2623 -0.1888 -0.0939
53305W        W96222   0.011  27.541  30.884  0.4340 -0.1937  0.1687
53306W        W96223  34.020  28.795  28.781  0.2631  0.3398  0.0891
53307W        W96224   0.075  29.272  26.951  0.1085 -0.0031  0.0435
53308W        W96225   0.346  29.653  30.340 -0.0518  0.0691  0.1003
53309W        W96226  32.711  29.481  28.300  0.2565  0.0699 -0.1952
53310W        W96227   1.086  28.634  27.936 -0.0951  0.1433 -0.1801
53311W        W96228   0.045  28.514  28.102 -0.0531  0.0028  0.0897
53312W        W96229  34.648  29.721  27.993  0.0925  0.0324 -0.1839
53313W        W96230  34.456  27.671  30.255 -0.2370  0.3623  0.0223
53314W        W96231  33.700  27.450  29.902  0.2518 -0.0120 -0.1045
53315W        W96232  30.995  27.895  27.207  0.2985 -0.0615  0.2393
53316W        W96233   0.750  26.354  26.928  0.0472  0.2950  0.0154
53317W        W96234   0.738  25.846  30.147 -0.2004  0.0653  0.1887
53318W        W96235   0.358  29.771  28.916 -0.0176 -0.0296  0.0264
53319W        W96236  33.429  25.166  29.669  0.0601  0.0817  0.2537
53320W        W96237   1.088  28.231  29.812 -0.1293  0.1797 -0.2903
53321W        W96238  34.090  26.123  28.878  0.1059  0.2409 -0.1073
53322W        W96239  33.740  27.959  30.132  0.1152  0.1007  0.0514
53323W        W96240  33.115  29.625  29.982  0.3918 -0.1659  0.0656
53324W        W96241  31.103  26.899  31.363  0.1521  0.0154 -0.0242
53325W        W96242  32.403  26.669  28.023 -0.2130 -0.1851  0.0203
53326W        W96243   0.073  30.054  29.955 -0.0910  0.0158 -0.2728
53327W        W96244   0.155  28.459  27.547  0.2358 -0.0452  0.1953
53328W        W96245   0.060  26.900  28.599 -0.0089  0.0240  0.1588
53329W        W96246  33.861  28.868  29.759 -0.0628  0.1182 -0.2463
53330W        W96247  34.238  29.929  29.156  0.1211 -0.0935  0.1615
53331W        W96248   0.721  26.088   0.132 -0.1812 -0.2690 -0.3047
53332W        W96249   0.936  26.775  31.836 -0.3044 -0.2407 -0.2120
53333W        W96250  33.372  30.036  27.347 -0.0589  0.0053 -0.0765
53334W        W96251  33.460  28.849  29.494 -0.5606  0.3938 -0.1999
53335W        W96252  33.940  29.038  29.257 -0.0625 -0.1379 -0.0476
53336W        W96253  31.714  25.947  28.665 -0.0603 -0.1686  0.1986
53337W        W96254   3.021  28.391  30.831 -0.1047 -0.2077  0.1873
53338W        W96255  31.411  26.282  30.075 -0.2273  0.0035  0.0552
53339W        W96256  33.889  27.952  28.092  0.0351 -0.0498 -0.4254
53340W        W96257  33.795  27.457  31.224 -0.3642  0.1737 -0.1640
53341W        W96258  32.127  27.735  28.106 -0.2087  0.0415  0.2602
53342W        W96259  33.108  24.521  30.814  0.3626 -0.2144  0.0653
53343W        W96260  33.086  26.174  30.150 -0.6035  0.0377  0.0517
53344W        W96261  32.682  26.088  29.202  0.0122 -0.0099 -0.1404
53345W        W96262  34.410  26.198  26.885  0.1353  0.0079  0.0879
53346W        W96263  32.893  28.574  28.378  0.0799 -0.1222  0.2338
53347W        W96264  33.829  27.932  30.821 -0.0384  0.2790  0.1740
53348W        W96265  32.829  27.345  28.620  0.0043  0.1671 -0.0385
53349W        W96266  34.434  29.561  27.414  0.4945 -0.0606 -0.1318
53350W        W96267  34.287  29.557  26.951 -0.1300 -0.4567  0.0343
53351W        W96268   0.162  25.724  29.327  0.0360  0.2308 -0.2306
53352W        W96269  34.531  29.371  31.701  0.2385  0.1046 -0.0102
53353W        W96270  33.048  25.239  28.634 -0.1853 -0.1317  0.0656
53354W        W96271  33.134  29.774  27.670  0.2231 -0.0496 -0.2096
53355W        W96272  32.172  27.478  29.032  0.0976 -0.1726 -0.2364
53356W        W96273   1.690  29.108  29.230 -0.1304 -0.0675 -0.1770
53357W        W96274  32.636  27.630  30.489  0.0548 -0.4441  0.1622
53358W        W96275  32.106  27.168  28.187 -0.2387  0.0635 -0.2174
53359W        W96276  34.578  30.311  28.082  0.0475 -0.1452 -0.0419
53360W        W96277   1.232  28.999  29.042 -0.2096  0.0898  0.3912
53361W        W96278   0.872  26.826  27.543 -0.0757 -0.1066 -0.2682
53362W        W96279   1.566  27.650  30.679  0.2333 -0.0541  0.0156
53363W        W96280  34.359  28.108  30.063 -0.2195 -0.1877 -0.0118
53364W        W96281   2.289  26.816  30.231 -0.0476  0.1804 -0.0919
53365W        W96282   0.690  26.233  27.794 -0.0883 -0.0209  0.2930
53366W        W96283  33.730  29.666  28.966  0.0117 -0.2169 -0.1856
53367W        W96284  33.919  25.251  29.476 -0.1488  0.0377 -0.1690
53368W        W96285  33.630  26.884  27.935  0.1280 -0.2259  0.0856
53369W        W96286  32.405  23.554  29.626 -0.2526  0.0338  0.0204
53370W        W96287  34.521  29.173  31.018 -0.0746 -0.0652  0.4495
53371W        W96288  34.437  26.716  31.398  0.3297 -0.0606 -0.0070
53372W        W96289  34.262  24.729  29.988 -0.0411  0.0080 -0.3247
53373W        W96290   0.908  30.981  29.649 -0.0969  0.2932 -0.0325
53374W        W96291  33.433  28.698  28.494 -0.1513 -0.2991 -0.2971
53375W        W96292   0.000  25.973  29.746  0.3169 -0.2430  0.1567
53376W        W96293   0.136  31.213  28.987  0.1987  0.2088 -0.0512
53377W        W96294  33.881  29.584  28.447  0.2649 -0.1060  0.2901
53378W        W96295  32.985  28.069  27.233  0.0810 -0.3317  0.0253
53379W        W96296   0.661  29.205  28.103 -0.1076 -0.2238 -0.2815
53380W        W96297  33.357  26.865  29.416 -0.2868 -0.0311 -0.0018
53381W        W96298  32.806  28.780  27.797 -0.1298 -0.2891  0.1270
53382W        W96299  32.716  26.419  29.855 -0.0484  0.1666  0.1483
53383W        W96300   0.876  27.329  28.129  0.1502 -0.1131  0.1312
53384W        W96301  33.012  30.599  29.737 -0.3601  0.3327  0.3941
53385W        W96302   0.289  28.440  30.713  0.1929 -0.2035 -0.0134
53386W        W96303   0.328  25.540  29.999 -0.3135 -0.1437  0.0561
53387W        W96304  33.036  26.306  28.950 -0.3762 -0.0813 -0.1324
53388W        W96305  34.368  29.272  27.842 -0.2264  0.1364 -0.0587
53389W        W96306  34.252  27.289  27.914  0.1886 -0.1526  0.1057
53390W        W96307  33.543  28.759  29.002  0.0225 -0.0655  0.2518
53391W        W96308  34.167  29.673  29.962  0.0850  0.0008 -0.0042
53392W        W96309  34.355  25.635  29.067 -0.1093  0.0582  0.2415
53393W        W96310   1.256  25.677  26.898 -0.4975  0.0478 -0.0683
53394W        W96311  34.382  26.789  30.132 -0.0250  0.2048 -0.0430
53395W        W96312   0.057  26.978  31.037 -0.2301 -0.2114  0.3107
53396W        W96313  33.906  28.178   0.329 -0.0652  0.0655  0.1353
53397W        W96314   0.756  28.400  27.477 -0.1730 -0.2491  0.3034
53398W        W96315  30.603  29.609  29.647  0.2765 -0.2167 -0.0467
53399W        W96316   0.314  29.210  27.742  0.0420 -0.1349  0.1899
53400W        W96317   0.733  26.428  28.798 -0.1339  0.0051 -0.1325
53401W        W96318  33.943  28.494  29.173  0.0064  0.2260  0.1977
53402W        W96319  33.600  30.102  29.140  0.0640  0.0191 -0.0321
53403W        W96320  33.978  27.921  29.670  0.0019 -0.2092  0.2684
53404W        W96321   2.269  27.974  31.156 -0.1356  0.0236  0.0473
53405W        W96322  34.497  26.534  29.594  0.1147  0.0317 -0.0683
53406W        W96323   0.122  26.455  31.143  0.1176  0.3030 -0.0434
53407W        W96324   0.591  30.162  30.261  0.0539  0.1553  0.0563
53408W        W96325  34.264  28.985  28.328  0.0733 -0.5412  0.2086
53409W        W96326   2.585  26.794  31.553  0.1311 -0.1599 -0.0886
53410W        W96327  34.655  28.302  26.612 -0.1186  0.1902  0.0212
53411W        W96328   0.214  27.648  29.348 -0.4682 -0.1097  0.0488
53412W        W96329   0.642  25.688  26.385  0.1700  0.0068 -0.2235
53413W        W96330   0.017  29.197  28.673 -0.0021 -0.0137 -0.1866
53414W        W96331  33.080  25.440  30.724 -0.0820 -0.1152  0.0657
53415W        W96332  33.733  27.017  31.826 -0.1105 -0.0455  0.4012
53416W        W96333  33.536  25.373  31.613 -0.3646  0.0826 -0.5719
53417W        W96334  33.754  25.404  30.369 -0.1055 -0.0650  0.1703
53418W        W96335  33.943  25.175  28.383 -0.0884  0.1082 -0.2119
53419W        W96336  33.532  29.502  27.689 -0.0228 -0.0393 -0.0004
53420W        W96337  34.182  27.488  29.722 -0.1013 -0.0649 -0.2332
53421W        W96338  33.548  29.175  30.699  0.1549 -0.3113 -0.1382
53422W        W96339  33.640  26.456  27.643  0.0056 -0.0994  0.3267
53423W        W96340  34.245  26.367  27.583 -0.0535  0.0195  0.1206
53424W        W96341   0.436  28.655  30.195 -0.3939 -0.1015 -0.0395
53425W        W96342  32.675  25.136  27.496  0.1816  0.1556  0.1754
53426W        W96343  33.681  28.400  29.673  0.2604 -0.4159  0.0624
53427W        W96344   0.996  28.555  30.184 -0.0209 -0.4179 -0.2568
53428W        W96345  34.262  29.153  30.097 -0.0730 -0.0725 -0.0896
53429W        W96346  34.370  28.820  30.481  0.4694  0.0780 -0.2487
53430W        W96347   1.084  25.539  30.373 -0.0815 -0.1002 -0.0690
53431W        W96348  33.533  29.214  30.184  0.1359 -0.3946  0.0220
53432W        W96349   0.099  27.387  28.943 -0.1970 -0.0458 -0.1758
53433W        W96350  33.412  26.235  30.900 -0.2855 -0.0949  0.0071
53434W        W96351   1.249  25.674  28.640  0.0810 -0.1631 -0.0742
53435W        W96352   0.631  29.675   0.184 -0.0308 -0.1469  0.2254
53436W        W96353  31.636  27.523  29.929  0.1242 -0.1987  0.2646
53437W        W96354  34.141  28.600  27.414  0.3650  0.2026  0.0066
53438W        W96355   0.466  27.104  29.463  0.2328 -0.1192  0.1396
53439W        W96356  32.892  29.281  26.524 -0.2531  0.1075 -0.2410
53440W        W96357  34.660  29.457  29.821 -0.2242  0.0852  0.2722
53441W        W96358   0.016  30.603  29.799  0.1716 -0.0569  0.1910
53442W        W96359  34.242  27.130  28.780 -0.0297  0.1557  0.2387
53443W        W96360   0.874  26.036  27.356  0.0421 -0.0688 -0.3085
53444W        W96361   0.012  27.722  31.353  0.0394  0.3340  0.0434
53445W        W96362  32.739  28.757  31.676 -0.2086  0.1167  0.2435
53446W        W96363  33.903  26.550  29.587  0.0313  0.2144 -0.0024
53447W        W96364   0.339  28.095  29.604  0.2059  0.0799  0.5285
53448W        W96365  33.646  29.137  28.656 -0.1770 -0.0238 -0.1656
53449W        W96366   1.350  29.430  28.442 -0.3631  0.0993  0.1036
53450W        W96367  33.426  27.384  29.280 -0.1726 -0.0148 -0.2437
53451W        W96368   0.478  29.198  29.887  0.0608  0.2296  0.3518
53452W        W96369  33.863  25.661  28.151  0.1694  0.0958  0.0245
53453W        W96370   0.948  26.361  30.071 -0.1150 -0.1262 -0.2030
53454W        W96371  32.797  27.944  29.389 -0.1185 -0.2228 -0.1773
53455W        W96372  30.291  27.040  31.138  0.1645  0.1764  0.0950
53456W        W96373   0.406  26.680  27.871  0.3201 -0.1418  0.0212
53457W        W96374  33.968  27.978  28.552 -0.1642  0.1445  0.0558
53458W        W96375  33.507  27.991  29.126 -0.0364  0.1195 -0.2836
53459W        W96376  34.044  27.967  29.078 -0.0593 -0.0844  0.0881
53460W        W96377  34.603  27.405  26.844 -0.2746 -0.0891 -0.1648
53461W        W96378  34.007  29.388  27.513  0.2668 -0.1633  0.1352
53462W        W96379   0.172  26.276  29.393  0.2344 -0.0893  0.0817
53463W        W96380  32.898  24.459  29.797  0.0045  0.0134 -0.2320
53464W        W96381  32.189  25.255  30.159 -0.1394  0.5737 -0.0796
53465W        W96382   0.613  26.547  29.282  0.2568 -0.0666 -0.1809
53466W        W96383   1.178  30.797  28.994  0.1696 -0.1528 -0.2675
53467W        W96384   1.743  28.572  30.497 -0.0033 -0.1734 -0.1156
53468W        W96385   0.220  27.923  30.087  0.0030 -0.2498 -0.0520
53469W        W96386  30.165  26.845  29.778 -0.4870 -0.1473 -0.2319
53470W        W96387   0.093  26.751  30.529  0.1831  0.3069 -0.4428
53471W        W96388  34.606  28.456  30.353  0.1112  0.0131 -0.2656
53472W        W96389   0.909  29.606  29.741 -0.0823 -0.0617  0.2116
53473W        W96390   2.137  26.764  29.710  0.1897 -0.0425  0.2234
53474W        W96391   0.876  25.421  29.078  0.0526 -0.0494 -0.2394
53475W        W96392  33.285  27.652  30.077 -0.0808  0.3260 -0.1374
53476W        W96393  33.012  27.081  27.771  0.1436  0.1715  0.0310
53477W        W96394  33.567  26.375  28.737 -0.0955  0.0758  0.0980
53478W        W96395  33.378  28.285  30.164  0.1143  0.3554  0.0658
53479W        W96396   1.771  24.905  29.772 -0.1733 -0.0501  0.2111
53480W        W96397  34.091  27.353  30.240  0.1053 -0.2012  0.1237
53481W        W96398  33.198  28.255  28.643  0.0080  0.0830 -0.0045
53482W        W96399  33.873  27.442  28.312 -0.3006  0.0752  0.1696
53483W        W96400   0.840  27.028  28.548 -0.0785  0.1245 -0.1260
53484W        W96401  31.912  24.629  30.210 -0.2733  0.0862  0.0032
53485W        W96402   1.623  25.968  28.830  0.1461 -0.3487  0.1396
53486W        W96403   0.456  26.950  28.956 -0.3632  0.0355  0.0840
53487W        W96404  33.006  26.968  30.660  0.0015 -0.0789  0.0198
53488W        W96405  33.546  25.378  30.872  0.1677 -0.0477  0.2113
53489W        W96406  32.549  25.374  29.653  0.0962 -0.1816  0.0223
53490W        W96407   0.828  27.318   0.764  0.1196  0.5030 -0.0020
53491W        W96408   0.653  28.195  30.086 -0.1121 -0.0765  0.2740
53492W        W96409   0.943  29.133  30.059  0.1091  0.1846 -0.3577
53493W        W96410  33.752  27.182  30.772 -0.0537  0.2426  0.0725
53494W        W96411  34.541  26.317  30.297 -0.0206 -0.0930 -0.0521
53495W        W96412  33.337  25.775  29.548  0.1917  0.1323  0.2467
53496W        W96413  34.165  28.791  27.878  0.2084 -0.0276  0.1655
53497W        W96414   1.919  25.866  26.667 -0.0192 -0.3618 -0.2755
53498W        W96415  33.644  26.445  31.322  0.1414 -0.1871  0.1884
53499W        W96416   0.404  25.852  27.339  0.1497 -0.1317 -0.2179
53500W        W96417   0.800  26.737  31.341  0.2566  0.0445  0.3079
53501W        W96418   1.123  25.961  26.466  0.2667 -0.3045 -0.2048
53502W        W96419  33.678  29.874  31.805 -0.0462  0.1164 -0.0649
53503W        W96420  32.599  25.133   1.034  0.2494 -0.0963  0.3766
53504W        W96421   0.864  27.595  28.561 -0.5269 -0.3783 -0.2677
53505W        W96422  34.357  27.738  28.725 -0.1116  0.1380 -0.1564
53506W        W96423  34.241  28.420  26.922 -0.1102  0.1644 -0.1950
53507W        W96424   1.434  28.278  30.165 -0.0095 -0.5619 -0.0993
53508W        W96425  32.151  27.008   0.193  0.1699  0.0398  0.2766
53509W        W96426   0.802  28.646   0.355 -0.0787 -0.1506  0.1142
53510W        W96427   0.293  29.202  31.360  0.1925  0.2695 -0.2313
53511W        W96428  33.985  28.322  31.112 -0.0730 -0.0169  0.1068
53512W        W96429  33.604  26.619  30.497  0.3038 -0.2131  0.1286
53513W        W96430  33.303  25.354  30.282 -0.0651  0.0224 -0.3187
53514W        W96431  34.418  28.177  31.922 -0.1459  0.0700  0.1124
53515W        W96432  33.628  29.169  31.349  0.0327 -0.0375 -0.0241
53516W        W96433  32.425  28.929   0.092  0.1861  0.0372  0.5020
53517W        W96434  33.493  27.078  30.322  0.2437 -0.0716  0.0252
53518W        W96435  33.454  27.117  31.343  0.1971  0.0084 -0.1580
53519W        W96436  33.619  26.232  30.194  0.1129 -0.1940  0.2457
53520W        W96437  32.266  29.477   0.773 -0.4069  0.4036  0.1591
53521W        W96438  33.391  28.143   0.212  0.1776  0.1148  0.2767
53522W        W96439  33.123  29.811  31.895  0.0630  0.0058  0.0210
53523W        W96440  32.977  27.137  30.169  0.5436 -0.2532  0.1671
53524W        W96441   0.631  27.069  30.317  0.0334 -0.0791 -0.0242
53525W        W96442   0.032  26.847  29.244 -0.3658  0.0802 -0.0155
53526W        W96443  34.398  28.491  30.852  0.2198 -0.2907 -0.0236
53527W        W96444  33.443  26.635  31.703 -0.1377  0.1362 -0.2541
53528W        W96445  33.447  27.621  31.588 -0.2918  0.2370  0.2270
53529W        W96446  34.006  29.176  30.837  0.0467 -0.2747 -0.1961
53530W        W96447   0.766  28.591  30.643 -0.0038  0.2864 -0.1244
53531W        W96448  33.220  25.736  31.745  0.0929  0.0263 -0.0550
53532W        W96449  34.386  30.548  30.392 -0.0567  0.0414 -0.0171
53533W        W96450   0.558  26.233  31.266  0.0344 -0.1063 -0.3201
53534W        W96451   0.479  26.713  30.883 -0.0053  0.0623  0.1499
53535W        W96452  34.483  25.827  31.131 -0.0240  0.3292 -0.0357
53536W        W96453  34.325  29.196   0.306 -0.1017  0.1679 -0.0211
53537W        W96454   0.808  25.810  31.155 -0.0543  0.0216  0.1238
53538W        W96455   0.209  29.023  29.520 -0.0205 -0.1050 -0.2782
53539W        W96456  34.542  28.018  29.166  0.0705 -0.2438  0.1071
53540W        W96457  34.225  30.512  28.470 -0.1684 -0.1753  0.0856
53541W        W96458   0.823  29.245  31.343 -0.0989  0.1664 -0.0682
53542W        W96459  33.130  27.490  30.510  0.1690 -0.1078  0.0798
53543W        W96460  32.775  28.613   0.433 -0.0554  0.0169 -0.3101
53544W        W96461  34.259  28.776  31.242 -0.1448  0.3050  0.2196
53545W        W96462  34.632  27.202  31.477  0.1916  0.2626 -0.5847
53546W        W96463  29.830  25.179  30.463 -0.1343 -0.2430 -0.1268
53547W        W96464  32.190  32.673  18.535 -0.1161  0.2462  0.2050
53548W        W96465  33.974  30.831  17.172  0.0261 -0.1891 -0.0942
53549W        W96466  32.524  30.724  16.295  0.0300  0.0354  0.0539
53550W        W96467   2.862  30.616  19.663 -0.0989 -0.0170  0.1869
53551W        W96468   0.094  33.085  19.447  0.1105 -0.2067  0.0712
53552W        W96469  33.552  33.692  20.062  0.3110  0.0341 -0.1835
53553W        W96470  34.633  28.776  16.345  0.2507  0.0229 -0.0107
53554W        W96471   0.218  30.052  20.182  0.2626  0.3816 -0.0601
53555W        W96472  32.841  29.093  16.658 -0.1219  0.0159 -0.1336
53556W        W96473  34.609  30.718  19.026 -0.1642 -0.0954 -0.1180
53557W        W96474  33.014  30.331  17.783  0.0186  0.1976 -0.1657
53558W        W96475  34.622  31.700  21.586  0.0582 -0.0284 -0.0156
53559W        W96476   0.727  32.774  16.426  0.4217  0.2880 -0.4383
53560W        W96477  33.752  32.020  18.151 -0.0581  0.1561  0.0271
53561W        W96478  32.298  29.103  17.257 -0.2619 -0.0241  0.1674
53562W        W96479   1.265  30.327  19.075  0.1272  0.3225 -0.1985
53563W        W96480   0.772  34.390  17.676 -0.0415 -0.1817  0.1351
53564W        W96481   2.266  30.195  18.150  0.0108 -0.0620 -0.0621
53565W        W96482  32.194  31.202  16.364  0.2058 -0.1430  0.3545
53566W        W96483  34.006  31.738  17.828  0.2727  0.3049  0.2374
53567W        W96484   1.514  32.513  16.862 -0.1161  0.1720 -0.2228
53568W        W96485   1.477  31.680  18.064  0.0967  0.3061  0.0214
53569W        W96486   0.325  31.318  16.393  0.1027  0.0465 -0.1608
53570W        W96487  33.450  31.842  20.177 -0.0139 -0.1196  0.0320
53571W        W96488   0.489  31.775  16.398 -0.3304  0.1222 -0.2109
53572W        W96489  34.587  32.047  18.543  0.1236 -0.0316  0.3720
53573W        W96490   1.887  31.001  19.160 -0.0946  0.0332 -0.0881
53574W        W96491  33.363  33.592  16.653  0.0644 -0.1882  0.1450
53575W        W96492  33.494  31.656  16.285 -0.0517  0.0525 -0.2024
53576W        W96493  34.262  30.393  15.911 -0.0708 -0.1741  0.0585
53577W        W96494   1.101  30.391  17.569 -0.3127 -0.0511 -0.1472
53578W        W96495  34.136  32.378  17.035  0.0700 -0.2986  0.1209
53579W        W96496  33.335  30.677  17.935  0.0162  0.0141  0.3409
53580W        W96497  33.887  32.357  18.454 -0.1667  0.2166 -0.2107
53581W        W96498  33.857  31.023  19.857  0.1183  0.1678 -0.0480
53582W        W96499  33.341  33.164  16.965  0.0881  0.1647 -0.1428
53583W        W96500  33.996  31.403  18.689 -0.0714  0.0180  0.2728
53584W        W96501  33.549  30.184  17.635 -0.0480 -0.0521  0.1028
53585W        W96502  34.190  32.187  18.045 -0.0888 -0.1213 -0.0054
53586W        W96503  33.785  30.619  18.934  0.0974  0.1898  0.1853
53587W        W96504   0.220  31.263  18.724  0.0088 -0.0181  0.0597
53588W        W96505  33.229  30.654  15.857 -0.2027 -0.1147  0.3145
53589W        W96506  34.331  30.877  18.123 -0.0299  0.1964  0.0386
53590W        W96507  32.780  32.485  19.275 -0.4338  0.0867  0.0048
53591W        W96508   1.498  31.091  19.529 -0.2903 -0.3693  0.0675
53592W        W96509   0.600  32.264  21.213 -0.0000  0.0811 -0.2433
53593W        W96510  34.667  32.052  16.377 -0.2213 -0.0139  0.0870
53594W        W96511   0.751  29.454  18.599  0.1896 -0.0568  0.1845
53595W        W96512   0.682  30.872  17.424  0.1514  0.2640  0.0391
53596W        W96513  33.843  30.391  20.500  0.0929  0.1315  0.1315
53597W        W96514   0.117  33.057  18.732  0.0901 -0.1364 -0.2832
53598W        W96515   0.151  29.458  19.974  0.0379 -0.1309 -0.0374
53599W        W96516  34.344  33.043  18.500 -0.1546  0.0457 -0.0914
53600W        W96517   1.177  28.671  19.111 -0.0237 -0.0153 -0.0991
53601W        W96518  33.710  32.515  17.380  0.0531  0.1905  0.2836
53602W        W96519  34.431  30.321  21.825 -0.0895 -0.1580 -0.1119
53603W        W96520  34.261  29.393  18.452 -0.0624 -0.0168 -0.3944
53604W        W96521  33.123  30.262  17.292  0.0444  0.0095 -0.3186
53605W        W96522  34.165  31.328  18.164  0.1647 -0.0081 -0.2443
53606W        W96523  31.296  32.426  16.846  0.1682  0.1421 -0.2342
53607W        W96524   0.422  31.204  20.540  0.2585  0.0578  0.0399
53608W        W96525  33.663  30.311  20.025 -0.2136  0.0496  0.0580
53609W        W96526  34.318  31.284  19.039 -0.0235  0.2242 -0.0502
53610W        W96527  34.269  31.653  17.427 -0.0565  0.0542 -0.2009
53611W        W96528  34.320  30.256  16.421  0.0444 -0.1686 -0.1163
53612W        W96529   0.642  31.271  20.056  0.2092 -0.0804 -0.0743
53613W        W96530   0.188  29.553  18.388  0.2308 -0.0145  0.0092
53614W        W96531  32.974  32.780  17.940 -0.1397 -0.1671  0.0673
53615W        W96532  32.165  30.700  17.240 -0.0808 -0.1935 -0.3477
53616W        W96533  34.299  31.159  17.735 -0.1197  0.1509  0.1171
53617W        W96534  33.098  32.652  18.509  0.0622 -0.1608 -0.2752
53618W        W96535  34.396  30.564  16.877  0.2688 -0.3861 -0.2198
53619W        W96536  33.895  33.598  19.662 -0.0695  0.0322 -0.1670
53620W        W96537  33.820  34.484  19.518  0.0147  0.1995 -0.2021
53621W        W96538  34.069  31.597  16.602  0.2572  0.4352  0.3909
53622W        W96539  33.657  31.532  18.280 -0.0428 -0.0396 -0.3347
53623W        W96540  33.619  32.712  18.793 -0.2210 -0.0476 -0.0761
53624W        W96541   2.454  28.718  20.016 -0.5042  0.0064  0.1017
53625W        W96542  33.512  31.244  15.928 -0.2290 -0.0257  0.0533
53626W        W96543  34.138  31.016  16.686  0.2783 -0.3224  0.0456
53627W        W96544   0.560  30.191  20.600 -0.1232 -0.1936  0.0720
53628W        W96545   0.196  32.511  16.265  0.2265  0.1849 -0.1054
53629W        W96546   2.151  31.346  20.306  0.1110 -0.1378 -0.1831
53630W        W96547  33.957  31.919  20.231  0.0239  0.2629  0.0958
53631W        W96548  32.709  34.080  19.373  0.0446 -0.4112  0.0166
53632W        W96549   2.190  29.679  20.589 -0.2286  0.1292  0.2254
53633W        W96550   0.129  33.507  17.831 -0.2213  0.1217 -0.0834
53634W        W96551  34.459  31.445  15.667  0.1408  0.0864 -0.1862
53635W        W96552   1.709  29.566  16.897 -0.3104 -0.0994 -0.1217
53636W        W96553   1.312  30.976  20.049  0.2624 -0.2211 -0.1407
53637W        W96554  33.778  31.216  16.387 -0.2086 -0.1752 -0.0792
53638W        W96555  33.192  32.795  16.187  0.1461  0.1246 -0.0151
53639W        W96556  33.598  30.298  18.132 -0.0077 -0.0567 -0.3790
53640W        W96557  33.299  32.021  16.560  0.0505 -0.2985 -0.0941
53641W        W96558  33.679  29.445  19.571 -0.0498  0.0535  0.0086
53642W        W96559  31.449  30.160  19.026  0.1403 -0.1322  0.1668
53643W        W96560   1.304  29.524  18.246  0.1768  0.0065  0.1505
53644W        W96561  34.608  32.553  18.613  0.1033 -0.1490  0.1637
53645W        W96562   1.083  30.776  19.634  0.2189 -0.0844  0.2426
53646W        W96563  33.323  32.067  17.246 -0.2282 -0.0211 -0.1997
53647W        W96564  34.318  27.835  17.467 -0.2742 -0.2474  0.1205
53648W        W96565  33.355  31.393  16.677 -0.3487 -0.1352  0.0298
53649W        W96566  33.786  31.821  17.353  0.0296 -0.2072 -0.2068
53650W        W96567   1.311  31.537  18.513  0.0174  0.0733  0.2748
53651W        W96568  32.756  30.673  22.178  0.1011  0.0074 -0.0888
53652W        W96569   2.343  31.225  16.672 -0.1592  0.0221  0.1091
53653W        W96570   0.113  30.010  19.132  0.0695 -0.1861 -0.0897
53654W        W96571   1.004  30.042  16.911  0.0372 -0.0712  0.2067
53655W        W96572   0.870  32.226  21.665  0.0375  0.1660 -0.0273
53656W        W96573  33.011  32.193  20.061  0.0113  0.2614 -0.1242
53657W        W96574  33.920  31.504  16.008  0.0122  0.2008  0.2308
53658W        W96575  31.961  31.529  17.538  0.0571 -0.1552  0.1889
53659W        W96576   0.894  30.981  16.936 -0.0693  0.1357 -0.0497
53660W        W96577   0.203  32.520  20.378 -0.0169  0.3175 -0.1029
53661W        W96578  33.887  33.642  18.838  0.0274  0.2212  0.3377
53662W        W96579  33.464  30.637  17.387 -0.3815 -0.1977  0.0447
53663W        W96580   0.518  30.332  19.037  0.1596  0.0714  0.1614
53664W        W96581   2.198  31.507  17.200 -0.1083 -0.2484 -0.0335
53665W        W96582  33.861  30.940  19.314 -0.3188  0.0354 -0.0076
53666W        W96583  33.838  31.381  20.149  0.1526  0.3124  0.1732
53667W        W96584  34.052  32.395  19.904 -0.0643 -0.0169 -0.0845
53668W        W96585   0.456  29.026  17.274  0.1505  0.0362 -0.4126
53669W        W96586   0.620  30.776  19.888 -0.0869 -0.2876  0.0708
53670W        W96587   0.339  31.166  17.063 -0.0884 -0.1193  0.1843
53671W        W96588  33.852  32.868  18.393  0.0372  0.0495  0.3454
53672W        W96589   0.057  31.228  18.142 -0.1683  0.4067 -0.1318
53673W        W96590  34.235  30.173  17.794  0.1811  0.4089 -0.0371
53674W        W96591  33.570  30.912  21.684 -0.2299  0.1343  0.2864
53675W        W96592   1.095  33.711  20.507 -0.1370 -0.0468  0.4236
53676W        W96593   0.122  31.578  20.623 -0.1958 -0.1145 -0.1996
53677W        W96594  33.936  29.819  17.551  0.1705 -0.0082  0.1070
53678W        W96595  34.036  30.135  16.957 -0.4429  0.0848 -0.1473
53679W        W96596   1.085  32.228  15.690 -0.2492 -0.0888  0.0053
53680W        W96597  31.523  29.001  18.362  0.2065 -0.2378 -0.2019
53681W        W96598  34.138  32.989  20.622  0.1741 -0.1449  0.3340
53682W        W96599  34.329  30.750  16.331 -0.2314 -0.1831  0.0965
53683W        W96600   0.615  30.546  16.331  0.0018  0.1241 -0.1848
53684W        W96601  34.490  32.085  19.701  0.2196  0.0487  0.2299
53685W        W96602   1.397  28.775  16.604  0.0688  0.1694 -0.0047
53686W        W96603   0.320  32.571  17.542  0.2311  0.3512  0.1999
53687W        W96604  33.854  34.129  18.604 -0.2908  0.2537  0.2409
53688W        W96605  34.478  32.353  20.141  0.0223 -0.1594 -0.5398
53689W        W96606  34.329  32.355  16.166 -0.1472 -0.0220 -0.1384
53690W        W96607   0.144  31.374  19.280 -0.1600  0.1978  0.3106
53691W        W96608  34.662  31.963  16.869  0.1842  0.1976  0.2283
53692W        W96609   0.885  31.940  17.303 -0.2646  0.0571  0.4700
53693W        W96610   1.784  30.420  19.239  0.1800 -0.0656  0.1314
53694W        W96611   0.714  30.012  17.396 -0.1951 -0.1684 -0.1168
53695W        W96612   0.388  32.297  18.478  0.0784 -0.0238  0.0325
53696W        W96613  33.365  30.329  20.737  0.0792  0.2150  0.0277
53697W        W96614  33.807  32.038  16.286  0.1318  0.0756  0.2799
53698W        W96615   0.537  30.403  15.804 -0.1014  0.0776 -0.2242
53699W        W96616  32.790  33.062  17.592 -0.0565 -0.0850 -0.2222
53700W        W96617   0.155  31.557  17.784  0.0045  0.0620  0.1845
53701W        W96618  33.613  31.796  16.855 -0.1620  0.1844 -0.0488
53702W        W96619   1.605  31.326  17.414  0.1642  0.1965 -0.2485
53703W        W96620   0.169  28.936  17.763  0.1308 -0.0046 -0.0184
53704W        W96621  33.135  32.487  19.668  0.0996 -0.1131 -0.3840
53705W        W96622  32.615  32.604  18.768  0.0203  0.0888  0.1073
53706W        W96623  33.426  31.542  17.263  0.1193  0.1661  0.2394
53707W        W96624   0.059  32.907  18.082 -0.0461  0.0921 -0.2863
53708W        W96625   1.172  31.037  17.365 -0.2329 -0.2647  0.0478
53709W        W96626  33.472  32.471  16.402 -0.0673 -0.2388 -0.1743
53710W        W96627   0.401  33.515  18.558  0.1402  0.0819 -0.0721
53711W        W96628  34.409  29.920  18.578 -0.1778  0.2327 -0.1536
53712W        W96629  33.507  29.571  17.589  0.1560 -0.1132 -0.2343
53713W        W96630   1.491  30.087  19.550 -0.1892 -0.1099  0.0661
53714W        W96631  33.749  29.359  18.514  0.2686 -0.4246  0.2312
53715W        W96632  34.398  31.757  19.299 -0.2440  0.2987  0.2569
53716W        W96633   1.614  31.573  16.101 -0.0608 -0.1292  0.1492
53717W        W96634   2.012  29.373  19.883 -0.0209  0.4967 -0.0832
53718W        W96635  34.283  31.355  17.016 -0.2281 -0.1379  0.0181
53719W        W96636   2.058  28.912  18.082  0.1296 -0.0249  0.1302
53720W        W96637  33.928  30.336  17.379 -0.1453  0.1858  0.0411
53721W        W96638   0.506  32.783  15.987 -0.1220  0.1674  0.0186
53722W        W96639  34.296  28.890  19.262  0.1305 -0.0792  0.0981
53723W        W96640   1.329  29.094  18.526 -0.0584  0.3239  0.1657
53724W        W96641  33.284  29.848  17.913  0.1435 -0.2863  0.3330
53725W        W96642  33.909  33.357  18.450  0.0979  0.0132 -0.0422
53726W        W96643   1.297  29.895  16.525 -0.0763 -0.2460  0.2612
53727W        W96644   0.190  30.829  18.496 -0.2660  0.0759 -0.0752
53728W        W96645   0.472  33.909  19.407  0.2319  0.1709  0.0063
53729W        W96646  33.876  31.361  17.514 -0.1054 -0.1758 -0.1391
53730W        W96647   0.702  31.032  19.478 -0.1533  0.0706  0.4749
53731W        W96648  33.465  30.867  16.679 -0.1718 -0.2165 -0.2813
53732W        W96649   0.091  32.246  15.883  0.4611 -0.0408  0.2329
53733W        W96650   1.551  31.645  16.592  0.0886 -0.6770 -0.0269
53734W        W96651   1.831  29.185  19.429 -0.0289 -0.5252 -0.2650
53735W        W96652  33.530  31.614  21.727 -0.0317  0.0345  0.2000
53736W        W96653  33.059  29.557  16.759 -0.1556 -0.0772  0.1373
53737W        W96654  32.457  32.304  16.522  0.3176  0.2199 -0.0181
53738W        W96655  32.951  30.962  17.937 -0.1727 -0.3183 -0.1509
53739W        W96656   0.484  29.809  18.862  0.5047  0.0047  0.1770
53740W        W96657   0.052  31.402  20.195  0.1927  0.1414 -0.1247
53741W        W96658  34.272  32.702  18.195  0.0582 -0.0135  0.2839
53742W        W96659   0.579  30.268  17.839 -0.1847  0.2276  0.0318
53743W        W96660  34.308  30.214  19.059 -0.1927  0.5183  0.1243
53744W        W96661  33.908  30.680  17.818  0.2487 -0.1367  0.0729
53745W        W96662   0.029  29.666  16.415 -0.1747  0.0334  0.2500
53746W        W96663  33.996  32.569  16.549  0.0486  0.0466 -0.1972
53747W        W96664   0.308  28.499  22.115  0.2914  0.0583 -0.0240
53748W        W96665   0.860  31.807  20.011  0.0554  0.0387 -0.1440
53749W        W96666  33.937  29.658  17.084  0.1651  0.0874  0.3387
53750W        W96667   1.633  29.655  20.471  0.1825 -0.1107  0.1448
53751W        W96668  33.096  30.857  20.733 -0.2880  0.0935  0.0305
53752W        W96669  33.153  31.386  19.981  0.2651  0.2043  0.0053
53753W        W96670  33.287  31.592  20.929  0.1793  0.0129  0.0136
53754W        W96671   3.380  31.626  20.375 -0.2235 -0.3229 -0.0239
53755W        W96672  33.646  30.789  20.737  0.2384  0.0383 -0.2197
53756W        W96673  32.739  31.981  19.255 -0.0688  0.3091  0.1821
53757W        W96674   1.171  29.354  19.301  0.0080 -0.0437 -0.2224
53758W        W96675   0.754  30.933  18.244  0.0550 -0.0283  0.0922
53759W        W96676   0.827  29.987  15.880  0.3014 -0.1579 -0.2180
53760W        W96677  34.569  32.036  20.535  0.2836 -0.3022  0.4789
53761W        W96678  32.691  29.815  17.012  0.1075 -0.2048 -0.1753
53762W        W96679  33.231  31.474  18.625  0.1437 -0.2502 -0.0461
53763W        W96680  32.174  29.596  18.176 -0.2804  0.1715  0.1991
53764W        W96681  33.568  29.107  17.888 -0.0889 -0.2245  0.0029
53765W        W96682   0.355  31.286  15.867  0.1854 -0.1462 -0.0388
53766W        W96683   1.076  31.113  18.728 -0.0327  0.1099  0.1869
53767W        W96684   0.493  32.080  18.060 -0.2905  0.3853 -0.0177
53768W        W96685  33.379  30.827  24.491  0.2835  0.0432 -0.0142
53769W        W96686  34.481  29.653  21.947 -0.0523 -0.0409 -0.2525
53770W        W96687  32.649  29.418  22.023 -0.0220  0.6232  0.1155
53771W        W96688  32.525  27.859  24.000  0.1429 -0.0770 -0.1494
53772W        W96689   0.734  30.293  22.123  0.2821 -0.2302 -0.3151
53773W        W96690   0.335  30.803  23.619  0.0854 -0.0873 -0.3029
53774W        W96691  32.844  29.635  23.358 -0.2103  0.0555  0.3523
53775W        W96692   0.147  31.229  23.977  0.2042 -0.1710  0.0115
53776W        W96693  31.841  32.695  21.782 -0.0109 -0.0488 -0.1217
53777W        W96694   0.182  29.333  21.629 -0.1608 -0.0083  0.2823
53778W        W96695  34.511  29.472  23.826  0.0732  0.2056  0.0876
53779W        W96696   1.699  28.874  24.758 -0.1057  0.0698  0.1905
53780W        W96697   1.158  32.793  20.235  0.0190 -0.3800 -0.3715
53781W        W96698  32.204  28.563  21.844  0.0864 -0.1665  0.0236
53782W        W96699  33.083  30.541  22.540 -0.2006  0.2386 -0.0716
53783W        W96700  31.724  31.283  24.358 -0.0336  0.1853 -0.3810
53784W        W96701   0.111  32.145  21.491 -0.5995  0.0870  0.4326
53785W        W96702  34.059  31.494  22.484 -0.1853  0.0293  0.0390
53786W        W96703  33.504  31.771  22.927 -0.0988 -0.0355 -0.0840
53787W        W96704  34.498  33.117  22.047 -0.0204  0.0813  0.2831
53788W        W96705  34.141  34.054  21.638 -0.2210 -0.3999  0.2298
53789W        W96706   0.488  30.793  24.138 -0.0880  0.0587  0.1188
53790W        W96707  33.993  31.874  19.654 -0.1957 -0.1289 -0.1279
53791W        W96708   1.252  32.895  22.711 -0.1004  0.5647 -0.1337
53792W        W96709   0.473  33.993  21.170 -0.1962  0.1465  0.1150
53793W        W96710  33.730  32.460  23.563  0.1242  0.1888  0.4766
53794W        W96711   1.677  29.648  22.568 -0.1488  0.2895 -0.1329
53795W        W96712  33.163  30.276  22.141 -0.1048  0.2868  0.1362
53796W        W96713   0.608  33.330  20.435 -0.0246  0.2112 -0.0511
53797W        W96714   0.769  29.512  19.099  0.1064  0.2138 -0.1602
53798W        W96715   0.215  27.644  23.223 -0.0639 -0.0739 -0.2889
53799W        W96716  34.389  32.645  19.472 -0.1455 -0.4144  0.1256
53800W        W96717  34.128  26.909  23.521 -0.0137 -0.3366  0.1055
53801W        W96718  31.882  30.930  22.606 -0.2916  0.0736  0.1587
53802W        W96719  32.238  29.452  21.761  0.0112 -0.2478 -0.1262
53803W        W96720  34.219  32.199  23.031  0.4592 -0.0202  0.3934
53804W        W96721  34.197  30.535  25.041  0.2182 -0.1194  0.2206
53805W        W96722   0.811  28.688  24.674  0.1740 -0.1673  0.0508
53806W        W96723   1.232  30.060  20.860 -0.1242 -0.0223 -0.1856
53807W        W96724  31.898  31.716  25.225 -0.2277 -0.1677 -0.0318
53808W        W96725   0.259  30.830  22.726  0.0359 -0.0316 -0.2200
53809W        W96726  33.411  32.184  22.511 -0.3205 -0.2125 -0.2602
53810W        W96727   1.194  32.651  22.226  0.0199  0.2219  0.1043
53811W        W96728   0.163  33.562  22.749  0.2008  0.0767 -0.1947
53812W        W96729  33.632  26.908  24.219  0.0168  0.0654 -0.1457
53813W        W96730   1.961  33.496  23.957 -0.1951 -0.2122  0.0939
53814W        W96731  33.585  34.001  19.499 -0.5218 -0.1885 -0.1769
53815W        W96732  34.055  32.102  20.698 -0.0506  0.0273  0.2560
53816W        W96733   1.329  31.461  21.333 -0.4404 -0.0098  0.1042
53817W        W96734  33.124  31.205  23.319  0.0675 -0.1349  0.1818
53818W        W96735  32.960  31.837  23.819 -0.0672 -0.1759 -0.1890
53819W        W96736  33.855  30.071  24.081  0.2833 -0.0319 -0.0680
53820W        W96737  33.093  32.369  20.520  0.1066 -0.0920  0.1773
53821W        W96738  33.914  31.964  22.699  0.0137  0.1094  0.1126
53822W        W96739  34.309  30.908  20.998 -0.0759  0.1767  0.0426
53823W        W96740   0.657  27.354  23.252  0.1312 -0.0254  0.1626
53824W        W96741  32.273  30.963  22.934 -0.0501  0.0907  0.0867
53825W        W96742  32.746  29.164  23.501  0.1152 -0.1747 -0.0526
53826W        W96743  33.648  30.328  21.705 -0.0338 -0.0088  0.0886
53827W        W96744  34.619  30.656  21.455  0.0447 -0.1281  0.2835
53828W        W96745   0.331  29.180  23.486  0.3068 -0.0177 -0.0136
53829W        W96746  32.392  29.864  23.599 -0.0389 -0.1534 -0.1343
53830W        W96747  33.416   0.456  21.453 -0.0073 -0.0017  0.0133
53831W        W96748   1.040  32.013  23.872  0.2633 -0.1771  0.1850
53832W        W96749   0.526  29.894  21.053 -0.1347  0.0540  0.4540
53833W        W96750   0.165  31.898  22.531 -0.4347  0.2533 -0.0061
53834W        W96751  32.313  29.417  20.566 -0.1356 -0.3005  0.2681
53835W        W96752  34.354  32.695  21.886  0.0310 -0.3661 -0.1608
53836W        W96753  33.875  31.295  21.599  0.0599 -0.2061  0.0044
53837W        W96754   0.346  32.964  21.889 -0.4691  0.1622 -0.1766
53838W        W96755  33.110  30.467  26.430  0.2383  0.1076 -0.0725
53839W        W96756  31.651  29.462  23.022  0.1327 -0.0533  0.1396
53840W        W96757  33.633  31.224  23.107  0.3597 -0.0966 -0.3084
53841W        W96758  32.799  31.487  22.710  0.0834 -0.0531 -0.1604
53842W        W96759  33.431  33.432  19.670 -0.3250 -0.1746  0.1343
53843W        W96760   0.331  29.174  23.997 -0.0928 -0.0674 -0.0323
53844W        W96761   0.204  33.121  22.346  0.1896 -0.0098  0.0934
53845W        W96762  34.524  28.962  24.684 -0.3150  0.0159 -0.2297
53846W        W96763  34.637  31.770  21.086 -0.3585 -0.0568  0.1066
53847W        W96764  32.886  33.186  20.026  0.2520 -0.1247 -0.2145
53848W        W96765  34.193  29.209  23.059  0.0317  0.1147 -0.2630
53849W        W96766  32.798  30.163  20.223 -0.1007  0.2483  0.2038
53850W        W96767   0.723  30.632  22.513  0.0246  0.2490 -0.2215
53851W        W96768  33.737  32.901  24.197  0.2048 -0.2178  0.3029
53852W        W96769  33.014  32.564  22.598  0.0485  0.0831  0.0088
53853W        W96770   0.941  31.252  22.029 -0.0272 -0.0928  0.0759
53854W        W96771  34.468  34.208  19.998 -0.0867 -0.1770  0.0489
53855W        W96772  34.250  31.627  20.543 -0.4351  0.1173  0.2616
53856W        W96773  34.528  29.002  23.389  0.1994 -0.2866 -0.0047
53857W        W96774  33.994  32.069  25.438  0.0487  0.0938 -0.2018
53858W        W96775  33.219  33.342  19.154  0.0573  0.0756  0.4642
53859W        W96776   0.106  32.723  19.887  0.1384  0.2906 -0.3137
53860W        W96777  33.938  31.768  22.028 -0.1323 -0.1040  0.1120
53861W        W96778  33.572  29.887  20.590  0.4325  0.0125  0.0620
53862W        W96779  32.242  29.343  23.508  0.2358 -0.2371 -0.0311
53863W        W96780   0.554  29.046  22.177 -0.1128  0.0313  0.1187
53864W        W96781  32.721  30.778  24.211  0.1674 -0.1931 -0.0982
53865W        W96782  33.790  31.606  24.354  0.2747 -0.1507 -0.0544
53866W        W96783  33.541  28.081  24.217 -0.2118  0.2945 -0.0109
53867W        W96784  31.958  32.067  21.965  0.0613 -0.2108  0.0701
53868W        W96785   1.414  30.595  22.436 -0.1004 -0.1717 -0.2640
53869W        W96786   1.194  32.393  23.607 -0.0194  0.0720 -0.0370
53870W        W96787  33.753  31.623  20.728  0.0768  0.0833 -0.0190
53871W        W96788  31.686  32.115  23.401 -0.2241 -0.0048 -0.1603
53872W        W96789  32.940  29.786  25.146  0.0358 -0.1691  0.1346
53873W        W96790  33.893  29.573  22.025 -0.2268 -0.2494 -0.1772
53874W        W96791  33.786  30.107  22.107 -0.3400  0.1561  0.0411
53875W        W96792  34.317  31.975  22.285 -0.2318  0.0219  0.1145
53876W        W96793  33.209  30.100  21.433 -0.0256 -0.3380 -0.1972
53877W        W96794  33.272  32.774  23.967 -0.2194  0.0789  0.2348
53878W        W96795  33.191  31.196  21.958  0.2090  0.2052  0.1587
53879W        W96796  33.234  29.931  23.580  0.2001 -0.0313 -0.0329
53880W        W96797  32.705  32.747  19.833 -0.1151 -0.1253  0.0856
53881W        W96798  33.104  27.022  21.744 -0.1820  0.1920 -0.1189
53882W        W96799  32.514  31.887  22.800  0.0696  0.0371 -0.0874
53883W        W96800  33.616  33.568  19.254  0.2488 -0.0159  0.4076
53884W        W96801  32.587  31.144  23.233 -0.1086 -0.0637  0.2238
53885W        W96802   2.166  29.952  21.767  0.0641  0.2805 -0.0281
53886W        W96803  34.635  29.407  23.070  0.0344 -0.0549  0.1368
53887W        W96804  33.062  28.599  24.662 -0.1306 -0.1691  0.0265
53888W        W96805  32.658  30.601  23.672  0.0443  0.1981 -0.0778
53889W        W96806   0.211  28.993  21.197  0.2865 -0.1524  0.0676
53890W        W96807   0.111  29.797  25.758  0.2194  0.2765  0.1574
53891W        W96808  33.956  32.855  20.110  0.1793  0.2485 -0.0716
53892W        W96809  32.608  30.339  22.539  0.1756  0.0942  0.1409
53893W        W96810   0.180  30.633  21.872  0.2302  0.0624  0.2332
53894W        W96811  34.389  29.125  25.167 -0.1748 -0.0785  0.0362
53895W        W96812  32.967  29.541  22.880  0.2003  0.1771 -0.1274
53896W        W96813  34.641  29.446  25.432 -0.0634 -0.1054 -0.1441
53897W        W96814  32.120  29.125  25.675  0.0658 -0.0546 -0.1314
53898W        W96815  33.348  29.719  23.172 -0.1620  0.2264  0.2355
53899W        W96816   0.320  29.573  20.421  0.0304  0.1566  0.3213
53900W        W96817   0.583  32.563  20.057 -0.2285  0.0243  0.0497
53901W        W96818  31.931  29.035  22.963  0.3452  0.0019  0.0390
53902W        W96819  34.331  31.031  23.914 -0.2948 -0.1385 -0.0380
53903W        W96820   0.504  29.135  20.689 -0.2416 -0.0421 -0.0627
53904W        W96821  34.471  32.831  20.259  0.1776 -0.0397  0.2078
53905W        W96822  33.991  30.660  22.454 -0.0518 -0.3619  0.2992
53906W        W96823  34.202  30.016  20.756 -0.1646 -0.5149  0.1603
53907W        W96824  33.841  32.794  22.141 -0.2297 -0.3859 -0.1706
53908W        W96825  34.499   2.180  22.803  0.0276 -0.1358  0.1500
53909W        W96826  32.022  33.429  22.463 -0.3141 -0.3496  0.2506
53910W        W96827   0.646  31.835  19.055  0.0970 -0.2144  0.1260
53911W        W96828  34.240  30.960  21.697 -0.1193 -0.0954  0.0631
53912W        W96829  33.430  29.802  22.236 -0.0455 -0.0529  0.1907
53913W        W96830  34.066  33.205  22.370 -0.2160 -0.1033 -0.0703
53914W        W96831  34.057  29.014  24.813  0.4810 -0.1727 -0.1263
53915W        W96832  32.631  28.532  22.734 -0.0721 -0.2493 -0.0695
53916W        W96833  33.787  31.946  23.785  0.1270 -0.0785 -0.1579
53917W        W96834  33.368  29.987  25.146 -0.2082 -0.1277  0.1315
53918W        W96835  33.019  32.768  21.403 -0.0048 -0.0724 -0.1062
53919W        W96836   0.074  29.963  20.756  0.0382  0.0167 -0.1722
53920W        W96837  34.053  32.410  22.556 -0.2195  0.1541 -0.0066
53921W        W96838  32.088  32.619  19.060 -0.1425 -0.0503  0.0519
53922W        W96839  33.594  32.323  20.262 -0.1064  0.1872 -0.0293
53923W        W96840  34.025  29.620  24.015 -0.2198  0.1637  0.2916
53924W        W96841   0.036  31.091  21.767  0.2161  0.1389 -0.2030
53925W        W96842   0.652  29.327  24.857  0.0083  0.1046 -0.1602
53926W        W96843  33.991   0.412  22.665  0.0739  0.0801 -0.0939
53927W        W96844  32.113  30.440  24.325 -0.1334 -0.0108  0.1622
53928W        W96845   0.113  28.549  23.768  0.2696  0.0436  0.0468
53929W        W96846   1.106  31.168  19.228 -0.0910 -0.2059 -0.0826
53930W        W96847   0.913  31.793  21.285  0.2017  0.1683  0.4405
53931W        W96848  34.136  31.751  21.590 -0.1213 -0.3165  0.0205
53932W        W96849  34.259  32.968  24.227 -0.0994  0.2038  0.0018
53933W        W96850  32.126  26.516  20.710  0.0102  0.1452 -0.2681
53934W        W96851   0.547  28.387  22.661 -0.1500 -0.1516  0.1429
53935W        W96852  32.870  29.476  21.485  0.2380  0.0664  0.3154
53936W        W96853  33.618  28.864  25.047  0.1949  0.0602  0.2003
53937W        W96854  33.984  32.684  19.218  0.2958 -0.0373 -0.2457
53938W        W96855  33.019  30.858  21.289  0.0483  0.0529  0.1583
53939W        W96856  33.452  30.733  22.208 -0.0646 -0.0339  0.0130
53940W        W96857  34.614  30.096  22.193  0.0510  0.0913  0.1167
53941W        W96858  33.182  29.954  22.663  0.0863 -0.2189 -0.0678
53942W        W96859   0.205  33.874  20.395 -0.1534  0.0240  0.0974
53943W        W96860  33.888  30.126  25.235  0.0389  0.0420  0.1086
53944W        W96861  32.816  28.984  22.948  0.0716 -0.0978  0.2647
53945W        W96862  31.915  29.711  23.717  0.0047  0.0629 -0.3307
53946W        W96863  32.598  33.527  20.484  0.0995 -0.1458 -0.1206
53947W        W96864   0.355  30.846  19.210 -0.2640  0.1042 -0.1961
53948W        W96865  33.463  31.007  23.629  0.0695 -0.0340 -0.0226
53949W        W96866  34.123  30.493  23.011  0.0009 -0.2767 -0.0225
53950W        W96867  33.215  30.171  19.802 -0.0670  0.1753 -0.1994
53951W        W96868   1.985  30.415  22.198 -0.0226 -0.1228  0.0003
53952W        W96869  34.433  32.770  22.443  0.1092  0.0645 -0.0233
53953W        W96870   0.929  32.368  22.540  0.2606 -0.3698  0.1362
53954W        W96871   0.815  29.256  23.390 -0.1314  0.1374 -0.2935
53955W        W96872  33.126  30.862  22.955 -0.1652 -0.3197 -0.2409
53956W        W96873  34.499  31.234  21.360  0.0480 -0.2604  0.2080
53957W        W96874  32.904  30.397  21.026  0.4080  0.2370 -0.0255
53958W        W96875   1.009  30.257  19.516  0.0995  0.1331  0.0299
53959W        W96876   1.047  30.219  23.204 -0.3223 -0.1315 -0.0405
53960W        W96877  34.624  26.827  24.869  0.2564  0.2589  0.0331
53961W        W96878  31.519  31.975  25.674  0.0501 -0.0243  0.0891
53962W        W96879  34.292  31.430  21.897  0.3731  0.1313 -0.0322
53963W        W96880  33.556  30.984  22.659  0.0025  0.2561  0.2631
53964W        W96881  32.503  28.084  23.038  0.2124 -0.0380  0.1474
53965W        W96882   0.046  28.796  21.794  0.1288  0.0192 -0.0797
53966W        W96883  32.703  30.868  22.643  0.2652  0.1153  0.0934
53967W        W96884   0.728  32.359  19.314 -0.1295 -0.2206  0.2320
53968W        W96885   1.610  30.966  23.261  0.0212  0.1613  0.0759
53969W        W96886   1.770  30.803  23.721 -0.0229 -0.0894  0.1261
53970W        W96887  32.751  31.514  21.763  0.2523  0.3095  0.4038
53971W        W96888   0.156  29.944  22.936 -0.0916 -0.0651 -0.0347
53972W        W96889  33.268  31.358  22.822  0.1696 -0.0674 -0.2599
53973W        W96890   0.760  32.446  23.746  0.0086 -0.1491 -0.3408
53974W        W96891   0.025  29.098  22.185 -0.1387 -0.1640 -0.0451
53975W        W96892   0.111  31.068  22.286 -0.2185 -0.3661  0.0787
53976W        W96893   0.161  29.740  23.495  0.0616 -0.1626 -0.0862
53977W        W96894  34.205  31.054  22.228 -0.2925  0.0628 -0.1011
53978W        W96895  33.025  27.543  20.981  0.2543  0.1604  0.2452
53979W        W96896  33.583  31.733  22.393  0.2803  0.1445  0.0082
53980W        W96897   1.092  30.459  20.632  0.0036 -0.0563 -0.2723
53981W        W96898   2.259  30.642  23.953 -0.1667  0.1366  0.0466
53982W        W96899   1.446  31.377  21.967  0.0412  0.1773 -0.0047
53983W        W96900  34.274  32.507  24.514  0.0267  0.0773  0.0673
53984W        W96901  33.334  32.295  23.193 -0.1501  0.2755  0.1212
53985W        W96902  34.166  31.716  21.052  0.0300  0.2518 -0.0571
53986W        W96903  32.723  29.969  22.989  0.0734 -0.0241  0.0766
53987W        W96904  34.243  28.155  22.860 -0.4027 -0.0028 -0.0399
53988W        W96905   1.016  33.706  24.716  0.0648  0.3108 -0.0077
53989W        W96906  33.935  30.936  27.327 -0.1330  0.0143  0.1381
53990W        W96907  31.673  30.355  25.304  0.0905 -0.0814 -0.1602
53991W        W96908  33.948  28.940  26.440  0.2326  0.4645  0.3696
53992W        W96909  34.100  30.285  26.365 -0.1885 -0.0014  0.3443
53993W        W96910   0.984  29.290  27.184  0.1489  0.1557 -0.0343
53994W        W96911  34.326  31.856  27.077  0.4034 -0.0705  0.2574
53995W        W96912   0.951  26.543  25.305 -0.0858  0.1327  0.0018
53996W        W96913  32.271  28.000  27.728 -0.1172  0.1421  0.0763
53997W        W96914  34.552  29.331  24.307 -0.1783 -0.0978 -0.2235
53998W        W96915   0.085  32.253  28.309  0.1334 -0.2151 -0.2648
53999W        W96916  34.234  29.677  25.188  0.0986 -0.0656  0.1731
54000W        W96917  34.093  29.696  27.967 -0.0921  0.0778  0.0715
54001W        W96918   0.333  32.048  25.646  0.0524  0.2055  0.0234
54002W        W96919   0.314  32.219  23.397 -0.3375  0.1506 -0.2026
54003W        W96920   0.428  33.153  25.072  0.0241 -0.3063  0.2013
54004W        W96921  34.361  32.515  27.803 -0.3937  0.1050  0.0053
54005W        W96922  34.241  32.924  26.222  0.2007  0.1883 -0.1358
54006W        W96923   0.386  30.236  26.162 -0.0289 -0.0353  0.1936
54007W        W96924  32.443  31.965  24.384  0.1259 -0.1827 -0.0072
54008W        W96925  33.124  32.082  26.621  0.0209 -0.0540  0.1871
54009W        W96926  33.459  31.704  25.970  0.3397 -0.0365  0.0198
54010W        W96927  33.250  32.586  26.410 -0.1122  0.0107 -0.2055
54011W        W96928  32.942  31.245  24.409 -0.0485 -0.0810  0.0714
54012W        W96929   0.338  31.929  25.055 -0.0209  0.0946  0.0511
54013W        W96930   1.464  31.455  24.539 -0.4908 -0.0434  0.2043
54014W        W96931   0.614  30.962  27.512 -0.1425 -0.0515  0.1419
54015W        W96932  33.322  33.058  27.366  0.1478  0.1988 -0.2089
54016W        W96933  33.904  33.498  25.032 -0.0652 -0.1173 -0.1551
54017W        W96934  33.530  30.512  24.012  0.0301  0.1494 -0.2020
54018W        W96935   0.244  28.575  23.273  0.0927 -0.0106 -0.1853
54019W        W96936   1.764  28.180  26.831  0.0770  0.0840  0.1260
54020W        W96937   0.067  33.534  25.047 -0.1395  0.1264  0.1971
54021W        W96938  34.588  31.128  26.607 -0.0034  0.0846  0.1177
54022W        W96939  34.526  33.288  24.627 -0.1140 -0.0047  0.1427
54023W        W96940  33.953  31.075  25.772 -0.1862 -0.0084  0.0695
54024W        W96941  32.393  30.916  26.020 -0.3047 -0.0802 -0.0479
54025W        W96942  32.377  31.639  26.998 -0.2670 -0.1941  0.2316
54026W        W96943  34.089  30.871  28.197 -0.1479 -0.0800  0.4898
54027W        W96944  34.067  28.672  22.953  0.0413 -0.1182 -0.2347
54028W        W96945  32.422  31.973  27.429 -0.2360  0.0625  0.1832
54029W        W96946   0.240  31.666  24.626  0.1684 -0.0575  0.0474
54030W        W96947   0.085  30.346  23.630  0.0605 -0.0138 -0.0889
54031W        W96948  32.568  30.891  25.129 -0.2547  0.1519  0.3992
54032W        W96949  32.013  34.110  25.032  0.1693  0.0003  0.0956
54033W        W96950   0.086  30.556  26.807  0.1222  0.0058  0.0588
54034W        W96951   0.451  31.454  27.672  0.4006 -0.0241 -0.3801
54035W        W96952  32.933  31.299  24.946 -0.3480  0.2830 -0.0513
54036W        W96953  31.897  33.790  25.445 -0.0924  0.0097 -0.0490
54037W        W96954  34.371  29.859  24.268 -0.2789 -0.1732  0.2711
54038W        W96955  34.028  29.360  26.105  0.1778  0.2672 -0.3572
54039W        W96956  34.412  33.381  28.033  0.0700 -0.2065  0.4130
54040W        W96957  31.939  31.720  29.131 -0.1300  0.2837 -0.0542
54041W        W96958  32.131  29.934  25.559 -0.0196  0.0390  0.0546
54042W        W96959  32.196  30.577  26.933 -0.4071  0.0019 -0.4495
54043W        W96960  32.929  28.407  26.305 -0.0164 -0.1779  0.3069
54044W        W96961   0.746  30.010  26.740 -0.0444 -0.1379  0.2517
54045W        W96962  33.458  29.838  26.053  0.2127 -0.1919  0.1331
54046W        W96963   0.252  30.261  25.446 -0.0015 -0.0619 -0.2501
54047W        W96964  33.801  31.520  23.517 -0.0177  0.1508 -0.2284
54048W        W96965  34.427  30.096  23.208 -0.1217  0.0310  0.1836
54049W        W96966  34.552  31.021  26.124 -0.0100  0.3116  0.2523
54050W        W96967   1.169  28.801  26.371 -0.1422  0.1512  0.1617
54051W        W96968  31.274  34.334  27.144 -0.2099  0.0414 -0.1043
54052W        W96969  33.536  32.113  25.019 -0.0831 -0.2143  0.0042
54053W        W96970   0.638  27.922  25.571  0.3454 -0.1654  0.1325
54054W        W96971   0.788  30.191  27.598 -0.0433 -0.0744  0.2075
54055W        W96972   1.149  26.930  24.971  0.1522 -0.3266 -0.1195
54056W        W96973  33.673  32.333  26.508  0.0349 -0.1558 -0.1530
54057W        W96974  32.918  31.516  25.805  0.0861  0.0450 -0.0137
54058W        W96975   0.007  32.910  25.295 -0.4204 -0.3232  0.2165
54059W        W96976  32.430  31.333  27.390  0.1178  0.1459 -0.1976
54060W        W96977  33.572  30.396  23.537  0.1099  0.0822  0.0523
54061W        W96978  34.306  31.025  25.369  0.1909  0.0070  0.1134
54062W        W96979  33.608  31.296  26.775 -0.0606 -0.3298  0.2939
54063W        W96980  34.369  30.671  23.384 -0.1927 -0.1207 -0.0959
54064W        W96981   0.834  30.809  24.561  0.0538  0.0685 -0.0607
54065W        W96982  33.617  30.270  25.587 -0.0897  0.1537 -0.0305
54066W        W96983  33.009  30.283  25.390 -0.4373  0.0374  0.2899
54067W        W96984   0.550  30.357  23.828 -0.1456 -0.0961  0.0345
54068W        W96985  33.581  33.062  23.217 -0.0627  0.1132  0.3372
54069W        W96986  33.215  28.434  26.784  0.2360  0.3652  0.0331
54070W        W96987  31.824  32.148  24.378 -0.1922  0.2775 -0.0614
54071W        W96988   0.987  30.862  26.748 -0.1087 -0.0024 -0.3658
54072W        W96989   1.188  32.301  26.984  0.0305 -0.1647  0.1588
54073W        W96990  34.417  31.824  24.948 -0.1015  0.2347  0.0626
54074W        W96991   0.255  29.856  27.512  0.0120  0.0830  0.0287
54075W        W96992  33.379  32.770  25.014 -0.1488 -0.0128  0.2541
54076W        W96993  32.640  31.762  22.281  0.1361  0.2391 -0.0411
54077W        W96994  33.429  29.266  26.812  0.0975  0.1807  0.1026
54078W        W96995   0.814  31.778  25.061 -0.1370 -0.2158 -0.1498
54079W        W96996   0.925  31.015  23.325 -0.3322 -0.1314  0.1180
54080W        W96997  34.225  30.437  24.026  0.0604 -0.1031  0.1352
54081W        W96998  33.379  33.390  25.826 -0.3614  0.0744 -0.3900
54082W        W96999  34.486  28.643  25.086  0.0163  0.1725 -0.4592
54083W        W97000  32.521  30.945  26.867 -0.1551  0.0390 -0.1352
54084W        W97001  33.661  30.802  26.566  0.0606  0.0023  0.2456
54085W        W97002   0.580  31.669  26.134  0.2783  0.0661  0.1225
54086W        W97003  34.090   0.088  26.692  0.1281 -0.0701 -0.3839
54087W        W97004   0.854  30.035  26.081  0.1784  0.5076 -0.2460
54088W        W97005  32.420  31.614  25.568 -0.4767 -0.0491  0.4392
54089W        W97006   1.511  29.513  25.406 -0.2151  0.0311 -0.0999
54090W        W97007  32.555  32.471  25.131 -0.1217  0.2491  0.0683
54091W        W97008  33.914  30.738  23.788 -0.0542  0.0353  0.0704
54092W        W97009  32.346  31.485  24.469 -0.1377  0.1215 -0.1058
54093W        W97010   0.087  31.628  27.416 -0.0346 -0.0032 -0.0208
54094W        W97011  33.471  30.554  25.131 -0.2053 -0.0051  0.2259
54095W        W97012  31.979  31.793  25.774  0.0143 -0.3054 -0.1915
54096W        W97013  33.857  30.621  25.953  0.1506  0.2106  0.1225
54097W        W97014   1.613  29.581  27.994  0.2779  0.0392 -0.1326
54098W        W97015  33.948  31.639  27.436  0.1339  0.2875  0.3121
54099W        W97016   0.076  33.020  24.051  0.1822 -0.0270  0.0676
54100W        W97017  34.284  30.567  26.765 -0.1217  0.0639  0.1916
54101W        W97018   0.689  33.724  24.364  0.1651  0.1941 -0.0351
54102W        W97019  33.711  28.684  26.787 -0.0148 -0.0901  0.0924
54103W        W97020  33.838  33.287  27.409 -0.2271 -0.0326  0.0496
54104W        W97021  34.416  30.824  22.721 -0.1920  0.0107 -0.3087
54105W        W97022  33.129  32.928  26.835  0.3956  0.2520 -0.1020
54106W        W97023  34.378  30.326  25.855  0.2695  0.0560  0.1446
54107W        W97024  33.485  29.263  26.321  0.0828 -0.3798  0.0391
54108W        W97025  34.515  29.231  26.066  0.3446  0.0763 -0.1691
54109W        W97026  33.206  29.690  27.016  0.1609  0.0646  0.0332
54110W        W97027   0.162  28.102  23.413  0.2150  0.1231 -0.2623
54111W        W97028  33.422  30.850  27.036 -0.1074 -0.0302 -0.2756
54112W        W97029  33.861  30.985  25.155 -0.3819 -0.2858 -0.1421
54113W        W97030  34.264  31.336  24.909  0.2199  0.1167 -0.2229
54114W        W97031  33.495  32.365  24.154  0.0627 -0.2725 -0.0895
54115W        W97032  33.539  32.935  25.646 -0.0263  0.1742 -0.1843
54116W        W97033  32.925  29.692  25.972 -0.0345 -0.3200  0.1752
54117W        W97034  34.059  32.117  27.482  0.2975  0.1212  0.0482
54118W        W97035  31.927  30.579  27.733 -0.0803  0.2478 -0.1494
54119W        W97036  32.882  31.080  26.146  0.0618  0.3775 -0.1071
54120W        W97037   2.036  29.799  25.600 -0.1110  0.1839  0.0897
54121W        W97038   2.884  30.249  23.922  0.0322 -0.1239  0.1130
54122W        W97039  32.694  28.475  29.342 -0.0283 -0.3053 -0.3615
54123W        W97040   0.828  31.544  27.350  0.0549 -0.4174  0.0342
54124W        W97041  33.223  29.886  24.615  0.0955  0.1914 -0.0659
54125W        W97042  34.569  31.671  24.060  0.1564 -0.0881 -0.2242
54126W        W97043  34.601  32.801  24.795  0.2002 -0.0508  0.3370
54127W        W97044   0.635  28.442  24.041  0.3652  0.1234  0.0095
54128W        W97045  33.764  32.640  24.635  0.2123  0.0789 -0.0042
54129W        W97046   0.130  32.907  27.523 -0.1895 -0.2211 -0.1488
54130W        W97047  33.279  32.163  27.297  0.3879  0.5845 -0.3416
54131W        W97048  34.237  33.383  26.433  0.1837 -0.1159  0.0884
54132W        W97049   0.816  30.555  27.171  0.1591 -0.0475 -0.1139
54133W        W97050  33.359  32.467  26.868  0.1737 -0.1451 -0.2176
54134W        W97051  34.660  32.402  25.817  0.2334  0.0625  0.0383
54135W        W97052  32.072  28.794  30.357  0.1856 -0.1768  0.1475
54136W        W97053   1.616  27.718  24.423  0.1029 -0.0117 -0.2927
54137W        W97054  33.042  33.211  28.413 -0.0534 -0.1399  0.1982
54138W        W97055   0.374  31.842  27.074 -0.0392  0.0747  0.0008
54139W        W97056  34.639   0.422  22.818 -0.1489  0.1659 -0.0836
54140W        W97057   0.664  28.335  23.496  0.2239  0.2492  0.0079
54141W        W97058  32.056  34.285  24.559  0.2548  0.0537  0.2953
54142W        W97059  34.085  32.162  26.685 -0.0421  0.2720  0.2557
54143W        W97060  34.180  33.995  24.261  0.0537  0.1247 -0.1178
54144W        W97061   0.485  30.975  24.844 -0.0578  0.0935 -0.2444
54145W        W97062   1.935  30.573  27.241 -0.1194  0.0195  0.0740
54146W        W97063   0.848  30.737  28.070 -0.0120 -0.1648 -0.1705
54147W        W97064  32.895  32.673  25.376 -0.2741  0.0487 -0.0275
54148W        W97065   0.178  29.116  25.059  0.0714 -0.1125  0.1108
54149W        W97066  33.363  31.858  24.123  0.0193 -0.0721  0.2951
54150W        W97067  33.771  30.667  24.772 -0.0790 -0.0380  0.1019
54151W        W97068  33.201  32.473  24.623  0.2966 -0.0693  0.0129
54152W        W97069   2.314  32.918  26.265  0.0193  0.0935 -0.1974
54153W        W97070  34.349  34.638  23.648 -0.1425 -0.1204 -0.0251
54154W        W97071  31.657  29.240  25.059  0.0520 -0.1805  0.1331
54155W        W97072  33.920  31.715  25.784 -0.0085 -0.1345  0.1511
54156W        W97073  33.721  31.455  25.276 -0.1075  0.2743 -0.0511
54157W        W97074  32.971  31.250  27.597 -0.0034 -0.0523 -0.1253
54158W        W97075   0.347  28.663  24.792 -0.1170 -0.0876  0.4736
54159W        W97076  33.240  28.531  25.988  0.0881  0.2664 -0.1090
54160W        W97077  34.143  31.291  24.366 -0.2089 -0.1024 -0.0761
54161W        W97078   1.089  30.748  27.589  0.3313  0.2012 -0.3062
54162W        W97079   0.932  27.931  26.600 -0.0180  0.1371 -0.0919
54163W        W97080   0.145  30.608  23.163 -0.0982  0.0144 -0.0972
54164W        W97081  33.847  30.552  26.947 -0.0935 -0.3729  0.1701
54165W        W97082   1.239  29.561  25.799  0.3115  0.1375 -0.1959
54166W        W97083  33.612  30.507  27.421  0.1133 -0.2376  0.0761
54167W        W97084  32.408  34.128  26.339  0.0690 -0.1731  0.1295
54168W        W97085  34.518  31.435  23.593 -0.2587  0.2043  0.0244
54169W        W97086   0.403  31.347  27.171 -0.0512  0.1877  0.1067
54170W        W97087  34.260  32.092  25.860  0.0775  0.0969  0.2066
54171W        W97088  33.178  30.818  23.974 -0.2246 -0.0345  0.0938
54172W        W97089  32.509  30.553  26.508  0.4509 -0.2602  0.2154
54173W        W97090  33.709  31.147  24.580 -0.3872 -0.1620 -0.2821
54174W        W97091   0.078  33.113  26.458 -0.0906  0.1288  0.2219
54175W        W97092  34.021  30.298  24.494  0.1139 -0.0624 -0.4823
54176W        W97093  33.840  28.453  25.845 -0.0729 -0.0609  0.0216
54177W        W97094   0.379  30.971  28.444  0.1115  0.0738 -0.1420
54178W        W97095  32.450  31.513  25.093  0.1087  0.2056  0.2251
54179W        W97096  33.974  31.574  22.979 -0.0989 -0.2543  0.0597
54180W        W97097  33.870  31.283  26.351  0.1039  0.3607 -0.2531
54181W        W97098   0.972  27.185  29.296  0.3594 -0.1410 -0.0974
54182W        W97099  33.425  30.979  27.539 -0.5097 -0.2089 -0.1278
54183W        W97100  34.198  33.035  27.718 -0.3727  0.3701  0.3668
54184W        W97101  33.935  30.072  25.957 -0.0865 -0.0694 -0.0510
54185W        W97102   0.712  29.071  25.638  0.0699 -0.1488  0.2475
54186W        W97103   1.237  30.370  26.888  0.2372  0.0283 -0.2314
54187W        W97104   1.069  28.268  24.729 -0.3656 -0.1662  0.2711
54188W        W97105  32.247  30.680  24.834 -0.1340 -0.0595  0.0869
54189W        W97106   1.645  30.220  26.456 -0.0590  0.0108  0.2050
54190W        W97107   0.102  29.863  29.493 -0.0845  0.0543  0.0339
54191W        W97108  34.444  28.504  23.336  0.0068 -0.0993  0.1511
54192W        W97109   0.108  31.063  27.593 -0.0914 -0.0102  0.1842
54193W        W97110  34.099  31.088  26.762 -0.2711 -0.1833 -0.1783
54194W        W97111   0.969  31.241  27.756 -0.1356 -0.3805  0.3511
54195W        W97112  32.741  29.560  27.360  0.2274 -0.0171  0.3518
54196W        W97113   1.162  30.327  27.880 -0.2954  0.0424  0.2920
54197W        W97114  32.640  29.088  27.432  0.1323 -0.0096 -0.0594
54198W        W97115  33.902  31.733  27.929  0.2134 -0.2070 -0.0469
54199W        W97116   0.711  29.671  25.758  0.0367  0.1226  0.1562
54200W        W97117  31.351  30.734  26.338  0.3216  0.0752  0.0486
54201W        W97118   2.916  28.992  24.622 -0.2747 -0.1610 -0.1692
54202W        W97119   1.971  29.088  27.165 -0.1886  0.1719 -0.1843
54203W        W97120  34.051  30.298  23.549 -0.0424  0.2390  0.3226
54204W        W97121  34.623  31.318  25.673  0.0839 -0.1386 -0.3374
54205W        W97122   0.053  29.771  27.059  0.0096 -0.1244  0.0665
54206W        W97123  34.421  30.010  23.804  0.1462  0.0706  0.1802
54207W        W97124   0.222  32.434  23.826 -0.0567 -0.1121  0.1143
54208W        W97125   0.303  31.064  25.468 -0.2970  0.2780  0.1023
54209W        W97126   0.411  32.549  25.911  0.0819 -0.2379 -0.1876
54210W        W97127  32.787  32.599  29.553  0.0586  0.0262  0.0663
54211W        W97128   0.155  31.921  30.194  0.0305 -0.0542 -0.1790
54212W        W97129   0.120  30.311  30.401  0.2122  0.4364  0.2239
54213W        W97130   0.514  27.844  31.443 -0.1720  0.1152  0.1694
54214W        W97131  33.374  30.628  29.437  0.0661 -0.0248  0.2468
54215W        W97132  34.344  31.169  29.222  0.1264 -0.0279  0.0930
54216W        W97133   0.676  29.801  27.214 -0.2621  0.4527 -0.3266
54217W        W97134   0.166  30.083  28.458  0.0665  0.0809 -0.0087
54218W        W97135   1.740  31.037  28.250 -0.0189 -0.1785 -0.0424
54219W        W97136  33.334  32.395  30.672  0.0004  0.1869 -0.0283
54220W        W97137   0.492  31.802  30.508 -0.1329 -0.1804  0.0118
54221W        W97138   0.261  30.370  31.675 -0.1685  0.0979 -0.2244
54222W        W97139   0.920  31.828  27.829 -0.3573 -0.0670 -0.1868
54223W        W97140  31.056  30.255  26.438  0.0061  0.1364  0.1569
54224W        W97141  33.823  30.388  30.251  0.1208 -0.1500  0.3894
54225W        W97142   1.370  31.012  31.729  0.0670 -0.0980  0.0167
54226W        W97143   0.626  32.654  27.648 -0.1114 -0.2916  0.2396
54227W        W97144   0.695  32.622  28.950 -0.1792 -0.1200 -0.1301
54228W        W97145  30.808  29.249  30.533  0.0361 -0.0352 -0.0753
54229W        W97146  32.260  32.475  26.205 -0.1186  0.0022 -0.3295
54230W        W97147   0.376  33.157  26.861  0.0392  0.1953  0.0674
54231W        W97148  33.471  32.548  29.601  0.1091  0.0267  0.2323
54232W        W97149  32.650  31.820  28.118 -0.2231  0.0413 -0.1163
54233W        W97150  32.105  32.736  30.992 -0.0057  0.0645  0.1152
54234W        W97151   0.089  31.392  28.034 -0.0979  0.0611 -0.1258
54235W        W97152   0.492  31.624  29.043 -0.2083 -0.0677  0.1982
54236W        W97153  34.254  32.149  30.634  0.1172 -0.3248 -0.0046
54237W        W97154   0.577  32.109  28.074  0.1055  0.5426  0.0622
54238W        W97155  33.372  33.615  26.289  0.0916  0.1804 -0.1884
54239W        W97156   0.845  29.023  27.669 -0.0179 -0.0750 -0.0311
54240W        W97157   1.579  28.530  29.629 -0.0593  0.1749 -0.0798
54241W        W97158  34.379  32.450  29.601 -0.0259 -0.1523 -0.0056
54242W        W97159  33.277  30.009  30.769  0.0972  0.0295 -0.1467
54243W        W97160   0.726  31.568  29.532 -0.3171 -0.2180 -0.1534
54244W        W97161  34.473  28.690  31.640 -0.2394 -0.0322 -0.1131
54245W        W97162  34.311  30.698  29.297 -0.0755 -0.1500 -0.1011
54246W        W97163  32.499  31.682   1.116 -0.2602  0.2057  0.1773
54247W        W97164  30.585  29.003   0.547  0.0300  0.2054 -0.0055
54248W        W97165  33.847  31.244  27.733  0.1364  0.0403 -0.1991
54249W        W97166  34.611  32.330  30.945  0.1892  0.0343 -0.2645
54250W        W97167  33.678  31.329  30.001  0.1530 -0.0908  0.0353
54251W        W97168  32.762  32.308  26.292 -0.2327 -0.2954 -0.1503
54252W        W97169   0.953  31.587  30.494 -0.0470 -0.0271 -0.2909
54253W        W97170  32.085  30.949  31.067 -0.2480  0.2168  0.0413
54254W        W97171  34.581  33.874  30.862 -0.1767  0.2449  0.0084
54255W        W97172  33.450  32.018  29.639  0.0362 -0.0359 -0.2039
54256W        W97173  33.154  31.516  26.660 -0.1716 -0.0365  0.0056
54257W        W97174  33.883  30.985  29.184  0.0230  0.0762  0.2115
54258W        W97175  31.799  30.812  30.074 -0.2081  0.1144  0.2638
54259W        W97176  32.202  29.697  30.994 -0.0589 -0.1281  0.1402
54260W        W97177  33.094  31.336  30.274  0.0327 -0.2632  0.2384
54261W        W97178  34.192  31.192  31.751 -0.1321  0.1074 -0.0376
54262W        W97179  33.363  31.284  26.225  0.1323 -0.2569  0.1232
54263W        W97180  31.262  30.094  31.323  0.1418  0.1973  0.1664
54264W        W97181  32.568  29.694  27.870 -0.1733 -0.3462  0.1399
54265W        W97182  34.339  30.985  30.627  0.0813  0.1099  0.2675
54266W        W97183  33.549  31.967  28.186  0.1794 -0.0484  0.1664
54267W        W97184  34.562  30.540  27.562  0.1992 -0.0166 -0.0419
54268W        W97185  34.312  30.990  31.225 -0.4566 -0.0671  0.0314
54269W        W97186  33.129  32.036  27.803  0.0419 -0.0384 -0.0896
54270W        W97187  32.610  31.859  30.892 -0.1274  0.0612  0.0645
54271W        W97188  34.040  31.083  29.678  0.1325  0.0660  0.2658
54272W        W97189   0.087  33.812  28.021 -0.0930 -0.2436  0.1105
54273W        W97190  33.894  31.099  30.886 -0.0047  0.0815 -0.0016
54274W        W97191   0.905  30.712  30.062  0.2001 -0.0473 -0.1352
54275W        W97192  33.925  31.791  30.283  0.0896 -0.1101 -0.2133
54276W        W97193  34.146  29.295  31.354 -0.0983 -0.0388 -0.0749
54277W        W97194  34.383  31.761  27.735 -0.0458  0.0348  0.0082
54278W        W97195  32.862  30.472  30.548 -0.0131  0.3317  0.0558
54279W        W97196  33.851  33.414  27.875 -0.0585  0.3020 -0.1984
54280W        W97197  33.038  29.802   1.020 -0.1560  0.0497 -0.2685
54281W        W97198  31.137  29.792  30.892 -0.0233  0.1891  0.3087
54282W        W97199  31.570  32.992  31.683 -0.0722 -0.1289  0.1839
54283W        W97200  31.989  33.665  31.009 -0.0330 -0.2091  0.0756
54284W        W97201   0.327  30.733  28.898 -0.2881 -0.0173  0.0324
54285W        W97202   1.184  31.900  29.540  0.0706  0.1462  0.0164
54286W        W97203  33.706  28.701  31.302 -0.3683  0.2232 -0.0779
54287W        W97204   0.913  27.441  30.654  0.0048  0.1685 -0.0691
54288W        W97205  34.542  30.269  27.167  0.2101 -0.1693  0.1767
54289W        W97206   0.817  31.262  25.941  0.0333  0.1187 -0.0712
54290W        W97207   0.367  30.438  30.927 -0.1967  0.3026 -0.0613
54291W        W97208  33.698  29.576  27.105  0.1169  0.0797 -0.3474
54292W        W97209   0.285  29.367  30.808 -0.2336 -0.1426 -0.1236
54293W        W97210  32.775  30.086  29.059  0.1692 -0.1260  0.1801
54294W        W97211  33.847  32.276  29.859 -0.3009 -0.0034  0.2647
54295W        W97212   0.069  28.988  30.120  0.1126 -0.4013  0.0647
54296W        W97213   0.123  32.199  26.698 -0.3174 -0.0377  0.3297
54297W        W97214  34.329  31.491  26.200 -0.0624  0.0823  0.1564
54298W        W97215  34.162  30.582  29.793 -0.1781 -0.2519  0.1920
54299W        W97216   0.677  30.736  30.584 -0.0582 -0.0370 -0.0262
54300W        W97217   0.070  33.220  28.373 -0.0145 -0.1688 -0.0284
54301W        W97218  33.041  32.275  28.363  0.2066 -0.1341  0.0435
54302W        W97219   1.188  30.818  30.507  0.0652  0.0473  0.0222
54303W        W97220  33.081  30.603  28.460 -0.0726  0.0769  0.0313
54304W        W97221  34.217  32.743  29.035  0.0236 -0.0591 -0.0416
54305W        W97222  33.843  30.205  31.484 -0.1103  0.1917  0.1308
54306W        W97223   1.297  30.039  31.674 -0.0738  0.0619  0.1686
54307W        W97224  33.581  31.507  31.010 -0.0070 -0.1868 -0.1411
54308W        W97225   1.941  32.857  30.466 -0.2156  0.1582  0.0606
54309W        W97226  32.497  31.423  29.065 -0.2371 -0.3784  0.0044
54310W        W97227   0.320  27.447  29.882  0.1725  0.0208 -0.0859
54311W        W97228  34.335  33.561  29.493  0.0116  0.0455 -0.4472
54312W        W97229   0.642  31.241  28.793  0.0593 -0.0124 -0.1727
54313W        W97230  33.624  32.100  27.686 -0.0802 -0.1258 -0.0845
54314W        W97231  34.557  32.349  30.184 -0.0176 -0.0035 -0.2954
54315W        W97232  34.591  29.590  31.277 -0.0599  0.1439 -0.1397
54316W        W97233   1.685  30.647  30.214  0.2952 -0.2175  0.1565
54317W        W97234   0.687  30.489  31.888  0.1298 -0.2343 -0.0995
54318W        W97235   0.564  32.731   0.107 -0.0105  0.0599 -0.1081
54319W        W97236  33.187  33.280  29.578 -0.1056 -0.0176 -0.0840
54320W        W97237  33.691  31.808  26.972 -0.0275 -0.1039  0.1175
54321W        W97238  33.969  29.410  30.429 -0.1683 -0.2897  0.0117
54322W        W97239  32.333  30.890  28.742 -0.0609  0.3329  0.2595
54323W        W97240  33.601  30.595   0.133 -0.0959 -0.0944 -0.1153
54324W        W97241  32.859  29.972  30.461  0.1664 -0.2103 -0.0817
54325W        W97242  33.983  34.310  28.187  0.1331 -0.1759 -0.2984
54326W        W97243  32.393  29.763  30.530  0.0772  0.1867 -0.0086
54327W        W97244  34.180  29.353  28.815  0.1526  0.1906  0.0680
54328W        W97245  34.560  29.982  31.652  0.1425 -0.2609  0.1868
54329W        W97246  34.018  30.477  30.674  0.1242 -0.3362  0.2226
54330W        W97247  33.962  31.856   0.217 -0.2304 -0.1799  0.2161
54331W        W97248   0.526  30.386  28.332  0.0259  0.0564 -0.0647
54332W        W97249   2.785  31.713  30.511  0.0203 -0.1173  0.1375
54333W        W97250   0.718  32.643  28.187 -0.1037 -0.0685 -0.0399
54334W        W97251  31.785  29.994  31.677  0.1640  0.2557  0.2686
54335W        W97252   0.104  31.923  29.683  0.0266  0.0474 -0.0711
54336W        W97253  33.724  29.762  31.306  0.1785  0.1982 -0.1474
54337W        W97254   1.135  29.520  31.064 -0.2741  0.0297  0.2508
54338W        W97255   1.197  32.554  31.307  0.0943 -0.2063 -0.3322
54339W        W97256  32.825  29.848  30.950  0.0988 -0.2114 -0.0666
54340W        W97257  33.442  30.305  31.241 -0.0297  0.0307 -0.2695
54341W        W97258   0.854  27.689  27.256  0.0375 -0.0281  0.1943
54342W        W97259   1.203  32.846  29.654 -0.1609 -0.1764 -0.0349
54343W        W97260  34.488  29.766  30.360 -0.0248  0.2176  0.2881
54344W        W97261  32.618  32.383  31.655 -0.0994  0.0555  0.3420
54345W        W97262  32.290  30.481  29.143 -0.0537  0.1328  0.0993
54346W        W97263   1.194  30.434  26.373 -0.1293 -0.0458 -0.0920
54347W        W97264   0.166  32.897  28.902  0.3642  0.1421 -0.1165
54348W        W97265  34.093  30.385  27.351  0.0188 -0.0980 -0.1481
54349W        W97266  32.874  32.448  29.085 -0.0516  0.0362  0.1271
54350W        W97267  34.634  31.760  29.207 -0.1155 -0.1380  0.1302
54351W        W97268  31.377  30.251  31.794  0.1043  0.3480  0.4916
54352W        W97269  34.442  32.617  28.442  0.0247  0.0714  0.0244
54353W        W97270   1.353  31.899  28.778 -0.2296 -0.0008 -0.0359
54354W        W97271   0.066  31.476  29.961 -0.0069 -0.3017  0.1537
54355W        W97272  33.963  32.596  29.425 -0.1343  0.0862  0.0958
54356W        W97273  32.618  31.761  31.348  0.0538 -0.1355  0.1977
54357W        W97274  34.547  31.101  29.628  0.0979  0.1567  0.0317
54358W        W97275  32.825  32.283   0.142 -0.2602  0.0032 -0.0871
54359W        W97276  32.182  30.484  29.947 -0.0411 -0.0600 -0.0277
54360W        W97277  34.020  32.585  27.450 -0.3056 -0.0688 -0.2595
54361W        W97278   1.495  29.340  30.006 -0.0282  0.0078  0.0046
54362W        W97279  33.474  29.830  29.540 -0.3255 -0.0373 -0.0868
54363W        W97280   0.197  32.464  27.810 -0.3989  0.0016 -0.3368
54364W        W97281  33.259  33.698  30.123 -0.0096 -0.2140 -0.1256
54365W        W97282   0.137  31.388  30.485 -0.1652  0.1917  0.0034
54366W        W97283   1.603  30.625  31.538  0.1542 -0.0251  0.0952
54367W        W97284  34.321  32.064  29.038 -0.1607 -0.0319 -0.1040
54368W        W97285  32.942  31.478  31.095  0.2551 -0.0723 -0.1076
54369W        W97286  34.293  31.246  27.522  0.2024 -0.1979 -0.2942
54370W        W97287   0.892  31.190  28.351 -0.1100  0.1862 -0.2320
54371W        W97288   0.445  31.040  27.951 -0.0436 -0.2661 -0.1706
54372W        W97289   0.970  32.374  27.854 -0.0765 -0.1786  0.0227
54373W        W97290  33.620  33.263  29.938  0.0729 -0.0581 -0.0996
54374W        W97291   0.252  32.716  28.415  0.4437  0.0122  0.2680
54375W        W97292  33.730  28.895  27.688 -0.0652  0.0559 -0.0763
54376W        W97293  32.460  31.939  31.783 -0.0831  0.0900 -0.1888
54377W        W97294  33.636  29.680  30.655 -0.0768 -0.0743  0.1496
54378W        W97295  33.035  30.477  30.991  0.0906 -0.0125  0.0564
54379W        W97296   1.024  31.098  27.252 -0.0009  0.3187 -0.4009
54380W        W97297  32.222  29.151  30.023  0.1959  0.2266  0.4737
54381W        W97298  34.437  31.563  28.817 -0.2502  0.2227  0.0236
54382W        W97299   0.092  32.858  30.898 -0.1626 -0.1072  0.1595
54383W        W97300  33.477  29.959  28.661  0.1516 -0.0796  0.2776
54384W        W97301  32.636  31.767  26.583  0.1498  0.1936  0.0102
54385W        W97302  32.210  30.449  31.293  0.1171 -0.0206  0.0368
54386W        W97303   2.195  29.236  29.755 -0.1154 -0.0301 -0.4094
54387W        W97304  31.593  29.560  30.087 -0.2346  0.2092 -0.2363
54388W        W97305  33.740  32.267  27.040  0.3330 -0.3957 -0.1434
54389W        W97306   0.368  33.016  28.005 -0.5043  0.0435  0.0102
54390W        W97307  34.332  32.146  28.543 -0.1874  0.1843 -0.2004
54391W        W97308  32.103  32.521  31.528 -0.1313  0.0142  0.1926
54392W        W97309  34.254  32.345  27.072  0.1244 -0.3384 -0.1230
54393W        W97310   1.438  31.309  29.104 -0.0250  0.0671 -0.1265
54394W        W97311  34.590  32.908  27.983 -0.0049  0.1241  0.0533
54395W        W97312   0.360  32.668  26.672  0.0483  0.0839 -0.2314
54396W        W97313   1.318  29.824  29.995  0.2953 -0.1478 -0.0906
54397W        W97314   1.541  30.074  30.398  0.5371 -0.0701  0.2587
54398W        W97315   0.381  33.122  31.167  0.0067  0.0459 -0.0841
54399W        W97316   0.182  30.517  29.340 -0.0655 -0.3471  0.4025
54400W        W97317  34.300  29.999  28.354 -0.0676 -0.1079  0.0539
54401W        W97318  33.245  31.045  29.943  0.0407 -0.0409 -0.2694
54402W        W97319   1.770  30.071  29.942 -0.0215  0.0362  0.2591
54403W        W97320  34.355  29.730   0.117  0.0978  0.1534  0.0020
54404W        W97321  34.612  31.332   0.122  0.1993 -0.0706  0.1706
54405W        W97322  33.871  29.317  25.133 -0.3550 -0.0506 -0.0915
54406W        W97323   0.455  29.745  29.842 -0.1411 -0.2624  0.1965
54407W        W97324  33.224  30.379  28.927 -0.0743 -0.2066 -0.1072
54408W        W97325  34.378  29.459  28.367 -0.4050  0.2629  0.2837
54409W        W97326  33.230  31.615  27.207  0.3287 -0.1425  0.0918
54410W        W97327   2.040  31.385  31.469 -0.0291 -0.1144  0.0407
54411W        W97328  33.869  32.285   0.340  0.1428 -0.2076 -0.1576
54412W        W97329  34.425  30.809  27.171 -0.0580 -0.2558 -0.3249
54413W        W97330   1.176  30.483  31.788 -0.2345  0.2303  0.1314
54414W        W97331   0.425  31.065  29.833  0.0658 -0.4586  0.0450
54415W        W97332  34.073  33.988  30.411 -0.0463 -0.0124  0.1364
54416W        W97333  32.488  28.435   0.119 -0.0012 -0.0190  0.1954
54417W        W97334  33.510  31.909  28.780  0.1767 -0.0901  0.2836
54418W        W97335  32.361  29.114  31.600  0.0106  0.2367  0.2500
54419W        W97336  33.163  31.941  30.923  0.0047 -0.0299 -0.3084
54420W        W97337  33.906  29.369  26.621 -0.0501  0.2818  0.0333
54421W        W97338  33.638  31.936   0.570 -0.2786 -0.2201 -0.0124
54422W        W97339   0.670  31.110  30.293  0.1627 -0.1183  0.1421
54423W        W97340   0.672  32.640  30.357 -0.0197  0.0210  0.1500
54424W        W97341   1.043  31.664  29.127  0.2548 -0.0177 -0.1030
54425W        W97342   0.450  33.918  29.839  0.2187 -0.0732 -0.0705
54426W        W97343  34.167  27.566  30.698 -0.0483  0.2773  0.2246
54427W        W97344  33.700  30.826  29.892  0.0204  0.2186  0.1202
54428W        W97345  34.645  30.824  28.046  0.3398 -0.0907  0.3677
54429W        W97346  32.249  29.945  29.208 -0.2507 -0.2583  0.0779
54430W        W97347  34.201  33.544  28.845  0.0381 -0.3423  0.0273
54431W        W97348  33.597  30.153   1.115  0.2903  0.0704  0.1052
54432W        W97349  34.358  32.645  30.605 -0.1992 -0.2312 -0.1940
54433W        W97350   0.162  33.647  31.766 -0.2092  0.1335  0.2609
54434W        W97351  33.167   0.370   1.230 -0.0226  0.0298  0.2032
54435W        W97352  33.195  32.770  31.245 -0.1467  0.0287  0.5040
54436W        W97353   0.130  32.586   0.389  0.0505 -0.0368 -0.0620
54437W        W97354  33.847  31.993  31.228 -0.0876 -0.0687  0.2486
54438W        W97355  32.185  33.528  31.506  0.0169  0.1496  0.1643
54439W        W97356   1.038  32.837   0.276 -0.1403 -0.1200  0.1614
54440W        W97357   0.208  30.518   0.420  0.1898  0.3719 -0.1752
54441W        W97358  31.665  28.435   2.254 -0.1238  0.2481 -0.0312
54442W        W97359   0.507  30.832  31.592 -0.1119 -0.2418  0.0770
54443W        W97360  33.243  32.454  31.656 -0.0109 -0.1753 -0.4482
54444W        W97361  34.460  29.658   0.574 -0.0795  0.4731  0.3730
54445W        W97362  33.511  32.627   0.474  0.0498 -0.1191 -0.1437
54446W        W97363   0.100  31.700  31.804  0.1988  0.3082  0.0908
54447W        W97364  32.296  33.863  28.800 -0.1412 -0.0873  0.1126
54448W        W97365  32.388  33.198  31.065 -0.0367  0.1001 -0.1088
54449W        W97366  33.716  28.165   0.831 -0.3574  0.2015  0.4145
54450W        W97367  32.833  31.011  31.051 -0.0836  0.0870 -0.0217
54451W        W97368  32.185  31.729  30.580  0.1591  0.2121  0.0908
54452W        W97369  34.013  32.468  30.908  0.0126 -0.1278  0.1666
54453W        W97370   1.034  32.530  31.785  0.0190 -0.2982  0.2851
54454W        W97371   0.049  32.084  31.497  0.1254  0.5192  0.0905
54455W        W97372  33.987  33.224  29.133 -0.1071 -0.3557 -0.2048
54456W        W97373  34.014  30.634  31.790  0.0132 -0.1253 -0.0122
54457W        W97374   0.274  33.776  30.408  0.0024  0.1158 -0.2960
54458W        W97375  33.938  27.474  31.750  0.3511  0.4685 -0.1370
54459W        W97376  33.863  32.351   1.428 -0.0667 -0.5458 -0.0046
54460W        W97377   0.786  29.155   2.509  0.1472 -0.2521  0.2585
54461W        W97378   1.391  33.017  31.316  0.0914 -0.1009  0.1562
54462W        W97379  33.841  32.057  31.733  0.0807  0.1946 -0.3734
54463W        W97380  34.043  33.216   0.288  0.1076  0.2238 -0.1194
54464W        W97381  34.383  31.664  30.367  0.0682  0.2319  0.2106
54465W        W97382  30.799  32.114  30.574 -0.1678  0.0529 -0.1691
54466W        W97383  31.394  30.936   0.035 -0.2490 -0.2321 -0.2042
54467W        W97384  33.492  32.152  30.168 -0.1113 -0.1701 -0.0246
54468W        W97385  31.702  30.527  31.155  0.0843  0.1531  0.2479
54469W        W97386  33.555  28.564  31.923  0.3235  0.2451 -0.0297
54470W        W97387   1.082  32.737  16.847  0.1076  0.0950 -0.1755
54471W        W97388  31.872  33.864  19.942 -0.0223 -0.1523  0.3604
54472W        W97389  33.945  33.383  20.091 -0.3326  0.2740  0.1498
54473W        W97390   1.135  34.569  18.071 -0.5174 -0.1216 -0.2273
54474W        W97391  34.236  32.082  16.588  0.1391 -0.1118 -0.2134
54475W        W97392  33.495  33.249  18.708  0.0870  0.0544 -0.0056
54476W        W97393  33.336   1.391  18.621 -0.0415  0.2816  0.0679
54477W        W97394  32.827  33.997  17.039  0.1282 -0.1653  0.1412
54478W        W97395  34.268  33.945  16.325 -0.2226  0.1116 -0.3053
54479W        W97396  34.223  33.818  19.290 -0.0238 -0.1912  0.2776
54480W        W97397  31.848  34.169  16.477  0.1949  0.3488 -0.3378
54481W        W97398  33.159  32.459  17.644  0.1521  0.2915 -0.1685
54482W        W97399  32.284   1.950  19.131  0.1319  0.2007 -0.0252
54483W        W97400   2.553  34.611  19.420  0.0510 -0.1523  0.3524
54484W        W97401  34.167   0.173  17.273 -0.1108 -0.0845  0.2780
54485W        W97402   1.269  33.642  16.783  0.2743  0.3114 -0.2038
54486W        W97403  33.979   0.225  17.725 -0.2037  0.1003 -0.2606
54487W        W97404  32.957  33.201  16.604  0.0678 -0.3008 -0.0567
54488W        W97405  32.456  32.451  17.002 -0.0184 -0.1140  0.0519
54489W        W97406  32.209  34.570  20.428 -0.0905  0.1287 -0.0342
54490W        W97407  31.170   0.402  18.640  0.2511 -0.1869 -0.0632
54491W        W97408  33.075  32.664  15.614 -0.2379  0.2507 -0.0149
54492W        W97409   0.746  33.680  20.029  0.2097 -0.2706 -0.0393
54493W        W97410  31.278   0.278  19.955 -0.0222 -0.2025 -0.0189
54494W        W97411  32.887  32.417  21.055  0.3288  0.1752  0.0695
54495W        W97412  33.023  31.957  22.862 -0.0778 -0.2794  0.2420
54496W        W97413  34.175  32.753  17.358 -0.1268  0.0113 -0.0332
54497W        W97414  33.439  33.092  20.100  0.3020  0.1121 -0.2397
54498W        W97415  34.497  34.172  19.001 -0.2614 -0.4229 -0.2855
54499W        W97416   0.555  33.806  16.102 -0.1874 -0.3109  0.2264
54500W        W97417  31.905  32.667  17.584 -0.0907 -0.2313  0.0988
54501W        W97418   0.581  33.488  18.036 -0.0120 -0.1164  0.0458
54502W        W97419  33.002  31.422  17.865 -0.1427 -0.1711  0.0298
54503W        W97420  33.224  33.303  17.464  0.2119 -0.4222  0.0333
54504W        W97421  33.378  33.060  15.749  0.1692 -0.1714  0.2173
54505W        W97422  33.620  32.290  16.894 -0.0895  0.0141 -0.0151
54506W        W97423  33.631  33.937  20.512  0.1864 -0.1528 -0.5026
54507W        W97424  34.105   0.044  19.039  0.0330  0.0147 -0.1480
54508W        W97425  33.861  34.195  19.100  0.3951 -0.0807  0.0190
54509W        W97426  32.992   0.144  17.409  0.1256  0.1117  0.2983
54510W        W97427   0.324  33.362  19.922 -0.0041  0.0666  0.3690
54511W        W97428  33.141   1.119  17.272 -0.2014  0.2321 -0.5419
54512W        W97429   1.787  34.354  20.425  0.0946 -0.3092  0.0663
54513W        W97430   0.588  33.280  20.961 -0.0246  0.0163 -0.4634
54514W        W97431  34.291   1.387  18.031 -0.4602 -0.0979 -0.1346
54515W        W97432  33.602  33.904  16.986  0.3162  0.2284  0.0330
54516W        W97433  33.334   0.380  16.944  0.0112 -0.0390  0.0760
54517W        W97434  33.757   1.555  18.907  0.2962  0.1806  0.2276
54518W        W97435   0.113  31.745  18.886 -0.1341  0.0547 -0.2388
54519W        W97436   1.057   0.106  19.347  0.0921  0.1882 -0.0888
54520W        W97437  33.276   0.353  17.743  0.1419 -0.2832 -0.0949
54521W        W97438  33.869   1.788  18.455 -0.1026  0.0788 -0.3120
54522W        W97439   0.866   2.130  18.418 -0.1069  0.1706 -0.2323
54523W        W97440  33.918   0.394  19.293 -0.0435  0.0876 -0.0749
54524W        W97441  32.883   1.197  18.797  0.1410  0.5008  0.2055
54525W        W97442  33.079   0.539  18.290 -0.2664  0.1318  0.0200
54526W        W97443  33.023   0.060  18.099  0.1442  0.5335 -0.0362
54527W        W97444   0.494  32.837  19.582  0.2344 -0.0536 -0.3470
54528W        W97445  33.855  34.289  18.116  0.1602  0.0262 -0.1304
54529W        W97446   0.805   0.168  17.474 -0.1554 -0.0541 -0.0756
54530W        W97447  34.236  32.059  18.901  0.0223 -0.0438 -0.1183
54531W        W97448  32.004  33.784  19.370  0.1931 -0.1331  0.0102
54532W        W97449  33.566  34.637  21.260 -0.0471 -0.0239 -0.0442
54533W        W97450   0.712  32.258  17.662 -0.2953  0.4441 -0.0049
54534W        W97451  34.315  34.222  18.541  0.1401  0.0521 -0.1002
54535W        W97452  34.608   2.536  19.131  0.1544  0.3140  0.0969
54536W        W97453  33.762  32.218  18.925  0.1067  0.0982  0.0499
54537W        W97454   0.142   1.057  19.226  0.0466  0.2008 -0.1850
54538W        W97455  33.180  33.841  19.213  0.2324  0.1419  0.1989
54539W        W97456  33.564   0.060  19.074 -0.0499 -0.2261  0.0082
54540W        W97457  33.213  33.632  17.117 -0.4696  0.0692  0.0382
54541W        W97458  31.968  33.643  18.694 -0.1290  0.1065 -0.0589
54542W        W97459  32.778  33.002  16.997 -0.1891  0.2406  0.2314
54543W        W97460  34.093   1.045  17.037 -0.0009  0.5359  0.1078
54544W        W97461  34.261  33.278  17.219  0.0899  0.3243 -0.0297
54545W        W97462  34.418   0.245  17.948 -0.2803 -0.0577 -0.0077
54546W        W97463  32.494   0.408  17.337 -0.0515 -0.0662  0.2272
54547W        W97464  34.333  34.167  18.027 -0.2547 -0.1004  0.0969
54548W        W97465   0.288  33.057  16.382  0.2544  0.1201  0.0555
54549W        W97466  33.852  34.265  16.661  0.0491 -0.2274  0.0755
54550W        W97467  32.968   2.354  17.773 -0.1282  0.0015  0.0828
54551W        W97468  34.428  34.516  17.605 -0.3001  0.0682 -0.4259
54552W        W97469   0.786  34.459  18.904 -0.0474  0.4080  0.1531
54553W        W97470  33.081  34.493  17.000  0.1103 -0.1383 -0.3187
54554W        W97471  33.695  34.380  17.172 -0.0326 -0.0981  0.0412
54555W        W97472  32.882  32.255  15.825  0.0269 -0.1690  0.1932
54556W        W97473  31.750  33.960  19.018  0.2449 -0.1020 -0.0162
54557W        W97474  32.670  32.766  16.560 -0.2664 -0.1698  0.2843
54558W        W97475  31.684  34.528  19.186 -0.0076  0.4025 -0.2528
54559W        W97476  34.010   1.456  17.319  0.0029 -0.1125 -0.1699
54560W        W97477  32.418  33.880  17.756  0.3497 -0.1639 -0.1674
54561W        W97478  33.088   0.184  16.517  0.1619 -0.3385 -0.1270
54562W        W97479   1.217  33.338  20.235  0.0385  0.1351  0.1360
54563W        W97480  33.840  32.546  17.884  0.0149 -0.3357  0.0919
54564W        W97481  33.666  33.581  17.474 -0.1539 -0.0657 -0.1550
54565W        W97482   1.048  33.181  17.072  0.0724  0.1201  0.0995
54566W        W97483  33.600   0.537  18.358  0.5568 -0.2446 -0.0628
54567W        W97484   1.854  34.539  17.845 -0.0474  0.3159  0.1894
54568W        W97485  33.254  34.127  17.349  0.1511  0.1108  0.0072
54569W        W97486  34.571   1.627  22.109 -0.4339  0.1927 -0.0726
54570W        W97487  32.203  34.112  19.721 -0.0402  0.4944 -0.0935
54571W        W97488  34.374  34.585  19.421 -0.2294 -0.2661 -0.1486
54572W        W97489  32.900   1.042  18.305 -0.1618  0.3544 -0.2367
54573W        W97490  33.648   1.118  17.205  0.0608 -0.0686 -0.1914
54574W        W97491   1.115  32.441  17.320  0.1478 -0.0688  0.0037
54575W        W97492  32.059  33.584  17.441 -0.1442  0.2787  0.0244
54576W        W97493  33.052  33.301  17.904  0.2856 -0.3036 -0.1276
54577W        W97494  32.772  33.583  17.468  0.1257  0.0938 -0.1164
54578W        W97495   1.196   0.894  20.741 -0.1495  0.5600  0.3192
54579W        W97496   0.691  33.778  18.994  0.2219 -0.1315  0.0637
54580W        W97497  31.956  33.191  16.461 -0.2391  0.0310 -0.1135
54581W        W97498   0.267  34.199  17.775 -0.1354 -0.1691  0.4069
54582W        W97499  33.192  32.998  19.636  0.1927  0.1380  0.0268
54583W        W97500  33.241  33.768  20.842  0.0956 -0.0206 -0.0587
54584W        W97501  33.429   0.690  17.318  0.0318 -0.0278 -0.0554
54585W        W97502  33.591   0.615  18.941 -0.0988 -0.1471 -0.0976
54586W        W97503  33.963   1.291  18.538  0.0679  0.1340 -0.1591
54587W        W97504   0.665  34.476  19.365  0.0360 -0.1734 -0.1199
54588W        W97505  34.525   0.524  17.524 -0.0543 -0.2953  0.0739
54589W        W97506  34.436  31.032  18.609  0.5765 -0.2146  0.1691
54590W        W97507  32.963   0.614  17.347  0.1908  0.3271  0.0048
54591W        W97508  34.574   1.825  18.015  0.1758 -0.0331  0.0650
54592W        W97509  34.406  32.896  18.988 -0.0607  0.0472  0.0605
54593W        W97510  33.896   0.481  21.467 -0.1735  0.2161 -0.2117
54594W        W97511  33.821  34.032  22.491 -0.1748 -0.4623  0.0185
54595W        W97512   0.138  32.511  22.055  0.1599 -0.4533 -0.5460
54596W        W97513   1.424  33.017  20.971  0.0801 -0.1432  0.0790
54597W        W97514  34.200  33.462  21.318  0.0039  0.0256  0.1337
54598W        W97515  33.815  32.142  21.149  0.0924 -0.1421 -0.1428
54599W        W97516  33.672   0.202  21.819  0.2212  0.2042  0.0218
54600W        W97517  34.635  33.600  23.625 -0.1774  0.2441  0.0309
54601W        W97518  34.082   0.113  22.186 -0.2075  0.1350  0.0448
54602W        W97519   1.572  33.814  23.970  0.1445  0.0508 -0.0062
54603W        W97520  33.858  34.402  20.718 -0.0292 -0.0782  0.1767
54604W        W97521  32.691   0.490  22.251  0.1864  0.0200 -0.2663
54605W        W97522  33.519   0.291  20.484 -0.1343  0.0049 -0.0247
54606W        W97523   1.534  34.448  20.893  0.0195 -0.2725  0.2620
54607W        W97524  34.208  33.332  19.341 -0.2105  0.4291 -0.4445
54608W        W97525   1.767  32.083  23.082  0.3568  0.0195  0.3098
54609W        W97526  34.009  32.594  21.531 -0.0102 -0.0306 -0.0674
54610W        W97527  32.993  33.649  23.611 -0.0122  0.1602 -0.0647
54611W        W97528   0.897   0.373  20.570  0.1880  0.0539  0.1319
54612W        W97529  34.330   0.817  22.684 -0.0668 -0.0287 -0.0326
54613W        W97530  33.901   0.361  23.483  0.1562 -0.0422  0.1765
54614W        W97531  34.387  33.494  20.831 -0.4096  0.2963  0.3108
54615W        W97532  34.593  33.578  22.255 -0.0856 -0.0634 -0.0172
54616W        W97533  34.425  33.239  22.725  0.0388 -0.1542 -0.1313
54617W        W97534  34.435  33.461  24.138 -0.0753 -0.0143 -0.1286
54618W        W97535  31.920   0.121  22.198  0.0949  0.1565  0.0336
54619W        W97536  33.270  34.332  22.000 -0.3726 -0.2632 -0.1847
54620W        W97537  33.908  33.353  23.984 -0.1752  0.0387  0.3009
54621W        W97538  34.450  32.585  23.941  0.1215 -0.3170 -0.3029
54622W        W97539   0.607  34.136  20.246  0.1376 -0.1179 -0.1786
54623W        W97540   0.127   1.093  21.426 -0.2366 -0.0051 -0.0154
54624W        W97541  32.400  33.268  23.764  0.0996 -0.0154 -0.0930
54625W        W97542  34.315  34.408  20.415 -0.0592  0.2102  0.2289
54626W        W97543   0.275   0.482  21.376  0.2976 -0.1777  0.0584
54627W        W97544  34.572  33.111  21.528  0.1392 -0.0280  0.0972
54628W        W97545  32.460  33.931  21.993  0.1882 -0.3838  0.1707
54629W        W97546  32.529  33.853  24.428 -0.1322  0.0854 -0.4014
54630W        W97547  34.270   0.403  19.729  0.1423 -0.1537 -0.0921
54631W        W97548  34.601  32.629  21.277  0.1376 -0.3539  0.1827
54632W        W97549   0.872  33.132  19.955 -0.0756 -0.0968 -0.2851
54633W        W97550  34.120  32.811  23.409  0.3108  0.0262 -0.0189
54634W        W97551  34.666  33.410  20.403 -0.1417 -0.2477 -0.1252
54635W        W97552   1.879  33.597  23.086 -0.2194  0.1994 -0.3777
54636W        W97553   0.177   1.154  21.922  0.0028 -0.3669 -0.1190
54637W        W97554   0.803  33.852  22.472 -0.1518 -0.3475 -0.3685
54638W        W97555  34.581  34.350  21.678 -0.1780  0.3280 -0.0575
54639W        W97556  32.825  33.245  21.413  0.0318 -0.0062  0.0555
54640W        W97557   0.496  33.448  22.230  0.2192 -0.1907  0.1226
54641W        W97558   0.728  32.471  22.088 -0.1283 -0.0919  0.0143
54642W        W97559   1.118   1.164  21.495  0.0541  0.0323 -0.1172
54643W        W97560  33.539  31.647  19.702 -0.1173 -0.0831  0.0447
54644W        W97561   1.102  33.660  21.495 -0.0171 -0.1496 -0.0628
54645W        W97562   1.265  34.181  21.314 -0.0404 -0.0184  0.2025
54646W        W97563   1.315   0.026  22.944 -0.1001  0.0712  0.0199
54647W        W97564   2.144  33.927  21.771 -0.0553  0.1881 -0.4339
54648W        W97565  34.624  33.951  21.986  0.0082 -0.0226  0.3172
54649W        W97566  34.568   0.101  20.063 -0.1535  0.0210  0.0625
54650W        W97567  33.374  33.579  23.207  0.0944 -0.2241  0.1107
54651W        W97568   2.472  33.016  22.133  0.2447  0.0344 -0.1420
54652W        W97569   0.344  34.500  19.886 -0.0955 -0.0652  0.1750
54653W        W97570  34.421  31.807  22.780  0.2129 -0.1541  0.1399
54654W        W97571  33.206  33.525  22.409 -0.1041  0.4332 -0.0095
54655W        W97572  32.220   0.099  24.845  0.0456 -0.1443 -0.0075
54656W        W97573   0.287  32.684  20.839  0.0444 -0.0851 -0.0113
54657W        W97574  33.734  33.929  24.092  0.1070  0.1084  0.1080
54658W        W97575  33.533  34.449  24.192  0.2845  0.2418 -0.1697
54659W        W97576  33.886  33.479  21.808 -0.3854 -0.2118 -0.2371
54660W        W97577   1.214   0.524  22.408 -0.0121 -0.0947  0.0198
54661W        W97578  34.364  31.957  24.469 -0.1249  0.1764 -0.0986
54662W        W97579  31.441  32.578  23.408 -0.0486  0.3134  0.0467
54663W        W97580  33.335  33.701  18.272 -0.0114 -0.0264 -0.1729
54664W        W97581  32.528  33.342  22.309 -0.0388 -0.1302 -0.1703
54665W        W97582   0.299  33.907  19.893  0.0010  0.0827 -0.1265
54666W        W97583  34.174   1.933  21.601 -0.0988 -0.1917 -0.1791
54667W        W97584   1.225  32.739  21.409  0.0397  0.2983 -0.0938
54668W        W97585   1.979   0.995  21.043  0.0738  0.0120  0.1988
54669W        W97586  33.538  34.072  22.928 -0.0711  0.0777 -0.1713
54670W        W97587  33.524  33.647  23.658 -0.0084 -0.0944 -0.2714
54671W        W97588  33.545  32.987  19.227  0.3050  0.1243  0.2469
54672W        W97589   0.267  33.976  21.589  0.1926 -0.0713  0.0241
54673W        W97590   0.668   0.977  22.862  0.1996  0.1763 -0.2071
54674W        W97591   0.400  32.505  21.668  0.0458 -0.0952  0.0597
54675W        W97592  34.130  32.983  24.742 -0.1754 -0.3210  0.1257
54676W        W97593   1.127  34.076  19.204  0.4837  0.4530  0.0657
54677W        W97594  34.325  34.288  22.108 -0.1911 -0.0101 -0.0664
54678W        W97595  33.709  33.543  20.921  0.0293  0.0960  0.3735
54679W        W97596  33.866  34.092  23.365  0.2584  0.0790 -0.2007
54680W        W97597  34.423  33.937  20.557  0.1690 -0.2491 -0.1431
54681W        W97598  34.065  33.040  21.728  0.0034  0.0669 -0.0408
54682W        W97599   1.428  33.933  20.896  0.1331  0.1562  0.1786
54683W        W97600   0.871  34.108  19.663 -0.0522  0.1757 -0.0526
54684W        W97601  32.354   0.112  22.933 -0.3846 -0.3010 -0.3243
54685W        W97602   0.279  34.374  22.049  0.0255 -0.1775  0.2112
54686W        W97603  33.457  32.119  21.983 -0.1009  0.0757  0.0348
54687W        W97604  33.669  32.957  22.587 -0.1049 -0.2328 -0.1417
54688W        W97605   0.394  31.253  23.144 -0.3328  0.0342  0.0966
54689W        W97606  34.476  33.928  21.238 -0.2820 -0.0021  0.0908
54690W        W97607   1.971  33.767  19.837 -0.1837 -0.0030  0.1055
54691W        W97608  33.723  33.060  20.898 -0.0868 -0.2077 -0.1718
54692W        W97609  33.020  34.246  22.908 -0.0027  0.1253 -0.1056
54693W        W97610   0.136  34.389  21.196  0.2182  0.0742  0.2332
54694W        W97611   0.751  33.001  22.287 -0.1010 -0.0011  0.0555
54695W        W97612  34.282  32.117  24.012  0.1524  0.0058 -0.0822
54696W        W97613   1.419   0.866  21.226  0.0182  0.1568 -0.1539
54697W        W97614  32.854  32.997  20.941 -0.3967 -0.1652 -0.0854
54698W        W97615   0.625  30.896  21.839  0.4946 -0.1133  0.1513
54699W        W97616  34.000  32.356  22.039 -0.0555 -0.1505 -0.0188
54700W        W97617   0.122  34.044  20.866  0.1072 -0.2669 -0.1178
54701W        W97618   1.923  34.617  25.331  0.2055 -0.1030  0.1175
54702W        W97619   1.602  34.353  22.751  0.1522  0.1197 -0.3409
54703W        W97620  32.346  32.832  17.844 -0.0612  0.0638 -0.2696
54704W        W97621   2.553  32.543  22.140 -0.2291  0.1208 -0.1433
54705W        W97622  34.025  32.640  20.961  0.0636 -0.3485  0.1330
54706W        W97623  33.367  31.670  23.427 -0.0084 -0.1291  0.2380
54707W        W97624  34.042  34.363  21.245 -0.3457 -0.0997  0.0637
54708W        W97625   0.396  34.082  22.894 -0.0072  0.0034 -0.2284
54709W        W97626  34.383  33.111  19.782  0.1894 -0.1530 -0.1060
54710W        W97627   2.063  33.133  22.466  0.0376 -0.0003 -0.0741
54711W        W97628   0.157  34.453  20.503  0.1784  0.1631 -0.0956
54712W        W97629  32.730  31.470  21.121  0.0273  0.0205 -0.0289
54713W        W97630  34.241   0.132  21.182 -0.1501 -0.1021  0.2018
54714W        W97631   0.277   1.989  21.085 -0.2551 -0.1261  0.1409
54715W        W97632  34.514  32.299  22.572 -0.0834  0.0920  0.1691
54716W        W97633   0.304  33.996  23.688 -0.3451  0.1629 -0.2034
54717W        W97634  34.074   0.088  25.388 -0.1189 -0.0082 -0.2815
54718W        W97635  33.931  31.762  24.935 -0.0704  0.1863 -0.1426
54719W        W97636   0.655  34.063  25.500 -0.4207  0.0461 -0.0914
54720W        W97637  34.647  31.799  25.441  0.1011  0.0214 -0.0711
54721W        W97638  32.777  32.546  26.730  0.1820  0.0514  0.4362
54722W        W97639  33.857  33.412  25.540 -0.1562  0.2978  0.1090
54723W        W97640   0.474   1.301  25.156 -0.1124  0.1001 -0.1288
54724W        W97641   0.791  33.896  23.846  0.0145 -0.2090  0.1730
54725W        W97642   0.322  32.497  24.932 -0.1050  0.0460 -0.3645
54726W        W97643  33.464  34.503  23.154 -0.0331  0.0444  0.3091
54727W        W97644  34.059  34.421  26.328  0.1738 -0.1772  0.0905
54728W        W97645   1.000   2.461  24.624 -0.1142  0.1255 -0.1138
54729W        W97646   0.885   1.456  23.981 -0.0712  0.2256  0.0723
54730W        W97647  33.554   0.045  23.715 -0.2048  0.0055 -0.0640
54731W        W97648   1.205  31.899  23.291  0.2770 -0.1401 -0.2936
54732W        W97649  33.588  34.243  26.508 -0.0883 -0.1526  0.1312
54733W        W97650  33.195  34.339  25.539  0.2660 -0.3311  0.1315
54734W        W97651  34.638  33.994  24.017 -0.0170 -0.1469  0.2663
54735W        W97652  31.787   0.513  28.457 -0.0102 -0.1144 -0.0400
54736W        W97653  33.829  34.498  27.604  0.1480  0.1281  0.2424
54737W        W97654   1.061  33.354  22.672  0.2005  0.0765  0.2190
54738W        W97655  32.311   0.037  27.538 -0.2209  0.3909  0.1868
54739W        W97656  33.236  32.301  25.338  0.0735  0.1603 -0.0055
54740W        W97657  33.003  31.730  26.211 -0.5069 -0.0337  0.0298
54741W        W97658  34.593   1.144  27.737  0.0306  0.0093 -0.0765
54742W        W97659  33.694  33.009  23.692  0.2840 -0.2725 -0.1647
54743W        W97660  33.866  33.716  26.608  0.3447  0.0803  0.2237
54744W        W97661  33.978  34.044  25.656  0.1320  0.0301 -0.0495
54745W        W97662   0.176  32.054  24.200 -0.0295  0.2333 -0.1558
54746W        W97663  33.458  34.225  25.060  0.0727  0.1592  0.0352
54747W        W97664  33.855  33.954  25.173 -0.2080 -0.0511  0.2099
54748W        W97665   0.178  33.664  27.086 -0.1489 -0.1443 -0.0567
54749W        W97666   0.598  32.719  24.208 -0.0631  0.4195  0.1931
54750W        W97667  34.289  33.734  25.331 -0.3109  0.2620  0.3964
54751W        W97668  32.571   0.165  25.196  0.2475  0.0185 -0.1368
54752W        W97669  31.574   0.820  28.091 -0.1608  0.0302 -0.1730
54753W        W97670  33.134  33.282  24.747  0.1759  0.0870  0.0238
54754W        W97671   0.177  33.389  26.084  0.1177 -0.0783  0.1275
54755W        W97672  33.092   0.012  23.493 -0.1684 -0.0768  0.0069
54756W        W97673   0.578  33.075  28.480 -0.1788  0.3008 -0.1497
54757W        W97674  34.033  34.138  22.927  0.1915  0.3000  0.4236
54758W        W97675   0.867  33.302  27.079  0.2075  0.0897  0.3399
54759W        W97676   2.030  33.339  27.889 -0.0997  0.0753  0.3419
54760W        W97677   0.266  32.122  26.192  0.0696  0.0099 -0.2914
54761W        W97678   0.638  34.061  23.346 -0.4182  0.2440 -0.3379
54762W        W97679   0.112  34.339  24.391 -0.2107  0.1032 -0.0146
54763W        W97680  33.209  33.974  25.975 -0.1408 -0.1838  0.0687
54764W        W97681   0.227  34.442  24.923 -0.0320 -0.1017 -0.5011
54765W        W97682  34.237  34.583  27.242  0.0020 -0.0522  0.1296
54766W        W97683  34.374  33.231  25.139 -0.1123 -0.0880  0.1804
54767W        W97684   0.308  33.646  24.027  0.0851  0.0696  0.0337
54768W        W97685  33.498   0.081  25.248  0.1808 -0.1780 -0.0534
54769W        W97686  34.302  33.762  26.847 -0.1333  0.0669  0.0138
54770W        W97687   1.650   0.140  25.900 -0.0096  0.0298 -0.1287
54771W        W97688   0.147  33.858  23.214 -0.1772  0.0859  0.2334
54772W        W97689   1.110  34.195  25.763  0.0857 -0.0681 -0.1463
54773W        W97690   0.650  34.369  26.121 -0.0466  0.0304  0.1249
54774W        W97691   1.111  34.294  25.235 -0.0938  0.1382 -0.0108
54775W        W97692   1.606  33.026  24.943  0.0863  0.0014 -0.2025
54776W        W97693  33.324  34.076  24.540  0.2041 -0.0998 -0.3027
54777W        W97694  32.312  33.327  27.261 -0.0261  0.2554  0.1034
54778W        W97695  34.095   0.310  27.628  0.2319 -0.0591 -0.3050
54779W        W97696  33.329  32.182  23.745 -0.1000 -0.2184  0.0294
54780W        W97697  34.544  33.285  26.871 -0.0237 -0.0009 -0.0198
54781W        W97698  34.601   0.473  26.131  0.0516  0.0720 -0.0204
54782W        W97699   0.018  32.359  28.818  0.0445 -0.1187  0.0374
54783W        W97700  34.053  33.993  28.608 -0.0873 -0.0371  0.0487
54784W        W97701  34.267  32.885  27.184  0.1450  0.1438 -0.0244
54785W        W97702  34.378  34.479  24.161  0.0202 -0.1717  0.2448
54786W        W97703   0.643  33.886  21.949 -0.3161  0.0724 -0.1345
54787W        W97704  34.384  34.373  25.482 -0.2342  0.2188  0.1757
54788W        W97705  34.015  33.393  24.451  0.0033 -0.3429  0.0743
54789W        W97706  34.444  34.058  22.539  0.0447  0.0071 -0.2597
54790W        W97707  33.319  31.981  24.641  0.1335  0.2311  0.0654
54791W        W97708   0.516   0.191  24.122  0.1600 -0.0315  0.4799
54792W        W97709  34.299   0.866  24.970 -0.0504 -0.0466  0.0471
54793W        W97710  33.038  33.578  28.066  0.0962 -0.2426 -0.1492
54794W        W97711  33.900  31.890  26.258  0.2279  0.0650 -0.0547
54795W        W97712  34.262  33.762  24.827  0.0784  0.2231 -0.1227
54796W        W97713   0.062  33.980  25.550  0.1938  0.0119 -0.0275
54797W        W97714   1.475  32.732  23.845 -0.2498 -0.0012  0.0850
54798W        W97715   0.142  34.481  27.203  0.0079  0.1374  0.1255
54799W        W97716  32.549  33.695  25.444 -0.1339  0.0843  0.2331
54800W        W97717  34.045   0.237  24.860 -0.2137 -0.0754 -0.1234
54801W        W97718  33.061  33.566  25.508 -0.3092  0.2763  0.1267
54802W        W97719  31.731   0.023  27.220 -0.1375  0.0973 -0.1900
54803W        W97720   0.630  34.557  24.548  0.2404 -0.0633  0.1117
54804W        W97721   1.673   0.475  25.409 -0.1807 -0.0717  0.1060
54805W        W97722   0.309  33.908  22.382  0.0562 -0.0578 -0.0679
54806W        W97723  33.333  33.587  24.381  0.0142  0.0993 -0.3176
54807W        W97724   1.801  33.708  24.479  0.1945 -0.1542  0.0588
54808W        W97725   0.601  33.635  27.397 -0.3471  0.1177 -0.1736
54809W        W97726  33.147  32.917  24.396 -0.2059  0.1086 -0.1303
54810W        W97727  32.616  33.913  26.750 -0.1046 -0.3635 -0.0790
54811W        W97728   0.678  32.319  26.699  0.0426  0.0995 -0.0871
54812W        W97729  34.154  32.631  25.787  0.3375  0.1694 -0.2098
54813W        W97730  34.044   0.625  27.065  0.0070 -0.3359 -0.0832
54814W        W97731   0.397   0.318  24.805 -0.2549  0.1469 -0.2134
54815W        W97732  32.967   0.829  25.525 -0.0424 -0.0175  0.0707
54816W        W97733  32.360  34.655  24.314  0.3177  0.2505 -0.2496
54817W        W97734   0.574  33.557  24.837  0.0450 -0.0445 -0.0204
54818W        W97735  33.011  34.053  27.989 -0.2130 -0.0781  0.0314
54819W        W97736  34.085   2.206  23.892  0.0412  0.0904  0.1266
54820W        W97737   0.473  34.146  24.179  0.0922 -0.1391  0.1093
54821W        W97738   0.163  33.066  23.601  0.3224  0.0254 -0.0491
54822W        W97739  32.996  34.577  25.093  0.0228  0.0785 -0.0160
54823W        W97740  34.151  33.700  23.692 -0.0434 -0.0748 -0.2076
54824W        W97741   1.474  34.126  24.320  0.1772  0.0833 -0.2112
54825W        W97742   0.612  31.850  26.593  0.0415 -0.3004  0.5383
54826W        W97743  33.295  34.088  22.454 -0.1971  0.1597  0.2841
54827W        W97744  33.831   1.002  25.114  0.3256 -0.0127  0.0750
54828W        W97745  34.020  32.688  26.744 -0.0765 -0.1435  0.0531
54829W        W97746  32.772  32.899  26.351  0.1544  0.2095 -0.1379
54830W        W97747  34.097  33.647  22.647 -0.0338  0.0110  0.1879
54831W        W97748   0.207  34.421  26.364 -0.0096 -0.0063 -0.1454
54832W        W97749   1.118  34.276  22.608 -0.1772  0.3007  0.1184
54833W        W97750   1.674  33.883  26.405  0.0215  0.0114 -0.0060
54834W        W97751   0.844   0.155  22.747  0.2210 -0.1214  0.2285
54835W        W97752  34.245  33.476  25.950 -0.4262  0.3448 -0.0342
54836W        W97753  33.435  34.169  23.712 -0.3008  0.1548 -0.0379
54837W        W97754   0.471   0.734  24.639  0.1872 -0.0106 -0.1935
54838W        W97755  34.589  32.565  26.281  0.1920  0.0765  0.1269
54839W        W97756  32.250  32.526  28.842 -0.0800  0.0275  0.0362
54840W        W97757  33.448  31.596  29.245  0.1252  0.3034 -0.1104
54841W        W97758  32.681  33.334  31.611 -0.0551  0.1785  0.2687
54842W        W97759  33.123  33.727  30.622 -0.2219 -0.3338  0.0678
54843W        W97760   1.453  33.792  29.886 -0.0846 -0.1148 -0.1244
54844W        W97761  32.993  32.867  28.821 -0.2024 -0.1067 -0.1687
54845W        W97762  34.544   1.322  25.985  0.1456  0.1838 -0.2765
54846W        W97763  33.064   0.461  31.588 -0.0009 -0.0657  0.1238
54847W        W97764   0.906  34.338  27.919 -0.0975  0.0287  0.1294
54848W        W97765   0.022  34.238  31.221  0.1441  0.0390 -0.1959
54849W        W97766   1.698  33.474  26.663 -0.2872 -0.0138 -0.0080
54850W        W97767   0.564  34.352  28.509 -0.2961 -0.2055  0.0212
54851W        W97768  32.680  34.493  29.304  0.2161  0.1056  0.1671
54852W        W97769  33.937  32.969  30.402 -0.2377  0.1675 -0.0896
54853W        W97770  32.937  33.364  26.244 -0.0852  0.0337 -0.2037
54854W        W97771  34.655  32.830  29.390 -0.2879  0.0754 -0.0718
54855W        W97772  34.091  34.231  29.923 -0.0901  0.1160  0.2417
54856W        W97773  32.772  34.092  28.876  0.2523 -0.0495 -0.0209
54857W        W97774  33.356  33.788  27.303 -0.3494  0.0545  0.4632
54858W        W97775  34.353  34.428  30.291  0.1803 -0.2302  0.1267
54859W        W97776  33.054  32.091  30.396 -0.0767 -0.1277 -0.0130
54860W        W97777   0.541  33.768  28.930 -0.4667  0.0030  0.3755
54861W        W97778  34.387  33.665  31.315  0.2379  0.0223 -0.3605
54862W        W97779  34.092  33.295  31.441  0.1600  0.1003  0.0094
54863W        W97780   0.221  34.135  29.199  0.0601  0.0362  0.1198
54864W        W97781  33.060  34.089  28.500 -0.1536  0.3429  0.1622
54865W        W97782  33.800  32.332  28.404  0.2935 -0.3331 -0.1125
54866W        W97783  33.701  33.173  28.688 -0.1660  0.3386  0.0797
54867W        W97784  33.718  32.816  29.076  0.2722  0.1713 -0.1816
54868W        W97785   0.504  31.974  27.571 -0.0202 -0.0961  0.1592
54869W        W97786  33.745  34.534  28.555 -0.1901 -0.0646 -0.0488
54870W        W97787  33.337  33.760  29.532  0.1573 -0.0453  0.4833
54871W        W97788  33.266  34.259  27.556 -0.0563  0.2088 -0.3664
54872W        W97789  34.453  33.718  28.392 -0.1135 -0.1417 -0.1117
54873W        W97790  34.076  33.361  27.003  0.0217  0.2030  0.0361
54874W        W97791  31.638  34.083  29.127 -0.0890 -0.1649  0.4552
54875W        W97792   0.633   0.592   0.712  0.1587  0.1763 -0.0077
54876W        W97793   0.325  32.095  29.178  0.3208 -0.2083  0.0468
54877W        W97794  33.958   0.086  30.913 -0.1000 -0.0313 -0.0685
54878W        W97795  34.603  33.853  26.051 -0.1843 -0.4419 -0.1008
54879W        W97796  33.384  33.930  31.415  0.0811 -0.1121 -0.2234
54880W        W97797   0.495  32.997  26.265  0.2550  0.0607 -0.1623
54881W        W97798   0.698   0.027   0.058 -0.1893 -0.1299 -0.2252
54882W        W97799   1.306   0.105  30.620  0.0262 -0.0005 -0.1255
54883W        W97800  33.001  33.351  28.955 -0.1631 -0.4056  0.3159
54884W        W97801   1.519   1.183  26.755 -0.3660  0.0853  0.2404
54885W        W97802  32.047  33.622  28.250  0.1822  0.1638  0.0310
54886W        W97803  34.374  33.119  28.626  0.0535 -0.1195 -0.0708
54887W        W97804   0.702   0.270  31.241  0.1498  0.1675  0.0357
54888W        W97805   1.316   0.957  31.148  0.2164 -0.1773  0.0899
54889W        W97806   0.245   0.545  28.217 -0.0488 -0.0972 -0.1161
54890W        W97807  33.257  34.312  30.466 -0.0353  0.1198 -0.0287
54891W        W97808  32.987  33.900  26.419  0.0212  0.0588 -0.0797
54892W        W97809  30.269  34.325  31.304 -0.0842 -0.0880 -0.2350
54893W        W97810   2.060  33.566  31.952 -0.0516  0.2095 -0.3725
54894W        W97811  34.503   0.152  28.920  0.2154 -0.3374  0.0532
54895W        W97812   1.569  32.164  28.388  0.1112 -0.2813  0.3660
54896W        W97813   0.159  34.211  30.111 -0.0024  0.0750 -0.0083
54897W        W97814   0.498  33.367  29.839  0.0592  0.4120 -0.0787
54898W        W97815   0.924   0.851  30.051  0.3100  0.0104 -0.1841
54899W        W97816   1.164  32.683  30.286 -0.4716 -0.1215  0.0361
54900W        W97817  33.837  31.685  29.704 -0.0675 -0.2647 -0.0313
54901W        W97818   1.195  34.487   0.087 -0.0551 -0.0454 -0.0462
54902W        W97819  34.026  33.058  28.196 -0.0824  0.1867 -0.2940
54903W        W97820   0.298   0.004  31.152  0.0120 -0.2192  0.2126
54904W        W97821  33.974  33.877  30.922 -0.1900 -0.1841  0.0093
54905W        W97822   0.158   0.862  29.013 -0.0488 -0.1327  0.2045
54906W        W97823   2.281   0.523  30.413  0.0817 -0.1065 -0.0658
54907W        W97824  34.437  32.799  29.945  0.2495  0.2430 -0.3657
54908W        W97825  33.799  33.512  29.521 -0.0831 -0.0283 -0.1510
54909W        W97826  32.840  33.326  27.658  0.1130  0.1404 -0.0449
54910W        W97827  32.375   0.368  28.410  0.1562  0.1051  0.0144
54911W        W97828  33.338  33.653  28.498 -0.0043  0.5308  0.2273
54912W        W97829   1.886   0.050  27.311  0.1286  0.0383 -0.1759
54913W        W97830  33.887  33.879  27.132  0.0636 -0.0117  0.0207
54914W        W97831   1.817   0.327  30.539  0.2501  0.2530  0.1595
54915W        W97832  33.575  33.887  30.480 -0.1565  0.1410  0.3483
54916W        W97833  32.570  33.737  30.648 -0.2223 -0.0781 -0.2371
54917W        W97834   0.228   0.056  28.016  0.1401 -0.1594  0.1348
54918W        W97835  34.552  33.284  27.370 -0.1475 -0.3284 -0.1060
54919W        W97836  34.108   1.130  28.999 -0.4737  0.4493 -0.3888
54920W        W97837   0.936  34.154  26.921  0.1069  0.1878  0.2697
54921W        W97838   0.869  34.580  30.329  0.1600 -0.1807 -0.1235
54922W        W97839  33.998  32.757  28.599  0.0333  0.2099 -0.2415
54923W        W97840  34.257  34.265  27.696  0.2726  0.2521  0.1893
54924W        W97841  32.609  33.180  28.700 -0.0250  0.2307  0.1116
54925W        W97842  33.427  34.288  29.978  0.3606 -0.3117  0.2153
54926W        W97843   0.070   0.438  29.262 -0.1369 -0.1878 -0.1289
54927W        W97844  33.593  32.800  30.849 -0.1894 -0.1055 -0.1472
54928W        W97845   0.052  33.717  26.566 -0.1375  0.1241  0.2057
54929W        W97846  32.844  34.500  28.239 -0.0105  0.4616  0.3321
54930W        W97847  32.596   0.363  29.318 -0.0710  0.0250 -0.1342
54931W        W97848  34.420   0.247  30.664  0.0042  0.3081 -0.1055
54932W        W97849  34.061  34.485  29.460  0.0980  0.1338  0.2303
54933W        W97850  30.786  32.742  28.197 -0.0258 -0.1000 -0.1282
54934W        W97851  34.476  34.246  28.183 -0.1245 -0.1115  0.0207
54935W        W97852  33.967   0.647  29.352 -0.1099 -0.1888  0.4217
54936W        W97853   1.089  31.569  26.514 -0.2058  0.2377 -0.0167
54937W        W97854   1.797  34.083  27.942  0.2646  0.0958 -0.1211
54938W        W97855   1.069   1.311  31.423 -0.0145  0.0205  0.0974
54939W        W97856   0.329  34.574  28.953 -0.0485  0.2030 -0.0692
54940W        W97857  33.648  33.034  29.497 -0.1594 -0.0338 -0.4016
54941W        W97858  32.216  34.211  30.444 -0.0321  0.1794  0.0156
54942W        W97859  34.625  33.234  29.758 -0.0418 -0.1886  0.0362
54943W        W97860  33.032  32.641  27.273  0.0366  0.0138  0.0394
54944W        W97861  33.724  33.675  28.861 -0.1244 -0.1205  0.1249
54945W        W97862  34.010  31.658  30.757 -0.0204  0.0191  0.1717
54946W        W97863   1.071  34.468  29.292  0.0971 -0.2710  0.1697
54947W        W97864   0.716   0.618  28.817 -0.0084  0.1234 -0.1286
54948W        W97865  33.687  33.512  31.880 -0.0282  0.1665  0.1831
54949W        W97866  33.429  33.882  26.785 -0.1445  0.0245  0.2589
54950W        W97867   1.892   0.947  30.918  0.3610 -0.0477  0.0761
54951W        W97868  32.411  32.266  31.188  0.0648 -0.3335 -0.0680
54952W        W97869  32.931  31.649  30.585  0.0129 -0.1426 -0.1904
54953W        W97870   0.562  31.585  28.148  0.2516 -0.2307  0.0551
54954W        W97871  33.025  34.158  29.392 -0.0372  0.1365 -0.1532
54955W        W97872   0.453  34.130  27.230  0.1338 -0.2236  0.0692
54956W        W97873   2.039  34.491  31.474  0.1536 -0.2958  0.2758
54957W        W97874   0.460  33.971  27.729 -0.2041  0.1823  0.0022
54958W        W97875  33.967  32.006  29.335  0.0724  0.2438  0.1047
54959W        W97876   0.531  34.464  26.821  0.1126  0.0511  0.1336
54960W        W97877  34.414   0.726  28.880  0.0712 -0.1374  0.2171
54961W        W97878   0.177  33.394  27.742  0.1601 -0.1684  0.1204
54962W        W97879  34.353  32.774  31.483 -0.0702  0.2509 -0.0130
54963W        W97880   2.310  33.604  31.483  0.0101 -0.0343  0.0387
54964W        W97881  32.765  32.898   0.629  0.2368 -0.4690 -0.1244
54965W        W97882  34.122  32.936  31.002 -0.4326  0.1161 -0.1296
54966W        W97883  33.529  33.713  30.940  0.1261  0.0677  0.1518
54967W        W97884  34.191  33.020  29.553  0.0682  0.0737 -0.1119
54968W        W97885  33.812  33.330  30.996  0.1854 -0.1638  0.4330
54969W        W97886   0.449   1.415   0.133  0.0931 -0.0378 -0.3652
54970W        W97887   1.037  34.036   0.301  0.1147 -0.1526 -0.1457
54971W        W97888   0.089   2.073   0.312 -0.0520  0.1237 -0.1196
54972W        W97889  33.817  33.749  30.033  0.1722 -0.0120  0.3495
54973W        W97890  33.940  34.233   0.424  0.4168 -0.2318  0.0884
54974W        W97891  34.610   1.853  29.109 -0.2813 -0.3663  0.0608
54975W        W97892   1.030  33.153  31.677  0.2251  0.0636 -0.1389
54976W        W97893  33.203  33.584  31.728  0.6443 -0.2065 -0.1147
54977W        W97894   2.150   1.389  31.680  0.1745  0.1380  0.3481
54978W        W97895  33.041   1.701  30.112  0.1499 -0.0249  0.0865
54979W        W97896  32.681  33.136   0.241  0.1764  0.1002 -0.0781
54980ION     NA97897  28.331  13.614   5.507  0.1260 -0.3159  0.0106
54981ION     NA97898   9.030  11.630   3.586  0.2276  0.3754  0.6712
54982ION     NA97899  14.725  19.175   9.680 -0.4177  0.2998  0.2153
54983ION     NA97900  23.359   6.149   6.596  0.3116  0.3799  0.3163
54984ION     NA97901  16.729   0.256   7.895 -0.5278  0.0228  0.0029
54985ION     NA97902  30.348  17.480   4.804  0.0322 -0.3957  0.2842
54986ION     NA97903  17.117  32.377   6.726 -0.1564 -0.0114 -0.2196
54987ION     NA97904   1.962  12.606   5.908 -0.0443  0.0760  0.1004
54988ION     NA97905   8.848  19.891   7.411 -0.3534 -0.5579  0.4231
54989ION     NA97906  18.566   2.571   3.141  0.0080 -0.0861  0.2820
54990ION     NA97907  16.822  31.363   4.118 -0.0660  0.0466  0.4855
54991ION     NA97908  31.099  10.186   7.211 -0.1690  0.0637  0.2757
54992ION     NA97909  18.655  10.594   8.736 -0.2079 -0.0359  0.1495
54993ION     NA97910  16.143  27.115   2.707  0.0985 -0.6621  0.0663
54994ION     NA97911  26.347   8.760   7.207  0.1256 -0.0360 -0.1598
54995ION     NA97912   2.231  24.658   7.665 -0.5852 -0.5098  0.1600
54996ION     NA97913   3.263   5.972   2.135 -0.0135  0.4400 -0.3931
54997ION     NA97914   4.645  18.847   3.717 -0.3921 -0.2850 -0.4955
54998ION     NA97915  14.130  15.159   7.619 -0.5964  0.6834 -0.2583
54999ION     NA97916  30.209   0.084   7.908 -0.2032  0.2149 -0.2131
55000ION     NA97917  19.120   9.068   6.950  0.1952 -0.1678 -0.3246
55001ION     NA97918   0.453   7.869  30.498  0.3841 -0.6899  0.0697
55002ION     NA97919  31.581   8.387   4.542  0.0815 -0.4521 -0.0637
55003ION     NA97920   3.308  17.220   8.993 -0.1306 -0.6980 -0.3095
55004ION     NA97921  30.637  25.429   0.924 -0.5346 -0.0860  0.0264
55005ION     NA97922  13.840  20.384   1.989 -0.3382  0.1266  0.1095
55006ION     NA97923  29.159  20.087   7.071  0.3911  0.1169  0.2711
55007ION     NA97924  23.877  30.784   8.280 -1.0509 -0.2253 -0.1676
55008ION     NA97925  30.216   2.770   2.784 -0.1846  0.0535 -0.0246
55009ION     NA97926  16.734  20.971   4.676 -0.0101  0.1391  0.2476
55010ION     NA97927  32.520   6.243   3.711 -0.1143  0.5036 -0.2553
55011ION     NA97928  21.617  27.048   4.872  0.3952  0.6590 -0.0915
55012ION     NA97929  13.546  20.716  10.391 -0.3482  0.0631  0.4546
55013ION     NA97930  32.087   6.449   1.820  0.2941 -0.6796 -0.3830
55014ION     NA97931   0.132  30.866   5.377  0.1580  0.1553 -0.2710
55015ION     NA97932   7.504   0.912   8.120 -0.8829  0.0496  0.6930
55016ION     NA97933  27.510  23.036   5.841 -0.0881 -0.4728 -0.2216
55017ION     NA97934  30.809  17.274   0.663 -0.2888  0.3671 -0.0420
55018ION     NA97935  30.116  29.366   1.328 -0.1218 -0.0957  0.0472
55019ION     NA97936  29.973  11.940   6.500 -0.6462  0.1877  0.1108
55020ION     NA97937   3.802  24.307   5.655  0.4524  0.2153 -0.4791
55021ION     NA97938  33.635   0.305   0.513 -0.5207 -0.4750  0.0829
55022ION     NA97939  15.548  18.265   7.944  0.1861 -0.8914  0.3113
55023ION     NA97940  17.720   3.900   0.733 -0.0796 -0.0459 -0.3937
55024ION     NA97941  26.792  28.230   3.477 -0.2161 -0.1752 -0.1162
55025ION     NA97942   8.907  20.913   9.062  0.1399 -0.2375 -0.0658
55026ION     NA97943  15.435   9.443   0.767 -0.0150  0.2116 -0.0854
55027ION     NA97944  33.617  17.593   2.592 -0.2470  0.2504 -0.1510
55028ION     NA97945  10.668  34.396   5.798 -0.0695  0.1819 -0.0925
55029ION     NA97946  21.474  10.831   7.034 -0.0800 -0.3242  0.5609
55030ION     NA97947   0.647  15.451   6.919  0.1929  0.0292  0.1484
55031ION     NA97948  24.261   9.919   6.723  0.3080 -0.4054 -0.3398
55032ION     NA97949   6.981  13.044   7.680  0.4757  0.3940  0.0910
55033ION     NA97950  15.013  25.592   0.466  0.3279 -0.0658 -0.0832
55034ION     NA97951  20.446  18.929   2.353  0.0221 -0.0804 -0.1396
55035ION     NA97952  15.993   5.641   7.425 -0.1226  0.5948 -0.3584
55036ION     NA97953   6.118  17.593   4.260  0.0037  0.2337  0.3742
55037ION     NA97954   2.497  16.518   7.160  0.5886  0.3357  0.0588
55038ION     NA97955  30.073  17.604   5.885 -0.1104 -0.1550  0.1493
55039ION     NA97956  16.209  19.733   9.284 -0.2638 -0.1750  0.8406
55040ION     NA97957  30.694  24.815  31.666 -0.1552 -0.2574  0.3010
55041ION     NA97958  20.315   9.812   8.359  0.7914 -0.7079 -0.1681
55042ION     NA97959   2.588  17.594   5.115  0.1262 -0.3688 -0.0024
55043ION     NA97960  19.552  30.287   1.820  0.1694  0.3182 -0.4784
55044ION     NA97961  15.572  34.396   0.928 -0.4205 -0.3858  0.2729
55045ION     NA97962  23.023  27.808  31.926 -0.3867  0.0217  0.2746
55046ION     NA97963  11.125  32.853   4.234 -0.3933 -0.0390 -0.3113
55047ION     NA97964  19.375  27.615   6.989 -0.5842  0.2515 -0.2443
55048ION     NA97965  21.049   0.133   1.013 -0.0236 -0.2273 -0.0212
55049ION     NA97966   2.205  27.696   4.671  0.0719 -0.1357 -0.0402
55050ION     NA97967  27.556   0.688   6.284 -0.0680  0.5007  0.0591
55051ION     NA97968   9.467   6.280   5.801  0.1342 -0.1924  0.0500
55052ION     NA97969   4.160  17.697   1.397  0.3525 -0.5825 -0.0035
55053ION     NA97970   1.329   8.878   7.398 -0.0802  0.8227 -0.5457
55054ION     NA97971  25.236  31.272   8.075 -0.2414  0.2633  0.4764
55055ION     NA97972   0.639  27.942   5.176  0.1591 -0.5202 -0.4866
55056ION     NA97973  10.629  22.266   3.077 -0.3785  0.0294 -0.1036
55057ION     NA97974   9.449  28.131   5.123 -0.1636 -0.4741  0.0502
55058ION     NA97975  15.975  32.316   4.666  0.1718  0.2269 -0.0130
55059ION     NA97976  10.963   5.583   5.693 -0.0979  0.0178  0.2514
55060ION     NA97977  11.551   3.539   2.920 -0.1691 -0.2243  0.5621
55061ION     NA97978  13.155   3.364   8.349 -0.5053  0.2643 -0.5142
55062ION     NA97979  31.149  10.658   1.999  0.2099  0.1321 -0.2206
55063ION     NA97980  29.425  33.131   8.900  0.4902  0.1075 -0.2721
55064ION     NA97981   7.385  16.906   5.757 -0.0121  0.4528 -0.2934
55065ION     NA97982  33.384  25.532   1.432 -0.4364  0.2758  0.3361
55066ION     NA97983  28.387   0.031   0.369  0.0203  0.0845 -0.9001
55067ION     NA97984  14.206   7.207   7.413  0.3620  0.1381  0.2702
55068ION     NA97985  24.734  24.705   6.467 -0.4068 -0.5772  0.1647
55069ION     NA97986   8.887  19.842   4.476 -0.0535 -0.6566 -0.2538
55070ION     NA97987  31.342  34.600   7.632  0.2501 -0.0276 -0.3326
55071ION     NA97988   3.135  32.337   6.478  0.0210 -0.1020  0.2340
55072ION     NA97989   9.239  29.462   6.120  0.2706 -0.1895 -0.0055
55073ION     NA97990  23.332  10.873   6.817 -0.6674  0.2591  0.2764
55074ION     NA97991  24.740  32.178   7.479 -0.4608  0.0442  0.0877
55075ION     NA97992  17.438  25.727   8.536  0.2067 -0.2466 -0.0110
55076ION     NA97993   7.799  23.946   3.288  0.1421 -0.1142  0.0757
55077ION     NA97994   7.216   1.296   5.866 -0.5092  0.3454  0.2719
55078ION     NA97995   0.076  16.832   5.468 -1.0501  0.2793 -0.3149
55079ION     NA97996  33.179  28.469   1.704  0.2039 -0.0829 -0.1922
55080ION     NA97997  28.539  22.849   0.963  0.0989 -0.1311 -0.5626
55081ION     NA97998  34.511  31.655   7.691 -0.3253 -0.2563  0.0254
55082ION     NA97999   0.914  31.245   7.282 -0.4296  0.0404  0.1624
55083ION     NA98000  10.735  12.680   4.137 -0.0322 -0.0079 -0.2823
55084ION     NA98001   6.439   2.731   6.077 -0.3748 -0.3008  0.2813
55085ION     NA98002  16.283  15.105   3.854 -0.1205  0.0875  0.2226
55086ION     NA98003  26.581  26.426   5.152 -0.4231 -0.2031  0.1633
55087ION     NA98004  29.151  19.227   2.182 -0.1963 -0.0420  0.3517
55088ION     NA98005  27.599  29.156   2.517 -0.1781 -0.0459  0.3392
55089ION     NA98006   7.179  10.072   6.509 -0.7887  0.6266 -0.4812
55090ION     NA98007  32.833  24.676  31.300 -0.2580  0.2833 -0.0599
55091ION     NA98008  33.595   8.331   3.924  0.1228 -0.2156  0.1036
55092ION     NA98009  18.817  26.484   2.355 -0.2109  0.4889 -0.4213
55093ION     NA98010  21.601  33.412   9.115  0.4196  0.0911 -0.0262
55094ION     NA98011  24.810  25.160   1.935 -0.0043 -0.3168  0.3141
55095ION     NA98012  34.524  29.670   6.174  0.3251 -0.3080 -0.4276
55096ION     NA98013   9.016   5.798   3.945  0.0900 -0.0878 -0.1563
55097ION     NA98014  22.872   3.679   3.510  0.2031  0.3638  0.1032
55098ION     NA98015   6.111  14.013   1.598  0.2156  0.0560 -0.1184
55099ION     NA98016   3.892  21.831   5.796 -0.4477  0.7999 -0.2483
55100ION     NA98017  17.337  32.918   0.636 -0.0174  0.6085 -0.0963
55101ION     NA98018  28.494   7.498   5.446  0.1758  0.4268  0.0715
55102ION     NA98019  28.090  26.601   2.439 -0.3625  0.1818 -0.3375
55103ION     NA98020  12.917  29.593   1.585 -0.3705  0.3314 -0.7133
55104ION     NA98021  34.191  23.414   8.374 -0.0906 -0.1759  0.0660
55105ION     NA98022  24.699  16.060   5.405 -0.4322  0.1416  0.2073
55106ION     NA98023  16.741   0.141   4.459  0.5362  0.1344 -0.9331
55107ION     NA98024  20.304  14.722  30.617  0.1877 -0.0466 -0.3726
55108ION     NA98025   1.199   3.832   7.635  0.0267  0.3747 -0.1540
55109ION     NA98026   5.272  24.344  30.958  0.4576 -0.0115 -0.4947
55110ION     NA98027  24.159  31.724   3.170 -0.4240  0.0420 -0.2918
55111ION     NA98028  16.225  11.368   4.213 -0.1230  0.1938  0.0507
55112ION     NA98029   6.907  17.766   8.204  0.2468  0.0106 -0.1441
55113ION     NA98030  10.578  15.347   3.927 -0.2592 -0.2871  0.3879
55114ION     NA98031   1.355   2.774   5.061 -0.0917  0.6278 -0.2350
55115ION     NA98032  28.966  22.645   6.638  0.0576  0.2354  0.1822
55116ION     NA98033   9.631  25.988   6.853  0.1698 -0.1008  0.1667
55117ION     NA98034  20.616  13.523   2.496  0.2858 -0.1449  0.2887
55118ION     NA98035  30.440   3.405   5.029 -0.3519  0.3859 -0.1389
55119ION     NA98036  18.415   6.738   7.379 -0.6313  0.4596 -0.4794
55120ION     NA98037  17.183  12.246   5.780  0.5718  0.0504 -0.0340
55121ION     NA98038  24.242  24.387   0.753 -0.1739 -0.1078 -0.0856
55122ION     NA98039  26.468  31.069   5.851  0.0382 -0.0435 -0.3940
55123ION     NA98040  13.768  31.914   7.887 -0.0645 -0.2134 -0.0748
55124ION     NA98041  14.025  25.165   8.338 -0.2812  0.6504 -0.5994
55125ION     NA98042  28.327  12.849   0.480 -0.3204  0.1785  0.1843
55126ION     NA98043  34.602   9.657   1.535 -0.0521 -0.3150 -0.4192
55127ION     NA98044   3.922  20.236  31.408  0.1896  0.2157  0.0670
55128ION     NA98045   5.116  27.860   4.751 -0.3822 -0.3352  0.1449
55129ION     NA98046  16.558  22.746   3.062  0.2955  0.1616 -0.3235
55130ION     NA98047  29.970  16.092   1.788  0.2348  0.3609  0.2083
55131ION     NA98048  15.828  18.348   6.409  0.4148 -0.0801  0.1734
55132ION     NA98049  15.670  17.204   9.047  0.0118  0.2955  0.0775
55133ION     NA98050  17.400  27.537   0.520 -0.0679  0.0346 -0.1575
55134ION     NA98051   1.178  10.262   7.127 -0.3334  0.5698  0.4300
55135ION     NA98052   7.106   9.913   1.801 -0.0602 -0.1269  0.4723
55136ION     NA98053   0.146   5.739   1.481 -0.3524 -0.3888  0.4490
55137ION     NA98054   5.160  23.196   1.521 -0.0593  0.3249 -0.1492
55138ION     NA98055  29.968  11.286   0.363 -0.0974  0.1957 -0.1838
55139ION     NA98056  23.767  14.289   2.823  0.1675 -0.0861 -0.4946
55140ION     NA98057  27.762  15.194   1.802 -0.2495  0.1115 -0.0198
55141ION     NA98058  16.535   4.925   5.583  0.0146  0.1385  0.1416
55142ION     NA98059  25.674  10.176   8.385  0.2427  0.2557 -0.2147
55143ION     NA98060  14.252  23.524   6.300  0.3152 -0.0095 -0.0095
55144ION     NA98061  16.960   9.985   7.603 -0.0749  0.2572  0.0131
55145ION     NA98062  30.991  28.619   7.080 -0.6241  0.7054  0.1435
55146ION     NA98063  27.253  18.517   7.678 -0.5696 -0.1684  0.0856
55147ION     NA98064   3.187  26.113   3.096 -0.1574  0.0902  0.0281
55148ION     NA98065  25.105  31.435   0.688 -0.7642  0.5282  0.5276
55149ION     NA98066  25.017   9.495   0.223 -0.2846 -0.0388  0.1174
55150ION     NA98067  23.800   0.866   1.408 -0.3123 -0.2332 -0.3534
55151ION     NA98068  10.376  29.113   7.918 -0.3796  0.0902 -0.2338
55152ION     NA98069  10.234  17.767   3.434  0.4744  0.0202  0.0173
55153ION     NA98070  24.615  17.992   6.471 -0.3649 -0.6672  0.3565
55154ION     NA98071  28.549   4.677   8.788 -0.0918  0.1260  0.1048
55155ION     NA98072  34.632   8.809   2.432  0.2313  0.1762  0.6124
55156ION     NA98073  12.219  22.528   4.107  0.2951 -0.4360  0.3516
55157ION     NA98074  19.444  18.478   8.769  0.0461 -0.3735 -0.1569
55158ION     NA98075  19.643   9.913   9.431 -0.2699 -0.5325 -0.3232
55159ION     NA98076  21.222   8.212   3.820  0.3443  0.0493  0.2043
55160ION     NA98077   5.539   8.099   0.318  0.2060 -0.1523 -0.3402
55161ION     NA98078  29.554  14.933   5.996  0.2853  0.0839 -0.2538
55162ION     NA98079   0.736  29.275   9.241 -0.0837 -0.0014  0.8032
55163ION     NA98080  32.705  25.564   3.931 -0.2979 -0.0206  0.1571
55164ION     NA98081  24.314  24.728   8.139  0.5071 -0.0081 -0.1988
55165ION     NA98082  19.510  30.970   8.041 -0.2742 -0.1508 -0.3983
55166ION     NA98083  18.255  11.916  30.086 -0.1002 -0.6277 -0.0679
55167ION     NA98084   1.911  10.598   4.837  0.0382 -0.1345  0.2812
55168ION     NA98085   6.141  30.241   8.889 -0.4003  0.0120 -0.7684
55169ION     NA98086  30.717  22.714   3.850 -0.4098  0.1541  0.0807
55170ION     NA98087   1.945  11.182   2.159  0.2495 -0.5538 -0.3562
55171ION     NA98088   7.669   5.124   4.380 -0.2713 -0.1276 -0.0077
55172ION     NA98089  23.195  32.352   2.566  0.2895 -0.0646  0.3405
55173ION     NA98090   3.476   2.706   5.953 -0.2749  0.3808  0.9334
55174ION     NA98091   5.516  14.683   0.694 -0.5097 -0.0895  0.1124
55175ION     NA98092   8.876  15.103   8.924  0.4735 -0.1419  0.0341
55176ION     NA98093   5.901  23.981   7.086 -0.5726 -0.2491  0.3698
55177ION     NA98094   4.423  28.132   7.317 -0.1026 -0.6914 -0.4198
55178ION     NA98095  10.808  32.560   0.200  1.0644  0.6846  0.6573
55179ION     NA98096  29.999   0.139   6.691  0.0800  0.5540 -0.1650
55180ION     NA98097  25.441   7.061   0.559  0.2699 -0.0426 -0.0674
55181ION     NA98098  13.688   5.405   3.494  0.2671  0.0527 -0.6247
55182ION     NA98099  25.861  12.084   2.562  0.3630 -0.3604 -0.0094
55183ION     NA98100  24.167  16.861   1.640 -0.7717 -0.1663 -0.2066
55184ION     NA98101  29.807   2.695   4.818 -0.0075 -0.7816 -0.1011
55185ION     NA98102  15.609  10.167   0.234 -0.2092  0.2796 -0.3510
55186ION     NA98103  26.022  24.725   8.482  0.2198  0.2486  0.0964
55187ION     NA98104  30.446   9.236   1.830  0.4728 -0.4057 -0.0525
55188ION     NA98105   9.742  26.866  10.619  0.0343  0.1293 -0.3125
55189ION     NA98106  24.154  16.892   4.274  0.0083  0.4456  0.1029
55190ION     NA98107  18.896   8.351   3.907 -0.0793 -0.2067 -0.1182
55191ION     NA98108   0.018  10.868   9.059  0.1238 -0.0951  0.3274
55192ION     NA98109  18.120  18.148   7.032 -0.0113  0.0165  0.4153
55193ION     NA98110  28.430  18.118   1.320 -0.1731  0.3529 -0.0431
55194ION     NA98111   1.827  20.431   5.323 -0.3392 -0.1596  0.2666
55195ION     NA98112   2.375  18.950   4.194 -0.1081 -0.0521  0.2121
55196ION     NA98113  32.658  22.987   8.392 -0.5961 -0.2034  0.2965
55197ION     NA98114  31.281  21.746   4.645  0.1560  0.2000 -0.5187
55198ION     NA98115   8.660   8.145   3.013 -0.1460 -0.1673  0.0664
55199ION     NA98116  15.545   1.301   5.595 -0.4306  0.0984 -0.1430
55200ION     NA98117   0.119   1.592   7.731  0.2403  0.5236 -0.1588
55201ION     NA98118  31.757  18.852   8.609  0.5218 -0.3478 -0.5493
55202ION     NA98119   9.689   5.753  31.228  0.3188  0.1453 -0.3901
55203ION     NA98120  26.191   3.675   9.106 -0.0632  0.1693  0.5752
55204ION     NA98121  19.288  19.614   1.684 -0.7034 -0.5715  0.0051
55205ION     NA98122  28.294   1.694   4.583 -0.2808 -0.0373  0.1020
55206ION     NA98123   1.127  16.383   1.956  0.3100  0.7248 -0.0242
55207ION     NA98124  11.206  31.276   5.532 -0.1607 -0.0413 -0.0083
55208ION     NA98125  28.369  34.097   0.507  0.2364 -0.2724 -0.7345
55209ION     NA98126  12.171   4.332   5.748  0.4290 -0.6384 -0.5465
55210ION     NA98127   1.589  14.457   3.758  0.6843  0.6054  0.3027
55211ION     NA98128   4.050   8.997   4.539 -0.1743 -0.3008  0.0820
55212ION     NA98129   9.220  11.438  31.174 -0.3013  0.0515  0.3000
55213ION     NA98130  27.555  31.046  31.412 -0.2653 -0.0295 -0.4221
55214ION     NA98131  34.305  29.301   7.330 -0.0629  0.4748  0.5600
55215ION     NA98132  29.378   4.540   6.815  0.1022 -0.4009  0.2939
55216ION     NA98133  29.289   2.330   6.590 -0.2631  0.1441 -0.1712
55217ION     NA98134   4.930   0.966   3.974 -0.0820 -0.0011  0.0520
55218ION     NA98135  30.625  19.981   1.920 -0.4205  0.1366  0.1887
55219ION     NA98136  30.132  14.551   8.113 -0.1180 -0.3733  0.1662
55220ION     NA98137  24.105  29.005   8.262  0.3201 -0.1119  0.0236
55221ION     NA98138  21.759  15.900  30.536 -0.0907  0.5208 -0.2734
55222ION     NA98139   2.167  30.822   1.165 -0.4576 -0.3478  0.5598
55223ION     NA98140  18.565  17.535   4.476 -0.7784  0.0042  0.2864
55224ION     NA98141   4.596  26.329   6.649  0.0950 -0.2025  0.2439
55225ION     NA98142  29.376  15.341   1.731  0.1557  0.0858 -0.6754
55226ION     NA98143  29.550   8.542   1.453  0.7219  0.3553  0.3329
55227ION     NA98144  32.138  32.992   1.290 -0.3936  0.6339  0.2094
55228ION     NA98145   2.012  22.279   3.693  0.3756  0.0803  0.3813
55229ION     NA98146   1.926  16.920   8.669 -0.6508  0.1940  0.4519
55230ION     NA98147  22.308  15.787   7.248 -0.1142 -0.0100  0.4110
55231ION     NA98148  31.812  20.202   3.036  0.2686 -0.1042 -0.3785
55232ION     NA98149   8.780  14.264   2.059  0.1139 -0.0823 -0.2759
55233ION     NA98150  10.687  21.461   4.531  0.1141  0.6348  0.4389
55234ION     NA98151  20.418  20.132   1.538 -0.3001  0.4363  0.3606
55235ION     NA98152  18.084  16.320   4.833 -0.0292 -0.1215 -0.4706
55236ION     NA98153   3.355  28.797   6.524  0.3803  0.0652  0.3292
55237ION     NA98154  23.483   3.301   1.439 -0.0188 -0.4218 -0.1001
55238ION     NA98155  34.465  22.274   8.570 -0.0813  0.3645 -0.1903
55239ION     NA98156  30.790  25.249   7.697  0.3787 -0.4508 -0.3615
55240ION     NA98157  19.394  10.562   3.729  0.4736 -0.2170  0.7720
55241ION     NA98158  27.394  20.667   4.155 -0.2461 -0.2084 -0.2200
55242ION     NA98159  19.847  31.874   6.695 -0.3090 -0.1146  0.3110
55243ION     NA98160  11.737  26.489   5.703  0.1986  0.4671  0.0706
55244ION     NA98161  20.626   6.541   8.427  0.2656 -0.0058 -0.0065
55245ION     NA98162  13.619  32.178   9.517  0.0189 -0.0324  0.0117
55246ION     NA98163   5.724  18.742   8.766 -0.1681  0.4227 -0.1659
55247ION     NA98164   1.784  25.176   5.041  0.3851  0.1147  0.2321
55248ION     NA98165  22.985  21.550   7.171  0.0553 -0.5480 -0.1761
55249ION     NA98166  33.246   8.204   6.455 -0.0864  0.6623 -0.0546
55250ION     NA98167   1.639  21.394   8.222  0.1357 -0.5510 -0.1318
55251ION     NA98168   7.665  26.072   3.643 -0.2419 -0.4241  0.0930
55252ION     NA98169  25.021  25.838  31.749 -0.0758  0.4643 -0.0528
55253ION     NA98170   5.004   0.633   1.599 -0.1087 -0.2724 -0.1489
55254ION     NA98171   1.857   5.421   8.025 -0.3114 -0.3056  0.3459
55255ION     NA98172  16.061  14.854   9.309  0.3537 -0.2059  0.0511
55256ION     NA98173  25.747   8.656   1.843 -0.1181 -0.1046  0.0182
55257ION     NA98174  27.413  22.728  31.512  0.0886  0.0493 -0.1076
55258ION     NA98175   0.240  18.051  31.833 -0.1189 -0.7559  0.1523
55259ION     NA98176  20.273  15.094   5.191  0.5091 -0.5263 -0.4256
55260ION     NA98177  32.122  25.954   3.718 -0.0967  0.3254  0.1846
55261ION     NA98178  14.525   1.880   0.856  0.1957 -0.3612  0.0225
55262ION     NA98179  17.765  18.358   2.542  0.2731 -0.0958 -0.4094
55263ION     NA98180  32.518  17.810   8.610 -0.4711  0.0285 -0.0204
55264ION     NA98181   3.402   4.328   9.599 -0.0713 -0.3934  0.3319
55265ION     NA98182  22.621  33.820   2.150  0.3811 -0.1920 -0.0148
55266ION     NA98183   3.159  13.084   1.748  0.4735 -0.2178 -0.2269
55267ION     NA98184  27.043  29.502   3.123  0.3031 -0.0302 -0.4648
55268ION     NA98185  32.926  26.746   5.825  0.6132  0.4771  0.4956
55269ION     NA98186   9.500   7.943   8.072  0.3350  0.2277 -0.0872
55270ION     NA98187  17.562  16.349   1.493  0.2512  0.0793 -0.3523
55271ION     NA98188   0.825  12.019   4.845 -0.0743 -0.0910  0.1432
55272ION     NA98189  25.523  12.657   3.081  0.0293 -1.0128  0.2178
55273ION     NA98190  22.688  23.397   6.865  0.3476 -0.0715  0.0354
55274ION     NA98191   2.709  30.503   4.316  0.1836  0.3251 -0.0663
55275ION     NA98192  27.517   2.146   6.622 -0.0770 -0.4732  0.6142
55276ION     NA98193   6.456  27.775   8.475 -0.2510  0.0137  0.2209
55277ION     NA98194   1.974  18.111   8.544 -0.1741 -0.0499 -0.1202
55278ION     NA98195   4.306  25.400   1.931  0.5830 -0.4277  0.1568
55279ION     NA98196  18.347  19.417   7.960 -0.1341  0.1799 -0.1836
55280ION     NA98197   2.680  14.091   5.410 -0.1494  0.0949  0.2841
55281ION     NA98198  29.325   9.521   8.290  0.1818  0.3066  0.2327
55282ION     NA98199  19.139  26.170   3.685  0.2438 -0.0203 -0.0963
55283ION     NA98200  15.390  20.750   1.092 -0.0797  0.1761  0.3605
55284ION     NA98201   6.695  25.661   2.381 -0.4854 -0.2415  0.0940
55285ION     NA98202   5.034  30.014   6.748 -0.7563  0.2399  0.6050
55286ION     NA98203   0.846  20.724   5.620  0.2102  0.1896  0.3549
55287ION     NA98204  22.319  33.943   1.041  0.4901 -0.5243 -0.0097
55288ION     NA98205  34.617   0.055   4.972 -0.0588  0.8473  0.8653
55289ION     NA98206   8.709   8.015   5.423 -0.0263  0.2111  0.2953
55290ION     NA98207  19.403  17.883   9.645 -0.7048  0.1018 -0.6061
55291ION     NA98208   1.733  34.245   7.196  0.7673  0.0913  0.3301
55292ION     NA98209  34.353  15.499   2.683 -0.2530  0.3570 -0.1674
55293ION     NA98210  30.402   0.041   4.102  0.3116  0.6643 -0.1310
55294ION     NA98211  16.616  26.034   6.848 -0.8362 -0.0305 -0.1789
55295ION     NA98212   2.657  15.489   8.166 -0.2891 -0.4267 -0.2476
55296ION     NA98213  13.251   5.396   2.907 -0.0542  0.1340 -0.3020
55297ION     NA98214  13.851  25.063   1.065 -0.4387  0.0965  0.4532
55298ION     NA98215   7.534  24.322   1.956 -0.2803 -0.0593  0.4907
55299ION     NA98216  23.380  27.894   6.555 -0.0056 -0.3386 -0.1407
55300ION     NA98217  13.442  28.716   5.175 -0.1926  0.1504 -0.2217
55301ION     NA98218  26.155  30.288   2.528 -0.2982 -0.0041 -0.3050
55302ION     NA98219   7.757  10.210   9.097 -0.1237  0.4243 -0.1975
55303ION     NA98220  28.866  27.723   1.266  0.2708 -0.0114 -0.1049
55304ION     NA98221  20.624  14.463   8.843  0.1835  0.3694 -0.1927
55305ION     NA98222  10.222  20.198   0.729 -0.5460 -0.6349 -0.3817
55306ION     NA98223  30.535  16.477   2.660 -0.3216  0.1558 -0.1963
55307ION     NA98224  11.847   9.204   2.157 -0.2718 -0.5392  0.1668
55308ION     NA98225   4.171  15.065   1.412  0.1003 -0.0506 -0.1995
55309ION     NA98226  21.737   9.848   1.018 -0.1637  0.4662  0.3669
55310ION     NA98227  26.635  28.559   2.840 -0.0615  0.4351  0.3505
55311ION     NA98228  13.434  22.039   6.244 -0.0738 -0.0914 -0.4229
55312ION     NA98229  19.648  26.351   8.295 -0.2978 -0.1216 -0.0586
55313ION     NA98230  14.115  20.652  29.909 -0.0846  0.1099 -0.5058
55314ION     NA98231  32.042  20.736   2.295 -0.4196 -0.1454 -0.3964
55315ION     NA98232   4.628   7.719   7.764 -0.3206 -0.1875  0.4387
55316ION     NA98233   0.527  26.027   7.498  0.0847 -0.1002  0.3845
55317ION     NA98234   6.660  10.138   0.794  0.0196  0.6037 -0.3300
55318ION     NA98235  22.859  34.569   3.963  0.1194 -0.2473 -0.1080
55319ION     NA98236  19.104   7.590   4.520  0.3907 -0.3870 -0.1865
55320ION     NA98237  19.815   2.747   3.249  0.6264 -0.0022 -0.2816
55321ION     NA98238   2.143  26.731   3.894  0.0489 -0.4158  0.3416
55322ION     NA98239  30.961  31.485   0.758 -0.1420 -0.3132 -0.1020
55323ION     NA98240  13.096  28.413   9.992  0.2420  0.2290 -0.0658
55324ION     NA98241  19.256  21.071  31.785 -0.1523 -0.1903  0.0532
55325ION     NA98242  31.548   4.234   5.655 -0.2651  0.1582 -0.2259
55326ION     NA98243  16.269  13.274   5.381  0.1139 -0.7407  0.2680
55327ION     NA98244   1.869  10.463   8.250 -0.6028  0.1282 -0.2249
55328ION     NA98245  34.499   0.409   9.092 -0.6471 -0.6468  0.2556
55329ION     NA98246  23.578  31.788   5.419  0.0561 -0.3863 -0.3064
55330ION     NA98247  32.099   3.823   2.483  0.4555 -0.0112  0.8435
55331ION     NA98248  29.251  31.966   2.636  0.2893 -0.5045  0.0329
55332ION     NA98249  17.317   2.175   1.424  0.2321  0.0940 -0.5024
55333ION     NA98250  25.182  34.220   0.708  0.4149  0.4905  0.5448
55334ION     NA98251  13.835  32.062   0.264 -0.2436  0.0059  0.4360
55335ION     NA98252   5.801  16.379   2.445  0.2852  0.2657  0.0489
55336ION     NA98253  25.558  29.704   1.859  0.0661  0.1171 -0.2627
55337ION     NA98254  27.520  18.242   1.435  0.1431 -0.1337 -0.1224
55338ION     NA98255  25.029  10.962   5.508 -0.6675  0.0447  0.2517
55339ION     NA98256  29.645  10.454   8.461 -0.2780 -0.0306 -0.0916
55340ION     NA98257  24.236   6.335   8.422  0.4400  0.1892  0.0921
55341ION     NA98258  30.582  23.086   4.472  0.2367 -0.1152  0.2194
55342ION     NA98259  29.356  15.542   3.957 -0.0679  0.4755  0.2062
55343ION     NA98260  14.746  28.923  10.337 -0.1328  0.4075  0.5672
55344ION     NA98261  22.732  15.423   2.653  0.1641 -0.0132  0.3391
55345ION     NA98262   3.256  29.738   0.877  0.7255 -0.0323  0.2430
55346ION     NA98263   7.617  16.842   7.754  0.0269  0.2717  0.5747
55347ION     NA98264  25.803  29.493   8.420 -0.7027 -0.2646 -0.2184
55348ION     NA98265   0.834   4.467   7.764 -0.2411  0.2091 -0.4544
55349ION     NA98266   5.781  28.128  30.386 -0.4371 -0.2853 -0.1157
55350ION     NA98267   5.396   3.807  10.369 -0.0811  0.1976  0.0123
55351ION     NA98268  21.370  26.309   4.098 -0.5888  0.1463  0.1299
55352ION     NA98269  26.775  34.156   3.786  0.2503 -0.3283  0.1637
55353ION     NA98270  23.006  26.174   4.601  0.4676  0.4897 -0.1159
55354ION     NA98271  34.286  25.536   8.400  0.1457 -0.5888 -0.1617
55355ION     NA98272  22.012  31.740  31.928 -0.0057 -0.1555 -0.0849
55356ION     NA98273  32.834  24.019   6.163 -0.1495 -0.0661 -0.1781
55357ION     NA98274   9.541   3.290  10.474  0.2741  0.6515  0.1596
55358ION     NA98275   7.659  31.263   4.261  0.5404 -0.0234  0.1983
55359ION     NA98276  16.114  23.525   5.419 -0.2544 -0.0474  0.3911
55360ION     NA98277  12.481   8.605   7.929 -0.0524 -0.0801  0.1751
55361ION     NA98278   4.005   4.769   8.673  0.4320 -0.0404  0.1947
55362ION     NA98279  19.915  17.796   4.598  0.5387 -0.0627  0.0738
55363ION     NA98280  14.582   0.890   9.404  0.3639 -0.0597 -0.0579
55364ION     NA98281  27.821   3.921   4.816 -0.3992 -0.1450  0.4207
55365ION     NA98282  28.835   1.096   5.441  0.0621 -0.4296  0.3801
55366ION     NA98283  28.882  27.092   4.065 -0.5286  0.0135 -0.2227
55367ION     NA98284  27.699  18.502  31.507  0.3622 -0.3035 -0.2589
55368ION     NA98285   7.855   2.666   9.847 -0.2918 -0.0344  0.0467
55369ION     NA98286  25.729   5.314   7.399 -0.0647 -0.5351  0.2769
55370ION     NA98287  25.184  10.397   6.701  0.0289 -0.2280  0.0880
55371ION     NA98288  17.217  17.323  30.680  0.1562 -0.6930 -0.2235
55372ION     NA98289  27.200  31.353   7.768 -0.0467  0.3081  0.3207
55373ION     NA98290   4.606   8.481   5.807 -0.3788 -0.5504  0.1854
55374ION     NA98291  30.161  31.448   3.617  0.0320 -0.2827  0.0842
55375ION     NA98292   2.337  23.428   6.521 -0.1796 -0.5674  0.1155
55376ION     NA98293  33.460   8.235   8.002 -0.1835  0.1346 -0.0683
55377ION     NA98294   1.581  13.885   3.072 -0.2407  0.5289  0.1644
55378ION     NA98295   1.484  19.895  31.220  0.3612  0.1120 -0.3660
55379ION     NA98296  31.939  32.962   6.631  0.1991  0.3980  0.2640
55380ION     NA98297   7.516  19.705   7.662  0.5058 -0.3331  0.0715
55381ION     NA98298  20.243  31.758   7.594  0.5662  0.1693  0.2892
55382ION     NA98299  27.832  32.226   1.096  0.3228  0.0406 -0.5327
55383ION     NA98300  31.349   4.562   8.801 -0.4259  0.4288 -0.2759
55384ION     NA98301  14.689   1.767   4.734 -0.0163  0.3565 -0.4807
55385ION     NA98302   1.427  17.450   3.329  0.5252 -0.0224  0.0734
55386ION     NA98303   7.772   9.859   0.111  0.0362 -0.1734 -0.3102
55387ION     NA98304  14.481  13.064   0.884 -0.2515  0.1738  0.3949
55388ION     NA98305  10.622   8.681   6.564  0.8767  0.4055  0.2672
55389ION     NA98306   7.855  10.210   7.983 -0.5612  0.5492  0.4719
55390ION     NA98307   1.245   1.657   4.232  0.3302  0.1953 -0.4668
55391ION     NA98308  18.477  18.302   4.107  0.0199  0.3354 -0.5305
55392ION     NA98309  17.355  20.655   3.988 -0.1804  0.1412  0.3998
55393ION     NA98310  16.251   9.388   9.089  0.0933 -0.0558  0.3327
55394ION     NA98311  23.331  10.172   9.498  0.0864  0.4175 -0.2029
55395ION     NA98312   7.212   5.688   8.271 -0.4686 -0.5657  0.0656
55396ION     NA98313  25.366  27.416   4.440 -0.4426  0.0531 -0.2587
55397ION     NA98314   3.990  18.676   4.731 -0.5317  0.4625  0.3182
55398ION     NA98315  29.448  25.058   3.957  0.2180  0.2203 -0.2763
55399ION     NA98316  12.760  18.764   0.725  0.0372  0.1983 -0.3544
55400ION     NA98317   2.587  24.622   8.137  0.6441 -0.3420 -0.1066
55401ION     NA98318   7.856   8.645   4.844 -0.2733  0.0543  0.2674
55402ION     NA98319  18.875  33.443   4.333  0.0761  0.1862  0.0751
55403ION     NA98320  11.156  12.513   1.711  0.2713  0.1172 -0.0151
55404ION     NA98321  21.460  22.101   0.378  0.2599 -0.5090 -0.2484
55405ION     NA98322  22.909  18.953   0.959 -0.0284  0.2662 -0.3280
55406ION     NA98323  10.501   4.192   8.726  0.1469  0.8224  0.3523
55407ION     NA98324  34.497  24.601   6.258  0.0112  0.2760  0.0640
55408ION     NA98325  19.422  13.752   3.434  0.1826 -0.1613 -0.5080
55409ION     NA98326  16.595  18.255   4.669 -0.3874  0.3103 -0.0252
55410ION     NA98327  31.342  11.709   3.231  0.0817 -0.0980 -0.3160
55411ION     NA98328   9.191  27.176   7.175 -0.7180 -0.1878 -0.3113
55412ION     NA98329  12.638  27.936   8.480 -0.1090  0.3790  0.0218
55413ION     NA98330   6.215  22.230   6.277 -0.0563  0.2976  0.3368
55414ION     NA98331  32.931  10.579   7.581 -0.4882  0.3896  0.1891
55415ION     NA98332  22.426  32.931   2.291 -0.1634  0.0210  0.2320
55416ION     NA98333   1.004  28.115   3.813  0.0692  0.4459  0.6274
55417ION     NA98334  27.540  13.680   8.382 -0.0949  0.0131  0.2004
55418ION     NA98335  16.996  23.752   0.731  0.4356  0.2546 -0.4209
55419ION     NA98336   7.859  16.001   1.968  0.5668  0.2108  0.1533
55420ION     NA98337  21.987  11.537   2.073 -0.0332  0.0155  0.0894
55421ION     NA98338  27.098  30.854   1.819 -0.4258 -0.0813 -0.0421
55422ION     NA98339  26.358  18.690   0.952 -0.3591  0.2935  0.8817
55423ION     NA98340   9.410  26.179   3.699 -0.3402  0.4423  0.2956
55424ION     NA98341   1.140   1.268   7.160  0.5473  0.2402 -0.0266
55425ION     NA98342  14.309  20.385   5.785  0.2421 -0.2188 -0.0876
55426ION     NA98343  10.318  25.432   9.522  0.2655 -0.2028  0.1339
55427ION     NA98344  21.991  15.083   0.402  0.4208  0.3341  0.0261
55428ION     NA98345  18.183  30.780   7.888  0.0517 -0.2101 -0.2987
55429ION     NA98346  14.380  18.152  31.021 -0.5672 -0.3592  0.2367
55430ION     NA98347  11.732   1.707   6.702 -0.1116  0.0467 -0.2340
55431ION     NA98348  33.265  26.693   2.294  0.3744 -0.2508  0.6061
55432ION     NA98349  13.002  13.380   8.543 -0.5884  0.0890 -0.1901
55433ION     NA98350  27.520  11.286   8.257 -0.1733 -0.4102  0.4122
55434ION     NA98351  18.954   6.637   0.478 -0.0252  0.4030  0.6052
55435ION     NA98352   3.684  26.655   7.711 -0.4552  0.4772 -0.2987
55436ION     NA98353   0.322   0.015   2.047  0.1073 -0.0432  0.0593
55437ION     NA98354  29.600   0.908   7.185 -0.1197 -0.3186 -0.0833
55438ION     NA98355  31.382  12.341   3.879 -0.6807 -0.3570 -0.0308
55439ION     NA98356  19.526  32.129   8.539  0.1301  0.2863  0.6695
55440ION     NA98357  19.258  14.759   2.753 -0.1368  0.2930 -0.1022
55441ION     NA98358  22.048  21.877   1.791  0.2853  0.1538  0.1935
55442ION     NA98359  15.587  12.161   5.337  0.0095  0.0295  0.0258
55443ION     NA98360  10.216  27.848   1.748 -0.6378 -0.3267  0.1689
55444ION     NA98361   0.740   1.310   4.831  0.0164 -0.5724  0.1398
55445ION     NA98362   3.308   6.109   9.267  0.8788 -0.3091 -0.0321
55446ION     NA98363  16.063   5.566   3.399 -0.5315 -0.0739  0.1471
55447ION     NA98364  32.932  24.433   1.315  0.1248 -0.0505  0.4537
55448ION     NA98365   0.778  14.702   4.641 -0.0879  0.1651  0.0208
55449ION     NA98366  22.665  15.419   3.449  0.0231  0.4544  0.1521
55450ION     NA98367  30.837  29.785   3.112 -0.2411  0.3411 -0.4344
55451ION     NA98368  28.649   8.275   8.752  0.2971 -0.5302  0.5372
55452ION     NA98369  19.422  32.205   6.135  0.1518 -0.4973 -0.4757
55453ION     NA98370   2.995  34.254   8.013 -0.3928 -0.1892  0.1189
55454ION     NA98371   8.264  26.389   2.298  0.0498 -0.0486  0.4774
55455ION     NA98372  18.731   1.437   4.058  0.6656  0.2407 -0.4615
55456ION     NA98373  22.839   6.312   1.544  0.0010  0.0445  0.1702
55457ION     NA98374  15.142  25.639   3.348  0.3254 -0.6159  0.2665
55458ION     NA98375  25.056  34.376   4.712 -0.4585  0.3931 -0.9695
55459ION     NA98376   9.492  15.398   2.354  0.3307  0.0597  0.1523
55460ION     NA98377  21.032   7.425   7.509 -0.1188 -0.4589 -0.0593
55461ION     NA98378   1.474  28.820   0.414 -0.2316 -0.2463 -0.6807
55462ION     NA98379  19.451  18.820   6.253  0.2047 -0.5376 -0.2806
55463ION     NA98380  26.455  23.549   8.601 -0.1806  0.1013 -0.1430
55464ION     NA98381  19.980   6.519   2.029 -0.3033 -0.5370  0.2350
55465ION     NA98382   0.271  33.651   3.605 -0.5693 -0.3342 -0.5963
55466ION     NA98383  20.457  25.153   3.606  0.6032 -0.1776  0.3424
55467ION     NA98384   8.923  11.781   6.463  0.6649  0.6579  0.4887
55468ION     NA98385  17.367   1.942   6.034  0.2058  0.1687 -0.1781
55469ION     NA98386   0.265  20.769   0.060  0.3021  0.4567  0.0842
55470ION     NA98387   6.354  16.936   0.022 -0.2243 -0.7658 -0.4749
55471ION     NA98388  10.932  26.488   9.625 -0.1228  0.0818  0.0567
55472ION     NA98389   7.939   0.439   5.287 -0.2905  0.2027  0.3731
55473ION     NA98390  24.596   2.301   4.677  0.1786  0.0925  0.3920
55474ION     NA98391  28.039  34.360   8.337 -0.3702 -0.9593  0.2571
55475ION     NA98392  27.109   7.894   1.112 -0.0863  0.0317 -0.1650
55476ION     NA98393   9.496  17.042   1.753  0.0084  0.5108 -0.0516
55477ION     NA98394  20.101  21.091  30.884 -0.0653 -0.0625  0.2211
55478ION     NA98395  19.130  32.106   0.867  0.3627  0.1640  0.7484
55479ION     NA98396  18.905  28.427   4.588  0.2461 -0.0089 -0.5889
55480ION     NA98397  20.606   6.602   3.832 -0.4131 -0.0753 -0.8758
55481ION     NA98398   7.804  20.485   2.164  0.2694 -0.1698 -0.1162
55482ION     NA98399  29.693  18.179   1.557 -0.1310  0.2810  0.1195
55483ION     NA98400   0.199   2.648   4.187  0.1544  0.0324  0.3205
55484ION     NA98401  23.444  29.537   8.493 -0.5439  0.3399  0.3461
55485ION     NA98402   2.723  25.183   3.814 -0.1934 -0.3471  0.6907
55486ION     NA98403  18.368   1.469  31.727  0.0180  0.5133 -0.4445
55487ION     NA98404   8.755  31.802   9.907 -0.0070  0.2610 -0.3118
55488ION     NA98405  17.744  22.905   4.090 -0.1751 -0.6051  0.0544
55489ION     NA98406  31.238   6.159   1.764  0.1140 -0.1834  0.2040
55490ION     NA98407  20.816  20.451   5.219  0.4658  0.0588  0.4077
55491ION     NA98408  33.246  26.884   7.275 -0.2710 -0.0049  0.2662
55492ION     NA98409  13.195  33.562   9.437  0.2268  0.2372 -0.2475
55493ION     NA98410  17.769  10.010   0.887 -0.2163 -0.4287  0.6159
55494ION     NA98411  19.937  25.262   1.604 -0.1059 -0.3067  0.1520
55495ION     NA98412  28.768   1.982   3.899 -0.0575  0.3148  0.1710
55496ION     NA98413   6.444   2.229  10.840  0.2580 -0.4077 -0.0391
55497ION     NA98414   4.101  32.265   5.902  0.2667 -0.0845  0.1700
55498ION     NA98415  11.131  21.811   0.099  0.1081 -0.0156  0.1779
55499ION     NA98416   2.997  12.048   3.090 -0.7342 -0.2394 -0.3224
55500ION     NA98417  15.203  23.492   4.966  0.1704  0.5270  0.0135
55501ION     NA98418  23.304   2.554   6.426  0.6117 -0.7154 -0.3653
55502ION     NA98419   3.329   3.946   4.284 -0.3257  0.4138 -0.2254
55503ION     NA98420  12.233  10.801   3.832  0.0579  0.0350 -0.6230
55504ION     NA98421  27.179  16.722   7.813 -0.0882  0.1428 -0.2311
55505ION     NA98422  27.347   0.148   2.792 -0.2220  0.3881 -0.4829
55506ION     NA98423  31.938   5.879   6.917 -0.6579  0.3572 -0.2136
55507ION     NA98424   0.371  13.082  31.831 -0.1231 -0.5897  0.0974
55508ION     NA98425  22.495   5.154   7.885  0.1906  0.4650 -0.7136
55509ION     NA98426  11.024  16.997   1.980  0.1679  0.0041 -0.1811
55510ION     NA98427  27.550  20.767   5.525  0.4346 -0.3387  0.2594
55511ION     NA98428   2.006   8.723   4.187 -0.0212 -0.2650  0.0595
55512ION     NA98429  12.337  14.908   7.328 -0.0463 -0.4274 -0.4085
55513ION     NA98430  30.373  20.681   8.160  0.3366 -0.2108  0.5115
55514ION     NA98431  29.019  17.208   2.399  0.6542  0.2556 -0.0335
55515ION     NA98432  14.456  21.055   4.116 -0.8206  0.2041  0.0574
55516ION     NA98433  25.652  33.451   8.142  0.0444  0.1689  0.4656
55517ION     NA98434   1.932  30.859   6.152  0.1068  0.1375 -0.7433
55518ION     NA98435   8.027   1.106   9.983 -0.8723  0.2938  0.6453
55519ION     NA98436  22.789  21.004   4.663  0.1184 -0.3652  0.0662
55520W        W98437   1.331   2.265   2.878  0.1375 -0.1123 -0.0943
55521W        W98438   1.231   1.375  31.903 -0.0494 -0.0726 -0.2926
55522W        W98439   4.867  33.918  29.981 -0.0642  0.1724 -0.3147
55523W        W98440   6.550   2.970   0.899 -0.0829  0.4366  0.0129
55524W        W98441  33.666   2.362   0.255  0.3293 -0.0488  0.0956
55525W        W98442   3.618   4.319   0.680 -0.0081 -0.0058  0.0791
55526W        W98443   1.098  34.227   1.717  0.3356  0.1863  0.2734
55527W        W98444   2.156   2.137   1.701 -0.1801  0.1784  0.1847
55528W        W98445   3.366   3.743   1.501  0.0044  0.1147  0.2263
55529W        W98446   3.857   2.181  31.346 -0.3787  0.4715  0.1191
55530W        W98447   1.640   1.787   1.696 -0.1386  0.1664 -0.2445
55531W        W98448   2.505   3.935   4.237  0.3373 -0.2242  0.3105
55532W        W98449   2.255  33.782   0.453  0.0108  0.1113 -0.1698
55533W        W98450   2.917   0.782   0.699  0.4226  0.2131  0.0149
55534W        W98451   2.648   0.543   1.635 -0.0748  0.0771 -0.1866
55535W        W98452  34.024   3.042   0.851 -0.0287 -0.0375  0.0949
55536W        W98453   0.008   1.949   1.268  0.1356  0.1663  0.1633
55537W        W98454   1.374   2.209  31.066 -0.2835 -0.0781  0.0384
55538W        W98455   1.703   3.510  31.510 -0.3239 -0.3384  0.2666
55539W        W98456   0.833   0.841   1.109 -0.2779  0.1221  0.2015
55540W        W98457   2.642   0.832   2.539 -0.2694  0.0826 -0.2354
55541W        W98458   2.135   0.665   1.601  0.2254  0.1241  0.3435
55542W        W98459  32.756   1.947   1.618  0.1378 -0.0523  0.1060
55543W        W98460  34.117   2.826   2.345 -0.0617  0.0827  0.0803
55544W        W98461  34.175   1.840   2.927  0.4226  0.1097 -0.0510
55545W        W98462   1.899  34.633   1.834  0.0995 -0.1930 -0.1347
55546W        W98463   3.318   2.947   3.046  0.0660 -0.2425 -0.3383
55547W        W98464   2.382   2.466   3.046 -0.2673 -0.1066 -0.1718
55548W        W98465   2.596   3.373   1.764  0.1430 -0.3390  0.1115
55549W        W98466   2.844   3.161   3.758  0.2127 -0.0782 -0.3550
55550W        W98467   0.815   1.935   1.943 -0.2193  0.2281 -0.1109
55551W        W98468   0.417   4.655   2.242 -0.1545 -0.0075 -0.1373
55552W        W98469   2.695   1.682   0.984 -0.1033 -0.2196 -0.0533
55553W        W98470   5.340   2.766   2.982  0.0862 -0.0861 -0.0216
55554W        W98471   2.569   2.519   1.553  0.1316  0.1395  0.2474
55555W        W98472   2.445   3.952   3.114  0.0182  0.1395  0.1492
55556W        W98473   0.285   2.654   0.172 -0.2223 -0.3200 -0.0172
55557W        W98474   1.787   2.934   3.652 -0.0004 -0.0633 -0.3298
55558W        W98475   1.593   3.471   3.323  0.0035 -0.0228 -0.2805
55559W        W98476   1.047   1.249   0.957  0.3203 -0.0561  0.0805
55560W        W98477   3.616   2.656  31.669  0.2380  0.4100 -0.0487
55561W        W98478   0.390   2.224  30.578  0.2041 -0.1329  0.1790
55562W        W98479   1.911   1.759   1.262 -0.0890  0.0645 -0.1106
55563W        W98480   3.330   2.472   2.886 -0.0659  0.4795  0.1951
55564W        W98481   0.136   3.409   0.692 -0.0160  0.4013  0.2340
55565W        W98482   2.881   0.753   3.434 -0.0678  0.1367 -0.2599
55566W        W98483   0.977   4.006  30.837  0.0596 -0.1755 -0.0185
55567W        W98484   4.233   3.167  31.109  0.1391  0.4236 -0.3296
55568W        W98485   1.272  33.508  31.436 -0.0141  0.0804 -0.2880
55569W        W98486   4.075   2.676  31.236 -0.1782  0.1836 -0.2253
55570W        W98487   1.143  33.902   1.168 -0.1814  0.0863  0.1172
55571W        W98488   1.795   3.872   2.656 -0.1777  0.1796  0.3159
55572W        W98489   1.448  34.645   1.061  0.1387  0.1840 -0.1704
55573W        W98490   2.109   0.141   2.843 -0.0734 -0.1459  0.1259
55574W        W98491   3.375   0.874  31.327 -0.0386  0.1745  0.0503
55575W        W98492   4.690   0.322   0.750  0.4361  0.0043 -0.1221
55576W        W98493   1.105   3.960   2.188 -0.3108 -0.0415  0.1254
55577W        W98494  34.243   1.951  31.932 -0.0170 -0.0396  0.0732
55578W        W98495   4.910   2.573   0.068  0.1883  0.2431  0.4903
55579W        W98496   4.894   3.672   0.682 -0.0585  0.1262  0.2903
55580W        W98497   5.037   2.552   0.565  0.0810  0.2340 -0.2282
55581W        W98498   2.097   2.477   0.692 -0.2723  0.0072 -0.1548
55582W        W98499   0.437   3.096   4.245 -0.2689  0.1698  0.0157
55583W        W98500   0.852   2.170   3.072  0.2921  0.2622  0.1008
55584W        W98501   2.783   1.361  31.945  0.1595  0.1462 -0.3344
55585W        W98502   4.118   3.595   2.290  0.3405  0.0951 -0.2812
55586W        W98503   1.028   2.355   3.793 -0.1442 -0.0421 -0.1833
55587W        W98504   3.568   0.941   2.743  0.1129  0.0180  0.0184
55588W        W98505   1.206   2.672   1.090 -0.1458 -0.0543 -0.1677
55589W        W98506   5.342   3.172   3.269 -0.1296  0.0025  0.2274
55590W        W98507   3.839   3.279  30.796  0.0447  0.0177 -0.0317
55591W        W98508   2.363   0.092   1.474  0.1327 -0.1473  0.3213
55592W        W98509   4.015  34.601   1.391  0.0945 -0.2880 -0.1518
55593W        W98510   3.439   2.119  31.032 -0.1268  0.1195  0.2045
55594W        W98511   2.574   2.781  31.438 -0.2263 -0.3037 -0.0765
55595W        W98512   3.260   3.034   1.299 -0.1395  0.1433  0.1896
55596W        W98513   4.642   2.996   1.531 -0.1123 -0.2600  0.2965
55597W        W98514   0.597   3.711   2.500 -0.2084 -0.0985 -0.1265
55598W        W98515   0.824   2.221   0.883  0.0212 -0.1742 -0.2012
55599W        W98516   1.209   2.974   2.029  0.1832  0.2267  0.0166
55600W        W98517   0.141   3.110   0.258  0.0329 -0.2022  0.0547
55601W        W98518   0.418   1.843   0.919 -0.0293  0.0374  0.3204
55602W        W98519  34.561   1.496  31.879 -0.0144 -0.2455 -0.1202
55603W        W98520   0.710   0.448   1.904 -0.0651 -0.1119  0.2009
55604W        W98521   2.431   1.809   1.392  0.1259 -0.0740  0.1783
55605W        W98522   4.408  33.185   1.913  0.1073  0.0750  0.2606
55606W        W98523   0.262   0.065   1.633 -0.0814 -0.1404 -0.0456
55607W        W98524   3.792  33.978   3.122  0.2682 -0.0165 -0.1473
55608W        W98525   1.660   2.543   0.989 -0.0358 -0.1602 -0.1254
55609W        W98526   2.232   2.513   0.024  0.0281  0.3616  0.2876
55610W        W98527   6.137   3.690   0.155  0.0043  0.1765  0.0192
55611W        W98528   4.721   3.350   1.148  0.1057 -0.3469  0.1581
55612W        W98529   0.857   1.874   1.268 -0.0423  0.1834  0.1009
55613W        W98530   1.958   1.017   1.235 -0.0851  0.0219  0.3859
55614W        W98531   0.550   1.446   2.166  0.5047  0.1549  0.1631
55615W        W98532   0.712   1.560  31.702  0.1584  0.1410  0.2098
55616W        W98533   2.833   0.380   2.511  0.0080  0.1245  0.1089
55617W        W98534   1.677   0.548  31.420 -0.0058  0.0514 -0.1446
55618W        W98535   4.553  34.621   0.030  0.1064  0.3262 -0.0062
55619W        W98536   2.188   1.734   0.795 -0.1218  0.0848  0.0085
55620W        W98537  34.554   1.092  31.259  0.1606 -0.1378  0.0355
55621W        W98538   2.484  33.850   3.679 -0.1074 -0.0645  0.0557
55622W        W98539   1.349   4.210  30.336  0.0304 -0.0933  0.0079
55623W        W98540   4.456   2.479   1.995  0.0684 -0.0152 -0.1644
55624W        W98541   4.227   5.027   2.116 -0.2450 -0.0497  0.0634
55625W        W98542   1.296   2.209   3.355  0.0252 -0.2027  0.0828
55626W        W98543   1.213   0.349   0.308 -0.1085 -0.1807  0.2713
55627W        W98544   0.026   2.559   1.864 -0.1627 -0.2379 -0.2702
55628W        W98545   1.607   4.495   0.517  0.0344 -0.1472  0.2564
55629W        W98546   3.109   2.363   0.534  0.0983  0.0739 -0.1318
55630W        W98547   2.993   3.710   1.994  0.2350  0.0838  0.2752
55631W        W98548   4.159   3.123   0.958  0.1721 -0.4884 -0.1119
55632W        W98549   1.259   1.645   3.521 -0.2470 -0.2002 -0.0490
55633W        W98550   4.613  33.859   1.696  0.1637  0.1162  0.2621
55634W        W98551   4.262   1.189   3.340 -0.0953  0.1603 -0.1370
55635W        W98552   4.315  34.664   2.636 -0.0314 -0.0915 -0.1736
55636W        W98553   0.167   0.663  30.102  0.2349 -0.0686 -0.0712
55637W        W98554   3.072   4.425   0.693  0.2817 -0.1536  0.1079
55638W        W98555   1.181   2.951   0.084  0.1992 -0.2492 -0.1937
55639W        W98556  34.180   1.103  30.888  0.2785 -0.0776 -0.0732
55640W        W98557   4.114   2.309   0.628 -0.1216  0.0481 -0.0449
55641W        W98558   3.942   0.585   0.939 -0.0904 -0.0812  0.0517
55642W        W98559   0.835   1.983   3.537  0.3705  0.1292 -0.2605
55643W        W98560   1.587   0.323   2.947  0.4606  0.0245  0.0431
55644W        W98561  33.769   1.808  30.695  0.1242 -0.1748 -0.3924
55645W        W98562   0.634   3.941   4.064  0.0267  0.1525 -0.4445
55646W        W98563   2.846   2.015   1.421 -0.5379  0.1671  0.0441
55647W        W98564   3.334   2.175   0.080  0.0100 -0.0427 -0.3276
55648W        W98565   2.573   1.448   1.988  0.1263  0.0637  0.0080
55649W        W98566   4.487   0.050   1.337 -0.1766  0.0835  0.0915
55650W        W98567   3.334   0.286  29.994  0.0603  0.3166  0.0033
55651W        W98568   3.411   1.619  31.322  0.1792 -0.0938 -0.2380
55652W        W98569   2.510   1.989   2.968 -0.2986  0.1804  0.1615
55653W        W98570   2.778   3.713   0.159 -0.1373 -0.1119  0.0434
55654W        W98571   2.118   1.949   2.229 -0.0151 -0.2621 -0.2069
55655W        W98572   2.177   0.314  31.401  0.0370  0.0189  0.2198
55656W        W98573   2.133   0.502   2.490 -0.1001  0.1856  0.3926
55657W        W98574   0.963   3.948   2.691  0.0097 -0.0869 -0.3464
55658W        W98575   1.198   1.778   3.015  0.0367 -0.2905  0.1201
55659W        W98576   3.187   3.557   1.060 -0.0622 -0.0968  0.1730
55660W        W98577   3.045   0.479   2.076  0.1381 -0.2079  0.0414
55661W        W98578   3.358   0.994  31.913 -0.2021  0.0723  0.0706
55662W        W98579   4.120  34.330   2.268 -0.1971  0.1445 -0.0382
55663W        W98580   0.485   4.770  31.249  0.4893 -0.0939  0.1211
55664W        W98581   5.882  34.093   2.679 -0.2736 -0.1650 -0.0208
55665W        W98582   1.637   0.311   1.422 -0.0089 -0.1582  0.1742
55666W        W98583   3.118  34.476   2.530  0.0533  0.0059 -0.1215
55667W        W98584   2.184   2.709   1.782 -0.1072  0.2607  0.3172
55668W        W98585   3.743   2.296   0.331  0.1639  0.0161 -0.2878
55669W        W98586   5.012   2.084   2.992  0.0104  0.1619  0.2366
55670W        W98587   2.470   1.833  29.599 -0.1122  0.3034  0.0394
55671W        W98588   0.928   1.600   0.320 -0.2019  0.2452  0.2563
55672W        W98589   3.442  34.429   2.948 -0.0616  0.3689 -0.2918
55673W        W98590   0.173   4.190   2.543 -0.1955 -0.4815 -0.0581
55674W        W98591   5.318   2.934   3.772  0.1552 -0.0464 -0.1158
55675W        W98592   2.886   2.889   0.497  0.1583  0.0462  0.0736
55676W        W98593   0.796   1.874   2.702  0.1926 -0.1052 -0.0137
55677W        W98594   4.155   0.325  31.927 -0.1344 -0.1223  0.0346
55678W        W98595   1.268   2.633   2.398 -0.5375 -0.0722 -0.3307
55679W        W98596   0.588   4.967  31.816 -0.2530  0.1813 -0.2890
55680W        W98597   1.240   0.556   1.162 -0.0454 -0.3238  0.3190
55681W        W98598   3.818   1.279   3.037 -0.2430  0.3571  0.2344
55682W        W98599   3.062   3.652  31.435 -0.4382  0.0984  0.0933
55683W        W98600   2.488   1.458   2.950  0.0200  0.1003 -0.1820
55684W        W98601   1.354   3.390   0.440  0.4229  0.1829 -0.2173
55685W        W98602   3.801  34.123   1.470  0.3300  0.1135 -0.1627
55686W        W98603  34.325   3.849   2.311  0.1096  0.0013 -0.0253
55687W        W98604   0.805   0.781  31.306 -0.0235 -0.1577  0.1723
55688W        W98605  31.534   3.254   1.731  0.0550 -0.1642  0.2713
55689W        W98606   4.377   1.006   0.153  0.0444 -0.1228 -0.0345
55690W        W98607   5.335   3.762   0.464  0.3227 -0.2159  0.1627
55691W        W98608   1.594   1.588   0.948  0.2232  0.1820  0.3020
55692W        W98609   4.739  33.354   1.537 -0.0649 -0.1260 -0.1365
55693W        W98610   0.024   3.679   3.467 -0.2268  0.0309  0.3627
55694W        W98611   2.825   1.534   1.537  0.0523  0.1310 -0.0363
55695W        W98612   2.847  34.173  31.118 -0.3652 -0.1695 -0.3636
55696W        W98613   2.472   3.532   2.282 -0.0288 -0.0437 -0.2368
55697W        W98614   3.520  34.581   4.183  0.0489 -0.1447  0.0871
55698W        W98615   0.901   1.115   0.429 -0.0481 -0.0194 -0.1818
55699W        W98616   2.250   1.087   2.727  0.2951  0.0236  0.3043
55700W        W98617   1.957   2.091  29.434  0.1835 -0.1925 -0.2658
55701W        W98618   2.825   3.281  30.581 -0.2804  0.0495 -0.2740
55702W        W98619   2.706   2.992   1.365 -0.0112 -0.0405 -0.1896
55703W        W98620   0.377   3.548   0.115 -0.1987 -0.2398  0.2711
55704W        W98621   0.087   1.423  30.854 -0.1005 -0.0096  0.0713
55705W        W98622   1.445   0.900   2.027  0.0973 -0.1925  0.0466
55706W        W98623   3.020   1.290   2.869 -0.2718  0.0516  0.2767
55707W        W98624   4.044   1.150   2.023  0.0358  0.0397 -0.2308
55708W        W98625   0.575   1.944  31.293 -0.2757 -0.1108 -0.0607
55709W        W98626   2.446   3.056   0.897  0.1128  0.1990  0.0572
55710W        W98627   5.154   0.787   1.977 -0.0202  0.0782  0.5822
55711W        W98628   2.047   2.507   3.425 -0.2293  0.1205 -0.0818
55712W        W98629   0.263   4.494   2.899  0.2369 -0.0566  0.2000
55713W        W98630   1.830   1.673   0.410  0.4184  0.3559  0.1488
55714W        W98631   5.407   3.319   0.831  0.1458 -0.0468  0.0918
55715W        W98632   2.617   1.050   1.521 -0.2480 -0.0035 -0.0901
55716W        W98633   3.395   1.731  30.721 -0.1621 -0.1874 -0.2730
55717W        W98634   0.413   0.958   0.450 -0.0362 -0.1566 -0.0591
55718W        W98635   1.688   2.291   1.432 -0.2677  0.5238 -0.3204
55719W        W98636   4.006  33.375   2.289  0.0609  0.2321  0.1492
55720W        W98637  34.196   3.615   3.470 -0.1596 -0.2505 -0.0564
55721W        W98638   0.512   1.832   0.411  0.1505  0.0891 -0.1468
55722W        W98639   0.652   2.508   2.345  0.1266 -0.1748  0.0287
55723W        W98640   4.136   0.448  30.776  0.1953 -0.1180 -0.1433
55724W        W98641   2.879   3.681   1.419  0.0588 -0.3330  0.0569
55725W        W98642   4.373   1.099   1.162 -0.1225  0.0461  0.0039
55726W        W98643   4.488   2.483   2.587  0.0627  0.3298  0.0864
55727W        W98644   1.566   0.834   1.501 -0.5306  0.1683 -0.4850
55728W        W98645   4.249  34.199   1.775 -0.2008  0.1349 -0.1172
55729W        W98646   1.095   0.622   1.678 -0.2778  0.0315  0.2994
55730W        W98647   2.397   2.206  31.495 -0.1477 -0.1827 -0.0608
55731W        W98648  34.566   1.969   3.366 -0.0497  0.0870 -0.2348
55732W        W98649   2.225   2.542   1.167  0.3017 -0.1337 -0.0808
55733W        W98650   0.476   2.496   3.756  0.1955 -0.0782 -0.0969
55734W        W98651   3.408   2.349   1.981 -0.0809  0.1264 -0.1621
55735W        W98652   2.170   2.062   0.422  0.2308  0.1201  0.1280
55736W        W98653   0.952   2.451   1.918 -0.2362 -0.1199 -0.3206
55737W        W98654   3.549   1.186   2.182  0.2371  0.2198  0.3649
55738W        W98655   3.457   3.184   0.304 -0.1442  0.4082  0.1212
55739W        W98656   3.552   0.731   2.068 -0.0012 -0.0152  0.2608
55740W        W98657   0.948   2.158   0.414  0.0365  0.4123  0.2052
55741W        W98658   3.957   2.362   1.347 -0.2593 -0.1073 -0.0961
55742W        W98659   4.638   1.841   2.658  0.2599 -0.1262  0.0335
55743W        W98660   2.387   1.256   0.900 -0.2067 -0.1492 -0.4765
55744W        W98661   2.540   1.666  31.544  0.1933 -0.1975  0.1834
55745W        W98662   3.039   2.615   1.663 -0.0742 -0.1932  0.1809
55746W        W98663   2.567   2.000  31.950  0.1173 -0.1276  0.2256
55747W        W98664   4.693  32.823   1.669 -0.1402 -0.1238 -0.0106
55748W        W98665   0.862   1.393   2.693  0.0261  0.1424 -0.1766
55749W        W98666   0.687   3.092   2.922  0.0082 -0.1730 -0.0759
55750W        W98667   0.451   1.708   1.484 -0.1634 -0.3086  0.0229
55751W        W98668   3.581   4.911   1.462  0.0832 -0.1365  0.0589
55752W        W98669   3.676   2.197   0.934  0.0751 -0.0896  0.0716
55753W        W98670   3.820   0.358   1.696 -0.0238  0.0695 -0.0496
55754W        W98671   5.435   2.224   2.219 -0.1484 -0.2305  0.0139
55755W        W98672   3.619   1.079   0.475 -0.0023  0.0106  0.1320
55756W        W98673   0.506   2.561   1.627 -0.4336  0.0929 -0.1862
55757W        W98674   4.849   2.200   2.353 -0.0675 -0.0528 -0.0222
55758W        W98675   1.748  34.589   0.153 -0.2354 -0.0004 -0.3242
55759W        W98676   2.521   0.018   2.489 -0.0355  0.1905  0.1199
55760W        W98677   3.181   3.953   0.431 -0.4666 -0.0336  0.1442
55761W        W98678   3.196   1.174   1.392 -0.1645  0.4765 -0.0337
55762W        W98679   3.251  34.557   1.003  0.3050 -0.2446 -0.2070
55763W        W98680   0.466   1.952   2.323 -0.0285 -0.1604 -0.2375
55764W        W98681   1.444   2.629   1.757 -0.0138  0.1073 -0.0075
55765W        W98682   0.479   1.765  30.723  0.1869 -0.1442  0.1774
55766W        W98683   2.877   2.755  30.565  0.0995  0.2942  0.2458
55767W        W98684   2.762   4.570   1.302  0.0985  0.3173 -0.0351
55768W        W98685   5.218   3.202   2.636 -0.0229  0.1630 -0.1389
55769W        W98686   2.001  33.095  31.576  0.2197  0.0452  0.3267
55770W        W98687   3.350   0.343   3.991  0.0786 -0.1601 -0.0332
55771W        W98688   0.678   4.639   1.160 -0.1481 -0.0552 -0.2867
55772W        W98689   3.292  33.472   2.825  0.1000  0.1117 -0.1280
55773W        W98690  34.019   2.829   2.868  0.1833  0.2389  0.0229
55774W        W98691  34.463   2.466   1.459 -0.0627 -0.1036 -0.0540
55775W        W98692   1.109   3.814   0.749  0.0373  0.5107  0.0932
55776W        W98693   2.989  33.823   2.099 -0.1388 -0.2895  0.0925
55777W        W98694   4.859   0.915   0.899 -0.2042 -0.0562 -0.0459
55778W        W98695   2.526   1.956  31.034 -0.0767  0.2183 -0.0759
55779W        W98696   1.735   1.673   3.197  0.0063 -0.0806  0.2120
55780W        W98697   2.842   1.778   3.250  0.0387  0.3968 -0.2037
55781W        W98698   1.009   3.211  31.521  0.2201 -0.1241  0.1796
55782W        W98699   3.643   1.299   1.209  0.0301  0.2939 -0.1208
55783W        W98700   4.386   3.301   1.890 -0.1934 -0.1323  0.3417
55784W        W98701   1.303   1.826   0.106 -0.4383 -0.0602  0.0795
55785W        W98702   0.007   2.550   3.564 -0.0245  0.1030  0.0880
55786W        W98703   1.229   2.095   1.659 -0.1673 -0.1602 -0.0193
55787W        W98704   3.090   0.824   1.744 -0.1761 -0.1628  0.2926
55788W        W98705   1.501   3.073  31.560 -0.0717  0.0782  0.0557
55789W        W98706   2.375   2.151   0.955 -0.1455 -0.2776 -0.1532
55790W        W98707   0.689   5.129   4.861 -0.2207  0.0057  0.0976
55791W        W98708  32.586   4.701   3.395  0.0649  0.1221 -0.2394
55792W        W98709   1.790   2.033   0.830  0.2059 -0.0342  0.0947
55793W        W98710   4.760   3.271  31.141 -0.1817 -0.0711 -0.0105
55794W        W98711   1.615   2.744   0.500 -0.0737  0.2210  0.0974
55795W        W98712   2.656   4.002   1.126 -0.3503  0.1130 -0.0654
55796W        W98713   1.689   1.644  31.708 -0.4012 -0.2165  0.1666
55797W        W98714   1.350   1.875   0.585  0.0202  0.0856 -0.1045
55798W        W98715  33.987   3.141  31.276 -0.1096  0.1551 -0.2003
55799W        W98716   3.496   3.977  30.474  0.0231 -0.1636  0.1165
55800W        W98717   2.198   3.986   2.124  0.0014 -0.1034 -0.2288
55801W        W98718   4.289   2.734   2.983  0.1199 -0.3010  0.1968
55802W        W98719   4.415  33.960  31.452  0.0024  0.0385 -0.1822
55803W        W98720   5.178   0.889   2.484  0.1799 -0.0531  0.3049
55804W        W98721   5.315  34.439  31.662  0.1044  0.0132  0.2261
55805W        W98722   3.335   3.157   2.470  0.0809  0.1043  0.0857
55806W        W98723   0.808   2.627   2.807  0.0746  0.2925 -0.2288
55807W        W98724   1.093  33.570   0.095  0.2137  0.1999  0.0948
55808W        W98725   1.375   2.068   1.087 -0.1229 -0.2220  0.0535
55809W        W98726   4.027   0.046   4.064  0.0249  0.2559 -0.0255
55810W        W98727  33.192   3.279   3.682  0.0050 -0.0969  0.0959
55811W        W98728   3.995   4.012   0.441 -0.0584 -0.0974 -0.2733
55812W        W98729  34.633   1.518   0.929 -0.0267 -0.0688  0.2534
55813W        W98730   0.484   2.482   0.644  0.0124 -0.2345 -0.0529
55814W        W98731   3.610  33.798   3.618  0.0169 -0.2168 -0.4931
55815W        W98732   0.652   2.731   1.066  0.0336 -0.3152  0.2290
55816W        W98733   3.196   1.640   1.227  0.1215  0.1626  0.0505
55817W        W98734   4.110   2.990   3.634 -0.0284 -0.0127  0.0779
55818W        W98735   2.132   2.667   3.993 -0.0789 -0.0708  0.0504
55819W        W98736   1.895   2.200   4.121  0.2676  0.0200 -0.1895
55820W        W98737   0.023   2.909   0.843  0.0355 -0.2380 -0.0192
55821W        W98738   3.431  34.545   1.461 -0.1266  0.0034  0.2790
55822W        W98739   3.520   0.728   1.247 -0.0057  0.1341 -0.1326
55823W        W98740   3.858   0.660   2.446  0.1116  0.0213  0.0370
55824W        W98741   2.266   1.651   0.123 -0.0983  0.0300 -0.4057
55825W        W98742   3.758   0.164   3.175  0.0051 -0.1717 -0.2392
55826W        W98743   3.979   0.863   1.387  0.0184  0.0712 -0.0797
55827W        W98744   0.477   2.254   2.773 -0.0459 -0.2155  0.0677
55828W        W98745   2.660   2.010   0.531 -0.0251 -0.4953  0.0685
55829W        W98746   4.875   3.151   3.413  0.0201  0.0018  0.0496
55830W        W98747   3.632   1.318  31.614 -0.0822  0.0054  0.2786
55831W        W98748   3.140   1.879   1.759  0.0900 -0.1499  0.0797
55832W        W98749   0.941   0.422  31.810  0.0245 -0.0495 -0.0755
55833W        W98750   2.957   0.140   0.696 -0.1753 -0.0426 -0.3027
55834W        W98751  34.555   1.105   0.284  0.0242  0.0955 -0.0365
55835W        W98752   2.594   3.522   0.986 -0.2185 -0.0977 -0.1178
55836W        W98753   3.068   3.834   3.610  0.1659  0.0618 -0.0215
55837W        W98754   1.668   1.346   1.420  0.0255  0.0388  0.0093
55838W        W98755   5.506   0.773  31.799 -0.0717  0.0269 -0.0152
55839W        W98756   4.598   1.134   3.005 -0.1217 -0.0413  0.0383
55840W        W98757  34.670   3.292   2.160 -0.1872  0.1418 -0.1179
55841W        W98758   3.420   2.685   0.243 -0.0822 -0.0369  0.3329
55842W        W98759   1.474   3.394   2.069  0.1800  0.0454  0.2529
55843W        W98760   1.124   1.570   2.227  0.2330  0.0735  0.1943
55844W        W98761   4.020   3.447   2.772  0.0814 -0.0248  0.0890
55845W        W98762   4.410   1.923   2.141  0.0550 -0.0051  0.3220
55846W        W98763   2.596   1.501   0.518 -0.0266  0.0336  0.2001
55847W        W98764   0.363   0.765   2.895  0.0832  0.0164 -0.0362
55848W        W98765   0.384   3.075   1.686 -0.0983 -0.1574 -0.2965
55849W        W98766   5.435   2.372   0.836 -0.0244  0.3640 -0.0072
55850W        W98767   4.256   2.086   2.778 -0.0631  0.1352  0.0368
55851W        W98768   2.119   2.888   0.394 -0.3826 -0.2298 -0.0533
55852W        W98769   1.490  32.714   2.654  0.1370  0.2744  0.2308
55853W        W98770   0.728  34.013   1.401  0.0933 -0.1052 -0.1794
55854W        W98771   2.581   2.883   4.060 -0.2005  0.1906  0.0181
55855W        W98772  34.637   1.383  30.322  0.1857  0.3512  0.1315
55856W        W98773   1.896   0.474   1.954 -0.1357 -0.0030  0.0555
55857W        W98774   2.666   3.961   0.640  0.3040 -0.1432 -0.2421
55858W        W98775   1.319   3.399  31.102  0.1038  0.1172 -0.1743
55859W        W98776   4.570   1.455   1.433  0.0365 -0.0784 -0.1446
55860W        W98777   3.020   3.175   0.048  0.0734  0.2860 -0.0596
55861W        W98778   3.981   1.900   0.222 -0.1026  0.2176  0.1977
55862W        W98779   2.122   1.412  31.093 -0.1113  0.2967 -0.0154
55863W        W98780   5.847  34.623   0.074 -0.2584 -0.2343 -0.0108
55864W        W98781   2.438   0.762   1.137  0.3637 -0.1730  0.0474
55865W        W98782   3.239   2.163   2.444 -0.1496  0.2240 -0.1021
55866W        W98783   1.507   2.126  31.518  0.1511 -0.0457  0.0619
55867W        W98784   1.280   2.440   0.063  0.0393  0.0214  0.2296
55868W        W98785   0.732   2.725  31.721  0.1260  0.0808  0.1144
55869W        W98786  34.566   0.055   2.170  0.0065  0.1950  0.0544
55870W        W98787   1.238   2.146   2.246 -0.3844 -0.1347  0.0346
55871W        W98788   1.406   1.363   0.554  0.1266  0.1045 -0.3656
55872W        W98789  34.663   2.336  31.747 -0.1589  0.2478  0.0479
55873W        W98790   3.493   5.499   1.364  0.1082  0.0608  0.0360
55874W        W98791   1.059   1.886  31.505  0.0813 -0.1211  0.0907
55875W        W98792  33.331  34.189   1.858 -0.2564 -0.0556 -0.2367
55876W        W98793   2.589   2.909   0.038 -0.0723  0.2412  0.1488
55877W        W98794   3.539   1.477   0.749 -0.1572  0.2416  0.1678
55878W        W98795   3.559  33.399   2.030  0.1129 -0.2037  0.0650
55879W        W98796   4.507   1.943   4.013 -0.2094 -0.1519  0.2213
55880W        W98797  33.222   2.168   1.661  0.2030  0.1810 -0.1555
55881W        W98798   2.736   0.085   4.242  0.3429 -0.1761 -0.3589
55882W        W98799   2.036   1.471   2.386 -0.1049 -0.1221  0.0939
55883W        W98800   0.358   0.980  30.970  0.2500 -0.2323  0.0396
55884W        W98801   2.449  33.733   1.333 -0.2467 -0.1479  0.0944
55885W        W98802   3.846   4.533   1.161  0.2535  0.0132  0.0928
55886W        W98803   4.045   4.942   1.338  0.0369  0.2689  0.0747
55887W        W98804   2.593   2.144   3.433 -0.2677 -0.2287  0.2181
55888W        W98805   1.433   1.203   2.432 -0.1303  0.2198  0.0716
55889W        W98806   0.079  33.793   2.135 -0.0176  0.1661  0.0846
55890W        W98807   4.179   0.429   1.367 -0.0299  0.2876 -0.2268
55891W        W98808   0.521   3.392   2.092  0.1202  0.1593 -0.1948
55892W        W98809   5.936   2.919   0.362  0.0708  0.1014 -0.0218
55893W        W98810   2.643  33.957  31.547  0.2464  0.0861  0.1011
55894W        W98811   3.281   1.495  30.294  0.2536 -0.1946  0.0688
55895W        W98812  34.481   1.523   2.629  0.0198  0.1390  0.3148
55896W        W98813   2.621   0.960   3.829 -0.1399  0.5415 -0.1841
55897W        W98814   4.032   3.889   4.339  0.0630  0.1077 -0.0151
55898W        W98815   2.864   0.831  31.625  0.0181 -0.2198  0.2178
55899W        W98816   3.531   1.618   1.649 -0.2897  0.1852  0.0592
55900W        W98817   4.466   2.670   1.177 -0.1025 -0.0303  0.1171
55901W        W98818   0.592   2.283   0.074  0.0512 -0.1199 -0.2522
55902W        W98819   2.480   0.515   2.081 -0.3847  0.0662 -0.1278
55903W        W98820   3.010  34.242   1.382 -0.4426 -0.0535 -0.0525
55904W        W98821   2.080   4.148   0.657  0.2883  0.0235 -0.1394
55905W        W98822   1.887   2.654   2.885 -0.0459  0.2242 -0.0229
55906W        W98823   1.863   2.348  31.311  0.4011  0.4150  0.1291
55907W        W98824   4.341   2.779   0.661  0.0025  0.3644 -0.1032
55908W        W98825   0.865   3.587   3.047  0.2227  0.1968  0.2860
55909W        W98826   4.485   3.790   4.525  0.1302 -0.2369 -0.0303
55910W        W98827   3.465   1.719   2.279 -0.0407  0.3310  0.0472
55911W        W98828   3.890   1.081   0.838 -0.0615 -0.1803 -0.3217
55912W        W98829   1.140   1.403  30.913 -0.2396  0.1355  0.1519
55913W        W98830   2.225   1.363   1.457 -0.1041  0.0848 -0.3506
55914W        W98831   3.061   3.453   0.480 -0.2353  0.2310  0.0424
55915W        W98832   2.177  33.753   1.810  0.2489  0.1618 -0.1276
55916W        W98833  34.359   0.420  31.754  0.4532 -0.0282  0.2505
55917W        W98834   3.445  34.108  31.295  0.0433  0.1203  0.1168
55918W        W98835   2.534   4.444   2.179 -0.0807 -0.1596 -0.2818
55919W        W98836   2.976   0.765   1.249 -0.2012 -0.0387  0.1982
55920W        W98837   3.446   1.588   7.413 -0.1577 -0.0629  0.0159
55921W        W98838   2.535   1.226   4.285 -0.1241 -0.0005  0.2172
55922W        W98839   1.994   1.812   2.731  0.2181  0.2234 -0.0699
55923W        W98840   5.333   3.815   4.165 -0.0051  0.2093 -0.1051
55924W        W98841   0.386  33.861   4.027  0.2062 -0.0366 -0.2319
55925W        W98842   3.703   3.289   3.602 -0.2961  0.1948 -0.0906
55926W        W98843   1.590  33.896   6.807 -0.0085  0.4281 -0.2665
55927W        W98844   4.623   1.321   7.343  0.0624 -0.2516  0.1030
55928W        W98845   2.909   2.406   7.100 -0.2070 -0.0423 -0.1936
55929W        W98846   1.452   1.346   1.868  0.0197 -0.1846  0.2366
55930W        W98847   0.842   0.996   5.188 -0.2593  0.3735  0.1606
55931W        W98848   3.645  34.262   6.797 -0.0867  0.0501  0.3740
55932W        W98849   2.057  33.958   4.791 -0.0191  0.0731  0.2159
55933W        W98850   0.848  33.929   4.740  0.0366 -0.3515  0.1037
55934W        W98851   3.846   0.618   6.567  0.0302  0.3103  0.0218
55935W        W98852   2.561   2.297   5.352  0.1393  0.0314  0.0325
55936W        W98853   1.102   1.134   5.556  0.0765  0.1823  0.0005
55937W        W98854   3.196  34.453   5.030  0.2177  0.2488 -0.2021
55938W        W98855   3.231   2.043   3.522 -0.1122 -0.1970  0.1723
55939W        W98856   2.919   1.617   6.578  0.4355 -0.3589 -0.0236
55940W        W98857   2.843  34.073   6.452  0.1860 -0.1955  0.1161
55941W        W98858   3.490   2.941   4.289  0.4034 -0.0421 -0.2219
55942W        W98859   1.736   2.191   1.992  0.1628 -0.0790  0.1401
55943W        W98860   0.799   0.525   4.288  0.1620 -0.2925  0.1317
55944W        W98861   2.021   0.931   8.600  0.0717 -0.0436 -0.0886
55945W        W98862   1.516   0.317   4.069  0.0287 -0.1083  0.4551
55946W        W98863   2.980   2.296   3.152  0.2597  0.1673 -0.2024
55947W        W98864   2.870   3.831   4.613  0.3318  0.1919  0.2274
55948W        W98865   2.903   2.635   5.476 -0.1755 -0.0217 -0.0740
55949W        W98866   3.719   0.582   7.118  0.1572 -0.0319  0.2946
55950W        W98867   0.600   2.050   3.986 -0.0284 -0.0402 -0.2068
55951W        W98868   0.510   3.645   4.832 -0.2200 -0.2392  0.0813
55952W        W98869   2.165   1.713   4.241 -0.1769  0.5335 -0.2042
55953W        W98870   5.378   3.000   4.673 -0.0249  0.1837 -0.0159
55954W        W98871   2.726   1.748   4.285 -0.1820  0.0904 -0.1869
55955W        W98872   3.776   1.485   8.806 -0.1383 -0.2550  0.1051
55956W        W98873   0.130   2.065   3.847 -0.4731  0.0257 -0.0128
55957W        W98874   3.376   4.174   8.239 -0.0925 -0.0549  0.0433
55958W        W98875   2.366   2.258   8.047 -0.1283  0.2890  0.0597
55959W        W98876   4.303   2.305   4.260  0.1420  0.1282  0.0543
55960W        W98877   2.856   0.493   3.902  0.0609  0.1830  0.1491
55961W        W98878   1.139   3.225   2.688  0.1634  0.1286 -0.1111
55962W        W98879   2.393   0.545   3.510  0.1504  0.2707  0.3979
55963W        W98880   3.413   1.362   6.900  0.2372 -0.0164 -0.0786
55964W        W98881   1.564   2.009   4.991 -0.1108 -0.1305 -0.3475
55965W        W98882   5.433   1.211   5.294 -0.2883  0.2509 -0.0770
55966W        W98883   1.474   3.003   4.755 -0.2025  0.0948  0.1988
55967W        W98884   3.338   1.031   0.911 -0.2278 -0.2299 -0.1905
55968W        W98885   1.049   2.560   3.269  0.2681 -0.0065  0.0091
55969W        W98886   1.947   0.509   3.323 -0.0803 -0.1461  0.2836
55970W        W98887   2.509  33.870   4.957  0.1512 -0.0480  0.3821
55971W        W98888   3.337   0.869   7.125  0.0396 -0.2014  0.0390
55972W        W98889   0.651  33.898   5.847 -0.0576  0.4101  0.0922
55973W        W98890   6.012   3.613   6.728  0.0907  0.1481  0.0030
55974W        W98891   3.643   2.775   3.845  0.1787 -0.1155 -0.0991
55975W        W98892   2.748   1.716   5.461 -0.0747  0.1992 -0.1642
55976W        W98893   3.632   3.699   6.865 -0.1726 -0.0444 -0.1566
55977W        W98894   0.979   1.684   5.671 -0.2819  0.1579  0.1342
55978W        W98895   4.077   2.939   2.559 -0.0532  0.1813  0.2678
55979W        W98896   3.332   5.385   2.630 -0.1220  0.1718 -0.0452
55980W        W98897   3.648   3.619   2.525  0.0272  0.1120 -0.3004
55981W        W98898   1.279   0.751   5.115  0.4826  0.0701 -0.3459
55982W        W98899   1.804   0.970   6.809 -0.2138 -0.0287 -0.1878
55983W        W98900   2.923   1.363   8.139 -0.0857 -0.0423 -0.3404
55984W        W98901   1.389   0.192   1.971  0.2153 -0.1252 -0.1733
55985W        W98902   4.030   1.744   7.639 -0.0712 -0.0202 -0.1588
55986W        W98903   0.715   3.802   6.131 -0.1981  0.1486  0.1139
55987W        W98904   2.939  33.950   3.511  0.0624  0.0860 -0.3759
55988W        W98905   4.446   1.255   5.285 -0.4435 -0.2100  0.2914
55989W        W98906   3.656   1.954   7.124  0.2321 -0.2255  0.0254
55990W        W98907   2.146   3.818   3.849  0.5934  0.1255 -0.0877
55991W        W98908   3.238   0.859   3.761  0.0146  0.1013  0.0623
55992W        W98909   3.479  33.123   4.328  0.3132 -0.0369 -0.0057
55993W        W98910   0.368   3.544   3.005 -0.2468 -0.0915 -0.2255
55994W        W98911   1.696   2.175   2.510  0.2429 -0.2488 -0.1276
55995W        W98912   3.352   1.750   7.974 -0.0825 -0.0886 -0.0288
55996W        W98913   5.186   1.322   4.008  0.0528  0.3733 -0.0238
55997W        W98914   0.594   2.995   5.670  0.0773 -0.2389 -0.2782
55998W        W98915   4.125   0.313   5.767  0.1891 -0.0884 -0.1575
55999W        W98916   3.318  34.585   7.929  0.3594 -0.0537  0.0287
56000W        W98917   1.410   2.017   4.485 -0.0350 -0.2467  0.0793
56001W        W98918   1.655   4.042   5.424  0.1637 -0.1513 -0.0987
56002W        W98919   2.253   1.712   5.746 -0.0398 -0.1147 -0.0819
56003W        W98920   4.083   1.651   5.445  0.2361  0.1057  0.1996
56004W        W98921   2.948   0.870   4.893 -0.1582 -0.2439  0.1539
56005W        W98922   3.180  34.429   3.373  0.0160  0.2601 -0.0676
56006W        W98923   2.813   0.145   6.321 -0.0923  0.0229  0.1372
56007W        W98924   3.036  33.901   4.639 -0.0845  0.1058  0.2713
56008W        W98925   1.005   1.481   5.155 -0.0113  0.0799 -0.1056
56009W        W98926   3.309   1.583   3.187 -0.0229  0.1516 -0.1936
56010W        W98927   4.928   0.105   4.094  0.2277  0.2022 -0.0068
56011W        W98928   3.843   3.781   3.125  0.1474  0.0558  0.1112
56012W        W98929   2.937   0.303   6.828  0.0401 -0.2093  0.0041
56013W        W98930   1.498   1.164   4.382 -0.0085  0.0455  0.0149
56014W        W98931   1.798  34.322   5.194 -0.3014 -0.1296 -0.0562
56015W        W98932   0.323   1.299   4.983 -0.2017  0.0768 -0.4004
56016W        W98933   4.225   1.082   6.675  0.2499  0.1079 -0.0887
56017W        W98934   0.388  34.185   4.949  0.1916 -0.0533 -0.0516
56018W        W98935   3.693   0.714   4.786 -0.3264 -0.2399  0.0534
56019W        W98936   2.619   0.987   3.088 -0.0833  0.1765  0.2775
56020W        W98937   0.585   1.727   4.904 -0.1510 -0.0200  0.1914
56021W        W98938   4.512  34.601   6.131 -0.0075 -0.1392 -0.2011
56022W        W98939   2.914   3.277   2.208 -0.0760 -0.0271 -0.1133
56023W        W98940   3.429   2.388   5.511 -0.1079 -0.0203  0.1882
56024W        W98941   4.009   2.993   4.442  0.3176  0.1015 -0.0507
56025W        W98942   2.996  33.369   7.577 -0.1846 -0.3640 -0.1546
56026W        W98943   1.131  34.325   4.381  0.2070 -0.1266 -0.1088
56027W        W98944   0.132   4.172   4.914  0.2180 -0.0126  0.3132
56028W        W98945   2.145   0.929   3.177 -0.1522  0.0280  0.2160
56029W        W98946   1.308  34.580   3.936  0.2282 -0.2295 -0.1233
56030W        W98947   5.112   3.555   4.601  0.2398 -0.0781  0.1081
56031W        W98948   3.839   2.582   5.725 -0.0436  0.0199  0.2018
56032W        W98949   2.225   2.184   7.084  0.0360  0.1116  0.0110
56033W        W98950   4.051  34.053   5.300 -0.0331 -0.4656 -0.0219
56034W        W98951   3.530   2.237   3.917 -0.1191 -0.0941  0.1529
56035W        W98952   3.266   0.561   4.515  0.1568  0.2434 -0.0542
56036W        W98953   0.704   0.500   3.235 -0.0571 -0.1115  0.1067
56037W        W98954   3.406   1.299   3.593 -0.3493 -0.1524  0.1891
56038W        W98955   2.872   2.282   4.409  0.1926 -0.1527  0.1649
56039W        W98956   1.210   0.488   5.552 -0.4145  0.2629 -0.0967
56040W        W98957   3.141   1.956   4.955 -0.0131  0.0197  0.0420
56041W        W98958   4.530   0.425   5.057  0.1106  0.1908 -0.2885
56042W        W98959   1.546   2.266   5.908  0.1620 -0.1837  0.0537
56043W        W98960   4.604   0.111   5.592 -0.2512  0.1448  0.2962
56044W        W98961   0.456   1.298   3.522  0.1792  0.1098  0.0762
56045W        W98962   2.154   2.125   6.585 -0.1903  0.0128  0.1443
56046W        W98963   3.509   1.752   3.875  0.1357 -0.1212 -0.2765
56047W        W98964   5.440   0.821   4.029 -0.1495  0.0176  0.1449
56048W        W98965   4.043   2.523   5.205 -0.1203  0.2254  0.1728
56049W        W98966   3.076   2.498   3.669 -0.1892  0.2915 -0.2043
56050W        W98967   3.216   1.298   5.752 -0.1873  0.1146 -0.1802
56051W        W98968   0.961   1.037   2.325 -0.0498 -0.0575  0.0333
56052W        W98969   1.772   2.285   6.824 -0.0950 -0.0027 -0.2561
56053W        W98970   2.658   1.882   4.973  0.0523  0.2235 -0.0179
56054W        W98971   1.251   2.438   4.830  0.2059  0.0569 -0.0569
56055W        W98972   0.587   0.458   3.820 -0.2269  0.2147 -0.1337
56056W        W98973   1.932   3.518   2.312  0.2735  0.3678  0.1827
56057W        W98974   0.991   2.380   5.732 -0.4471 -0.1222 -0.0843
56058W        W98975   4.005   0.769   7.604 -0.1232  0.2120  0.1220
56059W        W98976   3.308   3.470   3.337  0.0869 -0.1004 -0.0670
56060W        W98977   2.970  33.602   6.809 -0.0336 -0.0366 -0.2322
56061W        W98978   2.321   1.179   0.295  0.1040 -0.0156 -0.1621
56062W        W98979   2.021  34.327   4.342  0.0104  0.0054 -0.1182
56063W        W98980   0.972   5.270   4.430  0.1613  0.0699  0.0802
56064W        W98981   5.539   1.079   6.886  0.2550  0.3236 -0.0295
56065W        W98982   4.019   0.351   5.235  0.4638 -0.1771  0.3041
56066W        W98983   3.161  34.440   6.074  0.3162 -0.0946  0.0793
56067W        W98984   4.243   1.325   7.656 -0.0908  0.1956 -0.1749
56068W        W98985   3.556   2.556   3.384 -0.1057  0.0724  0.3048
56069W        W98986   3.780   0.536   6.055 -0.0987  0.0071 -0.1363
56070W        W98987   1.000   3.136   4.161  0.3354 -0.1753 -0.1333
56071W        W98988   2.088  34.390   6.182 -0.1794 -0.2218 -0.0618
56072W        W98989   2.496   0.946   7.451 -0.0779  0.2529  0.1791
56073W        W98990   1.311   3.107   7.010 -0.1928  0.2043  0.3668
56074W        W98991   3.188   0.419   7.299  0.2930 -0.4642 -0.1820
56075W        W98992   4.351   1.552   2.956  0.0034 -0.0570  0.0689
56076W        W98993   3.157  34.629   7.464  0.0743 -0.2176 -0.1744
56077W        W98994   1.088   0.124   4.489 -0.1299  0.0369 -0.0444
56078W        W98995   3.247   1.392   4.065  0.0992  0.2283 -0.2024
56079W        W98996   1.894   2.181   3.099 -0.3662 -0.1386 -0.3535
56080W        W98997   3.463  32.478   6.858 -0.1597 -0.1613  0.0221
56081W        W98998   4.745   1.824   5.215  0.2348 -0.1897  0.2423
56082W        W98999   1.480   2.503   5.384  0.3882 -0.1423 -0.2984
56083W        W99000   3.356   0.525   6.682  0.2268 -0.1883 -0.0318
56084W        W99001   1.335   1.349   3.093 -0.0060 -0.2292  0.1689
56085W        W99002   3.527   0.045   5.961 -0.2418  0.2456  0.1112
56086W        W99003   0.058   4.740   7.275  0.0938  0.1622  0.3193
56087W        W99004   1.011   1.227   3.639 -0.2081 -0.1180  0.4144
56088W        W99005   0.366   0.861   3.374 -0.0359 -0.0219  0.0629
56089W        W99006   3.540  34.355   2.280 -0.1262 -0.0809  0.1907
56090W        W99007   4.977   2.266   1.869  0.0690  0.0292 -0.1271
56091W        W99008   1.897   0.735   4.193  0.5515 -0.1145 -0.2024
56092W        W99009   2.354  33.327   5.106  0.0007  0.1406 -0.3461
56093W        W99010   2.687   2.117   6.755  0.2467  0.2760 -0.0684
56094W        W99011   3.335   0.954   3.166  0.1558 -0.0390  0.0226
56095W        W99012   2.409   0.540   2.999  0.2747  0.1902  0.1212
56096W        W99013   4.221   1.091   7.149  0.0078 -0.0362 -0.3668
56097W        W99014   2.662   1.084   5.318 -0.1443  0.0215 -0.2567
56098W        W99015   0.954   1.312   4.284 -0.1107  0.2546 -0.4658
56099W        W99016   4.694   1.876   6.417  0.4596 -0.1780 -0.1215
56100W        W99017   2.916   0.023   1.616  0.1091  0.1491 -0.0115
56101W        W99018   2.390   2.980   4.504 -0.0008 -0.0371  0.0877
56102W        W99019   4.324   3.151   7.566 -0.0320 -0.2194  0.1238
56103W        W99020   2.896  34.233   3.039 -0.2321  0.0463  0.2886
56104W        W99021  34.386   3.111   5.356  0.1886 -0.5392  0.0855
56105W        W99022   3.653   0.401   5.576  0.1747 -0.1353 -0.1462
56106W        W99023   4.141   3.820   5.990 -0.2515 -0.0755  0.0316
56107W        W99024   4.199   0.632   7.127  0.0451  0.2698 -0.0646
56108W        W99025   2.970   1.322   4.491  0.1762 -0.2057  0.1781
56109W        W99026   4.322   1.616   6.632 -0.1117 -0.2441  0.2761
56110W        W99027   4.063   2.034   5.087  0.1198  0.1712  0.3686
56111W        W99028   1.929  33.417   5.340  0.2171 -0.1398 -0.1663
56112W        W99029   0.282   3.177   6.541  0.1630  0.0384 -0.3975
56113W        W99030   1.738  33.773   4.347 -0.0908 -0.1413  0.0188
56114W        W99031   5.483   3.865   4.786  0.4115  0.2207 -0.2770
56115W        W99032   3.902   1.542   6.909  0.3182 -0.0582 -0.0135
56116W        W99033   2.144   2.000   4.989  0.2060  0.0783  0.0482
56117W        W99034   1.305   2.041   5.519  0.2385 -0.1207  0.2954
56118W        W99035   1.498   2.688   6.123  0.4582  0.0765  0.1157
56119W        W99036   2.560  34.397   5.524 -0.1409  0.0964  0.0800
56120W        W99037   2.385   2.498   6.338  0.1694 -0.1047  0.0725
56121W        W99038  34.466   2.282   4.811 -0.1380  0.3363  0.0757
56122W        W99039   0.437   2.810   5.104  0.1690 -0.1284  0.2704
56123W        W99040   2.773   0.614   5.928 -0.0404 -0.2997 -0.1704
56124W        W99041   2.485   2.727   2.467  0.1113  0.1901 -0.0109
56125W        W99042   4.204   0.650   4.569 -0.1036 -0.1259  0.1113
56126W        W99043   2.039   0.824   6.388  0.1918 -0.2084 -0.0710
56127W        W99044   5.814   2.396   5.002  0.1313  0.1054 -0.1601
56128W        W99045   3.276   0.347   8.279 -0.1185  0.1554 -0.0727
56129W        W99046   2.097   0.065   5.316 -0.1849 -0.3324  0.1209
56130W        W99047   4.012   3.481   3.901  0.1119 -0.0064 -0.0699
56131W        W99048   2.075   1.299   6.600 -0.2947 -0.2146 -0.1220
56132W        W99049   2.932   1.736   7.541  0.0722  0.2401  0.2029
56133W        W99050   1.776   2.225   7.330  0.0016  0.1017 -0.0394
56134W        W99051   3.678   1.565   4.387  0.0329 -0.0642 -0.1636
56135W        W99052   0.876  33.692   1.730 -0.0618  0.3080  0.2250
56136W        W99053   3.206   1.105   5.257  0.3940  0.0167 -0.0798
56137W        W99054   6.200   3.576   5.413  0.0538 -0.2021 -0.0217
56138W        W99055   2.687   0.568   4.510  0.0900  0.0472 -0.0683
56139W        W99056   2.810   3.538   3.269 -0.1811 -0.0642 -0.2046
56140W        W99057   1.917   2.953   6.278 -0.3798 -0.0344 -0.1437
56141W        W99058   2.917   2.355   2.107 -0.0689 -0.1152  0.1452
56142W        W99059   2.599  34.613   2.996 -0.0692 -0.1091  0.1667
56143W        W99060   1.352   1.330   3.932 -0.2028  0.0027 -0.0087
56144W        W99061   2.616  34.343   6.055  0.0051  0.0137  0.1739
56145W        W99062   5.364   2.463   4.945 -0.2243 -0.1608 -0.1549
56146W        W99063   1.939   1.261   3.977  0.0699  0.3806 -0.2127
56147W        W99064   4.148   0.564   4.040  0.2120  0.1400  0.3485
56148W        W99065   2.533   0.588   5.073 -0.2345 -0.0397  0.1712
56149W        W99066   2.533   1.144   8.852 -0.2410  0.0459  0.2541
56150W        W99067   3.105   0.356   7.819  0.1049  0.1928 -0.0788
56151W        W99068   4.148   3.600   6.809  0.2065  0.0736 -0.0091
56152W        W99069   2.974  34.664   3.820  0.1238 -0.0301  0.2201
56153W        W99070   4.659   1.138   6.328  0.0838 -0.0533 -0.1920
56154W        W99071   2.899   1.395   5.004 -0.2107  0.0233  0.2542
56155W        W99072   2.222   1.751   3.299  0.0782  0.2476  0.0596
56156W        W99073   2.908   0.677   6.429  0.1355  0.2166  0.1159
56157W        W99074   4.347   1.577   8.577  0.0246 -0.2393  0.0259
56158W        W99075   2.403   0.611   4.075 -0.0056 -0.1784 -0.2684
56159W        W99076   4.159   0.804   5.123  0.1928 -0.1106  0.0523
56160W        W99077   1.865   3.853   3.247  0.3502 -0.1877 -0.1450
56161W        W99078   2.985   1.665   3.708  0.0580 -0.0409  0.0281
56162W        W99079   2.941   0.918   4.225 -0.0026 -0.2830 -0.0649
56163W        W99080   1.214   1.118   6.513  0.1586 -0.2415 -0.1192
56164W        W99081   0.577   2.746   6.516  0.0728 -0.1151 -0.0772
56165W        W99082   1.100   0.257   3.061 -0.0688  0.0835  0.0289
56166W        W99083   1.685   1.842   3.681 -0.1932  0.1467  0.2248
56167W        W99084   2.823   3.122   2.672  0.0197 -0.1217 -0.1937
56168W        W99085   4.749   0.045   9.461 -0.2488 -0.1294 -0.3179
56169W        W99086   3.322  33.411   3.423 -0.0600 -0.0382  0.0298
56170W        W99087   2.968   0.324   4.826  0.2178 -0.1256 -0.0386
56171W        W99088   2.777   2.058   5.858 -0.3222 -0.4750 -0.1126
56172W        W99089   3.683   1.107   5.468 -0.0878  0.0522  0.1631
56173W        W99090   2.374   2.994   6.466  0.1371  0.0678 -0.1509
56174W        W99091   1.909   1.791   6.867 -0.0630  0.1285 -0.2173
56175W        W99092   4.468   2.276   5.323 -0.2250 -0.0078  0.1090
56176W        W99093   4.963   0.832   7.412  0.0206  0.1947 -0.0684
56177W        W99094   4.452   0.644   5.515  0.4601  0.1692  0.3386
56178W        W99095   3.823   2.512   4.244 -0.2211  0.0192  0.1103
56179W        W99096   3.182  34.296   5.541 -0.2905 -0.0965 -0.1097
56180W        W99097   3.512   1.854   6.290 -0.1525  0.2017 -0.4329
56181W        W99098   3.294   2.861   5.609  0.1114 -0.0529  0.0806
56182W        W99099   2.909   1.590   5.977  0.2800 -0.1005  0.0073
56183W        W99100   5.436   2.278   2.752  0.1439 -0.2034  0.5694
56184W        W99101   1.859   1.656   4.641 -0.1453 -0.2146 -0.0711
56185W        W99102   1.602  34.650   7.390 -0.2668 -0.1649  0.2656
56186W        W99103   3.382   2.295   8.399  0.0099  0.2843 -0.3014
56187W        W99104   2.411   1.491   5.169  0.2899  0.0367  0.2235
56188W        W99105   1.163  33.826   5.751  0.2643 -0.1646  0.2582
56189W        W99106   3.278   2.432   4.601  0.0096  0.0391 -0.0388
56190W        W99107  33.840   0.987   8.084  0.2778  0.0092  0.1542
56191W        W99108   0.547   2.458   5.435  0.1104 -0.3116  0.2806
56192W        W99109   1.410   1.553   5.507  0.0635  0.0899 -0.0128
56193W        W99110   2.890   1.258   3.397  0.2692 -0.0035  0.1678
56194W        W99111   2.513   1.856   2.500  0.0552 -0.0413  0.0825
56195W        W99112   3.683   1.630   5.788 -0.0767 -0.4108  0.1963
56196W        W99113   3.302   0.575   5.125  0.2068  0.2405 -0.1198
56197W        W99114  34.657   2.459   5.271 -0.2200  0.0985 -0.2429
56198W        W99115  34.099   2.742   4.635 -0.0372 -0.0347  0.3396
56199W        W99116   0.095   3.221   4.573  0.2014  0.3326 -0.1017
56200W        W99117   2.992   1.156   6.207  0.3410 -0.0608  0.1782
56201W        W99118   4.083   2.066   6.895 -0.1122 -0.2092 -0.1435
56202W        W99119   2.818  34.613   2.119  0.1867  0.1988  0.0701
56203W        W99120   4.397   2.543   5.711  0.0124  0.1059 -0.3404
56204W        W99121   4.787  33.337   2.712 -0.2140  0.2314 -0.0262
56205W        W99122   2.845   1.019   8.499 -0.1762 -0.1440  0.2153
56206W        W99123   3.023   2.148   5.416 -0.0395 -0.0337  0.0709
56207W        W99124   2.916  34.216   4.222 -0.2854 -0.2703  0.0427
56208W        W99125   2.632   1.425   7.748  0.0419  0.0929 -0.0196
56209W        W99126   4.395   0.697   6.423  0.0521  0.0931 -0.2165
56210W        W99127   1.503   2.660   7.229 -0.1715 -0.0512 -0.1767
56211W        W99128   4.168   2.428   3.378  0.0326  0.2562 -0.1897
56212W        W99129   0.340   2.758   4.591  0.1462  0.0987 -0.2754
56213W        W99130   3.517   0.941   6.156 -0.1618 -0.4373 -0.0608
56214W        W99131   4.637   1.283   3.888  0.2582 -0.3024 -0.0513
56215W        W99132   1.846   1.290   3.476  0.0470  0.0781  0.1975
56216W        W99133   1.194  33.281   4.784 -0.0567  0.1034  0.1273
56217W        W99134   3.231   1.816   4.464  0.2472  0.0415 -0.0039
56218W        W99135   4.156   1.794   4.587  0.2661 -0.3639  0.0759
56219W        W99136   4.602   1.935   6.893 -0.0140 -0.1645  0.0395
56220W        W99137   2.181   0.744   4.655  0.0971 -0.0919  0.0758
56221W        W99138   4.539   0.864   4.203  0.0810 -0.0393  0.2696
56222W        W99139   3.999  34.579   6.033 -0.2254  0.1735  0.1140
56223W        W99140   4.990   0.159   6.078 -0.1482  0.1413  0.0117
56224W        W99141   2.864   2.364   4.958 -0.2268  0.0124  0.1184
56225W        W99142   4.403   3.249   4.163 -0.0161  0.0916 -0.1180
56226W        W99143   3.999   1.007   6.236 -0.3192  0.1256  0.1681
56227W        W99144   1.676  34.500   6.879  0.2006 -0.0076 -0.2306
56228W        W99145   1.349   0.794   2.774  0.1093 -0.3788  0.1050
56229W        W99146   5.699   2.022   6.689 -0.1771 -0.5196 -0.0109
56230W        W99147   2.917   2.786   4.561 -0.0032  0.2023 -0.2817
56231W        W99148   3.734   2.810   6.268 -0.2209 -0.1582  0.1278
56232W        W99149   2.000  34.645   4.788  0.1898 -0.0813 -0.3709
56233W        W99150   2.419   2.053   4.572  0.3958 -0.0449 -0.1532
56234W        W99151   2.136   2.120   5.993  0.0575  0.2999 -0.1231
56235W        W99152   4.165   3.104   6.563 -0.2307  0.1012 -0.3830
56236W        W99153   3.081   2.004   6.297  0.1972  0.1158 -0.1773
56237W        W99154   1.511   1.193   5.129  0.0727 -0.2264  0.1882
56238W        W99155   3.845   1.534   3.493 -0.0829  0.0904  0.2924
56239W        W99156   4.565   2.293   3.114 -0.1623 -0.1648 -0.1060
56240W        W99157   1.407   2.841   2.864  0.4039 -0.2436  0.1968
56241W        W99158   5.475   2.076   3.841 -0.2693 -0.1009  0.1523
56242W        W99159   2.465   2.477   4.399 -0.0765 -0.0333 -0.1432
56243W        W99160   2.423   1.441   7.276  0.1076 -0.0804  0.0408
56244W        W99161   2.649   3.850   6.310  0.0854 -0.0457 -0.2408
56245W        W99162   4.180   2.518   8.708  0.1755 -0.2312  0.2047
56246W        W99163   3.525  34.197   4.605  0.0375  0.3204  0.0426
56247W        W99164   2.555   1.320   5.750  0.2622  0.0844  0.2803
56248W        W99165   3.486   4.814   3.747  0.0718  0.0082  0.1518
56249W        W99166   3.719   2.003   2.564 -0.0302 -0.0270  0.2710
56250W        W99167   3.542  34.069   5.167  0.4182 -0.2294 -0.0481
56251W        W99168   1.517   3.763   3.991  0.0222  0.1406 -0.1145
56252W        W99169   2.408  33.134   6.169 -0.0119 -0.4112 -0.0980
56253W        W99170   4.457   2.682   4.581  0.0588  0.1681 -0.0990
56254W        W99171   0.973   2.855   6.149  0.1335  0.2266  0.0524
56255W        W99172   1.637   1.643   4.214 -0.0045 -0.1034  0.5151
56256W        W99173   2.989   0.800   7.530  0.0842 -0.0215 -0.0189
56257W        W99174   2.523   1.647   3.785  0.2873  0.0000 -0.0091
56258W        W99175   1.700   3.335   2.780  0.2103 -0.3249  0.3107
56259W        W99176   4.130   2.399   6.151  0.3200 -0.0180 -0.0066
56260W        W99177   3.351   1.538   5.230 -0.2003 -0.2810 -0.0338
56261W        W99178   3.985   1.912   6.136  0.0972  0.2289  0.1520
56262W        W99179   2.405   1.543   4.629  0.2407  0.0679  0.1270
56263W        W99180   3.579   0.011   3.676 -0.1471  0.0209  0.0353
56264W        W99181   2.220   0.145   4.291  0.2110 -0.2061  0.1723
56265W        W99182   3.623   2.258   5.997 -0.2368 -0.1483  0.0236
56266W        W99183   1.114   0.707   3.473  0.2472 -0.1111  0.1366
56267W        W99184   1.350   3.171   3.784 -0.1464 -0.0189 -0.1318
56268W        W99185   0.213   1.230   5.514  0.1203 -0.4928 -0.1676
56269W        W99186   1.947  33.851   7.825  0.1471 -0.2781  0.0818
56270W        W99187   3.754   0.301   8.110 -0.1140 -0.4060 -0.1263
56271W        W99188   2.538   1.921   6.314 -0.1221  0.2039  0.0372
56272W        W99189   2.573   2.607   3.503  0.1505  0.0969  0.0690
56273W        W99190   3.531   1.543   2.744 -0.1146  0.1852 -0.1629
56274W        W99191   1.053  34.335   5.733 -0.1238  0.1017 -0.0574
56275W        W99192   1.865  34.584   3.892  0.0081  0.2592  0.0528
56276W        W99193   2.261   3.532   3.423  0.1810  0.0084 -0.2642
56277W        W99194   2.872   3.237   4.311  0.3033 -0.1115 -0.0579
56278W        W99195   1.106   1.079   4.758 -0.0351  0.0967  0.4172
56279W        W99196   4.499   1.307   8.142  0.2782  0.0048 -0.2197
56280W        W99197   0.326   2.883   2.193 -0.0742 -0.2907  0.0012
56281W        W99198   2.069  34.616   6.596 -0.0213 -0.3674 -0.0308
56282W        W99199   2.303  33.882   7.343 -0.0732  0.1156 -0.0316
56283W        W99200   0.573   0.293   4.630  0.2006 -0.2886 -0.0350
56284W        W99201   3.710   1.727   4.882  0.0136 -0.7452  0.1204
56285W        W99202   2.235   2.079   3.773 -0.0206 -0.1479 -0.0608
56286W        W99203   2.395   3.468   4.424 -0.0857  0.0155  0.0143
56287W        W99204   3.798   1.002   6.854 -0.2622 -0.0753  0.3073
56288W        W99205   2.637   2.301   7.486 -0.0614  0.0014 -0.1027
56289W        W99206   1.966   0.547   5.543 -0.0227  0.0536 -0.1830
56290W        W99207   3.713   0.782   4.024 -0.0062 -0.0862  0.0418
56291W        W99208   3.681   2.884   6.981 -0.1615 -0.4124 -0.1621
56292W        W99209   4.125   1.653   2.485  0.1839 -0.4302 -0.1279
56293W        W99210   3.665   1.943   5.390 -0.3464  0.3778  0.2258
56294W        W99211   2.971   1.795   2.761  0.1087  0.0340  0.1014
56295W        W99212   1.654  33.751   5.713  0.3863 -0.0954  0.1061
56296W        W99213   3.238   0.784   5.711  0.1474  0.0215 -0.0629
56297W        W99214   5.083   1.645   6.686 -0.5812 -0.2813  0.0643
56298W        W99215   1.992  33.982   3.967 -0.0912 -0.2230 -0.3333
56299W        W99216   3.454   1.257   4.790 -0.1046  0.2025 -0.0925
56300W        W99217   2.078   1.666   1.862  0.2658  0.5561  0.2628
56301W        W99218   2.116   2.644   5.366 -0.0033 -0.3224 -0.0426
56302W        W99219   3.420   1.002   4.347 -0.0485 -0.4026  0.1623
56303W        W99220   3.965   2.490   7.725 -0.1647  0.0224  0.0157
56304W        W99221   3.271   2.974   3.542 -0.0075 -0.1110 -0.1110
56305W        W99222   4.204   0.303   7.887  0.4179 -0.1760  0.2149
56306W        W99223   1.811   0.416   4.570 -0.2790  0.1220  0.1575
56307W        W99224   6.144   1.358   3.519 -0.0019  0.0539 -0.1608
56308W        W99225   3.240   2.655   5.030  0.2401 -0.4262 -0.1851
56309W        W99226   2.915   3.732   6.959  0.2600  0.0508  0.1692
56310W        W99227   2.229   4.628   3.781 -0.1931 -0.0959 -0.0980
56311W        W99228   4.934   1.762   7.286 -0.1958  0.0757 -0.1885
56312W        W99229   0.814  33.115   5.989 -0.1103 -0.2458 -0.4654
56313W        W99230   2.527   2.516   5.852  0.1747  0.0649 -0.0024
56314W        W99231   2.517   1.076   4.817 -0.0848  0.1633 -0.1435
56315W        W99232   4.350   1.620   4.985  0.0900 -0.1493 -0.1917
56316W        W99233   0.071  34.415   5.906 -0.1676  0.1334 -0.2232
56317W        W99234   1.529   0.818   3.835  0.0093  0.0848  0.1134
56318W        W99235   2.904   2.460   6.395  0.0729  0.0015 -0.1055
56319W        W99236   1.087   3.246   8.744 -0.1151 -0.1222  0.1776
56320W        W99237   2.474  33.076   9.047  0.1437  0.0799  0.2621
56321W        W99238   4.231   1.249   8.984  0.1357 -0.1251  0.0335
56322W        W99239   4.948   0.093   8.639  0.2197  0.0978 -0.0832
56323W        W99240   0.645   0.025   7.595  0.0321  0.0686 -0.0401
56324W        W99241   4.575   2.974   9.457  0.2007 -0.1194 -0.1959
56325W        W99242   5.129   3.475  10.469 -0.3469 -0.0806  0.2504
56326W        W99243   3.817   2.580  10.626 -0.0119 -0.2653  0.3699
56327W        W99244   4.806   2.328   4.328 -0.2866  0.2975  0.0617
56328W        W99245   5.216   2.786  10.585  0.1964 -0.2173  0.1538
56329W        W99246   3.578  34.168   6.260 -0.1127  0.0874  0.2622
56330W        W99247   2.134  32.690   6.922 -0.3992 -0.0652  0.3623
56331W        W99248   5.824   2.602   8.774  0.1726  0.0396 -0.3975
56332W        W99249   3.411   1.653   8.515 -0.0794 -0.2673 -0.2163
56333W        W99250   2.475  33.792  11.234  0.1465 -0.3269  0.0474
56334W        W99251   1.578   2.805   8.619 -0.3665 -0.0709  0.2122
56335W        W99252   2.373   4.664   9.865  0.0663  0.0049 -0.2132
56336W        W99253   2.979   4.415   9.480 -0.0803  0.2923  0.0968
56337W        W99254   4.256   2.597  10.329 -0.1980 -0.1363  0.2760
56338W        W99255   1.665   0.563   7.192 -0.1549  0.0817  0.1580
56339W        W99256  33.799   3.371   7.738 -0.0392 -0.3449 -0.2740
56340W        W99257   1.158   1.930   9.783  0.0813  0.3307  0.0506
56341W        W99258   0.682  34.314  10.315 -0.0393 -0.0392  0.4019
56342W        W99259   3.866   0.974   8.680  0.1763  0.0316 -0.0876
56343W        W99260   1.177   3.328  10.285  0.1745  0.0820  0.0226
56344W        W99261   2.186   4.062   9.280  0.0657  0.2761 -0.0868
56345W        W99262   1.981   2.076   8.303 -0.0625  0.0188  0.1060
56346W        W99263   1.214   1.536   8.354  0.1574  0.1171 -0.1867
56347W        W99264   3.236   1.936   9.928  0.0391  0.4195  0.1221
56348W        W99265   4.207   0.508   8.441  0.0676 -0.0956  0.2488
56349W        W99266   1.018   3.725   5.742  0.3499  0.0125 -0.2177
56350W        W99267   1.894   0.976  11.013  0.5998  0.2515  0.1375
56351W        W99268   2.935   0.836   9.051 -0.0809  0.0332 -0.0842
56352W        W99269   1.204   2.837   8.308 -0.0344  0.2639 -0.1607
56353W        W99270   3.725   1.183   9.253  0.0772 -0.2246  0.2208
56354W        W99271   2.050   2.355   9.548 -0.0418 -0.1223  0.0567
56355W        W99272   3.318   1.420   6.371  0.1807 -0.0830  0.1121
56356W        W99273   3.218   1.792   9.423  0.3344  0.1901 -0.1544
56357W        W99274   2.915   0.036   8.161  0.0456  0.0045  0.2156
56358W        W99275   4.552   1.201   9.443  0.0100  0.0411 -0.0947
56359W        W99276   2.255  34.329  10.487 -0.0045  0.2500 -0.1215
56360W        W99277   4.404   1.268  10.362 -0.0458  0.2296  0.0263
56361W        W99278   2.659   2.428   8.801 -0.2216 -0.0345  0.0419
56362W        W99279   2.457   0.380   5.553  0.0752  0.0099  0.3634
56363W        W99280   2.189  33.494  11.561 -0.1530 -0.1367 -0.3053
56364W        W99281   7.299   4.593  12.309  0.0080 -0.1884  0.0843
56365W        W99282   2.208   0.329   9.006  0.0830  0.1356 -0.1745
56366W        W99283   3.040   1.638   7.084 -0.0103  0.2558  0.0063
56367W        W99284   4.735   3.831  10.744 -0.0922 -0.3978 -0.2437
56368W        W99285   2.088   3.169   9.011  0.0811  0.2038 -0.1427
56369W        W99286   1.829   2.399   6.333 -0.1057 -0.2847 -0.3315
56370W        W99287   1.577   0.862   5.526 -0.1515 -0.1600 -0.1867
56371W        W99288   3.825  34.539   7.839  0.0743 -0.2146 -0.0800
56372W        W99289   2.478   2.132   9.300  0.2920  0.1518  0.0643
56373W        W99290   2.782   3.316   9.818 -0.2030  0.0489 -0.0946
56374W        W99291   3.433   2.651   7.367 -0.3625 -0.1179 -0.2252
56375W        W99292   2.257   0.193   9.553 -0.1186 -0.2000  0.1204
56376W        W99293   2.899   0.937  10.546 -0.1964  0.1958  0.3201
56377W        W99294   1.857   1.571   8.058 -0.2093  0.0470 -0.1578
56378W        W99295   2.031   0.880   7.296  0.4720  0.4302  0.1610
56379W        W99296   5.441   3.602   9.587 -0.2987 -0.0469 -0.4702
56380W        W99297   4.453   0.169   8.673 -0.1713 -0.1389 -0.1423
56381W        W99298   0.978   3.385   9.834 -0.1774  0.2821  0.2005
56382W        W99299   1.841   2.762   9.043 -0.0761  0.4066  0.1982
56383W        W99300   1.362   2.486   9.042  0.0331  0.0959  0.0579
56384W        W99301   1.607   2.740   6.741  0.0912 -0.2495 -0.1632
56385W        W99302   1.754  33.655   8.994 -0.2669 -0.0569 -0.0785
56386W        W99303   1.980   2.028   9.182  0.0977 -0.0606  0.1552
56387W        W99304   4.648   0.263   8.075 -0.1293  0.3163 -0.0335
56388W        W99305   2.480  33.763   8.206 -0.0820  0.0596  0.0122
56389W        W99306   2.624   1.885   7.209 -0.1221 -0.1336  0.0155
56390W        W99307   4.434   3.153   8.241  0.1168 -0.2501  0.1327
56391W        W99308   5.184   1.929   8.678 -0.0231 -0.0143  0.2244
56392W        W99309   4.152   1.772   8.139 -0.1576  0.3288 -0.1222
56393W        W99310   0.690   1.013   7.648 -0.1315  0.3450 -0.3786
56394W        W99311   1.305  33.798  10.828 -0.0878  0.0140  0.4651
56395W        W99312  32.337   2.030   9.595 -0.0421  0.2929 -0.0672
56396W        W99313   1.292  34.451   8.773 -0.1962  0.0677 -0.2262
56397W        W99314   2.738  33.629  10.831 -0.4635 -0.1782 -0.4074
56398W        W99315   2.270   0.483   7.326  0.0139 -0.0841 -0.3655
56399W        W99316   0.736   1.022   7.135 -0.3579  0.4244  0.3571
56400W        W99317   1.498   1.973   8.317  0.5174  0.0824 -0.1112
56401W        W99318   3.975   3.101   9.458 -0.5078  0.1072 -0.2629
56402W        W99319   3.941   1.446  10.226 -0.1833  0.3396  0.3176
56403W        W99320  34.591   0.345  10.169  0.2076  0.0039  0.3843
56404W        W99321   1.298   1.001   8.408 -0.3330 -0.1351  0.1117
56405W        W99322  34.527   3.666   6.980  0.1426  0.3523  0.2013
56406W        W99323   3.455   2.254   9.264  0.2557 -0.2671 -0.2010
56407W        W99324   2.937  33.859   8.218 -0.0417  0.1058  0.2566
56408W        W99325   4.783   2.628  10.503 -0.2233  0.2999  0.3828
56409W        W99326   1.974   2.570  10.493  0.2254 -0.2070  0.0086
56410W        W99327   2.375   2.557  10.118 -0.0930  0.0496 -0.0457
56411W        W99328   3.679   0.998  10.270 -0.3071 -0.0628  0.1387
56412W        W99329   2.896   1.383   9.316 -0.0617 -0.2858  0.2089
56413W        W99330   2.207   4.002  10.088 -0.1802 -0.1238  0.1285
56414W        W99331   1.264   2.361   6.455 -0.1282  0.3774  0.2165
56415W        W99332   2.322   0.804   6.823  0.4488 -0.1874 -0.1879
56416W        W99333   2.515   2.930   9.309 -0.4089 -0.1049 -0.0140
56417W        W99334   2.938  33.875   7.328 -0.2747 -0.0455  0.1335
56418W        W99335   1.982   1.328   7.071  0.2023 -0.2255  0.4654
56419W        W99336   2.004  34.272   7.521 -0.0187  0.0334  0.1368
56420W        W99337   2.518   0.664   8.755  0.0426  0.0605  0.1868
56421W        W99338   3.874   2.447   8.333 -0.4534 -0.2446 -0.2150
56422W        W99339   2.583   0.365   7.921  0.2477 -0.1774  0.0454
56423W        W99340   4.172   0.286   6.312  0.3490 -0.1577  0.1989
56424W        W99341   3.798   1.954   8.489  0.0488 -0.0617 -0.1270
56425W        W99342   1.974   1.135   8.145  0.1718  0.2197  0.2313
56426W        W99343   2.549  33.999   6.894 -0.0275  0.1212  0.1824
56427W        W99344   4.061   3.715   9.486 -0.2596 -0.2183 -0.4658
56428W        W99345   1.659   1.361   8.532  0.0360 -0.0781 -0.0566
56429W        W99346   4.250   4.011  10.891 -0.0025  0.0553  0.4262
56430W        W99347   2.952  33.270   9.530  0.2002  0.1248 -0.1735
56431W        W99348   1.762   0.597   9.016  0.1906  0.0214  0.1067
56432W        W99349   3.578   0.228   7.557 -0.0315  0.3948  0.3846
56433W        W99350   1.774   2.997   5.737  0.2856  0.1521  0.0688
56434W        W99351   2.965  33.565  11.262  0.0117 -0.0035 -0.1049
56435W        W99352   1.609  34.574  10.186 -0.0079  0.5280 -0.0858
56436W        W99353   4.154   1.994   8.917  0.1817 -0.1884  0.2524
56437W        W99354   0.928   1.687  10.197  0.4790 -0.0765  0.2697
56438W        W99355   2.804   0.717   7.060  0.2518 -0.4831  0.3383
56439W        W99356   2.087   0.192  11.531  0.0461 -0.1030  0.1033
56440W        W99357   0.806   3.236   9.117  0.0376  0.0228 -0.2283
56441W        W99358   1.512   1.028   8.885 -0.2056  0.2105  0.0749
56442W        W99359   2.635  34.524   9.766  0.3278 -0.1538  0.2893
56443W        W99360   1.311   3.208   7.864 -0.2963  0.1187  0.3328
56444W        W99361   2.911   1.178   7.219 -0.1885  0.0978  0.0310
56445W        W99362  32.887   3.280   8.509  0.0151  0.0987 -0.0660
56446W        W99363   4.666   2.624  11.466 -0.3459 -0.5431 -0.0609
56447W        W99364   0.536   2.049   5.812  0.1791 -0.0582 -0.1088
56448W        W99365   3.423   1.987  10.932 -0.1314  0.1103 -0.2488
56449W        W99366   1.105   3.405   7.407  0.0022 -0.0760 -0.0446
56450W        W99367   3.430  34.210   9.774 -0.0595 -0.0745  0.2275
56451W        W99368   0.508   1.633   6.994 -0.1222 -0.2213 -0.2909
56452W        W99369   2.709   0.219   7.396  0.0381 -0.1233 -0.0892
56453W        W99370   1.777   1.627   7.571 -0.1670 -0.2054 -0.0327
56454W        W99371   2.843  34.222  10.404 -0.0362 -0.0980 -0.1254
56455W        W99372   4.577   2.862   8.671 -0.1436 -0.1399 -0.0863
56456W        W99373   1.954   1.299   8.926 -0.0845  0.0861  0.1898
56457W        W99374   3.017   1.529   8.757  0.2080 -0.0025  0.0104
56458W        W99375  33.675   2.565   9.343 -0.2043  0.2291  0.0552
56459W        W99376   3.767   0.843   8.141 -0.1188 -0.1054  0.2757
56460W        W99377   1.669   0.414   9.450 -0.1954 -0.0128  0.1154
56461W        W99378   0.304   1.713   8.156  0.2575 -0.3315  0.2070
56462W        W99379   2.602  33.986   9.176 -0.0865 -0.0702  0.0002
56463W        W99380   0.768   2.655   7.776  0.0030  0.2578  0.2197
56464W        W99381   3.579   1.087  12.040 -0.2484 -0.0521  0.2532
56465W        W99382  33.606   0.272   9.629  0.0192 -0.1103  0.0386
56466W        W99383   1.799   2.657   7.674  0.2410  0.0139  0.4178
56467W        W99384   3.373   1.871   8.955 -0.0350  0.1429 -0.0310
56468W        W99385   4.770   2.071  10.752  0.0405 -0.2386 -0.1577
56469W        W99386   0.666  34.144  10.870 -0.0133  0.2189  0.1380
56470W        W99387   1.957  34.604  10.846  0.4429  0.6250  0.1544
56471W        W99388   4.962   4.164   9.855  0.1091 -0.0558 -0.0318
56472W        W99389   2.671   1.058  10.077  0.0072  0.0541 -0.0208
56473W        W99390   3.313   1.211  10.537  0.0223 -0.2372 -0.3535
56474W        W99391   4.645   5.985  10.253 -0.0551  0.3530 -0.3104
56475W        W99392   1.339   3.165   5.941 -0.1867  0.0627 -0.0567
56476W        W99393   0.829   1.521   9.365  0.2357 -0.2196 -0.0234
56477W        W99394   0.624   3.012   9.669 -0.2328  0.0351 -0.0468
56478W        W99395   2.595  33.326   9.920 -0.1039  0.0815  0.1417
56479W        W99396   0.666   1.481   7.923  0.0831  0.3001  0.1766
56480W        W99397   2.794   2.409   8.273  0.1129  0.0271 -0.2300
56481W        W99398   1.677   1.010   9.372 -0.2470 -0.1511 -0.1974
56482W        W99399   5.285   1.076   7.870 -0.1791 -0.0124  0.2038
56483W        W99400   3.472   3.168   8.206  0.5597  0.0635 -0.0023
56484W        W99401   3.292   0.777   8.585 -0.0813  0.2016 -0.2036
56485W        W99402   3.679   0.738   9.113 -0.0023  0.0708  0.2684
56486W        W99403   1.906   0.404  11.126 -0.0003 -0.0380 -0.0267
56487W        W99404   4.405   0.999   8.602  0.5028 -0.2808 -0.1120
56488W        W99405   2.244  34.657  10.026 -0.3899  0.0495 -0.1432
56489W        W99406   0.859   0.636   8.407 -0.2238 -0.2382 -0.1210
56490W        W99407   2.982   2.850   9.666 -0.1148 -0.0089  0.0033
56491W        W99408   3.769   1.876   9.958 -0.2090 -0.3339  0.0365
56492W        W99409   1.872   1.607   5.165 -0.0696 -0.2740 -0.0224
56493W        W99410   2.522   1.387  10.505 -0.3016 -0.0862 -0.0288
56494W        W99411   2.418   2.994   9.865 -0.0892  0.3908 -0.0332
56495W        W99412   2.740   1.787   9.591 -0.0042 -0.2991  0.1981
56496W        W99413   2.358   2.646   7.241  0.0435  0.0404 -0.0238
56497W        W99414   0.953   1.825   7.137 -0.2119  0.0107  0.1582
56498W        W99415   3.554   2.865   9.646  0.0896 -0.3481  0.1259
56499W        W99416   2.537  34.012   9.907  0.1902 -0.2943  0.0214
56500W        W99417   2.990   0.161  11.173  0.2312  0.1656  0.0073
56501W        W99418   4.773   0.594   8.580  0.0035 -0.0491 -0.0627
56502W        W99419   3.710   2.820  10.076 -0.0044  0.0861  0.0806
56503W        W99420   5.000   0.934   9.642 -0.2591 -0.1485  0.1400
56504W        W99421   2.778   2.297  10.743  0.4152 -0.2026  0.2378
56505W        W99422  34.287   2.406   9.165  0.0357  0.2314 -0.0258
56506W        W99423   2.506  34.336   7.317 -0.2661 -0.3159 -0.0281
56507W        W99424   1.243   3.782   7.192  0.3492 -0.1733  0.1835
56508W        W99425   3.789   3.031   8.942  0.3225  0.1017 -0.1220
56509W        W99426   3.262   1.092   9.455  0.4410 -0.0274  0.0665
56510W        W99427   0.941  34.282   7.395 -0.1920 -0.2714 -0.4523
56511W        W99428   3.234   0.772   8.024 -0.1489 -0.0945 -0.2533
56512W        W99429   2.010   0.553   5.048  0.0338  0.0147  0.0898
56513W        W99430   3.308   2.595  10.012 -0.2299 -0.1354 -0.1108
56514W        W99431   2.420  33.511   9.392 -0.2230 -0.0608  0.4973
56515W        W99432   1.047   3.938   9.229 -0.3762 -0.2320  0.0363
56516W        W99433   1.173  32.425  10.423  0.0862 -0.0621  0.0262
56517W        W99434   1.221   5.124   7.428  0.2265  0.0740 -0.0980
56518W        W99435   1.199   4.610   7.539 -0.0778  0.1838 -0.2534
56519W        W99436   2.298  30.829  10.739  0.2066 -0.0900  0.1049
56520W        W99437   2.920   0.830   9.669  0.0133 -0.3662  0.2165
56521W        W99438   3.176   2.692   8.127  0.1642 -0.1858 -0.0005
56522W        W99439   2.709   1.850  10.479  0.2078 -0.0248  0.1770
56523W        W99440   4.068   0.882   9.355  0.1720 -0.2163 -0.2122
56524W        W99441   2.586   1.711   8.554 -0.0669  0.0829  0.1833
56525W        W99442   3.348   0.690  10.502 -0.3024 -0.1314  0.3862
56526W        W99443   1.934  33.305   9.318  0.0971 -0.3308 -0.3342
56527W        W99444   3.918   2.165   9.434 -0.0450 -0.2628  0.1358
56528W        W99445   0.436   0.105  10.160 -0.1150  0.3293 -0.4214
56529W        W99446   3.146   3.552   7.865 -0.0236  0.0962 -0.0502
56530W        W99447   1.844   2.047   7.838 -0.1397 -0.0764 -0.0689
56531W        W99448   3.650   1.422   9.795  0.3144 -0.2244  0.1100
56532W        W99449   5.276   4.500  10.030 -0.0458  0.0958 -0.1264
56533W        W99450   2.588  34.453   6.642  0.3651  0.1919 -0.2074
56534W        W99451   2.851   1.899   9.094  0.0550 -0.3506  0.1231
56535W        W99452   2.083   3.178   5.441 -0.1394 -0.0980 -0.4736
56536W        W99453   4.443   4.580   8.448 -0.2875 -0.3357 -0.0626
56537W        W99454   1.962   3.550   9.307  0.2110 -0.0293  0.1681
56538W        W99455   5.100   0.436   9.464 -0.0468  0.0027  0.0759
56539W        W99456   5.506   1.004   7.399  0.2057 -0.3823  0.1203
56540W        W99457   2.378   0.127  11.095 -0.0869 -0.2842 -0.3059
56541W        W99458   2.422   2.048  10.042 -0.1141 -0.1311  0.0648
56542W        W99459   2.358   0.156   6.060  0.0540 -0.0399 -0.2339
56543W        W99460   3.790   2.088   8.003  0.0414  0.0594 -0.1244
56544W        W99461   2.631  34.165   8.460 -0.1199 -0.3262  0.0973
56545W        W99462   1.673   1.805   8.851 -0.1319  0.3057  0.0193
56546W        W99463   4.017   0.386  11.520  0.1233  0.3693  0.2292
56547W        W99464   2.266   2.521   9.104 -0.1860  0.1041 -0.0461
56548W        W99465   1.638   0.515  11.636  0.1992  0.1943  0.1212
56549W        W99466   2.990   1.978   8.434  0.0136  0.2985  0.2444
56550W        W99467  33.171   3.635   9.251  0.1395 -0.3928  0.0595
56551W        W99468   4.362   3.397  10.713  0.2761 -0.1224 -0.0539
56552W        W99469   3.207   1.214   7.736 -0.2237  0.3261  0.1029
56553W        W99470   2.627   2.783  10.555 -0.0666  0.1709 -0.0962
56554W        W99471   2.460   1.203   9.524 -0.2318 -0.1661  0.0714
56555W        W99472   3.802   1.839  11.476 -0.0359  0.1356 -0.1843
56556W        W99473   4.469   0.840   7.502 -0.0693  0.1160 -0.1556
56557W        W99474   2.731  34.534  10.827  0.0105  0.1825  0.0535
56558W        W99475   1.504   1.537  10.280 -0.1403  0.4878  0.1108
56559W        W99476   3.084   1.044   6.700  0.1880 -0.0530 -0.0843
56560W        W99477   3.346   1.217   8.953 -0.0506 -0.1839  0.0969
56561W        W99478   0.712   0.108   8.117 -0.0318 -0.3356 -0.2561
56562W        W99479   3.343   0.536   9.420  0.0702 -0.3639 -0.2418
56563W        W99480   2.618   3.746   9.627  0.0570 -0.0897 -0.0835
56564W        W99481   2.878   2.877  10.121  0.0634 -0.1274 -0.1720
56565W        W99482   0.941  33.357   8.424  0.0042 -0.2756 -0.5411
56566W        W99483   4.393   2.162   8.487  0.2731  0.0319  0.1115
56567W        W99484   4.398   0.330  11.221 -0.1148 -0.4028 -0.1289
56568W        W99485   2.867   3.074   7.835  0.1157  0.1320 -0.0365
56569W        W99486   5.230   3.827  10.788 -0.0732  0.3887 -0.0109
56570W        W99487   7.099   1.638  10.567 -0.0880 -0.1288  0.3030
56571W        W99488   2.059   1.637   8.534 -0.0143  0.0630  0.0178
56572W        W99489   2.555   2.505   9.627  0.0905 -0.1304  0.0354
56573W        W99490   2.849   3.381   9.295  0.1009  0.0622  0.0774
56574W        W99491   2.888  34.283   8.911  0.0885  0.0279  0.0879
56575W        W99492   4.069   3.825  10.373  0.2064 -0.0530 -0.1232
56576W        W99493   0.859   2.305   6.866  0.3766 -0.1069  0.0567
56577W        W99494   1.791  33.952   9.383  0.1959 -0.0324 -0.0002
56578W        W99495   2.887   2.954   6.431 -0.0978  0.2063 -0.0057
56579W        W99496   0.581   2.700   8.200  0.1341  0.2321 -0.1945
56580W        W99497   2.458   1.288   8.287 -0.0559 -0.4045 -0.0258
56581W        W99498   3.922   3.190  10.391  0.2062 -0.0915 -0.0072
56582W        W99499   2.761   3.643   8.739 -0.2334 -0.0046 -0.0371
56583W        W99500   2.863   3.384  10.342  0.2388 -0.1436  0.2742
56584W        W99501   1.645   0.816   7.687  0.3618 -0.1984  0.1154
56585W        W99502   5.558   3.992   9.869 -0.4091 -0.2086 -0.1894
56586W        W99503   4.016   2.378   9.877  0.0946 -0.2232  0.0604
56587W        W99504   4.843  33.683   8.696  0.1507  0.3019 -0.0276
56588W        W99505   2.140  32.855   6.428 -0.2470  0.3503 -0.1601
56589W        W99506   3.005   3.866   7.491 -0.0122 -0.2365  0.4016
56590W        W99507   0.631   0.476   7.444 -0.0567  0.1511 -0.0641
56591W        W99508   2.213   1.824   7.517 -0.0040 -0.1958  0.2581
56592W        W99509   2.166   2.316   7.611 -0.0350  0.0227  0.1929
56593W        W99510   1.452   0.400  10.261  0.0174  0.2252  0.0057
56594W        W99511   1.927   0.837  10.072  0.3029  0.2227 -0.3005
56595W        W99512   2.990   1.364   9.818  0.0982 -0.1897  0.0270
56596W        W99513   1.497   0.161   9.011  0.5539  0.2989 -0.0764
56597W        W99514   2.002  34.216   9.981  0.1473 -0.1141  0.0420
56598W        W99515   5.089   2.521   9.998  0.0276  0.0998 -0.2068
56599W        W99516   4.438   3.081  11.233  0.3926 -0.4389 -0.1337
56600W        W99517   0.359  34.416   9.351  0.1179  0.1460 -0.0264
56601W        W99518   1.590   1.958   6.418 -0.0398  0.1425 -0.0713
56602W        W99519   1.169  33.867   7.420  0.0745 -0.3223 -0.0066
56603W        W99520   2.474   1.508  10.062  0.2805  0.1545  0.3155
56604W        W99521   1.511   1.009  10.355  0.4900 -0.0763 -0.1170
56605W        W99522   3.891   1.281   8.324 -0.1988 -0.0288  0.0779
56606W        W99523   0.334  32.523   8.983 -0.1362 -0.1446 -0.0272
56607W        W99524   2.382   1.811  10.895  0.1310  0.2041  0.0350
56608W        W99525   4.176   2.782   9.108  0.3222 -0.1031  0.0959
56609W        W99526   2.903  31.686  10.596 -0.0606  0.0518 -0.0590
56610W        W99527   3.386   1.206   8.282 -0.1595  0.0382  0.3174
56611W        W99528   3.906   3.509   9.969  0.0933  0.1231  0.2016
56612W        W99529   2.297  33.294   8.451 -0.0211 -0.0869  0.1110
56613W        W99530   3.291  33.144   6.637 -0.2038  0.0044  0.0751
56614W        W99531   4.674   2.671   9.845 -0.0992  0.0890  0.4517
56615W        W99532   1.775   1.492   9.380 -0.4320 -0.0246 -0.0547
56616W        W99533   1.834   0.355   8.565  0.3163  0.1637 -0.0176
56617W        W99534   1.446   3.041   9.896  0.1379 -0.2960 -0.0648
56618W        W99535   2.379   0.497   9.949 -0.2552  0.2100  0.0374
56619W        W99536   5.275   2.088   8.199 -0.0456  0.0731 -0.1328
56620W        W99537   2.538   4.978  10.314 -0.0201 -0.0218  0.1626
56621W        W99538   6.854   4.742  10.821  0.0592  0.1146  0.1126
56622W        W99539   3.314   0.000   8.778  0.0173 -0.3117 -0.3021
56623W        W99540   1.122  34.164  11.241 -0.1050 -0.0393  0.0936
56624W        W99541   1.785   2.312   8.732 -0.1569 -0.1932  0.2152
56625W        W99542   1.593   0.682   8.185 -0.1252  0.1148 -0.1402
56626W        W99543   4.698   1.257   9.916 -0.0909 -0.1598 -0.0515
56627W        W99544   3.162  34.321  11.295  0.0635 -0.3549 -0.2062
56628W        W99545   2.602  33.504   7.228  0.3876  0.0839 -0.0071
56629W        W99546  31.987   1.749   9.944 -0.3935  0.0221  0.0109
56630W        W99547   3.505   2.728   8.565  0.0741 -0.2329 -0.0239
56631W        W99548   2.315   6.958   3.314  0.0000 -0.1062  0.2986
56632W        W99549   1.755   6.143   0.231  0.3993  0.1317  0.4724
56633W        W99550   3.656   4.038   0.083  0.0582  0.3656 -0.0833
56634W        W99551   2.548   4.582  31.933 -0.1481  0.0355 -0.1527
56635W        W99552  34.520   2.860   2.700 -0.0573  0.0411 -0.0203
56636W        W99553   1.875   6.818   1.340 -0.1402  0.1382  0.0470
56637W        W99554   1.142   4.319   0.279  0.1205 -0.2003 -0.2340
56638W        W99555   2.983   6.722   2.367  0.2490  0.2235  0.0449
56639W        W99556   3.905   6.754  31.822  0.2783  0.1199  0.1233
56640W        W99557   1.601   5.926   0.720 -0.2866  0.0875  0.1174
56641W        W99558   2.282   3.097   2.185 -0.0973  0.1454 -0.1578
56642W        W99559   1.998   8.247   1.458 -0.1774 -0.0199  0.1048
56643W        W99560   2.174   3.362   1.314 -0.0390 -0.3337  0.1707
56644W        W99561  33.603   4.738   2.851 -0.0337  0.2180  0.0504
56645W        W99562   2.657   4.673   4.114 -0.0861 -0.0627  0.0191
56646W        W99563   0.943   7.032   2.043  0.0205  0.2498 -0.0229
56647W        W99564   2.061   5.078   3.490  0.0014  0.0594  0.2234
56648W        W99565   3.200   4.431   2.805  0.2005 -0.0917 -0.0627
56649W        W99566   1.753   6.425   0.619 -0.1344  0.1063 -0.0412
56650W        W99567   0.932   3.368   1.726 -0.1715  0.3050 -0.1557
56651W        W99568   2.286   3.027   3.644 -0.2152 -0.1370  0.0747
56652W        W99569   4.001   8.788  31.185  0.1089 -0.1246  0.4423
56653W        W99570   1.345   3.844   0.087 -0.1755 -0.0343  0.0019
56654W        W99571  34.416   5.565   1.132 -0.0947  0.0175 -0.0405
56655W        W99572   0.267   5.569   3.100  0.2583 -0.0215  0.1423
56656W        W99573   5.465   4.921   3.351  0.1067  0.0487 -0.1408
56657W        W99574   2.495   5.446  31.829  0.0717 -0.0581  0.1712
56658W        W99575   1.453   6.093   2.986 -0.3191 -0.0159 -0.1351
56659W        W99576   1.039   6.049   2.557 -0.2617  0.0562 -0.0901
56660W        W99577   3.695   6.280   2.787 -0.1128  0.1232 -0.1631
56661W        W99578  34.503   6.645   1.908  0.1025 -0.0068 -0.0692
56662W        W99579   0.950   8.511   1.066 -0.1124 -0.2330  0.2606
56663W        W99580   3.418   7.432   1.067  0.1491  0.1108 -0.2480
56664W        W99581   4.158   7.165  31.158  0.0901  0.0491  0.2158
56665W        W99582   5.300   5.324   3.715  0.1449 -0.0625  0.2520
56666W        W99583   1.612   7.052   2.799 -0.3562  0.6498  0.0811
56667W        W99584   1.523   5.934   1.191 -0.1283  0.1345  0.2584
56668W        W99585   2.874   6.325   2.663  0.1736 -0.1615 -0.2128
56669W        W99586   2.714   8.181   2.828 -0.1311 -0.4407 -0.0157
56670W        W99587   3.934   3.856   1.695 -0.3460  0.3358 -0.0355
56671W        W99588   1.750   5.548   2.339  0.2025 -0.4274 -0.0870
56672W        W99589   1.403   7.058  31.357 -0.1927 -0.0893  0.1775
56673W        W99590   0.332   5.759   0.460  0.2620 -0.1730  0.1602
56674W        W99591   1.688   5.731   3.759 -0.0184  0.0516 -0.0700
56675W        W99592  33.535   5.716   2.913  0.0128  0.1549 -0.2029
56676W        W99593   4.154   6.010   2.076 -0.0624  0.1657  0.2164
56677W        W99594   3.210   6.804   0.447  0.1495 -0.0051 -0.1750
56678W        W99595   3.756   2.950  28.967 -0.0167 -0.2342 -0.1111
56679W        W99596   0.666   4.296   0.659  0.2649 -0.2638 -0.1142
56680W        W99597   2.758   4.099  31.056 -0.2929 -0.0645  0.2980
56681W        W99598   1.417   3.361   1.465  0.0642  0.0270  0.0898
56682W        W99599   0.909   7.491   3.008  0.2157  0.2162  0.2457
56683W        W99600   0.711   3.827   1.872 -0.3854 -0.2063  0.4177
56684W        W99601   4.452   6.390   2.270 -0.1426 -0.2373 -0.1589
56685W        W99602   3.341   5.623  31.593 -0.3342 -0.0738 -0.1500
56686W        W99603   1.832   5.553   1.470  0.0156 -0.1212  0.2848
56687W        W99604   2.410   7.047   4.277  0.2873  0.3508 -0.1859
56688W        W99605  33.270   3.964   0.375 -0.0771 -0.1360 -0.3356
56689W        W99606   1.048   7.014   1.547 -0.0696  0.1111  0.2707
56690W        W99607   5.739   6.911  30.992  0.1381  0.0599 -0.1841
56691W        W99608   2.357   6.962  31.917  0.1755 -0.1887  0.1052
56692W        W99609   0.013   4.331  30.446 -0.2017 -0.1005 -0.1419
56693W        W99610   0.268   5.837   1.841  0.0406  0.2790  0.0732
56694W        W99611   1.454   6.329   2.131  0.2388  0.1551  0.0337
56695W        W99612   0.629   3.901  30.374 -0.2776  0.0024  0.1163
56696W        W99613   5.049   6.085   2.648  0.1392 -0.4011 -0.1971
56697W        W99614  34.302   7.776   2.491  0.2015 -0.0601 -0.0881
56698W        W99615   2.404   4.918   0.675 -0.2245  0.1787  0.0255
56699W        W99616   1.972   4.364   1.845  0.0665 -0.1394 -0.1610
56700W        W99617   4.895   7.256   1.390 -0.1377  0.1104  0.0568
56701W        W99618   1.928   5.299   0.022 -0.2495 -0.2146 -0.4261
56702W        W99619   2.768   2.314   2.674 -0.0325 -0.0836  0.1669
56703W        W99620   3.422   5.342   3.158 -0.1400  0.0038 -0.2357
56704W        W99621   1.627   6.398   1.471  0.0869 -0.1368  0.2462
56705W        W99622   1.878   6.614   1.973  0.0784  0.0145  0.0333
56706W        W99623   2.304   5.861   3.221 -0.2482 -0.1076  0.1130
56707W        W99624   2.031   5.287   0.963  0.1909 -0.2376 -0.1832
56708W        W99625   0.749   5.648   3.494 -0.2073  0.0149 -0.3260
56709W        W99626   1.363   4.218   2.573 -0.0742  0.0326  0.0385
56710W        W99627   2.122   6.651   4.692  0.2649  0.0959  0.0605
56711W        W99628   0.246   6.653   1.630  0.0730 -0.1284 -0.2319
56712W        W99629   1.075   8.282   1.838  0.0312 -0.1029 -0.0331
56713W        W99630   0.023   7.399  31.830  0.2082 -0.1823  0.1690
56714W        W99631   1.174   4.427   2.942  0.2668  0.0157  0.0754
56715W        W99632   2.852   5.269   2.554 -0.2859  0.0741 -0.1057
56716W        W99633   3.768   5.056  31.477 -0.0121 -0.2840 -0.0892
56717W        W99634   1.580   2.614   3.264 -0.0133 -0.3150 -0.0457
56718W        W99635   2.968   3.078   0.931  0.0234  0.1571 -0.1390
56719W        W99636   0.332   6.605   0.257 -0.0110  0.1817 -0.0564
56720W        W99637   3.119   7.254   2.056  0.0919 -0.0958 -0.6523
56721W        W99638   1.748   4.763  31.491  0.1740 -0.4722  0.1315
56722W        W99639   2.082   3.764  31.797  0.3361  0.3234  0.1601
56723W        W99640  34.467   7.694   2.036 -0.1295  0.1504 -0.0769
56724W        W99641  34.285   5.801  31.735  0.3159 -0.1342 -0.0146
56725W        W99642   0.648   4.187   2.396 -0.1473 -0.2008  0.0742
56726W        W99643   1.638   6.058   2.563 -0.1061 -0.1448 -0.1307
56727W        W99644   1.386   5.224   2.126 -0.3282 -0.5717 -0.1920
56728W        W99645   0.512   5.968  31.765  0.0311 -0.1257 -0.0370
56729W        W99646   3.470   4.875   0.128 -0.2849 -0.1343 -0.2715
56730W        W99647   3.155   4.980   2.891 -0.3293 -0.0720 -0.1652
56731W        W99648  32.992   4.604   1.047  0.2190  0.3931  0.2377
56732W        W99649   3.430   3.457   2.053 -0.1898  0.3604  0.0089
56733W        W99650   3.475   7.574   0.170 -0.0851  0.2437  0.0767
56734W        W99651   3.778   7.866   2.664  0.0802  0.0002  0.1148
56735W        W99652   3.521   6.907   2.309  0.2467 -0.2010 -0.2755
56736W        W99653   2.142   4.307   2.908 -0.0885  0.0663  0.1175
56737W        W99654   0.104   5.743  31.921 -0.0389  0.1944  0.1087
56738W        W99655   0.788   7.306   1.245  0.0808 -0.1935  0.0214
56739W        W99656   1.740   5.913   1.893 -0.1806 -0.0099 -0.0217
56740W        W99657  34.065   3.559   0.070  0.0739  0.0972  0.0230
56741W        W99658   5.035   7.309   1.914  0.2259  0.0364 -0.0791
56742W        W99659   3.314   6.114  31.805 -0.2922  0.3945  0.0520
56743W        W99660   0.744   4.854   3.725  0.0090 -0.0920 -0.1628
56744W        W99661   3.944   3.981   2.627  0.1807  0.0121 -0.0074
56745W        W99662   4.320   6.915   1.148  0.2007  0.2144 -0.1956
56746W        W99663   3.224   5.531   2.090 -0.2063 -0.2782  0.1057
56747W        W99664  34.598   3.315  30.529 -0.2333  0.0652 -0.1400
56748W        W99665   1.848   7.127   1.843 -0.1152  0.0573 -0.1320
56749W        W99666   1.158   6.433  31.249 -0.1973  0.1901  0.1567
56750W        W99667   0.377   5.461  30.014  0.1506 -0.0926 -0.0287
56751W        W99668   2.281   8.078   0.294  0.0514  0.0736 -0.2131
56752W        W99669   2.222   4.532   0.370 -0.2615  0.0413 -0.4156
56753W        W99670   0.730   5.356   3.882 -0.0307  0.0642 -0.1186
56754W        W99671   1.413   4.327   5.023 -0.0051 -0.0627 -0.0244
56755W        W99672   1.584   6.474  30.924 -0.0922 -0.0088 -0.1585
56756W        W99673   2.170   5.563   3.615  0.0584 -0.1720  0.1353
56757W        W99674   3.911   3.085   2.142 -0.1488  0.1673 -0.1481
56758W        W99675   2.237   4.716  31.442  0.0784 -0.0074  0.1549
56759W        W99676   3.237   5.176   4.379 -0.1612 -0.0669 -0.1443
56760W        W99677   3.184   5.633   0.943 -0.1782  0.1520 -0.3309
56761W        W99678   2.205   3.209  31.863 -0.1734 -0.0398  0.1764
56762W        W99679   3.795   3.408  31.889 -0.1371 -0.0006  0.2685
56763W        W99680   2.405   5.256   4.949 -0.0770  0.0131 -0.0287
56764W        W99681   0.860   4.936   1.592 -0.4117  0.0339  0.4673
56765W        W99682   2.012   5.739   2.743 -0.0596 -0.1646 -0.3224
56766W        W99683   1.026   4.223  31.290 -0.0263  0.3225 -0.0560
56767W        W99684   4.782   7.798   0.624 -0.1001 -0.0561  0.4936
56768W        W99685   1.084   4.991   2.861 -0.1299 -0.0370  0.1455
56769W        W99686   2.632   6.535   4.929  0.2072  0.1176 -0.1066
56770W        W99687   3.183   5.803   0.215 -0.4404  0.1271 -0.1490
56771W        W99688   2.284   4.959   1.742  0.1322 -0.2648 -0.0458
56772W        W99689   0.502   5.887   1.387  0.3934 -0.1818  0.1352
56773W        W99690   1.716   2.909   1.350  0.0802  0.0443  0.3562
56774W        W99691  34.570   8.611  31.348 -0.2832 -0.0429 -0.2405
56775W        W99692   5.723   4.755   3.840  0.0867  0.3485 -0.0767
56776W        W99693   2.033   4.465   1.358  0.3969  0.3207  0.1164
56777W        W99694   1.129   3.116   3.204  0.5334 -0.0545  0.0007
56778W        W99695   5.616   4.311   3.381  0.0048  0.0523  0.0638
56779W        W99696   2.159   5.188  31.551  0.0341 -0.0584 -0.1947
56780W        W99697   3.105   5.804   2.555 -0.0254  0.0578 -0.3295
56781W        W99698   0.005   3.584  31.194 -0.1235  0.2170 -0.1116
56782W        W99699   2.656   3.938   3.783  0.1399  0.2011  0.1320
56783W        W99700   1.019   6.320   0.901 -0.1418  0.0605  0.0409
56784W        W99701   1.811   5.872   3.223  0.0344 -0.1883  0.1176
56785W        W99702   2.499   6.448   3.007 -0.2591 -0.0527 -0.0081
56786W        W99703   3.624   7.033   0.728  0.3175  0.1152 -0.2619
56787W        W99704   2.770   4.956   1.633 -0.0447 -0.0658 -0.0343
56788W        W99705   0.422   2.218   1.262  0.1404  0.0715 -0.1827
56789W        W99706   3.191   6.655  31.386 -0.0575  0.0752 -0.2188
56790W        W99707   1.934   6.990  31.598 -0.0807 -0.5721  0.2451
56791W        W99708   2.103   3.011   2.653  0.1512  0.2521 -0.1368
56792W        W99709   1.043   5.214   3.519 -0.0696  0.2343  0.2014
56793W        W99710   0.405   4.704   0.393  0.0512  0.1932 -0.1329
56794W        W99711   2.815   7.284   3.053 -0.0927  0.1865  0.0912
56795W        W99712   3.212   8.014  31.956 -0.3203  0.1567 -0.0706
56796W        W99713   4.994   3.380   1.738  0.1862 -0.0150 -0.1813
56797W        W99714   0.757   7.795   1.121 -0.2200  0.2320 -0.2078
56798W        W99715   2.580   3.932   1.781  0.0396 -0.2439 -0.0445
56799W        W99716   1.646   3.879   2.167  0.1752 -0.2107  0.0433
56800W        W99717   4.254   5.966  31.873  0.0198 -0.3733 -0.1236
56801W        W99718   1.664   5.232  31.497  0.1936  0.0549  0.1799
56802W        W99719   0.469   5.512   2.223  0.1014 -0.1011 -0.4115
56803W        W99720   4.772   4.347   2.545  0.1293  0.2245 -0.1065
56804W        W99721  34.629   6.207   2.062  0.2038 -0.3232 -0.3311
56805W        W99722   4.314   5.394   2.816  0.0828  0.3174 -0.1390
56806W        W99723   2.178   3.735   0.815  0.2629  0.0464 -0.0064
56807W        W99724   2.961   7.621   2.342 -0.2518 -0.2200  0.0625
56808W        W99725   2.495   4.424   0.831 -0.1520 -0.1554  0.1175
56809W        W99726  34.347   3.244  30.971 -0.0285 -0.1516  0.0711
56810W        W99727   4.320   4.418   3.650 -0.0361  0.2148  0.2815
56811W        W99728   2.648   6.145   1.004  0.1993 -0.3410  0.1722
56812W        W99729   0.432   6.017   2.279  0.3970 -0.2006 -0.2472
56813W        W99730   3.576   4.965   2.089  0.0361 -0.0583  0.0790
56814W        W99731   1.263   7.656   1.328 -0.2859 -0.5103 -0.0862
56815W        W99732  34.512   6.233  31.664 -0.0606 -0.1265 -0.0863
56816W        W99733   2.195   3.418   4.895  0.1228  0.2398  0.1524
56817W        W99734   2.828   7.473   3.615 -0.2722  0.0024 -0.1014
56818W        W99735   1.009   3.595   1.280  0.1849  0.1293  0.1432
56819W        W99736  34.116   4.378   2.530 -0.0078 -0.1914  0.0950
56820W        W99737   2.604   5.783   1.342 -0.3438 -0.0052  0.2014
56821W        W99738   2.328   5.393   1.392  0.1582 -0.2268  0.2062
56822W        W99739   3.719   2.857   1.167 -0.0024 -0.0720  0.0322
56823W        W99740   0.511   8.221   0.969 -0.0024 -0.0948 -0.1205
56824W        W99741   2.632   3.572   2.768  0.0134  0.2725 -0.0302
56825W        W99742   2.390   5.511  31.191 -0.3098  0.0129  0.0118
56826W        W99743   3.760   6.196   3.669 -0.1809 -0.3361  0.3235
56827W        W99744   0.924   6.406  31.912  0.1450  0.1217  0.1281
56828W        W99745   0.877   5.022   2.250  0.1190  0.0465 -0.0199
56829W        W99746   1.626   7.443  31.104 -0.1569  0.2041  0.0090
56830W        W99747   2.534   4.407   1.666  0.2890 -0.0809 -0.0252
56831W        W99748   1.908   5.250   3.023  0.2524 -0.1026 -0.2304
56832W        W99749   2.285   6.963   0.570 -0.0723  0.0064  0.2631
56833W        W99750   2.411   6.756   3.826 -0.1906  0.0847  0.1534
56834W        W99751   2.365   5.054   0.196  0.0158 -0.0776 -0.1684
56835W        W99752   0.718   5.676   2.629  0.1284 -0.0160 -0.2743
56836W        W99753   1.714   4.577   2.756  0.2776 -0.4728 -0.2084
56837W        W99754   3.666   6.140   2.019 -0.0841 -0.0751 -0.1395
56838W        W99755   1.046   5.518   0.841  0.1244 -0.2099  0.3332
56839W        W99756   4.192   5.594   2.306  0.1502 -0.1201  0.1213
56840W        W99757   0.236   3.252   2.567  0.1652 -0.2221  0.2072
56841W        W99758   3.290   6.175   3.498  0.1687  0.0182 -0.1877
56842W        W99759   2.321   4.274   5.087  0.1324  0.1561 -0.0326
56843W        W99760   2.754   5.273   5.317  0.0619 -0.2236  0.1372
56844W        W99761   1.019   3.392   2.250 -0.3338  0.0154  0.1713
56845W        W99762   3.723   5.185   0.975 -0.2570 -0.1138  0.2919
56846W        W99763   0.747   3.729  31.240  0.0132  0.2058 -0.0004
56847W        W99764   1.581   7.249   1.465  0.3973 -0.3121  0.0067
56848W        W99765   3.710   7.053   0.178 -0.1000  0.0511  0.2217
56849W        W99766   1.344   7.192   0.933  0.0341 -0.1326 -0.2414
56850W        W99767   2.997   6.507   1.209  0.0018  0.1726  0.1470
56851W        W99768   1.751   7.621   1.772  0.0095  0.1156  0.3253
56852W        W99769   3.128   6.257   1.840  0.1547 -0.0470  0.3185
56853W        W99770   2.750   5.232   1.145  0.1025  0.0406 -0.0679
56854W        W99771   2.000   7.696   2.193 -0.2111  0.0444 -0.0679
56855W        W99772   0.732   3.008   2.428 -0.2089 -0.3044 -0.0141
56856W        W99773   4.265   5.574   1.836 -0.1799 -0.0150 -0.0454
56857W        W99774   3.138   4.158   1.186 -0.1738 -0.0251  0.0357
56858W        W99775   4.870   5.616   2.736 -0.1775 -0.2303 -0.0035
56859W        W99776   4.930   5.532   3.253  0.2910  0.2324 -0.0488
56860W        W99777   2.795   4.769   2.611  0.1182  0.1643  0.0038
56861W        W99778   0.557   3.439   3.882  0.0548 -0.3495 -0.2112
56862W        W99779   4.327   6.876   2.617 -0.1111  0.1283  0.0970
56863W        W99780   4.746   6.436   0.485  0.0226  0.3083  0.2959
56864W        W99781   3.444   2.879   2.065  0.3231  0.0782 -0.0906
56865W        W99782   3.340   5.272  31.140 -0.1002  0.0877 -0.3109
56866W        W99783   2.040   4.636   0.852 -0.0671  0.0178 -0.5576
56867W        W99784  34.515   4.928   1.140  0.1400  0.0939 -0.0555
56868W        W99785   3.096   5.084   3.454 -0.2513 -0.0702  0.0700
56869W        W99786   0.304   4.801   0.841  0.0808  0.1332  0.0152
56870W        W99787   1.861   4.371   2.357  0.1113  0.0713 -0.1228
56871W        W99788   2.404   6.906  31.414 -0.1861 -0.1498 -0.0371
56872W        W99789   3.969   6.683   0.882 -0.3560  0.0899  0.1076
56873W        W99790  34.542   5.591   0.378 -0.1592 -0.1423  0.0700
56874W        W99791   0.663   5.384   1.529  0.3746  0.1740  0.2465
56875W        W99792   0.983   7.009   2.595  0.2221  0.0124 -0.1883
56876W        W99793   0.001   4.493  31.258 -0.2036  0.0567  0.4316
56877W        W99794   0.582   5.736  31.325  0.1466  0.1420 -0.0515
56878W        W99795   1.579   5.121   2.628 -0.1465  0.2275  0.0072
56879W        W99796   2.814   6.162   2.189 -0.0356 -0.3176  0.0512
56880W        W99797   3.208   5.142   1.035  0.0251 -0.1967 -0.1043
56881W        W99798   3.535   4.420   2.054  0.0983  0.1696 -0.2436
56882W        W99799   0.031   8.013   0.920 -0.2723  0.3001  0.0864
56883W        W99800   1.111   2.904   0.598 -0.1680 -0.2253 -0.0681
56884W        W99801   3.233   6.331   3.017 -0.1850  0.1173  0.1317
56885W        W99802   0.873   4.303   1.620  0.0644  0.0632 -0.0112
56886W        W99803   1.420   8.237   2.242  0.1280 -0.1707 -0.1190
56887W        W99804   0.531   3.790   3.500 -0.0945 -0.0906 -0.0107
56888W        W99805   3.916   5.849   1.524 -0.1368 -0.1296  0.1568
56889W        W99806   2.357   5.690   1.870 -0.3046  0.1104 -0.0044
56890W        W99807   3.693   6.405   4.491  0.1387 -0.0296 -0.3393
56891W        W99808   2.350   4.862   1.204  0.1476  0.3065  0.2760
56892W        W99809  33.722   4.357   1.625 -0.0278  0.1374 -0.0718
56893W        W99810   1.541   5.450   3.373 -0.3763  0.2396 -0.1693
56894W        W99811   2.017   6.349   1.076  0.3585  0.1542  0.0260
56895W        W99812   1.178   6.486   1.367 -0.2256 -0.2486 -0.1747
56896W        W99813   0.619   5.193   3.226 -0.0058  0.0872 -0.0896
56897W        W99814   1.301   3.474   4.477  0.1475 -0.2836  0.0125
56898W        W99815   1.096   5.494   1.403  0.0459 -0.0941 -0.0077
56899W        W99816   1.240   4.259  31.719 -0.1956  0.1682 -0.1843
56900W        W99817   2.253   7.420   0.208  0.0956 -0.1340  0.0512
56901W        W99818   1.457   7.984   4.514 -0.3506 -0.1930 -0.2469
56902W        W99819   2.013   5.341   1.930  0.1555 -0.1552 -0.0354
56903W        W99820   1.212   9.461   0.070  0.3701 -0.4688 -0.1408
56904W        W99821   1.059   5.061   1.107 -0.2656 -0.2310 -0.3265
56905W        W99822   2.664   6.190   0.220 -0.2287  0.1632  0.0743
56906W        W99823   2.346   5.067   2.764 -0.2711 -0.2228  0.1227
56907W        W99824   3.336   4.754   2.500 -0.0053  0.1720  0.3204
56908W        W99825   2.526   6.286   3.933 -0.1879  0.1382  0.2144
56909W        W99826   0.125   7.720   0.299 -0.1097  0.0720 -0.2427
56910W        W99827   1.926   5.086   1.406  0.0215  0.2947  0.0418
56911W        W99828   0.913   8.352   2.371 -0.2806 -0.1596  0.0687
56912W        W99829   2.040   7.348   3.026  0.0894  0.3398 -0.1758
56913W        W99830   3.125   2.765  31.691  0.3758 -0.1956 -0.1721
56914W        W99831   4.075   5.468   1.253  0.1333 -0.6204  0.0943
56915W        W99832   1.129   5.183  31.311 -0.0106 -0.1487 -0.0708
56916W        W99833   2.918   5.975   4.257 -0.2268 -0.0642 -0.3646
56917W        W99834   1.173   4.591   1.213 -0.0941 -0.1725 -0.2472
56918W        W99835   1.514   4.663   0.035 -0.2120  0.2240  0.1804
56919W        W99836   1.844   4.866   1.977  0.0040  0.0089 -0.0525
56920W        W99837   3.616   5.677   3.517  0.0971  0.2978  0.2437
56921W        W99838   1.465   7.766   2.197 -0.0757  0.0802 -0.0839
56922W        W99839   3.786   7.799   1.797  0.4590 -0.0495  0.1147
56923W        W99840  34.237   5.410   0.715 -0.2584  0.3804 -0.3898
56924W        W99841   1.558   5.526   2.893 -0.0918 -0.4593  0.2070
56925W        W99842   5.587   3.319   3.905 -0.1752  0.4236 -0.1830
56926W        W99843   3.321   5.943  30.225  0.0244  0.1757 -0.0575
56927W        W99844   3.769   5.604   1.950  0.2572  0.0622  0.3211
56928W        W99845   3.769   8.470  30.684  0.2559  0.3533  0.0345
56929W        W99846   2.340   6.500   2.482  0.0501 -0.2770  0.1385
56930W        W99847   1.900   6.846   0.867 -0.0205  0.3464  0.2078
56931W        W99848   0.824   3.326  30.956  0.0330 -0.0464 -0.0918
56932W        W99849   4.157   6.649   0.375  0.2018 -0.1364 -0.0657
56933W        W99850   2.439   5.337   3.977  0.1261 -0.2164  0.1252
56934W        W99851   5.033   4.659   1.648 -0.1897  0.1228 -0.0290
56935W        W99852   1.307   5.789   2.218  0.0704  0.0949  0.2030
56936W        W99853   1.371   5.080   1.536  0.1191  0.1534  0.5157
56937W        W99854   2.482   4.618   4.596  0.0021  0.2636 -0.0057
56938W        W99855   0.132   5.059   2.842  0.0288 -0.1472 -0.1708
56939W        W99856   0.382   3.350  31.496  0.0085 -0.3765  0.1994
56940W        W99857   1.606   4.377   3.250  0.2870 -0.1584  0.0643
56941W        W99858   2.728   4.655  30.852  0.0826  0.0675 -0.1039
56942W        W99859   3.264   5.862   3.878  0.0446  0.2415 -0.0740
56943W        W99860   1.909   4.156   0.194  0.3368  0.2000 -0.1598
56944W        W99861   0.547   4.276   0.186 -0.0991 -0.0500 -0.1625
56945W        W99862   0.154   5.828   1.041  0.3247  0.1537 -0.0825
56946W        W99863   2.517   4.962   2.222  0.1097 -0.0010  0.0384
56947W        W99864   3.360   7.203   4.213 -0.1872  0.1019 -0.0433
56948W        W99865   1.538   5.369   1.167 -0.0626 -0.1003  0.1898
56949W        W99866   4.631   7.363  31.478  0.1056  0.2140  0.0198
56950W        W99867   5.483   5.109  30.893  0.0604  0.0144  0.0433
56951W        W99868   2.064   7.762   0.790  0.2488  0.0104  0.1054
56952W        W99869   5.152   6.251   0.364 -0.2719  0.0183  0.0686
56953W        W99870   6.070   8.633   1.610 -0.0625  0.0372  0.0778
56954W        W99871   0.947   5.948   1.201 -0.0654  0.3971 -0.0680
56955W        W99872   3.051   5.601   4.580  0.1974  0.0066  0.1499
56956W        W99873   5.955   8.440   1.145  0.0439 -0.0957 -0.2723
56957W        W99874   1.086   5.473   3.052 -0.2290  0.0328  0.1724
56958W        W99875   2.855   4.220   0.201  0.1411 -0.0419  0.0522
56959W        W99876   1.403   6.612   2.808 -0.3778 -0.0988  0.1821
56960W        W99877   3.287   6.733   3.330 -0.2729  0.0009  0.0589
56961W        W99878   4.902   3.587   4.141 -0.1714  0.2464 -0.1354
56962W        W99879   2.252   7.018  28.636 -0.1876 -0.1133  0.0470
56963W        W99880   3.181   0.742   2.477  0.0055  0.0865 -0.2720
56964W        W99881   2.037   5.551   4.132  0.0292 -0.1525 -0.0606
56965W        W99882   2.214   5.762   5.056 -0.1767 -0.2329  0.2098
56966W        W99883  33.882   5.244   1.705 -0.0634 -0.0509  0.1224
56967W        W99884   2.303   4.615   2.579 -0.0020  0.0453 -0.1148
56968W        W99885   0.509   5.108   1.923  0.0544 -0.1735 -0.0273
56969W        W99886   3.113   6.935  29.590  0.0425 -0.0472  0.0634
56970W        W99887   1.092   6.127   3.776 -0.1618  0.2351 -0.1176
56971W        W99888   1.313   4.786   1.914 -0.1115  0.0415  0.0828
56972W        W99889   5.434   5.589   0.744  0.2552  0.2259 -0.1156
56973W        W99890   1.278   2.377   0.687 -0.0575 -0.2721 -0.4614
56974W        W99891   5.685   5.944   2.237 -0.0382 -0.0637  0.2742
56975W        W99892   2.859   5.815   1.842 -0.0281 -0.1355  0.0558
56976W        W99893   1.379   6.916   3.644 -0.0711  0.2973 -0.2583
56977W        W99894  34.656   5.126  30.034 -0.0135 -0.0209 -0.0922
56978W        W99895   3.544   4.613  31.662 -0.0275  0.1579 -0.2017
56979W        W99896   0.807   5.788   1.749 -0.2894 -0.0075 -0.1482
56980W        W99897   0.353   2.245   3.313  0.0003  0.0156  0.0333
56981W        W99898  34.043   7.257   2.531 -0.2146 -0.0436  0.0128
56982W        W99899   0.457   6.473   3.170  0.0082 -0.3482  0.0011
56983W        W99900   1.299   3.798   1.763 -0.3796 -0.0012  0.2015
56984W        W99901   2.246   5.446   2.407  0.1449  0.3377 -0.3050
56985W        W99902   2.030   5.007   2.382 -0.1319 -0.1839  0.0823
56986W        W99903   1.437   5.592   1.795  0.0389  0.0588  0.1696
56987W        W99904   3.633   7.934   1.309 -0.2499 -0.3060 -0.2152
56988W        W99905   2.978   6.014   0.638  0.2332 -0.0914 -0.2025
56989W        W99906   1.883   1.061   1.788  0.2599  0.2109 -0.0642
56990W        W99907   4.839   6.989   2.821  0.0316 -0.0012 -0.1776
56991W        W99908  34.207   4.483   1.129 -0.0269 -0.0485 -0.0319
56992W        W99909   1.171   3.850   3.469 -0.1700 -0.0583  0.0023
56993W        W99910   0.824   4.216   3.244 -0.1248  0.0356 -0.0960
56994W        W99911   1.074   6.139  30.279  0.1303 -0.3601 -0.2383
56995W        W99912   2.847   4.834   0.847 -0.0994 -0.3534 -0.1026
56996W        W99913   1.835   5.626   0.388 -0.0585 -0.0670 -0.1344
56997W        W99914   3.040   6.841  30.183 -0.0337 -0.0480 -0.1582
56998W        W99915   0.145   4.946   1.564  0.3063 -0.1487  0.1992
56999W        W99916   1.831   7.689   2.677  0.1905 -0.0194 -0.1440
57000W        W99917   2.177   3.487   2.893  0.0034 -0.3794 -0.1125
57001W        W99918   3.460   7.727  31.649  0.1828 -0.2905 -0.2165
57002W        W99919   0.209   5.592   2.610  0.1367 -0.1421 -0.0196
57003W        W99920   6.707   3.733  31.746  0.0973 -0.0615 -0.1216
57004W        W99921   4.370   3.819   3.949  0.1710 -0.1615  0.3357
57005W        W99922   2.362   6.165   1.975  0.0445 -0.3404 -0.2681
57006W        W99923   0.926   3.429   3.502  0.2764 -0.0737 -0.2501
57007W        W99924   3.722   5.019   4.293 -0.3989  0.2677  0.1927
57008W        W99925   3.233   4.609   1.634  0.1750 -0.0014  0.4661
57009W        W99926   2.193   3.916   1.293  0.1131 -0.0374 -0.2997
57010W        W99927   2.641   5.664   0.828 -0.0255 -0.1141 -0.1449
57011W        W99928   0.943   5.164   0.226  0.2854 -0.0877  0.2469
57012W        W99929   2.484   5.545   2.892 -0.0017  0.2266  0.0808
57013W        W99930   3.033   5.560   1.459 -0.0571 -0.1373  0.0859
57014W        W99931   2.638   5.743   2.312 -0.1110  0.4654 -0.3649
57015W        W99932   1.990   6.285   2.955  0.2240 -0.1066 -0.0661
57016W        W99933   4.941   6.248   3.871 -0.1965 -0.0655  0.1214
57017W        W99934   1.318   4.010   1.303 -0.1865 -0.3012  0.0721
57018W        W99935   3.917   7.162  31.621 -0.1423 -0.0990  0.1672
57019W        W99936   4.911   7.827   4.118  0.2047 -0.0538  0.2677
57020W        W99937   2.343   9.127   5.223  0.1215  0.0757  0.3127
57021W        W99938   2.151   6.105   4.405  0.4917  0.0863 -0.0602
57022W        W99939   5.793   2.889   2.702  0.2114  0.1424  0.0131
57023W        W99940   1.657   4.684   1.570 -0.1260 -0.2949 -0.1854
57024W        W99941   1.813   7.368   1.032 -0.3039  0.0228  0.1366
57025W        W99942   5.333   6.692   0.728 -0.0521  0.0596 -0.3508
57026W        W99943   5.558   3.409   1.379  0.0908  0.3166  0.1635
57027W        W99944  34.475   3.982  31.498 -0.0069 -0.0649 -0.1131
57028W        W99945   2.534   2.550   0.411 -0.2820  0.0022  0.0386
57029W        W99946   1.800   6.634   3.743 -0.0325 -0.0221 -0.0002
57030W        W99947   1.820   6.618   2.446  0.0438  0.0315  0.2323
57031W        W99948   1.438   6.313   5.930  0.5845  0.0409  0.4116
57032W        W99949   1.428   4.470   4.562 -0.1953  0.1307  0.1641
57033W        W99950   4.989   5.032   3.154 -0.0704 -0.1342 -0.0983
57034W        W99951   3.234   5.713   5.681  0.1474  0.1404 -0.4841
57035W        W99952   1.050   2.832   4.569 -0.0741 -0.1225  0.1282
57036W        W99953   3.367   5.965   4.563  0.0618 -0.0991  0.3048
57037W        W99954   2.500   0.898   6.355  0.0036 -0.1732  0.0600
57038W        W99955   3.001   6.244   5.958  0.0672  0.1168 -0.0751
57039W        W99956   1.127   5.629   6.874 -0.1520  0.2353 -0.2191
57040W        W99957   2.673   6.056   4.676  0.0676  0.3496  0.2733
57041W        W99958   2.750   4.287   4.829  0.0383  0.0620 -0.0298
57042W        W99959   2.132   6.930   5.584  0.1162 -0.0391 -0.2259
57043W        W99960   1.904   4.258   3.808 -0.4154 -0.0184 -0.0359
57044W        W99961  34.087   3.709   6.047 -0.1459 -0.0629 -0.1750
57045W        W99962   3.014   4.898   6.180 -0.0614  0.1294  0.2693
57046W        W99963  34.219   4.293   5.703 -0.0788 -0.0145 -0.0515
57047W        W99964   2.515   5.507   7.252  0.0878 -0.4424  0.1850
57048W        W99965   1.907   4.469   5.270 -0.1312  0.0744 -0.1399
57049W        W99966   2.545   8.091   4.197 -0.1122 -0.0237 -0.1502
57050W        W99967   3.399   2.468   6.399 -0.1007 -0.1590  0.1408
57051W        W99968   2.105   2.609   6.792  0.0077 -0.5010  0.0368
57052W        W99969   2.568   6.107   5.719 -0.1846  0.0987 -0.1367
57053W        W99970   1.241   4.653   3.560 -0.0944 -0.0598  0.0693
57054W        W99971   1.291   3.823   5.169 -0.1028 -0.2858  0.1976
57055W        W99972   2.386   4.219   5.898  0.1126 -0.0659  0.0672
57056W        W99973   3.666   4.136   5.926 -0.0010 -0.0842  0.0112
57057W        W99974   3.732   4.186   5.427  0.0962 -0.1067  0.2006
57058W        W99975   1.982   5.512   6.303 -0.0937 -0.1165  0.0525
57059W        W99976   2.810   7.417   4.968 -0.0708  0.0872 -0.0417
57060W        W99977   3.233   6.251   8.224  0.3109  0.1932 -0.0837
57061W        W99978   2.464   5.057   5.668 -0.3657  0.0864  0.0358
57062W        W99979  33.742   7.284   4.615 -0.1589 -0.2755 -0.0550
57063W        W99980   2.402   6.514   5.538  0.3643  0.3202 -0.1218
57064W        W99981   5.545   5.219   4.574 -0.1028  0.4128  0.1518
57065W        W99982   4.122   6.339   7.882  0.2293 -0.1510  0.2368
57066W        W99983   1.602   7.435   5.760 -0.0708  0.0068 -0.0373
57067W        W99984   1.044   6.862   4.083  0.1329  0.0118 -0.3842
57068W        W99985   1.704   7.259   7.806  0.0442 -0.3048  0.2002
57069W        W99986   1.068   5.318   6.383  0.1299  0.2094 -0.1954
57070W        W99987   4.141   4.655   7.279 -0.2389  0.0527  0.0551
57071W        W99988   3.586   4.309   4.871 -0.0413  0.1545 -0.0563
57072W        W99989   1.340   5.601   4.569 -0.2823 -0.3170 -0.1909
57073W        W99990   3.667   4.538   7.099 -0.1407  0.0094  0.1300
57074W        W99991   3.514   5.842   8.076 -0.2046 -0.1225  0.3835
57075W        W99992   1.959   5.721   4.672 -0.3095 -0.0209  0.4388
57076W        W99993   3.655   5.256   7.230  0.1189  0.2077 -0.1316
57077W        W99994   1.033   6.170   5.229  0.1503 -0.0968  0.1834
57078W        W99995   2.661   4.280   2.825  0.2460  0.2026  0.0298
57079W        W99996   2.918   5.502   3.988  0.2430  0.1102 -0.1466
57080W        W99997   1.987   4.721   3.196 -0.1554 -0.1514 -0.2001
57081W        W99998   2.617   2.312   3.960 -0.0527  0.0144  0.3995
57082W        W99999   2.712   5.701   6.850 -0.2778  0.1613 -0.1723
57083W        W    0  34.664   5.072   6.267 -0.0192 -0.1712  0.5124
57084W        W    1   2.395   1.666   6.813  0.3104 -0.0128  0.2854
57085W        W    2   3.712   5.553   5.186  0.0459  0.1126  0.1737
57086W        W    3   3.181   2.052   7.275  0.2422 -0.2312 -0.0414
57087W        W    4   1.195   5.621   7.353 -0.1479  0.1800  0.0557
57088W        W    5   2.020   2.548   5.864 -0.2072 -0.1590 -0.0497
57089W        W    6   2.131   8.475   3.522 -0.0058  0.0228  0.3212
57090W        W    7   4.694   6.416   5.641  0.0639 -0.1008  0.3722
57091W        W    8   3.101   6.392   4.508 -0.3308 -0.2320 -0.0861
57092W        W    9   1.915   3.187   6.706 -0.1396  0.1349 -0.0979
57093W        W   10   0.638   6.574   6.494 -0.0883  0.3477  0.2799
57094W        W   11  34.501   6.275   7.004 -0.1824  0.4502 -0.0352
57095W        W   12   2.993   5.567   2.985 -0.2933  0.1850 -0.0606
57096W        W   13   4.387   5.751   8.434 -0.2738  0.2707 -0.0153
57097W        W   14   0.569   5.146   6.482  0.0525  0.1120 -0.1721
57098W        W   15   3.328   3.738   2.920  0.0411  0.2517 -0.0234
57099W        W   16   1.733   3.577   5.402  0.0710  0.2215 -0.0399
57100W        W   17   4.009   6.383   6.127 -0.1494 -0.3194  0.0719
57101W        W   18   3.080   5.629   3.502  0.0911  0.1853 -0.1502
57102W        W   19   3.579   3.696   4.060 -0.1625  0.1820 -0.1199
57103W        W   20   3.290   3.250   3.979  0.1183  0.1115  0.2027
57104W        W   21   2.017   5.386   5.262  0.1204 -0.1286  0.1507
57105W        W   22   2.018   5.336   5.819 -0.2632 -0.0406  0.0197
57106W        W   23   4.500   4.314   7.091  0.0460  0.2197 -0.0570
57107W        W   24   3.566   3.913   3.527  0.4865  0.0649  0.0298
57108W        W   25   1.110   6.317   6.259 -0.0318 -0.1835  0.3700
57109W        W   26   4.181   4.535   6.687 -0.0031 -0.0450  0.0530
57110W        W   27   2.259   6.292   6.798  0.0367  0.1849 -0.0501
57111W        W   28   2.031   6.603   4.193 -0.0384  0.2269 -0.2674
57112W        W   29   0.432   4.586   4.902 -0.2984  0.1276 -0.1640
57113W        W   30  34.647   5.342   4.402  0.0421 -0.1039  0.0135
57114W        W   31   0.616   3.153   4.734  0.2287  0.1523  0.0280
57115W        W   32   0.902   4.076   7.529  0.0102  0.1081  0.1944
57116W        W   33   3.093   2.774   4.113  0.4502  0.0769 -0.0450
57117W        W   34   1.673   3.469   6.305 -0.3661  0.1817  0.0195
57118W        W   35   5.150   2.076   6.484  0.0613 -0.1911  0.3423
57119W        W   36   1.352   6.138   4.849  0.2736 -0.0517  0.0330
57120W        W   37   1.925   8.917   3.496  0.2099  0.1718  0.0026
57121W        W   38   2.986   4.645   3.246  0.2194  0.2149  0.0220
57122W        W   39   3.979   8.296   4.206  0.2377  0.0785 -0.0759
57123W        W   40   0.112   2.858   5.530 -0.1877  0.2860  0.0033
57124W        W   41   1.973   3.875   5.053 -0.2868  0.4185 -0.1370
57125W        W   42   3.143   4.360   7.569  0.2355  0.1056 -0.1149
57126W        W   43  33.738   5.169   6.793 -0.2328 -0.1256  0.1953
57127W        W   44   2.810   5.946   8.076  0.0946  0.0107 -0.0161
57128W        W   45   1.047   3.632   3.925 -0.1056  0.0856 -0.0180
57129W        W   46   3.021   6.174   4.998 -0.0489  0.1468  0.1195
57130W        W   47   1.108   4.215   5.483  0.1229 -0.0248 -0.1491
57131W        W   48   1.091   3.347   4.927  0.3698 -0.1547  0.2701
57132W        W   49   4.155   3.601   7.414 -0.0768  0.1318 -0.3896
57133W        W   50   4.066   5.014   4.738 -0.1909 -0.0721  0.0527
57134W        W   51   5.017   7.882   7.841 -0.0596  0.4176  0.1139
57135W        W   52   3.565   7.141   5.194  0.1879  0.0560 -0.2047
57136W        W   53   2.900   3.233   5.656  0.1731  0.1804 -0.0600
57137W        W   54   2.330   3.979   2.587 -0.2376 -0.1688  0.1647
57138W        W   55   1.761   4.887   5.899 -0.1762  0.2772  0.0764
57139W        W   56   2.587   4.546   6.914 -0.1841  0.0497 -0.1755
57140W        W   57   1.881   4.803   4.511  0.2628  0.1855  0.0005
57141W        W   58   3.167   5.270   7.488  0.0502  0.2392 -0.1353
57142W        W   59   1.410   4.611   5.474  0.0363 -0.0207  0.1954
57143W        W   60   0.685   5.468   7.194 -0.0150 -0.2837 -0.1930
57144W        W   61   4.637   3.798   6.995 -0.1029 -0.1688 -0.0789
57145W        W   62   4.916   3.585   5.943 -0.0258 -0.1754  0.0168
57146W        W   63   3.689   4.238   4.324  0.0616 -0.2126 -0.3861
57147W        W   64   3.018   3.729   4.078  0.0323 -0.0616 -0.0364
57148W        W   65   3.419   6.467   4.931  0.1955  0.2410  0.1915
57149W        W   66   0.517   7.936   5.666  0.2792  0.2208 -0.1233
57150W        W   67   1.554   6.192   3.562  0.1935 -0.0621 -0.0440
57151W        W   68   1.480   9.191   5.679  0.0223 -0.1670  0.2121
57152W        W   69   3.012   4.043   3.125 -0.0235  0.0605 -0.1915
57153W        W   70   2.139   4.595   7.244 -0.2206  0.1790 -0.0955
57154W        W   71   2.134   3.932   6.293  0.1535 -0.0461  0.5457
57155W        W   72   0.772   4.608   2.653 -0.1615 -0.3093  0.3119
57156W        W   73  34.552   6.583   5.542  0.0033 -0.1773  0.0800
57157W        W   74   1.955   2.687   2.248 -0.0553  0.3604  0.1114
57158W        W   75   4.947   5.060   4.669 -0.0615 -0.2286 -0.1788
57159W        W   76   2.796   4.469   5.971 -0.0610  0.2048  0.3337
57160W        W   77   4.852   4.973   4.161  0.2912 -0.1563  0.0087
57161W        W   78   2.123   4.243   3.389 -0.4097 -0.1494 -0.1144
57162W        W   79   3.924   1.786   3.005 -0.0411 -0.0633 -0.0503
57163W        W   80   1.830   4.958   7.307  0.2896 -0.1908  0.1618
57164W        W   81   2.518   6.096   5.163 -0.1929  0.0197 -0.2280
57165W        W   82   2.031   6.048   5.464 -0.0373 -0.5392  0.0127
57166W        W   83   1.633   2.991   2.413 -0.2618  0.1354  0.1832
57167W        W   84   3.904   4.662   5.113 -0.3637  0.0807 -0.2374
57168W        W   85   3.108   4.115   6.148  0.2719  0.4121  0.1832
57169W        W   86   2.110   3.688   6.784 -0.0789 -0.0430  0.0114
57170W        W   87   3.869   5.995   4.645 -0.0209 -0.1336 -0.2139
57171W        W   88   1.586   3.854   4.675 -0.1408  0.1759 -0.0145
57172W        W   89   1.408   4.983   4.426  0.0011  0.0664  0.0827
57173W        W   90   2.772   4.090   5.618 -0.0370 -0.2348 -0.2226
57174W        W   91   0.079   6.633   2.372 -0.1783  0.1405  0.1826
57175W        W   92   2.523   3.857   5.217  0.0003  0.0718 -0.3759
57176W        W   93   3.563   2.283   5.011 -0.0492  0.0777 -0.1145
57177W        W   94   3.365   1.864   6.760 -0.1130  0.1816  0.3704
57178W        W   95   4.022   4.174   7.051  0.0933  0.0246  0.1016
57179W        W   96   3.542   4.908   4.763  0.1375  0.2089  0.2420
57180W        W   97   3.875   6.800   5.889  0.0468  0.2786 -0.0792
57181W        W   98   1.362   3.619   2.502 -0.0206 -0.0642 -0.0013
57182W        W   99   2.270   0.667   5.976 -0.0652  0.0459  0.0963
57183W        W  100   0.915   4.442   6.778  0.0381 -0.1165 -0.0264
57184W        W  101   0.345   5.665   7.536  0.2227  0.0649 -0.0872
57185W        W  102   3.000   4.505   8.003  0.0820 -0.2110 -0.0465
57186W        W  103   3.794   4.481   3.488 -0.1107 -0.0265  0.2962
57187W        W  104   2.286   2.042   8.709 -0.1467 -0.2502  0.2240
57188W        W  105   2.142   3.161   4.122 -0.1311 -0.0067 -0.0159
57189W        W  106   2.792   6.849   4.533  0.2034 -0.2589 -0.2071
57190W        W  107   3.977   5.195   3.324 -0.0554 -0.2446 -0.0377
57191W        W  108   2.300   2.490   4.946  0.3596  0.1465 -0.3183
57192W        W  109   1.890   7.038   4.444  0.0430 -0.0275 -0.0415
57193W        W  110   0.650   7.818   4.299 -0.0120 -0.1706  0.3340
57194W        W  111   0.666   6.161   6.775  0.1609  0.1149  0.3331
57195W        W  112  34.390   5.567   6.460  0.0442 -0.2128  0.0742
57196W        W  113   3.856   3.325   7.113  0.0388  0.1125  0.2006
57197W        W  114  34.314   5.571   4.746  0.0803 -0.4329  0.0138
57198W        W  115   2.724   5.129   3.099 -0.0911 -0.0111 -0.1571
57199W        W  116  34.547   4.778   4.256 -0.1951  0.0549  0.2461
57200W        W  117   3.816   5.097   2.897 -0.0585  0.0428  0.0690
57201W        W  118   4.629   6.044   1.882  0.1314 -0.1575 -0.0604
57202W        W  119   0.349   3.471   6.153  0.1371 -0.0386 -0.0398
57203W        W  120   2.068   2.938   4.989  0.2599  0.0429 -0.1922
57204W        W  121   1.118   3.555   6.310 -0.0003 -0.0819 -0.2107
57205W        W  122   2.968   5.844   7.351  0.1441 -0.3200 -0.0636
57206W        W  123   2.583   4.952   3.510  0.1489  0.1868  0.1773
57207W        W  124   4.576   5.554   5.025 -0.0995 -0.1669  0.1029
57208W        W  125   2.150   3.739   8.740  0.1762 -0.0726  0.0704
57209W        W  126   1.346   2.702   3.968  0.0406  0.2568 -0.0362
57210W        W  127   2.896   4.876   6.654  0.0717 -0.1357  0.1127
57211W        W  128   0.577   2.567   5.965 -0.2676 -0.0702  0.2321
57212W        W  129   1.209   4.967   5.748  0.0578 -0.0142 -0.2466
57213W        W  130   1.676   4.531   7.186 -0.0668 -0.1763  0.0032
57214W        W  131   0.576   5.998   5.428  0.0179 -0.0981 -0.1251
57215W        W  132  34.288   7.302   6.146  0.0505 -0.2872 -0.2292
57216W        W  133   3.295   3.891   6.557 -0.0754 -0.2125  0.3238
57217W        W  134   3.634   3.303   4.881 -0.1091  0.1744 -0.0865
57218W        W  135   3.965   4.582   4.582 -0.0633 -0.0327 -0.2125
57219W        W  136   2.833   2.750   3.004 -0.0479  0.1820 -0.0292
57220W        W  137   3.244   5.641   5.064 -0.1295  0.0694  0.1464
57221W        W  138   3.937   5.908   5.849  0.1474  0.5072  0.0853
57222W        W  139   2.499   3.981   6.820 -0.0895 -0.2002 -0.1303
57223W        W  140   1.044   5.309   7.857 -0.1698  0.0859 -0.2055
57224W        W  141   2.541   3.372   5.339 -0.1042  0.1478 -0.3131
57225W        W  142   3.627   7.093   3.341 -0.1118  0.0997  0.1361
57226W        W  143   3.311   3.311   6.943  0.0864 -0.2942 -0.0542
57227W        W  144   2.410   5.849   3.939 -0.1483 -0.0030 -0.1123
57228W        W  145   2.258   2.994   5.954 -0.1992 -0.2125 -0.1637
57229W        W  146   2.517   6.498   4.388 -0.2013  0.3424  0.2746
57230W        W  147   3.787   1.212   7.350  0.1304 -0.0385 -0.1516
57231W        W  148   2.897   5.369   6.481  0.1213  0.3073  0.1058
57232W        W  149   2.281   7.761   3.852 -0.0019 -0.3328  0.0965
57233W        W  150   2.163   5.857   5.953 -0.1110 -0.0662 -0.1996
57234W        W  151   1.789   2.976   1.913 -0.2084 -0.0797  0.1798
57235W        W  152   4.736   7.179   4.180 -0.0173  0.0769 -0.3309
57236W        W  153   2.419   5.630   5.506  0.3522  0.1939 -0.2591
57237W        W  154   4.455   3.356   7.132 -0.2906  0.2830  0.2383
57238W        W  155   3.094   3.637   2.490  0.0646 -0.1662 -0.0398
57239W        W  156   3.689   4.232   6.693  0.1818 -0.0143  0.0495
57240W        W  157   1.423   2.241   7.711 -0.0744 -0.2012 -0.1123
57241W        W  158   3.419   6.387   4.064  0.0100  0.0241 -0.1939
57242W        W  159   1.978   5.019   6.333  0.1488 -0.0488  0.1888
57243W        W  160   2.676   6.535   6.814  0.0410 -0.1496 -0.0739
57244W        W  161   0.458   5.893   7.125 -0.1081  0.0576 -0.2076
57245W        W  162   1.984   3.430   5.911 -0.0224 -0.0784  0.2835
57246W        W  163   1.575   2.500   4.354 -0.1069 -0.2125  0.0702
57247W        W  164   2.541   3.461   6.669 -0.0946  0.2001 -0.1851
57248W        W  165   5.789   5.761   5.762 -0.2164  0.2545  0.1211
57249W        W  166   1.795   5.179   4.861 -0.0827  0.1273  0.0476
57250W        W  167   4.308   3.849   2.916 -0.0619 -0.1234 -0.2253
57251W        W  168   4.323   4.318   4.169  0.3007 -0.0518  0.0353
57252W        W  169   3.784   5.568   2.798 -0.1338 -0.1348 -0.0079
57253W        W  170   2.461   4.661   3.080  0.1000 -0.0345  0.0416
57254W        W  171  33.834   4.055   4.696  0.0808 -0.1382  0.0667
57255W        W  172   3.078   3.221   5.158  0.0403  0.2507  0.0643
57256W        W  173   3.896   6.371   5.031 -0.3803  0.2017  0.1699
57257W        W  174   4.178   2.896   5.457  0.0611 -0.2261  0.0534
57258W        W  175   3.777   2.207   6.488  0.3326  0.2860 -0.2599
57259W        W  176   3.619   5.038   6.414  0.2827  0.3023  0.1707
57260W        W  177   1.785   3.972   7.200  0.0293 -0.0311 -0.0684
57261W        W  178   0.187   3.670   6.609  0.0253 -0.0627 -0.0214
57262W        W  179   3.408   6.066   7.211  0.1277 -0.0460  0.3252
57263W        W  180   2.926   4.212   4.214 -0.0657 -0.0228 -0.1773
57264W        W  181   3.935   4.694   6.159  0.0548 -0.0942 -0.1803
57265W        W  182   3.922   4.116   3.889  0.2749 -0.3844 -0.3135
57266W        W  183   3.762   4.564   2.814  0.0076  0.0210  0.0863
57267W        W  184   3.278   3.480   4.437 -0.0782 -0.1023 -0.2062
57268W        W  185   4.053   5.101   5.867 -0.0703 -0.0585 -0.1621
57269W        W  186   0.281   3.838   5.248  0.0433  0.3608 -0.0002
57270W        W  187   4.174   3.656   7.891 -0.2311 -0.0121 -0.0141
57271W        W  188   2.536   7.019   5.271  0.0769 -0.1168 -0.0652
57272W        W  189   2.913   6.322   5.421  0.2308 -0.1865 -0.0244
57273W        W  190   2.503   3.461   3.962  0.2236 -0.2469  0.1310
57274W        W  191  34.457   3.409   6.288  0.0271  0.1780  0.0086
57275W        W  192   0.261   6.421   6.760 -0.0047  0.0144 -0.0495
57276W        W  193   0.890   4.365   3.743  0.2588  0.1777  0.2190
57277W        W  194   0.786   6.422   4.091  0.1133 -0.1596  0.0864
57278W        W  195   2.432   5.471   6.122 -0.0684  0.2559 -0.0668
57279W        W  196   3.020   3.342   7.412 -0.0212  0.1430 -0.3051
57280W        W  197   2.019   3.157   3.172  0.1256 -0.0660 -0.2652
57281W        W  198   3.828   5.464   6.217  0.2175 -0.0974 -0.1720
57282W        W  199  34.447   5.755   2.825 -0.1157  0.1891  0.0304
57283W        W  200   3.050   2.070   3.991  0.0524 -0.2082 -0.0197
57284W        W  201   0.235   7.368   6.220 -0.0687 -0.2172 -0.1292
57285W        W  202   1.010   5.772   6.136 -0.1164 -0.0043  0.1709
57286W        W  203   0.463   6.137   4.446  0.1679  0.0713 -0.0155
57287W        W  204   3.130   2.436   5.980  0.3549  0.0037  0.1112
57288W        W  205   3.589   3.192   6.591 -0.0222  0.2801  0.1662
57289W        W  206   1.794   6.144   5.059 -0.0558 -0.1297  0.1335
57290W        W  207   3.891   4.057   8.017  0.1324 -0.1160 -0.0096
57291W        W  208   2.194   3.420   6.325  0.1504  0.0256 -0.1275
57292W        W  209   0.902   4.702   5.258  0.0785 -0.2159 -0.0918
57293W        W  210   3.639   6.385   8.006 -0.1821 -0.0527  0.1539
57294W        W  211   3.774   5.973   4.147 -0.0836 -0.0152 -0.2011
57295W        W  212  34.321   6.412   5.987 -0.0108 -0.2542 -0.1709
57296W        W  213   1.802   3.405   7.895  0.1121  0.2346 -0.2501
57297W        W  214   2.691   4.507   7.522 -0.1349 -0.2435 -0.0344
57298W        W  215   3.342   5.334   6.136 -0.1227  0.0091  0.0646
57299W        W  216   1.987   5.005   4.008  0.3332  0.0213 -0.2901
57300W        W  217   1.492   5.720   5.053  0.0515 -0.0176 -0.4633
57301W        W  218   1.410   7.171   8.720 -0.1757  0.1853 -0.3545
57302W        W  219   1.028   5.690   5.046  0.1575  0.1707  0.1346
57303W        W  220   0.214   8.030   4.056  0.1284 -0.0700 -0.0031
57304W        W  221   3.298   7.213   4.829 -0.0080  0.6510  0.0668
57305W        W  222   4.574   6.934   3.596 -0.0196 -0.5503  0.1536
57306W        W  223   1.759   4.484   6.252 -0.0661 -0.1592 -0.0713
57307W        W  224   0.669   4.814   4.336 -0.2419  0.2547 -0.2346
57308W        W  225   0.796   5.206   6.006  0.2488 -0.3006  0.0186
57309W        W  226   0.786   6.653   3.623  0.4094  0.1754 -0.0260
57310W        W  227   4.730   6.351   2.955  0.2312 -0.0670 -0.1008
57311W        W  228   0.059   7.820   6.090 -0.2255 -0.0518 -0.1669
57312W        W  229   3.186   6.748   8.262  0.1923 -0.2684  0.0045
57313W        W  230   3.160   2.689   2.496  0.2743 -0.0868  0.1081
57314W        W  231   2.977   4.848   5.583 -0.0209 -0.0386  0.3038
57315W        W  232   2.689   5.102   4.406 -0.0408  0.2667  0.0972
57316W        W  233   1.920   7.023   6.471 -0.0499  0.2186 -0.0836
57317W        W  234   1.355   4.526   5.952 -0.0243 -0.1159 -0.2499
57318W        W  235   3.047   4.591   3.827 -0.3424  0.1017  0.2305
57319W        W  236   3.383   5.494   8.809  0.0106 -0.0804  0.0246
57320W        W  237   4.830   2.333   8.021  0.4427 -0.0639 -0.1240
57321W        W  238   0.712   5.655   6.639  0.0131  0.0732  0.0377
57322W        W  239   4.855   5.456   1.550  0.0371 -0.1613  0.0626
57323W        W  240   1.546   4.819   5.034  0.0720  0.0985  0.0130
57324W        W  241   0.170   4.861   5.183  0.0871 -0.0349  0.0475
57325W        W  242   3.482   2.397   6.883  0.2341 -0.0215 -0.0564
57326W        W  243   3.050   4.401   2.123  0.0524 -0.0024  0.1308
57327W        W  244   3.624   3.698   5.200 -0.0720  0.1589 -0.3385
57328W        W  245   1.593   7.390   4.280 -0.0429  0.0151  0.1032
57329W        W  246   1.668   6.958   5.456 -0.3145 -0.1721 -0.3722
57330W        W  247   1.831   3.958   5.916 -0.0421 -0.0366 -0.0656
57331W        W  248   0.788   4.216   4.439 -0.0272 -0.0456  0.1780
57332W        W  249   3.504   4.186   3.100  0.0419 -0.1378  0.0347
57333W        W  250   2.684   2.954   4.988 -0.0841  0.0464  0.1992
57334W        W  251   4.311   3.376   5.697 -0.2271 -0.3799 -0.0331
57335W        W  252  34.461   6.092   5.345 -0.0061 -0.1796 -0.0845
57336W        W  253   1.127   5.022   3.986 -0.0102 -0.1706 -0.0442
57337W        W  254   1.809   4.428   5.728  0.0303 -0.4136  0.0097
57338W        W  255   2.316   4.469   6.469  0.2704 -0.1016  0.1059
57339W        W  256   3.185   3.659   4.925 -0.0979 -0.3188 -0.1952
57340W        W  257   3.001   3.406   6.500  0.0043 -0.4375  0.1296
57341W        W  258   2.760   4.010   2.342 -0.0245 -0.0724  0.2241
57342W        W  259   2.349   7.294   6.374  0.0719 -0.0790  0.1134
57343W        W  260   1.629   4.616   4.114  0.0475 -0.1569 -0.1496
57344W        W  261   1.898   3.422   3.790  0.2363  0.0457 -0.1459
57345W        W  262   1.693   4.146   4.258  0.1395  0.1830  0.0967
57346W        W  263   2.975   2.837   7.373 -0.1248 -0.0356 -0.0643
57347W        W  264   3.673   5.942   6.756  0.1151 -0.2129 -0.0475
57348W        W  265   0.467   1.523   5.863 -0.0335 -0.1247 -0.0641
57349W        W  266   4.469   6.431   3.906 -0.2383 -0.1324  0.0514
57350W        W  267   3.232   4.100   5.175 -0.0983 -0.1328  0.1507
57351W        W  268   2.120   7.487   4.223  0.1365 -0.1739 -0.4287
57352W        W  269   4.102   5.526   4.849  0.0307 -0.2531  0.0466
57353W        W  270   4.134   5.106   6.474 -0.1254 -0.1266  0.1344
57354W        W  271   1.422   3.696   7.996 -0.1145  0.1233  0.3229
57355W        W  272   2.863   5.838   5.364 -0.0803 -0.0558 -0.0195
57356W        W  273   2.677   7.045   6.868  0.1271  0.1825 -0.1589
57357W        W  274   3.197   4.188   4.628 -0.2056 -0.0757  0.1231
57358W        W  275   1.831   3.381   4.468  0.0605  0.0124 -0.0992
57359W        W  276  33.519   7.634   3.124 -0.0047  0.0112 -0.0214
57360W        W  277   4.019   2.373   4.693 -0.2497  0.2421  0.1083
57361W        W  278   4.600   2.843   5.077 -0.0873 -0.0948  0.1670
57362W        W  279   4.318   5.960   5.493  0.1841 -0.0839 -0.3958
57363W        W  280   3.255   3.618   8.916  0.0596  0.0417  0.1730
57364W        W  281   1.843   6.565   6.843  0.2410 -0.3554  0.1644
57365W        W  282   0.298   5.409   6.830  0.1786 -0.0060 -0.1255
57366W        W  283   3.549   5.855   2.416 -0.1213 -0.0700 -0.0007
57367W        W  284   1.202   4.003   4.233  0.0520  0.1306 -0.1975
57368W        W  285   2.474   5.844   6.435 -0.1995 -0.0129  0.0966
57369W        W  286   1.748   6.402   4.545  0.1088  0.5095 -0.3938
57370W        W  287   4.234   6.771   4.860 -0.1237  0.1022 -0.1783
57371W        W  288   1.073   4.854   4.786  0.0371 -0.2226  0.0180
57372W        W  289   4.427   6.400   3.407 -0.1573 -0.3196 -0.0071
57373W        W  290   1.532   3.061   4.243 -0.1650 -0.0465 -0.0780
57374W        W  291   3.240   5.292   5.419 -0.3079  0.3176  0.0328
57375W        W  292   3.482   4.105   2.459 -0.0831 -0.0741 -0.1391
57376W        W  293   0.250   5.240   7.407 -0.0637  0.1219  0.1135
57377W        W  294   2.022   3.785   4.349 -0.1201 -0.0653  0.3936
57378W        W  295   1.924   8.453   3.053  0.0142 -0.2410  0.1407
57379W        W  296   0.447   6.771   5.019  0.0227 -0.0054 -0.0937
57380W        W  297   3.643   2.732   7.998  0.4656  0.2151  0.0973
57381W        W  298   1.797   6.530   7.306  0.0429 -0.0469 -0.0439
57382W        W  299   3.318   4.130   3.897 -0.0992 -0.1285 -0.2526
57383W        W  300   1.568   5.209   3.835 -0.2709 -0.1206  0.2065
57384W        W  301   4.658   7.135   4.770 -0.1477 -0.0176  0.5487
57385W        W  302   2.726   3.398   4.796 -0.1445 -0.1566  0.3280
57386W        W  303   0.508   3.746   5.690  0.2172  0.4060 -0.1724
57387W        W  304   3.440   6.688   5.480 -0.0247  0.3049 -0.2437
57388W        W  305   2.728   7.554   5.433 -0.0791 -0.0994  0.0117
57389W        W  306   1.712   2.589   4.952  0.0043 -0.2360  0.4007
57390W        W  307   5.900   6.691   7.285  0.0145 -0.0182  0.1030
57391W        W  308   3.084   6.756   5.156  0.2243  0.2227  0.2515
57392W        W  309   2.345   3.084   6.950 -0.1730  0.1751  0.3519
57393W        W  310   3.063   4.717   7.216 -0.1428  0.0947 -0.3905
57394W        W  311   0.270   3.543   4.287  0.1125 -0.0664 -0.0613
57395W        W  312   2.857   4.334   6.496 -0.0522 -0.3675 -0.0030
57396W        W  313   2.952   7.368   4.442 -0.2382 -0.2161  0.1258
57397W        W  314   2.791   5.968   3.093 -0.0560 -0.0577 -0.2905
57398W        W  315   1.693   4.701   6.697 -0.1813  0.0912 -0.0849
57399W        W  316   2.226   5.767   6.942  0.1005  0.1291  0.4897
57400W        W  317   0.776   3.858   5.254  0.0706  0.0424 -0.1010
57401W        W  318   3.835   6.010   3.196 -0.2542 -0.0404 -0.1744
57402W        W  319   1.286   4.485   6.466 -0.0386  0.0283  0.0608
57403W        W  320   5.521   5.529   5.342 -0.1673  0.1828  0.0502
57404W        W  321   3.676   2.735   4.752 -0.0397  0.0924  0.0904
57405W        W  322   2.412   5.653   4.405 -0.1921 -0.1376  0.3554
57406W        W  323   1.917   2.917   7.136 -0.0305 -0.0449 -0.2362
57407W        W  324   1.321   4.279   6.996 -0.0349 -0.2641  0.1272
57408W        W  325   4.331   5.572   6.534 -0.1939  0.2324  0.3313
57409W        W  326   2.851   5.225   5.879 -0.1429  0.1078  0.2387
57410W        W  327   2.997   4.730   4.567  0.0381  0.0630 -0.2638
57411W        W  328   2.832   7.049   4.064 -0.3183  0.2581 -0.2337
57412W        W  329   1.509   3.585   5.831 -0.2876  0.0558  0.0173
57413W        W  330   2.921   6.590   3.890  0.0828 -0.0800  0.1290
57414W        W  331   2.368   2.828   8.742 -0.3067 -0.1990  0.2173
57415W        W  332   3.378   6.055   5.333 -0.1340 -0.2835 -0.0266
57416W        W  333   3.669   3.648   8.160  0.0874 -0.2470 -0.1586
57417W        W  334   1.410   4.221   3.812  0.1810  0.0864 -0.3559
57418W        W  335   6.980   5.766   3.074  0.1964 -0.2356  0.0901
57419W        W  336   3.244   6.724   6.039  0.1796 -0.1577  0.3740
57420W        W  337   3.343   7.339   8.933 -0.1943  0.0443 -0.2552
57421W        W  338   2.894   5.226   7.083  0.1281  0.0838 -0.0557
57422W        W  339   3.714   3.082   5.866 -0.2432 -0.1902  0.0075
57423W        W  340  34.396   3.853   6.513  0.0972  0.0869  0.0102
57424W        W  341   1.990   4.922   5.461  0.5263  0.0566  0.1522
57425W        W  342   3.433   6.198   6.376 -0.0999  0.1050 -0.0261
57426W        W  343   2.836   3.131   6.973  0.0089  0.0790  0.0271
57427W        W  344   2.488   5.213   6.703  0.0401  0.0150 -0.3227
57428W        W  345   3.238   3.057   4.712  0.0245  0.0041  0.0838
57429W        W  346   1.558   6.815   4.153 -0.0932 -0.0668 -0.3410
57430W        W  347   1.331   3.036   6.419 -0.0306  0.2475  0.1562
57431W        W  348   2.082   4.970   9.431 -0.3343 -0.3002 -0.2263
57432W        W  349   1.638   3.381   8.801 -0.1993 -0.1842 -0.2247
57433W        W  350   4.153   2.903   7.941  0.1393  0.3204 -0.0602
57434W        W  351   3.179   5.032   7.996 -0.0588  0.0075 -0.1552
57435W        W  352   0.717   5.071   7.488 -0.0705 -0.0304  0.0089
57436W        W  353   3.999   6.807   7.976 -0.4286  0.1003  0.1170
57437W        W  354   4.677   8.026  12.895 -0.0378 -0.0331 -0.0388
57438W        W  355   4.781   6.077   8.784  0.2124  0.0950 -0.1697
57439W        W  356   1.402   4.947   6.328 -0.3406  0.2582 -0.2092
57440W        W  357  34.313   4.454   9.246  0.1407 -0.2315  0.3249
57441W        W  358   1.668   2.441   8.135  0.1468  0.0725 -0.2789
57442W        W  359   0.973   2.227   7.538  0.1646  0.3244  0.1493
57443W        W  360   1.262   7.598   9.532 -0.2282 -0.0448  0.0654
57444W        W  361   0.872   4.292   6.303  0.1727 -0.0869 -0.1858
57445W        W  362   3.165   5.721   8.444 -0.1268  0.0433 -0.1311
57446W        W  363   2.324   3.269   7.978 -0.0982  0.0227 -0.1145
57447W        W  364   2.776   5.566  10.389 -0.1605 -0.4977 -0.1260
57448W        W  365   2.272   5.780   9.847 -0.3389 -0.3518  0.1016
57449W        W  366   2.184   6.856   7.071 -0.0496  0.0932 -0.0697
57450W        W  367   1.210   5.083   8.336  0.0683  0.1069 -0.3125
57451W        W  368   1.988   3.207   9.981  0.0658 -0.3426  0.1873
57452W        W  369   0.581   6.059   8.533 -0.1673  0.0111  0.3356
57453W        W  370   5.653   4.592  10.991 -0.2370  0.0652 -0.1046
57454W        W  371   1.638   5.673   8.632  0.1456  0.0373  0.0460
57455W        W  372   1.483   6.816   7.693 -0.2116  0.0445  0.0670
57456W        W  373   0.711   6.416   8.873 -0.1660 -0.2056  0.0085
57457W        W  374  33.736   5.375   8.985 -0.0708  0.0786 -0.1330
57458W        W  375   0.694   6.498   7.940  0.2223  0.2175  0.1988
57459W        W  376   2.746   6.973   9.837 -0.0246  0.0111  0.1099
57460W        W  377   3.866   5.530   8.908  0.1837  0.0271  0.0654
57461W        W  378  34.403   8.378   5.801  0.1136  0.1487  0.3281
57462W        W  379   2.391  34.029  11.674  0.0906  0.1268  0.0030
57463W        W  380   1.952   4.424   9.517  0.0408  0.1215 -0.1414
57464W        W  381   2.086   4.235   6.864 -0.0646  0.1441  0.0650
57465W        W  382   2.952   6.880   9.167 -0.0306  0.0787  0.0804
57466W        W  383   2.283   7.617   8.183  0.1134  0.0861  0.0025
57467W        W  384   2.558   7.254   9.145  0.0716  0.0991  0.2202
57468W        W  385   2.859   2.009   7.915  0.1458 -0.2864  0.0485
57469W        W  386   2.289   2.791   7.757  0.2090  0.0710  0.1776
57470W        W  387   2.705   4.092   7.822 -0.0867  0.3131 -0.0172
57471W        W  388   5.242   5.214  10.310  0.0398  0.0751  0.0497
57472W        W  389   2.826   3.961   9.114 -0.1089 -0.4499 -0.0198
57473W        W  390   4.435   4.900   8.829  0.0055 -0.1863 -0.3188
57474W        W  391   2.728   5.447   9.913 -0.1866 -0.1669 -0.1229
57475W        W  392   0.847   5.978   9.127 -0.0988  0.0948  0.2526
57476W        W  393   0.230   4.024   8.780 -0.0847 -0.1814 -0.1795
57477W        W  394   2.583   5.623   8.840  0.0066  0.3200 -0.2801
57478W        W  395   2.798   5.075   8.741 -0.0743 -0.3122  0.0227
57479W        W  396   4.166   6.556   8.394 -0.3446  0.3195  0.2203
57480W        W  397   0.477   4.467   8.731 -0.2492  0.2027 -0.3717
57481W        W  398   1.070   3.492   6.847 -0.0389  0.2009  0.4202
57482W        W  399   3.822   5.025   8.949 -0.0519 -0.3097 -0.1385
57483W        W  400   2.116   5.318   7.480  0.1026 -0.2478  0.2660
57484W        W  401   1.415   5.753   9.688  0.0013  0.2720  0.0977
57485W        W  402   2.470   3.554   7.144 -0.2593 -0.0485 -0.1176
57486W        W  403   3.752   6.727  10.181 -0.3354  0.1430 -0.0659
57487W        W  404   3.361   5.101   9.275 -0.0214  0.0229 -0.4482
57488W        W  405   2.523   4.392   8.184  0.2691 -0.1622  0.2127
57489W        W  406   1.765   4.552   7.787 -0.0522 -0.4776  0.2430
57490W        W  407   2.060   4.430   8.184  0.0237  0.1347  0.0247
57491W        W  408   2.554   5.169   9.384 -0.1432 -0.3110  0.2905
57492W        W  409   1.452   4.630   8.803 -0.3205 -0.0947  0.3209
57493W        W  410   2.425   7.251   7.416  0.0545  0.1614 -0.0261
57494W        W  411  34.017   7.239   9.597  0.2404 -0.1958  0.2506
57495W        W  412   2.328   6.329   7.970  0.2518 -0.0514  0.1005
57496W        W  413   0.255   3.603   9.026  0.1034  0.1156  0.0910
57497W        W  414   0.528   8.166   9.295 -0.1410 -0.2569 -0.0113
57498W        W  415   2.898   4.205   7.089  0.1588  0.0946 -0.0470
57499W        W  416   2.291   5.586  10.302 -0.0681  0.0830 -0.0082
57500W        W  417   1.513   6.020   7.419  0.1148 -0.2199  0.4036
57501W        W  418   3.431   7.277   7.650  0.1041  0.0586  0.4297
57502W        W  419   4.120   1.492   9.645 -0.1248 -0.0978  0.0088
57503W        W  420   3.051   6.068   6.825  0.1860 -0.0605  0.2509
57504W        W  421   0.707   2.930  11.795 -0.1759  0.0140 -0.0498
57505W        W  422   2.074   2.554   8.404  0.0273 -0.1958  0.2513
57506W        W  423   0.703   4.409   8.224 -0.1888  0.0929 -0.1857
57507W        W  424   0.615   3.616   6.849  0.2788  0.0300 -0.0315
57508W        W  425   1.796   4.877   9.834  0.0853  0.2174  0.0842
57509W        W  426   0.648   6.179   7.536  0.0331  0.2539 -0.1356
57510W        W  427  33.217   4.045   7.996  0.0878  0.2075  0.0671
57511W        W  428   3.608   5.248   7.943 -0.0525 -0.2767  0.1344
57512W        W  429   4.160   7.537   9.899  0.2001 -0.0137  0.0312
57513W        W  430   3.905   6.772   9.216 -0.1785  0.0079 -0.0167
57514W        W  431   1.657   3.188   9.375 -0.1791  0.0004  0.2721
57515W        W  432   2.524   4.469  10.327  0.1289 -0.0754 -0.1893
57516W        W  433  34.322   7.487   8.268 -0.2991 -0.1577 -0.0298
57517W        W  434   2.126   8.436   9.069  0.0204 -0.1957 -0.1961
57518W        W  435   2.203   4.287   7.720 -0.2139 -0.1464 -0.0757
57519W        W  436   1.596   7.266   9.296  0.0114  0.2922  0.2041
57520W        W  437   3.166   7.962   9.290 -0.1114 -0.1430 -0.0458
57521W        W  438   1.405   5.807   7.820 -0.2143  0.1101  0.0306
57522W        W  439   2.904   3.255   8.341  0.4602  0.0881  0.3475
57523W        W  440   3.873   9.169   9.015  0.0217 -0.1622  0.0058
57524W        W  441   2.224   7.363   6.884  0.1761  0.1472  0.2185
57525W        W  442   1.235   6.689   8.070  0.3670 -0.2531 -0.2669
57526W        W  443   1.348   5.966  10.141  0.1833  0.2300 -0.1408
57527W        W  444   5.657   5.611   9.068  0.2171  0.1938 -0.0520
57528W        W  445  34.241   3.790   9.765  0.0502  0.2398 -0.2526
57529W        W  446   4.600   5.086   9.635 -0.2117 -0.0625  0.0011
57530W        W  447   3.375   4.098   7.115  0.1447  0.2154  0.2462
57531W        W  448   3.730   5.514   8.406 -0.0777 -0.0049  0.0621
57532W        W  449   3.321   5.585   6.999  0.0297  0.0196  0.0309
57533W        W  450   3.720   1.708   9.287  0.0436  0.1837  0.2278
57534W        W  451   1.447   6.260   6.918 -0.3682 -0.0579 -0.0412
57535W        W  452   2.047   5.712   7.813  0.1415  0.1685 -0.1325
57536W        W  453   3.380   3.035   7.697  0.1561  0.0517  0.0758
57537W        W  454   3.318   6.285   8.832 -0.0607 -0.0273 -0.2533
57538W        W  455   1.605   4.626   8.272 -0.0758 -0.0334 -0.0873
57539W        W  456   1.820   5.809   9.362 -0.1841  0.1479  0.1694
57540W        W  457  33.293   2.186   9.383  0.0887 -0.0077  0.0405
57541W        W  458   3.766   3.915   7.419  0.1403  0.2434  0.0020
57542W        W  459   2.022   3.061   8.459  0.4062 -0.1363 -0.0051
57543W        W  460   0.394   7.079   6.592 -0.0657 -0.1503  0.2278
57544W        W  461   3.371   4.049   8.718 -0.0818 -0.1162  0.0136
57545W        W  462   4.147   5.246   9.783 -0.0061  0.0895 -0.1340
57546W        W  463   2.875   2.851   5.971 -0.2304  0.3278 -0.0341
57547W        W  464   4.553   5.532   8.935  0.1146  0.0742  0.0142
57548W        W  465   1.846   4.050   8.472 -0.1919 -0.1399  0.1038
57549W        W  466   2.166   1.263   7.657  0.3077  0.2589 -0.2353
57550W        W  467   0.758   4.053   8.580 -0.1444  0.2541 -0.2044
57551W        W  468   4.799   6.471  10.247 -0.0497  0.1736 -0.1328
57552W        W  469   1.836   3.562   8.357  0.2335 -0.0162 -0.1266
57553W        W  470   2.665   7.046   8.262  0.0704  0.0403 -0.1850
57554W        W  471   1.014   6.411   8.369 -0.1889  0.2093 -0.3546
57555W        W  472   3.426   3.558   7.349 -0.1897 -0.1678  0.2409
57556W        W  473   1.689   7.165   9.773 -0.3335  0.0503 -0.0194
57557W        W  474   1.927   6.044   6.470 -0.1301  0.0962 -0.1966
57558W        W  475   5.580   5.811  10.483  0.2253 -0.0989 -0.1625
57559W        W  476   2.979   7.414   7.491 -0.2163  0.2014 -0.1240
57560W        W  477   3.320   3.167   9.176 -0.0993  0.2209 -0.4881
57561W        W  478   1.603   8.743   9.098 -0.0523 -0.2549 -0.2450
57562W        W  479   2.610   3.544   7.671 -0.0442  0.2681  0.0290
57563W        W  480  33.868   4.436   7.244 -0.3811  0.1378 -0.2552
57564W        W  481   3.834   4.892  10.453 -0.0993 -0.0403  0.0128
57565W        W  482   1.694   5.609   7.281  0.3885 -0.1942  0.0269
57566W        W  483   1.124   2.437   9.970 -0.2255  0.2861  0.0278
57567W        W  484   3.239   5.592  10.109  0.0067 -0.0043  0.0846
57568W        W  485   0.184   6.835   9.033 -0.2268 -0.0240 -0.0748
57569W        W  486   2.496   2.831   8.216 -0.0612  0.2334 -0.1101
57570W        W  487  34.673   3.882   7.869  0.0665  0.1319 -0.1922
57571W        W  488   3.672   4.992   8.380 -0.2008 -0.0854 -0.3399
57572W        W  489   1.099   6.448   9.244 -0.0072 -0.2618  0.0517
57573W        W  490   1.533   7.739   8.596 -0.1115 -0.1151 -0.2655
57574W        W  491   3.686   8.258   8.536 -0.3079 -0.0547 -0.0167
57575W        W  492   1.695   6.994   7.286 -0.0972  0.2642  0.3767
57576W        W  493   1.412   4.959   7.894 -0.2222 -0.0868  0.2610
57577W        W  494   4.582   5.531   9.954 -0.0532  0.0295  0.0852
57578W        W  495   0.897   5.005   9.949  0.1456 -0.2281  0.3388
57579W        W  496   2.102   3.285   7.501 -0.2222  0.2582  0.2672
57580W        W  497   3.490   3.356   9.706 -0.1486  0.5914 -0.2137
57581W        W  498   4.215   5.125   9.315 -0.0224 -0.0611 -0.2752
57582W        W  499   2.881   2.346  10.153  0.0641  0.0960  0.1040
57583W        W  500   3.049   2.683   8.600  0.0459  0.1301 -0.2114
57584W        W  501   3.504   7.545   8.123 -0.1945  0.1139 -0.2163
57585W        W  502  34.531   4.701   8.181  0.0451 -0.1198 -0.1982
57586W        W  503  33.015   6.857   9.021 -0.1836  0.2187  0.0482
57587W        W  504   1.607   4.158   8.055 -0.1916 -0.3048  0.0209
57588W        W  505   2.466   6.294   8.886  0.2706  0.0041 -0.4162
57589W        W  506   2.307   5.274   7.948  0.0844 -0.0340  0.0996
57590W        W  507   1.504   6.645   6.394  0.0722  0.2756  0.1788
57591W        W  508   1.313   1.631   9.394 -0.0336 -0.0742 -0.0173
57592W        W  509   2.589   2.699   6.770 -0.1362  0.2099 -0.0716
57593W        W  510   2.502   4.972   6.189  0.1174 -0.0992  0.3229
57594W        W  511   0.679   2.174   9.869 -0.0303 -0.0384  0.1150
57595W        W  512   3.401   4.660  10.169 -0.0293 -0.0125 -0.1328
57596W        W  513  34.540   2.791   9.466  0.1407 -0.0666  0.0840
57597W        W  514   2.953   5.430   9.169 -0.0275  0.1778 -0.3849
57598W        W  515   2.966   2.646   9.193  0.1466  0.0104 -0.2417
57599W        W  516   1.126   3.973   6.649  0.0365 -0.3639  0.0269
57600W        W  517   1.560   6.298   8.066 -0.2390 -0.0019  0.1029
57601W        W  518   1.993   6.293   8.497  0.0982  0.0829  0.2190
57602W        W  519   2.245   4.310   8.745  0.2253  0.0829 -0.0386
57603W        W  520   3.262   4.951   8.800  0.2046  0.1155 -0.1712
57604W        W  521   1.921   6.194   7.704  0.1399  0.0029  0.0990
57605W        W  522   2.557   4.446   9.180  0.1536 -0.0428  0.2167
57606W        W  523   3.225   4.695   8.388 -0.1365 -0.2939 -0.1393
57607W        W  524   1.918   6.866   8.611  0.1511 -0.2645 -0.1890
57608W        W  525   1.758   5.131   8.530  0.1032  0.0823  0.0688
57609W        W  526   3.846   6.392   8.793 -0.2360 -0.1692 -0.3275
57610W        W  527   3.645   8.362   7.935  0.0256  0.1286 -0.2385
57611W        W  528   4.107   3.627   8.954 -0.3281  0.1236  0.1339
57612W        W  529   2.247   6.424   9.923 -0.0995 -0.0108  0.2636
57613W        W  530   2.790   5.728   9.496  0.1447 -0.1424 -0.1372
57614W        W  531   2.208   3.792   8.050  0.0760 -0.0826 -0.0779
57615W        W  532   0.848   3.095   7.990 -0.0152  0.3471 -0.3175
57616W        W  533   1.605   3.116   7.487  0.0268 -0.2139  0.2714
57617W        W  534   2.188   7.102   8.099  0.2242 -0.2116 -0.1017
57618W        W  535   3.481   6.521   9.248 -0.2414 -0.1520 -0.0053
57619W        W  536   3.216   2.829   6.794  0.0932  0.2286  0.1390
57620W        W  537   0.729   4.116   7.063 -0.2889 -0.0307 -0.2102
57621W        W  538   2.780   2.619   7.807 -0.1855 -0.0202  0.0472
57622W        W  539   1.623   5.310   7.668 -0.0232  0.3613 -0.1586
57623W        W  540   3.438   4.148  10.002  0.1806  0.0438 -0.0024
57624W        W  541   3.331   3.005  10.345  0.0985  0.2680 -0.0884
57625W        W  542   2.588   4.853   8.138 -0.1378  0.0656  0.0844
57626W        W  543   1.683   3.004  10.366 -0.0512 -0.0627  0.2256
57627W        W  544   0.480   8.704   9.579  0.0094 -0.0269 -0.3199
57628W        W  545   1.862   8.669   8.689 -0.2197 -0.2143  0.0540
57629W        W  546   2.461   6.820   8.915 -0.1049  0.2133  0.4448
57630W        W  547   2.458   3.964   8.449  0.4776 -0.0933 -0.1575
57631W        W  548   1.880   2.183  10.110 -0.0792 -0.0668 -0.1437
57632W        W  549   1.860   4.912   8.962 -0.3648  0.1057  0.0199
57633W        W  550   6.063   5.314   8.475  0.1784  0.0053 -0.0203
57634W        W  551   2.669   6.153   7.658  0.0025  0.1588  0.0864
57635W        W  552   3.187   5.229   9.679  0.2354 -0.0437  0.0623
57636W        W  553   2.417   1.656   9.040 -0.2313 -0.2190 -0.0264
57637W        W  554   0.876   5.734   7.673  0.1055  0.1584  0.2770
57638W        W  555   1.896   4.976   8.049 -0.3080  0.2155  0.2903
57639W        W  556   3.677   6.602   8.425  0.1308  0.0048 -0.2324
57640W        W  557   4.007   4.896   7.721  0.3217  0.0407  0.0577
57641W        W  558   3.411   4.577   9.216 -0.0637  0.1041 -0.1402
57642W        W  559   3.345   6.989   9.962 -0.0818  0.1240  0.0088
57643W        W  560   1.714   3.978   9.487 -0.0395  0.0327 -0.1413
57644W        W  561   0.908   7.553   7.264  0.3201 -0.0988 -0.1577
57645W        W  562   0.021   6.743   8.395  0.1193 -0.0080 -0.0145
57646W        W  563   4.106   4.911   8.219  0.1845 -0.0419 -0.3372
57647W        W  564   2.676   7.609   7.043  0.2625  0.3084  0.0137
57648W        W  565   3.720   1.251   7.847  0.3728  0.1013 -0.1550
57649W        W  566   5.160   5.689  10.091  0.1337 -0.0631  0.0402
57650W        W  567   2.905   4.538  10.017 -0.0234  0.2413 -0.1166
57651W        W  568   1.404   4.298   9.355  0.2174 -0.1330 -0.1792
57652W        W  569   4.254   3.209   8.761  0.2977 -0.0380  0.1869
57653W        W  570   2.681   5.492   8.328 -0.1977  0.0360 -0.1721
57654W        W  571   1.596   3.709   7.550 -0.2151 -0.1045 -0.0230
57655W        W  572   2.017   4.831  10.339  0.0259 -0.4329  0.0613
57656W        W  573   3.765   5.340   9.416  0.0454  0.0297  0.0528
57657W        W  574   2.568   6.117   7.094 -0.0429  0.2534 -0.1765
57658W        W  575   1.865   2.717   9.996  0.3347 -0.0123  0.1917
57659W        W  576   2.632   7.760   7.557 -0.0339 -0.1852  0.0672
57660W        W  577   1.659   6.173   8.851 -0.0530  0.1722  0.0144
57661W        W  578   2.694   9.432   9.351  0.0001  0.2191  0.1499
57662W        W  579   0.274   2.834   7.542  0.0723 -0.2289  0.1036
57663W        W  580   3.622   4.578   8.749 -0.0144  0.1309  0.1806
57664W        W  581   2.398   3.432   8.444  0.1054  0.0488  0.4150
57665W        W  582   2.281   4.803   7.702 -0.0463 -0.0964  0.1160
57666W        W  583   3.494   4.852   7.636 -0.1085  0.1684 -0.2007
57667W        W  584   2.897   4.670  10.713  0.1745  0.1648  0.0172
57668W        W  585  34.378   3.222   8.517 -0.1654 -0.2060 -0.2586
57669W        W  586   3.281   3.196   8.646 -0.1456  0.1548  0.3303
57670W        W  587   3.440   3.990   7.763  0.0708  0.2293 -0.0707
57671W        W  588   1.393   2.994   9.028 -0.0625  0.0273  0.0591
57672W        W  589   3.742   3.395   8.628 -0.1004 -0.3148  0.1237
57673W        W  590   1.462   5.508   8.218  0.4105  0.0573 -0.2986
57674W        W  591  34.183   7.730  13.140  0.2252  0.1245  0.1152
57675W        W  592   0.289   5.039   8.710  0.0672  0.1075  0.1251
57676W        W  593   2.450   4.994   7.207  0.1501  0.1483  0.0660
57677W        W  594   2.398   5.957   8.399  0.0102 -0.0059  0.0876
57678W        W  595   1.745   7.280   6.837  0.4056 -0.2685 -0.1052
57679W        W  596   4.968   5.060   8.699 -0.2354  0.1258 -0.0420
57680W        W  597   2.799   4.941   9.767 -0.3270  0.1945  0.0543
57681W        W  598   1.038   1.378   9.843  0.0803  0.1910 -0.1002
57682W        W  599   3.457   3.496  10.580 -0.0166 -0.0315 -0.2496
57683W        W  600   3.072   7.049   7.877  0.2006  0.2555 -0.0131
57684W        W  601   1.648   5.463   9.087  0.0319 -0.0798  0.1682
57685W        W  602   2.044   4.686   8.578 -0.0387  0.5098 -0.3151
57686W        W  603  33.584   8.135   9.255 -0.2295  0.0322 -0.2491
57687W        W  604   3.593   6.174  10.162  0.0371 -0.2304  0.0595
57688W        W  605   3.278   2.229   7.732 -0.4376 -0.0485 -0.1138
57689W        W  606   3.187   5.260   8.402 -0.1133 -0.0738 -0.0729
57690W        W  607   1.439   5.437   5.948 -0.2312  0.2166  0.0177
57691W        W  608   1.006   5.520   9.228 -0.0379  0.2262 -0.1389
57692W        W  609   2.742   6.508   8.177  0.3124 -0.1175 -0.0256
57693W        W  610   1.969   3.711   9.808 -0.0849 -0.1973 -0.3399
57694W        W  611   3.211   3.621   8.393  0.1415 -0.3233  0.2746
57695W        W  612   4.411   6.570   7.452  0.0354  0.1499  0.3556
57696W        W  613   1.098   5.727   8.742 -0.2858 -0.1352  0.1441
57697W        W  614   2.395   4.174   9.666  0.0865 -0.1079  0.1703
57698W        W  615   2.768   3.124   8.804 -0.0413 -0.1716 -0.0548
57699W        W  616  34.008   5.805   9.010 -0.1781 -0.3436 -0.0978
57700W        W  617   2.007   6.736   6.074  0.1323  0.0125  0.0402
57701W        W  618   1.731   5.695   6.794  0.0873  0.0685 -0.2646
57702W        W  619   0.052   5.538   7.905  0.1009 -0.2197  0.1513
57703W        W  620   1.847   6.103   9.739  0.0356 -0.1759  0.1680
57704W        W  621   1.337   5.127   8.863 -0.3246 -0.0072 -0.1913
57705W        W  622   2.273   5.916   7.438  0.0589  0.0632 -0.1321
57706W        W  623   1.496   3.944  10.450 -0.4896 -0.1138  0.4933
57707W        W  624  34.353   3.885   7.419  0.1408  0.0306 -0.0549
57708W        W  625   2.914   4.836   9.207  0.1039  0.5736  0.2356
57709W        W  626   4.886   6.887   8.790  0.2918  0.0679 -0.3058
57710W        W  627   4.051   4.502  10.215  0.5158 -0.2169  0.1543
57711W        W  628   0.547   6.628   8.386 -0.1716  0.2178 -0.1187
57712W        W  629   1.165   4.558   8.066  0.1220 -0.1589 -0.0570
57713W        W  630   2.429   3.582   9.176  0.0226  0.0333 -0.0128
57714W        W  631   1.536   6.928   5.981 -0.0140  0.0108  0.1588
57715W        W  632   3.133   5.513   7.974  0.0721 -0.0986 -0.0288
57716W        W  633  33.054   3.189   9.529  0.2004  0.0948  0.0337
57717W        W  634   2.831   7.098   8.712 -0.0721  0.0275 -0.2316
57718W        W  635   5.032   5.590   8.733  0.0079  0.1010 -0.0213
57719W        W  636   4.502   3.062  10.259  0.0459 -0.0656  0.0718
57720W        W  637   1.719   3.891   8.985 -0.0149  0.1177 -0.2938
57721W        W  638   2.066   5.909   8.872  0.2920  0.0644  0.0585
57722W        W  639   4.846   1.322  11.160 -0.1558 -0.0471  0.0138
57723W        W  640   2.976   2.274   9.613 -0.2536  0.1917  0.0743
57724W        W  641   1.875   7.394   8.420  0.1130  0.0810 -0.0108
57725W        W  642   1.828   5.880   8.217  0.0906 -0.0091 -0.0492
57726W        W  643   3.377   4.751   9.672 -0.0687  0.0327  0.0730
57727W        W  644   5.347   7.323   8.506 -0.3822  0.2666 -0.0962
57728W        W  645   2.705   5.053   7.618 -0.1305  0.2808 -0.3491
57729W        W  646   2.093   5.343   8.857  0.2555 -0.2600 -0.2672
57730W        W  647   4.971   3.892  11.286 -0.1113 -0.0209 -0.0939
57731W        W  648   2.134   5.512   8.391  0.2726  0.1518  0.1047
57732W        W  649  34.149   6.480   9.489  0.1894 -0.1384 -0.1869
57733W        W  650   2.401   3.533  10.090 -0.2226  0.1595 -0.2171
57734W        W  651   1.654   6.311   9.325 -0.0080 -0.3322  0.2141
57735W        W  652  33.732   7.678   9.599 -0.1856  0.1930  0.1991
57736W        W  653   5.258   6.071   6.998  0.0504  0.2007  0.1930
57737W        W  654   1.045   3.901   9.704 -0.0015  0.1288  0.0326
57738W        W  655   2.348   4.930   8.962 -0.0623  0.3878  0.1523
57739W        W  656   1.911   6.680   9.593  0.1552 -0.1667 -0.1687
57740W        W  657   2.659   4.602   8.627 -0.1790  0.0966  0.1347
57741W        W  658   2.123  10.729   2.932 -0.0101  0.0447 -0.0313
57742W        W  659   0.577   8.475   0.482  0.0751  0.0398 -0.0105
57743W        W  660   3.773   7.157  30.800  0.1749 -0.0179 -0.2166
57744W        W  661   3.413   8.971  31.710 -0.1679 -0.2853  0.0600
57745W        W  662   0.281   7.638   1.132 -0.0244  0.0048  0.0917
57746W        W  663   1.026   9.359  30.722  0.5077  0.1644  0.2453
57747W        W  664   1.401   6.936   2.288  0.3261  0.3869 -0.1680
57748W        W  665   3.680  10.633   0.551 -0.2916  0.2404  0.0700
57749W        W  666   4.712   8.473   2.889 -0.1407  0.0713  0.2243
57750W        W  667   4.228  11.268   0.965 -0.1813 -0.1883 -0.1846
57751W        W  668   4.313   8.433   1.868  0.0875 -0.3113 -0.3336
57752W        W  669   1.751   9.845   3.587 -0.1978 -0.2031 -0.0980
57753W        W  670   2.603   6.250  29.620  0.2585  0.0221 -0.3241
57754W        W  671   1.410   7.261   1.902  0.2762  0.0723 -0.0088
57755W        W  672   2.874   7.768   3.151 -0.3249  0.1210 -0.0993
57756W        W  673  34.229   9.641   0.255  0.3121  0.1604 -0.1128
57757W        W  674   0.107   7.552   3.695 -0.1781 -0.0259  0.2232
57758W        W  675   3.813   8.060  31.542  0.0194  0.1286  0.2387
57759W        W  676   1.318   9.762   2.370  0.2232 -0.1942  0.0001
57760W        W  677   3.055   9.875   3.581  0.1427 -0.1997 -0.2424
57761W        W  678   3.211   8.150   2.621  0.2414 -0.0730 -0.4806
57762W        W  679   1.459   9.715   0.423 -0.3486 -0.1723  0.1223
57763W        W  680  33.639  10.474   0.261 -0.1422  0.0194 -0.1158
57764W        W  681  34.191   9.805   1.514  0.0234  0.1543  0.0231
57765W        W  682  34.195   9.900   0.647  0.1907 -0.3624 -0.0088
57766W        W  683   2.709   8.067   1.696  0.6437 -0.0156 -0.1856
57767W        W  684   3.657   8.519   0.244  0.1488  0.0195 -0.0067
57768W        W  685   3.199  10.744   0.646 -0.3065  0.2157 -0.3595
57769W        W  686   1.799   8.727   1.402 -0.0008  0.0951 -0.1582
57770W        W  687   0.475   8.425   3.322  0.2399 -0.0440  0.0493
57771W        W  688   1.293  10.257   0.443  0.0370 -0.0453 -0.1295
57772W        W  689  34.113  12.568   3.098  0.0754  0.0582  0.0489
57773W        W  690   0.511  10.834  31.001  0.1032  0.3989 -0.2771
57774W        W  691   3.753   9.079   0.150  0.0571 -0.2375  0.3153
57775W        W  692   4.038   8.743   2.211  0.2215  0.0220 -0.4768
57776W        W  693   2.591  10.982   2.935 -0.3573 -0.0525  0.1187
57777W        W  694   0.362  10.766  31.678 -0.2071  0.1864 -0.1541
57778W        W  695   2.892   9.120   3.128 -0.3881  0.0034  0.4514
57779W        W  696   2.309  11.898   2.545  0.0527 -0.2073 -0.1855
57780W        W  697   2.362  11.401   2.732  0.1701 -0.1563  0.1512
57781W        W  698   2.179   9.512   0.714  0.0046 -0.1450  0.2739
57782W        W  699   1.644   9.383  31.531  0.1536 -0.0201 -0.3014
57783W        W  700   1.597   8.815   0.985  0.0204  0.0135 -0.0387
57784W        W  701   3.320  10.250   3.702 -0.2356  0.2570 -0.0829
57785W        W  702   0.663   9.597   1.583  0.2405 -0.2295  0.1046
57786W        W  703   4.006   5.567   4.384 -0.0658 -0.2687  0.0175
57787W        W  704   1.575  10.475  30.828  0.1021 -0.3175  0.2058
57788W        W  705   3.209   7.778  29.233  0.2840 -0.3255 -0.0448
57789W        W  706   0.654   8.202  31.467 -0.1356  0.2425 -0.3236
57790W        W  707   2.389  10.437   0.578  0.1305  0.2489 -0.0167
57791W        W  708   1.234   5.796   3.469 -0.2132 -0.1632  0.0981
57792W        W  709   0.724  11.403   2.905 -0.2972 -0.1402  0.0140
57793W        W  710   2.000   9.321   3.057  0.2984 -0.0838 -0.2150
57794W        W  711   5.342   8.081   3.826  0.2347  0.1385  0.0175
57795W        W  712   3.847   9.013  30.674 -0.1095 -0.2784 -0.0497
57796W        W  713   2.633   7.968   3.616  0.0784 -0.0106  0.0828
57797W        W  714  33.778   7.631   3.666  0.1718  0.2542 -0.1805
57798W        W  715   0.451   9.960   0.184  0.0104 -0.0702  0.2667
57799W        W  716   2.600  12.456   0.744 -0.0719  0.0057 -0.3067
57800W        W  717   2.822  10.244   0.357  0.0045  0.0346 -0.1537
57801W        W  718   0.963  10.064  30.740  0.0706  0.1739 -0.0892
57802W        W  719   1.111   8.897   0.626  0.0517  0.3557 -0.3659
57803W        W  720   1.723   9.444   2.053 -0.0351  0.0589  0.1322
57804W        W  721   0.550   8.793   2.598  0.2197 -0.0387 -0.2023
57805W        W  722   2.760   7.312  31.326 -0.0239 -0.1405  0.0796
57806W        W  723   4.172  12.079   1.625 -0.0250  0.0640  0.3086
57807W        W  724  34.394   8.189   3.899 -0.0544 -0.0089 -0.0005
57808W        W  725   2.934   6.502  31.854 -0.2520 -0.0708  0.1421
57809W        W  726   2.709   7.014   0.826 -0.0197 -0.1590 -0.1253
57810W        W  727   2.267   9.526   1.960  0.0121 -0.0166  0.2135
57811W        W  728   4.648   9.302   0.332  0.2248  0.0019 -0.0709
57812W        W  729   3.772   6.596   3.246  0.1122 -0.0879  0.1319
57813W        W  730   3.330   6.284   2.393  0.0453  0.0864  0.0271
57814W        W  731   1.326   9.375  31.153  0.0622 -0.2030  0.2329
57815W        W  732   2.533   9.802  31.612 -0.1338  0.2131  0.0738
57816W        W  733   3.403   8.083   1.716  0.1614  0.0005 -0.2111
57817W        W  734   4.478  12.233   0.885  0.2393 -0.2181 -0.0588
57818W        W  735   0.975  12.891   4.458 -0.0725 -0.0085 -0.3130
57819W        W  736   3.831   6.923   4.233  0.0724 -0.2329 -0.4672
57820W        W  737   1.982   9.838   3.121  0.3316  0.4031  0.0481
57821W        W  738   2.445   9.333   1.548  0.2160 -0.0533  0.0593
57822W        W  739  34.444   9.869   1.096 -0.0806 -0.1704 -0.0123
57823W        W  740   0.094  11.098  31.197  0.1060 -0.2295 -0.0878
57824W        W  741   1.043   6.560   2.338 -0.0658  0.0832 -0.0901
57825W        W  742   1.988   8.904   1.977  0.1542 -0.0908  0.1675
57826W        W  743   2.559   9.069   0.191  0.0433 -0.0462 -0.1819
57827W        W  744  34.076   8.880   2.048  0.4400  0.0950  0.0039
57828W        W  745   5.374   7.434   2.671  0.0105 -0.3116 -0.2978
57829W        W  746   0.095   9.852   0.688  0.0783 -0.4049 -0.1022
57830W        W  747   4.835  12.822  31.529  0.0900  0.0115 -0.1136
57831W        W  748   2.986  10.691   1.630  0.1316 -0.1152  0.1966
57832W        W  749   2.359   9.564   0.129 -0.2827  0.0771 -0.0050
57833W        W  750   0.186   9.071   0.921 -0.1118 -0.0971 -0.1046
57834W        W  751   0.620   7.820   1.622 -0.0258  0.0775 -0.1261
57835W        W  752   0.618   7.794   2.706  0.1650  0.2140 -0.1027
57836W        W  753   1.562   7.815   0.779  0.0185 -0.0528  0.4352
57837W        W  754   4.017   8.421   1.383  0.1240 -0.2116 -0.2887
57838W        W  755   2.166   6.434   0.306  0.1956  0.2802  0.0579
57839W        W  756   3.098   7.868   1.344  0.0173 -0.2189  0.0588
57840W        W  757  34.292   9.461   0.703 -0.0343  0.0088 -0.0344
57841W        W  758   1.209  10.448  31.195  0.0966 -0.2706 -0.1478
57842W        W  759   4.965   6.928   3.261 -0.0043 -0.2839  0.1496
57843W        W  760   1.960   9.881   0.445  0.3253 -0.1325  0.1742
57844W        W  761   4.185   9.247   1.555 -0.4718  0.0340  0.4571
57845W        W  762   2.558  10.329   2.994  0.1067 -0.0504  0.0980
57846W        W  763   0.998   9.510   1.232  0.3112 -0.2266  0.0895
57847W        W  764   1.061   8.184  30.554 -0.0743  0.0854  0.2081
57848W        W  765   1.013  10.137   2.065 -0.0288 -0.1492 -0.2029
57849W        W  766   4.193   9.981   0.449  0.0002  0.1271  0.0601
57850W        W  767   1.766  12.004  30.197  0.0191  0.1791 -0.5970
57851W        W  768   2.743   9.068   2.669 -0.0028 -0.1682 -0.3063
57852W        W  769   2.289   9.015   0.604 -0.1576 -0.1114 -0.1506
57853W        W  770   0.191   8.631   2.945  0.4686 -0.0208  0.0426
57854W        W  771   3.526   7.460   2.308 -0.2114  0.3056 -0.0325
57855W        W  772   3.361   7.595   1.711  0.0088 -0.1204 -0.1165
57856W        W  773   2.207   6.950   2.207 -0.2622  0.1471 -0.1824
57857W        W  774   0.554   6.891   1.347  0.1623 -0.4000  0.1793
57858W        W  775   1.168   9.850   0.889 -0.2159 -0.0670 -0.1544
57859W        W  776  34.219  11.310   0.171 -0.3609  0.2184  0.4676
57860W        W  777  33.742   9.623   0.600 -0.0730 -0.0115 -0.3652
57861W        W  778   3.164   8.551   0.193  0.2369  0.0800 -0.0505
57862W        W  779   5.028   7.160   2.399  0.1521  0.2132 -0.0966
57863W        W  780  34.604   9.674   4.585  0.4580 -0.2075  0.0298
57864W        W  781   1.394   8.734   4.453 -0.0950 -0.0605  0.2603
57865W        W  782  32.871  10.993  30.308  0.3170  0.0869  0.1328
57866W        W  783   0.755  10.965   2.288  0.2876  0.2999 -0.2157
57867W        W  784   2.327   6.320  31.123 -0.2582  0.1881  0.1489
57868W        W  785   5.762   9.146   1.229  0.3772 -0.0290 -0.3611
57869W        W  786   4.493  10.094   3.539  0.2445  0.2196  0.0454
57870W        W  787   4.641  11.240   1.201 -0.1643  0.0538 -0.4428
57871W        W  788   5.101   8.256  30.341 -0.0437  0.0394  0.0604
57872W        W  789   5.056   9.385  30.380  0.1461 -0.0114  0.3128
57873W        W  790   0.393   9.874   4.791 -0.0656  0.2191  0.0524
57874W        W  791   2.780  10.245   1.685  0.0819  0.3159 -0.1598
57875W        W  792   2.346   8.773   2.341 -0.1075 -0.1651  0.0268
57876W        W  793   2.176   8.153  30.384 -0.0231  0.0884  0.1747
57877W        W  794   1.613   8.325   1.141 -0.2889  0.0301  0.0785
57878W        W  795   1.221   9.170   2.144  0.0928  0.1301 -0.3449
57879W        W  796   3.354  10.568   5.049 -0.2178 -0.0071  0.0352
57880W        W  797   2.754  10.195   0.853  0.2828 -0.0411 -0.0659
57881W        W  798   3.347   7.928   3.245 -0.0656 -0.0153 -0.0872
57882W        W  799   1.428   9.826  31.001 -0.0948 -0.1156 -0.0605
57883W        W  800   3.791   7.913  31.060 -0.0343 -0.0721 -0.1817
57884W        W  801  33.822  12.018   0.334  0.2300 -0.0242  0.0505
57885W        W  802   5.284   8.211   2.193  0.1298 -0.0703 -0.2457
57886W        W  803   3.268   7.204   1.452 -0.2229  0.1917  0.0135
57887W        W  804   2.018   6.810   2.837 -0.0480  0.2197 -0.1313
57888W        W  805   3.033   8.316   3.223 -0.2209 -0.1396  0.2341
57889W        W  806   3.600  11.138   1.800 -0.1575  0.1178  0.2441
57890W        W  807   3.386   6.499   0.827  0.0237  0.0327 -0.0395
57891W        W  808   0.151   8.186  31.267 -0.2478  0.0258  0.0176
57892W        W  809   3.991   8.082   3.645  0.0960 -0.0112 -0.0830
57893W        W  810   1.287   8.694   2.135  0.0799 -0.0979 -0.0506
57894W        W  811   0.797  10.826   2.832  0.0563  0.1833  0.2478
57895W        W  812   3.149  11.385   3.844  0.0463  0.0923  0.0281
57896W        W  813   2.738  12.489   4.154  0.0725 -0.1081  0.1224
57897W        W  814   1.060   8.432   3.507 -0.0015 -0.0608  0.1224
57898W        W  815   4.226   7.550  30.188  0.2644 -0.0810 -0.0215
57899W        W  816   2.925  12.350   0.325 -0.1660  0.0042  0.0212
57900W        W  817   3.862  10.978  31.300  0.1923  0.1501  0.0922
57901W        W  818   2.246   7.849   1.718  0.1209 -0.0536  0.1083
57902W        W  819   0.595   9.935   1.219  0.1396 -0.0407  0.2138
57903W        W  820   0.314  11.694  30.395 -0.1119  0.1916 -0.0120
57904W        W  821   4.205  10.916   0.433  0.0596  0.1327  0.0227
57905W        W  822   1.506   8.988   1.751  0.0963 -0.1951 -0.0009
57906W        W  823   2.241   6.863   1.699 -0.1878  0.0573 -0.3060
57907W        W  824   0.310   9.711   3.251 -0.3368  0.0698  0.0403
57908W        W  825   1.027   8.525   0.265 -0.0057 -0.0325  0.2491
57909W        W  826   0.390   8.730   1.284 -0.2299 -0.0255 -0.3938
57910W        W  827   2.671   9.176   1.075 -0.1009  0.1314  0.0194
57911W        W  828   3.010  10.548  31.284  0.3695 -0.1921  0.5145
57912W        W  829   3.563   8.552   2.524  0.1145  0.0399 -0.1931
57913W        W  830   2.840   7.470   1.154  0.1889 -0.0607  0.2470
57914W        W  831   0.354  10.768   3.564 -0.0152  0.0030  0.0718
57915W        W  832   3.404  10.112   3.220  0.0966  0.0345  0.2000
57916W        W  833   1.976   7.587  30.772 -0.1751  0.2250 -0.1103
57917W        W  834   0.741  10.310   2.982  0.0475 -0.2940 -0.2044
57918W        W  835   1.709  10.502   2.777  0.1793 -0.0133  0.0000
57919W        W  836   1.777   7.570  31.593  0.2228 -0.0251  0.3502
57920W        W  837   4.638   7.336   3.207  0.0622  0.2472 -0.0583
57921W        W  838   0.959  10.892   0.080  0.0955  0.1446  0.1765
57922W        W  839   2.128  11.666   1.180 -0.0460 -0.5912 -0.0886
57923W        W  840   2.531  11.132   1.813 -0.0698  0.0879 -0.2635
57924W        W  841   0.089  11.020   0.904  0.1348  0.0704 -0.3127
57925W        W  842  34.382   9.394   1.242  0.1974 -0.0050 -0.0039
57926W        W  843   0.675   6.937   3.153 -0.1745 -0.2849  0.0088
57927W        W  844   2.187   7.974   2.989 -0.1594 -0.1736 -0.2184
57928W        W  845   2.394   6.006   2.746 -0.0424 -0.1506 -0.0815
57929W        W  846  34.512   9.211   0.319 -0.2708  0.1248 -0.1029
57930W        W  847   1.375   9.515   1.699 -0.4203  0.0602  0.1736
57931W        W  848   3.743  10.647   4.015  0.0962 -0.0233  0.0278
57932W        W  849   1.805   7.212   2.315  0.3785  0.0683  0.1315
57933W        W  850   1.792   9.494   2.634 -0.0035  0.0058  0.1780
57934W        W  851   2.098   5.933   2.285  0.0236 -0.0115  0.0420
57935W        W  852   4.155  12.706   0.159  0.1818  0.1425 -0.0179
57936W        W  853   3.543   7.976   2.263  0.3269  0.1207  0.1401
57937W        W  854  31.842  10.753  31.907  0.1409 -0.0519 -0.2322
57938W        W  855   0.161   9.496   1.893 -0.1400  0.1083 -0.0138
57939W        W  856   0.892  10.660   0.576  0.1055 -0.0884  0.1128
57940W        W  857   2.582   7.744   2.614 -0.1728 -0.0748 -0.1007
57941W        W  858   2.852  11.540   1.827 -0.0485 -0.1618  0.0528
57942W        W  859   2.844  10.132  31.837 -0.0456 -0.1766 -0.3487
57943W        W  860   0.530  10.402   2.077 -0.1019  0.0630  0.2558
57944W        W  861   1.405   7.383   0.434 -0.0854 -0.1625 -0.1952
57945W        W  862   2.000   9.295   0.305  0.0510  0.4347 -0.0536
57946W        W  863   3.429   7.638   0.622  0.2210  0.2179  0.1378
57947W        W  864   5.442   6.810   4.521  0.1479 -0.1947 -0.0915
57948W        W  865   4.832   8.543   1.744 -0.0729 -0.3136  0.2810
57949W        W  866   3.587   7.206   5.952 -0.1026  0.4993 -0.1483
57950W        W  867   2.418   7.808   1.242  0.2532 -0.3708  0.2939
57951W        W  868   3.885  10.921   0.866  0.3612  0.1932  0.0518
57952W        W  869   1.275   8.557   1.461  0.1327 -0.0061  0.0338
57953W        W  870   3.754   9.596   3.116  0.1709 -0.0093 -0.1062
57954W        W  871  33.941   8.028   3.910 -0.1154 -0.1712  0.0562
57955W        W  872   3.628   6.410  31.490 -0.2334  0.1719  0.2239
57956W        W  873   2.802   8.415  31.639  0.1437 -0.0051 -0.4051
57957W        W  874   2.895   8.118   2.262 -0.0992 -0.1148 -0.2007
57958W        W  875   2.901   9.716   0.227 -0.0253  0.0996 -0.1419
57959W        W  876   2.485   8.668   1.040  0.1762 -0.0067  0.2621
57960W        W  877   4.199   9.226   3.149 -0.0619  0.2031 -0.2041
57961W        W  878   0.726   8.268   1.420  0.0318  0.0092 -0.0674
57962W        W  879   3.249   9.218   0.583  0.1325  0.0474 -0.2973
57963W        W  880   3.493   8.381  31.750 -0.0892  0.0732  0.1766
57964W        W  881   1.598   9.275   1.318 -0.2005 -0.1169 -0.1607
57965W        W  882   2.097   7.511   1.421  0.1285  0.0541  0.0689
57966W        W  883   2.962  10.809   2.575 -0.2980 -0.2387 -0.2860
57967W        W  884   2.763   8.262   1.198 -0.3397  0.1173 -0.2375
57968W        W  885   3.338   6.660   2.717  0.0059  0.1359  0.0285
57969W        W  886   3.605   9.849   1.912 -0.2303  0.1394  0.1437
57970W        W  887   1.837   7.110   3.489 -0.2165  0.1083  0.0846
57971W        W  888   1.718   7.984   3.092  0.1973  0.3493 -0.0370
57972W        W  889   2.533  11.679   0.848 -0.0337  0.2977  0.1105
57973W        W  890   3.573   9.551   0.663  0.0860  0.2067  0.0992
57974W        W  891   3.945   8.234   2.380 -0.2543 -0.0110  0.1271
57975W        W  892   3.769   9.270  31.195 -0.0246 -0.2976  0.0561
57976W        W  893   3.699   8.402  31.194  0.1347  0.2071 -0.3799
57977W        W  894   1.974   9.225   1.597 -0.2983  0.2129  0.4874
57978W        W  895   2.384   7.080   4.797 -0.0744 -0.1135  0.3762
57979W        W  896   1.867   7.775   0.325 -0.1800 -0.0107  0.0403
57980W        W  897   3.804   7.579   3.479 -0.0723  0.1215 -0.1978
57981W        W  898   1.733   8.691   0.508 -0.0628 -0.1730  0.0824
57982W        W  899   3.722  10.343  31.944  0.4502 -0.1263  0.2245
57983W        W  900   4.531   7.929  31.482 -0.1581 -0.1615 -0.3041
57984W        W  901   0.952   7.741  31.737  0.0129  0.0794  0.0735
57985W        W  902   3.023  10.760   3.105  0.0102  0.1551  0.2346
57986W        W  903   0.155   7.962  30.826  0.2961 -0.2483 -0.2312
57987W        W  904   3.040  10.775  30.727 -0.3205 -0.1676  0.2204
57988W        W  905   3.205  11.629   2.964 -0.1528 -0.1167 -0.3941
57989W        W  906   3.941   9.792   2.697  0.2956 -0.2430 -0.1022
57990W        W  907   3.052   9.294  30.170  0.3932 -0.2039  0.1467
57991W        W  908   3.487   7.133   2.827 -0.0736  0.2289 -0.0612
57992W        W  909   2.979   9.851   1.304  0.1137 -0.0088  0.2202
57993W        W  910   2.660   7.083   2.051  0.0217  0.2524 -0.0795
57994W        W  911   1.766  10.724   3.311  0.0963 -0.0364  0.3456
57995W        W  912   2.823   9.264   2.220  0.2062  0.0560  0.2099
57996W        W  913   1.314  11.423   1.544  0.2535 -0.0663  0.1862
57997W        W  914   4.250   7.934   1.966  0.0688 -0.0414 -0.0630
57998W        W  915   3.166   8.648   2.882 -0.2743 -0.2290 -0.2812
57999W        W  916   0.011  10.361   2.276 -0.1392 -0.0312  0.0435
58000W        W  917   3.908   7.982   3.148  0.0860  0.0504 -0.1935
58001W        W  918   1.007   9.299   3.514  0.0999 -0.0347 -0.0609
58002W        W  919   2.479   8.968   1.895  0.1434  0.2643  0.2920
58003W        W  920   2.626  11.627   3.861  0.1015 -0.0329 -0.0209
58004W        W  921   3.302   9.973   0.077  0.0632 -0.2003  0.0914
58005W        W  922   0.851   9.799  31.906  0.0570 -0.2090  0.0616
58006W        W  923   1.436   8.817   3.481 -0.3936  0.0051 -0.2141
58007W        W  924   3.165   9.498   3.246  0.2929 -0.1430 -0.0223
58008W        W  925   2.712   6.914   1.411  0.2985  0.1479  0.4251
58009W        W  926   2.160   8.429  31.791  0.0767 -0.0340 -0.0163
58010W        W  927   2.066   8.803   0.143 -0.0527  0.1579 -0.1811
58011W        W  928  33.561   9.820   6.454  0.2563  0.2673 -0.3238
58012W        W  929   0.315  10.612   0.217 -0.0450 -0.2332  0.1280
58013W        W  930   0.966   9.551   3.014  0.1166  0.1760  0.1435
58014W        W  931   3.336   9.410   0.099 -0.2137  0.1449  0.2761
58015W        W  932   4.012   8.254   0.428  0.1436  0.2554  0.0611
58016W        W  933   2.431  11.902   3.332 -0.4888  0.1712  0.2071
58017W        W  934   1.800  10.415  30.305 -0.0519 -0.2249  0.0604
58018W        W  935   0.510  10.897   1.822  0.0867  0.0431  0.2126
58019W        W  936   1.296  10.042  31.882  0.0585  0.0430  0.0406
58020W        W  937   1.935   9.856   1.778 -0.0162  0.2549 -0.0092
58021W        W  938   1.741  11.275   1.307  0.2544  0.0013 -0.0135
58022W        W  939   2.937   8.680   2.401  0.2486  0.1324 -0.2899
58023W        W  940   3.303   5.380   0.470 -0.0773 -0.2865  0.0308
58024W        W  941   6.251   7.333   3.115 -0.0504  0.0775 -0.0312
58025W        W  942   4.123   7.126   0.601  0.1989 -0.1989 -0.4458
58026W        W  943   3.508  10.719   2.831  0.2883 -0.2635 -0.1250
58027W        W  944   2.798   6.447   3.419 -0.1435 -0.2376  0.2682
58028W        W  945   3.607   5.582  30.234 -0.1137  0.1609 -0.2272
58029W        W  946   0.230   8.004   3.479 -0.2452  0.1937 -0.3627
58030W        W  947   5.936   5.370   4.988 -0.0183  0.1020  0.1929
58031W        W  948  34.378  10.128   2.736 -0.0030  0.3302 -0.0613
58032W        W  949   4.524  10.428   1.750  0.0769  0.2472  0.0215
58033W        W  950  34.473   9.465  31.730  0.1501  0.1605 -0.0451
58034W        W  951   0.316   9.320   0.491  0.0444  0.1871 -0.1381
58035W        W  952   5.479   6.330   2.474  0.4203 -0.1926  0.1421
58036W        W  953   3.361   8.152  30.859  0.0791  0.0709  0.0522
58037W        W  954   3.331   4.543   4.218 -0.1115  0.0495  0.0378
58038W        W  955   2.054  11.459   0.735  0.1548  0.1226  0.1007
58039W        W  956   0.646   9.279   2.038 -0.0432 -0.1857  0.2208
58040W        W  957   3.000  10.230   2.118  0.0388 -0.0368 -0.2176
58041W        W  958  34.055   8.010   0.634  0.3373 -0.0428  0.2001
58042W        W  959   4.515   7.094   1.738 -0.0803  0.1099  0.1412
58043W        W  960   1.695   9.022   2.355  0.0124 -0.1904  0.0403
58044W        W  961   4.719   7.470   3.736 -0.0648  0.2584  0.3374
58045W        W  962  34.541  10.311   0.334 -0.3027  0.1206  0.3606
58046W        W  963   2.237   8.228   1.047 -0.0962 -0.1624  0.1177
58047W        W  964   3.819   8.363   1.903  0.0227 -0.1097  0.3876
58048W        W  965   2.541   7.962   0.705  0.1916  0.0682 -0.0667
58049W        W  966   0.937   9.121  31.176  0.1739  0.0277 -0.1914
58050W        W  967   4.348   8.135   2.907 -0.1054  0.1778  0.0970
58051W        W  968   1.398   8.657  31.922 -0.1525 -0.1345 -0.1304
58052W        W  969   4.485  11.323   2.113  0.1006 -0.0958 -0.0079
58053W        W  970  33.197   9.977   1.443 -0.0015  0.0631  0.0557
58054W        W  971   2.381   8.092  31.463 -0.0632  0.0850  0.0333
58055W        W  972   2.434   8.470   0.615 -0.0294  0.0021  0.1469
58056W        W  973   1.948   9.191   3.883 -0.2626  0.1412 -0.2104
58057W        W  974   4.744  10.520   3.511 -0.0118  0.1141 -0.1565
58058W        W  975   3.024   7.799   0.856  0.0311  0.1634  0.0265
58059W        W  976   3.400  11.241   0.713 -0.0182  0.0085  0.3149
58060W        W  977   3.893   7.151   1.067 -0.0020  0.0990 -0.1071
58061W        W  978   1.862   9.642  31.957 -0.0648 -0.0838 -0.0555
58062W        W  979   4.794   7.977   3.078  0.1346 -0.0648 -0.0402
58063W        W  980   3.182  10.309   2.829 -0.2370 -0.2276 -0.1162
58064W        W  981   2.445   7.466   0.797  0.1250  0.0030  0.0181
58065W        W  982   4.220  10.180   4.055  0.1094 -0.0614  0.3527
58066W        W  983   3.879   9.655   1.364  0.2445 -0.1731  0.0384
58067W        W  984   4.822   7.040  31.140  0.4518 -0.1286 -0.1389
58068W        W  985   3.023  11.198   3.346 -0.2433  0.1327  0.1504
58069W        W  986   1.787  10.171   0.059  0.0548  0.1180 -0.0028
58070W        W  987   5.007   9.520   1.536 -0.3273 -0.1284 -0.0807
58071W        W  988   2.269   7.411   2.538  0.1102  0.0969  0.0907
58072W        W  989   2.677   9.386   0.570 -0.0483  0.0962 -0.0527
58073W        W  990   2.521   6.959   2.805 -0.0416 -0.1211 -0.1807
58074W        W  991   2.512   9.450   3.044 -0.1994  0.3603 -0.3125
58075W        W  992   3.199   9.145   4.159  0.1667 -0.2050  0.1199
58076W        W  993   1.280   7.544  31.420 -0.1040 -0.0853  0.3688
58077W        W  994   1.415   7.523   2.905 -0.1087 -0.1750  0.2624
58078W        W  995   3.436   9.643   2.552  0.0310 -0.0668  0.3386
58079W        W  996   1.104  10.403   1.034 -0.1355 -0.0135  0.1216
58080W        W  997   4.241   9.232   2.083 -0.1218 -0.0145  0.2897
58081W        W  998   3.907   7.624  31.855  0.0731 -0.1466 -0.0221
58082W        W  999   3.216  10.268   0.753 -0.1796 -0.0729  0.1503
58083W        W 1000   4.112   8.660   0.844  0.1585 -0.0661 -0.2130
58084W        W 1001   0.956   7.542   0.243  0.3865 -0.6106 -0.0946
58085W        W 1002   2.743   7.212   0.226 -0.0168 -0.0403 -0.0613
58086W        W 1003   1.176   8.839   3.949  0.3500 -0.1874 -0.2991
58087W        W 1004  34.535  10.790   0.463  0.1096 -0.0091 -0.0025
58088W        W 1005   0.637  11.218   0.015  0.1199 -0.2410  0.1540
58089W        W 1006   3.088   8.457   1.495 -0.0850 -0.0790  0.1433
58090W        W 1007   4.427   8.420   2.443 -0.0310  0.0057  0.1575
58091W        W 1008   1.832   8.083   1.927 -0.0854  0.1571  0.2922
58092W        W 1009  34.444  10.742   1.299  0.0530  0.2912  0.3731
58093W        W 1010   1.147   8.226  31.802 -0.3155 -0.4332 -0.2757
58094W        W 1011   4.049  11.205  31.917  0.0682 -0.2212 -0.0314
58095W        W 1012   2.454   8.427   1.521  0.1717  0.2601 -0.0164
58096W        W 1013   1.111   6.082   0.529  0.0066 -0.0964  0.4295
58097W        W 1014   4.686   9.949   1.526 -0.0017  0.0335  0.0179
58098W        W 1015   1.584   9.305   0.744 -0.2786 -0.0075 -0.1468
58099W        W 1016   1.403   6.719   1.740  0.1515  0.1119  0.0138
58100W        W 1017   1.781  11.454   3.350  0.0692 -0.0379 -0.1311
58101W        W 1018  33.962  10.737  31.383 -0.1955 -0.4150 -0.3507
58102W        W 1019   2.642   5.472   3.442 -0.0856  0.2777  0.1589
58103W        W 1020   4.377   7.746   3.456 -0.3148  0.0317  0.1304
58104W        W 1021  34.361   7.175  31.487  0.3149  0.0669  0.1558
58105W        W 1022   1.913   7.277   0.542  0.0953 -0.1057  0.0396
58106W        W 1023   2.295   8.868   1.403  0.2124 -0.0079 -0.0221
58107W        W 1024   0.651   8.943   0.439 -0.2836 -0.4017  0.1128
58108W        W 1025   2.482  10.642   2.586 -0.0533  0.0250  0.2136
58109W        W 1026   2.068   9.998   0.915 -0.0373 -0.0907  0.0723
58110W        W 1027   0.524   7.705   0.617  0.0959 -0.0191  0.1069
58111W        W 1028   3.042   9.029   0.146  0.0164  0.1136  0.0326
58112W        W 1029   4.648   9.578   3.465  0.0431 -0.2594  0.2696
58113W        W 1030   2.971  11.510   0.526  0.0263 -0.1340 -0.1005
58114W        W 1031   3.997   7.337   2.599 -0.0675  0.2773  0.0000
58115W        W 1032   2.441  11.053  30.768 -0.1894  0.0178  0.0218
58116W        W 1033   1.404   7.422   3.455  0.1160  0.1836 -0.0326
58117W        W 1034   1.421   7.952   1.664  0.0022 -0.3732  0.0036
58118W        W 1035   2.803   8.930   1.517  0.2109 -0.3881 -0.1604
58119W        W 1036   2.304   9.327   2.463  0.1531 -0.0685  0.1931
58120W        W 1037   3.162   6.952   1.035  0.2353  0.0147 -0.1149
58121W        W 1038   4.102  10.617  30.521  0.0960  0.3700 -0.0991
58122W        W 1039   1.117   9.425   0.595 -0.0046 -0.0085 -0.0626
58123W        W 1040   4.909   8.304  30.879 -0.3164  0.2917 -0.2055
58124W        W 1041   3.385   9.241   2.875  0.2389 -0.2379 -0.3281
58125W        W 1042   1.014  11.078   3.210 -0.1222  0.0216  0.1202
58126W        W 1043   2.940   9.963   3.093 -0.0839  0.0903 -0.1333
58127W        W 1044   1.502   7.822  30.697 -0.0181 -0.2215  0.3347
58128W        W 1045   4.080  10.441   0.396  0.2153 -0.4021 -0.1638
58129W        W 1046   3.840  10.806   3.540 -0.2125 -0.0572 -0.2238
58130W        W 1047   3.702  10.194   4.231  0.1250  0.4257 -0.1387
58131W        W 1048   2.971  11.661   4.262  0.1107  0.0430  0.0038
58132W        W 1049   4.615   9.300   0.838  0.3204  0.0073 -0.2426
58133W        W 1050   0.406   6.385   2.673 -0.0078 -0.2506  0.1954
58134W        W 1051   1.963   8.205   0.631 -0.3424 -0.0602  0.0545
58135W        W 1052   2.806   8.125   0.289 -0.0281 -0.1194  0.0514
58136W        W 1053   1.792   8.167   2.600  0.3474 -0.3806  0.2981
58137W        W 1054   0.952   9.647   1.980 -0.1648 -0.2219  0.0171
58138W        W 1055   2.090   9.172  31.760 -0.0277  0.3510  0.0744
58139W        W 1056   2.888  11.259   0.911 -0.2859  0.0164 -0.0086
58140W        W 1057   3.182  11.123   2.860 -0.0599  0.1570 -0.1400
58141W        W 1058   1.139   9.882   6.894 -0.2973 -0.3870  0.3033
58142W        W 1059  34.606   6.706   5.068  0.2132 -0.1120  0.0932
58143W        W 1060   3.306   7.613   3.749  0.0139  0.0373 -0.2681
58144W        W 1061   3.381   7.683   4.346 -0.1669  0.0190  0.0623
58145W        W 1062  34.253   7.722   4.147  0.0112  0.3704  0.1330
58146W        W 1063   3.953  10.328   4.634  0.1170 -0.0852  0.1214
58147W        W 1064   0.704   8.016   6.827 -0.0153  0.2505 -0.0345
58148W        W 1065   3.405   8.319   4.161  0.1883  0.0664  0.2179
58149W        W 1066   4.220  10.323   6.110 -0.0772  0.0797 -0.1407
58150W        W 1067   1.949   9.675   4.017 -0.0435 -0.2426 -0.1165
58151W        W 1068   1.259   7.918   6.899 -0.0156  0.2464 -0.1264
58152W        W 1069  34.648  11.169   4.320 -0.0966 -0.1474  0.1308
58153W        W 1070   0.769   6.939   5.741 -0.1515  0.0068 -0.3089
58154W        W 1071   1.386   5.867   6.461 -0.0126  0.1370 -0.1376
58155W        W 1072   2.494   7.798   8.786 -0.0588  0.1469  0.0930
58156W        W 1073   0.768   9.926   5.239  0.1852 -0.0078 -0.2736
58157W        W 1074  33.470   7.384   5.597 -0.2455 -0.0039 -0.0720
58158W        W 1075  34.328   7.726   6.444 -0.0814 -0.2880  0.0029
58159W        W 1076   1.852   9.944   4.416  0.1063  0.1583  0.1303
58160W        W 1077   0.846   8.631   6.450  0.2331  0.1436 -0.0217
58161W        W 1078   2.156   7.562   7.739  0.1158 -0.3070  0.2419
58162W        W 1079   0.751   9.721   3.443  0.2290  0.0841  0.0679
58163W        W 1080   1.519   8.625   2.667  0.2348  0.0142 -0.1136
58164W        W 1081   1.889   9.095   6.132  0.2008 -0.3336  0.1036
58165W        W 1082   1.915   8.252   5.806  0.4264 -0.0978  0.0100
58166W        W 1083   2.291   8.956   4.351  0.0435  0.2030  0.0949
58167W        W 1084   2.022   7.732   6.031 -0.2202  0.2635 -0.4937
58168W        W 1085   3.268   9.937   4.133  0.0106 -0.1030  0.2357
58169W        W 1086   2.198   8.454   4.402  0.3461  0.0746  0.1468
58170W        W 1087   1.234   7.501   8.291 -0.1041  0.1867  0.0472
58171W        W 1088   0.710   8.073   4.782  0.0455 -0.0698  0.1041
58172W        W 1089   1.541  10.100   4.840 -0.0607  0.3574  0.1309
58173W        W 1090   0.961   8.935   4.926  0.3977  0.0885 -0.1741
58174W        W 1091   2.970  11.206   4.990  0.0285  0.1462  0.1331
58175W        W 1092   2.806   9.484   7.176  0.0430  0.0257  0.0372
58176W        W 1093   3.337  10.194   6.019  0.0366 -0.1365  0.0122
58177W        W 1094  34.409   8.396   3.409 -0.0353 -0.0030 -0.0099
58178W        W 1095   2.090  10.148   6.798 -0.0760 -0.1450  0.1322
58179W        W 1096   1.953   9.119   5.653 -0.4324  0.0900 -0.1012
58180W        W 1097   1.684   8.331   6.800 -0.2872  0.1711 -0.2660
58181W        W 1098   2.233   8.154   5.061  0.1913 -0.1469 -0.0261
58182W        W 1099   3.217  10.552   4.074 -0.2369 -0.2722  0.2731
58183W        W 1100   1.466   9.141   4.819 -0.2460 -0.1623  0.0380
58184W        W 1101   0.497  10.145   6.582 -0.0063  0.3974 -0.0478
58185W        W 1102   2.781   9.155   4.426 -0.1115 -0.0828 -0.2957
58186W        W 1103   3.996   6.424   5.629 -0.1123 -0.0209  0.2025
58187W        W 1104   1.051  10.624   4.406 -0.2258 -0.2501  0.2050
58188W        W 1105   1.520  10.509   4.131 -0.0615  0.0624 -0.0451
58189W        W 1106   1.375   8.437   3.113 -0.4159 -0.2618 -0.1320
58190W        W 1107   2.737   8.707   3.383 -0.2910  0.1491 -0.0491
58191W        W 1108   1.506   6.343   4.055 -0.1644 -0.2438 -0.2487
58192W        W 1109   1.775   8.420   4.817 -0.2131  0.3288 -0.0232
58193W        W 1110   1.280   7.693   7.666 -0.0649 -0.0854 -0.0997
58194W        W 1111   4.125   9.603   6.283 -0.4698  0.0603  0.0679
58195W        W 1112   2.487   9.990   3.360  0.0558 -0.1202  0.0076
58196W        W 1113   2.795   7.997   6.771 -0.2279  0.0047 -0.2510
58197W        W 1114   2.107   8.739   7.065 -0.2704  0.1282 -0.0754
58198W        W 1115   3.334   7.183   6.632  0.0392  0.0607  0.2534
58199W        W 1116   2.171  10.068   5.567  0.1909  0.2804  0.0956
58200W        W 1117   3.748   9.775   3.952  0.0279 -0.2107  0.0205
58201W        W 1118   3.929   8.847   3.516 -0.1546 -0.0463 -0.2982
58202W        W 1119  34.606   8.503   4.736  0.1513  0.1563 -0.3143
58203W        W 1120   1.715   7.681   8.088 -0.1394  0.0410 -0.0108
58204W        W 1121   1.913   7.584   6.497 -0.1568  0.0955  0.2516
58205W        W 1122   0.791   6.834   4.526 -0.0401  0.0560  0.2110
58206W        W 1123   3.694   7.518   6.418  0.0048  0.0250  0.2539
58207W        W 1124  33.950   9.479   6.550 -0.1619 -0.3122  0.3420
58208W        W 1125   2.606   8.618   5.219  0.1482 -0.0232  0.0069
58209W        W 1126  34.515  10.772   3.938  0.0001 -0.2617 -0.3722
58210W        W 1127   3.129   9.555   5.399  0.0369  0.1399  0.2374
58211W        W 1128   3.795   8.988   2.636  0.1405 -0.1470 -0.1786
58212W        W 1129   2.386   7.931   5.632  0.1116  0.0504 -0.3096
58213W        W 1130   2.881   7.058   6.334  0.2712  0.0899 -0.1274
58214W        W 1131   0.793   7.383   4.111 -0.0061  0.0387 -0.0751
58215W        W 1132   1.094   8.767   5.669  0.0356  0.0431  0.2331
58216W        W 1133   2.173   9.260   4.765 -0.0656  0.3480 -0.2860
58217W        W 1134   2.600   8.671   2.887 -0.0549 -0.1710 -0.0290
58218W        W 1135   0.763   9.568   4.451  0.0981  0.1847 -0.0735
58219W        W 1136  34.546   9.146   7.330  0.0010 -0.0154  0.0682
58220W        W 1137   3.149   8.446   7.776  0.0670 -0.0394  0.2255
58221W        W 1138  33.699   8.915   3.338  0.2157  0.1896 -0.2480
58222W        W 1139  34.529   8.856   5.702  0.1963  0.2499 -0.0112
58223W        W 1140   1.963  10.674   3.760 -0.0216 -0.4574 -0.1761
58224W        W 1141   0.443   8.206   6.403  0.0151 -0.0439  0.0392
58225W        W 1142   1.833   7.540   3.786  0.1004 -0.5388  0.0001
58226W        W 1143   5.954   5.823   5.265  0.2590 -0.5073  0.2236
58227W        W 1144  34.376   6.788   8.848 -0.3448  0.0685  0.0860
58228W        W 1145   3.987   6.395   6.639 -0.0598 -0.2131 -0.2419
58229W        W 1146   0.806   9.481   4.961 -0.0117 -0.0754 -0.2874
58230W        W 1147   2.042  13.047   4.808  0.1212 -0.0232 -0.2935
58231W        W 1148   3.563   8.242   2.920  0.3675 -0.1837  0.0585
58232W        W 1149   4.165   7.421   1.894  0.0037 -0.2058  0.2256
58233W        W 1150  33.671   9.459   5.603  0.0323 -0.1244 -0.0786
58234W        W 1151   0.210   7.627   5.308 -0.2403 -0.3219  0.0759
58235W        W 1152   1.908   7.448   8.910  0.0963 -0.0510  0.1850
58236W        W 1153   1.377   7.815   5.478 -0.3948 -0.4149  0.1416
58237W        W 1154   3.468   9.940   5.356 -0.1159  0.4511  0.3695
58238W        W 1155   0.721   7.952   3.303 -0.1303  0.0564 -0.2761
58239W        W 1156   2.288   8.818   3.868  0.1899 -0.0602 -0.1190
58240W        W 1157   3.499   5.826   6.073  0.0058  0.2795 -0.0570
58241W        W 1158   0.996   8.158   4.318 -0.1617  0.3143  0.1949
58242W        W 1159   2.638   7.371   7.896 -0.1478 -0.1138  0.0439
58243W        W 1160   1.892  10.202   3.960  0.0574  0.0066  0.1978
58244W        W 1161   2.107  11.490   7.009  0.0219  0.0357  0.0464
58245W        W 1162   3.365  11.325   5.796 -0.1409  0.1217  0.1086
58246W        W 1163   1.044   8.153   6.501 -0.1852 -0.0382  0.1454
58247W        W 1164   0.809   8.816   3.444 -0.0212 -0.0200  0.0468
58248W        W 1165   1.275   9.692   5.566 -0.0258 -0.0576 -0.0248
58249W        W 1166   3.139   9.966   4.959  0.0485  0.1165 -0.2106
58250W        W 1167   1.275   7.284   3.921 -0.4014  0.0191 -0.2762
58251W        W 1168   2.218   9.659   5.097 -0.1911 -0.2458 -0.0500
58252W        W 1169   3.164   8.253   4.649  0.0132 -0.1845 -0.0671
58253W        W 1170   0.534   9.701   6.854  0.0816 -0.2225  0.0105
58254W        W 1171   2.327   7.853   6.730 -0.1267  0.3417  0.1892
58255W        W 1172   3.504   6.826   7.836 -0.0894  0.3375 -0.1975
58256W        W 1173   0.872   7.647   3.644 -0.1038  0.0924  0.0175
58257W        W 1174   0.876   8.713   4.434 -0.2275 -0.0157  0.0387
58258W        W 1175   3.254   8.854   6.060  0.1788 -0.0730 -0.1972
58259W        W 1176   0.952  10.211   3.532  0.1623  0.0309  0.1539
58260W        W 1177  34.191   8.128   5.441  0.2996 -0.2415  0.0456
58261W        W 1178   2.333   8.349   6.748  0.0920 -0.1270  0.1363
58262W        W 1179   3.423   6.540   7.424 -0.4787 -0.1458 -0.0866
58263W        W 1180   1.199   8.462   7.080  0.2662  0.1416  0.1087
58264W        W 1181   3.974   8.688   7.290  0.0696 -0.0317  0.4592
58265W        W 1182   1.492   9.597   3.002  0.1851 -0.0970 -0.2113
58266W        W 1183   1.824   9.210   6.715 -0.1328  0.2513 -0.2020
58267W        W 1184   2.683   6.596   6.101  0.1241  0.2431  0.0408
58268W        W 1185   2.846   7.854   4.610 -0.0225 -0.2327 -0.1541
58269W        W 1186   1.424  10.234   3.684 -0.1366  0.0266 -0.0026
58270W        W 1187   3.212   9.466   3.805  0.2980 -0.1867  0.2441
58271W        W 1188   2.476   8.236   3.272 -0.0830 -0.1253  0.2209
58272W        W 1189   3.469   5.581   4.221 -0.1262  0.1088  0.1216
58273W        W 1190   1.042   8.944   7.022  0.0596 -0.1841 -0.2990
58274W        W 1191   1.321  10.581   3.118 -0.3122 -0.1081 -0.3709
58275W        W 1192   1.702   7.924   4.081  0.1744 -0.0262  0.3210
58276W        W 1193   1.273   9.329   2.634 -0.0428  0.1329  0.2574
58277W        W 1194   4.380   9.229   3.613  0.1246 -0.0304 -0.1220
58278W        W 1195   1.327   8.319   5.680 -0.1994  0.3401 -0.0883
58279W        W 1196   2.896   8.488   6.768  0.0387  0.3384 -0.1620
58280W        W 1197   2.393  10.392   3.758 -0.1357 -0.2107 -0.0563
58281W        W 1198   0.669   7.125   7.177  0.0557  0.4613 -0.0706
58282W        W 1199   3.067   8.893   1.949  0.8219  0.1831  0.3223
58283W        W 1200   3.990   9.171   7.241 -0.1014  0.4160 -0.0623
58284W        W 1201   0.136   8.998   3.891 -0.1410 -0.0928 -0.0534
58285W        W 1202   2.829   7.442   6.615  0.2064 -0.0578  0.2301
58286W        W 1203   2.891   8.631   4.271 -0.0505  0.1221 -0.1087
58287W        W 1204   3.087   7.201   5.870 -0.0969 -0.1305 -0.0008
58288W        W 1205   3.786  10.029   6.339  0.1976 -0.3049  0.0260
58289W        W 1206   2.634   7.552   4.098 -0.2772  0.3237  0.3225
58290W        W 1207   3.863   7.463   4.243 -0.0500 -0.2496 -0.2230
58291W        W 1208   0.166   8.495   3.689 -0.0498 -0.0471 -0.0344
58292W        W 1209   3.318   7.661   5.766  0.3152 -0.0185 -0.1822
58293W        W 1210   3.342   7.751   4.883 -0.1788 -0.1688 -0.1449
58294W        W 1211  34.315  10.404   5.477  0.2629 -0.1621 -0.0790
58295W        W 1212   3.494   8.174   5.595 -0.1561 -0.1222 -0.1549
58296W        W 1213   2.709   5.629   4.943  0.1184 -0.1167 -0.0138
58297W        W 1214   2.022   7.975   8.667  0.2621  0.2145 -0.3162
58298W        W 1215   3.907   7.357   4.825  0.1759  0.4030  0.3241
58299W        W 1216   1.102  10.251   4.022  0.2867 -0.1725  0.1523
58300W        W 1217  34.385   9.439   2.234 -0.0983 -0.1404 -0.4329
58301W        W 1218   0.645   8.635   3.900  0.0087  0.0052 -0.3238
58302W        W 1219   1.153  10.179   5.303  0.0478 -0.0772 -0.0167
58303W        W 1220   2.756  10.823   3.638  0.0665  0.0986  0.0857
58304W        W 1221   2.016   7.034   9.187 -0.0669 -0.1865 -0.2212
58305W        W 1222   1.961  10.275   3.439 -0.0691  0.4900  0.0978
58306W        W 1223   2.333   6.716   6.500 -0.0937  0.0078  0.1401
58307W        W 1224  34.414   8.216   6.307 -0.3139  0.0007 -0.2262
58308W        W 1225   2.283   8.336   2.618  0.0558 -0.0147  0.2063
58309W        W 1226  34.527   8.739   6.263  0.3150 -0.1630 -0.2442
58310W        W 1227   3.141   6.812   6.944  0.0035  0.0683  0.0776
58311W        W 1228   4.394   7.540   4.758 -0.0128  0.1815 -0.1352
58312W        W 1229   1.444   6.178   5.456  0.0196 -0.0712  0.0948
58313W        W 1230   3.106   8.385   5.892 -0.3410  0.2081  0.1472
58314W        W 1231  33.458  11.382   6.014  0.1105  0.1723 -0.0926
58315W        W 1232   2.498   7.084   5.858  0.0992  0.2220  0.0571
58316W        W 1233   5.015   7.313   5.211 -0.1932 -0.3980 -0.1738
58317W        W 1234   3.105  10.789   8.145 -0.1273  0.0907 -0.3711
58318W        W 1235   2.007  10.507   5.651 -0.0029 -0.3668  0.0223
58319W        W 1236   0.931   8.660   2.974  0.2827  0.0066 -0.1507
58320W        W 1237   3.179   8.507   7.265 -0.0158 -0.0955  0.0098
58321W        W 1238   2.317   6.271   6.249  0.0417 -0.1043 -0.0146
58322W        W 1239   0.391  10.257   3.389 -0.2231 -0.1498 -0.1987
58323W        W 1240   3.544  10.082   4.716 -0.4120  0.0979 -0.2406
58324W        W 1241   0.680   5.489   5.625 -0.0821 -0.1979  0.0215
58325W        W 1242   0.725  10.449   5.396  0.0902 -0.1083  0.0053
58326W        W 1243   3.051   7.993   7.212  0.0504  0.0385  0.2001
58327W        W 1244   4.266   8.604   5.493 -0.0961 -0.1838  0.0932
58328W        W 1245   3.244   8.546   5.077  0.2280 -0.4037  0.1347
58329W        W 1246   1.186   7.173   5.424 -0.1147  0.0159 -0.0949
58330W        W 1247   2.290   7.434   5.607 -0.0906 -0.0721 -0.2650
58331W        W 1248   3.255   8.733   5.555 -0.0306  0.1322 -0.2251
58332W        W 1249   2.868   7.954   5.796 -0.0559 -0.1870  0.1996
58333W        W 1250   1.702   7.958   5.040 -0.3621  0.2021 -0.1462
58334W        W 1251   1.002   6.790   6.192 -0.1066  0.1366  0.2635
58335W        W 1252   4.382   9.651   2.945 -0.1167 -0.4990 -0.0538
58336W        W 1253   2.691   9.526   5.183 -0.0125 -0.4248  0.0162
58337W        W 1254   1.008   9.513   3.998 -0.1245  0.1221  0.1063
58338W        W 1255   0.079   7.855   6.867  0.2393  0.2555  0.1343
58339W        W 1256   1.206   9.089   3.141 -0.0921  0.1374  0.2215
58340W        W 1257   3.651   7.893   3.964 -0.3156 -0.3583 -0.2358
58341W        W 1258   1.609  10.080   5.819  0.2528 -0.2878 -0.0290
58342W        W 1259   2.106  11.092   3.465 -0.2085 -0.4269  0.3011
58343W        W 1260   1.693   9.384   5.290 -0.1978 -0.1385 -0.0841
58344W        W 1261   4.173   6.050   7.496  0.1859  0.0997  0.0564
58345W        W 1262   3.041   9.278   4.941  0.2012  0.3503 -0.0478
58346W        W 1263   1.053   6.717   5.189  0.0169  0.0086 -0.2904
58347W        W 1264   3.449   7.996   6.101 -0.1768 -0.2522  0.1240
58348W        W 1265   3.474  10.574   3.338 -0.0077 -0.0268 -0.0585
58349W        W 1266   2.536   6.794   7.825 -0.2829 -0.1108  0.0906
58350W        W 1267   2.354   6.682   8.482 -0.1513  0.0022 -0.0132
58351W        W 1268   4.098   7.844   4.392  0.0964 -0.1095  0.0854
58352W        W 1269  33.273   7.378   6.073  0.2176  0.1849  0.2503
58353W        W 1270   2.706  12.072   6.125 -0.1577 -0.1674 -0.2562
58354W        W 1271  33.666   8.652   6.851  0.0791  0.2473  0.1211
58355W        W 1272   3.181   7.388   5.394  0.3868 -0.0159  0.0809
58356W        W 1273   1.945   7.078   3.969  0.2720 -0.0951  0.2637
58357W        W 1274   1.880   6.985   4.909 -0.1964  0.1547 -0.0078
58358W        W 1275   4.682   7.314   5.634  0.0107  0.1964 -0.1490
58359W        W 1276   2.752   9.493   3.526 -0.2376  0.1695  0.0132
58360W        W 1277   2.305   6.419   7.371 -0.0269  0.2620  0.0696
58361W        W 1278   1.163   7.575   5.158  0.0098 -0.3840 -0.0153
58362W        W 1279   2.093   8.202   3.932  0.0363 -0.1857  0.1136
58363W        W 1280   1.694   6.686   3.230  0.2055 -0.1094  0.0278
58364W        W 1281   1.826   8.879   5.240  0.1692 -0.1783  0.0373
58365W        W 1282   1.942   6.650   8.144 -0.1225 -0.0748  0.0276
58366W        W 1283   3.080  10.269   5.429 -0.0061  0.2511 -0.0855
58367W        W 1284   4.001   6.845   5.276 -0.1168 -0.0437  0.1559
58368W        W 1285   1.387   6.845   6.875 -0.1518 -0.2386 -0.0231
58369W        W 1286   1.951   7.509   4.766  0.0843  0.0905 -0.2724
58370W        W 1287   3.615   7.452   6.899  0.0302  0.2118 -0.0031
58371W        W 1288  33.887   6.967   7.488  0.1293  0.1057  0.0120
58372W        W 1289   4.582  11.065   4.993 -0.0784 -0.0926  0.1722
58373W        W 1290   2.076   7.954   3.486 -0.0391  0.2308  0.3617
58374W        W 1291   2.323   7.272   8.580  0.0513  0.2188  0.4830
58375W        W 1292   3.389   6.838   4.539  0.1701 -0.0401 -0.2865
58376W        W 1293   2.360   7.255   3.754 -0.1609  0.2354  0.1819
58377W        W 1294   1.526   5.381   6.522  0.1570  0.4083  0.2979
58378W        W 1295   5.145   8.878   4.957  0.0512  0.0598  0.2580
58379W        W 1296   2.793   6.025   3.575  0.2297  0.0189  0.0715
58380W        W 1297   1.743   7.412   5.305  0.0547  0.0409  0.0677
58381W        W 1298   2.417   9.794   2.680 -0.0311  0.0230  0.2572
58382W        W 1299   2.420   7.596   3.316  0.4301 -0.0603 -0.0731
58383W        W 1300   3.020   7.940   4.064  0.3553  0.1414  0.2485
58384W        W 1301  34.621   7.412   5.804 -0.1539 -0.0362  0.0108
58385W        W 1302  34.468   9.433   7.771  0.2152 -0.2538  0.0769
58386W        W 1303   1.283   8.424   4.039  0.2800  0.0445 -0.0058
58387W        W 1304   1.016   7.720   4.606 -0.1645  0.0536  0.2512
58388W        W 1305   2.723   8.447   4.801 -0.0070  0.0055  0.1102
58389W        W 1306   2.985   9.130   8.228 -0.0428 -0.0401  0.1766
58390W        W 1307   1.316   6.625   4.593  0.1758  0.2809 -0.0367
58391W        W 1308   1.792   9.976   8.722 -0.1771  0.2518 -0.1244
58392W        W 1309   2.210   7.650   5.166 -0.2489  0.1881  0.0216
58393W        W 1310   1.699   8.383   4.309 -0.0811 -0.0054  0.1470
58394W        W 1311   1.602   9.034   7.117  0.3422  0.1013 -0.0497
58395W        W 1312  34.549   6.725   6.855 -0.2228 -0.0061 -0.0281
58396W        W 1313   2.168   8.620   5.533 -0.0583  0.2020  0.1137
58397W        W 1314   2.423   9.080   7.411  0.1211 -0.2147 -0.1303
58398W        W 1315   2.618   5.586   7.717 -0.2965  0.1056  0.2189
58399W        W 1316   0.623  10.211   4.339 -0.3147 -0.0747 -0.1615
58400W        W 1317   3.707   8.877   5.794  0.1369 -0.0888 -0.1677
58401W        W 1318   1.480   9.540   6.998 -0.1343 -0.0014 -0.1224
58402W        W 1319   0.704   9.121   3.879 -0.0658 -0.3850  0.1161
58403W        W 1320   2.456   9.713   8.042  0.2427 -0.0194  0.1624
58404W        W 1321   5.105   7.085   3.702  0.2443 -0.1130  0.0093
58405W        W 1322   1.693   9.883   5.302 -0.0354 -0.1900 -0.2514
58406W        W 1323   0.396   7.691   6.520  0.1905  0.0367 -0.1731
58407W        W 1324   2.350   9.602   7.386 -0.2851 -0.1073  0.2547
58408W        W 1325   1.822   9.276   4.377 -0.0622  0.1916  0.4354
58409W        W 1326   3.204   7.922   5.317  0.1908  0.2455 -0.1253
58410W        W 1327   2.674   9.594   4.723  0.4001  0.3085 -0.1198
58411W        W 1328   1.153   8.941   7.800 -0.4643  0.0912 -0.0016
58412W        W 1329  33.650   7.751   5.944  0.0209 -0.1161 -0.0296
58413W        W 1330   0.401  11.208   4.666  0.2399  0.0738  0.1892
58414W        W 1331   0.044   9.762   2.841 -0.1139 -0.0579 -0.1779
58415W        W 1332   3.614   8.763   3.031  0.0329  0.0699  0.1100
58416W        W 1333   2.485  10.048   6.446 -0.1539  0.0895 -0.0638
58417W        W 1334   1.691   8.288   3.502 -0.2195 -0.0106  0.0635
58418W        W 1335   1.250  10.138   4.441  0.0101 -0.1629 -0.1878
58419W        W 1336   0.414   7.122   4.639  0.0492 -0.1256  0.2663
58420W        W 1337   2.126  10.186   2.780 -0.1326 -0.0597  0.0832
58421W        W 1338   0.106  10.147   5.156 -0.0669  0.3337  0.1029
58422W        W 1339   2.844   9.691   6.578  0.1109  0.2586 -0.0849
58423W        W 1340   3.518   8.424   3.379 -0.0931 -0.0770 -0.0039
58424W        W 1341   3.131   6.617   6.507  0.1066 -0.4207 -0.0464
58425W        W 1342   4.240   7.107   4.021 -0.0709  0.0709  0.1400
58426W        W 1343   3.352   9.893   6.786 -0.1150 -0.0320 -0.1133
58427W        W 1344   1.448   8.706   5.029 -0.2983 -0.0853  0.2764
58428W        W 1345   2.815   6.975   3.547 -0.1230  0.3224  0.0335
58429W        W 1346   1.394   8.831   6.684  0.0285 -0.1799 -0.3457
58430W        W 1347   5.099   6.323   8.440 -0.0605 -0.0837  0.0161
58431W        W 1348  34.543   9.468   6.412  0.4234 -0.2130  0.1750
58432W        W 1349   3.242  12.273   4.092  0.0557  0.0793  0.1868
58433W        W 1350   0.785   8.224   2.867  0.0378  0.0692 -0.2211
58434W        W 1351   2.013   7.219   5.971 -0.1824  0.0266 -0.1809
58435W        W 1352   4.510   6.457   6.221  0.1899 -0.2343 -0.0628
58436W        W 1353   2.869   7.370   1.642  0.0919  0.2615 -0.1473
58437W        W 1354   0.568   9.510   5.463  0.1460  0.1119  0.2363
58438W        W 1355   2.771   8.775   5.749  0.0459 -0.0464  0.2554
58439W        W 1356   1.160  11.649   7.156  0.1825 -0.0559 -0.0901
58440W        W 1357   2.491   7.946   6.179 -0.0190 -0.1592  0.2724
58441W        W 1358   0.705   7.373   2.396  0.0637  0.0036  0.0323
58442W        W 1359   4.648   9.404   6.182 -0.0277 -0.2406  0.0956
58443W        W 1360   1.278   7.402   6.866 -0.0937  0.2303 -0.2148
58444W        W 1361   4.510   6.682   7.980  0.1251  0.3052 -0.3675
58445W        W 1362   1.202   7.793   4.012 -0.1054 -0.1572 -0.2244
58446W        W 1363   0.956   7.144   3.519 -0.0495  0.1005 -0.0539
58447W        W 1364   1.934   7.823   5.545  0.3030  0.0326 -0.2674
58448W        W 1365   1.793   7.832   7.638 -0.2579  0.3530  0.3577
58449W        W 1366   1.108  10.021   3.137  0.1249 -0.0509  0.0889
58450W        W 1367   2.739   8.259   7.608  0.0801 -0.1901 -0.0312
58451W        W 1368   3.499   8.926   3.815 -0.0710  0.1321  0.1334
58452W        W 1369   2.810   9.378   5.742 -0.2550 -0.1896  0.0183
58453W        W 1370   0.258   7.016   5.580  0.4279  0.3589 -0.2320
58454W        W 1371   2.280   7.399   1.879  0.0476  0.1437  0.1547
58455W        W 1372   2.364   9.139   5.937  0.1988  0.0399  0.0549
58456W        W 1373   1.226   9.305   7.412  0.1434 -0.0020  0.1836
58457W        W 1374   3.089  10.318   6.440 -0.0659 -0.1599 -0.0813
58458W        W 1375   1.968   6.205   3.852 -0.0459  0.3183 -0.0289
58459W        W 1376   2.784   8.517   1.906 -0.0554 -0.0932  0.0430
58460W        W 1377   3.706   8.568   5.291 -0.1896  0.2856 -0.0368
58461W        W 1378   2.427  11.810   4.921 -0.0701 -0.3752  0.1990
58462W        W 1379   4.168   8.771   4.858 -0.0808 -0.0599 -0.1003
58463W        W 1380   4.138   8.268   4.774 -0.0381  0.3818 -0.0577
58464W        W 1381  34.313   7.620   7.047  0.0089 -0.0095  0.1511
58465W        W 1382   4.304   8.747   5.935 -0.0661 -0.0393  0.2005
58466W        W 1383   2.731  10.004   4.431 -0.1042  0.1162  0.1539
58467W        W 1384   2.658   4.837   5.092  0.1301 -0.1298 -0.0031
58468W        W 1385   1.013   6.502   6.795 -0.0009 -0.1112  0.2601
58469W        W 1386  33.621   9.828   4.097 -0.0605  0.2391 -0.0889
58470W        W 1387   3.584   8.563   6.907 -0.0914 -0.3687 -0.0480
58471W        W 1388   4.054   6.104   8.290 -0.0786  0.1064  0.2121
58472W        W 1389   1.681  11.845   4.614  0.2359  0.1218 -0.0265
58473W        W 1390   3.744   7.263   9.187 -0.0673 -0.1643 -0.3085
58474W        W 1391   3.868  10.228   6.936 -0.0428 -0.0857 -0.1703
58475W        W 1392   1.913  10.713   6.478 -0.0110  0.2797  0.1282
58476W        W 1393  34.353   6.713   4.236  0.1864  0.0791  0.1321
58477W        W 1394   2.073   6.901   7.589 -0.2021 -0.0881  0.0411
58478W        W 1395   0.059   8.520   4.243  0.0755  0.3001  0.0727
58479W        W 1396   2.434   9.854   3.801  0.4707  0.2294  0.1939
58480W        W 1397   3.928   9.000   5.337 -0.3411 -0.0863 -0.1331
58481W        W 1398   3.643   6.752   6.362 -0.0422 -0.0979 -0.0811
58482W        W 1399   2.837   9.576   4.112  0.1241 -0.1056 -0.4179
58483W        W 1400   2.859   8.307   5.455 -0.1647  0.0163 -0.0753
58484W        W 1401   3.620   8.088   5.116 -0.2745  0.2915  0.1345
58485W        W 1402   3.059   5.154   4.814  0.2198 -0.5714  0.1253
58486W        W 1403   1.493   7.867   5.958 -0.0060 -0.0484 -0.2163
58487W        W 1404   0.477   8.589   4.862 -0.1624  0.2781 -0.0530
58488W        W 1405  33.774  10.101   2.141 -0.0240  0.2160 -0.0691
58489W        W 1406   1.180   8.395   4.723  0.3071 -0.1429 -0.1343
58490W        W 1407   1.532   5.216   6.994  0.0782 -0.0843  0.1903
58491W        W 1408  33.893   8.216   5.884 -0.2791 -0.2124  0.0791
58492W        W 1409   0.378   8.772   6.374 -0.0170  0.0803  0.1720
58493W        W 1410  34.078   7.644   3.190 -0.0611  0.1239 -0.0028
58494W        W 1411   3.225  10.888   3.691  0.2436 -0.0295 -0.5016
58495W        W 1412   1.468   7.860   3.538 -0.1970 -0.0596 -0.1696
58496W        W 1413  34.069   7.663   5.076 -0.0626  0.3448 -0.2033
58497W        W 1414   2.873  10.175   3.912 -0.1183 -0.1261  0.0225
58498W        W 1415   2.924  10.368   3.391  0.3933 -0.1418  0.0635
58499W        W 1416   0.051   6.381   4.159 -0.1089  0.1222  0.1324
58500W        W 1417   3.367  11.308   7.043  0.1600 -0.0352 -0.1177
58501W        W 1418   0.106   9.939   3.657  0.0391  0.1271  0.1812
58502W        W 1419   1.136   7.625   6.377  0.0136  0.0458 -0.0900
58503W        W 1420   0.474   8.436   7.833 -0.0513  0.0945 -0.0906
58504W        W 1421   0.023   8.009   5.604  0.1049  0.0903 -0.4923
58505W        W 1422   1.184   7.907   3.133 -0.2879  0.0914  0.2836
58506W        W 1423   1.692   8.665   3.912  0.2357 -0.0373 -0.1753
58507W        W 1424   1.598  10.166   3.156 -0.5181  0.1262 -0.1544
58508W        W 1425   3.237   8.377   6.392 -0.3932  0.0793  0.3817
58509W        W 1426   2.756   9.178   6.734  0.1850  0.1335 -0.3876
58510W        W 1427   1.021   6.099   5.771  0.0581  0.0720 -0.1075
58511W        W 1428   2.416  10.641   3.338  0.1718 -0.0857 -0.2801
58512W        W 1429   1.818   9.552   6.202  0.0766 -0.2253  0.0562
58513W        W 1430   3.270   8.163   3.698  0.2797  0.0779  0.2524
58514W        W 1431   3.747   5.456   6.771 -0.0445  0.0692 -0.0730
58515W        W 1432   2.114   9.515   3.498  0.1755  0.4872  0.1605
58516W        W 1433   0.808   7.282   6.233  0.0066 -0.0968 -0.2014
58517W        W 1434   0.513   9.209   6.595  0.2905 -0.1135  0.1798
58518W        W 1435   4.290   7.298   5.239 -0.0313 -0.0649 -0.1332
58519W        W 1436   1.574   6.570   5.080  0.0633  0.2761  0.2041
58520W        W 1437   3.864   6.229   7.170 -0.2226 -0.0210  0.2241
58521W        W 1438   4.261  11.338   4.662 -0.1279  0.2981 -0.0566
58522W        W 1439   2.571   8.402   6.350 -0.1271  0.1542  0.0838
58523W        W 1440   1.455   9.290   3.933 -0.1297 -0.1513 -0.3441
58524W        W 1441   2.239   7.816   7.205 -0.0524  0.0860 -0.1284
58525W        W 1442   1.731   9.624   4.802 -0.1918 -0.2670 -0.2234
58526W        W 1443   3.282   9.740   5.807 -0.1195  0.1867  0.2351
58527W        W 1444   0.468   8.915   4.294 -0.0576  0.1792  0.0670
58528W        W 1445   4.208  10.432   2.229 -0.0145  0.1222  0.2166
58529W        W 1446   3.412  11.567   8.285 -0.0797  0.0587 -0.0133
58530W        W 1447   2.822  11.953   7.130  0.0583 -0.3244 -0.0438
58531W        W 1448   0.872   8.370   5.945  0.1094 -0.0894  0.1249
58532W        W 1449   3.972   7.846   4.918  0.0101  0.3203  0.2173
58533W        W 1450   1.682   5.669   5.576 -0.2417 -0.0285  0.0612
58534W        W 1451   1.179   9.243   5.255  0.1890  0.1618  0.0614
58535W        W 1452   2.444   7.583   4.578 -0.2200  0.0609  0.0413
58536W        W 1453   6.010   7.201   5.731  0.0421 -0.0262 -0.1876
58537W        W 1454   2.136   8.653   6.030  0.0139  0.1862 -0.0255
58538W        W 1455   2.061   6.601   5.157  0.0070  0.5279 -0.0118
58539W        W 1456   2.276  10.447   7.742 -0.0737  0.0784  0.0907
58540W        W 1457   3.888  10.198   3.678 -0.2554  0.4429 -0.0026
58541W        W 1458   4.735   9.350   9.877 -0.3621  0.0163 -0.1281
58542W        W 1459  33.354   7.574   9.241 -0.0823 -0.0890 -0.0253
58543W        W 1460   2.646   6.828   7.335  0.0672 -0.1889  0.0077
58544W        W 1461   3.448   8.975   7.207 -0.0675  0.0948 -0.1978
58545W        W 1462   2.082   9.317  12.873  0.2192  0.0820 -0.1792
58546W        W 1463   3.522  10.389   8.264 -0.2170  0.0734  0.1568
58547W        W 1464   0.953  10.712   8.167 -0.0488 -0.0272  0.1957
58548W        W 1465   4.500  12.011   8.477  0.0403 -0.2720 -0.1588
58549W        W 1466   2.054  10.254   6.267  0.1288  0.1278  0.0948
58550W        W 1467   2.984   5.021  10.201  0.2111 -0.0888  0.1808
58551W        W 1468   1.557   6.726   9.035 -0.1279 -0.0945  0.0094
58552W        W 1469   0.066  10.058   8.779 -0.0302  0.3683  0.0574
58553W        W 1470   3.334   6.871   8.754 -0.1245  0.1120 -0.1661
58554W        W 1471   0.117   9.427   8.704  0.0991 -0.0006 -0.1403
58555W        W 1472   2.874   8.428   9.357 -0.0090  0.1375  0.0787
58556W        W 1473   1.406   8.091   7.922  0.3319  0.1026  0.1944
58557W        W 1474   1.649  10.957   7.728  0.3085  0.2289 -0.0656
58558W        W 1475   0.908   6.664   9.750 -0.0646  0.2062  0.1382
58559W        W 1476   2.576   8.174   7.138  0.0183 -0.1315 -0.1500
58560W        W 1477   1.131   6.241   7.717 -0.0316 -0.2926 -0.2347
58561W        W 1478  34.658   9.527   9.714  0.0278 -0.1227 -0.1541
58562W        W 1479   1.687   8.268   8.289  0.3654  0.0631 -0.1018
58563W        W 1480   1.473   6.578   8.500 -0.0448  0.0587 -0.1840
58564W        W 1481   4.511   7.848   8.941  0.0146 -0.0447 -0.1029
58565W        W 1482   2.382  10.644   6.614  0.0536 -0.5181 -0.2419
58566W        W 1483   1.747   9.719   7.980  0.3017 -0.0554  0.1022
58567W        W 1484  34.396   8.438   7.993  0.2384  0.0629 -0.3353
58568W        W 1485  34.429  11.816   8.547  0.0955 -0.1136 -0.0986
58569W        W 1486   2.068   8.257   7.157  0.0172 -0.2685  0.1560
58570W        W 1487   4.823   9.881   8.395 -0.0364 -0.2168 -0.0300
58571W        W 1488   2.348   8.909   6.461 -0.2114 -0.0407 -0.2655
58572W        W 1489   2.471   8.287   8.601  0.1952  0.2726  0.1695
58573W        W 1490   4.239   9.377   8.528 -0.1444 -0.0317  0.2710
58574W        W 1491   2.194   9.447   6.457 -0.1748  0.0305  0.0286
58575W        W 1492   4.889  11.006   9.594 -0.0195 -0.1653 -0.0414
58576W        W 1493   0.980   8.566   9.337  0.1107  0.1065  0.3411
58577W        W 1494   1.134  11.834   6.218  0.0719  0.0690 -0.1747
58578W        W 1495   3.175   9.998   7.257  0.1145  0.0842  0.0171
58579W        W 1496   1.168   7.078   7.288 -0.0290  0.0349 -0.0962
58580W        W 1497   1.280   7.570   8.995  0.0808  0.0411  0.2124
58581W        W 1498  34.436   6.199   9.708 -0.0647 -0.0852 -0.3518
58582W        W 1499  33.033  10.419   8.487 -0.1011 -0.0660  0.0283
58583W        W 1500   0.691   8.740  10.021 -0.0493  0.1555  0.2225
58584W        W 1501   0.270  10.334   8.018 -0.1300 -0.2267 -0.0179
58585W        W 1502   6.034  10.257   9.197  0.0899 -0.0850  0.0399
58586W        W 1503   1.570  10.456   8.687  0.0105  0.2108  0.1994
58587W        W 1504  34.450   7.697   8.820  0.4422  0.1585 -0.0502
58588W        W 1505   2.800  10.184   6.840  0.1025  0.0413  0.1478
58589W        W 1506   5.198  11.309   8.776 -0.2009  0.0329  0.1120
58590W        W 1507   4.021   9.173   6.024  0.0916  0.3050  0.0634
58591W        W 1508   1.520   8.984   8.548 -0.1319 -0.0774  0.2301
58592W        W 1509   0.963   8.103   5.444 -0.0078 -0.2450  0.2506
58593W        W 1510   3.830   7.856   8.359  0.1544 -0.0294 -0.2767
58594W        W 1511   1.355   8.901   9.571  0.2132 -0.0454  0.1954
58595W        W 1512  34.654  11.266   9.255  0.2368 -0.2224  0.0517
58596W        W 1513   2.771   8.730   7.706 -0.0320 -0.1691 -0.1734
58597W        W 1514   2.771   5.923  10.017  0.5448 -0.0333  0.1733
58598W        W 1515   4.385  10.944   9.352 -0.0191 -0.1670  0.2221
58599W        W 1516   0.696   9.325   8.257 -0.1271  0.0785 -0.0371
58600W        W 1517   4.072   9.529   7.567  0.1045 -0.1032 -0.3944
58601W        W 1518  33.828  11.128   8.384  0.0333 -0.1905  0.1579
58602W        W 1519   4.147   8.790   8.709  0.0256  0.2241 -0.1776
58603W        W 1520   5.656   9.940   8.446  0.3382  0.3140  0.0459
58604W        W 1521   1.077  10.984   6.332  0.0039  0.1313 -0.0326
58605W        W 1522  34.115   8.070   7.649 -0.5964 -0.0256 -0.1149
58606W        W 1523  34.132   8.649   7.679  0.0662  0.2455 -0.4087
58607W        W 1524  33.826   7.627   8.014 -0.0289  0.4636  0.0574
58608W        W 1525   2.386  10.904   9.385  0.0219 -0.0090  0.0408
58609W        W 1526   2.260   6.126  10.360  0.1132  0.1107 -0.1139
58610W        W 1527   3.731   7.485   9.662  0.0168 -0.2833  0.1889
58611W        W 1528   1.537   8.216   9.482  0.1569  0.2011  0.1616
58612W        W 1529   3.998  10.349   8.324 -0.0184  0.0366  0.0330
58613W        W 1530   3.530   9.100   9.394 -0.0425 -0.1636  0.1247
58614W        W 1531   3.571   8.184   8.987 -0.0566 -0.3933 -0.3073
58615W        W 1532   0.031   6.364   9.197  0.1827 -0.0459  0.2175
58616W        W 1533   0.847   8.814   7.448  0.2188 -0.0239 -0.1186
58617W        W 1534   1.358   6.861   9.563 -0.0890  0.2018 -0.0527
58618W        W 1535   2.136   8.058   8.121  0.1046  0.1124 -0.0271
58619W        W 1536   4.886   7.839   8.615 -0.0358 -0.0563 -0.1069
58620W        W 1537   0.664   7.305   9.080 -0.4343  0.1106 -0.1882
58621W        W 1538  33.495   9.126   7.961  0.2465  0.0959 -0.0193
58622W        W 1539   0.784  10.223   6.195 -0.1955  0.0835  0.1454
58623W        W 1540   4.366  11.486   8.608  0.0181 -0.0735 -0.0082
58624W        W 1541   3.655   9.851   7.506 -0.2281 -0.4345  0.2142
58625W        W 1542   4.207   9.836   8.355  0.1576  0.3152 -0.3280
58626W        W 1543   1.989   7.397   7.316 -0.1135  0.0178 -0.3067
58627W        W 1544  33.894  11.434   9.255  0.1492 -0.3607  0.0310
58628W        W 1545   1.095   8.068   9.182 -0.1716 -0.0942 -0.0455
58629W        W 1546   2.154   9.069   8.410 -0.1093  0.2501 -0.3653
58630W        W 1547   4.196   9.964   6.652 -0.3077  0.4571 -0.0604
58631W        W 1548   0.984  10.178   7.554 -0.0717 -0.0288 -0.0720
58632W        W 1549   2.318  10.836   8.419  0.3835  0.0551 -0.0632
58633W        W 1550   4.030   8.179   9.239  0.0787  0.1332 -0.2278
58634W        W 1551   1.494   7.925   6.450  0.0125 -0.1350  0.0847
58635W        W 1552   3.904  10.144   9.135  0.2399  0.0806  0.0643
58636W        W 1553   0.255   8.610   7.418 -0.1922  0.4563 -0.2907
58637W        W 1554  34.453   8.112   7.151 -0.0199 -0.1718 -0.1263
58638W        W 1555   3.479  10.398   7.307  0.2625 -0.1228 -0.0936
58639W        W 1556   5.274   9.663   9.793  0.0042 -0.1506 -0.1368
58640W        W 1557   0.561   8.483   8.456  0.2439  0.2648 -0.1125
58641W        W 1558   3.236   6.046   7.729  0.0090 -0.5633 -0.2732
58642W        W 1559   4.216   7.806   7.835  0.0896  0.4227  0.0041
58643W        W 1560   4.596   9.904   6.290  0.3691 -0.0368 -0.0876
58644W        W 1561   3.284   7.815   6.618  0.3299 -0.1240  0.2273
58645W        W 1562   3.485   7.709   7.377 -0.1718  0.1520  0.0832
58646W        W 1563   3.313   8.610   9.220  0.2620  0.0505 -0.4138
58647W        W 1564   3.216   8.992   7.828 -0.0672 -0.2711 -0.0265
58648W        W 1565   3.120   9.567   8.619 -0.2167  0.1489  0.1809
58649W        W 1566   3.737   9.522   6.572  0.1978 -0.0852 -0.1517
58650W        W 1567   0.050   3.554   9.675 -0.0503 -0.4002  0.0910
58651W        W 1568   3.445  12.260   7.850  0.0032  0.1496  0.0509
58652W        W 1569   1.338   5.196   9.559  0.1914 -0.2493 -0.2060
58653W        W 1570   2.591   8.670   7.153  0.2130 -0.2298 -0.0007
58654W        W 1571   1.532   4.749   9.295 -0.2131  0.1097  0.2744
58655W        W 1572   0.698  10.600   7.700 -0.0679  0.0333  0.2178
58656W        W 1573   5.412   5.957   8.801  0.0767 -0.2130  0.1017
58657W        W 1574  34.271   4.971   8.554 -0.0715  0.0332  0.1564
58658W        W 1575   1.630  10.134   8.298 -0.2872  0.1556  0.1547
58659W        W 1576   2.859   6.349   9.270 -0.0266 -0.2572 -0.1488
58660W        W 1577   0.892   7.428   8.621  0.0046  0.1085 -0.0469
58661W        W 1578  33.989  13.299  11.603 -0.1218  0.3336  0.0330
58662W        W 1579   0.101   9.049   9.781  0.0501 -0.5268  0.2055
58663W        W 1580   5.330  10.887  12.826  0.1027  0.0318  0.0858
58664W        W 1581   0.878   6.985   6.766 -0.0639 -0.1554  0.3234
58665W        W 1582   0.764   9.744   5.971  0.1641  0.2226  0.0918
58666W        W 1583   3.000   7.980   6.256  0.1949 -0.0387  0.2160
58667W        W 1584   2.347   5.065   8.496  0.0304 -0.1309  0.1089
58668W        W 1585   1.261  11.544   9.252  0.1033 -0.5709 -0.0243
58669W        W 1586   1.950   8.763   7.808 -0.2867 -0.0540 -0.1994
58670W        W 1587   1.968  10.578   9.466  0.0824 -0.1397 -0.1171
58671W        W 1588   2.737   9.334   7.812  0.1277 -0.2795  0.0843
58672W        W 1589   3.959   6.413   9.718  0.1987  0.1636 -0.2939
58673W        W 1590   0.016   9.935   7.790 -0.1833  0.1082  0.0183
58674W        W 1591   2.590   8.703   9.016  0.0632 -0.0886 -0.0731
58675W        W 1592  34.450   8.604   7.278  0.1273  0.0589 -0.0897
58676W        W 1593   0.493   4.622   9.275 -0.1970  0.0830 -0.0874
58677W        W 1594   4.853   9.702   9.143 -0.0334 -0.0908 -0.1723
58678W        W 1595   1.811   5.723  10.063 -0.1688 -0.5154  0.1499
58679W        W 1596   3.277  10.198   9.825 -0.2263  0.0054 -0.1299
58680W        W 1597  34.369  11.669   9.214  0.2742  0.3231  0.1174
58681W        W 1598   2.716   7.475   6.091 -0.0728 -0.0928 -0.2318
58682W        W 1599  33.826   7.180   7.082  0.2136  0.0669 -0.1552
58683W        W 1600   2.930   9.807   8.013  0.0706 -0.0312  0.0732
58684W        W 1601   1.832   7.793   6.965 -0.0134 -0.1341  0.1689
58685W        W 1602  33.836   9.458   7.872  0.0415  0.0151  0.1382
58686W        W 1603   0.569  10.595   6.830  0.1390  0.0469 -0.0560
58687W        W 1604  34.073   7.332   8.663  0.2017  0.0137  0.0575
58688W        W 1605  34.222   8.840   9.364 -0.1377 -0.1145 -0.1623
58689W        W 1606   4.161  11.485   9.048 -0.3391  0.1384 -0.1393
58690W        W 1607   3.044   9.190   9.637 -0.1218  0.0478 -0.2771
58691W        W 1608   0.681   8.892   7.959  0.3721  0.0736  0.1877
58692W        W 1609   1.055  11.115   9.420  0.0982  0.1728 -0.2973
58693W        W 1610   3.309  10.651   9.573  0.0601  0.1364 -0.2104
58694W        W 1611  33.888   5.907   9.836  0.1156  0.2119  0.1321
58695W        W 1612   0.139   6.610   9.611  0.2968 -0.1262  0.0192
58696W        W 1613   3.690  10.308   7.743 -0.3270 -0.0231 -0.0722
58697W        W 1614   0.604   8.747   6.904 -0.1700 -0.0295  0.0701
58698W        W 1615  34.069  11.267   6.957  0.2471  0.0012 -0.2873
58699W        W 1616   0.935   9.135   6.288 -0.0574 -0.0765 -0.0756
58700W        W 1617   4.639   7.587  10.145 -0.2133 -0.0628 -0.2281
58701W        W 1618   1.257   9.183   9.091  0.2432  0.2181  0.1410
58702W        W 1619  34.029   8.900   7.088  0.0001  0.0207 -0.2547
58703W        W 1620   0.784  12.828   9.063 -0.0990 -0.1446 -0.0958
58704W        W 1621   3.726   6.032   7.612 -0.0140  0.2529 -0.1429
58705W        W 1622   1.935   9.321   7.237 -0.0152 -0.1439  0.0067
58706W        W 1623   1.149  10.389   9.029 -0.1546  0.0185 -0.2644
58707W        W 1624   3.740   7.872   7.820 -0.1792  0.2945 -0.0393
58708W        W 1625   0.202   8.744  10.204  0.0818  0.1353  0.3114
58709W        W 1626   4.633  11.231   8.942  0.1598 -0.0485  0.2076
58710W        W 1627   2.943   7.979   8.449 -0.2292 -0.5003  0.2834
58711W        W 1628   1.275   6.488   7.279  0.1473 -0.1929 -0.1203
58712W        W 1629   2.053  10.772   8.019 -0.1149 -0.3826  0.2721
58713W        W 1630   1.438  10.571   8.174 -0.3308  0.2483 -0.0050
58714W        W 1631   0.603   7.975   8.499  0.2312 -0.0128 -0.0853
58715W        W 1632   3.687   9.533   8.515 -0.0815 -0.0598 -0.0839
58716W        W 1633  33.731  12.155   8.525  0.2132  0.1813  0.2250
58717W        W 1634   4.171   8.244   8.055 -0.1278  0.2618  0.1134
58718W        W 1635   1.748   9.175   9.328 -0.2174  0.1082  0.3196
58719W        W 1636   2.118   9.616   8.388 -0.2231  0.0265 -0.2285
58720W        W 1637   1.403   9.860   9.339  0.4502 -0.4260 -0.1754
58721W        W 1638   3.625   7.030   8.258  0.2275  0.0471 -0.0575
58722W        W 1639   3.291  13.969   8.108 -0.0428 -0.1268  0.0268
58723W        W 1640   4.448   8.181   9.554 -0.0763 -0.3858 -0.1481
58724W        W 1641   5.679  11.419   8.417 -0.0168 -0.0220 -0.2891
58725W        W 1642   3.237   9.372   6.825 -0.1845 -0.1588  0.1161
58726W        W 1643   2.736   9.925   8.455  0.1105  0.2923 -0.4327
58727W        W 1644   1.594   9.085   7.712 -0.1479 -0.2091 -0.0610
58728W        W 1645   1.525   8.147   7.331  0.2829  0.0550  0.4127
58729W        W 1646   2.474  10.565   7.087 -0.1644  0.1031  0.0029
58730W        W 1647   4.066   9.981   7.743  0.1352 -0.0010  0.0875
58731W        W 1648   2.418   8.978   7.954  0.0068  0.1069 -0.0048
58732W        W 1649  33.622   9.229   8.709  0.1430 -0.0979  0.0325
58733W        W 1650   0.974   7.922   8.078 -0.3170  0.0862 -0.1221
58734W        W 1651   2.256   8.122   7.594  0.1151  0.0058 -0.2122
58735W        W 1652   3.745   9.915   8.144 -0.0296  0.0106  0.2297
58736W        W 1653   1.927   6.118   7.121  0.0393 -0.2268 -0.1327
58737W        W 1654  34.359  10.144   8.479  0.2852 -0.0757 -0.1900
58738W        W 1655   1.979   9.138   9.799 -0.1896  0.0572  0.0873
58739W        W 1656   4.541  11.619   9.323 -0.1506 -0.1334  0.2137
58740W        W 1657   1.262  10.851   8.639 -0.0954 -0.0787  0.0393
58741W        W 1658   4.223   8.935   9.287  0.1555 -0.0964 -0.0634
58742W        W 1659   2.153  10.298   9.071  0.3654 -0.1992 -0.2330
58743W        W 1660   0.849   9.051   9.520 -0.1440  0.0842  0.0677
58744W        W 1661   2.810  10.451   7.876 -0.1914  0.4016 -0.0190
58745W        W 1662   5.242   8.198   8.510 -0.0684 -0.1894  0.0106
58746W        W 1663   2.066  10.406   8.595  0.1415 -0.1299  0.1134
58747W        W 1664   2.151  10.078   9.661  0.0577  0.1492 -0.1459
58748W        W 1665   1.761   9.182   8.168  0.1750  0.0860 -0.2195
58749W        W 1666   1.294   9.287   8.090  0.3015 -0.0281  0.1109
58750W        W 1667   0.107  10.556   9.760  0.2590 -0.5230 -0.2120
58751W        W 1668   1.574  10.331   6.523 -0.0546  0.2736 -0.4333
58752W        W 1669   3.704   9.025   8.441 -0.2470  0.2008 -0.0470
58753W        W 1670   2.920  10.470   7.363 -0.2180 -0.0637 -0.0706
58754W        W 1671   1.817   9.645   9.599  0.0294  0.2786  0.3362
58755W        W 1672   2.872   8.195   8.904 -0.0338  0.0706 -0.3611
58756W        W 1673  34.178   9.915   7.700  0.1045 -0.0049 -0.2878
58757W        W 1674   1.146   9.669   7.836  0.1351  0.0067  0.0315
58758W        W 1675   3.599   9.352   7.521  0.0316 -0.0309  0.2888
58759W        W 1676   2.299   9.217   6.917 -0.0337  0.3234  0.3370
58760W        W 1677   3.437   9.661   9.518  0.0053 -0.2077  0.1326
58761W        W 1678   2.976   7.661   8.945 -0.1070 -0.1466  0.0330
58762W        W 1679   3.902   6.926   8.732  0.1746  0.2043  0.2562
58763W        W 1680   1.591  12.396   9.112 -0.0890 -0.2623 -0.1186
58764W        W 1681   1.089   8.014   8.580 -0.3429  0.4378 -0.1454
58765W        W 1682   3.735  12.194   7.439 -0.1832  0.0874 -0.3171
58766W        W 1683   1.818   8.315   7.778  0.0660  0.2472  0.2528
58767W        W 1684   1.006   6.067   9.631  0.0297  0.1348 -0.1845
58768W        W 1685   6.596   6.003  10.024  0.0087  0.0019 -0.0289
58769W        W 1686   1.737   8.375   5.360  0.2728 -0.2215  0.0924
58770W        W 1687   4.272  11.037   9.842  0.2436  0.0560 -0.1132
58771W        W 1688   0.004  11.094   7.275  0.3688  0.0428 -0.4427
58772W        W 1689  34.089   9.238   7.506  0.0628  0.0715 -0.4630
58773W        W 1690   3.016   7.331   9.372  0.0908  0.3802 -0.3377
58774W        W 1691   0.812   7.515   6.716  0.0407  0.2914  0.1933
58775W        W 1692   5.675   9.515   8.170 -0.0054 -0.1832 -0.0193
58776W        W 1693   0.595   9.479   9.478 -0.0036 -0.0134  0.2733
58777W        W 1694   2.287   9.957   8.732  0.0432 -0.0339 -0.0946
58778W        W 1695   3.766   8.700   9.052 -0.0388  0.2289 -0.1122
58779W        W 1696   0.974   8.807   8.759  0.0468 -0.0120 -0.1756
58780W        W 1697   0.237   9.192   9.289  0.0994  0.1989  0.1857
58781W        W 1698   2.790   9.809   8.968  0.1643 -0.0402 -0.1571
58782W        W 1699   2.304   8.597   7.536 -0.0808  0.0171  0.0911
58783W        W 1700   0.243   8.360   9.841 -0.0108 -0.1537  0.1741
58784W        W 1701   2.137   7.509   9.393  0.0943 -0.2303  0.2171
58785W        W 1702   0.418   7.087   9.438  0.0544 -0.0270  0.0839
58786W        W 1703   2.904   8.433   8.278 -0.0159  0.1666  0.0271
58787W        W 1704   0.814   8.035   7.582  0.0013  0.1800  0.0685
58788W        W 1705   3.211  10.791   7.675 -0.0647  0.1765  0.1557
58789W        W 1706   4.287   8.849   7.574 -0.0914 -0.0286  0.1780
58790W        W 1707   2.445   8.446   7.970 -0.0470  0.2765 -0.0026
58791W        W 1708   3.787   6.988   9.720  0.1008 -0.3554  0.1363
58792W        W 1709   3.857  10.588   8.780 -0.3448 -0.1231  0.2181
58793W        W 1710   1.196   7.214   7.806  0.0271 -0.0401  0.0566
58794W        W 1711  33.392  10.455   8.847  0.0176  0.0664  0.0538
58795W        W 1712   0.493  11.636   9.907 -0.1633  0.2294  0.2361
58796W        W 1713   2.948   6.378   7.279  0.1020 -0.1669  0.0606
58797W        W 1714   1.761   9.438   8.703  0.1515  0.0582 -0.0661
58798W        W 1715   1.458   8.697   8.038 -0.0495 -0.0538 -0.3670
58799W        W 1716   3.339   7.806   9.792 -0.3230  0.0812 -0.0737
58800W        W 1717   0.984   9.381   6.839 -0.0341 -0.1598 -0.0319
58801W        W 1718   4.429  10.039   9.232  0.0728  0.2782 -0.0207
58802W        W 1719   1.220   8.438   7.567  0.1382  0.0570  0.0038
58803W        W 1720   1.368   9.696   8.401 -0.0247  0.0049  0.2110
58804W        W 1721   2.032   8.620   8.244  0.0376  0.2845  0.2717
58805W        W 1722   4.091   8.674   6.791 -0.2853 -0.1653  0.4557
58806W        W 1723   1.670   6.698  10.129 -0.0858 -0.2416 -0.1303
58807W        W 1724   4.371  10.667   8.445 -0.0392 -0.2085  0.2232
58808W        W 1725   5.844   9.744   8.880  0.2239  0.1485 -0.2775
58809W        W 1726   2.836   6.058   8.582 -0.0182  0.0098 -0.0469
58810W        W 1727   1.406   5.390  10.030 -0.3600  0.1305  0.3030
58811W        W 1728   1.273   9.435   9.527 -0.2757  0.1956  0.1435
58812W        W 1729   0.751   7.780   8.925  0.2354 -0.0489 -0.1717
58813W        W 1730   2.345   9.801   5.990 -0.0586  0.3801 -0.1515
58814W        W 1731  32.039  10.372   9.805  0.0187 -0.1416  0.2251
58815W        W 1732  32.272   7.034   8.484 -0.0131 -0.0582  0.1583
58816W        W 1733   2.616   7.934   8.016  0.2079 -0.0191 -0.0588
58817W        W 1734   5.178  11.302   8.279 -0.0043  0.1057  0.0248
58818W        W 1735   0.548   9.271  10.058 -0.0588 -0.1166 -0.2492
58819W        W 1736   0.815   8.340   8.836 -0.2938  0.0071  0.2320
58820W        W 1737   2.951   9.067   7.375  0.0554  0.4100  0.0140
58821W        W 1738   4.817  10.428   8.343  0.4140  0.1510 -0.2243
58822W        W 1739   0.944   4.478   9.639 -0.3238 -0.0805  0.1266
58823W        W 1740   1.683   8.604   7.301 -0.2217  0.1062  0.1546
58824W        W 1741  34.618   8.848   7.740  0.2876 -0.0182 -0.2050
58825W        W 1742   1.131   9.312   8.597 -0.1660 -0.1883 -0.1239
58826W        W 1743   2.592   9.386   8.442 -0.0438  0.0276 -0.0824
58827W        W 1744   4.866  12.415   6.895  0.1909  0.0339 -0.0939
58828W        W 1745   0.011   6.367   7.776  0.2520 -0.0501  0.1334
58829W        W 1746   3.358   8.057   8.214  0.0127  0.2228  0.2654
58830W        W 1747   7.012   8.967   6.449  0.1454  0.0914 -0.0379
58831W        W 1748   4.367   7.072   8.349  0.2206 -0.1187 -0.0283
58832W        W 1749   4.663  10.596   9.827  0.3038  0.1019 -0.1570
58833W        W 1750   3.416   8.985   8.838  0.2650 -0.2868 -0.2429
58834W        W 1751  32.225   7.817   9.271  0.3304 -0.3896  0.0619
58835W        W 1752   3.331   9.939   8.338 -0.0168  0.1204  0.0870
58836W        W 1753   0.831  10.261   8.097  0.1781  0.2324  0.2507
58837W        W 1754   3.407   9.431   8.154  0.0173  0.1884 -0.2282
58838W        W 1755   1.668   7.815   9.119  0.2128 -0.0773  0.0045
58839W        W 1756   2.944   9.723   9.743 -0.1431 -0.1519  0.2142
58840W        W 1757   0.769   7.748   9.449  0.0865 -0.1147  0.1031
58841W        W 1758   1.771   9.780   6.645 -0.1559 -0.0113  0.1606
58842W        W 1759   1.610  10.149   6.963  0.2177  0.5016 -0.0325
58843W        W 1760  34.190   9.793   9.548  0.1241 -0.2048  0.1347
58844W        W 1761   3.975   7.841   8.868  0.1442  0.0215  0.0774
58845W        W 1762   1.147   7.058   9.116  0.0455 -0.0860  0.0879
58846W        W 1763  33.072  10.215   7.985 -0.1385 -0.0105  0.1148
58847W        W 1764   1.979   9.799   9.180 -0.2504 -0.0176 -0.0487
58848W        W 1765   3.885   4.708   9.379  0.1064  0.2961 -0.0393
58849W        W 1766   2.493   9.115   9.884  0.2207  0.0120  0.4093
58850W        W 1767   2.905   5.813   6.172  0.0463 -0.0507 -0.1246
58851W        W 1768  32.864  14.637   8.449  0.0745  0.2219  0.2392
58852W        W 1769   3.213  10.172   7.744  0.1917  0.0343 -0.0573
58853W        W 1770   1.296  14.194   2.089  0.1164  0.2647  0.2395
58854W        W 1771   1.359  11.868  31.331  0.0822 -0.4465 -0.0690
58855W        W 1772   3.376  15.563   0.224  0.0966 -0.1012 -0.0050
58856W        W 1773   3.580  12.348   0.273  0.0590 -0.0589  0.1437
58857W        W 1774   2.183  10.498   1.022  0.0475 -0.4851  0.2466
58858W        W 1775   3.615  13.869   1.804  0.0036 -0.0320  0.0142
58859W        W 1776  34.314  11.746   3.655  0.2099 -0.2147  0.0213
58860W        W 1777   4.510  14.007   0.345 -0.0311  0.0003  0.3038
58861W        W 1778   2.382  13.603   3.321 -0.0962 -0.0931 -0.0526
58862W        W 1779   3.238  12.770   0.351 -0.0096  0.1078 -0.1849
58863W        W 1780   2.802  10.828   1.158 -0.2090 -0.2313  0.1644
58864W        W 1781   2.219  13.617   2.844 -0.0643  0.2050  0.0375
58865W        W 1782   0.403  12.933   2.295  0.1160 -0.2626 -0.2719
58866W        W 1783   0.406  11.083   2.717 -0.0135  0.4143  0.0654
58867W        W 1784   3.487  11.046   3.221  0.0445 -0.1200  0.1047
58868W        W 1785   0.999  12.194   1.790 -0.0623  0.2008 -0.0831
58869W        W 1786   2.498  11.885   2.057  0.2577  0.0870 -0.0290
58870W        W 1787   3.073  10.308  30.782  0.0974 -0.0590 -0.2754
58871W        W 1788   4.808  13.081   1.791 -0.2181 -0.2403 -0.0265
58872W        W 1789   1.876  10.457   1.839 -0.0909  0.0893  0.2153
58873W        W 1790   2.836  10.048   2.629 -0.5587 -0.0921 -0.0136
58874W        W 1791   2.415  13.885   1.276  0.1195 -0.1687  0.3170
58875W        W 1792   0.695  13.305   1.290 -0.0341  0.3126 -0.3931
58876W        W 1793   1.802  12.599   0.309 -0.0214 -0.1598 -0.0266
58877W        W 1794   0.264  14.560   3.006  0.0401 -0.1755  0.0537
58878W        W 1795   3.475  11.995  31.878 -0.0033  0.0433 -0.0106
58879W        W 1796   3.049  14.214   0.943 -0.0886 -0.1593 -0.1233
58880W        W 1797   3.295  14.342   1.642 -0.1810  0.3227  0.0908
58881W        W 1798   2.794  13.598   1.524 -0.1358  0.0418 -0.0167
58882W        W 1799   2.463  12.616   3.149  0.2305 -0.1022  0.0385
58883W        W 1800  32.000  11.842   2.108 -0.1355  0.1161  0.2880
58884W        W 1801   0.218  13.070   3.073  0.1924 -0.3134  0.2812
58885W        W 1802   1.988  14.479   0.880 -0.3574 -0.1486  0.1925
58886W        W 1803   3.629  12.204   3.690  0.0167  0.0751  0.0080
58887W        W 1804   3.279  13.495   1.628 -0.0613 -0.0773 -0.0845
58888W        W 1805   0.463  15.400   4.058  0.1655 -0.1795  0.1011
58889W        W 1806   1.279  13.821   0.241  0.0711  0.0992  0.1949
58890W        W 1807   1.804  12.480   2.615  0.0504  0.0808  0.0736
58891W        W 1808   1.158  14.995   3.179 -0.1663  0.2134 -0.0062
58892W        W 1809   4.269  11.710   1.163  0.3227 -0.1009  0.3092
58893W        W 1810   3.047  12.581   0.940  0.2250  0.3149 -0.1056
58894W        W 1811   1.889  14.221   1.275 -0.1290  0.1968 -0.5770
58895W        W 1812   3.380  12.022  29.935  0.3039 -0.0398 -0.3952
58896W        W 1813   1.983  12.904   2.861 -0.0257  0.1373 -0.1615
58897W        W 1814   0.302  13.462   2.818  0.0710  0.1006  0.2339
58898W        W 1815   4.733   9.872   3.896  0.4077 -0.1461 -0.1224
58899W        W 1816   3.152  13.548  31.821  0.0273 -0.2538 -0.0059
58900W        W 1817   5.371  13.051  31.403  0.0201  0.0168  0.1898
58901W        W 1818   2.695  11.949  31.338 -0.0802  0.1227 -0.0984
58902W        W 1819   4.100  10.763   1.628 -0.1884 -0.0404  0.0378
58903W        W 1820   1.666   9.956   2.696  0.3366  0.2585  0.4448
58904W        W 1821   2.111  12.269   2.258 -0.0485 -0.0025 -0.0851
58905W        W 1822   3.220  11.468   2.508 -0.0708 -0.0613 -0.0029
58906W        W 1823   5.643  11.757   2.697 -0.0481 -0.1354 -0.4211
58907W        W 1824   1.504  13.119   0.797 -0.0614 -0.0665 -0.1417
58908W        W 1825   1.672   9.753   1.293 -0.3557 -0.0094  0.3010
58909W        W 1826   1.642  11.921   3.176 -0.1559 -0.0361  0.0039
58910W        W 1827  33.878  12.631  31.532 -0.2693  0.3943  0.1849
58911W        W 1828   3.878  13.615   0.320 -0.0966  0.0885 -0.1648
58912W        W 1829   4.220  15.482   0.223 -0.2571  0.2425 -0.1806
58913W        W 1830   2.228  11.973   0.609 -0.0836 -0.0190  0.2152
58914W        W 1831   1.046  13.218   1.694 -0.2356  0.1260  0.1403
58915W        W 1832   2.874  14.094   1.415  0.2029 -0.1163  0.1338
58916W        W 1833  34.214  14.281   4.187  0.3400 -0.0706 -0.0557
58917W        W 1834   0.471  11.249  29.801 -0.4008  0.1972 -0.4628
58918W        W 1835   3.152  12.510   3.050 -0.0976 -0.1991 -0.0465
58919W        W 1836   0.297  15.790   1.767  0.1026 -0.0525  0.0843
58920W        W 1837   4.430  10.830   2.034 -0.0388  0.0916  0.0618
58921W        W 1838   1.130  13.803   1.833 -0.0427 -0.1168 -0.0289
58922W        W 1839   1.988  13.982   2.660 -0.1927  0.0011 -0.1928
58923W        W 1840   3.378  12.972   0.888  0.0960  0.0874 -0.0161
58924W        W 1841   3.438  10.342   1.912 -0.2405 -0.2008  0.1549
58925W        W 1842   2.577  13.327  31.306 -0.0752 -0.2826 -0.0354
58926W        W 1843   1.806  10.470   0.517  0.1006  0.0360  0.0436
58927W        W 1844   3.339  13.271   2.865 -0.0482 -0.1636 -0.1981
58928W        W 1845   4.722  12.620   0.047  0.0045 -0.0865 -0.1520
58929W        W 1846   1.142  12.699   2.330 -0.0500  0.0262  0.0551
58930W        W 1847   2.460  10.191   1.252 -0.1372 -0.0171 -0.2329
58931W        W 1848   2.721  11.632   2.943 -0.3594  0.1629  0.3318
58932W        W 1849   0.104  14.542   1.557  0.0743 -0.4318  0.1640
58933W        W 1850   1.591  12.923  31.527  0.1909 -0.1308  0.0594
58934W        W 1851  33.864  12.768   1.570  0.4570 -0.0516  0.1013
58935W        W 1852   0.764  10.651   3.378 -0.4630  0.0795 -0.0292
58936W        W 1853   4.674  10.974   3.055 -0.0106 -0.0727 -0.0625
58937W        W 1854   3.363   9.076   1.513 -0.1701  0.0241 -0.2401
58938W        W 1855   1.483  11.590   2.803 -0.0669  0.0368 -0.1138
58939W        W 1856   2.527  10.869  31.684 -0.2125  0.0609 -0.1676
58940W        W 1857   2.923  14.633   0.651 -0.0805 -0.0701 -0.0485
58941W        W 1858   3.718  14.959   2.211 -0.0997 -0.1184 -0.0145
58942W        W 1859   4.066  11.635  30.514  0.1234  0.0656 -0.1019
58943W        W 1860   3.962  12.874  30.479 -0.1369  0.0225  0.2271
58944W        W 1861   1.175  13.199   3.495 -0.0248 -0.3164  0.3241
58945W        W 1862   0.694  10.677   1.319 -0.0980  0.1301  0.0441
58946W        W 1863  34.569  11.442   4.975 -0.0937 -0.1687 -0.0435
58947W        W 1864   2.429  11.451   0.432 -0.4369 -0.0637  0.1425
58948W        W 1865   3.905  11.299   3.391 -0.0398 -0.0144 -0.0046
58949W        W 1866   1.632  11.387   1.966 -0.3757 -0.0158 -0.2022
58950W        W 1867   2.331  10.100   0.129 -0.0508 -0.0375  0.1764
58951W        W 1868   2.857  12.846  31.076  0.1992 -0.1788  0.0416
58952W        W 1869   0.091  13.386   0.744  0.3170 -0.1820  0.1485
58953W        W 1870   2.146  11.762   4.322 -0.1370  0.0539  0.1349
58954W        W 1871   2.835  15.578   1.629 -0.3252  0.1587 -0.1725
58955W        W 1872   1.806  14.616   4.154  0.0833  0.1733  0.2844
58956W        W 1873   2.324  14.995   1.066  0.2356 -0.0099 -0.0507
58957W        W 1874   0.392  10.633   3.058  0.0451  0.2021 -0.2686
58958W        W 1875   1.280  11.659  30.138 -0.1903  0.0225  0.3393
58959W        W 1876   1.601  14.652   2.020  0.2060 -0.0463 -0.4368
58960W        W 1877   1.641  12.135  31.649  0.1649  0.3152 -0.2197
58961W        W 1878   2.415  10.184  31.135  0.1017  0.1056 -0.0133
58962W        W 1879   3.649  15.654   2.883  0.0507 -0.3042 -0.3541
58963W        W 1880   3.193  15.136  31.942 -0.3306  0.0457  0.1700
58964W        W 1881   1.241  13.872   3.759  0.1868  0.1307 -0.0894
58965W        W 1882   4.121  11.534   2.409  0.0544  0.0269  0.1699
58966W        W 1883   3.730  11.844   0.358 -0.0836 -0.2762  0.0714
58967W        W 1884   2.338  14.712   0.605  0.3587 -0.1035 -0.4950
58968W        W 1885  34.615  11.847  30.081 -0.1505 -0.0835 -0.1977
58969W        W 1886   2.629  15.784   0.795 -0.0015 -0.0695  0.1307
58970W        W 1887   1.844  13.411   1.580  0.2497  0.4171  0.2676
58971W        W 1888   0.073  11.845   0.344 -0.2996 -0.1386 -0.0128
58972W        W 1889   2.654  14.524   1.099  0.1247 -0.3082  0.1937
58973W        W 1890   2.767  10.951   0.411 -0.1246 -0.2542  0.1599
58974W        W 1891   0.839  11.499   3.376 -0.0405 -0.0005 -0.0418
58975W        W 1892   2.598   9.743   0.984  0.0330 -0.0143  0.1382
58976W        W 1893  34.490  11.469  31.749  0.0778  0.1991  0.0120
58977W        W 1894   1.738  12.122   4.194  0.3495  0.0663  0.1039
58978W        W 1895   0.698   9.418   0.217  0.4996  0.3004  0.3785
58979W        W 1896   3.010  13.180   1.265 -0.4791  0.0040  0.2151
58980W        W 1897   1.947  11.830   2.073  0.1341  0.0286 -0.2396
58981W        W 1898   4.549  13.157  31.750  0.1748 -0.1421 -0.1531
58982W        W 1899   2.869  10.649   0.018  0.1471 -0.1742 -0.3127
58983W        W 1900   3.105   9.405   1.097 -0.1065  0.0971  0.0267
58984W        W 1901   1.692  13.079   3.280  0.1142 -0.4640 -0.1290
58985W        W 1902   2.917  13.922   0.505  0.0123  0.0573 -0.1201
58986W        W 1903   3.364  13.939   1.378  0.0221  0.0839  0.1891
58987W        W 1904   2.733  11.936   0.314  0.1136  0.0159 -0.1265
58988W        W 1905   2.821  11.343   0.043 -0.2784  0.3562  0.0906
58989W        W 1906   1.444  10.112   1.804  0.2482  0.0265  0.0911
58990W        W 1907   3.619  13.147   3.994 -0.0903  0.1866 -0.0628
58991W        W 1908   3.025  11.968   2.156  0.1039  0.0536 -0.1689
58992W        W 1909   1.916  11.548   2.454 -0.1661  0.3594  0.0282
58993W        W 1910   3.676  12.017   0.984 -0.2057  0.1006  0.0395
58994W        W 1911   0.605  11.950   1.637  0.0912 -0.0938  0.0744
58995W        W 1912   0.892  14.494  31.564  0.1204  0.0597  0.0130
58996W        W 1913   3.622  10.131   1.478  0.0647  0.2375  0.2152
58997W        W 1914   3.262  11.862   3.772  0.2226 -0.2994 -0.0931
58998W        W 1915   3.417  11.987   3.296 -0.2076 -0.0627  0.0170
58999W        W 1916   1.318  13.600   3.205  0.2010  0.0451 -0.1009
59000W        W 1917   2.553  12.381  31.824 -0.0728 -0.2654 -0.0214
59001W        W 1918   5.638  12.082   3.336  0.0943  0.0384  0.0181
59002W        W 1919   1.997  12.954   0.541 -0.0950  0.2446  0.2152
59003W        W 1920   4.294  12.301   2.289 -0.1047 -0.1703  0.2824
59004W        W 1921   0.875  11.919   3.126 -0.0909  0.3255  0.0905
59005W        W 1922   1.962  13.131   2.175  0.1076  0.2925  0.2827
59006W        W 1923   4.746  12.892   4.485 -0.0638  0.1793 -0.0492
59007W        W 1924   4.314  12.711  31.572 -0.0206  0.0310  0.1733
59008W        W 1925   0.273  12.333   2.383  0.3774  0.0266  0.2858
59009W        W 1926   2.267  10.929   0.420  0.0546  0.2547 -0.1131
59010W        W 1927   2.493  14.235   0.722 -0.3453  0.0390 -0.0371
59011W        W 1928   0.244  14.993   1.577  0.2139  0.3161 -0.2315
59012W        W 1929   2.677  10.659   2.017 -0.1349  0.1077 -0.1810
59013W        W 1930   3.493  13.064   1.471  0.0796 -0.0608 -0.1093
59014W        W 1931   2.927  12.915  30.458 -0.0928 -0.2420  0.0866
59015W        W 1932   2.885  12.933   2.210  0.3539 -0.0334 -0.5357
59016W        W 1933   2.205  15.429   0.690  0.0429  0.2078 -0.1945
59017W        W 1934   2.505  10.117   2.260  0.2836  0.3730  0.1676
59018W        W 1935   0.008  13.894   2.805 -0.5907 -0.3542 -0.3528
59019W        W 1936   3.390   9.568   1.494 -0.1507 -0.2127 -0.3307
59020W        W 1937   2.969  11.170   1.508  0.1103  0.4258  0.1650
59021W        W 1938   3.275  10.415   0.304  0.0059 -0.2236 -0.3660
59022W        W 1939   6.410  12.753   0.186 -0.0843 -0.1510 -0.0820
59023W        W 1940   0.892  12.445   3.580  0.0324  0.1281 -0.3636
59024W        W 1941   2.585  12.115   2.919  0.0842  0.0183 -0.2712
59025W        W 1942   1.815  14.302   3.032 -0.1575  0.0268 -0.1392
59026W        W 1943   2.000  13.257   3.647 -0.0451  0.1096  0.1186
59027W        W 1944   1.551  10.435   1.405 -0.1476  0.1247  0.1844
59028W        W 1945   5.439  13.572   0.820  0.0614 -0.2998  0.1800
59029W        W 1946   1.094  11.857   2.652 -0.2590  0.1340 -0.2432
59030W        W 1947   1.570  11.484   0.460  0.3002 -0.0511 -0.2378
59031W        W 1948   5.683  13.527   2.552 -0.4314 -0.0211 -0.0346
59032W        W 1949   1.982  10.922   0.831  0.0235  0.0732 -0.3748
59033W        W 1950   0.887  14.294   1.314  0.0466 -0.1789  0.0278
59034W        W 1951   2.611  13.755   1.989  0.1844  0.1199 -0.1171
59035W        W 1952   2.326  11.947  30.949  0.3198 -0.1463 -0.0500
59036W        W 1953   3.389  14.267   0.566  0.3431 -0.0303  0.3620
59037W        W 1954   2.521  12.385   4.652 -0.3719 -0.4023 -0.0783
59038W        W 1955   5.397  12.174   2.878 -0.1830  0.0240 -0.2159
59039W        W 1956   2.619  13.825  31.679  0.2297  0.1930 -0.0445
59040W        W 1957   2.339  10.173   1.778 -0.2470 -0.0358 -0.1071
59041W        W 1958   1.909  10.734   1.366  0.0206  0.3523  0.2414
59042W        W 1959   3.040  14.030  31.933  0.0192 -0.2029  0.3715
59043W        W 1960   1.276  12.237   3.273 -0.0027 -0.1434 -0.1522
59044W        W 1961   0.315  12.188   4.422  0.2091 -0.2251 -0.5684
59045W        W 1962   1.024  11.047   1.722 -0.0326 -0.0107 -0.4105
59046W        W 1963   3.733  14.199   1.444 -0.2145  0.0724  0.0148
59047W        W 1964   1.934  13.610   4.119 -0.1307 -0.1831 -0.2021
59048W        W 1965   3.427  12.449  31.514 -0.1447  0.2024 -0.2668
59049W        W 1966   1.699  12.216   1.661  0.2184  0.1735 -0.0611
59050W        W 1967   1.528  15.053   1.112 -0.2932  0.1991 -0.1341
59051W        W 1968   2.261  11.454   2.177 -0.0780  0.0700 -0.1282
59052W        W 1969   1.467  13.174   1.341 -0.1904 -0.0570 -0.1961
59053W        W 1970   1.499  12.281   2.209  0.2593 -0.1061  0.0678
59054W        W 1971  33.027  12.883   4.188 -0.1962 -0.3170  0.0669
59055W        W 1972   3.158  11.582  31.100 -0.1347 -0.0104 -0.2070
59056W        W 1973   1.796  12.536  31.310  0.0162  0.0999  0.0004
59057W        W 1974   2.361  12.472   1.824 -0.0099 -0.1958  0.0901
59058W        W 1975   3.882  13.031   1.822  0.1196  0.1911 -0.3641
59059W        W 1976   5.658  11.955   1.414 -0.0819  0.0467  0.2292
59060W        W 1977   1.297  11.573   3.297  0.0253 -0.1554  0.0341
59061W        W 1978   0.667   9.677   2.449 -0.3049 -0.0264 -0.3817
59062W        W 1979   3.597  14.309   0.991  0.0567  0.0744  0.2611
59063W        W 1980   0.250  12.647   2.827 -0.1213  0.1043  0.1459
59064W        W 1981   1.202  14.149   3.148  0.1902  0.0370 -0.1614
59065W        W 1982   0.664  13.165   4.083 -0.1711 -0.1217  0.1070
59066W        W 1983   2.455  11.109   0.798 -0.2489  0.2056 -0.2839
59067W        W 1984   0.813  11.690  29.960 -0.5087  0.1584  0.1489
59068W        W 1985   3.429  13.466   1.124  0.3566  0.1306  0.1419
59069W        W 1986   4.662  13.035   1.212 -0.0560  0.0321 -0.2934
59070W        W 1987   2.723  12.978   1.694  0.0754 -0.0914 -0.0484
59071W        W 1988   3.268  10.959   1.096  0.0589 -0.2959  0.3546
59072W        W 1989   3.382  12.755   1.969  0.4021  0.0759  0.1242
59073W        W 1990   3.519  11.934   2.306  0.1554  0.0999  0.2691
59074W        W 1991   2.243  14.624   1.368  0.2322 -0.1695 -0.1845
59075W        W 1992   0.380  14.041   4.048 -0.0786  0.0163  0.1051
59076W        W 1993   0.766  12.130   4.061 -0.1724  0.0794  0.0503
59077W        W 1994   1.348  14.756   3.905  0.1567 -0.0798 -0.3120
59078W        W 1995   3.312  11.665   0.928 -0.2356  0.0081  0.1755
59079W        W 1996   4.257  11.264   1.466 -0.2323 -0.0210 -0.1179
59080W        W 1997   2.737  12.160   1.535  0.1346 -0.1357 -0.1913
59081W        W 1998   3.679  12.011   4.361 -0.2595 -0.0689 -0.2960
59082W        W 1999   0.555  10.337   4.924  0.0465  0.3981 -0.2235
59083W        W 2000   2.651  13.849   3.694 -0.1588  0.0088  0.0590
59084W        W 2001   3.462  12.702   2.632 -0.0404  0.1805  0.3275
59085W        W 2002   3.967  11.903   2.017  0.0259  0.0547 -0.1514
59086W        W 2003   4.690  11.120   2.542 -0.0046  0.0350 -0.5742
59087W        W 2004   4.551  11.401  31.772  0.2792  0.0352 -0.0478
59088W        W 2005   1.183   9.943   1.391 -0.0111 -0.2250 -0.6884
59089W        W 2006   2.279  13.333   4.373  0.2546 -0.1027  0.1212
59090W        W 2007   0.923   9.843   0.415 -0.2362 -0.1528 -0.3207
59091W        W 2008   4.789  11.935   4.638  0.2973 -0.0271 -0.0106
59092W        W 2009   3.046  13.894   1.855 -0.1646 -0.2291 -0.0821
59093W        W 2010   3.512  12.467   0.745 -0.2334  0.0636  0.1355
59094W        W 2011   1.976  11.476   0.218  0.0444 -0.5096  0.2350
59095W        W 2012  32.949  12.125   2.479  0.4602 -0.1366  0.0068
59096W        W 2013   0.745  15.333   3.404 -0.1983 -0.0270  0.0197
59097W        W 2014  33.218  11.308  31.154  0.1136  0.1784 -0.3340
59098W        W 2015   2.855  15.075  30.239  0.1223 -0.1261  0.0677
59099W        W 2016   3.188  12.381   3.559 -0.0321  0.3541  0.0719
59100W        W 2017   5.656  13.226   4.440  0.5451 -0.1124 -0.3011
59101W        W 2018   1.101   9.011   1.188  0.1406 -0.0577 -0.2631
59102W        W 2019   3.499  11.622   4.124  0.2604  0.1069  0.3070
59103W        W 2020   2.101  12.955   1.576 -0.4104  0.2034 -0.1079
59104W        W 2021   2.244  10.584   0.038  0.2210  0.0286 -0.1692
59105W        W 2022   1.433  14.276   1.588 -0.0362 -0.3042 -0.0451
59106W        W 2023   2.391  13.742   0.707 -0.0461  0.0553 -0.0476
59107W        W 2024   2.035  14.465  31.889 -0.0919 -0.0054  0.0531
59108W        W 2025   1.719  11.576   4.117 -0.1553 -0.1940 -0.0398
59109W        W 2026   3.730  13.364   0.746 -0.0214 -0.0030  0.0590
59110W        W 2027   3.657  12.380   2.113  0.2337  0.0812 -0.0439
59111W        W 2028   4.380  12.999   3.407  0.0203  0.0638 -0.0583
59112W        W 2029   2.099  11.691   3.033 -0.1922  0.3289  0.1317
59113W        W 2030   0.904  12.467   3.004  0.1734  0.2043  0.0168
59114W        W 2031   1.819  13.593   3.305 -0.0964 -0.2826 -0.1473
59115W        W 2032   4.896  13.810  31.709 -0.2799 -0.0011  0.1287
59116W        W 2033   2.758  13.260   0.806  0.1679 -0.5389  0.0997
59117W        W 2034   0.074   9.858   2.369 -0.1035  0.4254  0.1634
59118W        W 2035   2.536  11.495   4.540  0.2464  0.0948 -0.1179
59119W        W 2036   3.392  14.730   0.820  0.0011 -0.0427  0.0496
59120W        W 2037   1.531  10.859   1.699 -0.0436  0.2907  0.0899
59121W        W 2038   2.177  15.922   0.632 -0.4116 -0.1918  0.4943
59122W        W 2039   1.679  13.861   1.662 -0.0230 -0.0816  0.1562
59123W        W 2040   0.536  12.322   4.848  0.1061  0.2311 -0.0946
59124W        W 2041   0.855  12.879   1.242  0.0228 -0.0827 -0.2630
59125W        W 2042   4.484  15.800  31.800  0.0309 -0.0935  0.1852
59126W        W 2043   2.980  13.218   0.241 -0.2580 -0.1612  0.0845
59127W        W 2044   3.378  14.229   2.595  0.5422  0.2744 -0.0015
59128W        W 2045   1.660  11.640  31.717 -0.0166 -0.3228  0.1528
59129W        W 2046   2.909  14.091   2.353  0.1570  0.2074 -0.2125
59130W        W 2047   1.387  14.939   0.592 -0.0504 -0.1710  0.1034
59131W        W 2048   3.257  13.690   2.274  0.0000 -0.0194 -0.0069
59132W        W 2049   3.532  13.240   0.322 -0.0912  0.3341  0.2068
59133W        W 2050   2.619  12.323   2.333  0.0586 -0.0994 -0.0084
59134W        W 2051   3.412  13.804   0.250  0.0486  0.1127 -0.2769
59135W        W 2052   3.291  12.240  31.023 -0.0425  0.1608  0.0560
59136W        W 2053   4.248  12.748   1.371 -0.1797  0.3288 -0.0944
59137W        W 2054   4.686  11.872   3.590  0.0522  0.2736  0.1179
59138W        W 2055   1.841  12.118   1.152  0.0478 -0.1954  0.0550
59139W        W 2056   2.198   9.828  30.189 -0.0241  0.0370  0.2325
59140W        W 2057   0.788  13.020   3.080  0.1948 -0.2953  0.0317
59141W        W 2058   2.887  12.893   3.209  0.0137 -0.1861  0.3279
59142W        W 2059   1.741  12.342   3.549  0.0382  0.0530 -0.0017
59143W        W 2060   2.344  15.928   3.364  0.3610  0.1846 -0.2498
59144W        W 2061   0.060   9.643   0.208  0.0492 -0.1554  0.0199
59145W        W 2062   2.298  13.340   1.075 -0.0285  0.0068  0.1694
59146W        W 2063   2.910   9.546   2.761  0.1302  0.0812 -0.2365
59147W        W 2064   1.956  13.431   0.623  0.0936 -0.2060 -0.0351
59148W        W 2065   4.097  10.932   2.923 -0.0678  0.1136  0.0486
59149W        W 2066   1.824  15.980   0.913  0.2136 -0.3842  0.2626
59150W        W 2067   3.278  12.232   1.806 -0.0171  0.0441  0.2937
59151W        W 2068   1.519  13.420   3.712 -0.1502 -0.0090  0.3420
59152W        W 2069   0.768  13.277  30.756 -0.0583  0.0235 -0.1758
59153W        W 2070   3.692  12.082   1.580 -0.4956 -0.0512 -0.0855
59154W        W 2071   1.298  10.759   2.641  0.2053  0.0567 -0.0612
59155W        W 2072   4.438   8.712   1.348  0.1068  0.1827  0.0632
59156W        W 2073   3.116  12.713   1.506 -0.0234 -0.0293 -0.1751
59157W        W 2074   2.323  12.956   0.019 -0.0035  0.0689  0.1817
59158W        W 2075   1.714  10.759   2.171 -0.0838 -0.0127 -0.1040
59159W        W 2076   2.222  12.074   1.565 -0.2156  0.0082 -0.3981
59160W        W 2077   2.316  13.446   1.612  0.1470  0.2226  0.0977
59161W        W 2078   3.428  12.153   2.825  0.1142  0.0906 -0.1005
59162W        W 2079   2.375  11.671  31.891 -0.0199 -0.1397 -0.1025
59163W        W 2080   1.556  14.507   4.585  0.2438  0.2196  0.2201
59164W        W 2081   1.615  11.178   2.462 -0.2615  0.1878 -0.1808
59165W        W 2082   3.369  11.625   1.869 -0.2616  0.0410 -0.1652
59166W        W 2083   0.934  11.572  31.779 -0.0266 -0.0978  0.1154
59167W        W 2084   2.711  11.664   1.332  0.0043  0.1466 -0.0295
59168W        W 2085   1.066  14.367   3.670  0.4040 -0.1022 -0.0895
59169W        W 2086   1.098  10.532   1.597  0.1467  0.2061 -0.0852
59170W        W 2087   3.414  14.740   1.372 -0.2022  0.2925 -0.1710
59171W        W 2088   3.159  11.830   1.479  0.1013 -0.2530  0.0187
59172W        W 2089   2.276  15.116   0.313  0.0049  0.2419  0.0266
59173W        W 2090   4.688  13.536   1.964  0.0578 -0.1682 -0.1817
59174W        W 2091   3.819  13.098   2.777  0.1310 -0.0716  0.0079
59175W        W 2092  33.912  12.838   2.760  0.0024  0.1306  0.1998
59176W        W 2093   2.593  15.241   2.705  0.1528  0.0288  0.1772
59177W        W 2094   2.347  14.072   3.059  0.0423 -0.0058  0.1520
59178W        W 2095   0.976  10.548   2.286  0.0875  0.0048  0.1987
59179W        W 2096   2.070  10.978   2.497  0.0384 -0.3658  0.0135
59180W        W 2097   0.161  13.401   2.222  0.0569  0.2580 -0.0258
59181W        W 2098   4.148  11.062   2.437 -0.0285 -0.0842  0.0057
59182W        W 2099   2.938   9.439   1.666  0.2731 -0.4048  0.0480
59183W        W 2100  34.055  14.854   0.447 -0.1563  0.1406  0.0426
59184W        W 2101   3.671  11.278   3.829 -0.1037 -0.2841 -0.1094
59185W        W 2102   1.427  14.570   1.079  0.0114 -0.0843  0.0273
59186W        W 2103   0.429  15.278   5.190 -0.1644 -0.1757  0.3538
59187W        W 2104   0.020  11.219   0.189 -0.4237  0.2810 -0.3956
59188W        W 2105   2.823  12.612   2.705 -0.2389 -0.5208 -0.0910
59189W        W 2106   2.442  14.224   2.133  0.0490  0.1496  0.1305
59190W        W 2107   1.532  13.569   2.253 -0.2664 -0.0777 -0.2725
59191W        W 2108   5.033  13.927   0.917 -0.1281  0.1623  0.3141
59192W        W 2109   2.072  10.479   2.337 -0.2069  0.1326  0.5695
59193W        W 2110   2.814  13.496   2.405  0.1450  0.0029 -0.0270
59194W        W 2111  34.207  13.891   3.532 -0.1090  0.1193 -0.0396
59195W        W 2112   4.562  13.961   1.015  0.2565  0.1749  0.1040
59196W        W 2113   3.419  11.391   1.335 -0.4565 -0.1630  0.1721
59197W        W 2114   2.133  13.888   1.814  0.0346  0.0061  0.0738
59198W        W 2115   1.710  11.726   1.519 -0.0514 -0.2151 -0.0815
59199W        W 2116   1.714  10.694  31.927  0.0788 -0.1344  0.1448
59200W        W 2117  33.953  13.401   2.955 -0.0885 -0.1845  0.0028
59201W        W 2118   2.735  10.538   4.233  0.1929  0.0837  0.1256
59202W        W 2119   0.019  12.092   4.023 -0.4282 -0.0665 -0.1123
59203W        W 2120   1.671  13.582   1.080 -0.2330 -0.1300 -0.0204
59204W        W 2121   1.679   8.867  31.031 -0.2516  0.5294 -0.3048
59205W        W 2122   3.267  12.995  31.834 -0.3197 -0.1182  0.2058
59206W        W 2123   1.320  11.355   0.042  0.1882  0.1490 -0.1279
59207W        W 2124   1.059  12.473   0.461 -0.2939 -0.2191  0.1755
59208W        W 2125   4.091  14.225   1.085 -0.2138 -0.3531 -0.1320
59209W        W 2126   4.921  12.617   1.280  0.0333  0.3097  0.1032
59210W        W 2127   2.938   8.928  31.624 -0.1957  0.0627 -0.0147
59211W        W 2128   2.399  13.148   3.159  0.0855 -0.3252 -0.1444
59212W        W 2129   1.443  14.199   0.543 -0.0751  0.2013  0.0204
59213W        W 2130   1.467  11.067   3.006  0.0217  0.2186 -0.1600
59214W        W 2131   1.127  11.275   2.545 -0.0024  0.1353  0.0203
59215W        W 2132  33.777  13.072  31.765  0.3310 -0.0025  0.3155
59216W        W 2133   2.639  11.391  31.461  0.1697 -0.2095  0.1209
59217W        W 2134   3.535  13.832   0.757 -0.2758  0.3157 -0.0227
59218W        W 2135   3.846  15.797   0.096  0.2837  0.3034  0.0580
59219W        W 2136   1.404  12.328   3.869 -0.1301 -0.0120 -0.0231
59220W        W 2137   1.440  13.911   2.674 -0.2988  0.1819  0.0584
59221W        W 2138   0.645   9.883   2.949  0.1299  0.3904 -0.1313
59222W        W 2139   3.757  12.840   0.533 -0.2929 -0.0076 -0.0161
59223W        W 2140   1.672  12.577   3.070 -0.2525  0.1312 -0.2096
59224W        W 2141   4.163  13.743   0.742  0.1634 -0.0308 -0.2417
59225W        W 2142   5.649  10.856   2.151  0.0667  0.2856 -0.3387
59226W        W 2143   3.757  11.457  30.943 -0.0835 -0.0865 -0.0770
59227W        W 2144   2.109  11.468   3.791 -0.2608 -0.1282 -0.4034
59228W        W 2145   1.761  11.146   3.920  0.3059  0.0508  0.4934
59229W        W 2146   3.883  13.860   2.258  0.1288 -0.0325  0.5675
59230W        W 2147   0.555  11.712  30.862 -0.3401 -0.2376 -0.0618
59231W        W 2148   2.943  12.059  31.770  0.3007 -0.1772 -0.2470
59232W        W 2149   3.892  12.358  31.746  0.0746  0.2294  0.0221
59233W        W 2150   1.275  12.153   1.401  0.0841  0.0949  0.1371
59234W        W 2151   0.621  12.467  31.112 -0.1900  0.1064 -0.0790
59235W        W 2152   2.190  10.875   2.019 -0.1660 -0.0415 -0.0583
59236W        W 2153   2.474  13.959   2.586 -0.0822 -0.2139  0.0734
59237W        W 2154   2.186  13.715   2.299  0.2163  0.0625  0.1274
59238W        W 2155   1.760  14.663   1.427 -0.2992  0.0030 -0.0871
59239W        W 2156   4.842  13.046  29.853 -0.1366  0.2507 -0.0469
59240W        W 2157   1.804  12.605   1.965  0.1307  0.0390 -0.1645
59241W        W 2158   2.217  16.226   4.365  0.1144 -0.1132  0.1097
59242W        W 2159   3.563  12.632   1.195  0.0285  0.1970 -0.0205
59243W        W 2160   3.633  12.461   3.156  0.1974 -0.0939  0.4688
59244W        W 2161   0.194  10.876   2.204  0.1405  0.0471 -0.0925
59245W        W 2162   1.994  11.131   1.703  0.0708  0.1018  0.0247
59246W        W 2163   0.239  12.813   3.702  0.0034  0.0989 -0.1843
59247W        W 2164   3.864  11.633   1.512 -0.2247 -0.3614  0.1961
59248W        W 2165   2.243  11.569   1.664 -0.0616  0.2944  0.2846
59249W        W 2166   4.362   9.039  30.866  0.3364 -0.0563 -0.0865
59250W        W 2167   2.996  14.932   1.015 -0.1671  0.1111 -0.3377
59251W        W 2168   2.734  11.535   2.403  0.1816  0.1172  0.0805
59252W        W 2169   0.422  14.234   6.565 -0.1144 -0.0353  0.1297
59253W        W 2170   0.807  11.577   4.935 -0.0496 -0.2394  0.0300
59254W        W 2171   3.824  11.856   2.919 -0.1679  0.0297  0.0203
59255W        W 2172   4.042  11.497   4.221 -0.1837 -0.2224 -0.1452
59256W        W 2173   2.382  10.476   4.704  0.0915 -0.1869 -0.3306
59257W        W 2174   3.782  15.502   5.937 -0.1279  0.2061  0.1586
59258W        W 2175  34.266  12.331   6.716  0.2006 -0.1106 -0.1126
59259W        W 2176   2.955  13.801   5.636  0.0801  0.2624 -0.1244
59260W        W 2177   3.883  15.361   6.470  0.0062 -0.0492 -0.3393
59261W        W 2178   2.996  12.893   4.611 -0.1397  0.0412  0.2927
59262W        W 2179   1.455  13.509   6.575  0.0067  0.0436 -0.0270
59263W        W 2180   1.232  15.142   4.753 -0.1657 -0.1403 -0.2571
59264W        W 2181   2.129  10.728   5.180  0.0927  0.0888 -0.4670
59265W        W 2182   0.183   9.570   5.155  0.0391 -0.0355 -0.1815
59266W        W 2183   2.864  12.623   5.034 -0.0449 -0.2018  0.2046
59267W        W 2184   2.197  12.952   5.742 -0.0532  0.0797 -0.1284
59268W        W 2185   2.470  12.079   5.642 -0.2655  0.1975 -0.1415
59269W        W 2186   1.386  10.481   5.657  0.3379 -0.0847 -0.1865
59270W        W 2187   0.678  14.964   5.521 -0.4183 -0.3334 -0.0100
59271W        W 2188   1.614  10.864   5.013 -0.2411  0.3456 -0.3227
59272W        W 2189   2.392  11.569   5.409  0.0299  0.1710 -0.3105
59273W        W 2190   2.437  11.118   3.918 -0.0584  0.2241 -0.1945
59274W        W 2191  32.164  12.986   3.645 -0.1499  0.1202  0.0395
59275W        W 2192   0.385  12.717   5.226  0.3171  0.0085 -0.2549
59276W        W 2193   1.613  11.954   5.554  0.0312  0.1266 -0.0193
59277W        W 2194   1.254  12.868   5.634 -0.0914 -0.0101  0.1839
59278W        W 2195   3.761  13.131   7.596 -0.0233  0.4436  0.0567
59279W        W 2196   1.988  15.855   5.560  0.0458  0.1580 -0.0027
59280W        W 2197   1.536  12.741   4.251  0.1491  0.0750  0.2243
59281W        W 2198   5.015  12.963   6.481 -0.0132 -0.0069  0.1147
59282W        W 2199   0.032  14.157   4.961  0.0186 -0.3397  0.0239
59283W        W 2200   0.505  13.181   4.575 -0.1031 -0.1857 -0.4182
59284W        W 2201   0.930  15.946   5.074  0.1131 -0.1660 -0.4529
59285W        W 2202   2.624  14.704   4.091 -0.1628 -0.1091 -0.2630
59286W        W 2203   4.126  12.985   6.171 -0.2931 -0.1116 -0.0527
59287W        W 2204   4.784  15.459   6.956  0.1757  0.1251  0.0609
59288W        W 2205  34.670  11.274   2.455 -0.0450  0.1036  0.4071
59289W        W 2206   2.222  15.971   6.954 -0.1761 -0.1406  0.2085
59290W        W 2207   2.076  14.073   6.660 -0.0645  0.3232 -0.1003
59291W        W 2208   2.168  12.585   4.977  0.0673 -0.0550  0.1671
59292W        W 2209   0.363  13.049   5.613 -0.0415  0.0878 -0.0691
59293W        W 2210   0.022  15.098   3.983 -0.0641  0.1425 -0.3188
59294W        W 2211   2.699  13.580   5.287 -0.1897 -0.0158 -0.0221
59295W        W 2212   1.500  12.906   9.101 -0.1087  0.2578  0.3776
59296W        W 2213   1.202  13.594   5.217  0.2127 -0.2669 -0.1714
59297W        W 2214   5.440  11.035   6.683  0.2068  0.0157 -0.1027
59298W        W 2215  34.287  13.884   5.221  0.0788  0.2652  0.0204
59299W        W 2216   2.004  11.477   4.706  0.1094  0.0426  0.2243
59300W        W 2217   1.543  13.049   1.898 -0.0236 -0.0924 -0.1085
59301W        W 2218   2.949  11.729   3.376 -0.1993  0.0520 -0.1945
59302W        W 2219   1.280  10.944   4.682  0.0841 -0.1776  0.0037
59303W        W 2220   0.528  14.014   5.790 -0.1168  0.1576  0.2294
59304W        W 2221   2.467  11.088   5.135 -0.1380  0.2471  0.1402
59305W        W 2222   2.956  14.350   7.879  0.2102 -0.0140 -0.0459
59306W        W 2223   1.930  12.596   4.499 -0.1360  0.1377 -0.0654
59307W        W 2224   2.094  12.527   5.508 -0.1382  0.0648 -0.0312
59308W        W 2225   0.240  16.402   6.314  0.2878 -0.1371  0.1148
59309W        W 2226   0.411  11.349   5.208 -0.1060 -0.0565 -0.1098
59310W        W 2227   2.855  14.391   3.781  0.1690 -0.1264  0.1624
59311W        W 2228   3.093  14.207   5.304 -0.0742 -0.0362  0.1616
59312W        W 2229   1.718  14.871   3.120 -0.1317 -0.2879 -0.2530
59313W        W 2230   0.657  11.074   4.180  0.2181 -0.1191 -0.3503
59314W        W 2231   1.107  14.193   5.808  0.1599 -0.0316  0.0340
59315W        W 2232   0.726  12.055   5.243  0.3689 -0.3473  0.2747
59316W        W 2233   0.104  11.140   3.735  0.0487  0.2196 -0.0089
59317W        W 2234   3.386  13.486   8.023 -0.1588  0.0287  0.1943
59318W        W 2235   0.861  15.846   7.390 -0.0728 -0.1851 -0.0447
59319W        W 2236   3.979  12.612   6.444 -0.0155 -0.1276 -0.0289
59320W        W 2237   2.544  11.475   7.322  0.3330 -0.0718 -0.0419
59321W        W 2238   3.593  14.372   6.189  0.0457 -0.0566  0.1986
59322W        W 2239   2.649  11.954   4.410  0.3050 -0.4593  0.1530
59323W        W 2240   2.320   9.501   5.582  0.0454  0.1973  0.1640
59324W        W 2241   2.817  11.312   5.435  0.0373 -0.2717 -0.1319
59325W        W 2242   1.203  11.761   5.234  0.3179  0.2575  0.2316
59326W        W 2243   0.946  11.361   4.485  0.1766  0.0758 -0.0524
59327W        W 2244   2.047  15.111   6.622 -0.2348  0.0117  0.1767
59328W        W 2245   1.900  11.221   5.124  0.1966  0.1730 -0.1724
59329W        W 2246   1.649  13.442   5.569 -0.1440  0.0058 -0.0131
59330W        W 2247   2.512  12.295   5.159  0.0760 -0.2128  0.0604
59331W        W 2248   0.864  12.615   5.417 -0.0824 -0.0797  0.1396
59332W        W 2249   0.526  15.595   4.521  0.3470 -0.0310 -0.0654
59333W        W 2250  34.308  12.763   4.848 -0.1840  0.0377 -0.1640
59334W        W 2251  33.963  13.484   4.719 -0.3006 -0.4692 -0.4341
59335W        W 2252   1.005  11.950   6.722  0.1389  0.0840  0.1808
59336W        W 2253   1.248  13.614   7.015  0.1003 -0.0556  0.1710
59337W        W 2254   4.247  13.290   5.374  0.1834 -0.0591  0.0925
59338W        W 2255   1.358  10.938   5.835 -0.0355  0.1041  0.0199
59339W        W 2256   2.485  10.890   5.603  0.0145  0.0083  0.0679
59340W        W 2257   1.095  14.548   4.849 -0.2477  0.0247  0.1506
59341W        W 2258   3.157  15.255   4.231  0.2929 -0.3020 -0.1669
59342W        W 2259   2.778  13.485   3.084  0.0072  0.2068 -0.1511
59343W        W 2260   2.566  16.407   4.687  0.0867 -0.2229 -0.2489
59344W        W 2261   1.576  11.423   5.500  0.5534 -0.0127  0.2995
59345W        W 2262   0.298  13.000   6.125 -0.2266  0.1582 -0.0603
59346W        W 2263   4.145  11.082   5.552 -0.0194  0.1530  0.0667
59347W        W 2264   0.597  10.671   6.290 -0.2664  0.0999 -0.2480
59348W        W 2265   2.257  12.682   7.585  0.1475  0.2995 -0.0422
59349W        W 2266   0.570   9.286   3.276 -0.6468 -0.0449  0.2055
59350W        W 2267   3.421  11.511   3.406  0.0805 -0.0437  0.0514
59351W        W 2268   2.077  11.115   5.880 -0.3413  0.0010  0.0798
59352W        W 2269   0.323  10.886   5.076  0.0263 -0.2896 -0.3520
59353W        W 2270   2.914   9.927   6.050 -0.1919  0.1852  0.2987
59354W        W 2271   1.384  14.603   3.394 -0.0368 -0.3809  0.1388
59355W        W 2272   4.958  12.654   7.372 -0.0851  0.0244  0.1901
59356W        W 2273   3.245  13.764   5.166  0.2926  0.0853  0.0717
59357W        W 2274   2.914  10.499   5.817 -0.0799  0.0401 -0.0258
59358W        W 2275  34.032   9.796   3.059 -0.2006 -0.0787  0.2640
59359W        W 2276   0.422  14.695   6.737  0.0761 -0.0456 -0.4061
59360W        W 2277   2.155  13.431   5.503  0.1067 -0.0802 -0.0073
59361W        W 2278   1.754  10.952   5.555 -0.0117 -0.0003 -0.4097
59362W        W 2279   4.069  14.879   4.166  0.2844  0.0660 -0.0026
59363W        W 2280   2.026  14.567   5.860 -0.3407 -0.2090  0.1621
59364W        W 2281   0.057  14.194   7.443  0.0725  0.1386  0.0003
59365W        W 2282   3.245  10.406   6.911  0.0116  0.1614 -0.0461
59366W        W 2283   3.602  12.962   5.172  0.4847 -0.0187 -0.3177
59367W        W 2284   1.185  10.776   5.274  0.2570  0.1178 -0.3118
59368W        W 2285   0.845  11.080   3.709  0.1315 -0.0177  0.2708
59369W        W 2286   1.724  15.209   4.801  0.1175 -0.0251 -0.0734
59370W        W 2287   1.685  12.847   3.739 -0.1026  0.0079  0.0766
59371W        W 2288   0.385  11.453   4.226 -0.0358  0.0618  0.1726
59372W        W 2289   0.866  13.559   4.429  0.0371  0.0415 -0.0982
59373W        W 2290   3.000  10.972   5.790  0.0770 -0.1932  0.0148
59374W        W 2291  34.152  12.458   7.162  0.0377  0.0845  0.2785
59375W        W 2292   4.410  12.665   6.725 -0.0095 -0.0833 -0.2400
59376W        W 2293   2.106  11.953   3.766 -0.0353  0.1804  0.1013
59377W        W 2294   1.193  13.133   6.734 -0.2154  0.0094  0.1059
59378W        W 2295   2.338   9.512   4.375 -0.1502 -0.2292  0.2433
59379W        W 2296   2.281  12.373   3.557 -0.2075 -0.0876 -0.0139
59380W        W 2297   2.755  10.731   6.257  0.0133  0.5268  0.3714
59381W        W 2298   2.600  12.995   6.093 -0.0531  0.1466 -0.0368
59382W        W 2299   1.044  10.507   4.885  0.0959  0.2037 -0.0614
59383W        W 2300   0.737  13.006   3.579 -0.0001  0.0266 -0.1698
59384W        W 2301   0.406  12.487   8.816 -0.4617  0.4292  0.2407
59385W        W 2302   3.212  13.486   6.014  0.1221  0.1383  0.0261
59386W        W 2303   1.652  15.503   5.395 -0.0107 -0.2518  0.3273
59387W        W 2304   1.928  14.185   5.593  0.3204  0.1546 -0.3010
59388W        W 2305   3.559  12.454   4.526 -0.2795 -0.2343 -0.1900
59389W        W 2306   1.186  12.875   6.159  0.0473 -0.2963 -0.0441
59390W        W 2307   3.203  13.113   6.397  0.0899  0.1599  0.0937
59391W        W 2308   2.921  14.506   4.854  0.1838 -0.3317  0.0785
59392W        W 2309   2.656   7.938   5.126  0.0323 -0.0081 -0.0361
59393W        W 2310   3.037  12.343   4.578  0.0167 -0.1194  0.0280
59394W        W 2311   2.519  11.071   2.368  0.1653  0.0256 -0.2014
59395W        W 2312  33.522  14.072   2.575  0.3831 -0.2799  0.0980
59396W        W 2313   1.063  12.373   4.995  0.1925 -0.2773  0.0712
59397W        W 2314   0.744  11.526   6.414  0.0165 -0.2592 -0.0401
59398W        W 2315   3.651   8.055   4.582 -0.0671  0.2123 -0.1630
59399W        W 2316   2.010  10.204   5.027 -0.1581  0.1318  0.1081
59400W        W 2317   2.322  11.717   5.996 -0.0895 -0.0963 -0.1227
59401W        W 2318   2.347  13.035   5.231 -0.0307 -0.3714  0.0767
59402W        W 2319   1.070  11.958   3.743 -0.0436  0.0408  0.1127
59403W        W 2320   2.345   9.688   6.835  0.1154 -0.2088  0.0911
59404W        W 2321   3.076  12.790   5.468 -0.0331 -0.1266 -0.0250
59405W        W 2322   1.608  13.205   7.017 -0.3664 -0.0333  0.0712
59406W        W 2323   3.923  14.437   6.650  0.1850  0.0110 -0.4542
59407W        W 2324   2.946  13.425   3.966  0.0964  0.3482 -0.1297
59408W        W 2325   2.374  13.105   6.709 -0.3224  0.6278  0.1559
59409W        W 2326   1.852   8.654   6.443  0.0583 -0.1745  0.2383
59410W        W 2327  34.609  14.639   4.905 -0.0775 -0.3022 -0.1488
59411W        W 2328  33.036  11.737   5.025  0.0514  0.2116 -0.3844
59412W        W 2329   0.943  10.709   5.762  0.0826 -0.0090 -0.2663
59413W        W 2330   2.054  15.246   5.593  0.0726 -0.0288 -0.0156
59414W        W 2331   1.908  14.081   4.408  0.1559  0.0020 -0.1282
59415W        W 2332   0.816  15.474   5.539 -0.0586  0.2614 -0.2928
59416W        W 2333   3.353  14.648   6.535  0.0187  0.1155 -0.1734
59417W        W 2334   4.120  11.175   6.399  0.2556  0.0833  0.1641
59418W        W 2335   0.169  12.748   4.787 -0.3593 -0.1911 -0.1835
59419W        W 2336   0.716  11.807   4.478 -0.2919  0.1706 -0.1263
59420W        W 2337  34.282  13.221   5.099 -0.0983  0.3108  0.0217
59421W        W 2338   3.484  11.799   6.720  0.0989 -0.0947 -0.0382
59422W        W 2339   3.951  13.936   4.361 -0.1236 -0.0915 -0.2920
59423W        W 2340   0.818  11.619   5.475  0.0694 -0.2535 -0.1008
59424W        W 2341   2.621   9.007   4.826 -0.3184  0.2188 -0.1928
59425W        W 2342  34.401  14.164   5.649 -0.3456 -0.1390  0.2573
59426W        W 2343   3.783  13.082   6.601  0.0011  0.0240  0.1413
59427W        W 2344   3.543   9.710   3.526  0.2615 -0.1284 -0.2618
59428W        W 2345   1.383  13.847   6.178 -0.0291 -0.1080  0.3420
59429W        W 2346   1.262  13.604   7.977  0.2234  0.1173 -0.1679
59430W        W 2347   0.406  13.677   3.328  0.2716 -0.1414  0.6363
59431W        W 2348   3.891  12.598   5.932  0.1902 -0.0361 -0.0805
59432W        W 2349   0.834  11.594   4.036  0.4134 -0.0822  0.1567
59433W        W 2350   0.709  14.459   3.980  0.2571 -0.1785  0.1185
59434W        W 2351   3.292  14.681   5.923 -0.2035 -0.0646 -0.0743
59435W        W 2352   1.515  12.119   5.104 -0.0494 -0.2583 -0.2477
59436W        W 2353   2.694  13.988   6.034  0.2577 -0.0787 -0.1265
59437W        W 2354   0.630  11.033   6.627  0.3162  0.1363  0.1435
59438W        W 2355   3.899  11.759   7.102  0.0491  0.0551  0.5064
59439W        W 2356   1.502  11.349   4.526 -0.0292 -0.2380  0.0061
59440W        W 2357   0.359  13.216   5.099  0.3116  0.1192 -0.0749
59441W        W 2358   1.359  11.331   5.015 -0.2423  0.0283 -0.0465
59442W        W 2359   3.650  13.787   6.103  0.2250  0.0829 -0.0078
59443W        W 2360   3.328  11.354   6.282 -0.0397  0.0819 -0.3107
59444W        W 2361   0.581  13.977   7.607  0.0060  0.1872  0.1240
59445W        W 2362   2.518  10.259   5.986  0.2625  0.0453 -0.2015
59446W        W 2363   2.872  13.161   5.108  0.0382 -0.1997 -0.0088
59447W        W 2364   4.546  12.753   5.119  0.2419 -0.2288 -0.1682
59448W        W 2365   1.794  13.773   4.930 -0.1494  0.1195 -0.1575
59449W        W 2366   0.819  12.976   5.871 -0.1032  0.3314 -0.0929
59450W        W 2367   1.058  14.674   5.396  0.0432 -0.0291 -0.3591
59451W        W 2368   3.207  12.079   5.141 -0.2080  0.0681  0.0433
59452W        W 2369   1.480  13.894   5.711  0.2315  0.4620  0.3142
59453W        W 2370   2.646  13.240   3.575  0.0670  0.0481 -0.1057
59454W        W 2371   0.145  15.664   6.942  0.0718  0.0651 -0.1092
59455W        W 2372   3.200   8.860   3.413 -0.0175  0.1618  0.1307
59456W        W 2373   0.731  14.903   5.015 -0.3473  0.0032  0.1138
59457W        W 2374   2.678   9.410   6.246 -0.0133 -0.1326 -0.1432
59458W        W 2375   4.554  10.762   5.572 -0.0884 -0.0616 -0.1359
59459W        W 2376   2.589  12.677   5.485  0.0020 -0.0851  0.1696
59460W        W 2377   2.860  11.475   6.867  0.3005 -0.1592 -0.1806
59461W        W 2378   2.095  11.252   4.253 -0.1366 -0.0422  0.1450
59462W        W 2379   3.722  12.176   6.157  0.1215 -0.0156 -0.0775
59463W        W 2380   1.034  10.184   5.776 -0.3604  0.1548  0.0869
59464W        W 2381   2.014  15.567   6.062  0.2982  0.0840 -0.2767
59465W        W 2382   2.840  11.612   6.273 -0.0904  0.2190 -0.3513
59466W        W 2383   1.692  12.926   5.813 -0.0253  0.0001  0.0244
59467W        W 2384   2.108  10.905   4.669 -0.1123 -0.1238 -0.0028
59468W        W 2385   1.154  13.938   6.619 -0.1706  0.1776  0.0155
59469W        W 2386   3.323  13.353   4.882 -0.0832  0.1762 -0.0897
59470W        W 2387   2.288  13.957   4.725 -0.0319 -0.0319 -0.0178
59471W        W 2388   2.383  12.822   4.353  0.1744 -0.0363  0.1127
59472W        W 2389   2.209  13.438   6.066  0.0615 -0.0362  0.0713
59473W        W 2390   2.243   9.930   4.660  0.0019  0.0786 -0.1730
59474W        W 2391   1.392  11.103   3.509  0.0950  0.0933 -0.3035
59475W        W 2392   1.021  13.704   5.790  0.4140 -0.2334 -0.1985
59476W        W 2393   1.217  10.526   6.192  0.4627  0.0079  0.0803
59477W        W 2394   2.420  12.989   3.864 -0.0592 -0.0416 -0.3708
59478W        W 2395   1.125  11.824   5.733 -0.0294 -0.0301 -0.0498
59479W        W 2396   0.466  10.458   5.839 -0.0486  0.2505  0.2583
59480W        W 2397   3.898  13.483   5.815  0.1087 -0.1202 -0.0568
59481W        W 2398   2.732  11.299   7.799  0.1735  0.1715 -0.3689
59482W        W 2399   0.299  10.069   6.112  0.2057  0.1293  0.0422
59483W        W 2400   1.569  14.285   6.005 -0.3261 -0.1193 -0.1771
59484W        W 2401   5.170   9.918   4.451 -0.0243  0.1148 -0.1695
59485W        W 2402   5.780  11.770   6.358  0.3196 -0.2373 -0.1847
59486W        W 2403   3.900  12.527   3.992 -0.2328 -0.1519  0.2987
59487W        W 2404   1.726  11.652   5.123 -0.0499 -0.3705 -0.0441
59488W        W 2405  33.131   9.611   6.880 -0.0559  0.0925 -0.0132
59489W        W 2406   3.737  11.831   7.921  0.3354 -0.0068  0.3009
59490W        W 2407   0.690  10.179   2.487 -0.2158  0.1229 -0.3540
59491W        W 2408   1.848  11.124   6.705  0.2023 -0.2564 -0.2773
59492W        W 2409   2.395  13.737   6.414 -0.2131  0.2264  0.0138
59493W        W 2410   0.730  14.076   3.512  0.1916  0.0179 -0.1278
59494W        W 2411   2.555  10.017   5.067  0.1883 -0.0226 -0.2643
59495W        W 2412   1.651   9.350   3.393  0.3096  0.0785 -0.3703
59496W        W 2413   0.196  13.754   7.267 -0.2794  0.0617  0.0404
59497W        W 2414   1.710  10.919   4.338 -0.1651 -0.2846 -0.1314
59498W        W 2415   0.678  12.698   4.041 -0.2085  0.1693 -0.0650
59499W        W 2416   4.794  12.682   5.601 -0.2488 -0.2851  0.1338
59500W        W 2417   3.890  14.308   4.761  0.0157 -0.1068 -0.0942
59501W        W 2418   1.986   9.879   2.284 -0.1241  0.0632 -0.0260
59502W        W 2419   3.395  12.499   5.889  0.1349  0.0609  0.0594
59503W        W 2420   0.864  13.190   5.415 -0.4701  0.0851  0.3507
59504W        W 2421   3.132   9.652   4.565  0.0809  0.0214  0.0795
59505W        W 2422   1.296  15.999   4.670  0.1066 -0.0016 -0.1549
59506W        W 2423  33.218  13.031   4.730  0.0887 -0.2088  0.0866
59507W        W 2424   0.364  15.267   5.812  0.0256 -0.1620 -0.1675
59508W        W 2425   2.811   8.908   6.285  0.2537 -0.2903 -0.0269
59509W        W 2426   2.919  12.640   6.018 -0.0553 -0.1328 -0.1242
59510W        W 2427   1.879  12.966   5.328 -0.0226  0.0003  0.0627
59511W        W 2428   4.404  11.319   5.921 -0.0671  0.1317 -0.1083
59512W        W 2429   2.668  13.512   5.927 -0.0985 -0.1005 -0.0366
59513W        W 2430   0.902  12.736   8.085 -0.2924 -0.0052  0.3368
59514W        W 2431   2.401  13.865   5.624 -0.0277  0.1313  0.2852
59515W        W 2432   4.664  12.993   6.103 -0.1501 -0.3217 -0.0731
59516W        W 2433   1.195  12.623   6.689  0.2300 -0.1625 -0.1709
59517W        W 2434  34.486  11.690   6.916 -0.1563  0.0779  0.0879
59518W        W 2435   2.267  11.100   6.453 -0.3723  0.1461  0.0871
59519W        W 2436   4.120  12.131   5.849  0.3857  0.1207 -0.0982
59520W        W 2437   0.616  11.120   6.075  0.0670 -0.0363 -0.1635
59521W        W 2438   3.252  14.134   4.839  0.0788  0.1568 -0.0594
59522W        W 2439   0.821  13.934   6.228  0.1568 -0.2364 -0.1339
59523W        W 2440  34.059  13.759   6.118 -0.0852 -0.1352  0.0259
59524W        W 2441  33.546  14.371   3.023  0.0165  0.1623  0.0162
59525W        W 2442   4.560  12.373   4.517  0.1194 -0.0222 -0.1339
59526W        W 2443   0.781  13.952   4.874 -0.1021  0.3992  0.2159
59527W        W 2444   2.867  15.901   6.182 -0.5484  0.1196  0.2308
59528W        W 2445   2.625  10.925   4.597  0.0178 -0.2313 -0.0520
59529W        W 2446   0.092  14.365   5.436 -0.0500 -0.0105  0.2249
59530W        W 2447   1.645  12.611   5.021 -0.0545 -0.0982 -0.1714
59531W        W 2448   0.860  13.948   4.075 -0.0789  0.0743 -0.3157
59532W        W 2449   1.573  12.902   6.520  0.0917  0.0199 -0.0574
59533W        W 2450   4.074  13.676   6.842  0.1519 -0.1155 -0.3399
59534W        W 2451   2.258  10.765   4.205  0.1599 -0.0538 -0.1673
59535W        W 2452   3.301  11.703   5.479  0.1562  0.0307 -0.0195
59536W        W 2453   0.311  11.826   4.954 -0.0062 -0.3014 -0.0339
59537W        W 2454   3.437  12.601   7.273  0.0232  0.0928 -0.1214
59538W        W 2455   1.599  13.358   6.051 -0.3349 -0.4035 -0.0472
59539W        W 2456   0.000  11.508   3.406 -0.1398  0.1637  0.0427
59540W        W 2457  34.586  11.831   6.452 -0.1505  0.4661  0.1894
59541W        W 2458   5.115  10.993   6.343 -0.1782 -0.0638 -0.0692
59542W        W 2459  34.542  13.251   7.450  0.0403  0.3230  0.0072
59543W        W 2460   2.781  13.968   4.986 -0.1221 -0.4207 -0.1615
59544W        W 2461   2.483  11.413   3.349 -0.0018  0.0701 -0.1544
59545W        W 2462   2.087  12.078   5.258  0.1770 -0.2516  0.0545
59546W        W 2463   2.882  10.683   6.780  0.1202 -0.1041 -0.2223
59547W        W 2464   0.713  12.484   2.100  0.0770  0.0252  0.0771
59548W        W 2465   0.027  12.282   4.816 -0.1771  0.0207  0.1122
59549W        W 2466   1.287  12.732   3.338 -0.1914 -0.1132  0.0773
59550W        W 2467   1.599  12.636   6.980  0.1086 -0.1302 -0.1164
59551W        W 2468   2.860  16.125   5.194  0.0140 -0.2130 -0.1001
59552W        W 2469  34.216  10.408   4.211 -0.2511  0.2525 -0.2478
59553W        W 2470   4.502  11.205   4.199  0.3860 -0.1482  0.3772
59554W        W 2471   1.366  13.047   7.785  0.0839 -0.0184 -0.1580
59555W        W 2472   1.614  11.628   6.893  0.0747  0.0714 -0.2322
59556W        W 2473  34.563  11.974   5.203 -0.1946 -0.0744 -0.2484
59557W        W 2474   1.459  12.375   4.573  0.2182  0.2341  0.0473
59558W        W 2475   1.281  13.429   4.691 -0.6895  0.0418 -0.1766
59559W        W 2476   2.712  13.341   6.458 -0.1440  0.0034  0.1417
59560W        W 2477   0.942  12.359   4.480 -0.1456 -0.1452 -0.2999
59561W        W 2478   4.003  11.812   8.346  0.0884  0.1993  0.2243
59562W        W 2479   2.260  12.277   4.215  0.0549 -0.1437  0.2796
59563W        W 2480   2.795  13.227   7.015 -0.0970  0.0979  0.0881
59564W        W 2481  34.452  11.606   5.579 -0.0609  0.1889 -0.2069
59565W        W 2482  34.475  12.808   3.959 -0.0342  0.1730 -0.0648
59566W        W 2483   1.217  12.229   5.447  0.1803  0.1030  0.0842
59567W        W 2484   2.088  12.849   6.265  0.0299  0.1613  0.0953
59568W        W 2485   1.976  12.228   7.715 -0.1073 -0.3061 -0.0326
59569W        W 2486   1.287  11.809   4.258  0.1694 -0.0483  0.0220
59570W        W 2487   3.886  12.874   4.324  0.1621  0.1906 -0.0503
59571W        W 2488   3.381  13.805   7.081 -0.1323 -0.1621  0.0149
59572W        W 2489   0.650  16.207   5.545  0.0586  0.1237 -0.1003
59573W        W 2490   4.608  12.157   3.990 -0.0828  0.0293  0.1313
59574W        W 2491   0.948  14.743   5.891 -0.0650  0.1257  0.0311
59575W        W 2492   3.259  11.908   6.272  0.2798  0.0839  0.2191
59576W        W 2493   3.905  13.960   6.485  0.0834 -0.0779 -0.1974
59577W        W 2494   6.113  12.065   6.785 -0.0134 -0.1140 -0.2635
59578W        W 2495   3.547  10.648   4.510  0.0667  0.0370 -0.1362
59579W        W 2496   1.941  10.436   4.447  0.0042 -0.1578  0.1395
59580W        W 2497  34.468  13.705   4.835 -0.1006  0.0871  0.3295
59581W        W 2498   3.028  12.566   7.490 -0.1163  0.1706 -0.1987
59582W        W 2499   2.822  11.735   5.787  0.1348  0.3712 -0.0990
59583W        W 2500   1.597  13.292   5.035  0.0520 -0.0505 -0.3983
59584W        W 2501   4.056  13.365   8.388  0.1796  0.1934  0.0069
59585W        W 2502   0.359  15.414   6.280  0.1109  0.5306  0.0151
59586W        W 2503   0.627  15.711   5.918 -0.0061 -0.2439  0.2160
59587W        W 2504  34.087  11.224   4.816  0.0852  0.0041 -0.0351
59588W        W 2505   1.808  14.970   5.984 -0.2539  0.2741 -0.3065
59589W        W 2506   2.754  12.303   3.333 -0.1591 -0.0200  0.0936
59590W        W 2507   1.591  12.945   2.469  0.0563  0.0496  0.2299
59591W        W 2508   3.670  15.437   4.468 -0.2015 -0.0043  0.2118
59592W        W 2509   2.062  12.678   3.997 -0.0535 -0.1558  0.0549
59593W        W 2510   3.531  13.000   4.615 -0.0273 -0.2584 -0.0599
59594W        W 2511   1.096  12.378   7.082  0.2936  0.4015 -0.0461
59595W        W 2512   2.914  11.776   4.857 -0.2159  0.0171  0.0473
59596W        W 2513   3.155  10.295   4.497 -0.0232 -0.0961 -0.0266
59597W        W 2514  33.906  14.207   5.371 -0.0485  0.0233  0.0193
59598W        W 2515   0.287  12.271   5.390 -0.2309 -0.0733 -0.0288
59599W        W 2516   0.554  13.609   3.881  0.1212  0.2690  0.0515
59600W        W 2517   0.675  13.624   5.339 -0.1221  0.0952  0.2299
59601W        W 2518   1.613   9.599   7.515  0.2021 -0.0642  0.0649
59602W        W 2519   1.531  12.018   6.044  0.2164 -0.0933  0.1670
59603W        W 2520   1.074  12.499   5.890  0.5720 -0.1800 -0.0653
59604W        W 2521   0.001  10.379   6.392 -0.2132 -0.0469 -0.2513
59605W        W 2522   3.405  14.453   4.542  0.1583 -0.2000 -0.1306
59606W        W 2523   1.825   9.602   5.714 -0.3211  0.1033 -0.0001
59607W        W 2524   0.412  11.704   3.172  0.0856 -0.2410 -0.1925
59608W        W 2525   3.660  17.531   2.016 -0.1522 -0.0246  0.0559
59609W        W 2526   2.727  13.150   5.622 -0.2244  0.0247  0.3431
59610W        W 2527   1.620  10.385   5.207 -0.1282  0.0685  0.0461
59611W        W 2528   3.666  14.692   8.497 -0.1156 -0.0840  0.2033
59612W        W 2529  34.366  11.826   3.136 -0.1264 -0.3404 -0.0230
59613W        W 2530   1.679  11.070   6.207 -0.4075  0.0470 -0.1231
59614W        W 2531   0.276  11.358   5.731 -0.2835 -0.0893  0.1143
59615W        W 2532  33.562   9.706   2.357  0.2095  0.0800 -0.0545
59616W        W 2533   2.782  11.898   5.313  0.2928 -0.2844  0.2675
59617W        W 2534   2.562  12.122   3.841  0.1521  0.3317  0.3538
59618W        W 2535   2.387  13.502   3.893  0.2642 -0.2040 -0.6159
59619W        W 2536   0.770  13.073   6.528  0.1028  0.1323 -0.0817
59620W        W 2537   0.656  16.225   6.009 -0.2667  0.1618  0.2221
59621W        W 2538  34.178  11.476   4.324  0.0058  0.0926  0.1021
59622W        W 2539   5.270  12.828   3.840 -0.0302  0.1225  0.3020
59623W        W 2540   1.147  13.346   6.230  0.1197  0.0654  0.0668
59624W        W 2541   3.390  13.664   3.935  0.1687  0.3335 -0.0410
59625W        W 2542   3.839  10.274   5.200  0.0491  0.0645 -0.0737
59626W        W 2543   2.360  13.459   4.888 -0.2331  0.0482  0.5328
59627W        W 2544   0.690  12.321   6.786  0.1517  0.0953 -0.1312
59628W        W 2545   0.167  13.470   7.753 -0.0529  0.0594  0.0146
59629W        W 2546   5.267  11.479   6.955 -0.0176  0.0570 -0.2721
59630W        W 2547   0.581  11.721   5.918 -0.0145  0.1725 -0.0741
59631W        W 2548   3.096  10.824   4.629  0.2075 -0.3184  0.1501
59632W        W 2549   2.572  14.556   6.117  0.0907 -0.1539  0.0763
59633W        W 2550   0.816  13.429   4.896 -0.1598  0.2302  0.1440
59634W        W 2551   2.874  10.396   4.918 -0.0154 -0.4156 -0.1230
59635W        W 2552   2.910  12.332   5.511  0.1024  0.1909 -0.4589
59636W        W 2553   4.811  13.956   5.798  0.0826 -0.2926  0.2903
59637W        W 2554   3.789  12.991   5.692  0.1472 -0.0065  0.0423
59638W        W 2555   2.343  10.238   4.232 -0.0701  0.1160 -0.0786
59639W        W 2556   4.131  12.266   3.080  0.0349  0.0866  0.1840
59640W        W 2557   2.745  15.677   4.872  0.0821 -0.5118 -0.0046
59641W        W 2558   3.684  14.889   6.250  0.0508 -0.2651 -0.1556
59642W        W 2559   2.994  14.370   6.230 -0.0965  0.0042  0.0493
59643W        W 2560   4.470  14.980   8.152  0.0331 -0.3594  0.1613
59644W        W 2561   0.564  10.939   5.557  0.3369  0.1921 -0.1554
59645W        W 2562  34.134  12.296   4.908 -0.2116  0.2094  0.1565
59646W        W 2563   0.596  14.458   5.571 -0.4674  0.2620  0.1129
59647W        W 2564   2.549  12.557   6.374 -0.1232  0.2008  0.1605
59648W        W 2565   1.223  11.885   4.741 -0.0758  0.0027 -0.0391
59649W        W 2566   2.208  10.670   6.096  0.1244  0.0562 -0.0149
59650W        W 2567  34.664  14.753   6.515  0.0870  0.1076  0.1204
59651W        W 2568   1.224  15.216   5.265  0.2338  0.2482  0.1286
59652W        W 2569  33.869  13.598   7.393 -0.1439 -0.1103 -0.3274
59653W        W 2570  34.625  10.401   7.571  0.0201  0.2986  0.0955
59654W        W 2571   3.775  10.007   5.695 -0.1961  0.0840  0.3971
59655W        W 2572   5.348  12.455   7.598 -0.1148 -0.0747 -0.1762
59656W        W 2573   0.790  12.051   7.229 -0.3525  0.2237 -0.0351
59657W        W 2574   3.671  14.641   7.956 -0.0160  0.2513  0.0918
59658W        W 2575   2.873  10.680   8.592  0.1307 -0.1204  0.3777
59659W        W 2576   2.784   9.324  12.832 -0.0225  0.3740 -0.0711
59660W        W 2577   2.873  12.833   6.635  0.2493  0.0787 -0.4355
59661W        W 2578   1.446  12.790   8.313 -0.1319 -0.2482  0.1489
59662W        W 2579   1.909   9.787   7.109 -0.5464 -0.0054 -0.0346
59663W        W 2580  34.592  10.645   8.294 -0.0785  0.1536 -0.0643
59664W        W 2581   2.831  13.698   9.554  0.0132  0.4078  0.0818
59665W        W 2582   1.214  12.078   7.532  0.2758  0.2228  0.0667
59666W        W 2583   3.529  10.458   9.115  0.4783  0.1423  0.1536
59667W        W 2584   1.277   9.877   7.345  0.0199 -0.1972 -0.1006
59668W        W 2585   2.245  13.222   8.711  0.0642 -0.0988 -0.1823
59669W        W 2586   0.340  10.756   9.352 -0.1331  0.2410  0.2225
59670W        W 2587   2.197  13.162   7.417 -0.1528 -0.2789  0.0305
59671W        W 2588   0.027  12.631   5.708 -0.0102  0.2731  0.0180
59672W        W 2589   1.988  11.766   8.150 -0.0728  0.2306  0.0091
59673W        W 2590   0.229  10.641   8.790  0.1069 -0.2544  0.1070
59674W        W 2591   2.119  10.109   8.184 -0.1157 -0.2123  0.1586
59675W        W 2592   4.062  13.019   7.172  0.0850 -0.0150  0.0247
59676W        W 2593  34.563  11.292   7.875  0.2333 -0.0601  0.0710
59677W        W 2594   2.621  15.197   8.584  0.0446  0.1106 -0.0467
59678W        W 2595   2.701  12.781   9.702 -0.2641 -0.1201  0.1040
59679W        W 2596  33.237  14.205   8.389 -0.1206  0.1403 -0.0218
59680W        W 2597   2.061  14.063   7.834 -0.0819  0.2020 -0.0266
59681W        W 2598   4.513  13.505   7.085  0.2597 -0.0747  0.0735
59682W        W 2599   0.737  12.919   8.539  0.1714  0.0240 -0.1672
59683W        W 2600   0.115  13.277   8.218 -0.0664  0.2442  0.0943
59684W        W 2601   2.346  12.463   5.960 -0.1683 -0.3555  0.2054
59685W        W 2602   1.929  13.312   6.559 -0.2680  0.0654  0.0205
59686W        W 2603   1.594  11.186   8.916 -0.0085 -0.0597 -0.1644
59687W        W 2604   0.812  12.787   7.018 -0.1243  0.0586 -0.1796
59688W        W 2605   1.377  14.156   6.951  0.0777 -0.1497 -0.2108
59689W        W 2606   4.820  11.695   6.879 -0.0556  0.0117 -0.0742
59690W        W 2607   3.636  10.830   7.900  0.0839 -0.0228  0.0144
59691W        W 2608   3.078  10.015   9.334  0.0301 -0.2303 -0.1966
59692W        W 2609   3.408  10.943   9.025 -0.2226  0.1025  0.2050
59693W        W 2610   0.630  13.138   9.437  0.0503 -0.0407 -0.1054
59694W        W 2611   1.023  11.663   8.604 -0.2034  0.0830 -0.0691
59695W        W 2612   1.259  11.064   8.070 -0.1431  0.2087 -0.4491
59696W        W 2613   0.452  10.729   8.248 -0.3471 -0.1645 -0.1877
59697W        W 2614  33.043  14.379   7.498  0.0366  0.0412  0.1037
59698W        W 2615   0.447  12.489   8.042  0.0992  0.2327  0.1490
59699W        W 2616   2.877  14.608   6.730  0.1418  0.2356  0.2145
59700W        W 2617   3.790  12.498   9.777  0.3662  0.2408  0.4600
59701W        W 2618   1.517  14.069   8.515 -0.1765 -0.1798 -0.3554
59702W        W 2619  33.893  10.819   8.769  0.1632 -0.2982  0.1427
59703W        W 2620   1.418  11.150   7.202 -0.3015 -0.0320 -0.0438
59704W        W 2621   6.937  10.246   9.301 -0.2970 -0.0132  0.0041
59705W        W 2622   2.145  11.058   8.806 -0.1181  0.2246 -0.3132
59706W        W 2623   2.802  14.693   8.460 -0.1659 -0.2177  0.1935
59707W        W 2624   4.618  13.863   6.705  0.2180  0.0342 -0.2079
59708W        W 2625   3.515  12.116   9.496 -0.0080  0.2771 -0.1597
59709W        W 2626   4.558  12.134   7.920 -0.0428  0.0304 -0.2075
59710W        W 2627   2.354  13.569   7.817 -0.1186  0.0270  0.1861
59711W        W 2628  34.604  11.864   7.772 -0.1990 -0.1863 -0.2092
59712W        W 2629   5.132  12.486   9.434  0.2255  0.0796 -0.2063
59713W        W 2630   1.359  13.258   4.239  0.0682  0.2286 -0.2300
59714W        W 2631  33.813  14.931   8.145 -0.0903 -0.0836 -0.3483
59715W        W 2632   1.881  13.747   6.340 -0.1110 -0.0247 -0.3703
59716W        W 2633  34.416  13.139   8.492  0.1345 -0.0935  0.0421
59717W        W 2634   2.289  12.575   8.074  0.0526  0.0668  0.1226
59718W        W 2635  33.339  11.337   8.270  0.0144 -0.1586 -0.2746
59719W        W 2636   2.425  12.064   7.967  0.0070  0.0457 -0.0751
59720W        W 2637   3.573  11.643   9.553 -0.2848  0.0362 -0.4380
59721W        W 2638   2.458  10.698   8.897  0.1704 -0.2360 -0.1812
59722W        W 2639   2.463  13.084   7.912  0.0870  0.1312 -0.0177
59723W        W 2640   2.682  14.800   7.891 -0.0310  0.2754 -0.2012
59724W        W 2641   4.402  11.645   7.183 -0.0524 -0.2010 -0.0172
59725W        W 2642   2.579  13.501   7.359 -0.3519 -0.1823  0.1490
59726W        W 2643   0.490  10.268   8.436  0.0808 -0.0624  0.2864
59727W        W 2644  34.129   8.995   9.885  0.1032  0.0075  0.0659
59728W        W 2645  34.245  10.981   9.097  0.1260 -0.1213 -0.2003
59729W        W 2646   1.484  10.327   7.430  0.1744  0.0712 -0.1404
59730W        W 2647   3.076  11.535   7.397  0.1292  0.1423 -0.1514
59731W        W 2648   2.728  12.365   8.900 -0.1364 -0.0714 -0.1565
59732W        W 2649  33.775  11.855   7.654 -0.0164 -0.0921  0.2439
59733W        W 2650   2.195  13.592   9.562 -0.0505 -0.3379  0.0991
59734W        W 2651   2.571  13.329   9.785 -0.0258 -0.2284 -0.0436
59735W        W 2652   1.236  12.068   9.379 -0.3876 -0.1237 -0.0025
59736W        W 2653   3.878  12.417   9.317  0.2577 -0.1211  0.1092
59737W        W 2654   2.710  11.767   7.691  0.0097  0.2977 -0.2341
59738W        W 2655   1.290  13.589   8.507  0.3919  0.1066  0.2011
59739W        W 2656  33.418  11.758   8.059 -0.0494 -0.3074 -0.0971
59740W        W 2657   3.238  11.746   7.871 -0.1573  0.1113  0.0379
59741W        W 2658   3.206  14.585   8.785 -0.2686  0.0873 -0.3455
59742W        W 2659   3.657  13.323   7.091 -0.1652 -0.0670 -0.0706
59743W        W 2660   6.490  10.870   8.125  0.1718  0.2598  0.0525
59744W        W 2661   2.130  13.306   8.201 -0.0506  0.0698 -0.0867
59745W        W 2662   0.830   9.669   7.289  0.0576 -0.2049  0.0918
59746W        W 2663   3.381  14.047   6.499 -0.0163  0.1688 -0.2915
59747W        W 2664   0.564  13.347   7.439  0.2047  0.0989  0.1068
59748W        W 2665   1.776  11.865   7.298 -0.2819  0.2107 -0.1752
59749W        W 2666   3.318  11.262   7.768 -0.0816 -0.0473 -0.2395
59750W        W 2667   2.852  10.519   9.255  0.2351  0.0361  0.1367
59751W        W 2668   0.341  12.870   6.673  0.1430  0.0091  0.1784
59752W        W 2669   2.436  10.053   7.178 -0.1331  0.0652 -0.1867
59753W        W 2670   2.939  11.891   8.716  0.1180  0.1778  0.4307
59754W        W 2671   3.272  13.015   5.899  0.0297  0.0398  0.1189
59755W        W 2672   2.931  12.230   7.860 -0.0259 -0.0536 -0.3803
59756W        W 2673   2.867  12.745   7.917  0.0000  0.0886  0.0732
59757W        W 2674   1.620  13.240   8.190 -0.0005 -0.0652  0.0776
59758W        W 2675   0.647  13.577   7.902  0.4106  0.1266  0.1957
59759W        W 2676   2.023  11.227   8.237 -0.0021  0.3976 -0.0111
59760W        W 2677   4.443  13.131   7.517  0.1009 -0.2367  0.3864
59761W        W 2678  33.208  12.576   6.880  0.3743  0.1674 -0.1785
59762W        W 2679   1.643   6.033  12.117  0.1750  0.0326 -0.2151
59763W        W 2680  34.505   9.707   7.293 -0.1782 -0.5791  0.0859
59764W        W 2681   2.007  12.177   6.840  0.2848 -0.1675 -0.1956
59765W        W 2682   0.815  12.301   7.770  0.1809 -0.0693 -0.1124
59766W        W 2683   0.537  13.088   8.058  0.0135 -0.0625 -0.3281
59767W        W 2684   3.363  12.654   8.235 -0.2064 -0.0702  0.2621
59768W        W 2685   0.128  11.668   8.226 -0.3888 -0.1974 -0.1553
59769W        W 2686   4.261  12.989   8.660 -0.0810  0.0429  0.0904
59770W        W 2687   3.261  14.020   9.275 -0.1339 -0.1505 -0.1626
59771W        W 2688   1.562  11.506   6.063  0.0990  0.0311  0.0470
59772W        W 2689  33.948  10.535  13.260  0.2523 -0.1758 -0.0462
59773W        W 2690   1.367  12.342   8.451  0.1694 -0.2373  0.0692
59774W        W 2691   4.085  13.407   7.842 -0.0984  0.0794  0.1181
59775W        W 2692   1.901  10.598   6.969  0.0560 -0.1300  0.3313
59776W        W 2693   1.932  13.784   5.880 -0.1482 -0.3138  0.1196
59777W        W 2694   2.135  11.745   7.662  0.0211 -0.2022 -0.1054
59778W        W 2695   0.567  10.861   9.784 -0.1224  0.0487 -0.2342
59779W        W 2696   1.971  12.838   8.945  0.1624  0.3922  0.0724
59780W        W 2697   1.896  13.575   7.267  0.2501 -0.0759  0.1039
59781W        W 2698   4.868  13.071   7.777  0.0941 -0.2158  0.3178
59782W        W 2699   2.602  12.939   8.425 -0.1182  0.3299 -0.0111
59783W        W 2700   2.609  12.362   7.457  0.0390 -0.0697  0.0050
59784W        W 2701  32.891  14.452   7.977 -0.0602 -0.4092 -0.2975
59785W        W 2702   2.039  12.515   7.219  0.2361  0.1110 -0.0033
59786W        W 2703   1.853  11.488   8.581  0.0509  0.2150 -0.3425
59787W        W 2704   2.473  11.549   8.115  0.0866  0.3060 -0.0364
59788W        W 2705   2.760  14.086   8.295 -0.2406  0.2638 -0.0067
59789W        W 2706   0.622  12.427   9.345  0.1600 -0.1582  0.2111
59790W        W 2707   1.468  10.339   9.687 -0.0468  0.1633 -0.2687
59791W        W 2708  33.297  13.678   8.178  0.1490  0.0298 -0.0245
59792W        W 2709   1.390  11.305   8.488 -0.0433 -0.3302 -0.4069
59793W        W 2710   1.752  10.346   7.803  0.0794  0.0009 -0.1244
59794W        W 2711   1.213  10.641   7.738  0.1090  0.3252  0.0303
59795W        W 2712   2.374  11.582   8.649 -0.1132 -0.2506 -0.0864
59796W        W 2713  33.993  13.011   8.770  0.1272 -0.1194 -0.2258
59797W        W 2714   1.161  13.148   9.301  0.2513  0.2694 -0.2126
59798W        W 2715   0.837  11.125   8.387  0.4056 -0.0190 -0.3226
59799W        W 2716   2.487  11.809   9.490  0.1814 -0.3092 -0.0706
59800W        W 2717   3.366  10.676   8.598  0.3106  0.0162 -0.0990
59801W        W 2718   1.470  10.721   7.092  0.1628  0.0169 -0.1062
59802W        W 2719   0.527  10.070   7.598 -0.1710  0.0932  0.2948
59803W        W 2720   3.511  11.105   8.321  0.0336  0.0787 -0.1063
59804W        W 2721   2.834  11.843   8.207  0.2316  0.3310  0.0182
59805W        W 2722   2.000  10.290   7.333 -0.1059 -0.1325 -0.1138
59806W        W 2723   1.308   9.949   8.805 -0.0013  0.2584 -0.2030
59807W        W 2724   2.806  15.330   9.034 -0.0030 -0.1124 -0.2661
59808W        W 2725   2.087  12.582   6.667 -0.1113 -0.2773  0.0749
59809W        W 2726   0.444  12.492   7.236  0.0962  0.1659 -0.3584
59810W        W 2727   2.426   9.610   9.790  0.0737  0.0189 -0.1496
59811W        W 2728   5.073  10.096   9.361 -0.2934 -0.0644 -0.1192
59812W        W 2729   2.847  11.036   9.051 -0.3367 -0.0640 -0.1196
59813W        W 2730   2.712  12.913  10.163  0.3220  0.2791  0.2926
59814W        W 2731  34.339   9.631   8.630  0.1621 -0.0205 -0.2987
59815W        W 2732   2.510  10.364   8.380  0.0270 -0.1673 -0.0764
59816W        W 2733   2.752  13.868   7.832  0.1472  0.1829 -0.1969
59817W        W 2734   3.467  12.712   6.345 -0.0621 -0.0229 -0.0967
59818W        W 2735   3.577  12.719   8.670 -0.1765 -0.3220  0.2978
59819W        W 2736   0.419  11.080   8.912 -0.1908  0.2229 -0.0831
59820W        W 2737   3.800  13.762   8.135 -0.1376  0.1871  0.0358
59821W        W 2738   2.231   9.438   8.951 -0.2803 -0.0409 -0.0217
59822W        W 2739  33.507   9.985   7.786 -0.0674  0.1533 -0.1127
59823W        W 2740   1.759  10.887   8.473  0.2201  0.2109  0.0798
59824W        W 2741   1.818  12.778   7.912  0.2479 -0.1949 -0.2342
59825W        W 2742   3.708  13.441   5.321 -0.1149  0.1485  0.0676
59826W        W 2743   6.937  13.719   8.929  0.2616 -0.0453  0.2952
59827W        W 2744   0.354  11.908   8.747 -0.3028 -0.4174  0.2817
59828W        W 2745   2.981  12.768   8.723  0.1120 -0.1238 -0.0649
59829W        W 2746   2.198  14.097   6.108 -0.0199 -0.1367 -0.2442
59830W        W 2747   2.191  12.321   8.993 -0.0797  0.0161 -0.1922
59831W        W 2748  34.075  11.617   9.678 -0.0351 -0.1375  0.0315
59832W        W 2749   3.970   8.606   8.291 -0.2362 -0.0434  0.0705
59833W        W 2750   3.296  13.593   8.503  0.0401 -0.1999  0.0439
59834W        W 2751   3.676  12.676   7.746 -0.3989 -0.1736  0.3552
59835W        W 2752   1.849  10.722   8.991  0.0792 -0.1252 -0.0381
59836W        W 2753   3.899  10.861   8.374 -0.4418  0.0262  0.0428
59837W        W 2754   2.208  12.054   6.351  0.2654  0.3481  0.0632
59838W        W 2755  34.574  10.462   9.256 -0.2618 -0.1016 -0.2195
59839W        W 2756   1.005  11.398   5.940 -0.2019  0.0169 -0.3150
59840W        W 2757   1.776  14.530   6.756  0.0858  0.1174  0.1486
59841W        W 2758   2.290  14.711   9.806 -0.0321  0.5558  0.0573
59842W        W 2759   4.351  13.231   6.664  0.0146 -0.0612  0.0413
59843W        W 2760   1.138  12.724   7.441  0.0719  0.1786 -0.0715
59844W        W 2761   0.573   9.275   6.008 -0.0118 -0.1797  0.2967
59845W        W 2762   3.035  11.267   8.191  0.2248 -0.0233 -0.3150
59846W        W 2763   1.917  11.975   8.662  0.1350 -0.0793  0.2530
59847W        W 2764   3.006  10.327   8.334 -0.0981 -0.0521 -0.0445
59848W        W 2765   1.563  15.879   6.753 -0.0544 -0.2545  0.1361
59849W        W 2766   1.700  10.590   6.032 -0.3527 -0.0134 -0.0296
59850W        W 2767   0.040  13.517   8.743  0.1686 -0.0708  0.3971
59851W        W 2768  34.357  12.087   9.479  0.3223  0.1848 -0.2025
59852W        W 2769   2.531  10.934   7.459  0.1005 -0.0896 -0.0023
59853W        W 2770   2.844  12.234   9.698 -0.0848  0.0007 -0.1120
59854W        W 2771  33.103  12.763   9.135 -0.0782  0.0946 -0.3662
59855W        W 2772   3.607  11.832   8.633 -0.2419  0.0982 -0.2013
59856W        W 2773   2.987  11.959   6.677  0.6086  0.0868 -0.2065
59857W        W 2774  33.535  12.872   8.781  0.0766  0.1427 -0.0237
59858W        W 2775   2.543  13.657   8.672 -0.0623 -0.3806  0.3992
59859W        W 2776   1.125  13.195   8.281  0.0342 -0.0229  0.0959
59860W        W 2777   2.128  14.548   6.384 -0.1221 -0.1552 -0.0390
59861W        W 2778   0.854  10.824   9.114  0.0289 -0.1054 -0.2645
59862W        W 2779   0.378  13.842   6.827  0.1280  0.1260  0.1619
59863W        W 2780   5.686  15.136   9.347 -0.1623 -0.0698  0.0333
59864W        W 2781   1.790  12.467   8.637  0.2536 -0.4126  0.0732
59865W        W 2782   3.877  13.467   9.403  0.0508  0.3121 -0.0323
59866W        W 2783   1.891  13.316   7.736  0.0920  0.0857 -0.0195
59867W        W 2784   0.204  12.958   7.713 -0.2849  0.0431  0.1065
59868W        W 2785  34.581  12.530   5.228  0.0594 -0.1746 -0.2471
59869W        W 2786   1.414  14.596   7.182  0.2405  0.1217 -0.0911
59870W        W 2787   0.789  14.732   6.437  0.0094  0.0594 -0.0880
59871W        W 2788   2.865  11.141   6.517  0.3074 -0.2308 -0.1557
59872W        W 2789   3.055  12.191   9.255 -0.3384 -0.0975  0.3483
59873W        W 2790   3.936  12.789   8.282 -0.0768  0.0478 -0.0923
59874W        W 2791   1.168  14.520   9.284 -0.1391  0.1521 -0.2682
59875W        W 2792   1.967  10.969   7.256  0.2346  0.0312  0.0176
59876W        W 2793   3.772  16.561  10.256  0.2245  0.0737 -0.1914
59877W        W 2794  33.789  14.068   7.584 -0.0529  0.1428  0.0566
59878W        W 2795   2.546  10.856   7.958  0.1291 -0.0830 -0.0999
59879W        W 2796   1.269  10.138   8.004  0.0510 -0.2671 -0.1449
59880W        W 2797   2.223  13.520   6.927  0.0147 -0.1497 -0.0720
59881W        W 2798   5.659  11.335   9.365  0.2565  0.0404  0.0744
59882W        W 2799   1.974  12.899   8.457  0.0027  0.1945 -0.0911
59883W        W 2800   1.644  13.245   9.482  0.0380 -0.2538  0.1450
59884W        W 2801   1.073  14.077   7.931 -0.1604  0.1487 -0.0091
59885W        W 2802   0.698  12.594   6.325  0.1623 -0.0614  0.3194
59886W        W 2803   2.556  14.595   9.406 -0.0529 -0.1949  0.0458
59887W        W 2804   0.315  12.025   9.592 -0.1550 -0.0694  0.0581
59888W        W 2805   1.498  11.886   8.278 -0.1681 -0.0394 -0.0011
59889W        W 2806   3.892  10.903   9.170 -0.2117  0.1911 -0.2167
59890W        W 2807   1.919  13.577   8.555  0.4730 -0.0746 -0.0745
59891W        W 2808   0.575  11.504   8.535  0.1498 -0.0988 -0.2930
59892W        W 2809   2.514  12.250   6.800 -0.2138 -0.0070 -0.0139
59893W        W 2810   1.835  11.396   7.491 -0.0723 -0.0998  0.1206
59894W        W 2811   3.147   9.416   9.103 -0.1799 -0.0136 -0.2312
59895W        W 2812   4.147  11.967   8.829  0.1276 -0.5044 -0.1741
59896W        W 2813  34.197  11.765   8.047  0.1374 -0.0489 -0.0792
59897W        W 2814   3.103  13.073   9.770  0.0173  0.0520 -0.0786
59898W        W 2815   0.364  10.576   7.317  0.1337  0.0764  0.2715
59899W        W 2816   5.015  11.820   5.212  0.1590  0.0307 -0.0712
59900W        W 2817   1.360  10.816   9.118  0.0944  0.1741 -0.0475
59901W        W 2818   2.970  15.421   6.008  0.1900 -0.0072 -0.1434
59902W        W 2819   0.193  12.216   8.365 -0.0070 -0.4262 -0.0777
59903W        W 2820   3.668  15.213   8.597  0.0425  0.2769 -0.0539
59904W        W 2821   0.118  12.234   9.201 -0.1026 -0.1052  0.0868
59905W        W 2822   2.074  14.303   9.423  0.1491 -0.0117  0.2626
59906W        W 2823   6.259  12.974   8.195 -0.0806 -0.1934 -0.0287
59907W        W 2824   0.906   9.704   9.098 -0.1151  0.0393 -0.1832
59908W        W 2825   5.207  10.629   9.541  0.1537  0.0759 -0.1471
59909W        W 2826   2.069  14.776   8.090  0.1266 -0.0758  0.1621
59910W        W 2827   6.593  12.900   8.707 -0.1680  0.2478 -0.1238
59911W        W 2828   1.182  14.338   6.312 -0.1853 -0.0459  0.1792
59912W        W 2829   1.485  11.743   8.782  0.0133  0.1098  0.1345
59913W        W 2830   1.228  12.268   6.328  0.1864 -0.1229  0.0675
59914W        W 2831   2.759  13.244   8.763  0.1495  0.2105  0.0610
59915W        W 2832   2.830  13.440   8.249 -0.7042 -0.1139  0.3415
59916W        W 2833   2.505  12.841   8.989  0.1134  0.1897 -0.2403
59917W        W 2834   2.450  11.933   8.999  0.0186 -0.0001 -0.1815
59918W        W 2835   4.946  12.048   9.338 -0.2255  0.2345  0.2361
59919W        W 2836   0.971   9.720   6.446 -0.2463  0.1802  0.1149
59920W        W 2837   2.795  12.359   8.381  0.2049 -0.2280  0.0831
59921W        W 2838   2.086   9.306   7.750  0.0530  0.0373 -0.1233
59922W        W 2839   0.554  11.299   9.460 -0.2740 -0.0571 -0.1411
59923W        W 2840  34.098  12.766   6.384  0.1896 -0.1675  0.1457
59924W        W 2841   2.023  12.931   6.993 -0.0505 -0.0615  0.2450
59925W        W 2842   0.061  11.390   8.787  0.0090  0.1148  0.1042
59926W        W 2843  30.417  13.090   9.484 -0.3009  0.0561  0.1892
59927W        W 2844   0.168  10.072   7.260  0.2168  0.1100  0.2220
59928W        W 2845   3.594  13.125   8.397  0.0887 -0.0113  0.4008
59929W        W 2846   0.202  11.714   9.200 -0.2619 -0.2276  0.0170
59930W        W 2847   0.663   8.385   7.206  0.0104  0.0620 -0.2707
59931W        W 2848   3.476  12.630   9.145  0.4442 -0.0944 -0.1180
59932W        W 2849   4.201  13.902   7.808  0.0573 -0.1732  0.2145
59933W        W 2850   1.069  11.540   8.142  0.0017 -0.1430  0.3240
59934W        W 2851  33.771  15.744   7.088  0.0943 -0.2248 -0.2365
59935W        W 2852   1.606  11.387   8.038  0.0982  0.0577 -0.0044
59936W        W 2853   2.003   9.942   7.645 -0.0834  0.0334  0.0609
59937W        W 2854   2.247  13.012   9.394  0.0314 -0.1290 -0.2101
59938W        W 2855   3.215  13.296   7.331 -0.1114 -0.2935 -0.0588
59939W        W 2856   1.030   8.911   8.297  0.0408 -0.1790 -0.0645
59940W        W 2857   3.617  13.267   6.146 -0.0074 -0.0322 -0.1667
59941W        W 2858   4.141  15.201   8.576  0.0873  0.3448  0.1574
59942W        W 2859   4.717  10.512   9.350  0.0745 -0.0354  0.0350
59943W        W 2860   2.941  13.299   7.747  0.0256 -0.0995  0.0165
59944W        W 2861   4.566  12.294   8.909 -0.0567 -0.1511 -0.1617
59945W        W 2862   1.001   9.710   9.883  0.1912 -0.2020  0.0385
59946W        W 2863   3.314  12.968   7.892  0.1267  0.2528  0.0066
59947W        W 2864   4.518  12.051   6.833  0.0555 -0.0274 -0.0402
59948W        W 2865  34.318  10.561   8.855  0.1860  0.1287 -0.4728
59949W        W 2866   2.639  10.285   9.636 -0.3836 -0.0071  0.0515
59950W        W 2867   2.505  12.411   9.369 -0.0900  0.3138 -0.0691
59951W        W 2868   3.130  13.083   8.306  0.2114  0.3329  0.1431
59952W        W 2869   4.591  12.086   5.979 -0.3111  0.1121 -0.0380
59953W        W 2870   1.424  16.081   8.799  0.1255 -0.2172  0.1921
59954W        W 2871   4.359  15.897   9.755  0.0047  0.0683  0.4624
59955W        W 2872   2.201  11.210   7.779  0.0029 -0.0067  0.2834
59956W        W 2873   0.591   9.199   7.139 -0.1032  0.1368 -0.1204
59957W        W 2874   0.721  10.715   8.666  0.2961 -0.1238  0.1290
59958W        W 2875  34.507  12.799   8.078  0.1566  0.0548 -0.0565
59959W        W 2876   1.067  10.633   9.557 -0.0809  0.0471 -0.1138
59960W        W 2877   0.642   9.532   8.693  0.0088  0.0871  0.2497
59961W        W 2878   3.260  10.679   6.119  0.0473 -0.0457 -0.0030
59962W        W 2879   1.580  16.032   9.377 -0.0161 -0.1598  0.0687
59963W        W 2880   2.346  12.584   8.613 -0.1624  0.1847 -0.3271
59964W        W 2881   0.887  19.702   0.645 -0.1265  0.0774  0.2199
59965W        W 2882   3.054  15.168   1.489 -0.0360 -0.2119 -0.2074
59966W        W 2883   2.571  15.942   0.301 -0.0806 -0.2359 -0.0872
59967W        W 2884   3.738  16.071  31.541  0.1319 -0.0256 -0.0722
59968W        W 2885  34.389  16.117   1.526 -0.0720 -0.2007 -0.1928
59969W        W 2886   2.936  17.451   1.387 -0.1354  0.0055  0.1195
59970W        W 2887   1.546  12.962   4.701  0.1649 -0.1763 -0.0452
59971W        W 2888   3.652  15.076   3.153 -0.3783 -0.0310  0.1466
59972W        W 2889   4.013  17.930   2.744 -0.0594 -0.3853 -0.1368
59973W        W 2890   2.062  18.564  30.869 -0.0198 -0.2132 -0.0278
59974W        W 2891   2.315  16.102   1.689 -0.2211 -0.1132 -0.0742
59975W        W 2892   2.714  17.446   1.834  0.2204 -0.3043 -0.0691
59976W        W 2893   1.951  15.012   1.835 -0.0235  0.0683  0.0667
59977W        W 2894  34.483  13.470   1.496  0.0525  0.0631 -0.0252
59978W        W 2895   2.771  16.241   3.112  0.2988  0.0057 -0.0594
59979W        W 2896   0.549  17.558   0.936  0.1326 -0.1760 -0.1533
59980W        W 2897   0.329  15.244   2.291 -0.3137  0.2902  0.0021
59981W        W 2898   3.598  13.311  31.342  0.0141  0.0185  0.0407
59982W        W 2899   1.054  20.058  29.647  0.1873 -0.0243 -0.1529
59983W        W 2900   1.601  14.155   3.454  0.3440  0.0278  0.3986
59984W        W 2901   1.959  16.612  30.915  0.1095  0.1228  0.0972
59985W        W 2902   1.264  16.826   1.830  0.0240 -0.0761  0.1848
59986W        W 2903   1.997  17.537   2.144 -0.0516 -0.0430 -0.1581
59987W        W 2904   2.369  16.686   2.162  0.0546 -0.1367 -0.3835
59988W        W 2905   1.997  14.404   1.805 -0.0389  0.0796  0.2564
59989W        W 2906   2.729  15.919   2.481  0.2626 -0.0228  0.1710
59990W        W 2907   0.660  18.442   0.462 -0.0636  0.0644 -0.0831
59991W        W 2908   4.007  16.909   3.189 -0.1146  0.0013 -0.2018
59992W        W 2909   1.407  17.099   4.187 -0.2561 -0.0371 -0.0366
59993W        W 2910   0.852  16.361   0.981 -0.1962 -0.0721 -0.0052
59994W        W 2911  33.584  18.387   0.497  0.0279 -0.1786  0.0267
59995W        W 2912   3.215  18.605   1.119 -0.2833 -0.0612 -0.0769
59996W        W 2913   4.726  15.756   1.839 -0.3049  0.1066 -0.3099
59997W        W 2914   5.923  17.915   4.046 -0.4690 -0.2242  0.0119
59998W        W 2915   2.107  17.874   2.980 -0.2728 -0.0991  0.0148
59999W        W 2916  34.184  16.507  31.176  0.1416  0.1473  0.2604
60000W        W 2917   2.927  16.958   1.982 -0.0185 -0.1728  0.0361
60001W        W 2918   1.405  17.655   2.537  0.0921 -0.2548 -0.1581
60002W        W 2919   3.296  17.349   1.678  0.0790  0.3549  0.0606
60003W        W 2920   1.825  17.400   2.583  0.2046 -0.0605  0.0783
60004W        W 2921   1.408  17.820   0.014  0.2586  0.2676 -0.0069
60005W        W 2922   2.333  16.171   2.240 -0.0396 -0.1401  0.0286
60006W        W 2923   1.864  17.216   1.349 -0.1895  0.1296  0.0229
60007W        W 2924   0.437  15.858   2.662 -0.1558 -0.1325 -0.1343
60008W        W 2925   2.507  14.419   3.392 -0.1387 -0.0924 -0.2684
60009W        W 2926   1.893  19.283  29.865 -0.1372  0.1629 -0.0190
60010W        W 2927   5.220  17.149   0.355  0.0015 -0.0255 -0.1693
60011W        W 2928   2.121  16.201  30.138  0.0095 -0.1144 -0.0268
60012W        W 2929   2.650  15.880   1.972  0.2483  0.0763  0.1383
60013W        W 2930   4.583  12.982   2.820 -0.0191 -0.0530  0.0675
60014W        W 2931   0.259  18.540   0.788  0.0443  0.0496 -0.2786
60015W        W 2932   2.827  13.766   0.961 -0.0377 -0.0760  0.1115
60016W        W 2933   4.128  15.858   3.105 -0.0026 -0.1618 -0.2072
60017W        W 2934   0.751  16.516   1.777  0.0815  0.1691 -0.3125
60018W        W 2935   3.185  14.730   2.187  0.0680  0.0666 -0.0761
60019W        W 2936   0.851  17.650   2.328 -0.3545  0.1402 -0.1233
60020W        W 2937   1.087  15.431   1.435 -0.0497  0.1451  0.0992
60021W        W 2938   1.876  18.296   0.579 -0.1358 -0.3701 -0.1215
60022W        W 2939   3.776  19.626   2.265 -0.4329  0.0685  0.0065
60023W        W 2940   3.349  18.926  31.598 -0.0874  0.0348  0.0707
60024W        W 2941  34.384  16.422  31.617 -0.2714  0.0206  0.0502
60025W        W 2942  34.635  16.399   1.187 -0.0636 -0.0333 -0.1951
60026W        W 2943   1.201  17.703   3.589  0.1087  0.0424 -0.0323
60027W        W 2944   1.194  15.711   0.326  0.1617 -0.2038 -0.0440
60028W        W 2945   3.702  17.056   2.382  0.0307 -0.0985 -0.0171
60029W        W 2946   2.550  17.766   3.888 -0.2031  0.1974 -0.3276
60030W        W 2947   5.034  17.924   2.360  0.0624 -0.0943 -0.0828
60031W        W 2948   1.830  16.177   3.432  0.1728  0.3936 -0.2193
60032W        W 2949   2.918  19.178   3.612 -0.1549 -0.0872  0.0170
60033W        W 2950   0.670  16.466  30.292 -0.0190  0.0094  0.0794
60034W        W 2951   3.840  15.451   1.934  0.2607  0.0836  0.0172
60035W        W 2952   2.391  15.444   3.434 -0.0078  0.2421  0.0430
60036W        W 2953   0.144  16.107  30.396  0.0342  0.2053  0.1379
60037W        W 2954   2.207  17.246   0.318  0.0512 -0.1057  0.0498
60038W        W 2955   4.590  17.666   2.199 -0.3350 -0.2785 -0.0826
60039W        W 2956   4.776  17.426  31.955 -0.0408  0.0377  0.3747
60040W        W 2957   0.456  17.358   1.879  0.0342 -0.2682 -0.2167
60041W        W 2958   0.179  16.843   2.607  0.3457  0.2568 -0.0474
60042W        W 2959   3.713  18.083   4.359 -0.1133  0.2716  0.0026
60043W        W 2960   2.022  16.077  31.262 -0.0052  0.0600  0.2647
60044W        W 2961   0.344  18.048   0.683 -0.1776 -0.1401  0.3467
60045W        W 2962   0.067  16.664   0.322 -0.2558  0.4123 -0.0236
60046W        W 2963   0.462  16.172   2.264  0.2917  0.3080  0.1789
60047W        W 2964   1.473  17.260   2.956 -0.1396  0.1026 -0.4186
60048W        W 2965   4.964  17.305  30.738 -0.0912  0.0547 -0.3866
60049W        W 2966   0.858  14.321   4.475  0.0296 -0.0167 -0.1069
60050W        W 2967   2.512  15.207   1.633 -0.1427  0.1259  0.1920
60051W        W 2968   1.048  16.237  31.897 -0.2441  0.1670  0.0114
60052W        W 2969   4.885  17.769  31.584 -0.0343 -0.1475 -0.1224
60053W        W 2970   3.651  13.464  31.817 -0.3094 -0.0511 -0.2617
60054W        W 2971   1.069  19.676   1.113 -0.0484 -0.2525  0.2638
60055W        W 2972   1.265  16.973   0.718 -0.0347  0.1359  0.3086
60056W        W 2973   4.864  15.541   1.373  0.1267  0.3604 -0.2861
60057W        W 2974   2.815  17.460   2.452 -0.1280  0.5274 -0.0823
60058W        W 2975   1.001  16.317   2.377  0.2098  0.0643  0.0796
60059W        W 2976   2.023  16.629   2.514 -0.2614  0.2120  0.0292
60060W        W 2977   0.576  14.649   1.767 -0.1120 -0.0941  0.1350
60061W        W 2978   4.816  14.383   1.149  0.3427  0.1284  0.1605
60062W        W 2979   4.193  18.524   0.030  0.1224  0.1983  0.0127
60063W        W 2980   1.969  16.584   0.982 -0.1546  0.0687 -0.0153
60064W        W 2981   1.414  15.863   2.776  0.2208  0.0594 -0.1972
60065W        W 2982   2.736  18.586   0.958  0.1255  0.0170 -0.0896
60066W        W 2983   4.044  16.974   4.513  0.0318 -0.4901  0.1515
60067W        W 2984   4.161  16.775   2.196 -0.0482  0.0140 -0.1161
60068W        W 2985   1.182  15.961   1.482  0.0125  0.1675 -0.1916
60069W        W 2986   1.352  16.053   0.685  0.2501  0.0996  0.4629
60070W        W 2987  34.126  17.826   2.249  0.1957 -0.1805 -0.0727
60071W        W 2988   2.811  16.897   4.024  0.1770  0.0145  0.0906
60072W        W 2989   1.448  16.777  30.725  0.0031 -0.1557  0.2000
60073W        W 2990   3.726  18.836   2.301 -0.0758 -0.0983 -0.1280
60074W        W 2991   2.463  17.894   1.744 -0.2286  0.1165 -0.0813
60075W        W 2992   2.345  17.155   3.132 -0.2077  0.2934  0.0866
60076W        W 2993   1.479  15.069   4.294  0.0905 -0.1897  0.3487
60077W        W 2994   3.596  17.933   2.315 -0.4508 -0.0412  0.1149
60078W        W 2995   1.730  18.711  31.641  0.0651 -0.0128 -0.0211
60079W        W 2996   2.631  15.118   0.722 -0.2476 -0.1215  0.0410
60080W        W 2997   4.774  18.806   1.227  0.0884  0.2244  0.1412
60081W        W 2998  34.557  17.208  30.598  0.2984  0.1933  0.0421
60082W        W 2999   1.741  17.863   1.005  0.0790 -0.1211 -0.2414
60083W        W 3000   1.068  16.956  31.356  0.0971 -0.0871 -0.1606
60084W        W 3001   5.115  15.966   0.598  0.0494 -0.3933 -0.2801
60085W        W 3002   0.734  15.377   2.779  0.5420  0.0838  0.1014
60086W        W 3003   2.511  14.829   4.591  0.4991  0.2171 -0.0191
60087W        W 3004   0.314  14.997  29.281  0.1273  0.2195 -0.0553
60088W        W 3005   1.712  18.643   3.778  0.0822 -0.1757 -0.0353
60089W        W 3006   3.988  15.912   1.094 -0.2367 -0.2719  0.0740
60090W        W 3007   2.465  16.938   0.791  0.1476  0.0794 -0.0928
60091W        W 3008   3.463  17.517   2.599  0.1245 -0.1934 -0.0944
60092W        W 3009   2.883  16.682   0.684  0.0869 -0.1088 -0.0626
60093W        W 3010   3.794  16.356   0.037  0.0330 -0.0582  0.3052
60094W        W 3011   3.742  12.815  31.495 -0.0845 -0.0849 -0.1832
60095W        W 3012   0.407  15.661   3.115 -0.1657 -0.0377  0.1648
60096W        W 3013   2.308  18.927  31.909 -0.2473  0.1485 -0.1233
60097W        W 3014   3.687  17.094   2.908 -0.1501 -0.2173 -0.3152
60098W        W 3015   3.346  16.512   0.409 -0.2663 -0.0618  0.0476
60099W        W 3016   3.452  17.246   0.631 -0.2319 -0.0936 -0.0211
60100W        W 3017   0.935  17.231   1.989  0.2128  0.0284  0.1458
60101W        W 3018   2.628  16.734   3.028 -0.1132 -0.0730 -0.2609
60102W        W 3019   2.551  17.667   2.944  0.1996  0.0372 -0.1287
60103W        W 3020   1.844  15.268   3.369  0.0883 -0.1584  0.1153
60104W        W 3021   2.809  16.387   2.218  0.0822 -0.0387 -0.0530
60105W        W 3022   2.428  14.698   1.855  0.0114  0.0054 -0.0030
60106W        W 3023   0.802  18.659   0.949  0.0918  0.0127 -0.3171
60107W        W 3024   3.375  15.681   3.293 -0.0301 -0.0124 -0.1442
60108W        W 3025   4.043  13.296   2.366 -0.0729  0.1473 -0.2512
60109W        W 3026   1.609  15.291   2.884 -0.0131  0.0682  0.4402
60110W        W 3027   1.961  15.685   3.600  0.0337  0.1003  0.0541
60111W        W 3028   3.492  18.208   1.243 -0.0740 -0.0626 -0.0557
60112W        W 3029   4.940  18.133   1.106  0.1534 -0.1089 -0.1671
60113W        W 3030   2.190  15.683  31.643 -0.1675 -0.0507 -0.4080
60114W        W 3031   1.846  14.114   2.169  0.0545  0.0833 -0.2572
60115W        W 3032   3.213  15.633   2.436  0.0430 -0.3257 -0.1944
60116W        W 3033   1.142  17.891   1.694 -0.0315 -0.0668 -0.1036
60117W        W 3034   2.378  16.974   2.617 -0.0128 -0.2405 -0.2127
60118W        W 3035   3.601  16.906   1.428 -0.0248  0.1121  0.0369
60119W        W 3036   1.225  16.783   2.966  0.3510  0.3165  0.0953
60120W        W 3037   1.807  13.814   0.343 -0.2182  0.0901 -0.2291
60121W        W 3038   1.122  20.165   1.293 -0.2529 -0.0577  0.0136
60122W        W 3039   2.219  18.070   0.921 -0.0057  0.0046  0.0110
60123W        W 3040   3.022  17.695   0.923  0.0895  0.1029 -0.0145
60124W        W 3041   2.226  16.909   1.200 -0.0145  0.1880  0.1552
60125W        W 3042   0.821  17.199  31.825 -0.0430  0.0701 -0.0381
60126W        W 3043   2.164  14.974   4.081  0.1315  0.1912  0.1528
60127W        W 3044   0.479  17.448  31.453  0.1221  0.1654  0.1581
60128W        W 3045   3.483  14.777   2.660  0.2051 -0.2317 -0.0275
60129W        W 3046   0.638  18.300   1.493 -0.1077  0.1494 -0.0039
60130W        W 3047   1.454  16.238  31.653 -0.0020 -0.1871  0.1535
60131W        W 3048   0.742  15.516   0.286  0.3786 -0.0641 -0.3317
60132W        W 3049   2.237  15.050   3.143  0.0636 -0.0336 -0.1662
60133W        W 3050   5.709  17.572   0.271  0.5122 -0.1831 -0.0383
60134W        W 3051   1.679  15.423   1.762  0.0793 -0.1807  0.1100
60135W        W 3052   3.757  18.255   0.713  0.2445  0.3441  0.1500
60136W        W 3053  34.120  17.332   2.007  0.3081  0.0606 -0.2622
60137W        W 3054   2.322  17.445   2.624 -0.1889  0.1845  0.0888
60138W        W 3055   3.591  14.190  31.268 -0.2494 -0.1914 -0.4329
60139W        W 3056   1.975  17.976   1.930 -0.3752  0.2065 -0.1218
60140W        W 3057   1.900  15.851   4.140  0.2690  0.1929 -0.2426
60141W        W 3058   2.349  13.985   0.278  0.0825 -0.2738  0.0759
60142W        W 3059   3.284  16.189   2.383 -0.0296 -0.0657  0.0872
60143W        W 3060   2.138  16.928   1.799  0.2977  0.0046  0.0802
60144W        W 3061   1.972  17.649   0.560 -0.0811 -0.2808 -0.0595
60145W        W 3062   4.804  17.542   4.311 -0.5565  0.1261  0.2507
60146W        W 3063   1.110  15.955  31.439 -0.1218  0.1989 -0.0638
60147W        W 3064   0.940  17.634  31.473  0.0905 -0.0485  0.1126
60148W        W 3065   1.533  15.744   3.420  0.0062 -0.1987 -0.0440
60149W        W 3066   2.867  17.367   3.931 -0.1033  0.1077  0.0704
60150W        W 3067   1.447  16.587   2.219  0.1199 -0.0970  0.0968
60151W        W 3068   3.530  16.102   1.395  0.0188  0.3641 -0.3152
60152W        W 3069   2.278  15.586   2.369 -0.0294 -0.1239  0.0496
60153W        W 3070   3.033  17.106   3.445  0.0786  0.1028  0.0152
60154W        W 3071   2.040  14.644   2.235 -0.2950  0.2534 -0.1701
60155W        W 3072   1.523  19.119   0.640  0.6222  0.2142 -0.2060
60156W        W 3073   3.839  13.775   1.105 -0.0743  0.2877 -0.0797
60157W        W 3074   2.892  17.929   0.439  0.3488  0.0691  0.0095
60158W        W 3075   2.812  14.384   0.217  0.0861  0.0527  0.1702
60159W        W 3076   0.866  15.491  30.428 -0.0140 -0.0074 -0.2287
60160W        W 3077   0.215  17.192   0.596 -0.0198 -0.1129 -0.4313
60161W        W 3078   0.490  17.753  30.997  0.1809  0.2878  0.0848
60162W        W 3079   2.104  12.816   3.433  0.1817  0.1215  0.1568
60163W        W 3080   0.349  17.455   1.407  0.2019  0.0865 -0.0079
60164W        W 3081  33.322  19.252   1.154  0.1467 -0.0741 -0.2054
60165W        W 3082  33.701  17.628   2.043 -0.1127 -0.3424  0.2387
60166W        W 3083   4.708  15.777   0.891 -0.0677 -0.1875  0.1980
60167W        W 3084   1.962  18.490   0.092 -0.0767  0.0896 -0.0085
60168W        W 3085   1.799  14.809  31.610 -0.3539 -0.1617  0.0818
60169W        W 3086   2.242  14.310   3.939  0.3569 -0.0396  0.2079
60170W        W 3087   4.809  16.890   2.658  0.0597 -0.0439  0.0834
60171W        W 3088   2.389  14.601   5.035 -0.0523  0.1532 -0.0164
60172W        W 3089   1.743  13.511   2.782  0.2469  0.0190 -0.0182
60173W        W 3090   3.325  17.623   0.307  0.1828  0.4188 -0.0583
60174W        W 3091   1.142  16.436   1.488 -0.0481 -0.0965 -0.1831
60175W        W 3092   3.914  18.600   5.618  0.0449 -0.0141  0.2028
60176W        W 3093   0.744  16.773   3.400 -0.0527 -0.1295 -0.1191
60177W        W 3094   3.765  17.796   0.089  0.0458 -0.0565 -0.1339
60178W        W 3095   2.708  15.410   1.180 -0.1762  0.1162 -0.1306
60179W        W 3096   1.982  16.453   3.819 -0.4517 -0.0180  0.0970
60180W        W 3097   4.374  17.743   1.768 -0.0755 -0.1763 -0.3663
60181W        W 3098   2.148  18.052   1.409  0.1507 -0.2933  0.0063
60182W        W 3099   4.246  16.615   0.840 -0.0468 -0.0214 -0.0714
60183W        W 3100   0.791  16.025   0.621  0.0481  0.2644  0.1398
60184W        W 3101   1.884  17.976   0.188 -0.2781  0.0394 -0.0078
60185W        W 3102   0.635  15.953  30.090  0.2091 -0.1627 -0.0133
60186W        W 3103   1.122  17.100   0.218  0.2336  0.4463  0.0725
60187W        W 3104  34.213  13.800   3.047  0.1317  0.3053  0.4680
60188W        W 3105   3.873  17.893   1.675  0.2903  0.0264  0.0395
60189W        W 3106   4.142  15.011   1.913 -0.0624  0.3919  0.2879
60190W        W 3107   1.821  15.338   2.265  0.5278  0.2159  0.1144
60191W        W 3108   1.309  16.540   4.118  0.2329  0.1267  0.0214
60192W        W 3109   1.422  16.394   2.698 -0.0830  0.2553  0.3874
60193W        W 3110  32.300  14.244   3.272 -0.0344 -0.0664  0.0966
60194W        W 3111   3.999  17.303   3.884 -0.5505 -0.1245 -0.0056
60195W        W 3112   3.009  16.885   0.146 -0.0091 -0.2780  0.2981
60196W        W 3113   3.702  14.091   3.953  0.2075 -0.1225 -0.2163
60197W        W 3114   3.514  15.564   1.589 -0.0404 -0.0770 -0.0488
60198W        W 3115   3.781  16.658  30.842 -0.2194  0.2184 -0.3530
60199W        W 3116   2.134  15.681   1.130  0.1323 -0.2923 -0.4253
60200W        W 3117   7.513  15.706   4.431  0.1032 -0.4316 -0.0095
60201W        W 3118   2.406  16.156  31.562 -0.0993 -0.0237  0.1668
60202W        W 3119   1.818  16.207   2.929  0.0972  0.0478  0.3449
60203W        W 3120   2.616  17.825   1.179  0.0696  0.0716 -0.1566
60204W        W 3121   4.466  17.661   1.053 -0.0392  0.3261 -0.0199
60205W        W 3122   3.020  15.835   0.461 -0.0884  0.0131 -0.1907
60206W        W 3123   2.350  15.139   2.179  0.0600  0.1771 -0.1207
60207W        W 3124   1.163  16.992   3.394  0.0206  0.2406  0.2440
60208W        W 3125   0.975  15.819   1.011 -0.1614  0.2113  0.1168
60209W        W 3126   2.697  16.444   1.711  0.0307  0.0796  0.0175
60210W        W 3127   1.274  15.645   1.951 -0.0476  0.1118  0.0184
60211W        W 3128   4.973  17.693   3.733  0.1751 -0.1452  0.1019
60212W        W 3129   3.181  15.106   0.512 -0.1734  0.3541  0.1258
60213W        W 3130   2.790  16.718   3.504 -0.0380  0.1588 -0.1430
60214W        W 3131   1.187  17.230  29.869  0.1262  0.2435 -0.2160
60215W        W 3132   3.900  14.110   0.536 -0.0873  0.1914  0.1911
60216W        W 3133   2.484  17.676   0.633  0.0811 -0.0952 -0.1246
60217W        W 3134   2.859  17.606   3.487  0.0591 -0.1683  0.1459
60218W        W 3135   0.419  18.291  31.094 -0.0697 -0.0161 -0.0462
60219W        W 3136   1.968  15.741   4.695  0.1879 -0.2377  0.1524
60220W        W 3137   3.125  15.755   1.221  0.2120 -0.2104  0.0874
60221W        W 3138   2.123  18.541   4.034  0.1771  0.0724 -0.0065
60222W        W 3139   2.384  14.783   3.677  0.6150 -0.0703 -0.0703
60223W        W 3140   3.979  17.459   2.586  0.1752 -0.4535  0.0644
60224W        W 3141   2.096  16.829   3.426  0.3304 -0.1189 -0.1112
60225W        W 3142   4.996  17.416   2.455  0.0705 -0.2266 -0.1866
60226W        W 3143   1.870  16.072  31.789 -0.0627  0.0203 -0.0437
60227W        W 3144   2.559  18.080   2.676 -0.1468  0.2115  0.1581
60228W        W 3145   0.653  16.137   1.498  0.1751  0.0716  0.0584
60229W        W 3146   0.565  15.896   4.116 -0.1583 -0.1847  0.3466
60230W        W 3147   2.479  16.384   0.638  0.5068 -0.0165 -0.0716
60231W        W 3148   1.389  16.043   2.283 -0.2732 -0.1923 -0.0514
60232W        W 3149   1.463  17.818  31.441 -0.2231 -0.3032  0.1433
60233W        W 3150   0.519  18.296   2.442 -0.0175  0.0109  0.1195
60234W        W 3151  34.285  15.621   1.561  0.1045  0.0197 -0.0538
60235W        W 3152   0.313  17.641  31.901  0.1356 -0.2866 -0.0813
60236W        W 3153   3.236  18.124   0.773  0.1486 -0.2960 -0.0646
60237W        W 3154   3.362  17.281   1.157 -0.4159  0.2180  0.4530
60238W        W 3155   1.989  17.450   3.152  0.1759  0.1239 -0.1996
60239W        W 3156   2.783  15.838  31.830 -0.0517  0.1397 -0.0766
60240W        W 3157   0.499  16.831  31.672 -0.0947  0.0746  0.0725
60241W        W 3158   0.810  16.857   0.631  0.1530  0.1128 -0.1898
60242W        W 3159   1.549  18.855   2.040 -0.1412 -0.0752 -0.5910
60243W        W 3160   0.602  17.099   1.136  0.2270 -0.0766  0.4184
60244W        W 3161   3.708  16.175   3.108 -0.0907  0.1075  0.0086
60245W        W 3162   3.774  17.674  30.648 -0.1879 -0.2256 -0.1051
60246W        W 3163   3.945  19.043   3.147 -0.1612  0.1136  0.1352
60247W        W 3164   4.620  16.370   1.046  0.2926 -0.1339 -0.0331
60248W        W 3165   2.471  17.247   4.182  0.3066  0.0039  0.2175
60249W        W 3166   1.650  14.366   2.555  0.1900 -0.0708  0.1745
60250W        W 3167   3.932  15.940   1.619 -0.0085  0.1102  0.0106
60251W        W 3168   1.353  16.154   3.251 -0.4330  0.3906  0.0709
60252W        W 3169   1.774  14.877   3.715 -0.1533 -0.2596  0.3393
60253W        W 3170   1.108  19.589   2.703  0.0212 -0.2803 -0.1371
60254W        W 3171   3.379  16.492   1.758  0.1248  0.1147  0.1375
60255W        W 3172   0.460  16.663   1.310 -0.1314 -0.0071  0.1322
60256W        W 3173   2.901  17.917   2.334 -0.0957 -0.2493 -0.1790
60257W        W 3174   1.977  14.485   3.520 -0.0413  0.2757 -0.0687
60258W        W 3175   2.372  18.451   0.626  0.1843  0.1110 -0.1739
60259W        W 3176   3.391  15.221   1.160  0.1888  0.3245  0.1843
60260W        W 3177   1.323  17.306  31.778  0.2865 -0.0142  0.2552
60261W        W 3178   1.906  16.495   1.979 -0.1758  0.1370 -0.3758
60262W        W 3179   2.399  19.146   0.982 -0.0130 -0.1020 -0.1015
60263W        W 3180   0.596  13.817   2.093  0.0786  0.1061 -0.1579
60264W        W 3181   2.869  16.189   0.864  0.0757  0.3382 -0.0804
60265W        W 3182   1.179  15.534   3.081 -0.3073  0.1941  0.0200
60266W        W 3183   2.775  12.687   3.676  0.0975 -0.3603 -0.0435
60267W        W 3184   4.076  16.918   1.263  0.0452  0.1848 -0.2000
60268W        W 3185   3.724  14.520   1.897 -0.3531  0.0462  0.2288
60269W        W 3186   1.820  15.691   2.600  0.0911 -0.0052 -0.1596
60270W        W 3187   1.818  16.216   2.399  0.2071 -0.2858  0.2284
60271W        W 3188   1.102  14.302   0.076 -0.0278 -0.1085 -0.1885
60272W        W 3189   4.724  15.788   2.334  0.1444 -0.3164 -0.1652
60273W        W 3190   1.815  17.417   0.007  0.1419 -0.1110 -0.0269
60274W        W 3191   6.177  16.583   3.491 -0.0368  0.2246 -0.2058
60275W        W 3192   2.840  15.059   1.953 -0.4197 -0.2842 -0.0289
60276W        W 3193   3.107  13.759   2.758  0.1316 -0.0261 -0.0390
60277W        W 3194   0.747  15.974  30.607 -0.0014  0.1275  0.2744
60278W        W 3195   0.381  16.683   2.127  0.1275 -0.0980  0.1416
60279W        W 3196   1.346  18.549   2.974  0.0435 -0.2944  0.0392
60280W        W 3197   1.519  13.355   0.345 -0.0388 -0.2877  0.2104
60281W        W 3198   4.703  16.810   0.795 -0.1772  0.0125  0.1310
60282W        W 3199   1.320  15.196   3.589  0.0461 -0.0005  0.0145
60283W        W 3200   1.192  16.510  31.225 -0.1455  0.2568 -0.0068
60284W        W 3201   4.237  16.885   1.754  0.0411  0.0111 -0.0920
60285W        W 3202   3.578  20.399   2.176  0.2028 -0.2641  0.0798
60286W        W 3203   2.628  18.617   3.317 -0.0147 -0.1135  0.1882
60287W        W 3204   4.410  16.170   2.356  0.3632 -0.0229 -0.2750
60288W        W 3205   1.237  14.657   2.465 -0.1483 -0.1128  0.0105
60289W        W 3206   1.890  17.028   2.251 -0.2811 -0.0711 -0.3012
60290W        W 3207  33.007  18.583  31.657  0.1572 -0.1829 -0.2600
60291W        W 3208   4.022  16.016   2.162  0.2279 -0.0115 -0.3678
60292W        W 3209   4.604  17.104   4.417 -0.2207 -0.3037 -0.3020
60293W        W 3210   2.512  17.292  30.152 -0.1684 -0.0982 -0.0849
60294W        W 3211   1.826  11.951   2.694 -0.0452 -0.0610  0.1316
60295W        W 3212   2.152  16.565   3.029  0.2579 -0.1096  0.2194
60296W        W 3213  34.135  16.672   3.354 -0.1010  0.2329 -0.1115
60297W        W 3214   1.507  14.678  30.683  0.1809  0.1331 -0.0166
60298W        W 3215   3.279  17.127   4.861 -0.1913  0.1329  0.5074
60299W        W 3216   1.372  17.081   1.341 -0.2625 -0.0347  0.0128
60300W        W 3217   2.038  19.216  31.650  0.2018  0.3717 -0.2384
60301W        W 3218   4.643  17.463   3.288 -0.1480 -0.0726  0.1397
60302W        W 3219   3.739  16.938   0.888 -0.3515 -0.2212 -0.0360
60303W        W 3220   3.899  17.965   1.178 -0.0155 -0.0917  0.2012
60304W        W 3221   1.753  16.724   1.480  0.3302 -0.0300 -0.1904
60305W        W 3222   5.724  15.502  31.713 -0.4568  0.1679 -0.0269
60306W        W 3223   1.134  15.117   2.688  0.0765 -0.2702  0.2149
60307W        W 3224   0.370  17.185  30.681 -0.0973 -0.3939 -0.1447
60308W        W 3225   1.986  15.249   1.375  0.3387 -0.0013 -0.1422
60309W        W 3226  34.558  16.794   2.110  0.1922  0.1247 -0.1411
60310W        W 3227   0.870  14.576   2.895 -0.0795 -0.0645  0.0093
60311W        W 3228   0.989  16.357   3.492 -0.1222 -0.0461 -0.1593
60312W        W 3229   1.027  17.369   3.136 -0.0950  0.2525  0.1083
60313W        W 3230   1.451  16.196   0.207 -0.2107  0.1568  0.1949
60314W        W 3231   6.184  16.771   0.888  0.1464  0.1525  0.0294
60315W        W 3232   2.470  13.266   2.122 -0.1021 -0.2640 -0.2627
60316W        W 3233   0.539  13.859   2.625  0.0597  0.0038 -0.3239
60317W        W 3234   2.531  17.297   1.178 -0.5284 -0.1912  0.3876
60318W        W 3235   2.402  18.328   2.034  0.1009  0.1960 -0.1943
60319W        W 3236   2.565  15.892   1.337 -0.0485 -0.1159  0.0738
60320W        W 3237   4.053  17.739   5.039  0.5356  0.1805  0.1839
60321W        W 3238  33.250  15.451  31.334  0.1318  0.1649  0.0837
60322W        W 3239   3.139  16.516   3.885  0.0666 -0.3508 -0.2479
60323W        W 3240   0.958  15.924   2.665 -0.0051 -0.0122  0.5032
60324W        W 3241  34.609  15.085  31.364  0.0768  0.4281  0.0701
60325W        W 3242   3.881  17.323   1.620 -0.0647  0.1512 -0.2720
60326W        W 3243   2.245  16.533   1.480  0.0239 -0.0282  0.1423
60327W        W 3244   4.492  19.501   1.017 -0.0855  0.1176  0.0170
60328W        W 3245   3.354  17.237   4.031 -0.1684  0.0113  0.1822
60329W        W 3246   2.358  19.172   2.349 -0.1617  0.0559  0.1109
60330W        W 3247   0.483  15.001   3.688  0.0919  0.1642 -0.1581
60331W        W 3248   3.464  19.068   1.254  0.3503 -0.2566 -0.0634
60332W        W 3249   1.908  17.016   2.944  0.1408 -0.2829 -0.0065
60333W        W 3250   3.894  17.573  31.567 -0.1461 -0.0920  0.2753
60334W        W 3251   4.807  16.419   2.984  0.1016  0.1533  0.3382
60335W        W 3252   2.264  17.410   1.586  0.0189  0.0888 -0.0174
60336W        W 3253   0.121  15.405   3.487  0.0635 -0.0862  0.1502
60337W        W 3254   2.530  17.164   3.605 -0.0484 -0.3271 -0.0391
60338W        W 3255   4.107  15.231   2.392 -0.0304 -0.1527 -0.1759
60339W        W 3256   0.925  16.370   2.996  0.1700  0.2419  0.0949
60340W        W 3257   2.837  16.210  31.017 -0.0585 -0.0523  0.1207
60341W        W 3258   2.530  16.447   2.651  0.1214  0.2722 -0.1381
60342W        W 3259  34.347  17.277   0.683  0.0623  0.1356  0.1546
60343W        W 3260   3.397  14.225   2.126 -0.0283  0.2311 -0.0821
60344W        W 3261   3.217  15.633   4.732  0.0029 -0.1263  0.4342
60345W        W 3262   4.160  17.390   3.272 -0.2086 -0.3101 -0.0036
60346W        W 3263   1.708  15.330   3.858  0.1905 -0.2895  0.2242
60347W        W 3264   1.694  16.947  31.693  0.1310 -0.0122 -0.0124
60348W        W 3265   3.309  18.542   0.419 -0.0709 -0.2321 -0.1696
60349W        W 3266   3.460  18.610   4.181 -0.3000  0.1996  0.2455
60350W        W 3267   3.616  16.665   3.251 -0.1667 -0.0778 -0.0619
60351W        W 3268   3.003  16.696   4.799 -0.2443  0.3323 -0.2492
60352W        W 3269   3.710  15.642   2.393  0.3860  0.0089 -0.0160
60353W        W 3270   2.208  16.209   0.134  0.3239  0.0084 -0.1065
60354W        W 3271   1.711  17.094   0.404 -0.0667 -0.1627  0.1827
60355W        W 3272   3.237  18.803   2.032 -0.0761  0.0560 -0.3565
60356W        W 3273   1.872  16.084   1.443 -0.0290  0.0163  0.1645
60357W        W 3274   1.247  15.560   2.461  0.1166  0.4484  0.2008
60358W        W 3275   3.857  14.606   0.621 -0.2774  0.2420 -0.0083
60359W        W 3276   0.795  16.967   1.591  0.1350 -0.0012 -0.0280
60360W        W 3277   3.807  16.493   1.156 -0.1879  0.1501 -0.0413
60361W        W 3278   2.227  15.996   6.402 -0.0102 -0.0225 -0.2549
60362W        W 3279   0.426  16.358   4.296  0.0472 -0.2372  0.0706
60363W        W 3280   2.595  14.701   3.007  0.2748  0.0142 -0.0114
60364W        W 3281   2.897  17.788   4.720  0.1251 -0.0021 -0.0032
60365W        W 3282  34.639  17.050   4.640  0.0975 -0.1441  0.3278
60366W        W 3283   2.729  18.119   4.225 -0.0676  0.0680  0.0094
60367W        W 3284  34.292  13.319   7.933  0.0748  0.2439 -0.2494
60368W        W 3285   2.843  15.857   5.617 -0.1267 -0.0828 -0.1166
60369W        W 3286   3.661  18.989   5.751  0.3833 -0.1987 -0.1759
60370W        W 3287   5.355  16.326   4.317 -0.1545  0.0619  0.0980
60371W        W 3288   3.470  13.741   5.642 -0.1252  0.1584  0.2102
60372W        W 3289   1.481  18.547   5.709 -0.0197  0.0274  0.0377
60373W        W 3290   1.486  13.786   4.291  0.0217 -0.0917  0.1542
60374W        W 3291  33.291  15.460   4.996 -0.0305  0.0500  0.3736
60375W        W 3292   2.869  17.357   4.965 -0.1632 -0.2000  0.0740
60376W        W 3293  33.749  19.609   3.485 -0.3873  0.3389  0.0875
60377W        W 3294   0.979  15.480   4.318  0.1599 -0.1816  0.4145
60378W        W 3295   0.940  14.849   3.615 -0.0257  0.0113 -0.1210
60379W        W 3296   1.993  20.725   4.140  0.0578  0.4167  0.1812
60380W        W 3297   2.713  15.926   6.653 -0.1514  0.0927  0.3346
60381W        W 3298   3.253  15.917   6.480 -0.3281  0.1915  0.0032
60382W        W 3299   2.746  17.963   5.158  0.3122  0.1199 -0.3051
60383W        W 3300  34.667  14.898   3.481 -0.2987  0.1570  0.0679
60384W        W 3301  34.295  17.344   4.431 -0.0808  0.3418  0.0267
60385W        W 3302  34.394  15.951   5.642  0.0210  0.0716  0.0106
60386W        W 3303   3.293  15.809   5.988 -0.2256  0.4299  0.0139
60387W        W 3304   4.541  14.904   6.069 -0.0083 -0.1142  0.1172
60388W        W 3305   1.293  17.943   6.550  0.0973 -0.1286  0.1518
60389W        W 3306   2.291  17.810   6.792  0.0548 -0.0680 -0.0062
60390W        W 3307   3.918  15.669   7.139  0.1458  0.0981 -0.2501
60391W        W 3308   0.572  16.807   3.973 -0.1428 -0.0071 -0.2214
60392W        W 3309   1.554  19.094   5.090 -0.3271 -0.1997 -0.0658
60393W        W 3310   1.364  17.270   4.655 -0.0637  0.2689 -0.2189
60394W        W 3311   4.584  15.955   5.004  0.1217 -0.0997  0.2656
60395W        W 3312   2.317  17.171   6.658 -0.3039  0.1552 -0.0161
60396W        W 3313   2.255  18.373   6.059  0.1636  0.0596 -0.1847
60397W        W 3314   1.679  18.233   2.304 -0.0812  0.0807 -0.1965
60398W        W 3315   1.833  17.074   5.665  0.1116  0.5394  0.2223
60399W        W 3316  34.220  18.850   5.267  0.0569 -0.0234 -0.2140
60400W        W 3317  33.907  16.309   5.509  0.0831  0.0300  0.1684
60401W        W 3318  33.630  16.822   5.584 -0.0683  0.0848  0.0907
60402W        W 3319   1.730  18.073   4.077  0.3627  0.0984  0.1017
60403W        W 3320   2.869  17.584   5.447 -0.1042 -0.0402 -0.0910
60404W        W 3321   0.688  18.486   6.170  0.1997  0.4136  0.2403
60405W        W 3322   0.713  17.287   3.509  0.2035  0.0587 -0.0473
60406W        W 3323   2.336  14.692   6.842 -0.0280 -0.2098 -0.3992
60407W        W 3324   0.891  15.475   4.886 -0.0271  0.2051  0.0368
60408W        W 3325   3.567  16.709   4.638  0.1832 -0.0597 -0.1798
60409W        W 3326   0.450  14.873   4.200 -0.0889 -0.0767 -0.1715
60410W        W 3327   2.735  15.174   3.877 -0.3490  0.2059 -0.0149
60411W        W 3328  34.586  12.647   6.300 -0.2427 -0.0829 -0.1623
60412W        W 3329   2.266  20.080   6.049 -0.2359  0.2589 -0.2110
60413W        W 3330   2.092  16.875   4.851  0.2237  0.0303 -0.0468
60414W        W 3331   3.700  15.874   6.264 -0.0463 -0.0999 -0.3228
60415W        W 3332   2.595  16.350   4.107  0.1663  0.3022  0.1541
60416W        W 3333   2.013  16.783   6.001  0.0386 -0.0815 -0.3452
60417W        W 3334   0.442  18.259   5.859 -0.4441 -0.0013 -0.1059
60418W        W 3335   0.167  16.166   5.825 -0.2061 -0.1491 -0.3089
60419W        W 3336   2.776  17.107   6.466 -0.0424 -0.2608 -0.2510
60420W        W 3337   3.357  17.601   4.696  0.1529  0.0877 -0.5228
60421W        W 3338   3.434  19.439   2.867  0.0633  0.2643 -0.1542
60422W        W 3339   1.244  16.708   5.174  0.0069  0.0369 -0.2261
60423W        W 3340   0.455  15.529   7.330  0.3377 -0.2889 -0.1910
60424W        W 3341   0.434  16.674   5.722  0.0160  0.0260 -0.0930
60425W        W 3342   0.873  13.834   3.004 -0.1159 -0.2782  0.1032
60426W        W 3343   4.296  18.281   5.497  0.0557 -0.0861 -0.1688
60427W        W 3344  33.915  17.255   5.415  0.1312 -0.0802 -0.3467
60428W        W 3345   4.329  16.576   6.335 -0.1231 -0.1219  0.4088
60429W        W 3346  34.601  16.553   5.083  0.0392  0.1024  0.1500
60430W        W 3347   3.202  16.912   4.371 -0.1126 -0.0229  0.0162
60431W        W 3348   3.045  17.658   4.282  0.0483 -0.0092  0.1020
60432W        W 3349   4.615  15.931   7.128  0.0964  0.1551 -0.4121
60433W        W 3350   1.128  14.117   7.414  0.0341 -0.1180 -0.2483
60434W        W 3351   1.711  14.916   2.509 -0.3404 -0.1177 -0.1977
60435W        W 3352   1.970  16.392   5.574  0.2314  0.1529  0.3668
60436W        W 3353   4.132  19.117   5.932  0.0018 -0.2108 -0.1457
60437W        W 3354   3.254  15.058   3.441  0.0821  0.1354  0.2990
60438W        W 3355   0.794  18.421   5.402  0.3900 -0.1572 -0.1433
60439W        W 3356   1.206  15.641   6.384 -0.1567 -0.1114  0.1795
60440W        W 3357   2.463  15.533   6.787 -0.2295  0.0961  0.0801
60441W        W 3358   1.540  17.572   4.107 -0.2946 -0.1069 -0.4055
60442W        W 3359  34.261  16.726   6.258 -0.0781 -0.0252  0.5137
60443W        W 3360   0.332  17.494   3.175 -0.0754 -0.1132  0.2899
60444W        W 3361  34.564  15.450   6.456  0.4453  0.0243  0.0732
60445W        W 3362   0.449  17.668   7.612 -0.2129 -0.2877  0.1882
60446W        W 3363   3.301  14.777   5.485  0.0375 -0.0158  0.0488
60447W        W 3364   0.418  17.404   6.188 -0.0418 -0.0371 -0.1465
60448W        W 3365   4.445  16.901   5.955  0.1466 -0.2034 -0.1901
60449W        W 3366   1.073  17.187   2.618  0.2655  0.5089 -0.2604
60450W        W 3367   4.206  18.184   3.634 -0.2112 -0.1003 -0.1186
60451W        W 3368   4.771  16.564   5.187  0.1551  0.1322  0.2211
60452W        W 3369   2.582  18.457   5.109  0.2851  0.3215 -0.2504
60453W        W 3370   1.389  15.387   6.767 -0.1198 -0.0646  0.0629
60454W        W 3371  34.291  15.698   3.725 -0.2535 -0.0469 -0.1372
60455W        W 3372  34.541  13.291   5.985  0.0226 -0.1199 -0.2150
60456W        W 3373   1.200  15.065   6.412 -0.0510  0.2189  0.2830
60457W        W 3374   2.687  16.109   7.152  0.0722  0.1832 -0.0301
60458W        W 3375   0.861  17.056   4.877 -0.2190 -0.0664 -0.2044
60459W        W 3376   3.416  16.904   3.657 -0.1759 -0.1091  0.2519
60460W        W 3377   0.141  16.220   5.369 -0.0714 -0.0703  0.0089
60461W        W 3378  34.311  17.602   5.777  0.3305  0.1842  0.0950
60462W        W 3379   3.275  16.039   7.853 -0.1338  0.1337 -0.0901
60463W        W 3380   4.047  18.220   2.197  0.0862 -0.3826  0.2162
60464W        W 3381   3.946  16.758   6.605  0.1914  0.0668 -0.0090
60465W        W 3382   3.224  18.184   4.415  0.0710  0.2225  0.0485
60466W        W 3383   2.453  16.362   6.742 -0.0418 -0.1994  0.1505
60467W        W 3384   1.388  14.584   2.911 -0.2797 -0.3459 -0.2877
60468W        W 3385   1.870  18.708   6.237  0.0448  0.1637 -0.1817
60469W        W 3386   1.730  17.554   5.414  0.1291  0.0091  0.2853
60470W        W 3387   2.255  17.742   5.440  0.0280  0.0195  0.1296
60471W        W 3388   6.414  19.569   6.772  0.3845  0.2425 -0.1337
60472W        W 3389   2.882  15.249   4.645  0.2803  0.0763 -0.0059
60473W        W 3390   0.286  17.599   5.334  0.0472  0.1969 -0.1931
60474W        W 3391   2.608  14.410   7.482 -0.1277  0.0713  0.2407
60475W        W 3392   2.926  15.374   5.394 -0.0103 -0.1177  0.2612
60476W        W 3393   3.014  16.277   5.867  0.1677 -0.0221  0.0547
60477W        W 3394   0.104  16.000   4.342  0.3522  0.1317 -0.1493
60478W        W 3395   4.433  18.450   4.647  0.0381  0.1257 -0.0174
60479W        W 3396   2.196  18.324   3.281  0.3538 -0.3232 -0.2763
60480W        W 3397  34.659  16.497   4.608  0.0237 -0.0514 -0.1183
60481W        W 3398   3.001  17.716   6.109 -0.0964  0.0198 -0.1565
60482W        W 3399   3.224  16.186   3.352  0.1469 -0.3468 -0.1730
60483W        W 3400   0.413  17.202   5.673  0.0668  0.1889  0.0277
60484W        W 3401   2.476  15.513   6.307  0.3386 -0.0066 -0.3798
60485W        W 3402   0.047  15.610   3.992 -0.0863 -0.0721  0.5168
60486W        W 3403   0.831  17.058   7.045 -0.0426  0.1178 -0.0245
60487W        W 3404   2.966  14.382   5.744  0.3827 -0.0229 -0.1732
60488W        W 3405   2.038  14.997   5.077 -0.1828 -0.0035  0.4275
60489W        W 3406   2.305  15.987   5.011 -0.0179  0.3025 -0.1229
60490W        W 3407   3.296  17.157   5.653  0.2475  0.0900  0.3426
60491W        W 3408   2.177  14.930   2.647  0.2559 -0.0226  0.2047
60492W        W 3409   0.869  15.124   3.996 -0.2094  0.0351 -0.2388
60493W        W 3410  33.912  17.124   7.621  0.2655 -0.0356 -0.0287
60494W        W 3411   2.761  15.612   4.109 -0.0595  0.1630 -0.0300
60495W        W 3412   2.574  17.657   5.844 -0.0494  0.1183  0.5337
60496W        W 3413   1.840  16.625   4.253  0.0776  0.0163 -0.0554
60497W        W 3414   5.467  16.343   5.549  0.0658  0.1307  0.0818
60498W        W 3415   0.820  16.951   5.391 -0.0504  0.2679 -0.3368
60499W        W 3416   2.559  17.557   6.351  0.0447  0.1472  0.1871
60500W        W 3417   3.123  18.456   3.470  0.1222 -0.2134  0.0482
60501W        W 3418   1.522  15.625   5.883 -0.1794 -0.4148  0.2734
60502W        W 3419   0.650  14.553   3.345  0.4933 -0.1442 -0.0098
60503W        W 3420   2.389  14.860   5.650  0.1940 -0.1181 -0.1086
60504W        W 3421   0.844  18.459   2.758 -0.5116  0.0386 -0.2471
60505W        W 3422   3.932  18.169   5.846 -0.0897 -0.0337 -0.3416
60506W        W 3423   2.830  15.954   4.417  0.1116  0.1025  0.1336
60507W        W 3424   1.808  15.351   7.044 -0.1571  0.1898 -0.4233
60508W        W 3425   2.023  14.214   8.518 -0.0140 -0.0825 -0.0628
60509W        W 3426   4.426  18.080   5.052 -0.1985  0.0250 -0.0887
60510W        W 3427   2.471  15.107   5.226  0.2609  0.1408 -0.2455
60511W        W 3428   0.227  16.853   3.546  0.0092 -0.1268  0.0433
60512W        W 3429   1.565  14.957   6.737  0.3352 -0.1648 -0.1743
60513W        W 3430   0.411  16.648   5.179 -0.0685  0.1516 -0.1208
60514W        W 3431  34.182  17.965   6.484  0.1400  0.2527 -0.4455
60515W        W 3432   4.792  16.395   6.178 -0.1954  0.1639  0.5067
60516W        W 3433   1.537  16.645   5.646  0.3611 -0.0302 -0.0318
60517W        W 3434   1.572  15.959   6.272  0.0058 -0.0200 -0.0349
60518W        W 3435   0.913  11.851   2.166 -0.1054  0.1073 -0.1471
60519W        W 3436   1.155  17.960   4.181 -0.0675 -0.1459  0.0748
60520W        W 3437   1.204  15.969   4.197 -0.1149  0.0439 -0.2482
60521W        W 3438   0.063  13.254   3.982  0.2690  0.1406  0.0598
60522W        W 3439   0.368  18.108   7.069  0.0241  0.1216 -0.1055
60523W        W 3440   3.211  17.787   1.928  0.3390 -0.0612 -0.2728
60524W        W 3441   3.965  16.794   6.024  0.1019  0.2364 -0.3265
60525W        W 3442   2.070  18.463   4.571 -0.4448  0.0462  0.3909
60526W        W 3443   2.759  15.724   7.633  0.3962 -0.1408  0.3164
60527W        W 3444   1.724  17.105   5.145  0.0451 -0.0856  0.2582
60528W        W 3445   0.776  15.127   4.560  0.1036  0.3029  0.0999
60529W        W 3446   1.288  15.577   3.934  0.0271 -0.1283  0.0309
60530W        W 3447   1.655  16.197   4.393  0.0904 -0.0748  0.0793
60531W        W 3448   1.112  14.721   4.376 -0.2922 -0.2781 -0.1770
60532W        W 3449   0.226  14.770   5.772  0.0318 -0.0808 -0.2234
60533W        W 3450   3.351  15.540   5.558  0.0281 -0.0257  0.1247
60534W        W 3451   0.386  17.167   5.114 -0.4076  0.2349 -0.3496
60535W        W 3452   2.054  16.037   8.176 -0.0553 -0.0291 -0.1398
60536W        W 3453   2.269  16.038   3.807 -0.2201  0.1081  0.0142
60537W        W 3454   5.000  16.285   6.735 -0.1619 -0.0629  0.0277
60538W        W 3455   0.858  15.985   7.875 -0.3483 -0.0823  0.1950
60539W        W 3456  33.389  15.549   5.570 -0.1492 -0.3881  0.0061
60540W        W 3457   4.973  13.803   7.293  0.0131 -0.0280 -0.1404
60541W        W 3458   0.507  16.748   4.601  0.2326  0.1324  0.0168
60542W        W 3459   2.066  17.744   6.297 -0.0679 -0.0969 -0.4236
60543W        W 3460   0.532  16.200   7.513 -0.0789 -0.0236 -0.2867
60544W        W 3461  34.272  17.508   2.988 -0.1706  0.1365 -0.1238
60545W        W 3462   0.842  17.527   4.481 -0.0037  0.1053  0.0068
60546W        W 3463   4.486  13.954   7.268  0.0018 -0.0857  0.0207
60547W        W 3464   2.752  16.749   6.834  0.0356  0.1225  0.1780
60548W        W 3465   1.984  16.340   4.766 -0.1480  0.0391 -0.0658
60549W        W 3466   0.023  13.680   3.696 -0.0743 -0.1938 -0.0152
60550W        W 3467  34.535  16.052   4.817  0.0917 -0.0891 -0.2503
60551W        W 3468   4.535  17.431   7.349 -0.1930 -0.1180  0.1598
60552W        W 3469   2.899  15.013   5.748  0.0594  0.4291  0.0277
60553W        W 3470   0.446  16.698   6.731  0.0092 -0.0505 -0.1507
60554W        W 3471   2.193  16.806   5.519 -0.2078  0.2757  0.0454
60555W        W 3472   4.539  18.198   2.935 -0.0003 -0.3722 -0.1780
60556W        W 3473   1.590  16.363   7.563  0.3097 -0.2214 -0.0929
60557W        W 3474   1.813  16.043   5.092 -0.1415  0.0885  0.1918
60558W        W 3475  33.984  17.128   6.619  0.1576 -0.0931 -0.2722
60559W        W 3476   2.854  17.248   4.494  0.1560  0.0191 -0.0118
60560W        W 3477   2.286  15.024   6.171 -0.2241 -0.0746 -0.2673
60561W        W 3478   0.387  18.386   5.032  0.0266 -0.0098 -0.2833
60562W        W 3479   1.666  17.056   3.355  0.0280  0.0085 -0.3175
60563W        W 3480  33.413  20.057   5.378 -0.2837 -0.0179  0.1398
60564W        W 3481   1.268  14.292   4.110  0.0449  0.5345 -0.0351
60565W        W 3482   1.848  18.899   1.183 -0.0827  0.0447  0.1430
60566W        W 3483   1.567  16.126   5.653 -0.1819  0.1035  0.1697
60567W        W 3484   4.140  14.420   7.909 -0.0682 -0.0746  0.0548
60568W        W 3485   3.248  15.991   3.791 -0.0169  0.0914  0.0602
60569W        W 3486   4.230  14.170   6.924 -0.0664  0.2284 -0.0923
60570W        W 3487   0.845  15.863   3.184 -0.0991 -0.1718  0.2632
60571W        W 3488   5.198  17.215   6.525 -0.1502 -0.1948 -0.0646
60572W        W 3489   1.309  15.102   5.893 -0.0538  0.1795  0.2559
60573W        W 3490   1.783  17.312   6.689 -0.0186 -0.0295  0.0443
60574W        W 3491  33.232  16.037   7.220  0.0201 -0.0951 -0.1408
60575W        W 3492   1.492  15.558   4.455  0.1642 -0.1286 -0.5402
60576W        W 3493   0.253  14.449   4.437  0.0721  0.1995  0.0438
60577W        W 3494   2.992  16.465   4.381  0.1593  0.2197 -0.4100
60578W        W 3495   4.619  15.987   5.958 -0.0892  0.0012 -0.2039
60579W        W 3496   3.470  16.416   4.222  0.0373  0.3887  0.2201
60580W        W 3497   3.515  14.274   5.673 -0.1784  0.2680  0.0022
60581W        W 3498   1.408  16.984   5.972 -0.1230 -0.0938  0.1882
60582W        W 3499   1.922  14.818   4.573  0.0605 -0.0134 -0.1300
60583W        W 3500   3.470  16.875   5.224 -0.1847 -0.1226 -0.2686
60584W        W 3501   3.139  16.180   4.734 -0.1943 -0.1410 -0.0132
60585W        W 3502   0.813  15.237   6.103  0.2155  0.1330 -0.2597
60586W        W 3503   2.762  16.539   5.420 -0.0342 -0.0917  0.1615
60587W        W 3504   2.282  15.262   4.746  0.5298 -0.0768  0.1387
60588W        W 3505   3.383  15.223   6.482 -0.0594 -0.0701  0.3517
60589W        W 3506   2.968  15.504   6.498 -0.1281  0.3199 -0.0711
60590W        W 3507   1.002  17.062   6.546 -0.0332 -0.1999  0.0878
60591W        W 3508   0.587  13.236   6.945 -0.0865 -0.0066 -0.3291
60592W        W 3509   2.607  17.388   6.928 -0.0975  0.3390 -0.0244
60593W        W 3510   3.920  14.243   3.498 -0.0557 -0.3305  0.2454
60594W        W 3511   4.644  15.962   5.487 -0.0301 -0.1900 -0.1527
60595W        W 3512   3.698  16.851   4.074  0.1315  0.0941  0.1052
60596W        W 3513   0.336  15.737   5.005  0.0881 -0.2323  0.0921
60597W        W 3514  34.183  16.169   3.508  0.1531 -0.3290  0.1673
60598W        W 3515   3.087  15.793   6.961 -0.1022  0.0974  0.1792
60599W        W 3516  33.380  13.733   3.781  0.0789 -0.0113 -0.2989
60600W        W 3517   2.947  14.889   6.234 -0.0366  0.0963 -0.1726
60601W        W 3518   0.778  18.920   2.243  0.5343 -0.1557 -0.2478
60602W        W 3519   3.681  17.268   5.965 -0.0376  0.2669  0.0192
60603W        W 3520   0.487  16.347   3.629  0.0332 -0.2927 -0.0444
60604W        W 3521  34.180  16.936   5.759  0.1044  0.2097 -0.2211
60605W        W 3522   0.997  18.594   5.812  0.2542 -0.1244  0.1990
60606W        W 3523   0.226  16.635   3.094 -0.3037 -0.0705  0.2353
60607W        W 3524   2.400  17.269   4.710 -0.1562 -0.1975  0.2716
60608W        W 3525   4.735  16.125   7.577 -0.0641  0.3186  0.0436
60609W        W 3526   3.792  17.443   6.423 -0.1268  0.0038  0.0040
60610W        W 3527   1.372  13.997   4.716  0.0297  0.3390 -0.0758
60611W        W 3528   1.804  15.592   8.059 -0.0556 -0.0842 -0.0710
60612W        W 3529   0.064  18.947   3.619 -0.2974  0.0648 -0.2457
60613W        W 3530   1.705  14.923   5.494 -0.3274  0.1378 -0.1840
60614W        W 3531   2.127  20.135   5.458 -0.1483 -0.2882 -0.2469
60615W        W 3532   1.428  16.513   4.734  0.0434 -0.0124 -0.2418
60616W        W 3533   1.441  18.944   6.139 -0.2568  0.2903  0.0509
60617W        W 3534   1.505  14.473   5.579  0.2323  0.2200 -0.1777
60618W        W 3535   2.533  18.165   4.711  0.1369  0.3136 -0.1861
60619W        W 3536   1.638  16.474   6.072 -0.0522 -0.0456 -0.0734
60620W        W 3537   4.323  16.294   6.742 -0.0830 -0.0960  0.0027
60621W        W 3538   3.239  17.240   6.266  0.2874  0.3158  0.0333
60622W        W 3539  34.149  14.607   5.640  0.0353  0.2245 -0.1262
60623W        W 3540   1.883  17.241   6.127  0.2224 -0.0425  0.0130
60624W        W 3541   3.797  15.852   4.118  0.1242 -0.1494  0.0463
60625W        W 3542   1.140  17.367   5.878 -0.3741  0.2244 -0.1086
60626W        W 3543  34.297  15.787   7.124  0.0072  0.1034  0.0879
60627W        W 3544   1.363  16.027   7.877  0.2013  0.2933  0.0583
60628W        W 3545   4.116  15.655   5.391  0.0988  0.1087  0.1145
60629W        W 3546  33.503  16.026   5.432  0.0864 -0.2645 -0.2773
60630W        W 3547   2.366  16.408   3.478 -0.0173  0.1523 -0.1227
60631W        W 3548  33.802  17.668   7.438  0.0622  0.0357 -0.2965
60632W        W 3549  34.621  16.617   6.653  0.0179  0.0573 -0.0979
60633W        W 3550   2.652  18.105   3.261 -0.0081  0.1817  0.1347
60634W        W 3551   3.586  17.231   4.447  0.0485 -0.0530  0.2235
60635W        W 3552  34.341  16.997   6.974  0.0636  0.0155 -0.0036
60636W        W 3553   3.503  18.493   5.212  0.0304  0.1162 -0.1222
60637W        W 3554   0.268  14.256   3.560 -0.1703  0.4242 -0.2848
60638W        W 3555   1.156  18.317   6.947  0.0197  0.1410  0.0726
60639W        W 3556   0.572  17.111   2.436 -0.2185 -0.0121  0.2078
60640W        W 3557   3.020  18.323   4.841 -0.1255 -0.1736 -0.3305
60641W        W 3558   1.780  17.648   5.917 -0.3151  0.0458  0.2035
60642W        W 3559   3.361  16.690   7.087 -0.0919  0.3601  0.2393
60643W        W 3560   2.090  13.864   3.621  0.0858  0.2925  0.3549
60644W        W 3561   2.973  15.582   3.549 -0.4477  0.0242 -0.0832
60645W        W 3562   2.236  15.487   3.933 -0.0273 -0.0707 -0.2694
60646W        W 3563   0.667  18.144   7.677  0.1510 -0.4783 -0.2823
60647W        W 3564   0.764  16.984   5.936 -0.0040 -0.1127  0.1481
60648W        W 3565   1.848  13.101   4.203  0.3323 -0.0577 -0.1881
60649W        W 3566   1.146  16.299   5.977  0.0449 -0.0648  0.1887
60650W        W 3567   4.218  12.777   5.577 -0.0103 -0.0827 -0.4129
60651W        W 3568   1.541  19.048   5.593 -0.3270 -0.0366 -0.3662
60652W        W 3569   2.055  17.311   3.669  0.0169  0.1414  0.1193
60653W        W 3570  33.060  16.759   5.539 -0.0132  0.1458  0.0620
60654W        W 3571   1.156  15.890   5.521 -0.2383 -0.1188 -0.2787
60655W        W 3572   4.062  13.810   5.370 -0.3927 -0.1431  0.1771
60656W        W 3573   2.501  19.635   3.508 -0.4101 -0.0562  0.0461
60657W        W 3574   0.458  16.191   3.083 -0.1019  0.0561  0.0817
60658W        W 3575   3.114  16.830   3.067 -0.2567 -0.2153  0.1534
60659W        W 3576   0.126  18.355   5.507  0.0784 -0.3059 -0.2020
60660W        W 3577   1.662  18.742   4.722  0.0611  0.2343  0.0709
60661W        W 3578   0.100  15.353   2.763  0.0657  0.0339 -0.0623
60662W        W 3579   3.599  16.400   3.694  0.0986  0.2459  0.0328
60663W        W 3580   2.398  16.112   5.537  0.4879 -0.2053 -0.1957
60664W        W 3581   4.466  14.495   7.400  0.0547  0.0134  0.1841
60665W        W 3582  34.536  15.712   5.169  0.1063 -0.4409 -0.2331
60666W        W 3583   2.322  14.131   5.190  0.1493 -0.0291 -0.0128
60667W        W 3584   3.343  16.360   6.248 -0.0431  0.0293  0.0794
60668W        W 3585  34.277  15.059   6.596 -0.0055  0.2668  0.0565
60669W        W 3586   1.971  17.146   4.249 -0.0428  0.2741 -0.1098
60670W        W 3587   4.690  17.052   5.562  0.0048  0.0385  0.2158
60671W        W 3588   1.958  15.331   4.331 -0.0328 -0.0843  0.2471
60672W        W 3589   3.551  19.490   6.026 -0.1238 -0.0520 -0.2799
60673W        W 3590  33.177  16.125   4.407  0.0303  0.1161 -0.2863
60674W        W 3591   3.004  14.966   5.079  0.0791  0.1086 -0.0094
60675W        W 3592  32.775  16.030   5.655 -0.1539  0.1576  0.2072
60676W        W 3593   1.382  17.344   6.337  0.0478 -0.1032 -0.0242
60677W        W 3594   0.957  18.584   6.585  0.0300  0.2050  0.0370
60678W        W 3595   1.068  13.439   3.924  0.0679 -0.1249 -0.0677
60679W        W 3596   4.809  16.293   4.121 -0.0779  0.1088  0.1677
60680W        W 3597   2.096  16.768   6.876  0.0254  0.2908 -0.5583
60681W        W 3598   2.274  17.294   5.177  0.0786 -0.0794  0.0439
60682W        W 3599   3.982  16.811   3.673  0.2625 -0.0594  0.0893
60683W        W 3600   2.582  16.849   4.976  0.2526  0.2779 -0.0164
60684W        W 3601  33.477  14.697   5.565  0.1252  0.0859  0.2362
60685W        W 3602   3.296  17.775   5.226 -0.4205  0.1136  0.1618
60686W        W 3603   4.274  15.879   6.308 -0.1118 -0.1217  0.2450
60687W        W 3604   1.745  14.117   3.936 -0.1426  0.2306  0.0471
60688W        W 3605  33.096  14.475   4.813 -0.1092 -0.2325  0.3350
60689W        W 3606   1.275  19.356   5.974  0.1048  0.3838  0.1718
60690W        W 3607   3.205  14.000   5.998  0.0329  0.1136  0.2015
60691W        W 3608   2.484  16.522   5.950  0.1910 -0.0433 -0.1096
60692W        W 3609   2.247  17.711   4.903 -0.0820  0.0932 -0.1867
60693W        W 3610   3.667  15.737   4.907  0.3815  0.1700 -0.1099
60694W        W 3611   2.145  18.277   5.455 -0.3808 -0.0210  0.3950
60695W        W 3612   3.128  17.097   6.971  0.1727 -0.2585  0.1545
60696W        W 3613  34.218  16.490   4.803  0.0098 -0.1686 -0.2172
60697W        W 3614   0.692  17.551   7.160  0.1027  0.0982  0.1990
60698W        W 3615   1.424  17.745   4.608  0.2477  0.1160 -0.0486
60699W        W 3616   2.864  18.450   5.838  0.0816  0.3139  0.1333
60700W        W 3617   2.589  17.066   5.625  0.1712  0.1308  0.0965
60701W        W 3618   3.697  17.269   3.461 -0.0200 -0.3498  0.2217
60702W        W 3619   3.566  18.536   3.072 -0.1295 -0.1798 -0.1209
60703W        W 3620   2.086  15.555   5.102 -0.0496  0.1817  0.0421
60704W        W 3621   2.783  16.113   3.652  0.4071 -0.2672 -0.1620
60705W        W 3622   2.429  14.366   5.631 -0.0229 -0.3540 -0.2239
60706W        W 3623   1.311  17.498   5.119 -0.1195  0.1201 -0.4407
60707W        W 3624  34.088  17.465   3.562  0.0663 -0.3042 -0.1726
60708W        W 3625   0.338  16.249   4.870 -0.1655 -0.3067 -0.2671
60709W        W 3626   1.353  17.134   5.451 -0.0387  0.0180 -0.1479
60710W        W 3627   0.765  13.610   6.566 -0.0336 -0.2098 -0.2462
60711W        W 3628   0.059  13.358   6.948 -0.0838  0.0036 -0.0032
60712W        W 3629   0.919  16.994   4.342 -0.0311  0.2853  0.2208
60713W        W 3630  33.992  14.386   4.823  0.0731  0.2633 -0.0326
60714W        W 3631   2.114  17.986   5.828  0.1236  0.1503  0.2017
60715W        W 3632   0.340  14.913   4.691 -0.3748  0.0042 -0.1651
60716W        W 3633   0.000  15.506   4.579 -0.1815  0.1138 -0.2677
60717W        W 3634   3.611  16.068   4.560 -0.0081  0.0438 -0.2811
60718W        W 3635   3.752  17.198   4.960 -0.3313 -0.0963  0.1251
60719W        W 3636   1.391  15.660   5.009 -0.3039  0.1361 -0.0131
60720W        W 3637   4.002  17.908   6.791  0.2389 -0.2257  0.0841
60721W        W 3638   0.296  16.946   1.696  0.0491 -0.1207  0.0661
60722W        W 3639   0.588  15.862   6.892 -0.0247  0.0563 -0.3937
60723W        W 3640   2.446  15.868   5.966  0.0129 -0.0113 -0.0671
60724W        W 3641   0.792  14.412   2.251  0.0359 -0.0103 -0.3784
60725W        W 3642   2.490  15.367   5.839 -0.3607  0.0395  0.2723
60726W        W 3643   1.207  16.153   6.585 -0.1468  0.0433 -0.1101
60727W        W 3644   2.289  17.709   3.495 -0.0501  0.1118 -0.0910
60728W        W 3645   3.242  16.424   5.327  0.1268 -0.0816 -0.0164
60729W        W 3646   1.583  19.754   5.925 -0.0048  0.0288 -0.0639
60730W        W 3647  34.489  14.487   7.953  0.2932 -0.2535 -0.6456
60731W        W 3648   1.374  17.846   6.033 -0.3784 -0.2253  0.1910
60732W        W 3649   1.070  17.908   7.232 -0.4158 -0.1054  0.1004
60733W        W 3650   4.071  17.288   6.793 -0.0293 -0.1218 -0.1058
60734W        W 3651   2.491  14.182   6.935 -0.2974 -0.2459  0.1230
60735W        W 3652   3.569  16.911   6.330 -0.1217 -0.2486 -0.1351
60736W        W 3653   0.575  14.094   8.078  0.1655  0.1046 -0.1646
60737W        W 3654  34.643  17.133   6.583 -0.1501 -0.2991  0.1535
60738W        W 3655   3.599  16.426   6.732 -0.1572  0.2161  0.2096
60739W        W 3656   0.335  13.388   6.494  0.0177  0.0529  0.0152
60740W        W 3657   1.185  12.853   3.910 -0.2538 -0.1542  0.4633
60741W        W 3658   1.291  18.348   4.971  0.2099 -0.1761  0.2715
60742W        W 3659  34.357  16.216   6.085  0.1829 -0.0025 -0.0859
60743W        W 3660   2.518  15.613   5.344  0.0908  0.1720  0.3424
60744W        W 3661   0.679  16.198   6.523  0.1197  0.3726 -0.0291
60745W        W 3662   1.772  16.600   5.165  0.1935  0.0202  0.1360
60746W        W 3663   2.481  16.461   8.253  0.2193  0.0966  0.2026
60747W        W 3664   1.089  16.450   5.503  0.3476  0.0741 -0.0888
60748W        W 3665   5.849  17.608   2.640  0.1375  0.4313 -0.1315
60749W        W 3666   3.000  16.819   6.134  0.1636 -0.1393  0.0638
60750W        W 3667   3.702  19.071   8.400 -0.0254 -0.1780  0.3511
60751W        W 3668   3.035  18.652   4.476  0.2290 -0.1231 -0.2753
60752W        W 3669   2.309  16.031   7.524  0.1127 -0.2305  0.1442
60753W        W 3670   0.339  16.298   6.917 -0.2293  0.2571 -0.1974
60754W        W 3671   1.451  16.204   7.060 -0.1700  0.1026 -0.0264
60755W        W 3672   2.337  15.682   4.393  0.2326  0.3412  0.2004
60756W        W 3673   5.770  17.070   4.791  0.0779 -0.1553  0.2027
60757W        W 3674  33.789  14.703   5.950  0.0864  0.0533 -0.1943
60758W        W 3675   1.502  16.150   3.860  0.2558  0.0844 -0.1650
60759W        W 3676   0.843  19.808   4.709 -0.0641  0.3132  0.1255
60760W        W 3677   2.258  16.460   5.133  0.0581 -0.1573 -0.2460
60761W        W 3678   1.381  14.019   8.988 -0.0015  0.3230 -0.1265
60762W        W 3679   1.345  17.031   6.910  0.0362 -0.0889 -0.2380
60763W        W 3680   2.596  15.251   7.683 -0.1312  0.0506  0.1546
60764W        W 3681   3.192  15.752   7.413 -0.2823  0.1429  0.1307
60765W        W 3682  33.090  14.230   8.865 -0.2732  0.0429  0.1373
60766W        W 3683   2.440  17.094   6.095  0.2559 -0.2363  0.2248
60767W        W 3684   1.862  16.378   9.154 -0.1017 -0.0227  0.1829
60768W        W 3685   2.880  18.063   7.742 -0.2657  0.4111 -0.1405
60769W        W 3686   2.805  16.365   6.355 -0.1064  0.0528 -0.0284
60770W        W 3687   1.679  15.233   9.752  0.1447  0.0417 -0.0111
60771W        W 3688   1.925  15.612   6.622 -0.0937  0.1313 -0.2298
60772W        W 3689  34.210  14.266   7.312 -0.0518  0.2118 -0.0934
60773W        W 3690   3.062  15.628   9.463  0.2154 -0.0112  0.1512
60774W        W 3691  32.440  15.943   6.634  0.0864  0.0371 -0.0276
60775W        W 3692   1.927  13.437   9.099  0.0973  0.1922  0.2752
60776W        W 3693   2.077  17.797   8.213  0.0538 -0.0237  0.0723
60777W        W 3694   1.540  18.868   7.757  0.1695  0.1412 -0.0013
60778W        W 3695   1.589  15.639   9.079 -0.0105 -0.2702  0.0831
60779W        W 3696   2.910  16.944   7.657  0.2479 -0.4161  0.1040
60780W        W 3697   0.173  16.704   7.244 -0.0530 -0.0266  0.2101
60781W        W 3698   0.712  18.646   8.516 -0.4769 -0.0370 -0.0902
60782W        W 3699   0.991  16.455   8.131 -0.2363 -0.0626  0.0115
60783W        W 3700   1.064  15.079   7.943  0.0095 -0.0942 -0.0968
60784W        W 3701   0.948  16.305   9.544 -0.0831  0.2633 -0.1812
60785W        W 3702   1.477  16.761   7.900 -0.1438  0.3333  0.0113
60786W        W 3703   1.257  17.342   9.154  0.3584  0.2228  0.0541
60787W        W 3704  32.333  15.751   8.152 -0.1545 -0.2031  0.1912
60788W        W 3705  34.258  16.289   7.557 -0.0065 -0.0490  0.0051
60789W        W 3706  33.157  16.708   9.077  0.2544  0.4306 -0.1463
60790W        W 3707   2.004  17.423   9.335  0.2402  0.0376  0.1024
60791W        W 3708   1.245  16.645   6.318  0.0253 -0.0836 -0.1199
60792W        W 3709   1.908  17.706   8.690  0.1293  0.2255 -0.1106
60793W        W 3710   0.404  15.767   9.211 -0.1013  0.1351  0.3790
60794W        W 3711   0.919  18.086   6.262 -0.1269  0.1530  0.0048
60795W        W 3712   1.055  16.971   8.312 -0.0931  0.1499 -0.0814
60796W        W 3713   1.053  14.534   8.722  0.1007  0.4605  0.3245
60797W        W 3714  34.549  18.793   5.745  0.0292  0.2279 -0.0494
60798W        W 3715   4.071  15.969   5.838 -0.1443 -0.0465  0.0744
60799W        W 3716   3.530  14.178   7.674  0.3081 -0.1912 -0.1336
60800W        W 3717   4.583  17.365   6.029 -0.1033  0.0850  0.1315
60801W        W 3718   1.053  15.717   6.859  0.0430  0.1317 -0.2018
60802W        W 3719   2.941  16.878   9.134 -0.0931 -0.2717  0.1467
60803W        W 3720   0.830  14.514   8.242  0.0304  0.1970 -0.0322
60804W        W 3721   0.953  16.654   6.792 -0.0238  0.0279  0.1527
60805W        W 3722   2.224  12.940   9.893 -0.1668 -0.3935 -0.0746
60806W        W 3723  34.382  17.302   7.430 -0.1990  0.1738  0.0082
60807W        W 3724   0.137  14.249   9.089  0.2401  0.0563 -0.0153
60808W        W 3725   3.374  18.544   7.255 -0.2317  0.1445  0.1136
60809W        W 3726   1.448  16.646   9.589  0.1856 -0.4162 -0.0200
60810W        W 3727   0.217  17.205   7.103  0.3965  0.4088  0.1339
60811W        W 3728   1.801  14.720   8.529  0.0760  0.0645 -0.0051
60812W        W 3729  33.638  14.291   6.741 -0.1360  0.0921 -0.0129
60813W        W 3730   2.157  14.502   8.963 -0.2773  0.4424 -0.1682
60814W        W 3731   0.229  16.154   8.465  0.0363  0.2342 -0.0546
60815W        W 3732   2.163  16.606   8.791  0.0300  0.1326  0.0909
60816W        W 3733   2.334  15.598   7.337  0.2655  0.1305  0.1289
60817W        W 3734   3.266  14.580   7.637  0.0165  0.2060  0.2754
60818W        W 3735   1.562  10.919   9.716  0.2211 -0.0408  0.0029
60819W        W 3736   1.030  17.507   6.813  0.1756  0.0389  0.1558
60820W        W 3737   0.384  15.199   7.674 -0.0818 -0.3920 -0.2578
60821W        W 3738   4.764  16.470   9.936  0.1953  0.0986 -0.0570
60822W        W 3739   2.927  16.523   7.946  0.2819  0.0072  0.2094
60823W        W 3740  32.873  15.459   8.833  0.1357 -0.0129  0.2198
60824W        W 3741   0.641  17.232   7.917  0.3330 -0.1973 -0.2306
60825W        W 3742  32.286  16.799   9.309  0.1118  0.2581 -0.0890
60826W        W 3743  34.128  16.606   6.749 -0.0879 -0.2204  0.0141
60827W        W 3744   0.425  13.811   8.800  0.0663 -0.0330  0.3287
60828W        W 3745  33.566  14.862   9.247  0.0389 -0.0567 -0.0683
60829W        W 3746   2.909  14.364   9.139 -0.0237  0.0059  0.0679
60830W        W 3747   3.486  13.628   9.626  0.4144  0.0923 -0.0075
60831W        W 3748  33.881  13.982   7.067 -0.1362  0.1094  0.0428
60832W        W 3749   3.611  17.550   6.951  0.0632  0.2553  0.2853
60833W        W 3750   4.174  17.845   8.075  0.0072  0.4035 -0.2205
60834W        W 3751   1.864  16.338   6.687 -0.0005  0.1622  0.0377
60835W        W 3752   3.838  14.444   9.479  0.1838 -0.4024 -0.3167
60836W        W 3753   1.089  13.213   8.815 -0.0216  0.0589 -0.2697
60837W        W 3754  31.797  13.849   9.497 -0.3509 -0.1137 -0.3070
60838W        W 3755   2.931  13.303   9.267  0.0648  0.2752  0.1016
60839W        W 3756   2.838  14.889   7.347  0.0559  0.0473  0.0656
60840W        W 3757   0.083  14.003   7.970  0.2073 -0.0752  0.0295
60841W        W 3758   0.957  15.020   8.477 -0.0475  0.1401  0.3298
60842W        W 3759   1.999  18.389   8.063 -0.1070 -0.0196 -0.0919
60843W        W 3760   2.089  17.533   9.794 -0.0485  0.0279 -0.1880
60844W        W 3761   2.125  17.359   7.124 -0.2990 -0.0605  0.1336
60845W        W 3762   2.396  13.401   9.134  0.1819 -0.2249 -0.1900
60846W        W 3763   0.941  16.192   7.040 -0.2434  0.1307 -0.0138
60847W        W 3764   0.875  20.142   9.038  0.1061  0.1776  0.2317
60848W        W 3765   1.588  18.148   8.753  0.1713  0.0247 -0.2673
60849W        W 3766   1.417  15.078   7.312  0.2705  0.0381 -0.0851
60850W        W 3767   4.352  18.899   7.367  0.1742 -0.2302  0.2086
60851W        W 3768   0.686  15.298   8.805  0.5084  0.1746  0.0683
60852W        W 3769   2.862  17.546   7.794 -0.0921  0.1893 -0.0623
60853W        W 3770   2.779  16.065   9.308  0.1794  0.1560  0.1472
60854W        W 3771  34.375  13.755   7.450  0.0070  0.1759  0.0725
60855W        W 3772   2.256  18.191   7.692 -0.0475  0.0620  0.1723
60856W        W 3773  34.359  17.523   6.680 -0.0337 -0.0702 -0.1156
60857W        W 3774  33.246  15.486   6.230  0.3432 -0.1062 -0.0624
60858W        W 3775   2.958  20.006   7.495 -0.1373 -0.1823  0.2044
60859W        W 3776   2.566  15.112   9.576 -0.1076  0.1243 -0.2329
60860W        W 3777   0.163  14.981   8.098  0.1117 -0.0584  0.0447
60861W        W 3778   2.607  15.043   6.564 -0.2912  0.0174 -0.0118
60862W        W 3779   3.960  16.796   7.556  0.1074 -0.0462  0.4852
60863W        W 3780   2.635  18.097   5.622 -0.1926  0.1643 -0.2629
60864W        W 3781   1.849  14.841   7.180 -0.0061  0.0699 -0.0167
60865W        W 3782   1.519  14.702   6.297 -0.1090  0.0694  0.0265
60866W        W 3783   1.559  16.902   9.093 -0.0290  0.0710 -0.1504
60867W        W 3784   2.474  18.118   8.104  0.2053 -0.3421 -0.4269
60868W        W 3785   2.598  16.020   8.058 -0.2302 -0.0450  0.4817
60869W        W 3786   2.459  16.936   7.193 -0.0609  0.0859  0.1254
60870W        W 3787   3.041  15.158   9.787 -0.0226  0.0559  0.1737
60871W        W 3788   2.373  17.692   8.949  0.1810  0.1760  0.1564
60872W        W 3789  32.898  13.717   9.270  0.1046  0.0474 -0.0514
60873W        W 3790   0.702  15.731   6.437  0.0187 -0.1668 -0.1071
60874W        W 3791   1.857  15.003   8.932  0.1451 -0.0500  0.1852
60875W        W 3792   2.386  19.415   6.713 -0.0304  0.0676 -0.2823
60876W        W 3793   3.041  15.778   8.939  0.2221  0.0064  0.1125
60877W        W 3794   3.699  13.197   9.938 -0.2558 -0.1398 -0.1773
60878W        W 3795   3.657  15.127   7.543  0.1229  0.0720  0.0503
60879W        W 3796   2.869  16.886   9.622 -0.1590  0.0525 -0.1881
60880W        W 3797   0.134  14.260   5.943 -0.0797 -0.2191 -0.0691
60881W        W 3798   0.941  17.944   8.544 -0.1371  0.1095  0.0038
60882W        W 3799  34.180  20.266   8.920 -0.1494 -0.3744 -0.2679
60883W        W 3800   3.246  16.342   7.438 -0.3953 -0.0112 -0.4842
60884W        W 3801   1.850  13.908   8.914  0.1380 -0.2734 -0.0012
60885W        W 3802   1.143  16.821   7.347  0.2293 -0.0161  0.3638
60886W        W 3803   2.032  16.876   7.404 -0.3035  0.1290  0.2021
60887W        W 3804   0.823  14.475   7.745 -0.1077  0.0601 -0.0735
60888W        W 3805   0.584  16.744   8.243 -0.1458 -0.0404 -0.0642
60889W        W 3806  33.692  18.164   8.854 -0.0805  0.0307 -0.1246
60890W        W 3807   1.584  17.495   8.197  0.0218 -0.0807 -0.0467
60891W        W 3808   2.068  17.887   7.295 -0.3866  0.0043  0.0975
60892W        W 3809   2.697  14.706  10.556  0.0757 -0.2584 -0.0149
60893W        W 3810   0.733  20.304   9.465 -0.1942  0.4591  0.2098
60894W        W 3811   1.628  15.329   6.272  0.0294  0.1210  0.1667
60895W        W 3812   0.066  15.880   7.432  0.0417 -0.0540 -0.3714
60896W        W 3813   3.650  14.352   8.900 -0.1240  0.2492  0.2100
60897W        W 3814   2.811  16.894   8.269 -0.2489 -0.0517  0.2976
60898W        W 3815   0.750  14.071   9.111  0.1600 -0.0800  0.1083
60899W        W 3816   1.416  13.543   9.038  0.0688  0.5236 -0.3308
60900W        W 3817  32.463  21.621   8.885 -0.1521  0.1338  0.0154
60901W        W 3818   2.643  14.759   8.944 -0.0039  0.0603  0.2082
60902W        W 3819   0.478  16.273   8.009  0.2560  0.3455 -0.0897
60903W        W 3820   1.183  15.401   9.299 -0.0972 -0.2256 -0.0385
60904W        W 3821   1.961  16.036   8.720  0.1470 -0.4542 -0.1472
60905W        W 3822  33.872  17.176   9.113  0.1489  0.1089 -0.0128
60906W        W 3823   1.622  17.993   8.319  0.0778  0.2635  0.2632
60907W        W 3824   1.370  15.511   7.747  0.2148  0.1637 -0.1268
60908W        W 3825  34.445  16.414   8.641 -0.1098  0.1609  0.0398
60909W        W 3826   2.495  16.255   9.648 -0.2431 -0.0208  0.1764
60910W        W 3827   1.932  16.537   8.312 -0.1446  0.0549 -0.1049
60911W        W 3828  34.497  13.700   8.269  0.1404 -0.0405 -0.0596
60912W        W 3829   1.586  16.971  10.041 -0.0562  0.0386  0.0130
60913W        W 3830   2.866  16.608   7.285 -0.1880  0.0097 -0.2586
60914W        W 3831   1.981  15.511   8.746 -0.0571 -0.0074  0.3241
60915W        W 3832   2.172  14.739  10.610  0.1654  0.1958  0.1281
60916W        W 3833   2.647  19.132   7.510  0.1057 -0.0469 -0.1010
60917W        W 3834   0.855  15.447   7.709  0.0132 -0.2628 -0.0343
60918W        W 3835  33.565  13.793   9.483  0.3668 -0.0154 -0.3768
60919W        W 3836  33.944  16.542   8.396  0.1603 -0.1206  0.0333
60920W        W 3837   3.394  13.900  10.120  0.0213 -0.0558 -0.2249
60921W        W 3838   0.188  19.036   9.345  0.0878 -0.3480  0.0552
60922W        W 3839  34.282  17.429   8.337  0.1173  0.1789  0.1831
60923W        W 3840  34.374  20.596   8.604 -0.2010  0.0246 -0.1210
60924W        W 3841   4.086  14.709   8.304  0.3134 -0.0194  0.2042
60925W        W 3842   0.925  14.882   6.962 -0.2186 -0.2241  0.0344
60926W        W 3843   1.731  13.818   9.379  0.2619  0.4023  0.1624
60927W        W 3844   1.654  16.699   7.128 -0.0577  0.2554 -0.2252
60928W        W 3845   0.704  13.407   8.412 -0.1637  0.2418  0.2160
60929W        W 3846   1.916  17.486   7.623 -0.0312  0.0057 -0.1464
60930W        W 3847   2.100  14.816   9.354 -0.2467  0.4675  0.1964
60931W        W 3848   2.500  15.075   7.080 -0.1606 -0.2227 -0.1212
60932W        W 3849   0.688  16.389   8.549  0.2220  0.0086 -0.0566
60933W        W 3850  33.971  16.429   9.731  0.1190 -0.3552  0.1191
60934W        W 3851   1.416  17.726   7.586  0.1826  0.1598 -0.3632
60935W        W 3852   1.110  15.659   8.204  0.1269  0.1427  0.0339
60936W        W 3853   0.302  13.675   9.297 -0.2518 -0.1490 -0.0252
60937W        W 3854   2.468  15.710   8.956 -0.1719  0.1004  0.0353
60938W        W 3855   2.353  15.144   8.998  0.0140  0.3190  0.0383
60939W        W 3856   0.182  17.020   8.091  0.2921  0.0870 -0.2579
60940W        W 3857   3.948  17.187   7.269  0.1496 -0.0006 -0.0096
60941W        W 3858   4.474  17.945   7.372 -0.0645 -0.2169  0.1431
60942W        W 3859   4.077  18.898   9.260  0.0635  0.2052  0.2629
60943W        W 3860   2.686  13.702   6.851 -0.2089  0.1386  0.0753
60944W        W 3861   4.431  15.985   9.194  0.0922  0.4575 -0.0640
60945W        W 3862   4.638  17.996   8.240  0.0117 -0.1021 -0.0741
60946W        W 3863   2.505  16.118   8.620 -0.2903  0.1046 -0.1518
60947W        W 3864   1.988  18.463   9.413 -0.1068 -0.0990  0.1283
60948W        W 3865   1.297  14.557   7.751 -0.0854  0.0545 -0.0597
60949W        W 3866  34.248  18.867   6.960 -0.0625  0.0831  0.2502
60950W        W 3867   0.709  14.585   9.495 -0.2135  0.0652 -0.1259
60951W        W 3868   2.749  15.552  10.007 -0.1376 -0.1761 -0.0513
60952W        W 3869   0.595  15.822   8.278  0.0350 -0.0674 -0.0643
60953W        W 3870   2.326  13.796   8.247 -0.1911  0.1724 -0.0003
60954W        W 3871   1.381  15.625   7.259  0.0090  0.1364 -0.1838
60955W        W 3872   3.443  17.380   8.632 -0.2559  0.1213 -0.0928
60956W        W 3873   6.062  15.744   8.726 -0.0727 -0.0032  0.3903
60957W        W 3874   0.410  18.013   8.466  0.3484  0.2781 -0.0741
60958W        W 3875   4.213  14.863   9.391  0.1138  0.2734  0.0095
60959W        W 3876  32.991  18.858   8.630 -0.2014 -0.1443  0.1089
60960W        W 3877   0.747  18.279   8.186 -0.0274  0.0385  0.1953
60961W        W 3878   3.476   9.822   9.058 -0.1935 -0.0337  0.0365
60962W        W 3879   3.934  14.787   9.878 -0.0240  0.1336 -0.1032
60963W        W 3880   1.816  15.950   7.757 -0.1365  0.0259  0.0954
60964W        W 3881   1.411  15.234   8.290 -0.0242 -0.2783  0.0980
60965W        W 3882   4.016  16.280   9.880 -0.0642 -0.1702  0.1422
60966W        W 3883  33.356  15.692   9.083 -0.1925  0.4643 -0.1263
60967W        W 3884   1.659  17.733   9.136 -0.1192  0.0046 -0.1368
60968W        W 3885   1.392  13.440   7.483  0.3719  0.1715  0.0653
60969W        W 3886   1.109  18.171   9.025 -0.0315  0.2893  0.0124
60970W        W 3887  33.585  16.166   6.887  0.2991  0.0757 -0.1436
60971W        W 3888   0.646  19.154   9.442 -0.0358  0.3026  0.1701
60972W        W 3889   4.072  18.881   7.798  0.2253  0.0601 -0.0607
60973W        W 3890   2.608  18.069   6.181 -0.2471  0.1739 -0.1925
60974W        W 3891   2.007  15.331   9.339  0.4102 -0.1120  0.0288
60975W        W 3892   1.372  14.878   8.779 -0.0400  0.0249  0.6872
60976W        W 3893   0.723  17.754   8.146 -0.1977 -0.0990 -0.0032
60977W        W 3894   0.979  18.841   7.049  0.1113 -0.2127  0.0339
60978W        W 3895   0.220  17.707   5.822 -0.3687  0.0382 -0.0039
60979W        W 3896   2.380  19.078   8.017 -0.0068  0.1098  0.3505
60980W        W 3897   2.285  13.884   7.370 -0.0262 -0.0460  0.0641
60981W        W 3898   1.347  14.735   8.297 -0.1629  0.0248 -0.0262
60982W        W 3899   4.004  16.740   9.516  0.0440 -0.2921  0.2146
60983W        W 3900   3.465  19.710   9.165  0.1730 -0.0240 -0.0415
60984W        W 3901   3.756  14.238   8.287  0.2178 -0.1420  0.2300
60985W        W 3902   1.698  16.482   8.711 -0.1464  0.1053  0.2718
60986W        W 3903   0.797  16.427   9.025  0.0168 -0.1269  0.0680
60987W        W 3904   0.908  16.831   7.808 -0.1030  0.0545 -0.2822
60988W        W 3905   2.420  14.038   9.748  0.0037  0.0983  0.2664
60989W        W 3906  34.651  17.672   6.289 -0.0161  0.0936 -0.0471
60990W        W 3907   1.157  14.991   9.581  0.0177  0.1666  0.2726
60991W        W 3908   1.206  17.975   8.076  0.0239  0.0387 -0.2113
60992W        W 3909  34.318  14.234   8.873 -0.1910 -0.0642  0.2259
60993W        W 3910  33.958  20.990   8.289 -0.3843  0.4697 -0.0438
60994W        W 3911   0.330  13.708   8.320 -0.0971  0.1947 -0.3414
60995W        W 3912   4.528  14.661   8.763 -0.1548 -0.1375 -0.2717
60996W        W 3913   1.953  17.034   7.923 -0.1119  0.0294 -0.1079
60997W        W 3914   2.466  16.777   9.321  0.1342  0.1446  0.0015
60998W        W 3915   3.440  16.901   8.775  0.2460  0.0702 -0.0484
60999W        W 3916   1.096  17.473   8.311 -0.1332 -0.0200  0.0782
61000W        W 3917  34.622  16.040   8.971  0.1506  0.2795 -0.3094
61001W        W 3918   0.585  17.158   7.463 -0.1928  0.5030 -0.1939
61002W        W 3919   1.780  14.511   7.567  0.0653  0.2059  0.0911
61003W        W 3920   1.991  16.934   9.695  0.1032  0.0185  0.0893
61004W        W 3921   2.109  14.371   7.204 -0.0107  0.2822 -0.2423
61005W        W 3922   0.250  16.474   8.847  0.3515  0.0261 -0.2510
61006W        W 3923   1.024  15.021   9.076 -0.0951  0.1179 -0.1563
61007W        W 3924   1.055  12.110   8.838 -0.0757 -0.0113  0.0054
61008W        W 3925   3.948  18.410   8.092  0.1263 -0.1823  0.1317
61009W        W 3926   2.882  14.696   9.849 -0.0958  0.3094 -0.1157
61010W        W 3927   2.459  18.384   7.307 -0.0334 -0.2338 -0.2863
61011W        W 3928   4.728  18.208   9.703 -0.3643  0.1369  0.1518
61012W        W 3929   2.327  16.241   9.129  0.0248  0.0950  0.1874
61013W        W 3930  33.462  13.909   9.006 -0.2293 -0.0248 -0.0689
61014W        W 3931   3.603  16.416   9.579  0.0094  0.1695 -0.0449
61015W        W 3932   4.392  19.168   8.834 -0.1233  0.1647  0.1189
61016W        W 3933   1.550  14.993   9.293  0.1930 -0.0933  0.2224
61017W        W 3934   1.012  16.395   7.617  0.2457  0.0007 -0.1471
61018W        W 3935  34.333  17.833   8.771 -0.2159 -0.1223 -0.0665
61019W        W 3936   0.082  16.540   8.159 -0.1058  0.4663 -0.2774
61020W        W 3937   0.425  18.995   4.651 -0.1489  0.1336 -0.0794
61021W        W 3938  34.621  15.511   9.072 -0.0547  0.0307  0.2320
61022W        W 3939   0.702  15.202   6.575  0.0080 -0.0031 -0.1623
61023W        W 3940   0.481  18.250   6.574  0.2983 -0.0689 -0.0080
61024W        W 3941   2.513  17.282   7.574  0.0661 -0.0191  0.2466
61025W        W 3942   2.358  17.712   7.714 -0.1209 -0.1460 -0.0265
61026W        W 3943   2.488  15.633   9.442 -0.2933  0.0319  0.0451
61027W        W 3944   2.076  15.855   9.217  0.0605  0.0554  0.2905
61028W        W 3945   0.460  15.045   7.181  0.3283  0.0894 -0.0860
61029W        W 3946   3.491  13.114   9.399 -0.1861  0.1496 -0.1917
61030W        W 3947   2.478  14.423   8.090  0.1780  0.1703  0.0146
61031W        W 3948   1.193  16.564   8.684  0.0436  0.1780  0.0384
61032W        W 3949  33.349  15.667   6.796 -0.0779 -0.1090 -0.2032
61033W        W 3950  34.169  15.562   6.706  0.1650 -0.3100  0.0375
61034W        W 3951   0.315  15.671   8.755 -0.1685  0.3819  0.2039
61035W        W 3952  34.245  16.353   9.193 -0.2960 -0.2272 -0.0477
61036W        W 3953   1.551  13.950   7.722  0.2439  0.1368 -0.4438
61037W        W 3954   2.972  18.216   7.226 -0.0220 -0.5437 -0.0864
61038W        W 3955   0.038  16.409   9.314  0.1000  0.0251 -0.1405
61039W        W 3956  34.473  13.875   9.252  0.1086  0.1681  0.0040
61040W        W 3957   4.138  17.465   7.680 -0.2647 -0.0591  0.0583
61041W        W 3958   2.926  18.027   6.570 -0.1359  0.0702 -0.0603
61042W        W 3959   1.701  14.352   8.131  0.0842 -0.0663  0.1236
61043W        W 3960   0.339  14.458   7.753  0.1430 -0.1474  0.1985
61044W        W 3961  33.979  16.207   6.551 -0.0588 -0.1289  0.1096
61045W        W 3962   1.010  16.079   8.465  0.2231  0.1246 -0.2386
61046W        W 3963   2.074  19.160   6.469  0.0355 -0.0952 -0.0754
61047W        W 3964   1.318  18.462   6.176  0.0795 -0.1035  0.0459
61048W        W 3965   0.954  17.717   7.709 -0.0467  0.0696  0.1607
61049W        W 3966   2.094  16.421   7.225  0.2060  0.1797  0.1224
61050W        W 3967   3.609  16.086   9.096  0.0067 -0.1642  0.2087
61051W        W 3968   5.012  12.843   9.015 -0.1852 -0.0730 -0.4062
61052W        W 3969  33.413  15.332   8.161 -0.2106 -0.0630  0.1412
61053W        W 3970   3.458  16.804   7.602  0.2514 -0.1444  0.4694
61054W        W 3971   1.008  11.272   8.912  0.2639  0.0204  0.2159
61055W        W 3972   3.641  16.044   8.199  0.2608  0.2809 -0.2668
61056W        W 3973   1.542  16.884   8.439  0.1526  0.2769  0.2600
61057W        W 3974  33.026  14.716   9.209  0.3579 -0.4031 -0.0423
61058W        W 3975   1.815  15.854   7.173  0.4894 -0.2384 -0.1012
61059W        W 3976   2.462  17.426   8.082  0.1429  0.0159 -0.2436
61060W        W 3977  34.619  14.811   7.023 -0.1301 -0.1609  0.2127
61061W        W 3978   4.178  17.209   9.451 -0.1743 -0.1482  0.1121
61062W        W 3979   3.813  18.446   9.278 -0.1436  0.2816 -0.2026
61063W        W 3980   0.616  18.943   7.369 -0.0321  0.2232  0.2640
61064W        W 3981   1.859  17.971   6.803 -0.1110  0.0876 -0.0150
61065W        W 3982  33.754  13.422   8.800  0.1032 -0.3957 -0.1031
61066W        W 3983  33.053  17.161   6.364 -0.2639  0.2313  0.1791
61067W        W 3984   0.091  16.349   7.606 -0.0242  0.3146  0.2134
61068W        W 3985   3.023  15.636   8.047  0.2922  0.1135 -0.1829
61069W        W 3986   0.974  14.879   7.461  0.0003  0.1984 -0.1494
61070W        W 3987   2.247  14.888   7.543  0.1168 -0.1006 -0.1448
61071W        W 3988   1.154  19.910   8.074 -0.1229  0.1468 -0.1890
61072W        W 3989   1.494  18.463   8.060 -0.1101 -0.0076 -0.0228
61073W        W 3990   0.835  20.834   2.425  0.1784 -0.0299 -0.0072
61074W        W 3991   0.998  17.928   0.392  0.0423 -0.0361 -0.0826
61075W        W 3992   4.081  19.555  30.543 -0.2857  0.1184 -0.3446
61076W        W 3993   5.708  20.339  29.845 -0.0399  0.0262  0.0115
61077W        W 3994   0.238  19.471   1.366 -0.1056 -0.1835 -0.1170
61078W        W 3995   1.138  21.491  31.172  0.0241  0.0263 -0.2009
61079W        W 3996  34.443  18.197   1.978  0.1852 -0.1033  0.2202
61080W        W 3997   1.877  20.745   1.401  0.2805 -0.3563  0.4053
61081W        W 3998   3.604  22.595   1.701 -0.0157  0.2346 -0.2593
61082W        W 3999   1.698  20.535  31.770 -0.2448 -0.1785 -0.0605
61083W        W 4000   1.727  20.347   2.346 -0.1311 -0.0112 -0.1446
61084W        W 4001   1.180  21.259   2.315  0.3033 -0.0154  0.0529
61085W        W 4002   2.204  19.312   1.555  0.0986  0.2473 -0.0241
61086W        W 4003   1.336  19.607   1.607  0.1999 -0.1994 -0.1648
61087W        W 4004   4.196  19.796   1.861 -0.0008 -0.2426 -0.2452
61088W        W 4005  32.551  17.248  31.510  0.0481  0.0683  0.2229
61089W        W 4006   2.449  18.923   1.399  0.1549  0.1052 -0.3497
61090W        W 4007   1.008  17.883  30.998 -0.1452  0.0698 -0.0464
61091W        W 4008   1.007  19.983   1.810  0.2013 -0.2234  0.0687
61092W        W 4009   1.305  18.084   1.078  0.2193  0.0153  0.3759
61093W        W 4010   3.637  19.326   4.114  0.0126  0.0433  0.1973
61094W        W 4011   1.756  22.077  31.582 -0.2067  0.1354  0.3408
61095W        W 4012  34.466  18.727   0.211  0.4099  0.1912  0.4571
61096W        W 4013  34.125  18.290   2.504  0.0317 -0.2559 -0.1755
61097W        W 4014   2.192  19.624   1.153 -0.2047  0.0127  0.0424
61098W        W 4015   3.033  17.831   2.826  0.0537 -0.0228 -0.0793
61099W        W 4016   3.547  20.651   1.495  0.0416  0.0905  0.0804
61100W        W 4017  34.506  21.342  31.781 -0.1797 -0.0329 -0.3214
61101W        W 4018   2.185  21.466   0.921  0.0720  0.1065 -0.0627
61102W        W 4019   1.845  19.154   2.403 -0.2711 -0.1385 -0.1121
61103W        W 4020  34.596  21.999   2.071  0.0568  0.1033 -0.0835
61104W        W 4021   0.564  22.120   0.313 -0.0207  0.1056  0.0606
61105W        W 4022   3.123  21.352   1.045  0.3161  0.2075  0.0635
61106W        W 4023   4.740  20.457   0.370 -0.0520 -0.1313  0.0470
61107W        W 4024   3.697  20.177   1.295  0.2768  0.0174  0.0687
61108W        W 4025   1.235  21.807   2.059  0.1982 -0.0843  0.0778
61109W        W 4026  33.644  20.827  31.801  0.0889 -0.0466 -0.0119
61110W        W 4027   1.149  22.220   3.168 -0.0236  0.4570  0.1670
61111W        W 4028  33.940  21.768   3.348 -0.1643 -0.0870  0.2711
61112W        W 4029   3.002  19.806   3.714  0.0085 -0.2252  0.2994
61113W        W 4030   1.700  20.286   3.274  0.2451 -0.1686 -0.1929
61114W        W 4031   1.022  18.846   0.448 -0.1046 -0.1481 -0.0563
61115W        W 4032   2.093  20.476   2.996 -0.1970  0.4661  0.1223
61116W        W 4033   1.276  21.010   2.725  0.0748 -0.5313  0.2435
61117W        W 4034  34.244  21.442   0.219 -0.0340 -0.2013 -0.1518
61118W        W 4035   4.126  18.001   4.154  0.0708 -0.0715  0.2036
61119W        W 4036   0.119  20.411   1.600  0.1688  0.1275 -0.1110
61120W        W 4037   4.165  19.789   1.250 -0.1029  0.0346  0.1412
61121W        W 4038   0.055  17.002  29.896 -0.3851  0.3085  0.0499
61122W        W 4039   4.441  19.156   1.336 -0.0631  0.1445  0.2485
61123W        W 4040   0.874  17.810   1.290  0.1236 -0.0215 -0.0866
61124W        W 4041   1.345  18.780   1.020  0.4283  0.0185 -0.1525
61125W        W 4042   1.192  18.393   0.711 -0.0320  0.2643 -0.1219
61126W        W 4043   2.881  19.686   2.053  0.1529 -0.3440 -0.1824
61127W        W 4044   1.443  20.598   1.187 -0.1380 -0.1103 -0.0942
61128W        W 4045   2.083  18.952   1.927  0.4543  0.1675 -0.1243
61129W        W 4046  34.378  22.293   2.892 -0.0800  0.0772  0.0587
61130W        W 4047   1.425  21.076   1.464 -0.0321 -0.1201 -0.0729
61131W        W 4048   4.111  23.808  30.575  0.1298  0.0385 -0.1948
61132W        W 4049   1.701  20.939   0.911  0.0411  0.2455 -0.1842
61133W        W 4050   2.721  20.009   0.573  0.2747 -0.1042 -0.1104
61134W        W 4051   1.603  19.736   1.196  0.1869  0.0550 -0.4067
61135W        W 4052   1.140  18.571   3.508  0.0653  0.3307  0.0706
61136W        W 4053   0.817  20.418   2.106 -0.1590 -0.1461  0.1038
61137W        W 4054   1.421  19.213  31.582  0.0391  0.0517  0.0496
61138W        W 4055   2.303  20.473   1.125 -0.1113  0.0389  0.1615
61139W        W 4056  34.413  20.088   1.158 -0.1024  0.1189 -0.0887
61140W        W 4057   1.781  17.641   1.648  0.1389  0.0847  0.0000
61141W        W 4058   2.028  21.488   3.130  0.3112  0.1856  0.1777
61142W        W 4059   2.826  21.496   2.080  0.0635  0.1157 -0.2291
61143W        W 4060   1.389  20.615   0.711 -0.1140 -0.2013  0.3809
61144W        W 4061   2.473  19.009   0.445  0.0192 -0.1383  0.1898
61145W        W 4062   4.045  18.407   2.976 -0.2241  0.1275 -0.2398
61146W        W 4063  33.680  21.246   0.182 -0.0685 -0.0126  0.0033
61147W        W 4064   0.971  20.865   0.535 -0.3014  0.2699 -0.0773
61148W        W 4065   2.322  20.649   1.667 -0.2933 -0.0465  0.1894
61149W        W 4066   4.035  20.678   1.372  0.2862 -0.3307  0.0338
61150W        W 4067   2.282  20.763   2.136  0.1020 -0.1026 -0.0301
61151W        W 4068   2.942  19.191   2.175 -0.1413  0.3476 -0.2395
61152W        W 4069   0.819  20.991   2.915  0.1482  0.0856 -0.4682
61153W        W 4070  33.271  22.106   0.134  0.0345 -0.1233 -0.1044
61154W        W 4071   0.630  18.818   0.079  0.1418  0.1945 -0.3562
61155W        W 4072   2.518  19.507  31.234 -0.1088  0.1608  0.0531
61156W        W 4073   0.805  17.766   3.284 -0.0342 -0.1197 -0.2870
61157W        W 4074   0.460  20.514   1.183  0.1470  0.1023  0.3565
61158W        W 4075   3.576  17.720   0.842  0.0114 -0.2659  0.0297
61159W        W 4076   1.302  17.429   1.761  0.0331  0.1572  0.3041
61160W        W 4077   4.296  17.319  31.385 -0.0239  0.0733  0.1799
61161W        W 4078  34.516  19.150   1.754 -0.1389 -0.0877 -0.0131
61162W        W 4079   2.246  20.085   0.481  0.1526  0.2106  0.1980
61163W        W 4080   3.064  20.459   0.480 -0.1100  0.3161  0.0336
61164W        W 4081   1.904  23.773   0.981 -0.1994  0.1634  0.2486
61165W        W 4082  32.371  18.457   1.224 -0.1657  0.1123  0.0919
61166W        W 4083  34.367  18.844  31.163 -0.0105  0.1256 -0.0280
61167W        W 4084   0.851  19.556   3.693  0.1733  0.2274  0.1000
61168W        W 4085  34.546  18.298   0.497 -0.1725 -0.3431 -0.0055
61169W        W 4086   4.453  19.179   2.645  0.1974  0.0257 -0.0388
61170W        W 4087  34.673  19.574  31.037 -0.2960 -0.0660 -0.1296
61171W        W 4088   1.960  21.262   0.552  0.0860 -0.0424 -0.1280
61172W        W 4089   0.937  18.719   1.809  0.1429  0.1467 -0.0056
61173W        W 4090   0.066  21.072   2.465  0.0744 -0.2036 -0.1031
61174W        W 4091   2.135  18.814   3.473  0.1369 -0.1374  0.2200
61175W        W 4092   1.595  23.319   0.111  0.0620 -0.1041 -0.0332
61176W        W 4093   2.218  22.643   2.733  0.1424 -0.0935 -0.2409
61177W        W 4094   3.453  21.226   1.412  0.1112 -0.3009  0.1662
61178W        W 4095   0.875  17.377   0.579  0.1155 -0.0324 -0.3242
61179W        W 4096   1.440  20.132   0.917 -0.2747  0.1744 -0.0764
61180W        W 4097  34.551  22.941  31.827  0.0295  0.1044  0.0715
61181W        W 4098   1.762  22.061   0.695  0.2969  0.2746 -0.1685
61182W        W 4099  34.250  19.125   1.073  0.0506 -0.0543 -0.1844
61183W        W 4100   4.146  22.334   1.965  0.0728  0.2289  0.0248
61184W        W 4101  34.650  21.332   1.246  0.0824  0.0695 -0.0982
61185W        W 4102   0.473  19.864   1.999 -0.0838 -0.2071  0.2728
61186W        W 4103   4.067  20.576   3.322 -0.0292 -0.0854  0.1602
61187W        W 4104   3.631  19.850   0.982 -0.2614  0.1712  0.1492
61188W        W 4105   1.742  20.889   2.365  0.3893  0.0075 -0.1165
61189W        W 4106   0.484  19.349  31.105 -0.0188  0.3845 -0.0392
61190W        W 4107   4.104  21.294   0.623  0.2396  0.2124 -0.2994
61191W        W 4108   0.055  20.309   0.891 -0.0076 -0.2016  0.0855
61192W        W 4109  34.073  18.843   1.465 -0.0230 -0.2873 -0.0522
61193W        W 4110   2.181  20.430   0.134 -0.2069  0.2718 -0.0659
61194W        W 4111   3.717  18.354   2.630  0.0676  0.0967 -0.0444
61195W        W 4112  32.777  20.239   2.700 -0.2378 -0.1976 -0.0056
61196W        W 4113   1.201  20.027   2.939  0.3196  0.2932 -0.0101
61197W        W 4114   1.284  22.018  31.447  0.2010 -0.0614  0.0256
61198W        W 4115  34.137  21.469   2.103 -0.0643 -0.2002  0.3618
61199W        W 4116   3.909  19.404   0.524  0.0060 -0.4308 -0.2516
61200W        W 4117   4.235  19.491   0.006  0.1235  0.4702 -0.1228
61201W        W 4118   1.424  19.024   4.396 -0.3049  0.0467  0.0730
61202W        W 4119   5.163  19.791   1.004  0.4072 -0.3186  0.1415
61203W        W 4120   2.908  20.405  31.343  0.1699 -0.0046  0.0219
61204W        W 4121   3.038  19.363  31.686  0.0280  0.0264  0.1413
61205W        W 4122   0.411  19.656   2.954  0.0420  0.1262  0.0685
61206W        W 4123   0.731  21.985   1.060 -0.0237  0.0927  0.0913
61207W        W 4124   1.524  21.395   0.884 -0.1115 -0.2401 -0.0520
61208W        W 4125   1.276  19.375   0.275  0.0334 -0.0213 -0.1768
61209W        W 4126   3.807  21.008   2.469  0.2621  0.0744 -0.0666
61210W        W 4127   1.943  20.730   3.390  0.2188 -0.2313 -0.2536
61211W        W 4128   3.417  20.088   2.549  0.1024  0.2081  0.1791
61212W        W 4129   3.196  21.671   1.422  0.0296  0.0020 -0.3589
61213W        W 4130   1.715  17.687   3.548  0.3097  0.1662  0.1373
61214W        W 4131   1.013  18.374   0.103  0.0352  0.1413  0.0059
61215W        W 4132   1.531  16.605   0.513  0.2927  0.2480  0.1958
61216W        W 4133  33.407  21.001   1.670  0.1658  0.2896 -0.5593
61217W        W 4134   3.898  18.527   3.856  0.1606  0.0830 -0.1704
61218W        W 4135   1.018  17.328   1.039 -0.0003 -0.1335  0.0443
61219W        W 4136   2.085  17.649   3.992 -0.2595  0.4040 -0.1591
61220W        W 4137   2.233  19.610   3.088 -0.2380 -0.0599 -0.1130
61221W        W 4138   1.059  19.362  30.758  0.1035  0.0415 -0.0450
61222W        W 4139   1.002  20.700   1.495 -0.1467 -0.2433 -0.3316
61223W        W 4140   1.391  19.743  30.787  0.0407  0.2078  0.2486
61224W        W 4141   3.053  18.331   2.981 -0.0641  0.2563 -0.0104
61225W        W 4142   2.226  20.310   2.461  0.4571  0.1494  0.0232
61226W        W 4143   0.570  22.112   3.903  0.1599 -0.3586  0.0168
61227W        W 4144   2.644  18.796   2.025  0.0978  0.0406  0.4606
61228W        W 4145   2.617  19.198   1.794 -0.1890 -0.1459  0.3233
61229W        W 4146   3.474  18.281   3.793 -0.0513  0.0442  0.5391
61230W        W 4147   1.414  19.616   0.748 -0.0848  0.3189 -0.1928
61231W        W 4148   0.488  22.941   1.300  0.5303  0.1704  0.0247
61232W        W 4149   2.125  21.351  30.092 -0.0214  0.0179  0.1346
61233W        W 4150   1.969  19.906   2.255  0.0367 -0.1961  0.1478
61234W        W 4151   1.961  21.792   2.263 -0.1595  0.4411 -0.2222
61235W        W 4152   0.243  20.840  31.204 -0.0765 -0.1290  0.3029
61236W        W 4153   3.421  20.334   2.999  0.0137  0.0804  0.0133
61237W        W 4154   1.426  22.282   0.379  0.0929  0.2319 -0.3361
61238W        W 4155   2.670  18.893   2.618  0.2995 -0.2882 -0.1441
61239W        W 4156  33.555  21.346  31.010 -0.3540  0.0485  0.3389
61240W        W 4157   1.509  18.260  31.743  0.2127 -0.0254  0.1378
61241W        W 4158  34.610  18.070   0.980 -0.2600  0.0442  0.0394
61242W        W 4159   3.316  17.699   3.823 -0.3514 -0.0686 -0.0041
61243W        W 4160   6.071  20.937   0.063  0.0351  0.3374 -0.1221
61244W        W 4161   1.079  20.105   2.441 -0.2364  0.0668  0.0820
61245W        W 4162   1.040  20.541   2.779  0.4661  0.1663  0.3110
61246W        W 4163   0.466  20.356   0.016 -0.0368  0.0296 -0.1630
61247W        W 4164   2.675  21.008   1.961  0.0883 -0.3786  0.3016
61248W        W 4165   2.299  19.642  30.804 -0.2090 -0.0639  0.0534
61249W        W 4166   2.129  20.825   2.669 -0.0404  0.0758  0.0632
61250W        W 4167   2.187  20.105   3.304 -0.0086 -0.0008 -0.1784
61251W        W 4168  34.069  18.986   0.084  0.0149 -0.2425  0.2625
61252W        W 4169   4.016  18.842   2.689  0.2694 -0.3218  0.3724
61253W        W 4170   0.708  19.252   0.327 -0.3820  0.0301  0.1692
61254W        W 4171  31.930  21.703   0.927 -0.1565  0.0896 -0.1771
61255W        W 4172   1.909  20.043   2.861 -0.0517  0.0666  0.1257
61256W        W 4173   1.347  20.433   0.254  0.1789 -0.0641  0.2121
61257W        W 4174   1.665  19.609  31.489 -0.2340  0.0302  0.0205
61258W        W 4175  34.453  19.547   2.698  0.1816 -0.1204  0.1784
61259W        W 4176   3.450  20.475   4.022 -0.0367 -0.0159 -0.0590
61260W        W 4177   2.221  18.552   1.107 -0.1801  0.0822 -0.0369
61261W        W 4178   0.411  19.108   1.719  0.1347  0.0587  0.5222
61262W        W 4179   1.100  19.695  31.736 -0.0903  0.0214  0.2427
61263W        W 4180   1.066  19.262   0.799  0.0228 -0.2242 -0.0507
61264W        W 4181   2.287  18.739   2.944 -0.2061 -0.0696  0.1957
61265W        W 4182   0.350  21.581   0.950  0.1319 -0.1057 -0.0979
61266W        W 4183   2.041  19.336  31.183 -0.0918 -0.2067 -0.0284
61267W        W 4184   2.503  19.720   1.740  0.1341  0.2320  0.0615
61268W        W 4185   2.530  18.561   4.326  0.1675  0.1045  0.1301
61269W        W 4186   0.201  18.968   0.328 -0.0348  0.0539  0.1451
61270W        W 4187  34.428  19.477   1.360  0.1344 -0.2947  0.1850
61271W        W 4188   2.447  22.320   1.459  0.0225 -0.0910  0.0828
61272W        W 4189   1.908  19.319   0.832 -0.1199  0.3166  0.1405
61273W        W 4190   1.037  21.478   2.772 -0.2076 -0.0214  0.1107
61274W        W 4191   1.680  19.457  31.943 -0.2114  0.1714  0.1023
61275W        W 4192   0.465  20.810   1.615 -0.1602 -0.0781  0.0956
61276W        W 4193   3.340  20.247  31.508  0.0160 -0.0003  0.1508
61277W        W 4194   1.282  22.492  31.575 -0.1614 -0.1722  0.0818
61278W        W 4195   3.239  19.466   0.955  0.0070 -0.1626  0.0195
61279W        W 4196   4.343  18.955   4.430 -0.3264 -0.2211 -0.0418
61280W        W 4197   3.217  20.165   1.065  0.1218  0.0881  0.0605
61281W        W 4198   0.803  18.102   0.896 -0.0673  0.2243 -0.0234
61282W        W 4199  34.607  17.667   3.372  0.2883 -0.0871 -0.2396
61283W        W 4200   4.766  19.469   0.122  0.1199 -0.3293 -0.0683
61284W        W 4201   1.684  18.376   1.115  0.1648  0.1282  0.0030
61285W        W 4202   3.220  21.420   3.573  0.0382  0.0344 -0.0026
61286W        W 4203   0.591  20.450   4.587 -0.0347 -0.3283  0.1083
61287W        W 4204   0.057  17.595   0.938 -0.1601  0.0243  0.0035
61288W        W 4205  33.980  19.227   0.536 -0.1935  0.1030  0.3733
61289W        W 4206   0.591  20.193   2.834 -0.0567 -0.4794  0.0740
61290W        W 4207   2.859  19.866   1.093  0.2006  0.3298  0.0966
61291W        W 4208   1.859  21.554   1.819  0.0068 -0.0523 -0.2971
61292W        W 4209   2.756  19.486   0.793  0.2645 -0.2099 -0.0266
61293W        W 4210  34.539  20.729   2.847 -0.1987  0.4611  0.0784
61294W        W 4211   2.559  19.949   0.068 -0.0999 -0.2031 -0.0702
61295W        W 4212   1.773  21.707   1.101  0.1796  0.2788  0.2169
61296W        W 4213   2.425  19.830   2.278  0.2259 -0.0727 -0.2864
61297W        W 4214   2.758  18.436   2.368  0.4078 -0.0959 -0.2367
61298W        W 4215   4.201  20.472   0.463 -0.2511  0.1069 -0.2302
61299W        W 4216   3.249  18.929   3.206 -0.0291 -0.1649 -0.2843
61300W        W 4217   1.421  19.566   3.658  0.2448  0.0381  0.0519
61301W        W 4218   2.182  19.461   2.046 -0.0546  0.0280 -0.3360
61302W        W 4219   1.871  19.640   1.682  0.0381 -0.2563 -0.0530
61303W        W 4220   0.036  17.247   2.193  0.1017 -0.0963  0.1951
61304W        W 4221   2.145  22.069   1.866  0.1751  0.1047 -0.0543
61305W        W 4222   5.012  20.236   2.258  0.1379 -0.2916 -0.0232
61306W        W 4223   4.023  18.535   4.352  0.2971 -0.0185  0.2517
61307W        W 4224   4.820  21.434   1.570 -0.2353  0.0693 -0.0001
61308W        W 4225   4.243  19.154   1.806  0.0654  0.3256 -0.2767
61309W        W 4226  33.988  18.192   1.938  0.4162  0.1591 -0.0915
61310W        W 4227   1.283  18.648   3.976  0.0829  0.1052 -0.1444
61311W        W 4228   1.087  18.806  31.350  0.0279 -0.1216  0.0305
61312W        W 4229   2.461  19.144   3.275  0.2431  0.2183 -0.3171
61313W        W 4230   3.784  20.523   0.926  0.0499  0.0556  0.1439
61314W        W 4231   1.648  21.669   0.447  0.0053 -0.2947 -0.1605
61315W        W 4232   3.825  19.503   1.653 -0.2523  0.4016  0.3240
61316W        W 4233   0.694  20.973   1.243 -0.0913 -0.1969 -0.1656
61317W        W 4234  34.395  22.567   4.084  0.0460  0.0073 -0.0158
61318W        W 4235   0.594  20.049  29.974  0.1095 -0.0681  0.1128
61319W        W 4236   3.415  19.635   1.390 -0.2235 -0.0812  0.1985
61320W        W 4237   4.494  23.372   2.252 -0.0682 -0.1655  0.3852
61321W        W 4238   3.755  18.929   4.458 -0.0769  0.1514  0.2581
61322W        W 4239   3.513  18.241  31.665  0.2398 -0.0013 -0.0419
61323W        W 4240   3.712  17.567   3.038 -0.2660 -0.1524 -0.1523
61324W        W 4241  34.242  20.279   0.750  0.0937  0.1444 -0.1422
61325W        W 4242   4.595  19.625   1.499  0.1825  0.0043  0.0019
61326W        W 4243   0.672  22.068   3.160 -0.0926  0.0107  0.0639
61327W        W 4244  34.513  20.715   1.257 -0.1811 -0.2095 -0.0091
61328W        W 4245  34.253  20.977   2.034  0.1820  0.0032 -0.0750
61329W        W 4246   1.478  19.220   1.216  0.4032  0.3522 -0.1633
61330W        W 4247   2.951  19.800   1.577 -0.0791 -0.0450 -0.1046
61331W        W 4248   2.687  20.199   2.002  0.0904 -0.2450  0.1244
61332W        W 4249   3.785  19.627   3.177 -0.0697  0.1011  0.1901
61333W        W 4250   1.636  21.425   3.469 -0.0533 -0.0141 -0.1886
61334W        W 4251   0.846  21.278   1.623 -0.0547 -0.0109 -0.1709
61335W        W 4252   3.211  20.686   2.699  0.0337  0.2468 -0.1447
61336W        W 4253   2.142  17.600   1.113  0.1352 -0.1858  0.0013
61337W        W 4254   0.588  21.368  31.684  0.1074  0.1141  0.0661
61338W        W 4255   1.514  20.938   3.537  0.2384  0.2017 -0.2706
61339W        W 4256   2.936  20.073   2.386 -0.4593  0.0588 -0.0620
61340W        W 4257   4.204  20.272   0.986  0.0714  0.1297 -0.0507
61341W        W 4258  34.159  20.800  30.531 -0.2728 -0.2756 -0.1501
61342W        W 4259   1.436  21.051   0.475 -0.0338  0.1604 -0.0538
61343W        W 4260  34.408  22.014   3.350 -0.4706 -0.2242 -0.2184
61344W        W 4261  33.704  21.760   1.430  0.0844  0.0074 -0.1792
61345W        W 4262   2.184  20.960   0.211  0.1106  0.0195  0.0724
61346W        W 4263   2.823  22.036   1.361  0.0955  0.3121 -0.1150
61347W        W 4264   2.714  23.094   0.962 -0.1513  0.0102  0.2090
61348W        W 4265  34.298  20.544   0.276  0.3463 -0.1321  0.1284
61349W        W 4266   1.555  18.700   1.535  0.0234 -0.0427 -0.0614
61350W        W 4267  34.455  19.646   0.859 -0.0062 -0.0455 -0.0293
61351W        W 4268   0.723  21.657   0.126  0.2736 -0.0512 -0.1086
61352W        W 4269   2.510  20.001  31.129 -0.0832  0.0930 -0.1049
61353W        W 4270   0.863  21.465   1.074  0.3208 -0.0568  0.2586
61354W        W 4271   2.228  22.231   2.954  0.0743 -0.0770 -0.0233
61355W        W 4272   3.957  19.060   1.422 -0.2344 -0.2344  0.1408
61356W        W 4273   2.130  21.800   1.458 -0.1312 -0.0386  0.3039
61357W        W 4274   3.198  21.765   1.943 -0.1967 -0.1004  0.1806
61358W        W 4275   2.010  21.109   3.676 -0.1525 -0.2346  0.0035
61359W        W 4276   1.566  19.477   2.095  0.2319  0.2257 -0.1285
61360W        W 4277   0.261  18.807  31.190 -0.3349 -0.5048 -0.0104
61361W        W 4278   1.617  21.107   3.984 -0.1648 -0.1669 -0.3947
61362W        W 4279   4.911  18.460   3.894 -0.0489 -0.0783  0.0588
61363W        W 4280   0.344  22.173   2.651 -0.0616  0.1261  0.1045
61364W        W 4281   3.257  22.217   1.570 -0.2653 -0.1877  0.0804
61365W        W 4282  34.627  17.940   1.435  0.0363 -0.1193  0.0489
61366W        W 4283  34.249  18.254   1.525 -0.6145 -0.1275  0.1248
61367W        W 4284   2.516  17.158   2.189  0.1864 -0.1626  0.1292
61368W        W 4285   2.985  19.725   0.129  0.2277 -0.1606  0.1372
61369W        W 4286   1.734  18.707   2.646  0.0939  0.1361 -0.0598
61370W        W 4287   0.701  21.738   0.634  0.2632 -0.1054  0.0228
61371W        W 4288   1.886  21.044   1.885 -0.0617  0.3900 -0.3729
61372W        W 4289   1.447  21.292  31.591  0.2941 -0.0234 -0.3749
61373W        W 4290  33.159  20.650  31.566  0.2647 -0.0339  0.0372
61374W        W 4291   4.003  20.071   2.239  0.2072 -0.0636 -0.2041
61375W        W 4292   2.729  20.438   0.833 -0.0803  0.0763 -0.1909
61376W        W 4293   3.989  18.415   5.161  0.0945  0.1753 -0.1225
61377W        W 4294   1.168  19.518   3.227  0.0796  0.1715  0.0911
61378W        W 4295   5.568  19.484   0.362 -0.1997 -0.0215  0.0837
61379W        W 4296   1.324  21.853   0.850 -0.0512  0.4162 -0.1356
61380W        W 4297   1.611  18.105   1.598  0.1809 -0.1805  0.2541
61381W        W 4298   2.355  19.479  31.958 -0.1879 -0.2319 -0.0204
61382W        W 4299   3.045  20.159   4.111 -0.2112 -0.1061 -0.1581
61383W        W 4300   3.321  20.762   0.749  0.4081 -0.0876 -0.4924
61384W        W 4301   2.392  23.411   3.836  0.2476  0.3453 -0.1497
61385W        W 4302   0.826  18.249   1.967 -0.0568 -0.1588  0.1803
61386W        W 4303   3.488  20.198   0.620  0.0958 -0.0080  0.0244
61387W        W 4304  34.252  19.976   1.753 -0.1560 -0.4747  0.0474
61388W        W 4305   2.199  19.264   3.696  0.2181  0.1106 -0.0061
61389W        W 4306   2.533  22.155   3.324  0.2335 -0.0427 -0.2593
61390W        W 4307   1.497  17.776   2.090  0.0907  0.6663 -0.0283
61391W        W 4308   5.088  20.188   0.715 -0.0729 -0.0783  0.2545
61392W        W 4309   1.966  18.834   0.624  0.0265  0.2511 -0.1832
61393W        W 4310   1.475  21.130  30.839 -0.2826  0.1042 -0.0750
61394W        W 4311   4.107  21.966   1.571  0.0494 -0.1544 -0.0674
61395W        W 4312   3.586  21.521   0.900 -0.0954 -0.0001  0.0091
61396W        W 4313   1.746  19.179   1.628 -0.0591  0.2163 -0.2463
61397W        W 4314   0.941  21.791   4.042 -0.0864 -0.1950 -0.0056
61398W        W 4315   3.200  20.843   1.206 -0.3018  0.0242 -0.1227
61399W        W 4316   2.969  18.212   1.258 -0.6823 -0.1420  0.1129
61400W        W 4317   0.920  20.303   0.479 -0.0511  0.1098 -0.0996
61401W        W 4318   0.145  21.364  31.373 -0.0893 -0.1618  0.1686
61402W        W 4319   3.793  18.660   0.982  0.1427 -0.0375 -0.2042
61403W        W 4320   2.521  18.316   3.687  0.0398  0.0023  0.1528
61404W        W 4321   1.980  20.109   1.326 -0.0969  0.1260  0.1917
61405W        W 4322   3.179  17.395   3.049  0.0226 -0.1368 -0.2237
61406W        W 4323   1.819  22.609   0.865 -0.2014  0.0781  0.0982
61407W        W 4324  34.402  21.497   5.149  0.1338 -0.3854 -0.4529
61408W        W 4325  34.295  21.315  30.377  0.2090 -0.1535  0.1776
61409W        W 4326   0.780  19.867   3.212  0.0579  0.1518  0.1678
61410W        W 4327   1.484  20.250  31.012 -0.3134 -0.2594 -0.0003
61411W        W 4328  34.438  20.992  31.231 -0.2649 -0.1364 -0.1226
61412W        W 4329   2.582  21.009  31.906  0.1838 -0.2767  0.2560
61413W        W 4330   4.477  19.503   2.135 -0.0875 -0.0427 -0.0043
61414W        W 4331   4.785  20.558   0.990  0.0357 -0.0773 -0.2773
61415W        W 4332   3.759  18.758   0.371 -0.0835  0.0149  0.0519
61416W        W 4333   2.538  18.368   1.443 -0.0795 -0.2324  0.0678
61417W        W 4334   3.441  19.542   0.262  0.1196 -0.1531  0.0102
61418W        W 4335   2.018  20.023   4.799  0.2772  0.0311  0.0201
61419W        W 4336  33.206  18.624  30.684 -0.1226  0.0933  0.0030
61420W        W 4337   0.319  19.855   0.940  0.0795  0.0769 -0.0163
61421W        W 4338  34.608  20.025   0.508 -0.0091  0.1616 -0.1369
61422W        W 4339   3.417  17.785   6.456 -0.2888  0.0783  0.0534
61423W        W 4340   1.097  19.692   2.190  0.2089  0.1040  0.0104
61424W        W 4341   1.242  20.433   1.865 -0.0973  0.0384 -0.2299
61425W        W 4342   0.404  18.681  30.765 -0.2036 -0.1730  0.1849
61426W        W 4343   4.863  20.462  31.784 -0.2156  0.1962 -0.2420
61427W        W 4344   1.314  19.109   2.460 -0.2454  0.3054  0.5538
61428W        W 4345  33.920  19.504   1.004  0.2098 -0.1137 -0.0654
61429W        W 4346   2.832  23.498   0.568  0.0025  0.2556 -0.0753
61430W        W 4347   4.080  21.812   0.905  0.0504  0.0305 -0.0861
61431W        W 4348   2.048  16.688   0.458  0.1024 -0.1075 -0.1125
61432W        W 4349   1.922  21.330   2.646 -0.1285 -0.3553  0.0048
61433W        W 4350  33.388  20.019   0.783 -0.1624 -0.1703  0.1918
61434W        W 4351   2.093  18.092   3.752  0.1877  0.0298 -0.1775
61435W        W 4352   1.092  18.437   1.342 -0.1567 -0.0577  0.0552
61436W        W 4353  33.932  17.837  31.687 -0.0834  0.0756 -0.2092
61437W        W 4354   0.857  19.422   1.548 -0.2463 -0.0015 -0.1645
61438W        W 4355   0.689  21.151   0.231 -0.2399 -0.0319  0.0635
61439W        W 4356   4.243  21.796   2.023  0.1776  0.1353 -0.1697
61440W        W 4357   2.456  20.772   3.737  0.0903  0.1453  0.1651
61441W        W 4358   2.403  19.967   2.781 -0.0827 -0.0529 -0.1496
61442W        W 4359   0.262  18.182   2.024 -0.0740  0.1329  0.3165
61443W        W 4360   0.199  19.936   1.566 -0.0203  0.0737 -0.0983
61444W        W 4361   1.840  21.325   1.364  0.0906  0.2225  0.3978
61445W        W 4362   2.849  20.959  30.401 -0.1061  0.0224  0.2754
61446W        W 4363   2.174  18.521   2.455 -0.2089  0.3843 -0.1990
61447W        W 4364   2.196  21.030   1.109  0.0833 -0.0812  0.1585
61448W        W 4365   1.684  17.102   1.794  0.1977 -0.3005 -0.0808
61449W        W 4366   0.243  20.282   3.974  0.3580 -0.1238 -0.1428
61450W        W 4367   2.374  21.630   2.550 -0.0278  0.3705  0.1309
61451W        W 4368  33.644  18.835   1.834  0.0243  0.1063 -0.0742
61452W        W 4369   3.071  19.244   1.554 -0.0585  0.0027 -0.1392
61453W        W 4370   2.687  21.588   1.522  0.1826 -0.3021 -0.1111
61454W        W 4371   0.647  20.343   1.675 -0.0524  0.0823  0.3648
61455W        W 4372   2.903  18.759   1.548  0.2370 -0.1204  0.3678
61456W        W 4373   3.240  19.880   2.942 -0.2415  0.1913 -0.2047
61457W        W 4374   1.530  21.505   2.861 -0.1627 -0.0444  0.0427
61458W        W 4375   3.158  21.164   2.862 -0.0547 -0.1243  0.0479
61459W        W 4376   2.903  20.025  30.701  0.2372  0.1288 -0.1814
61460W        W 4377   4.674  20.278  30.496  0.1193 -0.1383  0.1475
61461W        W 4378   1.309  22.277   1.774  0.2980  0.0948 -0.1951
61462W        W 4379   2.924  21.150   1.522  0.0559 -0.0368 -0.0019
61463W        W 4380   1.105  23.298   1.833 -0.1446  0.2476 -0.0205
61464W        W 4381   1.978  19.938   0.027 -0.4299 -0.1632 -0.0631
61465W        W 4382   0.388  17.985   1.186 -0.1647  0.1924 -0.0018
61466W        W 4383   0.989  19.217  31.838  0.1090  0.3081  0.0306
61467W        W 4384   3.377  18.967   0.099 -0.1272  0.0930  0.0445
61468W        W 4385   3.815  19.896   0.356  0.0428 -0.0962 -0.1385
61469W        W 4386   1.581  20.286   1.506  0.1440 -0.0961 -0.0100
61470W        W 4387   2.946  21.369   0.295  0.1913 -0.2181  0.0874
61471W        W 4388   1.212  21.757   3.164 -0.0397  0.3587 -0.1212
61472W        W 4389   0.502  20.568   0.688 -0.0946  0.1753  0.0419
61473W        W 4390   1.432  20.424   4.408 -0.1587 -0.3061 -0.3391
61474W        W 4391   1.509  19.864   2.506 -0.1636  0.1226  0.0886
61475W        W 4392   3.032  19.311   0.385  0.0893 -0.3391  0.1584
61476W        W 4393   2.832  22.033   2.876  0.0707  0.2491  0.0865
61477W        W 4394   0.498  19.100   3.598 -0.2052  0.2402 -0.1558
61478W        W 4395   3.141  23.198   4.508 -0.0893  0.0919  0.0533
61479W        W 4396   2.153  18.698   5.153 -0.1398 -0.2573  0.0156
61480W        W 4397   3.130  23.680   4.233 -0.0494  0.1717  0.1752
61481W        W 4398   2.702  21.678   6.449  0.2290  0.2112 -0.0425
61482W        W 4399   1.957  21.857   2.794 -0.1522  0.0557  0.2391
61483W        W 4400   0.254  19.803   5.353 -0.0889  0.0397  0.3765
61484W        W 4401   1.416  20.962   4.384 -0.1008  0.0703 -0.0980
61485W        W 4402   2.968  16.991   5.240  0.0986 -0.3986  0.0040
61486W        W 4403   0.516  18.000   5.415 -0.0409 -0.0147 -0.0789
61487W        W 4404   2.229  19.154   5.584 -0.2275 -0.1208  0.1236
61488W        W 4405  33.995  19.891   4.922 -0.1721 -0.0491  0.0699
61489W        W 4406   0.725  19.907   5.407  0.2046 -0.0552 -0.2045
61490W        W 4407   1.276  19.445   4.777  0.0221  0.0218  0.3238
61491W        W 4408   0.387  20.805   5.535 -0.1833 -0.0663  0.0445
61492W        W 4409   2.831  18.879   5.387 -0.1317  0.3310 -0.0475
61493W        W 4410   3.354  18.497   5.679 -0.2656  0.1571  0.2458
61494W        W 4411   1.560  20.475   2.816 -0.0699  0.3434 -0.0274
61495W        W 4412   2.533  20.102   3.659  0.1719  0.0839 -0.0740
61496W        W 4413   1.650  18.552   4.246  0.0096  0.1234 -0.0401
61497W        W 4414   1.102  19.252   5.200 -0.1864  0.0760  0.2574
61498W        W 4415   3.636  17.497   5.467 -0.0552  0.1407 -0.1468
61499W        W 4416   4.192  20.177   6.373 -0.0002 -0.2752  0.0183
61500W        W 4417   2.246  21.149   4.100  0.1671  0.4723 -0.0649
61501W        W 4418   1.359  20.198   6.705 -0.0477 -0.0195 -0.0707
61502W        W 4419   5.214  19.202   6.801 -0.1369  0.3571 -0.1627
61503W        W 4420  33.648  21.096   5.701  0.0321 -0.0094  0.0743
61504W        W 4421   0.818  23.968   4.202 -0.0637 -0.1261  0.0621
61505W        W 4422   1.566  20.705   5.503  0.0791 -0.5809  0.1004
61506W        W 4423   4.040  20.786   4.351  0.0824  0.0187 -0.0474
61507W        W 4424   4.834  20.374   7.754 -0.1255 -0.0147 -0.3365
61508W        W 4425   0.926  22.236   4.820 -0.0893  0.0417  0.2607
61509W        W 4426   0.101  20.184   2.014 -0.6278  0.2102  0.0575
61510W        W 4427   3.051  21.363   6.534 -0.0845 -0.3371  0.0821
61511W        W 4428   0.160  21.788   4.526  0.1977 -0.1313  0.1105
61512W        W 4429   2.849  21.179   3.299  0.3170  0.2111  0.2258
61513W        W 4430   1.034  21.097   5.642  0.3283 -0.0456  0.0129
61514W        W 4431   0.200  21.575   2.651 -0.1568  0.2559 -0.2086
61515W        W 4432   2.094  19.197   4.983  0.0417  0.1400  0.0685
61516W        W 4433   3.506  22.219   6.484  0.0836 -0.2135  0.3304
61517W        W 4434   0.729  19.127   6.707  0.0585 -0.0628 -0.1680
61518W        W 4435   3.887  19.594   9.593 -0.1328 -0.3312  0.0134
61519W        W 4436   0.115  20.595   5.174 -0.2504  0.2670  0.0313
61520W        W 4437   3.504  20.003   3.876  0.1186 -0.1948 -0.0870
61521W        W 4438   0.955  18.958   6.272  0.0556 -0.1982  0.0334
61522W        W 4439   3.171  19.430   4.019  0.0936  0.2205 -0.0519
61523W        W 4440   0.844  16.402   5.087  0.2430  0.1081  0.2190
61524W        W 4441   1.127  21.846   4.527 -0.3434 -0.0118 -0.1259
61525W        W 4442   1.295  20.247   5.394  0.3315  0.3043  0.1370
61526W        W 4443   4.552  20.934   6.980  0.0155 -0.1520  0.2079
61527W        W 4444   3.258  20.901   3.770 -0.1392  0.1391  0.0412
61528W        W 4445   1.852  19.744   4.427 -0.2233 -0.0207  0.1133
61529W        W 4446   1.890  22.753   6.314  0.2231  0.3696  0.0305
61530W        W 4447   0.229  17.941   4.820 -0.0333 -0.2035  0.0361
61531W        W 4448   2.323  20.967   3.249  0.0034 -0.0901 -0.0009
61532W        W 4449   3.484  21.813   4.126  0.0838  0.3519 -0.1965
61533W        W 4450   2.968  18.069   3.787 -0.1596 -0.3425 -0.1120
61534W        W 4451   0.811  18.571   4.865  0.2007 -0.0860  0.3228
61535W        W 4452  34.664  20.660   5.782 -0.0383  0.2481 -0.1644
61536W        W 4453   0.962  19.385   7.268  0.1247  0.2128  0.3864
61537W        W 4454   2.442  17.798   2.252 -0.3787 -0.1942  0.2747
61538W        W 4455   3.820  20.081   8.090 -0.1183  0.0356  0.1845
61539W        W 4456   0.461  21.599   6.162 -0.2225 -0.2652 -0.0362
61540W        W 4457   4.705  18.477   5.288 -0.3325  0.2390  0.0640
61541W        W 4458   1.137  20.940   3.876 -0.3717 -0.0962 -0.1493
61542W        W 4459   4.154  21.647   5.000 -0.1658  0.1875  0.0857
61543W        W 4460   2.913  21.042   2.454  0.3783  0.0588  0.0442
61544W        W 4461   4.121  17.764   5.540  0.2075  0.1877  0.0300
61545W        W 4462   3.609  18.014   4.930 -0.2285 -0.0398  0.3718
61546W        W 4463   1.713  21.088   3.099 -0.2721 -0.0327 -0.1409
61547W        W 4464   1.542  19.143   3.855  0.0098 -0.2595  0.1385
61548W        W 4465   3.397  20.639   5.903  0.0866  0.0289  0.2678
61549W        W 4466   4.297  20.610   2.884  0.0546  0.0768 -0.4022
61550W        W 4467  34.384  21.576   4.554 -0.1678  0.1188 -0.1865
61551W        W 4468   1.948  18.782   5.689  0.2555  0.0039  0.1418
61552W        W 4469   1.705  20.267   5.700  0.2048 -0.0089 -0.0982
61553W        W 4470  33.909  22.052   2.949  0.0266  0.0126 -0.1738
61554W        W 4471   0.792  18.318   3.238  0.1097  0.1653  0.1294
61555W        W 4472  33.986  20.577   3.617 -0.0858 -0.3926 -0.2278
61556W        W 4473   0.399  20.225   7.659 -0.0351 -0.2219  0.0813
61557W        W 4474   2.827  21.537   7.401 -0.0347 -0.0754  0.1667
61558W        W 4475   4.270  17.376   4.705 -0.2124 -0.0171  0.3990
61559W        W 4476   2.582  18.261   6.855 -0.0950  0.3758 -0.3724
61560W        W 4477   3.215  20.159   5.296  0.0924  0.0147  0.2979
61561W        W 4478   0.185  21.260   4.263  0.1652  0.4838  0.3787
61562W        W 4479   1.582  21.588   3.943  0.2031  0.1003 -0.0324
61563W        W 4480   3.626  19.456   4.600  0.4170  0.2302 -0.0242
61564W        W 4481   2.274  22.553   3.898 -0.2504  0.1645 -0.0941
61565W        W 4482   0.024  18.680   4.701  0.2932  0.0219  0.2346
61566W        W 4483  34.324  19.534   5.105  0.1791  0.0994 -0.1658
61567W        W 4484   2.619  19.723   6.382 -0.0658  0.2018  0.2872
61568W        W 4485  34.579  17.045   5.117  0.1634 -0.4486  0.1097
61569W        W 4486   3.568  20.324   4.932  0.2560 -0.1918  0.1215
61570W        W 4487   1.779  18.668   3.168 -0.0924 -0.1523  0.3267
61571W        W 4488   2.964  18.585   3.941  0.0770 -0.1463  0.4094
61572W        W 4489   0.196  22.338   3.366  0.0212  0.0504  0.1729
61573W        W 4490   0.182  21.334   4.794 -0.3230 -0.3580  0.2047
61574W        W 4491   2.359  16.716   6.435  0.1963  0.1670 -0.0007
61575W        W 4492   2.019  21.651   3.723 -0.1169  0.4998 -0.0138
61576W        W 4493   4.036  22.904   6.776  0.1666 -0.1276  0.1013
61577W        W 4494   2.989  23.915   5.190 -0.1872 -0.1124 -0.0686
61578W        W 4495   0.880  19.088   5.612  0.0610  0.0504 -0.4147
61579W        W 4496   0.984  17.459   3.975  0.1470 -0.3257 -0.1721
61580W        W 4497  33.478  22.123   4.765  0.0177 -0.0148  0.0836
61581W        W 4498   2.901  21.342   4.423 -0.1580  0.1081 -0.2499
61582W        W 4499   1.552  19.420   2.725  0.2419  0.4045 -0.2588
61583W        W 4500   3.966  23.249   3.751  0.1902  0.0387  0.0715
61584W        W 4501   0.533  21.571   3.007 -0.1148  0.1246 -0.0717
61585W        W 4502   0.486  19.106   6.043  0.0080  0.0126 -0.1688
61586W        W 4503   3.119  19.761   5.561  0.0152  0.0527 -0.0951
61587W        W 4504   4.039  22.342   5.870 -0.0272  0.0097 -0.0439
61588W        W 4505   3.281  18.867   4.870  0.2171  0.2783 -0.1937
61589W        W 4506   1.319  18.357   1.950 -0.4266 -0.2034  0.0343
61590W        W 4507   4.551  23.083   4.495  0.0406  0.0941  0.0023
61591W        W 4508   0.883  21.362   3.778 -0.2953 -0.0956 -0.0952
61592W        W 4509   0.418  18.389   3.924 -0.2008  0.1758  0.3940
61593W        W 4510  34.005  22.344   4.582 -0.2956 -0.0613 -0.1508
61594W        W 4511   2.981  18.396   5.376  0.1404  0.2234 -0.1699
61595W        W 4512  34.617  20.060   7.977  0.4204  0.1389  0.2352
61596W        W 4513   1.608  19.346   6.420 -0.1151  0.3389 -0.1429
61597W        W 4514  33.780  20.989   4.714 -0.3578  0.1232  0.1892
61598W        W 4515  33.884  21.861   4.592  0.0222  0.2309 -0.1487
61599W        W 4516   2.448  17.713   4.434 -0.2106 -0.1692  0.1114
61600W        W 4517   4.708  19.644   3.011 -0.0089 -0.2264 -0.3792
61601W        W 4518   2.079  21.899   6.763  0.0201 -0.3448  0.0104
61602W        W 4519   3.513  20.901   4.204 -0.1604 -0.0606  0.0822
61603W        W 4520   3.952  18.424   1.442 -0.0779  0.0243 -0.2140
61604W        W 4521   1.723  18.105   3.259 -0.1171  0.1685  0.0599
61605W        W 4522   1.511  20.991   6.084 -0.0277  0.1465 -0.2138
61606W        W 4523   3.534  19.796   5.188  0.0746 -0.3240  0.0757
61607W        W 4524   2.663  19.539   3.989  0.0063  0.2419  0.0031
61608W        W 4525   3.270  19.984   2.035 -0.1105 -0.0094  0.3514
61609W        W 4526   1.582  20.524   3.781  0.2323 -0.2078 -0.0380
61610W        W 4527   0.525  19.931   5.898 -0.0541  0.1361  0.5509
61611W        W 4528   2.523  20.813   5.271  0.0368  0.2738  0.1654
61612W        W 4529   2.075  21.695   4.766  0.1854  0.3230 -0.0239
61613W        W 4530   2.446  19.995   4.964 -0.1977  0.1149 -0.0918
61614W        W 4531   0.823  18.840   4.326 -0.2043  0.2206 -0.1466
61615W        W 4532   3.612  18.698   3.533  0.2388  0.1799 -0.0600
61616W        W 4533  33.419  22.802   2.735 -0.4451  0.1161 -0.1938
61617W        W 4534   3.966  17.720   5.988 -0.3761  0.0258 -0.1310
61618W        W 4535   1.644  16.875   6.419  0.2832 -0.0534  0.1164
61619W        W 4536   0.120  17.653   7.262 -0.1309  0.1477 -0.1517
61620W        W 4537   3.873  20.764   5.751 -0.0167  0.2754 -0.0742
61621W        W 4538   3.962  20.029   3.454  0.2582  0.2122  0.2688
61622W        W 4539   3.009  20.153   3.347  0.1633  0.1285  0.1870
61623W        W 4540   0.383  20.621   2.077 -0.2450 -0.0448  0.2658
61624W        W 4541   3.907  18.758   7.154  0.3081  0.1881  0.3002
61625W        W 4542   2.606  20.364   5.690  0.2529  0.1094  0.1649
61626W        W 4543  34.671  20.181   6.695 -0.2135 -0.0355  0.3768
61627W        W 4544   2.091  21.291   6.895 -0.0479 -0.3037  0.1775
61628W        W 4545   2.008  19.532   2.621  0.4394  0.0220 -0.1485
61629W        W 4546   1.153  19.635   5.565 -0.0770 -0.1068  0.0707
61630W        W 4547   2.760  17.183   2.871  0.2601 -0.1044  0.0736
61631W        W 4548   1.385  20.345   6.238  0.1371 -0.2649 -0.2861
61632W        W 4549   2.655  19.446   1.341 -0.3178  0.2258  0.0874
61633W        W 4550   2.318  16.788   3.871 -0.1729 -0.0413 -0.1144
61634W        W 4551   2.058  21.049   6.038  0.0398  0.2327  0.2287
61635W        W 4552  34.342  22.045   4.261 -0.0709 -0.0243  0.0655
61636W        W 4553   3.027  21.058   5.140 -0.0061 -0.2298 -0.4620
61637W        W 4554   0.137  19.391   3.754 -0.2199  0.0600  0.1529
61638W        W 4555   0.459  17.308   6.717  0.1114  0.1688 -0.1178
61639W        W 4556  33.718  20.440   5.358 -0.0583  0.0749  0.0203
61640W        W 4557   0.868  19.677   4.178  0.1632 -0.0829 -0.1643
61641W        W 4558  34.377  18.718   3.293  0.1807  0.0446 -0.0747
61642W        W 4559   4.023  19.609   5.091  0.0704 -0.1085 -0.1411
61643W        W 4560   1.802  19.179   3.446  0.4165 -0.1796 -0.2384
61644W        W 4561   1.164  18.710   5.296 -0.0338  0.2016  0.2914
61645W        W 4562   2.445  18.640   5.574  0.0359  0.0008  0.2724
61646W        W 4563  34.435  20.812   6.224 -0.1774 -0.2679 -0.0409
61647W        W 4564   2.464  21.764   3.085  0.0197  0.2191 -0.0770
61648W        W 4565   2.733  18.905   4.882  0.2051  0.1104  0.0973
61649W        W 4566   3.528  20.868   5.123  0.0574  0.0213 -0.2974
61650W        W 4567   1.513  19.988   4.649 -0.2260  0.3966  0.1754
61651W        W 4568   1.366  19.580   4.284 -0.3417  0.0396  0.2968
61652W        W 4569   4.308  19.662   4.544  0.0348 -0.3020 -0.0231
61653W        W 4570   1.788  19.238   4.594  0.2383 -0.0733 -0.1994
61654W        W 4571  33.912  21.581   6.200  0.1161 -0.3506  0.2098
61655W        W 4572   2.808  21.860   3.662 -0.0239  0.0155  0.0473
61656W        W 4573   0.688  18.995   5.134  0.0580  0.3420  0.3229
61657W        W 4574   0.908  20.186   4.272 -0.1581 -0.1501 -0.2927
61658W        W 4575   0.705  19.484   5.800 -0.0515 -0.2990 -0.0580
61659W        W 4576   3.850  21.118   6.155  0.1917  0.0581  0.3061
61660W        W 4577   1.737  20.105   7.145  0.4684 -0.0063  0.1885
61661W        W 4578   1.398  18.129   3.688  0.0179  0.0670 -0.2680
61662W        W 4579   2.504  18.894   3.775  0.0330 -0.0705  0.1048
61663W        W 4580   2.400  21.265   7.293  0.0590 -0.1841  0.0064
61664W        W 4581   3.329  18.967   6.813 -0.3718 -0.0828 -0.2621
61665W        W 4582   1.622  20.677   6.511  0.2523 -0.3508 -0.1550
61666W        W 4583   3.720  18.590   6.118 -0.0977  0.1802  0.0946
61667W        W 4584   3.367  20.014   4.651  0.0629  0.1480  0.1321
61668W        W 4585   3.638  19.915   5.681 -0.1603 -0.0840  0.0381
61669W        W 4586   1.163  21.269   3.217 -0.1380  0.0316  0.0487
61670W        W 4587  33.981  20.497   6.245 -0.0246 -0.2360 -0.0527
61671W        W 4588  34.020  21.261   4.334 -0.1962 -0.2446  0.0284
61672W        W 4589   0.367  19.511   4.483 -0.2906 -0.1119 -0.1007
61673W        W 4590   0.268  21.376   5.300  0.4238  0.1594 -0.2491
61674W        W 4591   2.407  21.371   4.524 -0.0558  0.1550 -0.1248
61675W        W 4592  34.059  21.570   7.549 -0.0330  0.0672  0.2112
61676W        W 4593   4.139  17.258   5.238 -0.2183  0.0001 -0.0505
61677W        W 4594   3.622  21.575   3.308  0.1827  0.1941  0.2372
61678W        W 4595   4.548  19.353   5.049 -0.1717  0.0302 -0.2419
61679W        W 4596   4.314  19.044   6.569 -0.2450 -0.4056  0.1419
61680W        W 4597   4.231  19.429   3.054  0.1060  0.0321 -0.2836
61681W        W 4598   2.582  18.580   7.881  0.3023  0.0416 -0.1055
61682W        W 4599   0.155  18.828   5.195 -0.1897 -0.0638  0.1394
61683W        W 4600   4.165  21.149   4.824  0.0537  0.2464 -0.0359
61684W        W 4601   1.205  20.121   5.842 -0.2075  0.1285  0.1124
61685W        W 4602   2.644  22.078   6.118  0.0716  0.1070  0.0506
61686W        W 4603   0.729  20.359   5.775 -0.3225  0.0377  0.0336
61687W        W 4604   2.812  19.680   2.682 -0.2567  0.1427 -0.0856
61688W        W 4605   1.297  19.954   3.976 -0.1294 -0.2974  0.2890
61689W        W 4606   3.201  20.507   6.343  0.2034 -0.1696 -0.1481
61690W        W 4607   4.622  19.970   6.660  0.3554 -0.0586 -0.2591
61691W        W 4608   2.077  21.706   4.204 -0.1406 -0.0648 -0.1161
61692W        W 4609   4.284  19.887   3.178 -0.1198 -0.1258  0.1521
61693W        W 4610  34.662  19.860   7.122 -0.3274 -0.0852 -0.1448
61694W        W 4611   3.285  19.092   4.420  0.0571 -0.2076  0.0059
61695W        W 4612   2.634  20.519   2.397  0.1605  0.0616 -0.2223
61696W        W 4613   1.842  19.542   3.985  0.0437  0.0097 -0.0280
61697W        W 4614   2.147  19.652   6.277  0.1074  0.0537  0.0466
61698W        W 4615   1.768  21.207   5.656 -0.0689 -0.0606 -0.1821
61699W        W 4616   2.150  18.182   5.000  0.0814  0.1173  0.1152
61700W        W 4617   3.602  18.462   4.677  0.1589 -0.1046  0.0653
61701W        W 4618   4.976  20.389   3.559 -0.1854  0.0741  0.1245
61702W        W 4619   1.712  20.003   5.259 -0.0018  0.0611 -0.0682
61703W        W 4620   1.764  18.418   7.617  0.0965 -0.1334  0.1276
61704W        W 4621   1.642  19.561   7.376 -0.1840  0.2858 -0.0898
61705W        W 4622   3.494  19.972   3.368 -0.1444  0.1963 -0.1313
61706W        W 4623   3.449  19.053   6.207 -0.0976  0.0633  0.2863
61707W        W 4624   4.788  19.694   4.773  0.2407 -0.1419 -0.1186
61708W        W 4625   3.095  20.630   3.213  0.0291 -0.0578 -0.0631
61709W        W 4626   0.778  18.792   3.172  0.4271  0.0998  0.0658
61710W        W 4627   3.240  20.967   4.640 -0.3463 -0.1559  0.1427
61711W        W 4628   1.246  18.520   4.493  0.0482 -0.1951  0.0675
61712W        W 4629   2.094  18.343   6.533 -0.0481 -0.3367 -0.2636
61713W        W 4630   1.625  22.038   3.636  0.1989  0.2252 -0.4720
61714W        W 4631   3.000  19.362   4.938  0.1480 -0.1202  0.1471
61715W        W 4632   3.319  21.303   4.080 -0.1378  0.0327 -0.1308
61716W        W 4633  34.023  20.832   5.230 -0.3740 -0.1973 -0.4829
61717W        W 4634   2.887  24.026   3.925  0.0182 -0.2443  0.0850
61718W        W 4635   1.711  19.691   3.115  0.1459 -0.1889 -0.0018
61719W        W 4636   2.490  19.296   2.817 -0.0643 -0.0247  0.0958
61720W        W 4637   3.285  21.800   6.201 -0.0930  0.2255 -0.1902
61721W        W 4638   4.420  20.126   8.127 -0.1125 -0.1080 -0.1054
61722W        W 4639   3.238  17.981   3.361  0.1109  0.0265  0.3526
61723W        W 4640   3.601  20.806   7.051  0.1829 -0.1542 -0.1345
61724W        W 4641  34.508  22.468   4.682 -0.1160 -0.1713  0.2389
61725W        W 4642   3.307  17.976   6.885  0.2270 -0.0578 -0.0919
61726W        W 4643   1.752  23.427   5.131  0.0353  0.0598 -0.1355
61727W        W 4644   1.882  21.247   4.564 -0.0828 -0.0885 -0.0614
61728W        W 4645   0.813  22.647   4.025  0.1658 -0.2948 -0.0174
61729W        W 4646   3.589  17.095   6.795 -0.0540 -0.0703 -0.0439
61730W        W 4647   3.649  21.530   5.939 -0.1373 -0.2280 -0.1306
61731W        W 4648   2.165  19.695   5.676  0.0153 -0.1675  0.0733
61732W        W 4649   3.876  19.890   4.703 -0.0307  0.2885  0.1843
61733W        W 4650   1.195  20.742   5.178  0.1980  0.0651  0.2562
61734W        W 4651   1.279  20.725   3.152  0.1742 -0.3635  0.0074
61735W        W 4652   3.352  22.284   5.457 -0.0360  0.1822 -0.1358
61736W        W 4653   3.642  19.438   5.503 -0.0766  0.2213  0.1158
61737W        W 4654   1.018  21.167   6.153  0.0835  0.3418 -0.0796
61738W        W 4655  34.314  20.285   7.071 -0.0583  0.0953 -0.0175
61739W        W 4656   2.726  20.356   5.162  0.3654  0.2343 -0.2667
61740W        W 4657   3.963  20.272   3.896 -0.0365  0.2324 -0.0194
61741W        W 4658   1.419  19.066   3.086  0.0234  0.3601 -0.0658
61742W        W 4659   1.710  19.609   4.961  0.1142  0.1637  0.3055
61743W        W 4660   0.645  21.376   5.651  0.0153 -0.1496  0.2523
61744W        W 4661   0.591  20.684   7.016 -0.5182  0.2477  0.2012
61745W        W 4662   0.523  20.915   5.043  0.1692  0.3357 -0.3281
61746W        W 4663   2.796  21.121   3.902  0.0623  0.4178  0.0733
61747W        W 4664   0.422  21.573   3.932  0.1161  0.3188 -0.3036
61748W        W 4665   3.696  22.364   3.426  0.0616 -0.2062 -0.2755
61749W        W 4666   3.733  18.220   3.396 -0.4961  0.1443  0.1342
61750W        W 4667   0.793  21.358   5.190  0.1712  0.0659 -0.3838
61751W        W 4668  34.463  18.506   2.827  0.2053  0.2165  0.1973
61752W        W 4669   2.751  22.385   3.945 -0.0347 -0.4794  0.0406
61753W        W 4670  34.546  20.433   4.276 -0.0722 -0.3582 -0.0202
61754W        W 4671   3.832  20.071   9.331  0.0882 -0.0948  0.0298
61755W        W 4672   4.778  19.142   4.639 -0.2906  0.0092  0.0722
61756W        W 4673   3.289  18.980   3.829 -0.1501  0.0395  0.2296
61757W        W 4674   4.861  18.659   4.765 -0.0605 -0.2324 -0.1446
61758W        W 4675   2.726  19.425   5.610  0.1394  0.0930  0.1654
61759W        W 4676   2.744  20.930   4.657 -0.4727 -0.3413 -0.2713
61760W        W 4677   3.565  18.014   2.959 -0.0096 -0.1739 -0.3112
61761W        W 4678  34.611  19.412   7.382 -0.2762  0.2057 -0.2884
61762W        W 4679   5.165  19.199   4.952 -0.0838 -0.3564 -0.0028
61763W        W 4680  34.131  21.267   7.134 -0.0775  0.1825  0.0204
61764W        W 4681   2.598  21.595   4.079 -0.3417  0.3037 -0.0424
61765W        W 4682  34.429  19.055   4.903  0.1149  0.0082 -0.2551
61766W        W 4683   0.431  20.018   4.401 -0.5433 -0.1203 -0.2640
61767W        W 4684   3.589  19.246   5.070 -0.0169  0.0103  0.2748
61768W        W 4685   2.432  21.324   5.047  0.2990  0.1478 -0.0681
61769W        W 4686   4.751  16.741   6.579 -0.0828  0.2862  0.0776
61770W        W 4687   3.168  22.689   4.754 -0.1067 -0.0487 -0.1151
61771W        W 4688   0.584  20.952   4.505  0.2372 -0.1068  0.1522
61772W        W 4689  34.131  21.640   5.751  0.0523 -0.2241 -0.2500
61773W        W 4690   1.263  20.031   3.443  0.0908 -0.2738 -0.2801
61774W        W 4691   5.800  20.231   6.080 -0.0824  0.1402  0.1090
61775W        W 4692   1.132  20.654   6.680 -0.0871 -0.1490  0.0790
61776W        W 4693   4.067  18.631   6.481  0.0618 -0.2597 -0.1651
61777W        W 4694   1.926  19.128   2.879  0.2760  0.3069 -0.0385
61778W        W 4695   4.575  18.587   6.436  0.0899 -0.3109 -0.1586
61779W        W 4696   2.575  19.849   4.455  0.0880 -0.1567  0.0419
61780W        W 4697  34.553  19.719   6.610 -0.1521 -0.1597 -0.1339
61781W        W 4698   2.907  20.526   3.667  0.2531 -0.1345  0.1865
61782W        W 4699   5.017  20.510   5.350  0.4138 -0.2092 -0.1379
61783W        W 4700   3.087  20.484   2.218  0.0442 -0.2151 -0.1049
61784W        W 4701   4.338  21.392   5.412 -0.5568 -0.0554 -0.4069
61785W        W 4702   2.263  19.412   4.223 -0.0476 -0.3444 -0.4071
61786W        W 4703   1.831  20.113   4.144  0.0377  0.1884 -0.2434
61787W        W 4704   0.424  19.800   3.926  0.2193 -0.5741  0.3214
61788W        W 4705   1.614  20.369   4.949  0.0709  0.4951  0.0054
61789W        W 4706   4.600  19.591   6.193  0.1693  0.2064 -0.4437
61790W        W 4707   1.189  19.854   5.111 -0.0094  0.0384  0.0194
61791W        W 4708   2.757  21.987   2.378 -0.1016 -0.4179  0.0322
61792W        W 4709   5.858  19.965   5.558  0.2266 -0.0338 -0.0473
61793W        W 4710   0.546  20.581   3.717  0.0053  0.1982 -0.1309
61794W        W 4711   4.815  20.941   3.934  0.3442 -0.3762  0.2990
61795W        W 4712   3.912  23.530   5.080  0.2451 -0.4140  0.1623
61796W        W 4713  34.525  20.303   6.216  0.1111  0.2657 -0.0791
61797W        W 4714   2.193  20.414   5.044  0.2234 -0.2182 -0.1388
61798W        W 4715   4.519  21.969   5.117 -0.1457 -0.1476  0.0176
61799W        W 4716   3.525  18.911   2.777  0.2504  0.0262 -0.1756
61800W        W 4717   2.304  18.908   4.628  0.1441  0.0603 -0.1474
61801W        W 4718   0.518  21.051   3.879 -0.1290 -0.0674  0.0342
61802W        W 4719   4.460  19.721   3.913  0.2649  0.0245  0.2501
61803W        W 4720   2.670  19.918   5.401  0.0969 -0.4807  0.3714
61804W        W 4721   0.659  21.450   4.353 -0.2413 -0.0229 -0.2292
61805W        W 4722   2.982  19.430   6.107  0.0892  0.0102 -0.0241
61806W        W 4723   2.932  21.992   5.530 -0.1212 -0.3658  0.1153
61807W        W 4724   1.330  21.472   5.813 -0.0177  0.1625 -0.2099
61808W        W 4725   0.065  20.305   4.699 -0.0225  0.1722  0.0744
61809W        W 4726   3.939  20.238   6.772 -0.0046  0.0709  0.1161
61810W        W 4727   0.596  21.712   4.849 -0.1439 -0.3501  0.0390
61811W        W 4728   1.086  20.486   3.699  0.0846  0.1140 -0.0508
61812W        W 4729   4.353  23.415   4.849  0.1312 -0.1372 -0.1315
61813W        W 4730   3.417  19.434   3.473 -0.0774 -0.1973  0.0929
61814W        W 4731   3.429  23.523   5.108  0.1477 -0.2198  0.1730
61815W        W 4732   1.715  18.058   5.532  0.3659 -0.0529 -0.0417
61816W        W 4733   5.238  17.998   4.109 -0.2639  0.1407 -0.1670
61817W        W 4734   3.137  18.019   5.632 -0.1490  0.0620  0.0574
61818W        W 4735   0.767  20.520   5.276 -0.0285  0.0194  0.2693
61819W        W 4736  33.933  19.302   4.879 -0.2242  0.1702 -0.1066
61820W        W 4737   1.421  20.890   1.961 -0.0578 -0.2294 -0.1070
61821W        W 4738   0.435  20.142   3.461  0.4248 -0.2464 -0.3568
61822W        W 4739   2.950  19.905   4.866  0.1059 -0.0832 -0.0320
61823W        W 4740   1.951  19.264   5.976  0.2006  0.3695 -0.3527
61824W        W 4741   0.112  20.809   4.617 -0.2035 -0.1256 -0.0079
61825W        W 4742   1.660  18.188   4.595  0.4156 -0.2792 -0.1684
61826W        W 4743   1.248  21.700   3.649 -0.1440 -0.0460  0.2276
61827W        W 4744   1.132  18.919   4.836  0.4312 -0.1570 -0.3163
61828W        W 4745  34.341  20.395   5.552  0.0014  0.0528  0.3084
61829W        W 4746   3.130  20.590   4.984  0.1371 -0.0278 -0.0738
61830W        W 4747   4.440  20.150   3.611  0.3113 -0.2409  0.0539
61831W        W 4748   2.892  17.285   5.910 -0.0747  0.0955 -0.1141
61832W        W 4749   3.601  20.419   5.539  0.0829  0.0427 -0.0815
61833W        W 4750   0.819  20.669   4.148  0.1409 -0.2175  0.1795
61834W        W 4751   2.092  20.692   5.623 -0.0450  0.3284 -0.0015
61835W        W 4752   3.405  19.463   6.537 -0.0001 -0.0851  0.2375
61836W        W 4753   1.103  17.786   2.877  0.0656  0.0804  0.0458
61837W        W 4754   1.103  20.265   4.819  0.2233 -0.0156 -0.1716
61838W        W 4755   3.460  21.893   3.605 -0.0021  0.0785 -0.1630
61839W        W 4756   2.074  22.493   2.181 -0.1494  0.0432 -0.1210
61840W        W 4757   1.221  21.120   6.689  0.0932 -0.0944  0.1156
61841W        W 4758   2.414  22.212   4.745  0.0657 -0.0369 -0.0860
61842W        W 4759   1.534  17.557   7.064 -0.0419  0.0712  0.1039
61843W        W 4760   3.563  20.506   3.455 -0.2378  0.0054 -0.0317
61844W        W 4761   1.029  21.658   5.507  0.0576  0.1607  0.0537
61845W        W 4762   2.235  19.596   4.717 -0.3700 -0.0208  0.1194
61846W        W 4763   1.336  18.867   6.655 -0.2713 -0.3530 -0.0581
61847W        W 4764   2.850  19.047   4.179  0.3003 -0.0853  0.0097
61848W        W 4765  34.422  18.182   7.867 -0.1211 -0.2998 -0.1429
61849W        W 4766   0.158  19.558   5.832  0.0597 -0.0615  0.0649
61850W        W 4767   3.697  20.296   6.130  0.1851 -0.0154  0.2752
61851W        W 4768   0.752  18.746   3.824 -0.0407 -0.1405  0.2998
61852W        W 4769   3.162  18.680   6.117 -0.1049 -0.0875  0.0596
61853W        W 4770   1.431  22.041   4.068 -0.0114  0.0763 -0.0418
61854W        W 4771   2.180  19.700   5.211 -0.3465  0.0380 -0.2740
61855W        W 4772   2.546  19.397   5.123 -0.3691 -0.3461 -0.1170
61856W        W 4773   2.748  19.833   5.919  0.0669 -0.0876  0.2848
61857W        W 4774   2.598  21.466   5.481  0.1409  0.2560 -0.2392
61858W        W 4775   4.327  20.197   7.118 -0.1394 -0.0576  0.1690
61859W        W 4776   1.720  18.462   5.239 -0.0999  0.3844 -0.1759
61860W        W 4777   4.833  19.919   2.620  0.4700  0.2471  0.3748
61861W        W 4778   5.298  22.059   7.565 -0.0754  0.2051  0.1427
61862W        W 4779   3.787  23.053   5.352  0.2006 -0.2614 -0.1804
61863W        W 4780   2.826  21.693   4.770 -0.3436 -0.1377 -0.4051
61864W        W 4781   2.842  20.421   4.523 -0.0865  0.0112 -0.4956
61865W        W 4782   1.647  17.951   5.054  0.2396 -0.0181 -0.0256
61866W        W 4783   0.454  20.142   4.966 -0.0616 -0.2581  0.1983
61867W        W 4784   2.115  21.502   5.527 -0.1482 -0.2312  0.1986
61868W        W 4785   2.953  20.714   4.162  0.0708  0.0816 -0.1816
61869W        W 4786   2.819  18.957   5.915 -0.0311 -0.1277 -0.0624
61870W        W 4787   5.675  18.133   4.407 -0.0183  0.1616 -0.2144
61871W        W 4788   1.928  20.522   4.628  0.1697  0.0471 -0.1070
61872W        W 4789   2.890  20.230   2.838  0.2410 -0.2322  0.0847
61873W        W 4790   3.352  23.723   9.044  0.0014  0.0906  0.0325
61874W        W 4791   0.467  19.416   7.402  0.0134  0.0119  0.0683
61875W        W 4792   4.079  19.907   8.466 -0.4406 -0.0375 -0.1530
61876W        W 4793   4.212  20.423   9.375 -0.2720  0.2500  0.4795
61877W        W 4794   2.708  18.581   6.321 -0.0364  0.0507  0.0501
61878W        W 4795   3.488  21.861   6.857  0.2789  0.2851  0.0695
61879W        W 4796   1.825  21.998   8.349  0.0549 -0.1327 -0.0649
61880W        W 4797   4.931  20.535   8.801  0.1239  0.1805 -0.0860
61881W        W 4798   1.266  20.314   7.222 -0.0679  0.0058  0.0053
61882W        W 4799   2.477  19.951   8.174  0.2113 -0.0365 -0.1338
61883W        W 4800   2.104  20.389   7.492  0.0903 -0.1804  0.0770
61884W        W 4801  34.566  18.957   9.008 -0.1723 -0.1852 -0.0347
61885W        W 4802   4.708  20.122   9.177 -0.0390  0.0705  0.3958
61886W        W 4803  33.984  20.941   7.584 -0.2150  0.1227 -0.3294
61887W        W 4804   0.483  20.017   8.538 -0.0902 -0.3826  0.0584
61888W        W 4805   2.368  18.790   6.569 -0.1408 -0.2583 -0.2532
61889W        W 4806   2.783  22.641   6.991 -0.0009 -0.2360 -0.2415
61890W        W 4807   2.534  21.508   9.480 -0.0669 -0.4254 -0.0372
61891W        W 4808   2.444  21.716   9.040 -0.0630  0.0382 -0.1672
61892W        W 4809   0.591  18.627   7.735 -0.2311 -0.0369 -0.2841
61893W        W 4810   1.370  19.739   8.490 -0.2394  0.0068  0.1747
61894W        W 4811   1.704  22.984   9.342 -0.0593  0.0861 -0.0990
61895W        W 4812   2.844  19.259   8.616  0.0030 -0.1625  0.3132
61896W        W 4813   3.322  20.149   8.233  0.1461 -0.0902  0.2328
61897W        W 4814   1.972  22.462   8.670 -0.0786  0.1911  0.2058
61898W        W 4815   0.833  22.234   9.396  0.2251  0.1428 -0.2640
61899W        W 4816   0.223  20.806   8.621  0.1053  0.2270 -0.0359
61900W        W 4817   0.661  20.965   6.480 -0.0634  0.0627  0.1758
61901W        W 4818   2.007  20.871   7.366  0.3024  0.0881  0.0506
61902W        W 4819   4.015  20.559   7.859 -0.0653 -0.3107 -0.0488
61903W        W 4820   0.873  20.241   6.866 -0.2720 -0.1864 -0.0362
61904W        W 4821   1.120  20.830   7.714 -0.0010  0.0674 -0.3184
61905W        W 4822   3.456  20.345   6.747 -0.1339  0.0229 -0.1058
61906W        W 4823   2.014  21.906   5.220 -0.1222  0.2593 -0.2331
61907W        W 4824   2.937  21.248   7.044  0.1335  0.4010  0.0781
61908W        W 4825   1.710  20.520   9.322 -0.4751  0.2589  0.0349
61909W        W 4826   3.322  21.110   6.133 -0.3692  0.2244  0.1858
61910W        W 4827   3.860  20.650   6.392  0.0050 -0.1268 -0.0308
61911W        W 4828   2.332  18.866   6.067 -0.0990 -0.0356 -0.2001
61912W        W 4829   3.510  20.572   8.080 -0.0133  0.1317  0.0098
61913W        W 4830   3.697  18.058   8.923 -0.0685  0.0685  0.0725
61914W        W 4831   1.563  22.154   7.832  0.0661 -0.0030  0.1293
61915W        W 4832   3.070  21.199   8.747  0.1705  0.0285 -0.2403
61916W        W 4833   2.231  20.410   7.019  0.0583  0.3068 -0.1839
61917W        W 4834   4.179  18.166   9.008  0.1395 -0.2016 -0.0879
61918W        W 4835   1.881  23.425   7.968  0.0792 -0.0351 -0.0204
61919W        W 4836   0.105  19.000   7.144  0.1626 -0.3886  0.0081
61920W        W 4837   2.708  21.198   6.215 -0.0253 -0.0002 -0.0270
61921W        W 4838   4.184  20.996   8.680 -0.0718 -0.1021 -0.0337
61922W        W 4839   3.425  20.903   6.624  0.1736 -0.1796  0.0101
61923W        W 4840   1.897  20.617   8.412  0.2241 -0.0070  0.2873
61924W        W 4841   3.136  17.905   8.145  0.1724  0.0831 -0.0769
61925W        W 4842   2.163  19.053  12.940  0.1406 -0.3476  0.0864
61926W        W 4843   1.515  22.398   6.644  0.0656 -0.5033  0.1807
61927W        W 4844   3.491  21.192   7.389  0.0177 -0.2324  0.1105
61928W        W 4845   5.472  19.784   6.771  0.1319  0.1554  0.3662
61929W        W 4846   3.794  17.252   9.108  0.0365  0.1005  0.4349
61930W        W 4847   2.916  19.732   8.942 -0.0838  0.2590 -0.1146
61931W        W 4848   1.713  21.466   6.128 -0.1062 -0.0404  0.4827
61932W        W 4849   2.040  19.843   7.676 -0.3800  0.1975  0.0490
61933W        W 4850   2.141  20.994   8.626  0.2561 -0.0653 -0.0995
61934W        W 4851   3.287  19.569   7.957  0.0413  0.0173  0.1667
61935W        W 4852   1.243  22.285   8.392  0.0560  0.2031 -0.2751
61936W        W 4853   1.325  21.974   5.829  0.1031 -0.0346 -0.0206
61937W        W 4854   3.352  21.295   8.256 -0.1869  0.1805  0.0114
61938W        W 4855   0.837  21.539   7.475 -0.0565  0.0255 -0.0086
61939W        W 4856   1.175  22.023   9.655 -0.5250 -0.1110 -0.0159
61940W        W 4857   1.912  22.311   6.997  0.1079 -0.1258  0.0683
61941W        W 4858   1.312  19.315   6.894  0.0632 -0.0618  0.2042
61942W        W 4859   2.230  17.966   9.465 -0.2768 -0.0335  0.0108
61943W        W 4860   2.408  21.574   5.945 -0.0686 -0.1381  0.0866
61944W        W 4861   3.899  21.981   7.912 -0.0122  0.2355 -0.0080
61945W        W 4862   4.261  20.544   8.424  0.0837  0.2379 -0.1021
61946W        W 4863   4.631  22.470   6.150 -0.2171  0.1860 -0.2602
61947W        W 4864  32.708  21.325   7.407 -0.0449  0.3907  0.0963
61948W        W 4865   0.478  18.965   8.113  0.0755 -0.1715 -0.2985
61949W        W 4866   0.861  19.633   8.628 -0.1192 -0.1387  0.0372
61950W        W 4867   1.451  18.663   7.142 -0.0635  0.0900 -0.1636
61951W        W 4868   3.126  19.715   7.079 -0.1493 -0.3286  0.1561
61952W        W 4869   1.100  18.701   7.562 -0.1879 -0.2169 -0.0919
61953W        W 4870   1.214  20.634   5.838  0.0164  0.0165 -0.0535
61954W        W 4871   2.438  23.469   6.095  0.0530  0.1199 -0.1165
61955W        W 4872   2.785  23.374   9.268 -0.1118 -0.0623  0.1538
61956W        W 4873   3.425  21.791   8.103  0.3592 -0.2206 -0.0883
61957W        W 4874   1.838  18.532   8.532  0.0680  0.0181  0.0362
61958W        W 4875   0.988  19.460   6.384 -0.0289  0.0216 -0.2867
61959W        W 4876   1.762  23.484   7.472 -0.5966 -0.2056  0.0870
61960W        W 4877   0.614  20.791   7.740  0.2200 -0.0965 -0.0202
61961W        W 4878   0.834  19.122   8.565  0.0155  0.0430  0.1595
61962W        W 4879   4.876  21.417   9.369  0.0887 -0.1337 -0.1207
61963W        W 4880   1.207  20.828   8.652  0.0026 -0.4042  0.2235
61964W        W 4881   1.565  20.038   7.758 -0.0836  0.0985  0.0891
61965W        W 4882   2.868  21.245   9.200  0.2110 -0.0182  0.0526
61966W        W 4883   0.021  18.546   6.796 -0.1284  0.0845 -0.3817
61967W        W 4884   2.447  21.660   8.164 -0.0832  0.1512  0.0436
61968W        W 4885   1.170  21.390   7.886  0.0790 -0.1128  0.0153
61969W        W 4886   1.815  21.645   7.960 -0.0291 -0.0516  0.2275
61970W        W 4887   1.864  22.468   7.577 -0.1060  0.0432 -0.0316
61971W        W 4888   3.653  19.247   9.310 -0.2803  0.2850  0.2023
61972W        W 4889  34.619  20.200   7.510 -0.1689  0.1338 -0.1949
61973W        W 4890   2.283  18.806   7.074 -0.0639  0.2911  0.0558
61974W        W 4891   3.944  21.152   6.812  0.0889  0.0847 -0.1391
61975W        W 4892   3.635  19.186   7.894 -0.2020  0.2319  0.2650
61976W        W 4893   4.291  20.645   6.089 -0.4659 -0.0593  0.3549
61977W        W 4894   2.744  18.857   8.332  0.0980  0.1711 -0.0320
61978W        W 4895   0.217  20.687   7.418  0.1594  0.3916 -0.2067
61979W        W 4896   3.526  20.722   7.584  0.1493  0.1902  0.0415
61980W        W 4897   3.417  20.053   7.707 -0.1571 -0.3596  0.0701
61981W        W 4898   3.309  20.372   7.241 -0.0385 -0.1451  0.3197
61982W        W 4899   3.103  20.489   7.718  0.0652 -0.0595  0.1580
61983W        W 4900   2.574  22.856   8.280 -0.0998 -0.3531  0.0307
61984W        W 4901   1.278  19.544   7.688 -0.1829 -0.2384  0.1076
61985W        W 4902   2.613  19.536   7.229  0.1234 -0.3971 -0.1851
61986W        W 4903   0.768  16.817   8.734 -0.5002  0.1945  0.1726
61987W        W 4904   1.358  23.063   5.599  0.0260  0.1101 -0.1125
61988W        W 4905   4.136  19.297   8.029  0.1777  0.3675  0.0930
61989W        W 4906   2.697  17.783   8.373  0.2523  0.2150  0.4812
61990W        W 4907   3.169  19.259   5.649 -0.1395 -0.0930  0.2246
61991W        W 4908   2.329  20.364   6.515  0.1215  0.1224  0.0711
61992W        W 4909   1.589  22.913   5.185 -0.1804  0.1110  0.0518
61993W        W 4910   1.584  18.228   9.270 -0.0559  0.1646  0.2481
61994W        W 4911   1.323  21.579   6.452  0.1598 -0.0746 -0.1404
61995W        W 4912   3.937  21.843   8.446  0.0457  0.2122  0.1993
61996W        W 4913   1.790  18.131   6.206 -0.1859 -0.2853 -0.2011
61997W        W 4914   0.103  22.223   7.378  0.0850 -0.0023 -0.5318
61998W        W 4915   2.970  21.605   5.860  0.0185  0.0666 -0.1759
61999W        W 4916   2.258  19.560   9.481 -0.1695  0.0340  0.1054
62000W        W 4917   2.306  23.122   7.933 -0.1127 -0.3816  0.0289
62001W        W 4918   1.674  22.632   5.582 -0.0500  0.1737  0.1900
62002W        W 4919   1.143  23.880   8.085  0.1120 -0.0954 -0.3223
62003W        W 4920   1.552  21.987   6.301  0.1902  0.1907  0.0994
62004W        W 4921   2.955  19.512   7.597  0.3263 -0.0728 -0.1285
62005W        W 4922   1.489  23.417   9.139  0.0727  0.1154 -0.1228
62006W        W 4923   2.466  19.331   6.031  0.0246  0.1270 -0.0008
62007W        W 4924   0.717  21.361   7.007 -0.3023 -0.1855 -0.0789
62008W        W 4925   2.023  16.544   7.850 -0.2057 -0.2930  0.3604
62009W        W 4926   3.175  19.920   6.111 -0.1614  0.1075 -0.0981
62010W        W 4927   1.076  21.866   9.142 -0.1643  0.0160  0.0335
62011W        W 4928   2.055  23.075   7.448 -0.1900 -0.2320 -0.2481
62012W        W 4929   0.201  21.269   6.433  0.1700  0.1829 -0.1208
62013W        W 4930   4.278  19.413   7.025 -0.2510  0.0533  0.0677
62014W        W 4931   0.524  19.411   7.915 -0.0562 -0.0211  0.1140
62015W        W 4932   3.654  20.658   9.399  0.3262  0.0515 -0.0398
62016W        W 4933   1.237  19.811   8.995  0.1507 -0.1060 -0.2777
62017W        W 4934   2.151  22.074   7.890 -0.0660  0.1623  0.1185
62018W        W 4935   2.353  22.406   8.345 -0.2229 -0.1079  0.0626
62019W        W 4936   2.201  20.871   4.769  0.1619  0.1657 -0.2424
62020W        W 4937   0.906  20.906   8.259 -0.3347  0.0720  0.1465
62021W        W 4938   3.254  23.080   9.044  0.3267 -0.3923 -0.1542
62022W        W 4939   3.779  22.724   8.755  0.1204 -0.0470  0.0198
62023W        W 4940  33.180  19.689   7.083 -0.0101  0.1923  0.1671
62024W        W 4941   6.592  27.107  11.438 -0.4011 -0.0675 -0.1588
62025W        W 4942   3.368  21.219   9.270 -0.1624 -0.1582 -0.0284
62026W        W 4943   3.591  22.061   8.868  0.0612 -0.1716  0.0071
62027W        W 4944   2.515  20.977   9.507 -0.2078  0.0477 -0.0034
62028W        W 4945   4.035  21.534   6.444  0.3050  0.1594  0.0033
62029W        W 4946   0.725  19.985   6.432  0.0630 -0.0836  0.2225
62030W        W 4947   1.963  20.990   9.214  0.0552  0.2533 -0.1432
62031W        W 4948   1.442  21.507   4.805 -0.0310 -0.1548  0.0837
62032W        W 4949   2.035  18.083   9.003 -0.0455 -0.3343 -0.4590
62033W        W 4950   1.149  20.616   9.652  0.0827 -0.1746 -0.0899
62034W        W 4951   0.587  20.832   5.963  0.3268 -0.1514  0.0285
62035W        W 4952  33.923  23.926   9.462  0.0283  0.0973 -0.1259
62036W        W 4953   1.976  17.284   8.402  0.3408 -0.0057  0.1909
62037W        W 4954   2.412  21.945   5.683 -0.0824  0.0937 -0.2495
62038W        W 4955   0.819  20.924   9.386 -0.1227  0.0271 -0.0222
62039W        W 4956   1.934  20.509   6.130  0.1060  0.0048  0.0525
62040W        W 4957   0.189  16.922   8.580 -0.0317 -0.0948 -0.2649
62041W        W 4958   1.822  21.146   6.491  0.0665  0.0775  0.1834
62042W        W 4959   2.675  18.453   8.691 -0.1742  0.0557 -0.0212
62043W        W 4960   2.750  19.446   8.201 -0.0986  0.0389 -0.2658
62044W        W 4961   2.358  20.459   9.722  0.2373 -0.0783  0.0584
62045W        W 4962   3.423  22.496   9.655 -0.0023 -0.2104  0.0133
62046W        W 4963   2.469  19.583   7.773  0.0904 -0.0587 -0.0390
62047W        W 4964   4.609  18.155   8.739 -0.1708  0.3924 -0.1072
62048W        W 4965   4.455  20.561   8.918  0.2396  0.1829  0.2202
62049W        W 4966   3.573  19.850   6.861  0.2256 -0.3329 -0.3522
62050W        W 4967   1.821  21.832   5.808 -0.2945  0.1480  0.1227
62051W        W 4968   0.222  19.095   7.710 -0.0512 -0.0613  0.2257
62052W        W 4969   1.571  21.086   7.520 -0.1434 -0.1320  0.0298
62053W        W 4970   3.206  19.204   8.278 -0.3614 -0.1103  0.1359
62054W        W 4971   4.186  21.171   9.171 -0.0756 -0.1634  0.1569
62055W        W 4972   2.486  21.694   7.050 -0.0256  0.1925  0.1213
62056W        W 4973   3.050  20.677   9.002  0.1848 -0.1231  0.0282
62057W        W 4974   2.326  19.108   8.503  0.1838  0.0310  0.0341
62058W        W 4975   1.875  20.309   6.666  0.1370  0.0717  0.1476
62059W        W 4976   1.995  18.351   7.103  0.3416  0.1053 -0.2267
62060W        W 4977   0.507  18.705   6.856 -0.4064  0.1857 -0.0714
62061W        W 4978   1.932  20.876   5.170 -0.0702  0.0131 -0.0013
62062W        W 4979   1.166  21.610   7.111  0.2670  0.0815  0.0861
62063W        W 4980   1.902  19.253   7.843 -0.1009  0.0225  0.2099
62064W        W 4981  33.771  16.622   9.250  0.0149  0.2077 -0.1169
62065W        W 4982   2.908  19.486   6.692 -0.1412  0.0876 -0.0678
62066W        W 4983   0.847  19.662   6.831 -0.1961  0.0914 -0.0997
62067W        W 4984   2.646  20.729   8.663 -0.0929  0.2576 -0.3254
62068W        W 4985   1.199  19.874   6.290  0.0061  0.0428  0.2866
62069W        W 4986   0.340  20.236   7.133  0.3764 -0.0709  0.1246
62070W        W 4987   1.579  21.180   8.617 -0.0973  0.1257  0.1070
62071W        W 4988   2.019  21.582   9.470  0.0919  0.0600 -0.0284
62072W        W 4989   2.066  20.809   6.755 -0.2394 -0.0098 -0.2173
62073W        W 4990   2.369  18.577   8.339 -0.0267 -0.1782 -0.1119
62074W        W 4991   2.015  17.300  12.884  0.4396  0.3147  0.2659
62075W        W 4992   1.587  21.350   6.924  0.3889  0.1477 -0.0248
62076W        W 4993   2.128  20.763   7.861 -0.0256  0.1687  0.1774
62077W        W 4994   1.914  19.082   8.810 -0.0326  0.2252 -0.1741
62078W        W 4995  34.261  21.757  13.271 -0.0337 -0.3170 -0.0285
62079W        W 4996   2.861  20.367   6.749 -0.0452  0.0700  0.2035
62080W        W 4997   1.639  19.631   8.007 -0.2148 -0.0159  0.2135
62081W        W 4998   2.991  23.846   6.400 -0.1189  0.0265  0.2559
62082W        W 4999  34.639  21.512   8.088 -0.0322  0.2157 -0.1556
62083W        W 5000   2.078  21.891   6.298 -0.0246 -0.0975  0.0627
62084W        W 5001   3.038  22.396   7.380 -0.0200  0.1392  0.0939
62085W        W 5002   2.092  21.246   7.692  0.0226  0.2700 -0.0514
62086W        W 5003   1.686  18.612   8.994  0.2710 -0.0429 -0.2441
62087W        W 5004   2.880  18.759   7.288 -0.1365  0.1236  0.0287
62088W        W 5005   2.534  21.297   6.701 -0.2987 -0.3755 -0.0608
62089W        W 5006  32.691  21.286   6.020  0.1561  0.1541 -0.2104
62090W        W 5007   4.056  22.411   6.361  0.1828  0.1275 -0.0577
62091W        W 5008   1.976  20.114   8.604 -0.0474 -0.2200 -0.2176
62092W        W 5009   2.757  18.875   8.946 -0.2019 -0.0329 -0.2861
62093W        W 5010   2.601  20.299   7.801  0.2846  0.0946 -0.1662
62094W        W 5011   2.914  18.353   8.199  0.4543  0.1136  0.1570
62095W        W 5012   1.293  22.684   9.144  0.0930  0.0626  0.0505
62096W        W 5013   2.897  17.421   7.322 -0.1394 -0.0565  0.0442
62097W        W 5014   3.022  21.700   6.895  0.1215 -0.0353  0.1350
62098W        W 5015  33.550  20.951   8.911  0.2874  0.2683 -0.0652
62099W        W 5016   1.449  20.997   8.166  0.0992  0.0628 -0.0780
62100W        W 5017   3.489  21.852   9.366  0.2424  0.0501  0.0692
62101W        W 5018   2.984  19.027   6.430  0.0926 -0.2350 -0.0788
62102W        W 5019   2.914  21.552   8.288  0.3298  0.1965 -0.0766
62103W        W 5020   2.452  21.099   8.209  0.1074  0.2254  0.1504
62104W        W 5021   1.565  22.120   8.839  0.1385 -0.0195  0.1190
62105W        W 5022   3.407  23.199  10.598  0.0277 -0.3292  0.0734
62106W        W 5023   2.180  19.269   7.421 -0.1280  0.1215 -0.2196
62107W        W 5024   4.287  21.885   5.641 -0.2671 -0.3419 -0.0195
62108W        W 5025   0.288  20.693   9.535  0.0253  0.1368  0.1451
62109W        W 5026   2.796  22.558   9.012 -0.2786  0.0812  0.3047
62110W        W 5027   2.028  19.612   8.687 -0.0116  0.0281  0.1259
62111W        W 5028   1.175  21.369   8.368 -0.0324  0.1463  0.4093
62112W        W 5029  33.751  20.286   8.446 -0.0716  0.4278 -0.2929
62113W        W 5030   2.758  20.258   6.295  0.0897 -0.1492  0.0305
62114W        W 5031   4.015  19.747   6.045  0.3713 -0.1760 -0.0334
62115W        W 5032   0.768  18.409   7.270 -0.1129 -0.3614 -0.0254
62116W        W 5033   1.048  18.831   8.205  0.0240 -0.0412 -0.2873
62117W        W 5034   0.367  21.724   6.639 -0.1406 -0.3352 -0.2197
62118W        W 5035   0.907  24.170   8.641 -0.0919 -0.2862 -0.0248
62119W        W 5036  34.361  16.924   8.422 -0.3316 -0.1480 -0.0775
62120W        W 5037   5.372  20.192   7.553 -0.0465 -0.0997 -0.2343
62121W        W 5038   4.090  19.413   8.509  0.0062  0.1229  0.0216
62122W        W 5039   2.421  21.117   5.751  0.1467  0.2666 -0.1931
62123W        W 5040   3.939  20.591   8.976  0.2663  0.0695 -0.5103
62124W        W 5041   6.059  19.954   9.263  0.2415  0.1586  0.1835
62125W        W 5042   3.081  18.558   7.740  0.4265 -0.0016 -0.3196
62126W        W 5043   1.889  18.841   8.155 -0.0433 -0.0470 -0.0538
62127W        W 5044   3.708  17.038   9.930  0.2332 -0.0120 -0.1332
62128W        W 5045   3.331  17.908   7.462  0.0854  0.2818  0.1650
62129W        W 5046   2.078  22.015   7.346 -0.1208  0.1645 -0.2070
62130W        W 5047   0.153  24.011   8.737 -0.4197 -0.0257  0.1252
62131W        W 5048   3.869  19.101   8.868  0.2397 -0.1117  0.1691
62132W        W 5049   2.418  23.452   7.465  0.1392  0.2331 -0.2915
62133W        W 5050   0.732  22.980   7.961  0.0575 -0.0010 -0.0700
62134W        W 5051  34.406  21.158   5.783  0.0672  0.0086 -0.2300
62135W        W 5052   2.403  20.744   6.221 -0.0099 -0.1372  0.3017
62136W        W 5053   1.110  22.423   7.470  0.1573  0.0075 -0.4404
62137W        W 5054   3.099  22.739   9.385  0.1021 -0.2386 -0.1451
62138W        W 5055   1.010  16.729   9.343 -0.0319  0.2801 -0.2182
62139W        W 5056   2.505  20.015   9.499 -0.1317 -0.0306  0.0503
62140W        W 5057   2.190  18.760   7.671  0.2398  0.0148 -0.0322
62141W        W 5058   1.758  19.274   8.353  0.1208  0.0089 -0.4695
62142W        W 5059   0.915  17.587   6.342  0.1849 -0.1284 -0.4744
62143W        W 5060   1.297  23.844   8.690 -0.1422  0.0519  0.1050
62144W        W 5061  32.127  20.505   7.332  0.0687  0.2405  0.2381
62145W        W 5062   0.384  21.269   7.474 -0.3572  0.0263 -0.1674
62146W        W 5063   3.070  20.746   6.964  0.0346 -0.0186  0.2516
62147W        W 5064   1.562  21.629   7.519  0.0092  0.3984  0.0061
62148W        W 5065   0.894  19.270   9.052 -0.0811  0.2919  0.3558
62149W        W 5066   3.685  19.533   8.250  0.6879  0.3094  0.2008
62150W        W 5067   2.136  19.590   8.174  0.1368 -0.2503 -0.0440
62151W        W 5068   2.469  20.010   7.374  0.2840 -0.1618  0.0446
62152W        W 5069   4.392  21.231   7.728 -0.1646 -0.3030  0.0644
62153W        W 5070   4.247  21.911   7.105 -0.1012 -0.1043  0.2725
62154W        W 5071   1.349  19.209   8.099  0.0104 -0.1473  0.1029
62155W        W 5072   0.201  19.864   6.264  0.0886 -0.0553 -0.0224
62156W        W 5073   1.333  19.114   7.376  0.2156 -0.2112  0.2032
62157W        W 5074  34.306  18.915   8.529 -0.2354  0.4108  0.3040
62158W        W 5075   4.095  22.101   8.933 -0.0543  0.1701 -0.1898
62159W        W 5076   1.384  23.757   7.649  0.3034 -0.2034  0.0141
62160W        W 5077   1.166  18.741   8.835 -0.3226 -0.1636  0.1835
62161W        W 5078   2.204  21.373   6.364 -0.2996 -0.1327 -0.2427
62162W        W 5079   5.823  20.168   8.308  0.1090  0.0286  0.0104
62163W        W 5080   2.684  17.687   9.450  0.1353 -0.2539 -0.3174
62164W        W 5081   2.691  21.180   7.713 -0.1760 -0.1309 -0.1858
62165W        W 5082   2.977  20.906   7.400  0.0100  0.1957 -0.1840
62166W        W 5083   2.208  18.582   8.950  0.0757  0.2179 -0.0229
62167W        W 5084   3.908  18.575   8.783  0.1386  0.0310  0.1688
62168W        W 5085   1.623  22.552   8.167 -0.0006 -0.0064 -0.0270
62169W        W 5086   0.378  22.378   8.955  0.2899  0.1579  0.0973
62170W        W 5087   0.732  17.217   9.149  0.1246 -0.1588 -0.1110
62171W        W 5088   1.913  21.089   8.168  0.0698 -0.1134 -0.0207
62172W        W 5089   2.139  19.914   6.673 -0.0166 -0.2668  0.3357
62173W        W 5090   3.110  19.179   7.227  0.0314 -0.1808 -0.0657
62174W        W 5091   3.967  24.372   9.271 -0.0406 -0.1904 -0.0607
62175W        W 5092   3.180  22.229   6.900 -0.2022  0.0829 -0.2092
62176W        W 5093   2.988  20.116   9.224 -0.0899 -0.1036 -0.2223
62177W        W 5094   0.246  19.586   9.444  0.2255 -0.1149  0.2155
62178W        W 5095   1.571  20.617   7.505  0.0838  0.1218  0.2952
62179W        W 5096   2.084  19.738   7.155  0.0519  0.1314 -0.2669
62180W        W 5097   1.360  20.990   9.135  0.0320  0.0945 -0.1149
62181W        W 5098   2.827  18.158   9.639 -0.0403  0.0906  0.2568
62182W        W 5099   1.588  18.054   7.249 -0.0614 -0.2460  0.6294
62183W        W 5100   2.780  24.341   8.997 -0.1506 -0.4302  0.1485
62184W        W 5101   3.094  22.214   9.334 -0.2741  0.1175 -0.3825
62185W        W 5102   0.246  25.148   2.751  0.0962 -0.4029  0.0905
62186W        W 5103  34.338  22.703   0.734  0.0946  0.2235 -0.3544
62187W        W 5104   2.405  24.296   0.513 -0.1559 -0.1261  0.0912
62188W        W 5105   4.234  21.447  31.635  0.1312  0.2723  0.1102
62189W        W 5106   1.292  24.220   1.025 -0.0769 -0.1919 -0.5138
62190W        W 5107   3.683  24.202   0.818  0.1587 -0.3598 -0.0418
62191W        W 5108   0.672  21.797   2.513 -0.2604 -0.2738  0.1591
62192W        W 5109   1.791  26.106   0.991 -0.0958  0.0095 -0.3953
62193W        W 5110   5.512  26.486   1.875  0.2124  0.0288 -0.3124
62194W        W 5111   2.213  23.417   0.591 -0.2119 -0.0449  0.2739
62195W        W 5112  34.201  22.296   1.904 -0.1512  0.2070 -0.0692
62196W        W 5113   0.760  24.413   1.165  0.1509  0.0552  0.0147
62197W        W 5114   1.099  23.298  31.819  0.1106  0.1082 -0.4484
62198W        W 5115  33.249  20.506   1.581  0.0919  0.1156  0.2390
62199W        W 5116   1.931  23.329   2.581  0.2825 -0.1431 -0.1625
62200W        W 5117   1.273  24.044  31.800 -0.1351 -0.0974  0.1069
62201W        W 5118   3.244  24.686   0.900  0.1060 -0.1279  0.0605
62202W        W 5119   2.371  23.184   1.535  0.0987  0.2581 -0.0749
62203W        W 5120   4.341  26.513   0.629  0.3837  0.1767  0.0122
62204W        W 5121   1.320  21.537   1.324  0.1114 -0.3962 -0.1542
62205W        W 5122   1.215  23.634   4.038  0.2401 -0.1559  0.1303
62206W        W 5123   3.007  25.211   0.666 -0.1525 -0.1691 -0.4263
62207W        W 5124  34.586  24.786   2.674 -0.4355 -0.0563 -0.2290
62208W        W 5125  34.058  22.440   3.286  0.2623 -0.1313  0.2545
62209W        W 5126  34.613  24.990   1.789  0.2014  0.0493  0.1621
62210W        W 5127   4.252  20.728   2.336  0.0975 -0.0970 -0.1486
62211W        W 5128   4.631  23.948   0.337 -0.0265  0.0989 -0.4048
62212W        W 5129   0.505  25.595   0.261  0.3096  0.0421  0.2256
62213W        W 5130   2.759  26.318   2.211  0.0018  0.2199  0.0749
62214W        W 5131   4.300  23.264   1.704 -0.0103  0.0824 -0.0954
62215W        W 5132   1.316  23.644   1.232  0.1231 -0.1099  0.0819
62216W        W 5133  33.763  23.005   0.517  0.0032 -0.2669  0.0423
62217W        W 5134   3.464  26.205   0.314  0.0055  0.2529  0.1166
62218W        W 5135   2.335  23.438   1.090 -0.2601  0.2207 -0.0771
62219W        W 5136   3.281  23.887   2.087 -0.1000  0.3550  0.0311
62220W        W 5137   2.460  25.069   2.153  0.0179  0.3417  0.0850
62221W        W 5138   0.750  23.999  31.171  0.1542  0.1973 -0.3676
62222W        W 5139   3.129  25.577   2.462  0.1643 -0.0590  0.0274
62223W        W 5140   1.405  25.888   1.362  0.1811  0.2940  0.3965
62224W        W 5141   1.255  25.131   1.627  0.2433 -0.0335 -0.2894
62225W        W 5142   1.540  24.542   2.140  0.0631  0.4583 -0.1389
62226W        W 5143   1.049  24.685   0.809 -0.1782  0.1216 -0.2925
62227W        W 5144   2.615  25.662   1.355  0.2112  0.1990  0.0226
62228W        W 5145  32.200  24.383   2.696  0.2579 -0.1076 -0.0419
62229W        W 5146  33.860  26.177   1.591  0.1279  0.0745 -0.3248
62230W        W 5147   3.319  22.525   3.117 -0.0876  0.3757  0.0159
62231W        W 5148   4.273  25.673   0.289 -0.2048 -0.0170  0.2687
62232W        W 5149   3.760  23.623   0.041 -0.3061 -0.1659 -0.1159
62233W        W 5150   0.317  22.043   0.729  0.0493 -0.2967  0.1878
62234W        W 5151   2.498  21.867   1.035  0.1817 -0.3649 -0.1135
62235W        W 5152   4.277  21.062   2.727  0.2298 -0.1713  0.0521
62236W        W 5153   0.974  26.284   2.157  0.2323  0.0489  0.0965
62237W        W 5154  34.181  21.449   1.561 -0.1527  0.2025  0.2161
62238W        W 5155   3.877  25.402   3.015 -0.1227  0.1491  0.1528
62239W        W 5156   1.581  23.924   0.223 -0.0146 -0.3109  0.2180
62240W        W 5157   0.855  20.892   1.934  0.1281  0.0226 -0.0641
62241W        W 5158   0.007  26.468   2.602  0.0617  0.0688 -0.2343
62242W        W 5159   2.709  23.813   2.023  0.0823  0.2010  0.0392
62243W        W 5160   3.964  24.225  31.287 -0.1802  0.0912 -0.0023
62244W        W 5161   4.236  23.739   0.183 -0.0191 -0.2334  0.1582
62245W        W 5162   3.404  26.980  31.498 -0.0770 -0.1145 -0.0023
62246W        W 5163   0.057  23.168   1.552 -0.2176  0.0204 -0.3036
62247W        W 5164  34.663  23.714   1.417 -0.0217  0.2341 -0.0390
62248W        W 5165   1.653  24.087   1.368 -0.1099 -0.2244  0.0239
62249W        W 5166   0.859  22.544   0.242 -0.1680 -0.0247  0.0842
62250W        W 5167   3.693  23.356   3.272  0.2928  0.1026  0.1519
62251W        W 5168  34.172  25.581   1.775  0.1385  0.0141 -0.2129
62252W        W 5169   1.410  25.184   0.959 -0.2064  0.2224  0.0618
62253W        W 5170  33.757  25.942   0.641  0.0181  0.0543 -0.2985
62254W        W 5171   1.214  24.275   1.613  0.0480 -0.0335 -0.0507
62255W        W 5172   2.110  21.816  31.200  0.0977 -0.1108  0.0303
62256W        W 5173   3.918  21.461   1.329 -0.1430  0.2702 -0.2715
62257W        W 5174   4.861  21.157   1.909 -0.1854  0.0622 -0.0320
62258W        W 5175   2.978  21.361  31.227 -0.2417 -0.1090 -0.0819
62259W        W 5176   2.973  26.177   1.315 -0.1339 -0.0653 -0.2288
62260W        W 5177   6.037  26.175   1.854  0.0158 -0.0455 -0.2284
62261W        W 5178   4.999  22.528   2.633  0.1990  0.1570 -0.0192
62262W        W 5179   1.658  25.466   1.428 -0.0496 -0.0224  0.0799
62263W        W 5180   1.415  23.134   1.298  0.4030 -0.3355 -0.1358
62264W        W 5181   0.526  23.549   1.529  0.1301  0.0276  0.1714
62265W        W 5182   1.837  26.325  29.471 -0.0580 -0.1788  0.0752
62266W        W 5183  34.303  25.788   1.225  0.2495 -0.0928  0.1873
62267W        W 5184  34.265  25.898   0.690  0.2531 -0.3574  0.1512
62268W        W 5185  33.374  21.878   0.645 -0.2488  0.1245 -0.0900
62269W        W 5186   0.378  26.158   0.600  0.0443 -0.3236  0.1052
62270W        W 5187   3.680  22.333  31.399  0.0727  0.1908 -0.2403
62271W        W 5188   0.298  21.940   1.320 -0.1540 -0.1464  0.0387
62272W        W 5189   3.267  23.388   0.824  0.4524  0.0716 -0.0436
62273W        W 5190  34.077  26.150   0.239  0.2566  0.2106  0.2088
62274W        W 5191   4.150  25.089   0.879 -0.1595  0.2554 -0.0843
62275W        W 5192   1.357  21.413   1.801 -0.1143 -0.1146 -0.2790
62276W        W 5193   3.186  24.368   0.472  0.2788 -0.1494 -0.1332
62277W        W 5194   0.401  23.845   0.640 -0.2564  0.0658  0.0370
62278W        W 5195  34.519  24.024   0.021 -0.0439  0.0094  0.1496
62279W        W 5196  34.538  21.501   3.383 -0.1397  0.0950 -0.0593
62280W        W 5197   0.848  23.579   0.711  0.1277 -0.4821  0.2238
62281W        W 5198   4.525  22.615   2.808 -0.0254  0.1308  0.2009
62282W        W 5199  33.178  22.203  30.541 -0.3964  0.0169  0.1095
62283W        W 5200   1.605  22.670   2.216 -0.1220  0.0076 -0.0579
62284W        W 5201   0.755  23.870   0.247 -0.1964 -0.4130  0.0322
62285W        W 5202  33.395  25.687   1.027  0.0887  0.0384  0.0123
62286W        W 5203   4.135  22.549   3.751  0.0392  0.2197 -0.0948
62287W        W 5204   2.624  25.212   0.334 -0.0440  0.0837 -0.0132
62288W        W 5205   4.554  25.769   1.258  0.0236 -0.2342 -0.1341
62289W        W 5206   3.916  23.779   0.596  0.3058 -0.0199 -0.2121
62290W        W 5207   0.706  22.559   0.829  0.2105 -0.0857 -0.0145
62291W        W 5208   0.352  21.828   2.194  0.1497 -0.1834 -0.3183
62292W        W 5209  34.501  23.452  31.031  0.1395  0.2355 -0.2219
62293W        W 5210   0.520  26.183   1.841 -0.1586  0.0999  0.0373
62294W        W 5211   0.035  20.934   1.796 -0.0233 -0.1395 -0.2765
62295W        W 5212   3.615  27.528   0.236 -0.0878  0.0379 -0.2207
62296W        W 5213   0.077  24.851   0.712  0.0338  0.1186  0.1053
62297W        W 5214   0.823  24.273  31.742  0.0169 -0.0629 -0.1914
62298W        W 5215   1.504  22.536   1.344  0.2013 -0.1145  0.3436
62299W        W 5216   4.562  23.686   3.060 -0.0015  0.0020  0.2246
62300W        W 5217   1.848  22.307   2.677  0.2983  0.0116  0.2197
62301W        W 5218  34.160  20.066  31.576  0.0953 -0.0644  0.1623
62302W        W 5219   5.195  25.599   1.819 -0.0301 -0.1607 -0.1809
62303W        W 5220   1.009  24.910  31.609  0.0393  0.0138  0.1756
62304W        W 5221   1.230  23.558   0.279 -0.2195 -0.0508  0.2000
62305W        W 5222   3.091  26.650   0.372  0.0340 -0.2078  0.0805
62306W        W 5223   2.225  21.951  31.677 -0.0844 -0.1540  0.1872
62307W        W 5224  33.853  23.586   4.193 -0.0612  0.2511  0.1488
62308W        W 5225   4.208  23.749   2.414 -0.1169  0.1307  0.3076
62309W        W 5226  34.185  23.623  31.395  0.1973 -0.1397 -0.3784
62310W        W 5227   2.199  25.665   2.488  0.1048 -0.0623 -0.3403
62311W        W 5228   2.072  20.672  30.456 -0.0168  0.0664 -0.0715
62312W        W 5229   5.048  21.694   0.248  0.0194 -0.0167 -0.1759
62313W        W 5230   2.541  23.866   0.775  0.0728 -0.1669  0.2326
62314W        W 5231   3.223  23.337   1.298  0.2946 -0.1122 -0.1238
62315W        W 5232   2.523  24.310  31.811  0.0084  0.0689  0.1691
62316W        W 5233   1.506  22.783   0.458 -0.4141 -0.0491  0.1517
62317W        W 5234   1.932  25.747   3.475  0.2565  0.2101  0.0169
62318W        W 5235   3.839  24.142   1.307 -0.0249  0.0897  0.1142
62319W        W 5236   1.603  23.336   2.989  0.1106 -0.1604  0.3457
62320W        W 5237  34.399  20.833   0.665 -0.0722 -0.0597  0.1220
62321W        W 5238   5.351  23.631   0.317 -0.0133  0.1177 -0.1206
62322W        W 5239   0.285  25.133   1.069 -0.0435  0.1040  0.1506
62323W        W 5240   2.846  23.979   0.309  0.0767 -0.4253  0.0977
62324W        W 5241   3.476  25.419   0.385 -0.0390 -0.0661  0.1133
62325W        W 5242   0.907  23.354   1.272  0.0376  0.2340  0.0722
62326W        W 5243   2.978  24.770   0.157  0.1330 -0.0685 -0.1965
62327W        W 5244   1.202  22.786  31.939 -0.0969  0.0679 -0.1877
62328W        W 5245  34.423  24.262  29.552  0.2869  0.0658  0.0601
62329W        W 5246   2.605  21.244   1.152 -0.3280  0.3062  0.0585
62330W        W 5247   2.267  21.241   2.283  0.0798 -0.1339 -0.0836
62331W        W 5248   2.226  22.737   1.776 -0.0303  0.2244  0.1024
62332W        W 5249   5.023  23.424   2.232  0.1109  0.1640  0.0800
62333W        W 5250   3.156  22.071   0.193 -0.1321  0.5177 -0.2795
62334W        W 5251   1.197  25.869   2.268 -0.1756  0.2417  0.0426
62335W        W 5252   0.846  23.191  30.951 -0.1046  0.1493 -0.1861
62336W        W 5253   1.529  21.963   2.567 -0.2014 -0.0327  0.0672
62337W        W 5254   0.666  24.882   1.356 -0.1508 -0.2600  0.1804
62338W        W 5255   1.091  25.506   1.281 -0.0342 -0.2320 -0.1251
62339W        W 5256   3.954  23.725   1.566 -0.1407  0.2805 -0.0465
62340W        W 5257   1.949  24.773   1.999  0.0176  0.0841 -0.0586
62341W        W 5258   1.188  24.682   1.337 -0.1589 -0.1859  0.0995
62342W        W 5259   1.042  23.068   0.400 -0.1664  0.1646  0.2916
62343W        W 5260  34.574  26.176   0.967  0.0688 -0.1047 -0.3301
62344W        W 5261   2.779  25.179   1.375  0.4104  0.1996  0.0188
62345W        W 5262   2.087  23.420   0.067 -0.3166  0.0955  0.0375
62346W        W 5263   1.022  26.321   2.666  0.1635  0.1288 -0.1624
62347W        W 5264   3.822  24.164   0.240 -0.0863  0.1592 -0.0334
62348W        W 5265   3.100  23.972   1.584  0.1248  0.0091 -0.2696
62349W        W 5266   0.920  25.259  31.210  0.2257  0.2167  0.1395
62350W        W 5267   0.013  21.436   2.051 -0.1920 -0.0635 -0.0363
62351W        W 5268  33.308  26.698   1.339 -0.1463  0.1148 -0.1369
62352W        W 5269   0.546  22.903   0.443  0.0805  0.1431  0.0730
62353W        W 5270  33.732  24.168   2.442  0.1176  0.1093  0.1909
62354W        W 5271   1.567  21.986   1.459 -0.0132 -0.1294 -0.2092
62355W        W 5272   3.579  24.602   1.309  0.3315 -0.2007 -0.2097
62356W        W 5273   1.649  22.166   2.146 -0.3456 -0.1452 -0.0166
62357W        W 5274   0.617  22.408   1.452 -0.2122 -0.0196  0.3679
62358W        W 5275  34.075  24.993   2.694  0.0386 -0.1451 -0.1475
62359W        W 5276   4.360  24.162   2.193 -0.1652  0.1114  0.1881
62360W        W 5277   2.834  23.165   1.428 -0.0833 -0.0758  0.1924
62361W        W 5278   5.557  23.276   2.232  0.2608  0.0345  0.1000
62362W        W 5279   1.116  23.762   2.130  0.0440 -0.0663 -0.1643
62363W        W 5280  33.971  22.617   0.379  0.0142 -0.2204 -0.0014
62364W        W 5281   3.826  22.313   1.274 -0.0674 -0.2084 -0.2916
62365W        W 5282   0.219  23.271  31.871  0.0114  0.1490  0.0469
62366W        W 5283  33.184  24.961   2.484  0.0869  0.1475 -0.2431
62367W        W 5284   3.310  26.040   2.244  0.0032  0.2172  0.3292
62368W        W 5285   1.984  21.474  31.657 -0.0883 -0.0650 -0.2520
62369W        W 5286   1.842  25.440   0.932  0.0667 -0.0774 -0.1431
62370W        W 5287   0.750  23.150   4.788  0.2404  0.1227  0.5104
62371W        W 5288   4.695  24.583   0.475 -0.2062 -0.2464  0.0624
62372W        W 5289   1.025  24.830   0.143  0.0191 -0.1084 -0.1199
62373W        W 5290  34.192  22.416   2.414 -0.0316 -0.1143  0.0388
62374W        W 5291   1.084  25.577   1.851  0.1641 -0.2844  0.2274
62375W        W 5292   5.230  25.131   1.586  0.1865  0.0755  0.0206
62376W        W 5293   0.352  23.278   2.371  0.1441  0.0344  0.1453
62377W        W 5294   0.423  23.144   3.001 -0.2010 -0.0270  0.1152
62378W        W 5295   0.981  22.673   3.072  0.4959 -0.1519 -0.2839
62379W        W 5296   2.513  22.601   0.543 -0.1609 -0.2310 -0.0639
62380W        W 5297   1.979  24.365   1.691 -0.1961  0.1618  0.1580
62381W        W 5298   3.075  24.344  30.988  0.2091  0.0004  0.1981
62382W        W 5299   0.611  24.188   2.194 -0.0984  0.1485  0.0324
62383W        W 5300   0.184  24.664  31.221 -0.0614 -0.0615 -0.0730
62384W        W 5301   3.299  23.925   0.726 -0.1136 -0.1389  0.2187
62385W        W 5302   0.099  25.688   0.972  0.3544  0.0583  0.0216
62386W        W 5303  33.556  26.420   0.931  0.1399  0.0986 -0.0685
62387W        W 5304  33.807  25.223   1.699  0.0701  0.1266  0.1378
62388W        W 5305   3.254  22.203  31.638  0.1307 -0.2740  0.3234
62389W        W 5306   1.861  24.535  31.805  0.0998 -0.0470  0.1709
62390W        W 5307   0.984  23.781   1.648  0.0591 -0.4033  0.2642
62391W        W 5308   3.977  23.442   2.087  0.0746  0.0047  0.2804
62392W        W 5309   3.144  24.040  31.868  0.0139 -0.2650 -0.1027
62393W        W 5310   0.757  21.777   3.561 -0.3640  0.1742  0.1387
62394W        W 5311  33.735  20.375   1.623 -0.0458  0.1520  0.0185
62395W        W 5312   5.291  25.333   0.103 -0.0329  0.0233  0.1207
62396W        W 5313   1.051  21.981   2.767 -0.1782 -0.1110 -0.0149
62397W        W 5314   1.637  24.419   3.380  0.0846  0.0606 -0.3586
62398W        W 5315   1.053  24.352   2.159  0.2250 -0.0341 -0.0470
62399W        W 5316   0.632  23.355   0.273 -0.1403 -0.3109  0.1099
62400W        W 5317   3.207  24.694  30.626 -0.3140  0.2348 -0.1625
62401W        W 5318   2.383  24.645   1.529  0.2541  0.0262 -0.2058
62402W        W 5319   4.324  24.976   1.371 -0.0984 -0.1793  0.3292
62403W        W 5320   2.761  24.767   0.632  0.2850 -0.2723 -0.1144
62404W        W 5321   5.533  22.674   2.095  0.1669  0.2505 -0.1362
62405W        W 5322  33.978  24.451   1.150 -0.4031  0.0907 -0.3333
62406W        W 5323   2.031  23.908   0.484  0.1405  0.1161  0.0735
62407W        W 5324   2.389  23.788   0.210 -0.0189  0.1945  0.3507
62408W        W 5325   1.374  25.662   0.830 -0.2921  0.0810 -0.3138
62409W        W 5326  34.410  21.511   2.479  0.0843  0.2626 -0.3909
62410W        W 5327   4.521  22.508   2.266  0.0078 -0.1194 -0.2080
62411W        W 5328   3.168  22.325   2.045 -0.1250  0.4437 -0.1368
62412W        W 5329   0.777  22.470   2.589  0.0897  0.0989 -0.0314
62413W        W 5330   2.734  24.853   1.795  0.0206  0.1055  0.3803
62414W        W 5331   1.515  23.147   2.153 -0.0572  0.2381  0.1359
62415W        W 5332   0.129  22.722   4.358 -0.1958 -0.0671  0.1410
62416W        W 5333   3.277  25.140   1.727 -0.1505 -0.0694 -0.0099
62417W        W 5334   4.168  23.754   1.146  0.1822 -0.0435  0.0571
62418W        W 5335   5.452  22.696   2.837 -0.0871  0.4195  0.2797
62419W        W 5336   4.634  22.055   0.474 -0.0902  0.1721  0.2896
62420W        W 5337   1.901  23.069   0.443  0.1581  0.0494  0.3401
62421W        W 5338  34.238  22.936   2.788 -0.3051 -0.2835 -0.0030
62422W        W 5339   5.047  24.858   0.862  0.1250  0.0113  0.1450
62423W        W 5340  34.269  21.625  31.332 -0.1889 -0.1050 -0.0626
62424W        W 5341   2.394  21.690   2.010  0.0886 -0.1131  0.1194
62425W        W 5342   3.265  25.807   0.646 -0.1549  0.2442  0.0264
62426W        W 5343   2.391  24.140   1.752 -0.0969 -0.2795  0.0165
62427W        W 5344   2.739  21.847   0.294  0.1509  0.0499 -0.0481
62428W        W 5345  34.572  23.500   2.360  0.0894  0.0898  0.2525
62429W        W 5346   0.774  22.696   1.824 -0.1825  0.3448 -0.0689
62430W        W 5347  34.466  25.331   0.841  0.1695  0.1185  0.1821
62431W        W 5348   2.270  21.807   0.532 -0.2073 -0.2869  0.1865
62432W        W 5349   2.866  24.329   0.840  0.1396 -0.0228  0.0027
62433W        W 5350   3.093  25.799   3.609  0.2172  0.3221  0.0523
62434W        W 5351   1.561  24.631   1.003 -0.0667  0.2605 -0.1731
62435W        W 5352   4.662  21.593   2.068  0.3314 -0.0470  0.1448
62436W        W 5353   0.771  26.449   0.769  0.0947 -0.1415 -0.0032
62437W        W 5354   0.440  20.594   3.153  0.2245  0.0180 -0.1550
62438W        W 5355   1.251  25.339  31.602  0.2009 -0.0043 -0.0913
62439W        W 5356  34.324  24.870   1.022 -0.2095 -0.0710 -0.3166
62440W        W 5357   0.063  25.501   1.851  0.2225 -0.1435 -0.1053
62441W        W 5358   1.177  22.432   2.211 -0.3817  0.0206 -0.4658
62442W        W 5359   1.121  22.173   1.248  0.2445 -0.0303  0.4469
62443W        W 5360  34.283  27.464  31.288  0.1866  0.2200 -0.2310
62444W        W 5361   4.679  22.915   1.998  0.3042  0.0231 -0.3718
62445W        W 5362   0.791  23.871   1.167  0.2778 -0.1464 -0.0932
62446W        W 5363   0.423  24.417   0.582 -0.0329  0.2372  0.0007
62447W        W 5364   0.162  24.347   2.640  0.1175  0.0505  0.0672
62448W        W 5365   2.071  25.543   1.712 -0.1059 -0.1638 -0.3556
62449W        W 5366   3.027  26.019   2.711  0.2826  0.1647 -0.0660
62450W        W 5367   0.184  23.626   1.901  0.2289 -0.0659 -0.3209
62451W        W 5368   1.768  22.531   1.764 -0.0276 -0.0583  0.1873
62452W        W 5369   3.671  26.573   2.736  0.2683 -0.1881 -0.3028
62453W        W 5370   2.710  19.800  31.589  0.2514 -0.3257  0.1227
62454W        W 5371   3.727  24.019  30.311  0.0217  0.0505  0.1530
62455W        W 5372  34.586  23.888   3.747 -0.0348  0.2505  0.1243
62456W        W 5373   0.823  24.416   0.271  0.4047  0.1172  0.3612
62457W        W 5374   1.446  25.756  31.811  0.1276  0.4441  0.3379
62458W        W 5375   4.265  24.121   1.630 -0.0449 -0.1593 -0.3796
62459W        W 5376   2.253  25.107   1.694  0.1908 -0.0451  0.0643
62460W        W 5377   3.829  25.026   0.347 -0.0758 -0.1364  0.2021
62461W        W 5378   2.264  23.707  31.619  0.0821  0.0533  0.0219
62462W        W 5379   0.628  26.558   0.264  0.0062  0.1584 -0.0855
62463W        W 5380  34.430  23.588   0.779 -0.1946  0.0734  0.0715
62464W        W 5381   3.390  25.884   1.218 -0.0036  0.1145  0.2517
62465W        W 5382  34.596  25.351   1.389 -0.1463 -0.1785  0.0088
62466W        W 5383   5.269  24.049   3.119 -0.2220  0.0411  0.1061
62467W        W 5384   1.928  24.860   0.258 -0.0530 -0.2039 -0.0076
62468W        W 5385   4.191  23.016   2.426  0.1917 -0.0211  0.0434
62469W        W 5386   5.315  21.321  31.923 -0.2689  0.1028  0.0364
62470W        W 5387   0.579  24.783   0.854  0.1799  0.0049  0.0906
62471W        W 5388   3.022  23.441   1.778 -0.1964  0.0389 -0.2951
62472W        W 5389  34.647  20.843  31.687 -0.1249  0.0334  0.2930
62473W        W 5390   1.301  23.444   2.580  0.1205 -0.1533  0.1924
62474W        W 5391   3.854  22.891   3.388 -0.2353 -0.0042  0.2552
62475W        W 5392  34.128  26.357   2.914 -0.0259 -0.2845  0.0718
62476W        W 5393   3.262  23.680   0.263  0.3533 -0.1813  0.0621
62477W        W 5394  33.989  24.032  30.385  0.0933 -0.1487  0.0148
62478W        W 5395   2.235  25.230   2.636  0.3674 -0.0388 -0.1668
62479W        W 5396   5.259  22.955   3.403  0.1791  0.0547 -0.3895
62480W        W 5397   2.266  22.268   0.874  0.0436  0.0428  0.0156
62481W        W 5398   2.669  20.731   1.328  0.2773 -0.2008  0.1196
62482W        W 5399   2.117  25.283   0.499  0.1538 -0.0815  0.0792
62483W        W 5400   1.074  25.821   2.914 -0.0648  0.0177  0.1389
62484W        W 5401   0.187  25.835   1.469 -0.1463  0.0176 -0.2345
62485W        W 5402  34.583  21.793   1.547  0.0110  0.2640 -0.1466
62486W        W 5403   4.029  20.990  31.535 -0.4389  0.1245  0.0682
62487W        W 5404   1.612  24.101   1.900  0.1225  0.0883 -0.2882
62488W        W 5405   4.402  23.334   1.196  0.0743 -0.2111 -0.2933
62489W        W 5406   3.124  25.721   0.159 -0.2208 -0.0866 -0.5015
62490W        W 5407   1.859  23.398   1.345 -0.0781  0.0444  0.1923
62491W        W 5408   3.872  25.432   1.836  0.2066  0.3148  0.1794
62492W        W 5409   1.519  23.590   1.717 -0.1780  0.1612 -0.0285
62493W        W 5410   2.244  24.748   0.594 -0.1032  0.0883  0.1415
62494W        W 5411   5.867  24.063   3.281 -0.1732 -0.1996 -0.0187
62495W        W 5412   2.539  21.462   0.018  0.1580  0.1822 -0.0026
62496W        W 5413   3.340  24.257   2.772 -0.1956 -0.0763  0.1927
62497W        W 5414  34.525  24.059   1.724 -0.0079  0.0724 -0.3520
62498W        W 5415   3.561  23.328  29.927 -0.2277  0.0496  0.2223
62499W        W 5416   0.324  24.226   0.078 -0.0771  0.0633 -0.2246
62500W        W 5417  34.395  24.439   1.407 -0.2713 -0.0193 -0.0453
62501W        W 5418   1.927  22.965   3.098 -0.1979 -0.1614 -0.2286
62502W        W 5419   0.319  21.464   1.605  0.1911 -0.3270 -0.1359
62503W        W 5420   5.137  24.061   0.285 -0.3078  0.0084  0.3162
62504W        W 5421   2.124  22.529   3.364 -0.0038  0.0991 -0.1140
62505W        W 5422   1.512  24.743  31.002 -0.0127 -0.0478 -0.1879
62506W        W 5423   4.637  25.569   0.718 -0.0984 -0.1681 -0.2427
62507W        W 5424   3.115  26.632   1.406  0.1348  0.2565  0.1084
62508W        W 5425   1.089  24.808   2.003  0.2041  0.0671  0.0402
62509W        W 5426   1.664  25.173   1.842  0.0251  0.3797 -0.2864
62510W        W 5427   4.585  25.033   0.618  0.3906 -0.1108 -0.0071
62511W        W 5428   1.852  22.075   0.205 -0.0349  0.2688 -0.2431
62512W        W 5429   0.954  22.803   1.368  0.0502  0.0024  0.2737
62513W        W 5430  33.972  24.978  30.865  0.1168  0.0844 -0.1642
62514W        W 5431   3.363  22.334   1.067 -0.0900  0.0767 -0.0441
62515W        W 5432   2.457  22.976   3.105  0.1517  0.0404 -0.0855
62516W        W 5433   3.899  26.874  31.485 -0.1165 -0.0105  0.1162
62517W        W 5434   3.304  21.464   4.687  0.0792 -0.0135 -0.2171
62518W        W 5435   1.400  26.403   2.282  0.1741  0.2301 -0.0754
62519W        W 5436   0.918  25.445   3.284 -0.1521  0.2242 -0.0912
62520W        W 5437   1.024  26.274  31.561  0.0094 -0.1401  0.1607
62521W        W 5438   0.444  24.054   1.642 -0.2431 -0.0876 -0.4361
62522W        W 5439   1.271  23.262   0.835  0.4363  0.2807 -0.0159
62523W        W 5440   4.701  25.746  31.379 -0.1188 -0.1499 -0.3905
62524W        W 5441   2.803  24.735   1.158 -0.1261 -0.0291 -0.2946
62525W        W 5442   3.177  22.919   1.728 -0.0782  0.1794  0.1161
62526W        W 5443   3.760  24.001  31.692 -0.1014  0.2165  0.0959
62527W        W 5444   0.866  21.804   1.617  0.0033  0.1791 -0.0853
62528W        W 5445   3.465  21.696  31.884  0.3001  0.1474 -0.1178
62529W        W 5446   3.322  21.964   2.408  0.1496  0.1704  0.2387
62530W        W 5447   1.086  24.025   2.645  0.0871  0.1356  0.1971
62531W        W 5448   0.598  24.756  31.935  0.2839 -0.1472  0.0968
62532W        W 5449   3.306  24.910  30.145 -0.0746 -0.0178  0.1659
62533W        W 5450  33.343  25.421   2.736 -0.3600 -0.1116 -0.0903
62534W        W 5451   2.637  20.701   2.876  0.2512  0.0666  0.3877
62535W        W 5452   0.775  22.954   2.682  0.1161  0.1468  0.1543
62536W        W 5453   0.877  25.115   2.847 -0.1643  0.2750 -0.1955
62537W        W 5454   1.799  20.544  31.318 -0.2634 -0.4339  0.2786
62538W        W 5455   3.063  25.146  30.908  0.0365 -0.1030  0.0511
62539W        W 5456   1.205  21.042   1.043  0.1060 -0.0180 -0.1187
62540W        W 5457  34.547  21.354   0.662  0.0791  0.3603 -0.1685
62541W        W 5458   1.738  22.981   1.653 -0.3727  0.0757 -0.0211
62542W        W 5459   3.791  24.560   0.475 -0.0910  0.0755 -0.0713
62543W        W 5460  34.577  21.775   0.393 -0.2434 -0.1599 -0.2241
62544W        W 5461   2.522  25.339   0.853 -0.0848  0.0703  0.0642
62545W        W 5462  34.519  23.954  31.200  0.1784  0.0327  0.0202
62546W        W 5463   2.110  24.131   3.376 -0.3171  0.1466 -0.4767
62547W        W 5464   1.253  21.442   4.260 -0.0768 -0.0450  0.2081
62548W        W 5465  34.487  22.242   1.132  0.0632 -0.0575 -0.2784
62549W        W 5466   1.929  22.221   1.179  0.1316  0.0323 -0.2166
62550W        W 5467   2.733  25.982   0.912 -0.0707  0.4535  0.0771
62551W        W 5468   3.663  25.478  30.145  0.1152  0.1438 -0.1000
62552W        W 5469   2.254  24.864   1.061  0.0276 -0.3419  0.3329
62553W        W 5470   1.517  24.177   2.469 -0.1835  0.1097  0.0349
62554W        W 5471   0.318  21.051   2.911  0.1331 -0.2107  0.1189
62555W        W 5472   4.275  22.425   1.442  0.0902  0.1223 -0.2167
62556W        W 5473   0.647  25.639   1.592 -0.2121  0.0621 -0.0264
62557W        W 5474   2.972  23.035   0.513 -0.3821 -0.2127  0.3552
62558W        W 5475   4.700  22.978   2.498  0.1530  0.0330 -0.0683
62559W        W 5476   3.486  25.451   0.956 -0.2206 -0.1002 -0.2218
62560W        W 5477  33.891  22.581   2.790 -0.1138  0.0380  0.2608
62561W        W 5478  34.584  21.656   4.070 -0.0385 -0.0592 -0.0355
62562W        W 5479   4.107  24.544   1.471  0.0225  0.1490  0.1714
62563W        W 5480   0.522  23.221   1.891  0.2618  0.2075  0.2453
62564W        W 5481   3.752  23.316   1.245 -0.1360 -0.0782 -0.4476
62565W        W 5482   4.096  23.130   0.818 -0.0419 -0.0379 -0.0384
62566W        W 5483   0.516  22.841   2.264 -0.1518  0.0690  0.0406
62567W        W 5484   1.019  22.225   0.668  0.2831  0.2622 -0.0550
62568W        W 5485   2.843  24.298   1.909  0.0995 -0.1610  0.0292
62569W        W 5486   2.933  27.147  31.436 -0.0472  0.0731 -0.4396
62570W        W 5487   4.408  24.195   1.123 -0.1336  0.0700  0.0526
62571W        W 5488   2.024  23.295   1.868  0.0725  0.1310 -0.4904
62572W        W 5489   4.418  22.481  31.120 -0.1882 -0.1840  0.1797
62573W        W 5490   3.259  24.694   2.119  0.1652 -0.0464  0.3765
62574W        W 5491   3.306  27.157   3.649 -0.0950  0.1278 -0.0795
62575W        W 5492   3.274  25.038   1.247  0.0115 -0.1204  0.0867
62576W        W 5493   4.304  25.407   2.752 -0.2817  0.3824 -0.1380
62577W        W 5494  33.790  21.168   2.328  0.2338 -0.1707  0.1657
62578W        W 5495   0.758  25.292  31.801  0.1724 -0.0842 -0.1510
62579W        W 5496   2.636  22.591   1.048  0.0426  0.0870  0.0959
62580W        W 5497   2.410  23.475   2.217  0.0842  0.1178  0.5384
62581W        W 5498   1.252  22.728   0.945  0.0888  0.1006  0.1327
62582W        W 5499   1.542  21.714  31.902  0.1430  0.0158 -0.0002
62583W        W 5500   2.223  26.288   0.807  0.1933 -0.2359  0.1280
62584W        W 5501   3.524  23.779   1.158  0.0360 -0.1245  0.1994
62585W        W 5502   1.785  24.084   5.774  0.0342 -0.0631  0.1762
62586W        W 5503   2.325  23.060   4.358 -0.0138 -0.0629  0.4455
62587W        W 5504   3.232  24.194   1.202 -0.0851  0.0219 -0.0043
62588W        W 5505   2.653  22.510   2.960  0.2063 -0.1589  0.1595
62589W        W 5506   1.531  23.074   3.620 -0.1693  0.0998  0.1631
62590W        W 5507   3.598  25.229   2.267  0.1195  0.1537  0.3263
62591W        W 5508   0.618  21.903   5.291  0.3876  0.0771  0.1087
62592W        W 5509   3.332  25.709   5.579  0.2454 -0.1372  0.1461
62593W        W 5510   2.908  26.551   3.999  0.0262 -0.0203 -0.2767
62594W        W 5511   4.209  25.990   1.584  0.1681 -0.0176 -0.3605
62595W        W 5512   3.485  24.140   5.033 -0.3463 -0.0454 -0.1432
62596W        W 5513   0.774  26.049   5.483 -0.2232  0.2078 -0.3849
62597W        W 5514   0.598  22.985   4.298 -0.8527  0.0956  0.2174
62598W        W 5515  34.656  22.750   5.616  0.1756  0.1193  0.1145
62599W        W 5516   3.194  23.755   2.579 -0.4429 -0.0224  0.2539
62600W        W 5517   2.661  26.845   6.268  0.0163 -0.1923  0.2506
62601W        W 5518   2.212  22.754   5.449 -0.1112  0.1155 -0.1613
62602W        W 5519   2.507  25.677   5.045  0.2315 -0.3919  0.0035
62603W        W 5520   2.735  26.287   6.064  0.3659 -0.3677 -0.0233
62604W        W 5521   1.865  23.146   5.509 -0.3234 -0.3170 -0.2534
62605W        W 5522   3.181  20.734   5.493 -0.0252  0.0625  0.1672
62606W        W 5523   1.445  25.398   5.252 -0.1907 -0.0805  0.0835
62607W        W 5524   0.649  23.647   2.059  0.0830 -0.1163 -0.2333
62608W        W 5525   1.204  23.738   5.149  0.2859  0.0029 -0.0598
62609W        W 5526   0.982  25.228   6.221 -0.2678 -0.1250  0.0746
62610W        W 5527   2.239  23.018   3.560  0.0818  0.0544 -0.2654
62611W        W 5528   4.127  23.297   4.202 -0.0370 -0.1403 -0.0012
62612W        W 5529   2.119  25.744   3.947  0.3170  0.0662  0.1315
62613W        W 5530   2.405  24.185   3.911 -0.2234  0.3071 -0.1958
62614W        W 5531   4.374  22.751   5.843  0.1648  0.1696 -0.1735
62615W        W 5532   1.567  23.930   3.872  0.1502  0.1497  0.0989
62616W        W 5533  33.154  25.651   3.151  0.3748 -0.0270 -0.0400
62617W        W 5534   2.390  26.506   4.173 -0.2101 -0.0395  0.0301
62618W        W 5535   2.815  24.491   3.592  0.0375 -0.1457  0.4718
62619W        W 5536   2.743  24.947   2.803 -0.1766  0.0325 -0.1901
62620W        W 5537   0.694  25.735   5.954  0.1116  0.0558  0.2335
62621W        W 5538  34.581  25.097   3.115  0.0192  0.0650  0.1823
62622W        W 5539   2.933  25.689   5.973  0.1981  0.1291 -0.1004
62623W        W 5540   1.441  25.562   6.961 -0.4718 -0.1829  0.0244
62624W        W 5541   3.142  23.870   4.726  0.1946  0.5280  0.0423
62625W        W 5542   0.344  23.785   2.427 -0.0081  0.3006  0.1109
62626W        W 5543   2.466  24.923   4.434  0.2332 -0.3995  0.0747
62627W        W 5544   1.926  23.344   4.673 -0.0629  0.0712  0.1714
62628W        W 5545   0.734  24.775   5.997  0.0354 -0.4925 -0.0425
62629W        W 5546   3.773  21.915   6.228 -0.1864  0.1853  0.0506
62630W        W 5547   0.083  25.579   3.101  0.1154  0.1844 -0.0514
62631W        W 5548   3.813  24.060   2.774  0.1847 -0.0118  0.5338
62632W        W 5549   2.338  23.430   2.809 -0.2382 -0.3108 -0.1525
62633W        W 5550   2.552  23.069   2.578 -0.1313  0.1446 -0.0621
62634W        W 5551   1.643  22.213   5.426  0.4552 -0.2201  0.1465
62635W        W 5552   2.165  26.800   5.338  0.1855 -0.1531 -0.4257
62636W        W 5553   0.891  23.801   4.710  0.1496 -0.0020 -0.1518
62637W        W 5554   3.921  24.510   6.578  0.5156  0.0357 -0.1898
62638W        W 5555   2.895  23.561   3.680  0.0824  0.1287 -0.1098
62639W        W 5556   2.297  22.488   4.377 -0.3776 -0.3899  0.0948
62640W        W 5557   2.035  25.061   4.698 -0.0770 -0.2301 -0.0056
62641W        W 5558   0.556  24.616   3.350 -0.2464 -0.0643  0.0543
62642W        W 5559   3.203  28.411   4.020  0.2214 -0.0350  0.1459
62643W        W 5560   5.266  26.207   5.938 -0.1742 -0.0905 -0.1213
62644W        W 5561   0.061  24.859   3.488  0.1869  0.0544  0.0455
62645W        W 5562   0.795  24.071   3.136  0.2419 -0.0892  0.0982
62646W        W 5563  33.700  22.918   4.746 -0.0788 -0.0615  0.1493
62647W        W 5564   2.321  24.021   6.044  0.0289 -0.0355  0.3278
62648W        W 5565   0.820  21.517   2.105  0.1903  0.1963 -0.0107
62649W        W 5566   4.198  25.508   7.515  0.3002  0.2030 -0.0163
62650W        W 5567   0.262  25.432   6.678 -0.3263  0.3582 -0.0301
62651W        W 5568   2.985  22.319   5.042 -0.0313  0.0047  0.0439
62652W        W 5569   3.836  24.192   3.955 -0.2355 -0.2368  0.1947
62653W        W 5570   3.556  25.227   3.910  0.0560  0.1692 -0.1768
62654W        W 5571   3.673  25.733   2.346 -0.0400 -0.0380 -0.3890
62655W        W 5572   2.498  22.715   4.876 -0.0372 -0.3768  0.5146
62656W        W 5573   3.070  23.630   5.550  0.0007 -0.0859  0.0236
62657W        W 5574  33.523  20.947   5.209  0.4295 -0.0023 -0.0729
62658W        W 5575   3.933  23.934   2.007 -0.1817  0.1480  0.1498
62659W        W 5576   4.224  24.192   5.627 -0.0334  0.2701 -0.0584
62660W        W 5577   5.707  25.192   4.211 -0.0523  0.0707 -0.1184
62661W        W 5578   1.742  25.996   5.108  0.1814  0.1315 -0.1354
62662W        W 5579   3.238  22.677   6.681 -0.1748  0.0793  0.1696
62663W        W 5580   2.718  24.286   5.423  0.2227  0.5047 -0.2562
62664W        W 5581   0.467  22.523   2.997 -0.0184 -0.0891 -0.0391
62665W        W 5582  34.497  23.622   4.167  0.0613 -0.1158  0.2284
62666W        W 5583  34.641  23.845   3.197  0.0585  0.0339  0.1420
62667W        W 5584   1.921  22.758   4.170  0.0315 -0.0158  0.1990
62668W        W 5585   1.630  24.104   6.309 -0.0405 -0.2945 -0.0011
62669W        W 5586   2.039  22.012   3.366  0.5818  0.0763  0.0613
62670W        W 5587   0.073  22.537   6.578 -0.0350 -0.0799  0.0553
62671W        W 5588   5.781  21.978   5.282  0.2211  0.0106 -0.3288
62672W        W 5589   0.080  22.861   2.487 -0.0533 -0.3531  0.2770
62673W        W 5590   3.676  25.582   4.353 -0.0072 -0.2177  0.1057
62674W        W 5591   4.901  24.021   2.696  0.2279  0.1335  0.1030
62675W        W 5592   1.587  24.673   1.662  0.1717 -0.1834 -0.3594
62676W        W 5593   0.062  24.433   5.529 -0.0323 -0.0387 -0.1864
62677W        W 5594   1.103  22.884   4.351 -0.1990 -0.2831 -0.1668
62678W        W 5595   2.631  23.054   5.967 -0.1137  0.1703 -0.1885
62679W        W 5596   1.443  22.277   4.557  0.0861 -0.0579 -0.2042
62680W        W 5597   3.591  24.872   6.296  0.3424 -0.1476 -0.0665
62681W        W 5598   0.235  22.913   0.851 -0.1149  0.3503 -0.1696
62682W        W 5599   5.382  24.108   3.617  0.3356 -0.2020  0.2177
62683W        W 5600   1.364  23.336   4.674 -0.0980 -0.2999 -0.1477
62684W        W 5601  34.643  24.221   4.256 -0.1498  0.1633 -0.3057
62685W        W 5602   3.541  24.557   5.929  0.0228  0.1027 -0.0657
62686W        W 5603   1.451  24.878   3.192  0.1082  0.1259  0.3412
62687W        W 5604   4.549  26.253   6.211 -0.6200 -0.2294  0.0079
62688W        W 5605   3.028  25.141   2.324 -0.3261 -0.0899 -0.0527
62689W        W 5606   2.007  23.596   5.779 -0.0177  0.0536 -0.2132
62690W        W 5607   0.678  23.540   5.189 -0.0698  0.0416  0.0751
62691W        W 5608   1.613  25.137   4.191  0.0287 -0.0966 -0.0152
62692W        W 5609   3.788  24.992   3.280  0.4506  0.1241  0.1196
62693W        W 5610   0.778  22.105   2.130  0.2254 -0.0271 -0.0581
62694W        W 5611   3.186  24.436   3.942  0.0265 -0.4988  0.1669
62695W        W 5612   2.106  25.976   4.702  0.2071 -0.1167 -0.1704
62696W        W 5613   0.946  23.486   5.599  0.2606  0.1772 -0.0022
62697W        W 5614   5.179  23.461   6.753  0.2782  0.2099 -0.1004
62698W        W 5615   4.485  23.664   3.571  0.0764  0.2655  0.0353
62699W        W 5616   2.757  23.346   4.220 -0.0946  0.1798  0.1476
62700W        W 5617   1.395  22.426   2.788 -0.3194  0.0956  0.3494
62701W        W 5618   4.465  24.449   4.844 -0.0818  0.1970 -0.2714
62702W        W 5619   2.043  24.745   3.206  0.3109 -0.0868 -0.2562
62703W        W 5620   0.381  24.077   4.518 -0.2056  0.3473 -0.2418
62704W        W 5621   2.795  24.651   2.352  0.1970  0.2250  0.3263
62705W        W 5622   2.285  19.880   3.995 -0.2800 -0.5554 -0.2522
62706W        W 5623   0.318  25.454   5.763  0.0779 -0.1064  0.1028
62707W        W 5624   2.562  22.994   6.478  0.1493  0.0480  0.1777
62708W        W 5625   0.015  21.212   3.786  0.1110  0.0525  0.2663
62709W        W 5626   0.753  25.231   5.787  0.2387 -0.1648 -0.2176
62710W        W 5627   2.173  24.527   4.644  0.0887  0.1020  0.1044
62711W        W 5628   2.661  22.921   3.941  0.2104  0.1375 -0.1546
62712W        W 5629   2.566  25.926   5.700  0.0118 -0.0939  0.0684
62713W        W 5630   5.122  23.510   5.625  0.2135 -0.1548  0.2793
62714W        W 5631   3.599  24.232   2.297  0.1536  0.2744 -0.4201
62715W        W 5632   2.470  20.744   4.328  0.0860  0.1071  0.0093
62716W        W 5633   1.032  24.313   6.004  0.2851 -0.0747 -0.0055
62717W        W 5634   1.903  25.321   5.403  0.0322  0.1520  0.0992
62718W        W 5635   1.238  26.100   4.291 -0.0647 -0.0682  0.1904
62719W        W 5636  34.221  20.668   4.574 -0.0380 -0.0430 -0.0245
62720W        W 5637   3.535  26.369   3.185 -0.0355  0.0305 -0.1085
62721W        W 5638   1.180  23.340   3.425 -0.2799  0.1109  0.1200
62722W        W 5639   2.905  27.287   6.494 -0.2148 -0.0509 -0.0335
62723W        W 5640   2.518  24.821   3.891  0.0070  0.0742 -0.2541
62724W        W 5641   2.348  23.154   5.157 -0.0535  0.2013 -0.1242
62725W        W 5642   2.473  24.779   0.112  0.0001 -0.1198 -0.1382
62726W        W 5643   2.024  22.299   5.738 -0.1742  0.4535  0.3473
62727W        W 5644  34.451  25.791   3.451 -0.0337  0.1324 -0.2532
62728W        W 5645   6.318  23.046   6.546  0.3079 -0.1732  0.1358
62729W        W 5646   1.313  22.601   4.004  0.1337 -0.3542 -0.0888
62730W        W 5647   2.044  22.408   5.149  0.0019 -0.1749 -0.1764
62731W        W 5648   2.599  24.863   3.370 -0.2190 -0.1575 -0.2460
62732W        W 5649   4.426  21.994   2.527  0.1983 -0.1226  0.1672
62733W        W 5650   0.971  24.339   4.477 -0.1979  0.2071 -0.0386
62734W        W 5651   1.284  22.865   2.521  0.1850  0.2470 -0.5465
62735W        W 5652   3.511  22.473   7.370 -0.1570  0.1349 -0.2928
62736W        W 5653   1.877  24.550   6.602  0.1797  0.3018 -0.2812
62737W        W 5654   0.974  25.373   7.126 -0.2677 -0.1317 -0.0581
62738W        W 5655   2.452  25.971   7.960 -0.1015  0.1680 -0.0471
62739W        W 5656   3.001  25.798   4.235  0.0046  0.2865 -0.1184
62740W        W 5657   2.859  24.691   6.550  0.0421 -0.1138  0.1698
62741W        W 5658   1.816  23.404   3.420 -0.0537 -0.2049 -0.2153
62742W        W 5659   0.842  24.728   2.440 -0.0104  0.1645  0.3538
62743W        W 5660   1.113  23.226   2.945  0.1197 -0.0633 -0.1938
62744W        W 5661   2.530  22.267   5.307  0.1958 -0.1319  0.1986
62745W        W 5662   1.732  24.400   5.385  0.0548  0.0254 -0.1415
62746W        W 5663   2.116  23.815   2.615 -0.0730 -0.0504  0.0542
62747W        W 5664   2.668  25.380   4.331 -0.2800 -0.0759  0.0539
62748W        W 5665   2.185  26.241   3.235  0.2806 -0.1506 -0.0559
62749W        W 5666   3.544  23.012   5.846  0.1283 -0.2285  0.3466
62750W        W 5667   1.149  24.269   4.009 -0.3291 -0.0041  0.1496
62751W        W 5668   1.057  23.115   3.922 -0.0876  0.2992 -0.1267
62752W        W 5669  34.111  24.818   4.293 -0.1319  0.1196 -0.2373
62753W        W 5670   4.235  23.878   4.121 -0.0977  0.0668 -0.1958
62754W        W 5671   3.273  23.254   2.699 -0.0847 -0.3610  0.1113
62755W        W 5672  34.149  22.827   5.963 -0.3957 -0.2399 -0.0734
62756W        W 5673   1.013  20.755   4.683  0.1686  0.1234 -0.0314
62757W        W 5674   1.428  25.671   4.829  0.0511  0.2959  0.1728
62758W        W 5675   1.646  26.344   5.768  0.2949  0.2247  0.0042
62759W        W 5676   3.471  22.345   4.328  0.1388 -0.2144  0.1316
62760W        W 5677   3.107  25.777   5.145 -0.3744  0.0468  0.0769
62761W        W 5678   0.662  23.410   6.619  0.0301 -0.0679  0.1431
62762W        W 5679   2.075  23.796   4.828  0.1881 -0.1608 -0.1879
62763W        W 5680   4.961  24.077   4.505 -0.1184  0.1645  0.1107
62764W        W 5681   1.130  22.630   6.450 -0.1394 -0.0176 -0.2905
62765W        W 5682   1.254  25.046   5.734  0.1094  0.0210  0.0251
62766W        W 5683   2.680  25.221   4.790  0.0784  0.0034 -0.3366
62767W        W 5684   1.758  23.899   5.267  0.2751 -0.0973 -0.0144
62768W        W 5685   3.618  24.285   1.722 -0.1513  0.0900  0.1381
62769W        W 5686   4.347  23.867   6.105 -0.0737 -0.0119 -0.3151
62770W        W 5687   3.271  24.349   4.555  0.2454  0.2580 -0.2009
62771W        W 5688   1.406  22.445   5.054  0.1743  0.1971  0.2920
62772W        W 5689   0.622  22.467   4.452 -0.2181 -0.0529 -0.1807
62773W        W 5690   1.683  24.601   2.790  0.0497 -0.2927 -0.0567
62774W        W 5691   2.768  24.457   4.260 -0.1225 -0.2098 -0.1120
62775W        W 5692   1.590  24.780   4.832  0.0812 -0.0177 -0.1512
62776W        W 5693  34.635  24.897   4.846  0.4582 -0.2384 -0.1882
62777W        W 5694   2.434  21.987   4.314 -0.3525 -0.1276  0.1303
62778W        W 5695   5.535  25.957   4.419  0.5236 -0.0003  0.1837
62779W        W 5696   2.449  24.422   3.165  0.1747 -0.1014 -0.0020
62780W        W 5697  34.315  26.061   2.576  0.0883 -0.1873 -0.0498
62781W        W 5698   2.291  24.320   5.656  0.0443  0.0492 -0.3111
62782W        W 5699   1.189  23.720   3.055  0.1406 -0.1099 -0.0929
62783W        W 5700   2.333  24.787   5.524 -0.0382  0.0211  0.0546
62784W        W 5701   1.042  23.840   3.585 -0.1526 -0.2097 -0.3846
62785W        W 5702   0.227  25.366   3.513  0.0842  0.2552 -0.2234
62786W        W 5703   2.804  26.232   4.374  0.0729  0.0886 -0.2489
62787W        W 5704   3.565  22.714   3.843 -0.2564  0.1979 -0.0363
62788W        W 5705   2.311  22.013   3.795 -0.1377 -0.2581 -0.2101
62789W        W 5706   1.072  21.753   4.994  0.2566 -0.0856  0.0727
62790W        W 5707   4.743  21.955   6.082  0.1627 -0.0239 -0.1985
62791W        W 5708   4.838  24.913   1.356  0.0417 -0.1615 -0.1686
62792W        W 5709   2.353  22.602   6.777  0.0781 -0.0811 -0.1920
62793W        W 5710   3.787  23.992   5.383  0.3374 -0.0607 -0.0223
62794W        W 5711   2.852  24.440   2.841  0.0172  0.2121 -0.1492
62795W        W 5712   2.558  23.676   5.645 -0.1090 -0.1578  0.4065
62796W        W 5713   2.828  25.853   7.087  0.0558  0.2930 -0.0359
62797W        W 5714  34.000  24.503   7.119 -0.1026 -0.0323 -0.0976
62798W        W 5715   2.681  23.781   2.580  0.0325  0.5023 -0.0325
62799W        W 5716   1.650  22.414   3.279 -0.0791 -0.1665 -0.4425
62800W        W 5717   1.457  24.848   5.298  0.1614  0.0382 -0.2101
62801W        W 5718   2.854  24.004   5.818 -0.0649  0.0317  0.1363
62802W        W 5719   2.130  23.891   2.099  0.1659 -0.1065 -0.1357
62803W        W 5720   4.968  23.851   3.479 -0.1842  0.1571 -0.1521
62804W        W 5721   1.867  24.986   3.789  0.0779  0.3993 -0.2151
62805W        W 5722   4.249  21.484   3.333 -0.0381 -0.0114  0.0901
62806W        W 5723   3.527  23.819   3.232 -0.0961  0.0018  0.0234
62807W        W 5724   0.941  23.415   4.374 -0.0920  0.2211 -0.3200
62808W        W 5725   2.886  20.674   5.991  0.1414  0.1217  0.4259
62809W        W 5726   3.324  21.964   4.634  0.0234 -0.0050  0.2186
62810W        W 5727   1.179  23.468   6.301  0.0582 -0.1319  0.4569
62811W        W 5728   4.885  23.691   6.032 -0.2256 -0.1096  0.2229
62812W        W 5729   4.079  24.634   5.704  0.3884 -0.2328 -0.1017
62813W        W 5730   0.864  23.821   6.233 -0.1489  0.0308 -0.0109
62814W        W 5731   0.921  22.848   7.033  0.0531  0.0448 -0.1887
62815W        W 5732   2.155  25.807   5.425 -0.0469 -0.2039  0.0813
62816W        W 5733   3.749  24.721   2.315 -0.0643  0.1755 -0.0629
62817W        W 5734   2.862  23.383   6.413  0.1160  0.1626 -0.1555
62818W        W 5735   3.458  24.029   3.716 -0.1937 -0.0017  0.1681
62819W        W 5736   4.244  23.380   2.777  0.0949 -0.2391 -0.1848
62820W        W 5737   1.542  20.918   4.862 -0.1213  0.1254  0.0558
62821W        W 5738   2.574  24.693   5.950 -0.3078 -0.0748  0.3913
62822W        W 5739   1.510  23.104   4.179 -0.0725 -0.4007  0.0872
62823W        W 5740   1.593  23.303   6.028  0.2195  0.0700  0.1859
62824W        W 5741   1.502  25.045  31.955  0.0450  0.1590 -0.0102
62825W        W 5742   3.308  26.240   4.166 -0.0235  0.2818  0.2996
62826W        W 5743   4.182  24.504   3.048  0.1334  0.2667 -0.2742
62827W        W 5744   2.227  23.147   6.867  0.1093 -0.1097  0.2800
62828W        W 5745   0.838  25.281   8.454  0.0309 -0.2243 -0.3425
62829W        W 5746   1.636  23.798   2.814  0.1221 -0.0927  0.0537
62830W        W 5747   0.960  23.201   2.306  0.0331 -0.0954 -0.1114
62831W        W 5748   2.039  26.383   6.632  0.5134  0.1625  0.4055
62832W        W 5749   3.176  23.333   8.179 -0.2088 -0.2114  0.0314
62833W        W 5750   2.901  22.984   3.327  0.1930 -0.0619 -0.1921
62834W        W 5751   2.610  24.431   7.715 -0.1009 -0.2092 -0.0012
62835W        W 5752  33.748  23.571   2.013 -0.0425 -0.0704 -0.0180
62836W        W 5753   1.816  21.335   5.068 -0.3850 -0.1074  0.0168
62837W        W 5754   1.935  24.765   5.165 -0.1537 -0.0541 -0.3961
62838W        W 5755   1.945  25.571   4.962 -0.1287 -0.2259 -0.2245
62839W        W 5756   1.681  23.571   4.308  0.0635 -0.1932 -0.4039
62840W        W 5757   3.002  24.387   5.026  0.0659 -0.2190  0.2263
62841W        W 5758   2.619  22.650   3.465  0.0453  0.4264 -0.0375
62842W        W 5759   3.409  25.746   4.746  0.2715  0.0887  0.0839
62843W        W 5760   3.976  24.286   6.097  0.1003 -0.0496 -0.0621
62844W        W 5761   3.524  25.543   6.512 -0.0670  0.0228 -0.0181
62845W        W 5762   2.873  25.661   4.724 -0.0337  0.0129 -0.2262
62846W        W 5763   3.472  24.510   5.358  0.1680 -0.2660  0.1707
62847W        W 5764   4.240  24.954   2.798  0.1636  0.0548 -0.0721
62848W        W 5765   2.080  24.726   4.173 -0.0112 -0.4433 -0.2721
62849W        W 5766  33.482  23.315   5.691 -0.1327 -0.1586 -0.0395
62850W        W 5767   1.937  25.744   6.822  0.0677 -0.2072 -0.0062
62851W        W 5768   1.174  23.149   5.129 -0.2806 -0.1710 -0.0379
62852W        W 5769   1.657  21.395   2.255  0.0510 -0.0453  0.1641
62853W        W 5770   1.678  23.715   2.298  0.0124 -0.1106 -0.2080
62854W        W 5771   2.532  26.620   5.615  0.2404 -0.1053  0.0729
62855W        W 5772  34.149  23.950   4.300 -0.2330 -0.0008 -0.0072
62856W        W 5773   2.946  25.311   3.441 -0.2773  0.2228  0.2783
62857W        W 5774   1.978  24.363   2.281  0.0996 -0.0111  0.0710
62858W        W 5775   0.727  23.508   3.197 -0.1685 -0.2203  0.0580
62859W        W 5776   4.319  25.757   5.804  0.0644  0.2073  0.0219
62860W        W 5777   0.790  23.002   3.409  0.0788 -0.1289  0.1994
62861W        W 5778   1.319  25.346   2.994  0.2233  0.0496 -0.0100
62862W        W 5779  34.652  23.278   2.795 -0.1522  0.0603 -0.4500
62863W        W 5780   2.680  25.797   2.420 -0.0139  0.1123  0.0941
62864W        W 5781   0.976  25.542   5.040  0.0945  0.0120 -0.2956
62865W        W 5782   4.638  25.368   6.712  0.0579 -0.1706 -0.2061
62866W        W 5783   3.004  22.625   1.394 -0.0500 -0.2799 -0.1382
62867W        W 5784   4.682  23.234   5.549  0.0159  0.0435  0.0332
62868W        W 5785   3.483  23.493   3.778 -0.0112  0.2585 -0.1316
62869W        W 5786   4.001  26.013   7.310 -0.0130  0.3862  0.1885
62870W        W 5787   2.155  26.143   5.760 -0.0667  0.0931 -0.2488
62871W        W 5788   1.633  21.952   3.120  0.2662  0.1393 -0.1216
62872W        W 5789   0.177  23.331   7.211 -0.1184 -0.2801 -0.1325
62873W        W 5790   4.269  21.051   5.774 -0.4204 -0.0145  0.0130
62874W        W 5791   0.747  25.756   7.774 -0.0810  0.3775 -0.2900
62875W        W 5792   4.270  25.480   1.499 -0.0092  0.3215 -0.1124
62876W        W 5793   0.121  21.949   3.014 -0.0286  0.0869 -0.0052
62877W        W 5794   1.662  21.863   4.500 -0.1503  0.0649 -0.0310
62878W        W 5795   3.375  22.755   5.205 -0.0481  0.1857  0.0668
62879W        W 5796   2.729  24.220   1.392 -0.0061  0.0972  0.1205
62880W        W 5797   3.084  24.865   5.134 -0.1304 -0.1628  0.0655
62881W        W 5798   0.630  25.628   3.635  0.0987  0.0324 -0.1188
62882W        W 5799   2.256  25.285   4.117  0.0076 -0.0003  0.2602
62883W        W 5800   1.050  27.198   5.990 -0.2139  0.0445 -0.1302
62884W        W 5801   0.430  23.599   4.388 -0.1291  0.0883  0.0858
62885W        W 5802   4.166  23.495   6.397  0.2343 -0.2222 -0.2086
62886W        W 5803   0.960  23.481   7.693  0.0617  0.1577  0.0496
62887W        W 5804   3.067  23.630   6.815  0.4106  0.0660  0.1749
62888W        W 5805   2.000  22.917   4.900 -0.1663  0.1678 -0.0434
62889W        W 5806   4.249  23.323   3.279  0.2003 -0.0905  0.1231
62890W        W 5807   1.862  25.592   4.367  0.1865  0.0282 -0.2698
62891W        W 5808   2.026  24.576   6.079  0.1409  0.1030  0.1196
62892W        W 5809   1.407  22.875   3.150 -0.1661  0.2932 -0.0597
62893W        W 5810   4.333  23.703   6.835 -0.0233  0.2019 -0.2160
62894W        W 5811   2.910  23.406   2.326  0.0728 -0.1912 -0.1775
62895W        W 5812   4.008  23.981   6.515 -0.1703  0.1717  0.0680
62896W        W 5813   1.952  23.250   3.906  0.0271  0.3542 -0.4027
62897W        W 5814   2.691  23.056   1.975  0.0630 -0.1447  0.3427
62898W        W 5815  33.666  25.345   4.475 -0.1589 -0.0266  0.1130
62899W        W 5816   2.351  23.218   5.614  0.0569 -0.1592 -0.1337
62900W        W 5817   2.516  25.526   6.206 -0.1102  0.1102  0.3062
62901W        W 5818   1.788  22.626   3.721  0.2204  0.2372 -0.2702
62902W        W 5819   3.040  25.505   1.047  0.0146  0.3821  0.0828
62903W        W 5820   4.975  23.332   3.604 -0.2062 -0.0930 -0.2917
62904W        W 5821   2.013  25.290   2.170 -0.1563 -0.1066 -0.2002
62905W        W 5822   3.597  22.781   4.519  0.3175 -0.0076  0.4641
62906W        W 5823   4.112  24.791   6.205 -0.0374 -0.2592  0.2865
62907W        W 5824   2.234  23.646   5.304 -0.4504  0.3231  0.0136
62908W        W 5825   4.534  25.728   6.241 -0.1576  0.1563 -0.2577
62909W        W 5826   1.954  24.134   6.889  0.0462  0.3702  0.1727
62910W        W 5827   2.026  24.007   4.237  0.2554 -0.0403 -0.1592
62911W        W 5828   1.422  23.787   6.020 -0.3370 -0.1271 -0.2711
62912W        W 5829   0.084  28.477   3.595  0.1596 -0.0459 -0.0431
62913W        W 5830   1.808  22.316   4.128  0.2714  0.3979 -0.1021
62914W        W 5831   4.922  24.818   7.621 -0.2751 -0.2426  0.1748
62915W        W 5832   2.241  24.701   2.702  0.1181 -0.1007 -0.0360
62916W        W 5833   2.695  22.594   5.793  0.0713 -0.1312 -0.2071
62917W        W 5834   0.053  24.569   6.966  0.0578 -0.1564 -0.0043
62918W        W 5835   2.005  26.588   7.423  0.1782 -0.1517  0.1933
62919W        W 5836   2.044  23.781   3.727  0.1367  0.1469  0.1324
62920W        W 5837   0.486  23.902   5.925  0.2901 -0.0245  0.2630
62921W        W 5838   2.569  25.592   3.270  0.2234 -0.5790  0.4158
62922W        W 5839   2.552  24.685   5.017  0.2440  0.0267  0.0767
62923W        W 5840   2.873  24.963   4.221 -0.0351 -0.2091 -0.0183
62924W        W 5841   1.762  22.855   2.656 -0.0670  0.0781 -0.1152
62925W        W 5842   2.273  23.567   4.333 -0.3348  0.0050 -0.3824
62926W        W 5843   0.678  22.493   3.504 -0.3098 -0.3821  0.1730
62927W        W 5844   2.820  22.755   5.279  0.1492 -0.2138  0.1619
62928W        W 5845   2.067  20.397   3.719  0.1286 -0.1779  0.1191
62929W        W 5846   1.201  26.371   4.824  0.1194  0.0651 -0.0099
62930W        W 5847  34.569  23.136   3.232 -0.0341 -0.1303 -0.0124
62931W        W 5848   3.206  24.814   3.160 -0.0848 -0.1636  0.0545
62932W        W 5849   1.606  26.208   4.598 -0.0440  0.3232  0.3388
62933W        W 5850   3.075  22.320   5.933  0.1593 -0.4392 -0.0684
62934W        W 5851   0.570  22.630   5.626  0.0550  0.0745  0.1027
62935W        W 5852   1.292  23.950   4.442 -0.0570 -0.2080  0.1559
62936W        W 5853   1.013  22.261   4.239 -0.0824  0.0748 -0.2175
62937W        W 5854   2.998  24.183   2.400 -0.1678  0.0468 -0.0779
62938W        W 5855   2.836  22.617   6.281 -0.0293  0.0370  0.0724
62939W        W 5856   0.644  21.973   4.455  0.0571 -0.0377  0.1409
62940W        W 5857   2.478  23.928   2.990 -0.0244  0.0303 -0.0605
62941W        W 5858   3.722  28.481   4.034  0.0412  0.0977 -0.0184
62942W        W 5859   1.538  19.996   1.964  0.1713  0.1413 -0.0222
62943W        W 5860   6.191  27.026   7.289  0.1486  0.1909  0.2043
62944W        W 5861   0.407  22.119   1.781 -0.2593 -0.1712 -0.2657
62945W        W 5862   1.316  26.233   6.271  0.1331 -0.0133 -0.1391
62946W        W 5863   3.591  23.086   4.912  0.1533  0.0618  0.5050
62947W        W 5864  33.226  23.215   5.248 -0.1424  0.1125  0.0576
62948W        W 5865   3.094  23.122   4.987 -0.2992  0.1917  0.1796
62949W        W 5866   1.009  24.915   3.384 -0.0398 -0.0232  0.0262
62950W        W 5867   2.606  23.625   1.543 -0.0718 -0.1392  0.1251
62951W        W 5868   1.565  25.485   5.848 -0.0204 -0.0087 -0.2146
62952W        W 5869   1.761  26.554   6.198  0.2638  0.0403 -0.1668
62953W        W 5870  33.026  20.771   5.169 -0.0182  0.2856 -0.2768
62954W        W 5871   2.544  23.917   3.494  0.1365  0.2769 -0.0076
62955W        W 5872   0.935  25.274   7.600  0.2018  0.0246 -0.0343
62956W        W 5873   4.936  25.475   2.688  0.1358 -0.1509 -0.1560
62957W        W 5874   4.888  22.803   5.823  0.1019  0.1351 -0.2701
62958W        W 5875   1.150  22.645   3.558 -0.1416 -0.1552 -0.0944
62959W        W 5876   1.565  21.996   4.971 -0.1584 -0.0511 -0.1020
62960W        W 5877   1.355  26.999   6.965  0.1733  0.3523 -0.2071
62961W        W 5878   4.436  24.620   5.354 -0.0505 -0.2079  0.3855
62962W        W 5879   1.597  23.829   3.370  0.1028  0.0764  0.0270
62963W        W 5880   3.579  22.233   5.003  0.1665  0.1411 -0.1793
62964W        W 5881   2.158  22.968   2.275  0.3630 -0.1845  0.0582
62965W        W 5882   0.322  23.322   3.411 -0.0405 -0.0300 -0.0841
62966W        W 5883   3.046  23.877   3.041  0.2535  0.0538  0.1641
62967W        W 5884   0.462  24.754   5.258  0.1066 -0.0874  0.4172
62968W        W 5885   2.324  25.515   4.610  0.2565 -0.0791 -0.0017
62969W        W 5886   3.118  25.174   5.572 -0.0096  0.1116 -0.0698
62970W        W 5887   0.334  24.162   3.046 -0.1585 -0.1627  0.0483
62971W        W 5888   3.637  24.557   3.007  0.2655  0.2984  0.2631
62972W        W 5889   4.039  23.698   4.562  0.1743  0.1828  0.0490
62973W        W 5890   3.200  26.316   8.239 -0.0148 -0.3329  0.2540
62974W        W 5891   3.476  26.691   3.665 -0.0051  0.2708  0.0893
62975W        W 5892   2.661  23.867   4.360  0.2784 -0.1306 -0.2261
62976W        W 5893   1.078  23.761   6.823 -0.1832  0.0822  0.0743
62977W        W 5894   1.094  25.580   3.821 -0.3004 -0.1272 -0.1023
62978W        W 5895   1.763  24.477   3.939  0.1659  0.2700 -0.1205
62979W        W 5896   2.645  23.282   4.761 -0.0947 -0.3409  0.2127
62980W        W 5897   0.229  20.770   4.137  0.1013  0.0177 -0.0248
62981W        W 5898   2.482  23.419   3.335 -0.0624  0.2943  0.0494
62982W        W 5899   2.427  26.266   5.317  0.0693 -0.1870 -0.1318
62983W        W 5900   2.100  24.249   2.837  0.2243 -0.0738  0.2823
62984W        W 5901   0.521  24.679   8.365 -0.0293 -0.1670 -0.0431
62985W        W 5902   0.967  23.840   7.237 -0.1212 -0.0029 -0.0853
62986W        W 5903   2.931  23.795   7.307  0.1453 -0.0811 -0.1350
62987W        W 5904   3.796  23.022   7.612 -0.0441 -0.0965  0.3314
62988W        W 5905   1.994  22.336   6.515 -0.1473 -0.2825  0.2937
62989W        W 5906   3.043  25.258   8.598 -0.1510 -0.0208  0.0476
62990W        W 5907   2.864  23.677   7.797 -0.0145  0.1599 -0.2837
62991W        W 5908   2.929  24.077   9.434  0.6008 -0.0111  0.0513
62992W        W 5909   1.743  25.989   6.092  0.0273  0.0366  0.1921
62993W        W 5910   2.015  21.487   8.416  0.0892  0.0785 -0.0170
62994W        W 5911   1.533  23.148   6.478 -0.0956  0.1603  0.0267
62995W        W 5912   1.590  20.783   6.953  0.3615  0.1857  0.1292
62996W        W 5913   1.197  24.086   9.175  0.0023  0.0338 -0.0015
62997W        W 5914   0.531  23.143   7.566 -0.0203 -0.0014  0.0539
62998W        W 5915   2.021  23.542   9.170 -0.0063 -0.1673  0.1534
62999W        W 5916   0.944  21.676   5.995  0.0008 -0.4436 -0.2694
63000W        W 5917   1.992  25.130   7.689 -0.0342  0.0950  0.0097
63001W        W 5918   2.696  20.755   7.942  0.3454  0.0925  0.0807
63002W        W 5919   3.081  25.577   6.740 -0.1396  0.4916 -0.1126
63003W        W 5920   0.597  22.485   7.292  0.3358 -0.1670  0.2306
63004W        W 5921  34.002  24.636   9.626  0.1104  0.0104  0.3388
63005W        W 5922   0.986  23.951   9.672  0.0532 -0.3190 -0.3950
63006W        W 5923   3.709  24.622   9.622  0.1102  0.1005  0.2832
63007W        W 5924   4.047  23.754   8.578  0.1289  0.3606 -0.0307
63008W        W 5925   1.830  24.490   8.307  0.1656 -0.0744  0.2456
63009W        W 5926   1.606  25.361   8.921  0.2764 -0.0097  0.1508
63010W        W 5927  32.946  24.685   7.752  0.1558  0.0614  0.0695
63011W        W 5928   0.081  26.057   7.236 -0.0606 -0.0955  0.1247
63012W        W 5929   0.012  25.356   8.335 -0.0372 -0.0823  0.0363
63013W        W 5930   3.307  25.965   6.494  0.1291  0.1952 -0.2138
63014W        W 5931   2.009  23.231   6.331  0.0685 -0.0491 -0.1399
63015W        W 5932   3.417  24.105   8.261  0.0351  0.0330  0.0689
63016W        W 5933   1.592  23.761   7.026 -0.0020  0.2358  0.1372
63017W        W 5934   1.170  25.653   6.107 -0.1488  0.3415  0.0340
63018W        W 5935   1.625  24.070   7.980 -0.1049  0.0342  0.0580
63019W        W 5936  34.651  25.364   7.823 -0.0697  0.0335  0.2252
63020W        W 5937   2.871  26.275   5.528  0.1039  0.0590  0.0022
63021W        W 5938   2.582  23.780   4.963  0.1322  0.0959 -0.2801
63022W        W 5939   3.576  23.578   5.593  0.0600 -0.0318 -0.4302
63023W        W 5940   3.863  23.815   5.987 -0.0151 -0.2017  0.2923
63024W        W 5941   1.113  20.927   7.180 -0.1126  0.0939 -0.0265
63025W        W 5942   1.344  24.692   7.434  0.2145 -0.1605  0.1170
63026W        W 5943   2.547  22.169   7.602 -0.1596 -0.1201 -0.0457
63027W        W 5944   1.158  22.459   5.962  0.0940  0.1522 -0.0058
63028W        W 5945   4.182  21.594   8.864 -0.1524  0.2547 -0.0407
63029W        W 5946  34.050  25.866   8.324 -0.1815 -0.3028 -0.1501
63030W        W 5947  34.474  23.966   9.472 -0.0314 -0.4916  0.1565
63031W        W 5948   4.006  24.828   7.688 -0.0681  0.2959 -0.0272
63032W        W 5949   4.219  22.999   8.781  0.0198 -0.2505 -0.0974
63033W        W 5950   2.763  25.597   7.580 -0.0474  0.3413  0.1400
63034W        W 5951   1.183  22.869   8.193 -0.0579 -0.4550  0.0612
63035W        W 5952   1.065  22.577   5.516 -0.0130 -0.2679  0.1342
63036W        W 5953   4.522  22.301   7.265 -0.2344 -0.2074 -0.0304
63037W        W 5954   1.488  25.816   8.353  0.2231  0.0350  0.1927
63038W        W 5955   0.539  24.213   7.338  0.2458 -0.0948  0.3678
63039W        W 5956   3.304  27.055   6.155  0.2367  0.0359 -0.2389
63040W        W 5957   2.493  23.305   8.796 -0.2022  0.0437 -0.2070
63041W        W 5958  33.172  25.141   9.130  0.2491 -0.1643  0.2122
63042W        W 5959   1.519  23.550   5.561  0.5041 -0.0857 -0.0699
63043W        W 5960   0.960  24.217   6.572  0.1932  0.0036  0.1427
63044W        W 5961   3.557  23.629   8.499  0.0676  0.1216  0.3272
63045W        W 5962   2.674  24.896   7.362  0.2133 -0.2214 -0.0342
63046W        W 5963  34.423  24.920   9.148  0.0209 -0.0329 -0.3785
63047W        W 5964   1.151  25.825   6.606  0.2456  0.1486 -0.1131
63048W        W 5965   0.316  23.882   7.818  0.0126 -0.1510  0.0300
63049W        W 5966   1.041  24.359   7.092  0.2457  0.2278 -0.0203
63050W        W 5967   2.623  23.803   9.070 -0.2112  0.0360  0.0462
63051W        W 5968   2.117  24.341   7.918  0.0439  0.0075  0.3285
63052W        W 5969   4.394  21.385   6.781 -0.1476  0.2182  0.3882
63053W        W 5970   4.726  20.952   9.769 -0.2319  0.0529 -0.0216
63054W        W 5971  34.284  23.762   8.167 -0.2158  0.0448  0.2939
63055W        W 5972   4.986  26.379   6.427 -0.3058 -0.1351 -0.2166
63056W        W 5973   4.343  24.743   7.314 -0.0372 -0.2561 -0.0317
63057W        W 5974   2.995  25.290   7.202  0.2949 -0.0069 -0.5833
63058W        W 5975   1.985  23.841   7.730 -0.0189 -0.1403 -0.0553
63059W        W 5976   0.298  21.904   8.176  0.0708 -0.0203 -0.1053
63060W        W 5977   1.111  23.323   8.166  0.0433 -0.0440  0.0383
63061W        W 5978  34.437  23.231   6.846 -0.0336  0.0125  0.1489
63062W        W 5979   3.684  22.892   9.373  0.3184 -0.1637 -0.1694
63063W        W 5980   0.282  23.161   8.057 -0.1308  0.1433  0.2199
63064W        W 5981   1.762  24.848   5.777 -0.0117 -0.1678 -0.2564
63065W        W 5982   1.652  25.872   5.569  0.0632 -0.0279  0.2406
63066W        W 5983   7.273  26.192  10.259  0.2842 -0.0113 -0.1344
63067W        W 5984   2.734  25.522   8.151  0.0762  0.0751  0.3314
63068W        W 5985   3.095  22.883   8.167  0.0963 -0.2149  0.1307
63069W        W 5986  34.299  22.352   5.125  0.1488  0.1398  0.0431
63070W        W 5987   0.071  26.575   9.071 -0.0257  0.1253 -0.2616
63071W        W 5988   1.082  23.141   9.505 -0.1306  0.1206 -0.0848
63072W        W 5989   2.426  23.860   6.455  0.1471 -0.0168 -0.2329
63073W        W 5990   3.026  23.806   8.300  0.2038  0.1677  0.0406
63074W        W 5991   2.761  25.144   6.410  0.0607  0.1535  0.3286
63075W        W 5992   3.757  24.969   9.156 -0.0690 -0.2139 -0.0499
63076W        W 5993   1.704  24.168   7.472 -0.1956 -0.5781 -0.0967
63077W        W 5994  34.635  22.986   6.443 -0.1348 -0.1150 -0.2074
63078W        W 5995   4.562  25.017   8.251  0.2789 -0.0273  0.2041
63079W        W 5996   1.241  24.053   5.589  0.1216 -0.0856 -0.2764
63080W        W 5997   0.440  22.980   6.857 -0.0323 -0.0238  0.1858
63081W        W 5998   1.731  25.039   8.100  0.1535  0.1712 -0.3051
63082W        W 5999   2.251  22.551   7.877  0.0883 -0.1074  0.0462
63083W        W 6000  34.379  23.419   6.336 -0.1092  0.3001 -0.0470
63084W        W 6001   4.181  23.288   7.321 -0.1870  0.3209  0.1743
63085W        W 6002   4.408  22.878   8.310 -0.0677  0.1704  0.0700
63086W        W 6003   2.914  24.297   6.224 -0.0328  0.1569 -0.0043
63087W        W 6004   3.456  23.449   6.245 -0.0383  0.1998  0.2601
63088W        W 6005   2.282  22.598   7.314 -0.3498  0.1215  0.0110
63089W        W 6006   2.080  24.872   8.592  0.2874  0.1371 -0.1342
63090W        W 6007   2.370  24.398   6.424  0.0693  0.0665 -0.1598
63091W        W 6008   2.342  22.514   6.177  0.0096 -0.1228 -0.0840
63092W        W 6009   5.629  26.482   6.839  0.0731  0.4497 -0.0400
63093W        W 6010  33.807  25.180   7.799 -0.0570  0.2101  0.3938
63094W        W 6011   2.696  26.813   6.847  0.0554  0.0744  0.0895
63095W        W 6012   4.359  24.072   9.381 -0.0759 -0.1194  0.1602
63096W        W 6013   2.841  25.557   5.477  0.1863 -0.1005 -0.2917
63097W        W 6014   1.716  23.232   6.987  0.0862  0.0316  0.0352
63098W        W 6015   0.473  25.234   7.101 -0.2139  0.0269  0.1646
63099W        W 6016   3.292  22.466   8.984 -0.0349 -0.0879 -0.0994
63100W        W 6017   4.771  21.912   7.553  0.2206 -0.1855  0.1252
63101W        W 6018   2.120  23.755   7.239  0.1668 -0.2071 -0.0501
63102W        W 6019   4.689  21.781   8.975  0.3500 -0.3140  0.0804
63103W        W 6020   1.671  22.370   6.083 -0.2333 -0.0142  0.0792
63104W        W 6021   3.878  24.824   8.251  0.4004 -0.1950  0.1322
63105W        W 6022  34.438  25.016   8.654 -0.0681 -0.1252  0.0494
63106W        W 6023   2.308  24.841   6.538  0.2230  0.1397 -0.0978
63107W        W 6024   3.686  23.003   6.416  0.0393  0.0709  0.0607
63108W        W 6025   2.027  27.471   6.024  0.0582  0.2305  0.3270
63109W        W 6026   0.156  24.881   7.551  0.0055  0.3196 -0.2416
63110W        W 6027   3.351  24.984   8.098 -0.0905 -0.0190 -0.1656
63111W        W 6028  34.426  24.489   9.465  0.0260 -0.1166  0.2823
63112W        W 6029   1.892  22.361   4.633  0.2308  0.2317 -0.1578
63113W        W 6030   2.867  26.759   9.347 -0.0102 -0.0483  0.0087
63114W        W 6031   1.218  24.197   7.638  0.1070 -0.2402  0.4618
63115W        W 6032   3.936  23.799   9.197 -0.3661 -0.1535 -0.0208
63116W        W 6033  32.911  22.935   7.538 -0.0620  0.1056 -0.1160
63117W        W 6034   0.484  22.511   7.987 -0.3203 -0.0740 -0.2372
63118W        W 6035  34.250  25.164   7.540 -0.0432 -0.1872 -0.3219
63119W        W 6036   3.948  22.020   6.669  0.0386 -0.2916 -0.0586
63120W        W 6037   4.133  23.358   7.837 -0.2875  0.2475 -0.0277
63121W        W 6038   0.612  23.561   8.050  0.0771  0.0272 -0.1912
63122W        W 6039   1.187  23.352   7.297 -0.1425 -0.0496  0.1287
63123W        W 6040  34.093  25.354   8.782  0.0399  0.0544  0.0354
63124W        W 6041   1.983  21.532   7.295 -0.0851 -0.2940  0.1747
63125W        W 6042  34.160  22.208   6.838  0.0686  0.2524  0.0202
63126W        W 6043   3.702  23.237  13.221  0.2174 -0.1667 -0.1360
63127W        W 6044   1.803  22.906   7.853  0.0595 -0.0162  0.1683
63128W        W 6045  34.461  27.498   7.604  0.0060 -0.2998 -0.0139
63129W        W 6046   1.941  25.353   8.528 -0.1769 -0.2542 -0.0007
63130W        W 6047   1.427  24.557   7.936  0.1139 -0.0618 -0.2188
63131W        W 6048   0.420  24.482   7.785 -0.3393 -0.3389 -0.1734
63132W        W 6049   4.168  22.742   7.416 -0.0048 -0.0988  0.1152
63133W        W 6050   0.978  23.445   9.083  0.0019 -0.1905 -0.3395
63134W        W 6051   1.444  23.260   7.803  0.0898  0.1512  0.0095
63135W        W 6052   3.709  24.094   8.818  0.1479 -0.1623  0.0273
63136W        W 6053   2.206  24.777   8.093  0.2568  0.0816 -0.1871
63137W        W 6054   4.654  22.288   8.948  0.0091  0.2985 -0.2428
63138W        W 6055   2.751  21.983   8.298  0.1141  0.1994 -0.4137
63139W        W 6056   5.445  26.332   8.609 -0.1899  0.0847  0.1486
63140W        W 6057   0.506  24.758   7.231 -0.1657 -0.1085 -0.0033
63141W        W 6058  33.109  24.865  10.140 -0.1435 -0.2186 -0.1478
63142W        W 6059   1.264  24.798   6.156  0.0036  0.0367  0.0536
63143W        W 6060   3.202  22.140   8.521 -0.1311  0.1314 -0.2645
63144W        W 6061   0.161  24.668   9.122  0.0919 -0.0877  0.2473
63145W        W 6062  34.440  23.618   8.676 -0.0284 -0.0336 -0.0444
63146W        W 6063   2.630  27.084   9.084 -0.1086 -0.1887 -0.2243
63147W        W 6064   3.349  21.677   7.314  0.0123 -0.2052  0.1963
63148W        W 6065   0.429  25.270   6.207 -0.3367  0.1003  0.1707
63149W        W 6066   2.481  21.851   5.086  0.0159 -0.1007  0.1355
63150W        W 6067   4.057  25.068   5.277  0.0654  0.0522 -0.2424
63151W        W 6068   0.519  24.071   8.222 -0.0195  0.0726  0.0713
63152W        W 6069   4.305  26.383   9.304  0.0429  0.0641  0.3643
63153W        W 6070   0.869  24.763   6.467 -0.0061 -0.2187 -0.0543
63154W        W 6071   1.764  20.068   9.004  0.0101  0.0285 -0.1076
63155W        W 6072   1.805  23.974   8.485 -0.1073 -0.0033 -0.1094
63156W        W 6073   2.477  24.072   6.934 -0.1026  0.1368  0.0848
63157W        W 6074   2.086  22.909   5.895 -0.0159  0.0766 -0.1657
63158W        W 6075   2.762  22.473   7.969  0.0987  0.0483  0.0441
63159W        W 6076   0.910  24.407   8.058 -0.3762 -0.0761 -0.1839
63160W        W 6077   2.045  24.490   9.282 -0.1753  0.1961  0.3603
63161W        W 6078   0.511  23.835   7.004 -0.0785  0.1626  0.4761
63162W        W 6079   0.076  23.211   8.508  0.1110 -0.0154 -0.1213
63163W        W 6080   2.070  25.487   6.388  0.0263 -0.1475  0.4142
63164W        W 6081   2.450  22.272   8.820  0.3747  0.0030  0.1968
63165W        W 6082   0.408  23.538   8.658  0.1869 -0.1097 -0.2162
63166W        W 6083   6.317  23.593   4.696 -0.1483 -0.2883 -0.0316
63167W        W 6084   4.624  21.627   7.926 -0.1094 -0.0722  0.1577
63168W        W 6085   4.415  23.913   7.355 -0.1660  0.1791  0.2005
63169W        W 6086   0.740  23.185   8.522 -0.0104 -0.3263  0.0474
63170W        W 6087   1.433  22.834   6.121  0.2512 -0.2014  0.3692
63171W        W 6088   1.422  24.475   5.797  0.0297 -0.2870 -0.1152
63172W        W 6089   0.698  25.426   9.557  0.0142  0.0076  0.0751
63173W        W 6090   3.402  21.316   6.919  0.0554  0.1246  0.2593
63174W        W 6091  33.159  23.318   7.271  0.0012 -0.0687 -0.2193
63175W        W 6092   0.368  22.844   4.770  0.4755 -0.1259 -0.1581
63176W        W 6093   2.159  24.870   7.230 -0.1601 -0.0715  0.0423
63177W        W 6094   1.834  24.668   7.540 -0.1704 -0.2588 -0.3897
63178W        W 6095   1.808  20.030   6.267 -0.2918  0.0421 -0.0233
63179W        W 6096   3.138  24.760   6.188 -0.2392  0.0837  0.1625
63180W        W 6097   1.882  25.323   7.073  0.0046  0.0471  0.0021
63181W        W 6098   0.144  25.278   9.443  0.0332  0.0585  0.1337
63182W        W 6099   1.004  26.003   7.008  0.1740  0.1455 -0.0874
63183W        W 6100   3.789  23.322   9.534 -0.0629 -0.5085  0.3778
63184W        W 6101   1.693  23.965   9.039  0.3242  0.1141 -0.2671
63185W        W 6102  34.673  24.196   8.153 -0.2547  0.1095 -0.0327
63186W        W 6103   3.300  20.693   8.565 -0.2733  0.0499 -0.1999
63187W        W 6104   4.517  26.436   8.249 -0.0460 -0.3121  0.3635
63188W        W 6105   0.505  26.692   8.849  0.0978 -0.2176 -0.0821
63189W        W 6106   1.501  23.602   8.253  0.1704 -0.2149 -0.1464
63190W        W 6107   1.458  22.645   8.686 -0.2059  0.0927  0.1631
63191W        W 6108   2.516  25.534   6.720 -0.2316  0.1070 -0.0374
63192W        W 6109  33.005  24.437   8.583  0.1690  0.0711  0.2502
63193W        W 6110   0.852  22.993   5.811  0.1344 -0.0994  0.3137
63194W        W 6111   1.560  25.650   6.435 -0.0482  0.0028  0.0558
63195W        W 6112   3.025  24.240   6.731 -0.2260 -0.2095  0.3435
63196W        W 6113   3.257  25.471   7.954 -0.0391 -0.1733 -0.0186
63197W        W 6114   1.106  22.133   5.361 -0.2498 -0.0738  0.1099
63198W        W 6115  34.538  24.275   8.987 -0.0136 -0.1001 -0.4111
63199W        W 6116   0.364  24.277   5.179  0.3233  0.3781 -0.4242
63200W        W 6117   1.353  24.640   6.700 -0.2230  0.3516  0.0442
63201W        W 6118   1.133  23.227   6.725 -0.0438 -0.1802  0.4029
63202W        W 6119   4.187  23.063   9.264  0.1083  0.1057  0.0637
63203W        W 6120   1.969  23.764   6.244  0.1118 -0.0796 -0.1828
63204W        W 6121   2.955  24.670   7.029  0.0657 -0.0114 -0.2150
63205W        W 6122   0.393  24.898   6.693  0.1111 -0.0738  0.0557
63206W        W 6123   0.792  21.966   6.780 -0.2696 -0.2219 -0.1591
63207W        W 6124   4.747  25.383   7.256  0.0982 -0.2267 -0.3154
63208W        W 6125  34.392  21.330   6.350 -0.0995 -0.0869  0.1292
63209W        W 6126   1.662  24.472   7.080  0.1318 -0.1989 -0.0489
63210W        W 6127   2.634  22.745   7.620 -0.3191  0.2505  0.1544
63211W        W 6128   0.031  23.690   6.764 -0.2496 -0.2254  0.2295
63212W        W 6129   2.147  23.316   8.367 -0.0018  0.2926 -0.4351
63213W        W 6130   1.173  27.035   7.602 -0.1573  0.3121  0.0034
63214W        W 6131   0.720  24.915   8.806  0.0386 -0.3785  0.0130
63215W        W 6132   2.365  25.318   7.315 -0.0241  0.2154 -0.1589
63216W        W 6133   0.333  22.184   6.904 -0.0647  0.2158  0.1386
63217W        W 6134   3.300  23.826   5.976 -0.1013 -0.1853  0.0565
63218W        W 6135   3.742  22.841   8.212 -0.0083 -0.2866 -0.0145
63219W        W 6136   2.637  23.965   8.571 -0.2142 -0.1740 -0.0383
63220W        W 6137   4.350  21.476   8.384 -0.0607 -0.3290 -0.2799
63221W        W 6138   0.455  25.102   9.920 -0.0733  0.1158 -0.1018
63222W        W 6139   1.234  24.525   8.879  0.1160  0.1516  0.2046
63223W        W 6140   2.075  25.619   5.852 -0.2560  0.3564 -0.2895
63224W        W 6141   3.091  23.319   5.947  0.2301 -0.2023  0.1140
63225W        W 6142   0.027  22.733   8.120  0.0715  0.0109  0.0328
63226W        W 6143   2.955  23.319   7.327  0.3647  0.0738 -0.2972
63227W        W 6144   2.480  22.093   9.339  0.0738 -0.0356 -0.1388
63228W        W 6145   1.130  21.374   9.391 -0.1957  0.5090  0.2437
63229W        W 6146   0.187  22.377   8.398  0.0571  0.2640 -0.0982
63230W        W 6147   5.099  25.509   9.508  0.0103 -0.1708  0.1500
63231W        W 6148   1.477  22.896   7.321  0.0792 -0.2781  0.0853
63232W        W 6149   2.389  24.560   6.896  0.0072 -0.2194  0.1065
63233W        W 6150   3.353  24.497   7.955  0.1607  0.2461  0.0936
63234W        W 6151   4.821  24.145   9.562 -0.4780 -0.1943  0.0139
63235W        W 6152  32.686  24.709   9.858 -0.1245  0.1728  0.3549
63236W        W 6153   3.261  25.146   9.129  0.0511 -0.0020  0.0734
63237W        W 6154   4.607  25.909   8.767 -0.1085 -0.2721  0.0195
63238W        W 6155   1.418  22.812   6.853  0.1359 -0.0298  0.3855
63239W        W 6156   4.225  24.750   9.526  0.2123  0.2180 -0.0599
63240W        W 6157   1.265  26.805   6.296 -0.1883 -0.1630  0.0106
63241W        W 6158   2.529  23.025   7.241 -0.1684 -0.1248  0.0669
63242W        W 6159   3.018  26.128   4.797 -0.2304  0.3960 -0.1718
63243W        W 6160   2.893  24.738   8.721  0.0987 -0.0600  0.1082
63244W        W 6161   0.866  24.569   7.536 -0.0421  0.0540 -0.0229
63245W        W 6162   0.375  25.605   9.086 -0.3358 -0.4020 -0.1276
63246W        W 6163   1.402  24.155   6.797 -0.2478  0.4284 -0.1106
63247W        W 6164   4.889  26.183   8.493  0.3135 -0.3240 -0.4271
63248W        W 6165   1.908  22.794   7.042 -0.0181 -0.0332 -0.0049
63249W        W 6166   4.174  25.647  10.012  0.3906  0.0161 -0.0087
63250W        W 6167   2.971  21.941   7.860  0.1713 -0.0173 -0.2077
63251W        W 6168   4.163  22.439   6.948  0.1824 -0.1262 -0.3031
63252W        W 6169   3.425  22.065   7.685  0.1288 -0.0437 -0.0344
63253W        W 6170   1.775  25.495   8.058  0.0080  0.1611 -0.1801
63254W        W 6171  33.691  23.522   7.051 -0.1691 -0.1181  0.0709
63255W        W 6172  34.544  24.128   6.991 -0.2764 -0.1773  0.2401
63256W        W 6173  34.563  25.394   9.017  0.0602  0.1591  0.1431
63257W        W 6174   0.825  22.722   9.189 -0.1059  0.1470  0.0721
63258W        W 6175   1.354  22.684   7.787 -0.0094 -0.0695  0.3597
63259W        W 6176   2.254  24.290   7.400 -0.0881 -0.2676  0.1698
63260W        W 6177   0.976  22.739   8.649  0.0569 -0.1409  0.2450
63261W        W 6178   3.806  21.045   7.816 -0.2099  0.1335  0.1409
63262W        W 6179   2.529  23.540   6.928 -0.0801  0.1237 -0.2505
63263W        W 6180   4.341  26.001   7.692  0.4459 -0.2741  0.1725
63264W        W 6181   0.592  22.069   7.728  0.0283 -0.1058  0.0711
63265W        W 6182   1.404  26.792   5.782  0.0960  0.1828  0.3566
63266W        W 6183  34.479  21.969   5.504  0.3288  0.1536  0.2919
63267W        W 6184   2.872  22.954   8.688  0.1527 -0.0713 -0.0039
63268W        W 6185   1.421  25.203   7.590 -0.1538 -0.0750 -0.1106
63269W        W 6186   3.447  25.765   6.043  0.0540 -0.0093 -0.0936
63270W        W 6187   2.071  21.433   8.974  0.1032  0.1624 -0.5467
63271W        W 6188   2.797  23.280   5.337 -0.0163  0.1462 -0.0161
63272W        W 6189   5.408  24.961   7.728  0.3496 -0.1394 -0.0751
63273W        W 6190   3.265  22.322   8.016  0.0869  0.3115  0.2875
63274W        W 6191   3.415  23.186   6.800 -0.2788 -0.0953  0.1601
63275W        W 6192   4.604  26.491   8.820 -0.0613  0.0171  0.3046
63276W        W 6193   0.544  23.624   7.463 -0.1781 -0.4182  0.1815
63277W        W 6194   2.053  22.859   8.321 -0.1644 -0.3031  0.1711
63278W        W 6195   3.950  24.269   8.374  0.0425 -0.2633  0.1670
63279W        W 6196   2.220  23.719   8.687  0.3803 -0.0230  0.0172
63280W        W 6197   2.189  25.101   5.950 -0.0922  0.1400 -0.1864
63281W        W 6198   2.636  26.241   9.187  0.1565  0.0494 -0.0943
63282W        W 6199   2.471  22.155   6.587 -0.0707 -0.2147  0.0954
63283W        W 6200   4.954  22.975   8.225  0.1678 -0.3471  0.0174
63284W        W 6201   2.951  24.386   8.299  0.3439  0.2582 -0.4412
63285W        W 6202   3.471  24.227   9.253  0.1734  0.3015  0.0380
63286W        W 6203   0.608  23.917   8.959  0.0044  0.0747  0.0268
63287W        W 6204   1.415  23.731   9.768 -0.2282  0.2374 -0.0644
63288W        W 6205   3.100  22.837   5.844  0.1205  0.2179  0.0013
63289W        W 6206   2.440  24.427   8.506 -0.0566  0.2262  0.1581
63290W        W 6207   5.362  21.266   8.536  0.2344  0.2042 -0.0795
63291W        W 6208   0.135  23.698   8.298 -0.2108 -0.0693  0.1510
63292W        W 6209   3.222  22.926   6.282 -0.1300 -0.0824  0.0513
63293W        W 6210  32.110  24.612   9.218 -0.1644 -0.3482  0.3736
63294W        W 6211   1.543  27.615   8.344 -0.1194  0.0659 -0.3556
63295W        W 6212   0.912  26.792   2.244 -0.0082 -0.1157  0.0314
63296W        W 6213   2.989  27.073   0.081  0.0395  0.0762  0.0253
63297W        W 6214   3.346  27.984   0.500  0.1401  0.1955 -0.0636
63298W        W 6215   6.447  26.856   0.186  0.1500  0.3290  0.4676
63299W        W 6216  34.642  27.183   0.175  0.1566 -0.1344  0.0499
63300W        W 6217   2.614  28.311   1.906  0.3234  0.1045 -0.3468
63301W        W 6218   1.293  25.794   3.406 -0.0595 -0.1690  0.1042
63302W        W 6219   3.934  28.129   1.292 -0.3072 -0.1252 -0.1002
63303W        W 6220   4.446  28.256   1.355 -0.3629  0.0103  0.1226
63304W        W 6221   4.253  25.998   0.685 -0.0295  0.3392 -0.0848
63305W        W 6222   1.773  26.035   2.272 -0.0860 -0.4451  0.1965
63306W        W 6223   2.533  29.583   3.854 -0.2994  0.2937 -0.2702
63307W        W 6224  34.641  25.226   0.393 -0.0909  0.0495  0.0475
63308W        W 6225  34.276  27.140   1.513  0.0216 -0.1610  0.1879
63309W        W 6226   4.454  26.671   2.113 -0.4092 -0.3394  0.0138
63310W        W 6227  33.126  27.189   1.430 -0.3658  0.3019  0.1333
63311W        W 6228   1.235  26.551   1.826 -0.1460  0.1311 -0.4016
63312W        W 6229   1.506  24.832  31.501  0.0402 -0.1738 -0.0941
63313W        W 6230   1.611  28.587   0.056  0.1715 -0.0927  0.0272
63314W        W 6231   0.833  26.761   2.758  0.0137  0.1648 -0.1316
63315W        W 6232   1.751  25.198   2.825  0.1417 -0.1533 -0.0725
63316W        W 6233   3.429  28.857   0.002 -0.1408  0.0194  0.1109
63317W        W 6234   0.173  28.012  31.808  0.0795 -0.1037  0.2259
63318W        W 6235   0.855  26.859   1.748 -0.0295 -0.0902  0.1044
63319W        W 6236   1.101  28.380   3.482 -0.2791 -0.1723 -0.1965
63320W        W 6237   3.465  26.660  31.957  0.0796 -0.2282  0.0580
63321W        W 6238   5.841  28.374   1.294 -0.2455 -0.0819 -0.3173
63322W        W 6239   1.622  29.683   1.836  0.0173 -0.1434  0.0797
63323W        W 6240   2.929  28.797   0.723  0.2534 -0.1683  0.1120
63324W        W 6241   4.387  26.855   1.205 -0.0181 -0.1623  0.2692
63325W        W 6242  34.619  27.752   0.226  0.0083 -0.3169  0.0968
63326W        W 6243   0.786  29.413   0.677 -0.3261 -0.1778 -0.1973
63327W        W 6244   1.145  27.665   0.573  0.0106  0.1631  0.0711
63328W        W 6245   4.597  27.423   0.836  0.1764  0.0657  0.1803
63329W        W 6246   2.861  29.300   2.470  0.1045 -0.0479  0.0404
63330W        W 6247   1.008  30.173   3.398  0.0540 -0.0313 -0.1123
63331W        W 6248   2.373  28.499   0.516  0.2228  0.2146  0.1205
63332W        W 6249   3.149  29.510   3.573 -0.1898 -0.0750 -0.2273
63333W        W 6250   1.598  28.192   3.626 -0.3132 -0.1238  0.2871
63334W        W 6251   2.185  27.335   1.584 -0.1308  0.0679  0.0536
63335W        W 6252   1.820  25.997   1.713 -0.2074  0.2274  0.2510
63336W        W 6253   1.809  28.127  31.313 -0.0416  0.3133 -0.0125
63337W        W 6254   1.449  28.142  31.693  0.0645 -0.3952  0.0304
63338W        W 6255   0.147  26.919   2.791  0.0526  0.1225  0.0301
63339W        W 6256   0.668  28.851   0.860  0.4390  0.2175 -0.0708
63340W        W 6257   4.531  25.869   2.721  0.1259 -0.0187  0.0346
63341W        W 6258  34.291  28.779   1.149  0.1083 -0.2726  0.1341
63342W        W 6259   3.025  26.750  31.135  0.0127  0.0953 -0.0621
63343W        W 6260   2.829  27.554  29.675  0.6078  0.1020 -0.2076
63344W        W 6261   2.981  27.488  28.697  0.2363 -0.2150 -0.1035
63345W        W 6262  34.505  27.276   2.337 -0.0063  0.0948 -0.0504
63346W        W 6263   0.232  27.517   2.579  0.1665 -0.1609  0.0898
63347W        W 6264   2.787  26.920   2.865 -0.4025  0.4282 -0.1731
63348W        W 6265   1.581  28.180   0.273 -0.0666  0.2903 -0.1748
63349W        W 6266   1.715  25.799   0.464 -0.0430  0.2373 -0.0390
63350W        W 6267   5.974  25.717   1.249 -0.1072 -0.0407  0.2651
63351W        W 6268   0.988  28.440   1.796 -0.2412 -0.1339 -0.1577
63352W        W 6269   1.780  27.771   0.352 -0.1115 -0.0898  0.1146
63353W        W 6270   5.427  30.778  31.876  0.0012  0.0320 -0.3726
63354W        W 6271   4.043  28.488   0.956 -0.0067  0.0013 -0.1206
63355W        W 6272   4.733  27.332   1.353  0.0081 -0.0681  0.0334
63356W        W 6273   0.943  28.006   0.980 -0.0735  0.0549 -0.1625
63357W        W 6274   1.374  27.131   3.674 -0.0661 -0.2130 -0.0616
63358W        W 6275   0.137  24.621   1.187  0.0755  0.1842 -0.4013
63359W        W 6276   1.704  26.639   1.087 -0.0019  0.0870  0.1002
63360W        W 6277   4.670  27.859   2.272  0.1391 -0.2612 -0.1718
63361W        W 6278   1.355  28.725   2.148 -0.0842  0.2639 -0.1728
63362W        W 6279   3.228  26.162   1.738 -0.1160 -0.1518  0.1694
63363W        W 6280   1.626  25.640   1.992  0.0947 -0.2006  0.1146
63364W        W 6281   6.286  29.024   3.277  0.1103 -0.2415 -0.1748
63365W        W 6282   3.544  26.398  30.310 -0.3070 -0.0622 -0.1103
63366W        W 6283   5.038  25.243   2.167  0.0744  0.0527 -0.1842
63367W        W 6284   4.562  25.520   2.273  0.4201 -0.0747 -0.2437
63368W        W 6285   1.806  26.327   0.540  0.4208  0.3507  0.1342
63369W        W 6286   2.926  26.440   0.839 -0.0096 -0.2209  0.1026
63370W        W 6287   5.338  28.560   1.230 -0.1079  0.0058 -0.1780
63371W        W 6288   5.199  27.021   0.496 -0.0607  0.0634 -0.0063
63372W        W 6289  33.429  27.300   1.936  0.0149  0.0544  0.1851
63373W        W 6290   3.711  26.078   4.466 -0.0251  0.1245 -0.1910
63374W        W 6291   2.933  28.865   2.873  0.0384 -0.0368 -0.0471
63375W        W 6292   1.108  28.609   0.918 -0.1315  0.0021 -0.1122
63376W        W 6293   0.344  27.308   1.015  0.2807 -0.0699 -0.0976
63377W        W 6294   0.742  28.131  30.977 -0.3120 -0.2297 -0.0892
63378W        W 6295  34.030  27.074  31.439  0.0474 -0.0231  0.2127
63379W        W 6296   3.212  26.611   1.929 -0.0758 -0.0453 -0.4992
63380W        W 6297   5.387  26.212   0.077 -0.0123 -0.1491 -0.1071
63381W        W 6298   2.555  25.864   2.861  0.1715  0.1811 -0.0437
63382W        W 6299   2.794  26.315  31.474 -0.3168 -0.0186 -0.1162
63383W        W 6300   0.358  27.178   1.493 -0.1222 -0.1783  0.0903
63384W        W 6301   3.563  30.292  31.379 -0.2310 -0.0585 -0.1072
63385W        W 6302   3.949  26.330   0.388  0.1990 -0.1464  0.0701
63386W        W 6303   4.552  28.319   0.845 -0.0460  0.0118  0.0605
63387W        W 6304   0.534  26.566   2.445 -0.1270  0.2305 -0.1682
63388W        W 6305   1.355  27.251  30.965 -0.0657  0.0906  0.0329
63389W        W 6306  33.858  26.007   2.062 -0.0337  0.0686  0.4706
63390W        W 6307  34.612  27.438   1.299 -0.0253  0.1487 -0.0361
63391W        W 6308   4.095  26.591   2.458 -0.0982  0.0665  0.2108
63392W        W 6309   1.531  26.231  31.589  0.1860  0.2324 -0.7133
63393W        W 6310   2.801  27.868  31.448 -0.0695  0.2218  0.3255
63394W        W 6311   2.705  26.862   1.094 -0.0206  0.0743  0.0018
63395W        W 6312  33.653  28.539   2.323 -0.0217  0.0517 -0.0727
63396W        W 6313   3.670  26.426   2.223 -0.0865 -0.5068  0.1142
63397W        W 6314   2.229  29.367   0.471 -0.1285 -0.0759  0.2233
63398W        W 6315   5.017  28.074   3.022  0.2500  0.1556  0.1222
63399W        W 6316   3.249  28.869   2.372 -0.3855  0.3412  0.0720
63400W        W 6317   2.331  25.173   3.125 -0.2576  0.0456  0.1165
63401W        W 6318   1.243  27.523   0.995 -0.1778  0.0964  0.2690
63402W        W 6319   0.383  29.533   1.509 -0.4107 -0.3022  0.2919
63403W        W 6320   1.877  26.000   0.009  0.0868 -0.1492  0.1130
63404W        W 6321   2.108  25.998  30.750 -0.0971 -0.0054 -0.0376
63405W        W 6322   3.453  28.142   1.123 -0.3191  0.3742 -0.2074
63406W        W 6323   2.384  28.466   0.001 -0.1912  0.0321  0.0864
63407W        W 6324   0.992  27.270   2.383 -0.4149  0.1323 -0.0295
63408W        W 6325   2.750  26.812   1.868 -0.2055 -0.0277  0.2444
63409W        W 6326   5.369  26.843   1.067 -0.1276  0.2454 -0.1289
63410W        W 6327   2.340  27.130   0.586  0.0346  0.0182 -0.0312
63411W        W 6328  33.777  25.597   0.127  0.1141  0.0188  0.0439
63412W        W 6329   5.539  28.777   2.791  0.1332 -0.0365  0.1105
63413W        W 6330  34.651  27.493   0.646 -0.1155 -0.2076 -0.4451
63414W        W 6331   0.287  27.472  31.748  0.1594 -0.0450  0.1565
63415W        W 6332   2.116  28.131   1.791 -0.1087 -0.0638  0.0261
63416W        W 6333   3.373  26.383   1.010  0.4093  0.3646 -0.1358
63417W        W 6334   2.225  27.771   4.257  0.1022 -0.1322 -0.0794
63418W        W 6335   2.665  26.334   2.762  0.0805  0.1814 -0.2455
63419W        W 6336   3.445  25.227  30.545 -0.4474  0.1311  0.1563
63420W        W 6337   0.430  28.499   1.509  0.0223 -0.0663 -0.3889
63421W        W 6338   4.013  25.451  31.869  0.3676 -0.0485  0.0876
63422W        W 6339   4.539  26.769  29.204 -0.0188  0.2929 -0.1688
63423W        W 6340   3.293  27.949   3.052  0.1212 -0.0885  0.0908
63424W        W 6341   5.209  24.982  31.356 -0.2685 -0.0751  0.1829
63425W        W 6342   6.242  26.064   0.369  0.3443 -0.2274 -0.2904
63426W        W 6343   2.511  27.492  28.916 -0.1985  0.1715 -0.2240
63427W        W 6344   0.974  28.861   3.478 -0.2577 -0.0255 -0.0381
63428W        W 6345   2.275  26.181   0.312  0.1913  0.2515  0.0732
63429W        W 6346   1.806  28.513   1.861 -0.0282 -0.0965  0.0879
63430W        W 6347   4.447  26.280   0.140 -0.1499  0.0830  0.2942
63431W        W 6348   3.807  28.081   0.795 -0.0113  0.0962 -0.3143
63432W        W 6349   0.590  29.303   2.039 -0.1938 -0.1857 -0.0688
63433W        W 6350   1.155  27.551   1.515  0.2438  0.1386  0.3689
63434W        W 6351   4.147  28.249   0.495  0.3681  0.2872  0.2997
63435W        W 6352  34.351  26.184   1.516  0.0786  0.2089  0.0942
63436W        W 6353   1.020  27.313  30.105 -0.3256 -0.2219  0.2539
63437W        W 6354   5.068  25.315   1.138 -0.0851 -0.0506  0.2027
63438W        W 6355   0.933  28.085   0.458  0.1835  0.3357 -0.3249
63439W        W 6356   4.291  27.020   0.756  0.0368 -0.0003  0.1786
63440W        W 6357   3.063  26.667  31.706  0.2594  0.3388 -0.1553
63441W        W 6358   0.722  25.233   1.912 -0.3245 -0.2087  0.2712
63442W        W 6359   5.053  25.912   2.372 -0.0675  0.0023 -0.0392
63443W        W 6360   3.203  28.747   1.156  0.4236 -0.2619  0.0078
63444W        W 6361   4.139  28.480   2.621 -0.2606  0.0830 -0.1064
63445W        W 6362  34.304  28.669  29.975 -0.0789  0.1489 -0.2250
63446W        W 6363   2.482  26.528   3.696  0.1478  0.1231  0.0698
63447W        W 6364   1.911  26.982   1.393 -0.1811  0.0822 -0.3609
63448W        W 6365   1.658  27.603   0.802 -0.1880  0.0997 -0.3124
63449W        W 6366   2.199  28.113   2.787 -0.1641  0.0325 -0.1345
63450W        W 6367   1.870  27.152   0.864 -0.1664 -0.0264 -0.1721
63451W        W 6368   1.930  26.632   3.241  0.1142  0.1145 -0.0434
63452W        W 6369   4.120  27.405  30.450 -0.1731 -0.0640 -0.2362
63453W        W 6370   1.365  27.391   0.055 -0.0067  0.0881  0.0174
63454W        W 6371   2.985  29.787  31.663  0.0790 -0.3611 -0.0477
63455W        W 6372  33.579  24.958   2.733 -0.2875 -0.2411  0.0928
63456W        W 6373   1.211  27.984   2.568  0.0347 -0.0527  0.0218
63457W        W 6374   3.152  27.765   0.950 -0.0501 -0.0989  0.1082
63458W        W 6375   2.689  27.435   0.324  0.2556 -0.0996  0.0414
63459W        W 6376   1.702  29.539  30.938 -0.0693  0.2599  0.0946
63460W        W 6377   4.426  27.164   1.785  0.0364 -0.2878 -0.1780
63461W        W 6378  34.335  27.814   1.181  0.1494 -0.2203  0.1799
63462W        W 6379   1.922  26.602  31.562  0.2799 -0.1435 -0.3565
63463W        W 6380  33.381  26.856   0.724 -0.2088 -0.0081 -0.2582
63464W        W 6381   5.071  27.211  31.873  0.2130  0.1696  0.0330
63465W        W 6382   4.406  26.567  31.617  0.1892 -0.0161 -0.2085
63466W        W 6383  34.149  25.646   2.296 -0.0473 -0.0151 -0.1480
63467W        W 6384   0.823  25.159   0.802 -0.1873  0.1467 -0.2760
63468W        W 6385   0.316  27.782   1.187 -0.4302 -0.0186  0.1354
63469W        W 6386   3.265  27.855   2.538 -0.0929 -0.2738 -0.2184
63470W        W 6387   4.263  27.167  31.683 -0.0868  0.0614 -0.2960
63471W        W 6388   4.588  28.110   1.797  0.1031  0.0665 -0.0672
63472W        W 6389   0.738  26.527   3.198 -0.3461 -0.3020 -0.0109
63473W        W 6390   1.286  28.270  31.184 -0.0094  0.2088  0.0959
63474W        W 6391   2.413  27.745   1.765  0.1966 -0.0779 -0.1901
63475W        W 6392   3.119  24.568   1.561  0.0998 -0.0417  0.1668
63476W        W 6393   2.319  31.024   0.116 -0.1493  0.0742 -0.0431
63477W        W 6394   2.364  28.102   0.862 -0.0129 -0.0293 -0.0471
63478W        W 6395   1.542  26.339   0.101 -0.1546  0.1962  0.2714
63479W        W 6396   1.835  28.644  31.537 -0.2092  0.0520 -0.0627
63480W        W 6397   1.108  25.122   4.711  0.1694 -0.1115 -0.4042
63481W        W 6398   3.601  26.868   3.170 -0.1130  0.0556  0.2423
63482W        W 6399   0.299  26.201   2.289 -0.0499  0.1716 -0.3201
63483W        W 6400   3.124  26.214  31.933 -0.2488  0.0486  0.4444
63484W        W 6401   4.768  25.404   1.632 -0.2994  0.0643 -0.3536
63485W        W 6402   2.727  25.437   2.775  0.4404 -0.0596 -0.3261
63486W        W 6403   3.088  27.088   1.397  0.3997  0.1206 -0.1260
63487W        W 6404   2.236  26.813   0.936  0.3750  0.0630  0.0583
63488W        W 6405   1.495  26.850   1.461  0.0103 -0.1140  0.1686
63489W        W 6406   4.504  29.184   0.623  0.0431  0.0697 -0.1181
63490W        W 6407   2.661  27.826   3.233 -0.1708 -0.0850  0.2548
63491W        W 6408   0.501  29.102  30.391  0.0634 -0.2816 -0.4183
63492W        W 6409   0.550  26.703   3.620 -0.0608  0.2692  0.1943
63493W        W 6410   1.906  27.590  31.118 -0.4166 -0.0745 -0.2069
63494W        W 6411   4.031  27.103   1.486  0.1049 -0.0294 -0.1269
63495W        W 6412   1.936  28.282   1.358 -0.0635  0.1434 -0.2342
63496W        W 6413   0.706  27.201  31.588  0.0462  0.1503  0.0088
63497W        W 6414   2.174  28.732   4.890  0.0094 -0.0341 -0.2460
63498W        W 6415   4.883  23.711  31.375 -0.0075 -0.1092  0.1774
63499W        W 6416   1.373  28.141   0.779  0.0219  0.2082 -0.0305
63500W        W 6417   4.952  26.735   1.908 -0.0387  0.3514  0.1479
63501W        W 6418   3.904  28.230   2.226 -0.6764 -0.4210  0.2996
63502W        W 6419   2.532  28.903   0.248  0.2074  0.0869  0.2230
63503W        W 6420   3.159  25.213   2.881  0.1550 -0.2248 -0.0755
63504W        W 6421   0.063  26.831   1.735  0.3042  0.0507  0.0545
63505W        W 6422   2.092  29.271  31.475  0.0294  0.1666  0.0122
63506W        W 6423   0.103  25.978   2.740  0.0772 -0.1471 -0.1890
63507W        W 6424   2.070  27.522   2.077 -0.2610  0.5213 -0.0910
63508W        W 6425   0.628  27.194   2.793 -0.0547 -0.0287  0.1517
63509W        W 6426   2.825  26.178   0.434  0.0977 -0.1677  0.1687
63510W        W 6427   2.295  26.274  31.639  0.1098  0.0114 -0.2503
63511W        W 6428   3.343  25.597   2.010  0.1301 -0.0577 -0.0333
63512W        W 6429   4.433  25.567  30.853 -0.0020 -0.0196 -0.0884
63513W        W 6430   0.563  25.648   0.998 -0.1362 -0.1007 -0.1670
63514W        W 6431   5.750  26.109   0.487  0.2295 -0.0884  0.0214
63515W        W 6432   0.464  26.653   1.954  0.1617  0.1864 -0.0434
63516W        W 6433   4.719  25.930   0.398 -0.1292 -0.4974  0.4724
63517W        W 6434   4.141  27.732   0.467 -0.0678  0.0452  0.0582
63518W        W 6435   0.835  26.964   0.401  0.1444  0.2825  0.2507
63519W        W 6436   2.300  26.174   2.397 -0.5230  0.2770  0.0403
63520W        W 6437   5.152  26.680   0.149 -0.1641 -0.1718  0.2528
63521W        W 6438   5.297  26.875   1.612 -0.0194  0.0529 -0.4486
63522W        W 6439   2.883  27.365   3.771  0.0864  0.1958  0.0704
63523W        W 6440   3.038  27.364   2.779  0.0017 -0.2337 -0.1079
63524W        W 6441   2.217  26.530   2.823  0.1213  0.1502  0.1389
63525W        W 6442   1.948  25.989   2.831  0.1939  0.1706  0.2399
63526W        W 6443   6.858  28.665   3.708  0.2234 -0.3379  0.0419
63527W        W 6444   3.590  28.184  30.848  0.1358 -0.0670 -0.0178
63528W        W 6445   3.984  27.147   2.309  0.0876  0.1912  0.0345
63529W        W 6446   6.109  25.677  31.723  0.1929 -0.1552 -0.2498
63530W        W 6447   3.724  28.323  31.302 -0.0336  0.0013 -0.1611
63531W        W 6448  34.340  26.628   1.245  0.4698 -0.0419 -0.1789
63532W        W 6449   4.646  27.621   1.818 -0.0604  0.0168  0.1421
63533W        W 6450   2.511  27.533  31.194 -0.3242 -0.1873  0.1044
63534W        W 6451   1.944  26.705   2.389  0.0421  0.1612 -0.0128
63535W        W 6452   2.182  29.750  31.075 -0.2471 -0.0936  0.1072
63536W        W 6453   2.361  27.974  31.736 -0.0525  0.3277 -0.1654
63537W        W 6454   3.777  26.180   1.347 -0.0193 -0.3947 -0.2204
63538W        W 6455   0.473  26.993   0.013  0.1952 -0.2565  0.2866
63539W        W 6456   1.696  27.618   4.157 -0.0685  0.0173  0.1765
63540W        W 6457   1.650  26.871   0.004  0.1579 -0.0889 -0.1848
63541W        W 6458   2.152  25.863   1.186 -0.3530 -0.0645  0.1424
63542W        W 6459   4.638  28.684   1.880 -0.2496  0.0174 -0.0339
63543W        W 6460   5.128  27.460   3.053  0.0463 -0.2294 -0.1123
63544W        W 6461   2.149  25.713  31.711 -0.3169 -0.1108  0.1473
63545W        W 6462   4.347  27.355   3.638  0.1297  0.2642 -0.0544
63546W        W 6463   0.786  29.447  30.699 -0.1653 -0.3113  0.0471
63547W        W 6464   4.940  27.214   1.813  0.2932 -0.3091  0.3056
63548W        W 6465   1.347  28.163   2.060  0.3547 -0.0317  0.1230
63549W        W 6466  32.823  26.931   2.540 -0.1351  0.2493  0.0048
63550W        W 6467   0.753  29.184  31.884  0.1083  0.1316  0.1452
63551W        W 6468   2.282  26.373   1.958 -0.0640 -0.2720 -0.1689
63552W        W 6469   2.652  27.769   0.707  0.1225  0.1174  0.1244
63553W        W 6470   3.675  28.285   2.740  0.1428 -0.0998 -0.2211
63554W        W 6471   3.960  26.066   3.470 -0.2027  0.0940 -0.2356
63555W        W 6472   0.713  27.394   1.739 -0.1683 -0.1207  0.0792
63556W        W 6473   0.449  26.070   1.096  0.2000 -0.2117  0.1166
63557W        W 6474   2.449  28.935   0.737 -0.1596  0.1566 -0.0094
63558W        W 6475   4.513  24.689   0.987  0.0146 -0.4504 -0.3534
63559W        W 6476   2.271  28.406  31.379  0.1756 -0.2501  0.0747
63560W        W 6477  32.320  28.082   2.575 -0.3762  0.3119  0.2658
63561W        W 6478   0.365  28.053   2.492  0.1607  0.0277  0.3053
63562W        W 6479   3.048  27.481   4.593 -0.4633 -0.0572  0.5294
63563W        W 6480   3.633  26.786  31.084  0.0095  0.0373  0.0120
63564W        W 6481   3.484  29.065  31.494 -0.1493 -0.1292  0.0999
63565W        W 6482   0.651  28.014   1.451 -0.0749 -0.2996  0.0565
63566W        W 6483  33.825  27.003   1.725 -0.0431  0.0210 -0.0168
63567W        W 6484   0.463  29.040   0.335 -0.0725 -0.0982 -0.0563
63568W        W 6485   3.382  29.490   1.338 -0.2849  0.1700  0.0599
63569W        W 6486   3.750  25.069   1.402 -0.0561 -0.1645 -0.1555
63570W        W 6487   3.718  27.520   1.434  0.1407 -0.0729  0.1834
63571W        W 6488   2.676  27.509  31.815 -0.2774  0.1745 -0.1468
63572W        W 6489   4.433  27.396   2.326  0.1702 -0.1226  0.3450
63573W        W 6490   0.192  26.446   0.023  0.0345  0.0969  0.0456
63574W        W 6491   5.658  29.199   1.051 -0.0763 -0.6748  0.2807
63575W        W 6492   1.161  28.880   0.039 -0.0293  0.1736  0.1734
63576W        W 6493   4.336  28.676   0.562  0.2699  0.0458  0.0046
63577W        W 6494   4.215  24.173   0.599 -0.0863  0.0565 -0.2404
63578W        W 6495   5.633  25.749   0.049  0.1332  0.1995 -0.0719
63579W        W 6496   3.897  26.402  31.353 -0.1787 -0.0994  0.1666
63580W        W 6497   0.973  27.794   1.968  0.0448 -0.0868 -0.2420
63581W        W 6498   0.469  27.128   2.298 -0.0736  0.3054  0.0735
63582W        W 6499   0.490  23.648  31.833 -0.2822 -0.1390  0.2348
63583W        W 6500   0.480  26.273   2.906  0.1822 -0.0268 -0.0594
63584W        W 6501   4.110  24.996   1.874  0.0440  0.0448 -0.1104
63585W        W 6502   2.820  27.810   2.768  0.0803 -0.2143  0.0685
63586W        W 6503   4.713  29.197   1.634 -0.0464 -0.1128  0.0947
63587W        W 6504  33.248  27.260   0.012  0.1022  0.1528  0.1149
63588W        W 6505   2.160  28.100   0.367  0.1465  0.1601  0.1223
63589W        W 6506   4.535  26.142   2.269 -0.1233  0.1433  0.1344
63590W        W 6507   3.367  28.640  31.084  0.0552 -0.0123 -0.0094
63591W        W 6508   4.254  27.923   0.931  0.2722  0.1550  0.0350
63592W        W 6509   0.219  29.046  31.837 -0.0559  0.0230 -0.1598
63593W        W 6510   2.643  28.114   0.288  0.4683 -0.1435 -0.0674
63594W        W 6511   0.564  27.728   0.772  0.5679 -0.0673  0.0070
63595W        W 6512   1.389  27.072   0.977  0.0183 -0.0003  0.0207
63596W        W 6513   4.851  26.465   0.443  0.0703  0.2699  0.1492
63597W        W 6514  34.637  26.372   1.957 -0.5105  0.1472 -0.1075
63598W        W 6515   3.065  26.566   3.053  0.1613 -0.0080 -0.1984
63599W        W 6516   1.812  27.787  31.739  0.0984 -0.0001 -0.0313
63600W        W 6517   3.387  25.541  31.206  0.0367  0.1642 -0.0635
63601W        W 6518   1.346  28.542   2.724  0.2261 -0.0383 -0.1503
63602W        W 6519   0.534  25.619   2.893 -0.2748  0.2077 -0.1226
63603W        W 6520   3.156  28.928  30.690  0.2867 -0.1478  0.2582
63604W        W 6521   2.467  27.441   2.967 -0.1600 -0.1317  0.0409
63605W        W 6522   0.339  26.891  31.454  0.1909  0.0999  0.0552
63606W        W 6523   3.558  29.869   3.563  0.3628  0.1387  0.4408
63607W        W 6524   0.843  25.928   0.690  0.0134  0.1486 -0.3926
63608W        W 6525   4.939  25.745  30.846 -0.2155 -0.2297  0.6086
63609W        W 6526   1.111  26.482   0.329  0.0635 -0.1074  0.0915
63610W        W 6527   1.479  27.580   2.121  0.3014  0.0487 -0.2212
63611W        W 6528   2.939  26.973   2.359 -0.4203  0.1169  0.1687
63612W        W 6529   0.231  25.952   0.080  0.1210  0.0986 -0.0714
63613W        W 6530   4.674  27.521  31.082 -0.2115 -0.1797 -0.1402
63614W        W 6531   5.206  26.094   0.537 -0.4224  0.3377  0.3039
63615W        W 6532   1.510  31.402  31.281  0.1307  0.0722  0.1190
63616W        W 6533   3.259  27.388  31.783 -0.1855 -0.0594 -0.1721
63617W        W 6534   2.884  29.394   1.543  0.1418  0.3921 -0.3796
63618W        W 6535  34.668  27.005   0.842  0.0750 -0.2859  0.2012
63619W        W 6536   5.082  30.256   2.000  0.1490 -0.0502  0.0162
63620W        W 6537   2.951  28.149  31.840 -0.0874 -0.3896 -0.0928
63621W        W 6538   4.747  26.685  31.170  0.0199 -0.0142 -0.3002
63622W        W 6539   0.245  26.575   1.013  0.1602  0.1349  0.1157
63623W        W 6540   0.458  28.339  31.430  0.0198  0.0064 -0.0765
63624W        W 6541   5.067  25.808   1.376 -0.0968 -0.0505 -0.1864
63625W        W 6542   2.582  26.590   3.225 -0.2606 -0.1432  0.0007
63626W        W 6543   2.618  29.845  31.312  0.1767 -0.2200  0.3432
63627W        W 6544   2.046  26.391   1.386  0.3042 -0.1619  0.1934
63628W        W 6545   3.744  27.763   2.313  0.2964 -0.0058 -0.1798
63629W        W 6546   2.137  27.424   3.427 -0.3671 -0.0048 -0.0689
63630W        W 6547   3.205  27.874  30.920  0.2151 -0.0063 -0.0333
63631W        W 6548   0.052  28.068   1.547 -0.3333  0.2805 -0.1010
63632W        W 6549   1.712  28.512   0.603 -0.0366  0.0161 -0.1821
63633W        W 6550   1.589  28.496   1.083  0.0521 -0.2605  0.0287
63634W        W 6551   4.742  28.745   1.266  0.3621  0.1883 -0.0296
63635W        W 6552   3.223  27.576  31.300  0.2130  0.2373 -0.2902
63636W        W 6553   3.209  26.883   0.910 -0.1289  0.4198 -0.0001
63637W        W 6554   4.189  27.735   1.529 -0.2586  0.2214  0.0445
63638W        W 6555   6.164  26.626   1.738 -0.3006  0.3758  0.0909
63639W        W 6556   1.811  25.016   1.242  0.0752 -0.1454 -0.0368
63640W        W 6557   2.164  27.666   0.671  0.0552  0.0272  0.2138
63641W        W 6558   1.547  26.732   0.552  0.2417  0.1225  0.0306
63642W        W 6559   0.672  28.681  29.794  0.0294 -0.3033  0.0431
63643W        W 6560   1.706  26.415   2.719 -0.0850  0.0606 -0.0285
63644W        W 6561   0.099  24.605   3.099 -0.0032 -0.0532  0.3208
63645W        W 6562   2.745  26.119   3.217  0.0442  0.1716 -0.0384
63646W        W 6563   0.747  27.511   1.244 -0.2691  0.2397  0.3128
63647W        W 6564   1.160  25.629  30.876 -0.3545  0.1499 -0.1104
63648W        W 6565   3.525  26.974   2.124  0.3571  0.1019 -0.2080
63649W        W 6566   0.146  24.429   1.763  0.1880 -0.1981  0.0644
63650W        W 6567  32.860  27.528   0.677 -0.4552 -0.3004 -0.0465
63651W        W 6568   1.879  25.993  31.262  0.1199  0.2391 -0.0920
63652W        W 6569   3.710  26.736   0.423  0.3561 -0.0445  0.0073
63653W        W 6570   2.603  26.535   0.026  0.1918  0.2341 -0.0970
63654W        W 6571   5.019  28.414   3.621  0.2691 -0.3963  0.1396
63655W        W 6572   1.171  28.820  29.700 -0.2425  0.2539  0.1033
63656W        W 6573   2.201  28.310   2.345  0.0815  0.2220 -0.1511
63657W        W 6574   3.361  26.184   5.370  0.0397 -0.1699 -0.0824
63658W        W 6575   2.129  27.768   1.308 -0.0010 -0.1644  0.0054
63659W        W 6576   4.594  25.264   1.088 -0.0027 -0.0096  0.0806
63660W        W 6577   2.534  26.346   1.184  0.1298 -0.2571  0.0719
63661W        W 6578   3.710  29.039  30.771 -0.0742  0.0336  0.0337
63662W        W 6579   2.184  26.989   2.052 -0.0167 -0.1087 -0.0498
63663W        W 6580   1.277  29.192   3.333 -0.2393  0.0374  0.2529
63664W        W 6581   0.376  23.441   1.047 -0.0548  0.0202  0.2129
63665W        W 6582   2.714  27.236   1.636  0.0713  0.0246  0.2423
63666W        W 6583   0.418  28.079   1.934 -0.0971 -0.3016 -0.0879
63667W        W 6584   5.463  29.027   2.003 -0.0470 -0.0402 -0.3004
63668W        W 6585   5.022  24.678   1.780  0.1751  0.1842  0.1978
63669W        W 6586   1.359  26.042   1.866  0.1239 -0.4229  0.2865
63670W        W 6587   2.031  26.253   3.765 -0.0886 -0.1307 -0.2884
63671W        W 6588   1.457  26.819   3.220  0.1373  0.0195  0.0714
63672W        W 6589   3.642  27.561   0.805 -0.0553 -0.0997 -0.2486
63673W        W 6590   2.904  25.888   2.010  0.0193 -0.0427  0.3327
63674W        W 6591   5.222  24.097  31.742 -0.0011  0.2008 -0.0111
63675W        W 6592   5.027  25.323   0.576 -0.1099  0.2480  0.0112
63676W        W 6593   1.536  26.374   1.468 -0.1024  0.1419  0.0224
63677W        W 6594   2.115  28.945  31.041  0.0099  0.4859 -0.0675
63678W        W 6595   2.432  29.217   4.094  0.0530 -0.0296  0.2358
63679W        W 6596   3.903  26.488   0.946 -0.4243  0.1268  0.0889
63680W        W 6597   4.204  27.960   2.502 -0.2096 -0.2141 -0.0434
63681W        W 6598   2.539  26.650   0.515  0.1005 -0.0373 -0.0313
63682W        W 6599   4.698  26.130   0.829 -0.1073 -0.0097  0.1610
63683W        W 6600   2.267  29.823   0.804 -0.1370  0.0139 -0.0236
63684W        W 6601   7.035  29.848   2.896 -0.3732 -0.1635 -0.1527
63685W        W 6602   2.091  28.534   0.968  0.0775 -0.2000 -0.0762
63686W        W 6603   3.905  26.820   1.914  0.1880  0.3871 -0.0253
63687W        W 6604   0.435  27.665   0.289  0.1200  0.0294  0.3171
63688W        W 6605   2.389  27.356   1.115 -0.0361  0.1912  0.2103
63689W        W 6606   2.372  27.082   0.130 -0.1380  0.0141 -0.1859
63690W        W 6607   4.898  26.741   1.353  0.2940 -0.2475  0.0456
63691W        W 6608   3.728  25.904   0.845 -0.0354 -0.3137  0.1793
63692W        W 6609   3.579  26.001  31.796 -0.1154  0.1045  0.1328
63693W        W 6610   5.124  27.936   2.513 -0.1846 -0.1881  0.1620
63694W        W 6611   4.621  26.339   1.741  0.2772 -0.2308  0.0803
63695W        W 6612   1.313  27.347   5.151 -0.3701  0.0015  0.1891
63696W        W 6613   1.578  27.036   4.113  0.0781  0.0961  0.2080
63697W        W 6614   3.512  26.075   2.767 -0.0597 -0.1257 -0.1319
63698W        W 6615   5.084  27.868   2.007  0.0275  0.0927 -0.1726
63699W        W 6616   0.117  27.470   3.107  0.3692 -0.2156  0.1530
63700W        W 6617   3.782  29.144   3.993 -0.1750 -0.1058 -0.2768
63701W        W 6618   1.214  25.712   7.460  0.2545  0.1446  0.0594
63702W        W 6619   3.452  27.731   4.488  0.0857 -0.1531 -0.0464
63703W        W 6620   5.148  27.994   6.465 -0.0732 -0.2943 -0.1099
63704W        W 6621   3.212  26.491   2.428 -0.2199  0.0328 -0.3343
63705W        W 6622   1.686  26.583   4.968 -0.0436 -0.4012 -0.2007
63706W        W 6623   3.317  27.391   7.108  0.1386 -0.0407  0.0447
63707W        W 6624   2.203  26.952   4.389 -0.0405 -0.0006  0.0074
63708W        W 6625   0.838  24.884   4.292 -0.0175  0.2229  0.0293
63709W        W 6626   5.510  27.874   4.548 -0.1995 -0.1653 -0.3058
63710W        W 6627   1.036  29.910   4.878  0.1917  0.4192 -0.3453
63711W        W 6628   0.072  27.750   5.187 -0.0095  0.0951 -0.0297
63712W        W 6629   1.070  26.086   3.749 -0.2176  0.2406 -0.0873
63713W        W 6630   3.131  29.076   5.284 -0.1480 -0.0485  0.1680
63714W        W 6631   1.085  25.593   5.613  0.1528 -0.2550 -0.0390
63715W        W 6632   4.147  27.055   6.649 -0.0869  0.4740 -0.3616
63716W        W 6633   1.815  28.565   5.406  0.1151 -0.2294  0.3594
63717W        W 6634   0.007  27.307   1.883  0.0854  0.1522 -0.0270
63718W        W 6635  34.018  27.539   4.949 -0.2724 -0.1439  0.3032
63719W        W 6636   1.379  26.463   5.399 -0.2509 -0.0376  0.1382
63720W        W 6637   1.645  25.473   3.840  0.0276  0.1414 -0.1028
63721W        W 6638   3.443  26.641   5.555 -0.2079 -0.2096 -0.0410
63722W        W 6639   3.211  28.522   4.639 -0.1636 -0.2125 -0.1101
63723W        W 6640   3.250  29.342   5.735 -0.2571 -0.1384  0.0841
63724W        W 6641   2.207  25.795   7.287  0.0131  0.0805 -0.0202
63725W        W 6642   0.189  28.824   4.129  0.3573 -0.2627  0.2204
63726W        W 6643   0.967  30.209   4.069  0.0343 -0.1700 -0.1305
63727W        W 6644   1.529  28.681   3.468 -0.0526  0.1027  0.3039
63728W        W 6645   3.446  28.262   3.590  0.4481  0.0310 -0.3461
63729W        W 6646   3.558  27.002   9.337 -0.1249 -0.2604  0.0077
63730W        W 6647   0.543  30.029   6.716  0.2163 -0.1413 -0.0993
63731W        W 6648   0.802  27.567   3.223  0.0921 -0.1984 -0.0524
63732W        W 6649   1.640  29.130   7.130 -0.2450  0.0380 -0.3068
63733W        W 6650   3.094  28.452   6.601 -0.1556 -0.0688 -0.1429
63734W        W 6651   3.663  27.686   4.932  0.0047 -0.0765 -0.0623
63735W        W 6652   3.026  27.981   3.687  0.1217 -0.1269  0.1410
63736W        W 6653   3.904  29.322   4.818 -0.0588  0.1430  0.2664
63737W        W 6654   5.450  30.399   5.297  0.0726  0.1833  0.0147
63738W        W 6655   1.990  26.414   9.442  0.0936 -0.0270  0.3429
63739W        W 6656  34.285  27.944   6.164 -0.1749  0.1065  0.0188
63740W        W 6657   4.545  27.827   8.843 -0.1889  0.0586 -0.0442
63741W        W 6658   0.827  29.772   4.341  0.1426  0.1595  0.0874
63742W        W 6659   3.073  25.323   3.948  0.0748  0.1711 -0.1955
63743W        W 6660   1.442  26.031   2.690 -0.1061 -0.0352  0.0990
63744W        W 6661   3.185  25.295   4.953  0.0966 -0.0518  0.0717
63745W        W 6662   2.415  27.275   4.727  0.1286 -0.2696  0.1995
63746W        W 6663   4.009  29.257   5.723  0.0154  0.0923 -0.2333
63747W        W 6664   1.645  26.922   5.355  0.1431  0.0921 -0.1002
63748W        W 6665   2.083  27.333   9.102 -0.0901  0.1510  0.4547
63749W        W 6666   2.539  26.157   4.799 -0.0818  0.6127  0.1088
63750W        W 6667   4.534  27.472   8.465  0.0289 -0.2804  0.3306
63751W        W 6668   1.593  29.220   6.639  0.0603 -0.0387  0.3687
63752W        W 6669   0.436  27.595   3.518  0.0764  0.4906  0.1047
63753W        W 6670   3.445  29.385   2.531 -0.1311  0.0670 -0.0210
63754W        W 6671   3.810  27.808   2.836  0.3036 -0.1225  0.1758
63755W        W 6672   2.103  27.822   3.163  0.0586 -0.1364 -0.1770
63756W        W 6673   0.221  28.018   3.210 -0.1933  0.1218  0.1263
63757W        W 6674   0.789  27.976   5.592 -0.0951  0.0451  0.4740
63758W        W 6675   0.807  28.253   6.090  0.4082  0.0402  0.3207
63759W        W 6676   0.681  24.257   2.694  0.3071  0.1425 -0.0498
63760W        W 6677   2.551  31.052   7.761 -0.1338 -0.4827  0.2548
63761W        W 6678   2.757  30.486   6.214  0.1024 -0.0682  0.0585
63762W        W 6679   4.615  27.424   5.721 -0.0163 -0.0789  0.0800
63763W        W 6680   2.286  27.699   5.640  0.1934  0.3548  0.3170
63764W        W 6681   4.475  26.720   4.394  0.1335 -0.1168  0.3981
63765W        W 6682   3.579  28.816   4.356 -0.0616 -0.0986 -0.0561
63766W        W 6683   2.567  26.700   4.625 -0.1708  0.1433  0.4292
63767W        W 6684   3.728  26.152   5.797 -0.0498 -0.2742 -0.0094
63768W        W 6685   1.161  27.286   1.922  0.3269  0.0186 -0.5002
63769W        W 6686   2.024  27.405   4.464  0.0425  0.3617  0.4912
63770W        W 6687   3.657  28.408   6.666  0.1159  0.1486 -0.2788
63771W        W 6688   3.735  28.531   4.810  0.2708  0.1275 -0.2745
63772W        W 6689   0.334  28.102   5.439 -0.1981  0.1789  0.2623
63773W        W 6690   2.213  25.964   6.280 -0.1615 -0.1639 -0.1604
63774W        W 6691   2.028  28.736   7.302  0.3783  0.0173 -0.3072
63775W        W 6692   0.557  27.650   2.191 -0.1757  0.3860 -0.1086
63776W        W 6693   1.234  27.464   4.047 -0.0803  0.0205 -0.0049
63777W        W 6694   2.054  28.481   3.741 -0.0336  0.1827 -0.3378
63778W        W 6695   0.931  26.149   7.544  0.1700 -0.1981  0.0036
63779W        W 6696   2.230  27.743   8.182  0.2374 -0.2592  0.0076
63780W        W 6697   2.052  23.689   3.089 -0.2048 -0.2826  0.0828
63781W        W 6698   0.889  26.428   5.179  0.2116 -0.1960  0.2391
63782W        W 6699   3.430  25.321   3.252 -0.2113  0.0494 -0.0017
63783W        W 6700   1.133  27.151   4.617  0.0387  0.2597  0.1754
63784W        W 6701   4.481  30.409   5.155 -0.0340 -0.2817 -0.1334
63785W        W 6702   3.537  28.217   4.399  0.2442  0.0289  0.1118
63786W        W 6703   4.247  28.855   1.622  0.1100 -0.6071 -0.0868
63787W        W 6704   0.683  28.486   4.328  0.1012 -0.1981  0.0848
63788W        W 6705   1.437  28.250   3.124  0.0415 -0.1676 -0.3240
63789W        W 6706   0.465  27.938   3.904 -0.2915 -0.3777 -0.0351
63790W        W 6707   0.079  25.802   4.850 -0.1565 -0.0365 -0.1145
63791W        W 6708   2.919  26.536   7.877  0.4361  0.2621 -0.0256
63792W        W 6709   1.681  26.088   3.257  0.1173  0.0926 -0.1305
63793W        W 6710   4.042  25.427   3.929  0.1844  0.0801  0.2760
63794W        W 6711   2.987  26.824   5.778  0.1604 -0.3691  0.1650
63795W        W 6712  32.946  27.086   1.994 -0.3391  0.3225  0.0496
63796W        W 6713   4.156  27.279   7.685  0.0648  0.1242 -0.2422
63797W        W 6714   1.137  29.342   4.200 -0.0797  0.0798  0.1606
63798W        W 6715   3.689  28.586   8.672  0.1334 -0.2546 -0.0237
63799W        W 6716   3.050  28.018   4.488  0.1668  0.0277 -0.0870
63800W        W 6717   0.315  27.196   4.754 -0.0351  0.0627  0.0326
63801W        W 6718   2.530  26.926   5.102  0.1009  0.0407  0.0312
63802W        W 6719   2.284  29.874   4.152  0.3460  0.1209  0.0435
63803W        W 6720   2.552  29.207   6.733 -0.1389 -0.0405  0.1218
63804W        W 6721   1.330  24.987   2.681 -0.2223  0.2945 -0.0822
63805W        W 6722   3.360  28.631   5.162 -0.2464  0.0078  0.1139
63806W        W 6723   3.362  27.907   4.038  0.2077  0.1854  0.2390
63807W        W 6724   3.085  29.091   6.704 -0.2135 -0.0618 -0.1677
63808W        W 6725   2.018  26.951   4.865  0.0349 -0.0280 -0.1253
63809W        W 6726   3.266  27.396   5.765  0.0143  0.1557 -0.1153
63810W        W 6727   3.127  26.598   4.478  0.2590 -0.0630  0.1365
63811W        W 6728   0.229  25.876   3.873  0.2222 -0.2873 -0.3412
63812W        W 6729   3.242  27.635   5.254 -0.0316  0.1333 -0.2181
63813W        W 6730   1.297  28.952   3.846  0.0412  0.1373  0.2153
63814W        W 6731  33.497  28.707   3.627 -0.1684 -0.1806  0.1560
63815W        W 6732   3.766  28.171   3.236  0.0991 -0.0614  0.2971
63816W        W 6733   3.812  24.450   4.781 -0.0440 -0.1078 -0.1020
63817W        W 6734  34.400  27.110   5.281  0.1687 -0.1037 -0.1578
63818W        W 6735   2.444  25.992   3.604 -0.0386 -0.2596  0.0137
63819W        W 6736   0.327  25.403   4.123  0.1731 -0.1072  0.0585
63820W        W 6737   2.433  28.993   7.266  0.0545  0.0164  0.0679
63821W        W 6738   1.650  25.632   3.096  0.0289  0.0974 -0.3054
63822W        W 6739   1.777  27.214   2.465 -0.0797  0.1195 -0.1000
63823W        W 6740   0.911  27.472   7.611  0.1634  0.0223  0.1193
63824W        W 6741   4.502  27.740   4.401  0.1654 -0.0119 -0.2802
63825W        W 6742   2.473  26.693   2.384  0.0237 -0.0139  0.3801
63826W        W 6743   2.106  26.499   4.676  0.3215 -0.0352 -0.0954
63827W        W 6744   0.666  28.891   6.872 -0.0987  0.1482 -0.1049
63828W        W 6745   2.605  27.775   4.630 -0.0634  0.2510 -0.1478
63829W        W 6746   2.377  27.108   5.857  0.1160 -0.0410 -0.0288
63830W        W 6747   3.912  26.597   3.508 -0.2248 -0.1096 -0.1544
63831W        W 6748   4.807  27.608   4.903  0.1670  0.1618  0.1314
63832W        W 6749   0.742  28.342   5.268 -0.0279  0.0966 -0.0974
63833W        W 6750   3.581  28.024   7.477 -0.1472  0.0883  0.0426
63834W        W 6751   3.650  28.960   5.493  0.1151  0.0296  0.2473
63835W        W 6752   3.224  25.266   6.150  0.0826 -0.0546 -0.3544
63836W        W 6753   2.552  28.210   4.088 -0.1157  0.2013  0.1259
63837W        W 6754   2.778  25.365   1.925 -0.0245 -0.2550 -0.1518
63838W        W 6755   2.294  30.318   5.241 -0.0803 -0.1109 -0.0206
63839W        W 6756   2.802  26.104   3.880 -0.1481  0.1622 -0.2841
63840W        W 6757   1.956  27.498   5.001 -0.1525  0.3218  0.1097
63841W        W 6758   3.950  25.811   6.165 -0.0597 -0.3874 -0.3128
63842W        W 6759   4.148  27.737   5.348  0.0589 -0.0676  0.0405
63843W        W 6760   3.253  27.068   5.373 -0.0610 -0.1398  0.0577
63844W        W 6761   2.814  27.282   5.490  0.1330  0.1797  0.2585
63845W        W 6762   1.093  27.966   3.042  0.2535  0.0112  0.0297
63846W        W 6763   1.977  26.212   7.113  0.2534 -0.3167  0.2217
63847W        W 6764   0.547  28.362   7.384  0.3165  0.1500 -0.2898
63848W        W 6765   1.620  28.714   4.985  0.2475  0.0542 -0.0937
63849W        W 6766   3.424  27.078   6.690  0.2584  0.0553 -0.2546
63850W        W 6767   2.686  27.813   5.344  0.2116  0.4018  0.1562
63851W        W 6768   1.696  26.647   7.799 -0.2345  0.3941 -0.0732
63852W        W 6769   1.870  28.037   5.889  0.1676  0.0934 -0.0790
63853W        W 6770   1.165  28.429   4.037  0.1654 -0.0150 -0.0639
63854W        W 6771   2.083  27.284   3.889 -0.2563  0.2775  0.0151
63855W        W 6772   0.110  25.694   6.279  0.1380  0.2509 -0.5953
63856W        W 6773   2.166  29.521   7.070 -0.0599  0.1103  0.2221
63857W        W 6774   1.569  27.783   3.199 -0.1332 -0.1804  0.0889
63858W        W 6775   1.542  29.901   6.900  0.0686 -0.4946 -0.1089
63859W        W 6776   2.453  28.362   5.183  0.2278 -0.1251  0.0566
63860W        W 6777   2.665  24.210   4.717  0.2164 -0.2507 -0.0548
63861W        W 6778   0.023  30.126   4.198  0.1767 -0.0706  0.3052
63862W        W 6779   0.809  25.951   3.315 -0.1168 -0.1794 -0.0888
63863W        W 6780   0.492  27.687   4.805  0.0174 -0.1537 -0.4374
63864W        W 6781   3.406  26.760   4.114 -0.0543 -0.2373 -0.0985
63865W        W 6782   6.038  27.645   2.559  0.2379 -0.1573  0.0151
63866W        W 6783   1.335  25.542   4.288 -0.1755 -0.1591  0.2772
63867W        W 6784   0.693  25.926   4.122 -0.2604  0.0101  0.1710
63868W        W 6785   2.976  28.621   3.590  0.1592  0.2162  0.0624
63869W        W 6786   3.678  25.862   5.124  0.2569  0.0299  0.1086
63870W        W 6787   2.292  23.952   1.189  0.1089 -0.4745 -0.1815
63871W        W 6788   3.808  26.838   6.971  0.2270  0.0234 -0.1768
63872W        W 6789   1.878  27.766   9.175 -0.0514 -0.0978 -0.2462
63873W        W 6790   0.103  26.891   3.599 -0.0999  0.0804 -0.2520
63874W        W 6791   2.841  27.293   5.992 -0.1517  0.1187  0.1262
63875W        W 6792   1.918  26.397   5.367  0.0037  0.1567  0.1113
63876W        W 6793   3.075  29.608   5.314  0.1904  0.0775  0.0584
63877W        W 6794   4.432  29.883   8.548 -0.1543  0.3313 -0.0285
63878W        W 6795   2.504  27.691   3.692  0.0105  0.1536 -0.1618
63879W        W 6796   0.869  27.728   5.999 -0.0018 -0.0467  0.0229
63880W        W 6797   1.539  26.780   7.371 -0.3560 -0.1229  0.0515
63881W        W 6798   2.939  27.735   7.104  0.1636  0.1299 -0.0504
63882W        W 6799   1.498  26.360   3.613 -0.3684  0.1410 -0.4434
63883W        W 6800   0.710  27.110   4.392  0.1002 -0.0436  0.0647
63884W        W 6801   1.899  28.260   5.021  0.2144 -0.1201 -0.1859
63885W        W 6802   4.766  27.563   4.007  0.3449 -0.3438 -0.0988
63886W        W 6803   3.616  24.915   5.084  0.0235 -0.1244  0.2288
63887W        W 6804   1.822  26.658   6.964 -0.1458  0.2925  0.3252
63888W        W 6805   3.470  26.290   4.893  0.0065  0.1020  0.0350
63889W        W 6806   6.071  28.121   5.465 -0.0707 -0.0396  0.0111
63890W        W 6807   2.520  27.841   6.217 -0.0210  0.0780 -0.2515
63891W        W 6808  34.056  28.066   4.092 -0.0583  0.2933 -0.1159
63892W        W 6809   0.409  29.362   5.537  0.0172 -0.0789 -0.0718
63893W        W 6810   3.234  26.173   5.944  0.0817  0.1262  0.0445
63894W        W 6811   3.416  25.703   3.971 -0.0789 -0.1106 -0.3350
63895W        W 6812   1.748  28.867   6.366  0.2953 -0.2683 -0.1605
63896W        W 6813   1.508  27.781   5.005 -0.2231 -0.0504  0.0139
63897W        W 6814   0.864  27.907   6.860  0.4405 -0.1817  0.1797
63898W        W 6815   3.182  25.324   4.474 -0.1219  0.2634  0.1106
63899W        W 6816   3.877  28.512   3.551 -0.0981  0.2116  0.0675
63900W        W 6817   2.939  27.062   4.251 -0.0116 -0.2020 -0.1209
63901W        W 6818   2.220  25.190   5.088 -0.0955  0.0329 -0.0063
63902W        W 6819   3.476  27.069   4.482 -0.0798 -0.0142  0.0152
63903W        W 6820   3.406  25.463   7.063  0.3151  0.0382 -0.2784
63904W        W 6821   2.555  26.435   6.550  0.1957 -0.2072 -0.2930
63905W        W 6822   4.213  28.189   5.114  0.0785  0.3660 -0.0124
63906W        W 6823   0.329  27.637   6.619  0.1344  0.2931 -0.0318
63907W        W 6824   3.557  29.033   6.040 -0.0937  0.0005  0.2913
63908W        W 6825   1.055  29.107   6.196 -0.3294 -0.0529 -0.1818
63909W        W 6826   1.236  26.867   5.034 -0.1127 -0.2028  0.0784
63910W        W 6827   1.619  27.266   4.770  0.1898  0.3330  0.1108
63911W        W 6828   1.361  30.118   7.327  0.1243 -0.0062  0.1602
63912W        W 6829   5.205  29.183   6.041 -0.0295 -0.0803  0.0427
63913W        W 6830   2.605  27.266   2.122  0.3941  0.1219  0.2554
63914W        W 6831   1.799  27.929   4.610  0.1166  0.0985 -0.1595
63915W        W 6832   1.331  29.525   7.134  0.0926 -0.0549 -0.2135
63916W        W 6833   1.327  27.788   4.483  0.2091  0.1248 -0.0453
63917W        W 6834   4.053  28.985   4.437 -0.0234  0.1578  0.3364
63918W        W 6835   2.796  27.435   5.028 -0.0772  0.1058  0.2316
63919W        W 6836   0.698  26.258   7.987  0.0341 -0.0174  0.2555
63920W        W 6837   3.884  28.065   5.906  0.1500  0.1183 -0.1805
63921W        W 6838   2.696  25.589   3.850  0.1462  0.1381 -0.0986
63922W        W 6839   3.777  26.368   5.314 -0.2631 -0.1898 -0.0611
63923W        W 6840   2.402  26.985   7.368 -0.1906 -0.0532  0.2242
63924W        W 6841   1.819  27.682   5.440 -0.2424 -0.0413 -0.1202
63925W        W 6842   1.027  26.590   7.259  0.2251  0.1937  0.1006
63926W        W 6843   5.434  28.357   6.506 -0.1711 -0.1127  0.2292
63927W        W 6844   3.922  26.858   4.784  0.1153  0.1957  0.0352
63928W        W 6845   4.305  27.194   6.099 -0.0424 -0.0796  0.0342
63929W        W 6846   5.575  28.014   5.073 -0.2195  0.1735 -0.0851
63930W        W 6847   1.432  26.923   2.123  0.0194  0.1627  0.1809
63931W        W 6848   1.038  27.011   4.000  0.0860 -0.3128 -0.2892
63932W        W 6849   2.078  26.157   4.265 -0.0744  0.0702  0.0651
63933W        W 6850   2.308  25.991   1.619  0.0598 -0.1557  0.0571
63934W        W 6851   2.604  25.009   6.904 -0.2140 -0.0013  0.0257
63935W        W 6852   2.350  28.719   4.252 -0.2045 -0.1196  0.4111
63936W        W 6853   0.849  27.687   3.831  0.0672  0.0218 -0.1180
63937W        W 6854   1.875  26.590   4.190  0.1694 -0.3598  0.1129
63938W        W 6855  34.489  25.934   2.097  0.1324  0.2319  0.4011
63939W        W 6856  34.040  28.406   7.380 -0.1930 -0.1117 -0.3543
63940W        W 6857   0.328  26.718   4.483  0.0713 -0.2811 -0.0978
63941W        W 6858   1.306  25.190   2.174 -0.0230 -0.2257  0.2163
63942W        W 6859   3.288  29.849   5.756  0.3173 -0.3864  0.0777
63943W        W 6860   4.083  26.205   8.228 -0.0251  0.1854  0.3164
63944W        W 6861   3.724  25.969   1.855  0.1064 -0.0925  0.3776
63945W        W 6862   5.098  28.812   5.600 -0.2160  0.2029  0.1824
63946W        W 6863   1.762  29.468   5.273 -0.2734  0.2303  0.1205
63947W        W 6864   3.035  25.688   3.083 -0.0055  0.1873 -0.2195
63948W        W 6865   1.524  29.901   5.140 -0.2075 -0.0934  0.1311
63949W        W 6866   1.500  28.902   5.929  0.1413  0.0862 -0.0587
63950W        W 6867   2.214  28.377   6.096  0.1644  0.3097 -0.0110
63951W        W 6868   4.162  27.142   5.613 -0.0804  0.2353  0.1653
63952W        W 6869   2.562  26.958   3.936 -0.1606  0.2282 -0.2635
63953W        W 6870   0.663  28.912   4.779 -0.1876 -0.0502  0.1241
63954W        W 6871   3.956  27.598   7.979  0.0888 -0.1233 -0.2224
63955W        W 6872   2.070  28.277   7.138 -0.3115  0.1059 -0.1567
63956W        W 6873   3.233  28.809   5.680 -0.0862 -0.1236  0.2309
63957W        W 6874   3.525  28.533   6.212 -0.0616 -0.0118 -0.0570
63958W        W 6875   3.468  27.861   5.685  0.0923  0.0701 -0.0957
63959W        W 6876   0.839  28.107   4.792  0.0789  0.1364 -0.1505
63960W        W 6877  33.688  25.205   5.401  0.1280 -0.0006  0.1358
63961W        W 6878   3.300  28.087   6.196  0.1089  0.0688  0.0672
63962W        W 6879   2.173  28.786   3.255 -0.0883 -0.1188 -0.0549
63963W        W 6880   1.790  24.913   2.435  0.2342  0.1988 -0.0659
63964W        W 6881   1.240  27.762   5.567 -0.0024 -0.1924 -0.2359
63965W        W 6882   0.499  30.126   7.652 -0.1818  0.0493 -0.0733
63966W        W 6883   1.590  28.999   5.400  0.1224 -0.1169  0.4274
63967W        W 6884   1.369  31.000   4.373  0.0281  0.4061  0.2949
63968W        W 6885   2.931  27.577   2.317  0.1594 -0.0702 -0.0081
63969W        W 6886   4.123  26.791   3.040 -0.1678  0.4970 -0.0394
63970W        W 6887   3.980  29.913   7.694 -0.0622 -0.1113  0.1207
63971W        W 6888   1.332  25.278   3.527 -0.1228  0.0751  0.0364
63972W        W 6889   2.558  28.974   4.627  0.2205  0.1989  0.3450
63973W        W 6890   0.645  28.258   3.002  0.1931 -0.1734  0.0501
63974W        W 6891   2.871  27.931   1.717  0.0521 -0.0082  0.2318
63975W        W 6892  33.930  29.554   4.251 -0.1217 -0.0342  0.1023
63976W        W 6893   3.717  28.070   8.528 -0.1134  0.0462  0.0435
63977W        W 6894   5.315  28.039   3.913  0.0340  0.1193  0.0305
63978W        W 6895   4.903  28.797   5.156 -0.2944  0.1425  0.3580
63979W        W 6896   3.815  29.772   5.731  0.1672 -0.2490  0.0086
63980W        W 6897   3.285  28.712   6.963  0.2552  0.2891  0.0205
63981W        W 6898   2.247  27.895   5.068  0.2930  0.2196 -0.0494
63982W        W 6899   4.174  25.805   2.062  0.3521  0.0602 -0.1036
63983W        W 6900   2.793  25.929   6.508 -0.1412 -0.1873 -0.0236
63984W        W 6901   5.076  26.665   4.607 -0.4567 -0.2181  0.0727
63985W        W 6902   1.241  28.565   6.166 -0.2040 -0.0301 -0.1818
63986W        W 6903   1.658  27.246   1.776 -0.0083 -0.6829  0.2654
63987W        W 6904   2.512  27.347   4.248  0.0776  0.0031  0.0154
63988W        W 6905   1.440  27.283   5.642  0.1699 -0.4272 -0.2480
63989W        W 6906   3.977  26.306   2.967  0.1793 -0.1455  0.1466
63990W        W 6907   2.397  26.779   1.454  0.1221  0.1119  0.0893
63991W        W 6908   3.267  27.708   6.573  0.4053  0.1673  0.0159
63992W        W 6909   2.920  28.776   4.927  0.0067  0.2428  0.0821
63993W        W 6910   2.832  29.079   5.759  0.0830  0.1146 -0.0618
63994W        W 6911   1.815  29.323   5.756  0.1762  0.2029 -0.1613
63995W        W 6912   1.030  26.644   3.569  0.3078 -0.3507  0.0152
63996W        W 6913   5.006  27.667   6.780 -0.1202  0.3248  0.0684
63997W        W 6914   0.907  26.945   6.651  0.0105 -0.0157  0.0715
63998W        W 6915   3.604  26.404   7.305  0.0493 -0.3020  0.1259
63999W        W 6916   0.936  26.952   5.420 -0.0781 -0.0465  0.0104
64000W        W 6917   3.964  26.935   4.298 -0.2532 -0.2933  0.2233
64001W        W 6918   1.288  29.633   6.555 -0.0323 -0.2038  0.0781
64002W        W 6919   1.105  28.717   5.115 -0.1758 -0.3467  0.1773
64003W        W 6920   3.790  27.557   4.006  0.0267  0.1916 -0.2576
64004W        W 6921   4.728  28.951   6.240  0.0042 -0.1183 -0.2158
64005W        W 6922   2.738  26.361   1.687 -0.1196  0.1669  0.1213
64006W        W 6923   2.690  29.872   7.647  0.0053  0.1975 -0.0914
64007W        W 6924   0.417  26.382   4.869 -0.2457  0.2099 -0.1099
64008W        W 6925   2.278  26.928   3.556 -0.0737 -0.0407 -0.0168
64009W        W 6926   1.782  26.862   3.695  0.1129  0.4850 -0.0965
64010W        W 6927   0.863  27.632   4.502 -0.0266 -0.3234  0.1102
64011W        W 6928   2.852  28.383   8.412  0.2609  0.2860  0.0693
64012W        W 6929  34.140  25.625   4.232  0.0707  0.0568 -0.2672
64013W        W 6930   4.983  27.744   3.552  0.2704  0.3018 -0.0033
64014W        W 6931   3.561  27.476   6.096 -0.0873  0.0252 -0.0449
64015W        W 6932   1.840  27.415   3.038  0.0884  0.0198 -0.1766
64016W        W 6933   4.306  27.291   4.198  0.1127  0.1067 -0.1604
64017W        W 6934   2.785  30.728   6.894  0.0067 -0.2213  0.3508
64018W        W 6935  33.969  28.696   3.923 -0.0518 -0.0322  0.0908
64019W        W 6936   2.469  28.523   7.499 -0.1986  0.2032  0.2472
64020W        W 6937   3.272  30.296   6.085  0.1432 -0.3656 -0.0978
64021W        W 6938   3.620  26.549   4.493  0.1123 -0.0529  0.0856
64022W        W 6939  34.548  27.340   4.867 -0.0834  0.1291 -0.2097
64023W        W 6940   1.033  28.539   4.643 -0.2015  0.0665  0.1119
64024W        W 6941   4.210  26.741   3.892 -0.0907  0.1022  0.0966
64025W        W 6942   3.564  25.342   5.332  0.4609  0.1102  0.1881
64026W        W 6943   0.917  28.965   1.895  0.1573 -0.1645  0.2829
64027W        W 6944   4.339  25.180   7.086  0.0509  0.0849 -0.1702
64028W        W 6945   2.725  29.505   7.970  0.0788  0.0635 -0.0908
64029W        W 6946   2.664  27.996   8.057 -0.0468  0.1951  0.1134
64030W        W 6947  33.247  25.088   3.618  0.0676  0.2648  0.2414
64031W        W 6948   3.590  26.917   7.439 -0.2559 -0.1980 -0.1116
64032W        W 6949   2.464  29.644   6.309  0.1850 -0.1207 -0.2991
64033W        W 6950   2.056  27.880   3.666 -0.4091 -0.3991 -0.0614
64034W        W 6951   3.177  28.186   5.315  0.3354 -0.0121 -0.0113
64035W        W 6952   1.751  26.480   1.933 -0.2475 -0.1523 -0.0775
64036W        W 6953   4.661  27.965   6.540 -0.1573 -0.1447  0.1477
64037W        W 6954   1.590  26.800   4.544  0.1386 -0.0675 -0.0936
64038W        W 6955   4.702  26.436   3.694 -0.2592 -0.2270 -0.0228
64039W        W 6956   2.365  25.337   3.644 -0.1916 -0.2292  0.1057
64040W        W 6957   1.118  28.792   6.643 -0.0161  0.1478 -0.1628
64041W        W 6958  33.921  27.564   2.803  0.1001 -0.1985 -0.1575
64042W        W 6959   2.400  27.391   5.249 -0.0400 -0.0656  0.0519
64043W        W 6960   2.808  28.667   5.432  0.2449 -0.2266  0.3186
64044W        W 6961   2.576  24.569   9.411 -0.1159 -0.0084  0.1024
64045W        W 6962   0.773  27.398   6.468  0.0312  0.1041 -0.0783
64046W        W 6963   2.909  29.962   6.269 -0.0393 -0.0435 -0.0696
64047W        W 6964  33.726  28.418   4.309  0.0505  0.2574  0.0044
64048W        W 6965   4.470  28.190   4.645 -0.0270  0.3195  0.1165
64049W        W 6966   0.752  26.200   4.558  0.2604  0.1864  0.0667
64050W        W 6967  34.545  25.196   4.334 -0.2237 -0.4385 -0.1295
64051W        W 6968   3.411  27.362   2.434 -0.1702 -0.0651 -0.0295
64052W        W 6969   6.290  27.152   3.189 -0.1357  0.4261 -0.1004
64053W        W 6970   2.433  25.838   4.305 -0.1204  0.0790  0.1929
64054W        W 6971   4.554  28.413   7.023  0.0604  0.0797 -0.0075
64055W        W 6972   1.644  28.598   4.008  0.1822  0.1327  0.0902
64056W        W 6973   3.185  26.653   6.997  0.2801  0.1800  0.0992
64057W        W 6974   2.749  28.053   7.474  0.0597 -0.2516  0.1957
64058W        W 6975   2.795  27.756   4.120  0.2314 -0.1756  0.1364
64059W        W 6976   2.026  27.245   5.477 -0.2502 -0.1032  0.0725
64060W        W 6977   2.677  28.453   4.487 -0.0844 -0.0365 -0.1625
64061W        W 6978   4.328  29.436   4.558  0.1896 -0.3966 -0.0838
64062W        W 6979   2.960  27.874   5.790  0.0930 -0.1699  0.1615
64063W        W 6980   1.613  28.459   7.284 -0.0136 -0.1246  0.2290
64064W        W 6981   0.936  25.741   8.340 -0.2467 -0.1502 -0.3175
64065W        W 6982   3.050  27.555   3.303 -0.0090  0.0712 -0.2576
64066W        W 6983   2.238  28.663   6.906  0.3318  0.0983 -0.1247
64067W        W 6984   3.981  27.651   3.487 -0.1599  0.0476 -0.2226
64068W        W 6985   4.184  27.753   6.282 -0.3529 -0.1078  0.1352
64069W        W 6986   2.913  27.024   4.774 -0.0069  0.3121  0.1071
64070W        W 6987   2.317  27.650   6.668 -0.0098  0.0222  0.1144
64071W        W 6988  34.406  28.500   4.938  0.0016  0.1555  0.0072
64072W        W 6989   3.875  28.531   5.296 -0.2710  0.1191  0.1493
64073W        W 6990   3.738  26.705   6.507 -0.3251 -0.1365 -0.1505
64074W        W 6991   3.503  27.476   3.025  0.1577  0.2104  0.0937
64075W        W 6992   3.877  29.003   3.467 -0.3728  0.0767  0.1011
64076W        W 6993   2.748  28.319   6.900  0.0629  0.3162  0.1614
64077W        W 6994   1.511  28.216   1.568 -0.0379 -0.0559  0.0419
64078W        W 6995   2.707  28.703   6.525 -0.1527  0.2602  0.3025
64079W        W 6996   2.794  29.594   5.726 -0.1572 -0.1998  0.1414
64080W        W 6997   3.728  26.638   8.151 -0.1119 -0.1211  0.0859
64081W        W 6998   1.953  28.270   3.283  0.2138  0.0499  0.1502
64082W        W 6999   3.771  27.101   2.729 -0.1004  0.0056  0.1157
64083W        W 7000   3.085  30.708   5.160  0.1001  0.0334  0.0874
64084W        W 7001   4.175  28.316   8.465 -0.0053 -0.2545  0.0787
64085W        W 7002   1.084  29.834   5.424 -0.3806  0.3027  0.0823
64086W        W 7003   3.384  27.267   4.939  0.3259  0.0625  0.0436
64087W        W 7004  34.604  26.204   6.212  0.1664  0.0896 -0.2311
64088W        W 7005   1.392  26.824   2.579  0.4503 -0.0032 -0.1657
64089W        W 7006   2.050  27.611   2.578  0.2642 -0.1406 -0.0146
64090W        W 7007   3.486  26.581   6.064 -0.0320 -0.0013 -0.1013
64091W        W 7008   1.557  25.984   3.984 -0.2801  0.1811  0.2145
64092W        W 7009   3.265  27.449   4.079 -0.2568  0.1858 -0.3987
64093W        W 7010   3.071  29.614   7.502  0.1096  0.0490 -0.0376
64094W        W 7011   4.415  28.603   5.307  0.1819  0.2621  0.3351
64095W        W 7012   1.279  28.087   9.214 -0.1761 -0.3019 -0.3574
64096W        W 7013   2.652  27.056   7.756 -0.2440 -0.2262  0.0245
64097W        W 7014   4.413  27.290   7.182 -0.1920 -0.0796  0.0138
64098W        W 7015   3.448  29.484   7.995  0.2631 -0.0453  0.4323
64099W        W 7016   0.723  27.039   7.411  0.0779 -0.0993 -0.1600
64100W        W 7017   3.612  29.578   9.209 -0.0597 -0.1012 -0.2750
64101W        W 7018   3.572  29.042   9.565  0.2142 -0.1228 -0.0928
64102W        W 7019   5.710  28.344  10.945 -0.1716 -0.2411 -0.1275
64103W        W 7020   2.097  26.927   6.280  0.0358 -0.2888 -0.0332
64104W        W 7021  34.138  25.583   9.240  0.0142 -0.0169  0.1678
64105W        W 7022   1.447  25.034   7.035  0.1467 -0.1654 -0.1497
64106W        W 7023  33.898  26.040   9.068  0.0483  0.2177 -0.0157
64107W        W 7024   2.995  26.207   9.763  0.0127 -0.0047 -0.2866
64108W        W 7025   2.835  27.785   8.558  0.0915  0.0979 -0.0446
64109W        W 7026   2.254  28.179   9.105  0.0622  0.1747  0.0159
64110W        W 7027   1.207  25.010   8.878  0.1773 -0.0651  0.1151
64111W        W 7028   3.733  28.949  10.113  0.1274  0.1920 -0.2934
64112W        W 7029   1.230  27.247   9.667 -0.2409  0.0243 -0.0494
64113W        W 7030   0.926  28.443   7.045 -0.0957 -0.2801 -0.1488
64114W        W 7031   2.548  27.370   7.029  0.0371  0.3833 -0.0875
64115W        W 7032   0.988  30.197  10.154  0.0387  0.1027 -0.1941
64116W        W 7033   1.253  27.303   8.616 -0.1639  0.1728 -0.1092
64117W        W 7034   4.317  24.565   8.502 -0.0709 -0.1286 -0.0704
64118W        W 7035   3.897  28.581  10.448 -0.0947 -0.2389  0.2973
64119W        W 7036   1.136  28.021   7.843  0.2736  0.0364  0.0226
64120W        W 7037   3.150  27.034   8.956 -0.0986  0.0179  0.0336
64121W        W 7038   0.425  26.176   6.301  0.0502 -0.1433  0.1087
64122W        W 7039   1.242  29.761   7.646  0.3656 -0.0770 -0.2037
64123W        W 7040   1.382  28.222   6.840 -0.0043 -0.0667  0.2667
64124W        W 7041   3.862  30.379   7.899 -0.1161  0.0779  0.2486
64125W        W 7042  34.124  28.046   5.017 -0.0079  0.1440 -0.0451
64126W        W 7043   3.670  28.345  10.029  0.0999  0.0994  0.1614
64127W        W 7044   4.145  27.710   6.794 -0.0408  0.0760  0.0646
64128W        W 7045   2.220  28.736   6.434 -0.0275  0.0418  0.0340
64129W        W 7046   1.755  29.114   8.009 -0.1596 -0.3884 -0.1694
64130W        W 7047   4.295  25.904   9.505 -0.0044  0.0707 -0.1125
64131W        W 7048   0.674  29.667   7.923 -0.0172 -0.1392 -0.0780
64132W        W 7049   4.725  27.765   7.536  0.0768  0.0988  0.0739
64133W        W 7050   0.054  26.755   4.903 -0.0740  0.1270 -0.0921
64134W        W 7051   3.729  27.159   8.000  0.5247 -0.3726  0.0863
64135W        W 7052  34.294  25.070   8.103  0.1148 -0.3168 -0.0199
64136W        W 7053   1.900  28.292   7.707 -0.0257  0.1979 -0.0942
64137W        W 7054   1.382  27.148   8.180  0.0418  0.3915  0.0209
64138W        W 7055   3.246  28.037   8.709  0.1294  0.1488 -0.0911
64139W        W 7056   1.648  25.206   9.605 -0.0099  0.0536  0.0223
64140W        W 7057   0.169  28.194   9.539  0.0389 -0.2084 -0.1830
64141W        W 7058  33.157  27.837   9.020 -0.0166  0.3182  0.0028
64142W        W 7059   2.945  28.897   8.090 -0.2263  0.1753  0.0017
64143W        W 7060   3.472  28.399   7.766  0.0336 -0.1323 -0.0428
64144W        W 7061   3.978  27.587   5.853  0.2764  0.0522 -0.1431
64145W        W 7062   0.707  26.585   5.719  0.0007  0.2512 -0.0664
64146W        W 7063   2.152  25.623   7.754  0.4657  0.1807 -0.2712
64147W        W 7064   2.628  25.010   8.327 -0.0013 -0.2997  0.1940
64148W        W 7065   3.568  28.518  11.701 -0.1626  0.3187 -0.2856
64149W        W 7066   1.576  29.287   9.479 -0.3023  0.1681  0.1685
64150W        W 7067   3.756  27.460   6.592 -0.1188  0.1171 -0.3585
64151W        W 7068   2.199  24.977   9.336  0.0504 -0.3157 -0.1907
64152W        W 7069   1.427  24.750   9.366 -0.0276  0.0280  0.1700
64153W        W 7070   1.113  28.404   7.515 -0.1037  0.0511 -0.0616
64154W        W 7071   1.015  28.025   8.359 -0.0332 -0.0900 -0.0853
64155W        W 7072   6.667  26.664   9.399 -0.1359 -0.0748 -0.0044
64156W        W 7073   1.918  26.857   9.143  0.2706 -0.3345 -0.1386
64157W        W 7074   1.252  26.062   8.739  0.1504 -0.0922  0.1062
64158W        W 7075   1.839  30.438   6.249  0.0297  0.0848  0.1349
64159W        W 7076   0.881  28.828   8.247 -0.2290 -0.0279  0.1390
64160W        W 7077   0.504  28.464   6.650 -0.0299  0.0378  0.1502
64161W        W 7078   0.692  24.866   7.920  0.0703 -0.1282  0.1846
64162W        W 7079   0.652  26.365   8.476  0.2678  0.0822  0.1183
64163W        W 7080   3.208  26.701   8.547  0.2635  0.3020 -0.2723
64164W        W 7081   3.513  25.449   8.749  0.1200  0.2002  0.1438
64165W        W 7082   1.520  27.490   7.278  0.0430 -0.0722 -0.0271
64166W        W 7083   3.583  27.801   6.902  0.0918 -0.0623 -0.0283
64167W        W 7084   3.972  27.112   8.457  0.2245 -0.3865 -0.3203
64168W        W 7085   3.171  26.716   7.526  0.2028 -0.0754  0.0695
64169W        W 7086  34.521  27.710   9.128 -0.0313  0.1289 -0.2398
64170W        W 7087   0.815  27.016   8.513 -0.0396  0.2733  0.2313
64171W        W 7088   1.587  23.674   6.551 -0.0240 -0.2122 -0.0886
64172W        W 7089   2.054  26.100   7.632  0.0242 -0.2233  0.0154
64173W        W 7090   3.931  25.716   7.948 -0.1493 -0.1675  0.1033
64174W        W 7091   2.428  27.301   6.343  0.1166  0.0198 -0.1387
64175W        W 7092  34.423  28.901   6.625  0.0222  0.1326 -0.0844
64176W        W 7093   3.296  27.709  10.264  0.2309  0.2969  0.0905
64177W        W 7094   3.768  29.735   9.723 -0.0777  0.1200  0.1246
64178W        W 7095   2.421  28.503   8.747 -0.1096  0.0874  0.2475
64179W        W 7096   1.909  26.567   8.659 -0.3710  0.2187 -0.0275
64180W        W 7097   2.254  26.440   6.148  0.0888  0.0344  0.2571
64181W        W 7098   4.882  28.734  11.079 -0.3076 -0.2785 -0.0403
64182W        W 7099   1.377  26.830   8.635 -0.0738 -0.2225 -0.0557
64183W        W 7100   3.671  27.267   8.930  0.0227  0.1515  0.0551
64184W        W 7101   3.455  27.736   7.921 -0.1049  0.0182 -0.2988
64185W        W 7102   2.111  28.758   7.893 -0.0280  0.0608  0.0236
64186W        W 7103   2.839  27.607   9.015 -0.1091  0.2868 -0.1656
64187W        W 7104   3.400  25.968   8.884  0.1296 -0.0933  0.2136
64188W        W 7105  34.051  26.347   6.351  0.2666 -0.1687 -0.2547
64189W        W 7106   5.071  27.918   9.450 -0.3349  0.0366 -0.0788
64190W        W 7107   0.861  29.836   6.276  0.1484  0.3822 -0.0632
64191W        W 7108  34.012  25.987   9.671 -0.0659  0.0023 -0.0026
64192W        W 7109   1.540  29.554   8.000 -0.0503  0.0922  0.1570
64193W        W 7110   3.312  26.575   9.590  0.1930  0.0718 -0.2490
64194W        W 7111   2.256  27.384   7.709 -0.1703  0.1145  0.0588
64195W        W 7112   3.930  27.332   7.104 -0.0796 -0.0298 -0.0473
64196W        W 7113   4.714  28.306   8.785  0.0586 -0.0624 -0.1382
64197W        W 7114   4.282  26.090   6.552  0.1779  0.1975 -0.0941
64198W        W 7115   2.388  26.019   6.797 -0.1014 -0.1653  0.2938
64199W        W 7116   0.901  26.725   9.246  0.0722 -0.1075 -0.2653
64200W        W 7117   0.070  27.486   9.559  0.0397 -0.0149 -0.0695
64201W        W 7118   2.690  26.257   8.310 -0.1063  0.1192  0.0605
64202W        W 7119   3.293  28.851   8.440 -0.1265 -0.0127  0.0709
64203W        W 7120   1.155  26.618   9.697 -0.0058 -0.0479  0.1203
64204W        W 7121   3.137  28.750   9.655  0.0822  0.1595  0.0402
64205W        W 7122   1.814  24.942   9.022 -0.2125 -0.2082 -0.0109
64206W        W 7123   2.052  28.896   5.944 -0.1468  0.1627 -0.2936
64207W        W 7124   1.352  24.301   8.462 -0.4326  0.3766  0.3473
64208W        W 7125   0.867  28.842   5.837 -0.1687  0.0445  0.1034
64209W        W 7126   3.574  25.581   9.237  0.3697  0.2118  0.0116
64210W        W 7127   1.167  29.354   9.102 -0.3543 -0.3287 -0.1678
64211W        W 7128   5.947  28.412   8.818  0.3209 -0.0431 -0.2870
64212W        W 7129   3.536  30.828   9.906  0.2109 -0.1264  0.0350
64213W        W 7130   1.665  27.162   7.680  0.0338  0.0924 -0.1170
64214W        W 7131   1.152  25.589   8.866  0.1753 -0.1467  0.0880
64215W        W 7132   0.379  27.681   9.177  0.0931 -0.3238 -0.0359
64216W        W 7133   4.062  26.988   9.328  0.0282  0.1217  0.0121
64217W        W 7134   2.651  27.589   7.446 -0.0521  0.1645 -0.0633
64218W        W 7135   1.837  28.034   8.183  0.0423 -0.2732  0.0088
64219W        W 7136   3.242  27.259   7.773  0.1114  0.1231  0.3232
64220W        W 7137   0.696  25.949   8.746  0.1237  0.0209  0.2583
64221W        W 7138   5.813  27.801  10.085  0.3210  0.0374  0.1577
64222W        W 7139   0.484  29.681   7.442  0.0847 -0.2710  0.1667
64223W        W 7140   5.268  26.491   9.342 -0.1402 -0.1635  0.1254
64224W        W 7141  33.438  30.228   9.636  0.1066  0.0374 -0.1634
64225W        W 7142   3.741  26.286   8.593 -0.1569 -0.0419  0.0970
64226W        W 7143   0.149  28.153   8.463  0.2726 -0.1881  0.0405
64227W        W 7144   1.620  26.078   9.461  0.0018 -0.2834 -0.0756
64228W        W 7145   0.498  28.517   5.718  0.3022  0.1291 -0.2629
64229W        W 7146   4.229  24.135   8.855 -0.2403 -0.5131  0.3440
64230W        W 7147   3.645  27.477   7.527 -0.3558 -0.0535 -0.0602
64231W        W 7148   0.040  24.541   8.604  0.0885 -0.0268  0.2261
64232W        W 7149   2.396  27.458   8.644  0.1680 -0.2290  0.1392
64233W        W 7150   0.856  27.679   9.275  0.2804 -0.4398  0.0154
64234W        W 7151   3.480  26.350   6.785 -0.0363  0.1756 -0.2258
64235W        W 7152   0.546  27.118   5.628  0.0246 -0.0542  0.2224
64236W        W 7153   5.881  27.314  10.454 -0.1066  0.6136  0.3344
64237W        W 7154   2.309  26.603   9.038 -0.1238  0.0601 -0.0488
64238W        W 7155  34.643  29.009   8.546  0.1404 -0.3269  0.2741
64239W        W 7156   0.296  29.957   9.467  0.0298 -0.0322 -0.0055
64240W        W 7157   1.320  28.372   9.615 -0.0385  0.0495 -0.0771
64241W        W 7158   2.726  28.196   8.971  0.2169 -0.2603 -0.0136
64242W        W 7159   4.086  28.022  10.123 -0.3347 -0.1930 -0.0420
64243W        W 7160   3.246  25.059   9.668 -0.0484  0.5617  0.0916
64244W        W 7161   1.585  24.832   8.588  0.5705 -0.2303  0.1245
64245W        W 7162   3.197  25.072   6.688  0.1076  0.3502 -0.3186
64246W        W 7163   4.340  27.779   9.694  0.0785  0.1333  0.2531
64247W        W 7164   2.375  24.732   8.915  0.1708 -0.1190 -0.1543
64248W        W 7165  34.421  25.382   9.731  0.1487 -0.0922 -0.0098
64249W        W 7166   5.524  29.977   6.716 -0.2431  0.2693  0.1486
64250W        W 7167   2.592  26.181   7.527  0.0093 -0.1299 -0.0792
64251W        W 7168   2.307  26.969   8.704  0.0839  0.1404  0.4059
64252W        W 7169   0.130  27.851   7.481 -0.3506 -0.0923 -0.0300
64253W        W 7170   0.840  28.623   9.642  0.2590 -0.4112 -0.3018
64254W        W 7171  34.004  26.742   9.570  0.0246  0.1206 -0.1600
64255W        W 7172   1.489  28.133   6.371 -0.0079  0.1113  0.0709
64256W        W 7173   0.890  27.592   8.788  0.0619  0.0246 -0.1382
64257W        W 7174   4.980  25.307   6.241 -0.0460 -0.2406 -0.0993
64258W        W 7175   3.793  28.847   6.463  0.1701  0.3464  0.2419
64259W        W 7176   1.006  24.832   7.025  0.1243 -0.0265 -0.0719
64260W        W 7177   2.940  27.177   7.331 -0.1800 -0.3146  0.0030
64261W        W 7178   1.453  27.578  12.467 -0.0615 -0.3018 -0.0106
64262W        W 7179   3.159  27.400   8.276 -0.2505 -0.2774 -0.0033
64263W        W 7180   1.658  26.375   9.023  0.0995 -0.2586  0.3383
64264W        W 7181   2.902  26.290   6.890 -0.2310  0.3877 -0.0919
64265W        W 7182   2.852  27.798  10.103 -0.0362  0.0924  0.1867
64266W        W 7183   7.173  27.728  10.155 -0.0145 -0.1708 -0.2949
64267W        W 7184   1.403  26.297   7.332 -0.0966  0.4114 -0.0184
64268W        W 7185   4.790  26.513   9.538 -0.0998 -0.1365  0.1167
64269W        W 7186   0.568  27.255   8.946 -0.2053  0.0925 -0.0026
64270W        W 7187   3.741  26.925   9.967 -0.3571  0.1621  0.2280
64271W        W 7188   3.175  27.977   8.218  0.0526 -0.2600 -0.1002
64272W        W 7189   1.319  27.590   7.815  0.1323 -0.0760 -0.0797
64273W        W 7190   2.375  29.177  10.053 -0.2507  0.1077  0.3450
64274W        W 7191   3.566  26.057   9.526  0.1333 -0.0948  0.2238
64275W        W 7192   5.134  30.671   9.230  0.0254  0.0038  0.0247
64276W        W 7193   3.664  27.076   5.734 -0.0851  0.0790 -0.2129
64277W        W 7194   5.227  26.803   9.716  0.1597  0.0065  0.2514
64278W        W 7195   3.603  27.489   9.479  0.0606 -0.3795  0.1405
64279W        W 7196   2.594  25.155   7.793 -0.1244  0.2476  0.1171
64280W        W 7197   1.023  27.753   5.114 -0.0883 -0.0287 -0.2523
64281W        W 7198   0.001  26.261   5.101  0.2738 -0.0478 -0.0465
64282W        W 7199   2.350  29.054   8.771 -0.5057 -0.2554 -0.2245
64283W        W 7200   1.543  25.635  10.079 -0.1915 -0.1850  0.1486
64284W        W 7201   4.514  28.077   9.371  0.2992  0.1396 -0.1482
64285W        W 7202   0.161  26.993   8.640  0.3064 -0.1740  0.1568
64286W        W 7203   1.666  27.094   6.128 -0.0724 -0.0284  0.3140
64287W        W 7204   3.141  26.597   6.479 -0.5194 -0.2196  0.0708
64288W        W 7205   4.190  29.348  10.508 -0.2116  0.2300  0.1119
64289W        W 7206   2.640  24.100   8.077 -0.0168 -0.4324  0.0378
64290W        W 7207   2.102  26.923   7.830 -0.0649  0.1692  0.1283
64291W        W 7208   2.219  23.960   8.242 -0.0253  0.1175 -0.0897
64292W        W 7209   2.355  26.318   9.782  0.2894 -0.0144  0.0248
64293W        W 7210   0.709  27.931   7.509  0.2500  0.2324  0.1062
64294W        W 7211   0.486  24.993   9.272 -0.1335 -0.1622 -0.2764
64295W        W 7212   4.585  26.456   7.768  0.3084 -0.0231  0.0152
64296W        W 7213   2.910  26.103   8.792  0.0746  0.0076 -0.0841
64297W        W 7214   2.044  25.777   8.310 -0.1403 -0.2377 -0.3002
64298W        W 7215   2.280  26.915   9.551  0.3205 -0.4181  0.1746
64299W        W 7216   1.259  28.485   8.122 -0.1567 -0.1819  0.0195
64300W        W 7217   2.050  26.322   8.085  0.0053  0.1224 -0.0178
64301W        W 7218   1.610  26.354   8.294 -0.3429 -0.0815 -0.1591
64302W        W 7219   1.709  27.983   7.371  0.1771  0.0503  0.0731
64303W        W 7220   1.602  28.639   8.738  0.4071 -0.0632  0.2666
64304W        W 7221  34.394  28.648   5.431 -0.1877 -0.1534  0.0206
64305W        W 7222   2.775  26.597   7.289 -0.0764 -0.0236 -0.0920
64306W        W 7223   2.315  26.570   7.010  0.3040 -0.0417  0.2504
64307W        W 7224   0.538  29.541   8.985  0.1393 -0.2801 -0.0523
64308W        W 7225   3.850  26.234   7.788  0.3475  0.0922  0.0841
64309W        W 7226   1.792  28.608   9.474 -0.4085 -0.1630  0.0172
64310W        W 7227   0.299  29.637   6.842 -0.1031 -0.3310  0.2796
64311W        W 7228   4.143  28.189   9.036  0.1545 -0.1746  0.2574
64312W        W 7229   1.407  28.975   8.404 -0.1555 -0.0051 -0.2074
64313W        W 7230   4.177  28.014   7.683  0.0568  0.2253 -0.3150
64314W        W 7231   3.898  26.021   9.158  0.0380 -0.0179 -0.2821
64315W        W 7232   5.239  27.047   7.841  0.0359  0.0763 -0.1373
64316W        W 7233   2.562  25.850   9.500 -0.2259 -0.1400 -0.0103
64317W        W 7234   1.824  27.421   6.699  0.1801  0.1643  0.0351
64318W        W 7235   3.792  30.873   8.022 -0.0456 -0.0847  0.0294
64319W        W 7236   3.029  27.727   7.734 -0.0729 -0.1250  0.2790
64320W        W 7237   2.361  27.911   7.092  0.0697  0.1810  0.0377
64321W        W 7238   2.167  25.334   9.805  0.0126 -0.0657 -0.0238
64322W        W 7239   0.787  27.275   4.991 -0.2754  0.0632  0.0094
64323W        W 7240   2.697  25.079   9.708  0.0195  0.0895 -0.1977
64324W        W 7241   2.428  29.412   7.523 -0.2392  0.0658 -0.0807
64325W        W 7242   1.078  29.036   8.736  0.1156  0.2554 -0.1177
64326W        W 7243   3.166  28.870  12.291  0.0764 -0.1494  0.0603
64327W        W 7244  34.246  27.873   7.328  0.2016 -0.2197  0.1572
64328W        W 7245   4.694  26.822   9.990  0.0313  0.1603  0.1121
64329W        W 7246   2.389  27.723   9.075 -0.1326  0.2899 -0.0776
64330W        W 7247   0.399  25.453   8.564 -0.1526  0.1893  0.0909
64331W        W 7248   3.282  27.560   8.845 -0.0790 -0.3500 -0.4583
64332W        W 7249   5.129  27.328  11.159 -0.0569  0.0006  0.3621
64333W        W 7250  34.537  26.100   9.011  0.0068  0.2146 -0.0735
64334W        W 7251   2.767  23.323   8.368  0.0449  0.1103 -0.1822
64335W        W 7252   2.786  26.855   8.302 -0.1392  0.0042  0.0213
64336W        W 7253   1.932  27.104   7.163 -0.3854  0.1219 -0.0926
64337W        W 7254   1.761  25.087   6.658 -0.2221 -0.1690  0.1827
64338W        W 7255   2.416  26.511   7.789 -0.0294 -0.1411 -0.0876
64339W        W 7256   4.854  27.467   9.713  0.2233 -0.1724 -0.0331
64340W        W 7257   1.560  25.198   6.221  0.1942  0.1460  0.0874
64341W        W 7258   3.114  31.387   7.946 -0.1350  0.0638  0.2671
64342W        W 7259   4.080  25.550   8.939  0.1083  0.0649 -0.1618
64343W        W 7260   1.602  28.730   6.874  0.4167  0.1904 -0.0097
64344W        W 7261   2.982  29.186   9.516  0.2013  0.0625 -0.0157
64345W        W 7262   2.437  28.985   8.283 -0.0708  0.0247  0.0305
64346W        W 7263   0.651  26.311   9.452 -0.2261  0.0672  0.2886
64347W        W 7264   4.589  28.966  11.643 -0.1295  0.0238  0.2294
64348W        W 7265   5.470  26.928  10.094  0.3400 -0.0974  0.1879
64349W        W 7266   2.460  23.923   7.625  0.1302  0.1207 -0.1415
64350W        W 7267   0.775  28.472   7.910 -0.2677  0.5133 -0.0957
64351W        W 7268   1.583  28.132   5.496 -0.0449  0.1122 -0.0593
64352W        W 7269   4.371  25.223   9.863  0.0599 -0.1855  0.3131
64353W        W 7270   2.378  26.616   8.251 -0.1452 -0.1151 -0.1487
64354W        W 7271   1.467  28.186   8.517 -0.0694  0.0775  0.1768
64355W        W 7272   0.459  27.629   5.458 -0.4473 -0.0990  0.3634
64356W        W 7273   2.999  28.850  10.936  0.1919  0.1806 -0.0444
64357W        W 7274   2.629  31.088  11.051  0.0625 -0.1095  0.3016
64358W        W 7275   6.594  28.130   8.690  0.1513  0.1841 -0.1949
64359W        W 7276   3.394  26.377   7.755  0.3503 -0.0475  0.0043
64360W        W 7277   8.083  29.611  10.516  0.0062  0.1823  0.0180
64361W        W 7278   2.312  27.141   8.236 -0.0633 -0.3591  0.0507
64362W        W 7279   4.147  26.674   8.962  0.0259  0.1262 -0.0365
64363W        W 7280   1.857  25.878   8.813  0.0856  0.0914  0.1829
64364W        W 7281   0.742  26.659   7.762 -0.1999 -0.1279 -0.1762
64365W        W 7282   1.421  27.719   6.902  0.0723  0.1139 -0.3078
64366W        W 7283   0.274  24.683   9.751 -0.2836 -0.2300  0.2834
64367W        W 7284   1.929  27.775   8.611 -0.1284 -0.1103  0.0625
64368W        W 7285   1.162  26.089   5.758 -0.2939 -0.1502  0.0617
64369W        W 7286   1.807  28.576   8.275  0.1713 -0.0747  0.1650
64370W        W 7287   0.446  25.807   8.196  0.4501 -0.0920 -0.0126
64371W        W 7288  34.598  27.565   6.298  0.3783 -0.2154  0.2518
64372W        W 7289   2.818  27.234   8.594  0.0295 -0.0918 -0.1742
64373W        W 7290   3.195  30.410   8.181 -0.3118 -0.5128 -0.0706
64374W        W 7291   1.868  24.473   8.805  0.2156 -0.0863  0.0575
64375W        W 7292   0.559  29.252   7.169 -0.2535 -0.2540 -0.1061
64376W        W 7293   0.193  27.261   5.272  0.2383  0.0420  0.3885
64377W        W 7294   1.781  27.231   9.560 -0.1172 -0.2867 -0.1078
64378W        W 7295   2.741  26.592   8.841 -0.2778 -0.5951  0.0351
64379W        W 7296   3.332  30.817   7.863 -0.0041 -0.2295  0.2782
64380W        W 7297   2.105  27.561   7.226  0.1485  0.1353  0.1532
64381W        W 7298   2.964  26.841   9.905  0.0607 -0.2083  0.0046
64382W        W 7299   4.438  28.579   7.476 -0.0814  0.0744 -0.2001
64383W        W 7300   3.712  26.474   9.166 -0.0166  0.0034 -0.3762
64384W        W 7301   4.018  29.339   8.046  0.1423 -0.0461  0.2715
64385W        W 7302   3.377  24.587   8.479  0.0335  0.2092  0.0197
64386W        W 7303   0.050  26.437   6.985 -0.3232  0.1730 -0.0257
64387W        W 7304   4.092  26.664   8.481 -0.0956  0.0587  0.0959
64388W        W 7305   3.147  28.400   7.344 -0.1967 -0.3448  0.1526
64389W        W 7306   1.214  26.534   7.738  0.0877 -0.2172  0.1263
64390W        W 7307   1.579  26.024   7.819 -0.1465  0.1533 -0.1896
64391W        W 7308   4.426  26.328   9.854 -0.0894  0.2206  0.0041
64392W        W 7309   4.181  26.168   8.824 -0.1345  0.1346 -0.0429
64393W        W 7310   5.602  27.340   8.191 -0.2902 -0.2591 -0.5023
64394W        W 7311   3.182  30.814  10.590  0.1110  0.3282 -0.1040
64395W        W 7312   3.891  29.304  10.992  0.2767  0.0806 -0.1060
64396W        W 7313   1.090  27.909   9.719 -0.2102 -0.0787  0.0101
64397W        W 7314   1.979  25.874   9.758  0.2975 -0.1182  0.0012
64398W        W 7315   2.663  27.461   8.164 -0.2596  0.3564 -0.0937
64399W        W 7316   5.292  25.856   7.629  0.3318  0.2805  0.1129
64400W        W 7317   1.869  27.165   8.676 -0.1649 -0.3783 -0.1111
64401W        W 7318   1.542  26.104   6.857  0.1352 -0.1332  0.2866
64402W        W 7319   3.127  26.206   7.342  0.1626  0.1927  0.2244
64403W        W 7320   6.625  27.249  10.662 -0.0688 -0.1845  0.0147
64404W        W 7321   3.087  25.584   9.042  0.0024 -0.2443  0.1115
64405W        W 7322   2.350  31.282   2.466 -0.1551 -0.2990  0.0671
64406W        W 7323   1.408  30.275   0.271  0.1619  0.3572 -0.2309
64407W        W 7324   4.999  28.188   1.070 -0.0640  0.0324 -0.0556
64408W        W 7325   3.180  30.283  31.786 -0.0928  0.0444 -0.2008
64409W        W 7326  34.259  29.348   1.860 -0.0859  0.0452 -0.1563
64410W        W 7327   4.622  31.472   1.985 -0.0110 -0.3312 -0.3896
64411W        W 7328   1.073  29.125   1.116  0.0761  0.1070  0.0116
64412W        W 7329   3.242  30.325   1.949  0.0397 -0.2759 -0.1637
64413W        W 7330   3.110  32.938   3.531 -0.0843 -0.4035  0.0813
64414W        W 7331   2.203  31.605   1.457  0.0933  0.0165 -0.1920
64415W        W 7332   1.689  27.975   2.751 -0.1408  0.2998 -0.1668
64416W        W 7333   1.791  32.033   2.000  0.0250 -0.2741 -0.0884
64417W        W 7334   4.316  28.004  30.553 -0.1210 -0.0094 -0.2326
64418W        W 7335  34.408  28.212   3.126  0.1169 -0.1206 -0.0875
64419W        W 7336   3.647  29.491   1.729 -0.1218 -0.0261  0.1253
64420W        W 7337   0.380  31.810   0.834  0.3489 -0.0278 -0.3123
64421W        W 7338   2.206  30.062   2.728 -0.0085 -0.0519  0.1179
64422W        W 7339   2.710  30.707   0.218  0.2256  0.3902 -0.2290
64423W        W 7340   3.223  33.012  30.490 -0.0068  0.0565  0.2017
64424W        W 7341   1.334  28.707   1.476 -0.1067 -0.0649 -0.2700
64425W        W 7342   2.923  28.085   2.195  0.0124 -0.2252  0.0966
64426W        W 7343   3.039  31.117   0.895 -0.2708 -0.2578 -0.0535
64427W        W 7344   1.422  33.282  30.905  0.0159 -0.1911 -0.1569
64428W        W 7345   2.362  28.759   1.384 -0.3694 -0.0090  0.0192
64429W        W 7346   2.880  27.351   1.053  0.1834  0.3580 -0.1583
64430W        W 7347   2.903  29.499   0.091 -0.2125 -0.0877  0.0268
64431W        W 7348   3.522  31.150   2.825  0.0142 -0.1549  0.1342
64432W        W 7349   2.549  32.890   2.291  0.5247 -0.2291  0.1819
64433W        W 7350   4.469  31.419   2.538 -0.1485 -0.1308  0.0430
64434W        W 7351   4.425  31.527   3.069 -0.0373  0.4492 -0.1135
64435W        W 7352   2.399  32.612   1.050  0.0874 -0.0021  0.0141
64436W        W 7353   1.847  32.045   0.881 -0.0561  0.0553  0.0108
64437W        W 7354   1.938  31.343   0.043  0.0750  0.0408  0.0892
64438W        W 7355   6.087  31.425   1.752  0.3890 -0.0544 -0.1010
64439W        W 7356   5.121  33.619   1.668  0.2227  0.3030 -0.1780
64440W        W 7357   1.856  31.265   3.678  0.0773 -0.0625  0.1784
64441W        W 7358   0.462  32.451  31.666 -0.1185 -0.0946  0.2310
64442W        W 7359   1.733  33.696   2.930 -0.0159 -0.0880 -0.0741
64443W        W 7360   3.179  32.503   1.534  0.0296  0.1622 -0.0195
64444W        W 7361   2.751  30.872   3.808 -0.0564  0.1893 -0.0358
64445W        W 7362   1.044  30.937   1.563 -0.2263 -0.2161 -0.2021
64446W        W 7363   3.751  32.971   2.260 -0.0410 -0.1380  0.0075
64447W        W 7364   2.578  29.761   0.326  0.2062  0.1251 -0.0624
64448W        W 7365   3.287  32.795  31.946  0.0012 -0.0771 -0.1012
64449W        W 7366   0.251  33.590   0.417 -0.0828  0.2852  0.1972
64450W        W 7367   5.504  29.312   4.579 -0.0569 -0.2118 -0.0849
64451W        W 7368   0.248  33.369  28.849 -0.3410 -0.1582 -0.3020
64452W        W 7369   4.268  30.317  31.171  0.1894  0.0699  0.0603
64453W        W 7370   2.547  30.290   0.506  0.1163 -0.1251 -0.1309
64454W        W 7371   5.253  29.028  30.332 -0.1262 -0.1081 -0.3367
64455W        W 7372   2.673  30.190  31.879 -0.4852 -0.0992  0.2733
64456W        W 7373   2.731  33.182   2.629 -0.2133  0.0514 -0.0993
64457W        W 7374   0.584  30.168   0.283 -0.1210 -0.0140 -0.1865
64458W        W 7375   4.479  29.495   3.096 -0.0226  0.0448 -0.1891
64459W        W 7376   2.177  32.556   1.544 -0.1362  0.0830 -0.1093
64460W        W 7377   2.776  28.567   1.504  0.1391  0.0933  0.0237
64461W        W 7378   1.538  31.680   2.943  0.0408  0.2429  0.0046
64462W        W 7379   2.284  31.769   0.868  0.0760  0.2177  0.0114
64463W        W 7380   4.088  32.300  31.436 -0.0826  0.1754  0.3707
64464W        W 7381   3.896  31.372   0.911 -0.0244  0.1256 -0.0348
64465W        W 7382  33.823  31.038  31.443 -0.0848 -0.0895  0.1650
64466W        W 7383   1.316  30.654   1.012 -0.2699 -0.1374  0.1143
64467W        W 7384   1.867  30.504   2.490  0.1179 -0.0422 -0.1712
64468W        W 7385   0.562  30.703   1.917  0.4601  0.1011  0.1767
64469W        W 7386   1.001  30.608   0.275 -0.1766  0.1207 -0.3241
64470W        W 7387   1.202  31.803   1.440 -0.0915  0.0341 -0.0864
64471W        W 7388   3.644  29.464   0.809 -0.1631  0.0565 -0.1638
64472W        W 7389   1.726  30.439   1.239 -0.3204 -0.1902  0.1618
64473W        W 7390   4.854  30.105   4.093  0.1686 -0.1265 -0.1210
64474W        W 7391   2.655  31.183   0.582 -0.0564  0.3349 -0.1530
64475W        W 7392   2.589  28.523   1.027  0.0201 -0.2669  0.1454
64476W        W 7393   3.720  30.656   2.819  0.1279 -0.2310 -0.2979
64477W        W 7394   2.465  32.340   0.538  0.0706  0.1088  0.1936
64478W        W 7395   2.747  30.967   2.700 -0.4935  0.1399 -0.3407
64479W        W 7396   3.938  31.491   3.273 -0.4515 -0.1185 -0.0607
64480W        W 7397   3.339  31.607   0.864 -0.1937  0.2867 -0.1529
64481W        W 7398   0.355  32.808   1.895 -0.0461 -0.1679 -0.1124
64482W        W 7399   1.982  28.973   0.456 -0.2140 -0.3270 -0.0157
64483W        W 7400   2.496  30.784   1.866  0.2487 -0.4522 -0.2340
64484W        W 7401   1.143  31.829   0.137  0.2855  0.3275  0.2492
64485W        W 7402   1.102  30.347   0.660  0.2545 -0.0682 -0.1583
64486W        W 7403   2.048  30.857  31.668  0.0595  0.0601 -0.4785
64487W        W 7404   0.876  29.307   1.569 -0.2102 -0.1507 -0.1337
64488W        W 7405   3.162  31.728   3.445 -0.0903  0.1414 -0.3458
64489W        W 7406   3.676  28.523   1.454 -0.3277  0.1631  0.0021
64490W        W 7407   0.409  31.367   1.164  0.1167 -0.2441 -0.1025
64491W        W 7408   4.205  29.309   1.494  0.2404 -0.1360  0.2131
64492W        W 7409   0.621  33.068  30.632 -0.2222 -0.2895 -0.0478
64493W        W 7410   4.077  31.426   2.207  0.0067  0.0040  0.0395
64494W        W 7411   1.490  29.690  31.366 -0.0747 -0.0315 -0.0647
64495W        W 7412   2.632  31.669   0.484 -0.3090 -0.1954  0.3104
64496W        W 7413   1.503  30.196   3.256 -0.0542 -0.1608 -0.0293
64497W        W 7414   0.519  30.068   1.512 -0.2312 -0.2941  0.2216
64498W        W 7415   1.631  28.918   3.024 -0.1816  0.1307  0.4017
64499W        W 7416   4.147  28.377   1.751 -0.2143 -0.1420 -0.2255
64500W        W 7417   2.989  29.380   2.937 -0.1378  0.1253  0.0176
64501W        W 7418   1.354  29.410   0.761 -0.0254 -0.3698 -0.2188
64502W        W 7419   2.911  28.251   0.755 -0.0833 -0.0770  0.1913
64503W        W 7420   1.539  31.168   2.744 -0.3782  0.1096 -0.3421
64504W        W 7421   2.399  30.533   2.490 -0.0761 -0.0041 -0.0024
64505W        W 7422   3.444  28.931   2.955  0.1255 -0.1081  0.1035
64506W        W 7423   2.208  32.064   2.341 -0.1993 -0.0885 -0.2297
64507W        W 7424   4.922  32.095   0.796  0.2863 -0.2450 -0.0917
64508W        W 7425   4.901  30.815   1.497 -0.1015 -0.1986  0.2888
64509W        W 7426   0.341  29.588   0.678 -0.0381 -0.0940 -0.0504
64510W        W 7427   0.589  28.825  31.486  0.0993 -0.2070 -0.4159
64511W        W 7428   2.109  33.327   2.929  0.1116 -0.2248  0.1597
64512W        W 7429   2.419  32.469   2.004 -0.0011 -0.1271 -0.0702
64513W        W 7430   2.455  31.861   0.042  0.3441 -0.1528 -0.0183
64514W        W 7431   2.869  33.212   2.097  0.2854  0.4143 -0.1588
64515W        W 7432   3.117  30.999   0.405 -0.3160 -0.2346  0.3061
64516W        W 7433   0.680  32.428   1.177 -0.1585  0.0503  0.2307
64517W        W 7434   3.149  29.081   3.333  0.1416 -0.1991  0.0733
64518W        W 7435   3.527  29.407   3.222 -0.3285  0.0815  0.3732
64519W        W 7436   1.755  29.087   2.547 -0.3106  0.1087  0.2074
64520W        W 7437  34.053  31.309  30.395 -0.0852  0.3156 -0.0287
64521W        W 7438   2.294  32.007   1.762 -0.2593  0.0196  0.1552
64522W        W 7439   0.012  30.884   2.483  0.1266 -0.2132 -0.2981
64523W        W 7440   3.231  32.340   2.854  0.2605  0.2090 -0.0836
64524W        W 7441   3.275  29.096   3.990 -0.0603 -0.1909  0.0081
64525W        W 7442  33.393  31.339   2.947 -0.1675  0.2026 -0.0163
64526W        W 7443   2.355  29.697   2.367 -0.1096 -0.2760 -0.2287
64527W        W 7444  34.025  31.542  31.290 -0.4409  0.1846  0.0929
64528W        W 7445   0.845  32.634   1.626 -0.2208  0.3461  0.0719
64529W        W 7446   3.182  29.237   0.953  0.1100  0.2806 -0.0381
64530W        W 7447   3.170  29.345   1.970 -0.0665 -0.0796  0.0251
64531W        W 7448   2.331  31.231   3.877  0.2241  0.4747  0.0436
64532W        W 7449   3.637  32.615   1.832 -0.0702  0.1660  0.0793
64533W        W 7450   2.185  31.227   0.881  0.1941  0.0605 -0.1501
64534W        W 7451   0.736  30.090   1.010  0.1545 -0.2384  0.0911
64535W        W 7452   3.247  30.687   2.584 -0.0017  0.3786  0.0805
64536W        W 7453   2.746  31.777   3.768  0.1870  0.0819  0.1067
64537W        W 7454   1.021  31.426   0.942 -0.0462  0.0107 -0.0787
64538W        W 7455   3.790  30.165   0.232 -0.0102 -0.1714  0.2091
64539W        W 7456   2.792  32.567   2.927  0.0224  0.2228  0.0337
64540W        W 7457   0.510  33.432   0.867  0.0753  0.4508  0.2442
64541W        W 7458   3.517  31.243   3.303  0.2139 -0.0639 -0.4151
64542W        W 7459   1.870  30.698   0.842 -0.0966 -0.2311 -0.1101
64543W        W 7460   4.328  29.005   1.136 -0.0591  0.1701 -0.0711
64544W        W 7461   2.486  30.165  30.945  0.0388  0.0698 -0.1268
64545W        W 7462   1.246  28.478   0.428  0.0965 -0.2322  0.0206
64546W        W 7463   0.601  33.735   0.143  0.2733  0.1434  0.1413
64547W        W 7464   3.831  27.432   1.948 -0.1495  0.2931 -0.2698
64548W        W 7465   3.621  26.817   1.227  0.2429 -0.1470 -0.0958
64549W        W 7466   1.637  27.871   1.229  0.2338  0.1854 -0.0685
64550W        W 7467   3.078  30.788   4.150 -0.2063 -0.1344 -0.0085
64551W        W 7468   2.528  32.437  31.240  0.0321 -0.1383  0.2050
64552W        W 7469   1.858  28.768   1.437  0.0504  0.1362 -0.4497
64553W        W 7470   2.225  31.355  30.750  0.1484  0.0372 -0.2978
64554W        W 7471   2.706  29.891   2.633 -0.1791 -0.1534  0.1469
64555W        W 7472   2.314  31.488   3.462  0.1596 -0.1692 -0.1232
64556W        W 7473   2.828  33.710   3.051  0.0763  0.0001 -0.2657
64557W        W 7474   2.946  30.590   1.703  0.1385 -0.1704 -0.1941
64558W        W 7475   3.932  31.763   1.709 -0.0438 -0.0829 -0.1509
64559W        W 7476   2.305  29.215   2.048 -0.0197 -0.3843  0.2097
64560W        W 7477   1.462  30.689   0.511  0.0237 -0.4287  0.0775
64561W        W 7478   3.433  32.610   0.928  0.1228  0.2373  0.0313
64562W        W 7479   3.236  32.847   0.515 -0.1804  0.0018 -0.1192
64563W        W 7480   0.656  29.616   2.462  0.0248 -0.0246 -0.0029
64564W        W 7481   2.959  32.018   1.537  0.3908  0.2424 -0.0770
64565W        W 7482   1.843  32.659  29.163 -0.0697  0.0616 -0.4316
64566W        W 7483   4.421  30.055   3.107 -0.2644 -0.2329  0.0266
64567W        W 7484   2.658  33.572  31.904 -0.0122 -0.2535 -0.2829
64568W        W 7485   2.726  29.538   3.336 -0.0568  0.2301  0.1163
64569W        W 7486   2.668  33.589   1.822  0.1368 -0.0885  0.2705
64570W        W 7487   1.729  30.648   0.082  0.0901  0.2786 -0.1684
64571W        W 7488  33.369  30.466   1.455  0.1222 -0.2721  0.2408
64572W        W 7489   3.988  29.748   0.521  0.0603  0.0298 -0.2163
64573W        W 7490   5.398  31.466   2.136  0.4411 -0.1187 -0.2295
64574W        W 7491   2.410  29.238   1.525 -0.2202 -0.1328 -0.1792
64575W        W 7492   1.994  29.577   1.336 -0.0401  0.0583 -0.0132
64576W        W 7493  33.772  31.475   0.542 -0.0976 -0.1021 -0.2214
64577W        W 7494   1.943  28.568   2.805 -0.3843  0.0845  0.1477
64578W        W 7495   3.939  29.676   1.325 -0.3310  0.2377 -0.0037
64579W        W 7496   3.882  30.138   2.637 -0.1113  0.4004 -0.2347
64580W        W 7497   4.049  28.493   4.413  0.0933  0.0533  0.1726
64581W        W 7498   0.490  30.899   0.154  0.0623  0.0588 -0.1136
64582W        W 7499   2.511  29.752   1.449  0.1560  0.0441 -0.0677
64583W        W 7500   2.315  30.834   0.600 -0.1001  0.1624  0.1935
64584W        W 7501  33.772  31.252   1.035  0.0903  0.3066 -0.3111
64585W        W 7502   3.497  32.159   3.963  0.1289  0.1143  0.0973
64586W        W 7503   0.759  30.951   1.128 -0.3127  0.0749 -0.2706
64587W        W 7504   1.904  33.112   0.203 -0.2796 -0.1064  0.2051
64588W        W 7505   0.920  30.326   4.618 -0.3092 -0.2337  0.3017
64589W        W 7506   4.988  30.726   3.274 -0.2317  0.1513  0.0288
64590W        W 7507   1.759  31.609   1.153 -0.0649  0.1402 -0.3068
64591W        W 7508   1.357  31.102   0.250  0.2658 -0.1413  0.0533
64592W        W 7509   2.417  28.639   2.795  0.0440  0.2465  0.2010
64593W        W 7510   2.795  31.085   2.176 -0.0873  0.3451  0.5576
64594W        W 7511   4.296  28.411   3.074 -0.3043  0.0128 -0.2095
64595W        W 7512  34.502  31.029   2.926 -0.3505  0.2399 -0.0605
64596W        W 7513   2.098  29.034   1.083 -0.0044 -0.1425  0.4098
64597W        W 7514   5.130  30.745   0.766  0.1488 -0.0619  0.1703
64598W        W 7515   4.815  30.506   6.308 -0.0122  0.1039 -0.1763
64599W        W 7516   1.724  31.606   0.596 -0.0159 -0.0921  0.1112
64600W        W 7517   0.461  32.299   0.680  0.0873 -0.1033 -0.1607
64601W        W 7518   2.908  32.675  31.598 -0.3485 -0.3338  0.1162
64602W        W 7519   2.168  28.809   2.351  0.0753 -0.1944 -0.2987
64603W        W 7520   1.958  32.407   0.528  0.2190 -0.0480  0.4531
64604W        W 7521   1.233  30.426  31.227  0.0259 -0.2951 -0.2852
64605W        W 7522   0.811  31.711   1.910  0.0240  0.1207  0.1534
64606W        W 7523   4.735  29.433   0.075  0.0254 -0.1837 -0.1056
64607W        W 7524   1.083  31.345  31.597  0.1726 -0.0294  0.2485
64608W        W 7525   3.033  28.557   1.992  0.2116  0.2082 -0.3382
64609W        W 7526   5.628  29.500   5.907 -0.0773  0.1174  0.2710
64610W        W 7527   4.706  31.455   1.455 -0.0386  0.2269 -0.1700
64611W        W 7528   6.000  28.770   4.783 -0.2023  0.1923  0.2138
64612W        W 7529   1.649  28.951   0.807  0.1209  0.0527  0.1392
64613W        W 7530   3.318  30.820   2.038  0.1729 -0.0600 -0.1197
64614W        W 7531   0.321  29.983   2.541 -0.4358  0.1781 -0.0693
64615W        W 7532   2.453  33.366   2.245 -0.0590 -0.0068 -0.0852
64616W        W 7533   0.997  30.421   1.333 -0.3107 -0.3045 -0.2659
64617W        W 7534   2.027  29.841   0.316  0.0026 -0.0004 -0.3918
64618W        W 7535   0.616  30.028  31.696 -0.0396  0.0754  0.3955
64619W        W 7536   2.885  30.600   2.262  0.4026 -0.1323  0.1505
64620W        W 7537   3.494  31.144   1.161  0.3841 -0.1099  0.0504
64621W        W 7538   1.802  30.185  31.827  0.0527 -0.0457 -0.4333
64622W        W 7539   3.044  29.793   1.222 -0.0287  0.0623  0.2302
64623W        W 7540   1.430  31.263   1.477 -0.0728  0.2289 -0.1542
64624W        W 7541   3.782  31.455  31.762  0.1347  0.0268  0.1914
64625W        W 7542   1.493  31.428   2.355  0.1775  0.1555  0.0472
64626W        W 7543   1.744  29.843   0.984  0.0415 -0.2659  0.3060
64627W        W 7544   2.341  29.181   2.644 -0.0083  0.1089  0.2459
64628W        W 7545   3.763  28.615   1.985 -0.1707  0.2078  0.3317
64629W        W 7546   1.832  31.045   0.517 -0.3373  0.0934 -0.2492
64630W        W 7547   3.452  28.765   3.657  0.0790 -0.2405 -0.0474
64631W        W 7548   5.221  28.588   6.039  0.0477  0.1767 -0.1338
64632W        W 7549   2.569  28.214   3.583 -0.0792 -0.1192 -0.0383
64633W        W 7550   2.506  29.569   4.527 -0.1523 -0.1212 -0.0416
64634W        W 7551   3.612  31.469   4.143  0.0718  0.0425  0.0397
64635W        W 7552   4.201  28.560  31.937  0.0257 -0.1820 -0.1614
64636W        W 7553   3.751  27.998   1.771 -0.2652 -0.0570 -0.2864
64637W        W 7554   2.668  31.592   1.695  0.2158  0.0724  0.0989
64638W        W 7555   3.024  30.226  30.250 -0.0587  0.1439 -0.2652
64639W        W 7556   0.290  29.428   2.756  0.2261  0.0995  0.2668
64640W        W 7557   4.716  28.103   3.894 -0.2668  0.0588 -0.0641
64641W        W 7558   2.225  30.365   0.914 -0.1095 -0.0979 -0.0873
64642W        W 7559   3.286  28.509   3.120  0.3423  0.0279 -0.1889
64643W        W 7560   2.685  34.469   0.381  0.1494 -0.0692  0.0553
64644W        W 7561   3.061  30.374   3.285  0.2206 -0.0562 -0.0771
64645W        W 7562   2.988  30.024   0.318  0.3492  0.4695  0.1898
64646W        W 7563   0.020  30.739   1.383  0.1488 -0.0849 -0.1313
64647W        W 7564   1.005  31.183   2.461 -0.2759  0.1284 -0.2228
64648W        W 7565  33.719  31.574  31.660  0.2236  0.0263  0.0511
64649W        W 7566   0.605  31.795   0.002  0.0946 -0.0750 -0.2950
64650W        W 7567   4.156  32.095   1.240  0.1374  0.0907  0.0491
64651W        W 7568   4.166  32.395   4.083  0.1072 -0.0474  0.0351
64652W        W 7569   2.801  28.457  31.373  0.2659 -0.1852  0.0986
64653W        W 7570   3.140  28.384   2.631 -0.0657  0.2077 -0.3485
64654W        W 7571   1.791  31.806  31.751  0.0324  0.0362 -0.3410
64655W        W 7572   3.251  28.541  31.632 -0.0609  0.1864 -0.2384
64656W        W 7573   1.910  31.250   1.660  0.0020 -0.1253 -0.0765
64657W        W 7574   3.286  30.760   3.070 -0.1042 -0.0703  0.0311
64658W        W 7575   3.286  32.896   1.967  0.1301 -0.0052 -0.1260
64659W        W 7576   2.572  29.107   3.145  0.3396  0.0208  0.1927
64660W        W 7577   2.367  29.639   2.924 -0.0141  0.4263  0.1506
64661W        W 7578   3.663  30.447   2.339  0.1270  0.2213  0.0838
64662W        W 7579   4.142  31.859   3.904 -0.0579  0.0755  0.1969
64663W        W 7580   3.095  29.720   2.282 -0.0076  0.3635  0.0925
64664W        W 7581   2.723  29.604   1.964 -0.0143  0.0368 -0.1335
64665W        W 7582   3.053  31.218   3.104 -0.1119  0.0583 -0.3845
64666W        W 7583   1.794  31.021   1.232 -0.0578 -0.1735  0.4087
64667W        W 7584   2.532  31.734   2.215  0.0908  0.1139  0.1643
64668W        W 7585  33.506  30.303   2.280 -0.0009 -0.1846  0.3807
64669W        W 7586   2.771  28.348   3.105 -0.1972 -0.0493  0.1448
64670W        W 7587   2.423  30.558   1.366  0.0190 -0.1688  0.1234
64671W        W 7588   2.630  30.157   1.086  0.2126 -0.1934  0.0144
64672W        W 7589   3.361   0.162   1.931  0.0086 -0.1855 -0.2608
64673W        W 7590   0.811  32.584   3.164 -0.1584  0.4260  0.0490
64674W        W 7591   1.395  30.771   2.408  0.0184 -0.1054 -0.1245
64675W        W 7592   2.164  31.923   0.435  0.2352 -0.0462 -0.3717
64676W        W 7593   2.846  31.486   2.685 -0.2147  0.1109  0.1374
64677W        W 7594   4.166  31.902  31.745  0.2917 -0.0399  0.4367
64678W        W 7595   4.090  30.902   1.967  0.0841  0.1023 -0.0038
64679W        W 7596  33.321  30.261  31.712 -0.0088  0.2614  0.1049
64680W        W 7597   1.225  32.704   1.265 -0.2167 -0.0078  0.1400
64681W        W 7598   1.244  31.719  30.836 -0.0776 -0.0311 -0.2363
64682W        W 7599   0.413  31.352  31.844  0.3391  0.0395 -0.2138
64683W        W 7600   2.431  32.497   2.568  0.0902 -0.2467 -0.1198
64684W        W 7601   3.476  31.964   4.888  0.0122  0.2581 -0.1509
64685W        W 7602   4.469  28.997   0.130 -0.3105  0.0052 -0.0875
64686W        W 7603   3.186  29.800   1.745  0.1696 -0.1533 -0.2456
64687W        W 7604   4.006  29.601   2.727  0.0541  0.1832  0.0943
64688W        W 7605   4.200  30.951   2.579  0.1108  0.1742 -0.1007
64689W        W 7606   2.298  28.687   1.869 -0.1299 -0.4446  0.1005
64690W        W 7607   3.654  29.898  31.076  0.0938 -0.0747 -0.1533
64691W        W 7608   4.349  31.378   3.659  0.1368  0.0106 -0.1125
64692W        W 7609   5.392  28.094   3.398  0.1140 -0.1899  0.5920
64693W        W 7610   0.103  32.780   3.802  0.1230 -0.2940 -0.0789
64694W        W 7611   3.232  34.272   0.162 -0.0811 -0.1321 -0.0414
64695W        W 7612   0.070  29.782  30.827  0.1490 -0.0091  0.2884
64696W        W 7613   2.537  32.151   2.924 -0.0110  0.0697 -0.1387
64697W        W 7614   3.482  27.640   3.596 -0.1642  0.1848  0.1300
64698W        W 7615   0.008  33.094   0.693 -0.1998  0.0317  0.2714
64699W        W 7616   4.297  29.963   4.025  0.0213  0.1771  0.0344
64700W        W 7617   1.773  32.492   1.785 -0.0728  0.0478  0.0075
64701W        W 7618   1.720  30.980   3.171  0.0634  0.0179  0.0309
64702W        W 7619   2.193  31.442   0.410 -0.0763  0.0264 -0.1160
64703W        W 7620   0.177  28.861   1.080  0.0192  0.3003 -0.1596
64704W        W 7621   3.398  30.712   0.842  0.1714 -0.2377  0.0407
64705W        W 7622   1.849  29.716   3.093  0.0213 -0.3802 -0.1173
64706W        W 7623   2.472  27.807   2.324  0.2744 -0.3828  0.1870
64707W        W 7624   1.517  30.042   1.464 -0.0775  0.1943 -0.2494
64708W        W 7625   4.127  29.699   1.789 -0.0735  0.0309 -0.0189
64709W        W 7626   4.714  31.156   3.342  0.1761 -0.2327 -0.0775
64710W        W 7627   1.270  29.694   2.468  0.0986 -0.2222 -0.3812
64711W        W 7628   3.309  33.391  31.653  0.1852 -0.0345  0.1691
64712W        W 7629   4.669  30.304   2.425  0.2103  0.0954  0.0082
64713W        W 7630   2.156  29.754   1.816  0.1054 -0.1677 -0.1280
64714W        W 7631   1.460  31.405   3.372 -0.0800  0.1761 -0.2881
64715W        W 7632   2.526  28.738   3.745 -0.0956 -0.0413 -0.0547
64716W        W 7633   3.184  30.703  31.377 -0.1903  0.0571 -0.0920
64717W        W 7634   0.799  31.098   1.999 -0.2572  0.0557  0.1356
64718W        W 7635   2.440  28.186   1.405 -0.1460  0.2445 -0.0081
64719W        W 7636   4.088  30.653   4.274  0.3764 -0.2853  0.2820
64720W        W 7637  34.523  30.321   0.119 -0.0101 -0.1422  0.0448
64721W        W 7638   3.708  32.497  31.121  0.2422 -0.0075 -0.1469
64722W        W 7639   2.993  31.111  31.591  0.2054  0.1163  0.0613
64723W        W 7640   3.167  31.525   1.301  0.0417 -0.0138 -0.1617
64724W        W 7641   4.548  31.082   1.700 -0.1569 -0.3029 -0.2533
64725W        W 7642   2.661  32.615   3.425 -0.0767  0.4554 -0.1090
64726W        W 7643  34.556  30.203   1.550  0.0368  0.2325  0.0027
64727W        W 7644   2.824  32.711   1.887 -0.2156 -0.1808 -0.0697
64728W        W 7645   5.810  31.161   3.658  0.0773 -0.1891  0.1378
64729W        W 7646   1.011  28.420  31.894  0.1385  0.0219 -0.0646
64730W        W 7647   1.054  28.324   1.328 -0.2103  0.2559  0.0948
64731W        W 7648   2.384  32.635  31.731 -0.1423 -0.3075 -0.0937
64732W        W 7649   3.137  27.263   1.925 -0.0083 -0.1368 -0.0552
64733W        W 7650   2.825  29.125   3.741 -0.2108 -0.1478 -0.0478
64734W        W 7651   2.099  32.697  31.244 -0.0893 -0.0272 -0.3115
64735W        W 7652   4.196  30.518   2.304 -0.0426 -0.2841  0.0014
64736W        W 7653   0.083  31.872   2.580  0.1439 -0.2722 -0.1031
64737W        W 7654   2.364  31.287   1.941  0.4345 -0.0180  0.0826
64738W        W 7655   2.486  32.125  31.612 -0.1321  0.0768  0.1059
64739W        W 7656   2.681  28.685   2.391 -0.0551 -0.1736  0.1647
64740W        W 7657   3.097  30.203   2.478  0.1886  0.1110 -0.1097
64741W        W 7658   0.852  33.307   2.006  0.1230 -0.0211 -0.2317
64742W        W 7659   5.273  32.276   3.265 -0.2302 -0.2731 -0.0374
64743W        W 7660   2.443  29.698  31.812 -0.0069  0.2092 -0.1335
64744W        W 7661   4.908  30.529   3.721 -0.1903  0.2670 -0.0369
64745W        W 7662   1.595  29.183   1.243  0.0610 -0.5951  0.1282
64746W        W 7663   3.214  29.486   0.503  0.5030 -0.0163 -0.0169
64747W        W 7664   3.737  27.555  31.734 -0.0387 -0.0001  0.0142
64748W        W 7665   1.209  32.125   2.531 -0.3718 -0.0278  0.0198
64749W        W 7666   0.807  29.624   1.193  0.0750 -0.0095 -0.0379
64750W        W 7667   1.612  29.699  31.940 -0.1445 -0.2551  0.1725
64751W        W 7668   0.628  31.318  31.436 -0.0472 -0.1146  0.0101
64752W        W 7669   1.743  29.904   3.598  0.0881 -0.2233  0.1208
64753W        W 7670  34.607  29.926   2.140  0.0301 -0.1917  0.0263
64754W        W 7671   0.946  29.612   1.974 -0.0744 -0.1466 -0.3494
64755W        W 7672  34.313  31.597  29.501  0.2219  0.0266 -0.0019
64756W        W 7673   3.759  31.551   0.315 -0.1285  0.0911  0.2663
64757W        W 7674   0.476  30.568   1.327 -0.1369 -0.0413  0.2236
64758W        W 7675   1.269  29.510   1.339 -0.1808 -0.0794 -0.1796
64759W        W 7676   4.000  32.066  30.982  0.0988 -0.0195 -0.0836
64760W        W 7677   3.560  31.660   2.981 -0.0224 -0.0056  0.2428
64761W        W 7678  33.502  30.432  30.676 -0.2960 -0.0420  0.0124
64762W        W 7679   4.720  31.912   3.643  0.1426 -0.2711 -0.0604
64763W        W 7680   1.175  31.826  31.372  0.0212 -0.1969 -0.0900
64764W        W 7681   2.459  32.752   5.139 -0.1659  0.3980 -0.1260
64765W        W 7682   3.274  28.264   1.652  0.2214 -0.0501 -0.3391
64766W        W 7683  34.408  30.683   0.647 -0.1117  0.2998 -0.2657
64767W        W 7684   4.076  31.020   3.043  0.1309  0.1551  0.0696
64768W        W 7685   3.335  32.310   2.150  0.0005  0.2822  0.1068
64769W        W 7686   5.361  34.102   0.479  0.0173  0.1766  0.1539
64770W        W 7687   2.074  30.096   2.229  0.1390  0.2527 -0.0646
64771W        W 7688   4.134  32.749   2.042  0.0188  0.1493 -0.0296
64772W        W 7689  34.544  28.890   2.047  0.3230 -0.1600 -0.0614
64773W        W 7690   2.866  32.427   1.001  0.1211  0.2019 -0.1859
64774W        W 7691   3.794  31.179   3.681  0.2679  0.2169 -0.0741
64775W        W 7692   4.541  33.048  31.721  0.1538  0.0157  0.0123
64776W        W 7693   4.200  30.514   0.163 -0.1638 -0.0981  0.1857
64777W        W 7694   1.942  29.765  31.575 -0.1399 -0.3233  0.1958
64778W        W 7695   1.796  27.695   1.683 -0.1183 -0.0137  0.0707
64779W        W 7696   2.760  30.486   2.858 -0.2816  0.1035 -0.1878
64780W        W 7697   4.517  31.576   4.108  0.1099 -0.3869  0.1084
64781W        W 7698  33.613  27.585   0.172 -0.0347 -0.1580  0.1257
64782W        W 7699   2.926  30.537   1.223 -0.1528 -0.1200  0.0433
64783W        W 7700   2.853  32.081   2.538 -0.0978 -0.1056  0.0076
64784W        W 7701   1.458  30.954   1.961  0.1388 -0.0618  0.2393
64785W        W 7702   2.005  30.708   1.585  0.1325 -0.0328 -0.0752
64786W        W 7703   2.090  30.119   3.281  0.4821 -0.4722  0.1818
64787W        W 7704   4.819  32.393   3.399 -0.1040  0.1244  0.1907
64788W        W 7705   3.140  30.721   4.635 -0.0419 -0.1906  0.1272
64789W        W 7706   1.766  31.544  30.792  0.0000 -0.1354 -0.3805
64790W        W 7707   4.283  31.386  31.689 -0.1213  0.0349 -0.3732
64791W        W 7708   2.988  33.211   3.098 -0.2686 -0.0033 -0.1063
64792W        W 7709   4.495  33.955   4.389 -0.0179  0.3486  0.0214
64793W        W 7710   3.427  33.804   2.348  0.1152  0.0527 -0.1376
64794W        W 7711   4.374  30.533   2.749  0.1744  0.2554 -0.2680
64795W        W 7712  32.350  28.110   1.778 -0.1439  0.1413  0.1082
64796W        W 7713   1.086  30.605   2.064  0.2835  0.0609 -0.0349
64797W        W 7714   4.835  30.335   2.939 -0.2647  0.3821 -0.1057
64798W        W 7715   1.818  27.953   2.179 -0.3337  0.0052 -0.2575
64799W        W 7716   3.273  27.787   1.452  0.0519 -0.0928 -0.0781
64800W        W 7717   3.301  29.788  30.239  0.1730 -0.1366  0.2444
64801W        W 7718  34.656   1.114   2.819 -0.0329 -0.0945 -0.0517
64802W        W 7719   2.144  30.091   1.421 -0.3190 -0.2054 -0.0635
64803W        W 7720   1.212  31.125  10.331 -0.1677 -0.1539  0.0894
64804W        W 7721  33.497  29.491   3.059 -0.2350 -0.0367 -0.3132
64805W        W 7722   3.092  29.872   4.700 -0.2695  0.3596  0.0251
64806W        W 7723   4.040  30.134   5.341 -0.1206 -0.1278  0.0391
64807W        W 7724   0.759  29.832   3.837 -0.0278 -0.1082 -0.0030
64808W        W 7725   3.115  31.732   4.269  0.3865 -0.0255  0.0362
64809W        W 7726   1.744  28.001   9.642 -0.0449 -0.0913 -0.1538
64810W        W 7727   4.396  32.375   4.728  0.0964 -0.1144  0.2668
64811W        W 7728   2.870  31.801   5.978 -0.0718 -0.2950  0.1253
64812W        W 7729   2.078  31.548   4.802 -0.0240  0.0553  0.1020
64813W        W 7730   3.638  30.687   7.125  0.3082 -0.0424  0.0323
64814W        W 7731   1.724  30.598   5.792  0.2204 -0.1020 -0.2006
64815W        W 7732   2.910  29.455   4.158  0.1916  0.0241  0.0631
64816W        W 7733   1.891  27.899   6.876  0.1334  0.6012 -0.2594
64817W        W 7734   3.152  30.801   7.336  0.0776  0.2272 -0.1765
64818W        W 7735   0.748  31.620   4.291  0.1626  0.1010 -0.1614
64819W        W 7736   1.014  28.901   4.322 -0.0700  0.2222  0.1647
64820W        W 7737   1.698  30.269   4.806  0.3237 -0.0236  0.0927
64821W        W 7738   1.922  32.368   2.731 -0.1139 -0.0450  0.0092
64822W        W 7739   3.931  30.960   5.632  0.0272 -0.1448  0.0983
64823W        W 7740   2.764  29.409   8.620 -0.0252 -0.0528  0.0372
64824W        W 7741   4.124  30.529   5.620  0.2218  0.0288  0.0580
64825W        W 7742  34.583  30.400   2.240 -0.1356  0.0952 -0.0127
64826W        W 7743   0.837  31.083   5.229  0.1929  0.1155  0.1581
64827W        W 7744   3.042  31.181   7.005 -0.0293  0.0786  0.3222
64828W        W 7745   2.714  29.531   7.122  0.0941 -0.0240 -0.0580
64829W        W 7746   2.621  32.677   6.990 -0.0277 -0.2255 -0.0926
64830W        W 7747   1.753  32.534   6.077 -0.2619 -0.0838  0.1426
64831W        W 7748   3.077  31.624   4.792  0.0749 -0.1837 -0.2377
64832W        W 7749   3.208  33.724   7.843 -0.1292 -0.2104  0.0235
64833W        W 7750   1.077  31.606   3.742  0.1055 -0.0287  0.1966
64834W        W 7751   0.531  30.990   2.405  0.5468 -0.1980  0.0303
64835W        W 7752   2.041  30.601   2.075 -0.0095  0.0074  0.0030
64836W        W 7753   3.236  31.232   3.834  0.2139 -0.1414  0.1390
64837W        W 7754   2.738  32.006   8.307 -0.2128  0.1630  0.1315
64838W        W 7755   1.564  32.098   6.319 -0.2368 -0.0265  0.1047
64839W        W 7756  34.454  31.826   0.249 -0.0094  0.3043  0.0577
64840W        W 7757   2.812  32.260   7.428 -0.3876 -0.1533  0.1099
64841W        W 7758   2.544  32.736   5.946 -0.1283 -0.2067 -0.0891
64842W        W 7759   2.288  31.077   4.818  0.1267 -0.4294  0.4011
64843W        W 7760   2.362  31.827   6.098  0.3053 -0.0450 -0.0372
64844W        W 7761   2.322  32.583   4.637  0.0465  0.1106  0.0012
64845W        W 7762   3.360  31.837   5.773 -0.5745  0.0533 -0.0544
64846W        W 7763   2.952  30.961   8.710 -0.0221 -0.1191  0.2008
64847W        W 7764   0.911  31.946   5.917 -0.1195  0.2238 -0.1846
64848W        W 7765   4.306  29.571   9.494  0.1425  0.1342 -0.1063
64849W        W 7766   0.930  31.196   4.535 -0.1704 -0.1097  0.2060
64850W        W 7767   3.172  29.812   3.178 -0.0841  0.0975 -0.1661
64851W        W 7768   1.365  30.549   4.397 -0.1192 -0.0330  0.2148
64852W        W 7769   6.142  28.650   5.307 -0.1009  0.0571 -0.0166
64853W        W 7770   4.050  30.397   3.081  0.1284 -0.0375  0.2313
64854W        W 7771   2.279  33.487   4.067  0.2653  0.1678  0.2028
64855W        W 7772   2.778  30.395   3.895 -0.1256  0.0206  0.2286
64856W        W 7773   3.368  32.571   7.782 -0.2141  0.0787 -0.0813
64857W        W 7774   2.102  31.059   2.808 -0.2687 -0.2695  0.0769
64858W        W 7775   3.037  32.148   5.069  0.0893  0.1668 -0.1251
64859W        W 7776   1.395  33.372   5.377 -0.2633 -0.0158  0.1663
64860W        W 7777   2.701  30.041   4.279  0.0424  0.1394  0.2673
64861W        W 7778   1.898  31.092   2.194 -0.4053 -0.2881 -0.1537
64862W        W 7779   4.992  32.505   4.884 -0.3315 -0.0916 -0.0318
64863W        W 7780   2.344  31.617   2.823  0.0895  0.2615 -0.0446
64864W        W 7781   1.354  31.959   3.356  0.1401  0.2544 -0.1990
64865W        W 7782  34.592  30.339   7.013  0.2218  0.1853  0.0798
64866W        W 7783   1.604  30.060   7.802  0.0102 -0.2572 -0.0828
64867W        W 7784   3.587  29.346   4.434  0.2281  0.1768  0.1519
64868W        W 7785   3.283  32.347   9.546 -0.2122  0.1278 -0.1043
64869W        W 7786   0.619  32.108   4.926 -0.1198 -0.2633 -0.0518
64870W        W 7787   4.440  30.839   7.454  0.0427 -0.2186  0.2577
64871W        W 7788   1.712  33.185   5.729 -0.0429  0.2757 -0.1387
64872W        W 7789   3.928  31.540   7.034 -0.1282 -0.1082 -0.0913
64873W        W 7790   2.735  30.986   4.597 -0.0024  0.0302  0.3541
64874W        W 7791   2.388  28.239   6.533 -0.2283 -0.2786 -0.0342
64875W        W 7792   3.992  31.056   7.120  0.0410  0.1472  0.1895
64876W        W 7793   1.577  31.662   3.832  0.0358 -0.1664 -0.0552
64877W        W 7794   3.113  30.311   4.389 -0.0092  0.0867 -0.0636
64878W        W 7795   4.135  33.222   6.978  0.0160  0.0346 -0.0084
64879W        W 7796   5.285  30.809   2.696  0.1622 -0.0436  0.3098
64880W        W 7797   0.976  31.700   4.738 -0.2015  0.2512 -0.1132
64881W        W 7798   3.632  31.325   7.979  0.1269  0.2855 -0.3082
64882W        W 7799   1.665  32.725   5.576  0.1073  0.0503  0.0062
64883W        W 7800   0.298  31.685   0.326  0.0903  0.3368 -0.0167
64884W        W 7801  34.084  31.325   3.765 -0.0246 -0.3347  0.4587
64885W        W 7802   0.662  32.261   2.500 -0.1195  0.0508  0.4530
64886W        W 7803   0.214  31.191   5.144  0.3499 -0.0311 -0.0508
64887W        W 7804   2.204  31.333   5.271  0.1746  0.2550 -0.1941
64888W        W 7805   2.656  29.186   6.226 -0.0521 -0.1477 -0.0659
64889W        W 7806   1.693  30.942   7.300 -0.0138 -0.2117 -0.0902
64890W        W 7807   4.841  28.223   7.374 -0.1478 -0.1282  0.0972
64891W        W 7808   2.398  30.146   4.679  0.0904  0.0594  0.1911
64892W        W 7809   2.248  31.700   3.924  0.2013 -0.2120  0.2635
64893W        W 7810   4.203  28.748   4.896 -0.3977 -0.1874  0.1703
64894W        W 7811   3.959  29.658   3.851  0.1167  0.0353 -0.3786
64895W        W 7812   1.044  30.779   4.861 -0.2468  0.1138 -0.1298
64896W        W 7813   0.073  30.850   5.848 -0.3082 -0.2122 -0.0348
64897W        W 7814   0.849  30.502   7.458 -0.2393 -0.1447 -0.0457
64898W        W 7815   0.406  30.692   4.175 -0.0361  0.1248  0.1416
64899W        W 7816   3.007  30.620   9.128  0.4369 -0.0465  0.4013
64900W        W 7817   0.987  31.232   3.334  0.0291  0.1507  0.4072
64901W        W 7818   3.180  31.134   4.968  0.0525 -0.0791 -0.3025
64902W        W 7819   3.636  30.974   4.104 -0.1217  0.1229  0.1823
64903W        W 7820   0.064  30.687   1.893 -0.0481 -0.4591  0.0355
64904W        W 7821   2.270  28.371   8.209  0.1566  0.3137  0.1649
64905W        W 7822   3.486  32.600   2.505  0.0130 -0.3268 -0.4425
64906W        W 7823   4.374  33.171   8.343 -0.1449  0.0554  0.1010
64907W        W 7824   4.163  31.131   4.020  0.1122  0.0077  0.5163
64908W        W 7825   2.856  30.335   4.825 -0.0858 -0.3065  0.5120
64909W        W 7826   0.866  28.033   4.200  0.0708 -0.1944  0.0045
64910W        W 7827   1.878  32.394   4.561 -0.3206 -0.1269  0.0213
64911W        W 7828   2.002  32.546   2.264 -0.0148 -0.1006  0.1021
64912W        W 7829   3.594  30.358   3.405  0.0689  0.1033 -0.0551
64913W        W 7830   4.970  34.236   5.053 -0.1435  0.0726 -0.0632
64914W        W 7831   4.051  31.357   6.568  0.0842  0.0600  0.1025
64915W        W 7832   1.304  31.306   5.453 -0.0864  0.2330  0.1476
64916W        W 7833   3.374  30.104   6.533  0.0667 -0.0998 -0.1565
64917W        W 7834   3.336  31.563   7.531 -0.3569 -0.0666  0.1260
64918W        W 7835   3.074  30.801   5.905  0.0494  0.1657  0.0016
64919W        W 7836   1.651  27.546   3.662 -0.1682 -0.0158  0.0204
64920W        W 7837   4.019  31.807   5.670 -0.0468  0.0025  0.3416
64921W        W 7838   1.844  32.108   1.455  0.1579  0.0544  0.1334
64922W        W 7839  34.489  30.984   1.050 -0.1734  0.1167 -0.3441
64923W        W 7840   3.044  33.138   4.636 -0.1383 -0.1454  0.1105
64924W        W 7841   4.798  29.655   4.896  0.0220 -0.2054 -0.2968
64925W        W 7842   1.353  30.957   6.934  0.3754  0.1008 -0.0046
64926W        W 7843   2.112  31.456   7.886 -0.1228  0.1025 -0.1152
64927W        W 7844   1.731  29.859   4.146 -0.1144  0.1103 -0.1892
64928W        W 7845   1.433  31.487   6.945  0.2904  0.1254 -0.1810
64929W        W 7846   4.258  28.263   4.010  0.0576 -0.1583 -0.1893
64930W        W 7847   3.878  29.161   2.901  0.1471  0.1986  0.4221
64931W        W 7848   1.855  32.462   6.544  0.5391 -0.2200 -0.0156
64932W        W 7849   4.018  31.104   4.583 -0.1230 -0.0719 -0.0204
64933W        W 7850   2.382  30.321   1.789 -0.3623  0.0521 -0.1085
64934W        W 7851   3.147  29.071   4.517  0.2658  0.1798  0.4131
64935W        W 7852   1.398  32.218   6.809  0.1590 -0.0052  0.0219
64936W        W 7853   2.580  31.493   4.659  0.2164  0.0795 -0.1160
64937W        W 7854   2.427  30.830   4.182  0.4409 -0.2008 -0.0129
64938W        W 7855   3.509  29.922   4.419 -0.0837 -0.0438 -0.0568
64939W        W 7856   2.549  32.266   3.835 -0.0796 -0.1741  0.3162
64940W        W 7857   2.781  31.323   6.104  0.1966 -0.4053  0.0157
64941W        W 7858   2.339  31.992   7.411  0.1122  0.0050  0.1863
64942W        W 7859   3.078  31.615   6.389 -0.2784  0.0549  0.2760
64943W        W 7860   1.249  30.800   5.314  0.2140  0.1186  0.2677
64944W        W 7861   3.403  28.261   2.177 -0.0190 -0.1371 -0.1410
64945W        W 7862   3.597  30.803   4.816  0.2001 -0.1706  0.0432
64946W        W 7863   0.306   0.270   2.392 -0.3466  0.1210 -0.0340
64947W        W 7864   3.897  28.633   5.885 -0.0294  0.1383  0.2238
64948W        W 7865   3.403  29.586   7.020  0.2264  0.0839 -0.1177
64949W        W 7866   1.519  30.741   4.852 -0.1608  0.0465  0.2321
64950W        W 7867   3.987  30.646   7.502 -0.2590  0.0000  0.0688
64951W        W 7868   4.640  28.575   4.147 -0.1319 -0.1128 -0.1888
64952W        W 7869   2.084  29.779   5.542  0.0158  0.1949  0.0422
64953W        W 7870   2.874  29.296   4.825 -0.1600 -0.0216 -0.3673
64954W        W 7871   1.192  29.737   5.951  0.2309 -0.0815 -0.2710
64955W        W 7872  34.433  30.738   5.147 -0.0817 -0.0149 -0.1063
64956W        W 7873   1.804  31.656   6.207  0.0794  0.1799  0.0391
64957W        W 7874   2.874  31.814   7.654  0.0022 -0.0367  0.1032
64958W        W 7875   3.483  29.609   3.971  0.1005 -0.0864 -0.2216
64959W        W 7876   2.416  29.903   8.114  0.2458  0.0196 -0.2044
64960W        W 7877   1.401  29.267   2.230  0.0161 -0.0739 -0.2770
64961W        W 7878   2.197  30.971   3.380 -0.1195 -0.0630 -0.1610
64962W        W 7879   3.734  30.810   3.327 -0.0754  0.2432  0.1305
64963W        W 7880   3.034  30.117   5.231 -0.1411 -0.1148 -0.0116
64964W        W 7881   2.908  32.045   5.545 -0.1487 -0.0673 -0.1683
64965W        W 7882   2.025  30.752   3.873  0.0321 -0.1142 -0.0721
64966W        W 7883   3.403  31.823   7.956 -0.0147  0.2289  0.1174
64967W        W 7884  33.640  31.491   4.632 -0.2940  0.1544  0.1085
64968W        W 7885   5.205  29.795   6.329  0.4366 -0.0629 -0.0810
64969W        W 7886  34.632  31.133   4.687 -0.2404 -0.0863  0.0123
64970W        W 7887   2.004  30.682   4.977 -0.1635  0.0112  0.1069
64971W        W 7888   1.213  31.060   3.833  0.0479  0.1724  0.1672
64972W        W 7889   4.255  28.331   5.706  0.0063  0.3440 -0.0326
64973W        W 7890   3.753  31.728   5.242 -0.1632 -0.4733  0.2005
64974W        W 7891   0.907  30.912   6.593 -0.2841 -0.0053 -0.1734
64975W        W 7892   3.625  30.573   5.844  0.0928  0.3045 -0.2372
64976W        W 7893  34.554  31.176   5.495 -0.1218  0.0158  0.0553
64977W        W 7894   2.863  32.756   7.562 -0.2212 -0.0170 -0.0273
64978W        W 7895   3.265  29.619   6.236 -0.0571 -0.2442  0.2286
64979W        W 7896   2.454  33.007   7.359  0.2414 -0.2722 -0.2125
64980W        W 7897   0.685  30.981   7.038  0.3827 -0.0482  0.0533
64981W        W 7898   2.006  29.471   3.972 -0.1229 -0.0964 -0.0147
64982W        W 7899   3.925  31.327   6.086 -0.1349 -0.2257  0.1471
64983W        W 7900   2.374  30.048   3.706 -0.1051 -0.2058  0.1508
64984W        W 7901   0.311  32.242   4.597  0.6900  0.1973  0.2863
64985W        W 7902   3.269  32.092   7.440 -0.0894 -0.0279  0.2218
64986W        W 7903   0.900  30.626   2.532  0.0788 -0.0816 -0.3111
64987W        W 7904   1.548  32.504   4.933  0.1338 -0.0708 -0.0924
64988W        W 7905   1.303  30.480   6.634 -0.4369 -0.1696  0.4304
64989W        W 7906   3.784  31.165   9.096  0.0772 -0.1044  0.1938
64990W        W 7907   2.555  30.715   5.090  0.2404  0.2608 -0.0328
64991W        W 7908   2.301  28.620   5.590  0.0362  0.0357  0.2640
64992W        W 7909   2.768  30.837   3.268  0.3430 -0.0597 -0.2962
64993W        W 7910   3.570  30.546   4.388 -0.0427 -0.0969 -0.2662
64994W        W 7911   1.495  29.345   6.165  0.0854 -0.1537 -0.0558
64995W        W 7912   2.244  31.138   6.648 -0.5430  0.1840 -0.0000
64996W        W 7913   3.715  30.079   6.094  0.0308  0.1694 -0.2299
64997W        W 7914   3.015  31.877   2.952 -0.2166  0.3897 -0.0106
64998W        W 7915   1.281  29.835   9.238  0.1024  0.0728 -0.2108
64999W        W 7916   1.019  32.634   2.717 -0.0009 -0.2307 -0.0722
65000W        W 7917  34.123  31.031   6.505  0.0077  0.1761 -0.0572
65001W        W 7918   1.727  31.365   4.188 -0.1720  0.0017  0.3406
65002W        W 7919   1.232  30.295   5.576  0.1131 -0.0533  0.3141
65003W        W 7920   1.563  31.725   5.754 -0.4693 -0.2095  0.0658
65004W        W 7921   1.916  29.658   2.613 -0.1559 -0.4188  0.1957
65005W        W 7922   1.628  30.516   7.073  0.2390  0.2618  0.2593
65006W        W 7923   4.608  29.007   4.367 -0.0876  0.1871  0.3554
65007W        W 7924   4.636  31.537   4.591  0.1251  0.0933  0.0379
65008W        W 7925   3.919  30.310   6.609  0.0857 -0.4855  0.0865
65009W        W 7926   2.520  28.996   7.760  0.0587 -0.2477  0.2757
65010W        W 7927   4.669  31.954   4.866 -0.0873  0.0567 -0.1674
65011W        W 7928   2.548  31.001   5.717  0.1038  0.0772  0.0456
65012W        W 7929   1.645  30.093   5.940  0.0342  0.0785  0.1231
65013W        W 7930   4.837  32.457   5.811  0.1816 -0.0005  0.0348
65014W        W 7931   1.265  30.760   5.823  0.0305 -0.2114  0.0927
65015W        W 7932   2.717  33.102   6.629  0.1126  0.1357 -0.0875
65016W        W 7933   3.248  32.152   6.117 -0.2033  0.1380 -0.1111
65017W        W 7934   3.663  30.505   5.278  0.0598  0.1597  0.0572
65018W        W 7935   1.499  28.368   4.422 -0.0484 -0.2325 -0.3705
65019W        W 7936   3.132  32.994   5.652 -0.1075 -0.1652  0.2538
65020W        W 7937   4.654  32.468   6.278  0.0610  0.5191  0.1182
65021W        W 7938   3.443  30.900   5.506  0.0441 -0.1159  0.1663
65022W        W 7939   4.200  29.998   6.242 -0.2082 -0.0693  0.1593
65023W        W 7940   4.068  33.095   6.026 -0.3079  0.2302  0.2264
65024W        W 7941   2.906  29.559   6.587  0.1320 -0.1316  0.1736
65025W        W 7942   3.596  31.408   5.631 -0.0203  0.1152  0.2828
65026W        W 7943   1.995  29.617   4.640  0.2343  0.1599 -0.0507
65027W        W 7944   2.428  30.608   4.605  0.2393 -0.1520  0.3267
65028W        W 7945   4.398  31.089   4.915  0.2283  0.3520 -0.0368
65029W        W 7946   3.090  28.814   6.157  0.2361 -0.2082 -0.1174
65030W        W 7947   2.213  32.063   4.715  0.0669 -0.0640 -0.2738
65031W        W 7948   3.612  30.599   6.325  0.1654 -0.0811 -0.0015
65032W        W 7949   2.903  29.841   8.366 -0.0981 -0.1503  0.3854
65033W        W 7950  34.178  30.195   7.300  0.2957 -0.3534 -0.1600
65034W        W 7951   4.151  33.109   7.882  0.0072  0.0099 -0.4006
65035W        W 7952   3.351  30.291   2.889 -0.1508 -0.1315  0.2700
65036W        W 7953   4.394  30.432   6.117  0.1874 -0.1797  0.0180
65037W        W 7954   4.653  29.936   5.356 -0.2161 -0.4897  0.5074
65038W        W 7955   2.101  29.317   6.309  0.0030  0.1130 -0.2072
65039W        W 7956   1.870  28.695   4.478 -0.2779 -0.0688 -0.2321
65040W        W 7957   2.373  33.279  11.032 -0.0069 -0.1877 -0.1548
65041W        W 7958  33.638  31.108   5.656 -0.1664 -0.2503  0.1582
65042W        W 7959   3.510  31.492   6.666  0.0996 -0.4007  0.1548
65043W        W 7960   2.053  32.845   2.654  0.2729  0.1817  0.2542
65044W        W 7961   2.763  31.299   3.573  0.1601 -0.1899  0.2260
65045W        W 7962   1.601  29.762   5.632 -0.1771 -0.0322 -0.3837
65046W        W 7963   1.481  30.866   6.256  0.1945 -0.3053 -0.0253
65047W        W 7964   1.228  33.098   6.813 -0.3163 -0.0846  0.2183
65048W        W 7965   2.303  30.351   4.193  0.1812  0.0062 -0.1765
65049W        W 7966   4.553  30.438   4.237 -0.1583 -0.0847  0.2548
65050W        W 7967   1.281  31.704   6.154  0.0279 -0.0022  0.1541
65051W        W 7968   2.003  30.676  10.230  0.0270 -0.1029 -0.1502
65052W        W 7969   2.897  28.772   4.184  0.1745 -0.0781  0.0172
65053W        W 7970   3.981  30.797   6.596 -0.1023  0.0143 -0.1075
65054W        W 7971   1.254  33.337   6.367 -0.0165  0.1122  0.2772
65055W        W 7972   3.914  28.074   4.776 -0.1062  0.2392 -0.0464
65056W        W 7973   0.715  32.549   4.581 -0.0756 -0.1127  0.0085
65057W        W 7974  34.445  32.119   4.555  0.0591 -0.0235 -0.0696
65058W        W 7975   1.347  32.496   3.287 -0.0017  0.2336 -0.1425
65059W        W 7976   2.132  30.745   5.441 -0.0250  0.0058  0.0244
65060W        W 7977   4.078  30.215   7.265 -0.0390 -0.2547  0.1697
65061W        W 7978   3.126  31.130   6.431  0.0122 -0.0815  0.0606
65062W        W 7979   4.301  29.593   6.515  0.0347  0.0890  0.0741
65063W        W 7980   3.305  32.006   8.694  0.2093 -0.1252  0.2616
65064W        W 7981   1.887  31.070   5.793 -0.4178 -0.5211 -0.1097
65065W        W 7982   3.613  32.923   6.954 -0.1215 -0.0548  0.2413
65066W        W 7983   4.729  33.063   4.166  0.0729  0.2404  0.0947
65067W        W 7984   0.866  30.669   5.612  0.0495 -0.2320  0.1681
65068W        W 7985   1.847  31.209   6.350 -0.0607 -0.0409  0.1311
65069W        W 7986   2.066  31.220   8.378 -0.0112 -0.1549 -0.0624
65070W        W 7987   2.331  30.219   6.379 -0.0016 -0.0832 -0.1119
65071W        W 7988   1.874  28.116   4.126 -0.1872  0.1946 -0.1461
65072W        W 7989   1.218  33.614   2.856 -0.0611 -0.0517  0.3255
65073W        W 7990   1.449  31.257   5.952  0.2474  0.1067  0.2591
65074W        W 7991   1.146  30.511   7.078  0.0593 -0.3061  0.3029
65075W        W 7992   2.058  31.606   2.146  0.1049 -0.0969  0.3606
65076W        W 7993   1.922  31.483   2.642  0.0951  0.1414  0.1893
65077W        W 7994   3.669  31.285   5.107  0.0670  0.0603  0.4506
65078W        W 7995   3.914  32.641   5.650  0.2446  0.1102  0.0241
65079W        W 7996   1.897  30.276   3.874  0.2760 -0.0940 -0.1315
65080W        W 7997  34.564  31.536   5.845  0.0974 -0.2969  0.1298
65081W        W 7998   1.113  30.033   2.904 -0.2147  0.0619  0.0248
65082W        W 7999   4.775  33.465   4.912 -0.0577  0.0203  0.0463
65083W        W 8000   1.219  32.492   4.261  0.0149 -0.1949  0.2607
65084W        W 8001   2.683  31.725  11.204 -0.2768 -0.0545  0.0156
65085W        W 8002   5.366  28.462   5.191 -0.1458  0.2684  0.2728
65086W        W 8003   4.051  30.799   6.080 -0.1291 -0.0837 -0.3876
65087W        W 8004   3.141  31.369   5.800 -0.2220  0.1278 -0.2663
65088W        W 8005   2.970  32.191   6.899  0.1568  0.0860 -0.0641
65089W        W 8006   1.792  31.052   5.264 -0.1611 -0.0530 -0.1288
65090W        W 8007   2.246  29.675   3.418 -0.2422 -0.2069 -0.3876
65091W        W 8008   1.887  30.925   4.382 -0.2372  0.1827  0.1592
65092W        W 8009   4.319  30.267   7.751  0.2951  0.1951 -0.4214
65093W        W 8010   1.176  32.639   7.680 -0.2369  0.2443  0.2415
65094W        W 8011   4.206  33.303   2.781  0.0087  0.1469  0.0154
65095W        W 8012  34.422  30.197   3.766 -0.1971 -0.1375  0.1182
65096W        W 8013   2.662  31.864   4.280  0.4700  0.1029  0.0765
65097W        W 8014   3.261  30.323   3.775  0.3412  0.0791 -0.1151
65098W        W 8015   2.013  32.485   5.095  0.1688  0.0811  0.2155
65099W        W 8016   3.670  32.706   5.134 -0.0682 -0.1613  0.1097
65100W        W 8017   2.788  32.278   5.995 -0.0874  0.2236  0.1130
65101W        W 8018  34.611  32.538   5.908 -0.1385  0.1919  0.0025
65102W        W 8019   0.513  30.175   4.370  0.1012  0.1888 -0.0939
65103W        W 8020   3.500  31.081   6.052  0.0952  0.1149 -0.0143
65104W        W 8021   1.730  30.392   5.326 -0.3156  0.0348 -0.0601
65105W        W 8022   4.643  30.893   6.832  0.0417 -0.1865  0.0396
65106W        W 8023   0.482  30.422   3.259  0.0787  0.2398  0.2450
65107W        W 8024   4.728  29.217   5.788  0.0825  0.0755  0.0687
65108W        W 8025   3.649  32.546   7.342 -0.2776 -0.0454  0.1240
65109W        W 8026   2.108  29.166   4.495 -0.0658  0.2737  0.0835
65110W        W 8027   3.352  30.280   4.830 -0.0350  0.0851 -0.0300
65111W        W 8028   3.464  31.365   9.932 -0.0587 -0.2905  0.2062
65112W        W 8029   2.898  32.633   4.773 -0.3590  0.2036  0.1967
65113W        W 8030   3.207  32.235   8.202 -0.0819  0.0251 -0.1081
65114W        W 8031   0.649  29.944   2.930  0.0746 -0.1920  0.0524
65115W        W 8032   1.216  31.227   4.964 -0.2955 -0.1495  0.0723
65116W        W 8033   2.471  31.696   5.136 -0.0381 -0.0396 -0.1021
65117W        W 8034   2.725  30.525   5.711 -0.0801 -0.2381  0.1013
65118W        W 8035   2.983  32.628   8.444 -0.1710  0.0452  0.1014
65119W        W 8036   1.269  30.808   3.378 -0.0366 -0.0118 -0.0346
65120W        W 8037   3.814  30.643   3.758  0.1686  0.0595  0.0174
65121W        W 8038   3.732  32.165   5.801 -0.2206 -0.0347  0.0079
65122W        W 8039   1.384  30.625   1.615 -0.0971 -0.1522  0.1805
65123W        W 8040   1.732  31.527   5.221  0.0810  0.0206  0.0067
65124W        W 8041   4.938  31.835   5.956  0.1042 -0.0501 -0.0066
65125W        W 8042   0.907  30.779   4.185 -0.0112 -0.2111 -0.2172
65126W        W 8043   5.176  31.766   7.327 -0.1719 -0.1446 -0.2746
65127W        W 8044   4.561  33.069   6.021 -0.1206  0.0720  0.0678
65128W        W 8045   2.677  29.795   4.985 -0.2275 -0.2573  0.0418
65129W        W 8046   0.863  31.550   5.360  0.1395 -0.0331  0.0139
65130W        W 8047   0.254  31.676   3.065 -0.1949  0.0043  0.3979
65131W        W 8048   2.076  30.254   5.661  0.1788  0.0559  0.0549
65132W        W 8049   3.223  28.098   6.897  0.0105 -0.2573 -0.1392
65133W        W 8050   0.764  32.406   4.002 -0.1896  0.0226  0.1713
65134W        W 8051   3.500  28.837   7.429 -0.0405  0.2836  0.0286
65135W        W 8052   3.891  31.863   6.203 -0.0043 -0.0034 -0.3640
65136W        W 8053   1.797  31.786   6.746  0.0974  0.2064  0.0876
65137W        W 8054   2.909  28.169   1.281 -0.1558  0.0877  0.0964
65138W        W 8055   2.806  32.019   6.496  0.0503 -0.0745 -0.0089
65139W        W 8056   0.955  32.956   4.450 -0.1096  0.1047 -0.2524
65140W        W 8057   4.878  32.981   4.679 -0.1343 -0.0405 -0.2277
65141W        W 8058   3.827  32.886   4.094 -0.0714  0.0573  0.1129
65142W        W 8059   3.490  29.039   4.902  0.3220  0.1908  0.0777
65143W        W 8060   4.301  31.427   7.384  0.0475  0.0297  0.0229
65144W        W 8061   2.302  29.349   4.917 -0.1336 -0.0357 -0.2208
65145W        W 8062   5.180  28.511   4.088  0.0123  0.0322  0.2136
65146W        W 8063   5.685  29.076   5.092  0.0227 -0.0032 -0.0360
65147W        W 8064   1.937  31.850   4.341  0.0816 -0.0590 -0.1401
65148W        W 8065   0.225  31.321   2.588  0.1857 -0.2625  0.3853
65149W        W 8066   1.644  29.986   2.228  0.1782 -0.0395 -0.1973
65150W        W 8067  33.906  31.739   4.105 -0.0389 -0.2240  0.3429
65151W        W 8068   3.299  26.791   8.056  0.0021 -0.0348 -0.2002
65152W        W 8069   0.100  29.891   5.884 -0.0236  0.0393  0.2365
65153W        W 8070   1.875  30.531   3.389 -0.1702 -0.1649  0.0922
65154W        W 8071  34.175  31.179   2.443  0.2259 -0.1371 -0.0553
65155W        W 8072   4.155  32.001   2.610 -0.0240  0.0712  0.0550
65156W        W 8073   0.431  30.248   3.846 -0.1158  0.1231 -0.1476
65157W        W 8074   1.766  31.184   4.795  0.0573 -0.2310  0.3558
65158W        W 8075   2.724  32.399   4.332  0.0256 -0.1642 -0.3086
65159W        W 8076   4.530  34.033   4.995  0.1810  0.0043  0.0500
65160W        W 8077   3.219  30.786   3.540 -0.0237 -0.0342 -0.0217
65161W        W 8078   3.574  32.236   9.168  0.3634  0.3934 -0.0037
65162W        W 8079   1.702  31.897   2.494 -0.0798  0.2973  0.0834
65163W        W 8080   1.412  30.476   8.160 -0.5639  0.1561 -0.0217
65164W        W 8081   1.402  29.499   4.604  0.2206  0.0119  0.0550
65165W        W 8082   0.535  29.314   4.245 -0.0910  0.3723 -0.0969
65166W        W 8083   3.803  29.853   4.831 -0.2144  0.1620  0.2764
65167W        W 8084   2.003  32.935   5.287 -0.3272 -0.0054  0.2900
65168W        W 8085   4.642  32.009   2.423 -0.0746  0.0157  0.1011
65169W        W 8086   1.531  32.981   5.045  0.0916  0.0992  0.0627
65170W        W 8087   1.738  33.306   8.183  0.0273  0.0720  0.0335
65171W        W 8088   1.322  29.344   5.711  0.0167 -0.2326 -0.0164
65172W        W 8089   4.273  31.834   5.203  0.2642  0.1105  0.1097
65173W        W 8090   2.212  31.582   6.482  0.2161  0.2391  0.1799
65174W        W 8091   3.520  29.978   5.225  0.0602  0.2380 -0.1006
65175W        W 8092   3.467  32.815   9.096 -0.2057  0.0473  0.5000
65176W        W 8093   2.508  31.236   3.073  0.1042 -0.1166  0.2853
65177W        W 8094   2.682  30.961   6.452  0.2935  0.1005 -0.2417
65178W        W 8095   2.364  32.474   7.354 -0.0359 -0.1619 -0.0329
65179W        W 8096   2.902  31.387   7.423 -0.1061  0.3646 -0.1019
65180W        W 8097   2.276  29.206   3.559  0.1237 -0.0381 -0.1762
65181W        W 8098   3.926  30.378   4.837 -0.2650 -0.3750 -0.3592
65182W        W 8099   3.482  31.580   6.170  0.1791  0.3083  0.1253
65183W        W 8100   2.661  31.470   5.590  0.2103  0.2043 -0.2407
65184W        W 8101   3.384  28.103   4.854 -0.0333 -0.1691  0.0187
65185W        W 8102   2.946  31.045   5.492 -0.0273 -0.0593 -0.0303
65186W        W 8103   2.717  31.429   6.665  0.0249 -0.1802 -0.2188
65187W        W 8104   4.093  33.199   8.704 -0.3791  0.1368  0.1720
65188W        W 8105   0.974  31.701   3.156  0.0445  0.1108  0.1315
65189W        W 8106   3.593  31.495   4.641 -0.1646 -0.0835  0.1042
65190W        W 8107   3.905  32.321   8.786  0.0329 -0.2427  0.1177
65191W        W 8108   2.983  33.586   6.287  0.0906  0.0396  0.0272
65192W        W 8109   2.029  32.053   6.411  0.0637 -0.0621 -0.1556
65193W        W 8110   3.025  31.631   5.320 -0.4060 -0.2537 -0.1322
65194W        W 8111  34.042  27.601   5.826 -0.1425  0.1663  0.1807
65195W        W 8112   2.685  31.238   5.096  0.1578 -0.2434 -0.0976
65196W        W 8113   1.401  32.037   4.423 -0.0389  0.0367 -0.1313
65197W        W 8114   3.528  30.968   6.653 -0.2059 -0.3616  0.4031
65198W        W 8115   2.624  29.061   5.191  0.3879 -0.0411 -0.1147
65199W        W 8116   3.494  29.251   6.467 -0.0720  0.0654  0.0636
65200W        W 8117   2.126  33.572   5.769 -0.0838 -0.0620 -0.1686
65201W        W 8118   2.044  31.924   5.237 -0.0395 -0.0160 -0.0693
65202W        W 8119   1.346  31.287   9.609  0.0506  0.0988 -0.3279
65203W        W 8120   1.237  31.710   8.238  0.2253  0.1516 -0.0346
65204W        W 8121   3.821  32.289   8.302 -0.1358 -0.5075  0.0139
65205W        W 8122   1.997  31.113  10.487  0.1104 -0.1535  0.1865
65206W        W 8123   1.379  30.112   8.754  0.0525 -0.0215  0.1686
65207W        W 8124   2.021  32.609  10.378  0.0550  0.1297 -0.2622
65208W        W 8125   2.289  34.228   9.532  0.1332  0.0176  0.3846
65209W        W 8126   4.856  32.623   9.508  0.1343 -0.0879 -0.1262
65210W        W 8127   2.199  30.246   8.969  0.2362  0.1609 -0.1914
65211W        W 8128   2.055  30.662   9.198 -0.1745  0.4622  0.0437
65212W        W 8129   2.018  29.145   7.572 -0.4734 -0.3593  0.4530
65213W        W 8130   2.756  27.872   9.449 -0.3348  0.0383  0.2762
65214W        W 8131   2.696  30.830   9.572  0.1832  0.1287 -0.0326
65215W        W 8132   2.987  31.261  10.787 -0.1301 -0.0750 -0.3298
65216W        W 8133  34.465  29.921   7.964  0.1659 -0.0997 -0.0699
65217W        W 8134   1.240  28.807   7.291 -0.0191 -0.4163 -0.2045
65218W        W 8135   0.577  32.501   7.732  0.0029  0.0651 -0.1161
65219W        W 8136  34.320  28.937   8.161  0.2063  0.0179  0.3554
65220W        W 8137   1.459  32.485   8.168 -0.0452  0.0938  0.1841
65221W        W 8138   2.503  29.522   5.337 -0.0323 -0.2657 -0.2331
65222W        W 8139   0.277  30.586   8.710 -0.2300 -0.0278  0.2182
65223W        W 8140   2.767  29.611   9.874 -0.1772  0.1014 -0.0116
65224W        W 8141   2.265  31.250  10.011  0.2297  0.1120  0.1909
65225W        W 8142   6.003  29.590   8.956 -0.0155  0.0104  0.1167
65226W        W 8143   3.485  32.379  11.180 -0.1965 -0.0397 -0.0575
65227W        W 8144   2.878  30.600  10.898  0.3176 -0.1736 -0.4559
65228W        W 8145   1.481  31.943   7.275  0.0041 -0.0200  0.1307
65229W        W 8146   0.135  32.881   6.944  0.2282  0.0932 -0.2163
65230W        W 8147   0.903  32.288   8.045  0.0832  0.0288  0.1426
65231W        W 8148   2.823  32.125   8.854  0.2210  0.2288 -0.1912
65232W        W 8149   2.268  30.694   6.473  0.2721 -0.1886 -0.1542
65233W        W 8150   3.381  33.139  10.441  0.0022 -0.1181  0.1925
65234W        W 8151   2.430  32.057   7.933  0.4284  0.3205  0.0537
65235W        W 8152   2.142  30.701   8.684  0.1353 -0.2359 -0.0579
65236W        W 8153   0.131  32.206  10.184  0.0469  0.0122  0.2476
65237W        W 8154   1.986  32.282  10.957  0.0204  0.2407  0.0918
65238W        W 8155   3.184  30.424   6.984 -0.2015 -0.0577  0.0051
65239W        W 8156   3.134  29.134   7.217 -0.0664 -0.1356 -0.1804
65240W        W 8157   1.934  30.312   6.706 -0.1312  0.0842 -0.1751
65241W        W 8158   1.719  28.257   9.104 -0.1682 -0.2141 -0.1488
65242W        W 8159   2.407  28.009   8.624  0.0211  0.2954 -0.0254
65243W        W 8160   1.308  32.038  10.099 -0.2278  0.1045 -0.0948
65244W        W 8161   0.934  30.995   9.711  0.1323  0.0306  0.1375
65245W        W 8162   2.385  30.620   8.021  0.1874  0.1032 -0.0780
65246W        W 8163   1.743  30.594   9.746 -0.0648 -0.3841  0.0541
65247W        W 8164   2.501  31.863  10.274  0.0466  0.0290 -0.1205
65248W        W 8165   0.918  31.521   9.650  0.0901  0.0458  0.0900
65249W        W 8166   3.370  33.449   9.195  0.2610  0.0340 -0.0747
65250W        W 8167   2.033  33.125   9.935 -0.0186  0.0114  0.1847
65251W        W 8168   1.578  31.610   7.787 -0.4739  0.2273  0.2937
65252W        W 8169   1.688  29.660   7.460  0.0008 -0.0768 -0.0746
65253W        W 8170   2.041  29.092   6.831 -0.0101  0.1350 -0.0575
65254W        W 8171   2.515  30.764   9.062  0.1381 -0.0981 -0.0022
65255W        W 8172  34.478  31.549   8.424  0.1830  0.3203 -0.2767
65256W        W 8173   3.589  32.890  11.101  0.3183  0.0439  0.2460
65257W        W 8174   5.024  31.043   8.963 -0.3212 -0.0090  0.0413
65258W        W 8175   4.002  28.781   9.622 -0.1556 -0.1263  0.0531
65259W        W 8176   4.290  28.461  10.008 -0.2020  0.0623  0.2502
65260W        W 8177   1.523  30.189   9.564  0.2073  0.1116 -0.0024
65261W        W 8178   2.296  31.195   6.127 -0.1675  0.1711  0.1715
65262W        W 8179   3.034  31.439   9.730 -0.0431  0.4979  0.0664
65263W        W 8180   2.295  29.791   9.845  0.2343 -0.1352 -0.2438
65264W        W 8181   2.142  33.830  10.258 -0.1575  0.2178  0.1112
65265W        W 8182  34.309  31.963   5.969 -0.0370 -0.0225  0.3954
65266W        W 8183   0.613  30.568   9.834  0.0248  0.2538 -0.1784
65267W        W 8184   0.589  30.650   7.850  0.1004  0.2722  0.1367
65268W        W 8185  34.392  27.212   8.536  0.2309  0.4996 -0.4149
65269W        W 8186   1.108  31.752   7.622 -0.1314  0.0224  0.3846
65270W        W 8187   3.108  30.191   7.404  0.2853  0.0743  0.2176
65271W        W 8188   2.640  29.398  11.511 -0.1247  0.3244  0.1719
65272W        W 8189   2.426  31.524   7.492  0.1140 -0.0027 -0.1718
65273W        W 8190   4.072  33.650   7.780  0.0854 -0.3494  0.1645
65274W        W 8191   2.928  30.113   9.514  0.1074  0.0040  0.0361
65275W        W 8192   2.376  32.694   7.789  0.0486 -0.2475  0.4060
65276W        W 8193   1.223  30.884   9.014  0.3418  0.1342 -0.0201
65277W        W 8194   1.018  29.301   7.416 -0.0093  0.2096 -0.0296
65278W        W 8195   1.062  29.263   9.619  0.0211 -0.1248 -0.1588
65279W        W 8196   1.004  30.160   8.453  0.0103  0.0679  0.1892
65280W        W 8197   2.061  31.337  10.943 -0.0687 -0.1246  0.0686
65281W        W 8198   2.160  29.459   7.958 -0.0282  0.5700  0.0452
65282W        W 8199   1.141  30.918   7.424  0.4549 -0.0427  0.1806
65283W        W 8200   2.741  33.919   7.776  0.0618  0.4710 -0.0470
65284W        W 8201   3.372  30.759  11.534 -0.2296  0.0800 -0.0940
65285W        W 8202   2.672  32.602   8.870  0.2675 -0.3124  0.1312
65286W        W 8203   0.681  29.802   9.996 -0.1183  0.2180  0.0776
65287W        W 8204   0.752  29.331   8.346 -0.4605  0.0656 -0.1608
65288W        W 8205   0.683  33.283  10.099 -0.2183  0.1090  0.0983
65289W        W 8206   1.222  30.603   8.587 -0.1523 -0.3134 -0.0086
65290W        W 8207   1.900  29.861   8.118 -0.3586 -0.2504 -0.1079
65291W        W 8208   3.826  33.165   9.207  0.1619  0.2260  0.1171
65292W        W 8209   1.798  30.371   8.594  0.2254  0.1060  0.2535
65293W        W 8210   4.572  31.734  11.639  0.1461 -0.0040  0.4051
65294W        W 8211   2.221  30.837   9.635  0.0379  0.3583 -0.0494
65295W        W 8212   1.077  30.014   6.718  0.1531 -0.1981  0.0983
65296W        W 8213   2.752  31.649   9.308  0.1169  0.0135 -0.1875
65297W        W 8214   1.595  33.432   6.684  0.0212 -0.1560  0.1667
65298W        W 8215  34.403  30.917   6.985  0.0284 -0.2474 -0.0559
65299W        W 8216   0.169  31.953   6.988 -0.0636  0.1162 -0.0638
65300W        W 8217   1.435  27.766   8.833 -0.0484  0.0745  0.2476
65301W        W 8218   2.207  29.828   7.632  0.3477 -0.4910  0.0226
65302W        W 8219   4.431  28.454  11.571 -0.0210  0.1861  0.2768
65303W        W 8220   3.161  28.298   9.381  0.1338  0.1989  0.2743
65304W        W 8221   1.592  30.970  10.055 -0.2170 -0.1722  0.3481
65305W        W 8222   2.488  29.984   5.833 -0.0057  0.0821  0.0508
65306W        W 8223   1.955  29.744   6.036  0.1565  0.2932 -0.0073
65307W        W 8224   0.894  32.019   9.686  0.0707  0.0387 -0.0977
65308W        W 8225   0.008  30.415   8.295 -0.2764  0.0712 -0.1825
65309W        W 8226   2.380  30.294   7.685 -0.1591  0.1055  0.0916
65310W        W 8227   4.464  32.707   8.698 -0.1251  0.4089 -0.0135
65311W        W 8228   1.356  30.686   9.478 -0.0811 -0.1461 -0.0702
65312W        W 8229   2.809  32.826   9.366  0.0821  0.2552  0.0200
65313W        W 8230   4.265  27.908  10.675  0.5246  0.0289  0.2045
65314W        W 8231   2.011  31.687   8.805  0.1062 -0.2321  0.2103
65315W        W 8232   2.499  28.660  10.070  0.0175 -0.0012 -0.0999
65316W        W 8233   0.380  33.689   7.897 -0.4007  0.0978  0.0948
65317W        W 8234   3.244  28.855   9.170 -0.1326  0.1664 -0.0928
65318W        W 8235   3.300  30.174   9.144 -0.1853  0.0061  0.2874
65319W        W 8236   4.661  29.296   9.627  0.0319 -0.1810 -0.2815
65320W        W 8237   2.827  28.711  10.468  0.3564 -0.0093 -0.0548
65321W        W 8238   1.900  32.015   7.629  0.0393  0.0199  0.3025
65322W        W 8239   4.602  29.945  11.011 -0.1197  0.0219 -0.1159
65323W        W 8240  32.569  31.524   8.431  0.0613 -0.0621  0.4206
65324W        W 8241   2.472  31.790   8.683 -0.1221  0.1301 -0.1015
65325W        W 8242   3.217  29.669   9.626  0.0476 -0.2823  0.1119
65326W        W 8243   1.404  32.694   6.483  0.1012  0.2859 -0.1709
65327W        W 8244   2.242  30.226   8.482  0.0590 -0.3264 -0.0643
65328W        W 8245   0.825  28.062   8.888  0.0127  0.0034 -0.4684
65329W        W 8246   1.387  31.838   9.603  0.2284 -0.1177  0.0214
65330W        W 8247   2.048  32.893   5.912 -0.4257  0.1069 -0.0508
65331W        W 8248   3.135  31.729  10.175  0.1983 -0.0019  0.1231
65332W        W 8249   0.668  32.087   7.293  0.1024 -0.1767 -0.2230
65333W        W 8250   2.858  29.035  10.064  0.1178 -0.3958  0.1677
65334W        W 8251   1.037  31.277   7.877  0.0895 -0.0524  0.2277
65335W        W 8252   3.127  30.187   8.664  0.2561  0.0974 -0.1902
65336W        W 8253   2.755  31.811   7.178  0.0288  0.3349 -0.2925
65337W        W 8254   2.927  30.330  10.472 -0.1267 -0.1689  0.3010
65338W        W 8255   1.887  31.224   8.953 -0.3266  0.1608  0.2286
65339W        W 8256   3.848  26.543   9.623 -0.1882  0.0799  0.2912
65340W        W 8257   0.234  29.437   8.656 -0.1363  0.0614 -0.0242
65341W        W 8258   0.197  32.377   8.105 -0.0890 -0.0984  0.1022
65342W        W 8259   3.399  29.733   8.428  0.2969 -0.1869 -0.5279
65343W        W 8260   1.667  32.205  10.446 -0.1211  0.0518 -0.0842
65344W        W 8261   3.002  33.182  10.896  0.1642 -0.2484  0.0678
65345W        W 8262   0.866  32.569   8.842 -0.3299 -0.0320 -0.1711
65346W        W 8263   2.408  32.076   6.883 -0.1617 -0.2751 -0.1381
65347W        W 8264   2.200  31.765   9.766  0.0177 -0.0983 -0.2402
65348W        W 8265   3.509  31.252   7.138 -0.0205 -0.1358 -0.3644
65349W        W 8266   1.875  32.467   7.839  0.3330 -0.0898 -0.0558
65350W        W 8267   3.151  30.121  11.645  0.1590 -0.0783 -0.2049
65351W        W 8268   2.338  31.790  10.862 -0.2520  0.1403 -0.2639
65352W        W 8269   1.623  28.329  10.022  0.1389 -0.2812 -0.1800
65353W        W 8270   0.456  30.224   8.311 -0.0503  0.2685 -0.0035
65354W        W 8271   4.654  28.095   9.950  0.2273  0.0705 -0.0844
65355W        W 8272   1.545  29.072   9.021  0.0099  0.2494 -0.2683
65356W        W 8273   2.664  28.330   9.637 -0.1123  0.0041 -0.2664
65357W        W 8274   4.414  33.551   8.778  0.0003  0.2038  0.4673
65358W        W 8275   1.620  31.356   8.216 -0.0649  0.0577  0.3211
65359W        W 8276  34.576  30.811   9.060  0.2834 -0.0010  0.5262
65360W        W 8277   2.635  31.345   8.448 -0.4304  0.0486 -0.0293
65361W        W 8278   1.792  31.837  10.950 -0.0326  0.1455  0.0249
65362W        W 8279   2.980  31.264  11.503  0.5427 -0.0234 -0.1681
65363W        W 8280   3.804  31.717   8.189 -0.3145  0.0897  0.1773
65364W        W 8281   0.133  34.560  10.682  0.0221 -0.1731  0.3347
65365W        W 8282   1.903  30.370   7.970  0.1727 -0.0103  0.2525
65366W        W 8283   2.210  32.793   8.734  0.0071  0.2930 -0.1675
65367W        W 8284   1.847  28.389   6.611  0.2371  0.0337  0.0121
65368W        W 8285   1.938  30.229  10.535  0.3629  0.4167 -0.1179
65369W        W 8286   2.250  29.506   8.433 -0.0242  0.0483  0.0304
65370W        W 8287   2.432  31.328  10.590  0.2372 -0.1984 -0.0099
65371W        W 8288   3.157  30.529   9.651  0.1257 -0.1888 -0.0199
65372W        W 8289   3.155  30.630   6.538 -0.3193  0.2587  0.3683
65373W        W 8290   3.645  33.149  10.036  0.2204  0.0796 -0.3935
65374W        W 8291   2.930  30.012  10.914  0.0594 -0.2264  0.2685
65375W        W 8292   1.206  32.525   9.790  0.2113 -0.1905  0.1571
65376W        W 8293   3.528  30.717   9.240 -0.1463 -0.1531  0.0049
65377W        W 8294   1.567  30.680  10.546  0.1264  0.0341  0.1076
65378W        W 8295   3.383  29.624  11.773 -0.0176  0.1835  0.1487
65379W        W 8296   2.906  29.945   6.976 -0.1242  0.2877 -0.2297
65380W        W 8297   2.387  31.965   9.172 -0.0427  0.0847  0.2625
65381W        W 8298   3.422  32.143  10.436 -0.1191  0.0320 -0.1455
65382W        W 8299   3.494  29.657  10.887  0.1426  0.1376 -0.2481
65383W        W 8300   5.098  34.073  10.648 -0.0892  0.2787 -0.0702
65384W        W 8301   4.428  32.141   7.843 -0.2454  0.0198 -0.1295
65385W        W 8302   2.035  29.124   9.398  0.3970 -0.1565 -0.1549
65386W        W 8303   4.292  29.084   9.371 -0.1539  0.0118 -0.2640
65387W        W 8304   2.466  32.533   8.291  0.0047  0.1079  0.0119
65388W        W 8305   2.154  32.234  10.044  0.2133  0.0830  0.1958
65389W        W 8306   2.885  28.444   7.889  0.0519 -0.0366  0.0787
65390W        W 8307   4.151  32.481   9.465  0.0306 -0.0371 -0.0355
65391W        W 8308   2.999  32.462  11.408  0.0208  0.1001  0.1134
65392W        W 8309   2.751  30.308   8.153  0.1967  0.3033  0.0047
65393W        W 8310  33.793  28.127   7.917 -0.1781 -0.1382  0.0165
65394W        W 8311   2.165  29.111   5.413 -0.0962 -0.1039 -0.2362
65395W        W 8312   1.802  32.864   9.133 -0.0048 -0.0279 -0.1341
65396W        W 8313   2.401  32.803  10.080  0.0328  0.1971  0.0005
65397W        W 8314   2.839  29.676   9.271  0.0956  0.0773  0.1522
65398W        W 8315   1.101  32.596   6.904  0.0308  0.1106 -0.0052
65399W        W 8316   0.371  28.728   9.283 -0.0405  0.0283 -0.3971
65400W        W 8317   1.583  31.292  10.683 -0.3886 -0.2735  0.2033
65401W        W 8318   1.474  31.347   9.140  0.6480 -0.1859  0.1349
65402W        W 8319  33.787  30.235   8.482  0.0293  0.0913 -0.2464
65403W        W 8320   2.342  30.337  10.817  0.1773 -0.1641  0.1146
65404W        W 8321   1.856  31.849  10.127  0.2022 -0.1298  0.1384
65405W        W 8322   1.828  31.440   9.795  0.3670  0.0400 -0.4314
65406W        W 8323   1.267  30.558   9.925 -0.3040  0.0353 -0.1510
65407W        W 8324   1.852  30.789   8.308 -0.0882  0.2534  0.0127
65408W        W 8325   2.332  30.649  11.202 -0.0246 -0.1815  0.0694
65409W        W 8326   1.912  28.962   8.557  0.0456 -0.2347  0.0199
65410W        W 8327   2.282  32.269   8.704  0.4721 -0.3293 -0.0441
65411W        W 8328  34.274  33.087   9.519  0.5716 -0.0141 -0.0175
65412W        W 8329   0.017  32.244   9.234  0.1180  0.1858  0.0539
65413W        W 8330   1.591  33.011   9.567  0.1456 -0.2216  0.0231
65414W        W 8331   2.754  32.894   8.080 -0.1351  0.0436 -0.0762
65415W        W 8332   4.352  34.131  10.738 -0.0632 -0.2808  0.1034
65416W        W 8333   2.483  30.054   7.211 -0.1770 -0.2569 -0.1921
65417W        W 8334   1.897  33.113  10.535  0.1653 -0.0929  0.1451
65418W        W 8335   2.390  30.427   6.884  0.1106 -0.1199 -0.1804
65419W        W 8336   2.721  32.306   9.308  0.1673  0.0421  0.3092
65420W        W 8337   1.185  33.147   8.044 -0.0093 -0.0982  0.0017
65421W        W 8338   2.930  30.561   7.740 -0.3879  0.0256  0.0368
65422W        W 8339   2.540  31.358   9.672  0.2506 -0.3149  0.1207
65423W        W 8340   5.150  31.301   9.412 -0.0116  0.0615  0.1278
65424W        W 8341   0.844  30.661   9.318 -0.2961  0.2585  0.1576
65425W        W 8342   3.108  29.332   8.317 -0.0461  0.1470  0.0545
65426W        W 8343   3.881  31.322   8.484  0.1467  0.0427  0.3412
65427W        W 8344   0.898  30.687  10.256 -0.0341  0.0621  0.1178
65428W        W 8345   2.043  32.218   9.510 -0.0540  0.1345  0.1316
65429W        W 8346   8.301  27.171  10.844  0.0507  0.0120 -0.1518
65430W        W 8347   4.280  31.570   8.988 -0.0176 -0.0536  0.1480
65431W        W 8348   3.334  27.872   9.202  0.4766 -0.3788 -0.1061
65432W        W 8349   1.556  32.580  10.825  0.1858  0.2417  0.0485
65433W        W 8350  34.284  31.467   9.021  0.1782  0.0748 -0.1861
65434W        W 8351   2.310  31.597   7.016 -0.1486  0.1653  0.2825
65435W        W 8352   1.599  28.750   7.743  0.2059  0.4237  0.3393
65436W        W 8353   4.138  31.148  10.641  0.1371 -0.2458 -0.2425
65437W        W 8354   2.500  28.146  10.171  0.1095  0.1071 -0.0108
65438W        W 8355   0.717  30.062   9.171 -0.0360 -0.1099  0.0754
65439W        W 8356   2.658  29.221   9.139  0.0348  0.1024 -0.5009
65440W        W 8357   3.499  29.888   7.565 -0.1608 -0.1167 -0.2641
65441W        W 8358   3.050  29.682  11.364  0.1087  0.0496 -0.1571
65442W        W 8359   2.868  31.420   8.851 -0.0995 -0.1371  0.1772
65443W        W 8360   1.528  31.099   8.625  0.0352  0.0471  0.3404
65444W        W 8361   1.856  29.863   8.626 -0.0113 -0.0786 -0.1928
65445W        W 8362   1.949  28.254   8.621  0.2333 -0.1768  0.0402
65446W        W 8363   1.980  30.197   9.461  0.3321  0.3430  0.3959
65447W        W 8364  34.107  33.514   9.154 -0.0175 -0.4161  0.1974
65448W        W 8365   0.205  30.094   8.721 -0.3546 -0.1006 -0.0345
65449W        W 8366   5.236  31.475   8.952  0.0386 -0.1647 -0.3427
65450W        W 8367   2.185  30.342   9.879  0.1248  0.0227 -0.1642
65451W        W 8368   2.095  33.452   7.376 -0.0333 -0.0426  0.0890
65452W        W 8369   3.170  31.557  11.189 -0.4934 -0.1452  0.4746
65453W        W 8370   3.974  33.796  10.540  0.2375 -0.0567  0.0844
65454W        W 8371  33.956  27.637   8.256  0.0470  0.0047 -0.2784
65455W        W 8372   3.110  32.240  10.018 -0.2685 -0.5897  0.0530
65456W        W 8373   3.426  31.631  10.599 -0.0615  0.1488 -0.3228
65457W        W 8374   1.587  30.060   6.434 -0.2031 -0.1105 -0.0259
65458W        W 8375  34.529  29.936   8.472 -0.2840 -0.0151  0.0649
65459W        W 8376  34.078  33.241   7.330 -0.1142 -0.1277  0.0313
65460W        W 8377   3.130  29.342  10.430  0.1535  0.6468 -0.2685
65461W        W 8378   2.069  33.677   6.841  0.2204 -0.3127  0.3536
65462W        W 8379   3.409  28.373  10.594 -0.1764  0.0628  0.0369
65463W        W 8380   2.272  30.688   5.951  0.1094 -0.0122  0.2456
65464W        W 8381   2.163  31.760   8.266  0.0278  0.0389 -0.1241
65465W        W 8382   1.572  31.635   8.574 -0.1597 -0.0952  0.1868
65466W        W 8383   3.608   0.269  10.460 -0.1473  0.0949 -0.4379
65467W        W 8384   2.337  29.837   9.266 -0.1157 -0.2679  0.2875
65468W        W 8385   3.959  32.264  11.190  0.0906 -0.0568 -0.1522
65469W        W 8386   0.701  27.248   9.464  0.1442  0.2337  0.2630
65470W        W 8387   2.497  30.387   9.442  0.1842  0.0392  0.2216
65471W        W 8388   3.155  29.719   8.890  0.3709  0.0480  0.0003
65472W        W 8389   0.138  29.094   8.032  0.1010  0.2629 -0.1291
65473W        W 8390   1.073  30.718   7.909  0.0047 -0.2866  0.1010
65474W        W 8391   1.466  30.557   7.618  0.2544  0.2338  0.1148
65475W        W 8392   3.042  30.931  10.022 -0.0775  0.0653 -0.1059
65476W        W 8393   2.544  31.125   7.073 -0.1445 -0.2489 -0.1799
65477W        W 8394   0.971  27.494   8.243  0.0024  0.0062  0.2308
65478W        W 8395   2.493  32.492   9.720  0.2552 -0.1430  0.3651
65479W        W 8396   0.275  31.447   8.305  0.1017 -0.0922  0.3017
65480W        W 8397   0.743  29.641   9.477 -0.1005  0.0156  0.3127
65481W        W 8398   3.716  30.416   8.927 -0.1172  0.0436 -0.0874
65482W        W 8399   2.498  30.857   8.441 -0.0513 -0.3029  0.4603
65483W        W 8400   2.270  28.601   9.421  0.1363  0.0121  0.2156
65484W        W 8401   0.622  29.101   7.780 -0.2238  0.3421 -0.0448
65485W        W 8402   1.466  30.990   7.942  0.0008 -0.1411  0.1023
65486W        W 8403   2.723  30.962  11.928  0.0246 -0.0094 -0.0112
65487W        W 8404   2.007  32.879   8.293 -0.1277 -0.1274 -0.1177
65488W        W 8405   3.167  31.645   8.348 -0.2720  0.1065 -0.1614
65489W        W 8406   1.811  29.958   9.959 -0.0101 -0.0214  0.0179
65490W        W 8407   3.453  30.103   9.673 -0.0223 -0.2069 -0.2164
65491W        W 8408   3.335  30.292  10.798  0.0062  0.1820  0.2253
65492W        W 8409   3.985  28.114  11.780  0.2337 -0.3667 -0.1518
65493W        W 8410   3.564  28.490   9.560 -0.1091 -0.0685 -0.1309
65494W        W 8411   1.011  29.787   8.820 -0.0287  0.0651  0.1589
65495W        W 8412   0.119  29.086   7.465  0.2692  0.1515  0.1654
65496W        W 8413   3.336  30.650   8.775 -0.1490 -0.0526  0.2500
65497W        W 8414   0.367  34.387   7.961 -0.0490 -0.1017 -0.1384
65498W        W 8415   0.329  30.453   9.250 -0.0605  0.0509 -0.0305
65499W        W 8416   3.733  29.684   6.639 -0.2824 -0.1082  0.0510
65500W        W 8417   2.750  31.883   9.735 -0.0682 -0.0828  0.0333
65501W        W 8418   2.665  32.388  10.137  0.1397 -0.0202  0.1430
65502W        W 8419   4.084  30.719   9.184 -0.0456 -0.0878 -0.0192
65503W        W 8420   1.086  33.070   8.885  0.1033  0.0690  0.2041
65504W        W 8421   0.975   0.896   9.961 -0.4181  0.4272 -0.1567
65505W        W 8422   2.406  32.343  10.652 -0.0710 -0.3680  0.1204
65506W        W 8423   2.753  27.282   9.888  0.2303 -0.1017  0.4350
65507W        W 8424   2.809  31.325  10.232 -0.2623  0.1089  0.0971
65508W        W 8425   0.623  33.567   9.717 -0.0700  0.1635  0.0571
65509W        W 8426   3.716  29.601  11.368  0.4323  0.2102 -0.1245
65510W        W 8427   1.519  29.116   9.996 -0.3866 -0.1042 -0.2397
65511W        W 8428   3.296  28.665  10.208  0.0634 -0.1059  0.1040
65512W        W 8429   5.101  32.194   9.522 -0.0201 -0.1217 -0.0795
65513W        W 8430   4.031  32.193  10.420  0.1757  0.4413 -0.1988
65514W        W 8431   0.426  34.594   0.538  0.0066 -0.0792 -0.0913
65515W        W 8432   1.492   0.069  31.578 -0.1713 -0.0403  0.0118
65516W        W 8433   3.497   1.576   0.196  0.0755  0.2401 -0.3033
65517W        W 8434   0.526  33.012   0.586  0.1428  0.1716  0.1663
65518W        W 8435   0.333  33.442   4.361  0.2608 -0.3774  0.1014
65519W        W 8436   3.711   1.264  31.095 -0.0107 -0.0669 -0.0521
65520W        W 8437   0.550  33.993   3.440  0.3827  0.2122 -0.0146
65521W        W 8438   2.122  34.319   0.389  0.3571 -0.1118 -0.1524
65522W        W 8439  34.642  32.782   2.809 -0.1099  0.0260  0.0269
65523W        W 8440   2.395  34.259   3.983 -0.0545  0.1231 -0.0075
65524W        W 8441   1.426   0.963  31.660  0.0126 -0.1294 -0.0038
65525W        W 8442   2.835  32.855   1.238 -0.3543 -0.2269  0.1883
65526W        W 8443   1.156   0.777   0.732 -0.0165  0.1908 -0.1642
65527W        W 8444   3.228  34.210   0.639 -0.1276 -0.0276 -0.1919
65528W        W 8445   1.977  33.085   3.924  0.1922 -0.2128 -0.0576
65529W        W 8446   1.578  33.299  31.754  0.3954 -0.1228 -0.0964
65530W        W 8447   3.232   0.652   0.328 -0.0995  0.2631  0.0229
65531W        W 8448   1.652   0.566   0.863 -0.1176  0.0424 -0.2406
65532W        W 8449   1.161  33.044   2.361 -0.2142 -0.1521 -0.2433
65533W        W 8450   3.436   1.929   0.569 -0.3361 -0.2133 -0.1961
65534W        W 8451   2.477  34.149   2.662  0.0578  0.1617  0.0364
65535W        W 8452   0.698  34.585   1.843 -0.1353 -0.2972 -0.1175
65536W        W 8453   2.066   0.785   0.748  0.3195  0.3125 -0.0666
65537W        W 8454   5.200  32.048   4.948  0.0347  0.1570 -0.1475
65538W        W 8455   4.022   1.352   0.448 -0.1040 -0.0512 -0.0976
65539W        W 8456   4.316  33.573   0.500  0.1007  0.0737 -0.0635
65540W        W 8457   4.757  32.930   1.104  0.0614  0.2457 -0.2020
65541W        W 8458   0.725  32.989   1.065 -0.2077 -0.0243  0.1459
65542W        W 8459   0.735  34.045   2.095 -0.0381 -0.0747  0.0270
65543W        W 8460   1.905   0.724   2.847 -0.4264  0.1530  0.1100
65544W        W 8461   2.717  33.985   0.461  0.1857  0.2291  0.0468
65545W        W 8462   0.838   2.657   0.259  0.0680 -0.3303  0.1453
65546W        W 8463   0.449   0.394  31.674 -0.0467  0.0178 -0.0746
65547W        W 8464   0.129   0.843   3.812  0.0926 -0.0306 -0.0907
65548W        W 8465   1.919   0.970   2.315  0.2240  0.1318  0.2115
65549W        W 8466  34.124  32.459  31.899 -0.0405  0.1216  0.2993
65550W        W 8467   4.910  33.737   1.220 -0.2828  0.2141 -0.0708
65551W        W 8468   2.717  31.338   4.173  0.0858 -0.0739  0.0051
65552W        W 8469   2.766  33.694   2.569 -0.1156  0.1152 -0.0500
65553W        W 8470   2.792   0.074   0.018 -0.2022  0.1300  0.1042
65554W        W 8471  34.465  33.956   3.098  0.0467  0.0114  0.1020
65555W        W 8472  33.610  32.830   1.969 -0.1206 -0.1993  0.0839
65556W        W 8473   3.901  32.316  31.898  0.1264  0.0064  0.0941
65557W        W 8474   1.599   1.742   2.140  0.1052 -0.3502  0.0964
65558W        W 8475   4.809  33.521   2.115  0.1959 -0.0576 -0.0847
65559W        W 8476   2.781  34.372   0.938  0.1871 -0.0180 -0.0379
65560W        W 8477   2.354   1.040   2.005 -0.1946 -0.2533  0.0118
65561W        W 8478   1.011  33.371   0.518 -0.0342 -0.0767 -0.2885
65562W        W 8479   1.544  34.191   0.414  0.2300 -0.1996  0.2040
65563W        W 8480   1.474  33.157   1.401 -0.4250  0.0162  0.3261
65564W        W 8481   5.877  32.411   2.572 -0.2591  0.3073  0.0091
65565W        W 8482   1.032   0.253   0.785  0.1247  0.1046  0.2178
65566W        W 8483   3.660  32.283   1.357 -0.1616  0.1869  0.1402
65567W        W 8484   2.061   0.437   1.123 -0.1494  0.1619 -0.0201
65568W        W 8485   4.205   0.645   3.566  0.0979 -0.0153 -0.0508
65569W        W 8486   1.942   0.369   3.796  0.2416 -0.0389 -0.1949
65570W        W 8487   1.853  33.930   0.727  0.0291  0.0616 -0.3478
65571W        W 8488   4.025  32.679   2.609 -0.1081 -0.0380 -0.1077
65572W        W 8489   3.518  32.985   3.192 -0.0765 -0.3254 -0.3949
65573W        W 8490   2.158  33.016   2.050 -0.0368  0.2485 -0.1088
65574W        W 8491   3.005  33.593   0.668 -0.2202 -0.0191  0.1281
65575W        W 8492   0.690  33.798  31.223 -0.0753  0.1384 -0.2383
65576W        W 8493   5.000  31.653   3.269  0.1697  0.0355 -0.1717
65577W        W 8494   4.172   0.641   1.928 -0.4057 -0.1896  0.2117
65578W        W 8495   1.225  33.855   2.121  0.0567 -0.3359 -0.3218
65579W        W 8496  34.306  33.714  31.898 -0.0003 -0.1569  0.0613
65580W        W 8497   2.996  32.045  31.615 -0.1079 -0.0497 -0.0967
65581W        W 8498   1.988  33.357  30.660 -0.1198 -0.1368  0.0241
65582W        W 8499   0.875  33.692  31.656  0.0466  0.2033 -0.1583
65583W        W 8500   1.421  32.831  31.838  0.1794  0.1685  0.1192
65584W        W 8501   3.468  33.042  30.978 -0.1779 -0.2513 -0.2037
65585W        W 8502   1.040  34.467   2.777 -0.0209  0.1761  0.1485
65586W        W 8503   3.139  33.890  31.585  0.2168  0.0813 -0.2784
65587W        W 8504   5.028  31.703   1.811 -0.0920  0.0534  0.1305
65588W        W 8505   3.003  32.279   3.950 -0.2403 -0.2921 -0.1267
65589W        W 8506   3.423  32.733   3.884  0.1352  0.1811 -0.0896
65590W        W 8507   1.489  33.492   2.412  0.2381  0.0155 -0.0215
65591W        W 8508   4.508  32.666   3.864  0.4882  0.4437  0.3324
65592W        W 8509   3.989  34.220  31.355  0.0148 -0.0982 -0.1322
65593W        W 8510   3.965   0.193   2.239  0.3710 -0.1510  0.0659
65594W        W 8511   0.666  34.117  30.311  0.2751  0.0007 -0.2188
65595W        W 8512   3.008  32.675   2.445 -0.0394 -0.2499  0.1474
65596W        W 8513   2.038  34.209   1.676  0.0669  0.3387  0.1689
65597W        W 8514   1.898   0.193   0.680 -0.1540 -0.1402 -0.1954
65598W        W 8515   1.770  33.427   0.582  0.0436  0.1001 -0.3198
65599W        W 8516   3.508  32.081   3.286  0.1704 -0.0240  0.0676
65600W        W 8517   0.668  34.340  31.210  0.3269 -0.4346  0.1629
65601W        W 8518   0.361   0.221  30.417  0.0417 -0.1700  0.1835
65602W        W 8519   2.709  32.806   0.635  0.0618 -0.1384 -0.0217
65603W        W 8520   0.061   1.294   2.269  0.0477  0.1961  0.1716
65604W        W 8521   3.704  33.096   2.739 -0.0675  0.1439  0.1134
65605W        W 8522   3.196  32.176   4.478 -0.0876  0.1468  0.0009
65606W        W 8523   3.869  33.433  31.804  0.0650 -0.1373  0.2185
65607W        W 8524   0.754   2.878   1.927 -0.0912 -0.2325 -0.0027
65608W        W 8525   1.376  33.382   1.944  0.1283 -0.0800 -0.1656
65609W        W 8526   4.002  32.654   1.518 -0.2626 -0.1188 -0.3008
65610W        W 8527  33.990  32.864   2.219  0.0692  0.2033 -0.0531
65611W        W 8528   2.381  33.257   0.359 -0.0260  0.0523 -0.1825
65612W        W 8529  34.500  33.581   3.481  0.1418  0.1031  0.0723
65613W        W 8530   2.560  33.261   0.835 -0.1423  0.2201  0.0170
65614W        W 8531   1.360  32.183   1.734  0.3617  0.1329  0.0976
65615W        W 8532   1.923  34.606   1.271 -0.1832 -0.2563 -0.1582
65616W        W 8533   1.981  33.332   2.416  0.1811  0.0560 -0.2065
65617W        W 8534   3.297  31.787   2.523  0.0404 -0.2333 -0.2145
65618W        W 8535   3.078  33.188   1.612  0.0333  0.0703 -0.3515
65619W        W 8536   3.209  32.851   2.839 -0.1358 -0.1288  0.0756
65620W        W 8537   2.375  34.120   0.845 -0.0103 -0.0153 -0.0512
65621W        W 8538   1.775  33.846   2.190  0.0042  0.0648  0.3263
65622W        W 8539   6.118  33.249   2.565  0.1262 -0.1683  0.3418
65623W        W 8540   4.059  34.367  31.949 -0.0357 -0.1841  0.1224
65624W        W 8541   2.810  32.161   2.017 -0.2220 -0.2831  0.0516
65625W        W 8542   1.202  32.967   0.777  0.3283  0.0764 -0.0370
65626W        W 8543  33.984   1.865   1.959  0.1340 -0.0641 -0.1960
65627W        W 8544   1.493  34.083   2.526 -0.1353  0.0376  0.1008
65628W        W 8545   3.688  31.845   2.184 -0.1046 -0.2177  0.2233
65629W        W 8546   3.254  33.147   2.455  0.0327  0.1962 -0.0136
65630W        W 8547   1.562  34.102   1.149  0.1462  0.0696 -0.1181
65631W        W 8548   4.333  32.556   3.167 -0.0613  0.0131 -0.0204
65632W        W 8549   1.232   1.176   1.473  0.2398 -0.3040 -0.0793
65633W        W 8550   2.493  34.222   1.415  0.0549  0.0921 -0.0552
65634W        W 8551   1.215  33.292   3.604  0.2683  0.0317  0.2573
65635W        W 8552   1.555  34.549   2.658 -0.0315 -0.3641 -0.2328
65636W        W 8553   4.053  32.632   3.619 -0.0905  0.0877 -0.0563
65637W        W 8554   3.397  34.038   1.173  0.0613 -0.0368  0.2248
65638W        W 8555  34.506  32.987   2.297 -0.3125 -0.0938 -0.0435
65639W        W 8556   0.664  34.660   4.159  0.2097  0.1083 -0.1611
65640W        W 8557   2.433   0.429   0.756 -0.0201 -0.1587  0.0548
65641W        W 8558   2.911  32.146   3.363 -0.1159 -0.1916 -0.0448
65642W        W 8559   2.743   0.869   0.120 -0.3838 -0.0922 -0.1028
65643W        W 8560   1.738  33.757  31.596  0.1280 -0.0789  0.2410
65644W        W 8561   1.394  33.730   0.636  0.4982 -0.0128 -0.0005
65645W        W 8562   4.106  33.990   3.457 -0.0297 -0.2206 -0.1058
65646W        W 8563   2.932  31.898   0.174  0.0713  0.0667  0.2382
65647W        W 8564   6.055   0.177   3.836 -0.1475 -0.0657 -0.1403
65648W        W 8565   0.381  33.727   1.809  0.0544  0.2780 -0.0352
65649W        W 8566  34.401   0.441   0.321  0.1938  0.0268  0.1478
65650W        W 8567   4.849  32.824  31.297  0.0803 -0.1414 -0.0678
65651W        W 8568   0.107  34.415  30.589  0.3138  0.1084 -0.3176
65652W        W 8569   2.429  34.051   0.016  0.2679 -0.0721  0.1314
65653W        W 8570   2.550  33.015   3.690  0.1571 -0.3286  0.3116
65654W        W 8571   2.478  33.936   2.210  0.2968 -0.1523 -0.1589
65655W        W 8572   3.671  33.162   3.659  0.3679 -0.3087  0.0614
65656W        W 8573   1.999  33.903   1.276  0.1376 -0.0221 -0.0991
65657W        W 8574   2.238   0.094   3.338  0.1578  0.1269 -0.0455
65658W        W 8575   3.529  33.307   0.742 -0.0913  0.1249  0.3949
65659W        W 8576   3.084   1.601   0.665  0.2311  0.6055  0.2809
65660W        W 8577  33.271  33.384   2.649 -0.0455 -0.1793 -0.1623
65661W        W 8578   4.134  33.226   0.849  0.1625  0.0272 -0.0802
65662W        W 8579   2.748  34.159   1.840  0.1454 -0.3996 -0.1752
65663W        W 8580   5.286  32.961   2.167  0.0284 -0.2369 -0.0798
65664W        W 8581   1.977  34.310   2.320  0.1151  0.1637 -0.0124
65665W        W 8582   4.616   0.470   1.719 -0.0591 -0.3635 -0.1766
65666W        W 8583   2.830  33.367   1.243  0.1444  0.0263 -0.0876
65667W        W 8584   1.547  33.712   0.102 -0.1866 -0.0899 -0.0122
65668W        W 8585  34.169  33.425   2.127 -0.4199 -0.0373 -0.0433
65669W        W 8586   3.955  33.264   4.411 -0.1654 -0.0374 -0.0871
65670W        W 8587   0.702  33.457   1.304  0.1534 -0.2076 -0.1318
65671W        W 8588   2.979   1.751   0.190 -0.0466 -0.2642  0.0108
65672W        W 8589   4.062  34.332   2.945  0.1986 -0.5342 -0.1535
65673W        W 8590   1.289   1.649   1.346  0.0007  0.1740  0.3354
65674W        W 8591   0.645   0.038   0.989  0.0665 -0.1052 -0.0644
65675W        W 8592   4.332   0.031   1.872 -0.0545  0.1722  0.1565
65676W        W 8593   0.983  32.291   2.103 -0.1692 -0.0964  0.0821
65677W        W 8594   4.519  33.581   3.053  0.1466 -0.2459 -0.0796
65678W        W 8595   1.351   0.955   0.260 -0.1840  0.0061 -0.0183
65679W        W 8596   1.634  33.923   1.747 -0.1091  0.0538  0.2607
65680W        W 8597   1.302  33.664   1.539 -0.0875  0.2170 -0.1162
65681W        W 8598   1.275  32.379   0.227  0.1881  0.0338 -0.1221
65682W        W 8599   3.455   0.290   2.381  0.3377 -0.0107  0.3249
65683W        W 8600   3.270  33.553   1.129 -0.0796 -0.0789  0.1414
65684W        W 8601  33.532  33.918   0.644 -0.0166  0.3694 -0.0822
65685W        W 8602   3.076  33.130   0.903 -0.1132  0.3302 -0.0403
65686W        W 8603   3.213   0.341   1.473 -0.2673  0.3360  0.0501
65687W        W 8604   1.229   0.189   2.494  0.1800  0.0040  0.2741
65688W        W 8605   0.801  32.269  31.273  0.1922 -0.1997  0.1808
65689W        W 8606   3.313  33.916   3.143 -0.0207  0.0660  0.1211
65690W        W 8607   4.300  33.109   0.220  0.0457 -0.0160 -0.1773
65691W        W 8608   0.519   0.764   1.524  0.1859  0.0675 -0.2808
65692W        W 8609   3.639  33.346  30.463 -0.1767 -0.1466 -0.1256
65693W        W 8610   2.140  33.810   2.533  0.0999  0.1313  0.0538
65694W        W 8611   4.339  33.589  31.909 -0.0881  0.0521  0.0709
65695W        W 8612   3.265  32.497   3.429  0.1731 -0.0373  0.0769
65696W        W 8613   1.506  31.583   4.677  0.1026  0.1330 -0.0030
65697W        W 8614   2.762   0.285   1.137 -0.3791  0.0603 -0.3072
65698W        W 8615   0.195   0.427   0.576 -0.0073  0.1455 -0.1896
65699W        W 8616   5.182  32.577   1.870 -0.3056  0.0622  0.2524
65700W        W 8617   6.235  31.888   2.049  0.0901 -0.2431 -0.2719
65701W        W 8618   1.500   1.740   2.633 -0.0242 -0.2941 -0.0227
65702W        W 8619   2.439  34.480  31.080  0.0862  0.0156 -0.0353
65703W        W 8620   1.808  32.782   3.081  0.5297 -0.1775  0.2629
65704W        W 8621   1.096   0.066   1.586  0.0888 -0.2974  0.2330
65705W        W 8622   0.707   0.305   1.402 -0.0385 -0.0623 -0.0475
65706W        W 8623   1.913  32.659  31.758  0.2502 -0.0376 -0.2228
65707W        W 8624   1.951  33.426   1.402 -0.0526  0.1984  0.1037
65708W        W 8625   0.037  33.598   0.878 -0.1644  0.2119  0.0351
65709W        W 8626   3.996  32.775  31.492 -0.0175 -0.0018  0.0573
65710W        W 8627   2.648  32.426   1.510  0.1936  0.0024  0.0274
65711W        W 8628   0.927  33.993   3.036  0.3181 -0.2034 -0.1243
65712W        W 8629  33.381  31.963  31.460 -0.2889 -0.0624 -0.1630
65713W        W 8630   1.063  34.398   2.259 -0.0880 -0.1379 -0.0288
65714W        W 8631   1.322  33.760   3.413  0.0776  0.0057 -0.3391
65715W        W 8632   4.337  33.683   2.068  0.2605 -0.0393  0.1666
65716W        W 8633   2.534  33.091   1.691 -0.0854 -0.2655  0.1778
65717W        W 8634   0.853  32.813   2.056 -0.1470  0.2698  0.0574
65718W        W 8635   3.220  32.291   0.037  0.2957  0.0866  0.2067
65719W        W 8636   3.415  31.877   1.685  0.2550  0.2191  0.1248
65720W        W 8637   0.357   0.391   1.089 -0.1005  0.3267 -0.1605
65721W        W 8638   3.053  33.791   1.526  0.3079  0.1009 -0.1045
65722W        W 8639   1.620  33.157   2.753 -0.2295 -0.0106  0.1065
65723W        W 8640   2.539  34.122  30.655 -0.3237  0.0435 -0.0741
65724W        W 8641   3.229  34.348   1.887 -0.1580 -0.1718 -0.1720
65725W        W 8642   0.359  33.848   1.158 -0.0925 -0.1436  0.0916
65726W        W 8643   2.716   2.603   0.904 -0.2967 -0.0767  0.1785
65727W        W 8644   2.836   0.986   2.124  0.0502  0.2033 -0.0345
65728W        W 8645   1.516  34.416   1.512  0.0766  0.2652  0.1804
65729W        W 8646  34.564  33.982   1.149  0.2640 -0.2852  0.2313
65730W        W 8647   4.333  32.538  31.797  0.1511  0.3582 -0.3274
65731W        W 8648   1.812  32.310   3.335 -0.0704  0.2074 -0.1054
65732W        W 8649   2.171  34.318   3.497 -0.1610  0.2452 -0.5397
65733W        W 8650   4.552   0.388   4.250  0.3243 -0.0751  0.1350
65734W        W 8651   2.070  33.062   3.401 -0.2825 -0.3237  0.3630
65735W        W 8652   1.200  32.953   5.587  0.0089  0.1568  0.0614
65736W        W 8653   2.368  34.522   2.017  0.3818 -0.0286  0.1956
65737W        W 8654   2.881  33.137   6.056 -0.2147 -0.1033 -0.1168
65738W        W 8655   1.291  31.851   2.147 -0.0046 -0.1854 -0.0862
65739W        W 8656  34.467  32.572   5.430 -0.1300 -0.1125 -0.0642
65740W        W 8657   3.632  33.371   7.787  0.2251  0.0302  0.1572
65741W        W 8658   0.791   1.551   3.206 -0.1855 -0.2228  0.1371
65742W        W 8659   1.225  33.834   4.402  0.0377  0.2540  0.1027
65743W        W 8660   3.551  33.955   4.116 -0.1163  0.2074 -0.1117
65744W        W 8661   1.900  31.292   6.930  0.1790  0.1299  0.3179
65745W        W 8662   3.875  31.542   7.625  0.4081  0.2119  0.0115
65746W        W 8663   0.360   1.185   1.736 -0.2442 -0.0348  0.1945
65747W        W 8664   1.951   0.090   5.798  0.1447 -0.2496  0.1007
65748W        W 8665   2.061  33.356   6.475 -0.3281 -0.0290 -0.0537
65749W        W 8666   5.277  34.006   3.905  0.0732 -0.0061  0.0211
65750W        W 8667   3.833  34.264   3.879 -0.0431 -0.0083  0.0125
65751W        W 8668   3.127  32.737   5.194  0.0988 -0.0402  0.1202
65752W        W 8669   2.416  32.035   5.656  0.0312  0.0040 -0.0642
65753W        W 8670   3.168  33.762   3.862  0.2308  0.1293 -0.3406
65754W        W 8671   5.220  33.823   8.158  0.1108 -0.5558  0.2012
65755W        W 8672   0.859  34.538   3.717  0.2139  0.1151 -0.0309
65756W        W 8673   1.713   0.869   4.796 -0.1376  0.0764  0.0286
65757W        W 8674   3.197  33.190   3.940  0.0714 -0.1838 -0.1306
65758W        W 8675   2.384  33.111   4.633 -0.2499 -0.1699 -0.0426
65759W        W 8676   1.346  33.812   6.337 -0.1093  0.3246 -0.0175
65760W        W 8677   1.929  32.843   4.763  0.2377  0.3295  0.0093
65761W        W 8678   2.555  32.269   5.125  0.2451  0.2591  0.0294
65762W        W 8679   2.700  33.519   4.591  0.0209  0.0862 -0.3894
65763W        W 8680   1.154  32.822   3.636  0.1538 -0.1039 -0.2808
65764W        W 8681   1.079  33.821   6.808  0.0691 -0.2764  0.0948
65765W        W 8682   2.745  32.524   5.533  0.2064  0.0534  0.0848
65766W        W 8683   1.897  33.405   1.896 -0.2433 -0.3528 -0.3992
65767W        W 8684   4.438  33.453   4.087  0.1015  0.1597 -0.2407
65768W        W 8685   1.192  34.335   5.060 -0.1033 -0.0299 -0.0291
65769W        W 8686   4.355  32.575   5.886 -0.0391 -0.1185 -0.1554
65770W        W 8687   3.177  34.625   4.500  0.1814  0.0076 -0.0477
65771W        W 8688   3.704  32.307   6.339  0.2206  0.2254  0.2061
65772W        W 8689  33.500  32.998   7.041 -0.2355 -0.2050  0.2491
65773W        W 8690   4.552  33.724   3.543  0.0914  0.4488 -0.1819
65774W        W 8691   0.125  32.813   4.581 -0.1642 -0.0514 -0.1260
65775W        W 8692   3.907  32.221   5.258 -0.0130  0.0560 -0.1104
65776W        W 8693   2.887  32.746   3.925 -0.0280 -0.2944 -0.1211
65777W        W 8694   0.513  33.037   6.452  0.0355 -0.0089  0.1782
65778W        W 8695   2.155  32.595   3.645 -0.2027  0.0328 -0.0397
65779W        W 8696   0.874  30.790   6.115  0.1008 -0.0194 -0.1681
65780W        W 8697  33.944  32.101   3.679  0.3115  0.2068 -0.1834
65781W        W 8698   5.053   0.981   5.699  0.1516 -0.0882  0.2774
65782W        W 8699   2.386  30.520   3.416  0.2548  0.1124  0.1192
65783W        W 8700   3.040  33.531   4.981 -0.2764  0.0365 -0.0466
65784W        W 8701   1.671  32.193   5.388  0.0796 -0.1980  0.0666
65785W        W 8702   4.356  33.583   5.212  0.1332  0.4591 -0.2653
65786W        W 8703   0.800  33.441   6.669 -0.0941  0.0414  0.4192
65787W        W 8704   1.525  33.812   5.030 -0.1974  0.2132  0.0020
65788W        W 8705   0.584  34.267   2.810 -0.2986  0.0735  0.2544
65789W        W 8706   4.844  33.425   6.554 -0.0268  0.1991  0.0047
65790W        W 8707   2.350   1.265   3.542 -0.4040  0.1505  0.2888
65791W        W 8708   0.250  33.720   3.156  0.1880  0.0122  0.1052
65792W        W 8709   2.279  32.590   3.120  0.1184  0.1366 -0.4099
65793W        W 8710   3.184  33.548   4.351  0.0491 -0.0558  0.1672
65794W        W 8711   2.524  33.588   6.102 -0.2086 -0.0232  0.0697
65795W        W 8712   3.364  32.018   6.666  0.0568  0.2302  0.1044
65796W        W 8713   0.021  33.999   3.628 -0.2380 -0.1736 -0.1521
65797W        W 8714   2.310  33.873   3.053  0.1970 -0.4267 -0.0869
65798W        W 8715   4.707   0.790   4.655  0.2062 -0.1359 -0.1001
65799W        W 8716   1.641  32.940   2.183  0.0323 -0.0285  0.1688
65800W        W 8717   0.335  31.833   2.067  0.0278 -0.0173  0.1082
65801W        W 8718   2.798  34.459   4.761  0.1667  0.2239  0.4337
65802W        W 8719   0.834  34.140   5.341  0.2034 -0.1803  0.0013
65803W        W 8720   1.583  34.167   4.664 -0.2762  0.0565 -0.0287
65804W        W 8721   4.200  30.906   3.532  0.0845 -0.0622  0.1610
65805W        W 8722   3.922  33.854   6.609  0.0065 -0.2216 -0.0233
65806W        W 8723   3.272  32.667   4.388  0.1164 -0.1652 -0.0556
65807W        W 8724   1.792  30.807   6.643 -0.0248  0.3678 -0.3118
65808W        W 8725   6.800   0.570   4.741 -0.1720 -0.1969  0.0295
65809W        W 8726   2.696  33.742   4.148  0.0973 -0.1073  0.0268
65810W        W 8727   5.142   0.550   4.812 -0.0613  0.0593 -0.0486
65811W        W 8728   1.237  34.516   3.393  0.3779 -0.3296  0.1684
65812W        W 8729   3.908  29.698   7.198  0.0526  0.2017  0.0538
65813W        W 8730   1.308  31.764   5.198 -0.0654  0.1540  0.0871
65814W        W 8731   1.713  31.987   4.856 -0.1568  0.3014 -0.0387
65815W        W 8732   1.269  32.533   5.352 -0.0956  0.2326  0.0220
65816W        W 8733   2.249  33.543   4.622  0.0189 -0.0928 -0.2380
65817W        W 8734   1.970  33.866   3.427  0.3002 -0.1513 -0.2527
65818W        W 8735   1.960  31.439   3.114  0.0422  0.1250  0.0616
65819W        W 8736   4.050  33.971   4.776  0.1663 -0.0154 -0.1285
65820W        W 8737   0.539  32.080   5.604 -0.0168  0.0904  0.0476
65821W        W 8738   2.704  33.168   4.234  0.2591  0.0952 -0.0408
65822W        W 8739   3.388  32.693   6.440  0.0263  0.0936  0.2041
65823W        W 8740   3.940  32.775   4.622  0.1301  0.1168 -0.3969
65824W        W 8741   4.251   0.639   8.920  0.1851 -0.1339  0.2961
65825W        W 8742   1.176  31.384   1.892  0.4212 -0.3400 -0.0613
65826W        W 8743   7.987  34.043   4.759 -0.3645 -0.1259  0.2575
65827W        W 8744   1.619  34.217   3.602  0.0183  0.2115 -0.4002
65828W        W 8745   2.369   0.271   4.760  0.2964  0.0037 -0.2393
65829W        W 8746   1.684  33.037   6.171  0.0280 -0.2626 -0.0985
65830W        W 8747   3.388  32.458   4.824  0.2183 -0.2257 -0.0313
65831W        W 8748   2.007  32.159   3.828  0.2648 -0.2395 -0.2809
65832W        W 8749   3.345  33.259   5.278 -0.0665 -0.2852  0.0084
65833W        W 8750   3.152  34.612   6.616  0.0243  0.2153  0.0430
65834W        W 8751   2.252  33.998   5.381 -0.0494  0.2651  0.0641
65835W        W 8752   4.371   1.531   6.123  0.3501  0.2850  0.1742
65836W        W 8753   1.409  33.524   7.160  0.2490 -0.0178 -0.3005
65837W        W 8754   4.333  32.237   5.540  0.0971 -0.1612 -0.0446
65838W        W 8755   3.644  33.866   7.071  0.1720 -0.3287  0.2168
65839W        W 8756   4.550  34.523   9.037 -0.0592  0.1982  0.0273
65840W        W 8757   4.771  34.582   3.343  0.2742  0.1812 -0.0828
65841W        W 8758   3.898  33.076   6.506 -0.1553  0.2567  0.0546
65842W        W 8759   0.964  32.119   5.356  0.0506 -0.0244  0.0024
65843W        W 8760  34.404  34.132   6.106 -0.0004 -0.2943 -0.1990
65844W        W 8761   2.413  34.523   8.136  0.1387  0.2229  0.0891
65845W        W 8762   3.906  33.857   2.231  0.1187  0.1544 -0.1675
65846W        W 8763  33.881  30.713   5.064  0.0081 -0.0464 -0.1768
65847W        W 8764   0.906  33.145   5.171 -0.0347 -0.1136 -0.0209
65848W        W 8765   4.844  33.254   3.683  0.0971 -0.4479  0.0093
65849W        W 8766   0.350   0.096   5.053 -0.2837 -0.1034  0.1517
65850W        W 8767   3.600   0.212   4.847  0.1238  0.1243  0.3577
65851W        W 8768   1.747  33.512   6.127  0.0433  0.0118  0.0561
65852W        W 8769   3.856  34.126   5.728 -0.0219 -0.1985  0.0369
65853W        W 8770   3.643  33.076   5.665 -0.0376  0.1876  0.4924
65854W        W 8771   3.607  33.927   7.651  0.0418  0.1024 -0.1160
65855W        W 8772   3.131  32.558   7.208 -0.0286  0.2487 -0.0874
65856W        W 8773   0.034  32.054   5.616 -0.1610  0.0302 -0.1318
65857W        W 8774   4.504  33.066   5.068 -0.2953  0.1701  0.3013
65858W        W 8775   3.541  33.091   4.811 -0.2657  0.4161 -0.1272
65859W        W 8776   2.892   0.604   5.403  0.0145  0.0861 -0.1620
65860W        W 8777   3.793   1.000   3.512 -0.0427 -0.0936 -0.1406
65861W        W 8778   0.627  31.471   3.550  0.1884 -0.4279  0.0009
65862W        W 8779   4.528  33.506   7.944 -0.0482 -0.2913  0.3005
65863W        W 8780   3.182  34.032   2.685  0.1725  0.3744  0.0766
65864W        W 8781   2.811  33.909   5.703  0.1181  0.0412  0.2118
65865W        W 8782   3.744  32.574   3.137 -0.1176 -0.1589 -0.1168
65866W        W 8783  33.614  32.688   4.395  0.0505 -0.1350 -0.0551
65867W        W 8784   0.241  34.061   5.583  0.1563  0.2868 -0.1752
65868W        W 8785   1.707  34.547   3.157 -0.0252  0.0115 -0.0381
65869W        W 8786   3.641  33.478   4.031  0.1012 -0.0304  0.1750
65870W        W 8787   3.262  34.195   7.074  0.1459  0.3582  0.4083
65871W        W 8788   3.209  31.220   4.411  0.1752 -0.1646  0.1195
65872W        W 8789   3.773  32.732   6.113 -0.0515  0.0677 -0.0815
65873W        W 8790   3.245  33.782   5.382  0.2235 -0.0655 -0.1303
65874W        W 8791   2.685   0.126   5.163  0.1131  0.3096 -0.0846
65875W        W 8792   5.141   0.019   8.172 -0.0195 -0.0473 -0.0714
65876W        W 8793   2.423  33.486   3.315 -0.2140 -0.0043  0.3390
65877W        W 8794   0.101  30.823   6.412  0.1777  0.2987  0.0623
65878W        W 8795   0.198  33.279   3.428 -0.2828 -0.2638 -0.0135
65879W        W 8796   1.562  34.611   4.376  0.0486 -0.3642 -0.1398
65880W        W 8797   4.036  33.159   4.987  0.1475 -0.1055 -0.1443
65881W        W 8798   3.579  33.582   6.218 -0.0038 -0.2730 -0.2001
65882W        W 8799   4.298  33.858   5.691 -0.1459 -0.3894 -0.1103
65883W        W 8800   3.348  33.976   5.860  0.0258  0.0744 -0.1796
65884W        W 8801   0.959   0.083   5.123  0.0334  0.0739 -0.0909
65885W        W 8802   1.967  34.163   8.216 -0.2025 -0.1703 -0.4283
65886W        W 8803   4.270  34.081   7.941  0.2922  0.0828 -0.3228
65887W        W 8804   0.854  33.566   3.221  0.2368  0.2555  0.2168
65888W        W 8805   1.837  33.259   4.356  0.0725 -0.0919 -0.0773
65889W        W 8806   6.074  32.793   5.839 -0.3567  0.0506  0.1510
65890W        W 8807   2.176  31.344   4.364  0.0184  0.2007 -0.0446
65891W        W 8808   1.800  32.614   4.113  0.0915 -0.2025 -0.1235
65892W        W 8809   3.280   0.419   3.399 -0.2302  0.1247  0.2452
65893W        W 8810   3.813  33.617   5.171  0.2365  0.0892  0.1110
65894W        W 8811   4.335  32.834   6.398 -0.1497 -0.0914  0.1490
65895W        W 8812   1.765  33.410   4.851  0.0620 -0.3740 -0.0784
65896W        W 8813   4.075  33.474   3.748  0.0598 -0.3034 -0.1642
65897W        W 8814   0.630  33.918   7.131 -0.0062 -0.1989 -0.0333
65898W        W 8815   3.855  34.409   3.391  0.0838  0.0599  0.3450
65899W        W 8816   2.854  34.559   7.050 -0.1035 -0.1742  0.0735
65900W        W 8817   1.990  31.964   2.964  0.0264 -0.4065 -0.0914
65901W        W 8818   0.217  31.778   4.913  0.0912 -0.0746 -0.4470
65902W        W 8819   3.788  33.610   2.692 -0.0751  0.0436 -0.3358
65903W        W 8820   3.978   0.794   5.696 -0.0023 -0.3524 -0.0906
65904W        W 8821   1.082  32.739   4.891  0.0974  0.1519  0.2360
65905W        W 8822   0.787  33.037   6.949 -0.2362 -0.0412 -0.0781
65906W        W 8823   4.469  34.124   6.061  0.1183 -0.4235  0.3386
65907W        W 8824   4.331  34.426   3.638  0.0448 -0.2787  0.0613
65908W        W 8825   0.001  32.957   5.661  0.1853 -0.3128  0.1183
65909W        W 8826   4.048  32.940   3.132  0.0639 -0.2637  0.2613
65910W        W 8827   3.287  34.257   3.875  0.0330  0.1610 -0.0800
65911W        W 8828   4.460  34.550   4.238  0.2001 -0.3754  0.0402
65912W        W 8829   3.056  32.712   6.079  0.1296  0.1020 -0.1436
65913W        W 8830   2.739  31.955   4.742 -0.0041 -0.0852  0.2108
65914W        W 8831   1.434  32.941   3.997  0.4366 -0.1701 -0.1821
65915W        W 8832   2.312  32.105   3.351 -0.2031 -0.2901 -0.0350
65916W        W 8833   5.059  33.860   4.737 -0.1438  0.0488 -0.1376
65917W        W 8834   4.091  31.556   4.369  0.4097 -0.1202  0.1241
65918W        W 8835   2.335  33.157   5.618 -0.2403  0.0799  0.1414
65919W        W 8836   0.696  33.566   3.721  0.1805 -0.0512 -0.2160
65920W        W 8837   2.040  32.332   8.287 -0.0300  0.1204 -0.0173
65921W        W 8838   2.798  33.081   5.051  0.1607 -0.0273 -0.1449
65922W        W 8839   1.066   0.872   4.034  0.2470 -0.1827  0.0116
65923W        W 8840   1.484  32.368   3.750 -0.1516 -0.1451  0.0816
65924W        W 8841  34.160  31.084   4.806  0.0867  0.3225 -0.0431
65925W        W 8842   0.298  31.201   3.194  0.0652 -0.3819  0.0241
65926W        W 8843   2.283  32.256   4.254 -0.3711 -0.0943  0.0060
65927W        W 8844   3.632  33.720   8.287  0.0940  0.0153  0.2830
65928W        W 8845   1.454  33.714   7.793 -0.0751  0.1416 -0.4357
65929W        W 8846   0.401  31.547   1.695  0.3905  0.3539  0.0595
65930W        W 8847   4.312  32.977   5.534 -0.1864 -0.2347 -0.1508
65931W        W 8848   0.263  31.652   5.440  0.1608  0.1166  0.0159
65932W        W 8849   4.353  33.386   6.589  0.0417 -0.0703 -0.2652
65933W        W 8850   3.784   0.378   4.377 -0.2099  0.1183 -0.0168
65934W        W 8851   1.712  33.813   7.344  0.6167  0.0765 -0.0302
65935W        W 8852   2.689  31.649   3.220  0.2447  0.1015  0.1872
65936W        W 8853   3.734  32.434   4.323  0.0317  0.3269 -0.1792
65937W        W 8854   0.252  32.290   5.227 -0.0549  0.1110  0.1880
65938W        W 8855   2.363  32.759   4.098 -0.1050 -0.3276  0.1296
65939W        W 8856   3.918  32.958   7.473  0.2808  0.2196  0.2163
65940W        W 8857   1.448  34.156   2.994 -0.0317  0.2802 -0.0781
65941W        W 8858   3.801  34.616   2.629 -0.1606 -0.1492  0.0282
65942W        W 8859   1.167  32.172   4.913  0.1929 -0.1545  0.0544
65943W        W 8860   1.423  34.085   5.432 -0.2819  0.3360 -0.0016
65944W        W 8861   2.331  34.363   5.007 -0.0366  0.1020  0.1069
65945W        W 8862   4.980  33.110   5.226  0.0435 -0.2821  0.0325
65946W        W 8863   0.702  33.434   4.747  0.3625 -0.0576 -0.3363
65947W        W 8864   2.909  34.075   5.145  0.2435  0.1170 -0.0745
65948W        W 8865   1.672  32.803   8.653 -0.0885  0.0156 -0.0029
65949W        W 8866   4.182  34.213   6.884 -0.4547 -0.3097 -0.1242
65950W        W 8867   5.265  32.071   6.892  0.0079 -0.2338 -0.0849
65951W        W 8868   0.701  31.069   8.154  0.3096  0.0301  0.1323
65952W        W 8869   3.660  34.321   7.352  0.3166 -0.3687  0.0760
65953W        W 8870   2.332  33.311  10.370 -0.1050  0.1920 -0.0318
65954W        W 8871   3.024  32.736   6.762  0.1391  0.2548 -0.1973
65955W        W 8872   1.664  32.260   9.827 -0.0381 -0.0223  0.0178
65956W        W 8873   2.797  32.728  10.557  0.0372  0.3642  0.2351
65957W        W 8874   1.717  33.329   7.588  0.0531 -0.1257  0.1743
65958W        W 8875   2.195  33.612   9.846 -0.1396 -0.1155  0.0259
65959W        W 8876   2.123  34.437   8.614  0.2236  0.1590  0.1082
65960W        W 8877   1.769  34.561  11.273  0.3537 -0.1701  0.3184
65961W        W 8878   0.666   0.026   7.049  0.1530 -0.1455 -0.1646
65962W        W 8879   0.489  34.263   9.883  0.2203  0.0423 -0.1620
65963W        W 8880   2.393   0.848  10.478  0.0378 -0.0601  0.0467
65964W        W 8881   3.356  34.673   9.614  0.2249 -0.0225 -0.1037
65965W        W 8882   3.034   0.719  11.060 -0.0813 -0.1617  0.1659
65966W        W 8883   1.989  33.220   8.775 -0.0628  0.0304 -0.2348
65967W        W 8884   2.241  33.635  10.730  0.3959  0.0855  0.0258
65968W        W 8885   4.694  34.477   8.189  0.0939 -0.0464 -0.0080
65969W        W 8886   1.922  32.051   5.798  0.1158  0.1053  0.1630
65970W        W 8887   3.364  32.492   5.698  0.1254 -0.1323 -0.3534
65971W        W 8888   2.304  33.684   8.854 -0.4808 -0.0126 -0.2057
65972W        W 8889   1.729  33.758   9.934 -0.2173 -0.0952  0.1681
65973W        W 8890   0.585  33.212   7.913  0.1836 -0.0747 -0.1098
65974W        W 8891   4.337  33.086   9.237  0.0859  0.0811  0.1074
65975W        W 8892   1.907  31.772   9.324 -0.0629 -0.1720 -0.1016
65976W        W 8893  34.575  33.434   7.074 -0.1667 -0.1522 -0.0596
65977W        W 8894   1.885  33.715   8.500  0.1014  0.1434  0.1728
65978W        W 8895   4.716  31.458   9.181  0.0369 -0.0775  0.0531
65979W        W 8896   3.394  33.678   9.753 -0.0829  0.1655  0.2808
65980W        W 8897   3.793  33.526   9.528  0.0591 -0.0404 -0.3442
65981W        W 8898   3.255   0.272  10.068 -0.2514 -0.1411  0.1578
65982W        W 8899  34.577   2.312   8.742  0.0576 -0.0462  0.1836
65983W        W 8900   5.855  33.139   8.851  0.0556  0.1380 -0.2310
65984W        W 8901   5.492  32.449   8.201  0.2565  0.0878 -0.1618
65985W        W 8902   3.391  32.991   7.469  0.1440  0.5540 -0.0893
65986W        W 8903   1.193  34.233  10.432  0.3893  0.1071 -0.0653
65987W        W 8904   0.677  31.607   7.944 -0.1373 -0.1370 -0.2837
65988W        W 8905  34.624  34.178   9.244 -0.0863 -0.1563  0.0481
65989W        W 8906   1.573  32.478   7.365 -0.2179 -0.1836  0.1955
65990W        W 8907   3.865  34.412   9.677  0.0649 -0.1316  0.2193
65991W        W 8908   0.670  33.784   9.150  0.2762  0.0906  0.1795
65992W        W 8909   0.132   1.003   9.025 -0.1487  0.1433  0.2857
65993W        W 8910   2.240  32.384   6.103 -0.1509  0.2222  0.0963
65994W        W 8911   1.705  31.937   8.116 -0.1467  0.0564  0.0983
65995W        W 8912   2.788   0.108   8.721 -0.1150  0.3447  0.1757
65996W        W 8913   0.256   0.164   7.300  0.1640 -0.2840  0.2817
65997W        W 8914   0.445  33.465   8.383  0.3762  0.0968  0.4691
65998W        W 8915   4.170  33.727   8.295  0.2099  0.0285  0.1527
65999W        W 8916   1.023  34.508   7.830 -0.0013 -0.0485 -0.0726
66000W        W 8917   3.667  32.313  10.025 -0.0152  0.0286  0.1376
66001W        W 8918   3.503   0.812   7.603 -0.0385 -0.0641  0.2703
66002W        W 8919   3.315  31.505   9.285 -0.1079  0.2437  0.0065
66003W        W 8920   1.305  32.953   7.311 -0.2102  0.1449 -0.1054
66004W        W 8921   2.287  32.589   9.229  0.0675  0.1151 -0.1427
66005W        W 8922   0.880  32.774  10.076  0.0628 -0.0072 -0.2626
66006W        W 8923   1.812  34.020   6.340  0.0394 -0.1793 -0.1358
66007W        W 8924   1.985  32.727   9.676 -0.1097 -0.2188 -0.2841
66008W        W 8925   0.670  28.220   9.387 -0.1172 -0.2766  0.0041
66009W        W 8926   0.268  33.433   9.348 -0.1812  0.1136  0.0439
66010W        W 8927   2.835  33.500   9.041 -0.1082 -0.2168  0.3028
66011W        W 8928   4.353   0.721  10.753 -0.1009 -0.1722  0.2072
66012W        W 8929   1.915  34.647   9.222  0.1201  0.0173  0.0828
66013W        W 8930   5.035   1.766  11.087 -0.2725 -0.0929 -0.1119
66014W        W 8931   2.869   0.298   9.750  0.0946 -0.0771  0.0613
66015W        W 8932   2.141  31.336   9.374 -0.1767 -0.0010 -0.0795
66016W        W 8933  34.042  34.113  10.077 -0.0825  0.1619  0.2905
66017W        W 8934   2.831  33.406   8.044 -0.4806 -0.3360 -0.3189
66018W        W 8935   0.776  32.498   9.482  0.0277  0.1872 -0.5224
66019W        W 8936   2.833  32.452   7.924  0.1850  0.0220  0.1428
66020W        W 8937   1.617  34.096  11.435 -0.0532  0.0578 -0.2660
66021W        W 8938   0.612  33.384   8.809  0.2245 -0.0099 -0.3061
66022W        W 8939   4.116  34.079   7.419  0.0389 -0.1518 -0.0760
66023W        W 8940   0.382  33.498   7.448  0.0168 -0.1517  0.0509
66024W        W 8941   1.346  31.807  10.735 -0.2016 -0.3667  0.0952
66025W        W 8942   1.405  33.568   9.563 -0.1143  0.2256  0.1272
66026W        W 8943   3.223  34.203   7.632  0.3250  0.0965 -0.1000
66027W        W 8944   3.185  33.911   9.262 -0.2756  0.0808  0.2328
66028W        W 8945   0.990  33.900   9.544 -0.1505  0.1029 -0.1905
66029W        W 8946   1.979  32.803   7.477 -0.1437  0.0023 -0.1599
66030W        W 8947   0.950   0.451  10.154  0.2108 -0.0972 -0.1981
66031W        W 8948   1.604  33.255  10.053  0.0468 -0.3447  0.1529
66032W        W 8949   1.359  32.552   8.920  0.0645  0.0120 -0.2019
66033W        W 8950   2.916  32.272  10.547  0.0763  0.0139  0.1332
66034W        W 8951   3.522  33.030   8.622 -0.1502  0.1150  0.1105
66035W        W 8952   0.519  32.012   9.347  0.1061  0.3183  0.1853
66036W        W 8953   5.607   0.515   7.057  0.1107  0.2417  0.1586
66037W        W 8954   0.962  33.594  10.509 -0.0787  0.1079 -0.0331
66038W        W 8955   0.254   0.930   9.629 -0.1465  0.5047  0.0986
66039W        W 8956   0.706  32.564   5.217 -0.1850 -0.0749  0.1030
66040W        W 8957   0.164  34.276  10.316  0.0361  0.4182 -0.3013
66041W        W 8958   2.922  34.298   9.402 -0.1083  0.2769 -0.0767
66042W        W 8959   1.417  34.401   9.442 -0.1408  0.0756  0.0310
66043W        W 8960   3.001   0.090   9.245 -0.2408 -0.1829  0.1416
66044W        W 8961   0.936  33.322   9.400 -0.1653 -0.2251  0.1263
66045W        W 8962   4.756  33.030   7.293 -0.0026 -0.1270  0.2451
66046W        W 8963   3.961  30.013  11.539 -0.2629 -0.2804 -0.1490
66047W        W 8964   3.186  33.322  10.029  0.0737  0.2388  0.1666
66048W        W 8965   2.278  34.043   5.916 -0.0293 -0.0523  0.1854
66049W        W 8966   0.658  32.978   8.525 -0.2748  0.1557  0.0970
66050W        W 8967   0.877  33.073   7.530  0.1126 -0.1371  0.1263
66051W        W 8968   2.311  33.954   6.426  0.1117 -0.1246 -0.0647
66052W        W 8969   3.780  31.951  10.794 -0.2484  0.2252  0.1698
66053W        W 8970   2.238  33.190   6.954 -0.3451  0.0391 -0.0787
66054W        W 8971   3.956  34.428   8.788 -0.3115  0.0845  0.3491
66055W        W 8972   3.233  33.012   8.101  0.2165  0.1982 -0.1394
66056W        W 8973   2.143  32.706  11.129 -0.0238  0.1556 -0.0474
66057W        W 8974   3.693  31.737  10.152 -0.2064  0.0426 -0.0355
66058W        W 8975   2.791   0.520   8.382 -0.1429  0.2358 -0.1369
66059W        W 8976   1.496  33.278   8.644  0.0832 -0.2368  0.0809
66060W        W 8977   2.187   0.912   9.115 -0.0050  0.5228  0.1149
66061W        W 8978  34.447  33.628   7.541 -0.1778  0.0953  0.0121
66062W        W 8979   3.143  32.478   9.076  0.0644 -0.0457  0.0719
66063W        W 8980   3.222  33.429   8.463 -0.0294 -0.2304 -0.0507
66064W        W 8981   2.976  34.383  11.860 -0.1840 -0.3002  0.2559
66065W        W 8982   5.421  32.694   6.749  0.2826 -0.0668  0.1671
66066W        W 8983   1.488  34.140   8.132  0.0908 -0.1788  0.1716
66067W        W 8984   2.244  32.505   5.562 -0.1747 -0.2940 -0.1722
66068W        W 8985  34.098  33.479   8.065 -0.1186  0.0484  0.0118
66069W        W 8986   1.165   1.141   9.375 -0.2182 -0.2295  0.2026
66070W        W 8987   1.520  31.885   9.032 -0.1126  0.0227  0.3874
66071W        W 8988   2.324   0.064   7.632  0.2474 -0.1551 -0.0798
66072W        W 8989  34.319  33.094   7.839 -0.0106  0.0638  0.0877
66073W        W 8990   4.181  32.071   9.119  0.1655  0.2784  0.1929
66074W        W 8991   1.276   0.150   9.758  0.3400  0.0104  0.1760
66075W        W 8992   1.662  32.166   8.546 -0.2308 -0.2204 -0.2666
66076W        W 8993   2.234   0.238  10.539  0.0940 -0.0293 -0.3345
66077W        W 8994  33.329  33.192   8.946 -0.2062 -0.0274 -0.2196
66078W        W 8995   3.711  31.974   7.271 -0.0562  0.1421  0.2530
66079W        W 8996   3.384  34.100   8.099 -0.4055 -0.0144  0.0169
66080W        W 8997   1.260  33.657  10.089  0.2401 -0.2154  0.0008
66081W        W 8998   3.117  34.343   8.429  0.4602  0.1222  0.0460
66082W        W 8999   2.321   0.238   8.521  0.0620 -0.2154 -0.5017
66083W        W 9000   1.172   0.130   8.433 -0.3417  0.1731  0.2674
66084W        W 9001   1.550  32.696   6.954  0.1192 -0.0021  0.0612
66085W        W 9002   3.588  34.590   8.365 -0.0267  0.3300 -0.3784
66086W        W 9003   2.666   1.057  11.333  0.1620  0.2210  0.0253
66087W        W 9004   0.709   0.063   9.755  0.1991 -0.1863 -0.0820
66088W        W 9005   3.645  33.434   6.770 -0.1093 -0.1620  0.0382
66089W        W 9006   2.538  34.068  10.800 -0.4224  0.1130 -0.1344
66090W        W 9007   2.897  32.839   9.912  0.0948 -0.2445  0.1944
66091W        W 9008   2.714  34.475   7.737  0.1122 -0.1536  0.4022
66092W        W 9009   2.939  33.051   7.147 -0.0118 -0.3515 -0.2327
66093W        W 9010   3.802   0.417   9.581 -0.1514  0.0723  0.0778
66094W        W 9011   3.997  32.768   8.508  0.2319 -0.0321 -0.1842
66095W        W 9012   3.405   2.700   9.092 -0.0931  0.2614  0.4156
66096W        W 9013   0.150   0.604   8.185  0.0394  0.2592  0.2729
66097W        W 9014   2.120  34.230   6.999 -0.2428  0.2165 -0.1931
66098W        W 9015   1.617  32.904   7.825 -0.1343  0.0864 -0.0939
66099W        W 9016  33.609  32.305   9.232  0.1426 -0.1373  0.0543
66100W        W 9017   2.781  32.222  11.006  0.1435  0.2528 -0.1228
66101W        W 9018   2.732  33.022   8.557 -0.0272 -0.0137 -0.3976
66102W        W 9019   0.497  32.943   4.269 -0.0601  0.1396 -0.0393
66103W        W 9020   3.391  32.724   9.926  0.2415 -0.0026 -0.0001
66104W        W 9021   1.438  33.236   9.167  0.1974  0.0454  0.1422
66105W        W 9022   3.705  31.723   9.086 -0.1496 -0.1541 -0.2488
66106W        W 9023   3.348  33.474   7.170  0.0541  0.2188 -0.1135
66107W        W 9024   2.396  33.168   7.929 -0.1343  0.2588 -0.0958
66108W        W 9025   3.384  33.131   6.121  0.2267  0.0961 -0.1258
66109W        W 9026   1.541   1.188   9.810  0.0755  0.1024  0.0727
66110W        W 9027   1.606  32.772  10.053  0.0352 -0.2591 -0.0075
66111W        W 9028   1.766  33.145   7.140  0.2538  0.0994 -0.1529
66112W        W 9029   3.160  33.790   8.820  0.1602 -0.1998  0.0725
66113W        W 9030   1.103  32.807   9.325 -0.2884  0.0047  0.0745
66114W        W 9031   0.432  34.346   8.894 -0.0094 -0.1015 -0.0405
66115W        W 9032   1.394   0.535   8.609 -0.0267 -0.0826  0.0390
66116W        W 9033   1.855   0.586  10.577  0.0427 -0.3444  0.1336
66117W        W 9034   1.403  34.168   9.914  0.1895  0.0332 -0.2074
66118W        W 9035   2.419  31.309   8.976  0.1346  0.0625  0.1838
66119W        W 9036   6.658   1.441   3.394  0.0858  0.0575 -0.0998
66120W        W 9037   5.133   0.587   0.684  0.0219 -0.1918  0.2063
66121W        W 9038   6.385  33.937  30.855  0.2464 -0.2152  0.0169
66122W        W 9039   5.120   3.114   1.310 -0.2289  0.1171  0.0629
66123W        W 9040   3.410   0.463   2.880 -0.0660 -0.1319 -0.1959
66124W        W 9041   8.361   2.729   0.946  0.0335 -0.0737 -0.0415
66125W        W 9042   4.347  33.285   3.392  0.1505 -0.2104  0.4173
66126W        W 9043   4.291   3.404   1.346 -0.0129 -0.0805 -0.0689
66127W        W 9044   6.405   3.856   1.695  0.2687 -0.1711  0.1407
66128W        W 9045   6.180   1.414   1.388 -0.0889 -0.0534  0.1497
66129W        W 9046   5.323   1.316   2.198 -0.0736  0.2391  0.0910
66130W        W 9047   6.735   3.473   2.438 -0.0506 -0.0653  0.2083
66131W        W 9048   7.439   0.811  31.644 -0.0906  0.0300  0.1712
66132W        W 9049   4.238  33.893   1.369  0.0826 -0.0404  0.0723
66133W        W 9050   5.646   1.664   2.389  0.2312  0.1941 -0.2888
66134W        W 9051   5.603  33.555   0.228 -0.1215 -0.1431 -0.0359
66135W        W 9052   4.932   0.426   3.359 -0.2213  0.0005  0.1807
66136W        W 9053   7.021  33.150  31.657  0.2294 -0.0681 -0.0131
66137W        W 9054   4.932   4.103   0.406  0.1173  0.0195 -0.1563
66138W        W 9055   7.224   1.593   4.433  0.3416  0.2038 -0.2825
66139W        W 9056   6.702   0.393   4.260  0.3185  0.0057  0.1464
66140W        W 9057   6.504   2.976  31.457  0.2849 -0.1778 -0.1996
66141W        W 9058   4.027   1.353   1.513  0.2271 -0.1575  0.0639
66142W        W 9059   4.255   0.776  31.617 -0.0713 -0.1533  0.0902
66143W        W 9060   4.531   2.312   1.485 -0.0395 -0.2137 -0.3094
66144W        W 9061   5.159  34.353   2.611 -0.3355  0.0047  0.0109
66145W        W 9062   8.724   1.533   2.452  0.2495 -0.0122 -0.3084
66146W        W 9063   5.158   4.266   1.437  0.1097  0.2734 -0.2355
66147W        W 9064   5.891   2.040   2.591  0.0338  0.2851  0.0453
66148W        W 9065   7.417   1.461   4.032 -0.0025 -0.1546  0.2721
66149W        W 9066   2.066   2.019  30.852  0.2131  0.1375  0.3352
66150W        W 9067   3.297   2.544   1.181 -0.1588 -0.0744 -0.0370
66151W        W 9068   6.460   0.530   1.654  0.2528  0.0214 -0.0343
66152W        W 9069   8.972   2.306  31.787 -0.0157  0.2697 -0.0842
66153W        W 9070   7.658   1.807   2.504 -0.1135  0.4166 -0.6099
66154W        W 9071   5.208   3.609   2.173  0.0225 -0.0672  0.2716
66155W        W 9072   5.631   2.033   1.206  0.1300  0.1049  0.0609
66156W        W 9073   5.004   3.515   3.036 -0.1804 -0.0778 -0.2140
66157W        W 9074   5.920   1.935   4.075  0.1063  0.0809 -0.0974
66158W        W 9075   6.325   2.194   2.405 -0.1595  0.0249 -0.0741
66159W        W 9076   6.328   0.467   2.947  0.0224  0.1957 -0.2332
66160W        W 9077   6.092   3.290  29.105 -0.1451  0.0756 -0.3073
66161W        W 9078   8.045   2.780   2.541 -0.2066  0.0956  0.0942
66162W        W 9079   6.713   2.342   2.726  0.0461 -0.0651 -0.0736
66163W        W 9080   5.562   2.133   1.737  0.0122 -0.1783 -0.1199
66164W        W 9081   8.852  33.987   4.760 -0.0840  0.0202 -0.0804
66165W        W 9082   6.680   2.792   0.428 -0.1445  0.0858  0.0676
66166W        W 9083   8.165   3.769  31.275  0.0154  0.2488  0.2490
66167W        W 9084   5.535  34.476  30.809  0.0032  0.3047  0.1330
66168W        W 9085   8.306   1.505  31.880 -0.0720 -0.1498 -0.1132
66169W        W 9086   5.063  34.301   3.067 -0.1849  0.1074 -0.2120
66170W        W 9087   4.019   2.867   1.633  0.1060  0.1145  0.1017
66171W        W 9088   4.732   1.818   1.760  0.1191  0.2141  0.0176
66172W        W 9089   7.061   5.223   2.364  0.3554 -0.1510  0.2621
66173W        W 9090   5.136   0.667   0.167  0.0518 -0.0143 -0.1513
66174W        W 9091   7.061   1.625   2.505 -0.1305 -0.1337 -0.3052
66175W        W 9092   3.794   2.930   3.137 -0.2587  0.0215  0.0694
66176W        W 9093   4.860   1.586   2.295 -0.2263  0.2917 -0.0898
66177W        W 9094   7.944   2.741  31.461  0.0202 -0.0077 -0.0148
66178W        W 9095   6.712   4.188   1.465  0.1671  0.1148 -0.1467
66179W        W 9096   5.384   4.690   1.202  0.1019  0.0516  0.1294
66180W        W 9097   3.926   1.825   0.677  0.1638  0.2004 -0.0544
66181W        W 9098   5.725   2.468   3.988  0.0347 -0.0056  0.0542
66182W        W 9099   5.792   0.452   3.163 -0.0156  0.1501  0.1357
66183W        W 9100   5.050  33.375  30.190 -0.2427  0.0429 -0.1315
66184W        W 9101   9.478   2.964   5.069  0.3722  0.3377 -0.0390
66185W        W 9102   4.448   4.712   1.549 -0.3103  0.0894 -0.1827
66186W        W 9103   7.162  34.298   1.542  0.0353  0.2248  0.1421
66187W        W 9104   5.427   2.126   3.246 -0.0419  0.5114 -0.0298
66188W        W 9105   6.664   2.517   3.214 -0.2011  0.1898 -0.0390
66189W        W 9106   8.790   1.681   0.163  0.1899 -0.2131 -0.0292
66190W        W 9107   5.847   0.182   2.040  0.2109 -0.0151  0.3584
66191W        W 9108   7.760   0.697   4.526 -0.0858  0.0322  0.0976
66192W        W 9109   4.939   4.430  31.955  0.2847  0.0989  0.2109
66193W        W 9110   4.241   1.820   1.658  0.1985 -0.1711 -0.0737
66194W        W 9111   7.374   3.952   2.674  0.2986  0.0281  0.0885
66195W        W 9112   7.711   1.344  29.543 -0.0844 -0.3570 -0.2745
66196W        W 9113   4.158   4.286   1.621 -0.0720 -0.1389  0.2648
66197W        W 9114   5.698  33.298   2.259 -0.2047 -0.1597 -0.1867
66198W        W 9115   7.348   1.224   2.375  0.5327  0.1268 -0.1137
66199W        W 9116   3.175   4.734  31.164  0.1271  0.2614 -0.0856
66200W        W 9117   4.556   0.903   2.157 -0.0423  0.1102 -0.0572
66201W        W 9118   5.494   2.457  30.825  0.2498 -0.4021  0.0908
66202W        W 9119   5.404   0.616   3.494 -0.2577  0.0609 -0.3571
66203W        W 9120   5.015   2.526   2.745 -0.2452  0.2646 -0.0537
66204W        W 9121   6.866   0.131   1.630  0.0235 -0.1718 -0.2853
66205W        W 9122   2.919   0.641   2.954 -0.2228 -0.2740 -0.3818
66206W        W 9123   6.198  34.292   1.382  0.3405 -0.0558 -0.4954
66207W        W 9124   4.997   3.444   0.080 -0.1051  0.0528  0.2068
66208W        W 9125   7.834   4.576   1.417  0.3971 -0.1502 -0.0085
66209W        W 9126   8.691   1.263   0.865 -0.2077  0.0104  0.0216
66210W        W 9127   7.668   1.276   0.956  0.0045 -0.1944  0.0895
66211W        W 9128   3.938   1.181   2.529  0.0472 -0.1464  0.1537
66212W        W 9129   4.417   0.718   0.876 -0.1716  0.2488  0.1290
66213W        W 9130   4.331   0.044   3.108  0.0352  0.0745  0.1899
66214W        W 9131   4.788  34.253   3.901 -0.2248 -0.2558 -0.1048
66215W        W 9132   8.324   0.656   2.273  0.1991 -0.0243  0.0419
66216W        W 9133   4.683   0.706   0.417 -0.1708 -0.2304 -0.1350
66217W        W 9134   8.005   1.018   2.405  0.2164 -0.2101  0.0373
66218W        W 9135   6.315   0.042   1.538  0.1263  0.0181  0.0782
66219W        W 9136   5.137   2.032   1.440  0.1180  0.1284 -0.2386
66220W        W 9137   7.202  32.677   5.269 -0.0312 -0.1417  0.4461
66221W        W 9138   8.950   3.494  30.754  0.0543 -0.2718  0.1130
66222W        W 9139   9.223   4.666   2.874  0.0340 -0.0978  0.1157
66223W        W 9140   6.852   3.583   1.424 -0.0698  0.1220 -0.1022
66224W        W 9141   5.095   0.348   2.458  0.3662  0.2419 -0.3760
66225W        W 9142   4.856   0.112  31.275 -0.2638 -0.1142  0.0199
66226W        W 9143   5.013   2.831   1.769  0.1861 -0.2252 -0.1560
66227W        W 9144   5.886   1.959   2.067  0.1042 -0.1730  0.4519
66228W        W 9145   6.403   2.587   1.597  0.4508 -0.0708 -0.3585
66229W        W 9146   7.510   2.502   3.152 -0.2740  0.1052  0.0383
66230W        W 9147   5.731   2.491   0.417  0.2105 -0.0500  0.1727
66231W        W 9148   4.922   3.963   2.317 -0.2892  0.2269  0.0706
66232W        W 9149   7.853   1.089   4.064  0.0528 -0.1303 -0.1870
66233W        W 9150   8.848   3.370   3.856 -0.1815  0.2207 -0.3239
66234W        W 9151   6.759   1.275   0.475  0.1100  0.0029  0.1365
66235W        W 9152   7.919  34.227  29.403  0.1097 -0.1255 -0.0026
66236W        W 9153   8.292   1.641   2.267 -0.1353 -0.2855 -0.0395
66237W        W 9154   3.666   3.613   0.470  0.0245  0.0105 -0.0001
66238W        W 9155   4.582   2.386   0.728  0.0542 -0.0417 -0.1156
66239W        W 9156   6.399   2.469   0.830 -0.0915  0.2270  0.0735
66240W        W 9157   9.046   0.416   1.649 -0.3786  0.1032  0.1123
66241W        W 9158   5.525   1.708   2.882  0.3448  0.0383  0.1722
66242W        W 9159   7.291   2.631   1.796 -0.1383  0.0846 -0.0783
66243W        W 9160   3.765   0.700  31.541 -0.0113  0.2339  0.0745
66244W        W 9161   4.771   4.523   3.887  0.0695 -0.1757  0.1322
66245W        W 9162   6.801   0.793   0.367  0.0311 -0.0019  0.1279
66246W        W 9163   9.003   1.044  31.389  0.1343  0.0030 -0.0007
66247W        W 9164   2.929   1.748   2.216  0.0152  0.2777 -0.2291
66248W        W 9165   5.576   1.846   0.530 -0.3262 -0.0297  0.2523
66249W        W 9166   5.349   1.043   0.504  0.2046 -0.1880 -0.2316
66250W        W 9167   6.452   0.486   0.126  0.0300  0.0526 -0.0012
66251W        W 9168   5.898   3.458   4.926  0.1433 -0.1649  0.1134
66252W        W 9169   7.627   2.922   2.937 -0.2021 -0.2343  0.0140
66253W        W 9170   8.141   0.614   4.076  0.3463 -0.2428  0.1327
66254W        W 9171   5.172   0.591  31.083 -0.0643  0.3064  0.3579
66255W        W 9172   8.388   3.481   0.096 -0.2226 -0.5571 -0.0664
66256W        W 9173   5.404   2.633   3.422  0.0194 -0.0770  0.3414
66257W        W 9174   6.632   2.580   4.440  0.2542  0.0880  0.1752
66258W        W 9175   8.380   1.455   2.863  0.1288 -0.2227 -0.1745
66259W        W 9176   5.481   0.116   2.706  0.1626 -0.0610 -0.0008
66260W        W 9177   6.733   2.296   0.373  0.3187 -0.1793 -0.2281
66261W        W 9178   6.007   0.643   2.268  0.3197  0.2246  0.0883
66262W        W 9179   2.585   3.287   0.337  0.0577 -0.0213 -0.1447
66263W        W 9180   7.093  34.242   4.069 -0.1910 -0.1502  0.0122
66264W        W 9181   6.321   1.501   1.918  0.0579  0.2804 -0.1333
66265W        W 9182   5.615  33.147   3.741  0.0418 -0.0967  0.3598
66266W        W 9183   7.896   2.909   4.789 -0.1733 -0.1715 -0.1857
66267W        W 9184   7.409   0.817   1.104  0.1111  0.2480 -0.1744
66268W        W 9185   5.243   1.797   1.960  0.1218  0.0053 -0.2325
66269W        W 9186   4.184   1.864  31.706  0.0439  0.0408  0.1427
66270W        W 9187   4.989   0.875   3.144 -0.2597  0.1652  0.0972
66271W        W 9188   4.843   1.473   0.981  0.0858  0.0207 -0.2074
66272W        W 9189   2.941   5.056   3.921  0.2876 -0.2502 -0.0434
66273W        W 9190   5.420   3.740   1.715 -0.0608 -0.1736  0.4834
66274W        W 9191   9.552   1.630   1.106 -0.1166 -0.4183 -0.0657
66275W        W 9192   7.730   0.361   3.014 -0.1709 -0.1054  0.1396
66276W        W 9193   6.192  34.434  31.433  0.5137 -0.3934 -0.2099
66277W        W 9194   4.582   2.946   0.209  0.1325 -0.2240  0.1573
66278W        W 9195   5.474   3.264   0.342  0.0117 -0.1005 -0.0195
66279W        W 9196   5.072   1.343   2.867 -0.1457 -0.1915  0.2411
66280W        W 9197   8.566   2.655   2.672 -0.2252  0.1480  0.0739
66281W        W 9198   5.299   2.831   0.275  0.0160  0.0815  0.0966
66282W        W 9199   9.355   2.194   3.774 -0.0646 -0.0050 -0.1861
66283W        W 9200   4.229   2.052   1.047 -0.0513  0.2023 -0.3548
66284W        W 9201   8.315  34.064   3.322 -0.1451  0.0867  0.0998
66285W        W 9202   3.557   2.623   1.605 -0.1649  0.1949  0.1160
66286W        W 9203   5.749   0.054  31.570 -0.1688  0.2583  0.1691
66287W        W 9204   6.945   0.929   2.335 -0.0658  0.2937 -0.0981
66288W        W 9205   7.325   0.195   1.771 -0.2457  0.0400 -0.0821
66289W        W 9206   7.527   0.655   1.589  0.0790 -0.3307  0.2431
66290W        W 9207   3.078   0.102   2.990 -0.2640 -0.1770  0.0412
66291W        W 9208   5.959   0.581   1.763  0.0640  0.3385  0.1120
66292W        W 9209   4.138   3.332   3.313 -0.0680  0.0394 -0.0782
66293W        W 9210   5.426   2.570   1.899 -0.0823  0.1103 -0.0001
66294W        W 9211   6.846   1.886   0.590  0.1196 -0.0314  0.2639
66295W        W 9212   8.699   2.192   0.547 -0.0726 -0.4925 -0.0509
66296W        W 9213   4.789   2.991   2.841 -0.2593 -0.2761  0.3371
66297W        W 9214   3.331   3.416  30.649  0.1633 -0.2723  0.0042
66298W        W 9215   8.128  33.699   3.077  0.0293 -0.2234  0.0457
66299W        W 9216   6.091   1.264   0.914  0.2648 -0.3233  0.2212
66300W        W 9217   5.646   1.410   0.818  0.0108 -0.0131  0.0170
66301W        W 9218   8.242   3.726   0.765  0.1784  0.1306 -0.0832
66302W        W 9219   5.580   1.622   1.513 -0.0147 -0.2511  0.5186
66303W        W 9220   5.390   2.437   1.341 -0.0571  0.0134  0.1034
66304W        W 9221   5.006   0.569   3.868  0.0020 -0.2262  0.1353
66305W        W 9222   7.631   3.261   3.321  0.1566 -0.0640 -0.0955
66306W        W 9223   7.617   0.491   4.088  0.0829  0.1049 -0.0314
66307W        W 9224   6.354   0.072  31.885 -0.0870 -0.0870  0.0900
66308W        W 9225   6.655   0.903   3.300  0.1327 -0.0770 -0.2195
66309W        W 9226   8.152   1.811   3.186 -0.1942 -0.0699  0.0085
66310W        W 9227   6.419   0.584   3.911  0.2286 -0.0643 -0.3214
66311W        W 9228   6.446   2.218   3.550  0.2527 -0.0038  0.1909
66312W        W 9229   5.390  32.094   1.819  0.0916  0.4871 -0.0623
66313W        W 9230   8.141   3.638   1.303 -0.1669  0.0987  0.1661
66314W        W 9231   7.188   0.754   2.674 -0.0798  0.3566 -0.0855
66315W        W 9232   5.080   1.499   1.549  0.1931 -0.3072 -0.2205
66316W        W 9233   3.164   1.331   1.865  0.1076  0.1287 -0.0428
66317W        W 9234   5.307   1.046   1.605 -0.1891  0.0064 -0.0056
66318W        W 9235   5.782   0.100   1.439 -0.1518 -0.1594  0.0671
66319W        W 9236   4.618   3.442   2.722  0.0076 -0.0411  0.0740
66320W        W 9237   4.543   1.859   0.713 -0.0206 -0.3186 -0.1693
66321W        W 9238   3.002   4.899   2.149  0.0959  0.0422  0.0277
66322W        W 9239   7.996   1.546   1.301  0.1088  0.2764 -0.2139
66323W        W 9240   8.799   0.291  31.902  0.3457 -0.0828 -0.1592
66324W        W 9241   6.633   0.187   1.220  0.1678  0.1584  0.1488
66325W        W 9242   9.975  34.293   5.387 -0.1900  0.0461 -0.1854
66326W        W 9243   4.698   0.778  31.356 -0.0988 -0.1043  0.1477
66327W        W 9244   8.099   1.553   3.669 -0.1077  0.1444  0.1619
66328W        W 9245   5.987   0.892   2.847  0.1072  0.0967 -0.2643
66329W        W 9246   5.894   2.447   1.315 -0.0325  0.2046 -0.0004
66330W        W 9247   2.412   2.409   2.067  0.0150 -0.1039 -0.3588
66331W        W 9248   7.899   3.823   4.576  0.1327  0.1232 -0.2116
66332W        W 9249   5.158   3.307   5.433  0.0387 -0.0292 -0.2887
66333W        W 9250   6.523   0.582   0.783 -0.0121  0.1345  0.2499
66334W        W 9251   6.334  34.566  30.167  0.0307 -0.2356 -0.2706
66335W        W 9252   5.362   0.601   2.884 -0.2024  0.0248 -0.0142
66336W        W 9253   6.235   3.017   1.858  0.1663 -0.0430 -0.2111
66337W        W 9254   6.879   3.199   0.540  0.1950 -0.0361 -0.0831
66338W        W 9255   8.763   0.187   3.069 -0.2004 -0.1486 -0.4190
66339W        W 9256   4.703   0.665   2.668 -0.1529 -0.1951 -0.0304
66340W        W 9257   8.907   2.353   1.794 -0.0171  0.1281  0.2217
66341W        W 9258   5.303   2.270   0.214  0.2464 -0.1369 -0.0582
66342W        W 9259   5.219   1.101   1.136 -0.0675 -0.1463 -0.0216
66343W        W 9260   4.335   1.560   3.635  0.0581 -0.1863  0.0238
66344W        W 9261   8.364   1.544   1.763 -0.0100  0.1891  0.0175
66345W        W 9262   8.154   1.303   0.814  0.2773 -0.0176 -0.1576
66346W        W 9263   7.273   1.013   3.199 -0.1271  0.2769  0.0054
66347W        W 9264   5.803   1.349   3.135 -0.1229 -0.0837 -0.0496
66348W        W 9265   5.791   2.527   3.015 -0.0468  0.1144 -0.0362
66349W        W 9266   5.574   1.178   2.669  0.0725  0.5140  0.1142
66350W        W 9267   6.231   6.450   0.178 -0.0247  0.2700  0.1155
66351W        W 9268   9.225   0.575  31.729  0.1234  0.3199 -0.0588
66352W        W 9269   7.028  33.821   4.544  0.0634  0.0109 -0.1402
66353W        W 9270   5.732   0.359   0.981  0.1292  0.2902  0.0831
66354W        W 9271   6.821   4.033  30.654  0.0739 -0.2851  0.1333
66355W        W 9272   4.153   1.533   1.025 -0.1030  0.6656 -0.2076
66356W        W 9273   6.431   0.046   2.573  0.1616  0.1760  0.3595
66357W        W 9274   3.977   2.367   1.835 -0.0989  0.1437  0.0040
66358W        W 9275   7.025  33.981   2.278 -0.3250  0.1888  0.0175
66359W        W 9276   5.811   4.594  31.918 -0.1507  0.2113 -0.2472
66360W        W 9277   7.446   1.621   2.096  0.0704  0.1729 -0.1040
66361W        W 9278   6.063   1.790   1.034 -0.2022  0.1506  0.1633
66362W        W 9279   3.265   0.137   0.262 -0.1159 -0.0555  0.1882
66363W        W 9280   3.877   2.374   2.941  0.0083 -0.0821 -0.1172
66364W        W 9281   5.600   1.473   0.232 -0.0758  0.1315 -0.0199
66365W        W 9282   4.245  34.390   0.447  0.1554 -0.0139  0.1213
66366W        W 9283   6.082   3.268   1.500 -0.1909  0.0273  0.5215
66367W        W 9284   6.358   1.685   3.847 -0.0371  0.0450 -0.0343
66368W        W 9285   4.388  34.271  31.014 -0.1033 -0.2866  0.0274
66369W        W 9286   7.619   2.283   3.963 -0.2095  0.0639 -0.0658
66370W        W 9287   5.800   5.359   1.083 -0.1607  0.3805 -0.1040
66371W        W 9288   5.335  34.571   1.717 -0.1336  0.2604 -0.0027
66372W        W 9289   5.613   4.203   1.528  0.1470  0.0662  0.2950
66373W        W 9290   5.637   0.902   1.994 -0.3234 -0.0598  0.3790
66374W        W 9291   5.294   4.237   2.472  0.0681  0.2343  0.2107
66375W        W 9292   7.352   0.288   3.746  0.0332 -0.1557 -0.0663
66376W        W 9293   4.978  34.169  31.947  0.3124  0.1972  0.1564
66377W        W 9294   6.818   0.250   2.157  0.0623 -0.2996 -0.2439
66378W        W 9295   8.911   2.093   3.452  0.0141 -0.0597  0.4284
66379W        W 9296   5.812   1.424   1.961  0.1805 -0.2290 -0.0537
66380W        W 9297   5.551   0.823   0.913 -0.1427 -0.3954  0.4002
66381W        W 9298   6.944   3.846   3.640  0.3680  0.4135 -0.0443
66382W        W 9299   6.407   2.169   1.903 -0.2575  0.0429 -0.2063
66383W        W 9300   5.863   2.854   1.612  0.3623  0.0207  0.0920
66384W        W 9301   1.949  34.154   2.867 -0.3856  0.1923 -0.0739
66385W        W 9302   6.179   0.577   4.710 -0.0664  0.1356 -0.0989
66386W        W 9303   7.467  33.568   4.091  0.0032 -0.1055 -0.0435
66387W        W 9304   3.930   1.833   2.038 -0.2479  0.0031 -0.1675
66388W        W 9305   5.758   2.805  31.794  0.1819 -0.0041  0.4265
66389W        W 9306   4.384   3.980   1.976 -0.0970 -0.1909 -0.1410
66390W        W 9307   4.789  34.438   0.422  0.3181 -0.1725  0.3350
66391W        W 9308   4.032   3.591   0.784 -0.1336 -0.2451 -0.1543
66392W        W 9309   6.677   1.067   1.729  0.3412  0.0029 -0.0358
66393W        W 9310   6.952   1.408   2.106  0.1505 -0.2499 -0.0272
66394W        W 9311   6.780   4.851   1.776 -0.0467 -0.2581  0.2745
66395W        W 9312   4.825  34.217  31.465  0.0392 -0.1551  0.0398
66396W        W 9313   6.206   2.919  31.937 -0.0214  0.1028  0.0861
66397W        W 9314   3.521   3.282   0.860 -0.3040  0.4744  0.3868
66398W        W 9315   9.042   2.121  31.341 -0.1642  0.2066  0.0248
66399W        W 9316   4.682   3.088  31.650  0.0032 -0.1347 -0.0843
66400W        W 9317   8.304   2.285   4.360  0.1483 -0.1266 -0.1669
66401W        W 9318   5.900  34.175  31.769  0.1207  0.4125  0.2372
66402W        W 9319   6.895   1.156   2.785  0.2067 -0.1180 -0.1750
66403W        W 9320   9.557   2.582  31.294  0.2507  0.1410  0.1963
66404W        W 9321   7.979   0.414   3.652 -0.0067 -0.0627 -0.0862
66405W        W 9322   5.409   0.474   1.672  0.0740  0.2246 -0.1725
66406W        W 9323   6.651  33.607  31.283  0.0117  0.2669 -0.1187
66407W        W 9324   4.453   1.389   2.005  0.0309 -0.0968  0.1378
66408W        W 9325   8.021   0.196   4.496 -0.2376  0.0360 -0.0644
66409W        W 9326   4.152   3.848   3.513 -0.1207 -0.2821 -0.2789
66410W        W 9327   9.965   2.343   0.829 -0.1448  0.2585  0.2566
66411W        W 9328   3.974   1.450  31.914  0.0152 -0.1906  0.1024
66412W        W 9329   7.273   1.883   1.220 -0.0178 -0.1816 -0.1916
66413W        W 9330   6.898   0.128   3.735  0.1071  0.3388 -0.0362
66414W        W 9331   6.569   2.098  31.464 -0.2230 -0.0858  0.0625
66415W        W 9332   4.452   0.596   3.088  0.3599 -0.2042 -0.2077
66416W        W 9333   5.790   4.962   0.285 -0.0016 -0.1372  0.1341
66417W        W 9334   6.393   4.342   1.795  0.0323  0.3389  0.0292
66418W        W 9335   4.685   4.343   3.153 -0.2555  0.0089  0.0599
66419W        W 9336   5.766  34.041   0.838 -0.3104  0.1132  0.1454
66420W        W 9337   7.423   1.073   1.865  0.0123  0.1439 -0.0249
66421W        W 9338   8.385   2.435   5.312 -0.2583  0.1638 -0.0395
66422W        W 9339   7.936  33.931   1.901 -0.2283  0.2541 -0.0827
66423W        W 9340   5.202   1.518   0.632 -0.0898  0.0923 -0.3701
66424W        W 9341   7.792   0.277   2.105 -0.1481 -0.0785 -0.1473
66425W        W 9342   5.782   3.444   1.839 -0.2811  0.0672 -0.1130
66426W        W 9343   6.181   1.011   1.983 -0.1928 -0.1559  0.1132
66427W        W 9344   5.750  34.274  31.320 -0.2675  0.3561  0.1762
66428W        W 9345   5.422   3.091   1.879 -0.0830  0.1500  0.0880
66429W        W 9346   4.010  33.896   0.287 -0.1584 -0.2491  0.0637
66430W        W 9347   8.254   1.962   1.417  0.1323 -0.3886 -0.0315
66431W        W 9348   4.440   0.982   1.670 -0.2264 -0.1357  0.2260
66432W        W 9349   6.063   0.730   0.805 -0.2038 -0.2179 -0.2344
66433W        W 9350   3.770   1.770   1.198  0.1494  0.2335  0.0510
66434W        W 9351   5.847   0.653   3.727  0.3221 -0.2167 -0.0898
66435W        W 9352   6.848   1.053   4.304  0.4683  0.0084  0.2661
66436W        W 9353   3.604   1.072   1.694 -0.0584 -0.4353 -0.4685
66437W        W 9354   9.911   1.783   0.714 -0.0858  0.1745  0.2495
66438W        W 9355   7.031   0.583   0.723  0.0550  0.1168 -0.1270
66439W        W 9356   6.033   3.264   1.021 -0.1146 -0.2042  0.1830
66440W        W 9357   7.145   2.442  31.887 -0.2087  0.0996 -0.1680
66441W        W 9358   6.843   2.866   1.832  0.4538  0.0948  0.2517
66442W        W 9359   3.410   2.107   1.414  0.2199  0.1093  0.0347
66443W        W 9360   6.187   2.842   1.233 -0.0854 -0.2080  0.0267
66444W        W 9361   9.000   1.631   1.022  0.1743 -0.2228  0.5485
66445W        W 9362   6.096   0.215   0.576 -0.1587  0.0153 -0.0696
66446W        W 9363   4.259   0.894   2.737 -0.0142  0.5250  0.3048
66447W        W 9364   4.564   1.314   2.542 -0.2236 -0.0033 -0.1260
66448W        W 9365   7.318   1.091   5.435  0.0671  0.1009  0.0718
66449W        W 9366   6.121  32.224   4.075  0.1149  0.0373  0.1135
66450W        W 9367   5.888   3.479  31.035  0.1224 -0.1649  0.1505
66451W        W 9368   6.490  34.503   3.649  0.0048 -0.0072 -0.0976
66452W        W 9369   7.087   1.953   1.997 -0.2301  0.3455  0.3776
66453W        W 9370   5.917   1.405   3.978  0.1340 -0.1895 -0.1535
66454W        W 9371   4.909   1.850  31.193  0.0546 -0.2831  0.2753
66455W        W 9372   5.923   2.200   0.768  0.0458 -0.1791 -0.0663
66456W        W 9373   4.001   2.312  31.820  0.1000 -0.1947  0.0918
66457W        W 9374   9.257   2.476   0.480  0.0448  0.1242  0.0767
66458W        W 9375   8.040   5.594   2.852 -0.1067  0.1916  0.0134
66459W        W 9376   7.133   3.007   1.423 -0.1352 -0.1837 -0.0396
66460W        W 9377   6.984   3.848   1.936 -0.1494  0.0112  0.2353
66461W        W 9378   5.231   0.575   1.181 -0.1716  0.0148  0.2258
66462W        W 9379   8.801   1.958   1.372 -0.0373 -0.2433 -0.0104
66463W        W 9380   8.926  34.621   2.347 -0.1288  0.0899 -0.4938
66464W        W 9381   6.462   1.856   2.761  0.1144  0.3274  0.1768
66465W        W 9382   4.939   2.372   1.097 -0.2551 -0.2418  0.4857
66466W        W 9383   6.307   1.095   0.522  0.2264 -0.1987  0.0827
66467W        W 9384   4.644   3.593   2.246  0.1409  0.0696  0.0943
66468W        W 9385   7.056  33.349   4.432  0.0688 -0.0465 -0.0204
66469W        W 9386   5.838  34.495   2.449  0.0057  0.0827  0.0395
66470W        W 9387   3.579   2.502   2.459 -0.2844  0.2136  0.0328
66471W        W 9388   4.411   1.180   0.657  0.0901  0.0975 -0.1174
66472W        W 9389   7.891   1.874   1.774  0.1475  0.0410 -0.0782
66473W        W 9390   4.831   1.043   1.399  0.1377 -0.1335 -0.1153
66474W        W 9391   3.933  33.702   1.739  0.1366  0.2977  0.0575
66475W        W 9392   6.202   3.488   2.071  0.0280  0.1682  0.1882
66476W        W 9393   7.147   2.463   1.341  0.1042  0.3255 -0.0862
66477W        W 9394   5.563   0.457   0.480  0.0091  0.2988 -0.0871
66478W        W 9395   8.026   3.237   1.604 -0.0391 -0.1869  0.1936
66479W        W 9396   6.120   1.262   0.105  0.0449  0.1796  0.1168
66480W        W 9397   5.455   0.996   3.116 -0.1462 -0.2118  0.1844
66481W        W 9398   7.167   0.659   4.229 -0.2505  0.1038  0.1619
66482W        W 9399   5.397  33.434  30.754  0.2504  0.3526 -0.1642
66483W        W 9400   5.639  34.631   0.555 -0.0594  0.3011 -0.1148
66484W        W 9401   4.694   1.885   1.208 -0.0182 -0.2822 -0.3824
66485W        W 9402   7.477   2.642  31.534 -0.1610 -0.0563  0.3358
66486W        W 9403   4.831   2.689   2.258 -0.0954 -0.1895  0.1390
66487W        W 9404   5.825   3.045   3.281  0.0740 -0.2744  0.0723
66488W        W 9405   8.382  33.248   3.224  0.1246 -0.0125  0.3995
66489W        W 9406   5.262  34.521   0.223  0.4473 -0.2418 -0.0970
66490W        W 9407   7.524   3.445   2.839 -0.1831  0.0687 -0.1659
66491W        W 9408   6.505   1.767   1.538  0.0931 -0.1438  0.3165
66492W        W 9409   7.565  33.913   3.660  0.1012 -0.1691 -0.0626
66493W        W 9410   7.394   2.398   0.804 -0.1168 -0.0132 -0.1827
66494W        W 9411   4.341   0.450   2.414  0.0986  0.2467 -0.0974
66495W        W 9412   6.301   2.266   4.119 -0.1976 -0.1120 -0.3034
66496W        W 9413   7.766   2.017   1.297  0.1317  0.1268  0.3707
66497W        W 9414   5.071   0.566  31.540  0.0003  0.6255 -0.2331
66498W        W 9415   6.520  33.870   1.340  0.4603 -0.0297  0.2045
66499W        W 9416   6.816   4.437  31.086 -0.3619 -0.0749  0.1780
66500W        W 9417   6.432   1.333   2.892  0.4127 -0.1187 -0.3923
66501W        W 9418   5.535   0.548   2.396 -0.0524 -0.1118  0.0914
66502W        W 9419   5.409   0.036   2.193 -0.0107 -0.1516 -0.0670
66503W        W 9420   6.697   2.577  31.819  0.1638  0.0004  0.2367
66504W        W 9421   6.538   3.181   4.041 -0.3254  0.2549 -0.2151
66505W        W 9422   8.474  34.548   2.706  0.0427  0.3466  0.1384
66506W        W 9423   8.091   0.649   1.413 -0.1483  0.0526  0.2834
66507W        W 9424   7.729   0.973   2.811  0.3461  0.2532  0.1079
66508W        W 9425   5.712   2.998   5.656  0.0171  0.0086  0.0170
66509W        W 9426   7.306   2.971   3.603  0.0046  0.1114 -0.0052
66510W        W 9427   6.171   0.233   3.372  0.1154 -0.1366 -0.0021
66511W        W 9428   6.063  32.965   3.402  0.1280 -0.3614  0.0245
66512W        W 9429   4.323   0.258   0.436  0.3078 -0.1973  0.0267
66513W        W 9430   6.470   0.955   2.513  0.0717  0.0950  0.0002
66514W        W 9431   8.280   0.108   3.941 -0.2932 -0.1956  0.0556
66515W        W 9432   5.215   1.842   2.523  0.1653  0.0941  0.0387
66516W        W 9433   8.545  34.321   2.168 -0.0413 -0.0251 -0.1799
66517W        W 9434   3.425   3.964   1.942  0.4701 -0.1389 -0.3486
66518W        W 9435   7.871   2.209   3.445 -0.0269 -0.1808  0.0206
66519W        W 9436   6.205   3.746   6.265 -0.0805 -0.0074 -0.2024
66520W        W 9437   5.660   1.099   3.518 -0.2967 -0.0653  0.3146
66521W        W 9438   5.507   1.673   4.197 -0.1825  0.3894 -0.4245
66522W        W 9439   8.331   2.030   5.065  0.2456 -0.1815  0.2211
66523W        W 9440   2.068   0.854   3.700  0.0168 -0.1788 -0.2801
66524W        W 9441   6.866   1.872   3.678  0.1151 -0.2322  0.2691
66525W        W 9442   3.688   0.149   6.519  0.1474  0.1225  0.1733
66526W        W 9443   7.102   0.890   5.852 -0.0866 -0.0051  0.1272
66527W        W 9444   8.456   4.420   7.209 -0.3020  0.1493 -0.1692
66528W        W 9445   7.527   0.608   3.440  0.1348  0.2041  0.2803
66529W        W 9446   6.982   2.188   7.872 -0.1723 -0.2955 -0.1290
66530W        W 9447   4.315   2.751   3.964 -0.0547 -0.2565  0.0413
66531W        W 9448   6.944  34.104   4.952  0.0965 -0.1639 -0.0729
66532W        W 9449   3.254  33.451   5.818 -0.1327 -0.1471  0.1378
66533W        W 9450   5.463   1.415   6.405  0.3412  0.3236  0.2284
66534W        W 9451   4.982   3.181   2.178 -0.1319  0.2061 -0.3343
66535W        W 9452   4.712   2.212   7.536  0.1627 -0.0102 -0.3236
66536W        W 9453   5.138   0.109   3.641  0.2544  0.1178 -0.0146
66537W        W 9454   6.032   2.211   4.553  0.1757  0.0307  0.1558
66538W        W 9455   3.835  34.189   8.278  0.0644 -0.2367 -0.2289
66539W        W 9456   6.387   0.235   5.041  0.0710  0.3759  0.1799
66540W        W 9457   6.468   1.068   3.786  0.2012 -0.2239 -0.0241
66541W        W 9458   6.160   0.900   3.351  0.0053 -0.4385  0.0775
66542W        W 9459   4.115   1.268   5.769  0.1208  0.1116  0.0591
66543W        W 9460   7.087   1.667   5.989 -0.0779 -0.0057  0.3682
66544W        W 9461   7.414   1.774   4.868 -0.0106 -0.0742 -0.1579
66545W        W 9462   8.682  33.287   5.710 -0.0313  0.0578  0.2485
66546W        W 9463   7.715   3.352   6.475  0.2147 -0.0696  0.0740
66547W        W 9464   7.479   2.004   4.382 -0.2228  0.0941 -0.0787
66548W        W 9465   6.876   1.428   9.041 -0.0518 -0.0891  0.2621
66549W        W 9466   4.434   3.272   4.700  0.1240 -0.2714 -0.3143
66550W        W 9467   3.900   3.858   6.430 -0.2564  0.2302  0.1277
66551W        W 9468   5.627   3.696   6.295  0.0277  0.0407 -0.0107
66552W        W 9469   8.142   1.581   5.113  0.3022  0.1134 -0.2810
66553W        W 9470   6.880   3.525   6.948 -0.3916  0.2503 -0.0252
66554W        W 9471   5.282   1.468   7.555 -0.0795  0.0037  0.0488
66555W        W 9472   5.179   1.644   5.054  0.3082  0.1767 -0.0475
66556W        W 9473   7.023   2.115   4.667 -0.0023 -0.2215  0.2807
66557W        W 9474   6.051   2.450   6.484 -0.0242  0.2576  0.1895
66558W        W 9475   6.647   1.278   5.182  0.1894  0.0651  0.0415
66559W        W 9476   5.545   1.158   4.409  0.1344  0.1658  0.1458
66560W        W 9477   5.869   2.049   3.117  0.0449 -0.1417  0.0414
66561W        W 9478   5.909   1.090   5.163 -0.2986 -0.0674 -0.4492
66562W        W 9479   6.425   1.616   6.830  0.0892  0.1678  0.3239
66563W        W 9480   4.945   1.353   5.369 -0.0816  0.0219 -0.1077
66564W        W 9481   6.184   1.530  10.398 -0.3468  0.0011 -0.2454
66565W        W 9482   5.844   2.897   3.723  0.0642  0.1970  0.1912
66566W        W 9483   6.274   1.776   3.221 -0.0136  0.1778 -0.3094
66567W        W 9484   6.615   0.412   3.454  0.0517 -0.1469 -0.0248
66568W        W 9485   7.823  34.189   3.227 -0.0695  0.2495  0.3143
66569W        W 9486   5.310  33.866   8.670  0.1700 -0.2183 -0.0646
66570W        W 9487   5.680   3.866   5.220 -0.0335  0.0135  0.0888
66571W        W 9488   5.416   0.200   5.190  0.1200 -0.2455 -0.2982
66572W        W 9489   6.845   1.271   6.011  0.3642  0.1414 -0.0429
66573W        W 9490   5.772   1.729   5.759  0.0955  0.1838 -0.2314
66574W        W 9491   6.510   1.022   6.869  0.0380  0.1228  0.1020
66575W        W 9492   4.507   2.433   7.011 -0.3457  0.0531 -0.0905
66576W        W 9493   6.782   2.967   3.491 -0.0648 -0.2267  0.0643
66577W        W 9494   6.477   3.111   4.561 -0.1275 -0.1839 -0.0271
66578W        W 9495   7.770   5.402   4.050 -0.1072  0.0923 -0.0006
66579W        W 9496   6.270   1.444   4.906 -0.0041 -0.3759  0.0538
66580W        W 9497   7.358   1.391   2.858  0.2045 -0.1370  0.1918
66581W        W 9498   3.898   2.520   7.214  0.0243 -0.1439 -0.0783
66582W        W 9499   4.855   0.963   8.238 -0.0126 -0.0594  0.3360
66583W        W 9500   6.188  34.118   3.729 -0.0284 -0.3294  0.0340
66584W        W 9501   6.930   1.338   9.527 -0.0000 -0.0653 -0.3373
66585W        W 9502   5.631   2.229   7.870 -0.0433  0.3081 -0.1328
66586W        W 9503   8.112   2.012   5.598  0.2940 -0.0717 -0.0585
66587W        W 9504   6.419   1.284   4.225  0.1104 -0.2898  0.0892
66588W        W 9505   5.574   0.962   6.184 -0.1765  0.0693 -0.0379
66589W        W 9506   8.139   2.464   4.820 -0.1467  0.1040  0.0110
66590W        W 9507   5.444   1.326   5.824  0.0917  0.0239  0.3458
66591W        W 9508   5.815  34.360   4.747  0.1353 -0.2900 -0.0875
66592W        W 9509   4.575  34.094   3.170  0.2422  0.0105  0.1284
66593W        W 9510   7.308   2.635   2.469 -0.1232 -0.1691  0.3357
66594W        W 9511   7.166   1.810   9.309  0.2511 -0.1176 -0.0191
66595W        W 9512   7.483  34.066   4.997  0.1781  0.0189 -0.2188
66596W        W 9513   4.418   3.264   5.207  0.4477  0.0964 -0.3729
66597W        W 9514   5.552   0.952   8.396  0.5126 -0.1920  0.0336
66598W        W 9515   6.142   2.278   8.014 -0.1300  0.2087 -0.0566
66599W        W 9516   5.970   4.064   1.905  0.2248 -0.0645  0.1235
66600W        W 9517   6.104   1.947   6.383  0.1598 -0.2164 -0.0635
66601W        W 9518   2.178   2.364   2.601 -0.1754 -0.1553 -0.0810
66602W        W 9519   4.034  34.306   4.316 -0.0666  0.1837  0.1473
66603W        W 9520   5.469   1.917   7.468 -0.1506  0.2317 -0.0320
66604W        W 9521   6.319  34.386   6.191  0.1232 -0.0830  0.2173
66605W        W 9522   5.788   0.187   4.791 -0.0344  0.0382 -0.0240
66606W        W 9523   7.202  34.340   4.547  0.2387  0.1453  0.1237
66607W        W 9524   6.989   2.645   4.833  0.1833 -0.0018  0.3252
66608W        W 9525   8.729   1.425   7.350 -0.0112  0.0609  0.2718
66609W        W 9526   8.117   1.183   6.226 -0.0621 -0.0952 -0.3294
66610W        W 9527   6.881   2.084   3.225 -0.2608 -0.1855 -0.6977
66611W        W 9528   3.741   1.275   3.966  0.0398 -0.0704  0.3257
66612W        W 9529   7.178   1.545   5.501  0.2537 -0.1566 -0.0860
66613W        W 9530   3.924  33.918   8.735 -0.4071  0.2865  0.2372
66614W        W 9531   5.450  34.351   5.089  0.0123 -0.0140  0.0950
66615W        W 9532   7.221   2.040   8.854  0.0051 -0.1108  0.0754
66616W        W 9533   5.397  33.854   3.105 -0.3209  0.0357 -0.1157
66617W        W 9534   8.522   1.425   5.476 -0.1996 -0.0151 -0.3409
66618W        W 9535   6.630   2.534   7.144 -0.1214  0.1817  0.1538
66619W        W 9536   4.815   1.276   4.344 -0.1171 -0.2284  0.1289
66620W        W 9537   5.967   1.161   7.711 -0.0595 -0.2195  0.1254
66621W        W 9538   5.418   3.369   4.978  0.0420 -0.1125  0.1612
66622W        W 9539   6.019   3.109   7.502 -0.1979 -0.2379  0.1451
66623W        W 9540   7.553   1.712   6.183  0.3268  0.0636  0.0919
66624W        W 9541   4.185   0.181   7.390  0.2124  0.6755 -0.1465
66625W        W 9542   2.828   0.252   3.442  0.2994 -0.1853 -0.1535
66626W        W 9543   3.616   2.081   4.447 -0.0734 -0.1548 -0.4108
66627W        W 9544   5.937   1.533   4.474  0.2257 -0.2312  0.1937
66628W        W 9545   3.819   0.691   3.078 -0.2662  0.1513  0.1894
66629W        W 9546   6.076   3.953   4.848 -0.0970  0.1200 -0.1449
66630W        W 9547   5.780   0.533   4.389  0.3217 -0.1002  0.2194
66631W        W 9548   5.284   2.656   7.194 -0.1278 -0.1386 -0.2939
66632W        W 9549   5.322  34.289   6.395 -0.0221 -0.0625 -0.2171
66633W        W 9550   7.209   1.746   7.190 -0.2005  0.2815  0.1278
66634W        W 9551   6.211  34.068   4.595 -0.1693 -0.1495  0.4679
66635W        W 9552   2.683  34.378   3.507 -0.1168 -0.2942 -0.3503
66636W        W 9553   6.783   2.414   8.380 -0.0644 -0.1019  0.1633
66637W        W 9554   4.032   3.053   4.952 -0.1140 -0.1423 -0.3125
66638W        W 9555   3.764   2.055   3.448 -0.0002  0.1553 -0.0263
66639W        W 9556   7.311   2.197   5.191 -0.0744  0.1524  0.0418
66640W        W 9557   6.228   0.238   4.306  0.2060 -0.1948 -0.0459
66641W        W 9558   4.716  34.226   9.517 -0.0982  0.5926  0.0265
66642W        W 9559   6.474   1.135   9.129 -0.3711  0.0405 -0.0588
66643W        W 9560   5.376   2.811   2.394  0.0850 -0.0286  0.1899
66644W        W 9561   5.081   2.882   6.299 -0.0331  0.0163 -0.2928
66645W        W 9562   7.660  32.456   5.374 -0.2916  0.1078 -0.0966
66646W        W 9563   7.579   0.502   5.024  0.1399  0.1471 -0.1754
66647W        W 9564   7.206   2.550   5.580 -0.0105  0.1007 -0.1220
66648W        W 9565   8.708   1.477   6.695  0.0660 -0.0269  0.1198
66649W        W 9566   8.074   1.111   4.548  0.0722  0.0858  0.0771
66650W        W 9567   6.695  34.160   4.506  0.2432  0.0106 -0.1307
66651W        W 9568   5.943   2.173   5.969 -0.0898  0.1267 -0.1992
66652W        W 9569   5.579   3.426   4.381  0.1368  0.1717  0.0633
66653W        W 9570   7.259   1.313   6.283  0.0724  0.0723 -0.0483
66654W        W 9571   6.775  32.750   5.543 -0.3400 -0.3171 -0.0010
66655W        W 9572   9.002   2.495   3.822 -0.2209  0.1080  0.0846
66656W        W 9573   3.862   1.472   6.362  0.0048  0.0826 -0.1669
66657W        W 9574   6.237   2.563   7.540 -0.0037 -0.1292 -0.1161
66658W        W 9575   8.485   3.452   5.199  0.1053  0.0338  0.0093
66659W        W 9576   5.885   0.520   6.612  0.0520  0.0552 -0.0221
66660W        W 9577   5.990   1.070   4.655 -0.2316  0.0387 -0.0974
66661W        W 9578   7.107   1.185   4.865  0.1603  0.0310 -0.3049
66662W        W 9579   3.964   4.127   2.136 -0.1286  0.1861 -0.2464
66663W        W 9580   6.667  34.163   6.520  0.0903  0.0415 -0.3401
66664W        W 9581   6.676  32.089   6.047  0.1848  0.0608  0.2564
66665W        W 9582   5.982   0.392   9.173  0.1003 -0.1152 -0.0252
66666W        W 9583   6.923   1.043   6.573  0.0278 -0.0294 -0.1642
66667W        W 9584   7.746   1.272   7.394 -0.1951 -0.2346  0.3322
66668W        W 9585   5.026   2.044   4.777  0.0349 -0.2829 -0.1292
66669W        W 9586   4.069   2.304   2.330 -0.2043 -0.0755  0.0990
66670W        W 9587   5.818  34.134   6.150 -0.1741 -0.1747  0.0988
66671W        W 9588   4.540   2.103   6.044  0.1410  0.1414  0.0883
66672W        W 9589   3.245   1.889   5.749  0.0806 -0.0560  0.2477
66673W        W 9590   6.972   2.965   4.448 -0.2691 -0.4232 -0.1363
66674W        W 9591   5.215   1.614   3.310  0.2029 -0.1922 -0.0818
66675W        W 9592   5.133   0.302   7.250 -0.0824 -0.0520 -0.0840
66676W        W 9593   6.551  33.705   4.447 -0.0111  0.0350 -0.0722
66677W        W 9594   5.444   4.437   6.120 -0.0412  0.3029  0.1157
66678W        W 9595   7.647   1.806   3.676 -0.0959  0.0837  0.1132
66679W        W 9596   5.767  34.033   4.201 -0.2277  0.0925  0.0617
66680W        W 9597   6.001   1.924   5.012  0.0334  0.1443 -0.2003
66681W        W 9598   6.365   3.896   2.707 -0.0825 -0.2085  0.0731
66682W        W 9599   6.539   1.290   6.413  0.3898 -0.1539  0.0297
66683W        W 9600   4.577   3.376   3.747  0.0802 -0.2353 -0.1104
66684W        W 9601   4.520  33.614   6.092  0.0429  0.1137 -0.4951
66685W        W 9602   2.570   1.213   6.756 -0.2685  0.0247  0.0474
66686W        W 9603   6.145   1.677   2.355  0.2603  0.4946  0.0254
66687W        W 9604   5.368   2.202   4.370 -0.2499 -0.1221 -0.1059
66688W        W 9605   6.730  34.671   4.619 -0.0640 -0.1378  0.0203
66689W        W 9606   6.811   2.165   5.130  0.0436  0.1412 -0.1841
66690W        W 9607   4.055   2.606   6.710 -0.2922 -0.0107 -0.0471
66691W        W 9608   4.433  34.434   4.727 -0.0021 -0.0576  0.1151
66692W        W 9609   4.520   1.786   5.657  0.0550  0.0103 -0.3063
66693W        W 9610   6.776   1.787   7.358  0.3253  0.2370 -0.2669
66694W        W 9611   6.907   0.064   6.630 -0.3748 -0.0027  0.1319
66695W        W 9612   8.909   1.269   5.756 -0.1403 -0.1187 -0.2349
66696W        W 9613   5.628   0.673   7.814 -0.1776  0.1727 -0.1593
66697W        W 9614   4.710   1.741   3.253 -0.0239  0.0814 -0.1611
66698W        W 9615   7.114   0.543   6.464 -0.2953  0.0193 -0.1366
66699W        W 9616   5.557   2.255   6.268 -0.1307  0.1049 -0.2745
66700W        W 9617   4.578   3.948   5.769 -0.0881 -0.1079  0.0198
66701W        W 9618   5.676   3.949   5.833 -0.1820 -0.3019 -0.1906
66702W        W 9619   4.071   2.319   3.813 -0.0790 -0.1699 -0.2976
66703W        W 9620   7.089   2.606   2.953  0.3115  0.0603 -0.1775
66704W        W 9621   4.849   1.319   7.771 -0.0211  0.2398 -0.0980
66705W        W 9622   8.324   1.147   7.044 -0.1716 -0.0939 -0.2453
66706W        W 9623   4.340  34.176   8.466 -0.2171 -0.0302 -0.0331
66707W        W 9624   5.175   1.027   3.616 -0.0278  0.2839  0.2174
66708W        W 9625   5.803  34.415   3.922  0.0198  0.0390  0.1382
66709W        W 9626   7.411   2.682   5.175  0.3760  0.0591  0.0302
66710W        W 9627   6.759   2.055   9.573 -0.2054  0.1250 -0.1612
66711W        W 9628   5.690   2.435   7.427 -0.0705  0.1439 -0.0899
66712W        W 9629   5.981   1.001   9.250 -0.0749  0.1185 -0.3321
66713W        W 9630   8.286   6.296   4.086 -0.1191 -0.3303  0.1843
66714W        W 9631   6.270   1.755   8.990 -0.0684 -0.2934  0.0863
66715W        W 9632   6.297   2.273   3.005 -0.1373  0.2546  0.1179
66716W        W 9633   4.913   3.272   5.002  0.0141 -0.1728  0.1654
66717W        W 9634   5.861   3.099   4.630 -0.1455 -0.1502  0.0603
66718W        W 9635   5.317   0.736   5.275 -0.1573  0.0328  0.0638
66719W        W 9636   4.880   3.813   6.432  0.0829  0.1342 -0.2248
66720W        W 9637   7.148   2.091   2.628 -0.0172  0.2419 -0.1666
66721W        W 9638   3.310   3.072   6.174 -0.0677  0.0745  0.0025
66722W        W 9639   8.071  32.503   4.938  0.2828 -0.0279  0.1007
66723W        W 9640   6.881   2.069   1.531  0.2208  0.0908  0.2147
66724W        W 9641   6.669  34.001   5.428 -0.1516  0.0880  0.0121
66725W        W 9642   6.516  34.368   8.325 -0.0488  0.0094  0.0918
66726W        W 9643   5.984   1.209   2.461 -0.1713 -0.3722  0.0549
66727W        W 9644   6.569  33.883   6.939  0.0770 -0.1163 -0.2077
66728W        W 9645   6.046  33.578   8.725 -0.0072  0.1132 -0.1456
66729W        W 9646   7.621   2.841   5.657  0.1927 -0.2855 -0.1422
66730W        W 9647   5.993   0.602   6.086 -0.3122 -0.2570  0.0915
66731W        W 9648   4.836   2.413   8.537 -0.0352  0.0469  0.0681
66732W        W 9649   5.133   1.230   7.079  0.1905 -0.0324  0.1659
66733W        W 9650   6.666   1.558   5.656  0.2620  0.3225 -0.2197
66734W        W 9651   5.486   0.328   3.956  0.2051  0.2070  0.0656
66735W        W 9652   5.227   2.179   7.089 -0.0413 -0.1037  0.3975
66736W        W 9653   6.068   2.739   4.279  0.0375 -0.2655 -0.1341
66737W        W 9654   4.915   2.635   3.237  0.3104  0.0856 -0.1201
66738W        W 9655   7.059  34.267   5.899  0.0033  0.0978  0.4077
66739W        W 9656   5.454   1.645   6.986 -0.0507 -0.1968  0.2397
66740W        W 9657   5.280   0.188   3.165 -0.0271 -0.0145  0.0041
66741W        W 9658   5.128   2.437   3.894 -0.3763 -0.0754 -0.3098
66742W        W 9659   5.758   1.605   5.283 -0.0911 -0.2632  0.1422
66743W        W 9660   6.124   1.122  10.153 -0.1214 -0.0501  0.2736
66744W        W 9661   6.679   3.353   5.366  0.1073 -0.2160 -0.0815
66745W        W 9662   5.688  34.369   5.534  0.0766  0.3415 -0.2582
66746W        W 9663   5.438  34.443   6.876 -0.1640 -0.0898 -0.1549
66747W        W 9664   6.618   0.971   7.886  0.0174  0.1136 -0.1445
66748W        W 9665   6.087   1.726   8.482  0.0969  0.0137  0.0491
66749W        W 9666   4.925   2.541   4.777 -0.0123  0.0614  0.3116
66750W        W 9667   4.350   4.058   6.688  0.0522 -0.0420  0.2119
66751W        W 9668   7.897   1.978   4.614  0.1497  0.1822 -0.0550
66752W        W 9669   6.450   0.146   5.846  0.1165  0.0293 -0.1696
66753W        W 9670   7.625   0.255   5.480  0.0936 -0.1998  0.1131
66754W        W 9671   8.524   2.760   3.930  0.4284 -0.2121  0.1656
66755W        W 9672   4.926  34.350   5.981 -0.0652 -0.0680 -0.2375
66756W        W 9673   5.638   2.521   6.916  0.4630  0.2297 -0.0230
66757W        W 9674   7.618  34.170   4.091  0.1714 -0.0274  0.1594
66758W        W 9675   5.373   2.440   9.563 -0.1748  0.2107  0.0261
66759W        W 9676   6.010   3.517   2.540  0.2567 -0.2382  0.0501
66760W        W 9677   6.457   1.799   5.228  0.0395 -0.0705 -0.0212
66761W        W 9678   5.488   2.031   5.158  0.0276  0.1565 -0.3734
66762W        W 9679   4.865  33.738   3.932  0.1755 -0.1101 -0.1189
66763W        W 9680   5.413   2.608   5.888 -0.1529  0.0699 -0.1408
66764W        W 9681   3.965   1.864   4.003  0.0507  0.1079 -0.1191
66765W        W 9682   5.036   1.890   4.155  0.2249 -0.2997  0.3160
66766W        W 9683   6.436   2.326   6.183 -0.0928 -0.5189 -0.2560
66767W        W 9684   8.207   2.578   6.852  0.1292 -0.5916  0.0416
66768W        W 9685   7.612  33.846   4.511 -0.2671  0.0179  0.2750
66769W        W 9686   6.874   1.462   6.898  0.1646 -0.5694  0.2618
66770W        W 9687   4.538   2.136   4.806  0.1214 -0.1311 -0.0862
66771W        W 9688   5.599  33.803   4.789  0.4750  0.0029  0.0665
66772W        W 9689   5.205   3.091   6.746 -0.0951  0.1881 -0.1412
66773W        W 9690   4.192   2.155   7.396  0.0637 -0.1209 -0.1809
66774W        W 9691   5.172   1.591   4.522 -0.0243 -0.2635  0.0051
66775W        W 9692   5.201   1.715   5.634  0.0934 -0.0469  0.0020
66776W        W 9693   6.120   0.268   5.516  0.2354 -0.4008 -0.5189
66777W        W 9694   7.806   1.973   5.183 -0.0490 -0.1374 -0.0075
66778W        W 9695   7.603   0.634   7.219  0.3463 -0.0475 -0.0867
66779W        W 9696   5.981   1.908   7.670 -0.0848  0.0782 -0.1139
66780W        W 9697   4.806   0.350   6.472 -0.3865  0.1931 -0.0217
66781W        W 9698   6.979   2.231   7.359 -0.1733  0.0214 -0.1645
66782W        W 9699   6.617   0.427   5.515  0.1061 -0.0549 -0.2958
66783W        W 9700   6.278   1.728   5.973  0.1020 -0.0313  0.0915
66784W        W 9701   4.422   0.857   5.993  0.2037 -0.0333 -0.0230
66785W        W 9702   5.812   0.080   6.926  0.0174 -0.2910  0.0431
66786W        W 9703   6.901   1.688   5.024 -0.1051  0.0192 -0.2021
66787W        W 9704   4.690   0.824   3.519  0.0316  0.0668 -0.0584
66788W        W 9705   7.781   2.321   2.623  0.3290 -0.3911  0.0768
66789W        W 9706   4.669   3.610   8.305  0.0199  0.1774  0.0508
66790W        W 9707   4.636   2.912   6.676  0.0766  0.0271  0.0234
66791W        W 9708   4.938   2.177   3.487 -0.0628  0.0647 -0.1610
66792W        W 9709   6.717   1.473   4.614  0.2311  0.1722 -0.0729
66793W        W 9710   6.906   1.670   3.019 -0.2502  0.0317 -0.2334
66794W        W 9711   6.763   3.912   6.337 -0.2101  0.1205 -0.1867
66795W        W 9712   4.060   0.343   2.846  0.0216 -0.0323  0.2098
66796W        W 9713   4.708   3.578   5.468 -0.0654 -0.0275 -0.0021
66797W        W 9714   4.943   4.506   4.387  0.4378 -0.1013 -0.1099
66798W        W 9715   7.043   3.661   5.065  0.0308  0.0763  0.0469
66799W        W 9716   4.176   4.256   6.255 -0.2674  0.0656 -0.1943
66800W        W 9717   7.098   3.319  10.016 -0.0163  0.0938 -0.1665
66801W        W 9718   8.666   2.019   4.632 -0.3465  0.2161  0.2258
66802W        W 9719   7.563   2.279   4.808 -0.2391 -0.1588  0.0060
66803W        W 9720   7.395  34.639   4.982  0.0473 -0.3731 -0.2221
66804W        W 9721   5.959   2.398   9.319  0.0318  0.1182 -0.1085
66805W        W 9722   4.454  34.671   6.626 -0.4307 -0.2585 -0.0071
66806W        W 9723   4.192   1.039   3.835  0.0275 -0.0483 -0.0348
66807W        W 9724   6.140   2.584   6.999  0.0233 -0.0450 -0.3779
66808W        W 9725   7.249  33.321   6.016 -0.0636 -0.1516 -0.1736
66809W        W 9726   3.653   2.265  10.234  0.1523 -0.1096 -0.2667
66810W        W 9727   9.145   1.714   5.973  0.2089 -0.2690 -0.1617
66811W        W 9728   3.443   2.003   3.003 -0.1889 -0.0759 -0.2581
66812W        W 9729   7.473  34.613   7.491  0.0458  0.1311 -0.0395
66813W        W 9730   5.041  34.000   7.358  0.1654 -0.0915 -0.3116
66814W        W 9731   6.728   1.901   2.261  0.0502 -0.2247 -0.0145
66815W        W 9732   5.583   0.229   5.657 -0.2863  0.6044 -0.0009
66816W        W 9733   5.605   1.434   4.839 -0.3181  0.1755 -0.1102
66817W        W 9734   4.688   1.732   4.515  0.0928  0.0665  0.1580
66818W        W 9735   6.013   2.653   5.401 -0.1186  0.0375 -0.0346
66819W        W 9736   4.837   1.684   3.736 -0.1806  0.0793 -0.0111
66820W        W 9737   9.007  34.625   6.602 -0.1053 -0.1980 -0.3323
66821W        W 9738   3.901   1.085   4.452  0.0627 -0.1108 -0.0964
66822W        W 9739   5.874   0.043   7.699  0.1292  0.3467 -0.1975
66823W        W 9740   4.769   1.300   3.427  0.1723  0.0572  0.1452
66824W        W 9741   7.017   0.079   5.737 -0.0742 -0.0661  0.1745
66825W        W 9742   6.560   2.552   7.982 -0.4825  0.1153  0.0695
66826W        W 9743   3.964   1.292   5.040  0.1678 -0.1232 -0.0020
66827W        W 9744   8.575  33.638   4.162 -0.0896 -0.0959  0.3893
66828W        W 9745   7.684   2.776   7.727 -0.2454 -0.0032  0.2333
66829W        W 9746   7.225   1.697   3.383  0.1312  0.0464  0.2742
66830W        W 9747   5.117   3.575   8.423 -0.0497 -0.0149  0.0234
66831W        W 9748   4.306  33.971   3.925  0.0293  0.2287  0.2939
66832W        W 9749   6.383   0.778   5.199  0.1242  0.3875 -0.0517
66833W        W 9750   3.734   0.477   3.591  0.3579  0.0765 -0.1833
66834W        W 9751   6.307   1.584   7.403 -0.3137  0.6445 -0.1740
66835W        W 9752   5.630   3.580   7.096  0.0929 -0.0219  0.0645
66836W        W 9753   4.394  34.621   5.187 -0.1133 -0.4632  0.3094
66837W        W 9754   7.246   2.487   4.275  0.0824  0.1804  0.1643
66838W        W 9755   6.322   0.742   7.571 -0.2913 -0.2409 -0.2153
66839W        W 9756   6.680   2.941   3.013  0.2829  0.1627 -0.0783
66840W        W 9757   7.819   2.475   4.403 -0.1612 -0.1349  0.0175
66841W        W 9758   6.414   0.804   4.359 -0.1389 -0.1031  0.2123
66842W        W 9759   3.115   1.307   2.362  0.1202 -0.1297 -0.4753
66843W        W 9760   6.497   3.665   4.950 -0.1713 -0.0220 -0.3623
66844W        W 9761   6.175   2.698   4.757 -0.0497 -0.0685 -0.0890
66845W        W 9762   9.279  33.200   6.902  0.1908  0.2727 -0.0595
66846W        W 9763   6.235  34.614   4.672  0.0638  0.0086 -0.1662
66847W        W 9764   4.601   3.150   6.071 -0.0058 -0.0331 -0.0441
66848W        W 9765   7.402  33.542   6.598 -0.1565 -0.2546  0.1803
66849W        W 9766   6.650   0.552   6.048  0.0160  0.0210  0.0468
66850W        W 9767   7.635   3.321   4.582 -0.2223  0.1177 -0.0170
66851W        W 9768   7.864   1.650   8.119  0.0153  0.1921 -0.0771
66852W        W 9769   6.260   3.016   5.654  0.1095 -0.2405  0.0926
66853W        W 9770   4.656   1.868   8.207 -0.0109  0.1167 -0.0032
66854W        W 9771   5.508   1.528   3.726  0.1681  0.0274 -0.2421
66855W        W 9772   4.613   0.904   6.914  0.2888  0.0420  0.0200
66856W        W 9773   4.826   1.384   4.860  0.1203 -0.2118 -0.0224
66857W        W 9774   6.902   4.243   4.272 -0.3346 -0.4102 -0.1075
66858W        W 9775   5.202   3.372   6.312  0.1653 -0.0224  0.1953
66859W        W 9776   5.617   0.781   4.786 -0.2460 -0.0074  0.1459
66860W        W 9777   8.053   3.483   3.468 -0.2014  0.0563 -0.2083
66861W        W 9778   4.165   1.451   4.147  0.1273  0.1339 -0.4116
66862W        W 9779   7.184  34.390   5.386  0.2724  0.2295  0.0152
66863W        W 9780   7.930   0.238   6.444 -0.0362 -0.3106  0.2008
66864W        W 9781   4.960   1.553   6.076 -0.0713  0.0063  0.1914
66865W        W 9782   2.616   1.344   2.461  0.0552 -0.0191 -0.3597
66866W        W 9783   5.602   3.339   2.326  0.2183  0.2195 -0.0761
66867W        W 9784   5.647   1.894   4.683 -0.1177 -0.1356 -0.1345
66868W        W 9785   6.054  34.465   8.582  0.0326 -0.2713  0.1709
66869W        W 9786   5.232   0.098   6.516  0.1695  0.1582 -0.0057
66870W        W 9787   5.027   2.375   5.232 -0.1702 -0.0754 -0.2877
66871W        W 9788   6.911  33.595   3.956  0.1627  0.0429 -0.1896
66872W        W 9789   5.902   2.518   2.432  0.2455 -0.1184  0.3485
66873W        W 9790   5.118   1.056   6.629 -0.1297 -0.1634  0.2323
66874W        W 9791   1.616  33.267   3.229 -0.1786  0.0030  0.0525
66875W        W 9792   6.258   2.512   5.759  0.2580  0.4163  0.3555
66876W        W 9793   7.277   3.714   6.067  0.2455  0.0802  0.1916
66877W        W 9794   6.481  34.612   3.153 -0.0630 -0.1128  0.1133
66878W        W 9795   7.702   1.828   7.256  0.3615  0.1073 -0.0027
66879W        W 9796   5.936   2.400   3.552 -0.2813  0.2066  0.2339
66880W        W 9797   6.530   1.958   7.873 -0.2910 -0.1718  0.1422
66881W        W 9798   6.283   0.210   6.363  0.1808 -0.1344  0.1223
66882W        W 9799   3.747  34.081   2.630  0.0557  0.0864  0.0244
66883W        W 9800   5.955   1.427   6.232  0.3755 -0.0789  0.0456
66884W        W 9801   7.454   2.815   4.637 -0.0524 -0.0483  0.1060
66885W        W 9802   5.638   2.540   4.531  0.1902 -0.1930 -0.1441
66886W        W 9803   4.906   2.101   5.657  0.1083 -0.1935 -0.1737
66887W        W 9804   5.933   3.478   5.871  0.1773  0.0237  0.0478
66888W        W 9805   4.043   2.188   5.628 -0.2483 -0.3469  0.0993
66889W        W 9806   7.594   1.304   3.515 -0.0916  0.0283 -0.3162
66890W        W 9807   6.107   0.997   6.471 -0.0241  0.2019  0.3022
66891W        W 9808   7.852   1.687   4.178  0.2530 -0.0081  0.1641
66892W        W 9809   6.433   0.164   6.902 -0.1596  0.1894  0.1589
66893W        W 9810   6.975   1.136   3.725  0.0371  0.2223  0.3788
66894W        W 9811   4.750  34.127   7.803 -0.2308  0.2279  0.2962
66895W        W 9812   5.566   1.552   8.549 -0.1431 -0.1671 -0.1936
66896W        W 9813   7.075  33.837   6.751 -0.4314 -0.0717 -0.1846
66897W        W 9814   5.232   1.070   4.849  0.0505 -0.3409 -0.0043
66898W        W 9815   5.800  34.602   6.429  0.3311 -0.0306 -0.1543
66899W        W 9816   5.863   1.815   3.557 -0.0525 -0.3612 -0.3480
66900W        W 9817   5.039   2.394   6.134 -0.0818  0.0632  0.2953
66901W        W 9818   6.039   0.920   4.079  0.3355 -0.2670  0.1480
66902W        W 9819   5.864   3.645   7.667 -0.0376 -0.0073 -0.2384
66903W        W 9820   7.265   2.212   5.989  0.1881 -0.1570  0.0057
66904W        W 9821   6.521   2.146   5.566  0.2329  0.5014 -0.0787
66905W        W 9822   5.868   1.118   5.743 -0.1608 -0.0208  0.1182
66906W        W 9823   7.928   2.111   6.146  0.0030  0.3692  0.0918
66907W        W 9824   7.424   5.453   6.050 -0.1281 -0.2014 -0.4503
66908W        W 9825   7.608   2.616   9.188 -0.0867 -0.0440 -0.1542
66909W        W 9826   7.878   2.560   5.188  0.0237  0.1181  0.1385
66910W        W 9827   6.316   1.211   5.975  0.0672  0.0774  0.1208
66911W        W 9828   5.121   0.896   4.364 -0.0045  0.2437  0.2187
66912W        W 9829   4.317   1.990   3.391 -0.1519 -0.5590  0.1908
66913W        W 9830   4.648   1.266   5.788  0.0358  0.2396 -0.2274
66914W        W 9831   6.707   1.509   7.790  0.0439 -0.1710 -0.0422
66915W        W 9832   5.914   1.525   6.755  0.0142  0.2368 -0.1923
66916W        W 9833   7.124  34.597   3.342  0.2732 -0.1604  0.0247
66917W        W 9834   5.991   2.175   5.454 -0.0600  0.1849  0.3232
66918W        W 9835   5.506   3.273   7.539  0.2025  0.1217  0.1338
66919W        W 9836   0.879  31.228   9.249  0.6118  0.2119 -0.2233
66920W        W 9837   6.246   1.069   8.287 -0.2830  0.0909 -0.0193
66921W        W 9838   7.552   0.484  10.048 -0.0904  0.0550  0.0131
66922W        W 9839   4.862   0.517  11.030 -0.0403  0.1034  0.0378
66923W        W 9840   2.645   0.479   9.350 -0.0872  0.1366 -0.0508
66924W        W 9841   6.157   2.850   7.949 -0.1615  0.0097 -0.2350
66925W        W 9842   4.379   2.358  10.780  0.0428 -0.1246 -0.0029
66926W        W 9843   4.599   0.533   9.455 -0.1216  0.1341 -0.1652
66927W        W 9844   7.438   1.467   6.866 -0.0074  0.1823 -0.0226
66928W        W 9845   5.268  34.178   9.591 -0.1945  0.1253  0.1265
66929W        W 9846   3.403  33.860   6.642 -0.1256 -0.2201  0.0004
66930W        W 9847   3.431  33.359  11.069 -0.0747 -0.0145 -0.2244
66931W        W 9848   4.889   1.440  10.673 -0.3359  0.2755 -0.0746
66932W        W 9849   4.306   2.203   7.911 -0.3445 -0.3559 -0.1077
66933W        W 9850   3.483   0.960  10.988 -0.2139 -0.3263 -0.0076
66934W        W 9851   5.342   0.725  10.664  0.2229  0.0321  0.1648
66935W        W 9852   5.527   1.731   9.777 -0.0094 -0.0777  0.0632
66936W        W 9853   2.651   0.030  10.345  0.2266 -0.1459 -0.2833
66937W        W 9854   6.270   2.570   8.475  0.0199  0.1772  0.1165
66938W        W 9855   4.696   1.377   6.858 -0.0918  0.3441 -0.0304
66939W        W 9856   3.184   0.429   8.897  0.3387  0.0812  0.1336
66940W        W 9857   4.124   0.276  10.419 -0.5599  0.0738 -0.0342
66941W        W 9858   5.265   1.432  11.367 -0.2285  0.1790  0.0899
66942W        W 9859   6.855   0.912   8.727 -0.2859  0.1755  0.0489
66943W        W 9860   5.570   1.286   9.985  0.1285 -0.4429 -0.1472
66944W        W 9861   3.848  34.122  10.094 -0.0117 -0.0651  0.2906
66945W        W 9862   5.489   3.746  11.211 -0.1139  0.0265 -0.2290
66946W        W 9863   4.676   2.787   7.854 -0.0367 -0.0354  0.0778
66947W        W 9864   4.237   0.544   9.864  0.0634  0.2266  0.1332
66948W        W 9865   6.636   2.587   9.418 -0.0182 -0.0152  0.0388
66949W        W 9866   4.751   1.991   8.932  0.3088  0.5012  0.0970
66950W        W 9867   6.200   3.676  10.920  0.0819 -0.1088  0.0265
66951W        W 9868   7.043   1.682   9.950  0.0327  0.0139 -0.0672
66952W        W 9869   5.021   2.707   9.317  0.1327  0.0925  0.3272
66953W        W 9870   5.639   1.529   9.240  0.1175 -0.1790 -0.0172
66954W        W 9871   2.644  34.321  11.362  0.1670 -0.2060  0.1066
66955W        W 9872   3.779   3.391   4.366  0.2152  0.0469 -0.2611
66956W        W 9873   7.364   1.313   8.057  0.3570  0.0452 -0.1837
66957W        W 9874   6.117   0.877   8.760  0.1639  0.0592 -0.0128
66958W        W 9875   4.715   0.427  10.519 -0.0145  0.0184  0.1969
66959W        W 9876   3.806   0.669  10.709  0.1713 -0.0494  0.3684
66960W        W 9877   5.047   4.080  11.893 -0.1827 -0.1704  0.0069
66961W        W 9878   6.436   0.448  11.259 -0.0708 -0.3968 -0.1223
66962W        W 9879   6.695   1.082  10.095 -0.2252  0.2655  0.3202
66963W        W 9880   4.437   0.127  10.795 -0.0306  0.2414 -0.1760
66964W        W 9881   4.059   4.235   9.448  0.0993 -0.4388 -0.4662
66965W        W 9882   5.711   2.639   8.198  0.3036  0.0990  0.4169
66966W        W 9883   6.959   2.643   7.647  0.3039 -0.2748  0.1742
66967W        W 9884   7.090   4.445   9.218 -0.1183  0.4228  0.0161
66968W        W 9885   7.313   3.825   6.930 -0.3221  0.1207  0.0346
66969W        W 9886   3.702   0.932   9.753  0.0495  0.4943 -0.2348
66970W        W 9887   4.262   0.197   9.245  0.0099 -0.3769 -0.2517
66971W        W 9888   7.028  34.313   8.261 -0.0320  0.0434 -0.0937
66972W        W 9889   4.127   2.084  10.267  0.3183  0.2192 -0.1924
66973W        W 9890   5.060   3.467  11.538  0.1997  0.3688  0.0383
66974W        W 9891   6.788   0.123   8.289  0.1315 -0.0335 -0.0728
66975W        W 9892   3.752   0.565  11.197  0.0053  0.1271  0.2874
66976W        W 9893   4.227   2.737  11.628  0.2530  0.0147 -0.2387
66977W        W 9894   6.132   1.175   7.181  0.2415 -0.0747  0.0612
66978W        W 9895   5.960   1.832  10.100 -0.0697  0.2873  0.5190
66979W        W 9896   5.016   3.002  10.172 -0.0262 -0.2070  0.2911
66980W        W 9897   7.406   1.550   8.811 -0.0662  0.0111  0.1249
66981W        W 9898   3.648   3.983   9.564 -0.3842 -0.1892  0.0043
66982W        W 9899   4.511   4.860   7.920  0.0262 -0.1170 -0.1461
66983W        W 9900   3.685   4.305  10.470  0.0978  0.1616  0.1139
66984W        W 9901   6.099   2.170   8.876 -0.2141 -0.0667 -0.1974
66985W        W 9902   3.249  33.642  10.695 -0.1199  0.2852 -0.3845
66986W        W 9903   3.464   1.446  11.098  0.0622  0.0575  0.2748
66987W        W 9904   5.488   0.379  10.324  0.1197  0.4597 -0.0962
66988W        W 9905   5.614  34.102   8.342  0.3043 -0.0007 -0.0407
66989W        W 9906   4.337   1.684  10.083 -0.2811  0.0947 -0.0287
66990W        W 9907   8.195   2.967  10.037  0.0181  0.1819 -0.1048
66991W        W 9908   7.432   0.884   7.659  0.0159 -0.0323  0.0980
66992W        W 9909   7.229   2.080   9.755 -0.5176  0.1367 -0.2186
66993W        W 9910   3.949   1.221  10.704 -0.0146 -0.1513  0.0780
66994W        W 9911   5.135   1.497  10.168  0.2333  0.2833 -0.0634
66995W        W 9912   4.894  33.739   9.590  0.2860 -0.0474  0.1219
66996W        W 9913   3.292   0.468   6.158 -0.4675 -0.0231 -0.6000
66997W        W 9914   8.447  34.160   9.668 -0.2275 -0.0381  0.1620
66998W        W 9915   5.996   1.382   8.865  0.0569  0.2772  0.2974
66999W        W 9916   5.358   1.796   6.090  0.1107 -0.1607  0.1309
67000W        W 9917   6.935   1.967   8.422  0.2692 -0.1087 -0.1743
67001W        W 9918   6.289   1.176  11.635 -0.1371  0.3938 -0.0592
67002W        W 9919   8.263   6.178   9.560 -0.2013 -0.2367 -0.3169
67003W        W 9920   4.704   0.206   9.871  0.0261 -0.1876 -0.2574
67004W        W 9921   5.093   1.071   8.665  0.0923 -0.1984  0.3381
67005W        W 9922   3.980   3.575  11.187  0.1934 -0.0441 -0.0978
67006W        W 9923   4.839   1.867  10.289 -0.0223 -0.1691 -0.0020
67007W        W 9924   5.860  34.047   8.834  0.0217 -0.0942 -0.0193
67008W        W 9925   6.773   2.748  11.389 -0.3515  0.3700  0.3309
67009W        W 9926   5.342   2.432   8.524 -0.2811  0.2108  0.0594
67010W        W 9927   6.201   0.871  11.276 -0.0034 -0.0220 -0.0020
67011W        W 9928   6.334   0.668   9.463  0.1667  0.1634 -0.2329
67012W        W 9929   5.311   0.480   8.535 -0.1227  0.0437 -0.0348
67013W        W 9930   7.287   2.332   8.324 -0.2190 -0.1530 -0.4774
67014W        W 9931   5.012   1.906   7.827 -0.0010 -0.1613  0.1701
67015W        W 9932   3.230   3.709   9.444 -0.0515 -0.0792  0.2339
67016W        W 9933   6.123   4.337  10.876  0.0887  0.2845 -0.0655
67017W        W 9934   6.069   1.031  10.692 -0.4370 -0.0984 -0.0344
67018W        W 9935   4.283   1.666   7.218 -0.0986  0.0423 -0.3249
67019W        W 9936   5.053  34.513   9.103 -0.3042  0.0883 -0.0685
67020W        W 9937   8.197   1.051   9.082  0.1791  0.0705 -0.0773
67021W        W 9938   6.126   2.912   9.373  0.1877  0.3441  0.1363
67022W        W 9939   6.510   0.602   6.536 -0.0937  0.2467  0.0758
67023W        W 9940   5.575   0.738   5.724  0.0763 -0.0952  0.1373
67024W        W 9941   5.663   2.593  10.641 -0.1188 -0.2892 -0.1803
67025W        W 9942   5.007   4.141  10.409 -0.3073 -0.1542 -0.3067
67026W        W 9943   4.897  33.442   8.269  0.0203  0.0799  0.2622
67027W        W 9944   6.438   2.089   8.416  0.5192 -0.1365 -0.2189
67028W        W 9945   5.422   4.340  10.607 -0.1127  0.0827 -0.0978
67029W        W 9946   6.783   2.404   8.922 -0.1896 -0.0010  0.0933
67030W        W 9947   4.457   1.238  10.907 -0.0764  0.2717  0.1523
67031W        W 9948   5.762   1.503   7.345 -0.0722 -0.0621 -0.0361
67032W        W 9949   4.569  33.611   9.976 -0.2603 -0.3496  0.1339
67033W        W 9950   4.571   2.200  10.038 -0.0352  0.1975 -0.3842
67034W        W 9951   6.686   3.412  10.708  0.0372  0.0557 -0.2294
67035W        W 9952   4.494  32.150  10.239  0.0209 -0.0404 -0.1217
67036W        W 9953   6.476   1.293   8.672  0.0607 -0.0266  0.3014
67037W        W 9954   6.683   2.053  10.052 -0.0527 -0.0056  0.0881
67038W        W 9955   5.521   0.057   7.293  0.1950 -0.1772  0.0972
67039W        W 9956   5.823   2.647   9.754 -0.1343  0.1959  0.0241
67040W        W 9957   4.870   1.762   9.353  0.0063 -0.0313  0.4050
67041W        W 9958   5.919   1.909   9.336 -0.2625 -0.0806  0.1609
67042W        W 9959   6.283  34.671   9.023 -0.2003 -0.0689  0.1320
67043W        W 9960   5.890   1.971   7.145  0.0857  0.2864  0.0819
67044W        W 9961   4.712   1.777   9.802  0.1706  0.0146 -0.0809
67045W        W 9962   5.698   0.411  10.868  0.0583  0.3016  0.1488
67046W        W 9963   2.963   1.493  10.266  0.2183 -0.0702 -0.0881
67047W        W 9964   6.163   3.105   6.883 -0.1112 -0.1648 -0.0554
67048W        W 9965   5.370   1.415  10.871 -0.0554 -0.0744  0.1563
67049W        W 9966   4.884   1.507   8.508  0.2685  0.0543  0.2955
67050W        W 9967   7.159   0.545   8.542  0.1223  0.2420  0.0457
67051W        W 9968   5.152   2.051   9.843 -0.4523  0.2219  0.2485
67052W        W 9969   2.691  33.521   8.578  0.1291  0.0796 -0.1715
67053W        W 9970   3.073  33.921  10.096 -0.1167 -0.3418  0.2235
67054W        W 9971   7.473   0.301   8.870 -0.1164  0.0692  0.1070
67055W        W 9972   7.986   2.853   9.501 -0.1637  0.0578 -0.4926
67056W        W 9973   3.575  34.019  10.790  0.0534  0.0075  0.1733
67057W        W 9974   4.602   5.541  10.481 -0.2433 -0.1381 -0.3437
67058W        W 9975   3.993   6.078  10.426  0.2154  0.4190  0.2536
67059W        W 9976   7.419   1.358   9.447 -0.1588 -0.1482 -0.0867
67060W        W 9977   5.167   2.361   7.651 -0.0570 -0.1206 -0.0692
67061W        W 9978   5.246  34.091  11.765 -0.0377  0.0131  0.0998
67062W        W 9979   2.646  32.777  11.133 -0.4554 -0.1171  0.0416
67063W        W 9980   3.536   1.605  10.617 -0.3331 -0.1806  0.1813
67064W        W 9981   3.210   3.638   9.982  0.1935  0.1022  0.1881
67065W        W 9982   5.222   2.664   8.044  0.3189 -0.0418  0.0948
67066W        W 9983   4.462   3.558  10.216 -0.2699 -0.0299  0.3311
67067W        W 9984   5.570   3.077  10.585  0.0157  0.0314  0.0871
67068W        W 9985   5.640   1.943   8.912  0.0210  0.0634  0.1522
67069W        W 9986   5.623   1.713   7.935 -0.2057  0.0955 -0.2448
67070W        W 9987   5.608   3.803   9.083 -0.2549 -0.3054 -0.0790
67071W        W 9988   7.695   2.268  10.638 -0.1485  0.1630  0.1353
67072W        W 9989   5.688   3.699  11.692  0.2235  0.1544 -0.2341
67073W        W 9990   6.066   2.109  11.456 -0.1877  0.0348  0.1488
67074W        W 9991   7.653   3.766   7.312 -0.2263 -0.1295  0.0285
67075W        W 9992   6.147   1.569   7.982  0.4279 -0.2308  0.2370
67076W        W 9993   3.102  34.502  10.023 -0.0341 -0.0977  0.1227
67077W        W 9994   4.955   3.305   9.743  0.1623 -0.1617  0.1075
67078W        W 9995   5.876  34.657   9.920 -0.1267 -0.1135 -0.1136
67079W        W 9996   2.902  33.926  11.662 -0.2401  0.1738 -0.0315
67080W        W 9997   6.435   3.155   8.248 -0.4647 -0.1481 -0.2327
67081W        W 9998   5.958   3.559   9.356 -0.1914 -0.1458  0.0948
67082W        W 9999   6.090  34.226   8.212  0.0365  0.1523  0.1723
67083W        W10000   6.388   1.590   9.915  0.0027  0.0646  0.2108
67084W        W10001   5.904   0.963   9.718 -0.1071  0.0522 -0.1948
67085W        W10002   5.127   0.544  10.026 -0.0055 -0.0583 -0.2245
67086W        W10003   2.343   2.214  10.515  0.0964  0.2123  0.2708
67087W        W10004   4.760   5.127  10.248 -0.1577 -0.0284 -0.2611
67088W        W10005   5.540  34.667   8.543 -0.1583 -0.0088  0.1764
67089W        W10006   4.503  32.344   7.321  0.1105 -0.1736  0.0012
67090W        W10007   4.809   2.276   9.487 -0.0587 -0.1555 -0.2013
67091W        W10008   8.204   1.971   8.393 -0.0753  0.1458  0.1690
67092W        W10009   6.139   0.311   8.669  0.1542 -0.0245 -0.1886
67093W        W10010   5.281   2.064  11.404  0.2936  0.1733 -0.0118
67094W        W10011   6.049   4.171   9.951 -0.0980  0.0104 -0.1713
67095W        W10012   7.157   1.377   7.621 -0.1818  0.1641  0.2322
67096W        W10013   5.075   1.446   9.679 -0.0082 -0.1250  0.3295
67097W        W10014   3.200   1.013  10.078 -0.1447 -0.2913  0.3704
67098W        W10015   6.017   2.882  10.283  0.1387 -0.0323 -0.0384
67099W        W10016   6.844  33.296   9.772  0.3474  0.1960  0.0962
67100W        W10017   6.744   1.906   9.002  0.0260  0.0881 -0.1687
67101W        W10018   8.436   1.023   6.559 -0.0648  0.3613 -0.1034
67102W        W10019   6.608   4.623  11.515  0.2518 -0.0213 -0.2443
67103W        W10020   8.918   2.029  10.326  0.0245  0.1195  0.2182
67104W        W10021   5.812   2.120   8.356 -0.1352 -0.1356 -0.2308
67105W        W10022   4.992   3.041  11.258 -0.2011 -0.3340  0.0339
67106W        W10023   6.695   0.344   9.326  0.5000  0.2767  0.1575
67107W        W10024   4.697   3.601   8.814  0.1255  0.1303 -0.1095
67108W        W10025   6.530   1.638   9.438 -0.0173  0.2317 -0.2541
67109W        W10026   4.657  33.049   7.957 -0.2810 -0.1558 -0.1088
67110W        W10027   3.005   1.251  10.933 -0.2233 -0.4518 -0.1016
67111W        W10028   5.077   0.570   8.004  0.0630 -0.0631  0.2000
67112W        W10029   3.713   0.496   8.619  0.2366 -0.0955 -0.1098
67113W        W10030   5.541   1.130   8.894 -0.0904  0.1046 -0.1072
67114W        W10031   7.302   1.033   8.478  0.1199 -0.0012  0.1984
67115W        W10032   3.553   2.272   9.750 -0.0881 -0.1385  0.0107
67116W        W10033   6.029   3.873  11.408  0.3874 -0.3990  0.0048
67117W        W10034   4.962   4.876   8.145 -0.0150  0.3114 -0.2790
67118W        W10035   6.694  34.541   7.881 -0.1021 -0.2426  0.0643
67119W        W10036   5.378  32.526  10.751  0.3521  0.2284 -0.0384
67120W        W10037   5.136   2.276  10.484  0.2216  0.3184  0.1921
67121W        W10038   5.932   1.448   9.613  0.3481 -0.0202 -0.3619
67122W        W10039   5.695   1.809  11.553 -0.1313 -0.4760 -0.3100
67123W        W10040   5.726   4.057  10.948 -0.1828  0.1497 -0.2288
67124W        W10041   1.955   1.193  10.441  0.2222 -0.3772  0.0553
67125W        W10042   5.967   0.119  10.545 -0.1388  0.0307  0.0609
67126W        W10043   3.868   2.036  10.703  0.1388  0.1272 -0.1209
67127W        W10044   5.582   0.639   9.419 -0.0245 -0.1218  0.2263
67128W        W10045   4.488   3.572  11.444  0.1409 -0.1756  0.0911
67129W        W10046   5.410   1.968   9.344  0.1650  0.3845  0.0778
67130W        W10047   7.356   2.625   7.378 -0.0380  0.0714  0.1100
67131W        W10048   7.100   2.882   9.705 -0.1342 -0.1968  0.0268
67132W        W10049   5.956   2.398  10.147  0.0162 -0.0696 -0.0658
67133W        W10050   6.518   0.643   8.975 -0.0680 -0.0708 -0.1713
67134W        W10051   3.086   4.450   8.850  0.3933  0.0205  0.4280
67135W        W10052   4.210   3.597   8.395 -0.0720  0.1320 -0.3205
67136W        W10053   5.669   4.994   8.942 -0.2360 -0.0919  0.0547
67137W        W10054   5.172   2.270   9.040  0.0637  0.0561  0.1996
67138W        W10055   6.407   1.146   9.576 -0.1450  0.2939  0.0459
67139W        W10056   6.260   0.073  10.143  0.1588 -0.2173 -0.1837
67140W        W10057   8.383   0.141   8.480  0.1217 -0.0416  0.2609
67141W        W10058   4.277   5.232  10.778 -0.1574  0.0446  0.1234
67142W        W10059   5.105  32.703   7.761 -0.1189 -0.5599 -0.2439
67143W        W10060   9.389   3.538   9.665  0.0564  0.1973 -0.2210
67144W        W10061   2.424   0.575  11.394 -0.0458  0.0134  0.0239
67145W        W10062   4.422   4.747  10.734  0.2238  0.0918  0.4183
67146W        W10063   7.120   0.219  10.662  0.0624  0.0551  0.2511
67147W        W10064   4.931   2.639   5.658  0.0988  0.0453 -0.0267
67148W        W10065   6.040   0.485   9.839  0.1978  0.3309  0.0807
67149W        W10066   4.333   2.591   7.461  0.0639 -0.2385  0.0360
67150W        W10067   1.945   4.414   9.987  0.3145 -0.4410  0.1029
67151W        W10068   5.256   3.304  10.940 -0.1554 -0.1232  0.2670
67152W        W10069   4.353   1.674   9.292  0.0987 -0.0284  0.4972
67153W        W10070   8.263   2.510   9.881 -0.1140  0.1234 -0.0490
67154W        W10071   4.930  34.670  11.047  0.1580  0.0288  0.1630
67155W        W10072   3.316   4.137   9.215  0.0072  0.1064 -0.0265
67156W        W10073   5.398  34.415  10.131  0.0886  0.1401  0.0192
67157W        W10074   5.880   3.619  10.018  0.0626 -0.2854 -0.0613
67158W        W10075   4.282   5.064  10.253 -0.1928  0.1913 -0.1952
67159W        W10076   5.095  34.297   8.441  0.2009 -0.1217  0.0135
67160W        W10077   6.222   0.745   5.666 -0.3296  0.1265 -0.2612
67161W        W10078   4.690   0.840   9.048  0.0816  0.3815  0.1668
67162W        W10079   5.082   1.167   9.210  0.1269 -0.3698  0.1318
67163W        W10080   3.456   5.212  10.339 -0.0669 -0.0696 -0.0146
67164W        W10081   7.227   0.043   9.213  0.0289 -0.1436  0.2720
67165W        W10082   5.029   0.055  10.249 -0.1311 -0.0048 -0.1411
67166W        W10083   6.414   2.161   9.240  0.4694  0.1264  0.2515
67167W        W10084   7.155   0.880   9.789  0.0465  0.2135  0.0462
67168W        W10085   5.130   4.100   7.813  0.1930  0.0890 -0.0033
67169W        W10086   6.859   1.289  11.151  0.0274 -0.3586  0.0318
67170W        W10087   6.941   2.458   9.994 -0.0025  0.1313 -0.0273
67171W        W10088   2.151   0.777   9.621 -0.0402 -0.2631  0.1301
67172W        W10089   7.043   3.876  10.161 -0.0491 -0.1506 -0.3644
67173W        W10090   6.894   3.437  11.209  0.1039  0.0846 -0.1812
67174W        W10091   6.370  34.385  10.542 -0.0399 -0.4114 -0.3109
67175W        W10092   4.717  33.439   9.178  0.0348  0.0565  0.1501
67176W        W10093   5.486   2.258  10.078 -0.2223  0.0538  0.0557
67177W        W10094   7.027   0.535   9.030  0.2770  0.0518  0.1319
67178W        W10095   6.347   3.358   7.792 -0.0174 -0.2979  0.1976
67179W        W10096   4.805   3.154  10.698 -0.2987  0.0579  0.3402
67180W        W10097   3.636   0.158   9.158 -0.0254 -0.0720 -0.2840
67181W        W10098   3.772   2.391   8.881 -0.0973  0.2895  0.0699
67182W        W10099   5.633   3.125   6.117 -0.1797  0.2212 -0.3148
67183W        W10100   6.839   2.935  10.192  0.1597  0.0310  0.0065
67184W        W10101   6.687   0.151  10.303 -0.0305  0.3654  0.0499
67185W        W10102   6.000   3.042   8.462 -0.0604  0.4244  0.0696
67186W        W10103   4.555   0.851  11.224 -0.1138  0.0058 -0.1000
67187W        W10104   8.762   0.186   7.963  0.1423  0.3998 -0.0468
67188W        W10105   7.281  33.063   8.596  0.0525 -0.1261  0.2023
67189W        W10106   4.300   1.791  11.616 -0.0812  0.0768 -0.2740
67190W        W10107   4.422   3.410   9.306  0.2473 -0.2695  0.1999
67191W        W10108   4.518   2.288   6.534 -0.0121  0.1009 -0.0802
67192W        W10109   2.313   3.085  10.355 -0.0073 -0.0284 -0.3930
67193W        W10110   4.517   1.763  11.058 -0.3720  0.3649  0.1796
67194W        W10111   5.238   1.526   8.105 -0.0418  0.0091 -0.2018
67195W        W10112   8.606   2.660   8.022 -0.0468  0.1604 -0.1895
67196W        W10113   4.746  34.298   9.999  0.2640  0.0548 -0.0819
67197W        W10114   4.008  31.811   8.674  0.3016 -0.0642  0.2557
67198W        W10115   7.443   0.098   8.405 -0.2002 -0.0830  0.0259
67199W        W10116   6.334   2.616   8.942 -0.4299  0.1089  0.1488
67200W        W10117   4.741   2.197  11.235 -0.0482 -0.1611  0.2010
67201W        W10118   5.963   2.781   6.094 -0.1633  0.2363 -0.1958
67202W        W10119   4.558  33.760   7.423  0.0136  0.0410  0.0593
67203W        W10120   5.585  34.556   9.528  0.1698  0.0950  0.2336
67204W        W10121   6.694   3.019   6.793 -0.1099  0.0777 -0.0200
67205W        W10122   6.955   4.430   7.153  0.3533 -0.0295 -0.4583
67206W        W10123   3.661  33.493   8.775 -0.1115  0.3046  0.3164
67207W        W10124   5.887   0.438   7.416  0.1437 -0.2994  0.0097
67208W        W10125   7.439   3.596   9.023  0.1817 -0.1299 -0.1168
67209W        W10126   5.214   0.982  11.050  0.2526  0.3224 -0.0644
67210W        W10127   6.615   0.619   8.442 -0.1721 -0.1871 -0.1134
67211W        W10128   9.732   4.125  10.358  0.0432 -0.2135  0.2831
67212W        W10129   5.164   1.013  10.242 -0.4038  0.3426  0.0864
67213W        W10130   6.566  33.123   8.252  0.2996 -0.3348 -0.0598
67214W        W10131   6.624   1.626   8.278 -0.1035  0.2086  0.0131
67215W        W10132   4.134   2.166  11.247  0.0459 -0.0943 -0.2343
67216W        W10133   4.229  34.083   9.712 -0.2639 -0.0409 -0.0015
67217W        W10134   5.217   1.817  10.635  0.2254  0.3443 -0.1929
67218W        W10135   5.417  34.607   6.060  0.0543 -0.0191  0.0832
67219W        W10136   7.424   2.518  10.261 -0.1805 -0.1089 -0.0963
67220W        W10137   5.551   4.874  10.537  0.3388  0.1441 -0.1291
67221W        W10138   5.788   2.330  11.038  0.2026  0.2320 -0.2125
67222W        W10139   8.220   1.807  10.783  0.1572  0.3624 -0.1387
67223W        W10140   3.704  33.432  10.703  0.0566  0.0050  0.0609
67224W        W10141   4.939   0.719   6.189 -0.0331  0.0767  0.3793
67225W        W10142   4.332  34.617   9.680 -0.0608  0.1659  0.2961
67226W        W10143   6.781  34.383  10.152  0.0032  0.0139 -0.0248
67227W        W10144   5.230   0.716   9.033 -0.1092 -0.3225  0.1518
67228W        W10145   6.192   0.688   7.041  0.0739 -0.2255 -0.1497
67229W        W10146   5.503   2.781  10.186  0.2026 -0.2200 -0.0127
67230W        W10147   6.444   4.159  11.619 -0.2263  0.6465  0.1127
67231W        W10148   5.701   5.155   4.070  0.0628  0.1228  0.0907
67232W        W10149   5.139   4.180   0.910 -0.0052  0.1171  0.2140
67233W        W10150   5.862   4.480  31.314 -0.0033 -0.2113 -0.0005
67234W        W10151   7.725   5.836  31.271  0.0633 -0.0220 -0.3279
67235W        W10152   5.350   5.348   1.333  0.3489  0.1421  0.2097
67236W        W10153   6.234   7.107   1.173 -0.0377  0.2392  0.1066
67237W        W10154   6.098   4.362   3.075 -0.0064 -0.0161  0.0165
67238W        W10155   6.642   8.273   0.885  0.1643 -0.2324  0.0449
67239W        W10156   9.362   8.694  31.654  0.0491  0.1555 -0.2267
67240W        W10157   7.869   7.962   0.025 -0.0777 -0.1352  0.0090
67241W        W10158   6.019   3.968   3.370 -0.0247 -0.1238 -0.3482
67242W        W10159   6.160   6.729   1.961 -0.1119  0.2317 -0.1645
67243W        W10160   6.749   2.662   1.221 -0.0592 -0.2739  0.0343
67244W        W10161   2.679   4.583  31.451  0.0841 -0.0768 -0.3695
67245W        W10162   6.095   5.956   1.277  0.0192 -0.0185  0.0589
67246W        W10163   2.855   6.949  31.652  0.0378 -0.3489 -0.2749
67247W        W10164   4.937   5.029   1.290 -0.0271  0.2607 -0.2478
67248W        W10165   5.265   3.732   2.695  0.0104  0.1222  0.1317
67249W        W10166   5.411   7.296   0.920  0.1688  0.1349  0.2184
67250W        W10167   6.579   5.207   2.106 -0.0023 -0.2174 -0.0908
67251W        W10168   5.847   4.953   2.086  0.2637 -0.1673 -0.3188
67252W        W10169   6.261   6.950   0.585 -0.0600 -0.1634  0.1052
67253W        W10170   4.589   6.644  30.886  0.4011 -0.2134 -0.1452
67254W        W10171   2.719   5.319   1.975 -0.0201  0.2892  0.0577
67255W        W10172   6.343   3.242   3.372  0.1220  0.2137  0.2566
67256W        W10173   7.084   5.135   0.221  0.2214  0.1317 -0.2058
67257W        W10174   5.973   3.746   1.416 -0.0513 -0.1597 -0.2719
67258W        W10175   4.952   6.914   0.339  0.3294  0.0568 -0.0044
67259W        W10176   5.333   6.704   2.124  0.0018 -0.2889 -0.3264
67260W        W10177   8.325   6.474   2.682  0.2691  0.1095  0.1942
67261W        W10178   4.061   6.007   1.038 -0.1626 -0.1809  0.2418
67262W        W10179   3.065   6.842   1.765  0.0974 -0.0588 -0.2236
67263W        W10180   6.226   5.449  31.047 -0.1822 -0.1368 -0.1864
67264W        W10181   9.738   7.419  31.667 -0.0717  0.0226 -0.0424
67265W        W10182   7.364   6.902   2.705  0.2887 -0.3391  0.1183
67266W        W10183   5.558   7.908   1.937 -0.3760  0.0595 -0.2428
67267W        W10184   5.755   6.284   0.980 -0.1441 -0.0024 -0.2149
67268W        W10185   6.529   7.431   1.824  0.2790  0.0224 -0.0764
67269W        W10186   6.835   6.099   1.850 -0.1014  0.1177 -0.0504
67270W        W10187   6.664   5.048  31.744 -0.1230 -0.2080  0.2505
67271W        W10188   6.692   5.882   1.396 -0.0064  0.1151  0.0952
67272W        W10189   4.233   7.995   0.780  0.0996 -0.0413  0.1087
67273W        W10190   6.374   4.557  31.258  0.0385 -0.1650  0.1559
67274W        W10191   6.024   5.374   5.509 -0.3057  0.0941  0.1177
67275W        W10192   5.663   6.758  31.558  0.0535 -0.0018 -0.1572
67276W        W10193   4.585   2.359   3.796  0.1748 -0.1844  0.0168
67277W        W10194   5.044   8.197   0.339  0.0288  0.0554  0.2412
67278W        W10195   4.769   3.167  30.560  0.2877  0.0486 -0.0097
67279W        W10196   4.654   4.775   2.817  0.1897  0.0465  0.1243
67280W        W10197   8.029   2.777   1.324  0.0378 -0.0200  0.0753
67281W        W10198   4.949   5.858  31.324  0.0563 -0.1183 -0.3247
67282W        W10199   4.980   6.851   1.762  0.0590 -0.1424  0.2981
67283W        W10200   3.098   3.210   1.758 -0.1823  0.2653 -0.2809
67284W        W10201   7.858   5.055   2.834 -0.1442 -0.3787  0.3319
67285W        W10202   5.750   5.434  31.374 -0.0122 -0.0692 -0.2816
67286W        W10203   7.593   5.427   0.937 -0.2189  0.2087  0.2444
67287W        W10204   5.796   4.242   4.067  0.2680  0.1639  0.1702
67288W        W10205   4.317   6.611   1.848 -0.4173  0.2763  0.2072
67289W        W10206   7.446   8.218   0.135 -0.0491  0.5421  0.1575
67290W        W10207   7.558   7.133  31.463 -0.0605 -0.1640  0.0135
67291W        W10208   6.074   6.815  30.591  0.2741  0.0573  0.0647
67292W        W10209   3.583   4.243   1.567  0.0735  0.2686 -0.0456
67293W        W10210   4.197   4.948   2.628 -0.0384  0.1864 -0.0854
67294W        W10211   4.747   5.150   5.151  0.0421 -0.0462  0.1994
67295W        W10212   5.555   4.602  30.874  0.0881  0.1103  0.2415
67296W        W10213   8.688   5.901   4.272  0.1817  0.0498 -0.0976
67297W        W10214   5.356   5.707   2.559  0.1780  0.0827 -0.1652
67298W        W10215   7.346   5.495   0.369 -0.1153  0.1812 -0.3861
67299W        W10216   5.419   5.722   0.266  0.3272 -0.0638 -0.1236
67300W        W10217   6.440   5.456   4.103  0.0462  0.2447 -0.3597
67301W        W10218   8.060   7.290  31.554 -0.1689 -0.0626 -0.1633
67302W        W10219   8.502   5.260   1.431  0.2494  0.1403  0.1136
67303W        W10220   8.073   4.192   0.141  0.1210  0.1480 -0.1827
67304W        W10221   3.339   4.374   0.252  0.1061  0.2193  0.2332
67305W        W10222   4.614   5.914   0.906 -0.0994 -0.0590  0.3096
67306W        W10223   7.083   5.307   2.843  0.1885 -0.2067  0.0460
67307W        W10224   7.697   8.180  31.390  0.2360 -0.1185 -0.2590
67308W        W10225   3.024   7.148   2.574  0.0325  0.1091  0.1025
67309W        W10226   6.845   2.337   3.880 -0.2857 -0.2852 -0.1634
67310W        W10227   6.177   5.217   2.534 -0.0021  0.1742  0.0139
67311W        W10228   3.985   6.550   1.440  0.1615 -0.2134  0.1129
67312W        W10229   4.059   7.020   1.614  0.0357  0.2725 -0.0692
67313W        W10230   4.649   6.129  31.616  0.3874  0.1624  0.0668
67314W        W10231   4.762   3.897   3.655 -0.2343 -0.0225 -0.1015
67315W        W10232   5.214   7.632   2.260  0.0471  0.2824  0.1882
67316W        W10233   8.526   4.394   0.066  0.2296  0.2158 -0.1579
67317W        W10234   4.226   4.896   3.606  0.4087 -0.1946 -0.2735
67318W        W10235   7.209   3.977   1.503  0.0498 -0.0853 -0.2334
67319W        W10236   6.329   5.446  31.589 -0.0201 -0.0239  0.0330
67320W        W10237   6.397   8.597   0.121 -0.2272 -0.1571  0.2971
67321W        W10238   7.098   4.682  31.584 -0.0449 -0.1483 -0.1161
67322W        W10239   6.926   7.714  31.179 -0.0284 -0.0152 -0.2629
67323W        W10240   6.649   4.921   0.269  0.0817  0.0716  0.1655
67324W        W10241   4.158   5.018   0.794 -0.1902 -0.1250  0.0347
67325W        W10242   4.566   3.684   3.279  0.1723 -0.1659  0.1235
67326W        W10243   3.014   4.127   1.664  0.0305  0.1512 -0.3630
67327W        W10244   8.049   4.512   2.571 -0.0046  0.0952 -0.0720
67328W        W10245   3.715   5.612   0.708  0.2330 -0.1718 -0.0228
67329W        W10246   5.280   4.230   1.967  0.0941  0.3623  0.0262
67330W        W10247   3.940   4.917   0.028 -0.3298 -0.0691  0.1364
67331W        W10248   5.518   6.048  31.502 -0.3027 -0.3272 -0.2189
67332W        W10249   6.841   3.971   2.550 -0.3213  0.1053 -0.2232
67333W        W10250   6.634   6.076   0.377 -0.1738  0.0901 -0.1678
67334W        W10251   5.994   6.738   1.417 -0.0265  0.0677 -0.1072
67335W        W10252   7.456   7.819   0.498 -0.0056 -0.0496  0.1298
67336W        W10253   6.227   4.273   2.343  0.1603 -0.1865 -0.3271
67337W        W10254   4.856   6.202   1.464  0.2215 -0.5961 -0.2028
67338W        W10255   4.626   7.628   1.632 -0.0312  0.2285 -0.0712
67339W        W10256   5.279   5.076   0.396 -0.2348  0.2861 -0.2024
67340W        W10257   6.063   3.075  31.455  0.1668 -0.1165 -0.2442
67341W        W10258   9.008   7.347   0.604  0.1153  0.0253  0.1490
67342W        W10259   5.985   3.927   0.800  0.4532 -0.1423 -0.2634
67343W        W10260   3.672   7.218   1.882  0.1120 -0.2204 -0.1542
67344W        W10261   6.320   4.964   2.982  0.2278  0.3285  0.2358
67345W        W10262   6.824   5.645   2.016  0.1575  0.0200  0.1142
67346W        W10263   6.784   5.429   0.959  0.0229  0.0450 -0.3564
67347W        W10264   3.805   3.489   1.183 -0.3228  0.0630 -0.0473
67348W        W10265   5.760   4.462   2.238 -0.0382 -0.1625  0.0801
67349W        W10266   4.644   8.023   0.017 -0.2219 -0.1519 -0.2253
67350W        W10267   2.821   5.872  31.769  0.0079 -0.0830  0.0751
67351W        W10268   6.601   5.531   2.516  0.1630  0.0057 -0.3263
67352W        W10269   6.672   3.617   0.277 -0.1490 -0.1073  0.1671
67353W        W10270   3.502   4.764   3.206  0.1831 -0.1262 -0.0082
67354W        W10271   7.577   4.559   2.794  0.1653  0.0703  0.3193
67355W        W10272   4.110   6.341  31.531  0.0661 -0.1318  0.0628
67356W        W10273   5.100   4.876   3.761 -0.2025 -0.0545  0.2617
67357W        W10274   7.533   4.369   1.773 -0.1087 -0.0283 -0.2475
67358W        W10275   8.030   3.736   1.771  0.3823 -0.1275 -0.2393
67359W        W10276   6.576   3.877   2.151  0.0632  0.0753 -0.0864
67360W        W10277   6.725   3.914  31.276  0.1574 -0.0443  0.2062
67361W        W10278   4.716   3.921   1.107  0.1947  0.2859 -0.0169
67362W        W10279   6.388   3.169   0.384  0.1934 -0.0598  0.0146
67363W        W10280   5.329   7.866   3.064  0.0914 -0.0463  0.2373
67364W        W10281   5.969   4.932   0.787  0.0643 -0.0236 -0.3428
67365W        W10282   7.294   5.276  31.202  0.4821 -0.1360  0.1522
67366W        W10283   4.682   4.293   1.566  0.0461 -0.1823  0.0200
67367W        W10284   7.578   7.018   0.025  0.2545  0.1493 -0.1846
67368W        W10285   5.421   7.156   1.530  0.5554 -0.0390  0.1461
67369W        W10286   5.686   5.698   3.639  0.1433  0.0000 -0.2993
67370W        W10287   6.647   6.307   2.270 -0.0599  0.1045 -0.0517
67371W        W10288   4.832   3.967   2.876  0.1403  0.0627  0.2612
67372W        W10289   8.418   6.473  31.030  0.0873  0.1430 -0.1169
67373W        W10290   6.417   3.570   1.216 -0.0380 -0.1051  0.0685
67374W        W10291   5.140   8.645   0.646 -0.2381 -0.2720  0.0766
67375W        W10292   8.387   3.034   0.003 -0.0676  0.0316  0.0674
67376W        W10293   6.562   4.884   0.747 -0.0479 -0.0658 -0.2686
67377W        W10294   6.513   3.539   0.745 -0.3573 -0.0565  0.3306
67378W        W10295   6.976   7.208   1.736  0.0552 -0.1923  0.0432
67379W        W10296   7.057   6.036  30.301 -0.0006 -0.2840 -0.0559
67380W        W10297   5.516   5.568   1.892 -0.1950 -0.1088  0.1457
67381W        W10298   6.134   5.633  30.410 -0.0730 -0.0539 -0.4063
67382W        W10299   7.982   3.281   2.571  0.3193 -0.0546  0.1409
67383W        W10300   6.288   5.826   2.836  0.0389  0.0849 -0.1728
67384W        W10301   5.262   7.343   3.245  0.0431  0.0179 -0.1353
67385W        W10302   5.258   5.279   2.795 -0.2009  0.1932 -0.3164
67386W        W10303   7.509   6.508   1.167  0.1593 -0.0949 -0.0143
67387W        W10304   7.810   4.149   2.849  0.0961  0.1518 -0.1000
67388W        W10305   4.410   4.548  31.762  0.2436  0.2113  0.0186
67389W        W10306   5.258   7.354  30.578  0.2014  0.1233  0.0309
67390W        W10307   4.728   5.987   0.229  0.1943 -0.1182 -0.0179
67391W        W10308   5.855   3.457   3.483  0.3731 -0.2444 -0.0744
67392W        W10309   5.135   4.677   2.287  0.2077 -0.0735  0.0734
67393W        W10310   3.535   6.118   0.523 -0.0472  0.5542  0.0125
67394W        W10311   7.828   6.389   1.778  0.2070 -0.2291 -0.0656
67395W        W10312   5.417   4.973  31.437  0.0759 -0.0693  0.1837
67396W        W10313   8.040   4.232   2.065  0.1396 -0.0101 -0.1635
67397W        W10314   6.105   5.722   2.336 -0.0137  0.1227  0.0970
67398W        W10315   4.070   3.779  31.770  0.0930 -0.1762 -0.1386
67399W        W10316   3.751   5.785   0.194 -0.1768  0.4329 -0.0452
67400W        W10317   5.081   4.751  31.115  0.0161 -0.0133 -0.2290
67401W        W10318   7.530   4.868   0.122  0.3503 -0.0904  0.0313
67402W        W10319   3.715   4.814   0.609 -0.0158  0.1481 -0.4661
67403W        W10320   6.361   3.993   0.512  0.1154 -0.1396 -0.0023
67404W        W10321   5.394   6.635   3.138 -0.0030  0.0450 -0.1646
67405W        W10322   5.891   5.359   0.593  0.2298 -0.0694 -0.1940
67406W        W10323   8.005   2.836   0.304  0.0533 -0.3058  0.0284
67407W        W10324   9.087   7.145   2.560 -0.0088 -0.3129  0.1711
67408W        W10325   5.600   2.938   4.172  0.1199  0.0224 -0.3641
67409W        W10326   6.194   5.203   0.084 -0.0951 -0.1518 -0.2722
67410W        W10327   9.503   6.088   1.838  0.1928 -0.2179  0.2479
67411W        W10328   6.213   3.063   2.378 -0.0744 -0.0873 -0.1549
67412W        W10329   4.630   6.834   0.791  0.3568  0.0344  0.1085
67413W        W10330   5.778   6.776   2.298  0.3104 -0.2126 -0.1747
67414W        W10331   5.051   5.346   0.892 -0.0254  0.0600  0.4057
67415W        W10332   5.905   2.674   0.852 -0.0390 -0.1665 -0.2334
67416W        W10333   6.946   3.449   3.349  0.1650  0.2760  0.0048
67417W        W10334   6.454   5.809   3.343  0.3066  0.1275  0.0824
67418W        W10335   6.802   1.897   1.103 -0.1719 -0.1461  0.0609
67419W        W10336   3.536   6.299   1.460 -0.1165  0.1547  0.1881
67420W        W10337   5.496   5.689   4.745 -0.2486 -0.1620  0.1086
67421W        W10338   8.616   5.578   0.852 -0.0961 -0.1371  0.0273
67422W        W10339   6.722   5.393   1.513  0.2925  0.0888  0.1331
67423W        W10340   6.194   8.574   2.424 -0.1779  0.1483  0.1378
67424W        W10341   4.605   5.244   2.371  0.0589  0.0452 -0.0191
67425W        W10342  10.288   8.276   0.789 -0.3101 -0.0883 -0.2452
67426W        W10343   6.103   4.500   4.680 -0.0707 -0.2692  0.0003
67427W        W10344   2.726   6.250  31.460  0.2426  0.3285  0.0213
67428W        W10345   4.167   3.868   1.202  0.4245 -0.1229  0.1763
67429W        W10346   5.343   6.861   0.031  0.1305 -0.0568 -0.0129
67430W        W10347   5.577   4.877   2.511 -0.1414  0.0161  0.0934
67431W        W10348   5.432   6.618   1.616  0.2432 -0.1283 -0.2850
67432W        W10349   4.152   6.682  31.098 -0.2094  0.0358  0.0549
67433W        W10350   4.231   7.613   2.978  0.1976  0.0292 -0.3249
67434W        W10351   7.387   2.140   1.618  0.0853 -0.0605  0.0652
67435W        W10352   8.303   6.964  31.296  0.1470  0.0451  0.1606
67436W        W10353   5.129   5.188   2.331  0.3635 -0.1082  0.3399
67437W        W10354   9.129   4.333   3.746 -0.1987  0.0201 -0.1451
67438W        W10355   6.162   4.392   0.804  0.0080 -0.0128 -0.3487
67439W        W10356   6.464   3.646   3.627  0.3380  0.1643  0.1376
67440W        W10357   4.620   5.928   2.436 -0.0563 -0.2436 -0.4815
67441W        W10358   6.195   4.668   0.386  0.1280 -0.2170 -0.1470
67442W        W10359   5.650   4.503   2.867  0.1377 -0.1334 -0.2246
67443W        W10360   6.971   5.534   4.711  0.1239  0.2027 -0.0232
67444W        W10361   5.337   4.874   4.270  0.0613  0.0506  0.3306
67445W        W10362   7.329   3.480   1.111  0.1868  0.1696  0.4219
67446W        W10363   5.108   3.742   1.340 -0.1653  0.3966  0.1652
67447W        W10364   6.157   6.171   2.123  0.2104  0.2692  0.2209
67448W        W10365   5.925   5.639  31.866 -0.2652  0.0841  0.1373
67449W        W10366   6.972   5.220  30.713  0.0307  0.2176  0.0796
67450W        W10367   6.616   3.155   1.479  0.1682 -0.1449 -0.1116
67451W        W10368   6.333   5.033   1.736 -0.0054  0.1564  0.2791
67452W        W10369   8.094   4.581  31.806  0.2323 -0.1551 -0.2368
67453W        W10370   4.731   5.021   1.868 -0.3835  0.2465  0.4390
67454W        W10371   7.089   5.741  30.719  0.3310  0.1274 -0.0494
67455W        W10372   3.878   4.648   2.341  0.2360  0.1083  0.0474
67456W        W10373   8.187   2.739   1.760  0.0100 -0.0763  0.0712
67457W        W10374   4.402   3.959   2.432 -0.1134  0.1843 -0.1299
67458W        W10375   5.679   3.838   2.280  0.0454 -0.0479  0.1703
67459W        W10376   7.869   4.099   1.393 -0.0432 -0.1437 -0.0515
67460W        W10377   6.393   5.132   3.449  0.3139  0.1910  0.1377
67461W        W10378   4.711   5.296   3.692 -0.1745  0.1414 -0.1035
67462W        W10379   6.033   5.341   4.415  0.1181  0.1300 -0.3080
67463W        W10380   7.160   3.679   0.074  0.1874  0.3245  0.1338
67464W        W10381   7.922   6.480   2.294  0.0724  0.3727  0.3100
67465W        W10382   6.780   7.258  31.954  0.4018  0.0859  0.1878
67466W        W10383   6.772   6.085  30.929 -0.0402 -0.3275 -0.1798
67467W        W10384   4.097   4.450   0.734 -0.0377  0.0359 -0.0893
67468W        W10385   6.502   6.280   2.751  0.0629 -0.2160 -0.0877
67469W        W10386   7.105   4.181  31.916  0.0725  0.0535 -0.0606
67470W        W10387   5.755   3.885   2.792  0.4179 -0.0669 -0.2861
67471W        W10388   6.997   8.125  30.698  0.1528  0.0401  0.2822
67472W        W10389   8.249   6.126   0.942 -0.0587 -0.0659  0.1150
67473W        W10390   7.459   3.930   1.057  0.0802 -0.2283  0.3331
67474W        W10391   1.939   4.966   0.468 -0.2028  0.0003  0.1183
67475W        W10392   6.670   8.810   2.236 -0.0348 -0.0205  0.2133
67476W        W10393   4.471   4.855  31.272 -0.0662  0.2973  0.0302
67477W        W10394   6.285   5.963  30.977  0.1303 -0.3690  0.0016
67478W        W10395   5.050   6.316   0.938  0.0447 -0.0237  0.1666
67479W        W10396   7.367   3.637   3.675 -0.0146  0.1572  0.0002
67480W        W10397   5.647   2.956   1.214 -0.1056 -0.1166 -0.0250
67481W        W10398   6.264   4.905   3.862  0.1123  0.1194 -0.3265
67482W        W10399   5.316   7.674   1.470  0.3476 -0.0152  0.2552
67483W        W10400   6.738   3.115  31.908 -0.2777  0.1305 -0.0499
67484W        W10401   5.808   6.883   3.238  0.0828 -0.0108 -0.2158
67485W        W10402   5.038   5.889   2.204 -0.1060 -0.0415 -0.0368
67486W        W10403   5.240   8.691   1.983  0.0757  0.0697 -0.0866
67487W        W10404   4.649   4.743   2.271  0.3576  0.0665  0.3314
67488W        W10405   7.507   5.056  30.703 -0.0683  0.1297  0.2613
67489W        W10406   5.705   5.084   1.534  0.1579 -0.0648  0.0904
67490W        W10407   8.130   6.503  31.934 -0.3744  0.2241 -0.1982
67491W        W10408   7.308   4.376   3.303  0.1107 -0.0478  0.1792
67492W        W10409   7.188   5.127   0.800  0.1057 -0.2762 -0.0752
67493W        W10410   5.705   6.958   1.879 -0.0490  0.1776 -0.0026
67494W        W10411   8.360   4.115   1.095  0.0152  0.2058 -0.2131
67495W        W10412   5.503   7.215   2.219  0.0858 -0.0699  0.1870
67496W        W10413   5.465   5.432   3.250  0.2414 -0.2055 -0.0130
67497W        W10414   6.991   6.253   2.891 -0.2522 -0.0584 -0.0703
67498W        W10415   6.227   4.412  31.787 -0.1161  0.2814  0.0051
67499W        W10416   5.813   3.269  31.961  0.2653 -0.0906  0.0727
67500W        W10417   8.567   8.131   0.057  0.0135  0.1709  0.0284
67501W        W10418   5.486   6.069   2.924  0.1112 -0.0367  0.1346
67502W        W10419   3.601   3.312   2.932  0.1386  0.0429 -0.1262
67503W        W10420   3.278   8.245   1.033  0.0277 -0.2175 -0.0278
67504W        W10421   8.418   7.594  31.237 -0.1099  0.2446  0.1215
67505W        W10422   7.551   4.906   1.063 -0.0271 -0.0096  0.1977
67506W        W10423   6.088   9.090   2.848 -0.1738 -0.1111  0.0470
67507W        W10424   4.251   5.550   0.686 -0.0368  0.4821 -0.0344
67508W        W10425   6.176   5.496   1.452 -0.0144 -0.0347  0.1867
67509W        W10426   2.981   5.250   0.123  0.1177  0.0729 -0.1251
67510W        W10427   8.632   8.043  30.962  0.4005 -0.1550 -0.3587
67511W        W10428   5.156   6.906  31.465  0.1450 -0.0770 -0.3528
67512W        W10429   6.805   7.472   2.250 -0.0299 -0.2059 -0.0961
67513W        W10430   7.088   4.653   0.719  0.3812  0.1179 -0.1334
67514W        W10431   8.543   6.612   0.838  0.0176  0.3895  0.3552
67515W        W10432   6.426   5.268  30.122  0.0072  0.0330  0.1835
67516W        W10433   6.562   7.483   3.486 -0.2953  0.1553  0.1311
67517W        W10434   6.782   5.623   0.516 -0.2161 -0.2779  0.1127
67518W        W10435   4.949   3.875   1.833 -0.1217 -0.1495 -0.2146
67519W        W10436   4.193   6.067   3.686  0.2095  0.2998  0.2100
67520W        W10437   8.143   3.638   4.090  0.1265 -0.0573  0.0641
67521W        W10438   5.591   8.800   2.827  0.0215  0.3279 -0.1399
67522W        W10439   6.684   6.167  29.989 -0.0074 -0.1678 -0.2086
67523W        W10440   3.327   4.654   1.085 -0.2346  0.1174 -0.2901
67524W        W10441   6.058   4.681   2.603 -0.1215 -0.1005  0.1682
67525W        W10442   6.644   4.976   2.564  0.1295 -0.0223 -0.1503
67526W        W10443   6.300   3.880  31.510  0.1127  0.1406  0.2282
67527W        W10444   7.144   3.143   2.168  0.0697 -0.0768  0.0218
67528W        W10445   5.987   7.615   2.056  0.1643  0.2227  0.0670
67529W        W10446   4.683   6.907   2.150 -0.2811 -0.0363  0.0535
67530W        W10447   4.601   6.684   1.468 -0.1354 -0.0523  0.4362
67531W        W10448   3.790   3.024  30.380  0.3002 -0.0171  0.2801
67532W        W10449   8.692   3.438   0.486  0.0793  0.1553 -0.2189
67533W        W10450   6.282   6.651   2.438  0.0436  0.0758 -0.1034
67534W        W10451   7.275   5.654   2.183 -0.2364  0.1805  0.2028
67535W        W10452   4.275   4.517   2.021 -0.0640  0.1322  0.0433
67536W        W10453   5.829   2.896   2.093 -0.1025  0.1032  0.0696
67537W        W10454   6.401   5.684   1.010  0.2090 -0.4091 -0.1629
67538W        W10455   5.582   3.872   3.740  0.2142 -0.2112  0.0723
67539W        W10456   6.668   4.388   0.589 -0.0829  0.0108  0.1166
67540W        W10457   6.038   7.381   0.824  0.0137 -0.3900 -0.0563
67541W        W10458   5.663   5.774  30.385  0.0385  0.0357  0.0191
67542W        W10459   8.016   7.418   2.729  0.1726  0.0313 -0.1973
67543W        W10460   3.052   4.624  31.861 -0.3458  0.2393  0.2672
67544W        W10461   4.536   5.335   0.983 -0.3058 -0.0229 -0.2064
67545W        W10462   4.360   6.587  31.867  0.0343 -0.2237  0.4184
67546W        W10463   6.397   6.949   0.100  0.1772 -0.4954 -0.2521
67547W        W10464   8.173   4.441   3.112  0.1145  0.3299  0.1291
67548W        W10465   4.278   4.788   0.344  0.2440 -0.1849 -0.0418
67549W        W10466   8.368   8.631   0.823 -0.1051  0.1300 -0.1029
67550W        W10467   7.443   6.292   0.719  0.0827  0.0498  0.1778
67551W        W10468   4.974   7.727  31.729 -0.2066 -0.1279 -0.0293
67552W        W10469   6.156   6.238   0.686  0.0394  0.0312  0.0069
67553W        W10470   5.494   3.758   3.195 -0.1321 -0.1008  0.0723
67554W        W10471   4.932   6.402   1.967 -0.1554  0.2910 -0.0466
67555W        W10472   5.901   5.821   1.758 -0.1558  0.2140  0.0108
67556W        W10473   6.727   6.523  31.956 -0.0453  0.0920  0.4351
67557W        W10474   4.311   5.284   0.239  0.2671  0.0085  0.0706
67558W        W10475   4.377   6.249   1.496 -0.3248 -0.2745  0.0277
67559W        W10476   3.380   8.684   0.694  0.1043  0.1424 -0.2204
67560W        W10477   6.515   6.426   1.232 -0.1971  0.3793  0.1206
67561W        W10478   6.502   4.017   3.185 -0.2642 -0.0298 -0.1143
67562W        W10479   6.813   5.473  31.198 -0.1051  0.0778  0.2895
67563W        W10480   6.794   2.865   2.495  0.3751  0.0922 -0.1286
67564W        W10481   3.214   7.067   3.725  0.0646  0.0888  0.1974
67565W        W10482   3.922   4.639   3.962  0.2360  0.0541  0.1765
67566W        W10483   5.101   6.734   1.254 -0.0950 -0.1880 -0.1791
67567W        W10484   5.461   5.088   0.870 -0.0722  0.0683  0.1329
67568W        W10485   6.503   3.979   0.993 -0.2187 -0.3190  0.2715
67569W        W10486   5.495   6.121   0.638 -0.2369 -0.3060 -0.1087
67570W        W10487   7.468   7.616  31.919  0.1526  0.0685  0.0380
67571W        W10488   4.620   5.042   0.618  0.0315  0.2234  0.0711
67572W        W10489   7.130   5.724   1.568 -0.0139  0.0480  0.3495
67573W        W10490   5.482   4.650   1.815 -0.0094 -0.1319 -0.1156
67574W        W10491   7.589   4.383   0.041  0.2338 -0.5804 -0.2228
67575W        W10492   6.007   2.452   1.839 -0.0974 -0.1179  0.2244
67576W        W10493   4.475   7.834   2.491 -0.1164  0.1906  0.0181
67577W        W10494   5.160   5.847   1.697 -0.1513 -0.2311  0.1132
67578W        W10495   5.883   6.057   0.248  0.1233  0.1264  0.1054
67579W        W10496   5.348   6.196   1.937  0.0123 -0.1519 -0.0488
67580W        W10497   6.829   2.403   2.262 -0.2868 -0.0244  0.1648
67581W        W10498   5.185   5.153   5.471  0.0786  0.0725 -0.0734
67582W        W10499   5.160   4.557   3.345  0.1069  0.0542 -0.0131
67583W        W10500   5.205   3.507   3.633  0.0464 -0.0712 -0.0796
67584W        W10501  10.117   9.593  30.723 -0.1944 -0.1247 -0.1061
67585W        W10502   3.596   3.166   1.650  0.1039  0.0021 -0.0751
67586W        W10503   4.471   3.652   0.227 -0.1030 -0.0984  0.3115
67587W        W10504   6.560   5.624  30.746  0.0701  0.0499  0.0702
67588W        W10505   8.838   7.271  31.175  0.1632  0.0292 -0.1059
67589W        W10506   8.021   2.329   1.050  0.0051  0.0109 -0.1835
67590W        W10507   5.785   5.551   2.787  0.2645  0.1640 -0.0877
67591W        W10508   5.752   9.214   0.581 -0.1257 -0.0697 -0.1778
67592W        W10509   5.841   5.032   2.908  0.2627 -0.0795  0.2165
67593W        W10510   5.612   4.358   5.425 -0.5147 -0.0445  0.0611
67594W        W10511   3.124   4.329  31.445 -0.1976  0.1926  0.2134
67595W        W10512   6.713   4.553   2.283  0.2281  0.0756 -0.2315
67596W        W10513   6.496   4.563   1.248  0.0966  0.1729 -0.2095
67597W        W10514   7.769   8.105  30.758 -0.2767 -0.2084 -0.0073
67598W        W10515   6.374   5.819   1.797 -0.0466  0.1068 -0.4209
67599W        W10516   3.846   6.752   2.703  0.0039 -0.0885 -0.2004
67600W        W10517   3.225   5.160   1.775  0.2297 -0.0403 -0.0019
67601W        W10518   8.471   6.016  30.270  0.0282  0.2796  0.1561
67602W        W10519   4.483   5.915   2.959  0.2018 -0.2129 -0.1174
67603W        W10520   9.231   7.869   0.085 -0.2606 -0.0736 -0.1333
67604W        W10521   8.273   4.412   1.535  0.0377  0.1775  0.2496
67605W        W10522   4.425   5.229   1.532  0.0081  0.0137  0.3644
67606W        W10523   3.600   6.677   1.834 -0.1595  0.1175  0.0274
67607W        W10524   4.729   5.534   2.023 -0.0840  0.0970 -0.1299
67608W        W10525   7.427   6.827  31.114 -0.0913 -0.0958  0.1803
67609W        W10526   4.611   3.728   1.554 -0.0677  0.1583  0.1137
67610W        W10527   5.348   6.203   1.354  0.3105 -0.0932  0.0910
67611W        W10528   6.601   6.865   0.941  0.0965 -0.0260  0.0727
67612W        W10529   5.593   5.767   1.307 -0.2144 -0.4944 -0.1319
67613W        W10530   5.013   3.147   0.538  0.0125 -0.3621  0.1385
67614W        W10531   7.062   4.390   1.783  0.4962  0.1514 -0.3520
67615W        W10532   7.328   4.061   0.566  0.1931  0.0201  0.0245
67616W        W10533   7.345   4.823   1.528  0.0828  0.0862 -0.0754
67617W        W10534   4.784   5.474   0.435 -0.2229 -0.1600  0.0360
67618W        W10535   7.111   5.171  31.648  0.1852 -0.1012  0.0454
67619W        W10536   6.489   9.364   2.987  0.1240 -0.0577  0.1570
67620W        W10537   8.248   7.970   2.896  0.1226 -0.1656  0.3805
67621W        W10538   6.229   6.240   3.183 -0.2551  0.0604 -0.1777
67622W        W10539   6.902   6.065  31.893 -0.0996  0.0804 -0.0969
67623W        W10540   4.776   4.321   2.036  0.1926 -0.1299 -0.1887
67624W        W10541   5.260   5.117   1.880  0.1419  0.0965 -0.1699
67625W        W10542   3.981   6.452   2.263  0.0756  0.0250  0.0961
67626W        W10543   7.023   7.139  31.113  0.0559 -0.0521  0.0085
67627W        W10544   3.949   5.176   1.738  0.2250 -0.5734  0.3693
67628W        W10545   6.028   1.982   1.569  0.0704  0.2607 -0.1507
67629W        W10546   4.997   5.994   3.114  0.0674  0.0771  0.0575
67630W        W10547   6.094   5.379   2.019  0.1503 -0.0516  0.0083
67631W        W10548   5.616   6.179   3.900  0.2387  0.0104  0.1545
67632W        W10549   4.426   4.797   4.976  0.0510  0.1136  0.1693
67633W        W10550   6.724   3.396   1.925 -0.0152 -0.1928  0.3778
67634W        W10551   8.224   6.968   2.888 -0.1409 -0.5116  0.0914
67635W        W10552   3.039   3.657   5.980 -0.1300  0.1574 -0.2358
67636W        W10553   6.624   5.853   4.491  0.1318  0.3470 -0.1576
67637W        W10554   5.117   2.841   5.145  0.0701 -0.2495  0.2025
67638W        W10555   6.246   6.590   5.038  0.0028  0.0936  0.0909
67639W        W10556   5.761   8.046   5.896  0.1528  0.0021  0.2912
67640W        W10557   6.099   4.426   3.720 -0.0092  0.0340 -0.0368
67641W        W10558   6.612   3.997   7.182  0.3906 -0.0616  0.1600
67642W        W10559   3.934   6.722   7.539  0.2755  0.1734  0.0629
67643W        W10560   7.224   3.589   2.358  0.2818  0.0367  0.3032
67644W        W10561   4.728   3.062   5.509  0.1825  0.0079 -0.0252
67645W        W10562   6.990   5.183   5.896  0.2988  0.2009 -0.0597
67646W        W10563   4.792   3.066   4.475  0.0917  0.0140  0.0292
67647W        W10564   4.454   5.666   7.161  0.1454 -0.2126  0.6384
67648W        W10565   2.627   4.326   3.467  0.0213 -0.1887  0.0035
67649W        W10566   6.362   6.586   6.012  0.2099  0.0298 -0.0361
67650W        W10567   6.142   4.135   5.357  0.2326  0.2348  0.2767
67651W        W10568   6.793   2.795   6.328 -0.0571 -0.0170 -0.1899
67652W        W10569   7.762   7.886   2.717 -0.2033  0.2062  0.1776
67653W        W10570   4.092   4.252   3.131 -0.0503 -0.0358 -0.1694
67654W        W10571   3.951   6.394   4.082  0.1243  0.0263 -0.0343
67655W        W10572   4.078   4.151   4.813  0.0640  0.2826  0.0827
67656W        W10573   6.317   4.880   6.524  0.3006 -0.1408  0.1616
67657W        W10574   6.360   4.101   4.473  0.0059  0.1064 -0.2938
67658W        W10575   6.772   7.538   4.102  0.2825 -0.0657 -0.2753
67659W        W10576   6.443   6.277   5.621  0.0087 -0.1583  0.1088
67660W        W10577   5.809   4.716   4.340  0.0988 -0.2120  0.1144
67661W        W10578   3.523   5.444   4.730  0.0730 -0.2113  0.0385
67662W        W10579   5.170   5.430   4.308 -0.3626  0.0656  0.2259
67663W        W10580   4.499   6.687   4.349  0.1615  0.2270  0.0940
67664W        W10581   8.268   6.236   5.825  0.2678  0.4339 -0.2094
67665W        W10582   7.380   7.761   5.469  0.0208  0.1981  0.0066
67666W        W10583   3.342   6.961   9.427  0.0736  0.2151  0.3356
67667W        W10584   4.455   7.989   3.963 -0.2361 -0.0441  0.1145
67668W        W10585   7.341   7.675   7.405  0.0481  0.1008  0.2199
67669W        W10586   5.348   7.877   6.028 -0.0922 -0.2511 -0.0516
67670W        W10587   4.708   4.241   6.254 -0.2730 -0.1125  0.0260
67671W        W10588   7.057   4.363   6.280 -0.1261  0.0022 -0.0547
67672W        W10589   6.301   7.561   2.645 -0.0376 -0.1367  0.0108
67673W        W10590   4.729   5.103   6.218  0.0738 -0.4033 -0.0031
67674W        W10591   5.519   6.520   5.299  0.0066 -0.0388  0.0267
67675W        W10592   4.203   6.305   4.569  0.0141 -0.1916 -0.0130
67676W        W10593   7.196   5.693   8.720  0.0172 -0.0887  0.0779
67677W        W10594   4.298   5.990   4.165 -0.2297 -0.1929 -0.1313
67678W        W10595   6.623   3.925   5.376  0.2050 -0.0532  0.1066
67679W        W10596   5.909   5.229   3.583  0.1429 -0.4080  0.0432
67680W        W10597   6.539   4.533   2.767  0.2364 -0.0820  0.0574
67681W        W10598   4.591   5.445   5.494  0.0155  0.1233  0.0722
67682W        W10599   5.174   5.947   4.355 -0.1725  0.5208  0.3206
67683W        W10600   4.605   4.297   4.722  0.2165  0.3472 -0.2865
67684W        W10601   7.776   8.115   6.998  0.1855 -0.0099 -0.1223
67685W        W10602   5.633   6.284   5.736 -0.2308  0.0204  0.0169
67686W        W10603   5.404   4.782   5.683 -0.1307  0.0679 -0.2582
67687W        W10604   5.225   7.028   7.852 -0.2127  0.0347 -0.1504
67688W        W10605   2.326   3.940   4.680  0.1378 -0.2166  0.4255
67689W        W10606   7.469   7.446   2.670  0.6014 -0.1793  0.1050
67690W        W10607   7.923   6.473   7.876  0.1434 -0.0088  0.2597
67691W        W10608   7.317   7.275   3.131 -0.1411  0.0530 -0.1424
67692W        W10609   4.579   5.775   4.561  0.2692  0.2699 -0.2216
67693W        W10610   3.490   3.568   6.112 -0.0254  0.4384 -0.1259
67694W        W10611   4.196   5.313   6.971 -0.4783 -0.1841  0.3544
67695W        W10612   4.512   3.048   2.365 -0.0369 -0.3458 -0.0282
67696W        W10613   6.758   4.915   6.904 -0.0771  0.2713  0.0530
67697W        W10614   2.649   7.884   9.301 -0.1045  0.0715  0.1797
67698W        W10615   8.831   5.288   6.862  0.0355  0.0904 -0.1314
67699W        W10616   4.752   6.346   7.689 -0.2793  0.0741 -0.0966
67700W        W10617   7.330   6.431   6.188  0.0332 -0.0506 -0.0283
67701W        W10618   6.982   6.055   4.773 -0.2269  0.0923 -0.0494
67702W        W10619   4.962   2.488   6.755 -0.0488 -0.0729  0.1661
67703W        W10620   7.614   1.819   9.473 -0.2858 -0.0049 -0.2141
67704W        W10621   4.655   5.457   4.170  0.0526 -0.0929 -0.0479
67705W        W10622   6.644   7.945   4.500 -0.2758  0.1572 -0.1870
67706W        W10623   7.882   7.094   7.058  0.0559  0.1094  0.0817
67707W        W10624   7.824   6.038   3.457 -0.3866  0.1898 -0.0393
67708W        W10625   4.367   6.843   5.753  0.0986 -0.4229 -0.2285
67709W        W10626   7.399   5.137   6.948 -0.1485  0.1450 -0.1762
67710W        W10627   6.472   5.127   8.210 -0.1640  0.3999 -0.3103
67711W        W10628   4.890   6.471   3.424  0.0552  0.2192 -0.1002
67712W        W10629   3.693   5.064   5.354 -0.1631 -0.1340  0.0854
67713W        W10630   4.168   5.552   3.910 -0.0349 -0.0135  0.1627
67714W        W10631   4.698   3.707   7.789  0.0701  0.1548 -0.0629
67715W        W10632   4.060   7.853   6.446 -0.0621  0.0457  0.2604
67716W        W10633   4.333   5.613   3.362 -0.0870  0.1111 -0.2116
67717W        W10634   6.979   3.659   5.645 -0.1431  0.5523 -0.1523
67718W        W10635   7.490   4.067   7.882  0.0506  0.1541 -0.0102
67719W        W10636   5.624   6.162   4.459 -0.1934  0.1379 -0.0479
67720W        W10637   5.985   8.278   5.504  0.0491 -0.2563 -0.3195
67721W        W10638   7.101   5.299   3.340  0.2160 -0.3089 -0.1425
67722W        W10639   6.138   5.422   3.163 -0.0613  0.1335 -0.0538
67723W        W10640   6.334   4.276   6.160  0.0403 -0.0336 -0.4598
67724W        W10641   4.271   5.091   4.074 -0.1708 -0.0871 -0.1380
67725W        W10642   5.178   3.610   7.509 -0.1408 -0.2484 -0.0686
67726W        W10643   4.035   3.639   4.750 -0.0689  0.3186 -0.1016
67727W        W10644   5.486   5.325   8.639 -0.1028  0.0332  0.0375
67728W        W10645   1.707   4.732   3.651 -0.1719 -0.3313 -0.2258
67729W        W10646   5.164   4.250   5.073 -0.0281  0.1337 -0.2864
67730W        W10647   4.454   5.166   3.216  0.1164 -0.0913  0.1959
67731W        W10648   2.853   4.451   5.327 -0.1668 -0.0352 -0.1074
67732W        W10649   5.266   4.723   9.141 -0.1181 -0.1919 -0.0794
67733W        W10650   5.828   6.474   2.974  0.1734 -0.1141 -0.1507
67734W        W10651   7.788   7.370   7.982  0.2805 -0.0446  0.0197
67735W        W10652   6.790   6.085   5.328 -0.2443 -0.0253  0.0074
67736W        W10653   5.616   2.840   7.758 -0.1690  0.1344  0.1962
67737W        W10654   5.518   2.129   5.695  0.1640  0.2334  0.2102
67738W        W10655   3.626   7.004   7.293  0.0361  0.1047  0.0663
67739W        W10656   4.863   4.837   5.855  0.2492  0.2711  0.1769
67740W        W10657   4.222   5.181   5.157 -0.0152  0.1580  0.2873
67741W        W10658   8.586   6.914   6.201 -0.0327 -0.2606 -0.2544
67742W        W10659   6.659   4.601   3.919 -0.0873 -0.2492 -0.1145
67743W        W10660   4.799   6.857   7.547  0.0231 -0.3011 -0.0368
67744W        W10661   6.509   4.258   5.010  0.0872 -0.3995  0.2612
67745W        W10662   6.727   4.913   5.499 -0.2512  0.2765  0.4555
67746W        W10663   7.103   3.952   7.353 -0.1002 -0.0050  0.2853
67747W        W10664   4.539   4.760   4.484  0.2074  0.3330  0.1071
67748W        W10665   7.489   6.961   6.295 -0.1493 -0.1570 -0.2617
67749W        W10666   5.815   5.894   6.331 -0.0931 -0.0568  0.3654
67750W        W10667   3.614   3.849   4.686  0.0720  0.0808  0.0520
67751W        W10668   5.968   4.763   3.345 -0.1627  0.0401 -0.0591
67752W        W10669   8.933   4.728   6.938 -0.2350 -0.1804  0.2738
67753W        W10670   4.923   5.659   6.878  0.0855  0.0707  0.0079
67754W        W10671   6.350   3.845   9.645 -0.0335  0.1274 -0.4227
67755W        W10672   2.144   3.982   5.523  0.0716 -0.0156  0.1189
67756W        W10673   6.093   5.237   7.908 -0.2084  0.3004 -0.1239
67757W        W10674   5.569   2.720   6.492 -0.2771  0.1110 -0.0818
67758W        W10675   7.948   4.871   3.945  0.0093 -0.0980  0.0565
67759W        W10676   5.203   4.476   7.495  0.0565  0.3539 -0.2146
67760W        W10677   7.657   5.860   3.959 -0.0066  0.1556  0.0425
67761W        W10678   6.528   3.544   3.015  0.0177  0.0195  0.0137
67762W        W10679   6.738   2.014   4.244  0.1085 -0.0264  0.0753
67763W        W10680   2.998   6.554   7.758  0.1957  0.3334 -0.0283
67764W        W10681   5.816   4.155   6.290 -0.1881  0.0960  0.0303
67765W        W10682   5.546   4.527   6.587 -0.1993 -0.0800  0.1054
67766W        W10683   6.312   4.758   2.135 -0.0447 -0.1406  0.1690
67767W        W10684   6.904   7.572   4.637 -0.0247 -0.1129 -0.1452
67768W        W10685   5.004   6.918   5.573 -0.1932  0.1258 -0.0230
67769W        W10686   5.934   5.572   7.202  0.2238  0.0228 -0.1124
67770W        W10687   6.103   4.400   6.639 -0.0092 -0.2575  0.2452
67771W        W10688   5.787   4.075   6.808 -0.1005 -0.1559  0.0642
67772W        W10689   5.056   4.369   5.752  0.0494 -0.0163  0.2056
67773W        W10690   6.456   2.726   3.818 -0.0335  0.2565 -0.1508
67774W        W10691   4.185   7.275   3.460  0.2387  0.0202 -0.1473
67775W        W10692   6.728   3.060   4.974 -0.5286 -0.2090  0.0448
67776W        W10693   5.035   3.717   5.068 -0.0378  0.0136  0.1970
67777W        W10694   7.969   1.536   8.624 -0.0508 -0.0213  0.2972
67778W        W10695   6.518   5.292   6.239  0.0221  0.2171  0.1075
67779W        W10696   8.030   3.641   2.958 -0.1213 -0.0771 -0.1418
67780W        W10697   6.536   5.970   6.150 -0.0734 -0.1572  0.2148
67781W        W10698   5.171   3.192   4.210  0.0481  0.0112  0.3022
67782W        W10699   7.592   6.074   6.040  0.0002 -0.4181 -0.1521
67783W        W10700   4.577   5.998   6.589 -0.0485 -0.1668  0.3855
67784W        W10701   6.130   8.069   7.876 -0.1056 -0.0312 -0.1505
67785W        W10702   6.909   5.771   7.503  0.3877 -0.0604 -0.0941
67786W        W10703   6.534   6.031   3.781  0.0881 -0.0435 -0.1402
67787W        W10704   6.815   5.427   7.103  0.2721 -0.1154 -0.1118
67788W        W10705   4.829   4.703   5.384 -0.2438 -0.1097 -0.1604
67789W        W10706   5.812   6.172   4.945 -0.0249  0.0866 -0.0610
67790W        W10707   4.874   6.757   3.966 -0.1830  0.0392  0.0693
67791W        W10708   6.929   4.490   4.991  0.2068  0.0083  0.1759
67792W        W10709   5.449   4.822   7.101  0.1903  0.0237  0.1911
67793W        W10710   6.341   5.049   1.251  0.0661 -0.1925  0.0114
67794W        W10711   6.136   6.233   7.243  0.0931  0.1234  0.0744
67795W        W10712   5.659   5.050   5.347  0.3554  0.0936 -0.1077
67796W        W10713   7.635   2.204   5.621 -0.1672  0.2189  0.1434
67797W        W10714   4.433   4.701   6.119 -0.1371 -0.1300  0.2895
67798W        W10715   3.966   3.386   6.184  0.2993  0.2409  0.0824
67799W        W10716   3.842   5.210   3.847 -0.1936  0.0394  0.0967
67800W        W10717   6.941   5.392   4.233  0.2875  0.2941 -0.0083
67801W        W10718   5.851   3.822   4.419 -0.0576  0.2030  0.0715
67802W        W10719   6.606   1.885   6.446  0.2045 -0.0052  0.0716
67803W        W10720   6.550   3.599   5.847 -0.0275  0.2460 -0.3190
67804W        W10721   5.074   6.022   4.835  0.2227  0.4413 -0.1369
67805W        W10722   6.371   5.222   7.265 -0.0404 -0.1767  0.2727
67806W        W10723   7.376   3.979   5.436 -0.3710 -0.1523 -0.2910
67807W        W10724   7.545   6.413   5.559  0.1216  0.3820 -0.1341
67808W        W10725   5.507   4.026   7.435  0.1581 -0.0582 -0.0103
67809W        W10726   3.587   2.926   5.237 -0.0967  0.1194  0.0633
67810W        W10727   7.003   5.322   6.631  0.1007 -0.0433 -0.1204
67811W        W10728   3.991   4.693   5.598  0.1002  0.2554 -0.1771
67812W        W10729   4.697   6.052   5.164  0.0292  0.1169 -0.0415
67813W        W10730   7.689   6.278   6.535  0.4039 -0.0849  0.3319
67814W        W10731   6.128   5.772   4.795 -0.2219  0.2984  0.2365
67815W        W10732   5.834   5.895   3.238 -0.0489 -0.2596  0.1167
67816W        W10733   4.226   4.433   7.960 -0.0011 -0.0461  0.0587
67817W        W10734   7.533   7.061   7.517 -0.2945  0.0492  0.3130
67818W        W10735   4.136   4.260   5.771  0.0730  0.0471 -0.1552
67819W        W10736   5.646   5.718   4.240  0.1875  0.1074  0.0202
67820W        W10737   3.636   5.407   5.731  0.3378  0.3327  0.1180
67821W        W10738   6.162   5.579   6.028  0.4709 -0.2009 -0.0759
67822W        W10739   4.849   4.301   6.721 -0.1249 -0.0251 -0.2700
67823W        W10740   4.998   6.619   8.019 -0.0309 -0.1986 -0.0495
67824W        W10741   5.141   3.679   6.857  0.1290 -0.0667  0.0382
67825W        W10742   6.447   7.092   2.687  0.1426 -0.1522  0.3057
67826W        W10743   6.802   5.186   7.791 -0.0866  0.0348 -0.2172
67827W        W10744   4.220   4.742   3.088 -0.3562 -0.2550  0.0354
67828W        W10745   3.282   5.703   6.549  0.1891  0.2093  0.1685
67829W        W10746   6.720   6.719   4.318  0.1751  0.0917  0.0402
67830W        W10747   4.591   4.437   5.727  0.3597 -0.2790  0.0165
67831W        W10748   5.732   6.843   6.714 -0.0154 -0.0544 -0.0841
67832W        W10749   4.342   6.409   5.237  0.2442 -0.1149 -0.0186
67833W        W10750   4.257   6.004   4.979 -0.2544 -0.0265  0.4226
67834W        W10751   8.320   4.865   3.359 -0.0901 -0.1937 -0.0472
67835W        W10752   5.160   4.589   2.807  0.1430 -0.2488 -0.1302
67836W        W10753   4.963   5.535   4.746  0.0170 -0.2736  0.2421
67837W        W10754   6.622   4.430   6.515 -0.2010 -0.0772  0.2799
67838W        W10755   6.212   5.597   3.688  0.3122 -0.1124  0.2156
67839W        W10756   5.487   4.669   7.959 -0.2227  0.1445  0.0683
67840W        W10757   5.332   6.013   6.196 -0.4196 -0.0454  0.1319
67841W        W10758   7.398   5.993   4.396 -0.1827 -0.2935 -0.1526
67842W        W10759   3.773   3.655   5.714  0.2481 -0.2146 -0.0272
67843W        W10760   5.512   9.425   5.303 -0.2051  0.0562  0.3556
67844W        W10761   3.577   5.950   8.543  0.0155  0.0199  0.1483
67845W        W10762   4.531   2.811   3.464 -0.1734 -0.2182 -0.2902
67846W        W10763   5.276   4.164   3.042  0.0112 -0.2094  0.2953
67847W        W10764   3.853   5.995   5.366  0.1014 -0.0415 -0.0441
67848W        W10765   6.786   4.919   4.359 -0.2486 -0.0037 -0.1317
67849W        W10766   6.156   6.292   4.526 -0.0332  0.2962 -0.2436
67850W        W10767   7.831   5.699   5.785 -0.0666 -0.1217 -0.0559
67851W        W10768   3.426   4.550   6.324 -0.2424  0.1269 -0.1154
67852W        W10769   6.224   3.534   4.550 -0.0038 -0.0112  0.2973
67853W        W10770   6.013   4.407   5.814 -0.0257  0.5440 -0.2876
67854W        W10771   3.206   4.387   5.673  0.3439 -0.0295  0.0341
67855W        W10772   4.774   3.374   6.758  0.0635  0.2027 -0.0179
67856W        W10773   7.302   5.416   5.567 -0.0319  0.1929  0.1379
67857W        W10774   6.749   3.045   5.767 -0.0449  0.4267 -0.2413
67858W        W10775   6.475   4.511   6.945 -0.0237  0.1767 -0.0022
67859W        W10776   6.059   3.891   7.234  0.0002  0.1563  0.1724
67860W        W10777   2.185   4.846   6.764  0.0932 -0.2838 -0.5503
67861W        W10778   5.197   3.097   5.875 -0.0794 -0.1491 -0.1862
67862W        W10779   6.117   7.743   5.673  0.4346 -0.3456 -0.0535
67863W        W10780   6.486   4.578   3.357  0.0380  0.1672  0.0628
67864W        W10781   6.473   5.129   8.838 -0.0006 -0.3022  0.3921
67865W        W10782   6.236   2.729   3.270  0.3517 -0.1499  0.0853
67866W        W10783   5.253   4.308   3.901  0.0892  0.1646  0.2151
67867W        W10784   5.888   4.935   4.802 -0.1183 -0.1314 -0.1455
67868W        W10785   6.435   5.544   7.710 -0.1360 -0.2620 -0.0734
67869W        W10786   6.093   3.887   3.925  0.1841  0.3269  0.0696
67870W        W10787   5.951   4.635   6.227  0.0305 -0.0563  0.0621
67871W        W10788   6.667   8.017   3.613 -0.1780 -0.0332 -0.0787
67872W        W10789   6.445   6.720   7.184 -0.3204 -0.0790 -0.3271
67873W        W10790   4.686   4.101   5.303 -0.0476 -0.0254  0.0558
67874W        W10791   2.515   3.105   3.048 -0.0497  0.0330 -0.4136
67875W        W10792   5.325   7.560   7.408  0.1119 -0.2713 -0.1623
67876W        W10793   4.168   6.388   2.983 -0.0376  0.0737  0.4457
67877W        W10794   7.121   6.797   3.637  0.0335 -0.0394  0.3663
67878W        W10795   4.428   6.037   5.964  0.3851  0.0106  0.0372
67879W        W10796   7.080   4.983   8.243 -0.1434 -0.1038 -0.1357
67880W        W10797   5.682   3.340   2.844 -0.0265  0.0916 -0.1940
67881W        W10798   8.632   3.296   7.321  0.3799 -0.0205  0.0156
67882W        W10799   4.233   7.184   4.491  0.3777 -0.3376 -0.1101
67883W        W10800   6.712   3.049   7.804  0.0078 -0.2491  0.2135
67884W        W10801   6.488   5.316   5.739  0.1520 -0.0166 -0.1672
67885W        W10802   3.497   6.475   6.831  0.0566  0.1351 -0.0865
67886W        W10803   7.469   7.419   4.596  0.1256  0.0132 -0.0500
67887W        W10804   5.896   3.320   8.032  0.4042 -0.1025  0.1374
67888W        W10805   6.633   4.528   4.584  0.0581 -0.0043 -0.1081
67889W        W10806   4.653   4.752   6.563  0.0133 -0.0345 -0.1381
67890W        W10807   6.964   3.020   7.251 -0.0924 -0.2278  0.2885
67891W        W10808   5.325   4.080   6.552 -0.1292  0.0820  0.1566
67892W        W10809   6.666   6.485   4.747 -0.0765 -0.3214  0.2625
67893W        W10810   5.286   8.475   7.034 -0.2710  0.0434 -0.2859
67894W        W10811   7.192   7.118   4.970  0.1804  0.1726 -0.2451
67895W        W10812   4.768   6.412   4.834 -0.2921  0.1465 -0.0624
67896W        W10813   3.417   4.932   6.840 -0.1825  0.0800 -0.0371
67897W        W10814   4.178   5.662   9.341 -0.1281 -0.1213 -0.3441
67898W        W10815   6.364   5.229   5.153 -0.2522  0.1604 -0.1154
67899W        W10816   4.708   4.772   3.476  0.1373 -0.1007 -0.1876
67900W        W10817   5.852   5.832   0.838  0.2627  0.0769  0.2545
67901W        W10818   4.139   5.958   8.781 -0.1651 -0.0790  0.1282
67902W        W10819   3.919   4.924   6.882 -0.1327 -0.4645  0.1793
67903W        W10820   3.785   7.784   5.734 -0.2195  0.0513  0.0540
67904W        W10821   5.696   5.369   2.347  0.0406  0.1764  0.1142
67905W        W10822   5.337   5.033   6.215  0.0105 -0.0001  0.2080
67906W        W10823   5.006   5.169   7.128  0.0068 -0.0009  0.2616
67907W        W10824   5.073   4.042   4.599 -0.1173 -0.0345  0.1229
67908W        W10825   3.519   4.892   5.897 -0.0414  0.0716 -0.2051
67909W        W10826   3.274   7.637   2.782 -0.1413 -0.3296  0.0672
67910W        W10827   6.361   6.465   3.605 -0.1623  0.3245 -0.0381
67911W        W10828   5.135   7.179   5.963  0.3169  0.0993 -0.0357
67912W        W10829   6.838   5.849   6.554  0.1267  0.1786  0.0035
67913W        W10830   6.038   3.425   4.053 -0.0362 -0.0732 -0.0563
67914W        W10831   6.174   6.277   6.409 -0.1809  0.1612  0.2644
67915W        W10832   7.188   4.530   4.038  0.1458  0.0264 -0.1264
67916W        W10833   5.796   4.994   6.658  0.2796 -0.0136  0.0918
67917W        W10834   4.442   4.908   5.614 -0.1178  0.1658 -0.1541
67918W        W10835   6.912   3.290   1.015  0.1195 -0.0330 -0.2085
67919W        W10836   5.810   4.483   7.171  0.0034  0.0462  0.1102
67920W        W10837   7.595   3.038   9.853  0.3693 -0.0586  0.0593
67921W        W10838   5.190   6.850   6.778  0.1128 -0.0372  0.2950
67922W        W10839   7.860   6.357   3.896 -0.2659 -0.0360 -0.1614
67923W        W10840   3.350   5.351   3.816  0.0342 -0.2843  0.5029
67924W        W10841   6.559   3.692   4.166  0.0155  0.3150  0.0439
67925W        W10842   6.796   3.990   4.724  0.2664 -0.0278  0.0315
67926W        W10843   7.566   7.083   3.547 -0.1992  0.1421  0.2776
67927W        W10844   6.148   3.094   5.175 -0.2576 -0.2116  0.1088
67928W        W10845   5.483   6.872   4.051 -0.0834 -0.0583 -0.1946
67929W        W10846   6.235   4.923   5.520  0.2257 -0.1374 -0.0869
67930W        W10847   5.988   6.363   5.392 -0.0494 -0.0729  0.3948
67931W        W10848   5.518   2.527   5.419  0.0084 -0.2597  0.0161
67932W        W10849   8.253   4.459   3.802 -0.1661 -0.0327 -0.1605
67933W        W10850   6.008   5.180   6.198  0.0932  0.0107  0.5403
67934W        W10851   6.359   4.008   6.728  0.1076  0.0999  0.0518
67935W        W10852   6.411   4.735   4.956  0.2561 -0.0480 -0.1418
67936W        W10853   5.242   3.888   5.511 -0.2434  0.1860  0.0013
67937W        W10854   6.493   6.155   6.851 -0.2110  0.3719 -0.1413
67938W        W10855   5.058   4.621   6.318 -0.3181  0.0900 -0.3785
67939W        W10856   5.855   4.879   5.802  0.1179 -0.0180  0.0613
67940W        W10857   8.109   6.307   6.733  0.0241  0.0563 -0.1402
67941W        W10858   5.286   4.696   5.234  0.1824  0.0488 -0.0743
67942W        W10859   7.732   6.909   8.003  0.1364 -0.1281 -0.0525
67943W        W10860   4.410   3.609   6.319  0.0952  0.2567  0.1108
67944W        W10861   4.910   4.634   4.906 -0.0022 -0.2411  0.3094
67945W        W10862   4.382   5.548   6.021 -0.1268 -0.0104 -0.0963
67946W        W10863   4.143   2.899   6.024  0.1961  0.1431 -0.0145
67947W        W10864   7.890   8.077   8.267  0.2202  0.1580 -0.1371
67948W        W10865   4.244   2.909   7.055 -0.1461  0.0037 -0.0808
67949W        W10866   7.584   2.578   3.619  0.1445  0.0280  0.2083
67950W        W10867   6.831   4.926   6.379 -0.2746  0.4376  0.2571
67951W        W10868   6.879   6.973   2.867  0.2776 -0.2701 -0.0779
67952W        W10869   6.320   6.642   7.680  0.0111 -0.1817 -0.1925
67953W        W10870   6.632   7.606   6.044  0.3260 -0.0545  0.1796
67954W        W10871   3.877   3.325   5.356 -0.0107  0.2919 -0.1687
67955W        W10872   6.599   7.127   6.363 -0.0225  0.3289 -0.1012
67956W        W10873   6.783   6.378   6.473 -0.1266 -0.0808 -0.0301
67957W        W10874   7.563   2.818   4.120  0.1093  0.0016  0.2050
67958W        W10875   5.318   5.231   5.018  0.0000 -0.0928 -0.0232
67959W        W10876   5.857   6.348   1.783  0.0917 -0.1799  0.0085
67960W        W10877   8.266   5.452   4.253  0.3728 -0.0871  0.2538
67961W        W10878   6.061   5.874   7.604  0.1297 -0.1790  0.0618
67962W        W10879   7.233   7.165   2.282  0.1007  0.0320 -0.0346
67963W        W10880   5.762   2.150   9.718 -0.0806  0.2593 -0.1714
67964W        W10881   5.361   5.552   7.323 -0.1008  0.0443 -0.2744
67965W        W10882   4.055   7.266   7.070  0.2808 -0.2150  0.0563
67966W        W10883   3.790   5.245   2.410  0.0752  0.2648  0.0189
67967W        W10884   2.602   3.121   7.393  0.0135 -0.0925  0.0313
67968W        W10885   7.451   4.162   4.478 -0.1768  0.2569 -0.2239
67969W        W10886   5.488   6.966   2.804  0.0110 -0.3349  0.0322
67970W        W10887   7.033   6.017   6.121 -0.4345 -0.1715 -0.0617
67971W        W10888   5.664   3.424   5.414 -0.0640 -0.0645 -0.1443
67972W        W10889   7.334   7.262   8.714 -0.1843  0.0693 -0.1232
67973W        W10890   6.491   4.415   5.513 -0.2151 -0.3825  0.1543
67974W        W10891   7.560   3.648   4.167  0.0996 -0.2623 -0.1294
67975W        W10892   7.435   2.016   3.025  0.1807  0.2039  0.1726
67976W        W10893   4.585   2.663   6.166  0.1002  0.1813 -0.1297
67977W        W10894   3.412   5.852   3.010 -0.1788 -0.0715 -0.5405
67978W        W10895   3.716   7.521   2.993  0.2010  0.0689  0.5787
67979W        W10896   2.802   6.225   6.426 -0.2832 -0.0441 -0.0597
67980W        W10897   7.121   3.090   5.343  0.2300  0.0543 -0.0246
67981W        W10898   4.570   2.441   9.020 -0.1300 -0.0185  0.2071
67982W        W10899   4.068   5.924   6.393 -0.2639 -0.0545 -0.1563
67983W        W10900   4.130   3.889   5.473  0.0296  0.4052 -0.1401
67984W        W10901   8.033   6.588   4.397  0.0570 -0.2339  0.3091
67985W        W10902   3.213   4.687   5.031 -0.2296  0.0813 -0.0987
67986W        W10903   3.342   3.878   5.634  0.1464 -0.0599  0.3734
67987W        W10904   7.538   6.441   4.518 -0.1880  0.0852 -0.1726
67988W        W10905   7.454   5.346   4.987  0.5341  0.1765  0.1901
67989W        W10906   4.825   4.056   4.100 -0.0871 -0.3209 -0.2272
67990W        W10907   7.990   6.909   7.583 -0.3281  0.4400  0.3168
67991W        W10908   4.049   5.986   2.602 -0.0214  0.3423 -0.0822
67992W        W10909   5.252   4.230   7.055  0.1502  0.2564 -0.2023
67993W        W10910   4.415   2.602   8.226 -0.0782  0.0460 -0.0888
67994W        W10911   5.190   2.687   4.309 -0.3826 -0.0703  0.0534
67995W        W10912   4.482   5.285   4.587 -0.0541 -0.0650  0.2640
67996W        W10913   6.364   6.123   5.094  0.0828  0.1353  0.1168
67997W        W10914   6.867   7.740   3.159 -0.0287 -0.1179 -0.0916
67998W        W10915   4.351   5.389   8.040  0.0169 -0.0792 -0.0097
67999W        W10916   6.902   5.684   5.708 -0.0495  0.0337 -0.0945
68000W        W10917   4.074   5.520   5.501  0.2349  0.0266  0.0780
68001W        W10918   7.324   2.133   3.559 -0.0379 -0.2798  0.1749
68002W        W10919   7.186   5.733   5.188  0.1581  0.0055 -0.0482
68003W        W10920   8.765   3.917   2.698 -0.0487  0.0277  0.0691
68004W        W10921   7.229   5.490   3.845  0.1931  0.0590  0.3296
68005W        W10922   5.418   4.662   4.757  0.1275  0.1127 -0.0672
68006W        W10923   4.437   0.705   8.035  0.1072 -0.0073  0.1804
68007W        W10924   4.524   4.988   7.156 -0.1907 -0.1530  0.0752
68008W        W10925   7.592   4.460   5.481 -0.0029 -0.2402  0.3027
68009W        W10926   4.291   4.356   5.283  0.0572 -0.3237 -0.2540
68010W        W10927   7.347   4.907   3.139 -0.1585  0.0338 -0.0575
68011W        W10928   6.252   6.729   2.981  0.1911  0.1781  0.1354
68012W        W10929   4.496   3.777   4.991  0.2267  0.1110 -0.1561
68013W        W10930   5.710   4.273   4.915  0.3691 -0.1451  0.4592
68014W        W10931   5.092   5.351   5.925 -0.1170 -0.0989  0.0761
68015W        W10932   6.302   5.803   6.557  0.0980  0.0690 -0.1402
68016W        W10933   6.120   4.831   7.086  0.0402 -0.0430 -0.0536
68017W        W10934   6.246   4.922   4.495 -0.2144 -0.1765  0.1090
68018W        W10935   9.149   4.794   3.343 -0.3517 -0.1070  0.0809
68019W        W10936   5.770   5.138   7.322 -0.2719  0.2602 -0.2260
68020W        W10937   6.513   7.390   8.362  0.0189  0.1035 -0.1477
68021W        W10938   6.827   5.030   4.813  0.2721  0.2581  0.2791
68022W        W10939   5.555   5.291   5.820 -0.4915  0.1858  0.1320
68023W        W10940   6.217   3.938   5.768 -0.2061 -0.0279 -0.1243
68024W        W10941   4.776   5.865   5.622 -0.3415  0.2645  0.2520
68025W        W10942   5.927   5.489   6.731  0.2014 -0.2269 -0.0096
68026W        W10943   7.078   4.407   5.457 -0.0596  0.1101  0.2323
68027W        W10944   4.815   2.790   3.969  0.2847 -0.1199 -0.3300
68028W        W10945   5.656   2.884   5.117 -0.0539 -0.1274  0.1309
68029W        W10946   5.725   7.000   8.725 -0.0022  0.1126  0.1378
68030W        W10947   6.709   6.513   3.201  0.0583 -0.0074  0.4420
68031W        W10948   5.461   6.525   8.083 -0.1251 -0.1769 -0.2429
68032W        W10949   5.141   3.271   7.173 -0.1950  0.1890  0.2322
68033W        W10950   6.472   4.105   8.010 -0.0006  0.0149  0.2318
68034W        W10951   6.675   4.308   7.567 -0.2136 -0.0964  0.0278
68035W        W10952   4.336   4.037   8.690  0.1177  0.1881 -0.1467
68036W        W10953   6.429   5.782   7.204  0.0385  0.0045 -0.2059
68037W        W10954   9.630   6.749   7.828 -0.3210  0.0367  0.3591
68038W        W10955   6.643   4.719  10.162  0.2819  0.0153 -0.0706
68039W        W10956   6.288   4.301   9.360  0.0336 -0.0137 -0.2320
68040W        W10957   6.766   6.043   8.349  0.0574  0.1710 -0.3415
68041W        W10958   4.203   4.133   7.516 -0.0281 -0.1539 -0.1094
68042W        W10959   4.213   7.002  10.015 -0.1255 -0.0674  0.1254
68043W        W10960   7.512   4.086   8.902 -0.0082 -0.1465 -0.1969
68044W        W10961   4.848   5.637   8.279  0.0359 -0.0719 -0.1322
68045W        W10962   4.353   3.314   9.808  0.2098 -0.5499 -0.0585
68046W        W10963   6.327   4.596   8.047  0.1196 -0.3145  0.1269
68047W        W10964   8.375   4.698   9.161  0.1308 -0.2393  0.0390
68048W        W10965   5.968   1.385  11.301 -0.1700 -0.3763 -0.0070
68049W        W10966   6.017   7.392   8.488  0.2454  0.0593 -0.1197
68050W        W10967   3.402   3.360   5.544 -0.0868 -0.3156 -0.1160
68051W        W10968   2.963   4.069   9.817 -0.1826 -0.0958 -0.3498
68052W        W10969   6.296   4.566  11.899 -0.1390  0.1187  0.0735
68053W        W10970   5.394   4.792   8.511  0.0814 -0.1633  0.0718
68054W        W10971   5.614   4.350   9.100 -0.1348 -0.4073 -0.1671
68055W        W10972   6.756   4.787   8.598 -0.0108 -0.1073  0.1897
68056W        W10973   4.665   6.319   9.309 -0.1009 -0.0910 -0.0773
68057W        W10974   3.801   4.404   7.646 -0.0349  0.3519  0.0631
68058W        W10975   2.533   6.729   9.443  0.4501 -0.0872 -0.0970
68059W        W10976   5.363   5.751   6.644  0.2718  0.3617 -0.0625
68060W        W10977   6.780   6.215   8.809  0.1215  0.0253  0.4202
68061W        W10978   4.789   6.101   7.238 -0.4124  0.0155 -0.2172
68062W        W10979   5.741   5.563  10.045  0.0403  0.1625  0.0098
68063W        W10980   5.878   5.600   9.585 -0.1652 -0.0179  0.0084
68064W        W10981   4.757   6.983   9.875  0.1256 -0.0918  0.1497
68065W        W10982   6.547   5.707   8.735 -0.0874 -0.0815 -0.1122
68066W        W10983   5.578   6.023   7.906  0.1249 -0.0788  0.0044
68067W        W10984   5.546   6.558   8.624 -0.0327  0.1965  0.0482
68068W        W10985   6.393   3.542   9.042 -0.0320  0.1701 -0.2408
68069W        W10986   3.850   5.734   7.184  0.2390 -0.0213  0.2689
68070W        W10987   6.089   4.577   8.964  0.1549  0.0114  0.1338
68071W        W10988   5.659   3.030   7.102 -0.0237  0.0517  0.0023
68072W        W10989   5.726   4.964  10.080  0.2944 -0.2260  0.0894
68073W        W10990   5.476   2.968   8.522 -0.3339 -0.2129  0.1312
68074W        W10991   5.667   4.641   9.464  0.3355 -0.0327  0.1099
68075W        W10992   4.762   4.260   9.388  0.1049  0.1470  0.1842
68076W        W10993   6.693   4.555   9.582  0.1376 -0.0287 -0.1472
68077W        W10994   4.340   2.488   9.468  0.2217  0.4409 -0.0213
68078W        W10995   8.202   7.385   6.872 -0.4334 -0.0141  0.4291
68079W        W10996   5.643   6.542   9.624 -0.2770 -0.0462  0.1877
68080W        W10997   6.514   7.317   7.215 -0.2014  0.0276 -0.3228
68081W        W10998   3.776   4.433   9.792 -0.1655 -0.0029  0.2201
68082W        W10999   4.724   2.880   7.173 -0.1144 -0.2416 -0.1997
68083W        W11000   4.513   4.587  10.223 -0.1063 -0.0666  0.0263
68084W        W11001   5.325   5.710   9.549 -0.1164  0.2000  0.1315
68085W        W11002   7.564   5.385   8.909  0.3964 -0.1725  0.0680
68086W        W11003   6.460   6.084   7.864  0.0033  0.2249  0.0438
68087W        W11004   7.768   2.587   8.711 -0.1423 -0.2879 -0.0586
68088W        W11005   6.406   2.501   9.839  0.0008  0.1373 -0.0252
68089W        W11006   5.240   5.587   7.873 -0.1685 -0.2010 -0.0989
68090W        W11007   3.484   5.626   7.587 -0.2382 -0.3202  0.0939
68091W        W11008   9.126   5.051   8.483 -0.3932 -0.2139 -0.2436
68092W        W11009   7.362   7.218   8.212  0.0266  0.1216  0.3703
68093W        W11010   3.346   5.637   9.367  0.0297  0.0836  0.1928
68094W        W11011   6.219   7.040   6.939 -0.1227 -0.0476 -0.0843
68095W        W11012   5.792   6.200   8.333  0.0608 -0.1731 -0.0270
68096W        W11013   4.207   6.023   6.904 -0.0461  0.0895 -0.1881
68097W        W11014   3.011   6.369  10.074  0.0801 -0.0662  0.2517
68098W        W11015   6.557   6.291  12.289  0.1053  0.1464 -0.0221
68099W        W11016   6.990   4.036   8.876  0.0227 -0.1236  0.0696
68100W        W11017   8.345   3.268  10.878 -0.1147 -0.0586  0.0688
68101W        W11018   5.008   6.373   6.554 -0.2210 -0.0541 -0.2609
68102W        W11019   6.124   7.987   6.616 -0.1943 -0.1560 -0.1523
68103W        W11020   6.852   5.395   8.995  0.0628 -0.1032 -0.2596
68104W        W11021   6.665   6.836   8.120 -0.0201  0.2278  0.0605
68105W        W11022   4.122   4.466   8.959  0.0150  0.3149 -0.0333
68106W        W11023   4.799   5.516   9.483  0.2215  0.2281  0.0248
68107W        W11024   5.494   4.285  11.487 -0.0358  0.2343 -0.0298
68108W        W11025   4.174   4.774   9.772 -0.2485  0.1434 -0.2402
68109W        W11026   6.534   5.386   9.484  0.1258  0.1431  0.3186
68110W        W11027   6.878   4.575   8.042  0.0128  0.1293  0.0064
68111W        W11028   4.357   2.894  10.727 -0.1027 -0.3539  0.1155
68112W        W11029   5.709   6.923   7.696  0.3119  0.1905  0.2313
68113W        W11030   5.659   7.398  10.141 -0.1427 -0.1071  0.2588
68114W        W11031   6.391   9.155   9.903 -0.0766  0.1157  0.4119
68115W        W11032   5.074   5.015   9.529  0.1813  0.1522  0.0838
68116W        W11033   4.045   3.984   9.899 -0.0196 -0.0245  0.0346
68117W        W11034   5.510  10.234   9.892 -0.2740 -0.2571  0.0628
68118W        W11035   4.504   8.589  10.039  0.1653  0.1871  0.1695
68119W        W11036   4.756   4.385   7.980 -0.0977 -0.0832  0.3324
68120W        W11037   5.509   6.178   9.289 -0.2875  0.1338 -0.2789
68121W        W11038   7.251   6.605   6.642 -0.1450  0.0005 -0.0512
68122W        W11039   8.218   5.038   9.614 -0.0855  0.1305  0.3250
68123W        W11040   6.457   7.633   7.934  0.0333 -0.0197  0.0902
68124W        W11041   4.617   4.410   8.895  0.0986  0.2583 -0.0750
68125W        W11042   5.381   6.306  10.306  0.0004 -0.0955 -0.1697
68126W        W11043   4.990   5.609   5.235  0.2094  0.1593  0.4173
68127W        W11044   3.789   4.034   9.007 -0.0544 -0.1442 -0.2982
68128W        W11045   5.905   7.113   9.779  0.1828 -0.1331  0.0302
68129W        W11046   8.588   3.543  11.361 -0.1726  0.1023  0.1010
68130W        W11047   4.662   5.257   6.768 -0.2575  0.1652  0.3069
68131W        W11048   5.677   3.230   6.645 -0.0089 -0.2497 -0.0516
68132W        W11049   8.056   3.313   9.088  0.1181 -0.1718  0.0322
68133W        W11050   7.369   6.519   9.316 -0.1835  0.3654 -0.1640
68134W        W11051   6.684   5.824   9.164  0.2297 -0.2352  0.1228
68135W        W11052   7.397   2.927   8.476 -0.1963  0.2341  0.4387
68136W        W11053   5.667   6.093   7.339 -0.3409  0.0392 -0.1676
68137W        W11054   3.733   9.508   9.927 -0.0119  0.2075  0.0331
68138W        W11055   5.766   5.021   8.224 -0.3357  0.2319  0.0248
68139W        W11056   9.024   6.743   7.685  0.2088  0.1650  0.1642
68140W        W11057   4.039   6.247   9.253  0.4041 -0.1342  0.0224
68141W        W11058   6.741   4.828   9.149 -0.0381  0.2808  0.1964
68142W        W11059   5.702   3.144   9.601 -0.0583  0.0957 -0.1285
68143W        W11060   4.903   4.664   7.115  0.1472  0.3313  0.1081
68144W        W11061   4.423   4.626   9.330  0.0041 -0.0529  0.2243
68145W        W11062   3.103   7.322   7.036  0.2275  0.2763  0.1977
68146W        W11063   8.134   3.395  10.400 -0.0185 -0.0016 -0.3079
68147W        W11064   5.566   2.805   9.185  0.0247 -0.3970  0.0867
68148W        W11065   5.288   4.045   8.368  0.0743 -0.0708  0.1242
68149W        W11066   5.916   5.762   8.633 -0.1482  0.1502 -0.1884
68150W        W11067   4.903   4.907   7.616  0.1194  0.1730  0.5117
68151W        W11068   7.141   2.806   9.160 -0.3173 -0.1134  0.4021
68152W        W11069  10.554   5.167  10.448 -0.1629  0.0731 -0.0239
68153W        W11070   6.303   5.411  10.578 -0.1341  0.1870  0.0870
68154W        W11071   5.383   3.220   8.043 -0.0451  0.1845  0.2951
68155W        W11072   4.958   6.542   7.157  0.0792 -0.0085 -0.0154
68156W        W11073   5.697   7.720   8.305 -0.1444 -0.1751 -0.0448
68157W        W11074   4.981   2.912   8.371 -0.4037 -0.1555  0.1284
68158W        W11075   8.814   5.627   8.804 -0.0412 -0.1216  0.0848
68159W        W11076   4.048   5.726   8.039 -0.2084  0.2348 -0.1215
68160W        W11077  10.146   7.510   8.352  0.2137  0.0920 -0.0458
68161W        W11078   5.887   8.004   9.360  0.3907  0.1036 -0.1721
68162W        W11079   7.145   4.136  11.524  0.2359  0.2467  0.4114
68163W        W11080   4.032   5.508  10.216  0.1148 -0.0259 -0.0275
68164W        W11081   4.818   5.320   7.901 -0.1794 -0.1455  0.0525
68165W        W11082   5.316   5.829   5.703  0.1956  0.1863  0.0250
68166W        W11083   7.598   3.038   8.881 -0.2155 -0.0982  0.1725
68167W        W11084   6.961   6.039   7.052  0.1403  0.0012  0.1100
68168W        W11085   5.642   3.261   9.028  0.0192 -0.0139  0.0946
68169W        W11086   4.468   4.075  10.281 -0.2022  0.1027 -0.0716
68170W        W11087   4.623   5.134   8.354  0.3720  0.2622  0.1042
68171W        W11088   6.736   3.133   9.101  0.0989  0.0961  0.0054
68172W        W11089   3.669   4.604   8.120 -0.1561  0.0122  0.0683
68173W        W11090   4.822   4.054   8.551  0.0985  0.0870  0.1794
68174W        W11091   4.455   5.264   7.536  0.1282  0.2451 -0.1824
68175W        W11092   4.263   7.047   7.537  0.2737 -0.4534  0.1425
68176W        W11093   5.062   7.354   8.967 -0.1330 -0.1309  0.1184
68177W        W11094   4.023   4.387   8.434  0.2487 -0.3112  0.0173
68178W        W11095   7.644   7.637   9.797 -0.6765  0.1321  0.0346
68179W        W11096   8.670   4.805  10.957  0.1584 -0.3055 -0.0037
68180W        W11097   6.245   3.131   8.902 -0.0720 -0.2769  0.3338
68181W        W11098   4.803   3.122   9.016 -0.1837  0.1853 -0.0967
68182W        W11099   5.681   5.198   9.403  0.0010  0.0356 -0.0882
68183W        W11100   7.550   5.891   9.041 -0.2720 -0.0044 -0.1652
68184W        W11101   5.188   4.376  11.038 -0.2282 -0.0664  0.0512
68185W        W11102   4.689   1.405   8.958  0.0254  0.2110 -0.1110
68186W        W11103   7.742   6.795   6.647 -0.1652 -0.1838  0.3301
68187W        W11104   6.780   7.198   9.809 -0.1840 -0.0810  0.0158
68188W        W11105   4.831   7.078   8.145  0.2480 -0.0113 -0.1050
68189W        W11106   6.346   6.437   8.191 -0.0751  0.0568 -0.1997
68190W        W11107   7.285   4.108  11.009 -0.1494  0.0927  0.0176
68191W        W11108   4.668   6.581   8.421 -0.0587 -0.2137  0.2493
68192W        W11109   8.269   7.242   7.938  0.2661 -0.0956 -0.1488
68193W        W11110   4.686   7.361   8.631  0.1515 -0.0420  0.0415
68194W        W11111   7.415   3.591   8.234 -0.2922  0.0986  0.1168
68195W        W11112   4.064   7.419   6.051 -0.2293 -0.1808  0.0366
68196W        W11113   4.846   3.235   7.997 -0.1710  0.0139 -0.0873
68197W        W11114   5.972   6.128   9.415  0.0884  0.0427 -0.1805
68198W        W11115   3.700   3.552   9.212  0.2305  0.0381  0.0349
68199W        W11116   6.226   4.870   9.345 -0.1686  0.0969  0.1000
68200W        W11117   5.630   3.423   8.521  0.2684  0.0033 -0.1092
68201W        W11118   4.451   4.059   8.202  0.2243 -0.1900 -0.1676
68202W        W11119   7.183   4.658  10.322 -0.2479 -0.0118 -0.0275
68203W        W11120   7.173   4.519   8.589  0.0396 -0.2803  0.1584
68204W        W11121   4.983   4.469   8.438 -0.2665  0.1315 -0.2712
68205W        W11122   5.980   3.371  10.409 -0.0795  0.1446 -0.2202
68206W        W11123   9.229   5.907   9.877 -0.2106 -0.0168  0.0141
68207W        W11124   6.713   6.149   9.554 -0.0804  0.2472  0.0577
68208W        W11125   4.592   6.135   8.231  0.0322  0.2903  0.0613
68209W        W11126   5.861   6.407   7.735 -0.2375  0.1428 -0.0882
68210W        W11127   7.428   4.535   8.110 -0.0126 -0.0160 -0.0623
68211W        W11128   5.842   4.124   9.484  0.1696  0.0041  0.1395
68212W        W11129   5.438   8.224   9.381 -0.3648  0.0902  0.1966
68213W        W11130   7.385   5.996   7.488 -0.3007  0.1976  0.1735
68214W        W11131   5.446   2.882  11.051  0.1049  0.1895 -0.1945
68215W        W11132   6.560   4.993   9.736  0.0232  0.0357 -0.0661
68216W        W11133   6.633   2.966   9.729  0.0725  0.1649 -0.3880
68217W        W11134   5.214   5.275   8.229 -0.0624 -0.4000 -0.0770
68218W        W11135   4.545   1.693   7.683  0.2275  0.1186 -0.0754
68219W        W11136   7.876   8.862   9.664  0.3651  0.1348  0.1085
68220W        W11137   6.722   7.776   8.706 -0.1356  0.1133 -0.1187
68221W        W11138   6.364   6.137   8.579 -0.2390 -0.3579 -0.0668
68222W        W11139   5.311   6.919   9.733 -0.1387 -0.1413 -0.1812
68223W        W11140   3.920   2.996   8.390 -0.1844 -0.1029  0.1267
68224W        W11141   5.436   5.270   9.828 -0.0229 -0.0874 -0.0072
68225W        W11142   7.761   6.231   9.574  0.1581  0.0493 -0.3494
68226W        W11143   6.362   3.472   7.151  0.0518 -0.1333  0.1668
68227W        W11144   4.588   8.178   7.626  0.1675  0.1343  0.1370
68228W        W11145   3.868   2.965   7.492 -0.1136 -0.1533  0.0581
68229W        W11146   4.393   6.711   9.355 -0.2545  0.1091  0.4245
68230W        W11147   5.872   6.188   8.855 -0.0925  0.1169 -0.0964
68231W        W11148   5.077   3.742  10.053  0.1859  0.0862  0.1509
68232W        W11149   5.555   3.772   8.055  0.0032 -0.1950  0.0475
68233W        W11150   5.445   6.518   7.054  0.1156 -0.0171  0.0674
68234W        W11151   4.399   6.906   8.871 -0.3291 -0.3381 -0.3711
68235W        W11152   7.815   3.295  10.824 -0.0659 -0.2456 -0.0069
68236W        W11153   6.347   5.664   8.253 -0.0113 -0.0164  0.0019
68237W        W11154   5.870   6.720  10.058  0.0870  0.3151  0.0365
68238W        W11155   5.101   2.890   7.545 -0.2536 -0.3289 -0.2373
68239W        W11156   5.213   7.699   8.278  0.0733 -0.0215  0.1762
68240W        W11157   5.023   4.638  10.408  0.1244  0.3182 -0.1391
68241W        W11158   5.910   6.667   8.196  0.0209 -0.0672 -0.1245
68242W        W11159   5.910   6.673   5.751  0.0787  0.1938 -0.0570
68243W        W11160   7.198   4.925   8.843  0.1250  0.2201  0.0509
68244W        W11161   9.152   9.194   8.954  0.0144 -0.4310  0.4750
68245W        W11162   4.790   3.270   7.542 -0.2956 -0.2590 -0.0129
68246W        W11163   6.594   4.415   8.963  0.1247  0.3860  0.0716
68247W        W11164   5.185   5.971   7.500 -0.0814  0.1505 -0.1176
68248W        W11165   6.074   7.324   9.108 -0.3312 -0.2457  0.0522
68249W        W11166   4.543   6.437   6.806  0.0809  0.0321 -0.1084
68250W        W11167   6.735   3.571   7.991 -0.3850  0.3225  0.1411
68251W        W11168   8.579   6.001   9.010  0.2408  0.0637  0.1556
68252W        W11169   6.133   4.633   9.769  0.0791  0.0248  0.1027
68253W        W11170   4.403   4.300   9.818 -0.0544 -0.3118  0.1321
68254W        W11171   7.184   3.296   8.704  0.1514 -0.2273  0.0142
68255W        W11172   8.876   6.285   7.469 -0.4507  0.0271 -0.0389
68256W        W11173   2.928   4.107   8.514 -0.1822  0.1091  0.2181
68257W        W11174   5.360   5.800   8.292 -0.2127  0.1943  0.2504
68258W        W11175   6.285   2.014   9.689 -0.1415 -0.3209 -0.0225
68259W        W11176   5.386   3.540   5.830  0.2212 -0.0026 -0.1034
68260W        W11177   6.184   5.831   9.080  0.5560 -0.2383  0.0068
68261W        W11178   6.248   7.877   8.429  0.0961 -0.0412 -0.0966
68262W        W11179   7.450   5.394   9.749 -0.0122  0.0349 -0.2500
68263W        W11180   4.927   6.086   9.891 -0.2117 -0.1208  0.1017
68264W        W11181   3.825   3.256   7.867  0.1059 -0.2043  0.3311
68265W        W11182   6.855   5.035  11.229 -0.2647 -0.1086  0.3096
68266W        W11183   4.154   5.927   9.979 -0.0580 -0.0156  0.1527
68267W        W11184   5.352   5.136   7.747 -0.0370  0.0137  0.0038
68268W        W11185   6.212   5.018  10.247  0.0289  0.0711  0.4175
68269W        W11186   9.951   3.772   9.757 -0.0845  0.2352 -0.0762
68270W        W11187   5.266   6.837  10.202  0.2166  0.0480 -0.1577
68271W        W11188   4.759   5.036   9.140 -0.0944  0.1830  0.0471
68272W        W11189   4.605   5.819   7.746 -0.1804  0.0988  0.1254
68273W        W11190   5.196   5.368   9.179 -0.1815  0.2613 -0.3080
68274W        W11191   5.946   4.712   7.746 -0.0913  0.2412 -0.0912
68275W        W11192   6.177   5.783  10.219  0.1978 -0.4141  0.1037
68276W        W11193   5.733   5.491   7.670 -0.3242 -0.1196 -0.1480
68277W        W11194   5.270   2.891   9.740 -0.2160 -0.0485 -0.1466
68278W        W11195   7.670   8.631   6.322  0.0868 -0.2746 -0.2289
68279W        W11196   8.359   4.406  10.171  0.0659 -0.1498 -0.5003
68280W        W11197   9.732   7.336   8.792  0.2623 -0.1131 -0.4004
68281W        W11198   7.084   4.722   9.852  0.0795  0.0563  0.2245
68282W        W11199   7.873   6.190   8.370  0.1133 -0.4596  0.0454
68283W        W11200   4.994   3.794   9.397  0.1594 -0.2639  0.0221
68284W        W11201   8.764   5.878   9.499  0.2472  0.1154  0.1091
68285W        W11202   8.468   8.020   8.664 -0.2340  0.0091  0.1324
68286W        W11203   7.975   2.841   7.258 -0.0838  0.0453 -0.2134
68287W        W11204   3.748   5.005   9.957 -0.0982  0.1357  0.2795
68288W        W11205   4.452   8.452   7.228  0.1148  0.2715  0.1446
68289W        W11206   5.238   6.841   8.371  0.2804 -0.0420 -0.1310
68290W        W11207   6.425   5.318   6.721 -0.1159  0.1365  0.0822
68291W        W11208   4.759   3.465  11.078 -0.2400  0.1652 -0.0156
68292W        W11209   3.972   5.459   7.639 -0.3975 -0.1146 -0.1680
68293W        W11210   5.107   6.436   9.541  0.3497  0.1608  0.0524
68294W        W11211   6.631   6.652   8.616  0.3127 -0.1300  0.0672
68295W        W11212   7.940   4.855  10.684 -0.4051  0.1714 -0.1456
68296W        W11213   4.880   5.522   7.466  0.1582 -0.2134  0.0250
68297W        W11214   6.712   5.166  10.397  0.3098  0.0923  0.0319
68298W        W11215   4.547   4.560   7.525  0.1142 -0.0483  0.0639
68299W        W11216   7.138   3.239   8.105 -0.2566  0.2921 -0.1866
68300W        W11217   6.212   3.250   6.276 -0.1584  0.1464  0.1764
68301W        W11218   4.975   5.946   9.199 -0.0347 -0.1408  0.1593
68302W        W11219   4.857   4.089   7.388  0.0932 -0.2464  0.0282
68303W        W11220   5.172   3.997   6.024  0.2506 -0.1557 -0.2851
68304W        W11221   4.822   5.082  10.718 -0.0256 -0.1029  0.1674
68305W        W11222   3.736   7.402   8.596  0.2554  0.1306 -0.2021
68306W        W11223   4.729   4.635   9.765  0.4226 -0.2457  0.1234
68307W        W11224   6.925   7.457   6.974 -0.3107 -0.0021  0.3264
68308W        W11225   4.539   3.831   9.694  0.0923 -0.0927  0.3763
68309W        W11226   4.490   3.907   9.209 -0.1463 -0.3725 -0.0343
68310W        W11227   5.444   8.549   8.236  0.0403 -0.0093  0.0191
68311W        W11228   7.531   5.919   8.078 -0.0472 -0.0543 -0.1307
68312W        W11229   5.189   3.547   8.912  0.0122  0.0575  0.1562
68313W        W11230   4.198   5.284   8.541 -0.2740  0.1489 -0.0234
68314W        W11231   3.796   3.886   8.564 -0.1755 -0.0424  0.1548
68315W        W11232   6.109   5.357   9.182 -0.1511  0.0169  0.2857
68316W        W11233   8.224   8.400   8.500  0.0545 -0.0822 -0.2225
68317W        W11234   5.212   6.787   6.274 -0.2519 -0.0147 -0.0865
68318W        W11235   2.311   3.375   9.586  0.3424 -0.3702  0.1355
68319W        W11236   7.220   5.502   9.275  0.3918 -0.0486  0.0504
68320W        W11237   8.053   5.489   8.918 -0.1108 -0.0511 -0.0285
68321W        W11238   5.947   6.309  10.326 -0.0366  0.4247 -0.0887
68322W        W11239   7.147   7.321  10.069 -0.0583 -0.0679 -0.3208
68323W        W11240  10.825   7.213   9.971 -0.0047  0.1475  0.2363
68324W        W11241   5.133   2.790   8.830 -0.0361 -0.0263  0.1985
68325W        W11242   5.743   5.586   8.161 -0.0356 -0.0609 -0.0953
68326W        W11243   4.429   8.438   9.090 -0.3446  0.2424 -0.1610
68327W        W11244   5.225   4.929   6.697  0.0355 -0.1466 -0.1915
68328W        W11245   9.428   8.109   9.113  0.2281 -0.0896  0.1512
68329W        W11246   3.637   5.894   9.081 -0.0799 -0.1115  0.0177
68330W        W11247   7.938   4.318   7.213 -0.1359  0.2456  0.0606
68331W        W11248   8.238   6.405   7.337  0.2931  0.0419  0.0601
68332W        W11249   7.035   6.551   8.266 -0.0033 -0.0001 -0.2286
68333W        W11250   6.277   4.263   8.551 -0.1072  0.0198  0.0039
68334W        W11251   3.646   6.064   9.513  0.1455 -0.0167 -0.1649
68335W        W11252   5.857   4.348   8.254 -0.1748 -0.1290 -0.0887
68336W        W11253   6.814   3.748   9.726 -0.0584 -0.0382 -0.1880
68337W        W11254   5.225   3.191   9.329 -0.2388  0.4518  0.2266
68338W        W11255   5.704   4.002   8.599  0.2179 -0.0800  0.3871
68339W        W11256   7.536   4.513  10.677 -0.2496 -0.1259  0.0844
68340W        W11257   7.661   5.971   7.032  0.2592  0.1069 -0.3466
68341W        W11258   7.333   6.420   8.817  0.0353  0.2074 -0.0561
68342W        W11259   4.671   9.113   1.694  0.3940  0.0065  0.1376
68343W        W11260   5.790   8.193   0.700 -0.0312 -0.2210 -0.1380
68344W        W11261   9.031  10.462   1.140  0.1117 -0.0450  0.0490
68345W        W11262   4.104   7.915   1.400  0.0173  0.2874  0.0976
68346W        W11263   7.833  11.592  31.748  0.1052  0.2767  0.1375
68347W        W11264   3.267   7.419   3.258 -0.0261 -0.1201 -0.1380
68348W        W11265   6.347  10.106   2.376  0.1931 -0.1308  0.0729
68349W        W11266   5.259   9.506   2.595  0.2004  0.1865  0.0939
68350W        W11267   6.486   8.396  31.532 -0.1180  0.1172 -0.4302
68351W        W11268   7.198   8.178   2.237  0.2528 -0.0854 -0.2422
68352W        W11269   4.735   9.956   3.133  0.3033 -0.0441  0.0038
68353W        W11270   5.629   6.888   1.118  0.3129 -0.3823  0.1347
68354W        W11271   4.031   6.993   2.207  0.1714  0.0772  0.2114
68355W        W11272   5.617   7.456   1.826  0.1048  0.0095 -0.2407
68356W        W11273   4.680  10.188  31.229  0.1065 -0.1520  0.0957
68357W        W11274   6.590   9.290   2.031  0.0792 -0.1715  0.1833
68358W        W11275   4.116   8.175  30.862  0.1571 -0.4146  0.2489
68359W        W11276   5.655  10.825  31.520 -0.0215  0.2157  0.1848
68360W        W11277   4.449   6.894   3.132  0.3429  0.2200  0.5087
68361W        W11278   6.210   9.340   4.193  0.3236 -0.2421 -0.0388
68362W        W11279   5.551  11.491   0.862 -0.0908  0.0024  0.0654
68363W        W11280   6.563   7.569   0.344  0.1259 -0.0831 -0.2591
68364W        W11281   2.517   7.776   2.140  0.1342  0.1410  0.2929
68365W        W11282   4.994   7.859   1.871 -0.3529  0.0753  0.2216
68366W        W11283   7.498   7.199   1.804 -0.0769  0.1957 -0.0229
68367W        W11284   6.653  10.583   1.619 -0.0954 -0.3187  0.2949
68368W        W11285   5.227  10.000   2.827  0.0482  0.0493  0.1097
68369W        W11286   5.848  12.478   1.337 -0.1989  0.2759  0.1371
68370W        W11287   7.348  10.220   1.994  0.2843  0.1508 -0.1118
68371W        W11288   4.032  11.359   1.913  0.1644 -0.0991  0.2394
68372W        W11289   1.323  11.839   1.811 -0.0245  0.0544  0.0275
68373W        W11290   3.971  10.020   0.966  0.1971  0.0322 -0.3112
68374W        W11291   8.355   9.982  31.365  0.1142  0.4547  0.0912
68375W        W11292   5.808   9.893   1.845  0.4579 -0.3409  0.0614
68376W        W11293   6.207  10.351   1.940  0.2106 -0.2469  0.4412
68377W        W11294   4.966  10.736  30.578  0.3557 -0.4277  0.1314
68378W        W11295   6.432   9.116   2.499 -0.0296  0.0499 -0.4036
68379W        W11296   3.308   9.033   2.450  0.0649 -0.1877 -0.2185
68380W        W11297   4.249   8.735   2.873  0.0122 -0.1901 -0.3739
68381W        W11298   6.017   9.376   1.955  0.0726  0.0489  0.4261
68382W        W11299   6.149  10.713  31.525  0.2792  0.1879 -0.3040
68383W        W11300   5.360   9.864   1.560  0.0616  0.2914 -0.1663
68384W        W11301   4.655   9.236   2.987 -0.1221 -0.0651  0.4581
68385W        W11302   3.722  10.197   2.843  0.0432  0.2369  0.2596
68386W        W11303   7.042   6.674   2.406  0.2525 -0.2024  0.0009
68387W        W11304   4.684  10.433   2.241 -0.1959 -0.1117  0.2056
68388W        W11305   8.243   8.320  30.738  0.1150  0.0886 -0.0438
68389W        W11306   5.914   8.340   0.182  0.0569  0.3711 -0.0453
68390W        W11307   4.855  10.972  31.640 -0.2817 -0.1953 -0.0294
68391W        W11308   6.326   8.750   0.974  0.0756 -0.0313  0.3065
68392W        W11309   4.686  10.500   1.236  0.1495  0.0278 -0.0107
68393W        W11310   4.654   7.556   2.096  0.0711  0.1619 -0.1068
68394W        W11311   6.781  10.047   2.169  0.1538 -0.2484 -0.0008
68395W        W11312   6.144   6.848  31.625 -0.0901  0.0815  0.1076
68396W        W11313   5.962   8.156   2.415 -0.2331  0.2729  0.0425
68397W        W11314   5.347   9.028   2.462 -0.1666  0.2190  0.1280
68398W        W11315   4.982   8.570   1.289  0.0004  0.1764  0.4468
68399W        W11316   8.309  10.376   2.521  0.0906 -0.2758  0.0992
68400W        W11317   7.517  10.021   1.557 -0.0117 -0.3997 -0.0545
68401W        W11318   5.474   8.702  31.595  0.0132 -0.0488 -0.3376
68402W        W11319   1.981   9.176   1.020  0.0027  0.0565  0.0281
68403W        W11320   4.379   9.681   2.414 -0.2336  0.0594 -0.0584
68404W        W11321   5.863   7.975   2.937 -0.2269 -0.1549  0.1203
68405W        W11322   4.898   6.518  31.941  0.1954 -0.1473 -0.1345
68406W        W11323   7.695  11.051   4.708  0.4379 -0.0983 -0.0658
68407W        W11324   4.916  10.131   1.910  0.1376 -0.0987  0.5773
68408W        W11325   8.536   8.994  31.029 -0.0437  0.1282 -0.2259
68409W        W11326   4.185   9.062   1.044 -0.3209 -0.1860 -0.1643
68410W        W11327   7.676  10.522   2.587  0.0797  0.2289 -0.1848
68411W        W11328   6.344   7.718  31.871  0.0995 -0.1353 -0.1389
68412W        W11329   5.947   6.375  31.733 -0.0929  0.1211 -0.1029
68413W        W11330   7.556   7.407   0.846  0.0996 -0.2224 -0.2594
68414W        W11331   3.689   9.261   1.043  0.2197  0.0544 -0.0265
68415W        W11332   5.317   9.318   1.224 -0.0604  0.1506 -0.0498
68416W        W11333   6.464  10.165   4.123  0.0913 -0.1213 -0.2077
68417W        W11334   8.190   8.794   0.300  0.2342  0.2995 -0.3769
68418W        W11335   2.862   8.867   0.660 -0.0304 -0.1323 -0.0297
68419W        W11336   5.240  10.551   2.241  0.2791  0.2215 -0.2875
68420W        W11337   5.735   9.923   2.746  0.1101  0.2179 -0.1884
68421W        W11338   4.292  11.408   0.376 -0.1614  0.1277  0.2063
68422W        W11339   4.285   9.615   3.958  0.0188  0.2293  0.1563
68423W        W11340   3.495   8.850  31.140 -0.0678 -0.2161 -0.0337
68424W        W11341   3.699   7.173   3.846  0.3508 -0.1758  0.2748
68425W        W11342   5.454  10.022   1.060 -0.3996 -0.0323 -0.1144
68426W        W11343   9.415   9.620   0.308  0.1507 -0.0642  0.0048
68427W        W11344   3.989   8.807   1.687  0.0792 -0.1230 -0.0180
68428W        W11345   8.910   6.808   1.074 -0.3394 -0.2423 -0.2593
68429W        W11346   5.298   8.738  30.741  0.2014 -0.1082  0.0601
68430W        W11347   7.059   9.052   1.995 -0.1410  0.2692 -0.2190
68431W        W11348   8.794  10.281  30.407 -0.1608  0.2474 -0.0469
68432W        W11349   7.157  11.779  29.748 -0.1128  0.0689 -0.2298
68433W        W11350   4.002   7.669   2.252  0.0246 -0.1319  0.0728
68434W        W11351   4.542   8.803   2.117  0.1987 -0.2176  0.1059
68435W        W11352   6.936   8.570   1.882 -0.1320  0.2307  0.0011
68436W        W11353   4.943   8.625   2.403 -0.2191 -0.0836  0.0099
68437W        W11354   7.145   9.400   1.592  0.2118  0.0482 -0.0970
68438W        W11355   4.742   8.826   0.332  0.1391  0.1154  0.1428
68439W        W11356   7.027   7.144   0.834 -0.4459  0.0694  0.0566
68440W        W11357   6.451   9.224   0.681 -0.1958 -0.0891 -0.0226
68441W        W11358   3.072   9.778   0.758  0.0374 -0.2235 -0.1332
68442W        W11359   6.573   6.533   0.553 -0.3033 -0.0735 -0.3793
68443W        W11360   7.096   8.988  31.661 -0.0002  0.0423  0.2746
68444W        W11361   7.525  11.754   2.398  0.2118  0.5272  0.0640
68445W        W11362   7.982  10.247   0.419 -0.0714  0.1213  0.0684
68446W        W11363   3.559   9.188   3.391 -0.0307  0.0278  0.0616
68447W        W11364   4.018   9.520   0.400  0.2381  0.0548  0.1262
68448W        W11365   3.848  10.074   2.287 -0.0790  0.0307 -0.0067
68449W        W11366   5.237   8.565  31.193  0.0650  0.2575 -0.0502
68450W        W11367   6.643   7.791   1.103  0.0780 -0.1333  0.0720
68451W        W11368   7.786   9.555   2.345  0.1987 -0.1803 -0.0463
68452W        W11369   5.686   7.810   1.017 -0.1545  0.0557  0.1341
68453W        W11370   5.141  10.892   0.446  0.1119  0.0718 -0.1183
68454W        W11371   6.088   6.660   0.932 -0.0790 -0.0224 -0.0027
68455W        W11372   6.824   9.426   3.438 -0.1446 -0.0332 -0.1318
68456W        W11373   5.998   9.906   0.094  0.1635 -0.0284  0.1253
68457W        W11374   4.999   9.799   1.079  0.0875 -0.1903  0.0053
68458W        W11375   5.605  11.798   0.462 -0.1089 -0.2182 -0.0726
68459W        W11376   5.102  12.084   1.515 -0.1297  0.2369 -0.0732
68460W        W11377   3.499   9.864   1.022  0.0687 -0.0447 -0.0920
68461W        W11378   6.136   8.887   0.415 -0.0347 -0.0050  0.2346
68462W        W11379   4.667   8.123   2.084 -0.0797  0.2241 -0.0678
68463W        W11380   4.878   7.569   4.634  0.0648  0.3452 -0.2229
68464W        W11381   5.842   7.536   2.488  0.0710 -0.2695 -0.1820
68465W        W11382   3.692  10.854   0.112 -0.1430  0.0096  0.0827
68466W        W11383   3.904  10.337   1.842 -0.2918  0.1994 -0.1091
68467W        W11384   6.953   6.423  30.596 -0.0267  0.0587  0.0646
68468W        W11385   8.689   7.308   1.024 -0.0094  0.0732 -0.1533
68469W        W11386   6.049   8.111   1.888 -0.0171  0.0092 -0.3248
68470W        W11387   5.508  10.961   0.899 -0.3026  0.1086 -0.2003
68471W        W11388   8.114   9.303  30.739 -0.1112 -0.1850  0.0537
68472W        W11389   6.899   8.019  30.212  0.2242 -0.2689  0.5523
68473W        W11390   3.956  10.546   2.603  0.0146 -0.0908 -0.2232
68474W        W11391   4.845   9.685   2.124 -0.1071 -0.0098 -0.3296
68475W        W11392   6.162   9.828   1.505 -0.0540  0.0319 -0.4367
68476W        W11393   7.747   7.645  30.538  0.0082  0.1967 -0.2108
68477W        W11394   8.586   9.624   0.194 -0.2552 -0.0296 -0.1335
68478W        W11395   1.233   9.753   3.616  0.1317 -0.0566  0.6825
68479W        W11396   6.659   8.589   1.307 -0.0689 -0.1704 -0.1985
68480W        W11397   6.206   9.189  31.331  0.2785 -0.1454 -0.0527
68481W        W11398   5.115   6.609   2.753  0.0185  0.3869  0.0563
68482W        W11399   5.613   7.284   0.161 -0.0647 -0.3666  0.0786
68483W        W11400   4.545   7.792   1.119  0.0533 -0.0045 -0.2511
68484W        W11401   4.184  10.638  31.065 -0.1575  0.0583  0.0830
68485W        W11402   6.257   8.340   0.525  0.2623 -0.1265 -0.0917
68486W        W11403   7.474   9.204   3.047 -0.1956  0.2597 -0.0534
68487W        W11404   5.948   7.083   2.762 -0.1494  0.1843  0.1285
68488W        W11405   7.026   7.792   0.165 -0.0043 -0.3807  0.0129
68489W        W11406   6.599   9.879   1.151  0.1317  0.0656 -0.0103
68490W        W11407   6.645   9.081   1.239 -0.3797  0.3696 -0.1615
68491W        W11408   6.375  10.193  31.549  0.0038 -0.0066  0.2835
68492W        W11409   5.628   8.169   1.408 -0.0188 -0.0975 -0.0119
68493W        W11410   5.275   8.257   3.380 -0.0564 -0.0523 -0.1018
68494W        W11411   3.761  11.061   1.311  0.2795  0.0046 -0.0442
68495W        W11412   6.609   8.907   1.692  0.0742 -0.1323 -0.0431
68496W        W11413   5.327   7.943   0.689 -0.1234 -0.0513 -0.0139
68497W        W11414   5.401   8.732   3.352 -0.0134  0.1486  0.0681
68498W        W11415   8.275   7.302  30.807 -0.1898  0.1336  0.2691
68499W        W11416   4.351   9.036  31.945  0.2098 -0.1745 -0.2560
68500W        W11417   6.154   8.343  29.840  0.1324  0.0016  0.0334
68501W        W11418   4.825   7.439   0.123 -0.1300  0.0408  0.1465
68502W        W11419   4.438   9.992   1.133 -0.0565  0.2837  0.0044
68503W        W11420   5.275   7.355  31.801 -0.0348 -0.0900  0.2584
68504W        W11421   7.040  10.687   3.941  0.0430 -0.0823 -0.1655
68505W        W11422   4.631  13.442  30.923  0.2394  0.2277  0.5061
68506W        W11423   6.812   7.802  31.621 -0.0564  0.0233  0.0444
68507W        W11424   3.594  10.960   2.434  0.1249  0.0021  0.0032
68508W        W11425   4.239   7.437   1.361  0.3543  0.0478 -0.2129
68509W        W11426   3.670  10.126   0.520  0.2094  0.1264 -0.3889
68510W        W11427   6.092   7.233   1.710  0.0502  0.0974 -0.2217
68511W        W11428   7.343   9.872   0.054 -0.0640  0.2798 -0.2589
68512W        W11429   5.291   9.002   1.585 -0.0408 -0.0517  0.2392
68513W        W11430   6.790   8.108   1.839 -0.0843  0.2077  0.2463
68514W        W11431   2.303   8.264   2.103 -0.1682  0.0977 -0.0124
68515W        W11432   6.610   8.753   0.544  0.0620  0.2944  0.1831
68516W        W11433   7.521   8.681  29.467  0.0187  0.1767  0.3024
68517W        W11434   5.213   9.735   3.673  0.1048 -0.0811  0.1985
68518W        W11435   5.821  10.597   1.707 -0.1956  0.3974  0.0150
68519W        W11436   2.898   6.516   0.709 -0.2278 -0.0301 -0.0864
68520W        W11437   6.919   8.154   1.308 -0.2109  0.1179 -0.2897
68521W        W11438   5.022   9.202   2.083 -0.2204 -0.1051  0.2524
68522W        W11439   3.103  10.357   1.261 -0.0012  0.0190 -0.0074
68523W        W11440   5.841  12.609   3.199 -0.0455 -0.3591  0.2037
68524W        W11441   3.506   8.632   1.670 -0.0720 -0.1830 -0.3749
68525W        W11442   4.465   9.563   1.795 -0.1340  0.1082 -0.1874
68526W        W11443   3.987   8.467   3.248 -0.0078  0.3334 -0.0256
68527W        W11444   7.004   8.641   0.841  0.1981  0.1939  0.0068
68528W        W11445   6.342   8.128   1.450  0.0546 -0.6060  0.0335
68529W        W11446   4.469   7.361   0.869  0.1015  0.0242  0.0820
68530W        W11447   5.858   7.785   1.598  0.0733 -0.1747 -0.1604
68531W        W11448   6.394   7.806   3.050  0.0845  0.0406  0.3878
68532W        W11449   6.319   8.205   2.789 -0.3618  0.0378 -0.0787
68533W        W11450   5.370  10.086   2.258 -0.0951  0.0807 -0.0063
68534W        W11451   9.421   7.378   1.783 -0.1773 -0.3124  0.3070
68535W        W11452   8.308   9.488   3.268 -0.2615  0.2135 -0.2053
68536W        W11453   5.132   8.613   3.869 -0.1711  0.2453  0.1119
68537W        W11454   5.094   8.203  31.606 -0.0144 -0.1174 -0.0091
68538W        W11455   5.436   9.591   0.848 -0.0401 -0.0562  0.0925
68539W        W11456   3.808  10.937  30.756  0.1166 -0.0728  0.1379
68540W        W11457   4.048   9.652   3.540  0.1977  0.0583  0.1791
68541W        W11458   7.092  10.336   1.584  0.0121 -0.0276 -0.0470
68542W        W11459   3.875   8.712  31.688  0.3243 -0.3495  0.2224
68543W        W11460   3.807  11.279   0.455  0.1361  0.0928 -0.2118
68544W        W11461   7.567   5.347  31.916 -0.0558  0.1978  0.1229
68545W        W11462   7.076  11.220   1.158  0.3540  0.0636  0.0906
68546W        W11463   6.564   7.495  30.910 -0.0011  0.3484  0.1569
68547W        W11464   8.494   7.396   2.785  0.0172 -0.2780  0.0285
68548W        W11465   5.967   7.746  31.405 -0.1907  0.1486  0.2760
68549W        W11466   6.574   6.974   2.119  0.0191  0.1913  0.0349
68550W        W11467   4.769   8.348   4.197  0.0239  0.2046  0.0552
68551W        W11468   6.997   9.028   0.554  0.3382 -0.0249  0.0402
68552W        W11469   5.970   7.097   4.244  0.1315 -0.3009 -0.0792
68553W        W11470   5.365  10.697   3.495 -0.1908 -0.1992 -0.0562
68554W        W11471   5.179   9.129   3.947  0.2128 -0.1810  0.0820
68555W        W11472   8.186   7.560   0.130  0.1003 -0.1784 -0.1532
68556W        W11473   5.103   9.191   0.793  0.0002  0.1382 -0.2978
68557W        W11474   6.123  10.015   1.001  0.0070  0.2364 -0.2969
68558W        W11475   8.454   9.321   2.732  0.3547 -0.1000  0.3163
68559W        W11476   4.882   9.105   1.224 -0.2538 -0.0323  0.0262
68560W        W11477   7.929   8.865   1.764 -0.0892 -0.4310 -0.0401
68561W        W11478   5.248   8.280   1.663 -0.1286 -0.1921 -0.3961
68562W        W11479   7.166   9.082   1.205  0.0744  0.0065  0.0940
68563W        W11480   4.874   8.750  30.394  0.1045  0.0457  0.0154
68564W        W11481   5.815  10.477   1.017 -0.3485 -0.0290 -0.0536
68565W        W11482   6.226   8.933   1.979 -0.0573  0.0668 -0.1490
68566W        W11483   6.689  10.535   2.102 -0.0486  0.0788  0.2275
68567W        W11484   6.928   7.673   1.536 -0.0261  0.0709 -0.1256
68568W        W11485   6.440   6.383   1.723 -0.2161  0.1093 -0.1144
68569W        W11486   6.439   7.841   2.159 -0.1789  0.1519  0.1760
68570W        W11487   3.888   9.306   4.277  0.0600  0.0174 -0.1091
68571W        W11488   2.623   8.451   3.808 -0.1953 -0.0268  0.0765
68572W        W11489   6.517  11.528   4.460  0.1582  0.3002  0.1947
68573W        W11490   7.453   8.683   0.420 -0.0899  0.3622 -0.3267
68574W        W11491   6.701   7.275   1.317  0.0639 -0.0832 -0.1613
68575W        W11492   7.348   8.203   0.838  0.1993 -0.1829 -0.0971
68576W        W11493   5.989   8.638  31.653 -0.0700  0.0808 -0.0141
68577W        W11494   5.082   9.513   0.380  0.0317  0.1715 -0.0326
68578W        W11495   6.698   7.945   2.676 -0.2297  0.2127  0.2692
68579W        W11496   6.572   7.406  31.463 -0.0784  0.0758  0.0993
68580W        W11497   6.177   7.339   3.841  0.2157 -0.3993  0.1816
68581W        W11498   7.854  10.596  30.659  0.2524 -0.1517 -0.2417
68582W        W11499   6.789  10.863   2.464  0.4256  0.0737 -0.2202
68583W        W11500   6.233   9.518   0.259 -0.0683  0.0762 -0.0455
68584W        W11501   2.432   6.567   1.296  0.0629 -0.1549 -0.0152
68585W        W11502   3.688   9.434  31.658 -0.2627 -0.1036  0.0589
68586W        W11503   6.107   8.253  31.252 -0.2648 -0.0821 -0.1944
68587W        W11504   6.548   7.701  30.439 -0.1577  0.0128  0.3308
68588W        W11505   4.767  12.100   2.478 -0.0441  0.0012  0.4171
68589W        W11506   5.845   9.068   2.415 -0.2114 -0.0808  0.0415
68590W        W11507   4.393   7.625   0.332 -0.0959  0.1960 -0.0666
68591W        W11508   7.459   9.004   2.610  0.0499  0.0897 -0.1384
68592W        W11509   5.109  10.363  31.574 -0.0374  0.1392  0.2286
68593W        W11510   5.778   7.369   1.324  0.3260  0.2745 -0.2044
68594W        W11511   6.260  11.467   2.055  0.2055  0.1370  0.0604
68595W        W11512   4.431   8.746   3.339 -0.1762 -0.0057  0.0216
68596W        W11513   4.746  11.794   0.393 -0.1161  0.1181  0.0333
68597W        W11514   5.986   9.242   3.735  0.1418 -0.2758  0.0480
68598W        W11515   7.658   8.559   1.326  0.0847  0.1082  0.2160
68599W        W11516   6.425   8.434   1.944  0.0571 -0.1405 -0.2786
68600W        W11517   5.893   9.799   3.689  0.0911 -0.2421  0.0206
68601W        W11518   6.933   9.598   1.975 -0.3788  0.3349  0.0286
68602W        W11519   5.424   9.422  31.954 -0.3331  0.0067  0.0843
68603W        W11520   5.488  11.304   2.090  0.0054  0.2592 -0.1738
68604W        W11521   7.170   9.238   0.141 -0.2572  0.2514  0.1361
68605W        W11522   5.494  10.660   1.386 -0.0261 -0.1201 -0.1610
68606W        W11523   4.118   6.730   3.624  0.0988  0.2577  0.2179
68607W        W11524   5.462   9.352   3.523  0.1607 -0.0552 -0.2973
68608W        W11525   7.804  10.085   2.814 -0.1205 -0.0881  0.1372
68609W        W11526   3.680   6.571   0.464 -0.2125  0.0499  0.1423
68610W        W11527   6.443  10.525   0.835 -0.3344  0.1797 -0.0290
68611W        W11528   4.646  12.061   3.058  0.0574 -0.4344  0.1968
68612W        W11529   5.630  10.549   0.027 -0.1767 -0.4612  0.0474
68613W        W11530   4.312  10.829   1.159 -0.1622  0.2141 -0.0831
68614W        W11531   6.071   7.568  30.558  0.0627 -0.0328  0.3612
68615W        W11532   5.348   8.867   1.071  0.0010  0.0378 -0.0805
68616W        W11533   7.912   9.169   2.649 -0.2184  0.3820 -0.0313
68617W        W11534   3.332   9.398   2.100  0.2197 -0.1538  0.0032
68618W        W11535   3.507  10.657   1.461  0.2414  0.2890  0.0044
68619W        W11536   3.957  11.986  31.394 -0.3524 -0.0547  0.2201
68620W        W11537   8.602  10.439  31.516 -0.1013 -0.1680 -0.2432
68621W        W11538   2.510   9.900   0.559  0.0182  0.1377 -0.0834
68622W        W11539   9.902   9.075   4.570  0.0528  0.0128 -0.2079
68623W        W11540   7.975   9.781  31.066  0.2194 -0.0734 -0.1916
68624W        W11541   6.274   9.465   1.131  0.0809  0.1585 -0.2996
68625W        W11542   8.590   7.854   0.525  0.2945  0.0068  0.0316
68626W        W11543   5.451  10.933   3.002  0.1917 -0.0927  0.0332
68627W        W11544   7.519   9.244   0.569  0.0304  0.2779  0.2825
68628W        W11545   4.948   9.407  29.830  0.0473  0.0092 -0.1071
68629W        W11546   5.576  10.382   3.156  0.1372 -0.0578  0.0525
68630W        W11547   7.041   7.324   3.552 -0.0559  0.2769 -0.1435
68631W        W11548   5.520  12.638   2.783 -0.2554  0.0111  0.2574
68632W        W11549   5.345  10.432   0.889  0.2035  0.3979 -0.3495
68633W        W11550   3.705   7.998   0.129 -0.1079 -0.3072 -0.0680
68634W        W11551   6.195   9.186   1.517 -0.3731  0.1932  0.2452
68635W        W11552   7.479   7.627   3.531 -0.0237 -0.0884 -0.2423
68636W        W11553   4.274   9.103   0.560  0.2001 -0.0073  0.1471
68637W        W11554   6.613   9.503   1.545  0.1755 -0.0061 -0.2545
68638W        W11555   4.151   9.981   1.595 -0.0425 -0.1153  0.0482
68639W        W11556   2.672   9.758   1.923 -0.0513  0.1720 -0.0844
68640W        W11557   6.209  10.397   1.354  0.1984  0.2285  0.2644
68641W        W11558   3.349   8.398   2.119  0.1921  0.1110  0.0090
68642W        W11559   7.621   9.146  31.579  0.1542 -0.2474 -0.0377
68643W        W11560   5.463  10.256   1.803  0.4735 -0.0396  0.2720
68644W        W11561   7.308   7.795   1.150 -0.3766 -0.1780  0.0613
68645W        W11562   4.712   9.214   2.475 -0.0276 -0.2132  0.0124
68646W        W11563   8.323   8.139   1.561  0.0489  0.0326  0.1162
68647W        W11564   5.703   8.991   1.965  0.1362 -0.5329  0.2520
68648W        W11565   4.862   9.160   4.361  0.2063  0.0781  0.2344
68649W        W11566   7.470   7.312  30.926 -0.0361 -0.0438  0.0751
68650W        W11567   7.276   7.234   1.303  0.3011 -0.2175  0.1130
68651W        W11568   7.455  10.522  31.532 -0.2005 -0.0229 -0.0247
68652W        W11569   5.005  10.588   1.718 -0.3205  0.0019  0.0899
68653W        W11570   5.614   8.675   1.452 -0.2308 -0.0323 -0.3688
68654W        W11571   6.942   8.204   0.510  0.0944 -0.1876 -0.1223
68655W        W11572   3.633   8.929   2.091  0.2808 -0.0874  0.2672
68656W        W11573   6.947   9.117   4.310 -0.1592  0.1089  0.0805
68657W        W11574   5.136   9.587   4.135  0.1761 -0.0177 -0.1539
68658W        W11575   5.000   8.034   1.184 -0.2899 -0.1274 -0.0552
68659W        W11576   6.689  10.012   1.670  0.4696  0.0966  0.0357
68660W        W11577   8.389   9.143   1.711  0.0388 -0.0977 -0.0799
68661W        W11578   4.317  10.993  31.441 -0.3653 -0.0104 -0.0133
68662W        W11579   8.023   7.866   0.508  0.3031  0.4553  0.0027
68663W        W11580   6.731  11.631   1.267 -0.2241  0.0595  0.0996
68664W        W11581   4.483   5.759   1.384 -0.2202  0.1753 -0.5237
68665W        W11582   5.898  10.578   3.552 -0.0080  0.0970 -0.2743
68666W        W11583   8.550  11.705   2.586  0.2766  0.2469  0.1206
68667W        W11584   5.007   7.559   0.965  0.3321  0.2313 -0.1614
68668W        W11585   6.404   9.748   1.951 -0.0464 -0.0242 -0.0333
68669W        W11586   3.852   9.365   2.366 -0.1590  0.2234  0.0516
68670W        W11587   6.665   8.634   2.739 -0.0234  0.3853  0.0537
68671W        W11588   9.251   7.094   3.774 -0.0487 -0.2619 -0.1617
68672W        W11589   4.768  11.239   0.521  0.0275  0.1830  0.3379
68673W        W11590   7.517   6.548   3.570  0.1264  0.0754 -0.1861
68674W        W11591   4.524   9.508   1.273 -0.0005  0.1488 -0.1496
68675W        W11592   5.272   8.258   4.299  0.1150  0.0589  0.1881
68676W        W11593   3.637  10.404   1.018  0.0538  0.0887  0.1517
68677W        W11594   5.057   9.602   3.197  0.2098 -0.3819  0.0516
68678W        W11595   2.892   8.378   0.724 -0.0427  0.1727 -0.2892
68679W        W11596   5.195  11.816   0.194 -0.0500  0.1645 -0.0922
68680W        W11597   5.682   8.561   2.360 -0.1903 -0.0594  0.3698
68681W        W11598   5.362   8.352   1.077  0.2487  0.0627  0.0954
68682W        W11599   8.019   9.082  31.242 -0.0015 -0.1976 -0.1671
68683W        W11600   5.524   7.963   2.540 -0.1336  0.0225  0.2017
68684W        W11601   7.846   5.191  31.172  0.1274  0.3773 -0.0141
68685W        W11602   7.115   7.335  31.583  0.3477 -0.0077  0.1703
68686W        W11603   5.694   7.407   3.061 -0.2794  0.1449  0.2893
68687W        W11604   4.394   8.273   1.093 -0.0494  0.0391 -0.1911
68688W        W11605   5.259  11.447  31.103  0.1660  0.0628  0.0890
68689W        W11606   6.299   8.659   3.141  0.0161  0.2499 -0.1288
68690W        W11607   7.231   5.875   2.653  0.0561  0.1952  0.0017
68691W        W11608   4.807   9.655   2.737  0.1356 -0.3029 -0.2640
68692W        W11609   2.599   6.602   1.951  0.1152 -0.0591  0.1115
68693W        W11610   3.893   7.563   0.424  0.0263  0.0035 -0.0170
68694W        W11611   8.747  10.378   1.588  0.2962  0.2901 -0.0376
68695W        W11612   5.884   4.753   1.230  0.0900 -0.1387 -0.0951
68696W        W11613   2.180   5.994   0.544  0.2307 -0.1225 -0.0467
68697W        W11614   7.036   9.935   0.888  0.0276  0.3643  0.2648
68698W        W11615   5.072  10.238   1.409 -0.0066  0.1790 -0.0451
68699W        W11616   4.963   7.507   2.881 -0.0698  0.0129  0.0273
68700W        W11617   4.897   9.146   3.499 -0.1376 -0.4130  0.1683
68701W        W11618   3.444  10.771  31.069  0.0738  0.1189  0.0575
68702W        W11619   5.453   9.897   4.822 -0.0737  0.1054 -0.0843
68703W        W11620   4.516   7.329   2.692  0.0084 -0.3943 -0.2005
68704W        W11621   3.782   8.243   0.882 -0.1155 -0.0908  0.0191
68705W        W11622   5.835   8.444   2.989  0.0724  0.1106  0.0573
68706W        W11623   5.195  11.853   2.536 -0.1429  0.0431  0.1957
68707W        W11624   7.002  11.400   0.684 -0.0179  0.1901  0.0847
68708W        W11625   6.266   7.868   0.812  0.5132  0.3184 -0.0937
68709W        W11626   3.747   9.359   1.810 -0.2503  0.0920  0.3213
68710W        W11627   5.971   6.156   2.645  0.0595 -0.0605 -0.0495
68711W        W11628   6.826  10.323   1.156 -0.0565  0.3758  0.0948
68712W        W11629   6.284  12.256   3.695  0.1854 -0.1454 -0.0448
68713W        W11630   6.565   8.894  31.555  0.0636  0.1992  0.0171
68714W        W11631   6.920   6.661   1.892 -0.1509  0.1977 -0.1615
68715W        W11632   6.098   7.900   0.281 -0.1387  0.1774  0.2853
68716W        W11633   4.952   6.807   4.498  0.0225 -0.1743 -0.1584
68717W        W11634   5.753   9.708   4.475 -0.2248  0.0790 -0.0527
68718W        W11635   6.329  10.710   2.648  0.1550 -0.1579 -0.2500
68719W        W11636   5.220   9.971   0.590 -0.0540  0.0645 -0.1490
68720W        W11637   5.418   7.823  31.485 -0.1702  0.1330  0.0656
68721W        W11638   7.059  10.749   1.886 -0.0571 -0.1539 -0.0666
68722W        W11639   3.136   9.871   1.790 -0.1229 -0.1775 -0.1508
68723W        W11640   7.270   7.980  31.659 -0.2790  0.2300 -0.0342
68724W        W11641   4.075   9.698   2.060 -0.0854 -0.0319  0.2969
68725W        W11642   5.746  11.001   3.378 -0.1016  0.1526  0.0045
68726W        W11643   7.474   8.344   2.737  0.3054  0.3009 -0.1407
68727W        W11644   5.199   9.392  31.519  0.0518 -0.1268 -0.3188
68728W        W11645   8.208   7.794  30.723  0.0927  0.1192 -0.1937
68729W        W11646   3.356  10.996   4.177  0.0620 -0.0662 -0.4140
68730W        W11647   5.112   8.801   2.883  0.0939 -0.1609 -0.0231
68731W        W11648   5.767  10.819   2.627 -0.1016 -0.3436  0.0034
68732W        W11649   7.062  10.723   1.242  0.1480 -0.0387 -0.3631
68733W        W11650   3.422   6.636  31.913 -0.0537  0.0181 -0.2614
68734W        W11651   4.863   8.271   0.783 -0.1862 -0.0834  0.1901
68735W        W11652   5.028  10.874   1.241 -0.0971  0.1190 -0.0656
68736W        W11653   5.627   9.440   1.670  0.3862 -0.2271 -0.1744
68737W        W11654   4.956   9.185  31.906 -0.0037  0.1831  0.2182
68738W        W11655   6.568   7.323   0.805 -0.4465  0.3980 -0.1112
68739W        W11656   4.587  10.430   3.018 -0.0007  0.1490  0.2589
68740W        W11657   6.108  10.897   2.217 -0.5053 -0.1203  0.0193
68741W        W11658   4.172   9.954   7.247 -0.2868  0.1935  0.0110
68742W        W11659   5.455   6.029   5.277  0.0028  0.0318  0.1501
68743W        W11660   6.274   8.229   3.375  0.0758  0.2255  0.0945
68744W        W11661   7.364   9.829   4.349  0.0811  0.2457 -0.0629
68745W        W11662   4.730   6.238   4.340 -0.1768  0.0105  0.0890
68746W        W11663   5.956  11.561   4.129  0.0926  0.0969 -0.2576
68747W        W11664   5.049   6.065   7.977  0.2597  0.0687 -0.0369
68748W        W11665   6.522  10.268   5.321 -0.2108 -0.1182  0.1099
68749W        W11666   7.421  10.007   6.127  0.1367 -0.1078  0.1929
68750W        W11667   6.725  10.516   4.336 -0.0738  0.2209 -0.3193
68751W        W11668   4.227   6.839   6.391 -0.2983 -0.2207  0.1928
68752W        W11669   4.111  10.661   6.539  0.1982 -0.2229  0.0225
68753W        W11670   5.888   9.206   4.570 -0.2001  0.0030 -0.1611
68754W        W11671   3.733   6.839   4.874 -0.1244 -0.1377 -0.0004
68755W        W11672   6.267   6.817   3.976  0.0155  0.0170 -0.1570
68756W        W11673   1.470   7.516   4.773  0.1286  0.0786  0.1045
68757W        W11674   6.261   6.951   8.479 -0.0278 -0.1527 -0.3450
68758W        W11675   6.843   6.443   3.868  0.2806 -0.0539  0.0560
68759W        W11676   6.112   9.815   4.156 -0.0550  0.1698  0.0094
68760W        W11677   4.288   8.217   6.686  0.0235  0.1670 -0.1015
68761W        W11678   5.454   8.117   5.277  0.1596 -0.0808  0.0331
68762W        W11679   3.704   8.940   4.895 -0.1491  0.2378  0.1251
68763W        W11680   5.661   7.265   3.804 -0.0361 -0.0907  0.1974
68764W        W11681   5.061   9.740   6.100 -0.0315 -0.1010  0.3564
68765W        W11682   3.804   8.894   7.798  0.2419 -0.1223  0.0400
68766W        W11683   6.543   7.559   4.944 -0.3523 -0.1145 -0.1042
68767W        W11684   6.555   9.279   5.792  0.2953  0.0926 -0.0577
68768W        W11685   5.144  10.187   3.390 -0.1009  0.0481  0.0117
68769W        W11686   5.436   8.992   4.379 -0.0752 -0.1593 -0.0644
68770W        W11687   6.677   8.101   7.743  0.0308  0.4064 -0.2105
68771W        W11688   2.772   9.022   3.812  0.1438  0.0890 -0.0002
68772W        W11689   4.785  11.504   4.925  0.2854 -0.2185  0.0898
68773W        W11690   5.052  10.189   4.044  0.2177 -0.1625  0.1380
68774W        W11691   6.008  11.271   4.618 -0.0572 -0.0328 -0.1169
68775W        W11692   6.070  10.013   6.753  0.0692  0.0732  0.3012
68776W        W11693   6.087   9.765   6.173 -0.0763  0.2392  0.2978
68777W        W11694   5.153   9.690   5.132 -0.1755  0.0973 -0.0515
68778W        W11695   6.052  10.710   6.642 -0.1293  0.2547 -0.1211
68779W        W11696   5.586  10.648   3.933  0.0728  0.0181 -0.2436
68780W        W11697   4.387   8.165   5.984 -0.1844  0.0967  0.1890
68781W        W11698   5.787   8.109   4.408 -0.1159  0.0753  0.0241
68782W        W11699   6.312  10.176   3.614  0.1681 -0.0087 -0.0991
68783W        W11700   5.147   8.725   6.025  0.2041  0.2510 -0.2652
68784W        W11701   5.856   8.709   8.632  0.1057 -0.3585  0.0301
68785W        W11702   2.897  10.757   5.332  0.1081 -0.3907 -0.1118
68786W        W11703   6.989   8.781   6.979  0.2733 -0.3442 -0.0841
68787W        W11704   5.558   9.906   4.060 -0.0920 -0.2454 -0.0419
68788W        W11705   6.189   9.559   2.469  0.1838  0.2426  0.0853
68789W        W11706   6.282   8.773   3.850 -0.0947  0.3089  0.0331
68790W        W11707   8.081   7.845   1.875 -0.0763  0.0171 -0.0195
68791W        W11708   4.830   6.753   5.966  0.0694  0.1121  0.0830
68792W        W11709   3.688  10.942   6.285 -0.0833 -0.0347  0.1711
68793W        W11710   5.486   5.549   6.214 -0.1328  0.0808  0.1640
68794W        W11711   6.985   8.773   4.674  0.3522 -0.0154  0.3963
68795W        W11712   5.341   9.680   2.002 -0.3040  0.0685  0.1945
68796W        W11713   4.695   8.930   6.164 -0.2676  0.1362 -0.2058
68797W        W11714   4.262  10.177   5.406 -0.1270 -0.1700 -0.0025
68798W        W11715   5.200   7.894   6.976  0.1794  0.2335  0.1315
68799W        W11716   7.423  13.084   3.448 -0.3988  0.0932  0.1124
68800W        W11717   5.884  10.757   5.322  0.0576  0.0349  0.1053
68801W        W11718   4.721  10.361   5.229  0.1577 -0.1181 -0.3820
68802W        W11719   3.931   8.330   5.739 -0.2254  0.2061  0.0266
68803W        W11720   4.347  10.396   7.527 -0.0404  0.1805  0.0617
68804W        W11721   3.621   9.486   6.047  0.4902 -0.0894 -0.1306
68805W        W11722   6.207   6.997   3.517 -0.0060  0.0475 -0.0314
68806W        W11723   8.182   8.083   5.898  0.0933 -0.2494  0.1505
68807W        W11724   4.171   9.022   6.497  0.2297  0.1928  0.0722
68808W        W11725   8.132  10.960   4.990 -0.3095  0.1830 -0.1355
68809W        W11726   3.589   8.453   6.061 -0.0770  0.0657  0.3175
68810W        W11727   4.491   7.574   4.239  0.0446 -0.1505  0.0431
68811W        W11728   6.279  12.052   3.203 -0.2667  0.3705  0.1966
68812W        W11729   5.915   8.903   4.170 -0.0731 -0.3023  0.0621
68813W        W11730   7.059   7.823   5.886  0.1551  0.4142 -0.1027
68814W        W11731   4.077  10.036   3.190  0.1123 -0.1045 -0.3725
68815W        W11732   6.743   8.930   3.107 -0.1626  0.4228  0.1104
68816W        W11733   6.742   8.450   6.133 -0.1256  0.0145 -0.3228
68817W        W11734   6.377   9.680   3.752 -0.1262 -0.0052  0.2697
68818W        W11735   4.981   8.238   4.926 -0.2045  0.1271 -0.0207
68819W        W11736   5.067   7.848   6.418 -0.1723  0.3286 -0.0477
68820W        W11737   5.321  10.136   5.916 -0.0541 -0.1463  0.0160
68821W        W11738   2.096  12.161   3.083  0.1120 -0.1342 -0.2026
68822W        W11739   4.080   8.155   5.332  0.0248 -0.0443  0.1099
68823W        W11740   4.020  10.518   3.179 -0.0320 -0.0614 -0.3624
68824W        W11741   4.099   6.680   7.062 -0.1112 -0.2429  0.1187
68825W        W11742   5.837   9.540   4.939 -0.1887 -0.2594 -0.4569
68826W        W11743   7.402   5.789   3.445  0.0655  0.2688  0.1159
68827W        W11744   3.110   6.948   7.398 -0.0360  0.2302  0.0037
68828W        W11745   5.572   7.200   5.148  0.0423  0.1201 -0.2670
68829W        W11746   4.203   9.250   2.661 -0.0927 -0.0384  0.0853
68830W        W11747   8.003  10.926   3.895 -0.2336  0.2355  0.1256
68831W        W11748   7.142   8.615   1.433  0.2757 -0.3678  0.3462
68832W        W11749   6.950  10.322   3.180 -0.3390  0.0327 -0.2398
68833W        W11750   3.696   8.201   6.525  0.0323  0.1294 -0.0363
68834W        W11751   1.838   8.822   4.566 -0.0812  0.0055  0.0529
68835W        W11752   4.763   7.794   5.861 -0.2713 -0.3030  0.0463
68836W        W11753   3.541   8.017   6.972  0.1766 -0.1682  0.0587
68837W        W11754   7.775   8.601   4.419  0.0210  0.0794  0.3557
68838W        W11755   5.783   7.840   3.933  0.0770  0.1475 -0.2665
68839W        W11756   6.726   7.127   5.255  0.0182 -0.0224  0.1846
68840W        W11757   4.896   9.295   4.827 -0.0151 -0.1484 -0.0933
68841W        W11758   5.295   7.620   3.920 -0.0605  0.3343  0.1602
68842W        W11759   5.754   8.277   6.347  0.1237 -0.0214 -0.0651
68843W        W11760   7.471   9.661   2.826  0.0610 -0.0804 -0.0618
68844W        W11761   6.206   8.834   4.680  0.2659 -0.2407 -0.2257
68845W        W11762   6.016  11.303   6.065 -0.1428 -0.2375  0.1560
68846W        W11763   5.039   7.930   5.428  0.4189 -0.1975  0.5630
68847W        W11764   2.057   8.865   2.713  0.0580 -0.1718 -0.0464
68848W        W11765   3.831  11.787   3.452  0.0567 -0.2230 -0.2183
68849W        W11766   5.815   6.783   4.848  0.1195 -0.4358 -0.1948
68850W        W11767   5.303   6.582   3.680  0.1410  0.0736  0.0645
68851W        W11768   9.512   8.633   4.706 -0.1414  0.3600  0.1354
68852W        W11769   4.210   9.512   5.348  0.2342 -0.2038  0.4913
68853W        W11770   4.188   9.413   6.862 -0.1137 -0.1426 -0.0232
68854W        W11771   5.820   7.429   7.645  0.2644  0.0077  0.0865
68855W        W11772   5.440   8.319   4.724 -0.0037  0.1229  0.0920
68856W        W11773   6.405   7.361   4.472 -0.1307 -0.0665 -0.0633
68857W        W11774   6.080   6.061   3.610  0.1563  0.0060  0.3476
68858W        W11775   7.637   9.926   5.322 -0.2002  0.0278 -0.0388
68859W        W11776   3.316  11.034   5.375  0.0879  0.0518  0.1578
68860W        W11777   2.691   9.880   5.591  0.1593 -0.1907  0.0218
68861W        W11778   4.231   7.714   5.633  0.0894 -0.0814  0.1007
68862W        W11779   6.082   7.634   5.070  0.2782 -0.0443 -0.1171
68863W        W11780   5.794   7.824   7.297  0.0984 -0.0923  0.1867
68864W        W11781   7.058   7.189   7.385 -0.0225 -0.0884  0.1346
68865W        W11782   2.200   8.713   4.882 -0.1381  0.0147 -0.1102
68866W        W11783   4.124   7.360   6.563  0.1223  0.0817  0.1947
68867W        W11784   6.308   6.829   5.520  0.2258  0.0938  0.0437
68868W        W11785   8.076   9.101   3.145  0.2124  0.0282  0.1404
68869W        W11786   6.280   9.623   4.628 -0.1262 -0.2301 -0.0270
68870W        W11787   6.132   9.592   3.312 -0.0998  0.2291 -0.1384
68871W        W11788   5.370   8.346   2.840  0.1047  0.3291 -0.1769
68872W        W11789   7.377   6.763   4.098 -0.0364 -0.0582 -0.2365
68873W        W11790   4.844   8.690   7.611  0.1510 -0.3915 -0.0659
68874W        W11791   5.061  10.707   3.885 -0.0816  0.1863  0.0106
68875W        W11792   5.805   9.047   5.472 -0.2917  0.0275 -0.0562
68876W        W11793   4.543   8.106   5.034  0.3149  0.3647  0.2051
68877W        W11794   5.562  10.175   3.640 -0.0584  0.0301  0.2809
68878W        W11795   5.300   8.910   5.477 -0.2495  0.0054  0.0026
68879W        W11796   4.754   8.811   5.596  0.3042  0.0795 -0.0076
68880W        W11797   4.287  11.374   5.221  0.3944 -0.1636 -0.1380
68881W        W11798   6.965   8.030   4.922 -0.2262  0.4204 -0.0921
68882W        W11799   4.716   9.710   4.438  0.0607  0.1451 -0.2900
68883W        W11800   5.100   5.395   6.465  0.1258  0.0213  0.0653
68884W        W11801   3.482   9.183   4.535  0.3260 -0.1193 -0.2029
68885W        W11802   7.802   8.528   5.260 -0.1657 -0.1651 -0.2472
68886W        W11803   6.870   6.795   5.706 -0.1738  0.2109  0.0638
68887W        W11804   6.713   6.931   7.622  0.1788 -0.1139  0.1824
68888W        W11805   8.200  10.516   4.479 -0.1366 -0.0236 -0.0452
68889W        W11806   7.001   9.612   4.587  0.0420 -0.0923 -0.1879
68890W        W11807   5.503   7.689   3.507  0.0375  0.2398 -0.0191
68891W        W11808   3.991   7.121   3.003  0.3688 -0.1606  0.0158
68892W        W11809   6.636   8.408   4.762  0.0408 -0.0019 -0.0056
68893W        W11810   4.556   8.584   5.099 -0.2264  0.1551  0.1288
68894W        W11811   5.242   9.493   7.796 -0.2497 -0.1146 -0.0329
68895W        W11812   6.839   9.541   5.477 -0.1357 -0.1124  0.3584
68896W        W11813   5.759   8.639   4.559 -0.2801  0.1143 -0.2067
68897W        W11814   6.903   8.915   5.958 -0.1043 -0.1091  0.1374
68898W        W11815   6.115   7.790   4.582 -0.1624 -0.1870  0.1887
68899W        W11816   3.525   8.569   4.650  0.0373  0.5091 -0.1700
68900W        W11817   4.905   8.654   3.383  0.0318 -0.1197  0.0805
68901W        W11818   7.836   6.534   6.029  0.3336 -0.2656  0.0468
68902W        W11819   3.228  12.052   5.767 -0.0412 -0.1127  0.1944
68903W        W11820   5.600   9.801   3.287 -0.0865  0.1840 -0.0990
68904W        W11821   5.401   9.385   4.650  0.0783  0.1411 -0.0411
68905W        W11822   4.466   9.055   5.181  0.0657 -0.1933 -0.0785
68906W        W11823   8.019   7.790   6.606 -0.0780  0.3187 -0.1299
68907W        W11824   3.435  10.528   5.615  0.0863 -0.2417  0.1429
68908W        W11825   2.919   6.758   2.952  0.0555  0.2549  0.3830
68909W        W11826   4.493   7.402   6.829  0.0386 -0.2100 -0.2886
68910W        W11827   8.466   8.321   2.638  0.0733  0.0109  0.1670
68911W        W11828  10.051   8.101   4.726 -0.2118  0.4367  0.1345
68912W        W11829   3.512   6.367   5.855  0.0426 -0.2291  0.1900
68913W        W11830   6.186   7.115   5.084  0.1108 -0.1539 -0.0688
68914W        W11831   3.255   9.741   6.330 -0.1053  0.3635  0.1435
68915W        W11832   5.929   7.298   4.694  0.2421  0.2980 -0.1188
68916W        W11833   7.552   6.796   3.135  0.0115  0.2977  0.4246
68917W        W11834   6.060   6.126   5.955 -0.3454 -0.0691  0.2001
68918W        W11835   4.377   8.937   7.105  0.0964 -0.0727 -0.1942
68919W        W11836   3.732   8.507   3.846 -0.0392 -0.0331  0.0972
68920W        W11837   8.161   9.492   6.412 -0.1779  0.2155  0.1125
68921W        W11838   6.153   7.530   6.154  0.3799  0.0712  0.1888
68922W        W11839   5.396   9.210   3.017 -0.2154  0.0354 -0.2028
68923W        W11840   5.256  10.451   5.025 -0.1183  0.0147  0.2943
68924W        W11841   6.086   8.278   3.897 -0.1797 -0.1199 -0.1616
68925W        W11842   4.246   9.768   5.778 -0.1604  0.0141 -0.0593
68926W        W11843   4.749   8.418   6.244  0.0560 -0.3359 -0.1120
68927W        W11844   4.608   7.694   5.303  0.2715 -0.0526 -0.2176
68928W        W11845   6.167   7.043   6.265 -0.0861  0.1583 -0.1520
68929W        W11846   4.723   6.839   6.477  0.0434  0.1725 -0.1307
68930W        W11847   5.282   7.807   4.471  0.1871 -0.0853  0.0900
68931W        W11848   5.541   7.011   5.656  0.4806  0.1327  0.1848
68932W        W11849   6.914   7.590   6.469  0.3258 -0.1840 -0.1816
68933W        W11850   5.086  10.086   6.476  0.1808 -0.0164  0.0203
68934W        W11851   6.855   7.311   7.951 -0.1901  0.0394  0.2448
68935W        W11852   7.108  13.818   2.903 -0.0965  0.0732  0.1369
68936W        W11853   5.548   9.242   5.876  0.0769 -0.0367  0.0650
68937W        W11854   4.817  10.084   2.510  0.3037  0.4434  0.1107
68938W        W11855   4.519   7.800   6.301  0.1795 -0.1425 -0.0435
68939W        W11856   4.144   7.640   3.897 -0.2000  0.0563 -0.0111
68940W        W11857   6.550   6.260   4.229  0.2166 -0.0652 -0.1192
68941W        W11858   3.254   9.219   5.775  0.1086  0.1455 -0.2447
68942W        W11859   5.017   7.792   3.501 -0.0211  0.2904  0.0800
68943W        W11860   4.626  10.255   6.694 -0.2120 -0.1911 -0.0769
68944W        W11861   8.437   6.699   3.207 -0.3805 -0.3163  0.0258
68945W        W11862   7.284  10.184   2.862  0.1077 -0.1035  0.0414
68946W        W11863   6.659   7.560   5.531  0.2855  0.4756 -0.2578
68947W        W11864   6.468   8.884   4.277 -0.1640  0.0635 -0.0127
68948W        W11865   3.768   8.801   4.315  0.1680  0.4826  0.1383
68949W        W11866   6.619   7.975   6.395  0.0503  0.0910  0.0127
68950W        W11867   4.384   7.937   7.258  0.0915 -0.2794  0.1174
68951W        W11868   8.473   9.575   4.555 -0.2799 -0.1665  0.1729
68952W        W11869   3.250   8.858   6.726  0.1018 -0.0237  0.0293
68953W        W11870   7.238   9.766   5.659  0.0341 -0.0203  0.0394
68954W        W11871   3.552  10.487   6.544  0.0146 -0.0809 -0.1113
68955W        W11872   5.996   8.250   4.900  0.0598 -0.0078  0.0221
68956W        W11873   4.662   5.910   3.554 -0.2342 -0.1734  0.2302
68957W        W11874   3.094   8.874   4.663  0.1319  0.1140  0.1214
68958W        W11875   5.592  10.312   4.385  0.0436  0.0316 -0.1086
68959W        W11876   5.698   9.860   5.289  0.1495  0.1976  0.0720
68960W        W11877   8.300   7.368   3.256  0.0131 -0.0461  0.1286
68961W        W11878   5.667   9.029   4.954 -0.2910  0.2235 -0.1405
68962W        W11879   7.229   8.649   2.323  0.3551 -0.1560  0.2263
68963W        W11880   5.947   8.642   3.504 -0.1193  0.0194  0.0025
68964W        W11881   4.570   6.863   5.279  0.2209 -0.1675 -0.4107
68965W        W11882   5.614   8.155   6.799 -0.1989 -0.0528 -0.0753
68966W        W11883   6.023   8.689   5.119  0.0618  0.4349  0.3979
68967W        W11884   5.718   6.357   3.449  0.0062 -0.1415  0.1732
68968W        W11885   6.817   6.506   7.816  0.0507 -0.2481 -0.2289
68969W        W11886   6.323   8.929   5.446 -0.2979 -0.1189  0.3410
68970W        W11887   4.951   8.319   6.764 -0.1203  0.1258 -0.0377
68971W        W11888   3.910   7.260   7.804 -0.1289 -0.2336  0.1501
68972W        W11889   5.727  10.849   5.837 -0.0057 -0.2370  0.0506
68973W        W11890   7.650   8.080   2.118 -0.1085  0.1216 -0.1241
68974W        W11891   6.953   8.587   5.108 -0.1210  0.2235 -0.3585
68975W        W11892   7.334   7.811   3.057 -0.0652  0.1912  0.0728
68976W        W11893   6.741   8.251   3.179 -0.1057  0.0073  0.1576
68977W        W11894   5.950   6.416   6.850 -0.1200 -0.0161  0.1303
68978W        W11895   5.742   5.943   6.841 -0.0779  0.1713  0.2244
68979W        W11896   6.612   8.559   3.524  0.0053 -0.3408  0.0068
68980W        W11897   6.863   6.673   5.176  0.4341  0.0097 -0.2622
68981W        W11898   5.028  11.281   2.860 -0.1359 -0.0985  0.0171
68982W        W11899   6.210   8.024   6.112  0.2004  0.0210  0.2956
68983W        W11900   6.378   8.003   5.296 -0.2241  0.0072  0.0035
68984W        W11901   5.718   7.157   7.095  0.1661  0.1577  0.1081
68985W        W11902   4.459   9.366   7.363  0.0204 -0.2640 -0.1314
68986W        W11903   5.340   6.009   3.474  0.1457  0.3796 -0.0049
68987W        W11904   6.813   9.935   3.762 -0.0119 -0.1553 -0.2585
68988W        W11905   6.241   9.844   5.083 -0.0104  0.0844  0.0337
68989W        W11906   7.028   9.434   6.023 -0.1680 -0.3365  0.3481
68990W        W11907   6.985   6.153   3.413  0.0623 -0.0595  0.3584
68991W        W11908   6.942   7.929   6.827 -0.0031  0.0310  0.3541
68992W        W11909   2.433   9.366   3.914  0.2918  0.2884  0.1217
68993W        W11910   7.277   5.409   7.328 -0.1583  0.0793 -0.0248
68994W        W11911   3.628  11.747   5.869 -0.1004  0.2705 -0.0887
68995W        W11912   5.233   7.244   4.253  0.0543 -0.0084 -0.0162
68996W        W11913   5.070  10.917   4.729 -0.1076  0.1500 -0.2542
68997W        W11914   6.590   9.213   3.827 -0.0318  0.3009 -0.0279
68998W        W11915   6.904   9.012   2.590 -0.0850  0.2101  0.1200
68999W        W11916   3.700   7.640   5.299 -0.1226 -0.0954  0.1452
69000W        W11917   7.868   9.115   6.143  0.0274  0.0732  0.2312
69001W        W11918   4.664  10.123   5.730  0.0041 -0.0245  0.0441
69002W        W11919   5.274   7.521   5.612 -0.0761  0.1378 -0.0235
69003W        W11920   5.536   9.797   7.204 -0.0118  0.1876 -0.1808
69004W        W11921   6.974   9.204   4.906 -0.1104  0.1306 -0.0596
69005W        W11922   4.628   7.974   4.514  0.0620  0.2669 -0.2148
69006W        W11923   1.541   7.524   7.268 -0.0397  0.0451  0.4422
69007W        W11924   3.724   9.146   6.846  0.2907  0.0177 -0.1102
69008W        W11925   6.546   8.225   4.049  0.0580 -0.4433 -0.3298
69009W        W11926   5.220   6.464   4.205 -0.1094  0.0348  0.1085
69010W        W11927   5.585   8.870   3.814 -0.0579 -0.2241 -0.0068
69011W        W11928   4.815  10.366   6.176  0.2493  0.2774 -0.1613
69012W        W11929   3.948   8.258   7.055 -0.1778 -0.2047  0.0318
69013W        W11930   4.458   8.225   3.410  0.2135 -0.2213 -0.3375
69014W        W11931   5.717   9.589   2.336 -0.0105 -0.0399 -0.0100
69015W        W11932   5.815   9.092   3.269  0.0210  0.1149  0.1210
69016W        W11933   5.902  10.244   3.977 -0.0042 -0.1393 -0.2624
69017W        W11934   6.114   6.347   4.002 -0.1857 -0.2419 -0.1312
69018W        W11935   5.023  10.518   5.669 -0.2004 -0.0903 -0.0444
69019W        W11936   5.361  12.589   3.296  0.2235  0.5437  0.4119
69020W        W11937   4.186   8.949   4.009 -0.1764 -0.4033  0.1277
69021W        W11938   3.587   9.699   4.434  0.2258  0.2076 -0.0112
69022W        W11939   5.850   8.777   6.040  0.2269  0.1000  0.1811
69023W        W11940   7.834   6.729   2.740 -0.0283 -0.0960  0.1322
69024W        W11941   7.340   8.782   4.192  0.1030 -0.0699  0.3005
69025W        W11942   6.568   8.098   5.784 -0.0565 -0.1285  0.0636
69026W        W11943   5.630   7.434   5.937  0.3664  0.2155  0.0459
69027W        W11944   3.553   8.206   7.426  0.2643  0.4004  0.0327
69028W        W11945   4.639   8.435   4.660  0.1605 -0.5852  0.0249
69029W        W11946   5.474   8.046   7.958 -0.1415  0.0849 -0.1761
69030W        W11947   7.003   8.425   6.632 -0.1949 -0.1458  0.2905
69031W        W11948   4.663  10.754   6.435  0.1846  0.4548  0.2846
69032W        W11949   6.962  12.416   4.746 -0.2756  0.1274  0.0556
69033W        W11950   6.279   6.809   4.581  0.2002 -0.2106 -0.3272
69034W        W11951   5.308   6.628   5.838  0.1279 -0.0914 -0.2201
69035W        W11952   7.169   7.170   6.582 -0.0352  0.2052  0.1605
69036W        W11953   5.767  10.192   1.439 -0.1266  0.1185 -0.1508
69037W        W11954   7.043   7.773   3.795 -0.0017 -0.2384 -0.1610
69038W        W11955   4.610   8.907   4.664  0.0731  0.5777 -0.1392
69039W        W11956   4.907   9.601   6.624  0.1409  0.2352 -0.2247
69040W        W11957   4.854   9.991   4.809  0.0249  0.0658  0.3267
69041W        W11958   4.533   7.266   6.172  0.1649  0.2142 -0.1937
69042W        W11959   6.272   7.755   4.122  0.3272 -0.2483  0.2151
69043W        W11960   5.211   7.721   5.051 -0.0165 -0.1454  0.1539
69044W        W11961   7.441   7.823   6.835  0.3584  0.3374 -0.1177
69045W        W11962   5.158   6.833   5.002  0.0531 -0.1838  0.0990
69046W        W11963   6.656   6.990   3.289  0.2977  0.1650 -0.1940
69047W        W11964   5.886  10.290   5.398  0.1520  0.0949 -0.1738
69048W        W11965   3.214   7.539   6.220  0.3230 -0.1931  0.0901
69049W        W11966   5.671   8.414   1.930  0.1646 -0.0420 -0.1466
69050W        W11967   6.466  12.110   7.058 -0.1899  0.0717  0.0557
69051W        W11968   5.989  10.117   3.188 -0.0553  0.1581 -0.0308
69052W        W11969   6.065   9.138   7.128 -0.1252 -0.0340  0.0521
69053W        W11970   5.006   5.712   3.858 -0.0523  0.2715 -0.1486
69054W        W11971   7.259   7.645   2.037  0.0035 -0.0237 -0.0122
69055W        W11972   6.341   8.544   5.819 -0.0064 -0.1319  0.3941
69056W        W11973   5.040   8.434   5.401 -0.0372  0.0291 -0.1011
69057W        W11974   5.529  12.272   5.663  0.1359  0.3181 -0.1984
69058W        W11975   7.469   7.352   7.014 -0.0311 -0.0347 -0.2374
69059W        W11976   7.541  10.719   3.812  0.1991  0.2225  0.0027
69060W        W11977   5.701   7.523   4.266  0.1031 -0.0898  0.2095
69061W        W11978   3.729  12.165   4.962 -0.2334 -0.0713  0.3562
69062W        W11979   4.326   8.635   4.348  0.1019 -0.0754  0.1930
69063W        W11980   6.100  11.580   5.500 -0.1162 -0.0122 -0.0479
69064W        W11981   4.056   8.507   6.300  0.1674  0.3007 -0.4099
69065W        W11982   6.431  10.851   5.249  0.0740 -0.0335  0.1415
69066W        W11983   7.925  11.999   4.076 -0.2955 -0.1305  0.1462
69067W        W11984   6.292   4.502   4.199 -0.2403  0.1911 -0.1072
69068W        W11985   4.669   9.164   7.816 -0.0046  0.2535 -0.1892
69069W        W11986   3.568   9.504   4.997  0.1607 -0.0138 -0.2735
69070W        W11987   6.924   8.459   4.282  0.2710 -0.1328  0.1110
69071W        W11988   6.430   6.690   6.612 -0.0739  0.0361 -0.0495
69072W        W11989   4.946   8.038   2.545 -0.0000  0.1363 -0.1017
69073W        W11990   7.514   8.131   7.462 -0.0106  0.4379 -0.0803
69074W        W11991   6.066   9.208   5.840 -0.0995  0.0653 -0.1645
69075W        W11992   7.442  10.774   5.848  0.3331 -0.0483  0.1038
69076W        W11993   4.666   8.806   3.908  0.1830  0.1026  0.2849
69077W        W11994   5.156  10.084   7.478  0.0307  0.0966 -0.1403
69078W        W11995   4.610   9.794   5.261 -0.0107 -0.2301  0.1047
69079W        W11996   4.007   9.279   4.903 -0.0376  0.0847 -0.3002
69080W        W11997   6.182  10.374   5.030  0.1616  0.0814  0.1622
69081W        W11998   4.872   8.236   3.708 -0.4354  0.0016 -0.1251
69082W        W11999   6.217   8.412   4.350  0.1002 -0.1320 -0.0566
69083W        W12000   6.105   5.892   4.217 -0.1749  0.1732  0.2836
69084W        W12001   7.727   9.413   5.275  0.0877 -0.0412 -0.1858
69085W        W12002   6.933   7.442   2.756 -0.0741 -0.0685 -0.0731
69086W        W12003   3.690   8.863   6.457 -0.1484 -0.2583 -0.2261
69087W        W12004   1.965   7.986   4.592  0.2866 -0.3542 -0.1126
69088W        W12005   4.933  10.948   2.117 -0.1031 -0.1511 -0.0499
69089W        W12006   3.115   8.627   3.822  0.0942  0.0760  0.1279
69090W        W12007   5.331   8.549   7.688 -0.0873  0.0747  0.0154
69091W        W12008   4.410   7.343   7.936 -0.0516 -0.2102  0.0485
69092W        W12009   4.568   8.176   5.512 -0.3295 -0.0482  0.0428
69093W        W12010   5.704   7.773   6.401 -0.2049 -0.3258  0.3014
69094W        W12011   7.067   9.513   4.016 -0.0245  0.2207 -0.0643
69095W        W12012   4.935   6.263   6.060 -0.1770 -0.0846  0.1997
69096W        W12013   3.924   7.263   5.584 -0.3157  0.1921  0.3973
69097W        W12014   7.092  10.091   5.318 -0.0631  0.3078 -0.2502
69098W        W12015   6.926  10.031   4.318  0.1667  0.3079 -0.0220
69099W        W12016   5.034   8.665   4.487 -0.0052 -0.3429 -0.0686
69100W        W12017   6.239   9.995   5.673  0.4233 -0.0760  0.1396
69101W        W12018   6.396  10.737   3.384  0.0687 -0.2519 -0.1477
69102W        W12019   5.879   7.303   6.611  0.2508 -0.2875  0.0928
69103W        W12020   6.312   8.537   7.774  0.0406 -0.1967  0.2151
69104W        W12021   3.591   6.683   3.709 -0.0614  0.1157  0.3336
69105W        W12022   7.062   6.380   4.365  0.0736 -0.0253 -0.0658
69106W        W12023   7.325   8.695   5.624  0.1257  0.1777 -0.1232
69107W        W12024   4.765   9.397   3.908 -0.1615  0.1728 -0.2368
69108W        W12025   5.462  10.568   5.497  0.0993 -0.0605 -0.0612
69109W        W12026   5.787   9.341   6.317 -0.1527  0.0832  0.2028
69110W        W12027   4.902   7.334   6.519  0.2397  0.1012  0.2693
69111W        W12028   6.485  11.115   4.844  0.1927  0.2545 -0.0146
69112W        W12029   4.975   8.287   5.867  0.1007  0.0035  0.1470
69113W        W12030   7.690   8.645   3.830  0.0547  0.0206 -0.2004
69114W        W12031   7.924   7.387   4.720  0.3079 -0.3213  0.1471
69115W        W12032   6.268   9.101   3.367 -0.1726  0.0421  0.0332
69116W        W12033   2.692   9.228   8.907 -0.1477 -0.0328 -0.0527
69117W        W12034   4.677   9.145   6.644  0.1031  0.0873 -0.1033
69118W        W12035   7.064  10.208   5.846 -0.0700  0.2693  0.0083
69119W        W12036   3.770   6.973   6.807  0.2526  0.0545  0.0654
69120W        W12037   5.062   6.369   5.262  0.0702 -0.0677  0.0660
69121W        W12038   7.986   9.462   4.566 -0.0604  0.0337 -0.1390
69122W        W12039   3.336   9.213   6.346 -0.2920  0.0611 -0.1980
69123W        W12040   6.037   7.704   3.382 -0.2238 -0.1720  0.1108
69124W        W12041   5.346   6.406   4.820 -0.1523 -0.0713  0.2148
69125W        W12042   5.290   8.356   6.314  0.1429  0.2877  0.1553
69126W        W12043   6.531   7.147   5.834  0.2430 -0.0989 -0.0509
69127W        W12044   5.234   7.257   4.784  0.0703 -0.2564 -0.2228
69128W        W12045   7.326   7.276   3.977  0.2817 -0.0667  0.2568
69129W        W12046   7.672  11.325   5.207 -0.0618  0.1677 -0.0678
69130W        W12047   8.397  11.205   6.543  0.2668 -0.0690  0.0560
69131W        W12048   5.707  10.392   6.488  0.1051  0.1339 -0.0123
69132W        W12049   7.192   9.654   5.149  0.4437 -0.0175 -0.2138
69133W        W12050   5.783   6.495   6.177 -0.4923 -0.2153 -0.0541
69134W        W12051   5.516   8.457   5.741  0.1114  0.0322  0.0396
69135W        W12052   5.848   6.650   4.355  0.1642 -0.1623 -0.0143
69136W        W12053   7.490   8.967   4.664 -0.0952  0.0050  0.2658
69137W        W12054   2.481   8.346   5.845 -0.1689 -0.0845  0.1970
69138W        W12055   5.846   6.758   3.753 -0.1662  0.0541 -0.3655
69139W        W12056   4.511   9.872   7.575 -0.0306 -0.0835  0.0546
69140W        W12057   4.023   7.769   6.910 -0.1060 -0.3697 -0.1213
69141W        W12058   1.814   8.682   9.541 -0.0627  0.1888  0.5081
69142W        W12059   4.346   7.821   8.475  0.3326  0.0868  0.0749
69143W        W12060   4.541   8.611   8.041 -0.2115 -0.1545  0.5648
69144W        W12061   5.879   7.864  10.023 -0.0592 -0.0429 -0.0416
69145W        W12062   3.728   9.041   9.959  0.2210  0.3015  0.0819
69146W        W12063   7.313   9.258   7.889  0.0025  0.1230 -0.0085
69147W        W12064   8.221  13.743   9.252 -0.1709  0.2322  0.1139
69148W        W12065   6.446  10.390   9.566 -0.1469 -0.1129  0.0648
69149W        W12066   5.007   9.189   5.881  0.2047 -0.0882 -0.0238
69150W        W12067   7.237   8.024   8.257 -0.0233 -0.1880 -0.0515
69151W        W12068   4.572   7.428   9.168 -0.0129  0.2375 -0.0159
69152W        W12069   6.511   6.471  10.358  0.0187  0.0936 -0.0371
69153W        W12070   4.728  10.742   8.889  0.0976 -0.0505 -0.3952
69154W        W12071   5.645   9.340   7.396 -0.0350  0.1932 -0.4753
69155W        W12072   4.104   8.509   9.703  0.1012  0.2655 -0.0401
69156W        W12073   6.291   8.093   9.696  0.5223 -0.1393 -0.0514
69157W        W12074   7.481   8.910   7.066  0.3548 -0.1408  0.1307
69158W        W12075   7.589   4.621   9.005  0.0434 -0.1329 -0.0890
69159W        W12076   5.235   9.583   8.456  0.0466 -0.1699 -0.0248
69160W        W12077   3.192   9.571   7.534  0.0106  0.1804  0.2810
69161W        W12078   4.564   8.860   8.511  0.0150 -0.1636 -0.1677
69162W        W12079   6.944   6.356  10.077 -0.2611  0.2837 -0.1078
69163W        W12080   6.901   5.661   9.708  0.1703  0.0117  0.0635
69164W        W12081   6.809   8.446   8.437  0.1149 -0.0907  0.1267
69165W        W12082   4.691  10.828   8.022  0.0265  0.0025 -0.2887
69166W        W12083   5.635   8.776   6.507 -0.1014  0.1462  0.0473
69167W        W12084   5.341   9.673   9.016  0.2146  0.0173  0.0464
69168W        W12085   4.343  11.658   7.988 -0.1208 -0.0197 -0.0587
69169W        W12086   6.513   9.836   6.450 -0.3359 -0.3658 -0.1382
69170W        W12087   7.684   9.873   7.748 -0.4337 -0.0341 -0.1778
69171W        W12088   5.630  10.299   7.332  0.2244  0.1884 -0.1034
69172W        W12089   6.897   3.623   9.138 -0.0513  0.2681 -0.0436
69173W        W12090   4.190   7.150   9.452 -0.0762 -0.1717 -0.0260
69174W        W12091   6.188   8.600   7.328  0.4110 -0.5952  0.0697
69175W        W12092   5.561   7.485   9.502 -0.0077 -0.2970  0.2254
69176W        W12093   5.425  10.444   8.218 -0.2361 -0.1688  0.2032
69177W        W12094   3.789  10.768   6.918  0.0393 -0.1842 -0.0930
69178W        W12095   4.352   9.332   9.045 -0.0741  0.0484  0.1537
69179W        W12096   3.421   7.844   8.685 -0.1824 -0.0347  0.1610
69180W        W12097   5.309   6.809   9.030 -0.0581  0.0509  0.3654
69181W        W12098   6.982   7.992   9.595 -0.0499 -0.0466 -0.3603
69182W        W12099   6.597   9.740   9.724  0.0795 -0.1682  0.0581
69183W        W12100   4.764   7.566   8.157 -0.1187 -0.2091  0.1913
69184W        W12101   5.726   7.162   8.149  0.2098 -0.1605  0.0480
69185W        W12102   4.927   8.836   9.936  0.0582 -0.0150  0.2950
69186W        W12103   5.675   9.346   8.684 -0.2917 -0.0178  0.3399
69187W        W12104   3.913   9.410   9.408 -0.0724  0.1095 -0.4090
69188W        W12105   7.427   9.815   6.749  0.3410  0.1563  0.1543
69189W        W12106   7.560   9.942   8.239 -0.1447 -0.2075  0.1741
69190W        W12107   5.746   8.316   7.260  0.3074 -0.3194 -0.1123
69191W        W12108   3.904   9.449   8.046  0.0778  0.0774  0.0674
69192W        W12109   5.698   6.980   6.109 -0.2242  0.0780  0.0255
69193W        W12110   4.561   7.396   9.644 -0.2613 -0.1260  0.1455
69194W        W12111   4.972  11.396   9.240 -0.0177  0.1774  0.2670
69195W        W12112   4.398  10.966   7.369 -0.0355 -0.2028 -0.3637
69196W        W12113   6.281   9.455   5.440 -0.0467 -0.0027 -0.0038
69197W        W12114   6.332   6.948  10.002 -0.1058 -0.1776  0.1699
69198W        W12115   4.398  10.209   8.635  0.0162  0.1934  0.0390
69199W        W12116   4.883   8.755   7.036 -0.0901  0.0554 -0.2424
69200W        W12117   5.948   8.938   7.583  0.0054  0.2156 -0.1261
69201W        W12118   5.988   9.006   8.990 -0.1558  0.0958  0.1263
69202W        W12119   6.451   8.309   6.847  0.5554 -0.2138  0.0169
69203W        W12120   5.075   9.973   6.954  0.1547 -0.4245 -0.0143
69204W        W12121   4.290  10.561   7.030  0.1865  0.3383 -0.0488
69205W        W12122   4.436  12.193   9.377  0.0500 -0.0574 -0.0141
69206W        W12123   4.961   9.616   7.340  0.2502  0.0159 -0.1168
69207W        W12124   6.159   4.762   8.518 -0.1802  0.3676 -0.3670
69208W        W12125   4.246  11.143   8.178  0.3562 -0.3051  0.0618
69209W        W12126   6.199   7.099   7.955  0.1130  0.1962  0.1425
69210W        W12127   6.969   5.096   9.467  0.0253  0.0572  0.1093
69211W        W12128   4.988   9.300   6.989  0.2551  0.0104  0.0738
69212W        W12129   6.966  11.504   8.527 -0.0963  0.0848  0.0732
69213W        W12130   6.551   7.803   7.092 -0.1910 -0.1049  0.4037
69214W        W12131   6.728   9.240   6.776  0.0897  0.0678 -0.0484
69215W        W12132   3.237  10.168   8.821 -0.2688  0.2714 -0.0366
69216W        W12133   4.747   9.332   8.292 -0.0418 -0.3513 -0.1384
69217W        W12134   2.631   6.694  10.247  0.4287 -0.0451  0.1056
69218W        W12135   4.682   8.823   8.969  0.0748 -0.0530  0.1702
69219W        W12136   5.034   7.367   9.474 -0.2036  0.1941 -0.0916
69220W        W12137   2.962   8.931   9.240 -0.1171  0.1156 -0.1916
69221W        W12138   5.434   9.571   6.731  0.2616 -0.0459  0.2432
69222W        W12139   6.134  11.057   5.613  0.0862 -0.0898 -0.1550
69223W        W12140  10.275  12.448   9.345 -0.1419  0.1830 -0.1817
69224W        W12141   6.256  11.564   8.214  0.2894  0.1978 -0.0716
69225W        W12142   5.146   6.382   8.986 -0.1767 -0.0758 -0.2683
69226W        W12143   5.379   7.480   7.890 -0.0687 -0.0516 -0.0356
69227W        W12144   5.318  11.002   9.234  0.4542 -0.1214 -0.2771
69228W        W12145   5.960   8.219   8.804 -0.2591 -0.1723  0.1907
69229W        W12146   5.446   5.327   6.882  0.1993 -0.0924  0.1134
69230W        W12147   5.374   9.019   8.402 -0.0941 -0.0866  0.1319
69231W        W12148   6.203   9.275   7.972 -0.0022 -0.2699 -0.0465
69232W        W12149   6.110   9.695   8.415  0.0649  0.3193 -0.0181
69233W        W12150   9.078   7.168   9.017  0.3298 -0.2015  0.3826
69234W        W12151   3.608   7.770   9.234 -0.0836 -0.5057  0.0495
69235W        W12152   7.387   8.862   5.140  0.0888 -0.0280  0.0743
69236W        W12153   2.590  10.014   7.652 -0.1840 -0.0635  0.0588
69237W        W12154   4.196   8.302   8.641 -0.0268 -0.1966  0.2317
69238W        W12155   4.561   9.722   7.019  0.5063 -0.0791  0.2282
69239W        W12156   5.422   7.795   8.686  0.3726  0.3834  0.0852
69240W        W12157   5.255   6.544   7.571  0.1511  0.0032  0.0586
69241W        W12158   6.307   7.161   9.522  0.0559  0.0524  0.0566
69242W        W12159   7.335   7.988   9.185 -0.2658 -0.0829  0.2273
69243W        W12160   7.812   9.003   8.194  0.0285 -0.1414  0.2468
69244W        W12161   6.526   7.340   8.883  0.0305 -0.2542 -0.1696
69245W        W12162   6.857   6.552   6.937 -0.1223  0.2033 -0.1558
69246W        W12163   5.907   8.611   9.322 -0.2069  0.0882  0.0195
69247W        W12164   5.659  10.583   9.268 -0.0971 -0.2208 -0.1990
69248W        W12165   4.613   6.941   6.991  0.1918 -0.3004 -0.1314
69249W        W12166   7.694  10.955   7.018 -0.1723 -0.0326 -0.1009
69250W        W12167   6.926  10.262   7.768 -0.0301  0.2629  0.1176
69251W        W12168   7.522   8.441   8.300 -0.2001 -0.1856  0.1077
69252W        W12169   7.736   5.565   9.371  0.0703  0.3330  0.1113
69253W        W12170   4.984   8.358   8.026 -0.2131  0.0594 -0.1186
69254W        W12171   6.277   6.673   9.402 -0.0398  0.4277  0.5481
69255W        W12172   4.262  11.579   6.693  0.0996 -0.2675 -0.0640
69256W        W12173   7.833   7.864   9.409  0.0305 -0.1200  0.2172
69257W        W12174   6.384   7.445   9.958 -0.2787  0.0021  0.0431
69258W        W12175   5.439   6.122   9.786  0.0151  0.4740  0.2923
69259W        W12176   6.269  12.472   9.416  0.1095 -0.0276  0.0558
69260W        W12177   5.889   9.544   6.910 -0.0516 -0.0459 -0.2527
69261W        W12178  10.917   6.960  11.934  0.2488  0.0391 -0.0920
69262W        W12179   3.904  13.368   8.864  0.3754 -0.1061  0.0221
69263W        W12180   5.538   7.401   8.996 -0.1563  0.1411 -0.0547
69264W        W12181   4.012   7.589   7.466 -0.1580  0.0833  0.0710
69265W        W12182   6.078  11.034   8.567  0.2700 -0.0549 -0.1338
69266W        W12183   5.570   9.895   6.302 -0.3219  0.2335 -0.0698
69267W        W12184   6.525   5.513   9.934 -0.1321  0.0516  0.0301
69268W        W12185   6.012  10.362   7.613  0.1967 -0.4307  0.0185
69269W        W12186   4.926   8.243   7.288  0.2132 -0.1100  0.1203
69270W        W12187   6.835   9.200   7.850  0.0931 -0.0899  0.0911
69271W        W12188   6.412   8.753   8.609  0.0526  0.2228 -0.1799
69272W        W12189   8.678   8.219   7.205  0.2882 -0.0975  0.1804
69273W        W12190   4.714  11.048   8.479 -0.1124 -0.0493 -0.0944
69274W        W12191   5.156   9.260   6.407 -0.2843 -0.3577 -0.1392
69275W        W12192   4.796  10.219   8.914 -0.2317 -0.1131 -0.0228
69276W        W12193   6.330   6.876   8.979  0.0717 -0.0175  0.3878
69277W        W12194   7.822   8.628   8.650 -0.1607 -0.0372  0.0495
69278W        W12195   4.898  10.124   9.864  0.2622 -0.2557  0.1668
69279W        W12196   7.327   7.077   9.356  0.3431  0.0346  0.2889
69280W        W12197   3.323   8.688   8.296  0.2171 -0.3277 -0.2281
69281W        W12198   5.764  10.369   5.997  0.1637  0.0648  0.0994
69282W        W12199   3.204   7.288   8.428 -0.1938  0.0035  0.0466
69283W        W12200   5.125   8.747   9.301 -0.0434 -0.2476  0.3066
69284W        W12201   3.751   7.319  10.197 -0.1051 -0.1873 -0.0135
69285W        W12202   6.065   9.920   7.304 -0.0294 -0.0815  0.2897
69286W        W12203   4.298  10.522   8.982  0.1408  0.1321  0.1375
69287W        W12204   4.063   8.213   7.553  0.1226  0.0222  0.0609
69288W        W12205   4.561   8.692   9.533 -0.0507  0.3028 -0.0287
69289W        W12206   5.575   8.880   9.550 -0.0425 -0.2528 -0.1797
69290W        W12207   4.178   7.360   8.791 -0.0339  0.0157 -0.1623
69291W        W12208   2.178   5.501   9.398 -0.1626 -0.0179  0.0144
69292W        W12209   6.094   5.146   9.714  0.1383  0.1628  0.1281
69293W        W12210   5.798  10.174   8.029 -0.0671 -0.2410  0.0813
69294W        W12211   4.792  11.712   8.794 -0.2590 -0.3134 -0.2196
69295W        W12212   8.073   6.966   8.909  0.0638 -0.0525  0.0983
69296W        W12213   9.277  13.120   9.562  0.1354 -0.1262  0.2425
69297W        W12214   5.565   8.564   5.208  0.3773 -0.2883 -0.0675
69298W        W12215   7.301  10.612   9.874 -0.1285  0.0127  0.0076
69299W        W12216   4.998   8.890   8.073  0.0750 -0.0125 -0.0979
69300W        W12217   9.719   6.848   6.449 -0.0374  0.1415 -0.1709
69301W        W12218   5.691   9.405   9.252  0.1972 -0.1682 -0.0722
69302W        W12219   2.994  12.457   6.924 -0.2368  0.1053  0.0210
69303W        W12220   2.770  10.762   9.728 -0.0571  0.1996  0.0072
69304W        W12221   7.009   8.049   7.347 -0.1498 -0.1275 -0.2371
69305W        W12222   7.981   8.462   6.705 -0.2070 -0.0680  0.1384
69306W        W12223   6.809   8.914   9.638 -0.1393  0.0799 -0.1233
69307W        W12224   7.398   8.204   9.723  0.0387 -0.0815 -0.1411
69308W        W12225   6.590   7.706   9.486 -0.2869 -0.3438  0.0283
69309W        W12226   5.612  11.294   7.912  0.4356  0.1171  0.0409
69310W        W12227   6.064   9.202   8.443  0.0426 -0.0828 -0.2378
69311W        W12228   4.903   5.793   6.223 -0.1344 -0.0524  0.1291
69312W        W12229   5.046   8.736   8.644  0.0501 -0.2314 -0.1044
69313W        W12230   6.960   8.946   9.208 -0.0302 -0.0602  0.1815
69314W        W12231   6.019   9.725   7.820  0.0351 -0.0389  0.2100
69315W        W12232   8.017   5.944   9.169 -0.1353  0.1315 -0.0417
69316W        W12233   3.493   6.510   9.778 -0.1667  0.0951  0.2003
69317W        W12234   7.094   6.118   9.171  0.1211  0.4510  0.1396
69318W        W12235   8.262   8.868   8.370 -0.1189 -0.2926 -0.0684
69319W        W12236   4.455  10.150   8.093 -0.0083  0.1564 -0.1055
69320W        W12237   4.956   8.263   9.120 -0.0025  0.1850 -0.3459
69321W        W12238   5.633   7.030   9.296 -0.2391 -0.0526 -0.2047
69322W        W12239   6.508  10.453   8.447 -0.1885 -0.1637  0.0922
69323W        W12240   6.459   8.913   6.166  0.0885 -0.2433 -0.1225
69324W        W12241   7.268   9.701  10.082 -0.1678 -0.1039  0.0941
69325W        W12242   7.593   4.885   8.468 -0.0347  0.0519  0.1075
69326W        W12243   6.091   7.518   7.015 -0.2875  0.3775  0.0965
69327W        W12244   4.894   7.766   7.359  0.0247  0.1351  0.1154
69328W        W12245   4.695   7.890   6.819  0.1518  0.0469 -0.2897
69329W        W12246   5.538   9.040   7.909 -0.0514  0.0391 -0.0251
69330W        W12247   6.428  11.045   7.659  0.0187  0.2162 -0.2827
69331W        W12248   6.054   7.565   9.584  0.0127 -0.2894  0.0350
69332W        W12249   4.470   7.465   7.366  0.1443 -0.0209  0.3275
69333W        W12250   3.207   7.939   7.749 -0.0258  0.2365 -0.2323
69334W        W12251   5.148   8.839   6.660 -0.2511  0.2546  0.3368
69335W        W12252   7.554  10.085   8.767  0.1444  0.1021  0.0384
69336W        W12253   5.332   7.397   6.859  0.0401 -0.0127  0.2328
69337W        W12254   3.352  10.927   6.679 -0.3297 -0.3591 -0.0605
69338W        W12255   7.853   6.786   9.343 -0.2534  0.0965  0.0193
69339W        W12256   5.541  13.362   8.723 -0.0973 -0.0081  0.0784
69340W        W12257   6.371  11.712   7.730 -0.2344 -0.0777  0.2984
69341W        W12258   7.145   9.053  10.064 -0.1531  0.1833  0.3743
69342W        W12259   4.467   6.465   9.811  0.1116 -0.0890  0.1535
69343W        W12260   5.586   9.894   7.677  0.2579 -0.1872  0.0429
69344W        W12261   6.473   8.192   8.741 -0.1776 -0.1630 -0.1750
69345W        W12262   6.673   4.152  10.025 -0.1314 -0.2013  0.1949
69346W        W12263   4.670   9.173   9.411  0.0830 -0.0922  0.0712
69347W        W12264   2.073   8.921   9.053 -0.1069  0.1488 -0.1166
69348W        W12265   4.389   9.619   9.480  0.0895 -0.0923  0.0525
69349W        W12266   5.176  10.455   7.144  0.0330 -0.1688  0.2017
69350W        W12267   4.708   8.300   8.560 -0.2400 -0.0832 -0.1346
69351W        W12268   3.217  10.863   7.182 -0.0171 -0.0924 -0.1879
69352W        W12269   7.810  10.274   7.546  0.2090 -0.1009 -0.3793
69353W        W12270   6.872   8.967   8.534  0.1438  0.0546  0.0259
69354W        W12271   7.365  10.503   9.091 -0.1522 -0.0255 -0.1850
69355W        W12272   4.237   9.030   8.102  0.3348 -0.0008  0.0655
69356W        W12273   4.932  10.758   7.520 -0.4614  0.0834  0.0188
69357W        W12274   5.647  10.655   6.926 -0.1277  0.1630  0.1826
69358W        W12275   5.231   7.831   9.753 -0.2236 -0.0482 -0.2289
69359W        W12276   5.380  11.808   9.199 -0.0690 -0.0874 -0.1715
69360W        W12277   6.739   7.014   6.833  0.0056 -0.0561 -0.1861
69361W        W12278   7.883   9.122   8.752 -0.3320  0.0052  0.0653
69362W        W12279   6.347   6.429   9.831  0.0363  0.0261  0.4447
69363W        W12280   6.533   3.396  10.039 -0.2313  0.1967 -0.1289
69364W        W12281   6.319   7.832   8.991  0.1374  0.0632  0.1729
69365W        W12282   7.366   9.568   7.528 -0.0197 -0.0278  0.0787
69366W        W12283   3.029   7.575   8.027 -0.1457 -0.0590 -0.3882
69367W        W12284  10.001   7.433  12.245  0.0755  0.1684  0.0527
69368W        W12285   7.412   9.278   9.520 -0.2213 -0.0521 -0.0098
69369W        W12286   6.118   8.927   6.621 -0.0323 -0.3390 -0.1850
69370W        W12287   6.763   6.653   9.714 -0.1251  0.0374  0.1574
69371W        W12288   7.379  10.574   8.621 -0.2973 -0.1391 -0.0482
69372W        W12289   7.319   9.689   8.600 -0.0176  0.0337  0.0489
69373W        W12290   8.980  11.536   9.390 -0.1874 -0.0839 -0.1085
69374W        W12291   2.761   7.522   8.436  0.0291 -0.0468 -0.1728
69375W        W12292   9.224   8.921   9.444  0.2340 -0.0206  0.0240
69376W        W12293   4.901   6.866   9.334 -0.0070 -0.1074 -0.0120
69377W        W12294   3.147   8.731   9.673  0.2199  0.1041  0.1741
69378W        W12295   5.411   7.871  10.225  0.1447 -0.0731  0.0452
69379W        W12296   6.402   8.849   9.364  0.5260  0.0331  0.3318
69380W        W12297   4.138   7.636   9.317 -0.1293 -0.0286 -0.3273
69381W        W12298   4.913   7.339   7.077 -0.1127 -0.1538 -0.0563
69382W        W12299   3.710   9.597   7.094 -0.2079  0.1861 -0.3186
69383W        W12300   3.646   5.534   9.851  0.0082 -0.0447 -0.0380
69384W        W12301   4.788   7.863   9.502 -0.3664 -0.1164 -0.1626
69385W        W12302   4.807   9.732   7.930  0.1101 -0.0153  0.0692
69386W        W12303   6.568   8.794   8.112 -0.1248 -0.2602 -0.4557
69387W        W12304   3.033   5.887   9.017  0.0527  0.3257  0.2581
69388W        W12305   6.480   8.485   5.268  0.1350 -0.0976 -0.1082
69389W        W12306   7.232   6.679   9.832 -0.1295 -0.1152 -0.2479
69390W        W12307   5.977   8.491   6.863  0.3762 -0.2270  0.0265
69391W        W12308   6.278   8.285   9.202  0.0144 -0.0274  0.0416
69392W        W12309   7.004   9.328   8.909 -0.2190 -0.0792  0.2317
69393W        W12310   3.120   6.113   9.661  0.2503 -0.1039 -0.0226
69394W        W12311   6.448  12.477   8.410  0.0632 -0.0325 -0.0538
69395W        W12312   7.553  11.114   9.100 -0.2152  0.1609  0.1889
69396W        W12313   6.089   6.536   8.647 -0.0603 -0.1352 -0.1900
69397W        W12314   4.375   6.395   8.813  0.2803  0.2574 -0.2839
69398W        W12315   3.828  11.326   7.974 -0.0663  0.1188  0.0804
69399W        W12316   6.906   7.090   8.481  0.3208 -0.2994  0.0905
69400W        W12317   7.004   9.127   7.413 -0.3180  0.2153  0.0592
69401W        W12318   6.284  10.013   8.127 -0.0247 -0.1613 -0.0792
69402W        W12319   4.377   9.513   7.988 -0.2196 -0.1851  0.0648
69403W        W12320   5.218   9.992   8.058  0.1753 -0.1256  0.2239
69404W        W12321   5.611   9.110   6.855  0.0973  0.1528 -0.0845
69405W        W12322   6.506   8.963   7.578  0.1813  0.2296  0.1021
69406W        W12323   4.578   9.688   8.729 -0.3414  0.0946 -0.1188
69407W        W12324   6.797   8.016   9.145  0.0100 -0.3431 -0.1000
69408W        W12325   5.770   5.343  10.485 -0.0547  0.2056  0.3361
69409W        W12326   9.468   6.717   9.346  0.0278 -0.2781  0.1492
69410W        W12327   5.875   6.623   9.115 -0.1598 -0.0753 -0.0858
69411W        W12328   2.174   7.104   9.686 -0.0851 -0.1306  0.3857
69412W        W12329   2.922   8.812   8.688 -0.3013 -0.2177 -0.2605
69413W        W12330   6.563   9.732   5.920 -0.2479 -0.3878 -0.0172
69414W        W12331   4.085   9.707   8.868  0.0545  0.0562 -0.0378
69415W        W12332   6.445   9.930   9.317  0.0891 -0.0523 -0.0358
69416W        W12333   5.374   7.402   6.356 -0.0479  0.1232 -0.1827
69417W        W12334   7.238  10.814   8.050 -0.1698 -0.1394  0.1276
69418W        W12335   6.653   7.896  10.004 -0.1613  0.1915 -0.3024
69419W        W12336   3.259   8.447   8.709 -0.0219  0.0434 -0.1661
69420W        W12337   5.216   9.035   7.427 -0.0576  0.0057  0.1764
69421W        W12338   8.428  10.511   7.131 -0.3340 -0.1456  0.0150
69422W        W12339   5.261   6.989   7.353  0.2384 -0.0182  0.2551
69423W        W12340   3.863  11.328   8.546  0.1706  0.2288 -0.4009
69424W        W12341   3.288   4.464   6.778  0.1235 -0.0656  0.3548
69425W        W12342   5.424   8.933   8.942 -0.1815 -0.1833  0.1417
69426W        W12343   7.277   8.684   8.662  0.1121 -0.2232 -0.0242
69427W        W12344   8.173  11.049   6.966  0.0340  0.3167 -0.2184
69428W        W12345   2.517   6.202   9.605 -0.0572 -0.1274 -0.0274
69429W        W12346   6.436   7.500   6.654  0.0584  0.0092  0.0300
69430W        W12347   6.241   8.124   7.362 -0.1924 -0.2434  0.1129
69431W        W12348   8.618   7.597   8.427  0.0012  0.2251 -0.1841
69432W        W12349   6.231   7.651   7.511 -0.2740 -0.1833 -0.1925
69433W        W12350   8.095   9.650   9.642 -0.1188  0.0041  0.1363
69434W        W12351   3.993   7.456   8.220 -0.3881  0.0559  0.2217
69435W        W12352   7.321   7.760   8.761 -0.0926  0.1926  0.1447
69436W        W12353   5.477   8.403   8.902  0.0416  0.3485 -0.0479
69437W        W12354   2.418   8.829   9.519  0.0349  0.3162 -0.1759
69438W        W12355   5.543   6.356   6.563  0.0540  0.0591 -0.1151
69439W        W12356   6.298  11.097   6.419 -0.2006 -0.1738  0.3463
69440W        W12357   5.339   8.129   7.454 -0.0253 -0.0567 -0.3745
69441W        W12358   7.083   8.186   8.790 -0.2825 -0.1483  0.3008
69442W        W12359   5.239  11.004   7.127  0.3004  0.1028 -0.0709
69443W        W12360   5.030   9.231   8.752 -0.0495  0.0393 -0.1737
69444W        W12361   7.684   9.156  10.044 -0.0982 -0.2907  0.1397
69445W        W12362   6.369   4.765  10.658 -0.1603  0.0617 -0.2847
69446W        W12363   4.941   8.301   9.656 -0.1304 -0.3085 -0.5036
69447W        W12364   6.357   8.352   8.269 -0.1760 -0.1639  0.0203
69448W        W12365   7.455   9.012   9.069  0.3709  0.0798  0.0797
69449W        W12366   4.616   8.046   8.094 -0.1590 -0.3573 -0.4655
69450W        W12367   4.909   7.406   7.689  0.0750 -0.2204 -0.2797
69451W        W12368   5.158  10.556   9.011 -0.0316  0.2196  0.1508
69452W        W12369   2.445   9.936   9.315 -0.0782 -0.2892 -0.2519
69453W        W12370   3.928  13.235   3.459  0.1581  0.3735  0.0554
69454W        W12371   4.171  12.635   1.957  0.0419 -0.3940  0.0082
69455W        W12372   6.828   9.864  31.636  0.1884 -0.0032 -0.2579
69456W        W12373   6.164  13.131   0.458 -0.0214  0.0516 -0.2498
69457W        W12374   5.825  11.495   1.289  0.0321 -0.1972  0.4143
69458W        W12375   6.536  12.758   2.515 -0.2714  0.2018  0.2319
69459W        W12376   4.114  10.400   1.326 -0.2026  0.1029 -0.1915
69460W        W12377   5.521  14.801   1.882 -0.1691  0.3466  0.0753
69461W        W12378   5.665  13.863   1.510  0.1648 -0.1013 -0.3111
69462W        W12379   5.286  12.424  30.620 -0.0212  0.1589  0.0255
69463W        W12380   6.428  10.354   3.016  0.0373  0.3353 -0.1809
69464W        W12381   5.791  14.629   1.014  0.1211  0.2023  0.0618
69465W        W12382   5.398  11.243   1.284 -0.2243 -0.0067 -0.0743
69466W        W12383   3.896  10.786   2.090 -0.1134  0.0825  0.1330
69467W        W12384   5.628  14.486   3.096 -0.0741 -0.2576  0.1095
69468W        W12385   5.499  13.398  31.029 -0.2206 -0.0338 -0.1865
69469W        W12386   3.753  12.895   2.248 -0.0553 -0.1816 -0.1952
69470W        W12387   6.061  12.062   1.896  0.0682 -0.0625  0.2897
69471W        W12388   6.611  15.130   1.203 -0.1808  0.0467 -0.2224
69472W        W12389   4.645  11.654   2.704  0.0975 -0.2464 -0.1913
69473W        W12390   6.564  12.792   1.243  0.3517  0.0617  0.0366
69474W        W12391   4.445  14.270   1.474 -0.1257 -0.1370 -0.2785
69475W        W12392   7.375  11.829   0.003  0.0564 -0.0218  0.0895
69476W        W12393   3.767  12.582   1.647 -0.1491 -0.0182 -0.0191
69477W        W12394   4.971  13.978   1.931  0.0091  0.0508 -0.1004
69478W        W12395   9.000  11.213   1.587  0.4096 -0.0982  0.0858
69479W        W12396   6.979  14.712   1.935 -0.2940  0.0430 -0.0810
69480W        W12397   6.006  13.690   3.197  0.0475 -0.0364  0.1125
69481W        W12398   6.890  14.294   0.461 -0.1042 -0.1005 -0.0434
69482W        W12399   4.667  14.622   3.057 -0.2157  0.1383 -0.0289
69483W        W12400   2.845  12.538   1.947 -0.1736 -0.3363 -0.1727
69484W        W12401   4.140  13.548   1.962  0.1882 -0.3519 -0.0425
69485W        W12402   5.832  15.280   0.180 -0.0354  0.1199  0.1689
69486W        W12403   9.341  13.580   0.511 -0.0800  0.2620  0.1565
69487W        W12404   7.032  11.640   3.319  0.2629  0.0381  0.3176
69488W        W12405   3.787  15.417   3.465  0.0941  0.0762 -0.0725
69489W        W12406   4.674  13.480   0.694 -0.0524 -0.1319  0.2556
69490W        W12407   6.414  14.096   3.410  0.1183 -0.0096  0.7114
69491W        W12408   4.921  15.241   4.860 -0.0866 -0.2059  0.0064
69492W        W12409   4.633  12.649   1.682  0.2596 -0.3476  0.1311
69493W        W12410   6.015  12.376  31.883  0.1696 -0.0215 -0.0324
69494W        W12411   3.966  14.022   0.001  0.2883 -0.3576  0.1802
69495W        W12412   4.452  15.869   1.297 -0.3274  0.1119  0.1065
69496W        W12413   2.806  15.245   3.213  0.0235 -0.0598 -0.4371
69497W        W12414   4.173  13.753   3.275 -0.1484  0.2043  0.1158
69498W        W12415   7.517  12.670   2.562  0.0561 -0.2363 -0.0063
69499W        W12416   4.125  12.414  30.757 -0.3174 -0.3653 -0.0575
69500W        W12417   7.316  11.521  31.480  0.2507 -0.2142  0.0860
69501W        W12418   7.025   9.650  30.463  0.0294 -0.1553 -0.0022
69502W        W12419   4.750  10.845   0.844 -0.0655 -0.1299 -0.1250
69503W        W12420   4.494  12.449   2.768  0.3729  0.0391  0.3159
69504W        W12421   4.621  15.306   0.418 -0.5880  0.3475  0.2076
69505W        W12422   6.406  12.295   2.700  0.1975  0.1027 -0.0684
69506W        W12423   6.040  13.766   2.720 -0.1227 -0.0415  0.0181
69507W        W12424   4.445  11.858   2.185 -0.1262  0.1822 -0.3713
69508W        W12425   7.758  15.061   2.977  0.2092 -0.2167  0.2005
69509W        W12426   6.896  14.772   0.260 -0.2471 -0.1201 -0.1588
69510W        W12427   3.293  13.135   2.378 -0.0225 -0.2404  0.5423
69511W        W12428   7.449  14.676   0.413  0.2945 -0.0370 -0.2024
69512W        W12429  10.433  11.713   1.098 -0.1730 -0.0274 -0.0454
69513W        W12430   4.631  13.982  30.373 -0.1212 -0.3251 -0.0957
69514W        W12431   6.504  13.516   0.506  0.1395  0.2363  0.0980
69515W        W12432   4.867  13.929   3.811 -0.0077  0.0266  0.1572
69516W        W12433   4.401  13.102   2.108  0.0347 -0.0121 -0.0212
69517W        W12434   4.993  13.093  30.959 -0.2480 -0.0182 -0.2002
69518W        W12435   6.481  13.587   2.504  0.1314 -0.1594  0.0787
69519W        W12436   2.009  14.599   5.329 -0.2220 -0.2765  0.1081
69520W        W12437   6.948  11.889   0.892 -0.0788 -0.1844 -0.0009
69521W        W12438   6.553  12.180   4.898 -0.3058 -0.3145 -0.0175
69522W        W12439   6.182  13.152   2.553  0.2123  0.0352 -0.0306
69523W        W12440   6.955  14.736  31.540 -0.0510  0.0401 -0.1408
69524W        W12441   5.808  10.342   2.265 -0.3107  0.0756  0.0005
69525W        W12442   6.958  10.737   3.425 -0.2637 -0.1129 -0.1444
69526W        W12443   7.745  13.124  31.652 -0.1271  0.0554 -0.2377
69527W        W12444   6.127  11.899   1.354  0.1415 -0.2989  0.1614
69528W        W12445   6.360  15.264   2.655 -0.0435 -0.1883  0.0615
69529W        W12446   7.369  13.177   1.030  0.1082 -0.1389  0.1580
69530W        W12447   2.836  14.325   2.752  0.1181 -0.2256 -0.3392
69531W        W12448   3.738  13.488   3.097  0.0950  0.0828 -0.1021
69532W        W12449   4.900  13.649   2.405 -0.1208 -0.1545  0.0777
69533W        W12450   1.765  15.613  30.310 -0.0756 -0.0684 -0.2744
69534W        W12451   5.297  13.362   2.323 -0.0607 -0.2644 -0.1836
69535W        W12452   4.235  13.250   0.542  0.0773 -0.2117 -0.2893
69536W        W12453   5.267  11.032   1.740 -0.1921  0.3221  0.2265
69537W        W12454   5.774  14.072   3.397  0.0878  0.3898  0.0897
69538W        W12455   7.092  12.055   1.418  0.0804  0.0530 -0.0598
69539W        W12456   4.640  12.143   1.830  0.0396  0.0283 -0.0750
69540W        W12457   6.670  11.576   1.857  0.1606 -0.2697  0.1922
69541W        W12458   2.879  14.732   1.630 -0.0388 -0.0956  0.1738
69542W        W12459   7.975  14.952   1.664 -0.0807 -0.4136  0.0296
69543W        W12460   6.581  11.069   2.046  0.1444 -0.0168  0.0355
69544W        W12461   6.516  13.453  30.940 -0.3539 -0.0275  0.0299
69545W        W12462   5.572  12.931   0.666  0.3066  0.1172  0.1041
69546W        W12463   5.165  13.141   0.984 -0.1750 -0.1977  0.0208
69547W        W12464   3.717  11.581   4.614 -0.2593  0.0059  0.0602
69548W        W12465   4.365  13.270   1.604 -0.0045  0.1584  0.2378
69549W        W12466   7.247  12.194   4.250 -0.2418 -0.0779 -0.2355
69550W        W12467   5.514   8.578   0.391  0.1773 -0.2659 -0.2451
69551W        W12468   6.955  12.211   1.939 -0.0568  0.0128  0.0832
69552W        W12469   6.446  14.764  31.764  0.1860  0.1333 -0.1327
69553W        W12470   4.800  13.446   1.265  0.0876  0.0104  0.2243
69554W        W12471   8.370  11.555   2.014 -0.0034 -0.0727 -0.1154
69555W        W12472   6.992  13.525   2.137  0.3175  0.0456 -0.2725
69556W        W12473   8.640  14.541   3.364 -0.0054 -0.0614  0.0185
69557W        W12474   6.500  13.863   1.495 -0.1318 -0.0663  0.2335
69558W        W12475   5.362  11.638   1.656 -0.2945  0.1072  0.1888
69559W        W12476   4.799  11.712   1.360 -0.1798 -0.2201 -0.0803
69560W        W12477   4.310  13.347   1.083  0.1232 -0.3471 -0.1002
69561W        W12478   5.125  13.829   2.850 -0.0491  0.1818  0.0915
69562W        W12479   5.043  12.473   1.910  0.1559 -0.0117  0.0094
69563W        W12480   6.684  11.971   3.542  0.0911  0.0980  0.3073
69564W        W12481   6.210  14.755   1.327  0.1758 -0.2851  0.1259
69565W        W12482   5.414  14.583   0.273 -0.0717  0.1739 -0.3437
69566W        W12483   6.754  13.584   4.263 -0.2107  0.1428  0.0049
69567W        W12484   7.628  13.363   2.120  0.2837  0.1244 -0.0946
69568W        W12485   7.291  12.377   2.251 -0.2546  0.0027 -0.0069
69569W        W12486   4.315  12.338  31.254 -0.1048  0.0364  0.3708
69570W        W12487   8.225  15.165   2.927 -0.1080 -0.2374 -0.0477
69571W        W12488   3.460  12.958   3.260  0.1462  0.1695 -0.2009
69572W        W12489   5.031  11.398   2.260 -0.1476  0.1884 -0.0731
69573W        W12490   4.899  14.684  31.089  0.3174 -0.2174 -0.0931
69574W        W12491   7.578   9.748   0.500  0.2270 -0.2100  0.1139
69575W        W12492   4.240  11.395   2.899 -0.0640  0.1038  0.1088
69576W        W12493   7.717  12.861   3.902 -0.0430  0.0547  0.2232
69577W        W12494   6.475  12.902  31.643  0.0594 -0.4076 -0.0996
69578W        W12495   3.509  14.516   3.097  0.1409 -0.1478 -0.1558
69579W        W12496   6.418   7.850  31.282  0.0072  0.0885 -0.0319
69580W        W12497   8.700   9.920  31.734  0.1037  0.2718  0.1899
69581W        W12498   5.675  12.912   3.571  0.1700 -0.0367  0.2771
69582W        W12499   7.999  13.033   2.061  0.0218  0.0653  0.2940
69583W        W12500   4.523  11.447  30.665 -0.3458 -0.0883  0.2353
69584W        W12501   6.572  10.675  31.255  0.1009 -0.2455  0.2752
69585W        W12502   3.217  15.976   2.912  0.2151  0.0426 -0.1518
69586W        W12503   7.044  14.095   1.179 -0.0191  0.1127  0.2394
69587W        W12504   5.574  12.650   2.231  0.0222 -0.0024  0.2959
69588W        W12505   7.355  11.757   1.119  0.2097 -0.0580  0.2142
69589W        W12506   8.793  15.391   2.085  0.1147  0.2245  0.0780
69590W        W12507   5.145  13.479   1.814  0.2763 -0.2876 -0.0346
69591W        W12508   6.943  13.027   3.423  0.0352 -0.0188  0.0536
69592W        W12509   7.638  12.109  31.670  0.0208  0.0701  0.1044
69593W        W12510   5.918   9.588  31.400 -0.1627 -0.3046  0.2499
69594W        W12511   5.887  12.851   1.709 -0.0599 -0.0985 -0.0549
69595W        W12512   4.662  12.218   1.332  0.0323  0.0398 -0.1774
69596W        W12513   3.801  16.599  31.424 -0.0276 -0.0643 -0.1279
69597W        W12514   8.227  13.741   2.668  0.2294  0.1813  0.1749
69598W        W12515   7.558  11.542   1.943 -0.1871  0.0746 -0.1534
69599W        W12516   5.473  10.389   2.666 -0.1609 -0.0652  0.3001
69600W        W12517   6.514  13.242   3.989  0.0854 -0.0077  0.1217
69601W        W12518   7.923  13.082   1.139  0.2349  0.3430 -0.0828
69602W        W12519   7.900  11.591   3.306  0.0651  0.0427  0.0088
69603W        W12520   4.963  13.300   0.024 -0.1681  0.2396 -0.0264
69604W        W12521   5.881  11.403   2.376  0.1970  0.0550 -0.2786
69605W        W12522   4.221  12.111   3.508  0.0557 -0.0863 -0.2173
69606W        W12523   2.855  14.366   1.949  0.1073  0.0988 -0.1310
69607W        W12524   4.203  13.957   3.724 -0.3271 -0.1675  0.2267
69608W        W12525   6.938  13.176   1.200 -0.1498 -0.2643 -0.0646
69609W        W12526   4.614  10.895   3.777 -0.2735 -0.1765 -0.1582
69610W        W12527   6.877  12.126   2.437 -0.2024  0.0712 -0.0792
69611W        W12528   5.277  15.247  30.964 -0.0199  0.0907 -0.1780
69612W        W12529   6.141  14.329  31.833 -0.3446  0.1522  0.0018
69613W        W12530   6.539  11.523   0.773  0.2088 -0.0831  0.0071
69614W        W12531   4.857  14.133   2.479 -0.4462 -0.0775  0.0886
69615W        W12532   5.818  14.014   2.371 -0.1412  0.1528  0.4420
69616W        W12533   4.479  13.373   2.562  0.1219 -0.2825  0.0181
69617W        W12534   6.167  16.381   1.189 -0.1287  0.0704  0.0595
69618W        W12535   6.029  10.310   2.719 -0.1353  0.0890  0.1293
69619W        W12536   4.092  12.778   3.068  0.6757  0.0445 -0.0025
69620W        W12537   6.608  13.519   0.020 -0.2050 -0.3338  0.2276
69621W        W12538   6.425  12.089  31.436 -0.2932  0.0021  0.0577
69622W        W12539   6.244   9.146  31.836 -0.2614  0.0550  0.1664
69623W        W12540   8.619  14.559   1.809  0.1796 -0.2704  0.0216
69624W        W12541   5.415  11.355   2.570  0.1954  0.1800 -0.0177
69625W        W12542   5.769   8.883   0.096  0.1713  0.1395  0.1983
69626W        W12543   4.664  12.618   2.198 -0.0157 -0.0836 -0.1571
69627W        W12544   6.012  12.844   4.544 -0.1907  0.1230 -0.4833
69628W        W12545   6.509  12.025   0.709 -0.1196  0.0116  0.1145
69629W        W12546   5.439  14.281   1.917 -0.0176  0.2522  0.2919
69630W        W12547   4.128  13.025   3.853  0.1125  0.2313 -0.1356
69631W        W12548   5.636  12.452   0.303 -0.0078 -0.2479  0.3300
69632W        W12549   7.541  12.301   3.843 -0.1097  0.1291  0.5890
69633W        W12550   5.242  12.282   2.325  0.1557 -0.1195 -0.2720
69634W        W12551   4.083  13.121  31.842 -0.1230  0.3790  0.0256
69635W        W12552   4.242  14.604   3.676 -0.2191 -0.0201  0.0023
69636W        W12553   5.935  13.160  31.062 -0.0953 -0.2370  0.3863
69637W        W12554   4.210  15.083   0.694 -0.1583 -0.0554 -0.1424
69638W        W12555   5.885  12.234   2.876 -0.1618 -0.1160 -0.0156
69639W        W12556   7.894  14.257   4.371  0.0522  0.0448  0.1591
69640W        W12557   4.898  12.792   3.457 -0.0136 -0.0596 -0.3542
69641W        W12558   5.083  10.571   3.049 -0.3944  0.0384  0.2636
69642W        W12559   4.709  11.666   0.878  0.2501  0.0614 -0.1227
69643W        W12560   6.067  11.572   0.299 -0.3826 -0.1280  0.0976
69644W        W12561   6.854  12.710   2.106 -0.0337  0.0893 -0.0136
69645W        W12562   2.800  13.962   3.205  0.1536 -0.0800  0.2269
69646W        W12563   6.773  11.487   2.442  0.0276 -0.0636 -0.1422
69647W        W12564   8.432  15.117   1.465  0.2803  0.1358 -0.1414
69648W        W12565   6.403  11.228   2.648  0.0079  0.0020 -0.1832
69649W        W12566   5.982  13.651  30.782  0.0320 -0.0224  0.1605
69650W        W12567   3.312  12.209   1.230 -0.0062 -0.0180  0.0039
69651W        W12568   7.811  14.873   1.222 -0.1506 -0.0696  0.0580
69652W        W12569   3.881  12.372   2.585  0.1878  0.3814  0.3626
69653W        W12570   5.421  14.140   0.550 -0.3866  0.0925  0.1900
69654W        W12571   5.143  13.305   0.491 -0.2839 -0.1913 -0.3251
69655W        W12572   2.677  14.734   2.353 -0.2766  0.3454 -0.1336
69656W        W12573   6.964  10.450   0.704  0.0104 -0.1040  0.2697
69657W        W12574   6.795  10.777  31.876  0.2103 -0.0532  0.3014
69658W        W12575   6.082  12.912   0.991  0.2877  0.0700 -0.0672
69659W        W12576  10.065  13.382   2.713  0.4282  0.1673 -0.0660
69660W        W12577   7.431  13.706   0.097  0.0142  0.0191  0.1441
69661W        W12578   6.778  12.315   3.000 -0.2119  0.0172  0.0710
69662W        W12579   4.656  11.421   3.189 -0.1202 -0.1304 -0.1369
69663W        W12580   7.301  14.359   1.747 -0.0463 -0.0665  0.5979
69664W        W12581   2.962  11.955   2.684 -0.1107  0.1775 -0.2295
69665W        W12582   6.668  14.968   2.326  0.0901  0.0475  0.1500
69666W        W12583   5.287  13.661   1.271 -0.1256 -0.1350  0.0296
69667W        W12584   5.754  12.601  31.545 -0.0296 -0.0779 -0.2567
69668W        W12585   4.732  12.665   0.705 -0.2936  0.3663  0.0948
69669W        W12586   7.660  11.379   1.324 -0.1213  0.2371 -0.3520
69670W        W12587   6.188  12.272   0.957  0.0572  0.3467 -0.1159
69671W        W12588   6.552  12.417  31.847  0.0589  0.0428 -0.1461
69672W        W12589   7.432  10.866   3.353  0.1531 -0.0094  0.1733
69673W        W12590   5.496  15.149   2.341 -0.2025 -0.0725  0.1282
69674W        W12591   7.225  12.283   0.713 -0.2915 -0.1880  0.1341
69675W        W12592   5.675  12.469   0.883 -0.0708  0.0691 -0.0315
69676W        W12593   4.468  11.657   1.730  0.4158  0.2353  0.0100
69677W        W12594   5.772   9.495   2.907  0.0152 -0.0971 -0.0397
69678W        W12595   6.767  14.026   2.306 -0.1180  0.0873 -0.0644
69679W        W12596   6.254   9.870   2.810 -0.1392 -0.1598 -0.0926
69680W        W12597   5.591  12.032   4.818  0.0029 -0.3767  0.1637
69681W        W12598   6.521  12.669   4.800 -0.0409  0.0407 -0.1826
69682W        W12599   4.763  13.252   3.273 -0.0275  0.0044 -0.2192
69683W        W12600   5.793  12.416   3.674  0.0796  0.0494 -0.2804
69684W        W12601   6.062  13.561   2.217  0.0583  0.0327  0.0326
69685W        W12602   8.852  10.761  30.266  0.2521 -0.0105 -0.0191
69686W        W12603   7.412  12.397   1.591  0.2216  0.0860 -0.0229
69687W        W12604   7.182  11.512   1.642  0.0640 -0.2218 -0.2039
69688W        W12605   3.318  11.610   0.181  0.1060  0.0601 -0.0314
69689W        W12606   6.045  12.648   2.599  0.1832 -0.5653  0.1075
69690W        W12607   4.064  14.413   4.331 -0.2648  0.2295 -0.1891
69691W        W12608   6.668  13.825   0.935  0.0200  0.0772  0.0657
69692W        W12609   6.175  12.775   2.185  0.1082 -0.1499  0.1027
69693W        W12610   5.939  15.192   3.167  0.2074  0.2348 -0.1442
69694W        W12611   6.511  12.797   1.797  0.1024  0.1197 -0.0275
69695W        W12612   6.252  11.127  31.148 -0.0597 -0.0094  0.3274
69696W        W12613   3.334  10.821   2.013  0.1411  0.1711  0.1843
69697W        W12614   2.357  14.457   2.584 -0.0420 -0.0888  0.1351
69698W        W12615   6.873  11.822  31.804 -0.3260  0.1651  0.2413
69699W        W12616   6.207  12.599  31.350  0.3006  0.2803  0.1407
69700W        W12617   2.812  14.847   3.479  0.1171 -0.0891 -0.1982
69701W        W12618   5.636  14.552   3.998  0.1566 -0.1145  0.0252
69702W        W12619   5.895  10.192  31.681  0.0710 -0.1046  0.4354
69703W        W12620   7.237  13.181   3.015 -0.0059 -0.2305  0.2034
69704W        W12621   4.837  15.273   0.874  0.1657  0.1763 -0.4985
69705W        W12622   6.157  11.229   1.025 -0.0007  0.1449 -0.1777
69706W        W12623   5.663  13.311   0.427  0.0859 -0.1685  0.0656
69707W        W12624   4.968  12.590   2.934  0.0109 -0.0909  0.1047
69708W        W12625   4.635  14.575   2.567  0.2456  0.0617 -0.0126
69709W        W12626   6.257  11.685   3.661 -0.1260 -0.0935  0.3248
69710W        W12627   7.754  12.404   2.949 -0.2049  0.1222 -0.0300
69711W        W12628   6.192  12.708   3.913  0.0395  0.1777  0.0164
69712W        W12629   8.722  11.997   2.937  0.0882  0.2526 -0.1615
69713W        W12630   5.181  12.897   2.495  0.3776 -0.0707 -0.0894
69714W        W12631   5.034  11.913   2.026 -0.1438  0.0029  0.0734
69715W        W12632   5.030  14.482   2.216  0.2389  0.0478  0.0206
69716W        W12633   9.108  10.696   1.616 -0.1612  0.1884 -0.0751
69717W        W12634   5.593  13.782   2.015 -0.2826  0.1903  0.0482
69718W        W12635   1.946  11.189   2.935  0.0583 -0.2370 -0.1431
69719W        W12636   4.907  11.439   4.432 -0.1768 -0.4421 -0.0751
69720W        W12637   7.322  13.531   2.491  0.3154 -0.1259 -0.3537
69721W        W12638   6.970  11.066   0.307  0.3516  0.1236  0.1621
69722W        W12639   6.797  12.445  31.432 -0.0217  0.0505  0.1320
69723W        W12640   2.007  14.324   4.853 -0.0537  0.2460  0.1294
69724W        W12641   5.943  10.856   1.277  0.2235 -0.0464 -0.2134
69725W        W12642   4.546  16.831   1.265  0.1689 -0.1408 -0.1310
69726W        W12643   6.308  14.051   0.574 -0.2377 -0.2058 -0.1958
69727W        W12644   7.290  10.797   0.001  0.2780 -0.0727 -0.2384
69728W        W12645   5.250  13.092   3.226 -0.0939 -0.1640 -0.2766
69729W        W12646   5.585  12.886   1.172 -0.0979  0.2661 -0.1599
69730W        W12647   3.067  13.503   3.489  0.1217  0.0676 -0.1274
69731W        W12648   3.855  13.438   1.462 -0.1024  0.3322 -0.0679
69732W        W12649   5.771  13.519  30.228  0.0220 -0.1607  0.0568
69733W        W12650   5.806  14.073   0.204 -0.2076  0.3810 -0.0424
69734W        W12651   7.370  15.242   3.448 -0.0523  0.0784  0.0778
69735W        W12652   6.036  11.687   0.788 -0.1887  0.0044  0.0750
69736W        W12653   7.580  12.999   0.541  0.2336 -0.0232 -0.1498
69737W        W12654   6.684  11.857   2.859  0.1834 -0.2953 -0.1072
69738W        W12655   4.416  13.506   3.642 -0.0011  0.0523  0.0891
69739W        W12656   5.710  13.074   2.688  0.0309 -0.2211  0.0759
69740W        W12657   5.163  13.111   1.441  0.0809  0.2930 -0.1965
69741W        W12658   4.696  13.080   3.829  0.3887 -0.1469  0.3295
69742W        W12659   8.673  11.946   1.949 -0.1593  0.3041 -0.0193
69743W        W12660   1.572  16.903   2.618  0.1731 -0.0438 -0.3684
69744W        W12661   7.093  12.833  31.623  0.1628 -0.1161  0.0602
69745W        W12662   3.767  15.145   1.584  0.0195 -0.2686  0.1439
69746W        W12663   5.251  11.743   1.188  0.3217  0.2295 -0.3305
69747W        W12664   7.518  10.543   1.669  0.1095  0.1344 -0.4314
69748W        W12665   6.352  13.416  31.434 -0.1660 -0.0032  0.0284
69749W        W12666   6.854  11.129   1.622  0.0801 -0.2121  0.1910
69750W        W12667   4.641  13.068   0.331 -0.2941 -0.4253 -0.0923
69751W        W12668   5.516  14.078   1.032  0.1467  0.4910  0.0704
69752W        W12669   4.320  14.744   1.169  0.1236  0.3052  0.0208
69753W        W12670   3.872  13.022   1.193  0.0302 -0.0095  0.1401
69754W        W12671   7.080  11.750   2.159 -0.1001  0.1673 -0.0690
69755W        W12672   4.429  14.137   4.572 -0.2271 -0.0225  0.0198
69756W        W12673   7.449  11.417   3.226  0.0082 -0.1497  0.3424
69757W        W12674   6.331  12.414   1.511  0.0428 -0.3256  0.0876
69758W        W12675   7.219  11.706   2.847  0.0550 -0.1150  0.1465
69759W        W12676   5.154  12.056   3.993  0.0281  0.3273 -0.0633
69760W        W12677   3.191  12.446   2.338  0.1886 -0.0405 -0.3813
69761W        W12678   6.628  12.138   1.220  0.1100  0.0336 -0.2580
69762W        W12679   8.059  11.387   1.582 -0.0689 -0.0570  0.0425
69763W        W12680   7.470  11.264  31.958 -0.3710 -0.0225  0.2624
69764W        W12681   7.006  14.293   3.125  0.1937  0.2431 -0.0367
69765W        W12682   5.861  11.658   1.752 -0.0588  0.1629 -0.1171
69766W        W12683   7.435  11.230   0.495 -0.3217 -0.1886 -0.2493
69767W        W12684   6.878  12.537   1.566 -0.1738  0.0237  0.3199
69768W        W12685   4.175  15.128   3.672 -0.0258 -0.0807 -0.0500
69769W        W12686   4.558  13.892   2.823  0.1651 -0.1210 -0.0304
69770W        W12687   6.629  13.193   2.247  0.1026 -0.1256 -0.3223
69771W        W12688   7.470  13.941   1.465  0.0042  0.3921 -0.1071
69772W        W12689   6.533  12.017   1.702  0.3724  0.0103 -0.2566
69773W        W12690   5.351  15.661   0.083 -0.1104  0.3969  0.1772
69774W        W12691   7.989  13.269   0.651  0.0762  0.0120 -0.2197
69775W        W12692   5.854  15.355   2.656  0.0518 -0.0181  0.0706
69776W        W12693   4.445  10.721   2.585  0.0425  0.0900  0.1378
69777W        W12694   6.469  13.581   3.494 -0.2231 -0.1389  0.0409
69778W        W12695   6.807  13.433   3.125  0.3268  0.1267  0.2975
69779W        W12696   6.246  10.186   0.535  0.1658 -0.3343  0.0331
69780W        W12697   6.021  14.235   1.178 -0.0422 -0.0778  0.0371
69781W        W12698   6.275  13.227   1.929  0.0338  0.0715  0.3645
69782W        W12699   6.384  14.164   2.558 -0.0280 -0.2586 -0.1237
69783W        W12700   7.785  12.177   2.429  0.1170  0.1578  0.3329
69784W        W12701   7.211  13.594   1.170 -0.0170  0.3082 -0.1795
69785W        W12702   8.264  12.148   2.645  0.0089  0.3092 -0.1333
69786W        W12703   7.752  14.795   3.969 -0.1559  0.0415  0.0139
69787W        W12704   3.256  14.393   4.073  0.1043  0.0954  0.0278
69788W        W12705   4.021  12.248   0.587  0.0440  0.2823 -0.0406
69789W        W12706   4.528  12.568   3.242  0.2557  0.1893 -0.1586
69790W        W12707   5.651  13.352   1.262  0.3634 -0.0066 -0.2259
69791W        W12708   6.011  14.740   0.066  0.2363  0.0567 -0.1272
69792W        W12709   5.414  15.874   3.527  0.0658 -0.2110  0.5543
69793W        W12710   5.172  11.742   0.686 -0.1222  0.0198  0.0582
69794W        W12711   8.619  12.462   2.859 -0.0405 -0.3213  0.0775
69795W        W12712   6.478  12.340   2.101 -0.1016 -0.0965 -0.2518
69796W        W12713   6.979  10.044   0.403  0.0813  0.2605  0.0520
69797W        W12714   5.306  11.343   0.433 -0.0676 -0.0429  0.1759
69798W        W12715   2.946  13.879   4.126  0.0099  0.4588  0.4397
69799W        W12716   5.874  13.468  31.744 -0.0615 -0.0849  0.0224
69800W        W12717   3.597  12.492  30.668  0.0764 -0.2233 -0.1249
69801W        W12718   5.868  13.892   0.727 -0.1064 -0.0035 -0.1591
69802W        W12719   6.646  10.928   2.950 -0.1158  0.1265  0.1401
69803W        W12720   3.119  14.883   2.943  0.1020  0.2629  0.2420
69804W        W12721   5.600  13.324   1.743 -0.0750  0.4609  0.1208
69805W        W12722   6.784  10.252   2.611 -0.1620 -0.2435 -0.0453
69806W        W12723   5.352  12.074  31.670 -0.3213  0.2788  0.0227
69807W        W12724   5.781  11.151   1.673 -0.0919  0.0192  0.2472
69808W        W12725   4.649  10.437   4.022 -0.1686 -0.1096 -0.1867
69809W        W12726   6.892  13.835   3.412  0.0241 -0.2161  0.3467
69810W        W12727   6.119  15.352   0.586 -0.1001 -0.0423  0.3669
69811W        W12728   5.506  12.196   1.877  0.1803  0.1638 -0.0199
69812W        W12729   8.301  14.180   3.108 -0.5553 -0.2892  0.0243
69813W        W12730   4.968  12.099   0.924  0.0699  0.1729  0.1206
69814W        W12731   6.065  13.156   4.166 -0.2227 -0.1613 -0.1622
69815W        W12732   3.622  11.438   2.240  0.1059  0.0092  0.1391
69816W        W12733   4.312  11.884   0.185  0.2945  0.0054 -0.4221
69817W        W12734   5.436  12.440   4.055  0.2274  0.2249  0.2604
69818W        W12735   5.978  16.065  31.608  0.2068  0.1574  0.1844
69819W        W12736   6.862  15.570   1.416  0.0058  0.0746 -0.0462
69820W        W12737   6.032  13.770   1.172 -0.1815 -0.1548  0.3383
69821W        W12738   4.835  13.159   2.324 -0.0141 -0.1346  0.1384
69822W        W12739   5.749   8.160   3.495 -0.1713  0.1593 -0.1111
69823W        W12740   6.976  13.386   0.693  0.1929  0.0683 -0.1619
69824W        W12741   2.279  12.487   2.698  0.0477  0.0845 -0.2006
69825W        W12742   7.239  12.520  31.237 -0.0164 -0.4090  0.0212
69826W        W12743   8.288   9.913   2.183 -0.1602  0.1577 -0.0629
69827W        W12744   6.994  13.837   1.606 -0.2629  0.0736  0.1193
69828W        W12745   6.431  11.836   2.301  0.1708  0.1260  0.2077
69829W        W12746   3.708  13.999   2.890  0.1687 -0.0015  0.1092
69830W        W12747   6.141  11.772   2.696  0.1127 -0.2474  0.1419
69831W        W12748   6.204  11.198   3.411 -0.0960 -0.1209 -0.1033
69832W        W12749   6.280  10.906   0.056 -0.1776 -0.0455 -0.0078
69833W        W12750   6.841  13.049   0.130  0.1913 -0.0326  0.1572
69834W        W12751   6.243  12.822   2.996  0.0698  0.0719 -0.2277
69835W        W12752   6.309  11.444   1.553  0.0667 -0.1695 -0.1677
69836W        W12753   7.188  11.271   2.226  0.0577 -0.0078 -0.0140
69837W        W12754   6.096  12.570   0.589 -0.1939 -0.3692  0.0481
69838W        W12755   7.202  13.039   2.349 -0.2653  0.2855 -0.4213
69839W        W12756   3.428  14.332  31.732 -0.1388  0.1684  0.0035
69840W        W12757   7.802  12.797   1.647  0.0911  0.1067 -0.0305
69841W        W12758   6.040  15.321   1.217  0.2370  0.0395  0.0543
69842W        W12759   7.301  14.846   3.647 -0.2125 -0.0377  0.0381
69843W        W12760   4.455  15.295   1.200  0.0761  0.1318 -0.1058
69844W        W12761   8.923  12.279   0.930  0.4150 -0.2562  0.2393
69845W        W12762   2.952  11.071   2.113  0.0903 -0.0393  0.2467
69846W        W12763   6.109  13.200   1.441 -0.3021  0.4109  0.0502
69847W        W12764   6.271  13.206  31.947  0.2393 -0.2559  0.2199
69848W        W12765   6.337  13.375   3.032  0.1822  0.2121 -0.0194
69849W        W12766   3.788  11.529   0.935  0.1143 -0.1438 -0.1563
69850W        W12767   5.448  10.107   0.194  0.1923 -0.0172 -0.0808
69851W        W12768   4.642  14.774   2.097 -0.2584  0.0349 -0.2050
69852W        W12769   6.620  13.910   2.984  0.0398  0.0047  0.1114
69853W        W12770   3.313  12.786   4.154  0.0169  0.0294 -0.1020
69854W        W12771   3.300  11.360   4.534  0.0354  0.1034 -0.0286
69855W        W12772   5.455  11.930   4.344 -0.3792 -0.1529 -0.0345
69856W        W12773   6.739  12.031   4.452  0.0944 -0.0801 -0.2839
69857W        W12774   1.520  10.527   4.600  0.1284  0.2778 -0.1848
69858W        W12775   7.055  14.475   4.095 -0.1919 -0.4413  0.1332
69859W        W12776   3.768  10.476   6.014  0.2500 -0.1330 -0.1408
69860W        W12777   6.542  13.746   5.281  0.3099 -0.0199  0.1169
69861W        W12778   6.381  15.909   4.487 -0.2075 -0.1288 -0.0738
69862W        W12779   7.067  13.963   3.974 -0.0053  0.2353  0.1938
69863W        W12780   3.898  11.270   4.987 -0.0759 -0.0310 -0.1341
69864W        W12781   4.889  13.893   6.266  0.1364 -0.1350 -0.0166
69865W        W12782   4.263   8.492   3.815 -0.3854 -0.0164  0.1033
69866W        W12783   2.544  10.411   5.406  0.0801  0.0355 -0.2383
69867W        W12784   6.512  12.847   4.311  0.3108 -0.1725  0.1942
69868W        W12785   4.965  11.193   4.036  0.0653 -0.1886  0.0516
69869W        W12786   4.451  12.684   7.267 -0.3130  0.0451 -0.1737
69870W        W12787   7.327  11.513   4.023  0.1573 -0.0727  0.0835
69871W        W12788   5.755  14.561   4.521  0.3630  0.2134  0.0486
69872W        W12789   3.734  11.336   5.449  0.0522 -0.0497 -0.0792
69873W        W12790   5.323  10.653   5.993  0.2813 -0.1106 -0.3858
69874W        W12791   3.508  14.624   5.042 -0.2379 -0.1417  0.0912
69875W        W12792   3.456  11.020   4.905 -0.1004  0.2538  0.0406
69876W        W12793   2.877  11.159   4.230  0.0603  0.1677 -0.4079
69877W        W12794   5.333  13.136   7.113 -0.2445  0.1534  0.0670
69878W        W12795   5.226  12.472   6.442  0.0456 -0.0113  0.0362
69879W        W12796   6.023  12.340   4.795  0.1025 -0.0643  0.1951
69880W        W12797   5.063  16.106   5.788 -0.1360  0.0115 -0.1700
69881W        W12798   5.654  13.642   4.914 -0.2540  0.2011  0.1586
69882W        W12799   5.254  11.654   6.435 -0.0089  0.1969  0.0443
69883W        W12800   5.227  11.697   4.726  0.0015  0.1196 -0.0209
69884W        W12801   3.204  14.038   3.688 -0.0242  0.0134 -0.1611
69885W        W12802   3.411  15.481   3.853  0.0197 -0.0151  0.1022
69886W        W12803   6.169  13.987   5.534  0.0042  0.1341 -0.0447
69887W        W12804   6.324  14.339   5.264  0.0425 -0.2925  0.1706
69888W        W12805   5.447  12.829   6.649 -0.1268 -0.0253 -0.0682
69889W        W12806   3.269  13.359   4.354 -0.0877 -0.0491 -0.1569
69890W        W12807   5.777  12.645   7.415 -0.0365  0.0829 -0.0501
69891W        W12808   7.246  13.584   5.485 -0.0844  0.2218  0.1498
69892W        W12809   5.237  12.752   4.442 -0.0844 -0.1322  0.0358
69893W        W12810   4.021  12.033   4.035 -0.0077  0.1625 -0.3116
69894W        W12811   3.534  12.714   3.707  0.1805 -0.0072 -0.1000
69895W        W12812   4.599  14.740   4.024  0.0842 -0.2086  0.6495
69896W        W12813   4.607  11.637   6.229  0.5219 -0.0221  0.0058
69897W        W12814   2.557  12.966   4.788  0.1078 -0.0804 -0.0822
69898W        W12815   6.834  10.729   7.684 -0.1349 -0.2402 -0.1071
69899W        W12816   2.881  13.101   2.732  0.1179 -0.0276 -0.3755
69900W        W12817   5.981  11.643   3.139 -0.1058 -0.0897 -0.0115
69901W        W12818   4.049  12.346   4.437  0.1544 -0.1831  0.1021
69902W        W12819   4.133   9.790   4.430  0.0711  0.0534  0.3156
69903W        W12820   4.932   9.268   5.337 -0.2184 -0.1303 -0.3351
69904W        W12821   2.417  13.233   2.618 -0.1721  0.1617  0.0529
69905W        W12822   4.240  10.856   6.006  0.3426 -0.2189  0.2559
69906W        W12823   5.766  13.614   5.538  0.4343 -0.3084 -0.3139
69907W        W12824   5.695  13.991   5.871 -0.1751 -0.1846 -0.0039
69908W        W12825   5.268  14.527   4.589  0.1047  0.1098 -0.0204
69909W        W12826   6.141  14.807   5.066  0.0045 -0.2422  0.2220
69910W        W12827   3.140  13.009   3.669 -0.1163  0.0561 -0.2735
69911W        W12828   4.965  13.290   2.842  0.1687 -0.3988  0.1034
69912W        W12829   5.850  15.595   5.224  0.3349  0.2290  0.0011
69913W        W12830   4.828  14.423   3.663 -0.0219 -0.1617 -0.2412
69914W        W12831   4.065  10.576   5.651 -0.1392 -0.0446 -0.1392
69915W        W12832   5.316  14.091   4.923 -0.2536  0.1381 -0.0216
69916W        W12833   4.658  13.169   5.585  0.1315  0.1400 -0.0550
69917W        W12834   4.286  11.018   3.383  0.1732  0.1404 -0.0875
69918W        W12835   6.631  13.135   5.884  0.0922 -0.0607  0.3385
69919W        W12836   5.695  12.218   7.173  0.2442  0.0990 -0.0739
69920W        W12837   7.041   9.410   2.895 -0.2565  0.1500  0.0101
69921W        W12838   5.428  13.317   5.676  0.1205 -0.4116  0.0674
69922W        W12839   6.756  13.022   5.021 -0.1810 -0.0830 -0.0591
69923W        W12840   5.638  15.381   3.554 -0.0787  0.0436  0.1173
69924W        W12841   5.823  12.469   5.253  0.0112 -0.0308  0.1280
69925W        W12842   7.374  10.909   5.325 -0.0305 -0.1165  0.0348
69926W        W12843   4.255  13.307   3.035  0.1389 -0.2361 -0.2340
69927W        W12844   5.131  11.748   3.062 -0.5573  0.3163  0.3065
69928W        W12845   7.356  11.243   6.695 -0.0042  0.5779 -0.1839
69929W        W12846   6.259  14.839   2.891 -0.0807  0.2423 -0.3115
69930W        W12847   4.265  16.433   5.855 -0.1712  0.0480 -0.0326
69931W        W12848   5.343  11.999   6.783  0.0432  0.1391  0.1086
69932W        W12849   5.508  14.091   4.476  0.0328  0.3767  0.3038
69933W        W12850   3.164  15.569   1.948 -0.0928  0.1959 -0.1529
69934W        W12851   5.758  12.347   6.611  0.1404  0.3076  0.2739
69935W        W12852   2.366  12.794   2.246  0.0104 -0.0245 -0.0786
69936W        W12853   2.404  11.020   6.996 -0.2003 -0.0312 -0.1784
69937W        W12854   5.006  13.661   4.902  0.1038 -0.1370  0.1012
69938W        W12855   7.831  11.904   2.904 -0.0607  0.0053  0.2234
69939W        W12856   3.919  11.344   5.915  0.0081 -0.1806  0.0414
69940W        W12857   9.103  10.177   3.463  0.2266 -0.1373  0.0763
69941W        W12858   4.743  12.246   5.062 -0.0413  0.1057  0.0539
69942W        W12859  10.263  16.425   3.467  0.0208 -0.0630  0.1783
69943W        W12860   5.286  11.689   3.631 -0.1916 -0.1445 -0.3236
69944W        W12861   6.922  13.444   3.711  0.0769  0.2031 -0.1093
69945W        W12862   3.272  12.064   7.211  0.2222 -0.0693  0.2845
69946W        W12863   4.426   9.222   5.660  0.2246 -0.4394 -0.2260
69947W        W12864   3.774  11.579   6.360 -0.0566 -0.0908 -0.0756
69948W        W12865   3.391   9.095   5.216 -0.0568  0.3473  0.0687
69949W        W12866   9.213  11.415   6.243 -0.0678 -0.1624 -0.0302
69950W        W12867   3.303  11.863   4.563  0.0413  0.2537  0.1488
69951W        W12868   6.117  13.310   4.674  0.0797  0.1543  0.1136
69952W        W12869   7.719  11.284   2.337  0.2989 -0.1446  0.1364
69953W        W12870   2.754  13.333   4.458  0.0804 -0.0559  0.2878
69954W        W12871   7.535  11.202   6.169  0.0977  0.2328  0.0526
69955W        W12872   7.750  14.286   3.914  0.0439 -0.3813  0.2315
69956W        W12873   5.425  15.306   5.806 -0.3312  0.2533 -0.0374
69957W        W12874   7.138  13.174   4.103  0.0219  0.0355 -0.0780
69958W        W12875   5.712  10.510   4.946  0.1736  0.1267  0.1441
69959W        W12876   3.741  11.353   2.734 -0.2432 -0.3500 -0.2582
69960W        W12877   3.760  14.682   5.795 -0.3085  0.3610 -0.1192
69961W        W12878   4.106  15.721   4.492  0.1554  0.0725 -0.2387
69962W        W12879   4.507  10.168   4.444 -0.3893 -0.0974 -0.1846
69963W        W12880   7.019  15.032   4.432 -0.1580  0.1820  0.0888
69964W        W12881   6.562  10.624   4.779 -0.0241 -0.2554 -0.4602
69965W        W12882   5.728  11.725   6.961  0.1326 -0.2793 -0.0495
69966W        W12883   6.633  10.704   6.287 -0.0112 -0.0834  0.1204
69967W        W12884   4.932  11.350   5.958  0.0960 -0.0551  0.0575
69968W        W12885   4.907  12.602   4.126 -0.0497  0.0030  0.0555
69969W        W12886   5.117  10.890   2.581 -0.0666  0.0802  0.1734
69970W        W12887   4.457  16.596   4.366 -0.2365 -0.0277  0.1595
69971W        W12888   4.890  15.093   2.991  0.3799 -0.0013  0.2068
69972W        W12889   4.205  11.565   3.714 -0.1718 -0.1789 -0.2723
69973W        W12890   5.055  11.038   3.316 -0.2329 -0.1393  0.0706
69974W        W12891   6.057  11.868   4.509  0.1707  0.0310  0.1528
69975W        W12892   5.102  11.831   5.969 -0.0978 -0.0414  0.1144
69976W        W12893   6.624  11.637   6.836 -0.3365  0.0528  0.1235
69977W        W12894   4.075  13.689   2.713 -0.5564  0.1419 -0.0780
69978W        W12895   4.934  14.995   5.388 -0.0117 -0.2579 -0.0282
69979W        W12896   5.721   9.452   4.089  0.0493 -0.2405 -0.2786
69980W        W12897   6.481  11.437   3.065 -0.2344  0.0535 -0.2319
69981W        W12898   5.259  13.632   4.505 -0.0433 -0.0367  0.0211
69982W        W12899   6.572  13.910   3.873  0.3792  0.0211  0.1703
69983W        W12900   3.730  13.412   4.403  0.1882  0.1970  0.1044
69984W        W12901   3.455  10.459   2.430  0.3968  0.0307  0.1487
69985W        W12902   5.227  13.486   6.298 -0.1817  0.0253 -0.2903
69986W        W12903   6.860  14.590   4.637 -0.1924 -0.1728  0.1224
69987W        W12904   3.771  15.232   4.881 -0.3006 -0.0231 -0.0423
69988W        W12905   4.645  11.339   3.696 -0.1032  0.1400  0.2711
69989W        W12906   7.934  15.929   4.782 -0.0789  0.1370  0.0733
69990W        W12907   5.631  13.432   6.742 -0.0239  0.0867  0.1119
69991W        W12908   6.541  12.230   5.853 -0.2241 -0.1221 -0.2267
69992W        W12909   8.765  13.667   3.755 -0.0902 -0.1026 -0.0138
69993W        W12910   4.546   8.661   6.613 -0.0709  0.0714  0.0756
69994W        W12911   5.268  13.816   3.472 -0.1917  0.0144  0.0167
69995W        W12912   6.056  13.778   3.726 -0.1359 -0.3294  0.2245
69996W        W12913   3.032  14.413   3.294  0.0832  0.2180  0.1307
69997W        W12914   6.847  13.163   4.543  0.0099 -0.2287  0.0022
69998W        W12915   5.836  11.302   6.571 -0.0501  0.0322  0.2874
69999W        W12916   4.954  12.984   5.184  0.2216  0.1550 -0.0214
70000W        W12917   6.495  11.321   5.992  0.0172 -0.4450  0.1995
70001W        W12918   8.119  13.201   3.932  0.2427 -0.0896  0.1473
70002W        W12919   4.441  13.701   4.088 -0.2939  0.0375  0.1608
70003W        W12920   5.316  10.978   4.275 -0.2064  0.2817 -0.2706
70004W        W12921   4.487  11.841   5.143 -0.3178 -0.1898 -0.2532
70005W        W12922   7.216  10.916   7.161  0.5245 -0.3836  0.2349
70006W        W12923   3.852  14.764   4.609  0.1906 -0.3053 -0.0471
70007W        W12924   5.950  15.950   6.151 -0.2394  0.0066 -0.0627
70008W        W12925   5.117  13.281   3.680 -0.2016  0.1544  0.1661
70009W        W12926   4.791  11.246   5.397  0.1497 -0.2689  0.1090
70010W        W12927   6.999  11.195   3.110  0.0091  0.1714 -0.1402
70011W        W12928   3.930  13.574   3.992  0.2051  0.0799 -0.1989
70012W        W12929   4.337  13.189   4.275 -0.2280 -0.3024 -0.2079
70013W        W12930   6.555  10.051   4.673  0.0307  0.1873  0.3076
70014W        W12931   4.761  13.413   6.343 -0.2304  0.1129  0.0632
70015W        W12932   3.619  13.571   2.565 -0.0202  0.0454 -0.1635
70016W        W12933   7.477  13.160   5.299  0.1082  0.1499  0.0657
70017W        W12934   5.307  12.262   5.206  0.3387  0.2891  0.1202
70018W        W12935   6.931  10.968   5.207 -0.2135 -0.0929 -0.3601
70019W        W12936   2.309  14.422   4.436  0.1271  0.3448  0.1497
70020W        W12937   4.245  10.564   3.687 -0.0707  0.2901  0.1932
70021W        W12938   4.043  12.588   3.521 -0.0020 -0.0240 -0.2316
70022W        W12939   7.880  11.507   4.783  0.1294  0.0148 -0.2109
70023W        W12940   7.122  13.319   4.949 -0.0599  0.2640  0.1221
70024W        W12941   3.591  11.664   7.469  0.0890  0.3079 -0.1914
70025W        W12942   5.431  12.819   5.105  0.0122  0.2145 -0.0808
70026W        W12943   3.172  13.328   5.441  0.1520  0.2622 -0.4165
70027W        W12944   6.428  13.098   3.421 -0.1954 -0.1017 -0.0651
70028W        W12945   5.928  11.032   3.967 -0.1460 -0.1875 -0.1137
70029W        W12946   6.527  14.985   4.186 -0.1390  0.1984  0.1846
70030W        W12947   5.900  12.757   6.883  0.1747 -0.0239 -0.0238
70031W        W12948   4.550  11.680   4.147  0.0816 -0.0201 -0.0281
70032W        W12949   8.373  11.297   3.344 -0.1664  0.2679 -0.0576
70033W        W12950   4.123  11.728   5.574  0.2508 -0.2640 -0.0397
70034W        W12951   4.962  14.800   6.255  0.1781  0.4606 -0.1155
70035W        W12952   5.263  14.208   5.624 -0.1469 -0.2100 -0.4116
70036W        W12953   6.563  12.583   3.352 -0.1115 -0.0416  0.0489
70037W        W12954   4.428  14.224   3.341  0.1985  0.2230 -0.0224
70038W        W12955   5.596  12.634   6.061  0.0013 -0.1567 -0.1244
70039W        W12956   6.305  13.442   5.696  0.0595  0.0617  0.1504
70040W        W12957   7.225  12.795   4.952 -0.0177 -0.1222  0.3096
70041W        W12958   5.779  11.464   3.618 -0.1269 -0.1026  0.1539
70042W        W12959   6.799  10.264   6.465 -0.0034  0.1357  0.1003
70043W        W12960   6.529  14.415   4.079 -0.1611  0.1814  0.0241
70044W        W12961   4.944  12.180   5.556  0.2248 -0.0150  0.1247
70045W        W12962   4.675  14.771   6.780  0.2199  0.0998 -0.1702
70046W        W12963   3.799  11.263   6.754 -0.0875 -0.0355 -0.1833
70047W        W12964   8.688  17.136   4.120 -0.1408 -0.0811 -0.0253
70048W        W12965   6.227  13.261   6.206 -0.0408  0.5517 -0.3079
70049W        W12966   5.706  12.833   4.121 -0.0669  0.1144  0.0512
70050W        W12967   4.453  13.490   5.923 -0.0420 -0.3281  0.2808
70051W        W12968   3.874  12.643   4.841 -0.0091 -0.1834 -0.3852
70052W        W12969   5.575  11.796   5.351 -0.3039  0.0600  0.1541
70053W        W12970   4.601  14.592   7.882  0.5383  0.1425  0.0254
70054W        W12971   1.755  13.454   4.587 -0.0869  0.2908 -0.1918
70055W        W12972   5.096  16.112   5.274  0.0127 -0.1999 -0.0675
70056W        W12973   6.633  10.813   5.763 -0.0767 -0.0092 -0.1248
70057W        W12974   7.080  15.500   3.784 -0.0690  0.3119 -0.2888
70058W        W12975   5.225  11.313   5.112  0.1185 -0.2434 -0.0251
70059W        W12976   7.539  12.372   5.656 -0.1858 -0.3030  0.0251
70060W        W12977   5.420  14.502   3.556  0.2053  0.0682 -0.0578
70061W        W12978   6.992  12.144   5.622 -0.3499 -0.0170  0.0299
70062W        W12979   4.266  11.870   4.560  0.0387 -0.0573 -0.1799
70063W        W12980   5.677  13.429   4.025 -0.4336  0.1504  0.0897
70064W        W12981   2.498  11.719   6.634  0.0767 -0.2122 -0.2112
70065W        W12982   6.199  13.008   7.233 -0.2611 -0.2548 -0.1418
70066W        W12983   5.553  13.671   7.782 -0.0519  0.1708 -0.0773
70067W        W12984   7.436  12.802   4.335  0.0653 -0.0164  0.1353
70068W        W12985   4.222  10.682   4.169 -0.2097  0.2867  0.0992
70069W        W12986   3.149  13.471   6.765 -0.3923 -0.1468 -0.2513
70070W        W12987   7.445  13.629   3.885 -0.1487 -0.2153 -0.1010
70071W        W12988   6.413  14.082   4.411 -0.1601  0.0834  0.1679
70072W        W12989   7.236  12.727   3.879  0.2274  0.3504 -0.1274
70073W        W12990   6.099  11.883   7.281  0.1071  0.0311  0.2325
70074W        W12991   8.322  12.174   5.436  0.0610  0.1038  0.4241
70075W        W12992   5.474  13.425   2.958  0.3939  0.1649 -0.3659
70076W        W12993   4.364  12.659   4.197 -0.1239  0.1554 -0.0333
70077W        W12994   4.838  10.850   5.965 -0.0659 -0.0092 -0.3146
70078W        W12995   5.088  14.717   4.048 -0.1334  0.1036 -0.2433
70079W        W12996   4.767  11.709   5.605  0.1131  0.1900  0.0481
70080W        W12997   5.504  12.141   6.165  0.1688  0.0490  0.2046
70081W        W12998   5.110  13.192   4.733  0.0152  0.2255 -0.1079
70082W        W12999   6.060  12.062   5.638 -0.1465  0.3103  0.1759
70083W        W13000   3.918  10.620   7.364  0.1386  0.1622 -0.1904
70084W        W13001   5.300  15.212   6.267  0.0363  0.3101 -0.1010
70085W        W13002   7.331  12.190   2.709  0.1875  0.1857  0.2557
70086W        W13003   5.384  13.344   5.208 -0.0577  0.0920  0.3357
70087W        W13004   7.427  11.641   7.221 -0.0953 -0.1840  0.1594
70088W        W13005   5.829  13.123   3.140  0.0929  0.0284 -0.2223
70089W        W13006   2.601  11.223   6.041 -0.2894  0.0918  0.2164
70090W        W13007   7.741  12.757   5.441 -0.0535 -0.0938  0.0433
70091W        W13008   6.425  11.387   4.009 -0.1094  0.1663  0.3229
70092W        W13009   8.116  12.486   4.645 -0.1776  0.1037  0.1404
70093W        W13010   5.325  14.968   4.948  0.2383 -0.1772 -0.0391
70094W        W13011   5.956  13.050   5.881 -0.1529  0.0537  0.2502
70095W        W13012   5.310  11.533   4.138 -0.1884  0.1630  0.2830
70096W        W13013   3.333  12.622   4.904 -0.2713 -0.0710 -0.4510
70097W        W13014   3.249  12.596   9.633  0.1307  0.3409  0.0296
70098W        W13015   4.330  10.139   2.756 -0.1021 -0.1031 -0.3336
70099W        W13016   5.208  13.206   4.225  0.0933 -0.0216  0.3061
70100W        W13017   4.388  14.169   5.612  0.2651  0.2657 -0.0492
70101W        W13018   6.821  12.676   5.756  0.3316 -0.0628 -0.0500
70102W        W13019   5.401  11.106   3.743  0.0091  0.4976  0.0359
70103W        W13020   6.782  13.315   5.433 -0.0128  0.0969 -0.1076
70104W        W13021   4.390  14.646   4.617 -0.0740  0.2048  0.1009
70105W        W13022   5.482  10.910   5.090 -0.0861 -0.1718  0.1632
70106W        W13023   2.515  15.228   4.298  0.0600 -0.1949 -0.2236
70107W        W13024   3.036  14.064   6.822 -0.2490 -0.3443 -0.2232
70108W        W13025   2.855  15.449   7.224 -0.0994  0.1368 -0.1576
70109W        W13026   5.746  11.104   7.076 -0.0031  0.4056 -0.1419
70110W        W13027   6.373  12.402   5.370 -0.2567 -0.1108  0.1190
70111W        W13028   5.934  13.734   4.435 -0.0050 -0.1534 -0.1239
70112W        W13029   6.383  13.321   5.143  0.1605  0.1160  0.2012
70113W        W13030   6.542  12.044   6.296  0.2853  0.0748 -0.0786
70114W        W13031   4.446  12.349   5.561 -0.0269  0.2660  0.0067
70115W        W13032   6.039  15.971   5.597  0.0092 -0.1835 -0.2156
70116W        W13033   5.242  13.662   3.973  0.0238  0.2945 -0.0519
70117W        W13034   3.781  13.676   4.846 -0.0346 -0.1826 -0.2553
70118W        W13035   4.297  12.252   6.411 -0.0962  0.1928  0.0624
70119W        W13036   6.558  15.064   5.409  0.0238 -0.1428 -0.1266
70120W        W13037   6.714  12.830   3.821  0.3782  0.0583 -0.0456
70121W        W13038   6.332  11.930   4.076 -0.2032  0.1418 -0.2133
70122W        W13039   5.105  15.292   3.426 -0.0870 -0.1070  0.0521
70123W        W13040   5.342  14.427   6.693 -0.0708 -0.2256 -0.0480
70124W        W13041   4.534  13.811   4.943  0.2586  0.0952  0.1596
70125W        W13042   3.624  14.098   5.187 -0.1454 -0.2306 -0.2918
70126W        W13043   8.198  14.343   2.618  0.2397 -0.1101 -0.1347
70127W        W13044   4.543  12.544   3.729 -0.0758  0.0414  0.0517
70128W        W13045   7.090  12.884   5.423 -0.1020 -0.2397  0.3092
70129W        W13046   5.923  11.209   2.910 -0.2743  0.0154  0.3842
70130W        W13047   4.552  13.289   4.964 -0.1341 -0.0994 -0.0823
70131W        W13048   2.432  13.875   4.234  0.0694  0.1425 -0.1881
70132W        W13049   9.282  15.871   3.842 -0.0713 -0.2309  0.2585
70133W        W13050   2.747  14.593   5.354  0.1073 -0.0642 -0.1178
70134W        W13051   5.709  14.302   6.275  0.3413  0.1589 -0.0197
70135W        W13052   5.767  11.590   4.885 -0.0455  0.0478 -0.1539
70136W        W13053   5.120  13.771   5.376  0.0385  0.0153 -0.0557
70137W        W13054   8.677  12.320   4.697  0.4285  0.1928 -0.1222
70138W        W13055   4.077  13.507   6.341 -0.0697  0.1325  0.5853
70139W        W13056   4.173  11.788   6.159 -0.0995  0.2237 -0.0010
70140W        W13057   5.725  11.913   3.826  0.0580  0.1604  0.2870
70141W        W13058   5.074  12.404   5.958  0.1812 -0.1624  0.0599
70142W        W13059   7.962   9.001   6.601 -0.0028 -0.1612  0.1704
70143W        W13060   2.923  13.816   6.422  0.2737 -0.1582  0.0297
70144W        W13061   7.695  15.766   3.450  0.0636  0.1263  0.2224
70145W        W13062   4.387   9.246   4.336  0.3151  0.0510 -0.0920
70146W        W13063   4.244  11.999   2.655 -0.0799 -0.0440 -0.1595
70147W        W13064   6.983  11.141   5.724 -0.0473 -0.3744  0.0412
70148W        W13065   4.482  14.664   5.202  0.3146 -0.1696 -0.0523
70149W        W13066   7.517  13.982   5.323  0.2766 -0.0316 -0.1133
70150W        W13067   4.188  15.741   3.678 -0.0663 -0.0746  0.2314
70151W        W13068   3.029  15.092   6.874  0.1658  0.0222  0.1727
70152W        W13069   4.246  15.546   4.938 -0.4920  0.0031 -0.0014
70153W        W13070   3.947   9.821   4.988 -0.2566  0.1393 -0.2268
70154W        W13071   8.304  11.653   5.728 -0.2820  0.1039  0.1637
70155W        W13072   5.252  11.012   5.564  0.0482 -0.2652  0.0580
70156W        W13073   5.618  12.464   4.550 -0.5600 -0.1276  0.0426
70157W        W13074   3.830  10.848   5.177  0.4031  0.0908  0.2721
70158W        W13075   5.691  14.051   5.331 -0.1946 -0.0721  0.0630
70159W        W13076   4.599  13.680   5.463  0.0665 -0.0745 -0.0299
70160W        W13077   4.234  12.257   4.878  0.0556  0.2125 -0.2002
70161W        W13078   5.916  12.158   2.410 -0.1148  0.0896  0.3653
70162W        W13079   7.607  13.105   4.688  0.0889  0.0088 -0.0793
70163W        W13080   6.971  12.690   4.305  0.2644  0.4934 -0.2424
70164W        W13081   5.203  14.049   7.781  0.1469  0.0513  0.0276
70165W        W13082   4.295  12.836   4.680  0.0623 -0.1305  0.0320
70166W        W13083   4.083  10.835   4.747  0.2326 -0.0527 -0.1835
70167W        W13084   3.429  11.512   5.037  0.2893 -0.1592 -0.0549
70168W        W13085   3.376  12.959   6.841  0.3500  0.1881  0.1486
70169W        W13086   6.574  15.245   6.419  0.0061  0.0512  0.0010
70170W        W13087   4.342  10.120   4.939  0.4780 -0.0939  0.1761
70171W        W13088   5.568  16.774   5.132 -0.0656  0.0267 -0.1675
70172W        W13089   5.712  11.690   5.870 -0.2401 -0.2578  0.3313
70173W        W13090   5.853  14.912   3.632  0.1910  0.1244  0.0633
70174W        W13091   7.759  12.684   4.944 -0.0134  0.0566  0.2201
70175W        W13092   6.866  11.859   7.215  0.0466  0.1515  0.0283
70176W        W13093   3.842   9.294   3.815  0.0999 -0.0725  0.0180
70177W        W13094   5.276  13.791   5.911 -0.2699  0.0868 -0.0954
70178W        W13095   7.371  13.957   4.727 -0.1781 -0.0749  0.1052
70179W        W13096   5.444  11.393   3.197 -0.1978  0.2480  0.0837
70180W        W13097   4.146  11.082   3.848  0.0568 -0.1140 -0.1924
70181W        W13098   1.665  14.177   5.178 -0.0981  0.0055 -0.0762
70182W        W13099   7.083  12.470   3.494  0.0034 -0.2010  0.1192
70183W        W13100   6.813  12.550   5.239 -0.0215  0.2045 -0.2027
70184W        W13101   7.283  15.906   3.962  0.1526  0.0619 -0.0755
70185W        W13102   6.106  10.813   4.814  0.0173  0.0927  0.1216
70186W        W13103   4.967  13.482   5.807 -0.2799  0.2807 -0.1080
70187W        W13104   6.039  13.760   6.949  0.1559 -0.0620  0.0043
70188W        W13105   4.246  11.791   3.153 -0.1519 -0.1277  0.3044
70189W        W13106   4.745  10.787   4.309  0.2168  0.0197 -0.3129
70190W        W13107   4.447  14.220   4.060 -0.2833 -0.1566  0.0297
70191W        W13108   5.840  13.173   5.346  0.0538 -0.0271  0.0205
70192W        W13109   7.631  14.901   5.550 -0.0890  0.1238 -0.1726
70193W        W13110   5.005  12.638   4.851  0.0491 -0.0081 -0.1448
70194W        W13111   5.180  13.000   5.964  0.1467  0.0886  0.1751
70195W        W13112   3.652  10.921   5.754 -0.0198  0.3958  0.1098
70196W        W13113   7.309  11.179   2.711  0.1140 -0.2128 -0.3835
70197W        W13114   7.205  11.928   3.697 -0.2578  0.0849 -0.0056
70198W        W13115   4.800  14.138   5.325 -0.0441  0.1273 -0.1797
70199W        W13116   2.023  12.188   4.671 -0.1574  0.1029 -0.1179
70200W        W13117   4.995  12.261   3.530 -0.1525 -0.1329  0.2778
70201W        W13118   4.727  12.520   6.361  0.0121  0.2388  0.2628
70202W        W13119   7.514  11.890   5.239  0.1474  0.0903 -0.0309
70203W        W13120   7.110  10.684   6.728  0.3024 -0.0263 -0.0780
70204W        W13121   3.411  14.005   4.338  0.3244  0.3186 -0.2427
70205W        W13122   2.816  12.979   4.120 -0.1358  0.2992 -0.2551
70206W        W13123   8.235  14.150   4.019  0.0831  0.2016 -0.3252
70207W        W13124   4.427   9.611   4.831 -0.4514  0.0856  0.1916
70208W        W13125   3.921  11.970   6.625  0.0694 -0.2051  0.1958
70209W        W13126   8.360  13.658   4.044 -0.0473  0.2178  0.0538
70210W        W13127   8.661  13.909   5.613 -0.0378  0.1566  0.0035
70211W        W13128   6.388  12.384   4.418 -0.2864 -0.0989 -0.1641
70212W        W13129   5.289  15.077   7.417  0.1164 -0.2356 -0.0088
70213W        W13130   3.936  13.202   4.867 -0.1116  0.0184 -0.0664
70214W        W13131   8.019  12.463   5.766 -0.0973 -0.1468  0.0580
70215W        W13132   5.217   9.552   5.671 -0.2659  0.0102 -0.0477
70216W        W13133   1.619  11.843   3.665 -0.2209 -0.0139  0.2358
70217W        W13134   3.823  11.056   4.440  0.2285  0.2761 -0.0260
70218W        W13135   3.356  15.298   5.114  0.0260 -0.3805 -0.0053
70219W        W13136   5.725  15.069   4.699 -0.2315  0.2573  0.0304
70220W        W13137   3.944  14.810   5.205  0.0002 -0.2396  0.2954
70221W        W13138   4.078  15.160   7.285 -0.1554  0.0003  0.0060
70222W        W13139   3.061  12.370   6.429  0.0324 -0.1120  0.1782
70223W        W13140   5.504  14.919   5.448 -0.0675  0.0199  0.1953
70224W        W13141   4.592  12.646   7.778  0.3982  0.2678 -0.0131
70225W        W13142   6.942  14.063   4.529  0.2776 -0.1365 -0.0609
70226W        W13143   8.094  10.386   5.633  0.0216  0.1362  0.3175
70227W        W13144   7.844  13.127   2.622 -0.1288  0.1510 -0.1998
70228W        W13145   3.687  12.053   5.477  0.0557 -0.2943  0.1436
70229W        W13146   4.043  11.263   7.196 -0.3477 -0.2453 -0.0540
70230W        W13147   8.881  12.055   3.781 -0.0660 -0.3001 -0.1154
70231W        W13148   4.651  10.552   4.800  0.2771 -0.1792 -0.2742
70232W        W13149   6.998  10.548   5.019 -0.1871  0.1510 -0.0521
70233W        W13150   5.968  14.228   4.243 -0.0687 -0.0738 -0.2023
70234W        W13151   4.374  13.938   6.127 -0.0994 -0.5323  0.1421
70235W        W13152   5.475  11.245   4.662 -0.0388 -0.1723 -0.1116
70236W        W13153   5.095  12.287   4.505 -0.1867 -0.2452 -0.0342
70237W        W13154   6.057  13.233   3.669  0.2650 -0.1426  0.3209
70238W        W13155   6.032  15.716   6.603  0.1630  0.0143  0.1125
70239W        W13156   5.555  11.807   2.189 -0.0467 -0.1479  0.1789
70240W        W13157   7.484  14.003   4.224 -0.3578 -0.3573  0.1060
70241W        W13158   5.151  14.942   6.651 -0.1425 -0.0336 -0.0182
70242W        W13159   8.305  12.044   6.084 -0.0669 -0.0931 -0.0287
70243W        W13160   4.854  14.746   4.867 -0.0491  0.2416 -0.0784
70244W        W13161   7.783  13.456   3.577 -0.0160 -0.2432  0.0354
70245W        W13162   3.594   9.464   5.522 -0.3927  0.0658 -0.1235
70246W        W13163   6.135  12.818   5.081 -0.3532 -0.0178  0.0249
70247W        W13164   4.222  14.198   2.609  0.0937  0.0697  0.0017
70248W        W13165   6.519  11.930   5.342 -0.1364 -0.1133 -0.3160
70249W        W13166   4.712   9.595   5.731 -0.1750  0.0483 -0.0775
70250W        W13167   6.236  10.597   5.624 -0.0238  0.1015  0.0597
70251W        W13168   3.516  14.450   7.000  0.0337 -0.0010  0.2720
70252W        W13169   3.510  14.920   4.258  0.0827  0.0546  0.0281
70253W        W13170   3.308  13.124   8.835  0.3634  0.4482 -0.1269
70254W        W13171   5.626  11.508   8.875 -0.1437  0.0719 -0.2629
70255W        W13172   7.213  10.460   6.247  0.0620  0.2373 -0.1857
70256W        W13173   7.786  12.805   9.188 -0.0040 -0.0379  0.2367
70257W        W13174   5.927  11.749   9.177 -0.0985 -0.2896 -0.0730
70258W        W13175   6.019  16.310   9.160  0.3545 -0.1702  0.1128
70259W        W13176   6.029  14.715   9.317 -0.1537  0.2745 -0.0152
70260W        W13177   8.761  15.289   8.310  0.0924  0.1013 -0.0953
70261W        W13178   6.277  13.676   8.171 -0.3015 -0.1339  0.0784
70262W        W13179   3.169  11.397   8.772  0.1155  0.0331  0.2689
70263W        W13180   5.801   8.404   7.728 -0.0655  0.0742  0.1983
70264W        W13181   6.209   9.418   9.131 -0.3462 -0.1622  0.0545
70265W        W13182   8.585  13.094   9.110 -0.2015  0.0671 -0.0542
70266W        W13183   6.094  12.901   7.717 -0.1425 -0.2636  0.0270
70267W        W13184   4.095  12.502   8.797 -0.0824 -0.2004  0.2132
70268W        W13185   5.593  11.512   7.385 -0.0381  0.3223 -0.4877
70269W        W13186   4.996  15.817   8.439  0.0532 -0.2075  0.2974
70270W        W13187   4.967  14.621   8.486 -0.1848 -0.2454 -0.1519
70271W        W13188   4.993  14.816   8.917 -0.0450  0.1043  0.0489
70272W        W13189   2.703  12.944   7.425  0.0327 -0.0651 -0.1235
70273W        W13190   3.311  12.135   8.343  0.2754  0.0089 -0.0725
70274W        W13191   3.940  11.877   9.336  0.1187 -0.2524 -0.0523
70275W        W13192   3.907  12.849   9.075 -0.1837  0.0503 -0.0351
70276W        W13193   7.436  12.626   6.976  0.4945  0.0063  0.1245
70277W        W13194   5.443  12.985   7.581  0.3127  0.1695  0.1578
70278W        W13195   5.661  15.398   8.449  0.3645  0.0324 -0.0456
70279W        W13196   2.324  13.898   9.159 -0.1750 -0.1645  0.0725
70280W        W13197   4.168  14.346   9.098  0.0013  0.0097 -0.2440
70281W        W13198   5.979  12.765   6.345  0.3822  0.1174  0.0192
70282W        W13199   7.025  15.183   4.932 -0.2458 -0.1684 -0.0618
70283W        W13200   3.613  13.533   6.618 -0.0842 -0.1145 -0.1938
70284W        W13201   5.641  13.524   9.242  0.0298 -0.3425  0.2459
70285W        W13202   5.425  13.270   8.035  0.0479  0.1796  0.0490
70286W        W13203   4.390  14.327   6.464 -0.0022  0.0458 -0.2644
70287W        W13204   6.505  10.862   9.056  0.0244  0.0466  0.1154
70288W        W13205   5.587  14.258   8.140  0.1611 -0.1105 -0.2398
70289W        W13206   5.389  12.705   8.032  0.2478  0.3950 -0.3246
70290W        W13207   8.081  14.176   6.960  0.1792  0.1499 -0.0094
70291W        W13208   5.437  11.234   6.040 -0.1793 -0.0336 -0.2259
70292W        W13209   6.288  11.253   6.927 -0.0574  0.2601  0.5976
70293W        W13210   4.821  10.372   7.779  0.0962  0.0984 -0.2050
70294W        W13211   4.860  15.735   7.889 -0.1469  0.2264 -0.2909
70295W        W13212   3.812  12.286   8.372 -0.0172 -0.2327  0.1875
70296W        W13213   6.512  13.273   9.098  0.2986  0.0492  0.1275
70297W        W13214   4.804  13.179   8.729 -0.4688  0.1582 -0.0297
70298W        W13215   4.791  13.824   8.268 -0.0691  0.2683 -0.0947
70299W        W13216   4.743  13.061   7.013 -0.0573  0.1668 -0.2708
70300W        W13217   5.637  14.532   5.008 -0.1601 -0.2842 -0.1419
70301W        W13218   6.827  13.200   6.942 -0.1625  0.1765 -0.1438
70302W        W13219   7.136  11.729   6.668 -0.2926 -0.0395 -0.1425
70303W        W13220   3.961  11.913   9.825 -0.1238 -0.1581  0.0874
70304W        W13221   5.203  10.532   6.559 -0.1112  0.1216 -0.0027
70305W        W13222   6.555  10.177   7.048  0.1343  0.1126  0.1276
70306W        W13223   6.103  12.766   9.030  0.2511 -0.3031  0.1445
70307W        W13224   5.397  12.402   8.497 -0.2498  0.3491  0.4218
70308W        W13225   6.451  13.267   7.823 -0.0189  0.1718 -0.0552
70309W        W13226   5.815  12.273   9.225  0.0783  0.1240  0.2546
70310W        W13227   5.692  10.478   8.612 -0.0319 -0.3604 -0.3426
70311W        W13228   6.490  10.508   7.443 -0.3884  0.1407  0.0038
70312W        W13229   7.561  11.113   7.715  0.3931 -0.0671  0.1371
70313W        W13230   5.724  11.705   9.614 -0.2636 -0.1202 -0.1016
70314W        W13231   7.863  13.615   7.207  0.0313 -0.0571 -0.3481
70315W        W13232   5.282  13.782   8.898  0.0274 -0.1729 -0.1859
70316W        W13233   4.733  14.313   7.016 -0.0013  0.3713 -0.0616
70317W        W13234   2.514  14.208   8.705 -0.1633 -0.0696 -0.3116
70318W        W13235   5.335  14.163   9.426  0.1609 -0.0470 -0.1166
70319W        W13236   2.787  10.255   8.801 -0.3348 -0.3761 -0.1811
70320W        W13237   5.888   7.696   8.840 -0.1278 -0.3850  0.2676
70321W        W13238   6.966  12.375   7.157 -0.1498  0.0699  0.0839
70322W        W13239   8.912  11.498   7.528 -0.1885 -0.4637 -0.1720
70323W        W13240   3.666  12.149   8.968  0.1011 -0.0624  0.0068
70324W        W13241   7.952  14.012   5.875  0.2037  0.0012  0.1497
70325W        W13242   6.719  10.931   7.207 -0.1192 -0.3309 -0.0618
70326W        W13243   7.046  15.600   5.504  0.3110 -0.1841  0.1559
70327W        W13244   4.169  11.040   8.794  0.2103  0.0943 -0.1254
70328W        W13245   7.257  11.992   9.404 -0.0789 -0.0876 -0.0747
70329W        W13246   6.305  12.229   8.930  0.1375  0.1598 -0.2931
70330W        W13247   5.206  10.839   7.976 -0.1639 -0.0508 -0.0908
70331W        W13248   7.685   9.471   8.244  0.2636  0.0478 -0.0591
70332W        W13249   5.758  13.033   8.389  0.0871  0.0813 -0.1180
70333W        W13250   4.418  12.588   6.021 -0.0464 -0.1587  0.1234
70334W        W13251   4.098  14.880   7.728 -0.1272 -0.0843 -0.0773
70335W        W13252   8.267  12.640   8.985  0.1331  0.2720  0.0234
70336W        W13253   6.996  15.439   7.503  0.0479  0.1202 -0.3250
70337W        W13254   4.927  12.509   8.166  0.2656  0.2088  0.2171
70338W        W13255   4.951  12.170   8.619 -0.3062  0.2259 -0.2190
70339W        W13256   3.569  14.959   9.025 -0.1144  0.2028  0.0446
70340W        W13257   4.828  13.705   8.757  0.1526  0.0932 -0.1678
70341W        W13258   5.978  12.005   5.151 -0.0037 -0.0733  0.0175
70342W        W13259   7.350  13.858   8.705  0.0038 -0.1739 -0.2536
70343W        W13260   6.521  13.435   6.630 -0.0318  0.0028  0.1092
70344W        W13261   6.634  13.299   8.367 -0.2206  0.2804  0.1499
70345W        W13262   6.104  10.786   7.379 -0.0063  0.2252  0.2429
70346W        W13263   3.998  11.741   5.056  0.0506  0.3043 -0.1582
70347W        W13264   7.422  15.250   7.217  0.2497 -0.1742 -0.1881
70348W        W13265   4.661  14.078   7.853 -0.1504 -0.1160  0.0261
70349W        W13266   2.881  13.799   8.993  0.1352 -0.0187 -0.0289
70350W        W13267   6.111  14.470   7.367 -0.1726 -0.0260  0.2660
70351W        W13268   7.417  11.577   8.873 -0.0194  0.2352 -0.0620
70352W        W13269   4.792  11.351   7.278 -0.0710  0.1926 -0.3163
70353W        W13270   7.534  10.511   7.038 -0.0162 -0.1776 -0.0634
70354W        W13271   7.584  11.706   6.274  0.1404  0.2509  0.0687
70355W        W13272   7.227  13.511   7.110  0.3404 -0.0577 -0.1266
70356W        W13273   5.667  11.200   5.474  0.0634 -0.0399 -0.1654
70357W        W13274   6.216  10.225   6.273  0.1739 -0.0840  0.1131
70358W        W13275   4.578  14.260   8.317  0.0811 -0.2077  0.0979
70359W        W13276   7.450  15.320   8.195 -0.0377 -0.1723 -0.0511
70360W        W13277   6.770  11.556   6.356 -0.5834 -0.1757 -0.2972
70361W        W13278   7.605  14.162   6.868  0.0366 -0.1272 -0.2823
70362W        W13279   1.937  15.143   8.363  0.2914 -0.5161  0.0096
70363W        W13280   6.905  12.358   8.159  0.0324 -0.0485  0.1701
70364W        W13281   6.660   9.877   8.494  0.1685  0.0139  0.0324
70365W        W13282   5.362  10.469   7.697 -0.1062  0.4043  0.0433
70366W        W13283   4.713  11.782   7.571 -0.0267  0.0563  0.1914
70367W        W13284   2.801  13.954   7.300 -0.0282  0.0313  0.0828
70368W        W13285   5.401  11.708   8.053  0.0827 -0.0487  0.2013
70369W        W13286   5.953  12.600   8.133  0.1267 -0.0538 -0.3603
70370W        W13287   8.057  10.808   6.352 -0.2375  0.2527 -0.0147
70371W        W13288   6.648  12.934   7.469  0.0737  0.1983  0.1534
70372W        W13289   6.560  13.997   6.509  0.0777  0.0903 -0.0349
70373W        W13290   7.042  12.962   8.989  0.3746 -0.1326  0.2111
70374W        W13291   1.745  13.025  10.024  0.0499 -0.2250 -0.2581
70375W        W13292   6.445  12.466   7.918 -0.0723 -0.0985 -0.0302
70376W        W13293   7.300  12.366   5.253  0.1301  0.0633  0.1272
70377W        W13294   6.017  12.579   5.718 -0.0237 -0.3377 -0.1081
70378W        W13295   5.596  10.951   7.496 -0.1434 -0.0874  0.3255
70379W        W13296   6.047  11.360   7.470 -0.0370  0.1028 -0.0765
70380W        W13297   5.722  12.032   8.830  0.2802 -0.1770  0.0725
70381W        W13298   6.380  14.578   8.555 -0.2970  0.2139  0.1776
70382W        W13299   4.837  11.721   8.137  0.0642 -0.5475  0.0371
70383W        W13300   4.031  12.292   7.840  0.1873 -0.1694 -0.1041
70384W        W13301   7.438  10.044   7.363  0.1023 -0.1068 -0.4590
70385W        W13302   4.939  15.008   7.788 -0.3376  0.0328  0.0223
70386W        W13303   6.972  10.553   5.490 -0.3557  0.2066  0.0331
70387W        W13304   1.831  13.696   8.076  0.1939  0.2708  0.2948
70388W        W13305   6.854  11.235   8.034 -0.0703  0.0144  0.2217
70389W        W13306   6.586  14.622   5.676 -0.0965  0.3051  0.0157
70390W        W13307   4.488  12.804   9.174  0.1403  0.1737 -0.2246
70391W        W13308   4.264  13.283   9.281  0.0870 -0.0289 -0.1516
70392W        W13309   5.162  10.771   8.525 -0.2379 -0.1996 -0.0883
70393W        W13310   6.588  10.644   6.778 -0.0057  0.0134 -0.3000
70394W        W13311   4.221  11.307   7.656 -0.1367 -0.1645 -0.1093
70395W        W13312   6.679  12.769   9.208  0.1142  0.2586 -0.1220
70396W        W13313   4.031  11.405   9.505  0.1168 -0.1566  0.0039
70397W        W13314   3.280  15.280   9.258 -0.3893 -0.2439 -0.2675
70398W        W13315   5.911  13.697   8.838  0.0840 -0.0383 -0.3175
70399W        W13316   4.405  11.052   6.801  0.1735 -0.1215 -0.3816
70400W        W13317   5.328  12.333   8.986 -0.1091  0.1984 -0.0169
70401W        W13318   6.859  13.817   8.373  0.1518  0.0316  0.4629
70402W        W13319   4.642  15.061   9.462 -0.1850  0.3109  0.2565
70403W        W13320   4.889  11.159   6.753  0.1012 -0.0003  0.0770
70404W        W13321   5.546  14.623   9.585 -0.2204 -0.1030  0.0676
70405W        W13322   6.767  11.771   9.554 -0.1320  0.1074 -0.0953
70406W        W13323   4.764  10.731   7.005  0.0738  0.0422  0.0875
70407W        W13324   8.322  10.458   7.691 -0.1750  0.1120  0.0682
70408W        W13325   7.216  13.524   6.035 -0.0695 -0.3102 -0.3460
70409W        W13326   3.923  12.489   7.029 -0.0677  0.2573  0.1239
70410W        W13327   4.110  11.799   7.572 -0.4366  0.0644  0.0841
70411W        W13328   3.710  13.680   7.634  0.0583 -0.0802 -0.1595
70412W        W13329   6.123  14.226   9.517 -0.1872 -0.0832 -0.0191
70413W        W13330   3.424  14.694   9.876  0.0156  0.1332 -0.0709
70414W        W13331   3.762  14.658   7.415 -0.0289  0.0300  0.1803
70415W        W13332   6.476  14.616   9.131 -0.3418 -0.1023  0.1386
70416W        W13333   8.242  10.292   6.254  0.1088  0.0354  0.0245
70417W        W13334   5.536  12.779   5.609 -0.1790 -0.1258 -0.1522
70418W        W13335   6.943  11.602   7.692  0.2673  0.5765  0.0309
70419W        W13336   6.381  12.755   6.104 -0.0747 -0.0155  0.0597
70420W        W13337   7.212   9.744   7.963 -0.0012 -0.0980  0.1379
70421W        W13338   7.880  12.825   8.731  0.0372 -0.2492  0.2828
70422W        W13339   6.265  12.067   8.110  0.0045  0.4413  0.2504
70423W        W13340   3.643  11.052   7.407  0.0012  0.0644  0.1807
70424W        W13341   5.085  13.410   8.364 -0.3011 -0.0361  0.2060
70425W        W13342   7.600  11.208   9.595  0.1689 -0.1213 -0.2179
70426W        W13343   6.054  12.259   6.098  0.1796  0.0253  0.1099
70427W        W13344   7.771  13.439   8.012 -0.0364  0.4002  0.2792
70428W        W13345   4.376  12.442   8.256  0.0052  0.2776  0.1317
70429W        W13346   6.719  11.802   8.190  0.0026 -0.0130  0.0776
70430W        W13347   4.703  12.224   7.329  0.1956 -0.1459  0.0560
70431W        W13348   3.268  14.068   8.631  0.2510 -0.2089  0.0168
70432W        W13349   6.910  12.504   8.832 -0.0601  0.0296 -0.0549
70433W        W13350   6.416   9.542   6.989  0.3424  0.0647  0.3812
70434W        W13351   6.764  14.527   8.255 -0.0591 -0.0820 -0.0883
70435W        W13352   7.556  10.810   6.452 -0.2416  0.1805 -0.4782
70436W        W13353   6.655  13.757   9.333  0.1526 -0.2441  0.1217
70437W        W13354   6.802  12.883   8.068 -0.0733 -0.0155  0.1106
70438W        W13355   4.960  10.798   5.267  0.1316 -0.0324  0.2489
70439W        W13356   3.387  14.540   9.268  0.2662  0.1496  0.0189
70440W        W13357   4.292  10.643   5.152 -0.2383 -0.1623  0.0795
70441W        W13358   6.378  12.898   5.565  0.1144  0.3049  0.0035
70442W        W13359   6.648  15.083   8.697  0.1548 -0.2015 -0.0221
70443W        W13360   6.812  11.177   6.726 -0.2317 -0.1021 -0.0360
70444W        W13361   5.195  10.131   8.592  0.1432  0.0389  0.1458
70445W        W13362   3.469  12.469   6.773  0.3852 -0.0730  0.1117
70446W        W13363   6.328  12.487   6.552  0.3871 -0.2084  0.2553
70447W        W13364   6.651  12.077   8.586 -0.1189  0.1256 -0.3988
70448W        W13365   6.056  11.236   5.136 -0.2891 -0.1830  0.1290
70449W        W13366   4.132  12.833   7.729 -0.2083  0.0665  0.0441
70450W        W13367   5.954  13.786   7.476  0.0690  0.1092  0.4275
70451W        W13368   4.153  14.307   8.599 -0.1250 -0.1895 -0.1248
70452W        W13369   6.436  13.636   8.704 -0.1366 -0.2832  0.0140
70453W        W13370   5.695  13.246   9.683 -0.1644 -0.1385  0.0449
70454W        W13371   6.718  12.094   7.784  0.0299  0.0969 -0.3392
70455W        W13372   5.632  12.818   8.862 -0.0734  0.2984  0.1400
70456W        W13373   6.138  13.202   8.730 -0.0206  0.2641  0.2083
70457W        W13374   7.408  13.727   6.652 -0.1480 -0.1561  0.1306
70458W        W13375   5.144  13.326   9.067 -0.0916  0.0594 -0.0520
70459W        W13376   6.953  10.956   8.509 -0.0359  0.2683 -0.1245
70460W        W13377   5.611  10.919   8.295  0.2321 -0.3052 -0.1618
70461W        W13378   5.501  12.216   8.038  0.0344  0.1788 -0.1962
70462W        W13379   4.265  14.225   9.539 -0.0131 -0.2501 -0.3925
70463W        W13380   5.496  13.674   7.193 -0.1318 -0.1034 -0.1428
70464W        W13381   7.838  12.285   8.956  0.2932  0.0716  0.0506
70465W        W13382   5.879  14.831   8.462  0.2541  0.0516  0.1823
70466W        W13383   5.351  13.814   8.221  0.0230 -0.0598  0.0317
70467W        W13384   4.141  10.635   7.959 -0.1472 -0.2061  0.2051
70468W        W13385   3.765  13.965   9.311  0.1174 -0.1883  0.1818
70469W        W13386   5.339  14.163   7.161 -0.3013 -0.2161  0.0615
70470W        W13387   7.144  11.966   8.434  0.1751 -0.1111 -0.1256
70471W        W13388   5.072  16.872   9.838 -0.0814  0.2971  0.1262
70472W        W13389   7.816  11.610   5.876  0.1414 -0.4669  0.3455
70473W        W13390   6.837  13.379   7.430  0.1466  0.0760  0.1910
70474W        W13391   6.888  12.544   7.655  0.1351 -0.0079 -0.0624
70475W        W13392   8.560  13.808   7.814  0.1087 -0.2444  0.0374
70476W        W13393   6.153  10.439   7.020 -0.1440  0.1709  0.0269
70477W        W13394   6.616  14.301   6.944  0.3917  0.2807 -0.1155
70478W        W13395   5.535  12.199   9.628  0.0763  0.0589  0.4150
70479W        W13396   6.053  14.162   8.322 -0.0361  0.1113  0.0025
70480W        W13397   8.044   9.906   8.259 -0.1883  0.0300 -0.2332
70481W        W13398   5.043  13.554   7.865  0.2541 -0.2011  0.4698
70482W        W13399   3.221  11.297   9.297  0.2187 -0.0798 -0.3637
70483W        W13400   5.057  13.465   6.807  0.1258 -0.2125 -0.0795
70484W        W13401   5.823  15.578   8.049 -0.1209 -0.1077 -0.3012
70485W        W13402   4.042  15.262   9.686 -0.1220  0.0409  0.2206
70486W        W13403   4.178  10.430   9.466 -0.2249  0.1518 -0.4133
70487W        W13404   7.068  11.154   7.534 -0.0781  0.2911 -0.0518
70488W        W13405   7.826  10.817   9.826 -0.0717 -0.1166 -0.1574
70489W        W13406   5.034  12.070   7.792 -0.0925 -0.0221 -0.0424
70490W        W13407   7.017  11.387   7.089 -0.0354  0.1864  0.3064
70491W        W13408   4.238  13.898   8.313 -0.3060 -0.0335 -0.0524
70492W        W13409   6.474  10.263   8.951  0.0984  0.0507 -0.0879
70493W        W13410   6.252  11.615   6.444 -0.2456  0.1316 -0.3173
70494W        W13411   6.928  13.423   7.919  0.2197 -0.1901 -0.0849
70495W        W13412   6.025  11.080   8.021  0.0464 -0.1809  0.1480
70496W        W13413   5.562  10.121   6.849 -0.0659 -0.2299 -0.1653
70497W        W13414   6.073  13.208   6.761  0.0294 -0.0301  0.0283
70498W        W13415   7.089  13.400   8.593 -0.0959  0.0053  0.0570
70499W        W13416   5.674   9.869   9.333  0.2437  0.1230 -0.2358
70500W        W13417   4.887  15.252   5.844 -0.1624 -0.2229 -0.2125
70501W        W13418   6.948  13.295   9.353  0.2929  0.2908 -0.4799
70502W        W13419   5.284  15.446   7.792 -0.0549 -0.1602 -0.1680
70503W        W13420   7.135  13.819   9.403 -0.0501  0.2886 -0.0682
70504W        W13421   5.861  13.317   7.386 -0.3375  0.2482  0.0252
70505W        W13422   6.012  10.561   8.259  0.2289 -0.2841 -0.0572
70506W        W13423   6.012   9.116   9.535  0.0954  0.1017 -0.2567
70507W        W13424   8.490  11.570   9.794 -0.0442  0.0505 -0.2102
70508W        W13425   4.732  10.225   7.245 -0.1296 -0.0533  0.0150
70509W        W13426   4.531  13.458   8.079 -0.0160 -0.1565 -0.3243
70510W        W13427   4.407  15.082   9.016 -0.0781  0.1511  0.0984
70511W        W13428   9.307  11.521  11.333  0.2986  0.2570  0.1681
70512W        W13429   5.973  14.182   4.754 -0.0029 -0.0702 -0.1051
70513W        W13430   4.694  13.525   9.185 -0.0911  0.1527  0.1565
70514W        W13431   4.716  11.293   7.788  0.1417  0.0544 -0.1032
70515W        W13432   6.843  14.201   7.574 -0.1667  0.2041  0.3687
70516W        W13433   4.928  14.338   7.451 -0.1799  0.0749 -0.1458
70517W        W13434   5.962  12.373   8.579 -0.0157  0.2518 -0.1177
70518W        W13435   6.271  13.079   9.647 -0.1844  0.0476 -0.0755
70519W        W13436   6.619  15.032   7.646  0.1381  0.0014  0.0543
70520W        W13437   6.452  10.415   7.958 -0.1792 -0.2680 -0.0839
70521W        W13438   7.639  11.729   6.744  0.3433  0.2212 -0.1430
70522W        W13439   6.934   9.991   7.310  0.0067 -0.0635 -0.0877
70523W        W13440   2.981  11.764   9.532  0.0601 -0.0125  0.0073
70524W        W13441   3.693  10.224   9.563  0.3538 -0.4144 -0.0651
70525W        W13442   5.321  12.559   7.024  0.1307 -0.3180  0.2028
70526W        W13443   7.239  14.528   8.558  0.0861  0.0718 -0.0941
70527W        W13444   3.814  14.008   7.237 -0.0897 -0.1520 -0.1272
70528W        W13445   3.647  11.501   9.073 -0.1571 -0.2956 -0.1166
70529W        W13446   5.841  13.552   6.008  0.1170 -0.2465  0.1014
70530W        W13447   5.885  12.787   9.539 -0.2230 -0.0189 -0.0488
70531W        W13448   3.395  13.583   9.032  0.1190 -0.2453  0.1394
70532W        W13449   6.114  14.080   7.861 -0.1326  0.0084 -0.0065
70533W        W13450   4.699  15.090   8.604  0.0058  0.2063  0.0529
70534W        W13451   5.722  10.912   6.310  0.4206  0.1588  0.0892
70535W        W13452   3.483  12.508   5.414  0.0945  0.2155  0.0379
70536W        W13453   5.290  11.502   5.584  0.4243 -0.1005 -0.2589
70537W        W13454   6.580  11.450   7.326  0.0202 -0.2258 -0.2639
70538W        W13455   4.904  14.942   9.849 -0.0030  0.0661 -0.0325
70539W        W13456   6.618  16.369   9.074  0.1240  0.1147 -0.0702
70540W        W13457   6.218  11.396   9.464 -0.1854 -0.1110  0.2070
70541W        W13458   8.147  11.334   9.177  0.5266 -0.2210  0.1643
70542W        W13459   7.998  12.404   9.478  0.3575  0.2139 -0.2318
70543W        W13460   6.450   9.989   7.643  0.1358  0.3274  0.1907
70544W        W13461   6.387  12.512   7.389 -0.0315  0.0884  0.0347
70545W        W13462   7.102   8.462   9.337 -0.1627 -0.1617  0.3415
70546W        W13463   1.322  11.537   7.590  0.0516  0.0736 -0.0229
70547W        W13464   5.845  11.939   8.320 -0.3091 -0.0776  0.0065
70548W        W13465   5.828  13.663   8.364  0.0137  0.3533  0.0002
70549W        W13466   2.321  11.973   7.221 -0.0508  0.0290 -0.2714
70550W        W13467   4.925  12.032   6.416 -0.1565  0.4509 -0.1668
70551W        W13468   2.734  11.516   9.056 -0.2457 -0.2136  0.1997
70552W        W13469   5.125  11.988   7.295 -0.2760  0.2877  0.2987
70553W        W13470   6.326  15.894   9.171 -0.0345  0.1972  0.1835
70554W        W13471  10.379  12.469   8.019 -0.2990  0.0054 -0.0234
70555W        W13472   5.454  17.047   8.781 -0.3216  0.3120 -0.0264
70556W        W13473   5.725   8.307   9.867 -0.0036 -0.2079 -0.0447
70557W        W13474   5.189  11.516   7.625  0.3378  0.0417  0.2068
70558W        W13475   4.738  12.649   8.597  0.0168 -0.0214 -0.3571
70559W        W13476   5.734  14.219   7.563  0.0935  0.0069  0.0286
70560W        W13477   6.023  13.241   9.224  0.2515  0.2142 -0.0982
70561W        W13478   1.567  13.185   8.708 -0.1865 -0.0874  0.1111
70562W        W13479   6.875  12.146   6.733 -0.0996  0.0528  0.4263
70563W        W13480   6.166  15.327   8.427  0.2919  0.0454 -0.0932
70564W        W13481   4.406  13.466   8.726 -0.2248  0.0071  0.1961
70565W        W13482   4.528  16.040   2.813  0.1666  0.5088 -0.4234
70566W        W13483   4.890  16.188   2.071 -0.1901 -0.0622  0.1609
70567W        W13484   7.279  16.136   0.578 -0.1892 -0.0032  0.0297
70568W        W13485   7.238  15.525   0.066  0.1566 -0.1100  0.0969
70569W        W13486   5.947  16.580  30.987  0.2329 -0.1997 -0.0134
70570W        W13487   5.774  17.102   0.482  0.2217 -0.0812 -0.2996
70571W        W13488   7.008  16.807   3.499 -0.0297  0.2118 -0.0139
70572W        W13489   6.066  16.226   0.652  0.2500 -0.1777 -0.0299
70573W        W13490   7.788  16.613   2.113  0.0028  0.0181 -0.1400
70574W        W13491   7.573  15.752   0.369 -0.2630 -0.1293  0.0253
70575W        W13492   4.253  16.321   1.409 -0.1905  0.0267 -0.1876
70576W        W13493   5.950  18.051   1.134 -0.0367  0.3637  0.0236
70577W        W13494   5.201  15.893   1.105 -0.0900  0.0347  0.1597
70578W        W13495   3.373  15.136   1.898 -0.0471 -0.0178  0.0892
70579W        W13496   7.767  16.485   2.715  0.2215  0.0183  0.0780
70580W        W13497   5.346  16.738   3.511  0.1435  0.1548  0.0472
70581W        W13498   4.631  16.122   3.422 -0.2237 -0.0343  0.0395
70582W        W13499   4.967  16.752  31.511 -0.0853  0.2201 -0.3479
70583W        W13500   7.272  17.830   1.928  0.0058 -0.0370 -0.0767
70584W        W13501   4.988  14.911   1.763  0.1498 -0.0285  0.1130
70585W        W13502   4.203  12.796   2.564  0.3105  0.0268  0.0319
70586W        W13503   6.367  17.007  31.591 -0.2191 -0.2817 -0.2380
70587W        W13504   7.035  15.322   0.993  0.0299  0.0965 -0.3675
70588W        W13505   5.185  16.636   1.940 -0.0868 -0.1832  0.1065
70589W        W13506   5.456  17.591   2.291  0.0313  0.0727 -0.1571
70590W        W13507   4.750  14.879   3.521 -0.2338 -0.1395  0.1416
70591W        W13508   6.563  16.151   3.372 -0.1941  0.2075  0.1452
70592W        W13509   6.139  18.751   1.971 -0.1302 -0.3213 -0.1408
70593W        W13510   7.217  14.888   1.056  0.4923 -0.1324 -0.2092
70594W        W13511   8.192  14.954   4.231  0.3195  0.1125  0.1518
70595W        W13512   6.034  18.226  31.717  0.1919  0.1335  0.0886
70596W        W13513   2.988  18.390   1.917 -0.0550  0.1646  0.0034
70597W        W13514   4.446  18.230   1.886  0.4052 -0.2090  0.0185
70598W        W13515   7.444  15.999   2.165  0.1498  0.0050 -0.0260
70599W        W13516   6.795  17.139   3.759 -0.0288  0.0822  0.0048
70600W        W13517   4.477  17.884   4.569  0.0234 -0.0025  0.0985
70601W        W13518   4.274  18.052   0.254 -0.0331 -0.0240  0.4294
70602W        W13519   6.321  18.986   3.535 -0.0438  0.1970 -0.0189
70603W        W13520   4.628  17.052   5.043 -0.1620 -0.0592 -0.0073
70604W        W13521   8.891  16.059   3.571  0.2709 -0.1591  0.1269
70605W        W13522   7.979  16.717   1.542  0.0148  0.1634  0.0819
70606W        W13523   4.813  19.218   1.751  0.0994 -0.1252 -0.6741
70607W        W13524   5.415  15.364   3.047 -0.1981  0.1835 -0.0779
70608W        W13525   4.888  16.790   4.100  0.0426 -0.0365 -0.2308
70609W        W13526   4.811  17.427   0.561 -0.0318  0.2841  0.0208
70610W        W13527   6.765  13.216   2.695 -0.1267  0.1260  0.0443
70611W        W13528   6.044  17.261   0.059  0.1999 -0.0234  0.1822
70612W        W13529   8.117  15.004   0.851 -0.0797  0.2002  0.0202
70613W        W13530   4.623  16.020  30.943 -0.0001 -0.3637  0.2904
70614W        W13531   5.512  14.661  31.306 -0.1695 -0.0663 -0.1868
70615W        W13532   4.037  14.294  31.469  0.2524  0.3059 -0.2079
70616W        W13533   4.819  18.595   2.999 -0.1093  0.0866  0.0155
70617W        W13534   2.825  16.827   2.525  0.0380 -0.2108 -0.1411
70618W        W13535   8.721  17.786   3.831 -0.0043  0.1135 -0.6024
70619W        W13536   5.260  16.500  31.189  0.1672  0.4186  0.3031
70620W        W13537   5.230  14.261   4.044 -0.0233  0.0836  0.1625
70621W        W13538   4.589  17.955   3.925  0.3560  0.2765 -0.0211
70622W        W13539   5.642  16.441   3.273  0.1917  0.0039 -0.0746
70623W        W13540   6.159  20.066   0.447 -0.0193  0.0118 -0.1703
70624W        W13541   7.705  18.307   1.047 -0.0212 -0.1225 -0.1129
70625W        W13542   7.175  15.237   0.474  0.0790 -0.2241  0.1434
70626W        W13543   4.517  14.584   0.218 -0.1271 -0.0955 -0.0148
70627W        W13544   6.590  18.045   3.563  0.0000  0.0713  0.0365
70628W        W13545   4.129  16.256   3.519  0.2645 -0.0154  0.4787
70629W        W13546   4.442  13.870  30.885  0.0312  0.1027 -0.1943
70630W        W13547   9.833  18.377   2.995  0.1768  0.4148  0.3850
70631W        W13548   3.255  17.338   2.179 -0.0845 -0.0338  0.1131
70632W        W13549   5.959  16.253   2.036  0.0253 -0.0007  0.0880
70633W        W13550   4.418  16.568   2.677  0.0571 -0.0137  0.0033
70634W        W13551   8.724  17.941   2.209  0.0948  0.3727  0.0729
70635W        W13552   6.082  18.372   0.688 -0.0190 -0.0957 -0.0186
70636W        W13553   8.906  15.241   1.282  0.0209 -0.0329  0.0422
70637W        W13554   5.653  13.997   3.961 -0.2517  0.2187  0.1280
70638W        W13555   3.839  16.428   0.580 -0.0001 -0.1732  0.1643
70639W        W13556   5.940  14.501   2.075 -0.1604 -0.1684 -0.2222
70640W        W13557   6.496  16.464   4.376  0.0020 -0.2475  0.2080
70641W        W13558   8.453  16.775  31.088  0.2343  0.1376  0.0977
70642W        W13559   4.087  17.780   2.207 -0.0037  0.1149 -0.2208
70643W        W13560   5.353  15.858   2.295  0.6824 -0.4320 -0.1675
70644W        W13561   7.005  18.934   4.473 -0.0024 -0.1323  0.0148
70645W        W13562   4.252  18.248   0.979 -0.0071  0.2088 -0.1937
70646W        W13563   3.984  16.533   2.875  0.1820 -0.0976 -0.0627
70647W        W13564   5.643  16.616   2.128  0.3121  0.0576 -0.0373
70648W        W13565   3.553  16.675   2.716  0.1545  0.0352  0.0974
70649W        W13566   4.418  18.017   2.474 -0.0939 -0.1870  0.2713
70650W        W13567   7.934  14.310   1.152 -0.3013  0.1461  0.0794
70651W        W13568   2.151  15.408   2.859 -0.1730 -0.1203 -0.1468
70652W        W13569   7.899  15.094   2.165  0.0060 -0.0675  0.1338
70653W        W13570   5.465  16.755   0.128 -0.1309  0.0092  0.1210
70654W        W13571   6.701  19.277   1.738 -0.1458 -0.0761  0.0332
70655W        W13572   6.108  17.051   2.900  0.2009 -0.2475 -0.1132
70656W        W13573   7.268  16.613  31.454  0.1589  0.0606 -0.2259
70657W        W13574   2.587  16.967   1.562 -0.3164 -0.0957 -0.2231
70658W        W13575   4.213  15.716   2.549 -0.0540  0.2590  0.0638
70659W        W13576   6.849  15.093   3.780 -0.4250 -0.2429 -0.1836
70660W        W13577   4.835  14.901   1.301  0.0850  0.0648  0.2683
70661W        W13578   6.577  16.576   3.868  0.1456  0.0539  0.1783
70662W        W13579   4.779  16.601   1.582 -0.1765  0.0049 -0.2705
70663W        W13580   7.698  14.634   0.805 -0.3620  0.0174 -0.2204
70664W        W13581   5.448  16.220   1.926 -0.1291  0.2358  0.0687
70665W        W13582   5.807  15.499   2.173  0.0877  0.0778 -0.1048
70666W        W13583   5.276  14.003   2.346 -0.1803  0.3187  0.2195
70667W        W13584   5.601  17.953  30.908  0.0506 -0.1514 -0.1463
70668W        W13585   7.953  17.354   4.978  0.0191  0.0607  0.3333
70669W        W13586   7.633  16.473   0.660 -0.0301  0.2429 -0.0181
70670W        W13587   3.705  13.710   3.577 -0.0804 -0.2860 -0.0545
70671W        W13588   5.223  16.315   1.448 -0.1371 -0.0010 -0.1936
70672W        W13589   5.039  17.543   1.977  0.0830  0.2963 -0.0050
70673W        W13590   6.902  17.547   1.234  0.1919 -0.2667  0.0017
70674W        W13591   5.319  15.961  31.657  0.0139 -0.1986  0.1835
70675W        W13592   6.974  17.641   2.985  0.1579 -0.2642  0.3865
70676W        W13593   6.457  17.079   2.130  0.0780 -0.1781  0.0302
70677W        W13594   6.908  16.142   3.682  0.2324 -0.1090 -0.0166
70678W        W13595   7.230  14.255   2.278  0.0452  0.1682 -0.2989
70679W        W13596   8.771  16.682   2.253  0.1546 -0.0270 -0.4600
70680W        W13597   7.713  16.958   0.208 -0.3092  0.0948  0.1534
70681W        W13598   2.954  14.642  31.771  0.1166 -0.1130 -0.1535
70682W        W13599   6.103  20.362   4.030 -0.1528 -0.3282  0.1086
70683W        W13600   4.277  18.680   2.180  0.1953  0.2753  0.1144
70684W        W13601   4.173  15.451   1.569  0.1068  0.0683  0.1766
70685W        W13602   5.159  16.721   1.228 -0.1348 -0.1880 -0.1917
70686W        W13603   6.178  15.770   1.889 -0.0712  0.1475  0.0565
70687W        W13604   3.283  15.906   5.178  0.2211 -0.0534 -0.3854
70688W        W13605   5.982  16.150   3.355 -0.1614 -0.4615 -0.0349
70689W        W13606   5.339  15.423   0.941  0.2009 -0.1542  0.1304
70690W        W13607   4.781  17.622   1.495  0.0498  0.0485 -0.0832
70691W        W13608   6.786  14.903   2.860  0.3442 -0.3499 -0.1218
70692W        W13609   8.021  16.135  31.577 -0.2988  0.1734  0.0190
70693W        W13610   6.986  16.565   1.738  0.2217  0.1344  0.1059
70694W        W13611   8.193  15.900   1.180  0.0505  0.0629 -0.2500
70695W        W13612   7.221  16.208  30.536 -0.0128 -0.0234 -0.2246
70696W        W13613   5.957  14.756  31.061  0.4015  0.1268  0.2757
70697W        W13614   4.383  16.139   4.007 -0.0831 -0.2978 -0.1121
70698W        W13615   6.044  15.914   1.336 -0.3709 -0.1663 -0.0383
70699W        W13616   5.487  17.506   1.725 -0.0240  0.1608 -0.2569
70700W        W13617   5.661  15.157  31.301 -0.1494 -0.3203 -0.0568
70701W        W13618   7.990  16.184   2.319  0.0616 -0.1910 -0.4843
70702W        W13619   4.923  16.069   4.598  0.0570 -0.0656  0.3509
70703W        W13620   6.985  19.541   3.302  0.0413 -0.2210 -0.0033
70704W        W13621   6.747  16.873   0.191  0.0341 -0.2150 -0.0602
70705W        W13622   5.853  14.407   0.550  0.0172  0.3448 -0.1483
70706W        W13623   4.191  15.672  30.183  0.0069 -0.1245 -0.3040
70707W        W13624   7.038  15.107   1.499 -0.1429 -0.3115 -0.3948
70708W        W13625   4.283  18.692   1.220 -0.1501  0.0773 -0.0474
70709W        W13626   7.587  15.502   3.008 -0.0380 -0.0858  0.0545
70710W        W13627   4.781  13.891   1.458 -0.0644  0.2810  0.3256
70711W        W13628   4.168  14.557   2.984  0.0198 -0.2230 -0.1415
70712W        W13629   6.642  15.588   3.562 -0.1932  0.2280 -0.0239
70713W        W13630   7.009  15.662   0.557 -0.2338  0.0621  0.0491
70714W        W13631   5.638  15.698   0.510 -0.1970  0.0348 -0.1551
70715W        W13632   4.932  17.035   2.144 -0.0351  0.1684  0.1957
70716W        W13633   3.325  15.792   4.281  0.2100  0.4335 -0.0239
70717W        W13634   6.232  15.990   2.869 -0.0186 -0.1854  0.2714
70718W        W13635   6.118  16.585   4.031 -0.1428 -0.2815  0.1288
70719W        W13636   8.920  17.508   2.236 -0.1097 -0.0012 -0.0283
70720W        W13637   6.699  16.511  31.334 -0.1857  0.2110  0.2380
70721W        W13638   5.192  14.399   2.749  0.2303  0.1526  0.1540
70722W        W13639   7.607  15.217   0.282 -0.3615  0.1251 -0.2168
70723W        W13640   5.091  17.609   1.114 -0.0382  0.0239  0.3227
70724W        W13641   5.938  17.969   2.144  0.0277 -0.0194 -0.0040
70725W        W13642   6.173  17.665   3.029 -0.1764  0.3023 -0.2290
70726W        W13643   5.012  16.013   2.730 -0.4445  0.0004 -0.2246
70727W        W13644   4.721  16.312   0.514 -0.3374 -0.2754 -0.1468
70728W        W13645   5.688  16.742   2.751 -0.3806  0.0098  0.0362
70729W        W13646   4.477  17.557   2.807  0.1316  0.0246 -0.4847
70730W        W13647   5.461  15.322   1.782 -0.3227  0.1364 -0.0857
70731W        W13648   3.894  18.567   1.900  0.3155  0.0100  0.0340
70732W        W13649   7.800  15.328  30.407 -0.0620  0.0631  0.3210
70733W        W13650   3.922  14.700   1.421  0.3288 -0.0151 -0.0542
70734W        W13651   7.171  15.734   2.730  0.3158  0.2650  0.1230
70735W        W13652   7.513  16.174   1.130  0.2732 -0.1233 -0.1934
70736W        W13653   4.299  13.794   1.498 -0.0750 -0.1804 -0.2659
70737W        W13654   5.414  14.883   2.772  0.0783  0.1464  0.3100
70738W        W13655   3.959  17.386   1.102 -0.0522  0.0370  0.1689
70739W        W13656   4.901  15.189   3.906 -0.1062  0.2646 -0.2124
70740W        W13657   7.586  15.184   0.898 -0.0278  0.0098 -0.3534
70741W        W13658   6.910  17.513   2.068 -0.0778  0.1144 -0.0465
70742W        W13659   6.185  17.041   3.727  0.0839  0.1918  0.5043
70743W        W13660   3.978  15.946   0.512 -0.2610 -0.1135 -0.0154
70744W        W13661   7.647  18.089   4.228 -0.0006  0.1817  0.1371
70745W        W13662   6.564  14.431   1.997  0.1121  0.4144 -0.0754
70746W        W13663   5.251  17.899   1.455  0.0175 -0.1737 -0.1710
70747W        W13664   6.930  18.449  31.281 -0.2047  0.0687  0.1102
70748W        W13665   5.690  16.198  31.254 -0.2821 -0.0122  0.2020
70749W        W13666   5.435  15.824   2.812  0.3208  0.0220  0.0795
70750W        W13667   4.863  14.452   1.670  0.1983 -0.0545 -0.1343
70751W        W13668   8.230  16.766   2.506 -0.2615 -0.0790  0.0880
70752W        W13669   4.476  14.833   1.621 -0.0108 -0.0868  0.2458
70753W        W13670   8.144  14.878   2.530 -0.0851 -0.1722  0.0842
70754W        W13671   6.651  15.271   0.668 -0.2121 -0.1376  0.2136
70755W        W13672   7.730  17.029   2.602  0.0184 -0.1734 -0.0892
70756W        W13673   5.606  14.035   2.834 -0.0069 -0.0157 -0.1145
70757W        W13674   7.056  16.466   4.066 -0.1667  0.0194 -0.3963
70758W        W13675   4.115  14.106   1.846 -0.1091  0.2075 -0.0382
70759W        W13676   7.648  16.773   1.150 -0.0305 -0.1272 -0.0015
70760W        W13677   5.432  15.478   4.802  0.2561  0.2658  0.2396
70761W        W13678   4.483  17.240   2.397  0.1632 -0.1466 -0.1098
70762W        W13679   3.082  16.113   1.903  0.0234 -0.0412 -0.0981
70763W        W13680   5.860  17.934   0.659 -0.1403 -0.0737 -0.0355
70764W        W13681   5.504  14.551   2.366  0.0497 -0.2299 -0.5216
70765W        W13682   4.142  16.971   2.677  0.3018 -0.0812 -0.2502
70766W        W13683   4.278  17.140   0.771 -0.0480 -0.2385 -0.1659
70767W        W13684   4.570  17.267   1.890  0.1355  0.2689  0.1429
70768W        W13685   8.169  14.537   2.143 -0.1281 -0.0474  0.1525
70769W        W13686   6.332  15.437   0.148  0.1606 -0.1985  0.2224
70770W        W13687   6.077  14.268   2.998  0.1231  0.1660 -0.1805
70771W        W13688   8.871  14.447   3.858  0.1251 -0.1993  0.0035
70772W        W13689   6.891  15.670   2.217  0.1148 -0.0051 -0.3817
70773W        W13690   5.259  15.019   4.461 -0.2345  0.0654 -0.0833
70774W        W13691   4.411  13.861   2.278 -0.0898 -0.0046 -0.2423
70775W        W13692   6.279  14.511   0.818 -0.0155 -0.0320  0.2160
70776W        W13693   3.338  13.835   3.199 -0.1910 -0.3503 -0.0126
70777W        W13694   7.322  18.240   3.857  0.1565 -0.1940 -0.0196
70778W        W13695   5.095  14.414   3.220 -0.1048 -0.0040  0.2476
70779W        W13696   5.533  14.131  31.288  0.1206 -0.0106 -0.2140
70780W        W13697   4.816  15.474  31.909  0.1811 -0.0417  0.3324
70781W        W13698   5.786  16.196   2.840  0.0109 -0.0919 -0.1602
70782W        W13699   8.365  17.506   2.556  0.1074  0.2160 -0.2624
70783W        W13700   4.845  17.763  29.718  0.0750  0.3105  0.0448
70784W        W13701   6.793  15.866   3.085  0.0893 -0.0060  0.1110
70785W        W13702   6.071  16.759   0.317  0.1217 -0.3668  0.0596
70786W        W13703   7.219  15.619   1.822  0.0056 -0.0506 -0.0365
70787W        W13704   7.117  16.927   1.072  0.3829  0.0650 -0.0334
70788W        W13705   5.154  16.674   0.533  0.0453 -0.0122  0.3021
70789W        W13706   5.311  14.686   1.375  0.1305  0.1092 -0.3309
70790W        W13707   7.229  17.243   0.385  0.0451  0.4010  0.0218
70791W        W13708   8.401  16.557   3.362 -0.1870  0.0559  0.1776
70792W        W13709   6.145  14.586   3.366  0.1911 -0.0812 -0.4114
70793W        W13710   5.696  16.266   3.891  0.0212  0.4126 -0.2428
70794W        W13711   4.006  16.457   4.040  0.2729  0.0842  0.0309
70795W        W13712   3.880  14.759   3.413  0.1307  0.2064 -0.0716
70796W        W13713   6.302  16.227   1.665  0.3356 -0.4870  0.0732
70797W        W13714   4.824  15.118  31.496  0.3241  0.2638 -0.0831
70798W        W13715   8.226  16.999   3.423 -0.1823 -0.3295  0.0893
70799W        W13716   7.872  17.518   2.770  0.0229 -0.3141 -0.1227
70800W        W13717   7.114  17.084  30.209  0.0999 -0.2229 -0.6213
70801W        W13718   4.411  16.143   1.850  0.0181  0.0164 -0.0135
70802W        W13719   8.744  15.866   4.096 -0.3686 -0.0125 -0.1179
70803W        W13720   6.505  16.115  31.638  0.0690  0.2123 -0.2288
70804W        W13721   4.448  15.312   4.068  0.0954  0.3402 -0.0880
70805W        W13722   7.328  18.326   0.693  0.1833  0.1971 -0.1249
70806W        W13723   7.523  14.655   2.062 -0.1165  0.0876 -0.0577
70807W        W13724   8.438  16.531   1.279  0.0972 -0.2225 -0.1025
70808W        W13725   5.056  15.474   2.099  0.0351  0.1429 -0.1477
70809W        W13726   3.536  17.696   1.392 -0.1208 -0.1015 -0.0178
70810W        W13727   5.273  15.380  31.471 -0.4206 -0.1953  0.1421
70811W        W13728   5.648  17.862  31.797  0.1555 -0.1472  0.5024
70812W        W13729   9.035  17.091   2.920  0.0818  0.1847  0.2624
70813W        W13730   6.675  16.001   2.588  0.0355  0.0628  0.0108
70814W        W13731   4.806  14.331   0.608 -0.1769  0.4789  0.2125
70815W        W13732  10.210  14.014   1.670  0.1708 -0.1044  0.0462
70816W        W13733   5.592  17.672   1.158 -0.1677 -0.1978 -0.0436
70817W        W13734   6.107  14.948   1.853  0.1774  0.1640  0.1968
70818W        W13735   4.855  17.985   1.844 -0.3083  0.0474  0.0004
70819W        W13736   4.090  19.537   3.568  0.0082  0.0938  0.1669
70820W        W13737   3.129  18.754   2.517  0.0693  0.1596 -0.0423
70821W        W13738   6.633  13.607   4.771  0.2129 -0.0482  0.0522
70822W        W13739   7.419  16.608   3.084 -0.3315 -0.2276 -0.2893
70823W        W13740   4.830  16.554   3.500 -0.2450 -0.3446 -0.2889
70824W        W13741   7.821  17.083   3.069 -0.1510 -0.0041  0.2180
70825W        W13742   6.619  18.043   3.073  0.0635  0.0236 -0.1918
70826W        W13743   4.999  14.916   2.480 -0.0424 -0.1082 -0.2064
70827W        W13744   6.163  18.242   3.738 -0.0085 -0.1219  0.0346
70828W        W13745   7.200  17.157  30.705 -0.2600  0.2316  0.0683
70829W        W13746   5.759  17.977   1.639 -0.5202 -0.2056 -0.0065
70830W        W13747   2.254  15.950   2.833 -0.1923 -0.3306 -0.0613
70831W        W13748   5.570  15.310   4.231 -0.0209 -0.7105 -0.0966
70832W        W13749   5.143  15.126   0.078  0.1711 -0.0062  0.0881
70833W        W13750   2.720  15.734   2.926  0.2001 -0.1873  0.0166
70834W        W13751   6.036  18.897  31.038  0.1862 -0.0006  0.0803
70835W        W13752   5.608  17.698   3.171 -0.0502  0.0000 -0.0624
70836W        W13753   5.199  16.167   3.207  0.1611 -0.0658  0.2200
70837W        W13754   5.523  16.846   1.623 -0.1714  0.0034 -0.1161
70838W        W13755   5.900  16.855  31.839 -0.3019 -0.1459 -0.0407
70839W        W13756   8.080  15.882   0.223 -0.1153 -0.2378  0.1032
70840W        W13757   6.104  16.790   2.345 -0.2093  0.0104  0.1718
70841W        W13758   6.225  15.984  31.170  0.0928 -0.0989  0.3010
70842W        W13759   6.493  18.435   0.182 -0.0719 -0.0463 -0.2758
70843W        W13760   2.284  20.424  29.956 -0.1704  0.0803  0.0052
70844W        W13761   5.432  18.892  30.589 -0.0696  0.1012  0.1436
70845W        W13762   6.027  17.437   0.905 -0.0661  0.0015 -0.0553
70846W        W13763   7.394  16.879   3.919 -0.0219 -0.3725  0.1501
70847W        W13764   5.879  14.884   0.561  0.0135  0.2123  0.0540
70848W        W13765   6.481  16.150   2.128 -0.1307  0.4681  0.1387
70849W        W13766   8.222  14.464  31.786  0.1455  0.1824  0.3913
70850W        W13767   6.781  17.979   1.964  0.1301  0.1397  0.2493
70851W        W13768   3.819  16.132   2.586 -0.4689  0.0311 -0.0446
70852W        W13769   4.151  15.316  30.538 -0.1435 -0.0832 -0.1831
70853W        W13770   4.289  15.560   2.064 -0.2456 -0.0927  0.0509
70854W        W13771   6.881  15.236   3.298  0.3106  0.2226  0.2024
70855W        W13772   2.855  19.474   3.144 -0.1922 -0.1794 -0.2047
70856W        W13773   8.485  18.361  30.753 -0.0003 -0.3823  0.0368
70857W        W13774   4.257  15.590   0.830  0.2796  0.1461 -0.0148
70858W        W13775   5.758  17.137   2.427 -0.1270 -0.3423  0.0113
70859W        W13776   9.624  11.854   3.189 -0.0173 -0.0646 -0.1313
70860W        W13777   4.876  16.430   2.520  0.1109 -0.0958  0.1279
70861W        W13778   5.955  15.744   0.895  0.0955 -0.0142  0.0802
70862W        W13779   6.205  17.605   1.387  0.0847 -0.1498  0.0182
70863W        W13780   4.639  16.614   2.092 -0.0765  0.2152 -0.2128
70864W        W13781   7.115  17.980   2.376 -0.1947 -0.1188  0.0912
70865W        W13782   4.242  12.693   0.700 -0.2978  0.1968 -0.1835
70866W        W13783   7.000  15.932   1.028  0.1914  0.3479  0.0331
70867W        W13784   5.413  14.911   3.285 -0.1868 -0.2912 -0.2119
70868W        W13785   5.647  13.515   3.510 -0.3196 -0.1335 -0.3571
70869W        W13786   4.075  17.262   2.068  0.0425 -0.0780 -0.2768
70870W        W13787   7.084  16.057   1.517 -0.0307  0.1384  0.2230
70871W        W13788   6.491  17.207   1.019 -0.3507 -0.0273 -0.0310
70872W        W13789   5.266  15.171   1.350 -0.1661  0.0424 -0.2973
70873W        W13790   5.091  15.467   0.427  0.1375  0.0116  0.1802
70874W        W13791   8.675  15.761   2.368 -0.1230  0.1337 -0.2414
70875W        W13792   7.594  16.375   1.695  0.2457 -0.3410  0.1553
70876W        W13793   7.373  18.663   3.576  0.2734 -0.0093 -0.3500
70877W        W13794   5.710  15.844   1.834  0.0057 -0.1044 -0.1121
70878W        W13795   6.421  15.142   3.337  0.0113 -0.0546  0.1725
70879W        W13796   3.549  16.945   1.938  0.1088  0.0752  0.1429
70880W        W13797   6.309  19.494   3.329  0.1020  0.1487 -0.2509
70881W        W13798   6.726  17.670   2.543  0.0592 -0.0107 -0.2174
70882W        W13799   3.019  15.156   2.478 -0.1944 -0.2749  0.1251
70883W        W13800   6.917  17.651   0.307 -0.0976  0.1799  0.1302
70884W        W13801   6.271  15.709   2.445  0.1817  0.0246 -0.1270
70885W        W13802   4.648  19.062   0.778  0.0771 -0.2251  0.1092
70886W        W13803   5.275  16.854   2.431 -0.0001  0.0806 -0.2325
70887W        W13804   5.089  16.516  31.928  0.0376 -0.0249  0.0765
70888W        W13805   4.540  15.455   3.257  0.1711  0.0369  0.2087
70889W        W13806   7.155  16.505   1.308 -0.2681 -0.0435  0.2555
70890W        W13807   6.992  16.147   2.166 -0.0492  0.2375 -0.0380
70891W        W13808   6.391  15.470   1.502 -0.0351  0.0383 -0.1312
70892W        W13809   6.733  17.070   1.417  0.1833 -0.0663  0.1360
70893W        W13810   4.721  17.248   1.093 -0.1544  0.1319  0.0946
70894W        W13811   9.371  16.766   3.894 -0.2405  0.0358 -0.0306
70895W        W13812   8.489  15.721   3.726  0.2831 -0.1727  0.1453
70896W        W13813   5.549  19.007   0.496  0.0404  0.0251  0.3084
70897W        W13814   5.838  15.943   2.407 -0.3247  0.2692 -0.2413
70898W        W13815   5.301  17.230   1.324  0.0867  0.2120  0.1399
70899W        W13816   5.501  15.943   5.018 -0.2076 -0.0289 -0.3358
70900W        W13817   4.937  17.030   1.585  0.0268 -0.3067  0.1194
70901W        W13818   4.783  15.639   3.699 -0.1658  0.0197 -0.2409
70902W        W13819   6.338  15.306   2.138 -0.0582 -0.2684 -0.2061
70903W        W13820   5.546  17.219  31.857  0.4018 -0.0492 -0.2220
70904W        W13821   8.181  16.946   1.057  0.0745  0.2356  0.1632
70905W        W13822   6.653  16.617   1.154  0.0448  0.0412 -0.2119
70906W        W13823   7.827  18.617   1.932  0.1922 -0.3659  0.1249
70907W        W13824   5.433  15.047   0.456 -0.0601 -0.2120  0.1877
70908W        W13825   7.502  16.079  31.646 -0.0257 -0.1993 -0.0892
70909W        W13826   6.781  14.232   1.630 -0.3344 -0.1288 -0.1797
70910W        W13827   4.891  17.044   3.356  0.0533 -0.1444 -0.0932
70911W        W13828   5.193  14.935   0.866 -0.0383 -0.2727 -0.1055
70912W        W13829   3.787  17.379  31.117  0.1962 -0.0097  0.3308
70913W        W13830   5.667  16.221   1.470 -0.2266  0.2000  0.0681
70914W        W13831   5.121  15.457   2.593 -0.1402 -0.2983  0.2238
70915W        W13832   4.477  17.073   3.056 -0.1796  0.0431  0.4734
70916W        W13833   4.618  15.445   2.750 -0.1676  0.0652 -0.2345
70917W        W13834   5.869  15.811   0.089 -0.0450  0.1425 -0.0010
70918W        W13835   7.645  16.249   0.162  0.1558 -0.0350 -0.1207
70919W        W13836   6.402  14.479   0.273 -0.0772 -0.1264  0.0202
70920W        W13837   3.892  16.243  31.088 -0.0485  0.2861  0.1085
70921W        W13838   6.408  18.974   0.036 -0.2679  0.0143 -0.0826
70922W        W13839   8.525  17.959   1.746  0.1441 -0.1732  0.1347
70923W        W13840   6.470  16.722   1.743  0.3550  0.0960 -0.2800
70924W        W13841   7.268  17.387   3.725  0.0347 -0.0290  0.1543
70925W        W13842   3.748  18.244   0.219 -0.0692 -0.2674  0.4462
70926W        W13843   4.657  15.222   2.317 -0.0570  0.1616 -0.4370
70927W        W13844   5.905  15.564   5.803  0.1743  0.4018 -0.0761
70928W        W13845   2.316  16.211   1.105  0.0683 -0.0649 -0.0133
70929W        W13846   4.639  15.765   4.138 -0.1090  0.4439  0.0981
70930W        W13847   6.734  17.417   0.662 -0.0171 -0.1012 -0.0694
70931W        W13848   6.011  17.485  31.581 -0.2240 -0.0669  0.3485
70932W        W13849   6.666  18.176   2.496 -0.0450  0.1389  0.1605
70933W        W13850   5.414  17.999   2.003 -0.0995 -0.0272 -0.4787
70934W        W13851   4.071  15.295   2.966 -0.1168  0.0856  0.1928
70935W        W13852   7.291  15.148   1.995 -0.2669  0.0495 -0.5215
70936W        W13853   5.646  17.058   4.192  0.0678 -0.0401 -0.1672
70937W        W13854   8.133  16.375   0.944  0.1222  0.3338  0.0466
70938W        W13855   8.231  15.870   2.666 -0.0722  0.2882 -0.0759
70939W        W13856   3.585  15.221   2.643  0.2513  0.1539 -0.2288
70940W        W13857   3.972  14.885   2.654 -0.1322  0.2212 -0.1114
70941W        W13858   6.464  15.607   1.038 -0.0948  0.1703  0.1904
70942W        W13859   6.828  15.322   1.864 -0.0221  0.1368 -0.0729
70943W        W13860   8.765  16.642   2.820 -0.1069  0.2146  0.1751
70944W        W13861   5.059  16.566  30.382  0.5037 -0.2016 -0.1003
70945W        W13862   5.262  15.775   1.657 -0.1504  0.1208  0.1143
70946W        W13863   6.131  15.194  31.727  0.0602  0.2932 -0.3899
70947W        W13864   6.101  15.732   3.609 -0.1578  0.2083 -0.1902
70948W        W13865   6.314  17.388   2.580  0.0555 -0.1780 -0.0265
70949W        W13866   6.507  16.827   3.202 -0.0829  0.0062 -0.0999
70950W        W13867   5.204  14.181   1.468 -0.2775 -0.1403 -0.0806
70951W        W13868   8.506  14.978   2.134  0.1685  0.1332  0.1644
70952W        W13869   5.964  17.542   1.858 -0.0684  0.0933  0.0540
70953W        W13870   6.414  17.909   4.139 -0.0626 -0.2464  0.3016
70954W        W13871   7.829  17.515  31.653  0.1390  0.0207 -0.1011
70955W        W13872   4.794  16.104   1.466 -0.0902 -0.1176 -0.2175
70956W        W13873   4.309  16.124   0.198  0.1461  0.0041  0.3746
70957W        W13874   6.531  16.154   0.823  0.2247  0.1324 -0.0682
70958W        W13875   6.780  18.447   0.791 -0.3125  0.0484  0.1254
70959W        W13876   7.928  16.282   3.580 -0.0424 -0.2623 -0.1162
70960W        W13877   5.158  15.913   4.139  0.2279 -0.0268 -0.1622
70961W        W13878   4.649  14.812   0.822 -0.1241 -0.0285 -0.0794
70962W        W13879   6.326  17.995   1.665 -0.1951  0.2073  0.0222
70963W        W13880   6.244  16.960   1.377 -0.1491 -0.2793 -0.3282
70964W        W13881   5.724  17.462   7.274  0.2078 -0.1680 -0.1008
70965W        W13882   5.395  15.040   3.828 -0.1431  0.4341  0.1051
70966W        W13883   6.713  14.632   5.139 -0.1952 -0.1150  0.0459
70967W        W13884   7.548  15.738   5.418  0.0187 -0.3242 -0.0537
70968W        W13885   5.199  16.108   6.277  0.2347  0.1088  0.0122
70969W        W13886   5.756  18.111   3.444  0.7320 -0.0940  0.0413
70970W        W13887   3.283  14.517   8.242  0.0340 -0.0854 -0.1282
70971W        W13888   6.155  16.682   6.129  0.4497 -0.0173  0.4516
70972W        W13889   6.492  17.975   7.473 -0.1652 -0.0868  0.3830
70973W        W13890   5.152  16.243   3.746 -0.1583  0.2286 -0.2049
70974W        W13891   5.489  16.406   6.853  0.0775 -0.0183 -0.3455
70975W        W13892   4.899  18.647   5.686  0.0030 -0.1585 -0.1009
70976W        W13893   3.069  13.714   4.642 -0.0778 -0.0405  0.0994
70977W        W13894   2.375  15.169   8.082  0.2726  0.0349 -0.1235
70978W        W13895   6.041  18.505   6.853  0.1907  0.2980 -0.3185
70979W        W13896   5.022  17.793   5.216  0.0951 -0.1022  0.0499
70980W        W13897   4.849  15.446   7.508 -0.1460 -0.1966 -0.1491
70981W        W13898   5.675  17.275   5.268 -0.0191  0.5549  0.1829
70982W        W13899   6.339  15.556   3.054  0.0071 -0.2661 -0.5809
70983W        W13900   3.633  14.936   6.840 -0.2497  0.2325  0.0881
70984W        W13901   5.045  15.652   5.610  0.1977 -0.1734 -0.0060
70985W        W13902   7.381  16.753   4.435  0.0017  0.0232 -0.2941
70986W        W13903   3.730  16.477   2.191  0.3622  0.1109  0.1639
70987W        W13904   3.942  15.533   7.630 -0.2030  0.0630 -0.2195
70988W        W13905   4.978  16.860   6.987  0.1195  0.1123  0.2494
70989W        W13906   4.999  15.723   4.932  0.1179  0.2445  0.0565
70990W        W13907   5.944  15.832   7.247  0.3084 -0.0016 -0.1383
70991W        W13908   6.688  16.444   6.896  0.1140  0.2445  0.0674
70992W        W13909   7.316  17.236   6.498  0.0795  0.0475 -0.3221
70993W        W13910   6.268  16.728   7.282 -0.1652  0.1800 -0.1295
70994W        W13911   3.601  16.330   5.042 -0.2182 -0.1298  0.0237
70995W        W13912   4.174  17.141   6.291 -0.0042 -0.1155 -0.1804
70996W        W13913   4.849  18.130   5.612  0.1763  0.2156  0.3195
70997W        W13914   6.962  16.838   2.957  0.1532  0.1782 -0.2230
70998W        W13915   5.834  18.640   5.977  0.3171 -0.0127 -0.1964
70999W        W13916   4.847  18.980   6.547 -0.0762 -0.1511  0.3532
71000W        W13917   5.779  16.756   3.750 -0.2169  0.0123  0.1405
71001W        W13918   5.461  17.918   7.615  0.4306  0.1410 -0.1694
71002W        W13919   5.076  17.710   8.118 -0.0564  0.0454 -0.1313
71003W        W13920   4.433  17.013   7.537  0.0810  0.0485 -0.1942
71004W        W13921   4.662  16.474   7.068 -0.1181 -0.1590  0.0118
71005W        W13922   6.867  16.845   4.603  0.2320 -0.3073  0.0490
71006W        W13923   4.914  17.029   6.184  0.4856  0.0876 -0.3052
71007W        W13924   5.702  16.440   6.370 -0.0540 -0.2322 -0.0208
71008W        W13925   5.040  17.340   5.290 -0.3322  0.0973 -0.3629
71009W        W13926   8.221  14.674   6.905  0.0978  0.2494  0.1166
71010W        W13927   5.079  17.118   4.471  0.0706  0.1170  0.2953
71011W        W13928   8.873  17.536   4.991  0.2826 -0.2902 -0.1976
71012W        W13929   4.312  14.712   5.666 -0.0371  0.1358 -0.1681
71013W        W13930   5.910  16.200   5.189  0.2737 -0.1453 -0.3206
71014W        W13931   4.253  13.636   4.592  0.0332 -0.1161  0.1856
71015W        W13932   6.052  18.161   6.443  0.0569  0.1026 -0.1425
71016W        W13933   5.615  15.984   6.560  0.1333  0.0572  0.1317
71017W        W13934   6.402  15.751   5.901 -0.3943  0.1024  0.1853
71018W        W13935   5.734  17.605   5.674 -0.2259 -0.1380  0.0156
71019W        W13936   6.538  17.127   7.526  0.1341 -0.3533 -0.0331
71020W        W13937   4.638  18.733   6.970  0.1468 -0.0968 -0.1119
71021W        W13938   3.971  16.435   4.566 -0.0697 -0.0620 -0.0074
71022W        W13939   8.483  17.967   2.843  0.3872  0.0292 -0.5598
71023W        W13940   7.235  17.297   5.612  0.0097 -0.0769 -0.2980
71024W        W13941   5.556  17.281   3.502 -0.2101  0.2550  0.1774
71025W        W13942   5.085  15.505   4.421  0.1845 -0.1153  0.0776
71026W        W13943   4.311  15.461   6.790  0.1689 -0.2213  0.0047
71027W        W13944   5.416  15.641   7.335  0.2456  0.1762  0.2910
71028W        W13945   4.439  15.006   2.709  0.1640 -0.0560 -0.5036
71029W        W13946   7.373  18.008   8.725 -0.2822  0.1245 -0.1153
71030W        W13947   4.223  18.561   6.043  0.2548  0.1232 -0.0652
71031W        W13948   7.701  17.608   6.305 -0.1122 -0.1286 -0.1044
71032W        W13949   5.335  16.908   7.577 -0.1961 -0.1150 -0.1236
71033W        W13950   5.689  16.844   6.737  0.1745  0.2170  0.0780
71034W        W13951   7.305  16.567   2.206 -0.0487  0.0200 -0.0956
71035W        W13952   6.353  15.878   5.039 -0.0250 -0.4818 -0.0476
71036W        W13953   3.922  14.177   5.916  0.0107 -0.1305  0.1913
71037W        W13954   3.859  17.657   4.580 -0.1011 -0.3772  0.1679
71038W        W13955   5.805  17.446   3.894 -0.1908 -0.2188 -0.1018
71039W        W13956   7.087  16.141   5.576 -0.1064  0.0579  0.0639
71040W        W13957   9.819  17.773   4.753  0.1388 -0.3360 -0.0907
71041W        W13958   5.576  18.433   6.388  0.0856 -0.0751 -0.0565
71042W        W13959   3.153  13.789   7.595 -0.0159  0.0137 -0.0070
71043W        W13960   5.253  18.177   8.065  0.0832 -0.0339 -0.1033
71044W        W13961   5.290  17.900   5.646 -0.0415 -0.0362 -0.0803
71045W        W13962   4.342  16.477   7.521 -0.0085  0.3914  0.3695
71046W        W13963   4.993  15.720   3.213  0.1114  0.3435 -0.0422
71047W        W13964   3.863  16.451   5.490 -0.1206 -0.0262  0.1177
71048W        W13965   5.460  18.178   6.879  0.2197 -0.2165  0.2426
71049W        W13966   7.362  15.707   4.912 -0.2427 -0.0004 -0.2669
71050W        W13967   5.558  13.819   6.371  0.1192  0.1923 -0.0136
71051W        W13968   5.952  15.792   4.720 -0.1453 -0.2686  0.2299
71052W        W13969   4.433  16.580   3.794 -0.4070 -0.2457 -0.1396
71053W        W13970   7.138  16.529   4.880 -0.2284  0.3074  0.4327
71054W        W13971   8.105  16.813   5.338 -0.0682  0.0728  0.1523
71055W        W13972   6.486  19.116   5.522  0.0292 -0.0160 -0.0135
71056W        W13973   4.386  16.448   4.936 -0.4321  0.1354 -0.0450
71057W        W13974   4.737  15.058   4.410 -0.0901  0.0470 -0.0245
71058W        W13975   4.810  15.229   6.533  0.2930 -0.0468  0.0159
71059W        W13976   4.453  16.081   4.503 -0.4850 -0.0597  0.0430
71060W        W13977   7.333  17.443   7.381  0.0946 -0.1764 -0.2338
71061W        W13978   3.146  14.852   3.895 -0.2648 -0.2790  0.2007
71062W        W13979   6.816  15.801   7.253  0.1362 -0.1964 -0.2217
71063W        W13980   4.205  15.213   4.558 -0.1276  0.0763 -0.1035
71064W        W13981   5.150  16.785   5.488  0.1292 -0.0254 -0.1399
71065W        W13982   6.539  13.708   7.652  0.0942  0.1910 -0.2027
71066W        W13983   6.631  17.226   4.753  0.0747 -0.1430 -0.3278
71067W        W13984   5.681  18.088   9.914 -0.2217  0.3622 -0.1748
71068W        W13985   6.509  18.579   4.492  0.1330  0.0972 -0.0287
71069W        W13986   4.985  13.306   7.367  0.5016 -0.1071 -0.1977
71070W        W13987   4.499  15.397   6.241 -0.1710  0.1621 -0.1433
71071W        W13988   6.160  18.407   5.235 -0.1644  0.1889 -0.2810
71072W        W13989   5.169  19.213   5.518  0.0089  0.1177  0.1813
71073W        W13990   4.853  15.040   7.178  0.0977 -0.2279  0.1779
71074W        W13991   6.582  17.006   6.224  0.2526 -0.0417 -0.0320
71075W        W13992   6.069  17.824   5.081  0.2802 -0.0029  0.1580
71076W        W13993   3.541  15.981   7.029  0.2267 -0.1401 -0.0373
71077W        W13994   6.186  14.870   6.267 -0.2890 -0.3050  0.5400
71078W        W13995   5.388  17.132   7.050 -0.1515  0.0606 -0.0752
71079W        W13996   6.344  16.477   5.305 -0.0575  0.4082  0.0545
71080W        W13997   3.978  14.287   5.414  0.1201 -0.1654  0.0781
71081W        W13998   7.129  19.980   4.786  0.2243  0.1155  0.4429
71082W        W13999   3.861  16.968   5.503  0.0460  0.0038 -0.0239
71083W        W14000   6.044  17.139   5.768  0.1508 -0.2474  0.1753
71084W        W14001   7.648  16.190   5.787 -0.0642 -0.0566  0.1384
71085W        W14002   3.173  16.698   6.577 -0.2433 -0.0729  0.3286
71086W        W14003   6.375  16.672   7.764 -0.1136 -0.0087  0.2259
71087W        W14004   3.366  15.008   4.733  0.0139  0.0242  0.0856
71088W        W14005   4.687  17.335   6.531  0.1165 -0.0352  0.2796
71089W        W14006   6.644  16.454   6.404 -0.0350  0.0949  0.4031
71090W        W14007   5.506  15.870   4.532  0.1578  0.1632 -0.2470
71091W        W14008   5.078  18.300   6.464 -0.0744  0.4497 -0.2884
71092W        W14009   8.577  16.616   5.214 -0.0204  0.2117  0.2186
71093W        W14010   4.854  13.899   4.353  0.0931  0.0367 -0.1709
71094W        W14011   3.943  15.353   4.032 -0.1599  0.2687 -0.0202
71095W        W14012   3.741  18.550   7.612  0.0524  0.1010 -0.0847
71096W        W14013   6.963  17.597   4.581 -0.0056  0.3412 -0.0541
71097W        W14014   8.131  19.732   4.999 -0.0295 -0.0027  0.1377
71098W        W14015   7.809  16.822   4.176  0.2455 -0.2847 -0.0845
71099W        W14016   7.759  17.537   5.572 -0.2131  0.3573  0.0618
71100W        W14017   3.532  17.905   5.960 -0.3578  0.0133  0.2755
71101W        W14018   6.226  16.670   6.641 -0.0953  0.0968 -0.4040
71102W        W14019   8.001  18.860   4.704 -0.1212 -0.1288  0.3104
71103W        W14020   5.235  15.289   6.994 -0.1768 -0.1364 -0.2709
71104W        W14021   3.137  15.437   2.919  0.1927  0.1949 -0.0249
71105W        W14022   5.106  14.320   6.054  0.0298 -0.0295  0.0609
71106W        W14023   5.704  18.225   4.961  0.0687  0.1249  0.0702
71107W        W14024   6.149  14.473   5.884 -0.1829  0.2746 -0.1286
71108W        W14025   5.120  14.537   5.229 -0.3704  0.2773 -0.3146
71109W        W14026   4.096  15.121   5.913 -0.0438 -0.2158 -0.2081
71110W        W14027   6.017  16.273   6.970  0.2299 -0.2742 -0.1370
71111W        W14028   6.682  16.837   5.110  0.0945 -0.0219  0.1501
71112W        W14029   7.003  16.274   7.204  0.3196  0.3136 -0.1897
71113W        W14030   5.163  16.727   3.011  0.0285 -0.1771 -0.0042
71114W        W14031   4.804  15.295   9.068  0.0670 -0.0129 -0.0903
71115W        W14032   5.184  16.418   7.257  0.1460  0.3223 -0.0677
71116W        W14033   4.797  18.002   7.701 -0.1372  0.4309  0.4501
71117W        W14034   6.275  18.048   6.890 -0.0397 -0.0661 -0.1403
71118W        W14035   6.097  16.939   5.247  0.1473 -0.2829 -0.3074
71119W        W14036   5.695  14.528   7.067  0.2587  0.0422  0.0969
71120W        W14037   6.435  14.785   3.738  0.1398  0.1061 -0.0901
71121W        W14038   4.503  19.122   3.458  0.0258  0.0357  0.2295
71122W        W14039   5.250  15.529   3.883  0.0336  0.2652  0.1311
71123W        W14040   4.120  14.634   6.167  0.1816  0.1343 -0.2136
71124W        W14041   5.180  18.276   5.192  0.0539  0.0478 -0.2350
71125W        W14042   6.466  18.478   3.323  0.0575  0.3725  0.0855
71126W        W14043   5.413  17.613   6.909  0.2405  0.0555  0.1209
71127W        W14044   5.347  18.419   5.659 -0.2814  0.1662  0.4317
71128W        W14045   7.946  14.704   5.182  0.2295  0.3986 -0.2651
71129W        W14046   5.321  17.746   4.612  0.2410 -0.1503  0.2792
71130W        W14047   5.193  16.540   5.979 -0.0467 -0.1921  0.0202
71131W        W14048   5.149  16.912   4.997  0.3124 -0.1504 -0.1446
71132W        W14049   5.669  16.860   5.609  0.1963 -0.1539  0.0598
71133W        W14050   6.096  14.754   4.119 -0.0042 -0.0408  0.1484
71134W        W14051   4.413  15.082   4.951  0.0125 -0.1979 -0.0451
71135W        W14052   4.249  15.913   7.562 -0.3511  0.0583 -0.0903
71136W        W14053   5.015  19.306   6.073  0.0363 -0.3948  0.0804
71137W        W14054   7.681  16.713   6.778  0.1859  0.1756 -0.0849
71138W        W14055   6.126  14.280   3.770  0.0012  0.0873 -0.0577
71139W        W14056   6.530  16.218   7.450  0.2293 -0.0910  0.0608
71140W        W14057   5.212  18.348   7.521  0.1540 -0.3315 -0.1128
71141W        W14058   2.475  16.770   4.365 -0.3584  0.1479  0.0376
71142W        W14059   5.796  17.915   7.171  0.1363  0.1361  0.3194
71143W        W14060   5.231  15.662   6.625 -0.1999 -0.2065  0.1810
71144W        W14061   4.874  18.156   4.844 -0.1102  0.0051 -0.2277
71145W        W14062   8.188  16.551   6.623 -0.0988  0.0190 -0.3264
71146W        W14063   3.726  15.955   3.544  0.0394  0.0087  0.1455
71147W        W14064   6.492  17.936   5.852 -0.1343 -0.0731 -0.1875
71148W        W14065   4.496  16.059   8.185 -0.1031  0.2940 -0.1533
71149W        W14066   5.595  16.995   8.016  0.2200  0.4684  0.0920
71150W        W14067   4.327  15.004   6.551  0.0651  0.0089 -0.0958
71151W        W14068   4.209  16.198   5.350 -0.0723 -0.1626  0.5697
71152W        W14069   4.866  14.351   6.491  0.0141  0.0384 -0.0659
71153W        W14070   6.654  15.490   4.042  0.1921 -0.0466  0.0387
71154W        W14071   5.119  15.932   7.053 -0.0313  0.0802  0.1314
71155W        W14072   5.559  17.440   8.282 -0.0178  0.0438  0.1366
71156W        W14073   5.656  15.095   7.113 -0.1894  0.3828  0.0700
71157W        W14074   7.775  17.353   3.559  0.1481  0.2482  0.0594
71158W        W14075   6.327  17.741   6.511 -0.0669 -0.4096  0.0869
71159W        W14076   6.628  16.988   4.179  0.3140  0.3950 -0.3257
71160W        W14077   5.652  15.578   6.894 -0.1690  0.1369 -0.3079
71161W        W14078   4.448  17.923   5.881 -0.2552 -0.1072 -0.0093
71162W        W14079   5.493  15.709   6.131 -0.0693  0.3094 -0.1185
71163W        W14080   4.681  18.369   6.016 -0.0189  0.0490  0.0822
71164W        W14081   4.071  18.170   4.731  0.0030  0.3253  0.0394
71165W        W14082   4.817  17.656   5.663  0.0738 -0.3192 -0.0130
71166W        W14083   7.914  15.381   2.611 -0.0361 -0.3321 -0.0213
71167W        W14084   3.618  15.056   3.788  0.0385 -0.0652 -0.1113
71168W        W14085   6.599  17.726   4.972  0.2064 -0.0732  0.0345
71169W        W14086   6.445  15.357   7.992  0.1643  0.1220  0.1661
71170W        W14087   5.727  15.770   3.946 -0.2144 -0.4102 -0.2127
71171W        W14088   6.081  15.372   7.197  0.1266  0.1198 -0.0270
71172W        W14089   6.122  13.696   6.431 -0.0475 -0.0665  0.1118
71173W        W14090   6.554  16.048   5.490 -0.0366  0.0609  0.4422
71174W        W14091   5.193  14.669   7.130 -0.0949  0.1452 -0.1036
71175W        W14092   6.466  18.386   6.166  0.3339  0.1509 -0.1318
71176W        W14093   3.131  16.259   6.847  0.2428  0.1048  0.0966
71177W        W14094   3.755  15.293   5.433 -0.1601 -0.0270 -0.1281
71178W        W14095   5.121  17.498   3.343  0.0946 -0.4841 -0.1154
71179W        W14096   4.110  16.715   7.127 -0.3633  0.0057 -0.0179
71180W        W14097   6.276  17.227   6.551  0.0483 -0.0265  0.1766
71181W        W14098   4.787  17.403   4.763  0.0167 -0.0326  0.0315
71182W        W14099   6.813  14.312   3.653  0.1344 -0.1047  0.1184
71183W        W14100   5.581  16.185   5.955 -0.0335  0.4028  0.0850
71184W        W14101   6.566  15.405   4.571 -0.1978 -0.1914  0.3267
71185W        W14102   7.235  17.147   4.715 -0.0917 -0.0069  0.2667
71186W        W14103   5.619  15.162   6.624 -0.2235  0.2252  0.1697
71187W        W14104   4.428  15.441   7.870  0.0565  0.1876  0.0910
71188W        W14105   8.101  16.311   4.469 -0.2962  0.3006 -0.0080
71189W        W14106   5.431  14.690   6.245 -0.0384  0.0688 -0.1551
71190W        W14107   6.332  15.231   5.934  0.0617  0.0711 -0.0985
71191W        W14108   5.383  15.856   8.090 -0.0780 -0.1681 -0.5146
71192W        W14109   4.583  14.374   6.022  0.0100 -0.2258 -0.1058
71193W        W14110   2.756  11.344   9.567  0.0545  0.2172 -0.2087
71194W        W14111   7.925  16.217   7.266  0.3053  0.2463 -0.0988
71195W        W14112   7.948  13.688   2.299 -0.1861  0.0691  0.0303
71196W        W14113   6.211  16.183   6.490  0.0812 -0.1475  0.1040
71197W        W14114   5.726  17.014   6.156  0.0045 -0.0675 -0.2962
71198W        W14115   7.264  14.444   5.497  0.1193 -0.0799  0.1314
71199W        W14116   1.576  15.034   7.882  0.3991  0.0601  0.0672
71200W        W14117   6.576  16.967   6.911 -0.0526  0.1931 -0.1140
71201W        W14118   6.257  15.245   3.796  0.0744 -0.1562 -0.3928
71202W        W14119   4.444  15.530   5.714 -0.0999  0.2873  0.1505
71203W        W14120   6.581  16.863   2.643 -0.0576  0.1057  0.0586
71204W        W14121   6.157  18.771   6.461  0.1329 -0.0085 -0.0481
71205W        W14122   6.413  16.742   5.705 -0.0789  0.3231  0.1056
71206W        W14123   2.271  15.659   7.860 -0.1641  0.3054  0.2616
71207W        W14124   4.706  20.471   6.872  0.0086  0.0537 -0.3576
71208W        W14125   4.870  16.710   4.657  0.0391 -0.3768 -0.1648
71209W        W14126   4.812  18.363   2.172  0.1423 -0.0447 -0.5123
71210W        W14127   7.163  17.749   6.423  0.1642  0.2369 -0.0319
71211W        W14128   6.807  15.988   8.279 -0.2862  0.2010  0.1256
71212W        W14129   6.838  16.005   4.215 -0.2266 -0.0448 -0.2034
71213W        W14130   6.508  15.087   7.138  0.1250 -0.0657  0.3078
71214W        W14131   5.222  18.898   4.511  0.0736  0.2176  0.0037
71215W        W14132   4.714  13.457   4.464  0.0005 -0.2162 -0.0226
71216W        W14133   5.528  17.751   5.121  0.0838 -0.1416 -0.2622
71217W        W14134   2.462  16.513   7.601 -0.1180  0.1010 -0.1047
71218W        W14135   5.525  17.545   6.145 -0.0306 -0.1969 -0.1403
71219W        W14136   6.761  17.434   6.656 -0.1933  0.0241 -0.0631
71220W        W14137   7.492  16.536   5.478  0.0736  0.1305 -0.1828
71221W        W14138   4.968  17.953   7.205  0.1330 -0.1286  0.0519
71222W        W14139   6.724  16.565   8.642  0.0918  0.0383  0.1736
71223W        W14140   5.088  18.654   6.102 -0.0269 -0.0986 -0.0480
71224W        W14141   5.415  16.734   4.552  0.0444 -0.0429 -0.0809
71225W        W14142   5.028  16.206   8.083 -0.3787  0.1123 -0.0606
71226W        W14143   7.588  16.848   6.287 -0.1903 -0.2369 -0.1700
71227W        W14144   5.010  17.723   6.660  0.1239  0.1602 -0.1626
71228W        W14145   3.121  15.187   7.745 -0.2055 -0.1460  0.2204
71229W        W14146   5.608  18.156   5.976 -0.0632  0.0825  0.0252
71230W        W14147   6.049  15.391   4.407 -0.1393 -0.2003 -0.0968
71231W        W14148   6.249  15.360   4.962 -0.2518 -0.3063 -0.4275
71232W        W14149   8.417  16.729   4.310  0.0119 -0.1773 -0.0986
71233W        W14150   5.314  17.328   5.688  0.0598 -0.0208  0.2730
71234W        W14151   2.281  15.626   8.362 -0.1314 -0.1354 -0.1041
71235W        W14152   3.861  16.381   6.240  0.0760 -0.2091  0.0605
71236W        W14153   5.222  16.372   4.917  0.1376  0.0906  0.1102
71237W        W14154   4.629  15.563   4.631 -0.0645  0.1529 -0.2266
71238W        W14155   4.984  19.738   3.559  0.2661 -0.0994 -0.0726
71239W        W14156   6.404  17.472   3.890  0.1353  0.1702 -0.0098
71240W        W14157   3.055  17.557   6.767 -0.0509  0.1370  0.0549
71241W        W14158   3.672  18.075   5.470 -0.1471 -0.2794 -0.0570
71242W        W14159   6.216  16.327   4.783  0.1880  0.3915 -0.0752
71243W        W14160   5.396  17.972   6.370  0.0456  0.1785 -0.0762
71244W        W14161   8.596  16.901   7.665 -0.1384  0.3427  0.0658
71245W        W14162   6.827  14.742   3.366 -0.1742  0.1954  0.0324
71246W        W14163   5.271  15.331   5.298  0.1667 -0.0446 -0.1052
71247W        W14164   6.557  14.984   4.782 -0.2960  0.0807 -0.3689
71248W        W14165   5.639  20.700   6.185  0.1701  0.1397 -0.4025
71249W        W14166   5.812  19.590   5.937 -0.0060 -0.1234 -0.0210
71250W        W14167   3.963  16.720   5.020  0.0062 -0.0284 -0.0921
71251W        W14168   3.491  15.544   7.888  0.3602 -0.2064  0.2132
71252W        W14169   6.273  14.572   4.654 -0.1755  0.0951 -0.0548
71253W        W14170   5.583  19.168   5.255 -0.3457  0.1958  0.1464
71254W        W14171   7.072  17.766   3.523 -0.0776  0.1170  0.2265
71255W        W14172   4.339  16.551   3.187  0.2343 -0.0797 -0.0269
71256W        W14173   5.255  16.659   6.489  0.2035 -0.1890 -0.0156
71257W        W14174   5.793  14.666   6.593 -0.0559 -0.3957  0.1266
71258W        W14175   6.195  16.320   2.465  0.1054  0.1892  0.0570
71259W        W14176   6.820  16.694   7.369 -0.0377 -0.1666 -0.1902
71260W        W14177   5.364  17.372   4.887  0.3285 -0.2052  0.1204
71261W        W14178   5.163  18.558   6.989 -0.0846  0.1572 -0.3027
71262W        W14179   6.700  18.483   5.547 -0.2409  0.2880  0.0290
71263W        W14180   3.081  16.452   2.755  0.2487 -0.0272 -0.1229
71264W        W14181   7.232  16.954   5.202 -0.1600  0.1503  0.1851
71265W        W14182   2.297  14.812   8.543 -0.5101  0.0802 -0.2349
71266W        W14183   8.748  16.215   6.528 -0.0328  0.2675 -0.2493
71267W        W14184   6.288  17.578   5.605  0.1455 -0.2602 -0.0735
71268W        W14185   9.308  17.452   5.281  0.0358  0.0585 -0.0941
71269W        W14186   4.493  16.005   8.690  0.1359 -0.0949  0.2443
71270W        W14187   3.303  14.881   7.200 -0.0147 -0.0539 -0.1434
71271W        W14188   7.395  16.355   3.685 -0.0896 -0.0689  0.0749
71272W        W14189   8.142  16.531   8.055 -0.1176 -0.1093  0.1644
71273W        W14190   6.959  16.543   5.367 -0.0946  0.0500 -0.3054
71274W        W14191   7.517  18.109   6.304 -0.2191  0.0398  0.0602
71275W        W14192   2.992  14.794   4.423  0.1633 -0.1719 -0.0787
71276W        W14193   5.820  15.680   3.106  0.2751 -0.2358  0.3170
71277W        W14194   4.267  17.477   4.268  0.0291  0.0161  0.0031
71278W        W14195   4.858  16.624   7.641 -0.1944 -0.0725 -0.1092
71279W        W14196   8.320  18.632   8.291  0.3117 -0.0071  0.0663
71280W        W14197   3.405  14.557   3.545 -0.1182  0.2348 -0.0319
71281W        W14198   7.557  17.302   4.130 -0.2191  0.0901 -0.2117
71282W        W14199   6.048  15.129   5.510  0.2467  0.0769 -0.0170
71283W        W14200   5.930  18.091   2.946 -0.0674  0.0965 -0.0316
71284W        W14201   7.597  17.598   6.797  0.3254 -0.1792 -0.0439
71285W        W14202   8.058  17.974   6.364 -0.4276  0.4445  0.0505
71286W        W14203   3.688  15.928   5.453  0.1937  0.0179  0.1153
71287W        W14204   8.295  19.303   5.986  0.0048  0.0142 -0.1385
71288W        W14205   7.518  17.614   4.649  0.2496 -0.0068 -0.2051
71289W        W14206   4.870  14.195   4.777  0.0112 -0.2468 -0.0295
71290W        W14207   3.379  15.195   5.940 -0.0133  0.1031  0.2407
71291W        W14208   4.780  18.236   4.391 -0.0819 -0.0482 -0.1254
71292W        W14209   8.234  16.012   6.552  0.2681 -0.2350  0.1598
71293W        W14210   4.297  15.165   5.438  0.0746  0.3229  0.3033
71294W        W14211   7.176  18.600   3.094 -0.0117 -0.0449  0.1152
71295W        W14212   4.527  15.550   8.359  0.0329  0.1239 -0.0621
71296W        W14213   5.060  19.616   6.495 -0.1095 -0.3058  0.0036
71297W        W14214   4.693  19.234   7.582 -0.1868  0.1600 -0.2290
71298W        W14215   4.322  17.632   3.679 -0.0421 -0.4104  0.0120
71299W        W14216   6.962  17.346   5.162  0.3156 -0.0620 -0.0574
71300W        W14217   5.696  16.315   4.722 -0.0939 -0.0030 -0.1806
71301W        W14218   3.263  16.668   2.245  0.0757  0.0624  0.1551
71302W        W14219   6.703  16.257   4.883 -0.2784  0.0034 -0.3074
71303W        W14220   6.394  15.965   6.959  0.0913 -0.1191 -0.0606
71304W        W14221   7.355  15.140   4.054  0.4210 -0.2413  0.2016
71305W        W14222   4.355  14.954   3.205  0.0723  0.0787  0.0069
71306W        W14223   9.009  16.446   5.139 -0.0635 -0.2392 -0.3878
71307W        W14224   7.833  16.761   3.687  0.2408 -0.2324 -0.2253
71308W        W14225   4.398  15.534   7.335 -0.0325  0.2310 -0.0714
71309W        W14226   4.272  16.940   4.084  0.1474 -0.1758 -0.2503
71310W        W14227   5.369  16.324   2.545  0.0851  0.0073 -0.2105
71311W        W14228   6.126  17.416   4.763  0.2326 -0.2761  0.0283
71312W        W14229   3.582  16.436   8.520 -0.2118 -0.1312  0.5264
71313W        W14230   3.937  16.347   7.767  0.0592 -0.1608 -0.0453
71314W        W14231   5.012  15.656   6.213  0.1980 -0.0119  0.1203
71315W        W14232   3.696  14.598   3.964  0.4276 -0.0352 -0.2141
71316W        W14233   9.819  17.336   5.075 -0.1028 -0.0416 -0.3227
71317W        W14234   3.595  16.215   5.832  0.5466 -0.1686 -0.0081
71318W        W14235   3.526  16.700   5.869 -0.0659 -0.0311 -0.1186
71319W        W14236   6.517  15.760   6.435 -0.2866  0.1042  0.3640
71320W        W14237   9.243  17.364   4.762 -0.1032 -0.1692  0.0418
71321W        W14238   6.291  16.900   4.648 -0.1050 -0.0075 -0.1500
71322W        W14239   6.867  16.466   7.879 -0.1317  0.2549  0.0336
71323W        W14240   5.059  17.572   6.099  0.0510 -0.0308  0.3800
71324W        W14241   4.698  17.018   8.005  0.1643 -0.1087  0.1542
71325W        W14242   4.887  17.346   6.984 -0.0736 -0.2324 -0.0948
71326W        W14243   2.848  14.274   4.427  0.0534 -0.0184 -0.3095
71327W        W14244   5.718  17.307   6.512  0.0787 -0.2233 -0.0044
71328W        W14245   5.711  17.517   4.378 -0.0891  0.2595  0.5025
71329W        W14246   7.178  18.388   4.307 -0.0110 -0.1796  0.0299
71330W        W14247   6.405  17.318   5.219 -0.0166 -0.0308 -0.0800
71331W        W14248   6.475  17.584   8.815 -0.1155 -0.2038 -0.1210
71332W        W14249   5.125  13.989   6.739  0.3984  0.0690 -0.1503
71333W        W14250   4.762  14.470   4.394 -0.1281 -0.0886  0.2753
71334W        W14251   5.763  17.825   6.621 -0.0631  0.2650 -0.1566
71335W        W14252   9.299  17.847   4.886 -0.0213  0.0565  0.3417
71336W        W14253   4.317  14.256   5.039  0.2730 -0.0292  0.0013
71337W        W14254   4.639  15.494   5.241 -0.0969  0.1420  0.0413
71338W        W14255   3.368  15.381   7.154  0.0939 -0.3190  0.0116
71339W        W14256   3.465  18.261   7.927 -0.1175  0.1778  0.1578
71340W        W14257   6.162  19.061   6.843  0.1546  0.1578  0.2882
71341W        W14258   4.090  16.057   4.913 -0.1016 -0.1175  0.1526
71342W        W14259   7.877  17.619   3.971 -0.0391 -0.0978  0.2597
71343W        W14260   5.528  17.772   3.698 -0.3085 -0.2443  0.0248
71344W        W14261   4.728  16.498   5.697  0.0198 -0.2140  0.1530
71345W        W14262   7.318  14.338   3.638  0.0342 -0.0844 -0.3424
71346W        W14263   5.574  16.148   7.308  0.1405 -0.0619  0.1717
71347W        W14264   6.779  17.525   5.625 -0.0945  0.0910  0.1748
71348W        W14265   6.507  16.349   8.200 -0.0092 -0.1683  0.0251
71349W        W14266   5.506  15.844   5.560  0.1760 -0.2129  0.0766
71350W        W14267   8.718  18.054   4.350 -0.3724  0.0784 -0.3171
71351W        W14268   7.143  17.058   6.088 -0.1134  0.1773 -0.3251
71352W        W14269   9.038  17.164   7.778 -0.1509 -0.2258  0.1443
71353W        W14270   6.436  17.417   6.089 -0.2223 -0.0172 -0.0546
71354W        W14271   8.564  15.753   6.282 -0.1702  0.0958 -0.1347
71355W        W14272   4.780  14.527   5.588 -0.0775  0.1238 -0.0538
71356W        W14273   4.332  16.699   5.410  0.0334  0.0719 -0.1906
71357W        W14274   6.102  17.165   4.262  0.0104  0.1506  0.1465
71358W        W14275   6.066  17.590   6.916  0.0873 -0.2627 -0.0143
71359W        W14276   3.245  17.081   2.625 -0.3445 -0.2102  0.4791
71360W        W14277   7.437  15.254   4.705 -0.0711  0.3126  0.2284
71361W        W14278   5.742  19.030   9.222  0.1990  0.2090  0.2046
71362W        W14279   6.221  17.285   8.052  0.1834  0.3194  0.0453
71363W        W14280   3.956  17.596   9.778  0.0315 -0.2303  0.2340
71364W        W14281   2.778  15.740   8.506  0.3960 -0.3992 -0.0754
71365W        W14282   7.009  14.886   5.430  0.2262  0.3562 -0.0277
71366W        W14283   5.514  15.014   7.878  0.2737 -0.0338  0.2417
71367W        W14284   3.990  16.240   9.355 -0.2025 -0.2649 -0.1222
71368W        W14285   4.902  18.502   7.914 -0.1474 -0.0136  0.2798
71369W        W14286   3.808  16.572   9.010 -0.3941 -0.1163 -0.0803
71370W        W14287   5.165  17.133   8.346  0.2275 -0.3549 -0.1553
71371W        W14288   4.646  16.960   8.500  0.0163  0.3109 -0.1111
71372W        W14289   5.935  18.131   9.363 -0.0252  0.1533  0.2374
71373W        W14290   4.162  14.714   7.021  0.2458  0.0238 -0.2238
71374W        W14291   4.539  12.937   8.219 -0.1460  0.0365  0.1319
71375W        W14292   7.250  14.411   7.162  0.0769 -0.1113 -0.0611
71376W        W14293   5.034  14.538   9.538 -0.1910  0.4542 -0.1403
71377W        W14294   5.647  14.111   8.617  0.2339 -0.1854 -0.0819
71378W        W14295   3.246  15.596   8.477 -0.2798 -0.1350 -0.3461
71379W        W14296   5.455  18.631   7.875 -0.3200 -0.3312  0.0919
71380W        W14297   8.334  20.700   9.531 -0.0731  0.0756 -0.1632
71381W        W14298   4.546  17.964   9.217  0.0841 -0.0026 -0.2266
71382W        W14299   1.900  15.331   7.552 -0.1275 -0.2128  0.0705
71383W        W14300   6.055  16.793   9.419  0.1030  0.0554 -0.2036
71384W        W14301   2.016  16.890   9.206  0.1148  0.0722  0.0687
71385W        W14302   6.484  17.096   9.393  0.0528  0.0423  0.0149
71386W        W14303   7.059  14.704  12.473  0.2496 -0.0280  0.0269
71387W        W14304   3.818  21.354   8.527  0.0677 -0.0516 -0.2988
71388W        W14305   6.344  18.495   7.675  0.0207 -0.0181 -0.0303
71389W        W14306   5.565  18.485   9.413 -0.1187  0.1015 -0.0803
71390W        W14307   4.721  19.914   7.502 -0.1894  0.0013  0.0339
71391W        W14308   2.958  18.080   8.686  0.0062 -0.1737  0.0134
71392W        W14309   9.197  17.889   9.365 -0.2434  0.0121 -0.0440
71393W        W14310   3.265  17.250   7.868  0.0470 -0.2740  0.0059
71394W        W14311   3.562  15.559   8.963 -0.0619  0.0955 -0.2998
71395W        W14312   4.936  15.891   8.952 -0.0326 -0.2194 -0.2867
71396W        W14313   3.132  17.881   9.332 -0.3856  0.0931  0.1788
71397W        W14314   5.843  17.847   8.076  0.2387  0.1072  0.1747
71398W        W14315   0.002  18.552   9.615  0.0986  0.0959 -0.4419
71399W        W14316   3.636  17.570   7.589 -0.2996  0.2020 -0.1929
71400W        W14317   6.701  17.413   8.347  0.2825 -0.4226  0.3076
71401W        W14318   4.310  16.478   8.937 -0.1969  0.0950  0.4891
71402W        W14319   6.058  17.087   7.021 -0.1572 -0.3245  0.3693
71403W        W14320   4.617  14.195   8.838 -0.2095 -0.1420 -0.1973
71404W        W14321   1.682  17.255   8.760 -0.3999 -0.1203 -0.1988
71405W        W14322   3.133  16.477   8.768 -0.0138 -0.1349  0.2053
71406W        W14323   5.217  15.379   8.668  0.1365  0.1388 -0.6943
71407W        W14324   8.050  16.449   9.210 -0.0827  0.0262 -0.0919
71408W        W14325   3.406  16.942   9.334  0.0414 -0.1856 -0.0383
71409W        W14326   5.828  17.585  12.651  0.0173 -0.0872  0.0765
71410W        W14327   6.575  17.674   7.908  0.3846  0.1103 -0.1158
71411W        W14328   9.106  17.297   8.962  0.0355 -0.0874 -0.3752
71412W        W14329   7.169  18.503   7.839  0.3070 -0.0291  0.0313
71413W        W14330   3.211  15.186   8.718  0.0576  0.1590 -0.1319
71414W        W14331   5.676  13.141   6.248  0.1098 -0.1907 -0.2061
71415W        W14332   7.232  14.646   8.088 -0.0834  0.0091 -0.0942
71416W        W14333   4.448  15.541   9.426 -0.1937 -0.1111  0.0280
71417W        W14334   5.321  15.557   9.981 -0.0272  0.1806 -0.2164
71418W        W14335   6.392  17.892   8.354  0.1106 -0.0736 -0.2651
71419W        W14336   7.588  13.791   6.173 -0.1287  0.0401 -0.1298
71420W        W14337   2.005  12.581   9.443  0.2137 -0.0430  0.0431
71421W        W14338   4.737  18.424   7.386  0.0471  0.5118  0.1275
71422W        W14339   5.947  16.370   8.018  0.0029  0.0898  0.1710
71423W        W14340   4.628  17.154   9.737 -0.1009 -0.0476  0.1807
71424W        W14341   5.096  17.556   7.415 -0.0571  0.2640 -0.2110
71425W        W14342   5.345  18.060   9.514  0.2097 -0.1765  0.1216
71426W        W14343   4.255  18.419   6.877 -0.3705  0.1487 -0.0699
71427W        W14344   1.997  16.145   6.017  0.0310  0.0230 -0.1830
71428W        W14345   3.129  16.166   8.326  0.1357 -0.2368 -0.0391
71429W        W14346   5.279  12.946   8.420 -0.1646  0.1051 -0.0364
71430W        W14347   3.451  17.628   9.060 -0.0259 -0.1820 -0.1879
71431W        W14348   4.662  16.457   8.445  0.0769 -0.2274  0.1304
71432W        W14349   7.040  15.196   9.075  0.0248 -0.3746 -0.1246
71433W        W14350   2.472  17.214   9.620 -0.3076 -0.2572 -0.2857
71434W        W14351   4.764  17.703   8.866 -0.0323  0.1525 -0.2147
71435W        W14352   7.582  16.062   8.903 -0.4286 -0.2243 -0.0575
71436W        W14353   5.063  18.044   9.108 -0.0591  0.0161 -0.2358
71437W        W14354   4.329  16.745   9.898  0.2182  0.3636  0.0482
71438W        W14355   3.966  15.305   8.090 -0.2471 -0.0571 -0.1381
71439W        W14356   3.747  13.844   8.683  0.0932  0.2903 -0.3235
71440W        W14357   3.674  15.014   9.523 -0.0883 -0.1595 -0.1153
71441W        W14358   7.651  14.622   9.522 -0.0080 -0.0468 -0.0847
71442W        W14359   3.417  15.238  10.145  0.0204  0.0346  0.3189
71443W        W14360   3.849  17.586   8.658  0.0504  0.0418 -0.0590
71444W        W14361   6.502  19.703   7.743 -0.0121 -0.3195  0.0855
71445W        W14362   6.662  19.030   8.473  0.1058 -0.1705  0.1420
71446W        W14363   3.745  17.565   8.172  0.4508  0.1693  0.1509
71447W        W14364   5.144  15.023   9.393  0.1779  0.1279 -0.1618
71448W        W14365   3.973  15.309   9.040 -0.1783  0.0723  0.1643
71449W        W14366   2.682  17.811   7.196  0.0998  0.1245 -0.0472
71450W        W14367   4.403  18.461   8.349 -0.2486  0.0727 -0.0298
71451W        W14368   4.447  16.430   9.475  0.3113  0.1030 -0.2590
71452W        W14369   8.103  19.584   9.663  0.2255  0.3139 -0.2297
71453W        W14370   4.336  17.771   8.633  0.1486  0.1217 -0.2696
71454W        W14371   7.874  19.141   9.550 -0.2341 -0.0114  0.2601
71455W        W14372   3.463  15.099   8.125 -0.4639  0.0558 -0.3083
71456W        W14373   3.998  16.191   7.240  0.1612  0.2173 -0.1285
71457W        W14374   7.068  18.217   8.351  0.0059 -0.2366  0.1281
71458W        W14375   4.135  17.288   5.814 -0.0786 -0.1697 -0.0880
71459W        W14376   3.731  17.858   9.432 -0.0135  0.0484  0.0311
71460W        W14377   4.961  18.583   9.353 -0.1885 -0.1191  0.3516
71461W        W14378   5.663  17.496   8.809  0.0011  0.1890 -0.1602
71462W        W14379   4.079  15.838   8.041  0.5453  0.1424  0.3908
71463W        W14380   5.322  14.521   7.739 -0.0398 -0.1111  0.1741
71464W        W14381   6.254  15.952   7.773  0.1275 -0.3149 -0.1707
71465W        W14382   4.897  15.322   8.131  0.0816 -0.3784 -0.4356
71466W        W14383   6.574  15.492   6.901  0.0215  0.0170  0.0862
71467W        W14384   5.682  14.753   7.510  0.0781  0.1653 -0.2833
71468W        W14385   5.878  21.069  12.984 -0.2428  0.0863  0.1269
71469W        W14386   6.543  19.306   8.862  0.1024 -0.1022  0.0492
71470W        W14387   7.426  14.838   6.907 -0.0631  0.0735 -0.3882
71471W        W14388   5.917  16.997   8.557 -0.0517 -0.2390  0.1310
71472W        W14389   3.892  17.015  11.870  0.1955 -0.0557  0.1550
71473W        W14390   6.445  18.316   8.620  0.1725 -0.1061  0.1191
71474W        W14391   5.264  11.744   8.539  0.1136 -0.2874 -0.0577
71475W        W14392   4.927  17.093   7.434 -0.3814 -0.2569  0.0005
71476W        W14393   3.474  15.919   9.525 -0.2600  0.2532  0.4081
71477W        W14394   5.035  18.967   7.975  0.1169  0.1192  0.1855
71478W        W14395   5.051  14.357   9.060 -0.0289 -0.0667 -0.2162
71479W        W14396   4.784  16.025   9.515  0.0100 -0.1960 -0.0910
71480W        W14397   5.225  15.990   7.605  0.1113 -0.0254  0.4163
71481W        W14398   5.743  15.300   7.564 -0.4541 -0.0518 -0.1596
71482W        W14399   6.870  17.669   7.498 -0.1192 -0.0408  0.2682
71483W        W14400   2.993  17.100   8.679 -0.2985  0.0496 -0.2189
71484W        W14401   1.347  17.707   8.693  0.2974 -0.0115 -0.0247
71485W        W14402   5.304  14.980   8.322  0.2038 -0.0303  0.2995
71486W        W14403   5.187  14.814   5.810 -0.1904 -0.2382  0.1434
71487W        W14404   5.657  18.782   6.877 -0.0053  0.0352  0.2126
71488W        W14405   5.541  19.582   5.448  0.3743 -0.0776 -0.4682
71489W        W14406   4.591  13.638   7.595 -0.1124  0.4985  0.0586
71490W        W14407   5.735  14.159   9.129 -0.1367 -0.3232  0.1263
71491W        W14408   5.815  18.206   7.752 -0.0690  0.2353  0.0517
71492W        W14409   4.972  16.004   9.992  0.1328  0.0910 -0.2670
71493W        W14410   3.454  17.236   7.319  0.0687  0.0936  0.0751
71494W        W14411   8.143  17.263   8.728  0.0299 -0.1895 -0.2394
71495W        W14412   3.517  17.927   8.486  0.2556  0.1695  0.0159
71496W        W14413   4.039  16.209   8.464  0.0200 -0.1308 -0.1429
71497W        W14414   4.917  17.667   9.476 -0.1962 -0.3520 -0.1065
71498W        W14415   5.611  17.249   9.246 -0.0169 -0.1137  0.1165
71499W        W14416   7.859  15.744   6.668 -0.1019  0.0141  0.2596
71500W        W14417   4.262  13.863   9.089 -0.5527 -0.1834  0.0538
71501W        W14418   5.985  15.069   8.020  0.0191 -0.1608  0.0456
71502W        W14419   7.706  21.145  12.471  0.0372  0.0392 -0.0602
71503W        W14420   5.667  16.691   7.288 -0.0721  0.1727 -0.1062
71504W        W14421   4.488  17.704   6.857  0.2549 -0.0979 -0.3120
71505W        W14422   6.495  15.245   9.251 -0.0137  0.2208 -0.1329
71506W        W14423   5.175  16.708   8.074 -0.1831 -0.1953  0.2445
71507W        W14424   3.893  17.034   8.575  0.0138  0.0997  0.1275
71508W        W14425   5.222  17.505   9.101 -0.1038  0.3356  0.2742
71509W        W14426   4.810  18.796   8.373 -0.0131 -0.1114  0.0449
71510W        W14427   2.962  17.594   8.846  0.0590  0.2890 -0.1087
71511W        W14428   4.990  16.532   9.413 -0.1943 -0.0343  0.1028
71512W        W14429   6.839  15.712   9.189 -0.1056 -0.1024 -0.2103
71513W        W14430   4.029  14.750   8.843  0.0358 -0.2660  0.0982
71514W        W14431   5.806  16.008   8.342 -0.0037 -0.5497  0.1069
71515W        W14432   5.351  18.512   8.422 -0.0759 -0.0573 -0.0355
71516W        W14433   7.370  18.976   9.560  0.3261 -0.0922  0.2137
71517W        W14434   6.091  15.044   8.870  0.0318 -0.3254 -0.1789
71518W        W14435   8.246  17.651   8.387 -0.0235 -0.0885  0.3009
71519W        W14436   3.709  15.935   7.517  0.1736 -0.5078 -0.0046
71520W        W14437   0.720  15.900   8.831  0.1484 -0.1286  0.0847
71521W        W14438   5.451  18.356   8.933 -0.3258 -0.0125  0.1064
71522W        W14439   4.236  16.699   8.420 -0.1454 -0.0927  0.0071
71523W        W14440   2.693  18.077   9.130 -0.1870  0.2820  0.0913
71524W        W14441   2.446  16.896   7.904  0.1774  0.2703  0.1132
71525W        W14442   2.865  14.182   9.583  0.0384 -0.0616 -0.1668
71526W        W14443   7.601  14.820   6.214 -0.1454 -0.0746  0.1013
71527W        W14444   6.633  18.564   8.235 -0.0214 -0.1850 -0.2291
71528W        W14445   6.435  14.880   8.147 -0.0040 -0.1170  0.0630
71529W        W14446   7.270  16.674   8.012  0.0400  0.1485 -0.0197
71530W        W14447   3.856  13.985   9.830 -0.1322  0.1121  0.1315
71531W        W14448   8.136  17.535   7.870  0.1367 -0.0735 -0.1829
71532W        W14449   6.480  15.487   7.502 -0.0685 -0.0121  0.2999
71533W        W14450   2.979  15.149   8.219  0.3612  0.0878  0.0165
71534W        W14451   5.210  13.668   9.463  0.2783  0.0711 -0.0990
71535W        W14452   7.583  17.747   7.798 -0.0530 -0.0193  0.1584
71536W        W14453   6.190  17.569   7.428 -0.1486  0.1590 -0.0535
71537W        W14454   6.782  15.995   9.663 -0.1427  0.0162 -0.2005
71538W        W14455   3.469  18.836   9.032  0.1825  0.1131  0.1412
71539W        W14456   8.943  17.277   9.411  0.2216 -0.0742 -0.2632
71540W        W14457   3.974  15.954   6.679 -0.0915 -0.1368  0.1455
71541W        W14458   4.424  18.254   7.799  0.4774 -0.0345  0.1915
71542W        W14459   5.540  16.554   8.363  0.0678 -0.0619  0.3857
71543W        W14460   7.689  15.811   7.784  0.1847 -0.0381 -0.2270
71544W        W14461   7.669  19.047   9.005 -0.3500  0.0222 -0.2412
71545W        W14462   5.929  16.448   5.697 -0.2904  0.0604 -0.4901
71546W        W14463   3.881  15.703   9.893  0.0170  0.1173  0.0527
71547W        W14464   5.743  17.424   7.780  0.0368  0.0908 -0.1257
71548W        W14465   7.103  16.597   5.866  0.2805 -0.1713 -0.0019
71549W        W14466   6.279  15.873   8.269  0.1204 -0.0047 -0.0581
71550W        W14467   3.027  14.409   7.165 -0.0226 -0.0885 -0.0576
71551W        W14468   5.605  19.749   7.311 -0.3388 -0.2504  0.0990
71552W        W14469   5.277  16.790   9.111  0.0032 -0.3223 -0.4608
71553W        W14470   2.181  17.207   8.849 -0.1060 -0.1525  0.0462
71554W        W14471   2.311  16.913   8.392  0.0508  0.0311 -0.0829
71555W        W14472   3.551  15.606   6.732 -0.1177  0.0329  0.2067
71556W        W14473   3.851  16.752   8.093 -0.0511  0.2424  0.1187
71557W        W14474   6.073  18.739   9.522  0.1866  0.2382  0.0472
71558W        W14475   5.536  11.931   7.614 -0.2408 -0.0972 -0.0471
71559W        W14476   2.807  16.192   7.607  0.0262 -0.0777 -0.0247
71560W        W14477   6.988  17.400   8.796  0.2504 -0.1768 -0.2061
71561W        W14478   2.373  18.101   8.575 -0.1065  0.3529 -0.1599
71562W        W14479   5.045  19.457   8.095 -0.2904 -0.1057  0.1571
71563W        W14480   6.087  13.733   9.343  0.1567  0.0705  0.0100
71564W        W14481   7.031  14.922   7.331 -0.0252 -0.0227  0.0538
71565W        W14482   5.653  14.032   6.790  0.1978 -0.2865 -0.1305
71566W        W14483   3.162  15.872   9.945 -0.0369 -0.0107  0.0091
71567W        W14484   9.911  16.456   7.469  0.0924  0.1715  0.1548
71568W        W14485   5.253  16.179   9.166  0.2320 -0.1062 -0.4257
71569W        W14486   7.215  14.169   8.142  0.0600  0.2016 -0.3311
71570W        W14487   4.395  15.562   8.916 -0.1121  0.0489 -0.1884
71571W        W14488   6.311  19.425   7.234 -0.0388  0.2612  0.3265
71572W        W14489   4.946  15.555   9.620  0.3447 -0.0716  0.0081
71573W        W14490   3.754  19.878   6.410  0.2069 -0.5258  0.2032
71574W        W14491   4.755  19.015   9.137 -0.2190 -0.0099  0.0433
71575W        W14492   4.693  17.399   8.346 -0.0488 -0.0066  0.1183
71576W        W14493   5.227  18.375   9.923  0.2239  0.0839  0.0621
71577W        W14494   4.479  16.554   8.019  0.1543 -0.1180 -0.2587
71578W        W14495   2.663  16.643   8.755  0.1647  0.1720  0.0864
71579W        W14496   3.779  18.410   6.822 -0.0555  0.0221  0.0169
71580W        W14497   6.835  18.126   9.484  0.0877  0.1287  0.1648
71581W        W14498   2.327  19.969   9.001 -0.0745 -0.6474  0.0700
71582W        W14499   6.086  14.819   7.008  0.3188 -0.1903 -0.0202
71583W        W14500   7.600  13.919   7.910  0.0496 -0.4840 -0.0005
71584W        W14501   7.094  15.030   8.437 -0.1036 -0.0711  0.1176
71585W        W14502   4.419  17.970  10.001 -0.2737 -0.5089 -0.2009
71586W        W14503   4.071  13.529   7.315  0.1887 -0.1702 -0.1420
71587W        W14504   7.531  18.278   8.153  0.0270 -0.2289  0.0762
71588W        W14505   3.861  15.706   8.497  0.2043  0.1237 -0.0103
71589W        W14506   5.106  17.121   9.385 -0.1271 -0.3204 -0.1204
71590W        W14507   4.715  14.010   9.364  0.0370 -0.2530 -0.0732
71591W        W14508   4.783  18.233   6.859  0.1371 -0.1476 -0.0102
71592W        W14509   7.579  16.457   9.220 -0.1975  0.3768 -0.2676
71593W        W14510   4.800  19.752   8.446  0.0137  0.1369  0.1802
71594W        W14511   4.382  19.163   9.512  0.1964 -0.1787  0.1855
71595W        W14512   3.395  18.241   9.745  0.2075  0.0886  0.1095
71596W        W14513   2.956  12.758   9.245 -0.1149  0.3271  0.0176
71597W        W14514   5.640  16.364   8.815 -0.0963 -0.1347  0.2403
71598W        W14515   4.038  15.887   8.928  0.2574 -0.3031 -0.0722
71599W        W14516   5.998  14.559   8.858 -0.2250  0.1463 -0.4032
71600W        W14517   8.180  15.985   5.921  0.2675  0.1323 -0.0878
71601W        W14518   4.646  16.877   9.168 -0.1765 -0.2271  0.0199
71602W        W14519   4.803  13.106   9.397  0.1511 -0.0438 -0.0453
71603W        W14520   5.064  16.721   8.632 -0.2042  0.2342 -0.1248
71604W        W14521   3.440  16.468   7.945 -0.1868 -0.4526 -0.4752
71605W        W14522   5.098  14.127   8.564 -0.0696 -0.1503 -0.0037
71606W        W14523   6.094  14.317   6.827 -0.1145  0.0076 -0.0803
71607W        W14524   4.264  17.281   8.820 -0.0787  0.2140  0.0673
71608W        W14525   1.804  17.964   7.795  0.2229 -0.0258  0.0865
71609W        W14526   5.903  14.572   7.916  0.0937 -0.2848  0.1942
71610W        W14527   6.350  17.801   9.674  0.0954  0.4331  0.1020
71611W        W14528   5.383  15.925   9.561  0.1805  0.0859 -0.2442
71612W        W14529   6.660  19.830   6.285 -0.0676 -0.0834  0.1816
71613W        W14530   4.818  16.360   8.992 -0.1160 -0.0087  0.0197
71614W        W14531   6.064  17.933   8.783 -0.2481  0.0362 -0.1171
71615W        W14532   4.176  19.426   9.148 -0.0102 -0.1212  0.0034
71616W        W14533   3.372  19.387   8.797 -0.0633 -0.0150  0.1291
71617W        W14534   8.639  17.122   8.601 -0.2023 -0.0238  0.0839
71618W        W14535   6.947  14.721   6.868 -0.0701  0.2543 -0.3143
71619W        W14536   5.915  15.895   9.596  0.1705  0.1043  0.1956
71620W        W14537   4.236  18.180   6.444 -0.0016 -0.1324 -0.1848
71621W        W14538   7.792  17.793   9.486  0.4259  0.0300  0.2707
71622W        W14539   6.540  18.996   7.374  0.2279  0.2057  0.1261
71623W        W14540   1.109  15.939   9.177 -0.3283  0.1174  0.2167
71624W        W14541   4.469  17.065   6.963  0.0662 -0.3992  0.1523
71625W        W14542   6.036  17.301   9.560 -0.1750 -0.1486 -0.0017
71626W        W14543   6.325  19.209   7.785  0.3124  0.0427 -0.1697
71627W        W14544   6.297  16.741   8.998  0.1054 -0.0198  0.3352
71628W        W14545   5.503  16.362   7.836 -0.0534 -0.0560 -0.2432
71629W        W14546   6.854  18.968   9.121  0.0817  0.1073  0.1374
71630W        W14547   7.641  13.782   9.334  0.1219 -0.4143 -0.0936
71631W        W14548   5.772  15.936   7.700 -0.1678 -0.0477 -0.1175
71632W        W14549   6.738  15.869   7.779 -0.2460 -0.3105  0.1407
71633W        W14550   5.423  14.577   8.631 -0.0016  0.2306  0.1645
71634W        W14551   4.135  17.185   8.125  0.0497 -0.1217  0.5481
71635W        W14552   3.761  18.131   6.371  0.1302 -0.0584  0.1454
71636W        W14553   1.135  17.179   8.725  0.1067  0.1359 -0.0582
71637W        W14554   2.605  17.330   8.568 -0.1599  0.3154  0.0197
71638W        W14555   3.003  14.869   9.328 -0.1959  0.3119  0.0183
71639W        W14556   5.683  17.699   9.495 -0.0502 -0.1459  0.2879
71640W        W14557   6.275  14.032   8.958 -0.2782 -0.0213  0.0614
71641W        W14558   3.212  12.301   8.794 -0.3390  0.2833 -0.0531
71642W        W14559   6.255  18.978   9.145  0.1682  0.0768  0.1140
71643W        W14560   7.476  18.123   9.215  0.0001  0.0515  0.0653
71644W        W14561   4.200  12.217   7.387  0.1052 -0.1646 -0.1366
71645W        W14562   4.685  15.879   6.600  0.0336 -0.1521  0.1121
71646W        W14563   2.550  14.232   6.445  0.0370  0.0734 -0.1223
71647W        W14564   5.224  16.237   8.565  0.0375  0.0169  0.0605
71648W        W14565   5.033  18.824   7.490 -0.1091  0.1056 -0.1539
71649W        W14566   7.716  16.336   7.777 -0.0120 -0.0252 -0.0462
71650W        W14567   7.472  14.787   7.585  0.1794  0.0285 -0.0013
71651W        W14568   4.989  17.186   8.818  0.0063 -0.1860 -0.0141
71652W        W14569   6.085  18.432   8.131 -0.0262 -0.0116 -0.1577
71653W        W14570   8.414  16.136   8.599  0.4278 -0.0236  0.0964
71654W        W14571   6.486  17.129   8.696 -0.0223  0.0617  0.0172
71655W        W14572   4.137  18.078   9.595  0.2704 -0.4864 -0.0306
71656W        W14573   5.942  16.986   7.610  0.0282  0.1604  0.2969
71657W        W14574   5.800  16.766   9.019 -0.1565 -0.0467 -0.1983
71658W        W14575   3.699  18.131   7.241 -0.3616 -0.4417 -0.0506
71659W        W14576   4.652  17.563   7.831  0.3541  0.4008  0.0663
71660W        W14577   5.169  17.568   8.579  0.1106  0.1509  0.0064
71661W        W14578   6.147  19.319   8.566 -0.1251 -0.1480  0.2116
71662W        W14579   6.039  16.329   7.519 -0.2125 -0.0540  0.1841
71663W        W14580   7.433  17.274   8.575 -0.0047 -0.1327 -0.0962
71664W        W14581   3.449  15.974   8.655 -0.0578  0.0344 -0.1644
71665W        W14582   4.213  18.411   7.363 -0.0510  0.4513  0.1019
71666W        W14583   7.821  19.958   9.989 -0.1432 -0.0122  0.0114
71667W        W14584   4.418  13.641   9.638  0.0440  0.1093 -0.0283
71668W        W14585   3.212  16.425   9.258  0.1150 -0.1960 -0.1430
71669W        W14586   7.338  15.845   8.447  0.1196  0.1291 -0.0286
71670W        W14587   6.201  18.211   9.991  0.0423  0.0087  0.1038
71671W        W14588   5.698  15.764   9.129  0.1833 -0.0186  0.0934
71672W        W14589   6.595  14.583   7.360 -0.1974  0.0365 -0.1460
71673W        W14590   2.667  17.265   9.131 -0.1598 -0.1580  0.4913
71674W        W14591   0.667  15.105   9.417 -0.0065 -0.1638  0.2628
71675W        W14592   5.646  20.431   4.787  0.2421  0.1262  0.0250
71676W        W14593   3.258  18.273   2.366  0.2426 -0.0799  0.3877
71677W        W14594   6.367  19.113  30.713 -0.2200 -0.0278  0.1799
71678W        W14595   7.309  19.220   1.587 -0.0797 -0.1243 -0.0615
71679W        W14596   4.481  18.610   2.599  0.0857 -0.2709  0.2565
71680W        W14597   6.339  19.872   0.969  0.0256  0.5903  0.2032
71681W        W14598   3.423  19.527   1.906  0.2801  0.0200  0.2746
71682W        W14599   4.730  22.310   1.320  0.1102 -0.0124  0.2252
71683W        W14600   7.569  21.983   4.519 -0.0999 -0.0551 -0.2213
71684W        W14601   7.624  21.043  31.848 -0.0129  0.0159  0.2594
71685W        W14602   6.605  18.488   1.715  0.0387  0.4110  0.0493
71686W        W14603   7.391  20.655   3.201 -0.6293  0.1987 -0.3948
71687W        W14604   6.524  18.186  31.115  0.2782 -0.2327 -0.1005
71688W        W14605   5.261  18.400   1.701  0.0368 -0.3869  0.0401
71689W        W14606   6.601  21.082   1.496 -0.2369  0.0434 -0.0053
71690W        W14607   5.923  21.508   1.284 -0.5615 -0.3911  0.0876
71691W        W14608   3.750  17.634   4.118 -0.1456 -0.2400 -0.3664
71692W        W14609   5.106  18.929   0.871  0.1529 -0.0180 -0.0348
71693W        W14610   6.915  22.483   0.317 -0.1994  0.0907 -0.0543
71694W        W14611   5.296  17.422   4.117 -0.2239 -0.1500 -0.3278
71695W        W14612   7.654  19.971   2.697  0.1059 -0.1046 -0.4329
71696W        W14613   4.707  21.085   0.758 -0.2608 -0.1176 -0.2131
71697W        W14614   3.343  20.705  31.799  0.2639  0.2021  0.1771
71698W        W14615   5.881  19.679   2.595  0.3321  0.0722 -0.1001
71699W        W14616   6.118  20.965   1.444  0.1010 -0.1828 -0.1908
71700W        W14617   6.557  18.771  31.606  0.0434 -0.0422  0.1542
71701W        W14618   7.480  18.761   1.597  0.0252  0.0395 -0.1227
71702W        W14619   5.306  19.380   0.819 -0.0323 -0.0755 -0.2352
71703W        W14620   4.648  21.372   0.341  0.2209 -0.1922 -0.0402
71704W        W14621   6.263  19.656   4.644  0.2569  0.1531  0.1643
71705W        W14622   4.506  20.007   2.283 -0.0504 -0.1723 -0.0389
71706W        W14623   1.753  23.128   0.919 -0.1476  0.0913  0.0250
71707W        W14624   6.038  18.741   1.117  0.1253 -0.3850 -0.1216
71708W        W14625   7.090  21.575  31.431 -0.1900  0.1655 -0.1471
71709W        W14626   7.264  20.970   2.846  0.0752 -0.0984  0.3042
71710W        W14627   7.469  21.603   4.254 -0.2894 -0.2124  0.2343
71711W        W14628   5.711  19.754   1.751  0.2312  0.2772 -0.0020
71712W        W14629   5.301  24.316   1.932  0.1049  0.1438  0.1626
71713W        W14630   5.137  21.855   2.403  0.0859  0.2963  0.1990
71714W        W14631   5.163  20.939   0.988 -0.0198 -0.2821 -0.1343
71715W        W14632   7.386  19.732   3.878 -0.0712 -0.1902  0.4109
71716W        W14633   6.517  19.605   0.529  0.3471 -0.0060  0.0553
71717W        W14634   7.332  19.503   1.970 -0.0946 -0.0520 -0.1843
71718W        W14635   5.504  19.794   2.222  0.0422 -0.0674 -0.1975
71719W        W14636   4.041  22.859   1.926  0.1365  0.1883 -0.3470
71720W        W14637   7.724  19.485   4.227  0.3123  0.2018 -0.0808
71721W        W14638   4.610  21.216  31.333 -0.1653 -0.2680  0.0175
71722W        W14639   6.270  19.572   0.053  0.2229  0.1446 -0.1228
71723W        W14640   5.965  16.637   1.615 -0.1531  0.0924  0.0119
71724W        W14641   6.289  17.905  30.741  0.1032  0.1721  0.0144
71725W        W14642   4.810  18.369   1.513 -0.1391  0.2374 -0.0060
71726W        W14643   4.087  21.531   2.523  0.2140 -0.2419  0.1435
71727W        W14644   5.547  18.611   0.825  0.1875  0.2425 -0.1219
71728W        W14645   7.162  20.307   0.634  0.0714 -0.0326  0.1086
71729W        W14646   5.188  18.571  31.426  0.1038 -0.2448 -0.0413
71730W        W14647   6.330  19.345   2.170  0.0751 -0.2579 -0.0645
71731W        W14648   3.963  20.235   3.036  0.1120 -0.0205 -0.0299
71732W        W14649   3.196  21.467   2.388 -0.3478  0.2170  0.0179
71733W        W14650   7.830  18.716  31.393  0.3525 -0.0425 -0.1881
71734W        W14651   8.323  20.357   1.350  0.0945  0.1702 -0.0440
71735W        W14652   6.041  21.756   0.270 -0.0105 -0.0980  0.2787
71736W        W14653   5.283  20.580   2.628 -0.1273 -0.1834  0.1531
71737W        W14654   1.821  20.546   1.865 -0.0835  0.0165  0.0607
71738W        W14655   4.277  19.617   2.558 -0.0674 -0.2797  0.0348
71739W        W14656   5.833  20.289  30.802 -0.1090 -0.0653  0.1225
71740W        W14657   6.590  20.063   3.443 -0.0750  0.2735 -0.1677
71741W        W14658   3.693  21.234   4.824  0.0320  0.0299 -0.1490
71742W        W14659   7.681  19.082  29.626  0.2696 -0.0213  0.2474
71743W        W14660   5.273  21.062   2.505  0.0907 -0.1102 -0.2632
71744W        W14661   7.280  21.191   2.072 -0.1783 -0.1415 -0.0283
71745W        W14662   6.995  19.757   0.439 -0.1632  0.0340  0.0736
71746W        W14663   6.644  19.216   3.130  0.0687 -0.0801 -0.2461
71747W        W14664   8.322  18.436   1.592 -0.2564  0.0140  0.0632
71748W        W14665   5.440  19.830  30.846  0.0863 -0.3438  0.1353
71749W        W14666   5.999  19.175   1.784  0.0398  0.0038 -0.0321
71750W        W14667   8.299  19.180   3.619 -0.1345 -0.3295 -0.1253
71751W        W14668   6.976  17.384  31.811  0.0635  0.0410  0.1758
71752W        W14669   4.524  21.154   2.273  0.0075 -0.4264 -0.1728
71753W        W14670   4.599  20.019   1.133  0.0388 -0.0285 -0.0460
71754W        W14671   5.357  20.082   2.644 -0.0699  0.2153 -0.3056
71755W        W14672   5.676  21.898  31.789  0.0004 -0.1177  0.2306
71756W        W14673   3.473  20.547  30.696  0.1875  0.2785 -0.1086
71757W        W14674   4.214  20.569  31.426 -0.0657 -0.1032  0.0455
71758W        W14675   4.423  18.031   1.384 -0.1695  0.1246 -0.2347
71759W        W14676   4.337  21.655   0.116 -0.0500 -0.1933 -0.3186
71760W        W14677   6.788  18.057   1.422  0.0254 -0.0809  0.1819
71761W        W14678   3.816  19.896   2.737  0.1068  0.0755 -0.2833
71762W        W14679   7.468  18.834   0.619 -0.2348  0.0320 -0.2496
71763W        W14680   5.567  19.036   1.070  0.4594  0.0482  0.0279
71764W        W14681   5.392  21.766   0.613  0.0340  0.2052 -0.1365
71765W        W14682   7.735  19.090  31.809 -0.3020  0.4138 -0.2484
71766W        W14683   7.093  20.583  31.198 -0.0213 -0.1117 -0.5118
71767W        W14684   2.450  21.234   2.843  0.0488 -0.1152 -0.1292
71768W        W14685   4.621  19.019   2.185  0.1330  0.2230  0.0627
71769W        W14686   5.318  18.546   2.339  0.0117 -0.1288  0.3660
71770W        W14687   5.253  19.321   3.292  0.1286  0.2760  0.3399
71771W        W14688   7.672  19.098   1.932 -0.2883 -0.0978 -0.1026
71772W        W14689   3.699  19.993   1.833  0.2313  0.2452  0.4324
71773W        W14690   7.135  19.256   0.384 -0.1736  0.1284 -0.0059
71774W        W14691   5.877  20.236   0.872 -0.2219 -0.0950  0.1632
71775W        W14692   3.648  21.588   2.284 -0.0509  0.3894 -0.2687
71776W        W14693   9.005  18.695   3.886  0.1629 -0.0837  0.3323
71777W        W14694   5.001  21.486   1.062 -0.0352 -0.3144  0.1118
71778W        W14695   8.646  22.317   3.879  0.2159  0.1660  0.1538
71779W        W14696   4.798  21.505   3.160  0.1942 -0.0386  0.3251
71780W        W14697   5.785  20.393   2.669  0.1028  0.2465 -0.2926
71781W        W14698   4.103  17.790   0.703 -0.1450 -0.0989  0.0075
71782W        W14699   4.708  20.994   1.268 -0.0461 -0.2071  0.1830
71783W        W14700   6.022  20.606   0.510  0.3306  0.1035 -0.2129
71784W        W14701   5.023  18.134  30.906  0.2317  0.2022  0.0075
71785W        W14702   6.265  20.993   1.890  0.1852  0.0359  0.3253
71786W        W14703   7.163  20.249   0.077  0.1217 -0.1620  0.1251
71787W        W14704   4.721  20.177   4.049 -0.3597 -0.2182  0.0641
71788W        W14705   6.597  17.256   2.957 -0.2330 -0.1404  0.0969
71789W        W14706   7.926  18.463   2.429 -0.2904  0.0411 -0.2093
71790W        W14707   7.922  19.296   3.332 -0.0305 -0.1147  0.5086
71791W        W14708   4.729  17.735  30.738  0.0689  0.3174 -0.2700
71792W        W14709   5.666  21.358   0.412  0.0289  0.1473 -0.0103
71793W        W14710   4.543  19.957   0.650  0.1313 -0.2145  0.0657
71794W        W14711   2.616  20.165   1.478 -0.0761 -0.2437  0.2764
71795W        W14712   5.582  21.071   1.294  0.2219 -0.1400 -0.0505
71796W        W14713   6.949  16.548  31.830 -0.1073 -0.0734 -0.1660
71797W        W14714   2.471  21.376   3.635  0.1553 -0.0809 -0.0800
71798W        W14715   6.070  18.919   4.669 -0.0673 -0.0985 -0.0666
71799W        W14716   5.971  19.191   0.179  0.1106 -0.0602  0.0586
71800W        W14717   3.634  22.375   2.777 -0.0927  0.0748  0.0640
71801W        W14718   6.773  16.906   0.720 -0.1154 -0.2528 -0.0207
71802W        W14719   7.116  18.306   1.762  0.0614 -0.3478 -0.3008
71803W        W14720   5.303  20.747   1.886  0.0268 -0.1699 -0.1787
71804W        W14721   6.693  20.133   0.589  0.1621  0.1581 -0.1522
71805W        W14722   5.147  17.098   0.832 -0.2127  0.2928  0.0170
71806W        W14723   5.395  17.082  30.474  0.2654  0.4636  0.2510
71807W        W14724   4.378  21.086   3.605 -0.0121  0.0421  0.1864
71808W        W14725   7.368  20.634   0.213  0.0538  0.1291 -0.0303
71809W        W14726   6.603  19.742   2.990 -0.1686  0.0743  0.0758
71810W        W14727   3.367  20.043   0.195  0.0089  0.0556 -0.4112
71811W        W14728   8.855  20.173   0.593  0.3581  0.0004 -0.0274
71812W        W14729   3.792  21.377   3.705  0.1038  0.1632 -0.1107
71813W        W14730   7.122  21.471   3.794 -0.1260 -0.0709 -0.3171
71814W        W14731   5.938  20.552   1.244 -0.0199 -0.5054 -0.2923
71815W        W14732   7.160  19.632   1.254  0.0718  0.0941  0.1997
71816W        W14733   5.012  19.640  31.176  0.2053  0.2389 -0.1649
71817W        W14734   6.829  18.511   2.150 -0.1922 -0.2782 -0.0461
71818W        W14735   3.699  20.640  31.462 -0.1423 -0.1472 -0.3237
71819W        W14736   7.578  17.704   1.007 -0.1514  0.0604 -0.0177
71820W        W14737   7.008  18.739   2.546 -0.2122  0.1830  0.1757
71821W        W14738   7.415  16.106   3.007  0.2284  0.1956 -0.0108
71822W        W14739   6.978  19.553   2.761 -0.3467  0.0596 -0.1065
71823W        W14740   5.318  19.373   1.863 -0.0820  0.1660  0.0503
71824W        W14741   5.454  20.182   1.095 -0.1161  0.1279  0.1093
71825W        W14742   4.907  19.487   0.579  0.1103 -0.0870 -0.4001
71826W        W14743   6.021  17.304   3.355  0.0723  0.3670 -0.1138
71827W        W14744   5.382  20.610   1.420 -0.0853  0.0403 -0.2769
71828W        W14745   6.835  20.849   3.959  0.0259  0.1271  0.0643
71829W        W14746   7.218  21.365   3.194  0.0837 -0.2588 -0.0891
71830W        W14747   6.677  19.843   1.344 -0.0751  0.0778 -0.3969
71831W        W14748   6.134  16.532   2.908  0.0712 -0.0555 -0.2889
71832W        W14749   6.307  18.296   2.178  0.2536  0.0407 -0.0934
71833W        W14750   5.926  19.439   0.745  0.1492  0.0363 -0.3751
71834W        W14751   5.483  21.355  31.401 -0.2107  0.1649 -0.0003
71835W        W14752   4.966  19.348   1.192 -0.2650  0.1340 -0.2228
71836W        W14753   5.259  23.196   0.661 -0.1216 -0.4713 -0.1526
71837W        W14754   4.617  19.711  31.663 -0.0354 -0.2438 -0.0449
71838W        W14755   6.844  20.504   0.313  0.0228 -0.0144 -0.0684
71839W        W14756   4.601  21.628   0.768  0.2697  0.1247  0.3483
71840W        W14757   7.574  18.498   2.818 -0.0613  0.2892 -0.0740
71841W        W14758   3.629  22.569   2.263  0.2568  0.1597 -0.1067
71842W        W14759   4.799  19.236  30.970  0.1828  0.2118  0.1387
71843W        W14760   5.399  17.105   2.046  0.0042 -0.1088 -0.3100
71844W        W14761   6.917  16.402   0.778  0.1014  0.1398  0.1685
71845W        W14762   7.725  19.210  30.692  0.1719 -0.2144  0.0191
71846W        W14763   4.139  19.317   4.111 -0.1567  0.1262  0.0560
71847W        W14764   6.270  17.950   2.602 -0.1268  0.2609 -0.0289
71848W        W14765   4.021  21.901   2.908  0.1792 -0.0769  0.2552
71849W        W14766   5.871  18.523   2.377 -0.0350  0.0401 -0.2525
71850W        W14767   7.187  17.412   0.859 -0.2693  0.1307  0.1401
71851W        W14768   5.897  20.987   0.851  0.0921 -0.0126 -0.0907
71852W        W14769   6.095  18.962   2.446  0.3550  0.1957  0.1333
71853W        W14770   5.029  19.417  31.651  0.1591  0.1432 -0.0627
71854W        W14771   7.012  17.970   0.874  0.0872 -0.3108  0.2863
71855W        W14772   5.224  19.848   0.387  0.0252  0.1084  0.0865
71856W        W14773   4.901  21.449   2.593  0.2904  0.1316 -0.0815
71857W        W14774   5.436  21.568   1.458  0.1179  0.1419 -0.2592
71858W        W14775   3.691  19.054   1.862  0.1877 -0.2188 -0.2845
71859W        W14776   4.467  21.577   2.805  0.0548 -0.1547 -0.2232
71860W        W14777   5.689  18.405   1.953  0.1014 -0.0391 -0.2934
71861W        W14778   8.239  21.124   4.275  0.2724 -0.1031 -0.2461
71862W        W14779   6.396  17.685   2.168  0.1436  0.2023  0.1242
71863W        W14780   5.578  18.893   2.133  0.0550 -0.0190  0.3183
71864W        W14781   5.197  18.939   1.409  0.0374  0.0674  0.0639
71865W        W14782   6.617  20.564   2.617  0.0232  0.0133  0.0111
71866W        W14783   6.498  17.400   4.346  0.0028 -0.1284  0.1369
71867W        W14784   6.466  21.231   2.839  0.0839 -0.1988  0.1764
71868W        W14785   7.617  18.121   1.663 -0.0402 -0.1522  0.2397
71869W        W14786   5.755  21.893   2.575  0.2040 -0.0683 -0.0639
71870W        W14787   8.183  20.141   2.991 -0.0710 -0.0745 -0.0171
71871W        W14788   4.406  21.394   1.169 -0.2254 -0.3502 -0.0230
71872W        W14789   2.840  20.607   1.742  0.0135 -0.1487  0.2496
71873W        W14790   5.150  21.227   0.516  0.2827  0.1953  0.0873
71874W        W14791   5.352  21.232   3.712 -0.0686  0.4333  0.1054
71875W        W14792   8.003  20.306   2.470 -0.4514  0.2683  0.0825
71876W        W14793   5.679  20.480  31.247 -0.3029 -0.2154 -0.3135
71877W        W14794   4.423  22.774   1.093  0.2175 -0.2829  0.0784
71878W        W14795   6.447  16.521   0.525  0.2555  0.0549 -0.0699
71879W        W14796   6.755  18.842  29.525  0.0371 -0.2139 -0.2438
71880W        W14797   6.107  18.419   1.590  0.1864 -0.1259  0.0711
71881W        W14798   9.024  20.088   3.437  0.1167 -0.4835 -0.0548
71882W        W14799   7.850  20.668   0.063 -0.1268  0.2656 -0.0023
71883W        W14800   6.610  16.441   2.899  0.1484 -0.0733  0.0995
71884W        W14801   5.424  18.121   0.942  0.1449 -0.1481 -0.0792
71885W        W14802   7.082  21.474   1.094  0.1571 -0.1980 -0.0782
71886W        W14803   3.046  19.235   2.720 -0.1904  0.1129 -0.0093
71887W        W14804   7.478  21.847   2.973  0.2556 -0.1861 -0.2932
71888W        W14805   4.887  22.006   2.811 -0.2069  0.0016 -0.1337
71889W        W14806   5.882  18.711   0.245 -0.1720  0.1164 -0.1068
71890W        W14807   5.556  19.852   0.730 -0.2139  0.1675 -0.0638
71891W        W14808   6.048  19.963   2.073 -0.0732  0.0978  0.2461
71892W        W14809   8.005  19.280   2.382 -0.2116  0.0346  0.0311
71893W        W14810   7.278  18.754  31.541  0.1657  0.1666 -0.0003
71894W        W14811   7.595  17.657   2.296  0.1643 -0.1261  0.1817
71895W        W14812   5.123  20.726   0.585  0.3861  0.2216  0.1288
71896W        W14813   6.773  19.500   0.892 -0.0111  0.0486 -0.0355
71897W        W14814   4.281  19.957   0.183  0.1660 -0.0093  0.1942
71898W        W14815   3.893  21.342   2.959  0.1419 -0.1111 -0.0414
71899W        W14816   3.432  19.211   2.297  0.2408 -0.0671  0.0334
71900W        W14817   7.201  19.911   3.078  0.2428  0.0886  0.0959
71901W        W14818   6.318  17.361  30.577 -0.0292  0.1484 -0.0817
71902W        W14819   6.602  19.118   2.596 -0.0213 -0.2113 -0.5476
71903W        W14820   7.157  17.334   1.638 -0.0863  0.1456 -0.0912
71904W        W14821   6.078  17.731   3.600  0.2420 -0.1196 -0.1177
71905W        W14822   5.964  17.021   1.934  0.0524 -0.1262 -0.2783
71906W        W14823   5.760  21.616   3.539 -0.0565 -0.0376  0.1419
71907W        W14824   7.381  19.833   0.112  0.0528 -0.1665 -0.4567
71908W        W14825   6.534  22.017   1.008  0.1236 -0.0428 -0.1698
71909W        W14826   6.253  18.544  31.283 -0.0612  0.1747 -0.0998
71910W        W14827   7.751  19.655   1.027 -0.0206 -0.0163  0.2601
71911W        W14828   5.774  19.387   2.206 -0.0600  0.2540 -0.2282
71912W        W14829   6.229  20.043   1.449  0.0139 -0.2539  0.1968
71913W        W14830   4.523  18.729   1.692  0.2578 -0.1281 -0.0375
71914W        W14831   9.023  20.711   3.059 -0.1681 -0.1088 -0.1929
71915W        W14832   6.594  21.528   1.262 -0.0213  0.0898 -0.2718
71916W        W14833   4.600  21.927   1.718 -0.0376  0.0136  0.0247
71917W        W14834   7.011  18.912   0.823  0.0938 -0.2899 -0.0140
71918W        W14835   4.395  20.393   1.989 -0.0563  0.1138  0.1839
71919W        W14836   3.488  21.079   3.244 -0.0710  0.0741 -0.3394
71920W        W14837   6.678  19.521  31.018  0.0093  0.4337 -0.1859
71921W        W14838   5.177  18.662   0.307 -0.2818 -0.0940  0.0420
71922W        W14839   6.324  20.341   0.930  0.0682 -0.1825  0.1903
71923W        W14840   6.084  20.863   4.155 -0.4335  0.1029  0.0561
71924W        W14841   5.561  18.460  30.797 -0.0063  0.0519  0.1169
71925W        W14842   6.940  19.438   4.159  0.2718  0.0149  0.0517
71926W        W14843   5.773  20.838  31.582  0.1737  0.0217  0.0608
71927W        W14844   8.225  18.157   2.068  0.0106 -0.0431 -0.0018
71928W        W14845   3.479  21.590   2.790  0.1126  0.1169  0.0569
71929W        W14846   2.844  21.508   2.714  0.2212  0.1139 -0.0535
71930W        W14847   5.753  19.943   0.217  0.2330  0.0864 -0.1029
71931W        W14848   7.011  19.264   2.329  0.0091 -0.2879  0.0170
71932W        W14849   7.334  17.944   0.389  0.0924 -0.4175  0.2096
71933W        W14850   8.893  19.288   2.908 -0.1498  0.2305 -0.1164
71934W        W14851   6.993  18.829   1.669 -0.2180  0.1341  0.0675
71935W        W14852   6.602  20.000   1.803 -0.2880 -0.0234  0.1203
71936W        W14853   3.506  22.809   2.683 -0.1837  0.1139 -0.1255
71937W        W14854   5.801  21.239   1.742 -0.1398  0.0057 -0.0944
71938W        W14855   7.903  18.739   3.279 -0.0777 -0.4162  0.1927
71939W        W14856   5.102  21.695   1.904 -0.1854  0.0405 -0.0990
71940W        W14857   3.880  17.777   3.597  0.2390 -0.1821  0.0897
71941W        W14858   6.092  20.392   5.106 -0.2152 -0.0874  0.0154
71942W        W14859   7.243  18.813   2.086 -0.1512 -0.0532 -0.2124
71943W        W14860   5.892  19.792   1.206  0.2122  0.3100  0.0041
71944W        W14861   4.814  22.157  31.123 -0.0915  0.1385 -0.0332
71945W        W14862   5.234  20.307   4.102  0.1221 -0.2553  0.3281
71946W        W14863   3.085  22.447   2.580  0.1643  0.0636  0.1604
71947W        W14864   3.075  22.604   0.163  0.2653  0.1628  0.2245
71948W        W14865   7.243  20.166  31.485  0.1193  0.0140 -0.0031
71949W        W14866   7.384  20.562   1.100  0.3513  0.0528  0.0892
71950W        W14867   5.475  21.509   2.555  0.2163  0.3552 -0.0821
71951W        W14868   4.830  20.549   1.765 -0.2266 -0.1392 -0.0873
71952W        W14869   4.124  20.247   1.585 -0.0844 -0.1605 -0.2937
71953W        W14870   5.454  21.964   1.093 -0.2388 -0.1169  0.0676
71954W        W14871   6.568  20.846  31.519 -0.2231  0.1923 -0.4926
71955W        W14872   5.252  22.278   3.023  0.0989  0.0182 -0.3003
71956W        W14873   7.442  19.197   3.302 -0.3310  0.2783  0.2160
71957W        W14874   7.294  17.820   1.423  0.3109  0.2177  0.0336
71958W        W14875   6.917  18.337  30.790 -0.1986 -0.2266 -0.2772
71959W        W14876   7.567  17.889  31.851 -0.1279  0.4488 -0.3256
71960W        W14877   8.001  22.196   4.745  0.2391 -0.1316 -0.2511
71961W        W14878   7.174  19.060   2.868 -0.1791  0.0605  0.0234
71962W        W14879   4.592  18.017   0.717 -0.0518 -0.2625  0.0057
71963W        W14880   5.774  19.664   4.597  0.0124 -0.1976  0.3699
71964W        W14881   7.131  19.140   3.702  0.2774 -0.2476 -0.0872
71965W        W14882   3.223  22.879   2.302 -0.0890  0.0163  0.1520
71966W        W14883   6.353  18.870   1.523 -0.0343 -0.0704 -0.1396
71967W        W14884   4.344  20.109   2.761 -0.1633  0.2438  0.2293
71968W        W14885   4.786  22.114   2.167 -0.0017  0.2096 -0.0945
71969W        W14886   7.055  18.596   4.818 -0.1391  0.0120 -0.0978
71970W        W14887   5.817  19.732  31.735 -0.2748  0.0476 -0.1477
71971W        W14888   5.966  19.314   1.320 -0.1977 -0.0525  0.3012
71972W        W14889   3.685  22.122   1.775  0.3884  0.2212  0.2418
71973W        W14890   3.536  20.889   2.080 -0.0073 -0.0774  0.1350
71974W        W14891   6.532  20.312   3.020  0.1342  0.0924 -0.0425
71975W        W14892   3.595  19.091   0.732  0.2021  0.2416 -0.0461
71976W        W14893   8.877  18.034   0.566 -0.0001  0.1072  0.1078
71977W        W14894   5.135  19.786   1.613  0.1599  0.1663  0.0831
71978W        W14895   5.587  19.352   4.079 -0.1536  0.0199 -0.0541
71979W        W14896   4.094  19.139   2.270  0.1046 -0.1019 -0.0916
71980W        W14897   8.204  18.564  31.088 -0.1923 -0.0356  0.0574
71981W        W14898   6.404  19.366   5.001  0.2617  0.4632  0.0786
71982W        W14899   4.687  20.487   2.541 -0.0131  0.1084  0.1610
71983W        W14900   6.007  19.492  31.061  0.0793  0.4069 -0.3167
71984W        W14901   9.201  18.819   3.435  0.2812  0.0313 -0.1651
71985W        W14902   7.840  20.444  29.612 -0.0555 -0.0491  0.1281
71986W        W14903   5.429  23.108   3.839 -0.0600  0.0562 -0.1993
71987W        W14904   4.070  21.253   2.113 -0.1845  0.0501 -0.3253
71988W        W14905   5.529  18.282   0.427 -0.1091 -0.1569 -0.1320
71989W        W14906   3.478  23.641   1.677 -0.1908 -0.1238  0.0741
71990W        W14907   6.471  19.442   4.126 -0.1259  0.1556 -0.0829
71991W        W14908   5.684  20.855   2.365 -0.2432  0.1363 -0.1785
71992W        W14909   5.283  18.073  31.459  0.3370  0.1990  0.0459
71993W        W14910   8.253  21.127  31.956 -0.2436  0.0865  0.1579
71994W        W14911   7.258  20.418   1.563  0.1742  0.4681  0.3424
71995W        W14912   4.104  24.428   2.556 -0.0692  0.2457 -0.2436
71996W        W14913   6.508  20.400  31.257  0.1038  0.2069 -0.3765
71997W        W14914   5.618  20.137  31.619 -0.1133  0.0536 -0.0293
71998W        W14915   3.210  19.624   2.438 -0.0472 -0.1448  0.2005
71999W        W14916   7.706  20.588   3.785  0.0743  0.3380  0.2237
72000W        W14917   7.021  20.326   2.005  0.0578 -0.2055 -0.0057
72001W        W14918   6.119  17.792  31.958 -0.2681 -0.0454 -0.2343
72002W        W14919   5.608  21.698   2.108  0.2650 -0.1505 -0.0836
72003W        W14920   4.492  21.887   1.174 -0.1531  0.2960  0.0050
72004W        W14921   6.744  18.644   1.245 -0.3118  0.1403  0.0031
72005W        W14922   6.847  18.806   3.452 -0.0661  0.0092  0.0731
72006W        W14923   6.573  20.900   0.075 -0.0692  0.1537  0.1638
72007W        W14924   6.591  18.799   5.007 -0.1765 -0.1151 -0.0276
72008W        W14925   7.073  20.986   3.491  0.1009  0.1393 -0.0102
72009W        W14926   4.974  22.250   5.337  0.1351  0.2043 -0.1691
72010W        W14927   4.114  21.189  29.380 -0.0115 -0.2486  0.0916
72011W        W14928   6.449  18.709   0.615 -0.1513 -0.3864 -0.1283
72012W        W14929   6.660  18.012   0.473  0.1433  0.3940 -0.1929
72013W        W14930   5.365  22.190   1.916 -0.1756  0.1795 -0.0164
72014W        W14931   7.441  19.496   2.904  0.3754 -0.2068  0.2045
72015W        W14932   6.391  18.300   1.141  0.1570  0.1770 -0.2875
72016W        W14933   8.704  21.330   1.678  0.0722 -0.3296 -0.2036
72017W        W14934   4.986  19.747   2.127 -0.1874 -0.1261 -0.2523
72018W        W14935   9.368  17.668   1.434 -0.0052 -0.1295 -0.0864
72019W        W14936   5.844  17.237   1.430  0.2525  0.0129 -0.1566
72020W        W14937   4.930  18.863   2.510 -0.0330  0.2452  0.2422
72021W        W14938   4.959  20.772   2.243  0.1065 -0.0076  0.0042
72022W        W14939   3.770  19.700  31.823 -0.0978  0.0054 -0.1521
72023W        W14940   3.232  22.231   3.894  0.2592  0.0374  0.1146
72024W        W14941   6.177  20.000   3.221  0.5145  0.0370 -0.0674
72025W        W14942   4.747  19.611   4.264  0.1073 -0.1604  0.3586
72026W        W14943   3.213  20.265   1.548  0.2065  0.2834 -0.1172
72027W        W14944   3.468  18.672   1.593  0.1018  0.0340  0.3496
72028W        W14945   6.106  21.750   1.995 -0.0065  0.1933 -0.2903
72029W        W14946   5.100  18.860   1.974 -0.0843 -0.0327  0.1604
72030W        W14947   2.934  17.036   1.004 -0.0252 -0.0487 -0.3260
72031W        W14948   6.387  19.159   0.887 -0.4499 -0.1641  0.2296
72032W        W14949   7.001  20.721  31.766 -0.1301 -0.0144  0.4499
72033W        W14950   5.707  16.623   1.122  0.1410  0.0723 -0.0175
72034W        W14951   7.651  21.794   2.366  0.1698  0.2244  0.0130
72035W        W14952   5.116  21.067   1.505  0.0465 -0.2206 -0.1225
72036W        W14953   5.484  19.490   1.302  0.1167 -0.1624 -0.0612
72037W        W14954   5.396  18.181   2.952 -0.2304 -0.0316 -0.0132
72038W        W14955   5.093  17.034  31.892  0.1617  0.1264  0.1195
72039W        W14956   5.267  18.969   2.906  0.0363  0.0350 -0.0459
72040W        W14957   5.823  23.234   1.290  0.0342 -0.1734  0.5107
72041W        W14958   5.319  21.440  30.986  0.1607  0.1897 -0.2853
72042W        W14959   6.470  21.857   3.554  0.1526  0.1394  0.1258
72043W        W14960   6.462  21.768   3.077 -0.0591  0.1530 -0.1862
72044W        W14961   4.874  17.871   3.020 -0.1617  0.0412  0.2254
72045W        W14962   7.726  21.070   2.954  0.1232 -0.3986 -0.1432
72046W        W14963   5.733  19.984   2.978  0.0275  0.3173 -0.1644
72047W        W14964   8.851  19.327   0.824  0.0483 -0.1263  0.1751
72048W        W14965   7.104  19.908   1.669  0.2613  0.0656 -0.1209
72049W        W14966   6.970  18.692   0.409 -0.1946  0.4453 -0.3721
72050W        W14967   3.817  19.122   3.680 -0.2177  0.1620  0.0987
72051W        W14968   4.375  20.634   3.874  0.1083  0.0311 -0.1981
72052W        W14969   8.086  19.984   1.117  0.2369  0.1203 -0.2172
72053W        W14970   6.558  18.930   2.035  0.0659 -0.4310  0.1632
72054W        W14971   6.543  17.462   1.738  0.1890 -0.0678 -0.0490
72055W        W14972   6.685  19.134   0.468  0.0540 -0.3393  0.1475
72056W        W14973   3.897  20.448   2.553  0.1109  0.1577 -0.0087
72057W        W14974   5.819  20.477   0.039 -0.0155 -0.0667  0.1467
72058W        W14975   6.410  20.032   4.251  0.1081 -0.1222  0.0394
72059W        W14976   6.558  21.584   0.735 -0.3025  0.2759 -0.1455
72060W        W14977   7.344  21.438   2.702  0.0235  0.0471  0.1242
72061W        W14978   5.326  20.208   1.782  0.2750  0.0389 -0.1139
72062W        W14979   8.654  19.308   1.329  0.3491 -0.2317  0.1510
72063W        W14980   6.561  20.672   2.109 -0.0936 -0.0173 -0.0710
72064W        W14981   6.963  21.851   4.773 -0.2932 -0.1821  0.5570
72065W        W14982   5.847  24.849   0.796  0.2985 -0.1036 -0.1505
72066W        W14983   6.889  20.584   0.873 -0.2424 -0.1481  0.1825
72067W        W14984   4.823  19.138   2.986 -0.2176  0.5315 -0.1929
72068W        W14985   4.497  20.522   1.398 -0.1029  0.1594  0.2571
72069W        W14986   7.865  17.968   0.336  0.1047  0.1270 -0.3389
72070W        W14987   6.602  20.201   2.264  0.0936 -0.1692 -0.1896
72071W        W14988   5.004  18.304   2.645 -0.0089 -0.0692  0.0782
72072W        W14989   6.090  18.796  31.683  0.0731  0.1727  0.2103
72073W        W14990   2.816  23.391   2.901 -0.2498  0.2134  0.2950
72074W        W14991   5.797  20.306   1.701  0.0906  0.0992 -0.4156
72075W        W14992   5.408  21.183   5.282 -0.0378 -0.0867 -0.2488
72076W        W14993   5.143  19.859   2.999 -0.2820 -0.0647 -0.0070
72077W        W14994   7.304  19.513   4.554 -0.1549  0.1376  0.0385
72078W        W14995   8.666  21.038   2.967  0.1926  0.1102  0.0242
72079W        W14996   6.148  18.295   5.775 -0.0250  0.1275 -0.2678
72080W        W14997   5.883  21.123   5.044  0.0893  0.1162 -0.1837
72081W        W14998   4.035  19.169   4.769 -0.4098 -0.0874  0.2470
72082W        W14999   5.163  20.848   6.265  0.1806  0.1525  0.2313
72083W        W15000   8.029  22.540   6.024  0.1061  0.0376  0.0567
72084W        W15001   8.799  19.065   3.375 -0.0607 -0.1504 -0.4730
72085W        W15002   5.225  18.752   5.228 -0.1388 -0.1595  0.1092
72086W        W15003   5.425  22.476   7.062 -0.2130 -0.0864  0.0856
72087W        W15004   5.653  18.345   3.859  0.0077  0.0010 -0.0199
72088W        W15005   4.212  18.907   3.876  0.0534  0.1298 -0.0884
72089W        W15006   6.082  19.721   6.359 -0.1174 -0.1459 -0.0083
72090W        W15007   4.873  19.363   2.502  0.1266 -0.0552 -0.0587
72091W        W15008   6.122  18.370   4.705  0.1917 -0.0423  0.1711
72092W        W15009   4.231  17.933   3.194  0.1454  0.1929  0.0649
72093W        W15010   5.746  22.369   6.138  0.0304  0.0130 -0.0558
72094W        W15011   6.450  18.564   7.123  0.2912 -0.0435 -0.2755
72095W        W15012   4.823  19.242   7.130 -0.1174  0.2088  0.1440
72096W        W15013   5.900  22.036   3.789  0.1719 -0.4174  0.0583
72097W        W15014   2.001  19.695   3.522 -0.1814 -0.1231 -0.0182
72098W        W15015   4.945  21.283   5.492  0.0286  0.0860  0.1550
72099W        W15016   6.939  18.907   5.351 -0.1130 -0.2097  0.1488
72100W        W15017   6.015  19.293   3.835 -0.2801 -0.2144  0.2410
72101W        W15018   5.151  19.881   4.408  0.0830  0.1965  0.1103
72102W        W15019   6.013  24.531   6.448 -0.0114 -0.3890  0.0516
72103W        W15020   6.396  23.232   4.421  0.1796 -0.0529  0.0524
72104W        W15021   7.369  19.223   5.410  0.1919 -0.1525  0.1728
72105W        W15022   4.036  23.056   4.639  0.1592 -0.2276  0.2054
72106W        W15023   5.147  23.160   5.981  0.1471  0.0945 -0.0918
72107W        W15024   7.192  22.821   4.905  0.1629  0.3066 -0.1136
72108W        W15025   6.262  24.035   3.806 -0.3366 -0.3667 -0.2397
72109W        W15026   6.506  22.415   6.620 -0.0614 -0.2114 -0.2288
72110W        W15027   5.564  21.359   7.034  0.1236 -0.0203 -0.2792
72111W        W15028   5.655  20.399   3.785 -0.2385  0.2155 -0.1130
72112W        W15029   8.668  23.672   9.394  0.1143 -0.0405 -0.0641
72113W        W15030   7.819  22.109   8.474  0.1758 -0.0825  0.0864
72114W        W15031   7.749  17.811   5.055 -0.3601  0.0048  0.0575
72115W        W15032   6.129  18.862   4.099 -0.0108 -0.0924  0.1064
72116W        W15033   5.049  21.404   4.078  0.3138 -0.1167 -0.1620
72117W        W15034   5.213  21.270   2.947  0.2216  0.0474 -0.0366
72118W        W15035   4.858  21.280   7.608 -0.0625  0.0797  0.4507
72119W        W15036   2.983  21.847   4.250  0.1067  0.0335 -0.1035
72120W        W15037   7.713  18.241   7.600  0.1517  0.1441  0.0065
72121W        W15038   6.044  19.339   4.382  0.0568  0.2678  0.0682
72122W        W15039   7.449  18.209   5.105 -0.4004  0.0643 -0.4747
72123W        W15040   5.744  19.496   3.064  0.2193 -0.1669  0.0569
72124W        W15041   7.103  17.797   5.101  0.1730  0.1121  0.1720
72125W        W15042   6.946  18.580   5.963 -0.0944 -0.2873  0.0035
72126W        W15043   3.756  22.580   5.548  0.4152  0.3900 -0.3069
72127W        W15044   5.698  18.734   4.916  0.1181  0.0109  0.0506
72128W        W15045   6.822  21.814   5.992  0.1683  0.1021  0.0219
72129W        W15046   5.366  18.569   3.461 -0.1316  0.1527 -0.1133
72130W        W15047   5.245  18.481   4.232  0.0985  0.0708 -0.1273
72131W        W15048   4.275  21.947   6.244  0.1191  0.1535  0.0489
72132W        W15049   4.551  20.629   3.385 -0.1354 -0.1397 -0.2252
72133W        W15050   8.812  20.195   2.937  0.1728 -0.1478 -0.1645
72134W        W15051   7.574  22.060   5.508  0.0088  0.0426  0.0370
72135W        W15052   5.835  22.871   2.586 -0.1537 -0.1029  0.0242
72136W        W15053   5.459  19.888   3.968  0.3109 -0.2984  0.2387
72137W        W15054   3.561  21.406   6.431  0.0162  0.0421 -0.0363
72138W        W15055   4.004  19.405   6.344 -0.1584 -0.0402  0.3563
72139W        W15056   4.366  17.083   3.544  0.1540  0.0243 -0.2364
72140W        W15057   7.914  18.477   6.289 -0.2804  0.0662  0.1168
72141W        W15058   4.620  20.849   8.518 -0.0624  0.0681  0.0542
72142W        W15059   7.515  19.061   4.675  0.0804  0.2333  0.0546
72143W        W15060   5.396  20.069   5.378  0.0040 -0.2833  0.2514
72144W        W15061   8.040  20.783   7.349 -0.1938 -0.0120  0.2334
72145W        W15062   7.186  20.609   5.009 -0.0687  0.2688  0.0865
72146W        W15063   7.081  15.519   4.313  0.3752 -0.0885  0.1918
72147W        W15064   6.564  17.616   3.373  0.2600  0.2913 -0.1674
72148W        W15065   5.389  20.024   3.505 -0.1954 -0.1885  0.0291
72149W        W15066   5.827  21.043   3.680 -0.2662 -0.0490  0.0519
72150W        W15067   7.368  20.698   5.513 -0.1573 -0.0218  0.1290
72151W        W15068   5.704  18.890   1.517 -0.0931 -0.0212 -0.1579
72152W        W15069   3.599  22.571   6.064 -0.0014  0.0376 -0.0706
72153W        W15070   4.655  19.256   5.714  0.0304  0.3166 -0.0873
72154W        W15071   8.787  21.048   7.816 -0.1310 -0.1277  0.1708
72155W        W15072   5.373  19.660   4.898 -0.1662  0.3075 -0.0132
72156W        W15073   3.854  22.110   3.944 -0.2190 -0.2152 -0.0260
72157W        W15074   4.315  21.163   4.068 -0.0573 -0.0058  0.0461
72158W        W15075   5.442  19.815   8.064 -0.0695 -0.0202  0.0172
72159W        W15076   3.925  21.599   5.453 -0.0440 -0.1346 -0.0247
72160W        W15077   9.356  19.631   6.674 -0.0586 -0.3232 -0.1415
72161W        W15078   5.075  18.072   6.039 -0.4353  0.1414 -0.1975
72162W        W15079   8.189  19.367   4.176 -0.0839 -0.0267 -0.0843
72163W        W15080   3.759  20.753   2.981 -0.0159 -0.1346 -0.1326
72164W        W15081   8.221  21.905   6.285 -0.1406  0.2003 -0.1833
72165W        W15082   7.885  20.426   4.646 -0.0124  0.0082 -0.1593
72166W        W15083   5.498  20.968   4.813 -0.1219  0.0728  0.1500
72167W        W15084   5.129  19.490   3.961  0.1787 -0.1623 -0.1585
72168W        W15085   3.963  19.843   4.059  0.0737  0.3228  0.1040
72169W        W15086   7.285  20.732   6.513 -0.0228  0.2829  0.1414
72170W        W15087   4.405  18.495   3.960  0.0132  0.0830 -0.3889
72171W        W15088   7.061  18.348   6.459 -0.2070  0.1082  0.2333
72172W        W15089   4.649  17.282   3.913 -0.0167  0.1557 -0.0104
72173W        W15090   7.371  19.230   6.188  0.3789  0.1466 -0.2314
72174W        W15091   4.660  20.588   4.290  0.2804  0.2027  0.2006
72175W        W15092   6.376  21.465   1.704 -0.3692  0.1315 -0.2471
72176W        W15093   9.014  19.762   5.782  0.0268  0.1386  0.1713
72177W        W15094   6.870  20.077   2.728  0.1657 -0.0863 -0.0564
72178W        W15095   6.571  21.552   5.577 -0.3083  0.0159 -0.0978
72179W        W15096   6.177  21.833   5.471  0.2795 -0.0058  0.1374
72180W        W15097   6.387  18.766   5.897  0.0862 -0.1152 -0.1386
72181W        W15098   7.310  20.405   4.537  0.3569 -0.1493  0.0960
72182W        W15099   5.174  23.102   5.374  0.0360  0.0200 -0.1639
72183W        W15100   6.115  22.257   5.664  0.1074  0.1134 -0.1349
72184W        W15101   4.087  18.683   3.419  0.1933  0.0788 -0.3994
72185W        W15102   8.410  22.892   6.002  0.0921 -0.2267  0.1341
72186W        W15103   6.092  20.951   5.513 -0.1477 -0.0506 -0.0587
72187W        W15104   3.083  19.970   6.600  0.3603  0.0824 -0.0157
72188W        W15105   5.603  19.375   6.504  0.0748  0.1317  0.0080
72189W        W15106   7.781  17.936   5.918  0.2630  0.0333 -0.0580
72190W        W15107   7.226  19.874   5.565  0.0101  0.1046 -0.4189
72191W        W15108   2.706  19.334   4.530 -0.2469 -0.1629  0.0019
72192W        W15109   6.518  22.542   5.597 -0.1264  0.2350 -0.1023
72193W        W15110   2.890  21.103   5.629 -0.0615 -0.2222  0.2149
72194W        W15111   4.270  20.211   4.308  0.2651  0.4249 -0.1176
72195W        W15112   8.285  18.820   6.167 -0.0066 -0.1075 -0.1681
72196W        W15113   5.365  16.668   4.011 -0.2603  0.0720 -0.0169
72197W        W15114   4.418  19.927   4.991  0.0289 -0.2244 -0.0813
72198W        W15115   6.342  20.166   5.483 -0.0359 -0.0246 -0.1945
72199W        W15116   3.881  20.856   3.849 -0.1445 -0.0427 -0.1740
72200W        W15117   3.557  22.121   5.885  0.3323 -0.1396 -0.0115
72201W        W15118   7.383  18.760   5.766  0.4207  0.1942  0.0711
72202W        W15119   9.545  20.248   6.449  0.2057  0.0959 -0.0933
72203W        W15120   6.119  20.642   8.513 -0.0175 -0.3957  0.2679
72204W        W15121   6.646  21.191   5.230  0.0875  0.1668  0.0274
72205W        W15122   7.673  18.999   2.931  0.3101  0.1715 -0.0578
72206W        W15123   6.891  19.764   3.785 -0.2690 -0.1614 -0.4081
72207W        W15124   4.610  21.622   6.400 -0.1705 -0.1810  0.0311
72208W        W15125   5.676  20.115   4.375 -0.2297  0.1207  0.0998
72209W        W15126   3.442  21.783   5.540 -0.0371 -0.3095  0.0865
72210W        W15127   6.119  18.921   3.023 -0.0232 -0.2261  0.1481
72211W        W15128   8.043  19.780   2.497 -0.1148  0.2083 -0.0871
72212W        W15129   3.112  20.250   5.775 -0.0111 -0.2630 -0.1834
72213W        W15130   7.676  18.948   7.379  0.4828  0.0674 -0.0172
72214W        W15131   5.934  21.291   4.556  0.0183  0.3655  0.2338
72215W        W15132   4.382  19.711   5.564 -0.0652 -0.0746  0.0081
72216W        W15133   5.872  18.950   7.840  0.1170  0.0818 -0.0035
72217W        W15134   3.060  22.682   3.738 -0.0286 -0.2290  0.1017
72218W        W15135   4.420  20.914   5.202 -0.0803  0.0555  0.0977
72219W        W15136   6.925  18.021   5.593  0.2115 -0.0182  0.4463
72220W        W15137   7.151  17.940   7.886  0.0055  0.1325 -0.1751
72221W        W15138   8.228  19.688   6.350  0.2482  0.0034 -0.1654
72222W        W15139   8.105  20.721   5.863  0.1831 -0.2143 -0.2632
72223W        W15140   7.445  18.571   6.830  0.0547 -0.2115 -0.0994
72224W        W15141   5.311  20.300   3.099 -0.0592  0.0128 -0.0633
72225W        W15142   7.998  18.716   6.752  0.1697 -0.1084  0.1584
72226W        W15143   5.698  19.315   7.018  0.0400 -0.1542 -0.2870
72227W        W15144   3.040  21.594   5.265 -0.0749  0.2601 -0.0146
72228W        W15145   5.081  21.633   7.279 -0.3170 -0.0906 -0.3310
72229W        W15146   6.811  20.855   4.818  0.1608 -0.2781  0.2457
72230W        W15147   6.896  19.369   7.027 -0.0038 -0.3152  0.1613
72231W        W15148   5.964  16.184   4.311  0.2554  0.0475  0.0633
72232W        W15149   6.938  21.299   6.102  0.3507 -0.4664  0.3871
72233W        W15150   7.078  20.601   2.406 -0.0874  0.1323  0.0927
72234W        W15151   5.720  18.609   5.416 -0.0613  0.3144 -0.1812
72235W        W15152   6.713  19.750   5.184  0.2300  0.4718  0.2209
72236W        W15153   4.923  22.210   4.004  0.1115 -0.0390  0.0136
72237W        W15154   7.091  20.425   7.659 -0.0617 -0.1452 -0.0938
72238W        W15155   4.279  21.455   4.462  0.0880 -0.0345 -0.1453
72239W        W15156   7.337  18.258   5.790  0.1723 -0.2460 -0.0041
72240W        W15157   3.198  22.725   4.247 -0.2241  0.1745  0.0856
72241W        W15158   4.923  20.642   3.045  0.0819  0.2195  0.2675
72242W        W15159   2.539  20.465   3.273  0.1612 -0.0150 -0.2571
72243W        W15160   6.977  16.034   6.307  0.2728 -0.4633 -0.4130
72244W        W15161   5.892  21.179   2.708  0.0704 -0.0947  0.2428
72245W        W15162   4.759  18.727   4.229 -0.3647  0.0254  0.0633
72246W        W15163   5.937  19.125   5.646 -0.0383  0.0734  0.2709
72247W        W15164   4.118  23.650   5.541 -0.1467 -0.1097 -0.0213
72248W        W15165   6.294  19.879   5.032  0.0452 -0.1272  0.1492
72249W        W15166   6.437  18.000   5.371  0.2941 -0.4251 -0.0072
72250W        W15167   7.553  22.108   7.669 -0.0490 -0.2366 -0.1302
72251W        W15168   5.794  21.209   6.196  0.1411  0.3947  0.1869
72252W        W15169   3.882  19.367   2.704  0.0982 -0.0687 -0.2380
72253W        W15170   7.675  18.466   5.468  0.1018  0.1757  0.2401
72254W        W15171   4.247  19.268   5.412 -0.3418 -0.1558  0.1308
72255W        W15172   5.027  24.012   7.406 -0.1145  0.0812 -0.1416
72256W        W15173   6.903  22.063   6.581  0.1148  0.0509 -0.0784
72257W        W15174   4.614  17.989   3.448  0.4379 -0.0820 -0.0029
72258W        W15175   6.109  17.879   4.559  0.3854 -0.3195  0.0401
72259W        W15176   7.035  19.752   7.298 -0.1849  0.0615 -0.1733
72260W        W15177   6.577  20.452   5.051 -0.0405  0.0217  0.2734
72261W        W15178   5.297  19.210   2.323  0.0866 -0.0329 -0.0897
72262W        W15179   6.680  19.019   3.996 -0.1122 -0.0105 -0.4361
72263W        W15180   4.410  18.812   3.035  0.0076 -0.0815 -0.0348
72264W        W15181   6.073  21.365   5.818  0.0476  0.0269 -0.3144
72265W        W15182   5.467  18.942   5.860  0.0818 -0.3909  0.1017
72266W        W15183   5.139  21.534   7.888 -0.1260  0.0268  0.0241
72267W        W15184   6.887  19.815   6.783  0.3858 -0.1038  0.4478
72268W        W15185   7.542  22.467   5.941 -0.0687 -0.0019  0.0121
72269W        W15186   5.777  21.536   5.452  0.0504  0.2289  0.0609
72270W        W15187   5.613  19.495   3.608  0.2627 -0.1328  0.0090
72271W        W15188   5.109  20.932   4.393  0.1360 -0.1293  0.2649
72272W        W15189   6.528  19.135   4.467 -0.2251  0.1080 -0.1584
72273W        W15190   8.708  19.423   5.621 -0.2985 -0.2969 -0.0602
72274W        W15191   5.036  19.603   5.245 -0.1055  0.1234  0.0882
72275W        W15192   4.640  21.696   4.059  0.0386  0.3283  0.2653
72276W        W15193   2.480  20.768   7.506 -0.0945 -0.3760 -0.2357
72277W        W15194   7.766  17.066   4.622  0.2747  0.2252  0.2049
72278W        W15195   6.593  21.796   5.097  0.0093 -0.1899 -0.0895
72279W        W15196   6.012  20.496   5.722  0.2297 -0.2376  0.0134
72280W        W15197   6.529  17.672   7.043 -0.0494  0.2002 -0.1622
72281W        W15198   8.008  18.926   5.210 -0.0319 -0.4194  0.0249
72282W        W15199   7.720  17.921   7.253 -0.2337  0.1601 -0.3937
72283W        W15200   4.305  19.642   7.561 -0.0810 -0.0456  0.1862
72284W        W15201   7.351  21.961   5.044 -0.0910 -0.0550  0.1437
72285W        W15202   3.587  18.467   8.402  0.5384  0.0349 -0.4110
72286W        W15203   6.376  21.523   8.581  0.3331 -0.2032  0.1516
72287W        W15204   6.092  20.139   4.597  0.0732  0.4028 -0.1124
72288W        W15205   5.082  17.174   3.785 -0.2922 -0.2459  0.0561
72289W        W15206   8.256  17.205   4.401  0.5767  0.0833 -0.0648
72290W        W15207   3.960  21.102   5.279 -0.0634  0.2050 -0.0235
72291W        W15208   7.259  22.350   4.742  0.0275 -0.1235  0.0985
72292W        W15209   6.201  20.119   2.680  0.1572 -0.1192 -0.3665
72293W        W15210   8.450  20.524   6.395  0.3276  0.1241  0.0704
72294W        W15211   4.581  18.521   3.429  0.0069  0.1562 -0.1858
72295W        W15212   7.521  18.724   5.092  0.1401  0.0984 -0.0434
72296W        W15213   8.229  18.053   4.288  0.1952  0.0399  0.0596
72297W        W15214   5.638  19.168   4.580  0.2294  0.2970 -0.0477
72298W        W15215   6.695  18.167   7.940  0.1380 -0.0217  0.1311
72299W        W15216   4.648  20.601   4.811  0.3549  0.1626 -0.1709
72300W        W15217  10.202  18.480   5.225  0.0069  0.2555  0.0118
72301W        W15218   6.825  19.321   6.396 -0.3107  0.0018 -0.1209
72302W        W15219   6.131  18.347   4.235  0.1534 -0.3341 -0.1108
72303W        W15220   4.901  20.066   5.467 -0.3545 -0.1521  0.0396
72304W        W15221   4.017  19.847   7.176  0.2337 -0.5181 -0.1539
72305W        W15222   7.549  21.175   6.485 -0.1831 -0.2178 -0.1341
72306W        W15223   6.521  20.426   5.930 -0.0331  0.1970 -0.2244
72307W        W15224   8.504  18.439   7.841 -0.1703 -0.3311 -0.2815
72308W        W15225   7.596  20.646   2.509 -0.1476 -0.0105  0.0094
72309W        W15226   7.931  18.463   5.035  0.0898 -0.2173 -0.1539
72310W        W15227   5.303  18.403   4.724  0.1732  0.2008  0.2473
72311W        W15228   6.985  20.207   6.210  0.1042  0.0616  0.1310
72312W        W15229   5.332  17.700   2.778 -0.1639 -0.2987  0.0057
72313W        W15230   8.147  20.688   5.362 -0.1355  0.2147 -0.0133
72314W        W15231   6.949  23.613   5.833 -0.1176  0.2225 -0.1393
72315W        W15232   5.213  21.876   6.319  0.0027  0.2078  0.2366
72316W        W15233   7.576  18.484   4.675 -0.0462  0.0513  0.0063
72317W        W15234   3.331  18.905   5.366 -0.0857 -0.0577 -0.1695
72318W        W15235   2.908  22.292   4.444  0.0076  0.0512  0.0571
72319W        W15236   4.691  20.035   1.785  0.0610  0.1005  0.3461
72320W        W15237   5.899  19.491   5.032  0.1276 -0.2935  0.2079
72321W        W15238   3.909  22.671   4.973  0.1011 -0.1643  0.1449
72322W        W15239   7.419  20.063   7.390  0.0269  0.0595 -0.0517
72323W        W15240   7.123  17.171   4.241  0.0147  0.1992 -0.0799
72324W        W15241   7.594  18.973   6.609 -0.1790  0.0195  0.0327
72325W        W15242   2.739  22.871   4.458  0.1377 -0.1336  0.3223
72326W        W15243   5.840  19.102   6.125  0.3230 -0.1951 -0.1655
72327W        W15244   4.789  21.729   5.508  0.0080 -0.0918  0.0348
72328W        W15245   4.885  20.831   7.346 -0.0661  0.2965 -0.1705
72329W        W15246   4.659  21.346   4.998 -0.1977 -0.0314  0.2030
72330W        W15247   7.344  18.526   7.312 -0.2127 -0.2094 -0.1582
72331W        W15248   6.510  18.531   3.913 -0.2506  0.1083  0.1814
72332W        W15249   5.183  21.375   6.294  0.2065  0.0217 -0.3514
72333W        W15250   8.483  20.668   7.630  0.0932 -0.3450 -0.0990
72334W        W15251   4.339  22.023   4.584  0.0767 -0.1880 -0.0365
72335W        W15252   2.352  20.261   4.513 -0.2674 -0.0071 -0.0383
72336W        W15253   8.368  21.716   8.068 -0.1449  0.1493  0.0588
72337W        W15254   7.477  20.839   4.664  0.1131  0.0215 -0.3342
72338W        W15255   4.977  22.032   4.835 -0.1927 -0.4185  0.0176
72339W        W15256   4.736  20.161   4.604 -0.1192 -0.1524  0.1971
72340W        W15257   5.428  20.227   7.030 -0.0676 -0.0352  0.2637
72341W        W15258   7.745  20.664   5.038  0.0393 -0.1504  0.0109
72342W        W15259   7.156  18.468   5.400  0.2559  0.1171  0.0056
72343W        W15260   7.005  20.338   3.246 -0.2335 -0.0121  0.0064
72344W        W15261   4.939  19.974   6.238 -0.3363  0.0750 -0.0832
72345W        W15262   3.508  21.076   5.646 -0.1203  0.1469  0.0966
72346W        W15263   5.609  21.142   4.192  0.0176  0.0433 -0.0508
72347W        W15264   6.919  20.833   5.465 -0.4249  0.2803  0.1599
72348W        W15265   6.256  19.405   2.825 -0.0128 -0.1185 -0.0823
72349W        W15266   6.972  21.301   7.161 -0.0365  0.1892  0.2117
72350W        W15267   5.558  20.341   2.181  0.2022 -0.0268 -0.0819
72351W        W15268   2.978  21.674   3.224 -0.0770  0.3713  0.0239
72352W        W15269   3.402  23.020   3.114  0.2899  0.0094 -0.1873
72353W        W15270   6.052  20.465   2.267  0.2379 -0.1121 -0.0293
72354W        W15271   3.127  19.557   4.469  0.1377 -0.2525  0.0361
72355W        W15272   8.440  23.600   5.299 -0.1996  0.1014 -0.1167
72356W        W15273   7.149  18.304   1.209 -0.0982  0.0413 -0.2662
72357W        W15274   6.014  20.769   4.648 -0.0497 -0.2886  0.0552
72358W        W15275   8.584  20.316   5.156  0.0127  0.0098  0.1195
72359W        W15276   7.134  23.469   6.261 -0.1599  0.1153  0.1268
72360W        W15277   6.292  19.583   5.468  0.1801 -0.0393 -0.1163
72361W        W15278   5.128  18.120   3.364 -0.1833  0.1332  0.2769
72362W        W15279   6.307  19.216   6.329 -0.3449  0.1847 -0.1218
72363W        W15280   7.798  20.192   7.017 -0.0218  0.1519  0.2419
72364W        W15281   4.677  23.036   6.229 -0.1253  0.0965  0.3581
72365W        W15282   7.646  22.355   5.100  0.0102 -0.0765  0.0836
72366W        W15283   3.989  20.567   5.229 -0.4221  0.0829  0.0036
72367W        W15284   5.173  18.934   3.943  0.0587 -0.0756  0.1454
72368W        W15285   7.226  16.698   7.079  0.1289 -0.3006 -0.1133
72369W        W15286   5.329  19.563   2.646 -0.1613 -0.1488  0.0512
72370W        W15287   6.855  18.145   3.982 -0.2634  0.3470  0.1751
72371W        W15288   6.611  21.022   4.376  0.2829  0.2997  0.1203
72372W        W15289   4.653  20.665   5.667  0.1433 -0.2820 -0.0880
72373W        W15290   5.986  21.276   6.674 -0.0831  0.1823  0.1880
72374W        W15291   4.773  21.633   4.580  0.1389  0.0917  0.2037
72375W        W15292   7.845  20.833   4.200  0.1432 -0.3213  0.2039
72376W        W15293   5.984  17.754   6.077  0.0742  0.0812  0.1833
72377W        W15294   7.849  20.333   6.099  0.0681  0.0956 -0.1598
72378W        W15295   6.137  18.930   5.189 -0.0911 -0.0403  0.3622
72379W        W15296   5.655  18.865   3.788  0.1078 -0.0145 -0.0023
72380W        W15297   6.206  20.947   6.987  0.3644 -0.1132  0.2235
72381W        W15298   2.593  20.817   6.989  0.4240  0.1569  0.0521
72382W        W15299   5.668  19.147   2.650  0.0356 -0.0315  0.0521
72383W        W15300   4.769  21.020   5.987  0.2198  0.2930 -0.0767
72384W        W15301   8.656  19.612   4.987  0.3355  0.2055 -0.0364
72385W        W15302   6.426  21.018   8.625 -0.1868  0.0211 -0.0287
72386W        W15303   4.344  18.787   5.009 -0.1586  0.0617 -0.3254
72387W        W15304   7.916  18.053   4.661 -0.1509 -0.2974 -0.4007
72388W        W15305   5.793  20.385   3.254  0.0248  0.1571 -0.0678
72389W        W15306   6.431  21.056   6.504  0.0197 -0.0372  0.0937
72390W        W15307   7.293  22.023   6.226 -0.0952 -0.2297 -0.1093
72391W        W15308   6.511  19.455   5.965 -0.1295  0.1273  0.2372
72392W        W15309   6.295  20.448   1.801  0.1811  0.1256  0.2261
72393W        W15310   6.533  18.457   6.642  0.1054  0.1313 -0.1142
72394W        W15311   7.501  21.129   3.976 -0.0044 -0.2266  0.3283
72395W        W15312   6.430  21.431   6.880  0.4681 -0.0439  0.2444
72396W        W15313   5.203  21.794   5.829 -0.4342 -0.2668 -0.0464
72397W        W15314   3.965  19.275   7.454 -0.3361  0.4769 -0.1414
72398W        W15315   5.300  20.309   6.257 -0.1704 -0.0032 -0.0495
72399W        W15316   6.776  22.269   4.817  0.2327  0.2228 -0.0590
72400W        W15317   4.511  17.572   5.155 -0.2760  0.1628 -0.5540
72401W        W15318   6.197  19.974   5.956  0.1555 -0.2415 -0.2099
72402W        W15319   4.285  22.927   5.157 -0.2635 -0.0313  0.0397
72403W        W15320   6.471  20.651   5.499  0.0323 -0.0804  0.0535
72404W        W15321   7.250  19.729   6.382 -0.1489 -0.0108  0.0825
72405W        W15322   5.006  21.036   3.319 -0.1176 -0.1532 -0.1303
72406W        W15323   8.792  18.265   7.319  0.0110  0.1786  0.1332
72407W        W15324   7.023  21.749   6.944 -0.0661  0.1173  0.1820
72408W        W15325   4.772  20.478   6.349 -0.0032  0.1107 -0.1160
72409W        W15326   4.660  19.182   4.011 -0.2479 -0.0628  0.2568
72410W        W15327   5.491  20.396   5.744  0.0452  0.0696  0.0769
72411W        W15328   3.981  21.065   3.334 -0.2466  0.0667 -0.2334
72412W        W15329   7.943  21.741   4.323 -0.1130  0.0252  0.5051
72413W        W15330   7.754  21.640   6.261 -0.5180  0.1083  0.3713
72414W        W15331   4.962  20.931   5.114 -0.0232 -0.0385  0.0403
72415W        W15332   8.652  19.420   6.377  0.1189 -0.1204  0.3020
72416W        W15333   4.817  18.983   5.200  0.0994 -0.1847  0.1737
72417W        W15334   7.957  17.564   4.476 -0.0643 -0.4049  0.2165
72418W        W15335   5.802  16.848   3.246 -0.1585  0.0457  0.0946
72419W        W15336   5.576  21.519   4.970 -0.2941 -0.1086 -0.1800
72420W        W15337   3.502  18.184   1.825  0.1962 -0.0691 -0.0843
72421W        W15338   7.902  18.996   4.232 -0.1609 -0.1665 -0.2727
72422W        W15339   3.982  20.080   5.259 -0.0801 -0.1240 -0.4416
72423W        W15340   4.866  19.233   8.716 -0.1121 -0.1753 -0.2533
72424W        W15341   3.828  19.695   7.782  0.0977 -0.0250 -0.1215
72425W        W15342   4.110  20.365   4.768  0.1931  0.1117 -0.1578
72426W        W15343   5.035  18.917   3.420  0.2019  0.3420 -0.0696
72427W        W15344   7.808  18.986   6.153  0.0508  0.0122  0.0140
72428W        W15345   4.369  18.777   5.561 -0.0577  0.0361  0.3353
72429W        W15346   4.693  17.898   6.315 -0.1325  0.1594 -0.0551
72430W        W15347   5.608  20.543   5.288  0.1455  0.2323 -0.0130
72431W        W15348   7.896  21.092   6.980 -0.2681 -0.1278  0.2064
72432W        W15349   4.724  20.202   3.154 -0.0949 -0.0835  0.0656
72433W        W15350   6.338  21.156   4.764 -0.0260  0.2444 -0.1475
72434W        W15351   2.602  22.553   2.371  0.2610  0.0172 -0.2519
72435W        W15352   6.209  20.300   6.355  0.3049  0.1227 -0.1993
72436W        W15353   5.848  20.960   7.382 -0.1822 -0.1303  0.1104
72437W        W15354   3.863  18.913   5.264  0.2910  0.0847 -0.2269
72438W        W15355   7.516  18.919   7.870  0.2927  0.3255  0.0261
72439W        W15356   7.116  22.480   6.256  0.1806 -0.1953 -0.2141
72440W        W15357   5.738  21.880   1.651  0.1011  0.0673 -0.2206
72441W        W15358   4.346  21.126   6.229  0.2999 -0.1440 -0.3627
72442W        W15359   8.145  21.330   6.531  0.4233  0.0805 -0.0021
72443W        W15360   4.489  20.007   5.946  0.2848  0.0286  0.3331
72444W        W15361   6.910  19.385   5.481  0.1807  0.0696 -0.0519
72445W        W15362   9.201  22.150   9.364  0.0729 -0.0325  0.0850
72446W        W15363   8.486  21.428   3.455  0.0971 -0.1308 -0.0890
72447W        W15364   8.989  19.039   6.494  0.0072 -0.1157 -0.1598
72448W        W15365   5.966  18.578   3.406  0.0936  0.0042  0.0116
72449W        W15366   2.971  18.629   6.807 -0.1786  0.1523  0.4736
72450W        W15367   4.141  20.212   5.710  0.0088 -0.1192 -0.0410
72451W        W15368   6.864  20.793   6.902 -0.2961 -0.1896  0.1017
72452W        W15369   5.776  18.082   5.454 -0.3201 -0.3489 -0.3471
72453W        W15370   8.387  19.750   3.945 -0.2453 -0.1975 -0.1688
72454W        W15371   5.142  20.549   4.774 -0.0344  0.1245 -0.0670
72455W        W15372   3.723  20.251   4.413  0.0521 -0.1048 -0.1184
72456W        W15373   8.322  18.055   4.968  0.1336  0.1419  0.1471
72457W        W15374   6.843  20.279   7.170  0.0717  0.3117 -0.2684
72458W        W15375   7.021  19.601   5.915 -0.0948  0.1182  0.1017
72459W        W15376   8.523  18.777   6.622  0.1803  0.2183 -0.0530
72460W        W15377   4.762  20.962   2.662  0.0257 -0.0049  0.1834
72461W        W15378   5.768  20.007   4.998 -0.1232 -0.1454  0.1727
72462W        W15379   6.403  20.749   9.090 -0.0656 -0.2718  0.0292
72463W        W15380   8.134  22.711   7.029  0.1212 -0.1523  0.1186
72464W        W15381   7.577  22.742   7.162  0.2786  0.1271  0.2183
72465W        W15382   8.316  18.992   5.614  0.1276 -0.0404 -0.3652
72466W        W15383   3.161  18.189   6.128  0.1461  0.2307  0.3719
72467W        W15384   5.677  18.612   2.906 -0.1135 -0.0735  0.0765
72468W        W15385   5.187  19.394   4.483 -0.0171  0.0803  0.1152
72469W        W15386   7.325  19.631   5.138 -0.0619  0.3007 -0.0631
72470W        W15387   4.140  19.725   6.704 -0.0296 -0.1394 -0.3514
72471W        W15388   5.691  18.703   4.369 -0.1082 -0.1611 -0.0726
72472W        W15389   5.367  21.321   5.816  0.3570 -0.1321  0.0829
72473W        W15390   7.270  21.558   6.412 -0.0695 -0.1523  0.1991
72474W        W15391   5.137  22.027   9.169  0.4698  0.0963  0.1882
72475W        W15392   5.881  19.384   7.505  0.0288 -0.1378 -0.1321
72476W        W15393   6.864  19.097   5.908 -0.4374  0.1605 -0.2753
72477W        W15394   7.420  19.548   8.599 -0.1398  0.1022  0.1530
72478W        W15395   4.994  19.979   8.020 -0.2304  0.0513 -0.1703
72479W        W15396   7.249  20.739   9.583 -0.1654 -0.0299  0.0733
72480W        W15397   3.689  22.323   8.287 -0.3607  0.0128  0.0417
72481W        W15398   7.463  22.181   9.564 -0.4230  0.0388  0.3138
72482W        W15399   5.321  20.653   7.366  0.3223 -0.1694  0.0596
72483W        W15400   4.843  20.486   9.499  0.0051 -0.0852  0.1585
72484W        W15401   6.321  21.242   8.195 -0.2977  0.1259 -0.3846
72485W        W15402   2.679  19.093   6.945 -0.2306 -0.0649  0.2099
72486W        W15403   3.495  20.311   9.067 -0.0320 -0.3046  0.2094
72487W        W15404   4.908  20.428   8.292 -0.0016  0.4381  0.1691
72488W        W15405   6.889  20.006   8.703 -0.6553  0.2282 -0.0034
72489W        W15406   3.066  19.261   9.252 -0.0493  0.3506  0.0312
72490W        W15407   7.280  20.742   8.524 -0.1235  0.2881  0.1645
72491W        W15408   7.287  16.989   9.068 -0.4790 -0.1524  0.2568
72492W        W15409   5.129  23.952   9.916  0.1624  0.0491 -0.0382
72493W        W15410   3.831  20.329   7.370 -0.3192 -0.4124  0.2051
72494W        W15411   4.273  17.648   6.408  0.1797 -0.3000  0.0074
72495W        W15412   6.059  21.893   9.667 -0.0008  0.0853 -0.2779
72496W        W15413   7.706  20.545   8.665 -0.1221 -0.0734  0.1036
72497W        W15414   5.371  21.196   7.544  0.2037  0.0689 -0.0659
72498W        W15415   5.674  21.593   7.582  0.1050 -0.3353  0.0018
72499W        W15416   7.876  21.406   9.516  0.0634 -0.0726  0.0201
72500W        W15417   2.527  20.208   8.624  0.2036 -0.2062  0.2116
72501W        W15418   4.361  20.767   7.414  0.2975 -0.1687 -0.0369
72502W        W15419   4.849  23.613   9.615 -0.2413 -0.0644 -0.4913
72503W        W15420   7.689  21.622   8.383  0.3529 -0.1587 -0.0838
72504W        W15421   4.494  20.329   5.261  0.4120 -0.0494  0.1340
72505W        W15422   5.220  18.972   9.480 -0.1702 -0.2660 -0.0524
72506W        W15423   5.916  20.001   8.811  0.3318  0.2652 -0.0253
72507W        W15424   4.788  21.177   8.133 -0.1721  0.2200 -0.0795
72508W        W15425   6.318  20.283   8.955  0.2365  0.1826 -0.2489
72509W        W15426   4.563  23.869   9.924  0.1755 -0.1024  0.1687
72510W        W15427   5.125  22.541   8.015 -0.3307  0.0397  0.0283
72511W        W15428   9.821  19.039   6.562  0.0280 -0.1456  0.0850
72512W        W15429   6.609  20.989   7.312 -0.1061 -0.2944  0.0733
72513W        W15430   5.841  19.372   8.179 -0.0334 -0.2579  0.2521
72514W        W15431   6.231  18.769   8.628  0.0368 -0.1897 -0.2169
72515W        W15432   5.996  22.794   7.841 -0.0194 -0.0265 -0.1101
72516W        W15433   4.171  18.936   8.395 -0.0169  0.1959  0.1833
72517W        W15434   6.667  20.195   7.674 -0.2397  0.4052  0.2813
72518W        W15435   6.193  18.824  10.094  0.1044  0.2280  0.0062
72519W        W15436   5.141  19.717   9.373 -0.2894  0.0035 -0.1725
72520W        W15437   6.867  17.578   9.788 -0.2359  0.0325 -0.0785
72521W        W15438   8.050  20.175   6.517  0.2103 -0.2417 -0.1799
72522W        W15439   8.746  20.536   8.391  0.3004  0.1142 -0.1180
72523W        W15440   7.434  20.890   6.932  0.2372  0.0362  0.1639
72524W        W15441   3.694  21.614   7.628  0.1026  0.2888 -0.0478
72525W        W15442   3.144  18.623   8.596 -0.1448 -0.1976  0.1471
72526W        W15443   5.606  18.430   7.259  0.1065 -0.0855 -0.1097
72527W        W15444   5.249  21.726   8.337 -0.4111  0.2717 -0.0936
72528W        W15445   8.616  19.433   9.193 -0.3380  0.0819  0.0911
72529W        W15446   5.957  19.778   6.925 -0.1424  0.2002  0.0371
72530W        W15447   7.122  18.489   9.358 -0.1287 -0.1137 -0.1444
72531W        W15448   6.945  14.695   8.984 -0.0905  0.0450 -0.0829
72532W        W15449   4.153  21.520   5.971 -0.1628 -0.0635 -0.0767
72533W        W15450   5.941  23.353   9.083 -0.0593  0.2198  0.0568
72534W        W15451   9.496  23.932   8.288 -0.1313  0.0325  0.3637
72535W        W15452   7.022  21.162   6.633  0.0525  0.1068 -0.0083
72536W        W15453   4.598  20.740   7.997  0.0487 -0.0919 -0.1089
72537W        W15454   5.550  22.528   7.721  0.2864  0.2310  0.2245
72538W        W15455   2.813  20.818   6.513 -0.1930  0.2375 -0.0046
72539W        W15456   4.975  20.239   7.229 -0.1501  0.2611 -0.0766
72540W        W15457   3.468  18.766   8.030 -0.2050  0.0502 -0.1750
72541W        W15458   5.564  20.138   9.488 -0.0028 -0.2412  0.1451
72542W        W15459   9.618  18.267   8.138 -0.1956  0.1947  0.2292
72543W        W15460   5.998  18.494   9.048 -0.0347 -0.2140  0.2546
72544W        W15461   6.232  21.800   8.198 -0.0249 -0.2483 -0.2072
72545W        W15462   7.971  23.286  10.004 -0.2152  0.0694 -0.3000
72546W        W15463   8.184  19.202   9.067  0.0536  0.0929  0.3046
72547W        W15464   7.772  20.967   5.486 -0.2261 -0.0636  0.1450
72548W        W15465   2.877  20.405   8.232 -0.0733 -0.0383  0.0700
72549W        W15466   3.395  20.046   9.568 -0.1704  0.3348 -0.0524
72550W        W15467   6.934  19.577   8.504  0.0135 -0.0410  0.5080
72551W        W15468   4.626  19.460   6.683  0.1296  0.0717 -0.0442
72552W        W15469   6.125  19.815   8.285 -0.1016 -0.2749  0.1606
72553W        W15470   3.951  22.089   9.603 -0.3157 -0.3353 -0.1016
72554W        W15471   5.426  19.258   7.810 -0.1745  0.2291  0.0426
72555W        W15472   6.680  23.244   7.253 -0.1970  0.2168 -0.1789
72556W        W15473   7.794  20.048   9.208 -0.0872 -0.0570 -0.0120
72557W        W15474   7.860  20.904   9.688  0.1664 -0.1106  0.1632
72558W        W15475   3.932  19.787   8.953  0.1058 -0.0799  0.0911
72559W        W15476   5.110  18.099   8.559 -0.0260 -0.0111  0.2381
72560W        W15477   3.814  23.287   8.895  0.0054 -0.1746 -0.2265
72561W        W15478   6.947  21.669   8.779 -0.2017 -0.1658  0.1873
72562W        W15479   4.202  20.981   8.154  0.1666 -0.2117 -0.1008
72563W        W15480   6.232  22.842   8.349 -0.0847 -0.1291 -0.3199
72564W        W15481   4.812  21.548   8.531  0.1049 -0.0276  0.0011
72565W        W15482   9.178  22.160  10.358  0.1163  0.0203  0.1263
72566W        W15483   9.284  20.491   9.763  0.2258 -0.2289  0.3744
72567W        W15484   4.996  19.701   6.992 -0.1634  0.2059 -0.1293
72568W        W15485   6.198  23.332   9.505 -0.2477  0.3441 -0.0719
72569W        W15486   5.649  20.896   5.726  0.0686  0.1217 -0.0630
72570W        W15487   5.130  19.688   7.597 -0.0432  0.3839 -0.1462
72571W        W15488   5.310  21.333   9.611 -0.2166 -0.0474 -0.0354
72572W        W15489   8.410  18.389   8.739  0.0772 -0.1551 -0.1605
72573W        W15490   5.080  20.087   4.989  0.0795 -0.0319 -0.1781
72574W        W15491   7.255  19.078   8.728 -0.1523 -0.2459 -0.0288
72575W        W15492   7.262  19.356   6.709  0.0613 -0.1314  0.0778
72576W        W15493   6.379  20.183   8.467  0.3337  0.1030  0.2653
72577W        W15494   6.059  18.326   7.334  0.0391 -0.0676  0.0620
72578W        W15495   6.796  19.356   7.590 -0.2124  0.2355 -0.1330
72579W        W15496   6.900  22.259   8.739 -0.5402  0.2587  0.1507
72580W        W15497   6.129  20.783   7.856  0.0391  0.0672  0.0454
72581W        W15498   6.179  19.937   7.481 -0.1582  0.1506 -0.0559
72582W        W15499   6.868  20.426   8.112 -0.1273 -0.0148  0.1576
72583W        W15500   2.599  21.325   8.603  0.0101  0.2465 -0.1845
72584W        W15501   6.508  21.966   9.741 -0.3207  0.0627  0.0848
72585W        W15502   1.910  16.350   9.710  0.0662  0.1004  0.1097
72586W        W15503   7.468  21.204   7.367  0.1151  0.1197 -0.1965
72587W        W15504   8.063  18.713   7.606  0.2659  0.0702 -0.0707
72588W        W15505   2.981  22.208   6.501  0.0785 -0.1209 -0.0457
72589W        W15506  12.017  18.822   9.767  0.0775 -0.0673 -0.1438
72590W        W15507   5.254  19.480   8.607  0.2207  0.2139  0.5956
72591W        W15508   7.608  20.530   7.365  0.1361  0.1172 -0.0986
72592W        W15509   3.183  21.436   7.791 -0.0918 -0.0578 -0.4293
72593W        W15510   6.502  18.070   8.993  0.0112 -0.1130  0.0751
72594W        W15511   6.501  19.441   8.215  0.1396  0.0836  0.0716
72595W        W15512   2.844  22.492   8.451 -0.1402 -0.0734 -0.0425
72596W        W15513   5.367  20.310   8.152 -0.2330  0.2275 -0.0076
72597W        W15514   4.539  18.899   7.910 -0.3120  0.0314  0.0084
72598W        W15515   3.357  22.632   8.512  0.2845 -0.0982 -0.3468
72599W        W15516   4.581  20.169   8.620  0.0944  0.0151  0.0274
72600W        W15517   3.047  17.422   8.296  0.0876  0.1883 -0.1896
72601W        W15518   7.251  19.386   7.733 -0.0224 -0.3665  0.0162
72602W        W15519   4.484  22.703   6.608 -0.1456 -0.0509 -0.4116
72603W        W15520   6.427  22.376   8.789  0.3074 -0.0828 -0.1156
72604W        W15521   4.985  22.411   7.501 -0.1521 -0.0525 -0.1544
72605W        W15522   6.022  22.032   8.597  0.0496 -0.4615  0.2741
72606W        W15523   4.798  21.087   6.527  0.1691 -0.0006  0.1361
72607W        W15524   4.303  20.177   7.626 -0.0040 -0.0854 -0.0107
72608W        W15525   3.783  20.846   8.368  0.1385  0.2078  0.2307
72609W        W15526   7.285  20.403   8.975 -0.5512 -0.0174 -0.1579
72610W        W15527   6.695  20.755   7.703 -0.2252  0.1340 -0.1962
72611W        W15528   2.560  19.669   8.616  0.4822 -0.1063 -0.2348
72612W        W15529   4.432  18.698   8.788 -0.1244 -0.0624  0.2548
72613W        W15530   5.527  20.422   8.670 -0.0323  0.0235 -0.4261
72614W        W15531   7.810  19.210   8.519 -0.1387 -0.1620 -0.1172
72615W        W15532   5.403  18.912   6.452 -0.1355  0.0653 -0.1248
72616W        W15533   6.988  18.159   9.026  0.0707 -0.1635 -0.2066
72617W        W15534   5.659  20.720   8.237 -0.0488 -0.0944  0.0078
72618W        W15535   2.588  20.431   9.112 -0.0713 -0.4806 -0.1614
72619W        W15536   9.372  21.864   9.750 -0.2177 -0.1126  0.1107
72620W        W15537   4.553  19.683   7.970 -0.2614  0.3168 -0.1222
72621W        W15538   3.770  22.123   7.150  0.0146  0.1944  0.0994
72622W        W15539  10.187  20.059   8.704  0.0361  0.0809  0.0634
72623W        W15540   4.015  18.134   8.515 -0.0600 -0.0424  0.0091
72624W        W15541   3.002  19.067   7.864 -0.1930  0.0835  0.2210
72625W        W15542   5.932  17.640   9.930 -0.1323 -0.2614 -0.1587
72626W        W15543   8.467  20.897   9.122  0.0549 -0.0361 -0.2131
72627W        W15544   4.199  20.173   8.928  0.0653 -0.1513 -0.0449
72628W        W15545   4.584  17.341   9.228 -0.1156  0.1758 -0.2095
72629W        W15546   6.922  19.624   9.077 -0.0035  0.0156 -0.0829
72630W        W15547   6.914  20.307   6.677  0.1281 -0.1095 -0.0892
72631W        W15548   2.784  20.443   7.300  0.0302 -0.0084  0.2829
72632W        W15549   4.965  19.781   8.903  0.1001  0.2172 -0.0838
72633W        W15550   3.425  16.971   8.305 -0.3678 -0.1153  0.0910
72634W        W15551   3.543  20.920   8.953  0.0869  0.1944 -0.0286
72635W        W15552   4.310  18.557   9.705 -0.0644  0.0202 -0.1938
72636W        W15553   5.280  20.206   9.087 -0.0040  0.1062  0.0418
72637W        W15554   8.763  18.437   5.254 -0.0806  0.1285 -0.3736
72638W        W15555   6.668  21.660   7.962 -0.1502  0.1661 -0.2177
72639W        W15556   5.899  19.760   7.869  0.1985 -0.1123  0.1005
72640W        W15557   6.353  20.028   6.686  0.0367  0.1861 -0.0169
72641W        W15558   4.390  17.620   9.596  0.0812 -0.0058  0.1949
72642W        W15559   9.259  21.677   8.233  0.0496  0.1726  0.3930
72643W        W15560   6.411  19.749   8.761 -0.3001 -0.2700 -0.2085
72644W        W15561   3.805  19.010   6.624 -0.0194  0.1034  0.1832
72645W        W15562   3.431  19.563   7.490 -0.0422 -0.3597  0.2648
72646W        W15563   6.861  21.109   9.161  0.2321  0.0230  0.1872
72647W        W15564   4.643  23.057   7.507 -0.0033 -0.0223 -0.1647
72648W        W15565   6.068  19.198   9.651  0.0382  0.2977  0.3178
72649W        W15566   1.676  20.586   7.979 -0.1662 -0.1746  0.2095
72650W        W15567   7.272  21.656   7.472  0.0926 -0.1318 -0.2248
72651W        W15568   5.626  20.256   6.583 -0.4901  0.0767 -0.3051
72652W        W15569   7.384  18.598   8.896 -0.0254  0.1195 -0.1800
72653W        W15570   8.748  20.233   9.671  0.2034 -0.0659  0.0065
72654W        W15571   3.769  17.147   7.807 -0.1752 -0.1666 -0.1171
72655W        W15572   8.944  24.889  10.023 -0.1734 -0.1391  0.0620
72656W        W15573   7.533  19.938   6.028  0.0308  0.2050  0.1012
72657W        W15574   8.258  20.304   9.106 -0.2191 -0.0921 -0.1696
72658W        W15575   7.107  20.061   9.296 -0.0402  0.0785  0.1892
72659W        W15576   6.835  18.498   7.448 -0.5501  0.4363  0.0215
72660W        W15577   2.945  19.971   7.994 -0.0569 -0.0247 -0.1198
72661W        W15578   4.896  19.681   5.752  0.0847 -0.0770 -0.0576
72662W        W15579   4.976  22.008   8.065  0.0131  0.1080 -0.3839
72663W        W15580   9.285  20.017   9.581 -0.0923 -0.0251 -0.1048
72664W        W15581   7.116  18.769   8.329 -0.0082  0.1350 -0.2864
72665W        W15582   4.578  21.304   8.928  0.0468  0.5116 -0.1173
72666W        W15583   5.115  20.863   5.669  0.1367  0.1543  0.0591
72667W        W15584   6.208  20.244   7.900 -0.0361 -0.3605 -0.2492
72668W        W15585   6.603  19.988   9.336 -0.1565  0.0166  0.2867
72669W        W15586   6.018  18.882   7.307 -0.3039  0.0701 -0.2368
72670W        W15587   4.364  20.697   6.529  0.3058  0.4831 -0.1484
72671W        W15588   4.483  18.449   9.232  0.2837 -0.1477  0.1258
72672W        W15589   4.651  20.917   9.240 -0.0310 -0.0475  0.2051
72673W        W15590   6.538  19.034   9.556 -0.4435 -0.3827  0.1547
72674W        W15591   5.299  18.826   8.873  0.1239 -0.1223 -0.0653
72675W        W15592   5.280  17.918  10.180 -0.1942  0.2091 -0.1770
72676W        W15593   5.095  20.921   9.449 -0.2027  0.2520 -0.2563
72677W        W15594   5.729  20.738   6.913 -0.1777 -0.0861 -0.2334
72678W        W15595   6.920  20.648   9.153 -0.0657 -0.1070 -0.2595
72679W        W15596   5.442  21.138   6.614 -0.1038 -0.0419 -0.2822
72680W        W15597   6.673  20.499   9.597  0.1507  0.0303 -0.1067
72681W        W15598   3.485  19.887   8.677 -0.0263  0.0020  0.2334
72682W        W15599   6.493  21.215   7.766 -0.4282  0.2642 -0.1649
72683W        W15600   7.495  14.899  12.354  0.0172 -0.0655 -0.5631
72684W        W15601   4.395  23.216   6.734 -0.0428 -0.1352  0.0878
72685W        W15602   7.735  20.779   8.173  0.0461  0.0660 -0.4486
72686W        W15603   5.841  20.295   7.522 -0.1478 -0.0547 -0.3845
72687W        W15604  10.657  19.153   9.139 -0.1770  0.1463 -0.1840
72688W        W15605   6.663  19.928   5.802  0.1159 -0.2173 -0.0728
72689W        W15606   4.467  21.954   8.539 -0.1665 -0.1003 -0.3252
72690W        W15607   4.704  21.761   6.928  0.0798 -0.0826  0.0002
72691W        W15608   7.371  21.155   8.277  0.0171 -0.0906 -0.0022
72692W        W15609   6.165  21.236   9.024  0.1774  0.1568  0.1650
72693W        W15610   9.392  17.036   9.372  0.1432 -0.0523  0.0258
72694W        W15611   7.328  19.233   8.205 -0.0608  0.0174  0.2000
72695W        W15612   7.610  18.763   8.344 -0.0801  0.0578 -0.6252
72696W        W15613   3.871  21.603   6.999  0.2982 -0.3195  0.0256
72697W        W15614   8.600  19.797   7.814 -0.2472 -0.1653 -0.1662
72698W        W15615   9.183  22.223   7.415 -0.1747 -0.1709 -0.0028
72699W        W15616   5.339  19.930   5.806  0.0634  0.0552  0.0210
72700W        W15617   4.724  19.502   9.277 -0.0722  0.1776  0.0677
72701W        W15618   7.148  16.505   8.922 -0.1308 -0.1868  0.3111
72702W        W15619   5.981  20.271   7.047 -0.2747  0.0677 -0.2704
72703W        W15620   5.959  19.502   9.003  0.0405 -0.0799  0.0960
72704W        W15621   4.625  23.254   7.991 -0.1903  0.2951 -0.0699
72705W        W15622   6.866  21.018   8.127  0.0795  0.1844  0.3652
72706W        W15623   5.043  21.106   8.976 -0.0521  0.0763  0.3045
72707W        W15624   5.087  20.144   6.716  0.2911  0.0567 -0.0842
72708W        W15625  10.104  18.214   9.235  0.2008  0.1473 -0.2910
72709W        W15626   7.279  19.312   9.170  0.1738 -0.1202 -0.0398
72710W        W15627   7.116  18.979   7.474  0.0990  0.2754 -0.1397
72711W        W15628   9.160  17.793   8.911  0.3167  0.0046 -0.0546
72712W        W15629   6.026  22.580   9.009  0.1129 -0.0196 -0.0662
72713W        W15630   1.391  16.470   9.113 -0.0957  0.1730  0.0730
72714W        W15631   7.317  20.357   6.975  0.1734 -0.0504 -0.1907
72715W        W15632   7.416  19.838   6.836  0.3315  0.0775  0.0281
72716W        W15633   5.240  19.281   9.087 -0.0737  0.0169  0.0746
72717W        W15634   5.892  18.402   8.607  0.0731  0.1850 -0.1214
72718W        W15635   4.005  17.988   7.674 -0.3726 -0.2409  0.2812
72719W        W15636   3.136  20.727   9.518 -0.1196  0.2579  0.0850
72720W        W15637   3.062  17.344   9.366 -0.0742 -0.0052 -0.0086
72721W        W15638   6.564  19.888   7.151 -0.1855 -0.0457  0.2131
72722W        W15639   8.472  19.086   8.149  0.3123 -0.2917 -0.0646
72723W        W15640   7.996  20.620   6.878 -0.1820  0.1267  0.3387
72724W        W15641   5.779  20.932   9.358  0.3329  0.4160 -0.1687
72725W        W15642   6.721  23.427   9.531  0.2414  0.0863  0.3768
72726W        W15643   3.693  19.322   6.997  0.0474 -0.0682 -0.0308
72727W        W15644   7.336  21.899   8.643  0.3036  0.2025  0.4819
72728W        W15645   9.211  23.752   9.205 -0.1674 -0.1184 -0.1311
72729W        W15646   7.367  17.722   8.301  0.1041  0.6658 -0.2643
72730W        W15647   5.663  19.588   9.454 -0.1249  0.3078  0.1804
72731W        W15648   4.036  20.613   7.017 -0.1699 -0.1069 -0.1669
72732W        W15649   4.492  19.668   8.791  0.1720  0.1127 -0.1003
72733W        W15650   6.027  21.724   6.880  0.0278  0.0213 -0.1905
72734W        W15651   4.099  17.670   9.135  0.1034 -0.0997 -0.2085
72735W        W15652   5.220  20.848   8.015  0.0443 -0.0035  0.1975
72736W        W15653   5.472  22.229   8.234 -0.0851  0.2743  0.1313
72737W        W15654   4.148  22.349   8.457  0.1787  0.3337  0.1940
72738W        W15655   7.297  20.852   7.854 -0.0899  0.0973 -0.3920
72739W        W15656   4.997  22.115   8.568  0.0885  0.0757  0.2620
72740W        W15657   5.632  22.513   8.650  0.0189  0.0968 -0.0140
72741W        W15658   5.632  18.801   9.769 -0.0916 -0.1240  0.0046
72742W        W15659   8.679  18.829   7.486  0.1011 -0.2712 -0.0928
72743W        W15660   9.845  18.559   8.981 -0.0648 -0.3693  0.5473
72744W        W15661   4.347  22.542   9.693  0.1187  0.0693 -0.0114
72745W        W15662   2.453  21.659   7.660  0.0531  0.0542  0.1968
72746W        W15663   5.348  19.093   8.290 -0.1030 -0.1574 -0.0441
72747W        W15664   5.554  22.774   9.112 -0.0884  0.0229 -0.0608
72748W        W15665   6.498  20.715   8.188  0.0581  0.0234 -0.1253
72749W        W15666   4.632  18.889   6.043 -0.0782 -0.0054 -0.0279
72750W        W15667   8.471  20.841   6.754 -0.0791  0.0148 -0.0078
72751W        W15668   4.566  19.249   8.304  0.0740 -0.1527 -0.1940
72752W        W15669   3.328  18.341   9.088  0.0754 -0.0406 -0.2612
72753W        W15670   6.800  20.548   8.636 -0.0402 -0.4412  0.3233
72754W        W15671   7.544  20.187   9.647 -0.1744 -0.2447  0.0209
72755W        W15672   6.775  19.034   7.998 -0.2900 -0.1766 -0.1532
72756W        W15673   4.999  20.401   5.880  0.1586  0.2353 -0.0723
72757W        W15674   2.601  19.931   6.859 -0.0091 -0.2999 -0.0080
72758W        W15675   5.277  19.983   8.552 -0.1285 -0.1075 -0.0836
72759W        W15676   7.068  21.625   8.271 -0.2844 -0.0400  0.0168
72760W        W15677   7.853  21.834   8.004 -0.0605  0.3590 -0.4374
72761W        W15678   3.417  18.920   7.546 -0.2069  0.0735 -0.1705
72762W        W15679   5.688  20.953   8.824 -0.1019 -0.1450 -0.0240
72763W        W15680   7.662  20.759   6.037 -0.0019 -0.5641 -0.2028
72764W        W15681  11.753  21.242   9.748  0.1219  0.2618  0.0498
72765W        W15682   7.146  19.912   7.838 -0.0171 -0.0117  0.0460
72766W        W15683   7.518  23.085  12.502  0.0635  0.0501  0.0492
72767W        W15684   4.299  19.890   9.329 -0.2472  0.0723 -0.3630
72768W        W15685   8.880  19.114   9.444  0.2668  0.1161 -0.3388
72769W        W15686   5.724  24.187   9.362 -0.2195  0.0361 -0.1077
72770W        W15687   1.032  17.202   9.569 -0.1851 -0.0549 -0.3376
72771W        W15688   8.772  20.650   9.365  0.0006 -0.1529  0.0844
72772W        W15689   5.810  18.811   8.356 -0.0367  0.0760  0.0211
72773W        W15690   5.500  19.831   6.241 -0.0019  0.1648 -0.1394
72774W        W15691   6.716  19.920   8.216  0.4173 -0.2768  0.1953
72775W        W15692   6.916  19.374   9.525  0.1821 -0.4181 -0.2957
72776W        W15693   5.184  21.611   8.904  0.2005  0.1788 -0.0430
72777W        W15694   2.948  20.999   8.330 -0.0083 -0.2068  0.1685
72778W        W15695   4.097  17.701   7.185  0.0293  0.1441  0.1212
72779W        W15696   5.529  18.900   7.383 -0.2429  0.2147 -0.0131
72780W        W15697   6.292  18.907   8.172 -0.0660  0.3242 -0.2633
72781W        W15698   6.871  18.562   8.708 -0.4734  0.1882  0.2456
72782W        W15699   3.403  18.492   6.490 -0.0866 -0.0759 -0.0144
72783W        W15700   9.301  18.054   9.864 -0.0045  0.0816  0.0397
72784W        W15701   3.561  23.415   7.201 -0.1745 -0.0069 -0.3254
72785W        W15702   8.270  22.984   9.782 -0.0244 -0.0707 -0.2251
72786W        W15703   4.492  24.877   3.805 -0.3311 -0.1157 -0.0455
72787W        W15704   4.549  22.334   3.550 -0.0495  0.3945  0.0123
72788W        W15705   7.578  21.533  31.908 -0.0772  0.2715  0.2055
72789W        W15706   6.338  23.656   1.411  0.2435  0.1194 -0.0491
72790W        W15707   5.585  20.334   0.480  0.1126  0.3135 -0.3424
72791W        W15708   7.764  26.712  31.385  0.2059  0.0543 -0.0655
72792W        W15709   7.161  22.165   5.737 -0.1234 -0.1668 -0.0388
72793W        W15710   5.959  22.989   3.045  0.1088 -0.1239  0.0841
72794W        W15711   4.933  26.445   2.303  0.0734  0.0349  0.0929
72795W        W15712   5.555  24.609  31.186  0.1650  0.1538 -0.1044
72796W        W15713   4.762  23.061   4.975  0.3789  0.0129  0.2417
72797W        W15714   5.489  24.027   2.420  0.1314  0.1332  0.0586
72798W        W15715   5.066  21.977   1.520 -0.0583  0.1602 -0.1514
72799W        W15716   2.753  22.026   1.898  0.0112 -0.0096  0.0392
72800W        W15717   7.234  24.031   2.548  0.0897 -0.0900 -0.0099
72801W        W15718   4.926  23.545   0.548 -0.3810  0.2000 -0.1418
72802W        W15719   8.106  22.862   3.042  0.1984  0.0769  0.2877
72803W        W15720   7.093  21.694   0.071 -0.1084 -0.3429 -0.0265
72804W        W15721   7.098  23.933   1.643  0.2685  0.1824 -0.0448
72805W        W15722   5.308  21.268   2.074 -0.3393 -0.0022  0.1776
72806W        W15723   3.650  21.763   5.066 -0.1578  0.1540 -0.0319
72807W        W15724   8.107  23.593   0.669  0.0901  0.0585  0.1684
72808W        W15725   5.371  22.042   0.178  0.3484 -0.3261 -0.1252
72809W        W15726   3.479  22.822   1.278 -0.0614 -0.1986  0.0551
72810W        W15727   5.046  22.955   2.912 -0.1092 -0.0116 -0.2055
72811W        W15728   7.017  24.606   3.915 -0.0026  0.2425  0.3017
72812W        W15729   6.838  23.606   1.398  0.1198  0.0925  0.0414
72813W        W15730   4.927  24.077   1.744 -0.2188 -0.1060  0.3027
72814W        W15731   6.504  24.928   2.189 -0.0974  0.1265 -0.1326
72815W        W15732   7.238  23.650   2.903 -0.1295  0.0108 -0.1802
72816W        W15733   4.095  24.947  31.855 -0.1710 -0.2855 -0.0883
72817W        W15734   3.482  25.568   2.829 -0.2352  0.0275  0.0492
72818W        W15735   5.218  24.909  30.352  0.2325 -0.0074 -0.0218
72819W        W15736   6.800  24.331   2.506  0.0954 -0.1594 -0.1944
72820W        W15737   6.833  25.334   4.410  0.1467  0.0582 -0.1136
72821W        W15738   5.993  24.745   3.501  0.3231 -0.2553 -0.0480
72822W        W15739   5.802  24.905  31.521  0.0523 -0.2342 -0.0881
72823W        W15740   4.335  26.386   3.379  0.3830 -0.0067  0.1117
72824W        W15741   6.186  22.707   4.593 -0.2121  0.0843 -0.1259
72825W        W15742   5.658  22.664   3.806  0.1193 -0.0563  0.2572
72826W        W15743   7.472  24.106   0.174  0.1088 -0.5672 -0.3563
72827W        W15744   4.940  24.966   0.207 -0.1004 -0.0713  0.1475
72828W        W15745   7.373  22.449   1.311 -0.2122  0.3707 -0.1491
72829W        W15746   5.600  25.699   3.956 -0.0426  0.1320 -0.1198
72830W        W15747   5.613  24.060   0.502  0.1142  0.0909 -0.1680
72831W        W15748   8.316  22.731   3.643  0.1714  0.1164 -0.1568
72832W        W15749   3.383  24.889   0.439  0.1956  0.0839  0.4120
72833W        W15750   7.208  20.628  30.525 -0.2366  0.1249  0.2945
72834W        W15751   4.935  22.849   1.104 -0.1665 -0.0554  0.2814
72835W        W15752   6.744  21.114   0.958  0.3321 -0.1901  0.2211
72836W        W15753   6.970  20.811   1.323  0.0946 -0.1376  0.0576
72837W        W15754   3.955  25.473   0.598 -0.2942  0.1025 -0.1558
72838W        W15755   5.293  21.594   3.353 -0.1156  0.2142  0.0144
72839W        W15756   6.631  24.316   2.983  0.1171 -0.2446  0.1417
72840W        W15757   5.217  23.637   2.676 -0.1887  0.0823 -0.0781
72841W        W15758   5.401  22.289   2.461 -0.2531 -0.0945  0.0217
72842W        W15759   5.589  25.250   1.961 -0.2998 -0.0237 -0.1192
72843W        W15760   4.547  21.078   3.117  0.0730  0.0811  0.1431
72844W        W15761   6.546  25.285   0.151  0.1989  0.0157  0.1070
72845W        W15762   6.964  27.158   2.427  0.0712 -0.2389  0.0315
72846W        W15763   8.220  26.597   0.243  0.1565  0.1642 -0.1418
72847W        W15764   5.886  23.700   1.388 -0.3234  0.0889 -0.1089
72848W        W15765   4.787  24.364   3.623 -0.0445  0.3958 -0.0258
72849W        W15766   5.073  24.595   3.174 -0.3754  0.2864  0.2464
72850W        W15767   4.843  23.361   1.744 -0.2493  0.0632  0.2561
72851W        W15768   8.268  26.034   3.753 -0.4154  0.3716 -0.3234
72852W        W15769   5.249  25.441   4.326 -0.1881  0.0111  0.0661
72853W        W15770   8.205  22.714   2.377 -0.2151  0.4588  0.0710
72854W        W15771   5.493  24.462   0.849 -0.0894  0.0416 -0.0052
72855W        W15772   7.004  24.714   2.980 -0.2327  0.0330 -0.0287
72856W        W15773   6.409  22.516   1.150 -0.0159  0.1597  0.1312
72857W        W15774   7.049  21.632   2.307 -0.1287 -0.0463  0.1964
72858W        W15775   6.408  23.096   2.770 -0.0819 -0.2375  0.1411
72859W        W15776   5.866  22.544  31.096 -0.1287 -0.2309  0.1446
72860W        W15777   6.566  23.485   1.010 -0.1411 -0.0532 -0.1788
72861W        W15778   6.065  25.715   3.624 -0.0638  0.0246  0.2005
72862W        W15779   6.483  23.750  31.764  0.0981 -0.1576  0.0507
72863W        W15780   5.916  26.146   2.392 -0.1988  0.1703 -0.2707
72864W        W15781   6.762  21.395   4.785 -0.2891  0.0247  0.1249
72865W        W15782   6.302  24.652   4.474  0.2375 -0.0806  0.0784
72866W        W15783   5.500  26.508  30.190 -0.1067 -0.0505 -0.2673
72867W        W15784   6.148  24.392   2.982  0.0190  0.0141 -0.2205
72868W        W15785   2.788  21.607   0.743 -0.3365 -0.1071  0.1567
72869W        W15786   3.720  23.511   2.821 -0.1711 -0.1330  0.1763
72870W        W15787   5.234  25.039   2.743 -0.0359  0.0700  0.1792
72871W        W15788   6.729  22.133   1.891 -0.0304 -0.1411  0.1214
72872W        W15789   3.938  22.056   2.445  0.0006 -0.1388 -0.1488
72873W        W15790   6.908  21.710   3.394 -0.0319 -0.0907 -0.0950
72874W        W15791   5.372  23.793   1.947  0.1295 -0.0285 -0.0574
72875W        W15792   7.326  26.454   2.268  0.1373 -0.1441 -0.2230
72876W        W15793   6.899  24.095   0.089  0.1868 -0.2440 -0.2528
72877W        W15794   6.277  24.490   2.087  0.0105  0.0161 -0.0410
72878W        W15795   3.198  23.431   3.311  0.0904  0.1803 -0.1843
72879W        W15796   5.327  20.684   3.419  0.3897 -0.1054  0.1485
72880W        W15797   5.144  23.012   1.949  0.1614  0.1582  0.0334
72881W        W15798   6.357  20.974   3.720  0.1239 -0.2299  0.4192
72882W        W15799   8.298  24.159   3.959 -0.1109  0.2313 -0.1525
72883W        W15800   5.310  21.825   2.903 -0.0882  0.0313  0.0846
72884W        W15801   8.084  22.424   2.825 -0.0350  0.0283  0.2088
72885W        W15802   6.492  24.021   0.813 -0.2121  0.1396  0.1696
72886W        W15803   4.622  22.474   1.780 -0.0908  0.0670  0.0011
72887W        W15804   7.724  24.404   3.279 -0.2370 -0.4149 -0.1496
72888W        W15805   2.823  24.079  31.463  0.0394 -0.1222  0.1156
72889W        W15806   6.069  25.357   2.902 -0.2526 -0.0722 -0.2102
72890W        W15807   6.577  25.169   2.892 -0.0648  0.3473  0.0816
72891W        W15808   6.026  22.890   4.073  0.0511 -0.1671  0.0228
72892W        W15809   4.392  24.338   0.099  0.0471  0.1507 -0.1733
72893W        W15810   5.767  26.924   1.766  0.0769  0.4472 -0.0849
72894W        W15811   6.780  24.594   2.013  0.0546 -0.0469 -0.4183
72895W        W15812   6.220  21.892  31.694 -0.3300 -0.0574  0.1687
72896W        W15813   5.828  26.648   2.217  0.0678 -0.0987  0.1026
72897W        W15814   4.897  23.378   1.200 -0.0951  0.2869 -0.0972
72898W        W15815   4.295  24.366   3.921 -0.1249  0.2580 -0.0051
72899W        W15816   4.933  21.996   3.315 -0.1163 -0.0490 -0.1617
72900W        W15817   7.591  23.659   2.518  0.2012 -0.2650 -0.1546
72901W        W15818   5.926  21.613   0.764 -0.2728 -0.0685 -0.3556
72902W        W15819   6.577  23.068  31.112  0.0134 -0.1770 -0.1642
72903W        W15820   7.608  25.598   1.188  0.0298  0.1002 -0.1268
72904W        W15821   3.683  24.953   0.836 -0.0368 -0.1401  0.1196
72905W        W15822   2.971  23.798   1.080 -0.0549  0.0639  0.1034
72906W        W15823   5.532  24.502   2.879  0.2456 -0.2106  0.0495
72907W        W15824   6.323  22.384   1.603  0.1971 -0.1416  0.1560
72908W        W15825   4.310  24.139   3.440  0.1052  0.1658 -0.2330
72909W        W15826   7.881  21.629   3.698  0.3026  0.4332 -0.0919
72910W        W15827   4.276  25.179   0.253 -0.1355  0.2384  0.1166
72911W        W15828   5.782  25.338   3.342 -0.0502 -0.1298 -0.2251
72912W        W15829   6.201  20.666   2.845 -0.0466  0.0278  0.0661
72913W        W15830   7.635  20.148   0.898  0.2428  0.0324 -0.2832
72914W        W15831   5.813  24.331   3.749 -0.1505  0.2237  0.3932
72915W        W15832   6.885  24.493   1.490  0.0694 -0.3423 -0.1327
72916W        W15833   6.808  20.844  30.792 -0.2034 -0.1624  0.0005
72917W        W15834   6.137  20.104  31.875 -0.1128 -0.0307 -0.2259
72918W        W15835   4.312  24.094   2.797 -0.0999  0.0307 -0.1140
72919W        W15836   7.110  25.727   1.208  0.0044  0.0748 -0.2720
72920W        W15837   5.876  24.419   2.544  0.0884  0.1159  0.0402
72921W        W15838   5.211  23.015  31.030 -0.2623 -0.2652  0.1230
72922W        W15839   8.165  27.228   1.641 -0.2810  0.3247 -0.0212
72923W        W15840   5.487  23.195   2.813 -0.1619 -0.0746  0.1394
72924W        W15841   6.841  23.965   3.264  0.2992  0.3423  0.2839
72925W        W15842   7.068  25.570   1.985 -0.2875  0.2037  0.3732
72926W        W15843   4.299  21.470   1.647  0.4282  0.1917  0.2081
72927W        W15844   4.817  22.100  31.894 -0.3592  0.1646 -0.0000
72928W        W15845   6.865  22.451   1.472 -0.0259  0.0803  0.0759
72929W        W15846   2.732  23.586  31.385  0.0822  0.1104  0.1054
72930W        W15847   6.447  23.650   1.882  0.2320  0.0604 -0.4799
72931W        W15848   6.641  21.205   3.325 -0.0564 -0.4590  0.2409
72932W        W15849   6.157  21.567   3.828 -0.2310  0.3042  0.3697
72933W        W15850   7.622  23.512   3.338 -0.2981 -0.0435 -0.1711
72934W        W15851   7.066  23.013   2.147  0.2845  0.0426 -0.1175
72935W        W15852   5.884  23.652   1.913  0.0601 -0.2541 -0.0559
72936W        W15853   5.361  23.094   1.165 -0.3328 -0.4540  0.2497
72937W        W15854   6.322  24.360   3.464 -0.0776 -0.1293  0.3361
72938W        W15855   5.196  23.480   3.151 -0.0507 -0.0810  0.0147
72939W        W15856   4.643  23.865   4.838  0.0158 -0.2080  0.2216
72940W        W15857   7.434  23.856   1.966 -0.3029  0.4455 -0.0739
72941W        W15858   6.181  22.076   2.762  0.1788 -0.1084  0.0952
72942W        W15859   6.820  24.284   6.536 -0.0182  0.0524  0.0351
72943W        W15860   4.744  24.408   1.448  0.1019 -0.0171 -0.1834
72944W        W15861   3.976  24.475  31.828  0.1405 -0.2050 -0.0376
72945W        W15862   4.451  21.689  31.095  0.1950  0.1335  0.1571
72946W        W15863   3.382  21.653   0.478 -0.1762  0.0253 -0.0314
72947W        W15864   6.295  25.216   3.380 -0.0691 -0.3900 -0.0163
72948W        W15865   4.728  23.969  31.798 -0.0866  0.1573  0.2662
72949W        W15866   6.177  24.019   1.640  0.2358 -0.0793 -0.1462
72950W        W15867   4.055  27.256   0.367 -0.0990  0.2629  0.0188
72951W        W15868   6.923  21.745   1.699 -0.0304  0.3050 -0.0336
72952W        W15869   3.671  24.854   1.836  0.1985 -0.1296 -0.1531
72953W        W15870   5.865  21.338   2.224  0.3030 -0.1878 -0.0548
72954W        W15871   5.252  22.898   2.434  0.0374  0.2553 -0.1761
72955W        W15872   6.776  21.297   1.966 -0.0240 -0.1438  0.0671
72956W        W15873   7.595  22.868   2.249  0.1162 -0.1389 -0.2011
72957W        W15874   6.171  21.381   3.317  0.3403 -0.1045 -0.1397
72958W        W15875   5.890  22.354   1.839  0.1329 -0.0750 -0.0671
72959W        W15876   4.763  24.188   3.134  0.1857  0.2440  0.1077
72960W        W15877   7.074  23.535   2.425 -0.1751  0.4057  0.0215
72961W        W15878   6.343  21.669  30.927  0.2049 -0.2645  0.1459
72962W        W15879   6.649  24.903   1.636 -0.0651 -0.3207 -0.0169
72963W        W15880   4.937  24.571   4.541 -0.0533 -0.1328 -0.0797
72964W        W15881   6.524  21.824   0.123 -0.2444 -0.2805 -0.0698
72965W        W15882   7.787  24.147   3.730  0.2340 -0.0302 -0.0329
72966W        W15883   3.649  23.694   2.383 -0.1799  0.1043  0.0119
72967W        W15884   4.786  24.814  31.469  0.0399  0.2461  0.1405
72968W        W15885   7.670  23.509   1.001  0.0843 -0.0781 -0.4138
72969W        W15886   3.984  22.822   1.345  0.2677 -0.2383  0.0160
72970W        W15887   4.040  24.593   0.915  0.3664  0.0605 -0.1316
72971W        W15888   6.021  25.626   4.238 -0.2162  0.3311 -0.2863
72972W        W15889   6.124  24.850   1.709  0.3146  0.0101 -0.0991
72973W        W15890   5.555  24.766   1.777 -0.0185 -0.0422 -0.1658
72974W        W15891   5.390  22.664   0.855 -0.3787 -0.1038 -0.4147
72975W        W15892   6.069  23.461   0.924  0.0429 -0.5185 -0.0773
72976W        W15893   6.103  22.504   3.607  0.3648 -0.1770 -0.0066
72977W        W15894   5.134  21.793   3.826  0.1053  0.0486  0.1080
72978W        W15895   4.833  24.906   5.773  0.0571 -0.0366 -0.0592
72979W        W15896   5.732  22.862   1.617 -0.1575 -0.1259  0.2492
72980W        W15897   8.439  23.677   3.469 -0.0297  0.0962 -0.2588
72981W        W15898   7.721  23.674   1.520 -0.2074 -0.0610  0.0856
72982W        W15899   4.681  22.919   1.529  0.0200  0.0755 -0.0195
72983W        W15900   5.176  24.447   2.521 -0.2191  0.0091  0.0612
72984W        W15901   6.201  22.121   0.629  0.0190 -0.0020 -0.0773
72985W        W15902   4.945  22.781   4.523  0.0610 -0.1029 -0.0070
72986W        W15903   5.384  25.520   2.407  0.1615 -0.2589  0.2350
72987W        W15904   5.362  24.847   2.245  0.2098  0.2104 -0.1356
72988W        W15905   1.841  24.936   0.766  0.1293  0.0320  0.1512
72989W        W15906   5.808  20.747   1.847  0.2653  0.0242  0.2852
72990W        W15907   5.495  21.437   0.981 -0.0518 -0.1497  0.1927
72991W        W15908   8.008  22.311   3.764  0.1381  0.4028  0.0168
72992W        W15909   6.321  22.320   2.132  0.2298 -0.0382 -0.1575
72993W        W15910   4.822  21.419   3.632  0.2378 -0.0438 -0.3201
72994W        W15911   6.816  23.173   4.163 -0.0294  0.1359 -0.3267
72995W        W15912   5.680  23.581   0.661  0.3960 -0.0053  0.1439
72996W        W15913   3.988  23.777   3.645 -0.0858  0.0631 -0.1816
72997W        W15914   7.320  24.522   3.483  0.0783 -0.0343 -0.0265
72998W        W15915   5.728  25.471   4.678 -0.3675  0.2143  0.0580
72999W        W15916   5.354  20.771  31.840 -0.0719  0.0088 -0.2406
73000W        W15917   3.933  20.894   0.430  0.0466 -0.1653  0.3856
73001W        W15918   5.921  24.779   2.191 -0.3457 -0.0588 -0.3127
73002W        W15919   5.785  24.305   1.954 -0.0045 -0.1200 -0.0223
73003W        W15920   3.099  22.758   0.899 -0.2343  0.0777  0.1187
73004W        W15921   8.308  22.121   2.171 -0.0909  0.1951 -0.3101
73005W        W15922   6.395  24.825   3.753  0.1584  0.0094  0.0724
73006W        W15923   5.801  25.106   1.483 -0.0274 -0.0318  0.1542
73007W        W15924   5.669  24.132  31.512 -0.0223 -0.2143 -0.1674
73008W        W15925   6.426  23.601   2.656 -0.4479  0.0979  0.1180
73009W        W15926   4.615  21.036   4.542  0.1683 -0.0153  0.2198
73010W        W15927   6.134  24.191   1.154 -0.0220 -0.1350 -0.2839
73011W        W15928   7.942  23.186   2.437  0.0668  0.0060 -0.0364
73012W        W15929   6.884  22.929   3.126 -0.1150 -0.0034  0.2033
73013W        W15930   5.701  22.655   3.265  0.0683  0.3485 -0.2483
73014W        W15931   6.674  24.918   4.129 -0.3490  0.2356  0.1728
73015W        W15932   4.775  23.407   2.724  0.1146 -0.2800 -0.1987
73016W        W15933   6.999  24.846   1.162  0.1625 -0.1141  0.3578
73017W        W15934   7.018  22.955   0.186 -0.1460  0.0330 -0.0049
73018W        W15935   6.671  22.077   2.759  0.0404 -0.4734  0.0017
73019W        W15936   6.674  23.296   2.247 -0.3667 -0.1505  0.1387
73020W        W15937   6.111  24.408   0.721  0.5429  0.0102  0.2512
73021W        W15938   5.641  23.235   3.296  0.3010 -0.0622 -0.0746
73022W        W15939   6.115  22.764   1.979 -0.2586  0.2164 -0.0705
73023W        W15940   5.759  21.813  30.999 -0.1193 -0.1148 -0.0090
73024W        W15941   7.438  21.833   3.479  0.0809 -0.0547 -0.0915
73025W        W15942   6.166  24.761   1.206 -0.2706  0.0944 -0.1698
73026W        W15943   7.230  24.697   1.738  0.2691  0.0076 -0.1011
73027W        W15944   7.863  24.464  31.902 -0.1406 -0.1089  0.1560
73028W        W15945   4.895  22.613   3.205 -0.0848  0.0927 -0.2596
73029W        W15946   3.034  26.321   3.561  0.2119  0.1797 -0.1775
73030W        W15947   4.472  23.202  29.717 -0.3314  0.0757 -0.2517
73031W        W15948   5.833  22.657   1.131  0.0474  0.0735 -0.3555
73032W        W15949   4.565  24.535   2.694  0.1498  0.0912  0.1283
73033W        W15950   6.693  23.394   3.068  0.2354 -0.0681 -0.3044
73034W        W15951   6.322  21.420  31.907  0.0343  0.1877  0.1277
73035W        W15952   6.970  22.448   5.293 -0.1932 -0.2599  0.0456
73036W        W15953   6.252  26.033   0.931  0.0418 -0.2352 -0.0633
73037W        W15954   6.068  22.093   3.282  0.0633 -0.2342 -0.1117
73038W        W15955   5.210  24.526   1.342  0.1357  0.0099  0.0531
73039W        W15956   4.000  24.434   1.990  0.1695  0.0020 -0.0862
73040W        W15957   6.372  24.794   0.711  0.0507  0.1154 -0.1279
73041W        W15958   6.281  20.415   3.517 -0.1148 -0.0273  0.0950
73042W        W15959   7.286  22.925   1.137  0.1729 -0.0942  0.2756
73043W        W15960   5.521  26.658   2.660  0.0908  0.2639 -0.2173
73044W        W15961   7.612  23.967   2.908 -0.2974 -0.2261  0.0026
73045W        W15962   5.926  24.750   4.021  0.0787 -0.2101  0.0303
73046W        W15963   5.952  23.921   2.623  0.1693  0.1509 -0.0433
73047W        W15964   5.961  24.876   2.968 -0.0076  0.0084 -0.4234
73048W        W15965   8.927  22.779   3.932 -0.0880  0.0140  0.2968
73049W        W15966   6.805  24.967  30.964 -0.2136 -0.0052  0.0437
73050W        W15967   3.366  21.997   3.004 -0.0589 -0.2546 -0.0438
73051W        W15968   5.754  22.277   2.940 -0.0775  0.0628  0.0966
73052W        W15969   6.347  23.900   3.194 -0.0144 -0.1992 -0.3685
73053W        W15970   4.065  21.175  30.520 -0.2591  0.0844 -0.1212
73054W        W15971   4.895  24.455  31.842  0.2045  0.1802 -0.2056
73055W        W15972   4.191  25.242   5.804 -0.0301  0.2117 -0.0179
73056W        W15973   4.769  23.876   2.213 -0.3900 -0.0800 -0.0093
73057W        W15974   6.990  25.517  31.761  0.4011  0.0482 -0.0807
73058W        W15975   5.622  24.190   0.059 -0.2594  0.1520 -0.1101
73059W        W15976   6.959  23.457   1.902 -0.0098 -0.0007  0.2506
73060W        W15977   6.633  26.411   3.525  0.0796 -0.1829 -0.0844
73061W        W15978   6.834  20.989   0.507 -0.0538  0.0153 -0.0637
73062W        W15979   5.464  23.578   1.135  0.0135  0.0280  0.1802
73063W        W15980   4.311  23.246  31.804  0.1037  0.1197  0.3140
73064W        W15981   8.610  26.514  31.911 -0.0202 -0.1214 -0.0849
73065W        W15982   3.827  25.718   1.381 -0.1724 -0.0609 -0.2281
73066W        W15983   8.189  25.212   4.840 -0.3124 -0.1358  0.2962
73067W        W15984   7.698  21.069   0.342  0.0263 -0.0839 -0.0730
73068W        W15985   7.594  25.409   3.334 -0.3587 -0.0502 -0.3855
73069W        W15986   7.257  24.536   0.092  0.0897  0.0694  0.0439
73070W        W15987   6.311  25.850   2.718 -0.2077  0.2844  0.3746
73071W        W15988   6.523  22.688   5.027 -0.0711 -0.0206  0.0608
73072W        W15989   7.600  21.368  31.410  0.0746 -0.1949 -0.1825
73073W        W15990   5.495  24.513   4.060  0.2482  0.0656  0.2894
73074W        W15991   8.041  21.784   1.369  0.2550 -0.0071 -0.1435
73075W        W15992   3.293  26.903   2.760  0.0088  0.0812 -0.0857
73076W        W15993   5.179  25.849   2.950 -0.3588  0.1304 -0.2103
73077W        W15994   5.032  22.531   2.135 -0.1747 -0.2238  0.1551
73078W        W15995   6.005  22.092   1.184  0.0361 -0.3482 -0.0898
73079W        W15996   7.665  22.966   3.250  0.1909 -0.2176 -0.3054
73080W        W15997   5.998  25.250   1.088  0.1779  0.0073 -0.0281
73081W        W15998   8.214  23.404   1.214 -0.2935  0.1329  0.0143
73082W        W15999   5.564  24.052   1.547 -0.0948  0.0920  0.0227
73083W        W16000   5.663  24.006   1.001  0.0812 -0.2169 -0.1813
73084W        W16001   4.206  24.709   0.359  0.0333 -0.1347  0.1120
73085W        W16002   5.176  22.768   1.528 -0.0550 -0.1308  0.2460
73086W        W16003   9.101  22.461   3.075 -0.3288 -0.2077  0.0835
73087W        W16004   5.582  20.888   0.411  0.0029 -0.1940 -0.3263
73088W        W16005   6.666  22.573   2.803 -0.0838  0.0658 -0.1078
73089W        W16006   4.596  23.074   0.745 -0.1336 -0.0466 -0.0612
73090W        W16007   6.914  22.452   0.881 -0.1283 -0.2478 -0.2045
73091W        W16008   6.243  25.104   4.189 -0.0416 -0.1916  0.2661
73092W        W16009   5.608  23.678   3.005  0.1155  0.1066  0.1430
73093W        W16010   6.174  21.098  31.574  0.1056  0.0746 -0.2003
73094W        W16011   7.292  23.275   3.985  0.1138 -0.2361  0.3140
73095W        W16012   6.899  23.148   2.682  0.1710  0.3888 -0.2218
73096W        W16013   8.253  24.264   5.162  0.0877  0.0870 -0.0159
73097W        W16014   5.547  20.648   0.938  0.0211  0.0480 -0.0121
73098W        W16015   7.082  22.878   0.694 -0.0241  0.0971 -0.1155
73099W        W16016   4.298  22.257   0.945 -0.3403  0.2626  0.0243
73100W        W16017   6.542  24.377   4.043  0.0005 -0.1321  0.1900
73101W        W16018   5.348  26.328   2.950  0.0191  0.0840 -0.1310
73102W        W16019   4.445  20.893   1.808 -0.3443  0.0595  0.3651
73103W        W16020   7.510  23.185  30.543  0.0146 -0.1449 -0.0640
73104W        W16021   7.431  23.340   1.966  0.3198 -0.2878 -0.0029
73105W        W16022   7.093  25.829  31.012 -0.0502  0.2197  0.3983
73106W        W16023   5.465  24.916   1.199  0.0289 -0.2396  0.1646
73107W        W16024   7.225  26.176   2.821 -0.1882 -0.0132  0.2034
73108W        W16025   5.780  23.375   4.070 -0.1042  0.1745  0.1846
73109W        W16026   7.663  24.165   2.338 -0.0575  0.0196 -0.0843
73110W        W16027   8.201  26.745   2.514 -0.4398 -0.0409  0.0994
73111W        W16028   6.278  21.252   1.011  0.0861  0.0065 -0.0839
73112W        W16029   5.946  25.182  31.908  0.1476  0.0708  0.0026
73113W        W16030   3.777  25.799   0.222 -0.1439 -0.5191 -0.3103
73114W        W16031   7.170  20.556   3.688 -0.2718 -0.0118  0.0719
73115W        W16032   8.832  22.444   4.388  0.0145 -0.0142 -0.2984
73116W        W16033   5.138  25.803   0.089  0.2275 -0.2075 -0.1010
73117W        W16034   8.230  22.627   4.104  0.4698 -0.3822  0.1339
73118W        W16035   4.011  24.930   4.093 -0.0783 -0.0617  0.2439
73119W        W16036   5.822  26.471   3.848  0.0521  0.0270  0.1294
73120W        W16037   5.721  24.191  30.944 -0.2173  0.2105  0.0884
73121W        W16038   5.579  24.475   3.329 -0.0129 -0.0800  0.0139
73122W        W16039   5.180  23.923   0.785  0.0160  0.0260 -0.0015
73123W        W16040   6.745  25.238  29.318 -0.1053  0.0790  0.1748
73124W        W16041   9.292  24.899   2.660 -0.0585  0.1560 -0.2150
73125W        W16042   5.764  24.635   0.347  0.0971 -0.1892 -0.2828
73126W        W16043   6.475  24.722   2.628  0.1792  0.0658 -0.2094
73127W        W16044   5.596  20.837   2.963 -0.0219 -0.0360 -0.2251
73128W        W16045   6.688  20.628   3.476  0.2061 -0.2907  0.2456
73129W        W16046   6.034  21.518  31.367 -0.1636  0.1025  0.3889
73130W        W16047   6.017  23.718   4.271  0.2229 -0.2289 -0.1780
73131W        W16048   3.235  22.306  31.153  0.1580  0.0223  0.2665
73132W        W16049   4.949  21.997   0.997 -0.0096 -0.2206 -0.0507
73133W        W16050   5.452  25.129   3.701  0.1255  0.3494  0.0868
73134W        W16051   5.957  21.828   4.360  0.1787  0.1116 -0.3427
73135W        W16052   3.361  23.395   2.127 -0.1773 -0.0487 -0.0963
73136W        W16053   3.584  22.986   0.814  0.0473  0.0313  0.2499
73137W        W16054   5.706  23.034   0.821 -0.2687 -0.1961  0.1413
73138W        W16055   7.182  25.264   0.996 -0.3436 -0.2844  0.0681
73139W        W16056   4.045  22.552   2.533  0.0577 -0.0251 -0.2644
73140W        W16057   3.781  21.590   1.786 -0.0592 -0.0604 -0.2065
73141W        W16058   6.814  24.392  31.111 -0.0770  0.0774  0.1532
73142W        W16059   7.609  24.495   0.471  0.3142 -0.0914 -0.0151
73143W        W16060   5.121  22.690  31.834 -0.1069 -0.0711 -0.1128
73144W        W16061   7.486  25.899   3.298  0.2354 -0.0242  0.2813
73145W        W16062   0.198  23.378   0.507 -0.0101  0.2563 -0.1226
73146W        W16063   4.971  25.902   4.312  0.0273 -0.0085 -0.0677
73147W        W16064   6.432  22.538   4.164  0.3246 -0.1520  0.0065
73148W        W16065   4.296  22.662   0.600 -0.1234  0.1849  0.1467
73149W        W16066   6.423  22.340   0.231  0.1200  0.0713 -0.0016
73150W        W16067   6.617  24.116   1.836 -0.1090 -0.2262 -0.0094
73151W        W16068   7.124  24.311   1.126 -0.0641  0.2171 -0.2144
73152W        W16069   6.994  25.351   2.472  0.1301  0.2135  0.0201
73153W        W16070   4.045  24.455   4.333 -0.0148 -0.1165  0.0436
73154W        W16071   5.510  22.391   1.478 -0.1143  0.0201 -0.0939
73155W        W16072   6.369  24.472   1.571  0.0019  0.0781 -0.1617
73156W        W16073   5.105  26.167   3.932  0.2657  0.2655 -0.0009
73157W        W16074   7.201  23.709   0.111  0.1162  0.0255 -0.0193
73158W        W16075   6.038  23.624   3.625 -0.5474  0.0532  0.2637
73159W        W16076   7.427  22.365   2.288  0.3020 -0.1752  0.3636
73160W        W16077   3.818  21.681   4.578  0.1089  0.3994  0.2075
73161W        W16078   5.693  23.858   3.958  0.0959 -0.2430 -0.0269
73162W        W16079   5.946  26.338   2.850 -0.0947 -0.0486  0.0146
73163W        W16080   2.258  22.134   2.437 -0.3191  0.0407  0.1269
73164W        W16081   6.779  20.294  31.669  0.0810  0.0008 -0.2306
73165W        W16082   7.189  22.415   1.868 -0.1257  0.1274  0.1211
73166W        W16083   4.401  23.723   1.916  0.0136 -0.1544 -0.0289
73167W        W16084   6.419  21.401   2.301  0.2871  0.1746  0.2486
73168W        W16085   6.413  21.587   4.438  0.2251  0.2413  0.2107
73169W        W16086   5.780  24.529   1.404 -0.1395 -0.0655  0.0819
73170W        W16087   6.088  23.235   1.759 -0.1586 -0.0281  0.0597
73171W        W16088   6.612  22.732   0.616 -0.0049 -0.1204  0.3290
73172W        W16089   7.592  21.495   0.853 -0.3374 -0.0071  0.0493
73173W        W16090   4.793  25.039   3.008 -0.3162 -0.0910 -0.1888
73174W        W16091   6.121  26.056   4.074  0.0311 -0.0851  0.0983
73175W        W16092   6.451  24.734   3.162 -0.3404  0.2257 -0.2152
73176W        W16093   6.816  23.894   2.763 -0.1417  0.2883  0.0680
73177W        W16094   2.741  22.561   1.815  0.2733  0.1183 -0.1947
73178W        W16095   6.217  21.596   2.679 -0.3619 -0.1609 -0.0909
73179W        W16096   5.475  24.958   3.179 -0.2351  0.2919 -0.2334
73180W        W16097   8.448  21.519   2.943 -0.0525 -0.1942  0.1054
73181W        W16098   5.084  24.048   1.261 -0.2581 -0.1374  0.1609
73182W        W16099   6.408  20.789   0.757  0.2539  0.1551 -0.3943
73183W        W16100   5.359  24.966   0.500  0.0896 -0.1267 -0.0071
73184W        W16101   5.893  22.420   2.431 -0.1467  0.1886 -0.1273
73185W        W16102   4.740  25.452   5.836  0.2326 -0.2458  0.0291
73186W        W16103   3.830  21.314   4.212 -0.2894 -0.2854  0.3196
73187W        W16104   5.698  22.780   4.416 -0.1987  0.0494  0.0576
73188W        W16105   6.338  24.150   5.085  0.1998  0.1751 -0.1148
73189W        W16106   4.006  21.948   3.431 -0.0302  0.1646 -0.1319
73190W        W16107   5.609  25.871   5.662 -0.2048  0.1376 -0.0957
73191W        W16108   4.707  22.713   5.388  0.0018  0.0984  0.1862
73192W        W16109   6.445  25.206   4.668 -0.1661 -0.0748  0.0806
73193W        W16110   5.603  26.934   6.552 -0.0267  0.2263  0.4004
73194W        W16111   5.941  23.591   5.995  0.1259 -0.0288  0.2111
73195W        W16112   6.197  24.900   5.926  0.1388  0.2407 -0.5011
73196W        W16113   7.489  24.953   6.946  0.0090 -0.0618 -0.2225
73197W        W16114   5.672  21.229   3.215 -0.1869  0.1369  0.2699
73198W        W16115   3.842  22.119   5.429  0.0907  0.1592  0.0225
73199W        W16116   6.497  23.446   6.828  0.0291  0.0602  0.2394
73200W        W16117   5.772  23.139   5.912  0.1393  0.0846  0.1613
73201W        W16118   4.726  24.116   5.834 -0.4716 -0.2618  0.1581
73202W        W16119   5.534  22.042   3.356  0.1402  0.2898  0.0289
73203W        W16120   6.820  25.121   5.326  0.2854  0.5026 -0.1501
73204W        W16121   5.151  21.631   6.787 -0.0971 -0.0363  0.1819
73205W        W16122   6.018  22.719   5.779 -0.2156 -0.0884  0.2517
73206W        W16123   4.567  24.133   5.336 -0.2235 -0.2553  0.3448
73207W        W16124   5.941  23.385   2.659  0.1817 -0.0751  0.1087
73208W        W16125   5.242  24.100   5.953 -0.3162 -0.0546  0.1517
73209W        W16126   6.256  23.514   6.404  0.1153 -0.0481 -0.1871
73210W        W16127   8.760  21.961   5.992  0.2789  0.0122 -0.0061
73211W        W16128   5.710  24.100   6.142  0.3111 -0.1688 -0.1635
73212W        W16129   4.863  25.409   5.053  0.5925 -0.2644 -0.0584
73213W        W16130   5.653  24.097   4.411 -0.2845 -0.0037 -0.1300
73214W        W16131   6.658  22.884   6.882  0.6524 -0.1486  0.1914
73215W        W16132   3.557  23.505   4.654 -0.0282  0.0899 -0.0257
73216W        W16133   2.334  27.164   2.558 -0.2094  0.2150 -0.1753
73217W        W16134   5.741  23.661   7.805 -0.0902 -0.2457  0.0443
73218W        W16135   7.667  23.023   5.645  0.0490 -0.0114 -0.0235
73219W        W16136   7.487  26.100   7.952  0.1082 -0.0502 -0.1243
73220W        W16137   4.434  25.890   8.131 -0.0223  0.1578  0.0914
73221W        W16138   5.224  24.093   4.076 -0.2471 -0.2571  0.3412
73222W        W16139   6.755  25.396   6.185  0.2001 -0.0171  0.0237
73223W        W16140   3.819  25.159   7.319 -0.2963 -0.1761 -0.1902
73224W        W16141   5.965  21.912   6.417  0.0047 -0.2721 -0.1897
73225W        W16142   7.288  23.980   5.833  0.1047  0.3434  0.2009
73226W        W16143   5.453  25.739   3.481  0.0940  0.1322  0.2032
73227W        W16144   6.651  23.285   6.261 -0.0431 -0.0686 -0.1655
73228W        W16145   6.404  24.431   6.689  0.0624 -0.0034  0.1231
73229W        W16146   4.143  25.325   4.393 -0.0163  0.3066  0.1256
73230W        W16147   8.289  21.125   7.797  0.1076  0.2056  0.1503
73231W        W16148   4.808  27.294   2.706  0.3088 -0.0740 -0.3299
73232W        W16149   4.909  25.125   3.551  0.0331 -0.1172 -0.4992
73233W        W16150   6.153  24.036   4.582 -0.2316 -0.0585  0.0470
73234W        W16151   7.476  23.242   5.154 -0.0643 -0.2414  0.2779
73235W        W16152   5.075  23.948   5.396 -0.3243  0.3419 -0.1592
73236W        W16153   4.506  26.292   5.139  0.0181  0.0171 -0.0352
73237W        W16154   7.062  24.004   6.237  0.1297  0.3280 -0.2260
73238W        W16155   7.093  23.502   5.052  0.0318  0.0522  0.2221
73239W        W16156   5.188  22.438   3.634  0.0044  0.1607  0.3921
73240W        W16157   8.491  23.410   5.873  0.2162  0.0104 -0.3306
73241W        W16158   3.401  24.942   7.137 -0.1982 -0.0478  0.0433
73242W        W16159   3.384  24.102   5.595  0.0130  0.0184  0.1893
73243W        W16160   6.078  25.980   4.529  0.0895 -0.1558 -0.0736
73244W        W16161   8.135  24.624   3.741  0.1557 -0.1704  0.0626
73245W        W16162   7.959  24.606   4.692  0.0205  0.0584 -0.3394
73246W        W16163   5.522  22.454   5.022  0.0985  0.0817 -0.0438
73247W        W16164   3.551  24.644   7.534 -0.1609  0.1936 -0.0980
73248W        W16165   4.740  24.831   6.299  0.1721 -0.0113 -0.0242
73249W        W16166   5.220  20.759   3.934  0.0026 -0.2711  0.0869
73250W        W16167   9.010  24.357   6.934 -0.0207 -0.5443  0.0050
73251W        W16168   3.004  25.945   7.957 -0.0170 -0.1955 -0.4533
73252W        W16169   6.109  23.338   5.579  0.1804 -0.1040  0.1968
73253W        W16170   6.409  23.663   7.247  0.2898 -0.0244  0.3404
73254W        W16171   6.083  24.784   6.885 -0.0589 -0.6281 -0.1408
73255W        W16172   6.376  23.253   3.455 -0.2372 -0.2480 -0.3484
73256W        W16173   6.631  23.429   5.387 -0.0320 -0.0625  0.0341
73257W        W16174   7.123  20.812   7.383  0.3142 -0.1011  0.0399
73258W        W16175   6.070  24.278   4.192  0.4611 -0.0872  0.2639
73259W        W16176   5.826  24.381   5.453 -0.1676 -0.1012 -0.2052
73260W        W16177   7.621  25.578   7.713  0.3724  0.0170  0.0900
73261W        W16178   7.504  24.230   6.327  0.0232 -0.1020  0.1412
73262W        W16179   3.904  25.268   6.264  0.1750 -0.3882  0.1837
73263W        W16180   5.098  22.768   6.368 -0.1139 -0.1620 -0.2105
73264W        W16181   4.407  24.427   7.730 -0.0857  0.1057 -0.1729
73265W        W16182   6.161  24.642   4.946  0.1002  0.0344  0.2597
73266W        W16183   2.935  24.790   4.665  0.0008  0.3156 -0.0416
73267W        W16184   5.545  25.466   2.892 -0.0596  0.1289 -0.2775
73268W        W16185   5.185  23.670   7.817 -0.0530 -0.1406  0.0460
73269W        W16186   5.636  27.437   4.353 -0.1426  0.0209 -0.0677
73270W        W16187   4.559  22.433   4.928  0.1071  0.1153 -0.1202
73271W        W16188   5.640  22.653   6.609 -0.1153 -0.0984 -0.0975
73272W        W16189   7.029  21.265   5.630 -0.3231 -0.0683 -0.1116
73273W        W16190   4.162  25.603   6.567 -0.0764  0.0995  0.2250
73274W        W16191   6.852  26.387   4.684 -0.1164  0.0646 -0.1891
73275W        W16192   7.533  22.028   3.927 -0.1308  0.0183  0.0277
73276W        W16193   6.381  26.615   4.462 -0.1532  0.0527  0.0607
73277W        W16194   5.220  24.592   5.935  0.2204  0.0886 -0.0610
73278W        W16195   3.986  22.815   4.168 -0.0972 -0.0516 -0.0556
73279W        W16196   5.051  21.158   7.075 -0.2519  0.2550  0.2797
73280W        W16197   3.267  23.184   5.466  0.2815 -0.0723 -0.0264
73281W        W16198   8.856  21.408   7.326 -0.1709  0.0588  0.1026
73282W        W16199   3.486  21.382   5.266  0.1862 -0.3151  0.2926
73283W        W16200   7.772  22.784   4.006 -0.1434  0.0955  0.1103
73284W        W16201   5.376  22.931   4.895 -0.1577 -0.2677 -0.2636
73285W        W16202   5.104  21.872   4.302 -0.2221  0.0630  0.0123
73286W        W16203   7.347  22.258   7.193 -0.0992  0.0615 -0.1550
73287W        W16204   5.968  25.174   5.105  0.0635 -0.1720  0.0466
73288W        W16205   9.009  24.676   7.321  0.1458 -0.0962 -0.0677
73289W        W16206   5.200  25.639   4.741  0.0318 -0.3553 -0.2830
73290W        W16207   6.095  22.665   6.303 -0.1878 -0.0723  0.0386
73291W        W16208   5.817  23.762   4.876  0.0831 -0.2900  0.1105
73292W        W16209   3.858  25.669   5.604  0.0538 -0.0914 -0.2172
73293W        W16210   4.951  24.466   5.498  0.0887  0.2047 -0.0739
73294W        W16211   3.889  23.035   2.909  0.2451 -0.0110  0.0071
73295W        W16212   5.194  25.628   5.827 -0.1417  0.4947  0.1680
73296W        W16213   6.470  23.563   5.898  0.0729 -0.0567 -0.1502
73297W        W16214   3.081  24.513   5.694  0.1303  0.0685 -0.1385
73298W        W16215   6.201  20.828   6.102 -0.0935  0.0058 -0.1506
73299W        W16216   8.562  24.369   6.082  0.1368  0.1437  0.1120
73300W        W16217   4.477  24.832   4.496  0.2403 -0.1715  0.1850
73301W        W16218   3.003  22.217   3.346  0.0064  0.1993  0.1676
73302W        W16219   6.322  26.173   7.470  0.3941  0.1672 -0.0313
73303W        W16220   3.246  24.739   2.655 -0.0201 -0.2555  0.3358
73304W        W16221   4.708  23.150   3.184  0.1763 -0.1402  0.0466
73305W        W16222   5.333  24.756   5.386 -0.1862 -0.2447 -0.0751
73306W        W16223   7.953  22.813   5.107 -0.1448  0.0598 -0.0606
73307W        W16224   3.641  24.938   5.603 -0.4034  0.0800 -0.1656
73308W        W16225   7.463  21.542   7.936 -0.0692  0.1409 -0.0737
73309W        W16226   4.064  22.485   3.044  0.1912 -0.0318  0.0678
73310W        W16227   4.773  24.929   7.126  0.1571  0.1667 -0.0507
73311W        W16228   8.066  19.882   4.329 -0.1405  0.3873  0.1093
73312W        W16229   7.626  22.625   4.617 -0.1419 -0.3675  0.1312
73313W        W16230   7.516  22.493   8.179  0.0911 -0.1602  0.0009
73314W        W16231   5.410  23.534   5.093 -0.1462  0.0716  0.4156
73315W        W16232   7.151  22.730   2.567  0.0945 -0.1201  0.0345
73316W        W16233   6.702  23.723   6.474  0.0170 -0.2115 -0.2559
73317W        W16234   3.071  24.608   7.510 -0.1866  0.0978 -0.1444
73318W        W16235   5.950  25.256   3.802  0.3769 -0.1455 -0.3086
73319W        W16236   7.743  23.938   5.923 -0.2019 -0.1522 -0.1385
73320W        W16237   5.834  21.693   3.042  0.4840 -0.4339  0.2302
73321W        W16238   6.903  25.545   3.918  0.2125 -0.1535 -0.2149
73322W        W16239   5.639  25.389   5.405 -0.2292  0.2699 -0.1616
73323W        W16240   6.140  25.594   8.117  0.1846  0.1408 -0.0435
73324W        W16241   5.711  24.563   5.965  0.1481 -0.0309 -0.4310
73325W        W16242   5.604  21.624   6.617 -0.2501  0.4312 -0.0202
73326W        W16243   5.355  23.956   4.850  0.0567  0.0194  0.1448
73327W        W16244   7.082  21.152   4.461 -0.1908 -0.2258 -0.2265
73328W        W16245   4.506  26.174   4.628  0.0569  0.0922  0.2536
73329W        W16246   5.266  20.751   6.815  0.1232 -0.0839  0.0557
73330W        W16247   5.965  22.692   5.019  0.4529  0.1388  0.1443
73331W        W16248   5.432  22.744   5.963  0.1077 -0.0684 -0.2600
73332W        W16249   6.109  24.198   5.877 -0.3489  0.1302 -0.4905
73333W        W16250   6.307  22.958   5.352 -0.0207  0.1930  0.0011
73334W        W16251   6.324  23.116   4.910  0.5049 -0.0199  0.0235
73335W        W16252   6.209  21.468   5.105 -0.0869 -0.0595 -0.2191
73336W        W16253   6.179  21.473   6.289 -0.0998  0.1581  0.0448
73337W        W16254   5.405  25.066   5.808 -0.0262 -0.1308  0.2633
73338W        W16255   5.728  26.853   6.002  0.0076  0.0084 -0.1001
73339W        W16256   6.108  26.304   6.849  0.1264 -0.0729 -0.2241
73340W        W16257   5.326  24.916   6.362 -0.0490 -0.0508 -0.1386
73341W        W16258   6.090  22.746   6.866  0.0227 -0.2629  0.0135
73342W        W16259   7.268  23.203   3.107 -0.1247 -0.1069  0.1226
73343W        W16260   4.603  25.183   5.378 -0.2466  0.0609  0.0252
73344W        W16261   4.494  22.176   3.045  0.3042 -0.1877  0.0267
73345W        W16262   6.324  23.415   3.989  0.0805 -0.3165 -0.0504
73346W        W16263   5.747  24.766   7.351  0.6893  0.2410  0.1750
73347W        W16264   5.478  23.626   3.549 -0.2857 -0.1376 -0.0370
73348W        W16265   6.334  24.918   6.458 -0.0869  0.0467  0.0105
73349W        W16266   4.131  26.042   5.329 -0.0977  0.1861 -0.1940
73350W        W16267   6.029  21.839   4.871  0.0249  0.0500  0.1014
73351W        W16268   4.495  24.532   5.948  0.2878  0.0414  0.2572
73352W        W16269   6.969  22.975   5.329  0.1699  0.1359  0.0280
73353W        W16270   4.470  23.077   3.811  0.1378 -0.0466 -0.0593
73354W        W16271   7.337  22.466   4.086  0.0336  0.1405 -0.1492
73355W        W16272   6.264  22.201   5.154  0.4957  0.3412 -0.4168
73356W        W16273   5.604  23.418   5.552  0.0461  0.1353  0.1087
73357W        W16274   5.348  23.880   6.461 -0.0016  0.1314 -0.0921
73358W        W16275   5.111  25.526   6.645 -0.1190  0.0532  0.1544
73359W        W16276   5.941  23.905   5.387 -0.0810  0.1017  0.3695
73360W        W16277   7.609  23.420   5.979 -0.0576  0.1951 -0.1093
73361W        W16278   6.535  25.859   5.848  0.0397  0.4478  0.1535
73362W        W16279   6.014  20.675   6.534  0.0446 -0.0412  0.1902
73363W        W16280   4.156  21.667   3.919 -0.2616  0.1731 -0.0670
73364W        W16281   7.721  21.874   7.183 -0.0559  0.0214 -0.2122
73365W        W16282   5.082  21.560   5.062  0.0071  0.3052 -0.2540
73366W        W16283   3.391  24.827   4.645  0.0339 -0.0093  0.3083
73367W        W16284   5.568  25.779   5.085  0.0422  0.0788  0.1739
73368W        W16285   5.502  21.944   4.643 -0.1966 -0.2125 -0.1290
73369W        W16286   5.352  24.477   4.738 -0.3393  0.1141  0.0473
73370W        W16287   5.036  22.574   4.989 -0.1366 -0.1037 -0.1495
73371W        W16288   6.959  25.776   6.488  0.1776  0.0068  0.3197
73372W        W16289   7.931  23.563   6.756 -0.2266 -0.0768  0.2935
73373W        W16290   3.336  20.518   4.533 -0.0225  0.2325  0.0172
73374W        W16291   5.294  22.824   7.392 -0.1374 -0.1345  0.0204
73375W        W16292   7.217  24.763   5.652 -0.0167 -0.3373 -0.0063
73376W        W16293   6.481  21.947   6.437 -0.0166 -0.2662 -0.2115
73377W        W16294   5.620  25.428   7.473 -0.0555  0.0895 -0.0590
73378W        W16295   4.689  22.192   5.683  0.3915 -0.3296  0.0979
73379W        W16296   8.896  25.514   4.073  0.1619 -0.0895  0.1387
73380W        W16297   5.494  26.293   5.395 -0.0132  0.0335  0.1448
73381W        W16298   4.873  22.819   3.689  0.2116  0.2533 -0.4358
73382W        W16299   4.582  24.700   3.305  0.0375  0.0223 -0.0321
73383W        W16300   7.298  24.177   3.897  0.2860 -0.4876 -0.3683
73384W        W16301   4.617  21.461   5.912 -0.0977  0.2657  0.0309
73385W        W16302   5.563  23.905   5.627  0.2236 -0.1843  0.0689
73386W        W16303   4.810  24.464   4.119  0.3013 -0.0668 -0.0547
73387W        W16304   4.864  26.504   5.946 -0.0915 -0.0472  0.1224
73388W        W16305   9.215  21.037   4.480  0.3373 -0.0216  0.1161
73389W        W16306   6.399  25.356   2.467  0.4325  0.0296 -0.0588
73390W        W16307   5.304  21.847   5.357  0.0054  0.1942 -0.1119
73391W        W16308   7.182  24.190   7.167 -0.0199  0.2529 -0.2094
73392W        W16309   5.952  25.348   5.974  0.2837 -0.1229 -0.0175
73393W        W16310   7.758  21.901   8.961  0.0346  0.0022  0.1905
73394W        W16311   5.243  22.624   5.498  0.1970  0.0402  0.2498
73395W        W16312   7.063  24.612   5.191 -0.2693  0.1183 -0.0796
73396W        W16313   2.845  23.146   6.852 -0.1817 -0.1099  0.1281
73397W        W16314   6.055  24.455   7.537 -0.3319 -0.0097  0.1268
73398W        W16315   4.965  24.014   8.358 -0.0291 -0.1972  0.2800
73399W        W16316   4.892  26.002   4.984  0.0459 -0.0803 -0.2584
73400W        W16317   4.294  22.599   4.550  0.7398  0.1378 -0.2159
73401W        W16318   7.376  23.008   6.165  0.2427  0.0639  0.2743
73402W        W16319   6.643  24.734   4.859  0.2251  0.0340  0.0012
73403W        W16320   5.026  25.072   6.743  0.1211 -0.1363  0.2225
73404W        W16321   6.246  23.087   6.043  0.0888 -0.0960 -0.3324
73405W        W16322   3.727  25.631   7.428 -0.0336 -0.0473  0.1978
73406W        W16323  10.458  23.845   6.063  0.3016 -0.2063 -0.1618
73407W        W16324   7.178  24.194   4.794 -0.3499  0.0571  0.2066
73408W        W16325   4.855  23.133   4.142 -0.0067 -0.0227  0.3570
73409W        W16326   4.982  22.260   6.525 -0.2293  0.1197 -0.0845
73410W        W16327   5.384  24.281   5.231 -0.2633 -0.0648  0.0430
73411W        W16328   6.874  23.210   3.632 -0.1271 -0.0744 -0.0179
73412W        W16329   6.480  22.818   7.430  0.0299  0.0726  0.3737
73413W        W16330   5.797  24.381   7.021 -0.2573 -0.0157 -0.3414
73414W        W16331   4.974  23.433   4.570 -0.1083 -0.0243 -0.1623
73415W        W16332   2.695  22.137   7.087 -0.0735  0.1001 -0.0004
73416W        W16333   6.184  28.250   8.415 -0.0000  0.0733  0.0164
73417W        W16334   7.631  23.270   4.333  0.4823  0.1389  0.3902
73418W        W16335   6.453  22.018   4.099  0.0774  0.0700 -0.2177
73419W        W16336   6.931  23.860   5.391 -0.2791 -0.2255  0.0090
73420W        W16337   7.459  22.645   5.433 -0.2477  0.0153 -0.1956
73421W        W16338   4.203  23.139   5.607  0.1464  0.4075  0.2172
73422W        W16339   6.784  23.583   8.677  0.1091  0.0130 -0.2898
73423W        W16340   4.273  22.437   5.402  0.1605  0.1434  0.0544
73424W        W16341   8.010  22.882   6.558 -0.2577  0.1502  0.5881
73425W        W16342   7.499  26.316   3.975  0.1234 -0.0548 -0.0485
73426W        W16343   4.907  24.853   5.105 -0.2451 -0.1156  0.0551
73427W        W16344   6.630  22.074   5.604  0.0119 -0.0714 -0.1174
73428W        W16345   3.849  23.363   6.750  0.0840  0.3046  0.0183
73429W        W16346   5.189  25.811   5.371 -0.0148  0.0330  0.0875
73430W        W16347   3.688  23.131   2.380 -0.2706  0.1309  0.0276
73431W        W16348   6.370  22.153   4.576 -0.0116 -0.1449  0.1171
73432W        W16349   4.684  24.021   3.933  0.0586 -0.0389 -0.1042
73433W        W16350   6.337  25.710   6.277 -0.2162  0.0066  0.1216
73434W        W16351   5.605  20.672   4.273  0.1772  0.0397  0.1835
73435W        W16352   6.248  24.060   6.381  0.1579 -0.3878 -0.1033
73436W        W16353   3.151  23.142   3.939 -0.1065 -0.1476  0.0183
73437W        W16354   3.904  23.301   5.953  0.0354  0.1297  0.0196
73438W        W16355   4.497  24.195   4.374 -0.1414  0.1631 -0.1775
73439W        W16356   3.388  24.604   6.695 -0.2196  0.0429 -0.2237
73440W        W16357   4.571  26.752   5.458 -0.0841 -0.1140 -0.2794
73441W        W16358   5.786  21.803   5.939 -0.0472 -0.2433 -0.1779
73442W        W16359   6.804  24.898   6.233 -0.3200 -0.3098  0.0951
73443W        W16360   3.857  24.703   7.067  0.0999 -0.0737 -0.0288
73444W        W16361   7.587  23.256   6.507  0.2141 -0.2326  0.3012
73445W        W16362   5.815  26.389   5.937 -0.2787  0.0857  0.0201
73446W        W16363   4.688  23.474   6.422 -0.3260  0.0110 -0.1311
73447W        W16364   6.488  25.278   5.769  0.1326  0.3475 -0.1316
73448W        W16365   8.262  25.277   5.824  0.1117  0.2559 -0.1856
73449W        W16366   3.972  24.473   5.253 -0.2043 -0.2875 -0.4221
73450W        W16367   4.138  24.028   4.963  0.0717 -0.0029 -0.3688
73451W        W16368   4.888  23.063   6.689 -0.1193 -0.2043  0.1786
73452W        W16369   4.891  24.347   6.246  0.0637  0.0417  0.2866
73453W        W16370   7.101  20.779   5.934 -0.1359 -0.0660 -0.0558
73454W        W16371   5.163  23.550   3.988  0.0792 -0.4274 -0.2096
73455W        W16372   3.910  25.487   6.948 -0.1792  0.4106 -0.5176
73456W        W16373   4.825  24.592   6.771  0.1181 -0.1759 -0.2530
73457W        W16374   4.007  26.472   6.087  0.1621  0.1733 -0.1571
73458W        W16375   6.842  24.074   3.824  0.0611  0.0486 -0.2852
73459W        W16376   5.421  23.557   6.024 -0.0007  0.3227 -0.2547
73460W        W16377   6.808  26.955   8.191 -0.1868  0.1508 -0.1668
73461W        W16378   4.811  22.294   4.457 -0.2336 -0.0418  0.1166
73462W        W16379   5.015  27.076   5.638  0.2163  0.1882 -0.1656
73463W        W16380   4.884  23.508   5.099 -0.0688 -0.5687 -0.2101
73464W        W16381   6.004  25.027   4.588  0.0515  0.2095 -0.1488
73465W        W16382   4.060  23.802   3.092 -0.2234 -0.0212 -0.0462
73466W        W16383   6.601  24.035   8.438  0.1209  0.3936 -0.0644
73467W        W16384   5.323  21.454   4.540  0.0625  0.3555 -0.0681
73468W        W16385   8.070  24.877   6.203 -0.1022  0.1582 -0.1104
73469W        W16386   7.370  24.243   5.393 -0.0601  0.1413  0.2776
73470W        W16387   7.685  27.439   8.096 -0.3273  0.1270 -0.0287
73471W        W16388   5.113  24.230   6.741  0.3655 -0.1143  0.2951
73472W        W16389   5.947  22.990   3.570 -0.3176  0.2375 -0.0801
73473W        W16390   5.064  23.177   7.155 -0.1464 -0.0435 -0.2419
73474W        W16391   6.539  23.982   9.462  0.0011  0.2347 -0.2248
73475W        W16392   6.538  24.986   7.065  0.1512  0.2709  0.1480
73476W        W16393   5.509  26.985   4.508 -0.3486 -0.2850 -0.1201
73477W        W16394   5.424  23.648   4.404  0.2226 -0.1022 -0.0840
73478W        W16395   5.278  22.353   4.566  0.1572  0.2625  0.3138
73479W        W16396   6.636  21.529   6.472 -0.2773 -0.0500  0.1969
73480W        W16397   6.072  23.490   3.136  0.0072 -0.1281  0.0465
73481W        W16398   6.174  25.596   4.867 -0.2271  0.2071  0.2097
73482W        W16399   3.055  24.889   3.676 -0.0757  0.0988 -0.1309
73483W        W16400   4.492  25.236   6.220 -0.1482  0.0656 -0.2376
73484W        W16401   4.410  26.734   5.934  0.0449 -0.0710 -0.1650
73485W        W16402   4.340  22.796   3.320 -0.1483 -0.2964 -0.0840
73486W        W16403   8.045  23.342   5.080 -0.3019  0.0252 -0.0829
73487W        W16404   3.500  23.724   6.655  0.1348 -0.1674 -0.1684
73488W        W16405   6.984  21.179   7.652 -0.0035  0.0726  0.1832
73489W        W16406   3.884  22.181   4.504  0.1780 -0.0215 -0.0609
73490W        W16407   7.427  23.466   6.960 -0.1385  0.2033  0.2578
73491W        W16408   6.463  24.503   6.145  0.1603 -0.1350 -0.2163
73492W        W16409   5.935  23.607   7.310 -0.2621  0.0502  0.0869
73493W        W16410   7.161  24.225   3.042 -0.0217 -0.0448 -0.1386
73494W        W16411   5.604  25.895   6.229 -0.2523 -0.0015 -0.0665
73495W        W16412   6.592  24.192   4.595  0.3619  0.0204 -0.0464
73496W        W16413   5.462  24.413   7.678  0.1166  0.0483  0.0645
73497W        W16414   4.087  22.191   4.978  0.2194 -0.2355  0.1890
73498W        W16415   6.598  23.724   3.575 -0.3478  0.3111  0.0378
73499W        W16416   6.873  22.638   3.502  0.0181 -0.1869  0.1812
73500W        W16417   5.818  24.091   6.659 -0.0295 -0.4022 -0.2348
73501W        W16418   9.173  25.869   8.624  0.1850  0.1120  0.1105
73502W        W16419   2.584  20.306   4.090 -0.2674 -0.3057 -0.0420
73503W        W16420   6.996  25.047   4.783 -0.0094  0.2095 -0.0724
73504W        W16421   6.986  24.438   6.058 -0.2457  0.1631 -0.3264
73505W        W16422   4.098  24.643   3.550 -0.0873 -0.1256  0.2206
73506W        W16423   6.167  23.789   6.829 -0.2146 -0.1481  0.0592
73507W        W16424   5.564  22.287   5.625 -0.0511 -0.3744  0.0419
73508W        W16425   4.627  23.715   5.607 -0.0201  0.0484 -0.0221
73509W        W16426   7.113  25.796   8.574 -0.1602  0.1545 -0.2088
73510W        W16427   7.698  24.895   4.364 -0.0631 -0.2366 -0.2369
73511W        W16428   5.844  22.310   4.689 -0.1734  0.1731 -0.1717
73512W        W16429   6.277  21.858   5.941  0.0048 -0.1784  0.1097
73513W        W16430   3.637  25.322   5.862 -0.0445  0.0037  0.3082
73514W        W16431   7.072  22.678   5.768  0.0896 -0.1271  0.0352
73515W        W16432   6.891  22.056   7.326  0.0202  0.0933 -0.1241
73516W        W16433   4.036  24.984   4.737  0.3832 -0.2307 -0.4483
73517W        W16434   6.291  22.402   7.172  0.3092 -0.0965  0.0326
73518W        W16435   8.292  26.100   7.880 -0.0861  0.1100 -0.0590
73519W        W16436   4.896  26.218   7.497  0.3255  0.1925  0.1523
73520W        W16437   3.708  23.184   1.790  0.1860  0.1159 -0.1453
73521W        W16438   7.224  22.527   7.560 -0.3192 -0.2485 -0.1902
73522W        W16439   5.662  22.940   5.416 -0.3529 -0.2070  0.3206
73523W        W16440   4.977  25.019   4.068  0.2155 -0.1005  0.0604
73524W        W16441   7.531  25.555   6.135 -0.0450 -0.1973 -0.0787
73525W        W16442   5.175  22.648   4.096 -0.1357 -0.1957 -0.0065
73526W        W16443   5.843  24.997   6.421 -0.0103 -0.0792  0.0355
73527W        W16444   6.062  20.867   3.228 -0.1240  0.0784 -0.1828
73528W        W16445   7.178  23.181   5.731  0.0539 -0.0128 -0.1532
73529W        W16446   5.498  22.161   4.108  0.0688 -0.1573  0.1695
73530W        W16447   4.610  25.919   5.440  0.0008 -0.0630 -0.2614
73531W        W16448   4.439  23.604   0.621 -0.3581  0.3075 -0.0848
73532W        W16449   5.690  24.725   5.079 -0.2672  0.0659 -0.0167
73533W        W16450   3.621  23.198   4.241  0.1149  0.0361 -0.2900
73534W        W16451   5.074  22.349   5.987 -0.0810  0.2292  0.1444
73535W        W16452   5.493  23.139   6.336  0.1382 -0.1525  0.1484
73536W        W16453   4.574  23.977   6.516  0.0079  0.2750  0.3595
73537W        W16454   4.390  22.199   4.127  0.1020 -0.1872  0.2020
73538W        W16455   5.903  23.246   4.553  0.2840 -0.1247  0.1446
73539W        W16456   4.586  22.703   4.103  0.1123  0.0037  0.3695
73540W        W16457   4.564  23.558   4.365 -0.2405 -0.0539 -0.0542
73541W        W16458   6.532  23.845   4.235  0.1490 -0.1096  0.0280
73542W        W16459   6.806  25.020   3.574 -0.1733  0.0401 -0.2374
73543W        W16460   8.108  23.454   4.606 -0.1280  0.1946  0.2036
73544W        W16461   6.664  24.670  10.081  0.1072  0.2133  0.0939
73545W        W16462   5.793  24.585   4.503 -0.3675  0.0109  0.0192
73546W        W16463   5.455  22.099   6.698 -0.3214 -0.2537 -0.0333
73547W        W16464   4.213  24.301   6.956 -0.2071  0.2178 -0.0844
73548W        W16465   2.995  22.876   2.865 -0.1286 -0.1975 -0.0028
73549W        W16466   6.940  23.422   6.801 -0.1310 -0.2753 -0.0642
73550W        W16467   5.624  23.628   6.907  0.4490 -0.0967 -0.0124
73551W        W16468   4.403  24.444   6.447 -0.0630 -0.4691  0.1294
73552W        W16469   5.562  25.059   8.294  0.0688 -0.0998  0.4257
73553W        W16470   5.106  25.329   7.582 -0.1861  0.0273  0.2099
73554W        W16471   5.319  24.930   4.412  0.0677  0.1129 -0.2103
73555W        W16472   6.787  23.219   4.787 -0.2416 -0.1785 -0.2029
73556W        W16473   5.525  25.212   6.767 -0.1394 -0.0609 -0.1355
73557W        W16474   5.808  24.890   5.525 -0.1977  0.2115 -0.5024
73558W        W16475   7.056  21.743   5.401 -0.1457  0.0545  0.1954
73559W        W16476   6.898  22.292   4.321  0.1623  0.0736  0.0496
73560W        W16477   3.723  22.554   6.829 -0.1822 -0.0069  0.1396
73561W        W16478   4.762  24.405   7.369 -0.4460 -0.2789 -0.0333
73562W        W16479   9.112  25.367   7.090  0.1944 -0.0305 -0.0259
73563W        W16480   3.821  20.737   4.767 -0.2056  0.2872 -0.0648
73564W        W16481   6.713  22.722   4.561  0.2611 -0.0122  0.1415
73565W        W16482   7.001  24.623   4.481  0.2706 -0.2645  0.2034
73566W        W16483   4.942  24.334   4.991  0.0103 -0.1205 -0.1249
73567W        W16484   6.566  22.322   3.741 -0.0610  0.0670  0.1739
73568W        W16485   6.926  23.403   7.814 -0.0328 -0.1561  0.0000
73569W        W16486   5.323  25.043   7.212 -0.0823  0.0770  0.0002
73570W        W16487   8.290  25.083   6.568  0.1964  0.0979  0.0049
73571W        W16488   8.359  22.454   3.218 -0.0002 -0.0991  0.1686
73572W        W16489   7.707  24.077   4.578 -0.0080 -0.1257 -0.1580
73573W        W16490   7.701  25.136   6.427  0.0302 -0.1533  0.1219
73574W        W16491   6.697  23.940   7.955  0.0617 -0.1219  0.0089
73575W        W16492   5.453  25.383   6.216  0.1739  0.0995  0.0138
73576W        W16493   7.490  25.286   7.348 -0.0484  0.2088  0.3364
73577W        W16494   5.849  23.244   5.073 -0.0567 -0.1259 -0.1913
73578W        W16495   4.512  21.880   3.657 -0.0749  0.1722 -0.0111
73579W        W16496   2.681  25.220   5.834  0.2134  0.1251  0.0337
73580W        W16497   6.974  23.663   7.366  0.0242  0.1837 -0.3119
73581W        W16498   3.776  25.077   6.708  0.2237 -0.2169  0.3016
73582W        W16499   6.615  22.215   3.237  0.1291 -0.1730  0.2560
73583W        W16500   5.806  25.993   8.436 -0.2412  0.0041  0.2033
73584W        W16501   5.592  24.725   6.752 -0.1623  0.3000 -0.4511
73585W        W16502   5.577  21.880   9.431 -0.0150 -0.1721  0.1229
73586W        W16503   3.972  21.472   8.052  0.2792  0.0372 -0.0904
73587W        W16504   6.848  22.539   7.154  0.1495  0.4627 -0.0093
73588W        W16505   3.661  24.180   6.838  0.0417  0.1263 -0.2184
73589W        W16506   5.466  23.352   8.127 -0.1151 -0.0479  0.0765
73590W        W16507   6.014  25.985   6.486  0.3938 -0.0590 -0.2359
73591W        W16508   7.315  23.804   8.748  0.0979  0.0257 -0.3800
73592W        W16509   7.501  30.646  11.342  0.0087  0.1817  0.0297
73593W        W16510   6.219  23.850   8.047 -0.1827  0.0118 -0.3371
73594W        W16511   5.023  23.443   8.792  0.3509 -0.4025 -0.1537
73595W        W16512   6.019  21.782   9.092  0.2367  0.2158 -0.0100
73596W        W16513   5.214  22.463   8.980 -0.0765 -0.2069 -0.0788
73597W        W16514   5.483  25.513   8.857 -0.1809  0.2390 -0.3964
73598W        W16515   3.414  23.860   7.268  0.0574  0.1253  0.0853
73599W        W16516   3.205  22.897   7.147  0.0074  0.2093 -0.0295
73600W        W16517   6.425  23.474   9.100 -0.1132 -0.0622  0.2151
73601W        W16518   5.672  26.180   9.412  0.3309 -0.0404 -0.3108
73602W        W16519   4.711  24.845   8.715 -0.0937 -0.0259  0.0209
73603W        W16520   6.211  26.478   9.436  0.0375 -0.2446  0.0032
73604W        W16521   3.664  23.329   8.043  0.1854  0.2549  0.0090
73605W        W16522   3.084  23.439   8.741 -0.0968  0.1244  0.0135
73606W        W16523   2.282  26.217   8.680  0.3051  0.1082 -0.1399
73607W        W16524   7.244  21.258   9.450  0.1697 -0.1673  0.0794
73608W        W16525   7.207  24.742   8.995  0.1311 -0.1135  0.0448
73609W        W16526   5.064  25.199   9.039 -0.1146  0.0683 -0.0319
73610W        W16527   4.248  23.527   8.930 -0.2777 -0.4956 -0.2560
73611W        W16528   4.482  24.199   8.245  0.3208 -0.2451 -0.2995
73612W        W16529   5.026  25.737   8.966  0.2009  0.0158  0.2384
73613W        W16530   6.050  25.564   8.703 -0.0637 -0.0241  0.1008
73614W        W16531   6.486  24.365   7.767 -0.4174 -0.0471  0.0550
73615W        W16532   2.809  24.277   7.277 -0.1245 -0.2001  0.1433
73616W        W16533   6.952  26.784   8.959 -0.1652 -0.1591 -0.4172
73617W        W16534   5.122  23.961   8.904 -0.1032  0.2202  0.0768
73618W        W16535   4.593  23.845   8.671  0.1570  0.1382  0.1684
73619W        W16536   5.232  25.065   9.709  0.4556  0.0559 -0.3567
73620W        W16537   3.887  24.301   7.904  0.5193 -0.3342 -0.0955
73621W        W16538   4.878  23.526   7.523  0.2533  0.1334 -0.3633
73622W        W16539   6.962  22.939   7.545  0.1400 -0.0414  0.2628
73623W        W16540   5.770  23.922   8.401 -0.0742 -0.1097  0.3398
73624W        W16541   6.473  18.513   9.741  0.2466  0.1127 -0.0387
73625W        W16542   3.935  21.645   9.382  0.0351  0.0042  0.0544
73626W        W16543   5.302  24.337   9.145 -0.1413  0.0578 -0.0053
73627W        W16544   8.108  24.903   8.514  0.1329  0.3840 -0.0549
73628W        W16545   4.561  22.739   9.292  0.1578 -0.0099  0.1050
73629W        W16546   8.400  22.153   9.314 -0.1351 -0.3539 -0.0007
73630W        W16547   6.265  28.107  10.735 -0.0854  0.0979 -0.0148
73631W        W16548   5.502  23.646   9.848  0.1136  0.2148 -0.2747
73632W        W16549   8.701  26.489   8.143 -0.1981 -0.1483 -0.3303
73633W        W16550   7.491  25.290   8.625  0.0756 -0.1749  0.1262
73634W        W16551   6.620  24.546   8.415 -0.0005  0.1251  0.0501
73635W        W16552   5.330  24.620   8.159 -0.0640  0.1054  0.0781
73636W        W16553   5.275  19.309   7.293 -0.2392  0.2931  0.0458
73637W        W16554   6.506  24.055   8.955 -0.1897 -0.1863  0.3545
73638W        W16555   7.799  23.948   8.876 -0.2921  0.0366 -0.1125
73639W        W16556   6.635  26.351  10.946 -0.2331  0.2228  0.0258
73640W        W16557   6.766  24.488   7.160 -0.1872  0.0828 -0.0688
73641W        W16558   5.673  20.647   7.770 -0.1611  0.3849 -0.0288
73642W        W16559   4.540  25.547   9.155 -0.2982  0.0371  0.1690
73643W        W16560   5.586  23.060   7.711 -0.0502 -0.1814  0.0139
73644W        W16561   4.019  24.328   7.394  0.4506 -0.0621  0.2149
73645W        W16562   4.425  27.303   9.951  0.0640 -0.0526 -0.1610
73646W        W16563   7.429  23.874   5.068 -0.0472 -0.0227 -0.1307
73647W        W16564   5.043  24.720   9.066  0.2139  0.3221  0.0087
73648W        W16565   3.727  25.197   7.795 -0.0273  0.1384 -0.0797
73649W        W16566   4.748  24.244   9.068  0.0788  0.0328 -0.0101
73650W        W16567   3.517  24.127   7.634 -0.1889  0.0464  0.2144
73651W        W16568   6.039  24.428  10.101  0.3601  0.1655  0.1061
73652W        W16569   4.814  21.852   9.651 -0.1719  0.1563 -0.1580
73653W        W16570   6.592  22.851   9.827  0.1697  0.0807  0.0834
73654W        W16571   9.548  23.399   9.113 -0.0101 -0.0911  0.2285
73655W        W16572   6.302  24.559   9.115 -0.1681  0.1596  0.0114
73656W        W16573   7.391  25.984   7.510 -0.0109 -0.0989 -0.2291
73657W        W16574   7.737  23.477   8.639  0.1216  0.0980  0.0380
73658W        W16575   7.827  24.950   5.714 -0.1335  0.0117 -0.3344
73659W        W16576   4.418  24.346   9.861 -0.2951 -0.2133  0.0768
73660W        W16577   3.720  22.936   7.160 -0.0578 -0.1883  0.1313
73661W        W16578   4.716  24.592   9.444  0.1890  0.1124  0.0369
73662W        W16579   3.714  20.328   8.556 -0.0489  0.0809 -0.1928
73663W        W16580  11.662  24.284  11.120  0.2007  0.0582  0.2529
73664W        W16581   4.190  24.997   8.740 -0.0373  0.3161 -0.0240
73665W        W16582   3.230  25.062   7.635 -0.3159  0.3317  0.0273
73666W        W16583   7.017  24.896   9.645 -0.0029  0.3019 -0.1337
73667W        W16584   6.464  25.033   9.671 -0.0056 -0.0285 -0.1256
73668W        W16585   5.742  25.249   9.613 -0.2430 -0.0363  0.0036
73669W        W16586   8.524  19.791   9.644  0.4629  0.0562  0.1603
73670W        W16587   4.257  21.679   7.552 -0.0382 -0.0728 -0.0176
73671W        W16588   3.216  24.120   8.741 -0.0268  0.0972 -0.1987
73672W        W16589   4.672  22.779   8.769  0.1975 -0.2025  0.2115
73673W        W16590   6.575  23.545   8.183  0.4661  0.0568 -0.4287
73674W        W16591   7.871  26.988  11.039  0.2075 -0.2469 -0.1088
73675W        W16592   6.170  23.952   7.565 -0.3285 -0.0431  0.2307
73676W        W16593  10.728  23.241   9.929 -0.0720 -0.1886  0.2415
73677W        W16594   6.477  21.890   8.892  0.1635  0.3816 -0.2081
73678W        W16595   4.451  23.436   5.942  0.4255  0.0561 -0.0224
73679W        W16596   8.321  25.321   8.104 -0.0490 -0.0101 -0.1799
73680W        W16597   4.844  25.969   5.870  0.1596 -0.1532  0.0050
73681W        W16598   3.353  23.225   7.615 -0.2199  0.4499  0.1134
73682W        W16599   6.793  25.910  10.123  0.1472 -0.2550 -0.1499
73683W        W16600   6.529  26.578  11.551  0.0114  0.1232  0.0111
73684W        W16601   4.571  21.396   7.235 -0.1408  0.2140 -0.2831
73685W        W16602   6.547  22.957   7.951  0.1453 -0.2666 -0.1411
73686W        W16603   7.916  22.480   7.882 -0.0078  0.0287  0.0662
73687W        W16604   5.681  25.550   8.352  0.0599 -0.1425 -0.0471
73688W        W16605   6.111  21.518   7.819 -0.0460 -0.0701  0.1089
73689W        W16606   5.071  22.124   7.066  0.1471  0.1274 -0.4339
73690W        W16607   5.099  26.339   8.942 -0.0690 -0.1401 -0.0433
73691W        W16608   5.076  25.043   8.092 -0.0150  0.3267  0.0383
73692W        W16609   3.963  21.167   7.354 -0.0878  0.1711  0.2388
73693W        W16610   5.892  25.484   6.464 -0.1304 -0.1603 -0.0483
73694W        W16611   3.546  25.000   8.584  0.2877  0.0957  0.2218
73695W        W16612   7.325  26.780   9.372  0.2075  0.0763 -0.1128
73696W        W16613  11.165  21.968   8.724 -0.0729  0.0513  0.1385
73697W        W16614   5.303  23.087   8.559  0.1994 -0.0572  0.0884
73698W        W16615   5.741  24.609   8.422  0.2657  0.1594  0.0927
73699W        W16616   5.198  24.560   7.221  0.0218  0.1822  0.0352
73700W        W16617   7.195  22.998   9.371  0.0875  0.0315 -0.0960
73701W        W16618   8.371  22.617   9.468 -0.0884 -0.1980  0.0006
73702W        W16619   5.235  23.955   9.430 -0.0061 -0.2285  0.0458
73703W        W16620   9.098  23.275   9.465  0.1979  0.3140  0.0444
73704W        W16621   5.841  22.775   7.363  0.2084  0.0011  0.2015
73705W        W16622   5.679  19.689   8.513  0.2062 -0.0394 -0.0468
73706W        W16623   5.250  27.674   9.959  0.0313  0.3003 -0.0220
73707W        W16624   5.825  22.060   7.859 -0.2899 -0.0597 -0.2769
73708W        W16625   5.557  21.885   7.129  0.0180  0.0744 -0.1020
73709W        W16626   6.596  25.984   8.227 -0.2133  0.2605  0.3242
73710W        W16627   5.344  23.560   7.374  0.0605  0.2654 -0.0458
73711W        W16628   4.475  22.109   7.963  0.2665 -0.2736 -0.2285
73712W        W16629   4.753  25.975   9.702 -0.1279 -0.2655 -0.1623
73713W        W16630   7.288  22.869   8.506  0.0196 -0.3576 -0.1967
73714W        W16631   7.084  26.431   8.210 -0.1672 -0.0378 -0.0751
73715W        W16632   4.818  24.605   8.222  0.0318  0.4963  0.0729
73716W        W16633   7.576  24.840   9.730  0.3145 -0.1998 -0.0790
73717W        W16634   4.656  25.337   8.692 -0.2715  0.1009 -0.0745
73718W        W16635   5.295  25.809   8.521 -0.3457  0.2159 -0.2657
73719W        W16636   3.079  24.153   7.767  0.1152 -0.0072  0.0189
73720W        W16637   7.486  24.277   8.504  0.2027  0.2146 -0.0352
73721W        W16638   4.918  24.309   7.796 -0.1054 -0.3725 -0.2438
73722W        W16639   7.133  22.996   7.118  0.0233 -0.2908 -0.3788
73723W        W16640   4.687  22.478   8.362 -0.0675  0.0620 -0.1655
73724W        W16641   5.016  23.437  12.767  0.2602 -0.1089 -0.2440
73725W        W16642   8.264  21.741   9.075 -0.0375 -0.1011  0.1060
73726W        W16643   3.528  24.144   6.331  0.1419 -0.1546  0.2816
73727W        W16644   4.772  22.307   9.437  0.0145 -0.1400  0.0643
73728W        W16645   5.112  22.608   8.542  0.1898  0.2458 -0.1165
73729W        W16646   6.929  27.080   9.465  0.0784  0.1772  0.1160
73730W        W16647   6.863  23.187   9.086 -0.0448 -0.1219  0.2501
73731W        W16648   4.652  24.106   6.998  0.3373  0.2138  0.0577
73732W        W16649   2.450  25.670   8.537  0.0324 -0.0429 -0.1410
73733W        W16650   7.554  25.738   9.923 -0.2746 -0.1110 -0.2782
73734W        W16651   2.799  23.145   7.860  0.1777  0.0766  0.0921
73735W        W16652   4.509  22.143   6.658 -0.0062  0.0362  0.0317
73736W        W16653   5.730  23.126   9.498  0.1517 -0.2020 -0.1826
73737W        W16654   6.527  21.539   9.361  0.0183 -0.1823  0.1033
73738W        W16655   4.104  22.682   7.934  0.0520  0.0017 -0.0483
73739W        W16656   8.277  22.734   8.883  0.2085  0.1009  0.2260
73740W        W16657   6.957  28.857   9.884  0.1633 -0.1300  0.1289
73741W        W16658   4.861  25.678   8.349 -0.0535 -0.2116 -0.0986
73742W        W16659   4.375  22.009   9.335 -0.1830 -0.1010 -0.0678
73743W        W16660   7.028  23.812   9.656 -0.0793 -0.2861  0.2616
73744W        W16661   5.953  22.479   8.238  0.0279  0.1331  0.0176
73745W        W16662   6.148  23.964   9.809  0.0143  0.0621 -0.0615
73746W        W16663   6.494  26.387   9.008 -0.0114 -0.0199 -0.3572
73747W        W16664   3.699  22.380   9.245  0.1534 -0.0015  0.3471
73748W        W16665   7.364  20.429   8.068 -0.0582  0.2056 -0.0584
73749W        W16666   5.825  24.723   7.876 -0.1494 -0.0391 -0.0640
73750W        W16667   6.571  21.593   7.348 -0.0280 -0.2058 -0.1475
73751W        W16668   5.661  23.221   7.203 -0.1450 -0.1240  0.5702
73752W        W16669   6.246  22.191   9.270 -0.2217  0.0206  0.1205
73753W        W16670   7.000  26.300   8.702  0.2754  0.0375  0.1995
73754W        W16671   5.788  23.423   8.557  0.2601 -0.3387 -0.0184
73755W        W16672   5.941  21.141   8.450  0.1724 -0.0247  0.0987
73756W        W16673   5.080  22.927   9.088 -0.0336  0.0541  0.0543
73757W        W16674   8.682  24.999   8.262  0.2433  0.0960  0.0735
73758W        W16675   4.960  23.499   8.292  0.1988 -0.2428  0.2699
73759W        W16676   7.510  22.884   7.799  0.1391  0.0370 -0.1926
73760W        W16677   5.782  25.926  10.277  0.3019 -0.3284 -0.0234
73761W        W16678   7.016  22.808   8.052  0.2263  0.0445 -0.1400
73762W        W16679   4.865  26.005   7.918 -0.1469 -0.1721 -0.3398
73763W        W16680   3.860  24.599   8.807 -0.2462  0.1942 -0.0740
73764W        W16681   6.702  26.041   9.539  0.1563 -0.1239 -0.0319
73765W        W16682   7.250  23.294   8.178  0.0939 -0.1921 -0.0578
73766W        W16683   6.862  25.504  10.764  0.2529 -0.1410  0.1655
73767W        W16684   6.800  23.893   6.960  0.1442 -0.1199  0.2343
73768W        W16685   7.620  23.692   9.814 -0.0757  0.1030  0.0532
73769W        W16686   8.113  23.126   8.527  0.0562  0.0630  0.1179
73770W        W16687   6.799  23.185   8.406  0.0375 -0.1988  0.0807
73771W        W16688   2.883  22.067   8.884  0.2941 -0.1397 -0.3269
73772W        W16689   5.987  23.302   8.101 -0.0287  0.1120  0.0787
73773W        W16690   6.508  26.013   6.622  0.1421 -0.2501 -0.0781
73774W        W16691   6.350  27.664   9.323 -0.2357  0.1501 -0.2263
73775W        W16692   7.360  23.689   7.851  0.2994 -0.2008 -0.0377
73776W        W16693   2.035  23.615   6.745 -0.1231 -0.0508 -0.4590
73777W        W16694   2.926  24.766   7.981 -0.2239  0.0302 -0.1298
73778W        W16695   6.110  23.786   9.343 -0.1341  0.1871  0.1858
73779W        W16696   8.078  24.524   9.839  0.3074  0.1398 -0.1951
73780W        W16697   5.803  22.277   7.383 -0.0313  0.0905 -0.0465
73781W        W16698   4.065  23.303   8.349  0.2624  0.1426 -0.0980
73782W        W16699   6.573  25.599   9.764 -0.1561  0.1658  0.0826
73783W        W16700   4.861  26.805   9.137 -0.1076  0.3147 -0.2549
73784W        W16701   5.260  23.028   9.596 -0.0758  0.0560  0.1622
73785W        W16702   6.953  25.301   9.919  0.4214  0.2247  0.0164
73786W        W16703   5.245  22.466   9.481  0.0669  0.0763 -0.1759
73787W        W16704   6.354  22.429   9.776 -0.1763 -0.0779 -0.0297
73788W        W16705   5.437  23.348   8.959 -0.2607 -0.2908  0.0967
73789W        W16706   7.222  23.298   8.739  0.1665 -0.0633  0.1308
73790W        W16707   6.638  25.040   9.197 -0.2016 -0.1376 -0.1799
73791W        W16708   6.003  24.181   8.860 -0.0825 -0.0387  0.0446
73792W        W16709   6.622  21.957   8.437  0.0154 -0.1528  0.1855
73793W        W16710   7.465  25.045   6.019 -0.4044 -0.1128 -0.1631
73794W        W16711   4.527  22.583   7.714  0.0405  0.1433 -0.0647
73795W        W16712   6.490  25.464   7.318  0.1592 -0.0837  0.0388
73796W        W16713   5.570  23.861   8.946  0.1605  0.1947  0.0853
73797W        W16714   5.427  24.068   7.068 -0.1654 -0.1923  0.0710
73798W        W16715   6.841  24.637   7.638  0.2733 -0.2184  0.0996
73799W        W16716   6.657  24.011   5.957 -0.2872  0.0252 -0.1315
73800W        W16717   3.769  25.806   8.481 -0.3329 -0.1740  0.2702
73801W        W16718   4.534  25.116   7.591 -0.0854 -0.0662 -0.1293
73802W        W16719   6.462  22.360   8.173  0.2036 -0.1418 -0.2514
73803W        W16720   5.473  25.013   9.216 -0.1195 -0.1323  0.0897
73804W        W16721   7.425  21.678   9.672 -0.2089  0.0739 -0.3120
73805W        W16722   6.134  25.422   9.847  0.2146 -0.0069 -0.0311
73806W        W16723   6.079  23.231   7.650 -0.1275 -0.1011 -0.1275
73807W        W16724   5.143  23.492   9.297  0.0590  0.0743 -0.0417
73808W        W16725   4.586  23.289   8.617 -0.0515 -0.2286 -0.1161
73809W        W16726   8.194  27.016   8.856 -0.0176 -0.3690 -0.0377
73810W        W16727   3.943  23.870   7.109 -0.0201  0.3447  0.1844
73811W        W16728   4.166  22.987   6.283  0.1120 -0.0554  0.0649
73812W        W16729  10.980  24.018  10.532  0.0231  0.1208  0.0701
73813W        W16730   5.953  22.250   6.812  0.0991 -0.0372 -0.2105
73814W        W16731   6.433  22.919   8.953  0.2084 -0.0247 -0.1080
73815W        W16732   4.981  26.673   8.420 -0.0555  0.0676 -0.1397
73816W        W16733   5.053  27.627  10.784  0.0395  0.3212  0.1712
73817W        W16734   5.843  22.538   9.538  0.0409 -0.1583 -0.3184
73818W        W16735   4.668  23.403   7.067 -0.0785  0.2694 -0.2660
73819W        W16736   7.638  25.071   9.181 -0.0155  0.1643  0.0568
73820W        W16737  10.577  24.889  10.357 -0.1387 -0.2901  0.1611
73821W        W16738   3.768  23.650   7.556 -0.1833  0.2121 -0.2136
73822W        W16739   7.409  21.990   8.107  0.0227  0.1984 -0.1967
73823W        W16740   5.216  20.839   8.586  0.0310  0.2841 -0.1666
73824W        W16741   3.662  21.565   8.985  0.0439 -0.2097 -0.0406
73825W        W16742   5.405  24.023   8.084  0.0579 -0.3678 -0.0943
73826W        W16743   6.212  23.114   7.134  0.1397 -0.0324 -0.1367
73827W        W16744   4.118  23.897   7.744  0.0442 -0.0636  0.2455
73828W        W16745   6.051  21.860   7.383 -0.0215 -0.0152 -0.1204
73829W        W16746   4.365  24.580   9.003  0.0622 -0.2391  0.0281
73830W        W16747   4.225  25.525   8.485 -0.0159  0.1493  0.2281
73831W        W16748   3.435  23.130   8.562  0.1249 -0.2230 -0.4331
73832W        W16749   5.906  24.238   7.963 -0.0924  0.0252 -0.0977
73833W        W16750   8.070  23.268  11.899  0.3557 -0.0571 -0.1915
73834W        W16751   4.448  26.181   7.205 -0.2059  0.2547  0.1590
73835W        W16752   5.767  23.626   6.444  0.1432 -0.0613 -0.0535
73836W        W16753   7.484  27.262   9.453  0.0689 -0.0273 -0.0082
73837W        W16754   6.557  24.022  10.096  0.0347 -0.0569  0.1135
73838W        W16755   8.011  21.261   8.238  0.4191  0.0496 -0.0096
73839W        W16756   6.502  24.891   8.039  0.1034  0.1449  0.1375
73840W        W16757   6.141  21.357   7.271  0.2696  0.0718 -0.1677
73841W        W16758   5.632  22.880   8.199 -0.1956 -0.0343  0.0069
73842W        W16759   4.265  25.312   8.004  0.1942  0.1310 -0.1498
73843W        W16760   7.069  22.561   9.465 -0.2312 -0.0660  0.1487
73844W        W16761   5.281  26.067   6.719 -0.1975 -0.4775 -0.2358
73845W        W16762   5.750  24.599   8.983  0.0021  0.0716  0.2926
73846W        W16763   5.394  24.255   8.584  0.2817 -0.0149  0.3086
73847W        W16764   6.982  24.166   8.737 -0.1447  0.0443  0.1174
73848W        W16765   5.311  24.802   8.675 -0.0907  0.0659  0.0952
73849W        W16766   7.747  25.463   9.525 -0.0980 -0.0297  0.1867
73850W        W16767   7.684  23.001   8.295 -0.0426 -0.2940  0.0028
73851W        W16768   6.016  27.289  10.953 -0.4190  0.3942  0.0799
73852W        W16769   5.779  21.543   8.715 -0.0694  0.3800 -0.0247
73853W        W16770   8.777  20.044   8.318 -0.0531 -0.3292  0.2847
73854W        W16771   5.107  23.127   7.738  0.0203 -0.2919  0.1558
73855W        W16772   6.707  27.638  11.568  0.0344 -0.0318 -0.0392
73856W        W16773   5.354  23.736   8.513 -0.0510  0.1372  0.0228
73857W        W16774   4.380  23.648   8.231 -0.2201  0.1331  0.0221
73858W        W16775   5.509  22.001   8.746 -0.1491 -0.1145  0.0567
73859W        W16776   4.690  25.540   7.790 -0.1182  0.0916 -0.2149
73860W        W16777   4.475  22.877   7.060 -0.1929  0.3817 -0.2030
73861W        W16778   5.749  26.079   7.442  0.1075  0.1256 -0.1183
73862W        W16779   3.132  22.802   7.671 -0.0282  0.3255  0.1951
73863W        W16780   5.484  19.734   9.005  0.1448  0.2486  0.3890
73864W        W16781   7.385  22.643   9.824  0.1045  0.0396 -0.0064
73865W        W16782   6.700  24.608   9.400 -0.3782 -0.3303  0.1016
73866W        W16783   7.047  22.723   8.907 -0.0279 -0.3233 -0.1897
73867W        W16784   4.733  23.834   7.844 -0.0839  0.0968  0.0908
73868W        W16785   5.551  21.285   8.064 -0.2494  0.1809  0.0853
73869W        W16786   6.413  23.324   9.937  0.1704 -0.0490  0.2570
73870W        W16787   6.587  26.424   8.467 -0.0389  0.0348 -0.2241
73871W        W16788   7.340  24.624   7.708  0.1692 -0.2035 -0.1595
73872W        W16789   4.201  22.564   9.037  0.0020 -0.2397 -0.2437
73873W        W16790   6.184  24.734   8.634 -0.0990  0.2099  0.1755
73874W        W16791   7.734  25.072   7.938 -0.1288 -0.3951  0.0816
73875W        W16792   5.903  27.238   9.963  0.0785 -0.1704  0.0740
73876W        W16793   6.918  23.761   9.100 -0.1007 -0.0350  0.0448
73877W        W16794   8.868  24.110   9.095 -0.0675  0.1330 -0.0930
73878W        W16795   4.065  22.238   7.537  0.0152 -0.1497 -0.1447
73879W        W16796   6.985  22.048   7.818 -0.0539  0.3481 -0.0955
73880W        W16797   7.035  25.677   7.948 -0.3271 -0.0100 -0.1123
73881W        W16798   6.025  25.114   8.344 -0.3660  0.2434  0.1879
73882W        W16799   6.440  22.005   7.659 -0.1311 -0.0579 -0.2230
73883W        W16800   8.735  23.164   7.492  0.1215 -0.0847  0.1968
73884W        W16801   3.325  24.342   7.205 -0.0130 -0.2079  0.1370
73885W        W16802   5.895  23.174   6.774 -0.3651 -0.0130  0.1066
73886W        W16803   6.294  25.191   8.902 -0.0405 -0.0729  0.3400
73887W        W16804   7.983  27.445  11.268  0.1029 -0.2820  0.2474
73888W        W16805   6.562  25.413  10.292  0.0447  0.2543  0.1108
73889W        W16806   2.412  23.585   8.030 -0.1941 -0.2629  0.0539
73890W        W16807   4.736  23.726   9.123  0.1925 -0.2118  0.0128
73891W        W16808   3.841  23.779   8.127 -0.3271  0.0273  0.0659
73892W        W16809   9.508  22.233   8.922  0.0081 -0.2704 -0.2833
73893W        W16810   4.962  22.635   6.937  0.2410 -0.0399 -0.0364
73894W        W16811   5.738  21.695   8.199  0.1041  0.1291  0.0707
73895W        W16812   5.924  26.433   8.574  0.1202  0.0920  0.1295
73896W        W16813   6.707  22.320   9.232 -0.2736  0.0241  0.0084
73897W        W16814   7.271  28.159   3.050 -0.0722  0.3691 -0.0785
73898W        W16815   5.039  25.286  30.681  0.2107  0.1018 -0.3753
73899W        W16816   8.249  25.351   0.636  0.1080 -0.1014 -0.0271
73900W        W16817   6.621  27.166   1.993  0.0474  0.0097  0.3108
73901W        W16818   5.108  28.873   1.582  0.0022  0.0534  0.1711
73902W        W16819   6.154  29.630   1.689 -0.0993 -0.0952 -0.2202
73903W        W16820   3.493  24.588   3.550 -0.1137 -0.1462  0.1834
73904W        W16821   7.717  27.748   2.107  0.0440  0.1444 -0.0966
73905W        W16822   8.515  29.824   2.209  0.1611 -0.1747  0.1156
73906W        W16823   5.858  28.187   1.774  0.1781 -0.0258 -0.1053
73907W        W16824   4.731  27.048   3.119  0.1379 -0.2547  0.0424
73908W        W16825   6.570  28.790   1.335 -0.0070 -0.3360  0.1169
73909W        W16826   5.758  26.392   0.896 -0.1476 -0.4009 -0.0632
73910W        W16827   4.806  24.659   2.225 -0.1672 -0.3015 -0.1435
73911W        W16828   6.537  27.559   1.631  0.3692 -0.0912 -0.0189
73912W        W16829   6.109  26.659  31.798  0.0783 -0.3466 -0.0233
73913W        W16830   4.323  27.002   2.642 -0.0526 -0.1613  0.0095
73914W        W16831   7.512  24.717  31.650  0.0825  0.0439 -0.0484
73915W        W16832   5.798  30.606   1.422  0.3085 -0.1227 -0.0091
73916W        W16833   4.701  25.946   3.620  0.1244  0.1909 -0.1014
73917W        W16834   3.840  24.192   3.226  0.2871 -0.2203 -0.0156
73918W        W16835   6.276  28.406   2.167  0.1820  0.0731  0.1810
73919W        W16836   2.742  25.686   0.531  0.0573  0.0864 -0.1544
73920W        W16837   5.248  26.857   2.303 -0.1964 -0.0826  0.2138
73921W        W16838   4.245  27.900   3.059 -0.0513  0.0019 -0.4501
73922W        W16839   8.041  27.791   2.897  0.0757  0.2726  0.1796
73923W        W16840   8.002  28.129   2.436 -0.4158 -0.0309 -0.1956
73924W        W16841   6.470  29.466   0.580  0.0094 -0.1077 -0.2622
73925W        W16842   5.980  27.722   1.550 -0.0088  0.2066  0.1471
73926W        W16843   6.018  27.982   2.200  0.0232  0.4567  0.0032
73927W        W16844   6.120  26.556   0.497 -0.1659  0.1083 -0.0640
73928W        W16845   4.063  30.123   1.438 -0.3402 -0.4485  0.0681
73929W        W16846   7.778  29.560   2.071 -0.1283 -0.0586  0.4997
73930W        W16847   7.926  28.658   1.426 -0.0262  0.4081 -0.0772
73931W        W16848   8.867  27.624   2.090 -0.2036  0.1714 -0.0048
73932W        W16849   7.475  29.467   5.209  0.0617 -0.0208 -0.1095
73933W        W16850   6.769  27.765   0.444  0.1261 -0.2166 -0.2285
73934W        W16851   8.047  29.168   3.797 -0.0156 -0.0979  0.1823
73935W        W16852   6.020  29.921   2.960  0.0504 -0.1567 -0.0685
73936W        W16853   7.889  27.438   2.512 -0.0925 -0.0421  0.3018
73937W        W16854   5.982  26.872   2.809 -0.1310 -0.0748  0.3115
73938W        W16855   4.632  27.823   0.518 -0.1083  0.0429  0.1500
73939W        W16856   7.888  28.452   3.926 -0.2179 -0.1814  0.3434
73940W        W16857   6.838  27.613   5.929  0.1452 -0.1255 -0.0041
73941W        W16858   7.458  28.690   4.338  0.0632 -0.5898  0.2542
73942W        W16859   7.568  26.682   5.169  0.2340 -0.2318 -0.0205
73943W        W16860   5.582  28.982  31.364  0.0732 -0.3891 -0.1530
73944W        W16861   6.584  24.727  31.442 -0.4145 -0.0039  0.2756
73945W        W16862   7.487  25.308  31.836  0.1381  0.1696 -0.0294
73946W        W16863   6.371  29.657   2.160  0.5361 -0.0237 -0.0483
73947W        W16864   4.561  24.802   0.013  0.0099 -0.1163  0.1878
73948W        W16865   4.733  30.287   1.388 -0.0085  0.0740 -0.3370
73949W        W16866   3.961  25.921   4.034  0.2247  0.1464  0.1690
73950W        W16867  10.214  27.237   5.369 -0.2840  0.0568 -0.2245
73951W        W16868   7.532  25.002   2.003 -0.0968 -0.0157  0.2089
73952W        W16869   5.520  27.647   2.379 -0.1818 -0.0822 -0.0022
73953W        W16870   3.264  29.047   1.621 -0.0974  0.3649 -0.0247
73954W        W16871   5.520  25.522   1.390  0.0879 -0.1161 -0.1981
73955W        W16872   8.044  29.030   0.728  0.1111 -0.2327  0.2771
73956W        W16873   8.369  27.618   2.427 -0.1877  0.0804 -0.2590
73957W        W16874   6.723  28.124   2.178  0.0507  0.1349  0.2784
73958W        W16875   5.106  26.178   1.861 -0.3136  0.1358  0.0528
73959W        W16876   4.666  26.876   3.942 -0.1782  0.0365  0.0075
73960W        W16877   5.480  25.626   0.539 -0.0791  0.1213 -0.2873
73961W        W16878   4.307  25.096  31.249 -0.1367  0.0062 -0.0049
73962W        W16879   8.332  27.822   5.223  0.0129  0.1018 -0.3144
73963W        W16880   4.830  27.185   3.586 -0.0710 -0.0528 -0.1578
73964W        W16881   7.887  27.968   1.701  0.0417  0.3014  0.2458
73965W        W16882   6.680  25.958   1.960  0.1304  0.1842 -0.2397
73966W        W16883   7.455  28.814   2.606  0.1001  0.1400 -0.4802
73967W        W16884   7.051  25.011  31.676 -0.1854 -0.1610  0.0920
73968W        W16885   7.221  27.601   3.056 -0.0535  0.1620 -0.0994
73969W        W16886   7.134  25.857   2.423 -0.0735 -0.1297  0.1533
73970W        W16887   4.730  27.754  30.601  0.0196  0.1244 -0.2228
73971W        W16888   4.646  27.819   1.182  0.1178 -0.0284  0.1018
73972W        W16889   8.823  28.387   2.494  0.0174 -0.1802 -0.0960
73973W        W16890   6.340  27.536   0.737 -0.4570  0.1270 -0.1469
73974W        W16891   6.690  27.551   3.956  0.2311 -0.0062  0.4165
73975W        W16892   7.314  25.705   2.867  0.1037  0.0167  0.2549
73976W        W16893   5.957  27.980   6.017  0.0811  0.2393  0.0387
73977W        W16894   4.026  29.927  31.460 -0.1034 -0.0613 -0.1790
73978W        W16895   5.781  26.654   1.334  0.1423  0.2336 -0.0468
73979W        W16896   5.088  28.762   2.143  0.1310  0.0751  0.0606
73980W        W16897   3.554  27.094   1.642  0.2209  0.1258 -0.0998
73981W        W16898   3.905  28.695   3.045 -0.1959 -0.1596  0.0033
73982W        W16899   9.024  25.771   0.627  0.2172 -0.1259  0.1040
73983W        W16900   3.620  25.095   2.774  0.0783  0.2034  0.0317
73984W        W16901   7.175  28.255   3.537  0.0524  0.1495 -0.1001
73985W        W16902   3.159  27.493   0.557  0.4758 -0.0732 -0.2811
73986W        W16903   7.953  29.691   0.030 -0.1773  0.1073 -0.1312
73987W        W16904   7.414  30.319   1.138  0.1349 -0.3895 -0.1896
73988W        W16905   7.379  27.861  31.865 -0.0771  0.0115 -0.0745
73989W        W16906   4.776  26.682   0.888 -0.0971  0.0028 -0.0425
73990W        W16907   5.467  27.675   1.749 -0.1986 -0.1120  0.0262
73991W        W16908   4.914  26.205   2.754  0.0600  0.2518 -0.0241
73992W        W16909   4.680  25.067   2.520  0.0066 -0.0705 -0.0042
73993W        W16910   6.446  26.668   2.569 -0.2436  0.0662  0.1375
73994W        W16911   2.631  26.753  29.355  0.1154  0.0911  0.0480
73995W        W16912   9.060  26.198   2.412 -0.0425  0.0658  0.1284
73996W        W16913   5.962  25.662   0.751 -0.0796 -0.0490  0.2382
73997W        W16914   4.243  29.448   0.122  0.0556 -0.2310  0.0233
73998W        W16915   5.671  26.173   3.392  0.1294  0.0067  0.2908
73999W        W16916   6.677  29.319   1.335 -0.1680  0.2455 -0.0717
74000W        W16917   8.478  28.138   1.704  0.0384  0.1423  0.2809
74001W        W16918   6.270  29.223   0.991  0.0792 -0.2563  0.1214
74002W        W16919   2.937  26.820   3.542  0.2839 -0.0888 -0.0683
74003W        W16920   4.710  26.943  30.327 -0.1814 -0.0884 -0.1730
74004W        W16921   5.231  29.213   2.487  0.3782 -0.1278 -0.1274
74005W        W16922   6.560  27.983   4.466  0.3067 -0.0892  0.2529
74006W        W16923   6.255  25.853   2.208  0.0690  0.1365 -0.1763
74007W        W16924   6.092  28.684   0.564  0.2160  0.1498  0.0373
74008W        W16925   5.173  28.466   2.658 -0.0631 -0.0424 -0.0312
74009W        W16926   5.653  28.832   6.068 -0.1745 -0.0128 -0.2464
74010W        W16927   6.306  26.510   3.180 -0.2795 -0.1511 -0.1555
74011W        W16928   8.404  27.646   3.903  0.1010 -0.1093 -0.3521
74012W        W16929   4.927  28.319   2.163  0.1920  0.3497 -0.1987
74013W        W16930   5.902  22.905  30.098  0.0298 -0.2565 -0.3588
74014W        W16931   7.083  29.485   1.551  0.3572  0.1377  0.1470
74015W        W16932   3.910  30.904  31.760 -0.1726 -0.1627 -0.2002
74016W        W16933   4.494  26.354   1.213  0.1644  0.0149 -0.1685
74017W        W16934   4.657  32.163   1.181  0.1764  0.1218  0.2470
74018W        W16935   7.932  27.819   4.135 -0.4905 -0.0838 -0.1077
74019W        W16936   4.562  29.355   2.569 -0.0841  0.4486 -0.0344
74020W        W16937   7.455  24.681   1.313  0.0953 -0.1839  0.0646
74021W        W16938   3.692  25.637  30.680  0.1189 -0.2965  0.1795
74022W        W16939   6.380  28.579   4.487  0.0736  0.1301  0.3873
74023W        W16940   6.189  24.846   0.254 -0.0483 -0.2501 -0.0607
74024W        W16941   7.020  25.136   0.212 -0.0245  0.1338  0.2221
74025W        W16942   6.383  28.019   6.871  0.2805 -0.1955 -0.0134
74026W        W16943   7.589  31.006   1.855  0.0631  0.1897  0.1562
74027W        W16944   8.373  27.053   0.049 -0.0780  0.0047 -0.1765
74028W        W16945   6.322  25.143  31.623  0.1949  0.1337  0.0047
74029W        W16946   6.952  28.012   4.042 -0.2029  0.0908 -0.0065
74030W        W16947   6.549  28.692   2.513  0.1486  0.0975  0.2286
74031W        W16948   7.283  27.876   5.702  0.3138  0.0301  0.0386
74032W        W16949   6.382  26.373   2.200  0.1663 -0.1427 -0.0291
74033W        W16950   8.658  30.581   2.257  0.0935 -0.0840 -0.1307
74034W        W16951   6.215  27.334   1.173  0.1479 -0.0516 -0.1008
74035W        W16952   6.806  28.365   4.582  0.1440 -0.0838 -0.1727
74036W        W16953   7.481  28.096   3.890 -0.1603  0.3766 -0.3456
74037W        W16954   5.370  25.084   4.998 -0.0342 -0.1987 -0.1051
74038W        W16955   5.926  27.359   0.553  0.0154 -0.2173 -0.2011
74039W        W16956   6.853  25.333   1.423 -0.1716  0.2783 -0.1993
74040W        W16957   1.862  29.418   0.839  0.0609  0.1476 -0.1219
74041W        W16958   9.100  24.532   3.459  0.0408 -0.0741  0.0284
74042W        W16959   6.098  26.258   1.399  0.2185 -0.0469  0.2913
74043W        W16960   6.267  28.205   2.659  0.0472 -0.1937  0.1591
74044W        W16961   7.445  26.045   4.435 -0.0644  0.0931 -0.1461
74045W        W16962   5.560  25.885   2.054  0.3828 -0.1602  0.1686
74046W        W16963   7.486  28.261   1.601  0.1505 -0.0689 -0.2005
74047W        W16964   4.037  25.914  30.967 -0.1054  0.1279  0.0890
74048W        W16965   4.854  26.595   3.248 -0.2223 -0.0047 -0.1981
74049W        W16966   3.992  26.076   2.458 -0.0477  0.1623 -0.1028
74050W        W16967   4.603  29.615   1.971  0.0929 -0.2534 -0.0086
74051W        W16968   9.404  27.687   1.909 -0.2946  0.0488 -0.1607
74052W        W16969   7.654  27.541   1.616 -0.1347 -0.0211  0.1181
74053W        W16970   5.829  27.432   4.815 -0.1295 -0.1211 -0.0495
74054W        W16971   7.203  26.955   1.094  0.0509  0.3105  0.1876
74055W        W16972   5.804  27.633   3.852  0.2488  0.0613  0.0827
74056W        W16973   5.543  27.267   0.861  0.1448  0.0239 -0.1457
74057W        W16974   4.472  26.393   2.745 -0.1335 -0.1862  0.1467
74058W        W16975   5.046  27.526   0.543 -0.1252 -0.3046 -0.0765
74059W        W16976   5.688  26.901   0.562 -0.0552  0.2344  0.1992
74060W        W16977   6.942  29.111   2.441  0.1129  0.3898  0.1107
74061W        W16978   5.875  31.086   1.112 -0.1108 -0.1411  0.1862
74062W        W16979   8.146  26.781   1.974 -0.1117  0.0266 -0.1202
74063W        W16980   5.044  29.311   2.014 -0.1632  0.2443  0.0267
74064W        W16981   5.198  25.458  31.194  0.0017 -0.0200  0.2041
74065W        W16982   6.100  26.850   0.962  0.2992  0.0255 -0.0894
74066W        W16983   7.330  28.201   4.368  0.0382  0.1649  0.3666
74067W        W16984   8.110  26.669  31.069 -0.2002  0.2153 -0.3439
74068W        W16985   4.316  25.074   3.296  0.2962 -0.0454 -0.0673
74069W        W16986   6.709  25.653   2.789 -0.2823 -0.4421  0.0298
74070W        W16987   4.800  29.136   3.795  0.0796  0.0971  0.1723
74071W        W16988   6.642  26.845   2.979  0.2425 -0.1384  0.2835
74072W        W16989   8.313  25.402  30.609  0.0337  0.0149  0.0212
74073W        W16990   7.323  28.948   2.122 -0.1890 -0.3861 -0.2415
74074W        W16991   5.563  25.955   2.678  0.0241 -0.1837 -0.2845
74075W        W16992   4.719  25.430   0.139 -0.0322  0.1109  0.3768
74076W        W16993   8.581  26.411   4.523 -0.0450 -0.2825  0.0875
74077W        W16994   6.874  26.755   0.796 -0.3554 -0.2805  0.0927
74078W        W16995   4.638  28.377   2.704  0.0711  0.2507  0.0726
74079W        W16996   5.499  27.513  31.753 -0.2683  0.4000 -0.0050
74080W        W16997   5.636  27.807   0.682 -0.0441  0.0187  0.0976
74081W        W16998   4.566  29.152   2.122  0.1826 -0.3445 -0.1329
74082W        W16999   4.905  28.069   4.392 -0.2459  0.0304 -0.0178
74083W        W17000   6.826  27.386   3.451 -0.0840 -0.2807  0.1193
74084W        W17001   4.709  26.960   0.468  0.1463  0.0183 -0.0940
74085W        W17002   6.340  25.846   1.650 -0.0199  0.2209 -0.2004
74086W        W17003   5.405  27.842   2.901 -0.0761 -0.0768  0.2834
74087W        W17004   6.984  27.765   1.700 -0.0456  0.2007 -0.1042
74088W        W17005   6.366  28.643   3.563  0.0942 -0.0725 -0.1124
74089W        W17006   7.321  28.835   5.775  0.1338 -0.1871 -0.0640
74090W        W17007   4.462  24.584   1.811  0.1583 -0.0263  0.0420
74091W        W17008   6.864  29.552  31.712  0.3574 -0.0204 -0.2193
74092W        W17009   7.858  26.968   2.816 -0.1430 -0.4670 -0.1216
74093W        W17010   6.178  24.081   0.324  0.2203 -0.4909 -0.0198
74094W        W17011   5.241  28.555   3.149  0.0389 -0.1165 -0.0303
74095W        W17012   5.414  29.938   1.540  0.0318 -0.1194  0.2474
74096W        W17013   6.080  27.579   3.436  0.3531  0.0233  0.0619
74097W        W17014   3.334  27.692   1.959  0.2272  0.1969  0.0880
74098W        W17015   5.451  27.242  30.817 -0.1892  0.0000 -0.1061
74099W        W17016   6.312  27.887   4.002 -0.0269  0.2198 -0.0120
74100W        W17017   6.629  24.041   1.341 -0.3493 -0.0873  0.0113
74101W        W17018   6.987  27.256  31.194 -0.1427 -0.1363 -0.1566
74102W        W17019   5.650  28.635   2.265  0.0933  0.3198 -0.0945
74103W        W17020   7.943  26.098   3.280  0.1058  0.1305  0.0325
74104W        W17021   6.735  26.309   2.942 -0.2469  0.0081 -0.1554
74105W        W17022   6.718  26.073   2.516  0.2598  0.1576 -0.2221
74106W        W17023   5.141  25.424   3.221  0.1925 -0.0489  0.1596
74107W        W17024   7.538  28.810   1.667  0.0484 -0.0632  0.1709
74108W        W17025   4.125  25.602   1.027  0.2665  0.3090  0.3919
74109W        W17026   5.969  28.957   4.265 -0.1041  0.1004  0.1821
74110W        W17027   5.445  28.142   2.138 -0.2037  0.1025  0.2848
74111W        W17028   5.396  26.252   2.325  0.0712 -0.1528  0.3463
74112W        W17029   4.770  25.290  31.214  0.0177  0.1848  0.2619
74113W        W17030   6.226  26.959   2.152 -0.0636  0.0648  0.3383
74114W        W17031   7.070  27.363   1.381  0.4385  0.3475 -0.1485
74115W        W17032   5.414  28.468  31.193  0.1256 -0.1527  0.1840
74116W        W17033   6.323  28.262   1.207 -0.0105 -0.1693  0.1666
74117W        W17034   5.239  27.346   1.312 -0.0896 -0.3092 -0.0714
74118W        W17035   7.487  26.630   1.369  0.2422  0.1041  0.1039
74119W        W17036   6.988  26.826   0.136 -0.0093 -0.0166 -0.3066
74120W        W17037   4.260  28.060   0.040 -0.0338 -0.0659  0.0051
74121W        W17038   7.218  26.489   1.810  0.0273  0.2337 -0.4245
74122W        W17039   7.351  26.958   2.744 -0.0864 -0.1159  0.1222
74123W        W17040   6.396  27.198   3.684 -0.1371  0.2164  0.1441
74124W        W17041   8.889  27.155   4.885 -0.4988 -0.0103 -0.0856
74125W        W17042   4.727  28.532   5.822  0.0983 -0.0693 -0.2602
74126W        W17043   3.474  26.130   3.668 -0.0746  0.0407 -0.0232
74127W        W17044   6.976  29.374   4.571 -0.1000  0.3419 -0.0639
74128W        W17045   6.954  28.063   0.077  0.1684  0.0190  0.0759
74129W        W17046   7.020  26.016   4.093  0.1772 -0.1206 -0.0620
74130W        W17047   7.081  27.834   2.592 -0.1710 -0.0583 -0.2514
74131W        W17048   7.322  25.725   0.742  0.0513 -0.4189  0.3448
74132W        W17049   5.147  26.207   0.988 -0.2535  0.1600 -0.1158
74133W        W17050   8.650  25.581   3.576 -0.0335  0.4005 -0.4065
74134W        W17051   4.958  28.384   1.577 -0.1699  0.3434 -0.0773
74135W        W17052   5.792  27.230   1.401  0.1983 -0.0274 -0.1203
74136W        W17053   5.123  27.755  31.509  0.1199 -0.1628 -0.0748
74137W        W17054   6.567  29.172   2.835 -0.2287  0.1840 -0.0142
74138W        W17055   4.783  27.003   2.256 -0.1445 -0.1578 -0.2630
74139W        W17056   5.398  24.551  31.657 -0.0922 -0.2323  0.0499
74140W        W17057   8.359  28.702   3.880  0.0625  0.1448 -0.1121
74141W        W17058   4.945  26.552  30.168  0.3128 -0.1529 -0.1413
74142W        W17059   4.121  28.998   2.412 -0.5505  0.0436  0.0698
74143W        W17060   5.451  28.535   1.790 -0.2233 -0.1310  0.3136
74144W        W17061   7.332  27.648   4.063  0.1428 -0.1810 -0.3416
74145W        W17062   7.523  25.029   0.287 -0.1780 -0.3527 -0.0169
74146W        W17063   6.183  26.784   3.564  0.0839  0.3217 -0.1369
74147W        W17064   5.542  28.241   0.493 -0.1506  0.0941  0.0774
74148W        W17065   8.054  25.968   2.405 -0.1774 -0.2989 -0.0666
74149W        W17066   5.194  28.919   3.562 -0.1210  0.1351 -0.1219
74150W        W17067   4.652  27.863   2.764  0.4029  0.0568 -0.1767
74151W        W17068   6.973  28.706   2.765  0.2739 -0.0889 -0.4960
74152W        W17069   5.892  25.609   2.498  0.0241  0.3256  0.1269
74153W        W17070   8.644  28.916   2.210 -0.0218 -0.1269 -0.0856
74154W        W17071   7.006  25.749   0.355 -0.1400  0.1115  0.1074
74155W        W17072   9.014  26.569   2.758  0.2095 -0.3838 -0.0141
74156W        W17073   6.661  27.754   4.913  0.0506  0.3597  0.1823
74157W        W17074   4.641  28.810   2.499 -0.1924  0.1692  0.0730
74158W        W17075   8.051  28.768   3.490  0.2204 -0.2132  0.0627
74159W        W17076   7.380  26.598   0.117  0.0039 -0.0144 -0.3770
74160W        W17077   4.331  28.925   2.931  0.0154 -0.1579  0.3520
74161W        W17078   4.283  25.690   3.515 -0.2172 -0.2025 -0.2298
74162W        W17079   4.769  28.581   3.219  0.1296 -0.0895  0.1237
74163W        W17080   7.714  26.891   2.376  0.1133 -0.0687 -0.0080
74164W        W17081   6.448  25.549   1.048 -0.2858  0.1623 -0.1894
74165W        W17082   7.637  27.182   0.275 -0.0995  0.0056 -0.1210
74166W        W17083   4.182  28.151   3.541  0.0677  0.1422 -0.2431
74167W        W17084   5.012  27.500   2.288 -0.1171  0.0808 -0.0241
74168W        W17085   5.737  28.205   2.556 -0.0741 -0.0401  0.1269
74169W        W17086   6.986  26.988   1.703 -0.0274 -0.0174  0.0403
74170W        W17087   6.873  27.241   0.434 -0.2917 -0.0299 -0.2258
74171W        W17088   6.887  28.422   3.197  0.2287 -0.0708 -0.0591
74172W        W17089   7.053  25.064   2.054 -0.3748  0.0798  0.0023
74173W        W17090   5.876  28.053   3.527  0.1509  0.1695 -0.1006
74174W        W17091   3.566  28.568   0.762 -0.3754  0.0643  0.0735
74175W        W17092   6.039  28.830   1.143  0.2873  0.5645 -0.0544
74176W        W17093   6.267  28.503   1.639 -0.0412  0.2111 -0.2865
74177W        W17094   6.590  28.216   3.638  0.1442 -0.1525  0.1620
74178W        W17095   6.945  28.566   2.144  0.1437 -0.0993 -0.1671
74179W        W17096   8.288  27.691   1.914  0.1558 -0.3156 -0.4880
74180W        W17097   7.443  26.124   1.255 -0.1735  0.1635 -0.1424
74181W        W17098   6.059  27.824   4.607  0.0299  0.1103  0.2136
74182W        W17099   6.083  25.222   2.105  0.0059 -0.1305 -0.0894
74183W        W17100   5.502  27.030   0.012 -0.1500  0.0009  0.0861
74184W        W17101   3.946  27.960   4.309  0.2385 -0.3447 -0.2966
74185W        W17102   7.420  24.420   4.366 -0.0890 -0.1907 -0.1053
74186W        W17103   4.528  30.594   3.384  0.0940  0.1294  0.0470
74187W        W17104   7.944  29.897   3.014 -0.0588  0.0975 -0.3782
74188W        W17105   4.126  25.704  30.492 -0.1882 -0.0068  0.3126
74189W        W17106   6.007  28.619   2.611  0.5215  0.0534 -0.2919
74190W        W17107   6.847  24.431   3.424 -0.0198 -0.1031  0.0334
74191W        W17108   6.626  27.021   1.308  0.5661  0.2541 -0.0368
74192W        W17109   7.480  24.227   1.534 -0.1188  0.0425 -0.3850
74193W        W17110   5.066  30.292   1.006  0.0665  0.2724 -0.0112
74194W        W17111   6.823  27.890   3.049 -0.4356 -0.1982  0.1047
74195W        W17112   5.615  29.851   3.607  0.2234  0.5614  0.1235
74196W        W17113   5.558  25.350  31.585 -0.1444  0.2763 -0.1170
74197W        W17114   7.300  27.358   0.767 -0.2611 -0.0309 -0.0243
74198W        W17115   4.983  27.151   0.947  0.0701  0.1261  0.1149
74199W        W17116   7.004  25.924   3.235 -0.3701 -0.1025 -0.0398
74200W        W17117   5.416  27.214   2.013 -0.0399 -0.1285  0.1554
74201W        W17118   6.517  26.478   1.248 -0.1062  0.0157  0.4865
74202W        W17119   5.786  28.043   4.112  0.0551 -0.1268 -0.0739
74203W        W17120   4.203  27.421   1.129 -0.0723 -0.1399  0.0818
74204W        W17121   6.101  25.581   0.246 -0.0373 -0.1226 -0.1427
74205W        W17122   8.604  26.678   4.020  0.0225 -0.0345  0.0948
74206W        W17123   4.326  28.267  31.558 -0.1498 -0.0048  0.0628
74207W        W17124   7.500  27.638   4.701  0.0991 -0.2499  0.1117
74208W        W17125   6.290  25.363   1.456 -0.4648 -0.0798  0.0953
74209W        W17126   7.969  26.914   1.320 -0.6149 -0.1569 -0.1047
74210W        W17127   5.842  27.128  31.638 -0.1276 -0.0173 -0.1182
74211W        W17128   7.422  28.626   3.814  0.0548  0.1632 -0.1645
74212W        W17129   7.294  30.695   2.397  0.0698  0.0580 -0.1201
74213W        W17130   4.589  25.103   2.041  0.0607  0.1407 -0.0607
74214W        W17131   5.529  28.116   1.069  0.0052  0.2712 -0.1503
74215W        W17132   8.559  27.624   2.900 -0.1289 -0.1610 -0.1066
74216W        W17133   4.422  28.378   2.262  0.2110 -0.0022  0.1994
74217W        W17134   6.992  26.600   1.361  0.1014  0.2152  0.1661
74218W        W17135   4.789  29.785   2.436  0.2391 -0.1315  0.2207
74219W        W17136   5.607  26.066   1.580  0.0845 -0.1838  0.0017
74220W        W17137   8.497  29.072   3.513  0.2954  0.0069  0.4437
74221W        W17138   8.408  28.073   2.723 -0.0717  0.0905  0.0358
74222W        W17139   6.899  24.838   2.470  0.0910 -0.3580 -0.2372
74223W        W17140   6.575  25.404   2.015  0.2231 -0.1669 -0.4230
74224W        W17141   3.783  27.987   0.274  0.1457 -0.0123  0.1419
74225W        W17142   6.837  26.920   3.648 -0.1454 -0.1051 -0.2384
74226W        W17143   6.575  25.914   3.775  0.0847 -0.0136  0.0183
74227W        W17144   6.384  27.983   1.851  0.3820 -0.2002 -0.3193
74228W        W17145   7.606  24.672   3.892  0.1278  0.2435 -0.1805
74229W        W17146   5.952  28.688   3.184 -0.0943  0.0182  0.2187
74230W        W17147   5.581  29.036   3.245  0.3472  0.0198  0.0030
74231W        W17148   4.235  26.821   0.199  0.1315  0.1766 -0.0330
74232W        W17149   7.648  27.887   3.275  0.0088 -0.2558  0.0915
74233W        W17150   6.428  28.577   2.995 -0.2179 -0.0945  0.3392
74234W        W17151   6.506  28.185   0.322  0.2457  0.0010  0.1287
74235W        W17152   5.987  29.579   2.548  0.1352 -0.4205 -0.0737
74236W        W17153   5.304  26.576   0.621 -0.0523  0.2634 -0.0006
74237W        W17154   7.888  28.913   2.010  0.0824  0.2161  0.2536
74238W        W17155   5.488  25.247   0.884  0.2446  0.0424 -0.2430
74239W        W17156   7.905  24.083   1.863  0.1481  0.1544  0.1746
74240W        W17157   6.792  26.710   2.164  0.1490 -0.0247 -0.0233
74241W        W17158   4.353  29.113   3.541  0.0140  0.0684  0.0886
74242W        W17159   5.586  27.579  31.283 -0.0976 -0.1180  0.2445
74243W        W17160   5.195  27.682   0.968 -0.0458  0.2681  0.2963
74244W        W17161   5.036  28.983   2.886 -0.0390  0.1205 -0.1795
74245W        W17162   3.714  25.080   4.397  0.0417 -0.5240  0.3367
74246W        W17163   4.559  25.417   3.856  0.0594 -0.1300  0.0962
74247W        W17164   3.000  27.790   0.214  0.0459  0.2046 -0.2047
74248W        W17165   7.090  25.981   1.677  0.2031  0.0573  0.0934
74249W        W17166   8.379  29.839   0.163 -0.1222 -0.0338 -0.2024
74250W        W17167   5.612  25.932   1.011  0.2142  0.4251  0.0721
74251W        W17168   5.076  25.729   0.874  0.1260  0.1620 -0.1186
74252W        W17169   7.230  27.986   2.088  0.0137  0.0364  0.1543
74253W        W17170   6.624  29.762   1.669 -0.1579 -0.2673  0.0806
74254W        W17171   8.074  26.493   1.477 -0.2351 -0.0601  0.1942
74255W        W17172   8.671  28.184   5.313 -0.1764  0.0995 -0.3253
74256W        W17173   5.942  27.483   0.071 -0.2412  0.2315  0.1278
74257W        W17174   4.322  26.217   3.864  0.2054 -0.1677 -0.3819
74258W        W17175   7.803  28.251   2.962 -0.0273 -0.1381  0.0556
74259W        W17176   5.601  23.662  31.723 -0.1703 -0.1637 -0.1422
74260W        W17177   5.778  27.152   2.420 -0.0200 -0.0718  0.0026
74261W        W17178   6.565  27.740   2.573  0.0114 -0.5231 -0.1594
74262W        W17179   6.476  29.110  31.787 -0.1540 -0.1871  0.2015
74263W        W17180   5.276  26.403   1.415 -0.2788 -0.0618 -0.1913
74264W        W17181   7.067  30.272   2.405 -0.1867  0.3363 -0.1260
74265W        W17182   3.069  25.575   1.572  0.0947  0.1992 -0.2276
74266W        W17183   6.456  28.898   1.965 -0.1222  0.1299  0.1465
74267W        W17184   7.055  29.524   3.749  0.0577 -0.0877 -0.2705
74268W        W17185   8.098  29.992   0.909 -0.0299  0.1238  0.1447
74269W        W17186   7.972  26.419   3.670  0.0704  0.1056 -0.3722
74270W        W17187   7.791  26.708   0.423  0.4590 -0.0945  0.1007
74271W        W17188   3.180  27.106   3.214  0.0143 -0.1241  0.0576
74272W        W17189   5.290  26.877   3.081 -0.1316  0.1141 -0.3025
74273W        W17190   8.879  29.507   3.421 -0.1463  0.1056 -0.2081
74274W        W17191   4.656  27.393   0.198 -0.1323  0.0614 -0.2677
74275W        W17192   9.464  26.165   0.953  0.1133  0.1497  0.1992
74276W        W17193   7.244  27.535   0.281 -0.0169 -0.0767 -0.0143
74277W        W17194   4.650  25.843   1.892  0.1788 -0.1537 -0.0729
74278W        W17195   5.686  26.531   0.238 -0.2677 -0.0132  0.0228
74279W        W17196   7.647  28.387   3.458  0.1318  0.0329  0.2556
74280W        W17197   6.593  27.432   4.436  0.2384  0.0277 -0.1287
74281W        W17198   9.593  27.185   6.631  0.4073  0.0173 -0.2482
74282W        W17199   6.008  27.007   0.220  0.0104  0.0690 -0.0173
74283W        W17200   6.658  26.408   1.717 -0.2144  0.2978  0.1053
74284W        W17201   6.260  29.130   1.538  0.0156  0.0851 -0.1821
74285W        W17202   8.552  28.526   3.450  0.2121  0.0775 -0.2809
74286W        W17203   7.751  28.385   5.097  0.0882  0.0334  0.0283
74287W        W17204   7.534  29.102   0.685 -0.2456  0.0173  0.0794
74288W        W17205   4.107  25.298   2.321  0.2121 -0.0557 -0.2602
74289W        W17206   4.664  27.542  31.716 -0.0278  0.1369  0.0786
74290W        W17207   5.391  28.121   1.532  0.1113 -0.1907 -0.0982
74291W        W17208   4.863  26.785   2.706  0.2154 -0.0574 -0.0319
74292W        W17209   4.855  24.323   0.906 -0.0788 -0.0317 -0.0242
74293W        W17210   7.740  26.463   0.962 -0.1267  0.4063 -0.3520
74294W        W17211   6.525  29.960   5.373  0.2493  0.0518 -0.0965
74295W        W17212   8.487  26.703   2.963 -0.0161 -0.0179 -0.0785
74296W        W17213   5.965  28.907   9.284  0.5095 -0.0580 -0.1931
74297W        W17214   2.861  28.227   4.967 -0.2643 -0.1022  0.1652
74298W        W17215   6.569  27.796   3.440  0.0521 -0.0617  0.0156
74299W        W17216   7.080  26.733   4.985 -0.2003 -0.1087  0.1349
74300W        W17217   4.638  27.899   5.450  0.2721 -0.1525  0.3599
74301W        W17218   9.772  27.004   2.926 -0.3772 -0.0765  0.0986
74302W        W17219   7.306  27.585   8.789  0.0333 -0.0503  0.2214
74303W        W17220   6.675  28.669   7.054  0.0229 -0.0998  0.0731
74304W        W17221   7.472  29.303   8.711  0.0268  0.2254 -0.3225
74305W        W17222   5.522  27.705   6.012  0.1110  0.3149 -0.1701
74306W        W17223   5.543  27.048   9.204 -0.1810 -0.0020 -0.0158
74307W        W17224   5.665  27.971   7.364 -0.0377  0.0117 -0.1386
74308W        W17225   5.065  26.150   3.331  0.2499  0.1066  0.5428
74309W        W17226   5.141  26.716   3.870 -0.0244 -0.2742  0.1481
74310W        W17227   5.077  27.615   5.784 -0.0283 -0.1389 -0.3199
74311W        W17228   5.042  27.118   4.305  0.1798  0.1425  0.1572
74312W        W17229   3.689  28.071   5.231 -0.1765 -0.0500  0.3272
74313W        W17230   5.065  26.841   5.214  0.1328 -0.0451  0.2627
74314W        W17231   7.233  30.485   7.245  0.0835 -0.2792  0.0567
74315W        W17232   4.432  26.657   6.960  0.2279 -0.0879  0.0267
74316W        W17233   6.728  26.576   7.505 -0.0117 -0.0075  0.0348
74317W        W17234   5.103  27.914   5.220 -0.0972  0.0305 -0.0044
74318W        W17235   5.208  27.349   3.897  0.0554  0.0452  0.1608
74319W        W17236   4.821  28.438   6.364  0.0993  0.0459 -0.3599
74320W        W17237   4.911  30.466   6.788 -0.1691 -0.3735  0.3675
74321W        W17238   7.234  26.779   3.898 -0.0046  0.0197  0.1590
74322W        W17239   6.870  26.332   6.782 -0.0064 -0.3435  0.0964
74323W        W17240   8.501  29.841   6.432 -0.0041 -0.0642 -0.3172
74324W        W17241   4.493  29.216   8.928  0.1952  0.0217 -0.3618
74325W        W17242   3.638  28.482   7.176 -0.2815 -0.2565  0.1186
74326W        W17243   4.318  28.899   5.719  0.1949 -0.1168  0.0612
74327W        W17244   2.907  28.817   7.537 -0.2251  0.2511  0.0249
74328W        W17245   3.982  28.148   7.105 -0.0222  0.0104 -0.1511
74329W        W17246   6.467  28.365   7.658  0.0792 -0.2481 -0.3025
74330W        W17247   7.370  29.732   6.855  0.1093  0.1384  0.0532
74331W        W17248   4.173  29.690   8.971  0.1016  0.0955 -0.2184
74332W        W17249   3.729  28.809   2.586 -0.3851  0.0203  0.0087
74333W        W17250   7.564  30.350   9.278  0.2017  0.0389  0.0363
74334W        W17251   4.915  27.258   8.238 -0.2790  0.0110  0.0300
74335W        W17252   5.170  26.697   6.741 -0.2033 -0.0980  0.0993
74336W        W17253   6.126  27.593   5.631 -0.6610  0.3175  0.0869
74337W        W17254   6.617  28.919   5.374 -0.1091  0.1100 -0.0742
74338W        W17255   5.997  27.170   6.391  0.1432 -0.2418 -0.2113
74339W        W17256   6.007  28.105   9.752  0.0664 -0.3878 -0.0905
74340W        W17257   3.920  28.449   7.587  0.0973  0.0154  0.1244
74341W        W17258   7.077  27.796   7.338 -0.1607  0.3004  0.1338
74342W        W17259   5.831  27.334   5.970  0.0371 -0.0552  0.0386
74343W        W17260   6.177  26.156   3.521  0.0284  0.0597 -0.0435
74344W        W17261   7.153  27.133   3.195 -0.1896 -0.0537 -0.0655
74345W        W17262   7.386  28.117   4.853 -0.3038 -0.3765 -0.0275
74346W        W17263   4.631  26.055   3.150  0.0786  0.0769  0.0457
74347W        W17264   4.315  29.583   5.951  0.0046 -0.3108  0.1282
74348W        W17265   4.257  26.575   6.513 -0.0548  0.4794  0.0580
74349W        W17266   7.327  28.346   9.378 -0.1949  0.0335 -0.3550
74350W        W17267   5.358  27.514   4.867  0.0727 -0.0088 -0.3862
74351W        W17268   7.395  27.526   6.850  0.1109 -0.0444  0.0530
74352W        W17269   5.871  29.429   7.285  0.1937  0.2584 -0.1269
74353W        W17270   5.547  28.526   3.626 -0.0332 -0.1857 -0.1222
74354W        W17271   8.156  28.640   4.777  0.0141 -0.1382  0.2198
74355W        W17272   5.294  28.388   7.369  0.0659 -0.1929 -0.3641
74356W        W17273   6.359  27.452   6.030 -0.1626 -0.1926  0.1553
74357W        W17274   4.151  27.479   2.693 -0.0869  0.0716  0.1327
74358W        W17275   5.319  28.885   6.413  0.1575  0.1097 -0.1925
74359W        W17276   5.403  27.395   7.058  0.0616  0.2085  0.1407
74360W        W17277   5.313  27.194   2.649  0.0686  0.0065  0.0609
74361W        W17278   7.946  30.026   9.380 -0.1140 -0.1675 -0.3341
74362W        W17279   3.139  29.193   7.727 -0.0272  0.0161 -0.0416
74363W        W17280   8.046  27.812   6.306 -0.1620 -0.1812 -0.3291
74364W        W17281   6.619  27.960   7.416  0.1329  0.1120  0.1003
74365W        W17282   8.843  28.335   6.857 -0.1467 -0.0559 -0.1322
74366W        W17283   7.812  27.521   3.763  0.2471  0.1628  0.3363
74367W        W17284   7.120  26.794   7.187  0.0946  0.0818  0.3260
74368W        W17285   5.365  27.230   6.133 -0.0371  0.3520  0.0234
74369W        W17286   6.465  25.656   4.347  0.0672  0.0759  0.1190
74370W        W17287   6.564  28.399   4.093  0.2453  0.2508  0.1635
74371W        W17288   7.419  28.146   7.509 -0.0339 -0.2030 -0.0693
74372W        W17289   8.614  26.942   3.463 -0.1595 -0.1343  0.1026
74373W        W17290   6.511  29.894   7.753 -0.0879 -0.0057 -0.1483
74374W        W17291   7.344  28.339   5.999 -0.2846  0.2012 -0.1678
74375W        W17292   5.341  29.570   8.316  0.1989  0.4159  0.0946
74376W        W17293   2.318  29.357   5.839 -0.2988 -0.0328  0.2058
74377W        W17294   5.690  27.952   6.446 -0.0017  0.0627  0.2666
74378W        W17295   4.664  28.186   3.408 -0.0336 -0.1167  0.1298
74379W        W17296   4.344  27.108   8.151 -0.0314 -0.1412 -0.2679
74380W        W17297   6.098  30.042   8.059  0.2824 -0.1618  0.0736
74381W        W17298   7.001  26.660   3.281  0.0524 -0.2997  0.1360
74382W        W17299   6.495  26.569   7.042 -0.3203 -0.0458 -0.0981
74383W        W17300   6.347  24.894   5.360 -0.1439 -0.3263  0.1821
74384W        W17301   6.453  31.014   6.402  0.0029 -0.2357 -0.2055
74385W        W17302   8.770  29.788   6.833 -0.2778  0.0409  0.2635
74386W        W17303   6.843  26.795   5.563 -0.0423 -0.1548 -0.0816
74387W        W17304   6.759  28.245   2.719 -0.0355 -0.0126 -0.2027
74388W        W17305   3.799  26.427   3.955 -0.4133  0.1096  0.1806
74389W        W17306   4.872  25.862   7.199  0.0708 -0.1013  0.2838
74390W        W17307   5.820  25.849   6.927  0.3814 -0.1214 -0.0254
74391W        W17308   5.614  28.690   5.534  0.1924  0.1909 -0.0207
74392W        W17309   6.609  28.906   7.825 -0.1944  0.2771 -0.1887
74393W        W17310   2.387  24.534   2.054 -0.0767  0.1715  0.1289
74394W        W17311   4.958  26.357   5.432 -0.0382 -0.0724 -0.2784
74395W        W17312   5.956  26.892   4.889 -0.0424  0.1596  0.1716
74396W        W17313   3.645  29.395   7.461  0.1325  0.0405  0.3206
74397W        W17314   6.902  28.630   8.569  0.1666 -0.1687 -0.1984
74398W        W17315   9.068  29.267   4.745 -0.0799 -0.0759 -0.2583
74399W        W17316   7.056  29.129   8.419 -0.0927  0.1765 -0.1814
74400W        W17317   5.390  27.128   3.512 -0.1058  0.2413 -0.0277
74401W        W17318   5.833  28.571   7.466  0.1811  0.1116  0.0120
74402W        W17319   3.377  26.765   4.929  0.0047 -0.1477  0.0570
74403W        W17320   4.260  29.635   5.321  0.0426 -0.0436  0.4012
74404W        W17321   6.884  28.698   6.476 -0.0313  0.1441 -0.1317
74405W        W17322   4.579  26.766   4.873  0.0749 -0.0599  0.2176
74406W        W17323   6.885  29.848   7.270 -0.1339  0.1440 -0.2462
74407W        W17324   5.491  27.901   6.883 -0.3394  0.0907 -0.0298
74408W        W17325   4.115  28.171   6.624 -0.3474  0.2803  0.0905
74409W        W17326   7.260  26.317   7.224  0.1639 -0.0151 -0.1700
74410W        W17327   7.294  29.250   6.879  0.0000 -0.0272  0.0696
74411W        W17328   6.143  26.983   5.744  0.2512  0.2403 -0.0796
74412W        W17329   5.831  28.291   4.747  0.0297 -0.0131 -0.2031
74413W        W17330   6.891  30.678   6.264  0.1403 -0.2026 -0.0968
74414W        W17331   5.273  29.435   3.242 -0.1583 -0.1119  0.3819
74415W        W17332   4.535  29.201   6.660 -0.2682  0.0337 -0.0710
74416W        W17333   7.869  27.111   5.419 -0.1693 -0.2315  0.4385
74417W        W17334   6.550  26.123   4.297  0.2491  0.0933  0.1988
74418W        W17335   4.364  28.797   8.333 -0.1179 -0.1105 -0.1702
74419W        W17336   6.425  27.113   7.755 -0.2504 -0.0847  0.2639
74420W        W17337   3.665  25.384   4.839 -0.0869 -0.0671 -0.3071
74421W        W17338   3.777  29.069   8.435 -0.2524  0.0712 -0.1217
74422W        W17339   3.650  24.020   4.545 -0.0081  0.0352  0.0776
74423W        W17340   6.365  27.619   2.978  0.2516 -0.1168  0.0904
74424W        W17341   4.743  30.220   8.854  0.3646  0.2888 -0.1165
74425W        W17342   7.025  29.185   7.675 -0.2036  0.0961  0.0024
74426W        W17343   5.794  27.148   3.218 -0.0202 -0.1053 -0.2596
74427W        W17344   5.919  27.878   2.935  0.2989 -0.3273  0.1495
74428W        W17345   5.777  28.859   8.366 -0.1538  0.0613 -0.0218
74429W        W17346   5.800  26.710   5.354 -0.2901  0.0879  0.0585
74430W        W17347   5.140  27.866   7.240 -0.1045 -0.2051 -0.0883
74431W        W17348   3.519  25.854   3.248 -0.0744 -0.2504  0.1994
74432W        W17349   7.435  28.412   5.498  0.5516 -0.0011  0.3011
74433W        W17350   3.534  28.379   5.627  0.0072 -0.0134 -0.1233
74434W        W17351   6.584  28.472   8.181 -0.3380 -0.0761  0.1436
74435W        W17352   6.910  28.183   6.197 -0.0076  0.2500  0.0043
74436W        W17353   6.959  25.880   4.612  0.0842 -0.1682 -0.0379
74437W        W17354   4.130  25.830   3.061 -0.1010  0.2343 -0.2061
74438W        W17355   5.332  26.155   4.875 -0.0274  0.1374 -0.3059
74439W        W17356   6.398  28.461   6.090  0.1636  0.1974  0.0359
74440W        W17357   6.682  27.085   7.306 -0.1378  0.0609 -0.0198
74441W        W17358   5.072  27.403   5.275  0.0249  0.1933 -0.3292
74442W        W17359   5.428  26.795   8.195  0.1405 -0.1495 -0.3201
74443W        W17360   7.565  29.243   7.592  0.2042 -0.2154 -0.0663
74444W        W17361   4.698  26.367   4.187  0.0017 -0.3949 -0.0645
74445W        W17362   4.123  26.319   1.982 -0.5394  0.1558 -0.4344
74446W        W17363   7.747  26.542   8.003 -0.3431  0.1077  0.1124
74447W        W17364   3.764  28.028  10.529 -0.1325  0.0675  0.1198
74448W        W17365   4.658  28.138   7.878 -0.1852  0.0924 -0.1144
74449W        W17366   7.017  29.848   6.439  0.0220 -0.1245 -0.1689
74450W        W17367   6.412  27.296   6.774  0.0613  0.1492 -0.0592
74451W        W17368   5.190  28.243   8.172  0.1895 -0.3500  0.2261
74452W        W17369   5.991  26.841   4.112 -0.2536  0.1298  0.2334
74453W        W17370   5.140  28.093   5.974 -0.3052  0.0692 -0.1404
74454W        W17371   4.214  27.854   2.011 -0.4056 -0.0913  0.0993
74455W        W17372   5.873  27.215   6.880  0.2792 -0.1388  0.3449
74456W        W17373   6.553  27.452   8.172 -0.0467 -0.2420 -0.1373
74457W        W17374   7.463  30.227   4.750 -0.0889  0.1561 -0.0661
74458W        W17375   6.581  26.978   8.647 -0.2028  0.0722 -0.0467
74459W        W17376   6.479  28.693   4.964 -0.0817  0.2409 -0.0373
74460W        W17377   5.313  26.666   5.675  0.0440 -0.1773  0.2722
74461W        W17378   2.272  27.943   7.621  0.0435  0.3461 -0.1217
74462W        W17379   5.150  27.201   6.655 -0.0159  0.3052  0.0058
74463W        W17380   4.024  27.245   3.169  0.1666  0.1563 -0.2162
74464W        W17381   8.091  26.367   2.784 -0.0471 -0.4107 -0.0137
74465W        W17382   7.077  26.249   3.673 -0.0803 -0.1148 -0.0009
74466W        W17383   4.347  26.281   5.746  0.1461 -0.3591  0.2221
74467W        W17384   5.143  25.858   6.316  0.0799 -0.1738  0.0918
74468W        W17385   4.424  29.468   7.113  0.2058 -0.4070 -0.0060
74469W        W17386   4.921  27.612   6.264 -0.0862  0.0571 -0.0937
74470W        W17387   7.135  27.350   4.605  0.2514  0.2176  0.2550
74471W        W17388   7.730  28.713   9.547 -0.0962 -0.1339 -0.3076
74472W        W17389   5.697  26.527   9.005 -0.3871 -0.2195 -0.0483
74473W        W17390   2.677  27.210   3.312  0.2849  0.0770 -0.1425
74474W        W17391   6.752  29.091   6.744 -0.0701  0.2725  0.1718
74475W        W17392   4.552  27.320   5.215 -0.1181 -0.1310  0.4289
74476W        W17393   7.041  28.636   5.285  0.3507  0.0066 -0.1646
74477W        W17394   7.364  28.914   6.255  0.1959  0.0140  0.3195
74478W        W17395   5.904  26.558   7.266 -0.0173  0.0077 -0.0999
74479W        W17396   5.365  29.939   4.075 -0.2395  0.4120 -0.3376
74480W        W17397   3.731  26.900   5.282 -0.3110 -0.1341 -0.0693
74481W        W17398   6.005  27.736   6.953  0.2923 -0.2007 -0.1547
74482W        W17399   6.659  26.426   5.255  0.0682 -0.0197  0.0715
74483W        W17400   5.381  26.567   3.463  0.1275 -0.0766 -0.1623
74484W        W17401   6.244  29.168   7.994 -0.0041 -0.1705  0.0291
74485W        W17402   7.409  28.325   8.675 -0.0671  0.3626  0.1648
74486W        W17403   4.027  28.279   9.552  0.1413  0.1466 -0.0925
74487W        W17404   3.865  29.173   8.928 -0.2548 -0.0472 -0.0375
74488W        W17405   6.975  26.114   7.730 -0.0581 -0.1419 -0.1125
74489W        W17406   5.979  30.340   6.086  0.0216  0.0926 -0.0332
74490W        W17407   6.555  27.216   5.635 -0.4384 -0.0137  0.2366
74491W        W17408   5.566  27.611   3.358  0.0135 -0.1362 -0.2012
74492W        W17409   5.828  28.969   7.149 -0.2464 -0.1614  0.0606
74493W        W17410   4.008  28.725   6.924  0.2879  0.1107  0.1988
74494W        W17411   5.634  26.558   7.735 -0.0786 -0.3958  0.1230
74495W        W17412   2.782  27.922   6.624 -0.1591  0.0943  0.0035
74496W        W17413   7.326  29.916   5.391  0.0688  0.0929  0.0882
74497W        W17414   5.233  29.675   6.988 -0.0264 -0.1879  0.0399
74498W        W17415   6.605  26.800   4.866 -0.2507  0.0152 -0.0260
74499W        W17416   6.165  29.712   4.519  0.1785 -0.0867  0.2831
74500W        W17417   5.567  27.668   5.458  0.2701 -0.1270 -0.0372
74501W        W17418   6.906  25.191   7.319 -0.0648 -0.1553 -0.2377
74502W        W17419   8.190  26.345   4.202  0.2041 -0.1781 -0.2119
74503W        W17420   7.141  27.371   8.179  0.1313  0.1101  0.1607
74504W        W17421   5.144  25.236   5.432  0.0801  0.2506 -0.0137
74505W        W17422   7.677  28.808   4.809  0.0093 -0.2329 -0.0661
74506W        W17423   4.036  27.307   5.090 -0.0884 -0.2031  0.0978
74507W        W17424   5.774  30.385   9.215  0.2294 -0.1181  0.0872
74508W        W17425   4.029  29.287   6.814 -0.0136  0.3757  0.0978
74509W        W17426   5.266  28.285   4.668  0.1259  0.0180 -0.3153
74510W        W17427   3.235  24.247   3.293 -0.0244  0.2366  0.0719
74511W        W17428   7.066  27.414   5.506 -0.3573  0.0624 -0.1095
74512W        W17429   6.782  26.939   6.773  0.0319  0.1011 -0.1357
74513W        W17430   4.342  28.699   6.565  0.0157  0.0883  0.2059
74514W        W17431   6.335  28.079   6.392 -0.1870 -0.0860 -0.0753
74515W        W17432   4.448  28.907   7.069 -0.0586 -0.4814  0.1202
74516W        W17433   7.539  27.221   4.318  0.3040  0.0094 -0.2046
74517W        W17434   5.126  24.689   3.696  0.0190 -0.2291 -0.2326
74518W        W17435   4.995  28.226   6.858 -0.0594 -0.0675 -0.0599
74519W        W17436   5.541  26.399   6.366  0.1553 -0.1688  0.0622
74520W        W17437   6.958  28.706   7.475  0.4205  0.1248 -0.1393
74521W        W17438   5.039  25.586   3.727 -0.3214 -0.1488  0.2687
74522W        W17439   6.197  27.115   8.260  0.1980  0.0161 -0.3235
74523W        W17440   7.010  26.994   7.749 -0.0760  0.0116  0.0811
74524W        W17441   4.804  26.806   7.992  0.0795 -0.1302 -0.0193
74525W        W17442   4.805  25.889   6.738  0.1172 -0.1225  0.1122
74526W        W17443   5.289  29.868   7.415  0.0782  0.0955 -0.2591
74527W        W17444   6.927  29.772   5.137  0.3008  0.2117  0.0382
74528W        W17445   7.862  25.392   8.304  0.0899 -0.0007  0.2950
74529W        W17446   6.465  26.534   6.526 -0.2226 -0.1278  0.2026
74530W        W17447   5.629  28.584   4.143 -0.2598  0.1194  0.0621
74531W        W17448   4.816  27.200   7.650  0.1698 -0.1869  0.3184
74532W        W17449   6.863  29.120   7.216 -0.1319 -0.1097  0.2714
74533W        W17450   3.981  26.332   4.829 -0.2024  0.0739 -0.1452
74534W        W17451   5.731  27.692   7.825 -0.2234 -0.2197 -0.1248
74535W        W17452   5.880  29.579   6.809  0.0933  0.0298  0.2304
74536W        W17453   5.268  30.841   6.788  0.2852 -0.0971  0.1240
74537W        W17454   6.529  25.942   5.336  0.3537  0.0579  0.0236
74538W        W17455   4.650  25.624   4.603 -0.0871 -0.2398  0.1814
74539W        W17456   4.931  29.881   8.343 -0.0798 -0.0756 -0.4189
74540W        W17457   4.039  25.788   4.689  0.0148 -0.2686  0.1193
74541W        W17458   5.884  27.471   1.997  0.1150 -0.3345  0.1275
74542W        W17459   6.263  29.817   7.121  0.3161 -0.2431 -0.0778
74543W        W17460   7.204  30.236   7.719  0.2168  0.0080  0.4174
74544W        W17461   4.329  24.784   2.278  0.2030 -0.0158  0.3928
74545W        W17462   7.186  27.256   7.233 -0.1673  0.1912  0.2286
74546W        W17463   4.489  28.634   3.643 -0.0044 -0.0480  0.1966
74547W        W17464   7.306  26.992   6.766 -0.2076  0.0806  0.2737
74548W        W17465   5.314  29.126   8.116  0.2268 -0.0443 -0.0898
74549W        W17466   1.855  26.812   8.227 -0.2561  0.0147 -0.0388
74550W        W17467   3.788  29.485   6.148  0.1904 -0.0103 -0.0244
74551W        W17468   7.268  25.824   5.466  0.2458  0.0923  0.0517
74552W        W17469   5.949  25.814   3.118 -0.3402  0.1461 -0.2529
74553W        W17470   6.960  28.243   5.686 -0.0615 -0.0657 -0.1782
74554W        W17471   7.612  29.106   9.166 -0.2959 -0.0209  0.0473
74555W        W17472   6.191  27.887   8.800 -0.0656  0.2849 -0.1565
74556W        W17473   5.805  26.662   3.213 -0.1089 -0.0406  0.1728
74557W        W17474   6.245  29.500   6.478  0.1854 -0.0413 -0.2285
74558W        W17475   9.280  29.813   4.741  0.0175  0.3178 -0.3294
74559W        W17476   5.806  29.073   7.674 -0.2309 -0.1238 -0.2013
74560W        W17477   4.780  26.923   7.134 -0.3597 -0.2363 -0.1844
74561W        W17478   6.148  26.601   8.166  0.1519  0.0770  0.1587
74562W        W17479   7.986  27.194   9.661  0.1690 -0.1037  0.0379
74563W        W17480   2.437  24.270   2.450  0.1005  0.1792  0.1007
74564W        W17481   8.373  27.741   4.399  0.0523 -0.0654 -0.1031
74565W        W17482   5.208  30.285   6.419 -0.1749 -0.1471 -0.0041
74566W        W17483   4.613  27.949   5.946 -0.3542  0.2056 -0.1908
74567W        W17484   5.673  29.877   4.654  0.0372 -0.3511 -0.0670
74568W        W17485   7.605  29.154   2.928  0.0587  0.2285  0.1246
74569W        W17486   8.560  28.801   5.447 -0.2194  0.1102 -0.0715
74570W        W17487   5.908  30.624   7.651  0.1780 -0.4142 -0.0678
74571W        W17488   7.046  27.226   4.115 -0.2174 -0.2068  0.1937
74572W        W17489   4.218  30.065   5.777  0.0703  0.0245  0.1470
74573W        W17490   8.726  29.272   3.048  0.2109 -0.1464  0.1517
74574W        W17491   7.353  27.304   3.637  0.0071 -0.0211 -0.0655
74575W        W17492   5.782  28.787   6.631 -0.2184 -0.2996 -0.4128
74576W        W17493   8.686  29.711   9.918  0.1685 -0.1031 -0.0820
74577W        W17494   5.679  27.458   2.864  0.2144  0.2094 -0.1334
74578W        W17495   6.292  27.371   5.066 -0.4331 -0.0062 -0.2407
74579W        W17496   7.908  27.599   5.189  0.2549  0.1239  0.1000
74580W        W17497   6.336  29.116   9.008  0.1537  0.1580  0.1097
74581W        W17498   5.166  26.794   6.260  0.0283 -0.1102 -0.4236
74582W        W17499   5.450  26.511   4.205 -0.0754 -0.2320  0.1303
74583W        W17500   5.025  28.963   9.775 -0.1929 -0.1572  0.1076
74584W        W17501   8.841  26.759   8.584 -0.1886  0.1825 -0.1371
74585W        W17502   6.381  28.662   8.765 -0.3022  0.2851  0.0807
74586W        W17503   8.611  28.880   4.930 -0.1229  0.0855  0.0262
74587W        W17504   4.079  29.082   5.250 -0.3859 -0.0706 -0.1863
74588W        W17505   6.402  25.447   3.874 -0.0042 -0.2662  0.0377
74589W        W17506   6.106  26.829   6.764  0.0394 -0.2551 -0.0619
74590W        W17507   5.555  28.180   5.624 -0.3764 -0.1026 -0.1788
74591W        W17508   6.841  26.958  10.206  0.0890 -0.0009 -0.2159
74592W        W17509   6.961  29.668   5.617  0.1422 -0.1697  0.1655
74593W        W17510   5.748  28.374   6.989 -0.1908 -0.1903  0.0756
74594W        W17511   3.558  29.107   6.919 -0.2448 -0.0547 -0.2919
74595W        W17512   3.804  27.148   3.614 -0.0813 -0.0329  0.1463
74596W        W17513   6.806  26.541   4.158  0.0059 -0.3266 -0.1357
74597W        W17514   5.193  28.021   7.727  0.3050 -0.2633 -0.0683
74598W        W17515   6.952  26.703   6.398  0.0516 -0.2069 -0.2429
74599W        W17516   4.537  27.237   4.624  0.2671  0.1329  0.1918
74600W        W17517   6.062  27.817   5.092 -0.1081  0.3386  0.1498
74601W        W17518   5.140  26.483   7.879  0.1558 -0.2891  0.1924
74602W        W17519   3.453  28.358   8.276 -0.3026 -0.2773 -0.0512
74603W        W17520   5.504  26.628   4.930  0.1397  0.0568 -0.3645
74604W        W17521   8.909  29.205   7.872  0.2694 -0.1930  0.2475
74605W        W17522   4.466  25.752   5.026  0.3148 -0.0065  0.0053
74606W        W17523   6.099  30.178   7.450  0.2544  0.2090  0.1294
74607W        W17524   4.227  25.483   5.384  0.2315 -0.0153  0.1004
74608W        W17525   6.867  28.169   5.059 -0.1967 -0.2216  0.1668
74609W        W17526   3.916  27.439   4.469 -0.1447  0.1281 -0.3524
74610W        W17527   5.794  29.315   8.106  0.2017  0.2629 -0.2555
74611W        W17528   7.842  29.522   9.404  0.0423 -0.2707  0.2064
74612W        W17529   3.800  25.646   3.601 -0.0861 -0.3307  0.1555
74613W        W17530   9.075  29.033   3.254  0.0143  0.0688 -0.1604
74614W        W17531   5.667  28.283   8.332  0.2500  0.2064  0.0354
74615W        W17532   3.989  29.455   3.330  0.2468 -0.0355  0.0321
74616W        W17533   5.890  29.443   4.867 -0.2295 -0.0812  0.2356
74617W        W17534   7.160  29.211   5.487 -0.1111 -0.2587  0.0274
74618W        W17535   4.024  26.677   5.645 -0.1487  0.2101 -0.2873
74619W        W17536   7.630  28.827   6.729 -0.0316  0.0090  0.0309
74620W        W17537   7.751  28.181   9.204  0.0430  0.0715  0.0759
74621W        W17538   4.652  25.542   3.112  0.1171 -0.2045 -0.2798
74622W        W17539   4.426  29.901   7.376  0.1164  0.1815  0.1247
74623W        W17540   4.986  29.176   7.171 -0.0266  0.2220  0.1537
74624W        W17541   4.885  25.107   4.626  0.2945  0.1028  0.1470
74625W        W17542   4.498  27.439   6.559 -0.3417 -0.1261  0.1674
74626W        W17543   7.113  27.757   3.576 -0.2643  0.0533 -0.0348
74627W        W17544   7.762  27.377   8.940 -0.0695  0.3380 -0.0685
74628W        W17545   4.689  28.792   8.710 -0.0884  0.3474  0.0777
74629W        W17546   5.027  29.230   8.762 -0.1963 -0.1004  0.1428
74630W        W17547   5.791  29.536   4.204  0.1310 -0.1664  0.1889
74631W        W17548   5.780  27.540   8.627 -0.0204 -0.4104  0.2720
74632W        W17549   4.228  27.695   7.333 -0.2362 -0.0765  0.1711
74633W        W17550   8.023  29.996   6.059 -0.2115 -0.1983  0.0672
74634W        W17551   8.967  27.781   8.084  0.3938 -0.0123 -0.0358
74635W        W17552   5.584  27.481   6.568  0.0546  0.0955  0.0914
74636W        W17553   7.146  29.058   3.631  0.3406 -0.3913  0.0848
74637W        W17554   6.060  25.709   5.437 -0.0011 -0.1636 -0.1518
74638W        W17555   6.270  26.474   4.947  0.0190 -0.0090 -0.1723
74639W        W17556   6.864  25.557   5.542  0.1027  0.0788  0.2928
74640W        W17557   3.605  28.989   7.931 -0.0894  0.1638 -0.1070
74641W        W17558   6.141  27.416   4.182  0.0981  0.3629 -0.0709
74642W        W17559   5.025  28.259   5.532  0.0014 -0.1778 -0.0609
74643W        W17560   3.763  27.981   6.383  0.4023  0.1266  0.0539
74644W        W17561   6.385  27.470   7.281 -0.1059  0.2659 -0.1267
74645W        W17562   4.448  26.888   7.540  0.2004  0.2462  0.1963
74646W        W17563   5.542  28.710   7.950  0.1366 -0.2250 -0.0786
74647W        W17564   3.384  24.796   4.139 -0.0589 -0.0521  0.2773
74648W        W17565   7.955  27.525   4.622  0.0178 -0.1165  0.0251
74649W        W17566   2.694  25.098   5.338 -0.0389 -0.3431 -0.0816
74650W        W17567   4.142  26.680   5.164 -0.2210  0.0595 -0.1547
74651W        W17568   7.871  29.106   6.148 -0.0666  0.2052  0.0839
74652W        W17569   7.275  28.304   6.561 -0.3121  0.1314  0.1546
74653W        W17570   3.704  23.723   4.149  0.0679 -0.0236 -0.1124
74654W        W17571   7.086  28.222   8.294 -0.1799 -0.2118 -0.0061
74655W        W17572   4.715  28.248   5.071 -0.0861  0.1807  0.0346
74656W        W17573   5.648  27.979   8.830  0.3407  0.2142  0.0489
74657W        W17574   6.291  25.852   7.101 -0.0928  0.0581  0.3519
74658W        W17575   2.915  26.615   5.185  0.2421 -0.2216  0.0665
74659W        W17576   5.341  28.756   6.901  0.0166  0.0526 -0.1973
74660W        W17577   7.084  29.159   2.940 -0.1812  0.0559 -0.2395
74661W        W17578   6.113  29.421   3.813  0.2092 -0.1491  0.0248
74662W        W17579   4.477  27.616   7.954 -0.0596  0.0708 -0.1078
74663W        W17580   6.054  31.139   7.248 -0.3226 -0.1686  0.1439
74664W        W17581   5.433  24.442   6.391 -0.1456  0.3043  0.0007
74665W        W17582   7.863  28.377   6.672  0.3725  0.0186  0.0694
74666W        W17583   4.122  27.704   8.597  0.0408  0.3051 -0.0507
74667W        W17584   7.753  27.434   3.051 -0.1656 -0.1570  0.0160
74668W        W17585   5.890  26.450   4.481 -0.2860  0.0465 -0.0586
74669W        W17586   5.416  28.730   4.637 -0.1916 -0.1658 -0.0700
74670W        W17587   6.040  26.644   6.267 -0.2775  0.0715 -0.0808
74671W        W17588   3.768  28.711   9.150 -0.1873  0.0104 -0.3757
74672W        W17589   5.823  29.846   6.327 -0.0758 -0.1190 -0.1772
74673W        W17590   5.834  26.202   5.044 -0.2701  0.0753  0.3634
74674W        W17591   4.999  27.164   4.809  0.0933 -0.0729  0.2768
74675W        W17592   4.675  28.730   7.892  0.0660  0.2869 -0.2886
74676W        W17593   4.586  27.911   7.005 -0.0301  0.1335 -0.1342
74677W        W17594   4.916  27.454   7.194 -0.2652  0.1610  0.1034
74678W        W17595   4.139  28.883   7.751 -0.0040 -0.1401 -0.1021
74679W        W17596   6.255  29.064   7.411 -0.1828 -0.1396 -0.1562
74680W        W17597   7.757  28.747   8.088 -0.2146 -0.0746 -0.3256
74681W        W17598   6.092  28.405   3.887 -0.0220  0.1071  0.1856
74682W        W17599   5.014  27.595   4.439  0.1389 -0.0751 -0.0758
74683W        W17600   5.527  31.853   6.579  0.0602  0.3520 -0.0337
74684W        W17601   8.683  28.823   7.114 -0.0302  0.1969  0.0153
74685W        W17602   4.761  29.988   7.742  0.2552 -0.0781 -0.0570
74686W        W17603   7.068  27.914   6.823  0.2168 -0.1937  0.0813
74687W        W17604   4.380  25.659   7.071  0.2400  0.0129 -0.1890
74688W        W17605   4.159  26.351   4.294  0.0630 -0.2210  0.2088
74689W        W17606   4.828  27.132   6.144 -0.0445  0.2054  0.4074
74690W        W17607   5.965  27.432   9.140 -0.2679  0.0464  0.0552
74691W        W17608   4.226  27.706   4.865 -0.0018 -0.0051 -0.1186
74692W        W17609   6.250  27.143   4.622  0.1759 -0.3366 -0.3645
74693W        W17610   9.026  31.023   8.192 -0.1701 -0.2040  0.0096
74694W        W17611   4.204  29.365   8.552  0.0907  0.2708  0.0356
74695W        W17612   7.056  28.053   8.847  0.3237 -0.1330  0.2275
74696W        W17613   5.085  27.254   9.301 -0.1363  0.0358  0.2627
74697W        W17614   9.036  26.868   9.702  0.2284 -0.2989  0.2909
74698W        W17615   6.305  29.041   9.672  0.2280  0.2568  0.1745
74699W        W17616   4.050  26.575   7.394  0.0801  0.0358 -0.0119
74700W        W17617   6.064  31.024   9.844 -0.2396 -0.2545  0.1043
74701W        W17618   6.548  28.721  11.294 -0.2563 -0.4157  0.0847
74702W        W17619   5.646  29.421  10.856  0.0779 -0.0711 -0.1619
74703W        W17620   4.767  29.829   9.184 -0.1243 -0.0831 -0.0249
74704W        W17621   7.783  26.465  11.033  0.0132  0.0401  0.0692
74705W        W17622   6.468  25.888   9.128  0.0768 -0.3253  0.3591
74706W        W17623   2.597  25.198   8.825 -0.2545 -0.0486 -0.2614
74707W        W17624   8.163  27.790  10.298 -0.1861 -0.1855 -0.1599
74708W        W17625   5.868  25.513   9.194  0.3023 -0.1827  0.4889
74709W        W17626   6.086  24.950   9.301  0.3489  0.2287  0.2360
74710W        W17627   7.162  25.274   8.989  0.0887  0.1449  0.1645
74711W        W17628   6.585  29.416   8.570  0.3253 -0.2510  0.0543
74712W        W17629   6.026  26.153   9.035 -0.0499 -0.0996  0.0356
74713W        W17630   8.083  29.069   9.348 -0.1414 -0.1393 -0.0562
74714W        W17631   3.724  26.219   6.354 -0.0435  0.0578 -0.1826
74715W        W17632   3.218  26.491   9.049  0.0823  0.0173 -0.2404
74716W        W17633   4.038  28.856  10.836  0.0680 -0.0225 -0.4608
74717W        W17634   7.494  26.026   8.873 -0.2829 -0.3532 -0.0789
74718W        W17635   8.004  29.954  11.315 -0.0724  0.0916 -0.0371
74719W        W17636   5.151  28.405  11.307 -0.0389  0.2290 -0.2659
74720W        W17637   6.550  28.958   8.326  0.1653 -0.1090  0.2379
74721W        W17638   2.781  28.659   9.210  0.1332  0.6015  0.4863
74722W        W17639   2.710  30.869  10.496 -0.0275  0.1197 -0.3471
74723W        W17640   6.269  27.576   9.971  0.5568  0.0217  0.1455
74724W        W17641   7.769  29.156  10.848 -0.1684  0.1655 -0.2396
74725W        W17642   3.124  30.017   7.889  0.0738 -0.2157  0.2778
74726W        W17643   5.766  26.275  12.090  0.4107  0.3027 -0.2450
74727W        W17644   7.388  26.693  10.238  0.0318 -0.0387 -0.1150
74728W        W17645   5.048  29.574   7.901 -0.0637 -0.0737 -0.0639
74729W        W17646   7.048  29.428  10.842  0.2235  0.0211 -0.1302
74730W        W17647   2.494  25.404   9.297  0.1058 -0.1469  0.1638
74731W        W17648   6.406  28.705   9.279  0.0028  0.1017 -0.1461
74732W        W17649   4.177  28.743   8.784 -0.2394  0.3375 -0.5285
74733W        W17650   5.284  28.333   8.670  0.2846 -0.0405  0.0640
74734W        W17651   7.352  27.873   9.222 -0.0417 -0.1140 -0.0650
74735W        W17652   5.150  25.313   8.489  0.0395 -0.1246 -0.3940
74736W        W17653   5.245  28.089  10.925  0.0345 -0.2588  0.0414
74737W        W17654   5.906  26.210   9.855 -0.1680  0.2265 -0.0905
74738W        W17655   7.148  24.752  10.108  0.0821  0.0067  0.1514
74739W        W17656   3.720  27.725   9.993 -0.0317  0.0099 -0.2400
74740W        W17657   6.512  22.559  12.748 -0.1333  0.1694  0.1766
74741W        W17658   4.115  26.721   7.906 -0.0988  0.2710 -0.0001
74742W        W17659   7.939  32.337   8.137  0.3250  0.1149 -0.0927
74743W        W17660   7.256  28.528  10.970 -0.1488  0.0494 -0.1346
74744W        W17661   6.466  27.052  11.924  0.1686  0.1714 -0.2326
74745W        W17662   4.269  27.167   8.831 -0.0236 -0.1212 -0.2052
74746W        W17663   4.738  26.866   6.615  0.0770  0.1924 -0.0470
74747W        W17664   8.200  26.458   9.260 -0.0922 -0.2021 -0.1390
74748W        W17665   7.505  27.488  10.836  0.4117  0.1387 -0.1817
74749W        W17666   8.681  26.845  11.370  0.3607  0.3166 -0.1763
74750W        W17667   3.603  27.626   8.428 -0.1068 -0.1267  0.1825
74751W        W17668   7.389  28.541  11.510  0.0226 -0.2771  0.0778
74752W        W17669   6.262  28.297  11.256  0.1752  0.0284 -0.1242
74753W        W17670   6.070  26.849   8.991 -0.2490  0.1606  0.0427
74754W        W17671   6.883  27.749   8.429  0.1239 -0.0363  0.0609
74755W        W17672   9.477  31.380   9.774  0.1746 -0.5001 -0.0644
74756W        W17673   6.317  27.399   8.671  0.0888  0.1954  0.1754
74757W        W17674   4.597  27.423   9.163 -0.1344 -0.2736  0.0368
74758W        W17675   5.163  31.031   9.884  0.1419 -0.0918 -0.1927
74759W        W17676   3.805  28.102   8.075 -0.1147  0.0017  0.3175
74760W        W17677   5.040  27.121  10.038 -0.0385  0.1335 -0.0258
74761W        W17678   2.227  25.295   8.145 -0.4744 -0.0529 -0.2619
74762W        W17679   1.827  25.582   9.325  0.1768  0.1768 -0.1600
74763W        W17680   8.591  26.231   8.562 -0.1784  0.4089  0.1660
74764W        W17681   6.845  26.436  10.234  0.0891 -0.1770  0.1507
74765W        W17682   4.119  27.627   9.258 -0.0593 -0.0210  0.0469
74766W        W17683   6.783  28.358   9.564  0.2253 -0.2083  0.0264
74767W        W17684   8.727  28.507   8.601  0.0245  0.2082 -0.0620
74768W        W17685   7.236  29.510   7.285 -0.1238 -0.0468 -0.0462
74769W        W17686   2.794  24.992   9.238  0.4201 -0.0376 -0.2053
74770W        W17687   3.181  28.247   9.932  0.0626 -0.2091  0.1560
74771W        W17688   4.543  26.897   8.572 -0.0430  0.0577 -0.0360
74772W        W17689   5.185  24.498   9.721 -0.1275  0.1447  0.0978
74773W        W17690   6.978  25.971   9.065 -0.1443  0.1449  0.0170
74774W        W17691   5.330  27.315   8.699 -0.1635  0.2978  0.2776
74775W        W17692   4.752  27.977  10.468  0.1519 -0.1599 -0.1679
74776W        W17693   6.376  28.575  10.297  0.0897  0.3112 -0.0952
74777W        W17694   5.807  31.534  10.648 -0.0708  0.0068  0.0786
74778W        W17695   6.206  28.102  10.253  0.0877  0.0929  0.1677
74779W        W17696   3.118  25.585   9.529 -0.0629 -0.1130  0.1149
74780W        W17697   6.076  26.066   7.904  0.3309 -0.0430 -0.1677
74781W        W17698   5.483  28.252   9.239  0.3725  0.1649 -0.1654
74782W        W17699   2.149  25.988   9.219  0.1877  0.1205  0.0306
74783W        W17700   7.105  26.332   9.467  0.1421  0.0870 -0.1960
74784W        W17701   6.988  27.222  10.993 -0.1947 -0.0416  0.2567
74785W        W17702   6.057  26.711  12.017 -0.1233 -0.0820  0.1443
74786W        W17703   7.158  25.592  10.360  0.0789  0.3164  0.0524
74787W        W17704   6.126  26.361  10.559  0.1937  0.3076 -0.0556
74788W        W17705   5.553  27.165   5.621  0.0360  0.1685 -0.0278
74789W        W17706   5.783  29.216  10.042  0.1455 -0.1246  0.0547
74790W        W17707   5.176  30.577   8.223 -0.3096 -0.0535  0.1170
74791W        W17708   3.958  27.507  10.342 -0.0026  0.1307  0.3128
74792W        W17709   4.917  30.644   8.650 -0.1238  0.2749 -0.0768
74793W        W17710   6.351  25.995   8.661 -0.0649 -0.1469  0.2188
74794W        W17711   5.486  26.010   8.989  0.1933 -0.0276  0.2247
74795W        W17712   5.733  26.975   8.519  0.1759  0.1135 -0.1698
74796W        W17713   7.486  26.955   7.531  0.1498  0.0753 -0.3553
74797W        W17714   5.461  28.093   9.723  0.0533 -0.1321  0.0849
74798W        W17715   6.166  26.674   7.651  0.0511  0.3571 -0.2524
74799W        W17716   7.609  26.340   9.277 -0.1087  0.0094  0.2829
74800W        W17717   6.657  29.239  11.236  0.1030  0.2111 -0.3228
74801W        W17718   7.792  26.702  10.577 -0.2328 -0.4060  0.4075
74802W        W17719   4.883  27.267   8.817  0.1897  0.0254 -0.1407
74803W        W17720   7.975  30.210   8.837 -0.1106  0.0893 -0.0091
74804W        W17721   3.824  25.916   6.737 -0.0805  0.2853 -0.4610
74805W        W17722   7.253  28.816   9.319  0.1290 -0.2286 -0.1252
74806W        W17723   7.296  26.384  10.836 -0.1410  0.2643 -0.1831
74807W        W17724   5.349  25.726   7.116 -0.1876 -0.0805 -0.2820
74808W        W17725   8.179  28.000   9.268  0.2240  0.0010 -0.1690
74809W        W17726   4.623  27.962   8.320  0.0393 -0.1655  0.5214
74810W        W17727   6.635  26.069  11.496 -0.4757 -0.0399  0.1458
74811W        W17728   6.254  27.654   7.784 -0.1323  0.0474  0.1663
74812W        W17729   8.012  27.767   9.798  0.0998  0.0235 -0.4680
74813W        W17730   7.672  28.189  10.700 -0.2367  0.0809  0.1638
74814W        W17731   3.871  27.033   6.148  0.1331  0.1635 -0.1715
74815W        W17732   6.929  26.058  10.575  0.0218 -0.5186 -0.2332
74816W        W17733   3.990  28.621  11.340  0.4983 -0.2662  0.1689
74817W        W17734   7.113  29.743   9.854 -0.0977  0.3872  0.0083
74818W        W17735   5.697  24.077   7.482 -0.1523  0.3704  0.0996
74819W        W17736   3.751  30.356  10.024  0.1126  0.2090  0.2034
74820W        W17737   6.103  28.180   7.928 -0.5291 -0.0798 -0.2330
74821W        W17738   4.846  28.431  10.705 -0.3997  0.0932  0.0244
74822W        W17739   8.087  26.075  11.090 -0.1021 -0.0145 -0.0755
74823W        W17740   7.253  28.824   8.826 -0.2401  0.0287  0.0278
74824W        W17741   6.124  28.960  10.408  0.3016 -0.0249  0.1298
74825W        W17742   6.536  27.962   9.763 -0.0776 -0.0646  0.2719
74826W        W17743   6.251  23.755   8.640  0.0166 -0.3520  0.0398
74827W        W17744   3.577  28.052  12.147  0.3974 -0.0840 -0.1764
74828W        W17745   6.951  27.253   8.575 -0.0820 -0.2310  0.3200
74829W        W17746   4.968  27.722   8.052  0.1771 -0.0172 -0.0932
74830W        W17747   9.467  26.634   8.592 -0.1643  0.2156  0.1585
74831W        W17748   7.859  28.734  10.080  0.0001  0.1169  0.0907
74832W        W17749   4.130  25.246   9.372  0.1452 -0.3798 -0.1251
74833W        W17750   7.822  27.608   9.365 -0.1326  0.1206  0.0046
74834W        W17751   1.264  29.618   9.933 -0.0860 -0.0591  0.0914
74835W        W17752   7.354  27.087   8.959 -0.0500 -0.2775 -0.0363
74836W        W17753   3.500  27.124   8.473 -0.4731 -0.1844 -0.4625
74837W        W17754  10.102  27.159  10.597  0.2506  0.1364 -0.1135
74838W        W17755   5.761  28.965  11.691 -0.2743  0.1971 -0.2467
74839W        W17756   5.167  27.922   8.981  0.1897  0.1792  0.2189
74840W        W17757   5.554  29.479  11.902 -0.2336  0.0819 -0.2355
74841W        W17758   5.115  26.744   7.464 -0.0712  0.2984 -0.1422
74842W        W17759   4.784  28.484   8.305 -0.0856 -0.0099  0.1720
74843W        W17760   9.296  29.304  10.931  0.2495 -0.0226  0.4169
74844W        W17761   6.554  26.972   9.803 -0.2740  0.0521 -0.2955
74845W        W17762   5.512  26.844   7.144  0.0752 -0.4507  0.2001
74846W        W17763   4.679  23.222   9.122 -0.2628  0.1308 -0.0449
74847W        W17764   5.853  28.520   9.568  0.1637  0.0115  0.0719
74848W        W17765   6.873  26.847  11.742  0.1889 -0.0397  0.0908
74849W        W17766   5.072  20.111   9.748 -0.0338 -0.1164 -0.0620
74850W        W17767   8.301  30.134   9.716 -0.2350  0.0083  0.0517
74851W        W17768   6.251  27.226   9.561  0.2578 -0.3687 -0.1766
74852W        W17769   5.715  26.675   9.496 -0.2157 -0.5110 -0.2636
74853W        W17770   7.656  28.659   9.024  0.0453 -0.0250  0.0504
74854W        W17771   7.826  26.949  10.066  0.1255  0.1751  0.0878
74855W        W17772   5.407  27.420  10.367 -0.0426  0.0754 -0.1218
74856W        W17773   5.135  28.751   8.964  0.0988 -0.3607  0.0493
74857W        W17774   5.287  28.642  10.788  0.1410  0.1963  0.0709
74858W        W17775   8.465  26.598   8.834  0.2471  0.1271 -0.0135
74859W        W17776   6.809  28.998   9.343  0.1260 -0.1988 -0.0917
74860W        W17777   8.228  27.254  10.140 -0.0203 -0.0688 -0.1302
74861W        W17778   8.122  28.538   9.279  0.2222 -0.0756 -0.0980
74862W        W17779   8.311  26.961   9.352 -0.0209 -0.0843  0.0404
74863W        W17780   7.447  30.053  10.663 -0.1835  0.1321 -0.1197
74864W        W17781   4.848  29.052   8.253 -0.1741 -0.1289  0.1667
74865W        W17782   4.399  24.919   6.613  0.0152 -0.2617 -0.2699
74866W        W17783   3.464  28.927  10.703 -0.0042  0.0834  0.4263
74867W        W17784   7.218  28.033  10.924  0.0415 -0.3817 -0.0334
74868W        W17785   4.174  29.451  11.465  0.1930  0.0159  0.2677
74869W        W17786   8.811  26.496  10.098  0.2616 -0.1176 -0.4731
74870W        W17787   7.393  26.916  10.831  0.3283  0.0449 -0.1824
74871W        W17788   8.637  27.813   9.531  0.1904 -0.2589 -0.0923
74872W        W17789   7.061  28.076   9.815 -0.2467 -0.3340  0.2713
74873W        W17790   6.518  29.013  10.093 -0.1982 -0.1517  0.0932
74874W        W17791   3.387  23.699   7.894 -0.0112 -0.4357  0.1426
74875W        W17792   6.022  25.207   7.768  0.1100 -0.0740 -0.1005
74876W        W17793   4.089  28.119  11.275  0.2762  0.2653  0.2348
74877W        W17794   6.135  28.076   7.363 -0.2449 -0.0952  0.0665
74878W        W17795   7.676  27.758  10.435 -0.2157  0.0228 -0.0933
74879W        W17796   6.094  27.745   8.259  0.1220  0.5201  0.1179
74880W        W17797   4.835  28.879   9.328  0.2339  0.0686  0.1180
74881W        W17798   4.754  26.069   9.252  0.0954 -0.0333  0.0734
74882W        W17799   5.891  27.419   7.378  0.0173  0.3315 -0.0024
74883W        W17800   5.596  28.230   7.838  0.0247 -0.2176  0.0108
74884W        W17801   5.428  28.510  10.040  0.1307  0.1791 -0.1040
74885W        W17802   9.392  29.416  10.122  0.0933  0.3172 -0.1646
74886W        W17803   3.762  25.356   8.295  0.0921  0.0360  0.2515
74887W        W17804   3.699  27.448   5.407 -0.1439 -0.0080 -0.0065
74888W        W17805   6.661  27.455   9.621 -0.0658  0.0928 -0.0670
74889W        W17806   5.739  27.918  10.606 -0.0136 -0.0448  0.1082
74890W        W17807   7.518  27.232   8.503 -0.1484  0.0490 -0.0171
74891W        W17808   5.319  28.616   9.510  0.0515  0.1702  0.0951
74892W        W17809   7.966  27.391  10.553 -0.0047  0.0285 -0.0819
74893W        W17810   2.928  29.506  10.870 -0.0919  0.2888 -0.0706
74894W        W17811   4.858  27.522  10.197  0.1085 -0.1272  0.1418
74895W        W17812   7.873  26.445   8.878  0.0173  0.1624  0.2245
74896W        W17813   6.433  25.924  10.604 -0.1862 -0.0576 -0.2657
74897W        W17814   5.554  28.516  11.697 -0.0107  0.2477  0.0288
74898W        W17815   6.961  26.782  10.692  0.1035 -0.0002 -0.2254
74899W        W17816   8.632  26.057  10.733  0.1428 -0.1157  0.1353
74900W        W17817   5.873  28.414  10.484 -0.0571 -0.1710  0.1011
74901W        W17818   3.050  27.220   9.432  0.1412 -0.1769  0.0723
74902W        W17819   5.564  25.797   9.632  0.0142 -0.0270 -0.1027
74903W        W17820   4.492  29.249   7.920 -0.1261  0.3310  0.0294
74904W        W17821   4.581  27.053   9.546  0.0550 -0.0632 -0.1703
74905W        W17822   4.874  29.567   7.407  0.0916 -0.0588 -0.1362
74906W        W17823   6.648  30.794   9.014  0.0853 -0.3838 -0.2420
74907W        W17824   4.408  28.581   9.282  0.0314  0.2233 -0.1580
74908W        W17825   5.939  27.205  12.004  0.2125 -0.1274 -0.4205
74909W        W17826   7.501  27.964   9.698 -0.1425  0.1962 -0.0788
74910W        W17827   3.309  29.256  11.138 -0.0384  0.0700 -0.0963
74911W        W17828   3.495  30.448   7.588  0.0547 -0.0018  0.1089
74912W        W17829   6.853  28.561   9.026 -0.0697  0.2107  0.0709
74913W        W17830   6.217  28.531   7.180 -0.0329  0.0545 -0.0228
74914W        W17831   9.710  26.889   9.053  0.2918  0.2143 -0.1050
74915W        W17832   7.763  27.882   8.795  0.1409 -0.0107 -0.0713
74916W        W17833   6.127  27.319  11.553 -0.2954 -0.2772  0.1501
74917W        W17834   5.424  27.226   9.673  0.0977  0.0006  0.3225
74918W        W17835   5.690  27.079   7.657 -0.0528  0.3135  0.0964
74919W        W17836   6.639  29.430   9.203  0.0069  0.2431 -0.1800
74920W        W17837   4.103  26.595  10.143  0.0421 -0.2527  0.0680
74921W        W17838   4.234  26.871   9.797 -0.2547  0.0877 -0.0197
74922W        W17839   7.946  26.163   9.723 -0.1462  0.0707 -0.0218
74923W        W17840   4.274  28.387   6.221  0.0252  0.1256  0.0023
74924W        W17841   5.481  26.422  10.196 -0.1115  0.0975 -0.0936
74925W        W17842   5.525  27.583   9.224  0.0911 -0.3410  0.2651
74926W        W17843   7.224  28.069  11.690 -0.1252  0.2390 -0.0002
74927W        W17844   4.940  28.512   9.846 -0.1363 -0.1544 -0.1536
74928W        W17845   4.864  26.420   7.023  0.1241 -0.2005 -0.0972
74929W        W17846   7.195  30.029   8.922 -0.0731 -0.3216  0.1687
74930W        W17847   5.550  27.657  11.315  0.1944  0.2491  0.2322
74931W        W17848   4.033  26.369   6.933  0.4137 -0.0306 -0.1501
74932W        W17849   6.478  26.674  10.461 -0.0062 -0.0085  0.0760
74933W        W17850   6.808  29.361   9.700  0.0282  0.0562  0.2163
74934W        W17851   5.198  26.015   9.418 -0.1315 -0.0074  0.0960
74935W        W17852   4.685  29.249  10.126 -0.1319  0.0076  0.2853
74936W        W17853   5.456  27.829   8.371  0.1330  0.2601 -0.0613
74937W        W17854   3.474  25.920   7.099  0.0196  0.0990 -0.3058
74938W        W17855   7.143  27.561   9.658  0.2248  0.0601 -0.0697
74939W        W17856   3.626  26.797   8.795 -0.2247 -0.0921 -0.0523
74940W        W17857   6.234  30.547  11.194 -0.3783  0.2297 -0.1323
74941W        W17858   4.793  25.103   9.523 -0.0904 -0.1167  0.1037
74942W        W17859   7.111  29.615   8.566 -0.0295  0.0039  0.1226
74943W        W17860   7.171  27.707  11.300 -0.1407  0.1753 -0.1105
74944W        W17861   5.573  28.948   9.739 -0.2619  0.0810 -0.0429
74945W        W17862   6.530  30.362   9.673  0.0254  0.0489  0.1188
74946W        W17863   7.051  26.431  11.580 -0.1300 -0.0186  0.0042
74947W        W17864   5.132  26.222   9.888  0.0373 -0.0598  0.0608
74948W        W17865   5.713  29.429   9.494  0.1279 -0.1199  0.1107
74949W        W17866   7.831  29.166  10.315 -0.4511  0.2545 -0.3084
74950W        W17867   5.690  25.604   7.893 -0.0664 -0.1588 -0.0966
74951W        W17868   6.975  26.666   9.840  0.2107  0.0549 -0.0333
74952W        W17869   3.117  28.514   8.836 -0.0564 -0.4213  0.0791
74953W        W17870   9.226  27.952  10.567 -0.2828 -0.0674  0.0135
74954W        W17871   5.028  29.061   7.664  0.0427  0.0925 -0.1932
74955W        W17872   4.013  27.371   9.724  0.1485 -0.0799 -0.3475
74956W        W17873   3.847  28.652   8.202 -0.1581 -0.1005 -0.3351
74957W        W17874   7.261  27.082   9.919  0.4518 -0.0735  0.1775
74958W        W17875   4.190  30.187   8.218  0.0708 -0.2599 -0.1853
74959W        W17876   7.130  30.405  10.814 -0.3396 -0.1708  0.2370
74960W        W17877   6.619  27.968  11.048  0.2242  0.0035  0.1063
74961W        W17878   6.737  30.028  10.019  0.2284 -0.0478 -0.1776
74962W        W17879   4.521  25.004   9.120  0.2073  0.2750  0.0429
74963W        W17880   7.402  26.584   8.895 -0.0626  0.0637 -0.2188
74964W        W17881   7.561  27.180  10.418 -0.0028  0.0427 -0.2944
74965W        W17882   8.056  28.993  11.267  0.0535 -0.4472 -0.2465
74966W        W17883   5.180  25.554   8.023 -0.3139 -0.2035  0.1596
74967W        W17884   4.221  28.452   7.963  0.2334  0.2976 -0.2145
74968W        W17885   5.154  28.115  10.174  0.1145  0.1361  0.4234
74969W        W17886   3.369  25.456  10.001  0.2427  0.0283  0.1526
74970W        W17887   5.371  26.099   8.092  0.2348  0.2648  0.1563
74971W        W17888   7.388  29.336   8.013  0.3858 -0.0069  0.1540
74972W        W17889   3.815  25.446   9.689  0.0192  0.0285 -0.2420
74973W        W17890   2.192  24.133   8.992  0.1212  0.0932 -0.0995
74974W        W17891   8.528  29.548  10.782 -0.3049 -0.0069 -0.3764
74975W        W17892   6.782  28.832  10.492  0.2456 -0.0788 -0.1509
74976W        W17893   5.883  26.795  10.480 -0.1213  0.0543  0.1695
74977W        W17894   5.367  30.207   9.534  0.1009 -0.1247 -0.2199
74978W        W17895   3.264  25.731   7.542  0.0294  0.3005  0.2425
74979W        W17896   5.293  26.776   8.770  0.0272  0.2055 -0.1436
74980W        W17897   5.265  28.762   8.475  0.2508 -0.0007 -0.1824
74981W        W17898   7.338  30.496   8.163  0.0783  0.2018 -0.2838
74982W        W17899   2.466  27.459   9.468 -0.3305  0.3570 -0.0162
74983W        W17900   7.693  28.227  10.108  0.1242  0.0932  0.2291
74984W        W17901   8.016  28.272   9.691 -0.0858 -0.1834 -0.2034
74985W        W17902   8.037  25.046   9.643 -0.0459 -0.1078  0.0266
74986W        W17903   6.866  27.848   9.314 -0.0277 -0.0667  0.3098
74987W        W17904   8.349  27.703  10.846  0.2586  0.0086 -0.0871
74988W        W17905   4.974  27.752   8.571  0.2291 -0.2357  0.1622
74989W        W17906   5.457  26.300  11.733  0.0976  0.1412 -0.2530
74990W        W17907   6.780  29.779   8.877  0.1162 -0.1070 -0.1047
74991W        W17908   3.518  25.964   8.100  0.1463 -0.0802  0.0516
74992W        W17909   5.824  27.623   9.625 -0.1432  0.0911  0.0715
74993W        W17910   7.246  28.228  10.346  0.3793  0.0744  0.1257
74994W        W17911   6.480  27.219   9.080 -0.0385 -0.1431 -0.0784
74995W        W17912   6.883  26.671  11.209  0.0002 -0.1493  0.0717
74996W        W17913   4.697  28.155  11.161  0.0406  0.1114  0.2681
74997W        W17914   4.003  29.291   9.829  0.1295  0.1779  0.0077
74998W        W17915   9.466  25.573   9.641 -0.1037 -0.1840  0.1897
74999W        W17916   5.577  27.499  10.805  0.2009 -0.2300 -0.0521
75000W        W17917   3.064  26.054   9.294 -0.2850  0.0498  0.3853
75001W        W17918   5.781  28.183  11.425 -0.1244 -0.0203  0.1168
75002W        W17919   3.324  27.237   9.914  0.1887 -0.0708 -0.0515
75003W        W17920   4.332  23.581   9.446  0.1438 -0.0459  0.2520
75004W        W17921   6.654  27.686   8.903  0.1143  0.0399 -0.0231
75005W        W17922   8.188  30.477  10.648  0.0844  0.0078 -0.4368
75006W        W17923   6.920  25.066  10.453  0.3183  0.0791  0.4511
75007W        W17924   4.197  32.626   5.069 -0.0538 -0.2318  0.0366
75008W        W17925   4.597  30.661   1.006  0.0597 -0.1063  0.0851
75009W        W17926   5.937  29.294   0.610 -0.1577 -0.0646  0.3139
75010W        W17927   8.474  30.430   0.434  0.1188  0.0854  0.2408
75011W        W17928   3.456  29.865   0.064  0.1327  0.1333 -0.0391
75012W        W17929   5.103  32.580   1.345 -0.3927  0.1751  0.0502
75013W        W17930   3.584  29.799   2.211 -0.2233 -0.3684  0.0983
75014W        W17931   8.914  31.371   2.457 -0.3334  0.0612  0.2509
75015W        W17932   7.524  31.134   3.762  0.0367 -0.2711  0.2130
75016W        W17933   4.773  29.226   1.055  0.1222 -0.0839 -0.0591
75017W        W17934   6.798  30.613   2.261  0.0322 -0.0326  0.0090
75018W        W17935   6.500  29.406   4.196 -0.2165  0.0340  0.0091
75019W        W17936   3.593  29.122   2.108 -0.0202 -0.1907  0.1391
75020W        W17937   7.935  32.953   2.194 -0.1197 -0.1926 -0.2871
75021W        W17938   3.320  34.172  30.786 -0.1937  0.1923 -0.1170
75022W        W17939   7.356  30.378   3.582 -0.3852 -0.1903 -0.0059
75023W        W17940   2.885  31.050   1.427  0.1423 -0.0736  0.3410
75024W        W17941   7.007  31.795   0.155 -0.1325  0.0821 -0.2487
75025W        W17942   6.732  32.135   2.026 -0.1604  0.0145 -0.2614
75026W        W17943   6.912  29.588   2.522 -0.0813 -0.0941 -0.2205
75027W        W17944   6.146  32.238   3.059  0.3432  0.4366  0.2417
75028W        W17945   4.383  29.821  31.160 -0.0585  0.0210 -0.1465
75029W        W17946   1.932  29.239   1.663  0.1705 -0.1677  0.2607
75030W        W17947   6.273  32.031   2.572 -0.1459  0.1771 -0.0753
75031W        W17948   7.013  31.387   1.975  0.0520  0.1379 -0.1291
75032W        W17949   4.664  29.944   0.237  0.5483 -0.2836 -0.1416
75033W        W17950   5.848  32.115   1.497 -0.1111 -0.1709 -0.2204
75034W        W17951   7.013  31.509   2.840 -0.0069  0.0293  0.0693
75035W        W17952   8.736  28.725   3.031  0.0058 -0.1014 -0.0348
75036W        W17953   4.009  31.494   2.755  0.0452 -0.2252 -0.0456
75037W        W17954   3.665  32.120   2.679 -0.0059  0.0237 -0.3937
75038W        W17955   6.420  32.597   2.673 -0.0377  0.0042 -0.1060
75039W        W17956   9.306  33.255   0.157  0.1976  0.1077 -0.1181
75040W        W17957   6.301  31.007   3.737  0.0284  0.0262 -0.0084
75041W        W17958   6.343  33.085   5.584  0.0846  0.2424  0.2331
75042W        W17959   4.344  33.009   1.369  0.0447  0.1375  0.2639
75043W        W17960   7.394  31.413   5.496  0.1179 -0.1383 -0.0906
75044W        W17961   5.525  32.654   3.712 -0.2464  0.2139  0.1405
75045W        W17962   7.513  32.681   4.721  0.2439 -0.0445 -0.1379
75046W        W17963   4.996  31.245   2.457 -0.2531 -0.0705  0.1287
75047W        W17964   7.199  30.844  31.481 -0.1276  0.1213 -0.1906
75048W        W17965   7.893  31.411   2.549  0.0580 -0.2160 -0.1677
75049W        W17966   4.638  29.885   4.468 -0.0221  0.1376 -0.3478
75050W        W17967   3.912  30.899   1.449 -0.0366 -0.2577  0.0732
75051W        W17968   8.917  29.302   6.435  0.0557  0.0804  0.0108
75052W        W17969   6.997  32.287   0.286 -0.0254  0.0821 -0.3167
75053W        W17970   6.027  28.223   0.753  0.2459 -0.0544  0.2303
75054W        W17971   4.145  30.434   1.005  0.0619  0.0086 -0.0745
75055W        W17972   6.979  28.714   0.306 -0.0157 -0.0958  0.1715
75056W        W17973   5.178  29.184   0.194  0.0354  0.0682 -0.0727
75057W        W17974   6.239  33.755   2.606  0.0954 -0.3039  0.4029
75058W        W17975   5.241  29.158   4.175 -0.0212  0.0395 -0.1950
75059W        W17976   7.567  31.706   3.099  0.1469  0.0776  0.1260
75060W        W17977   4.139  31.334   1.696 -0.1467 -0.0643 -0.1072
75061W        W17978   5.776  31.676   3.818 -0.0392 -0.1508 -0.0506
75062W        W17979   5.194  30.890   3.957  0.2643  0.0448 -0.3868
75063W        W17980   5.676  31.027   0.294 -0.3730  0.1077 -0.1346
75064W        W17981   6.558  29.054  30.375  0.1030 -0.2306 -0.1424
75065W        W17982   8.730  31.472  30.975  0.1908  0.2162 -0.2426
75066W        W17983   7.105  30.602   1.500  0.4606  0.1612 -0.2124
75067W        W17984   3.044  31.779   2.026  0.2451  0.0736 -0.1519
75068W        W17985   6.970  28.627   4.236  0.2193 -0.3758 -0.3230
75069W        W17986   5.589  29.845   2.460 -0.2426 -0.3782 -0.1807
75070W        W17987   6.603  27.667  31.402  0.0257 -0.0484 -0.0015
75071W        W17988   6.496  32.090   4.441  0.2885  0.1946  0.1334
75072W        W17989   3.985  31.799   4.819  0.0312 -0.1716  0.1100
75073W        W17990   9.701  29.863   1.321 -0.0053  0.0993  0.0759
75074W        W17991   6.486  31.445   2.151  0.0499  0.2250  0.0609
75075W        W17992   6.439  31.327   2.805 -0.2844  0.1714  0.0964
75076W        W17993   5.954  33.027   1.249  0.1325 -0.0415  0.2341
75077W        W17994   6.157  31.020   1.459 -0.2171 -0.1398  0.3160
75078W        W17995   7.646  29.494   3.713 -0.1938 -0.0679 -0.2403
75079W        W17996   4.263  30.194   0.541  0.2191 -0.0758  0.1049
75080W        W17997   7.527  30.820   3.297 -0.0260 -0.0640  0.1265
75081W        W17998   7.196  33.001   3.568  0.1428 -0.1827  0.1948
75082W        W17999   7.922  30.033   0.374  0.1237  0.1342  0.2418
75083W        W18000   4.857  31.277   4.193  0.6022  0.1264  0.1917
75084W        W18001   6.073  30.900   6.073  0.0224 -0.0247  0.0976
75085W        W18002   6.261  32.646   4.860  0.2333  0.0345 -0.0399
75086W        W18003   4.746  32.985   0.569 -0.1525  0.0851  0.0548
75087W        W18004   6.154  29.896   4.041  0.2347  0.2489 -0.0394
75088W        W18005   6.549  30.683   0.757 -0.0768  0.1635  0.0194
75089W        W18006   2.780  28.974   1.176 -0.0887  0.1368 -0.3122
75090W        W18007   4.531  32.043   3.026 -0.0793 -0.0593  0.2596
75091W        W18008   6.842  28.103   1.273  0.0558 -0.0727 -0.1379
75092W        W18009   5.866  30.213   1.674 -0.0132  0.0613 -0.0648
75093W        W18010   6.759  29.761   1.181  0.2241 -0.0790 -0.0047
75094W        W18011   5.016  29.944   0.613  0.0646 -0.0693  0.1148
75095W        W18012   6.689  32.169   2.824  0.2386 -0.2267  0.0493
75096W        W18013   8.932  30.202   2.001  0.4469  0.0057  0.0136
75097W        W18014   8.070  31.528  29.444  0.0667  0.4282 -0.0992
75098W        W18015   3.397  27.123   0.437 -0.0938  0.1129 -0.2091
75099W        W18016   3.683  30.005   1.759  0.2310  0.3216 -0.2320
75100W        W18017   6.284  28.236   4.976 -0.0273 -0.0048  0.0838
75101W        W18018   3.682  29.420   0.274 -0.0067  0.1634  0.0268
75102W        W18019   5.900  30.308   3.755  0.3309 -0.1572 -0.2584
75103W        W18020   4.071  26.590   1.462  0.0525  0.1063  0.0442
75104W        W18021   8.067  29.973   1.942 -0.1983  0.0792 -0.1051
75105W        W18022   7.922  30.382   1.147  0.0987  0.0775 -0.0469
75106W        W18023   3.085  31.325   1.829 -0.0667  0.0465  0.3136
75107W        W18024   7.778  28.375   4.567 -0.2702 -0.5087  0.1382
75108W        W18025   6.764  33.460   1.277 -0.0336  0.1273  0.2686
75109W        W18026   8.244  30.876   1.854 -0.2235  0.2376  0.3078
75110W        W18027   6.818  31.457  31.163  0.0458  0.1725 -0.0294
75111W        W18028   4.150  29.442   0.917  0.1031 -0.3105  0.0692
75112W        W18029   3.688  31.931   0.914 -0.0472 -0.1391 -0.1604
75113W        W18030   4.957  32.181   2.111 -0.0643 -0.0533  0.2038
75114W        W18031   6.294  32.059   1.142  0.3057 -0.1740  0.2285
75115W        W18032   4.029  30.456  31.682  0.3484 -0.1587 -0.2197
75116W        W18033   6.748  32.552   2.277 -0.1549  0.0332  0.1674
75117W        W18034   5.339  30.779   1.772  0.0273 -0.1937 -0.2648
75118W        W18035   5.858  31.437   0.628  0.1448  0.2358  0.0061
75119W        W18036   7.291  28.707   3.210  0.0054  0.1110  0.0453
75120W        W18037   7.683  30.847   4.148  0.3528 -0.1955  0.1596
75121W        W18038   5.710  32.483   1.097 -0.0032  0.0005 -0.0642
75122W        W18039   3.934  29.393  31.263  0.1995 -0.1445  0.0425
75123W        W18040   6.627  32.356   3.981 -0.1172  0.2004 -0.0185
75124W        W18041   3.582  31.237   1.717  0.1816 -0.2846 -0.0272
75125W        W18042   3.326  31.252   2.334 -0.3126  0.0149  0.1218
75126W        W18043   6.351  31.556   1.326  0.1313  0.0410  0.3371
75127W        W18044   8.306  30.563  31.401 -0.0276  0.4542 -0.0783
75128W        W18045   5.181  33.323   4.699  0.2763  0.2510 -0.1010
75129W        W18046   7.133  30.827   3.808  0.1746 -0.0200 -0.0841
75130W        W18047   6.794  29.970   2.059 -0.1580  0.1099  0.0088
75131W        W18048   5.138  33.256   1.007  0.0221 -0.3688 -0.1606
75132W        W18049   7.086  28.581   1.395  0.0937  0.0203 -0.1566
75133W        W18050   6.231  30.074   1.923 -0.0000 -0.0047  0.0952
75134W        W18051   8.002  29.562   6.282 -0.1554 -0.1464 -0.1498
75135W        W18052   7.664  30.065   1.551  0.2811 -0.1903 -0.1330
75136W        W18053   5.933  29.890  31.766  0.1993  0.1158  0.1316
75137W        W18054   6.098  30.612   1.054  0.0469  0.1257 -0.3543
75138W        W18055   4.992  32.162   2.768 -0.3823  0.2666  0.0348
75139W        W18056   6.059  31.342   3.285 -0.1590 -0.1198  0.2520
75140W        W18057   8.463  31.146   1.280 -0.2448 -0.0216 -0.3980
75141W        W18058   4.783  28.805   0.757  0.1269  0.1205 -0.0859
75142W        W18059   7.441  33.017  30.838  0.2681  0.0941  0.3491
75143W        W18060   4.517  31.010   2.210  0.0473 -0.2310 -0.1517
75144W        W18061   7.508  32.265   4.978 -0.1510  0.1627  0.3425
75145W        W18062   6.273  32.373   2.164  0.4475 -0.0371  0.1646
75146W        W18063   6.248  28.192   3.245  0.2399 -0.1961  0.3949
75147W        W18064   3.801  30.733   0.425 -0.0143 -0.0672 -0.2386
75148W        W18065   7.300  30.382   1.951  0.1123 -0.1896 -0.2399
75149W        W18066   2.600  31.660  31.499  0.1598  0.2800 -0.0313
75150W        W18067   6.770  28.350   1.714 -0.0955 -0.0344 -0.0017
75151W        W18068   5.558  29.472   2.760 -0.3540  0.2090  0.0482
75152W        W18069   6.961  29.682   4.187  0.3721 -0.2236 -0.0240
75153W        W18070   7.092  29.959   3.432  0.4054  0.0473  0.0511
75154W        W18071   7.416  30.397   4.128 -0.0577  0.1744  0.0339
75155W        W18072   6.807  31.182   3.143  0.0144 -0.2704  0.1531
75156W        W18073   5.573  33.025   2.622  0.0228 -0.3341 -0.1297
75157W        W18074   8.849  29.349   2.500  0.3458  0.2631  0.1463
75158W        W18075   6.093  29.866   3.518 -0.0887 -0.1977  0.3863
75159W        W18076   5.158  32.550   6.152 -0.1253  0.1998  0.2796
75160W        W18077   7.570  32.594   4.051 -0.3876 -0.2422 -0.0804
75161W        W18078   6.451  29.751   2.682 -0.1995  0.2045  0.1419
75162W        W18079   6.251  30.520   5.612 -0.5891 -0.2477 -0.3503
75163W        W18080   5.122  30.210   0.084  0.1800 -0.4185  0.2185
75164W        W18081   7.160  32.504   0.690 -0.1785  0.1051  0.2343
75165W        W18082   4.413  31.324   0.702 -0.0652 -0.1011 -0.0045
75166W        W18083   5.586  30.280   2.205 -0.0232  0.3554 -0.0038
75167W        W18084   6.683  30.772   2.808 -0.1010 -0.0537  0.0768
75168W        W18085   7.535  32.381   0.441  0.2198  0.0412 -0.0378
75169W        W18086   8.497  31.080   2.964 -0.1135 -0.3200 -0.2227
75170W        W18087   6.726  30.748   1.776 -0.0538  0.1975  0.0920
75171W        W18088   7.873  29.438   3.270  0.2034  0.0352 -0.1731
75172W        W18089   4.470  32.425   2.686  0.0225 -0.3951 -0.2485
75173W        W18090   3.802  29.058   1.060  0.1075  0.1491  0.0486
75174W        W18091   4.195  31.551   1.278 -0.3068  0.3196  0.1859
75175W        W18092   7.579  28.408   2.032  0.0059 -0.0647  0.1213
75176W        W18093   7.125  31.082   1.556  0.4169  0.2663  0.0241
75177W        W18094   4.416  30.966  31.945  0.0043 -0.0822  0.0347
75178W        W18095   6.195  30.426   2.720  0.3338 -0.0487  0.1716
75179W        W18096   5.264  31.823   3.648 -0.2173  0.0082  0.1569
75180W        W18097   6.994  31.692   3.325  0.0419  0.1011  0.0387
75181W        W18098   6.724  29.245   0.218 -0.2611  0.0303 -0.0555
75182W        W18099   7.695  33.477   2.697 -0.1304  0.1254 -0.0800
75183W        W18100   7.234  31.192   4.196 -0.1232 -0.2220  0.1442
75184W        W18101   3.274  30.191   1.443  0.3698 -0.1178 -0.1439
75185W        W18102   7.425  29.859   2.371  0.0401  0.0910 -0.2036
75186W        W18103   6.440  31.936  31.921  0.0843  0.2191  0.0936
75187W        W18104   4.981  32.134   4.484 -0.1468  0.0283  0.0320
75188W        W18105   6.809  31.144   3.633 -0.1123  0.2480 -0.0349
75189W        W18106   8.072  30.784   1.379 -0.3961 -0.0010 -0.0720
75190W        W18107   3.753  30.933   2.343 -0.3071  0.0310 -0.1840
75191W        W18108   6.138  30.046   2.417  0.1308  0.1203  0.0006
75192W        W18109   6.825  30.531   3.257 -0.1642  0.1739  0.1105
75193W        W18110   6.583  29.685   3.803  0.1354 -0.0910 -0.1536
75194W        W18111   3.863  30.845   0.974 -0.0584  0.0493  0.2908
75195W        W18112   7.119  30.920   2.021  0.1136  0.0733 -0.2954
75196W        W18113   7.502  30.422   5.365 -0.2389  0.1632  0.2323
75197W        W18114   6.602  29.150   3.714  0.1961 -0.1334  0.0282
75198W        W18115   4.738  33.322   5.652  0.3376 -0.0848  0.0809
75199W        W18116   7.576  27.891   2.659 -0.4068 -0.0070  0.0681
75200W        W18117   7.359   1.106   0.126 -0.0415  0.3669  0.0539
75201W        W18118   7.057  31.914   4.209 -0.1384  0.1446 -0.1515
75202W        W18119   7.346  32.943   1.714  0.0400 -0.3195  0.0127
75203W        W18120   4.923  29.890   1.682  0.2603 -0.1578 -0.3014
75204W        W18121   6.029  31.945   3.440 -0.1213 -0.0359  0.0341
75205W        W18122   6.008  29.139   2.884  0.1407  0.1093 -0.0147
75206W        W18123   5.983  31.111   2.753 -0.0925  0.1115  0.1720
75207W        W18124   4.297  31.005   1.186 -0.2425  0.0699  0.1420
75208W        W18125   6.015  31.537   2.486 -0.2152  0.2747 -0.0722
75209W        W18126   6.277  29.957   1.346 -0.2540 -0.1507 -0.2505
75210W        W18127   4.774  32.988   2.163 -0.3782 -0.2277  0.1211
75211W        W18128   7.447  30.172   2.860  0.1788  0.1647  0.1203
75212W        W18129   8.767  28.688   6.078 -0.0977 -0.2145  0.0227
75213W        W18130   6.247  31.665   0.811 -0.0905  0.0524  0.1975
75214W        W18131   7.773  29.997   3.932  0.1673 -0.1207  0.2670
75215W        W18132   6.771  28.940   3.232  0.1328 -0.0347  0.0326
75216W        W18133   7.502  31.056   4.592  0.4201  0.1020  0.1199
75217W        W18134   2.791  30.114   1.630  0.2012  0.2055  0.0338
75218W        W18135   5.363  31.518   5.899  0.1653  0.0009 -0.4527
75219W        W18136   5.008  29.554   3.633  0.1240  0.0359  0.0601
75220W        W18137   7.298  31.101   0.689  0.0782  0.1087  0.3325
75221W        W18138   3.894  29.029   0.043 -0.4317  0.1583 -0.0400
75222W        W18139   4.501  30.963   4.355  0.2202 -0.0274 -0.0878
75223W        W18140   5.743  30.701   2.985 -0.0778  0.0698 -0.1982
75224W        W18141   5.705  31.104   1.672 -0.0018 -0.0875  0.3046
75225W        W18142   7.536  29.668   2.893  0.1883  0.3401 -0.0919
75226W        W18143   4.463  30.149   1.822  0.0960  0.1176 -0.0975
75227W        W18144   5.682  28.598   0.893  0.2297  0.0032 -0.2135
75228W        W18145   4.957  30.782   0.012  0.2910 -0.0484  0.4562
75229W        W18146   5.811  32.469   3.362  0.2742  0.5666  0.1102
75230W        W18147   8.477  30.382   1.856 -0.1059 -0.1212  0.1468
75231W        W18148   7.798  31.934   0.872  0.0845 -0.0098 -0.0480
75232W        W18149   5.140  29.915   2.766 -0.1704  0.2758  0.2074
75233W        W18150   6.820  29.134   5.856  0.0404 -0.1995 -0.2566
75234W        W18151   7.990  30.308   2.753 -0.1026  0.2461 -0.2605
75235W        W18152   7.853  30.470   1.816 -0.0080 -0.1374 -0.2733
75236W        W18153   4.843  29.487   4.179  0.0246  0.0551 -0.0158
75237W        W18154   6.886  33.138   3.169  0.1669  0.1813  0.2399
75238W        W18155   7.561  31.312   1.326 -0.0339  0.4568  0.2232
75239W        W18156   8.064  30.876   4.969  0.2465 -0.2958  0.0865
75240W        W18157   7.797  31.498   0.133  0.0064 -0.0682  0.2493
75241W        W18158   4.220  31.638  30.807  0.3477  0.1235 -0.3517
75242W        W18159   6.012  29.304   2.018 -0.1854  0.0152  0.0626
75243W        W18160   5.801  30.263   3.246 -0.0745  0.1543 -0.1348
75244W        W18161   3.460  29.927   0.525  0.1914  0.0757  0.0833
75245W        W18162   7.747  30.549   4.528  0.1570  0.3156  0.0936
75246W        W18163   6.670  32.223   0.767 -0.1256 -0.3471  0.1001
75247W        W18164   7.602  31.846   1.469 -0.1828  0.1125 -0.3288
75248W        W18165   6.441  30.294   0.436  0.3982  0.1644  0.2267
75249W        W18166   2.335  31.121   1.412 -0.1068 -0.1612  0.0401
75250W        W18167   3.995  33.797   4.319  0.0124  0.0091  0.1147
75251W        W18168   3.369  30.709   1.435 -0.4158  0.3977  0.2019
75252W        W18169   5.746  30.433  30.895  0.1194 -0.1315  0.1528
75253W        W18170   9.280  33.533   4.939  0.0431  0.1682  0.2138
75254W        W18171   6.046  32.208   4.557  0.2070  0.0476 -0.1162
75255W        W18172   5.663  26.960  29.772 -0.0029 -0.0471  0.2072
75256W        W18173   8.909  28.996   4.266 -0.2163 -0.0831 -0.0409
75257W        W18174   5.289  31.078   3.491  0.0092 -0.0151  0.0133
75258W        W18175   5.253  29.800   2.055 -0.0210  0.3596  0.1013
75259W        W18176   6.312  30.987   2.411  0.2782 -0.0783 -0.0605
75260W        W18177   3.730  29.927   3.082 -0.2783 -0.0717  0.3142
75261W        W18178   4.302  32.788   0.731 -0.1052  0.1011  0.0835
75262W        W18179   6.090  27.819   1.067  0.3442 -0.0290  0.0194
75263W        W18180   8.047  29.789   1.392  0.1901  0.2913 -0.1368
75264W        W18181   7.291  29.436   3.287  0.1327 -0.3016 -0.0531
75265W        W18182   8.246  28.352   5.192 -0.0297 -0.0361 -0.0018
75266W        W18183   5.694  32.427   4.275 -0.2607 -0.4314 -0.3441
75267W        W18184   4.630  30.078   3.566  0.0381 -0.1749  0.4567
75268W        W18185   7.076  33.509   2.494 -0.2664  0.2661  0.3084
75269W        W18186   8.326  31.459   3.498 -0.3297  0.1151  0.1585
75270W        W18187   7.662  33.839   0.933  0.0087  0.2329 -0.3870
75271W        W18188   3.403  29.865   2.669 -0.1058 -0.0438 -0.0669
75272W        W18189   5.154  29.646   4.489  0.1543  0.2128  0.0438
75273W        W18190   7.061  32.026   3.729  0.1746  0.0820  0.1776
75274W        W18191   5.147  28.509   0.730  0.1024  0.1028  0.2093
75275W        W18192   4.927  31.413   0.638 -0.0611 -0.2321 -0.2867
75276W        W18193   5.028  33.882   3.346 -0.1798  0.0602  0.1698
75277W        W18194   2.909  30.629   0.658  0.2611 -0.0164 -0.1376
75278W        W18195   3.669  34.241   0.369 -0.0313 -0.0975  0.1585
75279W        W18196   8.261  31.477   0.683  0.1857  0.0538  0.1224
75280W        W18197   7.556  31.527   1.865  0.4462 -0.1225 -0.2304
75281W        W18198   5.749  32.328   2.065 -0.0950 -0.1094  0.1983
75282W        W18199   3.547  29.940   1.097 -0.0184 -0.0882  0.2270
75283W        W18200   6.763  32.975   2.588 -0.0019 -0.0190  0.3829
75284W        W18201   3.930  33.155   1.784  0.1147 -0.0068  0.1055
75285W        W18202   6.291  33.481   1.120 -0.1639 -0.0335 -0.1093
75286W        W18203   5.324  32.366   2.359 -0.0108  0.0568  0.0270
75287W        W18204   7.149  29.946   1.402 -0.2105 -0.1777 -0.0263
75288W        W18205   6.725  29.363   2.057 -0.5003 -0.0196 -0.0473
75289W        W18206   7.341  29.848   1.910  0.0844 -0.2017 -0.0053
75290W        W18207   7.115  33.011   4.772  0.0370  0.3784 -0.3252
75291W        W18208   5.837  30.173   1.163 -0.0840 -0.0491  0.0023
75292W        W18209   7.057  27.813   0.858  0.0163 -0.2489  0.1313
75293W        W18210   4.805  29.098   3.296  0.0400 -0.2225  0.2535
75294W        W18211   9.269  27.592   6.578  0.3051  0.1417 -0.0896
75295W        W18212   4.336  30.491   3.830 -0.2069 -0.2860 -0.0218
75296W        W18213   7.712  32.542  31.644  0.2820  0.3477 -0.0784
75297W        W18214   4.504  29.703   0.644  0.0583  0.0164 -0.0819
75298W        W18215   6.754  31.769   2.429  0.0101  0.1555 -0.1683
75299W        W18216   7.035  30.749   1.007 -0.1281  0.2149 -0.3299
75300W        W18217   6.518  31.738   0.417  0.0446 -0.7712 -0.2886
75301W        W18218   6.242  30.529   1.668 -0.0884 -0.2031 -0.0965
75302W        W18219   6.771  32.733   3.505 -0.1594  0.3376 -0.0580
75303W        W18220   4.671  31.715   0.990 -0.3757  0.0286 -0.0476
75304W        W18221   5.403  32.559   2.844 -0.0917  0.0748 -0.3085
75305W        W18222   5.318  29.006   0.732 -0.0902  0.0669  0.0657
75306W        W18223   7.631  30.289   2.344  0.3933  0.1489 -0.2145
75307W        W18224   7.963  29.858   2.466 -0.1955 -0.0874  0.0037
75308W        W18225   8.455  30.542   2.771  0.2440 -0.1615 -0.1898
75309W        W18226   3.212  31.516   0.291 -0.2242  0.4139  0.1321
75310W        W18227   6.576  30.646   1.268  0.0799 -0.1672 -0.1225
75311W        W18228   7.360  30.877   5.403  0.0173  0.0544  0.1312
75312W        W18229   4.473  29.757   1.294  0.0949 -0.0026  0.0315
75313W        W18230   5.810  29.598   1.324  0.0728  0.1424  0.1814
75314W        W18231   8.516  31.007   4.942  0.0211  0.1161  0.0475
75315W        W18232   6.485  30.663  31.563  0.2514  0.1347 -0.1743
75316W        W18233   6.562  31.969   5.482 -0.0542  0.0877 -0.1058
75317W        W18234   3.981  29.065   0.564  0.1084  0.3479 -0.1463
75318W        W18235   7.018  30.444   0.649 -0.0701  0.0408  0.0657
75319W        W18236   5.499  31.110   0.802 -0.0517  0.0975 -0.0716
75320W        W18237   4.966  29.484   2.846 -0.1670  0.0928 -0.1337
75321W        W18238   7.171  30.685   4.500 -0.0253 -0.2668  0.1165
75322W        W18239   3.429  28.333   0.193 -0.0873 -0.1082 -0.0921
75323W        W18240   7.971  32.178   1.778  0.1123  0.2197  0.0162
75324W        W18241   8.268  30.284   3.188 -0.1114  0.1996 -0.0988
75325W        W18242   5.687  32.966   0.736 -0.0383 -0.2039 -0.0913
75326W        W18243   6.719  31.624   4.447  0.0462 -0.2233  0.1982
75327W        W18244   7.393  32.705   1.190  0.1642  0.1998 -0.0036
75328W        W18245   5.773  30.686   2.486  0.0217 -0.1890  0.3261
75329W        W18246   5.311  30.352   3.057  0.1640 -0.0491 -0.0588
75330W        W18247   8.084  30.378   4.872 -0.4519  0.2265  0.5040
75331W        W18248   5.953  28.336   0.213  0.1257  0.3957  0.1326
75332W        W18249   5.207  29.366   1.318  0.1272 -0.1792 -0.0380
75333W        W18250   6.363  34.549   0.855 -0.2139 -0.1020 -0.2648
75334W        W18251   8.642  31.463   5.198 -0.1498 -0.0095 -0.2046
75335W        W18252   7.044  30.135   4.456 -0.2266 -0.1114 -0.3957
75336W        W18253   4.416  32.261   0.686 -0.2047  0.1913  0.0208
75337W        W18254   9.569  30.572   2.436  0.0881  0.0592  0.5334
75338W        W18255   5.831  31.210   4.676  0.2431  0.1121 -0.2367
75339W        W18256   6.321  31.346   4.556  0.1206  0.3850  0.3810
75340W        W18257   6.319  32.348   3.618  0.0217 -0.0390  0.0618
75341W        W18258   6.666  30.258   2.641  0.2772 -0.2736  0.0573
75342W        W18259   5.241  31.862   2.378  0.0260 -0.0327  0.1041
75343W        W18260   6.856  31.217   1.154 -0.0987  0.3498  0.2091
75344W        W18261   7.523  34.280   2.367  0.0629 -0.1993  0.0866
75345W        W18262   6.805  29.465   3.295  0.0782  0.4026  0.1619
75346W        W18263   6.386  30.504   4.011 -0.1726 -0.0350  0.1560
75347W        W18264   3.751  30.476   1.262  0.1039  0.0290 -0.2809
75348W        W18265   8.238  29.256   2.286  0.1798  0.0908  0.1405
75349W        W18266   5.896  28.808   1.878 -0.1650  0.0819 -0.1350
75350W        W18267   7.081  30.501   2.815 -0.1901  0.0897 -0.1094
75351W        W18268   2.216  30.432  31.899  0.0556  0.0168  0.1671
75352W        W18269   6.525  31.469   3.494  0.0804 -0.0377 -0.0448
75353W        W18270   4.347  30.659   1.536  0.0787  0.0298 -0.3086
75354W        W18271   7.920  30.810   2.185 -0.0199  0.1320  0.1962
75355W        W18272   3.814  28.021   3.806  0.0064  0.1985  0.2471
75356W        W18273   4.040  30.051   2.152 -0.0429  0.3119  0.0393
75357W        W18274   4.066  29.960   0.955  0.4747  0.3220 -0.0187
75358W        W18275   7.223  32.699  31.803 -0.0886  0.0395 -0.2983
75359W        W18276   7.632  29.832   1.105 -0.0020  0.2433  0.0029
75360W        W18277   2.872  29.945   3.572 -0.1276  0.0820  0.0008
75361W        W18278   7.937  30.584   0.602  0.1049 -0.0721  0.0487
75362W        W18279   8.658  31.284   0.478  0.0956  0.0355 -0.1730
75363W        W18280   5.622  28.959   1.485 -0.0576 -0.0503 -0.1121
75364W        W18281   7.884  28.861   7.142  0.1948  0.4677 -0.0923
75365W        W18282   6.037  31.927   0.261  0.1171 -0.1760 -0.1149
75366W        W18283   7.292  31.247   3.312  0.0693  0.0730 -0.1601
75367W        W18284   4.646  27.540   3.273 -0.0100  0.4279  0.0802
75368W        W18285   4.769  30.429   0.470 -0.1447 -0.1471  0.2658
75369W        W18286   5.362  30.838   1.289 -0.0209 -0.0727  0.2554
75370W        W18287   5.727  33.454   1.005 -0.2852 -0.0672 -0.0569
75371W        W18288   7.106  32.451   1.991  0.0398  0.0786 -0.0177
75372W        W18289   7.267  32.335   4.399 -0.1500  0.0181 -0.0795
75373W        W18290   5.987  32.696   3.918 -0.1150 -0.0624 -0.2324
75374W        W18291   5.504  29.414   1.685  0.0205  0.4534  0.2516
75375W        W18292   5.877  29.734   0.840  0.0004  0.0860 -0.0398
75376W        W18293   5.837  30.655   1.972 -0.1011  0.1547 -0.0334
75377W        W18294   8.982  29.913  31.228 -0.0282 -0.2330  0.1256
75378W        W18295   7.161  29.919   0.877 -0.2265  0.1772 -0.1692
75379W        W18296   4.773  30.347  31.003 -0.0708 -0.0836  0.1097
75380W        W18297   4.152  30.123   4.504 -0.0305  0.1863  0.0079
75381W        W18298   5.349  31.022   4.434  0.1091 -0.0644 -0.2169
75382W        W18299   6.894  34.387   2.909  0.1212  0.0689 -0.1575
75383W        W18300   4.978  29.791   1.199 -0.0035 -0.1226 -0.3148
75384W        W18301   8.385  29.608   3.176  0.0768 -0.2229  0.1464
75385W        W18302   5.442  32.917   1.278 -0.3755 -0.1887 -0.0762
75386W        W18303   3.144  30.756  31.933  0.1663 -0.0357  0.0411
75387W        W18304   4.983  32.078   1.558  0.0863 -0.2490  0.3025
75388W        W18305   5.650  32.924   4.192 -0.0144 -0.2654 -0.0509
75389W        W18306   5.841  32.753  31.874  0.0896  0.0447  0.2330
75390W        W18307   7.537  31.622   4.126  0.2606 -0.1435  0.0545
75391W        W18308   3.900  30.487   1.752  0.1261 -0.1243  0.0519
75392W        W18309   7.626  29.568   1.522  0.3196 -0.1331  0.3432
75393W        W18310   5.162  31.617   4.503  0.0809 -0.1460  0.1800
75394W        W18311   8.963  31.494   4.241 -0.5006  0.0791  0.0297
75395W        W18312   6.445  32.460   5.303 -0.1299 -0.0776  0.3528
75396W        W18313   7.770  29.487   4.581 -0.0316 -0.1850 -0.0256
75397W        W18314   2.685  28.228   2.596 -0.0332 -0.2453 -0.0182
75398W        W18315   4.696  30.872   2.846  0.1166 -0.2763  0.1282
75399W        W18316   4.368  32.243   3.576  0.3540 -0.0601  0.2796
75400W        W18317   8.297  29.356   0.986  0.0615  0.0075 -0.3155
75401W        W18318   6.290  31.009   1.937  0.5132 -0.0080  0.1408
75402W        W18319   5.485  29.453   0.505  0.0641  0.3376 -0.0587
75403W        W18320   4.131  30.036   3.543 -0.2568 -0.2050 -0.2235
75404W        W18321   5.375  30.980   2.237 -0.3723  0.2148 -0.0251
75405W        W18322   5.195  32.047   7.961 -0.0028 -0.2609  0.1610
75406W        W18323   4.913  30.667   4.422  0.2223 -0.2902 -0.1621
75407W        W18324   7.498  29.085   4.000 -0.2178 -0.1459  0.1206
75408W        W18325   5.261  27.529   7.584 -0.3072 -0.0966 -0.1566
75409W        W18326   3.929  29.684   4.357  0.1351 -0.1824 -0.1794
75410W        W18327   8.186  33.062   4.803 -0.3374 -0.1359  0.1320
75411W        W18328   6.304  29.598   8.191 -0.2685  0.0334 -0.0821
75412W        W18329   7.496  32.173   7.767 -0.5487 -0.0594  0.0384
75413W        W18330   9.706  31.644   8.228  0.0475 -0.0545 -0.0725
75414W        W18331   6.270  30.504   2.192  0.1205  0.1370  0.2377
75415W        W18332   4.780  31.375   7.206  0.0325  0.1838 -0.0868
75416W        W18333   4.151  31.197   7.809  0.0860  0.1585  0.2159
75417W        W18334   5.937  28.395   6.330  0.0536 -0.1809  0.0978
75418W        W18335   5.477  30.066   6.022  0.1615 -0.1565 -0.1253
75419W        W18336   4.656  30.372   5.654 -0.1029  0.2006  0.3801
75420W        W18337   6.558  30.053   4.788 -0.0953 -0.2782  0.2835
75421W        W18338   7.027  30.317   5.076 -0.0987 -0.1298 -0.0004
75422W        W18339   5.864  30.193   5.557 -0.2315  0.2473  0.1441
75423W        W18340   7.603  32.128   3.968  0.0076  0.1283 -0.3320
75424W        W18341   5.571  30.212   7.598 -0.0424  0.0426 -0.0358
75425W        W18342   6.364  30.793   7.420  0.2235 -0.2161 -0.1305
75426W        W18343   5.501  32.990   5.381 -0.0771 -0.1266 -0.2248
75427W        W18344   4.875  29.854   3.236  0.2411 -0.0366 -0.0429
75428W        W18345   4.156  31.315   5.291  0.2570  0.1520 -0.2734
75429W        W18346   4.430  31.348   6.916 -0.3190 -0.0832 -0.0499
75430W        W18347   7.590  28.966   5.280  0.2182  0.1630  0.1562
75431W        W18348   5.959  30.287   8.498  0.1450 -0.0407 -0.0454
75432W        W18349   4.353  30.677   7.994  0.2359  0.1918 -0.2901
75433W        W18350   5.993  30.549   5.158 -0.2817  0.2018 -0.1602
75434W        W18351   6.626  29.808   9.560  0.1758  0.0556  0.0637
75435W        W18352   4.342  31.188   5.861 -0.3573 -0.2634  0.1820
75436W        W18353   5.384  34.197   4.555 -0.0923  0.3551 -0.0060
75437W        W18354   6.380  31.852   3.752 -0.0247  0.2033 -0.0184
75438W        W18355   7.191  31.086   5.846  0.2898  0.0828  0.3198
75439W        W18356   5.294  30.708   7.727 -0.1061  0.1498  0.0617
75440W        W18357   5.690  31.952   7.126 -0.0427 -0.2041  0.1331
75441W        W18358   4.694  31.251   5.417 -0.2892 -0.1380 -0.3152
75442W        W18359   8.353  32.466   8.622 -0.1622 -0.1415  0.0223
75443W        W18360   5.400  32.328   7.324  0.2432 -0.2332 -0.0707
75444W        W18361   5.723  32.289   6.493 -0.0192  0.2914 -0.0717
75445W        W18362   5.884  31.301   4.117  0.0684  0.1214 -0.3064
75446W        W18363   6.289  30.001   6.244 -0.0664  0.3039 -0.2776
75447W        W18364   4.815  31.716   8.699  0.1979  0.1761 -0.1118
75448W        W18365   6.048  30.896   9.343 -0.0252 -0.0396  0.1292
75449W        W18366   4.938  32.917   5.742  0.0454 -0.0450 -0.2634
75450W        W18367   6.153  28.674   8.085  0.0069 -0.0894  0.1611
75451W        W18368   5.367  33.463   5.617 -0.0459  0.0812  0.1582
75452W        W18369   5.160  30.126   3.595  0.2620 -0.0034  0.1553
75453W        W18370   5.430  29.316   3.708  0.0296  0.0504  0.0913
75454W        W18371   7.615  27.952   5.334 -0.1748 -0.0511  0.0343
75455W        W18372   6.051  29.695   7.721  0.0812  0.1214  0.1617
75456W        W18373   4.954  32.577   6.654  0.1740 -0.1186  0.3437
75457W        W18374   4.924  29.366   9.194 -0.0156  0.1382 -0.0305
75458W        W18375   7.899  31.344   7.869  0.2989 -0.0901  0.0169
75459W        W18376   5.846  31.140   2.215 -0.0658  0.0647  0.0515
75460W        W18377   6.766  30.610   5.597  0.2813 -0.2895 -0.1467
75461W        W18378   5.873  32.588   8.987 -0.2381  0.1109 -0.0694
75462W        W18379   6.173  31.718   4.239  0.2519  0.1511  0.1868
75463W        W18380   8.169  31.478   4.956  0.0204  0.2859  0.0847
75464W        W18381   8.921  31.157   6.370 -0.1320 -0.1394  0.2830
75465W        W18382   8.487  33.140   3.750 -0.3461 -0.0223 -0.0285
75466W        W18383   5.212  30.658   4.780  0.0997  0.2309 -0.3351
75467W        W18384   4.782  30.305   9.369  0.1964  0.0890 -0.1585
75468W        W18385   5.192  30.456   5.898 -0.1161  0.3090 -0.0789
75469W        W18386   4.659  30.585   1.955 -0.0853  0.2473  0.0677
75470W        W18387   7.742  31.924   9.279 -0.0075  0.1599 -0.2844
75471W        W18388   4.944  32.194   7.508  0.3417  0.0537  0.2665
75472W        W18389   7.153  28.746   6.889  0.1048 -0.0726  0.3035
75473W        W18390   4.849  30.250   4.795 -0.1640  0.2498  0.2026
75474W        W18391   7.613  31.475   8.314  0.2619 -0.3288 -0.1681
75475W        W18392   6.813  31.118   4.620  0.1641 -0.1346 -0.0432
75476W        W18393   6.066  29.803   5.837 -0.0235 -0.3314 -0.1402
75477W        W18394   8.162  29.036   6.701 -0.2161 -0.4147 -0.3074
75478W        W18395   8.565  30.013   3.561 -0.0757 -0.0681  0.0411
75479W        W18396   6.442  30.122   5.800 -0.0169  0.3421 -0.1171
75480W        W18397   7.019  31.721   8.920  0.1283 -0.0007  0.3532
75481W        W18398   7.581  29.884   3.419  0.0540 -0.1171  0.2335
75482W        W18399   5.664  31.036   7.600  0.2969  0.0733 -0.1953
75483W        W18400   4.910  28.706   7.318  0.0756  0.1554 -0.1195
75484W        W18401   6.531  31.760   9.099  0.0396  0.1438 -0.3325
75485W        W18402   5.603  32.141   5.289  0.0507 -0.1176 -0.2418
75486W        W18403   6.250  29.588   5.159 -0.1030 -0.0962  0.3405
75487W        W18404   5.391  31.355   3.978  0.0923 -0.2657 -0.3067
75488W        W18405   5.367  28.861   7.392  0.0658  0.0320 -0.0478
75489W        W18406   5.846  30.885   6.847 -0.3297  0.1395 -0.0865
75490W        W18407   6.472  30.273   7.082  0.0192  0.1199  0.2988
75491W        W18408   5.382  31.201   4.900 -0.0849  0.1334 -0.2071
75492W        W18409   5.916  30.933   5.543 -0.1199  0.1843  0.2067
75493W        W18410   5.515  29.868   3.084 -0.1496 -0.0531 -0.0536
75494W        W18411   6.183  33.146   4.481 -0.3325  0.1574 -0.2840
75495W        W18412   7.667  29.652   5.871  0.4226  0.0785 -0.0248
75496W        W18413   6.528  31.792   5.045 -0.1569 -0.0344 -0.2824
75497W        W18414   5.090  31.011   5.276  0.1235  0.1179  0.1536
75498W        W18415   5.218  29.369   4.996 -0.0274 -0.1084  0.1399
75499W        W18416   5.546  30.728   7.201 -0.1989  0.2505  0.0930
75500W        W18417   6.786  28.891   4.642 -0.0697  0.0896 -0.3008
75501W        W18418   4.712  30.002   6.009 -0.1883 -0.0021 -0.1096
75502W        W18419   3.410  29.554   4.959 -0.1069 -0.0207 -0.1935
75503W        W18420   8.334  31.925   5.919  0.1206 -0.1234 -0.3115
75504W        W18421   6.122  30.621   6.511  0.1428 -0.1081  0.0785
75505W        W18422   5.237  30.197   4.466 -0.0195  0.1749 -0.1300
75506W        W18423   7.701  29.657   8.355 -0.2153  0.1608 -0.1735
75507W        W18424   6.234  30.920   4.283 -0.5137 -0.2101  0.2793
75508W        W18425   6.454  33.097   7.366 -0.0693 -0.0913  0.0359
75509W        W18426   7.492  31.744   5.033 -0.1775  0.5142  0.0432
75510W        W18427   5.364  29.235   5.475  0.1843  0.0613 -0.1802
75511W        W18428   4.907  30.722   2.399  0.0030 -0.1452 -0.1811
75512W        W18429   4.303  31.603   6.166 -0.2838 -0.1279 -0.1767
75513W        W18430   6.799  30.520   7.535 -0.2168  0.1826 -0.1386
75514W        W18431   7.035  27.873   4.544  0.0806  0.0510 -0.0034
75515W        W18432   6.966  31.528   6.883  0.2609  0.0533  0.1695
75516W        W18433   4.924  31.070   4.714 -0.1581  0.0978 -0.2034
75517W        W18434   4.603  31.400   8.129  0.1223 -0.0231 -0.1474
75518W        W18435   5.988  31.683   7.820  0.1819  0.3703 -0.1690
75519W        W18436   7.800  31.079   8.496 -0.0132  0.0071  0.0683
75520W        W18437   7.144  32.319   6.426 -0.2025  0.2267  0.1489
75521W        W18438   7.469  29.704   4.189 -0.0245  0.1950 -0.2158
75522W        W18439   7.701  31.234   5.134 -0.0919 -0.0619 -0.0144
75523W        W18440   5.220  32.278   4.023 -0.0597  0.3651  0.0267
75524W        W18441   4.839  28.565   4.671 -0.1952  0.6045 -0.1987
75525W        W18442   5.968  32.190   6.030 -0.1122 -0.0851  0.1204
75526W        W18443   9.422  31.246   6.530  0.1842 -0.3861  0.0236
75527W        W18444   3.930  31.038   9.624 -0.2514 -0.1558 -0.0706
75528W        W18445   4.570  30.744   9.100 -0.0506 -0.1816 -0.2323
75529W        W18446   5.075  30.097   5.498 -0.0528 -0.1068 -0.0548
75530W        W18447   4.074  29.734  10.134  0.0718 -0.3052 -0.1023
75531W        W18448   8.401  29.994   5.036 -0.0841  0.1100 -0.1650
75532W        W18449   8.465  30.554   5.167  0.1507 -0.1198  0.3789
75533W        W18450   3.908  29.729   8.366 -0.0236 -0.0189 -0.0270
75534W        W18451   7.076  33.142   5.368  0.0143 -0.0233 -0.0209
75535W        W18452   5.230  30.330   2.554 -0.0523 -0.1065  0.2645
75536W        W18453   4.365  29.420   4.033 -0.0909  0.3050  0.0937
75537W        W18454   4.246  30.300  11.197  0.1901 -0.1234 -0.1892
75538W        W18455   4.534  31.668   5.672  0.3122  0.1444  0.1325
75539W        W18456   5.418  32.081   5.977 -0.0128 -0.0220  0.3238
75540W        W18457   4.979  31.419   3.719  0.1732  0.2110 -0.0207
75541W        W18458   7.242  32.138   3.172  0.1505  0.4648  0.1283
75542W        W18459   4.402  32.643   8.197 -0.0029 -0.2798 -0.1889
75543W        W18460   6.071  29.265   8.530 -0.1624 -0.2574 -0.0428
75544W        W18461   8.065  32.841   3.942 -0.2250  0.4473 -0.0673
75545W        W18462   4.955  30.981   6.305 -0.1318 -0.0467 -0.3787
75546W        W18463   4.568  32.133   4.066  0.0907 -0.0560 -0.1270
75547W        W18464   7.358  29.292   5.920  0.0472  0.1381 -0.1507
75548W        W18465   5.589  33.309   5.044  0.0702 -0.0602 -0.0080
75549W        W18466   7.549  28.093   6.959  0.1318  0.0488 -0.0911
75550W        W18467   5.226  32.061   8.975  0.1050  0.2543 -0.1997
75551W        W18468   5.554  29.808   7.927  0.0268  0.1993  0.2276
75552W        W18469   8.772  29.633   9.379  0.2972  0.0859 -0.0593
75553W        W18470   7.782  29.887   5.006 -0.0172 -0.1617 -0.0420
75554W        W18471   5.891  30.761   3.988 -0.0192  0.3020 -0.1619
75555W        W18472   4.413  30.601   4.706  0.0266 -0.0139  0.0135
75556W        W18473   7.067  31.316   6.349  0.3039  0.1005  0.1855
75557W        W18474   5.359  29.396   7.444  0.1537  0.2534 -0.1144
75558W        W18475   4.360  31.576   8.492 -0.3117  0.3941  0.5000
75559W        W18476   7.753  31.069   9.041 -0.0006 -0.1953 -0.0892
75560W        W18477   6.882  31.193   5.438 -0.1776 -0.4343 -0.2572
75561W        W18478   6.328  31.889   6.343  0.0725 -0.1766  0.2012
75562W        W18479   5.521  30.318   4.844  0.0272 -0.3756  0.0151
75563W        W18480   5.625  31.625   4.942  0.3058 -0.3617 -0.3961
75564W        W18481   5.262  32.564   5.330  0.3869  0.1723 -0.0398
75565W        W18482   5.494  29.257   6.904  0.1990 -0.1246 -0.0474
75566W        W18483   5.867  31.598   8.306 -0.2374 -0.0376  0.0496
75567W        W18484   5.452  30.597   3.565 -0.3401  0.0605 -0.1456
75568W        W18485   5.109  29.682  10.909  0.1688 -0.2323  0.2613
75569W        W18486   5.924  34.617   5.863  0.0284  0.2268  0.0613
75570W        W18487   8.030  29.457   5.095 -0.3549 -0.1273  0.1309
75571W        W18488   6.451  34.286   4.993 -0.2226 -0.2652 -0.1582
75572W        W18489   5.682  28.285   3.057 -0.0632  0.0525  0.0811
75573W        W18490   4.640  32.887   3.421 -0.1533 -0.1183 -0.3004
75574W        W18491   9.313  30.795   5.551  0.2962  0.0283  0.1472
75575W        W18492   7.604  31.256   6.428 -0.2537 -0.1481 -0.1394
75576W        W18493   1.940  29.688   6.597 -0.4969 -0.4013 -0.0251
75577W        W18494   6.712  30.973   4.134  0.0853 -0.0678 -0.0515
75578W        W18495   4.249  31.740   7.966  0.4706  0.0172 -0.0272
75579W        W18496   5.953  31.253   6.427  0.0458 -0.0024 -0.0803
75580W        W18497   8.042  28.808   5.211  0.2553  0.1015  0.2546
75581W        W18498   4.705  31.840   8.256  0.1888 -0.2729  0.0889
75582W        W18499   2.495  30.649   7.342  0.0416  0.1831 -0.2901
75583W        W18500   4.376  29.937   2.643  0.1159  0.1761 -0.2497
75584W        W18501   7.140  30.811   7.836  0.1348  0.4790 -0.0909
75585W        W18502   5.903  29.096   5.646 -0.1593 -0.0518  0.4163
75586W        W18503   3.902  31.958   6.691 -0.0759 -0.0923 -0.2815
75587W        W18504   8.131  32.202   6.757 -0.1647  0.2484  0.2988
75588W        W18505   3.721  29.450   5.335  0.3087  0.1851 -0.0646
75589W        W18506   4.272  32.004   4.419 -0.2428 -0.1792  0.1138
75590W        W18507   3.729  29.917   8.836 -0.3388  0.2598  0.1494
75591W        W18508   5.578  30.822   8.105 -0.1740 -0.3197  0.0067
75592W        W18509   6.920  30.180   5.599  0.3884  0.0490  0.1465
75593W        W18510   5.012  29.105   4.638 -0.2528 -0.2368  0.2592
75594W        W18511   5.613  30.824   5.126  0.3946 -0.1598 -0.0938
75595W        W18512   6.275  29.882   8.605  0.1376  0.0512 -0.4463
75596W        W18513   6.128  32.024   6.803  0.1835  0.1818  0.3957
75597W        W18514   4.646  31.807   7.470  0.1697  0.1663 -0.1348
75598W        W18515   5.673  30.367   8.038 -0.1509 -0.1242  0.3790
75599W        W18516  10.882  33.151   6.951 -0.2439  0.1176  0.0476
75600W        W18517   4.294  31.768   9.516 -0.1827  0.1657  0.2837
75601W        W18518   7.035  30.154   6.906  0.1159 -0.3352  0.2199
75602W        W18519   5.019  29.669   5.755  0.0750  0.2214 -0.1780
75603W        W18520   7.680  31.183   2.972  0.0961  0.1738 -0.1793
75604W        W18521   7.770  28.680   5.744  0.1428  0.0207 -0.1218
75605W        W18522   4.047  32.300   7.105 -0.1565  0.1150 -0.0274
75606W        W18523   6.386  30.998   3.226 -0.1233 -0.0877  0.2035
75607W        W18524   4.640  32.176   8.737 -0.3240 -0.1924  0.1551
75608W        W18525   6.311  29.146   4.596 -0.2242  0.2848  0.0450
75609W        W18526   6.770  32.259   3.359 -0.1141  0.2320 -0.1918
75610W        W18527   5.803  29.476   3.281  0.0275 -0.1408 -0.1879
75611W        W18528   8.100  30.932   8.121 -0.0822  0.2390  0.0248
75612W        W18529   5.753  30.678   4.648 -0.0645  0.3669  0.0160
75613W        W18530   5.762  30.074   8.892  0.2359  0.0520  0.3290
75614W        W18531   4.154  29.180   6.296 -0.5334 -0.0060  0.3084
75615W        W18532   5.395  33.605   6.608 -0.1429 -0.1921  0.0093
75616W        W18533   4.046  29.084   7.317 -0.0496  0.0836  0.0731
75617W        W18534   6.469  32.821   9.456 -0.0135 -0.0785  0.0905
75618W        W18535   3.235  31.721   7.027  0.3484  0.2095  0.0566
75619W        W18536   8.349  30.765   5.608  0.0036 -0.0941 -0.2258
75620W        W18537   4.283  27.762   3.980 -0.0601  0.1271 -0.0135
75621W        W18538   6.065  30.119   6.670 -0.1128 -0.2566 -0.0121
75622W        W18539   8.246  30.030   7.690 -0.4417  0.1806 -0.0783
75623W        W18540   4.957  31.764   4.059 -0.2020 -0.4591  0.1916
75624W        W18541   8.935  29.873   5.070 -0.0385  0.1511 -0.1781
75625W        W18542   6.047  31.181   5.100  0.0113 -0.1111 -0.2994
75626W        W18543   6.629  30.431   6.586  0.1278  0.0834  0.1730
75627W        W18544   6.660  30.552   4.662 -0.1032  0.1706  0.0263
75628W        W18545   6.694  29.293   5.002  0.0520 -0.2463 -0.1185
75629W        W18546   5.596  29.334   8.831  0.0544 -0.3478  0.1145
75630W        W18547   4.774  32.095   5.338 -0.0235 -0.4486  0.0270
75631W        W18548   6.123  28.881   6.281  0.0508  0.2898  0.6860
75632W        W18549   5.177  30.126   7.994  0.4093 -0.2783 -0.1370
75633W        W18550   5.058  31.584   5.510  0.1747  0.1365  0.0416
75634W        W18551   4.928  30.008  10.520 -0.1050  0.0608 -0.1529
75635W        W18552   4.669  29.446   8.468  0.4593 -0.2478  0.1628
75636W        W18553   8.981  31.839   8.625  0.0249 -0.1593  0.1129
75637W        W18554   8.055  31.079   4.437  0.0476 -0.1178 -0.0117
75638W        W18555   8.945  31.338   8.743  0.0792  0.1806  0.1018
75639W        W18556   6.295  30.428   3.196 -0.3246 -0.1064  0.0375
75640W        W18557   4.850  29.416   5.335  0.0273 -0.1769 -0.1633
75641W        W18558   6.278  29.474  10.072 -0.1046 -0.1541 -0.3883
75642W        W18559   6.368  28.907   5.772 -0.1745 -0.1248 -0.0586
75643W        W18560   6.736  31.089   7.714 -0.0354 -0.2170 -0.1160
75644W        W18561   6.048  33.299   4.026 -0.0295 -0.1815  0.0376
75645W        W18562   6.415  30.906   5.336 -0.0727  0.1571  0.0308
75646W        W18563   6.634  29.659   6.010 -0.0085  0.0066  0.0187
75647W        W18564   5.825  29.927   5.161 -0.2663  0.0293  0.0347
75648W        W18565   6.077  32.167   7.738 -0.0536  0.1648  0.2433
75649W        W18566   4.606  30.106   0.922  0.0950 -0.1693 -0.4595
75650W        W18567   6.613  29.928   3.223 -0.0968  0.4260 -0.0636
75651W        W18568   6.386  30.883   6.935 -0.3920 -0.1339  0.0264
75652W        W18569   7.334  32.102   9.126  0.2978 -0.0634 -0.0917
75653W        W18570   6.457  27.972   5.851  0.2619 -0.0359 -0.0898
75654W        W18571   4.854  28.765   6.808 -0.0637  0.0655 -0.0006
75655W        W18572   3.696  31.933   4.411  0.2569 -0.0380  0.0335
75656W        W18573   7.501  30.199   6.740  0.0948 -0.1505  0.2334
75657W        W18574   3.743  32.803   8.031 -0.1155  0.1257  0.2816
75658W        W18575   4.794  29.654   6.749  0.0371  0.0146  0.0226
75659W        W18576   6.431  32.443   5.774  0.4589  0.3596  0.1797
75660W        W18577   6.938  30.459   4.028 -0.1361  0.3669  0.0916
75661W        W18578   5.426  30.493   4.097 -0.1113 -0.4755 -0.1568
75662W        W18579   5.193  32.125   5.553  0.1458  0.0271  0.2130
75663W        W18580   8.681  30.603   7.383  0.0837  0.0104  0.2074
75664W        W18581   6.528  30.829   8.105 -0.0911 -0.1264  0.2305
75665W        W18582   5.460  29.791   5.522  0.0823  0.0271 -0.3318
75666W        W18583   8.173  32.204   7.675 -0.0297  0.1732 -0.1566
75667W        W18584   7.240  31.482   7.922 -0.1133  0.0125 -0.0651
75668W        W18585   5.643  30.465   6.787 -0.3597  0.0120  0.0110
75669W        W18586   2.707  30.145   9.026 -0.1377  0.0408 -0.0268
75670W        W18587   5.053  30.306   7.496 -0.2686 -0.2221  0.2551
75671W        W18588   5.252  31.478   6.914  0.2039  0.2527  0.1411
75672W        W18589   6.548  29.935   6.690  0.0230 -0.2255 -0.1539
75673W        W18590   5.453  31.849   4.201  0.0661 -0.1056  0.1011
75674W        W18591   5.449  33.166  10.284  0.1355 -0.4945 -0.3483
75675W        W18592   4.449  30.845   5.466 -0.3688 -0.2820  0.3501
75676W        W18593   3.857  32.213   3.636 -0.3764 -0.0040  0.0593
75677W        W18594   7.841  30.862   5.440 -0.1590  0.3086  0.0884
75678W        W18595   6.511  28.446   5.578 -0.0759  0.0066 -0.0101
75679W        W18596   6.634  31.475   6.534 -0.0222 -0.0413  0.1637
75680W        W18597   6.137  29.313   6.007 -0.1453  0.2424  0.3519
75681W        W18598   4.526  32.094   5.982 -0.0324 -0.4061  0.1935
75682W        W18599   3.978  32.078   3.133  0.0457  0.0193 -0.4161
75683W        W18600   6.507  31.312   4.983 -0.0855 -0.2625  0.1031
75684W        W18601   5.730  33.792   5.435  0.0220 -0.0968 -0.1202
75685W        W18602   6.893  31.566   7.550  0.2576 -0.0754  0.0219
75686W        W18603   7.333  27.185   5.168  0.0501 -0.1543  0.0303
75687W        W18604   9.029  29.744   7.282  0.2775 -0.2291  0.0519
75688W        W18605   9.487  29.393   4.499 -0.3904  0.1328  0.6242
75689W        W18606   6.484  32.192   9.350  0.1086 -0.0608  0.1314
75690W        W18607   7.074  30.979   7.372  0.0679 -0.0237  0.0604
75691W        W18608   4.336  29.978   4.942  0.0686  0.2371 -0.1934
75692W        W18609   4.470  30.244  10.203  0.3533 -0.0010  0.3139
75693W        W18610   6.695  29.896   8.331  0.1442  0.0610  0.0595
75694W        W18611   3.815  32.133   7.710  0.1003  0.0951 -0.2036
75695W        W18612   8.309  31.591   4.413 -0.0862 -0.0004  0.2340
75696W        W18613   2.571  28.708   6.026 -0.1048  0.0475 -0.3324
75697W        W18614   5.276  29.918   5.046  0.2497 -0.1718  0.0799
75698W        W18615   8.089  29.539   6.856  0.2492 -0.0362 -0.1286
75699W        W18616   5.948  30.706   3.503  0.1040  0.1316 -0.4304
75700W        W18617   6.797  30.800   5.054 -0.0366 -0.1629  0.0985
75701W        W18618   5.973  32.701   5.350 -0.1596 -0.1106 -0.0421
75702W        W18619   5.496  31.339   5.476 -0.1434  0.3374  0.0582
75703W        W18620   6.304  30.888   4.820 -0.1134  0.3567 -0.0232
75704W        W18621   3.093  28.357   5.796  0.0797 -0.0834  0.1240
75705W        W18622   9.788  29.259   3.667 -0.0834 -0.5794  0.0336
75706W        W18623   3.317  31.075   9.041  0.1131 -0.0038 -0.2007
75707W        W18624   6.803  30.692   7.068  0.3733  0.0404 -0.1573
75708W        W18625   5.855  28.906   3.697 -0.2130  0.3787 -0.1938
75709W        W18626   8.931  30.120   6.468  0.3304 -0.0308 -0.0135
75710W        W18627   4.353  29.945   6.872  0.3038  0.0015  0.0922
75711W        W18628   2.582  31.590   7.957 -0.0871 -0.6434 -0.2368
75712W        W18629   5.644  31.138   6.020  0.0241  0.2195  0.0821
75713W        W18630   7.519  34.282   8.426  0.1818 -0.0070 -0.1079
75714W        W18631   5.797  30.163   4.259 -0.1033 -0.1671  0.1530
75715W        W18632   5.821  29.744  10.079 -0.0177  0.1780  0.1528
75716W        W18633   5.947  28.500   5.866 -0.0916  0.1822  0.1563
75717W        W18634   7.266  31.154   6.927 -0.0784 -0.0309 -0.1464
75718W        W18635   7.603  33.111   5.475  0.0110  0.0631 -0.1849
75719W        W18636   4.405  29.722   8.069  0.0826 -0.1862 -0.1727
75720W        W18637   6.858  30.779   8.579  0.0772 -0.4075  0.2896
75721W        W18638   4.166  28.824   3.941 -0.1280  0.2419  0.3125
75722W        W18639   7.890  32.688   6.328 -0.1021  0.2182  0.1171
75723W        W18640   7.649  30.449   7.551 -0.0715  0.2924  0.0529
75724W        W18641   6.568  30.020   4.271  0.2196 -0.1375 -0.0335
75725W        W18642   7.672  31.904   7.023  0.2788 -0.0930 -0.2320
75726W        W18643   6.830  31.652   5.829 -0.0199 -0.3576  0.0128
75727W        W18644   4.961  30.527   5.211  0.3779 -0.1975 -0.1453
75728W        W18645   7.576  30.839   7.232 -0.1193 -0.0519  0.1452
75729W        W18646   8.423  32.457   5.817 -0.2219 -0.0669 -0.2403
75730W        W18647   6.600  27.631   6.429 -0.2344 -0.2120  0.1387
75731W        W18648   4.404  30.540   6.610  0.2262  0.0089 -0.2126
75732W        W18649   3.855  32.312   4.794  0.1974 -0.1950 -0.2385
75733W        W18650   7.619  30.805   6.722 -0.0029  0.0311 -0.2259
75734W        W18651   6.999  31.149   8.214  0.3157 -0.0012 -0.1766
75735W        W18652   6.410  31.347   4.020  0.1183 -0.1087  0.2356
75736W        W18653   6.585  31.263   7.263  0.1221  0.0959  0.0922
75737W        W18654   5.364  32.465   9.189 -0.1932 -0.1836  0.0081
75738W        W18655   4.084  31.967   9.939 -0.0877 -0.1045 -0.1412
75739W        W18656   3.842  30.122   4.037 -0.2709  0.1797  0.1742
75740W        W18657   5.193  29.907  10.030  0.1488  0.3726 -0.2961
75741W        W18658   5.212  33.620   5.156 -0.1782 -0.1215 -0.0519
75742W        W18659   6.195  33.101   5.062 -0.2134 -0.0892 -0.0085
75743W        W18660   6.357  31.323   8.511 -0.2104  0.0859 -0.0099
75744W        W18661   7.390  30.854   6.268  0.3342 -0.1354 -0.1945
75745W        W18662   9.628  31.158   5.303 -0.0765 -0.1224  0.0736
75746W        W18663   7.522  29.331   6.427 -0.1608 -0.0994  0.1871
75747W        W18664   6.790  30.222   6.159  0.0075  0.0975 -0.0921
75748W        W18665   6.112  27.638   6.415  0.1389 -0.0394 -0.1349
75749W        W18666   4.189  32.353   6.333  0.5650  0.0173  0.2387
75750W        W18667   4.024  30.860   5.150  0.0274  0.0193 -0.1280
75751W        W18668   4.598  30.950   3.826  0.3161 -0.1709  0.0664
75752W        W18669   4.460  31.018   6.364 -0.2019  0.0226  0.0744
75753W        W18670   5.092  28.541   7.812 -0.1660 -0.1369 -0.0797
75754W        W18671   2.501  30.827  10.026 -0.0680 -0.2952  0.1796
75755W        W18672   4.150  31.919   7.446  0.0931  0.2161  0.0048
75756W        W18673   7.230  30.028   3.892  0.4153  0.1962 -0.2976
75757W        W18674   9.140  31.261   5.073 -0.0175 -0.2670 -0.1494
75758W        W18675   3.247  30.414   5.533 -0.1959  0.1837 -0.2510
75759W        W18676   5.215  30.986   5.736  0.0262 -0.0267  0.1346
75760W        W18677   7.810  33.491   3.750  0.0484 -0.1876  0.2638
75761W        W18678   7.614  30.174   5.808 -0.1486 -0.3551  0.0182
75762W        W18679   5.808  29.480   5.376  0.0822 -0.1971 -0.2194
75763W        W18680   8.091  32.550   9.042  0.0791  0.2871  0.0148
75764W        W18681   3.094  29.942   4.021 -0.0489  0.0566  0.2899
75765W        W18682   5.482  30.105   8.379  0.3527  0.3513  0.2494
75766W        W18683   6.351  30.399   7.794 -0.1458 -0.0718  0.3582
75767W        W18684   4.508  29.600   3.591 -0.5184  0.2160  0.1329
75768W        W18685   5.719  30.263   2.758  0.0903 -0.0374  0.0218
75769W        W18686   4.091  33.416   5.661  0.3784 -0.0547 -0.1151
75770W        W18687   7.624  32.188   3.465  0.0402 -0.1093  0.2808
75771W        W18688   4.577  29.701   9.905 -0.1098 -0.0278 -0.0163
75772W        W18689   3.500  31.427   8.759  0.0685  0.1987  0.0970
75773W        W18690   2.069  30.766   7.646  0.1866  0.0063  0.0711
75774W        W18691   5.674  32.420   5.718  0.1547 -0.1991  0.1231
75775W        W18692   4.717  30.307   8.190 -0.0203 -0.0568 -0.0642
75776W        W18693  10.796  31.110   6.339 -0.0209  0.0859  0.0370
75777W        W18694   6.433  29.384   7.065  0.0084  0.1948  0.3390
75778W        W18695   6.445  30.579   6.081  0.0119  0.5299  0.2140
75779W        W18696   5.177  31.083   8.476 -0.1576 -0.1640  0.1169
75780W        W18697   4.096  32.492   7.593  0.0841  0.2096  0.1566
75781W        W18698   8.368  32.937   7.803  0.2440  0.1299  0.0024
75782W        W18699   5.193  29.318   6.538 -0.1777 -0.3617 -0.1724
75783W        W18700   7.555  31.959   6.370 -0.2872 -0.1986 -0.0310
75784W        W18701   7.936  31.637   6.036 -0.1009 -0.0504 -0.1785
75785W        W18702   4.577  29.159   4.942  0.0811  0.1057 -0.1428
75786W        W18703   7.504  29.865   6.310 -0.0386  0.0711 -0.0420
75787W        W18704   4.457  30.589   8.630  0.4306 -0.2455 -0.0496
75788W        W18705   4.572  31.924   6.459  0.1334 -0.1304 -0.2277
75789W        W18706   7.342  30.798   8.529 -0.0830  0.3281 -0.2446
75790W        W18707   5.211  30.422   1.478 -0.0175 -0.2025  0.1445
75791W        W18708   6.420  29.434   5.615 -0.2329 -0.0527 -0.2069
75792W        W18709   6.262  32.562   6.304 -0.2751  0.2253 -0.1804
75793W        W18710   4.797  32.388   8.145 -0.3284 -0.0009  0.0406
75794W        W18711   5.271  33.638   4.341 -0.1933  0.4700 -0.0333
75795W        W18712   7.724  28.837   8.559 -0.0655  0.0313 -0.1794
75796W        W18713   4.666  30.108   6.513 -0.1603 -0.3409 -0.2282
75797W        W18714   6.059  32.187   5.547  0.0465 -0.2683 -0.0040
75798W        W18715   4.719  31.407   6.519 -0.0878  0.1943  0.0596
75799W        W18716   6.097  31.326   5.796  0.0616  0.0725  0.0140
75800W        W18717   6.199  29.087   5.177 -0.1917 -0.0545 -0.0558
75801W        W18718   7.098  29.032   4.998 -0.1416 -0.0447 -0.1760
75802W        W18719   5.054  31.602   7.793 -0.3473  0.0726  0.0279
75803W        W18720   4.778  31.364   5.995  0.4345  0.0405  0.2619
75804W        W18721   5.056  30.886  11.327  0.1475  0.0455 -0.2636
75805W        W18722   4.733  30.929   8.163 -0.4838 -0.1077  0.0058
75806W        W18723   6.609  29.425   7.591  0.1218 -0.2311 -0.1367
75807W        W18724   6.050  30.517   9.709 -0.0096  0.1617 -0.1374
75808W        W18725   2.674  30.453   8.664  0.0111  0.1439  0.0451
75809W        W18726   8.955   0.070  10.498  0.0495  0.2658  0.0479
75810W        W18727   2.770  30.236  11.315  0.0024 -0.2026  0.0580
75811W        W18728   6.643  30.720  11.454 -0.0305 -0.1841 -0.0091
75812W        W18729   5.926  30.596  10.239  0.2633 -0.0275  0.3583
75813W        W18730   4.406  31.202  11.728 -0.1893 -0.1204 -0.4425
75814W        W18731   5.147  31.553   8.334  0.1813 -0.0209  0.0022
75815W        W18732   2.806  28.893   8.643 -0.0110  0.1150 -0.0553
75816W        W18733   5.404  32.160   9.944  0.3013 -0.0745 -0.1340
75817W        W18734   5.436  30.235  10.455  0.1616  0.3437 -0.1906
75818W        W18735   4.833  31.343  11.384 -0.1149  0.0794 -0.0131
75819W        W18736   6.401  28.507   9.824  0.5177 -0.0643  0.1020
75820W        W18737   5.803  28.864  10.804 -0.1312  0.2482  0.0521
75821W        W18738   6.812  29.046   8.833 -0.1361 -0.0230  0.1356
75822W        W18739   7.455  31.820   8.681 -0.1484 -0.2405 -0.0403
75823W        W18740   2.900  31.162   9.290 -0.1069  0.1856 -0.0966
75824W        W18741   2.868  33.178  10.371  0.2381 -0.1565 -0.1564
75825W        W18742   3.322  31.061   9.541  0.3075  0.0970 -0.2410
75826W        W18743   5.311  32.616  10.204  0.1126 -0.2873  0.2677
75827W        W18744   7.768  26.224  11.542  0.0098 -0.1073 -0.0405
75828W        W18745   4.185  33.487  11.357  0.0590 -0.0185 -0.0820
75829W        W18746   5.441  30.664  10.650  0.2632 -0.1434  0.0641
75830W        W18747   3.960  32.722   9.088 -0.0397  0.1121  0.1276
75831W        W18748   4.944  32.569   8.767  0.0824  0.3649 -0.0339
75832W        W18749   4.249  33.366  10.823  0.0410 -0.1368  0.3684
75833W        W18750   8.574  30.810   8.834 -0.0902  0.0096  0.1846
75834W        W18751   4.208  31.100   8.870 -0.2887 -0.0712 -0.0620
75835W        W18752   3.344  29.119  11.803 -0.0107 -0.2475 -0.2255
75836W        W18753   5.856  29.723   8.420 -0.2264 -0.0959 -0.0750
75837W        W18754   3.307  33.845  11.146 -0.0491 -0.0646  0.4008
75838W        W18755   3.025  33.043  11.384  0.0264  0.0515  0.1453
75839W        W18756   5.768  32.817  10.085  0.1582  0.0003  0.0025
75840W        W18757   4.687  32.028   9.201 -0.0470 -0.3056 -0.1951
75841W        W18758   8.261  31.235   5.994  0.2211  0.2607  0.2126
75842W        W18759   3.828  30.769   8.592  0.0939 -0.0997  0.3260
75843W        W18760   7.524  30.148   8.589  0.0942 -0.3152 -0.1908
75844W        W18761   5.297  29.387   9.955  0.0279 -0.0918 -0.1301
75845W        W18762   6.719  31.873  10.660 -0.0568 -0.1424  0.1978
75846W        W18763   1.142  25.082   9.572  0.0491  0.3220 -0.0910
75847W        W18764   5.667  30.192   9.978 -0.3474 -0.2602  0.2585
75848W        W18765   6.394  27.561  11.089  0.0653  0.0025  0.0891
75849W        W18766   2.909  30.847   8.167 -0.1012 -0.2115  0.1233
75850W        W18767   5.269  31.556   9.859  0.0024 -0.0863 -0.1236
75851W        W18768   8.145  31.509   9.226 -0.0192  0.1104  0.3740
75852W        W18769   6.828  33.804   9.973  0.1805 -0.2895 -0.1501
75853W        W18770   4.271  31.266   9.395  0.1768  0.1007 -0.0857
75854W        W18771   4.930  28.786  10.300  0.1121 -0.2415 -0.3595
75855W        W18772   5.617  28.756   8.929 -0.2157  0.0081 -0.0854
75856W        W18773   7.179  29.183  10.356  0.4109  0.2567  0.0074
75857W        W18774   4.835  28.093  11.710 -0.1997  0.0779 -0.5345
75858W        W18775   7.195  31.639  10.385  0.1428 -0.1936 -0.2023
75859W        W18776   8.147  33.390   9.106 -0.0679  0.2891 -0.2495
75860W        W18777   6.988  30.676   9.492 -0.0528  0.1336 -0.0334
75861W        W18778   5.080  32.194  10.970  0.2482 -0.1150  0.2611
75862W        W18779   3.186  29.194   8.809 -0.1444  0.1409  0.4824
75863W        W18780  10.115  34.433   9.137 -0.0220  0.1347 -0.1723
75864W        W18781   8.540  29.185  11.188  0.3607  0.1977 -0.1165
75865W        W18782   7.873  32.019   9.757 -0.1186 -0.1482 -0.1790
75866W        W18783   4.217   2.646  11.099 -0.0686  0.1437  0.0238
75867W        W18784   5.656  32.408   7.770 -0.3188  0.1547 -0.2420
75868W        W18785   4.597  30.948  12.207 -0.0414  0.0306 -0.1811
75869W        W18786   3.402  31.858   9.724  0.0196 -0.3567  0.4186
75870W        W18787   3.631  29.935  10.243  0.0558  0.1669 -0.0680
75871W        W18788   3.364   0.374  10.935  0.0684  0.0662  0.2858
75872W        W18789   7.590  30.813   9.475 -0.3103  0.2449 -0.2011
75873W        W18790   8.240  31.189  10.778 -0.1481  0.1394 -0.0118
75874W        W18791   5.643  31.257   9.637  0.1167 -0.2213 -0.0929
75875W        W18792   6.160   0.492  10.776  0.0203 -0.0719 -0.1439
75876W        W18793   6.213  32.021   8.241  0.1545 -0.2433 -0.1181
75877W        W18794   6.885  31.914   8.029  0.1303  0.0611  0.1020
75878W        W18795   7.592  27.630  11.512 -0.1415 -0.0815 -0.0143
75879W        W18796   5.465  29.672   9.140 -0.0201 -0.0945  0.0213
75880W        W18797   4.907  28.367   9.312 -0.1387 -0.1306  0.0462
75881W        W18798   4.804  30.626   7.764  0.1261  0.1839  0.0381
75882W        W18799   3.781  29.327  11.880 -0.1876 -0.2267 -0.0791
75883W        W18800   3.594  30.009   8.036  0.2575 -0.1398 -0.0097
75884W        W18801   4.443  32.790  11.119  0.5232  0.1811 -0.2023
75885W        W18802   5.287  32.036  10.461 -0.1764 -0.2433  0.3332
75886W        W18803   8.299  32.501   9.595 -0.1796  0.1946  0.0795
75887W        W18804   7.909  32.702   8.494 -0.0727 -0.1447 -0.4409
75888W        W18805   4.989  29.282  11.149 -0.0787 -0.2629  0.0659
75889W        W18806   4.650  29.006  10.629 -0.3045 -0.0967 -0.1162
75890W        W18807   3.696   0.071  10.067  0.4211 -0.1155  0.2497
75891W        W18808   7.015  29.909  10.981 -0.1155  0.0657  0.0179
75892W        W18809   6.041  30.514   7.116 -0.0883  0.1770  0.0426
75893W        W18810   8.092  33.033   9.796  0.0377 -0.0984  0.0800
75894W        W18811   4.110  29.781  11.034  0.0897 -0.1578 -0.1334
75895W        W18812   4.277  32.505  10.708  0.1694 -0.3097 -0.2345
75896W        W18813   4.298  26.992  10.376  0.1840 -0.0652 -0.0762
75897W        W18814   5.230  30.191   9.014 -0.1508  0.2346 -0.0016
75898W        W18815   3.618  30.736  10.981  0.0342 -0.1730 -0.0054
75899W        W18816   4.457  32.356   6.766  0.1263 -0.1148 -0.2487
75900W        W18817   3.305  32.624  10.425  0.1464  0.0489 -0.1207
75901W        W18818   4.516  32.652  10.223  0.0666 -0.1887 -0.1611
75902W        W18819   7.953  31.598  11.144 -0.3057  0.1292  0.0340
75903W        W18820   4.745  29.480   6.233 -0.1736 -0.1133  0.2168
75904W        W18821  10.407  27.903  11.045 -0.0666 -0.0573  0.2802
75905W        W18822   4.602  30.497  10.804 -0.4080 -0.2326 -0.4192
75906W        W18823   8.422  31.606  10.082 -0.0844  0.3046  0.0570
75907W        W18824   7.650  30.124   7.960 -0.0470  0.0031  0.2842
75908W        W18825   7.831  30.588   8.379 -0.1909  0.1465  0.3917
75909W        W18826   5.423  32.432   8.694 -0.1202  0.4082 -0.3208
75910W        W18827   4.958  32.912   9.097  0.4202 -0.0567  0.6119
75911W        W18828   6.355  29.925   9.106 -0.1724 -0.0381 -0.1460
75912W        W18829   6.003  33.601   9.822 -0.0470  0.1684  0.2273
75913W        W18830   2.443  30.389  10.295  0.0626  0.1289 -0.1055
75914W        W18831   4.607  31.428   9.763 -0.0146 -0.1009 -0.2786
75915W        W18832   6.443  28.170   9.206  0.1124 -0.1208  0.2775
75916W        W18833   4.809  29.994   7.094  0.0934  0.1714  0.0255
75917W        W18834   7.036  30.320   8.543  0.0889  0.3304  0.1528
75918W        W18835   3.848  32.041   9.522  0.2376 -0.2720  0.0451
75919W        W18836   6.457  32.417   9.797  0.2807 -0.1259 -0.0710
75920W        W18837   6.653  29.414  10.388 -0.0947 -0.1016 -0.2203
75921W        W18838   5.668  32.324  10.368  0.1004 -0.2511 -0.0614
75922W        W18839   7.347  29.768  11.343  0.1809 -0.2463  0.1240
75923W        W18840   3.392  31.076   8.393 -0.1584 -0.2034 -0.1522
75924W        W18841   4.701  29.506  11.479 -0.1009  0.0119  0.4334
75925W        W18842   2.758   0.470  10.674 -0.0194 -0.2133  0.2650
75926W        W18843   4.572  32.277  11.142 -0.2096 -0.3222 -0.2036
75927W        W18844   5.625  30.739   9.592  0.1238 -0.0443  0.0211
75928W        W18845   5.698  32.009   8.102  0.0853 -0.0818 -0.2082
75929W        W18846   3.458  32.513   8.625  0.1260  0.2297 -0.4679
75930W        W18847   3.709  30.243   8.462  0.0716  0.0496 -0.0927
75931W        W18848   6.490  32.123  11.110 -0.1992  0.0616 -0.0234
75932W        W18849   6.223  32.157   8.930  0.1537 -0.0483 -0.0872
75933W        W18850   4.413  29.889  11.504  0.2114 -0.1133 -0.0090
75934W        W18851   5.715  31.994   8.991 -0.1823  0.1222  0.1595
75935W        W18852   6.912  28.238  11.356  0.0890  0.1549 -0.0499
75936W        W18853   4.372  31.109  10.104 -0.1992 -0.1191  0.0922
75937W        W18854   6.576  31.578   9.689  0.1598 -0.0843  0.0569
75938W        W18855   4.487  28.882   9.777  0.0109 -0.0258 -0.0525
75939W        W18856   5.950  30.054  10.455 -0.3799 -0.0178 -0.3086
75940W        W18857   6.923  31.308  10.714  0.1282 -0.0944 -0.0866
75941W        W18858   5.442  28.793  11.233 -0.2539 -0.1165 -0.0540
75942W        W18859   5.925  28.686  10.033 -0.1511  0.0144 -0.2256
75943W        W18860   4.605  30.953  10.540  0.2765 -0.2838 -0.1812
75944W        W18861   7.062  31.587   8.404  0.2219 -0.5835  0.2345
75945W        W18862   3.169  29.871  10.519 -0.1165 -0.0245 -0.3596
75946W        W18863   1.720  33.570  10.420  0.0512  0.2001  0.4093
75947W        W18864   4.899  31.519  10.343 -0.2740  0.0063 -0.2526
75948W        W18865   3.207  31.970  10.886  0.0395  0.0254  0.3619
75949W        W18866   4.934  32.440  10.547  0.0832  0.0982 -0.2812
75950W        W18867   3.521  30.038  11.300  0.2513 -0.0476 -0.3604
75951W        W18868   6.323  33.146   9.047  0.2309  0.0704 -0.2000
75952W        W18869   5.171  30.270  10.932 -0.3166 -0.0071  0.3185
75953W        W18870   3.637  29.323  10.492 -0.3880  0.3656  0.0242
75954W        W18871   3.799  30.044   9.320 -0.1555  0.0270  0.0900
75955W        W18872   5.815  29.948   9.462 -0.1800 -0.0197 -0.0274
75956W        W18873   5.707  31.226  10.107  0.0727  0.0745 -0.0194
75957W        W18874   4.266  28.944  10.261  0.0922  0.2400  0.1206
75958W        W18875   6.731  27.458  10.141 -0.0680  0.0337 -0.2429
75959W        W18876   9.022  33.527   8.800  0.1521 -0.2548 -0.3500
75960W        W18877   5.602  30.716   6.350  0.3421  0.0840 -0.1589
75961W        W18878   4.524  32.622   9.164 -0.5031  0.1374 -0.1352
75962W        W18879   5.884  33.089   9.363  0.0383  0.2156  0.1859
75963W        W18880   1.965  29.583  10.310 -0.1621  0.1800 -0.3317
75964W        W18881   3.799  33.432   7.303 -0.0669 -0.0384 -0.1028
75965W        W18882   3.828  31.227  10.252 -0.0845  0.0321 -0.0045
75966W        W18883   3.570  33.676  10.250  0.2155  0.2396 -0.1491
75967W        W18884   8.318  29.620   9.532  0.2468 -0.3846  0.1493
75968W        W18885   5.793  31.715   9.777  0.0755  0.0771  0.2024
75969W        W18886   5.485  29.712  10.471  0.0779 -0.0678 -0.2369
75970W        W18887   7.044  31.378   9.401 -0.3273  0.0216 -0.0362
75971W        W18888   2.812  30.794  11.448 -0.3329  0.3171 -0.0019
75972W        W18889   4.301  31.399  11.149  0.0979  0.3861 -0.1797
75973W        W18890   6.318  30.722   8.628  0.1185  0.1211 -0.2928
75974W        W18891   6.704  27.950  10.294 -0.2031  0.0597 -0.1369
75975W        W18892   1.316  33.289  10.798  0.2423 -0.1090  0.0225
75976W        W18893   5.397  31.802   9.386 -0.1322  0.2526  0.0136
75977W        W18894   6.248  31.893   9.877 -0.2322  0.0682  0.1172
75978W        W18895   9.056  33.058   9.166  0.1235  0.0610  0.0528
75979W        W18896   5.519  32.637   9.705 -0.0488  0.0490 -0.1685
75980W        W18897   6.137  31.411   9.515  0.0824 -0.2975  0.0978
75981W        W18898   4.695  30.754  10.092 -0.2704 -0.1942  0.2810
75982W        W18899   5.019  30.486  10.483  0.4209  0.0138 -0.1312
75983W        W18900   5.262  29.120  10.757  0.0088  0.0153 -0.0999
75984W        W18901   6.456  29.133  10.760  0.0551  0.0374  0.2190
75985W        W18902   3.796  32.599  11.535 -0.0686  0.1381 -0.0684
75986W        W18903   6.809  33.069   8.697 -0.1211 -0.0051 -0.0131
75987W        W18904   4.578  29.470  10.931 -0.1248  0.1122  0.2533
75988W        W18905   7.820  30.483  10.327 -0.1289  0.0249  0.2051
75989W        W18906   8.563  31.151   9.282 -0.0494  0.0668 -0.1491
75990W        W18907   5.011  29.752   9.603  0.0180 -0.0082 -0.0387
75991W        W18908   5.595  30.968   9.057 -0.1002 -0.0156 -0.1671
75992W        W18909   4.905  31.909  10.030 -0.0345  0.3015  0.3178
75993W        W18910   6.102  29.490  10.561  0.1965 -0.1680  0.0305
75994W        W18911   7.695  29.404  11.389  0.2709  0.2780 -0.2959
75995W        W18912   4.552  29.710  10.465  0.2894 -0.0667  0.0690
75996W        W18913   2.679  29.845  10.398 -0.1103  0.0651 -0.0737
75997W        W18914   3.046  30.002  10.031 -0.5861 -0.1460 -0.0754
75998W        W18915   4.817  31.970  10.604  0.5339  0.2489  0.3356
75999W        W18916   6.917  27.676  10.680 -0.0473  0.0049 -0.0056
76000W        W18917   3.430  33.130   9.609  0.1465  0.1270  0.1050
76001W        W18918   7.933  28.470  11.514  0.0074  0.0321 -0.2397
76002W        W18919   4.194  31.854  11.331  0.0213  0.1719  0.2059
76003W        W18920   4.157  34.633   8.256 -0.1389 -0.3394 -0.0073
76004W        W18921   6.419  30.935  10.165  0.1955 -0.0121 -0.0073
76005W        W18922   3.220  30.445  11.217  0.1760  0.0046  0.0111
76006W        W18923   5.312  29.180  11.544  0.0371 -0.0288  0.4410
76007W        W18924   1.966  31.635  10.522 -0.0289  0.0135  0.1220
76008W        W18925   7.259  30.526  10.325 -0.0489  0.1512 -0.1196
76009W        W18926   4.212  30.020  10.591  0.0177  0.1880  0.0252
76010W        W18927   2.848  29.643  12.028  0.1083 -0.0022 -0.0077
76011W        W18928   3.760  27.756   8.948  0.1551  0.0131  0.2063
76012W        W18929   3.605  30.109   7.169 -0.0105 -0.0215 -0.1674
76013W        W18930   3.586  30.286  11.802  0.1335 -0.0293  0.0202
76014W        W18931   5.664  31.297   8.619  0.1508 -0.0944  0.2411
76015W        W18932   6.556  31.308   9.206 -0.0910  0.1578 -0.1237
76016W        W18933   6.902  31.912   9.413 -0.0985 -0.2042  0.1439
76017W        W18934   3.295  31.081  11.145  0.1149 -0.0748  0.1155
76018W        W18935   5.523  28.853  10.408 -0.3047  0.0361 -0.3022
76019W        W18936   6.058  33.713   8.159 -0.3212 -0.0572  0.2425
76020W        W18937   3.403  34.349   9.226  0.0949  0.0354  0.0528
76021W        W18938   6.747  32.673  10.368 -0.2375 -0.4050  0.0017
76022W        W18939   4.806  33.100   8.664 -0.0668 -0.1327 -0.0664
76023W        W18940   8.052  30.743   8.788  0.1700  0.1639  0.1106
76024W        W18941   3.963  33.832  11.042 -0.1299  0.0630  0.1222
76025W        W18942  10.256  31.349   9.684  0.1348 -0.0761 -0.0752
76026W        W18943   4.627  31.804  11.099 -0.0247  0.0353 -0.1478
76027W        W18944   5.135  31.562   6.406  0.0643 -0.0450  0.2411
76028W        W18945   6.973  33.593  10.389 -0.1765  0.1828 -0.4381
76029W        W18946   4.655  30.448   7.231  0.0494 -0.0705  0.0680
76030W        W18947   4.580  29.088   7.487  0.1377 -0.1259 -0.1181
76031W        W18948   5.984  27.813  11.036  0.1205  0.0796 -0.0363
76032W        W18949   6.102  31.673   8.764 -0.0872  0.0705 -0.0977
76033W        W18950   4.268  30.237   9.255  0.2119  0.0601  0.1749
76034W        W18951   4.713  33.231   9.604  0.0058 -0.3074  0.2074
76035W        W18952   4.937  32.720  10.948  0.0540  0.2947 -0.0270
76036W        W18953   5.653  32.013  10.818 -0.0362  0.3309 -0.3853
76037W        W18954   5.108  29.745   8.809  0.2040 -0.0573 -0.1792
76038W        W18955   7.083  29.683  10.350 -0.0302 -0.2690  0.1048
76039W        W18956   5.577  29.987  11.013 -0.1979 -0.1129  0.0754
76040W        W18957   3.625  31.176  10.750 -0.1682 -0.0777 -0.0488
76041W        W18958   6.498  30.372   8.378  0.1938  0.1886  0.0611
76042W        W18959   3.069   1.119  11.736 -0.1802  0.2741  0.0613
76043W        W18960   3.515  28.533  11.191  0.0967 -0.1307 -0.0501
76044W        W18961   5.328  30.562  10.100  0.4145 -0.0823  0.0053
76045W        W18962   7.400  32.133  10.037 -0.0868  0.1375 -0.2284
76046W        W18963   4.127  30.222   8.746  0.0013  0.0374  0.1084
76047W        W18964   6.875  30.254   9.225  0.2586  0.0031 -0.1299
76048W        W18965   3.646  28.244   9.062  0.2210  0.2613  0.2305
76049W        W18966   5.494  31.121  10.763  0.1816  0.0668 -0.1178
76050W        W18967   4.225  30.039   9.718 -0.0666 -0.0025 -0.2488
76051W        W18968   6.631  34.363   8.829 -0.7806  0.0437  0.0413
76052W        W18969   8.243  29.092  10.716 -0.2837 -0.1293  0.2263
76053W        W18970   6.079  31.081   8.014 -0.1711 -0.4777  0.2684
76054W        W18971   5.930  28.687  11.281 -0.0531 -0.0856  0.0161
76055W        W18972   6.452  31.338  10.506  0.1243 -0.4630  0.1275
76056W        W18973   4.448  29.069  11.188 -0.4546  0.0022  0.1208
76057W        W18974   6.876  31.205  10.210  0.1639  0.2120 -0.1058
76058W        W18975   7.271  34.329  10.500 -0.0545 -0.2598  0.1999
76059W        W18976   5.032  29.505  10.373 -0.3732 -0.0212 -0.2047
76060W        W18977   3.845  30.566   9.587  0.1889 -0.0775 -0.1557
76061W        W18978   5.813  32.453   7.006 -0.3014 -0.0277 -0.0508
76062W        W18979   5.800  29.165  11.245 -0.0196 -0.0197 -0.1246
76063W        W18980   4.712  30.980   9.515 -0.0297  0.0210 -0.2840
76064W        W18981   4.530  31.475  10.724  0.2730 -0.0336  0.0971
76065W        W18982   3.466  29.468  10.036 -0.3463 -0.2372 -0.1941
76066W        W18983   3.276  30.459  10.132 -0.0298 -0.0228  0.0271
76067W        W18984   4.640   0.802  10.165 -0.0508  0.1851 -0.0576
76068W        W18985   6.446  30.407  10.174 -0.2070  0.0812  0.0316
76069W        W18986   6.027  31.079  10.440 -0.1069  0.1513  0.1259
76070W        W18987   6.624  32.210  10.195 -0.0734  0.0962 -0.0713
76071W        W18988   6.234  27.626  10.454 -0.1262 -0.1046 -0.0481
76072W        W18989   6.048  29.848  10.993 -0.3204  0.0980 -0.1045
76073W        W18990   7.059  30.231   9.709  0.1933 -0.0428 -0.1623
76074W        W18991   6.205  29.545   9.432 -0.0836  0.1597  0.1665
76075W        W18992   2.780  30.420   9.961 -0.2641  0.0214  0.4878
76076W        W18993   3.673  31.051   7.526 -0.3236 -0.0633  0.1661
76077W        W18994   3.473  34.552  10.822  0.2449  0.1995  0.1573
76078W        W18995   3.816  30.525  11.421  0.1033  0.0457  0.0844
76079W        W18996   4.226  29.478   7.577  0.0428 -0.2940  0.4653
76080W        W18997   8.733  34.221   9.114  0.0631  0.2449  0.2581
76081W        W18998   4.385  28.559  11.001  0.1534  0.1825 -0.1770
76082W        W18999   4.035  30.775  10.040  0.0079  0.2904  0.0105
76083W        W19000   8.135  32.582  10.592  0.1198 -0.1122 -0.0327
76084W        W19001   6.202  32.051  10.542  0.1928 -0.0737 -0.0890
76085W        W19002   3.925  28.342  10.844  0.2951 -0.0462 -0.0048
76086W        W19003   3.766  31.467   9.517 -0.3030 -0.0605 -0.0020
76087W        W19004   2.768  28.745   7.018 -0.0652  0.0443  0.0672
76088W        W19005   5.352  29.074   9.322  0.0763  0.1868 -0.1348
76089W        W19006   5.110  31.046  10.379  0.0453  0.3765 -0.0930
76090W        W19007   6.513  31.950   7.638  0.3110 -0.2730 -0.1727
76091W        W19008   6.579  29.624  10.861 -0.2337 -0.0762  0.0204
76092W        W19009   8.023  31.550   9.766 -0.2000  0.0775  0.1910
76093W        W19010   9.008  31.662   9.554  0.2131  0.0362 -0.0300
76094W        W19011   7.562  28.120  11.304  0.2266 -0.3705 -0.0868
76095W        W19012   6.629  31.667  10.171  0.0786 -0.4348  0.2568
76096W        W19013   6.352  30.681  10.586 -0.0562  0.0043  0.3106
76097W        W19014   4.358  28.403  10.482  0.2573  0.2063  0.0824
76098W        W19015   6.813  30.195  10.484  0.1043  0.0683 -0.2645
76099W        W19016   6.876  32.631   8.436  0.0531  0.0047  0.1207
76100W        W19017   2.601  25.790   8.975  0.3504  0.3385  0.2405
76101W        W19018   6.575  30.266   8.842  0.1195  0.5558  0.4363
76102W        W19019   4.052  31.649  10.533 -0.1758  0.2744 -0.1098
76103W        W19020   4.903  30.324   9.892  0.0944  0.2311 -0.0635
76104W        W19021   6.201  31.438  10.060 -0.1554  0.1831 -0.0152
76105W        W19022   7.395  34.032   8.937 -0.0902  0.1754 -0.1954
76106W        W19023   5.033  30.817  10.861  0.0301  0.2602 -0.0674
76107W        W19024   6.030  32.374  10.941 -0.2268  0.1268  0.1730
76108W        W19025   7.033  29.749   9.321  0.1216  0.0752  0.0118
76109W        W19026   3.884  32.765  10.359  0.0160  0.2612 -0.2802
76110W        W19027   7.376  31.295   8.732 -0.2744  0.3267 -0.2559
76111W        W19028   7.419  31.564   9.179  0.2334  0.2540 -0.1650
76112W        W19029   3.690  28.981  11.411  0.1042  0.1747  0.1316
76113W        W19030   6.840  31.246   8.708 -0.1219 -0.0668 -0.1967
76114W        W19031   5.002  31.303  10.881  0.0708  0.0462 -0.3039
76115W        W19032   3.843  31.127  11.162  0.1685  0.0071  0.1030
76116W        W19033   6.678  33.425   2.746  0.2383  0.0799  0.2128
76117W        W19034   7.671   0.147   0.268  0.0992  0.0649  0.0317
76118W        W19035   8.760  34.568   1.822 -0.1420 -0.1013 -0.1117
76119W        W19036   4.884  31.653   2.718  0.3488  0.0038  0.2137
76120W        W19037   4.551  32.931   2.878 -0.2227 -0.0035 -0.1802
76121W        W19038   3.571   0.383  31.018 -0.1586  0.1203 -0.1683
76122W        W19039   7.661  34.104   1.408 -0.0748 -0.2591  0.3431
76123W        W19040   5.632  33.056   1.804 -0.0125 -0.3004  0.2431
76124W        W19041   4.282  31.813   3.413 -0.0225 -0.0451  0.1385
76125W        W19042   8.609   0.388   0.446 -0.2513  0.0330 -0.0900
76126W        W19043   4.480  34.104  31.946  0.1318 -0.1873  0.2114
76127W        W19044   4.376  32.995   2.416  0.2712  0.0681 -0.2105
76128W        W19045   7.500  34.619   1.377 -0.4133 -0.3676 -0.0721
76129W        W19046   5.722  32.506   4.889 -0.0977  0.2354  0.1446
76130W        W19047   5.330  31.755   2.904  0.0558 -0.1262  0.0299
76131W        W19048   3.982  33.411   1.312 -0.1232 -0.4245  0.1614
76132W        W19049   4.382  33.930   0.890 -0.1117 -0.1941  0.1947
76133W        W19050   6.553  33.253   4.204  0.2672  0.1386  0.2500
76134W        W19051   5.486  34.236   2.239 -0.0945  0.1891 -0.1871
76135W        W19052   5.871  34.370   1.937 -0.0265  0.0784 -0.0057
76136W        W19053   9.269  33.156   4.462  0.0760 -0.0631  0.1351
76137W        W19054   7.758   1.074   1.416 -0.0661  0.0418 -0.0779
76138W        W19055   5.455  33.889   2.596  0.0069  0.3239 -0.0586
76139W        W19056   7.635  33.629   3.193 -0.2161  0.1448  0.0979
76140W        W19057   6.871   0.310   0.002  0.1086 -0.1623  0.0309
76141W        W19058   6.667  32.727   0.473  0.0765 -0.1339  0.2233
76142W        W19059   6.577   1.443   2.408  0.0515 -0.0605  0.0700
76143W        W19060   6.207  33.031   0.826  0.1011  0.0573  0.0255
76144W        W19061   6.128  33.526   3.587 -0.3238 -0.2086 -0.2274
76145W        W19062   4.152   0.770   0.472  0.2139 -0.1224 -0.1094
76146W        W19063   6.779  33.896   3.111  0.0341 -0.0974 -0.1429
76147W        W19064   4.676   0.015   2.293  0.3070  0.1022 -0.1823
76148W        W19065   3.845  32.814   1.050  0.0427  0.0963 -0.1770
76149W        W19066   4.668  34.244   2.700  0.0045  0.0852 -0.2442
76150W        W19067   5.726  33.978   3.629 -0.0762 -0.1204 -0.0886
76151W        W19068   4.372  32.566   1.155 -0.0800  0.0498 -0.0045
76152W        W19069   8.335  32.809   2.460  0.0627  0.1253 -0.0695
76153W        W19070   5.418  34.342   0.919  0.3133 -0.1329  0.0373
76154W        W19071   5.276  33.203   0.487 -0.0794 -0.3227  0.0931
76155W        W19072   7.682   0.433   1.131  0.2971  0.2114  0.0160
76156W        W19073   5.571  34.344   2.921 -0.3068 -0.2488 -0.0068
76157W        W19074   5.990  31.758   2.877  0.0766 -0.1941  0.1060
76158W        W19075   7.429  33.461  31.572 -0.1775 -0.1258 -0.0396
76159W        W19076   6.607  33.299   3.684 -0.1457  0.1567  0.2025
76160W        W19077   8.185  33.158   1.830 -0.0801  0.0619 -0.1589
76161W        W19078   6.577  34.238   1.779  0.1061 -0.2070 -0.1236
76162W        W19079   3.851  33.376   0.378 -0.1682  0.3681 -0.0798
76163W        W19080   5.304   1.615   1.115  0.1056 -0.1230  0.0746
76164W        W19081   4.269  33.051   3.797  0.0327 -0.3326  0.1415
76165W        W19082   5.681  31.625   1.102  0.0105 -0.0599  0.0336
76166W        W19083   6.220   1.483   5.504  0.0936  0.3364 -0.2132
76167W        W19084   5.027  31.194   1.077  0.0347  0.1064 -0.1111
76168W        W19085   5.873  33.842   2.194 -0.2393 -0.1186  0.0514
76169W        W19086   6.354  33.892   0.356  0.0174 -0.0730 -0.0674
76170W        W19087   6.492  31.409   5.494 -0.0195  0.0711  0.0301
76171W        W19088   5.238  34.030   5.447 -0.0786  0.1885 -0.2222
76172W        W19089   3.892  33.824   0.974 -0.2652  0.0128 -0.0831
76173W        W19090   5.298  33.675   0.801  0.0928 -0.0345 -0.0266
76174W        W19091   5.722  34.292   1.480 -0.0677 -0.0645 -0.0584
76175W        W19092   6.010  34.619   2.925 -0.2074  0.0116  0.0011
76176W        W19093   4.900  34.080   0.887  0.5093  0.0605 -0.0587
76177W        W19094   2.810  33.856   1.070  0.1536 -0.0415  0.1810
76178W        W19095   5.350  32.162   1.274 -0.1778  0.1392 -0.2945
76179W        W19096   5.422  33.663   2.133  0.1039 -0.0850 -0.0891
76180W        W19097   7.274  32.887   4.322  0.1744 -0.3839  0.2914
76181W        W19098   3.724   0.537   0.433 -0.0173 -0.2821 -0.0462
76182W        W19099   8.415  31.460   2.494 -0.0117 -0.3477 -0.0921
76183W        W19100   8.185   0.340   1.000 -0.0105  0.2596 -0.0691
76184W        W19101   6.585  33.862   2.093  0.2403 -0.1794 -0.0435
76185W        W19102   7.959  32.443   0.716  0.1501  0.2418  0.1168
76186W        W19103   7.183  33.007   0.839  0.1593 -0.4027  0.1956
76187W        W19104   5.664  32.108   2.965 -0.1414 -0.0199 -0.0888
76188W        W19105   4.912  32.598   2.433 -0.1936 -0.1445  0.1151
76189W        W19106   6.986  32.974   2.088 -0.1402 -0.4734 -0.2295
76190W        W19107   6.685  34.321   1.195 -0.2458  0.1074 -0.2520
76191W        W19108   6.676  34.370   2.301 -0.2139 -0.1524  0.2546
76192W        W19109   7.022  31.923   4.787 -0.0287  0.2868  0.1086
76193W        W19110   8.648  33.045   4.419  0.5145  0.3048 -0.1952
76194W        W19111   8.672   1.705   0.665 -0.0272 -0.0109 -0.0628
76195W        W19112   8.899  32.889   2.578  0.3086  0.1415 -0.2062
76196W        W19113   5.084  34.192   1.447 -0.1796 -0.2561 -0.1648
76197W        W19114   7.970  33.400   5.680  0.1430 -0.1220  0.1053
76198W        W19115   8.223  32.678   4.465  0.1465  0.0822  0.0650
76199W        W19116   4.474  31.876   1.613  0.0151  0.0441  0.2012
76200W        W19117   5.284  33.444   2.553  0.0101 -0.1603  0.0387
76201W        W19118   6.203  34.199   2.234 -0.0270  0.0135 -0.0309
76202W        W19119   6.684  33.919   2.665 -0.3818  0.3119 -0.2731
76203W        W19120   4.119   0.188   0.906 -0.3312 -0.0477 -0.3240
76204W        W19121   6.634  34.208   0.594  0.0530 -0.0662 -0.1333
76205W        W19122   3.778  34.426   1.872 -0.1486 -0.0567  0.0969
76206W        W19123   5.904  32.825   2.276  0.3647  0.0680  0.0413
76207W        W19124   6.116  33.920   1.759  0.0230  0.1627 -0.0332
76208W        W19125   6.246  32.557   1.351  0.2090  0.2075 -0.1377
76209W        W19126   7.156   0.207   2.864 -0.0163  0.0771  0.0930
76210W        W19127   5.412  33.924  30.899 -0.1820  0.0045 -0.0689
76211W        W19128   8.039  33.488   2.125  0.0784 -0.0914  0.2245
76212W        W19129   5.543  33.963   1.791  0.0882  0.1213  0.1853
76213W        W19130   6.353  34.265   2.758 -0.1889 -0.3381  0.0773
76214W        W19131   4.912  32.640   2.976 -0.0274 -0.1668 -0.2907
76215W        W19132   5.907  34.544   1.026 -0.0822  0.0804  0.3032
76216W        W19133   4.447  34.435   0.971  0.1742  0.1209  0.2413
76217W        W19134   7.121  33.423   1.931 -0.0176 -0.0096 -0.3255
76218W        W19135   7.503  33.353   4.568  0.1470  0.0452  0.2638
76219W        W19136   8.071  31.896   2.649  0.2741 -0.2941  0.2370
76220W        W19137   6.513  33.777   4.947  0.0794  0.1218 -0.0877
76221W        W19138   6.209   0.373   1.138  0.2043  0.2861  0.0075
76222W        W19139   7.098  33.344  31.145 -0.2468  0.2675  0.1609
76223W        W19140   6.627  32.635   1.038 -0.4270  0.2581 -0.0666
76224W        W19141   6.645  33.259   1.720 -0.0668 -0.2881  0.2110
76225W        W19142   7.003   1.583   1.641  0.1249 -0.1267 -0.0148
76226W        W19143   8.444  33.089   5.263 -0.3497  0.2259  0.2326
76227W        W19144   5.581  31.597   3.387  0.4300  0.2313  0.0449
76228W        W19145   6.180  34.363   4.208 -0.1305 -0.2228 -0.1074
76229W        W19146   5.391  34.342   3.433  0.2612  0.1844 -0.0710
76230W        W19147   6.990  33.059   1.355 -0.3773  0.1762 -0.0112
76231W        W19148   5.176  34.316  31.145 -0.1189  0.0805 -0.0665
76232W        W19149   4.915   1.265   1.923 -0.1859 -0.1703 -0.1634
76233W        W19150   8.754  33.000   1.097  0.1767 -0.1660  0.0338
76234W        W19151   6.191  33.532   2.116 -0.2295  0.3935 -0.4017
76235W        W19152   4.969  33.907   2.446  0.1167 -0.5587 -0.1368
76236W        W19153   7.182  32.151   2.566  0.0545  0.1992  0.0250
76237W        W19154   6.498   0.637   2.145  0.0131 -0.0355  0.0723
76238W        W19155   6.700  32.854   5.028 -0.3420 -0.1921  0.3339
76239W        W19156   7.010  32.446   4.791  0.1586 -0.0031  0.0301
76240W        W19157   8.155  32.407   2.718  0.1234  0.1072  0.0829
76241W        W19158   5.049  31.610   4.988  0.2239  0.2889  0.0771
76242W        W19159   7.130  34.362   0.431  0.1251  0.1391  0.0378
76243W        W19160   6.513  32.241   4.886 -0.2949  0.0464 -0.1407
76244W        W19161   7.876   0.935   3.632  0.0190 -0.1468  0.0744
76245W        W19162   5.686   0.335  30.859 -0.1443 -0.2205 -0.3241
76246W        W19163   4.586  31.836   0.490 -0.0391  0.0405  0.1867
76247W        W19164   8.167  34.283   4.237  0.1075  0.2172  0.0022
76248W        W19165   4.522  33.451   1.090  0.2076 -0.0620 -0.4612
76249W        W19166   7.410  34.362   3.709  0.1010  0.0259  0.0380
76250W        W19167   6.014   0.041  31.069 -0.1338 -0.0956 -0.1987
76251W        W19168   4.470  33.728   2.511 -0.2782  0.2930 -0.2337
76252W        W19169   5.121  33.707   0.300 -0.1598  0.1300  0.4575
76253W        W19170   3.548  33.409   1.529 -0.0770 -0.0192 -0.0965
76254W        W19171   5.978  33.653  31.843  0.3433  0.0078  0.4154
76255W        W19172   7.974  33.826   2.448  0.0491 -0.1639 -0.0479
76256W        W19173   6.414  33.508   3.152  0.2358 -0.1086 -0.1687
76257W        W19174   8.323   0.895   2.824 -0.0535 -0.1750  0.1754
76258W        W19175   6.345  34.119   3.233 -0.1439 -0.1675 -0.0008
76259W        W19176   6.986   0.606   1.862 -0.0423 -0.0922  0.2067
76260W        W19177   7.163  34.482   2.038  0.2906 -0.1251 -0.5159
76261W        W19178   5.368   0.074   1.164  0.2313  0.1994 -0.0496
76262W        W19179   4.555   0.264   3.685  0.0205  0.1570  0.0198
76263W        W19180   5.456  33.835   1.260  0.1690 -0.0353  0.0188
76264W        W19181   7.961  33.603  31.483 -0.0388  0.0480  0.0721
76265W        W19182   7.201  33.905   1.252 -0.3447 -0.1552  0.2128
76266W        W19183   9.039  34.540   3.405 -0.2913  0.0531 -0.0426
76267W        W19184   7.296   0.239   2.251 -0.0916  0.1875 -0.0742
76268W        W19185   6.405  33.066   2.945 -0.0626  0.3217  0.0147
76269W        W19186   7.094  33.565   0.049 -0.1056 -0.2924  0.1529
76270W        W19187   6.072  34.567   5.211  0.0045 -0.1937  0.0799
76271W        W19188   9.664  33.080   5.354  0.1913  0.2011 -0.0642
76272W        W19189   4.468  32.385   1.595  0.0602 -0.2166 -0.0100
76273W        W19190   6.183  33.473  31.317  0.2253  0.2441  0.2399
76274W        W19191   7.956  31.393   3.938 -0.1207  0.1191 -0.0575
76275W        W19192   6.036  33.583   0.638 -0.1967 -0.2483  0.0100
76276W        W19193   3.880   0.920   0.091  0.4778 -0.4516 -0.0463
76277W        W19194   8.581   0.655   1.520 -0.2172  0.0017 -0.0810
76278W        W19195   5.958  34.418   3.371  0.1460  0.1153 -0.0906
76279W        W19196   6.472  32.830   3.922 -0.1312 -0.0644  0.0068
76280W        W19197   4.731   0.535   1.231 -0.0019 -0.0237 -0.1848
76281W        W19198   6.774   0.431   2.614  0.1192  0.2854 -0.2311
76282W        W19199   4.178  33.863   2.891  0.0901 -0.3187  0.1462
76283W        W19200   5.334  32.850  31.526 -0.1479  0.3031  0.0807
76284W        W19201   9.402  34.271   3.942  0.1568  0.4127  0.0823
76285W        W19202   5.626   0.940  29.872  0.1165 -0.1874 -0.1815
76286W        W19203   4.366  32.311   2.160  0.1882 -0.2297 -0.1555
76287W        W19204   7.120   0.250   1.111  0.3473 -0.0934 -0.0043
76288W        W19205   4.605  34.234   1.391  0.0285  0.0923  0.2253
76289W        W19206   6.595  33.302   4.753  0.2807  0.0410  0.0105
76290W        W19207   3.740  32.890   0.555  0.0827  0.0210 -0.1413
76291W        W19208   6.859  33.846   0.351  0.4309 -0.0087  0.2714
76292W        W19209   7.126  34.531   2.492  0.0308  0.0824  0.0959
76293W        W19210   4.312  32.858   4.295 -0.3267 -0.0064  0.2956
76294W        W19211   4.015  32.247   1.823 -0.0789 -0.1023  0.1504
76295W        W19212   4.847   0.139   2.783 -0.0184 -0.1436 -0.1114
76296W        W19213   7.710   0.078   3.388  0.2698  0.1929  0.0556
76297W        W19214   7.616  32.169   2.810  0.1754  0.1650 -0.0658
76298W        W19215   6.380  32.626   3.172 -0.2168  0.3601 -0.2348
76299W        W19216   6.272  34.015   0.911  0.1540 -0.0939 -0.2996
76300W        W19217   5.760  31.837   1.989  0.1576 -0.1497 -0.0821
76301W        W19218   7.443  33.154   2.280  0.1150 -0.0117  0.1520
76302W        W19219   6.493  32.986   1.333 -0.1435  0.0200 -0.1393
76303W        W19220   5.936   0.340   2.637  0.0454  0.1414 -0.3553
76304W        W19221   4.919  33.806   2.893  0.0834  0.0520  0.1684
76305W        W19222   6.217  32.664   4.377  0.0740  0.3083  0.0544
76306W        W19223   5.792  33.455   2.840 -0.1200 -0.0223 -0.1577
76307W        W19224   3.640   0.260   1.181 -0.1066 -0.2352 -0.0025
76308W        W19225   5.845  33.991   0.296  0.0528 -0.3259  0.3393
76309W        W19226   5.965  32.847   2.878 -0.0026 -0.3547 -0.1434
76310W        W19227   5.128  31.159   3.012  0.2498  0.1945  0.2759
76311W        W19228   5.389  32.534  31.859 -0.0184 -0.3626  0.0925
76312W        W19229   5.752  33.451   3.344 -0.1942  0.0460  0.1372
76313W        W19230   4.970  33.357   3.216 -0.2790 -0.1342 -0.2529
76314W        W19231   3.694  31.642   1.318  0.0321  0.2439 -0.2968
76315W        W19232   5.444  33.378   1.380  0.2450  0.0948  0.0236
76316W        W19233   5.467  31.323   2.642 -0.0360 -0.5035  0.3429
76317W        W19234   6.671  33.360   2.220 -0.2232 -0.3374 -0.3721
76318W        W19235   7.611   0.602   0.644  0.1466 -0.0755  0.0456
76319W        W19236   3.603  33.643   4.639 -0.1186 -0.1318 -0.0666
76320W        W19237   5.786  32.946   4.759 -0.1482 -0.0303 -0.1183
76321W        W19238   6.382  34.304   0.095 -0.0665 -0.1973  0.0896
76322W        W19239   2.121  33.533   0.924 -0.3088 -0.0782  0.1857
76323W        W19240   6.600  32.731   1.823  0.1624  0.0557  0.1417
76324W        W19241   7.133  33.621   3.459 -0.0063 -0.4691 -0.1088
76325W        W19242   4.789  34.173  30.745  0.0798 -0.1502 -0.1359
76326W        W19243   8.080   1.784  31.447  0.0217 -0.3181  0.1638
76327W        W19244   5.007  31.135   1.886  0.2814 -0.0288  0.3156
76328W        W19245   6.395  33.907  31.697  0.0798  0.1024 -0.1710
76329W        W19246   4.991   0.338   1.990  0.1665  0.0053 -0.0797
76330W        W19247   7.710  34.448   1.805 -0.0626 -0.0534  0.1373
76331W        W19248   3.700  31.692   3.693 -0.0223 -0.1878  0.1204
76332W        W19249   5.861  33.162   0.311  0.2713 -0.0137  0.0571
76333W        W19250   5.186  33.228   4.098 -0.0250  0.2696 -0.0035
76334W        W19251   7.436  33.891   1.810  0.1495 -0.1445 -0.0891
76335W        W19252   8.331  33.828   5.147  0.1209  0.1032  0.2034
76336W        W19253   4.036  33.886   6.128  0.2403 -0.2855 -0.2433
76337W        W19254   6.635  32.924   7.788  0.1333 -0.0277 -0.1335
76338W        W19255   6.090  33.566   4.724  0.1078  0.0126  0.1359
76339W        W19256   6.937  34.458   7.451  0.4016 -0.0443 -0.1607
76340W        W19257   6.173  33.552   5.240  0.0624  0.2345  0.0824
76341W        W19258   4.929  34.315   4.406 -0.0470 -0.1253  0.2217
76342W        W19259   7.158  32.042   6.866 -0.0985 -0.0065 -0.0895
76343W        W19260   3.517  33.922   1.850  0.3918  0.2260 -0.1412
76344W        W19261   7.324  32.728   5.724 -0.2718 -0.4197 -0.0789
76345W        W19262   3.762  33.459   3.208 -0.1386 -0.2172 -0.1431
76346W        W19263   6.694  32.384   7.269 -0.2922  0.2687  0.1464
76347W        W19264   7.584  30.578   8.854 -0.2182 -0.4024 -0.2954
76348W        W19265   3.834  32.377   2.241  0.0743 -0.2299 -0.0203
76349W        W19266   4.125  34.269   6.403  0.0819 -0.1922 -0.0024
76350W        W19267   5.160  33.570   7.071  0.0435 -0.1380  0.0324
76351W        W19268   7.668  32.993   5.965 -0.3290 -0.3345  0.0246
76352W        W19269   4.915  33.919   5.808 -0.1478  0.2886  0.2922
76353W        W19270   5.780  32.764   8.520 -0.1395  0.1289  0.1143
76354W        W19271   6.129  32.817   7.076 -0.3297 -0.0294  0.1115
76355W        W19272   5.690  34.042   6.629 -0.0920  0.3138  0.0365
76356W        W19273   8.081  34.470   8.233 -0.0182  0.3719 -0.1261
76357W        W19274   7.202  31.447   4.623  0.1093 -0.0521  0.1789
76358W        W19275   5.963  33.677   5.881 -0.1222  0.2681 -0.3536
76359W        W19276   5.947  33.198   6.103 -0.1902  0.1012  0.2543
76360W        W19277   6.804  33.278   5.824  0.1305 -0.2231  0.0723
76361W        W19278   5.008  33.434   6.116  0.0726  0.3036 -0.0023
76362W        W19279   5.268   0.288   4.393 -0.0397  0.1803  0.1626
76363W        W19280   7.939  33.493   6.594  0.3496  0.1012 -0.4074
76364W        W19281   4.314  33.513   4.690  0.4738  0.0770 -0.1475
76365W        W19282   5.011  32.757   3.894  0.0292  0.1721 -0.2397
76366W        W19283   5.445   1.134   9.553 -0.0373 -0.3351 -0.1035
76367W        W19284   5.777   0.569   5.221 -0.1312  0.2979 -0.0460
76368W        W19285   5.737  31.926   2.460  0.2481  0.0172 -0.1950
76369W        W19286   9.217  33.279   5.976 -0.3526 -0.2517  0.0686
76370W        W19287   5.788  31.477   6.821 -0.1190  0.0243 -0.0386
76371W        W19288   7.977  32.477   7.238 -0.4626  0.2699 -0.2631
76372W        W19289   8.398  33.978   4.536 -0.2954 -0.0121 -0.0409
76373W        W19290   4.785  34.304   6.502  0.0248  0.0877  0.0488
76374W        W19291   3.957  34.484   4.863  0.0764  0.0789  0.0259
76375W        W19292   6.435  33.630   5.690  0.0125 -0.3790  0.0733
76376W        W19293   5.227  32.982   7.358  0.2563 -0.2249 -0.0680
76377W        W19294   8.948  33.007   7.169  0.0038 -0.1067  0.0331
76378W        W19295   6.952  33.080   3.999 -0.0119 -0.0787 -0.1988
76379W        W19296   5.483  32.962   5.885 -0.1975 -0.2866 -0.3653
76380W        W19297   5.594  34.058   7.150  0.1066  0.1863  0.0649
76381W        W19298   6.038  31.111   8.923 -0.5470  0.1448  0.2914
76382W        W19299   4.673  33.410   7.065 -0.0913  0.0788 -0.3375
76383W        W19300   5.973  33.969   7.408 -0.1256 -0.1071 -0.1352
76384W        W19301   3.441  32.160   5.324 -0.2956  0.0476  0.0577
76385W        W19302   8.018  31.694   6.642  0.1470 -0.2520  0.2113
76386W        W19303   2.390   0.048   3.830  0.0740 -0.1541  0.2425
76387W        W19304   7.391  31.938   8.178 -0.0511  0.3959 -0.1521
76388W        W19305   6.771  32.678   6.490 -0.2332 -0.0052  0.2809
76389W        W19306   6.722  32.708   4.520  0.3020  0.0998 -0.2702
76390W        W19307   6.918  33.736   6.242  0.1352 -0.1122  0.0583
76391W        W19308   4.967  30.860   7.242  0.2748 -0.1661  0.2630
76392W        W19309   5.761  32.727   7.390 -0.1517  0.3219  0.0118
76393W        W19310   5.837  33.251   5.555  0.2334  0.0209  0.0091
76394W        W19311   4.080   0.174   3.573  0.3082 -0.2045  0.3736
76395W        W19312   7.178  30.535   5.862  0.0481  0.1047  0.0330
76396W        W19313   5.119   0.567   6.781  0.2064  0.1415  0.2037
76397W        W19314   8.595  33.643   7.915  0.4096  0.2127  0.0327
76398W        W19315   6.594  34.057   4.015  0.0924  0.1648  0.1568
76399W        W19316   6.667  31.895   7.115 -0.2784  0.2658  0.1015
76400W        W19317   9.071  32.101   6.617  0.0845 -0.3393  0.1331
76401W        W19318   6.596  32.894   6.069 -0.1481 -0.0674 -0.0419
76402W        W19319   8.989  32.428   5.145  0.1205 -0.0663 -0.3159
76403W        W19320   7.999  32.042   5.173 -0.1825 -0.1802  0.2503
76404W        W19321   4.306  31.833   6.980  0.2020  0.0388  0.3832
76405W        W19322   7.048  33.443   4.987  0.0308  0.0695 -0.0835
76406W        W19323   6.095  30.264   4.701  0.1289 -0.0215 -0.2991
76407W        W19324   5.570  31.951   7.595  0.1551 -0.1319  0.4119
76408W        W19325   7.431  31.642   6.725 -0.2212  0.0295 -0.1983
76409W        W19326   6.676  31.490   8.088  0.1667 -0.0198  0.3279
76410W        W19327   4.941   0.077   5.129  0.0442 -0.0763 -0.0552
76411W        W19328   6.950  32.524   5.996  0.1128 -0.0134 -0.1987
76412W        W19329   7.021   1.998   5.589 -0.4096 -0.5040  0.2197
76413W        W19330   5.091  32.999   2.709 -0.1173 -0.4882  0.0501
76414W        W19331   5.471  31.177   6.510 -0.1736 -0.0838 -0.1608
76415W        W19332   6.814  33.117   9.245 -0.2250  0.1626 -0.1839
76416W        W19333   6.856  34.172   3.559 -0.2648  0.1445 -0.1506
76417W        W19334   4.977  33.895   6.299  0.1512  0.1595 -0.1351
76418W        W19335   5.755  29.961   7.192 -0.3384  0.3330 -0.2415
76419W        W19336   5.253  34.638   4.750 -0.3451 -0.0390  0.2683
76420W        W19337   5.236  33.571   3.645 -0.2428  0.1559  0.1490
76421W        W19338   5.304  32.846   4.935  0.4614 -0.2190  0.1549
76422W        W19339   5.237  34.252   7.891  0.3930 -0.0980 -0.1426
76423W        W19340   5.810  30.774   8.595 -0.0023 -0.1972  0.0404
76424W        W19341   7.150   0.034   7.955  0.1924  0.0630 -0.2509
76425W        W19342   7.444  33.686   2.253  0.1362 -0.2150  0.4631
76426W        W19343   6.240   0.565   8.111  0.1789 -0.3512 -0.1204
76427W        W19344   5.142  32.825   3.363  0.1403  0.0120 -0.1234
76428W        W19345   7.165  33.548   7.312 -0.0512 -0.1218  0.1640
76429W        W19346   4.791  33.783   5.361 -0.2530 -0.0284 -0.0446
76430W        W19347   5.947  33.861   3.147 -0.0588 -0.2904  0.3139
76431W        W19348   5.821  34.558   9.048  0.1078  0.0890 -0.2087
76432W        W19349   6.050  33.031   7.860 -0.0882  0.0379  0.0771
76433W        W19350   5.272  30.248   7.073  0.1060 -0.2317 -0.1447
76434W        W19351   5.528  33.233   6.908  0.2762  0.4212  0.1385
76435W        W19352   6.245  34.121   9.127  0.0530 -0.1777  0.1196
76436W        W19353   5.224  31.243   7.476 -0.1005 -0.0944 -0.0735
76437W        W19354   6.920   0.782   7.454  0.2749  0.2603 -0.2199
76438W        W19355   4.659  30.791   5.921 -0.1973 -0.0531  0.0281
76439W        W19356  10.028  32.563   2.751  0.0558  0.3819  0.3704
76440W        W19357   5.468  33.121   6.422 -0.0521  0.2087  0.2145
76441W        W19358   6.270  31.404   6.853 -0.2070  0.2588  0.2863
76442W        W19359   7.839  32.938   4.454  0.1700  0.1150 -0.3124
76443W        W19360   7.664  33.534   8.103 -0.0360 -0.0416  0.2624
76444W        W19361   4.601  32.640   7.698 -0.1386  0.1874 -0.0836
76445W        W19362   4.482  33.887   6.547 -0.2766  0.1363  0.2921
76446W        W19363   3.991   0.245   6.898 -0.2189 -0.2180 -0.2014
76447W        W19364   7.183   0.066   4.231 -0.1117 -0.2110 -0.0544
76448W        W19365   7.183  33.583   2.966 -0.2563 -0.1103 -0.0786
76449W        W19366   5.109   0.341   5.559 -0.1267  0.0561 -0.0678
76450W        W19367   6.552  34.573   5.420 -0.1225  0.0635  0.2709
76451W        W19368   5.256  34.510   5.554 -0.2131  0.0795  0.1305
76452W        W19369   5.605  32.060   4.695  0.1122  0.1017 -0.2578
76453W        W19370   6.141  33.619   9.254 -0.0854  0.0052  0.0564
76454W        W19371   5.523  33.560   6.107  0.1003 -0.1087 -0.0013
76455W        W19372   5.352  32.942   8.749 -0.0739 -0.0406  0.2258
76456W        W19373   5.827  34.016   7.860 -0.0192  0.1069  0.2693
76457W        W19374   6.794   1.103   8.294  0.3712 -0.0393 -0.2672
76458W        W19375   5.089  32.118   6.433 -0.0755 -0.0540  0.2121
76459W        W19376   8.019  33.089   3.454  0.2047  0.1289  0.0207
76460W        W19377   5.689  32.632   6.163 -0.2464 -0.0358 -0.2384
76461W        W19378   7.632  32.330   6.736  0.3837 -0.4892  0.1650
76462W        W19379   6.273  33.570   7.280 -0.0919 -0.1949 -0.0217
76463W        W19380   4.738  34.259   5.494 -0.0709  0.1249 -0.2989
76464W        W19381   6.132  34.526   7.241  0.0473 -0.3208  0.0913
76465W        W19382   5.699  32.150   3.722  0.0353  0.0015  0.1423
76466W        W19383   7.852  31.847   7.914 -0.0108  0.2204  0.1600
76467W        W19384   7.179  31.181   5.044 -0.0447 -0.0132 -0.1897
76468W        W19385   5.715  33.322   4.470 -0.0972 -0.1480 -0.1075
76469W        W19386   4.810  32.601   4.328  0.0762  0.0699  0.0860
76470W        W19387   4.605  34.078   2.212  0.2195  0.1315 -0.0181
76471W        W19388   6.901  32.198   5.203  0.1382  0.0171  0.2430
76472W        W19389   7.994  33.900   7.412  0.1687  0.0529  0.3288
76473W        W19390   7.471  31.987   5.475  0.1798  0.2149 -0.0904
76474W        W19391   7.106  32.360   8.055  0.1630  0.0259 -0.2010
76475W        W19392   4.393   1.257   4.657 -0.0128 -0.1223 -0.0489
76476W        W19393   4.573   0.389   5.992  0.0550 -0.2313  0.1351
76477W        W19394   7.266  34.313   7.018  0.1391  0.1120 -0.1770
76478W        W19395   5.765   0.010   4.329  0.0023  0.1060 -0.0200
76479W        W19396   4.343  34.533   7.789 -0.1088 -0.1139 -0.3270
76480W        W19397   6.418  33.426   6.144  0.0916  0.0781 -0.1610
76481W        W19398   6.029  33.977   5.066  0.2021  0.1193 -0.1098
76482W        W19399   7.993  33.554   4.686 -0.0441  0.1453 -0.0978
76483W        W19400   7.645  33.804   7.007 -0.0253 -0.0842 -0.0305
76484W        W19401   8.861  32.545   6.360  0.0915 -0.2885 -0.0126
76485W        W19402   5.890  31.685   6.156  0.3313  0.0215  0.1484
76486W        W19403   9.077  32.756   5.950  0.0313  0.2785  0.3821
76487W        W19404   4.289  34.405   5.705  0.0623 -0.1398  0.0959
76488W        W19405   6.625  33.540   8.519 -0.0629  0.2949 -0.0262
76489W        W19406   7.205  33.843   5.292 -0.0458 -0.2219 -0.0203
76490W        W19407   3.475   0.142   6.982  0.0676 -0.0598 -0.2477
76491W        W19408   8.429  31.700   8.718  0.1583 -0.2133 -0.0578
76492W        W19409   4.606   0.294   7.020  0.0189  0.2537 -0.3127
76493W        W19410   5.268  32.744   4.406  0.0843 -0.0009  0.0542
76494W        W19411   7.032  33.795   5.752  0.1142  0.1154  0.0271
76495W        W19412   4.314  33.331   7.450 -0.4625 -0.1093  0.0547
76496W        W19413   8.906  30.973   7.618 -0.2584 -0.0153 -0.0395
76497W        W19414   8.207   0.003   6.792 -0.1674 -0.2130 -0.2439
76498W        W19415   3.632  34.521   5.439 -0.1629 -0.0156  0.1410
76499W        W19416   4.791   0.168   4.663 -0.1518  0.1009  0.1553
76500W        W19417   9.382  33.484   5.431 -0.0520  0.2901 -0.2138
76501W        W19418   8.065   0.360   8.823 -0.2039  0.1663  0.0436
76502W        W19419   5.499  33.083   3.123 -0.0362  0.2706  0.0181
76503W        W19420   4.656  32.568   5.201  0.0285 -0.0767  0.1973
76504W        W19421   6.116  31.768   4.794 -0.2349 -0.0306 -0.2645
76505W        W19422   4.863   0.874   5.166  0.0958  0.0786 -0.1272
76506W        W19423   8.477  31.294   7.928  0.2978 -0.1531  0.1227
76507W        W19424   3.687  33.659   5.758 -0.1309 -0.1003 -0.2054
76508W        W19425   8.395  33.364   6.708  0.1763 -0.1896 -0.2439
76509W        W19426   6.383  32.994   6.600  0.1370 -0.0447  0.1582
76510W        W19427   5.619  34.501   8.075  0.1680 -0.1272  0.1531
76511W        W19428   6.346  32.487   6.743  0.1367  0.0696  0.0173
76512W        W19429   6.592  33.746   3.570  0.0853  0.5475 -0.4493
76513W        W19430   5.986  33.149   7.385  0.0736  0.0299  0.0287
76514W        W19431   7.475  32.729   7.596  0.0782 -0.1682  0.3590
76515W        W19432   9.008  33.076   8.685  0.2630 -0.1743  0.0132
76516W        W19433   7.302  31.630   7.215  0.1914 -0.0525 -0.0818
76517W        W19434   7.171  33.034   6.768  0.1385  0.0549 -0.2428
76518W        W19435   9.166  33.011   6.431  0.0730  0.1211  0.1477
76519W        W19436   6.892  31.590   3.852 -0.1368 -0.0497 -0.1895
76520W        W19437   5.388   0.212   7.782 -0.2053  0.1975 -0.0348
76521W        W19438   5.092  34.086   1.960 -0.2125  0.0735  0.0276
76522W        W19439   7.040  32.453  10.001 -0.2776 -0.2996  0.0263
76523W        W19440   4.716  33.890   8.246  0.1378  0.0070  0.1058
76524W        W19441   4.177   0.155   4.572 -0.0797  0.0928  0.0924
76525W        W19442   4.548  33.001   6.819  0.3754 -0.1507 -0.0665
76526W        W19443   3.863  33.296   8.256 -0.3018 -0.0546 -0.0643
76527W        W19444   5.911  33.529   6.492  0.0419  0.0345  0.2195
76528W        W19445   5.932  31.635   5.322  0.0084 -0.2999 -0.1241
76529W        W19446   4.946  32.589   7.159 -0.0980  0.0581  0.0971
76530W        W19447   6.577  32.216   8.478 -0.1494 -0.1275 -0.0343
76531W        W19448   4.777  33.505   4.399 -0.0058  0.1030 -0.2599
76532W        W19449   7.018  32.545   7.614 -0.1717 -0.2809 -0.0287
76533W        W19450   4.832  31.887   6.893 -0.1540 -0.3699 -0.1835
76534W        W19451   6.798  33.330   6.985 -0.0490  0.0506 -0.2272
76535W        W19452   6.220  34.280   5.609 -0.0623  0.3203  0.0880
76536W        W19453   4.691  31.214   7.695 -0.0264  0.0909 -0.2675
76537W        W19454   5.468   0.500   6.385 -0.0136 -0.1139  0.0096
76538W        W19455   7.008  31.728   5.340  0.3196 -0.0166 -0.2238
76539W        W19456   5.621  33.597   4.007  0.1251 -0.0159 -0.1646
76540W        W19457   7.490  34.013   5.682 -0.1565  0.1267  0.0815
76541W        W19458   5.434  33.825   7.585  0.0211  0.2934  0.0055
76542W        W19459   6.188  33.925   6.352 -0.0647 -0.1198 -0.0918
76543W        W19460   8.064   0.672   4.979  0.1279 -0.2108 -0.0378
76544W        W19461   5.720  31.808   5.718 -0.1197 -0.1468  0.0515
76545W        W19462   5.320  34.474   4.062 -0.1197 -0.0656 -0.1532
76546W        W19463   6.195  33.745   4.106 -0.2906  0.2377  0.2080
76547W        W19464   7.794  34.298   7.032  0.3342  0.1566 -0.0407
76548W        W19465   4.988  33.000   6.304  0.2958  0.0437 -0.1633
76549W        W19466   6.080  32.249   5.059 -0.2023 -0.2177 -0.3649
76550W        W19467   5.593  32.882   8.082 -0.1527  0.1183  0.0475
76551W        W19468  10.824  32.562   8.045 -0.3784  0.2209  0.1804
76552W        W19469   7.636  32.714   8.935  0.1270  0.1595 -0.1054
76553W        W19470   6.752  32.141   8.960 -0.1994 -0.1067  0.1141
76554W        W19471   5.345  34.120   5.929 -0.2906  0.2573  0.1195
76555W        W19472   4.601  33.151  10.142  0.2308 -0.2161 -0.0252
76556W        W19473   5.898  32.846   6.584 -0.0924  0.2218  0.0732
76557W        W19474   3.675  30.686  10.478 -0.2240  0.1369 -0.3137
76558W        W19475   4.838   0.905  10.691  0.1709 -0.1025 -0.0211
76559W        W19476   4.750   0.337   9.051  0.0848 -0.0838  0.0317
76560W        W19477   4.813  34.464  10.591  0.0835 -0.0951 -0.1224
76561W        W19478   4.470  34.493  11.173  0.2133  0.3077  0.2780
76562W        W19479   4.012   1.461  11.168 -0.1432 -0.2964 -0.0689
76563W        W19480   4.229  32.764   7.151  0.0391 -0.1311  0.0561
76564W        W19481   4.146  33.279  10.315 -0.0732 -0.0482  0.1697
76565W        W19482   1.551  34.504  11.734 -0.3076  0.0243 -0.0031
76566W        W19483   6.310  33.506  10.603 -0.0354 -0.2469  0.0522
76567W        W19484   5.113  33.437   9.913  0.1103 -0.0830 -0.1455
76568W        W19485   4.437  33.677  10.489 -0.0629 -0.1598 -0.0894
76569W        W19486   3.434  34.253  10.352  0.0637  0.2879 -0.0330
76570W        W19487   5.727  34.110   9.886 -0.0249  0.0640  0.2819
76571W        W19488   7.441  32.574  10.275 -0.2858 -0.2449 -0.0553
76572W        W19489   8.231  32.060   9.380 -0.1910  0.1394  0.2178
76573W        W19490   5.802  31.848  10.259 -0.1935 -0.0489 -0.0087
76574W        W19491   5.971  33.343  10.224 -0.0337  0.2048 -0.4249
76575W        W19492   5.445  34.241   8.981  0.0759  0.2859 -0.0093
76576W        W19493   5.897   1.471  10.830  0.0439 -0.0325 -0.0477
76577W        W19494   6.162  33.059   9.812 -0.4009 -0.1768  0.0110
76578W        W19495   4.695  34.048   6.980  0.0766  0.0650  0.0774
76579W        W19496   6.201  32.291   7.258 -0.1738 -0.0660 -0.2824
76580W        W19497   7.463  33.719  10.461  0.2688  0.3146 -0.1207
76581W        W19498   3.849   1.350  11.653  0.1239  0.2088  0.1676
76582W        W19499   6.660  31.799  11.491  0.0919  0.4009  0.1959
76583W        W19500   5.103  32.177   8.462 -0.0083 -0.1422  0.3739
76584W        W19501   1.956  29.431   8.929  0.0107 -0.1123  0.0015
76585W        W19502   7.136  31.043   9.777 -0.2102 -0.1372  0.3508
76586W        W19503   6.111  30.610   8.180  0.2592 -0.0811  0.1711
76587W        W19504   6.483  33.279  11.066 -0.0154 -0.1763  0.0149
76588W        W19505   3.497   0.927  11.503  0.6485  0.0231  0.0225
76589W        W19506   5.053  32.836   8.340  0.2048 -0.0048  0.2522
76590W        W19507   4.088  33.623   9.107 -0.1917  0.1498  0.1268
76591W        W19508   3.926  32.603   6.682 -0.1685 -0.3163  0.1453
76592W        W19509   6.653   0.086   9.779  0.4527 -0.2656  0.1985
76593W        W19510   4.538  32.989  10.659 -0.0774  0.0732  0.1726
76594W        W19511   3.237   0.460  11.974  0.0209  0.1620 -0.1357
76595W        W19512   5.449  32.953   9.223 -0.0232 -0.1596 -0.0142
76596W        W19513   4.886  34.420  11.517  0.0339  0.2257  0.2424
76597W        W19514   5.662  33.491  10.677  0.4746  0.0221  0.0854
76598W        W19515   5.059  33.091   6.872  0.1047 -0.0426 -0.2604
76599W        W19516   4.474  34.647  10.285 -0.1930  0.2523  0.2988
76600W        W19517   5.029  33.923   9.102 -0.2787  0.0231  0.0094
76601W        W19518   4.145  34.292   9.279 -0.0539 -0.0820 -0.0934
76602W        W19519   4.079  31.498   9.892  0.0528 -0.2332 -0.0463
76603W        W19520   9.024   1.669   8.492  0.0855  0.1299  0.0245
76604W        W19521   6.218  32.516  10.222  0.1601  0.3817  0.0716
76605W        W19522   9.576  32.064   8.905  0.0499  0.1384  0.2400
76606W        W19523   6.720  32.081   6.655  0.2357 -0.1447  0.4728
76607W        W19524   5.587  33.639  10.067  0.4128 -0.0939 -0.1651
76608W        W19525   5.780   0.360   8.235 -0.0777 -0.1205 -0.0653
76609W        W19526   6.295  34.284   9.975 -0.1452  0.1083 -0.1541
76610W        W19527   6.226   2.092  10.511  0.1648 -0.0276 -0.3437
76611W        W19528   7.419  33.214  10.339 -0.4114  0.2810 -0.1128
76612W        W19529   6.325  33.929   9.651 -0.1535  0.0024  0.1000
76613W        W19530   5.256   4.334   9.440  0.0810  0.3422  0.0711
76614W        W19531   6.036  32.547   8.116  0.2730 -0.1149 -0.1956
76615W        W19532   4.300  34.060  11.412  0.2123  0.0350 -0.1739
76616W        W19533   6.429  33.425   9.600  0.2282  0.4159 -0.0057
76617W        W19534   3.104  32.553  10.929 -0.4119 -0.0368 -0.2343
76618W        W19535   4.947  33.414  10.448  0.4239 -0.1737  0.5923
76619W        W19536   5.700   0.612   8.838 -0.1838 -0.0725  0.2241
76620W        W19537   3.647  33.894   9.125 -0.2522 -0.2330  0.0258
76621W        W19538   8.584  32.237   9.007 -0.1867  0.1624 -0.1624
76622W        W19539   3.097  34.183  10.837  0.0153  0.2242 -0.1387
76623W        W19540   5.737   0.981  11.046  0.0365 -0.1005 -0.3265
76624W        W19541   4.948  32.379   9.953 -0.2890 -0.0754  0.2834
76625W        W19542   3.007  33.073   8.954  0.1814  0.1101  0.3285
76626W        W19543   3.857  30.363  10.861  0.1217 -0.2413  0.2983
76627W        W19544   4.891   2.619  11.045 -0.1150 -0.1404  0.2375
76628W        W19545   5.409   0.274   9.032  0.0624  0.1163 -0.0759
76629W        W19546   4.514  33.995   9.118 -0.0397  0.3256  0.2397
76630W        W19547   4.358  34.088  10.234 -0.0221 -0.1405 -0.0707
76631W        W19548   5.664  32.182   9.507  0.1878 -0.0783  0.0778
76632W        W19549   4.677  33.255  11.127 -0.3274  0.1295 -0.0008
76633W        W19550   5.461  29.600  11.407 -0.0536 -0.0730 -0.3428
76634W        W19551   5.186  33.273   9.450 -0.0031  0.0884 -0.0782
76635W        W19552   4.786   1.654  11.534 -0.1281 -0.0301 -0.1662
76636W        W19553   7.022  32.408   9.340  0.0513  0.1640 -0.3463
76637W        W19554   3.843  34.397  10.564  0.1711  0.1405 -0.3615
76638W        W19555   5.612  33.485   8.024 -0.1254 -0.0269  0.2165
76639W        W19556   3.897   0.201  10.908  0.2726  0.2796  0.4108
76640W        W19557   5.145  33.352   8.928  0.0116  0.1662  0.0530
76641W        W19558   5.637  31.441   7.268  0.1508 -0.2819  0.1766
76642W        W19559   3.690  32.633   9.546 -0.0572  0.0660  0.0404
76643W        W19560   5.165  34.638   9.717  0.1138  0.1292 -0.0773
76644W        W19561   6.346  33.884   7.736 -0.0801  0.2690 -0.1777
76645W        W19562   6.501   0.560   9.969  0.0832 -0.1602 -0.0647
76646W        W19563   5.077  32.951   9.835  0.0251  0.1466 -0.0107
76647W        W19564   6.631  33.534   9.027  0.1407 -0.2150  0.2932
76648W        W19565   4.384  30.801  11.479 -0.3333 -0.1197 -0.1152
76649W        W19566   2.334   0.448  11.874  0.0188  0.1541  0.1220
76650W        W19567   7.276  32.947   9.260 -0.0345  0.0602 -0.0310
76651W        W19568   6.603  32.667   8.971 -0.2637  0.1261  0.2949
76652W        W19569   7.073  32.125   8.597  0.2941 -0.3614  0.1482
76653W        W19570   5.537  31.428   7.877  0.0776  0.0894 -0.2726
76654W        W19571   4.728  34.190   8.742  0.0492 -0.0005 -0.0056
76655W        W19572   4.305  32.155   8.345 -0.4065  0.1036 -0.0802
76656W        W19573   5.608  33.482   9.103 -0.0884  0.1330 -0.3556
76657W        W19574   5.154  34.030   6.781 -0.2039  0.1024 -0.1173
76658W        W19575   4.001  33.056   9.719 -0.2207  0.0176 -0.4227
76659W        W19576   5.114  33.961  10.101  0.0463  0.1080  0.1497
76660W        W19577   4.964  32.915  10.345  0.2369 -0.1651  0.3981
76661W        W19578   4.235  30.592  10.453 -0.0631  0.0509 -0.0535
76662W        W19579   1.886  33.922  10.973 -0.0734  0.3562 -0.1894
76663W        W19580   6.601  31.719   8.571  0.0006  0.0032  0.1154
76664W        W19581   5.442  33.685   9.547 -0.2784  0.0118 -0.0836
76665W        W19582   6.184  31.708   7.254 -0.3425 -0.1184  0.3121
76666W        W19583   6.109  34.490   9.529 -0.1541  0.2631 -0.2563
76667W        W19584   9.667  33.940   9.192  0.2823 -0.2259  0.0034
76668W        W19585   2.881   0.651  11.602 -0.1597  0.0165 -0.0660
76669W        W19586   5.872  32.192   8.566 -0.5265 -0.0184 -0.4889
76670W        W19587   4.568  34.518   7.269  0.2195  0.1727 -0.0209
76671W        W19588   5.062  33.648  11.060 -0.1567 -0.2217 -0.0349
76672W        W19589   4.819  30.880  11.752 -0.1808  0.2507 -0.3683
76673W        W19590   5.628   1.031  10.414  0.1238  0.2148  0.1395
76674W        W19591   5.236  33.182   7.962  0.0266 -0.1870  0.2971
76675W        W19592   6.476  34.625  11.399 -0.0268  0.0280 -0.1073
76676W        W19593   4.171  30.741  10.993 -0.0913 -0.0796  0.2826
76677W        W19594   4.116  32.488   9.969 -0.2387  0.0485  0.1643
76678W        W19595   4.523  32.240   9.652 -0.1092  0.1456  0.1431
76679W        W19596   4.428  33.635   9.538 -0.0325  0.0884 -0.2127
76680W        W19597   6.717  33.587   7.457  0.1742 -0.0019  0.0522
76681W        W19598   6.458  33.367  10.133  0.0790  0.0631  0.0734
76682W        W19599   4.028  33.632   9.987 -0.0139  0.2207 -0.2066
76683W        W19600   6.732  34.410   6.968  0.1770  0.0248 -0.1391
76684W        W19601   5.207   1.567   8.996  0.1316 -0.0495  0.0100
76685W        W19602   2.363  33.016   9.587 -0.1768 -0.1019 -0.1251
76686W        W19603   4.335  31.969  10.723 -0.2068 -0.1657  0.1969
76687W        W19604   3.307   2.522  10.507 -0.0431 -0.0247 -0.0710
76688W        W19605   5.601  33.186   9.777  0.0646  0.2781  0.4790
76689W        W19606   2.376  32.910  10.708 -0.1278 -0.1779 -0.0574
76690W        W19607   7.162  33.540   8.847 -0.1940  0.4583  0.0528
76691W        W19608   3.669   0.556  10.053 -0.1358 -0.1852 -0.1872
76692W        W19609   4.791   0.250  11.479  0.1665  0.0665 -0.1296
76693W        W19610   5.496  31.909   8.558 -0.0028  0.2085  0.0477
76694W        W19611   5.807  34.289  10.910  0.0487 -0.1219 -0.0059
76695W        W19612   6.138  33.962  10.729  0.0137 -0.0784  0.0051
76696W        W19613   6.249  32.977  10.359  0.1987 -0.0295 -0.0991
76697W        W19614   1.045  31.627  10.212  0.1546  0.0459  0.0318
76698W        W19615   4.996  33.601   7.762 -0.1242 -0.1784 -0.0835
76699W        W19616   4.311   2.007   9.720  0.0636  0.0322 -0.1486
76700W        W19617   4.308  31.008   8.392  0.2373 -0.0254 -0.0364
76701W        W19618   5.425  31.555  10.396 -0.0863 -0.0495 -0.1818
76702W        W19619   4.004  32.947  10.848 -0.1271  0.0458 -0.0143
76703W        W19620   5.120  31.098   7.961 -0.0747  0.0742 -0.0538
76704W        W19621   4.205  33.691   7.080  0.2045 -0.3786 -0.1949
76705W        W19622   5.148   0.284  10.712  0.1211 -0.0668  0.0074
76706W        W19623   1.996  28.901   9.837 -0.1814 -0.1611  0.1171
76707W        W19624   5.912  32.251   9.926 -0.0932 -0.0613 -0.2635
76708W        W19625   5.531   0.757   9.932  0.1595 -0.0212  0.0778
76709W        W19626   3.096  31.984   9.240 -0.1509 -0.0321 -0.1122
76710W        W19627   4.681   0.335   7.516 -0.1025  0.0980 -0.2010
76711W        W19628   1.955   0.822  11.866  0.1055  0.0153  0.2925
76712W        W19629   5.619  34.352   7.534  0.0324  0.2038  0.2187
76713W        W19630   6.786  34.540   6.170  0.0371 -0.2846 -0.1076
76714W        W19631   6.924  33.935   8.721 -0.0430 -0.2163  0.1344
76715W        W19632   3.071   0.067  10.575  0.1504 -0.1674 -0.1729
76716W        W19633   4.256   1.701  10.592 -0.0971  0.2201  0.1837
76717W        W19634   3.722  32.452  10.742  0.1849 -0.1590  0.1055
76718W        W19635   5.491   0.299   9.821 -0.1651 -0.0417 -0.2897
76719W        W19636   4.462  31.626  10.258 -0.0691  0.1133 -0.3031
76720W        W19637   6.088  31.944   9.352 -0.1519  0.1774 -0.0074
76721W        W19638  10.322   4.102   3.219  0.1209 -0.3557  0.1108
76722W        W19639   9.545   2.542   2.862 -0.1805 -0.1459  0.0545
76723W        W19640  10.015   1.242  29.682 -0.3673 -0.2146  0.6477
76724W        W19641  10.675   1.545   1.648 -0.2845  0.1018  0.1155
76725W        W19642   9.142   0.744   1.291 -0.0375  0.1493 -0.1403
76726W        W19643   8.985   3.323   1.364 -0.1015 -0.0300 -0.0429
76727W        W19644   9.713  32.997   2.753 -0.2131  0.0401 -0.2033
76728W        W19645   8.434   2.575   2.195  0.1593  0.2455  0.1868
76729W        W19646  10.303   1.283   3.317 -0.0896  0.1054 -0.3829
76730W        W19647   9.660   3.049  31.411 -0.2713  0.0988  0.0498
76731W        W19648  10.420   1.561   2.887 -0.0138  0.1810  0.0210
76732W        W19649   8.554   4.407   5.733  0.1562  0.1186  0.0403
76733W        W19650   9.209   0.635   2.048  0.0303  0.0000  0.3641
76734W        W19651   7.853  32.724   1.719 -0.3932 -0.1946 -0.0240
76735W        W19652   9.307   1.342  31.687 -0.2554 -0.0941  0.0179
76736W        W19653   8.429   1.349   0.409  0.2139  0.0122  0.0606
76737W        W19654   8.876   1.271   2.870 -0.1063 -0.1561  0.1355
76738W        W19655   8.376   2.177  31.416 -0.1290 -0.0461 -0.0182
76739W        W19656  10.575   3.667   2.871  0.0994 -0.0371 -0.1855
76740W        W19657  10.161  34.542   4.341  0.0789  0.0622 -0.0540
76741W        W19658   9.982  32.606   5.396 -0.0251  0.0418  0.0283
76742W        W19659  10.399   3.345   1.922 -0.0858 -0.3211 -0.0616
76743W        W19660   7.952   0.814   0.955  0.0677  0.0011  0.1267
76744W        W19661   5.642   0.069   3.551  0.1942  0.0801 -0.1883
76745W        W19662  10.388   1.704   2.320  0.2004 -0.2758 -0.1522
76746W        W19663  10.489   0.199   2.171 -0.1563 -0.0447  0.1757
76747W        W19664  10.909   1.352   4.167  0.0463 -0.0120  0.2318
76748W        W19665   9.882   3.855   3.125 -0.2397 -0.1184  0.2395
76749W        W19666   9.062   2.869   4.660  0.1655  0.1673 -0.1049
76750W        W19667   8.699  34.448   5.795 -0.4888  0.2928 -0.1560
76751W        W19668   8.096   3.201   0.748 -0.0988  0.1715 -0.0815
76752W        W19669   6.108   4.301   1.371  0.1771 -0.2839 -0.1032
76753W        W19670   9.021   2.111   0.914 -0.0381 -0.3361  0.0692
76754W        W19671  10.828   0.881   0.559  0.0665  0.3768 -0.0086
76755W        W19672   9.756   3.155   3.975 -0.3202  0.3174  0.0935
76756W        W19673   8.658   4.394   1.927 -0.0574  0.0630  0.1620
76757W        W19674   9.187   2.751  31.877 -0.1924  0.0122 -0.1791
76758W        W19675  10.685   2.965   3.842  0.1757  0.0884  0.0081
76759W        W19676   9.442   2.127   2.566  0.0407 -0.0885 -0.4064
76760W        W19677  10.179   0.200   3.978 -0.2804  0.2001  0.2328
76761W        W19678   9.993   3.714   2.230  0.1190  0.1600 -0.1631
76762W        W19679   9.272   2.620  29.489 -0.0887  0.0404  0.2857
76763W        W19680   9.436   2.880   2.201  0.1314  0.0990  0.1190
76764W        W19681   8.945  33.919   5.691  0.0429  0.4576  0.0654
76765W        W19682   8.394   0.376  31.569  0.1725  0.0203 -0.0344
76766W        W19683  14.103   0.365   4.297  0.0958 -0.2822 -0.2235
76767W        W19684   9.148   1.994   0.429 -0.4250 -0.1023 -0.1671
76768W        W19685  10.696   0.281   2.928  0.1865  0.2139 -0.0282
76769W        W19686   8.285   0.336   2.896  0.0252 -0.1828  0.1006
76770W        W19687  10.328  33.718   1.163  0.1089  0.0837 -0.2295
76771W        W19688  10.457  34.662   0.722 -0.0607 -0.1321  0.3183
76772W        W19689   8.535   3.491   1.584 -0.1274  0.1499 -0.0831
76773W        W19690  10.327   1.941   1.653 -0.1764 -0.0489 -0.1319
76774W        W19691  11.891   1.177   1.173 -0.2731  0.0814  0.3214
76775W        W19692   9.128  34.026   1.361  0.0510  0.2235  0.1474
76776W        W19693  11.018   0.068   3.308 -0.1693  0.2407  0.1716
76777W        W19694   7.781   5.816   1.861 -0.0562  0.0233  0.0932
76778W        W19695   8.874  33.887   2.269  0.4088 -0.2776  0.1522
76779W        W19696  10.850   2.792   1.263  0.1624  0.1018  0.1405
76780W        W19697  11.798   3.638   1.761  0.3197 -0.0502  0.1769
76781W        W19698  11.551   2.012   0.988  0.0590  0.1551 -0.0518
76782W        W19699   8.358   1.080   1.218 -0.2286  0.0880  0.0030
76783W        W19700   8.314   3.846   2.455  0.3635  0.2797 -0.0698
76784W        W19701   9.447   0.686   3.662  0.0381 -0.0768  0.1995
76785W        W19702   7.481   2.187   2.141  0.1581  0.6131  0.1729
76786W        W19703  10.514   2.731   2.613  0.2242 -0.1247 -0.0767
76787W        W19704   8.871   2.865   1.417  0.0688  0.0094  0.0069
76788W        W19705  11.086  34.646   1.963  0.0149  0.0253 -0.2528
76789W        W19706   7.062   2.533   3.490  0.0261 -0.2023  0.1548
76790W        W19707  10.264   2.000   2.721  0.2309  0.0904 -0.0092
76791W        W19708   9.497   1.465  30.991  0.1509 -0.1407  0.1941
76792W        W19709  10.403  33.408   3.535  0.0186  0.2185  0.0868
76793W        W19710  10.899  31.849   2.850 -0.0303  0.1302  0.3574
76794W        W19711   8.522   4.301   2.401 -0.1966  0.0838 -0.1298
76795W        W19712  10.746   1.596  31.750  0.2013  0.1088  0.1353
76796W        W19713  10.725   2.202   3.891 -0.0161  0.2475  0.1113
76797W        W19714  10.957  34.289   1.572  0.1573  0.3825  0.1052
76798W        W19715   7.784   3.767   2.516 -0.2777 -0.1232  0.2789
76799W        W19716   8.925  34.421   3.917  0.1639 -0.3323 -0.2405
76800W        W19717   9.142   2.988   3.944  0.0831  0.0782  0.3236
76801W        W19718  10.300   2.110   0.562 -0.0331 -0.3256  0.0590
76802W        W19719   8.955   1.588   4.494 -0.0391  0.1243 -0.0459
76803W        W19720   8.422   2.635  31.692 -0.2226  0.1551 -0.1884
76804W        W19721   9.985  34.367   4.846  0.1594 -0.0491  0.1802
76805W        W19722   9.017   3.310   2.318  0.1381  0.0718  0.3610
76806W        W19723   8.771   0.555  31.400  0.1402  0.2595 -0.0631
76807W        W19724   7.036   3.613   2.911 -0.0433  0.0775 -0.2262
76808W        W19725  10.604  34.125   3.461 -0.0932  0.0802  0.1357
76809W        W19726   6.970   3.786   0.901  0.0704  0.0190 -0.0842
76810W        W19727  11.713   2.837   1.557 -0.2063  0.0944 -0.3535
76811W        W19728  10.318  32.670   0.229 -0.0110  0.2911 -0.0163
76812W        W19729  10.062   3.481   0.043 -0.1005 -0.0602 -0.1116
76813W        W19730   6.943   0.625   3.781 -0.1242 -0.0468  0.1479
76814W        W19731   7.979   0.733   3.168 -0.0777 -0.4197 -0.1644
76815W        W19732   7.916   1.419   2.738 -0.0572  0.0415  0.1155
76816W        W19733   8.428   1.030   4.889 -0.3523 -0.4837 -0.0597
76817W        W19734   8.918   0.703   4.369  0.2223 -0.0052  0.0900
76818W        W19735   7.172   0.181   0.380 -0.1227  0.1018  0.0306
76819W        W19736  12.485  33.269   2.756 -0.0267  0.2165  0.0093
76820W        W19737   9.974  34.580   1.121 -0.2263 -0.0179 -0.2589
76821W        W19738   7.864   2.384   1.609  0.2649 -0.3893 -0.1571
76822W        W19739   9.545  34.615   4.491  0.2173 -0.4674  0.0756
76823W        W19740  10.569   2.311   3.000 -0.1089 -0.4086  0.2327
76824W        W19741  11.566   2.392   2.386 -0.3084 -0.0369 -0.1476
76825W        W19742   9.317   4.833   2.367 -0.0641 -0.0039  0.2153
76826W        W19743   9.476   0.138   3.703 -0.0926 -0.4023 -0.2632
76827W        W19744   9.705   1.001   1.316 -0.1190  0.1104  0.2074
76828W        W19745   7.913   6.541   0.938 -0.1003 -0.3498  0.0601
76829W        W19746   6.919   4.303   1.036 -0.0351  0.1564 -0.0775
76830W        W19747   8.872   0.928  30.493 -0.0557  0.0887 -0.1302
76831W        W19748  11.431   4.697   2.573  0.1309 -0.0913  0.4170
76832W        W19749  10.541   0.716   1.427 -0.1868 -0.0623 -0.0453
76833W        W19750   9.678   2.185   1.733  0.3236 -0.1592  0.0050
76834W        W19751   9.666   0.336   3.258  0.1368 -0.0081 -0.1417
76835W        W19752   7.620   1.035   4.928 -0.3765  0.1154  0.0555
76836W        W19753  11.267   1.439   2.359  0.0328  0.0931 -0.0389
76837W        W19754   7.189   1.794  30.246 -0.0569  0.1067 -0.0025
76838W        W19755  10.350   3.107   2.972 -0.0922  0.1998 -0.3303
76839W        W19756   9.077   1.872   2.301 -0.1348  0.1144 -0.0512
76840W        W19757   6.395   2.187   1.254 -0.2430  0.0980  0.1351
76841W        W19758   8.776   1.719   3.136 -0.1671 -0.2570 -0.3082
76842W        W19759  10.132  34.392   2.912  0.1144  0.1390 -0.2772
76843W        W19760   9.175   2.602   3.327  0.0789  0.1999 -0.1153
76844W        W19761  10.330   1.920   3.716  0.1626  0.0745 -0.1347
76845W        W19762   8.758   1.833  31.670 -0.2107 -0.0395 -0.0996
76846W        W19763   7.312   3.853   3.233  0.3191 -0.1042  0.0961
76847W        W19764  10.183   1.379   1.495 -0.1091  0.2648 -0.0238
76848W        W19765   9.643   0.241   1.813 -0.1510  0.2295 -0.1685
76849W        W19766   8.409   0.679   4.545 -0.0294 -0.4252 -0.0586
76850W        W19767  10.487   4.499   2.586  0.3361 -0.0732  0.0677
76851W        W19768  10.134   0.509   2.016  0.1171  0.1975  0.0220
76852W        W19769   9.286   1.044   1.668  0.2319  0.0754 -0.2186
76853W        W19770   8.685   3.272   4.785  0.0616 -0.0946 -0.3730
76854W        W19771   9.944   1.770  31.777 -0.2005  0.1278 -0.1638
76855W        W19772   8.909   0.818   3.547  0.1996  0.2697  0.4352
76856W        W19773   9.463   0.559   0.971  0.1128 -0.2252  0.2625
76857W        W19774  11.068   2.400   1.540 -0.3220  0.1148  0.2643
76858W        W19775   8.542   1.085   3.222 -0.0156  0.0649 -0.2082
76859W        W19776   9.082   3.795   3.721 -0.1230  0.4751 -0.2864
76860W        W19777   9.977   3.851   4.608 -0.1857 -0.4215 -0.1197
76861W        W19778   9.725  33.449   2.532 -0.2529  0.2767 -0.0543
76862W        W19779   8.155   0.921   0.481 -0.0962  0.1479 -0.3161
76863W        W19780  10.705   0.261   1.701 -0.0296  0.3268  0.1342
76864W        W19781   8.274   1.872   0.438  0.0714 -0.0597 -0.0315
76865W        W19782  10.498  34.570   3.209  0.2801 -0.0253  0.1554
76866W        W19783   9.883  34.523   1.653 -0.2680  0.2755  0.3430
76867W        W19784   8.981  32.906   5.018  0.0500  0.2576 -0.0179
76868W        W19785  11.100  33.643   0.898 -0.0003 -0.1371  0.0650
76869W        W19786  11.304   4.732   1.537 -0.2631  0.0682  0.2470
76870W        W19787   8.925   2.693   2.213 -0.0496 -0.2226  0.2815
76871W        W19788   7.627   1.839   0.815  0.4322 -0.1618 -0.0016
76872W        W19789   9.172  34.548   2.909  0.0292  0.2141  0.1844
76873W        W19790   8.170  34.622   3.257 -0.0833 -0.0433 -0.0332
76874W        W19791   6.378   2.620   2.160 -0.0961  0.0809  0.0521
76875W        W19792  10.760   3.794   3.344 -0.2479 -0.2387  0.0953
76876W        W19793  11.003   1.953   0.556  0.2114 -0.4223  0.0561
76877W        W19794   9.423  33.839   5.791 -0.0113  0.1928 -0.0421
76878W        W19795  10.157   0.246   1.557  0.1240  0.1008  0.3083
76879W        W19796  10.116   2.475   1.623  0.0671 -0.0334  0.2139
76880W        W19797   9.272   2.567   1.576 -0.1815 -0.0403  0.1111
76881W        W19798   9.880  32.870   2.277 -0.1267  0.0800 -0.3252
76882W        W19799   8.862   2.954   2.949  0.2928  0.0139 -0.1223
76883W        W19800   9.694   1.852   0.250  0.2500 -0.0309  0.1028
76884W        W19801   9.584   1.171   2.425  0.0678 -0.0548 -0.1478
76885W        W19802   7.208   3.147   0.202  0.2125 -0.2323 -0.0292
76886W        W19803   9.958  33.627   4.042 -0.3107 -0.2877 -0.2397
76887W        W19804   7.694   1.584   3.145 -0.2432  0.1933 -0.0684
76888W        W19805  10.216   0.772  31.208  0.2483  0.0969 -0.0706
76889W        W19806   8.414  34.008   2.685  0.0598  0.1778  0.0839
76890W        W19807  11.275   0.580   2.438  0.2298  0.2051  0.2002
76891W        W19808  10.179  33.676   2.177  0.0159 -0.1160 -0.1743
76892W        W19809   9.645   0.578   2.165 -0.4409 -0.2089  0.1531
76893W        W19810   9.778  34.022   2.814 -0.2627  0.0432 -0.0513
76894W        W19811   8.651   3.596   1.043 -0.0905  0.1364  0.0693
76895W        W19812   9.329  34.076   3.099 -0.2526  0.0029 -0.0439
76896W        W19813   9.769   0.663  29.408 -0.1517 -0.3832 -0.1016
76897W        W19814   8.632   1.953   2.757  0.1427 -0.2044  0.3174
76898W        W19815  10.434   0.236   6.576  0.0915  0.0352  0.0967
76899W        W19816   9.511   0.643   1.591 -0.1139 -0.2033  0.0769
76900W        W19817   9.866  34.187   3.832  0.1571  0.0427  0.0579
76901W        W19818   9.171   1.751   2.778  0.0570 -0.3454  0.2126
76902W        W19819   7.794   2.560   2.127 -0.4918  0.1168  0.0993
76903W        W19820  11.477   3.000   2.431 -0.1440  0.1498 -0.0557
76904W        W19821   9.256   1.916   1.831  0.0572  0.1187 -0.1319
76905W        W19822   7.193   3.451   1.734  0.1681 -0.0561  0.1854
76906W        W19823   9.570   0.554   5.350  0.3805 -0.1074 -0.1447
76907W        W19824  10.128   1.773   3.266 -0.2070 -0.0651 -0.0009
76908W        W19825  10.075  34.218   3.358 -0.2162 -0.0967  0.2048
76909W        W19826   9.918  34.409   2.457  0.1860  0.0539  0.1604
76910W        W19827  10.643  34.561   4.155 -0.2022 -0.0866  0.2809
76911W        W19828   9.822   2.440   2.429 -0.3510 -0.0508  0.1252
76912W        W19829   9.387   1.263   2.880 -0.1977  0.0699 -0.0839
76913W        W19830   6.321   2.683   2.692  0.0495 -0.2811 -0.1115
76914W        W19831   8.380  33.086   0.758 -0.0102  0.4008 -0.3412
76915W        W19832  10.128   1.109   0.090  0.0491 -0.1479  0.2186
76916W        W19833   9.204   3.538   4.216 -0.1132 -0.3655  0.2663
76917W        W19834   8.830   1.506   1.967 -0.0031  0.0695  0.1902
76918W        W19835   7.068   0.568   3.218  0.4111  0.2400  0.2167
76919W        W19836   9.592   2.053  31.137  0.1987  0.1029 -0.2492
76920W        W19837   8.543   3.702   3.714  0.0768  0.1434  0.1867
76921W        W19838   7.788   4.023   0.676 -0.3602 -0.0843 -0.3561
76922W        W19839   7.836   2.709   0.791 -0.1682 -0.2061 -0.0023
76923W        W19840   8.328   2.255   1.811  0.0127  0.1904  0.3257
76924W        W19841  10.524  34.650   2.617  0.3741  0.1355 -0.1064
76925W        W19842  10.207   3.161   0.772  0.1031  0.1523  0.0728
76926W        W19843   8.428   0.178   1.459 -0.1203  0.1542  0.3253
76927W        W19844  10.611   1.834   4.219  0.1451 -0.0090  0.0365
76928W        W19845   9.728   1.079   1.933  0.1193  0.0242  0.1535
76929W        W19846  10.224  34.072   4.179  0.0962  0.6067 -0.0565
76930W        W19847   8.449  33.890   6.476  0.1944  0.1636 -0.0307
76931W        W19848   9.530   3.486   2.947  0.3330 -0.0155  0.0067
76932W        W19849   7.982  34.472   2.811  0.2244 -0.2506  0.4244
76933W        W19850   7.939   3.955   3.796 -0.0975 -0.1939  0.1635
76934W        W19851   8.871   1.471   4.040  0.4529 -0.3673  0.2159
76935W        W19852   8.294   0.056   0.266  0.1086 -0.1168  0.0334
76936W        W19853   8.159   0.149   2.393  0.0395  0.3233 -0.0119
76937W        W19854   9.307   1.982   1.309  0.2681  0.2787 -0.0955
76938W        W19855   9.326   1.506   3.777  0.2316 -0.2893  0.0642
76939W        W19856  10.259   2.592   2.159  0.1088  0.0546  0.0390
76940W        W19857  11.795   1.050   2.921  0.0396 -0.1694 -0.0748
76941W        W19858   9.781   1.410   3.359 -0.4174  0.2489 -0.3845
76942W        W19859  10.069  34.146   1.934 -0.1434 -0.0374 -0.1965
76943W        W19860   9.107  34.482  30.143  0.0476  0.0750  0.0424
76944W        W19861   9.134   4.345   1.550  0.1896  0.0467 -0.2010
76945W        W19862  10.097   0.997   3.672 -0.1328 -0.1709 -0.5299
76946W        W19863   7.408   1.075   4.382  0.0512  0.0289  0.2946
76947W        W19864  10.338   0.675   0.766  0.0710  0.1546 -0.0395
76948W        W19865   8.888   1.340   3.571 -0.0950  0.1621 -0.3083
76949W        W19866  11.647   0.607   4.639 -0.2834  0.2464  0.0006
76950W        W19867   8.583   3.292   3.379  0.2563  0.3586  0.1265
76951W        W19868   9.547  33.954   4.780  0.0753  0.0021 -0.0174
76952W        W19869  11.447   3.346   4.252 -0.1298 -0.3993 -0.1890
76953W        W19870  10.194   0.587  31.779  0.0338  0.0200  0.3297
76954W        W19871  12.653   0.642   3.708  0.0623 -0.0955  0.0507
76955W        W19872  10.057   0.386   2.565 -0.1101 -0.0935  0.0111
76956W        W19873   9.777  34.606  31.622  0.1794  0.3934  0.2221
76957W        W19874   9.914   0.515   1.165 -0.0253 -0.0967  0.0047
76958W        W19875   9.431   1.476   4.256  0.2695 -0.0308 -0.0837
76959W        W19876   9.002   0.763   0.806  0.2861 -0.1312 -0.0172
76960W        W19877   9.549  34.513   3.341 -0.4682  0.3235 -0.1081
76961W        W19878  10.432   3.323   0.364 -0.0139 -0.0688  0.0789
76962W        W19879  10.027   1.336   2.303  0.2978  0.0431 -0.1612
76963W        W19880  10.650   1.881   0.177  0.1575  0.0670  0.0437
76964W        W19881   7.262   0.682   4.707  0.0769 -0.1404 -0.1703
76965W        W19882   8.395   4.089   4.494  0.2310 -0.0889 -0.0901
76966W        W19883   7.544   1.574   1.563 -0.2866 -0.0837 -0.0222
76967W        W19884   9.656   1.198  30.584 -0.1702  0.2589 -0.1735
76968W        W19885   8.263   4.695   2.121  0.1375  0.0072  0.0319
76969W        W19886  10.203   0.544   3.410  0.1184 -0.1688  0.0538
76970W        W19887   8.762   0.986   0.408 -0.2533 -0.0591 -0.0902
76971W        W19888  10.974  34.452   2.854 -0.0408  0.1004  0.3847
76972W        W19889   8.293   0.996   1.714  0.1908 -0.1647  0.0030
76973W        W19890  10.306  32.411   3.155 -0.1225 -0.0112  0.0756
76974W        W19891   8.955   2.953   0.519  0.1590 -0.1518 -0.3407
76975W        W19892   8.747   0.931   2.492 -0.0844  0.1772 -0.0710
76976W        W19893   9.932   3.214   1.274  0.1763  0.0278 -0.1244
76977W        W19894  10.423  33.603   4.241  0.0403  0.0076  0.4706
76978W        W19895  11.307  33.948   1.396  0.1414 -0.0865 -0.0117
76979W        W19896   9.344   1.641   3.234  0.0407 -0.6541  0.1048
76980W        W19897  11.872   0.587   3.251  0.2121  0.3542  0.0483
76981W        W19898   8.563   3.402   2.886  0.0651 -0.2663  0.2273
76982W        W19899  11.196   3.180   0.776 -0.1312  0.2468 -0.3082
76983W        W19900   9.123   3.052   1.893 -0.0282 -0.1208  0.3420
76984W        W19901  11.873   3.724   2.770 -0.1227 -0.1830 -0.2344
76985W        W19902   8.639   1.938   2.050 -0.2443 -0.2042  0.1465
76986W        W19903   7.708   0.003   4.089 -0.1436  0.2501  0.0055
76987W        W19904   9.215   0.656   5.988 -0.1496 -0.1067 -0.1777
76988W        W19905  10.907   1.355   2.671  0.0662 -0.0663  0.1082
76989W        W19906   7.673  33.985   2.790  0.0211  0.4088 -0.1957
76990W        W19907  10.319   4.663   1.466 -0.1690  0.3824  0.1727
76991W        W19908   7.608   3.912   1.995  0.2739  0.1733  0.1144
76992W        W19909   9.527   2.797   3.704  0.1682  0.2540  0.1392
76993W        W19910   9.525   2.057   0.837  0.0847  0.0891  0.2557
76994W        W19911   9.852   3.033   3.112 -0.1352  0.2472  0.0240
76995W        W19912  10.199   2.069   1.130  0.4321 -0.0391  0.1255
76996W        W19913  11.553   1.550   1.284  0.1684 -0.4299 -0.2283
76997W        W19914   8.421  34.184   1.625 -0.2806 -0.2225 -0.0004
76998W        W19915   7.557   3.006   1.734 -0.1914  0.3064  0.3523
76999W        W19916   7.357   1.756  31.048 -0.2502  0.0266 -0.3656
77000W        W19917   9.270   1.659   0.092 -0.0843  0.0551 -0.3600
77001W        W19918   9.812   2.104   2.934  0.1454  0.0886  0.1120
77002W        W19919   9.686   1.905   3.481  0.0291 -0.0754 -0.1925
77003W        W19920  11.855  33.793   2.349 -0.1907  0.1666 -0.1579
77004W        W19921  10.681   2.351   3.437 -0.2962 -0.0199  0.3487
77005W        W19922  10.404  34.531   1.336  0.1319  0.0547  0.0037
77006W        W19923  11.430   2.345   3.459 -0.0532  0.0727  0.1732
77007W        W19924   9.455  34.299   2.551  0.1814  0.1625  0.1063
77008W        W19925   9.280   0.028  30.530  0.0972  0.1803  0.1932
77009W        W19926   8.804   2.460   4.332 -0.2510  0.2960  0.0783
77010W        W19927  11.030  33.871   2.925 -0.1669 -0.3676  0.2606
77011W        W19928   6.163   3.122   2.915  0.2520  0.0382  0.0042
77012W        W19929  10.544   2.373   1.372  0.1623 -0.1516 -0.0073
77013W        W19930   6.402   2.039  31.034 -0.1229  0.1617 -0.2956
77014W        W19931   9.886   1.829   1.402 -0.5027  0.1100 -0.0360
77015W        W19932  10.714  33.693   2.517 -0.3840 -0.1357  0.1722
77016W        W19933  12.169   1.901   2.375  0.3550 -0.1012  0.0784
77017W        W19934  11.276   0.124   2.765 -0.0868 -0.1125  0.0975
77018W        W19935  11.097   1.643   1.163 -0.0763  0.0957 -0.0052
77019W        W19936   8.514   5.144   2.206  0.0607 -0.3326  0.2810
77020W        W19937   9.213   3.916   2.887  0.2570 -0.0567 -0.2142
77021W        W19938   8.767   0.838   1.963 -0.0259  0.1431  0.0846
77022W        W19939  10.108  33.664   2.753 -0.2002  0.1300  0.1879
77023W        W19940   8.335   1.634   4.668  0.0038  0.1071  0.0084
77024W        W19941  11.418   1.394   2.874  0.1439 -0.0775  0.1125
77025W        W19942   7.190   1.950   4.013  0.1160  0.0278 -0.2407
77026W        W19943  10.300   0.281   0.279 -0.1057 -0.1752 -0.0523
77027W        W19944   8.555   0.308   4.250 -0.0718  0.0890 -0.3080
77028W        W19945   9.792  33.710   3.604 -0.3037 -0.1394 -0.2783
77029W        W19946   9.247   1.239   0.992 -0.1942 -0.0673 -0.1528
77030W        W19947  11.440  34.362   3.769 -0.0893  0.1913  0.1587
77031W        W19948  11.427   2.316  31.174  0.0377  0.0746  0.1843
77032W        W19949   9.579   3.841   3.850 -0.1065 -0.0063  0.1234
77033W        W19950   8.056   1.259   3.193 -0.2641  0.0150 -0.1138
77034W        W19951   9.820   1.305   0.501  0.0427  0.4519 -0.4851
77035W        W19952   9.950   1.668   1.898  0.0841 -0.1498 -0.1121
77036W        W19953   8.926   0.681   2.944  0.2027  0.2105 -0.2771
77037W        W19954   8.926   3.669   5.203  0.0609 -0.1182 -0.0522
77038W        W19955   6.590   1.023   4.786  0.0017 -0.0608  0.1902
77039W        W19956  10.882   1.941   1.509 -0.2363 -0.1137  0.0957
77040W        W19957  12.539   0.027   3.124  0.1697  0.2068 -0.1693
77041W        W19958  10.205   2.737   1.097 -0.2449  0.0479  0.0821
77042W        W19959  11.017   0.559   1.445  0.1154 -0.0935  0.1566
77043W        W19960  10.151   3.375   4.679 -0.2109 -0.1136 -0.5240
77044W        W19961   9.129   0.355   3.403 -0.0095 -0.0318  0.0305
77045W        W19962  10.119   3.054   2.249 -0.0279 -0.0784 -0.0627
77046W        W19963  11.123   2.398   4.063 -0.3183  0.0844 -0.0548
77047W        W19964  10.705  34.138   0.627 -0.0912  0.0276  0.5684
77048W        W19965   8.442   2.327   3.725 -0.0487 -0.1853  0.0148
77049W        W19966   9.107   4.045   1.950  0.0515 -0.3152  0.1613
77050W        W19967  10.576   0.987   3.597  0.3740  0.0057  0.1982
77051W        W19968  10.512   0.575   2.535 -0.1049  0.1947 -0.0655
77052W        W19969  10.077   2.976   1.719  0.3702 -0.3068  0.1368
77053W        W19970   9.278   0.455   4.590 -0.0895  0.2154 -0.1122
77054W        W19971   9.972   1.208   4.360  0.0048  0.0633 -0.2201
77055W        W19972   8.245   3.392   5.906 -0.0229  0.0073 -0.1485
77056W        W19973  10.196   1.687   0.236  0.4543  0.0443  0.1452
77057W        W19974   8.519   0.602   3.252 -0.2680 -0.0292  0.3922
77058W        W19975   7.690   3.067   1.186  0.2343  0.1328 -0.0930
77059W        W19976   9.649   3.238   4.685 -0.1192  0.5120 -0.1138
77060W        W19977  10.047   4.023   3.621  0.1473  0.2256 -0.0264
77061W        W19978   9.497   1.541   2.050  0.0874 -0.1352 -0.1045
77062W        W19979  10.468   1.189   2.493  0.3271 -0.1178  0.0698
77063W        W19980  11.647  34.129   3.412 -0.1062  0.2183  0.3461
77064W        W19981  10.359   0.287   1.110  0.2053 -0.1157  0.0586
77065W        W19982  10.213   1.005   1.159  0.1699 -0.1913  0.1499
77066W        W19983   9.122   1.524   1.484 -0.1298  0.0191  0.2854
77067W        W19984   4.911   0.245   0.283  0.3081 -0.3052  0.0061
77068W        W19985   8.441   2.910   0.508 -0.1688  0.2303  0.0834
77069W        W19986   9.737   2.287   1.239  0.2012  0.2037 -0.3814
77070W        W19987   9.084   0.032   4.338 -0.0743 -0.1291 -0.3048
77071W        W19988   6.820   1.542   4.023 -0.1573  0.0929 -0.1611
77072W        W19989   8.654   0.426   2.578 -0.1177  0.0945  0.1970
77073W        W19990   8.019   2.626   3.027 -0.2331  0.1015  0.3537
77074W        W19991  11.571   0.051   0.401 -0.1811 -0.0933 -0.2280
77075W        W19992   8.507  34.469   3.588 -0.1997  0.2096  0.0762
77076W        W19993   9.503  33.988   0.707 -0.1057 -0.0160 -0.1122
77077W        W19994  10.123   0.849   2.404  0.1268  0.1150 -0.2641
77078W        W19995   9.269   3.498   1.951 -0.1203 -0.2255  0.0911
77079W        W19996   8.064  34.484   1.393 -0.0712 -0.1212  0.1418
77080W        W19997   9.520   1.292   4.689 -0.0784  0.0589 -0.3171
77081W        W19998   6.524   1.553   0.822 -0.2364  0.0904 -0.2332
77082W        W19999   9.830  34.633   5.836 -0.2209 -0.0503  0.2339
77083W        W20000   9.342   0.193   5.016  0.0798  0.0275  0.0446
77084W        W20001  10.979   2.096  31.582  0.1488 -0.1840 -0.0980
77085W        W20002   9.749   2.639   1.898  0.0889 -0.2269  0.1378
77086W        W20003  11.467   2.672   2.932 -0.5191  0.0632  0.0670
77087W        W20004   9.612   3.257   0.922  0.4137  0.1109  0.0993
77088W        W20005   9.393   3.438   5.248  0.2621 -0.1064 -0.2307
77089W        W20006  10.289   3.891   1.442 -0.0356  0.3163  0.2948
77090W        W20007   9.547   0.505   4.179 -0.2757  0.3675  0.0727
77091W        W20008   9.798   0.903   3.262 -0.0431  0.0001  0.0677
77092W        W20009   8.441   3.100   2.456  0.1059 -0.1009  0.1366
77093W        W20010  11.976   1.618   0.998 -0.1346  0.0915 -0.1746
77094W        W20011  10.143  33.310   3.102  0.2326  0.0212  0.2813
77095W        W20012   8.445   1.182   2.202  0.0936  0.0209 -0.0079
77096W        W20013   8.009   1.097   5.175 -0.0090  0.2482 -0.0444
77097W        W20014   8.188   3.091   3.092  0.3316 -0.3801  0.0967
77098W        W20015  10.170   0.227   2.999 -0.1879  0.0521 -0.1637
77099W        W20016   9.810   1.559   2.887 -0.0382  0.0695 -0.0562
77100W        W20017   9.517  34.272   1.136 -0.0628  0.2290  0.0123
77101W        W20018  11.060   1.114   3.586 -0.0411  0.0082 -0.1677
77102W        W20019   8.624   1.141   4.350  0.1830  0.2107  0.3210
77103W        W20020   9.177   0.355   2.443 -0.2268  0.1056 -0.1259
77104W        W20021   9.355   0.903   4.422 -0.1366  0.4596 -0.0300
77105W        W20022   9.705   3.255   1.896 -0.1171 -0.0917  0.1073
77106W        W20023   9.367   0.749   3.174 -0.0232  0.3015  0.1877
77107W        W20024   9.644   0.886  31.938  0.0572 -0.0137  0.0333
77108W        W20025   8.696   0.835  31.863 -0.2881  0.0063 -0.1316
77109W        W20026   8.637   5.542   3.936 -0.0960  0.0371 -0.0802
77110W        W20027   9.187   3.290   4.761  0.1114 -0.1820 -0.1351
77111W        W20028   9.016   3.474   3.267  0.3261  0.1556 -0.1106
77112W        W20029  10.095   3.493   2.690 -0.2249 -0.2605 -0.1016
77113W        W20030   7.557   0.237   4.492 -0.1386  0.1391 -0.3338
77114W        W20031   8.554   2.489   1.401 -0.2598  0.2176 -0.1797
77115W        W20032  10.677   2.450   1.888  0.1640 -0.0194  0.2848
77116W        W20033  10.302   0.738   2.997 -0.1809 -0.0446  0.1066
77117W        W20034   9.473  32.981   1.792 -0.2371 -0.4142 -0.1780
77118W        W20035  10.892   0.929   1.693 -0.1229 -0.0016 -0.2672
77119W        W20036   9.001   2.443   2.882 -0.0984 -0.3000  0.1583
77120W        W20037   9.958   2.648   4.199 -0.4183  0.1381 -0.3545
77121W        W20038   8.079   1.933   7.553 -0.2889 -0.1778  0.0273
77122W        W20039   6.790   0.587   6.960 -0.2080 -0.0554  0.2450
77123W        W20040   8.806   0.670   4.868 -0.1065  0.0277  0.0020
77124W        W20041  11.771   2.732   5.015 -0.1068  0.0371  0.0120
77125W        W20042   7.640   1.673   5.658 -0.2930  0.1168  0.2517
77126W        W20043  10.388   3.865   6.578 -0.1042 -0.0661  0.2194
77127W        W20044   6.713  33.930   8.232  0.1054 -0.0614  0.2888
77128W        W20045   9.785   3.355   7.500  0.1597 -0.0531 -0.4064
77129W        W20046   9.570   1.593   6.320 -0.0790  0.0098 -0.1899
77130W        W20047   8.830   3.132   4.345 -0.1418  0.2038  0.2196
77131W        W20048   9.334   2.219   6.790  0.2195  0.0574  0.0028
77132W        W20049   9.073   1.000   7.446 -0.0411 -0.1688  0.0454
77133W        W20050   7.696   0.830   5.442 -0.0052 -0.0368 -0.3059
77134W        W20051   7.297   0.416   7.593  0.1240 -0.1271 -0.3322
77135W        W20052  10.282   2.092   8.135  0.1179 -0.1212  0.0116
77136W        W20053   8.850   0.929   6.813 -0.1606 -0.2488 -0.0933
77137W        W20054   8.123   0.941   7.476  0.0981 -0.0589 -0.2253
77138W        W20055   8.331   0.378   6.155 -0.0320 -0.0224 -0.3139
77139W        W20056   7.394   5.516   4.396 -0.1472  0.0895  0.4630
77140W        W20057   9.679   1.700   7.402 -0.1191 -0.1676  0.0629
77141W        W20058  11.095  32.925   9.898  0.2075 -0.2128 -0.0892
77142W        W20059   9.796   1.465   5.243  0.1908  0.2921  0.0809
77143W        W20060   8.124   2.025   3.900  0.1002  0.1411 -0.2037
77144W        W20061   7.881   0.821   5.923  0.2296  0.2150  0.2615
77145W        W20062   7.853   0.309   7.582  0.0738  0.1154  0.0068
77146W        W20063  10.771   1.240   7.317  0.0027 -0.0264 -0.0019
77147W        W20064   9.945   2.629   5.112  0.2310  0.0301 -0.0803
77148W        W20065   8.600   1.950   7.542  0.2954  0.1234 -0.1156
77149W        W20066   8.383   3.923   8.008  0.1473 -0.1487 -0.0736
77150W        W20067   8.758   1.859   8.130 -0.1402 -0.0044  0.1741
77151W        W20068   6.716   2.673   5.407  0.0535 -0.2759  0.1533
77152W        W20069   7.261   3.223   4.147  0.0568  0.0483  0.0140
77153W        W20070   9.307   0.833   4.946 -0.2033  0.2353  0.1198
77154W        W20071   9.196   1.613   7.307  0.1421  0.1410 -0.0306
77155W        W20072  10.886   2.058   5.360 -0.2574  0.1062  0.0729
77156W        W20073   8.303   3.448   7.727  0.1776  0.0444  0.0097
77157W        W20074   8.559   1.780   3.670  0.1459 -0.1217  0.1599
77158W        W20075   7.924   2.367   9.476  0.0375 -0.1812  0.1118
77159W        W20076   9.000   2.580   6.551 -0.0571  0.1162 -0.2313
77160W        W20077   6.570   2.395   6.684  0.1954  0.2075  0.1534
77161W        W20078   8.791   2.588   5.017 -0.0481  0.1779 -0.0922
77162W        W20079  10.541   1.915   6.611 -0.6083 -0.1665 -0.1180
77163W        W20080  11.409   0.179   4.649  0.1834 -0.0261 -0.3127
77164W        W20081   8.918   3.897   7.882 -0.1297 -0.2237  0.1819
77165W        W20082   8.549   1.397   6.163 -0.1514  0.4898 -0.0279
77166W        W20083  11.749   0.433   9.522  0.1873  0.1709  0.1787
77167W        W20084   8.456   2.326   3.066  0.1318 -0.5092 -0.0173
77168W        W20085  10.075  34.484   6.715  0.2275 -0.2311  0.1145
77169W        W20086   9.030   0.555   5.285 -0.2509 -0.2178  0.0783
77170W        W20087  10.660   0.046   6.068  0.0261 -0.2321 -0.2386
77171W        W20088   7.348   0.860   6.774 -0.0772 -0.1190 -0.2413
77172W        W20089   6.441   2.970   7.297  0.0600  0.0559  0.1769
77173W        W20090   7.476   0.835   6.238  0.1185  0.0422  0.0050
77174W        W20091   8.617   3.061  10.221 -0.0635  0.1396 -0.0025
77175W        W20092   9.006  34.554   5.409 -0.3259 -0.0333  0.2999
77176W        W20093  11.421   2.216   7.218 -0.0414  0.0949 -0.0478
77177W        W20094   8.152   2.827   8.932 -0.0538  0.3262  0.2396
77178W        W20095   7.453  34.059   7.401 -0.0477  0.3671 -0.4386
77179W        W20096   8.055   2.524   5.675 -0.2689 -0.0701 -0.2166
77180W        W20097  11.255   1.577   5.951  0.1783  0.0529  0.0508
77181W        W20098   9.599   4.347   3.984 -0.1182  0.0062  0.1733
77182W        W20099   6.234   2.085   6.812  0.1329 -0.1912 -0.2458
77183W        W20100   8.386   1.441   8.367 -0.2276  0.0326  0.2208
77184W        W20101   6.568   0.238   7.380 -0.2639 -0.0470 -0.0967
77185W        W20102   9.205   1.168   2.131 -0.0924  0.4108 -0.1825
77186W        W20103  11.214   2.339   5.618 -0.1837  0.0098 -0.0472
77187W        W20104   7.042   2.589   6.912  0.2925 -0.2036 -0.2953
77188W        W20105  12.084   1.023   7.662  0.0415 -0.0907  0.4981
77189W        W20106   9.155   2.142   5.697  0.0377  0.1897  0.2352
77190W        W20107  10.727   2.982   5.627 -0.1810  0.1904  0.0376
77191W        W20108   9.843   0.461   3.750  0.0414  0.0477 -0.1003
77192W        W20109  10.375  33.321   6.947  0.0956  0.0815 -0.1455
77193W        W20110   9.903   1.379   7.020 -0.0049 -0.4473  0.0153
77194W        W20111   8.636   1.963   5.491  0.1192  0.2247 -0.4704
77195W        W20112   8.076   0.072   5.481 -0.1145  0.3163  0.1520
77196W        W20113  10.380   1.683   7.017  0.1169 -0.1043 -0.1357
77197W        W20114  10.097   0.587   5.050 -0.0038 -0.0495 -0.1784
77198W        W20115   7.734   2.565   6.822 -0.1200 -0.0333  0.1538
77199W        W20116  10.105   0.963   7.293  0.0963 -0.2137 -0.4214
77200W        W20117   8.860   2.426   9.184 -0.1307  0.0282 -0.0313
77201W        W20118   6.060   3.599   3.038  0.0638 -0.1995  0.1105
77202W        W20119   8.062   1.635   6.099  0.1382 -0.1384 -0.2146
77203W        W20120   7.945   0.123   4.964  0.1903  0.2707 -0.2794
77204W        W20121   4.982  34.537   7.594 -0.0548  0.0718 -0.0502
77205W        W20122   9.138   1.420   6.856  0.1523  0.1539  0.2037
77206W        W20123  11.045   1.916   8.199 -0.1062 -0.0723  0.0423
77207W        W20124   8.306   0.020   7.392 -0.2130  0.1600  0.1420
77208W        W20125  12.042  32.148   8.007 -0.2389  0.2534  0.3993
77209W        W20126   7.548   2.302   6.464 -0.2085 -0.1300 -0.0162
77210W        W20127  10.032   0.709   4.145 -0.0514  0.0669 -0.1864
77211W        W20128  10.959   2.198   4.829  0.1992 -0.1799  0.0400
77212W        W20129   9.607   0.755   6.353 -0.2751 -0.0837  0.1775
77213W        W20130   9.160   2.089   7.553 -0.0930 -0.1448  0.0044
77214W        W20131   7.158   0.501   5.490  0.1462  0.0494  0.0077
77215W        W20132   7.250   0.067   6.250  0.1880 -0.1597  0.3454
77216W        W20133   8.408  33.692   5.612 -0.0513 -0.0298  0.2379
77217W        W20134  10.545  34.441   6.732  0.1827 -0.1943 -0.0098
77218W        W20135  10.151   0.942   6.469  0.0457  0.0675  0.1716
77219W        W20136  10.785   1.469   6.768  0.0299  0.0058  0.1122
77220W        W20137   8.212  34.557   5.999 -0.1634 -0.1678  0.1261
77221W        W20138   8.629   2.073   4.091  0.0580  0.3850 -0.1787
77222W        W20139   9.940   1.681   8.894  0.0893  0.2065 -0.0078
77223W        W20140   9.640   4.073   5.464 -0.0621 -0.1389 -0.1462
77224W        W20141   9.926   3.025   6.969  0.0781 -0.0544  0.1391
77225W        W20142  10.045   1.475   6.544  0.0298  0.2575 -0.1719
77226W        W20143   7.254   1.084   9.046 -0.0788 -0.0956 -0.2593
77227W        W20144   9.229   0.271   5.641 -0.0966 -0.0079 -0.2093
77228W        W20145   6.520   2.019   4.797 -0.0212 -0.0594  0.1098
77229W        W20146   9.327   3.085   6.157 -0.3053 -0.0124  0.1262
77230W        W20147   7.630   1.257   5.993 -0.1018  0.0320  0.1161
77231W        W20148  10.052   2.286   4.774  0.0759 -0.4032 -0.1421
77232W        W20149   7.976  34.152   5.779  0.0821 -0.1722 -0.1692
77233W        W20150   8.731   2.665   9.839  0.1078 -0.0628  0.1612
77234W        W20151  10.875   0.348   7.427  0.0960  0.0929 -0.3007
77235W        W20152  10.850   1.038   6.457  0.0351  0.0532  0.1869
77236W        W20153  10.305  33.956   6.716  0.1261 -0.1173 -0.3884
77237W        W20154   8.136  34.304   5.167 -0.0131  0.3495  0.0448
77238W        W20155  10.718   3.786   6.200 -0.1090 -0.3982  0.0197
77239W        W20156   8.895   2.948   3.540 -0.1852 -0.2789  0.1953
77240W        W20157   7.692   1.198   6.551  0.1851 -0.1029 -0.0601
77241W        W20158   8.100   2.004   6.952  0.0972  0.3075 -0.2339
77242W        W20159  10.889  34.587   7.072  0.2145 -0.1101 -0.0907
77243W        W20160   8.382   0.598   8.244  0.0661  0.1825  0.0393
77244W        W20161  11.506   0.116  10.161  0.3009 -0.0939  0.1427
77245W        W20162   6.871   0.798   5.182  0.0805  0.0691 -0.0425
77246W        W20163   8.467   1.672   7.049  0.3212  0.1821  0.3524
77247W        W20164   9.137   0.587   6.611 -0.1005  0.1350  0.1770
77248W        W20165  10.255  34.138   5.714  0.0245  0.0599  0.1579
77249W        W20166  10.788   2.811   7.789  0.2913 -0.1402  0.0827
77250W        W20167   9.229   1.756   4.909  0.0687  0.0061  0.2063
77251W        W20168   9.766   0.107   5.335 -0.1990  0.1309  0.1395
77252W        W20169   9.817   0.990   5.510  0.3734 -0.1794  0.0911
77253W        W20170   7.552   3.141   9.372 -0.1350 -0.0567  0.1321
77254W        W20171   9.446   2.077   6.344  0.2074  0.0444  0.1789
77255W        W20172   9.610   1.881   5.884  0.3229  0.5410 -0.1700
77256W        W20173  10.234  34.440   6.192 -0.2368  0.0598 -0.0429
77257W        W20174   9.514   1.897   5.325 -0.4170  0.0219  0.1112
77258W        W20175   7.265   2.537   8.765 -0.1496 -0.1098 -0.1382
77259W        W20176   8.595   1.848   8.629 -0.3255  0.3036  0.2051
77260W        W20177   8.488   3.604   6.385 -0.2111 -0.0730 -0.0086
77261W        W20178   9.093  33.672   7.025 -0.2890 -0.0921 -0.0982
77262W        W20179   9.339   2.136   3.147 -0.1638  0.1289 -0.0182
77263W        W20180  10.502  32.942   6.587  0.0450  0.0917 -0.1302
77264W        W20181   8.356   3.192   3.830 -0.2182 -0.2078  0.0448
77265W        W20182   9.306   0.830   7.041  0.1675  0.1348  0.0783
77266W        W20183  10.220   0.615   6.850 -0.1326 -0.0523 -0.4612
77267W        W20184   7.947   0.279   8.288 -0.0733  0.4022  0.0136
77268W        W20185  10.670   0.935  10.345 -0.1656 -0.1082 -0.0558
77269W        W20186   9.408  34.270   5.602  0.0519 -0.1135  0.2153
77270W        W20187   9.052   1.184   6.342  0.2357 -0.1076 -0.0543
77271W        W20188   8.349  34.573   4.733  0.0189 -0.0156 -0.0601
77272W        W20189  10.642   2.286   8.453 -0.1785 -0.0403  0.2515
77273W        W20190   8.186   3.174   6.392  0.1046  0.4168  0.3312
77274W        W20191   7.446   2.953   6.970  0.0695  0.1368  0.1842
77275W        W20192   9.527   1.153   6.677  0.2253 -0.0507  0.1283
77276W        W20193   9.769   0.483   5.908 -0.1464  0.1989  0.0255
77277W        W20194   8.643  34.414   7.686  0.0780 -0.0236 -0.1498
77278W        W20195   9.463  33.571   6.646  0.3432  0.0691  0.0468
77279W        W20196  11.029   1.021   5.580 -0.3207  0.3926  0.1649
77280W        W20197   9.343   1.287   5.184 -0.0607  0.0262 -0.1058
77281W        W20198   7.709   0.696   8.431  0.1631 -0.1139  0.3101
77282W        W20199   9.577   2.154   9.705 -0.1614  0.1030 -0.2290
77283W        W20200   9.473   2.397   5.030 -0.3313  0.1962  0.3052
77284W        W20201  10.974   4.023   8.893 -0.2902 -0.1930  0.0054
77285W        W20202   9.372   3.340   3.750  0.0589 -0.1572 -0.0453
77286W        W20203  11.070  33.848   6.322  0.0880 -0.0329  0.2609
77287W        W20204   9.768   0.676   4.637  0.1505 -0.2126  0.3064
77288W        W20205   9.217  34.526   6.027 -0.0479 -0.4074 -0.0596
77289W        W20206   6.961   0.143   5.179  0.0877 -0.3232 -0.2359
77290W        W20207  12.217  33.726   4.190 -0.1926 -0.0734  0.1271
77291W        W20208  10.062   1.484   4.809 -0.0634 -0.4092  0.0443
77292W        W20209   8.539  34.665   6.433  0.0148 -0.1544 -0.0089
77293W        W20210  11.264   0.003   7.479  0.3756  0.2552 -0.4279
77294W        W20211   6.351   2.084   7.323  0.2048  0.5426 -0.1831
77295W        W20212  10.935   1.663   6.325 -0.1041 -0.0162  0.0000
77296W        W20213  10.344   0.121   4.758 -0.1525  0.1633  0.0570
77297W        W20214   9.594   4.215   9.011 -0.0513 -0.1477 -0.0509
77298W        W20215   7.901   1.041   9.471 -0.1713  0.0680 -0.1480
77299W        W20216   8.044   2.542   3.962  0.1830 -0.2121  0.3055
77300W        W20217  11.259   1.642   6.710  0.0680  0.0673 -0.1830
77301W        W20218   7.085   0.783   8.053 -0.1150 -0.2041  0.0184
77302W        W20219  10.159   4.026   5.586  0.2224  0.0851  0.3305
77303W        W20220  10.361   3.410   5.290  0.3566  0.0954 -0.3196
77304W        W20221   8.031   1.340   5.609  0.3639 -0.2033 -0.0990
77305W        W20222   9.758   4.181   4.901 -0.0365  0.1932  0.1870
77306W        W20223   6.373  33.977   8.604 -0.2881  0.3834 -0.0566
77307W        W20224   9.378   2.393   8.931  0.2599 -0.1152 -0.4591
77308W        W20225   9.734  34.164   5.975 -0.0002  0.1687  0.1985
77309W        W20226   8.397  34.107   6.006  0.0683 -0.3413  0.1863
77310W        W20227   9.988  34.201   7.086  0.2532 -0.0909 -0.1002
77311W        W20228  11.233   2.591   6.429  0.0254  0.1373  0.2305
77312W        W20229  10.438   1.187   7.711 -0.0313 -0.3713 -0.0169
77313W        W20230   9.495   2.682   8.189  0.0961 -0.3977 -0.1731
77314W        W20231   8.455   0.499   6.688  0.1405 -0.2246 -0.1798
77315W        W20232  10.966   4.382   5.669 -0.3605 -0.2738 -0.1279
77316W        W20233  11.140  34.637   9.274 -0.0710 -0.1310 -0.2088
77317W        W20234   8.814   0.776   5.726  0.2007  0.0084 -0.0251
77318W        W20235   6.347   1.809   4.402 -0.0704  0.0704 -0.2286
77319W        W20236   8.590   0.735   3.979  0.1124  0.3686  0.2688
77320W        W20237   7.137  34.257   6.422  0.0695  0.0105  0.0916
77321W        W20238   7.680   1.871   6.697 -0.2306  0.2771 -0.0239
77322W        W20239   7.637   3.185   5.124  0.1671 -0.0303 -0.0560
77323W        W20240   6.639   1.177   7.411 -0.2946 -0.1493  0.3113
77324W        W20241  10.557  33.560   5.113 -0.2348 -0.1828  0.3493
77325W        W20242  10.458   1.731   5.400 -0.1540  0.1005 -0.0898
77326W        W20243   9.169  32.294   5.697 -0.2158 -0.2810 -0.0311
77327W        W20244  10.123   0.269   9.067 -0.1401  0.3217 -0.3026
77328W        W20245  10.429   1.232   4.031  0.0166 -0.1960 -0.5911
77329W        W20246   9.837   1.503   7.952 -0.1926 -0.1388  0.1400
77330W        W20247   7.719  34.002   7.848 -0.1257  0.3269 -0.2234
77331W        W20248  10.001   2.045   5.203 -0.0353 -0.0753 -0.3818
77332W        W20249   8.039   0.705   6.440  0.0257 -0.3193  0.0548
77333W        W20250   8.228   2.532   8.521 -0.2492  0.2893  0.0040
77334W        W20251   8.549   2.178   6.900 -0.1959  0.1537 -0.1329
77335W        W20252  10.742   0.888   4.293  0.0123  0.0037  0.0569
77336W        W20253   7.582  34.078   6.621  0.0155 -0.0305  0.1547
77337W        W20254   7.695   2.547   6.018 -0.1441  0.1403  0.2738
77338W        W20255   9.425   1.127   7.922  0.2363  0.0011  0.2825
77339W        W20256   9.277   0.922   5.611 -0.1743 -0.5119 -0.1036
77340W        W20257  10.386   0.705   7.828 -0.0464  0.0936  0.0295
77341W        W20258   9.923   3.112   5.175 -0.3423 -0.0040 -0.3506
77342W        W20259   9.778   1.123   8.352  0.1560  0.0971 -0.0290
77343W        W20260  10.227   0.509   6.222 -0.1418  0.2033  0.1868
77344W        W20261   8.990   1.119   4.737  0.0186 -0.2729  0.1779
77345W        W20262   8.440   0.338   9.622 -0.1303  0.1792 -0.1266
77346W        W20263   9.918   0.208   7.010  0.2288 -0.0883  0.0743
77347W        W20264  10.837   0.376   6.863  0.0397  0.0016 -0.0557
77348W        W20265   7.428   0.497   8.109 -0.1261 -0.3050  0.5297
77349W        W20266   9.272   0.748   8.375  0.0802 -0.0485 -0.5516
77350W        W20267   7.686   2.074   9.020 -0.3698 -0.0389  0.5091
77351W        W20268   6.237  34.367   7.751 -0.4317  0.1713  0.0663
77352W        W20269   8.402   2.914   7.565  0.1814 -0.1446  0.1293
77353W        W20270  11.388   1.353   5.514 -0.1456 -0.1914 -0.0427
77354W        W20271  11.504  34.366   7.237 -0.0482  0.0892 -0.1463
77355W        W20272   9.877   0.312   6.531  0.1084 -0.1201 -0.0562
77356W        W20273  10.493  32.178   7.365  0.0022 -0.2003  0.1762
77357W        W20274   7.879   0.281   5.927  0.2700 -0.0890  0.2403
77358W        W20275   9.989   2.698   8.216 -0.2733 -0.1054 -0.0996
77359W        W20276  10.713  33.715   6.802  0.0696 -0.5234  0.0360
77360W        W20277  10.136   2.477   8.670 -0.0272 -0.3472 -0.0147
77361W        W20278  10.274   4.092   4.927  0.0624  0.0200 -0.0964
77362W        W20279  10.489   2.700   4.316  0.1350  0.2813  0.1643
77363W        W20280  11.056  34.232   7.364  0.2471  0.1581  0.1286
77364W        W20281   5.973  33.525   7.679  0.1977  0.0261  0.0592
77365W        W20282   8.013   2.649   6.427  0.2119  0.1471 -0.0899
77366W        W20283   8.984  34.448   4.877 -0.1462  0.1688 -0.0969
77367W        W20284   8.957   0.885   7.921 -0.1843 -0.0124 -0.2705
77368W        W20285   9.070   3.022   5.704  0.1377 -0.0624 -0.1774
77369W        W20286   9.581   1.613   8.422  0.0427 -0.1426 -0.0562
77370W        W20287   9.548  32.653   6.147  0.0369  0.1161 -0.1030
77371W        W20288  12.612   1.977   7.674  0.0007 -0.4173  0.0245
77372W        W20289   8.928   3.056   5.195  0.0261 -0.0648  0.3625
77373W        W20290   8.712   0.046   6.959  0.2529  0.1276 -0.0323
77374W        W20291   8.491   3.086   5.528 -0.0829 -0.0645 -0.0272
77375W        W20292   7.084   2.416   6.455 -0.1942 -0.0960 -0.0983
77376W        W20293   9.165   4.649   7.853 -0.0535 -0.0395 -0.0179
77377W        W20294   7.893   0.958   6.947 -0.1278 -0.2132 -0.0071
77378W        W20295  11.785   0.650   7.384 -0.1079 -0.0042 -0.0716
77379W        W20296   8.280   1.065   8.100  0.1579  0.0506  0.1930
77380W        W20297  10.081   1.206   8.725 -0.0724  0.0154  0.0357
77381W        W20298   8.992   2.955   7.467 -0.0557 -0.0773 -0.0868
77382W        W20299   6.782   2.513   5.869 -0.0953  0.0751  0.1521
77383W        W20300   8.346   1.353  10.657 -0.1265  0.0386  0.2169
77384W        W20301   9.903   2.199   3.870 -0.2001  0.1768 -0.3231
77385W        W20302   9.580   2.152   7.204  0.0423 -0.3149 -0.0795
77386W        W20303   7.597   0.705   9.076 -0.1435  0.1130  0.1183
77387W        W20304   9.351   1.227   8.825  0.1004  0.1943 -0.0253
77388W        W20305   8.824   2.513   7.587 -0.2626  0.0299 -0.0888
77389W        W20306   7.558  34.293   6.183  0.0897 -0.0278 -0.2010
77390W        W20307   9.293   2.521   5.971  0.2300  0.1808  0.2820
77391W        W20308   8.164   4.777   8.495 -0.0016 -0.1310 -0.0328
77392W        W20309   8.185   1.791   9.377  0.2001 -0.0835 -0.1241
77393W        W20310   9.731   3.594   4.263 -0.1133 -0.0024 -0.0503
77394W        W20311   8.065   2.937   4.216 -0.5449 -0.1175 -0.1612
77395W        W20312  10.145   0.445   5.560  0.1099 -0.1899  0.1449
77396W        W20313   8.536   2.807   6.507 -0.5090 -0.1011  0.0871
77397W        W20314  10.411   0.035   7.149 -0.2251 -0.0403 -0.1442
77398W        W20315   8.421   2.358   6.265 -0.1199 -0.4233 -0.0961
77399W        W20316   7.208   3.058   3.135  0.1799 -0.0591 -0.0860
77400W        W20317  10.909   1.664   4.626 -0.0615 -0.3734 -0.0734
77401W        W20318   7.409   2.082   7.571  0.1701 -0.2116  0.1623
77402W        W20319   9.216   2.954   9.874  0.1661  0.0798  0.2294
77403W        W20320  10.638  34.162   5.373 -0.0228 -0.0206 -0.3454
77404W        W20321  10.061   1.932   5.678 -0.3200 -0.1576  0.2471
77405W        W20322  11.983  34.031   6.387  0.0127  0.2621  0.4202
77406W        W20323  10.074   3.259   8.306 -0.2192  0.3082 -0.1142
77407W        W20324   7.917  34.432   7.653  0.1383  0.0611  0.2017
77408W        W20325   9.839   0.238   4.837  0.0154 -0.2414  0.2656
77409W        W20326   9.744  34.512   6.332  0.3113 -0.1580  0.0807
77410W        W20327  11.115   0.848   9.390  0.0098  0.1051 -0.4722
77411W        W20328   7.011   1.465   8.553  0.0365  0.0222 -0.0768
77412W        W20329  10.949   3.480   2.613 -0.0670 -0.0857 -0.0171
77413W        W20330   7.624   1.427   5.192  0.0999 -0.1720  0.3223
77414W        W20331   9.078   1.695   6.440 -0.2800  0.1052 -0.0579
77415W        W20332  11.414  31.626   5.622 -0.3320 -0.0404 -0.1083
77416W        W20333   7.970  33.764   4.166  0.0759 -0.1046 -0.0054
77417W        W20334  11.645   0.735   6.298 -0.3041 -0.1610 -0.0205
77418W        W20335   9.048   3.475   7.570  0.0291  0.0348 -0.1515
77419W        W20336   8.766   2.658   5.520 -0.1402  0.2192  0.2099
77420W        W20337   9.269   2.530   7.265  0.2328 -0.1926  0.1665
77421W        W20338   6.570  34.088   5.907 -0.2794 -0.1175  0.1552
77422W        W20339  12.271   0.669   8.101 -0.0183  0.1248 -0.1056
77423W        W20340   8.419   0.325   5.038 -0.0551 -0.1484 -0.0949
77424W        W20341  12.011  34.196   7.405 -0.0583 -0.0877  0.2841
77425W        W20342   9.505  34.663   7.885  0.0920 -0.0394 -0.0013
77426W        W20343  10.510   0.605   3.854  0.0609  0.1245  0.0667
77427W        W20344   8.888   0.247   6.051 -0.3194 -0.1537 -0.0573
77428W        W20345   7.846   0.141   7.035  0.0817 -0.0763 -0.1263
77429W        W20346   9.673   2.472   3.308 -0.1345 -0.1897 -0.0833
77430W        W20347   8.996   2.294   8.020 -0.2334  0.3138 -0.3677
77431W        W20348   9.600  33.188   6.316 -0.1121  0.0307 -0.3478
77432W        W20349  10.323   4.489   7.723  0.2026 -0.1231 -0.3772
77433W        W20350   6.678   1.029   5.616 -0.3147 -0.2307  0.1501
77434W        W20351  11.296  33.141   5.728 -0.1252  0.1493  0.0821
77435W        W20352   6.891   2.028   6.866 -0.1030  0.2419  0.1561
77436W        W20353   7.957   1.440   9.712 -0.1112 -0.0337  0.4314
77437W        W20354  10.395   4.595   9.068  0.3041  0.2138 -0.1288
77438W        W20355   8.532  34.581   5.194  0.0010 -0.0717  0.0416
77439W        W20356   8.388   1.564   4.137 -0.1287  0.0470 -0.0403
77440W        W20357  10.437   0.453   4.369  0.0402 -0.2203 -0.0609
77441W        W20358   8.009   2.877   3.502  0.0001 -0.0444  0.3468
77442W        W20359   9.421   3.055   4.322  0.2006  0.0432 -0.0855
77443W        W20360  10.592   3.548   5.720  0.2201  0.0678 -0.0894
77444W        W20361   6.582  34.579   4.131 -0.2600 -0.0089 -0.2082
77445W        W20362  10.134   4.190   8.925 -0.2189  0.0438  0.3648
77446W        W20363  11.502   3.376   6.348 -0.1311  0.0746  0.1320
77447W        W20364   8.731   0.773   6.217  0.1904  0.3790  0.0138
77448W        W20365  11.743   1.995   5.062 -0.1438  0.1115  0.1478
77449W        W20366   7.596   3.037   2.347  0.0582 -0.1541 -0.1407
77450W        W20367  11.024   1.665   9.063 -0.0778  0.0951 -0.3009
77451W        W20368   9.039   0.838   8.837 -0.0356 -0.0425  0.0460
77452W        W20369   6.852   3.518   4.625 -0.1484 -0.3189 -0.1655
77453W        W20370  11.757   1.358  10.767 -0.0320 -0.0485 -0.1569
77454W        W20371  10.174   2.048  10.009  0.0353  0.0634  0.0263
77455W        W20372   9.118   2.021   9.257  0.1145  0.0586  0.0807
77456W        W20373   6.165  34.367   6.741 -0.4257  0.0039  0.0701
77457W        W20374  10.767   2.048   7.808  0.0238  0.1968  0.1472
77458W        W20375   8.559   1.891   5.976  0.2299  0.2925  0.0280
77459W        W20376   9.449   1.447   5.655 -0.1082  0.2744 -0.0922
77460W        W20377  11.329   1.192   6.478  0.1862  0.1430 -0.3494
77461W        W20378   9.620  33.912   5.312 -0.1905  0.2213  0.0054
77462W        W20379  11.394   1.163   7.400 -0.2555 -0.1407 -0.0101
77463W        W20380   9.363   0.324   6.286 -0.1132  0.1056 -0.0418
77464W        W20381  11.354   2.265   5.105  0.0952 -0.0870  0.2704
77465W        W20382  10.124  33.966   6.175 -0.2066  0.1719  0.1563
77466W        W20383  10.498   1.207   5.646  0.2050  0.0042 -0.1647
77467W        W20384   8.419   0.886   5.347 -0.0310 -0.2731 -0.0300
77468W        W20385   8.377   3.314   4.370 -0.1921 -0.1684  0.3410
77469W        W20386   9.529   1.214   7.397  0.0453  0.1095  0.1712
77470W        W20387   8.859   0.709   9.663 -0.1660 -0.0780  0.1377
77471W        W20388   7.134   0.236   7.179  0.1223 -0.1869 -0.1446
77472W        W20389   7.397   0.449   5.954 -0.0883 -0.5015 -0.1058
77473W        W20390  10.089  32.890   4.885 -0.3321  0.0995  0.0514
77474W        W20391  10.360   5.025   4.008  0.0185  0.0409  0.0892
77475W        W20392   7.462  33.813   6.200  0.2361  0.1892 -0.1324
77476W        W20393   8.896   1.051   5.267 -0.1833 -0.1374  0.1063
77477W        W20394   9.160   1.951   4.192  0.4174  0.4727 -0.1898
77478W        W20395  10.517   1.921   4.839  0.1323  0.2586 -0.0359
77479W        W20396   8.748   1.604   5.038 -0.0924 -0.1611 -0.1895
77480W        W20397  11.670   3.377   7.610 -0.1323  0.2093 -0.0926
77481W        W20398   7.821   1.503   4.685 -0.2448  0.2600  0.0416
77482W        W20399   8.171   1.952   8.902  0.3584  0.0974  0.1308
77483W        W20400   9.490   0.340   6.803 -0.0974 -0.2950  0.1532
77484W        W20401   8.859  33.590   3.748 -0.0357 -0.3706 -0.3596
77485W        W20402   9.761   0.738   6.882  0.2802  0.1856  0.1133
77486W        W20403   9.244   4.208   5.051 -0.0978  0.0432  0.0783
77487W        W20404  10.083   0.956   5.963  0.1363 -0.2885  0.1186
77488W        W20405   8.421   2.216   7.900 -0.0683  0.0015 -0.0590
77489W        W20406   9.261   4.931   9.691  0.0218  0.0495 -0.0539
77490W        W20407   7.720   0.128   9.297  0.2483  0.2858 -0.0250
77491W        W20408  11.238   2.064   6.245  0.1292  0.1819  0.1236
77492W        W20409   8.470   2.731   9.307  0.0825 -0.4831  0.2892
77493W        W20410  12.437   2.033   5.569 -0.2029  0.1119 -0.1037
77494W        W20411  10.491  34.004   7.930  0.2660 -0.2303  0.1393
77495W        W20412   9.455   1.132   6.077 -0.2160 -0.0520 -0.2995
77496W        W20413   8.182   1.478   7.421 -0.0436 -0.1421  0.0799
77497W        W20414   9.558   1.763   6.902 -0.2496 -0.0244  0.0507
77498W        W20415  11.475   1.841   8.493  0.1619  0.1203 -0.0818
77499W        W20416   9.191  34.581   7.062  0.2788 -0.2238 -0.1993
77500W        W20417  10.642   0.815   7.019  0.2347  0.4192  0.0385
77501W        W20418   9.478   2.530   4.133  0.0417  0.0997 -0.1805
77502W        W20419   8.679   2.764   8.785  0.2307 -0.2978 -0.0489
77503W        W20420   8.603   0.296   5.605  0.3969  0.0239 -0.2425
77504W        W20421   9.935   0.261   7.961  0.3146 -0.0782  0.1798
77505W        W20422   9.830   2.302   6.047  0.1269 -0.1079 -0.2314
77506W        W20423  10.549   1.698   5.904  0.2141  0.0821 -0.1350
77507W        W20424   9.088   0.473   3.930  0.0478 -0.3856  0.4128
77508W        W20425   9.259   1.138   3.405 -0.1451  0.2548  0.3297
77509W        W20426  10.373   2.305   7.560 -0.0047 -0.1595  0.1302
77510W        W20427   9.236   3.432  10.169  0.1739 -0.0577 -0.1490
77511W        W20428   7.279   3.437   7.238 -0.1055  0.1167 -0.0452
77512W        W20429   9.161  34.519   7.575  0.4213  0.0282  0.4700
77513W        W20430   7.544  33.310   7.060  0.3312  0.2610 -0.1553
77514W        W20431   8.324   2.878   5.096 -0.1565  0.2398 -0.2257
77515W        W20432   9.764   2.550   6.844  0.2943 -0.2299  0.2758
77516W        W20433  10.331   1.599   8.012  0.2423  0.4224  0.0039
77517W        W20434  10.642   2.672   8.924  0.2440 -0.2720  0.0194
77518W        W20435   9.883  33.565   5.026 -0.0311 -0.0063  0.0173
77519W        W20436   8.682   3.938   7.275  0.0268 -0.0834 -0.0840
77520W        W20437  11.485   1.097   5.975  0.1609 -0.0225  0.1204
77521W        W20438  12.612   4.352  10.317 -0.6730 -0.0767 -0.3598
77522W        W20439  10.066   0.797   9.226  0.2395 -0.0960  0.0397
77523W        W20440   9.763  34.161   9.811 -0.3391 -0.0871 -0.2158
77524W        W20441   9.842   2.467  10.015 -0.0770 -0.0738  0.0930
77525W        W20442   5.978   0.621  10.320  0.2687  0.2211  0.0803
77526W        W20443   9.905   6.440  10.126  0.2925 -0.0310 -0.4524
77527W        W20444  10.296   2.468  10.254 -0.2287  0.0977  0.2403
77528W        W20445   8.706   3.970   9.434 -0.0110  0.1261 -0.2459
77529W        W20446   7.090   2.340   9.337  0.0971  0.1451 -0.0180
77530W        W20447   7.158   1.776  11.684  0.0288 -0.1994 -0.2867
77531W        W20448   9.574   0.661   8.012  0.3307 -0.2252 -0.2306
77532W        W20449   6.816  34.009   7.750  0.1996 -0.0930  0.1215
77533W        W20450   9.459   2.011  10.604 -0.1949  0.2342  0.0826
77534W        W20451   8.475   1.370   9.399 -0.2191  0.0066  0.0477
77535W        W20452   9.054  34.216   9.506  0.1411  0.0091 -0.1787
77536W        W20453   6.480   2.982  10.507 -0.1739 -0.3622  0.1370
77537W        W20454   7.283   3.604  10.708  0.2460 -0.4889  0.1068
77538W        W20455   5.788   2.722  11.382  0.2113 -0.2755 -0.3647
77539W        W20456  10.110   4.324   9.411  0.1244 -0.2998  0.0077
77540W        W20457   7.557   0.648   9.585 -0.0523  0.5108  0.1926
77541W        W20458   5.680   1.573  10.360  0.0666 -0.1093 -0.0642
77542W        W20459   6.759   1.175  10.674 -0.1808  0.2307  0.0952
77543W        W20460   9.842   1.679   9.773  0.1104 -0.3065  0.1458
77544W        W20461   7.817   0.836  10.227 -0.0593 -0.1702 -0.1064
77545W        W20462   9.667   3.723  10.588  0.0411 -0.1620  0.0474
77546W        W20463   9.092   3.437   9.265 -0.1019  0.0679 -0.2288
77547W        W20464   7.809   2.295   7.294  0.2864 -0.5848  0.2563
77548W        W20465   7.094   3.359   9.455  0.1834  0.1180 -0.3664
77549W        W20466   8.411   4.079   9.778  0.1345 -0.1095  0.0841
77550W        W20467  11.994   0.906   9.383  0.1747 -0.1890 -0.1741
77551W        W20468   8.866   3.423   9.695  0.2386  0.1773  0.0200
77552W        W20469   8.266   0.934  10.318 -0.0995 -0.0039  0.1592
77553W        W20470  10.136   4.074  11.274 -0.2170 -0.0487 -0.3033
77554W        W20471  11.960   3.701   9.984 -0.0770 -0.0997 -0.2389
77555W        W20472   9.043   3.840   9.788  0.1831  0.2553  0.1503
77556W        W20473   8.352   4.308  11.527  0.0397 -0.0978 -0.0162
77557W        W20474   8.375   2.374   7.342 -0.2679 -0.1019 -0.3420
77558W        W20475   8.963   1.539   7.754  0.1242 -0.1507  0.0030
77559W        W20476   8.071   0.550   9.304 -0.0650 -0.3887 -0.1241
77560W        W20477  10.142   2.287   9.140 -0.2589  0.2033  0.1358
77561W        W20478   8.036   2.007  10.348 -0.1130  0.0697  0.1984
77562W        W20479   7.398   1.736   8.318  0.0768  0.1107 -0.0131
77563W        W20480   9.142   2.566   8.498 -0.4938 -0.0185  0.2957
77564W        W20481  11.145   1.638  10.205 -0.1062 -0.1590  0.0650
77565W        W20482   6.686   1.545  10.296 -0.3498 -0.2348 -0.0852
77566W        W20483   8.894   3.805  11.032 -0.1894 -0.2405  0.0898
77567W        W20484   7.223   3.087  10.521  0.1261 -0.0177  0.1911
77568W        W20485  10.826   3.148   8.883  0.3061  0.3456  0.1387
77569W        W20486   8.723   4.001  10.634  0.0198  0.0059  0.1490
77570W        W20487   9.539   3.030  10.821 -0.0897  0.3320 -0.1668
77571W        W20488   7.224   2.062  10.279  0.0593 -0.0692 -0.0584
77572W        W20489  11.311  33.776   9.610  0.1093 -0.0288  0.0754
77573W        W20490  11.532   0.560   9.993  0.5442  0.0857 -0.0498
77574W        W20491   8.865   3.057  11.556 -0.1422  0.1947 -0.0196
77575W        W20492   9.777   3.475  10.148  0.4769 -0.0142 -0.1482
77576W        W20493   9.321   2.616   9.534 -0.1237  0.0601  0.4838
77577W        W20494   8.740   1.059  10.662  0.1572 -0.0845  0.3470
77578W        W20495  11.705   0.891  10.511  0.0723 -0.1267  0.3876
77579W        W20496   7.577  34.242   9.357 -0.0405  0.0150  0.1168
77580W        W20497   8.565   1.085   7.700 -0.0676 -0.2131  0.1330
77581W        W20498   7.469   3.164  11.186 -0.0028 -0.0907  0.3156
77582W        W20499  11.284   0.414   9.561  0.2060  0.2233 -0.0645
77583W        W20500   5.209   4.028   8.884  0.0695 -0.0046 -0.2366
77584W        W20501   8.139   3.390   8.212 -0.0823  0.1625  0.4359
77585W        W20502   8.177   2.849  10.571  0.0549 -0.0035 -0.1736
77586W        W20503   7.955   3.025   8.530 -0.1975  0.2594 -0.1682
77587W        W20504   8.824   2.465  11.392  0.1232 -0.1629 -0.0491
77588W        W20505  11.897   5.036   9.534 -0.0031 -0.3205  0.0403
77589W        W20506  11.707   1.845  10.943  0.0576 -0.2199  0.0717
77590W        W20507  13.758   0.545  10.515 -0.0974  0.1375 -0.2752
77591W        W20508   8.609   2.534  10.422 -0.3445 -0.0858  0.0962
77592W        W20509  11.470   4.783   9.377  0.0558 -0.0025  0.1173
77593W        W20510  11.528   3.218   9.779  0.1042  0.0741 -0.2105
77594W        W20511  11.366   5.578   7.743 -0.3331  0.3139  0.0185
77595W        W20512   6.031   3.083  10.830 -0.0913 -0.0687  0.0718
77596W        W20513   6.892   0.873   9.339 -0.0717  0.0712  0.0743
77597W        W20514   9.590   0.234   8.413  0.1958 -0.0533  0.4341
77598W        W20515  12.145   3.031   9.734  0.1075 -0.2883 -0.0562
77599W        W20516   8.725  34.640   9.421 -0.0253 -0.0174 -0.2877
77600W        W20517   9.114   2.791  11.029 -0.0578 -0.1507  0.4083
77601W        W20518  10.195   4.034  10.120  0.3085  0.0222 -0.1728
77602W        W20519   6.303   5.810   9.624 -0.1034  0.2105 -0.1208
77603W        W20520  11.117   3.240   8.537  0.0445 -0.0654 -0.0785
77604W        W20521   6.582   2.183  11.219 -0.0268  0.1445 -0.0517
77605W        W20522   6.934   0.569  10.206  0.3021 -0.4306 -0.0520
77606W        W20523   9.206   3.859  10.460 -0.0535 -0.2006 -0.5177
77607W        W20524  12.278   2.971  10.499 -0.0281  0.1791  0.1722
77608W        W20525   6.767  33.837   9.406  0.0869  0.0217  0.0343
77609W        W20526  10.080   4.851  10.432 -0.3573 -0.2575  0.1334
77610W        W20527   9.416   1.443  10.018 -0.1514  0.0641 -0.2434
77611W        W20528  13.305   1.788  11.032  0.2799  0.1011  0.1327
77612W        W20529   9.781   0.712   9.646 -0.1896 -0.2660  0.1405
77613W        W20530   7.161   0.079  10.128 -0.3539 -0.2273 -0.2014
77614W        W20531   8.449   4.556   9.661 -0.0225 -0.0884  0.3417
77615W        W20532   6.531   3.536   6.608  0.1637 -0.1350  0.1894
77616W        W20533   7.893   3.792  10.581 -0.0583 -0.0892  0.1894
77617W        W20534   9.211   3.446  10.681 -0.1301  0.2836 -0.0668
77618W        W20535  11.623   3.805  10.820 -0.3583  0.0640 -0.4434
77619W        W20536   7.702   1.107   8.814  0.4463  0.0931  0.0155
77620W        W20537  12.774  34.269  10.545  0.0114 -0.0759  0.0687
77621W        W20538  10.427   3.185  10.504 -0.0091 -0.0582 -0.1020
77622W        W20539  13.036   3.397  11.008 -0.1767  0.2381 -0.0656
77623W        W20540  10.280   2.017   8.704 -0.2314  0.3467 -0.1448
77624W        W20541   9.263   1.638   9.568 -0.1131  0.1816  0.2795
77625W        W20542  10.245   2.812   9.170 -0.1272 -0.1530 -0.2927
77626W        W20543  10.401   4.542   9.935  0.4192 -0.1119  0.1585
77627W        W20544   7.828  34.601   8.694 -0.0721 -0.3710  0.1985
77628W        W20545   9.881   3.200   9.677  0.1540  0.1276 -0.0118
77629W        W20546   6.449   3.634  11.348  0.0066  0.5270 -0.0065
77630W        W20547   8.843   3.548   8.808 -0.1741 -0.3064  0.4243
77631W        W20548   7.899   4.230  10.298  0.0168  0.0285 -0.0100
77632W        W20549   8.356  34.056  10.136 -0.0516 -0.0589 -0.3116
77633W        W20550   7.864  33.916  10.173 -0.0943  0.0576 -0.0460
77634W        W20551  12.687   2.912   8.975 -0.1531 -0.1845  0.1946
77635W        W20552   8.978   2.272   9.647 -0.0726  0.0351 -0.1159
77636W        W20553   9.534   1.540   9.160  0.4118  0.1955 -0.3281
77637W        W20554   9.363   0.719  11.421  0.2373  0.0337  0.2881
77638W        W20555   8.225   1.543   6.600 -0.0232  0.1095  0.2055
77639W        W20556   7.226  33.465   9.406  0.0285 -0.1868  0.2403
77640W        W20557   7.323   1.980  11.275 -0.2605  0.0309 -0.0952
77641W        W20558  12.338   0.602   9.636 -0.0336  0.1783  0.1035
77642W        W20559   8.843   0.574  10.647 -0.0278 -0.0275  0.0817
77643W        W20560   7.564   3.499  10.049  0.1549 -0.1650 -0.0430
77644W        W20561  10.042   1.814   6.134 -0.0101  0.2524  0.0375
77645W        W20562   7.004   2.999  10.955  0.0039  0.2908 -0.2565
77646W        W20563  12.260   1.501  10.548  0.2725  0.1767 -0.1962
77647W        W20564   7.393   2.201   7.030 -0.1903  0.2203 -0.1464
77648W        W20565   9.786   1.558  10.915  0.1946  0.1234  0.1554
77649W        W20566   7.499   4.444  10.029 -0.0819  0.0438 -0.0030
77650W        W20567   8.933   1.711  11.415 -0.0871  0.1741  0.1224
77651W        W20568   7.188   2.720   8.070 -0.0665 -0.0088  0.0389
77652W        W20569   6.652   2.627  10.931  0.0082 -0.2051 -0.4202
77653W        W20570   7.969   0.680   7.990  0.1136  0.2783 -0.1382
77654W        W20571  10.552   4.173  10.476 -0.3273 -0.0572 -0.1751
77655W        W20572  10.563   1.197   9.224  0.3947  0.2129  0.3701
77656W        W20573   6.797   3.688  11.675  0.4081  0.0614  0.0488
77657W        W20574   9.519   2.932  11.318 -0.1002  0.1412 -0.2124
77658W        W20575   8.388   4.837  10.418 -0.1158 -0.1952  0.0679
77659W        W20576   9.111   1.139   9.270 -0.1495  0.0742  0.0061
77660W        W20577   7.157   1.238  10.136 -0.0184  0.2815 -0.1747
77661W        W20578  14.288   1.326  10.348 -0.0592 -0.3777  0.0733
77662W        W20579   8.488   3.103   9.646 -0.0050 -0.1655 -0.0485
77663W        W20580   7.147   2.464  11.165 -0.1204  0.1037  0.0142
77664W        W20581   8.943   2.127  11.044  0.2514  0.0095 -0.1757
77665W        W20582   5.615   3.186  11.550  0.1052 -0.0785 -0.0091
77666W        W20583   7.448   4.022   9.808  0.2827 -0.2393  0.0198
77667W        W20584  10.365   2.234  10.792 -0.0909 -0.1536 -0.2037
77668W        W20585   5.282   2.310  10.931  0.2511 -0.3177 -0.1755
77669W        W20586   7.694   3.045  10.391  0.2108 -0.1540  0.2237
77670W        W20587   8.673   3.520  10.430  0.1402 -0.1625 -0.1275
77671W        W20588   8.743   3.057  10.684 -0.0053 -0.1392  0.1540
77672W        W20589   8.556   2.154  10.028 -0.2625 -0.2469  0.1511
77673W        W20590   7.355   0.784  10.419 -0.1459 -0.0260 -0.1399
77674W        W20591  11.041   4.044   7.231  0.0419  0.1241 -0.1907
77675W        W20592   7.822   1.131   8.348 -0.1003  0.0308  0.5202
77676W        W20593   6.532   1.695  10.735  0.2372 -0.5792 -0.1891
77677W        W20594   7.134   2.562  10.629  0.1346 -0.3763  0.2165
77678W        W20595   6.411   1.256  11.011  0.3677  0.0783  0.1906
77679W        W20596   6.424   0.787  10.451  0.1176  0.1934 -0.0738
77680W        W20597   8.416   3.509   9.975 -0.4377  0.1615 -0.1037
77681W        W20598   9.320   0.950   9.884  0.0481 -0.1175 -0.3170
77682W        W20599  11.577  34.219   9.380 -0.0229  0.1315 -0.2833
77683W        W20600  10.689   1.677   9.997  0.2009  0.0139  0.2098
77684W        W20601   9.366   1.861   8.830 -0.4893  0.0085 -0.1057
77685W        W20602   9.658   2.293   5.572  0.1635  0.0953  0.1376
77686W        W20603   7.772  33.416  10.064 -0.2219 -0.1550 -0.1458
77687W        W20604  10.459   3.303   9.303  0.0047  0.2044  0.0408
77688W        W20605   9.652   0.240   9.327 -0.0437 -0.0887  0.0155
77689W        W20606   7.810  34.289   9.790  0.0689 -0.2131  0.3692
77690W        W20607  11.336   3.898  10.315 -0.0246 -0.1363  0.0820
77691W        W20608   9.574   4.213  10.901 -0.0213 -0.0391 -0.3606
77692W        W20609   9.177   3.005  10.400  0.1673 -0.0651  0.0396
77693W        W20610  13.411   0.927  10.765 -0.2294  0.0361  0.0993
77694W        W20611   7.318  34.508   9.689 -0.2633  0.0631 -0.1999
77695W        W20612   8.427   1.215   9.902  0.2559 -0.2769  0.3116
77696W        W20613   8.425   2.890  11.361 -0.3187 -0.2331 -0.1806
77697W        W20614   8.604   2.259   8.383  0.3403  0.3979 -0.2568
77698W        W20615   9.647   4.628  10.556  0.2633 -0.1702  0.0242
77699W        W20616  10.009   0.521  10.026  0.0194 -0.0181 -0.1329
77700W        W20617  10.182   3.722   9.234 -0.1861  0.3293  0.0506
77701W        W20618   8.048   2.783  11.072 -0.1055  0.2068 -0.0503
77702W        W20619   9.991   2.063  11.024 -0.3456  0.1695  0.1447
77703W        W20620  11.842   3.420  11.012  0.1687  0.0838  0.3836
77704W        W20621   7.805   0.143   9.788  0.4255 -0.2241  0.1434
77705W        W20622   6.132   2.608  10.696 -0.2082 -0.1164  0.1908
77706W        W20623   9.731  34.183   8.780  0.1766  0.0514 -0.0978
77707W        W20624   8.780   0.892   8.407 -0.0394  0.1763  0.2470
77708W        W20625  11.245   4.382  11.025  0.2800  0.0228 -0.2154
77709W        W20626   9.116   0.552  10.196  0.3714  0.2138 -0.0626
77710W        W20627   7.339  34.304  11.028 -0.1504  0.2243 -0.0136
77711W        W20628   7.092  34.547   8.758  0.3310  0.0912  0.2574
77712W        W20629   8.021   0.618   9.844  0.1143  0.4329  0.1025
77713W        W20630  13.822   1.713  11.066 -0.5412 -0.0443  0.0993
77714W        W20631   9.697   1.973  10.141  0.0355 -0.0044  0.0700
77715W        W20632   7.568   3.617   9.516 -0.0011  0.3615 -0.1360
77716W        W20633  12.686   0.467  10.517  0.2594  0.1152 -0.3871
77717W        W20634   6.754   2.127  10.545 -0.0379 -0.1574 -0.1151
77718W        W20635   9.322   2.432  10.095 -0.1347  0.1992 -0.0411
77719W        W20636   8.900   1.701  10.701  0.0675 -0.0889 -0.0953
77720W        W20637  10.346   3.362   8.815 -0.3428 -0.2516 -0.3819
77721W        W20638   9.745   1.062  10.145  0.1536  0.1300  0.0746
77722W        W20639   7.427   5.060  10.127 -0.0275  0.1326 -0.0455
77723W        W20640  11.343   2.912  10.765  0.0062  0.0165  0.1283
77724W        W20641   7.673   2.410  11.296  0.1655 -0.0798  0.0846
77725W        W20642  11.109   1.826   9.626  0.5670 -0.1160 -0.1680
77726W        W20643   9.303  34.160  10.129 -0.2485  0.1380 -0.1209
77727W        W20644   8.595   1.873   9.133 -0.3158 -0.2345  0.1512
77728W        W20645   4.501   5.981   9.645  0.1672 -0.0850  0.1130
77729W        W20646   7.769   2.591   8.210  0.0201 -0.1221  0.1045
77730W        W20647   9.958   3.260   9.141  0.1008 -0.0737 -0.0842
77731W        W20648   9.110   2.852   8.970  0.2398 -0.0474 -0.1373
77732W        W20649  10.147   7.315   9.158 -0.0270 -0.1393 -0.1852
77733W        W20650   8.180  34.552   9.999 -0.0700 -0.2061 -0.3209
77734W        W20651   7.529   5.064   9.274  0.0325  0.0319 -0.0049
77735W        W20652   8.024   2.475   7.741 -0.0157 -0.1178 -0.2101
77736W        W20653  10.236   2.912   6.581  0.0156  0.0793 -0.2654
77737W        W20654   8.561   4.168   8.638 -0.0638 -0.2316  0.0585
77738W        W20655   8.983  33.631   8.311  0.2272 -0.2233 -0.0254
77739W        W20656  12.779   0.807   8.312 -0.0165  0.0935 -0.0769
77740W        W20657   9.569   1.225   9.593 -0.0744  0.0166  0.0041
77741W        W20658   9.116   2.113  11.621  0.4592 -0.1189  0.1432
77742W        W20659  11.102   1.156  10.483 -0.0212  0.2365  0.3226
77743W        W20660   9.752   2.749   9.099 -0.1836 -0.0951 -0.0268
77744W        W20661   9.769   2.057   8.658 -0.0315 -0.1018 -0.0232
77745W        W20662   8.567   4.302  11.069 -0.2224 -0.0185  0.0680
77746W        W20663   8.516   0.041  10.300 -0.1059  0.1134 -0.0920
77747W        W20664   7.721   2.105   8.469 -0.0878  0.0548  0.0036
77748W        W20665   8.587  33.055  10.209 -0.0466 -0.1485 -0.0290
77749W        W20666   7.691   4.183   9.340  0.0678 -0.0106  0.3768
77750W        W20667  10.549   5.045   9.851  0.0158  0.3384 -0.0358
77751W        W20668   6.406   3.865  10.348  0.1810 -0.2503  0.2012
77752W        W20669   8.416   1.449   8.848  0.1184  0.0305 -0.1153
77753W        W20670  10.387   1.508   9.602  0.0434 -0.1733  0.3014
77754W        W20671   6.864   4.350  10.539 -0.1935  0.0855 -0.0079
77755W        W20672   7.455   2.523   9.693 -0.0248  0.2919  0.0962
77756W        W20673  10.668   0.496  10.150  0.2121 -0.0407  0.1456
77757W        W20674   6.367   1.678  11.310  0.2943  0.1577  0.5779
77758W        W20675   6.224   2.532  11.180 -0.0032 -0.0562  0.1305
77759W        W20676   8.356   1.646   7.840 -0.1792  0.1868 -0.1432
77760W        W20677   9.436   3.240   8.860  0.0237  0.2113  0.2423
77761W        W20678   6.547   0.781  10.961 -0.4141  0.2109  0.0322
77762W        W20679  11.295   2.119   7.796 -0.0165 -0.0318 -0.2429
77763W        W20680   5.713   2.063  10.574  0.0860 -0.1977  0.1667
77764W        W20681   7.768   1.942  11.022  0.0064  0.0439  0.2778
77765W        W20682   6.537  33.989  10.313  0.3883  0.0717 -0.2786
77766W        W20683  10.335   2.299   6.928  0.0779  0.0255 -0.0997
77767W        W20684  11.038   1.543   8.596  0.5675  0.1635  0.2212
77768W        W20685   9.305   4.554   9.306 -0.1869 -0.1226 -0.2134
77769W        W20686  10.750   2.234   9.917  0.0669 -0.1051 -0.0819
77770W        W20687   8.838   4.702  10.074  0.0548  0.4605 -0.0413
77771W        W20688   6.098   1.959  10.999 -0.2738 -0.1210  0.3312
77772W        W20689  10.345   0.180  10.965  0.1101  0.0701 -0.2810
77773W        W20690  11.415   1.466  11.172 -0.2267  0.1035 -0.0639
77774W        W20691  10.208   1.778  10.511 -0.0842 -0.0799  0.0179
77775W        W20692   5.811   3.384  11.157 -0.2681  0.2932 -0.1142
77776W        W20693   7.955   4.351   9.810  0.0606 -0.2150 -0.2652
77777W        W20694  10.360   2.930   9.654 -0.3176  0.0041 -0.0213
77778W        W20695   9.318   2.081   8.344  0.2671 -0.2579  0.2171
77779W        W20696   7.321   1.565  11.017  0.1947 -0.2387  0.0768
77780W        W20697   8.083  34.263   9.309  0.1367 -0.1725  0.0436
77781W        W20698   7.587   1.075   9.858 -0.1331 -0.1673 -0.0822
77782W        W20699  10.237   4.823   9.533 -0.0773  0.2756 -0.0642
77783W        W20700  12.987   5.137   9.470 -0.1274 -0.1774 -0.1402
77784W        W20701   7.599   1.595   9.990 -0.4503 -0.2122 -0.1032
77785W        W20702  11.453   2.552   7.712  0.0573  0.0437 -0.3617
77786W        W20703   8.894   0.231   9.890  0.3046  0.0630  0.1848
77787W        W20704  11.264   2.148   9.208  0.0308 -0.1730 -0.1127
77788W        W20705  10.133   1.881   9.444  0.0217 -0.0213  0.0285
77789W        W20706   6.515   4.102  11.106  0.0246  0.2061 -0.2381
77790W        W20707   7.866   1.459   9.179 -0.2184 -0.2920  0.3093
77791W        W20708   7.808   1.149   7.834 -0.1510  0.2691 -0.2002
77792W        W20709   8.323   3.772  10.815 -0.2071  0.0042 -0.2416
77793W        W20710   9.833   3.465  11.234 -0.3583  0.1403 -0.0133
77794W        W20711   8.017   1.459  10.241  0.0863  0.2449  0.2852
77795W        W20712   7.918   2.569  10.244  0.0426  0.1671 -0.3424
77796W        W20713   5.833  34.374  10.380 -0.1672 -0.1337  0.2308
77797W        W20714   7.194   5.124  10.534  0.2359  0.0187  0.0153
77798W        W20715   9.644   0.747   8.754 -0.4286 -0.0182 -0.0819
77799W        W20716   8.772   4.096  10.148 -0.0276  0.0408  0.0708
77800W        W20717   7.672  34.517  10.233 -0.1722 -0.1883 -0.1756
77801W        W20718   7.696   2.143  10.045 -0.2933 -0.1270  0.0151
77802W        W20719   6.065  33.171   8.369 -0.1020  0.3943 -0.1138
77803W        W20720   7.542   1.269  10.455  0.1945 -0.0246 -0.0514
77804W        W20721  12.028   6.315   9.501 -0.2186 -0.0223  0.3536
77805W        W20722  10.907   3.716   9.621 -0.0950  0.1782  0.0792
77806W        W20723   4.132   1.042   9.953 -0.1630 -0.0115  0.1580
77807W        W20724  12.096   4.328  10.640 -0.0134 -0.0524 -0.0816
77808W        W20725  10.872   0.451   8.618  0.1170 -0.1459 -0.3363
77809W        W20726  12.117   3.428  10.541 -0.2228  0.1641  0.0446
77810W        W20727   6.482   2.537  10.313 -0.2072  0.2959 -0.2561
77811W        W20728  12.362   1.100   9.748 -0.2276  0.0847 -0.0212
77812W        W20729   7.030  34.215   9.175  0.2033 -0.0844 -0.0168
77813W        W20730   9.743   1.078  10.681 -0.3444 -0.3263  0.1777
77814W        W20731  11.620   3.440  10.385 -0.0065  0.2164 -0.0172
77815W        W20732  10.288   4.975  10.939  0.1445  0.1145 -0.0598
77816W        W20733   8.981   1.427  10.267 -0.1903 -0.0166  0.0371
77817W        W20734  10.172   2.943  10.103  0.2012 -0.2165 -0.0122
77818W        W20735   8.394   2.240   9.434  0.1540 -0.0701 -0.5191
77819W        W20736   9.778   2.228   8.146  0.2770 -0.1019 -0.2020
77820W        W20737   7.628   3.783  11.029  0.2099 -0.2283 -0.2641
77821W        W20738   9.792   3.487   8.665 -0.0104  0.1814  0.3377
77822W        W20739  12.770   1.171   8.717 -0.1554 -0.2343  0.0209
77823W        W20740   8.459   1.685  10.197  0.2673  0.1263 -0.0161
77824W        W20741   6.926   0.657  10.654  0.1461 -0.0242  0.0773
77825W        W20742   8.142   1.953   9.837 -0.0069 -0.0956 -0.1451
77826W        W20743  10.032   2.783  10.559 -0.3244 -0.1209  0.0303
77827W        W20744   6.862   1.816  11.095 -0.3271 -0.1409 -0.1727
77828W        W20745   8.370   0.866   9.610 -0.1808 -0.1977 -0.1549
77829W        W20746   9.401   3.787  11.011  0.2403 -0.0724 -0.1594
77830W        W20747   9.654   2.030   9.231 -0.0729  0.0431 -0.1927
77831W        W20748  10.584   6.605   1.280 -0.2831 -0.2638 -0.0510
77832W        W20749   8.475   6.456  31.557 -0.3769 -0.1877 -0.1186
77833W        W20750   9.866   6.127   2.364 -0.1107  0.0276 -0.2101
77834W        W20751   9.811   6.390   0.627  0.2064 -0.0064 -0.2165
77835W        W20752   6.875   4.893   1.122  0.0236  0.0655 -0.0511
77836W        W20753  10.170   8.823  31.408  0.1734  0.0653 -0.2179
77837W        W20754   5.988   4.624   1.753  0.1114 -0.1639 -0.0894
77838W        W20755  10.114   6.601   2.529 -0.0682  0.2807 -0.3839
77839W        W20756  10.505   6.271   2.831  0.1469  0.4047 -0.0051
77840W        W20757  10.470   7.298  30.833 -0.2132  0.0333 -0.1973
77841W        W20758   9.895   4.313   1.725 -0.1671  0.2043 -0.0628
77842W        W20759   9.459   6.996  31.754  0.2023  0.0755  0.0727
77843W        W20760  10.266   4.547   2.025  0.3606  0.0500 -0.0485
77844W        W20761   8.463   2.773   3.348 -0.1377  0.1043  0.2169
77845W        W20762   9.766   5.634   1.910  0.4807  0.0370 -0.1463
77846W        W20763   9.296   4.633   1.090 -0.2628  0.0004 -0.3423
77847W        W20764   9.584   3.907   1.948 -0.2169 -0.1108 -0.0032
77848W        W20765  10.529   2.831   1.650  0.3671  0.0163  0.0676
77849W        W20766  10.392   8.595  31.853 -0.6263 -0.0298  0.2013
77850W        W20767   8.012   3.092   2.088 -0.0114 -0.3709  0.0039
77851W        W20768   9.046   4.264   5.479 -0.1955  0.2121  0.2129
77852W        W20769  11.400   6.686   0.128  0.0250 -0.0181 -0.4126
77853W        W20770   4.918   3.866  31.291  0.0833 -0.3437  0.0663
77854W        W20771   9.872   6.416   1.908  0.0101  0.5087 -0.2964
77855W        W20772   8.480   3.915   1.848 -0.0984  0.1072 -0.1327
77856W        W20773   9.771   4.674   2.111  0.0821  0.1497  0.0506
77857W        W20774  13.120   4.156   0.691 -0.4018 -0.0585 -0.1709
77858W        W20775  10.074   7.715   0.534 -0.2806 -0.2317  0.2036
77859W        W20776  11.021   5.566  30.275 -0.0192 -0.1894  0.2824
77860W        W20777   9.888   5.622   4.978 -0.1814 -0.1741 -0.1733
77861W        W20778   6.599   6.954  30.834 -0.0909 -0.1750  0.3168
77862W        W20779   8.356   7.608   1.451 -0.0758 -0.0638 -0.2051
77863W        W20780   8.320   4.673   1.083  0.0966  0.2831  0.1267
77864W        W20781  11.144   6.289   0.898 -0.2615 -0.2756 -0.3382
77865W        W20782  10.626   5.243   2.192  0.0547 -0.1704  0.1481
77866W        W20783   9.936   5.871   3.768 -0.2792  0.2128  0.1793
77867W        W20784   8.266   7.026  30.109  0.2139 -0.1711  0.2391
77868W        W20785  10.329   8.101   3.761 -0.1496  0.2795 -0.0684
77869W        W20786  10.060   6.958   2.181  0.0905 -0.2230  0.0995
77870W        W20787   8.455   5.402   2.615  0.0099 -0.3209  0.0103
77871W        W20788   8.861   5.295   0.553  0.0728  0.2497  0.2430
77872W        W20789  10.796   5.076   0.822  0.1105 -0.0423 -0.0334
77873W        W20790  10.162   5.629   2.263 -0.1035 -0.0349 -0.3735
77874W        W20791   7.413   5.012   2.611  0.0207  0.2263  0.2039
77875W        W20792   8.824   6.313   1.178 -0.0110  0.1090 -0.3029
77876W        W20793  10.876   0.331   4.117  0.1631  0.0136  0.1946
77877W        W20794   9.418   7.078  31.226 -0.0345 -0.3194  0.0709
77878W        W20795  11.289   4.834  29.034  0.2075 -0.2028  0.0765
77879W        W20796   9.923   4.212   2.235  0.0344  0.0637  0.5317
77880W        W20797  11.942   4.711   1.734  0.0437 -0.0034  0.3254
77881W        W20798   8.826   2.558   0.940 -0.0860 -0.1464 -0.3763
77882W        W20799   9.080   7.821   0.578  0.0214 -0.3023 -0.0257
77883W        W20800   9.165   4.961   3.824 -0.1658  0.2844 -0.1183
77884W        W20801  10.042   6.714   1.130 -0.2281  0.2030  0.0390
77885W        W20802   9.537   6.488  31.725 -0.0019  0.1259 -0.1925
77886W        W20803   9.623   3.361   2.406 -0.2974 -0.1672  0.1305
77887W        W20804   7.406   6.735   1.608  0.0713  0.3730 -0.3508
77888W        W20805   9.180   5.660   0.697  0.1197 -0.1568  0.1333
77889W        W20806  10.627   6.445  31.354 -0.0008 -0.0407  0.1082
77890W        W20807  12.752   6.094   1.237  0.2329 -0.0504  0.0879
77891W        W20808  13.514   9.889  31.877 -0.2500  0.0172 -0.2160
77892W        W20809   8.692   4.097   1.479  0.3925  0.0147  0.1843
77893W        W20810   9.017   6.885   3.412 -0.0949  0.2327 -0.0450
77894W        W20811   8.730   4.776   2.424  0.1189 -0.0038 -0.0813
77895W        W20812   9.577   3.800   0.649 -0.1409  0.0668  0.1973
77896W        W20813  11.736   4.250   2.815 -0.4028  0.1654 -0.1930
77897W        W20814   7.624   4.668   4.267 -0.0630  0.0130 -0.0289
77898W        W20815  11.022   3.394   2.036  0.2678  0.0149  0.2141
77899W        W20816   8.941   6.315  31.465  0.3037  0.2694 -0.2038
77900W        W20817  11.367   5.731   2.853  0.0381 -0.1953  0.2739
77901W        W20818  12.033   7.891  31.089  0.1005 -0.2943  0.1318
77902W        W20819  11.415   5.454   0.954 -0.0469 -0.3779  0.3525
77903W        W20820  10.206   4.717   5.010  0.1041 -0.2019 -0.1653
77904W        W20821   8.006   5.094   0.135 -0.0416 -0.0381  0.0508
77905W        W20822  11.451   4.871   0.349  0.2577  0.2743  0.2036
77906W        W20823  10.119   5.890   2.781 -0.0379  0.0540 -0.0263
77907W        W20824  13.554   5.067  30.455  0.3526  0.0607 -0.1906
77908W        W20825   8.237   6.987   0.912  0.1912 -0.3018 -0.0876
77909W        W20826   8.669   6.630   3.694  0.0764  0.0681 -0.1305
77910W        W20827  10.913   5.434   2.564 -0.1096  0.0321 -0.0249
77911W        W20828  10.773   7.569   0.357  0.0352  0.1768  0.3405
77912W        W20829   6.034   4.972  31.583  0.0350  0.0297  0.2643
77913W        W20830   8.984   5.463   1.210  0.3964 -0.0638 -0.0967
77914W        W20831   8.555   6.295   0.186 -0.1955 -0.0572 -0.2578
77915W        W20832   7.109   5.956   0.396 -0.1433  0.0896 -0.1705
77916W        W20833  10.690   3.663   1.628  0.0314  0.0579  0.2209
77917W        W20834   7.836   3.919   3.298  0.0360 -0.2745 -0.3426
77918W        W20835  10.728   4.155   2.234  0.0787 -0.1691  0.2051
77919W        W20836   8.088   6.147  31.478 -0.0480  0.1932  0.0697
77920W        W20837   8.785   8.273   0.793 -0.0906 -0.0442  0.1017
77921W        W20838  12.570   5.190   1.484  0.0973  0.0938  0.0271
77922W        W20839   9.916   5.641  30.235  0.0484  0.0756  0.1645
77923W        W20840   7.459   6.405   2.644  0.0491 -0.1139 -0.0988
77924W        W20841   9.240   5.112   0.883 -0.0823 -0.2831  0.0508
77925W        W20842   8.582   4.810   3.891 -0.4632 -0.0408  0.1817
77926W        W20843   5.961   3.929  31.145 -0.0457 -0.1432 -0.2175
77927W        W20844  11.307   4.712   3.893  0.0919  0.2981  0.0270
77928W        W20845   6.457   4.402  30.476  0.0338 -0.0457 -0.0121
77929W        W20846  10.729   8.031  31.929  0.2741  0.1333  0.1418
77930W        W20847   8.742   5.056  31.636 -0.2009  0.0195  0.0939
77931W        W20848   9.280   6.251   0.368 -0.0555  0.0932 -0.1326
77932W        W20849   8.768   4.100   4.858 -0.0735 -0.0413 -0.1185
77933W        W20850   9.870   7.814  31.410  0.1750  0.0302 -0.0558
77934W        W20851   9.659   6.164   2.997  0.0585  0.2356  0.1405
77935W        W20852  10.554   6.754   3.626  0.0163  0.2003 -0.0264
77936W        W20853   9.314   2.984   2.672 -0.1251  0.1232 -0.0071
77937W        W20854   7.149   4.181   2.258  0.1852  0.0082  0.0510
77938W        W20855   7.562   6.452   0.201 -0.1848  0.1277 -0.0341
77939W        W20856  12.827   7.600   0.762 -0.1313 -0.1386 -0.0373
77940W        W20857   9.946   4.896   1.689  0.2176 -0.0164 -0.0203
77941W        W20858  10.704   5.926   1.579 -0.3545  0.2116  0.2317
77942W        W20859   9.846   6.361   0.103 -0.0960  0.1280 -0.2830
77943W        W20860   7.946   7.792   3.841  0.0638 -0.0074  0.1225
77944W        W20861   9.431   5.225   3.358 -0.1654 -0.0831 -0.2709
77945W        W20862  12.414   6.596   0.453 -0.1266  0.1629 -0.1965
77946W        W20863  10.327   4.009   1.936  0.3301 -0.1330 -0.4302
77947W        W20864   6.186   2.540  31.540  0.1134 -0.0010 -0.0491
77948W        W20865  10.447   8.423   3.168  0.1694  0.1607  0.0228
77949W        W20866   8.077   7.450   1.017  0.0393 -0.0366  0.1695
77950W        W20867   8.372   5.318   0.476 -0.0346 -0.2199  0.1992
77951W        W20868   8.604   8.990   0.029 -0.0552 -0.1439  0.1310
77952W        W20869  10.205   5.519   3.569 -0.0788  0.2246  0.4679
77953W        W20870   7.776   5.989   0.965  0.2634  0.1563  0.3352
77954W        W20871   9.258   4.364   4.565  0.0245 -0.2637 -0.3858
77955W        W20872   7.422   4.456   1.179 -0.1221  0.0976 -0.0493
77956W        W20873   6.852   4.831   3.093 -0.0113  0.0570 -0.1642
77957W        W20874   9.818   2.949   2.625 -0.0240  0.2911  0.0794
77958W        W20875   9.689   2.784   1.231 -0.3387  0.2422 -0.2853
77959W        W20876   8.349   5.951   2.586 -0.0459 -0.1488  0.1736
77960W        W20877   9.152   5.953   3.060 -0.1672 -0.2203 -0.0279
77961W        W20878  13.208   3.346   1.206 -0.2188  0.0690 -0.2429
77962W        W20879  10.622   2.917   2.121 -0.1601  0.0754  0.1077
77963W        W20880   8.067   4.938   4.423  0.2247  0.0652  0.0204
77964W        W20881  10.773   5.680  31.514 -0.3618  0.1563  0.0763
77965W        W20882  10.117   6.287   1.481 -0.0311  0.3724  0.2956
77966W        W20883   8.789   4.618   1.331  0.2604 -0.0038 -0.0677
77967W        W20884  12.223   7.060   0.449 -0.2772 -0.3100  0.0426
77968W        W20885   7.059   6.295   1.404  0.0081 -0.0861  0.3899
77969W        W20886   9.180   6.964   1.614 -0.1818 -0.1201  0.2299
77970W        W20887  10.187   6.000   1.916  0.1646  0.0590 -0.1198
77971W        W20888   9.512   4.721   1.558 -0.1917  0.0079 -0.3345
77972W        W20889   9.421   5.106   0.398 -0.0171  0.0014 -0.0709
77973W        W20890  10.784   4.278   3.170 -0.3065  0.0518 -0.1282
77974W        W20891   6.954   7.664   0.700 -0.2282 -0.1849 -0.1027
77975W        W20892  11.225   4.409   2.935  0.2099  0.1596 -0.1472
77976W        W20893  10.296   5.559   1.703 -0.0099  0.1222  0.0315
77977W        W20894  10.325   3.569   4.242  0.1976  0.2163  0.1261
77978W        W20895  10.083   5.419   4.062 -0.0482  0.1049  0.3505
77979W        W20896  11.105   3.849   2.213 -0.4254 -0.2798  0.0212
77980W        W20897   9.079   5.246   2.238 -0.1010  0.0351 -0.1136
77981W        W20898  11.662   5.027   1.354 -0.4094 -0.0003 -0.2004
77982W        W20899   8.870   5.772   1.773 -0.0483 -0.0399 -0.0493
77983W        W20900   6.757   6.059   0.855  0.1347 -0.0455 -0.1351
77984W        W20901   7.365   6.135   1.814 -0.0721 -0.4778  0.4048
77985W        W20902  10.905   8.557   3.282  0.1663 -0.0623  0.1608
77986W        W20903  12.089   4.985   3.297 -0.1914  0.0416 -0.3810
77987W        W20904   9.743   3.861   2.629  0.2061  0.2222 -0.2649
77988W        W20905   9.318   2.506   1.048 -0.0899  0.0874 -0.1124
77989W        W20906   9.743   9.068  30.981 -0.1094 -0.0499 -0.2595
77990W        W20907   7.918   4.550   0.814 -0.1513  0.3604 -0.2421
77991W        W20908  10.439   3.288   1.345 -0.2177 -0.1606  0.0465
77992W        W20909   9.761   5.953   1.406  0.3421 -0.1423 -0.4543
77993W        W20910  11.002   7.821  31.409  0.1528 -0.3278  0.0763
77994W        W20911   9.889   4.155   5.944 -0.1781  0.1519 -0.0310
77995W        W20912   8.642   6.951  30.844 -0.0727  0.0991  0.1677
77996W        W20913  10.861   3.971   2.666  0.1633  0.2428  0.0050
77997W        W20914   7.550   5.493   1.507 -0.1395  0.2390 -0.0260
77998W        W20915   8.743   3.122   0.936 -0.1536 -0.0611  0.2608
77999W        W20916   7.193   5.822  31.219  0.2174  0.0707  0.1307
78000W        W20917  11.327   4.976   4.398 -0.1957 -0.3309  0.1152
78001W        W20918  11.612   5.384   0.485 -0.3111 -0.3109  0.4645
78002W        W20919   7.729   7.115   2.388 -0.2348 -0.5674  0.2571
78003W        W20920   9.387   3.123   1.452 -0.1188 -0.2119  0.1513
78004W        W20921   5.916   6.878   0.102 -0.1190  0.0097 -0.2597
78005W        W20922   9.921   4.993   3.455 -0.1465  0.0200 -0.2789
78006W        W20923   9.754   4.291   0.689  0.2612  0.2258 -0.2515
78007W        W20924   9.585   5.666   2.832  0.1625  0.0195 -0.1879
78008W        W20925   9.916   3.599   5.586  0.1454  0.2326  0.1180
78009W        W20926   9.020   3.791  31.819  0.0860 -0.0971 -0.0475
78010W        W20927  10.702   4.746   2.202  0.3999  0.0834 -0.0276
78011W        W20928   7.678   5.255   2.093  0.1472 -0.0432 -0.0142
78012W        W20929   7.285   7.318   0.372  0.2736 -0.0050  0.2619
78013W        W20930  10.629   5.454   0.408 -0.1436  0.0183  0.2166
78014W        W20931   8.739   3.958   0.715 -0.1704  0.1419  0.1646
78015W        W20932   8.046   5.041   1.387 -0.2231 -0.1207 -0.1098
78016W        W20933   9.662   4.844   3.093 -0.2528  0.2421  0.1828
78017W        W20934  11.544   5.315   3.097  0.0134  0.2316 -0.1988
78018W        W20935   9.997   4.383   2.759 -0.0476  0.1770 -0.1508
78019W        W20936   9.044   3.920   1.213  0.2429 -0.0081  0.0401
78020W        W20937   9.519   4.378   2.486 -0.3910 -0.0020  0.0044
78021W        W20938   9.659   6.907   1.860  0.1028 -0.0414 -0.2278
78022W        W20939   8.981   3.698   4.663  0.2126  0.1038 -0.0973
78023W        W20940   8.333   6.643   1.779 -0.3379 -0.2290  0.3334
78024W        W20941   8.731   3.875   3.241 -0.1070 -0.0140 -0.0508
78025W        W20942  11.885   5.773   0.289 -0.3139 -0.3635  0.0119
78026W        W20943   9.232   6.471   1.681  0.0009 -0.0347 -0.1155
78027W        W20944  10.513   6.251   0.166 -0.0300 -0.1299  0.1645
78028W        W20945   7.624   5.904   0.412  0.1518  0.1091  0.2088
78029W        W20946   8.079   6.077   1.454 -0.1513 -0.1689 -0.1689
78030W        W20947  10.503   3.234   2.481 -0.2522 -0.1663 -0.1304
78031W        W20948   6.788   5.098   3.854  0.2457  0.0416  0.0082
78032W        W20949   9.155   5.958   1.450  0.0311  0.2945 -0.3260
78033W        W20950   5.725   7.045   0.622 -0.0828  0.2990  0.2702
78034W        W20951  11.298   5.126   2.367  0.1668 -0.2286  0.1300
78035W        W20952  10.194   6.886  29.024 -0.0288 -0.3365 -0.4687
78036W        W20953   7.550   5.488   2.596 -0.3048  0.1104 -0.0883
78037W        W20954  11.375   4.332   4.853  0.2668 -0.0937 -0.0281
78038W        W20955  10.489   5.708  31.947 -0.2863  0.0557 -0.1281
78039W        W20956   9.471   3.747   4.756  0.0851 -0.0659 -0.1044
78040W        W20957   8.011   2.108   2.204 -0.1011 -0.1052  0.3645
78041W        W20958  10.597   6.851  31.082  0.1463  0.2465  0.0368
78042W        W20959   8.455   5.313   3.172  0.0742 -0.0933  0.0668
78043W        W20960   8.162   8.213   3.571  0.0490 -0.0187  0.2489
78044W        W20961   9.932   7.212   2.671  0.4303  0.1393 -0.0820
78045W        W20962   8.394   3.106   1.329  0.1592 -0.3466  0.1466
78046W        W20963  10.137   2.160   2.041  0.0571 -0.0987  0.1771
78047W        W20964   7.691   3.414   1.984 -0.2328 -0.0998 -0.1079
78048W        W20965  11.158   5.727   1.612  0.0501  0.0553 -0.0156
78049W        W20966   9.915   6.986  31.461 -0.0913 -0.1325 -0.0793
78050W        W20967  10.603   3.667   2.268 -0.1462 -0.3674 -0.0441
78051W        W20968  10.710   6.815   0.296  0.0325 -0.0827  0.0810
78052W        W20969  10.079   5.954   3.314 -0.1585 -0.0106 -0.2211
78053W        W20970  10.789   5.433   1.649 -0.0867  0.0858  0.0450
78054W        W20971   7.794   3.546   0.896 -0.1495  0.1016  0.0805
78055W        W20972   9.937   4.896   4.243 -0.0865 -0.1408  0.0338
78056W        W20973  10.361   6.960   0.817 -0.0627  0.0251  0.1071
78057W        W20974  10.100   4.266   1.192 -0.0618 -0.0567 -0.3926
78058W        W20975  10.824   3.212   3.034  0.0266  0.2121 -0.2561
78059W        W20976   9.542   3.939   6.736  0.1390 -0.1006  0.1273
78060W        W20977   9.389   7.391   0.245 -0.0801  0.0904  0.0322
78061W        W20978   7.604   6.116   2.274 -0.1305 -0.3018  0.3334
78062W        W20979  11.578   7.309   4.618  0.0248 -0.0620  0.3222
78063W        W20980   9.259   4.196   0.820  0.2154  0.0791  0.3366
78064W        W20981   9.493   4.467   3.480  0.1090 -0.2873 -0.4601
78065W        W20982  11.161   5.675   3.436  0.1806  0.1529  0.2088
78066W        W20983  11.093   4.189   1.384  0.0582 -0.5103  0.4780
78067W        W20984  10.135   5.602   0.432 -0.0303  0.0195  0.3422
78068W        W20985   9.748   4.615   5.880  0.1357  0.0687 -0.0139
78069W        W20986   8.665   3.848  31.226  0.0330 -0.0814 -0.2646
78070W        W20987  10.508   4.177   3.715 -0.0037  0.2167  0.0015
78071W        W20988  10.374   7.664   0.041 -0.0498  0.0340  0.0381
78072W        W20989  10.422   5.029   1.824 -0.0018 -0.0003 -0.0189
78073W        W20990   9.051   4.805   1.857  0.1215  0.1208 -0.0736
78074W        W20991   7.662   3.578   1.463  0.1049  0.0549  0.2574
78075W        W20992   8.379   4.929   2.764 -0.0998 -0.3715 -0.1401
78076W        W20993   9.078   3.763   0.376 -0.2245  0.0683 -0.0857
78077W        W20994   8.250   7.315   0.550 -0.0944  0.3823  0.1651
78078W        W20995   9.424   4.405   1.972 -0.1072  0.2735 -0.0900
78079W        W20996  10.475   4.669   3.653 -0.2528 -0.0489  0.1905
78080W        W20997  10.641   4.337   1.204  0.2376  0.1002 -0.1975
78081W        W20998  12.380   6.355   3.749 -0.0838  0.3459 -0.1922
78082W        W20999   8.944   8.291  30.472  0.1806 -0.3097  0.0771
78083W        W21000   9.594   4.337   3.036  0.0809  0.0144 -0.0332
78084W        W21001   7.117   6.174   2.296  0.0994 -0.1223 -0.2378
78085W        W21002   7.096   6.422   0.359  0.3003  0.2557 -0.3056
78086W        W21003   7.473   6.214  31.484 -0.2447 -0.0653 -0.1959
78087W        W21004   8.692   5.700   2.977  0.1487 -0.1825 -0.1515
78088W        W21005   8.653   4.399   2.940 -0.2193 -0.3433  0.2990
78089W        W21006   8.554   5.797   1.330 -0.1576 -0.2052 -0.1108
78090W        W21007  12.662   5.808   2.575  0.2544  0.1686 -0.4033
78091W        W21008   8.376   7.487   2.287 -0.1413  0.4117 -0.2444
78092W        W21009   8.388   5.604   1.821  0.0956  0.3477  0.1498
78093W        W21010   9.900   6.921   0.023 -0.3041 -0.0624 -0.1331
78094W        W21011  10.140   6.093   0.443 -0.1581  0.1023  0.3195
78095W        W21012   9.349   8.196   1.936  0.0307  0.4968 -0.1374
78096W        W21013   6.496   4.144   3.873  0.1304  0.1519 -0.1994
78097W        W21014   8.419   5.737   3.502  0.3943  0.2345  0.0793
78098W        W21015   9.318   6.457   3.304  0.1154 -0.2772  0.0386
78099W        W21016   7.929   3.623   0.331 -0.0385  0.2894 -0.0063
78100W        W21017   9.210   5.680   0.223 -0.0879  0.0548 -0.2592
78101W        W21018   8.817   6.539   2.878  0.1823 -0.1284  0.4514
78102W        W21019   6.093   7.185   2.239 -0.1751  0.2960  0.1563
78103W        W21020   7.076   6.880   0.054 -0.4054 -0.0466 -0.3305
78104W        W21021  11.271   8.260   0.172 -0.1395 -0.0632 -0.2091
78105W        W21022  12.377   7.782  31.613  0.0029 -0.1115  0.0874
78106W        W21023  10.693   6.471   0.652  0.2220 -0.3702  0.4151
78107W        W21024   9.506   5.155   1.953 -0.0006 -0.1746  0.1024
78108W        W21025   8.672   7.413   0.224  0.3774  0.0005 -0.2049
78109W        W21026   8.765   7.719  31.782  0.2860 -0.0790  0.1950
78110W        W21027   9.325   5.496  31.257 -0.0436 -0.1336  0.3120
78111W        W21028  10.573  10.281   1.158  0.1229  0.0673 -0.0353
78112W        W21029   9.306   3.791   2.355  0.2020 -0.0679  0.2339
78113W        W21030  10.118   5.112   1.085 -0.1267 -0.0450 -0.1450
78114W        W21031  10.566   5.916   0.604  0.0871  0.0012 -0.1910
78115W        W21032  10.975   5.395  31.845  0.2673 -0.0526  0.0379
78116W        W21033  10.842   4.893   3.887  0.0799 -0.2779  0.1726
78117W        W21034  10.944   4.743   3.198  0.1342 -0.0332  0.2138
78118W        W21035   8.143   5.121   0.891  0.3634 -0.1066 -0.1299
78119W        W21036   9.406   6.538   4.801 -0.1482  0.4502  0.1316
78120W        W21037   9.750   3.464   3.408 -0.2044  0.1667 -0.1437
78121W        W21038   7.896   7.771   3.202  0.2533  0.0711  0.0667
78122W        W21039  11.144   8.079  30.727 -0.1354  0.1174  0.0821
78123W        W21040   9.023   3.305   0.119 -0.0592  0.0860  0.0791
78124W        W21041   9.836   4.675   1.201  0.0523 -0.0394 -0.0150
78125W        W21042  11.220   4.129   3.408  0.2500  0.0613 -0.1122
78126W        W21043   9.419   3.592   1.339  0.1603 -0.4293 -0.1741
78127W        W21044   9.994   5.207   2.075  0.2734  0.1718 -0.2050
78128W        W21045   8.299   8.288   0.481 -0.0057 -0.3257  0.0257
78129W        W21046   9.008   7.051   0.125  0.0972  0.0942  0.0343
78130W        W21047   9.504   6.721   0.256  0.0585 -0.2557 -0.1610
78131W        W21048   8.029   4.168  31.538 -0.0141  0.1442 -0.3552
78132W        W21049  11.265   3.794   1.654 -0.0327 -0.0873 -0.0274
78133W        W21050   9.459   5.545   1.078 -0.1111 -0.0246  0.0882
78134W        W21051  10.283   3.613   3.353  0.2082  0.1967  0.0215
78135W        W21052   7.654   5.061   0.599 -0.0761 -0.0698 -0.0082
78136W        W21053  11.355   5.760  31.677  0.1545  0.2139  0.0282
78137W        W21054   9.109   6.122   4.178 -0.3553 -0.0514 -0.0113
78138W        W21055   8.973   3.737   1.628  0.1996  0.1111  0.1420
78139W        W21056   8.488   4.839   0.551 -0.2261  0.1517 -0.1335
78140W        W21057   9.949   5.839   0.879  0.3232 -0.0389 -0.4530
78141W        W21058   9.087   6.520  31.922  0.2105  0.3084 -0.0731
78142W        W21059   9.854   7.845   3.717 -0.3564 -0.0745 -0.0366
78143W        W21060   8.312   6.485   1.230 -0.0016 -0.1323 -0.0771
78144W        W21061   9.948   4.371   0.243 -0.0768  0.2913  0.0136
78145W        W21062   8.178   6.455   0.507 -0.1707  0.4743 -0.0144
78146W        W21063  10.751   4.997   0.117 -0.2078  0.0833 -0.1097
78147W        W21064  10.423   6.187   2.314  0.2311 -0.1171  0.1485
78148W        W21065   8.513   1.563   1.167  0.2244 -0.1293 -0.0716
78149W        W21066  11.581   6.988  31.778  0.1482 -0.0899 -0.1212
78150W        W21067   9.773   6.694   3.017 -0.0487 -0.0546  0.1764
78151W        W21068   8.557   6.757  31.927  0.0287  0.0602  0.2161
78152W        W21069  10.646   6.321   3.342 -0.1095 -0.2582 -0.2247
78153W        W21070  11.583   7.642   1.706  0.0008 -0.1813 -0.2086
78154W        W21071   7.559   5.868  31.843  0.0998  0.0768  0.2150
78155W        W21072   9.855   5.405   3.149  0.1115  0.1415  0.1880
78156W        W21073  11.266   8.864   0.068  0.4774  0.0243  0.0439
78157W        W21074  11.077   5.183   0.423 -0.0077 -0.2048 -0.0097
78158W        W21075   8.635   3.084   1.943 -0.1240 -0.0542  0.1949
78159W        W21076   8.752   7.890   1.358  0.1165  0.1517  0.0620
78160W        W21077  11.865   4.889   2.188 -0.0900 -0.0772 -0.1113
78161W        W21078  11.548   4.784   5.005 -0.1663 -0.0134 -0.3170
78162W        W21079   9.851   6.106  31.530  0.0209 -0.0681  0.2639
78163W        W21080  10.533   3.631   3.762  0.5760  0.0010 -0.0842
78164W        W21081  10.619   5.167   1.249  0.0376 -0.2171  0.2101
78165W        W21082   9.623   8.677   2.048 -0.0104 -0.1765 -0.2168
78166W        W21083   8.672   5.054   0.981  0.0028 -0.1277  0.3259
78167W        W21084   9.181   5.599   2.618  0.4180  0.0197 -0.0969
78168W        W21085   9.220   8.467   0.600 -0.4447 -0.1629  0.1757
78169W        W21086   8.900   7.790  31.309 -0.0794  0.1418  0.0238
78170W        W21087   9.008   6.154   2.048 -0.0303 -0.0447 -0.0466
78171W        W21088  13.098   5.175   0.172  0.0568  0.2147  0.0730
78172W        W21089  11.639   8.378  31.414 -0.2173 -0.2707 -0.0414
78173W        W21090   8.785   3.749   2.211 -0.1409  0.2005  0.2404
78174W        W21091  10.301   3.986   2.551 -0.0739  0.0770  0.0441
78175W        W21092  11.369   3.160   2.888 -0.1273  0.2666  0.2718
78176W        W21093   9.919   7.031   0.508 -0.0655  0.0788 -0.2653
78177W        W21094   8.979   6.146  31.041  0.0508 -0.1087  0.0792
78178W        W21095  11.172   7.773   0.137 -0.0165  0.1044 -0.2647
78179W        W21096   9.451   6.497   2.192  0.0565 -0.2041  0.1879
78180W        W21097   9.587   4.065   4.361 -0.0735 -0.0065  0.0725
78181W        W21098   9.101   3.413   2.760 -0.1264 -0.0041 -0.0968
78182W        W21099   8.304   3.466   2.057 -0.1549  0.2581 -0.0319
78183W        W21100  10.039   0.823   1.612 -0.1813 -0.1121  0.1878
78184W        W21101  11.054   7.234   1.931 -0.1318  0.1228  0.1580
78185W        W21102   8.129   1.950   2.650 -0.0111  0.1072 -0.0593
78186W        W21103   7.117   3.173   2.656 -0.1028 -0.0014  0.0676
78187W        W21104   9.211   7.032   2.113  0.1786 -0.1337  0.0364
78188W        W21105   9.666   5.889   0.389 -0.0452 -0.0597  0.1387
78189W        W21106   9.295   2.344   2.140 -0.0739  0.1369 -0.1367
78190W        W21107  10.859   6.237   4.396  0.3752  0.2907  0.2265
78191W        W21108   7.155   5.752   1.072  0.0525  0.1504  0.2347
78192W        W21109   7.954   4.680   5.196 -0.0611  0.0699 -0.2026
78193W        W21110   8.458   1.148   3.771 -0.0947 -0.2726 -0.1749
78194W        W21111   7.513   4.799  31.177  0.1992  0.4216  0.3855
78195W        W21112  11.209   5.169   1.304  0.1901 -0.1496 -0.1275
78196W        W21113  10.435   7.469   0.940  0.1802  0.0603 -0.0099
78197W        W21114  12.378   3.295  29.850  0.0384  0.0681  0.0599
78198W        W21115   9.293   6.458   2.813  0.0969 -0.1772  0.0033
78199W        W21116   9.782   7.174   1.479  0.1260 -0.1096 -0.0607
78200W        W21117   7.185   5.247   1.308 -0.0266 -0.1118 -0.0041
78201W        W21118  11.026   5.053   1.950  0.0616 -0.1376  0.1410
78202W        W21119   9.667   6.588   1.473 -0.1460 -0.0148 -0.0849
78203W        W21120   9.933   8.267   0.208  0.0244 -0.0391 -0.1741
78204W        W21121  11.308   2.770   1.813 -0.0940  0.2307  0.2328
78205W        W21122  10.867   5.543   1.188  0.0590  0.2617 -0.0771
78206W        W21123   6.879   6.794   1.379  0.3368  0.0984  0.2868
78207W        W21124   7.900   6.162   2.766  0.0561 -0.0439 -0.1917
78208W        W21125  11.275   7.124   3.394  0.0132  0.0227 -0.1328
78209W        W21126   8.501   4.816   1.664 -0.1608  0.0358 -0.0700
78210W        W21127  12.272   5.939   1.018 -0.1588 -0.1859  0.0233
78211W        W21128  10.414   5.036  30.304 -0.2686 -0.0681 -0.0270
78212W        W21129   8.145   5.544   2.266  0.1724  0.1486  0.1047
78213W        W21130   9.150   3.509   0.917  0.2067  0.1547 -0.0709
78214W        W21131  10.383   4.651   0.929  0.1764  0.1609  0.0103
78215W        W21132  10.736   7.316  31.362 -0.0363  0.2292  0.1303
78216W        W21133  10.520   5.086   2.765  0.1882 -0.2456 -0.2347
78217W        W21134   9.913   5.407   1.443  0.1823  0.1105 -0.1474
78218W        W21135  11.629   5.366   2.633 -0.0374 -0.1714  0.1647
78219W        W21136   9.962   8.807   1.497 -0.3603 -0.0469 -0.1854
78220W        W21137  10.552   6.486   4.115  0.0594 -0.0649  0.2615
78221W        W21138  10.311   5.818   1.280 -0.1463  0.1701 -0.2124
78222W        W21139  10.523   4.513   4.154  0.1494 -0.2133  0.1217
78223W        W21140   8.755   2.271   2.403 -0.0376 -0.0077 -0.3310
78224W        W21141   9.343   5.508   1.627 -0.0021 -0.0229 -0.0571
78225W        W21142  10.305   7.181  31.856  0.0553  0.1419  0.3818
78226W        W21143   9.718   5.395   3.729 -0.1334 -0.1775  0.2163
78227W        W21144   9.404   6.063   2.493 -0.1386  0.2273  0.4404
78228W        W21145   9.650   4.834   0.769 -0.0483  0.1046  0.3789
78229W        W21146   9.318   5.715   2.112 -0.1538  0.1646 -0.4186
78230W        W21147  10.343   5.484   2.973  0.1135  0.1413 -0.1129
78231W        W21148   7.524   6.834   5.164 -0.0188 -0.0920 -0.0571
78232W        W21149   8.643   4.201   4.007 -0.0167  0.1787 -0.1224
78233W        W21150  11.715   3.155   3.643 -0.0841 -0.0499 -0.1846
78234W        W21151  10.127   4.946   5.827 -0.0704 -0.2324 -0.0706
78235W        W21152   6.581   3.776   7.561  0.2275  0.0395  0.1461
78236W        W21153   8.864   6.726   7.172  0.2605 -0.2332  0.1135
78237W        W21154   7.219   3.196   6.598  0.1244 -0.0652  0.0105
78238W        W21155   8.578   5.508   5.185 -0.0851  0.2121  0.0589
78239W        W21156  11.446   6.077   6.394 -0.0924 -0.0500 -0.0346
78240W        W21157  10.520   5.731   2.563 -0.1964 -0.0705 -0.0080
78241W        W21158   7.687   3.689   5.031 -0.2761  0.0231  0.1865
78242W        W21159   7.860   5.549   5.289 -0.0561  0.0621  0.2033
78243W        W21160   9.415   3.877   3.379 -0.1301  0.1140  0.2177
78244W        W21161   7.947   4.789   6.326 -0.1894 -0.0707 -0.2697
78245W        W21162  11.379   4.009   6.819 -0.0764 -0.0110 -0.2638
78246W        W21163   7.785   6.324   4.907  0.0679  0.0734 -0.0061
78247W        W21164   8.825   2.707   6.076  0.0582 -0.0279 -0.2341
78248W        W21165   7.316   5.041   4.593 -0.1751 -0.2017  0.1793
78249W        W21166   9.496   7.370   4.561  0.1658  0.0612  0.1339
78250W        W21167   7.690   3.443   5.806 -0.0664  0.1710  0.0944
78251W        W21168   7.973   3.835   9.830  0.2520 -0.2025 -0.2014
78252W        W21169   7.686   6.013   5.317  0.2171 -0.1417 -0.1058
78253W        W21170   6.846   4.281   3.572 -0.0220 -0.0413 -0.1545
78254W        W21171   6.754   4.118   5.875  0.0355  0.0876 -0.0144
78255W        W21172   6.443   5.388   4.643  0.2712  0.2525  0.1254
78256W        W21173   9.860   2.867   6.013 -0.0982  0.1675 -0.1419
78257W        W21174   9.322   5.694   4.676 -0.0350 -0.2457  0.0358
78258W        W21175   7.564   5.769   4.858 -0.0376 -0.2684 -0.0134
78259W        W21176   7.818   7.199   3.117 -0.1172  0.1962  0.1834
78260W        W21177   9.135   6.141   6.019 -0.1284  0.1118 -0.0193
78261W        W21178   8.301   4.743   7.636  0.0118  0.0438  0.3302
78262W        W21179   8.666   8.341   6.275 -0.1272 -0.2321  0.1981
78263W        W21180   7.397   6.307   3.169  0.2362 -0.2498  0.2173
78264W        W21181  10.440   5.835   5.137  0.2343 -0.1108 -0.1586
78265W        W21182   9.581   6.970   4.971 -0.1970 -0.4336  0.0810
78266W        W21183   8.024   6.059   6.260 -0.0429 -0.0473 -0.2232
78267W        W21184   8.369   8.010   4.796  0.3948  0.0688 -0.1743
78268W        W21185   7.767   5.510   7.073 -0.0443  0.2361 -0.2529
78269W        W21186   7.083   6.599   7.424  0.0802  0.3624  0.1977
78270W        W21187   8.323   7.342   6.399  0.0244  0.0516  0.2368
78271W        W21188   9.322   4.299   5.836 -0.3133  0.0411 -0.2168
78272W        W21189   7.545   5.992   1.428 -0.2831 -0.5005  0.2332
78273W        W21190   8.655   4.947   5.605 -0.0136 -0.0801 -0.0428
78274W        W21191   7.400   6.408   7.950  0.1486  0.2563 -0.4703
78275W        W21192   7.613   8.059   4.553 -0.3151 -0.2522 -0.0387
78276W        W21193  10.949   4.460   7.946 -0.0114  0.0088 -0.1651
78277W        W21194   7.224   7.871   2.591  0.0957  0.3566 -0.1656
78278W        W21195   9.661   4.746   4.793  0.1926 -0.0341 -0.0838
78279W        W21196   8.897   5.176   2.697  0.1114 -0.1983 -0.1848
78280W        W21197  11.525   3.791   5.309  0.0745  0.2897  0.0282
78281W        W21198   9.235   2.614   5.400 -0.0723 -0.2153  0.1997
78282W        W21199   7.844   6.593   7.063 -0.0105 -0.2074  0.4780
78283W        W21200   8.935   2.171   6.178 -0.1317  0.0407  0.0169
78284W        W21201   8.609   4.015   5.388 -0.1453  0.1115 -0.2294
78285W        W21202   9.072   5.439   4.228 -0.3534  0.2012 -0.1658
78286W        W21203  10.038   3.985   6.902 -0.0148 -0.1318 -0.1164
78287W        W21204   7.664   4.761   6.694  0.1571 -0.0589 -0.0928
78288W        W21205   8.408   5.465   6.419 -0.3194 -0.0408  0.1856
78289W        W21206   9.301   6.046   5.500 -0.2111  0.2974  0.0644
78290W        W21207  11.253   7.763   4.859 -0.2068 -0.1966 -0.1078
78291W        W21208   9.144   7.929   3.121  0.1020 -0.2166 -0.2464
78292W        W21209   8.301   3.918   5.901  0.1981  0.0502 -0.3667
78293W        W21210   7.064   6.075   7.954  0.0460 -0.1408 -0.0316
78294W        W21211   6.836   5.380   5.350 -0.0255 -0.0620 -0.0278
78295W        W21212   9.303   3.102   3.154  0.1017  0.2654 -0.0361
78296W        W21213  11.658   5.686   5.945  0.1345  0.0686 -0.1050
78297W        W21214   8.125   3.366   7.231  0.0919  0.0697  0.0142
78298W        W21215   9.129   3.221   7.043 -0.0179  0.0052 -0.0976
78299W        W21216   8.884   4.066   6.022 -0.1174  0.1412 -0.0427
78300W        W21217   9.364   7.689   3.616 -0.1886  0.0838  0.1225
78301W        W21218   9.128   4.297   3.213 -0.0340 -0.1208  0.2193
78302W        W21219  10.149   2.539   5.594 -0.0159  0.0994 -0.0192
78303W        W21220   9.601   3.929   8.479  0.0941  0.1745  0.0184
78304W        W21221   8.195   5.180   5.186 -0.0111 -0.0413 -0.0418
78305W        W21222   8.919   7.475   3.577  0.0083  0.1338  0.1843
78306W        W21223  10.131   7.535   4.615  0.1909  0.0443 -0.1190
78307W        W21224   9.589   5.280   4.184  0.3338 -0.0824  0.1049
78308W        W21225   7.981   5.469   6.202 -0.0886  0.2625 -0.1580
78309W        W21226   9.034   3.950   8.364  0.0108  0.0438 -0.2699
78310W        W21227   9.668   5.616   6.955  0.1414  0.0727 -0.3197
78311W        W21228   8.270   5.987   3.152  0.1360 -0.1283  0.1396
78312W        W21229   7.547   5.770   6.478  0.0716 -0.1783 -0.0395
78313W        W21230   9.129   4.773   5.474  0.1719  0.1383  0.0819
78314W        W21231   7.279   4.156   5.876  0.0709  0.2522  0.1452
78315W        W21232   9.215   5.477   3.763 -0.0260 -0.1861 -0.3063
78316W        W21233  11.121   3.844   5.943 -0.0751 -0.0010  0.2157
78317W        W21234   7.818   3.030   6.090 -0.0016 -0.1036  0.0114
78318W        W21235  11.405   3.406   5.724 -0.2864 -0.0186  0.3563
78319W        W21236   9.175   7.453   4.081 -0.0307  0.1627 -0.5583
78320W        W21237  11.717   6.704   5.762  0.1837  0.0944  0.0951
78321W        W21238  12.818   3.986   3.399 -0.1788  0.1013  0.0516
78322W        W21239  10.194   5.897   4.173  0.1743 -0.0554 -0.1606
78323W        W21240   8.180   3.877   7.494 -0.0240 -0.1614  0.0237
78324W        W21241   8.452   4.124   6.355  0.0627 -0.0486 -0.1834
78325W        W21242   6.330   2.818   6.532  0.2918 -0.0758 -0.0525
78326W        W21243   7.179   1.760   6.500  0.0152 -0.3062 -0.1112
78327W        W21244  12.396   6.205   7.353 -0.0541  0.2513  0.1660
78328W        W21245   8.418   4.559   4.319 -0.1394  0.1413 -0.4209
78329W        W21246  10.328   4.899   6.752  0.1963 -0.0797 -0.2259
78330W        W21247   8.681   5.455   5.694 -0.2754 -0.0173 -0.0332
78331W        W21248   8.135   4.250   5.500  0.1226 -0.0819  0.0276
78332W        W21249  11.027   4.955   7.900  0.4520  0.0910 -0.2262
78333W        W21250   9.060   8.381   4.067 -0.0120 -0.1100 -0.1226
78334W        W21251   9.162   7.028   5.642 -0.1626 -0.0211  0.0216
78335W        W21252   8.647   7.259   5.414  0.0273 -0.3652  0.1124
78336W        W21253   9.199   4.159   7.547 -0.1445  0.3071  0.1651
78337W        W21254   7.294   4.085   3.878 -0.1243  0.0475 -0.3465
78338W        W21255   7.414   8.290   4.147  0.0272 -0.1653 -0.3945
78339W        W21256   9.477   4.905   6.189 -0.0980  0.1064 -0.1081
78340W        W21257   8.444   2.771   4.593  0.1133  0.0462 -0.0196
78341W        W21258   8.758   5.165   6.296  0.1389 -0.2847  0.0633
78342W        W21259   8.121   4.816   5.683 -0.2662 -0.2877  0.0706
78343W        W21260   6.090   4.206   7.689  0.0907 -0.2230  0.0973
78344W        W21261   9.631   3.009   5.544 -0.2048  0.0265  0.0894
78345W        W21262   8.548   4.597   6.199  0.1204  0.1026 -0.0792
78346W        W21263  10.193   3.711   6.045  0.0950  0.1633  0.0684
78347W        W21264   7.962   4.543   4.681  0.0146  0.3714 -0.3719
78348W        W21265   9.515   6.064   6.760 -0.2930  0.1578  0.3901
78349W        W21266   7.602   5.871   2.999 -0.0534  0.1951 -0.2539
78350W        W21267   6.916   4.190   2.988  0.3763 -0.0208 -0.1368
78351W        W21268   7.633   4.316   2.372  0.0302 -0.0181 -0.0512
78352W        W21269  10.511   4.411   6.689 -0.0925 -0.0231 -0.0240
78353W        W21270   6.678   4.065   9.346  0.2217 -0.3531 -0.0446
78354W        W21271   7.754   5.102   5.995  0.0534  0.0171  0.2211
78355W        W21272   8.223   5.788   3.922 -0.1275 -0.2360 -0.1014
78356W        W21273   7.093   6.867   8.917  0.0371  0.0710 -0.1728
78357W        W21274   9.875   3.604   5.066  0.2417  0.1873 -0.2301
78358W        W21275  11.065   4.629   5.149 -0.3657 -0.4005  0.2713
78359W        W21276   9.266   5.957   8.109  0.3474 -0.1360  0.0604
78360W        W21277  10.444   6.093   3.760  0.1973 -0.0646  0.1616
78361W        W21278  10.986   3.589   4.975 -0.0330  0.0052 -0.0711
78362W        W21279   8.886   5.197   3.466  0.2438 -0.0985 -0.2329
78363W        W21280   8.076   7.747   7.907  0.0895 -0.1143 -0.1553
78364W        W21281   9.827   5.283   6.022 -0.2899  0.0668  0.1795
78365W        W21282   9.590   4.779   6.734  0.3328  0.3153  0.3244
78366W        W21283  10.615   3.200   4.948 -0.0687  0.5047  0.1535
78367W        W21284   9.941   6.591   4.829 -0.1114 -0.1839  0.1311
78368W        W21285   7.325   4.952   6.224  0.1003 -0.0394  0.1465
78369W        W21286  10.068   6.973   7.811  0.3960  0.0882  0.1751
78370W        W21287   7.989   5.999   4.351 -0.1235 -0.1439 -0.0342
78371W        W21288  10.026   4.701   8.065 -0.2505 -0.1156 -0.1614
78372W        W21289   8.910   5.455   4.812 -0.0930  0.0530  0.1395
78373W        W21290   8.084   3.543   6.722  0.0625  0.1506 -0.1436
78374W        W21291   7.673   4.413   3.766  0.0961  0.0574  0.0012
78375W        W21292  10.809   5.026   7.044  0.1766 -0.0946 -0.0662
78376W        W21293   7.937   3.041   6.830  0.2903  0.0963  0.2186
78377W        W21294   7.205   1.138   7.127  0.1913 -0.1330 -0.3461
78378W        W21295  10.426   4.619   7.259  0.1942 -0.1412 -0.0874
78379W        W21296  10.708   5.486   5.345 -0.1644  0.0410 -0.0101
78380W        W21297   8.716   6.626   6.618 -0.0063 -0.1940 -0.0329
78381W        W21298  10.004   4.492   3.395 -0.0001  0.0748  0.3831
78382W        W21299   7.500   4.299   6.838  0.0488  0.3499  0.0824
78383W        W21300   7.917   4.700   8.068  0.0552  0.2289 -0.1548
78384W        W21301   6.596   5.687   5.042  0.3902 -0.0897  0.1092
78385W        W21302   7.729   5.134   7.457  0.1219 -0.4227 -0.1599
78386W        W21303  10.424   5.910   4.623  0.1416 -0.0682 -0.2461
78387W        W21304   9.888   4.621   9.007 -0.2106  0.1791 -0.0088
78388W        W21305   9.782   5.500   5.587  0.1515 -0.0414 -0.2450
78389W        W21306   9.663   7.142   4.141 -0.0738 -0.2109 -0.1717
78390W        W21307   8.940   6.119   2.631  0.1323  0.1997  0.2721
78391W        W21308   8.563   3.560   6.898 -0.4572 -0.1276  0.2445
78392W        W21309   8.229   6.044   2.109 -0.0607  0.3099 -0.0915
78393W        W21310   8.452   7.042   3.572  0.0355 -0.0297  0.3655
78394W        W21311   9.624   3.470   6.998  0.2000 -0.0709 -0.0635
78395W        W21312   8.194   3.930   5.080 -0.1677 -0.1374 -0.3136
78396W        W21313  10.070   1.454   7.454  0.0075 -0.1211 -0.1900
78397W        W21314   7.469   9.338   4.265 -0.1561  0.0994 -0.1954
78398W        W21315   7.987   5.411   4.702  0.2427  0.3038 -0.1214
78399W        W21316   7.759   4.208   5.091  0.2337 -0.1851 -0.0999
78400W        W21317  10.105   4.224   7.361  0.1804  0.2248 -0.0261
78401W        W21318  12.375   5.791   4.360  0.1974  0.0010  0.0178
78402W        W21319   8.012   3.633   5.439 -0.0992  0.0668 -0.1098
78403W        W21320  10.604   4.081   5.739  0.4306 -0.1318 -0.0495
78404W        W21321   7.248   5.650   6.912  0.1489  0.2065 -0.0962
78405W        W21322   9.406   5.795   7.393  0.3164 -0.0592  0.2630
78406W        W21323  10.364   2.734   6.055  0.0578  0.0466 -0.1378
78407W        W21324   8.285   6.506   6.250  0.2908 -0.3217  0.0098
78408W        W21325  10.216   5.613   6.777  0.0393 -0.0777 -0.3994
78409W        W21326   8.661   4.370   6.724 -0.2754 -0.0383 -0.1650
78410W        W21327  11.374   4.703   6.569 -0.0036 -0.1252 -0.3527
78411W        W21328   8.063   3.403   4.859  0.0394  0.0382  0.1485
78412W        W21329   7.334   5.069   4.083  0.1994  0.3755 -0.2107
78413W        W21330  10.450   8.511   4.214  0.1484 -0.1916  0.0187
78414W        W21331   7.551   5.057   3.600  0.3798 -0.0871 -0.3282
78415W        W21332   8.420   6.199   4.560  0.0071  0.2326  0.0083
78416W        W21333   9.387   5.339   8.163 -0.2458  0.1566  0.1465
78417W        W21334   8.791   5.954   5.672 -0.0179 -0.0569 -0.0646
78418W        W21335   7.670   5.028   5.381 -0.2059  0.2890  0.0427
78419W        W21336   7.522   2.838   6.458  0.1480  0.0959  0.1550
78420W        W21337   9.065   4.617   6.426  0.1007  0.0429 -0.0058
78421W        W21338   8.360   5.061   6.070 -0.0712  0.1417 -0.0439
78422W        W21339   7.726   5.373   8.098 -0.4667  0.1731 -0.5039
78423W        W21340   7.744   5.607   7.620 -0.1105 -0.1718  0.0215
78424W        W21341   8.961   1.906   6.995  0.1163 -0.0870 -0.0298
78425W        W21342  11.991   8.196   5.399  0.1240 -0.4095 -0.0721
78426W        W21343   9.722   5.712   7.945 -0.1349  0.2413 -0.3144
78427W        W21344   9.054   4.390   2.339 -0.2530 -0.1707  0.1605
78428W        W21345   7.351   4.887   5.749 -0.1791 -0.2688 -0.2881
78429W        W21346   9.197   6.965   4.254 -0.2400  0.1219  0.0024
78430W        W21347   9.179   4.227   6.891  0.0197 -0.1243  0.0337
78431W        W21348   8.657   5.425   7.849  0.3019 -0.2201 -0.1241
78432W        W21349   8.985   6.578   2.411 -0.1576 -0.0351  0.0156
78433W        W21350   8.372   6.303   8.200  0.1407 -0.0864  0.1232
78434W        W21351  10.719   2.634   4.879  0.0349  0.1078  0.2902
78435W        W21352  10.570   7.879   3.219  0.0854  0.0372 -0.0002
78436W        W21353   7.230   3.202   4.871  0.1704  0.5002  0.2340
78437W        W21354  10.966   2.449   8.081  0.0530 -0.1437  0.0967
78438W        W21355   7.887   6.898   1.960 -0.3590  0.2038 -0.1423
78439W        W21356   8.614   4.255   7.750 -0.0589 -0.1890 -0.0574
78440W        W21357   7.125   3.641   6.563  0.2281 -0.1770  0.3325
78441W        W21358   9.432   4.754   4.358 -0.2668 -0.0611 -0.0913
78442W        W21359   8.054   5.068   6.728 -0.2067 -0.0584 -0.3039
78443W        W21360  10.550   6.305   6.570 -0.1042 -0.0113 -0.2170
78444W        W21361   7.321   5.037   7.781 -0.4446  0.0140 -0.0448
78445W        W21362   9.923   5.043   5.310 -0.0850  0.1410 -0.0370
78446W        W21363   7.793   4.723   2.069  0.0792  0.0577  0.0236
78447W        W21364   9.515   4.741   8.273 -0.0687  0.2154 -0.0426
78448W        W21365  11.941   5.611   5.365 -0.1505  0.1031  0.0534
78449W        W21366   7.599   7.361   5.154 -0.2472  0.2727  0.0121
78450W        W21367  10.248   3.909   7.737  0.1364 -0.3541  0.0250
78451W        W21368   9.049   6.070   6.498 -0.0627 -0.1690 -0.0910
78452W        W21369  10.268   5.321   4.588 -0.2936  0.2788 -0.0861
78453W        W21370   8.133   5.341   5.741 -0.1667  0.1400  0.3526
78454W        W21371   7.407   3.512   5.407  0.1062 -0.2127 -0.1574
78455W        W21372   9.806   4.486   7.644 -0.1830 -0.2343  0.4118
78456W        W21373  10.690   5.525   7.176  0.1162 -0.0335  0.5351
78457W        W21374   9.962   4.870   6.285 -0.0958  0.1260 -0.0072
78458W        W21375   9.827   3.929   6.355  0.4006 -0.0750 -0.1184
78459W        W21376  11.268   2.793   5.508  0.0831 -0.2400 -0.1538
78460W        W21377   7.577   4.466   6.136 -0.0617 -0.0645  0.3121
78461W        W21378   6.097   3.572   8.644  0.1678  0.1211 -0.1671
78462W        W21379   7.160   6.664   4.743 -0.2037  0.0554 -0.0373
78463W        W21380  10.532   4.464   4.726  0.0412 -0.4277 -0.0031
78464W        W21381  10.621   2.723   7.208  0.0379  0.0722  0.1700
78465W        W21382  10.364   2.339   5.207 -0.2442  0.0505 -0.1692
78466W        W21383   9.570   4.381   6.307 -0.0148  0.1865  0.1456
78467W        W21384   9.123   3.779   5.623 -0.0787 -0.0852 -0.0433
78468W        W21385  10.345   6.010   7.779  0.0889  0.0539 -0.1604
78469W        W21386   9.156   4.062   4.165  0.2478 -0.2379 -0.0488
78470W        W21387   9.285   3.805   7.190  0.1618  0.2677  0.1684
78471W        W21388   9.054   5.426   3.080  0.1660 -0.0026 -0.1991
78472W        W21389   7.948   4.237   6.433 -0.2768 -0.0301  0.0503
78473W        W21390   9.556   4.590   5.293  0.0109  0.1183  0.2049
78474W        W21391   5.412   4.300   4.381 -0.1157 -0.2772 -0.0321
78475W        W21392   9.076   8.807   6.051  0.1682  0.0727 -0.1978
78476W        W21393   7.345   3.663   4.642 -0.1517 -0.0800 -0.5288
78477W        W21394   7.033   4.608   2.661 -0.0436 -0.2301 -0.0353
78478W        W21395  10.050   6.126   4.913  0.1148 -0.0471  0.0283
78479W        W21396   9.896   4.637   7.186 -0.1018 -0.1839 -0.1402
78480W        W21397   8.473   3.711   4.770  0.1994 -0.0636 -0.0694
78481W        W21398  10.659   3.808   7.478 -0.0672 -0.0797 -0.0237
78482W        W21399   8.125   5.839   4.951  0.0184  0.0422 -0.1100
78483W        W21400   9.665   4.853   3.850 -0.0206 -0.0464  0.0760
78484W        W21401   7.780   4.986   4.861  0.1090  0.0943  0.2518
78485W        W21402   6.977   4.916   7.334  0.1620  0.0673  0.0108
78486W        W21403   8.542   6.047   5.119 -0.0852  0.1591  0.1483
78487W        W21404   9.444   4.208   8.082 -0.1303  0.2283  0.2730
78488W        W21405  11.133   5.176   6.320 -0.0039 -0.0978 -0.0629
78489W        W21406   8.232   5.342   7.137 -0.1781  0.2094 -0.2188
78490W        W21407  10.393   6.645   5.700 -0.0551  0.1126 -0.2831
78491W        W21408   8.689   5.812   7.288  0.2407  0.3258 -0.1314
78492W        W21409   6.956   4.087   6.733  0.1666  0.1337  0.0001
78493W        W21410  10.281   5.480   5.617  0.3018 -0.1583 -0.0820
78494W        W21411  10.486   4.616   5.763  0.2867  0.0651 -0.0861
78495W        W21412   9.799   3.384   6.054 -0.0452  0.1404  0.0383
78496W        W21413   5.440   3.336  10.037  0.0405  0.0949  0.4256
78497W        W21414   9.966   4.880   8.506 -0.0949  0.0791  0.1439
78498W        W21415   9.531   3.794   5.953  0.2473  0.1164 -0.4151
78499W        W21416   8.295   3.993   6.872 -0.1422  0.0306 -0.3371
78500W        W21417   7.535   5.362   3.073 -0.0578 -0.0033 -0.4216
78501W        W21418   7.739   5.757   8.595 -0.0328 -0.0796  0.0418
78502W        W21419   6.876   4.691   5.956 -0.1944 -0.3248 -0.2265
78503W        W21420   6.936   6.763   6.235  0.2349  0.0974 -0.0599
78504W        W21421   9.343   6.502   4.331 -0.1769 -0.0054  0.1562
78505W        W21422  10.054   4.523   3.928  0.1798 -0.0879  0.0957
78506W        W21423   8.747   8.214   4.991 -0.0749  0.0016  0.1020
78507W        W21424   8.660   4.417   3.472 -0.1760 -0.1151 -0.3980
78508W        W21425   6.985   7.543   5.116  0.0000  0.0408 -0.0777
78509W        W21426   7.070   4.744   3.545  0.2343  0.2008  0.1803
78510W        W21427   8.845   5.994   4.750  0.3244 -0.1081 -0.2416
78511W        W21428   6.939   7.997   5.409  0.1480 -0.0721  0.2073
78512W        W21429  11.261   6.549   6.012  0.3324  0.2275 -0.0500
78513W        W21430   9.655   2.647   4.621 -0.1584 -0.0614  0.0757
78514W        W21431  10.699   4.926   4.938  0.2110 -0.0216  0.0798
78515W        W21432   9.137   4.687   4.961  0.0410 -0.1587  0.5854
78516W        W21433   9.554   5.064   5.634 -0.1033  0.0696  0.4250
78517W        W21434   7.219   2.726   6.034  0.1524 -0.1334 -0.0462
78518W        W21435   8.671   3.578   5.725 -0.0973 -0.0697 -0.0203
78519W        W21436   9.346   6.286   7.655 -0.0867 -0.0281 -0.0451
78520W        W21437  10.536   4.177   7.091  0.0162 -0.2086  0.0563
78521W        W21438   7.172   7.262   5.498  0.0310 -0.0584 -0.0318
78522W        W21439   9.087   5.154   5.873 -0.1354  0.3089  0.0648
78523W        W21440   8.426   5.159   4.729 -0.0171 -0.2957 -0.0740
78524W        W21441   9.357   3.703   7.935 -0.3456 -0.0100 -0.1536
78525W        W21442  10.005   1.442   5.770  0.1640  0.2425 -0.2875
78526W        W21443  10.862   6.819   0.950  0.1036 -0.1379 -0.1113
78527W        W21444   8.723   4.563   5.260 -0.0807 -0.1861 -0.3503
78528W        W21445   7.423   7.841   4.979  0.2710 -0.2747 -0.1655
78529W        W21446   9.375   4.730   7.372 -0.1538 -0.0618  0.1374
78530W        W21447   8.796   7.142   3.943  0.2122  0.0604 -0.2673
78531W        W21448   7.001   2.840   3.955  0.0635 -0.0488 -0.0556
78532W        W21449   6.677   6.277   7.374  0.2324  0.3119 -0.0280
78533W        W21450   8.729   3.197   7.873  0.1020 -0.1537  0.0732
78534W        W21451   8.307   3.998   2.956  0.0026 -0.0003  0.0265
78535W        W21452  10.794   6.322   5.843 -0.0315 -0.1574 -0.1627
78536W        W21453   9.271   3.993   6.309  0.0403  0.0793 -0.2694
78537W        W21454   7.435   4.060   6.419 -0.1060 -0.1257  0.2409
78538W        W21455   8.344   4.404   4.924 -0.0357 -0.2252  0.2444
78539W        W21456  11.442   5.542   6.375  0.6854 -0.1358  0.0077
78540W        W21457  10.256   4.898   2.365 -0.2108  0.2067  0.0340
78541W        W21458   9.867   6.005   7.521 -0.3461  0.0415  0.0908
78542W        W21459   7.075   3.803   4.210 -0.2799  0.0439  0.0025
78543W        W21460  10.699   5.424   4.766 -0.1972  0.0218 -0.0900
78544W        W21461   8.014   4.223   4.197 -0.1467 -0.3383 -0.1180
78545W        W21462   8.205   4.575   6.788  0.1816  0.0883 -0.0624
78546W        W21463   9.338   5.480   6.133  0.0666 -0.0979 -0.2586
78547W        W21464   8.730   3.194   6.165  0.1798  0.1842  0.3592
78548W        W21465   8.736   6.131   3.834 -0.2408 -0.1389  0.0484
78549W        W21466  10.705   5.016   7.530  0.0203 -0.1338 -0.1801
78550W        W21467   8.711   6.744   1.508  0.2257 -0.1448 -0.2788
78551W        W21468   9.005   5.743   5.226  0.2764 -0.1729  0.0015
78552W        W21469  10.783   6.895   5.146  0.1688  0.1543  0.0005
78553W        W21470   7.373   5.940   5.636  0.0376  0.1246  0.0720
78554W        W21471   9.160   5.662   5.727 -0.2631  0.1781  0.1491
78555W        W21472  11.238   5.288   5.839  0.2452  0.0804  0.0659
78556W        W21473   9.151   6.537   3.844 -0.3505 -0.4762 -0.3503
78557W        W21474   8.299   4.080   3.480 -0.1669 -0.0431  0.0402
78558W        W21475   8.059   7.763   5.075  0.0165 -0.2144 -0.1677
78559W        W21476  10.675   5.216   6.591 -0.0151  0.2588 -0.3033
78560W        W21477   9.941   2.558   7.699  0.0618 -0.0939  0.0899
78561W        W21478   9.636   6.698   3.867  0.2402 -0.2107  0.0657
78562W        W21479   9.539   2.561   6.371  0.0351 -0.0097  0.0063
78563W        W21480   8.266   6.035   8.615  0.1828 -0.1525 -0.0406
78564W        W21481   8.983   7.704   5.504  0.2608 -0.2603 -0.0431
78565W        W21482   8.749   4.902   3.052  0.1195 -0.1104 -0.0397
78566W        W21483   8.707   6.248   6.978 -0.2858  0.1286  0.3174
78567W        W21484   7.284   4.105   4.989  0.1398  0.2554 -0.3909
78568W        W21485   8.778   6.763   5.156 -0.0321  0.1519  0.1833
78569W        W21486   8.134   4.427   6.011  0.0163 -0.1451 -0.1593
78570W        W21487  10.704   3.475   6.589  0.0069  0.0777  0.1951
78571W        W21488  12.541   5.435   5.646 -0.1069 -0.0001 -0.1663
78572W        W21489  10.122   2.600   7.244 -0.0536  0.0968  0.1746
78573W        W21490  11.828   3.209   5.927  0.4996 -0.2754 -0.0511
78574W        W21491   9.317   2.800   6.885 -0.2202  0.1221  0.2043
78575W        W21492   7.803   3.926   6.827  0.0355  0.2584  0.2408
78576W        W21493   8.688   3.771   4.280  0.3305  0.0527  0.0076
78577W        W21494   7.395   4.607   5.043 -0.3082 -0.1550  0.0389
78578W        W21495   6.854   3.417   6.191  0.1324 -0.5552 -0.2375
78579W        W21496   9.405   3.133   7.780  0.1739  0.0295 -0.1372
78580W        W21497   7.994   3.679   6.235 -0.3219  0.1002  0.0206
78581W        W21498   6.372   4.886   6.037 -0.2941  0.0279 -0.1629
78582W        W21499   6.900   3.411   3.852  0.1181  0.0381  0.0376
78583W        W21500  11.264   6.273   4.117  0.1068 -0.3561  0.1554
78584W        W21501   8.619   1.914   6.469 -0.1676  0.3707 -0.1363
78585W        W21502   7.138   4.570   4.565  0.0337 -0.0680  0.1945
78586W        W21503   9.106   6.938   4.805  0.0750  0.2234 -0.1129
78587W        W21504   8.864   3.863   6.645  0.0599  0.0207  0.1989
78588W        W21505   7.183   4.963   5.262 -0.2332 -0.1502  0.0642
78589W        W21506  10.957   5.613   6.206 -0.0032 -0.1613  0.0776
78590W        W21507   8.483   5.670   4.653 -0.0631  0.2938  0.2894
78591W        W21508   9.772   3.973   7.639 -0.3878  0.2452 -0.1416
78592W        W21509   9.312   3.536   6.600 -0.2199  0.0280  0.1252
78593W        W21510   7.255   3.197   5.898  0.1558 -0.0383  0.0487
78594W        W21511   9.084   6.050   9.020  0.0058 -0.3269 -0.2106
78595W        W21512   8.748   4.998   5.051  0.0043 -0.1176 -0.1783
78596W        W21513  10.523   8.065   4.568 -0.3275 -0.2598 -0.1553
78597W        W21514   7.959   4.834   7.144 -0.1937  0.0056  0.4642
78598W        W21515   8.537   4.923   6.615  0.1257 -0.3247 -0.3091
78599W        W21516   6.319   2.376   5.100  0.3921 -0.1964 -0.1362
78600W        W21517   9.861   5.675   4.403  0.0850  0.0887 -0.1200
78601W        W21518   7.878   6.091   7.539  0.0368 -0.0648 -0.0147
78602W        W21519  11.670   4.875   3.571  0.1385 -0.0550  0.3789
78603W        W21520  11.240   4.147   7.647  0.2055  0.2049 -0.2385
78604W        W21521  10.014   4.402   4.515  0.2836  0.1916 -0.1030
78605W        W21522   6.967   3.452   7.553  0.0284  0.0464 -0.0656
78606W        W21523   9.608   6.236   6.297 -0.2830  0.1897  0.0547
78607W        W21524   8.545   6.407   5.441  0.1465 -0.1215 -0.0665
78608W        W21525   8.802   2.636   7.093  0.0734 -0.1491  0.1654
78609W        W21526  10.221   3.070   5.670  0.0243 -0.2111 -0.3090
78610W        W21527   8.554   6.077   6.358  0.1720  0.0506 -0.3148
78611W        W21528   7.247   6.096   6.647 -0.0387  0.2946  0.1309
78612W        W21529   8.968   4.578   4.111 -0.1929  0.1556 -0.1939
78613W        W21530   9.173   5.314   7.234 -0.0818  0.1742 -0.0053
78614W        W21531   8.479   6.727   4.591 -0.2479 -0.0482 -0.0199
78615W        W21532  10.227   5.231   7.114  0.0973  0.1470  0.0903
78616W        W21533   7.717   3.204   3.901 -0.4135 -0.2501 -0.1897
78617W        W21534  11.119   5.462   4.450 -0.0571  0.2267  0.0640
78618W        W21535   8.214   6.702   5.789  0.0737 -0.1959 -0.0464
78619W        W21536  10.617   7.035   9.087 -0.2949 -0.0933 -0.0366
78620W        W21537   7.793   4.022   5.861 -0.1541 -0.1226  0.0739
78621W        W21538  10.922   4.818   5.931  0.2588 -0.0788  0.0221
78622W        W21539   6.009   4.596   5.216  0.2497  0.1177  0.0614
78623W        W21540   7.793   4.678   3.296 -0.1706  0.1656  0.1942
78624W        W21541   8.951   4.619   5.927  0.1603 -0.0950  0.0825
78625W        W21542  10.536   4.064   4.431 -0.0334  0.3270  0.0645
78626W        W21543   8.012   3.097   5.504 -0.0206  0.0594  0.1373
78627W        W21544  10.898   4.086   6.719 -0.1889  0.1025 -0.0681
78628W        W21545   7.385   8.282   5.312 -0.1186 -0.0275  0.2843
78629W        W21546  10.345   6.876   4.433 -0.1548  0.1932 -0.0496
78630W        W21547  10.642   8.252   8.436  0.1953 -0.1589  0.0748
78631W        W21548   7.992   5.794   6.711  0.0951  0.0767  0.0431
78632W        W21549   9.654   3.172   6.518 -0.1614  0.0149 -0.3279
78633W        W21550  11.152   5.435   9.079  0.1808  0.1007  0.4605
78634W        W21551   6.877   2.856   8.582  0.0338 -0.2324 -0.1619
78635W        W21552   9.308   7.627   8.935  0.1265  0.4449  0.1124
78636W        W21553  10.337   6.006   8.637 -0.0287 -0.2265  0.1439
78637W        W21554  11.940   6.250   9.954  0.2087 -0.0793 -0.1649
78638W        W21555   8.963   5.842   7.711  0.2153 -0.0465 -0.1966
78639W        W21556   9.776   5.765   9.872  0.0261 -0.1698 -0.0209
78640W        W21557   7.498   4.244   7.347 -0.0597 -0.0022  0.2357
78641W        W21558   7.719   4.894   9.727 -0.0413  0.0189  0.0560
78642W        W21559  10.555   4.079   9.135 -0.1557  0.1593  0.0900
78643W        W21560   8.018   4.741  10.081 -0.0585  0.0934 -0.0950
78644W        W21561   7.048   4.247   9.687 -0.1842  0.0525 -0.2916
78645W        W21562   7.629   3.398   6.958  0.0583 -0.0458 -0.0160
78646W        W21563  11.492   6.645   9.556  0.3461  0.0184  0.2770
78647W        W21564  11.799   2.642  10.445  0.1820  0.2334  0.1426
78648W        W21565  10.658   7.529   9.069  0.1580  0.4358  0.1489
78649W        W21566   7.623   5.253   6.506 -0.0942 -0.1367 -0.3278
78650W        W21567   8.235   4.254  10.712  0.0596 -0.1180 -0.0213
78651W        W21568  12.168   3.994   9.551  0.2640 -0.3909 -0.0356
78652W        W21569  11.390   4.342  10.162  0.1362  0.0324  0.3303
78653W        W21570  15.110   4.468   9.571 -0.0321 -0.1575 -0.2480
78654W        W21571   8.312   7.433   8.777  0.2057 -0.2615  0.1400
78655W        W21572   7.565   5.537  10.358 -0.2385 -0.0044  0.1444
78656W        W21573   7.936   4.961   8.934  0.3149 -0.0976 -0.0187
78657W        W21574   9.909   6.096   7.008  0.1331 -0.1269  0.2771
78658W        W21575   9.341   6.698   7.265  0.0497 -0.0825 -0.0365
78659W        W21576  12.209   6.084   8.526 -0.2474  0.1266 -0.0088
78660W        W21577   7.309   3.097   7.575  0.0568  0.3057  0.0990
78661W        W21578   6.498   3.369   9.513 -0.0734 -0.4909 -0.0072
78662W        W21579  10.028   9.414   9.333 -0.2779  0.0313 -0.0879
78663W        W21580   7.323   7.389   7.799 -0.3362  0.0810  0.0718
78664W        W21581   8.810   6.272   7.954  0.0427 -0.1357  0.0048
78665W        W21582   9.666   5.262  10.107 -0.2574 -0.0854 -0.0048
78666W        W21583   7.166   6.924   7.870  0.1542 -0.0728 -0.0954
78667W        W21584  11.181   4.670   7.484  0.1596  0.2317 -0.1611
78668W        W21585   8.264   5.973   7.111  0.0362  0.1587 -0.2577
78669W        W21586  10.211   4.398   8.481 -0.0266 -0.3265 -0.0558
78670W        W21587   5.734   4.411  10.212  0.4743 -0.1201  0.2144
78671W        W21588   7.743   7.361   9.379 -0.4052 -0.2232  0.0379
78672W        W21589   6.016   4.410  11.390 -0.1828  0.2059  0.2656
78673W        W21590   8.698   4.666   8.061 -0.1120  0.0558 -0.1437
78674W        W21591  11.029   4.426  10.539  0.1719  0.0788 -0.3235
78675W        W21592   9.232   6.460   8.121  0.2312 -0.0764 -0.0727
78676W        W21593   9.442   4.542   9.968  0.1438 -0.0431 -0.2694
78677W        W21594   8.846   5.635   6.140  0.0557  0.0544 -0.1180
78678W        W21595  10.549   6.527   8.115  0.1682 -0.0504  0.0624
78679W        W21596  11.029   6.834   7.442 -0.1548  0.2740 -0.0208
78680W        W21597  10.447   5.269   9.406  0.1119 -0.0680  0.3334
78681W        W21598   8.300   2.902   5.946 -0.1412 -0.1609  0.2339
78682W        W21599  10.744   3.301   9.851 -0.2431 -0.0784 -0.1322
78683W        W21600   9.952   6.493   9.161 -0.0438 -0.0538 -0.1644
78684W        W21601  11.665   3.906   8.922 -0.0089  0.1113 -0.0825
78685W        W21602  10.142   3.686   7.284  0.3355  0.0738  0.0460
78686W        W21603   9.442   3.125   9.330 -0.0877 -0.0124 -0.0386
78687W        W21604  10.831   4.108  10.032  0.0326  0.4894  0.1683
78688W        W21605   7.939   8.825   9.133 -0.1226 -0.1235  0.2782
78689W        W21606   7.006   3.936   7.926 -0.1127 -0.0481  0.2818
78690W        W21607  10.189   6.505   7.774  0.0081  0.0507 -0.0256
78691W        W21608   8.813   4.476   9.156 -0.0651 -0.2219  0.3526
78692W        W21609   8.254   6.425   9.141 -0.0699  0.0199  0.1806
78693W        W21610   7.987   6.709   8.413 -0.1177 -0.0867 -0.1035
78694W        W21611   8.827   4.816   7.512  0.2086 -0.0078 -0.2141
78695W        W21612   6.998   3.728   8.440 -0.3074 -0.0036  0.3428
78696W        W21613   6.672   3.401   8.642  0.0486 -0.0872 -0.3018
78697W        W21614  11.128   7.954   9.681  0.1586  0.1304  0.0718
78698W        W21615   9.852   5.400   7.447 -0.1785  0.0636 -0.0786
78699W        W21616  12.208   4.217  10.078  0.0562 -0.2305 -0.1988
78700W        W21617   8.254   4.158   9.349 -0.1906 -0.1453  0.0962
78701W        W21618  11.511   6.752   8.380  0.0511  0.1013 -0.2968
78702W        W21619  10.776   6.176   8.805 -0.2890 -0.0932  0.3569
78703W        W21620   9.183   5.105   6.556  0.1786  0.0506  0.0175
78704W        W21621  11.661   4.138   9.775 -0.1435  0.1564 -0.1908
78705W        W21622   9.133   3.306  11.184 -0.0406 -0.2320  0.2491
78706W        W21623   6.876   5.372   8.448  0.0955  0.3195  0.0747
78707W        W21624   7.869   3.747   7.948 -0.1542  0.0423 -0.0374
78708W        W21625  11.303   3.892   9.314 -0.3589  0.0762  0.2968
78709W        W21626   8.469   2.378   8.929  0.3768 -0.0835 -0.1479
78710W        W21627   7.755   4.438   8.574 -0.2108 -0.0424 -0.2027
78711W        W21628   9.587   7.457   7.845 -0.2076 -0.1698  0.2529
78712W        W21629  12.571   8.744   9.107 -0.1811  0.0733  0.1475
78713W        W21630  11.530   7.143   9.461 -0.1352  0.3309 -0.0763
78714W        W21631  10.229   3.713  11.016 -0.1572  0.0004 -0.1067
78715W        W21632   8.455   3.004   8.340 -0.2544  0.0227  0.2371
78716W        W21633   8.913   8.008   9.360 -0.1286 -0.0469 -0.2795
78717W        W21634  13.337   8.286   9.332 -0.1666 -0.3758 -0.2118
78718W        W21635   7.172   4.668   6.746 -0.1997 -0.1020 -0.3061
78719W        W21636   9.627   8.554   9.269  0.1362  0.0889  0.1345
78720W        W21637  10.243   5.671   8.150 -0.1164  0.1085  0.1461
78721W        W21638  11.969   6.056   8.990  0.3961 -0.0379  0.0951
78722W        W21639  11.275   5.795   8.284  0.2092 -0.0386  0.0288
78723W        W21640   7.773   3.255   7.565  0.1870  0.4179 -0.1184
78724W        W21641  12.288   9.908  10.276 -0.2449  0.1223  0.0883
78725W        W21642   8.584   5.889   8.120 -0.0868 -0.0803  0.0514
78726W        W21643   6.123   4.015   8.969  0.0236  0.1248 -0.2902
78727W        W21644   8.916   8.005   8.865 -0.1888  0.1951  0.4349
78728W        W21645  10.735   4.268   9.566  0.0003 -0.2356  0.4618
78729W        W21646   7.870   3.564   8.682 -0.0543  0.3563  0.1117
78730W        W21647   8.282   3.783   8.531 -0.0807  0.0218  0.0981
78731W        W21648  10.506   4.144   8.139 -0.0759 -0.5228 -0.0316
78732W        W21649   9.366   6.248   7.185  0.0564 -0.0906 -0.0316
78733W        W21650   8.093   4.048  11.165  0.0206 -0.0608  0.0137
78734W        W21651   9.897   1.997   6.617 -0.4240 -0.2031  0.1243
78735W        W21652  11.188   7.294   8.211  0.2389  0.0562  0.0090
78736W        W21653   9.738   6.844   8.847  0.0321 -0.2701  0.1582
78737W        W21654   9.043   2.829   7.940  0.1547 -0.0761  0.0074
78738W        W21655  10.565   5.975   6.947 -0.0675  0.1545 -0.1669
78739W        W21656   9.931   6.922   9.484 -0.1494  0.1540  0.0912
78740W        W21657  10.092   7.727   8.903  0.0658  0.3293  0.2572
78741W        W21658   9.487   2.285  11.052  0.2558 -0.0485 -0.0871
78742W        W21659   7.403   5.361   8.443  0.1215  0.1577  0.4523
78743W        W21660   7.446   5.247  11.002  0.1254  0.0313 -0.2107
78744W        W21661   7.269   8.325   7.055 -0.1588  0.1259  0.0966
78745W        W21662  12.504   6.368   9.142  0.0001  0.5848  0.1365
78746W        W21663   9.064   4.268  10.873 -0.1376 -0.0941  0.1483
78747W        W21664  10.313   5.468   7.645 -0.1222  0.3493  0.0831
78748W        W21665  10.366   6.599   8.861 -0.0640 -0.1473 -0.1222
78749W        W21666   6.851   4.208   8.403 -0.2264 -0.1849  0.1831
78750W        W21667   9.076   2.464  10.597  0.1487  0.3745  0.2427
78751W        W21668   6.201   4.338  10.394 -0.1310  0.0021  0.0251
78752W        W21669   9.494   4.045   9.911  0.1714  0.1177  0.1715
78753W        W21670   8.704   3.485   8.283  0.0297  0.1955 -0.2723
78754W        W21671   8.721   4.688   8.684 -0.1466  0.0481 -0.0306
78755W        W21672   9.628   4.961   7.771 -0.0271  0.1204  0.1780
78756W        W21673   8.142   4.658  11.162  0.0870 -0.0222 -0.1024
78757W        W21674   9.573   2.600  10.508 -0.2827  0.1770 -0.1978
78758W        W21675   8.351   6.094   7.734 -0.0026 -0.0396  0.2008
78759W        W21676  12.079   6.641   9.151  0.0037 -0.0197 -0.1442
78760W        W21677  10.136   5.730   8.975 -0.1257  0.1076  0.0575
78761W        W21678  10.563   4.677  10.403  0.0364  0.0267  0.0366
78762W        W21679   8.310   8.575   9.464  0.0439  0.2936 -0.1439
78763W        W21680   7.831   6.363   8.923 -0.2337  0.1475  0.2116
78764W        W21681   7.980   4.595   9.343 -0.2453  0.0662 -0.1805
78765W        W21682   9.646   3.686   9.205 -0.2758  0.1765 -0.0526
78766W        W21683   8.664   5.328   7.412 -0.0096 -0.0501  0.3467
78767W        W21684   9.071   6.280   9.486 -0.0353 -0.0173 -0.5440
78768W        W21685   8.920   4.379   9.696  0.2697  0.1634 -0.0407
78769W        W21686   7.463   6.303  10.203 -0.1707 -0.1541  0.3689
78770W        W21687   9.031   0.438   7.157  0.2476  0.1143  0.2103
78771W        W21688   8.517   4.937   7.136  0.3833 -0.3342 -0.3262
78772W        W21689  12.431   3.753   9.877 -0.0383  0.1304 -0.0497
78773W        W21690   7.556   1.638   7.757 -0.0343  0.3417  0.3288
78774W        W21691   7.354   6.885   7.043 -0.0739 -0.2334 -0.1160
78775W        W21692   6.074  10.176   8.590 -0.0690 -0.2610 -0.3011
78776W        W21693   8.053   5.728   8.142 -0.0105  0.1352 -0.1193
78777W        W21694   8.417   5.571   8.513 -0.2045  0.0068  0.1802
78778W        W21695  14.976   5.942   9.532 -0.0132  0.0888  0.3240
78779W        W21696   9.919   4.356   9.872 -0.0075 -0.0560 -0.1687
78780W        W21697   7.976   3.335   9.658 -0.1007  0.0783 -0.2552
78781W        W21698   9.194   4.342  10.305  0.2329  0.1300 -0.0468
78782W        W21699  10.034   4.142  10.729 -0.0187 -0.1286  0.1549
78783W        W21700  11.383   3.392   8.045  0.2491  0.2027 -0.1003
78784W        W21701   9.611   4.174   9.485 -0.0954 -0.3664  0.2119
78785W        W21702  10.293   6.075   5.625  0.1769 -0.1880 -0.1468
78786W        W21703   8.610   5.089   8.265  0.0204 -0.0259 -0.2325
78787W        W21704   5.799   3.940  10.366  0.0689 -0.0092  0.0539
78788W        W21705   5.914   6.061   9.890 -0.1271  0.1300 -0.2166
78789W        W21706   8.133   2.353  10.696 -0.1288 -0.0940  0.0338
78790W        W21707   7.534  10.309   9.555 -0.2114 -0.1304 -0.1254
78791W        W21708   8.613   7.564   7.933  0.2017  0.0970 -0.0969
78792W        W21709   8.255   6.995  10.073 -0.0349  0.1082 -0.0414
78793W        W21710  10.437   5.044   8.416  0.1013 -0.2217 -0.1129
78794W        W21711   8.323   5.730   5.986 -0.0972  0.2247 -0.1119
78795W        W21712  10.528   3.791   8.631  0.3706  0.4641 -0.0605
78796W        W21713  10.896   5.791   9.709 -0.2868  0.1378 -0.0634
78797W        W21714   9.935   4.872   9.959  0.0280  0.1070  0.0215
78798W        W21715   9.754   6.246   7.913 -0.2661 -0.0124 -0.0868
78799W        W21716   8.391   3.286   8.726  0.1135  0.2204 -0.0478
78800W        W21717   8.411   3.021   6.961 -0.1564  0.2971 -0.0668
78801W        W21718  13.514   4.611   9.969 -0.1139 -0.3588 -0.0159
78802W        W21719   9.986   4.172   8.071  0.1621  0.0353 -0.1774
78803W        W21720  10.163   7.476   7.730  0.0289  0.0224  0.2308
78804W        W21721  12.529   2.449   9.256 -0.1064 -0.0576 -0.1995
78805W        W21722   9.549   7.199   9.300 -0.1087  0.0209 -0.2792
78806W        W21723   8.402   5.123   8.803  0.4382  0.1387  0.0902
78807W        W21724   9.836   5.385   9.175 -0.1409 -0.2558  0.1905
78808W        W21725  10.642   5.671   9.129  0.1295  0.1121  0.2742
78809W        W21726  10.852   6.757   8.548 -0.1010 -0.0341  0.0291
78810W        W21727   8.397   3.578   9.479 -0.3833 -0.3782 -0.0269
78811W        W21728   8.983   8.688   8.248  0.1553  0.0959 -0.1116
78812W        W21729  10.617   3.267   8.382 -0.1844 -0.0486  0.0888
78813W        W21730   8.643   5.399   9.201 -0.0929 -0.1468  0.0362
78814W        W21731   9.664   4.186   7.179  0.0513 -0.2177  0.1221
78815W        W21732   7.833   3.993   8.429 -0.1224 -0.0049 -0.1562
78816W        W21733   8.514   5.468   9.707  0.0587 -0.0489  0.1984
78817W        W21734   7.635   3.135   8.078 -0.1432  0.0452  0.1120
78818W        W21735   7.600   6.582   7.527  0.1464 -0.2861  0.1926
78819W        W21736  10.246   6.362   9.809 -0.0609  0.0758  0.1811
78820W        W21737   9.919   3.662   8.084  0.0697 -0.1228 -0.0288
78821W        W21738   7.214   5.565   7.841 -0.0753 -0.1599  0.0732
78822W        W21739   6.463   4.837   7.508 -0.0224  0.1217  0.0012
78823W        W21740   7.238   4.458   7.662  0.1288 -0.0285  0.2065
78824W        W21741  11.626   7.678   9.474  0.0097  0.3148  0.0495
78825W        W21742   9.878   3.085   7.892 -0.0027 -0.0397 -0.0315
78826W        W21743   7.224   6.105   8.449 -0.1927 -0.0067 -0.0655
78827W        W21744   9.400   5.830   9.328  0.0264 -0.2090 -0.2629
78828W        W21745  11.483   6.191   9.709  0.1691  0.1605  0.1295
78829W        W21746   8.253   5.665   7.492  0.1270 -0.3791  0.0765
78830W        W21747   9.760   4.709   9.513  0.0639  0.1743 -0.0680
78831W        W21748  11.095   3.561   7.514  0.0305  0.0470  0.1043
78832W        W21749   9.109   7.580   6.893  0.0971 -0.1759 -0.2393
78833W        W21750  12.674   5.771  10.125 -0.0059 -0.2817  0.2653
78834W        W21751  10.584   4.630   8.193  0.0749 -0.1748 -0.1669
78835W        W21752   7.720   5.858   9.904 -0.0826  0.0150 -0.0185
78836W        W21753  10.354   6.131   9.102 -0.3785 -0.0738 -0.2383
78837W        W21754   7.742   2.126   7.975  0.0394  0.0996  0.0701
78838W        W21755   6.750   7.014   9.320 -0.0063  0.0234 -0.1269
78839W        W21756   8.784   6.509   9.021 -0.0133  0.0663  0.0631
78840W        W21757   9.220   7.552   9.406  0.3866 -0.0080 -0.1997
78841W        W21758   9.634   5.305   8.689  0.0177 -0.1991  0.0634
78842W        W21759  10.098   4.951   7.518 -0.1906  0.0348 -0.1869
78843W        W21760   7.438   4.585   9.550 -0.3005  0.0561  0.0215
78844W        W21761   9.086   4.253   8.853  0.0489 -0.1637 -0.1920
78845W        W21762   9.720   5.879   8.407 -0.0098  0.1113 -0.2358
78846W        W21763   6.391   6.296   9.060  0.2649 -0.0587 -0.1069
78847W        W21764  11.335   6.465   7.753  0.1719 -0.1842 -0.0174
78848W        W21765   8.274   4.374   8.224 -0.1477  0.0336  0.1685
78849W        W21766   9.832   5.195   6.673  0.2272  0.0624 -0.1446
78850W        W21767  11.798   4.624  10.029 -0.0098 -0.1104 -0.0761
78851W        W21768  10.420   5.481   8.706 -0.0319  0.1276  0.0078
78852W        W21769  11.688   4.724   8.887 -0.1321 -0.2350  0.1461
78853W        W21770   7.989   4.298   7.803  0.2922  0.1897  0.2087
78854W        W21771   8.692   5.742   6.749 -0.0229  0.0072 -0.0900
78855W        W21772   9.279   3.513   8.461 -0.4188  0.1836 -0.2765
78856W        W21773   8.947   5.033   8.983 -0.3559 -0.1728 -0.0820
78857W        W21774  12.316   3.329  10.075  0.2883 -0.0795 -0.3352
78858W        W21775   9.349   4.683   8.791 -0.1223  0.1036 -0.0868
78859W        W21776   9.185   5.024  10.281 -0.1286 -0.1464  0.2709
78860W        W21777   6.989   5.175  10.007 -0.1709  0.2555 -0.0978
78861W        W21778   8.771   7.147   8.093 -0.0559  0.0772  0.1536
78862W        W21779  10.680   8.590   9.084  0.0414 -0.2571  0.1791
78863W        W21780   7.475   4.723   7.170 -0.2030  0.1344 -0.5439
78864W        W21781  12.327   5.951   9.891  0.1545 -0.0629  0.2913
78865W        W21782   8.699   4.473  10.534  0.0261 -0.0573  0.1158
78866W        W21783   8.116   5.148   7.826 -0.1414 -0.3150 -0.2600
78867W        W21784  12.594   3.856   9.373 -0.0468  0.1512 -0.0355
78868W        W21785  10.769   9.053   8.406 -0.1471 -0.0527 -0.1478
78869W        W21786   6.549   3.901   8.530 -0.2529 -0.0102  0.1628
78870W        W21787   8.567   3.214   9.153 -0.0099  0.0295 -0.1789
78871W        W21788   9.109   5.237   7.721 -0.1235 -0.1247 -0.0868
78872W        W21789   8.603   2.680  10.923  0.2846 -0.0974 -0.0982
78873W        W21790   9.090   4.475   8.376  0.0087 -0.2391  0.1606
78874W        W21791   7.391   5.872   9.511  0.0802 -0.0185  0.0800
78875W        W21792  10.920   5.346  10.119  0.0033 -0.0198  0.0387
78876W        W21793   7.370   4.109   8.382 -0.1228  0.2765  0.2336
78877W        W21794  11.438   5.823   6.815  0.0076  0.1590 -0.1975
78878W        W21795  10.454   5.607   9.947  0.3108  0.0928 -0.0095
78879W        W21796   7.632   7.905   5.985  0.0589 -0.0278  0.0615
78880W        W21797  10.915   4.512   9.072 -0.0359 -0.0905  0.1598
78881W        W21798   6.594   8.596  10.083  0.0929  0.1181  0.4090
78882W        W21799   9.596   5.171  10.583 -0.0429  0.0851  0.0655
78883W        W21800  12.479   8.864  10.142  0.5307  0.0139 -0.1832
78884W        W21801  10.084   5.372  10.523 -0.0465 -0.0784  0.0160
78885W        W21802   8.413   3.829   9.018 -0.0396 -0.1164 -0.1065
78886W        W21803   9.106   5.636  10.372  0.0407  0.1797  0.3527
78887W        W21804   9.065   7.427   8.365 -0.3525  0.0168  0.1228
78888W        W21805  13.251   3.728   9.223 -0.1007 -0.0643 -0.1755
78889W        W21806   9.762   5.634   6.403  0.0180 -0.0607 -0.0757
78890W        W21807  10.081   8.576   8.394  0.0096 -0.0089  0.1199
78891W        W21808   8.527   7.083   9.091 -0.1434  0.1850  0.1117
78892W        W21809   9.494   5.361   9.578 -0.0286 -0.0788  0.2057
78893W        W21810   7.412   6.781   8.421  0.1143  0.1547 -0.1730
78894W        W21811  12.667   9.800   9.349 -0.1235  0.1595 -0.1411
78895W        W21812   7.024   5.601  10.253 -0.3648 -0.2634  0.2006
78896W        W21813   8.954   5.552   8.202  0.0566 -0.1954  0.0536
78897W        W21814   7.903   3.780   9.181  0.1329  0.0875  0.0147
78898W        W21815  11.872   3.965  10.406  0.2526 -0.1706 -0.0732
78899W        W21816  10.408   3.065   7.976 -0.0396 -0.1513  0.0012
78900W        W21817  11.192   4.960   9.762  0.0044  0.2122  0.0247
78901W        W21818   6.798   5.641   8.058 -0.2763  0.1612  0.4516
78902W        W21819   7.793   4.688   7.577 -0.2037 -0.0321  0.4121
78903W        W21820  11.980   4.084  11.084 -0.0447  0.0787  0.0053
78904W        W21821   9.253   5.669   8.591 -0.1555 -0.1086 -0.1035
78905W        W21822   7.205   3.923   9.329  0.0085 -0.3115  0.0038
78906W        W21823   9.906   5.258   8.064  0.0528  0.0573  0.2098
78907W        W21824   7.421   4.043  10.518 -0.0803 -0.1431 -0.1527
78908W        W21825   7.400   3.605   7.742 -0.0288  0.2031  0.0255
78909W        W21826   6.476   3.060  10.969  0.1237 -0.3343  0.0722
78910W        W21827  11.366   7.339   9.042 -0.0383 -0.1299 -0.4054
78911W        W21828   8.341   3.892  10.327  0.1928 -0.0754  0.1250
78912W        W21829   6.141   7.068   7.436 -0.1041  0.0994  0.1079
78913W        W21830   6.090   3.829   8.099  0.0843  0.3730  0.4409
78914W        W21831  10.958   5.321   9.546  0.1414  0.1306 -0.0961
78915W        W21832  10.668   6.464   7.623  0.1914 -0.0914  0.0394
78916W        W21833   9.646   6.516   6.875 -0.1344 -0.3194  0.0854
78917W        W21834   6.135   3.079   9.840  0.2340  0.2264 -0.2117
78918W        W21835  10.243   5.752   7.243 -0.2638 -0.0909  0.3699
78919W        W21836   9.089   6.545   6.299 -0.2435 -0.1892  0.1011
78920W        W21837  12.325   5.889   9.438 -0.0321 -0.1544  0.2702
78921W        W21838  11.197   6.405   8.765 -0.0007 -0.0780  0.0162
78922W        W21839  10.750   3.653  10.287  0.1138  0.0828 -0.1172
78923W        W21840  12.317   4.432  11.444  0.1775 -0.0159  0.1330
78924W        W21841   9.271   3.786   8.837  0.2928  0.1617 -0.2226
78925W        W21842   9.261   5.619   6.614 -0.0557 -0.2408  0.0434
78926W        W21843  10.050   5.297   9.703 -0.1644 -0.0796  0.2315
78927W        W21844   9.402   2.528   7.730 -0.4063 -0.3123  0.1956
78928W        W21845   9.656   5.837   8.914  0.2312  0.1196 -0.0084
78929W        W21846   9.421   6.214   8.512  0.0009 -0.0379 -0.1238
78930W        W21847  11.499   3.798   8.444 -0.3432  0.1291 -0.1349
78931W        W21848   9.901   7.857   8.080  0.2256  0.2343 -0.2274
78932W        W21849   8.133   6.421  12.199  0.0617  0.0172 -0.1084
78933W        W21850  12.174   5.354   9.209  0.3696 -0.2571  0.0761
78934W        W21851   6.856   3.876  10.845  0.0848  0.2864  0.0428
78935W        W21852   8.826   4.883   9.455 -0.3420 -0.0215  0.1101
78936W        W21853   9.266   6.613   8.818 -0.1528 -0.0973  0.0279
78937W        W21854  12.572   2.597   9.756 -0.0533  0.2007 -0.1413
78938W        W21855   9.286   5.477   9.062  0.0589  0.0561  0.2966
78939W        W21856  10.224   3.691  10.511  0.0560 -0.3408 -0.2006
78940W        W21857   9.609   8.843   8.305  0.1685  0.0229 -0.1805
78941W        W21858   9.530   6.263   9.039  0.0559 -0.1406 -0.2625
78942W        W21859   9.602   8.232   4.979 -0.1290  0.4177  0.0179
78943W        W21860   9.484   8.505  30.017  0.0042  0.0886  0.0267
78944W        W21861  10.566   8.703   0.685 -0.1251  0.0193  0.0421
78945W        W21862  11.851  10.634   0.686  0.0982 -0.1658 -0.0119
78946W        W21863   6.083   7.339   0.298  0.0945 -0.1318  0.2485
78947W        W21864   9.076   9.555  31.606  0.3978  0.1320  0.0132
78948W        W21865   7.663   6.976   1.015  0.1211 -0.0128 -0.0533
78949W        W21866   8.884  11.121   2.652  0.0808 -0.1743  0.0210
78950W        W21867  11.644  10.850   2.959  0.0796 -0.0690  0.2861
78951W        W21868  13.153   9.358   0.274 -0.4221  0.0667  0.0787
78952W        W21869   9.975   8.328   3.958 -0.3560 -0.0812  0.2041
78953W        W21870   8.860   9.950   5.527  0.3223 -0.0068 -0.1637
78954W        W21871  10.134   9.621  30.184 -0.4148 -0.1991  0.1025
78955W        W21872   7.713   7.626   2.288  0.1526  0.0102  0.1895
78956W        W21873   8.869   9.859   1.634  0.2613  0.0339  0.2146
78957W        W21874   8.097   9.043  31.763  0.0654 -0.0002 -0.0805
78958W        W21875   9.100  10.602   3.202 -0.0658  0.3254  0.0709
78959W        W21876   9.884   7.212   0.977 -0.1307 -0.1301 -0.4345
78960W        W21877  11.638  11.661  31.540  0.1308 -0.2940  0.1191
78961W        W21878   7.408   6.805   0.501  0.0963 -0.0085  0.2040
78962W        W21879   8.283   5.224   3.820  0.2931  0.0935  0.1331
78963W        W21880   8.469  10.611   0.781 -0.2103  0.1369 -0.1802
78964W        W21881   7.071   9.583   0.468  0.3115 -0.2972 -0.2852
78965W        W21882   8.938   7.395   1.458 -0.1855 -0.2993 -0.0124
78966W        W21883   7.535   9.532   3.555  0.1267 -0.2077 -0.2326
78967W        W21884   9.804   9.463   2.607 -0.1615 -0.0082  0.0464
78968W        W21885  11.019   6.116  31.828  0.2660 -0.3577  0.0401
78969W        W21886   9.517  10.996   1.858 -0.3694 -0.0983 -0.1017
78970W        W21887   8.679  10.956  31.612  0.2077  0.2300 -0.0336
78971W        W21888   9.773   6.189   4.449 -0.4220 -0.2915 -0.1763
78972W        W21889   8.224   8.699   2.322  0.2355 -0.0718  0.3063
78973W        W21890   7.473  12.043   2.010  0.0411  0.0122  0.2832
78974W        W21891  10.311  10.794  31.380  0.3514  0.2284  0.2177
78975W        W21892  11.194  11.599   1.490  0.0373  0.0824 -0.2479
78976W        W21893   8.506  11.097   0.925 -0.1041  0.0836 -0.0689
78977W        W21894   8.431  10.872   3.595  0.1043  0.0267  0.1096
78978W        W21895   8.453   8.771  31.493 -0.1466  0.3136 -0.1112
78979W        W21896   9.544  10.643   4.669 -0.0709  0.1587 -0.6617
78980W        W21897   9.038  11.786   2.596 -0.1240 -0.0722  0.3122
78981W        W21898  10.911   7.341   1.180  0.2698 -0.0224  0.1178
78982W        W21899   8.973   9.266   0.628  0.0970 -0.0695  0.0734
78983W        W21900   8.270   9.419   1.258 -0.1141 -0.2002  0.1546
78984W        W21901  10.554   9.408   1.468 -0.2901 -0.0820  0.2886
78985W        W21902   9.439   9.177   2.799 -0.1477  0.1107  0.1588
78986W        W21903   5.759  11.048   0.061  0.2120 -0.0577 -0.0405
78987W        W21904  11.237   5.973   4.481 -0.1801 -0.1267  0.2411
78988W        W21905   9.297  10.638   0.357 -0.0813 -0.1378 -0.0861
78989W        W21906  10.707   8.649   0.235 -0.1995 -0.1335 -0.0957
78990W        W21907  10.816  10.261   0.310 -0.0989 -0.1092  0.3016
78991W        W21908  10.658   8.219  31.029 -0.0797 -0.2512 -0.0639
78992W        W21909  11.811   8.278   1.233  0.2934  0.1384  0.4588
78993W        W21910   8.862   9.813  31.274 -0.0406 -0.1765 -0.6131
78994W        W21911  10.028   7.586   1.330  0.1257 -0.3282 -0.3175
78995W        W21912   9.820   9.603   2.130 -0.1191 -0.3892  0.1333
78996W        W21913   9.439   8.909   1.627  0.1578 -0.0085  0.1827
78997W        W21914  12.372   7.689   2.334 -0.1503 -0.2335  0.1332
78998W        W21915   8.891   9.262   1.541 -0.2156  0.0985  0.0639
78999W        W21916   9.055   7.667   1.054  0.0253  0.2743  0.1356
79000W        W21917  11.713  12.840  30.843 -0.1877 -0.1484 -0.0798
79001W        W21918  10.916  12.847   1.083  0.1497 -0.0992 -0.1360
79002W        W21919  10.816   9.114   0.309 -0.3358 -0.4262  0.2454
79003W        W21920   8.888   9.296  31.162 -0.1627 -0.0664  0.0827
79004W        W21921   7.730   8.655   2.371 -0.1015 -0.0818  0.1184
79005W        W21922   8.607   7.698   1.878  0.1776 -0.1441 -0.0946
79006W        W21923   9.321   9.729  31.150  0.2551  0.0471  0.3454
79007W        W21924   9.579  10.163   4.418 -0.1148 -0.1313 -0.2923
79008W        W21925   7.270   9.916   2.430 -0.0600 -0.0502  0.1615
79009W        W21926  12.699   9.023   1.749  0.0822 -0.1858 -0.0400
79010W        W21927   8.275   7.081   1.374  0.1714 -0.1311 -0.0018
79011W        W21928   8.539  10.054   2.817 -0.0857 -0.1477  0.1555
79012W        W21929  10.435   8.576   1.186  0.2238 -0.0250  0.0708
79013W        W21930   9.114  10.964   2.109  0.1167  0.1596  0.1642
79014W        W21931   9.742   7.296   3.143  0.2316 -0.1860  0.1857
79015W        W21932   9.507   8.660  30.783 -0.0618  0.4401  0.0771
79016W        W21933   9.487  10.686   0.858  0.3008 -0.0785 -0.3011
79017W        W21934  11.712  11.966   4.079 -0.1093  0.3756 -0.0687
79018W        W21935   9.405   9.475   0.768  0.0841 -0.1156 -0.0441
79019W        W21936   7.831  11.014   0.756 -0.2480 -0.0938 -0.0472
79020W        W21937   8.679   6.229   3.314 -0.2357  0.2462 -0.0075
79021W        W21938  10.985  10.007   4.146  0.0257  0.1439  0.0951
79022W        W21939   8.130  10.732   0.466  0.1463  0.2051  0.1171
79023W        W21940   7.440   9.012   1.589  0.4104  0.0335  0.0553
79024W        W21941   8.193   8.338  31.742  0.0487  0.0902 -0.1056
79025W        W21942   8.148   9.303   0.225 -0.0624  0.0037 -0.1992
79026W        W21943   8.599  11.052   1.868 -0.2049  0.2572 -0.0379
79027W        W21944  11.632   7.029   0.426  0.0566 -0.0972  0.0124
79028W        W21945   8.332   6.848   5.334  0.1747 -0.4456 -0.0255
79029W        W21946  11.739   6.616   1.349 -0.0036 -0.1244 -0.0641
79030W        W21947   9.731   8.416   0.722  0.1822 -0.0953  0.1355
79031W        W21948  11.661  12.197   3.633 -0.0467  0.0852  0.0316
79032W        W21949  10.975   9.205   1.795  0.0253  0.1455 -0.2442
79033W        W21950   9.973  10.460  30.719  0.0531  0.0696 -0.1063
79034W        W21951   8.471   8.148   2.056  0.0733  0.0042 -0.1627
79035W        W21952   7.325   8.106   1.659 -0.2839 -0.3629 -0.0765
79036W        W21953   8.057   5.063   2.398 -0.0472  0.0232 -0.5048
79037W        W21954   6.437   6.939   1.627  0.0163 -0.0275 -0.2459
79038W        W21955  10.522   9.952   1.669 -0.0885 -0.1594 -0.0408
79039W        W21956   8.492   8.591   1.293 -0.1482  0.3319 -0.1484
79040W        W21957  10.981  10.179   2.039 -0.0884 -0.2419 -0.0572
79041W        W21958  10.866   8.419   0.965  0.3388 -0.0689  0.2150
79042W        W21959   7.093   9.869   1.385 -0.0657 -0.2049 -0.1438
79043W        W21960  11.383   6.636   3.028 -0.0479 -0.1094  0.0688
79044W        W21961  11.015  10.178   1.541  0.1765 -0.4025 -0.0650
79045W        W21962   9.247  10.197   1.502 -0.0198 -0.0480  0.0847
79046W        W21963   8.843   9.594   1.088 -0.0659  0.1858 -0.2310
79047W        W21964   7.042   6.635   0.891 -0.1712 -0.0556 -0.0792
79048W        W21965  10.357  10.477  31.756 -0.1392  0.0252  0.0396
79049W        W21966   7.363  10.805   0.846  0.1849  0.0829  0.1483
79050W        W21967  10.480   9.761   0.412  0.2037  0.1804 -0.0868
79051W        W21968   8.724   6.075   0.657 -0.1717 -0.0381 -0.0836
79052W        W21969  13.094  12.435   0.438  0.2034 -0.0313 -0.1223
79053W        W21970   8.339   9.725   1.724  0.0611  0.1567  0.2509
79054W        W21971   7.979   9.352   3.656 -0.1746  0.0641 -0.2349
79055W        W21972  10.223   6.380   4.457 -0.0992 -0.0983 -0.1982
79056W        W21973   9.274   9.715   1.366  0.0673  0.1030 -0.0581
79057W        W21974   9.342   9.782   2.929  0.0984  0.0110 -0.1052
79058W        W21975   8.501   6.726  30.402  0.0167 -0.0788 -0.0774
79059W        W21976   8.969  10.746   4.450 -0.0194  0.0033  0.1675
79060W        W21977   8.298  11.606  31.393 -0.1782  0.2576 -0.0097
79061W        W21978   9.588   9.260   1.195  0.2867  0.2697  0.1071
79062W        W21979  10.181  10.462   3.180  0.1322 -0.0091  0.3034
79063W        W21980  12.039   7.805   1.569 -0.0752  0.1500  0.2457
79064W        W21981   6.999   8.289   2.772 -0.0338  0.0094  0.0272
79065W        W21982  10.891   8.197   3.677  0.1196  0.2391 -0.1731
79066W        W21983   7.665   9.191   1.077  0.0397  0.1047 -0.0519
79067W        W21984   7.449   9.729   1.954  0.1155  0.0699 -0.4512
79068W        W21985   9.721   6.256   1.041  0.2098  0.0062  0.1591
79069W        W21986  12.138   6.742   0.859 -0.0638 -0.0785 -0.3458
79070W        W21987   9.306  11.964   4.013 -0.1318 -0.1787  0.0259
79071W        W21988  10.234   9.993   3.248 -0.1984  0.2589  0.0866
79072W        W21989  10.873   7.836   1.150 -0.1261  0.2578  0.0799
79073W        W21990   9.775  10.050   0.190 -0.0124  0.1375  0.0737
79074W        W21991   6.531   9.197   4.628 -0.1180  0.2462  0.0943
79075W        W21992   8.641   8.609  30.709  0.0032 -0.0839 -0.1122
79076W        W21993   7.163  10.513   2.368 -0.2110 -0.2073  0.1939
79077W        W21994  10.693   9.400   0.739  0.0052  0.2564  0.0245
79078W        W21995  11.725  12.384  29.421  0.2349  0.1709  0.2053
79079W        W21996   8.207  10.884   2.655  0.2344 -0.0301  0.0789
79080W        W21997   9.826  10.005   2.829  0.0143  0.1733  0.3400
79081W        W21998   9.006   9.759   0.600 -0.0344  0.2145 -0.0656
79082W        W21999  10.362   7.296   0.403  0.4813  0.0166  0.0813
79083W        W22000  10.120   6.932  31.034  0.2167 -0.2177 -0.2253
79084W        W22001   9.422   8.972   0.734 -0.0075 -0.2071 -0.1459
79085W        W22002   7.699  11.541   0.860 -0.0102  0.3889 -0.1853
79086W        W22003   9.100   9.172   1.093  0.2972 -0.3828  0.1973
79087W        W22004  11.573   7.257   2.043  0.1035  0.0806  0.0269
79088W        W22005   9.742   8.293   2.892  0.2349  0.1606 -0.1260
79089W        W22006  11.160   9.893   2.514  0.0673 -0.0825 -0.3464
79090W        W22007   9.882   7.943   0.988 -0.1590 -0.0141  0.2750
79091W        W22008   8.924   7.939   2.188 -0.1038  0.1906 -0.2098
79092W        W22009   7.729   7.764  29.423 -0.1233  0.3784  0.4063
79093W        W22010   9.686   7.759   3.204 -0.5103  0.0462 -0.2019
79094W        W22011   9.762   9.021   2.343  0.1864 -0.1951  0.2166
79095W        W22012   5.999  10.685   3.047 -0.1563 -0.0586 -0.1406
79096W        W22013   9.625   8.748   4.204 -0.3371  0.1140 -0.0632
79097W        W22014   9.033   9.374   2.997 -0.2115 -0.1620 -0.2226
79098W        W22015   9.248   6.060   3.657  0.0892  0.2077  0.3874
79099W        W22016   7.790   7.112  30.550  0.0404 -0.0229  0.0989
79100W        W22017  10.430  10.145  30.722 -0.0836  0.2612  0.3742
79101W        W22018  11.246   8.118   1.601 -0.0106  0.0046 -0.0278
79102W        W22019   8.519   6.169   1.727  0.0618  0.0155  0.1293
79103W        W22020   9.324  11.065   2.894 -0.0348 -0.2324  0.0211
79104W        W22021   9.016  11.814  30.958 -0.3466  0.3927 -0.3021
79105W        W22022   9.178  10.377   4.174 -0.2117  0.1268 -0.2956
79106W        W22023   9.102   9.937   0.112  0.1379 -0.0416 -0.2106
79107W        W22024  10.581   5.012   5.464 -0.2539 -0.0174  0.1117
79108W        W22025   7.354  11.042   1.574  0.0157 -0.2098 -0.2369
79109W        W22026   8.940   9.067  31.594 -0.1602 -0.2830  0.2817
79110W        W22027   9.718  10.224   1.044  0.0751 -0.1407 -0.1055
79111W        W22028   9.745   7.747   1.740  0.4242 -0.0575 -0.0904
79112W        W22029  11.789   9.604  31.750 -0.0226  0.3066  0.0973
79113W        W22030   8.758   9.763   3.128 -0.2434 -0.3020  0.0676
79114W        W22031   9.422   6.492  31.226  0.1665  0.1042 -0.1805
79115W        W22032   9.176  11.932   1.814 -0.1702  0.1481  0.2508
79116W        W22033   8.559   9.766   3.582  0.1227 -0.0047  0.2003
79117W        W22034   9.693   8.605  31.267  0.1936 -0.1773 -0.2130
79118W        W22035  10.478  11.379   4.250  0.1761 -0.2261 -0.1482
79119W        W22036  10.012   8.587   4.552 -0.0427  0.1998  0.1547
79120W        W22037   5.678   7.695   0.498 -0.0098 -0.1038 -0.2491
79121W        W22038   8.389   8.617   1.824  0.2978  0.2716 -0.1387
79122W        W22039  10.097   9.980   1.936  0.0425 -0.1060  0.3467
79123W        W22040   7.904  10.503   2.007 -0.0634  0.1369  0.0489
79124W        W22041   8.510  10.262   0.419 -0.0050 -0.1750  0.2475
79125W        W22042   9.455   7.129   0.636 -0.6254  0.2482  0.1746
79126W        W22043   9.025  10.173   2.960 -0.0014 -0.0532  0.1804
79127W        W22044   9.230   6.935   2.975 -0.1567  0.1322 -0.2290
79128W        W22045  10.497  12.365   3.439  0.2449  0.2072  0.2964
79129W        W22046  11.381   8.429   2.024  0.1764 -0.4057 -0.2276
79130W        W22047   8.758   7.545  30.725  0.3028  0.2423  0.1670
79131W        W22048   8.924   9.780   2.653  0.4217  0.2295 -0.2436
79132W        W22049  11.179  10.896   1.185  0.2222  0.2874  0.4088
79133W        W22050  11.979   8.391   3.913  0.1958 -0.1380  0.2271
79134W        W22051   7.938   7.011   6.098 -0.0832  0.0076 -0.1296
79135W        W22052  10.891   7.519  31.791  0.0866 -0.0648 -0.1024
79136W        W22053   9.872  10.539  31.571 -0.1540  0.0979 -0.0244
79137W        W22054  10.605   7.557   1.551  0.0105 -0.0777  0.1666
79138W        W22055   9.377   8.096   0.927  0.1036  0.1274 -0.1581
79139W        W22056   7.642   7.673   1.710 -0.0327  0.1744  0.0801
79140W        W22057   8.888   9.467   2.014  0.3570 -0.1412 -0.1027
79141W        W22058  10.607   7.083   1.839 -0.0498 -0.1017 -0.1588
79142W        W22059   8.210  10.226   1.668 -0.1361  0.0144  0.0636
79143W        W22060   8.657  11.892   0.672  0.1969  0.0189 -0.0857
79144W        W22061   7.833   8.217   1.644  0.1856  0.0724  0.0522
79145W        W22062   9.176   6.179   0.880 -0.0348 -0.0142  0.0728
79146W        W22063  10.618  10.540  29.988 -0.0831  0.0831  0.1679
79147W        W22064   9.439   9.320  31.423 -0.0159 -0.3612  0.0480
79148W        W22065  10.737   8.099   4.132 -0.0022 -0.1213 -0.2355
79149W        W22066   8.830   9.939   2.171 -0.2659  0.4120 -0.0995
79150W        W22067  10.403   8.497   4.867  0.2128  0.1844 -0.0610
79151W        W22068   9.389   7.739   2.156 -0.4938  0.0343 -0.1492
79152W        W22069  11.087  11.715   2.047  0.0540  0.0744  0.0838
79153W        W22070   8.668   6.943   2.564 -0.1698  0.0201  0.1961
79154W        W22071   9.577  10.275   3.337  0.0983  0.2716 -0.0674
79155W        W22072   8.407   8.037   4.059 -0.4209 -0.3746 -0.2209
79156W        W22073  10.273   8.292   2.110  0.0305  0.1276 -0.2431
79157W        W22074   9.662   6.023  30.502 -0.0559  0.0650  0.2654
79158W        W22075   8.411  10.364   1.218  0.1232  0.0102 -0.2177
79159W        W22076  10.681  11.507   1.646  0.1999 -0.3270 -0.1704
79160W        W22077  10.187   9.543   1.753 -0.1903 -0.2665  0.1101
79161W        W22078  10.373   7.959   1.164  0.0068  0.0669  0.1193
79162W        W22079   8.048   8.334   2.128  0.0227 -0.1983  0.0158
79163W        W22080  10.753   8.233   1.458 -0.0441  0.1325  0.1214
79164W        W22081   9.717   7.864  31.908 -0.2393 -0.0530  0.0743
79165W        W22082   9.606  10.873  30.637  0.0261 -0.0139  0.0628
79166W        W22083   7.084   5.278   1.876  0.4929  0.2212 -0.1118
79167W        W22084  10.452   8.956   3.114 -0.1876 -0.0269 -0.0287
79168W        W22085   9.838   9.697   1.109 -0.1207  0.1595 -0.0380
79169W        W22086   9.526   6.932   3.411  0.2080 -0.1310  0.1256
79170W        W22087   9.137   7.856   1.658  0.0715 -0.0438  0.0802
79171W        W22088   9.523   5.767   3.370  0.0085  0.1654 -0.1371
79172W        W22089   8.264   6.347   3.541  0.0231 -0.2013 -0.1979
79173W        W22090  10.023  10.534   1.998 -0.2478 -0.3382  0.1831
79174W        W22091  11.868   9.041  30.145  0.1606 -0.2442 -0.0197
79175W        W22092  11.689   6.800   3.469 -0.0758 -0.1665 -0.0434
79176W        W22093  11.356   7.572   1.125 -0.0025  0.1327  0.1068
79177W        W22094  11.682   8.638   0.920 -0.1080 -0.0192 -0.1710
79178W        W22095   8.043  10.393  31.507  0.1586  0.0986 -0.1641
79179W        W22096  11.535   7.894   4.479 -0.1459  0.3041 -0.3726
79180W        W22097   8.346  10.865  29.204 -0.1755 -0.0372  0.0006
79181W        W22098  12.354   8.666   4.067 -0.0904  0.1776 -0.1501
79182W        W22099  11.702   9.984   0.699  0.1024 -0.2616 -0.2081
79183W        W22100  11.855   7.738   1.082 -0.0486  0.2785 -0.4494
79184W        W22101  10.630   8.517   2.400 -0.5311  0.1378 -0.0939
79185W        W22102   6.818   9.476   0.965 -0.3418 -0.1015 -0.2565
79186W        W22103   7.919  10.074   4.335  0.2636  0.2373  0.0687
79187W        W22104   8.905   8.689  31.201  0.0653  0.1378 -0.1169
79188W        W22105   9.564  10.140  31.403 -0.1604 -0.0808  0.0761
79189W        W22106   7.735   8.794   2.947 -0.0282 -0.0869  0.0427
79190W        W22107   9.600   9.018   3.740  0.1235 -0.1208  0.0045
79191W        W22108  10.809   6.431  29.785  0.1548  0.2967  0.0743
79192W        W22109  11.096   8.646   4.232  0.2687  0.2637  0.0061
79193W        W22110  10.509  10.011  31.939  0.1608  0.2513  0.1809
79194W        W22111  10.517   9.053   1.812 -0.0832 -0.1868 -0.3521
79195W        W22112   9.855  10.379   0.618  0.1836 -0.1153 -0.0452
79196W        W22113   8.344   8.421   3.146  0.0915 -0.4122  0.1354
79197W        W22114   9.409  10.187   0.524 -0.0261  0.0632 -0.3753
79198W        W22115  10.565   7.885   0.721  0.1348 -0.4353  0.0695
79199W        W22116   8.444   9.494   2.291  0.1106 -0.0125 -0.0486
79200W        W22117   8.618  10.571   2.847 -0.0215 -0.3252  0.1939
79201W        W22118  11.009   9.135   3.981 -0.1254  0.0702 -0.1169
79202W        W22119   8.029   9.822   3.599 -0.1359 -0.0791  0.2328
79203W        W22120  11.185  10.681  31.422  0.0659  0.1354 -0.0576
79204W        W22121  10.794  11.235   1.233  0.0951  0.1945 -0.0696
79205W        W22122  11.828  10.959   1.599  0.1563 -0.0715  0.0063
79206W        W22123   9.761   9.781   0.609 -0.0804  0.2214  0.2566
79207W        W22124   7.877   9.630   3.118  0.2984  0.0457 -0.1145
79208W        W22125  11.046  10.650   2.974 -0.0577 -0.0577  0.2125
79209W        W22126   9.785   8.058   2.226 -0.0398 -0.1378  0.0885
79210W        W22127   8.974   6.044  31.906  0.0106 -0.3012  0.0087
79211W        W22128  10.514  10.082  31.427 -0.0559  0.0011  0.0407
79212W        W22129   8.693  10.747   1.290  0.0357 -0.1402 -0.1667
79213W        W22130   7.577   9.111   2.117 -0.1378 -0.1122 -0.0528
79214W        W22131   6.253  10.901   1.711 -0.1882 -0.0819 -0.1579
79215W        W22132  10.989   9.114   1.060 -0.2472 -0.1139  0.0919
79216W        W22133  10.129  10.805   1.459 -0.2625  0.1192  0.0457
79217W        W22134   8.184  11.320   2.861 -0.0439 -0.0332  0.1310
79218W        W22135   9.325   6.658   0.871  0.1338 -0.2497  0.4968
79219W        W22136   6.737   9.659   2.445 -0.5074  0.3278 -0.1891
79220W        W22137   7.657  10.692   0.373 -0.1082 -0.1957 -0.1870
79221W        W22138   9.660  11.094   1.239 -0.3021 -0.1812 -0.2235
79222W        W22139   7.236   9.427   2.351  0.0539 -0.0144 -0.0336
79223W        W22140   9.685   9.550   1.609 -0.0992  0.0078  0.1846
79224W        W22141  10.409   7.094   1.298 -0.0795 -0.1561  0.2954
79225W        W22142  12.236   8.360   1.618  0.1185 -0.2276  0.0550
79226W        W22143  12.126   9.846  31.402  0.1677  0.3864 -0.1707
79227W        W22144   9.461  12.577   2.640  0.2813 -0.2269  0.0828
79228W        W22145  11.067   8.195   2.342  0.1093 -0.2520 -0.0363
79229W        W22146   9.313   7.087   1.147 -0.0745 -0.1382  0.0527
79230W        W22147   8.791   8.855   1.852 -0.2394 -0.0376  0.0501
79231W        W22148  11.135   6.635   3.475  0.1152  0.1580 -0.0363
79232W        W22149   8.895   9.342   4.762  0.1443  0.1411 -0.3082
79233W        W22150  10.862  11.912   1.277  0.0453  0.2027  0.0473
79234W        W22151   6.801   7.024   0.450  0.3059  0.4494  0.0187
79235W        W22152   9.951  11.994   0.185  0.0686 -0.3300 -0.0201
79236W        W22153   9.333   8.373   2.449  0.0871  0.0613  0.0718
79237W        W22154   7.825  10.718  31.862  0.2214  0.0387  0.0143
79238W        W22155   9.468  10.368   3.785 -0.2590  0.2161  0.0929
79239W        W22156  10.179   9.535   0.825  0.2184  0.1780  0.1838
79240W        W22157   8.227  10.696   1.608 -0.0097 -0.0180  0.1606
79241W        W22158   8.428  11.255   2.414 -0.0511  0.1031  0.0183
79242W        W22159   6.008   7.331  31.737 -0.3280  0.0528 -0.0907
79243W        W22160  10.861   8.176   0.432 -0.1643 -0.0992  0.0298
79244W        W22161   7.490   6.659   2.177  0.0051  0.1969  0.2301
79245W        W22162  11.445   8.159   3.464 -0.0658 -0.0639  0.1118
79246W        W22163   9.895   9.120   1.856  0.2302  0.1029 -0.1003
79247W        W22164  10.351   9.141  30.035  0.1766 -0.1324  0.3157
79248W        W22165   7.188   9.868   3.305 -0.2116  0.0222  0.0036
79249W        W22166   7.754   8.671   0.801 -0.0792 -0.0671  0.1055
79250W        W22167   9.615   8.134   1.378  0.0919 -0.2185  0.4335
79251W        W22168   7.694  10.920   2.885 -0.1172  0.1295 -0.1205
79252W        W22169  11.224  12.652  31.125  0.0343  0.0099 -0.0181
79253W        W22170   9.928  11.664   3.517 -0.0189 -0.0812 -0.0207
79254W        W22171   6.879   8.289  31.820  0.0439  0.3297  0.0377
79255W        W22172  10.042   9.306   1.363  0.0728 -0.0667 -0.1069
79256W        W22173   8.590   9.075   1.176  0.1727 -0.1219 -0.1846
79257W        W22174  10.551   8.590   3.621  0.2122  0.0462  0.1125
79258W        W22175   9.923  10.041   3.660  0.0831 -0.0435 -0.0795
79259W        W22176   8.852   8.550  31.861 -0.1961 -0.2020 -0.1357
79260W        W22177  11.127   8.320  31.265 -0.2671 -0.0371 -0.0529
79261W        W22178  11.767   9.120  31.798  0.0333  0.0940 -0.0093
79262W        W22179  10.483  10.489   0.700 -0.1652 -0.2740 -0.2061
79263W        W22180   9.648   8.715   0.280  0.0037 -0.3178 -0.3439
79264W        W22181  11.245  10.538   0.451  0.0486  0.0774  0.0052
79265W        W22182   7.940   9.859   1.339  0.3046  0.2911 -0.0437
79266W        W22183   9.572   8.743   2.749 -0.0209 -0.1523 -0.0989
79267W        W22184   9.787  12.270   1.309  0.0158 -0.2179 -0.1619
79268W        W22185  10.664   8.315  31.534  0.1753  0.0597  0.3420
79269W        W22186   7.697  10.026   3.306 -0.0759  0.0955 -0.2457
79270W        W22187   6.990  10.047  30.771  0.2452 -0.1307 -0.1067
79271W        W22188  11.986  10.034   1.564  0.0755  0.4313 -0.1441
79272W        W22189  10.188   8.970   2.632 -0.0599  0.0491  0.0875
79273W        W22190  12.267  11.143   1.306  0.0003 -0.3476 -0.0237
79274W        W22191   9.629   8.232   3.382  0.2512  0.2199 -0.2644
79275W        W22192   9.441  11.590   3.671  0.2087  0.0442 -0.0267
79276W        W22193   8.976   8.316   3.567  0.1724 -0.1247 -0.1541
79277W        W22194   8.477   9.906   1.309  0.0197 -0.0360  0.2722
79278W        W22195   9.001   8.820   2.703  0.2172 -0.1933  0.3817
79279W        W22196   8.101   9.771   0.411 -0.2642 -0.0876  0.0922
79280W        W22197  10.217  10.057   0.809 -0.1002 -0.0999  0.3581
79281W        W22198  11.160  12.053   0.922  0.0165  0.2630  0.1178
79282W        W22199   9.144   8.915   2.228  0.0968 -0.1086  0.2599
79283W        W22200  10.319  10.182   2.759 -0.0556  0.0641  0.0229
79284W        W22201   6.573   9.774   0.624 -0.2323  0.1996 -0.0856
79285W        W22202  13.670   9.448   0.074  0.0310  0.0545 -0.1219
79286W        W22203  10.162   8.150  31.757 -0.0409  0.2562  0.1555
79287W        W22204   8.150   8.726   3.604  0.0307  0.1401  0.0750
79288W        W22205   8.237  10.389  31.938 -0.2118 -0.2209 -0.3308
79289W        W22206   5.790   9.671   1.218 -0.1003 -0.2225  0.0347
79290W        W22207   9.673  10.954   0.534  0.2306  0.1452 -0.0556
79291W        W22208   8.759   6.836   1.977  0.2036 -0.2584  0.1098
79292W        W22209   8.080   5.560   1.433 -0.0614 -0.1621 -0.0688
79293W        W22210   7.891  10.959   1.945 -0.1758  0.1125 -0.0061
79294W        W22211   9.538   8.718   1.151  0.0743 -0.0878  0.0263
79295W        W22212  11.484   9.587   1.535  0.1288  0.0803  0.4923
79296W        W22213   8.504   9.077   0.511  0.1117  0.2419  0.2121
79297W        W22214   7.812   7.314   1.429 -0.0256 -0.1380 -0.0381
79298W        W22215  11.416  10.935   0.748  0.2230  0.0579 -0.0670
79299W        W22216  12.211  10.241   0.593 -0.0588  0.0463  0.2231
79300W        W22217   7.932   9.375   1.677  0.1272  0.1598 -0.0686
79301W        W22218  11.475  10.331   4.281 -0.2494  0.0192  0.1020
79302W        W22219   6.623   8.364  31.008  0.1290  0.0387  0.1063
79303W        W22220   8.607   9.052   3.157  0.4449  0.0536 -0.0021
79304W        W22221   8.122   7.888   2.385 -0.0470 -0.3322  0.0259
79305W        W22222   8.727   7.229  30.275 -0.1413  0.3050 -0.2375
79306W        W22223   7.895   6.747   1.449  0.0698  0.1199  0.0942
79307W        W22224   9.856   8.283   1.785 -0.0749 -0.0233  0.1513
79308W        W22225  10.792  11.655  31.742 -0.0594  0.2401  0.1445
79309W        W22226   9.372   8.612   3.700  0.2091  0.0309  0.2287
79310W        W22227   9.070  11.001   5.351 -0.2817 -0.1652 -0.0935
79311W        W22228   7.915   6.439   3.212  0.1501 -0.2480  0.3482
79312W        W22229   8.810   8.317   1.741 -0.0287  0.3251  0.0265
79313W        W22230   9.436  12.976   3.319 -0.0661  0.0066  0.0844
79314W        W22231  10.587  11.653   2.136  0.0524 -0.1249  0.2015
79315W        W22232  10.421   7.832   2.529  0.1737  0.0183 -0.1380
79316W        W22233   8.968   9.277   2.523 -0.0429  0.1651 -0.1272
79317W        W22234   7.956   7.867   1.357 -0.1610 -0.2221  0.1488
79318W        W22235   7.995   7.326   3.689  0.0036 -0.1756 -0.1501
79319W        W22236   9.983  11.295   0.860  0.3085 -0.3732  0.2218
79320W        W22237   9.530   7.568   0.839  0.0821  0.1674 -0.3116
79321W        W22238   9.997   8.362   1.238 -0.2917  0.3651 -0.2379
79322W        W22239   9.324  11.456   1.848 -0.1192  0.0098 -0.2706
79323W        W22240   8.230   7.009   2.339  0.0135 -0.0645 -0.1051
79324W        W22241  11.719   8.724  30.520  0.0839 -0.0126  0.0242
79325W        W22242   6.564   9.832   3.327  0.1998 -0.0465 -0.0513
79326W        W22243   9.519   6.839   2.546  0.0752 -0.4041 -0.0013
79327W        W22244   9.866   8.512   2.432 -0.2909 -0.1463  0.0981
79328W        W22245   7.908   9.608   0.916 -0.3393  0.0382 -0.0074
79329W        W22246  11.718   8.691   1.463  0.0211  0.1650 -0.4118
79330W        W22247  10.410  10.286   2.220 -0.1620 -0.2049  0.1266
79331W        W22248  10.376  10.429   3.651 -0.2089  0.2965 -0.3436
79332W        W22249   9.303  11.099   3.499 -0.0050  0.1189  0.1726
79333W        W22250  11.408   9.968   1.890 -0.1184  0.1652  0.2106
79334W        W22251  10.104   7.341   1.806  0.1015 -0.2967 -0.0208
79335W        W22252   8.073   9.534  30.295  0.0983 -0.1588 -0.0865
79336W        W22253   9.440   7.531   1.326 -0.0670  0.1319  0.0790
79337W        W22254  11.173   7.743   2.074  0.0647  0.2673  0.2306
79338W        W22255   7.583   9.545   1.387 -0.1808  0.1067 -0.3171
79339W        W22256  10.417   8.218  30.596 -0.0411 -0.0584 -0.0554
79340W        W22257  10.938  12.362   2.081 -0.0018 -0.2515 -0.1817
79341W        W22258  10.554   8.971   3.975 -0.1392 -0.0739  0.0483
79342W        W22259   6.157  10.721   6.120  0.2113  0.0083  0.3200
79343W        W22260   7.680   6.971   4.459 -0.0401 -0.0732 -0.0754
79344W        W22261  10.205   8.763   2.188  0.0799  0.2889 -0.2484
79345W        W22262  11.352   7.740   3.749 -0.0838 -0.2709 -0.1879
79346W        W22263   7.354   6.822   5.854  0.1583 -0.2342  0.1882
79347W        W22264  10.730  10.309   3.197 -0.2722 -0.3029 -0.2721
79348W        W22265   7.511   8.259   6.590  0.0140 -0.2132 -0.3197
79349W        W22266   9.111   7.710   4.803  0.0555 -0.1914 -0.1556
79350W        W22267   9.888  11.460   5.027 -0.1469  0.3186  0.2280
79351W        W22268  10.073   8.030   3.319  0.1397 -0.0719  0.2108
79352W        W22269   8.032   7.595   6.031  0.3277  0.2083  0.1727
79353W        W22270   8.386   9.288   5.999  0.0027 -0.1075 -0.0556
79354W        W22271   7.686   8.942   3.445 -0.0021 -0.1635 -0.2114
79355W        W22272   7.336   6.310   3.988  0.0900 -0.1447 -0.0398
79356W        W22273   9.530  10.079   5.856 -0.0584 -0.0309  0.3576
79357W        W22274   8.080   9.169   2.132  0.5488 -0.0651  0.2258
79358W        W22275   9.925   6.841   5.838 -0.7182  0.1036 -0.1354
79359W        W22276   8.365   7.898   0.994  0.2344  0.0755 -0.0862
79360W        W22277  10.297  11.577   5.361  0.1436 -0.1803  0.2229
79361W        W22278   8.284   7.637   5.560  0.3504 -0.2801 -0.0755
79362W        W22279   9.595   7.175   5.571  0.1676 -0.1056  0.0152
79363W        W22280   5.897  10.085   4.716 -0.1916 -0.2558  0.1862
79364W        W22281   9.307   8.445   2.992  0.0593 -0.2134 -0.0446
79365W        W22282   5.698   7.676   5.460 -0.0486  0.3605  0.3633
79366W        W22283   8.051   7.847   4.384  0.3805 -0.1293 -0.1042
79367W        W22284   9.996   8.484   5.144  0.2542 -0.0771 -0.0140
79368W        W22285   9.971   8.875   5.424  0.0460  0.2054 -0.0820
79369W        W22286   8.719   8.915   6.352  0.0509 -0.0618  0.1583
79370W        W22287   9.830   9.759   4.082  0.2054 -0.0671  0.0264
79371W        W22288  11.129   6.675   6.958 -0.0539 -0.3114  0.1135
79372W        W22289   6.833   8.771   3.915 -0.1722 -0.0167 -0.2756
79373W        W22290   8.373  11.407   4.914 -0.0319 -0.0564  0.1374
79374W        W22291   8.293  10.068   4.681 -0.0899 -0.3465  0.0088
79375W        W22292  13.023   9.643   5.826  0.0723  0.1084  0.3701
79376W        W22293   9.696  10.517   6.108 -0.0822  0.1124  0.1239
79377W        W22294   8.598  10.809   7.980  0.1638  0.0842  0.0928
79378W        W22295   7.047   8.801   3.482  0.3098 -0.2550 -0.2764
79379W        W22296   9.189   9.661   7.225 -0.1919 -0.0405 -0.1127
79380W        W22297   8.687   8.767   4.716 -0.2531  0.2053  0.1637
79381W        W22298   8.529   8.348   5.719 -0.0470 -0.2963  0.0400
79382W        W22299   8.849   4.747   4.551 -0.0155 -0.0780 -0.0545
79383W        W22300   5.037  10.401   4.554  0.0853  0.0229 -0.0116
79384W        W22301  10.328   9.874   4.277 -0.2627  0.0023  0.2291
79385W        W22302   8.027   9.387   9.205  0.0392 -0.1517  0.1463
79386W        W22303   8.044  11.459   3.805 -0.0944  0.0099 -0.1036
79387W        W22304  10.791   8.282   6.313  0.0587 -0.1556  0.1412
79388W        W22305   8.419   9.200   4.915  0.0327  0.2727  0.2661
79389W        W22306   9.673   8.241   4.421  0.1154  0.0708 -0.3025
79390W        W22307   8.887   8.807   0.815 -0.0069  0.1379  0.0961
79391W        W22308   9.653   7.798   4.768 -0.0551  0.1007 -0.1914
79392W        W22309   6.645   5.404   3.078 -0.0834  0.0415 -0.2277
79393W        W22310  10.664   9.030   4.891 -0.0723  0.1552  0.1445
79394W        W22311   8.617   7.722   6.755 -0.3733  0.1375  0.1097
79395W        W22312  10.446  11.143   5.531 -0.0339  0.2338  0.1500
79396W        W22313   8.575   8.850   5.271 -0.1372 -0.0888  0.0567
79397W        W22314  11.653   8.514   4.321 -0.2411 -0.0853  0.5108
79398W        W22315   7.958  10.585   6.793 -0.0502  0.0765  0.0720
79399W        W22316   7.947   8.255   4.088 -0.0259 -0.0711  0.3041
79400W        W22317   9.754  10.577   2.833 -0.0990  0.4829  0.0649
79401W        W22318   8.227   8.715   6.111 -0.2153 -0.0668  0.0082
79402W        W22319   8.958  11.442   2.233  0.1303 -0.1123 -0.3610
79403W        W22320   8.393   7.637   3.663 -0.1229 -0.2141  0.2634
79404W        W22321   8.378   9.114   7.806 -0.1771  0.0288 -0.0782
79405W        W22322   6.575  10.300   5.850 -0.0237 -0.0707 -0.2139
79406W        W22323  10.740   7.201   0.678 -0.0172  0.0552  0.1158
79407W        W22324  10.936  10.488   7.204 -0.1876  0.0309  0.2118
79408W        W22325   7.163   9.384   6.986 -0.1271 -0.0017 -0.0976
79409W        W22326   9.166   8.972   4.085 -0.1842  0.0268 -0.0012
79410W        W22327   7.455  10.343   5.642 -0.1483  0.0887 -0.1589
79411W        W22328  10.204   8.922   6.591  0.1721  0.0708  0.0394
79412W        W22329  11.861  10.144   4.499  0.1441  0.1622  0.1093
79413W        W22330  10.216  10.785   3.962 -0.1243 -0.1132  0.0391
79414W        W22331  10.712   7.391   5.185 -0.0590  0.0201 -0.1388
79415W        W22332   8.745   9.606   5.162 -0.3016 -0.0391 -0.1457
79416W        W22333   7.991   8.354   2.662  0.3616 -0.2161  0.0788
79417W        W22334  10.286  12.079   6.858  0.0066 -0.0130  0.0142
79418W        W22335  11.833   8.992   4.600  0.0878 -0.2366 -0.2908
79419W        W22336   7.774  10.343   6.151  0.0887  0.1478  0.4611
79420W        W22337   7.732   9.223   7.667 -0.0215 -0.0045 -0.0198
79421W        W22338   9.311  10.731   9.900 -0.3588 -0.4939 -0.0157
79422W        W22339   9.581  12.959   5.204 -0.2886  0.0181  0.0709
79423W        W22340   7.509   9.493   4.755  0.4383 -0.4773  0.1407
79424W        W22341   6.660   9.568   4.218 -0.0528  0.0842 -0.0430
79425W        W22342   6.590   9.423   5.072 -0.0224 -0.0242 -0.0993
79426W        W22343   8.839   9.423   4.175  0.0688  0.2230  0.0903
79427W        W22344  10.727   7.227   3.551 -0.1856 -0.2095 -0.0971
79428W        W22345   6.682   8.377   7.277  0.0261 -0.1716 -0.1509
79429W        W22346   8.527   8.517   3.727  0.0614  0.0659 -0.0035
79430W        W22347   8.296   8.581   4.938 -0.1293  0.0609  0.0157
79431W        W22348   9.969   9.938   4.580 -0.3334 -0.0522 -0.1553
79432W        W22349  11.085   8.981   3.344  0.0685  0.0840 -0.0812
79433W        W22350   9.681   7.323   2.239 -0.0180  0.1539 -0.1965
79434W        W22351   9.208   7.027   6.812 -0.1952 -0.1181 -0.1116
79435W        W22352   8.317   8.149   5.314 -0.0885  0.0340 -0.0271
79436W        W22353   7.039   7.580   8.347  0.2552 -0.2520  0.0588
79437W        W22354  10.122   9.511   5.915  0.5589  0.0181  0.0358
79438W        W22355  10.639   9.599   7.158  0.1475 -0.2252  0.0978
79439W        W22356   8.175   7.117   4.378 -0.3943 -0.5071  0.1505
79440W        W22357   8.690   7.700   3.152 -0.1554 -0.1575 -0.1387
79441W        W22358   7.785   8.296   3.132 -0.1816  0.0972 -0.0214
79442W        W22359   6.262  10.628   3.938  0.1547  0.4731  0.1002
79443W        W22360  10.063   5.804   5.958  0.0086  0.2010  0.1229
79444W        W22361   8.344   8.799   2.820  0.1759 -0.1262  0.2968
79445W        W22362  11.559  10.690   7.359  0.0431  0.1614 -0.1511
79446W        W22363   9.622  10.802   3.257  0.2230 -0.0024  0.0349
79447W        W22364   6.797   9.639   7.587  0.1752 -0.0665 -0.1356
79448W        W22365   8.777   7.085   3.045 -0.2848 -0.1784  0.1276
79449W        W22366   9.173  12.087   4.940 -0.1887 -0.0716 -0.0755
79450W        W22367   7.863   8.012   5.552 -0.1520 -0.3605 -0.1193
79451W        W22368   8.620   7.869   2.577 -0.1577  0.2034  0.0687
79452W        W22369  11.317  13.122   6.233 -0.1456 -0.1837 -0.2205
79453W        W22370  10.550   7.099   4.023  0.3834  0.0623  0.2054
79454W        W22371   6.905   9.805   6.755  0.0368  0.3123 -0.2489
79455W        W22372   9.922   7.814   5.248  0.3737 -0.3716  0.3452
79456W        W22373  11.686   9.817   6.094 -0.0660 -0.2606 -0.1861
79457W        W22374   7.976   6.870   4.846 -0.1373  0.0489 -0.2022
79458W        W22375   8.625   8.980   2.298 -0.2658  0.0868 -0.0484
79459W        W22376   8.189  11.939   3.587 -0.2967 -0.0558  0.0409
79460W        W22377   7.109  11.197   3.712 -0.0852  0.0186 -0.1473
79461W        W22378   7.931   9.195   4.107  0.0118 -0.1780  0.0309
79462W        W22379   6.983  10.953   4.687 -0.3104  0.0570  0.1290
79463W        W22380  11.307   8.246   5.005  0.0139 -0.2845  0.2454
79464W        W22381   6.761   6.972   4.765 -0.2720 -0.1198  0.2873
79465W        W22382  10.944   6.846   8.077  0.0252  0.0180 -0.0670
79466W        W22383   6.946   5.906   4.082  0.2263 -0.0995  0.0380
79467W        W22384   6.772   9.860   5.079 -0.1911 -0.1522 -0.0565
79468W        W22385   9.961   6.341   5.867  0.1430  0.0448  0.2839
79469W        W22386   9.188   8.252   4.683 -0.0757  0.1532 -0.2524
79470W        W22387   8.408   8.674   6.618 -0.1868 -0.2657 -0.1576
79471W        W22388  10.822  10.215   3.699  0.1089 -0.0965 -0.1413
79472W        W22389   8.549   6.463   2.245 -0.1857 -0.0708  0.2047
79473W        W22390  11.056   8.093   3.196  0.2398  0.0081 -0.1399
79474W        W22391   7.377   8.804   9.607  0.0103 -0.0270  0.2678
79475W        W22392   8.087   8.947   4.591 -0.1013 -0.0495  0.2794
79476W        W22393   7.017   8.290   3.823 -0.0815 -0.0927  0.2632
79477W        W22394   8.933   8.202   2.702 -0.1380 -0.1670 -0.1843
79478W        W22395  11.008  10.507   4.392  0.1028 -0.2044 -0.0258
79479W        W22396   5.185  10.105   5.419 -0.3750 -0.0380 -0.0253
79480W        W22397   9.099   8.603   7.072  0.0895 -0.0665  0.1834
79481W        W22398   9.789  10.690   4.243  0.1304 -0.2328 -0.2214
79482W        W22399   7.813   7.336   6.498  0.1326  0.0590  0.1240
79483W        W22400   7.218   8.302   3.248 -0.2244 -0.0296 -0.0714
79484W        W22401   9.098   7.271   5.211 -0.0960 -0.1268  0.0312
79485W        W22402   6.703  10.410   3.777 -0.0522 -0.1497  0.0654
79486W        W22403   9.802   6.656   4.365 -0.0349  0.1619  0.0226
79487W        W22404   9.709   8.994   4.992  0.1634  0.0328 -0.2058
79488W        W22405   9.807   6.498   7.404  0.2978  0.0563  0.1022
79489W        W22406   9.766   9.787   5.518 -0.1418 -0.1592 -0.3126
79490W        W22407   9.909   8.033   6.491 -0.0379 -0.0231 -0.2129
79491W        W22408   8.396   7.534   4.602 -0.0176 -0.0899 -0.0908
79492W        W22409   8.895   7.914   3.888  0.4359  0.0234  0.1126
79493W        W22410  10.295   6.298   7.303  0.0156 -0.2202 -0.0659
79494W        W22411   6.622   8.715   6.588  0.0589 -0.1163  0.0313
79495W        W22412   9.388   9.110   4.530  0.0894  0.2224 -0.1752
79496W        W22413   9.356  12.241   7.843 -0.0919  0.2550 -0.3587
79497W        W22414   9.535   9.262   3.341 -0.1828  0.1239 -0.2698
79498W        W22415   9.953   7.474   7.232  0.1422  0.0057  0.0217
79499W        W22416   9.547   6.201   3.996 -0.2011  0.0478  0.1337
79500W        W22417   7.701  11.437   2.811 -0.0276 -0.0469  0.0343
79501W        W22418   7.376   9.112   3.806  0.1249  0.2697 -0.1715
79502W        W22419   6.946   6.353   5.736 -0.0365 -0.1089 -0.0525
79503W        W22420   9.732   9.256   4.139 -0.2792 -0.0126  0.1294
79504W        W22421   8.224  10.670   3.129  0.0210  0.0726 -0.3714
79505W        W22422   9.779   8.604   7.548 -0.0835 -0.1126 -0.1772
79506W        W22423   7.565  11.733   4.406  0.1965  0.0205 -0.2055
79507W        W22424   9.492   6.062   4.976 -0.0018  0.0823  0.0915
79508W        W22425   6.377  10.919   4.347 -0.3011  0.5788  0.1756
79509W        W22426   8.002   7.370   1.947 -0.1836 -0.0464  0.3294
79510W        W22427   6.730   8.310   2.333  0.0241 -0.0874  0.2628
79511W        W22428  11.446   8.655   3.293  0.3711  0.1154 -0.2217
79512W        W22429  11.938   7.764   3.540 -0.3784  0.0240  0.0781
79513W        W22430   9.722   8.215   5.459  0.2204  0.2091  0.1740
79514W        W22431  10.050   7.249   6.280 -0.0640 -0.2310 -0.1180
79515W        W22432   8.337  11.147   6.054  0.2379  0.1309  0.2076
79516W        W22433   9.561   7.544   8.326 -0.2412  0.1552  0.1813
79517W        W22434   9.482   8.126   3.902  0.0975  0.2298  0.0509
79518W        W22435   9.652   8.771   3.309 -0.3264 -0.1176 -0.2376
79519W        W22436   7.553   8.769   7.804 -0.2805 -0.3976 -0.1935
79520W        W22437   6.376   5.741   5.489 -0.3372  0.0010 -0.4352
79521W        W22438  10.131   6.798   4.002  0.2930  0.0083  0.0505
79522W        W22439   7.759   7.383   4.180 -0.1280 -0.1570  0.3120
79523W        W22440   7.348  11.488   4.862  0.2957  0.1335  0.0054
79524W        W22441  10.416   8.962   4.483  0.1256  0.2064 -0.0851
79525W        W22442   8.434   9.158   3.620  0.3617 -0.0703 -0.3427
79526W        W22443   7.510   9.506   5.997  0.0544  0.2116 -0.2565
79527W        W22444   8.835   8.410   6.718 -0.0225  0.3027 -0.3321
79528W        W22445   9.774   9.298   5.382 -0.1477  0.3255 -0.0240
79529W        W22446   7.506   7.781   4.016  0.1086  0.1582 -0.0253
79530W        W22447   8.906   7.454   2.233 -0.0804  0.0708 -0.0135
79531W        W22448   9.264   7.882   4.309 -0.2262  0.0980  0.2035
79532W        W22449   9.995  10.265   5.522 -0.0596 -0.0181 -0.0969
79533W        W22450  11.368   6.227   5.451 -0.0407 -0.0421 -0.1840
79534W        W22451   7.253   8.221   5.765  0.5215 -0.0584  0.0534
79535W        W22452  11.220   8.175   4.059 -0.1769  0.2625  0.0527
79536W        W22453  11.209   9.538   4.267  0.0483  0.4199  0.2031
79537W        W22454   9.037  10.255   5.195 -0.3613  0.4140 -0.0670
79538W        W22455   8.023  12.458   3.652  0.1462 -0.1365  0.1403
79539W        W22456   6.145   9.200   5.028 -0.3741  0.0905 -0.0805
79540W        W22457   8.958   8.618   5.512  0.0212 -0.2241 -0.0223
79541W        W22458  10.074   8.505   5.721 -0.0314 -0.3586  0.0253
79542W        W22459   8.156   8.759   4.128 -0.0425 -0.0758  0.0696
79543W        W22460   8.984   7.938   6.497  0.2513 -0.1349 -0.2255
79544W        W22461   7.537  10.289   6.559  0.2821 -0.1105 -0.0166
79545W        W22462  10.566   8.733   5.331 -0.1846 -0.2955  0.2688
79546W        W22463  10.536  10.275   5.160  0.0025  0.0569 -0.0734
79547W        W22464   9.182   8.234   5.346  0.0650 -0.1533  0.1278
79548W        W22465  10.181   6.452   5.246  0.0474  0.0220  0.2020
79549W        W22466   9.018   7.631   2.715 -0.1874  0.1136 -0.1521
79550W        W22467   8.280   6.789   6.738 -0.0126 -0.2185 -0.2365
79551W        W22468   8.086   7.252   5.198 -0.1732  0.2656 -0.3536
79552W        W22469  11.224   9.008   6.098  0.1020  0.0089  0.2583
79553W        W22470   8.255   8.465   7.137 -0.2767 -0.0917  0.1963
79554W        W22471  10.956   9.163  10.003  0.3085  0.0417 -0.1299
79555W        W22472   8.689   6.849   5.726  0.2638  0.1602  0.0976
79556W        W22473   9.178   7.445   3.166  0.0214 -0.2167 -0.0358
79557W        W22474   8.245   6.792   3.950  0.1224  0.0579 -0.2352
79558W        W22475   8.765   9.669   7.517  0.4283  0.0618 -0.0117
79559W        W22476   8.820  10.320   3.828 -0.0723  0.1681 -0.0423
79560W        W22477  10.262   9.623   2.877  0.1496  0.1066 -0.3114
79561W        W22478   7.975   6.437   5.419 -0.0518 -0.0267 -0.1084
79562W        W22479   8.477  10.606   6.618  0.2747  0.0117 -0.1365
79563W        W22480  12.778   9.030   4.895  0.0555 -0.5586  0.0549
79564W        W22481  10.997   8.710   3.725 -0.0224  0.0084 -0.0494
79565W        W22482   9.810   8.971   5.882  0.2493  0.1643 -0.0931
79566W        W22483   8.369   9.450   7.239 -0.0516 -0.0506 -0.4268
79567W        W22484   9.897   7.331   5.103 -0.1347 -0.1896 -0.0198
79568W        W22485   8.019   6.893   3.470  0.1231  0.1288  0.3133
79569W        W22486  10.810   7.954   5.797  0.0976  0.1091  0.1493
79570W        W22487  11.198   8.543   5.948  0.1476 -0.1652 -0.3718
79571W        W22488   8.267   9.220   5.488 -0.2002 -0.1963 -0.0536
79572W        W22489   8.391   8.176   6.690  0.2606  0.0990 -0.1288
79573W        W22490   9.985  10.030   6.019  0.2414  0.1466  0.3546
79574W        W22491  11.676   8.276   3.006 -0.2898  0.0185  0.0853
79575W        W22492   9.576   7.804   6.980  0.1379  0.0859 -0.1506
79576W        W22493   8.250   8.339   4.454 -0.2899  0.0650 -0.3208
79577W        W22494  10.329   8.543   1.693  0.1681 -0.1282  0.2003
79578W        W22495   9.538   8.646   5.288  0.0720  0.2129 -0.1366
79579W        W22496   9.308   9.155   5.776  0.1364  0.3648 -0.1392
79580W        W22497   8.682   5.734   2.294  0.2059 -0.0082  0.2729
79581W        W22498   8.717   7.306   5.912 -0.0965  0.0196 -0.0129
79582W        W22499   8.758  10.005   4.824 -0.1736 -0.0787 -0.0438
79583W        W22500   9.801   9.638   3.127  0.0294 -0.3375  0.1255
79584W        W22501  10.073   8.800   3.957 -0.0803 -0.1053  0.2934
79585W        W22502   7.340   6.332   5.118  0.2311  0.0393  0.1566
79586W        W22503   9.534   9.166   6.252 -0.1081  0.1589  0.0444
79587W        W22504   8.266   7.170   5.750  0.0128 -0.1185  0.1342
79588W        W22505   7.173   8.730   3.018  0.1150 -0.1047  0.0773
79589W        W22506   9.046  10.171   5.979 -0.0160 -0.4814 -0.1411
79590W        W22507   9.440   9.530   6.577  0.1680  0.2403 -0.0228
79591W        W22508  10.525   6.488   4.852  0.2887 -0.1005  0.0717
79592W        W22509  10.941   8.700   6.908  0.0661  0.2009 -0.1963
79593W        W22510   7.700   9.474   6.535  0.0002 -0.2254  0.0859
79594W        W22511   8.723   6.365   6.011  0.0028 -0.0059  0.2299
79595W        W22512   9.284   9.017   5.271  0.1047  0.1818 -0.2535
79596W        W22513   8.418  11.184   4.102 -0.2185 -0.1238 -0.2371
79597W        W22514   7.932   9.542   5.749  0.3196 -0.1540 -0.1058
79598W        W22515   7.344   6.382   7.064  0.0727  0.0698 -0.3796
79599W        W22516  10.627   7.552   4.247 -0.0997  0.0500  0.3799
79600W        W22517   9.815   9.475   3.656 -0.3123 -0.0657 -0.0834
79601W        W22518   9.167  10.576   7.762  0.1723 -0.1709  0.0924
79602W        W22519   9.191  10.708   6.164  0.1081 -0.2243 -0.2371
79603W        W22520   8.474   7.873   6.313 -0.1726 -0.0871 -0.1041
79604W        W22521  10.363   9.282   6.862  0.0082 -0.4039  0.3846
79605W        W22522  11.337   8.051   6.086 -0.3404  0.0373  0.0011
79606W        W22523   8.419   9.681   5.606 -0.4149 -0.0253 -0.0596
79607W        W22524   6.853   8.996   5.407 -0.0283 -0.2771  0.2205
79608W        W22525   8.593   9.749   6.971  0.0654  0.1612 -0.1660
79609W        W22526  10.175   8.909   4.972 -0.0875  0.0911 -0.0171
79610W        W22527   6.798   5.617   3.624 -0.0578 -0.1432  0.2578
79611W        W22528   8.832   8.572   3.173  0.1695  0.1833 -0.5834
79612W        W22529   7.866  10.114   6.952 -0.0097 -0.2823  0.2873
79613W        W22530   9.091  11.120   5.873  0.0858 -0.1827  0.2627
79614W        W22531   9.559  10.123   4.892  0.0153 -0.2890 -0.1495
79615W        W22532   9.011   9.757   4.484 -0.1192  0.0778  0.1561
79616W        W22533   8.768   8.264   4.461 -0.0591  0.0375  0.1677
79617W        W22534   9.932  11.256   4.050 -0.1324  0.0692  0.1062
79618W        W22535  10.051   8.542   3.498  0.1403  0.0799  0.0232
79619W        W22536   7.107  10.094   4.775 -0.1644  0.1524  0.0845
79620W        W22537   7.260  10.326   4.151  0.2450 -0.0727  0.0457
79621W        W22538   9.065  10.756   3.723  0.0706  0.0649  0.0465
79622W        W22539   9.118   8.680   4.424  0.2801 -0.0879  0.2520
79623W        W22540   9.700  12.376   9.185  0.1582 -0.1929 -0.1037
79624W        W22541  10.530   7.285   4.702  0.0871  0.2054 -0.0488
79625W        W22542  10.590   9.441   5.686  0.0183  0.0719 -0.1884
79626W        W22543  10.248   9.535   3.373  0.0765 -0.1762  0.0716
79627W        W22544   9.232   8.406   7.518 -0.1077 -0.0667  0.4926
79628W        W22545   8.197   8.599   5.529 -0.2099 -0.1395 -0.0554
79629W        W22546   8.448   7.205   1.846 -0.2071 -0.1301  0.1936
79630W        W22547   8.974   7.682   7.382  0.1709 -0.0955  0.1670
79631W        W22548  10.777   7.890   6.720 -0.0550  0.0111 -0.1888
79632W        W22549   6.956   9.869   6.229 -0.1388 -0.0976  0.2618
79633W        W22550   8.756  10.977   3.197  0.3263 -0.2726  0.0251
79634W        W22551   5.656   8.454   4.113 -0.1213 -0.5635  0.1634
79635W        W22552   7.456   8.536   1.854 -0.0355 -0.0586  0.0004
79636W        W22553  10.017   9.263   6.334  0.2706  0.2981 -0.0794
79637W        W22554   9.156   8.930   3.171  0.3654 -0.0850  0.1445
79638W        W22555   9.483   7.716   6.411  0.0195  0.0449 -0.1812
79639W        W22556   9.348   9.497   5.376 -0.1036  0.1831  0.3089
79640W        W22557   9.429   7.713   5.233 -0.0444 -0.2111  0.0786
79641W        W22558   8.165   9.606   5.044  0.0938  0.3916  0.1775
79642W        W22559   5.674   7.811   4.852 -0.0764  0.1134 -0.0069
79643W        W22560  10.721   9.893   2.855 -0.1715  0.1732  0.0025
79644W        W22561   7.934   8.193   6.277  0.1984 -0.1619 -0.2907
79645W        W22562  11.908   8.084   5.916 -0.1056 -0.2461 -0.0058
79646W        W22563   6.632   7.113   3.813 -0.1864 -0.2025  0.0958
79647W        W22564  10.988   6.799   3.979 -0.1289  0.0418  0.0149
79648W        W22565   8.606   8.828   5.820 -0.2280  0.1135  0.1006
79649W        W22566   9.955   7.717   6.107 -0.0367  0.0288 -0.0613
79650W        W22567   8.931   8.753   1.386 -0.0552  0.1281  0.0027
79651W        W22568   9.800   8.209   6.050 -0.0740  0.3484  0.1163
79652W        W22569  11.712   7.971   3.992  0.1632 -0.1506  0.0048
79653W        W22570   9.182   9.934   6.733 -0.2184  0.0737  0.1531
79654W        W22571   7.843   7.453   5.607 -0.0552 -0.1242 -0.2360
79655W        W22572   9.079   6.295   5.139 -0.2560 -0.0112 -0.0972
79656W        W22573   7.795   6.933   3.945 -0.1006 -0.1301  0.1284
79657W        W22574   7.963  11.099   5.775 -0.3058  0.1177  0.0124
79658W        W22575  11.962  11.927   5.987  0.0797 -0.1033  0.0633
79659W        W22576   6.997   7.259   6.040 -0.0015 -0.0507  0.1977
79660W        W22577  10.220  10.646   4.493 -0.0411 -0.0399 -0.0450
79661W        W22578  10.733  10.815   5.893 -0.2389 -0.2650 -0.1542
79662W        W22579   8.980   9.332   3.493  0.0151  0.0613 -0.0385
79663W        W22580  10.038   9.509   4.867 -0.2747  0.1973  0.0812
79664W        W22581  11.337  10.220   7.552 -0.0353  0.1698 -0.1161
79665W        W22582   7.992   9.002   5.155  0.0239 -0.0888  0.1758
79666W        W22583   9.242  11.598   5.071 -0.1599  0.0552 -0.2336
79667W        W22584  11.849   9.349   4.929 -0.0460  0.3250  0.2067
79668W        W22585   8.727   6.469   4.215 -0.0270 -0.0791  0.1887
79669W        W22586   8.539   7.650   5.091 -0.1863  0.1054  0.2143
79670W        W22587   6.561   8.865   4.996  0.0339  0.3925 -0.3992
79671W        W22588   9.163   9.783   5.023 -0.0455 -0.0875 -0.0869
79672W        W22589   9.696   7.233   6.897  0.2591 -0.1876  0.2381
79673W        W22590   8.719  11.498   2.981 -0.1453 -0.5453 -0.0638
79674W        W22591  10.412   6.211   6.126  0.1987  0.1026 -0.2306
79675W        W22592   8.668   7.798   5.898  0.1728  0.2606 -0.3565
79676W        W22593   9.632   9.288   7.206  0.3619 -0.1057 -0.0972
79677W        W22594   9.094   8.622   4.994 -0.0253 -0.1772  0.0621
79678W        W22595  10.351   7.060   5.466  0.4491  0.1315 -0.0189
79679W        W22596   8.581   8.052   3.466 -0.2348  0.5503 -0.1119
79680W        W22597   8.351  10.024   3.933  0.0531 -0.0040  0.2030
79681W        W22598  10.900   9.225   5.375  0.1975  0.0078  0.0359
79682W        W22599   9.180   5.056   4.668  0.2170  0.0587  0.0882
79683W        W22600  11.809  10.666   4.682 -0.1693 -0.1449 -0.1419
79684W        W22601   7.182   7.054   4.450 -0.0500  0.0921 -0.1614
79685W        W22602  12.154   8.681   4.508  0.0620 -0.0087  0.2067
79686W        W22603  10.005   9.958   5.121  0.3280  0.2188 -0.3258
79687W        W22604  10.774  10.730   5.431  0.1289  0.2805  0.1664
79688W        W22605   8.286   6.460   4.993  0.0788 -0.4063 -0.0564
79689W        W22606   7.674   8.129   3.582  0.1097  0.0888  0.0979
79690W        W22607   8.547  11.006   4.577  0.0472 -0.0028 -0.3453
79691W        W22608   8.657   7.086   7.599  0.1474 -0.2003 -0.2363
79692W        W22609   6.997   9.466   8.323 -0.4071  0.2598  0.3772
79693W        W22610   7.202   9.498   6.463  0.1218 -0.0431 -0.0734
79694W        W22611   7.162   7.969   4.402  0.0302 -0.0311  0.1167
79695W        W22612  10.796   8.612   4.611 -0.0016 -0.1145 -0.0372
79696W        W22613   7.465   7.299   5.920  0.1168  0.1756  0.2620
79697W        W22614   7.948   8.211   4.879 -0.0558  0.2034 -0.2567
79698W        W22615   8.536  10.151   5.247 -0.0007  0.0498  0.0355
79699W        W22616  11.827  10.209   3.953 -0.4962  0.0154  0.1730
79700W        W22617   9.940   7.085   4.586 -0.3895  0.0318  0.0690
79701W        W22618  10.058  11.760   8.686 -0.2089  0.1193 -0.0492
79702W        W22619   8.480   9.091   4.362  0.1941  0.0545 -0.0117
79703W        W22620  10.426   7.058   6.003 -0.1803 -0.2363 -0.1230
79704W        W22621   8.348   6.912   7.226  0.0194 -0.0207 -0.0684
79705W        W22622   7.291   4.818   2.108  0.1306 -0.0616  0.2293
79706W        W22623   9.551   7.234   6.102 -0.5881  0.0868  0.0699
79707W        W22624   9.751  12.309   4.059  0.2015 -0.0802 -0.2676
79708W        W22625   8.504  11.797   4.003  0.1222  0.0193 -0.0193
79709W        W22626   8.754   7.803   4.322 -0.0557 -0.1667 -0.1133
79710W        W22627   8.866   8.635   7.784 -0.2567  0.0401 -0.2370
79711W        W22628   7.127   8.015   6.312  0.2308  0.1833  0.1634
79712W        W22629  10.520   9.454   4.725 -0.0652 -0.4377 -0.2684
79713W        W22630   8.046  11.673   5.218 -0.1654 -0.2238  0.0517
79714W        W22631  11.362  10.383   4.797 -0.1248 -0.1023  0.0916
79715W        W22632  10.728   9.777   5.177 -0.1184  0.0312  0.0039
79716W        W22633   7.430   8.513   4.802 -0.2708 -0.0095  0.3630
79717W        W22634   7.463   9.058   6.555 -0.0275 -0.0287  0.1184
79718W        W22635   6.237   8.486   6.347 -0.0491  0.0279 -0.2461
79719W        W22636   9.122   9.747   6.292  0.6678  0.0188  0.1470
79720W        W22637   9.205   7.557   5.938 -0.2625 -0.4318  0.1226
79721W        W22638   9.267   6.745   5.228 -0.1191 -0.0191  0.1168
79722W        W22639   8.852   7.298   4.435  0.1559  0.0499 -0.0877
79723W        W22640   6.826   8.475   5.634 -0.0887 -0.2151 -0.2359
79724W        W22641   7.785   6.947   5.599  0.0298  0.1491 -0.0864
79725W        W22642  10.114  10.458   7.306  0.0779 -0.0498 -0.1289
79726W        W22643  10.343   8.072   6.121  0.0002 -0.2309  0.1254
79727W        W22644  10.578   8.439   5.860  0.1415 -0.2209  0.2992
79728W        W22645   8.752   8.517   2.289  0.0305 -0.1456 -0.0192
79729W        W22646  11.478   8.524   3.801  0.1616  0.0903  0.2693
79730W        W22647  10.817   8.163   5.002  0.5010  0.1155  0.1829
79731W        W22648   9.488  11.024   8.543  0.2175  0.0787 -0.0426
79732W        W22649   9.304   8.943   7.368  0.2241 -0.1122 -0.1011
79733W        W22650  11.596   9.754   4.737 -0.0165 -0.0534 -0.1965
79734W        W22651   9.456   6.675   5.987  0.0008  0.2145  0.2258
79735W        W22652   9.193   9.684   5.813 -0.2213 -0.0126  0.1212
79736W        W22653   9.123   6.517   5.628  0.2123 -0.1317 -0.0744
79737W        W22654  11.280   6.752   5.447  0.3124 -0.3676  0.0717
79738W        W22655   8.494   7.179   4.945 -0.0882 -0.1327 -0.0661
79739W        W22656   8.936   8.842   3.652  0.1169 -0.0810  0.0213
79740W        W22657   7.950  12.997   3.500 -0.1198 -0.1205 -0.1992
79741W        W22658  10.197   7.351   4.182  0.1530 -0.1381  0.4104
79742W        W22659   9.205  10.006   8.248  0.0891 -0.1696  0.1626
79743W        W22660   8.853   8.156   7.713 -0.0008  0.0352 -0.3088
79744W        W22661   9.610   7.831   5.723 -0.0710 -0.0065 -0.0638
79745W        W22662  11.594  10.579   9.050 -0.2691  0.2366 -0.0051
79746W        W22663   8.443   7.890   9.333  0.0633  0.0691  0.0499
79747W        W22664  11.517  11.250   7.241  0.1149  0.1681  0.0335
79748W        W22665   7.828   8.384   9.480  0.2154  0.0829  0.1325
79749W        W22666   8.700  10.197   9.284 -0.2283 -0.2217  0.0046
79750W        W22667   7.759  10.618   4.236 -0.1516  0.1709 -0.1121
79751W        W22668  10.443   8.539   9.591 -0.0539 -0.1067 -0.1432
79752W        W22669   7.412   7.603   6.383 -0.1337 -0.0953 -0.0605
79753W        W22670   6.957  11.727   9.003  0.0031 -0.0017  0.0315
79754W        W22671  10.566   7.783   8.640  0.0163  0.0908  0.3119
79755W        W22672   7.883   9.612   8.690  0.0554 -0.3258 -0.2382
79756W        W22673   5.596  11.004   8.781 -0.0126 -0.0859 -0.0208
79757W        W22674   7.249   7.860  10.097 -0.0734 -0.2505  0.0617
79758W        W22675   7.831  10.984   8.720 -0.1468  0.0303  0.1859
79759W        W22676  10.157   9.764   7.252  0.0331 -0.3904  0.0849
79760W        W22677   9.467  10.969   7.456 -0.1566  0.2427 -0.1300
79761W        W22678   7.748   8.404   5.806  0.1176 -0.0310 -0.1088
79762W        W22679   6.639   8.461   9.607  0.0566 -0.2926  0.3010
79763W        W22680   7.014   7.376   9.017 -0.1368 -0.2406 -0.3061
79764W        W22681   9.934   9.882   8.889 -0.4410  0.1334 -0.0798
79765W        W22682  10.973   9.528   8.609 -0.1580 -0.3682  0.0237
79766W        W22683  10.079  11.704   8.191  0.1251  0.1681 -0.1744
79767W        W22684  11.234   9.446   9.007 -0.2552  0.0260 -0.0465
79768W        W22685   7.969  11.510   9.911 -0.1273  0.0836  0.1169
79769W        W22686   7.024  10.383   8.277 -0.0501  0.2048 -0.0792
79770W        W22687  10.192  11.235   8.039  0.2503 -0.0026 -0.1499
79771W        W22688  11.836  11.548   8.065  0.2812 -0.0036  0.3224
79772W        W22689   8.201  10.016   7.787 -0.2136 -0.0698 -0.1217
79773W        W22690   9.272  11.331   9.052 -0.0093 -0.1464 -0.0287
79774W        W22691   9.432  10.080   8.711 -0.1828 -0.2698  0.0560
79775W        W22692   7.510   8.472   9.081 -0.2498 -0.1408  0.2218
79776W        W22693   9.547   9.946   9.151 -0.1186 -0.0335  0.0355
79777W        W22694   7.699  10.938   8.262 -0.0853 -0.1236  0.1868
79778W        W22695   6.518   8.853   7.077  0.2156  0.1226  0.2941
79779W        W22696  10.438   7.790   5.000 -0.1777  0.2359 -0.2143
79780W        W22697   8.695   7.195   6.815 -0.2587  0.1010 -0.4232
79781W        W22698  10.972   6.971   6.607 -0.1924  0.1929  0.0113
79782W        W22699  10.439   9.352  10.081 -0.1897  0.2598 -0.2810
79783W        W22700   6.833  10.714   9.680 -0.3175  0.1290  0.0106
79784W        W22701  10.154   8.651   9.109 -0.0114  0.4148  0.0086
79785W        W22702   8.654   8.803   7.335  0.4685  0.2663 -0.0737
79786W        W22703  10.688   5.938   8.143 -0.2464  0.2651  0.1961
79787W        W22704   6.618   9.631   8.030  0.2495  0.0267  0.1757
79788W        W22705   8.715   6.705   8.183 -0.0738 -0.0234 -0.2137
79789W        W22706  10.385  10.032   6.338  0.0426  0.0685 -0.4253
79790W        W22707  12.349   7.664   8.999 -0.0774  0.1891 -0.1768
79791W        W22708   8.372   9.958   7.332  0.1258 -0.1524 -0.1365
79792W        W22709   9.096   9.537   7.858 -0.2494 -0.0380 -0.0269
79793W        W22710   7.218   8.575   6.171 -0.4729  0.0903  0.1698
79794W        W22711   9.360   8.470   8.501 -0.2889  0.2129  0.0376
79795W        W22712  10.790  12.473   9.789  0.0371 -0.1444 -0.1912
79796W        W22713  10.889   9.855   8.959  0.3065  0.0503  0.0578
79797W        W22714  10.276   8.492   6.342 -0.0409  0.1059 -0.2301
79798W        W22715   8.603   8.321   9.119 -0.1776 -0.1640 -0.0532
79799W        W22716  11.882   7.525   9.070  0.3749 -0.2016  0.0373
79800W        W22717   7.287   8.324   7.901 -0.0131 -0.0613 -0.0473
79801W        W22718   8.032   7.892   8.767 -0.4925  0.1996 -0.0597
79802W        W22719   9.858  11.891   9.097  0.3080  0.2101  0.0842
79803W        W22720   9.160   8.729   6.567 -0.0596  0.0441  0.3420
79804W        W22721  10.691  12.280   9.149 -0.1096  0.0641  0.0791
79805W        W22722   7.189  10.204   6.906 -0.1944 -0.2090  0.1631
79806W        W22723   3.843   7.962   9.644  0.3278 -0.4402 -0.4715
79807W        W22724   8.417   6.668   7.715 -0.1332  0.0255  0.1522
79808W        W22725   5.992   8.808   8.107  0.0592 -0.0478 -0.0583
79809W        W22726   7.167   7.552   9.622 -0.2373 -0.1720 -0.0331
79810W        W22727   9.983   4.464   6.636 -0.0951 -0.2578 -0.2590
79811W        W22728   9.104   8.556   9.057  0.1434  0.1454 -0.0905
79812W        W22729   7.812  10.747   9.321 -0.0097 -0.0200  0.0538
79813W        W22730  12.295  11.579   9.909 -0.3763  0.0521 -0.0660
79814W        W22731  10.956   9.223   7.188 -0.0494 -0.0351 -0.0936
79815W        W22732   9.402   8.282   6.702 -0.0777 -0.0869 -0.1526
79816W        W22733   8.154   4.359   8.858 -0.0889 -0.0468  0.1809
79817W        W22734   6.850   8.631   7.753 -0.1420 -0.0944  0.0768
79818W        W22735   9.371   7.083   8.596 -0.0311 -0.0443  0.1073
79819W        W22736   7.740   7.506   8.934 -0.0941 -0.1640 -0.2341
79820W        W22737  10.452   8.277   6.720  0.5295  0.0284 -0.0980
79821W        W22738   9.518   9.641   8.065  0.0829  0.2562 -0.0771
79822W        W22739   6.750   7.601   7.546 -0.0394 -0.1968  0.0477
79823W        W22740   8.181  10.800   8.370  0.0484  0.0784  0.0078
79824W        W22741  12.402  10.666   9.502  0.0309 -0.3762  0.1388
79825W        W22742  11.574  11.093   7.747  0.1555 -0.0177 -0.0770
79826W        W22743   5.535  10.143   8.948 -0.0373 -0.0354 -0.1458
79827W        W22744   6.649   9.359   6.335  0.0942  0.0929 -0.1910
79828W        W22745   8.442  12.382   9.639  0.2256 -0.0561  0.0397
79829W        W22746   6.774   8.559   8.953 -0.0475 -0.0037  0.0438
79830W        W22747   8.130   7.334   7.432  0.1154 -0.0857  0.4439
79831W        W22748  12.167  11.919   8.727  0.1456 -0.0894 -0.1659
79832W        W22749   6.222   9.411   6.539 -0.0183 -0.1965 -0.2542
79833W        W22750  10.794   6.329   9.613 -0.1072 -0.0896  0.0214
79834W        W22751   9.207   9.513   9.439  0.2538  0.1172  0.0667
79835W        W22752   6.676   7.985   8.239  0.0113 -0.2496 -0.1712
79836W        W22753   7.858  10.649   7.911 -0.0646 -0.2126  0.0957
79837W        W22754   8.457   9.321   6.796 -0.3750 -0.1522 -0.2044
79838W        W22755   6.970   8.279  10.089 -0.3238  0.1536 -0.2688
79839W        W22756  10.099  11.892   7.266 -0.5682  0.3324  0.0436
79840W        W22757  11.974   7.771   8.095 -0.1479 -0.0640  0.2104
79841W        W22758   7.834   7.728   7.316 -0.2295  0.2327  0.0073
79842W        W22759  10.999   7.128   9.378 -0.1177  0.0952  0.2597
79843W        W22760  10.194   7.036   8.742 -0.0441  0.1011 -0.0894
79844W        W22761  10.389  10.572   8.940 -0.0143 -0.0492  0.1190
79845W        W22762   8.885   9.245   5.559  0.2592  0.0925 -0.0650
79846W        W22763   9.592   5.899   5.939  0.1140 -0.0802  0.1031
79847W        W22764   9.497   9.274   7.728  0.5292  0.4089 -0.2056
79848W        W22765   8.630   9.692   9.647  0.0348 -0.0964 -0.1155
79849W        W22766   8.546   8.571   8.174 -0.2296 -0.0905  0.1084
79850W        W22767  11.266  10.679   8.456 -0.0411  0.0445 -0.0366
79851W        W22768   6.582   9.329   9.482 -0.0654  0.0000  0.0275
79852W        W22769   9.216   9.153   8.181  0.1656 -0.2562 -0.1932
79853W        W22770   7.050   9.613   9.522 -0.1378 -0.2205  0.0489
79854W        W22771   9.230   8.328   8.027 -0.1065 -0.3566  0.0974
79855W        W22772   9.650   8.238   7.226  0.2028  0.0744  0.1915
79856W        W22773   7.112  11.592   5.387 -0.3691 -0.1082 -0.3720
79857W        W22774  11.863   4.255   9.258 -0.3142  0.3000 -0.0523
79858W        W22775   9.066   7.766   7.962 -0.0385 -0.2438  0.0628
79859W        W22776   9.973   8.946   7.045  0.5307 -0.0522 -0.1963
79860W        W22777  11.120  11.091   9.234 -0.0885 -0.0399 -0.1161
79861W        W22778   9.928   7.892   7.554  0.0885  0.1913 -0.0147
79862W        W22779   9.915  10.650   8.511 -0.0488 -0.0021 -0.3308
79863W        W22780   8.845  12.034   9.363  0.7109 -0.4657  0.0475
79864W        W22781   9.546   9.443   9.082 -0.4130 -0.0666  0.2473
79865W        W22782   9.130   7.247   7.719 -0.0916  0.0860  0.1273
79866W        W22783   7.959  11.888   7.857 -0.1030  0.2097  0.0458
79867W        W22784   9.191  10.652   7.080  0.1991 -0.2844 -0.0126
79868W        W22785   6.207   8.641   9.746 -0.1541  0.0716  0.2745
79869W        W22786   6.095   9.634   9.539 -0.3598  0.2328  0.0683
79870W        W22787   7.863   9.912   6.426 -0.1439 -0.1265  0.0380
79871W        W22788   8.216   7.607   9.732 -0.0644 -0.6301 -0.1537
79872W        W22789   8.234   9.843   6.062 -0.0244 -0.1887  0.0519
79873W        W22790   9.739   8.225   8.329 -0.4240 -0.2351 -0.0475
79874W        W22791   7.383  11.235   8.487  0.1607 -0.1336 -0.1208
79875W        W22792   5.725   9.772   5.785 -0.0556  0.0025 -0.1636
79876W        W22793   9.967  12.034  10.128  0.1548  0.1214  0.1816
79877W        W22794   9.580  10.227   7.922 -0.0980  0.1626  0.2758
79878W        W22795  10.400   9.283   8.662 -0.2422 -0.0604  0.4036
79879W        W22796   9.262   6.963   8.131 -0.2240  0.1377 -0.2372
79880W        W22797   7.533   9.541   9.040 -0.0335 -0.0951 -0.2181
79881W        W22798   9.984   9.603   8.446  0.0128  0.1891  0.0269
79882W        W22799   7.233   8.625   7.439 -0.0824  0.0605 -0.0377
79883W        W22800  13.072   8.443   8.932  0.2095 -0.1447 -0.0413
79884W        W22801   8.906   6.182   8.452  0.1250  0.1828 -0.0966
79885W        W22802   9.640  11.537   8.395  0.1975 -0.2887  0.3769
79886W        W22803   9.989  10.072   9.395 -0.0260  0.2049  0.2316
79887W        W22804   8.629   9.543   8.585  0.0526 -0.1014 -0.0657
79888W        W22805   7.183  12.081   7.513 -0.2750  0.1999 -0.2051
79889W        W22806   9.525   9.280   8.568 -0.0246 -0.0392 -0.0032
79890W        W22807  13.630   6.315  10.618 -0.1300 -0.2790  0.0311
79891W        W22808   9.636   6.622   8.410  0.1764  0.3945 -0.4126
79892W        W22809   9.828  10.432   8.985 -0.2580 -0.0447 -0.1152
79893W        W22810   8.784  10.693   9.187  0.4150  0.1268  0.1879
79894W        W22811  11.140  10.834   7.502 -0.1626  0.2138  0.0997
79895W        W22812  11.133   7.720   9.239  0.0789 -0.2542  0.1574
79896W        W22813  10.644   8.962   7.838  0.0966 -0.1248 -0.0109
79897W        W22814   7.696   9.404   7.029  0.0088  0.2723 -0.1060
79898W        W22815   5.764  10.708   7.894  0.0621  0.0036 -0.3214
79899W        W22816   8.057  10.116   5.089  0.0309  0.0499  0.0237
79900W        W22817   8.012   8.828   7.632 -0.1690 -0.0111 -0.1151
79901W        W22818   7.387   9.997   9.209  0.1688 -0.2440  0.0020
79902W        W22819   7.867   9.784   7.305  0.2737 -0.0439 -0.0161
79903W        W22820   8.377   9.735   9.047 -0.1104 -0.1703  0.1306
79904W        W22821  11.065   6.525   6.483 -0.2270 -0.2109 -0.1398
79905W        W22822   8.756  10.276   7.910 -0.0056  0.1355 -0.3010
79906W        W22823   9.711   7.244  11.930 -0.3294  0.2278 -0.0110
79907W        W22824   9.663   8.255   7.816 -0.1589  0.1044 -0.1477
79908W        W22825  10.153   8.004   8.470  0.1087  0.1361  0.3026
79909W        W22826   9.067   9.559   8.388  0.4678 -0.1561 -0.1795
79910W        W22827   9.704   7.002   7.398  0.1291  0.0238  0.1643
79911W        W22828   8.725   9.047   9.582  0.2790 -0.0341 -0.2469
79912W        W22829   8.539   9.816   8.129 -0.1366 -0.2734 -0.2633
79913W        W22830   5.172   9.272   9.236 -0.2505 -0.1766 -0.2254
79914W        W22831   9.055   7.034   6.146  0.1540  0.1424 -0.3600
79915W        W22832  10.959   8.043   8.090 -0.3511 -0.2169  0.3140
79916W        W22833   9.219  12.404   9.005  0.2036 -0.2116 -0.0305
79917W        W22834  10.440   7.126   9.531 -0.0672  0.0833  0.2919
79918W        W22835  10.401   7.706   6.475  0.0197  0.3513 -0.1769
79919W        W22836   8.518  10.065   8.539 -0.2029  0.2285 -0.2741
79920W        W22837   8.780   8.196   8.270 -0.1072 -0.0682 -0.1282
79921W        W22838   8.733   8.957   8.617 -0.3382  0.0099  0.0816
79922W        W22839   7.027  10.117   8.785  0.0134  0.1845 -0.0775
79923W        W22840  10.858   9.384   7.765 -0.2055  0.1127 -0.2488
79924W        W22841  12.593   8.245   8.947 -0.1414 -0.0206  0.2636
79925W        W22842  11.059   7.571   8.671 -0.0368 -0.3258  0.0722
79926W        W22843   9.143   8.024   7.084  0.1382  0.1754 -0.1697
79927W        W22844   6.824   6.529   9.196 -0.1114  0.1112  0.1390
79928W        W22845   9.475   7.411   7.304  0.0279 -0.1057  0.0060
79929W        W22846   8.368  10.460   8.759  0.1537  0.1584  0.1676
79930W        W22847   8.877   9.125   7.693  0.0755  0.0492  0.1741
79931W        W22848  10.347   7.782   6.960  0.0025 -0.1887  0.1910
79932W        W22849   6.872   6.855  10.185 -0.0774  0.3360  0.0912
79933W        W22850   8.854   6.957   8.631 -0.2190  0.1439  0.3225
79934W        W22851   7.997   8.153   7.569 -0.0498  0.3431 -0.0714
79935W        W22852   7.833  10.399   8.372  0.1204 -0.1680 -0.1255
79936W        W22853   9.413   7.876   7.567  0.1398  0.3722 -0.1249
79937W        W22854   8.615  11.110   5.650 -0.2993 -0.1203 -0.2413
79938W        W22855   8.356   7.015   8.350  0.2095  0.0572  0.1781
79939W        W22856   6.151   8.301  10.184 -0.1340  0.2714  0.4180
79940W        W22857   6.367   9.492   7.497  0.1372 -0.1602 -0.2799
79941W        W22858   7.405  11.701   9.800  0.2365 -0.0407 -0.0855
79942W        W22859   8.372   8.412   7.680 -0.1361  0.0123 -0.3254
79943W        W22860   7.775  11.436   8.183  0.3611  0.0428  0.2445
79944W        W22861   8.779   9.438   9.188 -0.1473 -0.0475 -0.2091
79945W        W22862  13.289  10.661   9.753 -0.3521 -0.0657 -0.0825
79946W        W22863   7.156   8.797   8.146  0.2061  0.0560  0.1986
79947W        W22864  10.456   7.890   7.487  0.2117 -0.0672 -0.0345
79948W        W22865  10.771   7.561   9.556  0.0906 -0.0090 -0.1263
79949W        W22866   8.350  10.700   5.900  0.1244  0.2766 -0.1583
79950W        W22867   6.082  10.763   9.397  0.0240  0.2667  0.1876
79951W        W22868   9.057  10.937   6.625  0.0889  0.0408  0.2879
79952W        W22869  10.423   8.744   6.951  0.3036  0.2926  0.0520
79953W        W22870   8.288  10.321   8.155  0.0902  0.0310 -0.1415
79954W        W22871  11.858  10.784   8.567  0.0686 -0.2489  0.1441
79955W        W22872   6.536   9.146   8.897 -0.2556  0.2436  0.0199
79956W        W22873   6.919  10.592   8.847 -0.1199 -0.2508  0.2059
79957W        W22874   7.360   9.038   5.993  0.0359 -0.3895 -0.1448
79958W        W22875   9.577  10.165   6.396 -0.0934  0.2067 -0.2821
79959W        W22876   8.331  12.169   9.157  0.1328  0.1699  0.1468
79960W        W22877   9.144   6.478   6.764 -0.1281 -0.0621  0.1851
79961W        W22878   9.942   7.604   6.711  0.2212 -0.2514 -0.0461
79962W        W22879  11.535   6.583   7.307 -0.1531 -0.1642  0.2493
79963W        W22880   5.202   7.800   9.122  0.0062  0.0767  0.1041
79964W        W22881  10.104   6.099   6.483 -0.0288 -0.2802  0.1157
79965W        W22882  10.717   8.314   7.747  0.0816 -0.1957 -0.2754
79966W        W22883   7.135   7.872   7.829  0.3065 -0.3760  0.1705
79967W        W22884   8.465   7.882   7.582  0.0926 -0.0045 -0.1884
79968W        W22885  11.876   8.004   9.170 -0.0867 -0.0254  0.2193
79969W        W22886   9.866  10.827   7.201  0.3299 -0.2251 -0.0236
79970W        W22887  13.877   9.258  10.139  0.1899  0.2514  0.1783
79971W        W22888   8.984  11.534   5.641  0.2480 -0.0858 -0.0308
79972W        W22889   8.091  11.150   7.977  0.1470  0.3602  0.3404
79973W        W22890   6.070  10.637   8.920  0.1802 -0.1925  0.1784
79974W        W22891   8.763   7.570   9.082  0.1084  0.1856  0.0343
79975W        W22892  12.067   7.141   9.366 -0.0336  0.1095 -0.0563
79976W        W22893   4.053   9.904   9.705  0.0102  0.3170 -0.1119
79977W        W22894   7.761   8.562   7.289  0.2628 -0.2368 -0.1616
79978W        W22895   9.007   7.191   7.254  0.0871 -0.2965 -0.3862
79979W        W22896   9.852   7.938  11.742  0.0214 -0.0453 -0.3342
79980W        W22897   8.365   9.242   8.853  0.3807 -0.0061  0.1460
79981W        W22898  10.259   7.197   6.866  0.0645 -0.0210 -0.1749
79982W        W22899  10.002   8.499   6.789  0.1211  0.0717  0.2637
79983W        W22900   8.346   8.119   8.128  0.2541  0.1281  0.0908
79984W        W22901   9.826   8.421   8.799 -0.2178 -0.1324  0.1594
79985W        W22902   5.152   7.377  10.014 -0.1877 -0.3673 -0.0454
79986W        W22903   9.528  10.843   9.032  0.2139 -0.0573 -0.1157
79987W        W22904   9.846   8.285   9.657  0.0126  0.4317  0.0533
79988W        W22905   9.960   9.135   7.572 -0.3741  0.1061 -0.2968
79989W        W22906   9.414  11.845   9.405 -0.0081 -0.0956  0.1886
79990W        W22907   8.395  10.599   5.270  0.1112 -0.0576 -0.3449
79991W        W22908   9.510   8.854   8.825 -0.1311  0.1927  0.2250
79992W        W22909   8.793  10.364   7.401 -0.3033  0.1044 -0.0249
79993W        W22910   9.256   8.370   9.501  0.0488  0.1409 -0.0994
79994W        W22911  11.219  11.411   7.599  0.5423  0.2276 -0.0262
79995W        W22912   9.975   8.782   7.960  0.1163  0.1981 -0.1358
79996W        W22913   9.118   5.850   6.989 -0.0566 -0.1014 -0.2262
79997W        W22914  11.603   6.292   9.208  0.0052 -0.0651 -0.2433
79998W        W22915   7.884  12.001   5.541 -0.2588  0.0573 -0.3720
79999W        W22916  11.969   7.889   8.680 -0.0210 -0.0507  0.1999
80000W        W22917   9.901  10.655   7.734 -0.1107 -0.0928  0.1012
80001W        W22918   7.368  10.657   7.554  0.1333 -0.1568  0.1910
80002W        W22919   8.247   9.017   7.118 -0.2698  0.3972 -0.2331
80003W        W22920   8.767   8.925   6.848  0.0773  0.0815  0.0797
80004W        W22921   9.176  10.027   9.495  0.2538  0.1350  0.0978
80005W        W22922   8.690  11.107   8.414 -0.0520  0.1909 -0.0892
80006W        W22923   8.771   8.505   8.669  0.1200 -0.1156  0.3078
80007W        W22924   9.982   8.951   8.697 -0.1639  0.4771 -0.1144
80008W        W22925   8.270   7.950   7.099  0.0188  0.1186  0.1303
80009W        W22926   9.942   8.143   9.178  0.0920 -0.1623 -0.1229
80010W        W22927  10.141   6.665   6.256 -0.1240 -0.2618 -0.2959
80011W        W22928   6.124  11.685   8.654 -0.2694 -0.1543 -0.1979
80012W        W22929   5.873   8.256   8.265  0.0775 -0.0293 -0.0197
80013W        W22930   7.391  10.349   7.971 -0.1706 -0.2804 -0.0221
80014W        W22931   8.113  10.154   9.716  0.3039  0.1917 -0.0297
80015W        W22932   7.449   9.174   8.563  0.0864 -0.0836 -0.0642
80016W        W22933   8.119   8.271   9.110 -0.0044  0.0563  0.0177
80017W        W22934  10.493  11.498   8.555  0.0509  0.0068 -0.1535
80018W        W22935   7.612   8.146   8.728  0.1598 -0.2163 -0.0434
80019W        W22936   9.624   7.891   8.698 -0.0098 -0.3135  0.0139
80020W        W22937  10.451  11.241   8.981 -0.0058  0.0831 -0.0889
80021W        W22938   9.579  10.722   8.079 -0.0202 -0.0366  0.2424
80022W        W22939   7.591   6.853   8.917 -0.1631 -0.0339 -0.3621
80023W        W22940   7.616   7.882   7.890 -0.0057 -0.1977 -0.3602
80024W        W22941   8.116   7.604   8.348  0.1264 -0.1252 -0.2618
80025W        W22942  10.217   7.776   9.464  0.1004 -0.3014 -0.1585
80026W        W22943  10.990  11.227   7.195  0.0998 -0.2173 -0.1757
80027W        W22944   9.705  10.023   8.361  0.0042  0.0654 -0.4302
80028W        W22945   7.036  10.120   9.760 -0.1509  0.0013 -0.1160
80029W        W22946  11.117   9.191   8.118 -0.2142  0.0904 -0.0597
80030W        W22947  10.555   8.633   8.178  0.2998  0.0928  0.4001
80031W        W22948  13.017   7.964   9.786 -0.1933 -0.2352 -0.1199
80032W        W22949   8.857   7.422   6.369 -0.4874  0.0916 -0.2371
80033W        W22950   9.495  13.209   9.136  0.2882 -0.3995 -0.1413
80034W        W22951   7.779   7.177   8.459 -0.3147 -0.0272 -0.0353
80035W        W22952  10.352   6.798   7.346  0.0567  0.2168  0.2323
80036W        W22953   9.790  12.098   8.157  0.2687 -0.0611 -0.1500
80037W        W22954   7.636   7.678   8.397 -0.1051  0.0576 -0.3472
80038W        W22955  10.172   8.279   7.983 -0.0585 -0.0177 -0.1832
80039W        W22956   9.813  12.555   7.920  0.1246  0.0888 -0.0850
80040W        W22957   9.392   8.789   7.851 -0.0589 -0.0856 -0.1349
80041W        W22958   8.014   8.530   8.035  0.1715  0.3250 -0.2144
80042W        W22959   7.267  12.499   9.295  0.0467 -0.1454 -0.2852
80043W        W22960   6.523   9.415   8.469  0.2389 -0.0417 -0.2037
80044W        W22961  11.733   9.743   9.702 -0.0904  0.0918  0.2559
80045W        W22962  11.693   7.255   9.904 -0.3250 -0.2236 -0.2995
80046W        W22963   8.067   9.651   6.875  0.0363  0.2871  0.0583
80047W        W22964   8.530   7.477   7.210 -0.1601  0.0379 -0.3124
80048W        W22965   9.430   6.811  12.114 -0.1390 -0.1984 -0.3148
80049W        W22966   8.680  11.070   9.475  0.0209  0.1279 -0.0646
80050W        W22967  10.640   7.105   7.797  0.0220 -0.1766 -0.3249
80051W        W22968   8.172  10.269   9.161  0.0345 -0.2188  0.3927
80052W        W22969  11.084   6.755   9.869  0.1819 -0.0281 -0.1407
80053W        W22970  10.715  14.085   2.731 -0.2997  0.1241 -0.3926
80054W        W22971   9.607  11.673  31.122 -0.2246 -0.2687  0.1976
80055W        W22972  11.930  11.707  30.587  0.1266 -0.3514 -0.1887
80056W        W22973   9.745  12.501   0.213 -0.1100  0.0054 -0.0046
80057W        W22974   6.524  10.894   1.183 -0.0082  0.0307  0.0811
80058W        W22975   8.967  14.291   1.444  0.1419 -0.0969  0.0019
80059W        W22976   7.294  10.355   3.530  0.0126  0.0086 -0.0235
80060W        W22977   8.971  12.246   0.414  0.1256  0.4131 -0.0557
80061W        W22978  10.191  14.522   3.552  0.0264  0.0424 -0.0367
80062W        W22979   9.180  11.786  31.482 -0.1067  0.1950 -0.0701
80063W        W22980   9.901  13.716   1.386  0.1527 -0.2422 -0.1217
80064W        W22981   9.627  14.886   2.437 -0.3167  0.1416 -0.0877
80065W        W22982  10.085  11.245   0.286  0.0415 -0.3821  0.0931
80066W        W22983   5.969  14.464   2.555  0.1813 -0.3064  0.3848
80067W        W22984  12.032  11.843   2.731 -0.2435 -0.0912  0.4238
80068W        W22985   8.608  12.325   1.602  0.0354 -0.2566 -0.0222
80069W        W22986   8.857  11.718   1.437 -0.3619 -0.1186 -0.1906
80070W        W22987   9.205  11.180   0.361  0.2554 -0.2774 -0.1716
80071W        W22988   8.633  14.979   0.977  0.1061  0.1290  0.3402
80072W        W22989   8.546  10.332   2.084 -0.0637  0.0683 -0.3873
80073W        W22990  10.784  11.633   5.454 -0.1195 -0.3279 -0.0736
80074W        W22991  10.065  14.441   1.440 -0.2161  0.0344  0.2350
80075W        W22992   8.426  12.030   0.102  0.0814 -0.1294  0.2102
80076W        W22993   9.017  12.613   2.464  0.1998 -0.2383  0.4273
80077W        W22994   9.990  14.500   2.962  0.3975 -0.1951 -0.1302
80078W        W22995   9.165  10.657   2.681 -0.1241  0.0585  0.1110
80079W        W22996  10.920  13.849   1.269  0.3195  0.4729  0.0909
80080W        W22997   8.807  14.712   1.313  0.0965 -0.0478  0.0893
80081W        W22998   9.728  14.220   1.165 -0.1024  0.2116 -0.0626
80082W        W22999   9.923  11.018   2.190  0.1389  0.0772 -0.0587
80083W        W23000   9.820  13.883   2.785  0.4014 -0.1718  0.0713
80084W        W23001   8.496  14.726   2.865  0.1224 -0.0374  0.0584
80085W        W23002   8.088  13.748   0.824 -0.3315  0.0407  0.3277
80086W        W23003  10.084  15.687   1.196 -0.2586 -0.2311 -0.2105
80087W        W23004   9.679  15.298   3.254 -0.4178  0.2908 -0.1012
80088W        W23005   9.529  16.081   4.667  0.4457 -0.1481 -0.1391
80089W        W23006   6.964  13.750   0.326  0.0393 -0.2027  0.1315
80090W        W23007  10.926  13.306   1.234  0.2238 -0.3390  0.0520
80091W        W23008   9.035  14.498   4.309  0.0929  0.1199  0.1879
80092W        W23009  11.028  12.870  31.566  0.3394 -0.0109 -0.1072
80093W        W23010   9.885  11.485  31.843 -0.1535 -0.2951  0.0776
80094W        W23011   8.495  11.210   1.411 -0.1863 -0.2931  0.1175
80095W        W23012   8.014  12.492  31.775 -0.0986 -0.0561  0.0470
80096W        W23013   9.818  12.845   2.424  0.1027 -0.0168  0.2712
80097W        W23014   5.739  13.138   2.233  0.0638  0.1226  0.1748
80098W        W23015  12.481  11.430   4.487  0.1959 -0.0480 -0.1027
80099W        W23016   6.573  13.686   1.961  0.1989 -0.1684  0.1631
80100W        W23017   9.216  13.112  31.091 -0.3376  0.0488  0.1222
80101W        W23018   9.767  11.347  30.768  0.0743 -0.2765  0.2503
80102W        W23019  11.869  14.113   1.225  0.2209  0.2950  0.0165
80103W        W23020   9.594  10.657   2.333 -0.0263 -0.1047  0.0154
80104W        W23021   9.023  13.508   2.489  0.2250  0.1440 -0.1151
80105W        W23022   7.746  11.806   1.542  0.1018 -0.0349 -0.1509
80106W        W23023   9.639  13.495   1.768  0.1633 -0.0650  0.0432
80107W        W23024   9.579  10.571   1.363  0.1432 -0.4590 -0.2926
80108W        W23025  10.642  11.755   0.667  0.0671  0.0339  0.3327
80109W        W23026  10.014  15.818   4.210 -0.0705  0.2271  0.1913
80110W        W23027  10.222  13.542   1.837  0.1316 -0.1024  0.1426
80111W        W23028   9.812  16.773   1.094 -0.1647 -0.2699  0.1904
80112W        W23029  10.746  14.058   0.841 -0.0399 -0.0967 -0.0936
80113W        W23030  11.949  14.785   0.508  0.3732 -0.0726  0.0491
80114W        W23031   8.273  13.043   1.499 -0.2947  0.0953 -0.0550
80115W        W23032  10.202  15.258   4.618  0.2093  0.3087 -0.2266
80116W        W23033   9.633  15.192   4.603  0.3372  0.1554 -0.0816
80117W        W23034   6.841  10.925   0.793  0.0107  0.0447 -0.2796
80118W        W23035  12.320  14.943   0.756 -0.1202  0.3245 -0.3590
80119W        W23036   9.252  14.992   2.772 -0.0945  0.0551 -0.0449
80120W        W23037  12.475  12.743   0.091  0.0300  0.1095  0.3998
80121W        W23038   8.772  12.143   2.433 -0.0858 -0.2240 -0.0167
80122W        W23039  11.271  13.720   1.687 -0.0721  0.2073  0.2512
80123W        W23040  10.622  13.424   0.295  0.1827  0.0253  0.1722
80124W        W23041  12.521  12.048   2.491 -0.0962 -0.2329  0.1579
80125W        W23042   9.823  10.161   2.305  0.2117  0.2745  0.0017
80126W        W23043   9.156  13.688  31.936  0.1296  0.0049 -0.3696
80127W        W23044   9.574  12.011  30.720  0.0245  0.0840  0.0603
80128W        W23045   8.004  11.846   1.117 -0.1446 -0.1021 -0.1580
80129W        W23046  11.364  13.193  31.074 -0.1039 -0.1845 -0.1100
80130W        W23047   8.593  14.544   2.360  0.2571 -0.0156 -0.4250
80131W        W23048  11.557  11.739   1.138 -0.1272  0.1089  0.0175
80132W        W23049   9.720  14.024   1.798  0.0271 -0.0263 -0.3644
80133W        W23050   7.233  13.248   0.317  0.0119  0.0953  0.1610
80134W        W23051   6.061  13.615   1.705 -0.2292 -0.1551  0.1392
80135W        W23052   8.184  12.850  31.389  0.1015 -0.1583 -0.1458
80136W        W23053   6.950  13.106   1.824  0.3549 -0.2270  0.2836
80137W        W23054   7.641  15.475   3.847 -0.0098 -0.1248 -0.1157
80138W        W23055  10.148  11.686   0.604 -0.0665 -0.0518  0.0470
80139W        W23056   7.753  10.464   0.844 -0.1650 -0.0271 -0.0870
80140W        W23057  11.365  11.242   3.026 -0.0913  0.3138 -0.0170
80141W        W23058   9.655  13.997   0.487  0.1806  0.0659 -0.3988
80142W        W23059   9.037  14.838  31.180 -0.0907  0.0018 -0.0010
80143W        W23060  10.830  13.115  31.931  0.2876  0.0336  0.1663
80144W        W23061  10.123  15.326  30.276  0.1965 -0.0787  0.1781
80145W        W23062   9.015  12.424   1.956  0.1643  0.2057 -0.3156
80146W        W23063   9.436  12.089   0.307 -0.3464 -0.2801 -0.2877
80147W        W23064   8.072  11.316   1.072  0.4272 -0.0170  0.0250
80148W        W23065   8.083  12.216   1.631  0.2431  0.1889 -0.0588
80149W        W23066  12.029  12.539   1.102  0.0771  0.0968 -0.0346
80150W        W23067   8.737  10.065   0.882 -0.1682  0.2469  0.2392
80151W        W23068  12.544  12.565   3.722  0.0646 -0.1043  0.0086
80152W        W23069   8.236  11.534   0.089 -0.0771  0.1314  0.0585
80153W        W23070   9.309  12.165   2.328 -0.1880 -0.0244  0.1456
80154W        W23071  12.294  12.315   4.301  0.0662  0.0889 -0.2799
80155W        W23072   9.522  13.397  31.587  0.3797 -0.1638 -0.0571
80156W        W23073   9.739  14.837   3.824 -0.2362  0.2599 -0.0085
80157W        W23074  10.809  13.145   0.682 -0.1627  0.0391 -0.0401
80158W        W23075   8.364  11.850   1.530  0.1178 -0.2340 -0.1370
80159W        W23076   8.174  10.282  30.973  0.1669 -0.1120 -0.1330
80160W        W23077   8.267  15.351   1.871 -0.1265 -0.0207  0.2282
80161W        W23078   8.889  13.935   2.330  0.0414 -0.0500 -0.0179
80162W        W23079  10.984  12.500   0.116  0.0936 -0.0864 -0.1732
80163W        W23080   9.446  15.408   3.671  0.0209  0.1884  0.1257
80164W        W23081  10.874  11.947   0.212 -0.1763 -0.1286  0.2120
80165W        W23082   7.204  12.072   3.214  0.1294 -0.4850  0.0254
80166W        W23083   9.367   9.825   1.918 -0.2052 -0.2801  0.0712
80167W        W23084  12.292  10.620   1.468  0.0655  0.0522  0.0084
80168W        W23085   9.569  11.651   0.870  0.1000  0.2797  0.0890
80169W        W23086   8.800  11.533  31.326 -0.3207  0.0444 -0.0616
80170W        W23087   8.010  15.346   0.088  0.1660 -0.2726  0.3058
80171W        W23088   8.463  12.480  31.644  0.0787  0.0678 -0.2261
80172W        W23089   8.327  14.161   1.761 -0.2062 -0.3183  0.1688
80173W        W23090   7.380  13.806   1.928  0.2154  0.1346  0.2442
80174W        W23091  12.151  10.557   2.290  0.0030  0.3976  0.1952
80175W        W23092   6.668  10.947   3.828 -0.2347 -0.4063 -0.0436
80176W        W23093  10.764  11.899   3.593  0.3300  0.0985 -0.2716
80177W        W23094   7.740  11.645   0.308  0.0565  0.0262 -0.0611
80178W        W23095   8.792  15.066   3.100 -0.0904  0.2950 -0.2212
80179W        W23096  12.204  11.477  31.912  0.0583 -0.0461 -0.2878
80180W        W23097  11.939  12.649  31.687 -0.0024  0.1080 -0.1500
80181W        W23098   9.253  12.921   1.604  0.1067  0.1236 -0.0115
80182W        W23099  11.780  14.956   1.001  0.1224 -0.2188  0.0417
80183W        W23100  10.403  12.119   0.481  0.3214 -0.0191 -0.1798
80184W        W23101  11.495  12.381  30.701 -0.0734  0.2877  0.2814
80185W        W23102   7.750  14.372   4.846  0.1131  0.1982  0.2112
80186W        W23103   8.352  12.933  31.916 -0.0714 -0.1705 -0.0074
80187W        W23104   7.816  14.435   1.697 -0.1678 -0.1682 -0.0844
80188W        W23105   9.996  11.825  30.568  0.1790 -0.1736 -0.1748
80189W        W23106  12.402  14.191  31.335 -0.2770  0.0646  0.0179
80190W        W23107   8.787  12.804   1.695 -0.0326  0.0247 -0.2838
80191W        W23108   9.050  12.382   1.391  0.2499 -0.0299 -0.1460
80192W        W23109  11.244  15.059   2.238 -0.1066 -0.2668 -0.1620
80193W        W23110  10.129  12.902   2.851 -0.4221  0.0577  0.3468
80194W        W23111  10.742  11.469  31.033  0.3008 -0.1667  0.2095
80195W        W23112   9.697  12.130   3.609  0.2040 -0.0435 -0.2342
80196W        W23113   6.724  14.811   0.743 -0.0634  0.0484  0.1101
80197W        W23114  11.715  11.334   3.332  0.0681  0.0885 -0.1582
80198W        W23115  11.048  11.499   2.585  0.0537 -0.0929  0.1872
80199W        W23116   9.434  11.205   2.390 -0.1342  0.1222  0.1514
80200W        W23117   9.549  14.091   4.205  0.3971 -0.1569 -0.0873
80201W        W23118   9.542  12.784   1.206  0.1418  0.5395 -0.1131
80202W        W23119  11.521  12.484   1.911  0.0181  0.0620  0.0145
80203W        W23120   8.846  13.016  31.910  0.0806 -0.2210 -0.2722
80204W        W23121  10.800  10.964   2.499  0.1078 -0.2178 -0.1587
80205W        W23122   8.346  13.027   2.500 -0.1850 -0.0397 -0.1916
80206W        W23123   8.261  14.857   3.305 -0.0244  0.0991 -0.0898
80207W        W23124  11.213  13.266   2.866  0.1517 -0.0148  0.0476
80208W        W23125   7.549  14.601   2.674 -0.0031  0.0475 -0.3324
80209W        W23126  10.049  12.276   3.180 -0.1491 -0.1580  0.2677
80210W        W23127  10.547  11.907  31.326  0.0616 -0.0834 -0.1614
80211W        W23128   7.940  14.350  30.335  0.1191  0.0762 -0.0444
80212W        W23129   9.002  14.568   2.918  0.2510  0.1110  0.1748
80213W        W23130   7.372  10.349   1.160 -0.0417  0.1286  0.0364
80214W        W23131   9.307  15.123   0.972  0.0900  0.1634  0.1011
80215W        W23132  10.896  14.597   2.958 -0.1233  0.2717  0.2480
80216W        W23133   7.121  14.750   2.440  0.2297 -0.3002  0.1989
80217W        W23134  10.168  10.860   0.722 -0.0417  0.0282 -0.0206
80218W        W23135   7.163  15.769   3.383 -0.0231  0.2574  0.0259
80219W        W23136   8.667  11.249   0.044 -0.1183  0.0561  0.0355
80220W        W23137   9.222  10.915   1.214  0.0036 -0.0325 -0.0769
80221W        W23138  10.865  12.399  31.254 -0.0682 -0.1934 -0.1486
80222W        W23139  10.326  15.057  31.770 -0.1706  0.1385  0.0388
80223W        W23140   8.227  10.046   0.850 -0.3743  0.1992  0.2525
80224W        W23141  12.566  11.587   1.435  0.1253  0.1535  0.0026
80225W        W23142   8.500  13.040   2.035  0.0407  0.0254  0.0193
80226W        W23143  10.010  13.270   2.251  0.1876 -0.1407 -0.0101
80227W        W23144  12.237  11.856  30.950 -0.0798  0.0767  0.1888
80228W        W23145   9.166  14.149   1.905 -0.2251 -0.1618  0.0047
80229W        W23146  11.017  12.387   1.341 -0.1611  0.1767 -0.3091
80230W        W23147   6.650  10.611   0.379 -0.2349  0.1227  0.2116
80231W        W23148  11.822  12.386   5.141 -0.1540  0.3186  0.2730
80232W        W23149   8.905  11.336   1.126 -0.1926 -0.1364 -0.2918
80233W        W23150   8.786  13.082   3.750  0.2664  0.1565 -0.2177
80234W        W23151  10.272  13.172   0.608  0.2433  0.0928  0.3029
80235W        W23152   7.283  11.822   0.543 -0.1615  0.0658 -0.0584
80236W        W23153   7.511  12.231   1.150 -0.1727 -0.2751  0.4095
80237W        W23154  10.102  10.626   2.475 -0.0973  0.0121 -0.1326
80238W        W23155  10.455  12.523   2.885 -0.1236  0.0142  0.0269
80239W        W23156  11.302  13.733   2.628  0.1034 -0.1996 -0.1279
80240W        W23157   9.502  10.470   1.835 -0.0150  0.0539 -0.0922
80241W        W23158  10.435  11.291   0.659  0.2199  0.4255 -0.0169
80242W        W23159  13.052  12.906   0.244 -0.1978  0.0319  0.3573
80243W        W23160  11.791  13.525   0.944 -0.2475  0.0581 -0.4229
80244W        W23161   9.785  12.967   1.774 -0.1657 -0.0725 -0.2084
80245W        W23162  11.227  12.850   1.485  0.1465  0.0518  0.1404
80246W        W23163  12.028  13.357  31.219 -0.1168  0.2264 -0.0041
80247W        W23164  10.467  14.161   3.162  0.1725  0.0934  0.0313
80248W        W23165   8.405  13.516   1.339 -0.1302  0.0506 -0.0467
80249W        W23166   9.025  15.461   2.607 -0.0589 -0.1672 -0.2274
80250W        W23167   8.998  12.759   0.445 -0.2802  0.1418  0.1003
80251W        W23168  10.929  11.151   0.739  0.0775 -0.1795 -0.0054
80252W        W23169   8.700  14.155   2.819 -0.0864 -0.0477  0.0242
80253W        W23170   7.864  13.421   1.659 -0.0913 -0.1273  0.1555
80254W        W23171   8.016  12.584   1.264 -0.2087 -0.1067  0.0236
80255W        W23172  11.202  11.734   0.514 -0.0571  0.0661 -0.0448
80256W        W23173  11.319  13.317  31.567 -0.1081  0.1725 -0.1122
80257W        W23174  10.289  11.648   0.126  0.0850 -0.0870  0.4100
80258W        W23175  10.567  12.072   4.482 -0.1139  0.3154 -0.0237
80259W        W23176  10.492  12.745   0.778  0.2973 -0.0601 -0.2443
80260W        W23177   9.545  12.715   4.328 -0.2391  0.1175  0.0046
80261W        W23178   7.513  10.772   2.219  0.0588  0.0110 -0.1676
80262W        W23179  10.631  12.490  31.690 -0.2026  0.0390 -0.2995
80263W        W23180   9.298  11.591   0.061 -0.2239 -0.0234  0.0559
80264W        W23181   9.274  14.874   1.477  0.1952 -0.2784  0.4949
80265W        W23182   9.556  13.203   2.168  0.1334  0.0609 -0.0732
80266W        W23183   8.731  13.388   1.767 -0.1186 -0.0241  0.0931
80267W        W23184   8.182   9.974   3.131 -0.2031  0.1488 -0.2163
80268W        W23185  10.474  14.119   3.719 -0.2699  0.3050 -0.0975
80269W        W23186  10.811  14.777   1.563  0.1545 -0.3650  0.1587
80270W        W23187   9.643  11.976  31.780 -0.0440 -0.0944  0.0132
80271W        W23188  12.330  12.756   0.530 -0.1344 -0.0675  0.0635
80272W        W23189  10.020  13.383   1.000 -0.0635 -0.2974  0.0315
80273W        W23190  10.528  12.576   1.278  0.3892 -0.1904  0.0143
80274W        W23191  10.225  12.517   0.045 -0.0059  0.0219 -0.2583
80275W        W23192   9.355  11.944   1.294 -0.2194 -0.0021  0.1438
80276W        W23193   9.975  11.624   2.906 -0.1522  0.1884 -0.1475
80277W        W23194  11.577  13.555   4.229 -0.1577  0.1207  0.0195
80278W        W23195  10.704  12.133   3.023 -0.2838 -0.3057  0.3094
80279W        W23196  12.487  12.857   1.506  0.3820 -0.2463  0.6996
80280W        W23197  12.086  12.237   2.360  0.2726 -0.1640 -0.0384
80281W        W23198  10.795  12.990   2.835 -0.0817  0.1401 -0.3381
80282W        W23199   9.189   8.799   0.144  0.5474  0.1093  0.0794
80283W        W23200   9.755  15.609   1.959 -0.2073 -0.1040 -0.0169
80284W        W23201  12.196  13.028  30.607 -0.1963 -0.2035 -0.2909
80285W        W23202  11.627  12.684   3.799  0.1577  0.2484 -0.0067
80286W        W23203  12.312  13.460   1.282  0.1313 -0.1002 -0.2049
80287W        W23204  10.308  12.081  31.803 -0.1277 -0.1103 -0.0216
80288W        W23205   9.564  13.476   2.602  0.1221 -0.0944 -0.1945
80289W        W23206  12.921  11.207   0.635  0.3911 -0.0481  0.1163
80290W        W23207  10.979  11.701   3.114  0.2198  0.2478 -0.0541
80291W        W23208   9.839  13.042   0.414  0.1788  0.0031 -0.1610
80292W        W23209   9.369  13.100   0.764 -0.0872 -0.0860  0.0951
80293W        W23210  10.229  11.305   1.346  0.1598  0.2840 -0.1154
80294W        W23211   7.902  10.360   1.304  0.1752 -0.2872 -0.1782
80295W        W23212   9.099  13.801   2.886  0.0415 -0.2303  0.0530
80296W        W23213   8.324  11.353  30.247  0.1823 -0.3292  0.0089
80297W        W23214  11.143  13.742  31.299 -0.0549  0.1292 -0.2809
80298W        W23215  10.398  15.209   2.573  0.1829 -0.1163  0.1122
80299W        W23216  13.016  12.473   3.451 -0.0294  0.1099 -0.0695
80300W        W23217  11.290  10.703   1.673 -0.0053 -0.2807  0.0396
80301W        W23218  12.531  13.037   1.949  0.2304  0.1395 -0.1306
80302W        W23219   6.759  14.274  30.987 -0.0399  0.1273 -0.3074
80303W        W23220   8.286  10.797   2.187  0.3469 -0.0386 -0.0501
80304W        W23221   9.050  14.402   2.435 -0.1991  0.1284 -0.0460
80305W        W23222   5.266  12.977   1.953 -0.3450  0.0272  0.2085
80306W        W23223   7.930  15.387   1.283 -0.1688  0.3910  0.1182
80307W        W23224   9.780  11.083   2.686 -0.1896 -0.0027  0.1656
80308W        W23225  11.932  11.475   1.486 -0.1370  0.1102 -0.0053
80309W        W23226   9.989  12.230   1.721 -0.1169  0.3431 -0.4759
80310W        W23227  11.155  12.960   3.940  0.2209 -0.0764 -0.0759
80311W        W23228  10.767  12.869   1.645 -0.0888  0.3580 -0.0947
80312W        W23229   9.101  12.722   0.986 -0.1589 -0.3630 -0.0022
80313W        W23230  10.988  13.331   3.352 -0.2566 -0.2184 -0.2261
80314W        W23231   8.509  12.151   1.119 -0.0760  0.3208  0.2326
80315W        W23232   9.062  13.179   2.104  0.0504  0.2719 -0.1088
80316W        W23233   9.417  12.152   0.883 -0.0259 -0.0708  0.0701
80317W        W23234  11.300  11.103   2.570  0.1297  0.0204  0.1531
80318W        W23235  10.979  13.816   0.318  0.2065  0.0394  0.1842
80319W        W23236   8.026   9.147   0.676  0.3929  0.0242  0.0754
80320W        W23237   8.773  13.027   2.691 -0.1370 -0.3383  0.0308
80321W        W23238   9.870  14.689   5.343 -0.2243  0.0749  0.1824
80322W        W23239   8.082  13.887   1.413  0.0569  0.0876 -0.1528
80323W        W23240   8.108  13.519  31.904  0.0686  0.1668  0.0222
80324W        W23241  13.214  14.908  31.718 -0.1026  0.3164 -0.2207
80325W        W23242   9.189  11.664   0.558  0.0649 -0.1850  0.2003
80326W        W23243  10.387  15.682   2.323  0.1664  0.4150 -0.0782
80327W        W23244   9.886  11.655   1.286 -0.0262 -0.2279 -0.1769
80328W        W23245   9.148  14.961   2.277  0.1417  0.0776 -0.0127
80329W        W23246   5.750  14.980   1.449  0.3319 -0.1353  0.0518
80330W        W23247  11.586  16.823  31.668  0.0125  0.0776 -0.2476
80331W        W23248   8.393  14.002   2.212  0.1052 -0.0459 -0.0963
80332W        W23249  10.406  11.512   3.768 -0.1307  0.1723 -0.1542
80333W        W23250  12.553  13.299  29.934  0.0637 -0.5674 -0.4121
80334W        W23251  11.764  12.734   1.592 -0.0927  0.3912  0.2220
80335W        W23252  11.565  12.283   1.406 -0.1634 -0.1337  0.0002
80336W        W23253  10.951  13.053   2.363 -0.1276  0.0384  0.1336
80337W        W23254   9.434  12.690   2.129  0.0658  0.0034  0.2524
80338W        W23255   9.510  11.397  31.537  0.1604 -0.3132 -0.2029
80339W        W23256   9.533  12.474   1.693 -0.1678  0.1327 -0.1755
80340W        W23257   9.809  12.839   3.932 -0.0139  0.0879 -0.1900
80341W        W23258   8.608  13.428   2.888 -0.0012  0.0162  0.2513
80342W        W23259  10.006  14.692  31.793  0.3419  0.3236  0.1574
80343W        W23260   7.951  11.881   2.016 -0.2296 -0.0586 -0.3454
80344W        W23261   8.502  12.694   0.751  0.1591  0.0728  0.0352
80345W        W23262  10.407   9.872   3.760 -0.0648  0.3115 -0.1449
80346W        W23263   8.386  13.170   0.943  0.2075 -0.0625 -0.2880
80347W        W23264  10.047  12.695   1.426 -0.2292  0.3740 -0.1671
80348W        W23265   8.736  13.895   1.829 -0.3925 -0.1559  0.2449
80349W        W23266   6.656  15.832   1.792 -0.3576 -0.1720  0.2336
80350W        W23267   9.434  15.849   3.379 -0.0363 -0.1361 -0.3592
80351W        W23268   7.875  11.121   0.216 -0.0125 -0.0695 -0.0760
80352W        W23269  10.700  13.805   1.785  0.1438 -0.0607 -0.0663
80353W        W23270  10.257  12.078   2.712  0.0825  0.0431 -0.2028
80354W        W23271   7.946  11.040   3.311 -0.1014  0.0427 -0.0672
80355W        W23272   7.714  11.994   0.680  0.1411 -0.3702 -0.0729
80356W        W23273  10.866  13.316  31.345 -0.0748  0.0519 -0.0804
80357W        W23274  11.468  13.078   0.954  0.0698  0.0982 -0.0548
80358W        W23275   7.146  10.740   2.891  0.0333  0.0814  0.3593
80359W        W23276   9.910  12.087   0.835 -0.0012 -0.2269  0.0873
80360W        W23277  12.378  14.132   1.314  0.2827 -0.3089  0.0467
80361W        W23278  11.166  14.163   0.660 -0.1809 -0.3080  0.0464
80362W        W23279  10.236  14.342   5.625 -0.3518 -0.3654  0.1851
80363W        W23280   7.116  10.363   0.059 -0.1649  0.1095 -0.1571
80364W        W23281  13.989  10.911   1.207  0.0826  0.0719  0.4990
80365W        W23282  10.304  11.879   3.243 -0.3093  0.0478  0.4070
80366W        W23283   9.905  13.551   0.536  0.3020  0.0019  0.1917
80367W        W23284  12.507  13.764   2.511 -0.0964 -0.2850 -0.0782
80368W        W23285   7.652  10.782   1.245  0.0239  0.4972  0.2037
80369W        W23286  11.606  15.189  31.468 -0.1178  0.0525  0.2570
80370W        W23287  12.549  14.549   1.079 -0.0268 -0.1278  0.3034
80371W        W23288   7.997  14.910  31.806 -0.0329  0.3043  0.1150
80372W        W23289  10.293  12.549   1.892 -0.0301  0.3042  0.0505
80373W        W23290  10.535  13.645   0.810  0.1759  0.1961 -0.0216
80374W        W23291   9.640  11.891   1.797  0.1793  0.2216  0.3335
80375W        W23292  10.636  16.493   3.094  0.3935 -0.2186 -0.2787
80376W        W23293  11.187  14.178   2.530  0.0018  0.2305  0.0709
80377W        W23294   8.740  11.344   0.609 -0.4826  0.2032 -0.3626
80378W        W23295   8.226  12.633   1.873 -0.0568  0.0324  0.0888
80379W        W23296   7.448  12.706  31.911 -0.0326  0.4120  0.1213
80380W        W23297  11.889  12.191   1.842  0.0148  0.2485 -0.1155
80381W        W23298  10.960  12.369   4.349  0.1167 -0.0401 -0.0839
80382W        W23299  10.532  13.986   0.343  0.2517 -0.0295 -0.0948
80383W        W23300  10.710  11.417   3.429  0.1670 -0.1377  0.4305
80384W        W23301   9.182  13.460   1.558  0.0505 -0.1218  0.1308
80385W        W23302   8.887  15.801   4.929  0.1859  0.3707 -0.0585
80386W        W23303   8.606  12.667   1.219 -0.2335 -0.3046 -0.2053
80387W        W23304   9.507  14.368   1.579  0.0777  0.1261  0.0062
80388W        W23305  10.402  14.027   1.203 -0.1021 -0.1235  0.0491
80389W        W23306   7.393  12.748   2.003 -0.1959  0.0981 -0.0407
80390W        W23307   9.104  13.515   0.935 -0.2241  0.2728 -0.2517
80391W        W23308  10.443  10.804   2.062 -0.1683  0.2429 -0.1911
80392W        W23309  11.004  14.246   1.528 -0.0892 -0.0180 -0.0707
80393W        W23310   8.211  11.825   0.500  0.1139  0.2435 -0.0568
80394W        W23311  12.551  11.239   0.353 -0.1180 -0.2316  0.1623
80395W        W23312  10.417   9.108   1.116  0.0361  0.3843 -0.0549
80396W        W23313   9.392  13.860   1.380 -0.2306 -0.0597  0.0319
80397W        W23314   8.914  10.411   0.621  0.0857 -0.3175  0.0742
80398W        W23315   8.852  13.417   0.329 -0.1043  0.4106  0.0346
80399W        W23316   8.343  13.335   3.473 -0.0196  0.0233 -0.2691
80400W        W23317   8.593  10.219   3.367  0.0917 -0.0850 -0.1473
80401W        W23318   8.774  11.722   0.226  0.0702  0.0275 -0.2741
80402W        W23319   9.173  13.268   2.982  0.1633  0.3456  0.2387
80403W        W23320   8.381  13.803   0.393 -0.0182 -0.0127  0.1089
80404W        W23321  12.744  15.648   1.490 -0.1382  0.2122  0.1436
80405W        W23322   9.139   8.323   1.284 -0.0804  0.4260  0.1872
80406W        W23323   8.469  11.590   1.067  0.3405  0.1991  0.0713
80407W        W23324  10.069  13.870   0.919 -0.1839  0.0366  0.0308
80408W        W23325  12.771  13.730   0.718  0.0532  0.0339  0.2165
80409W        W23326   9.220  10.037   0.999 -0.0210 -0.2912  0.4048
80410W        W23327  10.896  12.590   3.151 -0.1847  0.0656 -0.1293
80411W        W23328   7.778  12.493   0.402 -0.4564 -0.0530 -0.2710
80412W        W23329  10.499  13.589   3.485  0.0060  0.5613  0.4086
80413W        W23330   7.373  10.568   4.576  0.1646 -0.1639  0.1961
80414W        W23331   9.297  11.750  29.508  0.0268 -0.0154 -0.3978
80415W        W23332  11.850  13.078   1.266  0.2297 -0.1717 -0.2950
80416W        W23333  11.339  15.024   0.202  0.0529  0.2443  0.2566
80417W        W23334   7.744  15.421   1.769 -0.3543 -0.0692 -0.1309
80418W        W23335  11.133  11.521   1.007 -0.0926 -0.1084  0.0445
80419W        W23336  10.537  14.600   1.224 -0.1883  0.1213 -0.0116
80420W        W23337   7.309   9.895   3.813 -0.2132  0.0325  0.2330
80421W        W23338  11.052  14.313  31.483  0.1649 -0.0032  0.0291
80422W        W23339  11.098  13.604   0.804 -0.2377  0.3829  0.2330
80423W        W23340  13.518  13.456   0.364 -0.3539  0.0381  0.2968
80424W        W23341  11.237  12.214   3.271 -0.3553 -0.1411 -0.1615
80425W        W23342   9.815  12.329   2.252 -0.1186 -0.2466 -0.0060
80426W        W23343   8.208  12.270   3.213 -0.0471 -0.3990  0.3304
80427W        W23344   9.706  12.007   2.672 -0.0062  0.0884  0.0722
80428W        W23345  12.764  13.554   2.020 -0.1994  0.1290 -0.3360
80429W        W23346   8.647  10.924   0.398  0.1630 -0.3227  0.0350
80430W        W23347  10.828  11.387   0.268 -0.0010 -0.1534 -0.0349
80431W        W23348  13.398  12.958   0.638  0.1392  0.1249  0.0914
80432W        W23349   9.965  14.076   3.301 -0.1709  0.0711  0.0280
80433W        W23350  10.289  12.098   1.352 -0.1848 -0.0716 -0.1681
80434W        W23351   8.730  11.505   4.410 -0.1984 -0.0468 -0.0516
80435W        W23352   8.000  12.765   0.759  0.3956  0.1209 -0.0724
80436W        W23353   9.880  12.715   3.390 -0.0301  0.0207 -0.1363
80437W        W23354  10.210  13.098   0.012  0.2408  0.0056 -0.1004
80438W        W23355  11.381  13.479   1.199  0.0921  0.3108 -0.0485
80439W        W23356   9.129  16.781   1.849 -0.1198 -0.1562  0.2537
80440W        W23357  12.057  15.552   2.559 -0.0672  0.0824 -0.3100
80441W        W23358  10.819  13.450   2.670 -0.0671  0.0591  0.4677
80442W        W23359  10.731  12.239   0.829 -0.1520  0.1117  0.2290
80443W        W23360   7.733  10.215   3.896  0.0311  0.1969  0.0480
80444W        W23361   7.914  12.109   0.111 -0.0709 -0.1794 -0.0154
80445W        W23362  10.575   9.744   1.093  0.2866  0.0804 -0.1622
80446W        W23363  11.632  12.419   0.099  0.1757  0.1896  0.2154
80447W        W23364  10.110  10.510   1.081 -0.0742 -0.0892 -0.0710
80448W        W23365  10.617  12.081   1.760  0.0058 -0.0109 -0.1729
80449W        W23366  10.142  13.160   1.488  0.0885  0.1149  0.2739
80450W        W23367   7.893  13.868   0.269  0.1352 -0.2217  0.1624
80451W        W23368   8.401  14.175   5.965  0.1569  0.0676  0.3272
80452W        W23369   7.374  10.990   4.276  0.1908 -0.0433 -0.0406
80453W        W23370  11.332  12.745   2.525  0.1854  0.0575  0.0177
80454W        W23371  10.075  10.903   3.021  0.2531  0.2763  0.0176
80455W        W23372   6.522  11.351   5.481 -0.1018  0.0131  0.1568
80456W        W23373  10.953  15.485   5.892  0.1953 -0.0463 -0.0159
80457W        W23374   7.695  13.240   4.209  0.2229  0.1664  0.0534
80458W        W23375   9.193  13.525   4.435 -0.0188 -0.1018  0.0653
80459W        W23376  11.001  14.240   7.098 -0.0553  0.1192 -0.3239
80460W        W23377   9.869  11.392   1.720  0.0612 -0.0053 -0.1845
80461W        W23378   7.559  13.532   4.953 -0.0401 -0.1137 -0.0722
80462W        W23379   9.310  14.549   5.690  0.0716  0.0199  0.3670
80463W        W23380   8.340   9.511   3.976  0.1093 -0.3263  0.1506
80464W        W23381   5.751  10.833   4.412 -0.2725 -0.1047  0.0974
80465W        W23382  11.713  15.153   6.253  0.2479  0.2362 -0.1351
80466W        W23383   7.719  12.121   3.360 -0.0520  0.0981  0.1138
80467W        W23384   9.340  12.520   3.451 -0.2855 -0.3164 -0.2155
80468W        W23385   9.928  11.676   2.237  0.2051  0.2262  0.1847
80469W        W23386   9.825  16.214   6.501  0.2061 -0.1571 -0.0496
80470W        W23387   8.555  13.180   5.061  0.4649 -0.3632  0.5882
80471W        W23388   7.757   8.979   5.635 -0.0057  0.0651 -0.0661
80472W        W23389   8.723  14.893   4.202  0.0788 -0.0763  0.5581
80473W        W23390   8.138  10.782   1.122  0.0035  0.0982  0.0130
80474W        W23391   7.783   9.977   5.825 -0.1007  0.1139  0.3807
80475W        W23392   9.869  11.343   7.240  0.1836 -0.0361  0.2100
80476W        W23393  11.168  11.980   3.881 -0.0645 -0.1823 -0.1503
80477W        W23394   9.908  13.787   4.363 -0.2661 -0.0404  0.1654
80478W        W23395  10.793  13.279   5.252 -0.2827 -0.2519 -0.0549
80479W        W23396  10.940  13.721   4.989 -0.0711  0.1421 -0.0584
80480W        W23397  11.018  12.963   7.519 -0.5031 -0.1213 -0.0590
80481W        W23398   6.100  13.785   5.045 -0.1639 -0.2033  0.1380
80482W        W23399   8.019  13.797   4.918 -0.0207  0.2756  0.0937
80483W        W23400  10.354  13.610   4.024  0.0393  0.4348  0.1023
80484W        W23401   9.673  16.911   7.088 -0.2902 -0.4436 -0.1751
80485W        W23402   9.942  11.270   5.557 -0.0248  0.1299  0.1351
80486W        W23403   7.009  14.356   5.937  0.0544  0.1643 -0.0537
80487W        W23404   8.428  13.567   5.337  0.5857  0.1343  0.3098
80488W        W23405  10.787  11.686   7.542  0.4037 -0.0337  0.1036
80489W        W23406   9.048  12.110   7.446  0.2860 -0.1010 -0.1951
80490W        W23407   8.717  13.370   5.678  0.0529  0.0293 -0.1749
80491W        W23408   8.961  13.810   4.834  0.0974 -0.2657  0.1791
80492W        W23409   9.949  16.783   4.256 -0.1347 -0.0244  0.0079
80493W        W23410   8.497  14.049   5.089 -0.0199 -0.0882 -0.3435
80494W        W23411   8.432  12.276   6.594 -0.1220 -0.1689 -0.2826
80495W        W23412   8.100  12.521   6.287 -0.3971  0.0497  0.1600
80496W        W23413  10.977  13.375   7.957  0.2525 -0.1795  0.2187
80497W        W23414  11.923  16.175   6.368 -0.3200 -0.1896 -0.1649
80498W        W23415  12.604  12.278   0.317 -0.1118 -0.1850  0.1322
80499W        W23416   9.147  12.267   2.882 -0.2456  0.1542 -0.2762
80500W        W23417  10.861  11.087   4.722 -0.0243 -0.0875 -0.3936
80501W        W23418   8.838  11.266   3.684  0.1859  0.1132 -0.2551
80502W        W23419   8.275  13.906   4.459  0.0608  0.2711 -0.2773
80503W        W23420  10.627  11.064   3.811 -0.1349 -0.1241  0.0565
80504W        W23421  11.388  13.474   5.852  0.0961 -0.1618 -0.1308
80505W        W23422   8.409  14.467   4.331 -0.0928  0.0299  0.0971
80506W        W23423   9.836  13.323   6.709 -0.2830 -0.4099  0.3446
80507W        W23424   7.787  14.645   6.651  0.2326  0.0224 -0.2948
80508W        W23425   7.167  11.509   6.029  0.2782  0.1515 -0.1375
80509W        W23426   9.340  14.388   3.864 -0.1815 -0.0212 -0.1934
80510W        W23427  10.968  15.057   6.606 -0.2809  0.0922 -0.3549
80511W        W23428   9.222  13.681   2.059  0.2965  0.0732 -0.2075
80512W        W23429   8.509  14.157   3.595 -0.5317  0.1197 -0.0123
80513W        W23430   8.756  12.909   5.434  0.1075 -0.1609  0.3511
80514W        W23431   7.459  11.321   5.650  0.1722 -0.1917 -0.1963
80515W        W23432   8.711  10.730   2.380 -0.2856 -0.0398 -0.0696
80516W        W23433  11.679  11.985   5.529  0.1826  0.1196  0.2165
80517W        W23434   6.587  14.209   4.861  0.0492 -0.1261 -0.1259
80518W        W23435   8.169  12.692   2.900 -0.1187  0.2894  0.1836
80519W        W23436   9.962  13.630   6.293 -0.1889  0.1392  0.3038
80520W        W23437  10.128  11.632   6.830 -0.0449  0.1421  0.1041
80521W        W23438  11.368  12.612   1.062  0.2000 -0.0523  0.1017
80522W        W23439   9.908  10.938   6.459  0.0822  0.4139 -0.0906
80523W        W23440  10.608  10.413   7.690  0.0906  0.2747  0.3425
80524W        W23441   7.339  14.683   3.166  0.3601 -0.0590 -0.1494
80525W        W23442   7.755  11.304   4.233  0.1133 -0.0807  0.0596
80526W        W23443  11.716  14.385   5.735 -0.1133 -0.1254 -0.0558
80527W        W23444  10.782  10.389   2.582  0.3540 -0.1371 -0.1282
80528W        W23445   9.232  15.613   5.721 -0.1497 -0.2999  0.0444
80529W        W23446   9.207  13.051   7.162  0.0539 -0.1079  0.3005
80530W        W23447   6.878  15.326   5.982 -0.2037 -0.0022 -0.0673
80531W        W23448   8.676  13.855   3.232 -0.3134 -0.0313 -0.0451
80532W        W23449   6.871  13.725   5.743  0.1850 -0.1693  0.4172
80533W        W23450   7.308  13.540   3.400  0.1872  0.2687  0.0656
80534W        W23451   5.845  12.210   4.188  0.1649 -0.0743 -0.2352
80535W        W23452   9.590  15.250   5.866  0.2716 -0.1041  0.0426
80536W        W23453   9.536  13.565   3.128  0.2655 -0.0983 -0.2587
80537W        W23454   8.267  10.489   3.956 -0.3658 -0.4182 -0.1159
80538W        W23455   9.010  11.128   4.112 -0.1624 -0.2857 -0.1567
80539W        W23456   7.456  14.141   3.029 -0.0982  0.1314 -0.0328
80540W        W23457  10.033  14.532   4.088  0.1752 -0.0930  0.0048
80541W        W23458  10.800  11.956   5.037  0.0522  0.1274 -0.1025
80542W        W23459  10.064  15.603   2.785 -0.2924  0.1706  0.0142
80543W        W23460   6.979  10.476   7.233 -0.2799  0.1697 -0.1605
80544W        W23461   8.037  12.670   2.435  0.3629  0.1666 -0.0200
80545W        W23462   7.056  11.598   4.423  0.1733 -0.1458  0.0954
80546W        W23463   8.206  13.433   4.451 -0.2114 -0.3090 -0.1586
80547W        W23464  11.131  12.789   8.395  0.0140 -0.2131 -0.1867
80548W        W23465   6.759  12.855   3.014 -0.1201  0.0086  0.0784
80549W        W23466   9.624  13.737   5.920  0.3979 -0.2658 -0.0849
80550W        W23467   8.571  13.174   4.165  0.1814 -0.1092 -0.0661
80551W        W23468   8.323  14.348   5.520  0.1210 -0.0483  0.1786
80552W        W23469  11.544  12.096   7.264  0.0114 -0.3313 -0.3359
80553W        W23470  10.950  13.778   2.274 -0.0323 -0.3459  0.4782
80554W        W23471  11.916  14.905   7.522 -0.3623  0.1681 -0.2298
80555W        W23472  10.295  15.899   6.177 -0.1488 -0.0242  0.0209
80556W        W23473   8.924  12.590   3.768 -0.1224 -0.1166 -0.2128
80557W        W23474   8.207  11.645   4.324 -0.0899 -0.1519  0.1458
80558W        W23475   7.203  16.148   4.526 -0.0903  0.0509 -0.0056
80559W        W23476   8.235  15.258   5.224  0.1782  0.0912 -0.0355
80560W        W23477   8.638  11.811   3.426  0.0851 -0.2615  0.0133
80561W        W23478  10.422  15.587   5.806  0.1292 -0.2673  0.1412
80562W        W23479   9.216  13.141   5.636  0.2971 -0.1242  0.2934
80563W        W23480   7.785  15.484   5.017 -0.1164  0.0427  0.3925
80564W        W23481  10.050  10.390   6.448 -0.0997  0.0480  0.0142
80565W        W23482  10.627  11.907   4.041 -0.1456 -0.0935 -0.1795
80566W        W23483   7.569  13.521   2.898 -0.1210  0.3161  0.1127
80567W        W23484   7.857  12.061   4.562  0.4790 -0.0390 -0.3622
80568W        W23485   9.371  14.517   5.159 -0.2425 -0.0234 -0.2571
80569W        W23486   9.916  14.689   6.822 -0.2922 -0.0345 -0.0602
80570W        W23487   7.870  13.792   4.038 -0.0800  0.1294 -0.2033
80571W        W23488  10.127  11.925   4.276  0.0712  0.0714 -0.1208
80572W        W23489  10.626  13.735   4.490  0.1077  0.0121  0.0626
80573W        W23490   7.532  12.238   6.552  0.2259 -0.0486 -0.0138
80574W        W23491  11.283  13.878   7.608 -0.0621  0.1681 -0.0609
80575W        W23492   7.218  14.330   5.002 -0.1282  0.1128 -0.1158
80576W        W23493   9.251  13.933   6.229 -0.0400  0.1261 -0.1839
80577W        W23494  10.240  12.607   3.829 -0.0875 -0.1202 -0.1348
80578W        W23495  10.585  14.353   6.336 -0.0648 -0.0088  0.2282
80579W        W23496   9.198  13.983   5.711  0.0452  0.0241 -0.0469
80580W        W23497  11.199  11.702   5.139 -0.5608 -0.1448  0.1207
80581W        W23498   6.661  11.335   3.564 -0.1522 -0.0375 -0.0466
80582W        W23499   6.735  12.480   6.331  0.1514 -0.4984 -0.1011
80583W        W23500   9.917  12.537   5.093 -0.3895 -0.3036 -0.1322
80584W        W23501  10.655  12.580   7.507  0.2155  0.0039  0.1887
80585W        W23502   8.272  11.743   3.049  0.2912  0.1163  0.1955
80586W        W23503  12.207  15.363   3.795 -0.1423  0.1865  0.1994
80587W        W23504   8.463  13.607   4.855 -0.0053  0.1929  0.0825
80588W        W23505  10.039  12.658   8.469  0.0609 -0.1550 -0.0824
80589W        W23506  10.619  14.102   5.880 -0.0590 -0.1327  0.1524
80590W        W23507   8.802  10.278   6.883 -0.1156  0.0357  0.1818
80591W        W23508   9.707  11.328   3.187  0.2140 -0.0747  0.1846
80592W        W23509   9.797  11.757   4.005  0.1777 -0.2316 -0.1016
80593W        W23510   8.905  13.567   5.273  0.2247 -0.0760 -0.1382
80594W        W23511   9.203  11.951   5.449 -0.1354  0.3159  0.2103
80595W        W23512  10.490  11.951   5.691  0.0022 -0.1901 -0.0508
80596W        W23513   9.569   8.649   7.043 -0.1048 -0.2096 -0.1255
80597W        W23514  10.331  14.774   6.543 -0.2398 -0.0765 -0.2895
80598W        W23515  10.224  12.627   2.394  0.1875 -0.0498  0.1381
80599W        W23516   7.986  12.949   4.432  0.1677 -0.1733  0.3616
80600W        W23517   9.924  12.437   2.716  0.0392 -0.0870  0.2651
80601W        W23518  10.547  10.824   7.204 -0.1143 -0.0563 -0.0225
80602W        W23519   8.882  12.075   6.751  0.1831  0.0139  0.1218
80603W        W23520   6.565  14.169   5.859 -0.0061  0.2938  0.1524
80604W        W23521   9.746  11.717   7.708 -0.0338  0.3241  0.1331
80605W        W23522   9.681  13.310   3.669 -0.1028 -0.1254  0.1935
80606W        W23523   8.581  11.636   5.345  0.2102  0.3863  0.0973
80607W        W23524   8.239  12.695   4.015 -0.0323 -0.0285  0.0914
80608W        W23525   7.303  13.070   5.808 -0.1539  0.3689  0.1191
80609W        W23526   8.869  14.381   5.010 -0.0621 -0.1129  0.1088
80610W        W23527   8.952   9.306   6.099  0.1381  0.0659 -0.1120
80611W        W23528   9.241  12.201   6.416 -0.0007 -0.1007 -0.2429
80612W        W23529   9.933  14.125   3.873 -0.2836  0.3046  0.2319
80613W        W23530   9.931  13.290   7.194 -0.1350  0.0481  0.1415
80614W        W23531   8.453  14.735   5.256 -0.0873 -0.2706 -0.2392
80615W        W23532  10.685  11.156   6.284 -0.0744 -0.1981  0.0318
80616W        W23533   9.144  14.685   6.825  0.0764 -0.0947 -0.1425
80617W        W23534   7.579   9.953   0.980  0.1621  0.0447  0.0465
80618W        W23535   7.415  14.781   5.049  0.0772 -0.4418  0.1598
80619W        W23536   9.474  10.986   3.930 -0.1404 -0.0891  0.0063
80620W        W23537  11.462  11.759   3.047 -0.3498 -0.0400 -0.2327
80621W        W23538   6.824  11.420   4.991  0.1531  0.0525 -0.0999
80622W        W23539  10.482  10.904   5.006 -0.1592  0.0787 -0.1638
80623W        W23540   8.233  14.284   4.758  0.0800 -0.1042 -0.3551
80624W        W23541  10.142  12.675   5.604  0.1025  0.0503 -0.2659
80625W        W23542   9.391  11.700   2.261  0.1256  0.2638  0.2948
80626W        W23543  10.459  15.391   5.328  0.1061 -0.2558 -0.0881
80627W        W23544   8.465  13.450   6.118  0.0638 -0.3700 -0.2458
80628W        W23545   7.634  12.615   3.431 -0.1659 -0.1121  0.0554
80629W        W23546  10.324  13.270   5.502 -0.0088  0.2779 -0.1553
80630W        W23547   9.212  13.455   6.034  0.1448 -0.2538  0.1108
80631W        W23548   6.798  14.148   5.414  0.2655 -0.1559  0.2058
80632W        W23549  10.101  13.789   5.700  0.0954 -0.0052  0.1373
80633W        W23550   6.836  11.743   3.986  0.0275  0.0006 -0.0730
80634W        W23551   8.041  13.987   5.377  0.2368 -0.2593 -0.4462
80635W        W23552   8.322  11.964   4.853 -0.0134 -0.1020 -0.0593
80636W        W23553  10.495  12.810   5.302  0.1534 -0.0938  0.1522
80637W        W23554   9.176  11.970   3.391 -0.0711 -0.0922 -0.2992
80638W        W23555   6.993  12.586   2.605  0.4188 -0.2078  0.1428
80639W        W23556   8.503  12.816   6.553  0.1885  0.0069  0.0586
80640W        W23557   7.307  12.662   3.066 -0.3328 -0.0844 -0.2925
80641W        W23558   9.455  12.490   6.784 -0.0416 -0.1457  0.3031
80642W        W23559   7.058  13.387   6.499  0.0854  0.0717  0.0837
80643W        W23560   9.199  12.367   4.338 -0.2849  0.1983 -0.1187
80644W        W23561  11.090  17.302   4.363  0.0496 -0.3263  0.1374
80645W        W23562   9.820  12.767   6.526  0.0465  0.1898  0.2528
80646W        W23563   9.367  13.380   4.989  0.0714  0.0714 -0.3495
80647W        W23564   9.126  14.006   4.405 -0.1184  0.0075  0.2514
80648W        W23565   9.330  13.035   4.655  0.3001  0.3372  0.0209
80649W        W23566   8.650   9.985   6.466  0.2502  0.1189  0.1007
80650W        W23567   7.983  13.308   6.018 -0.3456  0.0220  0.3315
80651W        W23568   7.936  13.814   3.179 -0.0325  0.1537  0.0176
80652W        W23569   8.905  16.706   4.138 -0.1313 -0.1339  0.1171
80653W        W23570   9.274   9.432   3.924  0.3046  0.0095  0.1068
80654W        W23571  10.153  14.875   2.250  0.0260 -0.1404  0.1827
80655W        W23572  10.293  10.641   5.390  0.0749  0.2946  0.0201
80656W        W23573  11.082  12.154   6.284  0.0036 -0.0736 -0.0216
80657W        W23574  10.227  12.115   2.174 -0.1254  0.0016 -0.2333
80658W        W23575  11.248  10.861   6.920  0.0806  0.1391 -0.1484
80659W        W23576   8.049  13.205   4.903  0.2122  0.0036 -0.0649
80660W        W23577   9.116  13.412   3.932 -0.1632 -0.1162 -0.0305
80661W        W23578   6.361  11.624   5.017 -0.1037  0.2034  0.0240
80662W        W23579  10.259  13.218   6.427 -0.2236 -0.1051 -0.2430
80663W        W23580   8.029  13.662   6.394  0.1340 -0.0271  0.1368
80664W        W23581   8.300  14.657   3.771 -0.3911 -0.0364  0.2572
80665W        W23582   8.688   8.703   4.147 -0.3472  0.0091  0.1444
80666W        W23583   8.505  12.971   3.134  0.2313 -0.1269  0.1541
80667W        W23584  10.897  14.648   4.197  0.3369 -0.0498  0.4165
80668W        W23585   9.643  13.021   2.870 -0.1940  0.0377 -0.2019
80669W        W23586  10.878  15.641   3.924  0.1921  0.0331 -0.0253
80670W        W23587   6.185  14.007   6.099  0.0297  0.1171 -0.0483
80671W        W23588  10.249  11.994   3.700  0.1706  0.2349 -0.0604
80672W        W23589   7.924  14.473   2.995  0.0047 -0.4097 -0.0283
80673W        W23590   7.720  12.899   3.064  0.2305 -0.1404 -0.0035
80674W        W23591   8.538  10.177   5.760 -0.1190 -0.1630  0.0596
80675W        W23592  11.112  15.038   3.335 -0.1796 -0.4134 -0.1646
80676W        W23593  10.021  13.650   3.653 -0.0121  0.0591  0.2686
80677W        W23594   9.054  12.335   5.783 -0.4063  0.1294 -0.1653
80678W        W23595   9.314  10.182   7.129  0.1726  0.2190  0.0382
80679W        W23596  10.522  12.063   7.353  0.0019  0.1550 -0.0826
80680W        W23597   7.633  11.197   3.748 -0.1850  0.0281 -0.1787
80681W        W23598  11.421  13.810   5.019 -0.0822  0.0716 -0.0015
80682W        W23599  10.275  13.159   3.715  0.1955 -0.2428 -0.1987
80683W        W23600  10.995  13.686   7.021  0.2291  0.0173 -0.0355
80684W        W23601  11.807  13.656   3.551  0.1824  0.0762 -0.2348
80685W        W23602  10.758  11.985   2.464  0.0347 -0.1036 -0.0718
80686W        W23603   7.909  12.222   5.038 -0.3385 -0.1382 -0.1133
80687W        W23604   8.267  10.793   9.162  0.1978 -0.3558  0.0690
80688W        W23605   9.053  10.484   2.036 -0.1876 -0.0469  0.0918
80689W        W23606   9.351  10.547   5.710 -0.0323  0.0251  0.0506
80690W        W23607   8.151  13.810   3.614  0.0871  0.1426  0.1198
80691W        W23608  11.393  12.599   3.013 -0.2059 -0.4765 -0.1004
80692W        W23609   8.815  13.370   3.333  0.0037  0.0178  0.4255
80693W        W23610   7.627  10.106   4.759 -0.1239 -0.1442  0.0524
80694W        W23611   6.646  13.582   6.159  0.1885 -0.4725 -0.1628
80695W        W23612   7.889   9.928   1.890  0.0724 -0.0460 -0.2316
80696W        W23613   8.004  14.285   3.528  0.2960  0.2283  0.1607
80697W        W23614   9.848  13.340   5.548 -0.1292  0.1530  0.2897
80698W        W23615  11.578  12.139   6.511 -0.1989  0.3734  0.1064
80699W        W23616   7.896  10.503   3.482  0.1791  0.1674 -0.2863
80700W        W23617   9.696  11.390   6.593  0.4372 -0.0326  0.0862
80701W        W23618   9.106  17.605   5.975 -0.1736 -0.1343  0.0577
80702W        W23619   8.866  11.405   6.680 -0.1710 -0.1047  0.1191
80703W        W23620   8.295  12.860   7.552 -0.1732  0.1903  0.0995
80704W        W23621   5.661  14.500   5.842 -0.0007  0.2152 -0.2381
80705W        W23622   7.362  15.340   5.789  0.3773 -0.0017 -0.1882
80706W        W23623   9.670   9.561   5.999  0.1838  0.3075 -0.1458
80707W        W23624   8.672  12.003   5.736 -0.1549  0.0632  0.0500
80708W        W23625  10.250  12.478   6.462 -0.3210 -0.0432 -0.0656
80709W        W23626  11.224  10.358   8.046  0.3095 -0.2508 -0.1737
80710W        W23627   9.130  16.598   6.490 -0.1449  0.2097 -0.2218
80711W        W23628   8.449  12.260   3.822  0.1239 -0.1616  0.1235
80712W        W23629  11.805  16.032   5.552  0.3426  0.0793 -0.1626
80713W        W23630  10.447  13.292   3.030 -0.3047 -0.1946 -0.1454
80714W        W23631   9.503  13.539   7.114 -0.0286  0.0556 -0.1651
80715W        W23632   7.124  12.554   6.601 -0.1091 -0.0984 -0.3008
80716W        W23633   9.232  11.661   4.594  0.3334  0.2930 -0.1737
80717W        W23634   7.375  11.869   5.712 -0.1719 -0.2545 -0.0442
80718W        W23635   7.637  10.465   3.097 -0.2372 -0.0040 -0.0660
80719W        W23636   9.956  13.366   4.101 -0.1558 -0.1757  0.1828
80720W        W23637   8.367  12.912   6.068  0.2147  0.1266 -0.2517
80721W        W23638   7.022  12.032   6.175  0.2216  0.0454 -0.1779
80722W        W23639   7.881  15.284   3.369 -0.1707 -0.0332  0.0922
80723W        W23640  10.449  13.137   1.067 -0.2593  0.4003  0.0304
80724W        W23641  10.955  11.469   3.907 -0.0957 -0.0892 -0.0289
80725W        W23642  10.315  14.699   6.017 -0.1394  0.3282 -0.1506
80726W        W23643   7.315  13.411   1.659 -0.1038 -0.0393  0.1570
80727W        W23644   7.745  13.655   4.500  0.5350 -0.1795 -0.4944
80728W        W23645   7.583  14.830   4.440 -0.0898 -0.0643 -0.1213
80729W        W23646   9.479  13.187   4.203 -0.1950 -0.1630 -0.0187
80730W        W23647   8.411  16.170   3.850  0.1410  0.3309 -0.0640
80731W        W23648  10.319  13.428   6.915  0.2150  0.0129 -0.2539
80732W        W23649  10.187  12.912   4.312 -0.0347  0.0349  0.1619
80733W        W23650  11.194  13.745   6.346  0.0076 -0.1040  0.2678
80734W        W23651   9.309  12.914   3.770  0.2088  0.1619  0.0123
80735W        W23652   9.483  12.147   5.952 -0.2513  0.2693 -0.1639
80736W        W23653  10.308  12.408   4.290  0.0965 -0.0522  0.1495
80737W        W23654   6.224  10.409   4.464  0.0884 -0.1926  0.2052
80738W        W23655   9.788  12.290   6.394 -0.0249  0.1384  0.3541
80739W        W23656  11.300  12.380   7.681  0.1695  0.0044 -0.2933
80740W        W23657   8.274  14.564   7.391  0.1753  0.0970  0.1677
80741W        W23658  11.306  15.500   4.569 -0.1948  0.2149  0.3656
80742W        W23659   7.843  12.463   4.206 -0.0871  0.2862  0.1052
80743W        W23660   8.949  12.850   3.366  0.0287  0.1526  0.1222
80744W        W23661  10.486  11.547   5.951 -0.0398 -0.0248  0.1612
80745W        W23662   9.062  12.969   4.228 -0.0759  0.0522 -0.1623
80746W        W23663   9.424  11.653   5.811 -0.3162 -0.1555  0.1072
80747W        W23664   9.646  14.430   3.479  0.1837  0.2126  0.1559
80748W        W23665   8.740  14.563   7.169 -0.0223  0.2752 -0.0125
80749W        W23666   8.135  14.956   5.631  0.3456  0.0011 -0.2222
80750W        W23667   6.879   9.843   2.902 -0.1464  0.1615  0.0465
80751W        W23668  10.932  12.469   4.917  0.2318 -0.0656 -0.0134
80752W        W23669   9.233  13.504   6.522 -0.0248  0.2075 -0.0541
80753W        W23670  10.197  11.907   4.796  0.1271  0.3871 -0.0247
80754W        W23671   8.880   9.846   3.922 -0.2621  0.0665 -0.0305
80755W        W23672  10.124  13.088   5.036 -0.1964  0.1796 -0.1377
80756W        W23673   9.126  14.362   7.354 -0.1243 -0.1031  0.4387
80757W        W23674   8.044  13.038   6.435 -0.1810  0.1037  0.2360
80758W        W23675  10.306  13.789   2.613  0.0869 -0.1629 -0.0640
80759W        W23676  10.681  13.410   7.336  0.2369 -0.0377 -0.3563
80760W        W23677   8.651  10.743   4.071 -0.0777  0.2993  0.2801
80761W        W23678  11.247  13.386   4.724  0.3084  0.1941  0.4393
80762W        W23679   9.052  13.043   5.106 -0.0895  0.0227  0.0347
80763W        W23680  11.153  13.678   5.454  0.1085  0.1676 -0.0472
80764W        W23681   7.442  12.376   4.674 -0.2192 -0.2536 -0.1890
80765W        W23682   8.517  12.789   4.761  0.2440 -0.1810 -0.1481
80766W        W23683  11.169  13.844   4.547  0.0437  0.1721 -0.2296
80767W        W23684   9.169  11.446   3.183  0.1683  0.1144  0.2431
80768W        W23685  10.883  14.676   4.735 -0.1711 -0.1084  0.1260
80769W        W23686   8.521  12.456   5.787 -0.0281  0.2378 -0.0069
80770W        W23687   8.363  15.745   4.908 -0.0152  0.0337  0.1368
80771W        W23688   9.406  13.062   6.664  0.0408  0.2998 -0.0120
80772W        W23689  10.811  14.667   5.760  0.1101 -0.0571  0.0923
80773W        W23690   7.059  13.820   5.045  0.2539 -0.0602 -0.2808
80774W        W23691   9.803  13.563   5.147  0.3254 -0.0253  0.2765
80775W        W23692  12.678  15.170   7.171 -0.0636  0.3363  0.0496
80776W        W23693  10.505  11.394   4.827  0.0045  0.0827 -0.0941
80777W        W23694   9.414  13.637   5.466 -0.1964 -0.4781 -0.0741
80778W        W23695   7.891  16.112   3.046  0.1859 -0.1413  0.1001
80779W        W23696   9.959  10.077   6.892  0.0497 -0.3022  0.0051
80780W        W23697  11.744  11.595   7.506 -0.0730  0.0812 -0.0200
80781W        W23698   9.706  14.729   4.854 -0.1041 -0.3176 -0.2586
80782W        W23699   9.578  10.570   5.169  0.1594  0.1358  0.2220
80783W        W23700   9.951  12.318   4.601 -0.1079 -0.2738  0.1592
80784W        W23701   8.763  13.657   7.175  0.2110 -0.1380 -0.3795
80785W        W23702   6.523  14.440   3.077 -0.0777 -0.0993 -0.0384
80786W        W23703   9.418  14.725   6.139  0.0755 -0.1106  0.0631
80787W        W23704   9.749  15.647   4.664  0.1089 -0.2935 -0.0378
80788W        W23705   9.325  16.654   4.470 -0.0774  0.3449  0.1880
80789W        W23706   9.448  16.864   5.379 -0.0755 -0.1177 -0.1755
80790W        W23707   9.597  12.388   3.061 -0.0103 -0.2421  0.1981
80791W        W23708  10.732  14.163   4.938  0.0506 -0.0266 -0.4698
80792W        W23709  10.072  10.261   4.114 -0.4583  0.1854 -0.3093
80793W        W23710   9.414   9.754   3.473 -0.1881  0.0503  0.2098
80794W        W23711   8.985  11.280   4.783  0.0807  0.0821 -0.0918
80795W        W23712   8.741  12.956   7.433 -0.3713  0.0550 -0.0161
80796W        W23713   4.715  13.829   3.329 -0.0489 -0.1087 -0.0387
80797W        W23714   9.131  12.743   2.961  0.2338  0.0515  0.1837
80798W        W23715   7.735  12.823   5.956 -0.3727  0.1027  0.3703
80799W        W23716  11.039  10.875   6.374 -0.0975  0.1212  0.1264
80800W        W23717   7.162  11.982   4.700 -0.0395 -0.3234 -0.0562
80801W        W23718   7.272  13.471   4.462  0.1592 -0.0241 -0.0454
80802W        W23719   7.857  10.125   2.349 -0.0938 -0.2822 -0.2673
80803W        W23720  11.887  13.627   2.541  0.1048 -0.1570  0.0752
80804W        W23721   9.863  11.590   4.511 -0.0088  0.1531 -0.0365
80805W        W23722   6.893  11.175   4.198  0.1819  0.2372 -0.1564
80806W        W23723   9.017  12.667   4.673 -0.0100 -0.0874  0.1451
80807W        W23724   9.799  14.238   5.000 -0.2211 -0.0013  0.1294
80808W        W23725   8.808  11.989   4.353  0.0191 -0.0076  0.2686
80809W        W23726  11.794  14.381   6.263  0.1281 -0.1867  0.0365
80810W        W23727   8.074  11.654   2.516 -0.0345  0.4084 -0.3486
80811W        W23728  10.176  10.594   6.866  0.1356 -0.2138  0.0787
80812W        W23729   9.452  10.139   5.404  0.2940  0.0136  0.3558
80813W        W23730   7.690  13.927   2.644  0.4264  0.0620 -0.2106
80814W        W23731   9.449  14.121   3.102  0.1328  0.2126  0.0074
80815W        W23732   9.555  13.918   3.570  0.0310 -0.0073 -0.1370
80816W        W23733  10.383  15.577   1.617  0.1332  0.1953  0.0519
80817W        W23734   9.560  12.004   4.406  0.4552  0.0889 -0.1286
80818W        W23735  10.402  10.714   6.394 -0.3201 -0.1901  0.0909
80819W        W23736   6.960  12.056   5.134  0.2074  0.0007 -0.0918
80820W        W23737   8.588  13.475   2.262 -0.1718 -0.0737  0.1630
80821W        W23738   9.658  12.777   5.701  0.1553 -0.1117 -0.0045
80822W        W23739  10.297  14.002   4.712  0.0979 -0.1721 -0.1987
80823W        W23740  10.029  10.440   4.954  0.2208 -0.1118  0.0005
80824W        W23741   9.467  11.474   4.203 -0.1218 -0.4272 -0.3487
80825W        W23742   6.610  12.636   6.934  0.1081 -0.0515  0.0248
80826W        W23743   8.920  14.349   5.476  0.2748  0.1966  0.1568
80827W        W23744  11.864  13.886   5.833  0.2680  0.1219 -0.1156
80828W        W23745   9.475  11.117   5.015  0.2707  0.2272 -0.0043
80829W        W23746   9.476  11.534   2.760  0.2490  0.2394 -0.1199
80830W        W23747  10.450  13.054   2.475  0.1072 -0.1479 -0.0968
80831W        W23748   7.588  13.295   6.383  0.0735 -0.1244 -0.1109
80832W        W23749   8.964  11.641   4.023  0.1265  0.0961 -0.0523
80833W        W23750   9.560  12.308   5.407 -0.1050  0.4500  0.3271
80834W        W23751   9.409  11.067   4.477 -0.1455  0.1438 -0.0990
80835W        W23752  10.099  13.279   5.940  0.0913 -0.2236  0.0195
80836W        W23753   7.768  12.439   2.009  0.2061 -0.1894 -0.1754
80837W        W23754  10.359  14.122   4.175  0.2056  0.2537 -0.4307
80838W        W23755  11.335  14.731   3.709 -0.4364  0.2152  0.1645
80839W        W23756  10.103  14.247   7.325 -0.1846 -0.2712  0.1031
80840W        W23757   9.777  12.843   4.744 -0.0840  0.2812  0.0780
80841W        W23758  10.963  13.244   5.706 -0.0244  0.1643  0.1645
80842W        W23759   8.585  10.486   4.791 -0.1358  0.3203  0.3562
80843W        W23760   9.330  14.313   4.707 -0.3529 -0.1286 -0.1348
80844W        W23761   6.853  12.289   3.883 -0.1547 -0.2167 -0.0732
80845W        W23762  10.120  12.765   6.063 -0.2054 -0.0959  0.0556
80846W        W23763   8.723  13.680   4.417  0.0197 -0.1706  0.1007
80847W        W23764   8.502  12.745   3.601  0.1871  0.2288  0.2531
80848W        W23765  10.191  15.169   5.967 -0.0014 -0.1829 -0.0023
80849W        W23766   8.691  12.549   4.240  0.0213  0.2819  0.0828
80850W        W23767   7.559  15.042   8.679 -0.3329  0.2695 -0.0971
80851W        W23768   8.554  11.396   7.138 -0.3155  0.2231 -0.1290
80852W        W23769  10.800  12.115   7.892  0.2880 -0.0273 -0.2126
80853W        W23770  10.605  13.033   7.759 -0.0130  0.2183  0.1949
80854W        W23771   8.135   9.572   7.699  0.0312 -0.0766 -0.3460
80855W        W23772   8.848  14.442   8.974 -0.1794  0.0637  0.1396
80856W        W23773   7.816  15.600   9.136  0.1762 -0.1759  0.1313
80857W        W23774   7.971  12.949   6.912  0.0145 -0.0975  0.2286
80858W        W23775  10.522  11.622   8.010  0.2294  0.0474 -0.2297
80859W        W23776   8.717  11.262   9.002  0.1577 -0.0640  0.1683
80860W        W23777   8.051  11.018   4.402  0.0525 -0.2725 -0.1590
80861W        W23778   6.519  11.318   8.682 -0.2667  0.1967  0.1952
80862W        W23779  10.026  11.161   8.545 -0.0826 -0.0266 -0.1809
80863W        W23780   8.125  13.196   8.569  0.1630 -0.0222  0.2262
80864W        W23781   8.092  11.540   6.312  0.2220 -0.0244 -0.1256
80865W        W23782   8.986  12.659   6.492  0.1272 -0.1372 -0.3512
80866W        W23783  10.124  14.145   6.101  0.1210  0.0844  0.1640
80867W        W23784   6.807   9.768   9.057  0.1375 -0.0535  0.0699
80868W        W23785  10.426  14.158   8.454 -0.2323  0.2347 -0.0890
80869W        W23786   7.360  12.111   7.001 -0.0451 -0.1003  0.0290
80870W        W23787   7.329  13.470   9.091  0.1077  0.4214  0.2188
80871W        W23788   6.808  12.295   9.669 -0.0817 -0.0627 -0.3171
80872W        W23789   6.818  12.170   9.211  0.3545 -0.0306  0.0373
80873W        W23790   9.166  12.831   8.562 -0.0006 -0.3231 -0.1762
80874W        W23791   6.354  13.479   7.246  0.0996 -0.0689  0.0358
80875W        W23792   7.170  12.854   8.463  0.1891  0.2374  0.3980
80876W        W23793   7.474  14.743   9.080 -0.1501 -0.2031 -0.1227
80877W        W23794   7.423  13.931   7.242  0.1988 -0.0990  0.0666
80878W        W23795   7.393  13.100   7.771  0.1971  0.0966 -0.0532
80879W        W23796  10.839  11.033   9.762 -0.0681  0.0658  0.0093
80880W        W23797   7.875  14.970   7.037  0.0264  0.0651  0.0063
80881W        W23798   9.113  11.332   8.608  0.1429  0.0646 -0.2424
80882W        W23799   9.668  12.198   9.742 -0.1789 -0.0741 -0.0252
80883W        W23800   7.574  13.084   7.169 -0.1789 -0.0723 -0.1782
80884W        W23801   8.153  11.841   9.502 -0.0764  0.2418 -0.2723
80885W        W23802   7.547  13.498   7.588 -0.0599 -0.1420  0.3496
80886W        W23803   9.451  15.740   7.536 -0.3134  0.1151 -0.2064
80887W        W23804  12.307  13.271   8.177 -0.0640 -0.2331 -0.2066
80888W        W23805   8.629  10.994   5.129  0.0943  0.2889 -0.0466
80889W        W23806   9.335  12.106   7.016 -0.1222  0.1283  0.1355
80890W        W23807   7.879  11.177   6.597  0.1265  0.1257  0.2233
80891W        W23808   8.697  12.242   8.829  0.0569  0.3436 -0.0359
80892W        W23809   8.196  11.076   9.621  0.2304 -0.0722 -0.0315
80893W        W23810   9.422  12.563   8.242 -0.1442 -0.1859  0.0120
80894W        W23811   9.347  13.135   7.836  0.2297  0.0751 -0.3168
80895W        W23812   5.378  12.984   9.384 -0.1063 -0.3587 -0.2540
80896W        W23813   8.358  11.750   8.777  0.3261 -0.0799 -0.4269
80897W        W23814   9.495  15.058   8.668  0.0596  0.1485 -0.2939
80898W        W23815  10.383  13.646   8.763  0.4360 -0.2186 -0.0019
80899W        W23816  10.601  13.659   5.594  0.1066  0.0971 -0.2101
80900W        W23817   6.766  11.761   5.863 -0.0161 -0.0632  0.1678
80901W        W23818   7.849  10.596   4.781 -0.0048 -0.3077 -0.1060
80902W        W23819  11.052  14.006   9.731  0.2987  0.1164 -0.2659
80903W        W23820   7.511  12.284   9.746 -0.1915 -0.0460  0.2587
80904W        W23821  11.535  12.983   9.691 -0.1492  0.1669 -0.1229
80905W        W23822  10.772  12.387   6.657 -0.2008  0.0749 -0.0582
80906W        W23823   8.735  10.529   8.380 -0.4238 -0.1319  0.0482
80907W        W23824  10.135  12.683   8.946 -0.0073 -0.1570 -0.2718
80908W        W23825   8.944  12.594   7.016  0.1009 -0.1803 -0.3609
80909W        W23826   7.891  11.555   8.646  0.0136  0.0853 -0.1143
80910W        W23827  11.774  14.041   9.990 -0.1626 -0.2165  0.1238
80911W        W23828  10.226  11.072   9.567  0.0831  0.0121  0.1839
80912W        W23829   6.923  14.159   8.784 -0.2016 -0.3571  0.0348
80913W        W23830   5.773  14.985   6.018 -0.1569 -0.3313 -0.1015
80914W        W23831   8.120  16.947   9.302 -0.1224 -0.0295 -0.1649
80915W        W23832   8.780  12.272   6.259  0.2461  0.1262  0.2662
80916W        W23833   9.153  10.983   9.340  0.0287  0.1689 -0.0467
80917W        W23834   8.869  12.190   8.012 -0.1590 -0.0268 -0.1098
80918W        W23835  10.205  10.160   8.599 -0.1708  0.2195 -0.1064
80919W        W23836   8.698  10.650  10.017  0.1251 -0.1385 -0.5278
80920W        W23837   8.839  13.767   6.626 -0.0252  0.0047  0.1660
80921W        W23838  11.901  12.205   9.017  0.3254  0.1361 -0.0549
80922W        W23839  11.241  11.349   8.448 -0.3867  0.1164  0.1295
80923W        W23840   9.684  14.325   5.991 -0.0206  0.0791  0.0771
80924W        W23841   6.326  11.054  12.563  0.0909 -0.1343 -0.0976
80925W        W23842   7.115  12.669   9.779 -0.0786  0.3607  0.3221
80926W        W23843   7.320  13.641   8.206  0.4597  0.2460 -0.3186
80927W        W23844   7.499  10.429   5.154  0.0079 -0.2415  0.3217
80928W        W23845   9.311  13.720   7.779 -0.0612  0.0224 -0.1083
80929W        W23846   7.374  12.661   7.527 -0.0295 -0.2691 -0.0810
80930W        W23847   7.084  13.005   6.241 -0.2883  0.1990  0.0005
80931W        W23848   9.375  12.513   7.298 -0.0350 -0.0196 -0.0065
80932W        W23849  10.323  12.359   9.918  0.1824  0.0704 -0.0635
80933W        W23850   8.834  14.598   8.070  0.2976 -0.2840  0.2184
80934W        W23851  12.976   7.934   9.235 -0.2219  0.2518 -0.0691
80935W        W23852   7.648  11.720   3.733 -0.0168 -0.1118  0.1705
80936W        W23853   3.920  15.680   9.370 -0.1940  0.1367  0.2551
80937W        W23854   8.772  11.607   8.413 -0.0619  0.1939  0.0031
80938W        W23855   9.325  11.916   8.314  0.1095 -0.2922  0.1962
80939W        W23856  10.751  14.026   8.066 -0.0687  0.1051  0.2151
80940W        W23857   9.634  12.648   8.766  0.1722  0.1729  0.0109
80941W        W23858  11.501  13.471   9.003 -0.0755 -0.1858 -0.0145
80942W        W23859   9.502  14.755   7.175  0.0745  0.0243 -0.0348
80943W        W23860   8.423  12.574   7.133 -0.2879  0.1935  0.1812
80944W        W23861   8.959  13.964   7.577 -0.0860  0.0388 -0.1744
80945W        W23862   8.834  12.814   5.999  0.0196 -0.1265 -0.0634
80946W        W23863   6.032  12.251   7.655 -0.0075  0.1523  0.1831
80947W        W23864  10.810  13.277   9.306 -0.0458 -0.0425 -0.0605
80948W        W23865  10.782  13.777   9.360 -0.0075  0.4098 -0.2016
80949W        W23866   7.249  12.562   6.087  0.1062 -0.0226  0.1068
80950W        W23867   9.850   9.258   8.071  0.0354  0.1592 -0.2068
80951W        W23868  10.378  11.462   9.885 -0.2819 -0.2214  0.2048
80952W        W23869  10.473  14.298   6.840  0.0680 -0.0717  0.1506
80953W        W23870   9.669  11.954   4.930 -0.0065  0.0316  0.0552
80954W        W23871   9.083  10.842   8.205  0.0215 -0.1119 -0.1389
80955W        W23872   9.089  11.187   7.148  0.1217  0.1094 -0.1644
80956W        W23873   4.016  12.946   9.564 -0.1056 -0.3609 -0.2513
80957W        W23874   8.720   9.805   5.993  0.1842 -0.2297 -0.3607
80958W        W23875  11.259  13.920   8.148  0.1392 -0.1611 -0.2064
80959W        W23876  10.354  15.826  10.440 -0.1267 -0.1047  0.0879
80960W        W23877   8.132  14.557   8.080 -0.2166 -0.0067  0.1126
80961W        W23878   7.907   9.836   9.174 -0.3162 -0.3376 -0.1826
80962W        W23879   8.670  10.323   4.339  0.0041 -0.0272  0.2131
80963W        W23880   9.901  14.197   8.327  0.1805  0.0378  0.0464
80964W        W23881   7.883  13.402   6.803  0.0651 -0.0996  0.0264
80965W        W23882  10.560  12.536   8.666  0.1076  0.1993  0.3049
80966W        W23883   9.405  11.581   7.341 -0.0748 -0.3534 -0.1238
80967W        W23884  10.236  10.988   7.538  0.0432  0.1049 -0.1298
80968W        W23885   7.053  11.189   8.925  0.0085 -0.0632 -0.3785
80969W        W23886   8.133  13.127   5.593  0.2983 -0.1920 -0.0054
80970W        W23887   8.249   9.266   9.900 -0.0684 -0.0344  0.0777
80971W        W23888   7.039  14.113   6.765  0.1889  0.4322  0.2067
80972W        W23889  10.257  12.945   7.358 -0.1953  0.2544  0.2287
80973W        W23890  10.196  11.409   6.357 -0.0645  0.1959  0.0504
80974W        W23891   9.795  12.042   6.800 -0.1039  0.2501  0.2115
80975W        W23892   8.807  11.809   4.804 -0.0828  0.0288 -0.2295
80976W        W23893   8.767  11.070   6.232 -0.4534  0.1006  0.3508
80977W        W23894   9.983  12.669   9.639  0.1521 -0.2079  0.1527
80978W        W23895   9.013  14.327   6.059  0.0288 -0.1098 -0.1031
80979W        W23896   8.169  12.315   7.506 -0.1385 -0.0693  0.1262
80980W        W23897   8.175  15.477   6.276  0.0538 -0.3049 -0.0983
80981W        W23898  11.160  10.944   8.054 -0.0117 -0.3603 -0.0511
80982W        W23899   9.306  11.737   9.964  0.1162  0.1165  0.1148
80983W        W23900   9.521  11.022   6.872  0.2495 -0.3646  0.0081
80984W        W23901   7.042  11.005   6.298 -0.2494 -0.0353  0.1409
80985W        W23902   7.599   9.709   9.535  0.2859 -0.1630 -0.4564
80986W        W23903  11.341  12.279   5.139 -0.1888 -0.2276 -0.0030
80987W        W23904   9.914  13.651   9.084 -0.2633 -0.0863  0.3419
80988W        W23905   7.873  11.840   7.248  0.0001 -0.1749 -0.1534
80989W        W23906  10.001  11.491   9.363  0.4115 -0.1594  0.7646
80990W        W23907  10.259  13.692   7.346 -0.0253 -0.1029 -0.0816
80991W        W23908   9.374  12.627   6.207 -0.0084  0.0258  0.3791
80992W        W23909  12.043   8.774   9.874  0.0908 -0.1976  0.0820
80993W        W23910   6.264  11.751   5.973 -0.0384  0.1977 -0.1881
80994W        W23911   7.053  13.939   6.255 -0.4094  0.0842 -0.1932
80995W        W23912  13.563   5.924  10.109 -0.0306 -0.2560 -0.0225
80996W        W23913  10.475  11.410   7.166 -0.1816 -0.0036  0.2241
80997W        W23914   6.731  14.261   9.249 -0.0825 -0.3758 -0.0311
80998W        W23915   8.347   8.674   8.871  0.1371 -0.0551 -0.1247
80999W        W23916   7.738  11.661   9.316 -0.3333 -0.0453  0.3244
81000W        W23917   8.268  11.422   8.379  0.1734 -0.0347 -0.0762
81001W        W23918  10.079  10.981   9.020 -0.1782  0.1174  0.0245
81002W        W23919   9.581  12.806   9.370  0.1591  0.2903  0.0156
81003W        W23920   9.158  10.094   7.678  0.2304  0.0388 -0.1741
81004W        W23921   9.140  12.239  10.035  0.0995 -0.0419 -0.1083
81005W        W23922   8.513  13.320   7.676  0.0598  0.0852 -0.3988
81006W        W23923   7.324  13.032   6.746  0.0461  0.0834 -0.0983
81007W        W23924   6.386  14.526   7.834  0.1017 -0.1959 -0.0642
81008W        W23925  11.199  14.246   5.658 -0.1019  0.0436  0.0224
81009W        W23926   7.884  13.132   7.656  0.0629 -0.1046 -0.1910
81010W        W23927   6.463  14.080   8.514 -0.2538  0.0938 -0.1236
81011W        W23928  10.921  13.628   5.971 -0.2397 -0.0080  0.4487
81012W        W23929   9.864  14.141  10.752  0.1744 -0.0754 -0.1995
81013W        W23930  10.463   9.770   8.546  0.1327 -0.1027 -0.0060
81014W        W23931  10.780  14.328   5.428 -0.0941  0.4323 -0.0737
81015W        W23932   9.364  13.660   8.898 -0.0496  0.0137 -0.1211
81016W        W23933   9.644  11.840   6.336  0.1692 -0.2332 -0.0675
81017W        W23934   5.903  11.724   7.861 -0.0679 -0.2140 -0.0969
81018W        W23935  11.580  11.950   9.316 -0.2432 -0.2853  0.2164
81019W        W23936   8.250  12.588   5.152 -0.0352 -0.0539 -0.0973
81020W        W23937   7.896  10.758   5.390  0.2155 -0.0399  0.1286
81021W        W23938   8.922  14.087   8.052  0.1704  0.0797 -0.2255
81022W        W23939   8.888  13.588   8.075  0.1662  0.2424 -0.2560
81023W        W23940   9.368  11.816   8.910 -0.0326 -0.0897  0.1071
81024W        W23941   8.795  10.650   5.670  0.1140  0.0583  0.1228
81025W        W23942   7.733  14.315   8.211  0.1332 -0.0924 -0.3322
81026W        W23943   9.060  12.924   9.121  0.0205 -0.2218 -0.1653
81027W        W23944   8.914  10.969   7.569 -0.3673  0.1485 -0.0686
81028W        W23945   9.209  11.728   7.869  0.0123 -0.0644 -0.1009
81029W        W23946   9.041  14.099   9.926 -0.0104  0.1293 -0.1588
81030W        W23947   8.638  11.910   7.701  0.1223  0.0001 -0.0042
81031W        W23948   9.978  14.601  10.500 -0.0712 -0.2287  0.2602
81032W        W23949  11.759  12.058   7.779 -0.1512  0.2149  0.0776
81033W        W23950  11.097  13.047   9.993  0.0756 -0.0655  0.2016
81034W        W23951  10.623  12.016   8.707  0.1422 -0.0502 -0.1189
81035W        W23952   9.742  11.358   8.924 -0.0297 -0.0588  0.3685
81036W        W23953   4.278   9.063   9.796  0.2724  0.0057  0.1185
81037W        W23954   8.824  12.310   3.289  0.1817 -0.0974 -0.0686
81038W        W23955   8.223  13.658   8.130  0.2527  0.0228 -0.1467
81039W        W23956   8.509  12.715   8.051  0.0632 -0.0430  0.1874
81040W        W23957   9.081  12.700   7.739  0.0608  0.3181  0.1415
81041W        W23958   7.413  12.645   8.880  0.1940  0.0090  0.0331
81042W        W23959   9.029  10.690   4.945  0.0812  0.0815  0.3774
81043W        W23960   7.340  13.988   5.758 -0.2493  0.0612 -0.4004
81044W        W23961  10.538  12.880   8.291 -0.1412  0.2928  0.1456
81045W        W23962   8.289  10.133   6.790  0.2983  0.2744  0.0855
81046W        W23963   8.527  11.623   9.260  0.3102  0.1686 -0.1691
81047W        W23964  10.796   9.459   9.231 -0.0433  0.0331  0.0126
81048W        W23965   8.097  15.008   7.646 -0.2741  0.2641 -0.0746
81049W        W23966   7.327  14.317   7.654  0.2831  0.0711 -0.1612
81050W        W23967   8.035  10.091   8.746  0.0947  0.0132 -0.1060
81051W        W23968   9.713  10.949   9.592 -0.1049  0.0345 -0.1475
81052W        W23969   7.656  12.208   7.479 -0.0939 -0.0524 -0.2460
81053W        W23970   7.325  12.139   8.881  0.2165  0.1885 -0.0237
81054W        W23971  10.977  12.830   8.859 -0.3298  0.1259 -0.1865
81055W        W23972   5.983  13.303   7.985 -0.1443 -0.0786  0.0015
81056W        W23973   9.824  13.598   8.590 -0.0748 -0.1183  0.0199
81057W        W23974   8.490  11.808   6.499  0.2119 -0.0382 -0.3908
81058W        W23975   8.713  12.142   5.184 -0.2361 -0.2058 -0.0047
81059W        W23976   6.072  11.206   9.000 -0.0490 -0.0514 -0.0043
81060W        W23977   8.469  14.602   6.338 -0.0394 -0.2823  0.0187
81061W        W23978  10.467  12.515   7.009  0.0573  0.0600 -0.1940
81062W        W23979   9.716  13.478   8.112 -0.0459  0.3180 -0.3935
81063W        W23980  10.736  13.724   8.424  0.0082  0.0847  0.1218
81064W        W23981   9.074  12.524   5.211  0.0500 -0.2101  0.1647
81065W        W23982   8.607  13.799   8.410 -0.1767 -0.0859  0.0946
81066W        W23983   6.565  12.994   6.475  0.3320  0.1373  0.0192
81067W        W23984  11.228  15.171   8.215  0.1822  0.2085  0.0957
81068W        W23985   8.982  10.839   8.668  0.4022  0.6250 -0.1470
81069W        W23986  10.759  10.375   6.252  0.3216  0.0675  0.1691
81070W        W23987   9.239  12.790   9.922 -0.2961  0.2562  0.1082
81071W        W23988   9.879  13.208   9.456 -0.1343  0.2300 -0.0124
81072W        W23989   8.130  11.558   6.866  0.1041  0.0778  0.1043
81073W        W23990   9.676  10.497   6.775 -0.0706  0.0103  0.0364
81074W        W23991  11.287  13.845   8.730  0.2093 -0.0612 -0.1581
81075W        W23992   7.111  12.972   7.288  0.0011 -0.0904 -0.1796
81076W        W23993   7.553  13.193   8.573 -0.1067 -0.0084  0.3006
81077W        W23994  10.717  11.153   8.200  0.1205 -0.2781 -0.0849
81078W        W23995   9.832  14.870   7.540 -0.3493  0.0819  0.1654
81079W        W23996   8.613  11.561   6.105  0.2300 -0.1729  0.2386
81080W        W23997   8.309  15.739   9.010  0.0891  0.1004 -0.3150
81081W        W23998   8.624  13.301   8.385 -0.0343  0.1428 -0.0324
81082W        W23999   7.862  12.739   7.361  0.0104 -0.0359 -0.1515
81083W        W24000   8.212  11.241   5.398 -0.0226 -0.0942 -0.2613
81084W        W24001  11.091  12.247   8.719  0.2671  0.3056 -0.0452
81085W        W24002   8.615  12.055   8.396 -0.1945  0.0973 -0.1309
81086W        W24003   8.642  12.441   7.652 -0.1981  0.0816 -0.1621
81087W        W24004  10.182  12.459   7.557 -0.0861 -0.2591 -0.3469
81088W        W24005   8.159  13.685   8.646 -0.1277 -0.2055  0.2770
81089W        W24006   7.750  13.518   8.840 -0.0686  0.0267 -0.1563
81090W        W24007   7.853  12.521   7.828  0.2728  0.2181  0.0597
81091W        W24008  10.215  10.999   5.950 -0.1657  0.2748  0.0346
81092W        W24009   7.945  10.779   7.425  0.0208 -0.0162 -0.1060
81093W        W24010  11.773  12.462   7.585  0.0644 -0.3259  0.0477
81094W        W24011   9.019  13.529   9.792 -0.1647 -0.0901 -0.1283
81095W        W24012   9.257  10.396   9.144  0.0754 -0.2663  0.3529
81096W        W24013   7.944  11.305   7.315 -0.0237 -0.1930  0.1127
81097W        W24014   9.772  12.208   7.551 -0.1865  0.2554  0.3107
81098W        W24015   8.826  11.281   7.954  0.0401  0.1062 -0.0872
81099W        W24016   9.616  13.802   6.610 -0.1046  0.1326  0.0273
81100W        W24017  10.314  13.030   9.288  0.2326 -0.2746 -0.2246
81101W        W24018  10.478  14.967  10.254 -0.5830 -0.0759 -0.3085
81102W        W24019   6.317  11.957   9.475 -0.2158  0.1577 -0.0701
81103W        W24020  11.369  15.776  11.126 -0.1215 -0.1688  0.1307
81104W        W24021   9.615  14.436   7.514  0.0213 -0.2530  0.1065
81105W        W24022   8.944   9.363   6.695  0.1225  0.1048 -0.0643
81106W        W24023   7.358  13.051   9.479  0.0723 -0.0706  0.1281
81107W        W24024   6.406  14.038   7.264  0.0858  0.1001  0.0897
81108W        W24025  10.198  12.197   8.895  0.0682 -0.2697  0.2164
81109W        W24026   8.162  15.379   6.802  0.0174 -0.2458  0.2776
81110W        W24027   9.721  12.977   8.230  0.2396 -0.3657  0.1667
81111W        W24028   7.788  12.132   6.057 -0.4927  0.0059  0.1151
81112W        W24029   9.779  12.916   7.627  0.3535 -0.1203 -0.2040
81113W        W24030   8.263  13.319   7.246 -0.3051 -0.0557  0.1101
81114W        W24031   9.315  14.171   8.891 -0.1846  0.1419 -0.0579
81115W        W24032  11.121  12.804   9.501 -0.1420  0.0365 -0.1523
81116W        W24033  11.337  13.440   8.276  0.0099 -0.0584 -0.1390
81117W        W24034   7.823  10.515   8.848  0.0399 -0.0096 -0.3828
81118W        W24035  12.112  11.511   6.989 -0.0798 -0.0314  0.2731
81119W        W24036  11.529  11.052   9.681  0.0099  0.0433  0.2587
81120W        W24037   9.112  12.339   8.543 -0.1724 -0.1599 -0.0221
81121W        W24038   8.517  11.948   7.222  0.4271 -0.3974  0.1455
81122W        W24039   8.264  13.678   5.772  0.4438 -0.0964 -0.0732
81123W        W24040   7.849  14.485   7.693  0.1394 -0.1752  0.0548
81124W        W24041   8.389  12.845   9.449  0.1948 -0.3916  0.2175
81125W        W24042   8.289  11.620   7.511  0.0715 -0.0750 -0.0329
81126W        W24043  10.300  14.798   7.386  0.1264  0.2068  0.1900
81127W        W24044   7.669  10.027  10.007 -0.0940 -0.1771  0.0337
81128W        W24045   7.253  10.855   9.395 -0.2360 -0.2739  0.1011
81129W        W24046  10.586  14.390   7.321 -0.0077 -0.3689 -0.0049
81130W        W24047  10.397  13.844   6.464  0.0063  0.0173  0.0449
81131W        W24048   7.278   9.247   5.528 -0.0511  0.0582 -0.0544
81132W        W24049   7.898  13.522   5.300  0.0967 -0.2643  0.1876
81133W        W24050   8.340  12.155   4.320  0.2486  0.0902 -0.1929
81134W        W24051   8.792   8.489   9.624  0.0272  0.1873  0.0524
81135W        W24052  10.699  13.501   6.612  0.3717  0.4265 -0.0166
81136W        W24053   9.230  14.664   7.823 -0.1830  0.2180  0.1123
81137W        W24054   9.045  10.562   9.552  0.1797 -0.0777 -0.4210
81138W        W24055   9.693  12.839   7.087  0.1272  0.0316 -0.0779
81139W        W24056  11.038  12.632   7.127 -0.0817 -0.0877  0.0634
81140W        W24057  10.467  13.049   8.750  0.1279  0.2401  0.2761
81141W        W24058   9.820  11.184   7.746 -0.0682 -0.1777  0.0616
81142W        W24059  10.278  14.634   9.273 -0.0198 -0.1012 -0.0355
81143W        W24060   8.403  11.109   7.574 -0.0634 -0.0258  0.2162
81144W        W24061   9.062  11.895   6.039 -0.2369  0.2023 -0.0220
81145W        W24062   9.894  13.914   7.864  0.2913  0.4458  0.0630
81146W        W24063   9.909  13.788   9.801  0.1563 -0.0733  0.0299
81147W        W24064   9.285  11.702   6.668 -0.5377 -0.1422  0.0876
81148W        W24065   7.791  12.952   8.178  0.0769 -0.0118 -0.3120
81149W        W24066   9.005  11.709   7.047  0.3357 -0.3034  0.0782
81150W        W24067  11.493  11.389   9.164  0.1373  0.4129  0.0157
81151W        W24068   8.869  13.003   8.129  0.4438 -0.0464 -0.2204
81152W        W24069   7.342  15.676   9.027 -0.1766  0.1184  0.0198
81153W        W24070  10.599  12.099   6.228  0.2724  0.1720 -0.2371
81154W        W24071   6.344   9.757   8.843  0.2111 -0.1763 -0.1506
81155W        W24072   7.251  11.509   8.122 -0.0135 -0.0714 -0.0383
81156W        W24073   7.727  12.700   6.523  0.2023 -0.0325 -0.1398
81157W        W24074  11.120  14.563   8.410 -0.0923  0.2512 -0.4381
81158W        W24075   8.722   9.232   8.171 -0.0141  0.0028 -0.2507
81159W        W24076   8.704  10.494   6.191  0.0481  0.4078  0.0324
81160W        W24077   6.731  11.333   9.325  0.0203  0.1399 -0.1298
81161W        W24078   7.233  11.488   9.362  0.1138 -0.1360 -0.1507
81162W        W24079   8.994  17.563   3.481  0.1882 -0.1837 -0.0015
81163W        W24080   9.741  14.806   1.025 -0.2512 -0.1196  0.2697
81164W        W24081  12.112  15.971   0.179  0.3656 -0.1482  0.0187
81165W        W24082  11.265  15.867   2.034  0.2405  0.1658  0.1352
81166W        W24083   8.159  15.802   1.661  0.4363 -0.2441  0.1208
81167W        W24084   9.852  17.099   1.488 -0.0152  0.0433  0.0555
81168W        W24085   8.066  13.362   3.032 -0.1148  0.1537 -0.1027
81169W        W24086   8.430  19.250   2.076  0.1543  0.4689 -0.1672
81170W        W24087  11.039  17.798   4.099  0.2240  0.2512  0.1478
81171W        W24088  10.414  17.535   0.578 -0.0614  0.1828 -0.1485
81172W        W24089  10.065  16.246   3.896 -0.0670  0.0224  0.2567
81173W        W24090   8.962  19.699   2.652 -0.1979  0.2753 -0.0757
81174W        W24091   9.300  13.959  29.904 -0.2433  0.1613 -0.0304
81175W        W24092   6.552  14.922   1.689  0.1606  0.1885 -0.0654
81176W        W24093   9.859  16.102   1.585  0.0603 -0.0201  0.0906
81177W        W24094   9.004  16.485   0.582  0.0333 -0.2099 -0.3784
81178W        W24095   9.357  17.368   2.594  0.2459  0.0036 -0.1656
81179W        W24096   7.851  14.008   1.921  0.2284 -0.3653  0.1273
81180W        W24097   8.803  17.524   0.576  0.1483 -0.0121 -0.0186
81181W        W24098   9.534  13.846   4.727 -0.0640 -0.0257  0.0710
81182W        W24099  11.424  13.633   3.237  0.1464  0.3291  0.2026
81183W        W24100   9.692  17.119   0.146 -0.1617  0.2281  0.1996
81184W        W24101   8.824  16.259   1.007 -0.0706 -0.3446 -0.1621
81185W        W24102   8.529  16.653   0.783  0.1758 -0.1192 -0.0213
81186W        W24103   7.992  16.222   1.423  0.1029  0.0207  0.1143
81187W        W24104   9.782  17.900   3.408  0.1298 -0.0120 -0.0467
81188W        W24105  11.898  16.909   0.414  0.3218 -0.2094 -0.0174
81189W        W24106  10.189  17.348   1.973  0.0814  0.0234 -0.0113
81190W        W24107  10.295  17.583   2.902  0.2233 -0.0455 -0.2704
81191W        W24108   9.143  17.116   4.382  0.0743  0.0032 -0.2343
81192W        W24109   7.836  15.998   0.714  0.1027  0.2995 -0.0211
81193W        W24110   7.620  17.531   0.465 -0.2091 -0.1479 -0.0591
81194W        W24111   8.789  18.131  31.676 -0.1412  0.1907 -0.0873
81195W        W24112  10.275  18.951   1.775 -0.0872 -0.4923  0.0835
81196W        W24113   8.573  18.990   2.638  0.0390 -0.0383 -0.1058
81197W        W24114  10.994  20.454   3.313 -0.0818  0.1589 -0.1936
81198W        W24115   9.593  16.918   0.650 -0.1606 -0.0672 -0.0017
81199W        W24116   9.383  18.424   3.660 -0.0017  0.4039  0.0122
81200W        W24117   9.616  17.604   4.261  0.0345  0.0817 -0.1506
81201W        W24118   9.615  16.225   2.587 -0.0926 -0.1642  0.0028
81202W        W24119   9.138  16.939   2.460  0.0068  0.3267 -0.1239
81203W        W24120   8.182  17.887  31.848  0.0610  0.0220  0.0612
81204W        W24121   9.830  17.374   2.362  0.1845  0.4038  0.0826
81205W        W24122  10.207  17.526   5.607 -0.1974 -0.1733 -0.1168
81206W        W24123   7.616  18.241   3.317 -0.2963  0.2256  0.2117
81207W        W24124  11.124  15.532   3.076  0.0410 -0.1195  0.1275
81208W        W24125   7.640  15.741  30.726  0.3183  0.2020  0.0028
81209W        W24126  10.913  16.173  31.641  0.2888  0.0373 -0.1274
81210W        W24127  10.283  17.170  29.242 -0.2100 -0.2788 -0.0218
81211W        W24128  11.069  14.311  30.998 -0.0937 -0.2362  0.0198
81212W        W24129   9.511  14.778   3.136  0.0227 -0.1267 -0.0435
81213W        W24130   8.911  18.743   2.356 -0.0137 -0.4074 -0.3771
81214W        W24131   9.190  17.976   1.894 -0.0471  0.1414 -0.2020
81215W        W24132   9.930  18.057   2.613  0.0672  0.0681 -0.0431
81216W        W24133   9.843  16.162   0.381  0.6060 -0.1438 -0.3940
81217W        W24134  10.883  17.151   3.355 -0.2272 -0.1920  0.0319
81218W        W24135   8.481  19.487   2.571  0.1200  0.2144 -0.0018
81219W        W24136   8.899  13.800   1.317  0.0095  0.4672 -0.0515
81220W        W24137  10.436  18.084   0.722 -0.2447 -0.0023  0.4673
81221W        W24138  12.408  19.955   1.097  0.3401  0.0757 -0.1118
81222W        W24139  10.471  16.424  31.668 -0.0794 -0.1970 -0.0728
81223W        W24140   9.090  17.190   1.540  0.1022 -0.3276 -0.0148
81224W        W24141   9.636  16.079   2.074 -0.0013 -0.2115  0.2115
81225W        W24142   6.334  16.036   3.995 -0.0023  0.0465  0.1589
81226W        W24143   8.703  14.349  31.553 -0.0733  0.0829 -0.3559
81227W        W24144  10.685  16.768   2.085 -0.0043 -0.0821 -0.0652
81228W        W24145   7.259  17.785   4.189 -0.0330  0.0624  0.0630
81229W        W24146  10.723  17.600   2.428  0.0022  0.3493 -0.0286
81230W        W24147  10.973  16.854   2.907 -0.0302 -0.1631  0.0517
81231W        W24148  10.502  15.993   3.274  0.1937  0.0157  0.0564
81232W        W24149  10.064  19.337   1.505  0.1569 -0.0025  0.2573
81233W        W24150  11.619  14.034   0.179 -0.1247  0.0398  0.0836
81234W        W24151  10.361  14.759   1.735 -0.3445 -0.0383  0.0261
81235W        W24152  10.848  15.649   1.401 -0.1874  0.1863  0.3956
81236W        W24153   8.618  17.840   0.137 -0.0574  0.1773 -0.1706
81237W        W24154  10.669  18.047   2.222 -0.2087 -0.1961 -0.2334
81238W        W24155  10.694  17.956   1.523  0.1238  0.1150  0.1165
81239W        W24156   9.011  17.788   2.618 -0.2063 -0.0348 -0.1997
81240W        W24157   9.097  13.953   3.883 -0.4076 -0.0282  0.1023
81241W        W24158   9.154  17.432   3.956  0.2029  0.0897  0.0648
81242W        W24159   9.770  18.541   1.171  0.1107  0.1106  0.0727
81243W        W24160   7.041  18.271   3.448  0.2983 -0.0761 -0.2565
81244W        W24161   7.223  16.577   0.268  0.0614  0.1387  0.0752
81245W        W24162   9.268  13.031   2.552 -0.0232  0.0609 -0.2599
81246W        W24163   8.234  17.470   3.201 -0.0878 -0.0291 -0.0743
81247W        W24164  10.897  15.072  30.297 -0.1997  0.0808 -0.2046
81248W        W24165  10.284  16.404   4.401 -0.0898 -0.2994 -0.0890
81249W        W24166  10.355  16.372   0.400  0.1283  0.1349  0.1668
81250W        W24167   9.204  16.751   0.945  0.0390  0.1162 -0.3733
81251W        W24168  11.112  19.119   1.303  0.2359  0.0689  0.0960
81252W        W24169  11.113  15.721   0.240 -0.0118 -0.1812 -0.1188
81253W        W24170  11.162  16.773  30.231  0.1609 -0.0894  0.3467
81254W        W24171   6.840  14.406   2.673  0.1542 -0.3158 -0.3730
81255W        W24172   8.300  13.591   1.899  0.0084  0.0754  0.1803
81256W        W24173   9.280  14.980   4.922  0.2717  0.1764  0.1923
81257W        W24174   7.559  15.045   2.467 -0.0822 -0.1177 -0.3691
81258W        W24175  11.408  17.320   3.549  0.1278  0.2277 -0.0668
81259W        W24176   8.712  15.060   2.617 -0.0535 -0.0878  0.0169
81260W        W24177   9.767  16.632   1.699  0.0535  0.3334  0.0545
81261W        W24178  10.934  14.740   0.341 -0.1744  0.1749  0.2008
81262W        W24179   9.142  15.787  31.874 -0.4633 -0.0274 -0.1612
81263W        W24180  10.905  15.326   2.565 -0.1206 -0.3402 -0.0329
81264W        W24181  12.306  17.721   1.114 -0.2178  0.2586 -0.1579
81265W        W24182  13.769  18.675   2.089 -0.0427  0.0439  0.1859
81266W        W24183  10.617  19.737   3.305  0.1916  0.2153 -0.1925
81267W        W24184   8.390  15.352   2.425  0.1930  0.2355  0.2586
81268W        W24185   8.275  13.364  31.447  0.1371  0.2074 -0.2628
81269W        W24186  10.429  18.065   2.650 -0.5033 -0.3365 -0.2502
81270W        W24187   9.443  16.246  31.643  0.0835 -0.2891 -0.2660
81271W        W24188   7.373  14.183   0.356 -0.0587 -0.1766  0.2527
81272W        W24189  10.946  18.391   2.614 -0.2327 -0.3493 -0.1547
81273W        W24190   9.349  15.940   0.346 -0.0586 -0.3441 -0.0006
81274W        W24191   5.539  18.039   2.463  0.0263 -0.1473 -0.2242
81275W        W24192  11.870  16.141   3.145  0.0492 -0.1442 -0.0220
81276W        W24193  11.438  16.377   2.896 -0.1280 -0.1526 -0.1550
81277W        W24194  10.183  16.862   2.171  0.0639 -0.1058  0.2081
81278W        W24195   8.487  14.801   0.508  0.1363 -0.0526 -0.1156
81279W        W24196   8.028  17.298   0.739 -0.1009 -0.0629  0.0170
81280W        W24197   8.700  16.947  30.672 -0.0667 -0.0014  0.2517
81281W        W24198   9.073  16.008   1.371  0.0050 -0.2853  0.0747
81282W        W24199  12.203  18.187   0.228 -0.2401  0.0087 -0.2604
81283W        W24200  11.328  16.810   1.392  0.0023 -0.3233 -0.0586
81284W        W24201   7.922  16.600   3.205  0.1881 -0.0501  0.0942
81285W        W24202  10.940  16.435   4.324  0.1077  0.0220  0.2245
81286W        W24203   6.606  16.140   1.319 -0.1717 -0.0700 -0.1470
81287W        W24204   7.521  17.139   2.113  0.1287 -0.1967  0.0840
81288W        W24205   9.826  14.708  31.246 -0.1555 -0.3198 -0.0405
81289W        W24206  10.695  15.707   0.467  0.0988 -0.5027  0.3923
81290W        W24207  10.865  16.307   5.473  0.1223  0.2569 -0.2546
81291W        W24208  11.250  16.672   2.349 -0.3296 -0.0309 -0.0593
81292W        W24209  11.033  16.893  29.697 -0.1640  0.4061 -0.0543
81293W        W24210  11.428  17.115   0.534 -0.2633  0.1928 -0.1627
81294W        W24211   8.745  15.797   3.225 -0.1977  0.1967 -0.1119
81295W        W24212   8.525  16.245   0.502  0.1210  0.3871 -0.3030
81296W        W24213   8.687  17.476   3.071  0.2071  0.1487 -0.4428
81297W        W24214  10.138  16.935  31.869  0.1062  0.0281 -0.0298
81298W        W24215  10.628  18.287   0.035 -0.0351 -0.1451  0.1042
81299W        W24216   9.267  16.581   2.750  0.2055  0.2362  0.2174
81300W        W24217   9.207  17.885   4.254 -0.1426 -0.1017  0.1672
81301W        W24218  10.249  18.876  30.795  0.2499  0.2034 -0.0957
81302W        W24219  10.005  15.038   2.829  0.2283 -0.1020  0.1657
81303W        W24220  10.258  15.488  31.229 -0.0687 -0.0746  0.0562
81304W        W24221  10.132  15.188   1.378  0.2459 -0.0752  0.1718
81305W        W24222   6.568  18.270  31.684  0.0494 -0.0226  0.0017
81306W        W24223   8.855  15.006   1.760 -0.2564 -0.4297 -0.2275
81307W        W24224   9.406  17.737   2.297  0.2969  0.0863 -0.1264
81308W        W24225  10.322  14.860   5.551 -0.0118 -0.0170 -0.0114
81309W        W24226  10.360  16.377   4.922 -0.1637 -0.2578  0.4928
81310W        W24227   7.997  15.677   2.222 -0.1996  0.2987  0.3108
81311W        W24228  10.156  15.405   0.727 -0.0642 -0.0581  0.0102
81312W        W24229   8.838  13.153   0.707  0.0890  0.3046 -0.0637
81313W        W24230  10.721  13.364   1.687 -0.0256 -0.0224 -0.1375
81314W        W24231   8.911  16.335   1.924 -0.0077 -0.1454 -0.0613
81315W        W24232   8.469  16.764   5.781  0.0089  0.0587  0.0332
81316W        W24233  10.672  18.333   2.982 -0.0338 -0.1540 -0.0710
81317W        W24234   8.552  16.125   1.548 -0.2397  0.1342  0.1066
81318W        W24235   9.920  16.200   0.926  0.1325 -0.1559 -0.2759
81319W        W24236  10.791  15.957   0.903 -0.1150  0.0952  0.0089
81320W        W24237   9.024  17.509  29.903  0.0228 -0.1611  0.3640
81321W        W24238  11.174  16.114   0.618  0.0959  0.1991  0.0559
81322W        W24239   9.465  14.488   2.713  0.0636 -0.3758  0.0853
81323W        W24240   9.965  16.698   0.273  0.0191  0.0952  0.1385
81324W        W24241   8.874  17.009   0.662 -0.2637  0.1081  0.1358
81325W        W24242  10.798  17.864   4.954 -0.0346 -0.2583  0.2754
81326W        W24243   8.999  16.543   1.432  0.0669  0.0560  0.0019
81327W        W24244  11.250  14.921  31.683 -0.1566 -0.1006  0.0494
81328W        W24245   7.981  17.385   1.283 -0.1747  0.2295 -0.2185
81329W        W24246   7.620  15.908   1.610 -0.4685 -0.0870  0.0480
81330W        W24247   8.897  16.231  31.009 -0.0192 -0.3069 -0.1976
81331W        W24248  10.761  16.172   0.223  0.0592 -0.1404  0.0127
81332W        W24249  10.206  18.056   3.116  0.1063  0.1942  0.2244
81333W        W24250   9.162  14.635   1.870  0.3635  0.1400 -0.1627
81334W        W24251   9.703  15.758   2.462 -0.1759 -0.0395 -0.2825
81335W        W24252   7.312  19.776   0.801  0.1282  0.0558  0.1905
81336W        W24253  11.251  16.144   2.437  0.1541  0.2878  0.2187
81337W        W24254  12.047  16.794  31.807 -0.1934  0.1100 -0.0231
81338W        W24255   9.998  17.135   2.801 -0.0163  0.0825 -0.1730
81339W        W24256  10.010  15.324   3.638 -0.0378 -0.2342 -0.1789
81340W        W24257   8.552  11.695  30.888 -0.0966  0.0388  0.2977
81341W        W24258  11.864  15.543   3.463 -0.2683  0.1791  0.2747
81342W        W24259   9.476  14.504   2.203 -0.1351 -0.0124  0.0378
81343W        W24260   5.485  16.275  30.049  0.2909 -0.1374 -0.3522
81344W        W24261   8.959  18.275   2.750  0.1147  0.0874  0.0617
81345W        W24262   8.425  16.061  31.280  0.0411  0.1572 -0.0673
81346W        W24263   8.424  17.143   0.457 -0.0002 -0.2101 -0.0264
81347W        W24264  10.046  15.065   5.058 -0.2453 -0.0268  0.1952
81348W        W24265  11.421  16.857   3.267  0.1032 -0.3284 -0.1299
81349W        W24266   9.127  18.321   2.300 -0.3691  0.3560  0.0273
81350W        W24267   9.200  15.358   3.159 -0.1196 -0.2956  0.0117
81351W        W24268   8.497  16.488  31.770 -0.0378 -0.1477  0.0671
81352W        W24269  10.492  19.277   2.643 -0.4345 -0.0297 -0.3635
81353W        W24270   9.428  15.832   1.683 -0.1952  0.0489 -0.0983
81354W        W24271   9.285  18.413   3.132 -0.2798 -0.2199  0.1536
81355W        W24272   9.577  15.024   1.962 -0.0403  0.2911  0.2683
81356W        W24273  11.402  21.876  31.722 -0.3698  0.2544  0.0957
81357W        W24274   8.416  18.288   3.832 -0.1810  0.0712 -0.1206
81358W        W24275   8.464  16.400  30.674  0.0056 -0.0146  0.0610
81359W        W24276   9.672  16.976   2.182  0.3303  0.1935 -0.0677
81360W        W24277   8.923  16.362  30.489  0.1744  0.2889 -0.3555
81361W        W24278   9.253  15.380   1.945 -0.1864 -0.4998  0.0292
81362W        W24279   7.997  17.676   1.999 -0.2967  0.2760  0.3687
81363W        W24280   7.587  17.084   0.731 -0.1553 -0.2090  0.0693
81364W        W24281   8.164  16.414   0.179  0.1982 -0.2926 -0.1668
81365W        W24282   8.856  15.222  30.051  0.0792 -0.0282 -0.1018
81366W        W24283  10.471  18.547   0.463 -0.1904  0.0828  0.2981
81367W        W24284   8.488  16.299   2.406 -0.0695  0.0137  0.1781
81368W        W24285  10.462  15.569   4.266  0.1312  0.0401 -0.0888
81369W        W24286  10.310  15.940   0.087 -0.0942 -0.4244  0.1632
81370W        W24287  10.383  14.407   2.564  0.2107 -0.1655  0.4371
81371W        W24288   8.294  16.409   2.899  0.1666 -0.0959  0.1377
81372W        W24289  10.532  17.458   1.556  0.0513 -0.1301  0.0375
81373W        W24290   7.073  15.245   2.408  0.2436 -0.0174  0.0515
81374W        W24291   8.809  18.345   3.514 -0.0435  0.2074  0.1740
81375W        W24292   8.651  15.074   3.719 -0.2850  0.2351  0.0365
81376W        W24293   8.982  15.208   0.476 -0.1584  0.3852 -0.0189
81377W        W24294   8.620  14.223   0.667 -0.1698  0.1310  0.2144
81378W        W24295  10.494  17.014   3.042  0.0490  0.1262  0.2224
81379W        W24296   9.904  17.334   3.281  0.1799  0.1103 -0.1665
81380W        W24297   7.520  16.859   1.676 -0.0151 -0.0775  0.0075
81381W        W24298  11.043  15.868   4.339  0.2250  0.0412  0.2119
81382W        W24299   7.431  17.610   3.220 -0.1812  0.0796 -0.3610
81383W        W24300  10.221  17.149   1.155  0.0744  0.1934 -0.1328
81384W        W24301   9.395  17.461  31.442 -0.0895 -0.0382  0.3227
81385W        W24302   8.170  17.425  30.575  0.0855 -0.0258  0.0970
81386W        W24303   8.293  12.216   2.181 -0.1992 -0.2505  0.1657
81387W        W24304  10.395  16.943   1.676  0.0777 -0.2274  0.2446
81388W        W24305  11.007  14.345   0.088 -0.2480  0.1125  0.1564
81389W        W24306  11.301  17.215   2.928 -0.0585 -0.0106  0.0154
81390W        W24307   9.561  17.018   3.554 -0.3057 -0.2384 -0.0785
81391W        W24308   9.862  16.116   3.476 -0.3881  0.0137 -0.0250
81392W        W24309   8.982  15.368   4.087  0.0735 -0.0454  0.1116
81393W        W24310  11.192  18.083   2.273 -0.4507  0.0117  0.2371
81394W        W24311  10.596  17.241  31.281 -0.1984  0.1643 -0.2609
81395W        W24312  10.547  16.068   2.758  0.0682 -0.1329 -0.5639
81396W        W24313   9.527  16.424   0.756  0.2723  0.0880 -0.2568
81397W        W24314   8.863  15.901   0.590  0.1759  0.0217 -0.1086
81398W        W24315   7.283  16.933  31.912 -0.2191  0.1483 -0.0804
81399W        W24316   8.967  15.559   3.617  0.0397  0.1184  0.0995
81400W        W24317   9.555  15.188   0.529 -0.0332 -0.2701 -0.1425
81401W        W24318  10.114  16.001   4.660 -0.2940 -0.0255 -0.1718
81402W        W24319   8.627  17.841   0.919  0.1605 -0.1541 -0.1133
81403W        W24320  11.441  17.551  30.758  0.1265 -0.1343 -0.2159
81404W        W24321   8.604  13.642   0.904  0.0716  0.1715  0.0888
81405W        W24322   6.998  16.961   2.013  0.2582  0.0970 -0.4706
81406W        W24323   8.993  19.422   4.391 -0.0886 -0.2818  0.2175
81407W        W24324   8.343  14.551   0.963 -0.1792 -0.0861 -0.1660
81408W        W24325   9.766  15.659  31.140  0.0260  0.0702 -0.0868
81409W        W24326   8.816  17.107   1.977  0.2125  0.0184 -0.0649
81410W        W24327   9.406  17.592   3.187  0.0990  0.0653  0.0589
81411W        W24328   8.995  15.127  31.789  0.0507  0.0167 -0.4681
81412W        W24329   9.739  15.913   2.975  0.2336  0.1065 -0.3293
81413W        W24330   7.594  15.597  31.314  0.1606  0.0802 -0.3755
81414W        W24331   7.093  13.946   0.736  0.0665  0.2460 -0.4318
81415W        W24332   9.372  16.328   1.713  0.4264  0.0650 -0.1585
81416W        W24333   9.353  15.602   1.212 -0.2286 -0.1970  0.1247
81417W        W24334   9.669  18.887   3.014  0.1056 -0.1312  0.0478
81418W        W24335  10.128  14.474   0.956 -0.0479 -0.1064  0.1343
81419W        W24336   9.713  17.399   1.846  0.3336  0.0442 -0.0847
81420W        W24337   8.599  16.723   1.725 -0.1034  0.1120 -0.2070
81421W        W24338  10.057  15.731   5.403 -0.2561 -0.1175 -0.0713
81422W        W24339   9.678  19.248   5.303  0.1879  0.2111  0.0695
81423W        W24340   9.319  16.013   0.849  0.5327  0.2577  0.0697
81424W        W24341  10.101  17.857   5.196 -0.0525  0.1412  0.1029
81425W        W24342   9.691  18.087   1.666  0.0831  0.4500  0.0475
81426W        W24343   8.096  17.152   3.892  0.0662 -0.0929  0.2574
81427W        W24344   6.762  16.575   2.255 -0.3738 -0.1053 -0.2591
81428W        W24345   9.012  17.048   5.075 -0.3386  0.1410  0.1373
81429W        W24346   9.909  14.452   1.910  0.1394 -0.3289  0.0527
81430W        W24347   7.762  13.608   1.163  0.1244 -0.0044  0.0548
81431W        W24348   7.713  18.290  31.157 -0.1209  0.2089  0.0920
81432W        W24349  10.131  16.293   2.966  0.0504  0.1902  0.2540
81433W        W24350   8.257  16.242   1.924 -0.1543 -0.0753  0.1986
81434W        W24351   8.088  17.783   0.967  0.1641 -0.0266  0.1280
81435W        W24352  10.778  18.579  31.641  0.2329 -0.3463  0.0104
81436W        W24353   9.718  15.769   0.719 -0.0302  0.0660  0.0244
81437W        W24354   9.550  19.428   1.509 -0.0650 -0.1934 -0.1543
81438W        W24355   8.864  17.608   1.636 -0.0858  0.1421 -0.1469
81439W        W24356   9.415  16.468   0.292  0.1054  0.0510  0.1980
81440W        W24357   6.333  17.156   0.542  0.2027 -0.0417  0.1091
81441W        W24358  10.691  15.650  31.897  0.0022  0.2499 -0.2122
81442W        W24359   7.943  17.153   1.748 -0.3575 -0.2050  0.0206
81443W        W24360  11.260  18.326   4.083 -0.0118 -0.0006  0.0857
81444W        W24361  12.505  15.326   1.180 -0.0144  0.3962  0.0143
81445W        W24362  10.635  15.945   1.939 -0.2010 -0.1393  0.1270
81446W        W24363  10.622  15.136   1.954  0.2129 -0.0620 -0.0524
81447W        W24364  10.844  16.495   2.573  0.0723 -0.0950  0.0155
81448W        W24365   8.996  17.024   3.703 -0.2075  0.0418  0.1702
81449W        W24366   9.593  16.705  31.846  0.0834  0.0629 -0.1549
81450W        W24367  10.976  17.363   3.837 -0.3715 -0.0551  0.0176
81451W        W24368  12.207  17.237   3.550  0.0269 -0.0439 -0.1813
81452W        W24369   6.874  17.197   2.436 -0.0168  0.0210  0.0261
81453W        W24370  10.978  17.437  30.787 -0.0144 -0.1565 -0.0856
81454W        W24371   9.966  14.762   0.531 -0.1327 -0.0661 -0.0351
81455W        W24372   9.202  16.907   0.218 -0.2363 -0.1015 -0.1764
81456W        W24373   9.813  15.669   0.202  0.2708  0.0675  0.0447
81457W        W24374   9.278  17.258   2.012 -0.0470  0.1843  0.3991
81458W        W24375   9.265  15.526   0.701 -0.4272 -0.3041  0.1164
81459W        W24376   7.486  17.318   1.258  0.2553  0.0118 -0.1372
81460W        W24377   9.794  17.581   2.865 -0.0923  0.3205  0.1663
81461W        W24378  10.143  18.206   2.162  0.1750  0.3571 -0.2843
81462W        W24379   8.869  14.587   0.837 -0.2434 -0.0791  0.0676
81463W        W24380   9.918  15.298   2.378 -0.1479 -0.1892 -0.1407
81464W        W24381   9.416  16.780   1.396  0.2751 -0.1751  0.2268
81465W        W24382  11.450  15.858   3.248  0.0572 -0.0034 -0.3171
81466W        W24383   8.316  16.931   2.033 -0.2217 -0.2023  0.0731
81467W        W24384  10.417  13.595   1.365 -0.0005 -0.0949 -0.1142
81468W        W24385  10.945  18.055   3.661  0.0106  0.5004 -0.0983
81469W        W24386   7.706  15.813   2.617 -0.0493 -0.1597  0.1540
81470W        W24387   8.813  15.718   1.049  0.0433  0.0137  0.0691
81471W        W24388  10.714  16.331   3.646  0.3621 -0.1829  0.2898
81472W        W24389  10.981  17.726  31.210  0.1679 -0.0503 -0.2766
81473W        W24390  11.592  18.934   2.482 -0.4128 -0.2002 -0.2306
81474W        W24391   7.492  15.667   0.893  0.2562  0.1176 -0.1501
81475W        W24392  10.469  16.756  31.312 -0.1680 -0.0785  0.0938
81476W        W24393   9.176  16.994  31.678  0.0710  0.0176  0.0868
81477W        W24394   9.509  17.030   3.015 -0.0424  0.0144 -0.1554
81478W        W24395   9.933  17.789   2.036 -0.0158 -0.1514 -0.1263
81479W        W24396   6.822  14.654   1.309 -0.3785 -0.4268 -0.3889
81480W        W24397  11.793  19.698   1.193 -0.2933 -0.0273  0.0480
81481W        W24398  11.966  18.362   2.539  0.0186  0.0438 -0.1900
81482W        W24399   9.627  18.538  31.192  0.0239 -0.2719  0.0447
81483W        W24400  10.909  15.520   1.929  0.1906  0.1670 -0.0161
81484W        W24401  12.227  18.157   1.803  0.1089  0.1251 -0.1603
81485W        W24402   9.697  15.403   1.528  0.0535 -0.2415 -0.1507
81486W        W24403  10.600  16.805   1.206 -0.0865  0.4541 -0.1248
81487W        W24404  10.252  17.663   2.382  0.0703  0.2687 -0.1789
81488W        W24405   9.329  14.524   1.160 -0.1768  0.0676 -0.4801
81489W        W24406   8.626  16.672   0.265  0.5249  0.0398  0.0735
81490W        W24407   8.354  17.144  31.486  0.0956 -0.1237  0.1926
81491W        W24408  12.363  17.673   1.602 -0.1981 -0.0445 -0.0477
81492W        W24409   8.600  15.547   2.849 -0.0892  0.1441 -0.0546
81493W        W24410   9.474  16.288  30.209 -0.0482 -0.0104 -0.1530
81494W        W24411  10.671  14.785   2.427  0.3511  0.0333 -0.1244
81495W        W24412   9.440  17.971   2.812  0.1386  0.3211  0.0947
81496W        W24413   8.731  18.995   6.005  0.0676 -0.0114  0.1162
81497W        W24414   9.809  16.695  30.958 -0.2195 -0.0118 -0.2614
81498W        W24415   7.106  16.335   2.675 -0.4344  0.1163 -0.4616
81499W        W24416   8.363  17.160   1.496 -0.0659  0.0726 -0.2586
81500W        W24417  10.914  16.309   2.102  0.1501  0.1501 -0.1586
81501W        W24418   9.833  19.584   1.092 -0.6242 -0.2272 -0.1307
81502W        W24419   9.844  15.140   0.088  0.0693 -0.0986  0.1563
81503W        W24420  10.146  18.939   1.173  0.1705  0.3083 -0.0327
81504W        W24421   7.780  14.271   2.324 -0.0123  0.1519 -0.0377
81505W        W24422  11.787  14.634   1.544  0.1621  0.2901 -0.0235
81506W        W24423   8.491  14.121   1.198  0.2550  0.2190 -0.2046
81507W        W24424   8.317  17.015   2.917  0.2227  0.0567  0.0474
81508W        W24425   6.979  15.192  30.656 -0.1176 -0.0203 -0.0186
81509W        W24426   7.615  16.695  30.577 -0.2396 -0.1667 -0.4550
81510W        W24427   9.246  16.709   3.371 -0.0102 -0.1811  0.3052
81511W        W24428  10.770  13.739   3.084  0.1271 -0.1193  0.0948
81512W        W24429   9.288  15.830   2.782 -0.2110  0.2869  0.0052
81513W        W24430   8.369  15.471   1.078 -0.0327 -0.2075 -0.2405
81514W        W24431  10.236  15.908   0.579 -0.3648 -0.1018 -0.0922
81515W        W24432  10.451  17.774   1.907  0.0201 -0.3857 -0.0624
81516W        W24433   9.325  14.014   2.492  0.0262  0.1665 -0.1482
81517W        W24434   6.156  14.086   2.040 -0.0255  0.0810  0.0886
81518W        W24435  10.947  19.291   0.797 -0.3836 -0.1448 -0.1571
81519W        W24436  11.033  18.903   2.515 -0.1824 -0.0585 -0.0641
81520W        W24437   9.658  17.977   0.118 -0.0507 -0.0528  0.1108
81521W        W24438  12.295  16.215   3.926  0.1437 -0.2815 -0.1332
81522W        W24439   8.331  18.451  31.571  0.2448 -0.2031  0.2811
81523W        W24440   9.356  16.507   2.230  0.3523 -0.0646  0.2281
81524W        W24441   9.154  14.877   3.873 -0.1120  0.1549  0.0705
81525W        W24442   5.195  14.442   0.872 -0.3737  0.0255 -0.1341
81526W        W24443   8.600  15.621   1.555 -0.2638 -0.4367  0.0115
81527W        W24444  10.195  18.123   1.265 -0.2390 -0.1038  0.4793
81528W        W24445  11.573  17.150   0.071  0.1233  0.0432  0.2739
81529W        W24446   8.756  16.965   3.304  0.0908  0.3134 -0.0938
81530W        W24447   9.279  17.920   3.613  0.0701  0.2685 -0.0235
81531W        W24448   7.766  14.745   3.389  0.1849 -0.1754  0.2472
81532W        W24449  11.379  17.740   1.065  0.0218 -0.0387  0.2665
81533W        W24450  10.068  17.261   4.333 -0.1122 -0.2573  0.1042
81534W        W24451  11.214  18.052   0.215  0.2909 -0.0819  0.0946
81535W        W24452  12.185  15.425  31.935 -0.2669 -0.1492  0.0571
81536W        W24453   8.893  17.420   0.101  0.2959 -0.1355 -0.2930
81537W        W24454   9.992  15.217   5.498  0.2153 -0.0183 -0.0083
81538W        W24455   7.414  17.015   3.372  0.1592  0.0849  0.2168
81539W        W24456   9.971  18.682   2.069 -0.2071  0.3371 -0.0389
81540W        W24457   6.453  13.338   0.998 -0.1754 -0.0840 -0.1270
81541W        W24458  10.238  16.710   0.786 -0.2143 -0.0396  0.1120
81542W        W24459   9.712  17.558   0.424 -0.2330 -0.0774 -0.1388
81543W        W24460   8.715  16.110   2.833 -0.0142  0.1448  0.0970
81544W        W24461  10.620  17.339   0.174  0.0387 -0.0244 -0.2130
81545W        W24462   9.442  18.873   2.165 -0.1639  0.0244  0.1193
81546W        W24463   9.988  16.412   2.166  0.1409  0.2131  0.0795
81547W        W24464  10.696  17.256   4.708  0.1359  0.1772  0.1009
81548W        W24465  10.324  15.457   0.217  0.1687 -0.0190  0.4329
81549W        W24466  11.222  15.878   1.193  0.0123  0.1146  0.3461
81550W        W24467  10.630  17.822   3.296 -0.2356 -0.0412  0.1313
81551W        W24468   9.825  18.785   4.435  0.0720  0.0426  0.1267
81552W        W24469   8.458  17.421   1.906 -0.0036 -0.0077  0.0096
81553W        W24470  10.091  15.695   3.345 -0.1440 -0.0162  0.1226
81554W        W24471   9.154  14.629   3.435 -0.1554  0.3693 -0.0597
81555W        W24472   8.346  15.784   0.663  0.0817  0.0162  0.1507
81556W        W24473   8.433  17.619   1.351 -0.1077 -0.2218 -0.2975
81557W        W24474  11.101  17.607   3.277 -0.1801 -0.2269  0.0350
81558W        W24475   9.065  16.209   2.482  0.1279  0.0362 -0.0205
81559W        W24476   9.745  14.865   1.534 -0.2297  0.0331 -0.1322
81560W        W24477   8.042  17.291   2.261 -0.1504 -0.1785  0.2162
81561W        W24478  11.061  15.294   0.539 -0.2243 -0.3208 -0.0798
81562W        W24479   9.460  16.350   6.166 -0.0976 -0.3718 -0.0127
81563W        W24480   9.689  16.296   4.208  0.1232 -0.3762 -0.2005
81564W        W24481   9.077  16.208   4.675 -0.1291  0.0972 -0.3811
81565W        W24482  12.676  16.427   4.975 -0.2704 -0.0072 -0.0456
81566W        W24483   9.544  14.269   6.985  0.1675  0.2903 -0.2608
81567W        W24484   9.329  19.197   4.839 -0.0049 -0.2112 -0.2249
81568W        W24485   8.586  14.182   6.870 -0.1524 -0.0875 -0.0122
81569W        W24486  10.288  16.086   5.646 -0.1171  0.0729  0.2038
81570W        W24487  10.113  19.416   6.788  0.0938  0.2658  0.0357
81571W        W24488  11.429  16.944   4.815  0.4620 -0.5127 -0.0371
81572W        W24489   9.657  16.502   8.062 -0.3646 -0.5260 -0.1529
81573W        W24490   8.991  18.133   7.944 -0.1624  0.1780  0.2038
81574W        W24491   8.433  15.382   3.366  0.2030 -0.0751  0.3010
81575W        W24492   8.613  17.372   7.858 -0.1483  0.2364 -0.0055
81576W        W24493   9.687  15.444   5.115 -0.0906  0.1840 -0.2833
81577W        W24494   9.137  16.283   3.160  0.1713  0.2916 -0.3343
81578W        W24495   6.959  15.222   6.955 -0.1691 -0.2330 -0.2658
81579W        W24496   9.953  15.227   6.999 -0.4043  0.0462  0.4548
81580W        W24497  10.568  17.882   5.873 -0.2408 -0.2002 -0.3227
81581W        W24498   6.157  14.968   7.550  0.0654 -0.0729  0.1396
81582W        W24499  10.138  12.940   6.855  0.0565  0.2063  0.0432
81583W        W24500  10.439  19.308   6.330  0.0502  0.0338  0.1850
81584W        W24501   8.352  16.098   3.334 -0.4358  0.3171 -0.4795
81585W        W24502   9.532  16.824   7.657 -0.0720  0.0214  0.0033
81586W        W24503   9.354  16.477   8.516  0.0906 -0.0436  0.0761
81587W        W24504   9.017  15.641   6.399 -0.2449  0.0062 -0.1148
81588W        W24505   9.995  16.821   3.262 -0.1819 -0.2926 -0.2040
81589W        W24506  10.321  19.235   4.698  0.0591 -0.2697  0.2407
81590W        W24507   9.924  18.244   6.875  0.1250 -0.0701 -0.1435
81591W        W24508   7.919  12.406   6.930  0.1578 -0.1278  0.1512
81592W        W24509   6.880  17.441   6.081  0.3225  0.0399 -0.0373
81593W        W24510   7.447  18.588   6.235  0.0567 -0.1257 -0.1318
81594W        W24511   9.053  18.396   4.550 -0.0849  0.2156  0.1932
81595W        W24512  11.778  16.927   3.580  0.3711  0.0492  0.0180
81596W        W24513  10.855  17.982   6.676  0.0530  0.1124  0.0288
81597W        W24514   9.520  17.525   9.213 -0.0779  0.1681  0.0724
81598W        W24515   8.705  17.220   4.702  0.2512  0.2675  0.0617
81599W        W24516   8.784  18.337   6.785  0.0494 -0.1539 -0.3086
81600W        W24517   8.731  17.534   5.482  0.1109  0.1634 -0.0204
81601W        W24518  10.170  16.678   8.461 -0.0339  0.0678  0.4362
81602W        W24519   9.562  17.156   4.068 -0.0745  0.2395 -0.0388
81603W        W24520   9.703  18.627   6.309 -0.1494 -0.2183 -0.0144
81604W        W24521  10.078  19.077   6.052  0.1671  0.1835  0.2139
81605W        W24522   9.016  17.585   6.854 -0.1917 -0.0331 -0.2738
81606W        W24523   8.251  17.705   5.838  0.0730  0.2144  0.1902
81607W        W24524  11.307  15.482   9.665  0.0306  0.3832  0.1996
81608W        W24525   5.582  17.212   2.956 -0.1071  0.2053 -0.1310
81609W        W24526  10.283  19.898   5.272 -0.1176  0.0250 -0.2385
81610W        W24527   7.259  15.104   2.839 -0.0076  0.0441 -0.1348
81611W        W24528  10.156  16.765   5.241 -0.0992  0.1307  0.1617
81612W        W24529   9.540  13.658   3.990  0.0507 -0.0893 -0.1324
81613W        W24530   9.060  18.623   5.588 -0.0320 -0.2713 -0.0981
81614W        W24531   9.908  16.719   6.311  0.0815 -0.2447 -0.0161
81615W        W24532  11.260  17.881   9.292  0.4091  0.1492  0.0434
81616W        W24533   9.037  16.985   6.095 -0.1321 -0.0444  0.0499
81617W        W24534  10.293  16.415   6.183 -0.0256  0.1314  0.1005
81618W        W24535   7.868  16.447   6.244 -0.1233 -0.1221 -0.3774
81619W        W24536   8.468  17.184   5.175 -0.0007  0.0217  0.0222
81620W        W24537  10.708  17.684   4.509  0.2281 -0.0584 -0.1764
81621W        W24538  11.491  17.256   4.039  0.0657  0.0095  0.1972
81622W        W24539  10.443  19.431   4.227 -0.1382 -0.1670  0.2334
81623W        W24540   8.843  16.692   4.634 -0.0447 -0.0264  0.0572
81624W        W24541   6.134  17.483   8.488  0.0933  0.0862 -0.1152
81625W        W24542   7.405  17.155   6.989  0.0384 -0.0067 -0.4107
81626W        W24543   9.165  15.011   4.428  0.1356  0.0365  0.3629
81627W        W24544  11.637  16.895   9.017 -0.0819 -0.0957 -0.0256
81628W        W24545   7.877  18.464   7.155 -0.1958  0.0027 -0.0623
81629W        W24546  10.898  16.819   4.686 -0.1607  0.2839 -0.3350
81630W        W24547  11.147  17.954   5.265  0.1061  0.1234  0.2369
81631W        W24548  11.339  18.224   6.564 -0.1772  0.0706  0.0620
81632W        W24549  12.097  16.567   3.603  0.2601 -0.0515 -0.1177
81633W        W24550  10.340  16.688   3.954  0.1507  0.0097  0.0418
81634W        W24551  12.295  17.262   5.539  0.3021 -0.0192 -0.1059
81635W        W24552   9.218  17.208   5.699 -0.2128  0.2137 -0.3529
81636W        W24553   8.719  17.224   5.874 -0.0310  0.0184 -0.0835
81637W        W24554   9.566  18.968   7.291  0.0973  0.3245 -0.0407
81638W        W24555  10.322  16.662   2.677 -0.2083 -0.1504  0.0225
81639W        W24556   9.170  18.042   6.967 -0.2144  0.1406 -0.0869
81640W        W24557   8.712  15.200   5.016 -0.3544 -0.1561  0.2076
81641W        W24558  11.060  17.614   7.387  0.0521  0.2085  0.1000
81642W        W24559   7.556  17.918   2.700  0.0725 -0.2103 -0.1397
81643W        W24560   9.339  18.348   6.187  0.0486  0.3653  0.1518
81644W        W24561   8.916  16.492   3.713  0.3148  0.1411  0.2900
81645W        W24562   5.862  15.399   6.281  0.1632  0.1902 -0.4177
81646W        W24563   7.148  16.128   5.109  0.0103  0.0805  0.1071
81647W        W24564   9.848  16.638   3.733 -0.5469  0.1037 -0.1080
81648W        W24565   7.901  14.241   6.378 -0.1706 -0.1818 -0.0682
81649W        W24566  12.786  16.115   4.065  0.0837  0.3842  0.0784
81650W        W24567   7.353  15.933   6.608  0.1006 -0.0877  0.1017
81651W        W24568  11.097  18.851   4.237 -0.0681  0.3015  0.1441
81652W        W24569  10.914  15.720   5.437 -0.2010 -0.0531  0.1746
81653W        W24570   9.974  18.916   4.993 -0.2041 -0.1524  0.1111
81654W        W24571   7.369  16.299   6.163 -0.2528  0.0299  0.0711
81655W        W24572   7.730  16.134   5.244 -0.4301  0.3150  0.0767
81656W        W24573   8.587  14.694   5.815  0.3413 -0.0243  0.3831
81657W        W24574   7.389  15.321   5.270 -0.1902 -0.0153 -0.0513
81658W        W24575  11.346  15.951   5.837 -0.2082 -0.2223  0.2469
81659W        W24576   7.626  13.961   3.556  0.4313 -0.6455 -0.1222
81660W        W24577   7.917  15.141   6.014 -0.0431 -0.1744  0.2708
81661W        W24578   8.505  16.099   5.334 -0.1846 -0.1835 -0.0438
81662W        W24579   7.723  16.716   5.053 -0.1621 -0.0457  0.3347
81663W        W24580  10.921  14.492   6.671 -0.0743  0.1710 -0.0374
81664W        W24581   9.793  21.060   5.494  0.0298 -0.0209 -0.1503
81665W        W24582  10.762  19.389   6.838 -0.0643 -0.0318 -0.1377
81666W        W24583  12.218  21.347   6.203  0.2052  0.1306 -0.1621
81667W        W24584   8.625  16.007   5.795 -0.0336  0.2713 -0.1221
81668W        W24585   9.218  15.812   4.371 -0.0691  0.1767 -0.0586
81669W        W24586   8.234  21.385   4.792  0.0418 -0.0612 -0.0473
81670W        W24587   9.819  17.687   6.722  0.0169  0.2226 -0.1339
81671W        W24588  10.440  16.882   6.595  0.1426  0.0709  0.1433
81672W        W24589  12.034  19.723   6.095  0.0288  0.0378  0.2451
81673W        W24590   9.571  18.762   5.760  0.2347  0.2372  0.4378
81674W        W24591   8.348  14.889   4.809  0.2485  0.3560  0.0192
81675W        W24592  10.335  16.458   7.244 -0.2198  0.1119 -0.3892
81676W        W24593  10.237  17.272   7.834  0.2277  0.1085  0.2856
81677W        W24594  10.303  17.287   5.154 -0.0895 -0.0863 -0.2050
81678W        W24595   8.496  15.338   4.198  0.0783 -0.1252 -0.0314
81679W        W24596  10.297  18.933   4.279  0.0347 -0.1181  0.0598
81680W        W24597   6.793  18.208   5.072 -0.2603 -0.0541 -0.1655
81681W        W24598   8.311  15.773   4.379  0.0468  0.3010  0.0623
81682W        W24599   9.545  18.116   4.545  0.4367  0.1515 -0.1354
81683W        W24600  11.206  14.780   5.388  0.0411 -0.0763 -0.1840
81684W        W24601   5.455  15.848   8.734 -0.3428  0.3315 -0.1995
81685W        W24602   7.820  16.223   6.810 -0.1900 -0.1687 -0.0631
81686W        W24603   8.038  15.628   3.046  0.1229 -0.0327  0.0554
81687W        W24604   7.729  16.776   8.133 -0.2336  0.1665  0.2002
81688W        W24605   9.290  14.022   5.165 -0.0297 -0.1359  0.2262
81689W        W24606  10.066  15.256   4.138  0.2010 -0.1847  0.2493
81690W        W24607   9.495  18.145   6.630 -0.1216  0.1191  0.3160
81691W        W24608  11.962  17.093   4.014 -0.1057  0.0367  0.0120
81692W        W24609  10.052  18.421   3.465 -0.1096  0.2636  0.1050
81693W        W24610   9.496  16.494   5.030 -0.2467 -0.0073  0.0961
81694W        W24611   7.455  16.194   7.116  0.0443  0.2069 -0.2007
81695W        W24612  10.149  16.294   7.890  0.0164  0.0597 -0.3306
81696W        W24613   8.290  18.077   7.038  0.0990 -0.0457  0.0385
81697W        W24614   9.806  15.754   3.806  0.3455 -0.2217  0.1002
81698W        W24615  11.675  18.900   4.670 -0.0053  0.0865  0.1083
81699W        W24616   8.884  17.229   7.276  0.1425 -0.4096  0.0810
81700W        W24617   9.268  15.603   8.146  0.0803 -0.2300 -0.0726
81701W        W24618  10.931  20.061   5.763 -0.1443 -0.2335 -0.1071
81702W        W24619   9.893  14.708   6.360 -0.0631 -0.0155  0.0211
81703W        W24620   9.588  15.457   4.206  0.4366 -0.1026  0.0627
81704W        W24621   9.729  13.099   6.189  0.2000 -0.0160 -0.3860
81705W        W24622   6.867  17.558   4.035  0.4220 -0.1806  0.0316
81706W        W24623  12.583  17.826   4.291  0.0073  0.1292 -0.1187
81707W        W24624  10.803  15.388   9.135  0.0608  0.2735  0.3562
81708W        W24625   7.667  13.625   5.708 -0.0757  0.1500  0.1527
81709W        W24626  10.078  16.557   6.842 -0.0776 -0.0741  0.2827
81710W        W24627  11.214  17.522   4.847 -0.0532 -0.1308 -0.0002
81711W        W24628   8.589  16.777   6.314 -0.0587 -0.0588  0.2304
81712W        W24629   8.070  16.443   4.002 -0.0681 -0.0890  0.3336
81713W        W24630   8.980  14.827   5.317 -0.2445 -0.0178  0.2805
81714W        W24631   4.489  15.055   7.537  0.0935  0.1287  0.0026
81715W        W24632   5.626  17.970   8.502  0.1991 -0.1001  0.1460
81716W        W24633   9.943  17.495   7.368 -0.1858 -0.0455 -0.3959
81717W        W24634   9.475  17.384   6.883 -0.0737 -0.0660 -0.3338
81718W        W24635   9.691  16.824   8.520  0.2292  0.3046  0.4397
81719W        W24636  10.656  16.721   5.203  0.1515 -0.0574 -0.1181
81720W        W24637   9.465  18.797   3.956  0.3209 -0.0524  0.3312
81721W        W24638  10.429  18.255   6.211 -0.1215  0.0398 -0.5042
81722W        W24639   8.833  13.196   4.667  0.0323 -0.0031 -0.0411
81723W        W24640  10.402  18.293   5.716 -0.0143  0.0677 -0.1255
81724W        W24641   8.476  16.729   3.824  0.0669  0.0606  0.1949
81725W        W24642  10.480  18.799   5.631 -0.1217 -0.1700  0.2376
81726W        W24643   7.581  16.360   4.164  0.0741 -0.1034 -0.2470
81727W        W24644  10.839  14.016   6.566 -0.0471  0.0313 -0.0612
81728W        W24645   8.094  19.148   6.522 -0.1116  0.3296 -0.0524
81729W        W24646   8.816  15.473   4.573  0.2347 -0.2421  0.0751
81730W        W24647   9.134  16.282   4.129  0.3543  0.0770  0.1444
81731W        W24648  12.255  12.346   2.824 -0.0787 -0.2039  0.1583
81732W        W24649  10.627  18.164   4.029  0.0170  0.1320 -0.1421
81733W        W24650   8.621  16.302   4.843  0.1572  0.2472  0.4084
81734W        W24651   7.741  14.405   5.564 -0.4783  0.1524 -0.2907
81735W        W24652   7.645  16.372   4.700  0.2422  0.0235 -0.2055
81736W        W24653   9.427  18.133   5.592  0.0371 -0.3895  0.1203
81737W        W24654  11.744  13.037   2.846 -0.1620 -0.0603  0.0058
81738W        W24655  10.730  19.125   4.456  0.2049  0.0192 -0.0061
81739W        W24656   9.112  16.685   7.380 -0.1811  0.1786 -0.1836
81740W        W24657   6.819  15.403   2.839  0.3660 -0.0410 -0.0378
81741W        W24658  11.744  18.108   9.533 -0.0724  0.0011  0.0243
81742W        W24659   9.920  18.124   5.547 -0.0177  0.1424 -0.2819
81743W        W24660   9.227  18.387   5.093  0.1409 -0.1382 -0.0154
81744W        W24661   8.277  17.223   7.495  0.3306 -0.2620 -0.1322
81745W        W24662   7.235  16.914   2.584 -0.0890 -0.0762 -0.1882
81746W        W24663   7.775  15.972   3.956 -0.1164 -0.1875 -0.0610
81747W        W24664   8.603  16.295   4.312 -0.0925  0.0808 -0.1147
81748W        W24665  10.636  18.129   7.187 -0.2166 -0.1508 -0.0120
81749W        W24666   9.887  15.234   6.368 -0.0615  0.1176 -0.2095
81750W        W24667   7.918  15.424   4.251 -0.2017  0.0258  0.0788
81751W        W24668   8.974  15.993   5.455 -0.2346  0.2822  0.0711
81752W        W24669  10.653  18.420   6.693 -0.1490  0.2229 -0.0035
81753W        W24670   9.979  15.409   7.498 -0.0507 -0.2022  0.1648
81754W        W24671   6.326  16.274   5.885  0.1320  0.1879 -0.1101
81755W        W24672  10.398  13.602   6.036  0.1536 -0.4445  0.1633
81756W        W24673  10.767  19.128   5.924  0.2851 -0.0575  0.0982
81757W        W24674  10.030  14.249   6.590  0.3099  0.0679  0.0908
81758W        W24675   7.840  16.736   5.815 -0.2233  0.2150  0.2828
81759W        W24676   9.238  17.880   8.389  0.1718  0.4137  0.0001
81760W        W24677   9.709  18.557   5.298  0.0205  0.0018  0.3549
81761W        W24678   8.812  14.781   4.745 -0.3922  0.2082 -0.0747
81762W        W24679   7.468  15.490   6.287  0.1289 -0.0475 -0.0144
81763W        W24680   8.163  17.665   5.273  0.0261  0.0136 -0.1213
81764W        W24681   8.210  18.265   5.922 -0.0700  0.1504  0.0244
81765W        W24682  11.861  16.607   2.320 -0.1448 -0.3080 -0.2702
81766W        W24683  10.177  18.441   4.378  0.3084 -0.0052  0.0240
81767W        W24684   8.203  15.245   3.792 -0.2969  0.0406  0.0535
81768W        W24685  10.539  16.903   6.084 -0.0469 -0.1315 -0.1835
81769W        W24686  11.652  16.644   4.041 -0.1280  0.3211  0.0930
81770W        W24687  10.905  12.645   7.892  0.0592  0.3204 -0.0563
81771W        W24688  10.340  16.744   7.971 -0.2868 -0.1017 -0.0468
81772W        W24689  11.330  18.002   4.712 -0.2068  0.2152  0.4175
81773W        W24690   9.094  15.225   6.770  0.0563  0.1450 -0.0861
81774W        W24691  11.644  20.158   6.993  0.4858 -0.3695  0.4355
81775W        W24692   7.860  19.216   6.966 -0.1210  0.1690 -0.2537
81776W        W24693   9.333  15.991   5.156 -0.3226 -0.0306  0.2666
81777W        W24694   9.287  15.779   2.273  0.3996  0.1981 -0.2295
81778W        W24695  10.874  18.866   6.938 -0.2304  0.3009 -0.0396
81779W        W24696  12.394  17.019   5.038  0.1985 -0.1436 -0.0875
81780W        W24697   9.986  18.913   5.517 -0.0523  0.0369  0.2075
81781W        W24698  11.508  16.207   4.280 -0.2109  0.0983  0.0695
81782W        W24699   6.977  16.868   6.563  0.0897  0.0127 -0.1266
81783W        W24700  10.273  17.826   6.532  0.0299  0.1026  0.3128
81784W        W24701   9.897  17.092   5.476 -0.2825  0.0119  0.0439
81785W        W24702   9.308  17.689   6.519  0.0345  0.1436 -0.0178
81786W        W24703   7.149  15.788   5.955  0.0778 -0.1402  0.3208
81787W        W24704  11.012  17.739   5.735 -0.0119  0.3780  0.4001
81788W        W24705  10.067  17.007   5.906  0.1875 -0.4402 -0.3282
81789W        W24706   9.449  15.262   7.244  0.0854  0.2000 -0.3271
81790W        W24707  10.418  17.382   6.223 -0.2842 -0.0081 -0.0230
81791W        W24708   8.387  15.655   8.460  0.0053  0.2702 -0.2867
81792W        W24709   6.859  14.500   6.423 -0.2241  0.0194 -0.2158
81793W        W24710  11.638  20.199   7.533 -0.2408 -0.0251  0.0869
81794W        W24711  10.111  16.984   4.771 -0.0995 -0.1716 -0.0814
81795W        W24712  11.474  16.888   5.725  0.1982 -0.0158 -0.1089
81796W        W24713   9.936  16.231   5.072 -0.1141  0.0816 -0.4031
81797W        W24714  11.607  17.440   7.033 -0.2572  0.1803 -0.2884
81798W        W24715   9.521  16.894   5.968  0.0744  0.1354 -0.0077
81799W        W24716  10.502  15.917   6.656 -0.0964 -0.0056 -0.0947
81800W        W24717   8.963  15.858   1.879 -0.1830 -0.0612  0.0617
81801W        W24718   8.258  15.478   5.701  0.1248 -0.1227  0.0361
81802W        W24719   8.166  19.882   3.394 -0.0736 -0.1460 -0.1359
81803W        W24720   9.469  18.706   4.746 -0.2690 -0.1015  0.1434
81804W        W24721   9.300  16.415   5.552 -0.1729  0.3122  0.1678
81805W        W24722   7.028  16.330   3.249 -0.1264  0.0615  0.0913
81806W        W24723   7.294  17.015   7.561 -0.0384 -0.1257  0.2752
81807W        W24724   8.706  14.154   4.590 -0.1466  0.1493 -0.3050
81808W        W24725   8.204  17.229   5.789 -0.0239  0.0588 -0.4766
81809W        W24726  10.721  18.632   7.395 -0.0284  0.0343  0.0886
81810W        W24727  11.119  16.349   8.457 -0.3828 -0.3100  0.3354
81811W        W24728  10.097  13.641   3.142  0.0645 -0.0754  0.0642
81812W        W24729  11.061  16.209   9.691  0.0938 -0.0935 -0.4002
81813W        W24730   9.022  18.922   4.339 -0.1409 -0.0241 -0.1069
81814W        W24731   9.912  14.280   4.493  0.0884 -0.0404  0.0248
81815W        W24732   8.572  17.998   6.102  0.0890 -0.1688  0.2469
81816W        W24733   8.626  16.770   6.978 -0.3604 -0.1765 -0.1541
81817W        W24734   8.826  18.458   6.282  0.3037 -0.1601  0.4289
81818W        W24735   9.752  15.639   7.090  0.1094 -0.3583 -0.2032
81819W        W24736  11.059  17.714   8.304 -0.0973 -0.2430 -0.1563
81820W        W24737   9.819  17.484   6.265  0.0283  0.0712  0.3018
81821W        W24738   9.545  16.007   5.657  0.0805 -0.0393 -0.2735
81822W        W24739  10.341  18.332   7.491  0.1175 -0.2648  0.5454
81823W        W24740   7.353  17.661   5.933  0.1028 -0.0325 -0.1949
81824W        W24741  10.621  17.837   7.575  0.1439  0.2665  0.0021
81825W        W24742  10.659  19.739   6.101 -0.1700 -0.2677  0.2735
81826W        W24743   6.855  16.974   5.629  0.0120 -0.1187  0.0779
81827W        W24744   8.412  15.069   6.115  0.0695  0.1879  0.1619
81828W        W24745   8.980  18.011   6.355  0.1731  0.1477 -0.0969
81829W        W24746  10.023  17.147   6.532  0.0688 -0.0679 -0.1089
81830W        W24747   9.791  14.028   5.487 -0.0089 -0.1272 -0.0080
81831W        W24748   9.596  19.774   4.451  0.0086 -0.2139 -0.4036
81832W        W24749   7.529  17.054   9.485  0.3064 -0.0322  0.0628
81833W        W24750   6.833  16.981   7.882  0.2228  0.0452 -0.1502
81834W        W24751   8.650  18.541   4.259 -0.4684 -0.1007  0.0899
81835W        W24752  10.378  17.371   3.383 -0.0038  0.0868  0.2140
81836W        W24753  11.869  18.570   5.359  0.3196 -0.0531  0.2003
81837W        W24754   9.989  19.327   7.351 -0.1118 -0.2668  0.0318
81838W        W24755   8.257  16.375   5.661 -0.2197  0.1647  0.4730
81839W        W24756   8.976  17.990   5.346  0.2484  0.3168 -0.1613
81840W        W24757   8.924  16.856   5.564 -0.2860 -0.0065 -0.2156
81841W        W24758  11.833  18.064   6.492  0.1708 -0.2517 -0.3621
81842W        W24759   8.250  19.342   4.697 -0.1228  0.1719 -0.1497
81843W        W24760  10.809  16.684   8.245 -0.0635 -0.0818  0.3219
81844W        W24761   9.401  16.322   3.591  0.0874  0.0098 -0.3183
81845W        W24762  10.200  17.762   4.225 -0.0755 -0.3019 -0.1881
81846W        W24763  11.352  17.323   6.023  0.0234  0.1020 -0.1209
81847W        W24764   9.859  17.299   9.566  0.1042  0.1893  0.1037
81848W        W24765   9.378  15.214   6.336  0.0607  0.1418  0.1595
81849W        W24766   9.819  16.623   5.624  0.3080  0.0839  0.1579
81850W        W24767   7.672  17.048   5.468  0.0736  0.1361  0.1674
81851W        W24768  10.574  16.411   6.715  0.5728  0.0562  0.0414
81852W        W24769  10.362  16.761   8.927 -0.0532 -0.2103  0.1035
81853W        W24770  11.723  17.242   4.483 -0.1635 -0.1236 -0.0568
81854W        W24771   9.054  14.145   3.397 -0.0501 -0.2464 -0.1585
81855W        W24772   9.184  16.861   6.934 -0.0424  0.0644 -0.0773
81856W        W24773  10.790  16.363   6.183 -0.1408 -0.1245 -0.1143
81857W        W24774  10.019  17.579   3.740 -0.0288  0.3223 -0.0676
81858W        W24775   8.410  13.379   6.645  0.2439 -0.1509  0.1089
81859W        W24776   9.320  18.259   7.486  0.0758  0.0747 -0.2300
81860W        W24777   8.150  19.206   7.330  0.0808  0.2320 -0.0810
81861W        W24778   6.651  18.969   6.778 -0.2334  0.1300 -0.0715
81862W        W24779   9.516  14.655   4.329  0.0229 -0.1811  0.0539
81863W        W24780  10.105  17.244   6.998 -0.2301  0.0372 -0.0151
81864W        W24781   6.694  15.532   5.138  0.1174 -0.0424  0.1731
81865W        W24782  10.969  15.257   7.247  0.0137  0.0136  0.5237
81866W        W24783   9.624  18.078   5.147 -0.1260  0.2176  0.1192
81867W        W24784   8.849  17.579   4.322 -0.1201  0.1175 -0.0045
81868W        W24785  10.113  18.599   6.581  0.1472  0.1197 -0.0451
81869W        W24786   8.109  15.005   6.518 -0.0419 -0.2081 -0.0285
81870W        W24787   9.629  17.515   5.699  0.0740 -0.4099  0.0869
81871W        W24788  10.138  17.478   8.306 -0.0397  0.0203  0.2465
81872W        W24789   9.925  18.162   6.369  0.2042  0.3641  0.3343
81873W        W24790   8.669  15.356   7.054 -0.1612  0.0639  0.0837
81874W        W24791   9.259  15.483   4.775 -0.0600  0.1053  0.2473
81875W        W24792   7.321  14.390   4.496  0.5377  0.3116  0.2426
81876W        W24793  11.011  16.833   5.597 -0.1062 -0.6049  0.3458
81877W        W24794  10.796  19.818   8.092  0.0907  0.3929  0.3421
81878W        W24795   8.025  14.558   5.981 -0.2500  0.0767 -0.0014
81879W        W24796  12.431  17.848   2.679 -0.2255 -0.3803  0.0632
81880W        W24797  11.486  16.585   6.572  0.0256 -0.1742  0.0706
81881W        W24798  11.001  18.671   5.960 -0.3365 -0.0774  0.0525
81882W        W24799  10.573  17.697   3.749  0.1470  0.2900 -0.0316
81883W        W24800  10.965  20.382   8.736  0.0184 -0.0391  0.2534
81884W        W24801   7.248  16.212   7.951 -0.0844  0.1369  0.0754
81885W        W24802  11.161  19.933   7.715 -0.3917 -0.2653  0.0858
81886W        W24803  12.206  17.231   7.052  0.5546  0.1258  0.3131
81887W        W24804   9.165  13.677   3.448  0.1116 -0.0060 -0.0939
81888W        W24805   7.816  15.363   5.524  0.0151 -0.1749  0.0380
81889W        W24806   8.491  17.969   5.459  0.0013 -0.3943 -0.0363
81890W        W24807  11.806  17.004   6.062  0.1487 -0.0849 -0.4960
81891W        W24808  11.657  14.650   9.256 -0.2433  0.1614  0.2313
81892W        W24809  10.272  17.626   4.773 -0.1589  0.2694 -0.1434
81893W        W24810  10.841  13.213   6.189  0.0855 -0.1313 -0.0954
81894W        W24811   9.163  17.615   7.958  0.1315 -0.2828 -0.3453
81895W        W24812   7.389  17.131   8.056 -0.1141  0.0689 -0.0186
81896W        W24813   7.901  17.830   3.191  0.1590  0.0491 -0.1319
81897W        W24814   7.180  16.431   6.585  0.0125  0.0734 -0.0934
81898W        W24815   8.660  19.231   4.074 -0.1410  0.0853  0.0505
81899W        W24816   9.545  17.915   6.124  0.0284 -0.1784  0.1153
81900W        W24817  12.087  17.369   4.802  0.2502 -0.0575  0.0632
81901W        W24818  10.243  17.895   7.064 -0.2149 -0.0435  0.2460
81902W        W24819  10.427  18.933   6.684 -0.0636 -0.1259 -0.2556
81903W        W24820   8.237  15.319   4.595  0.1943  0.1324  0.0168
81904W        W24821  10.866  16.250   5.000  0.1258  0.1643 -0.3189
81905W        W24822   9.523  12.430   4.743  0.0227  0.0813 -0.1047
81906W        W24823   7.741  15.995   6.256  0.1982  0.1366 -0.0635
81907W        W24824   8.296  16.889   4.786  0.1272 -0.3142 -0.0014
81908W        W24825   9.678  16.438   3.084  0.1241  0.0431 -0.0278
81909W        W24826   7.322  16.505   7.560 -0.0409  0.1763  0.1198
81910W        W24827   7.731  14.520   7.211  0.0509 -0.0390 -0.1344
81911W        W24828   8.196  16.030   8.137  0.0141 -0.3069 -0.2330
81912W        W24829   8.777  17.580   6.348  0.2673 -0.2367  0.3445
81913W        W24830   6.298  15.573   5.449  0.0851 -0.1119  0.1164
81914W        W24831  10.825  18.396   5.077  0.2679  0.1477  0.2958
81915W        W24832   9.109  13.998   6.960 -0.1093 -0.2910 -0.0642
81916W        W24833   7.718  15.689   5.895 -0.2451 -0.1059 -0.0280
81917W        W24834  10.085  17.873   5.976  0.0407  0.2189  0.2635
81918W        W24835  11.799  18.347   3.511  0.1369 -0.1578  0.0589
81919W        W24836   8.178  16.337   5.007  0.1094  0.2153 -0.2883
81920W        W24837   9.394  17.498   7.424  0.1975 -0.1718 -0.1249
81921W        W24838   9.546  17.513   3.704 -0.0741  0.0476  0.0508
81922W        W24839   8.616  15.633   5.322 -0.2478  0.1138  0.1789
81923W        W24840   9.002  13.354   7.519 -0.1648  0.0038 -0.0363
81924W        W24841   8.679  14.059   4.076 -0.5488  0.1753 -0.4634
81925W        W24842  10.033  15.723   6.663 -0.1831 -0.3407 -0.1007
81926W        W24843  10.843  17.211   6.571  0.3854  0.1367 -0.3269
81927W        W24844  11.090  18.771   5.464  0.0982  0.0027 -0.0045
81928W        W24845   9.732  16.296   9.508  0.3648  0.2377  0.1392
81929W        W24846  11.256  18.675   7.562  0.1122 -0.0163  0.3893
81930W        W24847   7.853  15.029   4.824 -0.1712 -0.0753 -0.0889
81931W        W24848   9.330  16.003   6.557  0.1522 -0.3673  0.1573
81932W        W24849   7.260  15.894   7.535 -0.1244 -0.1652 -0.0877
81933W        W24850  12.469  17.752   6.509  0.0724  0.2278 -0.0801
81934W        W24851  10.357  16.622   5.659  0.0386 -0.2710  0.3068
81935W        W24852  11.863  17.606   6.053  0.0859 -0.0453  0.1514
81936W        W24853   8.038  11.996   6.556  0.0078  0.1438 -0.2866
81937W        W24854   9.383  16.264   7.506 -0.3620 -0.1938  0.0061
81938W        W24855  11.853  17.907   7.955  0.1208  0.1793  0.0948
81939W        W24856   8.105  15.801   5.345 -0.1840  0.1541  0.3095
81940W        W24857  11.316  14.989   4.605  0.0667  0.0962  0.0451
81941W        W24858   9.297  18.867   5.234 -0.1048  0.1481  0.0434
81942W        W24859   6.078  16.534   8.605 -0.0117  0.0525  0.1700
81943W        W24860   9.859  16.543   4.678 -0.3275  0.0435  0.0784
81944W        W24861   9.861  16.083   5.992 -0.0615 -0.3149  0.2681
81945W        W24862   8.236  17.470   6.266 -0.3433 -0.0781 -0.3245
81946W        W24863   8.022  17.020   6.196 -0.0255 -0.0155 -0.0180
81947W        W24864   9.640  17.055   4.548 -0.0610  0.0900 -0.1093
81948W        W24865  12.223  18.485   3.326  0.1595  0.0710 -0.1367
81949W        W24866   8.462  17.258   6.782 -0.0227  0.2117  0.1474
81950W        W24867  11.787  17.879  10.020  0.0872  0.0808  0.2671
81951W        W24868  10.263  21.136   6.343  0.3303  0.0715 -0.1834
81952W        W24869   9.138  19.123   5.649 -0.0451 -0.1747 -0.0094
81953W        W24870   6.367  14.423   6.374  0.0787  0.1413 -0.2408
81954W        W24871   8.428  17.650   4.641 -0.0718  0.4649 -0.2540
81955W        W24872  10.885  19.971   5.265 -0.0450 -0.0446 -0.1251
81956W        W24873   8.630  15.143   5.579 -0.1703 -0.2378  0.0379
81957W        W24874   6.887  15.754   4.761 -0.3570  0.0114 -0.0356
81958W        W24875  10.328  15.707   3.840 -0.1143  0.2171  0.1183
81959W        W24876   9.007  18.180   5.839  0.0420 -0.3316  0.1168
81960W        W24877  10.504  17.380   7.366 -0.3360 -0.1751  0.1836
81961W        W24878  10.798  15.842   8.865 -0.1091 -0.0084 -0.5627
81962W        W24879  11.077  14.339   6.191 -0.1231  0.0334  0.2303
81963W        W24880  11.314  17.002   6.918  0.2264 -0.0843  0.1801
81964W        W24881   8.797  13.855   6.058  0.1452  0.1239  0.0208
81965W        W24882   6.518  18.563   9.247  0.4069 -0.1462 -0.1568
81966W        W24883   7.581  15.323   7.704  0.2750  0.1587  0.1591
81967W        W24884  10.974  17.493  10.644  0.1484  0.0843  0.4253
81968W        W24885  10.647  16.473   9.228  0.0841  0.0623  0.0352
81969W        W24886   8.212  14.460   8.876  0.0634 -0.2817  0.1701
81970W        W24887   8.337  12.260   8.012 -0.1477 -0.1607  0.1666
81971W        W24888   6.485  11.677   9.013  0.3392 -0.1725 -0.0026
81972W        W24889  10.306  14.161  10.574  0.0745 -0.1511 -0.0361
81973W        W24890   6.956  15.978   8.799 -0.0785 -0.5682  0.3342
81974W        W24891   8.009  18.758   8.702 -0.0287 -0.2420 -0.3833
81975W        W24892   8.995  15.486   7.382  0.0667  0.0060 -0.2526
81976W        W24893   9.450  16.605   9.031 -0.1945 -0.0425  0.1800
81977W        W24894   8.267  15.311   9.352 -0.3106 -0.0184  0.1055
81978W        W24895  10.570  16.263   8.220  0.1819  0.1059  0.1990
81979W        W24896   7.028  17.672   6.970  0.0234 -0.1471  0.1561
81980W        W24897   6.895  14.630   7.749  0.3511  0.0867  0.0663
81981W        W24898   8.620  15.477   9.724  0.1007  0.0693 -0.2979
81982W        W24899   8.463  14.063   8.828  0.4410  0.0307 -0.2370
81983W        W24900  10.975  14.153   8.559  0.0248  0.0308 -0.1757
81984W        W24901   9.041  19.207   8.957  0.0566  0.1468 -0.1043
81985W        W24902   9.206  16.242   9.401  0.4696 -0.2277 -0.3599
81986W        W24903   8.983  16.370   8.791 -0.0503  0.0309 -0.4329
81987W        W24904   8.322  19.475   8.621 -0.0596  0.0002 -0.0495
81988W        W24905   9.544  18.345   9.510 -0.1352  0.2085  0.3041
81989W        W24906   9.127  15.427   8.602  0.0691 -0.1660 -0.1559
81990W        W24907   7.662  16.769   7.262  0.0902 -0.0597 -0.2105
81991W        W24908   8.060  13.246   9.140  0.1790  0.1077  0.1918
81992W        W24909  10.052  15.296   8.345 -0.0315 -0.0460  0.0756
81993W        W24910   8.496  14.825   8.564 -0.1322 -0.0382  0.0795
81994W        W24911   7.636  17.454   8.996  0.2427  0.0014 -0.1288
81995W        W24912   9.780  19.060   9.619 -0.0010 -0.2159 -0.2224
81996W        W24913  10.337  16.249   8.738  0.1370  0.1183  0.1011
81997W        W24914   8.947  14.758   6.327  0.3520  0.0874 -0.2839
81998W        W24915   9.544  15.021   6.750 -0.0857  0.1170 -0.0171
81999W        W24916   9.465  15.056   5.369 -0.1592  0.1451  0.0085
82000W        W24917   7.923  14.045   8.965  0.0950  0.2966 -0.0024
82001W        W24918   8.211  18.264   7.477 -0.1989  0.1469  0.2080
82002W        W24919   8.357  14.097   6.466 -0.1988 -0.1098 -0.1229
82003W        W24920   8.627  16.445   8.101 -0.0854  0.1271  0.2288
82004W        W24921   8.488  16.600   9.485 -0.1871  0.1473  0.1126
82005W        W24922   7.673  15.158   9.380 -0.0964  0.0127 -0.0407
82006W        W24923   8.088  15.304   8.416  0.3088 -0.0688 -0.1545
82007W        W24924  10.845  17.334   7.833 -0.2335 -0.1934  0.0926
82008W        W24925  12.168  18.352  10.918 -0.3412 -0.2894 -0.0838
82009W        W24926   9.751  17.784   9.573 -0.0702 -0.2130  0.0397
82010W        W24927   6.067  15.465   9.215  0.2775  0.1333 -0.0280
82011W        W24928   7.530  14.360   6.036 -0.1334 -0.1246 -0.1526
82012W        W24929   9.718  15.761   8.352 -0.3071  0.2995  0.0977
82013W        W24930  10.608  17.179   9.669 -0.0079 -0.0944  0.1147
82014W        W24931  10.548  16.201  11.381 -0.0160  0.4636  0.2492
82015W        W24932  12.258  15.315   9.606  0.0387 -0.1292 -0.0588
82016W        W24933   7.737  14.867   8.027  0.1551 -0.0605 -0.0353
82017W        W24934   7.448  12.228   7.921 -0.0395  0.0679 -0.0562
82018W        W24935   7.761  16.991   8.918  0.4224 -0.0417 -0.1358
82019W        W24936   7.794  17.372   7.246 -0.0988 -0.0756 -0.1917
82020W        W24937   8.155  17.437   9.216  0.1167 -0.0980  0.0696
82021W        W24938  10.429  16.916   7.096 -0.1672  0.1179  0.0145
82022W        W24939   5.541  15.040   8.825 -0.0891 -0.0392  0.1275
82023W        W24940   7.749  17.228   7.719 -0.2494 -0.1834 -0.5383
82024W        W24941   9.039  18.349   8.920 -0.0498 -0.0467  0.1812
82025W        W24942   5.302  17.456   9.765  0.2088 -0.1458  0.0987
82026W        W24943   7.886  14.692   8.537 -0.3925 -0.2714 -0.2631
82027W        W24944   8.531  13.357   9.531 -0.1090 -0.0419  0.1021
82028W        W24945   7.786  15.688   8.225 -0.4534  0.2076 -0.0533
82029W        W24946   8.100  12.028   9.980 -0.2288  0.4214  0.0667
82030W        W24947   6.686  17.588   9.267  0.2253 -0.0719 -0.1087
82031W        W24948  10.705  18.355   9.082 -0.0553  0.1499  0.0375
82032W        W24949  10.909  15.780   7.579  0.1254  0.3578 -0.0555
82033W        W24950  10.288  17.173  10.070  0.2244  0.1003  0.2109
82034W        W24951   6.624  14.097   8.007  0.1103  0.1317 -0.3132
82035W        W24952   9.364  13.880   8.329 -0.1780 -0.2241 -0.0205
82036W        W24953   8.638  12.015  10.104 -0.1184  0.1522  0.0369
82037W        W24954  10.046  13.881   6.912  0.1482  0.2081  0.0137
82038W        W24955   8.372  13.995   7.363 -0.1621  0.3244  0.1853
82039W        W24956   9.685  14.897   8.207  0.0617  0.2687  0.1901
82040W        W24957   8.273  17.062   8.115  0.1935 -0.0826  0.1250
82041W        W24958  10.100  17.145   8.667 -0.0265 -0.0620  0.3242
82042W        W24959   8.509  14.908   9.063 -0.3556  0.4748  0.2921
82043W        W24960  11.966  17.488   9.397 -0.0986  0.2982 -0.2939
82044W        W24961   7.609  11.913   8.365 -0.0366 -0.0904  0.3538
82045W        W24962   8.326  15.010   8.085  0.2648 -0.1654 -0.0097
82046W        W24963   5.527  17.002   9.713 -0.1760  0.1073  0.0961
82047W        W24964   9.209  19.805   9.081 -0.0171  0.1191 -0.3745
82048W        W24965   8.301  13.748   6.913 -0.0013  0.2209  0.0008
82049W        W24966  12.120  18.385   8.508 -0.0692 -0.0735 -0.2282
82050W        W24967   8.030  15.352   7.306 -0.1154  0.0819  0.1046
82051W        W24968  14.883  18.586  10.166 -0.2606  0.2529 -0.0361
82052W        W24969  11.439  15.454  10.123 -0.0257  0.0782 -0.1954
82053W        W24970   7.581  15.344   6.779 -0.0622  0.2375  0.0451
82054W        W24971  12.698  14.153   9.574  0.0944 -0.0924  0.0595
82055W        W24972   8.686  18.035   8.899  0.2537 -0.3719 -0.2692
82056W        W24973   7.242  15.675   7.039  0.2242  0.2706  0.0888
82057W        W24974   9.247  16.556   9.866 -0.1331  0.0821 -0.2462
82058W        W24975   9.164  16.004   6.008  0.1301  0.0272  0.2375
82059W        W24976   7.072  15.474   8.655  0.2170  0.0360  0.2590
82060W        W24977   8.096  13.639   7.632 -0.1115  0.0925  0.0326
82061W        W24978   9.941  15.941   7.514 -0.1297 -0.1043 -0.1904
82062W        W24979   9.939  15.451   9.156 -0.0948 -0.2762 -0.4002
82063W        W24980   9.754  15.413   9.636  0.1075  0.1334  0.5086
82064W        W24981   8.844  13.202   6.344 -0.1886  0.3132 -0.1311
82065W        W24982   9.932  16.241   8.364 -0.1732 -0.0081  0.1102
82066W        W24983  11.389  17.812  10.620 -0.2876 -0.0441  0.1325
82067W        W24984   9.282  13.318   8.287 -0.3119  0.0603 -0.0489
82068W        W24985  11.403  17.648  10.182 -0.2576  0.1599  0.0595
82069W        W24986   6.977  16.931   8.417  0.2035  0.1772  0.2671
82070W        W24987   9.563  16.096   7.073  0.0782  0.1401  0.0464
82071W        W24988   7.355  14.445   6.545 -0.0256  0.0469  0.1906
82072W        W24989   8.477  15.378   7.511 -0.3153  0.1499 -0.1271
82073W        W24990   8.335  12.468   8.516  0.1849 -0.0300 -0.0951
82074W        W24991   7.221  18.085   6.825 -0.1635 -0.1137  0.2399
82075W        W24992   9.362  15.036   9.676  0.3291  0.0209  0.4230
82076W        W24993   7.816  16.052   9.401  0.0056 -0.1559  0.0806
82077W        W24994   8.694  14.855   6.720  0.1641  0.0128 -0.1289
82078W        W24995   9.217  15.056   8.210  0.0185  0.0955  0.0540
82079W        W24996   6.885  15.985   6.773 -0.0322 -0.5426 -0.1286
82080W        W24997  11.790  15.368  10.516 -0.2104 -0.1218 -0.0260
82081W        W24998   8.668  16.613   8.555  0.2411  0.0550 -0.0625
82082W        W24999  10.731  15.499   8.467 -0.0625 -0.1823 -0.0574
82083W        W25000  10.091  14.912   8.802 -0.0863  0.0651 -0.1756
82084W        W25001   9.586  17.802   7.735  0.0032  0.1560  0.1354
82085W        W25002   8.747  14.297   8.447 -0.1591  0.2030 -0.3424
82086W        W25003   7.657  15.507   8.658  0.2710 -0.2156 -0.2729
82087W        W25004   8.795  14.023   9.248  0.0328  0.0807 -0.1233
82088W        W25005  10.198  18.125   8.209 -0.0068 -0.3359  0.0088
82089W        W25006   4.485  14.607   9.719 -0.1848  0.1135 -0.0721
82090W        W25007   9.050  15.991   7.751  0.2014  0.0441  0.2570
82091W        W25008   9.023  14.845   8.619 -0.2458 -0.0011 -0.0468
82092W        W25009  10.563  16.662  10.251  0.1672 -0.0556 -0.0467
82093W        W25010   9.273  14.431   8.288 -0.0764 -0.0159 -0.2079
82094W        W25011   5.518  14.626   9.118  0.0366  0.2066  0.3434
82095W        W25012   8.467  14.311   7.791  0.1070 -0.1844 -0.0170
82096W        W25013  11.071  16.831   7.884 -0.0914 -0.2526  0.1310
82097W        W25014   9.698  13.090   9.871  0.1651  0.1192 -0.0227
82098W        W25015   7.118  16.109   9.264 -0.0693 -0.0964  0.0782
82099W        W25016  10.656  18.202   7.995 -0.2537 -0.1250  0.4284
82100W        W25017   9.466  14.331   6.427  0.3178 -0.0890 -0.2047
82101W        W25018   6.476  16.153   8.650 -0.1081 -0.2712 -0.5692
82102W        W25019  10.975  15.270  10.250 -0.2054 -0.0546  0.3538
82103W        W25020   8.983  13.288   8.771  0.0629  0.1446  0.1911
82104W        W25021   7.063  17.458   7.920 -0.0219  0.2088 -0.0740
82105W        W25022   9.022  14.691   9.729  0.1645  0.4518 -0.1846
82106W        W25023   8.699  15.289   6.490  0.1198  0.0241  0.0082
82107W        W25024   7.894  16.463   8.717 -0.0529  0.1419  0.2397
82108W        W25025  10.145  16.815  10.419  0.0482 -0.0400  0.1674
82109W        W25026   9.897  14.067   8.802  0.2513 -0.1919 -0.0776
82110W        W25027   6.483  14.824   6.694  0.1697  0.3419  0.3073
82111W        W25028   7.467  16.768   8.609 -0.0563  0.0300  0.1408
82112W        W25029  10.381  16.916  10.869 -0.2851 -0.0070 -0.2110
82113W        W25030   9.441  14.178   7.934  0.0766 -0.1766 -0.0655
82114W        W25031   7.789  13.835   8.343 -0.2619  0.0298  0.3370
82115W        W25032  11.475  16.697   8.271  0.3478 -0.0800  0.0330
82116W        W25033   5.566  16.513   9.960 -0.1270  0.2342  0.1941
82117W        W25034   7.639  14.257   8.665 -0.1445 -0.2004 -0.0027
82118W        W25035   9.003  17.870   7.511 -0.0184 -0.1835  0.1967
82119W        W25036  10.634  14.622   8.406 -0.1358  0.1283  0.0141
82120W        W25037  10.233  15.499   8.716  0.4140 -0.1665  0.0628
82121W        W25038   9.079  16.280   6.936  0.2055  0.1745  0.0873
82122W        W25039   4.930  18.491   8.833 -0.3190  0.3725 -0.0600
82123W        W25040  11.335  15.636   7.297 -0.2015  0.0993 -0.1019
82124W        W25041   9.331  15.145   7.763 -0.1098 -0.1948  0.2275
82125W        W25042  10.714  15.665   8.019 -0.0024  0.4593  0.4514
82126W        W25043  10.255  17.136   9.260  0.1862 -0.1318  0.0878
82127W        W25044   9.188  14.843   9.132  0.0824  0.1771  0.4213
82128W        W25045  12.343  16.399  10.410 -0.1264  0.1063 -0.0303
82129W        W25046   8.683  12.839   8.567  0.1067 -0.2701  0.1735
82130W        W25047   9.078  15.385   5.295 -0.1099 -0.2953 -0.0314
82131W        W25048   8.843  15.153   9.424 -0.3338 -0.0640 -0.3082
82132W        W25049  11.046  16.316  10.341 -0.0092 -0.1169  0.0248
82133W        W25050   7.063  15.477   6.571  0.0990  0.0421 -0.1215
82134W        W25051  10.851  15.001  10.747  0.0974 -0.2521 -0.4012
82135W        W25052   8.738  15.849   8.800 -0.0103 -0.2487 -0.0180
82136W        W25053  10.297  15.825   8.330  0.2326  0.0440 -0.0830
82137W        W25054   7.675  15.767   7.207  0.0351 -0.1743  0.1975
82138W        W25055   5.230  17.317   7.853 -0.0950 -0.3605 -0.0929
82139W        W25056   9.339  14.545  10.112 -0.1720 -0.1937  0.0392
82140W        W25057   9.726  16.058   7.918 -0.4879 -0.3879 -0.1814
82141W        W25058  11.700  16.193  10.610  0.2637 -0.2616  0.2547
82142W        W25059   9.969  15.598   5.899 -0.2980 -0.1140  0.1544
82143W        W25060  11.129  15.806   8.401  0.1930 -0.0030  0.2661
82144W        W25061  10.870  15.819   9.458 -0.4831 -0.1073  0.0596
82145W        W25062  10.036  16.972   7.462 -0.0614 -0.1603  0.1182
82146W        W25063  10.015  15.017   9.496  0.0672 -0.0085 -0.1463
82147W        W25064   8.144  15.761   7.568  0.3953  0.0999  0.1027
82148W        W25065   9.576  18.702   7.729  0.0583 -0.1133 -0.3948
82149W        W25066   7.617  17.242   5.930  0.2192 -0.1458  0.1348
82150W        W25067   8.190  14.148   8.391  0.0364 -0.2921 -0.4374
82151W        W25068   7.152  13.858   7.668  0.0442  0.0121 -0.0850
82152W        W25069   9.933  16.522   8.860 -0.0326 -0.1359 -0.3511
82153W        W25070   7.180  14.897   5.944 -0.0308 -0.0375 -0.0373
82154W        W25071  11.712  14.453  10.405 -0.0472 -0.0415  0.0410
82155W        W25072  11.479  15.313   6.732  0.1834  0.2963  0.1773
82156W        W25073   9.342  16.961   8.182  0.0899 -0.3031  0.0162
82157W        W25074   5.262  15.418   9.156  0.0866  0.2962 -0.4165
82158W        W25075   7.955  18.462   8.034 -0.0544 -0.0377  0.3701
82159W        W25076   9.493  16.126   8.878  0.1934 -0.1269  0.2034
82160W        W25077   8.576  17.178   9.076  0.0905  0.1318  0.0909
82161W        W25078  11.591  16.376  11.181 -0.0309  0.0317  0.3190
82162W        W25079  10.186  13.755   8.290 -0.1477 -0.1434 -0.1403
82163W        W25080   8.040  15.426   7.883 -0.1936  0.1551 -0.0463
82164W        W25081  11.204  16.695  11.000 -0.1904 -0.3546  0.0540
82165W        W25082   8.703  15.528   9.220  0.1191 -0.0474 -0.2556
82166W        W25083  10.194  16.299   9.262  0.3980 -0.0134  0.2934
82167W        W25084   6.658  14.863   6.133  0.4374  0.0483  0.3249
82168W        W25085   9.901  18.071   7.450 -0.0112  0.0658  0.2395
82169W        W25086   8.104  14.882   9.861  0.0300 -0.0126  0.1837
82170W        W25087   9.353  19.112   6.815  0.1299 -0.0804  0.0451
82171W        W25088   9.039  14.958   7.309  0.0621 -0.0661 -0.2482
82172W        W25089   8.957  16.466   5.992  0.0072 -0.1349 -0.0352
82173W        W25090  12.367  17.109  10.528  0.0544 -0.1466 -0.2081
82174W        W25091   9.528  16.592   6.738 -0.1032 -0.0624  0.0928
82175W        W25092   8.073  17.659   6.903 -0.0368  0.2122  0.1535
82176W        W25093   7.190  18.037   7.364  0.2645  0.0294 -0.2198
82177W        W25094  10.414  17.888   9.054 -0.1243  0.0612  0.1503
82178W        W25095   8.446  16.670   8.972 -0.0050 -0.0008  0.1796
82179W        W25096  10.173  15.600   7.927 -0.2879  0.1478  0.2924
82180W        W25097  11.933  18.027  10.654  0.0585 -0.0411  0.1460
82181W        W25098   9.660  17.282   7.902  0.0619 -0.0807 -0.1859
82182W        W25099  10.427  14.784   9.750 -0.2551 -0.1611 -0.1668
82183W        W25100   7.892  14.108   7.397  0.0373  0.1641  0.1196
82184W        W25101  11.488  15.904   8.807  0.0644  0.2835 -0.1088
82185W        W25102   8.680  15.804   6.865 -0.0146  0.2055 -0.0041
82186W        W25103   9.577  15.740   9.319  0.0456 -0.0978  0.0167
82187W        W25104   8.552  14.813   9.601 -0.0141 -0.0093 -0.0030
82188W        W25105   9.554  15.737   6.136  0.3248  0.0894 -0.0668
82189W        W25106   9.671  14.474   8.639  0.1176 -0.3078  0.1541
82190W        W25107   9.978  15.099  10.928  0.1587  0.2004  0.2363
82191W        W25108   7.983  18.955   8.042 -0.2886  0.0846 -0.1081
82192W        W25109   8.649  14.839   7.672 -0.4545  0.1598  0.1254
82193W        W25110   8.416  14.999   7.237  0.4198 -0.2056 -0.0680
82194W        W25111  11.782  16.500   9.259  0.2028  0.2213  0.0161
82195W        W25112   6.559  15.604   8.741 -0.0545 -0.4119  0.2347
82196W        W25113   8.021  16.786   7.657  0.1642  0.0371  0.1684
82197W        W25114   8.233  15.753   7.103  0.0166 -0.0147 -0.1821
82198W        W25115  10.714  16.647   9.680  0.1157 -0.0243  0.2141
82199W        W25116   7.924  13.042   9.625  0.0588 -0.1747  0.3447
82200W        W25117   8.459  16.234   6.976  0.0529 -0.5351  0.4076
82201W        W25118   8.885  14.275   6.539  0.0608  0.0521 -0.0432
82202W        W25119   8.198  13.141   8.030  0.2057  0.0027  0.1155
82203W        W25120  11.581  14.471   6.942 -0.0597  0.2840  0.2037
82204W        W25121   7.959  17.996   8.020  0.0355  0.3742 -0.1039
82205W        W25122   8.361  14.328   9.303  0.1076  0.3409  0.1488
82206W        W25123   7.237  15.001   6.472  0.1241  0.0261  0.1869
82207W        W25124  12.284  17.186   9.685  0.0119 -0.1809  0.2055
82208W        W25125  11.729  15.114   9.757  0.2360  0.0624  0.3507
82209W        W25126   9.686  19.463   6.997 -0.0430 -0.2828 -0.1960
82210W        W25127  10.273  17.688   9.502  0.2562 -0.2024  0.1260
82211W        W25128  10.937  13.230   8.566 -0.0132 -0.3758 -0.0841
82212W        W25129   5.033  14.385   8.075 -0.0153 -0.2350 -0.0735
82213W        W25130   9.639  15.065   9.248 -0.1879  0.3628 -0.0525
82214W        W25131  11.461  18.268  10.434 -0.0342 -0.0758 -0.1408
82215W        W25132   9.121  15.860   9.079 -0.2258  0.0872 -0.0274
82216W        W25133   9.699  14.622   9.613 -0.1753  0.0706  0.2424
82217W        W25134   6.922  16.569   9.410  0.4572 -0.0839  0.0412
82218W        W25135   9.712  14.043   9.372  0.0196 -0.1098 -0.0467
82219W        W25136   9.628  17.823   7.142  0.1207 -0.2732 -0.0832
82220W        W25137   3.518  17.373   9.571 -0.2901 -0.0099  0.0038
82221W        W25138   8.197  17.712   7.393  0.0513  0.0560 -0.0587
82222W        W25139   8.316  16.133   9.563 -0.4206 -0.1201  0.0269
82223W        W25140   9.074  18.800   8.634  0.1955  0.5381 -0.0824
82224W        W25141  11.371  17.188   9.973  0.1538 -0.1426 -0.3039
82225W        W25142   6.922  17.141   7.198 -0.1411 -0.3128  0.0522
82226W        W25143  11.891  19.136  10.181 -0.3544 -0.1064  0.1361
82227W        W25144   7.838  12.406   8.422 -0.1547 -0.0151  0.1361
82228W        W25145  10.721  14.766   5.236  0.4016 -0.1576 -0.2084
82229W        W25146  12.071  16.098   8.241 -0.3028  0.1930  0.3030
82230W        W25147   9.259  16.142   8.168  0.1044 -0.1963  0.2481
82231W        W25148   8.660  15.845   7.454 -0.1029 -0.0037  0.1712
82232W        W25149   8.560  17.638   7.084  0.0669 -0.2478 -0.0019
82233W        W25150   7.982  15.941   8.644  0.2470 -0.0116 -0.1306
82234W        W25151   7.725  16.236   8.279 -0.1897 -0.1725 -0.0525
82235W        W25152   5.567  16.495   9.431 -0.1106  0.1120  0.1422
82236W        W25153  11.508  17.198   8.681  0.3405  0.0323  0.2283
82237W        W25154   8.043  14.087   7.889  0.1477 -0.0939  0.1424
82238W        W25155   7.400  12.689   8.020  0.3272 -0.2165  0.0268
82239W        W25156  11.500  16.046   9.327 -0.1942  0.1311  0.0093
82240W        W25157   8.870  16.876   9.714 -0.1425 -0.1686  0.3361
82241W        W25158   8.862  15.813   8.291  0.2554  0.1504 -0.0077
82242W        W25159   8.127  16.995   7.071  0.0776 -0.0068 -0.0559
82243W        W25160   6.147  15.249   6.736 -0.2358  0.0623 -0.0111
82244W        W25161   7.107  16.365   8.439  0.0496  0.2119  0.0726
82245W        W25162   9.666  15.380   8.037  0.2069 -0.1920 -0.0671
82246W        W25163   9.662  18.604   6.805 -0.3219  0.3215  0.3393
82247W        W25164   6.836  15.487   8.239 -0.0123 -0.0659 -0.2665
82248W        W25165   9.939  16.988   8.134 -0.0047 -0.1283  0.1879
82249W        W25166  11.190  17.088   8.273 -0.4195 -0.1254  0.2122
82250W        W25167  10.388  15.412   9.431 -0.0767 -0.1421 -0.0888
82251W        W25168   8.733  15.509   5.865 -0.0008 -0.2716 -0.1345
82252W        W25169  12.908  18.446  10.710  0.2425 -0.1290  0.1355
82253W        W25170   8.988  13.824   8.715 -0.0102 -0.0056 -0.4619
82254W        W25171  10.944  15.692   9.971 -0.1578 -0.3891 -0.1560
82255W        W25172  10.983  18.941   8.375  0.1438 -0.1096  0.1180
82256W        W25173   6.497  16.897   8.247 -0.2186  0.1968  0.1825
82257W        W25174   8.542  15.315   8.788  0.2647 -0.2508  0.3194
82258W        W25175   8.985  16.653   9.223 -0.4100 -0.0498 -0.1919
82259W        W25176   7.037  15.135   7.912  0.4287  0.1942  0.0736
82260W        W25177  13.625  18.141   9.302  0.2440 -0.0464 -0.0381
82261W        W25178   8.038  16.650   9.748 -0.2230  0.0332  0.6268
82262W        W25179   8.738  17.589   8.736  0.3730  0.0136 -0.2133
82263W        W25180  11.331  17.215  10.521  0.0782  0.1110  0.3011
82264W        W25181   6.753  13.711   6.979  0.2767 -0.0885  0.0303
82265W        W25182   8.645  16.204   9.115  0.0843 -0.4625  0.0451
82266W        W25183   8.791  16.301   7.386  0.0279 -0.2131  0.2287
82267W        W25184   8.521  15.699   7.953 -0.1454 -0.0731 -0.0901
82268W        W25185   8.848  12.921   9.637 -0.0602 -0.1319 -0.0136
82269W        W25186  10.370  15.848   9.130  0.1055  0.1171  0.0748
82270W        W25187   8.761  16.961   8.147 -0.2300  0.2139  0.2235
82271W        W25188   9.082  15.650   9.577  0.1034 -0.1238 -0.0119
82272W        W25189  10.150  19.839   4.295 -0.0347  0.1948 -0.3141
82273W        W25190   8.058  16.781   0.579  0.2213 -0.1265  0.2746
82274W        W25191   9.650  17.999   1.098  0.3576 -0.3762 -0.2940
82275W        W25192  10.439  19.687   1.370 -0.2641  0.2141  0.2170
82276W        W25193   7.513  16.922  31.024 -0.4765  0.4945 -0.2311
82277W        W25194   9.011  20.299   1.437 -0.3108  0.0362  0.1694
82278W        W25195   7.307  17.432   2.645 -0.0782  0.2308  0.0886
82279W        W25196  10.254  21.061   2.856 -0.0008 -0.3532  0.1187
82280W        W25197   8.988  21.964   2.825  0.3350  0.1833  0.0627
82281W        W25198  11.183  21.692  31.284 -0.4816 -0.0336 -0.1853
82282W        W25199   9.547  21.026   2.564 -0.2231 -0.0663 -0.1919
82283W        W25200   8.997  20.762   0.685 -0.2700  0.0725  0.2369
82284W        W25201   8.737  18.102   1.306  0.1565  0.0248 -0.1071
82285W        W25202   8.600  18.393   3.080 -0.1575 -0.0428 -0.1717
82286W        W25203  10.439  21.533   0.195  0.2217 -0.0769 -0.1618
82287W        W25204   9.093  19.945   0.259 -0.0219 -0.0355  0.1817
82288W        W25205   8.645  19.719   3.067 -0.0957 -0.4572  0.1690
82289W        W25206   8.772  16.938   1.193 -0.0188  0.0158  0.2261
82290W        W25207   9.010  20.523   0.040 -0.0279 -0.0890  0.1666
82291W        W25208   8.714  20.170   4.266 -0.0544 -0.1840  0.2258
82292W        W25209   9.984  19.549   3.636 -0.0629  0.1147 -0.1827
82293W        W25210   8.373  21.335   1.250 -0.3324  0.6046  0.2116
82294W        W25211   9.190  18.494  29.575 -0.1291 -0.1615  0.0462
82295W        W25212   7.643  19.646   1.583 -0.0344 -0.1171 -0.0867
82296W        W25213   7.489  20.024   1.344  0.2154 -0.1001 -0.0191
82297W        W25214   9.402  20.259   1.743  0.1208  0.0333  0.2037
82298W        W25215  11.415  20.112  31.568  0.5028  0.3724 -0.0044
82299W        W25216   9.373  19.990   1.330  0.0456 -0.0018 -0.2102
82300W        W25217   8.745  21.082   1.015 -0.3185 -0.0688 -0.0067
82301W        W25218   9.033  21.235   3.557  0.3679  0.2259  0.0171
82302W        W25219   7.037  20.126   1.081 -0.0084  0.4434 -0.0973
82303W        W25220   6.470  19.724   2.501  0.3194 -0.0330  0.0712
82304W        W25221   7.797  20.432   1.368 -0.2960  0.2342  0.4010
82305W        W25222  10.024  20.759  31.594  0.0736 -0.0512  0.1331
82306W        W25223  11.166  21.781   2.770 -0.1567  0.0938 -0.0379
82307W        W25224   5.395  23.153   4.368  0.0559 -0.0267  0.0701
82308W        W25225   7.639  19.382   0.588  0.0376 -0.3847  0.4904
82309W        W25226   7.800  21.693   4.893 -0.1140  0.0324 -0.1244
82310W        W25227   8.727  23.094   3.546  0.0253 -0.5007  0.0102
82311W        W25228   8.121  20.733   2.305  0.2175  0.0654 -0.2163
82312W        W25229  10.569  18.493   1.418  0.1203 -0.0090 -0.0741
82313W        W25230   8.625  20.167   0.110 -0.0895 -0.2322  0.2601
82314W        W25231   9.991  20.822   2.465  0.1553 -0.3907  0.2752
82315W        W25232  10.367  22.152   1.461  0.1693  0.0639  0.0280
82316W        W25233   8.047  20.400   0.889 -0.2688 -0.1571 -0.0037
82317W        W25234  10.952  19.236   5.108  0.1171  0.3617  0.0589
82318W        W25235  10.615  20.577   1.165  0.0610  0.0382  0.0621
82319W        W25236  10.425  17.749  31.347 -0.0910 -0.0485  0.0926
82320W        W25237   9.881  19.884   1.426 -0.0856  0.1350 -0.1638
82321W        W25238  10.919  20.837  31.151 -0.0790 -0.2398 -0.0441
82322W        W25239   9.166  18.984   1.704  0.0974  0.1045 -0.0827
82323W        W25240   8.605  22.088   3.108 -0.0843 -0.2038  0.1944
82324W        W25241   9.817  20.372   0.480  0.1227 -0.1144 -0.3203
82325W        W25242  11.151  21.373   3.118  0.1716  0.0076 -0.0463
82326W        W25243   8.336  18.992   1.196  0.1084  0.2678  0.4490
82327W        W25244   8.334  19.270   3.033  0.0823  0.1180 -0.0832
82328W        W25245   8.220  21.269   1.850  0.0245  0.0370  0.0179
82329W        W25246   7.832  18.277  31.602 -0.2068 -0.3138 -0.0515
82330W        W25247  10.139  21.831  31.270  0.3815 -0.1594  0.1377
82331W        W25248  11.533  21.969  31.221 -0.0505 -0.2172  0.0622
82332W        W25249  11.213  22.289  30.892  0.0825 -0.0084  0.1866
82333W        W25250   8.076  19.185   0.809 -0.0302 -0.0824  0.0603
82334W        W25251   7.718  20.247   3.139  0.2897  0.1464 -0.2238
82335W        W25252   8.427  18.412   2.566  0.1841 -0.2547 -0.0813
82336W        W25253   8.699  16.990  31.826 -0.2414 -0.1414  0.1097
82337W        W25254  11.190  20.403   0.548  0.0198 -0.0733 -0.1628
82338W        W25255   7.201  19.816   2.455  0.1224 -0.1792 -0.2036
82339W        W25256  10.345  18.500   0.961 -0.1583  0.1193 -0.1070
82340W        W25257   8.972  20.876   1.699 -0.0114  0.1874  0.2008
82341W        W25258  11.475  20.446   2.423 -0.1730  0.5990  0.1281
82342W        W25259  10.416  22.253  31.412  0.2141 -0.2423 -0.0100
82343W        W25260  11.169  18.605   1.348 -0.3958  0.1613 -0.2354
82344W        W25261  11.527  18.708   3.884 -0.1220  0.1721 -0.2544
82345W        W25262  10.292  19.780  30.659  0.1661  0.0849  0.1600
82346W        W25263   8.923  19.855   0.987 -0.1236 -0.3215 -0.3720
82347W        W25264  10.402  21.478   2.292  0.0231 -0.0076 -0.1734
82348W        W25265  11.364  20.559  31.208  0.3400  0.2516 -0.0642
82349W        W25266   8.915  21.707   3.256  0.1412 -0.2419  0.0035
82350W        W25267   8.255  18.776   2.150  0.2485  0.0772 -0.0367
82351W        W25268   7.818  22.434   3.253  0.2812  0.1363 -0.0008
82352W        W25269   7.169  21.986   2.623  0.1197  0.1896 -0.2858
82353W        W25270   8.687  20.879  31.920  0.2998  0.0548 -0.0311
82354W        W25271   8.628  18.790  31.017  0.0717  0.0479 -0.1212
82355W        W25272   7.846  18.493   0.432  0.2118 -0.0552 -0.1211
82356W        W25273   8.369  21.721   1.756  0.0677  0.1513 -0.4150
82357W        W25274  12.175  20.074  30.430  0.1666 -0.2396  0.2803
82358W        W25275   7.340  18.385   2.265 -0.1787  0.1185  0.0214
82359W        W25276  11.273  19.729  31.868 -0.0419  0.0948  0.0207
82360W        W25277   8.168  20.774   0.442  0.3699  0.4785  0.0914
82361W        W25278  10.851  20.744   0.723  0.0323 -0.2682  0.0936
82362W        W25279  11.533  19.404   0.168  0.2447  0.3689  0.3141
82363W        W25280   9.514  21.292   0.475  0.0096  0.0673  0.0405
82364W        W25281   7.427  20.640   1.997  0.6692  0.0871  0.0609
82365W        W25282  10.276  19.993  31.740  0.1731 -0.0336  0.1194
82366W        W25283   8.195  17.873   3.715  0.1623  0.3416 -0.3956
82367W        W25284   9.262  19.013   2.649  0.1338 -0.0122  0.1102
82368W        W25285  10.413  18.840   3.477 -0.1635  0.2616  0.1292
82369W        W25286   9.220  17.750   0.327  0.0823 -0.3629  0.1863
82370W        W25287  10.029  20.531   0.931  0.0897 -0.2026  0.0476
82371W        W25288   8.920  17.484   1.141 -0.1130  0.0747 -0.1087
82372W        W25289   7.589  19.636  31.634 -0.1053 -0.0721  0.0841
82373W        W25290  11.060  19.643   4.796  0.2537  0.1013 -0.1392
82374W        W25291  10.317  21.431  31.614 -0.0261  0.3592  0.0056
82375W        W25292   9.490  23.002   4.441  0.2233  0.1147  0.1887
82376W        W25293  10.440  21.841   1.940 -0.3522 -0.1275 -0.1062
82377W        W25294   7.567  18.682   4.047 -0.1487  0.0628 -0.2263
82378W        W25295   8.300  17.681   0.498 -0.0056  0.2688 -0.0600
82379W        W25296   7.726  19.797   2.136  0.2596 -0.1201 -0.0991
82380W        W25297   7.841  20.931   1.959  0.3740 -0.0955 -0.0557
82381W        W25298   8.680  18.882   1.860 -0.0039  0.2166  0.1296
82382W        W25299  10.415  22.165   2.441  0.0801  0.0040  0.1848
82383W        W25300  10.550  18.974   0.642  0.2908 -0.0750 -0.0912
82384W        W25301   9.222  23.046   2.209 -0.0769  0.2492  0.2771
82385W        W25302   8.629  18.860   0.751 -0.2509 -0.2679  0.1446
82386W        W25303  10.686  19.041   3.946  0.1408 -0.2184 -0.1864
82387W        W25304  10.643  19.565   0.482  0.0217 -0.3386  0.2154
82388W        W25305   9.254  19.414   0.560  0.3626  0.3361  0.1236
82389W        W25306   8.274  21.923   2.731  0.0022  0.4284 -0.4119
82390W        W25307   7.484  19.149  31.379 -0.1468  0.2604 -0.3196
82391W        W25308   7.551  18.370   0.047  0.1148  0.2157 -0.0305
82392W        W25309   8.954  20.015   1.883  0.1293  0.1651 -0.1153
82393W        W25310  10.671  19.948   2.373  0.1200  0.3632 -0.3635
82394W        W25311   6.426  20.516   4.419 -0.0569  0.0700  0.0546
82395W        W25312   9.078  19.618   3.292 -0.1703  0.1117 -0.2951
82396W        W25313   7.986  17.427   0.131 -0.1227  0.0349 -0.1670
82397W        W25314   7.447  20.886   1.567  0.1180 -0.1966 -0.1122
82398W        W25315   9.708  18.951   1.629  0.0464  0.0683  0.2344
82399W        W25316  11.190  19.578   0.451 -0.0225 -0.1645  0.0269
82400W        W25317   9.471  20.779   0.700  0.2260 -0.2519  0.2659
82401W        W25318  11.378  21.369   1.071  0.2108  0.0270  0.1372
82402W        W25319   9.931  19.026   0.239 -0.0276 -0.1103 -0.0931
82403W        W25320   8.971  19.981  31.736 -0.2365  0.0995  0.0261
82404W        W25321   7.372  19.174   4.188 -0.1567  0.1534  0.0509
82405W        W25322  11.611  20.505  31.866  0.1641 -0.0587 -0.0126
82406W        W25323   8.537  21.874   1.294 -0.2153 -0.0161 -0.1327
82407W        W25324   8.016  18.690  31.913 -0.1756 -0.2122 -0.0117
82408W        W25325  11.548  21.549   2.409  0.1062 -0.3760 -0.1065
82409W        W25326   6.986  18.634   3.877 -0.0849 -0.5700 -0.0448
82410W        W25327   8.985  21.337   2.101 -0.2092 -0.0224  0.3692
82411W        W25328  10.069  20.104   2.840  0.2486 -0.0399 -0.0019
82412W        W25329   9.323  19.706   4.050 -0.1093 -0.2160 -0.0628
82413W        W25330   8.176  19.494  31.738 -0.0600  0.0081  0.1689
82414W        W25331   9.267  18.656   1.347  0.1084 -0.0669 -0.1722
82415W        W25332   6.926  18.931  31.194  0.0272  0.2507 -0.3778
82416W        W25333   9.449  18.554   2.633  0.2497  0.0903 -0.0707
82417W        W25334   9.745  19.020   2.489 -0.1604 -0.0329  0.0218
82418W        W25335   9.695  19.852   2.383 -0.0367  0.0330 -0.0405
82419W        W25336   8.760  21.920   4.227 -0.0541 -0.0175 -0.2086
82420W        W25337  10.333  21.359   1.811 -0.3239  0.0939 -0.1541
82421W        W25338   8.603  20.455   1.737 -0.0491 -0.0206 -0.0817
82422W        W25339   8.956  19.247   2.384  0.1635  0.4408  0.0025
82423W        W25340   9.025  17.949   3.193 -0.0919 -0.0703  0.0847
82424W        W25341   7.121  22.175   3.125  0.2340 -0.0765  0.0948
82425W        W25342   8.955  23.249   2.618  0.2130  0.0442 -0.1124
82426W        W25343   9.614  22.116   1.034  0.1784  0.0302  0.0067
82427W        W25344  10.879  19.652   2.768  0.1596 -0.0060  0.0963
82428W        W25345   9.781  20.208   4.331 -0.1889  0.0869 -0.3570
82429W        W25346   9.734  19.110   0.705  0.1546 -0.0769  0.0573
82430W        W25347   8.589  21.004   0.411 -0.1954  0.0531  0.3019
82431W        W25348  10.287  20.533   0.491 -0.2618  0.0921  0.1005
82432W        W25349   8.636  17.054   2.577  0.5365 -0.0900  0.2315
82433W        W25350   8.883  21.820   1.933 -0.1590 -0.1522  0.0665
82434W        W25351   9.802  21.276  29.949  0.1625  0.1506 -0.0318
82435W        W25352  10.284  20.145   1.226  0.0668 -0.1316  0.2803
82436W        W25353   9.032  21.756   1.491 -0.2216  0.1189 -0.0377
82437W        W25354  10.529  19.239   3.167 -0.1306  0.2012  0.1029
82438W        W25355   8.290  18.163   0.609 -0.0236  0.3539  0.0132
82439W        W25356  10.103  19.330  31.820  0.1010  0.2157  0.1319
82440W        W25357   8.226  19.092   0.047  0.0200  0.2326 -0.0880
82441W        W25358  10.045  20.400   0.003  0.0137  0.1973 -0.2286
82442W        W25359  11.061  22.147  31.387  0.5405 -0.1249  0.0115
82443W        W25360   6.943  18.948  31.887  0.4267 -0.1406 -0.0121
82444W        W25361   9.654  18.272   2.253  0.2301 -0.1799  0.1346
82445W        W25362   7.420  22.322   3.521  0.1971  0.0774 -0.1517
82446W        W25363  11.493  20.131   3.008 -0.2779 -0.2514 -0.0336
82447W        W25364  12.264  18.063   0.736  0.0559  0.2687  0.2712
82448W        W25365   9.756  21.654   1.875  0.1170 -0.1272  0.3214
82449W        W25366  10.225  19.542   2.355 -0.0942 -0.0582 -0.0464
82450W        W25367   8.816  16.717  31.422 -0.0186  0.0966 -0.0607
82451W        W25368  12.076  21.611   2.398  0.0970  0.2504  0.2273
82452W        W25369   8.476  17.383   0.929  0.4148  0.1394  0.3599
82453W        W25370   6.250  19.628   1.714 -0.0055 -0.0713  0.1134
82454W        W25371   8.315  22.176   1.672  0.0821  0.2955  0.3220
82455W        W25372   8.207  19.088  30.985 -0.1442  0.0355 -0.0253
82456W        W25373   9.298  20.394   0.425  0.1299 -0.1691  0.1118
82457W        W25374   8.054  19.997   1.656 -0.2682 -0.2179  0.3942
82458W        W25375  10.310  19.909   3.705 -0.5005  0.0931  0.4312
82459W        W25376  10.297  20.334   2.399  0.0316  0.1480 -0.0228
82460W        W25377   9.315  17.209   1.088 -0.0719  0.0219 -0.2848
82461W        W25378   9.188  19.975   2.279 -0.0846  0.2139  0.1790
82462W        W25379   9.707  21.877   2.438  0.0643 -0.1207  0.0564
82463W        W25380   9.508  20.720   3.015  0.0832 -0.1837  0.1819
82464W        W25381   8.638  21.158   3.859  0.1184  0.2267  0.0702
82465W        W25382   9.443  19.497   2.793 -0.0593  0.3634  0.0443
82466W        W25383   8.306  21.543   3.937 -0.1109  0.0122  0.3696
82467W        W25384   8.391  18.786   3.282 -0.0163 -0.2201  0.0536
82468W        W25385   7.605  19.355  30.187  0.1859  0.1205  0.4394
82469W        W25386   7.632  20.208   1.803 -0.2681  0.0224 -0.0606
82470W        W25387   9.419  19.770   1.794  0.0271  0.1869 -0.2907
82471W        W25388   9.965  18.607   2.588  0.1395  0.1856  0.1616
82472W        W25389   7.116  21.266   1.561 -0.2553  0.0799  0.0115
82473W        W25390   7.440  21.670   1.317 -0.0060 -0.2478 -0.0130
82474W        W25391   7.661  20.573   0.637 -0.1417 -0.0872  0.0476
82475W        W25392  10.885  18.842   0.137  0.1096 -0.1525  0.0701
82476W        W25393  10.316  22.142  30.441  0.1721  0.1468 -0.2159
82477W        W25394   8.645  18.405   2.041  0.0420  0.0837  0.0494
82478W        W25395  10.990  19.161   2.910 -0.1253  0.0003 -0.2158
82479W        W25396   9.183  17.827  31.759  0.0929 -0.0448 -0.0909
82480W        W25397  10.247  21.057   3.404 -0.3360 -0.0534 -0.1420
82481W        W25398   8.656  18.368   0.842 -0.0880  0.0415  0.0873
82482W        W25399  10.642  21.807  31.294 -0.3408 -0.1842  0.2043
82483W        W25400   8.919  18.461   1.631 -0.0501 -0.0393 -0.1181
82484W        W25401   8.605  25.276   4.389  0.0833 -0.1336 -0.1495
82485W        W25402   9.511  21.518   3.399 -0.3365  0.0571 -0.0679
82486W        W25403  10.027  19.856   0.632  0.1121 -0.1538  0.2419
82487W        W25404   8.131  19.536   1.395 -0.2320 -0.1990  0.1289
82488W        W25405   9.286  22.669   2.603  0.0808 -0.0460  0.4361
82489W        W25406  10.803  20.128   3.640 -0.2194 -0.0446  0.0062
82490W        W25407  11.192  21.141   0.675 -0.1888 -0.1278 -0.3727
82491W        W25408  10.549  19.199   1.474 -0.4021  0.0840  0.0155
82492W        W25409   8.674  19.760   2.223  0.2520  0.0418  0.0248
82493W        W25410  10.712  21.713   1.509  0.0422 -0.1544  0.0525
82494W        W25411   9.781  19.973   0.149 -0.0755  0.2621 -0.0697
82495W        W25412  10.516  20.458  31.886 -0.3077  0.0881  0.2096
82496W        W25413   7.745  18.093   2.147 -0.0094 -0.0834  0.1358
82497W        W25414  11.274  21.183  31.245 -0.1040 -0.3120 -0.0118
82498W        W25415  10.768  19.433   2.264  0.0696 -0.0391 -0.0801
82499W        W25416   9.453  21.417   2.275 -0.2573 -0.0928 -0.1511
82500W        W25417   9.845  19.948   3.898 -0.2342 -0.1168 -0.1628
82501W        W25418   8.050  19.474   1.931  0.0659  0.0162  0.2187
82502W        W25419   5.945  19.730   4.125 -0.1559  0.2189 -0.0928
82503W        W25420   8.321  21.995   4.055 -0.1736  0.0356 -0.2734
82504W        W25421  10.973  20.735   0.202  0.0418 -0.0901 -0.2437
82505W        W25422  11.702  20.735   2.771  0.1061 -0.1203 -0.3982
82506W        W25423   9.725  19.551   0.343 -0.3289  0.0231  0.0641
82507W        W25424  11.317  19.908  29.270  0.1307 -0.1075 -0.0122
82508W        W25425   7.310  20.309   2.796  0.0375  0.1242  0.2614
82509W        W25426  10.645  21.322   3.252  0.0507 -0.0955 -0.3457
82510W        W25427   9.153  19.115  31.666  0.0248 -0.0532  0.1375
82511W        W25428   7.577  17.844   3.633  0.0753  0.1799  0.0497
82512W        W25429   6.930  20.797   1.808 -0.0217 -0.1750 -0.1888
82513W        W25430   9.941  19.668   1.911 -0.0205  0.1850  0.2912
82514W        W25431  12.232  18.110  31.329  0.2516  0.3227  0.1660
82515W        W25432   7.580  18.843   2.458  0.2339  0.2658  0.1797
82516W        W25433   7.829  20.080   3.765  0.2647 -0.0845  0.2716
82517W        W25434  10.235  19.681   0.221  0.1539  0.1282  0.1295
82518W        W25435   8.045  18.646   0.859 -0.0792  0.0488  0.1005
82519W        W25436   9.697  22.163   4.016 -0.0441 -0.1569  0.0107
82520W        W25437   9.354  22.055   2.062 -0.0062  0.1191  0.0028
82521W        W25438  10.045  17.742   1.521 -0.1516 -0.1514 -0.3046
82522W        W25439  10.893  21.038   2.033 -0.0686  0.2196  0.4387
82523W        W25440   7.838  19.021   0.343 -0.0986  0.0818 -0.3835
82524W        W25441  10.944  18.899   3.325  0.0353 -0.0697  0.1112
82525W        W25442   8.478  20.572   2.984  0.2479  0.0258  0.0465
82526W        W25443   7.394  21.137   1.121 -0.1738 -0.1872 -0.1447
82527W        W25444   7.162  21.101   0.110 -0.4020 -0.0669  0.0913
82528W        W25445   8.073  18.393   2.919  0.0432  0.2352  0.0193
82529W        W25446  12.077  20.289   2.908  0.2282 -0.1869 -0.0983
82530W        W25447   7.374  18.849   0.115 -0.2219 -0.2698 -0.4454
82531W        W25448  10.997  20.127   2.820 -0.1253  0.0713  0.5897
82532W        W25449   9.081  20.514   1.982  0.0221  0.3899  0.2327
82533W        W25450   8.207  16.905   0.022  0.1083 -0.0475 -0.3660
82534W        W25451   8.603  20.765   2.547 -0.3717  0.1227 -0.2482
82535W        W25452  11.425  19.455   1.566  0.2114  0.0057  0.1240
82536W        W25453   7.473  19.354   2.443 -0.1110 -0.1099  0.1319
82537W        W25454   6.823  19.710   2.110 -0.0479  0.3223  0.0066
82538W        W25455   9.343  20.150   4.968  0.1087 -0.1598  0.2228
82539W        W25456   9.436  19.892   0.647  0.2188  0.0840 -0.1691
82540W        W25457   8.947  17.556  31.065 -0.0201  0.0525  0.0943
82541W        W25458  11.015  22.226  31.888 -0.4240  0.2645  0.0506
82542W        W25459   8.152  23.235   3.424 -0.1064 -0.1937  0.0060
82543W        W25460   7.893  19.562   3.792 -0.5584 -0.0359  0.2140
82544W        W25461  10.415  19.522  31.559  0.4503 -0.1096 -0.0237
82545W        W25462  11.776  21.140  31.157  0.2062  0.0587 -0.0018
82546W        W25463   8.939  21.321   0.560 -0.0493 -0.0755 -0.0873
82547W        W25464  10.793  22.199   3.510 -0.0027 -0.1040  0.1933
82548W        W25465   9.635  18.495   0.185 -0.0515 -0.1249  0.2617
82549W        W25466   7.461  20.242   2.257 -0.0529 -0.1048  0.0375
82550W        W25467   6.581  21.869   2.329  0.1069  0.0659 -0.1456
82551W        W25468   9.870  22.723   1.894 -0.0659  0.2100 -0.3604
82552W        W25469   7.945  25.973   1.375 -0.3256  0.0997  0.1025
82553W        W25470  10.203  21.535   3.126  0.2609  0.0539 -0.1562
82554W        W25471  10.107  18.344   0.049 -0.0014 -0.1066  0.3413
82555W        W25472  10.182  21.967   0.936  0.0403  0.0670  0.1433
82556W        W25473  10.169  19.333   0.567 -0.0488 -0.0256 -0.2002
82557W        W25474  10.134  22.321   4.272  0.0908 -0.1168  0.3188
82558W        W25475   9.604  19.020   1.183  0.1222 -0.1444 -0.2679
82559W        W25476   9.394  20.115   2.838 -0.1553 -0.2201  0.1338
82560W        W25477   9.151  20.916   3.948 -0.0085 -0.2647  0.3118
82561W        W25478  11.243  18.717   2.931  0.0411  0.1726 -0.0384
82562W        W25479   6.753  20.323   3.921 -0.0415  0.0618  0.2440
82563W        W25480  10.175  21.333   0.500  0.2133 -0.0638 -0.2704
82564W        W25481   6.816  19.447   0.056 -0.2399 -0.1162  0.1759
82565W        W25482   8.233  18.215   1.136  0.0797 -0.4077 -0.0658
82566W        W25483  12.605  19.215   1.719 -0.2011 -0.0600  0.1225
82567W        W25484   9.645  18.938  30.889 -0.2332  0.1169 -0.1929
82568W        W25485  11.679  20.319   1.957 -0.2711 -0.0193 -0.0087
82569W        W25486   9.844  21.494   0.873 -0.0567  0.2620  0.2103
82570W        W25487   8.562  23.593   2.605  0.2960 -0.1244 -0.1718
82571W        W25488   8.405  23.647   4.037  0.1681 -0.0587 -0.1507
82572W        W25489   6.594  17.767  31.867 -0.2489  0.1594 -0.1763
82573W        W25490  10.906  19.341   1.803 -0.4190  0.1204  0.2986
82574W        W25491   9.175  20.596   2.554  0.1666 -0.1370  0.0545
82575W        W25492   9.634  19.245   3.791  0.2642 -0.2202 -0.1085
82576W        W25493   8.328  18.125  29.920  0.1926  0.0156  0.3181
82577W        W25494  10.373  20.440   1.614  0.0297 -0.0153  0.0322
82578W        W25495   6.922  21.100   2.460  0.1795  0.1574 -0.0298
82579W        W25496   8.117  18.848   2.775 -0.2236  0.0586  0.3851
82580W        W25497   9.919  20.356   1.665 -0.2788 -0.1072 -0.1550
82581W        W25498  11.497  20.992   1.590  0.2110 -0.1093 -0.3345
82582W        W25499  10.700  19.753  31.939  0.0192  0.0303  0.1068
82583W        W25500   8.717  22.739   4.785  0.0390 -0.1728 -0.0464
82584W        W25501   8.898  18.705   0.069 -0.1653  0.1377  0.2392
82585W        W25502   9.747  20.106   0.979 -0.0562 -0.2229  0.0810
82586W        W25503   9.215  18.956   0.841  0.3413  0.1845  0.2467
82587W        W25504  11.209  20.967   3.387 -0.4108 -0.1252 -0.3317
82588W        W25505   7.895  23.283   2.976 -0.1493  0.0883  0.0651
82589W        W25506   8.052  17.885   1.540 -0.0181 -0.4495  0.1595
82590W        W25507   9.990  22.436  30.752 -0.1594  0.1181  0.0862
82591W        W25508   9.584  20.311   3.242  0.3017  0.0666  0.1327
82592W        W25509   7.701  20.173  30.293  0.0036  0.1298 -0.3501
82593W        W25510  10.595  20.613   2.124 -0.2394 -0.0451 -0.0807
82594W        W25511  10.735  22.655   3.294  0.0558  0.2421  0.1597
82595W        W25512   6.439  20.704   1.242  0.2829  0.1026 -0.3321
82596W        W25513   8.725  20.280   2.258  0.0197  0.1881  0.1423
82597W        W25514  11.657  19.139   1.104 -0.4108 -0.1781  0.0104
82598W        W25515  11.875  17.850   0.881  0.2529 -0.1679  0.3399
82599W        W25516   9.005  19.444   1.925  0.1802  0.0877  0.0936
82600W        W25517   6.534  22.823   2.362  0.0292 -0.0721 -0.2485
82601W        W25518   9.696  19.805   3.069  0.2793 -0.2737  0.0006
82602W        W25519   9.900  20.690   3.490  0.0503 -0.1219  0.0551
82603W        W25520  10.242  20.664  29.402  0.0062 -0.2241  0.1377
82604W        W25521   9.018  19.662   1.462 -0.2370 -0.2239 -0.1411
82605W        W25522   6.751  20.352   1.457  0.2120 -0.2445  0.1623
82606W        W25523   8.572  21.246   2.456  0.0019 -0.0246 -0.3025
82607W        W25524  10.101  20.261  30.783  0.0880  0.2237 -0.1536
82608W        W25525   9.963  22.266   2.629 -0.0735 -0.1182  0.3033
82609W        W25526   8.757  21.571   1.015  0.2471 -0.0658  0.0008
82610W        W25527   8.840  20.875  31.045  0.0779  0.1224 -0.1357
82611W        W25528  11.425  22.365   2.270  0.0154 -0.0082 -0.1315
82612W        W25529   8.744  19.668   0.479  0.3083  0.0899  0.1364
82613W        W25530  10.456  20.961   0.362 -0.0497  0.2539 -0.0766
82614W        W25531   9.481  18.488   1.804 -0.1746  0.0792 -0.1516
82615W        W25532  12.819  19.188  31.278  0.2095 -0.4941  0.1069
82616W        W25533  11.016  18.469   0.470  0.3298 -0.0252 -0.0162
82617W        W25534   6.620  21.383   3.880  0.0784  0.2968 -0.1717
82618W        W25535   8.614  19.226  30.004  0.1199 -0.0095  0.1091
82619W        W25536   8.413  20.721   0.863  0.2201 -0.2142 -0.1955
82620W        W25537   8.282  19.646   0.295 -0.1663 -0.1801 -0.2309
82621W        W25538   9.423  18.386   4.190 -0.0230  0.1819 -0.0165
82622W        W25539   8.299  20.082   2.087  0.4217  0.1357 -0.2458
82623W        W25540   8.403  20.069   0.686 -0.0595  0.0242 -0.2917
82624W        W25541   5.970  18.972  30.068 -0.1026  0.4575 -0.1169
82625W        W25542  10.629  22.724  31.434 -0.1984 -0.0198 -0.0826
82626W        W25543   8.498  19.715   1.741 -0.1275  0.3733 -0.0151
82627W        W25544   7.607  17.530   1.722 -0.0425 -0.3498 -0.1928
82628W        W25545   9.314  21.192   0.899 -0.0370 -0.4861 -0.2757
82629W        W25546  10.101  21.010   0.032 -0.0143 -0.2551 -0.1364
82630W        W25547   9.267  18.153   1.457  0.0097 -0.1297  0.0470
82631W        W25548  11.584  21.043   2.139 -0.2005 -0.1193 -0.2480
82632W        W25549  10.010  20.266  31.426 -0.0796 -0.0486 -0.0961
82633W        W25550   9.944  19.212   2.055  0.2480  0.2083 -0.1822
82634W        W25551   9.497  19.216   4.357  0.3452 -0.0297  0.4738
82635W        W25552   8.445  17.431  31.880  0.3649 -0.4713  0.0490
82636W        W25553   9.140  18.285   0.960 -0.0221  0.2403 -0.1270
82637W        W25554   9.423  22.492   1.857 -0.0608 -0.0382 -0.0611
82638W        W25555   9.552  20.735   0.073 -0.0411  0.0742 -0.2311
82639W        W25556   9.271  23.034   3.628 -0.0303  0.2305  0.2665
82640W        W25557   9.778  22.329   3.119  0.0751 -0.1711  0.1795
82641W        W25558   7.693  19.098   3.784 -0.1594  0.5537  0.4196
82642W        W25559  10.654  21.290   0.635  0.0920  0.2087 -0.5719
82643W        W25560   9.584  20.573   1.202  0.1159  0.0247 -0.1870
82644W        W25561  12.472  21.254   2.738 -0.0582 -0.1696 -0.2071
82645W        W25562  10.433  19.440   1.931 -0.1213 -0.0654  0.0407
82646W        W25563  11.007  20.876  31.644 -0.1946 -0.1416  0.0132
82647W        W25564   7.853  18.225   3.779  0.0964  0.0145  0.2543
82648W        W25565   8.546  20.860   2.008 -0.0629 -0.0588 -0.0700
82649W        W25566   9.848  21.179   1.887  0.0639 -0.2732  0.0899
82650W        W25567   8.070  18.004   2.544  0.2490  0.0184 -0.0692
82651W        W25568  11.125  19.301  30.328 -0.1812  0.0560  0.1551
82652W        W25569   9.357  21.712   0.255  0.0786  0.2425 -0.1537
82653W        W25570   8.584  19.958   1.355  0.4601 -0.2857 -0.2059
82654W        W25571   7.361  18.765   1.137 -0.1507  0.0679 -0.0781
82655W        W25572   8.127  19.007   1.719  0.0823 -0.0161  0.0976
82656W        W25573   9.972  20.778   1.432 -0.1208 -0.0908  0.3814
82657W        W25574  10.690  20.541   2.663  0.0531 -0.0646 -0.1050
82658W        W25575   9.222  17.780   0.904 -0.0735  0.1240 -0.0746
82659W        W25576   9.988  20.769  30.864  0.0498 -0.3264  0.3010
82660W        W25577   9.049  22.105   1.078  0.1009 -0.0143  0.1855
82661W        W25578   9.021  23.031   4.436  0.0541  0.0650 -0.1679
82662W        W25579   8.532  23.295   3.102 -0.3632 -0.2081 -0.1374
82663W        W25580  10.368  20.515   3.568 -0.0814  0.1973 -0.2495
82664W        W25581   7.940  18.656   1.360  0.1004  0.0280 -0.1269
82665W        W25582   6.748  19.302  31.516  0.0607 -0.0011 -0.1835
82666W        W25583   9.113  19.191   1.289  0.0672  0.2948 -0.2119
82667W        W25584  10.043  20.643   2.983  0.2397 -0.0119  0.0007
82668W        W25585   6.484  19.381   1.295  0.1629  0.0717 -0.1530
82669W        W25586  11.660  19.253   2.009  0.0099 -0.0022  0.0484
82670W        W25587   8.941  22.140   3.493 -0.2563 -0.0709  0.0966
82671W        W25588   9.322  21.376   1.760  0.2610 -0.2103  0.1848
82672W        W25589   6.656  20.604   6.380  0.1377 -0.2445 -0.1575
82673W        W25590   9.460  19.243   6.270 -0.0390  0.0975  0.4690
82674W        W25591  10.477  20.215   3.097 -0.0340 -0.0430 -0.3549
82675W        W25592   9.454  22.200   2.724  0.2293  0.2140 -0.0351
82676W        W25593   6.913  19.200   4.921 -0.0713 -0.1364  0.0274
82677W        W25594   9.063  21.154   4.977 -0.0519 -0.3078  0.1630
82678W        W25595  10.540  17.662   8.085 -0.1607 -0.1453  0.0224
82679W        W25596   9.974  22.289   6.411 -0.0555 -0.1838 -0.3146
82680W        W25597  10.974  21.863   6.459 -0.0745 -0.1685 -0.0740
82681W        W25598   8.380  21.845   5.074  0.0212  0.2244 -0.1771
82682W        W25599  10.042  20.437   6.265 -0.1246 -0.2457 -0.0162
82683W        W25600   8.431  21.012   6.199 -0.2909  0.3477  0.0453
82684W        W25601   8.557  17.833   3.371  0.1238 -0.2689 -0.1053
82685W        W25602   6.758  18.108   7.115 -0.0624  0.1036  0.0444
82686W        W25603   8.599  22.329   6.973 -0.1917 -0.1362  0.2184
82687W        W25604   6.781  19.596   4.614  0.0758  0.0088  0.1350
82688W        W25605  10.210  20.802   5.691 -0.2473 -0.2539  0.1817
82689W        W25606   8.172  18.283   3.409 -0.2324  0.2742 -0.1727
82690W        W25607   9.127  24.090   6.513  0.0540  0.0483 -0.2133
82691W        W25608   8.830  18.978   6.997 -0.3324  0.1155  0.0416
82692W        W25609   7.474  19.379   7.274 -0.2013 -0.2775 -0.2522
82693W        W25610   9.371  21.662   2.872 -0.1129 -0.1083  0.3691
82694W        W25611   7.977  20.619   2.889 -0.0222  0.0494  0.2072
82695W        W25612   7.267  20.774   4.210 -0.1066  0.0483 -0.1827
82696W        W25613   7.953  19.786   5.924 -0.1226 -0.0170  0.1088
82697W        W25614   9.130  20.076   6.742  0.0821 -0.4497 -0.1593
82698W        W25615   9.240  20.107   4.455  0.0362  0.2223 -0.3807
82699W        W25616   6.676  22.679   8.510 -0.1968  0.3309 -0.2756
82700W        W25617   8.732  22.089   5.436 -0.1114 -0.0348 -0.0647
82701W        W25618   8.555  20.177   7.439  0.2753  0.1019 -0.1151
82702W        W25619   7.607  21.025   3.484  0.0780  0.0819 -0.0816
82703W        W25620   7.737  21.245   4.438  0.1070  0.1330 -0.0228
82704W        W25621   8.826  22.552   5.224 -0.1906  0.3652  0.1880
82705W        W25622  10.890  23.558   5.163 -0.0961  0.1154 -0.3176
82706W        W25623  10.210  21.678   8.779  0.2589 -0.1783 -0.1245
82707W        W25624   7.731  22.359   6.872 -0.3481  0.1580 -0.1000
82708W        W25625   7.190  22.872   4.417 -0.2354 -0.2884  0.2706
82709W        W25626   9.667  21.039   7.562 -0.1356 -0.1050  0.2591
82710W        W25627   8.166  23.076   5.532 -0.0246 -0.1664  0.0292
82711W        W25628   9.351  20.164   5.967  0.2203 -0.3355 -0.0149
82712W        W25629  12.022  21.574   3.464 -0.0126 -0.1093 -0.1298
82713W        W25630   8.316  20.145   4.692  0.0095  0.0560 -0.1712
82714W        W25631   9.069  21.531   6.941  0.0746 -0.0423  0.1029
82715W        W25632   8.611  19.604   8.229 -0.0263 -0.4324  0.1160
82716W        W25633   5.859  19.959   3.707 -0.1311 -0.0097 -0.0376
82717W        W25634  11.654  17.072   9.476 -0.2227  0.0426 -0.0433
82718W        W25635   7.215  21.133   5.101 -0.4038  0.1266 -0.0086
82719W        W25636   9.750  20.394   2.609 -0.0070  0.1645 -0.0431
82720W        W25637   8.454  20.015   2.607 -0.2717  0.0031 -0.2804
82721W        W25638   8.616  20.642   3.487 -0.1003  0.0403  0.0110
82722W        W25639  10.479  18.993   5.195  0.0731  0.0031 -0.2942
82723W        W25640   9.784  22.787   5.977 -0.0339 -0.1474 -0.0705
82724W        W25641   9.170  18.795   6.095  0.5174 -0.0715 -0.0699
82725W        W25642  10.935  19.669   7.355  0.2439  0.1129  0.2731
82726W        W25643   9.917  19.495   6.343 -0.0093 -0.0657  0.2067
82727W        W25644   9.590  20.593   6.813 -0.2469 -0.0856  0.0602
82728W        W25645   8.190  22.038   7.631  0.2808 -0.0998 -0.2667
82729W        W25646   9.222  19.711   7.163 -0.0724 -0.1520 -0.1056
82730W        W25647  10.989  23.492   1.396  0.0299  0.0544 -0.1014
82731W        W25648   9.556  22.885   4.921 -0.2309 -0.1190  0.2516
82732W        W25649  10.159  24.293   4.354  0.3172 -0.2091 -0.1025
82733W        W25650   7.751  19.521   4.711  0.2089 -0.2335  0.0177
82734W        W25651   8.283  18.471   5.452 -0.1887  0.0991 -0.1933
82735W        W25652   7.525  19.503   5.785  0.3139 -0.1272 -0.2640
82736W        W25653   9.029  18.198   3.979  0.0683 -0.0605  0.0222
82737W        W25654  10.831  21.353   6.644  0.0909  0.0251 -0.1349
82738W        W25655   7.969  21.174   6.065  0.0883  0.0768 -0.0240
82739W        W25656  11.996  20.880   3.947  0.1449  0.0226  0.0645
82740W        W25657   9.124  21.855   6.425 -0.3030 -0.0168  0.0385
82741W        W25658   9.817  21.290   6.468 -0.2372  0.1987  0.3888
82742W        W25659   9.627  21.194   3.801  0.3820 -0.0605  0.1803
82743W        W25660   9.302  20.912   5.352 -0.0362 -0.0895 -0.0398
82744W        W25661   9.865  18.710   8.190 -0.0546  0.0462  0.0641
82745W        W25662   7.594  19.662   3.399  0.3116 -0.0047  0.0867
82746W        W25663   9.967  19.355   4.147  0.1674 -0.0062  0.3101
82747W        W25664  10.936  21.938   6.926  0.0023  0.1085 -0.1018
82748W        W25665  10.404  22.551   2.843 -0.2942 -0.2294  0.2468
82749W        W25666   9.261  22.774   5.850  0.1062 -0.1484  0.1585
82750W        W25667  10.400  19.577   7.218 -0.2230 -0.1088  0.0290
82751W        W25668   8.857  21.483   8.016  0.0761  0.2262  0.4353
82752W        W25669   8.104  20.886   4.698  0.0539  0.1459  0.0514
82753W        W25670   7.267  20.309   5.809 -0.2291  0.0304 -0.5123
82754W        W25671   6.285  19.765   3.775 -0.0526  0.2134  0.2779
82755W        W25672   6.772  17.980   6.604 -0.0074 -0.2775 -0.0112
82756W        W25673   9.767  20.039   5.270  0.1835  0.0471 -0.0368
82757W        W25674  10.954  18.198   4.465  0.0635 -0.0388 -0.0380
82758W        W25675   7.432  17.893   5.511 -0.0946 -0.0644  0.1766
82759W        W25676  11.365  18.914   5.085 -0.0516  0.0594  0.0025
82760W        W25677   7.366  20.203   5.254  0.0417 -0.2494  0.1662
82761W        W25678  11.221  23.053   5.419  0.1789  0.4401 -0.2330
82762W        W25679  10.792  20.250   4.253  0.0012 -0.0834  0.2991
82763W        W25680   7.681  20.009   4.902  0.0662 -0.2527  0.2014
82764W        W25681   8.544  19.917   5.436 -0.1530  0.1648 -0.0153
82765W        W25682   9.816  19.362   4.698  0.1640  0.2145  0.1236
82766W        W25683   7.709  19.538   6.328 -0.1528 -0.2171 -0.0241
82767W        W25684   8.592  18.578   5.843 -0.0015  0.1627  0.0895
82768W        W25685  10.744  21.104   8.340  0.0356 -0.1840  0.1123
82769W        W25686   9.394  19.258   3.265 -0.0763 -0.0832  0.0046
82770W        W25687  10.449  22.083   6.164  0.1462  0.1268 -0.0179
82771W        W25688   9.062  21.279   1.347 -0.1614 -0.0388  0.1638
82772W        W25689   6.668  19.348   3.647 -0.1281 -0.3086 -0.2107
82773W        W25690  10.231  18.830   7.512 -0.2596  0.2094  0.1578
82774W        W25691  11.182  23.244   3.822  0.2825  0.0054 -0.0335
82775W        W25692  10.510  23.014   7.042 -0.0223 -0.0035  0.0662
82776W        W25693   9.470  23.426   5.094 -0.1914 -0.1027  0.0470
82777W        W25694  10.846  19.535   5.533  0.1481 -0.0480  0.1093
82778W        W25695   9.291  21.154   2.936  0.1895 -0.3745  0.3227
82779W        W25696   9.472  21.489   4.794 -0.2204 -0.1579  0.0154
82780W        W25697   9.190  23.276   5.510 -0.1703 -0.1353  0.3854
82781W        W25698   8.059  18.717   3.818 -0.2909 -0.2496 -0.1428
82782W        W25699  10.073  23.687   5.467 -0.1881 -0.0823  0.3383
82783W        W25700   9.535  21.359   4.311 -0.1869  0.1478 -0.2732
82784W        W25701   7.498  21.259   5.971 -0.0092  0.2958 -0.2633
82785W        W25702  11.141  17.539   6.812  0.0266 -0.1914  0.2313
82786W        W25703  10.440  22.567   6.280 -0.0251  0.2908 -0.2747
82787W        W25704  11.240  19.133   4.635  0.1401  0.5255 -0.2132
82788W        W25705   7.001  17.268   3.320 -0.0529  0.2051 -0.2737
82789W        W25706  10.269  24.106   5.692 -0.2758 -0.0550  0.1212
82790W        W25707   6.886  22.703   3.998  0.0587  0.1731 -0.3004
82791W        W25708  10.469  18.096   4.670  0.0050  0.0995  0.0329
82792W        W25709  10.112  21.947   4.627 -0.2505 -0.1737 -0.2906
82793W        W25710  12.378  19.244   5.126 -0.2507 -0.3592  0.1661
82794W        W25711   8.523  21.533   6.216  0.1413 -0.0068 -0.3621
82795W        W25712  10.021  21.083   7.956  0.2026 -0.1189  0.1478
82796W        W25713   6.660  20.099   4.700  0.1000  0.2057  0.1160
82797W        W25714   8.089  22.560   8.420  0.1411 -0.0519 -0.0016
82798W        W25715   8.990  20.438   3.833  0.3156  0.2841 -0.0169
82799W        W25716  10.384  19.274   5.599 -0.1118 -0.2833  0.0188
82800W        W25717   8.065  20.205   5.168  0.0830  0.3394  0.2117
82801W        W25718  12.550  22.330   4.269 -0.0463  0.2281  0.2132
82802W        W25719   9.805  20.599   3.995  0.4257 -0.0520 -0.0945
82803W        W25720  10.545  17.999   5.382  0.0192  0.0902 -0.0520
82804W        W25721   8.915  23.033   8.071 -0.0515 -0.0037 -0.4692
82805W        W25722   8.262  23.945   4.425  0.3457  0.2680  0.0016
82806W        W25723   9.088  19.370   5.236  0.0982  0.0743 -0.3890
82807W        W25724  10.164  18.911   2.925  0.4202  0.0995  0.0465
82808W        W25725  12.004  21.006   6.499  0.0791 -0.0553 -0.3706
82809W        W25726   8.429  21.072   7.304  0.1001  0.3788  0.2704
82810W        W25727   8.544  20.640   4.750 -0.1031 -0.1239  0.1162
82811W        W25728  10.229  22.316   3.449  0.0795 -0.2356  0.1749
82812W        W25729   9.406  19.782   5.516  0.1728 -0.0066  0.2288
82813W        W25730   9.085  20.753   1.178 -0.1851 -0.1191  0.3435
82814W        W25731   9.700  19.258   5.782 -0.0380 -0.2507 -0.1243
82815W        W25732   7.385  20.139   3.531 -0.1991  0.0832  0.3640
82816W        W25733   9.984  20.041   7.641 -0.3051 -0.2452  0.0961
82817W        W25734  11.290  19.235   5.576 -0.0656  0.2640  0.0192
82818W        W25735   8.751  19.214   4.754  0.0358 -0.0190  0.0393
82819W        W25736   8.885  21.087   5.645  0.2410  0.0298  0.3419
82820W        W25737  10.725  21.916   5.201 -0.0190  0.0990 -0.2846
82821W        W25738  10.046  20.317   5.577 -0.1265  0.0673  0.1981
82822W        W25739  10.175  18.032   3.792  0.0830  0.0538 -0.0690
82823W        W25740   8.660  18.655   9.640  0.0545 -0.1250 -0.2568
82824W        W25741   8.159  19.581   5.512  0.0973 -0.0983  0.0407
82825W        W25742   7.874  23.057   6.092 -0.0364  0.2702  0.2162
82826W        W25743  11.387  22.075   5.701 -0.2063 -0.0374  0.1197
82827W        W25744   9.767  21.103   3.271 -0.1665 -0.3233  0.1412
82828W        W25745   9.742  21.703   9.016  0.2177 -0.2942  0.3040
82829W        W25746   7.790  19.111   5.638 -0.1960 -0.0387  0.2158
82830W        W25747   9.206  21.451   3.941  0.2590 -0.1843 -0.1972
82831W        W25748   9.358  22.024   3.193 -0.1449 -0.1377  0.3377
82832W        W25749  11.397  20.044   6.305 -0.3489  0.2125 -0.3574
82833W        W25750  10.230  22.677   5.588 -0.1071 -0.0198  0.0170
82834W        W25751   8.563  20.163   3.367  0.0588  0.0605 -0.0143
82835W        W25752   9.317  21.962   5.932 -0.0639 -0.2730  0.1732
82836W        W25753   8.870  21.324   4.247  0.1775 -0.3320 -0.1303
82837W        W25754  11.021  18.229   7.494  0.2723 -0.6961 -0.0093
82838W        W25755   8.410  21.002   5.092 -0.4120 -0.4553 -0.1512
82839W        W25756   9.628  20.578   2.056 -0.1166 -0.4019  0.2679
82840W        W25757   9.131  20.480   5.492 -0.1852  0.0804  0.2854
82841W        W25758  11.913  18.409   5.872 -0.1473 -0.0732 -0.0868
82842W        W25759   7.365  20.220   4.009 -0.0070  0.1735  0.1955
82843W        W25760   7.767  18.147   6.782  0.1989  0.3544  0.0715
82844W        W25761   9.858  20.873   6.166 -0.0389 -0.0213  0.1203
82845W        W25762   8.986  19.821   6.323 -0.3728 -0.0446  0.2784
82846W        W25763   8.673  21.104   4.659 -0.3387  0.2670 -0.3257
82847W        W25764   8.911  18.779   2.968  0.0153  0.1434  0.2544
82848W        W25765  10.689  20.048   7.169  0.0023 -0.0929  0.0550
82849W        W25766   9.454  19.902   8.067 -0.0890  0.0613  0.0070
82850W        W25767   7.575  19.923   4.399 -0.0297  0.3084 -0.5658
82851W        W25768  11.131  21.434   6.215 -0.2390  0.3541  0.0978
82852W        W25769  10.912  18.328   5.594 -0.0654  0.0165  0.1755
82853W        W25770   8.884  21.638   4.678 -0.1152  0.0697 -0.1682
82854W        W25771   8.960  23.661   5.735  0.2830 -0.1348  0.2971
82855W        W25772   8.692  19.476   3.626  0.1747  0.0998 -0.3059
82856W        W25773   9.494  20.333   3.758  0.1591  0.1925 -0.0106
82857W        W25774   8.102  20.309   7.456  0.0234  0.0277  0.0382
82858W        W25775   9.815  21.860   5.835  0.3595 -0.3672 -0.0022
82859W        W25776  10.768  19.900   6.664  0.2316 -0.2444  0.0547
82860W        W25777   9.710  18.759   3.526 -0.0145  0.2788  0.2502
82861W        W25778   8.445  18.969   4.412 -0.0515  0.1475 -0.1449
82862W        W25779  11.789  22.486   6.357  0.0371  0.0098  0.0247
82863W        W25780   9.007  20.225   7.257  0.0120 -0.4031 -0.1100
82864W        W25781   8.649  21.816   8.498 -0.1323 -0.0533 -0.3247
82865W        W25782   9.903  20.025   6.026  0.2025  0.1458 -0.2613
82866W        W25783   8.951  22.739   1.824  0.1558  0.0804 -0.1732
82867W        W25784   9.510  19.749   6.234  0.0959 -0.1147  0.2785
82868W        W25785   8.696  20.679   5.922  0.1859  0.0207  0.3236
82869W        W25786   7.471  20.229   6.508 -0.1288  0.2302 -0.0072
82870W        W25787   9.986  20.297   4.882 -0.4982 -0.2215  0.1086
82871W        W25788   9.972  18.955   7.033  0.0345 -0.0209  0.0724
82872W        W25789   9.573  22.384   5.745 -0.0814  0.1858 -0.1219
82873W        W25790   8.386  18.709   5.006 -0.1736 -0.0769  0.0489
82874W        W25791   7.987  20.765   6.382  0.0914  0.0835  0.0159
82875W        W25792  10.340  18.547   3.857  0.0866 -0.0433 -0.1722
82876W        W25793   8.768  21.767   3.750  0.0261 -0.0388  0.2801
82877W        W25794   8.008  18.480   4.246  0.2000  0.3258 -0.0009
82878W        W25795   9.415  21.032   7.116 -0.0561  0.1806 -0.1263
82879W        W25796   8.777  20.762   5.302 -0.1839 -0.0440  0.2712
82880W        W25797  10.772  18.787   7.913 -0.3373 -0.0107 -0.2072
82881W        W25798   8.392  19.252   5.165 -0.0422  0.0256 -0.6548
82882W        W25799  11.775  21.352   3.927 -0.1764  0.2961 -0.1651
82883W        W25800   6.959  18.068   6.109 -0.1560  0.1178  0.6068
82884W        W25801  10.744  22.049   7.953  0.0981  0.3150 -0.1318
82885W        W25802   8.636  23.811   4.856  0.3935  0.4298 -0.2230
82886W        W25803   8.890  19.436   6.824  0.3120  0.0128 -0.0069
82887W        W25804   6.714  18.080   4.496 -0.2005  0.2815 -0.2438
82888W        W25805   9.163  20.656   4.961  0.1738  0.1643 -0.0467
82889W        W25806   9.999  23.359   6.179  0.0856  0.0429  0.3713
82890W        W25807   9.058  21.079   2.512 -0.0087  0.0878 -0.0515
82891W        W25808  10.748  20.819   4.060  0.1486  0.0871  0.0809
82892W        W25809   7.485  21.495   5.318  0.1433 -0.1784 -0.0494
82893W        W25810  10.426  21.240   5.643 -0.1020  0.1696  0.0052
82894W        W25811  10.039  18.982   3.838 -0.0475 -0.0710 -0.2068
82895W        W25812   7.988  19.725   6.782 -0.0211  0.1379  0.0792
82896W        W25813   9.156  18.618   7.126  0.2176 -0.0833  0.1625
82897W        W25814   9.495  21.896   5.400 -0.0484 -0.1972 -0.1080
82898W        W25815  11.601  19.715   4.658  0.0897 -0.0616 -0.0190
82899W        W25816   9.548  20.147   7.093  0.1502 -0.2131 -0.0067
82900W        W25817   9.116  20.564   6.839 -0.0827  0.2192 -0.0169
82901W        W25818   8.325  20.504   4.314  0.2449 -0.1056 -0.0581
82902W        W25819   6.938  18.540   6.936 -0.4508 -0.0013  0.4380
82903W        W25820  10.050  23.334   7.337 -0.0851  0.1009  0.2745
82904W        W25821  11.398  20.168   3.569 -0.2398  0.5168  0.0295
82905W        W25822  10.297  19.664   7.968 -0.3250  0.0004  0.3277
82906W        W25823   9.704  20.953   4.862 -0.0866  0.0133 -0.1051
82907W        W25824   8.201  20.943   3.338  0.1980  0.1007  0.0848
82908W        W25825   9.475  21.204   5.837  0.0978  0.0687  0.3100
82909W        W25826   9.261  20.673  10.317 -0.2380  0.0206 -0.0966
82910W        W25827   7.257  18.028   4.640  0.0225  0.2927 -0.2783
82911W        W25828   9.153  19.248   7.323  0.1656  0.1257 -0.2041
82912W        W25829   8.793  23.662   4.395  0.1046 -0.3923 -0.0343
82913W        W25830   9.176  22.316   4.022  0.0336  0.3562  0.0449
82914W        W25831  10.363  19.947   5.765 -0.3066  0.0931 -0.0648
82915W        W25832   8.356  18.405   4.626 -0.0148  0.1765  0.4697
82916W        W25833  10.045  21.744   6.269 -0.3131  0.1216  0.1724
82917W        W25834   9.132  21.754   2.404 -0.3573  0.1027 -0.1366
82918W        W25835   9.128  19.703   4.796 -0.0622 -0.1607 -0.0692
82919W        W25836   9.416  22.844   8.046  0.1010  0.1530 -0.0130
82920W        W25837   8.687  22.244   7.652  0.0364  0.2435  0.1264
82921W        W25838   8.921  18.771   4.862 -0.0332 -0.3473 -0.2830
82922W        W25839   9.613  19.663   7.467  0.4697  0.0269  0.0285
82923W        W25840   8.546  23.011   4.332 -0.1117 -0.0112  0.1551
82924W        W25841   9.861  18.402   4.786 -0.3771 -0.4072 -0.2385
82925W        W25842   8.497  22.386   6.106  0.1427 -0.0320  0.0585
82926W        W25843   9.178  22.367   6.174  0.2653  0.0701 -0.0649
82927W        W25844   9.428  21.542   6.223  0.0344 -0.0892  0.2730
82928W        W25845   9.388  20.736   6.315  0.1152 -0.0162 -0.0896
82929W        W25846  10.565  21.108   4.802 -0.1502  0.0435 -0.0960
82930W        W25847   8.342  21.102   5.657  0.0794  0.1808  0.2143
82931W        W25848  10.315  20.774   6.800 -0.2900 -0.1303 -0.0573
82932W        W25849   9.887  23.834   6.018 -0.1761  0.2266  0.3366
82933W        W25850  10.328  21.906   7.711  0.0272 -0.0072  0.0403
82934W        W25851  11.088  22.175   4.871  0.0949 -0.3550 -0.1633
82935W        W25852   8.030  21.463   3.203 -0.3452  0.1189 -0.1842
82936W        W25853   7.176  18.971   6.989  0.0650  0.0031 -0.0820
82937W        W25854  10.437  20.286   9.651  0.0900 -0.0102  0.0735
82938W        W25855   9.575  20.503   4.700  0.0684  0.2913  0.0809
82939W        W25856   8.358  17.585   4.136  0.3822 -0.0394 -0.1653
82940W        W25857   9.940  23.611   3.528 -0.0423  0.2368  0.2249
82941W        W25858   8.199  22.374   6.610  0.3212 -0.1250  0.0291
82942W        W25859   6.450  20.519   6.875 -0.1884 -0.0037  0.0782
82943W        W25860   6.935  21.671   4.285 -0.0635 -0.1516  0.0663
82944W        W25861  10.527  21.331   3.740 -0.1992 -0.3854  0.0435
82945W        W25862   9.919  22.151   5.467  0.0253 -0.2221 -0.1530
82946W        W25863  10.115  22.433   8.189 -0.0268  0.1883  0.2260
82947W        W25864  11.689  21.339   6.169 -0.0559 -0.5575 -0.0351
82948W        W25865   8.661  21.410   5.205 -0.0737 -0.0920 -0.1638
82949W        W25866   7.829  21.584   2.770  0.2380 -0.0462  0.0912
82950W        W25867   9.700  21.672   3.922  0.2245  0.1731 -0.0783
82951W        W25868   8.399  22.588   5.616  0.0868 -0.2144 -0.2194
82952W        W25869  11.312  22.149   6.696 -0.0095 -0.2643  0.2792
82953W        W25870  10.102  17.060   3.802 -0.3065 -0.1750  0.0010
82954W        W25871   9.810  21.865   2.960 -0.2447 -0.0490 -0.0816
82955W        W25872   8.525  19.689   4.429 -0.0669  0.2491  0.0699
82956W        W25873   9.420  20.560   7.370  0.2259 -0.5235  0.0010
82957W        W25874   8.521  19.815   5.954 -0.1721  0.0861  0.1951
82958W        W25875   8.803  18.086   4.848  0.2423 -0.2114  0.2225
82959W        W25876   7.423  21.996   6.729  0.2154 -0.0990  0.0509
82960W        W25877  11.316  20.671   6.528 -0.1165  0.2563  0.1513
82961W        W25878   8.499  21.597   7.620 -0.0053 -0.0216  0.1865
82962W        W25879  10.739  21.166   6.044 -0.1826 -0.2095 -0.2834
82963W        W25880   6.671  18.826   6.326 -0.0664  0.4891 -0.2882
82964W        W25881   7.461  21.438   6.963 -0.1110  0.4204  0.0899
82965W        W25882  10.925  19.159   6.452  0.1093  0.1650  0.2846
82966W        W25883   9.360  20.538   4.220 -0.0855 -0.1237 -0.0591
82967W        W25884   9.336  21.143   6.640 -0.2770 -0.1136  0.0477
82968W        W25885   9.184  22.302   5.457  0.1097 -0.1402  0.0362
82969W        W25886   8.810  20.664   4.254 -0.0768  0.0921 -0.2829
82970W        W25887   9.752  23.618   4.670  0.0837 -0.1316 -0.0649
82971W        W25888   6.457  18.635   2.520  0.0811 -0.2525 -0.0713
82972W        W25889   9.124  21.580   5.672  0.0764 -0.0585 -0.0152
82973W        W25890   8.561  20.036   6.537  0.2194 -0.4533 -0.2216
82974W        W25891  10.497  18.771   6.170  0.0822  0.1043 -0.0969
82975W        W25892   8.850  20.119   4.828 -0.0194  0.2293 -0.0933
82976W        W25893  10.653  20.639   4.640 -0.0077 -0.2825 -0.2250
82977W        W25894   9.714  20.895   4.361  0.0641 -0.0968  0.1291
82978W        W25895   7.119  18.857   6.538 -0.1088 -0.0039  0.2154
82979W        W25896   8.495  17.349   3.672  0.0693  0.0983 -0.1787
82980W        W25897  11.344  21.547   7.053  0.2818  0.2371  0.0788
82981W        W25898  10.585  21.028   2.422 -0.3070 -0.1556  0.0885
82982W        W25899  11.515  23.022   7.736  0.1626  0.1037  0.1339
82983W        W25900   7.499  17.380   5.142  0.1827  0.0346  0.1490
82984W        W25901   7.911  19.637   2.934 -0.2635  0.4030  0.1348
82985W        W25902   7.800  21.217   4.995  0.0003  0.1017  0.2111
82986W        W25903   9.511  21.664   6.690 -0.0167  0.2654  0.2536
82987W        W25904   9.755  23.152   7.719 -0.1515  0.0286 -0.2874
82988W        W25905   8.776  18.941   5.286  0.0994  0.1029  0.2108
82989W        W25906  11.142  20.432   3.856  0.0695  0.4099  0.1747
82990W        W25907  10.753  22.460   5.891  0.1983 -0.1998 -0.0546
82991W        W25908   9.104  24.153   5.667  0.0551 -0.1261 -0.2816
82992W        W25909   9.411  21.481   7.359 -0.0894 -0.0908 -0.1110
82993W        W25910   9.748  24.169   5.518 -0.0097  0.1153  0.1205
82994W        W25911   8.234  20.206   5.736 -0.1845  0.0216 -0.3014
82995W        W25912  10.515  22.142   5.613  0.3007  0.1829  0.2415
82996W        W25913  10.442  20.284   6.620 -0.1607 -0.1380 -0.0497
82997W        W25914   9.042  19.386   6.074 -0.2310  0.0424 -0.1719
82998W        W25915   8.321  18.326   6.596 -0.2957 -0.2465  0.0420
82999W        W25916   7.888  20.326   4.162  0.0645 -0.1018 -0.2600
83000W        W25917   9.969  20.070   3.411 -0.0958 -0.0315  0.2291
83001W        W25918   8.840  20.193   5.864  0.4347  0.0569 -0.0576
83002W        W25919   7.658  22.160   0.527 -0.0530 -0.0868 -0.3859
83003W        W25920   9.852  18.546   7.268 -0.2914 -0.2800  0.1893
83004W        W25921   9.597  20.514   5.204 -0.0051 -0.0815 -0.0392
83005W        W25922   9.296  18.925   8.116  0.0882  0.2309  0.1456
83006W        W25923   9.493  19.782   3.489  0.1939 -0.1139  0.0864
83007W        W25924   9.514  21.424   5.278  0.0297 -0.0454  0.1183
83008W        W25925  10.582  22.149   4.570 -0.0464 -0.0477  0.3537
83009W        W25926   9.808  21.974   3.502 -0.3470  0.3957  0.0525
83010W        W25927  10.274  24.132   5.195 -0.2798  0.0684  0.0337
83011W        W25928  10.396  20.205   4.534 -0.1372  0.0729 -0.0341
83012W        W25929  10.452  21.657   4.843  0.1595 -0.0458 -0.0170
83013W        W25930   9.150  19.267   3.719  0.2185  0.2040 -0.1462
83014W        W25931  10.814  19.658   3.799  0.1293  0.0036 -0.2307
83015W        W25932  10.558  15.563   2.938 -0.0217  0.1539  0.0993
83016W        W25933   8.817  19.276   7.853 -0.0665 -0.0149 -0.0512
83017W        W25934   6.867  20.262   5.491 -0.0239 -0.1134  0.0849
83018W        W25935   7.005  19.892   4.288 -0.2677 -0.1204 -0.0277
83019W        W25936   8.594  21.893   7.205  0.0878  0.0678 -0.1266
83020W        W25937   9.927  18.344   8.527  0.1320  0.0690  0.0776
83021W        W25938   8.638  21.302   6.658 -0.2071 -0.1133 -0.2559
83022W        W25939   7.788  20.361   5.586 -0.2727 -0.3649 -0.1307
83023W        W25940   9.691  17.992   3.967 -0.2771  0.0542  0.1029
83024W        W25941  11.107  21.767   3.428  0.0741 -0.0778  0.0906
83025W        W25942   9.519  17.037   6.510  0.0720  0.1723 -0.0937
83026W        W25943   7.945  18.062   5.510  0.1560 -0.1395  0.4135
83027W        W25944  11.906  22.502   3.740  0.0014  0.1913 -0.1706
83028W        W25945  10.040  21.348   4.567  0.1690  0.1341 -0.1016
83029W        W25946   8.550  18.800   3.757 -0.1648  0.0786 -0.1155
83030W        W25947  10.212  21.259   7.472  0.0918  0.0239  0.0429
83031W        W25948   7.690  21.170   2.401 -0.0223 -0.0075  0.1107
83032W        W25949   9.638  20.791   8.450  0.3366  0.3194  0.1163
83033W        W25950   9.125  18.845   7.675  0.1905  0.1349  0.0592
83034W        W25951   6.706  18.765   2.943 -0.3173 -0.0755 -0.2300
83035W        W25952  11.286  21.630   3.953  0.2744  0.2522 -0.1331
83036W        W25953   7.977  21.940   3.194 -0.1851  0.3979 -0.2441
83037W        W25954   8.437  22.213   4.564  0.5031 -0.0074  0.1971
83038W        W25955   8.748  19.848   7.005  0.0787 -0.1428 -0.0829
83039W        W25956  10.763  22.945   9.475 -0.0886  0.2236  0.1704
83040W        W25957   8.487  17.808   6.629  0.2315  0.2979  0.0483
83041W        W25958   8.030  21.989   5.333 -0.0164 -0.0999  0.0178
83042W        W25959  10.505  19.930   7.602  0.2528 -0.0099  0.2823
83043W        W25960  11.642  22.252   3.041 -0.1323 -0.1803 -0.3804
83044W        W25961  11.811  19.834   6.549 -0.0840 -0.0231 -0.0209
83045W        W25962  10.409  19.337   3.674  0.2690  0.0407 -0.2344
83046W        W25963   9.667  17.050   8.957 -0.1487  0.2222  0.0071
83047W        W25964   8.143  21.605   7.083  0.0134 -0.3577 -0.0196
83048W        W25965  10.970  23.454   4.374  0.2977 -0.0777 -0.1449
83049W        W25966   7.682  19.873   5.433  0.0117  0.1157  0.2411
83050W        W25967  10.036  20.705   5.200 -0.1111  0.1181  0.0596
83051W        W25968   9.278  22.714   5.255 -0.3877  0.1099  0.1473
83052W        W25969  10.019  19.791   4.836  0.2669 -0.1388 -0.2026
83053W        W25970   9.398  20.798   3.485  0.3161  0.1804  0.0190
83054W        W25971  11.274  19.096   3.745 -0.1696 -0.0491  0.2667
83055W        W25972   9.609  22.387   5.123 -0.2605 -0.1322  0.0370
83056W        W25973  11.747  20.435   6.518 -0.4053 -0.2242 -0.2066
83057W        W25974   8.139  20.444   3.445 -0.1873  0.1230 -0.0692
83058W        W25975  10.981  22.234   5.509 -0.3858  0.0151 -0.3092
83059W        W25976   8.261  23.618   8.659 -0.0610  0.0855 -0.0096
83060W        W25977  10.615  22.969   8.032 -0.3036  0.0937 -0.1281
83061W        W25978  10.893  23.829   6.975 -0.2616  0.0198 -0.2378
83062W        W25979  11.269  21.480   5.743  0.1174 -0.3327 -0.1012
83063W        W25980   8.304  18.605   7.117  0.2216  0.0703 -0.2136
83064W        W25981   8.423  21.617   4.434 -0.0142  0.1888 -0.1633
83065W        W25982  10.234  20.281   4.058  0.0780 -0.1900 -0.1033
83066W        W25983   9.207  20.758   5.865 -0.1377 -0.0448  0.2294
83067W        W25984   9.557  19.654   5.044 -0.1872  0.2894  0.1899
83068W        W25985   8.415  20.262   3.889 -0.2302 -0.1072 -0.1804
83069W        W25986   9.034  21.267   6.146 -0.1377  0.1956  0.0580
83070W        W25987  10.163  20.839   4.683  0.0217 -0.0606  0.3183
83071W        W25988   8.684  21.441   9.890  0.0843 -0.1425 -0.0621
83072W        W25989   8.033  18.304   9.536 -0.1526  0.1685  0.2516
83073W        W25990   9.000  17.132   6.599  0.2631 -0.0589  0.0569
83074W        W25991  12.135  18.329   7.957  0.0033  0.2176 -0.0239
83075W        W25992   5.607  17.934   9.051  0.4448  0.0179  0.2761
83076W        W25993   9.856  21.933   7.961  0.0638 -0.1525  0.0156
83077W        W25994  10.878  20.398   7.658  0.1371 -0.1458 -0.3074
83078W        W25995  11.138  22.349  10.051  0.0997  0.1353 -0.1701
83079W        W25996  11.858  20.715   7.484 -0.0573 -0.0383 -0.2191
83080W        W25997  12.045  18.564  10.288 -0.1284  0.1984  0.1135
83081W        W25998   9.166  18.619   6.625 -0.3109  0.0071  0.0127
83082W        W25999   8.115  15.705   9.569  0.2505  0.2140 -0.1785
83083W        W26000  10.904  22.466   8.586 -0.0743 -0.1862  0.0725
83084W        W26001   7.788  21.036   7.728 -0.2894  0.2700  0.0059
83085W        W26002   8.737  19.991   9.061 -0.1781  0.1673 -0.0607
83086W        W26003  11.152  21.969   7.672 -0.2753  0.0598 -0.2809
83087W        W26004   9.275  23.176   7.695  0.1057  0.1311  0.0882
83088W        W26005  12.189  15.867  10.567 -0.2911  0.2670  0.0468
83089W        W26006   8.340  22.477   7.373  0.0341  0.4314 -0.0143
83090W        W26007   6.824  17.833   8.591  0.0557 -0.0481  0.4705
83091W        W26008   8.688  21.985   9.884 -0.0557  0.4294  0.2271
83092W        W26009   6.099  20.555   9.445 -0.3197 -0.2231  0.1864
83093W        W26010   9.895  20.923  10.036 -0.0882 -0.1591  0.1980
83094W        W26011  11.064  21.642   9.745  0.0969  0.2234 -0.1749
83095W        W26012  10.569  22.413   9.385  0.1559 -0.2690  0.3420
83096W        W26013  12.003  19.315   8.622  0.0286 -0.1437 -0.2586
83097W        W26014   9.007  22.376   9.801  0.0319 -0.0549  0.3447
83098W        W26015   7.771  21.392  10.031  0.0847 -0.1354  0.0487
83099W        W26016   8.514  23.410  10.010 -0.2116 -0.1424  0.2103
83100W        W26017  11.744  23.008   6.245 -0.1161  0.0126 -0.2231
83101W        W26018   8.409  19.995   8.667  0.0100 -0.1502  0.0430
83102W        W26019   7.700  20.113   7.818 -0.0365 -0.0617  0.3428
83103W        W26020  10.282  19.599   8.531 -0.1288  0.4731 -0.2710
83104W        W26021   7.804  19.537   9.207 -0.1592  0.0325  0.1359
83105W        W26022  10.341  20.350   7.295  0.0850 -0.1525 -0.2699
83106W        W26023   8.147  22.295   9.813 -0.1363 -0.0867  0.3383
83107W        W26024   8.482  22.804   8.413  0.0551 -0.4664  0.1243
83108W        W26025  11.513  19.125   8.486  0.0877 -0.1235 -0.0204
83109W        W26026   8.089  19.816   7.764 -0.1898  0.1235 -0.0785
83110W        W26027  11.240  19.011   7.955 -0.1867  0.0251  0.1391
83111W        W26028   6.067  17.220   8.981  0.0678  0.2082 -0.1173
83112W        W26029   7.761  20.538   9.298  0.2408  0.2255 -0.0944
83113W        W26030   8.879  17.726   9.727  0.0983  0.2962 -0.1813
83114W        W26031   9.939  19.672   9.008  0.0017 -0.4806  0.0373
83115W        W26032   9.888  16.755   9.317 -0.1249 -0.0547  0.2248
83116W        W26033   5.638  23.622   9.402  0.0615  0.0476  0.1028
83117W        W26034   7.824  19.760   7.343  0.1518  0.1307  0.1531
83118W        W26035  10.693  22.650   7.311  0.0818 -0.0079  0.1172
83119W        W26036  13.518  22.523   8.776 -0.1375  0.1462  0.1642
83120W        W26037  10.222  21.902   8.324  0.3492 -0.4380  0.0424
83121W        W26038   8.312  20.503   8.622  0.0627 -0.1966  0.1301
83122W        W26039   9.059  16.849   8.679  0.2610  0.2537 -0.1983
83123W        W26040  11.162  19.996   9.347 -0.1510 -0.0250  0.0064
83124W        W26041   9.259  21.610   8.968  0.1393  0.0300  0.3476
83125W        W26042  12.785  24.731   9.498  0.1479 -0.0020  0.0819
83126W        W26043   9.270  20.851   9.294  0.1040  0.1231  0.2420
83127W        W26044   8.191  17.937   8.976  0.2977 -0.1474 -0.0593
83128W        W26045  10.022  20.022   8.161  0.1807 -0.3011 -0.1243
83129W        W26046   8.741  20.490   8.913  0.1826  0.2085  0.1365
83130W        W26047   9.228  22.653   8.931 -0.0213  0.1471 -0.0801
83131W        W26048  12.088  20.173   7.779 -0.3687  0.1283  0.4864
83132W        W26049   9.824  19.565   7.926  0.0762 -0.0108 -0.1073
83133W        W26050   7.304  20.898   9.027 -0.0636 -0.0154 -0.2127
83134W        W26051   9.258  21.263   7.755  0.1843  0.2735  0.0913
83135W        W26052   9.162  20.356   9.200  0.2248  0.1115 -0.0330
83136W        W26053   8.504  21.253   8.378 -0.2127 -0.0574  0.1554
83137W        W26054   8.323  21.293   9.295  0.0277 -0.1891  0.0177
83138W        W26055  10.883  22.109   9.630  0.0366  0.2994  0.1280
83139W        W26056  10.488  20.723   8.049 -0.0178 -0.1463 -0.0895
83140W        W26057  12.326  18.802  10.683  0.0722 -0.1399  0.4197
83141W        W26058   7.949  20.929   9.079 -0.0933 -0.1555  0.0028
83142W        W26059  10.767  21.640   7.559  0.0411  0.0335 -0.1830
83143W        W26060  12.060  18.504   9.365 -0.0525 -0.0736  0.1426
83144W        W26061  10.371  22.362   7.747  0.2334  0.1325  0.0216
83145W        W26062   9.467  21.204  10.061 -0.2535 -0.1867 -0.2339
83146W        W26063   7.229  20.027   8.312  0.0376  0.0066  0.0410
83147W        W26064   9.174  20.962   9.791 -0.0387 -0.0201  0.1892
83148W        W26065   8.821  18.681   8.152  0.1347 -0.1979  0.1810
83149W        W26066   9.938  21.324   5.927  0.4301 -0.1061 -0.0617
83150W        W26067   8.684  17.653   9.213  0.0497 -0.0607  0.0457
83151W        W26068   5.816  22.986   8.699 -0.1734 -0.0075  0.6799
83152W        W26069  10.589  21.228   9.388 -0.1812 -0.2268  0.3478
83153W        W26070  11.946  22.464   8.357  0.2686 -0.0937 -0.0319
83154W        W26071  12.747  20.506  10.671 -0.1302 -0.0203  0.1398
83155W        W26072  10.226  20.243   9.181  0.0903 -0.0390 -0.2554
83156W        W26073   7.768  19.364   7.718  0.1985  0.2267 -0.0789
83157W        W26074  10.398  22.432  10.200  0.0381 -0.1171  0.1749
83158W        W26075   9.687  22.010   9.424 -0.1617  0.3037  0.0253
83159W        W26076   9.121  16.566   7.893 -0.0650  0.1607  0.3198
83160W        W26077  11.473  22.365   8.605 -0.1669 -0.0261 -0.1093
83161W        W26078   9.174  20.631   8.765  0.4933 -0.2820  0.1114
83162W        W26079  12.051  20.734   9.651  0.2516  0.1131 -0.0150
83163W        W26080  10.989  18.788   9.005 -0.1536  0.0929 -0.1368
83164W        W26081   9.597  17.724   8.754  0.1770 -0.0318 -0.0163
83165W        W26082  12.135  21.662   8.221  0.1187  0.3835  0.4316
83166W        W26083   9.760  22.227   7.404  0.0686  0.0685 -0.1955
83167W        W26084   8.524  20.285   7.948 -0.1766 -0.1203  0.0126
83168W        W26085  11.762  21.780   9.590 -0.0433  0.0139  0.1709
83169W        W26086  10.844  16.938   9.192  0.0413  0.0770  0.2110
83170W        W26087   7.810  19.396   5.200 -0.1251 -0.1489 -0.0184
83171W        W26088  10.561  18.069   9.477  0.2306  0.1402  0.2506
83172W        W26089  10.378  18.579   7.071 -0.1221  0.1499 -0.2595
83173W        W26090  12.666  20.353   7.408 -0.2244 -0.1581  0.2043
83174W        W26091  10.381  19.157   8.188 -0.3113  0.3597  0.3426
83175W        W26092   8.391  19.400   6.908 -0.0109  0.1994 -0.3721
83176W        W26093   9.263  22.475   7.035 -0.3473  0.1683  0.1282
83177W        W26094  11.155  21.798   8.191  0.2348 -0.0442 -0.1048
83178W        W26095   8.793  19.643   8.696  0.1880 -0.1871 -0.4003
83179W        W26096  11.405  20.185   8.858  0.0991  0.3231  0.0205
83180W        W26097   9.585  22.382   9.838  0.3774 -0.3311 -0.0922
83181W        W26098  11.446  21.045   8.207 -0.2997 -0.1269 -0.1914
83182W        W26099  10.960  15.797  11.486  0.0046 -0.0495 -0.1699
83183W        W26100   8.330  19.400   7.763  0.0152 -0.2644 -0.1457
83184W        W26101  10.004  17.560   9.065 -0.0692  0.1885 -0.0464
83185W        W26102   7.545  22.705   6.524 -0.1855  0.1240  0.0667
83186W        W26103   9.958  21.981   6.897  0.1833 -0.0404 -0.0161
83187W        W26104   9.312  17.552   9.705 -0.2290 -0.0542 -0.1308
83188W        W26105  11.921  20.635   6.921 -0.2693  0.0017 -0.0702
83189W        W26106  12.034  21.426   8.770 -0.1262  0.1591 -0.1565
83190W        W26107   9.751  19.735   8.541  0.0982 -0.1122 -0.1577
83191W        W26108  10.886  17.002  10.045 -0.0088 -0.1748 -0.1417
83192W        W26109   9.786  19.051   9.120  0.0646 -0.1753 -0.0744
83193W        W26110  11.719  19.933   9.350 -0.0751 -0.0228  0.1765
83194W        W26111   8.409  18.166   8.256  0.0692 -0.2946  0.0535
83195W        W26112   7.850  22.416   7.393 -0.0382 -0.2593  0.0541
83196W        W26113  10.012  20.682   7.702 -0.0612 -0.1261  0.0459
83197W        W26114   9.652  17.328   8.470 -0.1664  0.0377  0.0027
83198W        W26115   6.960  21.124   8.580 -0.0256 -0.0329 -0.1347
83199W        W26116   9.799  22.596   7.792  0.0720  0.2280  0.2074
83200W        W26117  11.756  23.399  11.387  0.1519 -0.0944  0.2362
83201W        W26118   6.883  21.896   9.380 -0.1293 -0.1049 -0.0679
83202W        W26119   8.113  16.814   8.508 -0.2896 -0.2602  0.0218
83203W        W26120  11.193  23.189   9.746 -0.4130  0.0279 -0.1092
83204W        W26121   8.312  17.795   9.563  0.2946  0.1592 -0.1138
83205W        W26122   7.414  19.700   9.482 -0.0552 -0.1419  0.0083
83206W        W26123  10.035  20.544   8.277  0.2338 -0.2029 -0.0786
83207W        W26124   8.857  20.828   6.438 -0.0198 -0.0638 -0.1164
83208W        W26125  12.326  20.971   8.624 -0.4770  0.0162  0.1295
83209W        W26126   7.496  18.162   9.695  0.1669 -0.0737 -0.3427
83210W        W26127   8.092  24.037   9.910 -0.0129  0.0549  0.1263
83211W        W26128  10.020  18.456   7.797 -0.1520 -0.2078 -0.2111
83212W        W26129   8.335  19.812   7.244 -0.2236  0.2236  0.0811
83213W        W26130  11.060  18.260  10.811 -0.3243  0.1499  0.2623
83214W        W26131   7.656  18.661   9.796  0.0541  0.3545  0.2550
83215W        W26132   8.615  23.092   8.800 -0.3869  0.0640 -0.0576
83216W        W26133  12.334  23.224  10.100 -0.0815 -0.1159  0.1093
83217W        W26134   8.736  20.655   7.175 -0.0436 -0.3383  0.4571
83218W        W26135   9.733  21.469   7.812  0.0097 -0.0034  0.2209
83219W        W26136   8.228  19.776   9.082 -0.0856  0.0853 -0.0523
83220W        W26137  10.255  16.416   9.831  0.1798 -0.2637 -0.0927
83221W        W26138   6.817  16.904   9.049  0.1246  0.3823  0.1336
83222W        W26139   8.207  16.274   7.651  0.2516 -0.0549 -0.0064
83223W        W26140   5.915  21.439   9.502 -0.0023 -0.0585 -0.0789
83224W        W26141   4.604  14.467   9.239 -0.0639 -0.0020  0.0797
83225W        W26142  10.480  18.275  10.295  0.2757  0.0372 -0.2628
83226W        W26143  10.097  22.685   7.414  0.0192 -0.4615 -0.1318
83227W        W26144   8.038  20.574   7.829  0.0755 -0.2507 -0.7041
83228W        W26145   7.417  19.883   8.966  0.2872 -0.1127 -0.0195
83229W        W26146   7.975  22.373   9.172  0.1420  0.1774  0.0218
83230W        W26147   9.419  19.293   9.376  0.4298 -0.1279 -0.4151
83231W        W26148   8.054  19.534   8.140  0.0325  0.2770  0.0162
83232W        W26149   8.823  22.033   8.074 -0.1656  0.0195 -0.1004
83233W        W26150  10.279  22.811   9.262  0.1633 -0.1200  0.0088
83234W        W26151  11.509  17.429   9.178 -0.1529 -0.3774  0.2582
83235W        W26152   8.963  21.451   8.530 -0.0816  0.1334  0.1696
83236W        W26153   8.190  19.993   8.224  0.1825 -0.3556 -0.0983
83237W        W26154   8.329  20.839   8.197  0.1311  0.2407  0.0038
83238W        W26155   7.178  17.704   9.151 -0.2482 -0.2597  0.0240
83239W        W26156   9.970  21.230   9.104  0.1409  0.3191  0.1923
83240W        W26157   9.410  18.298   8.580 -0.2189  0.3426  0.0365
83241W        W26158   8.474  16.370   6.101  0.0119 -0.0084 -0.1496
83242W        W26159  10.118  22.429   8.966  0.1581 -0.1195 -0.1796
83243W        W26160  10.278  19.819   6.523  0.1034  0.0927  0.1012
83244W        W26161   9.047  20.921   7.444  0.0871  0.2604 -0.1873
83245W        W26162  11.926  15.444   9.988 -0.1031  0.0260 -0.1499
83246W        W26163  12.231  21.983   9.637  0.0024  0.0112  0.3320
83247W        W26164  10.794  18.306   9.902  0.0078 -0.0052  0.1124
83248W        W26165   8.402  19.208   9.642 -0.2249 -0.0193 -0.0264
83249W        W26166   9.261  20.416   8.224 -0.0869 -0.1959  0.2946
83250W        W26167  11.400  20.286   7.972  0.1206 -0.0994  0.1549
83251W        W26168  10.363  18.726   9.098  0.0598  0.0181 -0.0661
83252W        W26169  11.279  24.625  10.143  0.3441  0.3191  0.0853
83253W        W26170  10.403  21.698   5.879  0.2494 -0.0876  0.0546
83254W        W26171  13.426  18.890  11.191  0.0760 -0.1011  0.0163
83255W        W26172  12.213  18.890   8.411  0.1918  0.2025 -0.1092
83256W        W26173   8.936  21.046   6.966  0.0443 -0.1496  0.0887
83257W        W26174   7.736  20.183   8.303 -0.4194  0.3053  0.1700
83258W        W26175  10.069  20.288   6.912 -0.2157 -0.2465 -0.2104
83259W        W26176   9.111  21.999   8.593 -0.2963 -0.2468  0.0752
83260W        W26177  10.413  20.224   7.975  0.1605  0.0973  0.3652
83261W        W26178  11.121  21.364   8.522  0.1402 -0.0212  0.0331
83262W        W26179   8.490  17.920   7.772  0.2077 -0.2773 -0.0943
83263W        W26180   9.106  19.681   7.641 -0.0815  0.0959 -0.0700
83264W        W26181  10.511  19.372   9.775 -0.1756  0.0961 -0.1219
83265W        W26182  11.389  21.398   9.438  0.0114 -0.1428 -0.0901
83266W        W26183  11.632  18.511   9.818 -0.0703  0.4339 -0.1304
83267W        W26184   7.933  22.871   7.569 -0.0609 -0.0552 -0.1367
83268W        W26185  10.818  17.057   8.594  0.3142  0.2492 -0.0461
83269W        W26186  10.085  23.700   9.523  0.0485 -0.0429  0.1479
83270W        W26187  12.448  21.091   8.114  0.0039  0.1599  0.0898
83271W        W26188  14.712  19.442  10.479 -0.0265  0.1485  0.0197
83272W        W26189   8.326  21.180   9.757 -0.1159  0.2533  0.2303
83273W        W26190  10.715  19.923   9.505  0.1470 -0.0248  0.2683
83274W        W26191   9.261  21.130   8.758 -0.0191  0.4134 -0.0481
83275W        W26192  13.181  21.434  10.233 -0.1805  0.0812 -0.1979
83276W        W26193   7.728  21.029   8.604  0.0915  0.0475 -0.0822
83277W        W26194   9.709  21.295   8.674  0.0889  0.0955 -0.1375
83278W        W26195   8.896  18.273   8.465 -0.0464  0.0969 -0.0387
83279W        W26196  11.988  19.699   6.958  0.0613  0.0305 -0.1957
83280W        W26197   8.940  21.839   7.566 -0.0304 -0.0040 -0.0992
83281W        W26198   7.732  24.071  10.651 -0.0573 -0.1058  0.0401
83282W        W26199  10.901  22.453   7.703  0.0673  0.0637 -0.1998
83283W        W26200  10.405  19.250   7.669  0.0566  0.2400 -0.1973
83284W        W26201  10.239  21.535   9.360  0.0986  0.2461  0.2444
83285W        W26202   9.572  20.543   9.387  0.2038 -0.0121 -0.1634
83286W        W26203   9.110  23.211   8.941  0.1892  0.1702  0.2159
83287W        W26204   6.406  20.487   7.418 -0.1201 -0.2373  0.0059
83288W        W26205   9.367  22.291   7.907 -0.0950  0.0575 -0.0087
83289W        W26206   7.584  23.090   9.057 -0.2364  0.0193  0.2216
83290W        W26207   9.781  19.905   6.723  0.1252  0.0007  0.1739
83291W        W26208  11.418  19.926   9.775 -0.0570 -0.2123  0.6704
83292W        W26209  11.901  19.339   9.624 -0.0591  0.2480 -0.1216
83293W        W26210  11.435  19.489   9.515 -0.0035 -0.2009 -0.0088
83294W        W26211   7.825  17.197   6.626  0.1549 -0.1580 -0.0243
83295W        W26212  11.087  21.331   7.986  0.0567 -0.4053  0.3759
83296W        W26213   8.962  20.471   7.675  0.2051 -0.0356 -0.1393
83297W        W26214   8.116  20.052   9.586 -0.1262 -0.1161  0.3926
83298W        W26215  12.213  16.854  10.138 -0.3083 -0.2005 -0.1170
83299W        W26216  10.213  21.280   8.434 -0.2987 -0.1084 -0.1327
83300W        W26217   9.349  18.712   9.159 -0.2482  0.1986 -0.4804
83301W        W26218   7.967  23.972   9.394 -0.0376  0.1844 -0.0115
83302W        W26219  10.224  23.402   7.842 -0.2617 -0.2932 -0.0130
83303W        W26220  10.205  23.448   9.045 -0.0321  0.1472  0.1217
83304W        W26221   9.595  18.837   8.591  0.2179 -0.0781  0.1253
83305W        W26222  11.677  20.405   9.268  0.0982 -0.0118 -0.0256
83306W        W26223   9.251  22.787  10.075 -0.0171  0.2287  0.0289
83307W        W26224   8.926  19.241   8.404  0.1714 -0.4203  0.3287
83308W        W26225  11.894  20.291   8.331  0.1425 -0.3392 -0.0619
83309W        W26226  11.601  22.046   9.976 -0.1047 -0.0122 -0.0515
83310W        W26227   7.667  18.632   9.279 -0.0231 -0.1974  0.1742
83311W        W26228   9.038  20.190   8.705 -0.1565  0.3578  0.1447
83312W        W26229   8.430  21.670   5.655  0.0288  0.0294  0.0848
83313W        W26230   5.678  19.142   8.703 -0.0874 -0.0625 -0.1853
83314W        W26231   9.917  19.270   8.380  0.0898  0.0844  0.3660
83315W        W26232   8.511  18.339   9.259  0.4123  0.2225 -0.0169
83316W        W26233   9.994  22.437   9.513  0.0427 -0.0116 -0.0078
83317W        W26234  10.074  17.830   7.823  0.3024  0.0882  0.2130
83318W        W26235  11.615  20.540   8.656 -0.0004  0.0093 -0.1932
83319W        W26236   9.182  18.738   9.668 -0.1538 -0.1406 -0.0001
83320W        W26237   8.741  22.067   8.919  0.1101 -0.0513 -0.0518
83321W        W26238   8.539  18.953   8.662  0.0063  0.1461 -0.0210
83322W        W26239   9.174  22.670   7.652 -0.3439 -0.1933  0.0685
83323W        W26240   6.384  21.010   9.498  0.2130 -0.2745  0.1983
83324W        W26241  13.403  23.976   9.522 -0.0611  0.0187 -0.0259
83325W        W26242   9.516  18.142   9.029 -0.2528 -0.0211 -0.0868
83326W        W26243   8.737  17.778   8.268 -0.0939  0.2362 -0.3866
83327W        W26244   8.725  20.824   9.873 -0.2473 -0.3343  0.1739
83328W        W26245   8.256  21.677   9.654 -0.0480 -0.0915 -0.4559
83329W        W26246  12.190  18.017  10.244 -0.0740 -0.0845 -0.0947
83330W        W26247   8.756  22.258   6.522 -0.3389 -0.0951  0.2087
83331W        W26248  12.588  20.265  11.706  0.0444  0.1042 -0.0220
83332W        W26249   7.934  18.669   5.811 -0.4305 -0.0257 -0.0859
83333W        W26250   7.093  23.181   9.831 -0.0079 -0.1508 -0.3020
83334W        W26251   9.050  22.949   8.539  0.2038 -0.2043 -0.1315
83335W        W26252  10.725  21.723   9.323 -0.0881  0.1694 -0.1834
83336W        W26253   8.982  19.616   9.533 -0.1387  0.4379  0.4176
83337W        W26254  13.090  22.309   8.509 -0.1153  0.2699  0.0391
83338W        W26255  11.014  19.628   9.824  0.1401  0.0364  0.0846
83339W        W26256  10.324  18.297   8.744 -0.1644  0.0392  0.1187
83340W        W26257  10.874  19.139   7.458 -0.0163  0.2531 -0.0011
83341W        W26258   4.134  17.199  10.157 -0.1466 -0.2393 -0.1775
83342W        W26259   9.098  17.368   8.412  0.0288 -0.3075 -0.3212
83343W        W26260   8.239  21.064   8.721  0.1678  0.0267  0.1782
83344W        W26261   8.827  22.929   9.766  0.0644 -0.0287 -0.0775
83345W        W26262   5.679  22.277   9.132 -0.0057  0.1171 -0.2120
83346W        W26263   9.376  20.757   7.860  0.1246 -0.0823  0.2559
83347W        W26264   9.958  20.675   7.177 -0.1450  0.1676 -0.2026
83348W        W26265   9.861  19.597   9.505 -0.1605 -0.1073  0.0560
83349W        W26266   6.387  19.463   9.354 -0.0406 -0.2511  0.1689
83350W        W26267  10.359  22.528   6.729 -0.2538 -0.1499 -0.0263
83351W        W26268  11.880  21.168   8.253  0.1437 -0.0659 -0.0863
83352W        W26269   7.894  18.342   8.972  0.3678 -0.0812 -0.0266
83353W        W26270   7.818  21.545   7.555  0.1261 -0.0373  0.0181
83354W        W26271   8.271  18.777   9.344 -0.1258 -0.0906  0.0435
83355W        W26272   9.708  17.739   8.247 -0.0228 -0.0609 -0.0936
83356W        W26273  10.650  21.582   8.105 -0.0419 -0.0748  0.0131
83357W        W26274  12.326  23.753   6.514 -0.0407 -0.1747 -0.1327
83358W        W26275   7.536  19.675   8.113 -0.1043 -0.1969  0.1276
83359W        W26276   9.672  20.371   7.947  0.2024  0.0688  0.3741
83360W        W26277  10.557  21.081   7.133 -0.3979 -0.0149  0.2427
83361W        W26278  10.573  19.614   8.913 -0.1339 -0.1664 -0.0160
83362W        W26279  10.152  20.583   8.773 -0.1821 -0.0227 -0.0942
83363W        W26280  11.577  21.537   8.368  0.0779  0.0186 -0.1226
83364W        W26281   9.948  15.904   8.806  0.0392 -0.1263  0.1366
83365W        W26282  11.339  18.980   6.745  0.1834 -0.1910  0.2349
83366W        W26283   9.682  22.636   8.534  0.2794  0.1897 -0.0073
83367W        W26284   7.949  18.313   8.466  0.1957  0.3151 -0.1554
83368W        W26285  11.042  19.270   8.812  0.2721 -0.1192 -0.1995
83369W        W26286   8.789  21.162   9.418 -0.0840  0.0450 -0.1857
83370W        W26287   9.053  20.352   6.329 -0.3368  0.1752  0.0550
83371W        W26288   9.711  20.226   8.505 -0.0372  0.0282 -0.0147
83372W        W26289   9.599  23.581   9.591 -0.1221  0.0201 -0.0631
83373W        W26290   8.667  21.436   8.945  0.1055  0.1667  0.0200
83374W        W26291   9.074  21.001   8.242 -0.2656  0.0160  0.2202
83375W        W26292   8.186  18.740   9.850 -0.3014  0.1091  0.0663
83376W        W26293   7.891  19.755   8.688  0.0637 -0.3210 -0.2898
83377W        W26294   8.899  20.360  10.185 -0.1253 -0.0936  0.1939
83378W        W26295   5.554  21.427   9.150  0.1698 -0.0155  0.0363
83379W        W26296   9.035  21.205  10.193 -0.0487 -0.0359 -0.0617
83380W        W26297  10.804  19.286   7.930  0.0218  0.0459  0.2043
83381W        W26298   7.836  17.265   8.253 -0.2241 -0.0015  0.4569
83382W        W26299   9.651  21.709  10.106  0.2676 -0.1096 -0.4249
83383W        W26300   7.799  23.715   4.214 -0.0230 -0.0392  0.0797
83384W        W26301   8.789  23.214   1.718 -0.2065 -0.1312 -0.0615
83385W        W26302   9.718  21.486  29.349  0.0594 -0.2666 -0.2562
83386W        W26303  10.373  24.535   0.606  0.2775 -0.1201  0.0686
83387W        W26304   7.867  23.916  31.848  0.2475 -0.3022  0.1477
83388W        W26305   9.150  24.788   1.842  0.2052  0.1058 -0.0178
83389W        W26306   7.989  21.156   3.790 -0.1539  0.0269  0.2561
83390W        W26307  10.043  23.658   1.566 -0.3360 -0.1803 -0.0750
83391W        W26308  10.918  25.151   1.057  0.2963 -0.2169  0.1888
83392W        W26309  11.188  24.197   1.026 -0.3124 -0.0380 -0.0522
83393W        W26310   9.538  23.010   1.064 -0.4677  0.3442  0.0616
83394W        W26311   8.330  27.224   3.132 -0.0107 -0.0758 -0.2083
83395W        W26312   9.103  22.942   0.808  0.0701  0.1398 -0.0678
83396W        W26313   8.165  21.174   2.687 -0.0743 -0.3650 -0.1264
83397W        W26314  11.188  24.625   1.229 -0.1542 -0.5583  0.0237
83398W        W26315   8.240  23.543   1.732 -0.0146  0.1312 -0.0943
83399W        W26316   7.870  22.248   2.462 -0.0506  0.2979  0.3503
83400W        W26317   8.217  24.895   1.429  0.2991  0.0959 -0.2497
83401W        W26318   7.927  24.841   0.655  0.0049  0.1025 -0.3207
83402W        W26319   7.392  23.190   2.582 -0.2578 -0.1328  0.1161
83403W        W26320   9.890  22.796   2.765 -0.1262  0.2441 -0.1435
83404W        W26321   7.958  24.655   1.094  0.0136 -0.1499 -0.3400
83405W        W26322   8.896  21.789   0.384  0.0114 -0.2299 -0.1957
83406W        W26323   8.676  23.065   1.149  0.0075  0.4014 -0.0315
83407W        W26324   7.857  23.948   5.373  0.0825  0.3306  0.1421
83408W        W26325  11.076  22.503   0.385 -0.3475  0.0234 -0.0706
83409W        W26326   8.392  22.567   0.126  0.0380 -0.1091  0.0418
83410W        W26327   8.241  24.646   1.979 -0.2384 -0.0702  0.3720
83411W        W26328   8.582  24.355   2.203 -0.3687  0.2016  0.2721
83412W        W26329  11.569  24.982   4.355  0.0093 -0.0836 -0.0399
83413W        W26330  10.179  23.761   3.036 -0.1053 -0.0557 -0.3311
83414W        W26331   7.081  25.301   3.003 -0.3403  0.2544  0.2064
83415W        W26332   8.027  24.290   1.405 -0.1119  0.1602 -0.1268
83416W        W26333   9.102  23.705   1.435 -0.0271  0.0747  0.1375
83417W        W26334  10.836  25.892   1.435 -0.0668  0.3114  0.4153
83418W        W26335   7.525  25.361   5.642  0.0758  0.2554  0.0646
83419W        W26336   6.176  23.982   2.140  0.2000 -0.0692  0.1336
83420W        W26337   7.796  24.867   3.466 -0.1789  0.1799  0.0019
83421W        W26338   7.698  25.672   7.166  0.0717 -0.0424 -0.1519
83422W        W26339  10.547  23.222   1.513  0.0766  0.3315 -0.0134
83423W        W26340   7.899  24.720   2.685 -0.1790  0.1837  0.0439
83424W        W26341   9.263  25.698   0.165 -0.2680 -0.2360 -0.2046
83425W        W26342  10.746  25.956   3.082 -0.1628 -0.1372 -0.4599
83426W        W26343   8.860  23.274   3.991  0.0370  0.0214  0.1968
83427W        W26344   8.049  23.827   2.600 -0.0346  0.3032  0.0205
83428W        W26345  11.293  22.510   2.697  0.0197 -0.0219 -0.1570
83429W        W26346   7.643  25.338   0.714  0.0034  0.2974 -0.4032
83430W        W26347  10.448  23.013  31.863  0.0591  0.2010  0.2062
83431W        W26348   9.075  23.338  31.862 -0.0271  0.1581 -0.0700
83432W        W26349  10.371  21.914  31.784 -0.1342 -0.3403 -0.2102
83433W        W26350   9.952  21.689   1.389  0.0825  0.1101 -0.0324
83434W        W26351   7.885  25.097   3.017  0.0108  0.3128 -0.1370
83435W        W26352   9.696  23.193   4.070  0.2371 -0.1639 -0.1226
83436W        W26353  12.852  25.364   3.848 -0.3032  0.1601 -0.1130
83437W        W26354   9.439  22.518   1.338  0.1849  0.1744 -0.0507
83438W        W26355  11.299  24.027   2.070 -0.2503 -0.0013  0.1762
83439W        W26356   8.509  26.409   3.556  0.2979 -0.2485 -0.1156
83440W        W26357   9.473  22.393   3.550 -0.1400 -0.0648 -0.0450
83441W        W26358   9.562  25.709  31.452 -0.0940  0.1629 -0.1669
83442W        W26359  11.728  25.991   0.728 -0.1419 -0.0055 -0.1358
83443W        W26360   8.880  25.362  31.836  0.1311  0.2428 -0.1033
83444W        W26361   6.545  25.069   1.123 -0.1842 -0.2087 -0.2762
83445W        W26362   7.944  24.819   5.170 -0.1041  0.3287  0.0846
83446W        W26363   8.528  24.929   3.844 -0.1670  0.0146  0.2976
83447W        W26364   7.131  21.391   0.550 -0.2889  0.1402 -0.1563
83448W        W26365  12.460  25.665   3.866 -0.0050  0.0687  0.1707
83449W        W26366   8.806  24.835   4.503  0.0117 -0.0071 -0.0323
83450W        W26367  11.026  24.016   1.468  0.0442 -0.0092 -0.2805
83451W        W26368   9.673  25.360   1.169  0.2066  0.0408  0.1852
83452W        W26369   8.813  26.195   1.864  0.0238 -0.1278 -0.0918
83453W        W26370   9.437  25.323  31.866  0.1672 -0.1567 -0.1766
83454W        W26371   9.541  23.624   2.941  0.1536  0.0612 -0.1642
83455W        W26372   9.383  24.332   2.318 -0.0823 -0.1035  0.1555
83456W        W26373   7.412  21.952   1.877  0.1740  0.3667 -0.1744
83457W        W26374   7.330  24.788   0.790 -0.1948 -0.1394  0.1288
83458W        W26375   9.972  24.302   2.455  0.1354  0.0173  0.1591
83459W        W26376  11.030  23.772  30.798 -0.0255  0.1908  0.0835
83460W        W26377   6.963  26.645   2.657  0.0407  0.1159  0.0286
83461W        W26378  10.190  23.144   2.466 -0.0762 -0.2528 -0.0968
83462W        W26379   9.331  25.947   2.767  0.0012 -0.3007 -0.1228
83463W        W26380   8.418  25.565  31.732 -0.2740 -0.1491  0.2033
83464W        W26381   8.026  25.594   2.042  0.1263  0.2699 -0.1753
83465W        W26382   7.526  24.190  31.619 -0.0948 -0.1468  0.1773
83466W        W26383   9.099  23.737   2.766  0.1164 -0.2735 -0.0052
83467W        W26384   9.368  24.417   2.974 -0.0503  0.1928 -0.0332
83468W        W26385  11.398  20.413   1.446 -0.0400 -0.0065 -0.0458
83469W        W26386   9.469  23.144   2.795  0.3076 -0.1079  0.1086
83470W        W26387  11.043  21.257   1.442 -0.4133 -0.0513  0.0317
83471W        W26388   7.304  23.363   0.532  0.2688  0.1312 -0.5254
83472W        W26389  10.172  24.152  31.939 -0.0734 -0.1452  0.0257
83473W        W26390  10.922  22.969   1.358 -0.2352  0.1024  0.0982
83474W        W26391  10.751  24.536  30.306  0.0380  0.2730  0.2411
83475W        W26392   6.717  23.876   2.261 -0.1769  0.1429 -0.0670
83476W        W26393   7.544  23.860   0.687  0.0476  0.0144  0.1078
83477W        W26394  10.290  23.824   2.548  0.4780  0.2037 -0.0280
83478W        W26395   8.411  23.126   2.638 -0.1798  0.0022 -0.1983
83479W        W26396   9.318  23.519   2.384 -0.3124  0.1593 -0.0247
83480W        W26397   8.077  20.310   0.300  0.0702 -0.2982  0.0684
83481W        W26398   9.943  22.184  31.674  0.1030 -0.0220 -0.1487
83482W        W26399   8.713  23.370   0.267 -0.1399  0.2662 -0.0669
83483W        W26400   6.428  25.961   3.174  0.2179  0.2475  0.0252
83484W        W26401  11.091  20.794   2.419  0.3912  0.1349 -0.1170
83485W        W26402   8.543  23.436  31.636 -0.2124 -0.2064 -0.0636
83486W        W26403  11.912  26.025   1.619  0.0883  0.0537  0.0478
83487W        W26404  10.446  27.153   0.220  0.0539  0.0242 -0.1245
83488W        W26405  10.575  24.302   2.438 -0.6048 -0.1902 -0.0338
83489W        W26406   9.204  21.688   0.757  0.2190 -0.2390 -0.0351
83490W        W26407   7.763  26.988   0.852  0.3748 -0.0452 -0.0910
83491W        W26408  10.174  24.647   1.569  0.0830 -0.0816 -0.0300
83492W        W26409   8.792  21.435   0.048 -0.0258 -0.1345 -0.0643
83493W        W26410  11.984  23.385   2.328 -0.1902 -0.0055 -0.0057
83494W        W26411   8.777  23.755  30.719 -0.2659  0.1899  0.1089
83495W        W26412   7.315  24.622   2.269 -0.0257 -0.0090  0.0974
83496W        W26413   8.814  22.712   2.347  0.0483 -0.1767  0.2288
83497W        W26414  10.257  23.895   2.012  0.1872  0.2445 -0.3173
83498W        W26415  11.950  24.208   1.555 -0.1140  0.2036 -0.2631
83499W        W26416   6.137  21.239   0.436  0.0268  0.0026 -0.0461
83500W        W26417  10.455  25.687   3.406  0.0033  0.0202 -0.0502
83501W        W26418   8.363  24.881   0.922 -0.3665  0.2429  0.2816
83502W        W26419   7.727  22.179   1.528 -0.0897 -0.1279  0.2396
83503W        W26420  10.231  25.087   0.600 -0.1325  0.2272  0.0367
83504W        W26421   9.962  22.159   2.019  0.5113 -0.0089 -0.0275
83505W        W26422   7.899  24.336   4.216 -0.0029 -0.0140  0.2014
83506W        W26423  11.026  24.239   3.785 -0.2962  0.1495 -0.1792
83507W        W26424  10.374  22.407   1.988 -0.0795 -0.1346 -0.1507
83508W        W26425   7.944  24.411   5.544 -0.1266 -0.1402 -0.1649
83509W        W26426   9.725  22.284   0.194 -0.0894 -0.0973 -0.2400
83510W        W26427  12.133  21.721  29.803 -0.0159 -0.0452 -0.0369
83511W        W26428  11.066  22.780   3.673  0.0487 -0.1994 -0.2406
83512W        W26429   8.762  25.224   0.536 -0.2558  0.0674 -0.2467
83513W        W26430   9.416  21.917  31.750  0.1276 -0.0825  0.1777
83514W        W26431   8.147  21.156   0.770 -0.3823 -0.0183  0.1571
83515W        W26432   7.121  23.574   3.413  0.0114  0.0752  0.2855
83516W        W26433   8.781  24.629  31.128 -0.1807 -0.3088 -0.1326
83517W        W26434  11.637  25.083   1.995 -0.1322  0.0947 -0.2624
83518W        W26435   9.595  23.116   0.539 -0.3795  0.1440 -0.1813
83519W        W26436  10.424  24.970   1.060  0.1849  0.0365 -0.0431
83520W        W26437   7.407  23.877   1.191  0.3458  0.3346  0.1029
83521W        W26438   8.908  25.698   3.057  0.0716 -0.2153 -0.0269
83522W        W26439  10.083  25.978   2.404 -0.1182 -0.1811 -0.0010
83523W        W26440   9.830  23.188   3.115 -0.1514 -0.3723  0.1131
83524W        W26441   8.483  24.030  31.505 -0.1775 -0.1140  0.2611
83525W        W26442   9.064  23.515   0.905 -0.1319  0.1162  0.1397
83526W        W26443   9.375  24.698  31.798  0.0041 -0.1523  0.2684
83527W        W26444   9.640  22.476   2.287  0.0381 -0.1005 -0.2131
83528W        W26445   7.620  21.329   1.738 -0.1971  0.3366  0.0854
83529W        W26446   8.980  22.220   1.568 -0.3351  0.0330 -0.3849
83530W        W26447  11.831  24.555   3.458 -0.1325 -0.2523 -0.2798
83531W        W26448  11.186  22.685  31.765 -0.2273  0.1066  0.3420
83532W        W26449  11.128  24.506   1.750 -0.0014 -0.0108 -0.0503
83533W        W26450   6.966  23.498  30.998 -0.2630 -0.0430 -0.2146
83534W        W26451  10.655  24.794   2.403  0.1513 -0.1799 -0.0503
83535W        W26452   7.486  24.799   3.067 -0.0139  0.2853 -0.2740
83536W        W26453   8.530  25.413   2.997  0.2417 -0.2165  0.0413
83537W        W26454  11.792  25.836   4.687  0.2648 -0.2066  0.0882
83538W        W26455  11.466  26.813   0.402 -0.1612  0.3895 -0.1173
83539W        W26456  10.442  23.279   3.895 -0.1475  0.0722  0.0366
83540W        W26457  11.258  20.784   1.152 -0.1258 -0.2767 -0.2942
83541W        W26458   6.577  25.896  30.535 -0.0119  0.0339 -0.3018
83542W        W26459   7.758  23.085   0.296 -0.0124 -0.1607 -0.0978
83543W        W26460   9.630  23.416   1.392  0.2440 -0.5164 -0.0606
83544W        W26461   7.506  26.240   0.497 -0.1223 -0.2655  0.2172
83545W        W26462   8.262  25.070   2.718 -0.1789  0.0487  0.0477
83546W        W26463   9.353  23.928   1.941 -0.1796  0.3322  0.0258
83547W        W26464   6.358  24.171   2.580 -0.0943  0.1637 -0.0065
83548W        W26465  10.447  22.447   0.967  0.1551 -0.0547 -0.0994
83549W        W26466   7.094  25.525   3.480 -0.0759  0.0009 -0.0934
83550W        W26467   8.384  23.923   0.343  0.0483 -0.1952 -0.0842
83551W        W26468   7.550  22.738   1.759  0.0621 -0.0767 -0.2178
83552W        W26469  11.042  21.371   2.397  0.1620 -0.1489  0.0732
83553W        W26470   8.452  23.664  30.080  0.1764  0.0042  0.1325
83554W        W26471   8.073  23.066   4.314 -0.5275  0.0202 -0.0925
83555W        W26472  11.571  22.855   0.990  0.4125  0.1364  0.1810
83556W        W26473   8.890  25.715   2.487 -0.2174  0.0457 -0.1889
83557W        W26474   9.698  25.129   2.876  0.1206 -0.1065  0.0473
83558W        W26475   9.922  20.880   0.512 -0.0351 -0.2072 -0.2713
83559W        W26476  10.216  25.941   3.821  0.4007  0.1011 -0.0894
83560W        W26477   5.936  22.383   4.164  0.2846  0.2024  0.0354
83561W        W26478   7.937  23.050   1.922  0.1960 -0.1224 -0.5832
83562W        W26479  10.921  23.253   1.849  0.0196 -0.2489 -0.2363
83563W        W26480   8.490  25.365   1.366  0.1320 -0.0055  0.1677
83564W        W26481   7.060  22.893   1.628  0.1778 -0.1439 -0.0898
83565W        W26482  11.154  24.930   2.036 -0.0420 -0.0984 -0.0128
83566W        W26483   8.648  22.184   0.174  0.0383 -0.1777  0.0488
83567W        W26484   8.368  24.884  31.118 -0.1965 -0.2367 -0.1307
83568W        W26485  10.477  22.706   1.435  0.0425 -0.2567  0.1769
83569W        W26486  11.038  23.566   2.721  0.2798  0.3023 -0.1374
83570W        W26487   9.704  23.048   2.353  0.1857  0.0014  0.0270
83571W        W26488   9.535  22.736   3.119  0.0776 -0.0920 -0.1430
83572W        W26489  10.066  23.350  31.752 -0.2907 -0.0657 -0.4581
83573W        W26490  12.235  25.523   1.630  0.2119 -0.3905 -0.1258
83574W        W26491  11.927  23.924   3.848 -0.1027 -0.2786 -0.3089
83575W        W26492   8.153  25.475   4.321  0.1419 -0.2831  0.1773
83576W        W26493  10.107  23.088   1.348  0.2711  0.1697 -0.1033
83577W        W26494  10.617  26.642   0.205 -0.0862  0.1030  0.1580
83578W        W26495   9.796  23.023   3.638  0.1300  0.1037  0.0967
83579W        W26496   7.795  24.624   2.173 -0.1684 -0.3446  0.2023
83580W        W26497   7.291  24.984   3.687 -0.1336 -0.1062  0.1779
83581W        W26498   7.598  25.700   1.732 -0.4033 -0.1785 -0.0744
83582W        W26499   8.177  21.910   0.905  0.3979  0.0669 -0.1258
83583W        W26500   8.083  24.261   2.890 -0.1084  0.0485  0.0643
83584W        W26501   8.467  25.190   0.137 -0.1960 -0.1804 -0.0465
83585W        W26502  12.021  23.333  30.745 -0.0136 -0.1080 -0.1071
83586W        W26503   8.188  24.551   0.316  0.5140 -0.1363 -0.0053
83587W        W26504   9.540  23.009   1.624  0.0816 -0.0801  0.0301
83588W        W26505  10.601  22.637   2.404 -0.2401  0.0936 -0.2983
83589W        W26506  11.465  23.677   1.177 -0.0921 -0.0639  0.1413
83590W        W26507   6.973  24.097   4.300  0.2615  0.3619 -0.0346
83591W        W26508   7.085  24.219   2.051  0.1320 -0.0003 -0.3150
83592W        W26509  11.219  23.506   2.232 -0.0315 -0.0617  0.1338
83593W        W26510   8.634  22.783   2.895  0.0472 -0.0766 -0.0814
83594W        W26511   9.894  25.746   3.306 -0.0182  0.2052 -0.0812
83595W        W26512   7.967  23.688   3.693 -0.2536 -0.1853 -0.2373
83596W        W26513   9.504  22.598   0.828  0.0562 -0.1016 -0.3134
83597W        W26514   8.529  22.599   1.472 -0.0132  0.1199  0.2958
83598W        W26515   8.825  25.069   2.670 -0.0856  0.1936 -0.2491
83599W        W26516   9.595  24.475   3.477  0.0829  0.1992  0.1511
83600W        W26517   8.992  23.273  30.721 -0.3988 -0.0833 -0.0284
83601W        W26518   9.010  22.257   2.383 -0.2508  0.0517 -0.0382
83602W        W26519   8.941  23.586   3.341  0.1814 -0.0291 -0.0215
83603W        W26520  10.375  22.079  30.928 -0.2461  0.1107 -0.1106
83604W        W26521   9.707  24.360  31.840 -0.0584  0.1627 -0.3118
83605W        W26522   7.670  25.388   2.630  0.0381 -0.1082 -0.0813
83606W        W26523   8.867  22.625   3.488 -0.1668  0.1438 -0.0731
83607W        W26524   9.009  22.687   1.271 -0.1432  0.1358  0.1260
83608W        W26525   9.321  20.945   2.116 -0.0807  0.3616  0.0443
83609W        W26526  10.865  22.186   1.745  0.0929  0.0233  0.0835
83610W        W26527  11.370  23.164   1.320  0.1045  0.0446 -0.1945
83611W        W26528  10.982  24.934   3.102 -0.0985 -0.1994  0.3675
83612W        W26529   7.819  23.252   3.830 -0.3242 -0.0569  0.0984
83613W        W26530  11.939  24.811   2.911  0.2766  0.1430  0.0670
83614W        W26531  11.740  23.627   3.154 -0.3181 -0.0627  0.0203
83615W        W26532   9.740  21.855   0.533 -0.0164 -0.3803 -0.2393
83616W        W26533   9.459  24.376   1.701  0.1887  0.0474  0.1983
83617W        W26534  11.414  23.093   0.071 -0.0644  0.2135 -0.1518
83618W        W26535   6.867  21.576   2.792  0.3444 -0.0657  0.1148
83619W        W26536  11.203  25.213   4.092 -0.2400 -0.0731  0.0584
83620W        W26537   8.478  22.171  30.150 -0.1526 -0.0697  0.0733
83621W        W26538  10.877  22.758   2.776 -0.1915  0.0044 -0.2312
83622W        W26539  10.459  25.087   1.535  0.1852  0.0487 -0.0516
83623W        W26540  10.701  25.158   1.996 -0.0684  0.0341  0.1674
83624W        W26541  10.895  22.785   0.826  0.0627  0.0252 -0.3683
83625W        W26542   6.152  23.243   2.256  0.3350  0.1960 -0.0895
83626W        W26543   7.731  25.969   2.756 -0.1307  0.0660  0.0648
83627W        W26544   9.347  22.149   0.623  0.0135 -0.0418  0.3200
83628W        W26545   9.824  23.820   0.086 -0.2740  0.1027  0.0159
83629W        W26546  11.043  24.198   2.654  0.1586  0.0958  0.0098
83630W        W26547  10.880  26.697   3.382 -0.2579 -0.1757  0.2336
83631W        W26548  10.264  23.020  31.355 -0.2267  0.0066 -0.0591
83632W        W26549   9.620  21.915   4.432  0.1061 -0.1257  0.0798
83633W        W26550   7.927  24.129   0.338 -0.0281 -0.0378  0.1499
83634W        W26551   8.126  21.639   2.300 -0.2278 -0.1346  0.1726
83635W        W26552   8.231  26.280   1.889 -0.0676  0.0890  0.0880
83636W        W26553   9.494  23.888   3.378 -0.0738  0.1304  0.1399
83637W        W26554   7.475  24.431   2.776 -0.1506  0.0777  0.2969
83638W        W26555   9.452  23.394   3.356 -0.1036  0.3871 -0.0376
83639W        W26556  10.016  24.031   3.845  0.1884 -0.0086  0.3894
83640W        W26557   9.723  23.593   0.512  0.0274 -0.0070  0.3387
83641W        W26558  12.256  22.572   3.307 -0.2676  0.3222 -0.0706
83642W        W26559   8.641  25.531   2.004 -0.2079 -0.0570  0.2269
83643W        W26560   9.055  25.201   2.161  0.0367 -0.2028 -0.0026
83644W        W26561  10.617  25.620   2.629  0.1994 -0.1820 -0.0752
83645W        W26562  12.880  24.406   2.454  0.0058  0.0786 -0.0414
83646W        W26563   8.416  23.132   2.079 -0.1116 -0.1637  0.0553
83647W        W26564   8.850  23.417   2.174 -0.2400 -0.0270  0.0058
83648W        W26565  10.517  25.043   3.337 -0.0184 -0.1270 -0.1714
83649W        W26566   8.597  22.208  31.375  0.1800  0.1053 -0.1809
83650W        W26567   8.623  22.016   0.736  0.3719 -0.1280 -0.2591
83651W        W26568   8.240  23.573   0.043 -0.2494  0.1966  0.0392
83652W        W26569   6.446  23.906   5.527  0.0636  0.1217  0.1220
83653W        W26570   8.058  23.894   4.866 -0.0114  0.0203  0.1984
83654W        W26571   7.512  25.449   2.196 -0.0326 -0.0303  0.1087
83655W        W26572   8.896  24.963  31.494 -0.0611 -0.0315  0.0337
83656W        W26573   8.639  23.584   1.423 -0.0914  0.0157  0.1844
83657W        W26574  11.032  27.729   4.444  0.0424  0.0584  0.1521
83658W        W26575   6.801  23.268   0.584  0.1311 -0.0231  0.0791
83659W        W26576   8.307  23.115  31.337 -0.0812 -0.1716 -0.4500
83660W        W26577   8.569  24.299   0.670  0.2268 -0.0102  0.3273
83661W        W26578   8.936  26.704  31.147  0.1420 -0.2166  0.2489
83662W        W26579   6.909  24.738   0.593 -0.0371 -0.2822  0.0110
83663W        W26580  13.316  26.321   2.097  0.1378 -0.2319  0.1235
83664W        W26581  10.737  21.970   0.210  0.2752  0.2074  0.0989
83665W        W26582  10.275  24.176   1.553 -0.0239  0.2766  0.5422
83666W        W26583  11.830  24.291   0.300  0.4178  0.5817  0.2118
83667W        W26584   9.784  26.267   4.573  0.1039 -0.2558 -0.0278
83668W        W26585   8.678  26.239   3.070 -0.0597 -0.0634  0.2780
83669W        W26586   7.920  21.554   0.317  0.1080 -0.0507  0.3827
83670W        W26587   9.562  25.066   4.401 -0.1237  0.3500  0.0790
83671W        W26588   8.072  20.478   1.805 -0.0413  0.1663 -0.1245
83672W        W26589   7.844  25.821   4.081 -0.1364  0.0064  0.3060
83673W        W26590  10.401  25.910   0.651  0.1980 -0.2332 -0.1202
83674W        W26591   7.942  22.374   1.956  0.3451 -0.3738  0.0487
83675W        W26592   9.162  23.226   1.325 -0.2300  0.1701  0.2163
83676W        W26593  11.044  22.246   0.784  0.1924  0.0396  0.1244
83677W        W26594   8.202  23.819  31.114  0.2010  0.1804 -0.0776
83678W        W26595   9.924  22.804   0.499 -0.1127 -0.0041 -0.3022
83679W        W26596   8.345  23.996   1.616 -0.2148  0.0043  0.0857
83680W        W26597  10.067  25.534   2.152  0.1901  0.2284 -0.0738
83681W        W26598   9.244  27.658   5.510 -0.0407 -0.2505  0.0582
83682W        W26599   7.533  22.320   2.874  0.0777 -0.2823 -0.1906
83683W        W26600   9.893  23.373   0.969  0.1470 -0.1461 -0.0801
83684W        W26601  10.398  23.770   3.631 -0.0760  0.1305 -0.0112
83685W        W26602   7.872  22.337   4.241 -0.0525 -0.1887  0.0848
83686W        W26603  10.000  25.276   1.665  0.1510 -0.2101 -0.0370
83687W        W26604  11.629  23.587   0.203 -0.1786  0.4383  0.0762
83688W        W26605  10.722  24.448   1.346  0.1255 -0.0191 -0.1750
83689W        W26606   7.260  22.654   3.113  0.1907  0.1336 -0.1136
83690W        W26607   8.241  23.065   0.386  0.1022 -0.0990 -0.0083
83691W        W26608  11.225  24.768   3.488  0.0810 -0.0286 -0.0301
83692W        W26609  11.144  22.740  30.309  0.2926  0.3473 -0.0756
83693W        W26610  11.620  26.329   4.501 -0.0642 -0.0283  0.2781
83694W        W26611   8.295  23.083   1.567  0.0487 -0.0016  0.3144
83695W        W26612  10.091  22.677   2.300  0.1148 -0.1025  0.1863
83696W        W26613   8.479  22.631   1.966  0.0608  0.2467  0.3076
83697W        W26614   8.373  25.477   2.484  0.0510  0.0302  0.1001
83698W        W26615  10.695  25.203   2.822 -0.1162  0.1410  0.1067
83699W        W26616   9.367  23.479   1.895  0.2643  0.0399 -0.0354
83700W        W26617   9.002  26.444  31.608 -0.3170  0.1698 -0.3590
83701W        W26618  11.940  23.783   1.362 -0.0837  0.0606 -0.2033
83702W        W26619   8.023  26.266   0.562  0.1352  0.0343 -0.5945
83703W        W26620   9.174  24.533   1.379  0.1996  0.0898 -0.0849
83704W        W26621  10.996  25.232   2.408 -0.0466 -0.0431 -0.1383
83705W        W26622   7.008  22.064   3.774  0.3256 -0.1259  0.0096
83706W        W26623   9.821  26.303   3.887  0.2038  0.0033 -0.0112
83707W        W26624  12.038  24.879   2.178 -0.0880  0.0183 -0.3066
83708W        W26625  10.874  22.296   2.230 -0.1584  0.1104  0.2582
83709W        W26626  10.202  24.928   2.876  0.2049 -0.0699 -0.0806
83710W        W26627   7.798  24.679   1.696  0.0362 -0.3672  0.1095
83711W        W26628  12.173  23.058   3.097  0.0854 -0.0360  0.4318
83712W        W26629   9.926  22.520   3.746  0.0812 -0.0902  0.1025
83713W        W26630   9.240  23.674  30.567 -0.0335 -0.0015 -0.2349
83714W        W26631  11.400  22.367   3.535  0.1952 -0.1015  0.0245
83715W        W26632   7.503  25.606   0.305 -0.1408 -0.3751 -0.1259
83716W        W26633   7.130  25.278   6.880 -0.1259  0.2496  0.3368
83717W        W26634   7.916  22.776  31.333 -0.0360  0.1264  0.2740
83718W        W26635  10.298  23.741   4.193 -0.0163  0.0001 -0.1237
83719W        W26636  10.196  24.995   1.986 -0.0841  0.2903 -0.0414
83720W        W26637   8.377  25.838   3.278  0.2850  0.2115  0.2274
83721W        W26638  10.322  25.241   2.481 -0.1426 -0.1213 -0.0245
83722W        W26639  11.338  22.900   0.548 -0.0119 -0.0672  0.0842
83723W        W26640   9.667  24.669   2.566  0.0262 -0.0423  0.2489
83724W        W26641   9.813  24.718   2.047  0.5637 -0.0168  0.0350
83725W        W26642  12.405  24.485   1.778 -0.0707 -0.0941 -0.1610
83726W        W26643  10.676  22.582  31.928  0.1788  0.2342  0.1515
83727W        W26644   8.220  24.126   3.405  0.1860  0.0838 -0.0962
83728W        W26645   6.817  20.771   3.044 -0.0102  0.1695  0.2087
83729W        W26646   7.909  21.804   1.896  0.2060 -0.3248  0.1852
83730W        W26647  10.695  24.694   1.884 -0.1371 -0.2706 -0.1260
83731W        W26648   7.620  23.559   4.798  0.0775  0.0201 -0.2492
83732W        W26649   9.582  23.892   2.516  0.0008 -0.0764 -0.2855
83733W        W26650   8.547  24.344   2.995 -0.3439 -0.1210  0.1127
83734W        W26651   9.229  22.297   0.139 -0.1928  0.3085 -0.1559
83735W        W26652  11.188  24.798  31.364 -0.3497  0.0276 -0.1939
83736W        W26653  10.640  22.378   0.510  0.1775  0.2215 -0.2408
83737W        W26654   6.200  20.926   2.423  0.1129 -0.4798  0.3254
83738W        W26655  10.208  25.388   1.211 -0.0463  0.0436 -0.0586
83739W        W26656  11.433  25.556   0.824  0.1794  0.0642 -0.1217
83740W        W26657  11.429  23.613   1.718 -0.0398  0.1406 -0.1336
83741W        W26658  10.413  24.630   4.068 -0.3153 -0.0546  0.0885
83742W        W26659   7.745  23.650   0.303 -0.0506  0.2984 -0.1585
83743W        W26660   9.033  24.078   3.166  0.1607  0.3857  0.1417
83744W        W26661   9.023  23.146   3.127 -0.1401  0.1807  0.1063
83745W        W26662   6.460  20.254  29.973 -0.1225  0.0187  0.1022
83746W        W26663  10.376  22.938   2.043  0.2406  0.0682 -0.1788
83747W        W26664   8.852  24.734  30.566  0.0493  0.0764  0.0138
83748W        W26665   9.053  26.514   0.772 -0.1053  0.0843 -0.0401
83749W        W26666   8.496  24.639   2.574 -0.1939 -0.0251 -0.0305
83750W        W26667   9.944  25.139   3.345  0.0167 -0.2032 -0.2487
83751W        W26668   8.152  22.631   4.615 -0.0008  0.1887 -0.3941
83752W        W26669  10.782  24.647   0.850  0.0381  0.0562  0.0552
83753W        W26670   9.003  23.936   2.313 -0.1878  0.1038 -0.0834
83754W        W26671  10.006  23.909   1.154 -0.1372 -0.2783  0.2102
83755W        W26672  11.651  21.754   1.313 -0.0532  0.3720 -0.0332
83756W        W26673   9.050  25.224   3.141 -0.4225  0.3317  0.2152
83757W        W26674   8.102  21.464   5.299  0.0649 -0.1486 -0.4171
83758W        W26675   7.412  23.988   3.405  0.0652  0.0093 -0.1724
83759W        W26676  12.503  24.811   4.330 -0.1677  0.1893  0.0308
83760W        W26677   7.753  22.636   1.067  0.0294 -0.1804  0.0967
83761W        W26678   9.829  20.980   1.005  0.2359 -0.0989 -0.0276
83762W        W26679   9.345  25.326   0.460  0.1928 -0.0518 -0.3206
83763W        W26680   8.090  23.726   3.066  0.0832 -0.0127  0.2471
83764W        W26681   8.588  22.351   2.591  0.1740 -0.0023  0.1889
83765W        W26682  11.255  26.041   1.701 -0.2002  0.1665 -0.0462
83766W        W26683  12.559  25.699   2.063 -0.0365  0.0545  0.2355
83767W        W26684  10.706  24.497   2.920  0.2584 -0.0393  0.2603
83768W        W26685  10.467  23.595   1.130 -0.0114  0.3815 -0.2784
83769W        W26686  10.648  24.533  29.614  0.1262  0.3037 -0.1690
83770W        W26687  10.468  26.960   3.525 -0.2541 -0.4649  0.1824
83771W        W26688  13.095  25.680   4.071 -0.0965  0.0291 -0.2340
83772W        W26689   9.213  26.654   2.294  0.1949  0.5279  0.1871
83773W        W26690   8.549  25.019   2.201  0.3169  0.3288  0.0262
83774W        W26691   8.626  21.731   2.457  0.1882  0.0884 -0.1296
83775W        W26692   9.656  24.879   1.615 -0.1259 -0.0265  0.0362
83776W        W26693   8.950  24.344   2.669  0.1107 -0.1213  0.1652
83777W        W26694  10.724  23.073   3.507  0.0384 -0.0979 -0.0067
83778W        W26695   8.613  23.820   3.034 -0.2584 -0.2674  0.1272
83779W        W26696  10.196  22.483   0.189 -0.1930  0.2728  0.1146
83780W        W26697   8.427  25.896   1.642  0.1637  0.1143 -0.0061
83781W        W26698   9.793  23.691   2.162  0.0444  0.0572  0.0781
83782W        W26699   9.265  24.370   8.204 -0.0769  0.0267  0.4039
83783W        W26700   8.340  23.845   6.114  0.2173 -0.1410  0.0612
83784W        W26701   8.360  23.149   3.898 -0.1998  0.1086  0.4038
83785W        W26702  11.090  25.164   5.430  0.2994  0.1047  0.2525
83786W        W26703   7.330  24.464   6.774 -0.1373 -0.0370  0.1001
83787W        W26704   9.414  24.669   3.899  0.0944  0.0131 -0.0083
83788W        W26705  10.037  22.936   6.976 -0.0588 -0.2754  0.1530
83789W        W26706   9.614  25.464   6.225  0.0101 -0.0941 -0.0887
83790W        W26707  10.636  23.936   2.865  0.1219  0.0395 -0.1631
83791W        W26708  12.506  24.485   4.688  0.2650  0.0873 -0.3968
83792W        W26709  10.223  25.012   5.206  0.0268  0.1600 -0.1662
83793W        W26710   9.003  26.517   6.748 -0.3705  0.0484  0.0891
83794W        W26711   7.775  23.070   4.749  0.0463 -0.0540  0.1921
83795W        W26712   9.622  22.765   7.315  0.0691  0.2805 -0.1555
83796W        W26713   9.009  26.769   5.342 -0.2020  0.0228  0.3146
83797W        W26714   7.351  23.790   4.416  0.0765  0.3536 -0.2131
83798W        W26715   7.558  23.754   6.404  0.1596 -0.2653 -0.0040
83799W        W26716   9.455  24.199   6.139 -0.1126 -0.0228  0.0999
83800W        W26717   9.241  25.391   2.705 -0.1695 -0.0712 -0.2386
83801W        W26718   7.766  22.260   6.371  0.2046  0.3089  0.1996
83802W        W26719   9.529  22.988   6.742  0.0099  0.0107 -0.0921
83803W        W26720  10.104  26.802   5.136 -0.1586 -0.1793 -0.1200
83804W        W26721   6.400  22.812   3.256 -0.3266  0.0309 -0.3422
83805W        W26722   7.275  24.736   6.381 -0.0066  0.0377  0.2189
83806W        W26723   6.545  22.278   6.051 -0.0788  0.2382  0.0654
83807W        W26724  10.167  23.696   6.439 -0.4115 -0.0660 -0.0015
83808W        W26725  11.664  25.032   3.829  0.0750 -0.0673  0.0877
83809W        W26726   8.151  26.437   7.494  0.3524 -0.0285  0.0229
83810W        W26727   9.417  26.310   7.001 -0.0846 -0.1108 -0.1084
83811W        W26728  10.317  23.225   9.626  0.0632 -0.3039  0.2316
83812W        W26729   8.952  23.563   5.178  0.1108  0.0363  0.0717
83813W        W26730   4.418  25.258   4.900  0.1583 -0.1111 -0.2582
83814W        W26731   8.854  24.694   3.046 -0.0588 -0.0520 -0.1916
83815W        W26732  14.377  24.884   3.465  0.1177  0.0822 -0.2875
83816W        W26733   9.227  26.026   6.647  0.3688  0.2062  0.0360
83817W        W26734   9.876  24.691   7.350 -0.4356 -0.0047  0.0256
83818W        W26735   4.465  25.789   4.174 -0.1567  0.4295 -0.3144
83819W        W26736   9.525  26.232   8.857 -0.3465  0.0319  0.1219
83820W        W26737   7.866  27.527   5.817  0.2978 -0.0885  0.1004
83821W        W26738   8.993  23.318   6.053  0.0322  0.0375  0.1098
83822W        W26739   9.534  24.186   3.884 -0.0159  0.0397  0.1241
83823W        W26740   8.425  25.008   5.217  0.2772  0.1431 -0.0631
83824W        W26741   6.707  24.782   5.697 -0.1148 -0.0102 -0.0334
83825W        W26742   8.939  24.634   8.484 -0.0646 -0.0051  0.0346
83826W        W26743   7.114  25.771   5.964 -0.0250  0.0241 -0.2372
83827W        W26744  10.603  24.359   8.104  0.0589 -0.0184  0.0573
83828W        W26745   7.474  23.741   3.826 -0.0003  0.4367  0.1343
83829W        W26746  11.712  21.807   4.188 -0.0549 -0.3176 -0.1106
83830W        W26747  10.014  24.141   3.347  0.1532  0.0030  0.0091
83831W        W26748  10.413  25.609   4.563 -0.0131 -0.2810  0.0566
83832W        W26749   9.773  23.686   7.078  0.3713 -0.0895 -0.3441
83833W        W26750   8.286  25.655   5.007  0.1106 -0.2974 -0.1022
83834W        W26751   9.599  24.388   7.750 -0.0072 -0.1811 -0.1945
83835W        W26752   9.176  25.538   4.982  0.0777  0.0663 -0.1791
83836W        W26753   9.376  25.909   3.370 -0.0872  0.2499 -0.0729
83837W        W26754   9.855  24.660   3.015 -0.0193  0.1058 -0.1842
83838W        W26755   7.858  25.749   5.282  0.3166  0.1307 -0.3849
83839W        W26756   8.613  24.150   7.293  0.4221 -0.1006  0.2921
83840W        W26757  12.478  23.524   2.297 -0.0328 -0.1285  0.1923
83841W        W26758  10.803  26.304   5.585  0.0622  0.0854 -0.0454
83842W        W26759  11.175  22.131   3.978  0.0626  0.1569 -0.0446
83843W        W26760   7.821  25.946   6.217 -0.1677  0.0744 -0.0203
83844W        W26761   7.776  24.803   7.538 -0.0647  0.1854  0.1458
83845W        W26762   8.665  22.856   6.955 -0.0862 -0.2190  0.1820
83846W        W26763   8.234  20.746   3.888  0.0689 -0.0470 -0.3281
83847W        W26764  10.399  25.559   8.277  0.0065  0.1389  0.0901
83848W        W26765   7.079  25.615   7.393 -0.2458  0.1390  0.3378
83849W        W26766  10.941  23.401   5.616 -0.3385  0.0153  0.2518
83850W        W26767   8.935  27.326   7.925 -0.1740  0.1094 -0.3766
83851W        W26768   7.883  24.498   8.106 -0.2229  0.0982  0.1039
83852W        W26769  10.715  23.577   3.236  0.0534  0.2922 -0.0978
83853W        W26770   9.987  23.280   5.053  0.0897  0.2150  0.0527
83854W        W26771   9.496  21.878   7.103 -0.2089 -0.2548 -0.2730
83855W        W26772   8.828  24.580   3.982 -0.4687 -0.0361  0.0751
83856W        W26773   9.692  24.576   4.516  0.0178 -0.0719  0.0994
83857W        W26774   9.713  25.145   3.901  0.5756 -0.0526 -0.5486
83858W        W26775  11.971  25.878   3.826  0.0541 -0.2154  0.1940
83859W        W26776   8.478  25.837   4.177 -0.0855 -0.0919  0.1545
83860W        W26777   9.044  22.678   6.659 -0.3840  0.3963  0.1592
83861W        W26778   9.951  25.294   9.839 -0.1784  0.2536  0.1769
83862W        W26779   7.493  24.996   5.284 -0.2943  0.0233 -0.0309
83863W        W26780   7.125  23.366   4.495 -0.0591  0.2605 -0.1227
83864W        W26781   8.754  24.641   5.031  0.0127 -0.1243  0.2083
83865W        W26782   7.974  22.038   5.873 -0.2007  0.1010  0.2304
83866W        W26783   7.981  26.926   7.394 -0.0749  0.2677 -0.3269
83867W        W26784  10.523  22.765   4.405 -0.0802  0.0383  0.0995
83868W        W26785   8.550  22.718   6.487 -0.1782 -0.2047  0.0346
83869W        W26786  11.375  21.122   2.631 -0.2267  0.0676 -0.2065
83870W        W26787   6.691  25.585   4.904 -0.0738 -0.0122 -0.0954
83871W        W26788   9.248  26.328   4.615 -0.0363 -0.0748  0.3984
83872W        W26789  10.359  22.977   4.827 -0.0205  0.1130  0.0927
83873W        W26790  11.234  23.303   3.268  0.3198  0.0048 -0.1351
83874W        W26791   8.023  23.561   5.664 -0.3198  0.0184 -0.0027
83875W        W26792   8.456  24.843   5.719  0.0182 -0.2360  0.0133
83876W        W26793   8.410  20.287   6.963  0.1831 -0.1189  0.3096
83877W        W26794   7.180  22.496   6.774  0.3742 -0.0259  0.2992
83878W        W26795  10.796  24.348   5.477  0.0713 -0.1080 -0.0070
83879W        W26796   8.278  24.027   5.639  0.1547 -0.2599  0.0334
83880W        W26797   9.543  24.312   4.927 -0.0009  0.0641  0.1683
83881W        W26798   8.044  25.485   6.249  0.1263 -0.0601  0.0050
83882W        W26799   8.045  26.066   4.984  0.1449 -0.2072 -0.3942
83883W        W26800  10.413  23.913   8.013  0.0792  0.2740  0.2298
83884W        W26801   9.039  26.358   3.776  0.0403  0.0076 -0.6114
83885W        W26802  10.520  25.854   4.978  0.3337  0.0261  0.3859
83886W        W26803  10.872  26.870   5.810  0.3414  0.1847  0.1314
83887W        W26804   8.884  23.952   7.687  0.0772 -0.0961 -0.3158
83888W        W26805   7.664  24.500   7.119 -0.0518  0.1362 -0.1505
83889W        W26806   7.190  27.730   5.088  0.0474 -0.1165  0.1625
83890W        W26807   8.719  26.910   6.904  0.2518 -0.0260 -0.2536
83891W        W26808   7.929  22.452   5.517  0.1269 -0.1672 -0.0661
83892W        W26809  10.238  25.490   5.143  0.0459 -0.1244  0.0911
83893W        W26810   9.940  25.797   4.865 -0.2908 -0.1186 -0.2556
83894W        W26811   7.615  24.227   7.511 -0.1275 -0.0685  0.1582
83895W        W26812  10.620  22.462   8.137 -0.1199  0.1206 -0.0390
83896W        W26813  10.536  25.142   6.125  0.3609  0.1663 -0.0580
83897W        W26814  10.190  24.594   3.365  0.2680 -0.2932  0.2023
83898W        W26815   6.649  22.764   6.277 -0.0139 -0.0974 -0.2431
83899W        W26816   7.380  26.944   5.650 -0.1816 -0.0360 -0.4103
83900W        W26817   6.961  23.632   4.115 -0.2789 -0.1037 -0.3262
83901W        W26818   6.849  23.779   4.650  0.2151 -0.0161 -0.3777
83902W        W26819  10.734  26.111   4.041  0.0126  0.0157 -0.1592
83903W        W26820  12.691  22.142   6.617 -0.3434 -0.1765 -0.3335
83904W        W26821   5.352  22.967   6.834  0.1665 -0.1842  0.2216
83905W        W26822  10.192  22.780   8.563  0.1708  0.3484 -0.1989
83906W        W26823   8.644  24.958   6.209 -0.2707 -0.1846 -0.2987
83907W        W26824   8.646  25.143   7.037  0.0165 -0.0044  0.1237
83908W        W26825   9.165  22.503   4.793  0.2446 -0.0455  0.1901
83909W        W26826   9.797  24.628   5.297  0.0296 -0.1037 -0.1340
83910W        W26827  11.322  25.165   8.657 -0.0926 -0.1934  0.1834
83911W        W26828  13.148  24.628   4.513  0.0314 -0.1647 -0.1344
83912W        W26829  10.690  24.212   3.329 -0.2578  0.1343 -0.2691
83913W        W26830   9.940  22.312   0.678 -0.0680 -0.2509  0.2128
83914W        W26831   7.179  24.786   7.265 -0.4456  0.4268 -0.1406
83915W        W26832   6.702  25.229   6.649 -0.4583 -0.2538  0.2934
83916W        W26833   7.928  25.977   7.517 -0.0854  0.0764  0.4723
83917W        W26834   8.740  24.122   5.214 -0.1882  0.0729 -0.0380
83918W        W26835  10.708  25.613   6.095  0.1865 -0.4586  0.0532
83919W        W26836   9.052  25.031   6.691  0.1491 -0.0202 -0.3134
83920W        W26837  10.653  24.203   9.478 -0.1367 -0.2882 -0.0261
83921W        W26838  10.272  25.472   2.981  0.1938  0.0409  0.2880
83922W        W26839  10.506  25.369   5.671  0.0774 -0.4533 -0.0902
83923W        W26840   8.804  24.031   3.744  0.1744 -0.1435 -0.0857
83924W        W26841   8.054  23.436   6.303 -0.0738  0.0440  0.4488
83925W        W26842   5.856  27.146   3.711  0.1272 -0.1562 -0.1286
83926W        W26843   9.437  25.016   5.423 -0.0444 -0.3874  0.0839
83927W        W26844   8.163  24.247   7.805  0.1151  0.1232  0.1134
83928W        W26845   9.438  21.862   7.615  0.1714 -0.1667  0.1172
83929W        W26846  10.745  23.499   9.469  0.0197  0.1314 -0.1482
83930W        W26847  12.064  25.858   2.034  0.0998  0.2155  0.1286
83931W        W26848   8.385  25.701   5.549 -0.1516  0.1234  0.2341
83932W        W26849  10.343  23.630   5.038 -0.1462 -0.2650 -0.0760
83933W        W26850   9.300  23.686   6.082 -0.1870  0.0574 -0.0766
83934W        W26851   6.239  25.357   6.808 -0.0204 -0.2117  0.2160
83935W        W26852   7.632  26.754   7.061  0.5024  0.1822  0.0255
83936W        W26853  14.710  25.886   9.796  0.2765  0.2974 -0.1405
83937W        W26854   9.903  24.543   3.844 -0.0099 -0.2029 -0.1048
83938W        W26855   7.863  23.204   7.071  0.1242 -0.1232 -0.2197
83939W        W26856   9.315  21.912   3.737 -0.1831  0.1348  0.3883
83940W        W26857  10.529  25.436   4.023  0.1050  0.1310  0.1715
83941W        W26858  10.561  24.210   3.821 -0.0198  0.1381  0.1397
83942W        W26859   8.830  22.528   5.788 -0.0176  0.3012  0.0820
83943W        W26860   9.940  26.218   7.840  0.0541 -0.0905 -0.0043
83944W        W26861  11.609  24.470   2.974  0.2445 -0.2585 -0.4724
83945W        W26862  10.148  25.354   7.902 -0.0796  0.3533 -0.1098
83946W        W26863   6.909  26.120   5.643 -0.0604 -0.1058  0.1033
83947W        W26864   8.018  24.057   6.412  0.3044 -0.0992 -0.2995
83948W        W26865   7.163  26.539   5.982 -0.3163 -0.2003  0.1827
83949W        W26866   8.472  23.635   6.569 -0.0198  0.4029  0.0679
83950W        W26867   6.372  24.394   5.516 -0.1184  0.0535 -0.1802
83951W        W26868  10.137  25.593   5.986 -0.1239  0.2733  0.1382
83952W        W26869  10.840  23.087   5.007 -0.0012  0.0345  0.0634
83953W        W26870   8.736  23.021   5.606  0.0296  0.0139  0.0692
83954W        W26871   8.157  22.108   7.087  0.2823  0.1540 -0.3107
83955W        W26872   6.865  26.169   6.164 -0.1555 -0.2066 -0.4496
83956W        W26873  10.652  26.517   4.369 -0.1641  0.0300 -0.0560
83957W        W26874  10.548  22.714   3.811 -0.0728  0.0107 -0.0875
83958W        W26875   9.248  24.806   4.737  0.1872 -0.2138 -0.1941
83959W        W26876   7.740  24.013   6.817  0.2797 -0.0313 -0.2918
83960W        W26877   8.385  22.005   3.548  0.0321  0.2228 -0.2622
83961W        W26878   9.955  24.387   5.990 -0.0363  0.1531 -0.0463
83962W        W26879   9.324  23.492   6.812  0.0739  0.0212  0.0108
83963W        W26880   5.979  25.201   7.270  0.1065  0.1702  0.3435
83964W        W26881  10.634  25.213   7.404 -0.0520  0.0475 -0.1982
83965W        W26882  10.852  23.163   3.000  0.2736 -0.0940  0.0453
83966W        W26883   5.839  24.256   4.898 -0.0191 -0.1326 -0.0993
83967W        W26884   7.004  24.831   8.058  0.1934  0.1093 -0.3004
83968W        W26885  10.819  22.332   6.437 -0.1459  0.1309 -0.2479
83969W        W26886   8.608  23.203   6.340 -0.2654 -0.2536 -0.0626
83970W        W26887   9.237  23.731   4.740 -0.1927  0.0520 -0.2878
83971W        W26888  10.795  24.231   6.648 -0.0437  0.0609  0.0109
83972W        W26889   7.455  24.776   8.250 -0.2933  0.2250 -0.0110
83973W        W26890   8.619  24.457   5.555  0.0586 -0.1514  0.0056
83974W        W26891   6.831  26.050   7.230  0.1708 -0.1554  0.3116
83975W        W26892   8.806  23.951   6.143 -0.0738 -0.3865 -0.3153
83976W        W26893  12.770  25.465   2.827 -0.0098  0.2173 -0.1425
83977W        W26894   9.432  25.254   7.787 -0.1319  0.0888 -0.0957
83978W        W26895   8.155  25.284   3.412 -0.1329  0.1481  0.3912
83979W        W26896   7.249  26.522   7.753  0.1893 -0.1425 -0.0125
83980W        W26897   7.572  24.443   5.871 -0.2581 -0.0706  0.3420
83981W        W26898   7.386  22.382   8.649 -0.3481 -0.1093 -0.0281
83982W        W26899   6.899  24.315   5.576  0.1227 -0.2737  0.0565
83983W        W26900  11.270  26.073   3.818 -0.2481 -0.0579 -0.1687
83984W        W26901   7.361  26.100   6.416 -0.0194 -0.2522 -0.1958
83985W        W26902   9.744  24.070   2.942 -0.0606  0.0820  0.1714
83986W        W26903  10.387  26.470   3.662  0.1831 -0.1551  0.1052
83987W        W26904   9.125  25.430   6.366  0.2160  0.0071 -0.1110
83988W        W26905  10.616  23.558   7.643  0.0872  0.4895 -0.0078
83989W        W26906  10.507  23.329   4.468  0.0226  0.2296  0.2895
83990W        W26907   9.936  21.680   7.405 -0.1191  0.0519 -0.4063
83991W        W26908   8.847  22.109   4.944  0.1272 -0.0199  0.1949
83992W        W26909  12.688  24.100   4.320  0.0996  0.4561  0.3776
83993W        W26910   7.846  24.501   6.638 -0.0563 -0.0581  0.2242
83994W        W26911  11.415  24.613   8.426  0.2431  0.1353 -0.1801
83995W        W26912   9.051  24.529   6.036 -0.0674  0.2274  0.0888
83996W        W26913   9.704  23.721   4.092 -0.1004 -0.4013  0.0465
83997W        W26914   8.723  24.121   4.248  0.2470 -0.0990 -0.0057
83998W        W26915   9.228  25.963   5.376  0.1265  0.1916  0.1849
83999W        W26916   9.588  25.538   4.651  0.0275  0.2088 -0.0711
84000W        W26917  11.408  23.948   2.970  0.1873 -0.2102  0.0541
84001W        W26918   9.637  23.751   6.452 -0.2167 -0.3350  0.0331
84002W        W26919   9.532  23.284   7.276 -0.1512 -0.1189  0.4629
84003W        W26920  10.843  24.495   4.227 -0.1752  0.1847 -0.1582
84004W        W26921   8.309  24.537   6.510  0.2112  0.0924  0.2542
84005W        W26922   9.488  24.968   7.043  0.0097  0.1371  0.3518
84006W        W26923   7.892  21.841   6.721  0.2456  0.0409 -0.0715
84007W        W26924  13.735  25.457   5.163 -0.0360  0.1078  0.0046
84008W        W26925   9.473  25.956   4.929  0.0266  0.1438 -0.1086
84009W        W26926  11.545  22.678   8.161  0.0810 -0.2525  0.1088
84010W        W26927  10.115  22.917   7.985 -0.1254  0.2559 -0.0219
84011W        W26928   8.094  24.832   6.949 -0.2354  0.1641  0.0299
84012W        W26929   6.445  23.535   7.722 -0.4035  0.0269 -0.2409
84013W        W26930  10.568  26.660   4.982 -0.1055  0.2631  0.1014
84014W        W26931  11.162  23.987   4.592  0.1711  0.0998  0.2197
84015W        W26932  10.406  25.518   6.481 -0.1914  0.0301 -0.3057
84016W        W26933  10.715  23.747   4.710 -0.1379 -0.2107  0.3132
84017W        W26934   8.925  24.720   2.282 -0.2016 -0.0362 -0.2984
84018W        W26935   8.666  22.301   8.468  0.1630  0.0266  0.1724
84019W        W26936   9.558  24.517   9.169  0.1133  0.0889  0.4136
84020W        W26937   9.272  23.644   3.771 -0.0514 -0.0400 -0.1901
84021W        W26938  10.673  25.123   4.730  0.1650 -0.1143 -0.1340
84022W        W26939   9.404  24.898   3.258 -0.1193 -0.0831 -0.4376
84023W        W26940  10.926  25.743   3.743 -0.0836  0.1087 -0.1152
84024W        W26941  11.222  24.724   3.969 -0.4612 -0.0266  0.1278
84025W        W26942   8.840  23.867   6.886 -0.3055  0.2200  0.3755
84026W        W26943   7.681  26.219   7.045  0.2561  0.0877  0.0139
84027W        W26944   7.338  21.469   4.767 -0.1547 -0.2626 -0.2110
84028W        W26945   8.768  25.254   5.779  0.0720 -0.1235 -0.0892
84029W        W26946   9.058  26.162   7.299 -0.3439  0.2114 -0.3514
84030W        W26947  12.136  24.558   9.770  0.1799  0.1684  0.2279
84031W        W26948   9.641  22.434   4.458 -0.0609  0.0831 -0.2971
84032W        W26949   9.351  23.974   7.827 -0.2098 -0.1436 -0.0948
84033W        W26950   6.474  22.889   3.747 -0.0135 -0.0225 -0.0690
84034W        W26951   8.671  23.304   4.767  0.0376  0.1949 -0.1385
84035W        W26952   8.198  27.366   6.136 -0.2809 -0.2066 -0.0917
84036W        W26953   8.349  24.023   8.941 -0.3677  0.3802  0.1290
84037W        W26954   9.679  27.579   4.649  0.1144  0.0495 -0.1420
84038W        W26955   7.885  23.796   7.788  0.0131 -0.2249  0.0394
84039W        W26956   9.492  24.038   6.837  0.0099 -0.0125 -0.0090
84040W        W26957   7.888  26.129   4.505 -0.2506  0.1046  0.1711
84041W        W26958  10.057  23.641   8.292 -0.2502 -0.1470 -0.0620
84042W        W26959   8.498  24.120   6.538  0.0678  0.0994  0.2926
84043W        W26960   9.678  25.118   5.873 -0.0140 -0.0716  0.1960
84044W        W26961   9.608  24.671   6.209 -0.0970 -0.0952  0.2634
84045W        W26962  10.204  24.597   5.515 -0.1271  0.0266 -0.0008
84046W        W26963   8.750  25.539   6.760  0.1541 -0.3045  0.4090
84047W        W26964   8.062  22.908   8.055 -0.2544 -0.1735 -0.0974
84048W        W26965   8.039  23.596   8.232  0.0785  0.0013  0.2925
84049W        W26966  10.141  25.205   4.720 -0.1616 -0.2685  0.0813
84050W        W26967   8.376  22.426   4.992  0.1153  0.1541  0.0658
84051W        W26968   9.372  25.437   4.104 -0.1850 -0.1198  0.0006
84052W        W26969   6.640  25.016   8.551  0.1824 -0.1066  0.0712
84053W        W26970  10.371  24.589   6.780 -0.0212  0.2364 -0.0484
84054W        W26971  10.833  25.441   3.256 -0.2832  0.0422 -0.0863
84055W        W26972  12.965  25.044   5.882 -0.0082 -0.2845  0.1808
84056W        W26973  10.765  24.716   3.671 -0.3354  0.0895  0.3709
84057W        W26974   8.449  26.779   7.397 -0.2267 -0.0427 -0.3736
84058W        W26975   7.705  24.302   5.040 -0.5188 -0.0282  0.1990
84059W        W26976   6.974  26.109   5.079 -0.1349 -0.1408  0.2480
84060W        W26977   7.183  25.492   5.097  0.2244 -0.0368  0.1969
84061W        W26978  11.352  26.891   5.586 -0.1965  0.1480  0.1040
84062W        W26979   9.012  24.199   4.804 -0.2282  0.1920 -0.2329
84063W        W26980   8.054  24.336   5.987 -0.0293 -0.0342  0.1033
84064W        W26981  10.814  21.530   1.970 -0.0902  0.1460  0.1780
84065W        W26982  11.349  23.152   6.521  0.2684 -0.0073  0.2134
84066W        W26983   9.646  23.275   5.839 -0.0757  0.0675 -0.1531
84067W        W26984   9.536  25.373   7.324  0.0797 -0.0682  0.0052
84068W        W26985   9.126  24.460   4.347 -0.1332 -0.1740  0.1755
84069W        W26986   8.190  24.981   4.181 -0.1394  0.0252 -0.0316
84070W        W26987  10.159  24.163   6.827 -0.0616  0.2821  0.1857
84071W        W26988  11.045  24.948   7.476  0.0349  0.1670  0.0322
84072W        W26989   8.091  26.219   5.879 -0.0536  0.1099 -0.2773
84073W        W26990  10.234  27.243   4.135 -0.0918 -0.3363 -0.1415
84074W        W26991   8.961  25.109   5.115 -0.1859 -0.1997 -0.1031
84075W        W26992   7.843  21.542   5.734 -0.1756 -0.4355  0.1327
84076W        W26993   9.107  22.997   7.206 -0.2945  0.0460 -0.2515
84077W        W26994   8.888  25.901   1.480 -0.3165 -0.1462  0.0286
84078W        W26995   9.082  24.371   7.737 -0.0849 -0.0473 -0.1549
84079W        W26996   6.927  26.895   4.530  0.3590  0.1175 -0.1359
84080W        W26997   7.421  25.702   3.805  0.0518  0.0482  0.1589
84081W        W26998   7.175  25.219   6.388  0.0857 -0.2101 -0.1434
84082W        W26999   6.573  21.050   5.810 -0.2821 -0.1829 -0.1362
84083W        W27000  11.654  21.217   5.543 -0.0563 -0.1853  0.3026
84084W        W27001   8.730  23.402   7.022  0.0449  0.1426 -0.0375
84085W        W27002   9.318  24.591   6.660 -0.1170  0.2251  0.1543
84086W        W27003   8.549  26.439   5.739 -0.0978 -0.0960  0.0900
84087W        W27004  10.462  23.150   5.286 -0.0958 -0.2002  0.0510
84088W        W27005   8.227  26.172   6.403  0.2601 -0.0723 -0.1248
84089W        W27006   7.821  25.925   6.676  0.1472  0.0020 -0.0760
84090W        W27007   8.575  24.532   3.512  0.0864  0.2200 -0.2250
84091W        W27008   7.966  25.224   7.308  0.1790  0.2891 -0.1220
84092W        W27009  11.500  22.546   3.990  0.0038  0.0389 -0.1428
84093W        W27010  11.445  28.388   8.943  0.1442  0.1012 -0.2588
84094W        W27011   7.393  23.581   5.467  0.2256 -0.2338  0.0155
84095W        W27012   8.918  21.447   2.802  0.0006  0.0690 -0.1010
84096W        W27013   6.224  23.602   5.170 -0.2420 -0.2066 -0.1381
84097W        W27014   8.430  23.251   8.085 -0.0986 -0.0797  0.0549
84098W        W27015   8.166  26.137   6.954 -0.2869  0.2632  0.1083
84099W        W27016   8.311  23.198   6.837  0.3193  0.1332 -0.0184
84100W        W27017  12.104  26.283   3.482  0.0871  0.2264  0.2627
84101W        W27018  11.754  23.438   5.765  0.2009 -0.1258  0.0316
84102W        W27019   8.949  26.038   4.857 -0.0273  0.2651 -0.0933
84103W        W27020  10.746  25.003   4.197  0.2886 -0.3857  0.4729
84104W        W27021  11.233  26.081   4.814  0.0549 -0.4002 -0.0586
84105W        W27022   6.645  23.031   5.746 -0.1007  0.4799 -0.0559
84106W        W27023  10.898  25.557   8.320 -0.1641 -0.1578 -0.1419
84107W        W27024  11.323  25.562   6.810 -0.1447 -0.0962 -0.0715
84108W        W27025   9.186  23.985   4.219  0.1729 -0.1047  0.0872
84109W        W27026   9.231  25.467   5.628 -0.1223 -0.0773 -0.1353
84110W        W27027   9.257  23.966   5.214 -0.1037 -0.2003 -0.0266
84111W        W27028  11.080  24.877   6.721  0.2578 -0.0184  0.1481
84112W        W27029   9.002  23.146   6.690  0.1927 -0.1934  0.0778
84113W        W27030   8.009  26.546   4.826 -0.0804 -0.0032  0.1934
84114W        W27031  11.017  23.346   8.489 -0.0122 -0.2370 -0.2078
84115W        W27032   9.555  25.595   6.693 -0.0267 -0.1057  0.0261
84116W        W27033   8.911  25.972   8.221  0.0205 -0.3712  0.0255
84117W        W27034   8.549  24.066   2.619 -0.1865 -0.2124 -0.1509
84118W        W27035   9.202  24.994   6.146 -0.6746 -0.3186 -0.0155
84119W        W27036   8.897  26.132   4.264 -0.1131  0.3071 -0.3575
84120W        W27037   8.564  26.363   2.604  0.0087 -0.1410  0.1716
84121W        W27038  10.534  25.909   5.540 -0.2561  0.0642  0.2397
84122W        W27039  11.049  23.881   3.429 -0.1210 -0.1007  0.2513
84123W        W27040  12.044  24.813   4.125  0.3384  0.2498 -0.2039
84124W        W27041   9.958  25.404   4.300  0.3057 -0.0444 -0.2501
84125W        W27042  11.465  23.330   4.318  0.1504 -0.0614  0.2257
84126W        W27043   9.526  24.608   5.744 -0.0097  0.0135 -0.0978
84127W        W27044   8.266  25.721   6.590  0.2057 -0.0835  0.0630
84128W        W27045   8.413  24.548   4.266 -0.1763  0.1104 -0.2304
84129W        W27046   5.559  21.655   4.047 -0.0924 -0.3461  0.0237
84130W        W27047   8.689  25.497   6.176  0.0522 -0.1019 -0.3677
84131W        W27048   8.323  22.226   8.075  0.0443 -0.1246 -0.1596
84132W        W27049   7.326  21.693   5.827 -0.5764 -0.0087  0.1265
84133W        W27050   8.350  23.852   6.973  0.0385  0.0880 -0.2184
84134W        W27051   7.256  22.922   3.619  0.3702  0.1321  0.1133
84135W        W27052  10.715  25.311   5.221 -0.1536  0.0052 -0.0740
84136W        W27053   9.085  23.081   5.031  0.2193  0.1362 -0.0943
84137W        W27054   7.105  23.000   6.601  0.2275 -0.1203  0.0899
84138W        W27055  10.235  23.919   4.696  0.0203  0.1371 -0.1123
84139W        W27056  10.832  26.219   5.108 -0.4266 -0.0944  0.2863
84140W        W27057   9.310  23.492   4.283 -0.0033  0.1109 -0.1976
84141W        W27058  10.389  25.827   7.861 -0.2033  0.2468 -0.0578
84142W        W27059   7.418  25.262   4.638 -0.1724  0.0427  0.0701
84143W        W27060  10.014  22.835   6.447 -0.2970 -0.1215  0.1578
84144W        W27061   9.845  24.258   6.457  0.2475 -0.1438 -0.1835
84145W        W27062  10.292  24.451   2.036 -0.1862 -0.0595  0.1198
84146W        W27063  10.552  24.586   5.946 -0.3050 -0.2080  0.1578
84147W        W27064   8.847  27.342   6.460 -0.0435  0.2332  0.1330
84148W        W27065  10.488  26.797   3.990 -0.0701  0.1250 -0.0113
84149W        W27066   8.488  26.029   7.340 -0.0755 -0.2098 -0.2402
84150W        W27067   8.306  27.255   7.099 -0.0247  0.0225 -0.4148
84151W        W27068   6.481  21.977   6.955 -0.0130 -0.0513 -0.2266
84152W        W27069  11.585  22.978   3.740  0.2131 -0.1476 -0.5195
84153W        W27070   9.999  25.830   6.603  0.1233  0.4182  0.0654
84154W        W27071   9.146  25.934   3.909  0.2263 -0.0488  0.3848
84155W        W27072   9.797  23.800   7.570 -0.0825 -0.3157  0.1619
84156W        W27073  10.592  24.682   5.034  0.0149 -0.0839  0.1326
84157W        W27074   8.053  24.045   8.415 -0.0333  0.0822 -0.1850
84158W        W27075   7.490  24.209   7.984  0.0056 -0.2400  0.1060
84159W        W27076  12.333  22.691   7.027 -0.1259 -0.1493  0.0734
84160W        W27077   8.498  22.991   5.170  0.1661  0.1308 -0.0852
84161W        W27078  10.975  23.744   6.009  0.0154 -0.1020  0.1808
84162W        W27079   9.523  26.670   4.804 -0.0852  0.2442  0.2272
84163W        W27080   9.695  24.987   4.861 -0.0148 -0.0551  0.0539
84164W        W27081   8.534  24.340   4.732 -0.0249  0.0619  0.1731
84165W        W27082  10.218  24.277   8.418  0.0691 -0.2628  0.2518
84166W        W27083   8.287  25.660   7.112  0.0275 -0.2866  0.4261
84167W        W27084  13.683  25.217   6.998 -0.1693 -0.0266 -0.1712
84168W        W27085  10.057  23.173   5.544  0.1583 -0.2975 -0.0138
84169W        W27086   9.650  24.057   4.373 -0.3285  0.1270  0.0652
84170W        W27087   9.891  24.993   7.715  0.1219 -0.0174  0.0261
84171W        W27088  11.589  25.957   6.749 -0.0373 -0.0671  0.3361
84172W        W27089   8.808  26.870   6.335 -0.0641 -0.1966 -0.0650
84173W        W27090   8.627  24.533   7.603 -0.1698  0.0209  0.0937
84174W        W27091   8.926  22.854   6.224  0.0749  0.0628 -0.1039
84175W        W27092   7.706  25.342   5.027 -0.2325 -0.2339 -0.1503
84176W        W27093   7.879  25.651   5.790 -0.3586  0.2866 -0.4316
84177W        W27094  10.573  24.234   7.163  0.0541 -0.0323  0.1940
84178W        W27095  11.534  23.097   7.073  0.0475 -0.0298 -0.0353
84179W        W27096  10.231  22.821   3.483  0.1623  0.2154 -0.0354
84180W        W27097   8.371  27.511   6.627 -0.2229  0.0219 -0.3385
84181W        W27098   9.648  25.844   3.772  0.2116 -0.1481  0.3499
84182W        W27099   5.165  25.690   9.970 -0.2015  0.0284  0.2518
84183W        W27100   5.935  23.452   9.908  0.2973  0.1206 -0.3323
84184W        W27101  10.413  23.203   6.568 -0.2765  0.3098  0.5184
84185W        W27102   9.231  25.096   8.224 -0.1060 -0.1022  0.1234
84186W        W27103   9.676  20.750   8.920 -0.2497 -0.0116 -0.1071
84187W        W27104   9.562  26.101   9.733 -0.1614 -0.1284  0.0830
84188W        W27105  10.313  24.956   8.245  0.2083  0.0305 -0.0319
84189W        W27106  10.772  25.955   9.801  0.2770 -0.3890 -0.1870
84190W        W27107  10.131  25.384   7.438 -0.0294 -0.1419  0.2558
84191W        W27108  12.581  22.684   9.945  0.0927 -0.0174 -0.1927
84192W        W27109   7.974  22.850   9.294 -0.0558 -0.1679  0.0355
84193W        W27110   5.866  20.512   9.010 -0.0608 -0.0208 -0.1515
84194W        W27111  12.115  22.989   9.040 -0.0411  0.3059  0.0631
84195W        W27112   7.488  23.754   7.382 -0.2609  0.1773  0.0077
84196W        W27113  11.586  22.593   9.068 -0.1075  0.2092 -0.2518
84197W        W27114   8.811  22.585   7.311 -0.0880  0.1994  0.0168
84198W        W27115   9.928  24.965  10.500  0.0331  0.2639 -0.1558
84199W        W27116  10.988  23.915   8.917  0.1623 -0.1079  0.0966
84200W        W27117   8.701  24.425   9.885  0.0725  0.0297 -0.2167
84201W        W27118   7.438  23.222   7.434  0.0267 -0.1415 -0.3232
84202W        W27119   6.302  23.262   8.572  0.0006  0.1194 -0.0280
84203W        W27120   8.758  21.690   9.408  0.3238 -0.0370  0.0898
84204W        W27121   7.592  24.336   9.834 -0.1649 -0.0965 -0.0297
84205W        W27122  10.743  25.543   9.531  0.3449  0.0408  0.3010
84206W        W27123   7.964  25.806   8.031  0.0357 -0.0423  0.0436
84207W        W27124  11.164  24.516   9.060 -0.0569 -0.0836 -0.0691
84208W        W27125   7.910  23.381   7.530  0.4441  0.0492 -0.1062
84209W        W27126   9.245  26.753  11.465  0.0841  0.0215  0.0104
84210W        W27127   8.347  27.486   9.185  0.3131 -0.4890 -0.2139
84211W        W27128  11.257  23.987  10.951 -0.1524 -0.0847  0.0681
84212W        W27129   6.699  22.451   7.738 -0.4408  0.2433  0.1152
84213W        W27130   9.952  25.698   9.505  0.0459 -0.1218 -0.2353
84214W        W27131  10.317  24.570   9.834 -0.2430 -0.0947 -0.0929
84215W        W27132   8.164  24.283   6.945  0.3520 -0.1313  0.0805
84216W        W27133  10.166  24.190   9.410 -0.0335  0.0935 -0.0912
84217W        W27134   9.194  21.421   9.602  0.1573 -0.2796  0.0595
84218W        W27135   7.995  26.154   8.462 -0.1612  0.0078  0.1072
84219W        W27136   9.673  24.380   8.434 -0.0503 -0.0733  0.2700
84220W        W27137   8.846  22.585   9.321 -0.0123 -0.1915  0.1481
84221W        W27138   7.701  23.356   8.009  0.1957 -0.1143  0.0735
84222W        W27139   7.217  22.153   9.143  0.0642  0.0962  0.1229
84223W        W27140   9.093  25.911  11.134  0.1840  0.0350 -0.2547
84224W        W27141   9.520  24.072   8.796  0.2725  0.1992 -0.0813
84225W        W27142   9.307  23.313   8.206 -0.0167 -0.1308  0.3283
84226W        W27143  11.226  21.845   9.260  0.0235  0.3521 -0.1541
84227W        W27144   8.473  25.308   9.698 -0.2045  0.0762  0.0646
84228W        W27145  12.978  22.683   8.847 -0.0818 -0.0918 -0.2487
84229W        W27146  11.022  25.963   6.999  0.1428 -0.0225 -0.1376
84230W        W27147  10.668  25.319   7.900  0.0874 -0.2113  0.2296
84231W        W27148   9.590  26.631   7.962  0.1518 -0.0318  0.0222
84232W        W27149   9.896  24.819   9.978 -0.0947  0.3074  0.0389
84233W        W27150  11.145  22.323   8.200  0.1644 -0.2054 -0.0767
84234W        W27151  10.771  24.755   7.136 -0.0033  0.1245 -0.0607
84235W        W27152   9.865  24.935   8.972  0.2345  0.1914  0.0543
84236W        W27153  11.298  24.843   9.671  0.2228 -0.0126  0.1964
84237W        W27154  10.836  24.919   9.610  0.1009  0.2016  0.1743
84238W        W27155   9.489  21.252   9.175  0.2414  0.1143  0.1210
84239W        W27156  10.595  23.141   9.053  0.2776 -0.0644  0.0080
84240W        W27157   8.169  24.787   7.825 -0.4099  0.1410  0.0439
84241W        W27158   9.447  25.268   8.638 -0.0661 -0.1813 -0.2328
84242W        W27159   9.813  24.188   9.933 -0.1364 -0.1187  0.1208
84243W        W27160   9.676  23.599   8.007  0.1459  0.2699 -0.2315
84244W        W27161  10.039  25.184   9.361 -0.3270  0.2367  0.0738
84245W        W27162   7.855  25.347   6.808  0.3466 -0.1479  0.1819
84246W        W27163   7.009  24.207   9.269  0.0130 -0.2324 -0.1168
84247W        W27164   7.044  23.733   8.300 -0.1599  0.1110  0.3583
84248W        W27165   9.931  22.071   8.701  0.2726  0.0778 -0.0550
84249W        W27166   9.811  25.776  10.006 -0.0910 -0.2803  0.0505
84250W        W27167  10.946  25.024  10.082 -0.2879  0.0168  0.0126
84251W        W27168  11.455  22.203   9.493  0.0175  0.4322  0.0876
84252W        W27169   8.395  25.348   8.645  0.3654 -0.0951  0.1744
84253W        W27170  12.928  26.362   9.201  0.0200 -0.2492  0.2060
84254W        W27171  12.665  23.633   8.135 -0.2879 -0.2822  0.1449
84255W        W27172  11.071  23.867   9.431 -0.0013  0.0512  0.1126
84256W        W27173   7.771  26.644   9.645 -0.1669 -0.0984  0.4314
84257W        W27174   8.952  24.151   9.562 -0.4034 -0.1748  0.1298
84258W        W27175  10.603  22.653   8.929  0.2677  0.1034 -0.0928
84259W        W27176   7.244  23.922   6.708 -0.0695 -0.1749 -0.3743
84260W        W27177  11.160  23.349   7.959  0.1054 -0.1513 -0.1500
84261W        W27178   8.993  23.836   8.164 -0.0863 -0.1343  0.0790
84262W        W27179   6.399  24.920   7.516 -0.3541 -0.1998 -0.2779
84263W        W27180  10.694  25.524  10.156  0.3762 -0.2038  0.1081
84264W        W27181  12.577  27.165  10.249  0.0226 -0.1151 -0.0318
84265W        W27182   8.819  24.492   6.512  0.0085  0.1217 -0.1978
84266W        W27183  10.691  22.014   8.929 -0.4776  0.0411 -0.0280
84267W        W27184   7.430  24.547   9.411  0.1553 -0.2293  0.0680
84268W        W27185   9.731  25.205   8.204 -0.1253 -0.2929  0.0126
84269W        W27186   8.154  24.849   9.152  0.0677 -0.1022  0.1199
84270W        W27187   9.862  23.102   9.423 -0.0238 -0.2243 -0.1973
84271W        W27188  11.769  25.587   8.875 -0.3598  0.1236 -0.0502
84272W        W27189   9.849  23.877   9.141 -0.2188 -0.2028  0.2863
84273W        W27190   6.857  27.339  11.897  0.0082 -0.0665 -0.0623
84274W        W27191  11.799  25.077   8.886 -0.1933  0.1305  0.1304
84275W        W27192   8.750  22.609   8.854 -0.0675 -0.1872 -0.1202
84276W        W27193  10.229  25.628  10.888 -0.3687 -0.2632  0.0173
84277W        W27194   6.751  25.653   6.948  0.1109 -0.0720  0.0605
84278W        W27195   7.542  22.567   9.212  0.0858 -0.0681  0.1020
84279W        W27196   9.355  24.999   9.104 -0.0284 -0.1465 -0.2091
84280W        W27197  13.309  21.724   9.097  0.2869 -0.1158  0.1938
84281W        W27198   7.283  23.449   9.254  0.4716  0.0479  0.3575
84282W        W27199  13.546  21.556   9.574  0.4020 -0.0516  0.0555
84283W        W27200  10.475  23.015   7.561  0.0355 -0.1690 -0.0856
84284W        W27201  12.059  23.931   9.526  0.1426 -0.3223 -0.2428
84285W        W27202  10.338  23.567   6.913  0.0476  0.2229  0.0671
84286W        W27203   9.062  23.496   7.403 -0.1828  0.2388 -0.2102
84287W        W27204   6.307  22.072  10.173 -0.3065  0.0528 -0.1933
84288W        W27205   9.934  28.759  10.788 -0.0338 -0.0438 -0.3447
84289W        W27206   9.391  24.775   8.598 -0.0582  0.0068  0.2315
84290W        W27207   9.201  25.683   7.595  0.0228  0.0351 -0.2052
84291W        W27208   6.149  24.272   8.405  0.0308  0.0522  0.3355
84292W        W27209  11.591  26.339  11.302  0.0949 -0.2833  0.3167
84293W        W27210  11.595  22.065   9.013 -0.1489 -0.1458  0.0837
84294W        W27211   9.055  25.018   3.989 -0.1482  0.1675  0.0024
84295W        W27212  10.601  21.610   9.808 -0.4115 -0.1697  0.0617
84296W        W27213   9.125  26.408   9.447 -0.1376  0.0792  0.0543
84297W        W27214  12.416  22.574   9.076  0.0633  0.0829  0.1027
84298W        W27215   9.767  21.552   9.536  0.0671 -0.0687 -0.3209
84299W        W27216  10.433  25.110   9.905 -0.2160 -0.0761 -0.1795
84300W        W27217  11.532  23.911   9.691 -0.0060 -0.1598  0.0187
84301W        W27218   6.946  22.279   8.241 -0.0220  0.1787  0.3651
84302W        W27219   9.557  21.221   8.220  0.1753 -0.1237  0.0957
84303W        W27220   7.787  26.387  10.126 -0.0613  0.2338 -0.0800
84304W        W27221   9.548  24.777   8.054 -0.0986 -0.1504 -0.1078
84305W        W27222   8.793  22.556   8.016 -0.1746 -0.1898  0.3187
84306W        W27223   9.633  26.162   8.281 -0.0385 -0.2023  0.1630
84307W        W27224   7.460  25.720   8.251 -0.0459 -0.2672  0.1152
84308W        W27225  11.087  23.396   9.095  0.2034  0.0092  0.1884
84309W        W27226  10.749  26.003   8.464  0.2017 -0.0320 -0.0830
84310W        W27227   8.922  24.858   7.877 -0.0470 -0.0654 -0.0891
84311W        W27228  11.900  26.000  10.208 -0.3356  0.0733  0.0447
84312W        W27229   8.732  26.995   9.034 -0.1994 -0.0422  0.0116
84313W        W27230  10.221  21.160   9.716 -0.2231  0.2138 -0.1448
84314W        W27231   5.052  27.174  10.661 -0.1091  0.2443  0.1736
84315W        W27232   7.068  24.702   8.538 -0.2298 -0.1487 -0.0307
84316W        W27233   6.300  24.193   7.157  0.0759  0.1026 -0.0897
84317W        W27234  13.669  26.267  10.072 -0.3080  0.1471  0.1269
84318W        W27235  10.739  24.815   8.020  0.1538 -0.2755  0.2062
84319W        W27236   9.599  22.143   8.345  0.3430  0.0821  0.0838
84320W        W27237  11.683  23.642   7.294  0.2493  0.2558 -0.3415
84321W        W27238   6.977  24.382   9.731 -0.1378  0.1122  0.1790
84322W        W27239  10.317  23.860   7.326 -0.1088  0.1517  0.0936
84323W        W27240   7.758  23.539   9.224 -0.2960 -0.2015  0.5121
84324W        W27241  11.625  20.916   9.368  0.1028  0.1097 -0.2580
84325W        W27242   8.455  22.799   7.746 -0.3063 -0.1750  0.1474
84326W        W27243   6.735  24.555   8.886 -0.3489  0.1461  0.0089
84327W        W27244   6.886  25.522   9.322 -0.0975  0.1270  0.2668
84328W        W27245   8.607  24.405   8.758  0.0469  0.3032 -0.0677
84329W        W27246   6.665  25.547   8.809  0.1302 -0.2643  0.2156
84330W        W27247  14.772  26.233   8.085 -0.0743  0.2393  0.1260
84331W        W27248   9.889  24.085   8.036  0.1345  0.0080 -0.0515
84332W        W27249   8.229  22.251   8.772  0.1026 -0.0578 -0.1498
84333W        W27250  10.502  24.261   8.898 -0.0337 -0.2359 -0.0153
84334W        W27251  10.269  27.440  11.201 -0.0104  0.2364 -0.4290
84335W        W27252   9.508  24.147   9.539 -0.1481 -0.1455  0.2673
84336W        W27253   9.088  24.704   9.499 -0.1206  0.0766 -0.0075
84337W        W27254  11.534  24.113   9.253  0.3988 -0.2891  0.1983
84338W        W27255   7.633  23.151   9.619 -0.1357  0.0280  0.2134
84339W        W27256   8.474  23.753   7.926 -0.2769 -0.0249  0.1389
84340W        W27257   8.623  23.897   9.868  0.4028  0.1004  0.1167
84341W        W27258  10.459  24.726  11.179 -0.1671  0.0455 -0.0513
84342W        W27259   8.869  25.671   9.802 -0.0371  0.1819  0.1041
84343W        W27260   7.585  25.536   9.081  0.1306  0.1185 -0.0206
84344W        W27261   7.072  25.752   9.737 -0.1910 -0.2654 -0.1735
84345W        W27262  11.366  24.095  10.181 -0.0556  0.0692  0.0827
84346W        W27263   9.924  24.462   8.833  0.1325 -0.1924 -0.1902
84347W        W27264  10.387  22.695   9.718 -0.0701  0.2833 -0.0079
84348W        W27265  10.917  24.531  10.498  0.1481  0.2216  0.1660
84349W        W27266  11.228  22.878   8.626 -0.0768  0.2067 -0.1066
84350W        W27267   9.829  25.388  10.863  0.1813 -0.0047  0.2231
84351W        W27268  11.850  24.161   8.826 -0.2554  0.1987  0.0277
84352W        W27269   8.285  23.126   7.320  0.0355  0.0393  0.3371
84353W        W27270   7.918  25.905  10.234 -0.0517  0.0641  0.3261
84354W        W27271  11.799  23.837   8.504 -0.2045 -0.0539  0.0787
84355W        W27272  10.591  25.215   8.635 -0.0547 -0.1468  0.1001
84356W        W27273   9.796  22.485   6.861 -0.1527  0.1242 -0.0677
84357W        W27274  11.968  22.851  10.014 -0.0184  0.0111 -0.0668
84358W        W27275  11.491  23.492   9.445  0.0271 -0.1566 -0.0508
84359W        W27276   8.175  23.274   9.071 -0.2312  0.1207 -0.0088
84360W        W27277  10.302  24.634  10.705 -0.1765  0.4120 -0.0417
84361W        W27278  11.861  24.159  10.041  0.0671 -0.1901  0.1776
84362W        W27279  10.428  21.003   8.943 -0.1010 -0.2461 -0.0496
84363W        W27280   7.698  24.791   8.715 -0.0758  0.2763 -0.3338
84364W        W27281  10.250  23.248   8.572 -0.1247  0.2021 -0.1503
84365W        W27282  11.575  23.329   8.325  0.2008  0.1942 -0.3199
84366W        W27283  12.442  22.631   7.542 -0.0543  0.0389  0.2105
84367W        W27284   8.787  23.442   8.401 -0.2496  0.0139  0.0786
84368W        W27285   6.452  26.414   9.918  0.1940  0.1394 -0.0407
84369W        W27286   8.919  23.480   7.875  0.0736  0.2808  0.3968
84370W        W27287   8.481  25.053   7.554 -0.3448 -0.0669  0.4251
84371W        W27288  10.283  26.147   8.202 -0.0712  0.1431  0.4730
84372W        W27289  14.110  22.527   8.526 -0.3704  0.0523 -0.0788
84373W        W27290   8.184  23.428   9.578 -0.1386 -0.1244  0.1290
84374W        W27291   6.203  22.423   7.636 -0.4997  0.0535 -0.2839
84375W        W27292   8.028  24.424   8.846  0.3077  0.2651 -0.0104
84376W        W27293   9.066  21.685  10.099 -0.1018 -0.2108  0.0046
84377W        W27294   9.749  21.674   8.403 -0.3321  0.0755 -0.0887
84378W        W27295   7.182  26.819   8.492 -0.2708  0.0805 -0.0492
84379W        W27296  11.503  22.672   9.812 -0.2478 -0.1512 -0.0530
84380W        W27297   7.440  26.198   9.799  0.3254 -0.2921 -0.2279
84381W        W27298   8.186  25.526   7.626  0.0810  0.0290  0.0626
84382W        W27299   9.654  21.014   9.582 -0.0063  0.0729  0.4361
84383W        W27300   7.820  21.890   9.416 -0.1730 -0.2461 -0.1246
84384W        W27301  11.913  25.870   9.353 -0.3535  0.3232  0.1670
84385W        W27302   7.994  25.978   9.162 -0.0894  0.0569 -0.0047
84386W        W27303  10.604  23.953   8.507  0.0155  0.2365 -0.0890
84387W        W27304   8.833  27.154  10.510  0.1111  0.0434 -0.0106
84388W        W27305  10.305  24.026   9.902 -0.0146 -0.2191 -0.2135
84389W        W27306   9.069  23.251  10.233  0.0479 -0.1076 -0.0231
84390W        W27307  10.006  24.596   8.006  0.0043 -0.1570  0.2854
84391W        W27308  10.170  21.906   9.679 -0.0772  0.1440 -0.0547
84392W        W27309   9.300  27.166   9.272  0.0916  0.1418 -0.1425
84393W        W27310   7.065  25.324   8.340  0.2051  0.0192  0.0688
84394W        W27311   9.297  22.727   9.491  0.1315  0.0016  0.5930
84395W        W27312  10.493  26.797   9.137  0.1088 -0.2442  0.0587
84396W        W27313   8.965  23.584   6.439 -0.1747  0.2196 -0.1774
84397W        W27314   7.783  26.813   8.510  0.1811 -0.0017 -0.1320
84398W        W27315   8.183  24.495   7.391 -0.0940  0.0889 -0.0393
84399W        W27316   9.682  25.441   9.079 -0.0802 -0.1850  0.2314
84400W        W27317   7.492  26.285   8.427 -0.2184  0.0853  0.0847
84401W        W27318   9.753  23.504   8.660  0.0957  0.0339 -0.0051
84402W        W27319  13.786  22.324   9.112  0.3954 -0.0537  0.1928
84403W        W27320  11.611  22.106   8.144  0.0008 -0.1104 -0.1623
84404W        W27321   9.990  23.025   8.930 -0.0819 -0.2148  0.0188
84405W        W27322   7.807  22.659   8.783  0.0603 -0.0536 -0.1162
84406W        W27323  10.188  25.950   7.421  0.1380 -0.1115  0.0479
84407W        W27324   8.633  24.836   9.633 -0.1389 -0.0737 -0.2052
84408W        W27325  10.347  23.528  10.378 -0.1361 -0.0246  0.3269
84409W        W27326  13.277  22.248   9.109 -0.1951 -0.3649  0.3127
84410W        W27327   9.815  24.692   6.726 -0.1203  0.2739  0.1106
84411W        W27328   9.375  24.626   9.900  0.0196 -0.3459 -0.2894
84412W        W27329   6.683  24.070   7.447 -0.0929 -0.1459  0.0611
84413W        W27330   9.357  26.275  11.357  0.0557  0.1383 -0.3673
84414W        W27331   8.642  24.581   9.198  0.1198  0.0893 -0.0794
84415W        W27332   7.963  25.462  10.018  0.0696  0.4217 -0.0662
84416W        W27333  10.482  23.802   9.199  0.0339 -0.1585  0.0655
84417W        W27334   6.299  22.806   9.424 -0.1607 -0.0841 -0.1457
84418W        W27335   7.462  21.596   9.189 -0.1578  0.1716  0.1713
84419W        W27336  12.687  23.755   8.574  0.2241  0.2691 -0.1330
84420W        W27337   8.469  24.207   9.474 -0.0582 -0.0505  0.2735
84421W        W27338   7.938  28.635  10.615 -0.0998  0.1276 -0.0332
84422W        W27339   7.453  24.227   9.001 -0.2202 -0.1780 -0.1976
84423W        W27340  10.226  24.250   7.664 -0.1215 -0.0237  0.0361
84424W        W27341   7.889  21.389   8.948 -0.1372 -0.0533  0.1342
84425W        W27342   9.255  23.639   8.661 -0.0784  0.0639  0.1723
84426W        W27343   7.257  25.177   7.763 -0.1291  0.1956  0.3008
84427W        W27344   7.475  25.236  10.135  0.2727  0.0101  0.0821
84428W        W27345   9.793  24.558   9.602 -0.0048 -0.2425  0.3153
84429W        W27346  10.086  23.868   8.691  0.0974  0.0036  0.3419
84430W        W27347  13.455  23.085   8.008 -0.2519 -0.1535 -0.0851
84431W        W27348   9.693  26.132   7.403  0.0270 -0.2874  0.0882
84432W        W27349  11.274  25.312  10.851  0.2374  0.2810 -0.1054
84433W        W27350  12.101  25.752  10.750  0.1004  0.0301 -0.2707
84434W        W27351  11.186  24.373  11.252  0.0738 -0.1006 -0.1616
84435W        W27352  10.235  25.520   9.038 -0.1662  0.0270 -0.0001
84436W        W27353  10.299  25.709   9.847 -0.1792 -0.0051  0.1269
84437W        W27354   9.017  24.116   8.589  0.2725 -0.1631  0.1394
84438W        W27355   8.322  26.254  10.212 -0.2162  0.2777 -0.1119
84439W        W27356   6.118  25.811   9.516  0.0112  0.3105  0.3974
84440W        W27357  12.016  21.818   9.155 -0.3660  0.1292  0.1247
84441W        W27358   6.590  26.415   7.979  0.3134  0.1243 -0.1062
84442W        W27359  10.285  25.349  10.361  0.0195 -0.3069 -0.0823
84443W        W27360   7.588  23.819   8.326 -0.4258 -0.0083  0.0777
84444W        W27361   8.851  25.403   7.947  0.1014  0.0749  0.1814
84445W        W27362   8.441  25.729   8.327 -0.1426  0.2565  0.3670
84446W        W27363   9.258  25.814   5.999  0.1116 -0.1570  0.0962
84447W        W27364   6.118  24.938  10.190  0.0080  0.1389  0.2058
84448W        W27365   9.813  25.448  10.338  0.1500 -0.2249  0.2697
84449W        W27366  11.420  22.949   9.390 -0.0828 -0.3071  0.0909
84450W        W27367   7.734  24.754  10.173  0.0387 -0.0139 -0.1776
84451W        W27368  12.993  21.407   9.370 -0.2687 -0.1736  0.1180
84452W        W27369   8.213  21.601   8.559 -0.0469 -0.2999 -0.3391
84453W        W27370   8.511  23.653   7.447  0.0291 -0.2908  0.0736
84454W        W27371   6.061  25.708   7.553 -0.2329  0.1271  0.1131
84455W        W27372   7.299  25.347   9.543 -0.1529  0.4136 -0.0217
84456W        W27373   9.703  22.663   9.182 -0.1284 -0.2597  0.3287
84457W        W27374   9.861  22.809   9.785  0.0171 -0.0612 -0.1773
84458W        W27375   7.895  24.492   9.384 -0.2558  0.1357  0.3304
84459W        W27376   7.380  21.407   8.742 -0.1789  0.0056  0.2206
84460W        W27377   9.436  23.105   9.776  0.3074 -0.3015 -0.2294
84461W        W27378  10.181  24.697   9.318  0.1101 -0.0340  0.1876
84462W        W27379   8.557  23.950   8.421  0.1324  0.0658 -0.2924
84463W        W27380  11.417  25.146  10.084 -0.1535 -0.2498 -0.2365
84464W        W27381   7.091  24.116   7.679 -0.2559  0.1594 -0.2079
84465W        W27382   7.975  23.992   7.287  0.2452  0.1175 -0.0090
84466W        W27383  10.264  22.002   9.174  0.2429  0.3674 -0.0906
84467W        W27384  10.021  25.417   8.591 -0.1167 -0.3895  0.1162
84468W        W27385   9.792  26.498  10.001  0.1124  0.0682 -0.0172
84469W        W27386   9.527  23.069   8.687 -0.0702 -0.0291 -0.0517
84470W        W27387   8.561  24.637   6.967  0.0616 -0.1964 -0.3126
84471W        W27388  10.630  25.800   7.261  0.2373 -0.3501 -0.1740
84472W        W27389  11.184  23.578  10.100 -0.1624 -0.1636  0.1153
84473W        W27390  11.857  21.375   9.261  0.0751  0.0431 -0.2540
84474W        W27391  12.514  25.266   9.256 -0.2151 -0.0464 -0.0272
84475W        W27392   9.233  22.451   8.473 -0.0220 -0.0408  0.0332
84476W        W27393  11.104  22.371   9.069  0.1313  0.0586  0.0643
84477W        W27394  10.352  24.785   8.788  0.0668 -0.2602 -0.1577
84478W        W27395   8.942  25.048   8.817  0.0393 -0.0565 -0.1110
84479W        W27396  10.523  25.056   6.647 -0.0476 -0.0485 -0.1375
84480W        W27397  11.122  25.712  10.594 -0.1367 -0.0629 -0.0399
84481W        W27398   8.348  24.531   8.322 -0.2697  0.1478  0.1088
84482W        W27399   9.328  24.114  10.023 -0.0187  0.0513  0.1445
84483W        W27400   8.664  25.096   9.221 -0.0932 -0.1961  0.1364
84484W        W27401   8.271  25.790   9.538 -0.1381 -0.2351 -0.2093
84485W        W27402   9.193  25.535   9.103  0.2991 -0.0455  0.1128
84486W        W27403   8.760  20.989   8.694  0.0206 -0.3896  0.2939
84487W        W27404   7.833  21.892   9.941 -0.2124  0.1362 -0.3608
84488W        W27405   7.056  24.279   8.234  0.0959  0.0199 -0.2154
84489W        W27406  12.321  22.126   8.306 -0.2107 -0.1771 -0.0091
84490W        W27407   8.607  23.101   9.290 -0.1457 -0.0688 -0.1538
84491W        W27408  11.228  23.536   7.476  0.2818 -0.0887 -0.0767
84492W        W27409   6.235  25.851  10.067 -0.1712  0.1241 -0.1072
84493W        W27410  12.136  25.465   9.613  0.1088  0.4600 -0.1564
84494W        W27411   8.360  27.186   2.657 -0.0468  0.2230  0.0661
84495W        W27412   8.079  27.328   0.995 -0.1526  0.2450  0.0682
84496W        W27413  11.607  25.708  31.144  0.0406 -0.0705 -0.0237
84497W        W27414  10.590  25.957   0.207  0.0694 -0.0730 -0.2172
84498W        W27415   9.693  25.121   0.742 -0.3215 -0.6782 -0.1577
84499W        W27416   8.447  28.699  31.229  0.1936 -0.2031 -0.1056
84500W        W27417   8.269  24.720   3.117  0.2192  0.0137 -0.2352
84501W        W27418   9.547  29.108   2.531  0.2853 -0.1984 -0.0481
84502W        W27419  10.565  27.546   2.864  0.0142  0.1411 -0.0694
84503W        W27420   9.144  25.760   2.009 -0.1992 -0.0828  0.2088
84504W        W27421   7.696  26.736   1.837 -0.1820 -0.3509 -0.2795
84505W        W27422   8.480  30.767   4.039  0.0627 -0.1304 -0.0999
84506W        W27423   9.981  26.031  31.680 -0.1679 -0.1344  0.0431
84507W        W27424   7.849  26.407   2.310 -0.1079 -0.0924  0.1502
84508W        W27425   9.212  27.135   2.250 -0.3838  0.1386  0.2539
84509W        W27426   8.099  29.555  31.431  0.5367 -0.3204  0.1737
84510W        W27427   8.642  26.614   2.101 -0.0057  0.2841 -0.2993
84511W        W27428   9.163  24.828   0.676 -0.4424 -0.0436  0.1563
84512W        W27429   9.885  27.848   1.202 -0.2134  0.0723 -0.4631
84513W        W27430   9.801  25.133   2.376 -0.1146  0.1370 -0.0126
84514W        W27431   8.788  26.063   0.961 -0.0701 -0.0577 -0.5243
84515W        W27432   8.350  28.901   1.831  0.4943  0.1011  0.2143
84516W        W27433   8.241  26.726  31.647  0.1877 -0.1040 -0.1317
84517W        W27434   8.185  26.724   0.742  0.0252  0.0672 -0.0391
84518W        W27435   9.487  26.505   1.516  0.1246  0.0835  0.1585
84519W        W27436   8.698  24.389   0.208 -0.0561 -0.0616  0.1907
84520W        W27437  11.235  26.793  31.599 -0.0006  0.2951 -0.5397
84521W        W27438   8.601  28.938   0.803  0.1455 -0.1135  0.3967
84522W        W27439  11.540  29.677   3.374 -0.2792  0.3318  0.1864
84523W        W27440  10.813  26.650   1.933  0.2772  0.1420 -0.0759
84524W        W27441   7.370  29.574  31.812 -0.0561  0.1290 -0.0767
84525W        W27442   5.756  29.136   2.413  0.2503 -0.0885 -0.1272
84526W        W27443   9.813  30.149   2.210  0.2244  0.0055  0.3595
84527W        W27444  11.739  27.647   1.921  0.1069 -0.4417 -0.2191
84528W        W27445  11.607  27.718   4.438  0.1216  0.4234  0.0407
84529W        W27446   7.211  30.350   6.372 -0.2791  0.0551  0.4525
84530W        W27447   7.727  29.282  31.156 -0.1563  0.2285  0.0476
84531W        W27448  10.535  29.392   4.852 -0.0516 -0.0587  0.1477
84532W        W27449   9.483  28.256   3.794  0.1106  0.1421 -0.0701
84533W        W27450   9.934  26.454   2.087 -0.1923  0.1110  0.1062
84534W        W27451   8.548  26.952  31.304 -0.1942 -0.2207  0.0801
84535W        W27452   7.889  29.244   0.234 -0.0589 -0.1079 -0.0703
84536W        W27453   8.679  24.817  31.893 -0.0486  0.0585 -0.4911
84537W        W27454   9.847  27.146   4.778 -0.1594 -0.1435 -0.2917
84538W        W27455   8.205  29.094   3.120  0.0513  0.2917  0.5432
84539W        W27456  11.162  26.261   4.297 -0.1833  0.4690 -0.0671
84540W        W27457   9.625  29.274   0.219 -0.0349 -0.0315 -0.0358
84541W        W27458   7.998  25.751  30.790 -0.0802 -0.4304  0.0719
84542W        W27459   8.571  28.139   0.737  0.0255  0.0968  0.2789
84543W        W27460   9.687  26.268  31.372 -0.0520  0.2269  0.1755
84544W        W27461   9.512  26.786   1.913  0.2870  0.1532  0.1231
84545W        W27462   8.149  31.011   0.507 -0.4025 -0.0870  0.1178
84546W        W27463   7.896  25.138   1.710 -0.0129 -0.2885  0.2237
84547W        W27464   9.513  25.430   3.240 -0.1817  0.2536 -0.0678
84548W        W27465   9.872  25.810   1.269 -0.0622 -0.0365 -0.1787
84549W        W27466   9.513  26.855   4.096  0.2779 -0.2977  0.1403
84550W        W27467   8.282  27.867   5.801 -0.1034 -0.3395 -0.1084
84551W        W27468   7.680  26.927   3.411 -0.1345 -0.4713  0.1532
84552W        W27469   9.224  29.476  29.977 -0.2481 -0.1804 -0.0168
84553W        W27470   9.673  28.768   2.208 -0.0234 -0.0492  0.2079
84554W        W27471   8.202  27.547  31.211 -0.3965 -0.0212 -0.2184
84555W        W27472   7.301  29.468   1.090  0.1449  0.0985 -0.0552
84556W        W27473   7.464  27.035   4.732 -0.0059  0.2591  0.0717
84557W        W27474   8.770  27.186   5.464  0.2984 -0.0499  0.6256
84558W        W27475   7.965  24.968  30.708 -0.3919 -0.0506  0.0679
84559W        W27476  11.714  30.184   4.672 -0.0995  0.0813  0.1279
84560W        W27477   8.443  29.048   2.689  0.2326  0.1183  0.1008
84561W        W27478  10.567  26.693   1.231 -0.0545  0.4113  0.0815
84562W        W27479   8.427  29.741   1.735 -0.0455  0.2462  0.0014
84563W        W27480   8.839  27.946   4.612  0.1909  0.1470 -0.0102
84564W        W27481   9.212  25.765   1.132  0.0928  0.2291  0.1410
84565W        W27482  10.988  25.047   1.583  0.2022  0.3289  0.0025
84566W        W27483  10.969  26.097   2.644  0.0728  0.2341 -0.0019
84567W        W27484   8.706  26.296  30.135  0.1051  0.2555  0.0198
84568W        W27485   8.305  28.770  31.713 -0.1315  0.1183  0.3556
84569W        W27486  11.198  27.587   5.066 -0.1587 -0.0684  0.2112
84570W        W27487  10.096  27.373  31.253 -0.1064 -0.0895 -0.4181
84571W        W27488   8.224  30.018   3.951  0.2344  0.1610 -0.1435
84572W        W27489   8.784  25.633   4.647  0.5185 -0.1608  0.3862
84573W        W27490  10.004  29.232   4.741  0.1790  0.0887 -0.2175
84574W        W27491   6.634  27.247  30.014 -0.0615 -0.0812  0.1889
84575W        W27492   7.315  28.306   2.545  0.1193 -0.3039  0.0623
84576W        W27493   8.560  26.820   1.618  0.0066  0.0424 -0.2900
84577W        W27494   7.970  25.100   2.224  0.0056 -0.0546 -0.3346
84578W        W27495   8.512  26.329   0.589 -0.0980 -0.3295  0.2389
84579W        W27496  10.130  24.587  31.637 -0.3698  0.1220 -0.3476
84580W        W27497   7.984  25.577   3.034 -0.0209  0.1172  0.1512
84581W        W27498  11.515  24.768   1.567 -0.5002  0.1120  0.0869
84582W        W27499   9.563  29.742   0.824 -0.1291  0.2198 -0.0982
84583W        W27500  10.205  28.229   1.919 -0.0043 -0.0611 -0.1352
84584W        W27501  10.490  27.643   0.372 -0.2625  0.2276  0.2367
84585W        W27502  11.144  28.100  31.819  0.1491  0.0971  0.0660
84586W        W27503   8.816  27.096   2.941  0.1448 -0.5494 -0.2515
84587W        W27504   8.624  26.636   1.036  0.1419  0.1042  0.1997
84588W        W27505   8.933  26.650   3.256  0.1366  0.0136  0.1339
84589W        W27506   7.373  25.300   1.545  0.0011  0.3674  0.1605
84590W        W27507  10.967  28.613   3.606  0.0396 -0.1962 -0.0657
84591W        W27508   9.676  22.530  29.309 -0.0221 -0.1893 -0.1268
84592W        W27509   9.912  26.282   1.458  0.1479  0.1110  0.0475
84593W        W27510   9.844  24.204   1.970  0.0452 -0.1576 -0.2062
84594W        W27511   8.545  30.623   1.344  0.1369  0.1361  0.0490
84595W        W27512  10.944  27.202   3.479 -0.2404  0.1191 -0.2316
84596W        W27513   9.970  28.373   2.379 -0.0782 -0.2330 -0.0617
84597W        W27514  11.765  27.235   2.297  0.0382 -0.1500  0.0922
84598W        W27515  10.737  28.774   4.077  0.0703 -0.0399 -0.2442
84599W        W27516   9.747  28.096   4.161 -0.3016  0.1286 -0.0472
84600W        W27517   6.844  27.278   0.931  0.1182  0.3293 -0.0603
84601W        W27518  10.121  29.511   2.036 -0.1496  0.1676  0.2383
84602W        W27519   9.720  27.624   3.866 -0.3318  0.0540  0.1645
84603W        W27520   9.593  25.570   1.646 -0.3979 -0.0962 -0.0101
84604W        W27521  11.752  27.325   2.815 -0.1018 -0.0769 -0.0111
84605W        W27522   8.752  28.457   1.955 -0.0387 -0.4355 -0.3558
84606W        W27523   9.363  28.103   2.387 -0.0584 -0.0745 -0.0535
84607W        W27524  12.779  23.933   0.815  0.2869 -0.0869  0.0284
84608W        W27525  10.311  27.448   2.400 -0.1721  0.0975 -0.0519
84609W        W27526   8.526  26.446  31.383 -0.2171 -0.0689  0.3485
84610W        W27527   8.408  27.574   0.655  0.0331 -0.0663 -0.1046
84611W        W27528   9.327  28.348   1.178 -0.0506 -0.0964 -0.1081
84612W        W27529   8.230  31.350   0.147  0.1771 -0.1193  0.0251
84613W        W27530   7.510  27.388  31.792 -0.0041 -0.5824 -0.2013
84614W        W27531  10.598  27.089   2.169 -0.0953  0.0538 -0.1241
84615W        W27532  13.960  27.594   0.098  0.0867  0.0092 -0.3079
84616W        W27533   9.322  27.975   4.675 -0.1641  0.1916  0.2461
84617W        W27534   9.819  25.665   2.704 -0.0538 -0.0783 -0.0914
84618W        W27535   8.322  28.306   1.165  0.0587  0.1715  0.0450
84619W        W27536   8.359  28.225   3.888  0.2560  0.2895 -0.1875
84620W        W27537  10.272  24.520   1.091  0.0053 -0.2511  0.3499
84621W        W27538  10.482  26.814   0.708 -0.2200 -0.1002 -0.1281
84622W        W27539   8.735  24.706   1.482 -0.2975 -0.0126 -0.0300
84623W        W27540   9.540  28.374  31.756  0.0792  0.3683 -0.0251
84624W        W27541  10.301  25.030   0.134  0.1998 -0.0260  0.2986
84625W        W27542  10.370  24.088   0.461 -0.1282 -0.1594  0.1971
84626W        W27543   8.547  28.379   4.702  0.0389  0.1637 -0.2640
84627W        W27544   9.106  28.114   1.987  0.5165  0.0145  0.0540
84628W        W27545   8.840  27.857   2.527  0.3807  0.0174  0.0843
84629W        W27546   8.220  25.712  31.289 -0.3868  0.0428 -0.0428
84630W        W27547  10.840  27.615  31.230 -0.1149 -0.0138 -0.1078
84631W        W27548   8.694  27.435   3.378  0.3372 -0.0668 -0.1140
84632W        W27549   9.995  28.742   4.829 -0.0160  0.1587 -0.0087
84633W        W27550  11.529  27.018   3.179 -0.1421  0.1895 -0.1803
84634W        W27551  10.259  26.209   3.278  0.1582  0.0265 -0.1065
84635W        W27552   8.723  28.304  31.101  0.1168 -0.0943 -0.2836
84636W        W27553  10.523  25.610   2.058 -0.0438 -0.2689 -0.1992
84637W        W27554   6.496  28.048   0.819  0.3374  0.1853  0.0194
84638W        W27555   9.593  26.964   1.385  0.4218 -0.0233 -0.2429
84639W        W27556  11.479  25.886   2.170 -0.0371  0.1271 -0.0667
84640W        W27557  10.838  26.198   3.504 -0.1819 -0.0693 -0.0105
84641W        W27558   9.432  27.901   1.447 -0.0053 -0.0088  0.1578
84642W        W27559  10.416  26.221   1.513  0.1321 -0.0883  0.1604
84643W        W27560   9.567  26.223   2.401 -0.3718  0.2949  0.0265
84644W        W27561  10.156  25.829  31.229 -0.1662 -0.0977 -0.1227
84645W        W27562   9.036  26.619   4.243 -0.0231  0.1886  0.0008
84646W        W27563   8.481  26.740   4.904  0.4292  0.1845  0.4081
84647W        W27564   7.520  29.348   2.456  0.0375 -0.2452 -0.2536
84648W        W27565   9.697  28.491   3.330 -0.1615 -0.0591  0.0589
84649W        W27566   8.053  27.673   1.330  0.2026  0.1067  0.0578
84650W        W27567  10.340  26.312   5.329  0.1605 -0.0578  0.0879
84651W        W27568  10.081  26.751   0.152  0.1315 -0.2081  0.1984
84652W        W27569   6.493  28.678   0.175 -0.2520 -0.1115  0.0626
84653W        W27570   7.849  29.165   1.124  0.0110  0.0635 -0.1415
84654W        W27571   7.450  24.755   4.819  0.2168 -0.0076 -0.0082
84655W        W27572   9.947  27.994   3.103 -0.2871  0.0934  0.0667
84656W        W27573   8.618  28.577   1.490  0.0167  0.2058 -0.3837
84657W        W27574   9.140  27.295   3.403  0.0283  0.2262  0.2247
84658W        W27575   9.344  29.620   2.547  0.0984  0.0946  0.1113
84659W        W27576   9.084  26.892   3.694 -0.0257  0.0516 -0.0396
84660W        W27577   8.341  30.158   1.458 -0.2554  0.0169 -0.0924
84661W        W27578   8.198  28.386   0.048  0.0607  0.1704 -0.1010
84662W        W27579   7.472  27.066   1.535  0.0226  0.0772  0.2122
84663W        W27580  11.723  27.253   1.199  0.0027 -0.2326  0.0579
84664W        W27581  10.291  26.166   2.005 -0.3019 -0.0646  0.0656
84665W        W27582   8.221  26.251   1.042 -0.2253  0.1500  0.0076
84666W        W27583   8.863  26.004   3.478  0.0789 -0.1905  0.1539
84667W        W27584   9.027  29.822   3.813 -0.5900  0.1023 -0.0350
84668W        W27585   8.352  25.229   1.827  0.0013  0.2439  0.2484
84669W        W27586  11.454  26.412   1.280  0.2859  0.2831 -0.2610
84670W        W27587   9.697  27.279   2.040 -0.0651 -0.1819  0.3214
84671W        W27588  10.522  27.300   5.727 -0.1556  0.2458 -0.1537
84672W        W27589   9.232  25.286   0.974 -0.2468 -0.2738 -0.2396
84673W        W27590  10.465  27.045   2.693  0.2222  0.2093  0.1942
84674W        W27591   8.054  25.629   1.023 -0.1354  0.0644  0.1039
84675W        W27592   7.220  27.389   1.890  0.1767  0.0178  0.3300
84676W        W27593  10.474  28.880   3.117  0.0428  0.0847  0.2145
84677W        W27594   8.264  28.604   2.355  0.0539 -0.2198 -0.0282
84678W        W27595   8.653  29.369   1.991  0.1457  0.1089  0.0174
84679W        W27596   9.228  27.533   6.058  0.0553  0.1007 -0.1439
84680W        W27597   9.884  26.205   2.850 -0.0644 -0.2724  0.0596
84681W        W27598   8.530  25.992   2.225 -0.2342 -0.0968  0.0260
84682W        W27599   8.951  26.098   0.307  0.0098  0.1233  0.3975
84683W        W27600  10.236  25.768   1.699  0.0482 -0.0037  0.1246
84684W        W27601  10.163  27.988   2.607  0.1403  0.5464 -0.0564
84685W        W27602   8.247  28.575   2.862  0.0943 -0.1548  0.1404
84686W        W27603   9.302  26.567   5.623 -0.0110  0.0206 -0.0119
84687W        W27604   8.789  23.835   1.882 -0.0555 -0.1349  0.0016
84688W        W27605  11.601  28.699   1.630  0.2056  0.2615  0.0108
84689W        W27606   9.099  27.745   3.743  0.2789  0.0115 -0.2444
84690W        W27607   9.213  29.244   2.870  0.1657  0.2452  0.1532
84691W        W27608   8.285  29.323  31.836 -0.1799  0.2737  0.0261
84692W        W27609   8.964  30.433   1.471 -0.1225  0.0386  0.2628
84693W        W27610  11.218  25.771   3.343  0.2318  0.2750  0.1934
84694W        W27611   9.289  27.637   2.433  0.0776 -0.1580 -0.0078
84695W        W27612   8.004  29.233   1.666 -0.4267 -0.1476  0.3481
84696W        W27613   7.620  29.005   3.505  0.1440  0.0428  0.1905
84697W        W27614  10.672  24.663  31.459 -0.1567 -0.0083 -0.2400
84698W        W27615   9.568  28.341   0.478  0.3322  0.0997  0.2394
84699W        W27616   8.435  27.209   2.162 -0.3065  0.1895 -0.1682
84700W        W27617  10.951  26.668   0.913  0.2939  0.0253  0.0769
84701W        W27618   9.961  24.950   1.157  0.1324 -0.1699 -0.0567
84702W        W27619   8.043  25.269   5.368 -0.1011  0.0690  0.2896
84703W        W27620   8.026  25.550   1.494 -0.2868  0.5875 -0.0605
84704W        W27621  12.156  28.430   2.918 -0.1515  0.3696  0.0890
84705W        W27622   7.411  29.137   4.483 -0.0101 -0.0462  0.0195
84706W        W27623   9.206  30.395   4.691  0.0044 -0.0371  0.1393
84707W        W27624   7.590  26.225   5.251 -0.3424  0.1355 -0.1150
84708W        W27625   8.545  27.539   1.493  0.2325 -0.1510 -0.0288
84709W        W27626  10.179  27.008  31.702 -0.0427 -0.1260  0.0046
84710W        W27627   8.695  27.994   3.513 -0.0680  0.2941 -0.1878
84711W        W27628   9.585  27.155   3.653 -0.0771  0.4034 -0.0543
84712W        W27629   9.555  25.700   0.802  0.2838  0.2505  0.1701
84713W        W27630  10.416  26.571   2.329 -0.1310  0.1185 -0.1563
84714W        W27631   9.286  26.855   1.024 -0.1815 -0.4105  0.0946
84715W        W27632  12.927  27.571   0.246 -0.4305 -0.0693  0.1116
84716W        W27633   9.424  24.862   1.094 -0.0758  0.0002 -0.0320
84717W        W27634   8.060  28.425   1.822  0.1330  0.0014 -0.2564
84718W        W27635   6.353  27.230   2.592 -0.0296 -0.0088 -0.0539
84719W        W27636  10.479  28.151   3.714 -0.2821  0.2581  0.1524
84720W        W27637  11.305  27.113   0.020  0.2935  0.1214 -0.0383
84721W        W27638  11.127  26.254  31.579  0.1611 -0.2515 -0.0506
84722W        W27639   7.853  27.237   2.058  0.0690 -0.2830 -0.2409
84723W        W27640   9.703  27.322   4.229 -0.2154  0.2511 -0.2171
84724W        W27641   7.760  26.635   4.289 -0.2221  0.0961  0.0879
84725W        W27642  10.638  28.968   2.181 -0.1959 -0.2707 -0.1118
84726W        W27643  10.010  27.071   1.686  0.1061  0.2044 -0.3059
84727W        W27644   9.530  26.592   3.608  0.1826 -0.3178 -0.1618
84728W        W27645  11.858  27.226   0.691  0.0666 -0.2525 -0.1007
84729W        W27646  10.848  26.446  30.728 -0.0485  0.0475 -0.1070
84730W        W27647   9.046  26.667   1.818  0.0008 -0.0190 -0.1998
84731W        W27648   9.374  26.871   3.213  0.2908 -0.0954  0.0156
84732W        W27649   9.743  25.695   0.310  0.1641  0.1524 -0.1763
84733W        W27650  11.369  27.475   3.461  0.2007  0.1324 -0.0579
84734W        W27651   9.882  27.552   1.651  0.0708  0.0847 -0.4047
84735W        W27652   9.173  29.158   2.186  0.2358  0.0403 -0.1345
84736W        W27653   9.991  24.641   0.223 -0.0737 -0.2169 -0.1113
84737W        W27654   6.663  25.983   1.313 -0.1557  0.2086  0.0941
84738W        W27655   7.760  27.971   5.969 -0.1462 -0.1834 -0.2783
84739W        W27656   8.314  27.832  31.717  0.1784  0.2067 -0.2068
84740W        W27657   9.714  26.367   0.153  0.1288  0.1040 -0.2156
84741W        W27658   9.273  27.211   1.767 -0.1235  0.1558  0.1377
84742W        W27659  10.085  27.813   3.531  0.0431  0.1163  0.1747
84743W        W27660   7.794  27.296  30.932 -0.0196  0.1336  0.2316
84744W        W27661  12.636  25.981   4.256  0.2247  0.1010  0.3216
84745W        W27662   8.095  29.840   3.527 -0.0146  0.2893 -0.0231
84746W        W27663  10.095  26.637   2.795 -0.2111 -0.1455 -0.1387
84747W        W27664   9.804  29.567   2.962 -0.0344 -0.0303  0.0089
84748W        W27665   7.255  26.591   4.349  0.2449 -0.1894  0.0587
84749W        W27666   7.886  29.555   0.760  0.3990  0.2844 -0.0797
84750W        W27667  10.389  25.910   1.166 -0.0019 -0.1656  0.1465
84751W        W27668  11.355  26.891   3.727  0.0023 -0.2497 -0.1178
84752W        W27669   8.626  27.856   1.138 -0.0782  0.2006 -0.2054
84753W        W27670  11.607  27.921   5.281 -0.0873 -0.2167 -0.2393
84754W        W27671  10.577  27.973   4.519 -0.0064 -0.1934  0.0155
84755W        W27672   9.373  28.058   2.935  0.1594  0.1477 -0.0055
84756W        W27673  10.561  29.489   5.390  0.4014 -0.0147  0.2823
84757W        W27674   8.980  27.583   0.606  0.0032 -0.0465 -0.0501
84758W        W27675   7.908  27.984   3.666  0.2190  0.0102  0.1747
84759W        W27676   9.004  26.654   4.844 -0.2205  0.0721 -0.1412
84760W        W27677  10.179  27.524   4.561 -0.1111 -0.0975 -0.0828
84761W        W27678   8.625  27.166   3.986 -0.2272  0.2092  0.3819
84762W        W27679   8.671  27.570   0.152  0.0446  0.0851  0.0213
84763W        W27680   8.482  29.276   1.521 -0.1517  0.0522  0.2850
84764W        W27681  10.042  29.165   2.352 -0.1529  0.0199 -0.1498
84765W        W27682   9.061  28.296   3.463  0.1791 -0.2051 -0.0391
84766W        W27683   8.187  28.176   3.288 -0.2145 -0.1448 -0.3414
84767W        W27684   8.887  28.904   1.778 -0.3777  0.0080  0.0667
84768W        W27685  10.714  28.478   1.323  0.1319  0.0195 -0.1413
84769W        W27686   9.924  28.491   2.875 -0.2281 -0.0030  0.0614
84770W        W27687   9.295  25.197   1.496  0.1257 -0.0296 -0.0481
84771W        W27688  10.785  29.944   2.114 -0.0140  0.3982  0.0186
84772W        W27689   6.949  30.888   0.400  0.0329  0.3083  0.1619
84773W        W27690   9.128  29.373   1.687 -0.0578  0.0799  0.1795
84774W        W27691   8.886  28.196   2.990  0.0427 -0.1888  0.1322
84775W        W27692  11.580  27.332   5.361 -0.0616  0.1723  0.1963
84776W        W27693  10.592  28.507   0.092  0.1746  0.0011 -0.0845
84777W        W27694  11.531  25.539   1.597  0.2191  0.0286 -0.0782
84778W        W27695  10.939  24.855  31.860 -0.2235 -0.1431  0.0986
84779W        W27696  12.512  27.641   2.997 -0.2008  0.0508 -0.1031
84780W        W27697  10.472  27.185   1.065 -0.2838 -0.0744 -0.1505
84781W        W27698   9.136  26.017  31.287  0.2899  0.1340  0.1616
84782W        W27699   8.108  28.314   6.108 -0.0489 -0.0170  0.1714
84783W        W27700  11.057  25.658   2.863 -0.5213  0.1777 -0.0986
84784W        W27701   7.332  27.876   1.300 -0.0850 -0.2416  0.1346
84785W        W27702  11.077  29.820   1.690 -0.0930  0.0978 -0.2988
84786W        W27703   6.801  22.403   2.357  0.1123  0.0816  0.1355
84787W        W27704   7.593  27.390   1.152 -0.0407 -0.2577  0.2880
84788W        W27705  12.007  26.037   2.995 -0.3895 -0.0349  0.2499
84789W        W27706   7.583  24.969  30.354 -0.3795 -0.0664  0.0198
84790W        W27707  10.095  26.823   1.253  0.0274  0.0693  0.2828
84791W        W27708  10.014  28.884   3.427  0.0562  0.1293  0.5991
84792W        W27709   8.213  28.228   4.349 -0.1347 -0.2260 -0.0309
84793W        W27710   8.997  29.705   2.150 -0.4506 -0.0624 -0.0836
84794W        W27711   7.268  26.921   2.123  0.1004  0.0864 -0.1011
84795W        W27712  11.124  27.150   2.548 -0.0220  0.2034  0.0342
84796W        W27713   8.687  26.982   4.466 -0.2625 -0.1657  0.0397
84797W        W27714  12.082  26.442   2.556  0.1575 -0.1038  0.0285
84798W        W27715   8.673  27.130   0.692  0.2941 -0.0353 -0.1421
84799W        W27716   9.421  26.144   0.475  0.2001  0.3400  0.2339
84800W        W27717   8.298  29.258   5.504  0.0060  0.2497  0.0834
84801W        W27718   7.159  24.994   4.192  0.1326 -0.4068  0.0079
84802W        W27719   7.860  27.612   0.507 -0.1240 -0.0849 -0.4766
84803W        W27720  10.241  27.217   3.097  0.0773 -0.0433 -0.1247
84804W        W27721   9.080  24.346   0.531  0.1826 -0.2841 -0.2213
84805W        W27722  10.967  29.005   3.231  0.1603  0.1895  0.1286
84806W        W27723   8.725  26.882   2.472  0.0899 -0.0790 -0.2915
84807W        W27724   9.426  26.086  31.760 -0.3687  0.4991  0.0585
84808W        W27725   9.044  26.400   1.300  0.2793 -0.2626 -0.1485
84809W        W27726   8.809  27.214   1.850 -0.0665 -0.0550 -0.1957
84810W        W27727   9.862  29.677   4.492 -0.1155  0.1035  0.3988
84811W        W27728   6.180  22.569   2.890  0.1214 -0.1520  0.2536
84812W        W27729   8.875  27.386   1.065 -0.0748 -0.0264  0.0642
84813W        W27730  11.204  26.288   2.161  0.0094  0.0940  0.2988
84814W        W27731   9.795  28.565   1.621  0.3161 -0.3520  0.2017
84815W        W27732   9.530  25.194   1.936  0.2426  0.0887  0.2742
84816W        W27733   9.679  28.606   1.027 -0.1433 -0.0879 -0.1351
84817W        W27734   8.094  27.325   4.198 -0.1703 -0.0847 -0.0678
84818W        W27735   9.586  29.549   4.037 -0.0875  0.2200 -0.0692
84819W        W27736   8.855  29.031   1.242 -0.0810  0.1726  0.0785
84820W        W27737   8.415  24.403   1.123 -0.0425 -0.0003 -0.1322
84821W        W27738   8.566  26.366   1.459 -0.0905  0.2961 -0.0529
84822W        W27739   9.371  28.890   1.276 -0.2339 -0.1327  0.1577
84823W        W27740  11.140  26.753   2.924  0.0265 -0.2545  0.1882
84824W        W27741  10.307  25.957   2.818 -0.5178 -0.0802 -0.0114
84825W        W27742   9.991  29.067   1.824  0.1742  0.3152  0.2756
84826W        W27743  11.633  27.065   1.784  0.1786  0.0151  0.1087
84827W        W27744  10.531  27.487   3.546  0.0640  0.2002 -0.2469
84828W        W27745  10.439  29.839   3.200 -0.1803  0.2343  0.1082
84829W        W27746   8.830  25.049   1.115  0.1327  0.1042 -0.0402
84830W        W27747   6.805  27.221   5.135  0.0277 -0.0993 -0.2532
84831W        W27748   6.770  30.199   1.055 -0.0759  0.1807  0.2021
84832W        W27749   9.216  26.509   0.188  0.0563 -0.0781 -0.0071
84833W        W27750   9.981  31.430   1.300 -0.2551  0.1880  0.2976
84834W        W27751   8.121  27.200   0.508  0.1299 -0.2931  0.0178
84835W        W27752  11.842  28.903   3.127 -0.2136  0.0632  0.0479
84836W        W27753   8.134  27.904   0.885 -0.1473  0.4575  0.0170
84837W        W27754  10.571  24.517  31.950 -0.0028  0.3636 -0.0017
84838W        W27755   9.777  23.759  31.579  0.0410 -0.0361  0.1260
84839W        W27756   7.652  27.976   6.471 -0.1697  0.0412 -0.0362
84840W        W27757   7.945  28.931   2.603  0.0716  0.0315  0.2910
84841W        W27758   8.829  26.237  30.844 -0.1094  0.0819  0.2560
84842W        W27759   7.773  28.712   3.050 -0.0440  0.0638 -0.3212
84843W        W27760  11.475  25.442   2.424  0.0475  0.1040 -0.0104
84844W        W27761   7.691  25.252   3.808 -0.1073 -0.1273 -0.1632
84845W        W27762   8.331  28.570   0.628 -0.1246  0.0780 -0.2394
84846W        W27763   7.634  25.126  31.349  0.0516  0.2300 -0.0121
84847W        W27764   9.877  27.349   0.312 -0.1499 -0.0310 -0.0584
84848W        W27765   7.926  25.694   3.571 -0.1183 -0.1127  0.1032
84849W        W27766   6.359  27.534   2.139  0.3334  0.0507  0.2964
84850W        W27767  10.352  28.687   1.627 -0.0992 -0.0507 -0.1021
84851W        W27768   7.363  27.477   2.372  0.1053 -0.0523 -0.0713
84852W        W27769   8.083  24.289   0.809 -0.1401 -0.0623 -0.0556
84853W        W27770  11.816  26.694   3.527 -0.0623  0.2413  0.2504
84854W        W27771   7.269  27.329  29.828 -0.0701 -0.0523 -0.2353
84855W        W27772   8.864  27.674   5.060  0.2777  0.0666  0.1451
84856W        W27773   8.742  27.379   5.960 -0.1160  0.3873  0.1058
84857W        W27774   7.149  25.368  31.312  0.0161 -0.0917 -0.1387
84858W        W27775   7.703  27.013   3.882 -0.0743  0.1342  0.1793
84859W        W27776  11.064  28.755  30.422 -0.5069 -0.1691  0.0031
84860W        W27777   9.242  27.760   0.179 -0.0843 -0.1436 -0.1289
84861W        W27778   7.853  29.975   4.456 -0.2126  0.1026  0.1907
84862W        W27779   9.740  27.323   2.530  0.0779 -0.1510  0.0780
84863W        W27780   6.418  25.449   5.275 -0.0471  0.3211  0.1336
84864W        W27781  10.684  26.255   0.935 -0.0403  0.2324  0.1992
84865W        W27782  11.414  27.992   4.808  0.1902  0.4084 -0.0399
84866W        W27783   9.639  29.388   1.575  0.0618 -0.1738  0.0296
84867W        W27784  11.669  26.349   1.932 -0.1382  0.1268 -0.1315
84868W        W27785   8.798  28.513   0.495  0.1035  0.0190  0.0926
84869W        W27786   7.227  25.636   4.266 -0.2450 -0.0712  0.1947
84870W        W27787   8.504  27.373   4.683  0.0469 -0.0258  0.0358
84871W        W27788  11.416  26.902   1.248 -0.1006 -0.0221 -0.2053
84872W        W27789   8.126  24.310   2.363 -0.0811 -0.3932 -0.1120
84873W        W27790  10.904  26.374   1.467  0.4989 -0.1400  0.0765
84874W        W27791   8.947  28.170   1.435  0.0720  0.3803 -0.0196
84875W        W27792   9.939  27.842   2.125  0.0587 -0.1954  0.1195
84876W        W27793   8.853  25.133   1.693 -0.1652 -0.3864 -0.1881
84877W        W27794   9.527  26.537   2.855  0.0396  0.3715 -0.0467
84878W        W27795   8.893  27.319   2.549  0.0697  0.2423 -0.2576
84879W        W27796   9.427  28.550   2.601 -0.1418  0.2195 -0.1849
84880W        W27797   8.382  25.827   0.565  0.0860  0.2491  0.3012
84881W        W27798  10.627  27.553  31.808  0.1604  0.2790  0.3526
84882W        W27799  10.192  27.394   6.459 -0.0046  0.2969 -0.3101
84883W        W27800   9.915  27.096   5.716 -0.4773  0.1787  0.1014
84884W        W27801   9.424  29.956   4.251 -0.3571 -0.0418 -0.1076
84885W        W27802  11.866  27.677   2.471  0.0213  0.4752 -0.1150
84886W        W27803   7.603  26.494   2.787  0.0809 -0.0894  0.1576
84887W        W27804   9.092  28.297  31.519  0.1149  0.2706  0.1371
84888W        W27805   9.363  26.002   1.535  0.4474  0.0839  0.1009
84889W        W27806  10.321  26.627   1.761 -0.1836  0.1924 -0.0228
84890W        W27807   8.406  25.870   2.779 -0.2539  0.4787  0.0780
84891W        W27808   8.977  24.073   0.965 -0.0230 -0.5002  0.3150
84892W        W27809   9.687  27.818   2.607  0.1051 -0.0502  0.2179
84893W        W27810   9.157  28.511   1.660 -0.2845 -0.1525 -0.1465
84894W        W27811  10.404  29.568   9.521 -0.1863 -0.0848 -0.1653
84895W        W27812   6.305  26.204   6.184  0.1014  0.1379 -0.0764
84896W        W27813  12.916  27.319   2.750 -0.0674 -0.0180 -0.0851
84897W        W27814  11.812  26.684   1.527 -0.1206  0.3090 -0.1073
84898W        W27815   5.909  27.213   5.332 -0.1167 -0.0231 -0.2559
84899W        W27816   8.853  30.044   9.008 -0.2711 -0.1354  0.2177
84900W        W27817   9.169  27.573   8.576  0.2654  0.3225 -0.0666
84901W        W27818   7.978  29.882   7.258 -0.2028  0.0719  0.1295
84902W        W27819  10.469  29.462   8.175  0.1966 -0.0223 -0.1557
84903W        W27820   9.032  28.312   4.925  0.0952  0.0469  0.0366
84904W        W27821   6.845  28.647   5.964 -0.0692  0.1256 -0.2600
84905W        W27822   8.531  30.070   8.159 -0.0910  0.0216  0.1543
84906W        W27823   7.750  25.637   4.611  0.0843  0.2464  0.2174
84907W        W27824   6.892  24.755   6.723  0.2330 -0.0338  0.1790
84908W        W27825  10.557  27.706   6.263  0.0439  0.5137  0.1127
84909W        W27826   7.546  27.506   5.487  0.3180 -0.0173 -0.2615
84910W        W27827   9.706  27.356   5.332 -0.0041 -0.0373  0.3333
84911W        W27828   9.326  26.380   5.126 -0.0144 -0.1110  0.2404
84912W        W27829   8.139  30.465   5.923  0.2574 -0.1347 -0.0412
84913W        W27830   9.291  27.549   7.062  0.1579 -0.0984  0.1331
84914W        W27831  10.935  25.731   6.541  0.2725  0.2708 -0.1854
84915W        W27832   8.600  29.304   6.845 -0.0089  0.0279 -0.0667
84916W        W27833   9.409  26.320   4.146 -0.3334  0.1764 -0.0739
84917W        W27834   6.299  26.875   5.293 -0.2669 -0.0734  0.0108
84918W        W27835   8.258  28.000   7.428  0.2618 -0.0131  0.2902
84919W        W27836   8.611  26.420   6.212 -0.0215  0.0956 -0.0418
84920W        W27837   9.956  26.800   6.513  0.0165  0.1399 -0.0242
84921W        W27838   8.582  28.123   8.198  0.1600  0.0893  0.0323
84922W        W27839   8.535  28.877   7.616 -0.2542 -0.0691  0.0654
84923W        W27840   9.277  26.659   9.100 -0.0435  0.4089  0.0862
84924W        W27841   7.730  26.552   5.697  0.1866 -0.1675  0.3317
84925W        W27842   8.011  28.221   5.615  0.0831 -0.1727 -0.0251
84926W        W27843  10.108  28.574   8.404  0.2016 -0.3018 -0.0674
84927W        W27844   9.663  28.128   6.350 -0.1201 -0.1225 -0.1278
84928W        W27845   9.829  28.628   9.331  0.1017 -0.1680  0.1293
84929W        W27846   8.804  29.009  10.154  0.3964 -0.0995 -0.1137
84930W        W27847   7.348  27.435   5.977  0.1392  0.0241  0.1477
84931W        W27848   9.497  30.729   7.865  0.2045 -0.1177  0.2219
84932W        W27849   9.046  28.893   7.452  0.3148  0.0642 -0.5151
84933W        W27850   8.765  26.866   7.770 -0.2144  0.1409 -0.3255
84934W        W27851  10.291  27.019   6.126 -0.0439 -0.0564 -0.2004
84935W        W27852  10.148  30.025   6.153 -0.1901 -0.0027 -0.1094
84936W        W27853   9.921  28.057   5.898 -0.0080 -0.4198 -0.2204
84937W        W27854  10.338  28.747   9.402  0.2009 -0.4227 -0.3599
84938W        W27855   8.516  30.149   6.080 -0.1648  0.0538  0.1711
84939W        W27856  10.083  26.496   7.372 -0.5036  0.2693  0.3164
84940W        W27857   7.359  27.479   7.641  0.2698  0.2338 -0.0651
84941W        W27858  12.422  28.115   4.487  0.0999  0.3551 -0.0618
84942W        W27859   8.653  25.110   3.353  0.2566  0.2801 -0.1292
84943W        W27860  10.669  28.294   5.473 -0.2274  0.0667  0.1658
84944W        W27861   8.466  26.540   6.632  0.1662 -0.0890 -0.0352
84945W        W27862   9.138  30.198   7.498  0.2146 -0.0380  0.0565
84946W        W27863   8.103  28.062   4.825 -0.0394  0.2032 -0.2763
84947W        W27864  10.415  28.186   8.182  0.0253 -0.0812 -0.4662
84948W        W27865   9.639  26.830   5.310 -0.0148 -0.2316 -0.2467
84949W        W27866   9.957  26.506   6.068  0.0755 -0.1292  0.0899
84950W        W27867   9.983  27.590   7.182 -0.1228 -0.2052  0.0804
84951W        W27868   9.957  27.670   7.839 -0.0889  0.0241 -0.1754
84952W        W27869  12.170  28.223   3.626  0.0068  0.3938 -0.0948
84953W        W27870  10.661  28.508   6.259  0.0199 -0.1806 -0.0153
84954W        W27871   8.569  27.819   6.202 -0.0359 -0.0104 -0.0662
84955W        W27872   7.152  27.733   6.350  0.1226  0.4534 -0.2746
84956W        W27873   8.113  29.109   8.456  0.2572  0.0530  0.0397
84957W        W27874   9.648  27.644   8.670 -0.0853  0.0143 -0.1336
84958W        W27875   9.225  27.275   4.048  0.0773  0.0343 -0.0682
84959W        W27876  12.389  29.596   7.607  0.1501 -0.0073 -0.1104
84960W        W27877   7.557  31.068   8.022  0.1652  0.0405 -0.0608
84961W        W27878  10.291  26.333   4.657 -0.2157  0.3977  0.0140
84962W        W27879  10.888  29.335   8.565  0.1566 -0.2621 -0.1266
84963W        W27880   9.375  28.011   7.788 -0.0896 -0.0670 -0.0307
84964W        W27881   8.388  25.968   4.623  0.0992 -0.1636 -0.1564
84965W        W27882   9.189  25.776   4.471  0.2809  0.0339 -0.3761
84966W        W27883   9.965  26.234   6.974 -0.2112 -0.1967  0.1158
84967W        W27884   7.368  27.001   6.221 -0.0899  0.0070  0.2256
84968W        W27885  10.624  27.741   4.032 -0.1239  0.1040  0.3036
84969W        W27886  10.417  29.666   8.600 -0.2444  0.2509  0.1053
84970W        W27887   9.863  26.372   5.046 -0.0572  0.1984  0.0853
84971W        W27888   8.699  31.654   6.117  0.1481 -0.0139  0.4530
84972W        W27889   9.321  29.377   7.389 -0.2216  0.0253 -0.0560
84973W        W27890  10.779  29.084   8.086  0.1426 -0.1584 -0.0484
84974W        W27891   8.341  28.912   5.938 -0.1170  0.1856 -0.2656
84975W        W27892   8.239  28.583   7.381  0.1927 -0.2284 -0.2126
84976W        W27893   8.344  28.620   6.368  0.0009  0.1293  0.4032
84977W        W27894   9.206  26.428   8.199  0.0618 -0.1687  0.0659
84978W        W27895   8.242  28.596   6.886  0.0468  0.1255 -0.3003
84979W        W27896  12.770  26.649   3.848  0.0815  0.0333 -0.0203
84980W        W27897   8.007  27.280   8.463 -0.1589 -0.2215  0.0928
84981W        W27898  11.035  26.656   5.227  0.1335  0.3311 -0.1925
84982W        W27899   8.564  29.385   5.056  0.2071 -0.0048  0.2472
84983W        W27900  12.026  28.772   5.051 -0.0390  0.0428  0.0314
84984W        W27901   9.866  28.489   5.211 -0.1615  0.1704 -0.1753
84985W        W27902   9.599  25.906   4.260  0.1233  0.0001 -0.1230
84986W        W27903   7.431  25.602   6.596 -0.3305 -0.1722  0.2089
84987W        W27904   7.602  26.508   6.195  0.1735 -0.0015  0.0504
84988W        W27905   6.776  25.221   7.796  0.0100 -0.1864  0.2254
84989W        W27906   6.467  27.045   6.349 -0.5494  0.1382 -0.4617
84990W        W27907  10.264  27.393   7.553  0.0406  0.0802 -0.4382
84991W        W27908   6.835  24.164   5.063  0.1674  0.0023 -0.1766
84992W        W27909  12.086  26.835   3.981 -0.0444  0.0140  0.3868
84993W        W27910   8.620  27.594   7.441  0.2094 -0.1896  0.2868
84994W        W27911   6.321  26.485   3.939  0.0045 -0.0238  0.1785
84995W        W27912   9.932  25.767   8.156 -0.0892 -0.2142  0.1690
84996W        W27913   9.386  28.538   6.097 -0.0764 -0.2744 -0.3196
84997W        W27914   9.479  28.266   9.237 -0.0328 -0.1524 -0.1414
84998W        W27915  11.143  28.361   5.401  0.3073  0.0692 -0.0970
84999W        W27916   7.255  25.945   6.892 -0.1088 -0.0142  0.3884
85000W        W27917   6.661  25.530   3.243 -0.1459  0.1957  0.0566
85001W        W27918   6.904  29.559   6.830  0.2164  0.2512  0.0214
85002W        W27919   8.536  29.451   8.203  0.0747 -0.1770  0.1111
85003W        W27920   8.165  26.661   7.000  0.1186  0.0265 -0.2825
85004W        W27921   9.639  28.271   7.104  0.0273 -0.2936  0.2819
85005W        W27922   8.649  26.423   7.090 -0.0434 -0.4392  0.0058
85006W        W27923   6.963  27.285   6.457  0.1831  0.0224  0.1591
85007W        W27924  10.861  25.360   6.889 -0.0937 -0.0382  0.0143
85008W        W27925  10.560  27.128   6.660 -0.4574  0.0633  0.0146
85009W        W27926  10.728  28.147   7.709 -0.2930 -0.1174 -0.2039
85010W        W27927   8.332  25.377   3.896  0.2045  0.2774 -0.3341
85011W        W27928  10.426  30.455   7.612  0.0505 -0.3046  0.1769
85012W        W27929   8.220  26.845   4.333  0.2361  0.2123  0.0544
85013W        W27930   7.842  29.232   5.618 -0.2425 -0.1366 -0.2352
85014W        W27931   8.510  30.651   6.952 -0.3096  0.0202 -0.5183
85015W        W27932  10.076  26.988   7.339 -0.1798 -0.1089 -0.0215
85016W        W27933   8.260  28.607   8.428 -0.0307 -0.3554  0.1378
85017W        W27934   9.757  26.689   6.994 -0.1835  0.0649  0.1893
85018W        W27935   8.157  28.022   7.897 -0.1122 -0.2939  0.2365
85019W        W27936   8.200  29.761   9.037  0.1143  0.1541  0.1886
85020W        W27937   9.642  26.150   5.760  0.2073  0.0484  0.2513
85021W        W27938  10.853  27.573   6.586  0.1821  0.0912 -0.0813
85022W        W27939   9.239  28.924  10.584 -0.0206  0.0022 -0.1283
85023W        W27940  11.845  29.369   6.017 -0.0673  0.0032  0.1783
85024W        W27941  11.356  23.966   4.048  0.0693 -0.0448  0.1316
85025W        W27942  11.140  25.736   4.173  0.1294  0.0755  0.1769
85026W        W27943   9.451  29.374   9.607  0.3222 -0.0471  0.3277
85027W        W27944  10.741  27.250   6.235  0.0156  0.1063  0.3366
85028W        W27945   8.048  27.818   8.367 -0.0765 -0.1933 -0.0698
85029W        W27946   9.276  27.053   4.540  0.0781  0.0927  0.0867
85030W        W27947   9.848  28.067   4.980  0.1050 -0.3513 -0.0743
85031W        W27948   7.321  28.981   7.283  0.0020 -0.3495 -0.0521
85032W        W27949   9.472  28.323  10.168  0.0663 -0.1608  0.1072
85033W        W27950   9.541  29.694   8.257  0.1183  0.1336  0.0183
85034W        W27951   9.121  28.280   7.290  0.0354  0.0210  0.1687
85035W        W27952   9.343  26.271   1.916 -0.0242 -0.1425 -0.2516
85036W        W27953   9.171  28.025   6.301  0.2706  0.0197  0.1012
85037W        W27954   8.485  29.312   4.361 -0.2074 -0.3135  0.1561
85038W        W27955   8.633  26.047   6.797 -0.1605 -0.1157  0.0235
85039W        W27956   9.901  27.414   8.272 -0.0407 -0.1312 -0.1204
85040W        W27957   8.776  27.417   6.977 -0.0646 -0.1129  0.2881
85041W        W27958  11.574  27.782   7.535 -0.1482  0.3163 -0.1466
85042W        W27959  12.118  27.656   4.407 -0.2188  0.1485  0.1743
85043W        W27960  10.325  28.576   7.081 -0.1853  0.0851 -0.0403
85044W        W27961   8.004  27.094   4.885  0.0834  0.0769  0.1235
85045W        W27962   8.968  25.157   7.497 -0.1637 -0.0863  0.5215
85046W        W27963   9.149  26.914   8.209  0.1482  0.2057  0.1688
85047W        W27964   8.421  27.886   6.979  0.2815  0.1208  0.1622
85048W        W27965   9.042  29.071   8.906  0.1539 -0.3674  0.0253
85049W        W27966  10.358  28.509   5.888 -0.2679 -0.1407  0.3958
85050W        W27967  10.690  27.123   8.679 -0.2347 -0.2522 -0.0737
85051W        W27968  10.472  26.958   4.482  0.0250 -0.0580 -0.2406
85052W        W27969   8.281  29.188   7.229  0.0556 -0.0786 -0.1421
85053W        W27970   9.243  28.587   3.027 -0.3723 -0.3040  0.2865
85054W        W27971   7.023  25.184   5.825 -0.0985 -0.2120 -0.1374
85055W        W27972  10.314  28.396   7.549  0.1636 -0.0272  0.3221
85056W        W27973   9.405  28.609   5.182  0.1192  0.0624  0.1766
85057W        W27974  11.399  28.466   8.329 -0.2527  0.2620 -0.0002
85058W        W27975   9.497  27.999   3.385  0.1013 -0.3256 -0.1202
85059W        W27976  11.394  25.803   7.754 -0.0191  0.1379  0.0033
85060W        W27977   6.828  27.815   5.424 -0.0430 -0.2524 -0.3968
85061W        W27978  10.039  26.765   3.285  0.1724 -0.0634  0.3982
85062W        W27979   7.664  27.706   7.267 -0.1734  0.1539 -0.0640
85063W        W27980  10.627  26.306   7.160  0.2389  0.1774  0.0616
85064W        W27981  11.406  25.473   4.495 -0.2826  0.2082 -0.0193
85065W        W27982   7.403  26.990   8.039 -0.2183 -0.0096  0.1844
85066W        W27983   7.797  26.906   6.463  0.0120  0.3803  0.0507
85067W        W27984   8.660  28.000   7.751 -0.1107 -0.0960  0.1124
85068W        W27985  12.380  26.284   6.331  0.3258  0.0628  0.3823
85069W        W27986   9.523  25.534   2.321 -0.0663 -0.0712 -0.0875
85070W        W27987  10.300  30.773   9.087 -0.1029  0.4782 -0.2661
85071W        W27988   9.361  27.813   9.074 -0.0167  0.1071  0.0568
85072W        W27989   6.031  25.900   5.961  0.1097 -0.2847  0.1673
85073W        W27990  10.436  28.221   8.692 -0.0556  0.1875 -0.3487
85074W        W27991   9.262  28.413   6.590  0.2454  0.1023 -0.1486
85075W        W27992   7.914  27.773   6.814 -0.0938  0.2563  0.0854
85076W        W27993   8.000  28.394   8.777 -0.1124  0.0621 -0.0330
85077W        W27994   8.211  26.988   3.768  0.1004  0.1359 -0.0867
85078W        W27995   8.874  27.869   7.149  0.1094 -0.0726 -0.0797
85079W        W27996   8.856  27.650   9.045 -0.1328 -0.2111  0.1353
85080W        W27997  10.216  27.670  10.634 -0.1557  0.1822  0.1111
85081W        W27998   8.434  26.919   6.003 -0.0052  0.1977  0.0945
85082W        W27999   8.270  26.698   7.901  0.1204  0.1092  0.0414
85083W        W28000   8.864  25.972   6.306 -0.2987  0.1219 -0.2153
85084W        W28001  10.537  26.746   7.465 -0.0165 -0.0830 -0.1630
85085W        W28002  10.416  27.785   6.766  0.0247  0.0967 -0.2128
85086W        W28003  10.703  30.329   8.952  0.1284  0.0871  0.0314
85087W        W28004   9.939  26.543   5.551  0.0751  0.1387 -0.0223
85088W        W28005  12.658  30.019   3.956  0.0462 -0.1875 -0.2753
85089W        W28006   9.435  26.066   7.799  0.0077  0.0219 -0.1160
85090W        W28007   9.659  28.781   6.548 -0.1265  0.0584 -0.1374
85091W        W28008   6.450  26.647   5.945  0.0035  0.0074 -0.2249
85092W        W28009   9.769  27.683   6.265 -0.0991  0.1610  0.1663
85093W        W28010  10.816  26.835   6.982 -0.0513 -0.1656 -0.0134
85094W        W28011   7.024  29.708   7.787  0.2413 -0.0890  0.0420
85095W        W28012  11.801  27.246   4.081  0.1536 -0.1351  0.3207
85096W        W28013   9.079  29.227   6.992  0.0966 -0.1478 -0.1115
85097W        W28014  12.219  26.131   4.445  0.0811 -0.0869  0.0257
85098W        W28015   9.677  28.447   5.629  0.0361  0.0478 -0.3617
85099W        W28016   9.207  28.008   6.815 -0.2041  0.1434  0.0856
85100W        W28017  10.610  26.726   8.065 -0.1469  0.2473 -0.0294
85101W        W28018   9.309  26.356   3.227  0.1227 -0.1043 -0.1607
85102W        W28019   8.103  26.484   5.325 -0.2293 -0.1147  0.1166
85103W        W28020   8.652  27.330   8.696  0.2447  0.0027 -0.0577
85104W        W28021  10.100  28.120   4.503  0.0742 -0.0548  0.0911
85105W        W28022   6.898  27.066   6.015  0.0385  0.1197  0.0943
85106W        W28023   8.757  30.251   9.972  0.0248  0.1241  0.0973
85107W        W28024   9.156  28.199   8.840  0.2344 -0.0620 -0.3835
85108W        W28025  10.898  27.115   4.728  0.0554 -0.0212  0.0174
85109W        W28026   9.120  25.506   3.625 -0.0497  0.4015  0.3418
85110W        W28027   8.379  29.002   8.100  0.1016  0.1642  0.1387
85111W        W28028   9.200  29.068   5.969  0.0172 -0.0873  0.1417
85112W        W28029  10.607  27.553   5.343 -0.1023 -0.1849  0.4765
85113W        W28030  10.083  27.694   5.504 -0.2134  0.0332 -0.0066
85114W        W28031   9.774  28.212   8.659  0.4519 -0.3198  0.1292
85115W        W28032  12.318  27.712   4.879 -0.2939  0.1892 -0.1284
85116W        W28033   9.638  29.045   5.007  0.2141 -0.1408 -0.2741
85117W        W28034   7.862  27.238   6.858  0.2907 -0.2205 -0.1913
85118W        W28035   9.188  27.037   8.802  0.0304 -0.3588 -0.1004
85119W        W28036   9.429  27.728   5.070  0.0998 -0.1097 -0.1813
85120W        W28037   9.496  26.815   5.947 -0.0531 -0.0386  0.1258
85121W        W28038  11.479  25.055   8.144  0.0714 -0.1042 -0.1154
85122W        W28039   9.226  26.506   7.665  0.2334 -0.1397 -0.0333
85123W        W28040   9.327  27.025   7.574 -0.0254  0.0476 -0.0142
85124W        W28041   7.145  27.886   7.891  0.2374 -0.0260 -0.1971
85125W        W28042   8.597  28.337   9.521 -0.3101  0.2063 -0.1025
85126W        W28043   9.904  26.751   4.472  0.0609 -0.1638  0.0230
85127W        W28044  11.549  26.547   5.297 -0.0875 -0.1896 -0.2670
85128W        W28045  11.865  26.862   5.617 -0.6193 -0.1281 -0.1953
85129W        W28046  10.674  27.613   4.876  0.2153 -0.1652  0.2163
85130W        W28047   6.588  27.960   8.118  0.0565 -0.0673 -0.1048
85131W        W28048  10.044  26.225   9.575  0.4082  0.1600  0.1813
85132W        W28049   8.403  25.844   6.090 -0.3969 -0.0606  0.0682
85133W        W28050   8.717  25.798   7.726 -0.1135 -0.1989  0.0312
85134W        W28051   7.933  29.966   6.656  0.0743 -0.1136  0.0309
85135W        W28052   9.883  28.948   5.454 -0.0170 -0.0615 -0.1708
85136W        W28053  10.371  26.759   5.583  0.0731 -0.5001  0.0812
85137W        W28054   6.499  26.989   4.137  0.0969  0.2684 -0.3418
85138W        W28055   7.103  30.574   8.955  0.1471 -0.1028 -0.1271
85139W        W28056   9.876  26.013   5.355 -0.1228  0.1161  0.1413
85140W        W28057   9.279  27.119   6.281 -0.0878 -0.1710  0.1986
85141W        W28058  10.039  29.764   7.251 -0.0422  0.1595 -0.2664
85142W        W28059  10.617  27.711   9.047 -0.3897 -0.0008 -0.0229
85143W        W28060  10.403  27.165   4.933 -0.2591  0.1033  0.1240
85144W        W28061  11.667  27.284   7.871 -0.0743  0.1367  0.2247
85145W        W28062   8.177  27.608   3.393 -0.0100  0.1894 -0.0334
85146W        W28063   8.789  27.124   7.348 -0.1113 -0.0220 -0.2506
85147W        W28064   7.850  30.332   7.120 -0.2169 -0.2424  0.0191
85148W        W28065   7.422  28.778   7.752  0.1217 -0.0026  0.0754
85149W        W28066   8.759  29.297   7.389 -0.2352  0.2563  0.0802
85150W        W28067   9.772  25.727   7.700  0.0644  0.1557  0.2647
85151W        W28068  10.915  27.802   7.014  0.1546  0.0851 -0.1501
85152W        W28069   7.860  28.418   7.620 -0.1857  0.0664 -0.2953
85153W        W28070  10.099  28.628   6.316  0.3399 -0.0941  0.0968
85154W        W28071   9.827  28.033   7.509  0.6090  0.1693 -0.0089
85155W        W28072   7.713  27.881   7.888  0.2018 -0.2954  0.0480
85156W        W28073  10.515  30.027   7.397 -0.1473 -0.1344  0.2869
85157W        W28074   9.392  28.493   4.258 -0.1666 -0.1040 -0.1157
85158W        W28075   9.417  28.025   5.905 -0.3227 -0.1351  0.1244
85159W        W28076   6.955  28.319   7.787 -0.2541 -0.0832 -0.2274
85160W        W28077  10.273  25.835   8.656  0.2387 -0.1904 -0.2206
85161W        W28078  10.363  27.121   8.266  0.2720 -0.3590  0.1458
85162W        W28079   8.135  26.578   6.214  0.2608 -0.2322 -0.2086
85163W        W28080   8.300  30.071   6.926  0.1799  0.0648  0.0699
85164W        W28081  10.185  30.046   9.648 -0.0235 -0.1227  0.0355
85165W        W28082   6.191  29.069   6.718  0.2497  0.4618  0.0002
85166W        W28083   7.474  26.102   5.864  0.1947 -0.1728 -0.0506
85167W        W28084  10.573  26.071   2.380 -0.0485 -0.1517 -0.1570
85168W        W28085  10.147  27.847   4.049  0.0491  0.1399 -0.0174
85169W        W28086  10.717  29.929   9.411  0.1108  0.1467 -0.0907
85170W        W28087   9.379  27.179   5.036  0.0932 -0.1308 -0.1550
85171W        W28088   7.732  28.609   6.236  0.3245 -0.3007 -0.1450
85172W        W28089   7.209  28.597   4.776  0.0785  0.0523 -0.3143
85173W        W28090   9.422  28.924   5.550 -0.1491  0.0056  0.0136
85174W        W28091   8.740  30.323   4.779  0.2066 -0.1469 -0.2092
85175W        W28092  10.185  28.817   9.894 -0.0543  0.1062 -0.0815
85176W        W28093  12.057  26.405   5.448  0.0109 -0.2008  0.0450
85177W        W28094  10.103  28.076   7.081  0.0331 -0.2457 -0.3885
85178W        W28095  10.472  27.921   5.853  0.2281  0.1293  0.0303
85179W        W28096  11.970  29.795   9.679  0.2907 -0.0139  0.0756
85180W        W28097  10.616  28.162   7.072  0.1889  0.0795  0.1221
85181W        W28098   7.568  26.431   3.318  0.1054 -0.1097  0.0945
85182W        W28099   7.904  29.227   7.984 -0.4787 -0.0486  0.0596
85183W        W28100  11.017  26.110   7.538  0.2091 -0.3234  0.1795
85184W        W28101   8.661  30.109   7.301  0.1258 -0.4315 -0.1706
85185W        W28102  10.228  29.147   5.175  0.0725 -0.1797 -0.1525
85186W        W28103   6.139  26.400   5.544 -0.2736 -0.2864 -0.0635
85187W        W28104   8.644  28.300   7.297  0.1331  0.0328  0.0772
85188W        W28105  11.296  25.868   5.781  0.1100  0.0562  0.0179
85189W        W28106  10.052  27.629   5.001  0.1287 -0.1396  0.3796
85190W        W28107  11.367  27.865   8.835 -0.1838  0.1887 -0.0809
85191W        W28108   7.949  29.842   5.519  0.0337 -0.3032  0.0626
85192W        W28109   8.697  28.587   8.091 -0.0273 -0.0787 -0.0330
85193W        W28110   9.534  28.484   7.573 -0.0724 -0.1339 -0.0346
85194W        W28111   8.185  26.744   3.299  0.2794 -0.1244  0.0384
85195W        W28112   9.104  27.535   4.642  0.0535  0.2173  0.1929
85196W        W28113   8.550  28.810   9.203 -0.0243  0.0458 -0.0066
85197W        W28114   9.530  25.094   6.541 -0.2745  0.2267 -0.1360
85198W        W28115   7.011  28.257   7.225 -0.3546 -0.1977 -0.0461
85199W        W28116  11.831  28.198   5.683  0.0439 -0.1701  0.2573
85200W        W28117  10.398  28.098   9.294 -0.0782  0.1667 -0.2778
85201W        W28118   7.937  28.908   7.614 -0.1145  0.0780 -0.1601
85202W        W28119   9.976  26.826   3.949 -0.3047  0.1595  0.1822
85203W        W28120   9.686  27.429   9.111 -0.1207 -0.0927  0.3621
85204W        W28121  12.702  26.436   3.218 -0.0130  0.1181  0.1811
85205W        W28122  10.705  28.761  10.061 -0.3120  0.2374 -0.0671
85206W        W28123   6.765  28.276   6.722 -0.0999  0.1178  0.1743
85207W        W28124  10.996  26.936   4.266  0.0100 -0.0541 -0.0097
85208W        W28125   9.200  29.713   7.782 -0.0531 -0.1842 -0.0321
85209W        W28126  11.070  25.578   7.375 -0.1853 -0.3087  0.1441
85210W        W28127  12.490  30.691   9.074  0.1790 -0.0078  0.0131
85211W        W28128   7.883  27.038   5.979 -0.0199  0.0124 -0.3320
85212W        W28129  11.263  28.719   4.039 -0.2337  0.0883  0.1958
85213W        W28130   8.710  26.205   5.290  0.1963  0.1436  0.3353
85214W        W28131   7.929  28.878   4.259 -0.0884 -0.1296 -0.1002
85215W        W28132   8.802  27.598   4.227 -0.0945  0.1458 -0.0801
85216W        W28133   9.546  29.882   7.334 -0.2394  0.0634 -0.1216
85217W        W28134   7.867  26.436   6.609  0.1877  0.0732  0.0027
85218W        W28135  11.200  29.947   7.829  0.1763 -0.1293 -0.1176
85219W        W28136  10.865  27.367   8.153  0.2454  0.1629  0.1608
85220W        W28137   9.771  26.201   3.399  0.1116 -0.1361  0.0273
85221W        W28138   8.104  27.524   7.503 -0.0950  0.0919 -0.2300
85222W        W28139   8.080  29.134   4.684 -0.1482 -0.1315 -0.0072
85223W        W28140  12.084  27.270   6.461 -0.0798  0.1714  0.2593
85224W        W28141  10.493  27.418   7.139 -0.0696  0.0033  0.3230
85225W        W28142   9.522  29.840   3.608 -0.0417 -0.1711 -0.0458
85226W        W28143  12.021  25.582   7.496 -0.2313 -0.0897  0.0253
85227W        W28144   9.968  29.958   8.675  0.1054  0.3898  0.3746
85228W        W28145   8.198  29.640   8.501  0.0611 -0.0579 -0.1050
85229W        W28146   9.633  27.143   7.173  0.3330  0.1125  0.3250
85230W        W28147   9.601  28.456   8.183  0.1475 -0.2497  0.1004
85231W        W28148   8.881  28.468   4.381  0.1316 -0.0824  0.1610
85232W        W28149   9.715  27.593   5.793 -0.0919 -0.1578 -0.0491
85233W        W28150  11.169  28.768   7.273  0.0635 -0.0981 -0.0995
85234W        W28151   8.929  26.839   5.844  0.2440  0.1411 -0.0779
85235W        W28152   9.761  29.650   7.711  0.5406 -0.0311  0.3682
85236W        W28153   8.714  24.299   8.086  0.3993 -0.3684 -0.1073
85237W        W28154  12.491  26.611   4.664 -0.0595  0.2051  0.0991
85238W        W28155  10.834  26.003   4.526  0.2689  0.0695 -0.0785
85239W        W28156   7.836  28.308   8.294 -0.0570 -0.0534 -0.1751
85240W        W28157   7.337  26.365   4.817 -0.1541  0.3044 -0.1048
85241W        W28158   9.135  27.087   6.752  0.1816  0.2434 -0.3626
85242W        W28159   7.459  27.834   8.335 -0.3990  0.0721  0.0138
85243W        W28160   8.330  27.057   6.528  0.0513 -0.1452 -0.2388
85244W        W28161   8.703  28.117   9.081  0.1317  0.0284  0.1344
85245W        W28162   9.161  28.162   5.477  0.1581  0.1550 -0.1655
85246W        W28163   9.059  25.242   4.552  0.2127 -0.0478 -0.3769
85247W        W28164  11.716  27.568   4.932 -0.0813 -0.1320 -0.2266
85248W        W28165   6.783  27.510   7.003  0.1344 -0.0776  0.4445
85249W        W28166   5.507  27.099   5.093  0.1106 -0.2906 -0.3918
85250W        W28167   9.590  28.379   4.722 -0.0728  0.2685 -0.0357
85251W        W28168  12.268  28.345   5.508  0.1514 -0.1932  0.0769
85252W        W28169   7.685  27.465   6.421  0.0619 -0.3322  0.1216
85253W        W28170  10.453  29.130   8.743  0.2031 -0.3906 -0.1268
85254W        W28171   8.384  27.298   5.202 -0.1095 -0.1056 -0.1704
85255W        W28172   9.994  26.010   9.104 -0.0186 -0.2538  0.1555
85256W        W28173   8.163  27.515   8.029 -0.1284  0.1352  0.1047
85257W        W28174   6.483  26.027   4.835  0.4351 -0.0826 -0.0810
85258W        W28175   8.685  28.877   6.577 -0.6014  0.0022  0.1533
85259W        W28176   9.184  28.857   6.394  0.0024  0.1795  0.1567
85260W        W28177  10.268  28.839   4.357 -0.0632 -0.2446  0.0909
85261W        W28178   9.970  28.197   7.910  0.0034 -0.0017 -0.0333
85262W        W28179   9.181  31.502   8.251 -0.0902  0.2576 -0.1929
85263W        W28180   7.352  26.501   6.738 -0.2572  0.0595 -0.1664
85264W        W28181  11.249  28.464   4.886 -0.0910  0.0719  0.1550
85265W        W28182   9.227  28.749   7.961  0.3550 -0.1596 -0.1520
85266W        W28183  11.900  29.393   3.557 -0.3083 -0.1184 -0.0059
85267W        W28184  10.276  24.936   7.145 -0.1036  0.0159 -0.0022
85268W        W28185   8.955  24.818   5.589 -0.0453  0.1132 -0.0342
85269W        W28186   8.691  26.357   7.656 -0.2087 -0.0065  0.2026
85270W        W28187   7.450  28.674  10.390  0.3262 -0.3105  0.0111
85271W        W28188   9.955  28.362   6.714 -0.2208  0.1374 -0.2435
85272W        W28189   8.559  27.003   8.221 -0.4022  0.0865 -0.0687
85273W        W28190  11.314  27.319   4.606 -0.1403  0.1422  0.1423
85274W        W28191   8.700  29.638   5.472 -0.0376  0.2715 -0.1782
85275W        W28192   6.822  27.489   7.685  0.0212 -0.0311  0.2206
85276W        W28193   8.474  26.814   5.415  0.0923 -0.1083 -0.1272
85277W        W28194   9.102  27.568   7.540 -0.2445  0.2326 -0.0586
85278W        W28195  10.731  28.936   7.150  0.1616 -0.0557 -0.2215
85279W        W28196  11.116  28.172   7.292  0.1050  0.1015  0.0550
85280W        W28197   7.177  26.475   5.369 -0.0934 -0.1351 -0.0356
85281W        W28198  11.589  27.717   3.833  0.0671  0.0011  0.2644
85282W        W28199  12.236  29.233   8.921  0.1118 -0.1262  0.1792
85283W        W28200  12.520  30.509   7.723 -0.0825  0.1587 -0.1365
85284W        W28201  10.309  28.919   7.532 -0.0495 -0.1999 -0.0502
85285W        W28202  10.742  27.052   5.290  0.0510 -0.0643 -0.0865
85286W        W28203   7.424  25.875   4.904 -0.2396 -0.1728  0.0704
85287W        W28204   9.270  27.144   5.645 -0.0262  0.2957 -0.1504
85288W        W28205   9.374  27.746   4.233  0.0741 -0.0846  0.0341
85289W        W28206   8.818  27.802   6.636  0.0034  0.2897 -0.1234
85290W        W28207   8.499  28.380   5.734  0.2506  0.1324  0.0694
85291W        W28208  10.007  25.494   3.785  0.1007 -0.1795  0.0971
85292W        W28209   8.333  29.366   7.713 -0.3524  0.0103  0.3135
85293W        W28210  10.206  28.075   6.301 -0.2831  0.3332  0.2247
85294W        W28211   8.022  28.308  11.064  0.1141  0.3753  0.0550
85295W        W28212   9.010  28.494  10.314 -0.3493  0.2594  0.1150
85296W        W28213   9.564  27.119   8.523  0.0227  0.1848  0.1197
85297W        W28214  10.686  26.562  11.215  0.1688 -0.0489  0.2593
85298W        W28215   7.955  25.232   8.834  0.1391  0.1068  0.4823
85299W        W28216  10.914  28.738   9.502  0.0368 -0.2429 -0.3099
85300W        W28217  11.371  25.901  10.213 -0.0546 -0.2060  0.1874
85301W        W28218  13.854  29.873  10.255 -0.1012  0.2798  0.2312
85302W        W28219  10.778  27.107   7.693  0.1367 -0.1017  0.3555
85303W        W28220   8.787  25.674   8.872  0.1644 -0.0127  0.2548
85304W        W28221   9.536  26.827   9.605 -0.1099 -0.2640 -0.1315
85305W        W28222   6.946  28.888  11.000  0.2150 -0.1616 -0.0080
85306W        W28223  11.404  27.532  10.799 -0.1243  0.1032  0.4358
85307W        W28224   8.705  26.536   9.264  0.2877 -0.4502 -0.2109
85308W        W28225   9.054  25.281   9.544  0.0770  0.1944 -0.1512
85309W        W28226   8.271  27.836   8.815  0.0775  0.2068 -0.0080
85310W        W28227   8.126  29.542  11.066  0.0756 -0.0666 -0.0713
85311W        W28228   8.122  26.376  10.673 -0.4152  0.3331  0.2542
85312W        W28229   8.560  29.257   9.054 -0.2097 -0.0014  0.4125
85313W        W28230   8.564  27.601   8.310  0.1209 -0.0051  0.1278
85314W        W28231   7.096  27.181  11.499 -0.1857 -0.0294  0.3189
85315W        W28232  10.962  28.318  11.826 -0.1430  0.4797 -0.3275
85316W        W28233   5.645  24.114   9.841 -0.0113 -0.0570 -0.0010
85317W        W28234  11.735  26.227  10.655 -0.2982 -0.0719 -0.1901
85318W        W28235   6.195  30.018   9.946  0.1847 -0.1805  0.1707
85319W        W28236  10.882  30.764   9.704 -0.0629 -0.2534 -0.2454
85320W        W28237   7.664  29.777   8.949  0.0672 -0.1771  0.1072
85321W        W28238   8.256  30.086  10.268  0.3685  0.1163  0.2037
85322W        W28239   8.475  29.232   9.815 -0.1095  0.1059 -0.1730
85323W        W28240  11.430  30.060  10.394 -0.1071 -0.0737  0.0281
85324W        W28241   7.592  30.182  11.173 -0.0347  0.2377  0.0431
85325W        W28242  11.729  28.592  11.000 -0.0501 -0.0259  0.0921
85326W        W28243  10.868  26.415  10.081 -0.1506  0.0500 -0.0614
85327W        W28244   9.345  28.929   9.957 -0.0402  0.0430  0.0140
85328W        W28245  12.921  25.279  10.189  0.0106 -0.1894  0.1476
85329W        W28246   8.981  26.632  10.585  0.0934  0.2571  0.1177
85330W        W28247  10.040  27.863   8.283  0.1243  0.2584  0.0964
85331W        W28248  11.108  27.618   9.190 -0.3211  0.0367  0.1857
85332W        W28249   9.561  29.097   6.937  0.1575  0.4212  0.0868
85333W        W28250  10.639  26.890   9.900 -0.2442  0.0219  0.4629
85334W        W28251   5.735  24.584   9.621  0.2755 -0.0778 -0.1869
85335W        W28252   7.655  29.673  10.982  0.1000 -0.1384 -0.1925
85336W        W28253   8.436  27.401   9.721  0.2422  0.2736 -0.0969
85337W        W28254   8.265  26.581  11.187  0.2443 -0.0750  0.4888
85338W        W28255  10.852  27.692  10.789  0.1681  0.2000  0.0145
85339W        W28256   9.355  31.945  10.911  0.1368 -0.1917 -0.0842
85340W        W28257   8.263  28.771   9.767 -0.3099  0.1329 -0.1048
85341W        W28258   9.542  30.147   9.617  0.2657 -0.3545 -0.0998
85342W        W28259   9.136  29.605   8.811 -0.1542 -0.0829  0.2502
85343W        W28260  11.101  30.950   8.810 -0.2908 -0.1332  0.3447
85344W        W28261   7.331  28.493   9.875 -0.1445 -0.1002  0.2010
85345W        W28262   6.327  25.401   9.299 -0.0309 -0.0106 -0.2336
85346W        W28263  10.969  27.666   8.607 -0.2282  0.5522  0.1453
85347W        W28264   9.403  26.701  10.870 -0.0982 -0.1976  0.0046
85348W        W28265  12.395  27.436   9.682  0.0533 -0.2511  0.2187
85349W        W28266  10.939  29.440   9.511  0.1339 -0.3628 -0.3230
85350W        W28267  10.812  25.601  10.953 -0.0732  0.2405 -0.0529
85351W        W28268   8.380  24.842  10.088 -0.0640 -0.3592 -0.5836
85352W        W28269   8.877  28.883   9.561  0.0343  0.1289  0.1191
85353W        W28270   9.204  28.475   9.767 -0.0452  0.0520 -0.1306
85354W        W28271  11.794  28.962  11.407 -0.0099  0.0618 -0.1264
85355W        W28272  11.671  26.189   7.935 -0.1965 -0.1423  0.0767
85356W        W28273   8.966  29.480  10.321  0.0919 -0.2505 -0.0490
85357W        W28274   7.574  29.585   9.939 -0.0700 -0.1946 -0.0309
85358W        W28275  10.465  28.809  10.892 -0.0003  0.0606 -0.0905
85359W        W28276   7.539  31.352   9.610  0.0144 -0.0486 -0.1723
85360W        W28277   6.830  28.451  10.147  0.1803 -0.2726 -0.0717
85361W        W28278  10.755  30.616  10.330  0.2080  0.0320  0.1547
85362W        W28279  11.912  27.352   9.599  0.1721 -0.0403  0.1948
85363W        W28280  11.816  25.289   8.442 -0.5801  0.1926 -0.0849
85364W        W28281   7.098  27.276  10.481 -0.0430 -0.1610  0.0616
85365W        W28282  11.354  29.642   8.722 -0.3239  0.2680 -0.1217
85366W        W28283  11.012  24.928   8.386  0.3100  0.1322  0.1170
85367W        W28284  11.576  29.258   8.265 -0.0791  0.0795  0.0660
85368W        W28285   7.423  25.884   9.401  0.0043 -0.2415 -0.1444
85369W        W28286   6.355  27.141  10.227  0.2265 -0.0659  0.4997
85370W        W28287   7.076  27.414   9.187  0.1762 -0.2063  0.1177
85371W        W28288   8.722  25.992  10.187  0.0828  0.1391 -0.0655
85372W        W28289  11.022  27.197  10.619  0.0253  0.3528  0.1704
85373W        W28290   9.672  26.961  10.181  0.2903 -0.0068  0.3002
85374W        W28291   6.745  29.390   8.078  0.0286  0.0319  0.0040
85375W        W28292   9.946  29.630   9.361 -0.0529 -0.0084 -0.2877
85376W        W28293  10.725  29.038   9.156 -0.0748  0.1570 -0.0911
85377W        W28294  10.315  30.747   7.989  0.3341  0.0929 -0.0178
85378W        W28295  11.256  28.492  10.895  0.1168  0.2886 -0.1094
85379W        W28296   9.293  28.715   8.536  0.0197 -0.2034  0.3619
85380W        W28297   8.691  27.927  11.357 -0.0413  0.1450 -0.3165
85381W        W28298  10.330  24.336  10.306 -0.1956 -0.0491  0.1013
85382W        W28299   8.773  27.955   8.621 -0.1239  0.0138 -0.0737
85383W        W28300  12.952  27.946  11.172 -0.1392 -0.0908 -0.0609
85384W        W28301   8.497  27.989   9.940  0.2138 -0.0086  0.1501
85385W        W28302  12.669  26.166  10.790  0.1047  0.0326 -0.2341
85386W        W28303  10.888  25.778  11.440 -0.0825 -0.0798 -0.1412
85387W        W28304   6.511  25.734   7.805  0.1893 -0.0251  0.1061
85388W        W28305   9.827  29.611  10.921 -0.0506 -0.0970  0.2478
85389W        W28306   7.963  30.660   9.769  0.0967  0.1217 -0.1730
85390W        W28307   9.451  27.799  10.049 -0.2264 -0.1462 -0.2111
85391W        W28308  10.388  27.836  11.630 -0.0936 -0.0918 -0.1214
85392W        W28309  10.188  24.108  10.954  0.3270 -0.1240  0.0306
85393W        W28310   9.424  25.684   8.170  0.1683 -0.1595  0.0094
85394W        W28311   9.338  25.787   7.076  0.2642 -0.0839  0.2360
85395W        W28312  12.981  25.405   7.542  0.3906  0.2081  0.1661
85396W        W28313  12.919  27.881   8.848  0.1703  0.0371 -0.0586
85397W        W28314   9.893  27.893   9.190 -0.2547  0.0233  0.1168
85398W        W28315   8.524  26.069   9.156  0.1534 -0.0549 -0.2444
85399W        W28316  10.949  28.218  10.119  0.2508 -0.0466  0.1996
85400W        W28317  10.999  27.776   9.952  0.0424 -0.0218 -0.1527
85401W        W28318  10.396  27.132   9.533  0.1355 -0.2818  0.1913
85402W        W28319  11.361  28.656   7.839  0.2413 -0.1863 -0.1836
85403W        W28320   9.252  25.175  10.927 -0.3509 -0.2523 -0.0101
85404W        W28321  10.507  26.497   9.553 -0.4096 -0.1339  0.1322
85405W        W28322  10.524  26.182   8.951  0.0572  0.2906  0.0828
85406W        W28323  10.214  26.995  10.060  0.1834 -0.1642 -0.0909
85407W        W28324   9.671  25.744   8.687  0.0177  0.0087  0.2247
85408W        W28325   8.018  29.333   8.932 -0.3906  0.1770  0.0350
85409W        W28326   8.644  26.152   9.674 -0.2750  0.2491 -0.0623
85410W        W28327   8.388  26.790  10.317 -0.0626  0.2985 -0.0977
85411W        W28328  10.561  28.408   9.701  0.2138  0.3092  0.3863
85412W        W28329  12.510  24.891   9.904 -0.3144  0.2150 -0.1549
85413W        W28330   8.640  27.589  10.267 -0.2203 -0.1273  0.0516
85414W        W28331   9.139  27.483  10.302  0.2819 -0.1071 -0.0161
85415W        W28332   7.435  32.461   8.408 -0.0299  0.0569  0.2292
85416W        W28333   8.875  25.335  10.241 -0.1961  0.0555 -0.1319
85417W        W28334   9.816  27.100   7.874  0.3097 -0.0617  0.1752
85418W        W28335  10.070  30.282   8.106  0.4354 -0.1153 -0.2109
85419W        W28336   7.527  28.536   7.246  0.2290  0.2463 -0.1483
85420W        W28337   9.477  26.551  10.405  0.0152 -0.1436 -0.0437
85421W        W28338   9.144  30.147  10.226 -0.1769 -0.0371  0.2212
85422W        W28339   9.559  28.957   7.623  0.1821 -0.2283  0.0647
85423W        W28340  11.523  28.060  10.844 -0.0050  0.1677  0.1639
85424W        W28341   9.732  27.978  10.774  0.1566 -0.0678 -0.1412
85425W        W28342  10.769  23.915  11.194 -0.1447  0.0012 -0.1822
85426W        W28343   6.237  29.016  11.500 -0.3263 -0.0463  0.1543
85427W        W28344   9.568  25.877   9.239  0.2770  0.0583  0.0687
85428W        W28345   7.285  29.377   9.545  0.1311  0.0151  0.1733
85429W        W28346  12.093  24.679   8.982 -0.0270 -0.1188 -0.3927
85430W        W28347  11.803  28.174   8.528 -0.0237 -0.0738  0.2102
85431W        W28348   4.950  24.432   8.652 -0.0575  0.2486  0.1584
85432W        W28349   8.706  27.068  10.003 -0.2053 -0.3608 -0.3382
85433W        W28350   8.703  26.376  11.477 -0.0575 -0.0264 -0.2210
85434W        W28351  11.143  26.085   8.851  0.3041 -0.0698 -0.0059
85435W        W28352   5.321  26.342   7.227  0.0076  0.0781  0.3152
85436W        W28353  11.762  26.291   9.747  0.2748 -0.2147  0.0313
85437W        W28354   9.412  28.818   9.453  0.2556 -0.0302 -0.0791
85438W        W28355   7.455  30.557   9.860  0.0650 -0.1020  0.4420
85439W        W28356  10.998  29.590  10.466  0.1238 -0.1217 -0.2281
85440W        W28357   8.266  26.705   9.833 -0.0265 -0.0514 -0.2587
85441W        W28358   7.435  28.964   9.821  0.0972  0.1950 -0.2475
85442W        W28359   9.985  26.738   9.511  0.0950 -0.1462  0.0994
85443W        W28360  11.881  28.280  11.401 -0.2385 -0.0784  0.2696
85444W        W28361   8.950  26.269   8.933  0.0030 -0.1001 -0.2098
85445W        W28362   6.257  24.501   9.644  0.0958 -0.1915 -0.1278
85446W        W28363   6.313  28.603  10.898 -0.0197 -0.2181  0.0842
85447W        W28364   9.936  25.934  10.616  0.1109  0.0289 -0.1257
85448W        W28365   9.401  25.158  10.134  0.3176  0.2174 -0.0291
85449W        W28366  12.540  30.544   9.599 -0.1080  0.1449  0.2138
85450W        W28367   8.817  27.278   9.407  0.1332  0.0322 -0.1618
85451W        W28368   9.248  28.692  11.511  0.2021 -0.2177 -0.0678
85452W        W28369   8.575  28.633  10.450  0.0060 -0.1446 -0.1027
85453W        W28370   8.166  28.166  10.643  0.1667  0.2306  0.3029
85454W        W28371  10.575  27.989  10.465  0.2210  0.2713  0.2051
85455W        W28372   8.933  28.529  10.792  0.0903  0.2447 -0.0783
85456W        W28373   7.572  32.975   9.889  0.0505  0.0111 -0.2664
85457W        W28374   9.999  26.280   8.637 -0.3275  0.0770  0.3733
85458W        W28375   9.624  29.605   8.936  0.4464  0.0080 -0.0874
85459W        W28376   9.599  26.117  10.250 -0.0308 -0.0364  0.2286
85460W        W28377  10.428  26.308   7.717 -0.2434  0.1519 -0.0238
85461W        W28378   9.871  27.213   9.532 -0.0422  0.0273 -0.0135
85462W        W28379   8.698  25.555   9.356 -0.0924 -0.2357  0.0642
85463W        W28380   7.604  27.488   9.952  0.0016 -0.1832 -0.0529
85464W        W28381   9.930  28.533  10.371  0.2984  0.3274  0.1009
85465W        W28382  12.046  26.439  10.124 -0.0408 -0.0369  0.2243
85466W        W28383  10.237  27.290   9.020 -0.1301 -0.4674 -0.6209
85467W        W28384  13.829  26.890   9.531  0.1151  0.1440  0.0026
85468W        W28385   8.627  27.431  11.166  0.0450 -0.0420  0.0810
85469W        W28386   9.992  26.576   8.233  0.1331  0.3828 -0.2271
85470W        W28387   9.139  26.934  10.207  0.2310 -0.0204  0.0577
85471W        W28388   8.261  28.953  10.244 -0.0846  0.0565  0.0605
85472W        W28389  10.866  28.188  10.897  0.3524  0.0243 -0.0684
85473W        W28390   9.974  27.023  11.054  0.0989 -0.1173  0.0520
85474W        W28391  12.329  28.729  11.439  0.0917 -0.0083 -0.3805
85475W        W28392  10.958  27.337   9.620 -0.0215  0.1357 -0.0841
85476W        W28393  13.773  25.711  10.037 -0.2355  0.3945  0.0988
85477W        W28394  13.752  25.590  11.058  0.1457 -0.1475  0.1407
85478W        W28395   9.367  27.412   8.127  0.0009  0.1738 -0.3176
85479W        W28396   8.948  30.063  11.429 -0.2171  0.0841 -0.1627
85480W        W28397   7.889  26.990   7.956  0.0950 -0.2322  0.1342
85481W        W28398  10.147  30.351   8.961 -0.2414 -0.0140  0.0810
85482W        W28399  11.889  25.778  11.314  0.0812 -0.2419  0.1743
85483W        W28400  10.452  26.546   8.637  0.0300  0.0329  0.2039
85484W        W28401   7.791  25.734   8.644  0.1943 -0.0303  0.0066
85485W        W28402   8.164  28.859   8.894  0.3497 -0.3266 -0.1525
85486W        W28403   9.583  28.669   8.936 -0.0392  0.0873  0.2287
85487W        W28404  11.013  27.315  11.094  0.0453 -0.1703  0.0672
85488W        W28405   8.719  25.606   7.311 -0.0349  0.1976 -0.1964
85489W        W28406   7.841  30.157   9.892 -0.1021 -0.0826  0.3513
85490W        W28407  10.371  26.317  10.690 -0.0307  0.0570 -0.0636
85491W        W28408   9.193  31.071  11.146  0.0837  0.2538 -0.0008
85492W        W28409   9.414  27.078  10.578 -0.1104  0.0133  0.1530
85493W        W28410   9.400  25.720  10.605 -0.1415  0.1183 -0.1087
85494W        W28411  10.933  26.806  10.870  0.0258 -0.1992  0.1707
85495W        W28412  10.409  25.168  10.799  0.1711  0.1893  0.2624
85496W        W28413   9.083  25.932   9.396  0.1081 -0.0490 -0.4074
85497W        W28414  12.249  28.208   9.577  0.2563 -0.0012 -0.2086
85498W        W28415   6.358  30.191  10.720  0.0092  0.1963  0.0410
85499W        W28416  10.383  27.464   9.980  0.0921  0.2406 -0.1933
85500W        W28417   7.678  26.447   7.495  0.1873  0.3300 -0.0513
85501W        W28418  10.459  27.973   9.968 -0.0145  0.1485 -0.1011
85502W        W28419   7.420  29.040  11.613 -0.0667  0.0947 -0.2432
85503W        W28420   7.862  29.197   9.771 -0.0526  0.0929  0.4534
85504W        W28421  10.066  28.272   9.714 -0.0787 -0.0775  0.3622
85505W        W28422   9.117  28.602   9.142 -0.1968 -0.0474  0.1454
85506W        W28423  11.721  26.317  11.807  0.0552  0.2662  0.2087
85507W        W28424   8.237  28.552   7.944 -0.3434 -0.2353 -0.0542
85508W        W28425   7.361  29.152  11.094  0.2941 -0.1317  0.0937
85509W        W28426   8.494  30.400   9.173 -0.1427 -0.0116  0.3732
85510W        W28427   9.593  28.115   9.684  0.2451 -0.0819 -0.3487
85511W        W28428   7.320  31.048  10.289  0.0813  0.0755  0.3280
85512W        W28429  11.161  25.327   9.662 -0.1086 -0.0599  0.3384
85513W        W28430  11.471  26.993  10.835  0.4297 -0.3361  0.0303
85514W        W28431  10.560  26.739  10.370 -0.0199 -0.2257 -0.1519
85515W        W28432   9.316  26.545   9.925  0.1629 -0.3162 -0.0788
85516W        W28433   9.276  27.475  10.810 -0.0759  0.1345 -0.0539
85517W        W28434   8.937  28.467   7.686  0.0841 -0.1153 -0.0983
85518W        W28435   9.608  29.151   9.119  0.0471 -0.0784 -0.1661
85519W        W28436   8.989  27.094  11.076  0.1253 -0.4669  0.3422
85520W        W28437  11.764  25.520  10.078 -0.0671 -0.0250 -0.1711
85521W        W28438   6.285  28.475   6.675 -0.1709  0.2833  0.0270
85522W        W28439  10.916  26.410   9.182 -0.0817 -0.4260  0.1566
85523W        W28440  10.535  28.330  11.464  0.2882 -0.2050  0.0759
85524W        W28441   9.508  27.165  11.143  0.0297 -0.0127 -0.0967
85525W        W28442  10.265  28.934  10.410  0.0089  0.0764  0.0942
85526W        W28443   8.241  26.592   8.409  0.0759  0.0666  0.3934
85527W        W28444  12.147  24.962   9.434 -0.1409  0.3567  0.1064
85528W        W28445   7.670  26.188  10.575 -0.3678  0.4457  0.3065
85529W        W28446   7.615  27.174  11.680  0.2169 -0.3437  0.1858
85530W        W28447  11.941  27.008  10.910  0.0190 -0.0733  0.1931
85531W        W28448   6.392  26.869  10.986 -0.3035 -0.0460  0.0798
85532W        W28449   9.705  26.596  11.327  0.0207 -0.2963  0.3036
85533W        W28450   9.112  26.140  10.500 -0.0458 -0.1070  0.2420
85534W        W28451   9.585  27.977   8.263 -0.1680 -0.2964 -0.3227
85535W        W28452   8.229  25.387   9.256  0.0850 -0.0681 -0.0769
85536W        W28453  10.971  27.241  10.089 -0.0290  0.3567 -0.1684
85537W        W28454   9.498  28.771  11.050 -0.2047  0.3483 -0.1241
85538W        W28455   9.633  26.401   9.284 -0.0573  0.1397  0.1669
85539W        W28456   8.262  25.803   8.792 -0.0697 -0.0262  0.0386
85540W        W28457  11.430  27.992   9.308 -0.0237  0.1209  0.3885
85541W        W28458   9.393  30.279  10.645  0.0158  0.1468  0.1246
85542W        W28459   9.125  28.253   8.357 -0.4675  0.5190 -0.0649
85543W        W28460  11.824  28.686   9.253 -0.1005 -0.0137 -0.1248
85544W        W28461  12.958  30.901   9.448  0.0132  0.0885  0.1056
85545W        W28462   7.865  27.759  10.952 -0.3666  0.1163  0.1048
85546W        W28463   9.588  27.620   9.564 -0.1172 -0.0775  0.0845
85547W        W28464  11.012  28.931  10.744 -0.0710 -0.1742 -0.1167
85548W        W28465  10.079  26.503   9.055 -0.0294 -0.1990 -0.0526
85549W        W28466   7.378  26.713  11.366  0.1964  0.0613 -0.0440
85550W        W28467   8.403  28.634  10.909 -0.1248  0.2163 -0.1783
85551W        W28468  11.543  28.091  10.102 -0.4018 -0.0537 -0.1649
85552W        W28469   9.854  29.058   9.650  0.1142 -0.1319  0.2328
85553W        W28470  12.196  29.103  11.165  0.1877 -0.1474 -0.0749
85554W        W28471   9.574  27.512   7.553  0.0141 -0.1999 -0.0299
85555W        W28472  10.360  30.887   9.571 -0.2074  0.1911 -0.1827
85556W        W28473  11.182  29.023   9.812  0.2861  0.0743 -0.0463
85557W        W28474  12.080  28.808  10.777  0.4039  0.5753  0.0743
85558W        W28475  10.388  25.860   9.357 -0.0872  0.0279  0.4297
85559W        W28476  12.909  27.807   9.733  0.1688  0.3888 -0.1264
85560W        W28477   8.899  25.436   8.468 -0.0636  0.0167 -0.0011
85561W        W28478  10.471  25.956   6.830  0.1553  0.0386  0.1126
85562W        W28479  10.135  27.789   8.778  0.0625 -0.1408 -0.0246
85563W        W28480  10.199  26.107  10.209 -0.1637 -0.2645 -0.2659
85564W        W28481   5.972  28.017   9.239  0.2123 -0.0151  0.3524
85565W        W28482   7.500  28.312   7.974  0.1522 -0.1272 -0.0531
85566W        W28483   8.682  28.537   9.962  0.0312  0.2418  0.2332
85567W        W28484   7.157  29.356   9.034 -0.1509 -0.2812  0.0121
85568W        W28485   9.085  28.098   9.378 -0.1774 -0.0116 -0.3012
85569W        W28486  12.092  27.486   9.050 -0.0284 -0.1867  0.0837
85570W        W28487   9.113  26.078   9.927  0.2691  0.0328 -0.0998
85571W        W28488   5.586  26.907  11.788  0.0584 -0.1445 -0.3003
85572W        W28489  12.251  26.991   9.863 -0.2307 -0.0043  0.3767
85573W        W28490   8.713  29.880  10.416  0.1431 -0.2634  0.3585
85574W        W28491   8.996  27.522   9.799 -0.2291 -0.3204 -0.0315
85575W        W28492   6.290  30.434   9.215  0.0833  0.3077  0.0484
85576W        W28493   6.566  25.407   8.184 -0.3607  0.0234  0.1085
85577W        W28494   7.482  24.004   9.467 -0.3153 -0.0388 -0.1247
85578W        W28495  10.012  27.763   9.737 -0.2249  0.0061 -0.4510
85579W        W28496  12.613  30.167   9.076  0.3389  0.0012 -0.2785
85580W        W28497   6.100  26.778   9.977 -0.2566 -0.0707 -0.2573
85581W        W28498  13.730  26.837  10.033  0.2452  0.1579  0.0988
85582W        W28499  11.274  26.233   9.771  0.0514 -0.1890  0.1642
85583W        W28500  11.541  25.829   9.690 -0.0675  0.0047  0.1238
85584W        W28501  10.949  26.206  10.566  0.0690 -0.0874  0.3341
85585W        W28502  11.972  28.302  10.014  0.2593  0.1269 -0.2364
85586W        W28503   8.778  23.636   8.899 -0.0923 -0.1212 -0.0843
85587W        W28504  10.044  26.671  10.411 -0.1002 -0.1794  0.1735
85588W        W28505  10.087  29.466   8.882  0.0899 -0.1055  0.1518
85589W        W28506   6.821  28.390  10.736 -0.1853  0.1261  0.2229
85590W        W28507   9.547  25.020   9.587 -0.1000  0.0019  0.0723
85591W        W28508  10.724  27.810   9.535  0.1664 -0.2196 -0.0040
85592W        W28509   8.993  26.492  11.061  0.2364  0.0377 -0.0571
85593W        W28510  10.615  28.473   9.089 -0.1934  0.1259 -0.1432
85594W        W28511  10.422  29.571  10.389  0.1927 -0.1274  0.0052
85595W        W28512   6.203  29.372  11.060 -0.2211 -0.0243  0.0140
85596W        W28513  12.025  27.365  11.351  0.1376  0.0659 -0.1838
85597W        W28514   7.788  26.914   9.175  0.1277  0.1247  0.0405
85598W        W28515   7.764  29.932  10.341  0.0559 -0.1305 -0.0715
85599W        W28516  11.204  27.942  10.442 -0.0227 -0.2715  0.0789
85600W        W28517  11.505  27.250  11.277  0.0953  0.0618  0.1696
85601W        W28518   9.862  27.431  10.075  0.1463  0.3527 -0.1921
85602W        W28519   9.222  26.721   7.232  0.0027  0.0561  0.1160
85603W        W28520   8.965  28.903  11.086  0.0008 -0.3635 -0.2606
85604W        W28521  10.708  28.495  10.547  0.1219  0.1285  0.3022
85605W        W28522   9.953  33.099   3.569  0.0774 -0.0342 -0.3973
85606W        W28523  10.272  29.952   2.214  0.1062  0.0437  0.0912
85607W        W28524  11.273  30.295   3.332 -0.1986 -0.2208  0.1716
85608W        W28525  11.175  31.272   2.416  0.1607 -0.0898 -0.0629
85609W        W28526   9.651  29.275   2.090 -0.1631 -0.1501 -0.1420
85610W        W28527  11.202  31.742   2.406  0.1803 -0.2326 -0.1196
85611W        W28528  10.365  28.783   2.618  0.0481  0.2912  0.1064
85612W        W28529  10.789  30.149   3.466  0.1586 -0.1297  0.2693
85613W        W28530  11.460  30.570   1.396 -0.1855  0.0081 -0.3795
85614W        W28531   7.967  31.820   2.156 -0.1085 -0.0028  0.1188
85615W        W28532   8.758  30.167   3.043 -0.1661  0.1072 -0.1006
85616W        W28533   7.655  32.772   0.139 -0.0810  0.0797 -0.1794
85617W        W28534   7.515  28.961   0.090  0.1766 -0.2546 -0.1238
85618W        W28535   9.021  28.866   2.650 -0.2138  0.1397 -0.2393
85619W        W28536  12.477  30.892   1.568 -0.2508 -0.1907  0.2607
85620W        W28537   6.381  32.218   1.695  0.2945 -0.0800 -0.0027
85621W        W28538   9.082  30.021   3.364 -0.2995 -0.1364  0.1455
85622W        W28539   9.967  29.808   3.388  0.1404 -0.0403 -0.4784
85623W        W28540   8.798  32.118   0.980 -0.2318 -0.0468  0.0259
85624W        W28541   9.937  30.805   3.419  0.2776  0.1962  0.0594
85625W        W28542  10.287  28.439   3.359  0.3195 -0.1096  0.1857
85626W        W28543  10.017  33.502   0.724 -0.2534  0.1053  0.0939
85627W        W28544   8.998  30.842   0.165 -0.1883  0.1105  0.2047
85628W        W28545   7.037  29.182   4.088  0.3007 -0.1211 -0.2121
85629W        W28546   8.065  31.246   1.558  0.0043 -0.1590 -0.0989
85630W        W28547  10.861  28.229   3.312 -0.3100  0.2416  0.1387
85631W        W28548  10.014  30.729   2.192 -0.0251  0.2089  0.0522
85632W        W28549   9.206  32.861  31.573  0.2518  0.3001 -0.0597
85633W        W28550  10.036  31.221  31.922 -0.2641 -0.0915  0.0099
85634W        W28551  10.830  29.653   7.693  0.2760 -0.0022 -0.0467
85635W        W28552   7.194  32.053   1.694  0.0494  0.0020 -0.1258
85636W        W28553   6.606  31.714   1.720  0.0363  0.0107  0.0008
85637W        W28554   9.908  32.133   1.861  0.2962  0.0994  0.1313
85638W        W28555  10.695  31.986  30.474  0.1110 -0.2612 -0.0396
85639W        W28556   8.385  32.649   3.539 -0.1291 -0.2211  0.0511
85640W        W28557   9.657  32.852   4.408  0.1258 -0.1030 -0.2108
85641W        W28558   7.465  32.456   1.580  0.1215 -0.1747 -0.2946
85642W        W28559  10.507  32.970   5.181 -0.0188 -0.2091 -0.3118
85643W        W28560   8.000  32.054   3.146 -0.2859 -0.0164 -0.0773
85644W        W28561  10.177  29.927   2.761  0.2759  0.0794 -0.1290
85645W        W28562   9.618  31.938   1.105 -0.3400  0.2309 -0.1480
85646W        W28563   8.596  30.987  31.109  0.3019 -0.1189  0.0282
85647W        W28564   9.604  31.773   1.587  0.2541 -0.0537 -0.2985
85648W        W28565   9.097  30.571   2.459  0.0321 -0.0093 -0.0530
85649W        W28566   8.228  30.925   2.568  0.5163  0.2448 -0.0060
85650W        W28567  12.136  31.223   3.084 -0.0277  0.0536 -0.0192
85651W        W28568   8.483  32.302   0.029  0.2901  0.0195 -0.2264
85652W        W28569  11.980  30.669   0.296 -0.3195 -0.2480 -0.0251
85653W        W28570   9.930  29.742  30.309  0.0181 -0.2597  0.1735
85654W        W28571   9.795  30.308   1.031  0.0944  0.1767 -0.0558
85655W        W28572   9.938  29.037   2.808 -0.0990  0.2895  0.0175
85656W        W28573   7.075  31.603   1.538  0.0340 -0.1177 -0.1265
85657W        W28574   9.060  29.512   4.323  0.0105  0.1303  0.2046
85658W        W28575  11.541  31.862   2.991 -0.1700 -0.0459  0.1151
85659W        W28576   9.749  30.259   3.594 -0.0929  0.0204  0.2030
85660W        W28577  11.380  30.841   3.299 -0.0144 -0.0495  0.1900
85661W        W28578   9.892  31.998   3.002  0.2215 -0.1091 -0.1322
85662W        W28579   6.687  33.115   0.833  0.3842  0.0036 -0.2229
85663W        W28580   9.440  33.454  31.707  0.1450 -0.3040  0.0508
85664W        W28581  11.280  31.478   4.123  0.0980  0.3762  0.1775
85665W        W28582  10.420  32.326   0.958  0.0504  0.2344  0.1451
85666W        W28583   9.047  30.362   0.435  0.1131  0.1609  0.2106
85667W        W28584   9.357  32.063   1.946 -0.0716  0.1909  0.1521
85668W        W28585   7.707  30.398   3.180 -0.0997  0.2254  0.0175
85669W        W28586   9.748  28.685   0.170  0.1226  0.0204  0.1067
85670W        W28587  13.046  31.854   2.580 -0.0436  0.2985 -0.1000
85671W        W28588   8.786  33.267   2.862 -0.1930  0.2089  0.0655
85672W        W28589  12.071  28.751   1.511  0.1638 -0.1084  0.2200
85673W        W28590   8.784  30.920   2.615 -0.1552  0.2299  0.1059
85674W        W28591  10.288  30.816   2.884  0.3613  0.1023  0.1162
85675W        W28592   9.243  31.702  31.855 -0.1977  0.0430  0.0666
85676W        W28593  10.927  28.524   2.380 -0.5236  0.0069 -0.1245
85677W        W28594  10.329  29.550   4.412  0.1268 -0.3992  0.2492
85678W        W28595   8.654  32.838   0.267  0.1384 -0.1844 -0.2558
85679W        W28596   8.907  31.363   1.497 -0.3694 -0.1316  0.0348
85680W        W28597  12.931  31.407   2.312 -0.1154 -0.1776  0.0466
85681W        W28598  12.642  29.728  30.551  0.0940 -0.0543  0.0408
85682W        W28599   8.697  32.510   2.244  0.0593 -0.0968 -0.1902
85683W        W28600  10.976  31.730   6.722  0.2542  0.1622  0.0947
85684W        W28601   8.842  31.823   2.016 -0.0147  0.0261 -0.3335
85685W        W28602   7.666  32.882   0.746  0.1062 -0.2789 -0.2230
85686W        W28603   8.267  32.048   0.965  0.0736  0.1660 -0.3002
85687W        W28604  10.220  30.913   0.407  0.0107 -0.0707  0.1268
85688W        W28605   6.908  29.006   1.732 -0.2885  0.1437 -0.0246
85689W        W28606   8.422  32.054   1.886  0.0159 -0.0207 -0.0653
85690W        W28607   9.863  29.641   2.429 -0.0247 -0.0724  0.0461
85691W        W28608   5.647  31.169   3.145 -0.1893 -0.2287  0.0037
85692W        W28609  11.983  27.953   2.952 -0.1628  0.1335  0.1706
85693W        W28610   7.823  30.984   0.990  0.0154  0.0297 -0.2326
85694W        W28611  11.410  31.499   0.906 -0.1396 -0.1244  0.2978
85695W        W28612  11.013  31.028   1.166 -0.0762 -0.0477  0.3168
85696W        W28613  10.464  30.463   0.547 -0.0758  0.0560 -0.2333
85697W        W28614   6.876  31.098   2.460  0.4420  0.0139 -0.1380
85698W        W28615   9.633  31.073   2.104  0.1378  0.1598  0.0785
85699W        W28616   9.899  28.790   3.954 -0.0499 -0.2179  0.0127
85700W        W28617   8.212  30.344   2.298 -0.2166 -0.0243  0.4607
85701W        W28618  11.235  29.173   4.398 -0.0359 -0.0503  0.0716
85702W        W28619   9.518  29.717   2.061  0.2283 -0.2868  0.1211
85703W        W28620  10.472  29.200   1.805 -0.2352 -0.4064  0.0563
85704W        W28621   7.183  31.852   2.213 -0.1729  0.3187  0.0529
85705W        W28622   7.545  30.767   1.366 -0.2355  0.0637  0.1482
85706W        W28623  11.346  29.775   5.407  0.6080 -0.1757 -0.0746
85707W        W28624  10.181  32.596  31.717  0.1806 -0.2810 -0.1945
85708W        W28625  10.563  31.870   2.310 -0.0790  0.2118  0.1129
85709W        W28626  10.268  31.303   2.745 -0.2531  0.0303 -0.2343
85710W        W28627   8.643  31.055   4.444  0.0456 -0.0951  0.2804
85711W        W28628   7.010  31.376  31.624  0.3366  0.1145  0.0883
85712W        W28629   8.263  33.613   3.650  0.2200 -0.0063  0.1093
85713W        W28630   9.578  31.959   2.430  0.3273 -0.2344 -0.0453
85714W        W28631   9.396  30.669   1.202  0.1392  0.0357 -0.0004
85715W        W28632  10.129  32.756   1.071 -0.1047 -0.3523  0.5201
85716W        W28633  11.672  29.486   1.706  0.1947 -0.0557 -0.2516
85717W        W28634   8.440  29.539   2.641  0.1353 -0.0557  0.0102
85718W        W28635  10.699  29.146   4.418  0.0607  0.0067 -0.1365
85719W        W28636  10.548  31.100   4.937  0.4199  0.1314  0.1723
85720W        W28637  11.530  29.843   2.027  0.0931 -0.1060 -0.2875
85721W        W28638   6.777  29.797   0.422  0.5194  0.0811 -0.1102
85722W        W28639  11.980  31.333   3.746  0.1434  0.2564  0.1806
85723W        W28640   8.726   0.313   2.067  0.3530 -0.0650  0.1253
85724W        W28641   7.279  30.845  30.903  0.1682 -0.0920  0.0669
85725W        W28642   9.045  31.859   0.314  0.4258  0.0670 -0.0752
85726W        W28643  11.360  28.622   3.287 -0.1363  0.1270  0.4615
85727W        W28644   9.417  30.309   5.757  0.0977  0.0198  0.1545
85728W        W28645  10.293  28.331   4.903  0.2048  0.0303 -0.0331
85729W        W28646   7.529  32.139   2.050 -0.1486  0.0583  0.2455
85730W        W28647   8.293  30.568   3.592 -0.1493  0.1640  0.1584
85731W        W28648   8.868  29.033   0.353 -0.0938  0.0163  0.3080
85732W        W28649  11.839  29.660   1.208 -0.2146 -0.1539  0.0161
85733W        W28650   8.769  30.565   3.354 -0.2238  0.1215  0.4062
85734W        W28651  11.153  32.262   0.854 -0.1504 -0.5320 -0.1041
85735W        W28652   9.774  31.125  31.476 -0.1789  0.0531  0.1590
85736W        W28653   9.445  30.176   0.681  0.0636 -0.1844  0.3161
85737W        W28654   8.549  31.916   3.434 -0.0041 -0.1283 -0.1919
85738W        W28655   8.549  30.996   3.534 -0.2720 -0.0071 -0.1096
85739W        W28656   9.669  32.270   1.435 -0.0781  0.2934  0.1176
85740W        W28657   8.713  30.305  31.501  0.1985 -0.1986 -0.2406
85741W        W28658  10.487  30.434   2.301 -0.2823  0.0839 -0.1252
85742W        W28659   8.733  31.611   1.001  0.0476  0.1366  0.1114
85743W        W28660  10.989  30.734   3.647  0.5607 -0.0471 -0.1193
85744W        W28661  10.050  32.226   0.164 -0.1367  0.2139 -0.2353
85745W        W28662   9.462  29.024   4.014 -0.0986  0.0795  0.0996
85746W        W28663  10.660  28.447   1.922 -0.0381 -0.2090 -0.1808
85747W        W28664   9.566  30.063   3.123  0.0741  0.1846  0.4176
85748W        W28665   7.180  34.337   1.020 -0.0680  0.1459  0.1827
85749W        W28666  11.737  30.716   4.717  0.0225  0.2313 -0.1672
85750W        W28667  10.206  29.344   3.308 -0.0521 -0.0494 -0.2673
85751W        W28668   9.049  27.787   3.206 -0.0975  0.1869  0.0899
85752W        W28669  10.651  29.478   6.024 -0.2860  0.1131  0.4880
85753W        W28670   9.381  31.042   2.609 -0.1227 -0.1477 -0.0971
85754W        W28671   7.844  32.226   1.226 -0.2065  0.2272  0.0221
85755W        W28672   9.448  32.207  31.945  0.0958  0.0608 -0.1368
85756W        W28673  11.508  29.110   3.442 -0.1108  0.0814 -0.0589
85757W        W28674   7.808  30.532   3.696 -0.4145  0.1038 -0.2380
85758W        W28675   8.921  32.434   3.259  0.1124  0.2605 -0.1534
85759W        W28676  10.168  31.903   3.688 -0.2452  0.1051  0.4170
85760W        W28677  11.177  30.150   1.281 -0.1524 -0.1591 -0.1731
85761W        W28678   8.995  28.091   4.077  0.0226 -0.0884  0.1935
85762W        W28679  10.821  28.177  31.072 -0.0975  0.1173 -0.0953
85763W        W28680   8.122  33.959   1.293  0.0504 -0.0829  0.0535
85764W        W28681   9.343  30.087   2.288  0.0876 -0.1360 -0.2497
85765W        W28682   8.344  29.346   0.482 -0.2272  0.1744  0.0033
85766W        W28683   9.665  31.267   1.628  0.1142  0.0887 -0.1944
85767W        W28684   8.827  31.928  31.738 -0.1680  0.0054  0.1200
85768W        W28685  10.487  30.759   1.844 -0.2045  0.1134  0.2620
85769W        W28686   8.636  31.940   0.530  0.0201  0.0395 -0.2024
85770W        W28687   9.716  29.298   1.012  0.1653 -0.0994  0.1418
85771W        W28688   7.437  32.574   3.052 -0.4590 -0.2347 -0.0529
85772W        W28689   8.538  30.923   0.845  0.0481  0.2188  0.3450
85773W        W28690   7.575  30.139   0.701  0.3687  0.0065  0.2137
85774W        W28691  10.072  27.582   2.831  0.0156 -0.0279  0.0581
85775W        W28692  10.659  29.407   0.594 -0.1619  0.2750 -0.1621
85776W        W28693   8.048  30.795   3.115 -0.0945 -0.2013 -0.3319
85777W        W28694  10.653  30.467   1.209 -0.2619  0.1060 -0.3882
85778W        W28695   7.673  32.753   3.482  0.3860 -0.1139 -0.0749
85779W        W28696   9.053  31.829   2.580  0.3416  0.4170 -0.1429
85780W        W28697  10.653  28.984   0.345 -0.4521  0.0050  0.1758
85781W        W28698  10.028  30.954   4.956 -0.1733 -0.0757 -0.2167
85782W        W28699   9.369  31.492   2.370  0.0113  0.0103 -0.1825
85783W        W28700   5.852  31.262  31.658  0.1388 -0.1468 -0.0027
85784W        W28701  11.171  32.224   3.779  0.1692 -0.1799  0.3754
85785W        W28702   7.600  30.495   0.239  0.2625  0.2863  0.1124
85786W        W28703   8.108  32.257   2.278 -0.1693  0.5666  0.1710
85787W        W28704   8.939  32.549   1.259 -0.0565 -0.4320  0.3511
85788W        W28705  10.942  31.238   0.453 -0.2213  0.0294 -0.0536
85789W        W28706   8.611  32.024   2.461 -0.0320 -0.1566 -0.3691
85790W        W28707   8.021  29.582   4.198 -0.1053  0.3375  0.1243
85791W        W28708   8.414  29.523   3.766 -0.0380 -0.1543  0.4273
85792W        W28709  10.297  31.298   0.722  0.0988  0.2398 -0.1147
85793W        W28710   9.900  31.047   0.808 -0.1259  0.3585  0.3589
85794W        W28711   8.289  31.051  31.510 -0.0805 -0.0834 -0.0264
85795W        W28712  10.451  30.612   3.369  0.1748  0.0493 -0.1261
85796W        W28713   9.152  31.087   4.498 -0.1646  0.1515 -0.1912
85797W        W28714  10.043  31.909   2.414 -0.0989 -0.1981 -0.1231
85798W        W28715   9.265  30.293   3.845  0.0644 -0.3196  0.2544
85799W        W28716  12.775  32.469   2.066 -0.2342  0.2044 -0.1973
85800W        W28717  10.385  30.490   4.325 -0.0293 -0.2937  0.2079
85801W        W28718   8.951  32.460  31.808 -0.0935 -0.0958 -0.0567
85802W        W28719   7.548  32.647   2.125  0.1359 -0.1149 -0.0902
85803W        W28720  10.069  31.858   0.980 -0.2449  0.1234 -0.2112
85804W        W28721  10.760  29.436   2.994 -0.1085 -0.0272  0.0388
85805W        W28722   7.172  32.682   2.448 -0.2526  0.1363 -0.1016
85806W        W28723   8.476  31.763   0.125 -0.0217  0.0664 -0.2004
85807W        W28724   8.721  32.423   4.514 -0.0038  0.3542  0.0944
85808W        W28725  10.092  28.186   0.811 -0.3677 -0.0430 -0.1989
85809W        W28726   9.761  32.092   0.653  0.1298  0.1368 -0.1094
85810W        W28727   9.362  28.736   3.655  0.0894  0.0142 -0.0534
85811W        W28728  12.027  30.145   4.078  0.2015  0.1504  0.1082
85812W        W28729   9.619  30.328   1.583 -0.3105  0.2464  0.1397
85813W        W28730  11.241  28.005   4.085  0.2377 -0.3867 -0.0925
85814W        W28731   8.878  28.549   3.883  0.0624 -0.0679  0.0911
85815W        W28732  12.816  32.565  31.055  0.1626  0.0460 -0.2575
85816W        W28733   7.986  29.440   2.774 -0.1707 -0.0565  0.1186
85817W        W28734   9.633  33.120   4.835  0.0639 -0.0014  0.2681
85818W        W28735   7.044  29.008   1.153 -0.1340  0.1826 -0.1319
85819W        W28736   9.254  29.969   1.715 -0.1163 -0.2606 -0.0573
85820W        W28737   8.818  29.384   0.881 -0.0388  0.3652 -0.2546
85821W        W28738   8.788  32.410   2.737 -0.1498 -0.0421  0.1883
85822W        W28739  10.274  30.113  31.598  0.2413  0.0740  0.2769
85823W        W28740   8.542  31.859   1.420  0.0425  0.2917 -0.2710
85824W        W28741  10.273  29.266   3.919 -0.1571 -0.1652 -0.1998
85825W        W28742   9.421  32.066   3.307 -0.3586  0.5015  0.2341
85826W        W28743   8.979  27.034   1.438  0.0860  0.0301  0.1288
85827W        W28744  10.458  31.005  31.814 -0.2721 -0.0461 -0.0230
85828W        W28745   9.813  31.586   2.048 -0.4743  0.0715 -0.0572
85829W        W28746   9.936  29.975   5.265  0.0836  0.0335 -0.0417
85830W        W28747  10.117  30.144   4.076 -0.1374 -0.0842  0.2767
85831W        W28748  10.731  27.220   3.935  0.2149 -0.0340 -0.1821
85832W        W28749  10.986  30.504   4.226  0.2422  0.2560  0.3448
85833W        W28750  11.496  29.744   5.971 -0.1095 -0.0756  0.0050
85834W        W28751  10.133  30.603   3.872  0.0640  0.1031  0.1315
85835W        W28752   8.421  29.284   6.300  0.0306  0.0458  0.2304
85836W        W28753  10.753  32.382   2.963  0.2154 -0.1040  0.0020
85837W        W28754  11.502  30.402  30.557 -0.5268 -0.1310  0.2484
85838W        W28755  11.848  32.149   4.132 -0.0284 -0.1323  0.0872
85839W        W28756  12.286  32.399   3.174  0.0770  0.0890  0.0326
85840W        W28757  11.274  29.569   3.954  0.1945  0.2236 -0.1184
85841W        W28758   9.347  29.535   3.229  0.1881 -0.0723 -0.3140
85842W        W28759   9.762  31.400   6.243 -0.0177 -0.3152 -0.2946
85843W        W28760   7.759  30.179  30.735  0.0522  0.2009  0.1499
85844W        W28761   9.633  27.537   3.319 -0.2120 -0.0624  0.2025
85845W        W28762   9.676  30.156   0.117  0.0705 -0.3811  0.0818
85846W        W28763  10.110  31.921   1.480 -0.0465 -0.0532  0.0731
85847W        W28764  10.123  30.363   1.858 -0.0719  0.1655 -0.0303
85848W        W28765   6.272  29.514   3.129  0.0308  0.0784 -0.0687
85849W        W28766   8.676  31.927   4.368  0.0702  0.1605 -0.0981
85850W        W28767  10.071  29.075   0.147 -0.1055 -0.3390  0.4141
85851W        W28768   9.877  30.880   1.291  0.1281  0.1069 -0.1963
85852W        W28769   9.477  31.028   3.103 -0.1420  0.1698  0.2436
85853W        W28770   9.075  31.002   3.498 -0.3039 -0.3112 -0.1214
85854W        W28771   9.441  29.728   0.311 -0.0800 -0.1056 -0.1264
85855W        W28772  11.568  29.697   4.525  0.0120 -0.1208  0.2082
85856W        W28773   8.274  32.593   1.922 -0.1301 -0.0242 -0.2344
85857W        W28774  10.027  29.387   0.553  0.1086  0.1149 -0.1133
85858W        W28775   7.594  33.207   1.174  0.2598 -0.0511 -0.0569
85859W        W28776   8.929  31.942   3.113 -0.1065 -0.0607  0.0250
85860W        W28777   9.786  32.877  31.352  0.2109  0.0021 -0.0547
85861W        W28778   9.694  30.383   4.132 -0.0855 -0.2853  0.4219
85862W        W28779   9.279  29.456   1.136  0.1547 -0.3400  0.0377
85863W        W28780   9.977  30.510   0.564  0.1817  0.2003  0.2420
85864W        W28781  10.524  30.813   7.210  0.0858 -0.0713  0.0522
85865W        W28782  11.225  31.478   2.895 -0.0899 -0.3674 -0.0736
85866W        W28783   8.898  33.177   3.416 -0.0771 -0.1179  0.1682
85867W        W28784   9.289  31.562   3.347  0.0736 -0.0355  0.2197
85868W        W28785  11.335  30.114   2.470 -0.1776  0.0692 -0.1989
85869W        W28786   8.718  33.318   0.160 -0.1275  0.0187  0.0678
85870W        W28787   7.686  30.690   2.757  0.1186 -0.0103  0.0932
85871W        W28788   9.130  31.950   5.153  0.1462  0.2604 -0.0908
85872W        W28789   9.206  30.227   2.853  0.1692  0.2002 -0.2000
85873W        W28790   9.085  30.939   0.651  0.0421  0.0450  0.0756
85874W        W28791   9.558  31.326   0.061 -0.1274  0.0464  0.0887
85875W        W28792   8.774  32.762   5.525 -0.0063 -0.0869  0.1110
85876W        W28793   9.072  30.682   2.958 -0.0903  0.1447  0.2388
85877W        W28794   5.434  33.957  31.946  0.0324  0.1252 -0.1086
85878W        W28795  10.655  30.249   1.782  0.1372  0.0459  0.0766
85879W        W28796   9.945  31.590  31.572 -0.1294 -0.0082 -0.3509
85880W        W28797   9.422  33.459   0.730 -0.1252  0.1073 -0.0369
85881W        W28798  10.553  29.184  31.296 -0.2142 -0.1618 -0.1162
85882W        W28799   8.251  34.634   1.879  0.1447  0.0596  0.1404
85883W        W28800   8.128  31.516   1.120  0.2129 -0.1512  0.1284
85884W        W28801   9.428  32.447   1.021 -0.2093  0.1830 -0.0233
85885W        W28802   7.770  33.618   1.376 -0.3950 -0.0558  0.1963
85886W        W28803  10.900  31.938   4.196 -0.1617  0.0905 -0.0329
85887W        W28804  12.064  28.715  30.881  0.1647  0.1702  0.0192
85888W        W28805   9.590  32.247   6.426 -0.1254  0.2076 -0.2169
85889W        W28806  10.970  29.323   2.004  0.0786 -0.0181 -0.2854
85890W        W28807   9.030  30.015   5.646  0.0507  0.3370 -0.0793
85891W        W28808   9.354  31.758   4.223 -0.0780 -0.0558 -0.0352
85892W        W28809   9.382  31.413  31.487 -0.0838  0.0190  0.2671
85893W        W28810   8.608  32.725   4.070 -0.1454  0.1271 -0.0358
85894W        W28811  11.676  29.181   5.203  0.1597 -0.3224  0.1572
85895W        W28812   7.917  31.849   3.617  0.2138  0.1715 -0.0264
85896W        W28813  10.723   0.035   0.175 -0.0550  0.1606 -0.2168
85897W        W28814   8.872  30.012   1.045 -0.1227 -0.0292 -0.0571
85898W        W28815   7.278  34.107   3.260 -0.1002  0.1213 -0.5102
85899W        W28816  10.937  29.580   4.540  0.0755 -0.4310  0.0400
85900W        W28817   9.954  29.301  31.197 -0.0242 -0.1285 -0.1691
85901W        W28818   9.091  31.880   3.785 -0.1145  0.0964  0.0247
85902W        W28819   8.023  32.804   1.156 -0.1212  0.0076 -0.0968
85903W        W28820   9.091  31.342   0.216 -0.4694 -0.1052 -0.0640
85904W        W28821  10.393  32.257   2.634  0.2372  0.2519 -0.0178
85905W        W28822   7.241  29.961   0.188 -0.0893 -0.0040 -0.0910
85906W        W28823  11.746  30.280   2.077  0.0763  0.1867  0.1007
85907W        W28824   8.628  29.714   4.155  0.1329  0.0035 -0.0028
85908W        W28825  11.057  29.140   3.853 -0.1319  0.0064 -0.0130
85909W        W28826  11.376  30.483   2.880  0.1234 -0.2793 -0.0010
85910W        W28827  10.816  29.044   2.682 -0.0015  0.2099 -0.0016
85911W        W28828  10.407  31.775   2.819 -0.1151 -0.2226  0.1390
85912W        W28829   7.514  31.704   2.566 -0.2982  0.1330 -0.2852
85913W        W28830   9.483  32.968  30.939  0.1460  0.4722  0.0468
85914W        W28831  10.617  30.910   4.295 -0.0920 -0.2384  0.2398
85915W        W28832  10.283  31.912   0.453 -0.2710 -0.1482 -0.0705
85916W        W28833  10.552  30.927   5.942  0.0292  0.0251 -0.0153
85917W        W28834   8.456  28.784   4.372  0.1316  0.1442  0.0830
85918W        W28835   9.114  28.859   0.815 -0.0543 -0.2053  0.1704
85919W        W28836   9.805  30.697   1.774 -0.1701  0.0323 -0.1955
85920W        W28837   8.928  29.715   2.876  0.0083  0.4796  0.0782
85921W        W28838  11.435  31.301   5.201  0.4831 -0.3982 -0.3361
85922W        W28839   6.302  30.775  30.034 -0.4001  0.1155  0.3226
85923W        W28840  10.288  30.702   0.984  0.4612 -0.0029  0.2656
85924W        W28841  10.088  30.318   3.125 -0.2612  0.0545 -0.0479
85925W        W28842   7.511  31.860   0.359  0.0312 -0.1369 -0.0698
85926W        W28843  10.968  30.429   2.426  0.0067  0.1336  0.0913
85927W        W28844  10.741  31.326   4.507  0.2049  0.6907 -0.2747
85928W        W28845   7.520  32.425   6.096  0.3166 -0.0074  0.0400
85929W        W28846   8.444  32.300   3.139  0.2801 -0.2582  0.1077
85930W        W28847  12.184  31.777  31.880 -0.0688 -0.2862  0.0425
85931W        W28848   9.089  27.879   1.040 -0.2009  0.1389  0.3500
85932W        W28849   9.558  30.572   2.942 -0.0509  0.0374  0.2152
85933W        W28850   8.631  32.278   3.771  0.0649 -0.0663  0.0619
85934W        W28851  12.793  30.186   2.360  0.2964  0.2881  0.1393
85935W        W28852  10.439  30.313   6.479 -0.0208  0.0589  0.2862
85936W        W28853   9.099  32.921  29.146  0.0892  0.2791 -0.0899
85937W        W28854  11.765  28.724   2.643 -0.1823 -0.0898  0.1257
85938W        W28855  10.912  31.431   0.955 -0.1472  0.1751  0.1588
85939W        W28856   8.691  32.039   4.953 -0.1356  0.2384 -0.0249
85940W        W28857   7.033  30.961  31.897 -0.0508 -0.2844 -0.0022
85941W        W28858  10.493  30.322   2.872 -0.2689  0.0462  0.0757
85942W        W28859   8.321  32.312   1.411 -0.0728 -0.3354 -0.0231
85943W        W28860  10.201  33.925   0.594  0.2717 -0.1699  0.1704
85944W        W28861  10.717  29.830   2.579 -0.0425  0.0646 -0.1520
85945W        W28862   9.887  28.579   4.376  0.2199 -0.1685 -0.4331
85946W        W28863  12.252  29.407  31.935  0.0901  0.1138  0.0986
85947W        W28864   8.810  30.054   2.512  0.0466 -0.0218  0.2049
85948W        W28865  12.948  28.884   1.873 -0.1242  0.1046  0.0808
85949W        W28866   9.155  26.978   0.535 -0.2393 -0.0401 -0.1599
85950W        W28867   9.973  31.936   4.363  0.0462  0.0694 -0.0123
85951W        W28868   8.381  30.027   2.768  0.0848 -0.3257  0.1882
85952W        W28869   8.152  31.208  31.075  0.0800 -0.3497 -0.2593
85953W        W28870   7.975  31.286   2.032  0.1358 -0.0814 -0.1878
85954W        W28871   8.701  30.279   3.990 -0.2185  0.0299  0.1153
85955W        W28872   9.551  29.073   3.160 -0.0828  0.0532 -0.0268
85956W        W28873   9.252  32.003   0.794 -0.2141 -0.1546  0.0677
85957W        W28874   6.672  30.274   1.613  0.1034  0.0238  0.0492
85958W        W28875   9.430  30.893  31.127 -0.0847 -0.0805  0.2445
85959W        W28876   8.735  30.932   1.700 -0.1195  0.1336  0.0198
85960W        W28877   7.971  32.617   3.111  0.1691 -0.0430  0.1354
85961W        W28878  10.998  30.617   1.594  0.1210  0.0903 -0.2500
85962W        W28879  11.117  30.564   1.022 -0.1127 -0.2115 -0.1227
85963W        W28880   8.589  31.143   2.130  0.1749 -0.1487 -0.1978
85964W        W28881  10.854  31.068   5.330  0.1396  0.5440 -0.3012
85965W        W28882  10.059  29.884  31.145 -0.1253 -0.0734  0.1551
85966W        W28883  10.256  31.644   3.243  0.0886  0.4765  0.0413
85967W        W28884   8.361  30.097   4.411 -0.0393 -0.0565  0.0964
85968W        W28885   7.481  28.959  31.403  0.1366  0.0433  0.0131
85969W        W28886   8.951  30.910   1.221  0.1831 -0.1457  0.4461
85970W        W28887  10.639  32.738  31.820 -0.2187  0.2706 -0.2333
85971W        W28888  10.731  32.481  31.399 -0.1027 -0.2859 -0.3860
85972W        W28889   9.259  32.242   2.844 -0.3615  0.0489 -0.0949
85973W        W28890   9.804  31.481   2.563  0.1932  0.0660  0.0256
85974W        W28891   9.201  28.587   2.165 -0.0665  0.0878 -0.1198
85975W        W28892   8.879  31.280  31.396 -0.0002  0.1369  0.0376
85976W        W28893   8.011  30.991   3.652 -0.2994 -0.0386  0.2477
85977W        W28894  11.473  32.283  31.467  0.0536  0.1245  0.0111
85978W        W28895  11.394  30.723   2.383  0.0598  0.1496  0.3450
85979W        W28896   8.063  31.722   1.646 -0.1319  0.1889  0.2254
85980W        W28897   9.536  28.889   4.507 -0.0971 -0.0186 -0.0409
85981W        W28898   7.515  31.143   2.299 -0.1206  0.0911 -0.0943
85982W        W28899   9.846  30.937   2.691  0.4161  0.4627 -0.0147
85983W        W28900   8.527  29.740   1.220 -0.0789  0.1597  0.0932
85984W        W28901   9.862  28.086   1.634 -0.0317 -0.4405  0.0585
85985W        W28902  10.424  30.988   2.331  0.2761  0.1379 -0.0610
85986W        W28903   9.462  31.158   1.132 -0.3858  0.3010 -0.0402
85987W        W28904   9.395  28.960   1.771  0.0292 -0.2922  0.3084
85988W        W28905   9.698  29.613   4.956  0.2612 -0.0646  0.0121
85989W        W28906   9.198  31.667   1.198  0.2855 -0.1827 -0.0917
85990W        W28907   9.361  30.664   4.303  0.2530  0.0585  0.0609
85991W        W28908   9.268  30.588   1.939  0.0300  0.2655 -0.2111
85992W        W28909  11.512  31.888  31.153  0.3793  0.0960  0.0560
85993W        W28910  11.274  31.735   4.602 -0.2810  0.0396  0.1157
85994W        W28911  11.341  32.287   5.069 -0.2652 -0.0315 -0.0483
85995W        W28912   8.531  30.838   0.108  0.4390  0.0603  0.0892
85996W        W28913  12.055  31.046   2.571  0.0871 -0.0258 -0.0964
85997W        W28914   8.382  29.632   5.870 -0.0082 -0.1552  0.0546
85998W        W28915   9.298  30.171   1.187  0.0461 -0.1342  0.3365
85999W        W28916  10.443  31.540   1.161 -0.0715 -0.0635  0.3339
86000W        W28917  10.720  29.806   6.804 -0.0699  0.2368  0.1323
86001W        W28918  10.282  30.187   3.573  0.3052  0.0263 -0.1281
86002W        W28919   9.656  28.304   1.998  0.1001 -0.0497  0.2214
86003W        W28920   8.634  32.929   1.926  0.2383  0.2430 -0.1646
86004W        W28921  10.905  31.247   3.954 -0.2243 -0.3623 -0.1138
86005W        W28922  11.686  31.380   7.298  0.0938 -0.3956  0.0745
86006W        W28923   7.567  32.730   7.064  0.0757  0.1068  0.1081
86007W        W28924  11.133  29.429   8.109  0.1090 -0.1381 -0.0859
86008W        W28925  10.319  31.021   5.443  0.0958  0.1261  0.0655
86009W        W28926   6.863  30.359   8.010 -0.0062 -0.1977 -0.1700
86010W        W28927  11.281  30.764   5.013 -0.0733 -0.0125 -0.3031
86011W        W28928  10.909  30.340   7.665  0.1388  0.3137  0.1788
86012W        W28929  11.906  31.662   6.936 -0.2351 -0.1764  0.1109
86013W        W28930  12.512  33.866   8.058  0.1572  0.3581  0.1711
86014W        W28931   9.872  30.780   5.584  0.1540 -0.0649  0.1084
86015W        W28932  10.513  30.356   5.968  0.1626 -0.2311  0.5179
86016W        W28933   8.429  33.132   7.164 -0.0008  0.1744  0.0372
86017W        W28934   9.908  29.272   7.393  0.0936  0.2030 -0.1520
86018W        W28935   8.411  27.198   7.723 -0.0120  0.0303  0.3012
86019W        W28936   9.389  29.259   7.977 -0.1828  0.2546  0.2468
86020W        W28937   7.583  31.941   4.549  0.2897 -0.0387  0.1426
86021W        W28938   9.373  30.879   6.846  0.0712  0.2489 -0.0177
86022W        W28939   9.641  27.961   5.447  0.0991 -0.1736 -0.0622
86023W        W28940   9.042  32.208   4.187  0.1033 -0.0812  0.0258
86024W        W28941   8.018  30.110   8.342 -0.2454  0.0102 -0.1047
86025W        W28942   9.916  30.919   8.138  0.2101 -0.0475  0.0446
86026W        W28943   9.473  30.735   3.822 -0.0881  0.1005  0.0089
86027W        W28944   8.092  31.510   2.985 -0.2937 -0.2444  0.1582
86028W        W28945   8.259  31.669   7.683 -0.0167 -0.0469 -0.1060
86029W        W28946   7.605  32.754   8.088 -0.0598  0.0014 -0.0932
86030W        W28947  10.036  29.781   8.104  0.1282  0.0991  0.3957
86031W        W28948  10.482  31.495   6.625 -0.0476 -0.2083 -0.4561
86032W        W28949  10.734  33.834   7.466  0.0015  0.1078  0.0929
86033W        W28950  10.951  31.583   5.415  0.5891 -0.2555 -0.1015
86034W        W28951   9.942  29.447   8.423  0.3618 -0.0730  0.1481
86035W        W28952   9.366  31.533   5.504  0.1063  0.0712  0.0844
86036W        W28953   8.896  31.550   5.630  0.1186  0.1369 -0.0450
86037W        W28954   9.931  32.375   6.820  0.0960  0.2318  0.1060
86038W        W28955  10.221  31.238   6.145 -0.3719  0.1290 -0.0220
86039W        W28956  12.029  33.116   7.801 -0.3062  0.0597 -0.1471
86040W        W28957   7.849  31.561   8.803  0.3776 -0.0705 -0.2733
86041W        W28958   8.434  31.500   1.889 -0.2662 -0.5874  0.1903
86042W        W28959   8.540  33.284   8.641  0.0184 -0.0671 -0.0954
86043W        W28960   8.611  31.957   7.824  0.1791 -0.0709 -0.1724
86044W        W28961   9.978  30.751   7.589 -0.0216 -0.4434  0.4386
86045W        W28962  11.830  30.382   8.211 -0.0347  0.0365  0.0065
86046W        W28963   9.296  31.600   4.727  0.0158 -0.1338  0.1781
86047W        W28964  10.614  30.985   8.370 -0.0534  0.2307 -0.2491
86048W        W28965   8.861  32.912   7.659 -0.3208 -0.0445  0.1773
86049W        W28966  11.976  30.561   9.242 -0.1870  0.1822  0.0716
86050W        W28967   8.050  32.810   5.360  0.0787  0.2343 -0.1038
86051W        W28968   9.470  29.257   6.468 -0.0084 -0.2624  0.0364
86052W        W28969   7.450  31.656   3.598 -0.0497  0.1718 -0.1014
86053W        W28970  11.771  30.440   2.590 -0.0489 -0.0857 -0.0956
86054W        W28971   9.008  28.589   5.608  0.1122 -0.1048  0.0766
86055W        W28972   9.404  30.684   6.389  0.1214 -0.1738 -0.0728
86056W        W28973   9.150  30.897   6.023  0.0663  0.1423  0.0253
86057W        W28974  12.165  30.776   6.772 -0.1361  0.0761  0.1772
86058W        W28975   9.391  29.858   6.009  0.0688  0.2085  0.0955
86059W        W28976  11.643  28.959   6.993 -0.0619 -0.0217  0.1577
86060W        W28977   8.849  32.163   8.202 -0.1316 -0.0568  0.1071
86061W        W28978   9.129  30.363   5.191 -0.1036  0.0344  0.1118
86062W        W28979  10.853  29.716   5.024 -0.2463  0.1774  0.0643
86063W        W28980  11.329  33.474   6.125 -0.0765  0.1726 -0.4457
86064W        W28981   8.488  31.854   3.918  0.2995  0.2441 -0.2018
86065W        W28982   7.735  31.295   7.007 -0.0368  0.2097  0.0088
86066W        W28983   7.985  33.041   7.383 -0.2507 -0.2033 -0.0335
86067W        W28984   8.988  31.531   7.792 -0.1834  0.0470 -0.1370
86068W        W28985   9.724  31.822   3.898 -0.2098 -0.0190 -0.0422
86069W        W28986   9.995  31.891   8.640 -0.2691 -0.1878 -0.0570
86070W        W28987   8.313  33.460   7.519 -0.2633 -0.0199 -0.0499
86071W        W28988  11.444  30.537   3.701 -0.0066  0.2252  0.2213
86072W        W28989   7.947  32.619   7.745  0.2457 -0.0793  0.0595
86073W        W28990  10.480  31.724   8.752  0.0889 -0.3448  0.0860
86074W        W28991  10.052  29.549   5.534  0.1012 -0.2654 -0.2647
86075W        W28992   9.962  30.367   6.572 -0.3005  0.1710 -0.0174
86076W        W28993   9.902  28.707   7.263  0.3779  0.1469 -0.1317
86077W        W28994  10.200  31.017   4.532  0.1258 -0.0402 -0.1076
86078W        W28995   8.872  30.566   4.381 -0.2905  0.1065  0.2628
86079W        W28996  12.098  33.731   9.066 -0.0408 -0.2713  0.2845
86080W        W28997  11.542  30.108   4.222  0.0768 -0.0263  0.3392
86081W        W28998   8.926  31.007   6.883 -0.0374 -0.3353  0.1306
86082W        W28999   9.717  29.840   6.382  0.0650 -0.1762 -0.4726
86083W        W29000  11.155  30.325   9.506 -0.1929  0.1424 -0.0221
86084W        W29001   8.847  33.550   5.234  0.5269 -0.0920 -0.5597
86085W        W29002   6.841  31.048   6.699  0.2614 -0.0486 -0.1529
86086W        W29003   8.806  31.386   3.613 -0.4646  0.0840 -0.2904
86087W        W29004   8.070  30.845   7.108  0.3951  0.1012 -0.2043
86088W        W29005   9.232  29.704   6.484  0.4039 -0.3547  0.2438
86089W        W29006  11.721  30.094   5.589 -0.5075 -0.1190 -0.1430
86090W        W29007   7.901  31.901   8.415 -0.0261  0.3697  0.0576
86091W        W29008  11.945  29.208   6.513  0.2517 -0.0675 -0.0206
86092W        W29009   8.841  31.537   4.754  0.0272 -0.0008  0.2996
86093W        W29010  11.306  32.737   4.756 -0.0635  0.1544  0.0855
86094W        W29011   9.797  31.447   4.862 -0.1336  0.2682  0.2126
86095W        W29012   7.065  31.854   6.296 -0.0724  0.2547 -0.1347
86096W        W29013   7.880  32.082   5.752 -0.0571 -0.0350  0.2150
86097W        W29014   8.393  30.984   7.503  0.1709 -0.2791  0.1349
86098W        W29015   7.016  29.365   6.290  0.0919  0.1321  0.2390
86099W        W29016  11.308  32.444   8.090  0.3777  0.0709  0.0045
86100W        W29017   5.667  29.276   6.364 -0.2671  0.1420 -0.2160
86101W        W29018  10.085  29.020   6.778  0.1149  0.2836  0.2119
86102W        W29019  10.314  28.674   5.293 -0.0125 -0.0741  0.0763
86103W        W29020   6.261  31.758   5.775  0.5231  0.0288  0.0607
86104W        W29021  12.952  30.603   9.863  0.2845 -0.0007  0.1105
86105W        W29022  10.907  32.588   5.088 -0.0038 -0.4379 -0.1312
86106W        W29023  11.121  31.842   5.059  0.0930  0.0680 -0.0436
86107W        W29024   9.227  31.984   6.138  0.1549  0.0432 -0.1000
86108W        W29025   9.781  32.711   8.165  0.2125 -0.1920 -0.0754
86109W        W29026   8.940  30.756   4.864 -0.2200 -0.1813  0.1263
86110W        W29027   8.622  31.387   7.379  0.0649 -0.0554 -0.1166
86111W        W29028   9.537  32.690   5.679 -0.1238 -0.1114 -0.1374
86112W        W29029   9.118  28.803   4.756 -0.2182  0.1600 -0.3644
86113W        W29030   9.830  29.931   5.772  0.2138  0.1026 -0.2635
86114W        W29031   8.463  31.264   3.998 -0.0479  0.1396  0.2342
86115W        W29032  10.434  33.485   7.870  0.0236 -0.0885  0.2223
86116W        W29033  10.737  30.547   8.063 -0.3414  0.0022 -0.2479
86117W        W29034   9.195  31.394   9.158  0.2962  0.2368 -0.0886
86118W        W29035  11.327  30.036   4.969  0.0842 -0.0781 -0.0383
86119W        W29036   7.723  29.417   7.143  0.2087  0.4315 -0.1453
86120W        W29037   9.080  33.573   7.810 -0.3513  0.3779 -0.0481
86121W        W29038  10.065  32.846   5.840 -0.1463 -0.0606 -0.2244
86122W        W29039   7.655  30.705   5.880 -0.2443  0.2281  0.0320
86123W        W29040  10.952  31.170   5.878 -0.0600 -0.3434  0.4271
86124W        W29041  10.587  31.668   7.083 -0.1043  0.4161 -0.1894
86125W        W29042   8.395  32.011   8.311  0.0684 -0.0617 -0.0225
86126W        W29043  10.021  33.264   8.190  0.2967  0.0216  0.3262
86127W        W29044  10.332  29.582   6.459  0.0721 -0.0272  0.1274
86128W        W29045   9.707  28.969   8.284  0.0938 -0.0184  0.0950
86129W        W29046   9.903  30.541   4.552 -0.2308  0.2092  0.1112
86130W        W29047  11.933  29.414   4.853  0.1190 -0.0999 -0.1972
86131W        W29048  10.143  32.435   7.881  0.1347  0.2487 -0.1979
86132W        W29049  12.213  30.990   4.148 -0.0914  0.1868 -0.0236
86133W        W29050  11.410  31.121   4.700 -0.2990  0.2916  0.3201
86134W        W29051   9.917  29.184   4.257 -0.1078  0.0843 -0.2371
86135W        W29052   9.527  30.889   8.460 -0.3253 -0.2714  0.0267
86136W        W29053   9.642  30.399   5.334  0.1707  0.0716 -0.0788
86137W        W29054   9.547  32.047   4.885  0.1393 -0.1454  0.1335
86138W        W29055  10.371  28.718   3.765 -0.1527  0.0856  0.0827
86139W        W29056  10.555  32.126   6.043  0.2181  0.0922 -0.1044
86140W        W29057   9.202  30.025   6.927  0.0099  0.0071 -0.1465
86141W        W29058   9.861  31.949   7.715  0.1017 -0.0731 -0.0821
86142W        W29059   9.708  33.686   6.209 -0.2482  0.0066 -0.0751
86143W        W29060   8.433  30.137   5.573 -0.0006 -0.0922 -0.0125
86144W        W29061   9.697  32.144   5.350 -0.1000  0.0555  0.2275
86145W        W29062  10.591  30.016   7.971 -0.0018  0.4211  0.0274
86146W        W29063   8.219  31.791   7.127 -0.1758 -0.1060  0.1851
86147W        W29064  10.671  29.209   7.595 -0.4269 -0.3096 -0.0579
86148W        W29065  11.497  29.472   7.744  0.1368  0.0004 -0.0754
86149W        W29066  10.649  29.179  10.554  0.0355 -0.3438  0.0125
86150W        W29067  11.488  32.515   8.554  0.0997 -0.1513  0.0407
86151W        W29068  11.510  31.258   8.066  0.0745  0.0174  0.2298
86152W        W29069  10.371  32.545   6.907 -0.0718 -0.0694  0.0547
86153W        W29070  11.264  30.353   5.550  0.0783  0.0762  0.1564
86154W        W29071  10.235  31.166   7.479 -0.1458  0.2564  0.1026
86155W        W29072  10.334  30.982   6.691  0.0641  0.1566  0.1576
86156W        W29073   9.470  31.635   7.502 -0.1601  0.2354 -0.0410
86157W        W29074  11.341  30.505   6.991  0.1555  0.0889  0.1794
86158W        W29075  11.400  29.978   6.867  0.3854 -0.1741 -0.0616
86159W        W29076   8.795  32.404   7.709  0.1827 -0.0141 -0.0803
86160W        W29077   8.681  27.639   5.533 -0.0484 -0.1349 -0.1269
86161W        W29078   8.301  32.237   4.225 -0.2161  0.0883 -0.0888
86162W        W29079   7.994  31.859   4.179  0.1823  0.2440  0.1445
86163W        W29080   9.417  29.561   6.897 -0.2401  0.1051 -0.1252
86164W        W29081  10.857  31.707   7.840  0.2516 -0.1703 -0.1712
86165W        W29082   7.846  32.355   4.503  0.3495 -0.2212  0.0593
86166W        W29083  10.533  32.648   7.615 -0.0905  0.0856  0.0909
86167W        W29084   9.679  31.383   6.988  0.1815  0.2048  0.2022
86168W        W29085   9.764  30.349   7.374 -0.0252  0.1646  0.5531
86169W        W29086   6.503  31.015   5.911 -0.0382 -0.2502  0.0221
86170W        W29087   8.722  29.223   5.739  0.0622  0.2756 -0.0546
86171W        W29088   7.488  30.716   4.929  0.1492 -0.0467  0.1008
86172W        W29089  10.959  29.157   5.768 -0.1495  0.0489  0.1694
86173W        W29090   8.980  31.599   6.568 -0.0613 -0.2948 -0.0099
86174W        W29091  10.729  31.626   8.321 -0.0498 -0.2165  0.1265
86175W        W29092  10.048  30.046   7.692 -0.1365  0.1565  0.0820
86176W        W29093   7.959  30.882   6.200  0.1297  0.2558  0.4360
86177W        W29094  11.220  30.920   6.552  0.0832  0.2490 -0.3783
86178W        W29095  10.658  28.817   6.676 -0.1478  0.1905 -0.2218
86179W        W29096  10.226  32.383   8.848 -0.2411 -0.3781  0.1753
86180W        W29097   8.424  29.677   7.267 -0.0336 -0.2196 -0.1557
86181W        W29098   9.158  29.464   5.180 -0.4049  0.3082 -0.0999
86182W        W29099  12.236  30.220   7.341 -0.0407  0.0233 -0.0660
86183W        W29100   9.228  31.163   7.228  0.0791  0.0489 -0.0042
86184W        W29101   9.289  32.711   7.464 -0.1431 -0.1222 -0.0327
86185W        W29102  12.069  31.201   8.196  0.3085  0.1542 -0.0093
86186W        W29103   8.485  31.513   6.548 -0.2432 -0.1500 -0.3086
86187W        W29104   7.148  32.084   5.848 -0.2611  0.1903  0.2303
86188W        W29105   9.256  29.766   9.307  0.1859  0.2570 -0.0373
86189W        W29106  11.809  32.568   8.194 -0.1346 -0.2354 -0.4449
86190W        W29107   9.421  29.892   5.323 -0.2868  0.2297 -0.0348
86191W        W29108   8.847  30.498   5.607  0.0205  0.1998 -0.1626
86192W        W29109   9.602  30.171   7.835  0.0749 -0.0673  0.2805
86193W        W29110   9.599  33.332   7.797  0.1493  0.2827 -0.1460
86194W        W29111   8.079  31.342   7.340  0.2558 -0.1409  0.0459
86195W        W29112   7.821  32.758   9.411 -0.0501 -0.0286 -0.1361
86196W        W29113   7.749  31.245   5.792 -0.0341  0.0377 -0.0794
86197W        W29114   9.630  30.159   4.885 -0.0547  0.1202  0.0431
86198W        W29115  10.482  30.119   8.489 -0.2634 -0.2033 -0.1617
86199W        W29116   8.727  31.146   5.857 -0.1201  0.2695  0.2143
86200W        W29117   8.247  31.153   5.340 -0.1035  0.2526 -0.0638
86201W        W29118   9.592  30.472   6.894 -0.1873  0.3930  0.0902
86202W        W29119   9.008  30.483   6.991 -0.3416 -0.3152 -0.1120
86203W        W29120  10.265  30.696   6.253 -0.1390  0.0909  0.1538
86204W        W29121   6.464  30.375   5.140  0.1202 -0.1372  0.1679
86205W        W29122   6.323  31.321   7.669 -0.0379 -0.0639  0.0859
86206W        W29123   9.605  29.340   5.969  0.1654 -0.0573 -0.0272
86207W        W29124  10.590  29.979   4.193 -0.0138  0.1266  0.4885
86208W        W29125   8.333  30.680   4.592  0.0509  0.2572  0.0049
86209W        W29126  11.920  29.759   7.481 -0.3108 -0.0348 -0.2076
86210W        W29127  10.834  30.117   5.548  0.0988  0.0724  0.1114
86211W        W29128  11.138  32.384  10.518  0.0625  0.1188 -0.1924
86212W        W29129   8.006  28.228   7.094 -0.0908  0.0806 -0.2039
86213W        W29130   9.461  31.728   6.557  0.0597  0.5682 -0.0854
86214W        W29131   8.094  31.172   6.653  0.1761 -0.0482  0.0093
86215W        W29132  10.313  32.184   8.382 -0.0958  0.1948  0.0763
86216W        W29133   8.084  30.426   7.970 -0.0283 -0.2122  0.3629
86217W        W29134  10.837  30.631   5.655 -0.1921 -0.2007  0.3860
86218W        W29135   8.726  29.722   4.640 -0.0747  0.1170  0.2231
86219W        W29136   9.792  30.868   6.104  0.0241  0.0918  0.0348
86220W        W29137  11.024  32.960   6.155 -0.1437 -0.3635 -0.2410
86221W        W29138  11.035  31.733   3.761  0.0919  0.0202 -0.2611
86222W        W29139  11.028  29.944   7.265  0.0113 -0.3698  0.2596
86223W        W29140   8.447  31.188   6.970  0.0131  0.0215  0.5851
86224W        W29141  10.523  29.284   6.819  0.0394  0.1531  0.0433
86225W        W29142   8.934  30.042   4.366 -0.2296  0.0284  0.1682
86226W        W29143   8.046  30.558   6.700  0.0920 -0.0022 -0.1212
86227W        W29144   6.528  29.110   6.293  0.0792  0.2608 -0.0331
86228W        W29145  13.109  31.941   7.471  0.2570 -0.1515 -0.0809
86229W        W29146  11.335  32.165   6.902  0.1962 -0.0391  0.0676
86230W        W29147  10.037  32.347   7.370 -0.6646  0.0221 -0.0142
86231W        W29148   9.027  30.136  10.945  0.0847 -0.0853 -0.2138
86232W        W29149  10.575  32.029   6.537  0.0179  0.1991  0.2046
86233W        W29150   8.083  29.700   7.982  0.0398  0.0976  0.0640
86234W        W29151  11.222  34.458   8.027 -0.1925 -0.1632 -0.0538
86235W        W29152  10.525  30.617   5.285  0.1530 -0.1699  0.0658
86236W        W29153  12.211  29.925   8.810 -0.2057 -0.0466  0.4598
86237W        W29154  10.436  29.897   5.765  0.0939  0.2645 -0.1541
86238W        W29155  11.093  30.046   4.429 -0.1837 -0.0522 -0.3323
86239W        W29156   7.465  31.212   7.513  0.2742  0.1413  0.0807
86240W        W29157  12.347  31.302   9.844 -0.3063 -0.1466 -0.2539
86241W        W29158   8.197  29.690   4.680 -0.2158  0.2456  0.0569
86242W        W29159   8.833  30.462   8.388 -0.0004 -0.0023  0.1088
86243W        W29160   9.793  31.665   5.305 -0.0845  0.0883  0.0763
86244W        W29161  11.480  30.577   8.571  0.2356  0.0780  0.2439
86245W        W29162  11.233  29.799   6.441 -0.0076 -0.0489  0.3943
86246W        W29163   7.163  30.687   6.742 -0.2232  0.1553 -0.2962
86247W        W29164  10.306  33.493   9.597 -0.2241  0.0751 -0.1615
86248W        W29165   8.915  29.070   3.751 -0.2028  0.0170  0.2225
86249W        W29166   9.518  31.180   5.809 -0.1149  0.0516 -0.1956
86250W        W29167   8.793  32.674   8.207 -0.1279  0.3248 -0.2292
86251W        W29168  10.705  32.341  10.271  0.1840 -0.1106  0.0510
86252W        W29169   9.231  29.538   5.686 -0.0300  0.0114 -0.2842
86253W        W29170  11.826  29.736   6.436  0.0240 -0.1863 -0.0674
86254W        W29171   8.566  30.804   7.932  0.1437  0.1168  0.0747
86255W        W29172   9.025  30.097   8.021 -0.1370  0.1152 -0.2161
86256W        W29173   7.848  31.625   5.450  0.0839 -0.1289  0.2682
86257W        W29174   7.226  33.194   7.691 -0.1061 -0.2506  0.2270
86258W        W29175   8.385  32.335   5.273  0.0729  0.0883  0.0387
86259W        W29176  10.160  29.939   6.743  0.3251 -0.3052 -0.3306
86260W        W29177  12.396  29.115   7.572 -0.3183 -0.1706 -0.1884
86261W        W29178  10.175  31.795   5.806 -0.1637  0.1112 -0.0346
86262W        W29179  11.905  30.546   7.570 -0.1579 -0.2696 -0.0068
86263W        W29180   9.352  32.976   7.922 -0.0724  0.5139  0.4519
86264W        W29181   8.488  32.651   7.395  0.3620  0.0637 -0.2073
86265W        W29182   9.304  30.702   7.401 -0.2003  0.1293  0.0380
86266W        W29183  10.203  29.705   4.928  0.0210 -0.2848  0.3579
86267W        W29184  10.440  33.676   8.331  0.1232  0.4510  0.0255
86268W        W29185   9.065  32.033   9.092 -0.3390 -0.1547  0.1988
86269W        W29186   7.760  31.115   9.987 -0.0933 -0.0602 -0.3623
86270W        W29187  11.601  31.577   6.098 -0.0146  0.1663  0.2213
86271W        W29188   8.991  29.006   5.263 -0.2676  0.1808 -0.2062
86272W        W29189   9.592  30.673   4.954 -0.0609 -0.0346 -0.5396
86273W        W29190   9.561  33.150   8.286 -0.2665  0.0732 -0.2527
86274W        W29191   8.349  31.552   5.638 -0.1624 -0.2646  0.0371
86275W        W29192  10.018  32.921   6.819 -0.4384  0.0231  0.3173
86276W        W29193  10.745  31.769   4.743  0.2476 -0.0013 -0.0387
86277W        W29194  12.276  30.546   5.757  0.1188 -0.0865  0.2139
86278W        W29195   8.070  33.682   7.858 -0.0618 -0.1851 -0.2331
86279W        W29196   9.446  31.193   4.069  0.1141  0.1667  0.2316
86280W        W29197   8.704  33.191   8.041 -0.1449 -0.2562 -0.1871
86281W        W29198   8.778  32.155   6.048  0.0771  0.2254 -0.1785
86282W        W29199  12.542  31.965   3.033  0.2260  0.3376  0.0046
86283W        W29200   8.812  30.964   5.364 -0.0180  0.3988  0.0980
86284W        W29201   9.975  31.568   7.394 -0.2689 -0.0841 -0.1034
86285W        W29202  10.150  30.438   4.976 -0.0978 -0.3132  0.1520
86286W        W29203  11.294  30.487   4.604 -0.2694 -0.0495  0.0620
86287W        W29204  11.456  29.294   5.642  0.2201  0.0967  0.2086
86288W        W29205  11.340  31.875   9.066 -0.1316  0.1801 -0.2095
86289W        W29206  10.171  31.809   6.277 -0.0817 -0.0453  0.0171
86290W        W29207  10.269  29.445   2.825  0.2965  0.0204  0.2375
86291W        W29208   7.668  29.723   7.643  0.1045 -0.0940  0.0523
86292W        W29209  12.785  30.249   7.146  0.1950  0.0333  0.0738
86293W        W29210   9.749  31.953   7.154  0.2796  0.1850  0.0395
86294W        W29211  11.283  32.439   3.277 -0.2299  0.0415 -0.2340
86295W        W29212   7.787  30.406   6.334 -0.1550  0.3036  0.0115
86296W        W29213  10.490  30.105   5.177  0.2124 -0.0987 -0.0062
86297W        W29214  10.845  27.634   7.600 -0.0735  0.0024  0.0122
86298W        W29215   9.332  30.515   3.375  0.0568 -0.0056 -0.0283
86299W        W29216  10.172  31.341   6.977  0.0633  0.2535  0.0234
86300W        W29217  10.299  31.479   4.709 -0.0513 -0.0076  0.1545
86301W        W29218   9.961   0.031   7.522  0.3061 -0.1748 -0.0388
86302W        W29219   8.293  34.234   7.200  0.1971  0.1553 -0.2134
86303W        W29220   7.225  32.504   3.554 -0.2769  0.0070 -0.0241
86304W        W29221  11.404  31.686   6.956 -0.1175  0.2566  0.0096
86305W        W29222   9.996  30.974   8.728  0.3845 -0.0961 -0.1195
86306W        W29223  10.061  30.053  10.174 -0.1630 -0.0681  0.2463
86307W        W29224   9.232  31.455   6.119  0.0143 -0.2590 -0.0369
86308W        W29225  10.344  29.106   5.728  0.3123  0.1153 -0.1572
86309W        W29226  10.751  31.218   6.907 -0.1171 -0.0766 -0.2859
86310W        W29227   6.394  31.442   6.142 -0.2096 -0.0421  0.1825
86311W        W29228  11.009  29.703   5.751  0.0681 -0.0294 -0.1455
86312W        W29229  11.807  32.520   9.243  0.1508  0.0762 -0.2734
86313W        W29230   9.986  29.166   6.325 -0.0208 -0.1308 -0.2169
86314W        W29231  10.409  33.265   9.016 -0.1078  0.1317  0.2052
86315W        W29232   8.602  30.681   6.096  0.0737 -0.3359  0.1089
86316W        W29233  11.013  29.569   3.487 -0.1026 -0.0611  0.0964
86317W        W29234   7.203  29.921   5.933  0.0787  0.1990  0.1119
86318W        W29235  10.495  31.295   7.905 -0.2179 -0.2235 -0.0285
86319W        W29236  12.232  32.050   8.486  0.1714 -0.0760  0.0426
86320W        W29237   6.492  30.174   3.665  0.2988  0.0406  0.0154
86321W        W29238  11.007  30.143   2.938  0.2327 -0.1573  0.5039
86322W        W29239  10.972  32.113   8.168 -0.0231  0.0040 -0.0056
86323W        W29240   9.047  31.209   2.926  0.0917  0.0227  0.2686
86324W        W29241  10.254  30.445   7.041 -0.1015 -0.2608 -0.0678
86325W        W29242  11.656  32.109   8.300 -0.2222 -0.1902  0.0052
86326W        W29243   7.241  29.940   8.219  0.0760 -0.2571 -0.2830
86327W        W29244   9.254  31.724   7.035  0.0251 -0.2274 -0.1456
86328W        W29245  11.725  32.857   6.507 -0.1304  0.0324  0.0611
86329W        W29246  10.472  29.520   7.200 -0.0805 -0.3882 -0.0191
86330W        W29247   7.750  31.757   7.436  0.0571 -0.1713 -0.0519
86331W        W29248   9.760  33.223   7.212  0.1923 -0.2376  0.2178
86332W        W29249  11.181  29.102   6.777 -0.0564 -0.0773 -0.0104
86333W        W29250   8.945  28.957   8.301  0.3672  0.1307 -0.1085
86334W        W29251  11.203  31.268   3.564 -0.0282  0.2613 -0.0451
86335W        W29252  12.119  29.966   8.329  0.4253  0.0494  0.2708
86336W        W29253  10.006  33.729   7.935 -0.1323  0.0334  0.1528
86337W        W29254   8.939  33.322   9.596  0.1208  0.3582  0.0440
86338W        W29255   8.084  30.482   4.188  0.1625 -0.1900 -0.3094
86339W        W29256   9.370  32.795   9.446  0.0770 -0.1878  0.4013
86340W        W29257  10.793  32.139   6.994 -0.1372 -0.2462 -0.0121
86341W        W29258  10.064  32.903   6.349  0.2422  0.0006 -0.0917
86342W        W29259   8.705  31.927   6.898 -0.3574  0.2397  0.4626
86343W        W29260  10.743  31.369   7.442  0.0776 -0.2052 -0.0800
86344W        W29261  11.049  30.207   5.993  0.0728 -0.1203 -0.1588
86345W        W29262   9.913  29.494   6.711  0.1830 -0.3118  0.1076
86346W        W29263  10.597  28.459   4.491 -0.0834  0.1134  0.1764
86347W        W29264  11.567  28.868   4.697 -0.0415 -0.3002 -0.2038
86348W        W29265  10.145  32.951   7.739  0.0687  0.3936 -0.4414
86349W        W29266   6.492  28.946   4.172  0.2219  0.1564 -0.2138
86350W        W29267   9.268  32.615   4.616  0.1235  0.2670  0.1612
86351W        W29268   7.962  32.567   5.847  0.0907  0.2227  0.1417
86352W        W29269   9.954  32.035   9.233  0.2198  0.3201  0.0978
86353W        W29270   8.926  29.960   8.488 -0.1417 -0.2339  0.0090
86354W        W29271   7.268  29.726   4.775 -0.0591 -0.0290  0.4502
86355W        W29272   9.015  30.345   6.048 -0.3488  0.0246 -0.0681
86356W        W29273  11.035  28.774   4.546 -0.2171  0.2266 -0.1984
86357W        W29274   8.206  30.533   7.461  0.3775  0.1502  0.1660
86358W        W29275   8.249  27.230   5.691 -0.2568 -0.1571 -0.2506
86359W        W29276   8.675  31.957   5.535  0.3412  0.0938 -0.0259
86360W        W29277   8.479  32.032   6.450 -0.1078 -0.2323  0.0983
86361W        W29278   8.943  27.917   5.827  0.1187 -0.0092 -0.3960
86362W        W29279   9.433  34.115   7.970  0.1558 -0.0045 -0.1969
86363W        W29280   7.844  31.371   3.411  0.0509 -0.0179  0.1458
86364W        W29281   6.992  32.052   7.555 -0.2187  0.2255  0.0709
86365W        W29282   8.436  30.124   8.722  0.2129 -0.1904  0.3617
86366W        W29283   8.761  28.288   6.332  0.0026 -0.0234 -0.1305
86367W        W29284  11.068  30.820   7.740 -0.0395 -0.3876 -0.3328
86368W        W29285   9.723  31.743   5.889  0.0164 -0.1227 -0.2619
86369W        W29286   8.843  32.760   3.621  0.1242 -0.2076 -0.0432
86370W        W29287   9.316  33.423   7.379 -0.2631 -0.1165 -0.1048
86371W        W29288  10.670  32.660   9.143  0.2058  0.2692 -0.1976
86372W        W29289   7.417  29.992   7.233 -0.0882 -0.1315  0.1125
86373W        W29290  12.040  31.180   7.624 -0.0646  0.1126 -0.0020
86374W        W29291   8.688  31.106  10.963 -0.3162  0.3103  0.1612
86375W        W29292   9.310  29.391   3.680 -0.1169 -0.1260 -0.1025
86376W        W29293   9.718  27.844   6.822 -0.0293 -0.0694  0.0268
86377W        W29294   8.823  29.693   6.096  0.0878  0.0379 -0.2875
86378W        W29295   8.472  30.948   6.541  0.1829 -0.2511 -0.2505
86379W        W29296   8.395  32.453   8.012  0.1163  0.1417  0.0459
86380W        W29297  12.161  30.084   5.274  0.0233  0.1813 -0.2210
86381W        W29298   8.313  28.164   6.629  0.2450  0.0205  0.1269
86382W        W29299   9.862  31.045   6.582  0.0159  0.0671  0.2464
86383W        W29300  10.056  31.378   5.647 -0.0860 -0.2503  0.1095
86384W        W29301   8.111  31.451   8.324 -0.2663  0.1759 -0.0298
86385W        W29302   8.000  30.386   5.432  0.2013 -0.2728  0.0034
86386W        W29303   9.951  30.882   7.050  0.3369 -0.2285 -0.0356
86387W        W29304   9.785  30.343   6.064 -0.3102 -0.1037  0.1466
86388W        W29305  10.936  30.563   8.609 -0.2907  0.2105  0.0252
86389W        W29306  10.196  30.316   5.549 -0.2897 -0.0837  0.1134
86390W        W29307  12.246  29.696   3.776  0.0512  0.0783 -0.0637
86391W        W29308  11.463  33.809   8.025 -0.1010  0.4043 -0.0850
86392W        W29309   8.640  30.333   7.788  0.2940  0.0467 -0.1857
86393W        W29310  10.852  33.459   8.240  0.0712  0.0952 -0.0065
86394W        W29311  11.387  31.265   8.551 -0.0285 -0.0139 -0.1154
86395W        W29312   9.331  28.655   6.998 -0.0411  0.2103 -0.0231
86396W        W29313   9.402  30.218   6.440  0.0185 -0.1181  0.1204
86397W        W29314   8.919  30.653   6.524 -0.2738  0.1268  0.0232
86398W        W29315  11.234  30.383   8.184  0.4933 -0.0554  0.0918
86399W        W29316   5.661  30.653   5.885  0.1046  0.3681 -0.1227
86400W        W29317  10.361  31.349   4.120  0.0883 -0.0830  0.1101
86401W        W29318  10.229  32.386   6.404  0.2272 -0.0350 -0.6272
86402W        W29319  11.303  33.683   8.467 -0.1259 -0.1007  0.1048
86403W        W29320  11.784  31.796  11.010  0.2094 -0.0891  0.1747
86404W        W29321   8.737  31.552  10.472 -0.0496 -0.0777 -0.0941
86405W        W29322  10.499  27.615   7.939 -0.2289  0.1616 -0.4277
86406W        W29323  10.321  30.303  10.507 -0.0897 -0.0599 -0.3187
86407W        W29324   7.997  30.577   9.259  0.1069 -0.0918 -0.1159
86408W        W29325  10.073  33.530   8.615  0.0784  0.1670 -0.0168
86409W        W29326  13.489  32.207  10.319  0.2365 -0.0499 -0.0307
86410W        W29327  10.896   1.403  10.992  0.3113 -0.0070 -0.0386
86411W        W29328   9.151  31.954   9.945 -0.2912  0.2141  0.1055
86412W        W29329   9.661  27.033  11.592  0.3010  0.0197  0.1712
86413W        W29330   9.345  29.721  10.685 -0.2240  0.2881 -0.0610
86414W        W29331   6.868  30.696   9.962 -0.0764 -0.0107 -0.1442
86415W        W29332  11.254  28.587  10.403  0.3085  0.1381  0.0599
86416W        W29333   9.500  30.981  10.744  0.0641 -0.1188  0.1544
86417W        W29334   8.355  30.521   8.360  0.0200  0.2447  0.1442
86418W        W29335   4.696  30.442  11.380 -0.0163  0.1594  0.0414
86419W        W29336   8.051  33.057  10.290  0.4295 -0.1486 -0.3555
86420W        W29337   9.638  31.501  10.797 -0.1641  0.0715 -0.0390
86421W        W29338   9.214  32.445   9.949  0.1823  0.1227 -0.0974
86422W        W29339   8.716  31.542   8.309  0.4212 -0.2871 -0.1044
86423W        W29340  10.103  26.195  11.279 -0.0225 -0.2190  0.3097
86424W        W29341   8.071  29.663   9.962 -0.4321 -0.1698 -0.2896
86425W        W29342  11.341  31.892   7.817  0.0322 -0.2342 -0.0627
86426W        W29343  12.681  29.996  11.530 -0.1895  0.0802  0.0624
86427W        W29344  12.584  31.302  10.406  0.0729 -0.0451  0.0923
86428W        W29345   7.119  31.508   9.902  0.0351 -0.0061 -0.2692
86429W        W29346   9.428  31.802   9.339  0.2361 -0.1034  0.2415
86430W        W29347   8.363  32.310  10.940 -0.0806  0.0869 -0.2010
86431W        W29348  11.163  31.468  11.031  0.2474  0.1198 -0.2270
86432W        W29349   9.955  31.457  10.087 -0.0685 -0.2748 -0.0769
86433W        W29350   7.131  32.578   8.816 -0.3788 -0.0605  0.1612
86434W        W29351  11.021  32.645   8.780 -0.0748 -0.1446  0.0775
86435W        W29352   8.695  30.409  10.414  0.3393  0.2518  0.1335
86436W        W29353  10.147  32.891   9.125 -0.0582  0.1997 -0.0193
86437W        W29354   9.823  30.587  10.464 -0.0997 -0.2457  0.0798
86438W        W29355  12.941   0.011  10.617  0.3311 -0.1237  0.0575
86439W        W29356   9.827  31.671   9.612  0.2447 -0.1089 -0.0322
86440W        W29357  11.143  29.901  10.806  0.0576 -0.1364  0.0383
86441W        W29358   9.738  32.629   8.722 -0.1155 -0.0618 -0.2993
86442W        W29359  10.634  29.530   9.081 -0.1989  0.1366  0.1614
86443W        W29360  10.386  26.828  10.850  0.1527 -0.0822 -0.3678
86444W        W29361  10.733  33.516  10.571 -0.0759  0.1989  0.0784
86445W        W29362  10.116  28.264  10.719 -0.1740 -0.1054 -0.1251
86446W        W29363   9.490  30.778   9.480 -0.2607 -0.3264 -0.1830
86447W        W29364   6.403  29.865  10.355 -0.3116 -0.1339  0.2656
86448W        W29365  10.599  31.558  10.839  0.1979 -0.1394 -0.0637
86449W        W29366   7.728  28.675  11.089 -0.0548 -0.1583 -0.2247
86450W        W29367   9.751  32.406   9.743 -0.1227 -0.4728 -0.2219
86451W        W29368   9.590  33.075   8.972 -0.3200  0.1446 -0.2187
86452W        W29369  10.694  33.961   9.587 -0.1468  0.0455 -0.1880
86453W        W29370   8.613  32.778   8.857  0.1796  0.2563  0.0602
86454W        W29371   9.823  30.071   9.218  0.1993  0.1683  0.1650
86455W        W29372  11.823  30.456  10.211  0.2386 -0.1040  0.0067
86456W        W29373  11.420  32.102  11.278  0.1592 -0.0423  0.1504
86457W        W29374   8.948   0.851  11.101 -0.2457  0.0299  0.1754
86458W        W29375   9.678  31.143   7.541  0.0593 -0.3441 -0.0015
86459W        W29376  13.198  30.208   8.765  0.0071 -0.0528 -0.1406
86460W        W29377   9.459  30.957   9.990 -0.1612  0.1181 -0.0188
86461W        W29378   6.571  32.900   9.929 -0.1448  0.0146 -0.0586
86462W        W29379   7.626  32.087  10.431 -0.0297 -0.0227 -0.2750
86463W        W29380  13.466   0.127  10.828  0.2057  0.3708  0.3255
86464W        W29381   9.426  31.607   8.727 -0.0881  0.4001 -0.0955
86465W        W29382   6.947  33.597  11.243  0.0246 -0.0204 -0.0001
86466W        W29383   8.237  34.154   7.886  0.0534 -0.2987  0.1706
86467W        W29384   7.685  32.260   8.787  0.1641 -0.3098 -0.2676
86468W        W29385   9.248  34.576   8.662  0.0679  0.2454  0.2590
86469W        W29386   6.760  29.749  11.330 -0.0679 -0.1119  0.2793
86470W        W29387  12.280  33.282  10.217  0.0111  0.0227  0.1384
86471W        W29388   8.768  32.593   9.325  0.3319 -0.0070 -0.1469
86472W        W29389  11.041  28.209   9.567  0.3230  0.0217 -0.3478
86473W        W29390   8.729  31.699   9.112 -0.2265 -0.1145  0.3522
86474W        W29391  10.362  34.338   9.667 -0.0896 -0.2583  0.0178
86475W        W29392   9.889  30.464   8.556  0.2570  0.0669  0.0462
86476W        W29393   8.921  30.159   9.516  0.1003 -0.0094 -0.1917
86477W        W29394  10.363  28.367  10.186  0.0001  0.1987  0.1940
86478W        W29395   9.309  30.642  10.289 -0.0467 -0.0794  0.2799
86479W        W29396   9.078  31.071   9.654 -0.1114  0.1183  0.0417
86480W        W29397   7.255  28.701   8.236 -0.3037  0.1015 -0.2820
86481W        W29398  11.261  28.927  11.158 -0.4239 -0.5018 -0.0108
86482W        W29399   9.481  31.313  10.331 -0.1094 -0.1248 -0.0876
86483W        W29400   5.821  34.088   9.382  0.2203 -0.1915  0.1236
86484W        W29401  12.323  33.206  11.018  0.4512 -0.0252 -0.0279
86485W        W29402  11.914  30.850  10.920 -0.1552  0.1706  0.1541
86486W        W29403  10.588  33.064   9.494 -0.3488  0.1853  0.4176
86487W        W29404   8.234  28.419  10.133  0.1770  0.2374 -0.0012
86488W        W29405   8.488  30.392   6.504  0.1100  0.1670  0.0485
86489W        W29406   8.623   0.881   9.146 -0.3611 -0.2232  0.0059
86490W        W29407   7.657  33.224   8.978 -0.1664 -0.1368 -0.0380
86491W        W29408   9.686  29.232  10.650  0.0425  0.2049  0.1399
86492W        W29409   8.850  32.042  10.810  0.2095  0.2243  0.0412
86493W        W29410   7.890  32.207  10.973 -0.1002  0.1368 -0.0762
86494W        W29411  10.440  34.185  11.114  0.2168  0.1146 -0.1891
86495W        W29412  10.019  30.962  10.933 -0.0288  0.1763  0.2608
86496W        W29413   8.551  30.598   9.671 -0.3616  0.0699  0.1241
86497W        W29414  11.117  33.584   8.938  0.3319 -0.0472 -0.3022
86498W        W29415   8.905  32.430   8.687 -0.1005 -0.1592 -0.0808
86499W        W29416   6.667  33.162  10.540 -0.1450 -0.0715 -0.1456
86500W        W29417  10.365  31.366  10.379  0.2969 -0.2756 -0.0005
86501W        W29418  10.089  29.121   9.204  0.2161  0.1053 -0.1812
86502W        W29419   9.009  31.062  10.529  0.2062 -0.0264  0.3413
86503W        W29420  10.300  30.779  10.432  0.1964  0.3410 -0.3071
86504W        W29421  11.761  31.678   7.702  0.0608  0.0812  0.1323
86505W        W29422  10.694  32.150   8.711 -0.0103  0.0842 -0.0791
86506W        W29423   8.559  28.952   8.619  0.1283 -0.2075  0.1997
86507W        W29424   9.015  29.541   8.300 -0.2135  0.2839  0.2615
86508W        W29425   9.954  28.010  11.260  0.0577 -0.0869  0.1390
86509W        W29426   7.634  31.681  10.081  0.3247 -0.0509  0.0273
86510W        W29427   9.633  31.089   9.065 -0.3006  0.3387 -0.0511
86511W        W29428  11.915  30.159  10.730  0.0318  0.3700  0.0375
86512W        W29429  11.105  30.938  10.233 -0.4863 -0.1110  0.1705
86513W        W29430  13.181  30.963  10.939  0.0162 -0.1011  0.2201
86514W        W29431   9.801  27.508  11.442 -0.1794 -0.1068 -0.1153
86515W        W29432   9.022  30.551   8.836  0.0620  0.0486  0.0590
86516W        W29433  10.452  30.545   9.946 -0.1323 -0.0164  0.1947
86517W        W29434   8.099  32.029   8.888 -0.0427 -0.3826 -0.2293
86518W        W29435  10.575  30.408   9.440  0.0800  0.1970  0.0097
86519W        W29436  11.431  29.575   9.577  0.1804  0.1080 -0.1919
86520W        W29437   8.549  30.879  10.456 -0.0292  0.1945  0.2172
86521W        W29438  11.194  30.404  10.068  0.4433 -0.3007 -0.0302
86522W        W29439   8.686  29.570   8.639  0.1227 -0.1545  0.0867
86523W        W29440  10.748  29.309  10.094  0.0476 -0.0661  0.2306
86524W        W29441   5.400  34.552  10.620 -0.2185 -0.1061 -0.0401
86525W        W29442  10.504  32.048   9.145  0.0669 -0.0735  0.2868
86526W        W29443   9.155  30.547   9.812  0.0194  0.0545  0.3355
86527W        W29444  10.280  32.581  10.330 -0.2580 -0.3131  0.1470
86528W        W29445  10.185  34.086   8.841 -0.0874  0.2692 -0.0898
86529W        W29446   7.420  32.431  10.795  0.0111  0.4584  0.0050
86530W        W29447  10.146   0.818  10.721  0.0077  0.0239 -0.3089
86531W        W29448   9.814  31.553   9.078  0.1862  0.1900  0.0878
86532W        W29449  10.735  29.977  10.361  0.0464  0.0386 -0.1488
86533W        W29450   9.347  32.217   8.504 -0.0156 -0.1282  0.1073
86534W        W29451  11.854  27.964  10.409 -0.1772 -0.2497 -0.1411
86535W        W29452   8.977  31.479  10.021 -0.2305  0.0037  0.2031
86536W        W29453  11.644  31.693   8.611  0.0477 -0.1779 -0.1791
86537W        W29454   5.796  31.520   9.148  0.3775  0.1429  0.0600
86538W        W29455  11.593  30.535   9.740  0.2396  0.1409  0.2815
86539W        W29456   9.268  32.589   8.987  0.0092 -0.1672 -0.2669
86540W        W29457   8.796  29.039  11.564 -0.4449  0.0940  0.1347
86541W        W29458   9.958  28.967   8.733  0.0284  0.0136 -0.0206
86542W        W29459   6.039  32.576   9.550 -0.0377  0.3860  0.1102
86543W        W29460  11.008  31.223   7.976  0.3843  0.1007  0.0825
86544W        W29461  10.053  30.909   9.963  0.0556 -0.1243  0.1235
86545W        W29462  11.391  30.644  11.093  0.0158 -0.0586  0.0054
86546W        W29463   9.851  27.503  10.934 -0.0144 -0.2752 -0.1013
86547W        W29464   8.408  33.397   9.710 -0.0879 -0.0851 -0.0850
86548W        W29465   8.986   0.351  11.196  0.2527 -0.2377  0.1322
86549W        W29466   9.481  31.250   7.972 -0.3302  0.2381 -0.1680
86550W        W29467   8.814  32.034  10.279  0.0670 -0.1258 -0.0538
86551W        W29468  11.717  31.282  10.763 -0.2203 -0.1218  0.0891
86552W        W29469   9.721  28.612   9.913  0.0960  0.3548  0.1702
86553W        W29470   7.490  29.889   9.460 -0.3203  0.3595  0.1495
86554W        W29471   7.848  30.991  10.476  0.1559  0.2080 -0.0163
86555W        W29472  11.508  32.675  10.069  0.0562 -0.0077 -0.0907
86556W        W29473   9.000  27.183  11.588 -0.3589  0.2906  0.0517
86557W        W29474  12.316  28.315  10.447 -0.0186 -0.2201 -0.0353
86558W        W29475  12.046  33.676  10.586 -0.2920  0.2997  0.1136
86559W        W29476   7.477  32.437   9.602 -0.2788  0.2074  0.2099
86560W        W29477   9.324  32.784  10.406  0.3556 -0.0738  0.3680
86561W        W29478   7.735  31.089  10.962 -0.3055 -0.2054  0.3277
86562W        W29479  10.674  29.615  10.887 -0.0638  0.0028 -0.0202
86563W        W29480   4.686  30.479  12.084  0.0964 -0.0204 -0.2301
86564W        W29481   7.767  33.265   9.466  0.2512 -0.1906 -0.0814
86565W        W29482   9.925  33.312   9.922 -0.4022 -0.1904  0.1507
86566W        W29483  11.070  29.054  10.307  0.1202 -0.0976 -0.3544
86567W        W29484   9.246  32.331  10.519 -0.0181  0.2783  0.0664
86568W        W29485   8.733  29.074  10.709  0.1824 -0.1625 -0.1795
86569W        W29486   8.699  32.373   9.868  0.0666 -0.4696 -0.5443
86570W        W29487   8.691  28.091  10.414  0.1821 -0.3018 -0.2990
86571W        W29488  12.003  29.538  11.440  0.1780  0.0553 -0.0148
86572W        W29489   9.819  32.200   8.266 -0.0479  0.2160 -0.1146
86573W        W29490   8.549  31.124   9.861  0.0873  0.0424 -0.1941
86574W        W29491   5.725  32.861  10.598 -0.3915  0.0324  0.1722
86575W        W29492   9.979  33.065   8.632  0.1547  0.2496  0.0268
86576W        W29493  12.127  31.520  10.331 -0.0121 -0.1289 -0.1182
86577W        W29494   9.237  30.532  11.337  0.0034  0.1068  0.1540
86578W        W29495   7.053  32.841   9.678  0.2205  0.0980 -0.2104
86579W        W29496   7.527  29.487  10.537  0.3486 -0.4328 -0.0679
86580W        W29497   9.748  32.018  10.513 -0.0068 -0.0512 -0.0071
86581W        W29498   8.992  27.851  10.981  0.1963 -0.1597  0.1663
86582W        W29499   9.980  30.521   9.502 -0.1122 -0.0215 -0.0600
86583W        W29500  12.500  30.665  10.182 -0.2974  0.0254  0.1307
86584W        W29501   9.853   0.017  10.273  0.0017 -0.0140 -0.0843
86585W        W29502   9.963  31.415   7.857  0.1314 -0.2397 -0.0578
86586W        W29503  10.597  31.206   8.860  0.0851  0.0796 -0.0659
86587W        W29504  11.238  31.393   9.101  0.3624 -0.3445 -0.0662
86588W        W29505   9.329  29.231   8.492 -0.1160 -0.1561  0.2014
86589W        W29506   7.302  30.086  10.163 -0.0652  0.0458 -0.0253
86590W        W29507   9.206  29.810   9.791 -0.2289 -0.2071  0.0737
86591W        W29508   8.504  33.875   8.362 -0.4132 -0.0646 -0.0297
86592W        W29509   9.945  33.469   9.181 -0.2258 -0.2155 -0.0967
86593W        W29510   9.587  29.964  10.160 -0.0510 -0.2327 -0.2383
86594W        W29511   7.671  30.542  10.822 -0.0192  0.1379  0.0650
86595W        W29512   9.059  30.567   7.903  0.1473 -0.0399  0.1970
86596W        W29513   7.844  32.527   9.947  0.0684  0.1204  0.0998
86597W        W29514  14.940  33.438  11.434  0.2155 -0.2392  0.2201
86598W        W29515   8.456  29.423  10.281 -0.0534 -0.1178  0.0719
86599W        W29516   8.754  32.088   9.467 -0.1747  0.2379 -0.1075
86600W        W29517   8.457  30.067  10.775  0.0630 -0.0842  0.2990
86601W        W29518   6.935  31.970   9.923 -0.0038 -0.0300  0.0187
86602W        W29519   9.125  31.476  10.783  0.0727  0.3063  0.1667
86603W        W29520  11.160  29.361  10.878  0.0484  0.0868  0.1814
86604W        W29521  12.291  28.948   9.424 -0.4070 -0.2069 -0.0515
86605W        W29522   9.689  32.420  10.210  0.1951  0.0383  0.2437
86606W        W29523   9.533  33.334  10.227 -0.1911 -0.2032 -0.2445
86607W        W29524  11.246  32.053   8.582 -0.0503  0.2496 -0.2020
86608W        W29525   6.635  33.877  10.815 -0.0881 -0.1125 -0.2099
86609W        W29526   9.817  28.991  10.206 -0.0813  0.3493  0.3414
86610W        W29527   7.957  30.039  10.824  0.1759 -0.0738 -0.0501
86611W        W29528  10.538  31.040  10.034 -0.2981  0.1101  0.1270
86612W        W29529   9.223  33.760   9.753  0.2435 -0.0854 -0.0672
86613W        W29530  10.394  33.188   9.976  0.0491  0.3126  0.0895
86614W        W29531   8.162  33.611   8.664 -0.1754  0.2557  0.1191
86615W        W29532  11.736  33.108  10.095  0.3589 -0.1027 -0.1856
86616W        W29533   9.470   0.386   9.904 -0.0138 -0.0119 -0.1187
86617W        W29534   8.483  31.649   9.590  0.1937  0.1122  0.0213
86618W        W29535   8.406   1.009  11.014  0.1656  0.3268  0.0953
86619W        W29536   5.679  33.584   7.194  0.3573  0.2202 -0.2021
86620W        W29537  11.037  32.941   8.373  0.1822  0.0562 -0.0449
86621W        W29538   8.041  33.753   9.714 -0.1642 -0.0546  0.3688
86622W        W29539  11.639  29.857   8.296  0.1979  0.2864  0.0978
86623W        W29540  11.619  29.004  10.615 -0.1623  0.0438 -0.0986
86624W        W29541  12.230  30.125  10.162  0.0902 -0.4212  0.0402
86625W        W29542  12.944  29.629  11.001  0.0302  0.0349 -0.0056
86626W        W29543   8.320  32.076   9.942 -0.1247  0.4704 -0.1388
86627W        W29544  11.558  31.462   9.560  0.1416  0.2241 -0.0342
86628W        W29545   9.258  31.814  10.390 -0.2939 -0.0452 -0.1580
86629W        W29546   6.177  32.892  10.897  0.0506 -0.0035  0.1019
86630W        W29547  13.728  27.303   9.883  0.3975 -0.3567  0.3986
86631W        W29548   9.236  30.325   9.208  0.0935  0.2213  0.0352
86632W        W29549  10.338  32.138  10.649  0.1824 -0.2958 -0.1940
86633W        W29550   8.609   0.131  10.846  0.0349  0.1738  0.0274
86634W        W29551   3.617   0.043  11.269  0.1674  0.1003 -0.2097
86635W        W29552   9.762   0.546  10.486  0.0158 -0.0372 -0.0336
86636W        W29553   9.022  29.301   9.841 -0.3879  0.1439 -0.1280
86637W        W29554  13.456  30.166   9.742  0.2370  0.3100  0.1521
86638W        W29555   5.264  31.711  10.939  0.3515  0.1113  0.2017
86639W        W29556   7.020  32.194  10.450  0.1515 -0.3631 -0.2678
86640W        W29557  11.585  30.132   9.306 -0.3147  0.2265  0.1280
86641W        W29558  10.609  32.696   9.865 -0.1963  0.0560 -0.4871
86642W        W29559  12.487  28.250  11.410  0.0798  0.0689  0.0184
86643W        W29560   7.404  31.869   9.619  0.4391 -0.4247 -0.4276
86644W        W29561  12.030  30.857   9.928  0.3197  0.0334  0.3467
86645W        W29562   7.253  30.992   9.102 -0.0106 -0.0525 -0.1632
86646W        W29563   9.940  29.580  10.405  0.2306 -0.0407 -0.0267
86647W        W29564   7.067  32.981  10.169  0.0335  0.0429  0.0916
86648W        W29565  10.516  33.036  10.491 -0.2743  0.0958  0.1812
86649W        W29566  10.114  31.907  10.222  0.1257  0.1288  0.0087
86650W        W29567  10.672  32.206   9.648  0.2691 -0.0154  0.1430
86651W        W29568  12.806  31.077   9.946  0.1598 -0.3527 -0.0152
86652W        W29569   9.558  32.833   9.919  0.1678  0.3295 -0.0443
86653W        W29570   9.849  29.122  11.103  0.2967 -0.1415  0.0304
86654W        W29571  13.634  31.960  10.760 -0.2691 -0.2225 -0.0452
86655W        W29572   8.568  26.774  10.871  0.0860  0.1136  0.1046
86656W        W29573   7.954  31.651  10.626 -0.0637  0.3224 -0.0138
86657W        W29574  15.140  31.575  10.990 -0.2842 -0.0771 -0.1574
86658W        W29575   8.870  30.823  10.083 -0.0782 -0.0623  0.1618
86659W        W29576   7.548  31.354  10.585 -0.2094  0.1686 -0.1654
86660W        W29577   8.298  32.972   9.362 -0.0404  0.1034  0.2070
86661W        W29578  14.798  26.755  10.198  0.0822 -0.1557  0.0136
86662W        W29579  11.503  30.162  10.977 -0.0530 -0.0006 -0.2115
86663W        W29580   9.482  28.390  10.770 -0.0204 -0.1366  0.2001
86664W        W29581   8.557  31.054   8.367  0.0380 -0.0934  0.1480
86665W        W29582   9.865  31.904  11.107 -0.0535  0.1343 -0.2669
86666W        W29583  10.424  34.490  10.666 -0.1271  0.0533  0.0833
86667W        W29584  13.279  28.897  11.545 -0.0371  0.1820 -0.0675
86668W        W29585  10.922  32.798  10.343 -0.1661 -0.0530  0.4346
86669W        W29586  11.226  31.633   8.254 -0.1703  0.0557  0.3855
86670W        W29587  10.814  30.180   9.824  0.0347 -0.1301  0.1030
86671W        W29588  11.784  27.656   8.546  0.2866 -0.0704 -0.2433
86672W        W29589  10.362  29.917   9.063  0.0861 -0.2178 -0.1090
86673W        W29590  11.541  30.033   9.872  0.0475 -0.0087  0.1460
86674W        W29591   5.888  30.356  10.838  0.1302 -0.1074 -0.2878
86675W        W29592   7.812  33.169   8.415  0.1565 -0.1207 -0.3365
86676W        W29593   9.926  31.085  10.438 -0.0892 -0.1048  0.3957
86677W        W29594   5.905  30.247  11.375  0.0762  0.0001 -0.2409
86678W        W29595   7.871  30.929   7.640  0.1715  0.0720  0.0786
86679W        W29596  11.725  32.143   8.828 -0.3312  0.2894  0.0476
86680W        W29597   9.654  30.502   8.969 -0.0645 -0.0636 -0.0843
86681W        W29598   4.988  29.922  11.341 -0.0612 -0.5070 -0.2136
86682W        W29599   9.386  30.065   8.694  0.2956 -0.1231  0.0765
86683W        W29600  10.990  32.227   9.122 -0.2251 -0.3702 -0.1694
86684W        W29601  10.555  29.769   9.973  0.1485  0.1358 -0.1514
86685W        W29602   8.313  31.218   8.791  0.1792 -0.3483 -0.2675
86686W        W29603   8.902  30.696   9.290  0.2160  0.0432 -0.1840
86687W        W29604  11.043  33.902   9.961  0.1764 -0.2424 -0.0714
86688W        W29605   9.726  32.556  10.737 -0.3854  0.0650 -0.1571
86689W        W29606  10.241  32.293   9.902  0.1422 -0.0514 -0.0389
86690W        W29607  10.662  27.500  10.392 -0.1442  0.2950 -0.4126
86691W        W29608  10.633  30.166  10.884  0.1192  0.1493 -0.0374
86692W        W29609   9.780  30.446   9.959  0.0777  0.0910  0.3301
86693W        W29610  10.280  27.607   9.371 -0.1060  0.2633 -0.3850
86694W        W29611  12.212  30.004  11.511  0.2486 -0.1472 -0.1870
86695W        W29612  10.710  31.211   9.456 -0.3228 -0.1679 -0.2450
86696W        W29613   7.064  29.388  11.529 -0.1371  0.0317 -0.1664
86697W        W29614  10.801  31.476   9.958  0.2135 -0.2054  0.2003
86698W        W29615  10.839  33.109   8.809 -0.1390 -0.3304  0.1062
86699W        W29616  10.115  31.611  10.713 -0.0468 -0.0665 -0.1646
86700W        W29617   4.615  31.009  11.095  0.0443 -0.1609  0.0137
86701W        W29618  11.329  33.071  10.451  0.2656  0.2004 -0.3320
86702W        W29619   8.094  31.033   9.512 -0.0876  0.0876  0.0107
86703W        W29620  10.411  30.586   8.595  0.1342  0.0661  0.1503
86704W        W29621   9.248  34.166   9.028 -0.0109  0.0830 -0.0313
86705W        W29622   9.370   0.296  10.625 -0.0975  0.1129  0.2935
86706W        W29623  11.010  31.893  10.153  0.0172  0.0576  0.0798
86707W        W29624   8.279  30.632  10.126  0.3153 -0.3278 -0.0548
86708W        W29625   9.734  32.482   9.245 -0.1891  0.2964  0.1311
86709W        W29626   8.429  31.710  10.906 -0.2179 -0.0190 -0.1301
86710W        W29627  12.389  29.570  10.206 -0.4685 -0.1595 -0.0640
86711W        W29628   8.262  31.194  10.282  0.1728  0.0555  0.0180
86712W        W29629  10.594  29.110   9.701 -0.0924 -0.0695 -0.0581
86713W        W29630   4.399  30.536   9.723 -0.2102  0.0910 -0.1676
86714W        W29631  10.254  29.527  11.173 -0.0237 -0.0714  0.0014
86715W        W29632   8.521  34.665   0.884 -0.2719 -0.1032  0.1235
86716W        W29633   9.711  32.808   1.349  0.1167  0.1984 -0.1562
86717W        W29634  11.000  33.176   3.416  0.0930  0.0965  0.0651
86718W        W29635   5.415  32.684   0.381  0.0372 -0.0099 -0.1771
86719W        W29636   8.873  32.436   1.750 -0.1447 -0.2323 -0.2174
86720W        W29637   9.972   1.100  31.557  0.1282 -0.0912 -0.3343
86721W        W29638  10.867  33.593   3.907  0.1863  0.1418  0.0590
86722W        W29639   8.608  33.303   1.571 -0.2804  0.0812 -0.0166
86723W        W29640   5.739  33.528   1.779  0.1309 -0.1897  0.0278
86724W        W29641  11.414  33.634   3.221  0.1953 -0.3029 -0.0497
86725W        W29642   8.058   0.727  31.667 -0.0200  0.3191 -0.0004
86726W        W29643   8.954  34.034   3.482  0.0489  0.0136  0.3304
86727W        W29644   7.888   0.218   1.605  0.0106  0.0815  0.0259
86728W        W29645   9.089  32.064   4.658 -0.0162  0.0057  0.1470
86729W        W29646   9.419  32.434   0.483 -0.0151 -0.1701 -0.1993
86730W        W29647   8.273   1.037   0.048 -0.0595  0.0365 -0.3275
86731W        W29648   7.666   0.035   2.530  0.1975 -0.0021 -0.1635
86732W        W29649   8.985  33.162   3.966 -0.4249 -0.3646  0.3773
86733W        W29650   9.024  33.396   1.172  0.4562 -0.2427 -0.0349
86734W        W29651  10.523  33.967   2.955  0.3310  0.0633 -0.0033
86735W        W29652   9.848  32.461   4.928  0.1217  0.1047 -0.3200
86736W        W29653  10.302  34.409   3.849 -0.1286  0.1620  0.0047
86737W        W29654   9.554  32.523   2.025  0.2896 -0.0827 -0.1570
86738W        W29655  10.918  32.608   4.543  0.0755 -0.1720 -0.1092
86739W        W29656  11.023  31.553  31.264  0.2389  0.2643 -0.1330
86740W        W29657   9.170   0.136  29.677 -0.0908  0.2801  0.0299
86741W        W29658   9.506  32.932   0.735 -0.2384  0.3189 -0.3085
86742W        W29659  10.659  32.300   0.511  0.1245 -0.0781 -0.2782
86743W        W29660  10.380  32.917   2.814 -0.0045  0.0979  0.1215
86744W        W29661  10.250   0.097  31.794  0.1046  0.2343 -0.3027
86745W        W29662  10.479  34.362   4.929  0.1197  0.1853  0.2503
86746W        W29663   8.355  34.246   1.004 -0.2133  0.0991 -0.1113
86747W        W29664   7.913   0.788   1.973 -0.1069  0.3260  0.2124
86748W        W29665   8.154  33.261   4.259  0.0986  0.1182  0.1134
86749W        W29666  10.849  33.170   4.221  0.1253 -0.0773 -0.1993
86750W        W29667   8.313  33.245  31.876  0.0823  0.0928  0.3714
86751W        W29668   8.449  32.600   0.982 -0.4430  0.2896 -0.1953
86752W        W29669   9.244  31.517   1.843 -0.0661 -0.0743 -0.0441
86753W        W29670  10.074  31.351   3.712  0.1289 -0.2969  0.0640
86754W        W29671  11.910  33.855  31.894 -0.0143 -0.2029  0.1711
86755W        W29672  10.101  32.430   4.537  0.0066  0.0741  0.1999
86756W        W29673   8.073  33.400   5.162  0.1470  0.0334 -0.0670
86757W        W29674  11.507  31.964   0.651 -0.1700  0.1366  0.1725
86758W        W29675   5.978  33.820   1.284  0.0900 -0.2224  0.1057
86759W        W29676  10.553  32.791   1.765  0.2860  0.1088  0.2617
86760W        W29677  10.476  31.537  30.330 -0.0510 -0.0432  0.1352
86761W        W29678   9.075   1.024   3.996  0.1053 -0.0641  0.0406
86762W        W29679   7.236  33.109   2.736  0.1411  0.2640  0.2515
86763W        W29680  10.064  33.726   4.580  0.0100 -0.1762  0.1611
86764W        W29681   8.121  34.167  31.532 -0.0753  0.1682  0.0638
86765W        W29682  11.088  34.216   3.323  0.1544  0.3742 -0.2221
86766W        W29683   6.945  32.635   2.955 -0.2857 -0.1359 -0.1665
86767W        W29684  11.200  33.958   0.435  0.1936  0.1715  0.0364
86768W        W29685   6.371   0.154   2.047 -0.1826  0.2364 -0.0895
86769W        W29686  11.312  33.178   4.509 -0.0179  0.2067 -0.0081
86770W        W29687   8.280  33.668   1.647 -0.1940 -0.0595 -0.1301
86771W        W29688   7.467  34.510  31.907 -0.1278 -0.0679 -0.1581
86772W        W29689   8.693  34.019   0.697  0.3754 -0.0712 -0.0693
86773W        W29690  11.153  31.020   4.255 -0.1787 -0.1097 -0.0386
86774W        W29691   9.106  33.778   0.888  0.1126  0.0743 -0.0313
86775W        W29692   8.067  34.270   2.237 -0.2594  0.3870  0.2934
86776W        W29693   9.257   0.059   1.981  0.2463  0.0911 -0.0773
86777W        W29694  10.882  33.006   4.830 -0.1230 -0.0655  0.1356
86778W        W29695   8.863  33.788   2.855 -0.0626 -0.0280  0.3874
86779W        W29696   8.843  33.725   1.771 -0.3387  0.1302 -0.3509
86780W        W29697   7.798  34.526  31.464 -0.2846 -0.1930  0.1214
86781W        W29698  10.489  34.056   1.510 -0.2369  0.0909  0.0225
86782W        W29699   9.094  32.248   2.340  0.0520 -0.0117  0.3436
86783W        W29700   9.685   0.311  31.957 -0.0960  0.2119  0.1541
86784W        W29701  10.707  33.006   0.290  0.2871 -0.0648  0.0371
86785W        W29702  10.826  34.454   1.038 -0.1042  0.2020  0.0937
86786W        W29703   9.520  31.088   0.485 -0.3813 -0.4617 -0.2156
86787W        W29704   8.482  33.730   0.256  0.2071 -0.0155  0.0021
86788W        W29705  10.571  32.017   1.372 -0.1496 -0.3768  0.0534
86789W        W29706  10.408  32.338   4.178 -0.0695  0.1853  0.0029
86790W        W29707   9.859  31.412   4.232 -0.0773 -0.2202 -0.2071
86791W        W29708   9.664  31.052   4.552 -0.4306 -0.0831 -0.1337
86792W        W29709  11.417   1.003   4.881  0.1761  0.0281 -0.1821
86793W        W29710  10.839  34.191   0.165 -0.0522 -0.0296 -0.0196
86794W        W29711   9.128  32.874   3.021 -0.1857  0.0031 -0.1882
86795W        W29712   8.880  32.324   0.367 -0.0223 -0.1085  0.1564
86796W        W29713  10.307  33.850   3.733  0.0657  0.3450 -0.2713
86797W        W29714   9.383  33.415   3.636  0.3247 -0.1505 -0.0273
86798W        W29715   8.992  33.166   0.650  0.0056  0.0014  0.0098
86799W        W29716  10.492  31.002   1.345 -0.2226 -0.1409  0.3704
86800W        W29717  11.617  31.077   3.941 -0.2216 -0.2847  0.1728
86801W        W29718   8.720   0.308  30.427  0.1236 -0.1461 -0.3559
86802W        W29719   8.488  33.229  31.400 -0.3406  0.0956  0.0909
86803W        W29720  10.411  32.842   2.297 -0.1453  0.3165 -0.1408
86804W        W29721   7.785  33.853   0.457  0.2604 -0.0304  0.0556
86805W        W29722   9.692  33.511   3.045 -0.1963 -0.0824  0.0217
86806W        W29723   9.542  33.533   4.490 -0.2553 -0.0469  0.1998
86807W        W29724   9.793  31.510  31.087 -0.1315  0.0899  0.0497
86808W        W29725   9.088  34.029   5.243  0.1043 -0.0160 -0.1353
86809W        W29726   8.416  32.970  30.025 -0.0804 -0.0566 -0.2419
86810W        W29727  10.655  32.092   5.117 -0.0372  0.0210  0.0919
86811W        W29728   9.083  34.066   0.408  0.2371 -0.0909  0.0319
86812W        W29729   9.294  34.482   1.541  0.0974  0.2749  0.1723
86813W        W29730   9.239  34.105   4.436 -0.1147  0.2039  0.0535
86814W        W29731   9.697  33.864  31.635  0.1277  0.1582  0.1293
86815W        W29732   8.156  33.843   0.837 -0.1049  0.0949 -0.1322
86816W        W29733  10.052   0.429  30.272 -0.1521 -0.0939  0.1101
86817W        W29734   9.747  34.089   4.365  0.0966  0.1382  0.0178
86818W        W29735   9.553  33.203   4.067 -0.0435 -0.0112  0.0519
86819W        W29736   9.422  33.169   2.299  0.0943  0.3283  0.0150
86820W        W29737   8.654  33.522   0.854  0.1657  0.3208  0.0651
86821W        W29738   9.005  32.962   1.593  0.0963  0.3448  0.1446
86822W        W29739   9.085  32.782   2.101 -0.2362 -0.1698  0.1719
86823W        W29740  12.198  34.135   4.498 -0.0321 -0.0717 -0.6311
86824W        W29741  10.184  32.664   3.673 -0.1876 -0.3275  0.0866
86825W        W29742  10.201  32.079   5.348  0.1925 -0.1325  0.1143
86826W        W29743   9.531  33.748   1.209 -0.0437  0.2782  0.0967
86827W        W29744   8.392  34.014   3.859  0.1240  0.0942 -0.3638
86828W        W29745   8.008  32.327   3.813  0.0261  0.0872 -0.0233
86829W        W29746   8.695  34.441   1.315 -0.1610 -0.1804  0.2741
86830W        W29747   7.803  33.128  31.737  0.1846  0.1601 -0.2152
86831W        W29748  10.104  32.391   2.227 -0.3628 -0.0085  0.0036
86832W        W29749   9.346  33.686   1.675  0.0451  0.0453  0.0706
86833W        W29750   8.260   0.486   1.840  0.2666 -0.0801 -0.0424
86834W        W29751  12.130   2.207   2.797 -0.0696  0.0505 -0.0079
86835W        W29752  10.367  32.468   5.056  0.0166 -0.1434  0.2442
86836W        W29753   9.905  32.288   3.969  0.0594  0.0112  0.0098
86837W        W29754  10.487  33.943   4.662 -0.2261  0.3105 -0.0570
86838W        W29755  10.407  31.137   3.271 -0.0387 -0.3261 -0.0314
86839W        W29756   9.613  32.340   4.405  0.3401 -0.2856  0.2208
86840W        W29757   9.466  32.637   2.519 -0.1071  0.4829 -0.1691
86841W        W29758  12.431  32.211  31.064 -0.0397  0.0918 -0.3004
86842W        W29759  11.086  33.322   2.931  0.1577  0.1890  0.0740
86843W        W29760  10.559  33.968   2.043  0.0114 -0.0757 -0.0264
86844W        W29761  11.162  32.887   0.052 -0.0709 -0.1120  0.1741
86845W        W29762   9.609  34.444   2.059 -0.0038 -0.0848  0.2389
86846W        W29763   7.532  34.541  30.965  0.1375 -0.2135  0.0687
86847W        W29764   9.478  33.764   3.983  0.0859  0.2363 -0.0240
86848W        W29765   9.811  33.402   2.037 -0.1389  0.1297 -0.0082
86849W        W29766   6.302   0.924   1.195 -0.2384  0.0627 -0.0475
86850W        W29767   7.496   0.172   0.763 -0.0825 -0.1711 -0.2133
86851W        W29768   8.262   0.644  31.135  0.3375 -0.0655  0.1105
86852W        W29769   9.945  33.673   0.127  0.0252  0.1791  0.1503
86853W        W29770  11.258  33.891   4.600 -0.2579  0.0847  0.2153
86854W        W29771   9.327  32.575   1.572 -0.0414 -0.2042  0.2099
86855W        W29772  10.463  32.907   4.457  0.1419  0.0566 -0.1674
86856W        W29773   9.754  31.687   3.388 -0.1228 -0.0941  0.2186
86857W        W29774   9.258  32.964   1.184 -0.3879 -0.3333 -0.0257
86858W        W29775  10.079  33.361   5.458  0.0829  0.2911 -0.1854
86859W        W29776   8.614  33.663   3.334  0.0285 -0.2361  0.3564
86860W        W29777   8.557  33.414   2.060 -0.2238  0.0979  0.0655
86861W        W29778   7.491  34.469   2.925  0.2195 -0.0361 -0.1227
86862W        W29779   8.776   0.009  31.389  0.0562 -0.1126  0.2217
86863W        W29780  10.718  33.132  30.155 -0.2284 -0.2238 -0.2229
86864W        W29781  10.155  33.047   0.541 -0.0835  0.2359 -0.0153
86865W        W29782   9.859  34.130   0.254  0.3871 -0.0820 -0.0772
86866W        W29783   7.898  31.484  31.577 -0.0479 -0.1202  0.0835
86867W        W29784   9.644  32.416  31.485  0.0638 -0.1078 -0.1139
86868W        W29785   8.941  33.949   4.050  0.0513 -0.2209  0.1815
86869W        W29786  12.383  32.226   1.808  0.1470  0.3970 -0.1310
86870W        W29787   6.949  33.828   1.674  0.1298 -0.0246 -0.0320
86871W        W29788   7.461   0.701   2.176  0.0977 -0.1497  0.3881
86872W        W29789  11.664  31.424   3.240 -0.0847 -0.2933 -0.0503
86873W        W29790   9.171   0.164   1.173  0.2465  0.2901 -0.3851
86874W        W29791   9.259   0.845   2.519  0.1523  0.0782 -0.0654
86875W        W29792  10.226  33.273   2.494  0.1064 -0.0996  0.0941
86876W        W29793  10.029   0.018   2.079  0.0076 -0.2686 -0.3989
86877W        W29794  10.170  33.752   3.285  0.0278 -0.0755 -0.0274
86878W        W29795   8.321   0.574   0.125 -0.0243  0.0641  0.2416
86879W        W29796  11.164   0.451   1.930  0.1671  0.2079 -0.3098
86880W        W29797  10.449  31.692   1.806 -0.2958 -0.2788  0.2252
86881W        W29798   8.052  34.550   0.734 -0.0316 -0.1029 -0.0879
86882W        W29799   8.770   0.188   4.699 -0.2889  0.0760 -0.1135
86883W        W29800   9.665  32.683   0.026  0.3256  0.0115 -0.0120
86884W        W29801   8.468   0.709   0.871  0.0009  0.3158  0.0386
86885W        W29802  10.254  32.405   1.473 -0.5574 -0.3421  0.0689
86886W        W29803   9.033   0.280   0.689 -0.1633  0.3894  0.0798
86887W        W29804   9.466  33.134   3.229  0.2487  0.1864 -0.0451
86888W        W29805   8.260  33.297   1.260  0.0323  0.4591 -0.1332
86889W        W29806   9.868  34.364   0.671 -0.0427 -0.0758 -0.1028
86890W        W29807  11.109  32.741   0.495  0.0960 -0.0003 -0.0157
86891W        W29808   8.569  32.776   2.981  0.0506 -0.1369  0.0743
86892W        W29809   7.687   0.141  30.545  0.0027  0.1462 -0.0399
86893W        W29810   8.842  34.223   2.594  0.1825 -0.0408  0.0847
86894W        W29811  10.521  32.227   4.619  0.2124  0.4822 -0.1980
86895W        W29812  10.284  33.219   3.990 -0.2784 -0.0152 -0.2356
86896W        W29813  11.344  32.467   4.272  0.0831 -0.1994 -0.1720
86897W        W29814   8.978  33.380   2.406  0.2151  0.0277  0.2602
86898W        W29815   8.472  32.784   1.470 -0.2808 -0.1450 -0.0392
86899W        W29816  10.002  34.095   1.416 -0.2399 -0.3602  0.0453
86900W        W29817  10.385  33.185   0.979  0.1079  0.0024 -0.2094
86901W        W29818   9.147  33.568   3.208  0.2066 -0.0072  0.5305
86902W        W29819   6.793   0.581  31.113  0.0140 -0.0400 -0.0433
86903W        W29820   7.944  33.919   6.282 -0.0625  0.3959  0.0278
86904W        W29821   8.142  33.080   2.823 -0.0985 -0.0669 -0.0453
86905W        W29822   7.197  34.042   2.741  0.3147 -0.0128 -0.0490
86906W        W29823   7.718  33.318   1.767 -0.2054  0.1778  0.3508
86907W        W29824   9.729  32.789   3.868  0.2415 -0.1400 -0.0827
86908W        W29825   9.305  32.885   3.659 -0.0807  0.1604  0.0553
86909W        W29826   8.353  33.828   2.200 -0.1291 -0.3515  0.1015
86910W        W29827  10.861  32.478   4.078 -0.2228  0.4833  0.3096
86911W        W29828   9.286  32.369   3.685  0.3674  0.1844  0.0900
86912W        W29829   7.191  32.862   0.348  0.2154 -0.1638  0.0236
86913W        W29830   7.632  33.065   3.909 -0.0800  0.1336  0.1234
86914W        W29831   9.135  32.701   4.132  0.1711  0.1730 -0.3686
86915W        W29832  12.383  32.249   4.958  0.0487 -0.0950  0.0368
86916W        W29833   9.888  33.933   0.970  0.0088 -0.1427 -0.0769
86917W        W29834  10.052  33.202   4.495  0.2927 -0.1352  0.2803
86918W        W29835   8.626  33.877   1.284  0.3171  0.0249  0.1469
86919W        W29836  10.121  33.217  30.982 -0.1351 -0.0769  0.0194
86920W        W29837   8.950  33.567   4.510 -0.0474 -0.2070  0.0555
86921W        W29838   8.475   1.469  31.382 -0.1937 -0.2020 -0.1312
86922W        W29839   8.390  33.445   2.520  0.0569  0.3912  0.0344
86923W        W29840   8.228  34.187   0.431  0.0718  0.1059  0.0835
86924W        W29841  10.635   0.468  30.852 -0.0080  0.0210 -0.0994
86925W        W29842   7.672  32.749   2.584 -0.2702  0.1383  0.0266
86926W        W29843   7.896   0.537   2.584 -0.2555  0.5524 -0.0676
86927W        W29844   9.704  34.640   2.874 -0.1090 -0.2297  0.1119
86928W        W29845   9.734  33.974   2.209  0.0634  0.0056 -0.8495
86929W        W29846  10.088  32.778   4.166  0.4931 -0.3373  0.0855
86930W        W29847  10.284  34.372   0.359  0.0045 -0.2017  0.0465
86931W        W29848   8.129  33.915   6.851 -0.0898  0.1442 -0.2748
86932W        W29849  10.680  34.076   3.990 -0.1629 -0.2698 -0.3006
86933W        W29850  10.716   0.286   5.117  0.2793  0.0020  0.4003
86934W        W29851   6.654  33.447   5.256  0.1257  0.2561  0.0211
86935W        W29852  10.606  32.626   8.530  0.0729  0.1194  0.0893
86936W        W29853   9.182  33.042   5.535 -0.1992 -0.0367  0.0096
86937W        W29854   8.792  33.473   7.400 -0.1193 -0.1131 -0.3634
86938W        W29855   8.654  32.376   6.793 -0.3277 -0.2988 -0.1742
86939W        W29856   7.127  32.521   6.900 -0.2675 -0.0464  0.1460
86940W        W29857  10.411   0.051  10.012 -0.0606 -0.2525  0.0793
86941W        W29858   6.731   0.478   7.910 -0.1246  0.2394 -0.1342
86942W        W29859   6.023  33.830   6.923  0.2703 -0.0463  0.2814
86943W        W29860  11.033  32.159   4.691  0.0035  0.2153  0.0459
86944W        W29861   9.276  33.991   7.474  0.0140  0.1557 -0.2118
86945W        W29862   8.956   2.175   8.748  0.1595 -0.1626  0.0516
86946W        W29863   7.693  34.451   4.587  0.0088  0.0687 -0.0087
86947W        W29864   4.975  34.610   6.943 -0.0724 -0.0282  0.0028
86948W        W29865   6.678  32.865   7.007 -0.2841  0.2992  0.0241
86949W        W29866  11.976  33.364   7.334 -0.0726  0.1382  0.1222
86950W        W29867  10.841  33.439   5.868 -0.1009 -0.0286  0.2844
86951W        W29868   9.370  33.994   8.480 -0.0403 -0.1568 -0.2076
86952W        W29869  12.004  34.050   8.209 -0.0230  0.2775 -0.0740
86953W        W29870   8.823  34.269   6.276 -0.1445  0.0063  0.1470
86954W        W29871  12.620  32.800   7.694  0.0573 -0.0080 -0.2569
86955W        W29872  10.619   0.817   6.044  0.0191 -0.0280 -0.1188
86956W        W29873   7.828  31.484   4.571 -0.4810 -0.0089  0.0658
86957W        W29874  10.532  33.177   7.450 -0.0774  0.1262  0.0292
86958W        W29875   9.412  32.316   6.976  0.0827  0.0503 -0.1890
86959W        W29876   7.683  33.486   7.584  0.1271  0.2683 -0.1040
86960W        W29877  10.144  33.362   5.995  0.2679 -0.1929  0.0668
86961W        W29878   8.834   1.300   8.172 -0.0574 -0.1828  0.0943
86962W        W29879   6.297   0.100   8.206  0.0906 -0.1876 -0.1327
86963W        W29880   7.452  33.541   5.631 -0.0158  0.2509 -0.4314
86964W        W29881   6.435  34.115   7.326 -0.4058  0.5722 -0.0075
86965W        W29882   6.549  32.383   7.951 -0.1621 -0.2250 -0.2877
86966W        W29883   8.730  33.104   6.214  0.1813  0.1086 -0.1086
86967W        W29884  11.156  33.569   6.815  0.0150  0.3128  0.1107
86968W        W29885  10.694  32.465   6.401 -0.1731  0.0836  0.0607
86969W        W29886  10.030  33.406   7.558  0.0671  0.3858  0.1558
86970W        W29887  10.591  31.956   3.308  0.0190 -0.2326  0.2192
86971W        W29888   8.585  34.351   8.254  0.2061  0.3605  0.4575
86972W        W29889   7.407  31.593   5.970  0.0330 -0.0395 -0.0654
86973W        W29890  10.202  33.916   5.179 -0.0948 -0.1881 -0.0337
86974W        W29891   6.956  33.986   7.262 -0.0807  0.0035 -0.1008
86975W        W29892  11.558  30.295   5.989 -0.6156  0.2794  0.1215
86976W        W29893  11.148   1.775   5.051  0.0353  0.2626  0.1885
86977W        W29894   7.654  34.563   8.030  0.0568  0.0259  0.1537
86978W        W29895  11.204  34.632   4.255  0.0911  0.0966  0.5105
86979W        W29896  11.337  33.320   8.079  0.1114 -0.0285  0.0216
86980W        W29897   6.127  33.292   6.921 -0.3039  0.4035  0.0697
86981W        W29898   9.621  34.482   6.864 -0.1538 -0.2736 -0.3952
86982W        W29899   9.229  32.444   8.002  0.1792 -0.2523 -0.0574
86983W        W29900  10.854  32.690   7.192  0.0359  0.0568  0.0431
86984W        W29901   8.151   0.546   5.609 -0.0593 -0.0543  0.2781
86985W        W29902   9.670   0.011   8.881 -0.4087 -0.0511 -0.0637
86986W        W29903   7.260  33.815   8.244 -0.0996  0.1737  0.0310
86987W        W29904   9.092  32.665   6.781  0.3963  0.1072 -0.2204
86988W        W29905   7.059  32.595   4.009 -0.2819 -0.0931 -0.5499
86989W        W29906  11.550  33.299   6.999 -0.1631  0.1062  0.1463
86990W        W29907   9.196  34.155   6.793  0.1233  0.1500 -0.0602
86991W        W29908   8.962  32.468   7.238  0.2122 -0.0644 -0.1816
86992W        W29909   6.450  33.549   6.623  0.0707 -0.0913 -0.3436
86993W        W29910  10.493  33.178   8.448  0.0001 -0.1640  0.0739
86994W        W29911   7.101  32.833   8.056  0.2129 -0.2923  0.1478
86995W        W29912  10.370   0.499   7.327  0.1095 -0.0110  0.2330
86996W        W29913   7.727  32.995   5.013  0.0685  0.2603 -0.1825
86997W        W29914  11.322  33.142   6.526 -0.5143 -0.0166 -0.0903
86998W        W29915  10.904  34.091   4.971  0.1163 -0.3408  0.4149
86999W        W29916   9.550  34.378   5.071 -0.0784 -0.1683  0.0793
87000W        W29917   9.527  32.635   3.124 -0.0940  0.1574  0.2403
87001W        W29918   9.988  32.800   3.147 -0.1050 -0.0674  0.1876
87002W        W29919   8.909  34.041   7.891  0.0072 -0.1458  0.0497
87003W        W29920   8.764  34.287   3.051 -0.0036  0.0915 -0.0551
87004W        W29921   9.270  33.957   6.221  0.3495  0.1600 -0.1835
87005W        W29922  11.258  33.006   7.265  0.1448 -0.1858 -0.2504
87006W        W29923  10.387  31.572   5.221  0.2050 -0.1681  0.4467
87007W        W29924   9.747  33.849   7.504 -0.3799 -0.0483 -0.1728
87008W        W29925  11.353   1.311   9.254 -0.7310  0.1193  0.2016
87009W        W29926  10.581  32.416   5.517  0.3616  0.0840 -0.1419
87010W        W29927  10.220  33.883   7.517  0.2630  0.0753 -0.0580
87011W        W29928   8.540  33.426   4.709 -0.1749  0.1090 -0.0098
87012W        W29929   9.265   1.255   8.380  0.0643 -0.1365 -0.1987
87013W        W29930  10.603   1.091   9.839 -0.0807  0.1870 -0.1186
87014W        W29931   8.896  33.650   6.078  0.1462 -0.1590  0.3149
87015W        W29932   7.626  33.067   6.466 -0.1755 -0.0526 -0.1009
87016W        W29933  11.329  33.206   8.682  0.0033  0.0684  0.0695
87017W        W29934   8.770  34.366   4.424  0.1419 -0.1134  0.0071
87018W        W29935   8.271  32.000   4.684 -0.2014 -0.0973  0.0008
87019W        W29936  11.432  32.728   6.034 -0.1820 -0.1641 -0.2800
87020W        W29937   9.062  31.984   7.522 -0.1516  0.1081 -0.0205
87021W        W29938  10.828  34.012   8.249 -0.2326 -0.1324 -0.1008
87022W        W29939   9.458   0.744   9.244 -0.0946 -0.0612  0.0333
87023W        W29940   9.272  33.317   2.785  0.0252 -0.0779 -0.1725
87024W        W29941   8.590   0.839   7.281 -0.0609 -0.0659 -0.0866
87025W        W29942   9.946  32.275   3.471 -0.1327 -0.1068  0.0457
87026W        W29943  10.423   0.306   8.241 -0.0184 -0.0212 -0.3219
87027W        W29944  10.672  31.628   6.185 -0.1363 -0.0474  0.0908
87028W        W29945   7.528  34.608   5.798 -0.3945  0.0979 -0.4947
87029W        W29946   8.115  33.050   8.758  0.3136 -0.2694 -0.5127
87030W        W29947   9.953  33.806   5.678  0.1817 -0.1569  0.4011
87031W        W29948   9.577  32.771   6.739  0.5064 -0.1869 -0.0002
87032W        W29949   7.047  33.328   8.200  0.2071 -0.3769 -0.2469
87033W        W29950   9.847  34.072   6.562 -0.2254 -0.2788  0.2538
87034W        W29951  10.570  33.701   6.229  0.1030 -0.2003 -0.0704
87035W        W29952   8.974   3.116   8.568  0.2796 -0.0495 -0.0077
87036W        W29953  10.019  33.460   6.540 -0.1559  0.1051  0.2187
87037W        W29954  10.740  31.375   2.689 -0.2978  0.0053 -0.4072
87038W        W29955   7.929   1.512   6.929 -0.2040 -0.2899 -0.0164
87039W        W29956  12.148  32.323  10.292  0.0335 -0.1541  0.3123
87040W        W29957  10.511  33.332   4.661 -0.2753 -0.0006  0.1707
87041W        W29958  10.620  34.267   9.182 -0.3614 -0.0028  0.0035
87042W        W29959   8.144  33.112   6.383 -0.1616  0.2416 -0.0924
87043W        W29960   5.563  33.229   7.613 -0.1866 -0.2178 -0.2003
87044W        W29961   7.105  32.960   7.270  0.2362  0.0199  0.1521
87045W        W29962  10.129  32.327   5.774  0.0103 -0.1043 -0.1677
87046W        W29963  10.575  31.554   3.707  0.4879 -0.4891  0.0490
87047W        W29964   9.461   1.808   7.930 -0.1994 -0.0961 -0.0786
87048W        W29965  11.720  33.559   6.617 -0.2566  0.0301  0.1198
87049W        W29966   8.285   0.122   7.903  0.2123 -0.0679 -0.1486
87050W        W29967  11.053  34.159   6.850  0.0170  0.1577  0.1317
87051W        W29968   9.369  31.950   8.003 -0.2155  0.1230 -0.0837
87052W        W29969  12.137  31.797   4.950  0.1434  0.0888  0.0563
87053W        W29970   8.747  34.626   8.839 -0.1357  0.1430  0.0253
87054W        W29971   8.737   1.823   9.598 -0.2168 -0.1750  0.1120
87055W        W29972  11.341   1.375   9.755 -0.4159  0.0745  0.1127
87056W        W29973   9.957  33.652   7.091  0.0096 -0.1263 -0.2595
87057W        W29974  10.579  32.843   3.891 -0.2450  0.2003 -0.0799
87058W        W29975  11.397  33.843   7.484  0.1010 -0.1588 -0.2014
87059W        W29976  11.593  33.572   5.587  0.0572 -0.2073  0.2524
87060W        W29977   9.639  32.231   5.873  0.0435  0.1124  0.2274
87061W        W29978   7.687  34.396   5.332  0.3913 -0.2527  0.1319
87062W        W29979  13.572  33.907  10.037 -0.3081  0.1215 -0.4080
87063W        W29980   8.295  32.999   5.790 -0.1939  0.0124  0.0711
87064W        W29981   9.543  33.985   7.050 -0.2091  0.0938  0.0420
87065W        W29982   9.927  31.726   6.672  0.0231 -0.0388  0.0677
87066W        W29983   7.534  33.511   5.119  0.0779 -0.2458  0.1177
87067W        W29984  10.554  33.130   6.139 -0.0990  0.0808 -0.0572
87068W        W29985   9.051   1.645   5.449  0.2043  0.0102  0.0640
87069W        W29986   8.007  32.165   6.205 -0.1590 -0.1046 -0.2315
87070W        W29987  11.774   0.645   7.898  0.0221 -0.0479  0.0265
87071W        W29988   9.712  32.680   7.156  0.1110  0.0013 -0.0787
87072W        W29989   9.966  34.244   7.821  0.0591 -0.0827 -0.1847
87073W        W29990   9.942  34.019   8.331 -0.1483 -0.1443  0.0070
87074W        W29991  11.025  32.846   7.685  0.0235  0.1491 -0.1460
87075W        W29992  11.130  34.169   8.663 -0.2513 -0.1501 -0.0933
87076W        W29993   8.374   1.056   5.810  0.0974  0.0491 -0.0090
87077W        W29994   7.488  34.555   6.645 -0.0598  0.0136 -0.1226
87078W        W29995   8.582  34.294   6.764 -0.2268 -0.2475  0.2693
87079W        W29996   6.784  33.227   6.369  0.0010  0.0294  0.3129
87080W        W29997  11.765  32.790   4.441  0.1054  0.0008  0.1261
87081W        W29998  11.023   0.773   5.118 -0.0419  0.0235  0.0977
87082W        W29999  11.916   0.787   5.717  0.1008  0.2625 -0.2226
87083W        W30000   8.195   0.488   7.251 -0.1485  0.0976 -0.2318
87084W        W30001   9.548  32.289   7.651  0.1093 -0.1096  0.0544
87085W        W30002   6.225  32.658   8.624 -0.0331  0.1851 -0.0520
87086W        W30003   9.296  32.268   9.439  0.1403  0.1507 -0.4296
87087W        W30004   8.584  33.757   7.003  0.0177 -0.1120 -0.2776
87088W        W30005   8.023  33.530   7.113  0.0650  0.2670  0.1657
87089W        W30006   9.628  34.346   7.419  0.0326  0.0875 -0.0328
87090W        W30007   8.025  34.351   6.533 -0.3196  0.3760 -0.0090
87091W        W30008   8.558  32.672   4.914  0.2735  0.0177  0.1263
87092W        W30009  11.484  34.182   6.261  0.3636 -0.0285 -0.4236
87093W        W30010   7.292  33.736   7.764 -0.2347  0.1907 -0.0590
87094W        W30011  11.069  30.822   7.237 -0.2387 -0.3328  0.1717
87095W        W30012   7.514   0.407   6.775  0.0129  0.3183  0.4519
87096W        W30013  10.909  33.292   5.349  0.0955  0.3860  0.0225
87097W        W30014   7.388  32.288   7.248 -0.1672 -0.1684 -0.0402
87098W        W30015  10.433   1.348   4.490  0.0197  0.2563 -0.2072
87099W        W30016  10.084   1.108   9.730  0.3166  0.0231 -0.0044
87100W        W30017   8.683   0.297   3.602  0.1096 -0.0726 -0.0709
87101W        W30018   8.574  32.094   7.347 -0.1717 -0.1305 -0.0078
87102W        W30019  11.388  33.816   5.136  0.2284 -0.1975 -0.1620
87103W        W30020   7.850  33.864   5.389  0.1042 -0.1635  0.2829
87104W        W30021   8.439   0.613   7.734 -0.2252  0.2408 -0.1142
87105W        W30022   7.231  31.012   2.785  0.0135 -0.2077  0.0438
87106W        W30023   9.174   0.404   7.991 -0.1572  0.4764 -0.0947
87107W        W30024  10.253   1.135   5.242  0.0869  0.2221  0.1792
87108W        W30025   6.655  33.530   7.958  0.1402  0.2103 -0.0553
87109W        W30026  11.599  34.211   7.753 -0.0442 -0.3113  0.3762
87110W        W30027   8.528  33.962   7.534 -0.2080  0.0822 -0.1147
87111W        W30028  11.719  32.929   8.778 -0.0232  0.3770 -0.0224
87112W        W30029   9.401  30.431   8.269 -0.1098  0.0279 -0.3589
87113W        W30030   9.531   0.196   7.322 -0.1374 -0.3641 -0.2100
87114W        W30031  10.050  34.549   8.617 -0.5436  0.4384 -0.0916
87115W        W30032   8.346  32.546   6.367  0.0657  0.2525 -0.0524
87116W        W30033  11.401  31.993   4.178  0.2027  0.1773 -0.2256
87117W        W30034  11.548  30.631   4.207 -0.3218  0.3384  0.2157
87118W        W30035   9.277   0.323   8.871 -0.0971  0.4007 -0.0302
87119W        W30036   7.774  33.436   6.136 -0.1336 -0.1059  0.0900
87120W        W30037   8.369  34.285   8.703 -0.1905  0.0738  0.2288
87121W        W30038   8.120  32.847   6.913  0.1554 -0.2983 -0.5835
87122W        W30039  10.654  33.673   8.771 -0.0186  0.0854 -0.2797
87123W        W30040   9.424  32.671   5.137 -0.1022 -0.0627  0.1508
87124W        W30041   8.673  32.887   6.689  0.0759 -0.0342  0.5668
87125W        W30042   7.207  32.845   6.299  0.1376  0.1251  0.0485
87126W        W30043   8.588  34.122   5.440 -0.0383 -0.1388  0.1366
87127W        W30044  10.689  33.610   9.262 -0.0585  0.1465 -0.0066
87128W        W30045   9.263  32.727   8.463  0.0762 -0.1593  0.1563
87129W        W30046   7.536  33.159   3.193 -0.0470  0.4441 -0.2532
87130W        W30047  10.012   0.402   8.609  0.0270 -0.0597 -0.3171
87131W        W30048   8.195  33.345   8.193  0.2306  0.0590  0.0197
87132W        W30049  10.944  31.833   7.386 -0.0705  0.3209  0.4403
87133W        W30050   8.336  33.508   6.069  0.0343 -0.0511  0.0106
87134W        W30051   6.039  33.824  10.289  0.0094  0.1782  0.1969
87135W        W30052  11.260  31.473   7.593 -0.5126 -0.1670  0.0824
87136W        W30053  10.559  31.406   5.699 -0.1151 -0.2301  0.0354
87137W        W30054   7.249  34.222   7.849  0.2495 -0.1683  0.2339
87138W        W30055   9.686  33.290   5.790  0.1470  0.1244  0.0019
87139W        W30056   8.904  34.172   8.623  0.2018  0.0040 -0.0387
87140W        W30057   8.946  33.425   6.581  0.1850 -0.3205  0.0248
87141W        W30058  11.180  33.894   3.683 -0.1406 -0.1578  0.0662
87142W        W30059   6.251  32.676   7.566 -0.1591 -0.6184 -0.0332
87143W        W30060   8.004  34.371   3.696  0.2193 -0.0609  0.1751
87144W        W30061  10.184  32.834   7.267 -0.3890 -0.2684 -0.0469
87145W        W30062  10.198  31.991   7.026  0.1370 -0.6008 -0.0263
87146W        W30063   8.828  34.282   7.237 -0.1434  0.0563  0.0322
87147W        W30064  11.054  32.152   5.456  0.2592 -0.0879  0.1926
87148W        W30065  10.944   0.136  10.003  0.2648 -0.0478 -0.0567
87149W        W30066   9.905   1.051   7.726 -0.1884 -0.3496  0.0808
87150W        W30067  10.708   0.624   9.642 -0.1495  0.1187  0.4463
87151W        W30068  10.111  32.782   9.843  0.2198  0.0151  0.2896
87152W        W30069   7.841  33.140   7.881 -0.1516  0.0190  0.1082
87153W        W30070   7.583   0.546  11.405 -0.1213 -0.0052  0.0031
87154W        W30071  10.619  33.654  10.064  0.0875  0.2411  0.2421
87155W        W30072   4.419   1.281  11.539  0.2757  0.0766  0.4300
87156W        W30073   8.840  34.389   9.987 -0.1490  0.1810  0.0906
87157W        W30074   6.616  34.479   9.307  0.0790  0.1381 -0.2622
87158W        W30075   7.274  33.931   9.555 -0.1517  0.3921 -0.3059
87159W        W30076   6.556   0.088  10.878  0.0510 -0.1520 -0.1330
87160W        W30077   5.921   0.467  11.375  0.0381 -0.1009  0.2706
87161W        W30078   8.390  32.864   8.375 -0.1084  0.1041  0.4416
87162W        W30079   8.348  33.542  10.266  0.1601 -0.0316  0.1908
87163W        W30080   5.204   0.788  11.934 -0.2969 -0.2417 -0.1314
87164W        W30081   8.903  33.104  10.550 -0.3869  0.1292  0.1681
87165W        W30082  10.740   0.468  10.649  0.0517 -0.0082  0.3272
87166W        W30083   5.671   2.318  11.675 -0.1838  0.0838  0.1551
87167W        W30084   8.525   0.952  11.549 -0.0783 -0.1421 -0.1859
87168W        W30085  11.260  34.415  10.339 -0.3624 -0.0334  0.5270
87169W        W30086   8.537   0.494  10.090 -0.2803  0.0476 -0.2378
87170W        W30087  10.862   1.352   9.553 -0.1185  0.1050  0.2273
87171W        W30088  10.193   1.291  10.601 -0.1888  0.2185 -0.3213
87172W        W30089   8.886   1.263   9.778  0.1275 -0.0513  0.2301
87173W        W30090   9.118   0.403   9.367 -0.1322  0.4170  0.0086
87174W        W30091   8.478  32.904  10.696  0.0305  0.1935  0.0567
87175W        W30092   4.073   0.935  11.128 -0.2095  0.2142  0.2638
87176W        W30093   4.436  32.816   9.718 -0.2897 -0.0870 -0.3907
87177W        W30094   7.948  33.930   8.288 -0.1034  0.0586 -0.0062
87178W        W30095  13.126  34.316  10.997 -0.0165  0.0238  0.0801
87179W        W30096  11.112  34.320   9.689  0.1502  0.0347 -0.4176
87180W        W30097   9.307  34.604   9.674  0.0939 -0.0353  0.3542
87181W        W30098  11.013  32.649   9.470  0.0139  0.6427 -0.0381
87182W        W30099   3.709  33.641  11.402 -0.1507  0.0010 -0.0709
87183W        W30100  11.335  33.631  10.477  0.2416 -0.0426 -0.2333
87184W        W30101  12.666  33.006  10.492  0.1649  0.1394 -0.3580
87185W        W30102  11.589  32.234  10.289 -0.1170  0.2137 -0.0658
87186W        W30103   4.964   0.712  11.491 -0.3606 -0.0582 -0.0642
87187W        W30104   6.921  34.269   9.712 -0.2768  0.1104 -0.2363
87188W        W30105   9.066  33.064  10.036  0.1969 -0.1730 -0.2690
87189W        W30106   8.897  33.678   9.251  0.1649 -0.1385 -0.0045
87190W        W30107  10.561   1.075  10.898 -0.1544 -0.2988 -0.3598
87191W        W30108  11.333   3.386  10.934  0.0179 -0.1129  0.1140
87192W        W30109   8.678  32.932   9.700 -0.1478  0.1316  0.1502
87193W        W30110  10.309   0.433   9.482  0.1037  0.2128 -0.1771
87194W        W30111   9.306  33.477   9.228 -0.1896  0.3581  0.2051
87195W        W30112   8.708   1.363  11.150 -0.1982  0.0613  0.0420
87196W        W30113   8.806   0.938  10.156 -0.0060  0.1150  0.2203
87197W        W30114   6.677   0.234   8.743  0.3264 -0.0473 -0.2787
87198W        W30115  10.678  32.557  10.725 -0.4333 -0.2194  0.5130
87199W        W30116   9.157  34.615   9.201  0.0270 -0.0562 -0.0954
87200W        W30117  10.885  33.247  10.156  0.2525 -0.2229 -0.1664
87201W        W30118  11.980  34.020   9.640 -0.0905 -0.1595  0.0224
87202W        W30119  10.213   0.961  10.161 -0.2618 -0.3645  0.3737
87203W        W30120  10.283  32.830   8.221 -0.0872  0.0846  0.1246
87204W        W30121  11.536  34.109   9.898  0.1700  0.1392 -0.0129
87205W        W30122   7.458  31.852  10.853 -0.1637 -0.0367 -0.2428
87206W        W30123  10.013   0.685   8.232  0.2613  0.1403  0.2000
87207W        W30124   7.196   2.079  10.784  0.0634  0.0832  0.0078
87208W        W30125  10.208  33.884   9.876 -0.5263 -0.1057 -0.0424
87209W        W30126   7.915   1.025  10.682  0.3991  0.2751  0.2082
87210W        W30127  11.970  32.864  11.105  0.0752  0.0586  0.0321
87211W        W30128   9.891   2.523  10.963 -0.1986 -0.0408  0.0573
87212W        W30129   8.855   1.247   8.726  0.1740  0.1230 -0.0735
87213W        W30130   6.908   0.394  11.066 -0.1701 -0.0736 -0.0853
87214W        W30131  12.313  31.996  11.229 -0.2043 -0.2712 -0.3724
87215W        W30132   8.056   0.259  10.294 -0.3254  0.0195 -0.0582
87216W        W30133  10.797  33.914  10.896 -0.1765  0.2039  0.1353
87217W        W30134   8.247  34.600   9.066 -0.3218  0.0860 -0.0469
87218W        W30135   8.595  33.784   8.866  0.2675  0.1223 -0.0816
87219W        W30136  11.957  34.383  10.165 -0.0282 -0.0286 -0.0133
87220W        W30137   6.665   1.535  11.677 -0.0451 -0.1453  0.1167
87221W        W30138   5.495  30.486  11.181 -0.1259  0.1813 -0.0069
87222W        W30139  10.542  34.274   8.547 -0.0034  0.1678 -0.0102
87223W        W30140   7.620   0.343  10.523 -0.0827  0.0126  0.1627
87224W        W30141   7.808   1.492  10.805  0.1222 -0.2541 -0.1379
87225W        W30142   9.426  33.258   9.709 -0.1333  0.0293  0.2528
87226W        W30143  12.034  32.988   9.169  0.0312 -0.1360 -0.1697
87227W        W30144  13.285   3.521  10.036  0.0910 -0.0008 -0.3335
87228W        W30145   7.598  33.650   8.618 -0.0917 -0.2346 -0.0063
87229W        W30146   6.991  31.824  11.102 -0.1617  0.2416 -0.1896
87230W        W30147   8.040   0.169  10.750  0.2833 -0.1139  0.1564
87231W        W30148   7.617  34.563  10.746  0.2010 -0.1740  0.1801
87232W        W30149   8.503   1.546  11.585  0.1576 -0.2628  0.0543
87233W        W30150   9.474   1.634  11.609 -0.0423 -0.1308 -0.1878
87234W        W30151  11.823  31.880  10.514  0.1428 -0.0644 -0.1639
87235W        W30152  12.055  32.751  10.034 -0.2047 -0.1694 -0.2869
87236W        W30153  12.862   0.863  10.817  0.1428 -0.1068  0.2864
87237W        W30154   5.243   2.570  11.478  0.4459  0.0685  0.0721
87238W        W30155   9.370  33.770  10.432 -0.3502  0.1547 -0.2208
87239W        W30156   8.382  33.736   9.347 -0.0954 -0.3261 -0.2854
87240W        W30157   8.592   2.081  10.716 -0.4618 -0.0064  0.1062
87241W        W30158  10.307   0.266  10.457  0.0043 -0.2155 -0.3322
87242W        W30159   7.122   0.270   9.665  0.2618  0.1020 -0.0587
87243W        W30160   9.079  34.190  10.603  0.1079  0.1759 -0.3816
87244W        W30161  12.178  34.145  10.655 -0.0844  0.1861 -0.3978
87245W        W30162  11.842  33.691   8.599 -0.0776 -0.2174 -0.0041
87246W        W30163  10.964  31.439  10.419 -0.0092 -0.1723 -0.5458
87247W        W30164  12.636  34.002  10.902  0.0107  0.1351 -0.1496
87248W        W30165  11.730  33.974  10.428 -0.1626  0.1712  0.0909
87249W        W30166   9.755  33.674   9.615 -0.0139 -0.0681 -0.0304
87250W        W30167   9.883  31.089   9.467  0.1728 -0.2930 -0.0471
87251W        W30168   9.797  34.176  10.391 -0.0427 -0.1259  0.3334
87252W        W30169   6.891  32.345  10.904 -0.1062 -0.3543  0.3105
87253W        W30170   8.792   0.185   7.476  0.2961  0.1203 -0.0578
87254W        W30171   9.355   0.724  10.897  0.1326 -0.0878  0.0597
87255W        W30172   9.314  32.493  11.016 -0.1213 -0.0339  0.2011
87256W        W30173   9.009   1.181  11.593  0.0358 -0.1061 -0.1364
87257W        W30174   8.500  33.401  10.777 -0.1690  0.1062 -0.1277
87258W        W30175   9.367   1.520  10.560  0.2224 -0.1858  0.0322
87259W        W30176   6.786  30.777  10.508 -0.0540 -0.0199  0.2294
87260W        W30177   5.584   1.797  11.065 -0.0891  0.0610  0.2497
87261W        W30178  10.697  34.305  10.090 -0.0807 -0.2657  0.0807
87262W        W30179   8.714  33.749   9.809  0.4702  0.4397 -0.0878
87263W        W30180  11.628   0.387  10.594 -0.1383 -0.1917 -0.2545
87264W        W30181  11.238   0.701  10.805 -0.2025 -0.0562  0.1997
87265W        W30182  10.918  31.904  11.029  0.2002 -0.0022  0.4316
87266W        W30183   6.524  30.901   9.547  0.2865 -0.1289 -0.0193
87267W        W30184  11.101   0.862   9.987  0.0550 -0.0330  0.4577
87268W        W30185   5.226  33.214  10.768  0.2608 -0.0807 -0.1014
87269W        W30186   7.107  33.905  10.809 -0.0597  0.4429 -0.2944
87270W        W30187  11.455  31.574  10.399  0.2535  0.5272 -0.1810
87271W        W30188   9.306   1.766  11.123 -0.0314  0.2874  0.1685
87272W        W30189  10.330  32.466   9.412 -0.1781 -0.0676  0.0097
87273W        W30190  10.093   1.188  11.096  0.0455  0.1125  0.0780
87274W        W30191   5.822   1.843  12.037 -0.1465 -0.2321  0.1649
87275W        W30192   9.779  33.035   9.421 -0.0104 -0.1311 -0.1017
87276W        W30193   7.492   0.636  10.875 -0.2875 -0.0329  0.2771
87277W        W30194   5.351   0.215  11.226  0.1870 -0.0445 -0.3175
87278W        W30195   8.855   0.363   8.472  0.2712 -0.4051  0.2834
87279W        W30196   9.693  34.436   8.305  0.3560 -0.0658 -0.0631
87280W        W30197   8.214  32.101  10.464 -0.1263  0.0700 -0.5271
87281W        W30198  11.450  32.346   9.522  0.3452 -0.0225 -0.0077
87282W        W30199   8.586  34.250  10.633 -0.2297 -0.2432 -0.2380
87283W        W30200   8.093  34.385  10.493 -0.0428 -0.1375 -0.3478
87284W        W30201   7.247  33.513   9.968  0.0095 -0.3671 -0.1897
87285W        W30202  10.920  33.169  10.797  0.1947  0.1701 -0.1958
87286W        W30203  11.620   1.801   9.958  0.0367  0.0307  0.2427
87287W        W30204   6.846  34.377  10.799 -0.0496 -0.2876 -0.1294
87288W        W30205  11.799  34.441  10.630  0.0959  0.1083 -0.2662
87289W        W30206   7.584   1.754  10.526  0.0237  0.0692  0.0262
87290W        W30207   9.574  34.536  10.653 -0.0781  0.3349  0.1360
87291W        W30208   9.740  33.768  10.118  0.0464  0.2091  0.2129
87292W        W30209  10.194  33.514  10.392  0.0901  0.0917 -0.0416
87293W        W30210  12.276  34.485   9.726 -0.2296  0.3913  0.2733
87294W        W30211  11.259   0.114  10.800  0.0303 -0.1569  0.1371
87295W        W30212   6.099   0.070  11.056  0.1394 -0.0077  0.3022
87296W        W30213   5.478  33.363   8.566  0.0042  0.1935  0.0646
87297W        W30214   7.297  34.044  10.109  0.2897 -0.2081  0.3253
87298W        W30215  10.455  34.028  10.517 -0.4363  0.0716  0.0401
87299W        W30216   7.752  33.824   9.210 -0.0487  0.2764 -0.0898
87300W        W30217   5.855  30.839  10.874  0.2333 -0.1721  0.0231
87301W        W30218   9.670   2.992  10.165  0.2528  0.0221  0.0913
87302W        W30219   8.251   0.987   8.592  0.1961 -0.1593 -0.1340
87303W        W30220   5.597  33.948  10.474  0.0489 -0.1443 -0.0719
87304W        W30221   7.853   0.123  11.200 -0.1859 -0.1951  0.3341
87305W        W30222  13.521  32.355  10.999 -0.0351  0.2028 -0.1247
87306W        W30223   8.307  32.574  10.132 -0.4156 -0.1422  0.1609
87307W        W30224   9.007  33.507  10.217  0.0972  0.1718 -0.0154
87308W        W30225  11.795  33.589  10.134  0.1549 -0.0132  0.0807
87309W        W30226   5.289  34.335  11.080 -0.3288  0.2248  0.2124
87310W        W30227   9.810  33.792  10.698 -0.0109 -0.5243  0.0798
87311W        W30228   9.867   0.019   9.717  0.2203 -0.0696  0.2010
87312W        W30229   9.011   1.612   9.024  0.0166  0.0452  0.0656
87313W        W30230   8.315   0.566  10.692 -0.0249  0.5274  0.0239
87314W        W30231  10.122  33.994   9.364 -0.1070 -0.1611 -0.2244
87315W        W30232   7.952  34.075   8.856  0.2367 -0.1585  0.2820
87316W        W30233  14.652  33.419   9.737  0.1784  0.1666 -0.2613
87317W        W30234   7.363   0.170  11.088 -0.2844  0.0159  0.3039
87318W        W30235  12.355  33.671   9.562  0.2741 -0.0739  0.0487
87319W        W30236  12.574   3.070   5.227  0.1568 -0.0411  0.0166
87320W        W30237  12.428  34.448  31.429  0.0014  0.0032 -0.2004
87321W        W30238  12.642   1.150   0.618 -0.3486  0.3093 -0.2289
87322W        W30239  14.779   2.650   0.256  0.4173 -0.1555 -0.0243
87323W        W30240  11.979   2.403   0.462 -0.1684  0.2835  0.4606
87324W        W30241  12.615   3.254   2.214 -0.1798  0.0996 -0.2099
87325W        W30242  13.422  34.197   2.038 -0.2552  0.0683 -0.0079
87326W        W30243  14.355   5.570   1.101 -0.2553 -0.1600 -0.0622
87327W        W30244  13.539   4.231   2.306  0.0496 -0.0157 -0.3226
87328W        W30245  15.125  33.790   0.626  0.0067  0.2415 -0.0733
87329W        W30246  12.628   0.555   2.854  0.2122  0.2979 -0.1650
87330W        W30247  12.073   4.473   3.189 -0.2327 -0.1504 -0.0429
87331W        W30248  13.446  33.870   0.272 -0.1973 -0.0296  0.0840
87332W        W30249  10.598   0.185   3.643 -0.1741 -0.2328  0.0972
87333W        W30250  13.112  34.594   2.228 -0.3380  0.2601  0.1188
87334W        W30251  12.664   0.961  31.171  0.0281  0.1917  0.1019
87335W        W30252  11.500  32.999   4.087 -0.0943  0.0338 -0.1024
87336W        W30253  13.055   0.208   3.870 -0.3258  0.0364  0.2927
87337W        W30254  12.917   2.834   2.343  0.1102 -0.4319 -0.2234
87338W        W30255  11.172   1.335   1.510 -0.1721 -0.0397 -0.0062
87339W        W30256  13.724   0.528   5.715  0.0502  0.1460  0.0117
87340W        W30257  12.197   3.134   1.201 -0.3171  0.1217 -0.0924
87341W        W30258  11.378   2.699  31.528 -0.4105  0.0998  0.1259
87342W        W30259  11.789   1.227   1.694  0.3433  0.0860 -0.2068
87343W        W30260  11.002   1.443   3.188 -0.1218  0.2123  0.1007
87344W        W30261  14.369  34.403   0.939  0.2446 -0.1675  0.0174
87345W        W30262  13.375   2.987  31.450  0.0558 -0.0216  0.1406
87346W        W30263  10.310   1.170   1.941  0.0282  0.0621  0.2501
87347W        W30264  15.080   4.083   0.451  0.1194  0.1638 -0.2355
87348W        W30265  12.963   1.876   4.517 -0.3131 -0.1418  0.3690
87349W        W30266  12.510   3.431   0.475 -0.1392  0.0438 -0.0902
87350W        W30267  12.409   3.689   3.509  0.2425  0.1792  0.2507
87351W        W30268  13.999   4.076  30.928 -0.1235  0.0022 -0.2460
87352W        W30269  14.876   3.783   0.759  0.0240 -0.1969  0.2236
87353W        W30270  14.794   4.266   1.597  0.0696  0.1214 -0.0452
87354W        W30271  13.215   2.780   4.085 -0.0815 -0.2370 -0.3240
87355W        W30272  12.373   2.150   0.949  0.0591 -0.1575 -0.0215
87356W        W30273  12.647   3.185   4.562 -0.0243 -0.1330 -0.1922
87357W        W30274  12.302   2.380   4.490  0.1660  0.0141 -0.2080
87358W        W30275  13.508   1.710   1.978  0.0330  0.1016  0.2196
87359W        W30276  12.187   1.466   3.238  0.1739  0.2154  0.1038
87360W        W30277  12.996   3.466   0.674 -0.0590  0.1171 -0.2053
87361W        W30278  15.034   2.160   1.453  0.0089  0.0674  0.1254
87362W        W30279  10.317   3.217   3.623 -0.0641 -0.0599  0.0286
87363W        W30280  11.594   3.185   1.894 -0.1223 -0.0376  0.0458
87364W        W30281  13.855   0.158   3.314  0.2772 -0.1726 -0.0371
87365W        W30282  11.878   1.936   0.634 -0.1333 -0.2249 -0.1928
87366W        W30283  13.316   1.484   1.523  0.0069  0.0215  0.1722
87367W        W30284  11.518  32.985   0.973 -0.0885  0.0180  0.2811
87368W        W30285  13.774  33.783  31.902 -0.1146 -0.0258 -0.2017
87369W        W30286  12.148   0.477   1.673  0.0153 -0.0542 -0.1703
87370W        W30287  12.402   4.675   1.366  0.3713  0.0566  0.3518
87371W        W30288  12.494  33.495   3.775  0.0957  0.3806  0.2276
87372W        W30289  13.544   1.647   3.368  0.2569  0.0616 -0.2396
87373W        W30290  12.106   1.521   1.457 -0.1835  0.1806 -0.1689
87374W        W30291  12.366   0.523   3.275 -0.1038  0.0687 -0.1155
87375W        W30292  11.687   3.943   2.372  0.0254  0.1654  0.1038
87376W        W30293  11.580   2.210   2.865  0.2807 -0.2000  0.0386
87377W        W30294  13.417   3.284  31.071 -0.1136  0.1964 -0.0267
87378W        W30295  15.205   4.046   1.072  0.4894 -0.0219 -0.5159
87379W        W30296  13.325   2.521  31.525  0.1759 -0.0782 -0.0604
87380W        W30297  12.516   1.730   1.284 -0.0470 -0.1099  0.2069
87381W        W30298  10.299   2.197   4.211 -0.1140  0.2345 -0.0224
87382W        W30299  11.328   1.100   0.958  0.2364  0.3633  0.0419
87383W        W30300  11.229  34.584  31.549 -0.3705  0.2126 -0.0247
87384W        W30301  15.328   3.525   1.830 -0.2298 -0.0580  0.0521
87385W        W30302  10.002   3.560   3.827 -0.0012  0.0773 -0.1022
87386W        W30303  13.511   0.467   2.652 -0.1401 -0.1608  0.1857
87387W        W30304  12.488   1.093   2.203 -0.2613  0.1477 -0.2952
87388W        W30305  13.318   3.078   3.365  0.1806 -0.2390 -0.0071
87389W        W30306  14.378   2.895   1.176  0.0811  0.0017  0.0677
87390W        W30307  13.547   0.187   2.166  0.1464  0.0098  0.3572
87391W        W30308  11.631   0.113  31.851  0.0736  0.0478 -0.1929
87392W        W30309  12.927  34.129   1.998 -0.3190 -0.2620 -0.0851
87393W        W30310  12.869   0.841  31.623 -0.1908  0.1762 -0.2228
87394W        W30311  13.935   0.884   2.643  0.3793  0.3128 -0.0968
87395W        W30312  12.661   0.276   0.348  0.0682 -0.0370 -0.0620
87396W        W30313  12.815   2.906   2.977 -0.1535  0.0723  0.3353
87397W        W30314  12.111   0.284   4.645 -0.0482 -0.0404 -0.2159
87398W        W30315  10.822   3.621   4.314  0.2829 -0.1100 -0.2567
87399W        W30316  11.932   3.380   0.582  0.0678 -0.1697  0.3021
87400W        W30317  10.110   1.193   2.829  0.2033  0.2517 -0.3830
87401W        W30318  10.954   0.739   0.985 -0.0617  0.2216 -0.2052
87402W        W30319  11.019   2.695   3.587  0.1963 -0.1706 -0.0295
87403W        W30320  10.261   3.064   4.113 -0.1646  0.2145 -0.1653
87404W        W30321  13.911  34.640   1.000  0.2362  0.0983  0.0696
87405W        W30322  11.511   0.896   5.441 -0.2983  0.5521 -0.1822
87406W        W30323  13.810  34.517   1.803  0.0895 -0.1430 -0.1129
87407W        W30324  12.046   2.592   1.264 -0.1188 -0.1491  0.0479
87408W        W30325  13.461   3.252   1.683 -0.0029 -0.0043  0.1597
87409W        W30326  13.296   0.924  31.848  0.1051  0.2409 -0.0474
87410W        W30327  14.633   1.388  30.058 -0.0696  0.2265  0.1319
87411W        W30328  11.158   1.908   2.347  0.3132  0.0880  0.1807
87412W        W30329  10.796   1.195   1.121  0.1620 -0.1333 -0.1380
87413W        W30330  11.943   0.509   4.227  0.1902 -0.0030  0.0946
87414W        W30331  12.033   0.112   3.163  0.1392 -0.1733 -0.0552
87415W        W30332  12.142   0.742   2.076  0.3214  0.0151  0.1577
87416W        W30333  11.083   0.441  31.611 -0.0636  0.0998 -0.2180
87417W        W30334  14.538   0.617   1.082  0.1124 -0.1056 -0.6136
87418W        W30335  11.973   0.013   1.921  0.0158 -0.0889 -0.2121
87419W        W30336  10.845   1.349   2.051 -0.3058 -0.0665 -0.2443
87420W        W30337  14.253   0.242   6.506 -0.4172 -0.2495  0.2723
87421W        W30338  13.892   4.256   1.279 -0.1017 -0.1698 -0.0571
87422W        W30339  13.471   2.375   2.299 -0.3254  0.0659 -0.1540
87423W        W30340  14.099   3.473   2.481 -0.1983 -0.1668 -0.0970
87424W        W30341  10.756  34.203   2.517  0.1568 -0.0068  0.0413
87425W        W30342  11.713   0.776   0.841 -0.2537 -0.0278 -0.3228
87426W        W30343  12.076   2.306   2.162  0.0316 -0.2302  0.0430
87427W        W30344  12.475   2.469   0.522 -0.0828 -0.0322 -0.0970
87428W        W30345  12.314  33.133   4.253  0.2253  0.0436 -0.2454
87429W        W30346  15.412   3.966   0.074 -0.2169 -0.3519  0.1003
87430W        W30347  12.758   2.984   0.596  0.0981  0.0623 -0.0662
87431W        W30348  12.441   0.869   4.124  0.0599 -0.1157 -0.1080
87432W        W30349  13.613   0.238   3.892 -0.1621 -0.3066  0.0075
87433W        W30350  13.174   1.695   3.706  0.1606 -0.2726  0.1385
87434W        W30351  12.915  34.659   0.795  0.0633  0.0558  0.1380
87435W        W30352  10.292  34.074   2.485  0.2652  0.3756  0.0684
87436W        W30353  12.399   4.836   2.923  0.2541  0.0477 -0.1459
87437W        W30354  10.400   2.532  31.904  0.1295 -0.1579 -0.0969
87438W        W30355  10.770   1.922   1.979  0.2248  0.3494 -0.2372
87439W        W30356  12.518   3.776   2.545 -0.3040 -0.0369 -0.2668
87440W        W30357  12.947   0.832   4.263 -0.1949 -0.2051 -0.0585
87441W        W30358  11.527  34.332   5.180  0.0752  0.0179 -0.1684
87442W        W30359  12.571   1.621   2.192  0.1242 -0.0194 -0.1487
87443W        W30360  11.088   0.753  30.963 -0.2205  0.3257 -0.1892
87444W        W30361  12.778   3.358   3.252 -0.0332  0.0846  0.0284
87445W        W30362  13.415  33.240   0.905 -0.0644  0.1643  0.2086
87446W        W30363  14.429   1.753  31.553  0.0705  0.3732 -0.2537
87447W        W30364  12.329   3.181   3.285  0.0019  0.1845 -0.2100
87448W        W30365  12.959   2.201   1.213 -0.0132 -0.1923 -0.0372
87449W        W30366  12.990   0.553  31.111  0.0569  0.0394 -0.1392
87450W        W30367  14.280  34.469  30.950 -0.0108  0.2906  0.0814
87451W        W30368  10.878   4.035   4.765 -0.1283  0.0493 -0.0676
87452W        W30369  12.360   2.243  31.362 -0.0220 -0.4390 -0.0653
87453W        W30370  11.178   1.950   4.259  0.0015 -0.1602  0.0788
87454W        W30371  12.854   0.545  29.669  0.1719  0.0483  0.0055
87455W        W30372  15.534   3.191   0.056  0.1820  0.0476  0.0564
87456W        W30373  10.739   1.860   2.617 -0.0422  0.0111 -0.3259
87457W        W30374  13.049   1.257   3.411  0.0682  0.1851 -0.0406
87458W        W30375  13.289   2.266   0.050  0.1162  0.3251  0.0880
87459W        W30376  13.023   1.183   0.198  0.0832  0.0908 -0.1795
87460W        W30377  11.192   1.326   0.296  0.0545 -0.0063 -0.1256
87461W        W30378  11.468   0.852  31.957 -0.0619  0.1419  0.1194
87462W        W30379  12.330   3.182  31.775  0.0412 -0.0756  0.0079
87463W        W30380  11.083   0.687   3.820  0.0016  0.2480  0.3325
87464W        W30381  14.185  33.936   0.905  0.2069  0.0447 -0.0193
87465W        W30382  13.232   0.177   4.774  0.1559 -0.2308  0.0397
87466W        W30383  12.863   1.429   4.756 -0.4783 -0.1514  0.0642
87467W        W30384  11.991  34.336  31.795  0.0371 -0.2761  0.0581
87468W        W30385  11.953   1.031   3.950 -0.1316  0.0053 -0.0172
87469W        W30386  11.918  34.608   0.823  0.4631 -0.4036 -0.0714
87470W        W30387  12.840   1.814   5.755 -0.2581  0.1219 -0.2011
87471W        W30388  11.805   1.087   2.179 -0.4587 -0.0703 -0.0808
87472W        W30389   9.792   1.016   5.010  0.4361 -0.2708  0.2055
87473W        W30390  13.202   3.525   3.049 -0.0665 -0.1352 -0.3468
87474W        W30391  15.072   3.045  31.863  0.1728  0.2041 -0.0648
87475W        W30392  12.549   1.120   4.530 -0.3798 -0.2412  0.2110
87476W        W30393  11.823  33.692  31.289 -0.1146 -0.0122 -0.2600
87477W        W30394  12.474   3.053  30.813  0.0130  0.3456  0.2634
87478W        W30395  12.756   4.818  31.351  0.2070  0.0977  0.4101
87479W        W30396  11.001  33.010   2.049 -0.2023  0.2242  0.1074
87480W        W30397  12.853   2.317   3.670  0.0610 -0.0459 -0.1684
87481W        W30398  12.348   1.985   0.410  0.0482  0.1773  0.0092
87482W        W30399  12.915   1.408   1.077 -0.0253 -0.0397  0.0829
87483W        W30400  11.483   1.753   0.321 -0.0787  0.2774 -0.4414
87484W        W30401  12.449   2.782   1.523  0.1889  0.2808  0.1513
87485W        W30402  12.495   3.259   3.754  0.2836  0.0640 -0.0870
87486W        W30403  11.644  34.236   2.264 -0.2583  0.0098  0.2213
87487W        W30404  12.240   1.488   0.304 -0.2795  0.0209 -0.1778
87488W        W30405  12.057  33.639   1.858 -0.1675  0.4090  0.1684
87489W        W30406  12.251   2.291  31.941 -0.2567 -0.2292  0.0939
87490W        W30407  11.385   1.015   3.208 -0.1659  0.1693  0.1381
87491W        W30408  12.504  33.750   1.592  0.0591  0.0745  0.0600
87492W        W30409  10.664   1.878   3.252  0.1758 -0.0061 -0.5658
87493W        W30410  12.746   1.861   2.619 -0.0725  0.0320  0.0788
87494W        W30411  14.695  34.334   1.315 -0.0161 -0.0566 -0.0853
87495W        W30412  13.324   1.961   2.488  0.0665  0.1204 -0.1252
87496W        W30413  11.246   0.591   3.328  0.1695 -0.1350 -0.2027
87497W        W30414  10.631   0.426  31.876 -0.1761  0.0217 -0.0300
87498W        W30415  11.332   1.010   2.621 -0.0502 -0.0085 -0.1637
87499W        W30416  12.205   2.300   1.714  0.1732 -0.0180 -0.1934
87500W        W30417  12.963   2.672   0.263  0.3865 -0.1335 -0.1716
87501W        W30418  11.809   1.443   2.523  0.0733 -0.0406 -0.2749
87502W        W30419  11.990   1.294  30.491 -0.0176 -0.0108 -0.2850
87503W        W30420  11.656   1.896   2.218  0.2201  0.3405 -0.0116
87504W        W30421  12.166   1.737   5.183 -0.1355 -0.1376  0.0461
87505W        W30422  13.904   1.522   0.266  0.4641  0.0766 -0.4158
87506W        W30423  12.089  33.646   4.691  0.1043 -0.2025  0.1527
87507W        W30424  10.975  32.506   2.047  0.0766 -0.0630  0.2872
87508W        W30425  12.069   1.542   2.038 -0.2539 -0.0732  0.0106
87509W        W30426  12.393   1.155   1.159  0.4566 -0.2049  0.1094
87510W        W30427  12.161  34.630   4.148 -0.2553  0.0360  0.3486
87511W        W30428   9.109   2.206   4.668  0.0018  0.4332 -0.1501
87512W        W30429  11.869   1.057   3.425  0.2095  0.1834 -0.1327
87513W        W30430  14.145   3.045  31.647 -0.4571  0.2449 -0.1423
87514W        W30431  13.887   0.640   3.533 -0.0837 -0.1142 -0.0896
87515W        W30432  13.232   3.933   1.988 -0.0728 -0.0051  0.4757
87516W        W30433  10.079   2.572   2.898  0.1072  0.2160 -0.0470
87517W        W30434  12.935   1.803   1.540  0.0245  0.1205  0.0846
87518W        W30435  12.920   0.352   4.350 -0.4125  0.0672  0.3365
87519W        W30436  12.110   0.594   3.765 -0.1028  0.0908 -0.0877
87520W        W30437  11.598   1.966  31.522  0.2939  0.1210 -0.1978
87521W        W30438  10.517   2.778   3.385 -0.1576  0.2355  0.1217
87522W        W30439  15.138  33.968   1.346  0.4288 -0.3292  0.4956
87523W        W30440  14.176   4.040  29.603 -0.0395 -0.1017  0.1957
87524W        W30441  11.671  33.759   3.770 -0.0714  0.0995  0.1453
87525W        W30442  12.011   1.992   4.612 -0.2413 -0.1975 -0.0229
87526W        W30443  13.233   0.502   1.958  0.0528 -0.0792 -0.0179
87527W        W30444  13.523  33.825   3.818 -0.1535 -0.1838 -0.0291
87528W        W30445  13.199   0.000   3.368  0.2240 -0.3968 -0.2524
87529W        W30446  15.253   2.873   1.015 -0.2406 -0.1389  0.0755
87530W        W30447   9.316  33.816   2.646 -0.1612  0.1301 -0.1464
87531W        W30448  12.043   4.689   5.236 -0.2814  0.1572  0.1026
87532W        W30449  13.556   1.102   4.236  0.1126 -0.0445 -0.0491
87533W        W30450  12.020  34.252   0.327  0.0324 -0.1941 -0.3394
87534W        W30451  10.076  34.138  31.780 -0.3480 -0.1778  0.0133
87535W        W30452  12.614   1.466   3.569  0.0911 -0.1833 -0.1268
87536W        W30453  13.936   2.663   1.093 -0.4533 -0.0992  0.1297
87537W        W30454  12.545   0.009  31.869  0.0993 -0.3269  0.3068
87538W        W30455  13.360   1.313   2.341 -0.3142 -0.0648 -0.0250
87539W        W30456  11.145   2.314   1.018  0.0596 -0.2511 -0.0227
87540W        W30457  13.298   2.165   3.394  0.1023 -0.2104 -0.0771
87541W        W30458  13.146   1.512   0.662 -0.1406 -0.1072 -0.0771
87542W        W30459  13.057   2.535   3.115  0.2675 -0.0969  0.4282
87543W        W30460  11.450  32.698   2.807  0.0593  0.3678 -0.1225
87544W        W30461  14.047   3.437   1.776 -0.2294 -0.2068  0.1075
87545W        W30462  12.501   0.589  30.881 -0.2001  0.1270  0.0916
87546W        W30463  12.958   0.879   2.692 -0.3297  0.1083  0.1024
87547W        W30464  14.791   2.261   2.011 -0.2496  0.0741 -0.1514
87548W        W30465  13.353  33.353   2.999  0.0010  0.0433 -0.3162
87549W        W30466   9.621   1.102   3.929 -0.0828  0.2294  0.1318
87550W        W30467  13.744   2.136   3.142 -0.0087  0.0251  0.0394
87551W        W30468  11.505   1.537   0.754  0.1030 -0.1499 -0.2685
87552W        W30469  12.549   0.557   4.538  0.0868 -0.0211 -0.0757
87553W        W30470  12.976   0.421   2.455  0.1126 -0.2530  0.1236
87554W        W30471  11.830   0.985  31.510 -0.2577  0.0081  0.1118
87555W        W30472  13.143  33.749   2.274  0.0107 -0.0061  0.1439
87556W        W30473  13.461   3.901   4.645 -0.1076 -0.0291  0.3055
87557W        W30474   9.038  33.308   1.934 -0.1586 -0.0335 -0.1494
87558W        W30475  13.931   1.896   1.579 -0.0647  0.5102 -0.2799
87559W        W30476  12.685   4.830  31.896 -0.0393  0.2103 -0.2715
87560W        W30477  12.708   2.187  31.854  0.0758  0.2438  0.0872
87561W        W30478  13.453   1.083   2.768 -0.0918 -0.1292  0.2922
87562W        W30479  10.962  31.981   1.746 -0.3001 -0.2012 -0.4652
87563W        W30480  12.129   2.735   3.574  0.1727  0.1549 -0.1299
87564W        W30481  12.102   1.217   0.701 -0.2075 -0.2680 -0.3338
87565W        W30482  11.831   1.616  31.917  0.0040 -0.1983 -0.4843
87566W        W30483  14.197   1.772   4.229  0.0616  0.0106 -0.0232
87567W        W30484  12.739   3.657   3.956 -0.1954  0.0242 -0.2505
87568W        W30485  13.620  33.693   0.685  0.2937 -0.1702 -0.1461
87569W        W30486  12.803   1.289   6.552  0.0026 -0.0037  0.1976
87570W        W30487  11.178   2.615   0.618 -0.2343 -0.3643  0.0405
87571W        W30488  12.430  33.884   2.128 -0.1205 -0.0193 -0.2797
87572W        W30489  11.793   3.239   2.706  0.0091  0.0334  0.1224
87573W        W30490  11.542   0.546   2.860  0.0410 -0.0893  0.2793
87574W        W30491  12.605   3.240  31.378  0.1100  0.1707 -0.1893
87575W        W30492  13.417   0.446   3.375  0.0610 -0.1106 -0.2668
87576W        W30493  13.689   0.556   1.716  0.2111  0.2200 -0.0682
87577W        W30494  12.679   1.458   2.966  0.1178  0.0855  0.1395
87578W        W30495  12.351   1.010   3.051  0.0236 -0.0840 -0.2651
87579W        W30496  12.817   1.936   3.271  0.1476 -0.0536  0.0625
87580W        W30497  11.136   1.783   2.865 -0.2033  0.1194  0.0970
87581W        W30498  11.658   1.470   4.095 -0.2633  0.0932 -0.2470
87582W        W30499  13.301   2.125   0.698 -0.2144  0.0443  0.0837
87583W        W30500  12.975   1.360   1.975  0.0173 -0.0325 -0.4069
87584W        W30501   9.763  34.629   4.059  0.0843  0.1171  0.3079
87585W        W30502  12.160   0.947   2.541  0.1667  0.0454  0.1157
87586W        W30503  12.258   1.470   2.605  0.1514  0.2978 -0.1666
87587W        W30504  13.091  33.974  31.108 -0.0384  0.0121 -0.1288
87588W        W30505  13.418   1.744   0.148 -0.1303  0.0985  0.0824
87589W        W30506   9.572   1.856   4.610  0.1887  0.0773 -0.0283
87590W        W30507  11.373   1.459   4.539 -0.2234 -0.0038  0.0927
87591W        W30508   9.851   3.677   1.132 -0.1668 -0.1414  0.1027
87592W        W30509  13.735   4.125  31.363  0.0018  0.2767 -0.1691
87593W        W30510  12.951   0.148  31.503  0.0216 -0.1351 -0.1225
87594W        W30511  11.894   2.353  31.582 -0.0222  0.3876  0.1032
87595W        W30512  14.166   0.922   0.883  0.1651  0.1248 -0.1025
87596W        W30513  12.630   2.843   3.448 -0.1045  0.0379 -0.3667
87597W        W30514  11.082   2.246   3.085  0.2387  0.0107  0.1472
87598W        W30515  11.555   2.450   1.325 -0.2390  0.2073 -0.0299
87599W        W30516  11.030   2.354   2.618 -0.1536 -0.3430 -0.1973
87600W        W30517  15.186   1.808   1.886 -0.1509  0.2341  0.0378
87601W        W30518  15.356  34.300   0.576  0.1606  0.0141  0.2787
87602W        W30519  13.784   1.363   1.646 -0.1908  0.3717  0.5196
87603W        W30520  14.736  34.456   2.093 -0.1388 -0.2177 -0.1181
87604W        W30521  11.213   1.525   3.775 -0.0281  0.2888  0.1390
87605W        W30522  11.958   2.049   1.300 -0.0076  0.2020  0.1056
87606W        W30523  11.867   0.177  30.942  0.1251 -0.0899 -0.0126
87607W        W30524  11.185  34.457   2.401  0.0017 -0.0669  0.0319
87608W        W30525  14.027   0.898   1.870 -0.1811 -0.1670  0.0360
87609W        W30526  11.645   3.257   5.200 -0.2911 -0.1933  0.0258
87610W        W30527  13.638   2.796   1.487  0.0672  0.1939  0.0757
87611W        W30528  11.212   0.094   1.533 -0.2466  0.1296 -0.1154
87612W        W30529  11.276   1.642   1.854 -0.2443  0.1599  0.1606
87613W        W30530  14.390   1.092   2.218  0.0900 -0.0993 -0.5061
87614W        W30531  13.379  34.257  31.884  0.1530 -0.0340  0.4670
87615W        W30532  12.644   0.019   2.502 -0.2076  0.0837  0.2298
87616W        W30533  12.088   5.161  31.930 -0.2135  0.0527 -0.0916
87617W        W30534  10.925   0.217   2.458 -0.4616  0.0514 -0.0005
87618W        W30535  13.368   4.113   1.198  0.1017 -0.0549  0.1971
87619W        W30536   9.326   0.351   2.905  0.2804  0.2164  0.0036
87620W        W30537  14.558   2.536   3.045  0.3222 -0.0934 -0.2226
87621W        W30538  10.895   0.974   2.379 -0.2891 -0.2030  0.1377
87622W        W30539  13.185  34.181   2.555  0.3053 -0.0326  0.0905
87623W        W30540  11.790   2.643   0.060  0.1181 -0.1839 -0.1182
87624W        W30541  14.794  34.153   0.765 -0.0798  0.3218  0.1122
87625W        W30542  13.091   0.905   2.173  0.3070 -0.0440  0.0172
87626W        W30543  12.882  34.620   1.681  0.0386  0.1071 -0.2639
87627W        W30544  12.050   0.607  30.638 -0.0868 -0.1173 -0.1660
87628W        W30545  13.095   1.326   4.228  0.1171  0.0270  0.3164
87629W        W30546  14.643   0.347   1.572 -0.0915 -0.2412 -0.2271
87630W        W30547  12.610   4.136   4.011 -0.0018  0.1527  0.0400
87631W        W30548   9.971   0.281   0.677  0.0647 -0.1943  0.1707
87632W        W30549  11.427   0.943   1.424  0.0402 -0.0912 -0.2218
87633W        W30550  11.852   3.470   2.288 -0.0593  0.0637  0.1016
87634W        W30551  12.446   0.999   5.771  0.2714 -0.0778  0.2849
87635W        W30552  14.822   3.958   2.416  0.1324 -0.0708 -0.1155
87636W        W30553  10.637  32.166   3.744 -0.1874 -0.1788 -0.1533
87637W        W30554  14.260   2.263   0.872 -0.1540 -0.1861  0.2717
87638W        W30555  16.177   1.117   0.758 -0.0042  0.1634 -0.4216
87639W        W30556  13.312   3.963   2.657  0.2966 -0.0853  0.2454
87640W        W30557  12.698   2.304   1.735 -0.1607 -0.2857  0.0023
87641W        W30558  17.076   3.030   3.389  0.0072  0.1670 -0.0110
87642W        W30559  10.661   0.656   2.056 -0.5013 -0.0271 -0.0727
87643W        W30560  14.908   4.367   2.068 -0.1468  0.4664  0.4364
87644W        W30561  14.890   2.089   0.996  0.2235  0.3443 -0.0865
87645W        W30562  12.416   1.849   1.772 -0.1204 -0.0979 -0.0112
87646W        W30563  11.688   0.727   1.833 -0.0882  0.0768  0.0864
87647W        W30564  10.007   2.305   0.150 -0.1019  0.4885 -0.1613
87648W        W30565  13.193   1.983   2.942  0.0822  0.0923  0.0939
87649W        W30566  12.700   0.392   1.901  0.1069  0.0875 -0.1056
87650W        W30567  13.163  34.610  30.297  0.0446 -0.2197  0.3124
87651W        W30568  13.423   1.285   3.748  0.2775  0.0150 -0.2236
87652W        W30569  13.811   2.096   2.076  0.2478 -0.2074 -0.1318
87653W        W30570  10.954   3.887   3.883 -0.1296  0.2144  0.0043
87654W        W30571  11.737   2.135   0.027 -0.2499 -0.1990  0.1574
87655W        W30572  11.829   2.720   2.645 -0.0450 -0.3075 -0.1168
87656W        W30573  11.760   0.627   2.408 -0.2224  0.0788  0.0435
87657W        W30574  11.990   4.055   1.897 -0.0251 -0.2764 -0.0265
87658W        W30575  12.987   2.703   1.316  0.2753  0.0545  0.2148
87659W        W30576  12.254   0.231   2.268  0.1194 -0.0835  0.3485
87660W        W30577  17.055   3.308   1.283  0.5842  0.2432 -0.0097
87661W        W30578  12.178  34.229   3.326 -0.1104 -0.0900 -0.2364
87662W        W30579  14.052   0.402   2.759  0.0817 -0.3177 -0.0617
87663W        W30580  12.176   0.764   0.910 -0.1173  0.1310  0.1178
87664W        W30581  11.027   1.455   0.710 -0.0129 -0.1263 -0.1093
87665W        W30582  11.403   0.497   1.175  0.2554 -0.1421 -0.2011
87666W        W30583  10.452   2.032  31.670 -0.3194  0.1479  0.1021
87667W        W30584  10.932   2.609  31.652  0.1096 -0.0057 -0.0193
87668W        W30585  14.814  34.341   3.321  0.0337  0.0316  0.0142
87669W        W30586  10.057   0.055   3.481  0.1216  0.0117  0.0257
87670W        W30587  11.822   2.470   3.247 -0.0532  0.0783 -0.2177
87671W        W30588  11.409  34.167   2.777  0.0911  0.0498 -0.2015
87672W        W30589  15.193   3.354   0.807  0.0138 -0.3181 -0.0964
87673W        W30590  12.141  32.944   3.177 -0.4400  0.1970 -0.0164
87674W        W30591  12.344  33.460   3.251  0.2044  0.2989  0.1341
87675W        W30592  14.606   5.213   2.674  0.2722  0.3115 -0.0570
87676W        W30593  14.301   3.004   1.719  0.0599 -0.0876 -0.2327
87677W        W30594  11.466  34.379   1.687  0.0747  0.3335  0.0240
87678W        W30595  15.065   2.623   1.851 -0.1417  0.2102 -0.0339
87679W        W30596  10.921   0.815  31.948 -0.0438 -0.1269 -0.2404
87680W        W30597  12.856   0.901   1.689 -0.2306 -0.0723  0.1527
87681W        W30598  13.795   0.783   4.522 -0.1263  0.0944 -0.0162
87682W        W30599  11.009   0.633   2.826 -0.1454 -0.2313 -0.1565
87683W        W30600  12.813   1.882   0.809 -0.0101 -0.1203 -0.1070
87684W        W30601  13.418   2.076   1.637 -0.1268  0.1632  0.1533
87685W        W30602  12.231   2.840   0.233  0.1689  0.0113 -0.1023
87686W        W30603  14.504   4.544   3.408  0.0508  0.1218  0.2488
87687W        W30604  15.124   3.134   3.373 -0.4474 -0.0382  0.1384
87688W        W30605  12.736  34.386   3.544  0.0302  0.5470 -0.0158
87689W        W30606  12.516   0.578   1.282  0.3372  0.2418 -0.1835
87690W        W30607  11.655   2.215   4.197  0.2143  0.0396  0.1852
87691W        W30608  14.479   4.278   2.651 -0.0270 -0.1617 -0.1356
87692W        W30609  14.044  34.669   2.360 -0.1024 -0.2124 -0.0134
87693W        W30610  12.280   0.762   0.441 -0.2582 -0.0617  0.1304
87694W        W30611  11.166  33.470   2.042  0.0386  0.0590  0.0418
87695W        W30612  10.778   0.983   3.060  0.0555 -0.0542  0.1506
87696W        W30613  14.099   1.712   3.609 -0.1847 -0.4104  0.3131
87697W        W30614  12.240   1.077   1.717  0.0274  0.3001 -0.3250
87698W        W30615  12.515  34.460   2.067  0.3238  0.1536 -0.2536
87699W        W30616  15.197   1.321   1.589 -0.1771  0.3049 -0.1443
87700W        W30617  13.170   3.763   0.329  0.0043  0.0657  0.0891
87701W        W30618  13.015   0.431   1.465  0.1424 -0.0361  0.1314
87702W        W30619  13.597   0.134   0.191 -0.2281 -0.3399 -0.1989
87703W        W30620  12.127   3.108   2.180 -0.0155 -0.0970  0.1081
87704W        W30621  12.471   0.355   4.085 -0.0228 -0.2287 -0.1431
87705W        W30622  11.779  34.534  31.321 -0.1539 -0.0184  0.1577
87706W        W30623  13.565   1.207   0.417  0.2450  0.1580  0.1612
87707W        W30624  12.355   2.308   3.409  0.0620 -0.2488  0.0279
87708W        W30625  13.627   3.594   2.532 -0.4670 -0.0117 -0.1508
87709W        W30626  12.403   1.883   2.999 -0.2412  0.2664 -0.4095
87710W        W30627  12.918   2.115   0.344 -0.1899 -0.0315 -0.0137
87711W        W30628  11.902  34.537   3.686 -0.2629  0.0296  0.3449
87712W        W30629  13.172   0.976   0.633 -0.4104 -0.1465  0.0976
87713W        W30630  12.851   1.304   2.494 -0.1106  0.0161 -0.0087
87714W        W30631  13.731  34.218   2.509 -0.0045 -0.0110 -0.2404
87715W        W30632  13.084  33.659   3.922  0.1841 -0.3024 -0.3220
87716W        W30633  13.296   0.017   1.115 -0.1850 -0.1553 -0.0322
87717W        W30634  11.349   4.629   6.088 -0.0130  0.2663  0.1673
87718W        W30635  14.034   2.468   2.931 -0.0573 -0.0280 -0.1425
87719W        W30636  11.265   2.821   8.105 -0.0061  0.0931 -0.0980
87720W        W30637  10.978  32.403   5.996 -0.1883  0.0933 -0.1458
87721W        W30638  14.452  33.843   3.339 -0.1429  0.0908 -0.0426
87722W        W30639  11.808   1.492   5.930 -0.1287  0.0188 -0.0518
87723W        W30640  10.772   2.258   4.380 -0.0178 -0.1679 -0.2900
87724W        W30641  13.552   2.584   4.444 -0.2718  0.1143 -0.0411
87725W        W30642  10.942  34.592   6.499  0.1179 -0.0300  0.1146
87726W        W30643  13.424   3.302   4.987 -0.1299  0.1595 -0.1539
87727W        W30644  13.581   3.580   5.403  0.2381 -0.2595  0.0873
87728W        W30645  12.603   0.855   4.941  0.0208 -0.0185 -0.1092
87729W        W30646  12.940  34.137   7.992 -0.2706  0.0149  0.1781
87730W        W30647  12.517   3.878   6.988  0.0567 -0.1593 -0.2678
87731W        W30648  11.887   1.081   5.038 -0.1377  0.4904 -0.4006
87732W        W30649  11.724  32.751   5.075 -0.0400 -0.0155 -0.0017
87733W        W30650  13.744   1.640   5.535 -0.1509  0.2153  0.1061
87734W        W30651  10.370   1.254   6.805 -0.0824  0.2585 -0.2304
87735W        W30652  13.663   2.154   6.132 -0.0859 -0.1058  0.2790
87736W        W30653  13.765   1.606   6.220 -0.2444 -0.2598 -0.0008
87737W        W30654  10.494   3.708   4.778  0.2571 -0.2688 -0.2385
87738W        W30655  13.903   0.746   7.072  0.1333 -0.0562  0.0914
87739W        W30656  12.891   0.630   8.741 -0.3488  0.0246  0.4193
87740W        W30657  11.348   2.969   6.033 -0.1329  0.0345  0.0433
87741W        W30658  11.078   0.577   4.614  0.0467 -0.2440  0.0266
87742W        W30659  12.143   2.783   6.716 -0.2620  0.0378 -0.0682
87743W        W30660  12.458   3.265   6.379 -0.1310 -0.1770 -0.0524
87744W        W30661  13.293   0.712   5.579 -0.1074  0.3511  0.0618
87745W        W30662  13.748   2.168   5.613 -0.1450  0.0802  0.2149
87746W        W30663  12.931   3.827   7.230 -0.0208 -0.0687  0.0446
87747W        W30664  11.183   3.636   6.550 -0.2547 -0.0480  0.1025
87748W        W30665  13.072   3.315   7.454  0.3904  0.3687 -0.1747
87749W        W30666  10.837   2.532   5.336  0.0633  0.0099  0.0904
87750W        W30667  10.583   3.888   5.239  0.2321  0.1758  0.2157
87751W        W30668  13.381   3.169   4.396 -0.0575 -0.1773 -0.1225
87752W        W30669  14.664   2.951   3.830 -0.0227 -0.1029  0.5538
87753W        W30670  13.428   5.737   7.288 -0.1605 -0.4099  0.2135
87754W        W30671  10.183   2.424   6.426  0.2728  0.1566  0.0945
87755W        W30672  11.934   3.978   3.208 -0.0993 -0.2970 -0.0023
87756W        W30673  12.606   4.291   7.327 -0.1169 -0.0411  0.3542
87757W        W30674  10.977   3.729   8.437  0.2894  0.2544  0.2222
87758W        W30675  12.954   1.772   6.679 -0.0072  0.0085  0.0049
87759W        W30676  13.399   2.100   4.571 -0.1500  0.0381 -0.1726
87760W        W30677  10.899   3.347   3.575  0.1790 -0.1941  0.1160
87761W        W30678  13.601   2.605   5.817  0.0310  0.0352  0.3329
87762W        W30679  10.405   2.811   8.478  0.1063  0.1417  0.1995
87763W        W30680   8.503   2.326   5.793  0.0409  0.0129 -0.0389
87764W        W30681  14.807   1.376   7.817  0.0233 -0.2334 -0.3770
87765W        W30682  11.242   2.793   4.917  0.0647  0.2540  0.0139
87766W        W30683  13.883   0.772   3.999  0.5783  0.1665  0.0915
87767W        W30684  12.286  34.535   4.894  0.1072 -0.1258 -0.1467
87768W        W30685  11.937   1.869   5.620  0.2894 -0.0888  0.0749
87769W        W30686  12.304   1.410   6.092  0.1254  0.0956 -0.0113
87770W        W30687  11.974   3.399   8.104  0.0625  0.0798  0.0692
87771W        W30688  14.773  34.411   6.722  0.0132 -0.2035 -0.4107
87772W        W30689  13.926   3.598   4.964  0.2941  0.3556 -0.2222
87773W        W30690  12.664   2.083   4.841  0.0983  0.0306  0.0187
87774W        W30691  13.578   1.020   9.076  0.1003 -0.0752  0.0552
87775W        W30692  12.140   4.100   7.517 -0.2788 -0.0511 -0.0828
87776W        W30693  12.197   2.209   5.046 -0.1510 -0.0195 -0.2865
87777W        W30694  14.369   4.227   4.410  0.0137  0.0855 -0.1445
87778W        W30695  15.511   4.800   0.262 -0.0892  0.0736  0.1472
87779W        W30696  12.118   0.834   4.571  0.0728 -0.2205 -0.0864
87780W        W30697  10.582   1.432   5.010 -0.1995 -0.0290  0.3112
87781W        W30698  10.650   3.240   7.459 -0.4182  0.1261 -0.0078
87782W        W30699  10.325   0.722   8.738 -0.0187  0.1110 -0.2821
87783W        W30700  10.568   0.661   4.811 -0.1828  0.2072 -0.2600
87784W        W30701  13.477   3.524   7.143 -0.0502 -0.1382 -0.2459
87785W        W30702  12.748   0.347   7.995 -0.0200  0.4355 -0.1263
87786W        W30703  12.852   2.297   4.271 -0.3109  0.0201  0.1345
87787W        W30704  12.019   1.807   6.397 -0.4173 -0.0076 -0.3782
87788W        W30705  13.821   3.814   6.734  0.1206  0.2323 -0.0357
87789W        W30706  12.940   3.244   4.036 -0.2840  0.0890  0.1384
87790W        W30707  12.371  34.223   5.933 -0.3399  0.1646  0.0277
87791W        W30708  12.987  34.214   6.411 -0.0014  0.0744 -0.3270
87792W        W30709  10.918   1.162   4.677  0.1105 -0.0518  0.1401
87793W        W30710  12.725   1.728   5.290  0.1477  0.0150  0.1387
87794W        W30711  13.440   4.046   7.117 -0.2854 -0.0133  0.2000
87795W        W30712  14.388   1.026   3.499 -0.3140 -0.0806  0.0578
87796W        W30713  11.997   3.982   5.577 -0.2186  0.0021  0.1825
87797W        W30714  10.665   2.233   6.165  0.1178  0.3848  0.2178
87798W        W30715  11.789   2.155   7.562 -0.1584 -0.0395  0.1218
87799W        W30716  11.154   3.099   3.882 -0.2216 -0.0426 -0.0013
87800W        W30717  11.654   0.911   6.757  0.0706 -0.0775 -0.2780
87801W        W30718  11.162   0.554   5.612 -0.0514  0.0125 -0.1424
87802W        W30719   8.694   0.401   9.152 -0.3368 -0.2367  0.0978
87803W        W30720  12.806   2.277   6.528 -0.2466 -0.2348 -0.1026
87804W        W30721  13.589   1.163   5.422  0.2051  0.0431  0.1951
87805W        W30722  11.544   1.667   7.689 -0.3036  0.0694  0.1947
87806W        W30723  15.780   1.114   5.956  0.1845 -0.0736 -0.0313
87807W        W30724  11.695   2.275   5.481  0.1688 -0.0480  0.4241
87808W        W30725  14.468   4.675   4.193  0.2151 -0.2598 -0.0638
87809W        W30726  14.104   1.244   4.040  0.2414  0.0209  0.0780
87810W        W30727  11.866   3.630   4.396 -0.0543 -0.2603  0.1267
87811W        W30728  11.550   2.058   6.672 -0.1811  0.1926 -0.2719
87812W        W30729  10.995   1.593   7.726  0.0914 -0.0214  0.1589
87813W        W30730  11.101  34.131   9.170  0.4721  0.0196  0.0026
87814W        W30731  11.626   2.470   5.919  0.3376 -0.0193 -0.2253
87815W        W30732  13.013   1.274   8.250  0.0787  0.1954 -0.0621
87816W        W30733  11.821  34.029   4.885  0.0718  0.0393  0.2060
87817W        W30734  12.924   0.913   5.958 -0.0004 -0.3127 -0.0004
87818W        W30735  15.652   2.889   5.212  0.2890 -0.0115  0.0218
87819W        W30736  10.863  34.366   4.519 -0.1049 -0.0103 -0.0232
87820W        W30737  14.256   1.531   6.190 -0.1642  0.1702  0.1531
87821W        W30738  13.030   2.413   4.869 -0.2163 -0.5662 -0.0133
87822W        W30739  14.519   5.417   6.727  0.2889 -0.4243 -0.1198
87823W        W30740  12.684   4.178   6.329  0.0517 -0.1283  0.2194
87824W        W30741  10.837   3.582   9.153 -0.0768 -0.0918 -0.0363
87825W        W30742  10.845   0.153   4.606  0.0429 -0.3944 -0.2750
87826W        W30743  11.715   3.124   4.652 -0.2045 -0.0596  0.3025
87827W        W30744  11.750   2.839   6.382  0.1135  0.2871  0.1902
87828W        W30745  11.825   2.355   6.337 -0.2302 -0.0420  0.0114
87829W        W30746  12.670   4.381   4.947 -0.1911  0.1103 -0.0375
87830W        W30747  13.120   1.896   4.981 -0.0633  0.0233  0.0047
87831W        W30748  12.365   1.557   5.591 -0.0168 -0.0704 -0.2439
87832W        W30749  13.181   1.251   9.430 -0.2775  0.1776  0.0406
87833W        W30750  14.131   2.032   6.372 -0.2426 -0.2503  0.3350
87834W        W30751  13.186   1.425   5.572 -0.2414  0.0338 -0.1666
87835W        W30752  10.294  34.655   5.724 -0.1254  0.2444  0.0800
87836W        W30753  12.923   4.040   5.691 -0.1232 -0.0340 -0.0911
87837W        W30754   9.636   1.873   4.033  0.2652 -0.0898 -0.1000
87838W        W30755  10.477   1.713   7.558  0.0173  0.1268  0.0574
87839W        W30756  12.619   3.521   4.955 -0.0197 -0.1147 -0.1684
87840W        W30757  14.196   2.193   5.280 -0.0300 -0.0393 -0.5122
87841W        W30758  10.351   1.267   6.180 -0.2358 -0.1952  0.1273
87842W        W30759  12.193   0.146   8.285 -0.1716 -0.0190  0.2424
87843W        W30760  11.651   1.184   7.840  0.1110 -0.2116  0.0962
87844W        W30761  11.294   1.528   8.097  0.0455 -0.0787 -0.1432
87845W        W30762  12.581   0.019   4.470  0.2671 -0.2863  0.0260
87846W        W30763  13.420   1.536   5.140 -0.0757  0.0587  0.2912
87847W        W30764  12.758   3.646   6.530 -0.3528  0.1480 -0.1276
87848W        W30765  12.396   1.606   4.710  0.0020 -0.2696  0.1636
87849W        W30766  11.742   1.109   4.451 -0.1225  0.0576  0.0432
87850W        W30767  12.281   0.074   5.931 -0.1385 -0.5258  0.1377
87851W        W30768  10.064   1.682   8.404 -0.3696  0.1310  0.0507
87852W        W30769  13.868   2.993   4.667  0.2771  0.0415 -0.1251
87853W        W30770  12.390   1.300   5.103 -0.2082 -0.1625 -0.0862
87854W        W30771  12.134  33.839   3.616  0.2069  0.0017  0.0468
87855W        W30772  12.601   2.384   2.979 -0.2453 -0.2106  0.5506
87856W        W30773  10.445   3.255   6.113  0.2405 -0.1374  0.3180
87857W        W30774  14.104   3.986   6.302  0.2659  0.2036  0.0571
87858W        W30775  11.672   4.223   7.320 -0.0825 -0.0293 -0.0241
87859W        W30776  13.392   0.812   7.554  0.2924 -0.4244  0.2316
87860W        W30777  11.073   2.016   3.531 -0.1440 -0.0358  0.3311
87861W        W30778  14.639   0.968   4.751 -0.1538 -0.2779  0.2895
87862W        W30779  12.531   4.981   3.632  0.0152 -0.1174  0.0003
87863W        W30780  14.873   0.854   6.400 -0.0533 -0.1939 -0.3589
87864W        W30781  15.557   0.066   5.580 -0.2039 -0.1882 -0.0740
87865W        W30782  13.628   0.525   8.355 -0.1385 -0.1919  0.1355
87866W        W30783  14.122   0.360   8.533 -0.1426 -0.2638  0.1054
87867W        W30784  13.212   2.633   3.598  0.4873  0.2846  0.1523
87868W        W30785  13.071   2.438   7.420  0.0488  0.3100  0.0103
87869W        W30786  10.945   1.545   5.485 -0.1522  0.5843  0.2034
87870W        W30787  14.520  33.240   8.964 -0.3724 -0.0991  0.0420
87871W        W30788  13.127   2.798   7.706  0.0878 -0.0679  0.0941
87872W        W30789  10.344   3.296   7.031  0.0501 -0.0378 -0.1087
87873W        W30790  11.428   2.779   7.261 -0.1489  0.1682 -0.0153
87874W        W30791  12.746   1.269   5.428 -0.0621 -0.0098  0.0162
87875W        W30792  14.455   1.867   8.323 -0.2233  0.0299  0.1134
87876W        W30793  12.895   2.229   5.374  0.0483 -0.0716 -0.0068
87877W        W30794  11.407   3.796   4.778  0.1126 -0.1111  0.0173
87878W        W30795  13.406   2.792   4.939  0.0131 -0.1284 -0.0486
87879W        W30796  13.205   1.027   6.480 -0.1815  0.0141  0.0808
87880W        W30797  13.969   1.224   6.898  0.0653 -0.2482  0.0849
87881W        W30798  10.424   2.578   3.824  0.1309  0.1339  0.1653
87882W        W30799  13.965   2.909   5.764  0.0842  0.1573  0.2818
87883W        W30800  10.091   1.782   4.423 -0.1192 -0.1247 -0.0913
87884W        W30801  12.826   0.317   5.755  0.0856 -0.0409  0.2484
87885W        W30802  10.254   2.919   4.698 -0.0519 -0.1843  0.0663
87886W        W30803  12.115   1.399   4.291  0.1100 -0.1476 -0.1398
87887W        W30804  11.595   1.362   6.937 -0.2842 -0.0359 -0.5333
87888W        W30805  14.917   0.770   5.886  0.1369  0.2858 -0.1939
87889W        W30806  13.474   3.240   3.819 -0.4819 -0.0377 -0.3965
87890W        W30807  13.647   0.900   6.621  0.0239 -0.2352 -0.0487
87891W        W30808  12.594   0.836   6.863 -0.3797  0.0763  0.4096
87892W        W30809  11.299   4.657   8.272 -0.2100  0.2909  0.0270
87893W        W30810  11.912   2.714   7.567 -0.0339  0.1068  0.0479
87894W        W30811  14.781  34.400   4.677 -0.1531 -0.2684  0.4258
87895W        W30812  13.147   4.479   7.065 -0.0209 -0.0175 -0.1748
87896W        W30813  11.007   2.169   6.763  0.1193 -0.0551 -0.2059
87897W        W30814  12.230  34.373   1.289 -0.0086  0.0305 -0.5141
87898W        W30815  13.845   2.580   5.361 -0.0999  0.1230 -0.0466
87899W        W30816  13.525   3.830   3.767 -0.1563  0.0075 -0.1560
87900W        W30817  10.909   2.581   5.908 -0.0997  0.3616 -0.3531
87901W        W30818  13.335   1.190   5.979  0.1134  0.2961 -0.2341
87902W        W30819  11.607   2.615   6.832 -0.1259 -0.2595  0.1627
87903W        W30820  11.877   3.549   5.520  0.1889  0.4110  0.0680
87904W        W30821  10.895   2.770   8.445 -0.2453  0.1816  0.0408
87905W        W30822  13.455   2.915   5.411 -0.2351 -0.2234 -0.0045
87906W        W30823  13.871   0.592   7.828  0.1237 -0.2209  0.2245
87907W        W30824  12.221   2.854   6.136  0.2578  0.1644 -0.1096
87908W        W30825  12.473   0.411   5.029  0.1091  0.1574  0.2200
87909W        W30826  13.875   1.504   5.040 -0.1063 -0.0402 -0.0007
87910W        W30827  12.305   2.316   6.416 -0.1798 -0.3172  0.1384
87911W        W30828  11.514   5.038   7.819 -0.3345  0.1667  0.0732
87912W        W30829  13.356  33.463   7.633  0.1564  0.2677  0.0134
87913W        W30830  13.796   3.442   4.441  0.2245 -0.0746 -0.1046
87914W        W30831  13.820   3.320   6.689 -0.0345  0.1289  0.0757
87915W        W30832  11.650   1.961   6.008  0.1136  0.1530  0.1188
87916W        W30833  10.763  34.593   8.221 -0.3253  0.2936 -0.0026
87917W        W30834  12.525   1.916   4.374  0.1248 -0.2720 -0.1273
87918W        W30835  12.040   2.029   6.827  0.1242 -0.0535 -0.1869
87919W        W30836  12.138   2.498   5.728 -0.4877  0.2189  0.0651
87920W        W30837  12.214   3.111   5.574 -0.1104 -0.2880  0.2990
87921W        W30838  11.268   1.011   4.339  0.0993  0.0210  0.1305
87922W        W30839  14.097  34.042   3.993 -0.0257 -0.0795 -0.0533
87923W        W30840  12.637   2.312   6.006 -0.1602 -0.1880  0.3090
87924W        W30841  12.534   1.039   7.353 -0.1746  0.0078  0.0420
87925W        W30842  14.210   0.761   6.648 -0.1944  0.2621 -0.1154
87926W        W30843  12.314   2.345   3.979 -0.0726  0.0484 -0.1288
87927W        W30844  13.989   2.426   6.762  0.0413  0.0843 -0.1513
87928W        W30845  12.155   0.711   6.626  0.0019  0.0629  0.0187
87929W        W30846  13.472   4.401   4.397  0.1193 -0.5248  0.1979
87930W        W30847  10.556   0.705   5.314  0.0780 -0.2125 -0.0587
87931W        W30848  12.341   4.274   5.341 -0.0566 -0.0040 -0.0234
87932W        W30849  11.902   1.340   7.378  0.0451 -0.3282  0.1846
87933W        W30850  13.402   1.805   5.937 -0.1521  0.3228  0.1918
87934W        W30851  11.970   0.557   5.071 -0.2711 -0.0242  0.0878
87935W        W30852  14.155   2.908   6.712 -0.2019 -0.1042  0.2166
87936W        W30853  13.234   2.130   6.995  0.3445  0.0061 -0.1669
87937W        W30854  12.103   3.144   5.021 -0.0696 -0.0091  0.1534
87938W        W30855  15.199   2.768   6.687 -0.0326  0.0096  0.0911
87939W        W30856  12.921   3.160   6.236  0.1026 -0.1085 -0.1852
87940W        W30857  14.648   1.011   5.533 -0.0905 -0.1620 -0.0697
87941W        W30858  12.625   2.678   4.876  0.2403 -0.2987 -0.1849
87942W        W30859  10.972   1.978   5.837 -0.1119 -0.1332 -0.0893
87943W        W30860  13.853  34.200  10.349 -0.0115 -0.0237 -0.0321
87944W        W30861  14.622   2.136   5.528  0.1285 -0.1374  0.0632
87945W        W30862  12.220   1.965   7.361  0.1426 -0.1288  0.0262
87946W        W30863  13.562   1.422   6.668  0.0255 -0.1063 -0.2877
87947W        W30864  14.037   1.713   8.590  0.0755 -0.2818  0.0156
87948W        W30865  12.085   3.517   7.385  0.0429  0.1819 -0.1487
87949W        W30866  11.067  34.667   8.787 -0.0140  0.0295  0.2341
87950W        W30867  13.844   4.449   5.290  0.0467  0.0515  0.0845
87951W        W30868  14.175   0.416   5.507 -0.2333  0.0695  0.0587
87952W        W30869  13.015   0.576   6.731 -0.0420  0.2067  0.0990
87953W        W30870  14.710   2.553   4.593  0.4623  0.2091 -0.1329
87954W        W30871  11.528   0.931   3.860  0.1248  0.2774 -0.0426
87955W        W30872  11.420   1.825   5.478  0.1444  0.0578 -0.1137
87956W        W30873  13.998   2.281   7.291 -0.0718  0.0138  0.1109
87957W        W30874  12.238   0.119   6.747 -0.1514 -0.1223 -0.1756
87958W        W30875  13.288   2.497   8.572 -0.1145  0.0746 -0.0601
87959W        W30876  11.808   2.468   4.608  0.2483 -0.1687  0.0048
87960W        W30877  13.620   3.987   5.146  0.3598  0.3469  0.1061
87961W        W30878  13.394   0.610   4.313  0.0051  0.0004  0.0136
87962W        W30879   9.386   0.674   7.571  0.0718 -0.0308  0.2337
87963W        W30880  10.052   1.942   7.729  0.0337 -0.3128 -0.0740
87964W        W30881  10.935  34.486   3.760 -0.4423  0.1729 -0.4949
87965W        W30882  11.696   1.528   5.202 -0.0821 -0.0436  0.1127
87966W        W30883  13.615   3.302   5.838 -0.0867 -0.0785 -0.2553
87967W        W30884  12.855   4.412  11.188 -0.0818  0.2741  0.1049
87968W        W30885  11.479   1.958   4.628 -0.1093  0.1236 -0.2131
87969W        W30886  14.355   1.470   7.584  0.0105 -0.1901  0.0709
87970W        W30887  10.207   2.242   3.375 -0.1858 -0.1379  0.1107
87971W        W30888  13.292   0.108   5.681  0.1649 -0.0114 -0.1960
87972W        W30889  12.274   3.618   5.270  0.1018 -0.1742 -0.1430
87973W        W30890  12.624   1.408   6.962 -0.0595  0.2072 -0.5668
87974W        W30891  12.790   0.760   5.440 -0.1835 -0.0560  0.1436
87975W        W30892  14.058   0.187   8.034 -0.0654 -0.0418  0.1696
87976W        W30893  14.813   1.208   5.116  0.2040 -0.0876  0.0328
87977W        W30894  13.163   2.064   6.255  0.1545 -0.0900 -0.0584
87978W        W30895  13.603   1.945   6.636  0.2473 -0.2068 -0.0300
87979W        W30896  13.825   4.039   8.151  0.2595 -0.2271 -0.2107
87980W        W30897  10.413   2.871   5.231  0.0314  0.0471 -0.0387
87981W        W30898  11.249   4.152   6.396 -0.1327  0.0032 -0.0316
87982W        W30899  12.660   3.605   5.532 -0.2067  0.1549  0.1338
87983W        W30900  13.004   2.714   5.315 -0.1124  0.0224  0.1397
87984W        W30901   9.912   0.569   7.565 -0.1666 -0.1944 -0.4537
87985W        W30902  13.540   0.447   8.911  0.0935 -0.0621 -0.1897
87986W        W30903  13.141   4.326   5.146 -0.0176 -0.3181 -0.5337
87987W        W30904  11.846   1.293   6.412  0.3773 -0.0890 -0.1395
87988W        W30905  10.041   1.517   3.793 -0.1371  0.1650 -0.4004
87989W        W30906  10.895   4.637  10.027 -0.0898 -0.2062  0.1384
87990W        W30907  12.984   1.218   7.507  0.0966  0.0050  0.1981
87991W        W30908  12.032   3.643   3.823  0.0652 -0.0304 -0.2226
87992W        W30909  13.771   1.756   4.555  0.0210 -0.1277  0.1912
87993W        W30910  12.614   2.595   5.621  0.1662  0.2187  0.0363
87994W        W30911  12.449   3.163   8.069 -0.0161 -0.0460 -0.0653
87995W        W30912  11.614   1.500   3.461 -0.2748  0.0640 -0.0465
87996W        W30913  13.119   2.325   5.845 -0.1124  0.0731  0.0921
87997W        W30914  10.205   0.982   4.709  0.1397 -0.1426  0.0470
87998W        W30915  13.399   2.372   5.265  0.0468  0.2790 -0.2320
87999W        W30916  12.256   2.907   4.623 -0.1898 -0.2145 -0.0584
88000W        W30917  15.595   4.194   7.749  0.3354  0.0683  0.0877
88001W        W30918  13.366   1.508   4.626 -0.3254 -0.3904  0.2209
88002W        W30919  14.307   1.895   4.864 -0.3767 -0.2362  0.4515
88003W        W30920  14.190  34.456   5.496  0.3473 -0.1115 -0.1041
88004W        W30921  12.955   2.611   6.214  0.0411  0.1303  0.2577
88005W        W30922  11.849   3.085   7.219  0.0009  0.3615  0.2539
88006W        W30923  10.724   1.528   3.730 -0.1768 -0.0378 -0.0049
88007W        W30924  12.569   3.394   7.328  0.1332 -0.2204  0.1361
88008W        W30925  16.700   1.297   7.296 -0.0118  0.1262  0.2570
88009W        W30926  10.093   3.942   8.480 -0.3120 -0.0656  0.3144
88010W        W30927  13.910   4.050   3.520  0.2533 -0.1686  0.2086
88011W        W30928  11.182   0.711   6.644  0.4085 -0.1658  0.0094
88012W        W30929  10.827   2.920   6.256  0.0506  0.4494 -0.1772
88013W        W30930  14.142   1.050   7.406 -0.1069  0.0165  0.0599
88014W        W30931  12.345   2.947   4.087  0.3134 -0.1339  0.1740
88015W        W30932  13.154   1.545   7.167 -0.0295  0.0851 -0.3853
88016W        W30933  11.906   3.214   4.107  0.2730  0.0376 -0.1423
88017W        W30934  12.371   2.411   6.892 -0.1055 -0.2177  0.1328
88018W        W30935  13.192   3.330   6.776 -0.0938  0.0521  0.0168
88019W        W30936  11.048  34.564   5.060  0.1276 -0.1509 -0.2442
88020W        W30937  13.620   1.135   4.846 -0.0157 -0.0736  0.0543
88021W        W30938  11.527   1.640   6.339 -0.1387 -0.3308 -0.0048
88022W        W30939  13.243   0.180   6.929  0.1360 -0.1345  0.2631
88023W        W30940  10.742   0.551   3.343 -0.0361 -0.2075 -0.2228
88024W        W30941  13.787  33.420   5.685  0.0180 -0.1101  0.0838
88025W        W30942  11.648   4.511   7.877  0.1622  0.0390 -0.1073
88026W        W30943  11.962   2.411   7.202 -0.0527 -0.0257 -0.0785
88027W        W30944  11.616   0.176   2.326  0.3005  0.2513 -0.0812
88028W        W30945  14.070   1.153   9.497  0.0638 -0.2751  0.0248
88029W        W30946  13.376   0.082   1.637 -0.2273  0.5440 -0.0032
88030W        W30947  13.124   4.626   4.774 -0.1081 -0.1167  0.3042
88031W        W30948  10.649   0.399   5.705  0.0699 -0.0124  0.0593
88032W        W30949  11.715   1.753   7.187 -0.0983  0.0746  0.0856
88033W        W30950   8.982   2.146   5.193 -0.1153 -0.1559  0.0572
88034W        W30951  12.799  34.352   7.516  0.0351  0.0213  0.1799
88035W        W30952  15.497   2.506   7.604  0.0377  0.2433 -0.5566
88036W        W30953  12.277  34.496   6.365  0.0727  0.1748 -0.1125
88037W        W30954  13.981   3.988   1.959  0.0994 -0.1295 -0.3051
88038W        W30955  14.234  34.486   6.828 -0.1973 -0.0338 -0.4056
88039W        W30956  11.173   5.059   3.544  0.4246  0.2073  0.3957
88040W        W30957  13.737   3.913   4.177  0.1511 -0.0249 -0.2051
88041W        W30958  15.471   3.414   3.595  0.1911  0.2882 -0.1751
88042W        W30959  11.093   1.590   7.224  0.3246  0.0272  0.0519
88043W        W30960  12.751   3.978   5.204  0.1994 -0.1953 -0.0755
88044W        W30961  15.325   0.791   4.842  0.0830  0.0307 -0.0387
88045W        W30962  12.711  34.551   4.002 -0.1181 -0.2174  0.1212
88046W        W30963  10.859   0.398   7.986  0.1475  0.0304 -0.0117
88047W        W30964  10.023   2.788   3.633 -0.2328 -0.5879  0.0480
88048W        W30965  13.139   1.127   5.164 -0.2285 -0.0548  0.1782
88049W        W30966  12.547   1.634   8.003 -0.2938  0.1171  0.0824
88050W        W30967  12.749   2.725   3.993  0.1023 -0.0971  0.1152
88051W        W30968  16.275  34.563   8.402 -0.1251 -0.0082 -0.1489
88052W        W30969  13.152   2.875   5.845 -0.0333  0.3090 -0.0247
88053W        W30970  12.051   2.337   8.508  0.1518  0.1900  0.1996
88054W        W30971  11.839  34.218   4.094 -0.0490 -0.2546 -0.0190
88055W        W30972  10.694   2.039   7.191 -0.0299  0.0185 -0.0889
88056W        W30973   9.791   2.198   4.371  0.2274 -0.1338 -0.1588
88057W        W30974  10.981   2.741   4.364  0.3893  0.1796  0.0450
88058W        W30975  13.312   4.870   6.733 -0.0818  0.1294 -0.0791
88059W        W30976  14.034   1.843   5.886 -0.0245  0.0209  0.1046
88060W        W30977  14.203   3.394   5.964  0.1884  0.3229 -0.1074
88061W        W30978  11.720   3.376   6.844 -0.1358 -0.0903 -0.0517
88062W        W30979  13.228  33.597   3.410  0.1061 -0.1907  0.0681
88063W        W30980  13.183   1.039   4.667 -0.0876  0.2857 -0.2000
88064W        W30981  10.780   3.597   7.045 -0.1323  0.2185  0.0560
88065W        W30982  11.621   1.890   3.733 -0.2451 -0.1709 -0.2205
88066W        W30983  12.040   1.478   3.736  0.1828  0.4020 -0.0362
88067W        W30984  11.285   2.381   4.544 -0.3296  0.3304 -0.2495
88068W        W30985  13.100   1.914   7.560  0.2825  0.0844  0.1417
88069W        W30986  13.094   0.932   9.059  0.2271  0.2275 -0.0748
88070W        W30987  11.819   1.970   8.041 -0.0229 -0.2973 -0.2346
88071W        W30988  11.551   0.465   5.882  0.1027  0.1725  0.0285
88072W        W30989  15.131   5.393   5.732 -0.0838  0.1267 -0.0366
88073W        W30990  11.190   0.160   8.333 -0.1780  0.1018  0.0265
88074W        W30991  11.775   2.843   5.526 -0.3802  0.1877  0.0723
88075W        W30992  11.840   1.774   2.891  0.0934  0.0475 -0.1603
88076W        W30993  14.806   3.948   4.365  0.3192 -0.2035  0.0821
88077W        W30994  13.910  34.349   6.484 -0.1205 -0.1691  0.0222
88078W        W30995  13.557   2.491   7.047  0.3441 -0.1659  0.1091
88079W        W30996  10.595   2.294   2.355 -0.0871  0.1725  0.2054
88080W        W30997  10.633   1.749   8.470  0.2309  0.1673  0.0454
88081W        W30998  13.060   1.537   7.854  0.0311  0.0361  0.1057
88082W        W30999  12.113   0.908   6.149 -0.2992  0.1493 -0.2347
88083W        W31000  14.258   1.240   5.307 -0.0212  0.2023  0.3127
88084W        W31001  11.461   2.785   4.333  0.1235 -0.0222 -0.2068
88085W        W31002  11.904   4.061   5.080  0.3204  0.1174  0.2536
88086W        W31003  11.492   3.804   7.415 -0.0825  0.0033 -0.1867
88087W        W31004  12.936   2.936   7.212 -0.2005 -0.2954  0.4298
88088W        W31005  12.200   0.132   8.802 -0.1082  0.0244 -0.0012
88089W        W31006  14.371   3.295   5.015  0.2063 -0.0038 -0.1361
88090W        W31007  12.254   2.679   7.971 -0.1390 -0.2287  0.2171
88091W        W31008  14.214   3.240   2.903  0.0146  0.0040  0.1940
88092W        W31009  12.994   0.029   6.525  0.1054 -0.2786  0.0799
88093W        W31010  11.998   1.283   5.485  0.1417  0.2578 -0.1177
88094W        W31011  11.798  33.813   7.126 -0.0408 -0.0544  0.4661
88095W        W31012  10.825   2.921   9.382  0.1236 -0.0046  0.0856
88096W        W31013  14.769   3.890   6.721 -0.0671  0.3227 -0.1098
88097W        W31014  10.770  34.634   5.457  0.0500  0.0714  0.1211
88098W        W31015  12.236   0.787   5.363  0.0461 -0.2159 -0.0162
88099W        W31016  13.611   4.377   4.868  0.2299  0.0941 -0.1004
88100W        W31017  10.672   3.129   4.396  0.2354 -0.2157  0.2306
88101W        W31018  13.972   0.578   6.208 -0.3049 -0.2263 -0.1833
88102W        W31019  12.624   3.001   7.606  0.0877 -0.2956 -0.2810
88103W        W31020  13.500   0.936   8.105 -0.1100  0.0190  0.3394
88104W        W31021  14.304   1.989   7.613 -0.0577 -0.4343 -0.1978
88105W        W31022  12.576   2.773   6.502  0.1871 -0.0099 -0.1753
88106W        W31023  12.966   3.109   4.924 -0.1024  0.1160 -0.2155
88107W        W31024  12.338   3.574   7.820  0.0597 -0.1766 -0.4708
88108W        W31025  14.455   2.933   7.397 -0.0138  0.1224  0.4985
88109W        W31026  12.408   2.904   7.108  0.1178  0.1258 -0.2558
88110W        W31027  14.644   2.947   6.773 -0.1593 -0.1130 -0.0498
88111W        W31028  12.306   1.308   6.581 -0.3451 -0.6650  0.4324
88112W        W31029  11.510   4.114   5.729  0.1487 -0.1670 -0.1157
88113W        W31030  14.282   4.706   2.909  0.1511  0.5197  0.1846
88114W        W31031  14.406   2.499   6.444  0.2485 -0.3163  0.0674
88115W        W31032  11.719   0.382   6.734 -0.2535 -0.1069  0.0135
88116W        W31033  13.691  34.100   6.074  0.0385 -0.0607 -0.0829
88117W        W31034  11.702   3.841   6.484 -0.2291 -0.4319  0.0698
88118W        W31035  15.248   5.536   6.210 -0.1273  0.2460  0.0092
88119W        W31036   9.165   4.754  10.721  0.1243  0.1530  0.1042
88120W        W31037  12.186   3.041  11.213 -0.0208 -0.4864 -0.1132
88121W        W31038  15.156   0.410   8.766  0.0590 -0.0951 -0.0886
88122W        W31039  14.416   2.148   8.966 -0.2343 -0.2672  0.0737
88123W        W31040  12.124   1.312  11.117  0.1433 -0.1144  0.0964
88124W        W31041  12.812   2.558   6.997 -0.1048  0.2760 -0.2159
88125W        W31042  15.321   2.310   8.224 -0.2275 -0.2836  0.5071
88126W        W31043  16.640   5.102   9.265  0.0442  0.0562 -0.0814
88127W        W31044  13.791   0.997   5.881 -0.2401 -0.0638  0.4020
88128W        W31045  16.541   6.474   9.094 -0.0711 -0.1517 -0.0949
88129W        W31046  13.561   0.075   9.276 -0.0370 -0.0042 -0.1294
88130W        W31047   9.345  34.655  10.209  0.0427 -0.0904 -0.0440
88131W        W31048  14.357   2.918   9.834  0.0120  0.0905 -0.0408
88132W        W31049  11.601   0.192   9.106  0.0251  0.3415 -0.1262
88133W        W31050   8.942   2.960   9.421  0.3755 -0.1745  0.1326
88134W        W31051  11.923   1.076   8.805  0.0188 -0.3224  0.0333
88135W        W31052  12.889   2.767   9.448 -0.0497 -0.1038  0.0926
88136W        W31053  10.916   3.159  10.582  0.0115  0.1773 -0.0396
88137W        W31054  12.231   1.119   8.431 -0.3159  0.2971 -0.2550
88138W        W31055  11.080  33.478   7.298  0.1120 -0.2882 -0.1159
88139W        W31056  10.459   3.869   9.648 -0.4250 -0.2550 -0.0523
88140W        W31057  14.764   1.959   9.278  0.1522  0.0387 -0.2521
88141W        W31058  11.549  34.393   8.881 -0.0823  0.1687 -0.2126
88142W        W31059  14.928   3.286   9.851 -0.3268 -0.0077 -0.1177
88143W        W31060  12.472   1.510   7.466 -0.0343  0.0566 -0.2234
88144W        W31061  14.856   1.177   9.652 -0.5806  0.2196 -0.1204
88145W        W31062  11.655   2.248  10.227 -0.0627  0.1340  0.2000
88146W        W31063  10.378   4.468  10.841  0.0907 -0.1224  0.0564
88147W        W31064  13.643   2.315   8.288 -0.1338 -0.0134 -0.0736
88148W        W31065  13.748   3.178   8.072  0.0513  0.1319  0.1311
88149W        W31066  11.011   2.057   8.701 -0.1574 -0.1650 -0.4176
88150W        W31067  16.244  34.497   9.534  0.3745  0.0767  0.1844
88151W        W31068  14.329   0.741   9.051 -0.2904  0.4014 -0.2707
88152W        W31069  11.681   2.750   9.833 -0.1260 -0.0811 -0.1062
88153W        W31070  12.540   2.861   8.462  0.0748  0.1093 -0.0912
88154W        W31071  11.116   2.587   8.945  0.3256 -0.2944 -0.2349
88155W        W31072  11.752   4.307   8.322  0.0922 -0.1432 -0.1461
88156W        W31073  14.706   2.073   7.136 -0.0686 -0.0661 -0.6806
88157W        W31074  10.506   1.659   8.996 -0.0329 -0.2564  0.2279
88158W        W31075  15.531   0.048   6.941  0.2696  0.2442  0.4297
88159W        W31076  11.542   0.978   9.592  0.0552  0.3146  0.1211
88160W        W31077  10.749   4.734   9.496 -0.1804  0.1165 -0.1636
88161W        W31078  12.166   3.481   9.497 -0.0341 -0.0872 -0.1099
88162W        W31079  12.722   3.071   5.811  0.0169  0.0990 -0.0254
88163W        W31080  12.973   0.238  10.015 -0.2691 -0.0014 -0.1278
88164W        W31081  15.866   5.353   8.654 -0.2880 -0.0750 -0.2195
88165W        W31082  11.887   3.045  10.197 -0.3335  0.1120 -0.1416
88166W        W31083  12.596   4.357   6.795 -0.0734  0.2202  0.1604
88167W        W31084  15.103   2.924   7.610  0.2258  0.1079  0.1351
88168W        W31085  13.858   2.243   7.818  0.0533  0.0736 -0.0998
88169W        W31086   9.939   2.240  10.500  0.2456  0.3084 -0.0989
88170W        W31087  13.965  32.325  10.255 -0.2580 -0.2747 -0.1239
88171W        W31088  15.672   1.694  10.692 -0.0694  0.0324  0.3699
88172W        W31089  11.883   0.472   8.459 -0.1708 -0.0327 -0.2654
88173W        W31090  14.178   0.659  10.247  0.1263  0.1765  0.0167
88174W        W31091  12.693   2.482   7.834 -0.0574 -0.0207  0.0025
88175W        W31092  12.165   1.664   9.994 -0.1604  0.0160 -0.1960
88176W        W31093  10.607   2.699  10.548 -0.1406  0.2097 -0.2041
88177W        W31094  12.922   1.249   9.970 -0.0364  0.1141  0.1982
88178W        W31095  10.374  34.404   7.537  0.1275  0.2166 -0.0161
88179W        W31096  13.355   0.848   8.588 -0.0854 -0.1115  0.2139
88180W        W31097  14.157   2.269   8.485  0.1148  0.1647  0.1992
88181W        W31098  13.473   2.089  10.289  0.1956  0.3022 -0.1283
88182W        W31099  10.197   3.436   7.722 -0.0669  0.5962  0.0890
88183W        W31100  10.844   2.435   9.443  0.1338  0.0242 -0.1107
88184W        W31101  11.491   2.659   8.583  0.0105  0.1248  0.3085
88185W        W31102   9.803   1.518  10.334 -0.0465 -0.1177 -0.4052
88186W        W31103  14.060   3.299   9.753  0.2651 -0.1313 -0.2614
88187W        W31104  15.142   0.644  10.199  0.1640 -0.0979  0.1196
88188W        W31105  14.282   0.806  10.700  0.0618  0.2762 -0.1632
88189W        W31106  11.717   2.593   9.168  0.3511 -0.3534  0.0789
88190W        W31107  15.593   4.710   8.636 -0.2968  0.2108  0.0091
88191W        W31108  15.265   0.142   7.501 -0.4460  0.2392 -0.0518
88192W        W31109  13.588   2.703   7.607 -0.1745 -0.1233  0.0593
88193W        W31110   9.969  34.547  11.331 -0.1391 -0.2453 -0.2887
88194W        W31111  12.222   2.607   8.890  0.2021  0.0351  0.2329
88195W        W31112  12.970  34.412  10.106  0.0706  0.0007 -0.1102
88196W        W31113  10.713   1.481  10.485  0.0826  0.0521  0.3545
88197W        W31114  13.214   2.898  11.343 -0.2053  0.1173 -0.1270
88198W        W31115  11.126   2.607   6.937  0.2309 -0.1977 -0.0454
88199W        W31116  10.635   1.972   9.460  0.0961  0.1305 -0.2061
88200W        W31117  12.725   3.920   7.720 -0.0178  0.2101 -0.0640
88201W        W31118  14.896   4.636  10.115  0.0938 -0.2764 -0.0564
88202W        W31119  15.832   3.114   9.772  0.2128 -0.3356 -0.5217
88203W        W31120  11.344   2.136  10.689  0.2916  0.1304 -0.2380
88204W        W31121  12.466  34.405  10.195 -0.0798 -0.0590  0.2102
88205W        W31122  11.737   3.675   9.424 -0.1291 -0.1167  0.0877
88206W        W31123  12.459   2.181   8.154  0.2756 -0.1101  0.0374
88207W        W31124  10.712   0.691   9.106 -0.2141 -0.1963  0.0806
88208W        W31125  16.961   4.305   9.597  0.4598  0.2513  0.1142
88209W        W31126  11.899   2.987   8.864  0.1213  0.1896  0.1941
88210W        W31127  12.846   1.799   9.615  0.1856  0.3738 -0.0770
88211W        W31128  12.915   1.518   9.042 -0.4088  0.2263  0.2325
88212W        W31129  13.043  33.448   9.023 -0.1343  0.1440  0.0932
88213W        W31130  13.507   2.825   8.830 -0.1283  0.0188  0.0459
88214W        W31131  10.818   0.804   7.645  0.4941 -0.0692  0.2865
88215W        W31132   9.924   3.314  10.673  0.2382  0.3364 -0.1652
88216W        W31133  13.870   0.743   8.712 -0.0024  0.2476  0.1769
88217W        W31134  14.006   0.236  10.020 -0.0048 -0.0867  0.0352
88218W        W31135   9.206   3.929   9.325  0.0067  0.3064  0.2000
88219W        W31136  12.077   1.578   7.798  0.0486  0.0792 -0.0754
88220W        W31137  15.997  34.095   8.230  0.1762  0.2211  0.0797
88221W        W31138  14.320   1.721  10.656  0.3054 -0.1942 -0.0964
88222W        W31139  13.170   0.339   8.460  0.2809 -0.4001 -0.1038
88223W        W31140  13.025   2.310   9.443 -0.0596  0.3117  0.0519
88224W        W31141  12.873   3.954   8.891  0.1156  0.0149  0.2022
88225W        W31142  14.401   7.497   9.173  0.0116  0.2987  0.3529
88226W        W31143  14.501   1.043   6.103  0.3717 -0.0216 -0.1567
88227W        W31144  15.434   3.217   6.633  0.3325 -0.3168  0.0672
88228W        W31145  13.720   2.097  10.759 -0.2381  0.1189  0.2812
88229W        W31146  13.569   3.133   9.784 -0.0565  0.4821 -0.2588
88230W        W31147  11.253   1.970  11.153  0.2142 -0.3196  0.0428
88231W        W31148  12.244   3.429   6.885 -0.0164  0.2275  0.2155
88232W        W31149  13.792   0.019  10.443 -0.0874 -0.0374 -0.1965
88233W        W31150  11.746   4.353   6.750  0.1190  0.0143 -0.1349
88234W        W31151  15.113  34.322  10.696 -0.5648 -0.3250  0.1051
88235W        W31152  13.876   1.216   9.975  0.0176 -0.2742 -0.1416
88236W        W31153  14.741   0.018   8.264 -0.0369  0.0440  0.4112
88237W        W31154  15.205  32.161  10.299  0.0227 -0.2248 -0.2343
88238W        W31155  10.334   2.425   9.753 -0.0843  0.0195 -0.0475
88239W        W31156  12.845   5.283  10.503 -0.0481  0.1388  0.1870
88240W        W31157  13.644   1.375   9.370 -0.1646 -0.1741 -0.0757
88241W        W31158  12.965   1.991   8.081 -0.2210 -0.0777  0.2366
88242W        W31159  13.436   1.393   8.071 -0.0435 -0.0893  0.2210
88243W        W31160  12.034   1.829   9.495 -0.1315 -0.1821  0.0422
88244W        W31161  13.451   1.910   7.895  0.1098  0.0762  0.0753
88245W        W31162  12.594   1.256  10.957  0.1424  0.1217  0.1712
88246W        W31163  12.734   1.995   7.145  0.2352 -0.0395  0.0080
88247W        W31164  12.760   4.730   7.489  0.4634  0.0179  0.0998
88248W        W31165  13.519   0.921   9.649 -0.3354 -0.2340 -0.0934
88249W        W31166  11.112   2.986   9.816  0.1272  0.0310 -0.0718
88250W        W31167  14.622   1.214  10.784 -0.1625  0.2427  0.0611
88251W        W31168  12.815   3.347  10.056 -0.0265  0.1208  0.2066
88252W        W31169  11.231   1.088   8.396  0.2545 -0.0539 -0.1890
88253W        W31170  11.547   1.754   9.451  0.2309  0.0178 -0.0795
88254W        W31171  15.805  34.081  10.535 -0.0754 -0.0131 -0.1666
88255W        W31172  15.248   1.926   8.560  0.1396 -0.0830 -0.1849
88256W        W31173  13.532   0.728  10.141 -0.3611 -0.0631 -0.2667
88257W        W31174  15.183   1.596   9.894 -0.1283 -0.3706  0.0994
88258W        W31175  14.816   3.351   8.143  0.0495 -0.0813 -0.0292
88259W        W31176  14.134   0.250   7.079 -0.2416  0.1064 -0.4388
88260W        W31177  10.794  34.507   7.737 -0.4406  0.2023 -0.0276
88261W        W31178  15.572   3.854  10.306  0.1693 -0.2813  0.2210
88262W        W31179  13.318   1.186  10.302  0.2194  0.0259 -0.1759
88263W        W31180  12.456   2.090   9.628  0.0560 -0.0127  0.2490
88264W        W31181  14.829   4.278  10.452 -0.0854 -0.0948 -0.1864
88265W        W31182  10.979   2.406   7.427  0.1232  0.1547 -0.3456
88266W        W31183  13.330   2.117   8.954 -0.0460 -0.1912 -0.1030
88267W        W31184  13.652   2.546  10.534 -0.0155  0.0298 -0.1202
88268W        W31185  11.531   1.385   8.654  0.1327 -0.0135 -0.2029
88269W        W31186  11.917   0.807   9.918 -0.1578 -0.1703  0.0289
88270W        W31187  14.479   0.930   9.877  0.1981  0.2119  0.1805
88271W        W31188  17.581   4.400  12.040  0.1470 -0.0810  0.0694
88272W        W31189  13.719   1.925   9.877 -0.1568 -0.2820 -0.3936
88273W        W31190  12.201  32.871  10.617  0.0352  0.0068 -0.0189
88274W        W31191  15.028   5.076   7.993  0.0602 -0.0823 -0.0979
88275W        W31192  10.916   3.858   7.944  0.0860 -0.1271  0.1500
88276W        W31193  11.027   3.976  10.722 -0.0270 -0.1273  0.2104
88277W        W31194   9.993   2.954   8.724  0.0441 -0.0265 -0.1489
88278W        W31195  15.552   0.910  10.272 -0.1341 -0.0436  0.0616
88279W        W31196  13.390   2.666   9.545  0.0026 -0.0158 -0.0252
88280W        W31197  11.854   2.503   8.040 -0.0900  0.0505  0.2348
88281W        W31198  13.187   2.575  10.453  0.0509  0.0162 -0.1367
88282W        W31199  15.368  34.673  10.124 -0.0354  0.0614  0.1144
88283W        W31200  14.784   1.398   8.562  0.1031 -0.1716  0.2318
88284W        W31201  14.503   0.080  10.295  0.1625  0.1127 -0.0831
88285W        W31202  15.257   1.045   9.037 -0.1783  0.1951  0.0350
88286W        W31203  12.662   1.245  10.480  0.0290  0.2477  0.0954
88287W        W31204  13.890   2.708   9.752  0.1844 -0.0687  0.1440
88288W        W31205  13.930   0.737   9.794 -0.0432 -0.0008 -0.0285
88289W        W31206  11.320   0.655   8.197  0.1970  0.0449 -0.1340
88290W        W31207  13.162   3.342   9.579 -0.2584  0.2420  0.2268
88291W        W31208  13.094   3.117   9.097  0.1955 -0.1028 -0.1126
88292W        W31209  14.694   1.144   9.059  0.3431 -0.0131 -0.0631
88293W        W31210  13.105   2.599   9.009 -0.0246 -0.1977 -0.0717
88294W        W31211  13.873   2.729   8.535  0.0839 -0.1401  0.0652
88295W        W31212  14.733   1.875   8.714 -0.2713 -0.0369 -0.0099
88296W        W31213  13.276   2.357   7.868 -0.3139  0.0927  0.2176
88297W        W31214  12.766   2.223  10.881  0.2008  0.5627 -0.0773
88298W        W31215  15.432   0.802   8.547 -0.2050  0.0770 -0.3342
88299W        W31216  12.872   1.592  11.152 -0.2608  0.1348  0.0531
88300W        W31217  15.418   3.476   9.956 -0.1133  0.3078 -0.3146
88301W        W31218  12.992   2.094   8.620 -0.0757  0.1326 -0.1709
88302W        W31219  17.393   3.025  10.205  0.2964  0.2828  0.0797
88303W        W31220  14.163   0.236  10.672 -0.0701 -0.3829 -0.0113
88304W        W31221  14.506   1.263   6.634 -0.1050 -0.2905 -0.0649
88305W        W31222  11.375   3.055   9.000 -0.1156  0.1118  0.0359
88306W        W31223  12.609  34.527   7.991 -0.2421  0.0115  0.1050
88307W        W31224  14.244   2.542   7.684 -0.3088  0.0446 -0.4690
88308W        W31225  12.563   0.577   9.106  0.0220  0.1594  0.1840
88309W        W31226  12.433   2.508   7.369 -0.3218 -0.0089  0.5014
88310W        W31227   9.966   1.320   9.275  0.0863 -0.0099  0.0956
88311W        W31228  13.260   0.434   7.944  0.0007 -0.0858  0.0025
88312W        W31229  12.359   2.026   8.815  0.2419  0.1218  0.1810
88313W        W31230  15.709   2.039   9.125 -0.0186 -0.0570  0.1412
88314W        W31231  13.447  34.332   7.889  0.2579 -0.0707  0.0629
88315W        W31232  11.156   3.397  10.170  0.3572 -0.1233  0.1810
88316W        W31233  15.870  34.175   9.260  0.1651 -0.0128  0.0587
88317W        W31234  13.269   3.067  10.484 -0.2285 -0.2142 -0.0206
88318W        W31235  14.101   2.493  10.898  0.1150  0.0807  0.1821
88319W        W31236  12.177   2.633  10.137  0.1441 -0.0927  0.0250
88320W        W31237  14.634   0.392   8.853 -0.0931 -0.0352  0.0163
88321W        W31238  12.094   2.194   9.189 -0.0843  0.4424 -0.0981
88322W        W31239  14.205   0.324   7.568  0.2440 -0.0380  0.0988
88323W        W31240  17.665   0.839   9.636  0.0731 -0.2001  0.0064
88324W        W31241  11.596   2.207   8.747  0.0544  0.0819  0.1557
88325W        W31242  14.168   1.700   9.813 -0.0431  0.0111 -0.4075
88326W        W31243  13.090  33.947  10.187  0.2199 -0.1227  0.1703
88327W        W31244  12.905   2.955   8.117  0.0005 -0.0239  0.0977
88328W        W31245  11.699   2.190   9.538  0.0348 -0.1362 -0.3481
88329W        W31246  11.085   3.089   7.167  0.1712 -0.1958 -0.2118
88330W        W31247  14.218   2.622  10.263 -0.1450  0.5187  0.1907
88331W        W31248  12.926   2.448   8.257  0.1753 -0.0506  0.0792
88332W        W31249  12.227   3.274   8.538  0.0645 -0.0280  0.2795
88333W        W31250  12.658   1.657  10.115 -0.1561 -0.0364 -0.3773
88334W        W31251  12.290   3.644  11.038 -0.0185 -0.0180 -0.0794
88335W        W31252   9.591   3.124   8.351  0.1605  0.0620  0.1425
88336W        W31253  13.514   2.159   7.418  0.3065  0.1470  0.0095
88337W        W31254  12.719   0.006   8.897  0.2729 -0.0044  0.1074
88338W        W31255  15.756   0.074  10.483 -0.0090 -0.2235 -0.2649
88339W        W31256  15.274   1.374   8.584  0.4417  0.1329 -0.3138
88340W        W31257  14.314   0.594   9.516 -0.1543  0.0743  0.0015
88341W        W31258  12.674   4.154   9.787 -0.0736  0.3231  0.0809
88342W        W31259  10.765   1.387   8.148 -0.3290  0.0722 -0.0211
88343W        W31260  14.650   2.972   9.300  0.1827  0.2361 -0.0439
88344W        W31261  10.836   1.834  10.805 -0.2197 -0.2065  0.1194
88345W        W31262  13.062   3.000   8.606  0.1061  0.0531  0.0674
88346W        W31263  15.285   1.347   9.484 -0.0393  0.0963 -0.1393
88347W        W31264  12.091   1.022   7.058 -0.0512  0.0777  0.0678
88348W        W31265  14.545  34.611   9.016  0.1728  0.0984  0.0088
88349W        W31266  12.144   4.717   9.104 -0.0947 -0.0347 -0.1609
88350W        W31267  11.364   2.820   9.473  0.1486 -0.0763  0.2178
88351W        W31268  13.133   4.087   8.004  0.3004  0.1773 -0.1205
88352W        W31269  12.466   0.250  10.062  0.3274  0.1081 -0.1821
88353W        W31270  15.046   1.610   9.005  0.0370  0.0310  0.0847
88354W        W31271  11.843   1.370   9.750 -0.1763 -0.0400  0.1880
88355W        W31272  10.677   2.181   9.044 -0.0999 -0.0813  0.0062
88356W        W31273  13.710   1.613   8.937  0.1838 -0.0057  0.1522
88357W        W31274  13.861   0.652   9.269 -0.1448  0.2862 -0.1632
88358W        W31275  12.372   1.480   8.859 -0.0593  0.0120  0.1614
88359W        W31276  12.468   1.770   9.214 -0.1851 -0.2962 -0.3293
88360W        W31277  14.034   0.882   8.245  0.0787  0.1795  0.0178
88361W        W31278  12.010   0.185   9.908  0.0266  0.3216 -0.0938
88362W        W31279  13.540   0.306   9.781 -0.1965  0.2331 -0.0145
88363W        W31280  12.447   4.206  10.941  0.0958 -0.0056 -0.0168
88364W        W31281  13.337   1.301   8.693  0.2562 -0.0231  0.0215
88365W        W31282  12.004   2.203  10.778 -0.3366  0.2176  0.0016
88366W        W31283  14.323   3.476   7.968 -0.1114 -0.0620  0.0052
88367W        W31284  12.759   2.123   9.046  0.1194  0.7252  0.0930
88368W        W31285  12.134   4.491   7.795  0.1127 -0.1604  0.1390
88369W        W31286  15.097   3.009   9.015  0.2753  0.1703 -0.1626
88370W        W31287  15.283   2.983   9.956  0.0753 -0.0484  0.0643
88371W        W31288  10.850   0.825   8.301 -0.4079 -0.1137 -0.0788
88372W        W31289  14.555   1.493   9.429  0.0337  0.0215  0.0290
88373W        W31290  13.046   4.195  10.596 -0.0781 -0.3172  0.3122
88374W        W31291  12.483   1.326   9.367 -0.1511  0.0982 -0.0572
88375W        W31292  13.265   2.000   9.796  0.0885 -0.0292  0.3036
88376W        W31293  11.274   3.422   9.411 -0.4803  0.2188  0.1422
88377W        W31294  13.968   2.081  10.273 -0.0931 -0.1625  0.3023
88378W        W31295  10.194   3.005   7.535  0.0072 -0.3658 -0.2198
88379W        W31296  12.376   3.703   8.289 -0.0963 -0.0215  0.0595
88380W        W31297  10.240   1.095   8.151 -0.1471 -0.0516  0.0141
88381W        W31298  11.651   3.242   8.449 -0.0531  0.1038 -0.0996
88382W        W31299  11.509   5.518   8.643 -0.0543 -0.1548  0.1325
88383W        W31300  15.167   4.886   9.125 -0.1525 -0.1545  0.1007
88384W        W31301  11.951   1.389   9.186 -0.1907 -0.0181  0.0142
88385W        W31302  14.655   4.105  10.018  0.1605 -0.1548 -0.0237
88386W        W31303  10.682   2.746  10.033  0.4497  0.3364  0.2199
88387W        W31304  13.394  34.324  10.401 -0.0062  0.1133  0.1533
88388W        W31305  14.666   0.486  10.078 -0.1456  0.0603  0.0202
88389W        W31306  14.302   4.566   9.041  0.1900 -0.0591 -0.2299
88390W        W31307  11.429   0.509   8.632  0.2852  0.0054  0.1565
88391W        W31308  11.789   1.487   8.215 -0.0855 -0.0649 -0.2841
88392W        W31309  11.550   0.808   9.089  0.2090 -0.1675 -0.3895
88393W        W31310  13.011   2.426   9.944 -0.1746  0.2327 -0.3104
88394W        W31311  11.447   2.299   8.238 -0.0541 -0.1135 -0.2448
88395W        W31312  14.780   2.546   8.849 -0.1627 -0.1010 -0.2160
88396W        W31313  12.760  34.406   9.353  0.1444 -0.0987 -0.1760
88397W        W31314  10.224   1.503  10.074  0.1228  0.1638 -0.0461
88398W        W31315  14.806   2.672  10.339  0.2549 -0.0954 -0.0447
88399W        W31316  15.233   2.131   8.999  0.0407 -0.1245 -0.0623
88400W        W31317  13.433  33.814   9.169 -0.1041 -0.0627  0.1915
88401W        W31318  10.447   2.565   8.042  0.0045 -0.1213 -0.0239
88402W        W31319  12.632   0.186   8.462  0.1607 -0.2042  0.1397
88403W        W31320  11.046   0.969   8.849  0.0296 -0.4113 -0.1611
88404W        W31321  12.729   3.331   8.492  0.0604  0.0020  0.1054
88405W        W31322  12.952   3.737   8.344 -0.0801 -0.1382 -0.1522
88406W        W31323  10.384   0.632  11.191 -0.1523  0.0816 -0.0545
88407W        W31324  14.372   2.619   7.039 -0.1871  0.0490 -0.0822
88408W        W31325  14.624   0.312   6.808 -0.1933  0.1246 -0.2282
88409W        W31326  16.055   2.025  10.472  0.1519  0.4150 -0.1577
88410W        W31327  12.115   1.771   8.472  0.1453 -0.2026  0.1104
88411W        W31328  12.707   2.879  10.180 -0.1928  0.2634 -0.3116
88412W        W31329  13.929  33.637  10.327 -0.0810  0.1119 -0.0676
88413W        W31330  14.459  34.131   9.074  0.0269  0.1518  0.2364
88414W        W31331  11.754   3.426   8.977 -0.2465 -0.0079  0.2805
88415W        W31332   9.918   2.689   9.609 -0.1940 -0.0475  0.1637
88416W        W31333  13.458   1.441   7.582 -0.2856 -0.0909 -0.0791
88417W        W31334  11.836   1.753  10.427  0.2111 -0.0885 -0.3175
88418W        W31335  13.922   1.651   7.657  0.1776  0.0844  0.3251
88419W        W31336  14.898   0.475   8.338  0.0031  0.1093 -0.1678
88420W        W31337  14.057   3.435   9.243 -0.1951 -0.0306  0.1394
88421W        W31338  12.612   5.468   9.383  0.1537  0.0831 -0.0767
88422W        W31339  14.598   1.430   9.975  0.1301 -0.0032  0.0350
88423W        W31340  11.533   1.355  10.338  0.0020  0.0629 -0.1154
88424W        W31341  10.292   3.487  10.064 -0.2940 -0.0465  0.0464
88425W        W31342  11.695   0.936   8.277  0.0474 -0.1030 -0.0548
88426W        W31343  12.079   2.569   9.552  0.2959 -0.0148 -0.0992
88427W        W31344  12.660  34.478  11.117  0.0246  0.0337 -0.1209
88428W        W31345  12.361   0.613   8.588 -0.1087  0.0163  0.0370
88429W        W31346  13.748   2.311   9.492 -0.2781  0.1272 -0.0986
88430W        W31347  12.595   2.427   8.635  0.1001  0.3226 -0.0918
88431W        W31348  11.543   5.368   3.693  0.0094 -0.1207 -0.0490
88432W        W31349  11.265   7.078   0.944 -0.0568 -0.1616 -0.0917
88433W        W31350  14.006   6.274   2.426 -0.0688 -0.0126  0.1388
88434W        W31351  14.709   5.743  31.633 -0.1320 -0.2627 -0.1236
88435W        W31352  11.036   6.201   0.416  0.2384 -0.0080 -0.1494
88436W        W31353  13.933   7.817  30.493  0.0900  0.1552  0.0254
88437W        W31354  13.857   3.786   5.851  0.2306 -0.0608 -0.1903
88438W        W31355  12.122   5.847   2.033 -0.0172 -0.1751  0.1173
88439W        W31356  13.669   5.870   2.285 -0.1385 -0.0762  0.2214
88440W        W31357  14.019   4.871   0.476  0.0625  0.3477 -0.3858
88441W        W31358  12.045   1.848   4.089 -0.2782 -0.0727  0.2570
88442W        W31359  14.057   7.156   3.452  0.0376  0.2079 -0.4853
88443W        W31360  14.827   3.418   1.677  0.2852  0.1068 -0.3240
88444W        W31361  11.436   1.892   3.233 -0.1737  0.2361 -0.0091
88445W        W31362  12.882   5.572   2.986  0.1081 -0.2862 -0.3478
88446W        W31363  11.298   8.310   0.678 -0.1635  0.1532  0.1941
88447W        W31364  12.280   3.647   2.071 -0.2380 -0.3235 -0.0385
88448W        W31365  11.929   5.635   2.897 -0.1764  0.1115 -0.3421
88449W        W31366  13.694   7.881   2.926 -0.1640 -0.1039 -0.0415
88450W        W31367  12.654   3.771   1.781 -0.3800 -0.0203  0.4764
88451W        W31368  14.482   5.516   3.068  0.2018 -0.1163 -0.2618
88452W        W31369  13.636   7.211   2.026 -0.0019  0.3653  0.2049
88453W        W31370  10.660   7.738  30.925  0.0104  0.1855 -0.2792
88454W        W31371  11.687   4.747   3.061 -0.0141 -0.2633 -0.0226
88455W        W31372  12.497   3.340   1.538 -0.0296 -0.1632 -0.0114
88456W        W31373  13.102   4.764   0.860  0.0418  0.0555 -0.1617
88457W        W31374  14.154   3.832   1.328 -0.1733 -0.4395  0.1288
88458W        W31375  12.518   7.759   1.444  0.0333  0.2173 -0.2086
88459W        W31376  11.626   6.753   0.875  0.1047  0.0649 -0.1027
88460W        W31377  13.652   3.624   2.040  0.1116 -0.1060 -0.2745
88461W        W31378  11.105   5.675   0.240  0.1322 -0.0321 -0.3040
88462W        W31379  10.141   7.748   2.108  0.1590 -0.1618  0.0511
88463W        W31380  11.636   8.017  31.770  0.1982 -0.1277 -0.1644
88464W        W31381  15.725   7.044   0.378 -0.0872  0.0148 -0.0377
88465W        W31382  14.663   6.176   5.104  0.1849  0.0536  0.0293
88466W        W31383  12.026   7.632   6.644  0.1336 -0.0389 -0.2058
88467W        W31384  10.800   8.909  31.777 -0.1188 -0.3120 -0.1263
88468W        W31385  11.529   7.524   4.170  0.1737  0.2600 -0.1071
88469W        W31386  12.741   6.489   4.111 -0.1430  0.1844 -0.4068
88470W        W31387  13.649   5.198   3.067  0.0055  0.1626 -0.1445
88471W        W31388  11.619   5.770   1.832  0.0194  0.0315 -0.2657
88472W        W31389  12.808   6.139  31.193  0.0998  0.3025  0.0111
88473W        W31390  12.265   6.858   1.380  0.0812  0.1164  0.1301
88474W        W31391  10.947   4.853   2.568  0.1859 -0.0616 -0.4172
88475W        W31392  10.597   5.697   2.030  0.0108 -0.0604 -0.0682
88476W        W31393  16.252   5.349   3.671  0.1234 -0.0263 -0.0463
88477W        W31394  11.077   7.666   1.545  0.0223  0.0142  0.2861
88478W        W31395  14.226   6.001  30.912  0.3752 -0.0309  0.0540
88479W        W31396  12.996   3.228  30.714 -0.1152 -0.0223 -0.1133
88480W        W31397  14.506   5.646  30.609 -0.1920 -0.2330  0.2953
88481W        W31398  12.244   2.683   3.074  0.0006  0.0403  0.4964
88482W        W31399  12.683   4.668  30.589 -0.0098 -0.0581 -0.0580
88483W        W31400  11.928   6.738   3.012 -0.2744 -0.4017  0.1540
88484W        W31401  15.447   5.732   4.643 -0.2583  0.1493 -0.2788
88485W        W31402  14.495   7.519   1.631 -0.2497 -0.1198 -0.0298
88486W        W31403  13.250   6.407   4.113  0.1799 -0.0328  0.1369
88487W        W31404  10.062   5.287   2.615  0.0709  0.1160 -0.1882
88488W        W31405  12.221   6.126   2.533  0.1132  0.0322 -0.1227
88489W        W31406  14.530   6.734  31.079  0.1640 -0.3526 -0.0857
88490W        W31407  13.950   7.257   1.394 -0.0435  0.1618  0.4243
88491W        W31408  13.201   6.253   1.014  0.0353 -0.0984  0.2115
88492W        W31409  12.246   5.519   1.403 -0.0018 -0.0712  0.3187
88493W        W31410  10.695   7.316   3.034 -0.2823  0.1661  0.3724
88494W        W31411  11.892   2.334   3.735  0.0853 -0.3258  0.1554
88495W        W31412  13.168   5.831   0.617  0.1356 -0.1298  0.0096
88496W        W31413  14.407   5.717   2.565  0.0435 -0.2330 -0.2517
88497W        W31414  10.086   6.770   1.626  0.2689 -0.0391 -0.4284
88498W        W31415  14.931   5.968   4.156  0.0963 -0.1292 -0.4443
88499W        W31416  11.099   7.005   2.716 -0.0921  0.3372  0.2366
88500W        W31417  13.400   6.365  30.873 -0.1367  0.0842 -0.0545
88501W        W31418  17.181   3.487   2.769 -0.3634  0.4471 -0.1219
88502W        W31419  12.914   4.899   2.555  0.1801  0.1095  0.3369
88503W        W31420  12.968   3.824   1.068  0.0793  0.2800  0.1516
88504W        W31421  14.346   9.539   2.285  0.0334 -0.2208  0.1317
88505W        W31422  13.954   3.581   3.793  0.1286 -0.0080  0.1376
88506W        W31423  16.399   6.365  30.499  0.1144  0.1347 -0.0205
88507W        W31424  13.838   8.716   2.568 -0.0165  0.2029 -0.2266
88508W        W31425  12.889   3.832   2.881 -0.2307 -0.0740  0.3149
88509W        W31426  12.059   5.551   3.389 -0.0446  0.2074  0.1742
88510W        W31427  10.709   6.556  31.836  0.2820  0.1456  0.0265
88511W        W31428  10.951   6.456   2.927  0.1486  0.1191 -0.0576
88512W        W31429  12.737   6.417   0.141 -0.0244  0.0078 -0.0990
88513W        W31430  11.000   2.740   3.090 -0.2077 -0.2865 -0.0015
88514W        W31431  12.694   5.761   2.055  0.0237 -0.4288  0.0028
88515W        W31432  12.680   5.307  31.858 -0.0019 -0.3242  0.0582
88516W        W31433  12.578   2.220   2.263 -0.0355  0.0709  0.2042
88517W        W31434  13.266   5.829   1.281 -0.0883  0.0377  0.1516
88518W        W31435  12.797   7.535  31.337  0.1557  0.1815 -0.0511
88519W        W31436  12.570   9.254   2.396 -0.0118  0.1430  0.1760
88520W        W31437  14.937   5.625  30.010 -0.0556 -0.0704  0.3400
88521W        W31438  13.407   8.070  31.731  0.3380  0.0534 -0.0642
88522W        W31439  10.880   5.805   2.949  0.0687 -0.0313  0.0440
88523W        W31440  12.530   4.073   0.921  0.5151  0.1589 -0.0242
88524W        W31441  10.433   4.603   3.077  0.1340 -0.1910 -0.0793
88525W        W31442  10.640   4.316   1.691  0.2872 -0.0030  0.1838
88526W        W31443  13.416   5.693   3.325 -0.2261  0.2465 -0.4026
88527W        W31444  11.110   1.773  30.785 -0.0078 -0.0634  0.1140
88528W        W31445  13.142   6.879   2.410 -0.0259  0.3936 -0.0446
88529W        W31446  12.290   4.271   0.470  0.1156  0.1551  0.4066
88530W        W31447   9.422   5.175   2.776  0.2386  0.0383  0.1812
88531W        W31448  15.041   3.499   2.822  0.3037  0.1636  0.1587
88532W        W31449  12.517   6.857  31.901 -0.3131  0.0929  0.2129
88533W        W31450  14.792   6.903   3.239  0.0677 -0.0502 -0.2896
88534W        W31451  16.972   6.286   0.348 -0.2345 -0.4702 -0.0262
88535W        W31452  11.734   4.602   4.024  0.1177 -0.1099  0.1457
88536W        W31453  12.006   4.617   2.604 -0.0300  0.0420  0.0520
88537W        W31454  10.033   8.893   0.859  0.1477  0.0339  0.0953
88538W        W31455  12.077   8.065   2.097 -0.0340 -0.0683 -0.5259
88539W        W31456  12.858   3.335   2.713 -0.0644 -0.0260  0.0748
88540W        W31457  14.952   5.401   3.216  0.0782 -0.4036  0.2124
88541W        W31458  12.463   5.076   0.330  0.0429 -0.0337 -0.2435
88542W        W31459  10.893   6.027   2.397 -0.0326 -0.1279 -0.0684
88543W        W31460  13.892   4.713   3.840  0.0896  0.1989 -0.1961
88544W        W31461  15.340   5.059   3.859  0.0629  0.3203  0.0668
88545W        W31462  13.056   6.833   3.387  0.1621 -0.0253  0.2285
88546W        W31463  12.148   1.790  31.468  0.0909  0.3234 -0.1558
88547W        W31464  13.601   7.753   3.772  0.0110 -0.0934 -0.1519
88548W        W31465  12.658   9.438   1.111  0.1847  0.3873 -0.0230
88549W        W31466  10.273   6.306   0.873 -0.0853  0.0622  0.1343
88550W        W31467  12.138   6.406   1.215  0.2548  0.2320 -0.1228
88551W        W31468  12.694   6.311   2.479  0.2226 -0.0788 -0.0858
88552W        W31469   8.691   5.125   4.260  0.1711 -0.2251 -0.0246
88553W        W31470  13.320   5.566   2.030  0.1413 -0.2300 -0.0768
88554W        W31471  12.379   5.970  31.306 -0.2060 -0.1974  0.2539
88555W        W31472  11.338   8.923   1.973 -0.1521  0.1643  0.0094
88556W        W31473  12.766   3.125   1.150  0.0875  0.2387  0.1565
88557W        W31474  13.733   3.194   2.197 -0.0800 -0.0821 -0.0422
88558W        W31475  13.382   9.599   2.983  0.0408  0.3647  0.2131
88559W        W31476  12.887   6.626   2.065 -0.1036  0.0001  0.1157
88560W        W31477  12.950   4.502  30.953  0.3829  0.2256 -0.2820
88561W        W31478  12.756   3.067   0.082  0.1305  0.2018  0.1633
88562W        W31479   9.775   6.331   3.547 -0.1505 -0.1254 -0.2233
88563W        W31480  11.502   6.399   0.594  0.1539  0.0589 -0.0448
88564W        W31481  13.588   4.112   1.644  0.1665 -0.2582  0.1540
88565W        W31482  13.696   6.615  31.574  0.1244  0.2471  0.2544
88566W        W31483  16.097   7.834   0.389 -0.3420 -0.0664 -0.2420
88567W        W31484  10.444   6.668   2.177 -0.2806  0.0429 -0.1096
88568W        W31485  13.304   5.697   4.743  0.0285  0.2665  0.0838
88569W        W31486  13.461   6.416   2.501 -0.2078  0.2852  0.2520
88570W        W31487  11.854   2.967   3.110 -0.2110 -0.1972 -0.1120
88571W        W31488  11.866   5.949  31.197 -0.1723  0.2165 -0.0219
88572W        W31489  12.359   3.100   2.684 -0.0468 -0.0217  0.1062
88573W        W31490   8.467   9.610   0.680  0.0485 -0.0566  0.0501
88574W        W31491  15.485   3.909   3.675  0.3191  0.1635 -0.3166
88575W        W31492  13.360   2.824   2.106  0.2193 -0.3868  0.0472
88576W        W31493  12.544   4.110   2.179 -0.1135 -0.3354 -0.1479
88577W        W31494  13.112   6.016   2.499  0.3563  0.0844  0.0875
88578W        W31495  12.858   4.354   0.184 -0.0286  0.5358 -0.1744
88579W        W31496  13.867   5.805   1.296  0.1422  0.0054 -0.1161
88580W        W31497   9.609   5.409   2.360 -0.4000  0.2956  0.1476
88581W        W31498  13.970   5.857   2.737 -0.0634  0.1854  0.0132
88582W        W31499  13.324   6.996   4.831 -0.0370  0.2517  0.1589
88583W        W31500  12.088   6.270   3.334 -0.0600 -0.0526  0.0235
88584W        W31501  14.850   7.071   3.699  0.0067 -0.0331 -0.1064
88585W        W31502  13.951   7.142   2.954 -0.2296 -0.1825  0.0813
88586W        W31503  13.512   4.478   3.312  0.0878 -0.0860 -0.0945
88587W        W31504  15.273   6.029   1.229 -0.1459 -0.3298 -0.1712
88588W        W31505  11.137   4.504  30.589 -0.3256 -0.0879  0.1509
88589W        W31506  13.121   6.163  31.836  0.1074 -0.2061 -0.2283
88590W        W31507  12.349   3.486   4.171 -0.0829 -0.0643 -0.0148
88591W        W31508  10.517   6.391   1.729 -0.0615  0.0899 -0.2531
88592W        W31509  11.982   8.503  31.060 -0.1700 -0.1160  0.0996
88593W        W31510  13.052   6.879   3.958 -0.2017  0.0239 -0.0887
88594W        W31511  11.160   7.222   0.254  0.1812 -0.2035 -0.2442
88595W        W31512  13.855   2.407   1.686  0.0566 -0.1704  0.2945
88596W        W31513  10.703   6.068   1.101 -0.1000 -0.2373 -0.0426
88597W        W31514  11.039   3.134   1.560 -0.2068 -0.2812 -0.1752
88598W        W31515  11.712   7.333   2.504 -0.1406  0.0295 -0.0356
88599W        W31516  14.293   4.258   1.567  0.0820 -0.3240  0.1307
88600W        W31517  14.621   7.450  31.724  0.0199 -0.0124 -0.2922
88601W        W31518  10.979   4.230   4.270  0.0498  0.0200 -0.0465
88602W        W31519  11.476   5.219   1.883  0.0332 -0.1697  0.1752
88603W        W31520  11.259   6.617   1.217  0.2271 -0.2059  0.2380
88604W        W31521  14.263   8.937   2.446  0.0248  0.2151 -0.0954
88605W        W31522  13.703   3.264  31.644 -0.0217 -0.1839 -0.5664
88606W        W31523  13.696   4.687   2.361  0.0882 -0.1482 -0.0287
88607W        W31524  13.302   4.824   3.088  0.0544 -0.0890  0.1322
88608W        W31525  11.791   5.103  31.485  0.4267 -0.2671 -0.2266
88609W        W31526  11.457   6.199   1.644 -0.2767  0.2269 -0.2051
88610W        W31527  12.215   5.509   2.425  0.5306 -0.1777  0.1753
88611W        W31528  10.905   6.541   2.431 -0.2417  0.1932 -0.1054
88612W        W31529  11.007   6.122   1.968 -0.1784 -0.2157 -0.0114
88613W        W31530  12.641   4.514   3.218  0.1358 -0.0995 -0.1261
88614W        W31531  11.341   5.838   2.304  0.0825 -0.0336 -0.1334
88615W        W31532  12.133   4.635   3.674  0.0745  0.0812  0.1894
88616W        W31533  13.831   6.743   3.218  0.0095  0.3223  0.2472
88617W        W31534  12.630   6.570   3.338 -0.1780  0.0098 -0.0541
88618W        W31535  12.382   4.908   2.348 -0.2164  0.1494  0.2943
88619W        W31536  13.282   6.321   0.401  0.0715 -0.0744 -0.0163
88620W        W31537  14.683   5.239   2.206  0.0014 -0.1316  0.3067
88621W        W31538  11.518   2.680   3.852 -0.0549  0.3805  0.0808
88622W        W31539   9.472   7.405   2.716  0.3056  0.0959  0.1972
88623W        W31540  12.476   2.721   2.023 -0.2198 -0.1488 -0.1141
88624W        W31541  14.228   7.931   1.517  0.1317 -0.0702 -0.1708
88625W        W31542  14.082   5.051   3.277  0.0323  0.1557  0.2843
88626W        W31543  12.482   6.082   0.591 -0.2258 -0.0009  0.0272
88627W        W31544   8.853   5.294   1.799 -0.2128  0.2161  0.2296
88628W        W31545  11.151   7.793   0.703  0.0789  0.0111  0.2741
88629W        W31546  11.468   5.877   3.774  0.1729 -0.1576  0.1490
88630W        W31547  11.901   7.642   0.491  0.2301 -0.0770 -0.1016
88631W        W31548  12.015   7.732   0.001  0.0508 -0.0336  0.1866
88632W        W31549  11.208   7.453   2.934  0.0123 -0.0147 -0.0213
88633W        W31550  13.412   5.416   0.464  0.0452 -0.0396 -0.0678
88634W        W31551  13.279   6.905   0.388  0.0682  0.0440 -0.0656
88635W        W31552  13.655   3.557   3.369 -0.1449 -0.0231  0.1389
88636W        W31553  14.855   4.532   2.992  0.2819 -0.2449  0.0928
88637W        W31554  13.841   7.638   1.694 -0.1672 -0.0870 -0.0674
88638W        W31555  14.148   2.852   3.204 -0.0237  0.0938 -0.0499
88639W        W31556  10.723   5.413   3.680 -0.1178 -0.1424  0.0897
88640W        W31557  15.613   7.711   3.011 -0.2585 -0.0053 -0.2838
88641W        W31558  11.296   4.263   2.428 -0.5107  0.1717  0.0637
88642W        W31559  12.074   8.269   2.685 -0.2984  0.1052  0.3239
88643W        W31560  12.505   4.418   2.609  0.2544 -0.1228  0.0644
88644W        W31561  12.866   6.367   0.665  0.0422 -0.0166 -0.2004
88645W        W31562  11.180   4.193   0.402  0.0400  0.0809 -0.2039
88646W        W31563  12.211   6.282   4.295 -0.2151 -0.1335  0.0411
88647W        W31564  14.152   8.357   1.204  0.0772 -0.0162  0.3810
88648W        W31565  13.154   7.298   1.068 -0.1786  0.1368 -0.5580
88649W        W31566  14.224   6.737   2.144 -0.2316 -0.1186 -0.1745
88650W        W31567  12.034   5.182   1.685  0.0058  0.0905  0.1776
88651W        W31568  14.068   6.550   0.738 -0.2097  0.1648 -0.1243
88652W        W31569  13.333   6.614  31.920 -0.0379  0.4067 -0.0409
88653W        W31570  12.045   7.212  31.945 -0.1235  0.3356 -0.1176
88654W        W31571  12.372   1.875   3.700 -0.1431 -0.2575  0.1148
88655W        W31572  13.242   5.018   2.167 -0.4096 -0.2771  0.0712
88656W        W31573  14.307   5.180   4.102 -0.0217  0.2643  0.4787
88657W        W31574  13.425   4.949   4.138 -0.0076  0.1667 -0.3428
88658W        W31575  14.187   4.182   3.051  0.2269  0.0419 -0.0641
88659W        W31576  12.616   4.366   4.452 -0.1898 -0.2452  0.2250
88660W        W31577  10.122   4.018   4.107  0.1772 -0.0405  0.1437
88661W        W31578  14.988   9.351   5.454 -0.1238 -0.2312 -0.2348
88662W        W31579  13.688   4.151   2.907  0.0959 -0.2506 -0.1852
88663W        W31580  14.306   5.929   3.357  0.2327 -0.1802  0.1792
88664W        W31581  15.780   5.564   3.021 -0.0222  0.2920 -0.0515
88665W        W31582  13.605   3.626   1.378 -0.3287 -0.2398 -0.0185
88666W        W31583  11.399   6.192   2.730  0.1434 -0.1922 -0.0741
88667W        W31584  14.614   5.549   4.303 -0.3342  0.2741 -0.0744
88668W        W31585  12.118   4.104   2.544  0.0759 -0.1434 -0.0655
88669W        W31586  13.243   2.899   2.738  0.1848 -0.0594 -0.2325
88670W        W31587  11.144   9.976   1.076  0.0475  0.0921 -0.2052
88671W        W31588  15.011   6.582   3.657  0.3338 -0.1826  0.5490
88672W        W31589  12.919   3.701   2.263 -0.1569  0.3296 -0.1609
88673W        W31590   9.458   5.750   4.145  0.2888 -0.0719 -0.2474
88674W        W31591   9.404   7.948   2.714  0.0379 -0.0090 -0.3392
88675W        W31592  12.889   5.104   2.994  0.0602 -0.2380  0.2796
88676W        W31593  14.052   5.709   0.695 -0.1683 -0.4905  0.2070
88677W        W31594  13.577   6.977   2.642 -0.1051  0.2132  0.1622
88678W        W31595  13.983   7.563   4.092 -0.0369  0.3415  0.0964
88679W        W31596  14.696   3.827  31.621 -0.0035  0.1160  0.0215
88680W        W31597  13.807   3.045   4.125 -0.1251 -0.2190  0.1157
88681W        W31598  11.264   4.963  31.892  0.2876  0.0257  0.1214
88682W        W31599  15.551   2.871   0.575 -0.1349 -0.1084  0.1741
88683W        W31600  12.088   6.387   1.709  0.0170 -0.2934 -0.0858
88684W        W31601  10.364   7.543   3.648  0.2978  0.2247  0.3351
88685W        W31602  13.348   8.247   1.007  0.1407  0.2040  0.0160
88686W        W31603  12.356   3.579   3.010  0.1348  0.0852  0.0314
88687W        W31604  12.710   5.413   3.414  0.1460  0.2594  0.2781
88688W        W31605  11.279   5.911   1.172 -0.1252 -0.1494 -0.2664
88689W        W31606  14.902   5.274   4.087  0.0689  0.0441  0.1381
88690W        W31607  12.851   5.963   4.186 -0.0096  0.0984  0.0548
88691W        W31608  12.381   5.493   2.972 -0.1204 -0.2212 -0.1562
88692W        W31609  14.709   7.246   5.279  0.1858 -0.1190  0.0015
88693W        W31610  13.335   6.694   1.849  0.0847  0.3168  0.0064
88694W        W31611   9.852   7.748   2.646  0.1219 -0.1831 -0.0084
88695W        W31612  10.208   6.506   3.096  0.1471 -0.0952  0.1308
88696W        W31613  11.871   4.090   4.012  0.1071  0.5342 -0.4300
88697W        W31614  14.255   5.998   1.976 -0.0641 -0.0308  0.2015
88698W        W31615  12.059   4.265   1.359  0.0226 -0.2212  0.3827
88699W        W31616  12.968   3.667  30.521 -0.0947 -0.2735 -0.0806
88700W        W31617  12.201   6.790   3.412 -0.3670  0.2208  0.1185
88701W        W31618  12.613   5.270   2.608  0.0579  0.1699 -0.1564
88702W        W31619  11.402   7.226   1.588 -0.3013 -0.1321 -0.0576
88703W        W31620  12.497   6.982   2.995 -0.0548 -0.3023 -0.2223
88704W        W31621  13.685   5.707  31.621  0.1600 -0.2468  0.2704
88705W        W31622  13.296   7.646   1.824  0.0018 -0.0172 -0.0549
88706W        W31623  13.016   2.423   2.105 -0.1449  0.0569 -0.0528
88707W        W31624  12.507   8.197   2.942  0.2275  0.1227 -0.0523
88708W        W31625  11.062   7.116  30.954 -0.0537  0.0817  0.0001
88709W        W31626  12.967   8.561   0.883  0.2119  0.1005  0.0385
88710W        W31627  11.632   8.548  31.851  0.0991 -0.0219  0.2984
88711W        W31628  15.217   6.658   5.438  0.2191 -0.2110 -0.2834
88712W        W31629  13.496   4.941   1.701 -0.3027  0.1616 -0.0973
88713W        W31630  14.790   6.045  31.020 -0.0040 -0.0745  0.0632
88714W        W31631  14.340   5.011   1.041 -0.0429  0.3566  0.1001
88715W        W31632  11.587   6.997   4.239  0.0720  0.3209 -0.0731
88716W        W31633  12.829   6.915   0.763  0.0855  0.1885  0.3809
88717W        W31634  12.699   3.529  31.934  0.2566  0.1414 -0.3465
88718W        W31635  11.606   5.826   3.240  0.2166  0.1090 -0.4194
88719W        W31636  15.539   3.978   3.181 -0.1558  0.1454  0.0319
88720W        W31637  10.441   7.298   2.590  0.0492 -0.0711  0.0039
88721W        W31638  12.558   8.886   0.837  0.1597 -0.0994 -0.0738
88722W        W31639  13.433   3.755  31.459  0.0346 -0.0119 -0.3836
88723W        W31640  12.437   7.759   2.826 -0.0578  0.3074 -0.0165
88724W        W31641  14.950   3.568   1.229  0.1633 -0.0751  0.1180
88725W        W31642  12.941   8.054   1.644 -0.2614 -0.0126 -0.0123
88726W        W31643  13.538   5.418   1.484 -0.0329 -0.0108 -0.3066
88727W        W31644  12.842   7.665   2.114 -0.0007  0.0242  0.1061
88728W        W31645  13.275   7.626   2.942  0.0999 -0.0143 -0.0284
88729W        W31646  13.056   7.164   2.803 -0.0189  0.0873 -0.0232
88730W        W31647  11.538   2.351   1.851  0.1542  0.0476 -0.3190
88731W        W31648  13.472   6.565   3.503 -0.2865  0.0979 -0.1603
88732W        W31649   9.802   4.820   2.602  0.1272  0.1673 -0.1200
88733W        W31650  15.211   5.636   3.781 -0.1277  0.1371  0.0795
88734W        W31651  12.794   4.597   2.088  0.0836  0.0082 -0.0682
88735W        W31652  12.941   2.874   1.783 -0.1134  0.5486  0.3909
88736W        W31653  13.326   4.536   2.647  0.0276 -0.1607 -0.0291
88737W        W31654  11.771   4.417   2.197  0.1871 -0.0920  0.2228
88738W        W31655  13.989   7.521  31.023 -0.1503 -0.1706  0.0006
88739W        W31656  14.047   5.280   2.682  0.0426  0.1659 -0.2331
88740W        W31657  13.070   4.333   3.034  0.0553 -0.4345  0.0997
88741W        W31658  12.834   7.449   3.843  0.1206 -0.2186 -0.1331
88742W        W31659  10.947   4.464   3.675  0.0430  0.1564 -0.0045
88743W        W31660  13.757   4.036   0.835  0.2425  0.1900  0.2637
88744W        W31661  11.956   5.918   1.397 -0.2787  0.0265 -0.1351
88745W        W31662  12.074   5.508   4.054 -0.5315  0.1044  0.1007
88746W        W31663  12.769   7.220   4.327  0.1484 -0.0483  0.0304
88747W        W31664  11.363   4.203   3.881  0.2205  0.1980  0.3740
88748W        W31665  16.944   6.803  31.747  0.4387  0.0844 -0.2032
88749W        W31666  14.881   5.601   2.595 -0.0386 -0.0442  0.2896
88750W        W31667  10.123   8.677   0.361  0.0859 -0.0755 -0.3473
88751W        W31668  12.922   5.094   1.169 -0.1736 -0.0657 -0.0743
88752W        W31669  13.265   7.999   3.415  0.1914 -0.1777  0.1745
88753W        W31670  10.124   4.951   2.984 -0.2481 -0.0349  0.1278
88754W        W31671  14.848   9.060   4.063  0.1530  0.1121 -0.0162
88755W        W31672  15.549   5.928   3.240  0.1614  0.0760 -0.0203
88756W        W31673  13.302   2.532   1.718  0.0454  0.1223  0.3037
88757W        W31674  11.294   4.659   2.074  0.2060  0.1237  0.1317
88758W        W31675  12.183   8.858   1.690 -0.2199 -0.1000  0.1512
88759W        W31676  15.453   4.853   3.330  0.1472  0.3503  0.3005
88760W        W31677  14.466   3.582   2.165  0.2034 -0.0629  0.1201
88761W        W31678  11.862   7.083  30.707  0.1124 -0.1315 -0.1699
88762W        W31679  13.130   3.540   3.615  0.0331  0.1615 -0.1775
88763W        W31680  13.509   8.324   2.772  0.0913  0.0093 -0.0502
88764W        W31681  12.022   5.106   2.771 -0.0945 -0.4298  0.1195
88765W        W31682  13.687   7.057   0.999 -0.0869 -0.1158 -0.1892
88766W        W31683  14.035   4.780   5.606  0.0522 -0.1241 -0.2205
88767W        W31684  12.702   7.214   1.256  0.1494  0.1932 -0.1206
88768W        W31685  12.582   6.238   2.021 -0.0560 -0.0013  0.3350
88769W        W31686  14.024   8.213   2.730 -0.1337 -0.1375 -0.0206
88770W        W31687  15.136   4.381   2.564  0.2417  0.0230 -0.1852
88771W        W31688  15.060   7.282   1.472  0.0500  0.1775  0.1404
88772W        W31689  12.259   4.470   2.158  0.1382 -0.2427  0.0861
88773W        W31690  13.992   4.646   0.900 -0.4470  0.1965 -0.2119
88774W        W31691  12.413   1.589   0.770  0.3360 -0.2827 -0.1864
88775W        W31692  10.802   6.997   2.324 -0.0112 -0.0788  0.2606
88776W        W31693  13.306   7.759   0.867  0.1141 -0.2666 -0.1759
88777W        W31694  12.005   6.079  31.796  0.3145 -0.0574 -0.0462
88778W        W31695  11.369   6.675   1.732  0.0648  0.0732 -0.1132
88779W        W31696  12.433   4.042   3.063  0.0611 -0.0082 -0.1919
88780W        W31697  11.601   4.349   5.304  0.0647 -0.0628 -0.3170
88781W        W31698  11.697   6.678   2.559  0.0102 -0.0985 -0.0189
88782W        W31699  12.061   3.166   1.711 -0.0270  0.0366 -0.2731
88783W        W31700  15.149   8.922  31.017 -0.3413  0.1978 -0.2281
88784W        W31701  13.971   3.997   2.509  0.3680 -0.1912 -0.0430
88785W        W31702  11.395   3.531   2.485  0.2419 -0.0912 -0.2971
88786W        W31703  14.520   8.240   1.719 -0.1340  0.1550  0.2171
88787W        W31704  14.077   6.768   1.240  0.3654  0.1116  0.3400
88788W        W31705  11.598   4.257   1.726  0.0593 -0.2079  0.1690
88789W        W31706  13.882   6.698   4.318  0.0700 -0.0468 -0.1355
88790W        W31707  12.166   3.681   0.202 -0.3433  0.0283  0.0765
88791W        W31708  11.337   3.845   4.278 -0.1493  0.0601  0.0271
88792W        W31709  14.501   3.775   1.710  0.4413 -0.3800 -0.1212
88793W        W31710  11.197   2.143   0.095 -0.3545  0.0711  0.0760
88794W        W31711  12.978   4.218   2.387  0.0035  0.2636  0.0244
88795W        W31712  11.600   9.190   0.365 -0.0960 -0.0425 -0.0176
88796W        W31713  14.898   9.286  30.649 -0.0925  0.0085  0.3424
88797W        W31714  11.880   6.771   2.069 -0.2116 -0.0071 -0.2547
88798W        W31715  14.106   6.346   3.327 -0.1182 -0.1900 -0.1292
88799W        W31716  11.750   2.730   2.111  0.0813  0.1096 -0.0764
88800W        W31717  13.853   5.740   1.822 -0.0073  0.0273 -0.2594
88801W        W31718  11.882   6.137   2.895  0.0145  0.1328 -0.2054
88802W        W31719  13.996   5.580  30.529  0.3300  0.3768 -0.3603
88803W        W31720  16.399   4.342   2.824 -0.0710  0.0885  0.1430
88804W        W31721  12.976   5.976   1.708 -0.1148 -0.2486  0.0616
88805W        W31722  11.342   3.044   3.373 -0.0984 -0.2234 -0.0965
88806W        W31723  11.570   5.324   5.163 -0.0012  0.4080 -0.0422
88807W        W31724  13.225   6.213   2.046  0.1233 -0.2953  0.0930
88808W        W31725  11.346   3.898   2.890  0.0544  0.2758  0.0774
88809W        W31726  11.917   6.276   2.159 -0.0717  0.0125  0.1092
88810W        W31727  10.771   5.515  30.756  0.0720  0.0476  0.3006
88811W        W31728  12.508   4.909   0.791  0.1309  0.0824 -0.3643
88812W        W31729  13.927   5.158   1.859 -0.0572 -0.2578  0.3551
88813W        W31730  12.897   5.647   3.804 -0.1669  0.0675 -0.2232
88814W        W31731  12.616   6.444   1.557 -0.1323 -0.3089  0.0675
88815W        W31732  15.262   8.151   4.336  0.3432 -0.1035  0.0582
88816W        W31733  11.674   6.204   1.004 -0.1912 -0.1874 -0.2684
88817W        W31734  15.310   6.392   0.193  0.1048 -0.3424 -0.3585
88818W        W31735  13.662   7.544   3.315  0.0168 -0.0415 -0.1474
88819W        W31736  16.205   9.826   4.570 -0.1647 -0.0981  0.2401
88820W        W31737  11.292   6.870   2.208 -0.1810 -0.2566 -0.0272
88821W        W31738  12.597   6.631   1.048 -0.0961  0.1312  0.2112
88822W        W31739  12.961   2.791   4.501  0.0810 -0.2039  0.0036
88823W        W31740  12.463   5.950   1.626 -0.2913  0.1749  0.0003
88824W        W31741  12.746   7.155   2.049  0.2680 -0.1196  0.1935
88825W        W31742  12.420   3.891   1.366 -0.1202 -0.0055  0.1442
88826W        W31743  12.698   4.513   3.726 -0.2276  0.1132 -0.1481
88827W        W31744  13.511   5.001   0.737 -0.0036 -0.1535  0.3331
88828W        W31745  12.021   7.869   3.051  0.1640  0.2062 -0.1350
88829W        W31746  13.033   5.346   1.622  0.1952  0.2096  0.0535
88830W        W31747  13.490   6.239   7.340 -0.2509 -0.0129  0.0679
88831W        W31748  12.149   4.994   4.812 -0.2583 -0.0072  0.1436
88832W        W31749  13.850   3.056   3.571  0.0045 -0.1777 -0.0318
88833W        W31750  13.857   6.000   7.155 -0.2716  0.0089  0.0616
88834W        W31751  11.058   3.195   5.281  0.1274 -0.1182 -0.3196
88835W        W31752  12.761   6.591   5.243 -0.1459  0.0040 -0.0026
88836W        W31753  11.621   3.874   7.874  0.0364  0.2833  0.0800
88837W        W31754  14.122   6.153   6.763 -0.0416 -0.3129 -0.1946
88838W        W31755  14.511   5.871   8.397  0.1739 -0.0894 -0.0633
88839W        W31756  13.972   6.187   4.294  0.1282  0.0811 -0.1600
88840W        W31757  12.232   4.626   6.659  0.2196 -0.1000 -0.0833
88841W        W31758  13.585   7.233   8.384 -0.2782  0.4024 -0.1286
88842W        W31759  13.076   4.413   6.571  0.3103 -0.0886 -0.0918
88843W        W31760  11.892   3.493   3.235 -0.1852  0.0378  0.0954
88844W        W31761  14.792   6.792   6.418  0.1623 -0.1190 -0.0386
88845W        W31762  13.009   5.532   4.368 -0.0663  0.0233  0.1089
88846W        W31763  12.270   5.139   5.357 -0.1241 -0.1536 -0.1362
88847W        W31764  11.764   4.995   5.538 -0.2625  0.0515 -0.0836
88848W        W31765  13.225   7.482   5.124 -0.0682 -0.1665 -0.1077
88849W        W31766  11.722   5.137   6.583 -0.0375  0.4675  0.0219
88850W        W31767  14.490   4.541   7.757 -0.0812  0.4173  0.1479
88851W        W31768  10.023   6.327   3.935 -0.4553 -0.3508  0.1116
88852W        W31769   9.025   5.282   5.393  0.0710 -0.0897 -0.0343
88853W        W31770  10.694   2.516   6.612  0.0097 -0.0211  0.1644
88854W        W31771  11.394   3.039   6.737  0.1759  0.1345 -0.0878
88855W        W31772  12.152   5.850   7.671  0.0966  0.1294 -0.2518
88856W        W31773  13.835   5.225   3.916 -0.1495 -0.1060 -0.0940
88857W        W31774  12.220   5.811   5.823 -0.0823  0.0717  0.2709
88858W        W31775  12.804   5.903   5.613 -0.1009  0.0845  0.0530
88859W        W31776  12.595   4.325   8.084  0.0377 -0.0162 -0.0675
88860W        W31777  12.528   6.582   5.917 -0.0992  0.2408  0.1291
88861W        W31778  11.170   6.175   3.236  0.1535  0.1737 -0.1582
88862W        W31779  15.172   6.417   5.053 -0.0370  0.1313  0.0265
88863W        W31780  14.180   7.185   6.974 -0.0590 -0.1259 -0.0157
88864W        W31781  14.113   6.788   7.819  0.0072  0.1690  0.0880
88865W        W31782  13.616   4.973   3.511 -0.3059 -0.2546  0.1072
88866W        W31783  13.002   6.363   6.031  0.1308 -0.0768  0.3999
88867W        W31784  12.785   7.425   6.173 -0.0589  0.1342 -0.2268
88868W        W31785  13.161   5.886   5.982  0.4874  0.1266  0.2523
88869W        W31786  12.220   4.785   5.762  0.1551  0.2266 -0.1287
88870W        W31787  12.417   5.798   5.316 -0.2827  0.1299 -0.1953
88871W        W31788  11.612   6.227   5.938 -0.1675 -0.0556  0.4067
88872W        W31789  12.386   7.758   7.046 -0.1322  0.2390 -0.3185
88873W        W31790  11.900   5.983   6.620 -0.0252 -0.1208  0.0833
88874W        W31791  14.151   5.259   7.070 -0.0190  0.0382  0.0609
88875W        W31792  11.289   6.660   4.558  0.1520 -0.2543  0.2993
88876W        W31793  14.424   4.214   2.029  0.1066  0.0015  0.0936
88877W        W31794  14.286   2.153   1.835  0.1990 -0.0736 -0.2038
88878W        W31795  14.309   5.935   4.659  0.2123 -0.1073 -0.0921
88879W        W31796  13.385   4.004   3.321  0.1119  0.2325  0.2052
88880W        W31797  11.068   6.153   6.881  0.0960  0.1395  0.2005
88881W        W31798  12.228   4.482   6.160 -0.1020 -0.0314  0.1718
88882W        W31799  14.558   5.073   7.894  0.0821  0.1678 -0.0917
88883W        W31800  12.201   5.045   4.318  0.0924 -0.1556 -0.0589
88884W        W31801  12.979   4.978   4.416  0.1251  0.2251  0.1673
88885W        W31802  11.370   8.123   7.060  0.4554 -0.0647 -0.1885
88886W        W31803   9.801   5.943   5.384  0.1690 -0.0361 -0.4128
88887W        W31804  12.352   8.517   3.548  0.0461  0.0017  0.1890
88888W        W31805  12.641   4.801   4.099 -0.0449 -0.1155  0.0492
88889W        W31806  14.566   5.783   3.788  0.0380  0.1600 -0.1288
88890W        W31807  12.595   4.689   5.439  0.3322  0.0971  0.1424
88891W        W31808  11.972   6.492   8.249 -0.0512  0.0179  0.0193
88892W        W31809  12.155   5.448   7.394 -0.0310 -0.1770  0.0399
88893W        W31810  13.143   4.061   4.269 -0.0545 -0.0868  0.0099
88894W        W31811  14.272   7.740   6.399  0.2563  0.0703  0.1036
88895W        W31812   9.611   6.421   5.422 -0.0884  0.0069  0.0429
88896W        W31813  13.076   4.981   6.333 -0.3625 -0.2727  0.0775
88897W        W31814  11.414   7.952   5.456 -0.0625  0.0778 -0.0878
88898W        W31815  14.616   5.940   7.486  0.1853  0.2773  0.1986
88899W        W31816  13.249   7.335   4.051  0.3223 -0.4149  0.2363
88900W        W31817  14.350   5.282   5.558  0.0834  0.1673 -0.0950
88901W        W31818  13.018   3.512   4.679  0.1589 -0.3664 -0.0344
88902W        W31819  11.586   5.312   4.659 -0.0278 -0.0702  0.2574
88903W        W31820  12.881   4.905   5.113  0.2948 -0.1305 -0.0562
88904W        W31821  13.975   6.899   6.536  0.2669  0.0907  0.0650
88905W        W31822  15.021   6.088   3.662 -0.0191  0.1567 -0.3165
88906W        W31823  10.662   6.502   7.037  0.2461 -0.3077 -0.0197
88907W        W31824  12.980   5.109   7.740 -0.3298 -0.1665 -0.1489
88908W        W31825  11.215   5.217   6.810 -0.2079 -0.1608 -0.1644
88909W        W31826  12.071   8.112   4.375  0.0906  0.1172  0.0397
88910W        W31827  12.045   6.713   4.005 -0.0684  0.0854 -0.1234
88911W        W31828  10.323   5.290   5.093  0.4189  0.3993  0.0768
88912W        W31829  10.020   1.946   7.146  0.2062 -0.0044  0.4707
88913W        W31830  11.738   5.106   4.108  0.0670 -0.1710  0.1594
88914W        W31831  15.232   5.476   2.282  0.0844  0.1748 -0.1172
88915W        W31832  10.143   3.417   6.561 -0.1229  0.3696 -0.1148
88916W        W31833  13.235   3.640   5.769 -0.0993 -0.1031  0.1342
88917W        W31834  10.505   5.068   3.331  0.0846  0.0260 -0.0396
88918W        W31835  13.050   5.682   6.963 -0.0981  0.0415  0.2522
88919W        W31836  13.416   5.500   3.854  0.4242 -0.1853  0.1802
88920W        W31837  14.345   6.139   2.876 -0.0987  0.1209 -0.0836
88921W        W31838  12.213   2.708   5.281 -0.0725  0.0898  0.2797
88922W        W31839  11.486   6.096   4.950 -0.1459  0.2608  0.0175
88923W        W31840  12.709   3.140   6.803 -0.0544  0.2253 -0.1097
88924W        W31841   9.086   3.548   6.076 -0.0565 -0.2550 -0.5115
88925W        W31842  13.262   5.461   5.747  0.0453 -0.0487 -0.0585
88926W        W31843  11.836   4.193   6.157  0.0286 -0.2451 -0.0567
88927W        W31844  13.073   4.514   5.569  0.0732 -0.1724  0.1760
88928W        W31845  13.080   5.367   2.527  0.1648 -0.0652  0.1308
88929W        W31846   7.952   5.388   3.477 -0.3135 -0.0723 -0.0295
88930W        W31847  14.311   3.532   7.486  0.2287  0.0235 -0.0387
88931W        W31848  12.712   5.371   5.230  0.0313 -0.0991  0.1872
88932W        W31849  15.702   6.906   7.188  0.1109 -0.3566 -0.2598
88933W        W31850  15.520   6.593   6.808 -0.1030 -0.1789  0.0376
88934W        W31851  11.294   4.127   8.138 -0.1166 -0.0262 -0.2190
88935W        W31852  11.073   4.096   5.225  0.2284  0.0791  0.1902
88936W        W31853  12.458   6.759   6.494 -0.0234  0.0181 -0.0232
88937W        W31854  12.545   8.262   6.201  0.3867  0.3107  0.0757
88938W        W31855  10.992   4.629   4.603 -0.0345  0.2936 -0.0008
88939W        W31856  13.176   7.932   5.387  0.2792 -0.0018  0.0994
88940W        W31857  12.548   5.358   3.960  0.2622 -0.0271  0.1303
88941W        W31858  12.273   5.602   6.665 -0.1458 -0.1730 -0.2171
88942W        W31859  12.231   3.862   6.221  0.0595  0.0468  0.0557
88943W        W31860  13.280   6.748   5.799 -0.4699  0.1107 -0.0448
88944W        W31861  13.483   6.088   4.981  0.0920  0.0756  0.0458
88945W        W31862  12.246   4.128   3.693 -0.3764 -0.4277 -0.1480
88946W        W31863  12.299   7.456   5.183  0.1466  0.0641  0.0482
88947W        W31864  11.727   6.643   5.271 -0.2044  0.1382  0.1772
88948W        W31865  10.996   6.197   3.693 -0.1693  0.1035 -0.2894
88949W        W31866  12.191   8.619   3.057 -0.1154 -0.0178  0.2926
88950W        W31867  12.253   3.946   4.307 -0.0884  0.1374 -0.0865
88951W        W31868  10.269   5.367   6.201 -0.0589 -0.2038  0.4360
88952W        W31869  12.819   4.854   6.931 -0.0306  0.1331 -0.2149
88953W        W31870  13.054   4.538   4.126 -0.1607  0.3264  0.2219
88954W        W31871  12.079   6.337   5.990 -0.3461  0.0965 -0.0287
88955W        W31872  13.106   3.937   6.143  0.1452  0.1793 -0.1990
88956W        W31873  14.980   5.932   3.155 -0.0407 -0.0699 -0.1592
88957W        W31874  13.213   7.547   6.559 -0.0265  0.1095  0.0926
88958W        W31875  14.195   7.080   5.529  0.0071 -0.0092 -0.1494
88959W        W31876  13.447   2.446   2.825  0.0600  0.4624 -0.1516
88960W        W31877  13.148   4.175   3.727  0.4873  0.1330 -0.0922
88961W        W31878  11.562   5.790   9.101  0.1899 -0.0942  0.0832
88962W        W31879  12.078   5.349   5.808  0.0682 -0.0033 -0.0748
88963W        W31880  13.552   6.414   4.665  0.0787  0.0726 -0.0661
88964W        W31881  15.849   9.531   4.149  0.1335  0.1321  0.2414
88965W        W31882  11.386   8.714   4.741 -0.0339  0.1929 -0.3730
88966W        W31883  12.235   6.911   7.920 -0.1071  0.2041  0.1011
88967W        W31884  13.790   7.255   5.683 -0.1481  0.1321  0.2205
88968W        W31885  13.351   2.448   6.531 -0.0402  0.1020  0.1545
88969W        W31886  11.584   6.296   3.488  0.1824  0.3184  0.1154
88970W        W31887  12.143   4.416   4.813 -0.1666  0.0083 -0.0076
88971W        W31888   8.881   6.512   4.736 -0.0656 -0.1388 -0.0906
88972W        W31889  12.549   5.741   7.333  0.1199  0.1912  0.2437
88973W        W31890  13.437   4.792   5.206 -0.3202 -0.0037  0.0614
88974W        W31891  12.310   4.821   7.171 -0.0186 -0.0333 -0.0624
88975W        W31892  15.580   6.110   7.137 -0.1793  0.0164  0.3460
88976W        W31893  14.269   7.109   4.975  0.1509 -0.0835  0.0859
88977W        W31894  12.688   4.494   5.887 -0.1515 -0.0345  0.2509
88978W        W31895  11.876   6.211   3.934 -0.1255  0.1130 -0.2469
88979W        W31896  12.125   5.190   6.933  0.0112  0.0365 -0.2229
88980W        W31897  12.942   5.427   6.142 -0.2413  0.5395  0.0655
88981W        W31898  12.111   6.490   6.745 -0.0123  0.1027  0.0722
88982W        W31899  11.653   7.069   7.414 -0.0452  0.1510 -0.0347
88983W        W31900  13.682   7.230   7.058 -0.2308 -0.1464 -0.2696
88984W        W31901  13.715   4.296   8.584  0.1862 -0.5279 -0.1417
88985W        W31902  12.043   5.132   3.753  0.3834 -0.1284  0.0581
88986W        W31903  12.409   6.801   4.448  0.1067 -0.1355  0.0280
88987W        W31904  13.163   6.989   5.367  0.1680  0.1605 -0.1562
88988W        W31905  11.760   4.522   5.745 -0.1358  0.0065  0.0149
88989W        W31906  12.359   7.160   4.804 -0.2133  0.0151 -0.1168
88990W        W31907  12.866   6.122   2.906 -0.0188 -0.0820  0.0563
88991W        W31908  12.856   5.860   6.495 -0.0046 -0.0468  0.3141
88992W        W31909  11.941   7.588   4.720  0.0589  0.2718 -0.2320
88993W        W31910  13.270   3.250   7.947  0.2489  0.1093  0.1375
88994W        W31911  11.314   7.749   6.727 -0.1049  0.1686 -0.0275
88995W        W31912  11.053   5.203   3.017 -0.2763  0.0508 -0.0402
88996W        W31913  11.117   5.291   3.975 -0.2009 -0.1697  0.2193
88997W        W31914  11.780   3.722   5.969  0.0533  0.1725  0.2100
88998W        W31915  13.821   5.835   4.664  0.3190  0.0664  0.0958
88999W        W31916  10.061   4.530   5.460  0.1446  0.0914 -0.0909
89000W        W31917  12.262   3.534   5.817 -0.1475  0.2364 -0.2328
89001W        W31918  10.772   4.363   7.522 -0.0497  0.2945  0.0254
89002W        W31919  12.472   5.588   6.182  0.2408  0.1784  0.0800
89003W        W31920  14.228   3.743   3.287  0.1015 -0.2842  0.0074
89004W        W31921  13.328   7.244   5.754  0.2382  0.0396 -0.1150
89005W        W31922  12.175   6.355   7.752 -0.0704  0.0626  0.2213
89006W        W31923  10.943   4.536   7.043 -0.0878 -0.2506 -0.1243
89007W        W31924  14.573   6.356   3.675 -0.1085  0.0868  0.0853
89008W        W31925  10.543   5.825   3.359  0.2736 -0.0892  0.1163
89009W        W31926  11.625   7.105   5.512  0.1502  0.0049  0.0778
89010W        W31927  14.412   6.432   5.493  0.3896 -0.1866 -0.4560
89011W        W31928  13.315   4.703   3.721  0.1546  0.1731 -0.0861
89012W        W31929  12.619   6.059   6.049  0.1864  0.2260 -0.0930
89013W        W31930  10.991   3.668   5.482 -0.0481  0.1523  0.1633
89014W        W31931  12.671   5.961   7.817  0.0192 -0.0947 -0.2592
89015W        W31932  11.844   4.793   6.960 -0.0100  0.1459  0.0944
89016W        W31933  12.897   6.141   5.085  0.1402  0.0477  0.0251
89017W        W31934  12.097   7.077   5.873 -0.2053 -0.1163 -0.1783
89018W        W31935  13.600   5.294   6.983  0.1269  0.0360 -0.2321
89019W        W31936  10.921   5.630   6.753 -0.4161  0.3025 -0.1550
89020W        W31937  11.424   6.957   7.919  0.3244 -0.2295  0.1764
89021W        W31938  10.556   4.398   5.253  0.3980  0.3906  0.4612
89022W        W31939  15.539   8.785   5.659  0.0926 -0.1216  0.0391
89023W        W31940  12.602   5.069   6.002 -0.3945  0.1101 -0.0509
89024W        W31941  12.239   6.038   4.893 -0.2310 -0.0610  0.2164
89025W        W31942  11.638   5.202   7.146  0.4359  0.1787 -0.1218
89026W        W31943  11.935   7.015   4.655  0.3024  0.1706  0.0063
89027W        W31944  14.736   4.982   5.725  0.1303  0.1074  0.3542
89028W        W31945  10.490   5.789   6.383 -0.0442 -0.1666  0.0847
89029W        W31946  11.789   5.848   2.461  0.2719 -0.0995  0.0495
89030W        W31947  12.328   7.010   6.890 -0.0148  0.1474  0.1219
89031W        W31948  14.212   5.373   4.560 -0.0686  0.0270  0.2427
89032W        W31949  13.726   6.068   6.471  0.1413 -0.0056  0.0674
89033W        W31950  13.310   5.350   5.275  0.0540 -0.2757 -0.0473
89034W        W31951  15.110   1.854   8.107 -0.0926  0.0360  0.1865
89035W        W31952  10.841   4.386   6.201  0.1254 -0.0140  0.1743
89036W        W31953  14.330   4.110   9.419 -0.1744  0.0323 -0.0482
89037W        W31954  11.145   3.237   4.584 -0.1317  0.1059  0.0222
89038W        W31955  13.292   7.415   4.585 -0.0356 -0.1822 -0.1165
89039W        W31956  12.276   5.194   8.202  0.1081 -0.1147 -0.2525
89040W        W31957  14.618   6.716   8.041 -0.0033  0.1897 -0.2483
89041W        W31958  10.800   5.577   7.711  0.1637 -0.2452 -0.0116
89042W        W31959  12.721   3.600   6.045 -0.0790 -0.0270 -0.1825
89043W        W31960  13.232   5.258   3.357  0.1041  0.1861 -0.4295
89044W        W31961  12.668   7.344   7.137 -0.3676 -0.1130 -0.1120
89045W        W31962  13.709   5.796   5.346  0.0736  0.0968  0.0267
89046W        W31963  13.090   6.157   4.609  0.3306  0.0795 -0.1254
89047W        W31964  14.578   5.015   3.163  0.1513 -0.0020 -0.0746
89048W        W31965  12.171   4.315   7.091 -0.0803 -0.0891 -0.1845
89049W        W31966  12.742   6.379   6.526 -0.0285  0.0927  0.0314
89050W        W31967  12.778   7.068   5.823  0.1384 -0.0842 -0.1707
89051W        W31968  11.099   6.518   5.045  0.0671  0.0998 -0.0019
89052W        W31969   9.644   2.814   7.388  0.0453  0.1383 -0.1672
89053W        W31970  14.062   6.648   5.242 -0.1577  0.0947  0.0830
89054W        W31971  13.440   5.900   4.228 -0.1180  0.1689  0.2612
89055W        W31972  13.558   4.936   4.746 -0.4405  0.0205  0.0918
89056W        W31973  13.214   6.214   6.435  0.3399 -0.0461  0.0702
89057W        W31974  11.206   5.259   7.369 -0.0125 -0.0073 -0.0617
89058W        W31975   9.000   3.085   6.556 -0.0627  0.1469  0.1687
89059W        W31976  12.909   8.765   8.134  0.1297 -0.0603 -0.1495
89060W        W31977  13.983   4.564   3.325  0.0230  0.1185 -0.0767
89061W        W31978  13.800   5.410   5.752  0.2464  0.1744 -0.1131
89062W        W31979  13.790   5.797   3.700  0.0627  0.0142  0.0603
89063W        W31980  15.591   5.764   2.129 -0.0807 -0.0601  0.0653
89064W        W31981  11.289   4.825   5.570  0.3879 -0.0250  0.1107
89065W        W31982  13.818   5.129   7.425 -0.2571 -0.1300  0.0069
89066W        W31983  11.529   3.769   3.734 -0.0721  0.0940  0.1818
89067W        W31984  13.097   3.508   8.785  0.1414 -0.0053 -0.0297
89068W        W31985  14.135   8.868   3.973  0.0173  0.0660 -0.2509
89069W        W31986  13.813   6.906   4.790  0.0286 -0.1719  0.0038
89070W        W31987  11.029   3.362   6.133 -0.0156  0.0064 -0.0427
89071W        W31988   8.295   5.854   5.509 -0.0732  0.3400  0.2961
89072W        W31989  10.936   7.779   6.261 -0.0599  0.1947 -0.0884
89073W        W31990  11.959   2.630   4.147  0.0211 -0.2207  0.1514
89074W        W31991  11.408   4.443   4.352 -0.0080  0.5096 -0.0388
89075W        W31992  12.997   6.069   7.339  0.3945 -0.1723 -0.1199
89076W        W31993  13.028   6.632   7.479  0.0166  0.1986 -0.0402
89077W        W31994  13.920   3.691   2.893 -0.0105 -0.1391  0.0211
89078W        W31995  12.623   5.230   7.264 -0.0656 -0.0994 -0.2303
89079W        W31996  12.228   6.766   5.551  0.2584 -0.1698 -0.1284
89080W        W31997  12.398   3.973   4.825 -0.1516  0.0324  0.0388
89081W        W31998  11.446   6.882   6.542  0.0066  0.1582  0.0311
89082W        W31999   9.473   5.592   5.220  0.1491  0.1884  0.1913
89083W        W32000  12.063   7.281   4.213  0.0123  0.1167 -0.1019
89084W        W32001  13.711   5.388   4.896  0.0099  0.1859 -0.0103
89085W        W32002  15.725   8.281   4.463 -0.1523  0.0489  0.1699
89086W        W32003  11.135   5.093   4.841 -0.1061  0.1480  0.2898
89087W        W32004  13.479   5.202   6.121  0.0376  0.0274 -0.2076
89088W        W32005  13.884   6.394   8.075  0.1525 -0.1820 -0.2445
89089W        W32006  12.286   7.349   6.333 -0.1248 -0.2323  0.1815
89090W        W32007  12.606   6.060   6.889 -0.0867 -0.0210 -0.1183
89091W        W32008  15.305   7.249   4.427  0.0848 -0.3915  0.2317
89092W        W32009  11.983   5.513   6.282  0.0762 -0.3555  0.2484
89093W        W32010  10.908   4.917   8.382 -0.0682 -0.1131  0.0991
89094W        W32011  14.948   5.553   8.222 -0.1359 -0.1294 -0.1433
89095W        W32012  12.775   8.605   2.300 -0.0785 -0.0282  0.1032
89096W        W32013  12.716   4.695   6.358  0.3872 -0.2452 -0.2639
89097W        W32014  12.035   7.377   2.938  0.1433  0.1463  0.0684
89098W        W32015  10.685   6.637   6.171  0.0181 -0.0221 -0.2299
89099W        W32016  11.610   5.142   6.094 -0.0360 -0.0478  0.0779
89100W        W32017  10.870   5.972   5.382 -0.0840  0.1483 -0.3815
89101W        W32018  12.450   6.302   5.499  0.1819 -0.0933 -0.0451
89102W        W32019  10.815   6.830   4.429  0.1391 -0.2038 -0.4806
89103W        W32020  12.943   4.975   5.657  0.1836 -0.1049 -0.0615
89104W        W32021  11.746   4.100   4.460  0.1312  0.2346  0.2919
89105W        W32022  11.791   5.719   4.881  0.0823  0.1277 -0.4304
89106W        W32023   9.666   7.613   4.093 -0.0658  0.1281 -0.3317
89107W        W32024  13.531   5.548   2.634 -0.0487 -0.1274  0.1812
89108W        W32025  11.258   7.376   6.332 -0.0877  0.0326 -0.0880
89109W        W32026  14.328   5.754   7.068  0.5142 -0.2819 -0.1460
89110W        W32027  14.686   4.641   4.773 -0.0070 -0.1651  0.0768
89111W        W32028  15.820   7.227   6.353 -0.1953 -0.0159 -0.0283
89112W        W32029  14.459   3.771   2.756 -0.0586  0.1269  0.4400
89113W        W32030  12.600   6.346   4.661 -0.2120 -0.1617  0.0522
89114W        W32031  12.336   5.801   3.800 -0.0212  0.1733 -0.0265
89115W        W32032  11.704   4.308   3.571 -0.3468 -0.1024  0.0584
89116W        W32033  13.006   5.608   7.519 -0.1552  0.1058  0.2969
89117W        W32034  13.079   4.226   7.497  0.0241  0.1336  0.2650
89118W        W32035  10.285   6.940   5.011  0.2799 -0.3308  0.3422
89119W        W32036  15.625   8.923   6.249  0.2379 -0.0846 -0.0407
89120W        W32037   9.787   5.222   4.625 -0.0815  0.2184 -0.0778
89121W        W32038  12.250   5.467   4.953 -0.0227  0.1191 -0.2264
89122W        W32039  13.950   3.088   6.241  0.0680 -0.0473 -0.0463
89123W        W32040  13.682   6.291   3.849  0.1684  0.1601  0.2000
89124W        W32041  13.758   5.120   6.521 -0.1967  0.1755  0.1016
89125W        W32042  11.737   7.914   5.036 -0.1473  0.0431 -0.0632
89126W        W32043  11.752   5.986   4.390 -0.4796 -0.0123 -0.0496
89127W        W32044  11.690   8.708   5.187  0.1018  0.0483 -0.2504
89128W        W32045  12.018   3.454   6.358  0.0719  0.1518 -0.2519
89129W        W32046  15.679   6.111   8.165  0.0676  0.2178 -0.1972
89130W        W32047  11.768   4.685   6.314  0.0567  0.0382  0.2198
89131W        W32048  14.224   4.842   8.560 -0.1535 -0.0484  0.4552
89132W        W32049  10.317   4.253   6.216  0.0196 -0.1927  0.2811
89133W        W32050  13.917   6.609   5.762 -0.2607 -0.1473 -0.0113
89134W        W32051  13.426   4.903   5.716 -0.0027  0.1608  0.1844
89135W        W32052  11.137   5.268   5.374  0.0323 -0.1571  0.2417
89136W        W32053  12.948   4.839   3.427 -0.0468 -0.0122  0.0768
89137W        W32054  14.020   6.146   5.680 -0.1991  0.2487 -0.0795
89138W        W32055  14.434   6.847   3.587 -0.0674 -0.3552 -0.0546
89139W        W32056  15.009   7.735   6.650  0.0417 -0.1947  0.1392
89140W        W32057  12.214   3.386   4.627  0.0713  0.4828 -0.0511
89141W        W32058  13.895   4.970   4.329 -0.0594 -0.2771  0.2507
89142W        W32059  12.586   5.320   4.595  0.0971  0.1295  0.0075
89143W        W32060  12.230   7.378   8.052 -0.0107 -0.1826 -0.1397
89144W        W32061  13.518   8.673   7.923  0.0026  0.3308 -0.0207
89145W        W32062  10.489   2.252   5.714  0.3821 -0.2098  0.0258
89146W        W32063  15.022   8.941   4.630  0.2084  0.0759  0.0015
89147W        W32064  14.148   6.003   5.120 -0.0971  0.0184 -0.2893
89148W        W32065  12.400   8.117   3.906  0.2062 -0.0035 -0.1145
89149W        W32066  14.166   5.509   5.113 -0.0543  0.0418  0.1918
89150W        W32067  13.281   8.275   5.037  0.1640 -0.1182  0.0176
89151W        W32068  10.879   6.086   4.894 -0.1900 -0.2011 -0.2050
89152W        W32069  12.681   8.296   6.825  0.2219 -0.2280  0.0199
89153W        W32070  15.551   6.841   4.962  0.1816  0.0006  0.1687
89154W        W32071  12.695   3.767   4.443 -0.0240 -0.2272 -0.3235
89155W        W32072  11.325   5.745   5.445  0.0871 -0.2097 -0.0192
89156W        W32073  12.066   6.615   4.883  0.0920  0.2448  0.1865
89157W        W32074  15.377   6.492   5.874  0.2553  0.0797 -0.1435
89158W        W32075  13.938   5.623   6.752 -0.1579  0.0116  0.1457
89159W        W32076  12.701   6.016   3.435 -0.0449  0.1939 -0.1936
89160W        W32077  13.464   3.646   8.186  0.2735  0.0957 -0.1550
89161W        W32078  11.645   5.640   7.326  0.0756  0.1213  0.1652
89162W        W32079  11.720   6.628   6.253 -0.1696 -0.0689  0.1637
89163W        W32080  10.275   7.095   3.096  0.3225  0.0716 -0.0753
89164W        W32081  12.558   6.637   7.169 -0.2155 -0.1912  0.1223
89165W        W32082  14.279   6.559   4.044 -0.1129 -0.0612 -0.1875
89166W        W32083  13.193   8.846   5.155  0.2309  0.1547  0.2959
89167W        W32084  13.264   5.902   5.497  0.1018  0.0611  0.3464
89168W        W32085  12.045   5.448   4.541 -0.2026  0.1339  0.1305
89169W        W32086  14.630   6.676   5.088  0.1244 -0.0703 -0.0201
89170W        W32087  11.160   5.656   4.973 -0.0532  0.1245  0.0957
89171W        W32088  13.929   4.085   4.684 -0.2137  0.1033  0.1158
89172W        W32089  13.507   5.403   4.386 -0.0962 -0.1925 -0.0591
89173W        W32090  12.652   7.146   8.027 -0.0437  0.4216 -0.1753
89174W        W32091  11.850   4.692   4.528 -0.5120 -0.0417 -0.1599
89175W        W32092  11.581   5.605   4.183  0.1333 -0.0366  0.4238
89176W        W32093  11.332   4.810   7.024  0.2884  0.1484  0.2668
89177W        W32094  12.596   5.477   7.774 -0.0506 -0.2171 -0.0336
89178W        W32095  11.804   4.791   7.486 -0.0425 -0.0880  0.1891
89179W        W32096  12.304   6.158   6.411  0.1909  0.1018 -0.0061
89180W        W32097  11.854   3.595   4.902 -0.1110 -0.0599  0.0486
89181W        W32098  13.069   6.725   4.451 -0.2354  0.2853  0.0029
89182W        W32099  12.516   1.869   6.764 -0.3458  0.2117  0.2377
89183W        W32100  10.544   4.965   6.180 -0.0375 -0.1954 -0.1986
89184W        W32101  13.665   6.152   3.385  0.2605  0.0515  0.0325
89185W        W32102  12.793   6.895   4.866  0.2071  0.0015  0.2197
89186W        W32103  13.036   5.278   4.853  0.0107 -0.0348 -0.0857
89187W        W32104  15.120   6.808   7.993 -0.0335  0.0807 -0.0902
89188W        W32105  10.783   5.093   4.355 -0.1157  0.1147  0.2666
89189W        W32106  12.945   5.009   8.731 -0.0686  0.0234  0.4209
89190W        W32107  12.280   4.967   7.721 -0.3194  0.1497  0.2126
89191W        W32108  11.245   3.588   3.293  0.3443 -0.3753  0.2162
89192W        W32109  12.684   5.788   4.801  0.1535 -0.0648 -0.2346
89193W        W32110  13.210   6.224   3.247 -0.1181  0.3112  0.2989
89194W        W32111  15.624   8.502   4.059  0.1961 -0.1473  0.0200
89195W        W32112  13.958   6.459   6.280  0.1725  0.2158  0.2588
89196W        W32113  11.561   7.060   6.049 -0.1658 -0.3752  0.1888
89197W        W32114   8.100   2.939   8.021 -0.0711  0.2195  0.2609
89198W        W32115  13.962   4.951   6.085  0.1889 -0.0824  0.0759
89199W        W32116  13.830   6.931   7.441 -0.1194  0.3056  0.2767
89200W        W32117  13.619   7.847   4.295 -0.1181 -0.2405  0.1075
89201W        W32118  14.199   5.683   5.834  0.0925  0.1299  0.1017
89202W        W32119  14.114   5.394   3.571 -0.1033 -0.1892  0.2178
89203W        W32120  11.847   1.559   4.707 -0.0469 -0.1041  0.1379
89204W        W32121  13.558   6.587   7.743 -0.4324 -0.1322 -0.2618
89205W        W32122  13.447   6.789   7.095  0.2088  0.3841  0.3272
89206W        W32123  13.155   3.882   6.713  0.2040 -0.2455 -0.0259
89207W        W32124  13.296   3.580   4.191 -0.1921 -0.2442 -0.0931
89208W        W32125  12.544   6.902   3.905 -0.2458 -0.1124 -0.0420
89209W        W32126  12.211   4.460   4.110 -0.1602  0.0703 -0.0080
89210W        W32127  15.093   4.011   2.948  0.0624 -0.3212 -0.2124
89211W        W32128  12.636   5.514   8.648  0.3421 -0.4251  0.0858
89212W        W32129  12.941   7.881   6.873  0.3716  0.1015 -0.0315
89213W        W32130  13.382   4.753   7.421  0.1336 -0.0434 -0.3027
89214W        W32131  11.866   3.883   6.992 -0.2787 -0.0367  0.1877
89215W        W32132  14.835   8.075   3.159  0.0286 -0.0792 -0.0043
89216W        W32133  13.550   6.320   6.062 -0.1523 -0.2851 -0.1697
89217W        W32134  13.630   7.597   8.732  0.2362  0.1280 -0.0797
89218W        W32135  13.121   6.403   5.520  0.3182 -0.0994 -0.1504
89219W        W32136  14.690   6.834   5.603  0.1335 -0.0304 -0.1760
89220W        W32137  11.260   3.063   7.632  0.0652  0.1050  0.0948
89221W        W32138  10.339   4.836   4.496  0.0137  0.3448  0.2955
89222W        W32139  13.158   4.424   6.075  0.0571  0.1548 -0.0660
89223W        W32140  12.963   4.003   4.754  0.2649  0.1784 -0.1579
89224W        W32141  10.833   2.977   6.714  0.3900 -0.3303  0.1168
89225W        W32142  12.575   4.807   4.700 -0.3692 -0.0904  0.0092
89226W        W32143  12.143   8.522   6.059  0.2304 -0.1902  0.2430
89227W        W32144  13.405   5.665   6.473 -0.0848 -0.0050  0.1352
89228W        W32145  13.123   5.657  10.186  0.3446 -0.0420 -0.0833
89229W        W32146  12.781   5.308   8.204  0.0362 -0.0936  0.0819
89230W        W32147  13.879   3.914   7.385 -0.0627 -0.0821  0.0597
89231W        W32148  13.115   6.416   6.922 -0.0414 -0.3016 -0.1263
89232W        W32149   9.727   4.415   8.569  0.2697  0.0314  0.0169
89233W        W32150  14.605   5.508   8.802 -0.0599 -0.1829 -0.0606
89234W        W32151  14.077   8.548   9.468 -0.0075  0.1242 -0.0307
89235W        W32152  13.343   7.645   9.097 -0.0714  0.0883  0.0335
89236W        W32153  12.265   6.578   8.654  0.0517  0.1137 -0.0226
89237W        W32154  12.585   3.237   9.571 -0.0871  0.2600 -0.0411
89238W        W32155  10.974   5.385   8.642 -0.0213  0.2850 -0.2079
89239W        W32156  13.556   1.807   8.382  0.1071 -0.2497  0.0617
89240W        W32157  12.344   4.550   9.652 -0.2747 -0.1475  0.5219
89241W        W32158  10.371   5.075   7.950  0.0908 -0.1521  0.0383
89242W        W32159  13.050   6.153  10.305 -0.1400  0.1442 -0.1493
89243W        W32160  11.420   3.711   9.859  0.0700  0.1522  0.0219
89244W        W32161  12.147   9.355   9.306 -0.3139  0.3060  0.1390
89245W        W32162  14.178   2.950   9.372  0.1021 -0.0125  0.2212
89246W        W32163  13.467   7.610   7.849 -0.0296 -0.0631  0.0255
89247W        W32164  13.419   4.669   8.734 -0.1857 -0.2810 -0.0790
89248W        W32165   8.102   6.631   9.745 -0.0973 -0.2248 -0.0499
89249W        W32166  14.084   4.896   9.990  0.3260 -0.1452  0.1210
89250W        W32167  14.460   5.053   9.744 -0.0641 -0.1667 -0.0437
89251W        W32168  13.430   5.413   7.698  0.0136  0.3131 -0.1669
89252W        W32169  14.796   5.365   9.305  0.3268  0.0066 -0.1948
89253W        W32170  14.686   8.074   6.444  0.0003 -0.1587  0.1444
89254W        W32171   8.991   5.340   9.535 -0.2283  0.1727  0.2389
89255W        W32172  11.747   7.020   8.944  0.0666 -0.0068  0.1387
89256W        W32173  11.984   6.131   5.401  0.1641 -0.3241 -0.1324
89257W        W32174  14.093   4.454   8.171 -0.1456  0.0081  0.3358
89258W        W32175  13.347   6.399   9.319 -0.0331 -0.3009  0.1962
89259W        W32176  14.556   5.008  10.366  0.2450 -0.1393  0.0211
89260W        W32177  14.122   5.354   8.237  0.1235  0.1796  0.2588
89261W        W32178  14.374   7.198   6.455 -0.3188  0.2388  0.0606
89262W        W32179  11.969   5.986   8.104 -0.1768  0.2539 -0.0833
89263W        W32180   9.901   6.044   9.317  0.0003 -0.0747 -0.1192
89264W        W32181  11.615   7.331   6.720  0.1424  0.1503 -0.0123
89265W        W32182  13.814   4.416   9.077 -0.0897 -0.1992 -0.1938
89266W        W32183  12.836   3.421   7.920 -0.1423  0.4651  0.0092
89267W        W32184  13.303   4.556   9.247  0.2421  0.0306  0.2744
89268W        W32185  13.934   4.509   9.544 -0.0403 -0.1709 -0.1470
89269W        W32186  13.143   7.462   9.522  0.3511  0.3777 -0.2533
89270W        W32187  13.394   4.055  10.028 -0.1458  0.3265  0.0751
89271W        W32188  12.117   4.973   8.700 -0.0645 -0.3896  0.0229
89272W        W32189  11.329   6.851   9.115  0.1510 -0.2367  0.3026
89273W        W32190  13.002   8.182   8.512 -0.0979 -0.1420 -0.0591
89274W        W32191  12.322   8.300   7.201  0.0440 -0.0070 -0.0849
89275W        W32192  14.429   6.904   8.508  0.1836 -0.1398 -0.0090
89276W        W32193  14.698   5.513   5.937 -0.0514  0.1925 -0.2541
89277W        W32194  11.776   5.736   9.533  0.1216  0.2235 -0.1437
89278W        W32195  11.269   3.524   7.040 -0.0284  0.7182  0.0388
89279W        W32196  13.833   5.770   8.199  0.0581 -0.0643  0.2912
89280W        W32197  11.599   6.033   7.757 -0.2610  0.0432  0.4321
89281W        W32198  13.438   8.088   8.840  0.2295 -0.0837 -0.1079
89282W        W32199  14.479   6.371   6.483 -0.2568 -0.0856  0.0506
89283W        W32200  13.472   5.111   9.572 -0.2971 -0.2860  0.1953
89284W        W32201  13.048   3.813   9.749  0.1075 -0.1101 -0.2052
89285W        W32202  10.845   4.724   6.590 -0.0912  0.1994 -0.0056
89286W        W32203  12.362   5.722   8.271 -0.1852 -0.0400  0.1592
89287W        W32204  18.161  10.301   9.886 -0.3802  0.0094  0.2184
89288W        W32205  13.394   6.231   8.821 -0.1197 -0.0652  0.0415
89289W        W32206   8.422   6.554   8.666 -0.0253 -0.2467 -0.3179
89290W        W32207  11.754   7.264   8.159 -0.3492  0.0029 -0.1096
89291W        W32208   9.611   6.296   9.715  0.1748 -0.1345  0.0883
89292W        W32209  10.893   6.089   6.337 -0.0491 -0.0150 -0.0517
89293W        W32210  11.099   2.622  10.459  0.1062 -0.0586 -0.1015
89294W        W32211  12.850   6.544   9.461 -0.0267  0.2522 -0.1616
89295W        W32212  15.835   3.355   9.123  0.1153 -0.2748 -0.1098
89296W        W32213  13.846   2.582   9.117 -0.1035  0.0717 -0.0510
89297W        W32214  12.631   6.544   7.746  0.0789 -0.0481  0.2207
89298W        W32215  15.893   8.551   7.811 -0.1444  0.3379  0.1584
89299W        W32216  15.135   3.106   8.400 -0.3302  0.4563  0.0460
89300W        W32217  13.170   7.220   8.867 -0.0338 -0.2354  0.2128
89301W        W32218  12.789   4.626   9.290 -0.1080 -0.2165  0.3014
89302W        W32219  10.892   4.270   8.446  0.0651  0.4042 -0.0043
89303W        W32220  10.773   2.839  11.001 -0.2809 -0.0344 -0.1731
89304W        W32221  11.355   4.342   9.188 -0.0581  0.0192  0.0008
89305W        W32222  13.518   3.253   8.582  0.2489 -0.0272 -0.0201
89306W        W32223  12.433   5.009   9.438 -0.2365 -0.0062  0.0626
89307W        W32224  10.168   5.064   9.035  0.3433  0.3228 -0.0407
89308W        W32225  13.096   8.500   7.754  0.0116  0.0830  0.0790
89309W        W32226  13.237   9.621   9.593 -0.1046 -0.1527  0.0036
89310W        W32227  13.594   8.545   8.977 -0.0428 -0.3722  0.1448
89311W        W32228  11.638   1.741   8.981  0.0733 -0.4529 -0.1807
89312W        W32229  11.349   4.343   8.701  0.0706  0.0361 -0.2479
89313W        W32230  11.431   7.822   8.056 -0.2153  0.1016  0.0989
89314W        W32231  12.193   7.466   8.606 -0.1012 -0.0850 -0.1716
89315W        W32232  13.107   4.605   7.823 -0.0543 -0.0546  0.0028
89316W        W32233  14.097   5.692   8.632  0.3716 -0.3428  0.1165
89317W        W32234  14.107   5.970   7.603  0.1578  0.0673 -0.0775
89318W        W32235  12.358   1.939  10.425 -0.0993  0.0906  0.0567
89319W        W32236  14.807   5.546   7.125 -0.1678  0.0529  0.1558
89320W        W32237  12.518   4.705   8.668  0.2226 -0.1849  0.1906
89321W        W32238  13.355   6.702   9.724 -0.0030 -0.1050  0.2927
89322W        W32239  10.419   9.180   7.343 -0.1613  0.2601  0.2591
89323W        W32240  10.624   4.609   8.673 -0.2728  0.5152 -0.2171
89324W        W32241  11.603   7.686   6.319 -0.1308 -0.2388  0.0299
89325W        W32242  12.132   3.137   7.677  0.0112 -0.1584 -0.1967
89326W        W32243  11.595   5.037   8.554 -0.1315 -0.0379 -0.1398
89327W        W32244  12.480   3.668   8.765 -0.2672  0.1347 -0.0071
89328W        W32245  13.955   3.103   8.814  0.0025  0.0579  0.1081
89329W        W32246  14.732   6.023   7.978 -0.0228 -0.2710  0.0578
89330W        W32247  12.639   6.273   8.671  0.2285  0.0985  0.1989
89331W        W32248  14.826   2.424   6.732 -0.3033  0.2769  0.2595
89332W        W32249  13.864   6.144   8.563  0.1426  0.2013  0.1076
89333W        W32250  13.836   4.882   8.871  0.1607 -0.0669 -0.0208
89334W        W32251  12.079   4.293   8.701  0.2476  0.0509 -0.0860
89335W        W32252  16.094   6.847   7.632  0.4453  0.0394  0.1011
89336W        W32253  11.751   5.288   9.924  0.1458 -0.2006  0.1493
89337W        W32254  12.012   7.970   9.905  0.0393  0.1850 -0.0971
89338W        W32255  14.306   7.941   9.407 -0.0944 -0.2804  0.2662
89339W        W32256  13.579   5.340   8.233  0.0683  0.1357  0.3291
89340W        W32257  13.588   3.407   9.047  0.4301  0.0018 -0.3268
89341W        W32258  12.587   7.784   6.552 -0.1133 -0.0221 -0.1843
89342W        W32259  15.688   3.195   8.187  0.0700 -0.0415  0.2223
89343W        W32260  12.165   4.621   8.262  0.3302  0.0851  0.0975
89344W        W32261  13.573   4.230   7.685  0.1307  0.0375  0.0038
89345W        W32262  14.202   8.469   8.977 -0.0857 -0.0261 -0.1503
89346W        W32263  12.563   5.150   8.990 -0.2826 -0.2459  0.2044
89347W        W32264  13.618   3.667   9.561  0.1588 -0.1454 -0.0631
89348W        W32265  13.011   4.732  10.442 -0.0629  0.0800 -0.1732
89349W        W32266  13.784   4.656   7.686 -0.1035  0.1348  0.2594
89350W        W32267  14.201   3.184   8.407 -0.1337  0.0234  0.0816
89351W        W32268  11.203   8.144   8.556 -0.1237 -0.2573 -0.0023
89352W        W32269  12.981   7.552   7.608 -0.0798  0.1782  0.1142
89353W        W32270  13.072   5.441   9.038  0.0186  0.0287  0.2252
89354W        W32271  11.192   4.416   9.701 -0.0414 -0.2334  0.0462
89355W        W32272  11.922   7.397   7.688  0.1187  0.0661  0.0036
89356W        W32273  11.687   8.113   8.333  0.2118 -0.0959  0.1792
89357W        W32274  12.030   6.983   8.441 -0.0040 -0.1345  0.1442
89358W        W32275  16.535   5.769   9.534 -0.1806  0.1961 -0.1704
89359W        W32276  13.008   7.660   8.698  0.1696 -0.2164  0.0757
89360W        W32277  11.712   5.984   8.574  0.0153  0.0174  0.3400
89361W        W32278  11.123   5.817   8.768  0.0209  0.1966  0.2264
89362W        W32279  13.924   3.630   8.273  0.0318  0.0848  0.3813
89363W        W32280  13.608   4.290   6.631 -0.1110  0.0372 -0.0178
89364W        W32281  12.684   4.802   9.943 -0.2233 -0.0278 -0.1125
89365W        W32282  11.799   5.565   6.797  0.3502  0.0215  0.0818
89366W        W32283  11.944   6.781   9.696  0.0076  0.0167 -0.1215
89367W        W32284  14.019   3.637   8.726 -0.0505 -0.0084  0.2178
89368W        W32285  11.802   5.525   8.235 -0.3029  0.1343  0.1355
89369W        W32286  15.413   5.180   8.349  0.2157  0.0448  0.0355
89370W        W32287  13.012   4.167   9.361 -0.0994 -0.0429  0.1588
89371W        W32288  12.186   5.489   9.722  0.2033  0.1777 -0.2601
89372W        W32289   9.213   7.961   8.410 -0.0545 -0.1147  0.0183
89373W        W32290  11.495   6.088   7.258 -0.1710  0.2959 -0.0797
89374W        W32291  11.458   6.902   4.980  0.1868  0.1263  0.1767
89375W        W32292  13.835   7.119  10.144  0.2032 -0.2894  0.0136
89376W        W32293  11.814   3.100   9.371  0.1334  0.0328 -0.2650
89377W        W32294  10.737   5.420   8.223  0.3097  0.0573  0.2219
89378W        W32295  12.971   5.917   8.838 -0.1073 -0.0561 -0.1936
89379W        W32296  16.653   5.457   8.858  0.1700 -0.0573  0.4477
89380W        W32297  12.479   7.930   9.397  0.1689  0.0933 -0.1076
89381W        W32298  15.018   4.015   9.220 -0.3477 -0.1234  0.0191
89382W        W32299  12.762   7.052   7.566  0.1009 -0.1129  0.5160
89383W        W32300  12.385   6.533   9.830  0.1803 -0.3982  0.1321
89384W        W32301  10.369   5.852   9.510 -0.2107  0.2010 -0.2779
89385W        W32302  12.648   7.446   9.541 -0.0160 -0.0964 -0.0272
89386W        W32303  13.865   7.633   8.108  0.2165  0.1022 -0.1887
89387W        W32304  12.810   6.845   8.882  0.0192 -0.2379 -0.3038
89388W        W32305  10.713   5.290   5.864  0.2813  0.2791  0.4840
89389W        W32306  11.995   6.012  10.430 -0.0409  0.3405  0.0853
89390W        W32307  14.830   4.962   8.752 -0.1112 -0.1758  0.3327
89391W        W32308  14.647   4.675   8.239  0.1847  0.0875  0.4058
89392W        W32309  15.088   4.396   8.794  0.0102  0.0578 -0.3593
89393W        W32310  13.576   6.538   6.589  0.2906 -0.0614 -0.1896
89394W        W32311  11.801   3.057  10.700 -0.1151 -0.3271 -0.0192
89395W        W32312  15.383   8.149   9.839 -0.1614  0.3642 -0.3382
89396W        W32313  13.848   3.887   9.158 -0.1087 -0.1377  0.2136
89397W        W32314  12.546   1.115   8.013 -0.1262  0.2154  0.0757
89398W        W32315  14.265   6.165   8.032 -0.6232 -0.2707  0.2029
89399W        W32316  14.846   6.360   8.329 -0.1712 -0.0499  0.2501
89400W        W32317  14.995   4.505   7.913  0.1793  0.0213  0.3065
89401W        W32318  14.154   4.888   9.401 -0.0724 -0.1695  0.3192
89402W        W32319  13.215   5.008   8.309  0.2081  0.2185 -0.3368
89403W        W32320  13.512   3.786   8.663  0.0401 -0.1113  0.1989
89404W        W32321  13.712   8.151   9.784 -0.0032 -0.0893  0.1606
89405W        W32322  11.886   5.718  10.051 -0.0246 -0.2330  0.3236
89406W        W32323  13.773   6.055   9.581  0.0938 -0.0981  0.0193
89407W        W32324  12.973   2.099  10.335 -0.1001  0.1318 -0.0769
89408W        W32325  15.624   8.327   8.183 -0.1152  0.2627 -0.2947
89409W        W32326  14.310   4.684   6.979 -0.0585 -0.0151 -0.1776
89410W        W32327  14.636   4.520   8.675  0.1576  0.2187  0.3095
89411W        W32328  14.326   6.383   8.527 -0.1019 -0.5874  0.1118
89412W        W32329  13.956   2.851   7.318  0.1219  0.0222 -0.0948
89413W        W32330  17.885   8.046   9.757  0.0653  0.0560  0.0916
89414W        W32331  12.186   4.085   6.638 -0.1046  0.3312  0.0068
89415W        W32332  13.041   8.647   6.706  0.1080 -0.2302  0.0870
89416W        W32333  12.668   7.198   8.554 -0.1708  0.1967 -0.1469
89417W        W32334  12.984   6.678   8.013 -0.3427  0.3106 -0.0225
89418W        W32335  11.338   5.737  10.051  0.0232  0.1712  0.0486
89419W        W32336  11.883   5.376   7.785 -0.2044  0.0038 -0.0408
89420W        W32337  14.520   5.766   9.217  0.2101  0.0492  0.0743
89421W        W32338  15.165   4.794  10.612  0.0744  0.4458  0.0313
89422W        W32339  11.723   3.014   7.923  0.2107 -0.5085  0.1098
89423W        W32340  11.196   7.054   8.703 -0.1582 -0.0952  0.1042
89424W        W32341  13.021   4.587   8.333 -0.2713  0.0188  0.1637
89425W        W32342  12.279   7.161   9.799 -0.0356  0.2749 -0.1003
89426W        W32343   9.832   7.121   8.235 -0.0151 -0.0419  0.0288
89427W        W32344  12.740   3.286  10.625 -0.1462  0.2919 -0.1154
89428W        W32345  16.235   4.665   8.981 -0.0072  0.0801 -0.2806
89429W        W32346  11.519   6.246   8.204 -0.0157 -0.1298  0.1500
89430W        W32347  12.027   3.720   8.563  0.1242  0.0547  0.0506
89431W        W32348  15.120   4.571  12.368 -0.2601 -0.1894 -0.0619
89432W        W32349  13.129   7.018   8.396 -0.1238 -0.0486 -0.0713
89433W        W32350  14.930   6.381   7.705 -0.0048 -0.2075 -0.1464
89434W        W32351  11.250   4.942   8.855 -0.0752  0.0533  0.2168
89435W        W32352  12.778   7.938   7.348  0.1516 -0.1171  0.2846
89436W        W32353  12.449   4.273   9.141  0.1853  0.4069  0.4033
89437W        W32354  10.679   7.218   8.617 -0.2943  0.2581  0.1580
89438W        W32355  14.955   6.877   8.472 -0.3265  0.1037  0.0222
89439W        W32356  13.163   5.189   7.242 -0.0473  0.0868  0.0193
89440W        W32357  15.178   6.840   9.055  0.0922 -0.0446 -0.0508
89441W        W32358  12.082   5.536   8.759  0.2476  0.3453  0.1367
89442W        W32359  12.957   6.639  10.057 -0.1778  0.4170 -0.0586
89443W        W32360  12.941   8.012   6.363 -0.2383 -0.1452 -0.1040
89444W        W32361  13.482   5.261   8.705  0.2097 -0.4169 -0.1403
89445W        W32362  11.193   5.932   5.844  0.3014  0.0948  0.2564
89446W        W32363  13.875   2.055   8.947  0.2149  0.1544  0.0643
89447W        W32364  13.005   6.481   8.479  0.0708  0.0683 -0.0569
89448W        W32365  14.662   5.100   7.160 -0.1381 -0.0904 -0.0355
89449W        W32366  12.775   6.174   9.810  0.0769  0.1687  0.3185
89450W        W32367  12.577   4.193   8.523  0.1426  0.1926  0.3431
89451W        W32368  15.133   5.878   7.606  0.2595  0.0917  0.1326
89452W        W32369  10.418   3.644   8.140 -0.3242 -0.3926 -0.1592
89453W        W32370  13.334   4.995   9.105  0.0655 -0.4250  0.4590
89454W        W32371  16.500   4.367   9.354 -0.3330 -0.2228  0.1838
89455W        W32372  12.158   5.061   6.336  0.0831  0.4537  0.0834
89456W        W32373  15.203   4.258  10.027 -0.1560  0.0691 -0.0546
89457W        W32374  11.700   6.508   8.753 -0.2061 -0.3131 -0.1978
89458W        W32375  12.575   6.730   8.305 -0.3934 -0.3838  0.2131
89459W        W32376  12.480   6.258   8.128  0.0643  0.0950  0.0420
89460W        W32377  11.975   2.882   8.371 -0.0545 -0.1500 -0.0366
89461W        W32378  15.224   5.341   7.431 -0.3713 -0.0253 -0.0437
89462W        W32379  10.772   5.032   9.056 -0.0513 -0.1160  0.0559
89463W        W32380  11.445   5.345   9.500 -0.1974 -0.0533  0.3347
89464W        W32381  13.986   5.616  10.147 -0.2057 -0.0123  0.1414
89465W        W32382  12.815   9.086   8.776 -0.2140  0.0742 -0.0605
89466W        W32383  12.455   4.858  10.374 -0.3399 -0.2396  0.3568
89467W        W32384  12.887   5.925   9.319  0.0362 -0.4390  0.0112
89468W        W32385  13.600   5.749   8.709 -0.3890  0.0830 -0.1182
89469W        W32386  12.477   5.888   8.966  0.0353  0.4334 -0.0971
89470W        W32387  10.867   3.314   7.900  0.1434  0.0521 -0.1152
89471W        W32388   9.937   6.272   8.678 -0.1568 -0.2452  0.3332
89472W        W32389  13.490   4.472   8.124  0.1713  0.3130  0.0018
89473W        W32390  12.693   1.708   8.476  0.2926 -0.0156 -0.0667
89474W        W32391  15.569   7.487   8.776 -0.1110 -0.0701  0.1665
89475W        W32392  14.281   5.277   9.041 -0.0686 -0.1938  0.0926
89476W        W32393  10.747   7.508   8.206 -0.1195 -0.0567  0.2535
89477W        W32394  13.125   6.193   7.819 -0.1625  0.1149 -0.2075
89478W        W32395  14.649   7.973   8.545 -0.0775  0.1541 -0.2283
89479W        W32396  11.509   4.270  10.636 -0.3473 -0.2767 -0.1414
89480W        W32397  14.135   6.099  10.014  0.1404 -0.1639 -0.1584
89481W        W32398  12.511   8.861   9.648  0.1540 -0.2849  0.0077
89482W        W32399  12.247   3.274   9.041 -0.1046  0.0794  0.0624
89483W        W32400  14.629   4.901   9.236  0.0836 -0.2157  0.0671
89484W        W32401  11.354   7.468   7.652 -0.3836  0.1594  0.1833
89485W        W32402  15.118   4.764   8.388  0.0996 -0.1910 -0.1775
89486W        W32403  13.129   6.682   6.390  0.3904  0.0583 -0.2342
89487W        W32404  12.266   7.052   8.867  0.0327 -0.0777 -0.1206
89488W        W32405  12.637   5.181   6.533 -0.0554  0.0198  0.3565
89489W        W32406  13.421   7.816   7.325 -0.1678 -0.1178  0.0308
89490W        W32407  13.146   8.288   7.156  0.1218  0.2028  0.0682
89491W        W32408  13.749   8.128   7.241 -0.1380 -0.2631  0.0199
89492W        W32409  14.262   3.962   7.825  0.1468 -0.1895  0.0642
89493W        W32410  14.360   9.215  10.014  0.2936 -0.0916  0.1119
89494W        W32411  12.350   3.871  10.418  0.2534  0.1924 -0.4980
89495W        W32412  15.282   3.288   7.904 -0.1217  0.1636  0.0564
89496W        W32413  15.033   0.213  10.394 -0.3672  0.1711  0.1653
89497W        W32414  13.162   5.713   7.978 -0.2102 -0.1315  0.2016
89498W        W32415  11.095   6.063   9.320 -0.0665 -0.4165 -0.0352
89499W        W32416  11.992   6.603   7.276  0.0987 -0.0755 -0.0488
89500W        W32417  13.405   4.133   9.022  0.0482 -0.1289 -0.2281
89501W        W32418  14.422   4.529  10.076 -0.0806 -0.1299 -0.2661
89502W        W32419  12.064   4.013   8.050  0.0479  0.1144 -0.4342
89503W        W32420  15.873   6.508   8.421  0.2283  0.0746  0.0386
89504W        W32421  12.058   2.675  10.900 -0.3547  0.2313  0.0645
89505W        W32422   9.519   4.991   9.175 -0.0210  0.0653  0.1007
89506W        W32423  13.173   5.585   8.508  0.1471  0.0251 -0.1520
89507W        W32424  13.937   6.828   8.371  0.1562 -0.0724  0.1044
89508W        W32425  11.282   3.535   8.918  0.1527  0.1994 -0.1835
89509W        W32426   7.934   5.225   8.495 -0.0380 -0.0171  0.2477
89510W        W32427  11.292   5.229   8.261  0.1520  0.0481 -0.2719
89511W        W32428  13.138   2.898   9.883 -0.1262  0.2713  0.1188
89512W        W32429  13.160   7.151   6.237 -0.1032 -0.2833  0.3705
89513W        W32430  11.241   7.448   9.687  0.0582  0.0793 -0.1886
89514W        W32431  12.129   3.821   9.098  0.2266  0.0907  0.0038
89515W        W32432  14.071   4.921   7.980 -0.0854 -0.0986  0.2150
89516W        W32433  16.243   5.922   7.211 -0.0749 -0.0429 -0.2809
89517W        W32434  13.772   4.842   8.319 -0.1592 -0.0412  0.2470
89518W        W32435  14.766   4.047   7.546  0.3133  0.1016  0.0696
89519W        W32436  13.672   2.996   9.299  0.2101  0.0464  0.1770
89520W        W32437  11.046   4.943  10.453 -0.1367  0.2431  0.2439
89521W        W32438  14.948   4.957   9.649 -0.2643  0.0650 -0.0527
89522W        W32439  12.983   7.500   8.213 -0.2083 -0.1084  0.0484
89523W        W32440  12.967   6.370   8.994  0.1756 -0.3484  0.1762
89524W        W32441  11.858   4.958   8.102  0.1012 -0.1842 -0.0692
89525W        W32442  11.243   8.505   8.944 -0.1383  0.0863 -0.1057
89526W        W32443  15.274   5.422   9.235  0.1046  0.2314 -0.1305
89527W        W32444  13.575   5.929   7.730 -0.0846 -0.0212 -0.1780
89528W        W32445  12.772   8.393   9.530 -0.0663 -0.0856 -0.1966
89529W        W32446  14.181   6.733   8.914  0.3933 -0.0963  0.0306
89530W        W32447  13.989   5.708   9.155 -0.2006 -0.2729  0.0374
89531W        W32448  11.403   2.939  10.269  0.2738  0.2471 -0.0812
89532W        W32449  10.987   6.336   8.248 -0.1315  0.1450  0.1213
89533W        W32450  13.282   7.165   7.928 -0.1464  0.3213 -0.0196
89534W        W32451  12.964   4.480   8.827 -0.2899 -0.0040 -0.1030
89535W        W32452  13.571   5.560   9.697  0.1051 -0.1665 -0.0317
89536W        W32453  13.615   3.202   7.572  0.1275 -0.1503  0.2116
89537W        W32454  15.434   8.434   8.762 -0.0353  0.1461 -0.0403
89538W        W32455  15.009   3.795  10.252 -0.3045 -0.0746 -0.2773
89539W        W32456  12.152  11.480   2.995 -0.1484 -0.1331 -0.1375
89540W        W32457  13.638   8.245   2.267  0.1051  0.0987  0.1412
89541W        W32458  13.135  10.731   0.375 -0.0756  0.0549  0.0828
89542W        W32459  16.511   9.271   2.671 -0.1154 -0.0040 -0.1769
89543W        W32460  12.470   8.448  31.211  0.1464  0.0601  0.3935
89544W        W32461  13.231  11.597   0.520  0.0553  0.1966 -0.0420
89545W        W32462   8.876   5.751   3.451 -0.0190  0.0791 -0.1169
89546W        W32463  13.173  11.959   3.983 -0.4006  0.1996 -0.0224
89547W        W32464  15.154  12.414   2.767  0.1243  0.0475 -0.3942
89548W        W32465  13.465   7.527  30.980  0.0018 -0.1181 -0.0331
89549W        W32466  10.762   8.877   2.687 -0.2384 -0.1575  0.0483
89550W        W32467  13.429  12.819   4.933 -0.1482 -0.3660 -0.0536
89551W        W32468  12.039   8.254  31.664  0.0967 -0.0067 -0.0608
89552W        W32469  11.476   7.897  31.234  0.0742 -0.2405  0.0575
89553W        W32470  13.795   9.738   3.205  0.0589  0.0101 -0.1868
89554W        W32471  10.963   9.797   0.105 -0.0631 -0.0824  0.2337
89555W        W32472  11.634   8.382   2.508  0.1974 -0.0534  0.2377
89556W        W32473  12.638   8.617   1.305 -0.1784  0.2983  0.0273
89557W        W32474  12.708  10.673   0.665 -0.3699 -0.0678 -0.0023
89558W        W32475  12.793   8.520   1.818 -0.1107  0.3737  0.0213
89559W        W32476  13.115   8.739   2.765 -0.0144  0.3018 -0.0110
89560W        W32477  14.202   9.403  31.786 -0.0377  0.1724 -0.1521
89561W        W32478  11.518  10.937  31.655 -0.0109  0.0368 -0.2048
89562W        W32479  11.827   9.100   1.106  0.1692  0.0410  0.1389
89563W        W32480  10.818   8.005   1.907 -0.1477  0.0857 -0.0032
89564W        W32481  12.096   9.542   2.465  0.1243 -0.1009  0.2032
89565W        W32482  14.995  10.797   1.189  0.0227  0.1935 -0.1408
89566W        W32483  11.929  10.085   2.114 -0.1802  0.0572 -0.0122
89567W        W32484  13.295  10.326   1.296  0.3349  0.0363  0.0138
89568W        W32485  13.066   8.497   3.696  0.0144  0.0683  0.0235
89569W        W32486  11.431  12.529  31.602 -0.0297  0.0432 -0.0269
89570W        W32487  12.321  11.533   2.427 -0.0917  0.1961  0.1735
89571W        W32488  13.186  11.544  31.148 -0.0244  0.2827  0.2383
89572W        W32489  12.872   9.891   1.136 -0.0610 -0.3390  0.1576
89573W        W32490  13.201   9.026   3.197  0.1033 -0.0427 -0.1378
89574W        W32491  12.456  12.180   3.317 -0.1397 -0.0505 -0.1294
89575W        W32492  11.882  10.984  30.822  0.0090 -0.0931 -0.0288
89576W        W32493  11.907   7.584   2.019 -0.1186  0.2857  0.1504
89577W        W32494  11.029   9.475   2.229  0.0960 -0.2105  0.1218
89578W        W32495  12.342  10.178   4.077  0.0750  0.2550  0.1606
89579W        W32496  11.752   8.852   2.886 -0.0781  0.1348  0.1146
89580W        W32497  13.316  11.840  30.772 -0.0736 -0.1517  0.3439
89581W        W32498  12.303  11.129   3.329 -0.0037  0.1987 -0.0963
89582W        W32499  11.585   7.934   2.160  0.0309 -0.0213 -0.0444
89583W        W32500  12.098  11.177   3.963  0.3190  0.3880  0.2538
89584W        W32501  13.672   7.695   2.194  0.0090 -0.1162  0.1308
89585W        W32502  12.753  12.077   1.633 -0.0086 -0.2045  0.1163
89586W        W32503  13.418   8.644  30.186 -0.2877  0.1217  0.0462
89587W        W32504  12.432  10.001   1.376 -0.0106 -0.1991  0.0336
89588W        W32505  13.768   7.154   0.521  0.0282  0.1766  0.4194
89589W        W32506  11.114   7.638  30.934  0.1593  0.1880 -0.0285
89590W        W32507  10.882  11.174   2.941 -0.3113  0.0121 -0.2091
89591W        W32508  11.743  10.729   3.771  0.0804 -0.0408 -0.1209
89592W        W32509  10.835   8.734   1.457  0.0029 -0.0697 -0.1972
89593W        W32510  13.733   9.256  30.955 -0.0930 -0.1002  0.1270
89594W        W32511  12.969   9.219   3.621 -0.2127  0.2887 -0.0173
89595W        W32512  11.747   9.886   2.918  0.1321 -0.1140 -0.0541
89596W        W32513  13.162  10.869   1.040  0.3913  0.0819 -0.1043
89597W        W32514  13.609  10.349  31.700  0.2684 -0.0652  0.0663
89598W        W32515  12.986   9.270   2.694 -0.3134 -0.0624 -0.0778
89599W        W32516  13.544  11.512  30.437  0.0324 -0.0151  0.0307
89600W        W32517  12.735  10.397   2.076 -0.2795  0.0019 -0.2316
89601W        W32518  11.896   8.842   4.089 -0.0977 -0.2168 -0.1490
89602W        W32519  10.245   9.788   2.409 -0.0251  0.0358  0.2142
89603W        W32520  13.062   9.027   2.164 -0.0073  0.0420 -0.1068
89604W        W32521  16.155   8.729   0.790 -0.2465 -0.0233 -0.3361
89605W        W32522  10.832  11.238   5.214  0.0341  0.1217  0.1571
89606W        W32523  12.529   9.318   2.934 -0.0584  0.0367  0.0392
89607W        W32524   9.366  10.089   2.406 -0.3080 -0.2693  0.2432
89608W        W32525  14.090  10.023   2.238  0.1837  0.0111  0.2178
89609W        W32526  12.825  10.418   1.528 -0.1271 -0.1028 -0.2673
89610W        W32527  14.258   8.103   3.262 -0.0016  0.3340  0.0600
89611W        W32528  13.747   9.638   2.642 -0.1933 -0.0965  0.0379
89612W        W32529  14.500   9.504   0.523 -0.2741  0.0343  0.0183
89613W        W32530  12.307   8.627   2.143  0.2052  0.0721  0.1602
89614W        W32531  13.376  11.432   4.002 -0.2856  0.1786  0.0589
89615W        W32532  14.170   8.647   1.698 -0.0417 -0.1491  0.0395
89616W        W32533  10.835  10.689   3.470  0.1905 -0.2977  0.0359
89617W        W32534  12.462   7.580   3.441 -0.3529 -0.3395 -0.1767
89618W        W32535  12.586  11.105   3.783  0.3861  0.2701 -0.0727
89619W        W32536  12.550  12.261  30.008 -0.0015  0.0677 -0.2685
89620W        W32537  10.804  10.697   1.440  0.0365  0.2109 -0.3515
89621W        W32538  11.989  10.313   1.100 -0.1705 -0.1063  0.3017
89622W        W32539  10.158   7.537   2.948  0.0110 -0.0291  0.1265
89623W        W32540  10.470  10.438   1.729 -0.0247 -0.1652  0.0334
89624W        W32541  14.303   9.182   1.515  0.0539 -0.0007  0.1838
89625W        W32542  11.025   5.770   0.753 -0.0014 -0.4436  0.0619
89626W        W32543  15.182   9.376   1.641  0.1971  0.0836 -0.2712
89627W        W32544  12.715  11.543  31.959 -0.0611 -0.2303  0.4033
89628W        W32545  13.659  13.695   2.764  0.0598 -0.0101  0.4672
89629W        W32546  12.203   7.360   1.323 -0.0800 -0.1847 -0.0818
89630W        W32547  13.691  10.142   0.757 -0.0544 -0.0431  0.0153
89631W        W32548  10.954   6.927   1.456 -0.1402 -0.0265  0.1699
89632W        W32549  12.129   6.960   2.581  0.0499  0.0448  0.1241
89633W        W32550  10.961   8.357   5.455  0.1574  0.1134 -0.0222
89634W        W32551  11.434   6.371   2.144  0.3106  0.1549  0.2695
89635W        W32552  13.106  10.849   2.545  0.0390  0.2802  0.0113
89636W        W32553  12.398   7.521   0.239 -0.4276  0.1441  0.1570
89637W        W32554  13.291   8.866   1.631 -0.1750  0.0230 -0.0438
89638W        W32555  11.380  10.900   2.147  0.5823  0.2712 -0.0196
89639W        W32556  11.245  12.220   0.383 -0.0284 -0.3250 -0.1743
89640W        W32557  13.317   8.075   4.001 -0.1760  0.2082 -0.0365
89641W        W32558  12.954  12.607   1.793 -0.2184 -0.0860 -0.1216
89642W        W32559  14.648  10.478   1.032 -0.2036 -0.0744 -0.0340
89643W        W32560  15.693  10.133   0.715  0.3656 -0.1809  0.0652
89644W        W32561  11.912   7.799   2.540  0.3415  0.2375  0.1411
89645W        W32562  12.353   7.627   0.833  0.1814  0.2205 -0.2175
89646W        W32563  10.728  10.482  31.262 -0.0958  0.2710  0.0140
89647W        W32564  12.854  11.168   1.662 -0.1003 -0.0357  0.2421
89648W        W32565  12.147   9.108   3.184 -0.0412 -0.2015  0.0583
89649W        W32566  14.888  10.337   1.919 -0.3647 -0.0554  0.0600
89650W        W32567  14.548   8.424  31.389  0.0653 -0.0510  0.0892
89651W        W32568  10.632   9.244   3.582  0.0229  0.2372 -0.0378
89652W        W32569  12.368   8.044   3.393  0.1635 -0.2714  0.1878
89653W        W32570  13.791   9.542   1.599 -0.2396  0.0371  0.0224
89654W        W32571  13.423   8.502   3.225  0.0735  0.0953  0.0951
89655W        W32572  11.064   8.718   0.545 -0.0689  0.0429 -0.1638
89656W        W32573  13.632  10.575   2.757  0.0275  0.2412  0.0834
89657W        W32574  11.577  12.192   2.775 -0.1989  0.0249  0.1795
89658W        W32575   9.714  10.035   1.600 -0.0728  0.3546 -0.0748
89659W        W32576  11.456   9.435   1.966  0.0219 -0.0243 -0.0765
89660W        W32577  12.236   9.259   2.002 -0.2468  0.2552  0.0885
89661W        W32578  11.548  11.352   3.870 -0.1859 -0.1928  0.2996
89662W        W32579  12.640   9.766   4.318 -0.2255  0.0228  0.1887
89663W        W32580  11.348   9.813  31.665 -0.1481 -0.3138 -0.0436
89664W        W32581  12.725  10.768   2.955 -0.0990 -0.1770 -0.4329
89665W        W32582  14.770   7.999  31.581 -0.0395  0.3275 -0.2225
89666W        W32583  13.835   9.261   1.133  0.0158  0.1907 -0.2317
89667W        W32584  12.839  10.239   3.461  0.1216 -0.0914  0.2033
89668W        W32585  13.852  10.465   2.046  0.0887  0.0571  0.0433
89669W        W32586  13.182   9.002   0.750 -0.1829 -0.1424  0.4153
89670W        W32587  14.730   7.687  28.546 -0.0044  0.0541 -0.0876
89671W        W32588  10.711   9.924   2.330 -0.1685  0.2449 -0.1458
89672W        W32589  13.246   9.890   1.474  0.1687  0.1934  0.3016
89673W        W32590  12.050  11.080   2.388 -0.1432  0.1628 -0.0557
89674W        W32591  15.210  10.248   0.383  0.0424 -0.0293  0.1613
89675W        W32592  14.549   9.237  29.482 -0.3660  0.0505  0.2076
89676W        W32593   8.095   9.701   2.680  0.0704  0.2376  0.1807
89677W        W32594  13.976  12.365   3.608  0.1771 -0.1525  0.0498
89678W        W32595  13.392  12.367   1.863 -0.2105  0.1363  0.0655
89679W        W32596  13.682   8.872   3.415 -0.0539  0.0356  0.0977
89680W        W32597  10.555   9.561   2.041  0.1806 -0.0232  0.1553
89681W        W32598  13.080   8.110   2.157  0.1290  0.0333 -0.2048
89682W        W32599  11.715  11.492  30.979 -0.1703  0.1212  0.3704
89683W        W32600  12.098   7.197   3.728  0.1351 -0.1852  0.2955
89684W        W32601  12.111   9.068   2.601  0.2141 -0.0957  0.3350
89685W        W32602  11.480   6.639   3.887 -0.1655  0.0632  0.3639
89686W        W32603  14.472  10.848   3.419  0.0349 -0.0855 -0.1144
89687W        W32604  13.029   9.839   0.071 -0.2007  0.1316 -0.0344
89688W        W32605  11.564  10.142   2.524  0.3495 -0.1952  0.3028
89689W        W32606  11.299  10.196   0.077  0.0106 -0.1784  0.3214
89690W        W32607  11.610   9.661   2.387  0.2397  0.1545  0.0959
89691W        W32608  11.765   8.224   1.769 -0.1080 -0.1133  0.0036
89692W        W32609  13.110  12.190   5.386  0.1345 -0.0965  0.2351
89693W        W32610  14.201  10.058   3.393 -0.0093  0.1102  0.0616
89694W        W32611  12.443  10.590   3.333 -0.2319  0.1591  0.1209
89695W        W32612  10.017   6.769   3.475  0.0399 -0.1432 -0.1825
89696W        W32613  13.588   7.573   1.224 -0.2299  0.0644 -0.4730
89697W        W32614  14.681   9.560  31.554 -0.3031  0.2047  0.1281
89698W        W32615  11.155   9.384   0.540 -0.0995 -0.1462  0.0735
89699W        W32616  14.614   9.835   1.517 -0.0441  0.1071  0.1339
89700W        W32617  14.265   9.388  30.830  0.1793  0.0139  0.2431
89701W        W32618  12.253  11.333  31.246 -0.2884  0.1062  0.1602
89702W        W32619  12.099   9.727   4.402  0.2287  0.2358 -0.0207
89703W        W32620  11.883  10.974  31.354 -0.0128  0.0027  0.0861
89704W        W32621  14.089   7.622   3.079 -0.1153  0.0744 -0.0128
89705W        W32622  13.084  11.423   2.212  0.1013  0.2599 -0.4634
89706W        W32623  12.165   8.630   1.135 -0.1653  0.0510  0.2419
89707W        W32624  11.764   9.477   0.760 -0.0371  0.1319 -0.1822
89708W        W32625  12.392   6.810   1.851  0.2287 -0.1290 -0.2796
89709W        W32626  14.608   8.784  29.987  0.1119 -0.3963 -0.0895
89710W        W32627  10.801   8.983   2.198 -0.0159  0.1258  0.1238
89711W        W32628  13.799   8.310   0.243 -0.0458 -0.0680 -0.1486
89712W        W32629  11.536  11.757   1.859  0.1103 -0.1200 -0.1230
89713W        W32630  12.645  11.132   2.210  0.0116  0.3954 -0.4753
89714W        W32631  15.348   8.627  30.585  0.1822  0.3534 -0.0987
89715W        W32632  12.405  11.140   2.735 -0.3278 -0.0294  0.2066
89716W        W32633  12.275   7.655   3.915  0.1264  0.0259 -0.2713
89717W        W32634  11.728   8.038   0.738 -0.0796 -0.2822 -0.1513
89718W        W32635  13.341   9.568   2.292 -0.2708  0.1784 -0.0383
89719W        W32636  11.939   9.626   1.916 -0.0668 -0.1276  0.0811
89720W        W32637  12.458   8.049   0.576  0.2903 -0.4293 -0.0222
89721W        W32638  12.875  11.585   4.750  0.1327  0.0375 -0.0166
89722W        W32639  12.651  10.766   0.127  0.1165 -0.1377  0.2585
89723W        W32640  12.278  12.297  31.158 -0.4729 -0.0844  0.2394
89724W        W32641  11.128   7.256   3.858  0.0151 -0.0950  0.0567
89725W        W32642  11.629  10.769   1.189  0.1029  0.0100  0.0008
89726W        W32643  12.028   9.537   1.412 -0.0530 -0.0768 -0.3039
89727W        W32644  11.590   7.102   2.912  0.0925 -0.3349 -0.1979
89728W        W32645  13.376  11.257   1.781  0.3046 -0.2794 -0.1907
89729W        W32646  12.809  10.332  31.956  0.2687  0.0804 -0.3391
89730W        W32647  12.382   7.661   4.422  0.1003 -0.0425 -0.1204
89731W        W32648  12.415  11.621   3.955 -0.2189 -0.0954  0.0967
89732W        W32649  10.726   7.580   2.184  0.1180 -0.1898 -0.1340
89733W        W32650  14.480   9.738   1.036  0.1350  0.0798 -0.2175
89734W        W32651  13.823  10.422   4.127  0.1014  0.0994 -0.0813
89735W        W32652  11.073  10.770  31.923  0.2787  0.0944  0.1116
89736W        W32653  10.192   9.257   2.206  0.2136  0.0405  0.1370
89737W        W32654  13.631  10.047  31.341 -0.0568  0.1720  0.2245
89738W        W32655  12.428   9.461   3.490  0.1388 -0.2647 -0.2050
89739W        W32656  10.307  11.174   2.629 -0.0380 -0.0630 -0.1210
89740W        W32657  11.324   9.476   1.058 -0.2429  0.1863  0.1353
89741W        W32658  10.112   9.070   3.508 -0.2065 -0.0288 -0.0085
89742W        W32659  13.784   9.051   1.648  0.1701  0.1105 -0.3026
89743W        W32660  14.213   8.744  31.696 -0.0639  0.0869 -0.0346
89744W        W32661  14.137  10.460   1.045  0.1553  0.1096  0.0816
89745W        W32662  14.390   8.593   5.950  0.0907 -0.0191 -0.1319
89746W        W32663  14.638  10.043  31.605  0.0779  0.0924  0.1428
89747W        W32664  14.187   7.543   5.810 -0.0962  0.0553  0.1658
89748W        W32665  12.371   6.489   2.875 -0.1576  0.0073 -0.0522
89749W        W32666  12.411   9.737   2.109  0.2517 -0.3548  0.2500
89750W        W32667  11.135   8.718   2.386  0.0618  0.2149 -0.2194
89751W        W32668  13.176  10.571   4.576  0.0551  0.0330 -0.1929
89752W        W32669   9.276   9.586   2.357  0.1599  0.0702  0.1208
89753W        W32670  12.173   8.424   0.664 -0.1630 -0.0641  0.1507
89754W        W32671  12.819   7.782   0.282  0.0361  0.0125  0.0370
89755W        W32672  12.992  11.011   6.388 -0.2357  0.1606  0.1490
89756W        W32673  13.783  11.027   0.816  0.0720 -0.0600 -0.1039
89757W        W32674  11.581  10.261   1.434  0.2830 -0.0348 -0.3170
89758W        W32675  12.833   9.939   1.807  0.0137 -0.0623  0.1685
89759W        W32676  11.762  11.319   2.731  0.3704  0.3725 -0.0121
89760W        W32677  13.411   9.288   1.890  0.3489 -0.0615  0.0069
89761W        W32678  13.848  10.803  31.494  0.1014  0.2077 -0.1013
89762W        W32679  11.924  10.521   1.812  0.3265  0.0408  0.4071
89763W        W32680  12.376   5.366   1.950  0.0482 -0.0928 -0.0703
89764W        W32681  14.108   9.207   0.556 -0.0330 -0.4072  0.0578
89765W        W32682  13.190   9.448   1.109  0.0136  0.0457  0.3555
89766W        W32683  13.429   9.430   4.120  0.0434 -0.0529 -0.0245
89767W        W32684  13.459  10.548   3.651  0.0334  0.0404 -0.0604
89768W        W32685  13.011   7.859   4.902  0.3186 -0.1408  0.0096
89769W        W32686  10.211   8.261   2.727 -0.4509 -0.1640  0.3797
89770W        W32687  14.220  12.755   2.672  0.1735 -0.0082  0.0321
89771W        W32688  14.549   8.734   1.419  0.0070  0.2519 -0.1323
89772W        W32689  12.887  10.024   2.318 -0.2387 -0.1061 -0.1716
89773W        W32690  14.341   8.251  31.834  0.2637 -0.1292  0.0878
89774W        W32691  15.003  10.020  31.950  0.1257 -0.2127 -0.1371
89775W        W32692  11.764   7.092   1.257 -0.0168  0.1372  0.2007
89776W        W32693  12.154   8.492   5.018 -0.0607 -0.1428 -0.1388
89777W        W32694  12.240   8.063   1.139  0.0466  0.1642 -0.1988
89778W        W32695  11.704  10.337   0.306 -0.0031  0.0797  0.3134
89779W        W32696  14.062  11.155  31.287 -0.3006  0.1145 -0.0371
89780W        W32697  12.879  12.030   0.636 -0.2347 -0.0577  0.1546
89781W        W32698  14.346  10.799   0.801  0.4192 -0.4696  0.1512
89782W        W32699  10.756   8.196   2.762  0.0690 -0.1449 -0.0639
89783W        W32700   9.522   9.679   4.499 -0.0876  0.4521 -0.0372
89784W        W32701  14.285  11.610  31.588  0.1642  0.1626  0.0664
89785W        W32702  13.299  10.296   0.162  0.0537 -0.1999  0.0209
89786W        W32703  11.938  11.874   3.297 -0.0673  0.1962 -0.1664
89787W        W32704  13.311   9.894   3.393 -0.0883  0.1110 -0.3247
89788W        W32705  14.091   6.963  31.771 -0.4849  0.0927 -0.1510
89789W        W32706  14.084  10.680   4.783  0.1762  0.2158 -0.4992
89790W        W32707  11.644  11.911   0.563 -0.0711 -0.1493  0.2357
89791W        W32708  11.294   8.968   2.836 -0.0974  0.3102 -0.0919
89792W        W32709  12.021  11.571   0.862 -0.0670  0.1771 -0.2336
89793W        W32710   7.743   9.697   4.031  0.1273  0.0179 -0.1349
89794W        W32711  14.008   9.659   0.823  0.2016  0.1096  0.3925
89795W        W32712  12.672   7.299   2.551  0.2915  0.1653  0.0544
89796W        W32713  13.483   8.018   1.554 -0.1474  0.0645  0.2182
89797W        W32714  10.882  10.649   1.970  0.0441  0.0791 -0.1711
89798W        W32715  13.987  10.050   3.843 -0.1046 -0.1921  0.1036
89799W        W32716  14.617  11.544   4.019 -0.0352  0.1483  0.0465
89800W        W32717  10.912   8.486   1.963  0.4116  0.1190 -0.0695
89801W        W32718  13.789  11.883   3.400 -0.0567 -0.0313  0.0411
89802W        W32719  12.542   8.810   2.780 -0.1637  0.1080  0.0719
89803W        W32720  12.284  13.437   2.191 -0.1249  0.0653 -0.1900
89804W        W32721  11.805   9.325   4.205  0.1223  0.1564  0.1475
89805W        W32722  12.574  10.544   3.861 -0.1042 -0.0712  0.3432
89806W        W32723  12.731  10.767   1.241  0.2536 -0.0683  0.0665
89807W        W32724  12.875   8.773  31.177 -0.2490  0.1875  0.0145
89808W        W32725  12.984  10.719  31.701 -0.0588  0.0846  0.0725
89809W        W32726  12.362  12.666   3.245  0.1781 -0.1514  0.0403
89810W        W32727  11.939  10.722   3.322 -0.2059 -0.1112  0.0837
89811W        W32728  15.148  10.877  31.575 -0.1479 -0.0802  0.3604
89812W        W32729  13.323   9.953   0.984 -0.1302 -0.2269  0.2609
89813W        W32730  14.060  10.010  31.774  0.0900 -0.1996 -0.2410
89814W        W32731  13.703  11.488   2.114 -0.1067  0.1155  0.0494
89815W        W32732  14.779  10.329  31.103 -0.1458 -0.2147  0.0330
89816W        W32733  11.368   9.043   0.791  0.1564 -0.0062  0.3053
89817W        W32734  14.009  10.497  31.926 -0.1759  0.0767 -0.1043
89818W        W32735  15.111   8.994  31.933 -0.1410  0.2462 -0.1515
89819W        W32736  12.830  11.256   1.206 -0.1061  0.1548 -0.1529
89820W        W32737  14.662  12.413   2.522  0.1507 -0.0626 -0.2718
89821W        W32738  13.670   7.535  31.897 -0.0209  0.1687 -0.0195
89822W        W32739  13.524   8.874  30.585  0.2108 -0.1250 -0.0043
89823W        W32740  15.752   9.541  31.920  0.2098  0.3129 -0.2950
89824W        W32741  13.560  12.469   5.295 -0.1660 -0.1582  0.3239
89825W        W32742  12.930   7.369   1.662  0.1612 -0.3568 -0.0706
89826W        W32743  13.184   5.856  31.413  0.0974  0.1132 -0.2765
89827W        W32744  10.867   7.707   2.672  0.0331 -0.0345 -0.1174
89828W        W32745  12.851  10.285   4.880  0.1243 -0.3387 -0.0038
89829W        W32746  12.519  10.893   4.186 -0.1728 -0.1637 -0.1776
89830W        W32747  14.393  10.710  31.213  0.2114 -0.4636  0.0366
89831W        W32748  11.209   7.395   2.431 -0.0116 -0.1463 -0.0058
89832W        W32749  11.924   7.112   1.698  0.1121 -0.0599  0.1070
89833W        W32750  12.257   6.559   2.326  0.2581 -0.1123  0.0082
89834W        W32751  12.514  10.878  31.314 -0.0826  0.3816 -0.1062
89835W        W32752  14.589   8.785   3.724  0.1376 -0.0488  0.1002
89836W        W32753  12.465  10.784   1.907 -0.0391 -0.3454  0.3466
89837W        W32754  12.431  11.661   3.463  0.1213 -0.1620  0.0495
89838W        W32755  12.647  11.908   4.418 -0.1413  0.3249  0.1871
89839W        W32756  10.888   8.580  30.780  0.0622  0.1830 -0.0048
89840W        W32757  14.815   9.355   1.316 -0.0311  0.1590  0.3384
89841W        W32758  12.182   9.696   3.159  0.0930 -0.1107  0.0242
89842W        W32759  13.451   7.145   3.117 -0.1534  0.0027 -0.0073
89843W        W32760  13.788  12.036   2.166  0.0120 -0.1079  0.0168
89844W        W32761  14.042   9.248   2.799  0.3767 -0.1109  0.0825
89845W        W32762  11.926  10.565   5.501  0.0689 -0.2957  0.0279
89846W        W32763  11.219   8.450   2.841  0.1798 -0.0237  0.0243
89847W        W32764  14.864   8.320   1.361 -0.1522  0.2117  0.0330
89848W        W32765  12.542   8.037   1.940  0.0460  0.1735  0.0453
89849W        W32766  11.534   9.673  30.788  0.3004 -0.0625 -0.0513
89850W        W32767  11.517  10.363   2.929 -0.0515  0.0755 -0.2084
89851W        W32768  10.254   7.985   1.685  0.1439  0.0478  0.0057
89852W        W32769  14.297   8.749   0.867 -0.0540  0.0271 -0.2852
89853W        W32770  12.152  11.220   1.846 -0.1897  0.0005 -0.1988
89854W        W32771  11.416  10.812   3.376  0.2498  0.1213 -0.1166
89855W        W32772  12.096  11.992   1.222 -0.0439 -0.1002 -0.0217
89856W        W32773   9.686   8.265  31.606  0.2144 -0.2139  0.2888
89857W        W32774  16.022  13.092  30.429 -0.0465  0.0118 -0.0831
89858W        W32775  12.966   8.957   1.222  0.0796  0.2303 -0.0355
89859W        W32776  13.301  11.240  29.583 -0.1431  0.0340 -0.4831
89860W        W32777  13.046  10.357   2.685  0.3925 -0.2316  0.0400
89861W        W32778  13.726  12.326   2.711 -0.0241 -0.0845 -0.0006
89862W        W32779  11.301   9.105   1.427 -0.1235  0.0247  0.0715
89863W        W32780  13.163  11.045   3.782 -0.2724  0.0690 -0.1208
89864W        W32781  13.360  11.857   1.893 -0.1230 -0.2146 -0.2116
89865W        W32782  13.254   7.449  29.975  0.2677  0.0788  0.2381
89866W        W32783  12.771   8.933   3.980  0.0733  0.4091 -0.1750
89867W        W32784  12.180   9.817   0.916 -0.2921  0.0195  0.2489
89868W        W32785  14.237   7.571   1.132  0.1934 -0.0045  0.1173
89869W        W32786  13.232   7.408   2.322 -0.2505  0.4077  0.1382
89870W        W32787  12.743  10.128   0.463 -0.0020 -0.1929  0.0997
89871W        W32788  13.689   8.983   4.168 -0.0296  0.0861  0.0495
89872W        W32789  11.701  11.453   5.251  0.0699 -0.2323  0.2286
89873W        W32790  13.452   9.893   4.764  0.1746  0.1997  0.0717
89874W        W32791  10.606   9.398  31.869 -0.0961 -0.1098 -0.2426
89875W        W32792  11.779   8.709   1.975 -0.1740  0.2512 -0.0795
89876W        W32793  13.228  10.826   1.566 -0.3197  0.2029 -0.0281
89877W        W32794  11.722  11.378   2.085 -0.1720 -0.2260 -0.0470
89878W        W32795  14.877  12.668   0.627  0.0806 -0.3743  0.2496
89879W        W32796  13.880   8.166   1.850 -0.2356 -0.0012  0.1025
89880W        W32797  13.366   8.675   2.315  0.1337  0.0749 -0.0190
89881W        W32798  11.179  11.167   1.756 -0.3326  0.0709  0.0077
89882W        W32799  15.711   9.082   0.859 -0.2601 -0.2676 -0.0949
89883W        W32800  12.062   8.946   0.660  0.0262 -0.1172 -0.0501
89884W        W32801  10.154   9.433   4.374  0.0883  0.0069 -0.0010
89885W        W32802  11.690  10.833   0.263 -0.0961 -0.0105 -0.1741
89886W        W32803  13.265   9.614  31.034 -0.1065  0.1331 -0.1235
89887W        W32804  10.838  11.227   2.098  0.2960 -0.0603  0.3648
89888W        W32805  12.841   7.966   3.748 -0.0751  0.1479  0.0921
89889W        W32806  13.016   7.790   4.216  0.2038 -0.1329  0.0123
89890W        W32807   9.331   9.287   1.923 -0.3855 -0.2135  0.2375
89891W        W32808  10.236   6.569   0.420  0.1589 -0.2555 -0.2690
89892W        W32809  12.969   9.647   0.668  0.0517 -0.1506  0.1238
89893W        W32810  12.403   7.141   0.926 -0.2506 -0.0400  0.1366
89894W        W32811  10.951   6.367   1.497 -0.1925 -0.0488  0.3277
89895W        W32812  12.946   9.446   3.144  0.1815 -0.3572  0.1802
89896W        W32813  13.800  10.435   1.468 -0.1014  0.3498 -0.1909
89897W        W32814  12.823   7.874   3.260  0.3676  0.0315 -0.1786
89898W        W32815  14.802  10.873   4.205  0.2132  0.2167 -0.3109
89899W        W32816  10.977  10.480   0.870 -0.3412  0.1591  0.0578
89900W        W32817  12.876   8.338   4.168 -0.1553  0.2660 -0.1428
89901W        W32818  11.626   7.202   3.771  0.3120  0.1604 -0.1657
89902W        W32819  12.048   9.815   0.338  0.3110 -0.0687 -0.0423
89903W        W32820  12.342  10.187   0.101 -0.1707 -0.1023 -0.4232
89904W        W32821  12.556  10.258   0.961  0.1367  0.0998  0.0557
89905W        W32822  15.352  11.020   0.890  0.2413  0.6972  0.2093
89906W        W32823  11.607   9.682   3.333 -0.5320  0.1083 -0.0364
89907W        W32824  12.137  10.212   3.132 -0.1105 -0.1877  0.2566
89908W        W32825  11.316   7.956   2.791 -0.1400  0.1949 -0.0508
89909W        W32826  13.126  10.448   0.826  0.0058 -0.1923  0.0425
89910W        W32827  11.516  10.859   4.165  0.0001 -0.0465  0.0302
89911W        W32828  16.373   9.038  31.701  0.2935  0.2742 -0.0405
89912W        W32829  15.103   7.703   2.909  0.2223 -0.0327  0.2201
89913W        W32830  13.015  12.030   0.128 -0.0207 -0.2559 -0.1715
89914W        W32831  11.544   7.733   3.128 -0.3565  0.4848  0.2012
89915W        W32832  10.353  10.877   3.413 -0.1769 -0.0433 -0.1988
89916W        W32833  13.175  11.537   2.952 -0.0381 -0.2619 -0.0183
89917W        W32834  12.221   7.241   2.203 -0.2477 -0.0527  0.1484
89918W        W32835  14.268   8.503  30.974  0.3437 -0.3493  0.1846
89919W        W32836  12.624   9.674   0.321  0.1911  0.1703  0.1937
89920W        W32837  11.317   8.088   1.111  0.2215 -0.1315  0.2680
89921W        W32838  13.804   8.702   2.025  0.1132  0.3420  0.1347
89922W        W32839  12.602  10.715   2.514  0.0425 -0.0884  0.0091
89923W        W32840  13.047  10.850   2.052  0.2872 -0.0503  0.0326
89924W        W32841  14.082  11.096   3.349  0.0498 -0.0064 -0.0415
89925W        W32842  11.016   9.717   1.731 -0.0725 -0.0703  0.2079
89926W        W32843  13.982  10.963   0.274  0.0327  0.1279  0.3529
89927W        W32844  13.678  12.143   1.481  0.0241 -0.2230 -0.0174
89928W        W32845  13.145  11.087   4.387  0.0769  0.1313 -0.2153
89929W        W32846  12.915  11.572   4.219  0.0118  0.0703 -0.1648
89930W        W32847  12.301   9.107   1.247  0.0719 -0.0153  0.0862
89931W        W32848  12.638   6.855   2.456 -0.1710 -0.1507  0.4075
89932W        W32849  11.231   9.352   0.028  0.3919  0.1168  0.0987
89933W        W32850  12.865  12.020   1.155 -0.1112  0.1349  0.0703
89934W        W32851  13.380  10.112   3.880  0.2566  0.1239  0.0691
89935W        W32852  11.789   7.331   3.341 -0.0211  0.1721  0.2469
89936W        W32853  14.702   7.643  31.255 -0.0646 -0.0137 -0.1954
89937W        W32854  10.831  10.652   3.934  0.1052  0.2787 -0.3236
89938W        W32855  11.486  10.429   2.042 -0.0412  0.1988  0.1302
89939W        W32856  13.228   9.799   7.661 -0.0777  0.0445 -0.2209
89940W        W32857  11.079   9.668   5.739 -0.4556 -0.0291  0.0804
89941W        W32858  14.222  10.619   3.043  0.2223 -0.0305  0.3334
89942W        W32859  14.279  10.252   1.817 -0.1087 -0.0995  0.1150
89943W        W32860   9.426   5.122   5.116  0.2597  0.3161 -0.6261
89944W        W32861  14.139  12.055   4.904 -0.1886  0.2113  0.1189
89945W        W32862  12.082   9.019   6.123 -0.2411 -0.1131  0.1394
89946W        W32863  13.894   9.185   6.660 -0.0496  0.0788 -0.1431
89947W        W32864  15.465  10.223   5.706 -0.0118 -0.2371  0.1502
89948W        W32865  12.771  10.394   4.336  0.3416 -0.1419 -0.0710
89949W        W32866  10.420   7.580   5.979  0.0242  0.0662  0.0146
89950W        W32867  12.614   9.661   6.835  0.0156 -0.0237 -0.1444
89951W        W32868  10.750   6.451   5.362  0.1030  0.0087  0.1019
89952W        W32869  12.986   8.440   5.395  0.0080  0.0353  0.0566
89953W        W32870  14.282   9.781   7.397 -0.0880  0.1429 -0.3510
89954W        W32871  12.052  10.356   5.043  0.2247  0.0502 -0.0693
89955W        W32872  11.499   8.900   7.152 -0.1607  0.1928  0.1563
89956W        W32873  11.334   9.503   2.814 -0.1913  0.2102  0.0975
89957W        W32874  12.553  12.131   6.081  0.0681 -0.1090 -0.1156
89958W        W32875  13.159   7.741   6.031 -0.0698  0.3713  0.2215
89959W        W32876  13.399   6.046   8.347 -0.2807 -0.1600  0.0191
89960W        W32877  12.406  10.105   4.642  0.2099 -0.3258 -0.1013
89961W        W32878  11.146   9.462   3.387  0.2325 -0.0250  0.1417
89962W        W32879  10.411   8.165   5.351  0.0543  0.1449  0.1435
89963W        W32880  13.308   9.066   5.613  0.3041 -0.1055 -0.0695
89964W        W32881  12.369  10.292   7.439  0.2776 -0.4038  0.2166
89965W        W32882  11.197   9.924   3.058  0.3339  0.2837  0.0289
89966W        W32883  13.088  11.498   6.585  0.0155 -0.2603 -0.4866
89967W        W32884  12.184  11.156   5.989  0.2868 -0.1011  0.1704
89968W        W32885  12.941  10.362   7.391  0.0895  0.1461  0.1820
89969W        W32886  10.037  11.737   5.752  0.0689  0.4871  0.0754
89970W        W32887  13.716  11.379   5.896 -0.2018 -0.3617  0.1360
89971W        W32888  14.141   9.036   6.139  0.0825  0.0318 -0.0426
89972W        W32889  12.140  10.525   8.216  0.4580 -0.1372  0.2712
89973W        W32890  12.253   9.979   7.806  0.0250  0.0182  0.2743
89974W        W32891  11.194  11.348   3.467  0.2778  0.2396 -0.0861
89975W        W32892  11.575  12.962   7.469 -0.3752  0.0769  0.0045
89976W        W32893  14.155  10.204   8.230  0.2244 -0.0495  0.0748
89977W        W32894  10.744   9.093   6.594  0.1121 -0.2111 -0.1849
89978W        W32895  10.735  10.029   4.674 -0.3664  0.3416  0.2311
89979W        W32896  12.174  10.390   3.647 -0.1392 -0.3628  0.0802
89980W        W32897  11.244   9.552   5.232 -0.0282 -0.2188 -0.2926
89981W        W32898  13.420   9.871   6.236 -0.0926  0.0249  0.0080
89982W        W32899  10.646  10.031   8.067 -0.3318  0.1208  0.1583
89983W        W32900  15.897   6.436   7.393 -0.0230  0.1476  0.0038
89984W        W32901   9.811  10.726   5.629  0.0676  0.3601  0.1424
89985W        W32902  13.273   9.228   4.753  0.0040  0.1836 -0.0544
89986W        W32903  10.017   8.736   3.000 -0.0700  0.2967  0.1834
89987W        W32904  13.736   8.356   4.701  0.0131 -0.0015 -0.3967
89988W        W32905  11.777   9.189   5.395  0.0019  0.1674  0.1259
89989W        W32906  12.308  10.800   5.701 -0.1629  0.1229 -0.1636
89990W        W32907  10.929   7.417   6.864 -0.0601 -0.2342  0.0832
89991W        W32908  13.551  11.678   6.269  0.0772 -0.0053 -0.2934
89992W        W32909  12.805   9.073   5.482  0.1427  0.1087 -0.0430
89993W        W32910  15.116   9.003   5.855  0.0665 -0.0408  0.1323
89994W        W32911  13.125  10.188   6.926  0.0899  0.0881  0.0914
89995W        W32912  10.350   7.593   5.488  0.0641 -0.1606 -0.1385
89996W        W32913  15.424  12.685   2.435  0.4233  0.0558 -0.1901
89997W        W32914  13.579  10.921   5.801  0.0142  0.2538 -0.0643
89998W        W32915  13.998  11.119   5.123  0.1945 -0.0001 -0.1637
89999W        W32916  11.905  12.598   4.231 -0.0040  0.1180 -0.1302
90000W        W32917  11.197  11.294   4.319 -0.0593  0.0539 -0.1711
90001W        W32918  11.035   6.981   6.103 -0.0478  0.1884  0.1628
90002W        W32919  12.339   5.965   2.941 -0.0036  0.1768  0.0962
90003W        W32920  13.858  10.014   7.376 -0.0399 -0.2472  0.2140
90004W        W32921   9.896   9.618   7.705  0.1297 -0.1402  0.2395
90005W        W32922  14.066   7.126   6.028  0.0534  0.1117 -0.2179
90006W        W32923  12.112   9.765   4.975 -0.1742  0.0595  0.1263
90007W        W32924  14.046  12.439   4.436  0.2357 -0.0553  0.0440
90008W        W32925  13.584  11.099   3.424 -0.1632  0.1572 -0.1626
90009W        W32926  11.366   7.470   5.797 -0.3262  0.2202  0.1514
90010W        W32927  13.326   8.182   6.668 -0.0333 -0.0533  0.0060
90011W        W32928  12.668   7.120   3.451  0.1241 -0.2589  0.0329
90012W        W32929  12.230   9.110   3.857  0.0340  0.0343 -0.3882
90013W        W32930  13.799   9.684   8.237 -0.0534 -0.1158 -0.0202
90014W        W32931  15.127   8.995   5.096 -0.3366  0.1073  0.2846
90015W        W32932  11.674  10.884   6.432  0.2175 -0.0764 -0.1689
90016W        W32933  14.612   9.418   7.627 -0.2642  0.2050  0.1281
90017W        W32934  12.103  10.640   7.152 -0.1559  0.1871  0.2077
90018W        W32935   9.132  10.299   4.669  0.2014 -0.0776  0.1157
90019W        W32936  10.199   7.897   4.174  0.0900  0.0748  0.1937
90020W        W32937  11.408  10.011   3.747  0.0729  0.0728 -0.1871
90021W        W32938  11.076   6.343   7.369 -0.2467  0.1079 -0.2814
90022W        W32939  12.732  11.056   6.854 -0.1213  0.3026 -0.0594
90023W        W32940  14.444   6.546   4.538  0.0014  0.1386 -0.1712
90024W        W32941  11.567   6.367   6.771 -0.1670  0.1892  0.1148
90025W        W32942  12.623   7.044   5.381 -0.3068 -0.1836  0.0426
90026W        W32943  12.627   9.401   5.907 -0.1600  0.0722 -0.0375
90027W        W32944  12.976   8.696   5.808  0.2446  0.2723  0.6887
90028W        W32945  13.616   6.843   6.176 -0.2281  0.1071 -0.0245
90029W        W32946  15.521   9.214   5.365  0.2021 -0.1396 -0.0858
90030W        W32947  10.286   9.026   5.800  0.0820 -0.0073 -0.0685
90031W        W32948  10.114   7.983   5.714  0.2440 -0.3213 -0.1948
90032W        W32949   9.480   8.619   5.808 -0.0079  0.0739 -0.0000
90033W        W32950  10.965   7.769   5.337 -0.2471 -0.3799  0.0675
90034W        W32951  15.125   8.968   6.365  0.1407 -0.0024 -0.0535
90035W        W32952  10.851   6.881   3.174 -0.0707 -0.0197  0.1849
90036W        W32953  13.567   6.596   5.311  0.4456  0.1762 -0.1429
90037W        W32954  11.731   8.328   4.759  0.2898  0.1248  0.3317
90038W        W32955  11.703  10.675   2.496  0.2665  0.2064 -0.2443
90039W        W32956  12.212  10.187   6.966 -0.1813 -0.2490  0.0997
90040W        W32957  14.277  12.025   5.426 -0.2438 -0.1725 -0.0665
90041W        W32958  14.046  11.442   6.309  0.1237 -0.0258  0.1083
90042W        W32959  15.207  10.936   5.555  0.1001 -0.1790 -0.1277
90043W        W32960  10.489   6.906   6.514  0.1320 -0.2032  0.0929
90044W        W32961  11.770  11.043   5.546 -0.3838 -0.2988  0.0761
90045W        W32962   9.617  11.062   6.025  0.2116  0.3302 -0.0057
90046W        W32963  12.814  11.787   7.044  0.1549  0.0942 -0.1379
90047W        W32964  13.146   9.024   4.250 -0.2364 -0.0423  0.0906
90048W        W32965  13.056   8.174   5.838 -0.0983 -0.1150  0.0781
90049W        W32966  12.824   9.315   4.478  0.2824 -0.2167 -0.0120
90050W        W32967  13.752  11.386   8.222  0.1463 -0.2219  0.3171
90051W        W32968  13.877   7.373   6.596  0.0113 -0.2732 -0.1964
90052W        W32969  15.051   9.143   7.593 -0.0624 -0.1693 -0.5392
90053W        W32970  11.051  10.362   5.512 -0.1949  0.3495  0.0551
90054W        W32971  10.994   5.781   4.086 -0.0109  0.1949 -0.2561
90055W        W32972  13.528  11.314   4.898  0.1793 -0.1795  0.0186
90056W        W32973  10.621  10.884   4.342  0.0886  0.1696 -0.1924
90057W        W32974   8.285   7.489   4.105  0.2930  0.0510 -0.1102
90058W        W32975  10.647   9.464   4.172 -0.1026 -0.1579  0.0474
90059W        W32976  13.568   7.752   6.839  0.0565 -0.1463 -0.1698
90060W        W32977   9.640   8.676   6.307  0.1595  0.2850  0.0041
90061W        W32978  11.750   7.852   7.521 -0.1199  0.0097 -0.1459
90062W        W32979   9.363   9.935   4.033  0.2330  0.0381  0.3001
90063W        W32980  10.660   9.544   8.172 -0.0512 -0.0868 -0.0909
90064W        W32981  12.230   8.011   4.882  0.1485  0.2224  0.0358
90065W        W32982  14.525   7.843   5.326  0.1590 -0.1241 -0.0499
90066W        W32983  11.470   8.611   6.746 -0.3253 -0.0539 -0.2443
90067W        W32984  15.539   7.351   5.504 -0.3158  0.1344  0.0884
90068W        W32985  12.381   7.489   1.832  0.0769 -0.1056  0.0102
90069W        W32986  10.584   6.764   2.768 -0.1375  0.0453 -0.2058
90070W        W32987  10.511  10.125   7.233 -0.0885 -0.1572  0.2935
90071W        W32988  12.679   8.153   5.138 -0.0529 -0.0726  0.0627
90072W        W32989  12.172   9.551   5.400 -0.1541 -0.0722  0.1217
90073W        W32990  12.743   7.532   4.737 -0.0562  0.2548  0.1901
90074W        W32991  12.556   8.647   5.266 -0.3152 -0.1053 -0.1898
90075W        W32992  11.716   9.011   6.565  0.0590 -0.2219  0.1226
90076W        W32993  12.671  10.149   6.748 -0.0723  0.1521  0.1536
90077W        W32994  12.573  10.428   5.909  0.0155 -0.0520 -0.0435
90078W        W32995  12.402   7.400   5.740  0.0737  0.2979  0.2228
90079W        W32996  12.505   9.911   3.655 -0.0032 -0.2927  0.3017
90080W        W32997  14.035   6.400   4.737  0.0508  0.0804 -0.0941
90081W        W32998  10.560  10.341   4.199 -0.3108 -0.0979 -0.3189
90082W        W32999  14.905   7.412   4.828 -0.3089 -0.2424  0.0955
90083W        W33000  11.878   9.515   6.481 -0.2697  0.1237 -0.0787
90084W        W33001  13.663   7.619   5.352  0.0057 -0.0269  0.0301
90085W        W33002  13.392   7.875   8.324  0.1122 -0.2004  0.0261
90086W        W33003  14.748   8.793   5.372  0.2036 -0.3462  0.0899
90087W        W33004  13.590   9.197   8.060  0.0198 -0.0451 -0.0373
90088W        W33005  10.693   9.824   3.378 -0.1000 -0.1579  0.0209
90089W        W33006  11.510   9.616   7.321  0.2819  0.1893 -0.3813
90090W        W33007  11.546  10.260   5.338 -0.1193 -0.0788  0.1553
90091W        W33008  10.391   9.565   6.375 -0.0503 -0.2133  0.2079
90092W        W33009  14.448  11.096   6.208  0.0386 -0.1372  0.0473
90093W        W33010  12.252   8.786   6.954 -0.1035  0.0339 -0.0675
90094W        W33011  14.206   7.517   7.684 -0.3126  0.0889 -0.1868
90095W        W33012  14.833   6.420   3.113 -0.0992 -0.3231 -0.0772
90096W        W33013   9.896  11.054   3.544  0.0107 -0.3029 -0.0726
90097W        W33014  12.064   9.544   5.930 -0.0604 -0.1883 -0.3227
90098W        W33015  11.000   7.813   7.165  0.0449  0.1615  0.4728
90099W        W33016  10.565   9.854   5.927 -0.0779 -0.0137 -0.1580
90100W        W33017  13.097  10.720   5.153 -0.0234  0.0225  0.0873
90101W        W33018  14.508   8.561   6.444 -0.0962  0.2224  0.2252
90102W        W33019  11.930  12.626   4.736 -0.0932 -0.0719  0.1869
90103W        W33020  13.009   6.362   3.638  0.0794  0.2942 -0.0882
90104W        W33021  10.233  10.489   5.957  0.0749 -0.1154 -0.0570
90105W        W33022  11.818   9.371   2.868 -0.1673 -0.1412 -0.0762
90106W        W33023   9.949   9.202   3.020 -0.2569 -0.2259 -0.3197
90107W        W33024  14.727   7.532   5.655 -0.1931  0.0658 -0.2283
90108W        W33025  14.221   8.814   5.324 -0.1743  0.2718  0.0529
90109W        W33026  11.816   6.505   4.422  0.2635  0.0105  0.0551
90110W        W33027  10.761   7.329   6.386  0.0650  0.0931 -0.2362
90111W        W33028  12.475  12.219   5.275  0.0356 -0.0619 -0.1669
90112W        W33029  13.720   9.936   5.928 -0.3356 -0.6229 -0.2047
90113W        W33030  13.808   8.525   4.233  0.0098  0.0167 -0.0072
90114W        W33031  12.457   9.887   5.766  0.2334 -0.1516  0.0659
90115W        W33032  11.632   9.326   6.016 -0.0362 -0.2472  0.1297
90116W        W33033  10.587   5.526   4.211  0.1702 -0.1598 -0.0204
90117W        W33034  12.301   9.237   7.397  0.0693 -0.1065 -0.4011
90118W        W33035  11.617  10.400   6.364  0.1993  0.1062  0.1819
90119W        W33036  11.009   8.671   5.073  0.3112 -0.0361 -0.1545
90120W        W33037  13.623   9.133   5.034  0.1578  0.1143  0.4988
90121W        W33038  12.115  10.825   5.115  0.3884  0.1004  0.1149
90122W        W33039  13.109   9.967   5.285  0.2615  0.1494 -0.1043
90123W        W33040  11.600   7.381   8.614  0.0417 -0.1033 -0.0322
90124W        W33041  12.926  11.328   7.309 -0.1366 -0.3192  0.1123
90125W        W33042  11.581  10.294   5.813 -0.2071  0.4338  0.2781
90126W        W33043  11.974   8.806   3.590  0.1454  0.3636  0.3257
90127W        W33044  10.784   9.313   3.112  0.1768 -0.2369  0.1534
90128W        W33045  12.054  11.317   6.475  0.3373 -0.0273  0.0085
90129W        W33046  11.924   8.915   7.352  0.3866 -0.3113  0.1831
90130W        W33047  11.339  11.274   6.774 -0.0861 -0.0283  0.1742
90131W        W33048  12.004   7.043   5.154  0.0875 -0.0430 -0.1973
90132W        W33049  13.852  10.352   5.129 -0.1153  0.2752 -0.2421
90133W        W33050  13.583   8.530   6.937 -0.1292  0.3344  0.1806
90134W        W33051  13.825  10.868   3.855 -0.0639 -0.0747  0.2849
90135W        W33052  10.980   9.642   3.808  0.1148 -0.0681 -0.1595
90136W        W33053  12.861  10.573   5.536  0.3284 -0.0366  0.2481
90137W        W33054  11.199  10.587   6.024 -0.0400  0.1875  0.1363
90138W        W33055  11.634   9.803   7.772  0.0982 -0.0621  0.0874
90139W        W33056  12.596   8.933   3.265 -0.1738 -0.0393  0.1028
90140W        W33057  11.443   9.487   6.857 -0.2403  0.0800  0.2063
90141W        W33058  15.282   8.027   5.078 -0.0279  0.0067 -0.0926
90142W        W33059  13.385  11.525   3.503 -0.0634  0.0124 -0.0473
90143W        W33060  10.817   7.691   4.714  0.0146 -0.1678  0.2263
90144W        W33061  16.293   7.584   7.159  0.1141  0.1286  0.1359
90145W        W33062  14.663   9.193   5.085  0.1440 -0.2889  0.1017
90146W        W33063  13.238   7.094   7.385 -0.0315  0.0028 -0.0544
90147W        W33064  11.194  10.080   6.135  0.1802  0.0505 -0.0770
90148W        W33065  11.677   8.806   5.899  0.2330 -0.0726  0.0435
90149W        W33066  10.706   8.802   6.122  0.1569 -0.0169 -0.3810
90150W        W33067  12.534  12.860   9.685 -0.2379  0.0904  0.3506
90151W        W33068  11.529   7.613   7.167  0.2755 -0.4582  0.3363
90152W        W33069  12.864   8.541   4.891 -0.1850  0.2435  0.1566
90153W        W33070  10.881   6.641   1.908  0.0012 -0.1957 -0.0272
90154W        W33071  11.859   8.649   8.228 -0.0877  0.1633  0.4316
90155W        W33072  15.719   9.283   6.595  0.1878  0.0029 -0.1581
90156W        W33073  11.975  11.600   4.709  0.2723 -0.3537  0.2083
90157W        W33074  15.487   7.544   6.232  0.1505  0.0313  0.0530
90158W        W33075  11.350   9.225   5.598  0.0327  0.0722  0.0902
90159W        W33076  14.125   7.510   5.281  0.1965  0.0125 -0.0766
90160W        W33077  12.897   8.504   3.201  0.1101 -0.3070  0.0954
90161W        W33078  11.208  10.322   3.348 -0.0018 -0.2391  0.4378
90162W        W33079   8.994   8.145   5.812 -0.0831 -0.2114 -0.0975
90163W        W33080  13.088  10.597   5.966 -0.2304  0.1975  0.4691
90164W        W33081  14.191   7.118   4.520  0.0685 -0.3850 -0.0772
90165W        W33082  11.227   8.212   6.576 -0.5098  0.1367  0.1834
90166W        W33083  14.190   9.180   7.186  0.1963  0.4259  0.0821
90167W        W33084  10.478   7.433   7.284 -0.2906 -0.1980  0.0969
90168W        W33085  14.138  10.673   6.898 -0.1903  0.0627  0.2187
90169W        W33086  13.019   9.856   2.813 -0.0170 -0.3383 -0.0803
90170W        W33087  15.113   8.482   6.458  0.1783  0.1934  0.2771
90171W        W33088  12.382   7.924   5.467  0.0346 -0.1041 -0.2542
90172W        W33089  11.800   9.202   1.693  0.1015 -0.1465 -0.0869
90173W        W33090  11.890   7.607   5.452  0.2487  0.0754  0.4190
90174W        W33091  13.893   7.870   7.630  0.0629  0.0221  0.1586
90175W        W33092  12.468   9.393   4.893  0.2217  0.0104  0.2913
90176W        W33093  13.629   8.628   5.206 -0.2572  0.1802 -0.1584
90177W        W33094  13.098   9.765   6.629  0.1582  0.3312  0.0119
90178W        W33095  14.410   9.533   4.737 -0.2245 -0.0537  0.2120
90179W        W33096  11.925   9.389   3.604  0.1001  0.0071 -0.0736
90180W        W33097  11.939   8.304   3.416 -0.1343 -0.2922  0.3978
90181W        W33098  12.563  11.239   7.787  0.0760  0.1274  0.0358
90182W        W33099  10.934   7.638   3.372 -0.2396  0.3348  0.0329
90183W        W33100  12.338  11.247   4.911 -0.0020  0.1183 -0.0731
90184W        W33101  12.771  11.367   6.192  0.0343  0.0664 -0.0542
90185W        W33102  14.572  10.770   7.088 -0.1285  0.0407  0.1246
90186W        W33103  14.815   8.605   4.241 -0.0336  0.4807  0.2344
90187W        W33104  13.789   6.329   9.073 -0.0230  0.0155  0.5777
90188W        W33105  11.189  10.989   3.826  0.0945  0.0321  0.2810
90189W        W33106  13.164   6.527   4.991 -0.1056 -0.1776 -0.1476
90190W        W33107  11.406  12.559   6.244 -0.0165 -0.1700 -0.0662
90191W        W33108  10.002   7.377   5.765 -0.4610 -0.3332  0.0046
90192W        W33109  11.218   9.950   4.529 -0.2787 -0.0790  0.0920
90193W        W33110  11.214   9.073   6.760 -0.3772 -0.5044  0.0756
90194W        W33111  14.190   9.631   6.624  0.2317 -0.0093 -0.1339
90195W        W33112  11.063   7.742   4.278  0.0302 -0.3178 -0.3666
90196W        W33113  16.385   5.625   7.596 -0.0757 -0.2104 -0.0883
90197W        W33114  13.402  10.188   8.290 -0.2928  0.1377  0.1500
90198W        W33115  11.378  11.592   4.650 -0.1625 -0.3549  0.0891
90199W        W33116  14.651  12.746   7.404 -0.1878 -0.0100 -0.4122
90200W        W33117  13.097   8.958   6.168 -0.3608 -0.1479 -0.3259
90201W        W33118  11.778  10.984   6.919 -0.1859 -0.0141  0.5277
90202W        W33119   9.270   8.303   6.180 -0.0235  0.1567 -0.1788
90203W        W33120  13.023  10.656   6.817 -0.0701  0.0230  0.0824
90204W        W33121  14.056   9.844   7.835  0.0552  0.1481 -0.1918
90205W        W33122  10.776   7.684   3.818 -0.1753 -0.0412 -0.0507
90206W        W33123  11.614   9.139   2.468 -0.0249  0.0987  0.1693
90207W        W33124  11.799  10.457   6.797  0.0356 -0.3460  0.0273
90208W        W33125  10.289   9.086   8.264 -0.0140  0.1803  0.0745
90209W        W33126   9.437  11.245   5.521 -0.3347  0.0526  0.1856
90210W        W33127  13.213  10.098   5.865  0.0913 -0.1948  0.0548
90211W        W33128  14.923   8.514   5.834  0.2349  0.0487  0.2051
90212W        W33129  14.050  11.897   6.436  0.0756 -0.1399  0.0162
90213W        W33130  11.061   8.175   4.522 -0.1640 -0.2045 -0.0909
90214W        W33131  11.282  11.491   5.667 -0.1420 -0.0576  0.1867
90215W        W33132  10.807  12.588   2.471 -0.1104  0.1217 -0.2090
90216W        W33133  12.867  10.062   4.022 -0.1283 -0.2611 -0.0531
90217W        W33134  10.259   9.402   3.880 -0.1444 -0.1642 -0.3778
90218W        W33135  14.032  10.159   6.830  0.1951  0.0930 -0.1392
90219W        W33136  13.661   7.144   4.297 -0.0690 -0.1742  0.0284
90220W        W33137  11.951   7.537   5.979 -0.1720 -0.0991 -0.1235
90221W        W33138  13.997   9.496   5.747 -0.0167  0.2682 -0.0453
90222W        W33139  13.213  11.313   8.265 -0.2247 -0.1465 -0.1167
90223W        W33140  10.868   9.419   6.085  0.2494  0.1241  0.3752
90224W        W33141  12.494   8.367   4.564 -0.0761 -0.0555 -0.3101
90225W        W33142  11.315   7.170   7.037  0.0936  0.0029  0.1531
90226W        W33143  13.218   6.945   9.304  0.1925 -0.2539 -0.0893
90227W        W33144   9.904   9.748   6.497 -0.4813 -0.0492 -0.0497
90228W        W33145  13.741   9.908   4.316 -0.2346  0.0317  0.3291
90229W        W33146  10.677   9.493   2.553  0.1680 -0.0790  0.0056
90230W        W33147  11.094   7.248   4.861 -0.3282  0.3100 -0.3642
90231W        W33148  16.410   8.331   6.768 -0.2337 -0.1217 -0.0358
90232W        W33149  12.144  10.018   2.652  0.4766 -0.2911 -0.1021
90233W        W33150  12.792   9.876   6.253  0.0529 -0.0779 -0.0215
90234W        W33151  12.535  11.486   6.702  0.0572 -0.1521  0.0956
90235W        W33152  11.188  10.029   5.047 -0.0252 -0.0853 -0.3146
90236W        W33153  11.718  12.211   4.571 -0.2163  0.0996 -0.0894
90237W        W33154  11.506   7.472   5.128 -0.4922  0.0964  0.0999
90238W        W33155  15.385   9.387   6.230 -0.2422 -0.0660  0.2904
90239W        W33156  12.504   9.668   7.463  0.1667  0.1899 -0.0195
90240W        W33157  13.963   8.410   7.629  0.1030 -0.0824 -0.0552
90241W        W33158  10.822   7.451   5.772 -0.3744 -0.0840 -0.3178
90242W        W33159  14.623   7.204   5.989 -0.0328 -0.1103  0.1310
90243W        W33160  13.698   9.739   6.653  0.1318  0.0272  0.0406
90244W        W33161  11.775   6.940   6.972  0.3290  0.0145  0.4320
90245W        W33162  11.194  10.610   2.462  0.3249 -0.2832 -0.2889
90246W        W33163  14.367   9.004   6.640  0.1014  0.0329  0.3170
90247W        W33164  12.666   9.592   5.403 -0.3386 -0.0507 -0.0212
90248W        W33165  12.336  10.908   8.472 -0.0597  0.1369  0.1510
90249W        W33166  10.875   8.844   5.686 -0.0366  0.1369 -0.0414
90250W        W33167  11.285   9.094   5.075 -0.0166  0.1497  0.1309
90251W        W33168  11.506   9.489   3.829  0.0428  0.1016  0.3222
90252W        W33169  13.686   9.579   7.640 -0.2474 -0.0866 -0.0924
90253W        W33170  13.411  10.252   7.383 -0.0389 -0.2336 -0.4820
90254W        W33171  11.120   7.225   5.423  0.0092 -0.4849  0.2350
90255W        W33172  11.706  10.297   3.428  0.1220  0.1161  0.0527
90256W        W33173  13.440   8.252   6.166  0.1750  0.1015 -0.1516
90257W        W33174  13.474  11.969   2.993  0.0754 -0.0828 -0.0029
90258W        W33175  14.087   8.043   5.638  0.2577 -0.3978 -0.1341
90259W        W33176  14.413  10.337   6.559  0.1309  0.0896 -0.3107
90260W        W33177   9.537   9.436   4.907 -0.1470 -0.1573 -0.2298
90261W        W33178  12.548  11.405   5.727 -0.2100 -0.4271 -0.4638
90262W        W33179  14.267  11.896   6.878 -0.0943  0.1370 -0.2144
90263W        W33180  13.238   8.164   4.539  0.1185  0.3851  0.2526
90264W        W33181  10.788   6.951   5.659 -0.0464 -0.0525 -0.2418
90265W        W33182  11.310  10.486   3.812 -0.0522 -0.0612  0.2365
90266W        W33183  14.589   8.006   5.817  0.0403 -0.0860 -0.1647
90267W        W33184  13.199   8.957   7.100 -0.0029 -0.4232  0.4141
90268W        W33185  12.836  10.857   3.432 -0.1616 -0.1555 -0.1269
90269W        W33186  12.295   9.123   5.648  0.0667 -0.1452 -0.2465
90270W        W33187  13.874   9.567   7.140 -0.0316 -0.0709 -0.2216
90271W        W33188  13.450  11.636   7.900 -0.1691 -0.0628  0.0367
90272W        W33189  11.576   9.189   3.249  0.1977 -0.0573  0.1011
90273W        W33190  12.385   8.863   8.278  0.1400 -0.0890  0.0809
90274W        W33191  12.528  10.011   5.117 -0.3370 -0.0574 -0.0250
90275W        W33192  12.097  11.835   4.299 -0.1462  0.0017  0.3860
90276W        W33193  13.373   8.756   4.675 -0.1533  0.0243  0.0524
90277W        W33194  11.607   9.738   5.603 -0.0779  0.1777  0.0035
90278W        W33195  13.496  10.682   6.264 -0.3623 -0.0064 -0.0828
90279W        W33196  12.569   8.887   5.978  0.3421  0.1323  0.2887
90280W        W33197  12.883   7.480   5.555 -0.1427  0.2262 -0.0318
90281W        W33198  14.425   7.547   4.365 -0.0582  0.1054 -0.0905
90282W        W33199  12.890   9.862   7.249 -0.0947  0.0323  0.3203
90283W        W33200  11.596   9.822   4.207  0.0410  0.2160  0.0466
90284W        W33201  12.215   9.679   3.938  0.0380  0.0161  0.2533
90285W        W33202  10.785   7.592   7.701 -0.1003  0.3432 -0.3433
90286W        W33203  12.534   7.767   8.012 -0.5136 -0.3083  0.0706
90287W        W33204  10.313   9.342   7.883 -0.1086  0.1210  0.2195
90288W        W33205  11.422   9.320   4.630 -0.2335  0.1129 -0.3127
90289W        W33206  12.708   8.797   4.447 -0.0880 -0.0550  0.4165
90290W        W33207  13.348   9.396   6.337 -0.0461  0.0312 -0.2270
90291W        W33208  11.916   7.969   7.042 -0.0377 -0.0926 -0.4062
90292W        W33209   9.838   7.233   3.651 -0.0950 -0.2124 -0.1990
90293W        W33210  12.086   8.654   5.557  0.0616 -0.4431  0.1253
90294W        W33211  13.623  10.395   5.888  0.0801  0.1245 -0.1742
90295W        W33212  11.590   8.490   6.267 -0.2221  0.2583  0.1901
90296W        W33213  13.355  12.448   6.752  0.2123  0.2267  0.2835
90297W        W33214   9.952  10.983   5.109  0.1013  0.3598 -0.0369
90298W        W33215  12.388  10.332   5.470  0.2948  0.0519 -0.1094
90299W        W33216  12.350   9.653   6.329  0.0382  0.0789  0.3048
90300W        W33217  11.059   7.266   4.409 -0.0413  0.0962 -0.1902
90301W        W33218  11.863   9.240   6.980 -0.0297  0.2565  0.1219
90302W        W33219  13.044  11.230   5.016  0.1728  0.2194  0.1396
90303W        W33220  13.972  13.604   4.263 -0.0554  0.0886  0.1958
90304W        W33221  11.856  10.801   5.996  0.1126 -0.0580 -0.0928
90305W        W33222  12.560  12.725   7.375 -0.3127 -0.0177  0.0706
90306W        W33223  10.607   5.805   5.837  0.1357  0.3621 -0.2002
90307W        W33224  11.505   8.402   5.584 -0.0911 -0.0221 -0.3375
90308W        W33225  13.802  10.459   7.195 -0.1092 -0.2206  0.0888
90309W        W33226  13.730   9.425   4.596  0.1381  0.0948  0.2973
90310W        W33227  12.652   8.339   7.621  0.1713  0.0438 -0.2235
90311W        W33228  10.929   9.118   4.460  0.0787 -0.2410  0.0299
90312W        W33229  11.105   5.745   7.284 -0.5246 -0.1526  0.0757
90313W        W33230  10.784   8.271   7.127 -0.0812  0.2331  0.1266
90314W        W33231  12.133   9.687   6.862 -0.1052 -0.1147  0.2983
90315W        W33232  12.006   8.587   6.584 -0.3262 -0.1294 -0.0550
90316W        W33233  14.982   9.472   5.939 -0.0428  0.2379 -0.1533
90317W        W33234  11.400  11.061   5.969  0.0233 -0.0448  0.4186
90318W        W33235  12.522   8.452   5.762  0.0297  0.0930  0.0942
90319W        W33236  12.659   7.894   5.858  0.0721 -0.2031  0.2491
90320W        W33237  14.230  11.335   7.125 -0.2191 -0.3391 -0.1794
90321W        W33238  13.761  10.654   3.239 -0.0670 -0.1980 -0.0356
90322W        W33239  13.404   9.378   6.860  0.0682 -0.0409  0.1393
90323W        W33240  11.484   9.017   3.764  0.0204  0.0001  0.0420
90324W        W33241  12.259   8.999   5.075 -0.2788 -0.2057  0.2108
90325W        W33242  13.788  11.599   6.781 -0.2209 -0.1856  0.0014
90326W        W33243  13.524   9.458   8.532 -0.0972  0.0237 -0.0227
90327W        W33244  12.719  12.151   7.548  0.1551  0.0329 -0.0436
90328W        W33245  15.055   8.084   6.016 -0.0139  0.2021  0.0404
90329W        W33246  11.016   9.548   4.779  0.0844  0.0157  0.0946
90330W        W33247  12.304   9.183   4.380 -0.3069  0.3352  0.2525
90331W        W33248  12.795   9.378   6.381  0.1693 -0.2244 -0.0185
90332W        W33249  13.640   8.908   6.081 -0.5445 -0.0218 -0.0301
90333W        W33250  10.713   7.004   7.085  0.3120  0.1102  0.0629
90334W        W33251  14.419   8.967   4.427 -0.1458 -0.0926 -0.1468
90335W        W33252  11.076  10.397   6.643 -0.0769 -0.1409 -0.2535
90336W        W33253  11.291  10.864   4.668 -0.0818 -0.1295 -0.0365
90337W        W33254  11.293  12.276   8.225 -0.2295  0.0329 -0.1336
90338W        W33255  10.926   8.091   8.939 -0.2296 -0.0683 -0.3862
90339W        W33256  15.995   9.036   7.902 -0.1213  0.0813  0.1346
90340W        W33257  12.619  10.421   8.044  0.0032 -0.1603 -0.3270
90341W        W33258  11.981   9.706   8.802  0.0559  0.3363  0.0540
90342W        W33259  13.316  11.644   7.084 -0.2816 -0.1603 -0.0749
90343W        W33260  14.691  10.919  10.447  0.1823  0.2690 -0.2140
90344W        W33261  15.644  11.100   8.781  0.1960 -0.2275 -0.0818
90345W        W33262  11.283   9.220   7.582 -0.0686 -0.1453  0.0302
90346W        W33263  12.708   9.928   9.833  0.0658  0.2849 -0.4441
90347W        W33264  12.807   7.335   6.655  0.1501  0.2303 -0.1418
90348W        W33265  13.880   4.171   9.886  0.0151  0.2255 -0.0216
90349W        W33266  12.750   9.246   9.321 -0.2402 -0.0083 -0.1965
90350W        W33267  10.865   9.042   8.877  0.1704  0.0170 -0.0773
90351W        W33268  14.325   7.983   8.898 -0.2094 -0.2348 -0.1532
90352W        W33269  11.763  12.479  10.135 -0.2119  0.0293 -0.0852
90353W        W33270  13.618  10.194   9.482 -0.4282 -0.0379 -0.0748
90354W        W33271  13.304   6.735   8.815 -0.0184  0.2498 -0.2488
90355W        W33272  15.245   9.370   8.604  0.1619 -0.1353 -0.0199
90356W        W33273   9.634   9.959   7.465  0.2473  0.2242  0.2649
90357W        W33274  10.133   5.973  10.228 -0.0549  0.1050 -0.2414
90358W        W33275  11.703   8.571   9.261  0.2574 -0.1067  0.1163
90359W        W33276  14.277   8.997   8.976 -0.0439  0.0073 -0.0419
90360W        W33277  13.561   5.663  10.487  0.1222 -0.0237 -0.0270
90361W        W33278  14.224  10.848   9.228  0.0125  0.1047 -0.1473
90362W        W33279  13.219  11.583  10.990 -0.0049 -0.0794 -0.0884
90363W        W33280  11.856   9.790   8.280  0.1567 -0.0918  0.0647
90364W        W33281  10.708  10.684   6.765  0.0329  0.0350 -0.3735
90365W        W33282  13.747  10.504   8.163  0.0111  0.0388 -0.1844
90366W        W33283  14.663  10.694   8.658  0.0124  0.1186  0.0997
90367W        W33284  10.456   9.104   9.643  0.0689  0.0620  0.1878
90368W        W33285  13.738  11.021   9.189 -0.1917 -0.2471 -0.1188
90369W        W33286  12.783   9.272   7.398  0.2319 -0.0085  0.2011
90370W        W33287  11.476  10.103   8.363 -0.1000 -0.0413  0.0258
90371W        W33288  11.456  10.145   9.302 -0.1546  0.1703 -0.0133
90372W        W33289  10.440  10.859   8.488 -0.0936 -0.0274 -0.1167
90373W        W33290  12.158  10.599   6.368 -0.0936  0.3154 -0.2740
90374W        W33291  14.094   8.550   8.114  0.0540 -0.1802 -0.0221
90375W        W33292   9.912   6.841   5.380  0.1110  0.0557  0.1128
90376W        W33293  14.746   8.329   8.848  0.3473 -0.0412  0.3664
90377W        W33294  10.701   6.006   7.426 -0.1324 -0.0041 -0.1261
90378W        W33295  11.074   8.690   6.439 -0.4643 -0.0094  0.1297
90379W        W33296  11.279   9.316   9.561 -0.0937  0.2371  0.0474
90380W        W33297  15.822   8.873   7.441  0.2874  0.1093 -0.3221
90381W        W33298  15.011   7.804   7.925 -0.0574  0.3285 -0.0639
90382W        W33299   8.846   9.289   7.174 -0.2233 -0.0853 -0.1291
90383W        W33300  10.399   9.090   9.137 -0.0194  0.1817  0.0279
90384W        W33301  13.315  11.278   9.085 -0.2056  0.0107  0.0858
90385W        W33302  14.800  10.408   7.431 -0.1075  0.0266  0.1267
90386W        W33303  13.652  10.585   7.688  0.0289 -0.5148  0.0814
90387W        W33304  13.213   8.425   9.798 -0.1391 -0.0217 -0.0730
90388W        W33305  10.189   8.282   7.291  0.3424 -0.0430 -0.0107
90389W        W33306  14.944   6.432   9.578 -0.0294 -0.1774 -0.1519
90390W        W33307  13.671  11.912  10.067 -0.1932 -0.2008 -0.0827
90391W        W33308  16.353  10.799   8.856  0.4044 -0.0350 -0.1043
90392W        W33309  13.831   7.941   6.316  0.4135  0.1435 -0.0529
90393W        W33310  15.648   9.249   8.322  0.0983  0.0653  0.0716
90394W        W33311  15.041   6.929   9.576 -0.3287 -0.1097 -0.0868
90395W        W33312   9.314   9.131   6.886 -0.0733  0.0211  0.2660
90396W        W33313  11.443   8.802   7.793 -0.0318  0.0968 -0.2090
90397W        W33314  15.428   8.709   7.950  0.1782 -0.0784  0.2040
90398W        W33315  16.439   8.239   9.243 -0.0789 -0.2576 -0.1273
90399W        W33316  11.910   9.201   8.920 -0.3509 -0.1043  0.1815
90400W        W33317  10.184   9.805   8.061  0.2060 -0.0314 -0.0150
90401W        W33318  11.112  12.158   9.496 -0.0137  0.3032 -0.0228
90402W        W33319  12.808   9.930   8.832 -0.1659 -0.2734  0.0979
90403W        W33320  10.145   6.658   8.430 -0.3144  0.2262 -0.2528
90404W        W33321  14.951   9.130   9.547 -0.0474 -0.2612 -0.0850
90405W        W33322  15.807   7.546   7.965 -0.3393 -0.2298  0.3278
90406W        W33323  13.765   7.137   7.920  0.0605  0.1036  0.1381
90407W        W33324  10.447   9.846   6.768  0.0237  0.0004  0.1606
90408W        W33325  14.835   7.200   8.100 -0.2756  0.2369  0.0751
90409W        W33326  13.893   8.034   8.578  0.1190  0.0456  0.1749
90410W        W33327  13.154   9.749   4.369 -0.0122  0.0121 -0.2115
90411W        W33328  12.231   5.397  10.247  0.1382 -0.0208  0.1361
90412W        W33329  10.369   6.566   9.387 -0.1517 -0.3238  0.0830
90413W        W33330  12.502   7.695   9.966 -0.2432 -0.1100  0.0527
90414W        W33331  12.198   8.236   8.029 -0.1685 -0.0649 -0.0116
90415W        W33332  12.455   8.270   9.878 -0.2501  0.2549  0.0842
90416W        W33333  10.930   9.552   6.794 -0.1211 -0.0978 -0.2452
90417W        W33334  11.808  10.239   7.835 -0.0455  0.1205 -0.2440
90418W        W33335  13.985   9.340   8.710 -0.0791  0.0286 -0.2755
90419W        W33336  13.275  11.842   9.623  0.0959  0.3491  0.3849
90420W        W33337  13.674  11.508   9.786 -0.0409  0.3636  0.1812
90421W        W33338  14.819   9.091  10.215  0.0952  0.1880  0.3063
90422W        W33339  13.910   9.168   9.489  0.2054  0.0946  0.1348
90423W        W33340  11.538   9.401   8.050  0.2369  0.0985  0.2432
90424W        W33341  12.230   8.354   8.525  0.1897 -0.3397  0.1207
90425W        W33342  13.455   8.623   7.432  0.0699 -0.1006 -0.0077
90426W        W33343  13.312  11.925   9.071 -0.3814 -0.0176  0.1581
90427W        W33344  11.816   9.064   9.555 -0.3980  0.2326  0.1031
90428W        W33345  15.606  11.375  10.325  0.4972  0.3973  0.2697
90429W        W33346  11.654   8.271   8.822  0.0960  0.0180  0.1108
90430W        W33347  10.424   8.603  10.075  0.2235 -0.2160 -0.1118
90431W        W33348  14.704  11.706   7.060 -0.1066  0.2062  0.0850
90432W        W33349  11.166   9.804   8.020  0.1421  0.0538  0.1090
90433W        W33350   9.646  10.433   7.405  0.2092 -0.1587 -0.2262
90434W        W33351  12.104  11.061   8.019 -0.0364  0.1819  0.1180
90435W        W33352  15.324   7.812   7.513  0.2518  0.1879 -0.0349
90436W        W33353   9.743   7.656   9.240 -0.1439 -0.0202  0.1639
90437W        W33354  14.091   7.466   9.572  0.0322  0.2642 -0.0629
90438W        W33355  15.081   5.960   8.536 -0.1019  0.0173 -0.0505
90439W        W33356  15.145   7.940   8.869 -0.1125 -0.1290  0.2112
90440W        W33357  14.646   8.955   7.357  0.0167 -0.0318 -0.2061
90441W        W33358  13.454   8.532   5.750  0.0368  0.1182  0.2361
90442W        W33359  13.414  11.258   7.421  0.0568 -0.1025 -0.1133
90443W        W33360  10.641   8.091   9.373 -0.0347 -0.1356 -0.1616
90444W        W33361  12.033   9.713   7.454  0.1849  0.1875 -0.0185
90445W        W33362  15.173   8.260   7.837  0.0865  0.1694  0.0985
90446W        W33363  14.072   9.646   9.825 -0.1033  0.4733 -0.0993
90447W        W33364  15.098  10.086   8.089  0.0457 -0.1385 -0.2358
90448W        W33365  12.204   4.987   9.932 -0.0755  0.0436  0.1050
90449W        W33366  12.671   9.041   6.903 -0.0333 -0.2440  0.2011
90450W        W33367  12.952   6.903   6.855 -0.1476  0.1085 -0.2816
90451W        W33368  12.169  12.012   7.435 -0.1557 -0.1832  0.0345
90452W        W33369  14.519   7.652   8.166 -0.2256  0.0375 -0.3329
90453W        W33370  11.505   8.303   7.949  0.1062 -0.0528  0.0765
90454W        W33371  14.321   8.320   8.478  0.1536  0.1083 -0.0795
90455W        W33372  14.346  11.084   8.380 -0.1366  0.0418  0.3469
90456W        W33373  10.442   7.072   8.221 -0.5022  0.3410  0.1158
90457W        W33374  11.374   8.116   9.307  0.2885 -0.1338  0.1142
90458W        W33375  12.256  11.454   8.456  0.3249 -0.0594  0.1426
90459W        W33376  12.763  10.071   7.736  0.2674  0.4221  0.3929
90460W        W33377  12.253   8.155   6.646  0.0934 -0.2224 -0.3043
90461W        W33378  13.094  11.190   7.800  0.2276 -0.1837  0.1203
90462W        W33379  12.110   8.884   7.839  0.1091 -0.0833  0.1068
90463W        W33380  12.161   8.414   9.511  0.0587  0.3134 -0.0195
90464W        W33381  14.690  12.151   9.161  0.3962 -0.0387 -0.1281
90465W        W33382  11.913  10.029   6.487 -0.2647 -0.3170  0.3384
90466W        W33383  12.808   9.587   8.465  0.0490 -0.2428  0.0122
90467W        W33384  11.885  11.478   9.642 -0.1537  0.0714 -0.0786
90468W        W33385  12.705   9.563   7.967  0.0883  0.1489 -0.0750
90469W        W33386  10.778  12.660  10.229 -0.0812 -0.2064  0.3205
90470W        W33387  11.011   9.743   7.492 -0.0160  0.0917 -0.1395
90471W        W33388  10.154   6.683   6.895 -0.0715 -0.1468 -0.1085
90472W        W33389  14.231   8.858   8.489 -0.0318  0.3742  0.4416
90473W        W33390  14.840   9.871   7.333  0.1448  0.0411 -0.4050
90474W        W33391  12.273   8.805   8.749  0.2370 -0.3087 -0.1450
90475W        W33392  13.874   8.152   9.091  0.0859  0.1418 -0.2398
90476W        W33393   9.336  10.525   8.510 -0.0554  0.2756  0.2863
90477W        W33394  13.488   5.951   9.194 -0.2547 -0.2933  0.1522
90478W        W33395  10.974   7.305   7.375 -0.0803 -0.1379  0.1082
90479W        W33396  14.449   8.207   9.841 -0.0157  0.1709  0.0062
90480W        W33397  12.667   8.322   8.176  0.0316 -0.1761  0.2444
90481W        W33398   9.247  12.436   9.491  0.0303  0.1102  0.1750
90482W        W33399  14.692   9.907  10.035  0.1477  0.0769 -0.0565
90483W        W33400  11.426   8.548   8.378  0.0013  0.0741  0.0082
90484W        W33401  11.789   8.481   7.165  0.2192  0.1020 -0.0227
90485W        W33402  14.153   9.974  10.913  0.2412  0.2667 -0.0783
90486W        W33403  14.981   7.432   9.257  0.0746 -0.2749  0.0487
90487W        W33404   8.942   9.756   8.854  0.1334  0.0719 -0.2715
90488W        W33405  12.443   7.918   8.551  0.0424  0.3498 -0.1405
90489W        W33406  14.829   9.276   9.034  0.2989 -0.0054 -0.2810
90490W        W33407  12.123   7.588   9.594  0.0943  0.2153 -0.1235
90491W        W33408  13.176   7.444   7.046  0.2070 -0.1989 -0.0716
90492W        W33409  13.622  10.777   6.735 -0.1144 -0.1300  0.4002
90493W        W33410  12.388   8.754   7.474  0.1689 -0.2463  0.0188
90494W        W33411  10.926  10.677   8.964 -0.1210 -0.0683  0.1798
90495W        W33412  11.942   9.143   8.323 -0.2189  0.0230 -0.0491
90496W        W33413  11.240   7.989   7.555  0.2163  0.3784  0.0118
90497W        W33414  13.279   9.644   8.135 -0.0694 -0.0229 -0.2313
90498W        W33415  10.694   8.774   7.360  0.2117  0.0742  0.1860
90499W        W33416   8.881  10.345   8.804 -0.3357 -0.1849 -0.0800
90500W        W33417  15.058   5.544   6.666  0.0602 -0.1188 -0.4993
90501W        W33418  14.899   9.835   6.829 -0.0274  0.0487  0.2226
90502W        W33419  12.876   7.032   9.711 -0.0223  0.1073  0.0973
90503W        W33420  15.105   9.240   6.880  0.1294  0.1272 -0.0317
90504W        W33421  13.102   5.161   9.982  0.1299  0.1282  0.2060
90505W        W33422  15.739  10.650   7.127  0.1240 -0.1174 -0.0136
90506W        W33423  13.665   7.232   9.112 -0.1259 -0.0114  0.0038
90507W        W33424  11.279   9.006   8.623  0.1483  0.0787 -0.0161
90508W        W33425  11.520   9.849   8.879 -0.1606 -0.3835 -0.0723
90509W        W33426  15.673  10.795   9.629 -0.2446 -0.0767  0.0160
90510W        W33427  14.081   9.225   8.179 -0.1938  0.0686  0.2124
90511W        W33428  12.822  10.362   9.650  0.0210 -0.0213  0.3819
90512W        W33429  14.627  11.483  10.829  0.0027  0.2275  0.0950
90513W        W33430  12.897  10.030   8.259 -0.2566 -0.1808 -0.2598
90514W        W33431  13.285   8.627   8.464 -0.0978 -0.1119 -0.0942
90515W        W33432  11.954  10.010   9.174  0.1847  0.1756 -0.1086
90516W        W33433  13.552   8.729   9.519 -0.2802 -0.2183  0.0310
90517W        W33434  13.896   8.444   5.931  0.2681  0.0464  0.1085
90518W        W33435  15.609  12.297  10.660 -0.0768  0.3726  0.2922
90519W        W33436  14.873   8.102   7.393 -0.0400  0.0870 -0.0401
90520W        W33437  13.400   7.107   6.691 -0.0071  0.3377  0.0165
90521W        W33438  13.135   9.463   8.896 -0.1327  0.1871  0.3590
90522W        W33439  14.840   7.543   7.541  0.0328  0.0564 -0.1301
90523W        W33440  10.651  10.879   9.291 -0.1870  0.0722 -0.2259
90524W        W33441  10.467   9.732   7.636  0.0409  0.1629  0.0446
90525W        W33442  13.276   9.373   7.406  0.1977 -0.1152  0.2094
90526W        W33443  13.492  10.242   8.982 -0.4774 -0.0247  0.1993
90527W        W33444  10.562  10.605  11.507  0.1758 -0.0154 -0.1255
90528W        W33445  10.316   8.644   7.610  0.2820 -0.0295 -0.1994
90529W        W33446  10.392   9.610   9.011  0.0358  0.1953 -0.0225
90530W        W33447  10.811  10.632   8.207  0.2490  0.3912 -0.0903
90531W        W33448  12.708   8.629   8.597  0.4378 -0.4671 -0.0760
90532W        W33449  11.652  10.587   8.202  0.3219  0.1771 -0.1479
90533W        W33450  10.331   9.880   5.504 -0.2374  0.0229  0.1697
90534W        W33451  11.422  11.030   8.812  0.3696 -0.0363 -0.0313
90535W        W33452  14.526   9.004   8.118 -0.1885 -0.1719 -0.1919
90536W        W33453  12.159   9.511   7.950  0.1352 -0.2305 -0.0081
90537W        W33454  13.243  10.136   9.820  0.0274  0.0079 -0.0023
90538W        W33455  13.445   9.267   9.886 -0.2982  0.2228  0.0902
90539W        W33456  16.087  10.573  10.122  0.0868 -0.0138 -0.2126
90540W        W33457  11.739   8.750   8.698  0.1340 -0.0179  0.1693
90541W        W33458  15.928  11.925  10.963  0.2789  0.0279 -0.0417
90542W        W33459  12.475   9.439   8.833 -0.0361  0.0710  0.0393
90543W        W33460  15.434   9.965  10.310  0.0328  0.0197  0.1342
90544W        W33461  12.759   7.402   9.051  0.2916  0.2200  0.0881
90545W        W33462  12.858   8.732   7.296  0.3409 -0.0612  0.1791
90546W        W33463  11.435   8.989   9.105  0.0240 -0.0873 -0.2775
90547W        W33464  11.460  11.769   8.249  0.1259 -0.0871  0.0399
90548W        W33465  13.558  10.605   8.655 -0.0585  0.0285 -0.1502
90549W        W33466  13.909  10.503   9.060  0.1832 -0.2011 -0.0269
90550W        W33467  13.561  12.208  10.793  0.1028  0.2449  0.3104
90551W        W33468  11.772   8.070   6.554  0.1044 -0.4030  0.0723
90552W        W33469  10.871   9.960   6.479 -0.1876 -0.3377 -0.1254
90553W        W33470  10.236  12.006   7.843 -0.0932  0.4290  0.0342
90554W        W33471  13.881  10.910   8.360 -0.0781  0.0848 -0.0274
90555W        W33472  11.580   9.148   9.965 -0.0266  0.1720 -0.1826
90556W        W33473  14.184   6.495   9.520 -0.0849 -0.1649  0.0148
90557W        W33474  14.055  11.125   9.628  0.0510  0.0668  0.0977
90558W        W33475  15.577   8.653   9.200 -0.1580  0.2742  0.1267
90559W        W33476  10.382   8.202   8.885 -0.1729 -0.1856 -0.1129
90560W        W33477  11.980   7.431   7.132 -0.0023 -0.2087  0.0651
90561W        W33478  15.040  11.063   7.636  0.0367  0.3036  0.2526
90562W        W33479  10.970   8.643   8.560  0.1238  0.0257  0.2943
90563W        W33480  13.034   8.483   6.246 -0.1635 -0.3339 -0.0175
90564W        W33481  14.509   8.737   9.697  0.2411  0.1443 -0.0666
90565W        W33482  11.983  10.017   5.519 -0.1595  0.0551  0.0170
90566W        W33483  12.440   7.463   7.599 -0.3752  0.1025  0.0556
90567W        W33484  13.206  10.379   7.829 -0.2840  0.0683 -0.0706
90568W        W33485  14.728  10.424   9.647  0.3862 -0.2204 -0.1311
90569W        W33486  12.244   9.778   9.604  0.1235  0.0846 -0.1199
90570W        W33487   9.868   9.348   6.783  0.0916 -0.2904  0.0095
90571W        W33488  14.879   7.644   7.075  0.1684  0.2968 -0.0510
90572W        W33489  12.415   6.326  10.292  0.0196  0.3736 -0.3147
90573W        W33490  11.691   8.224   9.702 -0.0604 -0.1471 -0.2041
90574W        W33491  16.425   8.685   9.589  0.1812  0.3200 -0.0964
90575W        W33492  14.758   7.868   9.143 -0.1119  0.0450  0.4417
90576W        W33493  14.025   8.606   9.919 -0.0656 -0.0538 -0.3185
90577W        W33494  11.232   8.476   7.460 -0.1234 -0.0708  0.0146
90578W        W33495  13.098   9.087   7.782  0.2144 -0.1895 -0.1092
90579W        W33496  11.483   7.830   8.872  0.5626 -0.1210 -0.0778
90580W        W33497  13.686   8.193   8.129 -0.3846  0.1714 -0.0118
90581W        W33498  11.142   9.814   9.533  0.4242 -0.1853 -0.4111
90582W        W33499  13.115   8.856   9.213  0.1897  0.1955  0.2191
90583W        W33500  12.542   6.924   9.404  0.0456 -0.1199 -0.1275
90584W        W33501  14.501   8.584   7.023  0.0594  0.1911 -0.1420
90585W        W33502  14.799   8.882   8.766 -0.2307  0.2168 -0.1053
90586W        W33503  11.599  10.749   5.147 -0.1061 -0.3335  0.0901
90587W        W33504  14.215  10.708   9.936 -0.0639  0.0326  0.0610
90588W        W33505  13.589  11.056   7.880  0.1692 -0.4341 -0.2787
90589W        W33506  11.061   8.683   8.052  0.1920  0.0995  0.1994
90590W        W33507  15.334   9.994   8.546 -0.1579  0.1124  0.0107
90591W        W33508  15.507  10.444  10.410  0.5110  0.1915 -0.1202
90592W        W33509  13.739   7.448   7.467  0.1165 -0.0214  0.2339
90593W        W33510  13.032   7.983   7.928 -0.2374  0.0799  0.2140
90594W        W33511  10.134  10.105   7.671  0.2042 -0.1325  0.0946
90595W        W33512  16.635   7.799   9.315 -0.2204  0.3412  0.2357
90596W        W33513  11.153  12.005   5.481  0.0520  0.1854  0.0667
90597W        W33514  13.376  10.710   9.219  0.2846  0.1759  0.1343
90598W        W33515  12.164   9.436   9.939  0.0660  0.0840 -0.0245
90599W        W33516  12.479  10.234   9.274 -0.2847  0.0174 -0.2393
90600W        W33517  14.160  10.794  10.452  0.1969  0.1995  0.2819
90601W        W33518  12.994  10.408   9.144 -0.0241  0.3146  0.0181
90602W        W33519  14.200   7.997   8.083  0.1386  0.0420  0.2094
90603W        W33520  15.689   8.675   9.730 -0.0821 -0.1768 -0.4448
90604W        W33521  11.069   6.021   7.822  0.2106 -0.1074  0.0561
90605W        W33522  14.645   7.350   8.511  0.2551  0.0635  0.2813
90606W        W33523  16.143   4.795   8.507  0.2045  0.2417  0.2996
90607W        W33524  12.384   9.387   8.348 -0.1237  0.1336 -0.0985
90608W        W33525   9.641   9.725   6.964  0.0424  0.0101  0.0596
90609W        W33526  11.358   9.528   6.375  0.1000  0.4580 -0.2549
90610W        W33527  15.156   8.631   9.544  0.0204 -0.2864 -0.0034
90611W        W33528   8.688   8.888   9.102 -0.1435 -0.0972  0.1170
90612W        W33529  10.177   6.202   8.206 -0.3126  0.1547 -0.0848
90613W        W33530  13.322  10.737   7.269  0.3625 -0.2132  0.2907
90614W        W33531  14.128   7.027   9.278  0.0140 -0.1757 -0.1819
90615W        W33532  12.111   8.411   9.006 -0.0182 -0.2004  0.0249
90616W        W33533  13.618  10.051   7.860  0.0660  0.0794  0.1030
90617W        W33534  13.109  11.524   8.713 -0.0666 -0.2131 -0.0486
90618W        W33535  12.277   7.947   7.574 -0.1501 -0.0227  0.2151
90619W        W33536  10.511   7.906   8.033  0.3555  0.0755  0.2476
90620W        W33537  11.924   6.993   6.500 -0.0331 -0.0414  0.0176
90621W        W33538  10.976   8.981   9.344  0.1301 -0.3161  0.0523
90622W        W33539  16.078  11.146  10.375  0.0157 -0.0735 -0.0299
90623W        W33540  14.358  12.488   6.820 -0.1101 -0.3931 -0.2321
90624W        W33541  12.983   8.889   9.780  0.1681  0.0929 -0.0281
90625W        W33542  15.536   9.754   7.619  0.4614  0.0726  0.4278
90626W        W33543  14.614  11.129   6.745  0.0992 -0.0988  0.1222
90627W        W33544  14.018   9.976   9.007 -0.2974  0.1140 -0.1960
90628W        W33545  13.463   8.172   7.686 -0.1580 -0.0192  0.0685
90629W        W33546  14.586   6.621   9.878 -0.1015  0.2518 -0.0425
90630W        W33547  10.864   6.613   9.190  0.2781 -0.1383 -0.0798
90631W        W33548  14.156   7.240   8.250 -0.0430  0.0765  0.0729
90632W        W33549  14.090  11.178   8.814  0.2404  0.0805 -0.4139
90633W        W33550  10.142  12.001   9.545  0.4171 -0.0452  0.0837
90634W        W33551  13.473   7.850   9.509  0.1279 -0.0737  0.1148
90635W        W33552  15.432  11.256   9.792  0.1380  0.0083 -0.1087
90636W        W33553  11.773   6.619   7.775 -0.2143  0.0746 -0.1853
90637W        W33554  15.378   9.629   8.158  0.3718  0.0355  0.3530
90638W        W33555  11.270  12.568  10.007  0.0498 -0.2476  0.3248
90639W        W33556  12.119  10.841   9.922  0.3528  0.0908  0.0672
90640W        W33557  13.709   9.005   8.481 -0.1522  0.3184 -0.2848
90641W        W33558  13.245   7.079  10.074  0.1114 -0.0199  0.0198
90642W        W33559  11.248  10.264   8.764  0.4256  0.2363  0.0129
90643W        W33560  13.361  10.201  10.428 -0.1664 -0.1094  0.0994
90644W        W33561  14.993   9.611   9.543  0.1738 -0.2006  0.1483
90645W        W33562  10.899   7.728  10.042  0.3716 -0.1335 -0.0579
90646W        W33563  14.477   7.906   7.700  0.2896 -0.0934 -0.0643
90647W        W33564  11.383  12.416   9.157 -0.0360 -0.0973 -0.1491
90648W        W33565  14.508   8.391   7.555 -0.0140  0.3786  0.1725
90649W        W33566  11.351  13.372   2.237 -0.1121  0.0143  0.2576
90650W        W33567  11.942  12.944   0.778 -0.0109  0.1311 -0.0430
90651W        W33568  13.336  12.091  30.361  0.3003 -0.1451  0.1997
90652W        W33569  13.687  14.265   1.559 -0.2028  0.0621  0.1792
90653W        W33570  11.394  13.937   1.025  0.3076  0.1017  0.1768
90654W        W33571  13.651  16.791  31.012 -0.3033  0.0704  0.3104
90655W        W33572  13.362  10.215   4.340 -0.1486  0.1583 -0.2537
90656W        W33573  12.840  14.711   0.487  0.2634  0.1424  0.1045
90657W        W33574  15.510  14.734   5.200  0.1133 -0.0292  0.0178
90658W        W33575  12.524  12.850  30.886 -0.0863 -0.2509 -0.1614
90659W        W33576  12.298  13.409   2.742 -0.0893  0.2766  0.0232
90660W        W33577  12.952  14.071   2.185 -0.1154  0.1290 -0.1119
90661W        W33578  13.426  11.585   0.063  0.0844  0.1118 -0.0480
90662W        W33579  10.220  11.649  31.045  0.3553  0.2714 -0.1010
90663W        W33580  14.041  13.043   2.239  0.2620 -0.0080  0.1106
90664W        W33581  12.666  13.753   0.205  0.2040 -0.1686 -0.3462
90665W        W33582  12.714  12.340   2.870  0.3942  0.0733 -0.3201
90666W        W33583  13.578  12.622   0.318 -0.1877 -0.0861 -0.0122
90667W        W33584  12.582  14.814   3.158 -0.1899  0.1013  0.0049
90668W        W33585  13.666  13.940   3.275 -0.1245  0.1226 -0.2296
90669W        W33586  15.063  14.150   3.970 -0.2445  0.2038  0.0400
90670W        W33587  11.821  14.153  31.663 -0.1951 -0.1793 -0.0035
90671W        W33588  11.638  12.383  29.898 -0.0330  0.2846  0.1311
90672W        W33589  10.376  14.660   0.166  0.3640 -0.0573  0.3470
90673W        W33590  13.111  11.033   5.523  0.1116  0.1610  0.3094
90674W        W33591  12.286  11.847   1.779  0.0323 -0.2114 -0.1884
90675W        W33592  14.330  14.017   2.152  0.1125 -0.2274  0.0266
90676W        W33593  13.766  14.471   0.731 -0.1800 -0.0233 -0.1139
90677W        W33594  12.707  15.674   0.220  0.0594 -0.0274 -0.0341
90678W        W33595  14.324  14.282   3.557 -0.1184 -0.4301 -0.0551
90679W        W33596  11.210  13.232   0.449 -0.2269  0.1234  0.2009
90680W        W33597  10.641  15.162   1.352  0.2970  0.2255  0.3868
90681W        W33598  12.782  13.330   1.029 -0.3076  0.0916  0.2640
90682W        W33599  14.210  13.343   1.601 -0.0754 -0.1231  0.0085
90683W        W33600  14.824  14.408   3.371 -0.0681 -0.0939 -0.2236
90684W        W33601  11.364  15.587   5.090 -0.0598  0.2047  0.0823
90685W        W33602  12.610  13.865  30.892 -0.2317 -0.1822  0.0786
90686W        W33603  12.647  14.905   1.509  0.0242 -0.2703  0.0669
90687W        W33604  14.103  17.200   3.115 -0.1254  0.0158 -0.0491
90688W        W33605  12.688  15.469   4.555  0.3599 -0.2588 -0.0592
90689W        W33606  12.175  12.629   1.842 -0.0990 -0.1368  0.3171
90690W        W33607  13.769  15.952  30.592  0.0397  0.1804  0.0521
90691W        W33608  15.217  14.127   1.606  0.0963 -0.1441  0.0232
90692W        W33609  12.404  12.739   2.350 -0.2423 -0.3132  0.0347
90693W        W33610  12.266  14.493   1.605 -0.0684 -0.1463 -0.0829
90694W        W33611  15.263  12.402   3.725  0.0069  0.0101 -0.1418
90695W        W33612  13.433  13.073  31.955  0.0162 -0.3699 -0.1522
90696W        W33613  14.435  12.355  31.219  0.0275 -0.1562  0.1973
90697W        W33614  12.709  13.013  30.436  0.0635  0.0368 -0.0240
90698W        W33615  13.795  11.271  31.843 -0.1289 -0.0507  0.0824
90699W        W33616  14.439  13.425   2.285  0.0909  0.2047  0.1448
90700W        W33617  12.959  13.888   1.683  0.0077 -0.0369 -0.1749
90701W        W33618  11.426  12.366   4.102 -0.1823  0.0573  0.2793
90702W        W33619  15.771  16.806   1.051 -0.0917  0.2008  0.0217
90703W        W33620  12.346  15.318  30.778  0.2175  0.1573  0.0978
90704W        W33621  12.937  13.358   3.416 -0.3859  0.1690  0.0184
90705W        W33622  13.801  12.844   3.469 -0.1310  0.1180 -0.3305
90706W        W33623  11.870  12.493   0.560  0.1111  0.2147 -0.0163
90707W        W33624  13.979  14.580  31.034 -0.1472 -0.2637 -0.2264
90708W        W33625  13.662  15.768   0.724 -0.1244 -0.3290  0.0469
90709W        W33626  13.296  14.928   2.189 -0.0456  0.1246  0.2581
90710W        W33627  10.121  13.736   0.141 -0.1668  0.2053  0.1311
90711W        W33628  13.042  12.467   4.042  0.3034  0.0806  0.0492
90712W        W33629  11.091  12.384   5.834 -0.0856  0.0042 -0.2009
90713W        W33630  12.359  11.271  29.805 -0.0769  0.0679  0.2429
90714W        W33631  13.659  14.098   3.757 -0.1743  0.0328 -0.0256
90715W        W33632  11.710  13.892   2.977  0.0218 -0.1740  0.3292
90716W        W33633  14.918  13.464   2.630  0.0722 -0.1639  0.3590
90717W        W33634  10.477  13.476   2.273  0.1434  0.0094 -0.2101
90718W        W33635  15.227  15.972   1.182  0.2481  0.0687  0.0125
90719W        W33636  12.509  14.999   3.641  0.3353  0.1649  0.1583
90720W        W33637  14.361  10.678   1.442  0.1000 -0.1389  0.2211
90721W        W33638  14.137  11.709   2.189 -0.1183 -0.0092  0.2493
90722W        W33639  13.095  11.641  31.658 -0.2283  0.0836 -0.0551
90723W        W33640  10.946  14.461   1.035 -0.0601  0.2730  0.1636
90724W        W33641  13.521  14.538   1.140 -0.1417 -0.1890  0.1158
90725W        W33642  14.014  14.614   0.303 -0.1124 -0.2001 -0.0838
90726W        W33643  12.505  14.661   1.973  0.2115  0.1127  0.2167
90727W        W33644  13.358  13.233   4.402  0.0192  0.3261  0.0745
90728W        W33645  12.082  14.981   2.829  0.0699 -0.1948 -0.0466
90729W        W33646   9.625  15.687  31.664 -0.0977  0.1718 -0.0461
90730W        W33647  11.829  13.671   1.429  0.2646  0.1223  0.1694
90731W        W33648  11.767  14.535  30.889 -0.3075 -0.2571  0.1158
90732W        W33649  12.000   9.922   3.561  0.2650  0.1157  0.1807
90733W        W33650  13.454  14.244   2.885  0.2794 -0.3960  0.2204
90734W        W33651  14.320  10.054   0.709 -0.1389 -0.2296 -0.1451
90735W        W33652  11.972  13.286   5.094  0.1318  0.1193  0.0924
90736W        W33653  13.136  12.330   1.395  0.1188 -0.0008 -0.0702
90737W        W33654  12.296  14.925   0.199 -0.1222  0.0990  0.1846
90738W        W33655  12.876  15.576   2.047 -0.2540  0.1569 -0.1526
90739W        W33656  14.052  13.578  31.430  0.0040 -0.3118 -0.1262
90740W        W33657  15.051  14.780  29.552 -0.2517  0.2062  0.0575
90741W        W33658  12.360  12.340   1.440  0.0504  0.1543  0.1123
90742W        W33659  10.897  14.061  30.153 -0.4610  0.2923  0.2657
90743W        W33660  13.320  13.639   3.117  0.0110 -0.1896 -0.1271
90744W        W33661  13.224  12.430   2.881  0.2275 -0.0910  0.4489
90745W        W33662  12.491  15.295   2.585 -0.0271 -0.0710  0.0902
90746W        W33663  11.846  10.058  31.852 -0.0748 -0.0268  0.0394
90747W        W33664  13.852  12.671   1.258  0.1522 -0.1611 -0.1004
90748W        W33665  11.865  11.865   2.240 -0.0110  0.0144 -0.0835
90749W        W33666  11.877  12.867   0.193 -0.1491 -0.1757  0.1870
90750W        W33667  13.622  12.811   4.442  0.2979 -0.1860 -0.2293
90751W        W33668  14.900  15.424  30.335  0.4108  0.1700 -0.3549
90752W        W33669  13.774  14.580   4.038  0.1114 -0.0172 -0.2224
90753W        W33670  15.344  13.689  29.418 -0.2102 -0.0381  0.1240
90754W        W33671  12.514  14.042   4.056 -0.0243 -0.1123  0.1416
90755W        W33672  11.496  11.743   2.507  0.3341 -0.1442  0.0163
90756W        W33673   9.704  14.468   0.235 -0.0138 -0.2421  0.2068
90757W        W33674  12.422  15.162  30.285 -0.0092 -0.0987 -0.1293
90758W        W33675  13.849  13.111   0.313 -0.0056  0.3245  0.1727
90759W        W33676  13.662  15.146  31.938 -0.1567  0.1406 -0.1789
90760W        W33677  14.539  13.452   1.212 -0.1470 -0.2128  0.0931
90761W        W33678  13.031  13.144   1.913 -0.0624  0.0246 -0.2672
90762W        W33679  14.802  11.049   2.694  0.0187  0.0388  0.3444
90763W        W33680  13.652  13.975   1.112 -0.0879 -0.3030 -0.3947
90764W        W33681  13.875  14.362   3.391  0.3472 -0.2281 -0.0048
90765W        W33682  12.955  11.520  29.866  0.2061  0.3557  0.1287
90766W        W33683  13.234  14.541   0.742 -0.1510 -0.2035 -0.0299
90767W        W33684  13.524  14.760  31.302 -0.0249 -0.2798  0.2336
90768W        W33685  11.871  14.897  31.806  0.0540 -0.0690 -0.1923
90769W        W33686  12.371  15.925   1.269 -0.0310 -0.0999  0.0363
90770W        W33687  12.647  11.808  31.416  0.0062 -0.0622  0.0400
90771W        W33688  11.204  12.815   2.050 -0.3076 -0.2083 -0.3072
90772W        W33689  14.427  10.787   2.534  0.0189 -0.3214  0.1901
90773W        W33690  11.796  12.854  29.845  0.1565  0.1945  0.3698
90774W        W33691  10.851  14.204   4.434  0.0235  0.0423  0.0628
90775W        W33692  12.009  12.957   3.280 -0.3005 -0.1123 -0.2829
90776W        W33693  13.851  12.337  31.037 -0.1703 -0.1297  0.1198
90777W        W33694  14.224  14.585   2.175 -0.2656  0.1385 -0.0642
90778W        W33695  12.041  14.083   1.722  0.2940 -0.1464  0.1996
90779W        W33696  13.636  11.779  27.679  0.2862  0.2257 -0.3912
90780W        W33697  14.855  13.645  30.351  0.0753  0.1219  0.0661
90781W        W33698  13.368  14.699   1.622  0.0775  0.1635  0.2534
90782W        W33699  12.798  12.368  30.927 -0.1526 -0.0953  0.1840
90783W        W33700  14.200  13.185   3.392  0.2827 -0.4292 -0.1129
90784W        W33701  12.614  13.368  31.782 -0.1712  0.2412 -0.3812
90785W        W33702  12.581  15.302  29.761 -0.1537 -0.1075  0.1620
90786W        W33703  13.100  15.240   1.306 -0.0591 -0.0339 -0.0253
90787W        W33704  13.156  15.525   4.590  0.0995  0.1686 -0.2021
90788W        W33705  13.781  13.364   1.323 -0.0451  0.1124  0.2186
90789W        W33706  14.351  12.638   2.197 -0.4318 -0.1047  0.0445
90790W        W33707  13.195  12.569  31.782 -0.5091  0.2939  0.4123
90791W        W33708  13.209  13.186   2.404  0.0088  0.1771 -0.0171
90792W        W33709  11.629  13.679  31.049 -0.0059  0.0837  0.0390
90793W        W33710  12.879  12.983   4.784  0.1032  0.0040  0.3193
90794W        W33711  10.272  11.313   3.199  0.1015  0.0674  0.0616
90795W        W33712  12.509  13.308   4.440 -0.2110  0.0270  0.1800
90796W        W33713  14.231  12.648   3.252  0.4466  0.8464 -0.2420
90797W        W33714  13.778  12.705  31.816  0.0472 -0.0261  0.3444
90798W        W33715  12.567  14.840   4.590 -0.1551 -0.0008 -0.1315
90799W        W33716  12.356  11.954  31.867  0.2964 -0.0619  0.0164
90800W        W33717  14.702  12.512   3.095 -0.0802 -0.0496 -0.1024
90801W        W33718  13.279  12.837   3.186  0.0904 -0.2168  0.2267
90802W        W33719  12.828  15.010   0.951  0.0277  0.1343  0.1915
90803W        W33720  14.377  14.665   4.235  0.1928 -0.0978  0.0016
90804W        W33721  13.303  13.296   1.503  0.0305 -0.0847 -0.1884
90805W        W33722  12.019  10.624   4.181 -0.0695  0.2419  0.0166
90806W        W33723  13.725  10.905   1.652  0.0910 -0.0234 -0.0015
90807W        W33724  13.061  13.415   0.184  0.0093  0.3219  0.1123
90808W        W33725  12.362  14.398   0.610 -0.1558  0.1131  0.1702
90809W        W33726  11.858  12.627   2.592  0.2381 -0.0505  0.2364
90810W        W33727  12.512  14.791   2.558 -0.2104  0.4911 -0.0312
90811W        W33728  11.985  15.251  30.187  0.0688  0.1410 -0.1460
90812W        W33729  12.455  13.130   4.989 -0.2925 -0.0599 -0.1230
90813W        W33730  10.569  14.486   0.640 -0.3168 -0.1624  0.2744
90814W        W33731  14.563  12.682   1.635  0.3386  0.1368  0.1654
90815W        W33732  11.674  15.161   1.617 -0.0264  0.0490 -0.0154
90816W        W33733  10.196  11.744   1.694 -0.1235 -0.1132 -0.0983
90817W        W33734  11.511  14.121   1.520  0.2230  0.0065  0.1894
90818W        W33735  13.114  16.060   0.112 -0.0663 -0.1748 -0.4173
90819W        W33736  14.800  14.612  30.034 -0.0893 -0.1971 -0.2270
90820W        W33737  12.730  12.015   3.736 -0.1105  0.2464  0.2079
90821W        W33738  12.607  12.524   1.031 -0.2627  0.1274  0.1801
90822W        W33739  10.773  15.095   3.006  0.0508  0.0836  0.2665
90823W        W33740  13.684  12.438   3.216  0.3285  0.1155 -0.1825
90824W        W33741  13.396  11.888   1.039  0.1741  0.0769  0.0244
90825W        W33742  13.980  14.957   0.595 -0.1203 -0.1877 -0.2214
90826W        W33743  12.025  14.266   4.072 -0.0504 -0.1148  0.1574
90827W        W33744  12.477  11.152   0.856 -0.1788  0.1197 -0.0180
90828W        W33745  14.426  11.586   2.570 -0.4055 -0.0710 -0.0470
90829W        W33746  14.244  11.302   0.667  0.1026 -0.2896 -0.0081
90830W        W33747   9.355  11.478   1.302 -0.4742 -0.1664 -0.0683
90831W        W33748  11.308  14.636   1.704  0.1311  0.1331  0.1558
90832W        W33749  12.722  14.239  31.694 -0.1622  0.1216  0.2240
90833W        W33750  12.155  14.957   1.812 -0.0045 -0.0488 -0.1831
90834W        W33751  13.228  14.336   3.968  0.0446  0.0923  0.1737
90835W        W33752  13.205  13.643   1.159  0.0468  0.0115  0.2166
90836W        W33753  12.940  14.529   2.490  0.0720  0.0278  0.0451
90837W        W33754  12.935  12.966  31.704  0.0358  0.2423 -0.0368
90838W        W33755  12.869  12.777   2.783 -0.1995  0.4661  0.3712
90839W        W33756  13.840  11.957   0.783 -0.3467  0.2286  0.1179
90840W        W33757  12.151  13.623   4.123 -0.1418  0.0873  0.4677
90841W        W33758  11.420  12.214   2.281  0.2709 -0.3938 -0.0892
90842W        W33759  13.264  10.543   3.195 -0.3906  0.2188 -0.0472
90843W        W33760  14.775  14.945   1.213 -0.1598  0.1662 -0.2792
90844W        W33761  12.740  13.639   3.039 -0.1238  0.2854 -0.0325
90845W        W33762  12.340  10.227   1.849 -0.3600 -0.1621 -0.0037
90846W        W33763  11.586  15.394   1.142 -0.0202 -0.1968 -0.0806
90847W        W33764  14.030  12.345   0.064  0.2507 -0.3532  0.3707
90848W        W33765  11.848  12.453   3.150  0.0678  0.0051  0.3285
90849W        W33766  12.137  13.223   1.707  0.0599 -0.1657 -0.0866
90850W        W33767  12.934  13.774  31.710 -0.1739 -0.1298 -0.1059
90851W        W33768  10.467  14.575   3.989  0.1529  0.2260  0.2744
90852W        W33769  13.213  11.434   0.962  0.2514  0.0595 -0.0088
90853W        W33770  14.075  11.853   0.150  0.1289  0.0483  0.0210
90854W        W33771  12.547  14.040   3.153 -0.2276 -0.1231 -0.2985
90855W        W33772  14.771  12.571   3.654  0.1166  0.0081  0.1328
90856W        W33773  14.750  12.982  31.612  0.0873  0.2327  0.0378
90857W        W33774  14.427  13.671   4.425  0.0698  0.0039  0.0240
90858W        W33775  11.753  11.422   4.286  0.1239  0.2291  0.1299
90859W        W33776  14.074  15.481   0.644 -0.0696  0.0999 -0.3211
90860W        W33777  12.256  12.113   3.806  0.1733  0.0025 -0.3633
90861W        W33778  13.487  15.216   6.178  0.0766  0.2916 -0.2429
90862W        W33779  12.259  14.031   3.610  0.0767  0.0952 -0.0952
90863W        W33780  13.355  12.317   2.413  0.0359 -0.0402  0.2971
90864W        W33781  12.591  10.250   2.830 -0.1205  0.1197  0.0784
90865W        W33782  11.906  12.974   2.109  0.0250  0.3052  0.0320
90866W        W33783  11.871  16.561   1.838  0.1198 -0.1496  0.3935
90867W        W33784  14.300  12.208  30.490 -0.3682 -0.3796 -0.0379
90868W        W33785  14.384  13.971   1.285  0.1406  0.2018 -0.0318
90869W        W33786  12.819  13.417   1.532  0.1342 -0.1535  0.1541
90870W        W33787  15.895  13.546  30.570  0.4192  0.4957  0.0274
90871W        W33788  12.696  12.316  31.786  0.2544 -0.1988  0.2838
90872W        W33789  12.506  14.326   2.337  0.1381  0.1258  0.3255
90873W        W33790  12.516  11.886   2.946  0.1890  0.1332 -0.2163
90874W        W33791  11.700  14.686   3.216 -0.0135 -0.3382  0.2129
90875W        W33792  11.022  12.643   0.620 -0.1253  0.1593  0.0863
90876W        W33793  14.224  12.386   1.398 -0.0629  0.0102  0.3670
90877W        W33794  12.771  11.555   2.661 -0.0668  0.1328 -0.1748
90878W        W33795  13.090  15.299   2.365 -0.2305 -0.0297  0.0288
90879W        W33796  10.584  12.750   4.594  0.2257  0.2621 -0.1840
90880W        W33797  13.419  16.421   2.430 -0.0205 -0.1931  0.0818
90881W        W33798  14.218  10.989  31.781 -0.0566  0.1885 -0.0674
90882W        W33799  13.881  12.662   4.021 -0.0964  0.1697 -0.1251
90883W        W33800  15.539  11.071   0.414  0.0037 -0.2373 -0.1657
90884W        W33801  14.604  13.668  29.624  0.1382 -0.1589  0.0112
90885W        W33802  11.510  12.788   0.519 -0.0457 -0.0695  0.2570
90886W        W33803  15.243  14.609   3.176  0.1959  0.1968 -0.0389
90887W        W33804  12.178  12.123   0.669  0.1419 -0.1963 -0.1440
90888W        W33805  13.944  13.394   5.610 -0.0737 -0.1407 -0.2210
90889W        W33806  13.786  11.505   0.983 -0.0145  0.1852  0.1519
90890W        W33807  13.841  12.785   0.743 -0.1386 -0.2924 -0.1769
90891W        W33808  15.406   9.998  28.888  0.0207 -0.1599  0.1361
90892W        W33809   9.712  11.590   0.366  0.0411 -0.2745  0.0136
90893W        W33810   9.835  13.720   2.171 -0.1330  0.1674 -0.2605
90894W        W33811  12.622  12.597  31.344  0.0634  0.2536 -0.0122
90895W        W33812  13.207  13.074  30.378 -0.0012 -0.0255 -0.1964
90896W        W33813  14.322  14.288   2.593 -0.1359 -0.2099 -0.2480
90897W        W33814  14.203  15.735   4.852 -0.1467  0.0316  0.2808
90898W        W33815  13.532  11.152   1.277 -0.0407 -0.1284  0.1930
90899W        W33816  15.525  12.710   1.728  0.0946  0.0428 -0.1675
90900W        W33817  10.471  13.467  31.701  0.0738  0.2227 -0.0421
90901W        W33818  15.087  12.346   1.599 -0.0463  0.0838 -0.2230
90902W        W33819  10.434  14.514   4.529  0.1441 -0.0258  0.0339
90903W        W33820  11.826  13.519   1.916 -0.0540  0.1295 -0.0815
90904W        W33821  12.887  12.957   0.734  0.0227  0.0881  0.0343
90905W        W33822  14.001  13.227   2.712 -0.1247 -0.0212  0.2196
90906W        W33823  15.637  12.203   3.317 -0.0679 -0.0053  0.4874
90907W        W33824  12.728  13.793   1.197 -0.2205  0.0473  0.0497
90908W        W33825  12.378  12.893   2.820  0.1104  0.0609 -0.2698
90909W        W33826  13.013  15.187   3.760 -0.3206 -0.1130 -0.0704
90910W        W33827  11.405  12.888  31.935 -0.1999  0.0731 -0.1434
90911W        W33828  12.736  15.051   2.113 -0.4525 -0.2180 -0.2205
90912W        W33829  13.661  13.451   2.333  0.3002  0.0588 -0.1111
90913W        W33830  12.886  12.649   2.275  0.0403  0.0439  0.3679
90914W        W33831   9.982  13.179   3.267  0.2298  0.0529  0.1342
90915W        W33832  12.546  13.077   3.745 -0.1434 -0.1250 -0.1937
90916W        W33833  11.455  13.235   1.730  0.2153  0.1484  0.2517
90917W        W33834  10.278  11.293   1.926 -0.0353 -0.0422  0.1521
90918W        W33835  15.849  15.100  31.463 -0.1555  0.0075  0.0519
90919W        W33836  12.556  14.153   1.897  0.1469 -0.2932  0.1433
90920W        W33837  13.833  12.551   2.283 -0.1756  0.0085  0.1057
90921W        W33838  12.443  15.703   2.290 -0.3976  0.0559 -0.2366
90922W        W33839  13.567  14.522  29.867 -0.1724  0.3197 -0.1097
90923W        W33840  14.373  14.295  30.859  0.1337 -0.0835 -0.0476
90924W        W33841  14.373  14.622   0.952  0.0651  0.0031  0.3926
90925W        W33842  12.850  11.857  29.420 -0.0255 -0.0575  0.1359
90926W        W33843  11.095  15.308   1.061 -0.0176  0.2394  0.0114
90927W        W33844  10.358  14.359  31.572 -0.1724  0.2566 -0.0259
90928W        W33845  13.359  13.511  31.696 -0.0857  0.3955  0.0833
90929W        W33846  12.976  14.553   1.977 -0.0530 -0.4839  0.2827
90930W        W33847  13.879  15.005   4.540  0.0048 -0.1655  0.0359
90931W        W33848  14.654  11.793   0.109 -0.1955 -0.4588 -0.0421
90932W        W33849  14.512  13.619   2.975  0.1270  0.0840 -0.4272
90933W        W33850  12.867  10.481  31.290  0.0874  0.0757  0.0766
90934W        W33851  11.642  14.576   2.392  0.1096  0.2206 -0.0870
90935W        W33852  12.120  13.922   2.231  0.0080 -0.3530  0.3870
90936W        W33853  14.466  12.803  29.937  0.1000  0.0974  0.3396
90937W        W33854  11.228  13.819   4.024  0.1738 -0.0778  0.2008
90938W        W33855  13.847  11.004   2.890 -0.0576 -0.1323  0.1852
90939W        W33856  10.629  13.093   4.245  0.1818 -0.0549 -0.0097
90940W        W33857  15.149  14.037  30.432 -0.1994  0.1198  0.3038
90941W        W33858  10.440  13.077   2.003  0.0065 -0.0092  0.0818
90942W        W33859  12.998  12.890   1.223  0.1697 -0.1753 -0.1280
90943W        W33860  14.524  13.620   1.825  0.0298 -0.0790  0.1942
90944W        W33861  12.852  13.557  31.222  0.0417 -0.0741  0.0798
90945W        W33862  14.051  12.318   1.842  0.1435  0.1156 -0.1892
90946W        W33863  13.823  16.425   0.370 -0.1146  0.0621 -0.0613
90947W        W33864  13.096  15.128   1.781  0.1311 -0.1633  0.2163
90948W        W33865  12.457  15.413   1.875 -0.2586  0.3138 -0.1910
90949W        W33866  10.479  11.640   2.851 -0.1199 -0.1831  0.1574
90950W        W33867  14.126  12.315   0.584 -0.0634  0.1506  0.0470
90951W        W33868  12.601  13.709   3.519  0.0480  0.2463 -0.0489
90952W        W33869  12.761  14.268   3.659  0.3180 -0.0495  0.0408
90953W        W33870  11.905  11.106   0.931  0.0314  0.1938 -0.0831
90954W        W33871  14.308  11.827   0.643 -0.1824  0.1974  0.0434
90955W        W33872  13.677  14.097   4.217  0.1128 -0.0862  0.0284
90956W        W33873  11.681  11.741   0.065 -0.3308 -0.0778  0.4208
90957W        W33874  13.174  13.364   0.699  0.0650  0.0819  0.0714
90958W        W33875  14.086  13.716   2.493 -0.0582  0.0251 -0.0292
90959W        W33876  12.728  12.741  29.034 -0.0110  0.1659 -0.1614
90960W        W33877  14.787  15.492   6.384 -0.2704 -0.0330  0.0488
90961W        W33878  12.264  11.705   0.370  0.0020 -0.3441  0.2020
90962W        W33879  13.545  10.942   2.111  0.2016  0.1373 -0.1144
90963W        W33880  12.052  14.544   1.109 -0.0361 -0.0862  0.3497
90964W        W33881  12.709  11.753   2.073 -0.1347 -0.1539 -0.0143
90965W        W33882  14.384  15.272   3.329  0.1489 -0.0006  0.1178
90966W        W33883   8.862  10.258   2.526  0.0007 -0.2358 -0.0759
90967W        W33884  15.510  14.086  29.741 -0.0518 -0.0458 -0.1488
90968W        W33885  13.009  13.231   2.908 -0.3379  0.0433  0.1914
90969W        W33886  12.696  13.202   2.449 -0.0567  0.0121  0.0320
90970W        W33887  12.603  14.461  30.436  0.0787  0.1583  0.1005
90971W        W33888  14.227  14.808   2.636 -0.1690  0.2666  0.1182
90972W        W33889  10.547  10.808   2.930 -0.2382  0.0603 -0.2880
90973W        W33890  13.757  15.758   3.973  0.1420  0.0208  0.1753
90974W        W33891  14.228  14.285   1.701 -0.1991 -0.0285  0.0793
90975W        W33892  14.209  11.383   0.190 -0.1396 -0.0300  0.2387
90976W        W33893  12.998  13.624   2.579 -0.1157 -0.3278  0.1676
90977W        W33894  13.633  13.504   0.872  0.2436 -0.3374 -0.1503
90978W        W33895  14.119  12.143   3.097  0.4129  0.1687 -0.2149
90979W        W33896  14.029  11.851   1.723  0.1671  0.1557 -0.1665
90980W        W33897  13.704  15.667  31.188 -0.0807 -0.0056 -0.0601
90981W        W33898  15.332  12.341   2.074 -0.2724 -0.3820  0.0077
90982W        W33899  11.749  16.204   0.473  0.1917  0.0990  0.3104
90983W        W33900  11.469  13.882   2.159 -0.0248 -0.1325  0.0545
90984W        W33901  12.168  13.293   0.274  0.2389  0.3111 -0.2832
90985W        W33902  11.874  14.581   3.738 -0.1388  0.3801  0.3340
90986W        W33903  13.064  14.532   3.097  0.3877 -0.0774  0.1116
90987W        W33904  13.173  13.877   0.162 -0.1723  0.0890 -0.2457
90988W        W33905  13.372  14.447   2.312 -0.1453  0.0055 -0.1289
90989W        W33906  13.828  15.763   2.157  0.2325 -0.0592 -0.2431
90990W        W33907  14.993  12.975   3.013 -0.4646 -0.1520  0.1480
90991W        W33908  13.130  11.028   3.065 -0.0385 -0.1663  0.0374
90992W        W33909  14.687  11.322   0.390 -0.1313 -0.5667  0.1049
90993W        W33910  13.804  11.905  30.772  0.0307  0.2910 -0.0537
90994W        W33911  12.143  14.471   2.658  0.1452  0.0994 -0.3948
90995W        W33912  12.093  13.786   0.402  0.2018 -0.2540 -0.1597
90996W        W33913  13.498  13.707  31.135  0.3227 -0.0086  0.0520
90997W        W33914  11.330  14.844   0.732  0.6215  0.5360 -0.1247
90998W        W33915  13.076  13.325   3.951 -0.3041 -0.1627 -0.1764
90999W        W33916  13.448  12.771   2.591 -0.1577  0.1353 -0.1282
91000W        W33917  10.826  14.478   3.702 -0.0360  0.0400 -0.0472
91001W        W33918  10.558  11.053   1.627 -0.2677 -0.2792 -0.0129
91002W        W33919  13.809  12.849  30.288 -0.1618 -0.0919  0.1046
91003W        W33920  13.424  11.257   2.635 -0.2845  0.0824  0.0123
91004W        W33921  11.880  14.214   0.673 -0.1641 -0.1797  0.1975
91005W        W33922  13.164  14.135   1.280 -0.0589 -0.2053 -0.1987
91006W        W33923  12.677  14.257   0.237 -0.1183 -0.1717 -0.0499
91007W        W33924  14.163  13.479  30.380  0.0381  0.2206 -0.0967
91008W        W33925  13.269  15.818   2.928 -0.0494 -0.3506 -0.1880
91009W        W33926  13.409  12.580  30.474 -0.1443  0.3678 -0.0248
91010W        W33927  13.555  12.172   6.290  0.1886  0.1708 -0.0115
91011W        W33928  12.178  13.324   3.713 -0.0678 -0.1293 -0.1052
91012W        W33929  11.546   8.889  31.380  0.0326  0.0857  0.1345
91013W        W33930  12.091  10.589   2.801  0.0204 -0.0534  0.0467
91014W        W33931  12.698  15.141  31.125  0.2219 -0.0140  0.0384
91015W        W33932  15.353  15.895  30.813 -0.2873 -0.0152 -0.1203
91016W        W33933  13.402  15.302   2.767  0.0845  0.0956  0.0284
91017W        W33934  13.503  15.498   1.514 -0.1141  0.0305  0.2402
91018W        W33935  11.973  11.612   3.750  0.2020 -0.2078 -0.0410
91019W        W33936  13.537  13.761   1.608 -0.1082  0.0628  0.1321
91020W        W33937  13.364  15.629   1.964 -0.0572  0.1265  0.1265
91021W        W33938  13.552  15.927   1.212 -0.3482 -0.1683 -0.1203
91022W        W33939  14.026  10.923   2.244 -0.3845 -0.3585  0.1586
91023W        W33940  13.013  11.964   2.658 -0.0224  0.0624  0.1720
91024W        W33941  11.487  11.731   3.562  0.1304 -0.1386 -0.1999
91025W        W33942  13.078  11.592   1.478 -0.0286 -0.1022 -0.1150
91026W        W33943  15.112  14.645   1.729 -0.0024 -0.1309 -0.3911
91027W        W33944  11.524  11.248   1.251 -0.2399 -0.0776 -0.3766
91028W        W33945  12.115  12.377   0.131 -0.0174 -0.2406 -0.0892
91029W        W33946  13.044  14.652  31.017  0.0261 -0.1457  0.0389
91030W        W33947  12.124  12.801   3.827 -0.1800  0.0122  0.4269
91031W        W33948  14.624  10.575  31.619  0.1863  0.3320 -0.1282
91032W        W33949  13.849  12.869   2.963  0.0926 -0.0404 -0.0590
91033W        W33950  12.414  12.994   1.025 -0.0977 -0.0093  0.1522
91034W        W33951  14.681  12.972   1.270 -0.0384 -0.1836 -0.2146
91035W        W33952  12.525  12.294   2.040  0.1940 -0.2103 -0.0324
91036W        W33953  14.978  13.812  29.912 -0.0562  0.0006 -0.1123
91037W        W33954  14.687  16.685   2.148  0.2168  0.3876 -0.0514
91038W        W33955  14.209  14.720   5.468  0.1382 -0.2894 -0.0995
91039W        W33956  11.980  13.490   3.123 -0.0966  0.2314  0.0151
91040W        W33957  14.175  14.064   0.286  0.3066  0.2374 -0.1667
91041W        W33958  11.732  13.270   0.024 -0.3808  0.0646 -0.0142
91042W        W33959  10.380  13.971   2.150  0.2165 -0.5313 -0.0638
91043W        W33960  13.327  12.769   2.103  0.2652  0.1391  0.2595
91044W        W33961  13.439  10.369   1.793  0.0836 -0.1101 -0.1360
91045W        W33962  11.166  12.082   1.742  0.0775  0.1099 -0.1356
91046W        W33963  14.524  11.215  31.320  0.2502 -0.0972  0.1092
91047W        W33964  12.933  12.969   4.299 -0.0258  0.0190 -0.0961
91048W        W33965  14.037  11.939   1.229  0.0414 -0.1893 -0.2327
91049W        W33966  11.754  14.284   7.794  0.1570  0.3332  0.1462
91050W        W33967  12.750  13.507   4.873  0.2571 -0.2245 -0.0992
91051W        W33968  14.893  11.635   3.346  0.1079  0.0153 -0.2803
91052W        W33969  14.170  14.878   6.863  0.0545 -0.0252  0.0201
91053W        W33970  10.555  12.481   5.838 -0.2221  0.3977  0.1065
91054W        W33971  14.018  15.143   5.004  0.2724  0.0965  0.3084
91055W        W33972  11.135  13.334   6.629 -0.0967  0.0456  0.4347
91056W        W33973  12.632  14.448   5.576  0.2508 -0.2051  0.0060
91057W        W33974  13.319  14.753   7.583 -0.3364 -0.1957  0.3014
91058W        W33975  13.002  14.529   4.684 -0.3086 -0.0552  0.0955
91059W        W33976  12.253  13.687   7.396 -0.1186 -0.0196 -0.1476
91060W        W33977  13.733  14.025   5.941 -0.1101  0.0230 -0.1317
91061W        W33978  11.734  11.152   4.779  0.2424 -0.1663  0.1584
91062W        W33979  11.097  12.241   2.703 -0.3471  0.1709  0.2970
91063W        W33980  14.078  13.737   6.550  0.0995  0.1350 -0.3469
91064W        W33981  11.034  13.435   4.267  0.0875 -0.2002  0.0677
91065W        W33982  11.581  12.372   5.730  0.1729  0.1090 -0.2236
91066W        W33983  12.964  13.843   3.937  0.1405  0.1354  0.0695
91067W        W33984  13.229  15.902   5.712  0.0056  0.1066 -0.2244
91068W        W33985  12.770  10.959   8.186  0.1596 -0.0142 -0.0699
91069W        W33986  14.022  10.013   6.325 -0.0711 -0.3414 -0.3000
91070W        W33987  12.764  16.276   3.491 -0.0442 -0.5556 -0.4722
91071W        W33988  12.623  13.166   0.371 -0.3565  0.1049 -0.4885
91072W        W33989  11.996  11.148   7.480 -0.0098 -0.1019 -0.0806
91073W        W33990  10.284  13.348   4.532 -0.0450 -0.3292  0.0788
91074W        W33991  12.886  12.456   5.804  0.0378  0.0624  0.0480
91075W        W33992  13.231  13.377   6.608  0.2637 -0.2664  0.1212
91076W        W33993  11.581  14.692   4.179 -0.0626  0.0555 -0.1196
91077W        W33994  12.370  12.652   5.827 -0.1864 -0.2304 -0.0678
91078W        W33995  12.029  12.776   6.595  0.2594 -0.1673 -0.4989
91079W        W33996  11.128  12.821   6.612  0.0461  0.1565  0.0032
91080W        W33997   9.898  14.312   2.434 -0.1167  0.3054 -0.0612
91081W        W33998  11.320  15.544   4.073  0.1993 -0.0891 -0.1723
91082W        W33999  13.442  14.392   5.539 -0.1099  0.3806  0.1399
91083W        W34000  13.907  14.933   6.408 -0.3600 -0.0644  0.2211
91084W        W34001  12.553  15.179   8.568 -0.0905  0.0516 -0.2897
91085W        W34002  10.357  15.015   3.776 -0.0071  0.1434  0.3295
91086W        W34003  13.428  14.176   7.912 -0.1878  0.1150  0.0130
91087W        W34004  12.555  15.772   7.326 -0.2759  0.1279  0.0747
91088W        W34005  12.114  13.449   6.448  0.3319  0.2373 -0.2863
91089W        W34006  12.598  10.609   5.053  0.0350 -0.0031  0.0303
91090W        W34007  12.227  15.434   4.325  0.0218 -0.0754 -0.4961
91091W        W34008  12.378  12.833   4.247 -0.0082 -0.1127  0.0827
91092W        W34009  10.570  12.856   6.491 -0.1053  0.1428  0.2858
91093W        W34010  11.379  15.980   4.691 -0.0075 -0.0224  0.1619
91094W        W34011  13.016  11.740   7.654 -0.0271 -0.3419 -0.1645
91095W        W34012  12.148  14.976   1.317  0.1447 -0.2287  0.0792
91096W        W34013  13.377  12.851   4.039 -0.0104 -0.1196  0.0633
91097W        W34014  12.172  13.999   2.853 -0.1882 -0.0118  0.2779
91098W        W34015  14.195  11.177   5.611 -0.3850 -0.3051  0.1223
91099W        W34016  12.157  12.765   5.231 -0.1965 -0.2911  0.1829
91100W        W34017  12.018  15.589   6.418 -0.0926 -0.1295 -0.0433
91101W        W34018  12.280  10.898   6.761  0.1943  0.0026  0.1289
91102W        W34019  13.838  14.915   7.384 -0.1495 -0.2404  0.0449
91103W        W34020  12.276  13.577   4.789  0.2311  0.2014 -0.0809
91104W        W34021  11.656  11.741   6.873  0.3631 -0.1194 -0.1274
91105W        W34022  11.538  13.987   5.490  0.0948 -0.1430  0.0365
91106W        W34023  12.060  11.828   6.507  0.1796 -0.4340  0.3999
91107W        W34024  13.958  14.497   4.555  0.0612 -0.0333  0.1790
91108W        W34025  14.193  14.483   5.024 -0.0829 -0.1987  0.1356
91109W        W34026  13.424  14.794   4.319 -0.0055 -0.3212 -0.0116
91110W        W34027  13.049  14.579   5.781 -0.0006  0.2911  0.1992
91111W        W34028  11.500  13.307   7.786  0.2424 -0.1838  0.0069
91112W        W34029  11.872  10.736   7.743  0.3080  0.2321 -0.1271
91113W        W34030  10.370  12.826   3.287  0.0214  0.2389  0.0602
91114W        W34031  13.699  13.633   6.896  0.1981 -0.0642 -0.0956
91115W        W34032   9.972  12.403   7.078 -0.0823  0.0534 -0.0145
91116W        W34033  13.671  12.037   3.898 -0.1223 -0.0719  0.3317
91117W        W34034  11.798  13.268   5.617  0.1681 -0.1404 -0.0246
91118W        W34035  15.046  14.537   6.756  0.0305 -0.0231 -0.3576
91119W        W34036  12.899  15.760  31.685  0.2779 -0.4199 -0.0250
91120W        W34037  14.711  13.099   5.188 -0.1345  0.0112  0.1875
91121W        W34038  12.954  13.904   6.389 -0.1866  0.0240 -0.0558
91122W        W34039  13.483  11.727   2.482 -0.1010 -0.1788 -0.0845
91123W        W34040  13.392  14.369   3.468 -0.0861  0.1554 -0.2104
91124W        W34041  14.870  14.033   6.735 -0.2882 -0.0004 -0.1153
91125W        W34042  13.910  12.945   5.350  0.3608 -0.2004  0.0553
91126W        W34043  12.167  15.659   4.794 -0.1824  0.2567  0.1880
91127W        W34044  12.092  12.232   5.652  0.1262 -0.2281  0.1060
91128W        W34045  11.905  14.124   6.665 -0.1014  0.1147 -0.2263
91129W        W34046  12.831  15.711   2.548 -0.1416  0.0671 -0.0130
91130W        W34047  11.457  12.840   4.294  0.0213 -0.2111 -0.0580
91131W        W34048  10.677  12.872   3.755 -0.0509 -0.2123  0.3484
91132W        W34049  11.442  13.329   7.054 -0.0494 -0.2462 -0.2072
91133W        W34050  12.511  14.159   6.533 -0.0523  0.2449  0.3556
91134W        W34051  12.435  12.577   4.832  0.1198  0.2071 -0.4919
91135W        W34052  12.421  13.011   7.756  0.1134 -0.1000  0.1587
91136W        W34053  13.360  10.313   5.011 -0.0349  0.3117  0.0926
91137W        W34054  12.220  14.450   3.196 -0.4597 -0.1713 -0.1426
91138W        W34055  13.381  16.288   5.381  0.1901  0.3546 -0.1465
91139W        W34056  12.080  13.126   4.618  0.0525  0.1719 -0.0694
91140W        W34057  13.291  13.726   3.604 -0.4280 -0.3650 -0.0356
91141W        W34058  10.776  12.355   5.414  0.3164  0.3395 -0.1799
91142W        W34059  12.225  14.368   6.015  0.2078  0.2400  0.3184
91143W        W34060  10.094  15.067   7.922  0.2471 -0.0627  0.0707
91144W        W34061  11.212  12.070   4.623  0.2093  0.0046 -0.1160
91145W        W34062  13.970  12.831   6.981  0.2350 -0.0081  0.0088
91146W        W34063   9.877  10.538   3.634 -0.3539 -0.2082 -0.0810
91147W        W34064  13.774  12.070   5.379 -0.0156 -0.0129  0.1087
91148W        W34065  11.882  14.905   6.636 -0.0821 -0.0564 -0.1344
91149W        W34066  10.891  15.051   3.759 -0.1482 -0.0044  0.0381
91150W        W34067  13.109  12.406   6.337 -0.0098  0.0144  0.2322
91151W        W34068  12.161  15.630   5.296  0.2957  0.0549  0.2335
91152W        W34069  13.995  13.403   7.831  0.2103 -0.1043  0.2534
91153W        W34070  14.703  15.704   4.654  0.1361  0.2101 -0.1145
91154W        W34071  12.424  10.741   7.725  0.0154  0.0961  0.2783
91155W        W34072  13.002  12.142   2.070  0.1232 -0.1635  0.0330
91156W        W34073   9.530  15.545   6.650  0.1807 -0.0540  0.2008
91157W        W34074  11.412  12.885   5.744 -0.0588 -0.0896 -0.1195
91158W        W34075  10.957  11.749   4.428 -0.3232  0.2795  0.1156
91159W        W34076  15.020  13.895   4.524  0.1276  0.1508 -0.2644
91160W        W34077  10.769  13.873   4.018 -0.0861  0.0715 -0.2469
91161W        W34078  12.143  14.794   5.676 -0.2191  0.0880 -0.3998
91162W        W34079  12.654  12.356   6.817 -0.1587  0.1811  0.0581
91163W        W34080  13.870  13.872   5.404 -0.3962  0.1967  0.1425
91164W        W34081  12.693  10.997   4.653 -0.1546 -0.0882 -0.0433
91165W        W34082  12.350  10.598   4.577  0.1258  0.2763  0.0610
91166W        W34083  12.981  13.745   5.892  0.1461 -0.2108 -0.1114
91167W        W34084  13.290  13.599   2.019 -0.3629 -0.1311 -0.0742
91168W        W34085  11.873  13.128   4.145  0.1263 -0.2142  0.1155
91169W        W34086  13.170  15.758   4.018  0.1860 -0.4251 -0.1788
91170W        W34087  13.877  12.378   6.735 -0.3846  0.0468 -0.0409
91171W        W34088  11.309  13.894   9.238 -0.2314 -0.0652 -0.1639
91172W        W34089  12.349  13.666   6.836  0.3177 -0.0605  0.1890
91173W        W34090  12.165  11.762   5.456  0.1979 -0.0351  0.2839
91174W        W34091  13.077  16.929   6.701 -0.0558  0.0826  0.0906
91175W        W34092  13.620  10.789   4.523  0.3984  0.0525  0.5300
91176W        W34093  13.940  11.852   2.677  0.0796 -0.0865 -0.1534
91177W        W34094  13.044  11.937   6.094 -0.1038  0.0745  0.3059
91178W        W34095  12.580  13.811   4.500  0.0679 -0.2010  0.2429
91179W        W34096  14.538  11.117   1.698 -0.0920  0.2965 -0.0993
91180W        W34097  12.358  12.016   4.780 -0.1546  0.1903  0.2374
91181W        W34098  11.819  14.078   9.173  0.2066 -0.2377 -0.1992
91182W        W34099  13.453  14.359   4.701 -0.1569 -0.3164 -0.1476
91183W        W34100  12.505  14.642   5.091 -0.0508  0.0635 -0.2782
91184W        W34101  13.269  11.146   6.885  0.2613 -0.0447  0.4021
91185W        W34102  14.835  12.776   5.582  0.0969 -0.0146  0.0334
91186W        W34103  11.890  12.766   5.751 -0.1948 -0.0547 -0.0304
91187W        W34104  13.458  13.493   8.610  0.3982  0.1034 -0.1822
91188W        W34105  11.851  15.346   5.035 -0.0764 -0.1950  0.1733
91189W        W34106  12.077  10.084   6.003  0.2922  0.1153 -0.1700
91190W        W34107  12.724  11.632   5.233 -0.2574  0.3433  0.0911
91191W        W34108  13.588  10.801   5.071 -0.1826  0.1664 -0.2928
91192W        W34109  10.225  14.509   5.048  0.0973 -0.4098  0.0520
91193W        W34110  14.142  13.801   7.047 -0.3396 -0.1327  0.0980
91194W        W34111  13.190  12.210   7.656 -0.0946  0.0422 -0.1818
91195W        W34112  11.660  12.873   5.275  0.1413  0.2065 -0.1047
91196W        W34113  13.146  13.281   5.740  0.0446  0.2492  0.2202
91197W        W34114  12.734  12.445   4.439  0.2013 -0.0651  0.0194
91198W        W34115  12.132  14.021   4.553 -0.0491  0.2831 -0.1042
91199W        W34116  12.596  13.514   4.026 -0.0916  0.2306  0.2559
91200W        W34117  14.018  13.653   5.999 -0.2796  0.1521  0.2817
91201W        W34118  13.768  13.086   9.539 -0.3062 -0.1365 -0.1162
91202W        W34119  11.869  14.201   7.306 -0.1432 -0.2920  0.0642
91203W        W34120  16.090  12.653   6.367  0.3127 -0.0921 -0.2901
91204W        W34121  12.506  14.693   4.006 -0.0024 -0.0388 -0.0479
91205W        W34122  13.496  12.866   9.902  0.3375 -0.3630 -0.2497
91206W        W34123  13.007  13.592   5.334  0.2264  0.1485  0.4796
91207W        W34124  11.046  12.899   4.505  0.3910 -0.0855 -0.0851
91208W        W34125  11.825  14.619   5.308 -0.2243  0.0496  0.0872
91209W        W34126  13.373  11.826   8.338 -0.0526  0.0550  0.1480
91210W        W34127  12.551  15.303   5.204  0.0834 -0.1479  0.0967
91211W        W34128  13.520  13.191   2.893 -0.1771  0.1437  0.3778
91212W        W34129  13.235  11.197   6.030 -0.0569  0.3634  0.2204
91213W        W34130  11.396  12.585   4.731 -0.0598 -0.2840 -0.0450
91214W        W34131  13.703  12.652   6.220 -0.0613 -0.0326  0.0730
91215W        W34132  11.533  14.809   5.962 -0.3278 -0.0319  0.2544
91216W        W34133  11.220  15.058   4.106 -0.1274 -0.0518  0.0015
91217W        W34134  11.524  12.805   6.980  0.0535 -0.0644 -0.0124
91218W        W34135  13.402  11.677   4.467  0.3986 -0.0857  0.1075
91219W        W34136  14.842  14.877   4.420 -0.0851  0.0547 -0.4717
91220W        W34137  11.106  11.381   6.244  0.0494  0.1168 -0.1347
91221W        W34138  11.913  13.026   6.170 -0.0700  0.0395  0.0822
91222W        W34139  11.686  15.555   5.459 -0.0942 -0.2646  0.2517
91223W        W34140  12.982  14.079   5.519 -0.2744  0.1749  0.2671
91224W        W34141  14.082  10.959   4.312  0.0633 -0.3466 -0.0933
91225W        W34142  13.428  14.845   4.881  0.1303  0.2648  0.2662
91226W        W34143  11.693  13.527   6.197  0.2736  0.0915 -0.1019
91227W        W34144  10.930  12.783   5.604  0.2447  0.1754 -0.1945
91228W        W34145  14.978  12.353   7.646 -0.3072 -0.3377  0.0693
91229W        W34146  13.129  12.903   3.648  0.1684 -0.4086  0.6034
91230W        W34147  10.987  15.767   4.859 -0.4486  0.1856 -0.1030
91231W        W34148  13.555  15.762   6.081  0.0499  0.2704 -0.1542
91232W        W34149  11.726  13.587   4.689  0.0103  0.0811  0.0109
91233W        W34150  11.144  16.417   3.330 -0.0409  0.0888  0.1594
91234W        W34151  12.684  12.660   5.365  0.0814 -0.2566  0.1988
91235W        W34152  12.780  12.765   9.173  0.0610  0.2015 -0.3397
91236W        W34153  11.220  10.969   5.508  0.0382  0.1409 -0.1499
91237W        W34154  11.422   9.032   4.238 -0.0748 -0.0064 -0.2102
91238W        W34155  13.047  11.485   5.724 -0.0389 -0.0039  0.0040
91239W        W34156  12.595  14.622   7.096 -0.3053  0.1741  0.2059
91240W        W34157  12.687  11.900   5.638  0.2399  0.1508 -0.2624
91241W        W34158  12.213  14.560   6.574  0.5068  0.1857 -0.4226
91242W        W34159  12.726  11.910   6.491  0.0420  0.3404  0.1161
91243W        W34160  16.234  12.800   5.254 -0.0009 -0.2770 -0.2434
91244W        W34161  12.595  12.331   8.274  0.0326 -0.0511 -0.4391
91245W        W34162  10.836  13.347   3.865 -0.3380 -0.1384 -0.0476
91246W        W34163  10.720  11.642   6.493  0.1116  0.0846  0.1251
91247W        W34164  10.626  14.794   3.410  0.1318  0.0988  0.0636
91248W        W34165  12.298  13.134   5.544  0.0725 -0.1488  0.0639
91249W        W34166  12.129  11.031   4.488  0.1554 -0.0684  0.1162
91250W        W34167  10.275  13.997   5.250 -0.0797 -0.1793  0.1590
91251W        W34168  11.268  14.349   4.555  0.2788  0.1850  0.2175
91252W        W34169  14.293  11.608   5.043  0.0762  0.1105  0.0211
91253W        W34170  13.470  13.676   4.052 -0.2130  0.1149  0.2419
91254W        W34171  12.223  11.245   5.418 -0.2495 -0.1130  0.2150
91255W        W34172  13.025  12.116   8.561 -0.0708 -0.1496  0.4074
91256W        W34173  14.072  13.639   4.752  0.0735  0.2473 -0.0329
91257W        W34174  14.219  12.369   6.246 -0.2077 -0.1771  0.1591
91258W        W34175  12.473  11.595   7.372  0.0894  0.1369  0.1589
91259W        W34176  11.672  15.022   5.532  0.1189 -0.1841 -0.1988
91260W        W34177  10.599  10.261   5.649  0.0440  0.0585  0.0580
91261W        W34178  12.034  13.593   9.138  0.0422  0.1131 -0.1364
91262W        W34179  10.943  14.805   8.012  0.2117 -0.1183  0.2831
91263W        W34180  12.377  11.924   6.912 -0.0411 -0.1968  0.1998
91264W        W34181  11.043  12.916   5.031 -0.0786  0.1086 -0.1969
91265W        W34182  12.228  12.974   9.301 -0.0796 -0.2755  0.1293
91266W        W34183  12.826  12.047   4.992 -0.3015 -0.0328 -0.0450
91267W        W34184  12.768  12.902   3.269 -0.1467  0.3483  0.1583
91268W        W34185  13.666  11.244   4.382  0.0090 -0.0202  0.0374
91269W        W34186  10.933  12.707   6.155  0.1059  0.0311 -0.1577
91270W        W34187  13.480  12.303   4.277 -0.0007 -0.3452  0.0322
91271W        W34188  13.255  11.707   5.309 -0.1027  0.1993 -0.1212
91272W        W34189  12.208  12.313   6.652 -0.0689 -0.0841  0.2974
91273W        W34190  10.781  11.146   6.774 -0.0078 -0.0233  0.1262
91274W        W34191  13.641  12.023   6.969 -0.1421 -0.0148  0.0427
91275W        W34192  12.916  13.236   7.024 -0.2280  0.1668 -0.0701
91276W        W34193  12.550  13.612   6.191  0.0351 -0.0960  0.2373
91277W        W34194  13.629  12.299   7.507  0.0955 -0.0012 -0.1831
91278W        W34195  11.847  13.333   7.348 -0.1624 -0.0331  0.0055
91279W        W34196   9.999  10.339   8.107 -0.0977 -0.3012  0.1259
91280W        W34197  14.254  15.772   6.708  0.0691 -0.0643 -0.0545
91281W        W34198  14.576  12.229   0.744  0.0836  0.0744  0.1572
91282W        W34199  13.706   9.049   7.109  0.1811 -0.3510  0.0432
91283W        W34200  12.606  13.968   5.154 -0.0927  0.0028  0.2063
91284W        W34201  13.758  13.176   6.457  0.0731  0.3531 -0.0719
91285W        W34202  13.470  12.424   5.823 -0.1362  0.1900  0.0255
91286W        W34203  13.197  11.950  10.166 -0.1210 -0.0986  0.2760
91287W        W34204  12.365  11.658   6.138  0.0648  0.1013 -0.2474
91288W        W34205  13.203  12.802   5.584  0.0666 -0.1018  0.2655
91289W        W34206  13.456  15.501   3.684  0.3268 -0.0823  0.3024
91290W        W34207  12.164  14.225   5.216  0.0673 -0.1646  0.4695
91291W        W34208  13.175  12.085   4.648 -0.0387 -0.2474  0.1288
91292W        W34209   9.709  11.734   5.374  0.1917  0.0607 -0.0592
91293W        W34210   9.688  12.116   8.672  0.0829  0.2988 -0.0652
91294W        W34211  11.121  14.178   1.978 -0.2464  0.3888 -0.1902
91295W        W34212  12.943  14.696   3.593  0.1628 -0.1256 -0.1597
91296W        W34213  12.099  13.903   6.290 -0.2603 -0.1539  0.1037
91297W        W34214  13.333  14.046   6.742  0.5009 -0.0288 -0.3408
91298W        W34215  12.731  11.352   3.197  0.1049 -0.0228 -0.0426
91299W        W34216  13.023  12.684   7.088  0.0251  0.0259 -0.1756
91300W        W34217  10.882  15.310   4.987 -0.2734  0.1111  0.1690
91301W        W34218  12.923  11.540   3.720  0.2141 -0.0006  0.2809
91302W        W34219  11.842  15.905   5.068  0.0302  0.1400 -0.0881
91303W        W34220  10.012  12.099   5.377  0.1721  0.0152 -0.0280
91304W        W34221  11.621  14.000   4.401 -0.0160  0.2441 -0.1824
91305W        W34222  13.471  11.872   5.802 -0.0838  0.1897  0.1114
91306W        W34223  12.763  12.928   5.837  0.0193  0.1649 -0.3698
91307W        W34224  12.458  13.123   6.213 -0.0709 -0.0245  0.2665
91308W        W34225  14.803  11.604   7.630 -0.2230  0.0448 -0.0600
91309W        W34226  12.783  15.505   6.057 -0.1511  0.2185  0.0301
91310W        W34227  12.921  13.712   6.836 -0.0820 -0.0710 -0.3588
91311W        W34228  12.298  16.097   4.855  0.1024 -0.1290  0.0338
91312W        W34229  13.804  15.558   6.493  0.2219  0.0163 -0.2628
91313W        W34230  11.227  14.265   3.418 -0.1025  0.0250  0.0082
91314W        W34231  11.771  12.529   8.221 -0.3560  0.3876  0.0611
91315W        W34232  12.712  14.177   6.015 -0.0258  0.1559  0.0262
91316W        W34233  14.477  11.599   6.492 -0.0375 -0.1657  0.2029
91317W        W34234  13.113  10.271   6.392  0.2438  0.0221 -0.2121
91318W        W34235  11.549  14.917   5.017 -0.0046  0.1463  0.2373
91319W        W34236  11.535  14.249   9.564 -0.3886  0.4261  0.2296
91320W        W34237  10.070  12.192   5.902  0.1983  0.0493 -0.0772
91321W        W34238  10.663  12.339   3.885  0.0954  0.0736 -0.1134
91322W        W34239  13.880  14.199   2.426  0.2571 -0.0622  0.0861
91323W        W34240  11.606  14.049   3.807 -0.4650 -0.0835  0.4008
91324W        W34241  12.628  15.264   4.070 -0.2304 -0.1271 -0.0087
91325W        W34242  12.666  11.040   5.323  0.0266  0.2432  0.1366
91326W        W34243  11.727  14.287   4.899  0.2664  0.1581  0.0216
91327W        W34244  10.235  15.249   3.220  0.0803 -0.0750  0.2304
91328W        W34245  14.153  14.199   4.049 -0.4073  0.0923 -0.1255
91329W        W34246  10.405  13.531   5.016  0.0908  0.0005  0.1244
91330W        W34247  12.367  13.889   5.729 -0.0353 -0.0483 -0.2780
91331W        W34248  14.113  10.514   0.478  0.2603 -0.3762 -0.0610
91332W        W34249  12.784  14.874   5.438 -0.0411  0.1227  0.0560
91333W        W34250  14.708  13.732   4.898 -0.2129  0.1987 -0.0050
91334W        W34251  14.062  14.676   8.249 -0.0696  0.1031 -0.0439
91335W        W34252  13.346  13.497   6.141  0.0795  0.0022  0.1625
91336W        W34253  11.333  12.886   3.383 -0.0804 -0.2774  0.2368
91337W        W34254  11.565  12.468   8.698  0.4262 -0.0777  0.1691
91338W        W34255  14.128  12.947   7.985 -0.0637  0.0873 -0.0907
91339W        W34256  11.778  13.800   7.518 -0.0064  0.1881 -0.1364
91340W        W34257  15.349  14.976   4.365 -0.2590  0.2575 -0.3182
91341W        W34258  10.548  12.957   5.869  0.2043 -0.3161  0.1679
91342W        W34259  13.401  13.947   5.177  0.0691 -0.0465  0.0662
91343W        W34260  14.095  10.232   5.670  0.0162  0.0001  0.0916
91344W        W34261  12.080  14.935   4.144  0.4728 -0.0381 -0.1695
91345W        W34262  12.874  13.136   5.380 -0.0001  0.1832  0.2403
91346W        W34263  12.438  15.914   7.785 -0.1778  0.2958 -0.2386
91347W        W34264  11.253  15.287   5.442 -0.0939 -0.4477  0.0888
91348W        W34265  14.252  15.304   6.447  0.1054  0.0694  0.0011
91349W        W34266  10.777  10.529   4.839  0.0122 -0.0539  0.1639
91350W        W34267  12.740  10.944   5.932 -0.0965 -0.2336  0.0509
91351W        W34268  11.397  12.816   7.973 -0.2862  0.0319  0.1881
91352W        W34269  13.482   9.461   5.869 -0.0826 -0.1323  0.1196
91353W        W34270  12.242  12.418   7.138  0.2707 -0.3577 -0.1246
91354W        W34271  13.305  12.058   3.489  0.2247 -0.2629  0.2581
91355W        W34272  11.232  12.153   6.858 -0.0911  0.2711 -0.2323
91356W        W34273  14.628  13.903   3.517  0.0291 -0.4962 -0.0194
91357W        W34274  15.451  14.435   5.940 -0.0402  0.1927  0.0032
91358W        W34275  14.234  14.125   4.570  0.1646  0.0210  0.1935
91359W        W34276  12.960  15.077   6.254  0.1056  0.3068 -0.2491
91360W        W34277   9.968  11.091   4.651 -0.0999  0.0899 -0.1015
91361W        W34278  15.114  12.920   3.536 -0.0887  0.2704  0.2766
91362W        W34279  11.446  14.145   6.539  0.1796 -0.2744 -0.0015
91363W        W34280  11.472  14.009   7.047 -0.1564 -0.0785  0.0854
91364W        W34281  12.518  14.465   7.922  0.2614 -0.2460  0.0978
91365W        W34282  14.010  12.515   4.975  0.1059 -0.0197 -0.2015
91366W        W34283  13.821  13.526   3.683 -0.0815 -0.0119  0.0192
91367W        W34284  14.061  13.087   6.042 -0.0517 -0.0416 -0.2159
91368W        W34285  11.246  15.503   3.551 -0.2320  0.0291  0.1823
91369W        W34286  12.106  14.912   3.392 -0.2480  0.1692  0.0346
91370W        W34287  14.466  15.570   5.591 -0.1458 -0.3154  0.1347
91371W        W34288   8.743  10.911   6.982  0.0155  0.0961  0.2010
91372W        W34289  15.297  14.047   7.520  0.1566 -0.0065  0.0338
91373W        W34290  14.092  14.388   7.121  0.0408  0.0998 -0.2799
91374W        W34291  13.880   9.018   5.665 -0.0221  0.0081 -0.1573
91375W        W34292  11.142  13.416   7.449  0.0755 -0.1643 -0.0539
91376W        W34293  10.417  14.753   2.964 -0.2655 -0.0710 -0.1496
91377W        W34294  14.435  13.485   7.343  0.2206 -0.0565 -0.1162
91378W        W34295  13.927  12.115   5.948 -0.0982  0.1573  0.3019
91379W        W34296  12.656  15.457   3.506 -0.0183  0.0769 -0.4160
91380W        W34297  14.532   9.836   6.339 -0.0670 -0.1864  0.2495
91381W        W34298  12.583  12.695   6.329  0.1243 -0.0705  0.0606
91382W        W34299  11.641  14.156  10.843  0.1432  0.0864 -0.1720
91383W        W34300  11.716  13.127   3.606 -0.0931  0.2536  0.0730
91384W        W34301  12.167  13.190   8.655 -0.1124 -0.2489 -0.1687
91385W        W34302  11.766  15.233   4.518  0.0115  0.3700  0.4345
91386W        W34303  11.897  13.778   5.185  0.1193 -0.3429  0.1307
91387W        W34304  14.724  13.823   5.472 -0.2557  0.0092  0.1033
91388W        W34305  11.314  11.164   5.052 -0.1991  0.2362 -0.0745
91389W        W34306  14.295  13.947   5.737 -0.0319  0.0086 -0.0735
91390W        W34307  13.519  11.223   5.406 -0.1434 -0.2466  0.1965
91391W        W34308  14.595  12.265   4.599  0.1052  0.0009  0.0188
91392W        W34309  14.518  11.326   3.436  0.0483 -0.0432  0.0028
91393W        W34310  11.784  12.348   6.924  0.0901 -0.0940 -0.1774
91394W        W34311   9.750  13.372   4.640  0.2152 -0.0840 -0.2015
91395W        W34312  11.189  14.274   3.965  0.0614  0.1722 -0.2314
91396W        W34313  10.954  15.946   6.292  0.0240 -0.1429 -0.0850
91397W        W34314  11.724   9.950   6.999  0.3138  0.0993 -0.0324
91398W        W34315  11.736  11.446   5.830  0.2308  0.1592 -0.2908
91399W        W34316  10.378  12.309   5.067 -0.1244 -0.3011  0.1626
91400W        W34317  13.404  10.720   4.107 -0.1265 -0.0814 -0.0969
91401W        W34318  13.208  14.064   4.356  0.2947  0.1668 -0.1543
91402W        W34319  10.680  13.011   7.007  0.0808 -0.1501 -0.1883
91403W        W34320  10.320   9.260   5.299 -0.1197 -0.2958 -0.2967
91404W        W34321  13.636  16.518   3.779 -0.1990  0.0509  0.0865
91405W        W34322  13.274  13.340   4.913 -0.0157  0.2234  0.3009
91406W        W34323  12.617  10.619   7.089 -0.1202  0.0660  0.1278
91407W        W34324  12.512  13.696   9.357  0.0950 -0.0857  0.2379
91408W        W34325  11.276  15.012   2.791  0.1107 -0.0886  0.0468
91409W        W34326  12.621  13.809   7.867  0.1033 -0.1565 -0.0036
91410W        W34327  12.705  10.556   6.468  0.2188  0.4001 -0.1250
91411W        W34328  10.782  13.279   4.732 -0.3668  0.1328  0.0179
91412W        W34329  12.639  13.421   5.710 -0.2902 -0.1513 -0.1040
91413W        W34330  12.907  14.992   4.948  0.0467  0.2465 -0.0490
91414W        W34331  12.774  15.959   3.080 -0.4974  0.3832 -0.0668
91415W        W34332  12.670  14.900   6.633 -0.1636  0.0022 -0.0517
91416W        W34333  14.370  14.129   6.710 -0.1770  0.3031  0.1421
91417W        W34334  11.213  11.772   6.534  0.0960  0.0895 -0.1763
91418W        W34335  15.345  13.611   4.202  0.0018  0.1629 -0.1058
91419W        W34336  11.426  14.755   6.487  0.0172 -0.1568 -0.2152
91420W        W34337  15.515  14.718   3.962  0.2004  0.2980  0.2146
91421W        W34338  13.818  11.694   7.364  0.2632  0.1055  0.1782
91422W        W34339  12.360  13.546   5.283  0.1559 -0.2241 -0.2811
91423W        W34340  10.235  11.108   6.793 -0.0966 -0.1054 -0.2147
91424W        W34341  12.839  12.010   9.735 -0.0881  0.3704  0.0452
91425W        W34342  14.882  13.776   7.264 -0.1695 -0.0004 -0.1667
91426W        W34343  10.890  11.267   5.816 -0.2155  0.3094 -0.0696
91427W        W34344  11.702  11.927   4.939 -0.1854 -0.1856 -0.0926
91428W        W34345  13.387  14.795   2.668  0.0526 -0.4241 -0.0778
91429W        W34346  12.088  13.206   6.866  0.1862 -0.0134 -0.3922
91430W        W34347  13.614  12.314   4.772 -0.0466  0.4173 -0.1770
91431W        W34348  12.754  12.996   8.307 -0.2040 -0.0798 -0.0078
91432W        W34349  11.588  11.560   6.351 -0.2467  0.1731 -0.0105
91433W        W34350  12.848  15.439   8.199  0.0491 -0.1247 -0.0150
91434W        W34351  11.106  12.507   3.723  0.1846 -0.1241  0.0260
91435W        W34352  13.723  14.056   7.222 -0.3146  0.0814  0.0957
91436W        W34353  13.240  14.247   7.313 -0.0635  0.0023  0.0684
91437W        W34354  15.769  14.101   7.686  0.0395  0.0667  0.0350
91438W        W34355  13.087  15.181   5.781 -0.0154 -0.0554 -0.0182
91439W        W34356  13.023  12.557   5.012 -0.2024 -0.1549 -0.0115
91440W        W34357   9.119  10.382   6.529 -0.0820  0.3273  0.0253
91441W        W34358  10.783  15.178   5.579 -0.2947 -0.0716 -0.0426
91442W        W34359  11.361  13.315   5.189  0.1420  0.0550 -0.3278
91443W        W34360  14.138  11.817   8.994 -0.2236  0.0102 -0.0223
91444W        W34361  11.997  12.484   6.205 -0.2793  0.2996 -0.0307
91445W        W34362  14.075  11.349   4.661  0.1114  0.3910 -0.1761
91446W        W34363  12.058  14.828   6.168  0.1009 -0.2260  0.1066
91447W        W34364  12.793  14.393   4.249  0.2137 -0.0541 -0.1344
91448W        W34365  12.801  13.511   9.791 -0.0526 -0.0707 -0.3283
91449W        W34366  11.556  12.414   9.648  0.0848 -0.0211 -0.3371
91450W        W34367  12.430  13.149   7.263  0.0853  0.0739  0.1196
91451W        W34368  14.553  10.899   9.641 -0.3485  0.0624 -0.0566
91452W        W34369  11.029   8.483   9.374  0.1458  0.2086  0.1162
91453W        W34370  11.038  16.260  11.281 -0.0225 -0.1733  0.0525
91454W        W34371  13.284  14.309  10.249  0.2113 -0.2311  0.1430
91455W        W34372  13.811  13.968   8.977  0.2838  0.0413 -0.5099
91456W        W34373  12.547  14.833   6.008 -0.1197 -0.3273  0.3127
91457W        W34374  10.511  12.924   9.736  0.3344 -0.0004  0.0561
91458W        W34375  10.468   8.788   8.678 -0.3717 -0.0098  0.2596
91459W        W34376  11.519   7.736  10.032 -0.1107 -0.0984  0.1190
91460W        W34377  11.904  10.670   9.433 -0.0995  0.5229 -0.2223
91461W        W34378  11.807  12.754   9.352  0.5766 -0.0702  0.0069
91462W        W34379  10.709  10.562   9.655  0.1187 -0.1613  0.0049
91463W        W34380  11.398  10.333   7.024  0.0357  0.2007  0.1789
91464W        W34381  14.077  13.857  10.596  0.2883  0.0084 -0.0018
91465W        W34382  12.400   9.940   8.250  0.0447  0.1085  0.0646
91466W        W34383  13.148  13.156   8.927 -0.2788 -0.5368 -0.5125
91467W        W34384  11.834  13.300   9.521  0.2161  0.0272 -0.0246
91468W        W34385   8.699  12.521   9.242  0.0306 -0.3005 -0.0613
91469W        W34386  10.721  14.903  11.202 -0.1148 -0.0639 -0.0625
91470W        W34387  12.331  12.549  10.050  0.1226  0.1572 -0.0500
91471W        W34388  14.776  12.627   9.271 -0.2098  0.0366  0.3369
91472W        W34389  11.791  13.144   8.203  0.0163 -0.2436  0.1370
91473W        W34390  13.923  13.622   9.851 -0.2547  0.0373 -0.0381
91474W        W34391  11.028  11.781   8.527  0.1826  0.0249  0.2378
91475W        W34392   8.032  14.817   9.333  0.1265 -0.1211  0.0377
91476W        W34393  12.030  14.032   8.692 -0.1268 -0.0077  0.0824
91477W        W34394  14.398  10.409  10.702 -0.0867  0.1799  0.1312
91478W        W34395  10.081  13.352  11.137  0.1026  0.2191  0.0692
91479W        W34396  12.663  12.362   8.859 -0.0791 -0.0054 -0.0084
91480W        W34397  11.461  13.915  10.385 -0.2716  0.0275  0.1831
91481W        W34398  12.290  14.099   9.157 -0.1166 -0.0944  0.1317
91482W        W34399  11.071  12.953  10.545 -0.0491 -0.1159 -0.1770
91483W        W34400  11.552  13.113   8.623  0.0043  0.0029 -0.0743
91484W        W34401  10.209  14.451   8.822  0.1973 -0.1290 -0.3172
91485W        W34402  14.142  13.278   9.113  0.1246  0.1509  0.0423
91486W        W34403  11.478  11.962   5.987  0.2616  0.1926 -0.2559
91487W        W34404  12.700  14.181   7.528 -0.0745  0.3064  0.0475
91488W        W34405  15.294  11.824  10.085 -0.1012 -0.2916  0.1274
91489W        W34406  10.808  13.422   9.805 -0.1769 -0.0509  0.1258
91490W        W34407  13.364  11.355  10.141  0.2010 -0.0092  0.1455
91491W        W34408  10.459  14.321  10.046 -0.0931  0.2875 -0.1010
91492W        W34409  11.798  13.519   8.554 -0.1912  0.3028  0.0150
91493W        W34410  10.303  13.635  10.763  0.1736 -0.2943  0.2833
91494W        W34411  10.695  11.449   9.368 -0.0291  0.0668 -0.0986
91495W        W34412  13.634  14.680   7.958 -0.2727 -0.1768 -0.0969
91496W        W34413  12.030  12.930   9.871  0.2339 -0.0366  0.1782
91497W        W34414  11.351  15.081   9.338  0.0241  0.2507 -0.1649
91498W        W34415  10.910  14.107  10.237  0.3031 -0.0220 -0.2966
91499W        W34416  10.982  10.059   6.992 -0.0362  0.1911  0.0768
91500W        W34417  14.498  10.586   8.187 -0.1288  0.1033  0.0637
91501W        W34418   9.693  12.626  10.110 -0.5052  0.0914 -0.0792
91502W        W34419  11.459  11.901  10.015 -0.0548 -0.1733 -0.1393
91503W        W34420  10.245  15.237   9.883  0.1145  0.0116  0.1713
91504W        W34421  12.840  11.795   9.223 -0.0023  0.0600  0.2586
91505W        W34422  13.734  10.536  10.052  0.1761 -0.0261  0.0494
91506W        W34423  10.888  14.918   8.910  0.1398  0.0860  0.0042
91507W        W34424  10.203  12.209   8.394 -0.0134 -0.0686 -0.0634
91508W        W34425  18.139  13.338  10.178  0.3166 -0.1983  0.1500
91509W        W34426  12.446  13.725   8.820 -0.1731  0.1936  0.0783
91510W        W34427   9.582  10.467   9.517 -0.0384  0.1453 -0.2614
91511W        W34428  11.184  15.444   6.349  0.1501 -0.1337  0.2661
91512W        W34429  10.119  11.974   6.380 -0.1263  0.0736  0.1941
91513W        W34430  11.373  12.900   9.106 -0.2862 -0.1842 -0.1509
91514W        W34431  11.547   9.404   8.602 -0.1612  0.2004  0.0472
91515W        W34432   9.967  13.542  10.195  0.0781  0.2853 -0.0883
91516W        W34433  12.766  13.676   7.309  0.2984 -0.0546 -0.0273
91517W        W34434  14.464  10.371   9.067 -0.1289 -0.2083  0.3198
91518W        W34435  11.897  12.828   8.854  0.0612  0.0722  0.0044
91519W        W34436  11.934  16.160   8.737 -0.2489 -0.1395 -0.2103
91520W        W34437  12.129  12.396   8.611 -0.0387 -0.0013  0.2219
91521W        W34438  13.909  15.103   8.545 -0.1321 -0.0914 -0.1972
91522W        W34439   7.526  11.607   7.690  0.1056 -0.0231 -0.0221
91523W        W34440  10.696  11.123   7.601 -0.3044 -0.1556 -0.3116
91524W        W34441  11.185  10.569   9.450  0.1614 -0.0002  0.0051
91525W        W34442  10.379  10.795   7.964 -0.1915  0.1859  0.0034
91526W        W34443  11.309  14.575  10.781 -0.0464 -0.2297  0.3008
91527W        W34444  14.187  12.592  10.197  0.1784  0.1870  0.1012
91528W        W34445  11.912  13.725   7.056 -0.0156 -0.2527  0.2437
91529W        W34446  12.338  15.013   7.790  0.0500 -0.1664  0.1396
91530W        W34447  15.756  14.852  10.201  0.1049 -0.0655  0.0651
91531W        W34448  15.963  13.472   9.000  0.1159  0.3194  0.0166
91532W        W34449  13.264  11.204   9.667  0.1788  0.3211  0.1416
91533W        W34450  12.529  11.820   7.898  0.1144  0.0777 -0.1279
91534W        W34451   9.983  13.200   8.892  0.0093  0.1328  0.0734
91535W        W34452   9.533  13.503   9.523  0.0391  0.2864 -0.1927
91536W        W34453  11.242  11.657   7.153  0.0698 -0.0044  0.1184
91537W        W34454  15.974  14.991   9.749  0.0271 -0.0532  0.1140
91538W        W34455  12.722  13.124  10.127  0.0593 -0.0188 -0.0516
91539W        W34456  15.390  15.344   9.955  0.1963 -0.1968 -0.1796
91540W        W34457  10.710  13.952  10.754  0.5012 -0.2672 -0.1248
91541W        W34458  11.047  12.058   7.316 -0.1432  0.1579  0.0856
91542W        W34459  15.440  13.037   9.731 -0.0429 -0.1754  0.1561
91543W        W34460   8.900  15.358   7.849  0.3825 -0.2605  0.3306
91544W        W34461  10.990  11.601   8.040 -0.2680  0.1061 -0.0203
91545W        W34462  13.217  15.718  10.167 -0.0010 -0.0312 -0.1663
91546W        W34463  12.755  12.324   9.355  0.0770  0.1336 -0.2696
91547W        W34464  14.000  11.911   7.801 -0.1604  0.2144 -0.0471
91548W        W34465  13.906  11.987   8.367  0.2448 -0.2345  0.3501
91549W        W34466  14.355  11.559   8.614  0.1137  0.0454 -0.1857
91550W        W34467  13.875  13.035  10.593  0.1179  0.1110 -0.1090
91551W        W34468  12.429  13.553  10.638 -0.2959  0.1476  0.0092
91552W        W34469  11.811   9.237   7.690  0.0780  0.2789 -0.0726
91553W        W34470  12.790  14.297  10.242  0.2168  0.1093  0.2174
91554W        W34471  10.399  11.753   9.052 -0.0668  0.2028  0.1356
91555W        W34472  11.641  11.101   8.260 -0.0874 -0.0044 -0.1618
91556W        W34473  14.845  13.883   9.713 -0.0943  0.2126  0.2771
91557W        W34474  12.318  12.019   9.278  0.1325  0.0611  0.6297
91558W        W34475  14.254  12.771   9.525 -0.5117 -0.2258 -0.2458
91559W        W34476   8.863  11.787   8.855  0.1065  0.0231  0.2590
91560W        W34477  12.637  12.709  10.442 -0.0890 -0.0928  0.1611
91561W        W34478  11.849  10.239   7.327  0.2231  0.0226 -0.0048
91562W        W34479  10.534  13.838   6.980 -0.0850 -0.5371  0.0120
91563W        W34480  12.618  10.814   8.972  0.2830 -0.0300  0.1082
91564W        W34481  11.714   9.532   9.205  0.1613 -0.2224  0.0492
91565W        W34482  14.297  11.428   7.929  0.0215  0.1480 -0.0906
91566W        W34483  13.178  12.383   8.928  0.0888 -0.2832 -0.0486
91567W        W34484  12.005  13.397   7.822  0.1855 -0.0547  0.3626
91568W        W34485  14.182  11.636   9.978  0.0148  0.4638  0.0281
91569W        W34486   9.583  15.516   8.832  0.1912 -0.2776  0.0722
91570W        W34487  12.870  13.324   9.294 -0.1478  0.2725  0.3243
91571W        W34488  12.630  11.831   8.519 -0.2233 -0.0987 -0.0397
91572W        W34489  10.427  13.711  10.247 -0.1872 -0.1569 -0.0742
91573W        W34490  12.137  14.992   5.176  0.1381  0.2420  0.1338
91574W        W34491  14.892   8.418  10.002 -0.2362  0.2878  0.0161
91575W        W34492  14.448   8.703  10.269 -0.0283  0.0762  0.3555
91576W        W34493  10.755  15.082   6.112 -0.0722  0.1011  0.1112
91577W        W34494  13.854  10.698  10.987  0.0112 -0.0531 -0.0208
91578W        W34495  12.737  11.190   8.692 -0.1056 -0.0260 -0.0648
91579W        W34496  14.639  10.137   8.376 -0.1981 -0.0511 -0.0065
91580W        W34497   8.584  13.573   8.951  0.0757  0.3552  0.2771
91581W        W34498  11.764  13.783   8.020  0.0551  0.1933 -0.2926
91582W        W34499  10.643  12.009   9.569  0.2113  0.1538 -0.1024
91583W        W34500  12.899  12.557  10.009  0.0402 -0.1198 -0.0038
91584W        W34501  12.929  12.956   6.576  0.0087  0.1665 -0.1575
91585W        W34502  11.433  11.828   8.853 -0.0213 -0.0970  0.0099
91586W        W34503   8.192   9.424   8.357  0.1814  0.2579 -0.2200
91587W        W34504  10.250  13.995   9.229 -0.2243 -0.2456 -0.1335
91588W        W34505  12.779  12.659   7.881  0.0183  0.1909  0.3713
91589W        W34506  10.770  11.736   6.965  0.0817  0.5770 -0.0782
91590W        W34507  14.858  12.078   9.978  0.0925 -0.1128  0.3382
91591W        W34508  12.152  10.257   9.692 -0.1776  0.1010 -0.1457
91592W        W34509   9.503  13.629  10.052  0.0057  0.0189 -0.3595
91593W        W34510  13.091  14.450   9.295  0.1094 -0.1023  0.1025
91594W        W34511  11.349  14.352   8.873 -0.0911  0.1840 -0.2673
91595W        W34512  12.176  14.706   9.032 -0.0415 -0.1892  0.0576
91596W        W34513  12.343  13.339   9.842  0.0475 -0.0242  0.0461
91597W        W34514  12.446  11.747  10.551 -0.0257  0.1761 -0.0896
91598W        W34515  12.025  11.882  10.167  0.0452 -0.1649 -0.2268
91599W        W34516  14.355  13.966  10.051 -0.1362 -0.0528  0.0085
91600W        W34517  14.708  11.941  10.614  0.3856  0.2442  0.0416
91601W        W34518  12.315  12.770   8.176 -0.0229 -0.0469  0.1884
91602W        W34519  14.149  10.237   9.981 -0.0511  0.0512  0.0077
91603W        W34520  12.208  14.038   7.750 -0.1609  0.0330 -0.1287
91604W        W34521  11.898  12.862   7.849 -0.2342 -0.1263 -0.0590
91605W        W34522   7.404  14.230   9.162 -0.1562  0.1046  0.3114
91606W        W34523  12.113  13.769   9.660 -0.1226 -0.1561  0.1423
91607W        W34524  12.950  10.315  10.161 -0.0143  0.1713  0.0281
91608W        W34525  10.915  10.996   8.589  0.0896 -0.0154 -0.0883
91609W        W34526  10.935  14.377   7.728 -0.0302  0.5352  0.1334
91610W        W34527  10.978  11.916   9.116 -0.1278  0.0088 -0.1245
91611W        W34528  14.032  12.212   7.248  0.0181  0.2941 -0.0906
91612W        W34529  12.794  14.130   9.057  0.1694  0.0447  0.0856
91613W        W34530  12.343  11.539   9.420  0.1503  0.1006 -0.3200
91614W        W34531  12.361  14.159   8.283 -0.1818 -0.1615 -0.0682
91615W        W34532  12.147  10.569   8.922 -0.1087  0.2281  0.1147
91616W        W34533  13.693  15.062   9.051  0.0239 -0.0602  0.0490
91617W        W34534  13.382  13.229   7.239  0.1931  0.0557  0.0575
91618W        W34535  11.888  11.092   9.031 -0.1294 -0.3567  0.2382
91619W        W34536  10.204  11.528   7.593  0.2350  0.2189  0.1666
91620W        W34537  15.232  12.393   9.891  0.0191  0.3185  0.1037
91621W        W34538  12.856  11.476   9.827 -0.0239 -0.3206 -0.2965
91622W        W34539  13.722  11.992   9.515  0.3547 -0.2855 -0.1299
91623W        W34540  12.626  15.535   9.883  0.1042 -0.0621  0.1554
91624W        W34541  13.096  14.445   8.770 -0.0446 -0.1313  0.2068
91625W        W34542  13.164  11.947   6.679 -0.0307  0.2058  0.0551
91626W        W34543  12.682  13.749  10.183  0.2015 -0.0346 -0.1858
91627W        W34544  15.067  10.886   9.581 -0.0585  0.1176 -0.1268
91628W        W34545  13.218  12.322   9.478  0.1603  0.0327  0.1354
91629W        W34546  14.026  12.238   9.881 -0.1589  0.0611  0.1533
91630W        W34547  14.099  12.487   7.616 -0.0585 -0.1811  0.2774
91631W        W34548  15.770  14.491   9.833  0.1586  0.2149 -0.0641
91632W        W34549  12.915  11.934   8.105  0.0768 -0.3232  0.2421
91633W        W34550  13.354  13.300   7.775  0.1242 -0.3367 -0.0270
91634W        W34551  10.885  11.427   8.920 -0.3211  0.1193  0.2469
91635W        W34552  11.386  10.005   6.607 -0.0517 -0.0393 -0.0737
91636W        W34553  12.067  12.861   7.317  0.2521  0.1569  0.1204
91637W        W34554  11.471  16.629  10.393  0.0687  0.2045  0.5420
91638W        W34555  10.774  12.320   8.310 -0.0005  0.0934  0.0363
91639W        W34556  11.206  11.705   9.616  0.0932  0.1120 -0.2839
91640W        W34557  12.504  12.818   6.840  0.1129  0.1123  0.1602
91641W        W34558  11.742  14.205   8.333 -0.2456 -0.2528  0.2592
91642W        W34559  13.757  11.572   9.183 -0.3020  0.2024 -0.2230
91643W        W34560  12.566   9.075   7.854 -0.0821  0.3457  0.1587
91644W        W34561  10.766  14.838   9.427  0.3485  0.4142 -0.1138
91645W        W34562  12.450  11.111   9.646  0.1322 -0.1851  0.0552
91646W        W34563   9.001  13.508   9.240 -0.0282 -0.0262  0.0652
91647W        W34564  13.073  13.885  10.445 -0.0851  0.0206  0.1810
91648W        W34565  15.183  12.160  10.478  0.0047 -0.0749  0.4577
91649W        W34566  15.187   9.642  10.030 -0.2742  0.1660 -0.1255
91650W        W34567  12.065  13.607  10.256 -0.2539 -0.1256 -0.0467
91651W        W34568  10.843  14.513   9.821 -0.0108 -0.3947 -0.1371
91652W        W34569  12.747  12.287  10.846 -0.3423  0.3948 -0.1685
91653W        W34570  10.910  13.436  10.716 -0.0459  0.0755 -0.0489
91654W        W34571  10.169  13.018  10.100 -0.0304 -0.0855 -0.0086
91655W        W34572  13.205  10.682   8.212 -0.2212 -0.2494  0.0661
91656W        W34573  12.957  14.202   8.085 -0.0772 -0.0826  0.0753
91657W        W34574  11.291  11.020  11.470 -0.2122  0.0750  0.0535
91658W        W34575  10.135  12.902   7.901 -0.2152  0.3606  0.1281
91659W        W34576  12.146  13.460   5.920  0.0754  0.1202  0.0662
91660W        W34577  13.041  14.992   8.484  0.2128  0.0030 -0.2102
91661W        W34578  13.977  12.142  10.460  0.3007 -0.3363  0.1055
91662W        W34579  12.192  12.455   9.592 -0.2866  0.2315  0.3161
91663W        W34580  10.759  14.486   8.898 -0.2200  0.4302  0.0744
91664W        W34581  10.088  14.250   9.634  0.1500 -0.2254  0.2106
91665W        W34582  12.797  15.366   9.342  0.2275 -0.0359 -0.1894
91666W        W34583   9.759  13.862   7.370 -0.3147  0.3527  0.0815
91667W        W34584  13.493  11.196   6.434 -0.0719  0.2558 -0.1338
91668W        W34585  14.697  12.383   8.264 -0.0879 -0.1862 -0.0145
91669W        W34586  12.756  11.446   8.197  0.0517 -0.2182 -0.2965
91670W        W34587  13.127  10.882   8.804  0.1410  0.0999 -0.1272
91671W        W34588  12.927  10.852   9.457 -0.1594  0.0434  0.0749
91672W        W34589  11.332  14.286  10.075  0.0727 -0.2880 -0.0316
91673W        W34590  11.733  11.476   8.638  0.2761  0.2656 -0.1467
91674W        W34591  11.685  13.355   9.997 -0.1815 -0.2533  0.2976
91675W        W34592  12.556  10.431   8.579 -0.2175 -0.2207  0.1188
91676W        W34593  11.572  13.058   4.821 -0.2216  0.1378 -0.1325
91677W        W34594  11.631  12.939  10.298  0.0160  0.0567 -0.0748
91678W        W34595  10.745  13.901   7.515 -0.0844  0.1483  0.1719
91679W        W34596   9.550  14.180   9.814  0.0828 -0.3931  0.1131
91680W        W34597  10.870  11.619  10.005  0.1429  0.2274  0.0095
91681W        W34598  11.733  12.050   8.495  0.1757 -0.2281  0.0640
91682W        W34599  12.997  12.992   7.493 -0.2645  0.0396 -0.0356
91683W        W34600  12.223  13.124  10.341  0.0374 -0.0953  0.1048
91684W        W34601  11.896  11.603   9.113  0.1164  0.0379  0.1906
91685W        W34602  14.585  13.161   9.308 -0.0611  0.2063 -0.1757
91686W        W34603  10.454   9.790   9.571 -0.2552 -0.0223 -0.1041
91687W        W34604   9.349  11.232   8.052 -0.0467 -0.1492 -0.2528
91688W        W34605  12.178  14.505  10.250 -0.1512 -0.2131  0.0750
91689W        W34606  14.086  14.778  10.855 -0.1882 -0.2302  0.0188
91690W        W34607  11.267  11.910   7.748 -0.3018  0.1591  0.0447
91691W        W34608  11.685  13.141   6.622 -0.1199 -0.2663  0.0888
91692W        W34609  10.886  13.573   8.897 -0.2126  0.3232  0.2255
91693W        W34610  12.815  11.504  10.391  0.1456  0.1727 -0.1762
91694W        W34611  10.888  10.215   9.369  0.1414  0.0139  0.2915
91695W        W34612  16.060  14.358  10.671  0.1347 -0.1867  0.1342
91696W        W34613  14.288  11.181  10.072  0.1533  0.1922 -0.0322
91697W        W34614  10.845  14.798   7.421  0.2342 -0.0326  0.2269
91698W        W34615  13.183  13.565   8.203 -0.0250 -0.2173 -0.0454
91699W        W34616  12.764  13.997   8.577  0.0439  0.0717 -0.0316
91700W        W34617   9.755  11.695   9.729 -0.0521  0.2680  0.0311
91701W        W34618  15.238  13.688   9.405  0.4160  0.4304 -0.0569
91702W        W34619  16.562  14.902   9.923  0.0840 -0.1408 -0.0886
91703W        W34620  12.344  10.036   8.829 -0.1926  0.0726 -0.0859
91704W        W34621  15.089  13.596  10.374  0.2352  0.0453 -0.0760
91705W        W34622  10.350  14.689  11.422 -0.0482 -0.2923  0.0952
91706W        W34623  13.606  11.190   8.702 -0.5872 -0.0645  0.0949
91707W        W34624  12.078  14.975  10.476  0.0961  0.2641 -0.1049
91708W        W34625  10.235  13.261   8.366 -0.3604  0.0241 -0.0676
91709W        W34626  10.964  11.804   5.980 -0.0123  0.3077  0.2909
91710W        W34627  12.736  11.267   9.259  0.2105 -0.0089  0.1580
91711W        W34628  12.376  12.647  10.831  0.1503 -0.1203  0.1010
91712W        W34629  13.442  14.416   9.723  0.2155 -0.3785 -0.1623
91713W        W34630  12.903  10.505  10.658 -0.1428 -0.0904  0.3435
91714W        W34631  13.723  12.590  10.347  0.1870  0.1127  0.0414
91715W        W34632  13.215   9.919   9.227 -0.0341 -0.1735  0.0102
91716W        W34633  13.139  12.193   7.154 -0.0851  0.0657 -0.2280
91717W        W34634  13.454   8.885   6.566 -0.1855  0.0958  0.0149
91718W        W34635  10.214  10.551   9.428  0.0759  0.0770 -0.0225
91719W        W34636  11.282  13.361   9.421 -0.0520 -0.1726 -0.2534
91720W        W34637  13.554  14.497   9.149  0.2398  0.1593  0.1123
91721W        W34638   8.325  11.079   8.789 -0.1062 -0.2522 -0.0305
91722W        W34639   9.552  13.136   8.649  0.0232 -0.1510 -0.0187
91723W        W34640  11.913  10.198   8.631  0.3812  0.1747  0.1864
91724W        W34641  14.837  12.438  10.634 -0.1313  0.0621  0.3078
91725W        W34642  13.084  10.323   8.622  0.1228  0.2967  0.2738
91726W        W34643  12.529  10.535  10.084  0.0720  0.0560  0.2631
91727W        W34644  12.839  13.218  10.620 -0.0215 -0.3039 -0.1191
91728W        W34645  12.976  12.728   8.673  0.0327  0.1449 -0.1787
91729W        W34646  10.483  10.125   9.061 -0.0170  0.2656 -0.3000
91730W        W34647  11.384  14.436   7.478 -0.1563  0.0543  0.0022
91731W        W34648  10.706  10.254   8.546 -0.1362 -0.1783  0.0369
91732W        W34649  11.936  14.041  10.511 -0.2931  0.0121 -0.2420
91733W        W34650  13.373  16.699   8.500  0.1796  0.2634  0.3030
91734W        W34651  12.436  16.118   9.062 -0.0195  0.1268  0.2604
91735W        W34652   8.460  10.531   9.582 -0.0775  0.0100 -0.0796
91736W        W34653  13.780  12.547   9.538  0.2689  0.1012  0.2386
91737W        W34654  14.483  12.824   8.359  0.0409 -0.3439 -0.3022
91738W        W34655  13.743  11.162   7.016  0.0109 -0.2022 -0.1452
91739W        W34656  14.367  11.917   9.602  0.1944  0.0507  0.0190
91740W        W34657  14.361  13.254   9.801  0.1484  0.1044  0.1286
91741W        W34658  12.921  10.781   7.674  0.1410 -0.5065  0.0424
91742W        W34659  14.241  11.389   9.245 -0.3207 -0.3053 -0.1829
91743W        W34660  14.261  11.694  10.450  0.2150 -0.1897  0.1777
91744W        W34661   8.149  11.963   8.355  0.0246 -0.0330 -0.0647
91745W        W34662  14.482  13.253   7.854  0.0711 -0.3871  0.2069
91746W        W34663  13.128  13.434  10.224 -0.1283  0.5064 -0.0023
91747W        W34664  12.249  12.525   9.085  0.0726  0.1578 -0.3777
91748W        W34665  13.759  13.178   8.183 -0.2749 -0.1130 -0.0100
91749W        W34666  15.114  12.732  10.359 -0.1218  0.0079 -0.3084
91750W        W34667  13.169  17.906  10.796  0.0395 -0.0963 -0.0662
91751W        W34668  14.016  11.827  10.824 -0.0024 -0.0414 -0.0987
91752W        W34669  12.512  11.061   7.276  0.1262  0.1341  0.1034
91753W        W34670  12.467  12.795   8.686 -0.0226 -0.1100  0.1322
91754W        W34671   9.451  11.389   9.573 -0.0308 -0.0441  0.3712
91755W        W34672  14.576  11.457   9.704  0.1108 -0.1505  0.3013
91756W        W34673  11.416   8.825   9.647  0.1736  0.0499 -0.2176
91757W        W34674  13.347  12.825   9.256 -0.1020  0.0307 -0.2646
91758W        W34675  10.936  15.807  10.527  0.1206 -0.1550  0.1897
91759W        W34676  14.890  13.393   9.615  0.0513  0.1461 -0.2766
91760W        W34677  14.212  17.620   2.304 -0.0971  0.1063 -0.2241
91761W        W34678  10.150  14.281   0.495 -0.1844 -0.1492  0.1313
91762W        W34679  14.197  14.549  29.188 -0.1466  0.0797 -0.1511
91763W        W34680  11.471  16.633   0.170 -0.3428 -0.1754 -0.0528
91764W        W34681  12.534  16.382   2.644 -0.2502 -0.1196 -0.2453
91765W        W34682  12.660  18.979   1.222  0.0824 -0.0947 -0.1473
91766W        W34683  11.749  14.205   3.345 -0.1768 -0.0610  0.0768
91767W        W34684  14.481  18.236   1.927 -0.2690 -0.1912  0.1837
91768W        W34685  14.072  18.913  31.583  0.1533  0.0005 -0.0896
91769W        W34686  12.749  17.406  30.511 -0.0096 -0.1262 -0.0279
91770W        W34687  14.425  17.170   4.174  0.0320 -0.1453 -0.2473
91771W        W34688  10.658  18.836   2.784 -0.1623  0.1461 -0.1721
91772W        W34689  13.517  14.985   1.279  0.1108 -0.2674 -0.0443
91773W        W34690  11.592  14.301   1.977  0.3028  0.1721  0.1313
91774W        W34691  13.073  14.055   3.300  0.2410  0.3428  0.0335
91775W        W34692  11.594  17.907   2.549 -0.0146 -0.2617  0.0803
91776W        W34693  13.393  16.060   3.712  0.2350  0.2225 -0.1210
91777W        W34694  10.352  14.575  30.967 -0.1868 -0.1713  0.0479
91778W        W34695  12.064  18.544   2.078 -0.1226 -0.1150 -0.0143
91779W        W34696  12.704  16.792   1.900 -0.0562 -0.0042 -0.0573
91780W        W34697  10.910  15.300   4.424  0.0188 -0.0667 -0.0731
91781W        W34698  10.892  17.990  31.667 -0.1151  0.0097  0.0854
91782W        W34699  13.538  15.392   0.415 -0.2473  0.0603  0.1154
91783W        W34700  13.231  17.381   3.537  0.1642 -0.1982  0.3086
91784W        W34701  12.104  15.014   2.351  0.0722  0.0576  0.0207
91785W        W34702  13.837  16.184   2.479  0.3067 -0.1962  0.2605
91786W        W34703  13.579  18.134   3.488  0.2177 -0.2210  0.0101
91787W        W34704  12.128  19.468   2.094 -0.1743 -0.1985  0.1012
91788W        W34705  14.154  17.448   0.809  0.3286  0.1003 -0.2275
91789W        W34706  13.487  16.174   4.217 -0.0329  0.1931 -0.0298
91790W        W34707  11.948  20.878   0.085  0.2632  0.0197 -0.1392
91791W        W34708  10.845  17.445  31.664  0.1919 -0.5719  0.1520
91792W        W34709  12.622  18.375  30.582 -0.1492  0.3131  0.2690
91793W        W34710  15.121  18.767   1.244  0.2792 -0.2166 -0.2196
91794W        W34711  14.034  18.496  31.924  0.2278  0.1177  0.2898
91795W        W34712  13.467  18.362   1.307 -0.0348 -0.0827  0.1270
91796W        W34713  13.214  17.036  28.906 -0.1037 -0.1328  0.1303
91797W        W34714  13.018  20.533   2.379  0.0025 -0.2916 -0.2489
91798W        W34715  13.214  18.431   1.811 -0.2147 -0.2256  0.2380
91799W        W34716  12.862  17.157   2.232  0.1292  0.0695  0.1149
91800W        W34717  13.412  18.439   2.309 -0.1880  0.1198  0.2165
91801W        W34718  11.659  18.989  31.928 -0.2344  0.1316 -0.0647
91802W        W34719  13.362  17.942   2.567 -0.0332 -0.0886 -0.1200
91803W        W34720  11.452  18.655   3.394  0.0073  0.2138 -0.0557
91804W        W34721  11.754  18.089   0.447 -0.0522  0.1164  0.2019
91805W        W34722  14.795  15.465   3.699  0.2187 -0.0021  0.0056
91806W        W34723  12.798  16.662   0.379  0.0697  0.0231 -0.2710
91807W        W34724  14.512  16.096  30.212  0.0749  0.1366 -0.0173
91808W        W34725  10.931  14.721   2.006  0.3195  0.3227 -0.2696
91809W        W34726  13.096  14.580  30.535 -0.2237 -0.0721 -0.1389
91810W        W34727  13.706  13.750  31.955  0.0417 -0.0382  0.0324
91811W        W34728  12.097  18.907   1.237  0.0088  0.1470  0.1436
91812W        W34729  10.580  14.325   1.852  0.0188  0.0376 -0.0160
91813W        W34730  12.845  18.474   5.746 -0.4106 -0.0605  0.4069
91814W        W34731  10.295  17.335  31.611 -0.1294  0.1670 -0.2282
91815W        W34732  13.545  17.020   3.687 -0.0738 -0.1767  0.0129
91816W        W34733  11.714  19.502   2.447  0.0594 -0.4066 -0.1773
91817W        W34734  10.757  17.255   1.046  0.1045 -0.1464  0.2626
91818W        W34735  14.482  18.900  31.154  0.1901 -0.2209 -0.2710
91819W        W34736  14.312  17.205   1.262  0.1857 -0.0153  0.1296
91820W        W34737  13.968  17.926  31.904 -0.1502 -0.0278  0.2298
91821W        W34738  14.358  16.031   1.792  0.3551 -0.2107 -0.0412
91822W        W34739  11.278  17.304   2.014  0.1007 -0.0816  0.1541
91823W        W34740  11.712  16.376   4.870  0.0878  0.2206  0.1535
91824W        W34741  15.206  14.963  30.180 -0.2479 -0.1293 -0.3274
91825W        W34742  15.407  18.169   5.628  0.1402 -0.0487 -0.1096
91826W        W34743  10.925  17.084   1.514 -0.3717  0.1191  0.5115
91827W        W34744  15.646  15.525  31.098  0.0236  0.0032  0.0057
91828W        W34745  11.597  17.660   3.006 -0.1136  0.1929 -0.0001
91829W        W34746  13.342  17.484   1.344  0.0837 -0.2899 -0.2228
91830W        W34747  12.782  17.909  30.519 -0.1131  0.1170  0.1721
91831W        W34748  13.022  16.225   2.741  0.2379  0.0518  0.0309
91832W        W34749  13.866  15.076   3.015  0.2792 -0.0668 -0.0006
91833W        W34750  13.222  18.326  31.557  0.1232  0.0530  0.4287
91834W        W34751  11.237  16.207   0.122 -0.3323 -0.0659  0.3600
91835W        W34752  14.111  18.862   0.604 -0.0931  0.0880  0.0233
91836W        W34753  14.042  15.151  30.494  0.0273  0.2679  0.1135
91837W        W34754  11.595  18.971   1.570  0.2393 -0.0136  0.0047
91838W        W34755  12.554  16.802   3.380 -0.3263  0.2375  0.2021
91839W        W34756  12.966  18.251   2.406  0.1259 -0.0689 -0.0572
91840W        W34757  12.124  18.178   1.202  0.2473 -0.3541 -0.1153
91841W        W34758   9.448  19.714  31.647  0.1661  0.0403 -0.3619
91842W        W34759  10.258  18.949   2.333  0.1076  0.2164  0.2271
91843W        W34760  11.045  16.040   2.920 -0.1596 -0.1603  0.0065
91844W        W34761  12.045  17.976   2.246  0.0985  0.0498  0.0994
91845W        W34762  13.631  16.417  29.893  0.1674 -0.2821 -0.4437
91846W        W34763  10.628  15.433   3.455 -0.0801 -0.3765  0.1814
91847W        W34764  11.881  15.844   1.830  0.2220  0.0761 -0.0130
91848W        W34765  10.489  16.336   2.284 -0.0576 -0.0054  0.0495
91849W        W34766  14.584  18.001  30.182  0.3816 -0.1707 -0.2917
91850W        W34767  14.380  16.943   1.635  0.0847  0.1188  0.1158
91851W        W34768  15.188  18.185  31.274 -0.0680 -0.0188 -0.0175
91852W        W34769  11.295  15.557   1.545  0.0340 -0.0235 -0.1664
91853W        W34770  11.750  14.145   2.553 -0.2609  0.1656  0.0269
91854W        W34771  11.913  16.710   3.129  0.3142  0.0678 -0.2940
91855W        W34772  11.342  13.577   0.069 -0.2050 -0.0343 -0.3136
91856W        W34773  14.256  16.338   6.112 -0.0433  0.0247 -0.0104
91857W        W34774  13.184  15.142  31.010 -0.3378  0.3804 -0.1395
91858W        W34775  12.717  16.771   1.155  0.0747 -0.2056  0.0232
91859W        W34776  12.433  17.277   1.962  0.0401  0.2757 -0.2369
91860W        W34777   9.613  18.599   0.697 -0.0766 -0.2574  0.1787
91861W        W34778  13.821  17.234   2.045 -0.0020  0.1194 -0.0516
91862W        W34779  12.074  15.894   0.880 -0.0663 -0.1497 -0.3852
91863W        W34780  11.964  20.045   4.322  0.1157  0.0042 -0.0771
91864W        W34781  12.160  17.915  31.802  0.1149 -0.3925  0.2952
91865W        W34782  11.449  14.472   2.870 -0.0705 -0.3402  0.0537
91866W        W34783  10.118  16.082   2.515  0.4885 -0.0054 -0.3030
91867W        W34784  11.077  20.638  29.963 -0.1294  0.1885  0.3303
91868W        W34785  12.756  17.147   0.510  0.2386  0.3107 -0.1831
91869W        W34786  12.643  17.917  31.773 -0.1177  0.1188 -0.0529
91870W        W34787  15.219  19.232   2.664  0.4271 -0.1769  0.1416
91871W        W34788  13.098  17.192   0.979 -0.2696 -0.0725 -0.0896
91872W        W34789  11.515  16.835   2.732  0.2491 -0.3395  0.0667
91873W        W34790  13.552  17.780   4.315  0.0111 -0.1784 -0.0406
91874W        W34791  14.067  15.555   4.366  0.4716  0.1073  0.2865
91875W        W34792  14.843  18.660   2.936  0.2302 -0.2324  0.1934
91876W        W34793  11.641  15.596  31.143 -0.2569 -0.0670  0.2406
91877W        W34794  12.552  18.709   1.983 -0.4942  0.1385  0.1389
91878W        W34795  11.434  18.347  30.708  0.2954 -0.0065 -0.3408
91879W        W34796  10.416  19.786   0.892  0.0007 -0.1542  0.0962
91880W        W34797  11.612  17.668   2.082  0.0220  0.0512 -0.1171
91881W        W34798  14.048  15.350  31.538 -0.0014 -0.0533 -0.1118
91882W        W34799  10.503  16.862   3.517  0.0857  0.0500  0.1383
91883W        W34800  12.241  16.599   4.789  0.0103 -0.1053  0.2487
91884W        W34801  13.383  16.929   2.289  0.2755 -0.0177 -0.2454
91885W        W34802  12.057  16.401   2.717  0.0369  0.0827  0.0958
91886W        W34803  14.355  14.733   1.415 -0.0583 -0.0641  0.3965
91887W        W34804  13.551  15.948   0.224  0.1857  0.0721 -0.1646
91888W        W34805  13.708  16.652   4.568 -0.2330  0.1607 -0.0292
91889W        W34806  13.199  17.007   0.574  0.0886  0.0602  0.1456
91890W        W34807  12.427  15.927   1.829 -0.3570  0.1310 -0.0459
91891W        W34808  12.689  14.956  30.686  0.0289 -0.0266 -0.0989
91892W        W34809  11.289  17.292   5.545 -0.2685 -0.3285  0.2310
91893W        W34810  13.745  18.294  31.430 -0.1861 -0.0653  0.2531
91894W        W34811  13.901  19.482   0.330  0.1314  0.2036  0.1063
91895W        W34812  12.630  16.225   0.147  0.2075  0.0220 -0.0515
91896W        W34813  14.588  20.090   1.719 -0.1270  0.2045 -0.2540
91897W        W34814  10.212  16.544   1.280 -0.1129  0.0292  0.1941
91898W        W34815  12.523  17.812   2.121  0.0755  0.2176 -0.2190
91899W        W34816  11.963  17.378   1.763  0.1380 -0.0616 -0.0504
91900W        W34817  12.409  13.254   3.220 -0.0856  0.0688 -0.0029
91901W        W34818  13.981  15.321   1.363  0.0541  0.0621  0.1387
91902W        W34819  13.554  17.155   3.082  0.0600  0.0020 -0.1106
91903W        W34820  10.890  18.824   1.681 -0.1876  0.0228  0.1462
91904W        W34821  13.554  16.334   2.875  0.0423 -0.2320  0.1968
91905W        W34822  14.289  17.654   3.311  0.0484  0.0851  0.3668
91906W        W34823  12.603  14.396   2.829  0.1073  0.0368  0.1683
91907W        W34824  14.300  17.242   4.659 -0.2069 -0.2906  0.0164
91908W        W34825  13.870  18.663   1.077  0.1562 -0.0276  0.1642
91909W        W34826  13.147  17.967   1.564 -0.1896  0.2282  0.2082
91910W        W34827  11.046  16.564   0.431  0.2309 -0.2482 -0.0703
91911W        W34828  13.856  16.657   2.324  0.0598 -0.0381 -0.0243
91912W        W34829  12.734  17.002   2.697 -0.2873 -0.1004  0.1452
91913W        W34830  11.636  18.680   1.140 -0.0784  0.1841  0.0115
91914W        W34831  13.266  17.934   1.105  0.2130  0.0779 -0.0455
91915W        W34832  12.214  18.070   3.600 -0.0540 -0.3699  0.1003
91916W        W34833  14.809  16.032   1.615  0.0676 -0.1338 -0.0719
91917W        W34834  12.849  15.295   0.570  0.0981  0.0566  0.0895
91918W        W34835  13.101  19.262  29.002 -0.0679 -0.2390  0.1374
91919W        W34836  13.133  19.640  31.632  0.2785 -0.0803  0.1044
91920W        W34837  13.528  16.658   3.301 -0.1614  0.3332 -0.0401
91921W        W34838  12.420  18.520   1.465  0.0770  0.0056  0.2890
91922W        W34839  12.180  16.589  30.496 -0.1319  0.2147  0.0721
91923W        W34840  12.425  18.539   4.731  0.3746  0.0862  0.0546
91924W        W34841  11.296  18.605   0.098 -0.6140 -0.1303  0.1488
91925W        W34842  14.265  15.928   2.317  0.0517 -0.3362  0.1732
91926W        W34843  11.990  19.387   1.600  0.0780  0.0952  0.2140
91927W        W34844  13.148  15.050   0.234  0.1261 -0.3220 -0.0110
91928W        W34845  10.735  16.332   1.321 -0.0794  0.1330  0.2393
91929W        W34846  14.207  13.041   1.210  0.1287 -0.1987 -0.2855
91930W        W34847  14.085  17.018  30.361 -0.0249  0.2850  0.2495
91931W        W34848  12.045  15.354   0.996  0.2194  0.2270 -0.0698
91932W        W34849  12.854  16.632   3.038 -0.5202 -0.1832 -0.0784
91933W        W34850  11.237  19.086   1.999  0.0325  0.0568  0.3265
91934W        W34851  14.329  18.439   1.525 -0.1364 -0.0608  0.4474
91935W        W34852  13.741  17.252   0.503  0.2268  0.1719  0.0014
91936W        W34853  12.155  18.899   2.687  0.2104  0.0502 -0.3007
91937W        W34854  13.816  17.481   3.450 -0.0812  0.3608 -0.0325
91938W        W34855  12.148  15.507   1.557  0.1796 -0.0514 -0.0643
91939W        W34856  14.386  15.305   1.057  0.1337 -0.2493 -0.1935
91940W        W34857  11.619  17.081   2.318 -0.2309  0.0084 -0.1479
91941W        W34858  11.427  18.457   2.476 -0.0303 -0.1395  0.2434
91942W        W34859  13.236  17.969   2.072 -0.1695 -0.2015 -0.1789
91943W        W34860  11.427  16.516   0.721  0.3225  0.3146 -0.3759
91944W        W34861  12.256  17.300   0.592  0.1115  0.1705 -0.0736
91945W        W34862  12.027  16.133   2.304  0.1553 -0.2235  0.1651
91946W        W34863  12.796  19.527   3.040  0.1426  0.1344  0.3837
91947W        W34864  12.369  16.423   2.037  0.0048 -0.1618 -0.0093
91948W        W34865  11.846  17.465   1.313  0.0333 -0.1877  0.3058
91949W        W34866  12.973  17.554   1.795  0.3308  0.4213 -0.1577
91950W        W34867  13.509  17.563   0.862  0.2236 -0.2224  0.2101
91951W        W34868  13.269  17.590   2.975 -0.3329  0.0489 -0.2503
91952W        W34869  11.455  17.777   3.814  0.1782  0.1440  0.0655
91953W        W34870  13.207  16.469   1.962 -0.0280  0.1052 -0.0794
91954W        W34871  14.549  17.076  30.410  0.0717  0.0722  0.0548
91955W        W34872  12.212  15.858   3.392 -0.2985 -0.0226  0.0622
91956W        W34873  11.736  19.036   0.483 -0.1693 -0.0298 -0.1131
91957W        W34874  10.061  18.441   1.572 -0.0972  0.0177 -0.1392
91958W        W34875  12.067  19.357   0.874 -0.1847  0.5039  0.0174
91959W        W34876  13.783  16.749   2.820  0.0652 -0.2570  0.0692
91960W        W34877  11.629  18.202   1.239  0.1587  0.2343  0.1111
91961W        W34878  11.085  16.841   0.877  0.1471 -0.2491 -0.0898
91962W        W34879  11.432  16.821   1.930 -0.0928  0.1549  0.0234
91963W        W34880  13.473  14.282  30.444  0.0256  0.1364 -0.1442
91964W        W34881  13.292  17.478  31.403  0.0842  0.1118  0.0292
91965W        W34882  12.054  16.961   2.019 -0.1909  0.4810  0.1668
91966W        W34883  14.972  17.085   1.817 -0.1743 -0.3419 -0.0146
91967W        W34884  13.094  17.790   0.018 -0.0874  0.0704 -0.2011
91968W        W34885  13.191  15.942   4.985 -0.0117  0.2021 -0.0383
91969W        W34886  12.031  14.569   2.076  0.1457 -0.3133  0.1335
91970W        W34887  14.061  17.524  31.508  0.3939  0.1798  0.3521
91971W        W34888  12.399  16.324   3.136  0.1088  0.0106  0.0655
91972W        W34889  12.816  18.347   5.037 -0.1373 -0.0718  0.0453
91973W        W34890  13.986  16.935   3.958  0.0055  0.1396  0.2621
91974W        W34891  13.245  15.559   0.967 -0.0145  0.2633  0.3294
91975W        W34892  12.042  14.365   0.210 -0.2348  0.0584 -0.0541
91976W        W34893  13.238  16.797   2.735 -0.0381  0.2309  0.0282
91977W        W34894  14.743  16.532   1.679  0.0531 -0.1567  0.2550
91978W        W34895  12.393  16.774   0.657  0.0318 -0.2457 -0.2107
91979W        W34896  14.043  17.377   0.019  0.0525  0.1304  0.1667
91980W        W34897  10.822  17.401   2.898 -0.0308 -0.0347 -0.0685
91981W        W34898  14.035  15.764   1.009  0.1939 -0.0445 -0.2010
91982W        W34899  12.659  18.306  31.460 -0.0539  0.2044  0.0363
91983W        W34900  12.116  15.403  31.433  0.0163  0.0257 -0.1640
91984W        W34901  12.052  16.215   1.536  0.1848 -0.0711 -0.3132
91985W        W34902  14.030  18.348   0.704 -0.0233 -0.2218  0.1728
91986W        W34903  14.198  15.490   3.880 -0.2797  0.1050  0.0086
91987W        W34904  13.084  17.049   3.159  0.0647 -0.1989  0.0463
91988W        W34905  12.425  19.089   4.518  0.0277  0.0622 -0.0899
91989W        W34906  13.260  19.797   1.307 -0.0055  0.0781 -0.1447
91990W        W34907   9.833  16.659   2.644 -0.1739  0.2432 -0.1181
91991W        W34908  13.773  20.600   1.575  0.1506  0.0223 -0.1626
91992W        W34909  13.342  14.765  27.927 -0.3218 -0.0983 -0.0112
91993W        W34910  15.173  15.043   2.720  0.0150 -0.2037 -0.3663
91994W        W34911  13.417  17.079   1.781  0.3678  0.1489  0.1522
91995W        W34912  13.961  14.868   1.101  0.1196 -0.0198 -0.1000
91996W        W34913  10.132  15.962   2.006 -0.2029  0.0901 -0.1625
91997W        W34914  12.615  16.465   4.469  0.2363  0.0020  0.2685
91998W        W34915  10.638  16.916   0.551  0.1228 -0.1771  0.0715
91999W        W34916  13.467  15.299   4.200  0.0965  0.1141  0.2994
92000W        W34917  10.846  16.840  30.867 -0.3554  0.2019 -0.1866
92001W        W34918  13.756  18.404   3.062 -0.0946  0.0364  0.0623
92002W        W34919  13.731  16.668   1.734 -0.1648 -0.1739  0.0790
92003W        W34920  11.438  15.665   0.727 -0.3991  0.0482 -0.0261
92004W        W34921  11.853  19.757   2.908 -0.0194  0.0483  0.1221
92005W        W34922  10.711  17.264   1.979  0.3178 -0.0375 -0.4296
92006W        W34923  10.459  19.332   0.978 -0.3474  0.1888  0.4072
92007W        W34924  12.444  16.846   2.299  0.1030 -0.0925  0.2682
92008W        W34925  12.921  18.817   3.737  0.2715 -0.0853 -0.2173
92009W        W34926  11.933  15.644   0.485  0.0798 -0.0824  0.1319
92010W        W34927  13.884  18.072   4.674  0.2846 -0.0280  0.0475
92011W        W34928  12.295  17.531  31.491 -0.0330  0.0978 -0.0794
92012W        W34929  13.459  16.802   4.156 -0.0317 -0.2301 -0.2779
92013W        W34930  10.516  18.527   2.401  0.4052 -0.0292  0.2375
92014W        W34931  10.412  17.160   2.525  0.1666 -0.2915  0.0409
92015W        W34932  10.945  17.696   1.955 -0.0353 -0.1135 -0.0690
92016W        W34933  13.793  14.716   2.431 -0.0204  0.1333 -0.1598
92017W        W34934  14.295  16.457   2.378  0.0741 -0.0171  0.1526
92018W        W34935  12.828  17.594   1.270 -0.2007 -0.1048  0.0745
92019W        W34936  13.582  19.327   4.392  0.1571  0.2200 -0.3986
92020W        W34937  12.465  18.314   2.302 -0.1196 -0.2694  0.0787
92021W        W34938  10.561  18.284   3.512 -0.4680  0.2576  0.2972
92022W        W34939  13.519  18.818   0.734  0.0909 -0.0529  0.0252
92023W        W34940  14.353  18.082   0.976  0.0590 -0.0320  0.0741
92024W        W34941  13.361  16.150   0.777  0.0317 -0.0031 -0.1791
92025W        W34942  10.647  16.077   4.610  0.1644  0.2776 -0.2274
92026W        W34943  13.751  17.845   2.213  0.2124 -0.0045 -0.0376
92027W        W34944  11.226  16.378   1.160 -0.0373  0.2181 -0.0396
92028W        W34945  11.482  15.453   2.007  0.0124 -0.0701  0.0068
92029W        W34946  12.600  18.064   1.296 -0.0650  0.5664 -0.2897
92030W        W34947  11.264  15.686   2.619 -0.0464 -0.2530 -0.0259
92031W        W34948  10.495  18.488   1.918  0.0696 -0.3181 -0.1510
92032W        W34949  12.062  19.814  30.924  0.0180 -0.4552  0.0611
92033W        W34950  13.947  16.776   1.144 -0.0616  0.2244 -0.2726
92034W        W34951  13.448  19.517   0.857  0.0725 -0.0897  0.1306
92035W        W34952  14.290  18.907   1.425  0.3512  0.1212 -0.0937
92036W        W34953  12.388  13.697  31.350 -0.0369  0.1328  0.3364
92037W        W34954  10.817  18.257   1.011  0.2566 -0.0672 -0.0969
92038W        W34955  10.669  18.483  30.010 -0.0137 -0.2071  0.2272
92039W        W34956  13.566  18.260  31.918 -0.0773 -0.2373 -0.1146
92040W        W34957  13.084  16.563  29.718  0.0094 -0.0511  0.5319
92041W        W34958  13.842  18.600   1.606  0.2062 -0.1948 -0.0200
92042W        W34959  14.703  13.949  28.857 -0.0225  0.4637 -0.0610
92043W        W34960  13.754  18.206   2.604  0.0416 -0.1529  0.1434
92044W        W34961  14.442  17.721   0.006 -0.1110 -0.0906  0.0752
92045W        W34962  13.777  19.211   2.357  0.2385 -0.1632  0.1010
92046W        W34963  14.210  14.990   1.963  0.2152  0.0253 -0.0933
92047W        W34964   9.315  16.536  30.768  0.0409  0.3145 -0.1636
92048W        W34965  10.949  17.319   0.553 -0.2394 -0.1674 -0.2530
92049W        W34966  12.821  15.403   2.999 -0.2279  0.1116 -0.0490
92050W        W34967  12.581  17.919   3.290  0.1493  0.2243  0.0651
92051W        W34968  15.342  18.464   0.753 -0.0923 -0.1087 -0.2258
92052W        W34969  11.389  17.353   1.550 -0.1561  0.1581 -0.0836
92053W        W34970  13.349  17.457   2.199 -0.1544  0.2475  0.3006
92054W        W34971  15.539  15.389   2.697 -0.3604  0.1128 -0.2839
92055W        W34972  12.998  17.887  31.417  0.3204 -0.1313 -0.1457
92056W        W34973  13.734  16.224  31.297 -0.0183  0.0175  0.0685
92057W        W34974  12.281  18.863   0.694  0.1352 -0.1085  0.0887
92058W        W34975  11.990  18.635   0.327 -0.0416  0.1980  0.1296
92059W        W34976  11.789  20.364   0.333 -0.0265 -0.0731  0.0901
92060W        W34977  10.027  15.997  30.905 -0.0028  0.2675 -0.0442
92061W        W34978  14.250  16.550   2.899 -0.0298  0.1293 -0.1014
92062W        W34979  11.316  17.893   1.631 -0.3691 -0.0386  0.1898
92063W        W34980  15.625  14.277   3.072 -0.0413 -0.0478 -0.1432
92064W        W34981  11.113  15.092   1.753 -0.0918 -0.0683 -0.0639
92065W        W34982  15.154  15.147  30.700  0.1331  0.2217 -0.1254
92066W        W34983  14.053  18.235   2.143 -0.0358  0.0310 -0.1592
92067W        W34984  10.746  14.306   2.299 -0.1002 -0.0289 -0.2122
92068W        W34985  11.387  17.725  31.606  0.2205 -0.0609 -0.1654
92069W        W34986  12.698  19.176   5.748 -0.2144 -0.1222 -0.2560
92070W        W34987  13.608  16.862   0.182  0.0054 -0.1744 -0.2132
92071W        W34988  14.449  18.026   2.551 -0.0864  0.4212  0.1027
92072W        W34989  12.589  17.247   0.964  0.4804 -0.0559 -0.1580
92073W        W34990  11.190  15.386  31.850  0.0841  0.1659 -0.0349
92074W        W34991  10.659  15.406   0.899 -0.1722 -0.0154  0.1634
92075W        W34992  13.078  14.709   1.269 -0.0603 -0.1390 -0.0091
92076W        W34993  14.814  18.456   3.419 -0.0329  0.1984 -0.1164
92077W        W34994  10.842  14.944   0.904 -0.0770 -0.4661  0.1435
92078W        W34995  14.284  15.831  30.550 -0.0933 -0.2357  0.0415
92079W        W34996  11.278  17.533   2.543 -0.1717 -0.1250 -0.0210
92080W        W34997  12.558  18.160  30.089 -0.4568  0.2279 -0.1167
92081W        W34998  14.569  17.704   1.951  0.2876  0.2879 -0.3721
92082W        W34999  13.406  20.246   1.197  0.0810 -0.2375  0.0449
92083W        W35000  13.253  13.866   0.693 -0.1869 -0.0890 -0.0763
92084W        W35001  12.133  20.319   0.733 -0.0246  0.1531  0.2767
92085W        W35002  14.683  18.880   1.721  0.2226  0.4882 -0.0651
92086W        W35003  12.283  13.402   0.801 -0.2002 -0.2569  0.1616
92087W        W35004  13.721  15.150   1.997 -0.2214  0.2298 -0.1111
92088W        W35005  10.068  18.747   0.658  0.0404 -0.0473 -0.0474
92089W        W35006  15.394  16.407   2.907  0.0618 -0.3037  0.0375
92090W        W35007  15.051  16.328   2.410 -0.0599  0.2729  0.0812
92091W        W35008  13.516  17.874  31.633  0.0870  0.1405  0.2204
92092W        W35009  11.598  15.138   3.338  0.1204  0.0886 -0.0147
92093W        W35010  12.184  18.967   1.743 -0.0428  0.1287 -0.0622
92094W        W35011  12.111  18.494   3.883  0.1754  0.2302 -0.1628
92095W        W35012  11.726  16.864   0.915 -0.0491  0.0140  0.1890
92096W        W35013  12.171  20.192   5.355  0.3047 -0.0701 -0.0167
92097W        W35014  12.815  17.433  31.694 -0.1171 -0.3295  0.2475
92098W        W35015  12.611  18.021  30.981  0.2711 -0.0038  0.1510
92099W        W35016  12.610  18.633   4.060  0.1093 -0.2137 -0.0511
92100W        W35017  13.035  18.302  31.131  0.1179 -0.1606 -0.0251
92101W        W35018  14.627  18.820   2.198  0.1074  0.1418 -0.2716
92102W        W35019  12.889  16.156   0.636 -0.0893  0.0201 -0.0402
92103W        W35020  13.397  16.930  31.464  0.0760 -0.2674 -0.1697
92104W        W35021  13.104  15.979   1.606  0.0257  0.2029  0.0142
92105W        W35022  12.387  18.857   3.615 -0.0350 -0.0748 -0.0635
92106W        W35023  11.109  17.540   0.096 -0.3152  0.3990  0.1460
92107W        W35024  10.221  18.082  29.652 -0.2539  0.0455  0.2209
92108W        W35025   9.251  17.273   0.579  0.0099 -0.0784 -0.2230
92109W        W35026  11.835  15.972   3.776 -0.0846 -0.1436  0.2082
92110W        W35027  11.336  16.860   3.795 -0.2297  0.0269  0.0743
92111W        W35028  11.025  16.056   1.635  0.2767 -0.4008  0.1415
92112W        W35029  10.780  15.223   0.144  0.2602 -0.0673  0.1007
92113W        W35030  12.971  18.863  29.411  0.2402  0.1240 -0.3289
92114W        W35031  10.275  14.935   0.929 -0.1946 -0.2563 -0.1078
92115W        W35032  10.020  16.349  31.897 -0.1585 -0.2474  0.0453
92116W        W35033  12.475  18.538  31.857  0.1218 -0.1866  0.2274
92117W        W35034  14.693  17.276  31.892 -0.0843  0.0654  0.2436
92118W        W35035  12.789  14.390   1.484  0.3279  0.0913  0.2040
92119W        W35036  13.656  19.551   4.818 -0.0797  0.0725 -0.0527
92120W        W35037  11.948  18.510   0.811  0.1236 -0.1464 -0.0238
92121W        W35038  15.218  17.327   4.305 -0.0105  0.0139  0.0909
92122W        W35039  13.555  16.211   1.725 -0.0070  0.1562 -0.4428
92123W        W35040  10.068  15.271   1.887 -0.0077  0.2938 -0.2607
92124W        W35041  11.834  16.981   1.473  0.1199 -0.3062  0.1514
92125W        W35042  14.252  18.155   0.278 -0.3793  0.1669  0.0612
92126W        W35043  12.045  16.445   0.856  0.2585  0.0119  0.2377
92127W        W35044  11.960  17.632   2.707 -0.1435 -0.1466  0.1303
92128W        W35045  11.874  18.107   3.024  0.0349  0.2606 -0.1254
92129W        W35046  12.817  18.127   2.852 -0.2057  0.2921 -0.2495
92130W        W35047  13.157  17.993   0.560 -0.0577 -0.0149 -0.0973
92131W        W35048  13.661  17.890   1.406  0.1525 -0.3914 -0.0033
92132W        W35049  13.308  16.488  28.866  0.0668  0.1544 -0.0064
92133W        W35050  13.698  17.815   3.062 -0.1112 -0.0245  0.2779
92134W        W35051  13.313  18.660  31.207  0.1200 -0.1748 -0.0661
92135W        W35052  11.666  14.924   2.044  0.2976  0.5316 -0.0802
92136W        W35053  12.160  17.668   3.254  0.0654  0.4660 -0.0813
92137W        W35054  15.242  17.020   0.977 -0.2990 -0.0393  0.0170
92138W        W35055  13.585  14.533  31.815 -0.0239  0.2278  0.1659
92139W        W35056  12.348  13.691   1.729 -0.0694 -0.1887 -0.3104
92140W        W35057  12.521  17.175   1.509  0.2834  0.1286  0.1288
92141W        W35058  11.837  17.506   3.767  0.0995  0.0774 -0.0802
92142W        W35059  12.986  14.078  30.510 -0.0919 -0.1040  0.0984
92143W        W35060  11.685  15.770   2.262 -0.1275 -0.4515 -0.4283
92144W        W35061  11.667  15.956   2.712 -0.1014 -0.2098  0.0623
92145W        W35062  13.160  19.283   2.744  0.2198 -0.2309 -0.3035
92146W        W35063  13.043  15.062   3.234  0.2140 -0.0357 -0.1319
92147W        W35064  12.928  16.646   2.405 -0.1487  0.1924 -0.1539
92148W        W35065  14.322  19.315   0.020 -0.4084 -0.1793  0.0514
92149W        W35066  13.318  20.118   4.058 -0.0092  0.2684 -0.0121
92150W        W35067  12.519  18.413   0.493  0.1597 -0.2300  0.0643
92151W        W35068  14.174  18.672   2.377  0.3568  0.1546  0.2210
92152W        W35069  11.840  15.780   1.305  0.1177  0.0679  0.0149
92153W        W35070  10.924  17.868   2.818  0.1520  0.1110  0.0775
92154W        W35071  12.066  17.695   0.318  0.1280 -0.0761 -0.2459
92155W        W35072  12.917  17.668   2.383 -0.0340 -0.0103 -0.0838
92156W        W35073  13.437  16.135  30.907 -0.1162  0.1179  0.0220
92157W        W35074  12.879  14.206   0.802 -0.0091 -0.1442  0.1391
92158W        W35075  10.991  17.069   2.419 -0.2391  0.2737 -0.1628
92159W        W35076  13.045  16.670   3.509  0.1298 -0.3034  0.0610
92160W        W35077  12.171  16.477   5.232  0.0776 -0.0719 -0.1567
92161W        W35078  10.483  16.848   4.405 -0.4579  0.0795 -0.2789
92162W        W35079  13.276  15.920   2.409  0.0509  0.1158  0.1499
92163W        W35080  14.610  16.555   4.700 -0.2893 -0.0605 -0.0267
92164W        W35081   9.954  14.878   3.323 -0.2085  0.1164  0.1356
92165W        W35082  13.500  16.343   6.740  0.1229 -0.3673 -0.1995
92166W        W35083  10.379  15.241   6.655  0.0260 -0.3115 -0.0157
92167W        W35084  14.519  17.758   5.741 -0.0891 -0.2454 -0.1775
92168W        W35085  14.514  17.010   5.633 -0.2235  0.0407  0.1174
92169W        W35086  11.882  19.322   4.453 -0.0645 -0.2445  0.0053
92170W        W35087  13.156  16.939   8.960  0.2523  0.1263 -0.0614
92171W        W35088  11.854  16.971   6.814  0.1800 -0.2371 -0.0803
92172W        W35089  10.934  15.870   3.451  0.0937 -0.1732  0.1312
92173W        W35090  10.970  13.825   3.527 -0.1484  0.0515 -0.3022
92174W        W35091  12.786  16.087   8.069  0.0166  0.0726 -0.0276
92175W        W35092  11.167  16.446   3.864  0.1345 -0.0073 -0.1397
92176W        W35093  11.574  13.657   6.666  0.2222 -0.1269 -0.1284
92177W        W35094  11.963  15.364   2.078 -0.2978 -0.0470 -0.1250
92178W        W35095  12.069  19.187   5.977 -0.0600 -0.1239  0.5227
92179W        W35096  14.057  16.541   7.575 -0.0038 -0.2965 -0.2584
92180W        W35097  12.120  14.261   9.585  0.0710 -0.1679 -0.2713
92181W        W35098  12.557  18.141   3.929  0.3225  0.0783 -0.1411
92182W        W35099  10.512  15.919   5.172 -0.0250 -0.2342 -0.0012
92183W        W35100  12.949  17.246   6.283 -0.3366  0.1579  0.3465
92184W        W35101  12.171  15.484   7.770  0.0054 -0.6457  0.0674
92185W        W35102  14.367  16.522   8.395  0.0126 -0.1268 -0.3412
92186W        W35103  13.001  15.798   3.526  0.2430 -0.0762 -0.0827
92187W        W35104  12.129  19.373   2.622  0.0210 -0.1616 -0.0020
92188W        W35105  13.544  19.927   5.081 -0.0963  0.0372  0.1679
92189W        W35106  13.095  15.344   7.425  0.1346 -0.1093  0.1156
92190W        W35107  12.021  17.885   3.997  0.1755 -0.3711  0.0514
92191W        W35108  12.297  18.196   6.658  0.0714  0.1084  0.5518
92192W        W35109   9.225  21.790   4.308 -0.2941 -0.0260  0.3175
92193W        W35110  15.050  15.095   4.964  0.1504  0.1176 -0.0321
92194W        W35111  14.208  15.970   5.790  0.1360  0.0451  0.1096
92195W        W35112  13.016  17.343   7.618 -0.2471 -0.1350 -0.1864
92196W        W35113  13.530  18.392   5.968  0.4554  0.1024 -0.0048
92197W        W35114  12.670  17.840   6.080  0.0254 -0.2627  0.0747
92198W        W35115  12.340  19.198   9.801  0.0910  0.0571  0.0813
92199W        W35116  11.054  17.932   7.865  0.0915 -0.2129  0.2043
92200W        W35117  12.881  18.247   4.518  0.3362  0.0800  0.0713
92201W        W35118   9.875  18.462   3.966  0.1009  0.1184 -0.0696
92202W        W35119  14.226  16.765   4.364  0.1197 -0.1025  0.0909
92203W        W35120  13.674  16.773   8.964  0.1790  0.6078 -0.2005
92204W        W35121  11.204  19.677   6.816 -0.2121 -0.2515  0.1843
92205W        W35122  14.325  14.210   8.676  0.1056  0.0794  0.0631
92206W        W35123  11.419  18.482   5.727  0.0831  0.4233  0.3592
92207W        W35124  12.304  18.291   4.338 -0.1467  0.1686 -0.1501
92208W        W35125  12.643  16.638   3.945  0.0277  0.2240 -0.0589
92209W        W35126  14.991  14.375   5.720  0.1582  0.4179  0.1454
92210W        W35127  11.720  16.539   5.959 -0.2900  0.2005  0.1389
92211W        W35128  12.799  15.622   5.522 -0.3053  0.0046 -0.2245
92212W        W35129  14.071  15.048   5.853  0.0609  0.1467  0.1315
92213W        W35130  13.711  15.757  10.278 -0.4480  0.0680 -0.3232
92214W        W35131  12.824  17.024   4.797 -0.1392  0.1448 -0.3720
92215W        W35132  12.361  16.875   5.915 -0.0425 -0.0704 -0.1688
92216W        W35133  12.684  19.568   6.634  0.2752 -0.0768  0.1258
92217W        W35134  12.882  16.141   5.398  0.1968 -0.0215  0.0501
92218W        W35135  13.008  17.158   1.499 -0.4267 -0.0023  0.1314
92219W        W35136  13.067  20.170   5.018 -0.2561  0.1146 -0.1330
92220W        W35137  11.879  18.869   3.556  0.1125 -0.1152 -0.2277
92221W        W35138  11.818  16.786   4.504 -0.1855  0.0022 -0.2308
92222W        W35139   8.679  13.161   6.975 -0.2686 -0.2284  0.2396
92223W        W35140  10.451  15.944   7.652  0.1232  0.3667  0.2133
92224W        W35141  11.317  13.406   3.773 -0.1791 -0.1109  0.1046
92225W        W35142  15.302  16.074   8.860  0.1430 -0.0412 -0.2473
92226W        W35143  10.554  17.536   8.661 -0.2540  0.0636  0.1215
92227W        W35144  14.479  15.362   4.918 -0.1391 -0.1730  0.1637
92228W        W35145  13.660  15.784   5.119  0.0436 -0.1501  0.0380
92229W        W35146  14.009  16.427   6.754  0.0018  0.2507  0.0171
92230W        W35147  14.156  17.723   4.320 -0.1082 -0.0341  0.3422
92231W        W35148  12.969  14.050   4.841  0.1842  0.1816  0.0002
92232W        W35149  12.199  15.298   7.342  0.0985 -0.0679  0.4308
92233W        W35150  11.833  17.225   3.165  0.1725  0.0353  0.1681
92234W        W35151  11.643  16.435   3.496  0.0089 -0.1053 -0.1048
92235W        W35152  13.942  18.517   6.328  0.1398  0.2013  0.0029
92236W        W35153  14.739  16.330   4.181  0.0031  0.1011 -0.1559
92237W        W35154  10.581  17.162   8.192  0.2249 -0.1078  0.0806
92238W        W35155  11.783  17.264   5.675 -0.2322 -0.0844  0.1457
92239W        W35156  14.255  17.683   7.159 -0.1456 -0.0481  0.1844
92240W        W35157  12.065  19.105   4.091 -0.2615  0.1263 -0.1296
92241W        W35158  11.907  16.929   5.023  0.0191 -0.3138  0.0960
92242W        W35159  12.003  17.079   2.670 -0.1288 -0.4416  0.2130
92243W        W35160  12.380  15.852   6.793 -0.1362  0.2248 -0.0476
92244W        W35161  12.691  16.654   6.821 -0.0928  0.2530 -0.0100
92245W        W35162  15.799  15.953   3.570 -0.0355  0.0628  0.2532
92246W        W35163  12.365  15.900   6.212  0.0036 -0.0905 -0.1406
92247W        W35164  13.251  14.803   6.567 -0.4325 -0.2353 -0.1069
92248W        W35165  11.909  17.341   6.467 -0.1652  0.1253 -0.0402
92249W        W35166  13.623  16.818   6.722  0.0170 -0.1656 -0.0828
92250W        W35167  13.993  15.519   5.387  0.3280 -0.2332  0.2640
92251W        W35168  13.160  17.268   2.613 -0.2047  0.1895 -0.1091
92252W        W35169  12.666  16.177   6.997  0.0719  0.0163  0.1730
92253W        W35170  12.059  16.247   6.884  0.0530 -0.1421 -0.0096
92254W        W35171  11.292  13.599   9.897 -0.0417  0.1399  0.1123
92255W        W35172  10.485  14.954   4.849  0.1942  0.1828  0.0483
92256W        W35173  14.196  14.773   8.760 -0.2266  0.1766 -0.0898
92257W        W35174  11.714  15.503   2.952  0.2912 -0.3455 -0.2436
92258W        W35175  11.522  16.562   7.806  0.1179 -0.0283 -0.1289
92259W        W35176  11.839  18.614   4.295  0.1835  0.0373  0.0668
92260W        W35177  11.699  16.533   5.368 -0.3387  0.0237 -0.3952
92261W        W35178  12.275  14.081   7.048 -0.0168  0.1266  0.0817
92262W        W35179  13.409  18.869   4.547 -0.0384  0.2663  0.0112
92263W        W35180  15.006  18.322   7.473 -0.0033 -0.0114  0.0573
92264W        W35181  16.275  16.974   6.538  0.1835 -0.3914  0.1258
92265W        W35182  11.588  14.757   8.323 -0.2838  0.1196 -0.1501
92266W        W35183  11.380  16.063   5.226 -0.0334 -0.2584  0.4456
92267W        W35184  11.578  19.136   4.127  0.2226 -0.0123 -0.1689
92268W        W35185  10.485  17.072   5.552 -0.3494 -0.0889 -0.2311
92269W        W35186  12.698  17.422   3.391 -0.1779  0.1263 -0.0578
92270W        W35187  13.152  19.636   4.997 -0.3548 -0.0459 -0.1036
92271W        W35188  13.783  17.418   2.584  0.1822  0.0849  0.1985
92272W        W35189  12.066  16.695   9.626 -0.1578 -0.0720  0.0563
92273W        W35190  12.480  14.371   8.778  0.1529  0.0705  0.1823
92274W        W35191  12.778  14.825   7.602  0.0351 -0.0177  0.2461
92275W        W35192  10.734  15.953   5.828 -0.1325  0.0286  0.3873
92276W        W35193  11.522  16.169   1.530 -0.3547 -0.0267  0.1390
92277W        W35194  13.655  18.750   5.410 -0.4102  0.0771  0.0948
92278W        W35195  11.579  17.700   5.621 -0.3690  0.2575 -0.0487
92279W        W35196  12.336  17.253   3.023  0.0943  0.2451 -0.1252
92280W        W35197  13.184  19.783   1.888 -0.4219 -0.1772 -0.1018
92281W        W35198  12.643  16.424   6.169  0.3236  0.0698 -0.4065
92282W        W35199  11.327  17.498   7.913 -0.2680 -0.1473 -0.0041
92283W        W35200  13.385  15.572   6.883  0.1111  0.0635 -0.2269
92284W        W35201  11.980  18.218   7.513 -0.0005  0.0160 -0.1296
92285W        W35202  11.117  18.188   6.074  0.2771 -0.0020 -0.1307
92286W        W35203  12.913  16.069   4.587  0.1605 -0.1322  0.0118
92287W        W35204  14.255  17.496   5.366 -0.0958 -0.0123  0.2546
92288W        W35205  12.956  17.013   8.493 -0.2168  0.1968  0.2086
92289W        W35206  14.067  16.856   4.902 -0.3263 -0.3095 -0.0724
92290W        W35207  13.275  17.394   4.050 -0.0829  0.0922  0.3387
92291W        W35208  14.429  17.008   3.670  0.2817 -0.0203  0.0154
92292W        W35209  10.959  17.125   7.250  0.2214  0.1436 -0.0685
92293W        W35210  14.445  18.652   6.068 -0.0735 -0.3175  0.1958
92294W        W35211  13.229  16.613   7.077  0.0155 -0.1784  0.3022
92295W        W35212  12.444  17.078   3.940  0.2573  0.2259  0.0973
92296W        W35213  12.843  18.996   5.204  0.0153  0.1426 -0.0267
92297W        W35214  11.604  18.063   5.946  0.0110 -0.0660  0.2677
92298W        W35215  11.653  16.957  10.892  0.1915 -0.1600  0.0194
92299W        W35216  13.777  18.082   6.658 -0.1850 -0.0834 -0.1624
92300W        W35217  12.034  14.668   7.983  0.1830 -0.1600  0.0509
92301W        W35218  12.589  16.497   5.618  0.0781  0.1234 -0.0368
92302W        W35219  13.618  15.129   7.739 -0.0850 -0.0058  0.2026
92303W        W35220  13.469  18.032   5.328 -0.0516 -0.2987  0.3196
92304W        W35221  14.115  14.492   6.482  0.0731  0.1102 -0.1328
92305W        W35222  13.577  15.384   7.308  0.0594  0.1736  0.0453
92306W        W35223  15.046  15.139   6.158  0.1245 -0.2395 -0.0495
92307W        W35224  14.893  14.048  10.179 -0.0964 -0.4248 -0.1238
92308W        W35225  13.135  17.469   4.540  0.1586 -0.1520  0.1300
92309W        W35226  13.762  16.985   7.694  0.4120  0.0717  0.2788
92310W        W35227  12.794  17.514   2.865 -0.3348  0.0052  0.0074
92311W        W35228  12.185  15.065   8.258 -0.0775  0.1945  0.2754
92312W        W35229  13.021  16.416   6.572 -0.1886  0.6016  0.4397
92313W        W35230  10.030  18.600   5.901  0.1825  0.1686 -0.0758
92314W        W35231  13.386  18.074   6.302 -0.2774 -0.2726  0.1315
92315W        W35232  14.126  17.350   5.809  0.1262 -0.2441 -0.0358
92316W        W35233  14.450  15.066   8.380 -0.5081 -0.0422  0.0786
92317W        W35234  13.820  17.625   6.365 -0.4359  0.0826  0.0696
92318W        W35235  10.573  20.424   5.564 -0.0934  0.1488  0.2743
92319W        W35236  11.058  17.070   5.105  0.3064  0.0915  0.1688
92320W        W35237  11.836  15.757   6.004  0.1597  0.2159  0.2011
92321W        W35238  12.838  16.852   5.274 -0.0149  0.2659 -0.0107
92322W        W35239  13.230  19.613   2.378 -0.7156 -0.1359  0.0949
92323W        W35240  11.709  17.530   8.248  0.1601 -0.0167  0.0584
92324W        W35241  11.032  18.540   2.138  0.1660  0.1948  0.1705
92325W        W35242  13.008  15.195   6.784 -0.0334  0.1208  0.0499
92326W        W35243  11.441  17.978   7.462 -0.2930  0.4299  0.0307
92327W        W35244  11.344  16.387   5.663 -0.2069  0.0635  0.1569
92328W        W35245  10.633  18.588   4.309 -0.0078  0.0173 -0.0229
92329W        W35246  13.521  14.455   6.279 -0.0571 -0.3694  0.2407
92330W        W35247  14.847  18.804   4.891 -0.3475  0.0333  0.0676
92331W        W35248   9.810  14.795   5.816 -0.0282  0.1660  0.1665
92332W        W35249  11.829  15.805   7.356 -0.0886 -0.0360  0.3457
92333W        W35250  11.391  18.379   5.214 -0.0509 -0.1228 -0.0524
92334W        W35251  13.656  16.538   7.851 -0.0573  0.1547  0.1794
92335W        W35252  11.265  14.341   5.096  0.3897  0.0541  0.0855
92336W        W35253  13.534  16.251   6.001  0.0838 -0.1270  0.0377
92337W        W35254  13.517  18.238   7.199  0.1039 -0.0083 -0.3336
92338W        W35255  12.140  17.742   5.189  0.0164 -0.1080  0.0439
92339W        W35256  11.639  15.898   6.907 -0.1334 -0.0890  0.0829
92340W        W35257  13.943  16.438   5.632  0.2620 -0.1573 -0.0452
92341W        W35258  11.705  17.585   7.625  0.1600 -0.0805 -0.0043
92342W        W35259  14.185  18.306   5.048 -0.3250  0.0895  0.1417
92343W        W35260  12.019  16.865   5.526 -0.0268  0.2062 -0.1074
92344W        W35261  11.260  16.589   5.191  0.2006  0.1151 -0.0817
92345W        W35262  11.919  15.457   6.937  0.4540  0.0667  0.0443
92346W        W35263  15.113  16.615   9.453 -0.2285 -0.2796 -0.4703
92347W        W35264  12.182  17.427   7.877  0.1413 -0.0626 -0.2224
92348W        W35265  10.463  15.583   4.859 -0.2525  0.4148  0.1584
92349W        W35266  10.577  15.524   6.256 -0.0863  0.0885  0.2361
92350W        W35267  15.133  16.313   5.421  0.1459 -0.2578 -0.0439
92351W        W35268  12.298  15.010   6.900  0.0908 -0.3597 -0.2995
92352W        W35269  13.711  17.123   8.501 -0.0127 -0.0742 -0.0846
92353W        W35270  13.740  14.576   5.115 -0.2555 -0.1216 -0.1338
92354W        W35271  13.134  18.635   4.156  0.0582  0.1376 -0.0473
92355W        W35272  13.384  15.576   7.802 -0.1408 -0.0330  0.1024
92356W        W35273  12.441  17.381   2.483 -0.3013 -0.0162  0.1245
92357W        W35274  11.795  18.787   8.169  0.1890  0.4837  0.2640
92358W        W35275  11.526  17.699   4.384 -0.0113 -0.0893 -0.0363
92359W        W35276  12.409  15.893   4.375  0.0720  0.2174 -0.0160
92360W        W35277  11.528  16.766   7.279  0.1350 -0.0446 -0.3120
92361W        W35278  11.534  18.570   6.233  0.1524  0.0251 -0.0570
92362W        W35279  11.796  18.020   8.529  0.1112  0.0256  0.1973
92363W        W35280  16.275  14.646   3.717 -0.1207 -0.5088 -0.0410
92364W        W35281  12.654  18.414   3.543  0.1673  0.2143 -0.2145
92365W        W35282  12.044  16.678   8.001  0.1499  0.2979 -0.2436
92366W        W35283  15.402  16.041   7.823 -0.2866 -0.0939  0.0434
92367W        W35284  14.765  17.028   4.568  0.1600  0.0481  0.0285
92368W        W35285  11.175  15.310   8.733  0.1841 -0.0525  0.0534
92369W        W35286  12.349  15.301   6.195  0.0542 -0.1272  0.0492
92370W        W35287  12.792  15.918   6.482 -0.1661 -0.0315  0.2085
92371W        W35288  11.379  16.258   6.208 -0.1318  0.0305 -0.0540
92372W        W35289  12.054  17.064   8.740 -0.1846  0.1379 -0.1587
92373W        W35290  12.057  15.646   8.727  0.2574 -0.3011  0.4217
92374W        W35291  12.975  14.842   4.142 -0.0082  0.2186  0.0922
92375W        W35292  12.937  14.921   2.779 -0.1207 -0.1191 -0.0757
92376W        W35293  11.286  19.089   6.077 -0.2387  0.2046 -0.1725
92377W        W35294  13.158  16.436   5.825 -0.2092 -0.1064  0.0310
92378W        W35295  11.724  18.308   4.824  0.0624  0.0916 -0.0346
92379W        W35296  12.828  16.522   8.386  0.1567  0.0511  0.0728
92380W        W35297  12.208  16.832   6.403  0.0638  0.2538  0.0783
92381W        W35298  13.582  18.241   4.149  0.0542  0.0060 -0.0985
92382W        W35299  11.652  18.153   4.308  0.1283 -0.1045  0.0042
92383W        W35300  10.513  17.383   4.191 -0.2039 -0.0340  0.3758
92384W        W35301  11.338  14.938   7.511  0.0585  0.1160 -0.2529
92385W        W35302  13.112  17.840   4.924 -0.2707  0.1165  0.2219
92386W        W35303  14.009  15.416   6.970  0.2271  0.2628  0.1029
92387W        W35304  12.746  14.499   8.405  0.1438  0.2582 -0.1590
92388W        W35305  13.253  16.903   7.592 -0.2351  0.2888 -0.0472
92389W        W35306  11.378  17.715   8.640  0.0489 -0.2324  0.0797
92390W        W35307  10.845  15.257   7.765 -0.3549 -0.2007  0.1858
92391W        W35308  13.569  17.899   5.823  0.0876 -0.1648 -0.3769
92392W        W35309  13.967  14.305   5.562  0.3502 -0.0447 -0.2184
92393W        W35310  12.014  15.304   5.798  0.3321 -0.1140  0.1164
92394W        W35311  13.621  15.128   6.822 -0.0013 -0.1920 -0.0284
92395W        W35312  13.479  17.760   3.809 -0.1810  0.0604  0.1873
92396W        W35313  13.918  17.327   5.016  0.0636 -0.3194 -0.1354
92397W        W35314  13.340  17.102   8.064  0.0638  0.1570  0.1981
92398W        W35315  11.876  15.762   4.285  0.0656 -0.0552 -0.2964
92399W        W35316  12.684  13.243   8.772 -0.0857  0.3179 -0.1076
92400W        W35317  12.401  17.748   5.688 -0.1898  0.0163 -0.0574
92401W        W35318  12.116  18.837   4.963  0.1118  0.1006 -0.0496
92402W        W35319  13.673  16.075   3.251 -0.0945 -0.0279 -0.0392
92403W        W35320  12.152  16.343   5.738  0.2533  0.1763 -0.0080
92404W        W35321  12.835  18.036   7.986 -0.0150  0.0843 -0.0255
92405W        W35322  11.133  14.644   2.499 -0.0954 -0.1377  0.4129
92406W        W35323  11.432  18.021   3.346 -0.3236 -0.0506 -0.2325
92407W        W35324  13.924  15.539   7.719 -0.3163  0.3749 -0.1284
92408W        W35325  15.006  16.941   8.016 -0.1009 -0.1612 -0.0368
92409W        W35326  12.424  17.672   3.768 -0.4843  0.0574 -0.0464
92410W        W35327  13.472  15.819   7.352  0.1324 -0.1428  0.0072
92411W        W35328  10.841  16.876   3.989 -0.1951 -0.0795  0.1143
92412W        W35329  13.812  14.114   6.727 -0.0683 -0.2532 -0.0809
92413W        W35330  12.778  17.199   5.591 -0.0117 -0.1000  0.2137
92414W        W35331  10.941  16.729   6.578  0.0640 -0.1101  0.2900
92415W        W35332  13.612  16.769   5.857  0.0043 -0.1772  0.1191
92416W        W35333  12.029  14.622   7.078  0.1195  0.2225  0.1100
92417W        W35334  13.139  15.289   5.256  0.3587 -0.0228  0.0592
92418W        W35335  13.171  16.478   3.955  0.1719  0.0166 -0.0693
92419W        W35336  14.277  15.674   8.062  0.2179 -0.1491 -0.0839
92420W        W35337  11.242  16.608   9.435 -0.0595  0.0284  0.3892
92421W        W35338  12.713  14.925   8.115  0.0483  0.1681 -0.2406
92422W        W35339  13.669  17.391   5.972  0.0725 -0.0949 -0.0107
92423W        W35340  14.556  16.636   6.902  0.2683 -0.1836  0.0077
92424W        W35341  12.209  16.656   4.164  0.1980 -0.1218 -0.2837
92425W        W35342  11.051  16.275   6.709 -0.2571 -0.1117  0.0382
92426W        W35343  12.424  16.787   8.490 -0.2883  0.2282 -0.2890
92427W        W35344  13.690  18.397   4.986  0.2893  0.0548 -0.1474
92428W        W35345  12.416  16.049   5.385 -0.0889  0.0304  0.0031
92429W        W35346  12.300  17.040   4.452  0.0558 -0.2075  0.3784
92430W        W35347  12.905  17.534   6.685  0.0723 -0.0000  0.1030
92431W        W35348  12.696  16.844   6.390  0.0084 -0.0187 -0.0336
92432W        W35349  11.602  19.635   4.123 -0.0117  0.1055 -0.0183
92433W        W35350  13.611  19.302   7.029  0.0504 -0.2982 -0.1990
92434W        W35351  13.544  17.646   4.851 -0.2907  0.0028 -0.2438
92435W        W35352  13.435  20.825   5.406 -0.1066 -0.1218 -0.3048
92436W        W35353  12.421  17.396   6.134  0.0162 -0.1066  0.0342
92437W        W35354  12.773  18.127   6.539  0.1964 -0.3884  0.0202
92438W        W35355  11.061  18.367   3.304 -0.0854  0.3275 -0.1221
92439W        W35356  12.736  18.745   2.469 -0.3457 -0.2176  0.0659
92440W        W35357  11.641  17.906   5.092 -0.0337  0.0372  0.1351
92441W        W35358  14.566  16.682   8.988 -0.1368 -0.0060  0.0280
92442W        W35359  12.500  15.724   3.920 -0.0832 -0.4453  0.0818
92443W        W35360  14.140  17.774   8.041  0.0174  0.1352 -0.1907
92444W        W35361  14.885  14.985   3.399 -0.2622 -0.2369 -0.3567
92445W        W35362  13.539  18.010   9.853  0.0812  0.1625 -0.1328
92446W        W35363  13.182  16.667   4.957  0.5578  0.0611 -0.1711
92447W        W35364  11.679  15.225   2.532 -0.0224  0.3144 -0.1364
92448W        W35365  13.542  17.406   7.576  0.1656  0.1685 -0.2173
92449W        W35366  13.239  14.880   8.980  0.1608  0.0864  0.1827
92450W        W35367  11.896  16.604   8.565 -0.3960  0.2331 -0.1425
92451W        W35368  16.069  17.549   6.149  0.1761 -0.1119  0.1673
92452W        W35369  13.240  17.628   5.559 -0.2068 -0.1247  0.2701
92453W        W35370  12.506  15.204   5.706 -0.0619 -0.2605  0.1836
92454W        W35371  12.526  14.256   4.741  0.3057 -0.2133 -0.2974
92455W        W35372  12.104  19.604   4.129 -0.0278  0.2389  0.0254
92456W        W35373  13.809  15.967   6.831  0.2584 -0.2590  0.1382
92457W        W35374  11.300  17.939   6.993  0.1265  0.2029  0.1297
92458W        W35375  13.219  17.638   6.161  0.1932  0.1115  0.2645
92459W        W35376  14.005  17.820   5.705  0.0986 -0.0991  0.1615
92460W        W35377  10.026  14.844   4.456 -0.1595  0.0574  0.1752
92461W        W35378  14.574  18.013   3.101 -0.3768  0.0816 -0.0449
92462W        W35379  13.263  16.340   7.530 -0.2247  0.1795 -0.3097
92463W        W35380  13.778  14.355   7.605 -0.1014 -0.0515  0.3858
92464W        W35381  12.006  16.250   4.443 -0.0446  0.0840 -0.1032
92465W        W35382  13.206  15.504   6.427 -0.1077  0.2517  0.0186
92466W        W35383  12.954  18.032   5.397  0.0142 -0.3693  0.0613
92467W        W35384  10.928  15.543   6.798  0.0796 -0.1835 -0.1661
92468W        W35385  12.131  17.510   4.291  0.0811 -0.0613 -0.0327
92469W        W35386  12.785  17.039   8.017  0.0762  0.0709  0.4078
92470W        W35387  15.007  17.814   4.687 -0.1942 -0.0902  0.1358
92471W        W35388  12.735  17.794   7.550  0.1369 -0.0685 -0.1569
92472W        W35389  12.316  15.681   5.783 -0.1102 -0.1259 -0.0064
92473W        W35390  13.196  16.492   4.481 -0.1658  0.0498  0.1284
92474W        W35391  12.694  15.808   4.990 -0.0155 -0.1714  0.0541
92475W        W35392  13.880  15.909   9.150  0.0002 -0.1382  0.6258
92476W        W35393  13.088  19.021   7.435 -0.2036 -0.3095 -0.1272
92477W        W35394  11.277  15.974   3.797 -0.2246 -0.2811  0.1073
92478W        W35395  13.262  18.447   5.479 -0.0255  0.2042  0.3000
92479W        W35396  11.887  16.247   7.729 -0.1221  0.0747 -0.0539
92480W        W35397  11.744  19.923   3.787  0.0822  0.0986  0.2982
92481W        W35398  15.163  15.818   5.474 -0.1295 -0.1450 -0.0711
92482W        W35399  13.236  18.691   5.027  0.3388  0.0768 -0.2629
92483W        W35400  14.093  16.409   4.749  0.0326 -0.2938 -0.1017
92484W        W35401  12.599  19.563   4.308  0.0339  0.3283  0.1538
92485W        W35402  13.751  16.353   7.209 -0.1890  0.1342 -0.0528
92486W        W35403  13.975  15.073   4.031 -0.0909 -0.3650  0.2741
92487W        W35404  12.705  16.059   5.850 -0.1487 -0.2177 -0.0065
92488W        W35405  12.532  18.008   4.796  0.3516 -0.0498  0.3886
92489W        W35406  12.678  16.277   7.549  0.3604 -0.0573  0.2517
92490W        W35407  13.308  15.678   8.314  0.0119 -0.0817 -0.0426
92491W        W35408  12.761  19.204   3.426  0.1853 -0.0148  0.0879
92492W        W35409  13.355  14.076   8.469  0.0193 -0.2437  0.0442
92493W        W35410  13.697  17.743   7.185 -0.1923  0.0301 -0.1260
92494W        W35411  13.458  18.503   6.621  0.0412 -0.0722  0.1697
92495W        W35412  12.270  15.342   3.171 -0.2823 -0.0748  0.1924
92496W        W35413  14.028  16.877   8.166  0.1885 -0.0107  0.0814
92497W        W35414  11.140  20.453   5.309  0.1914 -0.0446  0.0395
92498W        W35415  13.443  18.787   6.239  0.0603 -0.0116  0.1292
92499W        W35416  14.208  17.745   4.826 -0.0739  0.0008 -0.0058
92500W        W35417  12.906  16.868   4.312  0.2807  0.0855  0.0784
92501W        W35418  13.963  17.025   5.438  0.2284 -0.3233  0.0292
92502W        W35419  11.148  15.028   5.829 -0.0820  0.1632 -0.0724
92503W        W35420  14.008  15.788   7.304 -0.2022 -0.2755  0.1134
92504W        W35421  16.386  16.453   3.346  0.4159  0.2046  0.2693
92505W        W35422  11.458  15.882   6.462  0.1300  0.0636  0.2753
92506W        W35423   9.573  15.406   2.772 -0.0312 -0.0575  0.1540
92507W        W35424  11.255  16.459   4.698  0.1930  0.2297  0.0749
92508W        W35425  11.486  17.112   6.461 -0.0228 -0.2902  0.0576
92509W        W35426  12.171  13.695   8.348 -0.2083 -0.1083  0.0387
92510W        W35427  11.423  16.036   7.633  0.0302  0.0243 -0.0885
92511W        W35428  11.242  16.815   6.153  0.4075 -0.0742 -0.0528
92512W        W35429  10.842  15.876   2.370 -0.1773 -0.1729 -0.0995
92513W        W35430  13.061  18.799   2.871 -0.3074  0.1990 -0.2381
92514W        W35431  12.115  14.631   4.773  0.0337 -0.1495  0.1935
92515W        W35432  11.298  16.866   4.327 -0.0157  0.0050 -0.1917
92516W        W35433  14.085  18.231   4.236 -0.0031  0.3692  0.2253
92517W        W35434  14.507  17.918   5.178  0.1550  0.1102 -0.0880
92518W        W35435  15.248  14.962   6.591  0.0923  0.0376  0.1669
92519W        W35436  15.090  18.297   8.689  0.2737  0.0197 -0.0168
92520W        W35437  10.645  16.092   4.112 -0.0082  0.3333 -0.5733
92521W        W35438  11.847  17.364   9.858  0.0095 -0.1785  0.1944
92522W        W35439  14.138  16.929   8.695  0.0892  0.1770  0.2326
92523W        W35440  11.435  16.324   2.016  0.1126 -0.1236 -0.1024
92524W        W35441  11.933  17.184   7.453 -0.3002  0.2314  0.3448
92525W        W35442  12.452  18.224   5.689 -0.2772 -0.0280  0.1756
92526W        W35443  12.870  19.527   3.828 -0.1055 -0.0238  0.1411
92527W        W35444  12.157  18.003   6.093 -0.0747 -0.0600 -0.0975
92528W        W35445  11.384  17.268   7.467 -0.4449 -0.0714  0.2704
92529W        W35446  11.102  16.458   7.475  0.3781  0.0839  0.0574
92530W        W35447  13.689  15.518   4.671  0.3741 -0.0028  0.2083
92531W        W35448  10.598  16.921   7.604  0.0877 -0.1830 -0.0144
92532W        W35449  13.067  17.871   4.315  0.1407  0.0996 -0.1169
92533W        W35450  13.206  16.242   3.251 -0.0484 -0.2517 -0.2016
92534W        W35451  12.541  18.406   6.205  0.2445  0.1890 -0.2262
92535W        W35452  10.473  13.461   7.967  0.3588  0.1007  0.3384
92536W        W35453  11.170  19.608   6.138 -0.0909 -0.1834  0.1019
92537W        W35454  13.658  16.918   7.236 -0.1778 -0.1068  0.5964
92538W        W35455  13.628  16.954   5.062 -0.0344  0.4400 -0.1048
92539W        W35456  13.029  14.459   5.214 -0.1598 -0.3698  0.0367
92540W        W35457  12.772  19.484   5.326 -0.0060 -0.2421  0.0209
92541W        W35458  13.390  17.247   6.503  0.0788 -0.0370  0.0724
92542W        W35459  12.853  15.635   6.989 -0.3288 -0.2541 -0.1729
92543W        W35460  12.694  15.394   7.693  0.1601  0.0647 -0.0022
92544W        W35461  12.575  17.444   4.701  0.1596  0.0697 -0.0321
92545W        W35462  14.632  18.752   9.702  0.1189 -0.0798  0.0147
92546W        W35463  11.403  17.211   1.050  0.1802  0.1854  0.0857
92547W        W35464  14.562  17.556   2.895  0.4168 -0.1734 -0.0207
92548W        W35465  14.016  18.138   7.233 -0.0088  0.0442  0.1104
92549W        W35466  14.317  18.230   8.335  0.0842  0.2458  0.0305
92550W        W35467  12.193  18.271   5.112 -0.1513  0.1042  0.0229
92551W        W35468  14.526  17.204   7.050  0.3135  0.0257  0.4941
92552W        W35469  12.396  16.316   6.542 -0.0900  0.2954 -0.1769
92553W        W35470  11.506  17.635   6.470  0.0831  0.1378  0.0164
92554W        W35471  13.534  16.186   4.741  0.1637 -0.1353 -0.1500
92555W        W35472  12.856  16.818   5.917  0.0015  0.0136 -0.0666
92556W        W35473  13.287  14.829   5.385  0.1300 -0.1397 -0.0350
92557W        W35474  13.925  15.976   4.517 -0.1226 -0.0694  0.1958
92558W        W35475  10.913  17.492  10.063  0.3282 -0.2074  0.0014
92559W        W35476  12.446  17.223   6.596  0.3471  0.1018  0.0003
92560W        W35477   9.396  19.350   8.263 -0.3966  0.2182  0.1583
92561W        W35478  12.001  15.113   8.751  0.2736 -0.1318  0.1798
92562W        W35479  11.605  16.155   8.343  0.2782  0.0470 -0.0390
92563W        W35480  13.963  13.632   9.361 -0.2022  0.1206 -0.2105
92564W        W35481  10.107  16.058   7.045  0.1977  0.1806  0.0280
92565W        W35482  13.373  16.558   9.717  0.0486  0.0478 -0.1563
92566W        W35483  12.883  16.195   9.508  0.0874  0.1348  0.0246
92567W        W35484  14.515  18.258   9.930  0.2126  0.0071 -0.2713
92568W        W35485  14.480  17.035   8.331 -0.3172 -0.0666 -0.0883
92569W        W35486  11.416  15.695  10.600  0.1001 -0.0461  0.0658
92570W        W35487  12.398  15.623   9.113 -0.0835  0.0505  0.1628
92571W        W35488  10.351  14.691  10.816  0.1048  0.1450  0.3014
92572W        W35489  15.813  16.884   9.277  0.1468  0.6116 -0.1359
92573W        W35490  11.154  13.988  10.858  0.1768 -0.0245 -0.1643
92574W        W35491  13.409  17.378  10.014 -0.0256  0.1041  0.2533
92575W        W35492  14.241  17.715   9.644 -0.1340  0.3228 -0.0748
92576W        W35493  13.366  18.432   8.056 -0.0464 -0.1453 -0.0246
92577W        W35494  11.659  13.767   9.563  0.1382  0.2736  0.1634
92578W        W35495  13.729  16.369   9.324  0.4358 -0.1815 -0.2429
92579W        W35496  10.396  15.223   7.604  0.3155 -0.2257  0.3749
92580W        W35497  11.568  17.018   7.889 -0.4987  0.3106  0.0288
92581W        W35498  13.466  15.297   9.710  0.0440  0.2277 -0.4111
92582W        W35499  12.391  15.125   9.074 -0.0079  0.0019 -0.0014
92583W        W35500  15.845  17.469  10.455  0.1091 -0.3774 -0.0601
92584W        W35501  13.766  17.643   8.617 -0.0910  0.0131 -0.2771
92585W        W35502  15.773  16.304  10.461  0.3532  0.1862 -0.0143
92586W        W35503  11.376  14.559   7.945  0.2285  0.1768  0.0345
92587W        W35504  10.346  18.617   8.164  0.2690  0.1933  0.0512
92588W        W35505  12.697  18.846   7.081  0.2849  0.2647  0.1596
92589W        W35506  14.927  17.573   9.208 -0.1039 -0.1811  0.0785
92590W        W35507  12.447  19.144   6.791 -0.1662 -0.0202  0.1233
92591W        W35508  15.617  15.813  10.242 -0.0493  0.3146 -0.0972
92592W        W35509  12.841  15.498  10.406  0.1910  0.2210  0.0665
92593W        W35510  11.999  17.137   8.237 -0.1575  0.1165  0.3510
92594W        W35511  15.956  18.217   9.955 -0.0502  0.0296 -0.0098
92595W        W35512   9.514  14.014  10.433  0.0156 -0.3855  0.2426
92596W        W35513  13.917  17.717   7.633  0.1250  0.2395 -0.1213
92597W        W35514  15.347  14.075   9.972 -0.0332  0.3192  0.0093
92598W        W35515  11.267  16.128   7.144 -0.1575  0.1013 -0.0294
92599W        W35516  13.532  15.227   8.214 -0.3687  0.1909  0.3187
92600W        W35517  14.604  12.394   9.654  0.1049 -0.0652  0.0410
92601W        W35518  10.727  18.531   8.539 -0.0082 -0.1697  0.1219
92602W        W35519  14.479  14.446   9.992 -0.2112  0.0091  0.0769
92603W        W35520  14.659  17.981   9.313  0.2955 -0.4228  0.1934
92604W        W35521  13.084  15.662   9.633  0.2957 -0.2092 -0.1061
92605W        W35522  11.184  17.223   9.467  0.1304  0.1918 -0.1425
92606W        W35523   9.989  14.620  10.000 -0.0561  0.2256  0.0871
92607W        W35524  13.898  17.285   8.935  0.0711  0.3348 -0.1680
92608W        W35525  13.272  19.408  11.266  0.0107  0.0428 -0.0869
92609W        W35526  11.264  19.280   7.202  0.2244  0.0439 -0.0226
92610W        W35527  11.587  14.918  10.279 -0.0044  0.2446 -0.1904
92611W        W35528  13.050  15.268  10.041 -0.3092 -0.1302 -0.2608
92612W        W35529  10.547  16.232  10.623  0.1003 -0.1746 -0.0377
92613W        W35530  10.713  12.751   9.280 -0.3024  0.3320  0.2324
92614W        W35531  13.417  22.021   9.643 -0.0519 -0.1155 -0.0828
92615W        W35532  14.745  17.228   9.760 -0.0323  0.0773 -0.0378
92616W        W35533  11.654  15.859   9.785 -0.0697 -0.2723  0.1189
92617W        W35534  12.197  17.478  10.246 -0.0841  0.0321  0.3452
92618W        W35535  12.510  17.303   8.428 -0.0335 -0.0026 -0.0236
92619W        W35536  12.753  17.010   9.374 -0.1087  0.2156 -0.1376
92620W        W35537  10.568  17.142  10.507  0.1207 -0.0003  0.3097
92621W        W35538  12.890  15.405   8.863 -0.0372  0.1466  0.2218
92622W        W35539  10.866  17.707   9.595  0.1059 -0.0732  0.2212
92623W        W35540  12.995  18.136  10.354 -0.0974 -0.0790 -0.0034
92624W        W35541  13.066  17.827   9.870  0.0055  0.1184  0.0534
92625W        W35542  10.872  16.663   7.124  0.0686  0.0907  0.4200
92626W        W35543  11.752  16.885   9.944  0.2362 -0.2287 -0.0476
92627W        W35544  12.567  18.607   8.607  0.3649  0.0493 -0.1994
92628W        W35545  13.352  15.819   8.815 -0.4838 -0.0438  0.0522
92629W        W35546  12.615  15.776   8.681  0.0757  0.0407 -0.1070
92630W        W35547  11.224  16.659   9.942 -0.1977 -0.1367  0.2217
92631W        W35548  13.630  19.563   9.422  0.2608 -0.1136 -0.0572
92632W        W35549  14.611  14.561   8.459  0.2044 -0.2562 -0.0006
92633W        W35550  12.465  19.398   9.340  0.1735  0.0346  0.0957
92634W        W35551  10.656  16.562  10.987 -0.0451  0.1497  0.2313
92635W        W35552  10.074  13.349   7.679 -0.1304  0.1545  0.3156
92636W        W35553   9.181  15.742   6.994 -0.2454  0.0942 -0.1199
92637W        W35554  10.622  16.440   7.707 -0.1466  0.1409 -0.2347
92638W        W35555  13.598  15.285  10.233  0.0790 -0.2376  0.1440
92639W        W35556  11.500  16.391   8.875  0.0365  0.1734 -0.0326
92640W        W35557  10.757  16.152   7.113 -0.2401  0.0023  0.3303
92641W        W35558  12.903  18.559   9.488 -0.0426  0.3288 -0.2808
92642W        W35559  13.625  16.764  10.496 -0.0416  0.2587  0.2877
92643W        W35560  14.566  17.727  11.081  0.4979  0.1526  0.0439
92644W        W35561  10.036  16.444  10.935 -0.0846  0.2652  0.2321
92645W        W35562  10.782  15.294   9.716 -0.1175  0.0420 -0.3117
92646W        W35563  14.767  18.068  10.389 -0.0093 -0.1756 -0.1696
92647W        W35564  13.238  16.926  10.029 -0.1619  0.1422 -0.1132
92648W        W35565  10.547  15.172   8.160  0.2788 -0.0826 -0.4745
92649W        W35566  14.145  18.707   9.808  0.1283 -0.1964  0.1429
92650W        W35567  15.274  15.000  10.327  0.0338  0.1706  0.0730
92651W        W35568  12.515  18.366   9.135  0.1135 -0.1271 -0.2238
92652W        W35569  12.990  16.465  10.074 -0.2183 -0.0856 -0.1994
92653W        W35570  10.605  13.141  10.369  0.0127  0.1990 -0.0840
92654W        W35571  15.268  17.796   9.580  0.0628  0.0482  0.1334
92655W        W35572  10.518  17.757  10.415  0.2396 -0.1274 -0.0249
92656W        W35573  11.199  16.817   8.803  0.0898  0.4445  0.0363
92657W        W35574  14.028  17.312   9.443  0.0418 -0.2215  0.5897
92658W        W35575  13.007  13.791   9.345  0.1524 -0.0861 -0.0750
92659W        W35576  10.508  14.744   7.835 -0.1083 -0.1382  0.3617
92660W        W35577  12.685  15.067   9.739  0.0501  0.1017  0.4658
92661W        W35578  15.256  16.190   6.820  0.3944 -0.0961 -0.1104
92662W        W35579  15.516  16.162   8.311 -0.1060 -0.1072 -0.3324
92663W        W35580  12.556  14.636   9.391 -0.1497  0.1421  0.0487
92664W        W35581  14.080  15.173   9.748 -0.1054 -0.0458  0.1397
92665W        W35582  15.012  17.654  10.625 -0.0936  0.1170 -0.4251
92666W        W35583  10.996  17.149  10.936 -0.0815  0.1246 -0.1779
92667W        W35584  12.385  16.322   8.582 -0.1006  0.0780  0.2268
92668W        W35585  16.165  17.623   7.858 -0.1351 -0.3165 -0.0303
92669W        W35586  12.355  15.428  10.264 -0.0443 -0.1937  0.0968
92670W        W35587  15.121  15.798   9.954  0.1930  0.0889 -0.1138
92671W        W35588  11.609  15.644   8.420 -0.1184  0.0088 -0.0248
92672W        W35589  11.059  16.294   7.957 -0.1063 -0.3332  0.1710
92673W        W35590  12.298  16.037  11.550  0.0806  0.1126  0.1217
92674W        W35591  10.060  17.868   8.617 -0.3718 -0.0170  0.1609
92675W        W35592  15.224  17.388   9.827  0.2015  0.1054 -0.0216
92676W        W35593  13.388  15.334   8.667 -0.1807  0.3688  0.2195
92677W        W35594  14.094  15.978   8.551 -0.2014  0.0179 -0.1582
92678W        W35595  12.100  14.736   9.574  0.1289  0.1430  0.1233
92679W        W35596  12.201  16.744   7.078  0.0093  0.0669  0.0023
92680W        W35597  14.766  18.747   8.721  0.1234 -0.4599 -0.0637
92681W        W35598  10.034  16.234  11.497  0.3605 -0.1196  0.0142
92682W        W35599  13.956  15.467   9.334  0.3647  0.2958 -0.2504
92683W        W35600   9.772  14.640  10.928 -0.0408  0.1967 -0.1159
92684W        W35601  12.935  18.661   7.811  0.1951  0.2216  0.2160
92685W        W35602  12.194  16.610   8.987  0.1783  0.4232 -0.1383
92686W        W35603  11.775  14.579   9.926 -0.0390  0.2063  0.1380
92687W        W35604  13.675  17.983   7.940 -0.2955 -0.2737 -0.0447
92688W        W35605  14.197  16.421   9.425  0.2487 -0.1838  0.0050
92689W        W35606  15.172  17.778  10.180  0.1877  0.2407 -0.2241
92690W        W35607  13.624  18.374   7.644 -0.0013  0.1309 -0.2027
92691W        W35608  13.478  13.955   9.510  0.3892 -0.0892 -0.5357
92692W        W35609  10.854  16.697  11.534 -0.1367 -0.1949  0.0430
92693W        W35610  13.352  16.036   9.257  0.0618  0.1632 -0.0999
92694W        W35611  10.104  14.639   8.346  0.1459 -0.4121 -0.1486
92695W        W35612  13.012  11.876  10.636  0.0298  0.2041  0.4027
92696W        W35613  14.923  15.749   8.959 -0.1758  0.4225 -0.0787
92697W        W35614  12.244  15.894  10.052  0.2732  0.2017  0.2941
92698W        W35615  10.908  13.603  10.266 -0.1465 -0.3078  0.3698
92699W        W35616  11.046  18.344   9.443  0.0600  0.1149  0.1759
92700W        W35617  11.722  15.086   7.987  0.0215  0.0431  0.0251
92701W        W35618  12.728  17.133   7.006 -0.1128  0.0326 -0.3939
92702W        W35619  15.216  15.999  10.517 -0.1222 -0.2211  0.2565
92703W        W35620  10.638  14.009   8.930  0.1498  0.2278 -0.1477
92704W        W35621  11.718  19.326   7.974  0.3472  0.0051  0.0206
92705W        W35622   7.837  17.775   8.602 -0.1086 -0.0471 -0.0002
92706W        W35623  10.512  15.077   8.634  0.0760 -0.1466 -0.2551
92707W        W35624  10.405  15.569   7.186  0.2824  0.1632 -0.0115
92708W        W35625  12.793  16.370  10.778 -0.0623 -0.1112  0.0291
92709W        W35626  11.659  14.913  10.780 -0.3416 -0.0882  0.4203
92710W        W35627  10.445  15.044   9.102  0.0509 -0.0068  0.1444
92711W        W35628  12.177  15.010   9.994  0.1470 -0.5938  0.0815
92712W        W35629  14.555  15.572   9.815  0.1093  0.1895 -0.4593
92713W        W35630  11.180  14.601   9.440 -0.0880  0.0500 -0.3109
92714W        W35631  12.979  14.457   9.793  0.1890 -0.2094  0.1285
92715W        W35632  15.400  17.098   8.596  0.0193  0.1648 -0.0877
92716W        W35633  12.937  16.247   8.847  0.3320 -0.2767  0.1499
92717W        W35634  12.817  15.942  10.490  0.1335 -0.2070 -0.0854
92718W        W35635  10.645  17.988   8.432 -0.1571  0.2252  0.1275
92719W        W35636  11.271  15.595   9.184 -0.2272 -0.1583 -0.2638
92720W        W35637  12.294  17.040   9.211  0.1297 -0.0713 -0.4915
92721W        W35638  12.693  17.440   5.168  0.0195 -0.0790 -0.0548
92722W        W35639  14.079  18.411   8.762  0.0571  0.2059  0.0512
92723W        W35640  12.853  14.215   6.965  0.3857  0.1373  0.1489
92724W        W35641  14.977  18.226   9.643 -0.0428 -0.1089 -0.1825
92725W        W35642  13.153  13.880   9.996  0.1586 -0.1424 -0.3747
92726W        W35643  14.415  17.638   7.645 -0.1476  0.0834  0.1554
92727W        W35644  14.887  12.857   9.681  0.1821  0.0595 -0.0277
92728W        W35645  14.442  19.774  10.148 -0.1521  0.4610  0.3672
92729W        W35646  12.460  15.848   9.535 -0.0305  0.0549  0.0271
92730W        W35647  10.664  14.327   9.412  0.3310 -0.4341  0.0855
92731W        W35648  13.521  16.221  10.228  0.1020 -0.0815 -0.0791
92732W        W35649   9.978  14.111  10.155 -0.3488 -0.1387 -0.0547
92733W        W35650  14.406  15.372  10.273 -0.2156  0.2526 -0.3332
92734W        W35651  12.709  13.618   8.327 -0.2317 -0.1667  0.3021
92735W        W35652  11.474  17.600   9.672  0.0588  0.1246  0.1057
92736W        W35653  12.778  16.023   9.944  0.0112 -0.1725  0.0286
92737W        W35654  13.273  16.181   8.481 -0.3365  0.0026  0.4135
92738W        W35655  11.606  16.376   9.720 -0.1823 -0.0586 -0.2316
92739W        W35656  15.334  14.159  10.807 -0.1670  0.1101  0.1284
92740W        W35657  13.836  15.489   8.874 -0.2046 -0.2278  0.3642
92741W        W35658  12.533  17.542   9.485 -0.2748  0.2417 -0.0692
92742W        W35659  12.732  14.800   8.920  0.0461  0.0069  0.3700
92743W        W35660  14.555  14.178  10.526  0.1404 -0.1243 -0.1716
92744W        W35661  13.838  14.142  10.042 -0.2366  0.1779  0.0238
92745W        W35662  11.329  15.578   7.879 -0.1243 -0.1700 -0.0177
92746W        W35663  12.639  16.809   9.874 -0.1465  0.0861 -0.0136
92747W        W35664  11.200  14.790   7.025 -0.1989  0.0947 -0.1720
92748W        W35665  11.740  18.525   6.823 -0.1842 -0.1307  0.0505
92749W        W35666  14.186  16.929   9.800 -0.1548  0.1703  0.2509
92750W        W35667  13.090  14.930   9.444 -0.2193  0.0979 -0.0599
92751W        W35668   9.261  13.899   9.485 -0.0441  0.0289  0.3045
92752W        W35669  11.472  15.446   5.901  0.0723 -0.1651 -0.3456
92753W        W35670  12.195  16.156   7.370 -0.0076 -0.0053 -0.0755
92754W        W35671  13.413  18.563   9.232  0.0366  0.1461  0.2061
92755W        W35672  11.802  14.509   8.759  0.2722 -0.7324 -0.2867
92756W        W35673  10.960  16.809  10.531 -0.2104 -0.2679 -0.2014
92757W        W35674  13.588  13.785  10.274  0.2278 -0.0105 -0.0021
92758W        W35675  13.124  17.071  10.521 -0.0148 -0.1999  0.0284
92759W        W35676  12.090  16.145   9.426 -0.1490 -0.1105 -0.0460
92760W        W35677  14.472  13.639   9.508 -0.0114  0.3365  0.2767
92761W        W35678  11.190  14.971   9.813  0.2870  0.1436  0.2824
92762W        W35679  12.658  17.260  10.095  0.0923  0.0204 -0.3088
92763W        W35680  11.827  17.581  10.724  0.0233  0.1202 -0.1844
92764W        W35681  13.419  15.508   9.207 -0.0811  0.1357  0.0888
92765W        W35682  13.246  16.081   9.816  0.1134 -0.0992  0.1838
92766W        W35683  13.112  12.859  10.325 -0.0572 -0.1312  0.0275
92767W        W35684  10.604  14.861   6.978  0.0160  0.2512  0.0216
92768W        W35685  13.336  16.731   6.318  0.2495  0.0590 -0.1164
92769W        W35686  10.494  15.464  11.366  0.0386  0.3174  0.3053
92770W        W35687  11.257  18.061   9.849 -0.0014 -0.0257  0.1745
92771W        W35688  17.449  17.589  10.498 -0.1095 -0.4093 -0.2608
92772W        W35689  12.352  15.640   8.215  0.0210  0.0022  0.1566
92773W        W35690  13.355  18.392   8.689  0.3463 -0.0308 -0.2458
92774W        W35691  11.712  15.335   7.559 -0.2527  0.0625 -0.0515
92775W        W35692  11.867  19.913  10.237 -0.0091 -0.2398  0.0507
92776W        W35693  10.786  16.574   8.710  0.2267 -0.5504 -0.0790
92777W        W35694  12.483  17.357   7.522 -0.0867  0.2820 -0.0025
92778W        W35695  12.450  18.567  10.012  0.1015  0.3578  0.1592
92779W        W35696  13.122  14.790   7.110  0.0974 -0.0163 -0.0205
92780W        W35697  15.941  14.073  10.228 -0.0464  0.3252  0.3612
92781W        W35698  14.337  14.941   7.352 -0.2866 -0.0616 -0.0448
92782W        W35699  13.844  17.520   9.885 -0.3799 -0.2442  0.0334
92783W        W35700  11.472  14.933   8.881  0.0553 -0.1639 -0.1857
92784W        W35701  13.400  18.400  10.951 -0.2997  0.0251 -0.0864
92785W        W35702  11.431  14.023   6.054 -0.3555  0.2695 -0.1411
92786W        W35703  12.373  16.355   9.886  0.3048 -0.1627 -0.2770
92787W        W35704  11.396  13.384  10.455 -0.2958  0.1211  0.1047
92788W        W35705  15.945  15.339  10.118  0.2295 -0.0805  0.1874
92789W        W35706  11.296  16.195  10.822 -0.1207 -0.6560  0.1715
92790W        W35707  11.112  18.166   8.511  0.1511  0.1190  0.1273
92791W        W35708  11.025  16.227   9.111 -0.2013  0.0161  0.2579
92792W        W35709  11.872  17.544   8.713  0.2925 -0.1450 -0.0554
92793W        W35710  10.327  14.101   7.791  0.2161 -0.0749  0.1682
92794W        W35711  14.794  14.027   9.217 -0.1594  0.0435  0.1329
92795W        W35712  12.472  16.583   9.421 -0.0131  0.0885  0.3988
92796W        W35713  11.266  15.228  10.708  0.0184  0.0462  0.0293
92797W        W35714  13.868  14.291   8.544 -0.2172  0.2057 -0.0250
92798W        W35715  10.365  19.586   9.350  0.2180  0.1019  0.7264
92799W        W35716   9.934  16.857   9.869 -0.2933  0.1417 -0.2212
92800W        W35717  14.240  17.867   8.699 -0.2223 -0.0991 -0.0045
92801W        W35718  14.112  16.301   8.030 -0.0512  0.2987 -0.2195
92802W        W35719  16.526  14.177   9.915 -0.0685 -0.0135 -0.0308
92803W        W35720  12.846  15.820   9.122 -0.2288 -0.1799 -0.2552
92804W        W35721  11.874  15.144   9.283 -0.1523  0.1013 -0.0972
92805W        W35722  11.811  17.096  10.391 -0.3527  0.1304 -0.2266
92806W        W35723   9.132  15.093   5.717  0.0554 -0.1375  0.2225
92807W        W35724  14.565  16.148   8.164 -0.3729  0.1766 -0.1593
92808W        W35725  14.987  14.426  10.478  0.0443  0.0273  0.0365
92809W        W35726  11.846  20.178   6.115  0.1145 -0.0074 -0.3400
92810W        W35727  14.346  15.840  10.217 -0.1657  0.3837  0.2057
92811W        W35728  14.300  17.323   9.988 -0.1384  0.0375 -0.4401
92812W        W35729   9.761  14.558   9.146 -0.2947  0.1444  0.2046
92813W        W35730  14.793  15.287   8.661  0.2258 -0.1791  0.1229
92814W        W35731  16.760  17.971  10.398 -0.0345  0.2386  0.1648
92815W        W35732  10.308  13.533   9.477 -0.1294  0.1460 -0.3462
92816W        W35733  11.652  15.426   8.909  0.0270  0.1442  0.0842
92817W        W35734  12.400  16.877   7.677 -0.0748 -0.1685 -0.1354
92818W        W35735  13.651  14.863   9.512 -0.0609  0.1518  0.2065
92819W        W35736  14.522  17.633   8.341 -0.0084 -0.0598  0.1966
92820W        W35737  11.214  18.695   9.737  0.0013  0.4034  0.0374
92821W        W35738  11.946  15.648   9.392  0.0923  0.0428  0.0081
92822W        W35739  11.179  18.347   8.964  0.1826  0.2316  0.1637
92823W        W35740  13.206  17.196   5.829 -0.0373 -0.2296 -0.0460
92824W        W35741  13.270  18.986  10.683  0.0652 -0.1875  0.0427
92825W        W35742  11.727  16.294   7.243  0.0342 -0.1893 -0.0724
92826W        W35743  12.533  14.654  10.578  0.0598  0.0920  0.0809
92827W        W35744  10.405  15.746   9.921 -0.2668  0.2067 -0.2596
92828W        W35745  14.309  15.314   9.001 -0.0436  0.0023  0.0493
92829W        W35746  14.095  14.402   9.089 -0.4312  0.0134  0.0879
92830W        W35747  12.741  16.794  10.414 -0.0638  0.1216 -0.1350
92831W        W35748  11.642  14.970   7.094  0.0682  0.1631  0.4005
92832W        W35749  11.433  17.940   8.165 -0.0722  0.1011 -0.0688
92833W        W35750  12.302  18.580  11.447 -0.0221 -0.0514  0.0784
92834W        W35751  10.037  15.889   9.616 -0.1620 -0.1620 -0.0814
92835W        W35752   9.291  14.374   9.396 -0.1371 -0.1092 -0.3825
92836W        W35753  14.596  16.896  10.094 -0.0443  0.0097 -0.1553
92837W        W35754   8.035  15.201   8.874  0.2558  0.2506 -0.1793
92838W        W35755  10.035  14.517   7.872  0.1974  0.1710  0.0446
92839W        W35756  15.708  16.992   9.844  0.4043  0.4540 -0.2213
92840W        W35757  14.103  16.728  10.368 -0.1643  0.1120  0.4069
92841W        W35758  13.619  16.244   8.890  0.1478  0.0039 -0.0257
92842W        W35759  10.589  17.543   6.900  0.2981 -0.3358  0.1864
92843W        W35760   9.609  13.414   7.552 -0.0491 -0.2254  0.0664
92844W        W35761  14.614  16.747   9.555  0.2658  0.0810 -0.3657
92845W        W35762  12.654  17.879  10.127 -0.1454  0.1233 -0.1151
92846W        W35763  13.556  17.432   9.509  0.0408  0.1068  0.0679
92847W        W35764  10.556  16.140   9.637 -0.3708 -0.2264  0.1604
92848W        W35765  13.766  16.605  10.016  0.0786  0.1162  0.1215
92849W        W35766  15.881  16.313   9.955  0.1878 -0.2460  0.0477
92850W        W35767  11.913  13.338  10.679  0.1102 -0.1850  0.1176
92851W        W35768  11.367  16.015  10.170 -0.2667 -0.1330 -0.0254
92852W        W35769  10.534  13.876   9.752 -0.1014  0.2732  0.1542
92853W        W35770  10.962  15.491  11.052  0.0181  0.0149 -0.3736
92854W        W35771  10.992  14.756  10.342 -0.5057 -0.1828 -0.0044
92855W        W35772  14.857  16.732   8.475 -0.0802  0.3575 -0.1373
92856W        W35773   9.189  15.371   9.124  0.0298  0.1636  0.1362
92857W        W35774  13.867  17.214  10.296 -0.2578 -0.1969 -0.1226
92858W        W35775  12.716  16.699   8.906  0.0887  0.0019 -0.1280
92859W        W35776  12.986  17.308   9.737  0.2461  0.0795  0.0964
92860W        W35777  13.240  17.015   9.435  0.1321  0.4443  0.2857
92861W        W35778  10.095  15.128  11.417 -0.0775 -0.2520  0.0399
92862W        W35779  11.094  17.342   8.927  0.3536  0.0388  0.0047
92863W        W35780  12.790  16.655  11.224 -0.2352  0.1641 -0.2469
92864W        W35781  10.050  14.322  11.130 -0.0004  0.0573 -0.3723
92865W        W35782  14.130  16.388   8.897 -0.3621 -0.3031  0.0255
92866W        W35783  13.769  16.872   9.562 -0.2969  0.1580 -0.0432
92867W        W35784  15.467  14.421  10.257 -0.4182  0.0161 -0.4010
92868W        W35785  13.910  16.177   9.757  0.0473  0.0647 -0.4422
92869W        W35786  14.878  17.083   8.934  0.0655  0.1486 -0.0501
92870W        W35787  11.135  19.301  10.260 -0.0033 -0.1470  0.0428
92871W        W35788  14.006  16.211  10.263 -0.0984  0.1499  0.1071
92872W        W35789  12.918  21.854   0.566 -0.1135  0.3935  0.3390
92873W        W35790  12.032  20.315  31.754  0.1423  0.0704  0.1655
92874W        W35791  12.579  16.858  30.600  0.0314 -0.1366  0.1080
92875W        W35792  13.316  20.960  31.411 -0.0996  0.3663 -0.0460
92876W        W35793  11.228  21.378  31.657  0.2789 -0.0004 -0.1226
92877W        W35794  14.509  21.100  31.551  0.0880 -0.1768 -0.2465
92878W        W35795  12.014  17.435   2.290  0.0325 -0.2262 -0.0585
92879W        W35796  13.797  21.298  31.391  0.0549  0.1069 -0.1083
92880W        W35797  13.104  23.205   3.013  0.1230  0.0990  0.0856
92881W        W35798  13.702  19.095  30.012 -0.0077  0.1325  0.1929
92882W        W35799  12.174  19.848   1.540 -0.1866  0.0226  0.1321
92883W        W35800  11.322  22.476   1.819 -0.0539 -0.1017 -0.0249
92884W        W35801  11.631  17.667  30.007 -0.0984 -0.2636  0.0992
92885W        W35802  11.719  19.821   1.817 -0.0443  0.0740  0.3205
92886W        W35803  15.503  19.990   1.464 -0.2991 -0.0594 -0.1346
92887W        W35804  11.347  20.608  29.146 -0.0810  0.1251  0.1691
92888W        W35805   9.971  19.151   3.325  0.1936  0.4438 -0.0792
92889W        W35806  12.210  20.309  30.922  0.1198  0.0627 -0.5032
92890W        W35807  12.532  23.791  31.827 -0.0889 -0.1122 -0.1104
92891W        W35808  12.364  19.886   2.908 -0.0946 -0.2499  0.2453
92892W        W35809  13.904  20.724  30.913 -0.0049 -0.0003  0.2290
92893W        W35810  12.005  21.372   1.462  0.0064  0.1827  0.0452
92894W        W35811  12.295  20.568   0.237  0.2319  0.2629 -0.1735
92895W        W35812  11.221  18.824   0.902  0.3298  0.2952  0.2530
92896W        W35813  12.892  20.190   1.192 -0.0632 -0.1720 -0.1165
92897W        W35814  14.191  20.656   2.846 -0.1491  0.0230  0.0968
92898W        W35815  13.637  20.042   1.704 -0.1806 -0.2468  0.0681
92899W        W35816  11.654  21.954   2.065  0.1623 -0.1278 -0.1132
92900W        W35817  12.837  22.508  31.849 -0.2982  0.2561 -0.1929
92901W        W35818  12.887  20.371   4.589 -0.0208 -0.0422 -0.0315
92902W        W35819   8.103  20.912   1.560  0.0919  0.0867  0.1977
92903W        W35820  14.893  21.415   0.796  0.3653 -0.0792 -0.0754
92904W        W35821  10.637  20.273   0.807  0.1145  0.1948 -0.0520
92905W        W35822  13.073  20.067  30.933  0.1800  0.2533  0.2973
92906W        W35823  13.792  23.081   0.411  0.1062  0.0446  0.0160
92907W        W35824  10.012  21.494   3.602  0.0974  0.3822 -0.0856
92908W        W35825  11.076  21.623   0.488  0.0972  0.1345 -0.1038
92909W        W35826  12.364  22.352   3.723 -0.0064  0.1688  0.0402
92910W        W35827  14.247  21.212   1.649  0.0161  0.2257 -0.0240
92911W        W35828  12.427  19.420   1.226  0.0528  0.2024 -0.3066
92912W        W35829  13.965  19.841  29.886 -0.1921 -0.1024  0.0616
92913W        W35830  13.254  22.053   0.251  0.0355  0.2939 -0.3745
92914W        W35831  12.314  22.421   1.194  0.0876 -0.4968 -0.0181
92915W        W35832  11.648  20.835   4.312 -0.1395  0.0248  0.2504
92916W        W35833  11.139  20.200   1.776  0.1701 -0.1104  0.3507
92917W        W35834  14.374  19.368   0.559 -0.1232  0.2651  0.4295
92918W        W35835  12.435  22.201  30.634  0.2225 -0.1259 -0.0525
92919W        W35836  13.713  18.707  30.919 -0.2710  0.2545  0.4889
92920W        W35837  11.380  20.567  30.408 -0.4497 -0.2448 -0.2250
92921W        W35838  13.856  17.938   0.921  0.3385 -0.1976  0.2385
92922W        W35839  11.052  18.270   1.760  0.0496 -0.0055 -0.1861
92923W        W35840   9.500  22.089   1.554 -0.0973  0.1004 -0.1974
92924W        W35841  12.415  18.474   2.793  0.1443  0.0767 -0.1581
92925W        W35842  14.972  20.850   2.340 -0.1418  0.0527 -0.0203
92926W        W35843  11.580  18.714  31.537  0.0909  0.1058  0.0349
92927W        W35844  14.413  18.531  30.809  0.1812 -0.2952 -0.1048
92928W        W35845  10.265  22.079   3.027 -0.0477 -0.1931  0.1359
92929W        W35846  11.906  20.267   3.415 -0.1513 -0.3520 -0.0537
92930W        W35847  14.297  20.666  31.760  0.1193 -0.1370  0.1280
92931W        W35848  14.203  18.965  30.032 -0.2655  0.1880  0.1118
92932W        W35849  12.515  23.220  30.952  0.1534 -0.5183 -0.2262
92933W        W35850  11.459  20.011   0.896 -0.2143 -0.2912  0.2553
92934W        W35851  10.770  19.695   4.426  0.4970 -0.1473 -0.0516
92935W        W35852  10.991  19.395   3.375  0.2561  0.4251  0.1319
92936W        W35853  12.785  17.331  29.939  0.1355  0.0361 -0.1827
92937W        W35854  14.194  21.746   0.261 -0.1177  0.1189 -0.2746
92938W        W35855  11.033  21.321   3.643  0.3328  0.1624 -0.1964
92939W        W35856  15.965  17.543  30.438  0.1175 -0.1103 -0.0804
92940W        W35857  11.069  20.346   1.082  0.2659  0.1377 -0.3769
92941W        W35858  14.392  21.782   1.607 -0.2004 -0.2858  0.4217
92942W        W35859  14.025  21.130  31.849 -0.3540 -0.1406 -0.1164
92943W        W35860  12.925  18.700  31.561  0.1736  0.0667  0.3037
92944W        W35861  14.520  20.212  31.938  0.0973  0.1649 -0.0843
92945W        W35862  11.884  22.139   0.290  0.1179  0.0452  0.0206
92946W        W35863  14.553  20.045   1.155 -0.0234 -0.0679  0.2175
92947W        W35864  13.073  21.059   0.617 -0.2029 -0.1546 -0.1671
92948W        W35865  12.680  19.357  29.694  0.1686 -0.3073 -0.0623
92949W        W35866  12.142  24.444   3.766 -0.0710  0.1675 -0.1777
92950W        W35867  12.317  19.412   3.162 -0.4124  0.3110 -0.0116
92951W        W35868  12.804  20.634   1.479 -0.2565 -0.2265 -0.3117
92952W        W35869  11.504  21.000  28.168  0.2097 -0.4100 -0.0538
92953W        W35870   9.447  20.845   1.618 -0.1370 -0.2380 -0.1063
92954W        W35871  12.402  19.541  31.212  0.0590  0.2488  0.1989
92955W        W35872  11.385  19.892   2.575  0.0382 -0.0144 -0.1677
92956W        W35873  13.895  20.565   0.117  0.0251  0.0575 -0.1205
92957W        W35874  13.513  19.913  31.526  0.1096 -0.0048  0.1242
92958W        W35875  10.985  18.607   3.755  0.0426 -0.4595  0.0464
92959W        W35876  15.884  19.380   2.029 -0.1928  0.0329 -0.2633
92960W        W35877  10.298  19.973   1.771  0.1376 -0.0114 -0.1333
92961W        W35878  13.849  20.809  31.462 -0.0889  0.5223  0.0377
92962W        W35879  12.552  19.844  30.196 -0.1921  0.1895 -0.0956
92963W        W35880  14.658  22.820  31.203 -0.3680  0.2462  0.0338
92964W        W35881  11.566  21.062   3.103  0.2184 -0.1233  0.2069
92965W        W35882  11.941  20.799   0.666  0.0019  0.1749  0.0424
92966W        W35883  10.850  19.521   1.267 -0.3588  0.0780  0.0679
92967W        W35884  12.728  18.182   1.838  0.0510 -0.1274  0.1498
92968W        W35885  14.797  19.359   0.208  0.0045  0.0779  0.1682
92969W        W35886  11.140  18.350  29.804  0.0009 -0.1446 -0.0942
92970W        W35887  14.441  18.697   0.080  0.1499  0.1964 -0.2523
92971W        W35888  12.027  19.518   0.385 -0.1535  0.1335 -0.0208
92972W        W35889  11.365  21.126   0.081  0.1650  0.0411 -0.0578
92973W        W35890  13.633  18.766   2.613 -0.3287 -0.2379  0.3427
92974W        W35891  12.822  23.295   0.255  0.3236 -0.1332 -0.0273
92975W        W35892  13.360  24.613   2.529  0.0604 -0.0572  0.3235
92976W        W35893  13.339  21.484   0.749 -0.1064  0.1038  0.1761
92977W        W35894  10.566  19.632   5.026  0.1099 -0.0960  0.1429
92978W        W35895  11.424  20.237  30.036  0.0355  0.0440  0.1503
92979W        W35896  12.501  20.256   1.537 -0.1393  0.0111 -0.1917
92980W        W35897  13.091  19.973   0.704  0.2196 -0.3237  0.3309
92981W        W35898  13.489  19.710  30.170 -0.0635 -0.0424 -0.2853
92982W        W35899  12.989  23.388   2.114  0.2130  0.2505  0.2130
92983W        W35900  13.200  20.855   0.199  0.0179  0.1148 -0.0890
92984W        W35901  13.401  20.706   0.693  0.0921 -0.0539 -0.2121
92985W        W35902  14.397  18.640   0.985 -0.1149  0.1525 -0.1178
92986W        W35903  14.841  21.772  31.873  0.3214 -0.1631  0.1188
92987W        W35904  13.742  21.142   0.826  0.1958  0.0643 -0.1503
92988W        W35905  12.028  17.848  29.655 -0.0502  0.3381 -0.0774
92989W        W35906  12.848  22.348   2.414 -0.0965 -0.0065  0.0053
92990W        W35907  11.684  20.992   1.104 -0.2345 -0.0206  0.2781
92991W        W35908  10.716  18.887   1.107 -0.1204  0.0125 -0.0556
92992W        W35909  14.867  19.718  30.287 -0.1775  0.2342 -0.0545
92993W        W35910  13.700  19.044  31.267 -0.1940 -0.3741  0.0811
92994W        W35911  12.326  19.727   5.116  0.2962  0.0336 -0.1051
92995W        W35912  12.813  20.915   2.943  0.2531 -0.0246 -0.2986
92996W        W35913  10.227  21.957   0.345 -0.0164 -0.4948 -0.2980
92997W        W35914  12.505  22.615   2.185  0.0086 -0.0968  0.4062
92998W        W35915  12.227  16.951  30.993  0.1499  0.0468  0.1100
92999W        W35916  15.051  17.220  29.723  0.0746 -0.0320 -0.1331
93000W        W35917  13.294  21.393   1.595  0.0425 -0.4636 -0.2795
93001W        W35918  14.506  19.488  30.539  0.0765 -0.2516  0.0469
93002W        W35919  13.892  17.381  29.695 -0.0393  0.1837 -0.0738
93003W        W35920  12.441  20.786  30.347  0.2894  0.0211 -0.0107
93004W        W35921  11.152  20.600   2.888  0.2418 -0.2689  0.0264
93005W        W35922  13.927  20.304   0.636 -0.1640  0.0064 -0.0179
93006W        W35923  12.957  22.290   1.318  0.0459 -0.0255  0.2769
93007W        W35924  12.384  22.062  31.648  0.4486 -0.2880  0.0381
93008W        W35925  14.966  20.874  28.916 -0.0524  0.1783  0.0234
93009W        W35926  10.974  20.173  31.857  0.2270 -0.0926  0.0036
93010W        W35927  12.564  22.052   2.029  0.3359  0.2097 -0.3021
93011W        W35928  13.096  21.163  30.946  0.1802 -0.1820 -0.2398
93012W        W35929  12.029  19.014   2.249  0.1820  0.4568 -0.1770
93013W        W35930  11.615  20.991  31.664 -0.0368 -0.0661  0.0198
93014W        W35931  13.163  20.280  31.411  0.0158  0.0582 -0.6678
93015W        W35932  11.483  22.587  31.279  0.2566 -0.1443 -0.2486
93016W        W35933  12.529  22.026   1.488 -0.1937 -0.1074  0.0314
93017W        W35934  13.794  19.843   1.229 -0.0364 -0.1742  0.2034
93018W        W35935  12.570  19.105   2.829 -0.1843  0.0848  0.0166
93019W        W35936  13.884  21.010   3.144 -0.0636 -0.1363 -0.1541
93020W        W35937  12.325  21.165  31.846 -0.0205 -0.0259  0.1567
93021W        W35938  11.053  19.880   3.245 -0.4301  0.2416 -0.3377
93022W        W35939  10.952  21.425  30.937  0.0967  0.2190  0.2129
93023W        W35940  12.633  19.779   3.465 -0.4291  0.2580 -0.0803
93024W        W35941  11.906  20.696   2.260 -0.0411  0.4378  0.0033
93025W        W35942  10.763  21.802   2.406  0.2781  0.0898  0.1082
93026W        W35943  13.499  22.078   2.877  0.0641  0.1140  0.0400
93027W        W35944  12.806  21.542  31.637  0.4917  0.2002 -0.0755
93028W        W35945  12.861  18.179   0.868 -0.2184  0.2009  0.3060
93029W        W35946  12.678  18.732  30.069  0.0869  0.2138 -0.0942
93030W        W35947  11.197  19.940   1.337  0.3169 -0.3133  0.1150
93031W        W35948  12.434  20.925   1.425 -0.0138  0.0958  0.2278
93032W        W35949  12.794  17.708   0.793  0.0419  0.1173  0.0887
93033W        W35950  11.580  20.495   0.853  0.1986 -0.1059  0.2143
93034W        W35951  13.540  20.512  31.180 -0.1192 -0.1275 -0.0442
93035W        W35952  12.036  22.057   3.334 -0.0276 -0.4149 -0.0709
93036W        W35953  12.907  20.562   0.849  0.0590  0.1440 -0.0157
93037W        W35954  14.301  19.402   1.299  0.0565  0.1185  0.0625
93038W        W35955  12.227  21.173   0.431  0.2440 -0.0508 -0.3664
93039W        W35956  10.229  18.040  30.273  0.2788 -0.1058 -0.1060
93040W        W35957  12.669  20.553  31.289  0.0548  0.1135  0.2206
93041W        W35958  15.043  18.710   3.806 -0.2475  0.0964 -0.0636
93042W        W35959  13.783  20.309  30.071 -0.0083 -0.1123 -0.1531
93043W        W35960  11.501  21.675   0.221  0.2180  0.2472  0.2042
93044W        W35961  14.523  20.143   0.580  0.3352 -0.0619 -0.1685
93045W        W35962   9.420  21.709   1.204  0.0226 -0.0726  0.1415
93046W        W35963  12.784  20.530   3.385 -0.0728  0.0282 -0.1269
93047W        W35964  13.916  19.734  31.886  0.0960  0.2947 -0.0842
93048W        W35965  15.214  19.511   1.263  0.1730 -0.2073 -0.1412
93049W        W35966  13.106  20.723   4.935 -0.0079  0.0831  0.0518
93050W        W35967  12.118  19.129  31.619  0.0464 -0.0773 -0.1324
93051W        W35968  15.197  18.861   1.791  0.0027  0.0193  0.0868
93052W        W35969  10.773  19.918  31.458  0.1832  0.1262  0.2834
93053W        W35970  11.846  21.448   1.969 -0.1784 -0.2353  0.2404
93054W        W35971  13.113  21.412   0.266 -0.3056 -0.1648 -0.1581
93055W        W35972  11.552  22.595   0.246  0.2919  0.0609  0.1521
93056W        W35973  11.984  18.066   5.525  0.2783 -0.2432 -0.0070
93057W        W35974  13.876  21.621   0.784  0.0075  0.2559  0.1379
93058W        W35975  10.937  20.589   1.578  0.0538  0.0833 -0.1542
93059W        W35976  12.571  18.899   0.261  0.0110  0.2236 -0.0547
93060W        W35977  13.039  19.522   0.536  0.2703 -0.3505  0.1963
93061W        W35978  12.870  21.826   2.981 -0.3252  0.1281  0.0789
93062W        W35979  10.471  21.117   4.313 -0.1221  0.1547  0.1370
93063W        W35980   9.926  21.323   2.374 -0.2223  0.1105  0.1184
93064W        W35981  13.903  19.846  30.452 -0.2459  0.1371  0.2431
93065W        W35982  15.656  20.068  30.228 -0.4901 -0.0723 -0.3924
93066W        W35983  14.297  22.386   3.384  0.0768 -0.0344 -0.1913
93067W        W35984  12.280  21.184   0.950  0.1198 -0.3103  0.1641
93068W        W35985  11.761  19.907  31.952  0.0298 -0.1529 -0.0514
93069W        W35986  10.723  20.124   1.459  0.0940  0.1311  0.0733
93070W        W35987  12.255  21.660   2.998 -0.0481  0.2268  0.1791
93071W        W35988  11.478  21.780   0.766  0.2185 -0.0676  0.1643
93072W        W35989  11.949  23.692   1.935  0.2226  0.3077  0.0026
93073W        W35990  11.757  21.736   3.046 -0.1315  0.0303  0.0456
93074W        W35991  11.549  19.420  31.611  0.1640  0.0639  0.0329
93075W        W35992  12.608  21.298  30.536  0.0286 -0.0307 -0.3095
93076W        W35993  13.603  17.573   1.776 -0.0147  0.0339 -0.2587
93077W        W35994  13.700  18.939   4.094 -0.0579 -0.2019  0.1452
93078W        W35995  12.914  19.276  30.763 -0.2143  0.3132 -0.0234
93079W        W35996  13.381  18.953   1.896  0.1720 -0.2532 -0.0223
93080W        W35997  13.590  21.050  31.006  0.1561 -0.0612  0.2952
93081W        W35998  13.864  21.626  31.730 -0.0955  0.1571  0.6172
93082W        W35999  11.964  17.905   4.645  0.3049  0.2643  0.2310
93083W        W36000  12.578  21.396   3.246 -0.1617  0.0318  0.1258
93084W        W36001  11.672  20.351   4.853  0.1275  0.0897  0.2039
93085W        W36002  13.169  19.542  31.099 -0.2717  0.0335 -0.1828
93086W        W36003  12.290  21.185  31.255  0.4379 -0.1088  0.0804
93087W        W36004  10.866  21.288   0.134 -0.2356  0.2615  0.1142
93088W        W36005  14.588  20.496   1.452  0.1199  0.0150  0.2776
93089W        W36006  12.440  20.687  31.713  0.3742  0.0580  0.0464
93090W        W36007  14.154  19.004   3.290 -0.1469 -0.0771 -0.0124
93091W        W36008  12.261  21.607  31.619  0.1697 -0.0503  0.0363
93092W        W36009  14.083  19.638   1.665 -0.0481  0.2834  0.1089
93093W        W36010  13.659  19.541  31.206 -0.3988  0.1862 -0.1951
93094W        W36011  12.794  19.819  31.293  0.0729  0.3604  0.1942
93095W        W36012  11.811  17.961   1.658 -0.2900  0.3588 -0.2644
93096W        W36013  14.344  20.598  30.746 -0.1362 -0.1246 -0.0199
93097W        W36014  12.146  19.626  31.741  0.1860  0.0818  0.0654
93098W        W36015  12.552  18.495   0.983  0.1177  0.2426 -0.1130
93099W        W36016  13.047  19.019   0.450  0.0546  0.1115  0.1713
93100W        W36017  12.649  20.196   0.632  0.0151 -0.4695  0.0300
93101W        W36018  12.023  20.348   3.949 -0.1380 -0.1071 -0.1083
93102W        W36019  12.182  20.825   2.740  0.1663 -0.1365 -0.0910
93103W        W36020  15.193  16.327  30.918  0.1583 -0.0173 -0.2019
93104W        W36021  12.306  19.841   2.438  0.1997 -0.2178  0.0678
93105W        W36022  15.925  19.905   1.794  0.2838 -0.0874 -0.1221
93106W        W36023  13.181  19.302  29.468 -0.1238  0.1224  0.0250
93107W        W36024  11.994  21.250   3.110 -0.1943 -0.0431 -0.3099
93108W        W36025  12.667  22.076   0.988 -0.3047  0.0655 -0.3897
93109W        W36026  13.815  19.147   1.341  0.0456 -0.2979  0.1040
93110W        W36027  13.073  19.164   0.918 -0.1660 -0.2582 -0.2054
93111W        W36028  13.731  20.350  29.412 -0.0509 -0.1388  0.0676
93112W        W36029  14.116  20.256   1.509  0.1693 -0.1355 -0.1866
93113W        W36030  12.609  19.347   0.266  0.1138 -0.2490  0.1657
93114W        W36031  10.610  21.459   2.760  0.0265  0.3130  0.0438
93115W        W36032  11.647  22.015   2.550 -0.3116  0.0884 -0.3552
93116W        W36033  12.010  21.135  28.825  0.2140  0.3440  0.1543
93117W        W36034  14.127  19.782   0.856  0.0992 -0.0058 -0.0540
93118W        W36035  12.094  20.697   1.135  0.1883  0.2424  0.1474
93119W        W36036  12.544  21.832   2.602  0.2113 -0.1719  0.1113
93120W        W36037  11.615  20.743  30.830  0.2146  0.0131 -0.2341
93121W        W36038  13.406  21.449   3.648 -0.0175 -0.2943  0.1057
93122W        W36039  12.848  21.184   1.545 -0.3338  0.0557  0.0115
93123W        W36040  12.623  17.311  31.193 -0.4112  0.1252  0.1790
93124W        W36041  12.161  22.844   0.958 -0.0941 -0.0656 -0.1403
93125W        W36042  10.783  19.815   1.911 -0.0218  0.0668 -0.1776
93126W        W36043  12.165  21.868   1.235 -0.1527  0.0942  0.0400
93127W        W36044  13.628  19.323  31.848  0.3165  0.1116 -0.1600
93128W        W36045  12.979  21.352   2.003  0.3430 -0.0104 -0.0757
93129W        W36046  12.657  20.955   0.240 -0.0437  0.0753 -0.3160
93130W        W36047  16.363  18.168   1.789  0.0568 -0.1359 -0.3496
93131W        W36048  12.701  21.475   3.773 -0.1013 -0.0423  0.1868
93132W        W36049  11.869  20.557   1.567  0.1289 -0.0572  0.0725
93133W        W36050  11.866  22.555   2.698 -0.1709 -0.0074  0.3054
93134W        W36051  14.620  19.668   0.841 -0.2869 -0.0337 -0.1214
93135W        W36052   9.622  21.241   1.349  0.0359 -0.0102 -0.2120
93136W        W36053  10.374  18.700   4.750 -0.4778  0.0123 -0.0557
93137W        W36054  13.662  20.385   3.704  0.1382  0.1732 -0.3840
93138W        W36055  12.931  22.095  31.534  0.1267 -0.1758 -0.1543
93139W        W36056  12.906  18.405   1.386  0.0021 -0.0104 -0.2989
93140W        W36057  11.931  22.857  30.367 -0.4573  0.0147  0.1871
93141W        W36058  10.579  20.713   3.115  0.2134  0.1353 -0.3118
93142W        W36059  12.522  20.754   2.378  0.0333 -0.3174  0.1289
93143W        W36060  11.540  22.566  29.570 -0.0388  0.0870  0.1346
93144W        W36061  13.612  21.556   0.361  0.0465  0.0178  0.2715
93145W        W36062  15.030  21.556  29.978  0.0338 -0.2251  0.2228
93146W        W36063  14.537  24.349   1.999 -0.0335  0.0720 -0.4243
93147W        W36064  13.233  18.693   0.046  0.2392  0.0882  0.0762
93148W        W36065  11.357  19.609   2.965  0.0775 -0.1529 -0.2086
93149W        W36066  11.606  21.829  28.585 -0.2038 -0.0752 -0.0030
93150W        W36067  11.667  24.499  31.855 -0.0558 -0.0302 -0.3355
93151W        W36068  10.567  23.693   1.595  0.0429 -0.2075 -0.1797
93152W        W36069  13.868  21.777   1.585  0.0209  0.3013 -0.2684
93153W        W36070  13.647  17.357  28.820 -0.3531  0.1071  0.1173
93154W        W36071  16.147  17.495  29.931  0.1367 -0.0717  0.1851
93155W        W36072  13.208  18.415  27.790  0.0245 -0.1140 -0.1056
93156W        W36073  13.534  23.958   3.898  0.0973 -0.0598 -0.0604
93157W        W36074  12.892  19.666   1.021  0.1257  0.1681 -0.0499
93158W        W36075  13.712  17.497  30.251 -0.0791  0.1900  0.0065
93159W        W36076  11.200  19.971   3.962  0.2808  0.0204 -0.1164
93160W        W36077  13.470  19.795   3.698  0.0184  0.2743  0.3663
93161W        W36078  11.863  22.181   0.965  0.2657  0.1126 -0.3096
93162W        W36079  15.343  19.085  30.929 -0.0238  0.3775 -0.0991
93163W        W36080  11.917  19.597  30.418 -0.1173 -0.0067 -0.0597
93164W        W36081  13.371  18.914   1.377  0.0636 -0.0073  0.5446
93165W        W36082  13.063  18.471   0.485  0.1150 -0.1367  0.1455
93166W        W36083  10.355  21.525   0.997 -0.2023 -0.0610  0.1830
93167W        W36084  12.928  21.611   1.003  0.0026  0.1671 -0.0913
93168W        W36085  11.966  23.230   0.704  0.0823 -0.0324  0.1656
93169W        W36086  13.025  22.705   2.115  0.3320  0.0718 -0.2492
93170W        W36087  13.335  23.617   1.089  0.0142 -0.0742 -0.0145
93171W        W36088  12.647  19.677  31.749 -0.0209  0.0936 -0.2202
93172W        W36089  14.220  16.051  29.754 -0.0199 -0.1227 -0.2580
93173W        W36090  12.751  19.576   2.532  0.1655  0.0229  0.1947
93174W        W36091  13.366  18.742  29.753  0.0804  0.1018  0.0568
93175W        W36092  12.483  20.445   1.089 -0.1371 -0.1275 -0.1407
93176W        W36093  13.450  18.128  29.775 -0.0351  0.0036  0.0150
93177W        W36094  14.400  20.545   0.322 -0.0675 -0.1467  0.1066
93178W        W36095   9.938  19.662   5.563 -0.0395 -0.1854  0.2912
93179W        W36096  11.930  18.906  31.225  0.1116  0.0465  0.2084
93180W        W36097  16.784  21.148   0.697  0.1016  0.0680 -0.0385
93181W        W36098  13.549  20.190  27.969  0.0518 -0.1081  0.1663
93182W        W36099  14.259  19.636   4.045  0.0374 -0.1373  0.0101
93183W        W36100  10.927  19.970   0.389  0.0200  0.1796  0.0382
93184W        W36101  12.304  18.516  31.025  0.2421 -0.1384  0.1765
93185W        W36102  12.364  20.215   3.301 -0.1535 -0.0437 -0.0008
93186W        W36103  12.229  20.353   2.483  0.0604 -0.1106  0.1861
93187W        W36104  13.047  21.597   3.376  0.0843 -0.0343 -0.1876
93188W        W36105  11.315  19.503   1.109 -0.2107 -0.0860  0.3487
93189W        W36106  11.399  21.608  29.175  0.0886 -0.2466  0.2108
93190W        W36107  13.672  19.864   0.603  0.0080  0.1102  0.1106
93191W        W36108  12.703  23.853  30.911 -0.2309  0.1015 -0.1039
93192W        W36109  13.374  21.713  31.781  0.2613 -0.1625 -0.1724
93193W        W36110  13.615  21.011   0.392  0.0019  0.0587  0.1316
93194W        W36111  10.538  20.922   1.713  0.0599 -0.1981  0.1069
93195W        W36112  12.001  20.992   1.761  0.4067  0.0522  0.1849
93196W        W36113  13.461  23.167   1.366  0.4988 -0.1240 -0.1077
93197W        W36114  10.943  18.222  31.261 -0.3636  0.0355  0.1720
93198W        W36115  12.463  19.722   0.645 -0.0531 -0.0970 -0.1468
93199W        W36116  10.627  21.092   1.239 -0.1200  0.0022 -0.0380
93200W        W36117  15.051  18.022  30.403 -0.1748  0.4263  0.1796
93201W        W36118  15.026  19.950   0.896  0.1837 -0.2340  0.0173
93202W        W36119  12.175  21.762  29.327  0.2799  0.0741 -0.2133
93203W        W36120  13.291  19.030   3.360  0.1603  0.1548  0.0768
93204W        W36121  11.336  21.393   1.864 -0.1183 -0.0112  0.0838
93205W        W36122  13.238  22.195   4.177  0.3771 -0.0572  0.0544
93206W        W36123  12.537  22.518  31.459 -0.3038 -0.1733 -0.1867
93207W        W36124  11.974  19.845   0.735  0.2013 -0.1077 -0.1195
93208W        W36125  11.937  20.529  30.453 -0.0460  0.2512  0.1073
93209W        W36126  11.755  24.146   1.003  0.2751  0.2651 -0.0027
93210W        W36127  13.740  22.039   0.073  0.0864 -0.1533  0.1142
93211W        W36128  13.959  21.175  30.650 -0.2737 -0.0448  0.1548
93212W        W36129  17.395  20.047   0.863  0.2019  0.3218  0.0454
93213W        W36130  12.669  19.083  31.724  0.1028 -0.0632 -0.1531
93214W        W36131  13.630  18.734  31.666 -0.0422 -0.0913 -0.5076
93215W        W36132  12.405  16.106  31.214 -0.2754  0.0213  0.1047
93216W        W36133  11.253  19.637   2.063  0.0052  0.0909 -0.0790
93217W        W36134  11.417  19.689  31.217  0.2301  0.3259  0.0137
93218W        W36135  12.353  20.029  31.358 -0.2990 -0.0846  0.0518
93219W        W36136  10.409  20.083   0.378 -0.0454 -0.1565  0.0384
93220W        W36137  11.391  19.189   3.250  0.0671  0.0343 -0.3198
93221W        W36138  11.826  18.661   3.052 -0.2404  0.2555 -0.2354
93222W        W36139   9.946  20.142   2.084  0.0959  0.0812  0.2464
93223W        W36140  12.675  19.234  30.247 -0.3845 -0.2820 -0.1435
93224W        W36141  14.863  18.580  30.366 -0.1424  0.4221 -0.1353
93225W        W36142  12.230  20.044   0.292  0.0138 -0.2306  0.0768
93226W        W36143  10.070  20.745   1.954 -0.1562 -0.3163 -0.1312
93227W        W36144  13.341  21.925   1.572  0.1797  0.1663  0.3096
93228W        W36145  14.342  21.085  31.040 -0.1350  0.0849  0.0371
93229W        W36146  11.599  19.445   0.695  0.1675 -0.0807 -0.1312
93230W        W36147  13.566  20.882   3.573 -0.0479 -0.1172  0.2079
93231W        W36148  10.312  21.004   0.896 -0.2427  0.0004  0.0690
93232W        W36149  12.597  20.403   5.008  0.1638 -0.0831  0.1883
93233W        W36150  10.708  18.931   2.092 -0.1205 -0.3052 -0.1623
93234W        W36151  11.081  21.408  30.432 -0.1370  0.0461 -0.0213
93235W        W36152  12.737  19.763   1.495  0.0490  0.1877  0.0119
93236W        W36153  12.067  21.773  30.416  0.0764 -0.2198  0.1557
93237W        W36154  14.738  20.416  29.943 -0.1774 -0.2964  0.1057
93238W        W36155  13.333  20.260   0.341 -0.3069 -0.1481 -0.1319
93239W        W36156  11.566  23.040   2.307 -0.1945 -0.3713  0.1482
93240W        W36157  11.590  20.656   3.738  0.0575  0.0861  0.1897
93241W        W36158  14.996  18.861  29.173 -0.0085  0.1788  0.1815
93242W        W36159  13.254  22.100   3.399  0.0063 -0.2828 -0.1051
93243W        W36160  13.843  20.721  30.288 -0.1833  0.1137  0.4399
93244W        W36161  15.474  18.520   3.755 -0.4914  0.1294  0.0498
93245W        W36162  14.350  19.943  30.177  0.1075  0.2890  0.0794
93246W        W36163  11.713  19.256   2.889 -0.1076  0.3687  0.0015
93247W        W36164  11.059  20.238   2.292 -0.4900 -0.0204 -0.0730
93248W        W36165  13.661  20.541   3.049  0.0963 -0.1982 -0.1536
93249W        W36166  13.489  18.312   0.777  0.2758 -0.0990 -0.0740
93250W        W36167  13.505  17.983  30.253  0.1664 -0.0364  0.0928
93251W        W36168  14.644  18.710  29.928  0.2062 -0.2207 -0.1652
93252W        W36169  10.870  18.765   4.744  0.0338 -0.1353 -0.2219
93253W        W36170  12.247  17.477  30.874  0.0489  0.3817  0.0932
93254W        W36171  12.043  22.040   2.794  0.1147  0.0627  0.1088
93255W        W36172  12.778  19.906   0.257  0.1175  0.0376 -0.2002
93256W        W36173  12.140  21.816   1.787  0.2224 -0.1822  0.0741
93257W        W36174  12.636  20.175  31.775  0.0242  0.0139  0.3297
93258W        W36175  14.611  21.260  28.215 -0.1122 -0.0690  0.2127
93259W        W36176  13.778  23.336   2.190  0.0620 -0.1683  0.0862
93260W        W36177  12.845  20.820   1.963 -0.0999 -0.0636 -0.3342
93261W        W36178  12.548  23.940   2.715 -0.1496 -0.2129  0.2672
93262W        W36179  14.233  20.593   1.860 -0.2621  0.2218 -0.0103
93263W        W36180  10.158  19.622   3.174 -0.0404  0.0903 -0.1570
93264W        W36181  13.657  21.072   1.370 -0.0627  0.1937  0.1323
93265W        W36182  14.143  20.044   0.294  0.1703 -0.1363 -0.1895
93266W        W36183  13.367  20.465   1.860  0.1858 -0.3145 -0.0170
93267W        W36184  10.950  19.812   0.839 -0.1324  0.0301 -0.2937
93268W        W36185  12.904  18.302   0.044  0.4261 -0.2344 -0.0220
93269W        W36186  12.383  22.847   2.673 -0.0921 -0.0525  0.2434
93270W        W36187  13.156  22.961   0.916 -0.0889  0.3863  0.0292
93271W        W36188  11.683  20.776   6.228  0.0453  0.1126  0.2285
93272W        W36189  11.341  19.586   3.667  0.0750  0.2134  0.0596
93273W        W36190  13.205  19.804   2.867 -0.2084  0.0173 -0.2611
93274W        W36191  13.868  19.964   3.883 -0.0466 -0.3254  0.0457
93275W        W36192  10.555  20.740   6.295 -0.2586  0.0195  0.1446
93276W        W36193  10.743  23.966   4.244 -0.0629 -0.0077 -0.0805
93277W        W36194  10.813  20.035   9.046 -0.1470  0.3508  0.0217
93278W        W36195  12.553  20.395   6.424 -0.2256 -0.0898  0.0006
93279W        W36196  13.343  20.591   5.898 -0.3773  0.1552 -0.0026
93280W        W36197  11.823  19.409   3.698  0.1102  0.0289 -0.2611
93281W        W36198  11.289  21.086   4.004  0.1659  0.1445  0.0819
93282W        W36199  13.802  22.478   7.309 -0.0042  0.0279  0.2739
93283W        W36200  11.215  19.977   4.469  0.0684  0.1674  0.0287
93284W        W36201  12.989  17.027   3.816 -0.4220 -0.1462  0.0196
93285W        W36202  11.534  20.730   5.384  0.0682 -0.1024  0.3436
93286W        W36203  12.300  18.698   5.873  0.1123  0.0848  0.0077
93287W        W36204  12.449  19.897   6.970 -0.0235 -0.1285  0.0473
93288W        W36205  12.899  19.814   6.243  0.1557 -0.0117  0.2487
93289W        W36206  12.248  21.865   4.257 -0.2757  0.0028 -0.0752
93290W        W36207  12.250  18.717   7.631  0.1468  0.2649  0.1317
93291W        W36208  12.898  19.030   6.576  0.0527  0.0704  0.1497
93292W        W36209  12.428  20.738   4.216 -0.0481  0.0826 -0.0637
93293W        W36210  10.188  20.844   3.917  0.1469 -0.1121  0.2179
93294W        W36211  10.147  21.205   5.099  0.1257  0.0891 -0.2395
93295W        W36212  10.495  20.228   6.157  0.2194  0.1890  0.4780
93296W        W36213  13.956  18.066   6.090 -0.0121 -0.1058  0.1475
93297W        W36214  12.752  19.466   4.783 -0.2094 -0.0910 -0.0484
93298W        W36215  11.928  22.980   5.734 -0.0584 -0.5206 -0.0294
93299W        W36216  13.588  22.584   2.806  0.0399 -0.0726  0.1822
93300W        W36217  14.280  19.907   7.594  0.2750 -0.0187  0.0502
93301W        W36218   9.663  20.617   5.739  0.3404  0.2737 -0.1424
93302W        W36219  10.004  22.786   5.139 -0.2672 -0.1006  0.3312
93303W        W36220  13.174  20.685   3.211  0.0866 -0.3227  0.0550
93304W        W36221  12.969  20.936   5.739 -0.1714 -0.0952 -0.1241
93305W        W36222  13.527  22.462   6.289  0.1043 -0.0626 -0.1123
93306W        W36223  12.649  22.540   5.920 -0.1632 -0.0542  0.1233
93307W        W36224   9.342  22.036   4.924 -0.2688  0.0674  0.1606
93308W        W36225  12.946  18.891   6.064  0.1753  0.2503  0.2445
93309W        W36226  12.267  22.007   6.899 -0.2881 -0.2829 -0.0040
93310W        W36227  13.078  21.156   6.678 -0.0467 -0.1025  0.1087
93311W        W36228  11.596  18.725   2.022  0.4684 -0.1850 -0.1279
93312W        W36229  11.213  20.710   4.332 -0.5242 -0.1596  0.1135
93313W        W36230  12.325  21.242   5.128  0.2240  0.1502  0.0122
93314W        W36231  11.664  22.430   6.967  0.2266  0.1552 -0.3247
93315W        W36232  10.462  19.106   7.130 -0.1214 -0.1133  0.3230
93316W        W36233  14.912  18.893   7.855  0.0074 -0.4642 -0.2558
93317W        W36234  12.515  22.087   5.198  0.0664  0.2720  0.0308
93318W        W36235  14.588  21.271   2.327  0.0619 -0.2634 -0.1854
93319W        W36236  13.557  20.542   2.377 -0.0223 -0.2190  0.0657
93320W        W36237  11.546  20.341   4.092  0.0388 -0.1089 -0.0439
93321W        W36238  13.981  18.498   6.849 -0.2469 -0.1986 -0.0467
93322W        W36239  11.096  22.941   6.934  0.2932 -0.1275  0.1469
93323W        W36240  13.122  18.572   3.362 -0.3346  0.4873  0.1394
93324W        W36241  12.310  20.485   8.707  0.1056  0.0729 -0.1369
93325W        W36242  13.646  20.095   2.252 -0.1692 -0.0871 -0.0435
93326W        W36243  13.297  19.853   5.960  0.1488 -0.1578 -0.1079
93327W        W36244  12.781  21.771   4.335 -0.2896 -0.2987  0.1601
93328W        W36245  12.337  20.124   5.935 -0.2700 -0.0580  0.1647
93329W        W36246  15.838  20.416   1.818  0.1770 -0.0285 -0.0721
93330W        W36247  14.006  21.679   3.762 -0.2589  0.2145 -0.2167
93331W        W36248  12.557  21.510   2.195 -0.1193 -0.0984 -0.0565
93332W        W36249  11.892  21.457   4.515  0.4943 -0.0003  0.0685
93333W        W36250   8.467  21.775   6.742  0.2004  0.1699 -0.3229
93334W        W36251   9.350  20.112   7.602 -0.0178 -0.2094 -0.0640
93335W        W36252  11.618  17.325   5.093  0.0041 -0.0579  0.0631
93336W        W36253  14.116  20.674   8.420  0.0524 -0.0170  0.4197
93337W        W36254  10.942  20.197   6.308 -0.0876 -0.0016  0.0605
93338W        W36255  14.561  19.143   6.255 -0.2442 -0.0100  0.2247
93339W        W36256  10.948  20.844   5.020  0.0120  0.0535 -0.0296
93340W        W36257  13.262  19.990   7.712 -0.0648  0.0729  0.0251
93341W        W36258  12.179  20.106   2.020  0.0389 -0.2136  0.1315
93342W        W36259  12.891  20.504   4.120 -0.0414  0.0110  0.3226
93343W        W36260  13.641  19.878   4.409 -0.5226 -0.0220 -0.1004
93344W        W36261  11.260  20.630   1.997  0.4873  0.0321  0.1528
93345W        W36262  13.095  21.791   3.847 -0.1736  0.2796  0.0494
93346W        W36263  11.920  19.352   4.961 -0.0629 -0.3712 -0.1371
93347W        W36264  15.858  19.498   4.160 -0.1851 -0.1091  0.1507
93348W        W36265  11.472  22.227   5.195  0.1998  0.1199  0.2607
93349W        W36266  14.482  20.479   8.123 -0.1140  0.0816  0.1236
93350W        W36267  13.419  21.612   6.343  0.1629  0.4125 -0.0474
93351W        W36268  10.787  21.772   3.830  0.0985  0.0272 -0.0738
93352W        W36269  10.937  21.958   5.958 -0.2830 -0.0753 -0.2614
93353W        W36270  11.525  21.414   3.499  0.0844  0.3368  0.1195
93354W        W36271  11.398  20.383   5.876 -0.2851 -0.4167 -0.2238
93355W        W36272  11.987  21.034   5.915 -0.2190 -0.1715  0.0941
93356W        W36273  14.489  19.552   5.394  0.0353 -0.0871  0.1687
93357W        W36274  10.785  21.613   5.591  0.1704 -0.1623 -0.3858
93358W        W36275  14.959  18.901   5.817 -0.0073  0.2044 -0.3402
93359W        W36276   8.887  19.882   3.864 -0.1527 -0.0941 -0.2508
93360W        W36277  15.136  22.951   3.284  0.0135  0.0010 -0.1726
93361W        W36278  12.632  19.770   2.067 -0.0517 -0.1163 -0.1269
93362W        W36279  13.382  22.554   1.113  0.1565  0.3067 -0.2310
93363W        W36280   9.031  19.932   5.268 -0.1158 -0.0108 -0.0697
93364W        W36281  12.377  19.908   6.450 -0.1405 -0.3452  0.0145
93365W        W36282  12.485  18.132   8.312  0.1061  0.2673 -0.2078
93366W        W36283   9.662  22.865   5.488  0.0171  0.0053 -0.0580
93367W        W36284  12.971  18.557   8.355 -0.1091  0.0846 -0.1377
93368W        W36285   9.956  19.388   2.816 -0.1340 -0.0619 -0.1498
93369W        W36286  12.867  22.058   5.617  0.1833  0.0840  0.2646
93370W        W36287  12.504  20.658   5.644  0.1121 -0.1045  0.2036
93371W        W36288  10.415  21.862   3.479  0.1351  0.1713  0.0075
93372W        W36289  15.035  18.030   7.076  0.0073 -0.0074  0.1223
93373W        W36290  11.928  20.815   3.377 -0.0612  0.1711 -0.2392
93374W        W36291  13.650  21.016   5.822 -0.2854 -0.1148 -0.3194
93375W        W36292  12.302  21.892   6.419  0.3069 -0.3018  0.3578
93376W        W36293   9.469  19.227   7.741 -0.0556 -0.2730 -0.0837
93377W        W36294  10.988  17.659   6.273 -0.1348  0.1441 -0.0048
93378W        W36295  12.190  22.530   5.546 -0.0711 -0.1145  0.0474
93379W        W36296  12.447  21.612   4.730  0.1836  0.0973  0.0018
93380W        W36297  10.861  17.499   5.346  0.1906 -0.3700  0.4335
93381W        W36298  13.496  21.035   4.923 -0.0138 -0.0736  0.0644
93382W        W36299  12.276  20.611   1.874 -0.0438 -0.4719  0.0247
93383W        W36300  10.303  21.431   6.811  0.0410 -0.0240 -0.1366
93384W        W36301  13.169  17.598   8.062  0.2756 -0.2285 -0.1887
93385W        W36302  14.392  20.333   6.684  0.0833  0.0229 -0.2190
93386W        W36303  12.313  18.510   7.049  0.0051 -0.1465  0.1000
93387W        W36304  13.058  18.021   5.868 -0.1575  0.1462  0.1930
93388W        W36305  12.227  23.223   4.852  0.1890 -0.1903  0.0764
93389W        W36306   9.830  21.373   2.839 -0.1246  0.1927  0.1147
93390W        W36307  11.214  22.614   5.720  0.0608  0.1066 -0.0591
93391W        W36308  13.720  21.337   2.828 -0.2047 -0.4593  0.1967
93392W        W36309  13.489  20.254   5.535  0.0191 -0.3022 -0.0974
93393W        W36310  11.169  20.198   7.280 -0.1316 -0.3915 -0.0594
93394W        W36311  14.251  18.875   4.969  0.0766  0.0855 -0.2622
93395W        W36312  10.878  21.331   4.126  0.0506  0.1921 -0.1497
93396W        W36313  12.895  21.271   6.178 -0.0996  0.1911  0.0368
93397W        W36314  12.239  19.941   3.829 -0.0894 -0.2760  0.0788
93398W        W36315  13.618  19.646   2.018 -0.0776  0.1412  0.1891
93399W        W36316  12.796  21.388   5.648  0.5060 -0.0341  0.2031
93400W        W36317  13.779  23.186   2.723  0.1184  0.0263 -0.0781
93401W        W36318  12.197  19.703   4.608  0.1236  0.1010 -0.1713
93402W        W36319  13.734  19.185   2.936 -0.2089 -0.3040  0.0415
93403W        W36320  10.349  22.998   6.106  0.2300 -0.4447 -0.0066
93404W        W36321  13.279  20.899   2.231  0.0943 -0.0127 -0.1440
93405W        W36322  11.432  21.706   4.911  0.0570 -0.0872  0.0055
93406W        W36323  14.142  17.755   2.860  0.5646 -0.1993  0.1857
93407W        W36324  14.055  20.954   5.380 -0.2837  0.1598  0.2549
93408W        W36325  10.303  22.302   7.129  0.0646 -0.1824  0.2929
93409W        W36326  13.350  20.290   6.831 -0.0214  0.2369  0.2018
93410W        W36327  12.128  20.631   5.013  0.0414  0.3954 -0.2059
93411W        W36328  13.951  17.885   5.181  0.0843  0.1044 -0.4068
93412W        W36329  13.950  20.171   3.270  0.0596  0.1703 -0.0016
93413W        W36330  12.976  19.227   4.353  0.2121  0.0823  0.0738
93414W        W36331  10.740  23.135   2.417 -0.1422  0.2072 -0.0436
93415W        W36332  14.621  20.327   7.259  0.2090  0.3114 -0.0838
93416W        W36333  13.553  19.140   5.896 -0.1876 -0.3437 -0.0513
93417W        W36334  12.753  20.948   5.275 -0.0610  0.2036 -0.1252
93418W        W36335  15.745  19.142   6.354  0.3041  0.0061 -0.0265
93419W        W36336  13.205  21.128   3.980  0.0793  0.0857 -0.0705
93420W        W36337  12.611  20.534   7.915 -0.3097  0.1644  0.0492
93421W        W36338  11.176  20.393   4.792  0.2093  0.0445  0.1512
93422W        W36339  13.161  18.512   7.434 -0.3002 -0.0227  0.0870
93423W        W36340   9.995  19.812   7.156  0.2448 -0.1216 -0.1335
93424W        W36341   9.375  23.057   6.273  0.1375  0.1313  0.2295
93425W        W36342  13.648  19.934   7.117  0.0731  0.0886 -0.4238
93426W        W36343  11.780  21.219   5.029 -0.0285 -0.1032  0.0090
93427W        W36344  14.411  17.768  10.181 -0.0269  0.0314  0.0500
93428W        W36345  12.356  19.432   3.651  0.3500  0.0872 -0.1134
93429W        W36346  10.602  23.758   5.549 -0.3800 -0.1187 -0.2896
93430W        W36347  12.162  21.161   2.220 -0.0662  0.2240  0.0663
93431W        W36348  12.005  18.525   6.394  0.1002  0.0140 -0.0915
93432W        W36349  13.155  22.214   6.598  0.3397 -0.1594 -0.0565
93433W        W36350  10.870  21.052   2.872 -0.1502 -0.1607 -0.0288
93434W        W36351  12.719  21.150   6.961 -0.0341 -0.0562  0.1453
93435W        W36352  11.996  21.756   6.026 -0.2153  0.0481  0.3497
93436W        W36353  13.290  17.833   7.669  0.1961  0.1113 -0.0816
93437W        W36354  12.180  22.714   4.542  0.0133 -0.0431 -0.2411
93438W        W36355  12.105  19.786   3.373 -0.1132  0.1566 -0.3100
93439W        W36356   9.103  21.685   5.185 -0.4910 -0.1830  0.0439
93440W        W36357  11.775  19.261   5.419  0.1375  0.4450  0.0630
93441W        W36358  13.767  21.261   1.857 -0.0652 -0.3657 -0.1962
93442W        W36359  11.679  18.888   5.746  0.1013  0.1005  0.4256
93443W        W36360  12.751  17.212   8.884  0.3221 -0.0361  0.1644
93444W        W36361   9.909  21.684   4.966 -0.0326  0.1649  0.0032
93445W        W36362  12.530  21.633   6.013  0.0027  0.0107  0.1577
93446W        W36363  13.442  18.623   3.735 -0.0419  0.0083  0.0093
93447W        W36364  11.192  20.198   6.752  0.3830  0.0466  0.1554
93448W        W36365  13.099  17.604   9.297 -0.0370  0.0963 -0.1516
93449W        W36366  11.487  20.895   4.786 -0.0813  0.1392  0.0385
93450W        W36367  15.229  19.596   7.226 -0.0118  0.0659  0.0535
93451W        W36368  12.493  19.511   6.097  0.1115  0.3441 -0.1264
93452W        W36369  11.363  20.608   7.012  0.0999  0.0602 -0.0042
93453W        W36370  11.331  20.909   5.892 -0.0921 -0.1325  0.2307
93454W        W36371  11.109  19.388   4.160  0.2237 -0.3370 -0.0523
93455W        W36372  12.924  22.331   3.841 -0.2759 -0.1915  0.3845
93456W        W36373  12.514  18.603   8.096  0.2896 -0.0711  0.0333
93457W        W36374  14.446  19.793   8.124 -0.3551  0.1388  0.4528
93458W        W36375  11.011  21.077   4.578  0.4037 -0.1381 -0.0564
93459W        W36376  11.623  20.232   5.392 -0.3292 -0.4225 -0.2281
93460W        W36377  13.632  23.454   3.365  0.1947  0.2097  0.1328
93461W        W36378  13.198  19.378   6.214 -0.1497 -0.1863  0.2323
93462W        W36379  12.610  20.165   5.473  0.1387  0.0995  0.0432
93463W        W36380  12.124  20.339   7.284  0.0419 -0.2401  0.0895
93464W        W36381  10.813  20.105   4.759 -0.0877 -0.1363 -0.0217
93465W        W36382  13.378  22.681   4.284  0.0069  0.0628 -0.5100
93466W        W36383  13.733  20.536   6.993 -0.1438  0.0465 -0.1681
93467W        W36384  12.602  20.466   2.807  0.0910 -0.1657  0.1660
93468W        W36385  10.475  21.722   4.267 -0.3262 -0.0734 -0.1004
93469W        W36386  12.129  20.450   4.490 -0.2139  0.1719  0.2744
93470W        W36387  12.648  17.503   7.989  0.1186  0.0738 -0.0614
93471W        W36388  13.256  18.936   6.955 -0.3610 -0.1618 -0.0578
93472W        W36389  11.496  22.800   4.420  0.0111  0.1069 -0.1878
93473W        W36390  10.989  22.386   4.314  0.0282 -0.0982 -0.4136
93474W        W36391  14.175  18.295   2.845  0.3283 -0.1661 -0.1791
93475W        W36392  13.864  22.643   4.053  0.1723 -0.1161  0.2647
93476W        W36393  12.874  18.096   7.209  0.0445  0.1239  0.2625
93477W        W36394  15.646  18.649   8.244  0.0570  0.0023 -0.2562
93478W        W36395  14.487  22.085   2.998 -0.0786 -0.0457  0.2040
93479W        W36396  14.769  17.777   9.758  0.1202  0.5842 -0.1525
93480W        W36397  12.346  17.898   8.759  0.0001 -0.1008 -0.3910
93481W        W36398  15.325  21.177   3.637 -0.0558 -0.1860 -0.0992
93482W        W36399  11.068  18.395   7.024  0.0281  0.1286 -0.0713
93483W        W36400  13.685  22.058   6.615  0.1174  0.2014 -0.2813
93484W        W36401  12.376  18.042   7.252  0.0890  0.0474  0.1953
93485W        W36402  11.389  18.235   2.881  0.2055  0.0520  0.2513
93486W        W36403  13.287  17.020   4.575  0.2052 -0.1201 -0.1458
93487W        W36404  13.914  19.492   6.675  0.4822 -0.1163 -0.0092
93488W        W36405  12.662  19.737   5.705  0.0394  0.2072 -0.1065
93489W        W36406  13.694  21.604   5.917 -0.5479  0.2507  0.2593
93490W        W36407  13.796  18.289   5.563  0.0072 -0.1825  0.0571
93491W        W36408  12.016  18.897   6.779 -0.0478 -0.0900 -0.4532
93492W        W36409  13.252  20.241   6.297 -0.4692  0.0485  0.0745
93493W        W36410  13.130  20.388   2.825  0.2407 -0.3245  0.2902
93494W        W36411  11.948  22.265   4.300 -0.1855  0.0509 -0.0555
93495W        W36412  12.507  18.999   6.270  0.1049 -0.1370 -0.0137
93496W        W36413  14.425  21.402   3.374 -0.2787  0.0376 -0.0521
93497W        W36414  11.832  19.801   5.174 -0.0785  0.0731 -0.1313
93498W        W36415  12.103  19.418   6.556 -0.0688 -0.2654 -0.1823
93499W        W36416  15.543  20.786   7.766  0.3765  0.0409  0.0505
93500W        W36417  14.620  19.814   7.054  0.2131 -0.1487  0.0630
93501W        W36418  13.144  17.696   7.254 -0.3058  0.2147  0.2436
93502W        W36419  12.782  21.617   5.207 -0.1018  0.1773  0.1352
93503W        W36420  12.845  19.944   4.060 -0.0309 -0.1489  0.0862
93504W        W36421  15.105  17.366   7.032 -0.1423 -0.0334 -0.0066
93505W        W36422  15.250  17.803   4.163 -0.2135  0.1748  0.2407
93506W        W36423  13.412  21.172   3.215 -0.4780 -0.3678 -0.1571
93507W        W36424  10.909  20.664   5.906  0.1642  0.2560 -0.2567
93508W        W36425  12.839  18.834   4.662  0.0943 -0.0784  0.0080
93509W        W36426  11.866  21.220   2.604 -0.2280  0.1827 -0.1135
93510W        W36427  13.204  18.073   6.816 -0.1896  0.1071 -0.0627
93511W        W36428  10.709  22.622   5.262  0.0362  0.3936 -0.1509
93512W        W36429  13.594  21.168   4.382  0.1227  0.1514  0.2668
93513W        W36430  14.033  20.667   4.955  0.4166  0.1757  0.0205
93514W        W36431  11.673  19.341   6.889  0.0946  0.0182  0.0957
93515W        W36432  11.261  22.191   7.236  0.2359 -0.0361  0.2614
93516W        W36433  11.511  20.565   3.248 -0.7064  0.1000  0.0332
93517W        W36434  12.298  20.640   3.622 -0.3275 -0.0652  0.0327
93518W        W36435  13.187  19.757   6.849 -0.1553 -0.2699 -0.1494
93519W        W36436  14.526  19.753   5.904 -0.1110  0.0778 -0.0175
93520W        W36437  12.788  17.340   4.245 -0.2462  0.1395  0.0478
93521W        W36438  12.829  17.693   8.463  0.0744  0.1168 -0.1597
93522W        W36439  10.130  19.371   5.121  0.0441  0.0744 -0.0360
93523W        W36440  13.756  18.955   6.696 -0.0985  0.1069  0.1252
93524W        W36441  11.349  23.522   5.392  0.0695 -0.1859  0.3659
93525W        W36442   9.021  22.011   6.953  0.1431  0.3032 -0.1208
93526W        W36443  10.313  22.175   5.103 -0.2305 -0.0445 -0.0304
93527W        W36444  12.980  18.512   6.771 -0.1128  0.2017  0.0608
93528W        W36445  14.127  19.751   7.023  0.1743  0.2763  0.0181
93529W        W36446  12.213  19.499   5.595 -0.1261  0.0230 -0.1686
93530W        W36447  15.396  19.159   5.919  0.0193  0.3039  0.0249
93531W        W36448  10.853  20.335   8.165 -0.0271  0.4235  0.1954
93532W        W36449  12.522  21.007   6.019 -0.1590  0.1881  0.2088
93533W        W36450  12.176  20.567   6.135 -0.0955 -0.0911 -0.1732
93534W        W36451  13.422  20.286   4.652  0.0260  0.0102 -0.1173
93535W        W36452  12.876  20.281   5.957 -0.2035  0.1962 -0.0157
93536W        W36453   8.711  19.476   7.321 -0.0197  0.2488  0.0983
93537W        W36454  13.270  19.534   7.310  0.0976 -0.1124 -0.0454
93538W        W36455  12.993  20.490   5.467 -0.1414 -0.0490  0.2593
93539W        W36456  11.322  19.787   5.529 -0.3209  0.0264 -0.3285
93540W        W36457  10.951  21.855   4.390 -0.0805 -0.3616 -0.1884
93541W        W36458  10.752  19.425   8.385 -0.0008 -0.0054  0.2947
93542W        W36459   9.847  21.285   7.094 -0.3439 -0.1600 -0.0302
93543W        W36460  12.280  21.308   4.057 -0.3968 -0.1605  0.3837
93544W        W36461  13.530  20.178   2.713 -0.0552 -0.1916  0.0107
93545W        W36462  14.192  22.505   4.888 -0.1498 -0.2104 -0.0987
93546W        W36463  13.548  22.730   5.150 -0.1624  0.1255  0.1378
93547W        W36464  12.846  20.044   3.130 -0.0544  0.1026  0.1545
93548W        W36465  12.340  21.836   5.597  0.2126  0.0215 -0.0297
93549W        W36466  11.267  22.819   3.190 -0.1417  0.0334  0.2142
93550W        W36467  13.459  21.682   3.163  0.0822  0.0738  0.1281
93551W        W36468  11.719  21.912   7.380  0.1835 -0.0745  0.0436
93552W        W36469  13.614  19.887   6.590 -0.1569 -0.0125 -0.1368
93553W        W36470  13.681  19.667   2.579  0.0575 -0.3289  0.0507
93554W        W36471  13.663  20.198   6.022 -0.0627 -0.3478  0.0404
93555W        W36472  13.036  20.038   3.584 -0.0150 -0.0940 -0.0169
93556W        W36473  12.698  19.625   8.277  0.0358  0.1293 -0.2215
93557W        W36474  12.968  19.605   7.773  0.1382  0.0976 -0.2648
93558W        W36475  12.659  18.705   3.161 -0.0091  0.2387  0.0177
93559W        W36476  11.099  18.623   6.454  0.1584  0.0162  0.1239
93560W        W36477  15.543  17.789  10.737 -0.1488 -0.1207  0.1467
93561W        W36478  11.555  21.107   6.717  0.1637 -0.0627 -0.0066
93562W        W36479  15.061  21.465   2.179 -0.2120  0.2045 -0.1342
93563W        W36480  10.558  21.572   6.324  0.0064  0.0624 -0.2412
93564W        W36481  13.144  19.431   5.671  0.2002 -0.1522 -0.2460
93565W        W36482  14.107  17.290   7.906 -0.2423  0.1249  0.0042
93566W        W36483  13.263  23.094   2.530 -0.0594  0.1480  0.1131
93567W        W36484  13.354  19.330   6.659 -0.1513  0.0124  0.1841
93568W        W36485  12.197  22.250   5.993  0.0460  0.2341 -0.3752
93569W        W36486  11.267  22.314   6.164  0.0671  0.0735  0.0670
93570W        W36487  12.241  21.385   5.670  0.3588  0.0203 -0.1854
93571W        W36488  11.618  19.768   3.336  0.0334  0.4012  0.1434
93572W        W36489  14.829  19.877   4.948  0.2046 -0.1635 -0.3397
93573W        W36490  12.198  19.270   7.719  0.1440 -0.1162  0.0877
93574W        W36491  12.433  16.428   8.053 -0.1435 -0.0019  0.3825
93575W        W36492  11.903  20.489   5.748  0.2079  0.3181 -0.1838
93576W        W36493  12.672  19.951   4.793  0.0171 -0.0252 -0.0775
93577W        W36494  13.359  19.127   9.458 -0.1510  0.1750 -0.0694
93578W        W36495  10.379  21.791   7.216  0.1704 -0.0915  0.1070
93579W        W36496  11.832  20.042   2.379 -0.1799 -0.1912  0.0257
93580W        W36497  14.865  20.167   6.674 -0.0509  0.4350 -0.1823
93581W        W36498  13.360  22.303   2.397 -0.0314  0.0274 -0.1059
93582W        W36499  13.001  23.021   6.110  0.0487 -0.0146  0.1025
93583W        W36500  10.405  20.367   5.121  0.1240  0.2123  0.0055
93584W        W36501  13.859  20.807   2.084  0.2351 -0.0021  0.0526
93585W        W36502  11.249  21.299   5.194  0.0022  0.1299  0.2218
93586W        W36503  11.467  21.833   6.139  0.1859  0.0444 -0.1248
93587W        W36504  12.565  20.418   6.931 -0.1432  0.0826 -0.0490
93588W        W36505  11.491  19.378   6.446 -0.2276  0.0457 -0.3757
93589W        W36506  12.739  23.027   2.367 -0.4575  0.0619 -0.0672
93590W        W36507  15.006  19.722   8.052  0.0936  0.0964  0.2243
93591W        W36508  12.228  22.930   3.618  0.1277  0.2131 -0.0805
93592W        W36509  13.715  22.986   5.527  0.1203 -0.3785  0.2006
93593W        W36510  13.368  21.720   4.220  0.1682 -0.1537  0.1555
93594W        W36511  12.107  20.201   6.796  0.1875 -0.2910 -0.1694
93595W        W36512  12.851  21.244   4.816 -0.1577  0.1768  0.0367
93596W        W36513  13.685  19.639   6.161  0.1457 -0.2181  0.1429
93597W        W36514  12.614  20.250   2.070  0.1130  0.1207 -0.1707
93598W        W36515  12.148  20.130   4.856 -0.1292  0.0861 -0.7738
93599W        W36516  11.396  22.088   4.504 -0.0658  0.0840  0.0645
93600W        W36517  14.810  19.321   7.226 -0.0451 -0.1637  0.0445
93601W        W36518  14.503  18.470   7.650  0.0877  0.2033  0.1059
93602W        W36519  14.535  23.461   2.990 -0.0413 -0.1870 -0.0356
93603W        W36520  13.558  19.725   5.542  0.2327  0.1268  0.2300
93604W        W36521  14.271  20.541   6.199 -0.1057 -0.2876 -0.2853
93605W        W36522  11.401  21.558   6.584 -0.0844 -0.2499  0.1647
93606W        W36523  11.330  18.542   4.669 -0.0430 -0.5279  0.0374
93607W        W36524  11.401  20.602   7.582  0.6077 -0.1773 -0.1546
93608W        W36525  11.754  22.697   3.312  0.0523  0.0202  0.0584
93609W        W36526  13.899  23.649   2.991  0.2602 -0.0986 -0.2961
93610W        W36527  13.966  22.838   3.065  0.0365 -0.0228 -0.6220
93611W        W36528  13.388  18.220   4.631 -0.3006 -0.0771  0.0724
93612W        W36529  14.347  20.526   5.394  0.3299 -0.3016 -0.2010
93613W        W36530  12.514  18.646   6.648  0.1026 -0.0615 -0.1129
93614W        W36531  13.483  20.769   4.082 -0.0983 -0.0031  0.2695
93615W        W36532  13.985  16.862   3.455 -0.1888  0.3149  0.1985
93616W        W36533  12.759  19.830   7.407 -0.3569 -0.0389 -0.0088
93617W        W36534  11.395  19.975   5.064 -0.1149 -0.0380  0.0838
93618W        W36535  10.121  21.378   4.062  0.1565  0.1188 -0.1440
93619W        W36536  10.690  21.369   5.166  0.3534 -0.1300 -0.0513
93620W        W36537  11.980  16.688   7.538  0.3942 -0.0543  0.0799
93621W        W36538  11.442  19.390   5.045 -0.0837 -0.0435 -0.3677
93622W        W36539  10.811  20.555   7.204  0.0087 -0.0386 -0.5786
93623W        W36540  11.176  21.828   5.355 -0.0046  0.3200  0.3829
93624W        W36541  13.558  21.915   3.755  0.0978 -0.1517 -0.2815
93625W        W36542  10.850  17.283   5.891 -0.2125 -0.0661 -0.3293
93626W        W36543  10.510  20.903   5.268  0.1093  0.1145  0.3681
93627W        W36544  12.735  21.232   4.260  0.0329  0.0886 -0.1382
93628W        W36545  12.061  20.930   5.433 -0.3424 -0.1094 -0.1967
93629W        W36546  11.240  19.402   2.539  0.2127  0.1329 -0.2215
93630W        W36547  15.603  20.729   9.086 -0.0423  0.3885 -0.1705
93631W        W36548  10.403  19.766   2.750  0.1399  0.3124 -0.2133
93632W        W36549  12.167  19.475   8.192  0.2364  0.1228  0.2294
93633W        W36550  14.229  18.872   6.574 -0.1316  0.1269  0.0659
93634W        W36551  12.164  18.973   3.181  0.0230  0.1152 -0.1285
93635W        W36552  12.869  20.108   6.670  0.0273  0.0079  0.0160
93636W        W36553  12.565  21.962   3.920 -0.1517  0.0836  0.0665
93637W        W36554  12.747  22.719   4.558 -0.0753  0.0502  0.4077
93638W        W36555  11.008  21.539   4.796  0.0139 -0.2556 -0.2284
93639W        W36556  11.224  22.672   7.322  0.3662 -0.1715 -0.3582
93640W        W36557  11.789  18.047   6.972  0.2471  0.1297 -0.2117
93641W        W36558  14.299  20.667   4.465  0.0026  0.0131  0.2428
93642W        W36559  11.759  19.832   7.923  0.2566  0.2481  0.1210
93643W        W36560  14.982  20.597   3.235 -0.1234 -0.2579  0.2830
93644W        W36561  12.473  18.616   5.397 -0.1493 -0.1021  0.1772
93645W        W36562  12.994  19.352   1.390 -0.0732 -0.0606  0.2500
93646W        W36563  10.947  17.821   8.818 -0.0559  0.0476  0.1857
93647W        W36564  12.454  19.737   7.830 -0.2526 -0.0922  0.0811
93648W        W36565  13.699  19.877   7.863 -0.0460  0.0491  0.2147
93649W        W36566  11.637  19.426   5.894 -0.3485 -0.3494 -0.2798
93650W        W36567  12.616  20.225   3.774  0.2662 -0.1712  0.2279
93651W        W36568  14.170  21.707   2.047 -0.0595  0.1231 -0.4180
93652W        W36569  12.254  21.190   3.577  0.1910 -0.0715  0.2831
93653W        W36570  12.147  18.972   5.480 -0.3786 -0.0974 -0.1265
93654W        W36571  13.190  18.896   5.576  0.0662  0.1040  0.2340
93655W        W36572  12.693  22.119   6.064  0.1258 -0.0078  0.0319
93656W        W36573  15.122  20.546   8.013 -0.1256 -0.2916  0.2098
93657W        W36574  14.571  21.035   5.501 -0.0846 -0.1005 -0.1959
93658W        W36575  12.860  21.124   2.436 -0.1043  0.2048 -0.0917
93659W        W36576  13.107  22.537   5.433  0.1714  0.0476  0.1783
93660W        W36577  12.780  20.833   7.332  0.0612  0.0595 -0.1982
93661W        W36578  12.048  21.663   5.060 -0.0942  0.0953 -0.0416
93662W        W36579  14.236  20.041   5.566 -0.3716 -0.3938 -0.2764
93663W        W36580  12.124  17.690   6.816 -0.1636 -0.1553 -0.2871
93664W        W36581  12.433  21.814   3.483 -0.1069  0.1271 -0.4065
93665W        W36582  11.390  21.332   4.398  0.0433 -0.0824  0.0064
93666W        W36583  14.409  19.326   6.925 -0.1165 -0.1306  0.0873
93667W        W36584  11.841  19.894   5.671  0.0553 -0.2490  0.1938
93668W        W36585  14.415  18.234   5.614 -0.2035 -0.0104  0.1885
93669W        W36586  14.056  21.057   4.243 -0.0684  0.5008  0.1073
93670W        W36587  14.972  21.615   4.747 -0.1232  0.1286 -0.0766
93671W        W36588  11.407  20.486   9.657 -0.1107  0.0875 -0.0546
93672W        W36589  11.557  18.414   7.259  0.1102  0.0709  0.0874
93673W        W36590  13.672  17.518   8.151  0.2127 -0.0683 -0.0067
93674W        W36591  15.297  19.626   8.430 -0.0652 -0.1472  0.2871
93675W        W36592  11.192  19.086   9.375  0.0436 -0.3376 -0.0019
93676W        W36593  14.172  21.165   8.147 -0.1420  0.1136  0.2446
93677W        W36594  10.589  21.181   7.818 -0.2435 -0.1035 -0.1195
93678W        W36595  15.552  21.346   7.831  0.1255  0.1036 -0.2292
93679W        W36596  11.935  20.776   8.962 -0.1692 -0.1588 -0.1800
93680W        W36597  12.692  20.154  10.291 -0.3435  0.0346  0.0997
93681W        W36598  11.563  18.891   7.210 -0.0329  0.1490  0.0812
93682W        W36599   8.461  17.194   9.554 -0.0246 -0.1154 -0.4528
93683W        W36600  15.691  21.620   9.331  0.0336 -0.1259  0.0239
93684W        W36601  10.956  21.118   7.462  0.0228  0.1698  0.1195
93685W        W36602   9.520  19.462   8.892  0.0470  0.3472  0.1811
93686W        W36603  13.454  19.390   7.779 -0.0920 -0.2494  0.0791
93687W        W36604  12.837  21.650   6.923  0.1513 -0.2386 -0.0576
93688W        W36605  10.415  22.269   8.641 -0.2789  0.0667  0.1841
93689W        W36606  13.046  20.153   7.185  0.0789 -0.1952  0.0035
93690W        W36607  11.581  19.198   8.988 -0.2006  0.0327  0.0162
93691W        W36608  10.069  20.706   9.349  0.0892 -0.0565 -0.2730
93692W        W36609  12.633  20.876   9.475  0.0276 -0.2500  0.4152
93693W        W36610  15.536  16.497   9.609  0.0746  0.2601  0.0357
93694W        W36611  14.617  20.643   7.646 -0.1700  0.1738 -0.1513
93695W        W36612  11.479  21.079   8.772 -0.0749 -0.2978  0.2656
93696W        W36613  11.662  19.655   8.472 -0.2461  0.1119  0.1684
93697W        W36614  12.636  19.992   8.585 -0.4588 -0.0458 -0.0078
93698W        W36615  10.779  22.738  10.040 -0.0235 -0.0420  0.4246
93699W        W36616  12.972  19.244  10.352 -0.0220 -0.0960 -0.1423
93700W        W36617  13.815  18.839  10.714 -0.0564  0.0922  0.0311
93701W        W36618  13.062  22.535  10.130  0.0906 -0.1117  0.1544
93702W        W36619   9.810  20.085   9.426  0.2443 -0.0199 -0.0502
93703W        W36620  13.194  17.814   8.832 -0.0157  0.0154 -0.0395
93704W        W36621  10.543  22.159   3.962  0.3485 -0.0206 -0.0749
93705W        W36622  13.350  20.629   9.574 -0.2420 -0.0169  0.0527
93706W        W36623  10.795  21.381  10.265  0.0887 -0.1923 -0.0095
93707W        W36624  12.024  22.158   7.909  0.0919  0.0047 -0.3472
93708W        W36625  13.935  17.704  10.337 -0.2447  0.1860 -0.3636
93709W        W36626  12.002  19.775   7.452 -0.0874 -0.0550  0.1781
93710W        W36627  16.849  19.515  10.579 -0.0833 -0.0885 -0.2808
93711W        W36628  12.282  17.797  10.938 -0.2002  0.1946 -0.1931
93712W        W36629  12.619  23.017   8.965  0.2385 -0.4281 -0.0251
93713W        W36630  11.601  18.364   7.836  0.0467 -0.1630  0.3604
93714W        W36631  12.432  20.059   9.791 -0.0174 -0.0505 -0.0756
93715W        W36632  13.769  19.081   9.169  0.2529 -0.1144  0.1429
93716W        W36633  11.017  21.415   9.016  0.0629  0.0385 -0.0271
93717W        W36634  11.188  19.985   8.285  0.1943  0.0893 -0.1973
93718W        W36635  12.045  21.156   6.998 -0.0156  0.0961 -0.1490
93719W        W36636  14.697  21.583   8.670  0.2982 -0.0222 -0.2883
93720W        W36637  13.964  20.231   6.462 -0.0746 -0.1903 -0.1172
93721W        W36638  12.985  18.980   8.566  0.3451  0.1837 -0.0472
93722W        W36639  12.850  16.763   7.349  0.1400 -0.0452 -0.1094
93723W        W36640  14.802  19.960  10.507 -0.0948 -0.3133  0.1715
93724W        W36641  12.456  20.626   9.903 -0.0052  0.1209 -0.2087
93725W        W36642  13.847  22.126   9.883 -0.1653  0.0511 -0.2448
93726W        W36643  14.820  20.376   9.297  0.1523  0.0066  0.1850
93727W        W36644  12.620  19.923   9.341 -0.0574 -0.0490 -0.1613
93728W        W36645  13.163  18.150   9.474 -0.1619  0.1874  0.3760
93729W        W36646  12.686  19.290   7.640 -0.1406  0.0437 -0.0792
93730W        W36647  13.134  20.923   4.448  0.1154 -0.0072  0.0567
93731W        W36648  15.204  18.839   8.970 -0.3897  0.1376  0.1554
93732W        W36649  14.055  19.572   9.092  0.1915 -0.0834  0.0071
93733W        W36650  12.066  19.072   9.260 -0.2749  0.0881  0.2070
93734W        W36651  11.735  24.282   7.666 -0.1901 -0.2354 -0.2198
93735W        W36652  10.765  21.961   8.441  0.0018 -0.0631  0.2319
93736W        W36653  11.060  21.047   6.953 -0.3583  0.2813  0.2220
93737W        W36654  10.973  20.222   9.796 -0.1877  0.1742 -0.0472
93738W        W36655  11.911  20.133   9.744 -0.2639 -0.1992 -0.0091
93739W        W36656  14.308  19.969   9.485  0.1347 -0.2192  0.0445
93740W        W36657  14.791  18.112   8.350 -0.0299  0.2233 -0.0149
93741W        W36658  12.812  21.876   8.837 -0.0503 -0.0604  0.3555
93742W        W36659  14.170  21.611   9.817 -0.1568  0.1273  0.3144
93743W        W36660  12.454  19.150  10.305  0.2040 -0.0901  0.2110
93744W        W36661  11.575  18.771  10.322 -0.2353  0.1932  0.0456
93745W        W36662   9.252  19.765   8.534  0.0559  0.0107  0.2543
93746W        W36663  12.897  21.322   7.493  0.4000  0.3333  0.2810
93747W        W36664  10.345  17.918   9.979 -0.1713  0.0173 -0.1018
93748W        W36665  12.097  17.660   7.364  0.1212 -0.2086 -0.2417
93749W        W36666  13.864  20.123   9.261  0.1116  0.0139 -0.1550
93750W        W36667  11.570  18.501  10.878 -0.3019  0.0523 -0.2280
93751W        W36668  11.167  20.640   8.373  0.1950  0.3143 -0.0612
93752W        W36669  14.322  22.527   6.026 -0.1965 -0.2490  0.1027
93753W        W36670  15.174  22.018   8.741  0.2028  0.1885 -0.3062
93754W        W36671  13.817  20.584   7.942 -0.0255  0.1869  0.2901
93755W        W36672  10.227  19.049   9.475 -0.2735 -0.3505 -0.1785
93756W        W36673  11.713  19.361   7.409  0.2236  0.0026  0.1569
93757W        W36674  11.502  21.601   8.824 -0.3952 -0.1464  0.6918
93758W        W36675  11.554  21.519  10.062  0.0127 -0.1401  0.0587
93759W        W36676  12.372  17.902   7.832 -0.1387  0.0988 -0.1075
93760W        W36677  13.665  20.526   8.429  0.4046  0.0177  0.1306
93761W        W36678  13.898  21.195   6.172 -0.2897  0.0524 -0.1905
93762W        W36679  10.034  19.250   9.978  0.0636 -0.2335 -0.1871
93763W        W36680  13.741  21.040   8.374 -0.1177  0.1861  0.0262
93764W        W36681  11.488  18.490   9.281  0.3941  0.2335 -0.0124
93765W        W36682  12.767  18.800  11.436 -0.1677 -0.0364 -0.2726
93766W        W36683  12.188  21.595   9.975  0.1656  0.0603 -0.1276
93767W        W36684  11.193  20.461   9.216 -0.2572  0.1673  0.3393
93768W        W36685  13.083  22.433   6.174  0.0527  0.0661 -0.0890
93769W        W36686  15.641  19.943   9.995 -0.3831  0.0186 -0.0957
93770W        W36687  11.727  21.788   6.925  0.1336 -0.1911  0.4450
93771W        W36688  12.581  18.136   9.685  0.1626 -0.0303 -0.2570
93772W        W36689  12.728  18.199  11.132 -0.0573 -0.0637 -0.1209
93773W        W36690  14.600  21.480   8.116  0.0312  0.0851  0.3713
93774W        W36691  14.485  17.339   8.764 -0.0230  0.1078  0.0740
93775W        W36692  12.096  18.268   9.816  0.0173  0.1426 -0.0762
93776W        W36693  13.694  19.817   8.415 -0.0610  0.0311  0.0847
93777W        W36694  13.334  20.825   8.015  0.1016 -0.0315  0.0826
93778W        W36695  13.312  18.951   8.949  0.0969 -0.2213  0.0989
93779W        W36696  14.884  21.264   6.373 -0.0231 -0.0144  0.2343
93780W        W36697  12.353  19.703   8.974 -0.3514  0.0237 -0.3816
93781W        W36698  12.317  22.777   8.565  0.0307  0.0396 -0.1155
93782W        W36699  13.489  21.601   7.879  0.1796 -0.0513 -0.4110
93783W        W36700  12.352  19.430   7.277 -0.1478 -0.0958 -0.1334
93784W        W36701  12.452  18.969   8.927 -0.0727 -0.2182 -0.0160
93785W        W36702  12.161  21.675   7.579  0.1079  0.1228 -0.0638
93786W        W36703  13.716  18.068   8.816 -0.3027 -0.1048 -0.2434
93787W        W36704  14.116  19.583   7.867 -0.0483 -0.1160 -0.0747
93788W        W36705  15.393  18.192   9.895  0.1269 -0.1171  0.1109
93789W        W36706  13.910  22.071  10.388 -0.2648 -0.2880 -0.2524
93790W        W36707  13.625  18.764   7.286 -0.1440 -0.0140 -0.0907
93791W        W36708  14.016  18.079  10.023  0.2557  0.2063 -0.4027
93792W        W36709  13.794  20.300   9.710  0.2564 -0.2115  0.0435
93793W        W36710  14.095  21.209   6.657 -0.0111 -0.0032  0.0630
93794W        W36711  13.296  17.406   8.517  0.4235  0.0989  0.1663
93795W        W36712  11.737  22.839   8.649 -0.0296  0.0599  0.2356
93796W        W36713  13.180  20.519   7.661 -0.0740  0.0368  0.1183
93797W        W36714  12.863  19.028   9.352 -0.0840  0.1203  0.0299
93798W        W36715  13.173  20.466  10.397 -0.0039  0.3662 -0.1874
93799W        W36716  10.488  21.944   6.660  0.0241  0.1437  0.0606
93800W        W36717  13.195  20.946  10.291 -0.1410 -0.1727  0.0737
93801W        W36718  12.093  21.082  10.069  0.3352 -0.1264 -0.1008
93802W        W36719  13.311  18.912  10.171 -0.0292 -0.0922  0.0469
93803W        W36720  11.136  20.984   9.251  0.1104  0.1536 -0.0114
93804W        W36721  12.198  17.719   8.320 -0.1978 -0.1988  0.0667
93805W        W36722  11.444  18.747   8.807 -0.1615 -0.0820  0.2794
93806W        W36723  11.663  18.939   9.420 -0.1144  0.0652 -0.0239
93807W        W36724  14.748  20.873   7.265  0.2454 -0.0222 -0.0437
93808W        W36725  10.022  18.263   9.757 -0.0586 -0.0661  0.4341
93809W        W36726  13.000  17.554  10.404  0.2654  0.1700 -0.2596
93810W        W36727  10.628  21.489   8.646 -0.1353 -0.1720  0.1065
93811W        W36728  12.606  18.300   7.614 -0.1787  0.1698 -0.0845
93812W        W36729  11.728  18.936   7.678  0.0851  0.0574  0.1199
93813W        W36730  14.385  18.419   9.441  0.4023 -0.1828 -0.0555
93814W        W36731  12.323  17.484   9.009  0.1616  0.3823 -0.3923
93815W        W36732  12.584  21.406   8.584 -0.1100 -0.0580  0.1133
93816W        W36733  12.957  24.021   8.203  0.1058  0.2547  0.0189
93817W        W36734  11.811  19.004   6.352  0.1355  0.2477 -0.2679
93818W        W36735  11.837  21.969   8.537  0.0472 -0.0840 -0.6141
93819W        W36736  14.364  19.182  10.000 -0.0836 -0.4639 -0.2790
93820W        W36737  11.153  18.531   8.107  0.0903  0.0812  0.1058
93821W        W36738  10.558  19.049   8.604  0.0044  0.0711 -0.4789
93822W        W36739  12.244  17.960   9.332 -0.0176  0.3698 -0.0056
93823W        W36740  13.282  19.704   8.122 -0.2301 -0.4435  0.0330
93824W        W36741  10.660  20.045   8.550  0.3261 -0.0347  0.1478
93825W        W36742  14.220  18.524  10.378 -0.1806 -0.1082  0.2140
93826W        W36743  15.718  22.780   8.829 -0.1164 -0.2621 -0.1236
93827W        W36744  11.318  22.666   6.589 -0.0224  0.1359 -0.1935
93828W        W36745  11.729  20.723  10.019 -0.0053 -0.1002  0.0333
93829W        W36746  12.380  21.233   7.447  0.2044  0.1329 -0.3089
93830W        W36747  11.498  18.033  11.046  0.0271 -0.0221  0.2877
93831W        W36748  11.950  20.206   8.882  0.0428 -0.3597  0.3248
93832W        W36749  10.914  20.902   8.801 -0.0806 -0.1526  0.0564
93833W        W36750   9.547  20.210   8.957 -0.0774  0.3426 -0.3282
93834W        W36751  14.546  19.284   8.839  0.1223  0.0184  0.1529
93835W        W36752  13.335  21.066   7.553  0.5246 -0.1688  0.1608
93836W        W36753  12.490  18.743   9.560 -0.0179  0.1520 -0.0029
93837W        W36754  13.970  20.286   8.738 -0.1442 -0.0007  0.1248
93838W        W36755  13.419  17.372   9.005  0.2023  0.0230  0.1756
93839W        W36756  15.004  21.904   9.533 -0.3523 -0.0355 -0.0371
93840W        W36757   8.771  18.773   9.083 -0.3559  0.0348  0.0133
93841W        W36758  13.894  18.750   5.841  0.2443 -0.0584 -0.2994
93842W        W36759  10.955  18.523  10.345  0.0741  0.2131  0.1661
93843W        W36760  14.485  20.231   8.562  0.2129 -0.1791 -0.2123
93844W        W36761  12.049  22.303   7.296  0.3345  0.2516 -0.1438
93845W        W36762  15.029  20.771   9.538 -0.1319  0.0025  0.1212
93846W        W36763  14.844  18.297  10.858  0.2276  0.1330 -0.1088
93847W        W36764  13.961  19.568  10.230  0.0051  0.3881 -0.4787
93848W        W36765  12.765  17.929   9.098  0.0890  0.1594 -0.1241
93849W        W36766  12.479  21.605   9.394  0.2677 -0.0311  0.0478
93850W        W36767  13.628  19.861   8.898 -0.2439  0.0051  0.0113
93851W        W36768  15.606  18.482   8.695  0.0145  0.0553  0.3032
93852W        W36769  12.693  21.260   9.853  0.0995  0.1415 -0.1592
93853W        W36770  13.427  20.287   8.050 -0.0020 -0.1956  0.1370
93854W        W36771  15.761  17.591   9.142 -0.1566  0.1878  0.4149
93855W        W36772  14.146  20.944   9.083 -0.0791 -0.1446  0.3988
93856W        W36773  13.484  19.372  10.301  0.2786  0.1449 -0.2278
93857W        W36774  11.940  18.788   8.866 -0.0312  0.0260  0.0154
93858W        W36775  12.571  17.652   7.082 -0.2702  0.0076 -0.0258
93859W        W36776  10.765  22.135   7.345 -0.1168 -0.0962 -0.2344
93860W        W36777  14.215  18.842   7.942  0.3828 -0.1623 -0.0049
93861W        W36778  12.864  19.956  10.764 -0.2062 -0.1303 -0.0727
93862W        W36779  12.071  18.965   7.278  0.1755 -0.0824 -0.1784
93863W        W36780  11.434  19.797   7.286  0.1977  0.1206  0.0848
93864W        W36781  13.504  18.013  10.370 -0.2584 -0.1157  0.2709
93865W        W36782  13.047  19.826  11.255 -0.2041  0.2282  0.1698
93866W        W36783  14.215  19.406   7.412  0.1304  0.0607  0.0777
93867W        W36784  12.541  21.491   7.854 -0.0038 -0.3540 -0.2580
93868W        W36785  12.920  18.566   8.974 -0.0926 -0.1237 -0.1211
93869W        W36786  11.879  19.685   8.963 -0.2746  0.0721  0.3137
93870W        W36787  12.542  23.116   7.425 -0.0677 -0.2010  0.1664
93871W        W36788  10.569  15.783  11.007  0.2612 -0.3594  0.1152
93872W        W36789  13.208  17.384  10.985  0.0911  0.0182 -0.2577
93873W        W36790  14.853  20.449  10.433 -0.3555 -0.0892 -0.2138
93874W        W36791  12.048  21.229   7.817  0.1086 -0.1720 -0.0398
93875W        W36792  14.037  19.267   8.747 -0.4459  0.0958  0.3003
93876W        W36793  12.246  21.178   9.601 -0.0200  0.0520  0.1428
93877W        W36794  12.747  20.829   8.789  0.1592  0.0269  0.1619
93878W        W36795  11.564  18.454   8.459  0.4466 -0.0302 -0.3612
93879W        W36796  14.070  21.677   6.915 -0.1755  0.0533 -0.0812
93880W        W36797  11.309  21.009   9.791 -0.3051 -0.0918  0.0019
93881W        W36798  11.530  25.100   7.615 -0.1023  0.0029 -0.0235
93882W        W36799  13.046  19.582   8.621 -0.0891  0.1601 -0.0755
93883W        W36800  12.380  21.523   7.033  0.3047 -0.1424 -0.0271
93884W        W36801  13.346  20.333   9.949  0.2616  0.0463 -0.0850
93885W        W36802  11.770  18.276   8.945  0.1997 -0.0605 -0.2121
93886W        W36803  11.422  22.441   7.727 -0.0713 -0.2597 -0.1008
93887W        W36804  11.828  20.695   7.974  0.0677 -0.0437  0.0676
93888W        W36805  14.085  21.342   8.715 -0.1787 -0.2061 -0.1209
93889W        W36806  11.734  22.729   7.361  0.0514 -0.2034 -0.2267
93890W        W36807  15.171  18.667   8.337  0.1201 -0.1153  0.1710
93891W        W36808  13.414  19.991   9.504 -0.1383  0.1097 -0.1794
93892W        W36809  13.874  18.033   8.380 -0.0166  0.0601  0.0232
93893W        W36810  14.560  21.187   9.823  0.2796  0.0802  0.0876
93894W        W36811  13.164  20.220   8.548  0.1460 -0.0432  0.0192
93895W        W36812  14.783  21.769   7.545  0.0593 -0.3082  0.3867
93896W        W36813  11.395  19.649   9.060 -0.0947  0.0027  0.2320
93897W        W36814  12.147  19.760   9.462 -0.2638  0.0178 -0.0232
93898W        W36815  13.978  17.492  10.796 -0.2776  0.0004  0.2511
93899W        W36816  14.391  19.802   6.543 -0.1444  0.1851  0.0372
93900W        W36817  14.580  20.795   6.814 -0.3809  0.2507 -0.0691
93901W        W36818  14.198  20.825   7.834 -0.0801 -0.0888 -0.3802
93902W        W36819  12.855  20.965   7.838  0.1610  0.1823  0.2436
93903W        W36820  12.006  22.367   9.861  0.1737  0.1978  0.1041
93904W        W36821  11.212  19.436   8.195 -0.1121  0.2392  0.1350
93905W        W36822  13.683  18.417  10.131  0.2015 -0.1303  0.1226
93906W        W36823  13.083  21.650   9.797  0.4874  0.0940  0.1633
93907W        W36824  13.754  19.598   7.477 -0.1102  0.0582 -0.1048
93908W        W36825  16.993  18.914  10.408  0.1494 -0.0608  0.0972
93909W        W36826   6.112  17.671   9.224  0.2140  0.1947  0.3996
93910W        W36827  13.061  21.249   8.875  0.5787  0.2629 -0.0117
93911W        W36828  12.661  20.355   9.043  0.0973 -0.2201  0.0018
93912W        W36829  13.122  19.222   8.128  0.1681  0.0776  0.0218
93913W        W36830   9.929  19.076   7.849  0.1210 -0.4361 -0.0529
93914W        W36831  14.478  18.989   7.538  0.0020  0.1111  0.1951
93915W        W36832  12.463  19.331   8.564  0.2276 -0.2864  0.0961
93916W        W36833  10.920  19.558   9.269 -0.0896  0.1704  0.1722
93917W        W36834  11.406  17.474  10.972  0.0909 -0.0955 -0.2541
93918W        W36835  16.197  20.552   6.905  0.0901 -0.1855  0.1704
93919W        W36836  12.871  18.982  10.940  0.0283  0.0846  0.4293
93920W        W36837  10.993  20.816   7.884 -0.0492 -0.2049  0.1318
93921W        W36838  14.022  20.155   8.154  0.2810 -0.1011  0.1915
93922W        W36839  13.489  19.819   9.986 -0.0310 -0.1775 -0.2434
93923W        W36840  12.495  18.322  10.489 -0.4556 -0.2092  0.2815
93924W        W36841  14.210  20.746   9.879 -0.1391 -0.2134 -0.0057
93925W        W36842  12.258  20.670   8.249  0.1052  0.0713  0.1516
93926W        W36843  13.749  19.083   8.170  0.3112  0.0623  0.0687
93927W        W36844  11.804  21.366   7.390 -0.2210 -0.2313  0.0285
93928W        W36845  11.128  22.577   9.512 -0.0060 -0.3203  0.2023
93929W        W36846  14.333  18.777   8.999  0.1204  0.3403  0.0244
93930W        W36847  13.342  21.767   6.826 -0.0189  0.0071  0.0346
93931W        W36848  15.842  18.478   9.448 -0.0057  0.0315  0.0925
93932W        W36849  10.604  20.544   9.055  0.0826 -0.0199  0.1132
93933W        W36850  13.035  19.928   8.982 -0.1099 -0.2540  0.1697
93934W        W36851  13.762  21.126   7.042  0.1106 -0.2991  0.0305
93935W        W36852  13.011  21.423   7.954 -0.2159  0.0988  0.1339
93936W        W36853  13.152  18.402   9.997  0.1902 -0.1494 -0.0586
93937W        W36854  13.103  20.768   9.178 -0.1489 -0.0502  0.0734
93938W        W36855  11.671  19.549  10.020 -0.0180 -0.0231  0.2676
93939W        W36856  16.030  20.749  10.643 -0.1445  0.0864  0.0338
93940W        W36857  12.793  19.485  10.932  0.1101 -0.1030  0.3077
93941W        W36858  10.991  19.746   8.665  0.1216 -0.1621 -0.2224
93942W        W36859  10.176  19.227   8.951 -0.1906  0.2951 -0.2131
93943W        W36860  10.847  20.667   9.557 -0.0130  0.0604 -0.2370
93944W        W36861  12.768  19.350   8.939 -0.2739 -0.0979 -0.1628
93945W        W36862  11.303  19.453   7.691  0.3601 -0.4055  0.2132
93946W        W36863  12.158  19.844   8.534  0.1314  0.0102 -0.2300
93947W        W36864  14.555  21.770   7.062 -0.2348 -0.1102  0.1195
93948W        W36865  10.161  21.647  10.121 -0.0263 -0.1459  0.2251
93949W        W36866  10.133  18.786   8.654  0.1031  0.1677 -0.3153
93950W        W36867  13.281  20.841   7.115 -0.1076  0.4648 -0.0689
93951W        W36868  13.521  22.716   9.240  0.1943 -0.2234  0.0329
93952W        W36869  12.662  19.569   9.964  0.1925 -0.3142 -0.1303
93953W        W36870  12.314  20.820   7.200  0.0335 -0.0801 -0.0054
93954W        W36871  10.712  17.427   9.195 -0.1505 -0.0479 -0.0615
93955W        W36872  10.936  17.983  10.240 -0.2236  0.2077  0.1340
93956W        W36873  12.535  21.233   9.068  0.2477 -0.1263 -0.2121
93957W        W36874  13.372  20.955   6.207 -0.1829  0.1446 -0.0316
93958W        W36875  12.100  19.460  10.570 -0.1196  0.0012 -0.1340
93959W        W36876  13.500  19.243   8.607  0.1080  0.0370 -0.2632
93960W        W36877  15.007  20.501   6.987  0.0261  0.1112 -0.1477
93961W        W36878  12.197  17.736   9.774 -0.0861 -0.2701 -0.0261
93962W        W36879  15.489  21.286  10.615  0.2608  0.1021 -0.1541
93963W        W36880  14.973  19.593   9.019 -0.1595  0.1097 -0.3951
93964W        W36881  12.440  21.330  10.379 -0.1654  0.2078 -0.3016
93965W        W36882  12.916  19.068   9.868  0.0625 -0.1710  0.2000
93966W        W36883  14.015  22.845   7.042  0.1091  0.2199 -0.0660
93967W        W36884  13.309  19.439   9.059  0.2034  0.2155 -0.1291
93968W        W36885  14.261  19.372   8.309 -0.1347 -0.0398 -0.0513
93969W        W36886  14.233  20.764   7.294  0.0502  0.2969 -0.1973
93970W        W36887  13.881  19.092   7.646  0.1492  0.0263  0.1369
93971W        W36888  14.429  21.543   6.445  0.1455  0.3179 -0.0615
93972W        W36889  12.863  18.181   8.650 -0.3311  0.1480 -0.2165
93973W        W36890  12.475  22.079   9.195 -0.1704 -0.3110  0.1328
93974W        W36891  13.686  20.284   7.518  0.1740  0.0567  0.3898
93975W        W36892   7.182  15.621   7.914 -0.0277 -0.1389 -0.3543
93976W        W36893  12.317  20.806   7.662  0.3707 -0.0216 -0.3092
93977W        W36894  10.527  20.595   8.509  0.0192 -0.0226  0.0318
93978W        W36895  17.221  18.515   9.461 -0.0856 -0.0980 -0.1291
93979W        W36896  11.850  16.340  10.152  0.2599  0.0050 -0.1737
93980W        W36897  13.272  17.974   8.366  0.1908  0.1861  0.1569
93981W        W36898  11.489  19.130   9.850  0.2292 -0.1353  0.1204
93982W        W36899  13.952  18.969  10.218 -0.0134 -0.0203  0.0975
93983W        W36900  14.061  24.643   1.250 -0.1585 -0.2216  0.2783
93984W        W36901  12.952  24.073   1.327 -0.0284 -0.0016  0.1413
93985W        W36902  13.219  21.078  29.960  0.2189  0.2782 -0.0964
93986W        W36903  16.485  24.342  30.570 -0.3098 -0.0100 -0.4139
93987W        W36904  12.980  22.781   0.373  0.1046 -0.0944  0.3192
93988W        W36905  13.510  27.004  30.481 -0.2603  0.1112 -0.1812
93989W        W36906  12.394  20.923   3.189 -0.1143 -0.1391 -0.0135
93990W        W36907  13.286  24.948  31.490 -0.2637 -0.0015 -0.1190
93991W        W36908  13.950  26.945   1.026  0.0458  0.0074  0.1645
93992W        W36909  13.237  21.212   1.106 -0.0189  0.0237  0.0243
93993W        W36910  14.438  24.020   3.767 -0.2373 -0.2767 -0.0617
93994W        W36911  10.995  25.842   2.221  0.1156  0.1071 -0.0460
93995W        W36912  12.406  21.653   0.801  0.0216 -0.0724  0.0076
93996W        W36913   9.470  22.736   4.028 -0.0076 -0.0418 -0.0467
93997W        W36914  14.403  23.566   0.987  0.0985  0.1854  0.3432
93998W        W36915  10.866  25.745   0.795  0.1132 -0.1814  0.2165
93999W        W36916  13.722  22.452   3.351  0.1065  0.1355  0.0204
94000W        W36917  12.365  22.949   0.455 -0.2050 -0.0207  0.0045
94001W        W36918  13.678  24.348   0.641 -0.0770 -0.1780 -0.2352
94002W        W36919  12.683  25.074   5.217  0.2485 -0.3324 -0.3204
94003W        W36920  13.111  23.734   3.193 -0.0596 -0.2376  0.1359
94004W        W36921  14.310  22.799  30.750  0.0501  0.1311 -0.0847
94005W        W36922  12.513  24.805   0.525  0.0967  0.0884 -0.2636
94006W        W36923  10.496  23.434   2.724 -0.1487 -0.0075 -0.1625
94007W        W36924  10.851  23.848   2.341 -0.0972  0.0489  0.0715
94008W        W36925  13.604  22.824   2.284 -0.2174  0.1983  0.2100
94009W        W36926  14.212  23.162   1.387  0.0599  0.0095 -0.1893
94010W        W36927  13.287  26.990   1.043 -0.0126  0.0108  0.0733
94011W        W36928  13.075  24.976   2.151  0.1985 -0.1067  0.3132
94012W        W36929  12.679  22.738   3.050 -0.1109  0.1136 -0.0361
94013W        W36930  11.133  23.405   0.389  0.3527 -0.0473  0.0527
94014W        W36931  12.013  24.547   0.656 -0.2596 -0.0849 -0.0644
94015W        W36932  10.593  23.302   0.539 -0.2485 -0.0254 -0.3497
94016W        W36933  14.160  23.064   0.828  0.0319  0.0103  0.0142
94017W        W36934  11.939  25.300   2.835  0.0799  0.0496  0.1214
94018W        W36935  12.541  27.091   2.455  0.0696  0.3586  0.1259
94019W        W36936  11.592  26.320  31.392  0.0556  0.0697  0.1480
94020W        W36937  13.835  25.452   1.613 -0.0287  0.0223  0.1919
94021W        W36938  13.312  24.865   3.527  0.1547 -0.0806 -0.1414
94022W        W36939  12.221  23.971   0.889 -0.0815  0.1058  0.0749
94023W        W36940  14.256  24.700   2.958  0.0223 -0.0778  0.1631
94024W        W36941  10.453  23.434   2.026  0.3837  0.0320 -0.1902
94025W        W36942  12.162  23.591   2.829  0.1218  0.3480 -0.3079
94026W        W36943  13.741  23.621   5.054 -0.1706 -0.1145  0.1038
94027W        W36944  10.845  25.179   3.666  0.0250 -0.0176  0.2523
94028W        W36945  14.493  23.315   1.815 -0.3859 -0.2043  0.1365
94029W        W36946  14.057  24.012  30.825  0.0471  0.0116  0.0208
94030W        W36947  15.369  22.475   0.201 -0.1834 -0.0586 -0.2939
94031W        W36948  12.017  24.569  31.514  0.0604  0.0551  0.2384
94032W        W36949  12.411  21.949   0.391 -0.1030  0.0689 -0.3321
94033W        W36950  10.178  21.236   1.399  0.0515  0.2154  0.0095
94034W        W36951  12.024  25.480   1.137 -0.1756 -0.2779  0.1125
94035W        W36952  15.626  23.073   1.584 -0.3149  0.0252  0.0831
94036W        W36953  14.325  24.688   2.309  0.2660  0.3937  0.0943
94037W        W36954  12.432  24.580  31.078  0.1000  0.1384 -0.0414
94038W        W36955  12.483  25.453   1.188  0.0785 -0.1211 -0.1826
94039W        W36956  11.117  25.503   1.832  0.0514 -0.3291  0.0174
94040W        W36957  12.461  24.324   2.250 -0.0501  0.1067  0.0628
94041W        W36958  11.644  27.150  31.530  0.2410  0.0569 -0.0978
94042W        W36959  14.943  24.787   0.110  0.3166  0.1644  0.1168
94043W        W36960  12.718  25.677  31.930 -0.3830  0.1000 -0.0353
94044W        W36961  12.491  21.520   1.316 -0.2772  0.4350  0.3278
94045W        W36962  10.157  26.444   4.196 -0.2113 -0.2051 -0.2972
94046W        W36963  11.273  21.908   1.701 -0.3504 -0.1175 -0.1285
94047W        W36964  11.971  24.732  31.059 -0.2297 -0.0989  0.0837
94048W        W36965  15.505  24.602   1.768 -0.3550  0.1576  0.1560
94049W        W36966  12.710  25.642   1.524  0.1557  0.0795  0.4998
94050W        W36967  15.356  24.235   2.206 -0.0727 -0.1835 -0.0780
94051W        W36968  12.367  23.991   1.917  0.0866  0.1615 -0.2476
94052W        W36969  13.474  24.466  30.464  0.4278 -0.2318  0.1736
94053W        W36970  12.558  24.413  30.595  0.4797 -0.1694 -0.2091
94054W        W36971  12.483  22.309   2.753  0.1834 -0.3500 -0.1457
94055W        W36972  12.671  21.315   0.565 -0.0185 -0.1345 -0.0718
94056W        W36973  11.347  26.698  31.146 -0.1268 -0.0501 -0.0427
94057W        W36974  11.897  24.048   2.870  0.0621 -0.0231 -0.2045
94058W        W36975  14.099  23.468   0.625  0.0896  0.2028  0.2579
94059W        W36976  12.613  23.135   0.855  0.5227  0.0655  0.0249
94060W        W36977  13.369  25.296   3.745 -0.2163  0.1453  0.1506
94061W        W36978  12.553  23.252   2.845  0.1152  0.1454 -0.1457
94062W        W36979  12.522  24.523   2.771 -0.0572  0.0197  0.0800
94063W        W36980  11.613  25.418  30.566 -0.1181 -0.0144  0.0904
94064W        W36981  11.150  24.403   3.119  0.2771 -0.0817 -0.1126
94065W        W36982  10.812  23.796  31.447 -0.2897 -0.2052  0.0282
94066W        W36983  12.159  24.096   3.331 -0.2305  0.1042  0.1441
94067W        W36984  11.840  24.193   2.092 -0.2160 -0.0345  0.2259
94068W        W36985  12.893  21.689   1.585 -0.2967 -0.1739  0.2139
94069W        W36986  12.642  24.987   3.059 -0.2085  0.0167  0.0608
94070W        W36987  13.245  24.055   1.811 -0.0166 -0.0500  0.0908
94071W        W36988  10.838  24.232   0.510 -0.2011  0.0166 -0.1529
94072W        W36989  13.696  23.359  30.133  0.0006  0.0906 -0.1787
94073W        W36990  11.915  22.857  29.637  0.1119  0.3205  0.2031
94074W        W36991  15.438  25.416  31.744  0.0713 -0.0368  0.1407
94075W        W36992  11.207  21.824   2.183 -0.0198  0.1350  0.0190
94076W        W36993  11.094  22.754   2.233 -0.0566 -0.0903 -0.0005
94077W        W36994  12.338  23.072   2.017  0.2750  0.1530  0.3587
94078W        W36995  12.278  22.764   1.548  0.1948  0.0881  0.0126
94079W        W36996  14.838  24.343   0.504 -0.1077 -0.1528 -0.3861
94080W        W36997  12.107  22.585   0.172 -0.2798  0.4316 -0.0872
94081W        W36998  13.026  25.038   2.643  0.1207 -0.1602  0.0792
94082W        W36999  11.143  25.551   1.259  0.0091  0.0820 -0.0282
94083W        W37000  10.888  24.250  30.705  0.0783 -0.1003 -0.1507
94084W        W37001  15.018  24.959   2.728  0.0859 -0.1533 -0.2086
94085W        W37002  13.638  25.280  31.594 -0.0352 -0.2379  0.0690
94086W        W37003  14.600  26.656   3.282  0.2093 -0.4426  0.0258
94087W        W37004  12.036  25.122   0.417 -0.1722  0.3286 -0.1042
94088W        W37005  11.593  21.865   3.631  0.0550 -0.2951 -0.2460
94089W        W37006  10.343  23.493  31.171  0.1268 -0.3500 -0.2943
94090W        W37007  12.719  26.389   0.759  0.1077 -0.2299  0.2071
94091W        W37008  13.101  24.742   1.182  0.1167  0.2636  0.3046
94092W        W37009  11.465  23.306   0.788 -0.3050  0.0145  0.2119
94093W        W37010  12.492  25.246   0.732 -0.2276 -0.0746 -0.1497
94094W        W37011  11.186  22.974  31.301 -0.2420 -0.0609  0.3150
94095W        W37012  11.833  25.530   3.296  0.0197  0.0695  0.0019
94096W        W37013  13.089  23.084   3.491  0.1846 -0.0015  0.0303
94097W        W37014  14.361  24.336  31.045  0.0442 -0.3358  0.1451
94098W        W37015  10.604  23.598  30.606 -0.0110 -0.1018 -0.1857
94099W        W37016  12.505  20.783   0.678  0.3189 -0.4530  0.0416
94100W        W37017  13.801  24.728   2.773  0.2138 -0.0807  0.0715
94101W        W37018  11.647  26.569  29.917  0.0328  0.0038 -0.3114
94102W        W37019  10.370  23.094   0.966 -0.5504  0.0216 -0.0849
94103W        W37020  13.634  23.802   1.478 -0.1673 -0.0341 -0.1797
94104W        W37021  14.190  24.037   0.861  0.1627  0.1432  0.1731
94105W        W37022  11.535  24.096   3.424 -0.0073  0.1554 -0.0097
94106W        W37023  11.514  23.618   3.655  0.0324  0.0886 -0.0041
94107W        W37024  12.206  24.463   1.120 -0.0874  0.1797  0.0120
94108W        W37025  13.984  25.077   1.871 -0.3796  0.1181  0.0234
94109W        W37026  11.944  25.582   0.655  0.0500 -0.0740 -0.1526
94110W        W37027  15.487  22.179  31.382 -0.0956 -0.1134  0.2349
94111W        W37028  13.110  25.703   3.077  0.1213 -0.3261 -0.0614
94112W        W37029  13.386  24.571  31.086  0.2266  0.1922  0.0749
94113W        W37030  12.470  22.637  30.230 -0.0408 -0.1612  0.1034
94114W        W37031  13.232  21.650  30.864  0.0133  0.0429 -0.3627
94115W        W37032  12.396  25.170   4.646  0.0541 -0.0514  0.0678
94116W        W37033  13.765  22.085   1.155 -0.0176  0.1946 -0.0344
94117W        W37034  13.534  25.198   1.954 -0.3205  0.0341 -0.1780
94118W        W37035  12.147  21.354  30.833 -0.1383 -0.3052 -0.2252
94119W        W37036  15.621  24.938   0.069 -0.0959 -0.4349 -0.0480
94120W        W37037  12.376  26.221   2.230  0.0288  0.0939 -0.0611
94121W        W37038  14.047  25.759   3.142 -0.0957 -0.1874  0.1687
94122W        W37039  14.335  25.548   2.613 -0.0473 -0.0570  0.1711
94123W        W37040  13.847  23.825   2.448  0.1819  0.1509  0.2595
94124W        W37041  12.627  22.473   0.344  0.0484 -0.0356  0.2110
94125W        W37042  13.191  21.357   2.748  0.1038  0.3732 -0.1520
94126W        W37043  13.190  26.031   0.631 -0.1315 -0.1549 -0.1151
94127W        W37044  12.205  25.073   3.235 -0.1183 -0.0404  0.0367
94128W        W37045  11.647  21.230   0.451 -0.2797 -0.0448  0.2045
94129W        W37046  12.735  22.989   1.785  0.0606  0.1775  0.3482
94130W        W37047  15.989  23.040   1.979  0.1166  0.1228 -0.1014
94131W        W37048  11.569  23.080  30.541  0.0689 -0.0558  0.1012
94132W        W37049  12.946  23.862  31.478 -0.0920  0.1184  0.0136
94133W        W37050  10.158  24.739   2.435  0.2176 -0.0195 -0.1300
94134W        W37051  12.637  23.728   3.182  0.0578 -0.0869 -0.2355
94135W        W37052  11.931  25.418   2.204 -0.0209  0.0198 -0.0740
94136W        W37053  13.077  25.264   3.294  0.1362  0.1209 -0.0646
94137W        W37054  13.408  25.098   1.010  0.1380 -0.4872 -0.1753
94138W        W37055  12.915  25.355   1.843 -0.0256  0.1807  0.3251
94139W        W37056  11.731  24.084   4.278 -0.0335 -0.1417  0.0964
94140W        W37057  12.696  22.515   1.731 -0.2048  0.2173 -0.1065
94141W        W37058  13.283  24.435   1.508 -0.1386  0.1249  0.0994
94142W        W37059  10.368  26.293  31.271 -0.1345 -0.1228  0.3863
94143W        W37060  11.183  21.915   1.216  0.1965 -0.0654  0.1276
94144W        W37061  12.269  25.817   3.438  0.0082 -0.1194 -0.0533
94145W        W37062  12.286  25.516   0.269 -0.2557  0.1234  0.0839
94146W        W37063  13.501  25.097   2.474  0.0757  0.2095  0.1545
94147W        W37064  11.267  24.452  30.440 -0.0169  0.4128 -0.1437
94148W        W37065  14.254  23.667   1.535  0.3527 -0.0045 -0.3041
94149W        W37066  11.466  24.230   1.467  0.0864  0.0616  0.1178
94150W        W37067  12.305  22.769  30.694  0.0862 -0.0188 -0.0285
94151W        W37068  10.734  23.744   0.465 -0.1922  0.0300  0.1728
94152W        W37069  13.190  23.387  30.072  0.3086  0.1431 -0.2371
94153W        W37070  12.914  25.360  29.725 -0.2618  0.0016 -0.0492
94154W        W37071  11.770  23.224   3.387  0.1156 -0.2311 -0.1807
94155W        W37072  12.169  22.192   2.295  0.0190 -0.1427 -0.1291
94156W        W37073  11.690  25.998   3.416  0.0470 -0.4296 -0.4173
94157W        W37074  12.453  23.102   4.394 -0.0048  0.0203 -0.1811
94158W        W37075  12.095  20.853  30.856 -0.0940  0.0458 -0.2155
94159W        W37076  14.989  25.231   0.701  0.2046 -0.2065 -0.2134
94160W        W37077  12.177  24.048   4.694  0.1206  0.0058  0.2285
94161W        W37078  11.800  22.646   1.364 -0.0278 -0.0490 -0.0700
94162W        W37079  14.063  25.786   4.113 -0.0640  0.0120 -0.0914
94163W        W37080  11.382  23.825   0.578  0.0005  0.1254  0.0467
94164W        W37081  10.720  24.904   0.364 -0.2779  0.2740 -0.0703
94165W        W37082  13.233  25.495   2.692 -0.1611  0.0956  0.0886
94166W        W37083  10.413  24.979  30.406 -0.0274  0.1867 -0.0561
94167W        W37084  11.018  23.715   0.894 -0.0087  0.1814  0.1298
94168W        W37085  11.569  23.466   2.682 -0.3494 -0.1306  0.1087
94169W        W37086  13.368  24.411   0.203  0.2251 -0.0158 -0.1593
94170W        W37087  12.050  22.448  31.604 -0.1091  0.0999 -0.1501
94171W        W37088  10.832  22.728   1.809 -0.1351 -0.0900  0.1959
94172W        W37089  13.186  21.429  31.362 -0.2338 -0.1448 -0.0700
94173W        W37090  12.474  23.161   1.337  0.0089  0.0231 -0.1319
94174W        W37091  12.524  22.784   4.010  0.0866  0.2299 -0.0086
94175W        W37092  14.326  26.040   2.327  0.3855  0.0217 -0.0047
94176W        W37093  11.712  24.639   1.132  0.1747  0.1758  0.1938
94177W        W37094  14.018  23.543   0.164  0.2141 -0.0231  0.2545
94178W        W37095  16.142  23.858   2.490 -0.4018 -0.0329  0.2474
94179W        W37096  10.479  24.220  31.569 -0.0069  0.0229 -0.1640
94180W        W37097  10.013  23.298   1.890 -0.1905  0.1206  0.2262
94181W        W37098  12.652  26.005   0.393  0.1184  0.2309  0.2820
94182W        W37099  11.859  23.182   1.326 -0.1075  0.2770 -0.1668
94183W        W37100  12.219  25.923   1.269  0.1409 -0.1855  0.0297
94184W        W37101  12.309  25.409  30.645 -0.0088  0.0684  0.0547
94185W        W37102  13.916  26.387   3.919 -0.0646  0.2596  0.1488
94186W        W37103  14.538  23.020  31.715  0.1345 -0.0141  0.1360
94187W        W37104  14.241  22.258   1.259 -0.0872  0.2607 -0.0847
94188W        W37105   9.394  24.337   0.927  0.2862  0.0943 -0.1747
94189W        W37106  14.872  24.214   2.339  0.1452 -0.0165  0.2556
94190W        W37107  14.036  22.157  29.669  0.2109  0.1246  0.0401
94191W        W37108  13.396  23.615   2.330 -0.1046  0.0437  0.0528
94192W        W37109  12.644  24.872   2.349  0.3402  0.1277 -0.1147
94193W        W37110  13.717  23.760  31.077  0.4822 -0.0002 -0.0643
94194W        W37111  12.103  24.391   2.573  0.1470 -0.1731  0.3863
94195W        W37112  13.070  26.218   3.818  0.1410 -0.0432  0.2464
94196W        W37113  11.654  24.129   4.785 -0.1339  0.1201  0.2042
94197W        W37114  12.208  22.353   0.626  0.0555 -0.1644 -0.0119
94198W        W37115  12.541  21.522   0.142 -0.1493 -0.0351  0.0063
94199W        W37116  11.492  24.542   2.088  0.0296  0.2012  0.1258
94200W        W37117  14.096  25.729   0.736  0.5575  0.0735 -0.1563
94201W        W37118  11.996  22.353  31.135  0.1428 -0.0618 -0.2213
94202W        W37119  14.539  24.374   2.672  0.0667 -0.2523 -0.2255
94203W        W37120   9.017  24.320   1.908 -0.1149 -0.0345 -0.0954
94204W        W37121  13.614  24.466   1.125  0.2038  0.1529  0.1457
94205W        W37122  11.987  21.604   0.443 -0.2996 -0.1692  0.0528
94206W        W37123  11.658  24.801   0.291  0.2298 -0.0803  0.2162
94207W        W37124  10.761  21.854   3.100  0.3991  0.4179 -0.1526
94208W        W37125  15.135  24.480   2.671  0.1605  0.1824  0.0183
94209W        W37126  13.036  22.637  31.379  0.3868  0.1100 -0.1117
94210W        W37127  13.945  24.402   3.704 -0.0761  0.0629 -0.4364
94211W        W37128  13.035  24.176   3.536 -0.0596  0.0323  0.1026
94212W        W37129  12.225  23.532   3.581 -0.0582  0.4428 -0.0864
94213W        W37130  10.850  22.232   2.686  0.1156 -0.1367 -0.3854
94214W        W37131  15.800  26.872   3.774 -0.0219  0.0242  0.3400
94215W        W37132  14.372  22.236  29.200 -0.1038  0.1198  0.0231
94216W        W37133  15.115  23.477   2.380 -0.0276  0.2901 -0.3411
94217W        W37134  14.626  24.005   1.234  0.3657  0.3131  0.1790
94218W        W37135  12.761  21.059  31.398  0.1330  0.0252 -0.2416
94219W        W37136  10.306  23.318   3.411 -0.0587  0.2831  0.2562
94220W        W37137  13.823  23.938   4.466  0.0767 -0.1152  0.2981
94221W        W37138  12.090  21.218  28.340  0.1605 -0.0159 -0.1050
94222W        W37139  13.790  24.272   2.139 -0.0768 -0.0283  0.0392
94223W        W37140  14.544  26.843  31.820 -0.1394  0.0894 -0.0342
94224W        W37141  16.208  23.929   2.010 -0.0771 -0.1279  0.2471
94225W        W37142  14.707  24.963   3.073  0.0611  0.2117 -0.3555
94226W        W37143  12.433  26.035   1.730  0.1196 -0.1599  0.2312
94227W        W37144  12.682  27.105   1.832 -0.3711  0.1923 -0.4149
94228W        W37145  10.332  23.699   0.175  0.1992 -0.1166 -0.0359
94229W        W37146  11.619  23.724  29.933  0.0319  0.3563  0.0403
94230W        W37147  14.366  23.986   2.950  0.0657  0.1316  0.1210
94231W        W37148  15.942  24.797   2.340 -0.1064 -0.3430  0.0035
94232W        W37149  11.916  23.011   0.156  0.2113 -0.1798  0.0942
94233W        W37150  14.837  23.800   3.308  0.0832  0.0708  0.0334
94234W        W37151  11.410  24.927   0.791 -0.2725  0.0720 -0.1348
94235W        W37152  12.390  23.398   4.007 -0.0989 -0.0214 -0.0302
94236W        W37153  11.166  27.134   0.874 -0.1377  0.1417 -0.0784
94237W        W37154  13.291  23.448   3.890 -0.1436  0.2112  0.2012
94238W        W37155  11.606  26.327   2.423  0.0458  0.0406  0.1175
94239W        W37156  13.850  23.469   1.713 -0.0975 -0.2144  0.1985
94240W        W37157  12.975  25.472   1.032  0.0006  0.3016  0.0859
94241W        W37158  12.339  24.859   1.483 -0.1310 -0.4469  0.0813
94242W        W37159  17.514  21.508   1.993  0.1858  0.0496 -0.2479
94243W        W37160  12.296  24.599   3.174  0.1061  0.0921 -0.0070
94244W        W37161  12.823  24.279   1.879  0.1523 -0.0646  0.2437
94245W        W37162  12.646  25.930   3.125  0.0251 -0.2546 -0.1210
94246W        W37163  13.356  22.448  31.795  0.0035 -0.2064  0.4089
94247W        W37164  12.844  24.764   1.790 -0.2321  0.1743  0.0721
94248W        W37165  10.904  22.649   4.748 -0.2221 -0.0166  0.0674
94249W        W37166  13.636  24.510   4.743  0.1320 -0.0016  0.0750
94250W        W37167  13.362  21.923  31.296 -0.1767  0.0196  0.0358
94251W        W37168  11.855  20.221   1.227 -0.0438 -0.1236  0.1371
94252W        W37169  13.234  23.699  30.932 -0.1819 -0.2771 -0.0218
94253W        W37170  12.565  27.025   3.110 -0.1934  0.0441 -0.2966
94254W        W37171  11.716  25.017   3.342  0.2283 -0.1672  0.1942
94255W        W37172   9.944  24.962  30.143 -0.0748  0.0200  0.0664
94256W        W37173  14.847  25.737  30.275 -0.1559 -0.0205 -0.0901
94257W        W37174  11.450  25.837  31.668 -0.0558 -0.1279  0.1366
94258W        W37175  13.022  22.740   2.710 -0.0764  0.1662 -0.1045
94259W        W37176  11.866  23.533  31.282  0.0037  0.1676  0.3294
94260W        W37177  11.198  26.055   0.963 -0.4104 -0.0681 -0.1506
94261W        W37178  10.041  25.514   0.726 -0.1445 -0.0150 -0.2061
94262W        W37179  12.697  25.351  31.491  0.1454 -0.0644 -0.0706
94263W        W37180  11.474  25.174   2.889 -0.1632  0.0437  0.0340
94264W        W37181  13.691  23.965   0.947 -0.0756  0.2027  0.0844
94265W        W37182  12.924  20.703  31.702  0.2142 -0.2769  0.2778
94266W        W37183  14.943  22.193   0.342 -0.1381  0.0130  0.2739
94267W        W37184  12.202  22.332   1.771 -0.3519 -0.0176  0.2845
94268W        W37185  14.783  25.490   2.680  0.0460 -0.2193  0.2879
94269W        W37186  11.787  22.149   1.587  0.0105 -0.0976 -0.1147
94270W        W37187  13.406  24.604   1.952 -0.0237  0.0332 -0.0188
94271W        W37188  12.402  24.051   1.442 -0.1128 -0.0097  0.4080
94272W        W37189  14.067  22.725   2.568 -0.1886  0.3130  0.0695
94273W        W37190  10.751  27.107   3.082  0.0099 -0.0649  0.0978
94274W        W37191  14.658  23.504  30.853  0.0509 -0.1581  0.3958
94275W        W37192  11.845  22.713   0.577  0.0606  0.1339 -0.0531
94276W        W37193  11.923  26.756   2.157  0.0242 -0.2731 -0.1729
94277W        W37194  13.988  22.605   2.098 -0.0563 -0.2537 -0.0811
94278W        W37195  12.855  23.760   0.247  0.1343 -0.1386  0.0388
94279W        W37196  13.239  24.259   0.934 -0.4544 -0.1312 -0.2116
94280W        W37197  12.987  25.841  31.058 -0.0614 -0.2873  0.1374
94281W        W37198  12.160  26.472   1.862  0.1317  0.1636  0.1930
94282W        W37199  12.620  24.449   3.986  0.1508 -0.0567  0.0339
94283W        W37200  10.833  23.219  31.521 -0.2386  0.2701 -0.1612
94284W        W37201  13.481  22.654   0.419 -0.1732  0.2207 -0.0052
94285W        W37202  12.592  23.219   3.387 -0.0578 -0.1239 -0.0838
94286W        W37203  13.672  23.826   1.968 -0.0819 -0.1792 -0.0618
94287W        W37204  11.370  25.251  31.144 -0.0428  0.1204 -0.0129
94288W        W37205  13.031  22.938  31.796  0.1103  0.1715 -0.2023
94289W        W37206  13.932  24.228   3.056 -0.1380 -0.1042 -0.1798
94290W        W37207  11.392  23.036   1.812 -0.2753  0.1368  0.3939
94291W        W37208  11.919  21.937  31.746  0.0842  0.0195 -0.1778
94292W        W37209  13.389  24.905   2.992 -0.0321 -0.2219  0.1124
94293W        W37210  14.611  24.819  30.843 -0.2752  0.2054  0.2232
94294W        W37211  14.086  27.359   3.014  0.0366 -0.3450 -0.0717
94295W        W37212  11.993  22.839   2.286 -0.0303 -0.0019  0.0583
94296W        W37213  12.180  23.119  31.682 -0.1482  0.2328  0.0311
94297W        W37214  11.970  24.996   0.911 -0.0008  0.1050  0.0934
94298W        W37215  11.479  26.443   0.767 -0.0586 -0.0289 -0.3080
94299W        W37216  13.707  25.908   4.982 -0.3165 -0.0089  0.0436
94300W        W37217   9.902  22.394   1.571  0.0651 -0.1489 -0.2015
94301W        W37218  12.655  25.055  29.283 -0.1789  0.3964  0.0226
94302W        W37219  12.784  23.942   2.276  0.2394 -0.0746 -0.0339
94303W        W37220  12.981  24.190   0.488  0.0750 -0.0424  0.1143
94304W        W37221  12.759  21.097   1.031 -0.1628  0.3324  0.0490
94305W        W37222  14.041  24.106   1.324 -0.0705  0.1369  0.0671
94306W        W37223  10.337  23.008   3.019  0.0212  0.0558 -0.1476
94307W        W37224  14.610  24.842   0.625 -0.1315  0.0309 -0.1501
94308W        W37225  13.957  25.862   2.595  0.2549 -0.1762 -0.2657
94309W        W37226  10.946  23.723   1.854  0.2361  0.0354  0.1306
94310W        W37227  11.358  22.138   0.294  0.0478 -0.0013  0.2292
94311W        W37228  12.065  23.839   0.347  0.1694  0.1817  0.2120
94312W        W37229  14.228  22.699   0.472 -0.0968  0.0103 -0.2506
94313W        W37230  13.843  24.807   2.299  0.0903  0.1350 -0.1510
94314W        W37231  12.840  25.433  30.717 -0.1022  0.3387 -0.5614
94315W        W37232  15.008  22.834  31.883 -0.1089 -0.1388  0.0681
94316W        W37233  13.534  24.083   2.746  0.0163  0.3370  0.1975
94317W        W37234  13.023  27.079   1.511 -0.2701 -0.1440 -0.3987
94318W        W37235  10.091  24.603  31.129 -0.2175 -0.1981 -0.0942
94319W        W37236  11.860  25.891   2.507 -0.1861 -0.1180  0.3699
94320W        W37237  14.454  24.795   0.191 -0.1830  0.0137 -0.2107
94321W        W37238  12.459  26.720   2.139  0.1010  0.0650  0.2825
94322W        W37239  13.342  24.912   0.039 -0.0418 -0.1548 -0.1481
94323W        W37240  13.889  22.785   1.305 -0.0886  0.1515 -0.3758
94324W        W37241  15.463  23.996   0.226 -0.2018  0.0942 -0.0127
94325W        W37242  11.016  24.410   2.224 -0.0209 -0.4437 -0.1647
94326W        W37243  13.653  24.612  31.647  0.2823  0.0465 -0.3520
94327W        W37244  13.876  22.513   0.123 -0.1972 -0.1176 -0.0445
94328W        W37245  11.278  23.091   2.687 -0.1085 -0.0771 -0.2431
94329W        W37246  11.759  25.386  31.532  0.1910  0.3419  0.0815
94330W        W37247   9.715  24.342  30.891  0.0267  0.1331  0.1636
94331W        W37248  10.674  22.032   1.141  0.1259 -0.0459  0.1600
94332W        W37249  12.697  22.741   3.528  0.1750 -0.0810 -0.1425
94333W        W37250  10.794  20.823   3.566 -0.0153  0.1493  0.0302
94334W        W37251   9.890  23.479   2.601  0.0748  0.0970  0.0702
94335W        W37252  11.411  22.335   1.253  0.1396  0.3576 -0.0701
94336W        W37253  12.941  23.247   1.370  0.0051  0.0019 -0.0261
94337W        W37254  10.927  23.679   3.878 -0.1721 -0.2553  0.5975
94338W        W37255  11.473  22.406   0.738  0.0767 -0.0222 -0.1537
94339W        W37256  13.212  23.993   0.005 -0.4044  0.1471  0.2753
94340W        W37257  14.162  25.201   0.364 -0.2301 -0.1773  0.0087
94341W        W37258  12.609  23.058  31.447  0.1081 -0.0599  0.0613
94342W        W37259  14.575  24.559   4.303  0.1558  0.2069 -0.0380
94343W        W37260  11.996  27.653   0.057 -0.1443  0.1564 -0.0655
94344W        W37261  12.864  24.666   3.453 -0.2576 -0.0078 -0.0013
94345W        W37262  12.028  21.992   3.834  0.2581  0.3306 -0.1904
94346W        W37263  11.989  22.515  29.935 -0.0097 -0.2005  0.2214
94347W        W37264  11.912  24.620   1.815 -0.1535 -0.0644  0.0443
94348W        W37265  11.125  25.396  31.520  0.2112 -0.1161 -0.2515
94349W        W37266  13.781  25.780  31.371  0.2049 -0.0904  0.3781
94350W        W37267  12.462  26.119   2.738 -0.1865  0.1961  0.2863
94351W        W37268  13.058  26.759   1.970 -0.0608  0.0216  0.1476
94352W        W37269  11.128  22.196   3.131 -0.0384  0.2627 -0.1854
94353W        W37270  13.509  22.944   0.017 -0.3407  0.1141 -0.0813
94354W        W37271  13.174  22.929   4.869  0.0408 -0.1412  0.0664
94355W        W37272  14.597  22.414  30.316 -0.1262  0.2474 -0.4097
94356W        W37273  14.783  22.865   1.551 -0.3579 -0.0922  0.0340
94357W        W37274  14.700  23.908   0.788 -0.1650  0.0664  0.1997
94358W        W37275  11.847  22.716   1.802  0.0059 -0.0314  0.1215
94359W        W37276  10.595  24.120   0.940  0.1441  0.0074  0.0166
94360W        W37277  13.761  25.288   0.634 -0.2582 -0.1801  0.1916
94361W        W37278  11.860  23.196   1.888  0.0427 -0.1177  0.2824
94362W        W37279  13.633  23.058   0.895  0.1093  0.0421  0.2745
94363W        W37280  12.857  26.659   0.173 -0.4113 -0.0734 -0.1390
94364W        W37281  10.679  24.146   1.824 -0.0663 -0.0190  0.0708
94365W        W37282  13.970  22.811  31.359  0.1125 -0.1442  0.0083
94366W        W37283  11.185  22.638   5.154 -0.0724  0.1265  0.0561
94367W        W37284  16.468  25.870   3.048  0.1552  0.0263  0.3942
94368W        W37285  13.967  25.317   2.331  0.2207  0.3512 -0.0490
94369W        W37286  12.919  23.459  31.782  0.3151 -0.2034  0.4004
94370W        W37287  15.868  25.685  31.649  0.1300 -0.0896 -0.3168
94371W        W37288  10.987  26.936   0.369  0.1523 -0.1385 -0.1855
94372W        W37289  13.305  27.193   6.793 -0.1629  0.0654 -0.0291
94373W        W37290  12.391  25.161   2.636  0.3805 -0.2536 -0.1773
94374W        W37291  12.459  25.132   1.874  0.1481  0.3476 -0.0984
94375W        W37292  13.221  23.583   1.670  0.1978  0.3132 -0.2349
94376W        W37293  11.099  23.697  31.897 -0.0769  0.0822 -0.0203
94377W        W37294  11.627  23.923   2.462 -0.0063  0.0118  0.1942
94378W        W37295  13.773  22.964   1.770 -0.1585 -0.0501 -0.1244
94379W        W37296  13.134  22.784   1.530  0.1176  0.0362 -0.1766
94380W        W37297  13.075  21.425  30.292 -0.1952 -0.0007  0.2778
94381W        W37298  14.880  27.085   3.405  0.0843  0.0901  0.2142
94382W        W37299  14.210  23.058   2.202  0.0849 -0.2288  0.1570
94383W        W37300  10.867  26.155   6.116 -0.0775  0.0675 -0.0247
94384W        W37301  10.557  24.227   4.635  0.1411  0.0573 -0.2906
94385W        W37302  14.192  23.646   2.057  0.1799  0.0987  0.0143
94386W        W37303  12.132  23.752   4.283  0.0614  0.2371  0.0825
94387W        W37304   9.904  23.322   6.668 -0.1237  0.1546  0.4388
94388W        W37305  12.963  28.471   3.204  0.1764  0.0767 -0.1528
94389W        W37306  11.956  23.188   7.741  0.1228 -0.0312 -0.2469
94390W        W37307  12.531  23.729   5.965 -0.1928 -0.0059 -0.0055
94391W        W37308  14.195  24.750   5.368 -0.0227  0.0446  0.0798
94392W        W37309  12.152  23.882   2.434 -0.0597  0.1919 -0.4039
94393W        W37310  14.054  22.972   7.998  0.2225  0.1662 -0.0495
94394W        W37311  10.124  25.972   4.307 -0.1342  0.4322  0.0974
94395W        W37312  11.873  22.042   5.639 -0.0288  0.0767 -0.0910
94396W        W37313   9.463  22.175   6.684  0.1254  0.0203 -0.0375
94397W        W37314  13.530  22.558   6.824  0.0064  0.0078  0.0805
94398W        W37315  14.627  24.287   4.755  0.2464  0.1348 -0.0148
94399W        W37316  13.829  24.138   6.815  0.1172  0.2415 -0.1497
94400W        W37317  13.060  23.092   4.324  0.0323  0.1176 -0.2710
94401W        W37318  11.977  25.497   5.786  0.3837 -0.1276  0.0165
94402W        W37319  11.998  23.898   7.840  0.0843  0.0229 -0.0200
94403W        W37320  12.515  23.241   6.109 -0.0486 -0.1724 -0.0290
94404W        W37321  11.486  25.465   5.578  0.0462 -0.4495 -0.1753
94405W        W37322  12.065  25.365   3.750 -0.1243  0.0665 -0.4054
94406W        W37323  11.331  24.070   6.774 -0.0667 -0.1438  0.0331
94407W        W37324  13.187  23.008   5.407  0.0758 -0.0431  0.3316
94408W        W37325  12.753  22.924   5.206  0.3643 -0.2541  0.0825
94409W        W37326  12.254  23.413   5.613 -0.0123 -0.0973 -0.1031
94410W        W37327  12.513  27.705   5.343 -0.0279  0.1538 -0.1676
94411W        W37328  13.365  27.295   7.332  0.0314  0.0266 -0.1242
94412W        W37329  13.188  23.399   6.756 -0.1294  0.2491 -0.0200
94413W        W37330   8.770  25.908   5.738  0.1670  0.1028  0.2161
94414W        W37331  10.001  24.879   4.268  0.3183  0.0565 -0.0171
94415W        W37332  11.676  25.053   5.147  0.1131  0.2667  0.2031
94416W        W37333  14.806  24.461   5.253 -0.1283 -0.0699  0.1571
94417W        W37334  11.033  22.840   6.134  0.0083 -0.0429  0.0542
94418W        W37335  11.242  27.369   7.427 -0.0139  0.0402  0.0524
94419W        W37336  12.582  26.184   3.646 -0.2831 -0.0405  0.3962
94420W        W37337  10.973  24.492   4.733 -0.1201  0.1073  0.2068
94421W        W37338  11.418  25.019   7.106  0.0906  0.2868  0.0389
94422W        W37339  11.475  25.345   6.274  0.1090 -0.3816 -0.0825
94423W        W37340  12.556  24.225   5.103 -0.0124 -0.1411  0.4509
94424W        W37341  11.602  24.910   2.512  0.3439  0.2235  0.1149
94425W        W37342  14.280  23.523   5.170  0.1381 -0.0862  0.1436
94426W        W37343  11.935  24.678   7.449 -0.1793 -0.2278 -0.0223
94427W        W37344   9.948  25.154   6.835  0.0981 -0.0453  0.2833
94428W        W37345  13.458  23.321   6.382 -0.2437 -0.0568  0.1830
94429W        W37346  12.468  23.894   3.937 -0.2143 -0.1525 -0.0918
94430W        W37347  12.776  23.515   4.279 -0.4248 -0.1171  0.2508
94431W        W37348  10.008  21.525   5.465 -0.2060  0.0296 -0.3377
94432W        W37349  12.785  23.767   1.731 -0.0483 -0.0659 -0.0956
94433W        W37350  12.435  23.621   4.638  0.4064 -0.1672  0.1804
94434W        W37351  11.750  25.821   6.160  0.1296  0.1792 -0.0957
94435W        W37352  11.315  23.222   5.957 -0.1363 -0.4300  0.1462
94436W        W37353  13.013  25.417   5.479 -0.0315  0.1701  0.2131
94437W        W37354  14.312  24.054   2.334 -0.3471  0.0640 -0.0489
94438W        W37355  13.643  21.399   5.464  0.1287  0.2314  0.0695
94439W        W37356  13.095  24.483   7.052  0.2640 -0.2021  0.3570
94440W        W37357  13.237  26.864   5.174  0.0022  0.2504 -0.1696
94441W        W37358  15.007  24.353   3.493  0.1139  0.1201 -0.0634
94442W        W37359  13.477  24.868   4.116  0.0279 -0.0683  0.2443
94443W        W37360  12.298  25.651   2.487  0.2023 -0.0996  0.2128
94444W        W37361   9.563  22.573   6.411 -0.0067 -0.3832  0.3787
94445W        W37362  10.675  24.647   9.177  0.1852  0.1800  0.0191
94446W        W37363  10.144  24.956   5.876 -0.1248  0.4528  0.1402
94447W        W37364  11.667  21.668   5.397  0.1657  0.1115 -0.4093
94448W        W37365  15.432  23.111   7.014  0.0591 -0.2886 -0.0569
94449W        W37366  11.415  25.609   5.090  0.1517 -0.1642 -0.2402
94450W        W37367  12.555  24.276   3.564 -0.1735  0.0766 -0.0963
94451W        W37368  13.263  23.475   4.895  0.0265 -0.0577  0.2859
94452W        W37369  14.096  26.525   5.936  0.2073  0.0234  0.2771
94453W        W37370  14.814  22.897   2.893  0.1035 -0.3322 -0.1393
94454W        W37371  12.191  23.664   5.154  0.4927 -0.1916  0.1832
94455W        W37372  13.952  21.297   4.766 -0.2531  0.0627 -0.1107
94456W        W37373  13.038  23.970   2.760  0.3520  0.1145 -0.0522
94457W        W37374  12.657  25.505   4.914 -0.2382  0.1337  0.0760
94458W        W37375  14.483  22.727   4.446  0.2029 -0.0963 -0.0068
94459W        W37376  14.002  24.351   2.543 -0.1078 -0.0885  0.1700
94460W        W37377  12.208  25.029   6.717  0.1056 -0.0402 -0.0894
94461W        W37378  10.360  23.417   5.838  0.0186  0.1918  0.1143
94462W        W37379  14.817  24.798   6.624  0.5828  0.2766  0.2940
94463W        W37380  11.510  26.734   4.171 -0.1127 -0.1661 -0.0341
94464W        W37381   8.798  25.738   5.240 -0.2930  0.0309  0.0930
94465W        W37382  10.481  24.705   4.556 -0.0646 -0.0522  0.0787
94466W        W37383  11.462  21.082   7.216  0.1723  0.0534  0.0018
94467W        W37384  10.820  24.248   6.105 -0.0913  0.2704 -0.1127
94468W        W37385  14.307  23.088   2.793 -0.3012  0.2454  0.2456
94469W        W37386  11.229  24.214   7.771  0.0045 -0.1169  0.0099
94470W        W37387  14.228  21.167   3.739  0.0060  0.0257  0.1612
94471W        W37388  13.555  25.758   4.392  0.1512 -0.2141  0.0577
94472W        W37389  13.870  25.375   4.697 -0.1655  0.3072  0.0534
94473W        W37390  13.444  22.458   3.816 -0.2365 -0.2146  0.0564
94474W        W37391  13.746  26.663   4.355  0.1274 -0.1734 -0.0133
94475W        W37392  11.036  24.736   5.193 -0.0489  0.0335 -0.1620
94476W        W37393  12.208  25.210   5.090 -0.1337  0.4285 -0.1403
94477W        W37394  10.796  23.363   7.208  0.1793  0.2348  0.0642
94478W        W37395  11.090  23.945   5.491 -0.0198 -0.0972 -0.1269
94479W        W37396  14.130  24.203   7.193  0.1588  0.4113 -0.3963
94480W        W37397  10.107  22.777   4.101  0.0888  0.1136 -0.2617
94481W        W37398  13.144  21.838   2.435 -0.0337  0.2651  0.0333
94482W        W37399  10.820  24.652   6.377 -0.0869  0.1398 -0.1857
94483W        W37400  10.969  25.604   4.861  0.3205 -0.0078  0.0101
94484W        W37401  14.271  21.678   7.536 -0.1077  0.0481 -0.1068
94485W        W37402  13.116  26.170   3.277  0.1351  0.0887  0.2359
94486W        W37403  13.971  25.022   6.088 -0.1118  0.2092 -0.1454
94487W        W37404  13.318  24.156   4.380 -0.1396 -0.1417 -0.2064
94488W        W37405  11.670  21.638   7.825  0.0637 -0.0886 -0.1416
94489W        W37406  12.240  24.248   4.239  0.2793  0.1223 -0.2205
94490W        W37407   9.382  26.330   6.243  0.0496 -0.0361 -0.0926
94491W        W37408  12.179  23.559   7.515 -0.3074  0.0433 -0.1506
94492W        W37409  10.134  22.517   4.734  0.2764  0.1521 -0.0136
94493W        W37410  14.030  25.925   4.573  0.0677  0.0770  0.1026
94494W        W37411  11.633  24.189   7.128  0.0424 -0.0871  0.1727
94495W        W37412  12.672  23.053   6.922  0.2379 -0.2785  0.0665
94496W        W37413  14.295  21.458   4.119 -0.0069 -0.0743  0.0848
94497W        W37414  13.366  24.932   5.535 -0.0866  0.0092  0.1811
94498W        W37415  12.868  24.680   4.989  0.0520  0.0027  0.1051
94499W        W37416  11.767  23.023   2.807  0.0785 -0.3515 -0.0999
94500W        W37417  12.556  25.453   6.580 -0.2039  0.0293  0.2782
94501W        W37418  10.864  25.431   4.406  0.1121 -0.3184 -0.2245
94502W        W37419  10.104  22.348   5.931 -0.2605  0.1505 -0.1782
94503W        W37420  12.782  26.457   6.075  0.2010 -0.3412 -0.0805
94504W        W37421  15.194  21.898   4.411  0.1535 -0.2724  0.3347
94505W        W37422  12.255  23.782   8.799  0.0736  0.1320  0.0849
94506W        W37423  13.015  23.949   7.294  0.0866  0.0019 -0.0118
94507W        W37424  11.635  24.415   3.881  0.4095 -0.0591  0.1025
94508W        W37425  10.178  24.698   6.352 -0.0113 -0.1889  0.0729
94509W        W37426  14.210  20.833   5.841 -0.0605  0.1676 -0.0060
94510W        W37427  15.336  22.344   1.999 -0.1817  0.0608 -0.3137
94511W        W37428  13.142  23.116   7.620  0.0291  0.2054 -0.2754
94512W        W37429  12.534  26.400   5.139  0.0467  0.0014  0.1361
94513W        W37430  14.752  23.184   1.098  0.0121  0.0079  0.0147
94514W        W37431  12.342  23.503   1.685  0.4485  0.1137  0.0173
94515W        W37432   9.716  25.632   5.752 -0.0928 -0.0622  0.1782
94516W        W37433  12.834  24.710   5.515 -0.0865  0.0093  0.3338
94517W        W37434  12.777  25.516   7.129  0.0659 -0.3652 -0.0323
94518W        W37435  12.619  23.371   5.188 -0.2090  0.3148 -0.2072
94519W        W37436  13.474  23.720   6.064  0.1619 -0.1480  0.1007
94520W        W37437  13.713  22.903   6.553 -0.1477  0.2613  0.2612
94521W        W37438  12.241  25.742   4.937 -0.2835 -0.0731 -0.1484
94522W        W37439  12.313  24.572   6.529  0.3253 -0.0149 -0.0063
94523W        W37440  13.450  22.116   7.735  0.2254 -0.2010  0.0301
94524W        W37441  13.489  24.408   3.490  0.1914 -0.1712 -0.0281
94525W        W37442  14.542  24.572   3.775 -0.2837 -0.0007  0.2636
94526W        W37443  12.628  26.586   1.709  0.0598  0.0951 -0.4153
94527W        W37444  13.085  21.715   5.981  0.0174 -0.0866  0.0606
94528W        W37445  13.351  22.189   5.845  0.0905 -0.0412 -0.0039
94529W        W37446  13.207  21.748   5.488  0.1621  0.3863 -0.0947
94530W        W37447  15.087  22.313   6.335 -0.0480 -0.0743 -0.0915
94531W        W37448  15.538  24.475   3.619 -0.1726  0.0242  0.5256
94532W        W37449  13.820  22.884   6.052  0.1740  0.0416 -0.3923
94533W        W37450  11.997  24.792   4.651 -0.0197  0.1144 -0.0716
94534W        W37451  11.724  22.482   4.746 -0.1589 -0.2086 -0.1447
94535W        W37452  11.312  24.828   6.288 -0.1701  0.3288 -0.1465
94536W        W37453  12.074  23.839   7.022  0.0881  0.0693  0.0962
94537W        W37454  14.104  23.747   6.896  0.4121  0.2140 -0.0140
94538W        W37455  10.806  23.308   6.197 -0.0001  0.2052 -0.0657
94539W        W37456  11.461  23.772   8.863 -0.2069 -0.2741 -0.2860
94540W        W37457  11.457  25.538   3.774 -0.1922  0.0645  0.1319
94541W        W37458  13.104  28.031   3.809 -0.1463 -0.0475 -0.0931
94542W        W37459  13.261  23.672   4.438 -0.0233  0.5073  0.2851
94543W        W37460  11.809  22.009   6.511  0.0144 -0.2166  0.0190
94544W        W37461  11.878  23.942   6.183  0.3230  0.1812 -0.1772
94545W        W37462  11.111  24.767   2.611  0.0382  0.0700 -0.3082
94546W        W37463  14.106  25.170   7.359 -0.0245  0.0665 -0.1084
94547W        W37464  12.550  24.278   5.565 -0.0781  0.1093  0.1833
94548W        W37465  13.535  20.512   5.078 -0.0858 -0.2488  0.1134
94549W        W37466  11.654  25.881   4.157  0.2360  0.1013 -0.1973
94550W        W37467  12.780  24.172   3.109 -0.0456 -0.3561  0.0035
94551W        W37468   9.995  23.116   4.519  0.1091  0.0713 -0.0809
94552W        W37469  13.010  21.727   4.799 -0.0991 -0.2485 -0.1180
94553W        W37470  14.209  23.721   4.224  0.1680  0.2686 -0.1550
94554W        W37471  12.899  22.741   7.314  0.2186 -0.1672 -0.4303
94555W        W37472  13.234  22.411   4.853  0.0741 -0.0576  0.2742
94556W        W37473   9.817  23.893   5.062 -0.0710  0.0902  0.1901
94557W        W37474  12.999  23.508   6.121  0.2697  0.0391  0.0827
94558W        W37475  13.731  22.107   4.195 -0.0699 -0.1163  0.0751
94559W        W37476  13.803  23.791   7.343 -0.0718  0.0264  0.0783
94560W        W37477  14.511  25.705   6.802 -0.0578 -0.2578  0.0570
94561W        W37478  10.841  21.585   1.051  0.0575  0.1255 -0.1122
94562W        W37479  13.539  21.576   4.690  0.0552 -0.0107  0.1701
94563W        W37480  12.915  23.468   2.611  0.2185  0.3277 -0.0470
94564W        W37481  11.436  24.643   5.464 -0.1930  0.1200  0.1136
94565W        W37482  10.276  26.388   6.476  0.2583  0.1252 -0.0263
94566W        W37483  11.877  25.413   6.726 -0.0428  0.1326 -0.2056
94567W        W37484  12.569  25.372   3.428 -0.7119 -0.1430 -0.1138
94568W        W37485  10.723  22.979   8.567 -0.0201 -0.0565  0.0867
94569W        W37486  13.359  22.725   5.888 -0.1653 -0.1034 -0.2412
94570W        W37487  11.951  22.837   4.102 -0.0366 -0.0691 -0.4312
94571W        W37488  14.849  24.898   3.533  0.0248  0.1278  0.1078
94572W        W37489  13.044  24.141   5.251  0.0317 -0.1034  0.0800
94573W        W37490  12.604  22.981   5.689  0.5437 -0.2687 -0.0107
94574W        W37491  13.552  23.226   4.527 -0.0923 -0.0023 -0.1141
94575W        W37492  13.480  23.984   8.108  0.0330 -0.0200 -0.1009
94576W        W37493  11.677  22.720   5.339  0.2133 -0.1484  0.0020
94577W        W37494  14.941  23.841   4.845 -0.1010  0.0905 -0.2937
94578W        W37495  13.737  22.549   7.871 -0.2770  0.2364  0.1489
94579W        W37496  11.721  26.965   5.063 -0.1284  0.2176 -0.2445
94580W        W37497  10.959  25.223   6.309 -0.3233 -0.1829 -0.5401
94581W        W37498  14.160  24.088   1.852  0.0589  0.2855  0.0886
94582W        W37499  11.857  23.394   4.037 -0.1172  0.0876 -0.2098
94583W        W37500  10.036  25.225   6.344  0.2583 -0.1530 -0.1702
94584W        W37501  14.001  23.480   4.625 -0.0082  0.0719 -0.1697
94585W        W37502  11.669  26.065   5.135 -0.0889 -0.0995 -0.2341
94586W        W37503  14.404  22.649   2.972  0.1937 -0.0777  0.2533
94587W        W37504  13.833  26.981   3.910 -0.1640 -0.1536  0.2234
94588W        W37505  11.900  22.818   6.760 -0.0990  0.0346  0.1499
94589W        W37506  15.011  22.656   7.235  0.1569 -0.1099  0.1575
94590W        W37507  13.623  25.249   3.270 -0.1038  0.2052  0.1148
94591W        W37508  14.843  22.432   6.803  0.2240 -0.0720 -0.3316
94592W        W37509  12.368  23.476   6.961 -0.0431 -0.1908 -0.0844
94593W        W37510  14.300  23.851   4.801  0.1984 -0.1692  0.2002
94594W        W37511  11.024  24.818   5.835 -0.0988  0.2376 -0.1500
94595W        W37512  13.113  24.807   6.428 -0.0030 -0.1045  0.0361
94596W        W37513   9.486  24.466   7.165  0.1263 -0.0939  0.4477
94597W        W37514  11.342  23.565   4.872  0.3041 -0.1808  0.1503
94598W        W37515  13.166  22.572   3.380 -0.1468 -0.1468 -0.1375
94599W        W37516  12.088  24.184   6.601 -0.2750 -0.0288 -0.1972
94600W        W37517  12.458  22.546   4.965  0.0342  0.0668 -0.1706
94601W        W37518  12.859  26.982   4.655  0.2324 -0.2509  0.1477
94602W        W37519  13.296  24.327   5.636  0.4304  0.0387 -0.0654
94603W        W37520  12.812  23.393   5.707 -0.3242  0.1029 -0.1163
94604W        W37521  12.900  22.180   4.620  0.1025  0.0005  0.1053
94605W        W37522  13.686  24.921   1.426  0.2598 -0.0630 -0.1340
94606W        W37523  11.302  25.980   6.333 -0.1743  0.5297  0.2995
94607W        W37524  12.186  22.772   6.116 -0.2708 -0.1041  0.1758
94608W        W37525  10.639  24.855   5.506 -0.1741 -0.2648 -0.2810
94609W        W37526  11.824  24.542   5.075  0.1172 -0.0717  0.1050
94610W        W37527  14.811  23.376   6.485 -0.0727  0.0154  0.1932
94611W        W37528  14.510  22.148   7.418  0.0484 -0.0584 -0.1086
94612W        W37529  13.962  23.383   7.686 -0.0663 -0.4653  0.2735
94613W        W37530  11.936  22.678   7.835 -0.1242 -0.0117 -0.1328
94614W        W37531  13.310  24.607   5.123  0.3584  0.0926  0.2337
94615W        W37532  15.861  21.502   0.662  0.0577 -0.1277  0.1237
94616W        W37533  14.897  22.813   5.502 -0.0022 -0.0154  0.2662
94617W        W37534  11.855  23.281   5.311 -0.1021  0.0628 -0.0921
94618W        W37535  14.553  22.758   2.487  0.1768 -0.1522 -0.1975
94619W        W37536  12.793  23.559   7.665 -0.0824 -0.1064 -0.0586
94620W        W37537  14.738  24.341   7.292  0.0316  0.1954 -0.0570
94621W        W37538  11.888  22.010   4.732  0.2410  0.3524 -0.2459
94622W        W37539  12.883  23.472   7.126 -0.1017 -0.1171  0.1937
94623W        W37540  14.927  26.193   4.098 -0.0471 -0.0850 -0.1182
94624W        W37541  14.299  25.957   5.880  0.2507  0.2726 -0.0195
94625W        W37542  12.311  24.642   5.315  0.0475  0.0126  0.0483
94626W        W37543  11.373  23.640   6.949 -0.0015  0.0097 -0.2479
94627W        W37544  12.445  25.534   5.452  0.3703 -0.3846  0.0561
94628W        W37545   9.552  23.648   5.542 -0.1764 -0.1114 -0.3941
94629W        W37546  14.069  25.681   5.477  0.2174 -0.2461  0.1120
94630W        W37547  12.207  22.947   5.271  0.0700 -0.1102 -0.1097
94631W        W37548  15.729  25.251   7.139  0.1318  0.1010 -0.1003
94632W        W37549  12.193  21.034   4.513 -0.1330  0.0907  0.5637
94633W        W37550  14.210  21.768   5.961  0.3694 -0.2164 -0.0841
94634W        W37551  11.960  26.711   4.567  0.1318 -0.1723 -0.0461
94635W        W37552  10.957  21.100   5.607 -0.2005  0.0105  0.1863
94636W        W37553  11.462  26.814   4.666  0.0045 -0.0013 -0.1300
94637W        W37554  11.188  25.122   4.957  0.2604  0.1101  0.0336
94638W        W37555  11.583  26.271   6.042 -0.1825  0.1420  0.3150
94639W        W37556  14.533  21.313   5.950 -0.1180 -0.1987 -0.1037
94640W        W37557  14.007  22.344   2.951  0.2424  0.1179  0.1226
94641W        W37558  11.248  24.177   5.105 -0.1858 -0.0609 -0.0632
94642W        W37559  14.478  22.501   6.477 -0.2038  0.1311 -0.0822
94643W        W37560  11.559  23.525   6.249  0.0938 -0.0302 -0.0723
94644W        W37561  11.618  24.165   5.474 -0.1070 -0.0030  0.0695
94645W        W37562  13.210  26.221   5.853 -0.2313  0.3471 -0.2764
94646W        W37563  13.895  24.974   5.018  0.2648 -0.0148 -0.1367
94647W        W37564  11.792  25.399   4.184  0.1127 -0.0810 -0.0846
94648W        W37565   9.890  24.135   7.230  0.0297  0.0430 -0.0098
94649W        W37566  12.756  24.024   6.246 -0.4511  0.1890  0.2690
94650W        W37567  13.100  26.528   4.737  0.0789 -0.0405 -0.2554
94651W        W37568  14.022  22.205   3.792 -0.0027  0.0433 -0.0535
94652W        W37569  14.803  25.696   4.731  0.0103  0.2247 -0.3050
94653W        W37570  13.723  23.807   6.486  0.0767 -0.2549  0.3289
94654W        W37571  12.238  25.613   4.369 -0.1917 -0.1805 -0.1466
94655W        W37572  12.872  27.442   3.318  0.2124 -0.2097  0.0611
94656W        W37573  13.601  25.963   3.069 -0.0712 -0.0617  0.0097
94657W        W37574  13.862  24.919   4.458  0.0095  0.0048 -0.3516
94658W        W37575  13.088  25.647   6.697 -0.1668  0.1936 -0.0744
94659W        W37576  13.215  24.447   3.951 -0.2067  0.0175  0.1368
94660W        W37577  11.477  24.701   4.772  0.1663  0.1585 -0.1667
94661W        W37578  12.295  25.628   2.992 -0.2428  0.1197  0.0432
94662W        W37579  13.985  23.864   3.824  0.0501 -0.0732 -0.0860
94663W        W37580  10.991  26.544   4.696  0.2846  0.0583  0.3029
94664W        W37581  15.100  23.482   5.925  0.1629 -0.0505  0.2873
94665W        W37582  13.918  23.307   3.767 -0.0939  0.0298 -0.0431
94666W        W37583  14.913  22.234   4.140 -0.0869 -0.2935 -0.3380
94667W        W37584  14.584  22.467   0.640  0.0841 -0.1676 -0.1475
94668W        W37585  12.701  26.344   7.108  0.1367  0.1900  0.1273
94669W        W37586  11.328  24.434   4.376  0.0411 -0.0217 -0.1323
94670W        W37587  15.115  23.309   2.904  0.1476  0.0241 -0.3131
94671W        W37588  10.798  24.510   7.618 -0.0291  0.0022  0.0949
94672W        W37589  14.137  23.332   7.195  0.0110 -0.1179  0.1340
94673W        W37590  11.399  24.207   8.668 -0.0558  0.3651  0.1075
94674W        W37591  13.590  25.910   5.448  0.0306 -0.0312  0.1227
94675W        W37592  10.745  22.948   5.749 -0.1938  0.1329 -0.0296
94676W        W37593  11.752  23.806   5.158  0.0228  0.1921  0.1260
94677W        W37594  12.850  21.711   6.397  0.0057  0.1744  0.1914
94678W        W37595  13.714  25.319   4.184  0.2047  0.1244  0.1693
94679W        W37596  15.434  22.378   2.899  0.2246  0.1521  0.4100
94680W        W37597  11.229  26.124   5.352  0.0749 -0.2429 -0.0351
94681W        W37598  11.728  23.806   6.649 -0.0211 -0.1558 -0.3131
94682W        W37599  12.352  25.555   8.387  0.1010  0.1698  0.0449
94683W        W37600  10.170  21.749   2.622  0.0198  0.0065 -0.1309
94684W        W37601  14.972  22.480   3.102 -0.1906 -0.2631  0.0768
94685W        W37602  11.475  24.598   7.372  0.3257  0.0523  0.1445
94686W        W37603  14.200  22.183   5.693 -0.1857  0.0971  0.1388
94687W        W37604  10.806  24.052   5.048 -0.0494  0.0670  0.0210
94688W        W37605  15.537  23.114   3.599 -0.0782  0.0791  0.2209
94689W        W37606  14.114  23.170   5.812  0.0901  0.2167 -0.0055
94690W        W37607  10.760  22.856   6.577  0.1465  0.0003 -0.0156
94691W        W37608  14.237  23.688   3.469 -0.1320  0.3018 -0.0092
94692W        W37609  14.029  22.777   3.547 -0.2895  0.0858 -0.1694
94693W        W37610  13.868  23.425   6.170  0.1051  0.1164 -0.0353
94694W        W37611  12.823  24.596   6.019  0.0359  0.1470  0.1165
94695W        W37612  10.386  24.218   6.400 -0.0247  0.0008  0.1269
94696W        W37613  13.586  21.634   1.227 -0.0316 -0.1553 -0.3387
94697W        W37614   9.225  24.584   5.197 -0.1666  0.2417 -0.2897
94698W        W37615  11.834  23.607   4.682 -0.0866  0.2174 -0.0109
94699W        W37616  11.166  23.722   6.491 -0.1199  0.3193  0.2026
94700W        W37617  11.895  23.151   4.480 -0.2992 -0.0265 -0.1048
94701W        W37618  13.990  27.046   4.628 -0.0797  0.5650 -0.1689
94702W        W37619  13.953  22.064   8.561 -0.2979  0.1731  0.0945
94703W        W37620  12.197  27.352   5.176  0.0898  0.2897  0.2625
94704W        W37621  12.720  23.797   4.974 -0.1045  0.3122 -0.1957
94705W        W37622  13.855  25.534   6.043  0.0731  0.4288  0.0680
94706W        W37623  11.925  24.537   5.751  0.2224  0.0200 -0.1414
94707W        W37624  12.669  27.531   4.575 -0.0570 -0.2782 -0.0170
94708W        W37625  12.043  23.894   5.738 -0.1622  0.1773 -0.0310
94709W        W37626  13.842  22.233   2.468 -0.0129 -0.4553  0.2909
94710W        W37627  11.667  24.974   6.611  0.1769  0.3816 -0.1972
94711W        W37628  11.698  26.369   3.892 -0.1492 -0.0346  0.3141
94712W        W37629  14.685  20.173   6.193 -0.1249  0.0295  0.0176
94713W        W37630  13.658  21.488   7.446 -0.0806  0.2866  0.1777
94714W        W37631  14.479  25.364   3.087 -0.1370 -0.1952 -0.1142
94715W        W37632  14.568  21.259   7.647  0.2142 -0.0647  0.1249
94716W        W37633  12.524  23.854   7.332 -0.1536  0.0085  0.0958
94717W        W37634  13.129  25.181   6.893 -0.3539  0.3589 -0.3004
94718W        W37635  13.066  23.933   3.945 -0.2517  0.0882  0.3012
94719W        W37636  13.378  23.874   6.919 -0.1706 -0.1230  0.0847
94720W        W37637  11.773  24.449   6.330  0.2148  0.2465 -0.0611
94721W        W37638  13.583  26.019   3.955 -0.1989 -0.0207 -0.0733
94722W        W37639  13.063  27.090   3.971  0.0069 -0.0167 -0.0520
94723W        W37640  13.045  23.647   5.317 -0.0451  0.1821  0.2290
94724W        W37641  16.187  23.691   3.495 -0.1062 -0.3653 -0.1240
94725W        W37642  12.343  22.137   4.675 -0.1297  0.1298 -0.2323
94726W        W37643  12.005  22.281   5.176 -0.0808 -0.0669  0.4007
94727W        W37644  14.420  21.161   4.693  0.0768 -0.1134  0.1407
94728W        W37645  11.086  24.943   4.509 -0.1383  0.2795 -0.2051
94729W        W37646  10.115  24.521   4.906 -0.4987 -0.0346 -0.0438
94730W        W37647  11.863  25.352   4.706 -0.0494  0.2793 -0.1560
94731W        W37648  10.113  26.046   5.782 -0.0850  0.0125 -0.1129
94732W        W37649  11.985  21.535   6.589  0.0412 -0.1009  0.0713
94733W        W37650  11.396  24.448   5.925 -0.0127 -0.3753 -0.3797
94734W        W37651  13.189  25.243   4.237 -0.0420  0.1513 -0.1806
94735W        W37652  10.971  22.942   4.321  0.0451  0.0057 -0.2085
94736W        W37653  14.155  24.761   4.021 -0.2418  0.0809 -0.1058
94737W        W37654  10.681  23.808   6.503 -0.2657 -0.0184 -0.0349
94738W        W37655   9.832  23.133   8.318  0.0004 -0.0183  0.0353
94739W        W37656  12.022  25.087   5.541  0.1667  0.0354 -0.0136
94740W        W37657  10.870  26.272   6.635 -0.3184 -0.2296 -0.0672
94741W        W37658  12.249  22.408   6.588 -0.1503  0.1401 -0.0077
94742W        W37659  14.603  23.499   6.028  0.1188 -0.0978  0.1012
94743W        W37660  10.286  24.309   2.903 -0.1870 -0.1950  0.2014
94744W        W37661  13.831  25.127   5.544 -0.1427 -0.1019 -0.0072
94745W        W37662  11.684  22.489   5.852  0.0212 -0.0327  0.1393
94746W        W37663  10.151  21.886   3.897 -0.0489  0.0627  0.1373
94747W        W37664  13.061  23.877   5.782 -0.2077  0.3304  0.1548
94748W        W37665  12.804  25.948   4.741  0.2245  0.2541  0.0741
94749W        W37666  15.361  26.612   3.760 -0.0704  0.1770 -0.2758
94750W        W37667  12.103  24.192   5.299 -0.0626 -0.3672  0.1276
94751W        W37668  12.209  26.307   6.872 -0.3188 -0.0805 -0.0402
94752W        W37669  12.848  22.565   6.886 -0.1458 -0.2539  0.1428
94753W        W37670  13.681  24.372   4.157 -0.0750  0.3132 -0.1893
94754W        W37671  11.574  25.035   5.757  0.3881  0.3101  0.0285
94755W        W37672  14.103  24.487   4.597 -0.0334 -0.2585  0.2547
94756W        W37673  13.887  22.098   6.136  0.1469 -0.2618  0.2899
94757W        W37674  12.826  23.209   3.907  0.1004  0.2364  0.0431
94758W        W37675  12.580  22.279   7.205 -0.1611 -0.0550 -0.2452
94759W        W37676  12.359  24.680   7.238 -0.2274 -0.1966 -0.2359
94760W        W37677  12.813  23.902   6.836 -0.1431  0.1115  0.0496
94761W        W37678  11.580  23.092   4.932 -0.1180  0.0811 -0.4692
94762W        W37679  13.403  22.024   4.626 -0.0610 -0.1014  0.1525
94763W        W37680  12.925  24.182   4.733 -0.3156  0.1364  0.0175
94764W        W37681  12.810  23.229   4.767 -0.0818  0.2027 -0.2955
94765W        W37682  13.320  26.027   2.561  0.3804  0.0254 -0.0678
94766W        W37683  10.281  25.039   3.824 -0.2138 -0.3278  0.0025
94767W        W37684  13.176  23.838   6.468  0.0132 -0.0807 -0.1425
94768W        W37685  15.402  22.777   5.463  0.1688 -0.1235  0.0048
94769W        W37686  13.412  23.546   2.860 -0.3119 -0.0433  0.0441
94770W        W37687  15.426  23.629   1.544  0.0508  0.0914  0.0336
94771W        W37688  12.622  23.808   5.461  0.0736 -0.0071  0.1821
94772W        W37689  14.537  27.426   6.572  0.0393  0.4791 -0.1904
94773W        W37690  12.719  24.870   6.794 -0.0119  0.1716 -0.2655
94774W        W37691  14.403  22.766   5.613  0.0642  0.1414 -0.0225
94775W        W37692  12.550  21.383   6.550  0.2737 -0.1512 -0.0558
94776W        W37693  13.227  24.394   3.014  0.2897  0.1778  0.1640
94777W        W37694  12.074  24.965   6.081  0.0593 -0.2087  0.0842
94778W        W37695  12.978  22.045   5.160 -0.2087 -0.0626  0.3720
94779W        W37696  10.861  23.400   6.723 -0.0266 -0.1360  0.1926
94780W        W37697  13.852  20.892   2.580 -0.0475  0.1531 -0.2284
94781W        W37698   9.365  24.818   7.587  0.0286 -0.1688  0.0854
94782W        W37699  13.515  23.953   5.403  0.1749  0.0328  0.5124
94783W        W37700  10.777  24.524   9.991  0.3349  0.1092  0.0638
94784W        W37701  11.077  22.915   9.070  0.2385 -0.0106  0.2977
94785W        W37702  15.105  21.716   6.322 -0.0243 -0.0136  0.0270
94786W        W37703  15.630  24.773   5.700  0.2370  0.2878  0.0623
94787W        W37704  10.461  20.806   7.529 -0.1932  0.1197  0.0058
94788W        W37705  14.332  25.043   6.883  0.2272 -0.4670  0.0125
94789W        W37706  13.516  26.774   8.717  0.0352  0.0104  0.1491
94790W        W37707  16.439  27.896   9.368  0.3056  0.1177  0.0409
94791W        W37708  14.220  23.897   8.292 -0.4091  0.3001 -0.3802
94792W        W37709  11.845  22.042  11.449  0.2501  0.1119 -0.1420
94793W        W37710  12.810  19.397   7.081 -0.1270  0.0317  0.0707
94794W        W37711  12.855  22.267   9.814 -0.1693  0.1520 -0.1689
94795W        W37712  13.671  23.943   8.546  0.1619  0.2038  0.1240
94796W        W37713  10.944  24.958   8.946  0.1668  0.0671  0.2378
94797W        W37714  13.076  24.333   9.319 -0.0329  0.0509  0.1728
94798W        W37715  13.368  22.598   7.540  0.1528  0.1954 -0.0799
94799W        W37716  14.605  24.534   9.000  0.1482  0.1272 -0.1565
94800W        W37717  11.888  23.229   9.637  0.0759  0.2353 -0.0657
94801W        W37718  13.076  24.132   7.736  0.1990  0.2681 -0.1120
94802W        W37719  12.727  23.386   6.539  0.1886  0.1929 -0.0488
94803W        W37720  12.754  22.679   8.394 -0.2866  0.1581  0.1114
94804W        W37721   9.327  25.646  10.125  0.0134  0.0826  0.0860
94805W        W37722  12.024  23.140   7.235 -0.2774 -0.0843  0.0100
94806W        W37723  12.925  23.184   8.102  0.1383  0.1758  0.2502
94807W        W37724  15.263  24.840   8.337 -0.1148  0.0565  0.2380
94808W        W37725  12.760  25.428   8.843 -0.0634  0.0338 -0.0553
94809W        W37726  11.863  25.025   9.812  0.1268 -0.3799 -0.2728
94810W        W37727  10.872  25.266  10.586 -0.1570 -0.0083  0.2237
94811W        W37728  13.783  24.816   8.367  0.1050 -0.0056 -0.0737
94812W        W37729  12.877  25.309   8.319 -0.3382 -0.0041  0.0435
94813W        W37730  11.121  25.252   7.888  0.4072  0.0887 -0.1205
94814W        W37731  12.998  23.318   8.670  0.0568 -0.2873 -0.1758
94815W        W37732  13.538  24.593   9.652 -0.2778 -0.2457 -0.1101
94816W        W37733  12.811  25.859   8.556  0.0920 -0.2792 -0.0966
94817W        W37734  15.579  23.208   7.860  0.1488  0.0013  0.1777
94818W        W37735  14.204  24.592   9.578  0.1227 -0.0188 -0.1853
94819W        W37736  11.641  25.689  10.587  0.0688  0.0509  0.2544
94820W        W37737  12.668  22.648   6.406  0.2888 -0.1030  0.0100
94821W        W37738  14.689  23.848   8.495  0.1559 -0.0006  0.4008
94822W        W37739  14.533  21.097   8.532  0.2378 -0.2478  0.2641
94823W        W37740  12.393  22.077  10.120 -0.2750 -0.0677  0.1805
94824W        W37741  12.314  26.174   9.259  0.3254 -0.1001  0.0501
94825W        W37742  12.911  20.072   8.048  0.1612 -0.0773  0.1823
94826W        W37743  13.558  21.329   8.732  0.1288 -0.0065  0.3815
94827W        W37744  15.097  21.180  10.978 -0.0945  0.1425  0.0057
94828W        W37745  13.732  25.046   9.313 -0.0067 -0.0363 -0.2234
94829W        W37746  12.753  23.807   9.458  0.0545  0.0269 -0.2032
94830W        W37747  14.339  24.659   7.300 -0.3841  0.0343 -0.2232
94831W        W37748  19.598  26.926   9.292  0.2421 -0.0544 -0.2982
94832W        W37749  13.754  25.119   7.907 -0.2625 -0.1185  0.0475
94833W        W37750   9.224  24.004   7.353  0.2521  0.1517  0.0677
94834W        W37751  10.875  21.485   7.132  0.0457 -0.1856 -0.0975
94835W        W37752  13.060  23.520   9.760 -0.0756  0.0003 -0.2282
94836W        W37753  13.445  21.975   8.652  0.2174 -0.3166  0.0327
94837W        W37754  15.916  26.178   9.534 -0.0550 -0.0847 -0.3249
94838W        W37755  14.623  25.817   6.260  0.0445 -0.0007  0.2040
94839W        W37756  13.710  23.427   9.909  0.0366 -0.3523  0.0476
94840W        W37757  14.254  19.098   9.439  0.0109 -0.0561  0.3653
94841W        W37758  12.920  24.045   8.992 -0.0737 -0.4098 -0.1768
94842W        W37759  13.818  24.442   8.685  0.0607  0.2063  0.2162
94843W        W37760  15.741  25.521   7.553  0.0731  0.2098  0.3090
94844W        W37761  14.737  22.660   7.612 -0.1089  0.0836  0.0276
94845W        W37762  13.323  26.832  10.765  0.0805 -0.1694 -0.1369
94846W        W37763  11.867  25.559   5.225 -0.1984 -0.1655  0.0386
94847W        W37764  13.040  23.006   9.842  0.0864  0.1911 -0.1080
94848W        W37765  12.431  25.151   7.363  0.1589  0.0265 -0.3499
94849W        W37766  13.250  21.969   8.152 -0.1134 -0.0898 -0.1883
94850W        W37767  12.202  24.400   7.798 -0.0621  0.0159 -0.3763
94851W        W37768  15.095  22.604   8.001 -0.1570  0.1777  0.3828
94852W        W37769  14.770  23.114   7.935 -0.0342 -0.1220 -0.0562
94853W        W37770  10.821  24.505   8.552  0.2139 -0.2545 -0.0129
94854W        W37771  14.480  24.355   8.199  0.2101  0.2667  0.4054
94855W        W37772  14.193  22.337   7.997 -0.1023 -0.2204  0.1460
94856W        W37773  12.976  24.515   8.048  0.0254  0.0763  0.0403
94857W        W37774  13.102  24.638   8.844  0.0299  0.0129 -0.5898
94858W        W37775  10.713  25.664   8.892 -0.2319 -0.1868  0.0122
94859W        W37776  12.760  22.275   8.123 -0.5559  0.2030  0.0178
94860W        W37777  12.992  20.623   6.679 -0.1310  0.1886 -0.0176
94861W        W37778  14.965  21.638   9.091  0.4816 -0.0362  0.0857
94862W        W37779  11.280  23.755   8.324 -0.1221 -0.2881 -0.2564
94863W        W37780   8.551  22.555   9.924  0.1659 -0.2984 -0.1890
94864W        W37781  14.437  24.134   7.638  0.2731  0.4606  0.2384
94865W        W37782  14.671  27.264   8.017 -0.4791 -0.0074 -0.0259
94866W        W37783  14.774  24.785   8.341 -0.3225 -0.0550  0.1879
94867W        W37784  14.251  24.215   8.694 -0.0245 -0.1684  0.3253
94868W        W37785  11.117  22.807   8.014  0.0520 -0.0618 -0.3229
94869W        W37786  11.147  24.334   9.618  0.2082 -0.0405 -0.0780
94870W        W37787  14.919  26.672   7.452 -0.0734 -0.0554  0.0435
94871W        W37788  13.188  22.247   7.075  0.0588  0.1643  0.0740
94872W        W37789  15.538  24.469   8.495 -0.1490  0.2104  0.1733
94873W        W37790  13.976  24.177   9.166  0.0198 -0.1908 -0.0582
94874W        W37791  11.809  26.850   9.580 -0.1395  0.1136 -0.1796
94875W        W37792  13.782  23.566   8.184 -0.1597  0.5209 -0.2201
94876W        W37793  11.550  21.044   7.706 -0.0495  0.3129  0.0527
94877W        W37794  12.910  25.663   7.947  0.1431  0.2266  0.0067
94878W        W37795  12.124  24.223   7.338  0.0831 -0.2801  0.2047
94879W        W37796  12.045  22.805   9.520 -0.0342 -0.1803  0.2140
94880W        W37797  15.172  24.612   7.625  0.0129  0.1077  0.3361
94881W        W37798  14.898  21.241   9.356  0.0785  0.3787  0.0470
94882W        W37799  10.954  23.852   7.960  0.2020  0.1250 -0.1018
94883W        W37800  14.396  23.115   7.644  0.0560 -0.0283  0.0766
94884W        W37801  13.999  22.500   6.658  0.0254 -0.3134 -0.0342
94885W        W37802  13.523  23.667   7.715 -0.0160 -0.2590  0.1777
94886W        W37803  13.790  21.769   8.894  0.2573 -0.1730  0.1903
94887W        W37804  14.411  21.290   7.137 -0.2341 -0.2646 -0.1264
94888W        W37805  13.974  23.318   8.566 -0.1827 -0.2648  0.2080
94889W        W37806  12.530  26.251   8.709 -0.0904 -0.1086  0.0778
94890W        W37807  14.100  21.314   5.732 -0.1882  0.0902 -0.0139
94891W        W37808  14.047  24.249   6.255  0.0412  0.0529 -0.0298
94892W        W37809  11.406  24.388  10.687 -0.2291 -0.0376  0.2068
94893W        W37810  12.550  26.320   9.992 -0.0879  0.2283 -0.3203
94894W        W37811  14.443  23.732   9.174  0.1230 -0.2869  0.1960
94895W        W37812  12.414  22.171   7.669  0.0374 -0.2503  0.0674
94896W        W37813  13.069  21.568   8.552 -0.0624 -0.0124  0.0244
94897W        W37814  12.362  25.789   8.872 -0.1766 -0.3747  0.2526
94898W        W37815  14.956  19.510  10.956  0.0985 -0.0868 -0.2140
94899W        W37816  15.370  22.199   8.285 -0.0668 -0.1942 -0.3425
94900W        W37817  15.308  24.121   7.701  0.1105  0.2838  0.0349
94901W        W37818  13.717  20.829   8.844  0.1347 -0.0532 -0.4515
94902W        W37819  11.198  24.652   7.920  0.1071  0.2055  0.0573
94903W        W37820  15.093  20.953  10.513  0.3018  0.0713 -0.0391
94904W        W37821  14.194  21.109  10.221  0.3413 -0.0839  0.2398
94905W        W37822  13.439  23.018   8.843 -0.1314 -0.1014 -0.1579
94906W        W37823  13.132  25.340   6.211 -0.0898 -0.2458  0.0087
94907W        W37824  12.525  24.463   8.206 -0.1764 -0.2960 -0.0396
94908W        W37825  13.817  24.719   7.354 -0.3486 -0.1812  0.0036
94909W        W37826  11.596  24.479   9.773 -0.5437 -0.2268 -0.1396
94910W        W37827  11.730  24.753   9.413  0.1477  0.1708  0.1823
94911W        W37828  12.685  24.523   9.040  0.0842  0.1744  0.0728
94912W        W37829  13.598  25.441   8.973  0.1120  0.2757  0.1521
94913W        W37830  12.606  25.219   7.876  0.3727  0.0567  0.1463
94914W        W37831  14.329  19.686  10.678 -0.1170 -0.1344  0.1747
94915W        W37832   9.953  23.516  10.056  0.0746  0.1594  0.2721
94916W        W37833  12.258  24.068   8.277  0.3310  0.2580 -0.0959
94917W        W37834  12.027  23.306   8.637 -0.0812 -0.1692  0.2536
94918W        W37835  10.852  24.755  11.504  0.0985 -0.0769 -0.1676
94919W        W37836  16.148  24.833   7.286  0.0420 -0.0417 -0.1528
94920W        W37837  11.917  22.320   9.360  0.2223  0.0983 -0.0465
94921W        W37838  13.745  21.112   7.871 -0.0735 -0.3030  0.0010
94922W        W37839  12.363  25.361  10.078 -0.0094  0.1335  0.0339
94923W        W37840  15.893  20.671   7.351 -0.1610 -0.4430 -0.2669
94924W        W37841  11.988  22.348   8.878  0.1535 -0.0046  0.5563
94925W        W37842  16.799  23.782   8.909 -0.3315  0.0443  0.1252
94926W        W37843  12.437  23.193   7.912  0.0878  0.0335 -0.2182
94927W        W37844  10.509  25.148   9.276  0.1153  0.0145 -0.0310
94928W        W37845  14.257  24.716   8.594 -0.1835  0.3131 -0.1133
94929W        W37846  11.643  23.206   8.978  0.3697 -0.0834  0.1491
94930W        W37847  11.789  24.720   7.911 -0.1829  0.1107  0.1183
94931W        W37848  15.152  28.075   8.356 -0.0810 -0.0923  0.1089
94932W        W37849  13.227  22.456   8.001  0.0718 -0.0063 -0.0211
94933W        W37850  12.935  22.248   7.543  0.0448 -0.0785  0.4046
94934W        W37851  13.485  22.935   9.687  0.0828 -0.1093  0.0608
94935W        W37852  14.512  25.427   8.653 -0.0267  0.2058  0.1033
94936W        W37853  14.591  26.871   8.977 -0.1636  0.0151 -0.1089
94937W        W37854  10.697  24.288  10.873 -0.3209 -0.4319 -0.4285
94938W        W37855  14.191  26.146   6.908  0.1861 -0.0224 -0.2114
94939W        W37856  13.327  23.531   7.279 -0.0276  0.1690 -0.1105
94940W        W37857  11.331  24.922  10.558 -0.3880  0.0580  0.0961
94941W        W37858  11.474  23.759   7.855  0.1196  0.1792 -0.0904
94942W        W37859  13.465  21.115   9.290  0.0337  0.0514  0.2123
94943W        W37860  13.191  26.462  10.178  0.1837  0.1413  0.1954
94944W        W37861   9.070  24.517   8.986 -0.0569  0.1366  0.0765
94945W        W37862  11.201  25.534   9.024 -0.0208  0.4779 -0.0091
94946W        W37863  13.463  20.763   6.665  0.0060  0.0819 -0.0952
94947W        W37864  15.058  23.316   7.283  0.2391  0.2230  0.3806
94948W        W37865  13.115  21.789   7.390  0.2444  0.2396 -0.2497
94949W        W37866  13.528  24.654   7.946 -0.0388 -0.0205 -0.0592
94950W        W37867  10.173  21.544   8.008 -0.2232  0.1058 -0.1785
94951W        W37868  14.176  25.394   9.635  0.2060  0.1172 -0.0418
94952W        W37869  15.571  23.399   7.370  0.0740 -0.0512 -0.2395
94953W        W37870  12.830  20.356   9.596  0.0656  0.2036  0.2645
94954W        W37871  12.785  22.985  10.303 -0.1549 -0.4133  0.0626
94955W        W37872  14.901  27.228   9.141 -0.1496  0.3677  0.0727
94956W        W37873  13.154  25.049   7.927  0.2659  0.0467  0.0121
94957W        W37874  14.671  22.036   8.763 -0.1078 -0.1740  0.2578
94958W        W37875  13.225  24.941   9.281  0.2166  0.2432  0.0662
94959W        W37876  13.589  21.685  10.217  0.1588 -0.0607 -0.1563
94960W        W37877  13.589  25.089   6.457 -0.0385 -0.3189  0.2473
94961W        W37878  12.308  24.327   8.686 -0.1425 -0.3903 -0.4787
94962W        W37879  14.253  22.987   6.288 -0.0976  0.0154  0.0531
94963W        W37880  12.570  19.653  10.462 -0.5359  0.0823 -0.0509
94964W        W37881  17.576  25.677   9.466 -0.1305 -0.3587 -0.1341
94965W        W37882  13.621  22.371   8.322  0.0129 -0.0985  0.0177
94966W        W37883  12.963  24.154   9.771 -0.1606  0.4873  0.2619
94967W        W37884  13.889  24.331   8.182  0.2937  0.1472 -0.0185
94968W        W37885  15.891  20.760   8.708 -0.0004  0.2552 -0.0001
94969W        W37886  13.281  21.142   9.796  0.0952 -0.0078  0.0166
94970W        W37887  14.110  23.279   9.024  0.1069 -0.0844 -0.1343
94971W        W37888  14.958  25.017   7.777  0.2085 -0.0358  0.0035
94972W        W37889  13.623  25.233   8.477  0.1308 -0.2032  0.3086
94973W        W37890  13.585  23.226   9.291 -0.2101 -0.0970  0.2971
94974W        W37891  12.547  22.297   8.702 -0.1142 -0.2248 -0.3555
94975W        W37892  14.154  22.127   7.101 -0.1274  0.2110 -0.0730
94976W        W37893  13.220  23.570   8.052 -0.0023  0.2863 -0.1914
94977W        W37894  13.427  21.866   5.099  0.3362  0.0810  0.0878
94978W        W37895   9.879  24.853   8.499  0.0926  0.1675  0.0571
94979W        W37896  14.978  23.075   9.000 -0.1199 -0.0937  0.1140
94980W        W37897  12.099  25.242  10.565  0.0246 -0.3987  0.1231
94981W        W37898  11.392  25.043   9.164 -0.0202 -0.0015 -0.1798
94982W        W37899  14.414  21.846  10.189 -0.2854 -0.0526  0.2384
94983W        W37900  13.584  20.800   9.992  0.4709 -0.4483  0.2605
94984W        W37901  12.974  19.507   9.374  0.0909 -0.1931  0.3655
94985W        W37902  14.251  24.785   8.118  0.3670  0.0700  0.0287
94986W        W37903  14.660  22.557   8.863 -0.1082 -0.1279  0.3051
94987W        W37904  11.172  26.079  11.078 -0.0906  0.0879  0.3012
94988W        W37905  13.717  24.611   6.413 -0.0183  0.0620  0.2515
94989W        W37906  12.584  19.097   8.145 -0.0021 -0.1692  0.1827
94990W        W37907  13.986  23.895   7.845 -0.0472 -0.1345 -0.0901
94991W        W37908  10.933  19.080   9.866 -0.1942  0.4949 -0.1106
94992W        W37909  14.195  22.680   7.513 -0.1801 -0.2947 -0.1002
94993W        W37910  12.883  24.429   6.570 -0.1159  0.0609 -0.0630
94994W        W37911  13.362  24.694   6.002 -0.2472 -0.0650  0.0533
94995W        W37912  15.231  26.749   7.831 -0.2169 -0.1597 -0.1847
94996W        W37913  13.325  22.941   7.166 -0.0818  0.0202 -0.1864
94997W        W37914  12.064  23.613   9.897 -0.0755 -0.0692  0.1236
94998W        W37915  12.699  24.330   7.405 -0.0261 -0.0757 -0.0550
94999W        W37916  15.125  25.471   7.748 -0.0405  0.1053  0.3033
95000W        W37917  14.750  28.464  10.935 -0.0817 -0.0047 -0.0476
95001W        W37918  12.853  21.873   7.872  0.0019  0.1793  0.3159
95002W        W37919  14.845  24.839   7.306 -0.1616 -0.1701 -0.0227
95003W        W37920  15.910  21.727   7.974 -0.0165  0.0554  0.0747
95004W        W37921  12.353  24.228   9.185 -0.0443 -0.2338 -0.1029
95005W        W37922  10.926  22.465   6.914  0.0448  0.0586 -0.0041
95006W        W37923  13.234  25.680   5.109  0.0127 -0.0255 -0.1848
95007W        W37924  10.993  22.992   7.583 -0.0550  0.2534  0.0042
95008W        W37925  15.038  23.536   8.716 -0.1465  0.0532 -0.0079
95009W        W37926  15.414  22.660   9.379  0.0376  0.4397  0.2975
95010W        W37927  14.561  25.285   6.422 -0.2772  0.0547 -0.2119
95011W        W37928  12.063  20.442  10.164  0.1726 -0.0098 -0.2340
95012W        W37929  10.511  25.848  10.565  0.0240  0.0360 -0.0525
95013W        W37930  13.196  25.691   8.783 -0.3555 -0.1335 -0.1526
95014W        W37931  12.836  26.241  11.678  0.0665  0.0893  0.0926
95015W        W37932  11.925  23.390   6.736 -0.0304  0.2913 -0.0334
95016W        W37933  13.583  24.176   7.664 -0.2743 -0.2240 -0.1118
95017W        W37934  13.875  24.997   9.905 -0.0494 -0.1537 -0.0700
95018W        W37935  13.121  23.033   9.351  0.1091  0.0092 -0.2241
95019W        W37936  12.402  22.639   8.062  0.1029 -0.1548 -0.0297
95020W        W37937  13.220  23.746   8.634  0.2164  0.3181  0.3689
95021W        W37938  12.457  20.826  10.441  0.1910  0.2235 -0.2299
95022W        W37939  12.050  25.093   7.675 -0.0170 -0.2495 -0.1224
95023W        W37940  13.966  22.091   7.626 -0.0521 -0.0403 -0.0682
95024W        W37941  12.281  23.064   6.526 -0.2696 -0.0181 -0.1904
95025W        W37942  12.628  21.773   7.364 -0.1400 -0.1644 -0.1197
95026W        W37943  14.021  21.607   7.967  0.2021 -0.4015  0.1248
95027W        W37944  14.837  23.985   8.953 -0.2252  0.0692  0.3137
95028W        W37945  12.028  23.014   8.198  0.0578  0.3510 -0.0948
95029W        W37946  13.364  24.212   6.207 -0.0105 -0.1665 -0.2326
95030W        W37947  13.008  20.746   9.830 -0.0584  0.0433 -0.0671
95031W        W37948  12.574  24.763   7.732  0.0980 -0.0753  0.1262
95032W        W37949  15.097  26.786   9.291 -0.0474 -0.0119  0.2072
95033W        W37950  14.439  25.244   8.137  0.0294 -0.0561  0.0401
95034W        W37951  12.577  23.414   9.731 -0.2857 -0.0670  0.0852
95035W        W37952  12.810  24.340   8.603  0.1917  0.1017 -0.0497
95036W        W37953  14.879  24.298   8.545 -0.3795  0.3351  0.4202
95037W        W37954  13.787  22.017   8.074  0.2618  0.1329 -0.0495
95038W        W37955  11.138  24.259   8.260  0.1792  0.0451 -0.2679
95039W        W37956  11.367  25.509   8.312 -0.2838  0.0055  0.5285
95040W        W37957  14.078  24.475   7.731  0.1501  0.2790 -0.0561
95041W        W37958  11.077  24.332   7.231  0.2441 -0.1350 -0.1200
95042W        W37959  12.101  23.559   8.180 -0.2456 -0.2213  0.0168
95043W        W37960  10.633  23.530   8.802  0.1420 -0.0730 -0.2156
95044W        W37961  12.484  24.126   9.800  0.1885  0.1256  0.0774
95045W        W37962  12.735  25.895   9.255  0.3893  0.0021 -0.1789
95046W        W37963  15.204  24.849   6.921  0.0585  0.3172  0.2874
95047W        W37964  13.574  23.513   8.889 -0.1848  0.0948  0.0085
95048W        W37965  14.655  24.640   7.767  0.0005  0.0390  0.0256
95049W        W37966  13.679  21.890   7.181 -0.0511  0.2046 -0.0786
95050W        W37967  13.800  20.731   6.259  0.0098 -0.0014  0.1436
95051W        W37968  15.476  22.737   7.328 -0.0906  0.1563 -0.2731
95052W        W37969  11.822  22.863  11.214 -0.0535  0.0318  0.0413
95053W        W37970  10.868  23.958   7.498  0.0519  0.1686 -0.0941
95054W        W37971  10.603  23.538   8.281 -0.2003 -0.3692 -0.2936
95055W        W37972  11.877  23.640   9.094 -0.0359  0.0266 -0.2003
95056W        W37973  13.404  23.291   8.438 -0.3776  0.1767  0.2497
95057W        W37974  11.288  21.500   7.534  0.1770 -0.3898 -0.3348
95058W        W37975  13.801  25.583   8.116  0.2686  0.3373 -0.0583
95059W        W37976  12.916  21.874   9.385 -0.0182 -0.0944  0.0254
95060W        W37977  12.206  23.403   9.343 -0.0763 -0.2466  0.1271
95061W        W37978  14.230  24.690   6.362 -0.1048  0.0600 -0.1343
95062W        W37979  15.182  27.022   7.219 -0.0545  0.1657 -0.0271
95063W        W37980  12.746  21.724  10.180 -0.0913 -0.0131 -0.1113
95064W        W37981  10.890  23.993   9.957  0.1072 -0.0531  0.4840
95065W        W37982  12.289  21.827   8.759  0.1481 -0.2758  0.1630
95066W        W37983  12.533  22.959   9.497  0.2071 -0.2633 -0.1725
95067W        W37984  15.278  26.294   9.219 -0.4463 -0.2016  0.3844
95068W        W37985  14.913  25.351   5.586  0.0215  0.0069  0.0175
95069W        W37986  12.253  20.367   9.362 -0.2453 -0.1541  0.3625
95070W        W37987  14.521  22.193   8.369 -0.0686 -0.1045 -0.0512
95071W        W37988  13.905  26.258   5.363 -0.0187  0.5108  0.1100
95072W        W37989  14.280  21.769   8.972 -0.1391 -0.1943  0.0912
95073W        W37990  12.524  23.270   8.441 -0.1296 -0.1130 -0.6073
95074W        W37991  12.904  21.125   8.375 -0.0518 -0.2131 -0.2494
95075W        W37992  11.537  23.557  10.458  0.5482 -0.2052  0.0002
95076W        W37993  13.696  23.375   6.980 -0.0181  0.2908  0.1869
95077W        W37994  14.088  25.244   6.530  0.2228 -0.3957 -0.1400
95078W        W37995  13.440  24.026   8.956  0.1308  0.2173  0.2606
95079W        W37996  12.862  22.737   7.879  0.0193  0.0786  0.1882
95080W        W37997  13.416  24.416   8.411 -0.2265  0.2946  0.0968
95081W        W37998  13.776  22.973   7.478 -0.2206  0.2141  0.2156
95082W        W37999  14.391  22.966   8.574  0.1812 -0.0534 -0.0292
95083W        W38000  14.204  25.950   8.722  0.0923  0.0803  0.0262
95084W        W38001  13.527  25.349   9.684  0.0240 -0.1692  0.1330
95085W        W38002  13.748  22.882   8.413  0.1952  0.0991 -0.0335
95086W        W38003  10.194  19.876   9.706 -0.0744 -0.0178 -0.0691
95087W        W38004  13.359  19.763  10.816  0.3473  0.1596 -0.0340
95088W        W38005  12.731  24.946   8.646 -0.0208 -0.0457 -0.0682
95089W        W38006  14.884  21.852   8.220 -0.3175  0.0016  0.2922
95090W        W38007  12.416  20.118   8.153 -0.0929  0.0752 -0.1555
95091W        W38008  14.901  21.335   7.297 -0.1568 -0.1702  0.3599
95092W        W38009  11.669  24.309   8.135  0.0132 -0.0405 -0.3557
95093W        W38010  15.424  24.989   9.855 -0.1191 -0.1248  0.0418
95094W        W38011  13.434  29.427   4.109 -0.3175 -0.3608  0.1311
95095W        W38012  12.687  27.906   1.212 -0.1343  0.0691 -0.2440
95096W        W38013  14.738  26.963   0.516  0.2873 -0.2024  0.1284
95097W        W38014  13.873  27.277   0.598 -0.0230 -0.1437  0.2574
95098W        W38015  10.986  25.862  31.285 -0.3308 -0.1966  0.0345
95099W        W38016  12.417  31.573   3.401 -0.0252  0.2127  0.3699
95100W        W38017  11.257  25.300   3.378 -0.1456  0.2011  0.1995
95101W        W38018  13.284  28.986   0.342 -0.1462 -0.4156  0.0010
95102W        W38019  13.872  27.663   2.578  0.0510 -0.0385  0.0936
95103W        W38020  11.380  27.507  29.675  0.1345  0.0856  0.2312
95104W        W38021  14.787  27.014   1.548 -0.1587  0.1336  0.4305
95105W        W38022  12.182  30.717   2.945 -0.0272 -0.2330 -0.0951
95106W        W38023  11.886  26.316   1.120 -0.0689 -0.0541 -0.1217
95107W        W38024  10.670  27.403   4.413 -0.1085 -0.0856 -0.0718
95108W        W38025  14.153  26.628   1.484 -0.0411  0.1490 -0.1265
95109W        W38026   8.477  27.079   1.176 -0.2029  0.2273 -0.3742
95110W        W38027  10.942  26.265   0.486 -0.1318 -0.1129  0.1318
95111W        W38028  13.952  27.979  31.688 -0.1781  0.0148 -0.0408
95112W        W38029  12.356  27.310   4.047  0.2714 -0.4351 -0.2302
95113W        W38030  13.271  27.597   3.628  0.0479  0.2216  0.0923
95114W        W38031  15.154  26.578   3.311  0.0825  0.0796  0.1519
95115W        W38032  13.221  29.121   0.902 -0.1896 -0.1250  0.2673
95116W        W38033  13.351  27.460  30.774  0.2136  0.1686 -0.0131
95117W        W38034  11.615  25.815   1.178 -0.0550 -0.0239  0.1296
95118W        W38035  12.230  25.430  31.743 -0.1776  0.0964 -0.0490
95119W        W38036  12.894  26.537   2.373  0.1953  0.2336 -0.1427
95120W        W38037  12.418  29.397   0.471 -0.1149  0.1912 -0.0231
95121W        W38038  12.877  30.058   1.885  0.2279  0.0633 -0.2710
95122W        W38039  12.542  28.680   1.496 -0.0642 -0.8085 -0.1319
95123W        W38040  12.860  27.946   3.368  0.0741 -0.2795  0.2449
95124W        W38041  13.297  31.511   1.339  0.4415 -0.0230  0.2080
95125W        W38042   9.301  26.992   2.744 -0.2240 -0.1789 -0.0387
95126W        W38043  12.448  28.110   3.146 -0.0979 -0.1975 -0.1924
95127W        W38044  12.866  29.367   1.154  0.1071  0.1556 -0.1559
95128W        W38045  13.495  28.883   4.275 -0.2435  0.2916  0.0225
95129W        W38046  11.839  28.812   4.267 -0.1055 -0.0158  0.1061
95130W        W38047  11.475  29.333   0.931 -0.0459 -0.0218 -0.0696
95131W        W38048  14.124  29.533   4.293  0.0059  0.1692  0.0397
95132W        W38049  11.044  28.275   4.488  0.0855  0.1410  0.1453
95133W        W38050  13.839  27.722   1.484  0.0732  0.3914  0.2188
95134W        W38051  14.286  26.454  31.083 -0.2871 -0.0822  0.1796
95135W        W38052  12.301  28.506  31.821  0.0055 -0.1431  0.0998
95136W        W38053  11.178  27.331   3.025  0.1510 -0.0998 -0.1615
95137W        W38054  11.956  28.073   4.206  0.2595  0.0947 -0.0522
95138W        W38055  10.899  26.596   2.447  0.0086  0.0578  0.2261
95139W        W38056  14.309  26.448   0.778 -0.1543 -0.1877  0.2779
95140W        W38057  10.501  28.692  31.259 -0.2321  0.1947  0.0658
95141W        W38058  15.682  27.363  29.526 -0.0232  0.1715  0.1140
95142W        W38059   9.856  24.725  30.577 -0.2929  0.0913 -0.1230
95143W        W38060  14.173  27.162  31.866 -0.1076 -0.2481  0.2062
95144W        W38061  13.893  25.991   0.208  0.1492  0.1389 -0.0878
95145W        W38062  11.107  28.101   2.654  0.2416 -0.2276 -0.2764
95146W        W38063  13.562  26.519   1.086  0.2719 -0.1703 -0.2723
95147W        W38064  14.992  27.542   1.499 -0.1038 -0.0465  0.0742
95148W        W38065  13.072  27.174  31.221  0.1047 -0.0557 -0.0368
95149W        W38066  14.936  25.522  31.659  0.3188  0.0739  0.1118
95150W        W38067   9.711  26.842   2.377 -0.3273  0.0732 -0.3956
95151W        W38068  12.242  27.886   2.161  0.0025 -0.0692 -0.2673
95152W        W38069  14.239  28.853   0.614  0.1731  0.2806  0.3243
95153W        W38070  16.048  30.347   0.592 -0.0242  0.0257  0.3072
95154W        W38071  11.040  28.279   0.825  0.0466 -0.0543  0.0579
95155W        W38072  10.845  27.997   0.248  0.2266  0.0022 -0.0515
95156W        W38073  14.300  29.474   1.790  0.1309 -0.0884 -0.2345
95157W        W38074  12.384  28.040   2.629  0.0836  0.2860  0.0944
95158W        W38075  11.436  24.782  30.885  0.1093 -0.2195 -0.2722
95159W        W38076  14.340  29.138   2.564  0.0043  0.1203  0.1231
95160W        W38077  12.385  28.978   0.697 -0.0190 -0.2403 -0.0923
95161W        W38078  13.907  29.178   0.811 -0.0667 -0.0384  0.1994
95162W        W38079  12.511  28.519   0.403 -0.3488  0.2940  0.1024
95163W        W38080  15.047  29.966   3.533  0.3056 -0.1773  0.0440
95164W        W38081  15.027  28.013   0.614  0.0252 -0.2246 -0.2422
95165W        W38082  12.323  26.487   1.189 -0.1545 -0.0636 -0.0392
95166W        W38083  12.835  25.876   2.562 -0.1439  0.0705 -0.1026
95167W        W38084  12.892  29.284  30.775  0.1489  0.1570  0.1790
95168W        W38085  12.201  28.126   0.292  0.0251  0.0077 -0.3734
95169W        W38086  14.795  28.784   2.616 -0.1783  0.0381  0.0818
95170W        W38087  14.344  26.057   0.432 -0.1520  0.1688  0.1629
95171W        W38088  12.180  28.535   4.039  0.1354  0.1266  0.6100
95172W        W38089  15.024  29.445   2.319 -0.1226 -0.0647  0.0971
95173W        W38090  12.974  28.881   3.525 -0.2422  0.0137  0.0471
95174W        W38091  11.209  29.262   1.538 -0.3616  0.3277  0.3069
95175W        W38092   9.258  27.443   2.921 -0.1868  0.0963  0.2693
95176W        W38093  10.779  30.129   0.823  0.1089  0.1423  0.0923
95177W        W38094  12.872  28.869   1.145 -0.0754 -0.1267 -0.2778
95178W        W38095  12.652  28.152   2.254 -0.1664  0.0570 -0.1472
95179W        W38096  13.306  26.204  31.236 -0.2072  0.0122  0.1427
95180W        W38097  12.219  26.934   1.676 -0.2410 -0.1356  0.2084
95181W        W38098  14.845  26.046   0.472 -0.3918  0.1792  0.2349
95182W        W38099  11.200  28.720   1.937  0.3111  0.0479 -0.0486
95183W        W38100  13.162  28.395   0.375  0.1557  0.0997 -0.2461
95184W        W38101  12.612  26.522  31.619  0.3018  0.1396  0.2426
95185W        W38102  13.273  28.638   0.948 -0.3270 -0.0794  0.1856
95186W        W38103   9.795  25.957   1.890  0.0043  0.0484 -0.1725
95187W        W38104  11.394  27.627   0.064 -0.1106  0.4397  0.0124
95188W        W38105  11.006  26.556   3.876  0.2778  0.0276  0.0777
95189W        W38106  11.269  25.835   0.396  0.1084  0.1739 -0.0465
95190W        W38107  14.216  27.798   3.277  0.1558 -0.0380  0.4230
95191W        W38108  12.504  24.957  31.897 -0.2661 -0.1531 -0.2824
95192W        W38109  13.215  25.493   0.032 -0.1233  0.0160  0.0130
95193W        W38110  12.775  25.187   0.225  0.1378 -0.2232 -0.0258
95194W        W38111   8.860  27.827  31.716 -0.0112 -0.0179  0.2023
95195W        W38112  13.754  24.369   5.344 -0.0797 -0.0862  0.1194
95196W        W38113  13.160  29.836  31.724  0.0243 -0.2094  0.1710
95197W        W38114  14.949  29.962   1.492 -0.1244  0.4342 -0.1176
95198W        W38115  13.398  30.031   1.842 -0.0798  0.0801  0.0762
95199W        W38116  12.207  27.348   2.064 -0.1351  0.1732  0.1018
95200W        W38117  12.201  25.073  29.519 -0.0963 -0.2825 -0.1399
95201W        W38118  11.486  29.864  31.798 -0.1151  0.0667  0.0581
95202W        W38119  13.088  27.966   0.039  0.3770  0.3268 -0.1991
95203W        W38120  10.830  27.570   1.587 -0.0477  0.0250  0.2287
95204W        W38121  16.038  29.530   2.364 -0.0861 -0.2583  0.1099
95205W        W38122  13.180  29.180  31.720  0.1708  0.1089 -0.0466
95206W        W38123  11.126  27.082   1.861 -0.2331  0.0045  0.0999
95207W        W38124  14.556  26.882   2.359  0.0119  0.1534  0.2971
95208W        W38125  14.023  27.626   2.046  0.0006  0.3005 -0.2045
95209W        W38126  13.595  27.091  31.251 -0.1390  0.2513 -0.0057
95210W        W38127   9.815  25.223   0.258 -0.0987  0.0887 -0.0940
95211W        W38128  13.865  28.412   0.002 -0.0493 -0.1497 -0.1052
95212W        W38129  10.460  28.801  30.167  0.0767 -0.0438 -0.2351
95213W        W38130  10.464  27.845   2.116 -0.1088 -0.0634 -0.5163
95214W        W38131  12.857  30.484   1.341 -0.1336 -0.4157 -0.1039
95215W        W38132  13.717  28.154  30.888 -0.2393 -0.1322  0.0616
95216W        W38133  11.661  28.393   5.230 -0.0854  0.0451 -0.5005
95217W        W38134  14.739  26.461   1.575  0.0661 -0.2495 -0.0306
95218W        W38135  11.410  27.871   2.371 -0.1182  0.0776  0.2735
95219W        W38136  11.908  29.514   5.533  0.3710 -0.1844  0.2061
95220W        W38137  15.395  25.599   0.569 -0.1177 -0.2632  0.0500
95221W        W38138  14.552  26.052   0.868 -0.0344  0.0659 -0.0545
95222W        W38139  13.756  27.910   3.077  0.1211  0.1799 -0.2055
95223W        W38140  15.139  29.649   1.120 -0.1585 -0.1864 -0.0730
95224W        W38141  14.159  25.098  29.993  0.2252  0.1751  0.0792
95225W        W38142  13.144  26.541  29.861  0.1032  0.1158 -0.4142
95226W        W38143  11.303  28.172   3.621 -0.1669 -0.1795  0.0428
95227W        W38144  13.543  28.046   0.127 -0.0582  0.0402 -0.2585
95228W        W38145  13.928  28.852  31.463 -0.2362  0.1703  0.0170
95229W        W38146  11.165  27.484  31.607 -0.2877 -0.2040 -0.2234
95230W        W38147  15.000  29.540  30.962  0.1741 -0.2221  0.3751
95231W        W38148  10.949  26.903   1.443  0.0299 -0.0191  0.0234
95232W        W38149  11.812  29.292   4.365  0.0022 -0.1503 -0.0799
95233W        W38150  13.513  29.488   0.648 -0.2542  0.2089 -0.0589
95234W        W38151  11.366  26.156   3.012  0.0205  0.1008 -0.2641
95235W        W38152  11.870  26.779  31.260 -0.1155  0.0562  0.3803
95236W        W38153  13.719  24.894  31.247  0.0371 -0.0556  0.2163
95237W        W38154  10.874  27.506   2.157 -0.0237 -0.1773  0.0634
95238W        W38155  14.931  25.240   2.204 -0.0166 -0.1684 -0.0777
95239W        W38156  12.670  24.502   1.396  0.0933  0.1381  0.1642
95240W        W38157  13.078  26.789   2.851 -0.1486 -0.1351  0.1401
95241W        W38158  13.895  28.147   2.675  0.0805  0.0917  0.0254
95242W        W38159  16.454  29.537   0.994  0.2792  0.1114 -0.1449
95243W        W38160  15.494  28.172   3.153  0.2250 -0.2025  0.0950
95244W        W38161  11.087  27.629   0.666  0.2668 -0.2643 -0.0088
95245W        W38162  13.705  25.290   0.144 -0.1044  0.1962 -0.0546
95246W        W38163  11.274  26.592   1.691 -0.0166 -0.2025 -0.3272
95247W        W38164  12.524  27.653   3.559  0.1375 -0.0444  0.3387
95248W        W38165  12.687  28.954   3.071  0.0652  0.0105  0.2091
95249W        W38166  12.473  27.532  31.179  0.0890 -0.2046  0.1429
95250W        W38167  12.044  27.004   3.158 -0.1891  0.1786 -0.3020
95251W        W38168  13.480  25.674   0.427  0.0231 -0.0616  0.0577
95252W        W38169  11.064  29.421   2.500  0.0537 -0.3941  0.1406
95253W        W38170   9.979  28.276   3.767  0.0404 -0.2123 -0.0895
95254W        W38171  13.806  26.107   2.213  0.0234 -0.2854  0.3688
95255W        W38172  12.888  27.982   2.832 -0.1310  0.1292  0.0405
95256W        W38173  10.249  28.933  30.905 -0.2001  0.3552 -0.2626
95257W        W38174  15.386  27.797   1.684 -0.0536  0.2163 -0.0780
95258W        W38175  10.791  28.802   0.793  0.0452 -0.0582  0.0834
95259W        W38176  14.093  24.608  31.431 -0.1358 -0.1166 -0.1995
95260W        W38177   9.897  29.890   1.781  0.3140 -0.1110 -0.0760
95261W        W38178  12.592  27.469   1.422 -0.1815  0.1441  0.1690
95262W        W38179  11.925  26.502   0.451  0.1841  0.0903 -0.1758
95263W        W38180  13.418  23.213  31.087  0.3056 -0.1646  0.1494
95264W        W38181  13.595  25.766  31.792  0.1762  0.5889  0.0613
95265W        W38182  11.620  29.081   1.307 -0.0998 -0.0896  0.0664
95266W        W38183  10.542  27.066   1.634  0.3547  0.0283  0.1054
95267W        W38184  13.727  26.662   3.494  0.2278  0.2227  0.2397
95268W        W38185  13.524  28.270   0.756 -0.1164 -0.0035 -0.0438
95269W        W38186  12.912  27.852  30.520 -0.2938  0.0040 -0.0529
95270W        W38187  14.324  27.748   1.673  0.0778  0.3223 -0.0160
95271W        W38188  10.982  27.753   3.648 -0.0221  0.0470  0.1877
95272W        W38189  12.084  26.849  30.372  0.1647  0.1087  0.0178
95273W        W38190  13.989  26.153   1.014 -0.1085 -0.0312 -0.1218
95274W        W38191  13.177  27.463   1.183 -0.0120 -0.1790  0.1692
95275W        W38192  12.866  28.809   0.604 -0.2361  0.1879  0.0510
95276W        W38193  15.069  28.528   1.845 -0.0602 -0.2721 -0.0985
95277W        W38194  11.467  27.646   0.994 -0.4601 -0.0725 -0.2580
95278W        W38195  11.382  27.538  31.178 -0.0932 -0.0424  0.2220
95279W        W38196  13.387  27.828   2.664 -0.2432 -0.2812 -0.1351
95280W        W38197  13.793  28.311   1.399 -0.0896  0.0358  0.2928
95281W        W38198  11.606  26.663  31.879 -0.0658  0.4206  0.2719
95282W        W38199  11.894  28.291   1.509  0.0606 -0.1357 -0.0458
95283W        W38200  13.384  24.705   0.675 -0.1391 -0.3128  0.6076
95284W        W38201  14.504  29.632   2.491 -0.0697 -0.1903  0.1965
95285W        W38202  13.860  28.834   1.711  0.1388  0.3642 -0.0558
95286W        W38203  12.086  27.897   5.272  0.3045 -0.1696  0.1423
95287W        W38204  14.028  26.081  31.715 -0.0784  0.1768 -0.4312
95288W        W38205  14.471  30.984  31.400  0.0999 -0.4046 -0.0475
95289W        W38206  13.695  26.829   1.481 -0.1756  0.0700  0.3646
95290W        W38207  10.327  27.569   1.408 -0.0337  0.0648  0.1516
95291W        W38208  11.867  26.794   1.038 -0.2204  0.1769  0.1633
95292W        W38209  12.279  28.228   1.270 -0.2127  0.4818  0.1235
95293W        W38210  11.840  28.421   3.308 -0.0633  0.1806 -0.1551
95294W        W38211  11.995  29.808   3.172  0.0475  0.2478  0.0088
95295W        W38212  12.355  27.345   0.840  0.0595  0.0312  0.0283
95296W        W38213  11.849  28.157   2.522  0.3320 -0.2302  0.0274
95297W        W38214  15.177  25.284  31.276  0.0380  0.1436 -0.1949
95298W        W38215  14.554  30.274   2.389 -0.1903  0.1850 -0.0299
95299W        W38216  13.998  28.133   1.818  0.0089 -0.1066  0.0232
95300W        W38217  13.973  26.018   3.572  0.2013  0.0740  0.1579
95301W        W38218  11.742  27.981  31.273  0.2110 -0.0201 -0.2253
95302W        W38219  13.562  23.951   3.282  0.2782  0.1305  0.2609
95303W        W38220  12.065  27.405   1.558 -0.0579  0.0430  0.0425
95304W        W38221  14.791  30.525   2.790  0.1511 -0.3136  0.1418
95305W        W38222  12.586  27.608   2.429  0.0650  0.1998  0.0332
95306W        W38223  13.701  30.541   2.903  0.0646 -0.2078 -0.2159
95307W        W38224  10.590  26.593   2.909  0.4864  0.2574  0.0226
95308W        W38225  15.075  24.782  31.197  0.0473 -0.2028  0.0125
95309W        W38226  14.038  25.542  31.737  0.2034 -0.0331 -0.2009
95310W        W38227  14.322  28.943   1.810 -0.0100 -0.1815 -0.1157
95311W        W38228  13.677  29.448   1.172 -0.0810 -0.1843 -0.4003
95312W        W38229  13.017  27.695   1.594  0.0282 -0.0421 -0.0840
95313W        W38230  12.371  26.730   0.708 -0.0548 -0.3338  0.2828
95314W        W38231  12.646  28.471   2.803 -0.0371  0.1457 -0.1282
95315W        W38232  12.762  25.976   0.993  0.2004  0.1165 -0.0253
95316W        W38233  11.249  27.349   4.019 -0.2836 -0.0957 -0.2409
95317W        W38234  12.936  25.012   0.786  0.0540  0.0878 -0.0346
95318W        W38235  11.526  26.897   2.622  0.2931 -0.1341  0.1082
95319W        W38236  16.469  29.702   2.519  0.0626 -0.1735  0.1289
95320W        W38237  14.893  28.013   1.734  0.0016 -0.3152  0.0394
95321W        W38238  14.387  27.095   0.872  0.2500  0.0016 -0.1244
95322W        W38239  13.528  27.452   2.187  0.0852  0.1232  0.0424
95323W        W38240  11.046  29.390   5.319  0.2407 -0.2794  0.2617
95324W        W38241  11.605  28.365   4.431 -0.0559  0.3255 -0.0001
95325W        W38242  14.946  29.904   2.500 -0.1511  0.0983  0.3612
95326W        W38243  14.684  24.536  31.519  0.0674  0.0978 -0.2403
95327W        W38244  14.090  25.834   1.524 -0.0995 -0.0703  0.0990
95328W        W38245  13.464  29.076   1.987 -0.0597  0.0277 -0.3278
95329W        W38246  14.418  26.905  30.864 -0.2491 -0.1891 -0.0144
95330W        W38247  11.819  28.070   1.019 -0.1396 -0.0782 -0.1419
95331W        W38248  13.419  27.093   1.785 -0.0290  0.1511 -0.3307
95332W        W38249  10.017  26.250  30.761  0.1040  0.0144 -0.2580
95333W        W38250  13.615  25.849   1.821  0.0262  0.1283 -0.0265
95334W        W38251  12.352  30.145   2.126 -0.1216  0.1605  0.0494
95335W        W38252  14.085  29.041   1.306  0.0903 -0.0684 -0.0345
95336W        W38253  13.773  25.308  30.917 -0.1281  0.0474  0.0627
95337W        W38254  12.961  25.582   0.546 -0.1294 -0.0124 -0.1320
95338W        W38255  11.914  30.390   1.511 -0.0228 -0.0430  0.0414
95339W        W38256  10.718  28.293  31.588  0.4351 -0.1231  0.4290
95340W        W38257  12.199  28.889  28.994  0.2056 -0.0767 -0.1098
95341W        W38258  13.016  29.440   3.143  0.0288 -0.2822  0.1885
95342W        W38259  13.936  29.172   4.010  0.0095 -0.1107 -0.0113
95343W        W38260  12.163  26.337  31.431 -0.2623  0.0500 -0.1803
95344W        W38261  14.080  26.806   2.693  0.2656 -0.0799 -0.2128
95345W        W38262  10.443  27.939   3.161  0.0295  0.0047 -0.2198
95346W        W38263  13.795  24.823  30.281 -0.0443 -0.0580  0.1069
95347W        W38264  13.089  31.129   4.623  0.0794 -0.2589  0.0441
95348W        W38265  12.062  26.966   2.586  0.0928  0.0633 -0.0249
95349W        W38266  11.280  27.376   1.437  0.1670 -0.0136 -0.1944
95350W        W38267  12.211  27.306   0.337  0.0987  0.0109 -0.0310
95351W        W38268  12.253  27.035   1.230  0.0913 -0.1477 -0.1044
95352W        W38269  12.798  26.211   1.416 -0.1043  0.0716  0.3213
95353W        W38270  16.053  27.845   1.300  0.5062  0.0225 -0.0009
95354W        W38271  12.562  29.321   3.998  0.1914  0.0249  0.0843
95355W        W38272  13.688  27.998   2.209 -0.1854 -0.1766 -0.1560
95356W        W38273  12.713  28.741   2.411  0.3036  0.2711 -0.2261
95357W        W38274  14.142  29.507   1.257 -0.0476  0.2169 -0.0528
95358W        W38275  12.291  28.323   1.885 -0.0419  0.0382  0.0268
95359W        W38276  12.068  27.538   3.232  0.0515 -0.2503 -0.0047
95360W        W38277  12.074  27.704   3.822  0.1421  0.1516 -0.0581
95361W        W38278  14.490  28.402   1.876  0.2165 -0.1794  0.2090
95362W        W38279  11.247  27.726   1.807  0.2438 -0.0487  0.0498
95363W        W38280  12.674  29.752   0.771 -0.2732  0.3516 -0.1206
95364W        W38281  10.638  30.031   4.714 -0.1267  0.0999  0.3214
95365W        W38282  12.662  27.598   1.935  0.1346  0.0377 -0.1554
95366W        W38283  11.818  28.619   2.078 -0.1687  0.1236 -0.1787
95367W        W38284  14.805  28.973   1.738 -0.2776  0.3946  0.1723
95368W        W38285  12.818  28.395  31.932 -0.4128 -0.2562  0.0248
95369W        W38286  14.564  30.707   1.812  0.0879 -0.2681 -0.0007
95370W        W38287  14.020  27.460   1.047  0.4264  0.1155  0.0614
95371W        W38288  10.077  27.276   3.620 -0.0877  0.0533 -0.1386
95372W        W38289  10.595  28.098   1.632 -0.0351  0.0778 -0.0312
95373W        W38290  12.215  30.590   1.881  0.2499  0.3702  0.1218
95374W        W38291  12.145  29.334   1.514  0.0874  0.1788 -0.0881
95375W        W38292  14.793  28.949   3.448 -0.2092  0.0445 -0.1729
95376W        W38293  14.491  25.732  31.662 -0.0990 -0.0275  0.2798
95377W        W38294  15.040  26.737   1.210  0.2743 -0.0383 -0.0352
95378W        W38295  13.469  25.780  30.968  0.0572 -0.0832  0.1448
95379W        W38296  13.144  27.925   2.137 -0.2423 -0.4307  0.3500
95380W        W38297  14.515  27.689   3.696 -0.0194  0.1137 -0.0915
95381W        W38298  11.961  25.896  31.648 -0.0887  0.0499 -0.1091
95382W        W38299  13.096  28.389   2.592 -0.2081 -0.1914  0.0547
95383W        W38300  16.239  25.890   1.733  0.2390 -0.2778 -0.2525
95384W        W38301  11.587  29.135   3.908  0.1693 -0.0263 -0.3094
95385W        W38302  13.277  30.919  31.564 -0.2130 -0.3707  0.1373
95386W        W38303  14.505  25.654  29.335  0.1013 -0.1407 -0.4350
95387W        W38304  11.703  28.097   0.201 -0.4317 -0.1104 -0.0652
95388W        W38305  14.456  26.030   2.846  0.1165  0.1683 -0.2147
95389W        W38306  14.470  27.936   0.725  0.1523 -0.1442 -0.0896
95390W        W38307  10.971  27.427   0.244 -0.0905 -0.0029 -0.2031
95391W        W38308  12.335  28.110   0.800 -0.0611 -0.1062 -0.1445
95392W        W38309  11.744  27.765   0.610 -0.0650  0.0110  0.0138
95393W        W38310  12.222  30.137   3.442  0.1615  0.0013  0.1447
95394W        W38311  10.816  23.274   0.996  0.0186 -0.0992  0.2246
95395W        W38312  13.428  26.967   0.551 -0.1532 -0.0101 -0.1044
95396W        W38313  12.756  28.311   5.199 -0.0255 -0.2084 -0.0528
95397W        W38314  14.868  24.269   3.054  0.0336 -0.0302 -0.0992
95398W        W38315  14.053  27.510  31.496 -0.0894 -0.1543  0.0854
95399W        W38316  15.042  26.840   0.028 -0.0208  0.1429  0.0235
95400W        W38317  13.611  28.581   2.585 -0.1950  0.2593  0.0609
95401W        W38318  12.784  28.042   0.398  0.1340 -0.0896 -0.0507
95402W        W38319  14.833  28.170  31.674 -0.3327  0.0916  0.1107
95403W        W38320  12.491  24.843   1.014  0.0516 -0.0152  0.4105
95404W        W38321  13.860  26.630   0.561  0.0614 -0.1089  0.1569
95405W        W38322  14.991  31.060   2.719 -0.2725  0.3345  0.0125
95406W        W38323  12.381  26.744  31.240 -0.2547  0.5019  0.4472
95407W        W38324  14.045  27.378  29.826  0.0159  0.1803 -0.1595
95408W        W38325  11.951  28.123  31.713 -0.1405  0.4417 -0.0005
95409W        W38326  13.209  28.805   2.360  0.0910 -0.2745  0.0631
95410W        W38327  13.916  30.275   3.876  0.0753  0.1470 -0.0268
95411W        W38328  13.772  24.745   0.332  0.2191 -0.0786  0.0965
95412W        W38329  15.670  26.007  31.180  0.2151  0.1707 -0.0691
95413W        W38330  13.537  27.604   0.909  0.4445  0.0534  0.1022
95414W        W38331  14.116  29.641   0.728 -0.0148  0.2188 -0.3031
95415W        W38332  14.002  29.184   2.967 -0.2020  0.2414 -0.0966
95416W        W38333  14.161  30.406   2.133  0.1164 -0.0475  0.0974
95417W        W38334  13.306  25.178   0.455  0.1271 -0.1935 -0.0115
95418W        W38335  12.977  30.022   1.388 -0.0833  0.3222  0.0476
95419W        W38336  13.194  30.281   2.669 -0.1269  0.0798  0.1987
95420W        W38337  12.805  24.840  31.430 -0.0714 -0.3529 -0.2806
95421W        W38338  12.494  26.619   2.678 -0.0832  0.0773  0.0864
95422W        W38339  11.047  28.583   2.878 -0.1702  0.2370  0.0203
95423W        W38340  14.481  27.047   2.936  0.0399 -0.0833  0.2533
95424W        W38341  14.382  27.747   2.650 -0.1864 -0.0719  0.2521
95425W        W38342  12.375  28.972   0.196 -0.1553  0.0012  0.2263
95426W        W38343  12.802  26.653   1.211  0.1136  0.2338  0.1549
95427W        W38344  12.667  29.681   2.327  0.3148  0.5241 -0.0458
95428W        W38345  11.579  29.601   2.453  0.1455  0.0577  0.1996
95429W        W38346  12.979  26.958  30.105 -0.2182 -0.1862 -0.1571
95430W        W38347  12.509  29.234   2.299 -0.0622 -0.0814  0.0360
95431W        W38348  11.641  27.803   1.465  0.0557 -0.1459  0.3126
95432W        W38349  12.496  28.566   0.987 -0.0380  0.0107 -0.1629
95433W        W38350  15.158  28.218   1.415  0.3052  0.4059  0.2846
95434W        W38351  13.328  28.533  31.871  0.0231 -0.0878  0.5062
95435W        W38352  14.043  30.070   2.490 -0.2914  0.1245  0.0670
95436W        W38353  13.201  26.168   1.106  0.0381  0.3079  0.1643
95437W        W38354  13.528  26.268  31.779 -0.3870 -0.0636 -0.1608
95438W        W38355  14.573  25.629  28.882 -0.0048  0.1821  0.2166
95439W        W38356  12.759  28.387   3.647  0.0964  0.0425  0.1425
95440W        W38357  10.231  28.706   2.105  0.2787  0.0858  0.0545
95441W        W38358  11.084  28.250   1.728 -0.0645 -0.1907 -0.5135
95442W        W38359  12.786  31.181   1.848 -0.2477  0.1574 -0.0250
95443W        W38360  13.170  25.877   1.548  0.0727 -0.0337 -0.0450
95444W        W38361  11.646  26.526   2.949  0.2033 -0.0058 -0.0570
95445W        W38362  11.417  26.730   2.171  0.4177  0.0020 -0.1821
95446W        W38363  11.377  28.417   0.242  0.2190 -0.0193 -0.2514
95447W        W38364  14.147  29.921  31.203 -0.0005  0.0756 -0.0681
95448W        W38365  13.185  27.365   0.679  0.0363 -0.0886  0.0169
95449W        W38366  11.487  25.165   1.212  0.1826  0.1381 -0.2717
95450W        W38367  12.665  29.322  31.586 -0.2370  0.2173 -0.0500
95451W        W38368  14.605  28.320   2.639 -0.0432 -0.1472 -0.1879
95452W        W38369  12.907  24.688   0.289 -0.1399  0.1745  0.1917
95453W        W38370  13.863  30.530   4.681 -0.5398 -0.1505 -0.1306
95454W        W38371  10.294  27.414   1.916  0.0310  0.2922  0.1297
95455W        W38372  13.672  26.573   2.588  0.2156  0.0192  0.1387
95456W        W38373  13.845  27.030   2.225 -0.2156  0.2061  0.0570
95457W        W38374  13.399  28.060  31.477  0.0352 -0.0375  0.2768
95458W        W38375  12.268  28.941   2.657  0.2151  0.0599 -0.0781
95459W        W38376  12.367  29.012   1.191  0.1038  0.0396 -0.2594
95460W        W38377  12.753  29.512   0.080  0.2299 -0.0681 -0.0310
95461W        W38378  11.734  30.132   3.637  0.0652 -0.0698  0.1145
95462W        W38379  14.123  26.837   3.242 -0.2308  0.1458  0.1182
95463W        W38380  11.903  25.153   1.564 -0.0529 -0.1169  0.0929
95464W        W38381  14.767  28.628  31.445 -0.1002  0.2416  0.2126
95465W        W38382  12.400  29.230   3.488  0.1146  0.1209 -0.0036
95466W        W38383  15.606  25.508  31.261  0.5083  0.0252  0.1463
95467W        W38384  15.552  25.652   3.286 -0.1939 -0.2139  0.3161
95468W        W38385  13.207  29.679   1.049  0.2515  0.1246 -0.0009
95469W        W38386  10.767  26.138   1.913  0.0344 -0.1598 -0.4751
95470W        W38387  11.907  29.032   0.834 -0.0037  0.0189  0.0830
95471W        W38388  14.717  29.676   1.969 -0.1516 -0.1264 -0.2538
95472W        W38389  13.018  24.966  30.947  0.1719  0.2124 -0.0938
95473W        W38390  14.003  27.929   1.090 -0.3572  0.1590 -0.0105
95474W        W38391  12.726  30.128  31.911  0.0329  0.1028  0.0821
95475W        W38392  13.276  27.117   3.148 -0.1021  0.0325 -0.1387
95476W        W38393  14.180  26.822   1.892 -0.0860 -0.0602 -0.0324
95477W        W38394  14.491  28.613   4.543  0.0257 -0.0878  0.1871
95478W        W38395  11.392  28.337   1.350 -0.2218 -0.1058  0.0966
95479W        W38396  13.030  28.733   4.525  0.1760 -0.0842 -0.2194
95480W        W38397  12.205  27.886  31.009  0.1910  0.1398 -0.0398
95481W        W38398  14.219  26.935   0.356  0.1422 -0.1368 -0.2435
95482W        W38399  14.417  30.057   2.836 -0.5286  0.0018  0.2168
95483W        W38400  16.012  29.083   2.106 -0.1604 -0.0632  0.0039
95484W        W38401  13.469  28.038   1.683  0.0513  0.1519 -0.0134
95485W        W38402  15.405  28.629   1.459  0.4095 -0.0260 -0.1127
95486W        W38403  11.573  25.702   2.906  0.1898  0.1504  0.0494
95487W        W38404  14.350  28.316  31.404  0.1660  0.1345 -0.0935
95488W        W38405  11.943  26.316  31.933 -0.0140  0.0903  0.2992
95489W        W38406  13.800  27.896   0.570  0.2021 -0.3626 -0.1738
95490W        W38407  12.782  25.086   1.385  0.1141  0.1270 -0.0443
95491W        W38408  13.944  26.371   3.018  0.0173 -0.3065 -0.0231
95492W        W38409  13.020  29.267   2.361  0.2492 -0.0363 -0.0693
95493W        W38410  14.321  29.919   2.086 -0.1900 -0.3933 -0.1965
95494W        W38411  11.843  27.755   7.964 -0.1792 -0.1416  0.0857
95495W        W38412  11.941  28.009   4.696  0.0074 -0.2088  0.1380
95496W        W38413  12.970  27.304   2.199  0.3203 -0.0110 -0.0224
95497W        W38414  14.191  25.661   2.038 -0.1640 -0.1258 -0.0002
95498W        W38415  12.967  26.512   5.491  0.2725 -0.0647 -0.0523
95499W        W38416  13.548  28.642   5.566 -0.2615  0.0499  0.1173
95500W        W38417  10.414  25.980   6.261 -0.2808 -0.1582 -0.1980
95501W        W38418  12.835  27.805   4.960 -0.2115 -0.1260 -0.0995
95502W        W38419  11.979  28.534   6.068  0.0847 -0.3117 -0.2002
95503W        W38420  13.274  27.683   3.116  0.0123 -0.1775  0.1031
95504W        W38421  12.554  27.642   7.297 -0.1148  0.0944 -0.0101
95505W        W38422  11.311  28.007   6.702  0.0686  0.0365 -0.2013
95506W        W38423  12.301  28.206   4.964  0.2205  0.1103 -0.0474
95507W        W38424  12.728  26.858   5.069  0.0337 -0.1601 -0.1159
95508W        W38425  14.978  24.732   3.972 -0.0234  0.3173 -0.2597
95509W        W38426  10.910  28.033   4.930  0.1969 -0.0437  0.4067
95510W        W38427  11.229  27.596   7.938 -0.2823 -0.2492 -0.3308
95511W        W38428  13.646  26.240   4.557  0.0977 -0.5409 -0.1275
95512W        W38429  12.030  29.916   1.733 -0.0650 -0.2115 -0.3396
95513W        W38430  13.355  27.700   4.143 -0.1292  0.1370  0.1046
95514W        W38431  12.879  25.944   5.505  0.1367  0.0595 -0.1101
95515W        W38432  13.236  28.501   3.751  0.0250 -0.0468 -0.0855
95516W        W38433  13.356  27.033   2.380  0.4892 -0.3549 -0.0722
95517W        W38434   9.847  25.723   7.095  0.2433  0.1446  0.0008
95518W        W38435  11.704  26.780   7.823 -0.0624  0.0155 -0.2633
95519W        W38436  12.466  26.762   6.382  0.3446 -0.2268 -0.1514
95520W        W38437  13.782  25.572   3.724  0.1620  0.0683 -0.2993
95521W        W38438  11.584  29.462   6.724  0.0158 -0.0894  0.0974
95522W        W38439  14.612  28.049   4.492  0.0920  0.0984 -0.0485
95523W        W38440  13.685  26.487   7.086 -0.1656 -0.1422 -0.2264
95524W        W38441  11.666  28.727   5.609 -0.3955 -0.2923 -0.0801
95525W        W38442  12.121  31.011   9.007  0.2024 -0.2244  0.1064
95526W        W38443  10.973  29.092   4.912 -0.2635 -0.0189 -0.3108
95527W        W38444  14.202  27.321   4.066  0.3605 -0.2892 -0.1842
95528W        W38445  12.463  28.552   6.878 -0.1487  0.2024 -0.0108
95529W        W38446  11.584  28.424   7.444 -0.0454  0.1948 -0.0712
95530W        W38447  12.713  28.106   7.504 -0.1269  0.5615 -0.0865
95531W        W38448  12.438  29.443   6.254  0.1900  0.0486 -0.2668
95532W        W38449  12.591  27.537   8.738 -0.5298 -0.1755  0.2788
95533W        W38450  12.290  28.995   6.047 -0.0952 -0.1750 -0.2194
95534W        W38451  12.412  29.451   4.451 -0.2027 -0.1988 -0.0786
95535W        W38452  13.519  29.417   4.581  0.1190  0.0947  0.2017
95536W        W38453  12.094  29.020   5.546  0.4345 -0.3619  0.0814
95537W        W38454  12.912  27.162   5.488  0.3275 -0.1153  0.3279
95538W        W38455   9.708  26.723   7.476 -0.4798 -0.2980  0.1546
95539W        W38456  15.024  25.720   6.646  0.0477  0.1107 -0.0336
95540W        W38457   9.614  29.361   5.362 -0.3688 -0.0756  0.2809
95541W        W38458  14.081  28.536   2.113 -0.0832 -0.0715 -0.0072
95542W        W38459  12.070  27.669   1.150  0.3821 -0.0084 -0.3863
95543W        W38460  14.595  27.621   4.185 -0.1232  0.1306 -0.0631
95544W        W38461  12.465  24.846   3.717  0.0550  0.0555 -0.3731
95545W        W38462  10.169  28.171   5.456  0.0173  0.3272 -0.1214
95546W        W38463   9.597  25.434   5.237 -0.0475  0.1936 -0.2503
95547W        W38464  15.670  26.190   6.068 -0.0342  0.1460  0.2005
95548W        W38465  12.553  28.848   4.320 -0.1907 -0.0280 -0.1134
95549W        W38466  14.584  27.190   3.827 -0.2300  0.0614 -0.0873
95550W        W38467  11.402  28.875   5.974 -0.3362  0.0521 -0.1415
95551W        W38468  10.047  27.118   6.878 -0.1450  0.0860 -0.0804
95552W        W38469  15.136  29.835   4.097  0.0109  0.3723  0.0883
95553W        W38470  13.216  29.857   8.243  0.0035 -0.2927 -0.3496
95554W        W38471  14.579  29.174   4.525  0.1938  0.0772  0.0193
95555W        W38472  11.579  26.826   6.044 -0.1149 -0.0660 -0.1537
95556W        W38473  10.275  29.526   7.685  0.2464 -0.1344  0.2690
95557W        W38474  11.258  26.454   8.098 -0.1200  0.1277  0.2815
95558W        W38475  11.334  26.456   3.426  0.2985  0.2279 -0.4674
95559W        W38476  13.529  28.222   6.445 -0.1954  0.0330  0.1900
95560W        W38477  10.248  29.009   8.318  0.1342 -0.0257 -0.0953
95561W        W38478  14.910  27.578   5.275  0.1956  0.0721  0.2357
95562W        W38479  12.235  27.814   5.753  0.1123  0.0146  0.2286
95563W        W38480  14.366  27.691   5.254 -0.2158  0.2984 -0.0278
95564W        W38481  14.176  28.568   2.566 -0.0316  0.0004  0.0150
95565W        W38482  13.552  25.617   6.571 -0.2640  0.1269 -0.0632
95566W        W38483  11.774  25.995   5.595  0.1997 -0.2013  0.3541
95567W        W38484  10.568  29.117   3.550  0.1478 -0.1634  0.0369
95568W        W38485  13.284  28.271   4.209 -0.0838 -0.0303 -0.0666
95569W        W38486  12.268  29.938   6.452 -0.0271 -0.0385  0.3203
95570W        W38487  15.893  28.615   1.595  0.1659  0.0206 -0.2611
95571W        W38488  12.278  29.016   7.056  0.0137  0.4206  0.3505
95572W        W38489  12.552  27.181   8.285  0.2741  0.1256  0.3029
95573W        W38490  11.597  28.048   7.099  0.3131  0.2207  0.1558
95574W        W38491  10.471  28.910   4.806 -0.1676  0.0619 -0.2727
95575W        W38492  11.086  27.433   5.566 -0.1441  0.1140  0.0458
95576W        W38493  10.753  28.575   5.031 -0.0917  0.0560 -0.1301
95577W        W38494   9.729  26.269   6.548  0.2455  0.0507 -0.0260
95578W        W38495  12.458  29.022   6.585 -0.1460  0.0450  0.1027
95579W        W38496  14.660  26.527   4.392  0.1177 -0.2137 -0.0039
95580W        W38497  12.860  24.872   7.285  0.2803 -0.0479 -0.2443
95581W        W38498  13.201  25.102   5.106 -0.0902 -0.2578  0.0671
95582W        W38499  13.457  28.320   2.938 -0.2389 -0.0809 -0.1453
95583W        W38500  14.220  30.238   5.196 -0.0445  0.0724  0.0342
95584W        W38501  13.122  29.356   3.732 -0.3129 -0.0452 -0.0506
95585W        W38502  13.680  29.872   3.977  0.0803 -0.0044  0.5003
95586W        W38503  10.330  26.694   6.867 -0.0074 -0.0941 -0.2011
95587W        W38504   9.455  26.679   6.617 -0.1673 -0.0396 -0.0991
95588W        W38505  12.687  26.912   5.919 -0.3125  0.1796  0.0674
95589W        W38506  11.902  26.086   7.463 -0.2117 -0.1508 -0.2523
95590W        W38507  13.166  25.496   4.655 -0.1331  0.0580 -0.4126
95591W        W38508  12.153  26.739   5.070  0.1264 -0.0194  0.0679
95592W        W38509  15.336  27.506   3.915 -0.2177 -0.2252 -0.1108
95593W        W38510  12.339  27.071   4.674  0.1922 -0.0860  0.0091
95594W        W38511  12.958  28.648   6.666 -0.1060 -0.0786  0.0569
95595W        W38512  12.763  26.363   6.599 -0.0204  0.0139  0.2288
95596W        W38513  13.976  29.675   5.855  0.0611 -0.0793  0.2320
95597W        W38514  12.385  27.748   7.733 -0.0813  0.2363  0.2510
95598W        W38515  15.584  29.185   2.360  0.1302  0.0368  0.0258
95599W        W38516  10.976  26.586   7.721  0.4617 -0.0198  0.0349
95600W        W38517  12.230  27.406   2.650  0.0373 -0.0223  0.4410
95601W        W38518  12.661  30.617   6.863 -0.0535  0.1599 -0.0960
95602W        W38519  14.854  28.508   3.675 -0.0200 -0.1551 -0.1548
95603W        W38520  12.884  27.914   4.308  0.2078 -0.1219 -0.1759
95604W        W38521  13.681  30.440   7.149  0.0827 -0.4456 -0.1704
95605W        W38522  11.571  28.996   7.519 -0.0874 -0.1971 -0.1338
95606W        W38523  12.928  27.623   8.350  0.3561  0.1387 -0.0356
95607W        W38524  13.774  26.075   5.860 -0.1863  0.1613  0.0057
95608W        W38525  15.110  25.159   6.486 -0.1821  0.0429  0.0817
95609W        W38526  12.883  24.851   3.998 -0.2978 -0.3199 -0.1086
95610W        W38527  14.169  26.378   4.426  0.2658  0.1575 -0.0458
95611W        W38528  13.618  30.922   6.924 -0.0339  0.0311  0.1071
95612W        W38529  11.744  29.715   3.980 -0.2185  0.3554 -0.0995
95613W        W38530  10.165  27.485   5.978 -0.1930 -0.3282 -0.1671
95614W        W38531  12.787  29.092   5.777  0.2876  0.1127 -0.0961
95615W        W38532  13.455  27.072   3.606  0.2285  0.1585  0.2144
95616W        W38533  11.018  26.851   8.973  0.0512 -0.0360 -0.2555
95617W        W38534  12.132  25.520   6.284  0.1649  0.0738  0.0602
95618W        W38535  10.981  27.700   5.974 -0.0315  0.2081 -0.1544
95619W        W38536  10.972  28.099   9.027 -0.2160  0.2937 -0.3328
95620W        W38537  13.228  26.871   5.738  0.0614 -0.2817  0.0296
95621W        W38538  15.843  27.379   4.008 -0.1429 -0.0754  0.1569
95622W        W38539  11.244  28.077   7.835  0.1159 -0.3392 -0.1846
95623W        W38540  13.863  28.572   6.228 -0.0477 -0.0454 -0.2079
95624W        W38541  13.404  26.379   2.901  0.1854 -0.2177 -0.1296
95625W        W38542  13.349  25.412   1.447 -0.1078  0.3449 -0.3591
95626W        W38543  10.886  28.453   8.144  0.2116 -0.0018  0.1467
95627W        W38544  14.131  29.705   3.778 -0.1896  0.1452 -0.4505
95628W        W38545  12.014  27.352   5.734 -0.3145  0.0725 -0.0618
95629W        W38546  14.618  27.896   3.055  0.0203 -0.0278  0.4984
95630W        W38547  16.961  27.660   5.098 -0.0368  0.0959 -0.1535
95631W        W38548  10.506  27.661   8.439  0.0973  0.3915 -0.0536
95632W        W38549  13.367  28.648   6.366  0.3021  0.1494  0.0494
95633W        W38550  14.237  30.002   7.224 -0.2881 -0.1087 -0.1279
95634W        W38551  12.040  26.303   4.876 -0.3440 -0.2268  0.0801
95635W        W38552  12.194  27.855   1.636  0.0574 -0.3091 -0.0929
95636W        W38553  12.468  24.298   6.927 -0.0632 -0.0968  0.1418
95637W        W38554  13.067  28.391   1.954 -0.0101  0.1398  0.0474
95638W        W38555  12.582  25.023   6.296 -0.3189 -0.1368 -0.0997
95639W        W38556  11.251  27.228   6.128  0.0832  0.4920  0.0450
95640W        W38557  12.098  25.900   6.620  0.1873 -0.1703 -0.1818
95641W        W38558  12.433  26.637   7.369  0.0637 -0.0950 -0.2432
95642W        W38559  13.689  28.215   5.323 -0.2647 -0.1983 -0.1838
95643W        W38560  13.698  26.047   6.795  0.0343 -0.3892 -0.4444
95644W        W38561  12.135  26.549   3.019  0.1246  0.1254  0.1747
95645W        W38562  12.646  27.249   6.235  0.0405 -0.0802 -0.2741
95646W        W38563  11.069  27.299   6.963  0.0045  0.3084 -0.1451
95647W        W38564  11.008  29.350   7.175 -0.1905 -0.1913  0.0807
95648W        W38565  13.787  28.038   8.097  0.1491 -0.0056  0.3356
95649W        W38566  14.933  26.853   2.866 -0.2403 -0.0813 -0.1550
95650W        W38567  13.167  24.561   7.566  0.2064 -0.1548  0.0572
95651W        W38568  12.697  27.336   5.017  0.1699 -0.1220 -0.0793
95652W        W38569  13.031  28.750   5.038  0.4482 -0.1797 -0.0843
95653W        W38570  12.714  28.394   4.201  0.3944 -0.0871 -0.0213
95654W        W38571  12.881  25.063   4.634  0.1394 -0.1041  0.0980
95655W        W38572  12.991  28.193   6.429 -0.1171 -0.1064 -0.0647
95656W        W38573  12.504  28.512   6.344  0.0634 -0.2882  0.1777
95657W        W38574  12.778  26.907   6.790  0.3919  0.0901  0.0383
95658W        W38575  10.974  28.628   5.762 -0.0353  0.0330 -0.1236
95659W        W38576  14.107  26.289   4.894 -0.0635 -0.2511 -0.1520
95660W        W38577  10.120  28.529   8.924 -0.0978 -0.0621 -0.1228
95661W        W38578  12.222  26.315   3.986 -0.0369  0.0921 -0.1111
95662W        W38579  10.908  28.180   5.922  0.0545 -0.2083 -0.0838
95663W        W38580  11.831  27.211   4.567 -0.2722  0.2056 -0.4409
95664W        W38581  15.008  28.832   5.374 -0.2618  0.0265  0.1847
95665W        W38582   9.000  26.308   5.942 -0.0205 -0.2014  0.1667
95666W        W38583  12.308  25.434   7.001  0.0981  0.0777  0.1462
95667W        W38584  10.260  31.726   8.075 -0.0187 -0.0367 -0.2559
95668W        W38585  12.304  26.013   5.364 -0.4386 -0.1807  0.0414
95669W        W38586  14.747  27.343   2.581 -0.0782 -0.0906  0.0286
95670W        W38587  12.896  28.411   7.152  0.0004 -0.1514  0.0603
95671W        W38588  15.476  28.648   5.271  0.4033  0.1579 -0.0356
95672W        W38589  12.530  28.805   3.829 -0.2278  0.1865 -0.1139
95673W        W38590  12.252  25.910   6.019 -0.4003  0.0386  0.0651
95674W        W38591  11.239  26.867   7.380 -0.1858 -0.0386  0.0604
95675W        W38592  10.424  27.845   7.415  0.1621  0.0999  0.1313
95676W        W38593  14.931  28.836   4.403  0.0321 -0.0280  0.1311
95677W        W38594  12.605  27.078   3.636 -0.0222 -0.0928 -0.4164
95678W        W38595  13.124  29.281   4.909 -0.2181 -0.1036  0.0531
95679W        W38596  11.268  26.814   9.867 -0.0173 -0.1506  0.3926
95680W        W38597  13.949  27.077   6.702 -0.0614  0.1461  0.1117
95681W        W38598  13.095  26.585   7.047  0.0790 -0.0714  0.0193
95682W        W38599  12.525  26.919   4.243  0.2708 -0.0875 -0.1121
95683W        W38600  13.321  27.882   6.685  0.0684 -0.0460  0.0008
95684W        W38601  13.605  27.950   3.835 -0.0964  0.2911  0.2153
95685W        W38602  14.572  26.070   4.475 -0.2695 -0.1184 -0.6060
95686W        W38603  12.863  29.685   4.606  0.0956 -0.0470 -0.0788
95687W        W38604  11.232  27.062   7.955  0.1130  0.1042  0.1732
95688W        W38605  16.182  28.740   4.589 -0.2706  0.2669  0.1867
95689W        W38606  12.910  26.972   7.332 -0.0436  0.0665  0.1087
95690W        W38607  12.532  27.385   5.750 -0.0422  0.1899  0.2203
95691W        W38608  11.815  27.925   6.166  0.3580  0.2066  0.0241
95692W        W38609  13.960  29.654   4.728  0.2059  0.0224 -0.2077
95693W        W38610  12.500  26.532   5.636  0.1465 -0.1520  0.4006
95694W        W38611  12.586  29.100   8.557 -0.1975 -0.2491 -0.2344
95695W        W38612  12.353  26.657   3.542  0.0083  0.0362 -0.0063
95696W        W38613  11.499  27.535   7.051  0.3081  0.2683  0.1306
95697W        W38614  13.447  28.989   3.788  0.0083 -0.0580 -0.1569
95698W        W38615  13.391  29.932   4.422 -0.0429 -0.1626  0.3205
95699W        W38616  12.485  27.380   6.729  0.0515 -0.1586 -0.4257
95700W        W38617  13.809  24.649   5.747 -0.2166 -0.2667 -0.1260
95701W        W38618  15.444  27.035   1.019 -0.1268  0.0970  0.3628
95702W        W38619  13.534  24.288   7.187  0.2524 -0.0988 -0.2238
95703W        W38620  11.951  24.593   6.956  0.4312 -0.5285 -0.0069
95704W        W38621  13.629  29.446   3.662 -0.1722  0.2829  0.2484
95705W        W38622  10.156  26.741   7.795  0.1399 -0.0691 -0.3766
95706W        W38623  12.009  27.991   7.510  0.1936 -0.0365 -0.2184
95707W        W38624  11.212  27.300   8.842  0.0576  0.0976 -0.1092
95708W        W38625  12.862  25.908   6.296 -0.0854  0.3280  0.1792
95709W        W38626  13.667  26.823   3.027  0.0079 -0.2287  0.2606
95710W        W38627  11.700  27.134   7.383  0.1051 -0.1532  0.0867
95711W        W38628  14.555  28.451   5.230 -0.1663 -0.0258 -0.0577
95712W        W38629  13.423  27.770   5.289 -0.0774  0.2609  0.1069
95713W        W38630  14.135  27.316   6.268  0.0196 -0.0270 -0.0962
95714W        W38631  11.409  26.561   6.534  0.3493 -0.2239  0.1095
95715W        W38632  13.666  27.062   5.208  0.0300  0.0912  0.3458
95716W        W38633  13.359  28.143   3.394 -0.1714  0.0668  0.0856
95717W        W38634  11.715  27.473   6.171 -0.1822 -0.1493  0.0420
95718W        W38635  11.686  25.456   7.951  0.4563 -0.0809 -0.1647
95719W        W38636  14.090  30.756   5.474  0.4593 -0.1067  0.1902
95720W        W38637  13.406  25.044   4.640 -0.2732 -0.1339 -0.1049
95721W        W38638  15.298  25.952   6.279 -0.3277 -0.1748  0.1439
95722W        W38639  12.369  25.910   7.201 -0.1589  0.5062 -0.1384
95723W        W38640  12.234  27.286   7.818  0.2541  0.0781 -0.1247
95724W        W38641  11.086  26.965   8.441  0.1228 -0.0195  0.1516
95725W        W38642  12.398  28.096   6.142 -0.0153 -0.1721 -0.1817
95726W        W38643  13.845  24.701   3.308 -0.1342  0.3603 -0.0552
95727W        W38644  14.560  24.755   4.902  0.2517 -0.3064  0.0486
95728W        W38645  13.535  28.541   2.086 -0.3646 -0.2593  0.4029
95729W        W38646  13.877  28.620   2.996  0.0350 -0.0943 -0.2916
95730W        W38647  10.949  25.685   5.419 -0.0805  0.0719  0.1736
95731W        W38648  13.695  27.525   6.834 -0.2469 -0.3615 -0.0268
95732W        W38649  13.108  26.649   3.482 -0.1095  0.0214 -0.2120
95733W        W38650  13.115  25.740   5.925  0.1047 -0.0980  0.0508
95734W        W38651  12.785  30.090   3.291  0.0513 -0.0780 -0.1637
95735W        W38652  11.754  26.304   6.982 -0.0553 -0.1370 -0.1585
95736W        W38653  13.408  27.342   5.618 -0.0775 -0.2776  0.0792
95737W        W38654  11.254  26.448   5.731 -0.0622  0.0599  0.0314
95738W        W38655  11.034  28.337   8.645 -0.1131  0.0805 -0.0430
95739W        W38656  12.217  27.754   6.888  0.0601 -0.1707 -0.0736
95740W        W38657  12.954  27.790   5.921  0.2030  0.0944 -0.0347
95741W        W38658  13.243  28.172   7.499  0.1935 -0.2336 -0.2666
95742W        W38659  15.106  28.198   6.496 -0.0540  0.0191  0.3540
95743W        W38660  13.349  25.721   3.507  0.1104  0.2348  0.2441
95744W        W38661  14.419  26.129   5.428  0.0817  0.2953  0.0386
95745W        W38662  10.420  27.938   5.123  0.1323  0.2404  0.0921
95746W        W38663  14.287  26.955   5.740 -0.0599 -0.2364  0.1710
95747W        W38664  12.141  29.108   4.004 -0.0624  0.1759 -0.0706
95748W        W38665  11.785  27.958   9.022  0.3636  0.2796  0.1482
95749W        W38666  12.217  29.480   6.822 -0.0662 -0.1623  0.0063
95750W        W38667  11.339  27.914   8.305  0.2182 -0.0132  0.2950
95751W        W38668  13.894  28.267   3.391  0.0298  0.2825  0.0918
95752W        W38669  11.897  26.678   7.341 -0.2881 -0.1082 -0.3914
95753W        W38670  17.174  27.234   6.244  0.0419  0.1701 -0.0199
95754W        W38671  11.503  28.898   6.452  0.2044 -0.0411  0.1093
95755W        W38672  12.241  26.886   6.884  0.0870 -0.0706  0.5594
95756W        W38673  13.956  28.354   8.414  0.2922 -0.1011 -0.2005
95757W        W38674  13.233  27.372   5.095 -0.1369  0.2363  0.1690
95758W        W38675  13.175  28.157   5.510  0.2404  0.0040  0.1201
95759W        W38676  10.814  26.243   7.988  0.2387 -0.1604  0.1107
95760W        W38677  14.530  28.232   7.116  0.0228  0.4920 -0.0095
95761W        W38678  13.696  28.135   4.396  0.1531 -0.1101  0.1965
95762W        W38679  12.081  28.524   4.579  0.0953 -0.0818 -0.3032
95763W        W38680  13.722  30.082   6.757 -0.1340 -0.0164 -0.2959
95764W        W38681  12.707  28.267   9.828 -0.5572  0.1072 -0.1681
95765W        W38682  10.587  28.685   8.559  0.2975 -0.2175  0.1934
95766W        W38683  11.398  28.248   5.995 -0.1134  0.1724  0.0649
95767W        W38684  14.049  27.882   3.745  0.1548 -0.1506 -0.2504
95768W        W38685  13.858  28.629   4.482 -0.1318  0.0329  0.4348
95769W        W38686  12.627  29.193   4.787 -0.2729 -0.0109 -0.1588
95770W        W38687  13.700  27.532   4.499 -0.2686  0.0412  0.0801
95771W        W38688  11.525  30.029   7.381  0.3290 -0.4770  0.3247
95772W        W38689  12.339  28.672   3.404 -0.1150 -0.4569  0.0433
95773W        W38690  13.620  31.324   4.653  0.2602  0.1069 -0.0699
95774W        W38691  12.918  29.394   6.294  0.0381 -0.0817  0.1747
95775W        W38692  14.958  28.489   6.166 -0.2331  0.0764  0.1253
95776W        W38693  13.448  26.944   4.719 -0.0060  0.0485 -0.4440
95777W        W38694  15.912  27.795   4.738 -0.3192  0.0618 -0.0787
95778W        W38695  12.822  27.535   3.917 -0.0817 -0.2120  0.5034
95779W        W38696  12.945  26.291   9.712  0.1902 -0.0666  0.0645
95780W        W38697  12.602  28.021   6.647 -0.2533  0.0073  0.0283
95781W        W38698  14.674  28.438   5.705 -0.1416 -0.0850 -0.4583
95782W        W38699  11.541  26.825   6.946 -0.1448 -0.0951 -0.0436
95783W        W38700  14.879  26.944   5.760  0.0765 -0.2079 -0.2823
95784W        W38701   8.692  29.713   7.769  0.0924 -0.0721 -0.2011
95785W        W38702  14.964  30.890   5.833  0.0337 -0.0799 -0.1464
95786W        W38703  11.590  27.227   6.583  0.2178 -0.0380  0.2666
95787W        W38704  12.999  27.654   5.448  0.3479 -0.2225  0.0785
95788W        W38705  14.279  26.630   5.291 -0.1472  0.2161  0.2024
95789W        W38706  13.208  28.240   5.040 -0.4482 -0.2765  0.1302
95790W        W38707  11.919  25.761   7.074  0.0698  0.1871  0.0927
95791W        W38708  12.886  28.824   6.166 -0.0910  0.0369  0.2674
95792W        W38709  10.841  28.108   6.533  0.1025 -0.1094  0.0622
95793W        W38710  14.781  29.380   5.940  0.1435 -0.1175  0.3610
95794W        W38711  11.255  27.091   5.108  0.0231  0.0321  0.0405
95795W        W38712  15.319  27.946   3.619 -0.2140 -0.0513  0.0787
95796W        W38713  12.084  26.782   8.146 -0.1604  0.2946 -0.0399
95797W        W38714  16.885  24.880   6.289  0.0678 -0.3757 -0.3706
95798W        W38715  12.179  29.002   4.638 -0.1311  0.0363 -0.1379
95799W        W38716  14.835  27.873   2.534 -0.1828  0.4055  0.1609
95800W        W38717  13.391  28.359   5.946 -0.2630 -0.1802 -0.0318
95801W        W38718  12.074  26.377   5.996  0.0740  0.3992  0.0332
95802W        W38719  15.030  27.837   4.306  0.0193  0.3700  0.2430
95803W        W38720  14.901  26.704   6.329  0.0037  0.1986  0.1104
95804W        W38721  13.451  28.426   4.660 -0.0313 -0.0087  0.0752
95805W        W38722  12.671  28.078   5.627 -0.1576  0.2708  0.0213
95806W        W38723  11.102  26.601   6.161 -0.0430 -0.0720  0.4877
95807W        W38724  12.186  29.269   3.012 -0.0211 -0.2354  0.1155
95808W        W38725  11.005  27.885   5.451  0.2575  0.0107 -0.1130
95809W        W38726  13.311  28.308   6.988  0.1350  0.2936  0.3091
95810W        W38727  13.013  28.125   8.433 -0.2755 -0.1752  0.2357
95811W        W38728  12.380  25.203   4.090 -0.0612  0.0151 -0.1760
95812W        W38729  15.142  29.122   2.695 -0.2660  0.0644  0.0435
95813W        W38730  13.380  27.511   6.313 -0.0312  0.1523 -0.0793
95814W        W38731  13.003  28.924   4.003  0.1451  0.0737  0.3351
95815W        W38732  13.421  26.603   3.888  0.1929  0.0005 -0.0811
95816W        W38733  14.275  28.987   6.668 -0.0780 -0.1745 -0.0223
95817W        W38734  12.170  26.865   5.978  0.1494 -0.1069 -0.0445
95818W        W38735  14.280  28.251   4.013  0.0669  0.2697 -0.1623
95819W        W38736  14.507  28.248   6.149 -0.2464  0.0459  0.0307
95820W        W38737  13.808  28.564   4.999 -0.1717 -0.2106  0.2679
95821W        W38738  12.932  27.619   6.481  0.0818  0.0955 -0.1964
95822W        W38739   9.832  28.903   5.955  0.2049 -0.2274 -0.1066
95823W        W38740  13.351  26.209   5.143 -0.3477  0.0694 -0.0291
95824W        W38741  15.881  26.280   5.619  0.0854  0.1526 -0.1806
95825W        W38742  13.183  28.859   2.914 -0.1487  0.0363 -0.0267
95826W        W38743  13.358  23.974   4.890 -0.0811 -0.3837  0.0954
95827W        W38744  11.320  27.676   6.331  0.0708  0.0696 -0.1317
95828W        W38745  11.731  28.222   7.942  0.3457  0.0072 -0.0478
95829W        W38746  13.267  27.796   4.763  0.3167 -0.5372 -0.2806
95830W        W38747  13.404  28.085   8.902 -0.0241  0.1908 -0.1612
95831W        W38748  14.679  27.939   5.540  0.1826  0.0409 -0.0992
95832W        W38749  14.260  28.817   4.171 -0.4402  0.1662  0.0133
95833W        W38750  13.508  28.326   9.338  0.0025  0.1513 -0.0600
95834W        W38751  12.073  26.425   7.758 -0.2322 -0.2768 -0.1990
95835W        W38752  13.646  29.423   5.097 -0.0623  0.3022 -0.2022
95836W        W38753  12.368  27.007   5.453 -0.0374  0.0112 -0.0643
95837W        W38754  15.147  25.830   2.882  0.0639  0.0295  0.0702
95838W        W38755  14.130  27.221   3.571  0.0350 -0.1723  0.2277
95839W        W38756  12.032  27.514   7.344 -0.1506 -0.1144 -0.0556
95840W        W38757  11.483  27.805   2.897  0.0592  0.3540  0.0493
95841W        W38758  10.834  28.322   4.024 -0.0208  0.1697  0.1254
95842W        W38759  10.436  26.394   5.949 -0.1121 -0.4148  0.2812
95843W        W38760  13.619  25.816   8.493  0.1907  0.0135 -0.0242
95844W        W38761  11.453  25.942   7.264 -0.1723 -0.3874  0.2121
95845W        W38762  11.473  27.681   5.778 -0.3495 -0.2690 -0.3445
95846W        W38763   9.784  27.119   6.226  0.1451  0.0683 -0.3289
95847W        W38764  15.833  28.903   5.571  0.4733 -0.2401  0.0781
95848W        W38765   9.974  25.285   5.528 -0.2397 -0.0315  0.2838
95849W        W38766  10.373  25.440   6.966 -0.1270  0.1915  0.1543
95850W        W38767  14.392  30.073   5.664 -0.1525  0.0603  0.0290
95851W        W38768  14.331  28.806   2.990 -0.0182 -0.0465  0.1873
95852W        W38769  13.540  26.206   3.465 -0.3667  0.0058  0.0914
95853W        W38770  15.939  28.596   7.363 -0.1008  0.1025 -0.1002
95854W        W38771  10.686  28.963   5.338 -0.0500  0.1105 -0.1882
95855W        W38772  12.701  27.041   7.789  0.2829 -0.1559  0.0345
95856W        W38773  13.816  26.297   6.333 -0.0189 -0.0005 -0.3275
95857W        W38774  12.099  27.258   3.616 -0.1237  0.0308  0.1490
95858W        W38775  11.114  25.366   5.863 -0.4603  0.0238 -0.0469
95859W        W38776  14.249  28.814   4.931  0.3234 -0.1214  0.0051
95860W        W38777  14.916  28.224   2.201  0.2662 -0.0640 -0.1292
95861W        W38778  14.002  27.766   4.217  0.1001 -0.2841 -0.0222
95862W        W38779  12.734  28.577   8.242  0.1440 -0.0976  0.2436
95863W        W38780  11.053  26.961   6.511 -0.1969 -0.1079  0.0431
95864W        W38781  13.968  29.532   2.606 -0.1624  0.0740 -0.1666
95865W        W38782  11.111  29.065   7.714 -0.0025 -0.1397  0.0712
95866W        W38783  15.239  28.779   3.987  0.3913  0.0568 -0.0719
95867W        W38784  16.474  26.248   4.865 -0.1564  0.1533 -0.1191
95868W        W38785  12.495  27.954   3.995  0.0937 -0.0981 -0.1931
95869W        W38786  10.649  26.709   6.352  0.1764  0.1027 -0.1546
95870W        W38787  11.017  28.460   6.866  0.3459  0.2848  0.1561
95871W        W38788  13.476  27.841   7.189 -0.0723  0.0804  0.0350
95872W        W38789  13.164  26.774   4.309 -0.2398 -0.1154  0.0009
95873W        W38790  14.374  26.721   4.760 -0.1315  0.3075 -0.4105
95874W        W38791  12.496  28.771   5.318  0.1903  0.0702 -0.1057
95875W        W38792  11.240  26.423   7.055  0.2973 -0.0052  0.1933
95876W        W38793  14.272  27.718   4.723  0.0321  0.2361 -0.1214
95877W        W38794  14.187  25.717   4.978 -0.4039  0.0039 -0.1227
95878W        W38795  14.044  28.608   5.468 -0.1876  0.1178  0.4202
95879W        W38796  13.046  27.296   5.927  0.0667  0.0120 -0.1615
95880W        W38797  14.597  27.232   4.997  0.4922 -0.0275 -0.0251
95881W        W38798  13.575  27.305   2.840  0.1148 -0.1617  0.0142
95882W        W38799  13.127  29.261   7.308 -0.0061 -0.0973 -0.1324
95883W        W38800  14.128  28.722   7.969  0.1167 -0.3438 -0.0972
95884W        W38801  12.934  30.267   9.502 -0.0309  0.1739  0.2469
95885W        W38802  13.681  27.442   3.341  0.1815 -0.1178  0.0296
95886W        W38803   9.708  25.959   6.161 -0.0804 -0.1930 -0.0615
95887W        W38804  13.139  27.408   4.477 -0.1956 -0.0591  0.0054
95888W        W38805  12.900  28.257   4.694  0.2531  0.1379  0.1236
95889W        W38806  14.857  27.524   5.744  0.1735 -0.1700  0.0110
95890W        W38807  12.710  25.462   4.376  0.3230 -0.1823  0.2762
95891W        W38808  15.338  25.746   2.326 -0.1949  0.2031 -0.1302
95892W        W38809  11.207  31.431   6.353  0.2738 -0.0749 -0.0271
95893W        W38810  11.926  26.799   6.484 -0.2546 -0.2199  0.1414
95894W        W38811  14.467  27.244   9.437  0.3578  0.1851 -0.1036
95895W        W38812  12.600  28.061   9.237 -0.1087  0.0284  0.0313
95896W        W38813  13.653  26.318   7.736 -0.1789  0.0279  0.3225
95897W        W38814  16.192  26.149   7.085  0.0313  0.1895  0.3656
95898W        W38815  13.136  25.446   9.232  0.2891 -0.0212  0.0806
95899W        W38816  13.907  27.603   5.476 -0.0301 -0.2267 -0.1485
95900W        W38817  13.270  27.453  10.072  0.1794  0.3846  0.3946
95901W        W38818  15.673  27.858   7.921 -0.1227  0.1603  0.3375
95902W        W38819  13.475  25.464   5.591 -0.0192 -0.1462  0.4733
95903W        W38820  13.179  25.140   8.845 -0.1083 -0.1911  0.1974
95904W        W38821  13.333  25.623   7.177 -0.0994  0.0132 -0.1678
95905W        W38822  11.695  25.395   9.412 -0.0943 -0.1494  0.2222
95906W        W38823  13.990  25.696   9.184  0.0104  0.1151 -0.1523
95907W        W38824  12.037  28.218  10.827  0.0228  0.3743  0.0747
95908W        W38825  14.569  25.421   7.698 -0.0615  0.1243  0.1360
95909W        W38826  12.494  26.135   8.144  0.3292  0.0381  0.2440
95910W        W38827  14.199  27.382  10.741 -0.0790  0.0108 -0.2303
95911W        W38828  14.877  22.983   8.486 -0.0456 -0.0531 -0.1611
95912W        W38829  13.844  28.384   8.894  0.3963  0.0316  0.1232
95913W        W38830  10.881  26.877   9.464  0.0120 -0.0557  0.0269
95914W        W38831  12.473  26.675  10.987  0.0196 -0.0821 -0.4994
95915W        W38832  13.495  26.412   8.279 -0.1092  0.0607 -0.5133
95916W        W38833  15.028  28.151  10.250  0.3692  0.0346  0.3174
95917W        W38834  14.655  25.955   8.981  0.0718 -0.0134 -0.0630
95918W        W38835  11.763  28.740   8.707 -0.0005  0.1379  0.0285
95919W        W38836  13.886  28.510   9.610  0.4390  0.1483  0.1091
95920W        W38837  12.059  28.789  10.281  0.0826  0.0033 -0.2672
95921W        W38838  12.460  29.989   9.536 -0.0866  0.1522  0.1031
95922W        W38839  12.356  28.348   7.739 -0.1189  0.1527 -0.2550
95923W        W38840  14.608  27.739   7.037 -0.1051 -0.1716 -0.3032
95924W        W38841  11.558  30.090   8.814 -0.2378  0.0031 -0.0391
95925W        W38842  13.439  27.767   8.452  0.0649  0.0317 -0.3691
95926W        W38843  16.301  28.552   8.819 -0.0154  0.2636  0.1824
95927W        W38844   9.994  28.707   7.905  0.1963 -0.2314 -0.2328
95928W        W38845  14.477  29.387  11.023 -0.2060  0.2684  0.0226
95929W        W38846  13.052  28.785   9.351  0.0582 -0.2238  0.1357
95930W        W38847  12.347  29.340   8.126  0.3279  0.0853 -0.3323
95931W        W38848  13.805  27.578   5.951  0.0383 -0.1082  0.1576
95932W        W38849  13.020  26.663   7.733  0.0314 -0.4812 -0.0270
95933W        W38850  15.320  26.604   6.782 -0.0153  0.2089  0.0710
95934W        W38851  13.549  24.743   6.918  0.3040  0.0853  0.1995
95935W        W38852  12.335  29.154  10.493  0.1889  0.0189  0.0747
95936W        W38853  12.672  25.721   9.780 -0.1344  0.1214  0.1402
95937W        W38854  13.372  25.988   6.309  0.2125 -0.0937 -0.0986
95938W        W38855  14.827  27.679   9.454 -0.1999  0.0541  0.0050
95939W        W38856  14.274  26.998   9.863 -0.1057 -0.0032  0.0165
95940W        W38857  12.256  27.030   9.382  0.1092 -0.0878 -0.1896
95941W        W38858  15.342  27.663   5.797  0.0114 -0.2130  0.3352
95942W        W38859  14.435  26.975   6.738  0.0388  0.1398 -0.0630
95943W        W38860  13.897  28.046  10.756  0.4977 -0.0960 -0.1025
95944W        W38861  12.232  27.880   8.711 -0.1721 -0.2133  0.0340
95945W        W38862  12.109  25.926   7.911  0.4450 -0.5135  0.3120
95946W        W38863  14.594  26.441   6.649 -0.2955 -0.1401  0.1452
95947W        W38864  12.714  28.048   8.060  0.1171 -0.0896  0.0236
95948W        W38865  14.198  27.834  10.391 -0.2155 -0.3055  0.2114
95949W        W38866  14.434  26.563   7.634 -0.1043 -0.1251 -0.2338
95950W        W38867  11.839  26.398   9.267 -0.2326 -0.0597 -0.0619
95951W        W38868  15.097  25.912   9.525 -0.0601  0.2657  0.1718
95952W        W38869  11.674  28.290   6.489 -0.1253 -0.2950  0.1485
95953W        W38870  12.136  28.545   8.389  0.3503  0.0520  0.1733
95954W        W38871  15.494  28.081   9.659  0.0918  0.1593  0.2828
95955W        W38872  14.779  27.248   7.029  0.2356  0.1068  0.1464
95956W        W38873  13.134  27.889   9.261  0.2816  0.0388  0.1520
95957W        W38874  12.502  31.857   9.265  0.0164  0.4803  0.0751
95958W        W38875  10.532  27.299  10.806  0.1010 -0.0100  0.0745
95959W        W38876  11.210  28.916   8.258  0.1185 -0.0508  0.0346
95960W        W38877  13.251  22.498   9.640  0.0194  0.1031  0.0766
95961W        W38878  12.083  27.389  10.139 -0.1232 -0.0972  0.0126
95962W        W38879  13.833  27.540   7.309 -0.2095 -0.0387  0.2648
95963W        W38880  13.976  26.506   8.092  0.1883 -0.0140  0.2596
95964W        W38881  14.089  26.270   7.399 -0.2017  0.1191 -0.2880
95965W        W38882  13.456  29.282  11.319 -0.3018 -0.0175  0.0577
95966W        W38883  15.139  27.247   6.092 -0.2588  0.1577  0.0457
95967W        W38884  13.727  28.311   7.347 -0.1479  0.1506 -0.0094
95968W        W38885  17.069  28.508   9.222  0.3218  0.0662 -0.0814
95969W        W38886  13.162  23.589   9.196  0.0635 -0.1168  0.0038
95970W        W38887  12.329  27.307  10.886 -0.1337 -0.0879  0.1446
95971W        W38888  11.961  24.580   8.475  0.0689 -0.0875 -0.1505
95972W        W38889  11.986  27.799   9.441  0.2781 -0.0162  0.1922
95973W        W38890  14.342  26.296   8.375  0.0379  0.0293  0.0597
95974W        W38891  13.588  27.704   9.141  0.0714 -0.2258  0.1116
95975W        W38892  11.712  27.712   6.629  0.0695 -0.1092  0.0509
95976W        W38893  15.906  28.450   9.863 -0.2899 -0.0583 -0.2046
95977W        W38894  12.497  26.691   8.452 -0.2876  0.2773  0.0313
95978W        W38895  13.235  22.825   8.356  0.0228 -0.1592 -0.2331
95979W        W38896  12.892  25.963   7.285 -0.0885 -0.0930  0.0085
95980W        W38897  11.299  28.812   9.157 -0.1120 -0.1059  0.2013
95981W        W38898  12.409  26.674   9.079  0.0748  0.1469 -0.2073
95982W        W38899  12.817  27.525   7.857  0.1147  0.1227 -0.1324
95983W        W38900  13.577  27.145   9.160 -0.1223  0.0625  0.2368
95984W        W38901  12.065  26.353  11.037  0.0159 -0.1554  0.0469
95985W        W38902  15.944  28.454   8.528 -0.4659 -0.0421 -0.1943
95986W        W38903  13.365  25.839   7.739  0.3949  0.1010  0.1576
95987W        W38904  10.439  24.813   7.618 -0.0156 -0.0551 -0.0520
95988W        W38905  12.371  27.906  10.003 -0.0498 -0.0040  0.4108
95989W        W38906  11.258  29.806   9.160  0.2689 -0.1115 -0.2029
95990W        W38907  11.861  26.886  10.105  0.1944 -0.0982  0.2568
95991W        W38908  13.208  26.976  10.167 -0.0229 -0.2359  0.0549
95992W        W38909  14.997  26.982   8.708 -0.2088  0.1627  0.0498
95993W        W38910  10.736  27.254   9.146 -0.1085 -0.1547  0.0651
95994W        W38911  14.329  26.152   7.898  0.0981 -0.0100 -0.3602
95995W        W38912  14.162  28.251   6.461  0.3596 -0.0270 -0.0162
95996W        W38913  13.705  26.050   9.045  0.2076 -0.0540  0.2913
95997W        W38914  11.982  27.224   8.289 -0.0729  0.0344 -0.1024
95998W        W38915  14.943  25.825   7.114  0.3784 -0.3759 -0.0933
95999W        W38916  14.140  27.983   8.854  0.3002  0.1636 -0.0640
96000W        W38917  12.987  25.888  10.250 -0.0014  0.0161  0.3128
96001W        W38918  11.568  25.487   7.260  0.0316  0.2356  0.3952
96002W        W38919  15.166  27.985   7.602  0.0984 -0.0056 -0.2772
96003W        W38920  14.261  26.116   9.281 -0.0690  0.1730  0.1000
96004W        W38921  13.924  28.846   8.693  0.2384  0.1189  0.1606
96005W        W38922  10.934  25.920   9.279  0.2282 -0.0670 -0.0720
96006W        W38923  12.942  26.187   7.749 -0.2350  0.0032 -0.1467
96007W        W38924  13.338  25.417   8.157  0.2520  0.1160 -0.1827
96008W        W38925  11.308  28.469   9.894  0.0930  0.1403  0.0392
96009W        W38926  13.631  24.517   9.169 -0.0198 -0.1383 -0.0378
96010W        W38927  14.773  27.285   9.880  0.0094 -0.0069 -0.2091
96011W        W38928  14.003  25.681   7.044  0.2539 -0.2920  0.0369
96012W        W38929  16.204  27.436   9.561  0.0248  0.0222 -0.2353
96013W        W38930  12.062  28.732   7.514  0.2426 -0.2303  0.0457
96014W        W38931  14.289  25.710   8.130  0.0350  0.3311  0.0509
96015W        W38932  11.805  27.697  11.061 -0.1194  0.0818  0.0107
96016W        W38933  13.540  28.755   9.034 -0.4930 -0.2674 -0.1075
96017W        W38934  13.518  25.150   5.948 -0.2535  0.0112 -0.1018
96018W        W38935  11.507  28.487   6.915 -0.0716  0.1870  0.0116
96019W        W38936  11.865  26.949   9.110  0.3415  0.1796  0.0261
96020W        W38937  12.151  28.316   9.026 -0.0150  0.1917  0.3521
96021W        W38938  13.268  26.964   9.681  0.0481 -0.0720  0.1154
96022W        W38939  11.907  26.677   8.653  0.3151  0.0578 -0.0576
96023W        W38940  15.592  27.495   8.208  0.0888  0.2886 -0.2729
96024W        W38941  11.404  27.340   8.352 -0.0947  0.1456  0.1332
96025W        W38942  15.346  26.169   8.351 -0.0890 -0.1075 -0.1274
96026W        W38943  11.003  30.293  11.147  0.1999  0.1974 -0.1823
96027W        W38944  12.434  25.930  10.368  0.0628  0.2851  0.1741
96028W        W38945  11.444  26.554   8.912  0.0313 -0.3092 -0.0100
96029W        W38946  14.794  26.173   7.592 -0.0831  0.0276 -0.0038
96030W        W38947  14.088  28.209  10.017  0.0332  0.0808 -0.0762
96031W        W38948  11.526  26.451  10.182  0.1227 -0.0708  0.1561
96032W        W38949  12.701  26.807   9.900  0.0691  0.0752 -0.1758
96033W        W38950  11.802  30.422  11.250 -0.1329  0.0642  0.0167
96034W        W38951  12.627  25.441   5.996 -0.0214 -0.2650  0.0480
96035W        W38952  11.595  24.632   8.870  0.0631  0.3134  0.0956
96036W        W38953  13.589  24.872   8.810  0.0491  0.0345  0.1678
96037W        W38954  12.485  26.638   7.954 -0.0149  0.3911  0.0006
96038W        W38955  12.759  27.515   9.291  0.0293  0.1077 -0.0522
96039W        W38956  13.718  27.311   8.682 -0.0196 -0.0822  0.1350
96040W        W38957  12.226  27.105   8.714 -0.0827  0.0534  0.2437
96041W        W38958  11.355  27.113   9.378  0.1702 -0.3297  0.0770
96042W        W38959  13.418  26.502   9.144 -0.0762 -0.2488 -0.1360
96043W        W38960  13.978  28.465  10.450 -0.0529 -0.0101  0.0462
96044W        W38961  13.264  25.951   9.335  0.1805 -0.0672 -0.0236
96045W        W38962  14.022  29.009  10.570  0.0042 -0.4874  0.1677
96046W        W38963  13.595  27.856   7.687  0.0162 -0.1148  0.0141
96047W        W38964  14.769  25.424   9.603 -0.2418  0.3372 -0.3189
96048W        W38965  14.083  24.694   9.082  0.0278 -0.1289  0.0476
96049W        W38966  16.009  28.467   6.365 -0.0329 -0.0277 -0.1765
96050W        W38967  11.571  26.862   8.326 -0.1851 -0.1141 -0.0592
96051W        W38968  10.294  26.497   9.987  0.1554 -0.1467 -0.0084
96052W        W38969  13.219  27.941  10.140 -0.0380  0.1866 -0.1515
96053W        W38970  11.422  26.064   9.250  0.0921 -0.0422 -0.0176
96054W        W38971  13.523  28.303   9.932  0.1453  0.0236 -0.1911
96055W        W38972  12.920  27.954   6.999 -0.1900  0.2665 -0.0786
96056W        W38973  12.801  28.676  10.366 -0.0503  0.0395 -0.1945
96057W        W38974  15.304  26.236   7.636 -0.3610  0.3105  0.2185
96058W        W38975  12.993  27.130   8.673 -0.1052  0.0542  0.0728
96059W        W38976  12.917  25.687  11.442  0.1108 -0.1147 -0.1756
96060W        W38977  15.356  27.181   5.603 -0.2493  0.3486  0.0877
96061W        W38978  14.892  25.442   8.357  0.1415 -0.0153  0.1826
96062W        W38979  14.591  28.088   7.593  0.0567  0.0071 -0.0778
96063W        W38980  13.287  27.635   7.925  0.0158 -0.0562  0.1000
96064W        W38981  11.451  24.573   6.794 -0.1109 -0.1136 -0.1773
96065W        W38982  14.157  25.982   9.890  0.1919  0.2200 -0.0217
96066W        W38983  15.249  29.582   8.200 -0.1864 -0.0033  0.0434
96067W        W38984  13.709  25.970   7.330  0.3531  0.0588  0.1853
96068W        W38985  14.708  25.905   8.468  0.0019 -0.0859  0.0568
96069W        W38986  13.566  27.259  11.089  0.0375 -0.2562 -0.3993
96070W        W38987  13.148  26.925   9.105 -0.0150  0.1308 -0.4500
96071W        W38988  12.632  28.584   9.347  0.1429  0.2314 -0.3448
96072W        W38989  13.819  28.735  10.072 -0.1784 -0.0062  0.1551
96073W        W38990  14.225  27.898   8.343  0.0866  0.0906  0.3162
96074W        W38991  11.815  26.709  10.552 -0.0547 -0.1807  0.0190
96075W        W38992  14.020  28.099   9.401 -0.0716  0.0430  0.1265
96076W        W38993  14.455  26.786   6.273  0.0591 -0.3029  0.4257
96077W        W38994  15.071  25.726   8.775  0.1980 -0.0711  0.1249
96078W        W38995  12.959  26.415   8.263  0.3379  0.0365  0.0020
96079W        W38996  12.780  26.740  10.527  0.1209 -0.2463  0.1702
96080W        W38997  11.357  27.639   9.640 -0.3758  0.0076  0.1000
96081W        W38998  12.640  27.075   9.010  0.1001 -0.1157  0.2256
96082W        W38999  11.478  27.268   9.923 -0.1228  0.0152 -0.2173
96083W        W39000  13.539  28.855  10.490  0.3494  0.0051  0.3647
96084W        W39001  14.037  25.777   6.567  0.2715 -0.0950  0.3785
96085W        W39002  11.827  27.740   9.891  0.1890  0.1294  0.0217
96086W        W39003  11.483  26.400   7.496 -0.1726 -0.1279 -0.0704
96087W        W39004  12.390  27.162   7.242  0.0059  0.1418 -0.0069
96088W        W39005  10.821  27.923  11.370 -0.1083 -0.2223  0.3789
96089W        W39006  15.568  25.979   8.884  0.0254  0.3584  0.2422
96090W        W39007  11.264  27.797  11.154 -0.3979  0.1764  0.4073
96091W        W39008  14.268  26.646   9.419 -0.0138  0.0739 -0.0948
96092W        W39009  11.519  27.589  10.282  0.0147 -0.1832 -0.2234
96093W        W39010  10.542  26.036  11.066  0.2327 -0.3429 -0.0301
96094W        W39011  14.128  26.829   8.616 -0.1502 -0.0145  0.1373
96095W        W39012  14.124  27.192   7.669 -0.1789 -0.2426  0.0318
96096W        W39013  14.026  25.530   8.526  0.1302  0.1035 -0.0889
96097W        W39014  14.452  28.819  10.704 -0.3576 -0.0506  0.4532
96098W        W39015  15.019  27.585   7.328 -0.2572 -0.2633 -0.3668
96099W        W39016  11.693  27.150   8.716 -0.2559  0.2237 -0.0960
96100W        W39017  13.907  26.586   9.134 -0.0518  0.1508  0.0561
96101W        W39018  10.885  25.779   7.847 -0.0241  0.0710  0.1643
96102W        W39019  12.352  27.627   8.263  0.2040  0.0800 -0.3861
96103W        W39020  13.852  29.034  11.020 -0.2906 -0.0371  0.1343
96104W        W39021  12.710  29.316   9.523 -0.0430  0.1553  0.2056
96105W        W39022  14.140  28.255   7.767  0.3106 -0.3263  0.3270
96106W        W39023  14.106  25.801   7.633 -0.0605 -0.1371 -0.0700
96107W        W39024  12.912  28.411  10.804 -0.1505 -0.1527 -0.1810
96108W        W39025  11.214  25.983   8.216  0.2545 -0.1986  0.1757
96109W        W39026  12.957  29.341   8.741 -0.1412 -0.0666  0.4752
96110W        W39027  10.847  27.935   8.113  0.1054  0.0326  0.2998
96111W        W39028  12.695  29.559   6.717  0.4877 -0.1171 -0.2650
96112W        W39029  10.462  28.714   8.006  0.1004 -0.0469 -0.1562
96113W        W39030  11.324  24.138   6.280  0.1431  0.2216  0.1652
96114W        W39031  13.877  26.327   8.628 -0.3572 -0.0005 -0.0420
96115W        W39032  14.818  27.745   6.257  0.3576 -0.0118 -0.1361
96116W        W39033  13.760  28.200  11.188 -0.1924 -0.0745 -0.0239
96117W        W39034  12.650  25.946   6.776  0.0076  0.1329 -0.2337
96118W        W39035  14.149  29.162   8.388  0.0237 -0.0054 -0.0174
96119W        W39036  12.886  27.276   9.767 -0.2547 -0.0506  0.0054
96120W        W39037  13.263  27.481   8.864  0.1404 -0.2349  0.0861
96121W        W39038  20.402  27.150   8.820  0.2025  0.0362  0.1325
96122W        W39039  11.352  26.592   9.404  0.0478  0.2959  0.2304
96123W        W39040  14.780  26.736   7.964 -0.1471  0.4184 -0.0823
96124W        W39041  12.622  28.331   8.712  0.1825  0.0866 -0.3280
96125W        W39042  13.452  27.803  11.024  0.0263 -0.1209 -0.0054
96126W        W39043  14.440  28.237  10.616  0.1840  0.0076  0.4085
96127W        W39044  11.895  26.096   8.818 -0.0374 -0.0503  0.0491
96128W        W39045  16.337  25.723   6.875 -0.0718 -0.5445 -0.2392
96129W        W39046  13.440  26.361   9.666  0.2499 -0.0125 -0.0207
96130W        W39047  11.305  26.460  10.815  0.0200  0.0852 -0.2240
96131W        W39048  14.832  25.847   5.666 -0.2464  0.0688  0.2671
96132W        W39049  13.457  25.959  10.366 -0.0756  0.4009 -0.5705
96133W        W39050  14.509  26.405   9.755 -0.0503 -0.0988 -0.0272
96134W        W39051  13.205  27.142   7.764  0.1012 -0.0634 -0.1342
96135W        W39052  13.288  26.268   7.370 -0.1769  0.3854 -0.0922
96136W        W39053  12.329  25.006   8.324 -0.1289  0.3778 -0.0324
96137W        W39054  11.576  26.329   8.497  0.2515 -0.0500  0.2279
96138W        W39055  11.493  27.088  10.370 -0.0566  0.2752 -0.0155
96139W        W39056  15.908  27.050   8.985  0.2757  0.0017  0.0944
96140W        W39057  10.002  26.957   8.678 -0.3484  0.0069  0.2077
96141W        W39058  15.061  28.551   6.896 -0.0026  0.0394  0.0796
96142W        W39059  13.742  27.811  10.076  0.0172 -0.1709  0.1632
96143W        W39060  11.960  29.886  11.126  0.2959  0.0087 -0.0060
96144W        W39061  15.006  28.383   7.898  0.1634  0.1424 -0.1052
96145W        W39062  14.676  27.773  10.720 -0.1311 -0.0071 -0.2900
96146W        W39063  11.606  27.513   9.137  0.3209  0.0028  0.1141
96147W        W39064  17.785  27.940   9.050  0.2307  0.1054  0.1494
96148W        W39065  13.026  28.346   9.110  0.2518  0.4285 -0.2087
96149W        W39066  12.278  26.501   9.604  0.2611  0.0429  0.1896
96150W        W39067  12.858  26.606   8.813 -0.1544 -0.2380  0.2942
96151W        W39068  12.910  28.663  11.315  0.0503  0.2154 -0.1092
96152W        W39069  14.581  26.808   8.446  0.0934 -0.3127  0.1542
96153W        W39070  13.446  29.530   8.854 -0.0212 -0.0978  0.3158
96154W        W39071  15.012  26.388   9.665 -0.0275 -0.3498  0.0854
96155W        W39072   9.395  27.302   9.881 -0.2596 -0.0900 -0.0625
96156W        W39073  12.178  28.079   8.171  0.0057  0.0216  0.0799
96157W        W39074  12.696  29.052   9.086  0.0461  0.1294  0.2276
96158W        W39075  13.470  27.248  10.510  0.2919 -0.1107  0.1643
96159W        W39076  13.890  26.723   7.600  0.1102  0.0290 -0.1611
96160W        W39077  15.204  27.143   8.140  0.0343 -0.0332 -0.1846
96161W        W39078  14.310  26.233   6.316  0.1254 -0.1861 -0.1246
96162W        W39079  15.454  25.463   6.262 -0.2404 -0.2151  0.1198
96163W        W39080  13.169  25.997   8.195  0.0450  0.4630 -0.0826
96164W        W39081  14.120  26.992   9.102 -0.2398 -0.1092 -0.0224
96165W        W39082   9.014  28.028   9.888  0.0263  0.0282  0.1812
96166W        W39083  11.151  29.316   9.070 -0.0820 -0.1049  0.0248
96167W        W39084  12.477  28.622  10.966  0.1916  0.0595  0.4617
96168W        W39085  12.254  26.452  10.561 -0.0208 -0.1098  0.1168
96169W        W39086  12.182  25.450   7.948 -0.1886  0.0688 -0.2599
96170W        W39087  13.639  28.578   7.871 -0.1405 -0.1024 -0.0817
96171W        W39088  14.096  25.126   8.800  0.2050  0.2504 -0.0335
96172W        W39089  13.299  24.949   9.840  0.0033  0.0319  0.0632
96173W        W39090  13.994  27.459   9.436  0.0625  0.0355 -0.1880
96174W        W39091  12.341  28.151   7.178 -0.1623  0.0512  0.2856
96175W        W39092  10.947  26.525   8.518 -0.4230  0.1804 -0.2020
96176W        W39093  11.003  28.800   8.763 -0.1310 -0.1716 -0.0255
96177W        W39094  11.936  25.123   7.141  0.1848  0.2586 -0.1360
96178W        W39095  13.507  27.905   9.588  0.0275 -0.1129 -0.0545
96179W        W39096  11.174  30.323   8.980 -0.0849 -0.1634  0.0613
96180W        W39097  13.365  26.779   7.432 -0.5185  0.0566  0.1645
96181W        W39098   5.755  25.054   8.755 -0.4831  0.0263  0.2461
96182W        W39099  12.978  26.912   8.224 -0.0025  0.0349  0.2832
96183W        W39100  15.272  29.204   6.113  0.0852 -0.0586  0.2558
96184W        W39101  13.412  25.382  10.168  0.1679 -0.0853 -0.1394
96185W        W39102  13.746  25.466   7.433 -0.2099  0.1980  0.2925
96186W        W39103  17.290  25.931   8.889 -0.0363  0.1330 -0.0243
96187W        W39104  12.237  25.269   8.811  0.0934  0.0924  0.0257
96188W        W39105  13.464  26.739   7.937 -0.1733  0.1788  0.2155
96189W        W39106  11.815  25.814   8.283  0.0700 -0.2903  0.0126
96190W        W39107  12.192  25.965   9.781  0.2629  0.1927 -0.3499
96191W        W39108  13.136  26.217   8.749 -0.0447 -0.0508  0.1530
96192W        W39109  12.458  29.669  11.181  0.0750  0.2643  0.2565
96193W        W39110  12.472  26.162   7.604  0.1653 -0.5931 -0.1022
96194W        W39111  16.210  28.783   9.539 -0.1325  0.0400  0.0477
96195W        W39112  15.075  27.689   9.874 -0.0883  0.1430  0.1606
96196W        W39113  13.854  29.861   9.607  0.2434  0.0699  0.0501
96197W        W39114  13.235  27.393   9.345  0.2852 -0.0595 -0.1779
96198W        W39115  12.933  25.224   9.591 -0.0828  0.0174  0.0295
96199W        W39116  11.899  27.233   6.956  0.3043 -0.2385  0.0875
96200W        W39117  13.359  25.697  10.862  0.2255 -0.0554  0.3429
96201W        W39118  14.453  25.912   7.307 -0.1566  0.2680 -0.1457
96202W        W39119  10.209  26.645  11.272 -0.0991 -0.0251  0.2166
96203W        W39120  14.571  27.377   8.765 -0.1287  0.0358  0.0303
96204W        W39121  13.450  29.568   9.403  0.0255  0.0464  0.1154
96205W        W39122  14.728  26.412   9.250  0.1057  0.2812  0.0786
96206W        W39123  13.165  31.253   0.309  0.0915  0.0695  0.0043
96207W        W39124  12.223  31.037   1.094  0.0522 -0.0069  0.3421
96208W        W39125  14.611  29.076  30.228  0.2649 -0.1895  0.4542
96209W        W39126  15.879  32.034   1.015 -0.1662 -0.3158  0.2545
96210W        W39127  11.478  29.207   2.098 -0.2990 -0.2104  0.0625
96211W        W39128  13.792  32.786   0.823 -0.0206  0.0726 -0.0162
96212W        W39129  11.560  28.271   2.924 -0.0302 -0.1483 -0.3254
96213W        W39130  13.863  33.287   0.592  0.2654 -0.1402  0.0184
96214W        W39131  14.170  31.557   1.120 -0.0409 -0.2125  0.3134
96215W        W39132  13.861  31.014  30.557 -0.2762  0.0375 -0.1210
96216W        W39133  12.584  30.612   3.315 -0.1460  0.2285  0.0021
96217W        W39134  13.775  32.012   0.686  0.1509  0.0728 -0.1736
96218W        W39135  12.880  28.382   1.308 -0.0460  0.2331  0.2612
96219W        W39136  11.137  31.917   3.307  0.0545 -0.0910 -0.1991
96220W        W39137  13.384  30.360   4.699 -0.0391  0.0592  0.0280
96221W        W39138  12.443  31.529   1.026  0.4098  0.3719 -0.0328
96222W        W39139  12.650  29.412   2.789  0.3163 -0.0782  0.2566
96223W        W39140  13.654  31.055   0.537 -0.3115 -0.0963 -0.0969
96224W        W39141  11.323  32.159   2.686  0.2185 -0.0653  0.0732
96225W        W39142  11.914  29.063   1.942 -0.2720  0.2762  0.1592
96226W        W39143  13.559  29.606   2.151 -0.3295  0.3629 -0.2508
96227W        W39144  12.392  33.122   0.754 -0.0772 -0.0839 -0.0543
96228W        W39145   9.809  33.443  29.677  0.1017  0.1383  0.0691
96229W        W39146  11.265  29.676   2.963 -0.2082 -0.2606  0.2443
96230W        W39147  12.473  30.298   0.453  0.0290 -0.2666 -0.2582
96231W        W39148  14.433  30.664   1.303 -0.0559  0.1895 -0.2231
96232W        W39149  13.754  31.236   1.440  0.0425 -0.0574 -0.1383
96233W        W39150  12.554  31.807   2.570  0.0223  0.0859 -0.2741
96234W        W39151  12.272  32.732   1.595  0.2669 -0.0458  0.0789
96235W        W39152  12.731  32.525   2.940 -0.2587 -0.1236  0.0684
96236W        W39153  11.979  31.444   1.216  0.2622 -0.1567  0.0174
96237W        W39154  10.385  33.452   0.345 -0.0568  0.0629 -0.1486
96238W        W39155  13.068  31.364   0.881  0.1043  0.0451 -0.3920
96239W        W39156  15.253  31.177   1.651 -0.2833 -0.2001  0.2466
96240W        W39157  13.716  32.594   1.899 -0.0111  0.2335  0.0424
96241W        W39158  12.953  33.037   2.920  0.1867  0.1216  0.0863
96242W        W39159  10.362  31.268  29.833 -0.0180 -0.0377  0.0585
96243W        W39160  12.699  32.874   2.515  0.0846  0.0836 -0.1178
96244W        W39161  11.949  30.819   6.103 -0.1232  0.0136  0.2602
96245W        W39162  13.024  31.752  31.419 -0.0396 -0.1679  0.0614
96246W        W39163  11.560  30.126   1.615  0.0304  0.2060  0.1105
96247W        W39164  13.093  29.835  30.918 -0.2665  0.3933  0.2773
96248W        W39165  12.700  31.118   0.595  0.5275  0.2699 -0.1275
96249W        W39166  12.104  30.538   4.349 -0.1052 -0.2611 -0.1224
96250W        W39167  11.425  30.274  31.517 -0.0485 -0.1664 -0.1374
96251W        W39168  13.751  31.240   4.058 -0.0226 -0.1616 -0.0103
96252W        W39169  11.346  31.723  31.630 -0.0683  0.0178 -0.1642
96253W        W39170  15.366  31.152   0.416 -0.0587  0.3050 -0.1081
96254W        W39171  12.108  30.026   1.193  0.0331  0.2194  0.0195
96255W        W39172  14.207  31.249  31.809  0.7047 -0.0975  0.1813
96256W        W39173  13.094  29.517   1.937 -0.2472  0.1903 -0.1142
96257W        W39174  11.891  33.307   0.726 -0.1016 -0.0743 -0.0061
96258W        W39175  14.313  30.166   4.735 -0.2360  0.2216 -0.0884
96259W        W39176  13.674  33.778   2.194 -0.0734 -0.0493 -0.0828
96260W        W39177  11.984  29.869  31.678 -0.2030  0.6793 -0.0240
96261W        W39178  13.406  30.820   2.592  0.1536 -0.0713 -0.2105
96262W        W39179  10.246  33.151   1.952 -0.0360  0.3123  0.0283
96263W        W39180  13.573  31.356   0.918  0.0399 -0.1634 -0.0454
96264W        W39181  14.669  33.760   1.067 -0.0733  0.1287 -0.1744
96265W        W39182  15.452  31.591   1.913  0.2071 -0.0166  0.1524
96266W        W39183  13.152  33.276  31.514 -0.1977  0.3116  0.0433
96267W        W39184  12.610  30.910   2.900 -0.2236  0.1628  0.1304
96268W        W39185  10.737  31.346   2.138  0.1510  0.1054 -0.1358
96269W        W39186  13.478  30.891   4.337  0.2718  0.0099  0.0618
96270W        W39187  11.287  27.960   0.447 -0.2173 -0.1130 -0.5454
96271W        W39188  12.642  31.685   4.626  0.0267  0.1752 -0.4089
96272W        W39189  11.750  31.581   4.618 -0.1919 -0.1715  0.1279
96273W        W39190  16.216  30.228   1.610  0.1003 -0.0185  0.0641
96274W        W39191  13.594  31.229  31.949  0.1375  0.0628 -0.0466
96275W        W39192  13.701  30.384   2.384 -0.2525 -0.1694  0.0552
96276W        W39193  14.841  31.761   0.201 -0.0963 -0.2399  0.1757
96277W        W39194  13.548  30.866   1.978 -0.0245 -0.0214 -0.5890
96278W        W39195  12.774  29.674   3.594  0.3270 -0.1586  0.1612
96279W        W39196  11.832  30.707   1.077  0.0630  0.3687 -0.2296
96280W        W39197  11.244  30.149   0.772 -0.4266 -0.3798 -0.0522
96281W        W39198  14.551  31.374   4.763 -0.0260  0.0510 -0.0940
96282W        W39199  12.977  32.171   1.628  0.0496  0.0017  0.2744
96283W        W39200  12.214  32.176   2.724  0.0918  0.0358  0.3235
96284W        W39201  14.197  32.167   2.269  0.4523  0.3040 -0.3295
96285W        W39202  13.917  33.540   1.135 -0.0993  0.0639  0.0201
96286W        W39203   8.410  31.755  30.346  0.2102 -0.0252 -0.1215
96287W        W39204   9.657  30.048   2.660 -0.1214 -0.3417  0.1407
96288W        W39205   9.961  31.477   0.380 -0.1506  0.0393  0.0838
96289W        W39206  11.141  30.095   3.866  0.2397  0.1406 -0.0163
96290W        W39207  13.071  30.517  31.708 -0.3217 -0.5952 -0.1388
96291W        W39208  11.979  30.937   1.577 -0.2895  0.0763  0.2084
96292W        W39209  12.977  29.665   4.111  0.1016  0.0499  0.0234
96293W        W39210  15.264  30.435   0.278  0.1473  0.0736 -0.0429
96294W        W39211  11.959  32.201   0.166  0.1708 -0.2204 -0.2032
96295W        W39212  14.535  31.592   1.649  0.0218  0.0463 -0.0299
96296W        W39213  13.785  30.309  30.950  0.1375  0.0208  0.1929
96297W        W39214  15.627  29.381  31.094  0.1234  0.1444  0.0316
96298W        W39215  10.955  30.857   2.168  0.0411 -0.0102 -0.0301
96299W        W39216  11.139  27.910   1.319 -0.1232 -0.1002  0.2818
96300W        W39217  11.840  30.934   3.431 -0.0200  0.0620  0.3130
96301W        W39218  10.559  29.489   2.214 -0.0461 -0.0541 -0.0324
96302W        W39219  13.732  29.966   7.374  0.0776  0.1782  0.2350
96303W        W39220  12.766  29.838  30.068  0.0691  0.2846  0.0470
96304W        W39221  12.326  31.072   3.489 -0.1061  0.1227 -0.0827
96305W        W39222  13.136  30.642   1.683 -0.0790  0.1543  0.0216
96306W        W39223   9.548  31.925  31.517 -0.0653  0.0850 -0.3188
96307W        W39224  14.394  29.251   3.858 -0.0201 -0.1168 -0.1106
96308W        W39225  12.306  32.583   0.218 -0.1420 -0.1815  0.1057
96309W        W39226  15.814  32.133   3.111  0.0973  0.0257 -0.0297
96310W        W39227  12.604  31.453   0.212 -0.3181  0.0800  0.1309
96311W        W39228  12.660  30.347   2.851 -0.1818 -0.0488  0.1973
96312W        W39229  10.988  29.248   1.049 -0.2718 -0.0677  0.3187
96313W        W39230  12.145  32.483   2.230  0.2877 -0.3744  0.2540
96314W        W39231  12.221  32.010   2.250  0.4070 -0.1920  0.0659
96315W        W39232  12.327  29.944   0.138  0.4594  0.3275 -0.1492
96316W        W39233  14.409  31.428   2.859 -0.3913 -0.0631  0.4619
96317W        W39234  13.109  32.873   0.034 -0.2290  0.2934  0.0606
96318W        W39235  12.680  31.246   4.378 -0.1853 -0.1456  0.0554
96319W        W39236  14.454  27.276   1.857  0.3994 -0.0098 -0.0027
96320W        W39237  13.992  31.493   3.213 -0.1414 -0.0386  0.0507
96321W        W39238  12.760  31.431   1.369 -0.0878 -0.0076 -0.2719
96322W        W39239  11.458  28.419   2.361 -0.1443 -0.0134  0.2354
96323W        W39240  13.829  32.634   1.409  0.1510 -0.0664  0.0136
96324W        W39241   9.492  31.712   0.396 -0.0232  0.0446 -0.4379
96325W        W39242  13.246  30.945   1.219  0.0152 -0.0560 -0.0858
96326W        W39243  12.465  31.397  31.624 -0.1470  0.0461  0.1396
96327W        W39244  15.448  29.772   0.222  0.2228  0.1059  0.3293
96328W        W39245  11.396  30.831   5.518  0.1445 -0.2013 -0.2804
96329W        W39246  13.900  30.048   4.367  0.1827 -0.1390  0.1653
96330W        W39247  13.683  30.717   0.965 -0.0567 -0.0419  0.1298
96331W        W39248  11.983  33.370   2.771 -0.0926 -0.2508 -0.2396
96332W        W39249  13.539  29.982   0.310 -0.1281  0.0209  0.1230
96333W        W39250  15.292  29.861  29.811 -0.0342 -0.1204 -0.0517
96334W        W39251  14.415  33.057   2.391  0.1084  0.0356 -0.1493
96335W        W39252  14.264  32.937   0.598  0.5886  0.2002 -0.1686
96336W        W39253  12.544  29.798  31.596  0.0368 -0.1341 -0.3425
96337W        W39254  13.577  30.122   1.375  0.3007  0.2412 -0.0981
96338W        W39255  11.812  31.607   4.142 -0.1883  0.0982 -0.0756
96339W        W39256  12.498  30.871  31.580 -0.0124 -0.2498  0.0418
96340W        W39257  13.492  30.784   3.274 -0.3437 -0.1403 -0.0065
96341W        W39258  13.842  29.591   0.268 -0.0096 -0.0136 -0.0821
96342W        W39259  14.782  33.298   0.596  0.0037  0.0416  0.2547
96343W        W39260  10.835  32.467   1.502  0.2292  0.0933  0.0720
96344W        W39261  12.316  31.329   5.090  0.0716  0.0265 -0.3054
96345W        W39262  14.104  31.016   1.165 -0.0746 -0.0889 -0.3074
96346W        W39263  14.581  29.647   3.489 -0.0532 -0.1039  0.1498
96347W        W39264  12.113  31.455   2.309 -0.0359 -0.1531 -0.0302
96348W        W39265  12.259  28.483   2.412 -0.0530 -0.0484 -0.4219
96349W        W39266  10.831  31.310  31.848 -0.2573 -0.4779  0.5721
96350W        W39267  12.985  31.882   3.438 -0.2377 -0.0287  0.1419
96351W        W39268  12.089  29.591   2.135 -0.1814 -0.1811  0.1564
96352W        W39269  13.334  29.452   2.679  0.3144 -0.1219 -0.4375
96353W        W39270  14.373  31.258   5.221 -0.0247  0.3234  0.2716
96354W        W39271  13.321  31.810   0.755  0.2286 -0.2523  0.0663
96355W        W39272  15.276  30.253   1.719  0.0045 -0.0458  0.0969
96356W        W39273  11.503  29.421   0.293  0.0642 -0.1919  0.3958
96357W        W39274  14.389  31.553   2.165 -0.0707  0.0021  0.1427
96358W        W39275  12.133  31.607   2.793  0.0174  0.1847 -0.1395
96359W        W39276  11.590  32.071   3.504 -0.0124  0.0787  0.1254
96360W        W39277  13.602  31.681   2.627 -0.3066 -0.0984 -0.2332
96361W        W39278  13.420  32.100   0.332  0.1413  0.3870  0.0636
96362W        W39279  13.307  32.108   6.107 -0.0560 -0.0041 -0.0328
96363W        W39280  12.706  29.591  31.184  0.0965  0.0008  0.0373
96364W        W39281  11.416  33.754   0.011 -0.0794 -0.0258  0.2032
96365W        W39282  15.352  30.543  31.370  0.0276  0.0146  0.3445
96366W        W39283  13.986  29.550   3.306  0.1280  0.3979 -0.1546
96367W        W39284  12.468  31.354   3.962  0.0470 -0.3814 -0.0698
96368W        W39285  11.625  31.037   0.097 -0.0277 -0.1829 -0.5395
96369W        W39286  12.764  30.976   1.150 -0.1168 -0.3403  0.0991
96370W        W39287  11.898  31.701   0.838  0.0896 -0.4480  0.2707
96371W        W39288  15.568  31.146   2.604  0.1940 -0.0679 -0.1955
96372W        W39289  12.938  31.572   3.039 -0.2161  0.3406  0.1988
96373W        W39290  13.620  29.901  30.712  0.1930  0.0326  0.2512
96374W        W39291  10.213  31.201   1.789 -0.2640 -0.0116  0.1542
96375W        W39292  14.866  30.505   1.428  0.1731 -0.1354 -0.3327
96376W        W39293  10.960  30.622   3.117  0.0650 -0.0054 -0.0901
96377W        W39294  12.442  28.796   1.995  0.0719  0.1841 -0.1949
96378W        W39295  10.470  32.194   1.871 -0.1140 -0.0655 -0.0556
96379W        W39296  13.423  30.436   3.594 -0.1428  0.0812  0.0267
96380W        W39297  13.482  31.247   2.393  0.0572  0.0705 -0.0858
96381W        W39298  11.875  33.436   3.292  0.4339 -0.0565  0.0681
96382W        W39299  12.004  33.161   4.734  0.2716 -0.0458  0.1227
96383W        W39300  11.402  31.027   0.626  0.5078  0.1577  0.0910
96384W        W39301  13.739  32.083   3.994 -0.0060  0.1971 -0.1052
96385W        W39302  10.865  32.252   2.450  0.1603 -0.1126 -0.1525
96386W        W39303  11.065  31.773   0.574  0.0570 -0.2263  0.0778
96387W        W39304  14.386  33.303   1.474 -0.1047 -0.3336 -0.4024
96388W        W39305  10.621  28.979   1.254 -0.1154 -0.0871  0.0708
96389W        W39306  12.510  31.536   2.036 -0.3921 -0.2102 -0.1592
96390W        W39307  12.872  29.681   5.914  0.0731 -0.1118 -0.1123
96391W        W39308  16.401  31.902   4.014  0.1840 -0.0546  0.3157
96392W        W39309  11.009  27.794   3.138  0.1108 -0.0657 -0.2732
96393W        W39310  12.730  28.063   1.744 -0.0636  0.0131  0.0831
96394W        W39311  13.190  29.903   2.306 -0.3220  0.0355 -0.0808
96395W        W39312  12.675  32.280   2.534  0.2143 -0.1958  0.1505
96396W        W39313  14.181  30.576   2.636 -0.0900  0.3453 -0.0569
96397W        W39314  10.615  33.362   3.038  0.0795 -0.2385 -0.2175
96398W        W39315  12.044  28.605   0.575  0.1261 -0.3030  0.1659
96399W        W39316  13.972  32.042  31.410 -0.3017  0.5989 -0.0970
96400W        W39317  12.404  29.849   4.896 -0.1175  0.0396  0.0440
96401W        W39318  11.214  30.323   1.921 -0.3006  0.1653  0.2275
96402W        W39319  11.604  30.022   2.913 -0.0040 -0.1951  0.1494
96403W        W39320  12.305  30.549   1.215  0.0072  0.0765  0.1489
96404W        W39321  10.319  28.310   4.115 -0.1102  0.3215  0.2267
96405W        W39322  11.332  32.665   1.790 -0.3468 -0.1210  0.3377
96406W        W39323  11.094  30.578   0.534 -0.1946 -0.1887 -0.0630
96407W        W39324  11.256  33.826   2.342  0.0541  0.1388  0.1886
96408W        W39325  14.517  30.464  31.289 -0.1800  0.0390  0.0225
96409W        W39326  15.408  29.386  30.025  0.1539  0.0999  0.2497
96410W        W39327  14.221  32.010   0.881  0.1945  0.0614 -0.4204
96411W        W39328  15.385  30.289   3.389  0.0226 -0.0947 -0.2601
96412W        W39329  13.461  29.119  30.236 -0.0591  0.1217  0.0682
96413W        W39330  13.956  29.105   4.589  0.1216 -0.3337 -0.2749
96414W        W39331  12.731  31.644   0.639 -0.0860 -0.0653 -0.2315
96415W        W39332  13.953  32.932   0.195  0.1672 -0.0749  0.2414
96416W        W39333  12.460  29.789   2.999 -0.0263 -0.2406 -0.0073
96417W        W39334  12.215  32.686   2.775  0.0782  0.1587  0.1577
96418W        W39335  11.857  32.940   2.570  0.2179  0.4826 -0.3036
96419W        W39336  12.651  29.241   1.564 -0.1191  0.2470  0.0961
96420W        W39337  11.320  28.894  31.131 -0.1232 -0.1777 -0.0276
96421W        W39338  14.156  32.900   3.292  0.3020  0.1309  0.0465
96422W        W39339  14.768  31.218   1.917  0.1600 -0.0989  0.0489
96423W        W39340  14.631  31.918   1.288  0.0285 -0.2000  0.0245
96424W        W39341  15.403  30.155   0.657  0.0067  0.0703 -0.0098
96425W        W39342  11.723  30.909   2.917 -0.1040  0.0433 -0.1404
96426W        W39343  16.027  31.528  31.446  0.1815 -0.0116 -0.0036
96427W        W39344  14.247  32.404   1.392  0.1547 -0.0923  0.2497
96428W        W39345  12.527  29.007  31.077  0.1766 -0.1097 -0.1693
96429W        W39346  12.882  30.668   2.521  0.0813 -0.1246  0.1321
96430W        W39347  11.075  31.093   1.731 -0.3124  0.3286  0.1765
96431W        W39348  13.117  30.920   2.188  0.1048 -0.0025  0.0830
96432W        W39349  15.112  30.769   1.859  0.0795 -0.1290 -0.0432
96433W        W39350  14.017  30.938   3.008  0.3859 -0.0267  0.0446
96434W        W39351  15.294  30.760   4.352  0.2895  0.2240 -0.3634
96435W        W39352  13.772  30.074   4.938  0.1413 -0.0076  0.2159
96436W        W39353  15.691  34.290   3.595  0.0079 -0.3072  0.0111
96437W        W39354  13.957  30.153   0.675  0.0056  0.2069  0.0759
96438W        W39355  14.761  29.270   3.002 -0.1112 -0.1399 -0.1198
96439W        W39356  14.430  29.885   1.527 -0.0429 -0.0015  0.0170
96440W        W39357  14.641  29.620   0.457  0.2695  0.1022  0.0184
96441W        W39358  11.981  31.893   3.185 -0.1332 -0.2244  0.1769
96442W        W39359  12.609  30.380   5.402  0.2886 -0.1182 -0.2533
96443W        W39360  11.376  28.970   2.911 -0.2881  0.0488 -0.1419
96444W        W39361  14.449  30.202   1.134 -0.1750 -0.0535  0.0343
96445W        W39362  12.693  32.019   0.340 -0.2512  0.0179  0.0613
96446W        W39363  13.048  29.858   2.830  0.0062  0.0954 -0.1792
96447W        W39364  15.065  29.478   1.639 -0.1111  0.1310  0.1376
96448W        W39365  10.542  29.750   3.673 -0.1934 -0.2668 -0.0820
96449W        W39366  10.570  30.590   4.793 -0.2418  0.2872  0.0091
96450W        W39367  13.248  30.424   1.068  0.3160 -0.1909  0.1112
96451W        W39368  13.630  29.876  31.784 -0.0365 -0.0489 -0.0561
96452W        W39369  13.707  30.429   1.881  0.0774  0.1401 -0.0286
96453W        W39370  16.125  31.378   4.686 -0.0843 -0.0730  0.0167
96454W        W39371  12.717  32.224  31.491  0.0638 -0.2603  0.1982
96455W        W39372  13.966  31.328   2.636  0.2379 -0.0554 -0.1855
96456W        W39373  10.279  31.768  31.909  0.0632 -0.0933 -0.0939
96457W        W39374  11.426  28.799   0.942 -0.0217 -0.0347 -0.0511
96458W        W39375  10.766  32.616   3.513  0.1339 -0.0874 -0.0407
96459W        W39376  12.520  31.283   2.605 -0.2159 -0.2186  0.0850
96460W        W39377  12.502  29.709   1.845 -0.3011  0.1514  0.1462
96461W        W39378  13.891  28.977   3.463 -0.0673  0.0170  0.1917
96462W        W39379  14.066  30.788   1.712  0.3791 -0.1053 -0.3392
96463W        W39380  12.378  30.500   2.497 -0.3256 -0.4012  0.1094
96464W        W39381  16.380  31.576   1.292 -0.0813  0.1872 -0.0092
96465W        W39382  13.247  30.852   3.774  0.1679  0.0108 -0.2065
96466W        W39383  11.213  31.536   1.942 -0.2029  0.0852  0.0781
96467W        W39384  13.387  33.753   1.764 -0.3400 -0.1164  0.0528
96468W        W39385  14.490  30.132   0.600  0.0763 -0.0297 -0.0958
96469W        W39386  12.577  32.570   0.724 -0.3623  0.0150  0.0594
96470W        W39387  10.731  29.491   4.025  0.1756  0.1299  0.2654
96471W        W39388  12.674  32.291   4.466  0.1218  0.0010  0.2027
96472W        W39389  14.755  31.368   2.415 -0.4141 -0.0449  0.0338
96473W        W39390  13.002  29.874   0.340 -0.0364 -0.1854  0.0924
96474W        W39391  12.005  32.198   0.772  0.0441 -0.1172 -0.3291
96475W        W39392  11.111  32.913   3.808  0.2260  0.1920 -0.0177
96476W        W39393  10.143  30.102   4.601  0.1074  0.1156 -0.0829
96477W        W39394  10.593  31.977  31.546  0.0796  0.1326 -0.0231
96478W        W39395  13.957  32.154   1.706 -0.1375 -0.2009 -0.1227
96479W        W39396  13.939  32.453   0.501 -0.1842  0.2674 -0.1816
96480W        W39397  14.404  31.491   0.244 -0.2220 -0.1487 -0.0387
96481W        W39398  13.775  30.030  30.251 -0.2523 -0.1124  0.1114
96482W        W39399  12.814  31.251  31.207 -0.0079 -0.0246 -0.1397
96483W        W39400  11.040  32.929  29.746  0.0315 -0.1423  0.0815
96484W        W39401  13.134  32.499   0.319  0.2531 -0.2697 -0.0214
96485W        W39402  11.702  31.411   2.678  0.1574 -0.1636 -0.0990
96486W        W39403  13.230  31.949   5.307  0.0498 -0.2744 -0.2466
96487W        W39404  12.771  30.572   0.820  0.0983  0.4625  0.2717
96488W        W39405  14.895  31.746   2.045  0.0835  0.2843  0.5063
96489W        W39406  16.627  29.045   1.039  0.0936 -0.0714 -0.0373
96490W        W39407  13.116  31.225   4.131 -0.1604  0.0531 -0.1560
96491W        W39408  12.864  30.754  31.257  0.0732  0.2748 -0.1477
96492W        W39409  11.592  28.878  31.567 -0.1168 -0.0557 -0.1906
96493W        W39410  13.043  31.112   2.754  0.0919 -0.3594 -0.1618
96494W        W39411  15.643  30.530   2.027  0.3967 -0.2875  0.0145
96495W        W39412   8.981  30.785   3.930 -0.4236  0.1445 -0.0909
96496W        W39413  13.956  31.493   0.635 -0.0686  0.2157 -0.0683
96497W        W39414  11.481  31.080   1.230  0.0634  0.1951 -0.1611
96498W        W39415  12.543  30.919   2.231  0.1512 -0.0025 -0.1495
96499W        W39416  13.287  31.139   1.703 -0.1360  0.0767 -0.1908
96500W        W39417  13.079  31.719   0.181 -0.1280 -0.0535 -0.2988
96501W        W39418  13.932  29.947   1.724 -0.3721 -0.2572 -0.2558
96502W        W39419  12.991  31.350  31.792  0.4479 -0.0968 -0.0002
96503W        W39420  12.081  31.804   1.699 -0.0492 -0.2564  0.0088
96504W        W39421  13.472  32.029   1.758  0.0190 -0.3991 -0.1248
96505W        W39422  10.597  28.404   2.896 -0.0786  0.0340  0.2462
96506W        W39423  14.963  29.322   0.797  0.0390  0.2508 -0.2514
96507W        W39424  12.205  30.204   2.896  0.0292 -0.2833 -0.0701
96508W        W39425  14.532  31.181   3.839 -0.3171 -0.1217 -0.2303
96509W        W39426  13.885  31.216   2.053 -0.0242  0.4869 -0.2531
96510W        W39427  13.850  30.600   0.458  0.2243  0.2592  0.2085
96511W        W39428  14.238  31.819   2.588 -0.2209 -0.3147 -0.1405
96512W        W39429  12.320  31.380   1.555  0.4367 -0.1232 -0.0116
96513W        W39430  13.204  30.886   0.688 -0.0035 -0.4393  0.1934
96514W        W39431  16.524  31.388   5.228 -0.2854 -0.1089  0.0906
96515W        W39432  13.464  31.807  31.207 -0.2105 -0.2127 -0.2235
96516W        W39433  13.008  31.131   3.318  0.3802  0.2020 -0.1774
96517W        W39434  11.893  28.539   1.032  0.2648  0.1225 -0.1404
96518W        W39435  14.479  29.541  31.925  0.1004  0.1255 -0.0100
96519W        W39436  10.736  30.858   2.689  0.2032 -0.2101  0.3387
96520W        W39437  12.180  31.144   1.950 -0.3470  0.2228  0.3105
96521W        W39438  13.315  32.683   3.667 -0.2902 -0.0039 -0.4694
96522W        W39439  12.409  30.183   1.603  0.0992 -0.1129  0.0508
96523W        W39440  14.726  29.833  30.722 -0.1307  0.3878  0.2120
96524W        W39441  13.745  31.768   1.334 -0.1203 -0.0736 -0.1358
96525W        W39442  10.178  30.283   0.134 -0.3812  0.1245 -0.2043
96526W        W39443  14.279  32.488   3.639  0.3959  0.0306  0.1129
96527W        W39444  13.598  30.761   1.479 -0.1316  0.1424 -0.3239
96528W        W39445  11.682  28.315   3.885  0.0574  0.3701 -0.1161
96529W        W39446  14.630  32.508   2.073  0.1457  0.2315 -0.2285
96530W        W39447  13.205  31.598   4.477 -0.0571 -0.0149 -0.2798
96531W        W39448  11.061  29.687   0.787  0.2194 -0.0018 -0.1520
96532W        W39449  13.004  30.645   2.993  0.0617 -0.0993 -0.2008
96533W        W39450  10.447  31.353   0.280  0.0755  0.1201 -0.0627
96534W        W39451  15.293  31.504   2.761 -0.2672 -0.1236 -0.6136
96535W        W39452  15.284  30.829   3.467  0.1203  0.3089  0.0147
96536W        W39453  11.239  30.481   0.015  0.2924  0.2349  0.0073
96537W        W39454  15.955  28.470   2.067  0.3075 -0.2023 -0.2570
96538W        W39455  12.117  31.352   5.913  0.1897 -0.0222  0.2134
96539W        W39456  11.276  33.913   5.901  0.2789  0.1907 -0.2537
96540W        W39457  12.725  30.786  30.780 -0.0148  0.1386  0.0558
96541W        W39458  12.931  31.445   3.680 -0.1808  0.3675 -0.1461
96542W        W39459  13.431  32.810   1.130  0.1047 -0.1420  0.0821
96543W        W39460  16.651  33.199   1.103  0.2918 -0.2719 -0.2722
96544W        W39461  14.375  31.137   0.647 -0.0319 -0.0278  0.0947
96545W        W39462  11.289  31.468   1.442  0.0661 -0.0671 -0.2975
96546W        W39463  13.584  29.915   0.886 -0.5240 -0.1140 -0.1767
96547W        W39464  11.721  29.452   2.921 -0.2230 -0.3442 -0.5077
96548W        W39465  15.759  29.887  31.370 -0.0430  0.0911 -0.1000
96549W        W39466  13.306  28.659   1.478 -0.1625  0.2504 -0.0222
96550W        W39467  12.880  31.880   1.112  0.1442  0.1323 -0.1636
96551W        W39468  12.249  30.874   0.618  0.0973  0.0577  0.1507
96552W        W39469   9.888  32.646   0.534 -0.1782  0.0213 -0.0351
96553W        W39470  10.247  30.198   0.899 -0.1501 -0.3084 -0.0091
96554W        W39471  13.184  30.392   2.087 -0.0687  0.0209  0.0454
96555W        W39472  12.079  30.676   5.138 -0.0509  0.0448  0.0454
96556W        W39473  11.232  33.246   2.473  0.1159  0.1974  0.3693
96557W        W39474  12.581  31.832   1.617  0.0294  0.4088  0.0061
96558W        W39475  16.163  31.098   1.142  0.1322 -0.0208  0.0584
96559W        W39476  11.522  30.819   1.868  0.4060  0.0563 -0.0756
96560W        W39477  12.886  30.439   3.699  0.3260 -0.2361  0.3281
96561W        W39478  13.512  30.658  30.735 -0.1495 -0.2278  0.0444
96562W        W39479  14.053  31.585   1.720 -0.3494 -0.1938 -0.1860
96563W        W39480  13.422  30.767   0.208 -0.2654 -0.1867 -0.0595
96564W        W39481  13.653  31.748   3.465 -0.0288 -0.1192  0.3631
96565W        W39482  10.962  31.919  31.852 -0.1100  0.0364 -0.1626
96566W        W39483  14.404  31.150   3.328  0.0320 -0.0214  0.0135
96567W        W39484  15.206  31.325   3.495 -0.0168  0.1824 -0.1820
96568W        W39485  12.602  30.151   1.057  0.0280 -0.2155  0.2204
96569W        W39486  13.314  30.272   0.054  0.1247  0.0338  0.0041
96570W        W39487  12.553  32.294   1.282  0.0351  0.2475 -0.2034
96571W        W39488  12.132  32.515   1.118  0.0527 -0.1517  0.0999
96572W        W39489  11.780  30.431   3.154  0.1210 -0.4864 -0.0722
96573W        W39490  12.367  33.080   3.648  0.1018 -0.0270  0.0432
96574W        W39491  11.236  28.431   6.389  0.2147 -0.0341 -0.0004
96575W        W39492  14.320  30.453   0.268 -0.0207  0.0200  0.1227
96576W        W39493  11.797  31.128   4.416 -0.0857  0.1721 -0.2062
96577W        W39494  13.575  31.548   1.786 -0.0343  0.0278 -0.1077
96578W        W39495  15.018  29.079   1.270  0.2895  0.1428 -0.0214
96579W        W39496  14.818  32.616   0.372  0.1898 -0.0892 -0.1380
96580W        W39497  11.921  29.967   2.426 -0.4058  0.2326 -0.0608
96581W        W39498  13.370  31.738   2.214 -0.1286  0.0641  0.0962
96582W        W39499  13.392  30.762   6.053  0.0794  0.2908  0.2322
96583W        W39500  11.281  29.959   0.275 -0.0036  0.0607 -0.0719
96584W        W39501  13.777  29.338   1.701 -0.0828 -0.0152 -0.2000
96585W        W39502  11.484  31.908   0.166  0.2160 -0.0691  0.1386
96586W        W39503  13.559  29.953   2.644  0.0645 -0.0856  0.2391
96587W        W39504  12.542  29.704   1.272 -0.1274 -0.0256 -0.0494
96588W        W39505  14.315  29.574   2.947  0.0279  0.0297  0.1431
96589W        W39506  14.643  32.034   2.418  0.1999 -0.0659 -0.2256
96590W        W39507  14.089  32.025   3.522  0.1477  0.0501 -0.1160
96591W        W39508  11.976  29.635   0.312  0.0876 -0.1306 -0.0565
96592W        W39509  14.688  30.758   0.450 -0.1378  0.0624 -0.0831
96593W        W39510  12.589  33.942   3.032 -0.1527  0.0732 -0.0304
96594W        W39511  12.554  32.807   1.182 -0.0482 -0.0153  0.0481
96595W        W39512  13.842  33.446   1.654  0.1550  0.2031 -0.1263
96596W        W39513  14.007  31.093  31.361 -0.3473  0.0305  0.3522
96597W        W39514  11.034  27.607   2.653  0.0242  0.2506 -0.2596
96598W        W39515  11.809  31.130   0.828 -0.2295  0.0729  0.0723
96599W        W39516  12.313  33.693   1.002 -0.0120 -0.2838  0.1468
96600W        W39517  13.978  30.452   1.259  0.0266 -0.2400  0.0147
96601W        W39518  10.028  29.726   3.892 -0.1856 -0.0860  0.1302
96602W        W39519  12.709  30.547   1.933 -0.3543  0.1430  0.2878
96603W        W39520  11.516  32.792   2.253  0.0412  0.1289  0.0145
96604W        W39521  14.891  30.312   0.909  0.1241 -0.0441  0.3103
96605W        W39522  13.792  32.604   8.182 -0.1432 -0.1953 -0.1044
96606W        W39523  13.021  30.549   4.185  0.1392  0.1222 -0.0788
96607W        W39524  14.390  30.565   3.107  0.1696 -0.4624 -0.1441
96608W        W39525  14.636  30.620   5.340  0.0318  0.2953  0.2494
96609W        W39526  12.147  29.889   5.949 -0.2133  0.0620  0.0569
96610W        W39527  12.200  31.986   5.411 -0.0658 -0.1295  0.0411
96611W        W39528  12.884  28.364   5.935  0.2226 -0.3214  0.1092
96612W        W39529  13.051  32.409   7.622 -0.1384 -0.0727  0.0908
96613W        W39530  13.147  30.588   6.969 -0.2139 -0.0037  0.0857
96614W        W39531  14.153  32.151   4.853 -0.0369 -0.2091  0.0545
96615W        W39532  12.608  29.391   7.238 -0.0295 -0.1234  0.2406
96616W        W39533  12.920  32.864   8.140  0.0039 -0.2684 -0.1004
96617W        W39534  12.558  28.637   4.824 -0.1739 -0.5464  0.0081
96618W        W39535  10.780  30.386   7.168  0.0405  0.1071  0.0982
96619W        W39536  12.766  28.168  10.319 -0.2147 -0.1084 -0.0327
96620W        W39537  10.470  28.982   6.225 -0.0246 -0.1791 -0.1324
96621W        W39538  12.240  30.279   6.787 -0.0429 -0.2478 -0.1912
96622W        W39539  13.436  29.722   7.034  0.0634  0.1995 -0.1269
96623W        W39540  13.642  31.357   7.206  0.1818  0.1066 -0.1402
96624W        W39541  14.790  28.590   9.017  0.1815 -0.1338 -0.1014
96625W        W39542  13.060  29.725   9.066  0.0712 -0.1749  0.1150
96626W        W39543  12.597  33.619   4.638 -0.1475  0.0858 -0.1154
96627W        W39544  12.914  30.124   4.389  0.0035  0.0671 -0.0330
96628W        W39545  11.653  31.881   6.497 -0.0331 -0.0835  0.0518
96629W        W39546  12.565  31.448   6.217 -0.1978  0.2379 -0.2762
96630W        W39547  12.906  29.513   7.784  0.0014 -0.0931 -0.2568
96631W        W39548  14.569  31.576   7.776  0.2004  0.0333  0.0301
96632W        W39549  13.288  32.404   4.994 -0.1307 -0.0757 -0.0664
96633W        W39550  12.118  32.096   7.533  0.0554 -0.2489  0.0913
96634W        W39551  15.359  30.088   8.937  0.3499 -0.0297  0.0438
96635W        W39552  10.977  30.854   4.653  0.4797 -0.4500  0.1324
96636W        W39553  11.544  31.093   6.244 -0.2056 -0.1650  0.1278
96637W        W39554  12.635  30.658   4.472  0.1459  0.0108  0.1519
96638W        W39555  14.242  32.111   3.960  0.1281  0.0677 -0.2016
96639W        W39556  13.257  32.619   7.254  0.3387  0.1980  0.0338
96640W        W39557  13.617  32.726   7.676  0.3008  0.0667  0.0832
96641W        W39558   9.141  31.080   2.092 -0.3368  0.0054  0.1823
96642W        W39559  13.216  32.155   8.584  0.2875 -0.0148 -0.2475
96643W        W39560  11.615  31.934   7.327 -0.1931 -0.1517 -0.0821
96644W        W39561  12.850  30.157   8.030 -0.1566 -0.2118  0.0125
96645W        W39562  13.210  30.958   6.587  0.0848  0.1014  0.0358
96646W        W39563  12.407  31.639   6.836  0.4600  0.0272 -0.1735
96647W        W39564  12.139  31.171   6.415  0.0216  0.0041  0.1249
96648W        W39565  11.677  30.918   7.133 -0.1592  0.0453 -0.1745
96649W        W39566   9.708  32.871   7.640 -0.1729  0.1933  0.3860
96650W        W39567  13.320  29.108   7.764  0.0811  0.0957 -0.3110
96651W        W39568  11.509  32.392   6.492  0.0244 -0.1578 -0.0271
96652W        W39569  12.140  31.725   6.346  0.0720 -0.0773 -0.0003
96653W        W39570  13.081  30.123   5.137 -0.2151 -0.0754  0.1512
96654W        W39571  14.436  29.763   5.207 -0.2772 -0.1254 -0.2904
96655W        W39572  12.836  30.660   5.960 -0.1623  0.0184 -0.0943
96656W        W39573  12.081  33.046   5.281 -0.0401  0.2436  0.0566
96657W        W39574  12.113  31.157   7.102  0.2393  0.1704 -0.2860
96658W        W39575  14.662  32.865   7.918  0.2410 -0.0892 -0.2635
96659W        W39576  13.767  30.751   3.796 -0.0365 -0.0493  0.3203
96660W        W39577  13.198  29.274   5.888 -0.0591  0.0787 -0.0298
96661W        W39578  13.641  33.437   8.399 -0.1224 -0.2512  0.1323
96662W        W39579  13.296  29.694   6.438 -0.2957  0.0861  0.2188
96663W        W39580  15.101  32.732   4.173  0.2497  0.0290 -0.2051
96664W        W39581  14.479  31.008   5.639 -0.0171  0.0702  0.1845
96665W        W39582  12.538  30.778   5.096 -0.0376  0.0110  0.2905
96666W        W39583  12.588  31.965   7.614 -0.1816  0.1737 -0.0177
96667W        W39584  11.994  32.515   8.682  0.2953 -0.2657  0.1749
96668W        W39585  10.521  32.149   7.883  0.2673 -0.0879 -0.2203
96669W        W39586  12.055  30.643   3.801 -0.2900 -0.1572 -0.3328
96670W        W39587  15.688  30.889   6.637 -0.2665  0.0358  0.0330
96671W        W39588  10.570   1.113   8.569 -0.1925 -0.2401  0.1949
96672W        W39589  14.199  31.468   4.283 -0.2141  0.0969  0.3089
96673W        W39590  12.700  30.170   6.025 -0.1305  0.2167  0.2408
96674W        W39591  14.915  32.789   6.834  0.0189  0.0271  0.2577
96675W        W39592  13.659  31.665   4.305  0.0359 -0.0173 -0.0466
96676W        W39593  13.293  29.077   5.433  0.1628 -0.1989  0.1292
96677W        W39594  12.383  28.678   9.846  0.3024 -0.0621  0.3403
96678W        W39595  12.410  31.914   5.899  0.0991 -0.1851 -0.0257
96679W        W39596  12.346  32.508   4.120 -0.0142 -0.0867 -0.1537
96680W        W39597  14.657  30.868   8.794  0.0099 -0.2858 -0.0187
96681W        W39598  15.447  30.846   5.529  0.1971  0.2052  0.1542
96682W        W39599  11.361  32.448   7.308 -0.3487  0.0114  0.2576
96683W        W39600  12.829  31.996   9.641 -0.0580 -0.0041  0.0602
96684W        W39601  11.086  29.786   9.960 -0.1194 -0.0233  0.3849
96685W        W39602  11.626  31.766   5.091  0.0110  0.1723  0.1934
96686W        W39603  11.054  31.791   5.905 -0.2596 -0.1297 -0.1365
96687W        W39604  11.250  30.719   6.002  0.2087  0.2968  0.0470
96688W        W39605  11.288  30.423   6.426  0.2435 -0.0870 -0.1726
96689W        W39606  12.320  32.402   5.902 -0.6945  0.3610 -0.0652
96690W        W39607  15.676  30.096   4.557  0.2956 -0.1468 -0.2020
96691W        W39608  12.802  29.023   8.053  0.1650 -0.0064  0.1478
96692W        W39609  13.261  30.151   7.248 -0.1392  0.0999 -0.0937
96693W        W39610  11.987  31.835   3.718  0.1382 -0.3676  0.2240
96694W        W39611  12.740  33.850   7.516 -0.0477  0.0879 -0.0975
96695W        W39612  12.877  28.972   7.572  0.0296 -0.0371  0.0261
96696W        W39613  13.047  32.991   4.741  0.1102  0.0894 -0.2200
96697W        W39614  10.776  30.739   6.775 -0.0081 -0.1406  0.0039
96698W        W39615  11.131  29.914   8.337 -0.0046  0.0362  0.1613
96699W        W39616  11.652  30.096   7.810  0.0481  0.2911 -0.2672
96700W        W39617  12.804  30.731   7.318  0.0586  0.1048  0.0679
96701W        W39618  12.720  29.962   7.600 -0.2382  0.1565  0.2530
96702W        W39619  11.297  29.484   4.930 -0.0904  0.3575  0.2751
96703W        W39620  15.679  29.713   4.872  0.0435 -0.2357  0.2534
96704W        W39621  13.415  31.246   6.139 -0.2820  0.1498  0.0912
96705W        W39622  11.950  32.461   5.511  0.1079 -0.2438 -0.5130
96706W        W39623  14.898  28.496   8.389 -0.2737  0.0149  0.2983
96707W        W39624  13.582  34.305   4.481 -0.0175  0.2599 -0.1959
96708W        W39625  15.840   1.303  11.217 -0.0402  0.0611  0.0875
96709W        W39626  14.523  31.618   5.577  0.0241  0.0834 -0.0272
96710W        W39627  12.069  29.423   9.406  0.1270 -0.0556  0.0717
96711W        W39628  12.396  29.464   5.712  0.0529 -0.1382  0.1332
96712W        W39629  11.780  33.173   6.015 -0.1979  0.1501 -0.0220
96713W        W39630  14.060  31.605   4.748  0.1954  0.1488 -0.1894
96714W        W39631  12.477  30.478   4.029 -0.2703  0.0136 -0.0074
96715W        W39632  13.509  32.618   6.434  0.0821 -0.1834 -0.0109
96716W        W39633  12.205  30.318   4.859 -0.1439 -0.2325 -0.0687
96717W        W39634  12.788  31.017   6.325 -0.0904 -0.0353 -0.0415
96718W        W39635  12.137  30.151   7.814  0.0858  0.0116  0.0184
96719W        W39636  15.348  32.022   6.691  0.0297  0.0612  0.0596
96720W        W39637  13.363  28.869   6.995 -0.1853 -0.1071  0.0943
96721W        W39638  11.872  28.762   3.705  0.1359 -0.3005 -0.4298
96722W        W39639  12.959  29.777   7.152  0.4971 -0.0599 -0.2286
96723W        W39640  11.236  31.225   6.997 -0.2034  0.0899 -0.1457
96724W        W39641  11.921  29.336   7.256 -0.0650  0.0690 -0.1196
96725W        W39642  12.989  32.377   5.779  0.0950  0.0197 -0.0446
96726W        W39643  14.832  29.267   5.479  0.0963  0.0942  0.4624
96727W        W39644  10.327  31.494   9.199  0.2664 -0.0246  0.2758
96728W        W39645  12.747  31.791   8.656  0.0923  0.4747  0.0765
96729W        W39646  12.243  31.036   5.504  0.1257 -0.2588 -0.1133
96730W        W39647  12.518  31.405   8.897 -0.0407 -0.1182 -0.2966
96731W        W39648  12.867  31.711   4.109  0.0506 -0.0054 -0.2899
96732W        W39649  12.432  30.160   4.440  0.2569 -0.0925  0.2098
96733W        W39650  14.524  33.761   7.930  0.1962  0.1333 -0.0201
96734W        W39651  13.454  33.661   6.137 -0.3094 -0.0549 -0.1673
96735W        W39652  10.941  30.351   5.051  0.0049  0.0602  0.1061
96736W        W39653  14.969  29.426   3.762  0.4133 -0.0518 -0.1614
96737W        W39654  10.720   0.106   9.530  0.0452  0.0229  0.1621
96738W        W39655  14.017  32.589   6.517 -0.1763 -0.1720  0.0087
96739W        W39656  12.923  31.805   6.219 -0.1782  0.1260 -0.1053
96740W        W39657  13.018  33.418   2.592  0.0354 -0.2311 -0.1881
96741W        W39658  15.457  32.506   3.181  0.2175 -0.1516 -0.2016
96742W        W39659  13.570  32.165   8.231 -0.0170  0.2348  0.0610
96743W        W39660  13.321  33.177   7.181 -0.0955 -0.1406 -0.1694
96744W        W39661  12.980  31.397   5.942  0.0427 -0.1324  0.0679
96745W        W39662  12.053  30.347   6.163  0.2520  0.1991  0.1893
96746W        W39663  13.772  30.004   3.421 -0.0160  0.0429 -0.0810
96747W        W39664  13.559  30.902   4.874 -0.0786  0.1522 -0.1345
96748W        W39665  10.910  32.789   5.638 -0.2975  0.0625 -0.1850
96749W        W39666  12.343  30.514   8.194  0.0156  0.0532  0.0057
96750W        W39667  14.244  30.023   6.622 -0.2781  0.0089 -0.4289
96751W        W39668  12.402  29.874   7.055  0.0406 -0.1208 -0.1688
96752W        W39669  13.282  29.311   8.246 -0.1439 -0.0391  0.3674
96753W        W39670  13.856  31.485   8.803  0.1907 -0.2177  0.2014
96754W        W39671  14.153  31.171   7.901  0.1463  0.0514  0.1224
96755W        W39672  12.813  29.165   5.298  0.3835 -0.2224  0.1674
96756W        W39673  12.530  29.623   9.098  0.1136  0.2458 -0.0457
96757W        W39674  12.449  30.928   8.464  0.4828 -0.2705 -0.0384
96758W        W39675  11.979  34.166   8.729 -0.0244  0.1105 -0.1335
96759W        W39676  14.099  32.092   8.251 -0.0583  0.1044 -0.1469
96760W        W39677  13.100  31.443   6.525  0.3141  0.1908 -0.2065
96761W        W39678  12.806  28.930   7.041  0.1426 -0.2836  0.0855
96762W        W39679  11.807  33.339   4.254  0.0637 -0.1373  0.1315
96763W        W39680  14.197  33.829   5.837 -0.3609 -0.1062 -0.1180
96764W        W39681  11.821  31.873   2.538 -0.1061 -0.1218 -0.3014
96765W        W39682  13.665  29.399   6.672  0.2551 -0.0852  0.0901
96766W        W39683  13.014  31.441   5.448  0.1354 -0.2263 -0.2306
96767W        W39684  12.975  32.898   0.792  0.2548  0.0527 -0.0196
96768W        W39685  14.063  32.582   8.824 -0.3004 -0.3749 -0.1083
96769W        W39686  11.993  33.061   6.908  0.2435 -0.0968  0.0202
96770W        W39687  13.462  28.914   5.980 -0.1477  0.0240 -0.0785
96771W        W39688  12.225  31.691   7.837 -0.1579 -0.1087  0.1168
96772W        W39689  11.669  30.371   5.134 -0.0771  0.0069  0.0180
96773W        W39690  12.487  31.508   5.569  0.0406 -0.1419  0.0263
96774W        W39691  14.856  30.694   4.709  0.2611  0.1086  0.0438
96775W        W39692  14.370  31.422   6.029  0.1004  0.3506  0.1178
96776W        W39693  12.001  28.663   6.572  0.1583 -0.0130  0.3932
96777W        W39694  13.108  29.611   5.414 -0.2374  0.0977  0.1736
96778W        W39695  12.013   0.373   6.241 -0.3053 -0.3640 -0.1498
96779W        W39696  13.497  32.231   7.691  0.3237  0.0397  0.5059
96780W        W39697  16.050  30.450   4.911  0.2020  0.1858 -0.0299
96781W        W39698  14.106  31.912   7.544  0.0645  0.0081  0.0837
96782W        W39699  13.263  31.389   7.547 -0.0971 -0.0726 -0.1566
96783W        W39700  10.495  30.995   3.781 -0.0283  0.1945  0.1613
96784W        W39701  14.210  31.209   6.504  0.0795  0.2087 -0.0889
96785W        W39702  11.466  32.163   6.026  0.0975 -0.1516  0.0867
96786W        W39703  11.551  31.590   3.695 -0.1584 -0.0010 -0.0462
96787W        W39704  12.535  33.967   6.434  0.4613  0.1506  0.0601
96788W        W39705  13.112  30.069   5.678 -0.2578 -0.0432  0.2497
96789W        W39706  10.912  33.398   6.426  0.0770  0.2510 -0.3431
96790W        W39707  11.938  29.370   9.903  0.0600  0.1501  0.0734
96791W        W39708  13.675  31.393   7.821 -0.1594  0.0323 -0.3384
96792W        W39709  12.950  30.510   6.475  0.2973  0.4703 -0.0918
96793W        W39710  12.624  29.968   8.468 -0.3183 -0.3232 -0.0025
96794W        W39711  12.338  30.727   7.300 -0.0982 -0.1499  0.4312
96795W        W39712  14.534  31.771   8.253  0.0725  0.2389 -0.0806
96796W        W39713  14.843  31.886   6.961  0.0430  0.2617 -0.0463
96797W        W39714  12.726  30.037   6.728 -0.0737 -0.0471  0.1842
96798W        W39715  13.043  27.690   7.467 -0.0037  0.0395  0.2190
96799W        W39716  13.493  32.460   5.450 -0.2286  0.1492  0.2108
96800W        W39717  13.056  30.927   7.764 -0.0363 -0.0975 -0.2550
96801W        W39718  11.966  32.307   6.365 -0.6711  0.0813 -0.1624
96802W        W39719  11.620  31.310   6.690  0.0375  0.1246 -0.2339
96803W        W39720  12.752  30.896   3.893  0.0926 -0.1376 -0.1518
96804W        W39721  13.249  29.192   9.167  0.4305 -0.2456  0.0499
96805W        W39722  11.563  32.735   6.967  0.0118 -0.0296 -0.1044
96806W        W39723  12.675  32.228   5.406 -0.0052 -0.0274 -0.0981
96807W        W39724  10.979  32.263   7.628 -0.1422 -0.0198 -0.0137
96808W        W39725  16.689  30.675   2.655  0.1783  0.1810 -0.1041
96809W        W39726  13.065  30.535   5.471  0.0886 -0.1878 -0.1699
96810W        W39727  14.979  31.581   7.473  0.1151  0.1114  0.1064
96811W        W39728  15.351  29.252   8.682  0.0993 -0.2025  0.2216
96812W        W39729  14.815  31.101   6.585 -0.0622 -0.0892 -0.0716
96813W        W39730  11.936  29.210   7.762  0.2468  0.0762  0.1079
96814W        W39731  11.329  29.317   6.182 -0.2005 -0.0211 -0.1155
96815W        W39732  14.879  31.970   5.396 -0.2803 -0.0024 -0.5396
96816W        W39733  12.831  31.547   7.799  0.0568  0.2049  0.3645
96817W        W39734  12.386  34.157   7.703 -0.1549 -0.3313 -0.0823
96818W        W39735  12.444  31.443   8.324 -0.1649 -0.2112  0.3370
96819W        W39736  13.737  32.373   4.588 -0.0759  0.3222  0.2327
96820W        W39737  12.058  29.817   4.511 -0.0805 -0.1489  0.1402
96821W        W39738  13.379  31.780   7.875 -0.1932  0.1698  0.1402
96822W        W39739  16.164  33.843   6.696  0.0071  0.3449 -0.2150
96823W        W39740  12.606  33.228   6.094 -0.0619 -0.0261 -0.1099
96824W        W39741  15.159  28.401   5.646  0.1445 -0.1020  0.3383
96825W        W39742  11.465  29.608   7.199 -0.0022  0.0835  0.0837
96826W        W39743  13.181  30.108   6.204  0.0855 -0.0819 -0.0635
96827W        W39744  13.025  30.415   7.648  0.0236  0.2314 -0.1343
96828W        W39745  12.462  32.157   6.366  0.0250 -0.3477  0.4426
96829W        W39746  10.885  30.260   6.602 -0.0381 -0.1895  0.0043
96830W        W39747  14.411  31.928   6.187 -0.1689 -0.2067 -0.0704
96831W        W39748  14.498  30.913   6.174 -0.2363 -0.1447  0.0612
96832W        W39749  13.147  31.076   7.100 -0.0932 -0.4319 -0.1911
96833W        W39750  13.814  30.986   7.545 -0.0741  0.0867 -0.0360
96834W        W39751  13.181  29.266   9.718  0.2669  0.1659  0.2497
96835W        W39752  11.852  29.567   8.681  0.1491 -0.1832  0.2697
96836W        W39753  14.005  33.388   6.115 -0.1235 -0.0491  0.3429
96837W        W39754  12.471  28.660   5.804  0.0502 -0.0993  0.1971
96838W        W39755  13.236  28.716   8.131  0.1425  0.1451 -0.0274
96839W        W39756  13.887  31.516   6.187 -0.1656 -0.0193 -0.1078
96840W        W39757  13.266  31.453   4.973  0.1742 -0.1260  0.0526
96841W        W39758  11.778  30.198   6.630  0.1034 -0.0337  0.0341
96842W        W39759  14.285  30.884   9.755  0.1257 -0.3995  0.1447
96843W        W39760  13.414  31.808   3.058  0.3026 -0.0005  0.0702
96844W        W39761  13.236  28.146   7.997 -0.2091 -0.1196  0.2398
96845W        W39762  14.431  32.463   3.069  0.1233  0.0608  0.1919
96846W        W39763  13.570  33.208   6.100  0.2483 -0.1123  0.2606
96847W        W39764  13.232  29.804   3.530  0.1130 -0.0911  0.1538
96848W        W39765  11.850  31.204   4.941  0.1404 -0.1176 -0.0037
96849W        W39766  12.489  33.300   9.168 -0.2111 -0.0140 -0.0914
96850W        W39767  12.971  30.709   4.826  0.2099 -0.2212 -0.0134
96851W        W39768  13.458  31.256   3.545 -0.2092  0.0195 -0.3203
96852W        W39769  12.265  32.120   6.916  0.2361 -0.2149 -0.2882
96853W        W39770  13.697  31.698   8.355 -0.3880  0.0253 -0.0694
96854W        W39771  14.054  31.910   5.860 -0.1914 -0.2205 -0.2075
96855W        W39772  14.071  29.144   7.722  0.1342 -0.0656 -0.3561
96856W        W39773   9.879  30.942   4.133  0.3844  0.1792  0.1634
96857W        W39774  12.663  31.084   6.955  0.2769  0.1309 -0.0562
96858W        W39775  12.349  34.355   8.415  0.4083  0.1203  0.1059
96859W        W39776  10.647  33.071   7.908 -0.3681 -0.0136  0.2366
96860W        W39777  11.818  31.498   9.081  0.2279 -0.2794 -0.1293
96861W        W39778  12.975  28.666   8.732 -0.0088  0.0664  0.2830
96862W        W39779  14.519  31.140   7.030  0.1801 -0.4123 -0.0071
96863W        W39780  13.824  29.004   6.383  0.1187  0.1134 -0.2627
96864W        W39781  15.398  31.531   7.668  0.5576  0.1160  0.4966
96865W        W39782  12.907  33.331   7.453 -0.0739 -0.4907  0.2189
96866W        W39783  11.950  32.468   7.245 -0.2463 -0.2078 -0.1198
96867W        W39784  13.058  32.690   6.751 -0.2348  0.4307  0.0043
96868W        W39785  14.963  31.730   6.457  0.1020  0.1875 -0.1341
96869W        W39786  11.929  33.581   5.175 -0.0128  0.0588  0.2338
96870W        W39787  10.804  30.606   6.239  0.0166 -0.0463 -0.1074
96871W        W39788  13.409  32.113   7.135  0.3296 -0.1786  0.1046
96872W        W39789  13.744  33.114   5.326  0.1142  0.0720 -0.0549
96873W        W39790  13.937  29.882   5.409 -0.1813  0.0695  0.0635
96874W        W39791  13.779  30.960   6.377 -0.1195  0.1910  0.2145
96875W        W39792  13.791  33.489  10.780 -0.0181 -0.1860  0.2369
96876W        W39793   9.745  30.000   6.897  0.0956 -0.2304 -0.1328
96877W        W39794  11.663  31.184   5.745 -0.0084 -0.4479  0.0161
96878W        W39795  14.593  32.581   4.017 -0.3363 -0.2324  0.0137
96879W        W39796  12.061  32.401   4.576  0.0696  0.0992  0.0783
96880W        W39797  14.977  33.800   9.466  0.1280  0.1716 -0.1079
96881W        W39798  13.440  30.208   3.137  0.3214 -0.1222 -0.0236
96882W        W39799  11.565  31.013   7.601 -0.2335  0.0836 -0.0808
96883W        W39800  10.614  30.408   3.866  0.1101 -0.1877  0.0258
96884W        W39801  13.222  32.161   3.826 -0.0123 -0.2314  0.3206
96885W        W39802  12.642  29.851   5.467  0.4367  0.1598 -0.1518
96886W        W39803  15.043  33.593   8.973  0.1654 -0.2457  0.2036
96887W        W39804  12.220  29.623   2.585  0.3622  0.3122 -0.2880
96888W        W39805  13.263  30.366   8.285  0.0500  0.2258  0.0777
96889W        W39806  13.439  29.737   5.865  0.1502  0.0628 -0.0487
96890W        W39807  16.165   0.876  10.858  0.1300  0.0007  0.0445
96891W        W39808  13.797  31.771   6.987  0.2635  0.0437 -0.0902
96892W        W39809  12.690  30.294   4.873  0.1071  0.0113  0.1399
96893W        W39810  12.790  31.570   7.246 -0.2285 -0.1480  0.1015
96894W        W39811  13.979  29.024   5.773  0.0979 -0.1962 -0.2460
96895W        W39812  12.081  34.316   9.259 -0.1455 -0.1474  0.1262
96896W        W39813  13.450  33.063   1.654 -0.0508 -0.0860  0.3256
96897W        W39814  11.742  29.843   5.027 -0.1109  0.0109 -0.0444
96898W        W39815  14.067  31.736   6.566 -0.0403 -0.1743 -0.1889
96899W        W39816  10.773  28.667   7.600  0.3128  0.0681  0.4260
96900W        W39817  12.299  29.376   5.230  0.1370 -0.2263  0.0184
96901W        W39818  13.588  32.016   5.723 -0.1265  0.0454  0.0355
96902W        W39819  12.286  32.973   7.292 -0.0188 -0.0440 -0.0508
96903W        W39820  12.175  32.626   6.650  0.2836  0.0881 -0.0148
96904W        W39821  12.436  33.400   7.064 -0.0839  0.1031  0.3090
96905W        W39822  11.758  27.959   3.430  0.0003  0.3788  0.1163
96906W        W39823  15.299  29.801   7.382  0.0355  0.1752  0.0580
96907W        W39824  12.467  31.070   7.902  0.3179 -0.0222 -0.0005
96908W        W39825  14.138  27.681   6.825  0.2940 -0.0609 -0.1698
96909W        W39826  12.653  31.886   8.154  0.1931  0.2941  0.1621
96910W        W39827  13.177  30.152   6.747 -0.0659 -0.1861  0.0584
96911W        W39828  13.645  33.694   7.903 -0.2361 -0.0353  0.2445
96912W        W39829  13.317  31.679   6.931 -0.0947 -0.2446  0.1423
96913W        W39830  13.606  32.914   4.404 -0.2301  0.5691  0.0327
96914W        W39831  14.856  31.955   7.911 -0.1601  0.1197  0.2370
96915W        W39832  12.616  32.130   3.925 -0.0841  0.0682  0.0367
96916W        W39833  14.683  33.765   7.474 -0.4540 -0.1734  0.1147
96917W        W39834  13.255  31.052   5.702  0.2383 -0.0595 -0.3396
96918W        W39835  14.368  30.042   4.220 -0.3386  0.3077  0.0074
96919W        W39836  12.530  29.828   8.016  0.3507 -0.0027  0.1650
96920W        W39837  13.241  29.794   7.547  0.2432 -0.4010 -0.0507
96921W        W39838  14.025  33.162   8.878  0.1070  0.2202 -0.0639
96922W        W39839  11.786  30.584   5.566 -0.3339 -0.1190  0.0949
96923W        W39840  12.190  33.452   2.303 -0.0321  0.1828 -0.1717
96924W        W39841  14.560  31.145   7.546  0.0282 -0.3927 -0.0781
96925W        W39842   9.560  31.197   3.567  0.1402  0.1073  0.0472
96926W        W39843  14.479  30.292   7.523  0.0268 -0.0400  0.2239
96927W        W39844  14.552  31.560   7.242  0.1609  0.0544 -0.2147
96928W        W39845  11.850  30.332   7.119  0.2892  0.1535 -0.0953
96929W        W39846  15.700  32.186   7.181  0.0436  0.1710  0.0204
96930W        W39847  13.060  33.474   6.379  0.0960 -0.1597  0.2849
96931W        W39848  14.085  29.560   6.403  0.0765  0.0997 -0.3357
96932W        W39849  10.975  31.330   4.924  0.0142  0.1405 -0.0111
96933W        W39850  13.115  33.465   5.704 -0.1669  0.0666  0.3248
96934W        W39851  13.469  30.519   6.479 -0.0739 -0.2407  0.1494
96935W        W39852  13.135  29.397   6.805  0.0477  0.0308  0.1976
96936W        W39853  11.891  32.235   5.072 -0.0802 -0.3053 -0.2466
96937W        W39854  13.301  29.118   6.419  0.0453  0.3048 -0.2815
96938W        W39855  12.616  33.839  10.353 -0.1085  0.0858  0.2162
96939W        W39856  12.021  30.797   7.933  0.2533  0.0651 -0.1981
96940W        W39857  11.350  32.177   2.197  0.0030  0.0128 -0.2198
96941W        W39858  12.122  32.569   7.742  0.0908  0.0035 -0.0169
96942W        W39859  12.013  32.407   3.609 -0.3760  0.1682 -0.1149
96943W        W39860  12.576  34.254   5.247  0.1053  0.0751  0.0758
96944W        W39861  13.432  32.539   5.929  0.2573  0.1743  0.2875
96945W        W39862  13.502  30.153   5.371 -0.1554  0.0581 -0.1676
96946W        W39863  13.615  32.648   6.957 -0.2545 -0.1098 -0.1311
96947W        W39864  11.730  30.734   6.587  0.2946 -0.2763 -0.4107
96948W        W39865  14.495  29.756   6.122  0.0366 -0.0658  0.0478
96949W        W39866  14.153  29.315   5.061 -0.0339 -0.0102  0.0145
96950W        W39867  13.639  31.377   6.602  0.2171 -0.0220 -0.0277
96951W        W39868  11.005  28.940   6.282 -0.0958  0.2719 -0.1139
96952W        W39869  13.480  31.328   2.986  0.1932 -0.0937  0.3016
96953W        W39870  12.185  31.602   7.356  0.0674 -0.1729 -0.0357
96954W        W39871  13.414  28.425   8.536 -0.0926  0.1442 -0.1038
96955W        W39872  12.322  33.373   8.177 -0.1817  0.2205  0.1548
96956W        W39873  11.069  32.133   6.381  0.0170  0.1349 -0.1051
96957W        W39874  13.185  30.995   5.209  0.2355  0.1019 -0.1123
96958W        W39875  13.565  32.808   4.900 -0.0834 -0.1031  0.2640
96959W        W39876  12.807  31.206   5.048 -0.0645  0.1070 -0.0886
96960W        W39877  10.084  29.546   6.026 -0.3941  0.1747 -0.0767
96961W        W39878  12.919  31.884   5.722 -0.0689  0.0938  0.0834
96962W        W39879  13.402  33.027   5.695  0.0807  0.0106 -0.1098
96963W        W39880  14.334  29.453   5.619  0.0527 -0.0832 -0.0135
96964W        W39881  13.515  33.262   9.357  0.0705  0.0172  0.1044
96965W        W39882  10.449  31.825   4.350 -0.0970 -0.1927  0.0858
96966W        W39883  14.434  28.968   8.818  0.1223  0.1354  0.0307
96967W        W39884  14.644  27.538   7.635  0.2397 -0.0033 -0.1485
96968W        W39885  10.734  29.959   6.230 -0.0727  0.0876 -0.1924
96969W        W39886  13.792  31.190   8.328 -0.0561 -0.0750  0.3596
96970W        W39887  12.448  30.606   6.323  0.4986  0.1613 -0.0674
96971W        W39888  14.719  33.385   3.187  0.0506 -0.0764  0.0143
96972W        W39889  12.898  30.732   8.265  0.0189 -0.1867  0.0351
96973W        W39890  12.156  31.791   8.983 -0.0383 -0.0750 -0.0404
96974W        W39891  12.104  30.110   9.231 -0.2038 -0.0277 -0.0854
96975W        W39892  13.458  31.922   4.760 -0.3299  0.2380 -0.0589
96976W        W39893  11.763  31.015  10.370 -0.2558  0.2067  0.1508
96977W        W39894  14.465  31.768   5.081 -0.3680  0.1991  0.1340
96978W        W39895  13.611  29.390   6.180  0.2695 -0.1490  0.2781
96979W        W39896  14.096  31.413   7.475 -0.0101  0.1313 -0.3845
96980W        W39897   9.974  29.241   7.962  0.2474 -0.0455 -0.2670
96981W        W39898  12.063  31.366   8.659  0.2927 -0.0217  0.0047
96982W        W39899  14.032  31.497   5.590 -0.0862 -0.1914 -0.0453
96983W        W39900  10.410  28.302   6.639 -0.3314  0.3495 -0.2751
96984W        W39901  14.971  29.487   7.051 -0.4035  0.3672 -0.1456
96985W        W39902  12.409  32.064   3.493  0.2746 -0.0397  0.0402
96986W        W39903  12.464  31.001   5.958  0.1753 -0.1176  0.1173
96987W        W39904  12.157  33.401   5.669  0.2105 -0.0469  0.2598
96988W        W39905  14.566  31.150   8.148  0.0960  0.0433 -0.0526
96989W        W39906  13.940  30.033   7.779  0.3418  0.1330 -0.0626
96990W        W39907  13.620  32.538   8.703  0.0004 -0.1381 -0.1208
96991W        W39908  13.063  29.234   4.396  0.1287  0.1613 -0.1595
96992W        W39909  14.908  28.905   5.845  0.0553  0.1374  0.0201
96993W        W39910  15.840  33.322   5.883 -0.1331  0.2637 -0.1555
96994W        W39911  14.532  33.237   8.359  0.1282  0.2682 -0.2668
96995W        W39912  13.685  34.148   9.567 -0.3056 -0.0402  0.0513
96996W        W39913  14.577  32.029   7.438 -0.1111 -0.0910  0.2093
96997W        W39914  12.097  28.133   6.618  0.0815 -0.3473  0.0020
96998W        W39915  13.185  30.116   3.909  0.1760 -0.2580  0.0128
96999W        W39916  13.915  31.068   5.824 -0.0929 -0.5062  0.1449
97000W        W39917  14.806  31.372   8.652 -0.1447  0.2676  0.2905
97001W        W39918  13.810  28.986   5.276 -0.2455 -0.0162 -0.1139
97002W        W39919  14.868  29.776   3.057 -0.1031  0.3471 -0.1088
97003W        W39920  12.510  33.227   9.759 -0.0639 -0.1866  0.3288
97004W        W39921  14.107  31.658   7.995  0.2664  0.1076 -0.3120
97005W        W39922  11.478  29.553  10.539 -0.2907 -0.0288 -0.1611
97006W        W39923  12.489  31.078   9.389  0.0246  0.2120  0.1692
97007W        W39924  12.320  28.839   7.960  0.3573 -0.2132  0.1465
97008W        W39925  15.047  31.420   9.379 -0.2786 -0.4855  0.2064
97009W        W39926  11.159  30.891   8.301 -0.0465 -0.1959 -0.0597
97010W        W39927  13.960  32.278   9.147 -0.0040 -0.0942 -0.0039
97011W        W39928  14.603  34.627  10.761  0.0270  0.3980  0.2805
97012W        W39929  14.477  32.543   9.957  0.1115  0.0623 -0.2716
97013W        W39930  14.858  32.411   8.829  0.0915  0.1572 -0.2429
97014W        W39931  10.211  29.346  10.008  0.0217 -0.0269 -0.1348
97015W        W39932  11.642  29.090   9.588 -0.0293  0.1270  0.0094
97016W        W39933   9.877  26.488  10.863  0.1010 -0.3716  0.0228
97017W        W39934  15.093  29.085   9.174 -0.0721  0.0661  0.2081
97018W        W39935  13.574  31.186  11.178 -0.0019 -0.0441  0.1315
97019W        W39936  11.268  31.379   9.990  0.1579  0.0201 -0.1371
97020W        W39937  13.769  29.178   9.176 -0.0544  0.3106  0.0168
97021W        W39938  14.766  34.260  11.221 -0.0609  0.0212 -0.1712
97022W        W39939  15.504  26.810   9.639 -0.1190 -0.2405 -0.0195
97023W        W39940  14.658  32.266   8.405  0.0548 -0.1361  0.1603
97024W        W39941  11.601  30.996   8.954 -0.1124  0.1382 -0.3697
97025W        W39942  13.717  31.665  11.153  0.1188  0.0520  0.1349
97026W        W39943  14.003  31.090  10.350  0.1795 -0.0477 -0.0502
97027W        W39944  14.198  27.542   9.896 -0.0537 -0.0963 -0.0803
97028W        W39945  15.361  29.962   9.462  0.0265 -0.1629 -0.1717
97029W        W39946  13.858  32.743  11.117  0.1515 -0.1048  0.3646
97030W        W39947  13.340  31.729  10.383  0.2724  0.0541 -0.0046
97031W        W39948  13.102  31.231  10.362 -0.0291  0.0344 -0.2917
97032W        W39949  13.156  31.904  11.076  0.1801 -0.0520  0.0159
97033W        W39950  11.849  31.390   9.918  0.1303 -0.3293 -0.5266
97034W        W39951  14.405  30.785   9.277 -0.3229  0.1704  0.0052
97035W        W39952  11.900  31.091   9.461 -0.0393  0.1351 -0.0977
97036W        W39953  13.835  33.135  10.389  0.1480 -0.1857 -0.0798
97037W        W39954   9.657  27.580  10.498  0.3956  0.0257  0.0811
97038W        W39955  13.358  33.060  10.311  0.1384  0.3683  0.2805
97039W        W39956   8.601  28.191  10.944 -0.1099 -0.1350 -0.2599
97040W        W39957  12.714  32.317  10.374 -0.2142 -0.1642  0.1598
97041W        W39958  12.965  32.957  10.067  0.1061 -0.0635  0.0109
97042W        W39959  14.994  30.985  10.282 -0.0358  0.0227  0.1008
97043W        W39960  13.768  30.967   8.771 -0.3428 -0.2540 -0.2265
97044W        W39961  14.800  29.917   7.396  0.1600  0.1744  0.0060
97045W        W39962  11.207  26.698  10.437 -0.2796 -0.3170 -0.3159
97046W        W39963  13.456  33.716  11.512  0.2416 -0.2109 -0.3257
97047W        W39964  11.727  29.199   9.143 -0.0082  0.1697  0.0545
97048W        W39965  13.348  33.606  11.014 -0.1155 -0.0494 -0.0079
97049W        W39966  10.768  30.765   9.120  0.3026  0.1672 -0.3776
97050W        W39967  11.475  31.890   9.956  0.2194 -0.1442 -0.0486
97051W        W39968  14.557  29.853  10.857 -0.0207 -0.0801 -0.0469
97052W        W39969  15.138  33.486   7.619 -0.1534 -0.1185 -0.2756
97053W        W39970  16.094  32.267   7.515  0.3232  0.2386  0.1154
97054W        W39971  13.728  33.215   7.496  0.0303  0.0369 -0.2504
97055W        W39972  11.347  30.697   9.283 -0.3965 -0.2247 -0.3347
97056W        W39973  12.130  30.440   8.797 -0.2459  0.2505 -0.0476
97057W        W39974  14.533  29.849   8.898 -0.2915  0.0383 -0.1467
97058W        W39975  10.761  29.136  11.210 -0.4030 -0.2507 -0.3131
97059W        W39976  14.750  33.674  10.441 -0.0273 -0.0998  0.2107
97060W        W39977  14.745  30.261  10.708 -0.0040  0.1762  0.0353
97061W        W39978  14.367  28.726  10.227  0.2915 -0.0434 -0.0641
97062W        W39979  13.336  26.278  10.727  0.0130 -0.2981 -0.1192
97063W        W39980  14.147  30.674   8.879 -0.2055  0.3580 -0.0420
97064W        W39981  14.269  31.384   8.463 -0.1275 -0.1577  0.0252
97065W        W39982  14.009   3.399  10.221 -0.1725 -0.0136 -0.0499
97066W        W39983  13.969  29.645   9.152 -0.4100  0.4266 -0.0910
97067W        W39984  13.750  32.055   9.889  0.1693  0.1231 -0.1266
97068W        W39985  12.389  32.822   8.631  0.0780  0.0153 -0.2928
97069W        W39986  12.883  31.781  10.579  0.1593  0.1982  0.1315
97070W        W39987  12.310  32.295   8.946 -0.0880 -0.2408 -0.0565
97071W        W39988  10.577  27.034  11.269 -0.1099 -0.3126  0.0206
97072W        W39989  14.759  31.515  10.110 -0.2020  0.1920  0.1841
97073W        W39990  15.999  29.611   8.124 -0.1361 -0.1986  0.2527
97074W        W39991  15.750  28.935   9.958 -0.0565 -0.0069 -0.0885
97075W        W39992  13.471  34.105   7.057  0.4232 -0.1002  0.0384
97076W        W39993  16.379  33.757   8.475  0.2151  0.1631  0.0101
97077W        W39994  14.120  29.333   8.823  0.1078 -0.0148 -0.0919
97078W        W39995  13.830  32.244   7.301  0.4016 -0.3344 -0.1584
97079W        W39996  11.916  27.441  10.633 -0.1753 -0.1422 -0.1153
97080W        W39997  14.430  29.345  11.739 -0.0119 -0.1005 -0.0424
97081W        W39998  11.856  28.679   9.757  0.2212  0.2037 -0.0307
97082W        W39999  12.544  30.151  11.069  0.1928  0.5748  0.1196
97083W        W40000  12.913  30.549  10.947 -0.1627 -0.0960 -0.2144
97084W        W40001  14.368  31.426  10.570  0.0357 -0.1005  0.0822
97085W        W40002  10.565  31.906  10.013  0.3434  0.0520  0.0102
97086W        W40003  11.850  33.046   8.289 -0.2489  0.1504 -0.2411
97087W        W40004  15.715  31.733  11.132  0.0954 -0.1918  0.2239
97088W        W40005  13.061  30.132  11.215 -0.0792  0.0249  0.0048
97089W        W40006   9.798  29.595   9.836 -0.1770  0.0848 -0.2564
97090W        W40007  12.765  29.050  10.727  0.0236 -0.0638  0.2884
97091W        W40008  12.356  30.536  10.612 -0.0623 -0.0088  0.2104
97092W        W40009  12.987  31.987  10.114  0.1854  0.2008 -0.0607
97093W        W40010  13.191  29.858  10.208 -0.2209  0.1042 -0.0805
97094W        W40011  13.880  31.559   9.786  0.1164  0.1145  0.0978
97095W        W40012  13.343  34.484   7.397  0.0777  0.0235  0.0476
97096W        W40013  14.286  27.953  11.091 -0.0066  0.0284  0.3026
97097W        W40014  13.749  30.697  10.023  0.1880  0.0348 -0.1245
97098W        W40015  11.950  30.795   8.486 -0.0077  0.0489 -0.1050
97099W        W40016  14.386  32.073   7.889 -0.2637  0.3642  0.0640
97100W        W40017  12.838  32.947   7.205  0.3255 -0.0968  0.2423
97101W        W40018   8.613  33.272   9.160  0.0692  0.1458 -0.0849
97102W        W40019  13.169   1.676  10.335  0.2867  0.2252 -0.0525
97103W        W40020  14.824  29.523  10.133  0.1501 -0.1759 -0.2459
97104W        W40021  13.624  31.796   7.478  0.0807  0.0864 -0.2058
97105W        W40022  13.650  29.979   8.737  0.0886 -0.0650  0.1338
97106W        W40023  14.038  29.231  10.139 -0.1967 -0.2758 -0.0079
97107W        W40024  14.185  31.704   9.161 -0.1792 -0.1114 -0.2738
97108W        W40025  13.513  29.651  10.524 -0.0973  0.0556 -0.0788
97109W        W40026  12.369  29.549   8.586  0.1157  0.0046  0.2793
97110W        W40027  13.141  32.249  10.657 -0.0218  0.0680  0.3730
97111W        W40028  13.899  31.775  10.255  0.0172  0.1255 -0.0874
97112W        W40029  13.478  30.748   8.046 -0.1372 -0.0041  0.2700
97113W        W40030  14.268  31.969   6.990  0.1083  0.0779 -0.2279
97114W        W40031  14.823  30.607  11.188  0.0455 -0.1318  0.0363
97115W        W40032  13.827  30.618  10.520 -0.0933 -0.0145  0.3102
97116W        W40033  11.729  28.422  10.510 -0.1556 -0.0242  0.3073
97117W        W40034  13.143  31.704   8.320 -0.0611 -0.1512 -0.0145
97118W        W40035  13.299  31.245   9.811  0.0877  0.2777 -0.0837
97119W        W40036  11.185   0.449  10.349  0.3076 -0.0733 -0.0794
97120W        W40037  14.934  28.558  10.471  0.2421  0.1768  0.2398
97121W        W40038  15.206  29.544   9.735  0.2300 -0.2272  0.0647
97122W        W40039  13.448  30.169   7.881  0.1014 -0.2493  0.0176
97123W        W40040  15.806  31.588   9.701 -0.2084 -0.0244 -0.3316
97124W        W40041  13.750  30.061   8.250  0.3510  0.1798 -0.0531
97125W        W40042  14.117  26.516  10.091  0.0180 -0.1491  0.0217
97126W        W40043  11.059  32.374  11.040  0.0139  0.1890 -0.1644
97127W        W40044  14.429  32.249  11.042 -0.0661 -0.0567 -0.2061
97128W        W40045  12.836  29.497  10.481 -0.1809  0.0880 -0.0822
97129W        W40046  13.959  33.472   9.279 -0.0918  0.0313  0.0821
97130W        W40047  12.325  32.783   8.142  0.2152  0.0682 -0.1619
97131W        W40048  10.177  29.232  10.776  0.0382  0.1371  0.2048
97132W        W40049  14.354  31.897  10.165  0.2044  0.0226  0.0617
97133W        W40050  14.224  33.165   7.300 -0.1771 -0.0307  0.3879
97134W        W40051  15.946  29.266   9.390  0.0646  0.2142  0.0273
97135W        W40052  14.081  33.407   9.779  0.1728  0.0617 -0.0566
97136W        W40053  12.897  28.736   9.845 -0.2591  0.0881  0.1636
97137W        W40054  13.965  32.214  11.179  0.1501 -0.0933 -0.0876
97138W        W40055  11.962  31.678   8.259 -0.4750  0.0106 -0.0201
97139W        W40056  12.315  27.731  10.525  0.3518 -0.2585 -0.2172
97140W        W40057  16.520  30.934   9.791 -0.1805 -0.0983 -0.2165
97141W        W40058  14.710  30.043   8.477  0.1281 -0.0327  0.5184
97142W        W40059  12.220  29.709  10.679  0.2948  0.2413 -0.3421
97143W        W40060  11.835  29.378  10.920 -0.1604 -0.4161  0.0648
97144W        W40061  10.059  28.500  11.196 -0.0850 -0.2371  0.0011
97145W        W40062  11.997  28.504   7.088 -0.0201  0.0743  0.0581
97146W        W40063  11.489  29.699  11.121 -0.1744  0.1055 -0.4037
97147W        W40064  14.865  29.528  10.681 -0.0216 -0.1073  0.1015
97148W        W40065  12.245  31.016  10.541 -0.0734  0.0541 -0.0846
97149W        W40066  11.062  31.862   9.630  0.0488  0.0725 -0.3498
97150W        W40067  12.155   1.142  10.208 -0.0179  0.2739  0.2325
97151W        W40068  12.876  31.304   8.491 -0.2009  0.0648  0.0043
97152W        W40069  13.918  32.496   9.629 -0.1063  0.1458 -0.1316
97153W        W40070  14.831  31.223  10.684 -0.0702  0.1819  0.4115
97154W        W40071  13.870  26.950  10.739 -0.0516  0.0240  0.4209
97155W        W40072  11.904  29.308  10.381 -0.0040  0.1047 -0.3015
97156W        W40073  13.288  31.256   8.150 -0.1779 -0.2037  0.1878
97157W        W40074  13.846  29.018  11.693  0.0754  0.3437  0.1219
97158W        W40075  12.968  27.244  10.517  0.0600 -0.1382  0.3146
97159W        W40076  13.895  27.682  11.274  0.3559 -0.2345 -0.1569
97160W        W40077  15.083  33.142   7.212 -0.4472 -0.1783 -0.2073
97161W        W40078  13.027  31.537   8.986 -0.1034 -0.2023 -0.4057
97162W        W40079  11.825  32.318   9.866  0.0240 -0.2002 -0.0831
97163W        W40080  15.672  32.456  11.198  0.1856  0.0337 -0.0345
97164W        W40081  13.106  28.242   9.612  0.2018 -0.3370  0.1937
97165W        W40082  12.532  28.091  10.892 -0.0834 -0.3012 -0.1018
97166W        W40083  10.780  31.948  10.558 -0.1166 -0.0235 -0.3150
97167W        W40084  13.252  27.525  11.389  0.2110 -0.0178  0.2340
97168W        W40085  15.270  28.825   8.086  0.0557  0.1892 -0.0522
97169W        W40086  12.847  30.968   8.891 -0.3409 -0.4476 -0.1819
97170W        W40087  13.422  31.055   9.204  0.2743 -0.0982 -0.1151
97171W        W40088  13.755  30.438   8.573 -0.1547  0.1249  0.4784
97172W        W40089  11.685  28.260   9.563  0.3651 -0.1893  0.1860
97173W        W40090  14.243  29.797   8.512 -0.1425  0.1856 -0.2378
97174W        W40091  13.510  27.729  10.478  0.0405 -0.1102 -0.3205
97175W        W40092  12.704  27.619  10.200  0.0368  0.2314  0.0831
97176W        W40093  11.196  31.105   9.511 -0.0437  0.0640  0.1927
97177W        W40094  13.778  30.415   9.533  0.0982  0.2210  0.1056
97178W        W40095  13.120  32.458   9.312  0.2363 -0.1606 -0.2210
97179W        W40096  16.029  32.416  10.037  0.3297 -0.3405 -0.0095
97180W        W40097  12.163  31.590   9.506 -0.1375  0.1970 -0.2345
97181W        W40098  13.909  31.454  10.726  0.2691 -0.1543 -0.0084
97182W        W40099  12.340  32.799   9.603  0.2297  0.0990 -0.3359
97183W        W40100  13.809  32.049   8.723  0.1228 -0.2480  0.0421
97184W        W40101  14.829  32.051  11.266  0.1003  0.2278 -0.1029
97185W        W40102  12.348  28.771   8.861 -0.0990 -0.1273 -0.2047
97186W        W40103  14.607  31.641   9.682 -0.1150 -0.2921  0.1738
97187W        W40104  14.534  29.186   9.989  0.1305  0.2063 -0.1003
97188W        W40105  16.156  29.211   9.899  0.0397  0.2039  0.0904
97189W        W40106  17.379  31.312   9.039  0.1049 -0.1145  0.0866
97190W        W40107  12.810  29.526   8.314  0.0697 -0.0371  0.1324
97191W        W40108  11.875  29.812  10.307  0.0975  0.0087 -0.0365
97192W        W40109  11.922  29.865   6.958  0.2443 -0.1969  0.1048
97193W        W40110  12.739  33.126   8.774  0.1302 -0.2904  0.1626
97194W        W40111  13.958  30.962  10.892  0.0380 -0.0684  0.1821
97195W        W40112  13.576  28.988   9.635 -0.0250 -0.0500 -0.0485
97196W        W40113   9.909  28.004  10.188 -0.0407  0.0267  0.1566
97197W        W40114  11.556  30.761   8.055 -0.0481  0.3429 -0.2438
97198W        W40115  13.601  31.372  10.158  0.0381  0.2686  0.3084
97199W        W40116  15.135  33.312  10.809 -0.1390  0.3218 -0.0328
97200W        W40117  14.170  28.661   9.200 -0.0463 -0.1617  0.3772
97201W        W40118  13.435  33.528  10.379 -0.0600 -0.0848 -0.1368
97202W        W40119  12.959  27.388  10.994  0.3263  0.0733  0.4632
97203W        W40120  13.412  31.974  11.518 -0.1514 -0.1655  0.0772
97204W        W40121  13.225   2.199  10.769  0.2032  0.1790  0.2836
97205W        W40122  14.142  31.930  10.730  0.1767 -0.2111  0.2768
97206W        W40123  13.168  30.079  10.723 -0.0221  0.1996 -0.0615
97207W        W40124  15.186  31.453  10.402  0.1695  0.3583  0.3878
97208W        W40125  11.527  30.979   9.944 -0.1071  0.2221  0.2180
97209W        W40126  14.069  29.889  10.969 -0.0099  0.2021 -0.3012
97210W        W40127  12.352  31.948  10.562 -0.0941 -0.1544 -0.3578
97211W        W40128  13.380  31.300   8.762 -0.1369  0.1877 -0.0786
97212W        W40129  14.223  30.617  10.230  0.0650  0.0863 -0.3844
97213W        W40130  12.759  32.426   8.401  0.0497  0.1607 -0.1297
97214W        W40131  14.250  31.800  11.407 -0.3652 -0.3505  0.1847
97215W        W40132  11.523  32.294  10.860 -0.0512  0.2101 -0.0853
97216W        W40133  14.339  31.828   8.688  0.1099 -0.0656  0.1075
97217W        W40134  12.902  32.127   9.014 -0.0765 -0.1074 -0.2804
97218W        W40135  15.124  31.150   8.936 -0.2257 -0.1030  0.3095
97219W        W40136  13.475  29.120   8.633  0.1754 -0.1339 -0.4387
97220W        W40137  11.997  31.908  10.028  0.0882 -0.1223 -0.0210
97221W        W40138  13.285  32.261   9.771 -0.1480  0.0979 -0.2095
97222W        W40139  12.746  32.637   8.847  0.0566 -0.1449  0.3108
97223W        W40140  12.830  32.747   9.620 -0.1229 -0.1384  0.0484
97224W        W40141  13.056  28.597   5.500  0.6054 -0.1724  0.0095
97225W        W40142  13.387  30.557  10.797  0.1451  0.0488  0.0852
97226W        W40143  14.012  30.455  10.937  0.2377 -0.3049 -0.0521
97227W        W40144  14.513  29.261  10.482  0.4072  0.3017 -0.0921
97228W        W40145  13.738  28.962   8.164 -0.0406 -0.5442 -0.1228
97229W        W40146  15.082   0.720  10.687  0.2798 -0.0276 -0.2932
97230W        W40147  13.000  29.767   9.620  0.1553 -0.1081 -0.2625
97231W        W40148  12.894  29.511   9.994  0.1764  0.2070 -0.0821
97232W        W40149  15.305  25.591   9.180  0.0400  0.1800  0.0274
97233W        W40150  13.439  32.226   9.035 -0.1560  0.0293 -0.0492
97234W        W40151  12.983  30.373  10.374  0.2133 -0.1132 -0.0717
97235W        W40152  13.064  33.343  10.749 -0.0927  0.0895 -0.1668
97236W        W40153  14.371  33.477  10.175  0.2160 -0.1936  0.2318
97237W        W40154  12.991  29.170  11.190 -0.1833  0.0769  0.0241
97238W        W40155  12.045  29.056   8.445  0.0578 -0.1676 -0.3965
97239W        W40156  14.986  29.050  10.655 -0.0448 -0.3244  0.2614
97240W        W40157  13.053  33.844  10.687 -0.0561 -0.1492  0.0538
97241W        W40158  10.803  31.649   9.192  0.0945 -0.1478  0.0519
97242W        W40159  15.071  28.820  11.157  0.2390  0.2040  0.5164
97243W        W40160  13.319  31.515  10.848  0.3048 -0.2399  0.1363
97244W        W40161  11.619  30.548  10.637 -0.3738  0.1970  0.0577
97245W        W40162  12.898  31.545  10.023 -0.2526  0.2161 -0.0568
97246W        W40163  14.198  31.173   8.982 -0.1792  0.0158 -0.0339
97247W        W40164  13.963  30.265  10.003  0.1414  0.0509  0.0731
97248W        W40165  14.482  29.006   9.425  0.1585 -0.2786  0.0002
97249W        W40166  10.922  30.798  11.025 -0.0813 -0.0754  0.1453
97250W        W40167  12.363  29.633  11.794  0.0044 -0.1131  0.0950
97251W        W40168  11.810  28.760   7.980  0.2146  0.1172 -0.1533
97252W        W40169  13.848  31.337   9.288  0.0431 -0.2018  0.1044
97253W        W40170  14.850  27.947  11.118  0.0616  0.1436 -0.0823
97254W        W40171  12.306  33.874   8.536 -0.0326 -0.0262  0.1668
97255W        W40172  14.589  29.426   9.114 -0.1676 -0.3263 -0.1439
97256W        W40173  16.650  33.357   8.328  0.1980  0.2378  0.2215
97257W        W40174  13.370  31.797   9.837  0.4196 -0.2278  0.0960
97258W        W40175  15.760   0.420  10.136 -0.0397  0.1672  0.1193
97259W        W40176  15.116  32.346   9.814 -0.3922 -0.0233 -0.0051
97260W        W40177  13.417  30.041   9.243 -0.1084 -0.2201  0.1406
97261W        W40178  13.484  29.655   9.880  0.2964  0.0995 -0.0945
97262W        W40179  11.048  32.443   9.930  0.2313 -0.1388  0.1502
97263W        W40180  14.287  29.664   9.974 -0.0466  0.0693 -0.0446
97264W        W40181  13.371  32.791   9.598  0.1920  0.0734  0.2186
97265W        W40182  13.874  24.169   9.688  0.0638 -0.0519 -0.0739
97266W        W40183  11.050  31.616   8.727 -0.0890  0.2508 -0.3078
97267W        W40184  13.923  32.985   9.545 -0.1917 -0.0333 -0.1499
97268W        W40185  15.167  32.778   9.097  0.1325  0.3534  0.2221
97269W        W40186  14.251  31.383  10.031  0.2408 -0.0265 -0.0960
97270W        W40187  11.798  29.721   9.132 -0.0203  0.0088  0.1159
97271W        W40188  14.563  33.157  11.175 -0.0341  0.2908 -0.3044
97272W        W40189  13.328  28.758  10.083 -0.0839  0.0108  0.0233
97273W        W40190  14.382  27.668   9.177  0.0988 -0.1620 -0.0938
97274W        W40191  15.443  29.461   9.162  0.0265  0.0945  0.0745
97275W        W40192  12.808  30.139   9.964 -0.1742  0.2289  0.0518
97276W        W40193  12.656  32.372   9.387 -0.0724 -0.0271 -0.3718
97277W        W40194  11.400  30.494   7.616 -0.0737 -0.1611  0.0373
97278W        W40195  13.629  32.666  10.533  0.1098 -0.0975 -0.3668
97279W        W40196  11.441  29.433  10.034  0.0565  0.1649 -0.1159
97280W        W40197  14.644  31.111  11.157 -0.1741  0.2310 -0.2859
97281W        W40198  13.752  32.792   9.130  0.2493 -0.2888  0.1464
97282W        W40199  10.865  29.856   8.789 -0.1783 -0.1627  0.0263
97283W        W40200   9.865  30.116  10.653 -0.4428  0.2166  0.2146
97284W        W40201  15.170  32.211   8.373 -0.0840 -0.0519 -0.0059
97285W        W40202  13.753  31.850   9.346 -0.0253  0.0581  0.0139
97286W        W40203  12.517  25.634   7.591 -0.2441  0.2041  0.3524
97287W        W40204   9.654  31.879  10.036  0.2904  0.1271 -0.0004
97288W        W40205  11.416  29.086   8.733 -0.0611 -0.3120 -0.2341
97289W        W40206  16.993  27.796   9.970 -0.2598  0.0935 -0.3389
97290W        W40207  16.234  32.881   9.829  0.0169 -0.3273 -0.0507
97291W        W40208  13.307  32.646   8.048  0.1260 -0.1700  0.2830
97292W        W40209  13.525  30.268  10.257  0.0390  0.0506  0.0495
97293W        W40210  13.938  26.335   9.636 -0.0870 -0.1530  0.1380
97294W        W40211  17.739  31.698   9.134  0.0665  0.2620 -0.1341
97295W        W40212  15.393  28.716   9.121  0.1187 -0.0884 -0.0242
97296W        W40213  12.997  30.539   9.081  0.3393 -0.3736 -0.0350
97297W        W40214  15.046  33.722  10.010  0.2172  0.0933  0.1563
97298W        W40215  11.603  28.929  10.133  0.0139  0.3809 -0.2859
97299W        W40216  13.560  29.230  10.146 -0.1664  0.0709  0.0852
97300W        W40217  14.203  32.048   9.612 -0.2102 -0.0780 -0.1770
97301W        W40218  14.964  32.192  10.716  0.0570 -0.1701 -0.0235
97302W        W40219  13.922  30.832   9.296 -0.2737 -0.0535  0.0237
97303W        W40220  15.208  29.926  10.755 -0.2906 -0.4921  0.1575
97304W        W40221  12.565  29.095  10.032 -0.1361  0.1471  0.1820
97305W        W40222  13.090  29.140  10.267 -0.2651  0.0238 -0.0793
97306W        W40223  15.505  31.778   9.379  0.0212 -0.4001 -0.0370
97307W        W40224  17.738  25.381  12.214 -0.0413 -0.1902  0.4333
97308W        W40225  13.463  31.767   8.907  0.3289  0.0885 -0.1995
97309W        W40226  12.673  29.988  10.607 -0.0113  0.0927  0.1087
97310W        W40227  14.818  31.756  10.565  0.2281 -0.2095 -0.2455
97311W        W40228  13.290  30.821   8.596 -0.2037 -0.0089 -0.2421
97312W        W40229  11.235  31.092  10.695  0.0652 -0.1010 -0.1448
97313W        W40230  13.541  31.045  10.598 -0.3511  0.2805 -0.1742
97314W        W40231  14.382  28.410   8.769 -0.1670  0.1581  0.2015
97315W        W40232  10.223  31.394   8.429  0.4840 -0.1807  0.1185
97316W        W40233  13.768  31.079   9.750  0.1661  0.0226  0.5234
97317W        W40234  11.402   0.941   0.493  0.0320  0.3273  0.1087
97318W        W40235  14.744  33.188   0.059 -0.0569 -0.2181 -0.2281
97319W        W40236  13.010  34.180   0.565 -0.1580 -0.2193  0.1496
97320W        W40237   9.946  31.256   3.150  0.0295 -0.0119 -0.0588
97321W        W40238  11.646   0.096   4.090 -0.3886  0.0739  0.0809
97322W        W40239  13.052  34.630   0.066 -0.1480  0.0686 -0.1077
97323W        W40240  12.697  34.037   2.503 -0.2128 -0.2194 -0.1621
97324W        W40241  11.544  32.998   0.469  0.1940  0.0429  0.0291
97325W        W40242  10.258  31.467   2.249  0.0770 -0.1221  0.0824
97326W        W40243  11.841  32.640   1.876 -0.1971 -0.0289  0.1749
97327W        W40244  10.886  33.766   1.656 -0.0807 -0.1248 -0.3755
97328W        W40245  11.055  32.997   1.485  0.2577  0.1588 -0.1891
97329W        W40246  10.615  32.849   1.262 -0.3041 -0.0564  0.0236
97330W        W40247  13.025  31.635   1.822  0.1092  0.0033  0.0322
97331W        W40248  11.737  32.401   2.489  0.0184  0.0365  0.2086
97332W        W40249  11.305  32.326   1.365  0.0869 -0.0705  0.2463
97333W        W40250  12.009  33.364   3.825  0.1407 -0.1934 -0.0218
97334W        W40251  11.652  32.825   3.423  0.5040  0.0053  0.1443
97335W        W40252  14.934   0.037   2.544  0.0144  0.1518  0.2271
97336W        W40253  14.698  33.368   2.133  0.0426 -0.0770  0.0512
97337W        W40254  14.592  34.195   3.841  0.1136  0.2115  0.1534
97338W        W40255  13.641   1.694   2.836 -0.1727 -0.1562 -0.1869
97339W        W40256  13.135  33.662   0.631 -0.0471 -0.0165  0.0785
97340W        W40257  14.355   0.106   3.158  0.2010 -0.2848  0.1480
97341W        W40258  15.604  33.497   1.103  0.0013  0.0992  0.1075
97342W        W40259  11.086   0.185  31.167  0.1380 -0.1832  0.1385
97343W        W40260  14.531  32.778   1.468 -0.1401 -0.0859  0.1244
97344W        W40261  12.390  32.617  31.367 -0.2198 -0.2563  0.0671
97345W        W40262  12.657  34.209   4.659 -0.1160 -0.1223  0.2482
97346W        W40263   9.590  34.116   1.688 -0.0192 -0.2560  0.1474
97347W        W40264  12.373  34.365   2.814 -0.0514  0.0339 -0.0848
97348W        W40265  11.634  34.267   0.661  0.1129  0.3036  0.2602
97349W        W40266  10.812  33.950   1.136  0.1689 -0.2007  0.3626
97350W        W40267   9.771   0.739   2.808  0.1734  0.0538  0.2358
97351W        W40268  10.882  33.687   4.437  0.5032  0.1553 -0.1217
97352W        W40269  10.320  31.838  30.716  0.0708  0.1579  0.1872
97353W        W40270  13.076  34.229   1.520  0.0801 -0.1151 -0.0868
97354W        W40271  12.078  32.971   1.132  0.2307  0.0588  0.0015
97355W        W40272  11.645  32.427   1.004 -0.2188 -0.3595 -0.0220
97356W        W40273  14.742  34.668   0.417 -0.2991 -0.3237  0.0180
97357W        W40274  12.024  32.801   3.938  0.3130 -0.0222 -0.1511
97358W        W40275  11.455  33.332   5.191  0.2303  0.1077 -0.0624
97359W        W40276  15.152  34.025  31.278 -0.2207  0.0476 -0.1167
97360W        W40277  11.245  30.971   2.819  0.0514 -0.0040 -0.3594
97361W        W40278  12.800  32.658   1.608  0.1620  0.4202  0.2101
97362W        W40279  12.676   0.033   1.210 -0.0129 -0.0367 -0.1081
97363W        W40280  12.210  31.945   4.384  0.2022 -0.1536  0.1204
97364W        W40281  10.729  33.161   2.532  0.1051 -0.2805  0.0220
97365W        W40282  11.326  33.508   4.139 -0.3209  0.0226 -0.1584
97366W        W40283  10.008  32.696   1.797  0.2230  0.1884  0.1926
97367W        W40284  13.567   2.578   3.306  0.1951 -0.1454 -0.0961
97368W        W40285  10.669  31.889   0.817 -0.0936 -0.1850 -0.3314
97369W        W40286  13.732  33.988   1.125 -0.1400 -0.0118 -0.0263
97370W        W40287  10.889  32.854   3.019  0.3033  0.1729 -0.3996
97371W        W40288  13.968  33.033   1.850  0.3405  0.1649  0.2470
97372W        W40289  11.541   0.005   3.268  0.0449  0.1266 -0.2358
97373W        W40290  12.463  33.529  31.390 -0.0698 -0.0457 -0.1856
97374W        W40291  11.755  31.420   1.740  0.0041  0.2524 -0.3038
97375W        W40292  13.191  32.235   2.258  0.0434  0.0993  0.1196
97376W        W40293  12.113   0.212   1.217  0.2820 -0.0538 -0.0750
97377W        W40294  10.281  32.425  31.263  0.1061 -0.0777  0.1733
97378W        W40295   9.150  34.159   1.973  0.0748  0.0149  0.2116
97379W        W40296  11.611  32.801   1.401  0.1936 -0.0225  0.0199
97380W        W40297  10.440  33.626   5.574  0.2309 -0.0368 -0.2444
97381W        W40298  11.991   0.333   5.534  0.4665 -0.4035 -0.2323
97382W        W40299  11.287   0.458   0.645 -0.1213  0.4054  0.0807
97383W        W40300  12.800  33.592   1.895  0.0960  0.0679  0.1638
97384W        W40301  12.644  30.723  30.274  0.0342  0.2098 -0.4917
97385W        W40302  11.839  34.062  29.739 -0.2278 -0.1801 -0.0948
97386W        W40303  12.434  32.397  30.592 -0.1206  0.0097 -0.1268
97387W        W40304  12.575  34.219   1.638 -0.0737 -0.0540 -0.2404
97388W        W40305  13.945  31.707   2.191 -0.1046  0.4027 -0.0440
97389W        W40306  12.197   0.137   0.252 -0.4046  0.0087  0.1344
97390W        W40307  12.433  33.613  31.936 -0.1348  0.4664  0.0485
97391W        W40308  11.279  33.465   1.315 -0.2874  0.0966  0.2386
97392W        W40309  12.997  32.513   1.093  0.1060  0.1572  0.0947
97393W        W40310  14.314  33.365   2.840  0.0859 -0.0942 -0.0928
97394W        W40311  13.489   0.043   2.883 -0.1116  0.1110 -0.0088
97395W        W40312  13.177  33.340   0.257 -0.0214 -0.1399  0.3774
97396W        W40313  14.344   0.144   1.218 -0.0933  0.0359 -0.0152
97397W        W40314  12.960  33.520  30.154  0.0791  0.0247 -0.0936
97398W        W40315  11.862  34.511   4.540  0.2069  0.0244 -0.0009
97399W        W40316  13.915  32.927   2.329  0.1430  0.1598 -0.0284
97400W        W40317  13.840  31.631  29.654 -0.1050 -0.2093 -0.2937
97401W        W40318  12.692  32.934   0.319 -0.0516  0.2499  0.1325
97402W        W40319  13.389  32.394   0.817  0.0554  0.0550 -0.1557
97403W        W40320  12.381  34.462   0.819 -0.0548  0.1256 -0.1344
97404W        W40321  10.640  33.409   2.058 -0.2368  0.0062  0.2040
97405W        W40322  12.711  34.222   1.138 -0.2084  0.1800 -0.0030
97406W        W40323  11.384  33.329   3.636 -0.2885 -0.0880  0.1940
97407W        W40324  12.508  33.125   1.793  0.1942 -0.2395 -0.2382
97408W        W40325  13.818  33.093   1.257 -0.3521  0.0503  0.2290
97409W        W40326  14.929  34.169   0.309 -0.0204  0.0077 -0.0393
97410W        W40327  12.832   1.123   3.855  0.2543 -0.0273  0.1587
97411W        W40328  11.491  30.550  31.072 -0.3173  0.0630  0.1903
97412W        W40329  15.359  34.354   3.263 -0.0069  0.0104  0.2034
97413W        W40330  13.919  31.720   0.016 -0.0645  0.0317  0.1044
97414W        W40331  11.539  34.186   0.160 -0.0887 -0.2879  0.0797
97415W        W40332  13.043  32.129   2.967 -0.0356  0.1216  0.0309
97416W        W40333  12.392   0.276   0.801 -0.1184  0.1165 -0.3058
97417W        W40334  12.207  33.189   0.283  0.1613  0.0399  0.0422
97418W        W40335  12.283  33.821   2.654 -0.0622  0.1301 -0.2116
97419W        W40336  13.335  32.512   1.561  0.1154 -0.0225 -0.0187
97420W        W40337  14.622  32.557   2.589  0.1295 -0.0483  0.0992
97421W        W40338  13.531  33.782   2.724 -0.0813  0.1733  0.1859
97422W        W40339  13.473  32.874   2.832  0.0174  0.1611  0.0393
97423W        W40340  13.046  33.767   1.213  0.0008 -0.3601 -0.0310
97424W        W40341  11.688   0.240   1.578 -0.1335  0.1365  0.1603
97425W        W40342  13.175  32.629   3.192  0.0809 -0.0251 -0.1601
97426W        W40343  13.539  33.004  31.776  0.1370  0.1570 -0.5681
97427W        W40344  13.857  32.517   3.776 -0.0940 -0.0541 -0.1602
97428W        W40345  11.807  32.161   1.975 -0.4210 -0.1141  0.1120
97429W        W40346  10.997  33.788   5.431  0.2314  0.1601  0.3290
97430W        W40347  12.389   0.157   3.663  0.2321 -0.0947 -0.1535
97431W        W40348  11.602  32.468   0.500 -0.0775 -0.1509 -0.3058
97432W        W40349  11.630  31.854   1.238 -0.1221  0.0617 -0.1671
97433W        W40350  13.206   0.558   0.905  0.2365  0.2339  0.4105
97434W        W40351  13.586   0.467   1.241  0.3699 -0.1316 -0.2060
97435W        W40352  11.818   0.087   5.118 -0.1946 -0.0619  0.1046
97436W        W40353  14.081  34.293   1.342 -0.1358 -0.0431 -0.0235
97437W        W40354  13.206  32.593   4.546 -0.0725 -0.0854  0.0481
97438W        W40355  13.552  32.559   0.058  0.3450 -0.0349 -0.1648
97439W        W40356  11.905  32.350   1.486 -0.0717 -0.0112  0.1506
97440W        W40357  12.224  32.935   2.205  0.1100  0.1410 -0.0385
97441W        W40358  12.984  33.102   1.810 -0.1725  0.1091 -0.0523
97442W        W40359  11.900  32.049   5.883  0.0371  0.0580  0.2808
97443W        W40360  13.895  34.041  30.191 -0.0183 -0.1795  0.3369
97444W        W40361  14.902  33.180   1.617 -0.3080 -0.0310 -0.0513
97445W        W40362  14.716  33.725   3.988  0.5174  0.3091 -0.1535
97446W        W40363  14.560  32.381  31.123 -0.2186  0.1424  0.0694
97447W        W40364  11.881  30.723   2.208  0.1597  0.1791  0.0073
97448W        W40365  14.147  34.171   4.544  0.4867 -0.1021  0.0734
97449W        W40366  11.594  29.815   0.720  0.1222  0.0300 -0.1564
97450W        W40367  11.138   0.769   6.151  0.0335 -0.0209 -0.0691
97451W        W40368  12.832  34.203  31.572  0.0378  0.1482  0.3069
97452W        W40369  12.425  33.271   1.329  0.1759 -0.3075  0.0960
97453W        W40370  11.027  34.663   0.619  0.3021 -0.0450 -0.1723
97454W        W40371  12.558  34.017   0.501 -0.0591  0.0366 -0.0625
97455W        W40372  13.396  33.571  30.999  0.2318  0.3204 -0.0977
97456W        W40373  13.954  33.926   3.495  0.0022  0.1015  0.2251
97457W        W40374  11.647  31.587   2.202 -0.0743 -0.2283  0.2450
97458W        W40375  14.444  33.001   1.903  0.2251  0.1001  0.0553
97459W        W40376  12.797  33.406   0.937 -0.2775 -0.0504  0.4635
97460W        W40377  11.735  33.895   4.411 -0.1626  0.1958  0.3351
97461W        W40378  15.383  32.310   4.056 -0.1190  0.1262 -0.2531
97462W        W40379  12.768  33.734   5.127  0.2272 -0.2714 -0.1563
97463W        W40380  12.851   0.326   3.377  0.2501 -0.1961  0.0818
97464W        W40381  11.699  31.438   0.432  0.0956 -0.0248  0.0847
97465W        W40382  12.704  33.417   0.439  0.0096 -0.2997  0.0485
97466W        W40383  14.113  33.401   2.211  0.2222  0.0472  0.0996
97467W        W40384  13.432  34.446   0.460  0.0692  0.2934 -0.2995
97468W        W40385  15.274  32.149  31.329 -0.1090 -0.2294 -0.3637
97469W        W40386  13.224  33.000   2.371  0.2209 -0.2092 -0.2583
97470W        W40387  13.567  33.161  31.240  0.1185 -0.0958  0.1449
97471W        W40388  11.418   0.438   5.095 -0.3708  0.0572  0.1240
97472W        W40389  13.907  30.861   2.367 -0.0220 -0.1364 -0.0198
97473W        W40390  11.012  32.749   2.472  0.1937 -0.0200  0.0112
97474W        W40391  11.078  34.157   2.045 -0.0918 -0.1794 -0.1021
97475W        W40392  14.100  33.460   3.331  0.3584  0.0986 -0.1162
97476W        W40393  12.055  34.226   1.773 -0.2074  0.0254 -0.1614
97477W        W40394  12.114  31.983   1.238 -0.0353  0.1782 -0.1511
97478W        W40395  14.554  33.745   0.540  0.1156  0.1866 -0.3817
97479W        W40396  12.757  34.101   3.992  0.0293 -0.1602 -0.3541
97480W        W40397  14.500  33.119   3.545  0.1104  0.2851  0.1680
97481W        W40398  13.221  34.290   3.921 -0.2855  0.3383  0.2229
97482W        W40399  15.221  32.057   1.000 -0.3658  0.3199 -0.2398
97483W        W40400  10.844  33.684   3.347  0.1899 -0.2670 -0.1319
97484W        W40401  14.339  34.173   0.429  0.0599  0.1316  0.1093
97485W        W40402  12.113   0.541   2.801  0.0810  0.0390 -0.0104
97486W        W40403  14.741  32.671  30.491  0.1577  0.1681  0.3553
97487W        W40404  10.475  32.965   3.306 -0.1458 -0.0427 -0.0124
97488W        W40405  14.448  32.407   0.646 -0.1788 -0.1173  0.1997
97489W        W40406  11.492  33.883   1.857  0.0259  0.1296  0.1749
97490W        W40407  12.294  34.244   3.852 -0.0442 -0.0930  0.0247
97491W        W40408  12.048  32.652  31.735 -0.0541  0.2725 -0.1426
97492W        W40409  13.110  32.587   2.611  0.0595 -0.2057 -0.1187
97493W        W40410  13.438   0.934   3.372 -0.1106 -0.1563  0.1009
97494W        W40411  10.784  31.527   3.222  0.0427 -0.0988 -0.2343
97495W        W40412  13.898  31.769  30.986 -0.3129 -0.0017  0.0941
97496W        W40413  11.632  33.439   2.169 -0.1784  0.0232  0.2215
97497W        W40414  14.143  34.230   2.103 -0.3483 -0.0144  0.2634
97498W        W40415  14.252  33.949   5.294 -0.0317 -0.2120 -0.3779
97499W        W40416  13.270  32.108   1.214 -0.3031 -0.1387 -0.1916
97500W        W40417  11.466  33.597   0.571 -0.1524  0.1239  0.0113
97501W        W40418  12.458  32.030   0.819 -0.0237  0.0190 -0.0831
97502W        W40419  15.562  34.285   1.350 -0.0474  0.1669  0.1146
97503W        W40420  12.706  33.306   2.254  0.2794 -0.0394  0.0731
97504W        W40421  12.753  33.863   3.558  0.1295 -0.0181 -0.1351
97505W        W40422  12.258  33.906  31.578  0.3061  0.1835  0.1767
97506W        W40423  12.243  31.445   4.507 -0.0010  0.3885  0.1157
97507W        W40424  11.612   0.455   3.643  0.0595 -0.0518  0.1374
97508W        W40425  13.433  32.890   0.443  0.0751 -0.0889  0.2360
97509W        W40426  11.471  33.185   1.752 -0.1151 -0.2550 -0.2968
97510W        W40427  11.242  29.658   1.258 -0.2842  0.0216 -0.0307
97511W        W40428  11.384  34.365   4.703  0.2238  0.3952  0.2605
97512W        W40429  12.945  33.791   0.143  0.0942  0.2645 -0.0056
97513W        W40430  13.443  32.521   4.133 -0.2061  0.0431  0.1814
97514W        W40431  11.538  33.208   2.919  0.0099  0.0421  0.2950
97515W        W40432  10.565  32.781   0.743  0.0430  0.2845 -0.0661
97516W        W40433  12.010  33.143   1.809 -0.1659 -0.0099 -0.2051
97517W        W40434  11.796  32.388   2.997 -0.2233 -0.0464  0.1709
97518W        W40435  13.653  32.162  31.812  0.1859  0.2469  0.1231
97519W        W40436  11.967   0.007   2.634 -0.0559 -0.0208 -0.2276
97520W        W40437  11.640  31.122   2.221 -0.0566  0.1266 -0.0516
97521W        W40438  12.262  31.070   0.162  0.0809 -0.0402  0.1269
97522W        W40439  14.975  32.149   0.556 -0.0620  0.2558  0.0515
97523W        W40440  12.287  33.967   5.001  0.1242  0.1100  0.0343
97524W        W40441  12.777  33.256  31.878 -0.0069  0.1249 -0.2206
97525W        W40442  13.019  34.299   3.126  0.2736 -0.0888 -0.0012
97526W        W40443  13.756  32.475  30.394 -0.1799  0.2247  0.0357
97527W        W40444  13.828  34.211   0.669  0.3522  0.0367  0.1181
97528W        W40445  11.547  32.566   3.848 -0.0930 -0.3877 -0.0461
97529W        W40446  12.191  31.813   0.430 -0.2300 -0.1932  0.0581
97530W        W40447  12.102  33.897  30.776  0.0761  0.3575 -0.0765
97531W        W40448  13.830  32.321   1.041  0.2104 -0.0494 -0.2179
97532W        W40449  11.567  33.709   2.740 -0.1197  0.2519 -0.2319
97533W        W40450  14.194  34.024  30.655 -0.2369  0.1903 -0.1617
97534W        W40451  12.977  33.395   4.369  0.2046 -0.0764 -0.0211
97535W        W40452  15.856  33.582   2.872 -0.3325 -0.0050 -0.1660
97536W        W40453  14.462   0.373   4.654  0.1496 -0.2771 -0.1480
97537W        W40454  12.789  32.590   5.023 -0.2479  0.0151  0.0066
97538W        W40455  11.807   0.063   7.113 -0.0006 -0.0390 -0.2416
97539W        W40456  14.094   0.266   3.789  0.3049  0.0590 -0.3066
97540W        W40457  12.425  34.105   7.143 -0.3246  0.0263  0.3620
97541W        W40458  13.066  34.510   4.395  0.0731 -0.0455 -0.0440
97542W        W40459  10.044  32.008   4.835 -0.0009 -0.1306  0.2071
97543W        W40460  13.929  33.984   6.891 -0.0190 -0.1093 -0.0101
97544W        W40461  12.371  33.435   5.133 -0.1367  0.1108  0.0376
97545W        W40462   9.543  33.656   8.154  0.0044  0.0752  0.2736
97546W        W40463  13.916  34.490   4.173 -0.2128  0.0902  0.2699
97547W        W40464  13.161  32.978   7.660 -0.3815  0.1852 -0.0223
97548W        W40465  14.962  33.129   8.709 -0.1912 -0.1193 -0.3183
97549W        W40466  10.509  33.070   5.669  0.0020  0.0212  0.0707
97550W        W40467  11.201   1.111   7.842 -0.0370  0.0223 -0.1702
97551W        W40468  12.184   2.101   6.015  0.2251 -0.1218 -0.3569
97552W        W40469  13.081   1.058   7.011  0.0017  0.1702 -0.0358
97553W        W40470  13.106  33.587   4.799  0.1450 -0.0252 -0.0559
97554W        W40471  12.690   0.193   6.926  0.0928  0.0445  0.1655
97555W        W40472  11.331   0.216   6.436  0.0300 -0.1685 -0.2327
97556W        W40473  13.818  34.468   7.161 -0.0723  0.0495 -0.0045
97557W        W40474  14.695  33.692   8.518 -0.0387 -0.0224  0.0178
97558W        W40475  12.856  32.978   3.440  0.0775  0.2071  0.2978
97559W        W40476  14.004  34.536   2.838 -0.0327  0.0272 -0.1066
97560W        W40477  12.856  32.348   3.454 -0.1027  0.3005 -0.2527
97561W        W40478  12.793  31.934   6.766  0.0694 -0.1410 -0.1267
97562W        W40479  10.965  33.430   7.788  0.1763 -0.1629 -0.4155
97563W        W40480  13.916   0.037   5.227  0.1729  0.4759  0.1428
97564W        W40481  13.540   1.135   7.139 -0.3450 -0.1773 -0.0760
97565W        W40482   9.100  34.454   8.104  0.0555 -0.1264 -0.1478
97566W        W40483  11.531  34.656   6.060 -0.1203 -0.0661 -0.0975
97567W        W40484  13.273  34.301   9.273  0.0535 -0.2246 -0.1225
97568W        W40485  11.518  32.881   7.851  0.4333  0.1490  0.0954
97569W        W40486  12.722  31.967   2.113  0.0533 -0.1103 -0.5730
97570W        W40487  13.336  34.273   5.717  0.1960 -0.0472  0.0608
97571W        W40488  15.219  34.327   7.349 -0.0386  0.2980  0.3742
97572W        W40489  12.504  32.387   7.365  0.0462  0.3225 -0.0022
97573W        W40490  14.392  34.448   6.384  0.3654  0.0144 -0.1182
97574W        W40491  12.602   0.408   6.448 -0.1100  0.1725 -0.3147
97575W        W40492  11.054  32.539   6.725  0.1030 -0.2549  0.1995
97576W        W40493  13.436  33.813   5.642 -0.0769 -0.0033  0.2353
97577W        W40494  12.477  31.842  10.107  0.1571  0.0085 -0.0890
97578W        W40495  11.776  32.235   6.854  0.1535  0.0133  0.0287
97579W        W40496  12.244  33.715   6.066  0.1138 -0.1357  0.1645
97580W        W40497  12.434   0.647   7.641  0.1034  0.0182  0.0756
97581W        W40498  12.126   1.584   6.980 -0.2484 -0.1282 -0.1000
97582W        W40499  14.340  33.689   8.964  0.0084 -0.2167 -0.1481
97583W        W40500  10.414  31.688   7.584 -0.0133 -0.0900 -0.0717
97584W        W40501  14.927  32.766   9.590  0.2149 -0.3071  0.0071
97585W        W40502  11.432   0.035   5.506 -0.0604  0.4308 -0.2525
97586W        W40503  11.919  34.281   6.891  0.0758  0.1251  0.3123
97587W        W40504  11.606  34.259   5.654 -0.0769  0.5442  0.0870
97588W        W40505  13.787  33.911   8.320 -0.1461 -0.3252 -0.2965
97589W        W40506  12.727   0.197   7.502 -0.4255 -0.0534  0.4394
97590W        W40507  12.929  32.040   4.900 -0.1446  0.1068 -0.0589
97591W        W40508  11.534  33.996   6.728 -0.1535  0.0409  0.1812
97592W        W40509  14.554  34.184   8.143 -0.3431  0.0632 -0.0744
97593W        W40510  10.671  31.918   5.592  0.2091 -0.0859  0.1932
97594W        W40511  10.694  34.210   6.296  0.0754 -0.0657  0.0325
97595W        W40512  15.384  31.571   5.988  0.1045  0.0362  0.0968
97596W        W40513  11.418  33.200   9.548 -0.1051  0.2199  0.1111
97597W        W40514  15.006   0.581   7.234  0.0097  0.0701 -0.2495
97598W        W40515  11.592  32.105   5.502  0.3555 -0.0738 -0.0976
97599W        W40516  12.517  33.442   6.561  0.2680 -0.0859  0.1076
97600W        W40517  14.014  33.758   4.807 -0.0507  0.1022 -0.0761
97601W        W40518  12.421  32.664   5.342 -0.0898  0.0569 -0.2604
97602W        W40519  13.869  31.944   3.064  0.2457  0.0729 -0.0920
97603W        W40520  13.021   0.633   4.763  0.2654 -0.0071  0.0144
97604W        W40521  13.163  33.284   8.495  0.0217  0.1933  0.2919
97605W        W40522  11.094   1.138   6.980  0.2593 -0.1322 -0.0809
97606W        W40523  12.537  32.342   7.938  0.1922  0.1978 -0.2343
97607W        W40524  15.067   0.029   7.045 -0.0246 -0.3632 -0.1050
97608W        W40525  14.132  32.967   8.398 -0.3977 -0.1628 -0.5423
97609W        W40526  13.073  32.172   8.087  0.2561  0.0483  0.0248
97610W        W40527  15.158  34.627   6.529 -0.1585 -0.1900  0.1103
97611W        W40528  12.154  33.887   5.603 -0.1618  0.0599  0.1973
97612W        W40529  13.623   1.992   5.126  0.1910  0.0939  0.1295
97613W        W40530  11.700  32.065   4.601 -0.0206  0.1901 -0.1789
97614W        W40531  13.687  34.221   8.725 -0.2006  0.2744 -0.2558
97615W        W40532  13.001  34.517   8.351  0.3227  0.2364 -0.3342
97616W        W40533  12.677  32.854   4.393  0.1337  0.3205  0.0907
97617W        W40534  11.751  32.923   7.379  0.3147 -0.0880  0.3237
97618W        W40535  12.753   1.351   5.932 -0.0013  0.0568 -0.3058
97619W        W40536  12.527  33.152   4.727 -0.1286 -0.2424 -0.1112
97620W        W40537  11.256  32.883   5.273  0.0872  0.1151  0.2341
97621W        W40538  13.246  33.977   4.327  0.1706 -0.0730  0.0399
97622W        W40539  12.721  33.514   8.471  0.2387  0.0407  0.0329
97623W        W40540  14.313  33.979   8.558 -0.3489 -0.1030 -0.0828
97624W        W40541  13.389  33.763   8.658  0.0680  0.1546 -0.2141
97625W        W40542  12.478  32.595   3.636 -0.1886  0.1182  0.1468
97626W        W40543  12.931   0.820   7.833  0.0495 -0.0727 -0.4124
97627W        W40544  11.442   0.545   4.209  0.0656  0.2270 -0.1579
97628W        W40545  13.617  33.679   7.224 -0.1035  0.1125  0.1507
97629W        W40546  13.651   0.255   4.546  0.2384  0.3135  0.2522
97630W        W40547  12.625  33.659   5.693 -0.0490 -0.1908 -0.0549
97631W        W40548  12.588   0.184   9.491  0.3003  0.1350  0.1088
97632W        W40549  11.070  33.964   7.802 -0.0421  0.2764  0.2072
97633W        W40550  12.321  34.600   7.230  0.1420 -0.1147  0.2144
97634W        W40551  13.417   0.671   6.990 -0.1731  0.1069  0.0822
97635W        W40552  12.449   0.536   5.963 -0.0885  0.2011 -0.2322
97636W        W40553  11.729  32.924   5.596 -0.0351 -0.2322 -0.1945
97637W        W40554  10.211  34.527   8.137 -0.2719 -0.2705 -0.1263
97638W        W40555  14.108  33.353   7.960  0.1406 -0.2856 -0.2064
97639W        W40556  13.759  31.107   5.328  0.1213 -0.2099  0.0022
97640W        W40557  11.429  34.511   6.710 -0.2100  0.0144 -0.3700
97641W        W40558  12.882  32.861   5.858  0.0840  0.1683 -0.1711
97642W        W40559  13.258  33.212   3.697 -0.0784  0.0679  0.0300
97643W        W40560  14.447  34.652   7.845  0.0729  0.0767  0.1534
97644W        W40561  12.271  33.754   7.426 -0.3109  0.0260  0.1765
97645W        W40562  10.414   0.189   7.734  0.0462 -0.0071  0.0335
97646W        W40563  12.746   0.925   9.417  0.0674  0.0618 -0.1221
97647W        W40564  14.785  33.779   6.492  0.0479 -0.0078 -0.2363
97648W        W40565  12.313  32.861   5.774 -0.0935 -0.2186 -0.1445
97649W        W40566  13.190   1.527   6.295  0.1328  0.2624 -0.2032
97650W        W40567  13.088  33.718   7.205  0.0452  0.0327 -0.1838
97651W        W40568  11.076  34.343   5.986  0.0694  0.0183 -0.3040
97652W        W40569  12.892   0.653   7.250 -0.1133 -0.0529  0.0056
97653W        W40570  13.955  32.758   7.293 -0.0336 -0.0274 -0.1865
97654W        W40571  13.497  33.887   4.748  0.1950  0.1593 -0.0259
97655W        W40572  15.593   0.918  10.787  0.1990 -0.0404  0.1775
97656W        W40573  10.799   0.479   6.379 -0.2942  0.3202 -0.1041
97657W        W40574  12.451  33.333   7.628  0.1534 -0.0040  0.0203
97658W        W40575  11.382   0.463   7.632  0.2659 -0.3545 -0.1033
97659W        W40576  14.495  34.649   4.360 -0.0117 -0.1167 -0.0357
97660W        W40577  14.745  33.428   6.956 -0.0885  0.2341 -0.2193
97661W        W40578  13.710   1.666   7.124  0.0870  0.1531 -0.2634
97662W        W40579  13.597  33.300   2.539 -0.1493 -0.1920 -0.2184
97663W        W40580  10.501  32.600   5.993 -0.1987  0.0280  0.0682
97664W        W40581  13.029  34.343   7.070  0.1420  0.0949 -0.0998
97665W        W40582  13.151  32.962   4.167 -0.1526 -0.1777  0.3658
97666W        W40583  13.742  34.082   7.538 -0.2881  0.0011 -0.3889
97667W        W40584  14.019   0.430   4.903  0.0444  0.1580  0.0622
97668W        W40585  10.677  33.956   5.834 -0.0987  0.0098  0.4661
97669W        W40586  13.801  33.820   4.339  0.1655  0.0756 -0.0054
97670W        W40587  12.024  34.413   5.474 -0.2764 -0.0466  0.2180
97671W        W40588  13.657   0.267   7.277 -0.1287  0.0871  0.1105
97672W        W40589  15.510  32.395   5.681  0.0443  0.0549 -0.3502
97673W        W40590  12.921  32.277   7.131  0.1453 -0.0137  0.0982
97674W        W40591  13.815  33.168   6.922  0.1302  0.1330 -0.0477
97675W        W40592  13.466   0.442   6.533 -0.1180  0.0875 -0.1285
97676W        W40593  13.189   0.309   7.483  0.1779  0.1736 -0.1223
97677W        W40594  13.806  34.395   8.240  0.2468  0.0225 -0.0779
97678W        W40595  14.807  34.158   7.144 -0.3547  0.1838  0.1306
97679W        W40596   9.591  33.613   8.707  0.1703  0.1447  0.3629
97680W        W40597  12.633  31.784   5.221  0.1040  0.0335 -0.0712
97681W        W40598  11.087   0.152   5.946 -0.1957  0.1359  0.1709
97682W        W40599  13.446  32.183   3.354  0.0705 -0.2078  0.3357
97683W        W40600  13.090   0.368   6.214  0.3472 -0.0284 -0.0466
97684W        W40601  15.054  34.004   4.870 -0.0773 -0.0420 -0.1070
97685W        W40602  12.468  34.227   8.893 -0.0314  0.0784 -0.1052
97686W        W40603  11.581  33.535   4.729  0.2247  0.5135 -0.1295
97687W        W40604  11.742  34.564   8.392  0.1579  0.0925 -0.0408
97688W        W40605  15.472  32.615   6.664  0.1906 -0.1481 -0.0358
97689W        W40606  11.027  33.498   4.881  0.2290  0.0326 -0.1167
97690W        W40607  12.606  32.454   6.748  0.1039 -0.0701  0.0727
97691W        W40608  13.609  33.173   7.998  0.0790 -0.0121  0.0170
97692W        W40609  13.821   1.133   7.829 -0.2387  0.0981 -0.1340
97693W        W40610  10.263   0.005   5.244 -0.2129  0.3443 -0.1537
97694W        W40611  12.434   0.082   5.460 -0.0734 -0.2675  0.0747
97695W        W40612  12.965  34.118   8.943 -0.0141  0.2317 -0.0055
97696W        W40613  13.503  31.812   6.442 -0.2238  0.0323 -0.0009
97697W        W40614  11.226   0.185   3.711  0.0856 -0.0700 -0.3845
97698W        W40615  13.734  34.234   4.987  0.0051 -0.2684  0.2765
97699W        W40616  12.610  31.178   7.454 -0.3196 -0.2182  0.0730
97700W        W40617  13.440  33.448   4.165  0.1375  0.1097  0.2940
97701W        W40618  15.814   1.001   5.439  0.1816 -0.2499 -0.3707
97702W        W40619  14.301  34.250   2.585 -0.0270  0.0406  0.0230
97703W        W40620  11.930  31.521   5.430  0.0794  0.0172 -0.2509
97704W        W40621  12.798  33.468   3.069  0.1015 -0.0782 -0.3162
97705W        W40622  12.294   0.473   7.166 -0.0961  0.0761 -0.0581
97706W        W40623  13.071  34.661   7.855  0.2300  0.1443  0.1470
97707W        W40624  12.071  34.486   7.888 -0.0057 -0.2269 -0.2061
97708W        W40625  13.951  32.305   7.809  0.0148 -0.1538 -0.0199
97709W        W40626  10.950   1.218   6.014  0.2861 -0.0205  0.0136
97710W        W40627  12.156  33.800   6.826 -0.0916 -0.0413  0.1081
97711W        W40628  12.747  33.869   6.875 -0.2967 -0.3061 -0.2054
97712W        W40629  12.171   0.268   7.759 -0.1719  0.0598  0.0479
97713W        W40630  11.859  34.590   6.460  0.0195 -0.2624  0.0639
97714W        W40631  12.982  33.324   6.907 -0.0938 -0.0201 -0.1158
97715W        W40632  14.693  32.803   9.088  0.1094  0.1823  0.4427
97716W        W40633  13.288  33.363   5.245 -0.3522  0.2144  0.2313
97717W        W40634  12.771  34.021   8.481 -0.1053 -0.1681 -0.0861
97718W        W40635  14.286  32.598   4.842 -0.2228  0.0251 -0.2470
97719W        W40636  13.915  32.834   5.821 -0.3374 -0.1958 -0.2873
97720W        W40637  11.382  32.535   5.554  0.2396 -0.0273  0.0134
97721W        W40638  11.227  34.124   4.161  0.2070 -0.3218 -0.1162
97722W        W40639  13.244  31.971   9.352 -0.0369  0.0632  0.0706
97723W        W40640  10.474  34.147   7.133  0.0618  0.3137 -0.0635
97724W        W40641  13.633   0.090   7.739 -0.1265  0.0706  0.0960
97725W        W40642  11.957  32.731   6.085  0.1352 -0.0269 -0.3289
97726W        W40643  11.764  33.841   5.957 -0.6345  0.0037 -0.4047
97727W        W40644  12.506  32.715   6.257  0.1772  0.0753 -0.2535
97728W        W40645  13.243  32.105   4.346  0.1034 -0.2692  0.0447
97729W        W40646  12.512  32.946   6.782 -0.0219  0.3380 -0.0008
97730W        W40647  12.199  33.307   8.759 -0.1194 -0.0226  0.0458
97731W        W40648  12.807  33.180   5.402  0.1355  0.1001  0.0330
97732W        W40649  12.952  34.006   5.510 -0.2586 -0.1696  0.0468
97733W        W40650  11.864  33.753   7.676 -0.0955 -0.0777 -0.0134
97734W        W40651  13.575  33.987   6.554  0.5322  0.0690 -0.0265
97735W        W40652  12.855  34.575   4.912  0.0047 -0.2098  0.0085
97736W        W40653  13.764  34.383  10.850 -0.3521  0.1460  0.0118
97737W        W40654  11.690   0.125   7.952 -0.0784 -0.0687 -0.0296
97738W        W40655  13.825  32.507   3.215  0.3159  0.0395 -0.4152
97739W        W40656  12.191  33.119   6.391  0.1093 -0.0342 -0.0379
97740W        W40657  12.604   0.940   6.339  0.2280 -0.0624  0.1448
97741W        W40658  12.030   0.584   8.983 -0.0834  0.0900  0.0570
97742W        W40659  12.739  33.117   3.939  0.0225 -0.2729  0.2851
97743W        W40660  14.298  32.977   5.200 -0.1245  0.1450 -0.3436
97744W        W40661  12.511  32.352   9.867 -0.0800  0.1484  0.2039
97745W        W40662  11.140  34.248   5.471 -0.2165 -0.0102  0.0357
97746W        W40663  12.225  32.759   4.878  0.0572  0.0986 -0.2859
97747W        W40664  12.903  32.342   6.331  0.1787 -0.4628  0.1015
97748W        W40665  11.910  34.340   6.026 -0.0583 -0.1160  0.1251
97749W        W40666  13.283  33.883   5.186 -0.0529 -0.3196 -0.1805
97750W        W40667  11.792  31.998   9.390  0.0412 -0.0494 -0.3784
97751W        W40668  14.690   2.485   5.913 -0.0393 -0.1634  0.0951
97752W        W40669  15.022   0.135   9.792 -0.2079 -0.1555 -0.1647
97753W        W40670  12.258  33.923  10.028  0.1156  0.1497 -0.1606
97754W        W40671  13.825   1.230   8.576 -0.0849  0.2533 -0.2841
97755W        W40672  12.801   1.680  10.674  0.0401  0.0706  0.2422
97756W        W40673  13.144  32.749   8.598 -0.0078  0.0692  0.0306
97757W        W40674  10.664  31.064  10.657  0.1639 -0.0587  0.3229
97758W        W40675  14.594   2.339  11.181 -0.2079 -0.4365 -0.1199
97759W        W40676  12.875  33.851   9.387 -0.1180  0.1600 -0.1218
97760W        W40677  11.286   1.652  10.735  0.1483 -0.3443 -0.2337
97761W        W40678  13.978  33.975   9.212  0.1039  0.2215 -0.1094
97762W        W40679  13.275  30.818  10.145 -0.1130 -0.1083 -0.2482
97763W        W40680  11.317   0.276   7.028 -0.2497 -0.1599  0.1828
97764W        W40681  12.421   1.841  10.930  0.2559 -0.1107  0.1685
97765W        W40682  12.582   2.537  10.568  0.3851  0.0899  0.1508
97766W        W40683  14.092   1.744   9.292 -0.1106  0.0496 -0.0946
97767W        W40684  13.499   2.557  10.010 -0.0851  0.1711 -0.0276
97768W        W40685  15.572   2.067  10.214  0.4328  0.0315  0.3764
97769W        W40686  15.537  34.193   9.868  0.0837  0.0544  0.0452
97770W        W40687  13.332  34.626   8.790 -0.2556  0.0072  0.1910
97771W        W40688  11.538  34.133   8.388  0.0116 -0.2214 -0.1267
97772W        W40689  14.321  32.461   7.472  0.2395 -0.3018  0.0347
97773W        W40690  14.578  32.744   8.566  0.1328 -0.1314 -0.2987
97774W        W40691  10.921  33.462   9.676 -0.4033  0.2603  0.0471
97775W        W40692  13.091   1.304  10.753 -0.0439 -0.1127 -0.1865
97776W        W40693  13.071  32.886   9.156 -0.4219  0.3251 -0.1115
97777W        W40694  12.961  32.398  11.155 -0.1915 -0.3259 -0.1345
97778W        W40695   9.598  34.402   9.316 -0.0747  0.1113 -0.1391
97779W        W40696  12.898  33.414   7.973 -0.4147  0.2641  0.0529
97780W        W40697  15.928  33.842   9.662  0.1436  0.1850 -0.0579
97781W        W40698  12.831  30.860  10.584 -0.1207  0.2222 -0.1808
97782W        W40699  13.627  32.740  10.043  0.0269  0.4118 -0.3401
97783W        W40700  15.507  33.895   7.997 -0.0154  0.1337 -0.0560
97784W        W40701   5.648   3.577  10.665  0.0783  0.1467  0.0446
97785W        W40702  15.552  34.200   8.372 -0.0112 -0.0231 -0.0343
97786W        W40703  15.488  32.907  11.460  0.0124  0.0721 -0.0296
97787W        W40704  14.597  34.201   7.647 -0.1627 -0.0112 -0.1285
97788W        W40705  12.245  31.464  10.862  0.3080  0.1818  0.0920
97789W        W40706  12.934  33.401  10.294 -0.1925 -0.1130  0.1424
97790W        W40707  12.594   2.204  10.085  0.2539 -0.1075  0.1386
97791W        W40708  13.618  33.244   9.847  0.2394  0.1306  0.1973
97792W        W40709  14.273  32.528   8.123 -0.0885  0.0757  0.3201
97793W        W40710   9.220   1.048  10.474  0.0362 -0.1542  0.0500
97794W        W40711   9.786   0.793  11.133  0.0436 -0.0121 -0.1783
97795W        W40712  12.520  32.795  10.068  0.0510  0.4761 -0.1561
97796W        W40713  12.764  33.740   9.860  0.0407 -0.0445  0.1995
97797W        W40714  13.582  33.914  10.682 -0.0012  0.1955  0.1856
97798W        W40715  12.568  33.733   8.928 -0.0440 -0.1402  0.2441
97799W        W40716  13.168   0.479  10.700  0.0024  0.0778 -0.2112
97800W        W40717  15.078  32.948  11.188  0.0043 -0.1507 -0.0112
97801W        W40718  11.184   0.451   9.069 -0.0568  0.0490 -0.0100
97802W        W40719  14.796  31.889   8.660 -0.0174 -0.1118 -0.1266
97803W        W40720  14.945  34.357   9.512  0.2107 -0.2273 -0.3826
97804W        W40721  13.214  34.078   9.710 -0.1640 -0.1067  0.0524
97805W        W40722  13.239  33.750   8.154  0.1248  0.0596 -0.2279
97806W        W40723  11.332  33.401   9.976  0.1511 -0.0599 -0.2583
97807W        W40724  14.160  31.330  11.151 -0.0057 -0.1123 -0.0713
97808W        W40725  12.642  34.197   9.820 -0.0274  0.3764  0.2467
97809W        W40726  13.862   1.056  10.480 -0.0758 -0.0134 -0.0715
97810W        W40727  14.784  32.046  10.012  0.1555 -0.1670  0.0902
97811W        W40728  14.066  33.908   9.932  0.2185  0.1072 -0.1471
97812W        W40729  14.722  34.229  10.438  0.3332 -0.1463  0.1199
97813W        W40730  10.859   0.394  11.270  0.1210  0.2536  0.0456
97814W        W40731  13.495  33.285   8.860 -0.3266  0.1091  0.0498
97815W        W40732  13.848  29.427  10.786  0.2435  0.1826 -0.1955
97816W        W40733  12.123   0.199   9.313 -0.3880 -0.1787 -0.2194
97817W        W40734  10.603   2.027  10.374 -0.1935 -0.0395 -0.0925
97818W        W40735  13.364   0.264  10.286  0.1101 -0.0128  0.0502
97819W        W40736  15.105  33.863  11.102 -0.3690  0.1676 -0.0750
97820W        W40737  12.548  33.485  10.667  0.0272 -0.4024  0.2557
97821W        W40738  12.447  30.831  10.964  0.1605 -0.0102 -0.0937
97822W        W40739  11.254  31.863  10.716 -0.1515  0.1972  0.0936
97823W        W40740  12.323   2.900   9.327  0.1863  0.0439  0.4783
97824W        W40741  13.813  33.685   8.822  0.0606  0.0175  0.3897
97825W        W40742  11.339  32.791   9.136  0.4329 -0.1181 -0.1777
97826W        W40743  14.108   1.271  10.892  0.0701  0.0385  0.0113
97827W        W40744  13.643  33.663   9.610  0.4435  0.3204  0.2311
97828W        W40745  11.124   0.731   7.240 -0.2597 -0.1861 -0.1511
97829W        W40746  16.105  33.387   9.953 -0.0279 -0.0245 -0.0498
97830W        W40747  13.198  34.632   9.682  0.0415  0.0620 -0.1427
97831W        W40748  13.089   0.438   9.270  0.0514 -0.1306  0.2351
97832W        W40749  14.328   1.193  11.386 -0.2294  0.0156  0.0396
97833W        W40750  14.619  32.654  10.806  0.0223  0.1584 -0.0171
97834W        W40751  14.273  33.670  11.136  0.0946 -0.2575 -0.2255
97835W        W40752  11.994  33.300   9.631 -0.0089  0.0908 -0.1244
97836W        W40753  14.283  33.443  10.653  0.2613  0.2877 -0.1319
97837W        W40754  14.190  32.950  10.837  0.0387 -0.0072 -0.1264
97838W        W40755  14.195  34.421  10.613  0.0488  0.2675 -0.0370
97839W        W40756  12.277   0.983  10.703 -0.2026  0.4993  0.1243
97840W        W40757  14.016   0.049   9.554  0.1294 -0.2153  0.1218
97841W        W40758  12.826  31.487   9.518  0.0664 -0.0036  0.2390
97842W        W40759  12.689   3.802  10.785  0.1161 -0.0361 -0.3723
97843W        W40760  15.483  33.516   9.739  0.0906 -0.1874 -0.1355
97844W        W40761  11.628   5.238   9.063 -0.2816 -0.1312  0.2008
97845W        W40762  15.034  34.143   8.216 -0.0014  0.1253 -0.4958
97846W        W40763  14.274  34.262   9.575  0.3222  0.4279  0.0334
97847W        W40764  13.594  32.957   8.491  0.1809 -0.0028  0.1401
97848W        W40765  15.605  33.340   7.895  0.1093  0.1476  0.0387
97849W        W40766  14.064  34.462   7.623  0.0825  0.2492  0.1441
97850W        W40767  13.983  34.471   9.099 -0.2925  0.1673  0.0708
97851W        W40768  10.836  34.633  10.453 -0.3970 -0.0812  0.2263
97852W        W40769  14.217  32.704   9.246  0.0057  0.1689  0.4358
97853W        W40770  15.305  32.786   9.965 -0.2470  0.0807  0.2665
97854W        W40771   9.818  32.937  10.405 -0.1233  0.0037 -0.0207
97855W        W40772  11.642  32.310   7.686  0.0331  0.0338 -0.0939
97856W        W40773  10.530   0.106   8.730 -0.2438  0.0626  0.1422
97857W        W40774  11.503  33.327   7.543 -0.2174 -0.3916 -0.0840
97858W        W40775  15.211  31.161   9.778  0.2369 -0.2021 -0.1102
97859W        W40776  16.925  31.929   8.882 -0.3677 -0.1015 -0.0939
97860W        W40777  12.052   2.205   9.907  0.1258 -0.1756  0.1535
97861W        W40778  13.546   1.440  10.689  0.1804  0.0566 -0.0830
97862W        W40779  18.117   2.655   8.872  0.1367 -0.0092 -0.1603
97863W        W40780  14.456  33.774   9.436  0.2980  0.0876 -0.0478
97864W        W40781  12.996  33.193   9.543  0.0829  0.0092 -0.7210
97865W        W40782  14.704  34.322   8.653 -0.0054  0.2396 -0.0959
97866W        W40783  15.467   0.136  10.893 -0.5993  0.2034  0.1002
97867W        W40784  15.695  33.471   8.546 -0.0250  0.3409 -0.1330
97868W        W40785  13.317  34.187   8.372 -0.2856 -0.0795  0.1355
97869W        W40786  11.676  32.790   9.633  0.0296 -0.0632 -0.0079
97870W        W40787  10.956  33.173   9.255 -0.2735  0.0389 -0.3077
97871W        W40788  13.861   0.790  10.984 -0.1813 -0.1043 -0.1419
97872W        W40789  15.192  32.406  11.228 -0.4119  0.0103  0.0292
97873W        W40790  12.616   0.746  10.073 -0.2336 -0.2309  0.0485
97874W        W40791  11.871  33.502   8.106 -0.0739 -0.2094 -0.2437
97875W        W40792  14.497   0.044   9.799  0.0227 -0.0437  0.1632
97876W        W40793  14.998  32.681   8.275  0.0210  0.2036 -0.0829
97877W        W40794  12.386   0.891  11.254 -0.3338  0.1275  0.0555
97878W        W40795  13.752   0.060   8.637  0.0458 -0.1773 -0.1124
97879W        W40796  10.022  34.274  10.841 -0.1189  0.0115 -0.2755
97880W        W40797  14.125   0.305   9.002 -0.0703 -0.2047  0.0421
97881W        W40798  12.418   0.999   8.975  0.1016  0.1689 -0.0164
97882W        W40799  10.293  31.846   9.569  0.3725  0.0605 -0.1052
97883W        W40800  15.476  34.309   8.946 -0.0546  0.0998  0.2554
97884W        W40801   9.104  34.547  10.944  0.0976  0.0395 -0.2885
97885W        W40802  13.534   3.554  11.192 -0.2865  0.1838  0.1324
97886W        W40803  11.154  30.440  10.672  0.4226 -0.1924  0.0829
97887W        W40804  16.024   1.103   7.987 -0.1141  0.1127 -0.0404
97888W        W40805  14.585   0.922   8.309 -0.1805 -0.1157 -0.2795
97889W        W40806   7.591   2.697  10.868  0.1514  0.1619 -0.1343
97890W        W40807  13.628  30.681  11.221  0.1605  0.1621 -0.0614
97891W        W40808  13.190  32.608  10.361  0.2229  0.1123 -0.2274
97892W        W40809  16.569   1.311   9.332 -0.1592  0.3724 -0.0076
97893W        W40810  14.336  32.817  10.408 -0.0572  0.0804 -0.1221
97894W        W40811  13.684  34.466   9.950 -0.2935  0.4254  0.0361
97895W        W40812  15.901  34.366   6.756 -0.4646 -0.0397 -0.2136
97896W        W40813  15.441  33.231   8.919  0.0227 -0.2606  0.0632
97897W        W40814  13.222   1.124  11.230 -0.0033  0.1363 -0.0258
97898W        W40815  11.142   2.125  10.203  0.1582 -0.0630  0.0022
97899W        W40816  11.246   2.400   9.812  0.2706 -0.0586  0.1491
97900W        W40817  11.490  33.913   8.932  0.1651  0.2309  0.0585
97901W        W40818  13.063   0.756  10.312  0.1822  0.3582  0.0369
97902W        W40819  11.747  32.726  10.504 -0.2047 -0.0572 -0.2679
97903W        W40820  14.458  30.368   9.908 -0.2090 -0.0009  0.0927
97904W        W40821  11.627  34.637   9.709 -0.3120  0.0531 -0.1118
97905W        W40822  13.783   1.588  10.220  0.3029  0.0470 -0.0398
97906W        W40823  13.016  27.841  10.617  0.0621 -0.1710  0.2850
97907W        W40824  16.279  31.625   6.921 -0.0315  0.1749 -0.0815
97908W        W40825  14.854   1.435  11.302  0.0302  0.2552  0.1082
97909W        W40826  15.186   0.987  11.097  0.0942 -0.0673  0.0677
97910W        W40827  15.077  33.203   9.736 -0.0065 -0.1048  0.2063
97911W        W40828  10.876  34.206  11.350 -0.0514 -0.1788  0.0171
97912W        W40829  13.206  33.518   9.850  0.1965 -0.2972  0.2619
97913W        W40830  14.326  33.895  10.364  0.2678 -0.0765  0.0247
97914W        W40831  15.296   0.229   8.085 -0.1859 -0.2018  0.2057
97915W        W40832  12.667  32.107  10.886 -0.0297 -0.0154  0.0418
97916W        W40833  12.216   0.613  10.357 -0.1151  0.2224  0.2857
97917W        W40834  13.083   0.647   9.720 -0.2904  0.0564 -0.5478
97918W        W40835  15.220   1.867   9.402  0.1806  0.2241  0.3368
97919W        W40836  18.421  34.011  12.001 -0.2494 -0.1095 -0.2102
97920W        W40837  14.095  32.906   9.993 -0.0905  0.3754 -0.1129
97921W        W40838  15.019   2.099   3.587 -0.1492 -0.3167  0.1465
97922W        W40839  13.643   0.857   0.892  0.0516 -0.1916  0.2233
97923W        W40840  17.245   0.433   2.473 -0.2006  0.0665  0.2173
97924W        W40841  17.567   1.802   2.065 -0.1000  0.1543 -0.0572
97925W        W40842  14.428   1.181   3.016 -0.2093 -0.1543  0.0625
97926W        W40843  17.874   1.516   1.802  0.1544 -0.1115  0.1046
97927W        W40844  15.543  34.128   5.778 -0.1358  0.0006 -0.0575
97928W        W40845  16.930   1.776   4.254 -0.2445  0.1981  0.3146
97929W        W40846  17.953   4.680   2.707 -0.2770 -0.0279  0.0512
97930W        W40847  18.586   2.443  31.601 -0.2160 -0.0359 -0.2239
97931W        W40848  15.480   0.978   1.801  0.2083 -0.0552  0.1401
97932W        W40849  14.492   2.694   2.146 -0.0959 -0.0643  0.0344
97933W        W40850  16.210   2.359   0.953 -0.0818 -0.1067 -0.0975
97934W        W40851  14.768  33.242   1.117  0.1120 -0.1452  0.2593
97935W        W40852  19.386   2.709   4.993  0.0056 -0.3254 -0.1491
97936W        W40853  14.041   1.801  31.848 -0.2011  0.0342 -0.2768
97937W        W40854  14.355  34.630   1.682  0.0574 -0.1305  0.0535
97938W        W40855  15.752   3.624  31.777  0.0698 -0.1427  0.1629
97939W        W40856  15.016   4.248  31.949  0.2014  0.2194  0.1680
97940W        W40857  14.438   0.044   2.682  0.1426 -0.1121 -0.0931
97941W        W40858  17.081   0.119   3.171 -0.0644 -0.2131 -0.1830
97942W        W40859  13.491   1.316   1.084 -0.0901 -0.3302  0.0381
97943W        W40860  13.625   1.696   0.670 -0.3068 -0.1198  0.2138
97944W        W40861  13.844   1.291   2.151 -0.2652 -0.0204 -0.5654
97945W        W40862  14.733   3.077   1.983  0.1404  0.0301 -0.1745
97946W        W40863  16.970  34.175   2.503  0.0221 -0.1681 -0.0070
97947W        W40864  16.735   3.870   2.876  0.0234  0.2706 -0.1537
97948W        W40865  15.252   3.067   2.002  0.0735  0.0109 -0.0376
97949W        W40866  16.759   3.086   4.275 -0.1745  0.1967 -0.2274
97950W        W40867  17.650   2.959   4.979  0.3588  0.1497  0.0862
97951W        W40868  14.939   4.653   0.425 -0.2818 -0.0992  0.3037
97952W        W40869  13.835   4.448   1.935 -0.1677 -0.1247  0.2205
97953W        W40870  16.082   4.983  30.370 -0.1288 -0.0316 -0.1101
97954W        W40871  18.355   2.739   0.951  0.2098 -0.0935 -0.1661
97955W        W40872  16.487   3.562   4.388 -0.0001  0.0587  0.0300
97956W        W40873  15.894   3.922   2.222 -0.0585  0.0625 -0.5375
97957W        W40874  14.777   2.964   1.503 -0.2881  0.0139  0.1838
97958W        W40875  15.781   1.821   3.929 -0.2907 -0.0150 -0.0079
97959W        W40876  15.823   3.249   2.789 -0.0530  0.1737 -0.3761
97960W        W40877  15.171   0.584   3.132 -0.1793 -0.0891 -0.2041
97961W        W40878  17.885   2.942   3.081  0.2627  0.5750  0.0410
97962W        W40879  16.628   4.063  30.318  0.0982  0.2076 -0.0294
97963W        W40880  15.785   0.254   1.988 -0.3188  0.0628 -0.1947
97964W        W40881  13.314   1.790   4.198  0.0560 -0.0204 -0.0353
97965W        W40882  14.295   2.041   2.798  0.0486 -0.2310 -0.1608
97966W        W40883  17.113  34.107   1.963  0.2855 -0.0832  0.0458
97967W        W40884  14.121   3.710   0.591 -0.0502  0.3070  0.0864
97968W        W40885  15.575  34.032   2.321  0.0917 -0.2764 -0.5817
97969W        W40886  15.136   2.555   0.635  0.1936  0.1003 -0.1263
97970W        W40887  15.140  34.354   1.035  0.2903 -0.3421 -0.0795
97971W        W40888  17.127   1.188   1.808 -0.1642 -0.1333 -0.1451
97972W        W40889  17.015   4.000   3.337  0.2599  0.2665  0.2266
97973W        W40890  16.214   1.447   1.133 -0.0095  0.2497  0.0258
97974W        W40891  17.195   2.096   1.862 -0.1576 -0.2218 -0.3382
97975W        W40892  15.115   1.116   0.703 -0.2028 -0.2910 -0.0517
97976W        W40893  17.798   0.475   2.626  0.0100 -0.0700  0.1356
97977W        W40894  13.814   2.192   1.120  0.0089  0.0820  0.1310
97978W        W40895  14.666   1.268   0.475  0.2687  0.0217 -0.0206
97979W        W40896  15.269   1.364   1.092 -0.1250  0.1054  0.0185
97980W        W40897  16.531   2.547   2.761 -0.1162  0.2977  0.0845
97981W        W40898  16.226   3.236   0.916 -0.2079  0.0536 -0.0668
97982W        W40899  13.888   1.562   1.228  0.2887  0.0307 -0.0332
97983W        W40900  13.163   0.705   3.788 -0.2503 -0.0939 -0.1031
97984W        W40901  14.528   1.872   2.373  0.2054  0.0158  0.0392
97985W        W40902  14.301  33.407   0.900 -0.0791  0.1900  0.2114
97986W        W40903  17.538   3.046   2.424 -0.0853  0.1815 -0.0716
97987W        W40904  15.313   3.112   2.503 -0.1055  0.1819 -0.0435
97988W        W40905  19.665   1.683   1.866 -0.0319 -0.0538  0.0705
97989W        W40906  14.809  34.284   2.822  0.4123  0.1117  0.2456
97990W        W40907  17.915   2.727   1.090 -0.0939 -0.3372  0.1363
97991W        W40908  17.118   1.633   1.635 -0.2530 -0.1162  0.0736
97992W        W40909  16.173  33.065   2.907  0.2691 -0.0282 -0.2372
97993W        W40910  18.011   1.629   2.837  0.0737 -0.1557  0.0800
97994W        W40911  16.484   2.256   0.016  0.1778  0.2846  0.1538
97995W        W40912  16.120   0.456   0.936  0.1605  0.0546  0.0188
97996W        W40913  17.254   2.881   1.365 -0.0820  0.0539  0.0187
97997W        W40914  18.747   2.463  30.417 -0.1223 -0.2089  0.2379
97998W        W40915  14.297   3.114   2.222 -0.2768  0.0843 -0.2169
97999W        W40916  15.339   0.871   2.295 -0.2306  0.0101 -0.3656
98000W        W40917  15.437   2.893   2.979  0.0148  0.0880  0.0300
98001W        W40918  15.365   3.934  30.916  0.1674  0.0863  0.1147
98002W        W40919  13.016   1.922   2.010  0.0879 -0.1718 -0.0614
98003W        W40920  13.617   0.750   2.284 -0.0734  0.0522  0.1799
98004W        W40921  14.227   0.793   5.789 -0.3682  0.4032  0.2445
98005W        W40922  15.854   3.030   2.258 -0.1502  0.0714  0.0110
98006W        W40923  15.892  33.963  31.945 -0.2698 -0.1570 -0.0810
98007W        W40924  14.560   0.040   3.752 -0.0285  0.0535  0.0241
98008W        W40925  16.772   0.535   3.051  0.2435 -0.1169  0.1085
98009W        W40926  15.491   3.623   1.348  0.2305  0.1518  0.0613
98010W        W40927  18.243   1.542  30.689  0.1724  0.3312  0.1249
98011W        W40928  18.685   0.292   2.150  0.0383  0.2871 -0.1482
98012W        W40929  16.042   3.315   0.141  0.0998  0.0910 -0.1592
98013W        W40930  14.166   0.599   1.514 -0.2543 -0.0251 -0.0108
98014W        W40931  14.350   0.250   0.704 -0.1600 -0.0511  0.1462
98015W        W40932  15.031   1.284   4.080  0.1521  0.0967  0.0441
98016W        W40933  15.094  32.379   2.407  0.0329 -0.2026  0.1870
98017W        W40934  19.217   0.899   2.796 -0.2301  0.0463 -0.2690
98018W        W40935  14.017   0.509   0.208 -0.0521  0.2033 -0.1882
98019W        W40936  15.604   2.652   1.953  0.3022  0.3657  0.1213
98020W        W40937  14.639   1.335   1.663 -0.0806  0.0441  0.2909
98021W        W40938  14.654   3.269   2.526  0.2170 -0.2598 -0.0224
98022W        W40939  17.574  34.171   1.787 -0.1347 -0.0921  0.1860
98023W        W40940  17.384   3.773   0.439  0.0806 -0.0861  0.1134
98024W        W40941  16.572   4.844   4.408 -0.3281 -0.1800 -0.0879
98025W        W40942  18.420   0.951   0.755 -0.2132 -0.0086 -0.0426
98026W        W40943  13.267   1.925   5.470  0.3255  0.1844 -0.2036
98027W        W40944  15.162   1.724   3.049  0.0610 -0.0110 -0.2396
98028W        W40945  14.432   3.379   1.396  0.4020  0.2383 -0.0459
98029W        W40946  16.029   2.158   1.820 -0.1555  0.2195 -0.1001
98030W        W40947  14.573   0.785   0.593  0.0962 -0.1534 -0.2328
98031W        W40948  18.754   1.679   2.495 -0.1328 -0.1213 -0.1533
98032W        W40949  16.678   1.556   1.350 -0.3671  0.2699 -0.3590
98033W        W40950  14.645   2.479   3.559 -0.1171 -0.1934  0.2707
98034W        W40951  17.757  34.313   3.038 -0.0818  0.1231 -0.0495
98035W        W40952  17.872   3.953   4.348  0.0537  0.0566  0.0096
98036W        W40953  16.401   2.276   2.192  0.1793 -0.0403  0.1234
98037W        W40954  14.494   0.451   0.181  0.0096  0.2665 -0.3613
98038W        W40955  17.893   2.080   2.577  0.1506 -0.3679  0.2572
98039W        W40956  12.976   3.349   1.866 -0.0126  0.0628  0.0456
98040W        W40957  14.771   2.539   1.087  0.2272  0.2034  0.3371
98041W        W40958  16.978   1.612   0.944  0.0586  0.1377  0.0447
98042W        W40959  16.377  34.025   0.562  0.0938 -0.1067 -0.2217
98043W        W40960  13.607   4.324   3.831 -0.1700 -0.0967  0.0841
98044W        W40961  18.613   2.298   3.973  0.1303 -0.0793 -0.2558
98045W        W40962  12.636   1.375   1.623 -0.3145 -0.3847  0.0466
98046W        W40963  15.008   1.646   2.437 -0.2606 -0.0279  0.3216
98047W        W40964  17.482   1.808   1.117 -0.0980 -0.1256 -0.1867
98048W        W40965  17.536   1.355   1.374  0.0068  0.0780  0.1199
98049W        W40966  16.697   1.268   4.204 -0.1561  0.0572 -0.3925
98050W        W40967  19.041   2.520   0.410 -0.0420  0.3414 -0.0937
98051W        W40968  16.516   1.964  31.469 -0.0963  0.2715  0.0911
98052W        W40969  16.563   1.757  31.933 -0.0753  0.3142  0.3881
98053W        W40970  14.794   3.319   4.705  0.1882  0.0381 -0.3076
98054W        W40971  18.234   3.501   1.401 -0.3194  0.0341  0.3861
98055W        W40972  15.273   1.707   3.971 -0.1267  0.0137 -0.0588
98056W        W40973  15.217  33.226  30.811 -0.0068  0.0865  0.0533
98057W        W40974  16.695   2.429   1.128  0.1493 -0.1413 -0.3929
98058W        W40975  14.490   2.610   4.167 -0.0628  0.0943 -0.0982
98059W        W40976  14.206   2.205   4.043  0.1012  0.0955  0.0271
98060W        W40977  16.099   3.818   1.446 -0.1481  0.0753  0.0236
98061W        W40978  17.226   4.492   4.001  0.1520 -0.0945 -0.3093
98062W        W40979  14.875   0.828   1.478  0.3242 -0.0995  0.1631
98063W        W40980  15.792   2.234   1.269  0.1409 -0.1641 -0.2565
98064W        W40981  16.356   4.093   0.074 -0.0554  0.0760  0.0897
98065W        W40982  16.370   2.032   1.324 -0.4075 -0.0688 -0.0111
98066W        W40983  16.226   0.530   2.894  0.2322 -0.0788 -0.0494
98067W        W40984  16.793  33.702   1.972  0.1118 -0.0454  0.0032
98068W        W40985  18.155   2.315   4.746  0.0767 -0.1354  0.0947
98069W        W40986  15.338  34.509   2.766 -0.1665 -0.0535  0.2652
98070W        W40987  16.219   1.477   1.689  0.1150 -0.1879  0.1240
98071W        W40988  15.212   2.097   0.511 -0.1465  0.1850 -0.1873
98072W        W40989  14.309   3.266   3.551 -0.0963 -0.2065 -0.2624
98073W        W40990  13.769   1.252   3.099  0.1840 -0.0351 -0.0669
98074W        W40991  13.774   4.725   2.863  0.1608 -0.1760  0.1681
98075W        W40992  16.808   2.566   3.610 -0.2533 -0.1897  0.2630
98076W        W40993  16.567   2.862   2.289 -0.0984 -0.1015 -0.2110
98077W        W40994  17.313   1.995   3.148  0.1461 -0.0490  0.0559
98078W        W40995  15.148  31.809  31.712  0.1500  0.0606 -0.0037
98079W        W40996  15.852   3.775   0.311 -0.0759 -0.0531  0.0288
98080W        W40997  14.298   4.135   0.931  0.0431  0.1698 -0.1967
98081W        W40998  16.797  34.036   1.386  0.0839  0.0245 -0.0548
98082W        W40999  16.647   4.151  31.356  0.3825  0.1681 -0.0418
98083W        W41000  15.421   0.447   0.018 -0.3738  0.1257 -0.4223
98084W        W41001  15.926   1.920   4.982 -0.0963 -0.1207 -0.0458
98085W        W41002  16.720   3.972   0.393  0.2140 -0.1047 -0.1612
98086W        W41003  16.264   1.492   2.526 -0.0246 -0.0145 -0.2168
98087W        W41004  17.076   3.923   1.376 -0.0330 -0.1012 -0.0561
98088W        W41005  13.877   1.294   0.782 -0.1328 -0.3125  0.0851
98089W        W41006  13.263   0.978  31.183 -0.3074  0.0416  0.4416
98090W        W41007  16.905   0.751   1.450 -0.2529 -0.1587  0.1963
98091W        W41008  17.348   1.714  29.600  0.2620 -0.0187 -0.1766
98092W        W41009  14.461  32.956   4.376 -0.1322  0.0530  0.2141
98093W        W41010  13.558  34.166   3.036  0.0423  0.0804 -0.2980
98094W        W41011  14.628   5.328   3.599  0.0404  0.0697  0.1654
98095W        W41012  15.570   2.380   4.066 -0.0307  0.1337 -0.1503
98096W        W41013  17.520   0.435   0.402  0.2229  0.4503 -0.2596
98097W        W41014  16.591   3.440   2.480  0.3247 -0.2550  0.2524
98098W        W41015  15.441   1.745   3.498 -0.0575 -0.3698 -0.0339
98099W        W41016  13.610   0.303   0.705  0.1000  0.0674  0.3113
98100W        W41017  17.979   1.183   3.276  0.1703  0.0208  0.1205
98101W        W41018  14.346   0.345  31.261  0.1672  0.0242 -0.2707
98102W        W41019  15.662   4.095   1.172  0.1562 -0.3330 -0.0724
98103W        W41020  17.170   2.535   0.522 -0.0360  0.1077  0.2144
98104W        W41021  13.694   3.072   0.927 -0.0801  0.0482 -0.0349
98105W        W41022  16.092   2.963   0.493 -0.0571 -0.1025  0.0066
98106W        W41023  16.001   2.660   3.919 -0.3215  0.3169  0.3619
98107W        W41024  18.527   2.838   4.013  0.0596  0.3943 -0.1851
98108W        W41025  15.035   1.408   3.517 -0.2010  0.1255 -0.0606
98109W        W41026  14.163   2.782   3.815 -0.1233  0.2608 -0.0677
98110W        W41027  15.057   2.609   3.971 -0.0567 -0.0812  0.1980
98111W        W41028  18.026   3.331   3.979 -0.1148 -0.0145 -0.2509
98112W        W41029  17.576   1.694   2.620 -0.0042 -0.2236 -0.1939
98113W        W41030  12.562   1.450   4.090 -0.0860  0.1677  0.1358
98114W        W41031  16.143  34.670   2.821 -0.1547 -0.2017  0.0512
98115W        W41032  18.722   5.226   1.186 -0.1014 -0.0258  0.1699
98116W        W41033  17.472   1.396   3.860 -0.0382  0.2019  0.0561
98117W        W41034  13.052   1.904  31.055 -0.3212 -0.3973 -0.0536
98118W        W41035  16.263   3.104   1.906 -0.2165  0.2392 -0.0292
98119W        W41036  16.043   2.144   0.167 -0.0256 -0.0477  0.1467
98120W        W41037  15.932   1.049   1.715 -0.1146 -0.1409 -0.0582
98121W        W41038  14.395   2.825   2.625 -0.1014  0.0295 -0.0083
98122W        W41039  14.773   1.521   2.074  0.2668  0.0217  0.0473
98123W        W41040  14.839   2.106   2.960 -0.0121  0.0015  0.0108
98124W        W41041  17.227   0.501   0.930  0.1697 -0.2595  0.0578
98125W        W41042  15.920   4.322   0.164  0.2189  0.1720 -0.2721
98126W        W41043  16.209  33.467   1.192  0.2368 -0.1211 -0.1255
98127W        W41044  19.266   0.425   3.525 -0.1544 -0.0148 -0.0538
98128W        W41045  18.569   3.065   0.589 -0.2256  0.1772  0.1045
98129W        W41046  16.835   0.056   3.614  0.0175 -0.0724  0.0107
98130W        W41047  16.736   0.356   2.598 -0.1108  0.0281  0.4615
98131W        W41048  16.729   1.914   1.752 -0.1553  0.2319 -0.1482
98132W        W41049  14.383   1.026   1.407  0.2024 -0.1885 -0.0206
98133W        W41050  16.061   4.168   5.558 -0.1410 -0.0896 -0.1483
98134W        W41051  12.984   0.163   2.884 -0.2920  0.1322  0.1507
98135W        W41052  16.568   1.442   0.719  0.1310  0.0312 -0.2719
98136W        W41053  11.850   0.736   1.364 -0.2802 -0.1356  0.2977
98137W        W41054  13.334   0.879   1.418  0.1374 -0.0313  0.0670
98138W        W41055  17.392   2.716   2.082  0.3899  0.2518  0.5036
98139W        W41056  17.307   3.411   0.817 -0.0573  0.0717 -0.1996
98140W        W41057  16.753   2.336   0.620  0.2883  0.1358 -0.0006
98141W        W41058  12.576   0.611   2.343  0.2553 -0.0715 -0.2762
98142W        W41059  17.195   0.272   1.375 -0.3032  0.1190  0.2245
98143W        W41060  15.107   0.210   1.322  0.1502 -0.0397 -0.2226
98144W        W41061  15.346   0.338   2.232 -0.3081  0.0680  0.1044
98145W        W41062  14.442   0.694   5.170  0.0985 -0.2513  0.3469
98146W        W41063  17.364   2.974   2.985 -0.0408 -0.3573 -0.0929
98147W        W41064  16.213   0.689   2.403  0.2310 -0.1271  0.0755
98148W        W41065  16.936   1.467   3.708  0.2047 -0.0221  0.1099
98149W        W41066  16.977   1.619   3.188 -0.2975  0.1085  0.2116
98150W        W41067  17.069   2.079   2.706 -0.1870  0.0869  0.4236
98151W        W41068  14.561   0.551   4.154 -0.1419  0.0609 -0.0771
98152W        W41069  17.351   1.825   3.604 -0.2322 -0.1976 -0.3359
98153W        W41070  14.510   2.058   1.271 -0.1001  0.0150  0.0608
98154W        W41071  17.996   0.323   1.552 -0.1693 -0.0274  0.0855
98155W        W41072  18.018   0.792   2.276 -0.2164 -0.0458  0.0017
98156W        W41073  14.914   1.642   1.297 -0.4645  0.0414  0.0432
98157W        W41074  15.559   1.934   0.892 -0.1554  0.1637  0.0311
98158W        W41075  15.736   3.238   4.322  0.0373 -0.0809 -0.1831
98159W        W41076  13.733   2.618  29.989 -0.2064  0.0026 -0.0120
98160W        W41077  17.814   0.510   1.129  0.3789  0.0595 -0.0581
98161W        W41078  17.726   3.061  31.859 -0.0983 -0.0671 -0.1327
98162W        W41079  16.343   3.052   2.700 -0.0312  0.0543  0.1045
98163W        W41080  15.818  34.265   2.729 -0.2702 -0.0437  0.0407
98164W        W41081  15.744  34.667   2.400 -0.0337  0.0282  0.0927
98165W        W41082  13.779   2.104   2.588  0.2915 -0.2217 -0.1290
98166W        W41083  14.788   4.300  30.386  0.0399  0.1733 -0.0168
98167W        W41084  14.318   1.866   0.431 -0.2650 -0.0861  0.2709
98168W        W41085  15.644   4.591   1.339  0.0219  0.0867 -0.1185
98169W        W41086  16.065   2.209   4.083  0.1090 -0.1079 -0.0634
98170W        W41087  15.736   1.848   0.420  0.1733  0.1607 -0.3732
98171W        W41088  16.342   1.200   3.347 -0.2450  0.0724  0.2133
98172W        W41089  15.282   4.028   1.555  0.0561 -0.2813  0.1651
98173W        W41090  17.274  33.881   1.491 -0.1057  0.1268  0.1844
98174W        W41091  16.267   1.771   3.267  0.1102 -0.0242 -0.0289
98175W        W41092  14.294   0.678   3.198 -0.2202  0.0702  0.2739
98176W        W41093  13.963   3.544   1.019 -0.0549 -0.1658  0.5117
98177W        W41094  18.294   0.077   1.854  0.1460  0.0780  0.0827
98178W        W41095  16.883   2.294   2.269 -0.1572 -0.0274 -0.0318
98179W        W41096  17.157   0.865   2.162  0.2552 -0.1059  0.1336
98180W        W41097  17.788   0.672   3.108  0.2622  0.1125  0.0138
98181W        W41098  16.984   1.841   2.250  0.1999 -0.0373  0.1256
98182W        W41099  14.453   0.828   2.648  0.2538  0.1853  0.4853
98183W        W41100  15.760   3.833   4.076 -0.1944 -0.0222 -0.1400
98184W        W41101  16.536   2.444   1.703 -0.0397 -0.2432  0.1753
98185W        W41102  16.480   2.770   0.733 -0.3892  0.0808  0.1538
98186W        W41103  14.749   0.824   3.201 -0.0949 -0.1796  0.2206
98187W        W41104  14.423   2.110   3.309  0.1824  0.0629  0.2132
98188W        W41105  16.673  34.578   2.227 -0.2372 -0.1687  0.2998
98189W        W41106  14.477  34.173   1.722  0.1003 -0.0482  0.0987
98190W        W41107  16.944   3.203   0.083  0.0619  0.0800 -0.0926
98191W        W41108  13.877   1.228   3.609 -0.2030 -0.0801  0.0878
98192W        W41109  12.814   0.878   3.224 -0.0010  0.0575 -0.0529
98193W        W41110  15.750   5.271  28.526 -0.1217  0.2600 -0.1245
98194W        W41111  16.575   2.918   1.533  0.1517  0.1697  0.1944
98195W        W41112  15.897   1.776   1.408 -0.0846  0.3222 -0.0770
98196W        W41113  15.456   1.900   4.355 -0.0923  0.2383 -0.0744
98197W        W41114  14.899   0.991   1.976  0.0398  0.0395  0.2664
98198W        W41115  16.281   3.577   2.972  0.0816  0.5287  0.1231
98199W        W41116  14.555   3.015  31.266 -0.0936  0.0999 -0.2842
98200W        W41117  17.282   2.888   0.044 -0.2436  0.1974  0.1551
98201W        W41118  14.365   1.396   0.895 -0.1519 -0.0420  0.2419
98202W        W41119  15.426   3.418   5.140  0.0943 -0.0996  0.1080
98203W        W41120  16.544   0.599   0.151 -0.0619  0.1446 -0.1645
98204W        W41121  18.446   1.295   3.099 -0.1332 -0.0667  0.0940
98205W        W41122  16.384  33.785   1.564 -0.0052 -0.0545 -0.2686
98206W        W41123  16.016   0.873   3.132 -0.1288 -0.3138 -0.0310
98207W        W41124  12.354   1.041   3.624 -0.2490 -0.0131 -0.1557
98208W        W41125  15.470  34.391   1.972  0.0509 -0.0478 -0.4782
98209W        W41126  14.853   0.568   2.262  0.0609 -0.0588 -0.0714
98210W        W41127  17.693   0.908   3.588  0.0399 -0.2608  0.2963
98211W        W41128  14.117   5.279   1.399  0.0932  0.3762  0.0661
98212W        W41129  18.028   3.084   0.573 -0.1017  0.3569 -0.0635
98213W        W41130  14.524  33.960   2.225  0.0766  0.1910  0.3755
98214W        W41131  14.217   2.441   1.412  0.2637 -0.3374  0.0371
98215W        W41132  18.499  33.670   3.428  0.3799 -0.1201  0.1025
98216W        W41133  16.329   2.065   0.560  0.0832 -0.0387  0.1781
98217W        W41134  15.804   0.490   1.484  0.2108  0.2792 -0.0112
98218W        W41135  12.744   4.461   1.064 -0.1076 -0.3315  0.0044
98219W        W41136  13.690   2.643   3.821 -0.1948 -0.0148 -0.1316
98220W        W41137  15.966   4.000   3.520  0.0150 -0.0661  0.3030
98221W        W41138  15.310  33.094   1.319  0.1692  0.0755  0.1101
98222W        W41139  17.980   1.076   2.718 -0.1118 -0.1433 -0.0471
98223W        W41140  15.009   2.633   3.265 -0.4085 -0.0877 -0.0297
98224W        W41141  18.289  33.353  31.812 -0.0666  0.1553  0.2569
98225W        W41142  13.667  33.649   3.201  0.1321 -0.3041  0.0692
98226W        W41143  15.957  33.259   0.772  0.2208  0.2258  0.0943
98227W        W41144  15.794   1.608   2.694  0.2939 -0.1587 -0.3317
98228W        W41145  14.670   1.861   1.703 -0.1813 -0.1133 -0.0142
98229W        W41146  17.041   3.738   0.013 -0.5217 -0.1251  0.0606
98230W        W41147  17.752   2.303   4.347  0.1417  0.0177  0.0455
98231W        W41148  17.387   1.323   0.880 -0.2883 -0.0229  0.1758
98232W        W41149  16.975   3.658   2.282 -0.3391 -0.0569  0.1611
98233W        W41150  14.221   2.262   2.342  0.0911 -0.0172 -0.3636
98234W        W41151  15.992   0.926   1.232  0.2360 -0.0421  0.0830
98235W        W41152  15.284   1.615   0.614  0.0145  0.3111 -0.1051
98236W        W41153  15.759   1.926   3.100 -0.1212  0.1691 -0.1808
98237W        W41154  16.144   4.637   4.732 -0.4006  0.1869  0.0226
98238W        W41155  13.773   0.631   3.063 -0.0789  0.1101  0.4947
98239W        W41156  17.462   4.223  31.480 -0.3068 -0.3001  0.1042
98240W        W41157  16.851   4.148   2.288  0.3440  0.3491 -0.0433
98241W        W41158  13.941   4.550   0.090 -0.2836 -0.1195  0.0389
98242W        W41159  15.503   2.687   1.458 -0.3223 -0.0381  0.1675
98243W        W41160  16.791   3.371   2.992 -0.0403 -0.2273  0.3479
98244W        W41161  14.257   1.587   1.836  0.2684 -0.1577 -0.2150
98245W        W41162  16.886   2.916   2.779 -0.1121 -0.3406  0.3989
98246W        W41163  17.754   2.985   1.515 -0.4977 -0.0525  0.0349
98247W        W41164  15.476   0.113   1.652  0.0368  0.2093  0.3928
98248W        W41165  14.077   0.992   4.899  0.0151  0.2957  0.2029
98249W        W41166  12.648   3.507  30.919 -0.2397  0.2141 -0.2415
98250W        W41167  18.573   1.776   1.360  0.1023 -0.1550  0.1040
98251W        W41168  17.618   0.130   2.285  0.0776 -0.0176  0.0497
98252W        W41169  14.886   3.322  30.386 -0.0320 -0.1262 -0.2203
98253W        W41170  18.595  34.244   2.748  0.1940  0.1693 -0.0041
98254W        W41171  17.037   3.063   2.317  0.0566  0.1744  0.0146
98255W        W41172  12.830   1.877   3.967 -0.4454 -0.1842  0.0045
98256W        W41173  14.998   5.850   0.208  0.3128  0.1771  0.2214
98257W        W41174  15.709   2.367   2.831  0.3257 -0.1544  0.1283
98258W        W41175  15.631   1.327   3.045  0.1008 -0.1870  0.2145
98259W        W41176  15.927   3.038  31.694 -0.1741 -0.0589  0.0106
98260W        W41177  19.303   2.114   1.931 -0.2186  0.0436 -0.1603
98261W        W41178  13.710   2.512   0.122  0.1272  0.2470  0.1315
98262W        W41179  17.852   1.846   0.736  0.2769 -0.0874 -0.4814
98263W        W41180  16.047   1.868   0.914 -0.1943 -0.1295 -0.2721
98264W        W41181  18.013  34.454   1.536 -0.0562  0.2011 -0.0529
98265W        W41182  15.840   1.557  31.917  0.0658  0.0624 -0.1125
98266W        W41183  14.492   0.259   2.246 -0.0253  0.2224 -0.2312
98267W        W41184  13.885   3.164  31.174 -0.2013  0.1252  0.1766
98268W        W41185  14.365   1.591   1.334 -0.0307  0.1240 -0.1288
98269W        W41186  15.276   3.561   0.350 -0.0881 -0.2236 -0.1314
98270W        W41187  15.068  34.070   3.746 -0.1902 -0.0233 -0.0356
98271W        W41188  15.713   0.474   3.216  0.1300 -0.2267  0.2786
98272W        W41189  15.277   3.141   1.445  0.0414  0.1149  0.0521
98273W        W41190  15.649  33.999   1.727 -0.2761 -0.0480  0.0459
98274W        W41191  18.392   3.220   0.986 -0.2878 -0.1332 -0.0188
98275W        W41192  15.365   0.896   1.312  0.1833  0.0112  0.3570
98276W        W41193  15.916  33.537   1.657 -0.1690 -0.2450  0.1158
98277W        W41194  16.098   2.618   2.062 -0.0165  0.1790 -0.2468
98278W        W41195  16.280   2.521   0.408 -0.0137 -0.3581  0.0625
98279W        W41196  13.660   0.538  31.821 -0.1600  0.0824 -0.0824
98280W        W41197  17.674   3.397   3.669 -0.0763  0.4047  0.1130
98281W        W41198  14.103   1.792   0.884  0.1274  0.2952  0.0715
98282W        W41199  15.281   1.321   2.130  0.0853 -0.0665  0.2628
98283W        W41200  16.380   0.013   1.823 -0.3177  0.0572 -0.1044
98284W        W41201  12.854   1.687  30.597 -0.0136 -0.0802 -0.0768
98285W        W41202  14.768   1.208   2.538 -0.1061  0.0429  0.0487
98286W        W41203  15.887   3.647   1.025 -0.1262  0.1929  0.1495
98287W        W41204  16.225   4.420  31.677 -0.0362 -0.3246  0.1908
98288W        W41205  14.969   2.824   2.356 -0.3247  0.0426  0.0541
98289W        W41206  18.127   3.758   2.835  0.0878 -0.0171  0.0479
98290W        W41207  13.828   0.921   1.356 -0.1977 -0.0365  0.1995
98291W        W41208  16.434   1.013   1.586  0.2247  0.4332 -0.0088
98292W        W41209  16.238   2.693   3.480 -0.1865 -0.1906 -0.1543
98293W        W41210  17.763   4.284   0.911  0.4481  0.1552 -0.0387
98294W        W41211  17.408   0.058   0.851  0.0046  0.4389  0.0036
98295W        W41212  16.832   1.113   2.463  0.0354  0.1616  0.0999
98296W        W41213  16.211   0.117   4.910  0.1876 -0.0079  0.2312
98297W        W41214  15.629   1.441   4.303  0.0772  0.0930  0.3550
98298W        W41215  17.336   0.484   2.922  0.1582 -0.0397  0.0931
98299W        W41216  14.507   0.737   1.845 -0.0595  0.0777 -0.2555
98300W        W41217  15.963   0.731   0.552  0.0052  0.0085 -0.1882
98301W        W41218  16.927   4.313   0.946 -0.0999 -0.1970  0.1514
98302W        W41219  15.024   0.848   2.740  0.1733  0.0737  0.0562
98303W        W41220  15.652   1.005   0.818 -0.1016 -0.1215  0.1396
98304W        W41221  13.763   2.080   3.660  0.1315 -0.4169 -0.1536
98305W        W41222  17.701   3.396   2.795 -0.1659 -0.2311  0.2785
98306W        W41223  17.200   0.968   3.943 -0.0582 -0.0721 -0.1034
98307W        W41224  14.847   0.199   0.922  0.0358  0.0516  0.0198
98308W        W41225  16.237   1.052   2.046 -0.0679 -0.0336  0.0139
98309W        W41226  15.534   2.675   2.462  0.0973 -0.1819  0.3140
98310W        W41227  18.457   2.473   5.165  0.3149  0.2627 -0.0777
98311W        W41228  15.922   2.139   3.594  0.0006 -0.1612  0.1862
98312W        W41229  15.756   3.088   1.764 -0.0355 -0.0583  0.1698
98313W        W41230  15.376  33.833   3.400 -0.2059  0.0183 -0.0669
98314W        W41231  15.747   1.214   2.194 -0.1048 -0.1064  0.1530
98315W        W41232  15.797   2.238   2.236 -0.1868 -0.2198 -0.1314
98316W        W41233  17.579   0.598   2.088  0.0827 -0.0609  0.2737
98317W        W41234  16.621   0.002   1.266  0.0910 -0.0840  0.1474
98318W        W41235  16.243   0.202   2.357 -0.1467  0.4215  0.1738
98319W        W41236  14.705   1.691   3.923  0.4628 -0.0917  0.3001
98320W        W41237  15.840   3.567   1.824 -0.1892 -0.1712 -0.1483
98321W        W41238  15.301   2.349   9.738  0.1615 -0.0292  0.0800
98322W        W41239  15.720   0.536   4.032  0.2027  0.2634  0.1253
98323W        W41240  17.392   0.548   3.808  0.0824  0.0899  0.2228
98324W        W41241  16.099   0.583   5.020 -0.0263 -0.4153  0.0353
98325W        W41242  15.117   1.223   4.707 -0.1904 -0.1223 -0.3719
98326W        W41243  16.623   2.082   5.449 -0.0763  0.0119 -0.1981
98327W        W41244  15.504   1.298   6.594  0.2858  0.0538  0.0233
98328W        W41245  18.978   3.666   4.913 -0.2546  0.3578 -0.0450
98329W        W41246  17.276   3.239   6.388 -0.1796  0.1672  0.0600
98330W        W41247  16.664   2.140   3.071  0.4232  0.0315  0.0711
98331W        W41248  15.462  33.641   5.791 -0.1578  0.2329 -0.0266
98332W        W41249  16.075   2.448   5.806 -0.0228  0.2296 -0.5354
98333W        W41250  16.945   0.498   4.673  0.3062  0.0440  0.1149
98334W        W41251  13.495   0.677   6.130  0.1108 -0.1147 -0.0873
98335W        W41252  17.816   2.140   5.137 -0.1979  0.2393  0.1182
98336W        W41253  15.183   2.903   5.404  0.0488 -0.3633 -0.1497
98337W        W41254  14.147   1.319   5.790  0.0809 -0.1145 -0.1612
98338W        W41255  16.774  34.490   4.169  0.1923 -0.0069  0.0958
98339W        W41256  15.812   6.122   3.765 -0.1377  0.0186 -0.1166
98340W        W41257  15.898   1.704   6.172  0.3542  0.1259 -0.2454
98341W        W41258  16.270   0.852   5.904  0.1197 -0.0706  0.0690
98342W        W41259  15.143   3.122   3.926 -0.3512 -0.2296  0.1817
98343W        W41260  13.518   0.636   4.876  0.0681 -0.1186 -0.3059
98344W        W41261  15.634   2.283   7.199  0.0551 -0.2872 -0.0108
98345W        W41262  14.514   2.046   5.980 -0.1765  0.1257 -0.0193
98346W        W41263  16.416   0.409   4.533 -0.0531 -0.1305 -0.0058
98347W        W41264  16.153   1.996   2.718 -0.0285  0.1174 -0.0052
98348W        W41265  16.292   4.581   5.226 -0.2844 -0.0562 -0.1777
98349W        W41266  13.738   2.138   4.168  0.1740 -0.1178 -0.0924
98350W        W41267  18.123  34.591   5.789 -0.0019 -0.0676  0.0563
98351W        W41268  14.790   1.024   7.429 -0.0016 -0.0358  0.0093
98352W        W41269  14.040   5.654   4.167  0.3007 -0.2172 -0.2423
98353W        W41270  14.519   3.844   3.745  0.2409 -0.0499 -0.0806
98354W        W41271  19.578   2.102   4.365 -0.1878 -0.2229  0.3210
98355W        W41272  17.585   2.275   6.171  0.1560  0.2406  0.0985
98356W        W41273  15.369   3.366   7.353  0.1834  0.1108  0.2054
98357W        W41274  15.109   2.520   2.790 -0.2960 -0.0114  0.1928
98358W        W41275  18.092   5.467   7.154 -0.2110  0.1050  0.1013
98359W        W41276  14.981   2.011   5.945 -0.0878  0.1125 -0.2119
98360W        W41277  16.369   1.068   5.016  0.0202  0.2039 -0.0731
98361W        W41278  17.218   2.367   4.511  0.2826  0.3319  0.3632
98362W        W41279  13.815   2.633   6.338 -0.3200  0.0909 -0.2031
98363W        W41280  16.354   1.575   4.990 -0.1717  0.2310 -0.0673
98364W        W41281  17.536   1.629   5.728  0.0609 -0.1381  0.1333
98365W        W41282  14.931   3.318   6.595 -0.0174 -0.3123 -0.3024
98366W        W41283  18.557  33.350   6.281  0.0611  0.0188 -0.0251
98367W        W41284  13.331   2.202   3.904 -0.0564  0.1166 -0.1902
98368W        W41285  20.182   0.844   2.839  0.0336  0.2018 -0.2209
98369W        W41286  16.126   1.118   3.756  0.2488 -0.0502 -0.2676
98370W        W41287  17.546  33.062   2.864 -0.0438  0.2104 -0.0558
98371W        W41288  15.353   0.518   4.415 -0.0817 -0.0471  0.0848
98372W        W41289  15.329   3.624   6.315 -0.0266  0.1956  0.0368
98373W        W41290  17.223   0.947   5.580 -0.1355 -0.0014 -0.0054
98374W        W41291  18.486   1.314   5.905 -0.1349 -0.0804  0.1179
98375W        W41292  14.987   0.934   3.661 -0.3718  0.0261  0.1532
98376W        W41293  17.747   0.806   5.844  0.1219  0.1618 -0.3195
98377W        W41294  14.449   3.344   7.009  0.0382 -0.0402  0.2714
98378W        W41295  16.091   1.343   2.969  0.0049 -0.1549 -0.1019
98379W        W41296  16.759   4.436   4.230 -0.1176 -0.1370  0.2886
98380W        W41297  17.745   4.005   6.861 -0.0354  0.2131 -0.0557
98381W        W41298  15.923   1.497   3.463  0.0288  0.1265  0.1248
98382W        W41299  14.048   2.634   4.263  0.0289  0.2443  0.1140
98383W        W41300  15.140   2.816   5.939  0.2177  0.1353  0.1405
98384W        W41301  14.816   3.317   6.123  0.2787  0.1035  0.4170
98385W        W41302  13.607  32.957   3.903  0.0799  0.0230 -0.2075
98386W        W41303  19.618   0.971   7.353 -0.0914  0.2577 -0.0999
98387W        W41304  14.546   2.261   7.973 -0.0820 -0.5380 -0.1521
98388W        W41305  17.801   1.329   2.309  0.0734  0.0421  0.2391
98389W        W41306  14.691   2.841   5.104  0.1171 -0.0150 -0.4099
98390W        W41307  17.086   3.475   5.822  0.2657 -0.1195  0.1473
98391W        W41308  15.749   0.995   4.892 -0.2346 -0.2517 -0.0270
98392W        W41309  17.146  34.160   4.377 -0.0993 -0.2663  0.2279
98393W        W41310  18.454  34.014   4.181 -0.0758  0.2746 -0.2813
98394W        W41311  15.104   2.905   4.747  0.1133  0.0108  0.1584
98395W        W41312  16.461   2.168   3.605 -0.0792  0.0671  0.0782
98396W        W41313  17.642   1.889   6.731  0.1341 -0.0329 -0.0758
98397W        W41314  17.603   2.907   3.489  0.2083  0.0178  0.1118
98398W        W41315  14.520   4.873   6.583 -0.1604  0.0865 -0.2481
98399W        W41316  16.174   1.849   5.376  0.1749 -0.0338  0.3125
98400W        W41317  16.703   2.087   6.665 -0.2557 -0.2102 -0.0044
98401W        W41318  15.162   3.819   5.406 -0.0019 -0.1835  0.1008
98402W        W41319  13.842   2.229   4.711  0.1543  0.1201  0.0940
98403W        W41320  14.949   0.804   4.244 -0.0311 -0.0464  0.2166
98404W        W41321  15.196  34.616   8.508 -0.2319 -0.2100 -0.2255
98405W        W41322  14.742   2.919   5.677  0.3016  0.0402  0.1949
98406W        W41323  17.742  34.656   3.810  0.1039 -0.0318 -0.1809
98407W        W41324  14.852   1.594   7.242 -0.0329 -0.1679 -0.1387
98408W        W41325  17.665   0.877   4.152  0.0936  0.0350 -0.1843
98409W        W41326  14.685   4.750   5.288  0.0590 -0.0777 -0.2333
98410W        W41327  18.754   3.821   5.367 -0.1964 -0.0224  0.2478
98411W        W41328  15.162   1.954   5.435  0.2940 -0.1241 -0.1162
98412W        W41329  16.468   1.860   4.128  0.2128 -0.2353 -0.2356
98413W        W41330  15.014   0.267   5.495  0.0080  0.2638  0.2852
98414W        W41331  14.748  34.206   6.146 -0.2391  0.1149 -0.1116
98415W        W41332  14.299   1.081   8.734  0.0778 -0.0405  0.0893
98416W        W41333  14.732   1.683   6.754 -0.1392  0.2940  0.1888
98417W        W41334  18.245   1.740   8.320  0.1102 -0.1551 -0.0277
98418W        W41335  13.295  34.071   3.480  0.1050 -0.1202 -0.2950
98419W        W41336  17.333   1.273   3.404  0.2504  0.1058 -0.1974
98420W        W41337  16.222   1.373   6.034 -0.1573 -0.0047  0.0275
98421W        W41338  12.682   1.778   6.254  0.0218 -0.1054  0.0326
98422W        W41339  16.300  33.619   7.224  0.0939  0.2441  0.2591
98423W        W41340  15.303   2.226   3.142 -0.0192 -0.0183 -0.0997
98424W        W41341  18.044   1.796   4.733 -0.0855 -0.0777 -0.1525
98425W        W41342  17.318   3.428   5.015  0.2006 -0.0990 -0.0504
98426W        W41343  15.763   1.339   7.666  0.0429 -0.3739  0.1958
98427W        W41344  13.144  33.832   2.961  0.2482 -0.1191  0.0373
98428W        W41345  14.428   2.973   4.534  0.3216 -0.0440  0.0943
98429W        W41346  15.525   2.611   4.793 -0.3055 -0.1471 -0.4963
98430W        W41347  15.521   0.847   2.882 -0.1218 -0.0428  0.1141
98431W        W41348  18.546   5.699   6.933 -0.2338 -0.1636 -0.0092
98432W        W41349  16.654   2.446   5.832  0.0399  0.2466 -0.1352
98433W        W41350  13.313   3.556   6.297 -0.3167 -0.1509  0.3990
98434W        W41351  15.687  34.395   6.303  0.3336 -0.1798  0.1033
98435W        W41352  16.046   1.341   4.633  0.1883 -0.0387 -0.0279
98436W        W41353  16.193   1.472   4.117 -0.0657  0.0495 -0.0051
98437W        W41354  15.687   0.120   3.590  0.2655 -0.5116 -0.0514
98438W        W41355  14.909   2.134   4.736  0.0023  0.2664 -0.1691
98439W        W41356  13.680   3.248   2.966 -0.0890 -0.0519 -0.2584
98440W        W41357  13.838   0.158   6.743  0.2316 -0.0290  0.1145
98441W        W41358  15.608   1.606   4.756 -0.0705  0.0687  0.1361
98442W        W41359  17.509   0.342   3.384  0.1070 -0.1640  0.0293
98443W        W41360  13.969   1.887   8.103 -0.1071 -0.1653 -0.0905
98444W        W41361  17.769   1.806   6.190  0.2524  0.0565 -0.1098
98445W        W41362  15.706   0.021   3.098 -0.0451 -0.2373  0.2208
98446W        W41363  15.380   3.196   6.107  0.0884 -0.0012 -0.0922
98447W        W41364  17.172  33.421   2.247  0.0486 -0.0627 -0.0870
98448W        W41365  17.924   0.514   3.757  0.0754  0.2006 -0.0818
98449W        W41366  16.854   2.438   6.306 -0.1184  0.1854  0.1380
98450W        W41367  17.403   2.728   5.779 -0.2001 -0.0594  0.3190
98451W        W41368  17.081   1.566   2.688  0.0194 -0.0297  0.2935
98452W        W41369  16.515  33.936   2.333 -0.0964 -0.2624  0.0123
98453W        W41370  15.011   1.107   8.258  0.4188 -0.0086 -0.2931
98454W        W41371  15.531   1.690   5.292 -0.2447  0.2621  0.3316
98455W        W41372  17.149   2.870   4.964 -0.0198  0.1704  0.1611
98456W        W41373  17.100   2.306   5.019 -0.0223 -0.0657 -0.0943
98457W        W41374  18.323   3.635   5.194  0.1557  0.1260  0.1711
98458W        W41375  14.274   1.400   8.176  0.0987 -0.1121  0.1016
98459W        W41376  17.525   3.596   6.031  0.1380 -0.2538  0.1611
98460W        W41377  16.863   1.865   5.091 -0.1600 -0.1869 -0.1876
98461W        W41378  20.389   0.216   5.568  0.1239  0.2750 -0.4688
98462W        W41379  13.193   1.414   2.952 -0.1826 -0.0169  0.0899
98463W        W41380  16.680  34.391   6.308  0.3217  0.0530  0.3595
98464W        W41381  15.379   4.400   2.980 -0.1054 -0.0185 -0.0668
98465W        W41382  15.028  34.248   5.723  0.0583  0.1086  0.1107
98466W        W41383  16.603  34.520   2.675  0.1351  0.1051  0.0267
98467W        W41384  16.975  33.812   6.771  0.0350  0.2214  0.1492
98468W        W41385  18.611   2.824   6.607  0.1480  0.0045 -0.0877
98469W        W41386  16.897   2.006   3.484  0.0446  0.1116  0.2037
98470W        W41387  17.022   2.915   5.979  0.0442  0.1824  0.0427
98471W        W41388  15.932   0.977   4.127  0.1360  0.0276 -0.2774
98472W        W41389  16.167   0.409   6.133 -0.0055 -0.0563 -0.2125
98473W        W41390  15.473   2.980   7.041 -0.0994  0.0366 -0.2598
98474W        W41391  15.169   4.537   5.021  0.1071 -0.2799 -0.0754
98475W        W41392  18.303   2.785   5.993 -0.0612  0.0634 -0.2557
98476W        W41393  15.903   1.560   5.701 -0.0547 -0.2544 -0.0599
98477W        W41394  16.808   0.541   5.657 -0.1601  0.2420  0.2949
98478W        W41395  15.007   0.740   5.291  0.2398 -0.1063  0.0066
98479W        W41396  15.756   3.020   3.332  0.2073  0.1036 -0.0136
98480W        W41397  13.850   3.125   5.179  0.1567 -0.0220  0.2351
98481W        W41398  14.917   0.408   4.978 -0.1857  0.0962 -0.1579
98482W        W41399  15.661   2.735   5.728  0.2023 -0.2208  0.0298
98483W        W41400  15.626   0.956   3.429 -0.3475 -0.0074 -0.2346
98484W        W41401  17.721   1.418   6.517 -0.0673 -0.2697 -0.1288
98485W        W41402  15.883   2.863   6.753  0.0561 -0.0662 -0.0723
98486W        W41403  18.014   0.837   5.083  0.1389  0.0817 -0.2214
98487W        W41404  14.108   3.573   5.471 -0.2278  0.4435  0.3718
98488W        W41405  15.357   2.020   2.703 -0.2981  0.1843  0.0039
98489W        W41406  14.264  33.194   5.744  0.1488 -0.1455  0.2039
98490W        W41407  18.469   1.391   3.659  0.0660  0.2112 -0.0640
98491W        W41408  16.689   1.018   3.780  0.0852 -0.0599  0.1901
98492W        W41409  14.515   0.198   5.255 -0.0579  0.1514  0.3923
98493W        W41410  16.322  34.542   5.333 -0.3105 -0.5022  0.1081
98494W        W41411  13.833   3.570   6.283  0.1229 -0.1235 -0.1020
98495W        W41412  16.401   2.582   6.642 -0.1685 -0.2393  0.0085
98496W        W41413  16.562   0.517   5.033  0.0266  0.4070 -0.1681
98497W        W41414  15.502   2.830   3.704 -0.1834  0.0144 -0.4425
98498W        W41415  15.113   1.423   5.500 -0.0631 -0.2899  0.3459
98499W        W41416  14.152   4.059   5.288  0.2766  0.1550 -0.0188
98500W        W41417  17.043   2.504   5.434 -0.3707 -0.1759 -0.0051
98501W        W41418  16.950  34.476   5.924 -0.0072 -0.1906 -0.1563
98502W        W41419  16.269   3.179   3.263 -0.1374 -0.1148  0.0428
98503W        W41420  16.234   3.090   4.432  0.2856 -0.4983 -0.0587
98504W        W41421  14.569   1.044   3.998 -0.1869  0.0924  0.3144
98505W        W41422  14.906   3.340   5.199  0.0903  0.1293 -0.0601
98506W        W41423  15.125  33.778   7.131  0.0419 -0.1723 -0.0190
98507W        W41424  18.685   4.129   6.668 -0.0704 -0.1181  0.2796
98508W        W41425  16.638   1.592   4.585  0.1149 -0.3132 -0.1350
98509W        W41426  14.877  34.528   5.169  0.1553  0.0452 -0.0558
98510W        W41427  15.007   1.771   4.437  0.2126  0.0942 -0.0242
98511W        W41428  18.013   1.491   5.898  0.0823  0.1304 -0.0152
98512W        W41429  17.080   2.750   4.004 -0.0207 -0.2896 -0.0071
98513W        W41430  14.624   3.766   6.195 -0.0237 -0.0322 -0.0130
98514W        W41431  15.931  33.851   5.170  0.1488 -0.2377 -0.0485
98515W        W41432  19.282   2.331   5.355 -0.2975  0.7145  0.3969
98516W        W41433  17.364   2.644   9.316 -0.0069  0.0362  0.0678
98517W        W41434  14.602   1.583   3.366 -0.2522  0.2968 -0.2261
98518W        W41435  14.397   1.539   8.889 -0.0783 -0.0941 -0.0411
98519W        W41436  14.685   3.478   4.146  0.0240 -0.0595  0.0406
98520W        W41437  16.524   1.663   5.815  0.2718  0.0893  0.0616
98521W        W41438  15.214   1.676   7.611  0.0815  0.1625  0.1022
98522W        W41439  14.409   3.213   5.476  0.1552  0.2410  0.0795
98523W        W41440  15.158   2.336   6.293  0.0346 -0.0008 -0.2493
98524W        W41441  18.769  34.296   1.733 -0.0884 -0.3151 -0.0539
98525W        W41442  16.434   0.709   3.464  0.1628 -0.2515  0.1654
98526W        W41443  15.347   2.090   4.927 -0.0371 -0.4882 -0.0222
98527W        W41444  17.655  34.079   7.260 -0.1084  0.1201 -0.4479
98528W        W41445  14.632   1.644   2.874  0.0152 -0.0334 -0.1518
98529W        W41446  17.057   1.003   7.112 -0.2158  0.2033  0.0302
98530W        W41447  15.378   0.952   7.201  0.0321 -0.0029 -0.0605
98531W        W41448  17.794   2.454   3.488 -0.1019 -0.2560  0.1621
98532W        W41449  13.423   3.067   6.270  0.1194  0.0876  0.0244
98533W        W41450  15.374   4.252   8.281 -0.0251 -0.0322 -0.4500
98534W        W41451  14.919   4.657   6.294  0.0060  0.3096 -0.2413
98535W        W41452  17.675  33.426   5.304  0.0046  0.4322 -0.0275
98536W        W41453  15.264  34.434   4.554 -0.2690  0.1979 -0.0423
98537W        W41454  15.012   1.222   3.059  0.0686 -0.3075 -0.0525
98538W        W41455  17.499   1.678   4.329  0.2002  0.1018 -0.3689
98539W        W41456  14.718   2.376   2.489  0.0508  0.0099 -0.0871
98540W        W41457  17.962   1.329   4.916  0.2258 -0.1401  0.1376
98541W        W41458  16.560   3.817   6.315 -0.0718  0.0335  0.1751
98542W        W41459  17.232   0.712   3.359 -0.0408 -0.1517  0.0148
98543W        W41460  15.121   1.649   4.953 -0.1591 -0.0064  0.0812
98544W        W41461  14.108   1.369   2.661  0.2322  0.0918  0.0454
98545W        W41462  16.675   1.086   6.768 -0.1333  0.0263  0.1015
98546W        W41463  16.921   2.868   6.546 -0.1780  0.2652 -0.0670
98547W        W41464  17.556  33.849   4.374 -0.0168 -0.0883  0.3854
98548W        W41465  16.119   1.987   5.852  0.2096  0.1727  0.0588
98549W        W41466  17.307   0.464   5.637  0.1798  0.0513 -0.0158
98550W        W41467  15.750   1.438   7.130 -0.4565 -0.1513 -0.0724
98551W        W41468  15.255  34.193   6.781  0.1296  0.4833  0.2331
98552W        W41469  16.928   5.914   7.024 -0.1663 -0.0796  0.2852
98553W        W41470  18.147  34.391   3.978  0.1203 -0.0178  0.0656
98554W        W41471  17.939   0.285   4.978 -0.2140  0.4561 -0.1867
98555W        W41472  16.747   0.079   4.858  0.0317 -0.1707  0.1062
98556W        W41473  16.263   0.897   4.566 -0.2759 -0.0195  0.2720
98557W        W41474  16.100  34.252   4.925  0.0033 -0.0425 -0.0539
98558W        W41475  18.699   3.245   5.461 -0.1729 -0.1872 -0.0223
98559W        W41476  16.205  34.080   3.581  0.2301 -0.3507 -0.1118
98560W        W41477  15.605   0.435   6.541 -0.0825 -0.0718 -0.1256
98561W        W41478  14.610   3.575   5.760 -0.0768  0.0964 -0.3793
98562W        W41479  16.664   3.774   5.876  0.0982 -0.0368 -0.1554
98563W        W41480  15.815   2.196   4.542 -0.0139  0.0802 -0.3965
98564W        W41481  14.040   1.655   6.659 -0.0278 -0.1029 -0.2761
98565W        W41482  13.993   3.490   7.115  0.0319  0.0907  0.0380
98566W        W41483  13.773   1.633   3.970 -0.1213  0.1253  0.1400
98567W        W41484  14.077   2.406   3.448 -0.0700 -0.0426 -0.0681
98568W        W41485  17.101   1.365   5.906  0.0210 -0.0772  0.2938
98569W        W41486  17.905   1.467   6.966  0.0320 -0.2035 -0.0145
98570W        W41487  14.963   0.022   3.040  0.1653 -0.3005  0.1095
98571W        W41488  18.061  34.095   6.937 -0.2854  0.1263  0.0702
98572W        W41489  12.968   5.106   3.877  0.0206  0.4276  0.3675
98573W        W41490  17.406  34.449   3.381  0.4008 -0.1651  0.3183
98574W        W41491  15.216   3.316   4.429 -0.1256  0.2376 -0.0148
98575W        W41492  14.126   2.445   5.974  0.3175  0.1322  0.0773
98576W        W41493  15.732   3.541   6.041  0.0235  0.0789  0.0563
98577W        W41494  16.744   1.398   5.309 -0.2862 -0.1715 -0.0237
98578W        W41495  17.270   0.064   3.811  0.2256 -0.1379  0.0194
98579W        W41496  16.679   1.187   6.229 -0.0103 -0.0119  0.0921
98580W        W41497  17.636   0.981   6.805  0.2518 -0.0328  0.2109
98581W        W41498  15.647   1.784   7.434 -0.1251  0.2349 -0.1374
98582W        W41499  14.664   1.775   5.182  0.1243 -0.1507  0.2296
98583W        W41500  16.476   2.939   4.863 -0.1819 -0.1385 -0.1667
98584W        W41501  16.668   2.484   5.064  0.1286  0.3289  0.0092
98585W        W41502  14.764   2.795   6.334 -0.3708 -0.4035 -0.0833
98586W        W41503  14.337   4.003   5.851  0.0564  0.0574  0.2046
98587W        W41504  17.534   2.765   7.510  0.0886 -0.4267 -0.0526
98588W        W41505  16.025   3.128   5.883  0.2913  0.0235 -0.2327
98589W        W41506  15.857  34.339   5.392 -0.1632 -0.1731 -0.0796
98590W        W41507  15.645   3.776   5.594 -0.0290 -0.1381  0.3475
98591W        W41508  14.977   3.163   7.115  0.1366  0.1213 -0.0854
98592W        W41509  13.177   3.777   5.184  0.4620 -0.1432  0.1151
98593W        W41510  13.954   4.361   4.208  0.1726 -0.0212  0.1231
98594W        W41511  15.584   1.316   3.785 -0.2742 -0.0705  0.2612
98595W        W41512  14.788   3.386   3.649  0.0343 -0.0814 -0.3225
98596W        W41513  19.446   3.926   4.664 -0.1010 -0.0505  0.0829
98597W        W41514  17.244   0.956   4.915  0.0041  0.0134  0.0644
98598W        W41515  14.469   3.701   4.736  0.0839  0.0170 -0.2976
98599W        W41516  14.701   3.477   3.175  0.2378  0.0982  0.1171
98600W        W41517  16.519   3.711   4.879  0.0710  0.3305 -0.1403
98601W        W41518  14.496   4.511   5.688  0.1924 -0.0288  0.2687
98602W        W41519  18.124   2.868   7.476  0.1843  0.0953  0.1524
98603W        W41520  18.335   0.616   2.605  0.3275  0.2451 -0.0909
98604W        W41521  18.525   1.709   5.608 -0.1697 -0.5076  0.0094
98605W        W41522  17.565   0.742   5.299 -0.0937  0.0964  0.0356
98606W        W41523  17.946   4.353   5.866 -0.1791 -0.2237 -0.0817
98607W        W41524  15.051   1.367   6.482  0.0539  0.0834  0.0651
98608W        W41525  16.621   0.275   4.021 -0.0251 -0.1443 -0.2187
98609W        W41526  15.856   0.548   5.681 -0.0946 -0.2117 -0.0768
98610W        W41527  17.428  32.131   7.007 -0.3297 -0.1837  0.0886
98611W        W41528  14.753   3.352   7.538 -0.1742  0.3994 -0.0013
98612W        W41529  15.528   4.256   5.518  0.0107 -0.0401 -0.1176
98613W        W41530  14.989   1.233   5.988 -0.0420 -0.0753  0.0912
98614W        W41531  14.379   2.908   6.022  0.1646  0.1428 -0.1810
98615W        W41532  18.845  34.277   5.355 -0.1916 -0.0441 -0.1163
98616W        W41533  15.364   0.536   3.595 -0.0543  0.1379 -0.0070
98617W        W41534  17.098   0.319   4.181 -0.0700 -0.4609  0.2683
98618W        W41535  12.448   4.046   5.761 -0.0151  0.1952 -0.0952
98619W        W41536  14.232   4.383   7.373 -0.0905  0.0479  0.2458
98620W        W41537  15.725   3.807   7.244 -0.0830  0.1010 -0.3418
98621W        W41538  14.367  33.607   4.350  0.0875 -0.0149 -0.0011
98622W        W41539  18.056   1.911   5.638  0.3434  0.0642  0.1601
98623W        W41540  15.353   1.186   5.130  0.2180  0.1401  0.1304
98624W        W41541  16.701   1.094   5.724  0.2783  0.1905 -0.0126
98625W        W41542  13.845   0.773   5.272 -0.0791 -0.3505  0.2575
98626W        W41543  17.542   1.577   4.870  0.0246 -0.1867 -0.2551
98627W        W41544  15.419   1.425   6.033  0.0839 -0.0393 -0.4929
98628W        W41545  16.266   1.263   5.476 -0.2059 -0.2293  0.0641
98629W        W41546  14.402   2.609   5.505  0.2234  0.4344  0.1314
98630W        W41547  18.712   1.220   5.511  0.3040 -0.1031 -0.1167
98631W        W41548  15.967   0.671   3.632  0.1028  0.0355  0.0128
98632W        W41549  17.245   5.027   7.539 -0.0852  0.2342  0.0554
98633W        W41550  13.759   0.030   5.716 -0.0601  0.2798 -0.1462
98634W        W41551  15.874   0.234   5.289 -0.0427  0.0205  0.1020
98635W        W41552  14.589   2.364   5.051 -0.3221 -0.1203 -0.0388
98636W        W41553  16.785   0.591   6.745  0.1717 -0.0367 -0.0306
98637W        W41554  17.692   2.399   6.686 -0.1909  0.0394  0.4631
98638W        W41555  12.648  34.333   6.752 -0.0837 -0.2607 -0.1355
98639W        W41556  15.197   2.364   4.405  0.0559  0.0657  0.0694
98640W        W41557  18.008   2.677   5.093  0.2586  0.1165 -0.4285
98641W        W41558  14.576   4.164   4.894  0.0286 -0.0326  0.0277
98642W        W41559  18.134   3.535   4.417  0.2661  0.1872 -0.0410
98643W        W41560  17.595   1.235   6.043  0.3032 -0.3749 -0.0443
98644W        W41561  14.164  34.297   5.999 -0.1270 -0.0426 -0.0918
98645W        W41562  18.578   5.267   4.395  0.1377 -0.0826 -0.1275
98646W        W41563  17.617   2.460   4.855  0.2354  0.2763  0.4058
98647W        W41564  17.521  34.354   4.730  0.3177  0.1159 -0.0490
98648W        W41565  14.519   0.564   6.177 -0.0198 -0.1372  0.0121
98649W        W41566  15.075   5.877   5.823 -0.0176  0.3944  0.4326
98650W        W41567  19.840   1.116   6.585  0.0166  0.1975 -0.3004
98651W        W41568  19.598   2.465   6.373  0.1106  0.5225 -0.1895
98652W        W41569  15.042   3.469   2.305  0.2856  0.2517  0.0074
98653W        W41570  16.684  34.519   7.189  0.2740  0.1396 -0.0660
98654W        W41571  17.103   3.709   6.407 -0.3778 -0.1753 -0.1096
98655W        W41572  16.134   3.688   5.716 -0.0617  0.1710 -0.0936
98656W        W41573  13.098   3.299   5.417  0.0095  0.0050  0.0667
98657W        W41574  16.210   2.370   7.041  0.0340  0.0866 -0.0878
98658W        W41575  16.245   2.415   5.348  0.0448 -0.2361 -0.1199
98659W        W41576  14.315   4.473   5.103 -0.4578 -0.1463 -0.2121
98660W        W41577  18.867   3.118   4.957  0.1219 -0.0468 -0.1446
98661W        W41578  15.237   2.328   2.265 -0.4734  0.4677  0.2592
98662W        W41579  18.409   3.589   3.360 -0.2275  0.1894 -0.0551
98663W        W41580  14.913   0.238   4.473 -0.2685 -0.5063 -0.1554
98664W        W41581  19.282  34.493   5.262  0.0088 -0.0422 -0.0123
98665W        W41582  17.496   1.237   2.924 -0.1519  0.2885 -0.0387
98666W        W41583  15.134   1.985   6.835 -0.3527 -0.1101  0.0438
98667W        W41584  14.540   2.044   4.415 -0.2641 -0.2898  0.1968
98668W        W41585  14.249   3.277   4.134 -0.3122 -0.0410 -0.0748
98669W        W41586  14.225   2.684   4.988 -0.0984  0.1218  0.3294
98670W        W41587  16.457   0.304   7.040  0.1688 -0.0887  0.1193
98671W        W41588  15.764   0.635   8.979  0.0527  0.0606  0.0136
98672W        W41589  13.438   4.046   5.679 -0.0194  0.0988 -0.0779
98673W        W41590  12.901  34.525   5.494  0.0753 -0.3557 -0.2200
98674W        W41591  15.284   3.597   4.016  0.1063 -0.2627 -0.1918
98675W        W41592  16.382   1.719   6.344 -0.0606 -0.1028  0.2756
98676W        W41593  14.564  34.090   4.324 -0.1779 -0.1041  0.2062
98677W        W41594  16.077   3.245   4.856  0.1249 -0.0610 -0.0597
98678W        W41595  15.949   2.781   2.927 -0.4055  0.0381 -0.0416
98679W        W41596  14.952   0.365   3.918 -0.0915  0.0107 -0.2698
98680W        W41597  18.277   2.859   9.834  0.2026 -0.2847 -0.1350
98681W        W41598  15.043   2.416   5.320  0.0588  0.0079 -0.1722
98682W        W41599  17.612   2.123   8.249 -0.3775  0.1954 -0.0698
98683W        W41600  16.573   0.348   8.311  0.0090 -0.0825  0.1585
98684W        W41601  11.984   1.982   3.375  0.1672  0.1162  0.1491
98685W        W41602  14.910   2.134   4.081  0.0376  0.1750  0.0769
98686W        W41603  14.565   3.718   5.215 -0.3641  0.0594  0.0533
98687W        W41604  16.302   2.453   4.457  0.0355  0.4401  0.3399
98688W        W41605  16.130   2.865   5.273 -0.3703  0.2557 -0.2206
98689W        W41606  15.464   4.533   6.178  0.0475 -0.3879 -0.2126
98690W        W41607  15.524   0.622   5.267  0.3166 -0.2774 -0.0703
98691W        W41608  17.099   0.845   6.065 -0.0622  0.0608 -0.0548
98692W        W41609  15.870   3.330   5.466 -0.0813  0.0849 -0.2118
98693W        W41610  16.228   1.886   4.550 -0.1490 -0.0297  0.2102
98694W        W41611  17.969   0.049   4.559 -0.1045  0.1277 -0.0308
98695W        W41612  16.325  34.642   3.736 -0.1052  0.0249 -0.1300
98696W        W41613  16.289   1.203   8.511 -0.2897  0.3367 -0.3413
98697W        W41614  18.100   2.327   6.029 -0.0227 -0.1870  0.1388
98698W        W41615  20.604   2.441   5.453  0.0266  0.1220 -0.2858
98699W        W41616  15.522   0.960   4.423 -0.3547  0.0035  0.0258
98700W        W41617  16.343  33.509   2.768  0.1535  0.0519  0.0591
98701W        W41618  15.891   0.621   4.454 -0.0844 -0.0268 -0.5960
98702W        W41619  16.948   1.849   6.127 -0.1403 -0.4077 -0.0829
98703W        W41620  14.245  33.495   3.853  0.1159  0.2310 -0.3120
98704W        W41621  15.908   3.344   7.054 -0.1600 -0.0831 -0.0006
98705W        W41622  16.805   2.630   4.632  0.3160  0.0908 -0.1625
98706W        W41623  19.670   1.972   6.528 -0.0202 -0.0991 -0.1538
98707W        W41624  14.220   1.728   5.424  0.2170 -0.2342 -0.4248
98708W        W41625  16.798   0.923   5.257  0.4678  0.1145 -0.0922
98709W        W41626  14.766   4.441   9.161 -0.1047  0.1618  0.1608
98710W        W41627  17.783   5.282   8.641  0.0762 -0.0610 -0.0276
98711W        W41628  15.365   2.816   4.315 -0.1375  0.0148 -0.0346
98712W        W41629  19.196   2.154   6.283 -0.3047  0.0763  0.0959
98713W        W41630  15.620  32.336   8.196  0.2130  0.0680 -0.2880
98714W        W41631  15.876   1.363   5.181 -0.0903 -0.1688 -0.2751
98715W        W41632  15.769   2.133   5.420  0.4292 -0.1820 -0.4600
98716W        W41633  19.175   2.170   9.254 -0.2419  0.1463  0.1742
98717W        W41634  14.653   1.547   5.633 -0.1444  0.0364  0.2495
98718W        W41635  16.815   3.328   6.294 -0.1441 -0.1917 -0.1720
98719W        W41636  15.353   2.331   5.766  0.1972 -0.2738 -0.0851
98720W        W41637  16.032   3.516  10.114 -0.1047 -0.1346  0.2165
98721W        W41638  16.235   1.258  10.107  0.3249 -0.0300  0.0211
98722W        W41639  16.357   0.760   6.962 -0.0973  0.1428 -0.1195
98723W        W41640  18.488   0.886   8.951 -0.1708 -0.0315 -0.0184
98724W        W41641  14.964   2.729   8.041 -0.0528 -0.2279  0.0529
98725W        W41642  18.831   2.511   7.987  0.0298 -0.0325 -0.3559
98726W        W41643  16.953   4.239   8.467  0.0507 -0.2286  0.2978
98727W        W41644  16.924   2.729   8.210 -0.0542 -0.1059  0.4278
98728W        W41645  16.646   0.165   6.511  0.2061 -0.1001  0.2510
98729W        W41646  15.555   1.653   8.876  0.0909  0.1186  0.0755
98730W        W41647  14.465   1.196   7.086 -0.0761  0.1493 -0.2373
98731W        W41648  15.193   1.185  10.603  0.1265 -0.2117  0.0184
98732W        W41649  15.935   0.433  10.816  0.0776 -0.3091 -0.3271
98733W        W41650  14.679   2.377   9.946 -0.0444  0.1224  0.1885
98734W        W41651  16.226  34.518  10.336  0.0599 -0.3431 -0.2866
98735W        W41652  15.635   0.338   8.550 -0.0732  0.0410  0.0676
98736W        W41653  15.988   3.963   7.946 -0.1150 -0.0408 -0.0205
98737W        W41654  19.011   2.636   8.964  0.1755 -0.2394  0.0687
98738W        W41655  14.422   3.294   6.441 -0.1037 -0.2116  0.1456
98739W        W41656  15.697   1.019   9.356 -0.2580  0.1837  0.2046
98740W        W41657  13.368   1.471   9.846  0.1293  0.2030  0.1121
98741W        W41658  16.279   1.768   9.903  0.0821 -0.0153 -0.1903
98742W        W41659  17.536   3.812   7.740  0.1366  0.2393 -0.1565
98743W        W41660  18.248   3.275   7.211 -0.2714  0.2758 -0.0101
98744W        W41661  16.528   3.891   8.134  0.2691 -0.3086 -0.0995
98745W        W41662  15.838   2.360   8.168  0.4108  0.0122 -0.2520
98746W        W41663  15.306   3.963   8.730  0.0353  0.2008 -0.0219
98747W        W41664  16.236   4.132   8.938  0.0232 -0.0195  0.2791
98748W        W41665  15.676   3.024   7.603 -0.1693  0.0913  0.0020
98749W        W41666  18.047   3.577   6.795  0.1291  0.2382  0.1694
98750W        W41667  13.592   2.898   6.717 -0.4264  0.2604 -0.0140
98751W        W41668  19.012  32.839   9.338  0.0970 -0.2247 -0.0696
98752W        W41669  16.752   3.336   8.057 -0.1558 -0.1729 -0.2794
98753W        W41670  17.130   1.988   6.985 -0.1630  0.1292  0.1748
98754W        W41671  16.017   2.407   7.695  0.0787 -0.0776  0.0762
98755W        W41672  17.703   2.795   9.802 -0.0917 -0.4419  0.3901
98756W        W41673  15.171   2.453   7.105 -0.0132  0.0620  0.0726
98757W        W41674  17.378  34.584   7.094 -0.0974  0.0433 -0.1373
98758W        W41675  16.115   1.859   6.762 -0.2013 -0.0406 -0.0392
98759W        W41676  16.041   1.331   6.582 -0.0250 -0.0435 -0.2998
98760W        W41677  16.069  33.440   8.124 -0.0710  0.1208 -0.0667
98761W        W41678  17.522   3.921  10.026  0.2410  0.0261 -0.0542
98762W        W41679  17.745   1.693   8.968 -0.1542  0.2138 -0.1373
98763W        W41680  17.567   0.999   7.263 -0.0285  0.0301 -0.1031
98764W        W41681  16.190  34.547   7.505 -0.0617 -0.1077  0.1816
98765W        W41682  16.645   3.916   8.681 -0.0830 -0.1762 -0.5921
98766W        W41683  16.275   1.532   8.064 -0.1552  0.2859 -0.0779
98767W        W41684  18.300   4.414   7.498  0.0872 -0.1395 -0.0484
98768W        W41685  17.229   2.754   8.829 -0.0223  0.1252  0.1851
98769W        W41686  18.069   2.044   7.397  0.2906  0.2862  0.2579
98770W        W41687  16.489  34.462   7.930 -0.1091  0.1427 -0.0068
98771W        W41688  17.530   1.752   7.239  0.2642  0.0517  0.0135
98772W        W41689  15.920   0.989   6.951  0.0002  0.2288 -0.3999
98773W        W41690  15.660   1.802   8.269 -0.0042  0.2356 -0.4798
98774W        W41691  20.779   1.633   8.316  0.2014  0.0188  0.1838
98775W        W41692  18.445   2.361   6.820 -0.1026 -0.0953 -0.0303
98776W        W41693  15.230   0.586   7.722  0.2796 -0.2273  0.3587
98777W        W41694  17.119   2.299   8.442  0.0096  0.0552 -0.1317
98778W        W41695  17.365   2.640   6.389  0.3018  0.0332 -0.1529
98779W        W41696  16.490   4.439   6.675  0.1235  0.3028 -0.0012
98780W        W41697  16.128   6.195   9.035 -0.1777  0.0808  0.0889
98781W        W41698  18.897   1.494   7.213  0.1877  0.1468 -0.1403
98782W        W41699  18.092   3.821   9.765  0.2444  0.3406 -0.2763
98783W        W41700  14.335   2.655   8.208 -0.1356  0.1009  0.0633
98784W        W41701  17.885   4.420   9.953 -0.3329 -0.0125 -0.0211
98785W        W41702  16.649   1.783   7.146 -0.0774 -0.1547  0.1808
98786W        W41703  14.860   0.651   9.665 -0.2389 -0.0023 -0.1942
98787W        W41704  15.708   5.329   9.859 -0.0837  0.2577 -0.0824
98788W        W41705  16.977   1.018   7.643  0.4421  0.0287 -0.1158
98789W        W41706  16.505   3.367   8.535 -0.2699 -0.1905 -0.0410
98790W        W41707  17.030   2.503   7.414 -0.1288 -0.1632  0.1777
98791W        W41708  18.287   3.889   6.007  0.2153 -0.1860  0.0232
98792W        W41709  17.246   1.544   6.390  0.0472 -0.0556 -0.0734
98793W        W41710  16.854   3.635   7.209 -0.0278  0.3140  0.0268
98794W        W41711  14.192   2.051  11.126  0.0640 -0.3251 -0.0218
98795W        W41712  16.072   2.936   9.326  0.3732  0.2858  0.3287
98796W        W41713  15.978  34.159  10.058 -0.1493  0.2235  0.1476
98797W        W41714  14.468   0.677   7.188 -0.0770 -0.1704  0.1322
98798W        W41715  17.160   0.966   6.596  0.2499  0.0554 -0.1080
98799W        W41716  15.346   0.949   6.204  0.1505  0.1040 -0.1024
98800W        W41717  13.774   3.652   7.797 -0.2796 -0.3580  0.0050
98801W        W41718  16.746   3.479   9.020 -0.0336  0.0116 -0.1956
98802W        W41719  17.130   3.547   9.897 -0.0526  0.1328 -0.1217
98803W        W41720  15.976   4.504   9.821 -0.2123 -0.1847 -0.5243
98804W        W41721  17.244   3.037   9.548 -0.3687  0.1282  0.1462
98805W        W41722  15.514  34.419   7.874  0.1206  0.0621  0.0844
98806W        W41723  15.449   4.380   9.181  0.2776  0.3337  0.0624
98807W        W41724  18.058   2.092   6.456  0.1489 -0.1842  0.1119
98808W        W41725  16.761  33.670   7.281  0.0573 -0.1045 -0.0873
98809W        W41726  16.295   3.422   9.500  0.4581  0.1005 -0.0865
98810W        W41727  17.162   3.048   7.373 -0.1829 -0.0395  0.1665
98811W        W41728  20.798   5.087   9.292 -0.0262  0.1338  0.0177
98812W        W41729  16.950   0.387   9.130 -0.0082  0.0137  0.3996
98813W        W41730  15.735   0.151   7.687 -0.0882  0.0235 -0.1604
98814W        W41731  16.958   4.164   6.069  0.0601 -0.1831  0.2382
98815W        W41732  14.105   3.111   7.716  0.0415  0.1298  0.2442
98816W        W41733  16.133   1.512   8.897 -0.0888 -0.0575  0.0838
98817W        W41734  15.540   2.039   7.844  0.1242 -0.1251 -0.0343
98818W        W41735  15.740   1.154   8.813 -0.3076 -0.0683  0.1854
98819W        W41736  13.881   2.714   8.006 -0.1832 -0.1600 -0.2300
98820W        W41737  16.398   0.805   8.201  0.2062 -0.1699  0.2675
98821W        W41738  19.227  34.493   9.252  0.0976 -0.0707 -0.2425
98822W        W41739  17.935   3.599   9.232 -0.2496 -0.1126  0.2171
98823W        W41740  18.654   1.944   7.055  0.0412 -0.2100 -0.1325
98824W        W41741  17.512   0.300   6.117 -0.1717  0.4953  0.0872
98825W        W41742  16.447   2.165   7.585  0.0011  0.2793 -0.2008
98826W        W41743  16.215   3.910   9.442 -0.2466  0.1217 -0.1048
98827W        W41744  16.124   0.372   8.481  0.0663  0.1058 -0.0821
98828W        W41745  16.959   3.585   8.462 -0.1330  0.2940  0.0127
98829W        W41746  14.768   1.565  10.397 -0.0716  0.0649 -0.3394
98830W        W41747  14.692   3.776   7.954 -0.2036  0.2809  0.2345
98831W        W41748  16.079   1.191   9.611  0.0204 -0.1139  0.0157
98832W        W41749  17.124   2.015   7.474 -0.2159  0.1785  0.0768
98833W        W41750  16.773  33.165   9.519  0.0386 -0.0175 -0.0682
98834W        W41751  14.760   1.867   7.698  0.1277  0.1521  0.0802
98835W        W41752  18.673  34.103   8.169  0.2615  0.4039  0.0964
98836W        W41753  15.995   0.812  10.425  0.0399 -0.2138  0.0970
98837W        W41754  17.689   2.917   8.866 -0.2101 -0.0132 -0.1348
98838W        W41755  16.353   0.727   8.765  0.0486 -0.0973  0.1089
98839W        W41756  17.186   2.496   6.844  0.2663 -0.1295  0.2507
98840W        W41757  15.048   1.086  10.118  0.2282  0.1113 -0.0188
98841W        W41758  16.447   2.524   9.168 -0.0467 -0.0322  0.1124
98842W        W41759  17.795   2.367   9.184 -0.1642  0.0433 -0.3232
98843W        W41760  15.124  33.215   8.108  0.1646 -0.6371  0.0166
98844W        W41761  14.493   4.303   6.334  0.0736 -0.1445 -0.2550
98845W        W41762  16.219   4.012   6.691 -0.0111 -0.2684  0.4209
98846W        W41763  15.208   3.317  10.419  0.1514 -0.0851 -0.0341
98847W        W41764  16.671   3.309   9.901  0.0272  0.2614  0.1009
98848W        W41765  17.485   4.097   5.868  0.2232  0.2585  0.2420
98849W        W41766  16.925   0.665   8.126  0.0496  0.0564  0.2364
98850W        W41767  16.219   3.637   8.955  0.0685 -0.1136 -0.1408
98851W        W41768  15.591  33.061  10.984  0.5104 -0.0825 -0.0527
98852W        W41769  15.590   2.771   9.526 -0.0546 -0.0314  0.4451
98853W        W41770  16.000   1.806   7.821 -0.2460 -0.1540 -0.3054
98854W        W41771  14.419   2.208  10.576  0.0461 -0.0030  0.2206
98855W        W41772  17.341   0.690   9.104 -0.2593  0.3223  0.3441
98856W        W41773  17.090   1.833   5.641  0.1617  0.1531  0.3253
98857W        W41774  17.247   1.259   9.413  0.1354 -0.1182 -0.1828
98858W        W41775  18.178   2.543   7.835 -0.0032  0.0502 -0.0675
98859W        W41776  17.031   4.714   8.718 -0.0308 -0.1672 -0.0716
98860W        W41777  17.693   0.086   8.080  0.0734  0.0850  0.2736
98861W        W41778  16.171   0.999   7.366  0.1601  0.0820  0.2988
98862W        W41779  16.781   1.909   8.736 -0.2964 -0.1449 -0.0693
98863W        W41780  16.331   1.534   7.472 -0.3861  0.0272  0.4309
98864W        W41781  15.568   3.077   8.780  0.0295  0.1475 -0.0449
98865W        W41782  17.158   3.239   8.992  0.1652 -0.0993  0.1426
98866W        W41783  15.263   1.148   7.639  0.1991  0.2925 -0.0398
98867W        W41784  15.847   2.714   7.249 -0.2243 -0.1937 -0.2885
98868W        W41785  18.360   1.717   8.888  0.3686  0.0176  0.2455
98869W        W41786  15.488   0.470  10.533 -0.1668  0.0481  0.2894
98870W        W41787  15.715  34.409   7.290 -0.0029 -0.2621 -0.1599
98871W        W41788  19.077   0.112   8.873 -0.0285 -0.1633  0.0167
98872W        W41789  17.333   3.867   8.454 -0.1386  0.2531  0.2674
98873W        W41790  16.533   0.363   9.436 -0.0850 -0.1658 -0.1606
98874W        W41791  16.506   2.208   9.596  0.3597 -0.2080 -0.1713
98875W        W41792  18.587   3.339   6.823  0.0846  0.1890 -0.2452
98876W        W41793  16.205   2.444   8.534 -0.0404  0.1255  0.1362
98877W        W41794  14.788   3.827   9.640  0.1870  0.0882 -0.0112
98878W        W41795  16.733   3.695   6.755 -0.0941  0.2187  0.1739
98879W        W41796  19.760   3.648   9.170 -0.0080 -0.0397 -0.0177
98880W        W41797  15.253   3.746   9.551 -0.1688 -0.0137  0.0377
98881W        W41798  15.961   2.382   6.581 -0.0113  0.0548  0.4298
98882W        W41799  12.853   3.831  10.263 -0.0013  0.0189 -0.0489
98883W        W41800  17.750   0.512   7.147  0.0122  0.1725 -0.0100
98884W        W41801  18.296   1.194   7.682  0.1017 -0.1011  0.0694
98885W        W41802  15.439  34.568   9.473  0.2537 -0.1647  0.0800
98886W        W41803  16.272   1.798   8.540 -0.0412 -0.0344 -0.2302
98887W        W41804  15.802  34.601   9.951 -0.1332 -0.0671  0.0831
98888W        W41805  19.919   3.280   9.669 -0.2100  0.1753  0.0345
98889W        W41806  17.795   3.144   6.526 -0.0515  0.2720 -0.0241
98890W        W41807  14.892   0.734   9.173 -0.1079  0.1928 -0.0870
98891W        W41808  17.942   2.868   9.370 -0.3322  0.0121 -0.0564
98892W        W41809  17.510   1.164   8.864 -0.2575  0.2673  0.0465
98893W        W41810  18.210   0.539   7.343 -0.1250  0.1267  0.2992
98894W        W41811  18.036   2.034   7.993 -0.1041 -0.1202  0.0320
98895W        W41812  15.782   1.524   9.292  0.0514 -0.1696 -0.0211
98896W        W41813  17.347   3.457   8.175 -0.1531  0.0580  0.0515
98897W        W41814  15.113   3.644   5.881 -0.0461 -0.1275 -0.2942
98898W        W41815  16.269   2.119   8.094 -0.1561  0.3045 -0.0928
98899W        W41816  16.324   4.811   9.476 -0.1726 -0.2048  0.2329
98900W        W41817  16.222   1.361   6.987 -0.1327  0.1924 -0.2000
98901W        W41818  17.366   6.480   8.511 -0.0028  0.0558  0.1313
98902W        W41819  18.205  34.488   6.636 -0.0253  0.5722 -0.1852
98903W        W41820  17.499   0.409   9.471 -0.4036  0.2320 -0.2669
98904W        W41821  19.670   0.659   8.324 -0.1501  0.0219 -0.1473
98905W        W41822  17.520   0.237   6.680 -0.3172 -0.2391  0.1211
98906W        W41823  17.723   2.335   7.780 -0.3069 -0.0789  0.4869
98907W        W41824  15.948   0.824   8.451 -0.3402  0.1503 -0.0870
98908W        W41825  18.183   1.949   6.936  0.1450  0.1496  0.2352
98909W        W41826  18.963   3.713   6.510  0.0008  0.1291 -0.0059
98910W        W41827  16.679   2.074  10.068 -0.3602 -0.1554 -0.0860
98911W        W41828  14.724   1.886   9.812  0.0605  0.1633 -0.1115
98912W        W41829  14.451   0.511   8.082  0.0366  0.3294  0.0512
98913W        W41830  16.048   1.970   7.339 -0.3013 -0.2702 -0.2422
98914W        W41831  19.472   3.786   8.250  0.0466  0.0891  0.0197
98915W        W41832  15.175   0.374   6.745  0.0226 -0.1461  0.1537
98916W        W41833  14.960   2.056  10.233 -0.0143 -0.1484 -0.5185
98917W        W41834  16.902  34.016   7.717  0.1278 -0.0799 -0.1856
98918W        W41835  16.563   3.587   7.636 -0.0407 -0.2768 -0.2483
98919W        W41836  18.538   3.067   9.411 -0.1064  0.3171 -0.0918
98920W        W41837  18.019  33.139   9.485 -0.0516  0.2168 -0.1829
98921W        W41838  17.000   2.284   9.790 -0.3822 -0.3328 -0.0001
98922W        W41839  16.956   2.300   9.157 -0.0986 -0.1988 -0.0839
98923W        W41840  14.191   2.239   9.818 -0.1298  0.1462 -0.2215
98924W        W41841  19.368   2.298   6.766  0.4413 -0.0742 -0.0923
98925W        W41842  14.951   2.449   9.418 -0.0266 -0.3538 -0.0200
98926W        W41843  16.332   3.592   6.979  0.3234  0.0223  0.1319
98927W        W41844  14.503  32.265  10.439  0.2388 -0.1455  0.0539
98928W        W41845  16.686   1.585   8.317 -0.0005 -0.0785 -0.2658
98929W        W41846  15.644   1.929   9.714  0.1570 -0.1142 -0.0775
98930W        W41847  15.433   2.783  10.364  0.4143  0.0541 -0.0566
98931W        W41848  18.181   1.510   6.427 -0.3279  0.1731  0.2193
98932W        W41849  17.760   3.156   8.319 -0.0356  0.0781  0.2803
98933W        W41850  17.463   4.579   7.626 -0.0336  0.0549  0.2855
98934W        W41851  16.713   2.288   7.108  0.1155  0.0220 -0.2302
98935W        W41852  16.647   4.412   8.824 -0.3056 -0.5259 -0.5043
98936W        W41853  14.311   2.661   8.841 -0.1149  0.2294  0.0074
98937W        W41854  17.929   4.128   6.376 -0.0462 -0.1677 -0.1839
98938W        W41855  14.282   2.429   9.374 -0.0099 -0.2018  0.0801
98939W        W41856  16.286   0.855   6.448  0.0010  0.0371  0.1287
98940W        W41857  17.115   3.561   9.390  0.4361  0.1404  0.1678
98941W        W41858  17.093   1.568   9.007  0.1325  0.2018  0.2432
98942W        W41859  15.707   2.288   8.683  0.0080 -0.2029 -0.0901
98943W        W41860  15.830  33.635   7.061  0.0739  0.3028  0.0083
98944W        W41861  17.702   4.039   8.897  0.1646  0.1425 -0.0864
98945W        W41862  15.480   0.342   9.712 -0.0581 -0.1613  0.0158
98946W        W41863  16.030   3.216   8.615 -0.1966 -0.0027  0.0855
98947W        W41864  19.968  33.044   9.600  0.0303 -0.2194  0.3574
98948W        W41865  16.770   4.367   8.006  0.0570  0.0107  0.2769
98949W        W41866  18.356  33.967   9.041 -0.0006  0.0739 -0.0175
98950W        W41867  16.920   4.685   9.193  0.0595  0.3167 -0.4564
98951W        W41868  15.493   5.791   9.757  0.2047 -0.2404  0.2032
98952W        W41869  17.828   1.929   9.502 -0.2326 -0.0896 -0.3912
98953W        W41870  15.537   0.948   8.111  0.2052 -0.2152  0.1808
98954W        W41871  20.688   3.037   7.442 -0.0409  0.1761 -0.0931
98955W        W41872  18.121   3.211   8.941  0.0550 -0.0886 -0.1624
98956W        W41873  17.214   2.085   6.501 -0.5206  0.0719  0.0465
98957W        W41874  17.556   2.275   7.243 -0.1436  0.0564  0.0003
98958W        W41875  15.726   3.885   9.179  0.0701  0.0658 -0.0432
98959W        W41876  15.503  33.797   8.955 -0.0424  0.2201 -0.2950
98960W        W41877  17.219   2.980   7.920 -0.0700  0.2118  0.3532
98961W        W41878  18.045  34.059   6.375  0.0695  0.1872  0.1338
98962W        W41879  16.345   3.093   8.951 -0.0196 -0.0046  0.0644
98963W        W41880  18.762   1.998   6.023  0.2152  0.0753  0.1145
98964W        W41881  15.931   2.642   8.919  0.0973  0.1341 -0.1387
98965W        W41882  16.577   4.951   8.808 -0.0256  0.3217  0.3097
98966W        W41883  16.654   0.787   9.162  0.0640  0.0523 -0.1541
98967W        W41884  19.147   5.388   7.365 -0.0285 -0.4364 -0.0480
98968W        W41885  16.858   0.024   8.787  0.3456 -0.0419  0.0531
98969W        W41886  15.311   4.535   6.650  0.1226  0.1447  0.0699
98970W        W41887  17.993   3.567   6.248  0.0392 -0.1184  0.1135
98971W        W41888  17.032   3.851   8.005  0.0676 -0.1800 -0.1878
98972W        W41889  14.946   1.623  10.850  0.1667 -0.5154  0.2164
98973W        W41890  19.749   4.940   9.827 -0.0491  0.0573 -0.1289
98974W        W41891  20.809   2.354   7.775 -0.1604 -0.0313  0.0054
98975W        W41892  17.721  33.929   7.725  0.3168  0.1972  0.2938
98976W        W41893  17.051   0.284   9.593 -0.1171 -0.1099 -0.2141
98977W        W41894  14.910   4.241   8.307  0.0403 -0.0543 -0.3753
98978W        W41895  17.943  34.163   9.330 -0.0675 -0.0961 -0.0607
98979W        W41896  15.488   4.045   6.621 -0.1707 -0.1761  0.1130
98980W        W41897  18.823  34.221   9.050  0.0680  0.0604 -0.1451
98981W        W41898  15.220   1.433   6.977  0.0789 -0.1148  0.1785
98982W        W41899  14.646   2.942   8.478  0.1430 -0.1622  0.0102
98983W        W41900  18.650   2.861   7.116  0.0835 -0.2533  0.2083
98984W        W41901  17.362   4.002   9.327 -0.2439 -0.0304 -0.1172
98985W        W41902  17.223   1.762   8.212 -0.0197  0.0874  0.2751
98986W        W41903  17.123   3.752   8.882  0.0181  0.0582  0.1188
98987W        W41904  19.154   3.568   9.249  0.0348  0.0396 -0.1772
98988W        W41905  18.208   0.662   7.852  0.4568  0.0328  0.2994
98989W        W41906  16.442   1.603  10.503 -0.5554  0.0824  0.1039
98990W        W41907  16.570   0.118   9.889  0.1454  0.2250 -0.2480
98991W        W41908  14.868   0.852   8.722  0.2750  0.0374  0.0496
98992W        W41909  15.352   1.454   8.059 -0.1874 -0.0663 -0.0027
98993W        W41910  13.402   2.791   8.151 -0.0156 -0.0973 -0.1101
98994W        W41911  14.537  33.986  10.797  0.2205  0.0318  0.2169
98995W        W41912  14.826   2.307   8.414  0.0036 -0.1566  0.0559
98996W        W41913  19.253   3.300   6.107  0.1089  0.0353 -0.2525
98997W        W41914  16.087   1.913   9.459  0.3827 -0.1193  0.2245
98998W        W41915  14.455  32.918   9.598 -0.1980 -0.0440 -0.0175
98999W        W41916  16.417   2.994   6.209 -0.0351 -0.3321 -0.2124
99000W        W41917  18.860   3.904   7.129  0.0822  0.2098 -0.0735
99001W        W41918  17.980   2.562   7.062  0.2005 -0.2609  0.2946
99002W        W41919  15.446   2.355   6.679  0.3676  0.1587  0.2654
99003W        W41920  14.733   2.061   6.410 -0.0980 -0.0019 -0.1348
99004W        W41921  14.621   0.944  10.339  0.1352 -0.0377  0.2265
99005W        W41922  15.570   1.830   6.839  0.0503 -0.4686  0.0064
99006W        W41923  17.931   4.598   6.595  0.0760  0.1045  0.2010
99007W        W41924  14.313  34.340  10.105  0.2365  0.2142 -0.3134
99008W        W41925  18.595   1.053   8.098 -0.0442  0.1323  0.1176
99009W        W41926  19.650   2.389   8.579 -0.1591 -0.2769 -0.0421
99010W        W41927  16.531   0.851  10.494  0.0595  0.1450 -0.4851
99011W        W41928  15.948   4.330   9.359  0.1287  0.1205  0.3072
99012W        W41929  16.020   5.371  10.473 -0.0589 -0.0265  0.6104
99013W        W41930  16.812   2.888   9.228  0.0196  0.1624 -0.0661
99014W        W41931  16.180   0.480   7.485 -0.2911 -0.2693  0.1475
99015W        W41932  17.251   3.856   6.899 -0.1086 -0.0657 -0.0434
99016W        W41933  15.898   1.617  10.231 -0.0055  0.0123  0.1551
99017W        W41934  16.792   1.051   8.417 -0.3664  0.0686  0.0589
99018W        W41935  18.228   4.895   7.276 -0.1723 -0.0908  0.0245
99019W        W41936  16.713   2.389   8.732 -0.0616 -0.0412  0.1016
99020W        W41937  16.767   2.920   8.746  0.0998  0.0962  0.1396
99021W        W41938  18.291   5.414   8.465 -0.2851 -0.4107  0.0204
99022W        W41939  16.847   1.115   9.847 -0.3385  0.1512  0.4609
99023W        W41940  15.435   2.567   9.110  0.1299  0.2851  0.1008
99024W        W41941  13.396   1.808   9.376  0.0016 -0.3418 -0.0394
99025W        W41942  15.070   2.277   7.802  0.0581 -0.0552  0.0882
99026W        W41943  15.721   2.750   8.473  0.1202 -0.4289 -0.7715
99027W        W41944  18.516   1.959   9.699  0.4173  0.0629  0.0268
99028W        W41945  17.110   1.547   7.318 -0.0941  0.1102  0.3726
99029W        W41946  15.667   0.840   7.636  0.1118  0.2061 -0.1425
99030W        W41947  18.128   3.337   9.601 -0.0900 -0.0717  0.1449
99031W        W41948  17.519   2.297   9.771 -0.1026 -0.2476 -0.2175
99032W        W41949  17.554   4.755   1.392  0.0022 -0.0856 -0.1268
99033W        W41950  14.327   5.483   0.158 -0.1343  0.0849  0.0610
99034W        W41951  16.563   4.780  30.484  0.0417  0.0951  0.2192
99035W        W41952  18.567   3.248  31.790 -0.0244 -0.0275  0.0410
99036W        W41953  14.431   4.470   0.172 -0.3346 -0.1345  0.0494
99037W        W41954  17.771   7.132   0.662  0.0706  0.0441 -0.0037
99038W        W41955  16.416   3.991   3.242 -0.0793  0.2571  0.1247
99039W        W41956  16.383   7.314   3.804  0.0620 -0.2827 -0.2028
99040W        W41957  18.247   6.021   3.598  0.1399  0.2117 -0.2877
99041W        W41958  18.583   5.899   1.363  0.0188 -0.0148 -0.0842
99042W        W41959  16.027   5.253   0.927 -0.0795  0.2932 -0.1590
99043W        W41960  17.024   4.642   2.288 -0.0615 -0.0398 -0.2196
99044W        W41961  15.559   3.276  30.040 -0.0211  0.0796 -0.2050
99045W        W41962  15.709   4.815   4.139  0.0936  0.1899 -0.2579
99046W        W41963  18.055   4.796   3.152  0.0108 -0.2003  0.0442
99047W        W41964  14.606   5.153   1.403  0.1076  0.0605 -0.0287
99048W        W41965  15.638   4.686   4.641  0.2605  0.0800 -0.2326
99049W        W41966  18.124   2.462   3.028 -0.2553 -0.1807 -0.1118
99050W        W41967  20.297   8.816   2.731  0.1916  0.0129  0.0284
99051W        W41968  17.952   5.756   3.879  0.2412  0.0127 -0.1408
99052W        W41969  17.319   3.099   4.466 -0.4786 -0.1126  0.1424
99053W        W41970  18.085   5.517   0.858 -0.2236 -0.1577  0.0307
99054W        W41971  14.883   5.353   0.059  0.2856 -0.0127 -0.1681
99055W        W41972  15.619   4.168   2.608 -0.0482  0.3515  0.1397
99056W        W41973  15.378   4.040   2.086 -0.1544 -0.0431  0.0572
99057W        W41974  17.536   3.564   4.199  0.0869 -0.2159  0.1738
99058W        W41975  16.910   4.342   3.644 -0.0576 -0.0102 -0.1527
99059W        W41976  15.971   4.852   2.287 -0.3704 -0.0588  0.0675
99060W        W41977  17.851   8.740   1.176 -0.1021  0.0456  0.0532
99061W        W41978  18.002   5.585   4.866 -0.0641 -0.1714  0.0791
99062W        W41979  14.937   7.824   1.589 -0.0636  0.0405  0.0670
99063W        W41980  13.735   8.498   1.469 -0.0505  0.4410  0.0626
99064W        W41981  15.105   6.529   1.005  0.2160  0.1533  0.0389
99065W        W41982  19.462   7.823   2.801  0.0014  0.1609  0.1148
99066W        W41983  16.529   6.085   2.182 -0.4006 -0.2700 -0.0349
99067W        W41984  15.765   6.423   4.785  0.0044 -0.2723  0.3521
99068W        W41985  15.786   7.530  31.484  0.1498 -0.0274  0.0426
99069W        W41986  17.321   7.022   2.742 -0.0654  0.1893  0.1142
99070W        W41987  13.670   7.456   2.620  0.1110 -0.2059 -0.0186
99071W        W41988  16.707   7.042   3.067  0.0778  0.1624 -0.5358
99072W        W41989  17.502   3.563   2.316  0.2421 -0.0329 -0.0729
99073W        W41990  16.703   6.285  31.889 -0.0733  0.1493 -0.0232
99074W        W41991  15.631   4.897   1.811  0.3280 -0.1794 -0.0175
99075W        W41992  15.975   8.289   3.709  0.1778  0.3384 -0.0123
99076W        W41993  13.806   6.309   1.948  0.1276 -0.0079 -0.1885
99077W        W41994  18.558   5.130   3.137 -0.0015 -0.1094  0.0945
99078W        W41995  17.252   7.191   1.166 -0.0957 -0.1963  0.1222
99079W        W41996  15.137   5.692   0.682  0.0884 -0.2938 -0.0392
99080W        W41997  15.944   5.242  30.816 -0.2099 -0.0019 -0.1640
99081W        W41998  17.784   2.663  31.564  0.0150  0.0186 -0.0630
99082W        W41999  18.084   3.415  31.802 -0.0474 -0.2092 -0.1117
99083W        W42000  14.746   5.675   1.459  0.2664 -0.0740  0.0882
99084W        W42001  15.742   2.671   0.982  0.3220 -0.3302  0.3395
99085W        W42002  17.029   4.873   1.672 -0.2499 -0.1971  0.0463
99086W        W42003  15.163   4.991   1.449  0.1143  0.0108 -0.1122
99087W        W42004  17.632   4.442   1.748  0.0034 -0.0670  0.1678
99088W        W42005  14.617   7.895   3.590  0.0885  0.1757 -0.1628
99089W        W42006  15.887   3.773   2.770 -0.1242  0.0432  0.2232
99090W        W42007  18.247   6.815   1.374  0.1101  0.1970 -0.2180
99091W        W42008  18.658   6.121   1.892 -0.3417 -0.2828  0.2860
99092W        W42009  14.507   6.289   0.727  0.1034  0.0756  0.2469
99093W        W42010  14.772   5.710   2.022  0.0045 -0.2201  0.1792
99094W        W42011  15.029   6.588   2.665  0.1944  0.0957  0.0704
99095W        W42012  15.955   4.190   0.736  0.2728 -0.2298 -0.2815
99096W        W42013  14.312   3.441  31.455 -0.2096  0.3174 -0.0456
99097W        W42014  17.233   5.220   2.864 -0.1257  0.3146 -0.1179
99098W        W42015  14.359   6.654   3.040 -0.0297  0.0433  0.5281
99099W        W42016  19.338   4.363   1.660  0.0178 -0.0701 -0.0818
99100W        W42017  15.723   5.140   1.300  0.0378  0.0276 -0.2989
99101W        W42018  19.089   7.720   2.150 -0.3895  0.2943  0.1701
99102W        W42019  16.649   4.458   1.898 -0.1682  0.1648  0.0969
99103W        W42020  16.759   5.596   2.261  0.2113 -0.0629  0.0559
99104W        W42021  18.762   2.902   1.767  0.1412 -0.0694  0.4116
99105W        W42022  17.124   4.360   1.873 -0.0826 -0.3853 -0.0804
99106W        W42023  15.141   6.439   1.562 -0.0688  0.1057 -0.4559
99107W        W42024  19.977   7.905   1.750 -0.2254  0.2192  0.4691
99108W        W42025  16.167   6.346   2.566  0.1115  0.4049  0.1196
99109W        W42026  13.974   6.689   3.660  0.1162  0.0912 -0.1225
99110W        W42027  16.104   2.459   2.536 -0.0186  0.2732 -0.1719
99111W        W42028  17.306   7.997   1.587 -0.0802 -0.0985  0.0999
99112W        W42029  13.418   7.150   1.528  0.3016  0.1516 -0.1397
99113W        W42030  12.913   6.642   2.917  0.2168 -0.2742  0.6542
99114W        W42031  15.377   4.875  31.460 -0.0087  0.3185  0.0104
99115W        W42032  16.125   5.944   2.966 -0.0745 -0.1642  0.1850
99116W        W42033  16.566   5.426   0.046 -0.0420 -0.1057 -0.1463
99117W        W42034  16.127   4.721   0.420 -0.2003  0.3060  0.3259
99118W        W42035  17.303   2.484   3.550  0.0810 -0.2556  0.0211
99119W        W42036  15.275   4.488   1.789  0.0534 -0.0043 -0.2367
99120W        W42037  14.139   7.149   1.867  0.1618 -0.1879  0.0179
99121W        W42038  17.676   5.270   2.287 -0.1465 -0.2277 -0.1323
99122W        W42039  17.017   4.813   1.143  0.0630  0.4173 -0.0020
99123W        W42040  15.024   5.350   1.765 -0.1457  0.1873 -0.3208
99124W        W42041  16.332   3.607   3.605 -0.0139  0.1014 -0.1418
99125W        W42042  14.798   4.769   1.719  0.4234 -0.2622 -0.2062
99126W        W42043  17.283   5.162   3.847 -0.6356  0.2852  0.2257
99127W        W42044  15.129   3.692   3.349  0.0084  0.0397 -0.2141
99128W        W42045  17.149   6.141   2.826 -0.1288  0.0268  0.3108
99129W        W42046  16.322   5.237  31.500 -0.0952  0.0101  0.3284
99130W        W42047  19.006   4.944   2.093 -0.0238  0.1828 -0.0780
99131W        W42048  16.158   6.846   0.125  0.0875 -0.3746 -0.1826
99132W        W42049  14.601   6.186   0.257  0.1497 -0.2084  0.1794
99133W        W42050  17.003   3.806   4.637  0.0135  0.2170  0.0423
99134W        W42051  17.214   7.689   3.158 -0.0955  0.0219  0.2188
99135W        W42052  17.711   5.691   1.119 -0.0630 -0.4905 -0.2161
99136W        W42053  19.765   5.758  31.914  0.0216 -0.3856 -0.0792
99137W        W42054  15.228   6.246   4.562  0.0905  0.0081  0.2265
99138W        W42055  15.435   5.350   3.286  0.1893  0.0780 -0.2306
99139W        W42056  15.181   7.843   0.457  0.2665  0.0109  0.1264
99140W        W42057  15.067   7.022   0.875  0.0875 -0.0582  0.1064
99141W        W42058  14.925   3.892   1.937  0.0364 -0.0305  0.0724
99142W        W42059  16.518   6.259   1.689  0.1364 -0.1262  0.1466
99143W        W42060  14.137   6.139   0.423 -0.0946  0.4691 -0.0747
99144W        W42061  16.237   6.357   0.193 -0.0607  0.1740 -0.1679
99145W        W42062  17.418   2.900   0.881  0.0750  0.2555  0.2184
99146W        W42063  18.716   5.166   2.553  0.1190 -0.0943  0.0932
99147W        W42064  17.291   3.975   2.080  0.0557  0.0413 -0.2307
99148W        W42065  13.912   5.326   0.401  0.3980 -0.0948 -0.2496
99149W        W42066  17.438   7.330   3.509  0.3276  0.1474 -0.2302
99150W        W42067  17.026   5.819   0.066  0.1216  0.0224 -0.0957
99151W        W42068  15.360   6.327  31.585  0.0557 -0.1775  0.1657
99152W        W42069  14.764   8.375   2.148 -0.2161  0.0035 -0.1012
99153W        W42070  17.190   5.539   4.890  0.0987 -0.1489  0.0789
99154W        W42071  13.492   5.948   2.948 -0.3526 -0.2521  0.1260
99155W        W42072  17.694   5.560   4.509  0.0056 -0.2148 -0.2108
99156W        W42073  17.265   5.612  30.695  0.2453 -0.3370 -0.2927
99157W        W42074  15.267   6.012   2.472  0.0131 -0.3547 -0.0108
99158W        W42075  17.731   4.136   0.364  0.1495  0.1081  0.2117
99159W        W42076  19.248   3.530   1.292  0.2280  0.1603 -0.0902
99160W        W42077  17.377   5.803   2.110  0.2192  0.0225 -0.1005
99161W        W42078  16.486   5.969   0.509  0.1550  0.0938 -0.0421
99162W        W42079  16.813   4.710   0.633  0.0604 -0.0425  0.3111
99163W        W42080  15.578   2.283  31.362 -0.0956  0.0655 -0.1178
99164W        W42081  16.351   6.608   3.078 -0.0234 -0.1177  0.2020
99165W        W42082  17.229   6.334  31.882  0.2439  0.2686 -0.1606
99166W        W42083  17.507   6.580   2.818  0.2297  0.1975 -0.0569
99167W        W42084  17.049   4.459  31.213 -0.2326 -0.0702  0.1979
99168W        W42085  18.457   7.590   1.940 -0.1456 -0.0903 -0.0837
99169W        W42086  14.494   6.359   2.479 -0.1381  0.0093  0.1334
99170W        W42087  16.775   7.150   1.943 -0.0388 -0.2701 -0.0945
99171W        W42088  18.703   8.744   2.329  0.1178 -0.1206 -0.1551
99172W        W42089  17.515   2.480   1.572 -0.1439 -0.2133  0.1889
99173W        W42090  14.495   4.756   0.651 -0.1910  0.1105 -0.2642
99174W        W42091  16.502   4.069   1.439  0.0450 -0.1336 -0.1175
99175W        W42092  13.786   8.025   1.100 -0.0663  0.0355  0.3979
99176W        W42093  17.212   3.600   1.774 -0.1206 -0.1339 -0.0941
99177W        W42094  16.416   5.032   4.876 -0.0413 -0.3800  0.2118
99178W        W42095  16.383   3.608   1.882  0.0127 -0.2357 -0.2386
99179W        W42096  16.483   4.527   3.775  0.1380 -0.0978  0.0551
99180W        W42097  18.208   7.240  31.048  0.1251  0.0597 -0.1384
99181W        W42098  17.187   4.657   3.429 -0.4673  0.0627 -0.0031
99182W        W42099  16.905   4.845  30.900  0.1754  0.2681 -0.1493
99183W        W42100  16.654   3.432   3.951  0.0229 -0.1611 -0.1340
99184W        W42101  15.323   5.634   2.855 -0.2094  0.0566  0.2308
99185W        W42102  14.175   7.786   2.028  0.0613 -0.2290  0.0587
99186W        W42103  16.894   4.337   2.694  0.0685 -0.2262 -0.1664
99187W        W42104  16.483   4.344   0.677 -0.1978 -0.5008  0.1825
99188W        W42105  17.554   4.020   5.331  0.0645 -0.0355  0.3837
99189W        W42106  14.310   5.285   0.623 -0.0642 -0.0782  0.0964
99190W        W42107  17.413   6.588   1.874 -0.4922 -0.1118 -0.3625
99191W        W42108  14.247   8.001   0.882 -0.2778  0.3011  0.1906
99192W        W42109  16.160   2.370   3.133  0.0201  0.1012 -0.2012
99193W        W42110  15.981   5.972   1.507  0.0623 -0.0358  0.1193
99194W        W42111  15.036   6.682  31.899  0.2122 -0.4587  0.0232
99195W        W42112  16.954   7.217   3.606 -0.3132  0.2776  0.0147
99196W        W42113  15.780   6.003   1.010 -0.0863  0.0613 -0.0989
99197W        W42114  17.590   3.096   4.054  0.4188 -0.0697 -0.1994
99198W        W42115  13.884   6.745   1.745 -0.1856 -0.1459  0.2081
99199W        W42116  14.835   4.093  31.201 -0.0592  0.1188 -0.0603
99200W        W42117  15.120   6.927   1.798 -0.0118  0.1724 -0.2964
99201W        W42118  17.221   2.493   1.060 -0.1615  0.1349  0.0500
99202W        W42119  17.060   6.480   1.041 -0.0861 -0.0884 -0.0507
99203W        W42120  15.968   4.314   3.868 -0.2118  0.0050  0.1526
99204W        W42121  17.171   3.215   3.882  0.1722  0.2136 -0.0819
99205W        W42122  14.181   4.960   2.279 -0.0967 -0.2307  0.1226
99206W        W42123  17.431   4.917   2.521 -0.1732  0.1681  0.0777
99207W        W42124  15.521   5.136  31.853 -0.2255 -0.0586 -0.0429
99208W        W42125  18.629   8.025   2.282 -0.0897  0.0630 -0.2727
99209W        W42126  14.876   6.187   2.219  0.1359 -0.0526  0.2588
99210W        W42127  16.790   5.243  31.250  0.1480  0.0057  0.0657
99211W        W42128  18.611   4.497   3.770  0.0905 -0.2228  0.0024
99212W        W42129  16.295   4.090   1.892  0.1249  0.0558  0.1161
99213W        W42130  14.214   6.978   0.331  0.0246  0.0248  0.0195
99214W        W42131  15.079   8.803   2.141 -0.2722  0.1447  0.2116
99215W        W42132  14.296   4.858   1.758  0.0826  0.1079  0.3246
99216W        W42133  14.173   7.119   0.852 -0.2059  0.1762 -0.0987
99217W        W42134  16.249   4.513   4.239 -0.2309  0.0774  0.0507
99218W        W42135  18.045   4.023   3.361  0.2324 -0.1290  0.2074
99219W        W42136  16.635   3.568   1.405  0.3246 -0.0631 -0.0186
99220W        W42137  14.230   3.221   0.759 -0.2947 -0.0264  0.1788
99221W        W42138  15.485   4.337   0.409 -0.1310 -0.0525 -0.4436
99222W        W42139  17.546   3.957   1.549  0.0867  0.2737  0.2246
99223W        W42140  16.786   5.099   5.251  0.0418 -0.1030 -0.1951
99224W        W42141  15.559   5.260   5.507  0.2517  0.4481 -0.3443
99225W        W42142  15.737   4.120   1.748  0.1146  0.1356 -0.2731
99226W        W42143  19.041   6.893   1.556  0.0022  0.3449 -0.0233
99227W        W42144  16.305   4.965   4.004 -0.1069  0.2661 -0.0983
99228W        W42145  15.166   5.507   1.194  0.1468 -0.0528  0.0195
99229W        W42146  14.452   6.546   1.778 -0.0926  0.2992 -0.0107
99230W        W42147  13.143   6.392   1.485 -0.1708 -0.2959  0.0443
99231W        W42148  16.602   3.032   3.668 -0.0695  0.1007 -0.2218
99232W        W42149  15.191   7.265   3.234  0.0114 -0.0792  0.2709
99233W        W42150  15.807   5.443  28.986 -0.0752  0.1826  0.0478
99234W        W42151  14.336   4.916   3.725  0.0503  0.0028 -0.2273
99235W        W42152  17.336   4.149   0.721  0.0253  0.0314  0.1128
99236W        W42153  17.987   6.487   0.485  0.0935  0.2875  0.0152
99237W        W42154  15.393   1.815   1.355  0.0258  0.0646  0.0340
99238W        W42155  17.535   4.758   3.060  0.0431 -0.0745  0.1944
99239W        W42156  15.370   5.793  31.845 -0.3505  0.1779 -0.1912
99240W        W42157  16.258   4.008   4.181 -0.1710 -0.1294 -0.0122
99241W        W42158  14.717   3.150   0.919 -0.1233  0.0167 -0.1334
99242W        W42159  16.391   4.908   0.917  0.0176  0.3754  0.3038
99243W        W42160  13.387   6.627   2.966  0.0936  0.1756 -0.2770
99244W        W42161  15.816   7.977   2.212  0.1412 -0.1044 -0.2986
99245W        W42162  16.548   5.603   3.268 -0.1846  0.0544  0.0964
99246W        W42163  16.935   3.214   1.755 -0.0554  0.1365  0.2561
99247W        W42164  14.554   5.009   0.240  0.0693  0.0089  0.2071
99248W        W42165  16.936   5.261   1.360  0.3301  0.2061 -0.2352
99249W        W42166  17.848   6.253   0.991 -0.0564  0.1468 -0.0486
99250W        W42167  16.147   7.277  31.090  0.0163  0.1052  0.0009
99251W        W42168  18.090   4.306   2.424 -0.1035 -0.0153  0.1047
99252W        W42169  15.108   8.582   3.313  0.0552 -0.0325 -0.0553
99253W        W42170  17.874   3.628   0.500 -0.2948  0.0877  0.0268
99254W        W42171  15.011   6.190   0.603  0.2283  0.1361 -0.0072
99255W        W42172  16.037   5.833   2.472 -0.0742  0.2128 -0.3359
99256W        W42173  14.554   0.617   3.673  0.1174 -0.0548  0.2890
99257W        W42174  17.748   4.632   2.258 -0.0379 -0.3118  0.2592
99258W        W42175  17.544   3.195   0.406  0.1733 -0.2840  0.0677
99259W        W42176  18.548   3.818   4.288 -0.0741  0.2183 -0.0874
99260W        W42177  15.548   7.085   2.138  0.2409 -0.1918  0.0657
99261W        W42178  16.127   5.868   1.983  0.3089  0.0319  0.2478
99262W        W42179  14.910   3.001   2.892 -0.0818  0.1521  0.2748
99263W        W42180  17.045   5.516   1.784 -0.0185 -0.1612 -0.1661
99264W        W42181  16.320   4.896  31.854  0.0647 -0.1289  0.4182
99265W        W42182  18.246   2.653   4.356 -0.0070  0.2048 -0.3925
99266W        W42183  16.315   4.417   2.293  0.4798  0.0045 -0.2423
99267W        W42184  16.891   4.425   1.428 -0.1501  0.2172  0.0170
99268W        W42185  14.020   7.162   2.362  0.2813 -0.3951  0.0702
99269W        W42186  16.814   7.991   2.277 -0.0374 -0.2622 -0.0629
99270W        W42187  16.707   6.178  31.052 -0.1662 -0.1790  0.2319
99271W        W42188  17.261   5.250   4.441  0.0054  0.0132 -0.1782
99272W        W42189  17.705   6.265   1.518  0.1434  0.2761  0.1487
99273W        W42190  16.913   5.173   0.812  0.3742  0.0527  0.1143
99274W        W42191  16.654   5.591   0.932 -0.0492 -0.0875 -0.2098
99275W        W42192  13.220   3.288   2.320 -0.0147  0.1765 -0.0596
99276W        W42193  15.846   7.370   2.452 -0.0633 -0.0778 -0.0256
99277W        W42194  13.528   6.534   0.782 -0.0359 -0.2388  0.1180
99278W        W42195  14.778   6.829   1.439 -0.0542 -0.1940 -0.0465
99279W        W42196  15.938   6.601   0.506 -0.4358  0.0085 -0.2026
99280W        W42197  17.827   5.979   1.981  0.3519  0.0940  0.0675
99281W        W42198  15.797   3.338   0.606  0.0071 -0.4254 -0.0880
99282W        W42199  17.764   4.308   2.935  0.2129  0.1594  0.1460
99283W        W42200  14.603   3.970   1.250  0.0555  0.4037  0.2412
99284W        W42201  15.169   5.886   1.815  0.0794  0.2560  0.3294
99285W        W42202  13.396   5.039   2.645 -0.1098  0.0194  0.1022
99286W        W42203  14.136   6.110   3.809  0.1858  0.0515  0.0057
99287W        W42204  14.710   6.133   1.767 -0.1505  0.3200 -0.1310
99288W        W42205  17.079   4.792   4.409  0.3251 -0.0364  0.1944
99289W        W42206  16.889   2.712   1.936 -0.0364 -0.1960  0.2398
99290W        W42207  16.555   5.638   2.758 -0.0174 -0.2033  0.1761
99291W        W42208  16.546   3.702   5.417  0.3351 -0.2019  0.1760
99292W        W42209  18.168   7.313   1.557 -0.0480 -0.1216 -0.0447
99293W        W42210  14.194   5.476   2.193  0.1806  0.1888  0.3276
99294W        W42211  15.594   3.450   2.237  0.3141 -0.0986 -0.2495
99295W        W42212  17.032   6.134   1.757  0.1848  0.0401 -0.3810
99296W        W42213  14.467   8.010   2.423  0.0072 -0.4137  0.4740
99297W        W42214  15.587   6.071   5.077  0.0173 -0.1875 -0.4978
99298W        W42215  15.576   5.134   2.856 -0.0556  0.0619 -0.2392
99299W        W42216  17.383   5.011   1.989  0.1634 -0.2473  0.1974
99300W        W42217  13.832   5.304   0.990 -0.0142 -0.0816  0.0440
99301W        W42218  15.763   5.137   0.502  0.0909 -0.0735  0.2287
99302W        W42219  15.675   8.770   3.608 -0.1280  0.0119 -0.3636
99303W        W42220  13.903   4.738   1.462 -0.0012 -0.1745 -0.0236
99304W        W42221  16.604   6.991   0.936  0.2858  0.3567 -0.0194
99305W        W42222  18.162   6.515  31.938  0.3127  0.0166 -0.0572
99306W        W42223  15.481   6.313   0.762 -0.1582 -0.0602 -0.1477
99307W        W42224  18.344   8.430   2.721 -0.5779  0.1969  0.0969
99308W        W42225  14.049   4.510  31.581 -0.2363 -0.3310  0.1153
99309W        W42226  12.742   7.408   3.026  0.2423 -0.0820 -0.0669
99310W        W42227  14.096   6.330   1.513  0.2636  0.1693  0.6025
99311W        W42228  16.857   8.465   2.220  0.4108 -0.0653 -0.2541
99312W        W42229  14.501   6.980   2.548 -0.1074 -0.0749 -0.0847
99313W        W42230  18.046   3.716   1.002  0.2136  0.1462  0.1679
99314W        W42231  15.810   6.172  31.920  0.0909 -0.1269  0.2583
99315W        W42232  18.143   5.431   2.379  0.1889  0.1194 -0.0714
99316W        W42233  16.136   5.076   1.859  0.2969  0.0913  0.1627
99317W        W42234  16.425   7.357   2.729 -0.0009 -0.2128 -0.0006
99318W        W42235  17.570   3.841   2.958  0.1349 -0.0275 -0.2100
99319W        W42236  15.344   4.535   0.818 -0.3112 -0.1748 -0.0706
99320W        W42237  13.878   5.707   3.198 -0.1308 -0.3914  0.2691
99321W        W42238  19.001   5.137   4.709 -0.2043 -0.4444 -0.0250
99322W        W42239  14.473   8.284   3.740 -0.0341 -0.1385 -0.1360
99323W        W42240  16.984   6.788   0.658  0.0950 -0.2920  0.0602
99324W        W42241  16.100   4.345   1.369  0.2250  0.0143 -0.1027
99325W        W42242  14.004   5.434  31.116 -0.2137 -0.0920 -0.0103
99326W        W42243  17.842   3.585   3.249  0.1810  0.2684  0.0751
99327W        W42244  14.687   6.307   1.243  0.0858  0.2514  0.1703
99328W        W42245  15.878   3.525   3.266  0.3031  0.1881 -0.1503
99329W        W42246  14.779   6.666   0.480  0.0194 -0.1491  0.1425
99330W        W42247  16.753   7.208   1.444 -0.1722 -0.3445 -0.0764
99331W        W42248  14.606   7.038   1.899 -0.2646 -0.1783 -0.3504
99332W        W42249  13.510   4.478   0.829 -0.0804  0.0204 -0.3216
99333W        W42250  18.788   3.306   3.011 -0.2373 -0.1321  0.0798
99334W        W42251  16.538   5.207   2.532 -0.3076  0.2055 -0.0369
99335W        W42252  15.694   2.527   3.308 -0.2223 -0.1981  0.2086
99336W        W42253  14.785   6.626   2.138 -0.0830 -0.1522  0.0996
99337W        W42254  18.119   4.532   1.940 -0.2921  0.1382  0.1990
99338W        W42255  16.239   5.312   3.075  0.2223 -0.0844  0.1214
99339W        W42256  15.821   6.786   3.319 -0.2278  0.0820 -0.1477
99340W        W42257  18.602   4.091   0.438  0.3208 -0.2722 -0.2511
99341W        W42258  18.940   5.370   2.944 -0.2773 -0.0378 -0.0141
99342W        W42259  15.617   5.616   1.243  0.0906  0.0119 -0.0478
99343W        W42260  16.693   4.987   2.082  0.0895 -0.1789 -0.0774
99344W        W42261  16.362   3.672   0.633  0.1865  0.5972 -0.1467
99345W        W42262  16.510   4.529   1.150  0.1200  0.0393 -0.5081
99346W        W42263  13.735   8.102   3.367  0.1789 -0.1416  0.1714
99347W        W42264  17.259   4.310   3.033 -0.0996 -0.2806  0.3361
99348W        W42265  17.990   6.366   2.694 -0.3099  0.0251 -0.2100
99349W        W42266  13.955   2.741   2.079 -0.1868  0.0273 -0.1081
99350W        W42267  20.097   4.711   1.084 -0.0084 -0.1153  0.0524
99351W        W42268  18.396   6.137   2.865 -0.2082 -0.2628  0.0147
99352W        W42269  16.060   7.345   0.040  0.0898 -0.0856  0.3874
99353W        W42270  17.842   5.170   1.258  0.3904  0.0599 -0.2582
99354W        W42271  16.064   5.487   1.604  0.0847  0.2139  0.1864
99355W        W42272  13.679   5.244   2.283 -0.0632  0.0416 -0.2712
99356W        W42273  18.218   6.926   0.666  0.1307  0.1618  0.1376
99357W        W42274  17.722   7.130   1.275 -0.2733  0.0419  0.2648
99358W        W42275  15.162   3.503  31.109  0.1623  0.4283  0.2168
99359W        W42276  15.366   1.295   2.602  0.2588 -0.1073 -0.2247
99360W        W42277  13.670   9.700   3.761  0.2195 -0.0333 -0.0294
99361W        W42278  18.214   3.307   2.895  0.4003  0.1111  0.1276
99362W        W42279  18.239   6.006   2.371  0.2895  0.2192 -0.1713
99363W        W42280  15.056   7.699  31.889 -0.1036  0.3801 -0.2739
99364W        W42281  15.581   3.125   4.784 -0.7117  0.1793 -0.4298
99365W        W42282  14.150   9.602   3.600 -0.0434  0.1366  0.0095
99366W        W42283  16.566   5.410   1.791  0.1230  0.3043  0.1927
99367W        W42284  13.061   6.949  31.384 -0.1327 -0.3436  0.2894
99368W        W42285  15.060   5.930   4.913 -0.3662 -0.0564  0.1067
99369W        W42286  14.588   6.711   1.005  0.1180 -0.2949 -0.1051
99370W        W42287  14.845   7.402   0.550 -0.1652 -0.0471  0.0465
99371W        W42288  16.254   5.855   0.050  0.0494  0.5162  0.2827
99372W        W42289  17.804   6.992   4.068  0.1049  0.1322  0.0018
99373W        W42290  14.870   3.769   0.159  0.0656 -0.0706 -0.0063
99374W        W42291  18.546   3.307   2.166 -0.2176  0.2430  0.3914
99375W        W42292  19.167   3.062  31.155 -0.1712 -0.1229  0.6296
99376W        W42293  15.565   7.757   0.934 -0.4218  0.2144 -0.4023
99377W        W42294  16.879   5.995  31.498 -0.4011 -0.0717 -0.2331
99378W        W42295  14.397   5.525  30.108 -0.1634  0.3301 -0.1791
99379W        W42296  15.484   3.854   0.752 -0.0282  0.2400  0.1069
99380W        W42297  15.577   3.911   5.071 -0.1251 -0.0563  0.0462
99381W        W42298  16.459   5.202   1.311 -0.1014 -0.2875  0.1762
99382W        W42299  14.610   4.743   2.460  0.1792  0.3647  0.4384
99383W        W42300  15.111   4.499   1.295 -0.0294 -0.1527 -0.0127
99384W        W42301  19.508   7.123   1.667 -0.0427  0.3316 -0.1850
99385W        W42302  14.649   2.474   1.587  0.1722  0.0859  0.0496
99386W        W42303  15.669   3.178   1.103  0.4067  0.1588 -0.2307
99387W        W42304  17.364   4.348   1.272 -0.1189 -0.1696 -0.2703
99388W        W42305  19.090   5.564   1.033 -0.0563  0.4638 -0.4464
99389W        W42306  17.907   4.063   1.987 -0.1311  0.0438 -0.0409
99390W        W42307  16.315   7.157   2.222 -0.2851 -0.2412  0.0707
99391W        W42308  14.732   5.874   1.048 -0.0864  0.0126  0.1593
99392W        W42309  17.433   5.593   4.066 -0.0748 -0.0142  0.2097
99393W        W42310  13.763   2.835   2.620 -0.1088 -0.1286  0.2012
99394W        W42311  13.082   3.770   1.527  0.0451  0.3222  0.1673
99395W        W42312  16.063   4.834   1.428  0.1101  0.0022  0.0558
99396W        W42313  17.451   6.237   0.555  0.0354 -0.0273 -0.0723
99397W        W42314  16.511   6.363   1.183 -0.1715 -0.0746 -0.1069
99398W        W42315  15.568   6.209   1.733  0.3353 -0.2829 -0.1383
99399W        W42316  15.144   9.079   2.577  0.1918 -0.1737 -0.2123
99400W        W42317  16.095   3.494   2.349 -0.0611  0.1018 -0.2871
99401W        W42318  18.392   7.051   0.244  0.2846  0.2951 -0.0335
99402W        W42319  16.808   6.992   2.484 -0.1163 -0.0530  0.2172
99403W        W42320  18.342   6.544   0.960  0.3400 -0.3259 -0.0100
99404W        W42321  18.265   2.053   4.368  0.0744 -0.0357  0.0489
99405W        W42322  17.610   5.383   0.548 -0.0059 -0.4223 -0.0073
99406W        W42323  16.615   2.844   3.158 -0.2624  0.2778  0.0939
99407W        W42324  15.113   8.721   3.803 -0.0222 -0.0096  0.0098
99408W        W42325  17.154   6.419   3.694  0.1092 -0.0744  0.4577
99409W        W42326  15.091   5.033   2.794 -0.0515  0.0126 -0.1629
99410W        W42327  17.806   3.005  30.873  0.0221 -0.0439  0.3863
99411W        W42328  18.836   7.933   1.788  0.0301  0.0684 -0.0118
99412W        W42329  15.726   6.261   2.334 -0.1583  0.2260 -0.0069
99413W        W42330  14.301   5.849   1.496 -0.0984 -0.2045  0.0218
99414W        W42331  15.505   4.725   2.515  0.1342 -0.0497 -0.1357
99415W        W42332  17.381   6.115   1.137  0.4511 -0.1118  0.0449
99416W        W42333  17.670   6.080   2.911 -0.0093  0.2332  0.2130
99417W        W42334  14.629   2.997   3.330 -0.2813  0.3882  0.2186
99418W        W42335  18.069   4.751   1.370  0.0704  0.0630  0.1679
99419W        W42336  18.300   5.320   1.501  0.0237 -0.0251  0.0576
99420W        W42337  16.432   7.980   3.982 -0.1370 -0.1070 -0.0508
99421W        W42338  16.894   8.979   2.957  0.2144 -0.1628  0.0007
99422W        W42339  16.071   7.762   2.711 -0.0690  0.0138 -0.0622
99423W        W42340  14.458   3.608   0.958 -0.1334  0.1027  0.0316
99424W        W42341  14.200   6.101   1.051 -0.3293  0.0928  0.1446
99425W        W42342  16.868   6.588   1.563  0.0807 -0.1147 -0.1413
99426W        W42343  18.544   5.669   3.172 -0.2853  0.2203  0.0458
99427W        W42344  14.784   4.316   0.871  0.1844 -0.0145  0.1157
99428W        W42345  17.814   2.233   2.001  0.4151 -0.2286  0.0199
99429W        W42346  15.685   6.424   1.275  0.2001 -0.0167  0.1827
99430W        W42347  16.058   6.553   0.984  0.0143  0.2794  0.0488
99431W        W42348  15.299   6.514   7.259 -0.2417 -0.2831  0.1402
99432W        W42349  15.645   7.635   4.468  0.1068 -0.1183 -0.1194
99433W        W42350  18.509   4.101   2.465 -0.2201  0.2424 -0.2830
99434W        W42351  16.985   6.525   3.170 -0.2994 -0.2284  0.3840
99435W        W42352  16.235   4.461   3.315  0.2545 -0.2623  0.1717
99436W        W42353  18.219   7.282   4.032 -0.1730 -0.1519  0.1192
99437W        W42354  14.917   4.183   5.882  0.3262  0.1873  0.0901
99438W        W42355  16.899   7.508   5.598 -0.5659  0.0063  0.2513
99439W        W42356  17.601   8.855   4.949 -0.0329  0.0354 -0.0140
99440W        W42357  17.166   5.595   0.946  0.1256 -0.1576 -0.1445
99441W        W42358  15.936   6.354   5.236  0.3816 -0.0613  0.3354
99442W        W42359  13.973   6.458   7.487 -0.0468  0.0664 -0.0512
99443W        W42360  15.081   4.288   3.436 -0.1297  0.3901  0.0948
99444W        W42361  14.810   6.491   4.137 -0.0275  0.2281  0.0375
99445W        W42362  18.506   5.149   6.854 -0.2372 -0.1280 -0.1972
99446W        W42363  14.480   6.756   6.027  0.0810 -0.6097  0.3264
99447W        W42364  15.021   4.163   6.387 -0.0635  0.2782 -0.0419
99448W        W42365  15.398   4.268   4.725  0.0334 -0.1230 -0.0351
99449W        W42366  15.861   6.664   5.967 -0.0117  0.0012  0.3450
99450W        W42367  14.480   5.139   5.038  0.0209 -0.2058  0.2480
99451W        W42368  15.835   2.737   4.403  0.0321  0.0370  0.0229
99452W        W42369  16.221   7.053   3.129  0.3612  0.0255 -0.0139
99453W        W42370  15.737   5.691   3.618  0.4169  0.1390  0.2785
99454W        W42371  15.600   4.348   3.511  0.1345  0.2205  0.0601
99455W        W42372  15.021   5.777   8.980 -0.4645 -0.1543 -0.1689
99456W        W42373  15.385   5.718   5.423  0.2041 -0.0638  0.1127
99457W        W42374  18.395   6.487   5.761  0.1454  0.1102 -0.1044
99458W        W42375  16.235   8.789   5.129 -0.0574 -0.0528 -0.4174
99459W        W42376  17.223   5.981   4.511 -0.2261 -0.0821 -0.0469
99460W        W42377  16.480   5.822   8.541 -0.2372 -0.1595  0.0267
99461W        W42378  14.838   7.316   4.205 -0.2209 -0.2242 -0.0547
99462W        W42379  13.617   7.145   5.170  0.0495  0.0634  0.0084
99463W        W42380  15.985   5.622   4.045  0.1649  0.1794  0.0955
99464W        W42381  18.091   7.211   4.876 -0.0437  0.1717 -0.0504
99465W        W42382  17.561   7.892   4.462 -0.1888  0.4317  0.0445
99466W        W42383  16.375   7.233   6.230 -0.1639 -0.0172  0.0253
99467W        W42384  17.183   8.538   5.212 -0.0121  0.1311  0.3568
99468W        W42385  17.298   6.440   4.171  0.2573 -0.1323 -0.0963
99469W        W42386  16.511   6.236   6.941  0.3898 -0.0435  0.0799
99470W        W42387  16.283   8.337   4.503  0.0482 -0.0098  0.0928
99471W        W42388  15.909   4.734   3.623 -0.0906  0.0834 -0.0386
99472W        W42389  16.221   6.878   2.673  0.1323  0.0005 -0.3582
99473W        W42390  16.230   6.788   5.408  0.2598  0.0040 -0.1734
99474W        W42391  15.783   5.625   7.066  0.0449 -0.0058  0.1467
99475W        W42392  14.653   5.577   4.772  0.7714  0.1773  0.0190
99476W        W42393  17.284   2.387   7.948  0.0541 -0.2373  0.1622
99477W        W42394  15.025   7.029   2.345  0.2404 -0.2069  0.0572
99478W        W42395  18.180   4.898   2.257  0.1506 -0.3114 -0.1094
99479W        W42396  16.023   5.235   2.623  0.0321  0.0381 -0.0799
99480W        W42397  16.396   5.330   4.409 -0.0319  0.2747  0.0876
99481W        W42398  17.202   6.304   4.989  0.1218 -0.0195 -0.3291
99482W        W42399  14.388   7.906   4.028  0.1144  0.1758 -0.2044
99483W        W42400  15.260   5.459   5.015 -0.2211  0.0227 -0.0411
99484W        W42401  18.014   6.869   6.468 -0.0261 -0.2691 -0.0388
99485W        W42402  14.706   4.323   3.808  0.3370  0.1533 -0.1958
99486W        W42403  16.789   5.538   6.675  0.0387  0.2685 -0.1472
99487W        W42404  17.100   7.888   5.987 -0.4342 -0.0263  0.0324
99488W        W42405  14.987   4.895   3.469 -0.0154  0.1077 -0.3943
99489W        W42406  16.880   6.651   2.084  0.1900  0.0324  0.0969
99490W        W42407  17.593   7.390   4.885  0.1886  0.1856 -0.1768
99491W        W42408  17.757   7.323   2.949 -0.0701 -0.1063 -0.0102
99492W        W42409  15.292   6.381   4.020  0.1355  0.1852  0.0508
99493W        W42410  15.403   5.203   6.973 -0.0973  0.1258 -0.0115
99494W        W42411  13.410   6.039   6.886  0.0828  0.1404 -0.1645
99495W        W42412  14.702   4.012   3.242  0.3303  0.4915 -0.2962
99496W        W42413  19.118   5.974   5.936  0.0299 -0.4867  0.2823
99497W        W42414  14.857   5.934   6.282 -0.1353 -0.2113 -0.0723
99498W        W42415  17.720   5.775   5.719  0.0021  0.2344 -0.1578
99499W        W42416  16.267   6.390   4.647  0.0805  0.1237  0.2613
99500W        W42417  16.730   7.299   6.752  0.3021 -0.0245  0.0306
99501W        W42418  15.532   3.706   4.555  0.2311  0.0696  0.1008
99502W        W42419  14.450   6.070   4.206 -0.0001 -0.0761  0.0479
99503W        W42420  15.251   3.605   6.900 -0.0810  0.0001 -0.0446
99504W        W42421  15.864   5.162   3.885 -0.3066 -0.0597 -0.2220
99505W        W42422  17.534   6.106   3.745  0.2209 -0.0581 -0.1844
99506W        W42423  17.729   6.961   5.094 -0.0351  0.2038  0.3329
99507W        W42424  18.476   5.724   4.661  0.1637  0.0748  0.0798
99508W        W42425  14.961   6.514   6.785  0.0422  0.2094 -0.1372
99509W        W42426  15.329   5.088   6.392 -0.1211  0.1629  0.0803
99510W        W42427  15.904   6.963   6.732 -0.1255  0.4324 -0.3530
99511W        W42428  13.523   6.101   1.626 -0.0853 -0.0162  0.1882
99512W        W42429  15.049   6.791   5.991 -0.0625  0.0086  0.1573
99513W        W42430  15.213   7.660   5.802 -0.1583  0.2504  0.0786
99514W        W42431  14.720   6.148   4.601  0.1275 -0.0600 -0.0927
99515W        W42432  14.360   6.818   7.280  0.1780  0.0298  0.0464
99516W        W42433  16.378   2.214   6.216 -0.1378 -0.0254 -0.0001
99517W        W42434  14.773   4.497   6.744 -0.0328  0.0153 -0.1436
99518W        W42435  17.066   4.648   6.290  0.0857 -0.2135  0.2246
99519W        W42436  15.995   7.213   5.118 -0.1572 -0.0450  0.3857
99520W        W42437  18.249   9.230   3.610 -0.2225  0.4072  0.1253
99521W        W42438  16.614   6.114   3.177  0.1958  0.1088 -0.0816
99522W        W42439  18.760   7.025   3.848 -0.0355  0.0406  0.1553
99523W        W42440  14.393   5.882   6.383  0.1088  0.5715 -0.4561
99524W        W42441  15.961   4.531   2.622 -0.0357  0.0157  0.3362
99525W        W42442  15.879   4.395   5.956 -0.0951 -0.2236  0.0753
99526W        W42443  14.989   3.742   4.919 -0.1006  0.1803  0.2215
99527W        W42444  17.919   5.968   5.259 -0.3453 -0.2194  0.0689
99528W        W42445  17.392   4.416   2.507 -0.1551  0.0601 -0.2266
99529W        W42446  17.542   6.818   3.640  0.0120 -0.1099 -0.1431
99530W        W42447  14.554   5.974   5.632  0.3454 -0.3104 -0.2752
99531W        W42448  16.728   6.859   4.985  0.0147  0.3656  0.0968
99532W        W42449  18.190   8.031   5.329 -0.1590  0.0214 -0.1907
99533W        W42450  16.997   8.783   4.200  0.0892  0.3312  0.1927
99534W        W42451  16.446   7.584   5.743 -0.1700  0.3471  0.2239
99535W        W42452  16.562   7.927   4.505  0.0771  0.1351  0.2356
99536W        W42453  16.214   5.155   6.424 -0.3115 -0.0277  0.1088
99537W        W42454  17.527   3.387   1.413 -0.1132 -0.0000 -0.2655
99538W        W42455  15.432   7.325   4.887 -0.1324 -0.1921 -0.0421
99539W        W42456  15.579   6.451   6.343 -0.2368 -0.0704 -0.3328
99540W        W42457  15.038   4.878   2.216 -0.1487  0.1137 -0.0840
99541W        W42458  18.186   7.968   4.352  0.2220  0.2730  0.1652
99542W        W42459  15.433   5.915   4.216 -0.0411  0.1450  0.2377
99543W        W42460  15.376   6.493   8.248 -0.1786  0.3084  0.2809
99544W        W42461  17.942   3.614   7.455 -0.0844  0.0106 -0.0692
99545W        W42462  15.613   4.742   5.555  0.0495  0.1475 -0.1370
99546W        W42463  17.862   5.367   5.267  0.1620 -0.1036  0.2175
99547W        W42464  16.884   2.885   1.049 -0.2925 -0.1792  0.0912
99548W        W42465  15.130   6.856   4.091  0.0405 -0.0948 -0.0788
99549W        W42466  16.336   9.349   5.367 -0.1014  0.0356 -0.2401
99550W        W42467  15.713   6.876   5.435  0.2286 -0.0692 -0.0302
99551W        W42468  18.194   7.900   2.482 -0.0109 -0.1948  0.0305
99552W        W42469  17.475   6.926   5.613 -0.0110  0.1213  0.0953
99553W        W42470  14.554   5.191   8.374 -0.0064 -0.0474  0.4868
99554W        W42471  16.884   5.924   4.888 -0.2156  0.0023  0.0192
99555W        W42472  16.149   4.538   1.816 -0.2793 -0.1036  0.0978
99556W        W42473  16.121   7.116   7.155 -0.0390  0.1532  0.1588
99557W        W42474  16.844   4.587   5.392  0.0919  0.2040  0.0649
99558W        W42475  18.740   4.297   5.281 -0.1606  0.0301 -0.1075
99559W        W42476  15.462   4.956   5.094 -0.0963 -0.1913  0.1176
99560W        W42477  18.703   8.278   3.211 -0.1118 -0.2347 -0.1040
99561W        W42478  17.913   2.865   5.539 -0.1549 -0.0919  0.0303
99562W        W42479  16.727   4.476   3.229 -0.2019 -0.1180 -0.0126
99563W        W42480  13.455   4.943   7.924 -0.2639 -0.2049  0.0571
99564W        W42481  18.094   7.746   2.984  0.4127  0.0755  0.1209
99565W        W42482  14.395   6.292   7.179 -0.1453 -0.0643 -0.0239
99566W        W42483  16.203   5.938   3.551  0.0624 -0.1231  0.1479
99567W        W42484  17.722   6.650   2.246  0.1494  0.1103  0.0602
99568W        W42485  15.898   8.369   5.496 -0.0524 -0.0182 -0.2750
99569W        W42486  17.037   6.722   7.389 -0.0076  0.1414  0.0286
99570W        W42487  18.935   6.914   4.267 -0.1390  0.2110  0.3784
99571W        W42488  16.053   3.684   5.190  0.0410  0.0055 -0.3892
99572W        W42489  16.393   6.712   2.268  0.0375 -0.1036  0.1734
99573W        W42490  14.266   3.793   4.159 -0.0443  0.1141  0.0689
99574W        W42491  16.460   5.842   4.005  0.2348  0.3200  0.2067
99575W        W42492  18.709   5.028   6.066  0.3125 -0.0521  0.1024
99576W        W42493  16.995   5.088   5.711  0.0099  0.2419  0.1134
99577W        W42494  16.047   4.816   7.258  0.0484 -0.0581 -0.0929
99578W        W42495  16.099   2.961   7.908  0.1984  0.3072  0.2813
99579W        W42496  15.736   4.279   4.309 -0.0795  0.0241  0.1836
99580W        W42497  17.133   4.364   4.634  0.1944 -0.0715 -0.0773
99581W        W42498  15.907   6.753   2.331  0.2585  0.1335  0.3442
99582W        W42499  16.485   5.044   6.011  0.1321  0.4518  0.0667
99583W        W42500  13.884   6.590   6.980  0.0331  0.0020  0.0845
99584W        W42501  16.510   7.238   5.284  0.0878 -0.3303  0.2799
99585W        W42502  19.129   7.866   5.684  0.0741  0.1641 -0.1704
99586W        W42503  17.740   7.578   3.890  0.0811  0.2914  0.3366
99587W        W42504  17.372   3.555   7.328  0.1599  0.2793 -0.0213
99588W        W42505  16.644   1.955   2.582 -0.0573  0.3240  0.2904
99589W        W42506  16.949   8.114   4.939 -0.1577  0.2637  0.0018
99590W        W42507  17.177   7.667   4.671  0.0976  0.1935 -0.0086
99591W        W42508  16.790   3.256   5.186  0.1210 -0.0597  0.0874
99592W        W42509  15.080   6.935   5.026  0.0726 -0.2118 -0.0840
99593W        W42510  15.353   7.409   2.618  0.2950  0.0148  0.0926
99594W        W42511  15.632   5.711   5.832 -0.0296 -0.1593  0.0286
99595W        W42512  13.553   6.785   3.956 -0.0600  0.1506  0.0261
99596W        W42513  16.278   4.615   5.732 -0.0092 -0.2309  0.1208
99597W        W42514  13.883   7.495   4.687 -0.1145  0.2228 -0.1068
99598W        W42515  15.491   5.425   4.217 -0.2046  0.2637  0.0950
99599W        W42516  13.288   5.978   3.762 -0.0511  0.0031  0.2438
99600W        W42517  15.160   4.920   4.382 -0.0798 -0.1993 -0.1655
99601W        W42518  18.252   8.045   3.398  0.1252  0.1206 -0.0670
99602W        W42519  14.804   4.157   5.338  0.1847 -0.0484 -0.0151
99603W        W42520  16.219   3.801   7.372 -0.1064  0.1914  0.1139
99604W        W42521  14.971   7.988   5.489 -0.0820  0.0814 -0.1488
99605W        W42522  17.749   6.426   5.074 -0.0246  0.1689 -0.1034
99606W        W42523  15.489   6.712   4.474 -0.1323  0.0036  0.0799
99607W        W42524  16.731   6.503   5.509  0.0631  0.1965  0.0170
99608W        W42525  15.885   5.167   6.900 -0.1552  0.0429 -0.2110
99609W        W42526  14.715   7.481   3.319 -0.0369 -0.1906 -0.0360
99610W        W42527  17.344   5.047   6.031 -0.1126 -0.2659 -0.2992
99611W        W42528  16.400   4.076   3.727 -0.0152  0.3459 -0.2470
99612W        W42529  14.399   6.311   6.007  0.1330 -0.3233 -0.0517
99613W        W42530  16.804   7.578   4.159  0.2116 -0.1236  0.1326
99614W        W42531  16.476   6.055   5.260 -0.2326 -0.1283  0.0341
99615W        W42532  17.497  10.367   4.439 -0.1599 -0.0765  0.1509
99616W        W42533  15.997   5.968   7.725 -0.2336 -0.2813 -0.1985
99617W        W42534  17.645   4.812   5.726  0.0277 -0.0383  0.0251
99618W        W42535  15.985   5.864   5.487  0.0066  0.1634 -0.0662
99619W        W42536  16.000   5.015   4.431 -0.1291 -0.2838  0.0436
99620W        W42537  15.430   3.412   3.080 -0.1731 -0.0302 -0.1722
99621W        W42538  15.271   6.891   6.436 -0.1801  0.0597  0.0199
99622W        W42539  15.298   4.078   4.209 -0.0350  0.0473 -0.2231
99623W        W42540  15.570   6.209   7.676 -0.1225 -0.0616  0.0720
99624W        W42541  17.128   2.291   5.931 -0.1975 -0.1870  0.0545
99625W        W42542  18.100  11.089   4.647 -0.1624 -0.0763 -0.0123
99626W        W42543  14.656   7.029   4.631 -0.3253 -0.1004 -0.3582
99627W        W42544  15.866   6.274   3.210 -0.1443  0.2829 -0.0649
99628W        W42545  16.623   4.726   2.570 -0.4261  0.0400 -0.1785
99629W        W42546  15.927   5.976   6.724  0.4073 -0.1320  0.1981
99630W        W42547  16.014   7.631   5.527  0.3091 -0.0550 -0.1387
99631W        W42548  15.676   7.071   4.168  0.1165 -0.3515  0.0040
99632W        W42549  15.469   6.855   8.586  0.0718  0.2818 -0.1486
99633W        W42550  16.113   3.481   4.093 -0.1110  0.2155  0.1436
99634W        W42551  16.914   7.783   3.632  0.0043  0.1720 -0.4914
99635W        W42552  15.767   5.580   5.092 -0.1315 -0.0075  0.3887
99636W        W42553  18.029   5.036   6.841 -0.1711  0.4603 -0.1643
99637W        W42554  16.474   4.892   3.407 -0.3095 -0.1763 -0.2004
99638W        W42555  16.759   4.609   5.900  0.0357 -0.1457 -0.1298
99639W        W42556  13.806   4.376   7.126  0.0494 -0.1121 -0.0707
99640W        W42557  16.633   7.286   4.645 -0.0782  0.1970 -0.2372
99641W        W42558  13.071   2.831   6.664  0.0344  0.1124  0.1300
99642W        W42559  16.143   8.895   8.746  0.0434 -0.2795  0.0722
99643W        W42560  14.963   6.117   7.202 -0.1855 -0.0820  0.2413
99644W        W42561  17.044   5.205   6.410 -0.0453 -0.3481  0.0570
99645W        W42562  15.065   5.408   4.547 -0.0037  0.1495 -0.0499
99646W        W42563  14.951   6.663   4.565 -0.3243 -0.3734 -0.0709
99647W        W42564  19.028   5.523   6.168 -0.0289  0.0176  0.0348
99648W        W42565  15.932   7.136   3.615 -0.0660 -0.1608 -0.1409
99649W        W42566  16.963   5.756   6.192 -0.2726  0.0220 -0.0385
99650W        W42567  16.814   5.635   5.257 -0.0523  0.3266 -0.0366
99651W        W42568  17.585   5.880   4.842 -0.0513  0.0939 -0.2049
99652W        W42569  16.350   3.942   2.493  0.2174 -0.2246  0.2449
99653W        W42570  16.200   6.304   4.062  0.0814 -0.0716  0.2278
99654W        W42571  15.923   3.959   6.168  0.1812 -0.0150  0.1296
99655W        W42572  17.597   5.266   4.885 -0.2209  0.1041 -0.2146
99656W        W42573  16.323   2.909   7.031  0.0745  0.1433  0.1070
99657W        W42574  17.604   3.140   5.872 -0.0700  0.1018 -0.0547
99658W        W42575  16.563   5.365   5.662 -0.2658 -0.0726  0.0094
99659W        W42576  14.512   6.778   6.827 -0.2823 -0.3188 -0.0642
99660W        W42577  14.301   3.710   6.670 -0.0416 -0.0600 -0.1042
99661W        W42578  16.861   6.234   6.026 -0.0718 -0.2750  0.0722
99662W        W42579  17.975   7.247   3.550  0.1255 -0.0301  0.0540
99663W        W42580  17.951   3.932   4.972 -0.2544 -0.0139 -0.1818
99664W        W42581  17.358   5.263   5.442  0.2407 -0.0363 -0.3562
99665W        W42582  16.831   3.482   3.445  0.2396  0.0213 -0.3008
99666W        W42583  16.331   3.287   5.329  0.1226 -0.0241 -0.0308
99667W        W42584  18.581   5.216   5.610  0.0637 -0.0665 -0.0795
99668W        W42585  15.457   7.680   1.428 -0.0226 -0.0224 -0.4513
99669W        W42586  14.810   3.646   7.153 -0.0707  0.2860  0.1215
99670W        W42587  17.611   8.202   5.933  0.1354  0.0169  0.1109
99671W        W42588  15.980   6.690   4.322 -0.1244 -0.0327 -0.2772
99672W        W42589  15.084   6.083   5.387 -0.0431 -0.1717  0.2196
99673W        W42590  16.629   3.225   5.757  0.1747  0.0961 -0.1304
99674W        W42591  14.141   7.619   8.528 -0.2389  0.0256 -0.1142
99675W        W42592  14.850   6.056   2.720 -0.1940  0.3006  0.1770
99676W        W42593  14.078   7.071   3.993  0.3121  0.1157 -0.4731
99677W        W42594  17.262   7.414   4.183 -0.2141  0.2933 -0.0747
99678W        W42595  18.479   6.521   6.360  0.1199  0.1725 -0.0373
99679W        W42596  14.843   2.981   4.283  0.0695 -0.0020  0.1944
99680W        W42597  17.791   5.231   6.420  0.2143  0.0188 -0.0822
99681W        W42598  13.815   7.965   5.031  0.5125  0.3230  0.0767
99682W        W42599  15.885   3.155   3.759 -0.1716  0.0635 -0.3455
99683W        W42600  16.966   7.979   5.451 -0.0043 -0.0257 -0.0225
99684W        W42601  15.154   6.937   6.969 -0.1168 -0.0269 -0.1385
99685W        W42602  15.817   6.256   4.312  0.0340 -0.0613 -0.3176
99686W        W42603  16.180   4.638   6.279  0.1489 -0.4061  0.1811
99687W        W42604  14.882   5.615   5.279 -0.1244  0.0635 -0.1569
99688W        W42605  15.335   8.871   4.252 -0.3351  0.0011 -0.2057
99689W        W42606  16.657   4.607   7.125 -0.1030 -0.3576  0.2490
99690W        W42607  15.154   4.010   7.915  0.4092 -0.1244  0.2512
99691W        W42608  15.802   4.666   3.102 -0.2170 -0.2789  0.0780
99692W        W42609  15.482   7.085   5.923  0.1245 -0.2128 -0.0420
99693W        W42610  16.031   4.137   4.999 -0.1017 -0.1773  0.0318
99694W        W42611  15.254   7.454   3.918 -0.1603 -0.1406  0.0478
99695W        W42612  13.124   5.323   6.667 -0.0620  0.4036 -0.2173
99696W        W42613  16.676   5.487   7.157 -0.0479 -0.0237 -0.1622
99697W        W42614  15.602   6.191   5.537 -0.3215  0.0122 -0.2736
99698W        W42615  16.329   5.892   4.469 -0.3267 -0.0781  0.2961
99699W        W42616  16.230   4.835   2.937  0.1286  0.1134  0.4603
99700W        W42617  15.330   7.300   7.243 -0.1329  0.0801  0.1081
99701W        W42618  14.356   5.448   7.450  0.0119 -0.0899  0.1785
99702W        W42619  16.717   6.570   4.025 -0.1350  0.1516  0.0193
99703W        W42620  16.610   6.180   3.673 -0.2143  0.2810  0.1128
99704W        W42621  17.387   5.843   5.359 -0.0401  0.0193  0.0100
99705W        W42622  18.786   5.941   3.554  0.2842 -0.0813 -0.4663
99706W        W42623  14.601   4.612   1.211 -0.2184 -0.0141  0.3632
99707W        W42624  15.361   7.310   6.705  0.1762  0.1755 -0.2438
99708W        W42625  14.928   7.222   2.782 -0.3759  0.0313  0.1572
99709W        W42626  17.681   8.712   3.209  0.2564  0.0782  0.0181
99710W        W42627  16.295   8.029   5.399  0.3108 -0.0470 -0.2102
99711W        W42628  18.008   7.247   5.406  0.1027 -0.0144 -0.1925
99712W        W42629  17.230   4.557   5.723  0.0936  0.2137 -0.2042
99713W        W42630  18.960   6.831   5.936 -0.0721 -0.1609 -0.0724
99714W        W42631  16.233   3.492   6.185 -0.1240  0.3586  0.2700
99715W        W42632  17.990   5.664   6.100  0.2818 -0.1653  0.0169
99716W        W42633  14.080   4.642   4.655  0.1960  0.2373 -0.1302
99717W        W42634  17.185   2.176   3.992  0.1055  0.0581  0.1016
99718W        W42635  15.495   5.177   4.661 -0.0962 -0.0028 -0.2835
99719W        W42636  18.233   4.355   5.206 -0.1694 -0.1512  0.0974
99720W        W42637  15.753   7.471   7.170  0.2782 -0.1047  0.0111
99721W        W42638  17.238   7.116   4.654 -0.2232 -0.1055  0.1960
99722W        W42639  14.053   4.638   6.495  0.1432 -0.1451  0.0507
99723W        W42640  16.293   6.826   3.826  0.0194  0.1433 -0.2638
99724W        W42641  17.453   5.531   6.099  0.1058  0.2740 -0.1857
99725W        W42642  17.238   9.797   4.065 -0.0005  0.1614  0.0228
99726W        W42643  17.773   6.224   6.684  0.1364 -0.1540 -0.1798
99727W        W42644  15.666   5.983   2.733 -0.2052 -0.0077  0.3221
99728W        W42645  15.109   7.252   6.167 -0.0336  0.1091 -0.0088
99729W        W42646  16.262   6.863   4.827 -0.2184 -0.0989 -0.1145
99730W        W42647  15.352   3.785   2.530  0.0829 -0.1018 -0.0318
99731W        W42648  17.355   7.362   5.343 -0.1959 -0.3730  0.0167
99732W        W42649  15.087   7.748   4.517  0.1158 -0.1338 -0.1063
99733W        W42650  18.645   5.381   6.423  0.2687  0.0819  0.0111
99734W        W42651  14.045   4.424   6.035 -0.2397 -0.1006 -0.6136
99735W        W42652  18.102   6.093   4.780  0.2017  0.0186 -0.3024
99736W        W42653  16.573   6.752   4.490 -0.1736 -0.0451 -0.1909
99737W        W42654  13.845   5.586   6.207 -0.1641 -0.0411 -0.3477
99738W        W42655  16.748   3.959   4.072  0.1189 -0.3222  0.0674
99739W        W42656  16.543   7.085   5.777 -0.5791  0.0331  0.0833
99740W        W42657  17.057   5.190   2.316 -0.1393  0.1780  0.0031
99741W        W42658  19.559   5.388   7.638 -0.1575 -0.3353  0.0850
99742W        W42659  15.382   3.287   5.636 -0.0383  0.2117 -0.1905
99743W        W42660  15.049   5.051   5.330 -0.3262  0.0669 -0.1675
99744W        W42661  17.180   5.711   2.561  0.3178  0.1090 -0.0935
99745W        W42662  16.082   5.988   4.885  0.0514  0.1702 -0.3159
99746W        W42663  19.476   7.581   5.891  0.1375  0.3247  0.0084
99747W        W42664  14.896   4.807   3.971 -0.1017  0.2600 -0.0264
99748W        W42665  16.244   6.454   3.525 -0.2283  0.1942  0.1404
99749W        W42666  16.966   3.812   5.144 -0.2201 -0.0922  0.2926
99750W        W42667  16.830   5.228   4.193 -0.2024 -0.1006  0.0332
99751W        W42668  17.105   6.898   3.977 -0.0555  0.0542  0.1077
99752W        W42669  16.717   6.230   4.387 -0.2454 -0.2381 -0.1215
99753W        W42670  15.639   5.236   6.008 -0.3014 -0.0186  0.0329
99754W        W42671  18.372   7.489   4.533 -0.1763 -0.3716 -0.1768
99755W        W42672  21.114   5.921   7.172  0.2427 -0.0353 -0.0054
99756W        W42673  15.281   4.511   3.854 -0.1394  0.1821 -0.0805
99757W        W42674  15.955   5.551   4.598 -0.2804 -0.0870 -0.0744
99758W        W42675  14.336   7.654   4.844  0.0260 -0.0142 -0.0386
99759W        W42676  17.661   4.851   4.618 -0.2255 -0.0631  0.2810
99760W        W42677  14.902   5.141   6.154 -0.1292  0.1903 -0.2233
99761W        W42678  14.939   8.231   3.616  0.1170 -0.2095  0.1833
99762W        W42679  17.059   1.480   4.909 -0.1615 -0.0953  0.0877
99763W        W42680  17.668   8.612   7.523 -0.1167 -0.2418 -0.1364
99764W        W42681  16.922   7.668   8.064  0.1495 -0.5559  0.0076
99765W        W42682  15.430   6.375   3.555  0.2388  0.3503  0.0801
99766W        W42683  14.986   5.042   4.861  0.0877  0.0573 -0.2187
99767W        W42684  16.520   8.816   4.571 -0.1695  0.0454  0.0358
99768W        W42685  16.001   8.972   5.654 -0.0667  0.2788  0.1252
99769W        W42686  16.679   6.367   4.920 -0.1817 -0.3759 -0.0788
99770W        W42687  16.824   5.201   4.698  0.1189  0.0684  0.1219
99771W        W42688  18.971   6.666   4.828 -0.0527 -0.1808  0.0784
99772W        W42689  17.821   5.294   5.796  0.0554  0.1715  0.0195
99773W        W42690  19.450   5.158   5.001 -0.1326  0.0940  0.0972
99774W        W42691  17.818   3.418   5.200  0.0781  0.1843  0.0628
99775W        W42692  16.190   5.106   5.386  0.1183 -0.0552  0.1201
99776W        W42693  14.242   4.373   3.793  0.1038  0.1881  0.1247
99777W        W42694  16.514   8.410   4.912  0.1464  0.1564 -0.2641
99778W        W42695  14.580   2.988   7.849  0.2377  0.2968  0.4257
99779W        W42696  14.716   2.510   7.453 -0.0156 -0.0066  0.0707
99780W        W42697  15.067   4.599   5.532 -0.4507  0.1442 -0.1090
99781W        W42698  11.974   5.913   7.147 -0.2219  0.2693 -0.0034
99782W        W42699  15.675   4.443   2.148 -0.2439  0.1034 -0.1308
99783W        W42700  16.756   6.798   3.522  0.2751  0.0280 -0.2465
99784W        W42701  13.470   2.960   7.165 -0.1322  0.0667  0.0398
99785W        W42702  13.591   4.460   5.849  0.3011  0.3546 -0.1144
99786W        W42703  18.655   8.935   3.879 -0.1389  0.1279 -0.1375
99787W        W42704  18.220   5.138   4.100  0.0659 -0.1352  0.1527
99788W        W42705  15.007   3.893   3.794 -0.2782  0.0225 -0.1390
99789W        W42706  19.432   6.244   5.548 -0.2400 -0.0956 -0.0873
99790W        W42707  13.813   6.351   2.899  0.1429  0.2349 -0.0634
99791W        W42708  15.995   4.955   5.942 -0.1877 -0.1200  0.1494
99792W        W42709  15.912   3.122   6.328  0.1803  0.1367 -0.1909
99793W        W42710  17.223   2.655   2.547  0.0812 -0.1584  0.0262
99794W        W42711  15.723   4.503   5.113  0.0148  0.3983 -0.1731
99795W        W42712  16.426   6.789   1.749  0.0800  0.2386 -0.1104
99796W        W42713  18.500   4.896   1.621 -0.0763 -0.3120  0.0145
99797W        W42714  15.906   6.101   6.008 -0.1744  0.3427  0.0053
99798W        W42715  15.431   8.839   6.711  0.1555  0.0474 -0.1254
99799W        W42716  15.840   4.378   6.569 -0.0610  0.4246  0.4412
99800W        W42717  17.962   8.012   4.851  0.2060 -0.4085 -0.0630
99801W        W42718  16.371   8.069   8.465  0.0148  0.1144  0.0742
99802W        W42719  18.397   6.643   3.985  0.0680 -0.0070 -0.0371
99803W        W42720  16.823   5.695   4.426 -0.0644  0.2976 -0.1575
99804W        W42721  17.364   7.912   3.908  0.4388 -0.1456  0.0034
99805W        W42722  13.671   5.893   5.888 -0.1855 -0.0674  0.1396
99806W        W42723  16.536   5.481   6.185  0.0605  0.2350  0.0880
99807W        W42724  16.758   4.655   4.854  0.0496  0.3178 -0.0722
99808W        W42725  17.442   3.517   5.485  0.1821 -0.1054  0.0877
99809W        W42726  14.906   4.441   4.294 -0.0661  0.1125  0.2791
99810W        W42727  17.045   7.432   2.719 -0.3015  0.0370  0.1628
99811W        W42728  14.009   4.868   5.052  0.4556 -0.2550 -0.2180
99812W        W42729  15.982   4.193   3.005  0.4595 -0.1576 -0.0389
99813W        W42730  15.368   4.050   5.978  0.1851 -0.3748 -0.1952
99814W        W42731  15.883   5.176   3.359 -0.1466  0.1101 -0.2602
99815W        W42732  16.007   4.288   7.543 -0.1538 -0.0274 -0.0373
99816W        W42733  16.276   5.439   2.186 -0.0704 -0.0194  0.1539
99817W        W42734  19.207   7.163   4.600 -0.0975 -0.2454  0.1011
99818W        W42735  16.658   7.732   5.170 -0.1044 -0.0732  0.1845
99819W        W42736  20.910   6.446   6.965 -0.2140  0.1515  0.0419
99820W        W42737  16.131   8.037   5.848 -0.1120  0.2599  0.0432
99821W        W42738  17.696   6.829   4.539 -0.0976  0.0588  0.0892
99822W        W42739  13.591   4.034   6.190  0.0035 -0.3583  0.0448
99823W        W42740  14.665   5.082   4.520 -0.0253  0.3334  0.0314
99824W        W42741  17.028   4.751   2.947  0.1541 -0.3663 -0.1856
99825W        W42742  15.811   3.627   6.558 -0.1610  0.2320 -0.0344
99826W        W42743  13.818   4.827   6.966  0.1057  0.3173 -0.0389
99827W        W42744  14.837   6.374   5.814  0.3573 -0.0282 -0.0331
99828W        W42745  16.552   6.537   6.436  0.1037  0.1320  0.3066
99829W        W42746  17.064   5.595   5.736  0.2531  0.0399  0.1488
99830W        W42747  17.544   7.282   8.543 -0.2130  0.0819 -0.0209
99831W        W42748  16.326   4.871   8.057  0.1713  0.1181  0.2160
99832W        W42749  16.950   4.210   6.618 -0.2330  0.2279  0.0665
99833W        W42750  18.182   5.466   6.569 -0.1275  0.1913  0.0550
99834W        W42751  14.959   4.899   7.495 -0.0036  0.2370 -0.1230
99835W        W42752  17.968   7.791   7.852 -0.1964  0.2833  0.1696
99836W        W42753  15.563   5.746   8.513 -0.0739  0.2073 -0.0030
99837W        W42754  17.468   5.537   8.394 -0.0201  0.0591  0.2784
99838W        W42755  16.722   6.372   7.362  0.0548 -0.0228  0.0849
99839W        W42756  18.683   3.908   9.866 -0.2412  0.2717  0.0076
99840W        W42757  14.422   4.045   8.280  0.3030  0.1338  0.0346
99841W        W42758  15.545   4.834   9.583  0.0362  0.1200  0.2374
99842W        W42759  18.626   3.803   8.640  0.0966  0.3604 -0.3262
99843W        W42760  14.748   4.418   7.251 -0.0062 -0.0483  0.0344
99844W        W42761  13.676  11.032  10.012  0.1804 -0.2391 -0.2697
99845W        W42762  17.182   5.276   8.054 -0.1078 -0.3945  0.0006
99846W        W42763  17.312   9.133   9.192 -0.1312 -0.0005  0.2150
99847W        W42764  17.498   4.372   8.432  0.0949  0.3367  0.0027
99848W        W42765  17.254   8.919   7.679 -0.2417 -0.3237 -0.1104
99849W        W42766  14.295   4.923   7.451 -0.4841  0.0773 -0.1785
99850W        W42767  13.623   5.211  10.032  0.4586  0.0222  0.1117
99851W        W42768  15.717   5.212   9.336 -0.0050  0.0495  0.0596
99852W        W42769  16.662   3.211   7.301 -0.0424 -0.1216  0.0135
99853W        W42770  17.003   7.370   8.510  0.2673  0.0807 -0.1777
99854W        W42771  14.720   7.755   9.706  0.0560 -0.2585 -0.0789
99855W        W42772  17.550   9.007   9.615  0.0297 -0.0752  0.1416
99856W        W42773  13.552   4.194   9.481 -0.0384  0.1065  0.0806
99857W        W42774  16.304   9.430   9.950 -0.0612 -0.1216  0.0903
99858W        W42775  16.830   6.660   8.288 -0.1742  0.0783  0.1469
99859W        W42776  17.981   6.288   7.341  0.0255  0.1174 -0.0007
99860W        W42777  15.594   5.693   7.548 -0.1628  0.3783  0.1095
99861W        W42778  14.951   3.419   9.340 -0.0326  0.2170 -0.0243
99862W        W42779  15.588   5.470   6.603  0.0225 -0.1417  0.0167
99863W        W42780  15.751   7.993   7.216 -0.2609  0.0967 -0.1327
99864W        W42781  15.162   5.453   8.626 -0.0555  0.0558  0.0000
99865W        W42782  13.708   7.624   9.914 -0.0306 -0.1653  0.2642
99866W        W42783  15.172   4.420   7.494  0.0408  0.1682  0.2174
99867W        W42784  18.848   5.855   6.496 -0.1831  0.0397 -0.2428
99868W        W42785  15.999   5.641   6.252  0.1447 -0.0296  0.0947
99869W        W42786  17.098   5.144   6.910  0.0381 -0.0666  0.1268
99870W        W42787  15.839   4.367   8.858  0.2683 -0.0820  0.1685
99871W        W42788  16.013   7.579   8.414  0.0988 -0.1208 -0.2034
99872W        W42789  12.625   4.812   8.060  0.0936  0.0677  0.1227
99873W        W42790  16.811   5.911   7.534 -0.1008  0.0738  0.0829
99874W        W42791  16.526   7.678   8.805  0.2857 -0.0091  0.0996
99875W        W42792  16.806   7.521   7.183  0.1619  0.1970  0.1411
99876W        W42793  13.945   5.502   7.705  0.0992  0.0927 -0.1765
99877W        W42794  17.105   7.083   7.018  0.0349  0.0628  0.2050
99878W        W42795  17.515   9.155   8.726  0.0065  0.0967  0.0315
99879W        W42796  17.153   7.259   6.405 -0.1758  0.0908 -0.0825
99880W        W42797  13.229   4.158   8.464  0.0982  0.0561 -0.0847
99881W        W42798  15.435   5.960   6.274  0.0853  0.3954 -0.1309
99882W        W42799  18.188   3.514   8.426  0.0117 -0.1275 -0.0992
99883W        W42800  16.219   6.233   8.173 -0.0167  0.1027 -0.1769
99884W        W42801  17.142   6.608   9.334 -0.1345  0.1083 -0.1681
99885W        W42802  16.060   5.478   5.814  0.0139 -0.0790 -0.1402
99886W        W42803  17.908   5.782   8.662 -0.0191  0.1662 -0.0593
99887W        W42804  18.227   3.953   7.713 -0.0791  0.0255  0.0615
99888W        W42805  17.098   4.066   5.526  0.2976 -0.1078  0.1049
99889W        W42806  14.474   3.726   9.141  0.0368 -0.2310  0.2684
99890W        W42807  16.351   7.665   8.081 -0.2565  0.3190 -0.1674
99891W        W42808  17.170   5.782   8.006  0.1436 -0.5260  0.0746
99892W        W42809  13.101   5.580   9.630 -0.0346 -0.1630 -0.2248
99893W        W42810  12.273   7.045   7.418 -0.0764 -0.0707  0.2790
99894W        W42811  17.647   3.236   9.238 -0.1190 -0.0675  0.0083
99895W        W42812  15.296   6.112   6.688  0.4803  0.1366 -0.0016
99896W        W42813  14.550   7.133   7.666 -0.2573 -0.1918  0.3062
99897W        W42814  14.831  10.733   9.146 -0.1138 -0.0889 -0.3365
99898W        W42815  18.005   5.624   8.037 -0.1618 -0.2263 -0.0413
99899W        W42816  16.493   8.559   8.783 -0.1164  0.2089 -0.5217
99900W        W42817  15.546   4.289   7.210 -0.1806  0.2279  0.1991
99901W        W42818  19.895   8.025   7.534 -0.3129 -0.2802  0.1920
99902W        W42819  20.468   5.353   7.755  0.0539 -0.0394  0.4825
99903W        W42820  16.332   5.568   5.300  0.1504 -0.0662 -0.4717
99904W        W42821  13.769   2.951  10.231 -0.3690  0.1930  0.0058
99905W        W42822  14.508   3.598   8.500 -0.1003  0.1285 -0.0016
99906W        W42823  15.426   3.246   9.429  0.1032  0.0885 -0.3195
99907W        W42824  16.537   4.198   5.604 -0.0061  0.1819  0.0519
99908W        W42825  17.584   5.447   7.758  0.1331 -0.1178  0.0338
99909W        W42826  15.104   6.775  10.092  0.0165 -0.0835  0.2152
99910W        W42827  13.967   7.658   9.037  0.1509  0.4383  0.0669
99911W        W42828  17.226   5.507   7.283 -0.0391 -0.0385  0.3433
99912W        W42829  19.733   7.028   8.789 -0.0445 -0.3208  0.0095
99913W        W42830  20.843   6.858   8.845 -0.0080 -0.0781  0.1898
99914W        W42831  15.241   5.328   9.719 -0.1867  0.1332 -0.0578
99915W        W42832  14.945   5.052   6.744 -0.1170  0.3153 -0.3873
99916W        W42833  15.786   5.226   7.403  0.0329 -0.2029  0.0116
99917W        W42834  17.002  10.128  10.023 -0.1712  0.0798  0.2166
99918W        W42835  15.275   4.908   5.930  0.0984  0.0348  0.1745
99919W        W42836  18.815   8.916   7.630  0.1318 -0.2060 -0.0749
99920W        W42837  16.784   8.257   7.554 -0.0224  0.0394  0.2429
99921W        W42838  20.439   8.033   9.200 -0.3338 -0.1855 -0.1552
99922W        W42839  16.655   5.370   8.138  0.0062 -0.1239 -0.1252
99923W        W42840  16.159   3.184   7.466  0.0273  0.0844 -0.1439
99924W        W42841  17.496   8.506   9.531 -0.0078 -0.1291  0.1164
99925W        W42842  15.223   6.052   8.072 -0.1431 -0.2027 -0.0620
99926W        W42843  13.457   6.464  10.166  0.2207 -0.2820 -0.1483
99927W        W42844  16.240   8.473   8.148  0.3807  0.0548 -0.0494
99928W        W42845  16.799   9.298  10.223 -0.0725 -0.1300 -0.1332
99929W        W42846  15.528   5.125   7.808  0.1193 -0.4012  0.0096
99930W        W42847  17.046   4.240   7.100 -0.0884 -0.1172  0.2108
99931W        W42848  17.366   6.011   8.564 -0.3143 -0.3396  0.0303
99932W        W42849  18.380   7.510   7.892  0.2723 -0.1399  0.0263
99933W        W42850  16.564   5.053   6.874 -0.0136 -0.2788 -0.0311
99934W        W42851  16.955   5.133   8.480  0.2718  0.1047  0.1487
99935W        W42852  17.275   6.194   7.414  0.1790 -0.4011 -0.0187
99936W        W42853  15.753   9.225   9.959 -0.1643 -0.2927 -0.0563
99937W        W42854  16.928   6.050   5.508 -0.0046  0.0587  0.1320
99938W        W42855  18.960   8.198   6.789 -0.2008  0.0995  0.0009
99939W        W42856  14.189   9.616   9.267  0.0539 -0.0540  0.0136
99940W        W42857  17.541   6.567   7.120 -0.0939 -0.1552 -0.0844
99941W        W42858  18.117   5.062   8.207 -0.0942  0.4248  0.4795
99942W        W42859  15.117   3.689   8.342  0.1657  0.0714 -0.3393
99943W        W42860  15.841   3.620   9.671 -0.2068 -0.0193  0.2317
99944W        W42861  14.678   6.095   8.789  0.1900 -0.1031 -0.0929
99945W        W42862  15.667   3.610   8.663  0.1432  0.0535  0.3324
99946W        W42863  17.147   4.685   8.172  0.2127  0.0992  0.0020
99947W        W42864  17.568   7.021   7.347  0.0324  0.2027 -0.1167
99948W        W42865  16.994   3.295   6.815  0.0756 -0.2854 -0.0508
99949W        W42866  13.317   3.775   7.590 -0.0031  0.1833 -0.1009
99950W        W42867  16.118   5.685   8.996 -0.0392  0.3104 -0.2653
99951W        W42868  14.002   5.332   9.583 -0.1532  0.0565  0.2575
99952W        W42869  16.734   7.288   9.272  0.1315 -0.0253 -0.2423
99953W        W42870  17.557   3.243   7.735  0.2631 -0.2421 -0.0259
99954W        W42871  17.712  10.768   9.763  0.1950 -0.0408  0.3888
99955W        W42872  17.078   6.845   7.902  0.1381  0.1183 -0.1248
99956W        W42873  15.704   2.549   9.954 -0.0740 -0.1047  0.1019
99957W        W42874  16.282   6.746   8.272  0.1969  0.1310 -0.0454
99958W        W42875  16.428   4.628   7.618 -0.1002  0.0177  0.2900
99959W        W42876  16.924   6.395   8.814 -0.1899  0.0424  0.0284
99960W        W42877  16.741   7.120   8.160  0.1559  0.2076  0.0291
99961W        W42878  17.509   4.860   8.887 -0.0109 -0.0863  0.0110
99962W        W42879  15.711   6.649   8.968 -0.4143 -0.0900 -0.0296
99963W        W42880  15.558   3.805   8.156 -0.2250  0.0832 -0.1846
99964W        W42881  15.172   4.708   7.070 -0.0314 -0.0547 -0.3727
99965W        W42882  15.792   4.063   8.522 -0.1645  0.2066 -0.4559
99966W        W42883  16.135   6.447   6.735  0.2094  0.0841  0.1457
99967W        W42884  14.210   6.925   9.772  0.2184  0.1253  0.0546
99968W        W42885  19.283   3.273   9.709 -0.0424 -0.1564 -0.1235
99969W        W42886  13.108   4.693   9.687  0.0893 -0.1798  0.2101
99970W        W42887  17.929   3.501   5.706  0.1369  0.3149 -0.0902
99971W        W42888  14.804   3.998   8.774 -0.2261  0.0976  0.0345
99972W        W42889  18.649   7.394   9.339 -0.0931 -0.0478 -0.3244
99973W        W42890  17.372   9.165  10.061  0.0648 -0.0236  0.1089
99974W        W42891  16.294  10.102   9.890 -0.0997  0.0359  0.1412
99975W        W42892  17.137   7.967   9.319  0.1000  0.2052 -0.0329
99976W        W42893  15.285   5.690   7.078  0.0369 -0.2621 -0.2471
99977W        W42894  15.549   6.193   8.737  0.0460 -0.1310  0.3118
99978W        W42895  17.499   8.126   7.660 -0.0655 -0.0968 -0.0421
99979W        W42896  15.713   7.614   9.264 -0.0804 -0.0724  0.2707
99980W        W42897  15.475   4.650   7.999  0.3108  0.0931 -0.0516
99981W        W42898  15.942   4.705   7.774  0.0139  0.1686  0.0560
99982W        W42899  17.329   4.256   7.967 -0.0597 -0.4127  0.1772
99983W        W42900  16.149   3.754   8.495 -0.1570  0.2041 -0.1582
99984W        W42901  17.864   4.570   7.112  0.0985  0.1353  0.4464
99985W        W42902  19.316   6.855   7.382  0.0875  0.1180 -0.2392
99986W        W42903  15.088   4.126   6.988 -0.0731 -0.1407 -0.6034
99987W        W42904  14.551   6.280   9.235 -0.2866  0.1711 -0.1113
99988W        W42905  17.039   4.000   7.517 -0.1520  0.1414  0.0841
99989W        W42906  17.143   8.988   8.237  0.4074 -0.0164 -0.1208
99990W        W42907  15.893   5.734   9.446 -0.2086 -0.1315  0.2582
99991W        W42908  15.072   7.047   7.568  0.1062 -0.0449 -0.3259
99992W        W42909  13.001   4.414  10.029 -0.2156  0.2828  0.0315
99993W        W42910  15.450   2.785   8.049 -0.2177 -0.1575  0.0612
99994W        W42911  15.104   6.270   9.062  0.2567 -0.0538  0.1119
99995W        W42912  16.002   2.183   9.899 -0.1265 -0.2553  0.2413
99996W        W42913  16.840   6.081   6.588  0.3278  0.0469 -0.0660
99997W        W42914  12.704   3.436   9.139  0.1669 -0.0686  0.2839
99998W        W42915  16.137   8.959   9.900  0.3710 -0.1856  0.0062
99999W        W42916  16.956   4.473   7.572  0.1715  0.1467 -0.1480
    0W        W42917  14.363   3.905   7.147  0.1251  0.2759 -0.1653
    1W        W42918  16.457   9.810  10.275 -0.1416 -0.0487 -0.0820
    2W        W42919  16.178   6.849   8.768 -0.5162  0.5290  0.0408
    3W        W42920  16.670   7.023   7.215  0.0806 -0.1216  0.0094
    4W        W42921  17.623   3.634   9.609  0.1739 -0.2887  0.1302
    5W        W42922  12.389   3.940  11.443 -0.3058 -0.3008  0.0716
    6W        W42923  17.195   4.298   8.992 -0.0146 -0.0212  0.0929
    7W        W42924  17.594   5.925   7.709 -0.3094 -0.1848  0.2755
    8W        W42925  14.633   4.554   9.622 -0.0281 -0.1349  0.1145
    9W        W42926  15.834   7.147   8.431  0.0351 -0.1552  0.0434
   10W        W42927  16.216   5.330   7.223  0.2640 -0.2075  0.1269
   11W        W42928  20.870  10.130   9.355  0.1387 -0.2752 -0.1017
   12W        W42929  18.467   5.883   7.420 -0.0621 -0.0190  0.1673
   13W        W42930  16.653   5.920   9.059  0.0494 -0.2698  0.0516
   14W        W42931  18.063   5.221   7.685 -0.1279  0.2181  0.0762
   15W        W42932  16.870   5.423   7.648  0.2081 -0.1468  0.0707
   16W        W42933  18.194   7.802   9.397 -0.3007  0.0018  0.1785
   17W        W42934  15.789   4.889   6.433  0.2494  0.1055 -0.2416
   18W        W42935  18.660   7.751   5.800  0.3596  0.1686  0.0662
   19W        W42936  16.004   5.977   8.621  0.2906 -0.0082 -0.0147
   20W        W42937  16.154   3.476   8.067 -0.0483  0.1743 -0.1536
   21W        W42938  15.211   2.639   8.568  0.1940  0.3807 -0.1044
   22W        W42939  14.310   5.326   6.177  0.2498 -0.0776  0.3245
   23W        W42940  15.818   4.972   8.170 -0.0211 -0.1557  0.3595
   24W        W42941  19.530   8.096   9.032  0.2728 -0.0576 -0.2241
   25W        W42942  16.299   4.315   7.969  0.0655  0.0531  0.2315
   26W        W42943  13.473   6.578   8.310 -0.0273 -0.0200 -0.2022
   27W        W42944  16.418   2.649   7.441 -0.1213 -0.0008  0.0937
   28W        W42945  15.086   7.722   8.437 -0.1407  0.0122  0.3674
   29W        W42946  17.102   7.856   7.586  0.0550  0.1703 -0.0783
   30W        W42947  18.368  11.282   9.010  0.3833  0.3551 -0.2919
   31W        W42948  16.449   8.067   7.237  0.1207  0.2468  0.0103
   32W        W42949  16.306   5.308   9.571  0.2022  0.2848  0.0311
   33W        W42950  14.962   5.204  10.156 -0.1001 -0.0998  0.2124
   34W        W42951  17.977   6.757   7.439  0.0685  0.1666 -0.1879
   35W        W42952  16.137   5.162   8.990  0.2203  0.3334 -0.0324
   36W        W42953  15.493   5.140   8.865 -0.2423  0.0140  0.2927
   37W        W42954  15.608   4.099   9.649  0.0020  0.2221 -0.0652
   38W        W42955  18.183   6.033   5.813  0.1497 -0.0655 -0.1259
   39W        W42956  13.735   5.305   9.163  0.1413 -0.1795 -0.1732
   40W        W42957  17.131   8.161   8.033 -0.0178  0.0125 -0.1708
   41W        W42958  16.512   5.862   5.863  0.0548 -0.1845  0.2192
   42W        W42959  15.542   5.263  10.328 -0.0175 -0.0835  0.4038
   43W        W42960  14.451  11.911  11.097 -0.1930 -0.3119 -0.2258
   44W        W42961  15.230   3.883   7.461  0.2449 -0.0565  0.2714
   45W        W42962  13.261   6.103   9.735  0.0197 -0.1469  0.0333
   46W        W42963  15.133   6.188  10.044 -0.0102  0.1501 -0.2666
   47W        W42964  19.781   7.514   7.248  0.0189 -0.2094 -0.1159
   48W        W42965  15.453   7.857   8.078  0.1597 -0.3128  0.0499
   49W        W42966  18.998   2.435   5.807  0.1443  0.0354  0.2255
   50W        W42967  17.211   8.775   8.679  0.3318  0.0775 -0.1625
   51W        W42968  17.827   4.219   7.859 -0.4460 -0.0575  0.1544
   52W        W42969  15.640   6.945   8.018 -0.2763  0.2921  0.3199
   53W        W42970  16.416   3.209   6.651 -0.3787  0.1264  0.0486
   54W        W42971  18.475   6.989   6.656 -0.0333 -0.1737 -0.1254
   55W        W42972  15.566   4.731   7.486 -0.4162  0.0252  0.0830
   56W        W42973  14.822   6.646   7.280 -0.3745  0.2736 -0.0246
   57W        W42974  17.888   4.489   8.988 -0.2537  0.3068  0.1744
   58W        W42975  16.334   7.287   7.595  0.2600  0.1851 -0.3241
   59W        W42976  17.755   6.552   9.658 -0.0120  0.3668 -0.1136
   60W        W42977  16.558   9.223   9.554 -0.1996  0.1529  0.2684
   61W        W42978  16.629  10.157   8.916 -0.1791 -0.0260 -0.0347
   62W        W42979  15.716   4.708   6.918 -0.2068  0.0446  0.0380
   63W        W42980  17.637   4.994   7.926 -0.3045  0.1905 -0.0109
   64W        W42981  15.348   3.561   9.035 -0.2408  0.0720 -0.0893
   65W        W42982  12.603   5.340   9.956  0.0501 -0.0776 -0.1038
   66W        W42983  15.846   4.410   8.173 -0.3419  0.2008 -0.0136
   67W        W42984  16.069   5.728   8.161  0.0470 -0.1845  0.2168
   68W        W42985  14.218   3.809   9.786  0.1373 -0.3302 -0.0926
   69W        W42986  15.784   3.520   7.684  0.0217 -0.2367  0.0312
   70W        W42987  16.281   4.302   8.446  0.1445  0.2719  0.2468
   71W        W42988  14.452   3.179   8.876  0.0387 -0.0208 -0.0892
   72W        W42989  17.082   3.447   7.730  0.0546  0.0193 -0.0342
   73W        W42990  15.836   6.425   9.357 -0.2260 -0.0429  0.0841
   74W        W42991  20.046   4.964   8.786 -0.0257  0.0597 -0.1013
   75W        W42992  16.809   2.778   7.055 -0.0155  0.1674  0.0613
   76W        W42993  18.520   5.879   5.165  0.0202  0.1460 -0.3709
   77W        W42994  16.425   6.359   8.641  0.4096 -0.2554 -0.0024
   78W        W42995  15.764   8.510   6.501 -0.2166 -0.1399 -0.0346
   79W        W42996  16.923   6.539   6.821 -0.0003  0.0278  0.0281
   80W        W42997  17.071   7.646   6.794 -0.0826 -0.1719 -0.0021
   81W        W42998  13.227   3.692  10.542  0.0965 -0.1360  0.1109
   82W        W42999  18.214   6.498   8.215  0.0389 -0.3050 -0.0844
   83W        W43000  19.036   7.121   7.783 -0.2787 -0.1356  0.3082
   84W        W43001  16.805   4.015   9.150  0.1044  0.2973  0.0868
   85W        W43002  15.447   5.606   8.041 -0.1491  0.1322  0.0503
   86W        W43003  15.425   8.059   6.549  0.1155 -0.1285 -0.0305
   87W        W43004  16.816   4.905   7.805 -0.1245  0.1627 -0.2770
   88W        W43005  16.227   6.271   5.663 -0.0148 -0.0317 -0.0776
   89W        W43006  16.812   5.013   7.303 -0.1073  0.0932 -0.1481
   90W        W43007  13.732   5.168   5.364  0.0532  0.4384  0.0859
   91W        W43008  15.922   6.512   7.930  0.0824 -0.1763 -0.0382
   92W        W43009  16.761   8.862   8.522  0.1172 -0.0977  0.2507
   93W        W43010  16.753   8.755   7.403 -0.0963  0.1921 -0.0770
   94W        W43011  16.424   4.162   9.806  0.0898 -0.1211 -0.2037
   95W        W43012  17.395   7.839   6.365 -0.1293 -0.0579 -0.1007
   96W        W43013  16.999   5.691   8.493  0.1837  0.1441 -0.2027
   97W        W43014  19.024   5.083   8.921 -0.0657  0.2160  0.0281
   98W        W43015  16.414   2.939   8.307 -0.0786  0.2990  0.1589
   99W        W43016  16.996   7.615   8.974  0.2551  0.2247 -0.2949
  100W        W43017  15.903   5.029   4.927 -0.1689  0.2793 -0.1667
  101W        W43018  14.308   4.189   6.766  0.2552 -0.2103  0.1839
  102W        W43019  13.333  10.759  10.292  0.1590  0.1265 -0.1418
  103W        W43020  15.530   6.871   9.491  0.0184  0.1457 -0.0767
  104W        W43021  13.776   6.741   9.311 -0.3122 -0.1028 -0.2107
  105W        W43022  17.115   6.579   6.351 -0.4049 -0.2663  0.3342
  106W        W43023  15.764   4.768   9.146  0.1192 -0.0696 -0.0163
  107W        W43024  14.199   4.074   8.898  0.2189 -0.1953  0.4526
  108W        W43025  18.135   8.835   9.356 -0.0747  0.2672  0.2032
  109W        W43026  18.122   7.365   6.575 -0.3329 -0.1442 -0.2703
  110W        W43027  15.220   2.095   7.392 -0.3233 -0.1386 -0.0780
  111W        W43028  12.894   6.054   8.280 -0.1821  0.1258  0.3764
  112W        W43029  14.431   4.781   6.057  0.0353 -0.4130  0.1069
  113W        W43030  16.520   4.146   7.549  0.0340  0.4221  0.0494
  114W        W43031  16.037   5.360   7.815  0.1332  0.1214  0.1340
  115W        W43032  16.448   6.604   5.966  0.3734 -0.0935  0.0501
  116W        W43033  14.833   2.850   9.776 -0.1006  0.0207 -0.0443
  117W        W43034  16.809   6.178   8.420 -0.2952 -0.1290  0.2912
  118W        W43035  18.636   6.349   7.303 -0.0597  0.0580 -0.0652
  119W        W43036  16.014   6.915   9.293 -0.1004  0.1098 -0.2625
  120W        W43037  17.825   7.759   7.344  0.1350  0.2397  0.1624
  121W        W43038  18.545   7.111   7.562  0.1331 -0.1319 -0.0996
  122W        W43039  14.909   3.430   8.768  0.2897 -0.0203 -0.2030
  123W        W43040  16.445   5.141   7.593 -0.0818  0.2135  0.3038
  124W        W43041  16.367   5.933   6.504 -0.1835  0.1550 -0.0015
  125W        W43042  14.412   5.645   7.955 -0.0848 -0.0679  0.0332
  126W        W43043  17.037   4.658   6.801 -0.0371  0.1587  0.1368
  127W        W43044  17.266   6.204   6.803  0.1869 -0.0579  0.0194
  128W        W43045  17.301   6.049   6.357  0.1287 -0.1488  0.3944
  129W        W43046  19.492   5.207   6.554  0.3335 -0.1760 -0.1459
  130W        W43047  16.813   9.340   9.149 -0.0018 -0.1311 -0.0560
  131W        W43048  20.755   9.192   9.161  0.0978  0.1272  0.0062
  132W        W43049  15.406   7.245   9.208  0.0441  0.2050  0.0698
  133W        W43050  17.017   4.856   9.620  0.1722 -0.0554  0.1419
  134W        W43051  14.721   6.598   8.797  0.1663  0.0516 -0.1832
  135W        W43052  16.112   4.335   7.057  0.0353 -0.1682  0.1228
  136W        W43053  17.324   8.407   9.096 -0.0830 -0.3656 -0.0249
  137W        W43054  15.359   4.889  10.007 -0.2614 -0.2480 -0.1460
  138W        W43055  16.151   4.757   6.754  0.1422  0.3207  0.1359
  139W        W43056  18.242   7.889  11.988  0.1847  0.1564  0.0092
  140W        W43057  18.426   7.991   7.667  0.1169 -0.2106 -0.1002
  141W        W43058  15.479   9.945   2.070  0.1636  0.1002  0.2199
  142W        W43059  14.733   9.791   3.093 -0.2018 -0.0005  0.1877
  143W        W43060  18.771   8.123   1.317  0.0861  0.1155  0.1266
  144W        W43061  16.611   7.932   0.964  0.1094 -0.0308  0.1547
  145W        W43062  15.140   7.996   2.195  0.1802 -0.2938 -0.2869
  146W        W43063  17.462  11.464  31.392  0.0505  0.0893 -0.0248
  147W        W43064  15.711   5.272   2.177  0.0323  0.1132  0.3026
  148W        W43065  15.791  10.804   2.132 -0.4861 -0.0096 -0.2300
  149W        W43066  16.692  12.896   1.105 -0.0203  0.1120 -0.0903
  150W        W43067  16.382   9.038  31.157 -0.1937 -0.1733  0.0476
  151W        W43068  15.112  10.795   3.512 -0.1022 -0.1092 -0.0785
  152W        W43069  16.024   9.836   1.839 -0.0397  0.0336  0.1362
  153W        W43070  15.296   6.525   2.208 -0.1545  0.0638 -0.3018
  154W        W43071  13.677   6.758   2.200  0.0509 -0.0985 -0.1704
  155W        W43072  16.421   8.136   2.081 -0.1306  0.3050  0.0473
  156W        W43073  13.820  10.025   1.791  0.3394 -0.0094 -0.0471
  157W        W43074  13.436   9.367   3.455 -0.0609  0.0344 -0.3876
  158W        W43075  18.325   9.367   1.781  0.0817  0.2047 -0.0082
  159W        W43076  16.749  10.558   0.144 -0.1470  0.0281  0.2406
  160W        W43077  14.721   8.329   5.245  0.1174 -0.0050  0.2565
  161W        W43078  16.677   7.772   2.718 -0.0690  0.1877 -0.0674
  162W        W43079  16.830  11.945   0.849 -0.1912  0.2601 -0.1748
  163W        W43080  15.508   9.559  31.358 -0.0022  0.1867 -0.2861
  164W        W43081  13.294   8.578   4.156 -0.3192  0.0778  0.1172
  165W        W43082  14.121  11.476   4.189  0.0817 -0.0678 -0.0956
  166W        W43083  18.930  10.590   2.775 -0.0814 -0.1352 -0.1650
  167W        W43084  17.584   8.086   0.800  0.1556  0.0171 -0.0744
  168W        W43085  17.203  11.197   0.867 -0.0487 -0.0059  0.0858
  169W        W43086  15.809  12.002   1.219 -0.2429  0.2880  0.0803
  170W        W43087  15.739   7.157   2.966  0.0894  0.2125  0.0069
  171W        W43088  15.996  10.011   0.300 -0.1008  0.2024 -0.0402
  172W        W43089  13.636  11.622   1.531 -0.0237  0.2991  0.1167
  173W        W43090  16.273  11.292   0.601 -0.0273 -0.1544 -0.0755
  174W        W43091  18.942  10.974   3.141  0.0424 -0.0504  0.3234
  175W        W43092  16.584  11.973   1.861  0.1123  0.2547  0.2462
  176W        W43093  14.902  12.517   1.114 -0.2998  0.1364  0.3028
  177W        W43094  15.530  10.964   1.654 -0.0940 -0.0364  0.0334
  178W        W43095  16.315  10.999   3.996  0.0449 -0.0665  0.2951
  179W        W43096  14.477  11.251   2.266 -0.1044  0.0551 -0.2713
  180W        W43097  16.228   8.612   2.805 -0.2561 -0.2148 -0.3277
  181W        W43098  16.195  10.727   1.828  0.2637  0.2968 -0.0506
  182W        W43099  16.047  11.255  30.827  0.0704  0.1194  0.2203
  183W        W43100  17.835   9.322   1.254 -0.0110  0.2504 -0.2820
  184W        W43101  14.767   9.749   2.462  0.3301 -0.0795  0.2668
  185W        W43102  15.237   9.603   2.536 -0.0747  0.1559  0.1118
  186W        W43103  18.157   9.618   3.336 -0.1466 -0.0975 -0.2800
  187W        W43104  15.751   9.660   0.997  0.1867 -0.0147  0.4120
  188W        W43105  17.214   7.020   1.681  0.2387 -0.1611 -0.3275
  189W        W43106  15.550   8.004   1.811 -0.1085 -0.2667 -0.2091
  190W        W43107  18.682   7.107  30.893  0.2984 -0.1551  0.0037
  191W        W43108  16.336   7.311   1.762  0.0061  0.0446 -0.1108
  192W        W43109  15.195  11.964   3.478  0.0233 -0.2775 -0.0307
  193W        W43110  13.359   7.894   2.503  0.0641 -0.0664 -0.1288
  194W        W43111  17.156  10.473   1.969  0.0968 -0.2513 -0.0028
  195W        W43112  15.174   8.407   1.753 -0.1716 -0.0598  0.0584
  196W        W43113  16.303   9.693   3.291 -0.1518  0.2238 -0.1046
  197W        W43114  15.415  10.381   1.909  0.0090  0.0706 -0.0754
  198W        W43115  15.044   8.635   2.845 -0.2100 -0.1357  0.1038
  199W        W43116  15.941   8.895   1.934  0.2894 -0.0283 -0.1101
  200W        W43117  17.503  12.635   2.379 -0.2883  0.1279 -0.3696
  201W        W43118  16.502   9.890   1.458  0.2458 -0.1384  0.1329
  202W        W43119  14.731   7.071   0.087  0.1874 -0.4181 -0.0732
  203W        W43120  11.713   9.848   1.137 -0.0335  0.1435  0.1087
  204W        W43121  14.114   8.352   5.233 -0.0472  0.1517 -0.0516
  205W        W43122  15.618   7.619   0.204  0.1082  0.2548  0.1566
  206W        W43123  17.541   8.586   0.110  0.0449  0.0325 -0.0580
  207W        W43124  14.096  10.559   3.581 -0.2331 -0.0617  0.0129
  208W        W43125  17.819   6.838   1.672  0.1699 -0.1680 -0.3942
  209W        W43126  14.238   9.735   2.684 -0.1746 -0.0407  0.2434
  210W        W43127  17.701  11.566   0.658 -0.3255 -0.0355  0.3616
  211W        W43128  15.813   8.153  31.289 -0.0536  0.0369 -0.0045
  212W        W43129  19.589   9.580   2.166  0.4020  0.0281 -0.0919
  213W        W43130  16.802   8.050   3.165 -0.0061 -0.0379 -0.0747
  214W        W43131  17.187   9.112  30.963  0.2049 -0.3192  0.2156
  215W        W43132  17.515   8.564   0.738  0.0215  0.0279 -0.4654
  216W        W43133  17.391  11.077   4.196  0.1706  0.1850 -0.3783
  217W        W43134  14.559   8.899   1.948  0.0552  0.2643  0.3407
  218W        W43135  14.109   9.161   2.039 -0.0021  0.0360  0.0436
  219W        W43136  15.915   9.278   3.633 -0.0022 -0.0078  0.1975
  220W        W43137  15.059  10.134   2.453 -0.1814  0.0987  0.0136
  221W        W43138  14.100  11.390   1.379  0.1909  0.1542  0.3002
  222W        W43139  14.193   9.710   1.843 -0.1128  0.5271  0.0485
  223W        W43140  15.567   9.462   3.301 -0.1895 -0.2015 -0.0274
  224W        W43141  14.015   6.736   2.618  0.1798  0.0835  0.1517
  225W        W43142  14.959  10.039   3.666 -0.1369  0.0526 -0.3169
  226W        W43143  16.584   8.474   1.112 -0.1035 -0.3181  0.0775
  227W        W43144  13.925   8.838   4.791 -0.0604  0.2855  0.0266
  228W        W43145  17.249   9.107   3.285 -0.0092 -0.2181 -0.0271
  229W        W43146  14.051   8.850   1.286  0.4139  0.2183 -0.0609
  230W        W43147  19.061  11.912  30.466  0.1669  0.1881 -0.0588
  231W        W43148  18.683   9.264   0.920  0.1736 -0.1251  0.1897
  232W        W43149  17.639   7.563   0.406  0.0729  0.0850 -0.2756
  233W        W43150  14.540   8.719   4.870 -0.0772  0.1041  0.2397
  234W        W43151  15.320   9.960   2.934 -0.2048 -0.1806 -0.0936
  235W        W43152  13.545   8.476   3.779 -0.0979  0.1200 -0.1399
  236W        W43153  14.597   7.791   2.851 -0.3249 -0.1389  0.2713
  237W        W43154  16.426   9.223   4.877  0.0867 -0.0443 -0.2096
  238W        W43155  15.835   7.462   0.605 -0.3044 -0.0517 -0.0420
  239W        W43156  17.973   7.653   2.071 -0.1043 -0.0932  0.1176
  240W        W43157  16.058   7.162   0.967  0.2149 -0.0384 -0.1207
  241W        W43158  15.585   8.525   1.508 -0.0438  0.0754  0.3468
  242W        W43159  16.629   9.252   4.377  0.4967  0.2463 -0.0173
  243W        W43160  16.710  10.176   2.571  0.0752 -0.1109 -0.2841
  244W        W43161  18.175  11.425   1.925  0.0438 -0.1481  0.0975
  245W        W43162  17.800  11.887   1.873 -0.0377  0.2674 -0.0865
  246W        W43163  15.289   6.248   2.991 -0.2133  0.0114 -0.0123
  247W        W43164  15.761   8.555   1.022 -0.1445 -0.5413 -0.4976
  248W        W43165  15.006  10.861   1.698 -0.0028 -0.2034 -0.2038
  249W        W43166  16.907   9.669   2.565  0.2670 -0.1789  0.2359
  250W        W43167  16.803   6.048   0.874  0.0677 -0.1234 -0.3738
  251W        W43168  16.999  11.782   1.631  0.2284 -0.0257  0.1845
  252W        W43169  15.000   8.874   1.598 -0.0077  0.2858  0.0455
  253W        W43170  15.512  11.261   2.097  0.1218 -0.0074  0.2213
  254W        W43171  16.091   7.552   3.194  0.1575 -0.1117 -0.2086
  255W        W43172  17.027  10.266   0.835 -0.2012 -0.3170  0.0133
  256W        W43173  17.714   9.143   0.256 -0.0908  0.0098  0.2488
  257W        W43174  15.421   7.565   2.097  0.1674  0.0059 -0.4395
  258W        W43175  16.846  10.754   0.982  0.0993 -0.0760 -0.0067
  259W        W43176  14.880  10.039   0.957 -0.1189 -0.2422 -0.0670
  260W        W43177  15.191   9.057   0.651 -0.0266  0.0773 -0.2222
  261W        W43178  15.444   9.969  31.770  0.6374  0.4173  0.0615
  262W        W43179  18.003  10.290   1.863 -0.0784  0.3435 -0.0509
  263W        W43180  14.585   9.928   2.029  0.1810  0.1082  0.2442
  264W        W43181  14.405   7.375   3.838  0.0281  0.2379 -0.1097
  265W        W43182  15.141   9.991   1.587  0.4171 -0.1411  0.0365
  266W        W43183  14.485  11.184   4.391 -0.3249  0.2422  0.2401
  267W        W43184  16.533   4.830   1.658 -0.0179  0.0194 -0.1570
  268W        W43185  18.641   8.694   1.453  0.0894 -0.0515  0.1087
  269W        W43186  13.854  11.377   3.725  0.0376  0.1336 -0.2093
  270W        W43187  17.043   9.905   1.304  0.0085 -0.1229  0.0806
  271W        W43188  16.032   7.822  31.827  0.2405 -0.2070 -0.1191
  272W        W43189  15.584   6.684   1.810 -0.4322  0.0779  0.1179
  273W        W43190  14.128   7.942   4.450  0.1906 -0.0316 -0.1699
  274W        W43191  15.960  10.350   2.170  0.2429 -0.1775  0.0162
  275W        W43192  15.875   8.146   1.320 -0.1153 -0.2545  0.2768
  276W        W43193  15.320   7.358   0.650 -0.1512  0.0943 -0.0932
  277W        W43194  18.231   8.513  31.604 -0.1493 -0.0041 -0.0177
  278W        W43195  13.350   8.993   3.784 -0.0701  0.0276  0.0940
  279W        W43196  14.083   8.555   3.556 -0.1940 -0.0987  0.0479
  280W        W43197  15.910  11.285   1.806  0.1084  0.2327 -0.1801
  281W        W43198  14.384   9.388   3.217 -0.1809  0.1248  0.0001
  282W        W43199  16.073   9.042  30.360  0.1066  0.2194 -0.0481
  283W        W43200  15.925   8.528   2.371 -0.0230  0.2600  0.1241
  284W        W43201  14.413  12.086   2.086 -0.0123 -0.0396 -0.4405
  285W        W43202  15.631   7.563   3.487 -0.0596  0.2407  0.2148
  286W        W43203  17.756   9.294   3.287  0.1140  0.1788  0.1687
  287W        W43204  16.194   8.783   3.565  0.0675  0.1354  0.1814
  288W        W43205  18.572   9.462   3.006  0.0586  0.2297 -0.2505
  289W        W43206  18.568   9.040  31.641  0.0264  0.0156  0.2969
  290W        W43207  15.990   9.381   2.089 -0.1125  0.1510 -0.2333
  291W        W43208  16.253   9.769  31.898 -0.2437 -0.0629 -0.1089
  292W        W43209  14.233   9.034   3.499  0.0307  0.0194  0.1249
  293W        W43210  15.560   8.871   2.418  0.3163 -0.0887 -0.2111
  294W        W43211  16.532  10.525   3.998 -0.0267  0.1781  0.4767
  295W        W43212  17.276   9.472   2.851 -0.2420 -0.1742 -0.0700
  296W        W43213  17.808  10.785  31.212  0.3567  0.0016 -0.0500
  297W        W43214  15.360   7.000   3.567  0.1138 -0.0813  0.0756
  298W        W43215  15.520   7.242   1.657 -0.1767  0.2974  0.2716
  299W        W43216  14.613  11.781  31.083  0.1584 -0.0453  0.1749
  300W        W43217  17.885   8.000   0.340  0.2797 -0.1139 -0.1188
  301W        W43218  14.598   7.909   1.178 -0.2193  0.1003 -0.0251
  302W        W43219  16.326  10.982   2.213  0.2445  0.2733 -0.0097
  303W        W43220  16.003   9.271  31.501 -0.2453 -0.0463 -0.0578
  304W        W43221  16.598  10.787   2.573 -0.2731  0.0094  0.3160
  305W        W43222  14.670  10.438   0.568 -0.0338  0.1349 -0.0610
  306W        W43223  16.123   6.376   2.017  0.1848 -0.0528  0.1791
  307W        W43224  12.490   9.496   1.615  0.0745 -0.0153 -0.2023
  308W        W43225  14.576   8.565   3.292 -0.4218  0.2203 -0.4302
  309W        W43226  14.850   6.935  28.680 -0.0231 -0.2677  0.4803
  310W        W43227  17.420   6.799   0.807  0.0833 -0.0472 -0.0798
  311W        W43228  17.453   9.185   1.646 -0.0482  0.2062  0.0824
  312W        W43229  15.458   6.873   2.571 -0.0623  0.1345 -0.0875
  313W        W43230  15.544   7.244   1.064  0.0007  0.0612  0.0161
  314W        W43231  14.369  11.539   1.802  0.0636 -0.2559  0.2327
  315W        W43232  16.834   8.377   2.766  0.0538  0.2879  0.2143
  316W        W43233  18.236   7.747   1.263  0.0094 -0.1586 -0.0503
  317W        W43234  17.308   9.652   1.967  0.0248 -0.1401 -0.0155
  318W        W43235  14.359  10.640   2.064 -0.2466 -0.5603 -0.0957
  319W        W43236  16.903   8.113   1.808 -0.2547  0.0774 -0.2175
  320W        W43237  16.524   8.338   3.654 -0.1564 -0.3348 -0.0629
  321W        W43238  14.435   9.269   3.877  0.1023  0.0317 -0.0844
  322W        W43239  15.278   9.643   1.192  0.1262 -0.1010 -0.2833
  323W        W43240  18.061  11.081   1.449  0.0768  0.2847  0.3357
  324W        W43241  13.623   9.131   2.304 -0.0678  0.1599  0.3862
  325W        W43242  14.370   9.244   1.013  0.3139 -0.0274  0.3388
  326W        W43243  14.965   9.529   3.900 -0.3164 -0.0378  0.1527
  327W        W43244  15.232  10.071   4.945  0.1346 -0.0048  0.1297
  328W        W43245  13.537   9.077   2.825  0.2979 -0.0396  0.0794
  329W        W43246  14.450   7.208   2.993  0.0071  0.0093  0.3033
  330W        W43247  14.632   9.324   2.807 -0.2317 -0.0230 -0.0074
  331W        W43248  16.067   9.115   2.585 -0.0518  0.1186  0.1447
  332W        W43249  15.265   6.802   3.006  0.2793  0.3402  0.0971
  333W        W43250  14.473  11.184   1.169 -0.0808  0.1721  0.0267
  334W        W43251  18.836   6.703   2.165  0.1969  0.0628 -0.1982
  335W        W43252  18.382  10.614   1.210  0.0808 -0.1106  0.0290
  336W        W43253  15.692  10.840   2.645  0.0904 -0.0285  0.3407
  337W        W43254  15.126   8.328  31.755  0.2273 -0.0477 -0.1280
  338W        W43255  13.070   9.656   3.825  0.0981 -0.1161  0.0960
  339W        W43256  15.850  10.163   2.720  0.3398  0.0805 -0.0508
  340W        W43257  14.689   7.951   0.653  0.1165  0.2004 -0.0270
  341W        W43258  13.999  11.219   1.838 -0.0665 -0.0588  0.0595
  342W        W43259  16.824   8.838   0.892  0.0733 -0.0138 -0.1621
  343W        W43260  15.496  10.476   2.946  0.3548  0.0236  0.1085
  344W        W43261  17.181   9.676   3.310  0.2386  0.0590  0.0006
  345W        W43262  16.968   8.954  29.771  0.3214 -0.1295 -0.2949
  346W        W43263  15.839   7.748   3.957 -0.0849  0.2392  0.2440
  347W        W43264  17.276   5.719   0.491 -0.1491 -0.0894 -0.1705
  348W        W43265  18.024   7.816  30.790  0.0719 -0.3484 -0.0807
  349W        W43266  17.946   8.815   2.793  0.3281  0.3452  0.0908
  350W        W43267  16.911   7.737   1.394  0.0444 -0.0719 -0.0614
  351W        W43268  16.028   9.406   1.469 -0.1891 -0.4810 -0.1096
  352W        W43269  12.970   8.262   2.722 -0.3651  0.1112  0.2682
  353W        W43270  14.775  11.974   3.882 -0.1049 -0.0265 -0.1870
  354W        W43271  15.833   8.971   1.336  0.0859 -0.0209 -0.1313
  355W        W43272  17.258   7.247   0.569  0.1703  0.2373  0.1356
  356W        W43273  14.716   7.889   1.990  0.1992  0.0917  0.1214
  357W        W43274  13.937   9.835   4.759  0.0923  0.1521 -0.2864
  358W        W43275  16.864  10.918   1.977 -0.3102 -0.1108  0.0898
  359W        W43276  16.379   9.023   1.195 -0.0248 -0.1010 -0.0157
  360W        W43277  19.679   9.332   1.280 -0.1616  0.0433  0.1874
  361W        W43278  14.804  10.704   3.039 -0.0031  0.0842  0.1577
  362W        W43279  17.821   9.359  31.309 -0.2498 -0.1412  0.3548
  363W        W43280  16.264   8.672  30.812  0.0672 -0.2077  0.2645
  364W        W43281  16.031  11.720   1.720  0.1700 -0.2047  0.1104
  365W        W43282  17.114   9.382   4.264  0.0439 -0.0348  0.1384
  366W        W43283  17.702  11.100   2.358  0.1196 -0.0196  0.2762
  367W        W43284  17.406   8.308   2.930  0.0571 -0.1762  0.3736
  368W        W43285  16.614   7.727   1.781  0.0774 -0.1008  0.1116
  369W        W43286  15.515   7.900   2.577  0.0637 -0.2531 -0.0645
  370W        W43287  15.554   8.500   2.015  0.1996 -0.2351  0.0480
  371W        W43288  12.904   9.709   4.812  0.0181 -0.1779  0.1370
  372W        W43289  17.276  11.453   1.995  0.0689 -0.1590 -0.1183
  373W        W43290  16.809   8.988   1.428 -0.0098 -0.2038  0.1359
  374W        W43291  16.732   7.502   2.273  0.1476  0.0288 -0.2219
  375W        W43292  17.919   8.241   2.926  0.0585  0.0479  0.0567
  376W        W43293  13.114   8.161   0.540 -0.0262  0.2759 -0.0472
  377W        W43294  13.854   9.208   3.735  0.0247  0.2258  0.1395
  378W        W43295  15.315   9.356   4.306 -0.1476  0.0266 -0.0127
  379W        W43296  15.575   9.701  30.873 -0.1085 -0.2165  0.1983
  380W        W43297  17.300   8.300   2.044  0.0325  0.0296  0.1261
  381W        W43298  14.013  12.247  31.525  0.2805 -0.0805  0.0034
  382W        W43299  16.765  10.436   1.554  0.0045  0.1230 -0.0746
  383W        W43300  17.343   9.404  31.445 -0.0531  0.0399 -0.0007
  384W        W43301  13.596   7.116   3.625  0.1354  0.0044 -0.1894
  385W        W43302  14.309  11.102   3.887  0.1284 -0.3020  0.0527
  386W        W43303  14.902   7.407   2.044  0.1275  0.1567  0.1297
  387W        W43304  16.572  10.010   2.015  0.2034 -0.1089  0.1025
  388W        W43305  14.578  10.348   3.394 -0.0999 -0.0156 -0.0217
  389W        W43306  17.095  10.609   2.458 -0.0314 -0.0249 -0.1009
  390W        W43307  15.966   7.409   1.409  0.2558 -0.1898 -0.0357
  391W        W43308  15.871   8.017   3.289  0.3437  0.1075 -0.1404
  392W        W43309  18.292   9.415   1.158 -0.2996  0.1037 -0.0063
  393W        W43310  14.492   8.380   2.827 -0.2995 -0.0446 -0.0231
  394W        W43311  16.795  11.408   2.028  0.2250 -0.0661  0.1051
  395W        W43312  15.270  11.100   2.557  0.0590 -0.1351 -0.1318
  396W        W43313  16.433   8.993   3.061  0.0956  0.1763  0.1075
  397W        W43314  18.750   7.562   1.423  0.2338  0.2826 -0.3133
  398W        W43315  17.492   9.642   0.965  0.4396  0.1773  0.0384
  399W        W43316  14.808   9.219   3.549  0.1180 -0.1534  0.3089
  400W        W43317  17.640   8.997   3.683  0.3075  0.1019 -0.0695
  401W        W43318  16.606  11.251   3.049 -0.3385 -0.0369 -0.0045
  402W        W43319  14.470   9.790   0.069 -0.1524  0.2744  0.2002
  403W        W43320  16.411  11.460   0.120  0.0338 -0.2238  0.0603
  404W        W43321  16.550   8.520   3.190  0.1556 -0.0218 -0.1483
  405W        W43322  17.111  10.008   2.899 -0.2888  0.0896  0.1426
  406W        W43323  15.697   9.073   4.013  0.3609 -0.1253  0.0403
  407W        W43324  15.427  10.514   4.335 -0.0290  0.0999  0.0870
  408W        W43325  17.970  10.000   0.489  0.0318  0.2374  0.0127
  409W        W43326  14.022   8.394   0.693  0.1908  0.1948 -0.0266
  410W        W43327  17.198   9.294   0.692  0.3587  0.1710 -0.0786
  411W        W43328  15.098  12.708   4.033  0.1863  0.1547  0.0331
  412W        W43329  14.996  11.167   3.213  0.0398  0.1552  0.0396
  413W        W43330  14.866  13.638  31.955 -0.1416 -0.5132  0.0589
  414W        W43331  16.445   8.085   1.429 -0.0626  0.0867  0.0103
  415W        W43332  14.207  10.037   1.289 -0.1074  0.1331 -0.1136
  416W        W43333  15.437  11.943   2.749 -0.2397 -0.0545 -0.2584
  417W        W43334  15.020   8.389  30.920  0.1049 -0.0594  0.1755
  418W        W43335  13.392  10.543   2.315 -0.0032  0.4278 -0.0742
  419W        W43336  15.860  10.235  31.844 -0.1248 -0.1241  0.1715
  420W        W43337  15.826  10.498  30.343  0.1325  0.1259 -0.0715
  421W        W43338  14.390  10.203   2.932  0.0130 -0.0049 -0.0812
  422W        W43339  15.232  10.345   3.340  0.1213 -0.0430 -0.1534
  423W        W43340  16.774   7.934   0.483 -0.0804 -0.0530  0.0233
  424W        W43341  17.767   8.609   2.265 -0.3276  0.1323  0.2876
  425W        W43342  18.272   8.979   1.387 -0.0599 -0.0151  0.2849
  426W        W43343  17.566  12.181   3.758  0.0409  0.1369 -0.1513
  427W        W43344  15.856   7.440   1.971  0.3005 -0.2783 -0.0363
  428W        W43345  16.080   6.503   1.533 -0.1627  0.0100 -0.2339
  429W        W43346  12.654   9.402   4.014 -0.2129 -0.2294 -0.1760
  430W        W43347  17.907   4.977   1.763  0.1402 -0.1005 -0.3593
  431W        W43348  13.737  13.188   4.052  0.1666  0.0995 -0.0405
  432W        W43349  18.523  11.603   0.586 -0.0688  0.0235  0.1036
  433W        W43350  14.638   6.764  31.556  0.0438 -0.0652 -0.0262
  434W        W43351  16.068   9.201   0.150  0.2319  0.2489 -0.0913
  435W        W43352  19.821   8.560   3.912 -0.0829  0.0028 -0.2781
  436W        W43353  17.684   9.034   0.787 -0.0254 -0.2191  0.3199
  437W        W43354  15.280   8.617   1.156 -0.0257  0.1408  0.3258
  438W        W43355  15.255   9.870   0.722  0.2788 -0.0402  0.0790
  439W        W43356  15.767  11.492   0.448 -0.0434 -0.2865 -0.2590
  440W        W43357  16.221  11.103   2.706 -0.2094  0.1997  0.0083
  441W        W43358  13.027   7.732   1.310 -0.0701  0.1887 -0.1116
  442W        W43359  16.901   9.392  31.220 -0.0361 -0.0869  0.0175
  443W        W43360  12.638   9.834   3.177 -0.1351 -0.0328  0.1467
  444W        W43361  17.399   8.945   2.167  0.0679  0.5137 -0.1568
  445W        W43362  13.494   8.874   1.144 -0.4933  0.1137 -0.0957
  446W        W43363  17.486   8.414   1.310 -0.1076 -0.3839 -0.4162
  447W        W43364  14.256   8.436   2.219  0.0132 -0.3635 -0.1309
  448W        W43365  16.001   6.954   1.894 -0.1048  0.1600 -0.0079
  449W        W43366  15.986   8.677  31.237 -0.1627 -0.3461  0.2113
  450W        W43367  17.623   7.837   2.816 -0.2102 -0.0688 -0.0009
  451W        W43368  16.184   8.250   0.899 -0.1504  0.3570 -0.2817
  452W        W43369  15.371  12.559   5.212  0.1866  0.0190 -0.4588
  453W        W43370  16.390   9.024   1.695 -0.2175  0.0927  0.2298
  454W        W43371  17.500   5.958   0.128  0.1277  0.2944 -0.1724
  455W        W43372  15.771   9.543   0.517  0.1511  0.0065 -0.0656
  456W        W43373  13.034  10.506   3.862  0.1718 -0.2334  0.0940
  457W        W43374  16.384  10.794   3.081 -0.2985  0.4084 -0.1921
  458W        W43375  14.711   7.384   1.067 -0.0464  0.0876  0.2875
  459W        W43376  16.447  11.154   1.717 -0.1503 -0.0432  0.1464
  460W        W43377  16.429   8.131   0.180  0.0111 -0.1487 -0.0363
  461W        W43378  14.522  10.819   0.210  0.2293 -0.0121 -0.0663
  462W        W43379  16.421   9.085   2.192  0.0520 -0.2292  0.2908
  463W        W43380  16.187  11.290   1.318  0.1965  0.2378 -0.2064
  464W        W43381  14.687   8.783   2.530  0.0252  0.1935  0.0568
  465W        W43382  15.922  13.021   1.798  0.0739 -0.0944  0.1904
  466W        W43383  18.587  10.143   1.132 -0.1213 -0.1095 -0.1172
  467W        W43384  16.073   7.729   1.014 -0.3620  0.0739 -0.0293
  468W        W43385  14.798   9.265   2.259 -0.0816 -0.2202 -0.0108
  469W        W43386  15.040  12.860   1.878  0.0308  0.3198 -0.0278
  470W        W43387  18.201   8.529   3.195  0.1182 -0.2026 -0.3043
  471W        W43388  14.466   9.690   4.084  0.2122  0.1998  0.2054
  472W        W43389  15.691  10.547   0.947  0.3113 -0.1909  0.0937
  473W        W43390  15.357   9.022   3.203  0.1617  0.0569 -0.3584
  474W        W43391  16.341   9.645   3.904 -0.3271 -0.1005 -0.2576
  475W        W43392  16.935  11.476   6.634  0.0726  0.2003  0.0978
  476W        W43393  16.221   8.523   1.404 -0.0848  0.1692 -0.1966
  477W        W43394  15.006  11.318   4.297  0.0447  0.2085  0.0927
  478W        W43395  17.035  10.071   1.749  0.2769 -0.3035  0.0807
  479W        W43396  15.506   8.953   1.712  0.5349  0.1180 -0.2050
  480W        W43397  17.493  10.154   0.575  0.1389  0.0644  0.1994
  481W        W43398  15.372   8.380   2.479 -0.0955 -0.1258  0.0087
  482W        W43399  17.879  10.435   0.713  0.2075 -0.1140 -0.4630
  483W        W43400  15.313   9.143   1.199  0.0374  0.1097  0.1114
  484W        W43401  19.203   8.839  31.592 -0.0990 -0.1888  0.1414
  485W        W43402  19.483   7.325   3.465 -0.1102 -0.0160 -0.1841
  486W        W43403  15.449   8.229   3.592  0.2161  0.1307  0.1856
  487W        W43404  11.921   7.220   0.775 -0.1628 -0.0247  0.1190
  488W        W43405  16.738   9.391  31.688 -0.0295 -0.0436 -0.0198
  489W        W43406  13.500  10.079   2.456 -0.2005 -0.1422 -0.1128
  490W        W43407  16.116   7.807   1.650  0.1106  0.1714  0.1355
  491W        W43408  17.035   9.028   4.638  0.1235  0.0110  0.1063
  492W        W43409  13.014   8.707   0.372  0.1675  0.0050  0.1347
  493W        W43410  14.891   7.631   2.477  0.0669 -0.1509 -0.1676
  494W        W43411  17.217   9.822   0.101 -0.1391  0.0442  0.2268
  495W        W43412  14.133   7.695   3.607 -0.0012 -0.1064 -0.0123
  496W        W43413  15.331   9.225   2.145  0.1597  0.0506  0.0515
  497W        W43414  15.549   9.697   1.648 -0.1241 -0.4404  0.1438
  498W        W43415  16.464   9.045   0.544  0.2763 -0.0051  0.1123
  499W        W43416  16.823   9.507   2.109  0.2606  0.1873  0.2048
  500W        W43417  17.591  10.622   4.019  0.0109  0.0031 -0.1347
  501W        W43418  15.890  10.050   1.353  0.1725  0.0005  0.0316
  502W        W43419  16.761   8.808   5.043 -0.1797  0.1986 -0.1711
  503W        W43420  14.131   7.652   2.554 -0.0959  0.1432  0.1612
  504W        W43421  14.766   8.984   1.022 -0.1704 -0.0471 -0.0446
  505W        W43422  16.491   9.859   2.837  0.0033  0.0794  0.2551
  506W        W43423  15.363  11.942   1.427 -0.1002  0.0195 -0.2274
  507W        W43424  17.948   9.504   0.741 -0.2304  0.2900 -0.1648
  508W        W43425  16.467  11.060   3.487  0.0531  0.0387 -0.0772
  509W        W43426  15.450  12.447   1.242  0.4043 -0.1929  0.1825
  510W        W43427  13.251   7.447   3.564  0.0412  0.0177  0.1456
  511W        W43428  18.436   8.129  31.454  0.2326 -0.3341 -0.2138
  512W        W43429  17.694   9.374   2.161 -0.0255 -0.1961  0.1684
  513W        W43430  18.411   8.655   0.957 -0.1318  0.0214  0.1086
  514W        W43431  19.296   8.339   3.236 -0.6280 -0.3943 -0.2587
  515W        W43432  17.057   9.151   2.460  0.2470 -0.0907 -0.3794
  516W        W43433  15.370   8.105   1.255  0.1045 -0.2347 -0.0620
  517W        W43434  12.860   9.444   2.073 -0.1528  0.2159 -0.1144
  518W        W43435  17.430   9.638   1.478  0.2309  0.0632  0.0675
  519W        W43436  13.900   9.258   3.229  0.3122  0.1963 -0.3061
  520W        W43437  16.627   8.841   2.561 -0.0401  0.0915  0.4397
  521W        W43438  18.212   9.095   0.328 -0.3120  0.0901 -0.0886
  522W        W43439  13.806   9.614   2.157  0.0404 -0.1556  0.1623
  523W        W43440  15.080   7.728   1.016 -0.1689 -0.0180 -0.0834
  524W        W43441  14.586   9.741   3.571  0.0984 -0.1027  0.0927
  525W        W43442  17.190  11.849  31.462  0.3648  0.0212  0.0590
  526W        W43443  17.595  10.742   2.744  0.0287  0.0150  0.2926
  527W        W43444  15.509   9.199   0.279 -0.0719  0.2700 -0.3143
  528W        W43445  18.972   9.146   2.609  0.2489 -0.1991  0.0279
  529W        W43446  16.222  10.039   2.478  0.0057  0.2420 -0.3177
  530W        W43447  17.837  11.198   5.178  0.0387  0.1365 -0.1063
  531W        W43448  15.272  10.814   2.100  0.1209  0.3357 -0.2880
  532W        W43449  18.369   9.836   1.473 -0.2118 -0.0724  0.3121
  533W        W43450  12.920   7.775   2.626 -0.3929 -0.0497  0.1150
  534W        W43451  16.160   9.331   0.931 -0.0460 -0.2468  0.1356
  535W        W43452  16.042   8.338   1.802 -0.1921  0.0403 -0.0301
  536W        W43453  18.539  10.298   1.661  0.2753  0.0069  0.1929
  537W        W43454  16.407   9.277   3.495  0.1912 -0.1777 -0.1137
  538W        W43455  19.080   9.246   2.019  0.0994  0.2966  0.2023
  539W        W43456  13.951  11.342   2.517  0.0374  0.0862 -0.0509
  540W        W43457  17.057   9.997   2.281 -0.3663  0.1958 -0.1120
  541W        W43458  15.790  10.972   4.119 -0.2761  0.1166 -0.6165
  542W        W43459  15.717   7.644   5.116  0.0588 -0.3261 -0.1828
  543W        W43460  17.026   8.564   3.201  0.2346 -0.0902 -0.1030
  544W        W43461  14.049   9.801   5.298  0.0869 -0.0775 -0.1072
  545W        W43462  14.963   7.910   4.019 -0.1764  0.0444  0.1991
  546W        W43463  17.476  12.737   6.514 -0.1852 -0.0583 -0.0947
  547W        W43464  16.211   5.535   6.799 -0.0162  0.0103  0.0028
  548W        W43465  16.320  11.040   6.245  0.1128  0.1012  0.0043
  549W        W43466  17.207  12.367   5.186  0.0139  0.0424 -0.0181
  550W        W43467  18.224  11.292   2.509 -0.1579  0.0855  0.3200
  551W        W43468  14.545   7.994   6.958 -0.3822 -0.2448 -0.2262
  552W        W43469  15.033  12.091   6.311  0.5872 -0.0357 -0.2577
  553W        W43470  16.107   9.284   6.287 -0.1842  0.2010  0.1725
  554W        W43471  15.340   8.555   6.027 -0.2984 -0.1121 -0.2003
  555W        W43472  15.958   9.565   8.040  0.1330  0.0590 -0.1229
  556W        W43473  16.438   7.800   6.266  0.0994  0.1720  0.0407
  557W        W43474  16.064  10.245   6.216  0.1598  0.1633  0.1439
  558W        W43475  16.741  10.234   4.937  0.1985 -0.0422  0.1542
  559W        W43476  15.887  11.380   4.449  0.0809  0.4142 -0.2775
  560W        W43477  17.093   8.888   6.233 -0.2553 -0.2053 -0.0525
  561W        W43478  16.220   7.411   6.672 -0.0039 -0.0666 -0.2056
  562W        W43479  13.371  10.567   5.521  0.1037 -0.0407  0.1655
  563W        W43480  14.967   8.394   4.713  0.3659 -0.0082 -0.1103
  564W        W43481  14.790   7.905   4.930  0.1172  0.2544 -0.2619
  565W        W43482  14.416   9.825   5.830 -0.1064 -0.0912  0.1063
  566W        W43483  16.847   9.295   5.277 -0.0432  0.0818 -0.0014
  567W        W43484  16.146  11.744   6.080  0.0076  0.0012 -0.1542
  568W        W43485  13.624  12.954   5.787  0.1782  0.1482  0.0175
  569W        W43486  16.406  10.406   4.553 -0.0271  0.0596 -0.0793
  570W        W43487  16.254   8.235   7.703 -0.2409 -0.2458  0.4689
  571W        W43488  15.005  10.038   5.896  0.2260 -0.2030  0.3152
  572W        W43489  13.939  14.521   6.011 -0.1564  0.4315 -0.0020
  573W        W43490  15.446  11.911   6.065 -0.0086  0.1560 -0.0681
  574W        W43491  16.566   9.925   6.853  0.0772  0.1396  0.0327
  575W        W43492  16.819  11.403   7.593  0.0596 -0.0369  0.2888
  576W        W43493  15.105  10.870   6.458 -0.0086  0.1455  0.0041
  577W        W43494  14.357  11.112   2.954  0.1294  0.0285 -0.2785
  578W        W43495  17.835  10.463   7.022  0.0244 -0.0185  0.3764
  579W        W43496  14.790  13.233   8.256  0.0997  0.2606  0.0893
  580W        W43497  17.482   9.047   4.166  0.3148 -0.2182 -0.0356
  581W        W43498  15.427   9.921   3.433  0.1807 -0.3265 -0.4322
  582W        W43499  15.188  11.379   5.258  0.0878 -0.1181 -0.0196
  583W        W43500  16.023   9.170   4.506 -0.0374 -0.0727 -0.1072
  584W        W43501  14.805  11.577   6.109 -0.2732 -0.0280 -0.2295
  585W        W43502  13.948  10.983   6.128 -0.1941  0.0320  0.0574
  586W        W43503  18.094   8.428   6.639  0.1591  0.1166  0.3913
  587W        W43504  14.598  10.247   2.484  0.2042  0.1143 -0.0678
  588W        W43505  17.473   9.779   2.501  0.2052 -0.1062  0.0077
  589W        W43506  15.330  10.909   5.032 -0.1652  0.2769  0.1370
  590W        W43507  13.946   8.095   3.965 -0.1553 -0.2242 -0.0102
  591W        W43508  16.738   6.964   6.358 -0.0703  0.0306 -0.0160
  592W        W43509  14.426  10.717   5.846  0.2875  0.4201 -0.1026
  593W        W43510  16.310   8.509   5.729 -0.2258 -0.1272 -0.0595
  594W        W43511  18.267  10.919   7.745 -0.1390 -0.1718 -0.0030
  595W        W43512  15.078  10.530   4.697 -0.3397  0.2439  0.0902
  596W        W43513  17.239  10.094   5.740 -0.0282  0.2787  0.1148
  597W        W43514  15.214  12.383   6.660  0.1464 -0.0523  0.2164
  598W        W43515  14.693   8.114   4.450 -0.2676 -0.0161 -0.0562
  599W        W43516  16.729  10.105   3.223 -0.4172  0.0723  0.2167
  600W        W43517  17.337  10.779   5.432 -0.0663  0.1812  0.0183
  601W        W43518  14.243  11.699   3.640 -0.0173  0.2012  0.1445
  602W        W43519  15.551   8.052   6.059 -0.2886  0.3238  0.0723
  603W        W43520  14.890   8.731   6.796 -0.3893 -0.1165  0.0830
  604W        W43521  13.771   8.985   7.620 -0.1035  0.1869 -0.0585
  605W        W43522  14.948   8.141   2.622  0.0591 -0.2871 -0.1867
  606W        W43523  19.327  10.153   7.746 -0.0307  0.1613 -0.1730
  607W        W43524  15.533   9.216   7.830  0.1194  0.1173 -0.0189
  608W        W43525  17.164  10.807   4.502  0.0027 -0.1075 -0.0352
  609W        W43526  16.871   9.980   5.344 -0.3484  0.1659  0.3220
  610W        W43527  17.313  10.728   6.325 -0.1917  0.2333  0.3051
  611W        W43528  15.794  10.101   4.034 -0.0668  0.1256  0.0694
  612W        W43529  17.115   8.411   6.241 -0.1092 -0.0868 -0.2081
  613W        W43530  18.481   7.487   6.269  0.0414  0.0545  0.2119
  614W        W43531  13.522   9.622   5.271 -0.4308  0.0426 -0.1475
  615W        W43532  15.946   9.761   3.652 -0.0297 -0.1705  0.0559
  616W        W43533  17.744  10.885   8.493  0.2909  0.2052 -0.0813
  617W        W43534  18.000  12.529   5.552  0.1101 -0.2972  0.1383
  618W        W43535  13.620  10.246   6.566  0.0999  0.3429 -0.0264
  619W        W43536  13.945   7.195   8.739  0.0100  0.0428  0.0613
  620W        W43537  17.826  10.687   7.464  0.2086 -0.1588 -0.1026
  621W        W43538  14.448  11.061   4.880  0.0276  0.0566  0.2177
  622W        W43539  15.814   9.666   6.180 -0.2957  0.1868  0.1584
  623W        W43540  14.123   9.317   5.210  0.2326 -0.1710 -0.0388
  624W        W43541  14.538   7.508   6.767 -0.0008  0.1205  0.4109
  625W        W43542  14.724  11.244   5.214  0.1179 -0.0359 -0.2469
  626W        W43543  17.406   8.716   4.513  0.0178  0.0563  0.0153
  627W        W43544  14.220   8.119   7.280  0.1202  0.0079 -0.1819
  628W        W43545  18.621   9.050   4.336 -0.2809  0.0754 -0.1950
  629W        W43546  14.747  10.229   5.033  0.3705 -0.0914 -0.1965
  630W        W43547  16.887  13.163   4.440  0.0585 -0.1064 -0.0602
  631W        W43548  16.662   8.384   4.216 -0.1042  0.1381 -0.1631
  632W        W43549  16.378   9.625   2.323  0.0676  0.0647  0.2771
  633W        W43550  14.629   9.454   7.128 -0.0635 -0.0103 -0.0519
  634W        W43551  15.945   9.193   5.095  0.0931 -0.1157  0.1283
  635W        W43552  17.798   6.139   6.149  0.0310  0.0128 -0.0095
  636W        W43553  14.715   6.010   6.752  0.1841 -0.4066 -0.0663
  637W        W43554  17.449   8.666   6.695  0.0006 -0.0105 -0.3162
  638W        W43555  16.212  10.147   4.967  0.2152 -0.2586 -0.0320
  639W        W43556  16.479  10.359   5.356 -0.2413  0.2387  0.0447
  640W        W43557  15.511   9.710   5.197 -0.1071 -0.1464  0.3057
  641W        W43558  13.553  10.121   5.466  0.2618 -0.0101  0.1661
  642W        W43559  19.704   8.123   6.434 -0.1881  0.0167 -0.3339
  643W        W43560  15.149  10.618   2.555 -0.0599 -0.2485  0.0551
  644W        W43561  18.959  10.291   7.382 -0.0589 -0.0268 -0.0042
  645W        W43562  16.601  11.912   4.170 -0.1464 -0.2216 -0.1821
  646W        W43563  13.636   7.370   6.142 -0.0790  0.0383 -0.2736
  647W        W43564  13.755  10.331   4.601 -0.1710  0.2578 -0.3816
  648W        W43565  14.057  12.803   1.781  0.2032 -0.2979  0.1234
  649W        W43566  15.646  10.477   4.782  0.1035 -0.1313 -0.1590
  650W        W43567  15.302   9.182   3.807 -0.0293  0.1078  0.0189
  651W        W43568  15.974  11.306   5.914 -0.1315  0.0607  0.1613
  652W        W43569  14.844  10.775   5.138 -0.0100 -0.0536 -0.1252
  653W        W43570  14.514  11.968   6.149  0.2014  0.3837  0.1796
  654W        W43571  16.661   8.152   5.954 -0.0768 -0.1178  0.0178
  655W        W43572  16.703  11.553   6.183  0.0831 -0.0264  0.0745
  656W        W43573  16.997  10.215   6.465 -0.1594 -0.0145 -0.1019
  657W        W43574  14.830   8.985   3.092 -0.1637  0.0897 -0.1110
  658W        W43575  16.660  11.341   4.226 -0.2285  0.0165 -0.1384
  659W        W43576  15.802  10.979   4.816 -0.2606 -0.0640  0.1104
  660W        W43577  13.624   8.137   5.476 -0.0364  0.1022  0.0748
  661W        W43578  13.907  10.755   5.446 -0.2295  0.0515  0.0751
  662W        W43579  16.386   8.444   6.290 -0.0590  0.3404 -0.1516
  663W        W43580  13.768   8.507   8.488 -0.0866  0.2360 -0.1928
  664W        W43581  17.255   9.088   5.152  0.1264  0.0159 -0.3115
  665W        W43582  14.351   8.134   4.871  0.2763  0.5133 -0.0983
  666W        W43583  14.757  12.135   6.733 -0.3205 -0.0863  0.1193
  667W        W43584  17.022   8.034   4.373 -0.1788 -0.0783  0.0947
  668W        W43585  16.714   9.718   4.310 -0.1154 -0.4183  0.2077
  669W        W43586  18.183   9.338   6.464 -0.2782  0.3297 -0.0345
  670W        W43587  16.920  11.978   5.075  0.2541  0.0148  0.1845
  671W        W43588  13.885   8.584   3.072  0.0077 -0.0567  0.0415
  672W        W43589  17.417   5.825   1.587 -0.1297 -0.0981 -0.3843
  673W        W43590  15.255  10.445   5.248  0.2456  0.1373  0.0125
  674W        W43591  15.548   8.690   2.913  0.3922 -0.1766  0.0423
  675W        W43592  17.213  10.137   3.581 -0.1594  0.0142  0.0213
  676W        W43593  16.386   8.211   2.568  0.2696  0.1842 -0.0743
  677W        W43594  18.238  11.756   5.683  0.3798  0.0035 -0.0156
  678W        W43595  14.704   9.073   6.128 -0.0710 -0.3443 -0.0779
  679W        W43596  16.489   9.568   6.503  0.0226 -0.0509  0.0127
  680W        W43597  16.481  11.321   5.084 -0.0019  0.0354 -0.1007
  681W        W43598  15.044   7.181   5.658 -0.2265  0.0808  0.1922
  682W        W43599  14.875  11.197   3.731  0.1987 -0.1365 -0.0438
  683W        W43600  16.812   5.399   3.701  0.0934  0.2268  0.1025
  684W        W43601  14.425  12.169   3.578 -0.0425 -0.0378  0.0757
  685W        W43602  17.540   8.717   6.130 -0.2182 -0.2345  0.2925
  686W        W43603  16.721   7.093   4.177  0.1952  0.2092  0.0474
  687W        W43604  18.880   7.553   7.617 -0.2543 -0.1838 -0.0100
  688W        W43605  18.573   9.477   7.535 -0.2339  0.0359 -0.0624
  689W        W43606  15.873   8.220   2.784  0.1706 -0.1515  0.3968
  690W        W43607  17.566  10.046   6.946  0.1469  0.5515 -0.3150
  691W        W43608  13.088   9.366   5.177 -0.0500 -0.0196  0.3966
  692W        W43609  17.558   6.686   6.598  0.1849  0.0119 -0.3311
  693W        W43610  14.910  10.467   5.649 -0.1839  0.1524 -0.4017
  694W        W43611  16.100  10.755   4.466  0.1185  0.0006 -0.1814
  695W        W43612  16.951  11.119   8.012  0.1026 -0.3125  0.0698
  696W        W43613  16.334   7.873   3.516 -0.0161  0.2417 -0.0804
  697W        W43614  15.641   7.928   5.571 -0.1967  0.2467  0.0994
  698W        W43615  15.779   9.269   5.905 -0.1979 -0.0873 -0.1575
  699W        W43616  14.090  13.037   4.367  0.3695 -0.1510 -0.1024
  700W        W43617  15.912  11.863   4.127  0.0203 -0.0845 -0.1385
  701W        W43618  17.016   9.144   7.248 -0.1017  0.0023 -0.1787
  702W        W43619  15.851  11.415   3.898  0.1434  0.3273  0.0839
  703W        W43620  15.483  11.492   4.177  0.2209 -0.0111 -0.1941
  704W        W43621  15.452  11.129   7.200 -0.3495  0.1823  0.1348
  705W        W43622  14.928  11.061   4.728 -0.2635  0.0532 -0.1805
  706W        W43623  17.526   8.605   5.611  0.0584 -0.0300  0.0382
  707W        W43624  15.649  10.694   5.533 -0.2997 -0.1107  0.0559
  708W        W43625  14.746  10.590   3.796  0.0447 -0.1228  0.4613
  709W        W43626  15.453   8.555   4.753 -0.2146 -0.1130 -0.2177
  710W        W43627  17.210   6.969   3.251  0.0233 -0.1296  0.0383
  711W        W43628  16.248   9.154   4.030  0.2163 -0.1559 -0.0251
  712W        W43629  16.359   6.356   7.722  0.1242 -0.3469 -0.2583
  713W        W43630  16.794   9.324   3.893 -0.0703  0.1099  0.2106
  714W        W43631  13.393   9.819   7.196 -0.0193  0.0889 -0.0155
  715W        W43632  17.238   9.575   5.697  0.1703  0.1733  0.2171
  716W        W43633  15.845   9.021   3.126  0.0660 -0.1074 -0.0321
  717W        W43634  16.530  11.472   6.990  0.0373 -0.0472 -0.2275
  718W        W43635  16.838   8.474   7.024  0.1369  0.0500  0.0234
  719W        W43636  14.521   9.618   5.399  0.0711  0.1659  0.1268
  720W        W43637  18.411   9.897   7.671 -0.1459 -0.0599  0.1097
  721W        W43638  15.847   8.469   5.977  0.1129  0.2784  0.0560
  722W        W43639  15.227   9.396   4.852 -0.1137  0.0369 -0.0829
  723W        W43640  14.583  13.562   6.879 -0.1835 -0.2103 -0.0362
  724W        W43641  15.788  10.297   6.736 -0.1646  0.0390 -0.2386
  725W        W43642  13.839   9.517   6.231  0.0350  0.3652  0.2588
  726W        W43643  15.728   8.059   7.697  0.0257 -0.1672  0.2280
  727W        W43644  17.031   8.392   5.725  0.0521  0.2239 -0.1432
  728W        W43645  16.561   8.886   5.539  0.2556 -0.1089  0.1253
  729W        W43646  16.991   9.517   4.740 -0.0280 -0.2676 -0.0978
  730W        W43647  15.447   8.467   7.455 -0.0981  0.1270 -0.1112
  731W        W43648  17.506  10.656   5.874 -0.0494  0.1228 -0.0138
  732W        W43649  16.548   9.011   6.330 -0.2367  0.2026  0.1998
  733W        W43650  16.020  11.151   6.938  0.0310  0.1599 -0.0287
  734W        W43651  16.929   7.373   5.025 -0.1602 -0.1398  0.1533
  735W        W43652  19.822  10.861   8.448 -0.0749 -0.0361  0.0132
  736W        W43653  16.704   8.702   5.992  0.0475  0.2388 -0.3191
  737W        W43654  15.100   9.866   5.425 -0.0877  0.2284 -0.2061
  738W        W43655  12.421  10.140   6.347  0.0388  0.2300  0.1522
  739W        W43656  14.396  10.524   4.163  0.2522  0.1146  0.1587
  740W        W43657  17.646   8.171   5.399  0.3867 -0.2071  0.0664
  741W        W43658  13.484  12.745   7.264  0.4375  0.1238 -0.0890
  742W        W43659  15.808  12.395   4.395 -0.1662 -0.1927  0.0851
  743W        W43660  15.232  12.869   6.351 -0.0869 -0.2738  0.4986
  744W        W43661  18.912   6.633   3.509  0.1052 -0.2209 -0.0452
  745W        W43662  17.045  10.554   3.949  0.1151 -0.1959 -0.0438
  746W        W43663  16.644   9.642   5.666  0.0643  0.0013  0.1043
  747W        W43664  18.947   6.656   6.681 -0.2816  0.0864 -0.3354
  748W        W43665  16.650  10.830   4.376  0.0355  0.1357  0.1039
  749W        W43666  17.275   5.613   6.665  0.2005 -0.2267 -0.2436
  750W        W43667  16.166   6.772   6.349 -0.3761  0.1254 -0.0865
  751W        W43668  17.412  11.453   5.037 -0.0007  0.2152 -0.0304
  752W        W43669  16.714  10.084   8.341 -0.3261  0.4723 -0.0324
  753W        W43670  16.181  12.448   8.729 -0.4735  0.1793  0.2605
  754W        W43671  14.047   8.680   7.159 -0.1142 -0.0719 -0.0513
  755W        W43672  15.923   7.218   4.613  0.0452  0.1006  0.1215
  756W        W43673  14.877  10.380   4.219 -0.0140  0.0134  0.0938
  757W        W43674  16.386   9.232   5.878 -0.1051  0.4871 -0.2890
  758W        W43675  17.325   9.484   7.008 -0.0220 -0.2457 -0.0055
  759W        W43676  17.408  10.986   4.972 -0.3532 -0.0592  0.1901
  760W        W43677  18.592   9.053   6.390 -0.0517  0.0033  0.1455
  761W        W43678  15.124  10.513   6.104  0.1776  0.1653  0.0739
  762W        W43679  16.260  10.115   4.142  0.3287  0.0297 -0.1895
  763W        W43680  15.957   8.512   3.216 -0.1850  0.0169 -0.2128
  764W        W43681  14.373   9.434   6.117  0.1265  0.0170  0.4537
  765W        W43682  16.434   6.881   6.763  0.0764 -0.3011 -0.0082
  766W        W43683  18.917   8.314   5.418 -0.2940 -0.1086  0.2188
  767W        W43684  16.742   9.738   3.580 -0.1761  0.1089 -0.0145
  768W        W43685  17.077   8.947   5.566 -0.2291 -0.2054  0.1727
  769W        W43686  16.984   9.402   6.365 -0.2100  0.0837 -0.1064
  770W        W43687  16.233  10.134   8.110 -0.2956  0.0258  0.0878
  771W        W43688  15.516   6.738   7.623 -0.1363 -0.2089  0.0857
  772W        W43689  16.882  11.212   7.143  0.2498  0.0689  0.2628
  773W        W43690  18.169  10.164   3.275 -0.0627 -0.0581 -0.4565
  774W        W43691  16.309   9.645   7.200 -0.1453  0.1536  0.0091
  775W        W43692  15.932   8.726   4.738 -0.0027 -0.0554 -0.1158
  776W        W43693  16.279   6.998   1.365  0.0462  0.1488  0.1383
  777W        W43694  12.581   8.657   6.497 -0.0242 -0.2527 -0.0901
  778W        W43695  17.842  10.166   7.831 -0.1776  0.0289 -0.2480
  779W        W43696  14.344   8.881   3.031  0.1417 -0.0272 -0.0975
  780W        W43697  17.312   9.517   7.519 -0.1305  0.3618 -0.2497
  781W        W43698  15.995  10.561   3.942  0.1386 -0.3006  0.1613
  782W        W43699  16.284   9.879   5.445 -0.0061 -0.0804 -0.1426
  783W        W43700  16.925  10.318   4.390  0.1633  0.1149 -0.4313
  784W        W43701  15.946   9.522   5.558  0.0239 -0.1821  0.0838
  785W        W43702  14.143  10.539   8.649  0.0507  0.3004  0.0445
  786W        W43703  14.691  10.033   4.563 -0.0095  0.2325 -0.1094
  787W        W43704  13.440  10.093   2.971  0.0319  0.1380 -0.1738
  788W        W43705  15.599  11.177   5.640 -0.1099  0.3506  0.1213
  789W        W43706  18.352  10.157   8.108 -0.2797  0.2563  0.1204
  790W        W43707  14.343   8.415   4.240 -0.0236 -0.1179 -0.0478
  791W        W43708  15.825   8.217   5.009 -0.1184 -0.2257 -0.1621
  792W        W43709  13.641   7.797   5.853 -0.1053 -0.0006 -0.0912
  793W        W43710  16.245   7.115   4.239 -0.4137  0.2213  0.1149
  794W        W43711  14.333  11.749   7.379 -0.1981 -0.1114 -0.1042
  795W        W43712  14.442   9.890   6.960 -0.1120 -0.1354 -0.0242
  796W        W43713  14.599  10.623   4.701 -0.0189 -0.0038  0.0776
  797W        W43714  18.477   8.227   5.742  0.4105  0.4065  0.1161
  798W        W43715  17.925   9.418   6.003  0.0596  0.0270  0.2717
  799W        W43716  15.850   9.969   5.828 -0.0884  0.2822  0.2510
  800W        W43717  15.915  10.698   6.415  0.0981  0.2170  0.3194
  801W        W43718  14.733  12.542   6.381  0.0356 -0.0620 -0.1202
  802W        W43719  14.700   7.161   7.150  0.1555 -0.0332  0.0251
  803W        W43720  15.809  11.176   6.381  0.2475 -0.0242  0.0937
  804W        W43721  16.952  10.454   5.478  0.0729 -0.0005  0.0235
  805W        W43722  14.978  12.042   3.058 -0.0158 -0.0120  0.0484
  806W        W43723  14.901   7.231   6.644 -0.0254  0.2508  0.0252
  807W        W43724  18.022   9.002   5.818  0.2116 -0.0926 -0.0188
  808W        W43725  15.136   7.551   5.294 -0.0325  0.0984 -0.0389
  809W        W43726  16.676   8.402   5.400  0.2224  0.1063 -0.0223
  810W        W43727  15.461  11.049   3.061 -0.0121 -0.1686 -0.3051
  811W        W43728  14.104  11.118   6.697 -0.2913 -0.0009 -0.0357
  812W        W43729  15.546   9.797   6.668 -0.2101 -0.2034 -0.1382
  813W        W43730  14.306  11.640   3.070 -0.1121 -0.2250 -0.1486
  814W        W43731  16.727  11.506   3.464 -0.1844 -0.2270 -0.1186
  815W        W43732  14.811   9.443   4.389 -0.0612  0.0823 -0.0304
  816W        W43733  17.368  12.991   7.583  0.1061  0.0927 -0.0311
  817W        W43734  15.090   9.576   3.422 -0.0012  0.1550 -0.2753
  818W        W43735  15.959  12.216   6.174 -0.2323  0.0557 -0.0383
  819W        W43736  14.521  10.130   3.865 -0.2829 -0.2953  0.0843
  820W        W43737  16.350  10.089   3.647  0.2529  0.3841  0.0853
  821W        W43738  14.188  11.679   5.833 -0.1784 -0.1608 -0.0573
  822W        W43739  17.275  10.503   6.803  0.1158  0.0727  0.1295
  823W        W43740  16.813   9.045   3.448 -0.0490  0.1740 -0.0396
  824W        W43741  18.054   8.478   6.065 -0.0241  0.0281 -0.0621
  825W        W43742  16.783   9.461   3.094 -0.1588 -0.1389 -0.2685
  826W        W43743  17.486  11.240   8.148 -0.1190 -0.0552  0.0688
  827W        W43744  16.895   9.268   5.936 -0.1369  0.2863 -0.0015
  828W        W43745  13.681  10.183   3.405 -0.0346  0.0065 -0.1348
  829W        W43746  16.003   8.029   6.354 -0.2284 -0.4073 -0.5030
  830W        W43747  16.775   7.463   6.118  0.0701  0.0250 -0.1616
  831W        W43748  15.126  10.668   6.911 -0.0986  0.2126 -0.1882
  832W        W43749  16.369  11.632   4.545 -0.0058  0.0506 -0.1258
  833W        W43750  16.178   7.811   4.884 -0.0531 -0.0921  0.2329
  834W        W43751  15.713   9.988   4.588 -0.0025 -0.1113  0.0488
  835W        W43752  19.334   6.397   5.073 -0.0018 -0.2068 -0.2233
  836W        W43753  14.397  12.555   4.011  0.1513 -0.5458  0.1771
  837W        W43754  14.823   7.642   6.166 -0.0238  0.1467  0.2339
  838W        W43755  15.632  11.815   3.690  0.0752  0.2832 -0.0042
  839W        W43756  16.513  11.219   5.806  0.0974 -0.1700 -0.1987
  840W        W43757  15.186  12.053   5.301  0.1923 -0.0204 -0.1912
  841W        W43758  15.081   9.789   6.375  0.0256  0.1387  0.0167
  842W        W43759  18.188   9.851   2.883  0.1618  0.0617  0.1623
  843W        W43760  16.166   9.282   6.852  0.2609  0.3387  0.0216
  844W        W43761  18.444   8.900   5.487  0.1204  0.0345 -0.0029
  845W        W43762  15.300  10.162   6.999 -0.1447  0.0200  0.1107
  846W        W43763  16.806  11.061   4.735  0.1370 -0.1482 -0.1489
  847W        W43764  15.840   8.774   6.960  0.0679 -0.2885 -0.0130
  848W        W43765  12.275   9.193   6.558  0.3147 -0.1005  0.1394
  849W        W43766  15.234  10.398   3.855  0.0717 -0.4981  0.4641
  850W        W43767  17.402   9.326   8.024 -0.0543 -0.0410 -0.6819
  851W        W43768  15.864  10.691   3.164 -0.1929 -0.1804  0.0025
  852W        W43769  17.676   9.566   6.645 -0.0335 -0.3936 -0.0685
  853W        W43770  16.187   7.610   4.276 -0.1231 -0.0481  0.1756
  854W        W43771  13.951   9.516   4.119 -0.3041  0.1951 -0.0418
  855W        W43772  14.525  10.261   6.097 -0.1940  0.1758  0.1181
  856W        W43773  16.761  10.335   6.906 -0.0195 -0.1072  0.0528
  857W        W43774  15.293  11.831   7.702 -0.1006  0.1800 -0.1234
  858W        W43775  15.447   9.649   5.780  0.2331 -0.0978  0.2526
  859W        W43776  16.746  10.511   3.519  0.2897 -0.0139  0.3304
  860W        W43777  17.981   8.669   7.072 -0.4123 -0.4202 -0.1598
  861W        W43778  15.426  11.186   3.571  0.0653 -0.5340 -0.0133
  862W        W43779  17.769  10.304   5.485  0.3390 -0.0622  0.0498
  863W        W43780  16.624  10.863   5.378  0.0679  0.2928 -0.0177
  864W        W43781  16.316   6.666   7.194 -0.3376  0.1712  0.1523
  865W        W43782  17.254  11.840   5.497  0.2654 -0.1482  0.0159
  866W        W43783  17.265   9.408   3.706 -0.1349  0.0344 -0.2715
  867W        W43784  17.467  11.761   4.015  0.0248 -0.1185 -0.2845
  868W        W43785  14.997   8.200   6.886 -0.2942  0.0086 -0.1373
  869W        W43786  13.972   8.167   6.792 -0.0550 -0.0938  0.4078
  870W        W43787  18.082   6.713   5.323  0.0700 -0.3066  0.1333
  871W        W43788  17.497   8.282   4.861 -0.2658  0.0120  0.1012
  872W        W43789  16.875  11.011   3.884 -0.3013  0.0518 -0.0994
  873W        W43790  17.881   6.867   6.924  0.2815  0.0836 -0.0737
  874W        W43791  15.056  11.968   5.796 -0.2130 -0.0003  0.1712
  875W        W43792  15.976  12.304   6.807  0.0567 -0.0671 -0.0357
  876W        W43793  14.469   9.131   5.647 -0.0102 -0.3334  0.0982
  877W        W43794  15.841   9.939   7.169 -0.0389 -0.3956  0.3020
  878W        W43795  16.029   9.704   5.056  0.6776 -0.0970 -0.0171
  879W        W43796  15.840  10.267   3.557  0.2715  0.1077  0.2137
  880W        W43797  18.037  10.882   6.757 -0.0232  0.1484  0.0989
  881W        W43798  15.569   9.272   2.761  0.2754 -0.2217  0.1795
  882W        W43799  18.667  11.691   3.395  0.1993  0.1465 -0.0073
  883W        W43800  14.459   6.447   7.647 -0.0828  0.0650  0.0332
  884W        W43801  17.498   9.753   4.647 -0.2901  0.1352  0.1392
  885W        W43802  18.099   8.720   3.666  0.1787 -0.2710 -0.0112
  886W        W43803  16.138   8.820   6.091  0.0442  0.1247 -0.0739
  887W        W43804  12.621   9.708   2.661 -0.0585  0.3427  0.0040
  888W        W43805  14.049  10.476   2.495  0.1049  0.0601  0.1108
  889W        W43806  14.244  10.219   4.893  0.0358  0.1875 -0.2131
  890W        W43807  15.738   7.649   6.690 -0.1623  0.0422  0.1126
  891W        W43808  16.783   8.617   6.588  0.0215 -0.0932  0.1097
  892W        W43809  14.059   7.705   6.910  0.0822  0.0872  0.0781
  893W        W43810  14.186  10.067   4.362  0.2729 -0.1990  0.1217
  894W        W43811  18.023  10.769   5.724  0.1203 -0.3262 -0.0219
  895W        W43812  15.713   8.704   5.213 -0.0562  0.2773 -0.1253
  896W        W43813  15.289   8.342   5.503 -0.1113  0.1151  0.1333
  897W        W43814  16.940   9.815   6.024  0.0693  0.1001  0.2389
  898W        W43815  15.186  11.609   3.837  0.1676  0.1823 -0.0462
  899W        W43816  16.114   8.853   6.577 -0.0905  0.0208  0.0803
  900W        W43817  17.606  11.944   8.843 -0.2701 -0.0882  0.1460
  901W        W43818  14.905  10.216   2.882  0.1469 -0.2083  0.0005
  902W        W43819  17.996   8.998   5.233 -0.1851 -0.3203 -0.2354
  903W        W43820  18.287   8.988   6.779  0.3108 -0.1021 -0.0063
  904W        W43821  14.531   6.951   4.160  0.0740  0.0395 -0.1051
  905W        W43822  15.266   9.810   4.523 -0.2542 -0.0640  0.0122
  906W        W43823  17.051  10.927   5.775  0.3382 -0.2311  0.0061
  907W        W43824  16.051  12.072   4.655  0.1066 -0.0681 -0.1842
  908W        W43825  16.428  10.740   4.926 -0.1113  0.1196  0.3499
  909W        W43826  16.265  11.394   6.578 -0.4482  0.2373  0.1389
  910W        W43827  14.111   9.367   7.636 -0.0482 -0.1339  0.0615
  911W        W43828  15.691  10.507   6.011 -0.3366  0.0332 -0.0114
  912W        W43829  14.888  11.045   5.927  0.0856 -0.1470  0.2843
  913W        W43830  17.017  11.720   4.382  0.3648  0.2219 -0.0031
  914W        W43831  17.801   7.687   5.257  0.3670 -0.2421  0.0133
  915W        W43832  15.705   9.526   4.707  0.1566 -0.1846 -0.1119
  916W        W43833  16.635   7.749   7.637 -0.2323  0.5842 -0.0013
  917W        W43834  15.429  10.914   6.058 -0.4029 -0.1308 -0.1922
  918W        W43835  19.079  11.537   7.392 -0.3455  0.0961  0.0819
  919W        W43836  15.902   7.609   5.989 -0.1261  0.0525 -0.1169
  920W        W43837  17.007   8.524   4.654  0.2774 -0.0996 -0.1778
  921W        W43838  14.915  11.399   2.407 -0.0001  0.1236 -0.2636
  922W        W43839  14.261   8.888   7.701 -0.1864  0.0870  0.1017
  923W        W43840  16.548   9.739   5.066 -0.1562 -0.1365 -0.2117
  924W        W43841  17.768   9.597   7.293  0.0573 -0.1988  0.0446
  925W        W43842  14.341  10.621   5.205  0.2707 -0.1201 -0.1917
  926W        W43843  16.594   9.944   7.846  0.0743 -0.2288 -0.2844
  927W        W43844  15.527   9.025   4.843  0.1090 -0.2277  0.2189
  928W        W43845  16.979  11.085   3.379  0.2682 -0.0160  0.0946
  929W        W43846  15.610  12.576   8.426 -0.3272 -0.0660 -0.0287
  930W        W43847  16.443  11.979   8.208  0.1519 -0.3020 -0.0331
  931W        W43848  17.105  11.651   7.222  0.1371  0.1926 -0.0638
  932W        W43849  18.070   8.569   5.551  0.0175  0.2040  0.2726
  933W        W43850  15.100   6.372   6.289  0.1562 -0.1900 -0.2389
  934W        W43851  16.740  11.907   6.878  0.0176  0.2889  0.2165
  935W        W43852  13.920  10.166   2.920  0.1406 -0.0452  0.0309
  936W        W43853  16.629   8.998   6.901 -0.1413 -0.1031 -0.1415
  937W        W43854  14.246   8.228   6.177  0.2316  0.2562 -0.1602
  938W        W43855  17.835   8.295   4.492  0.1542 -0.1586 -0.2045
  939W        W43856  15.738  10.198   5.282  0.0097 -0.0326 -0.0627
  940W        W43857  17.416  10.478   4.954 -0.4921  0.2464  0.2013
  941W        W43858  13.810  10.140   8.564  0.0707  0.0579 -0.1945
  942W        W43859  16.684   5.942   8.024  0.0207 -0.1245 -0.0362
  943W        W43860  16.589   6.822   7.669 -0.1138 -0.0823 -0.3238
  944W        W43861  17.051  11.421   9.269  0.0394  0.0248 -0.3401
  945W        W43862  14.705   8.633   8.357 -0.1128  0.0148  0.1626
  946W        W43863  18.328   9.830   8.545  0.0433  0.1241  0.0190
  947W        W43864  19.279   9.709   9.513 -0.0807 -0.0059 -0.6576
  948W        W43865  17.987   9.777  10.088 -0.2224 -0.2908  0.2989
  949W        W43866  15.634  11.354   8.261 -0.3767  0.2086 -0.0968
  950W        W43867  15.916  10.112  10.424 -0.2214  0.1235 -0.0237
  951W        W43868  15.926   8.288   8.537 -0.0541 -0.0736  0.2653
  952W        W43869  14.177   6.109   8.961  0.2073 -0.1314  0.0876
  953W        W43870  18.810  11.365   8.617  0.1287  0.1484 -0.0842
  954W        W43871  15.288   8.872   7.211  0.1035  0.0895 -0.0213
  955W        W43872  12.789   9.402   9.833  0.2772 -0.2259  0.2839
  956W        W43873  16.603   7.844   6.770 -0.1334  0.1559 -0.0948
  957W        W43874  17.367  12.126   9.293 -0.0564  0.1792  0.0946
  958W        W43875  15.438   6.292   9.647  0.2377 -0.0272  0.0125
  959W        W43876  14.909  10.195   8.817  0.1351  0.0462  0.1724
  960W        W43877  16.121   7.790   7.564 -0.3219 -0.1098  0.0369
  961W        W43878  15.095   7.310   8.758 -0.3276  0.1292 -0.3086
  962W        W43879  14.447   9.167   9.456  0.3077  0.0925 -0.0514
  963W        W43880  19.410   8.201   8.565 -0.0821 -0.1127  0.2201
  964W        W43881  18.623   8.446   8.176  0.1471  0.1192 -0.3055
  965W        W43882  12.277  11.372   8.940 -0.2455 -0.0328 -0.1946
  966W        W43883  16.916   9.858   9.232 -0.1539 -0.0335  0.1133
  967W        W43884  15.275   8.829   8.439  0.0285  0.0454 -0.2205
  968W        W43885  14.623  10.022   7.759 -0.2293  0.1936  0.1573
  969W        W43886  15.982  11.399   7.875 -0.1404  0.0048 -0.0161
  970W        W43887  18.122   9.256   7.260  0.0621  0.0651  0.1153
  971W        W43888  16.963  10.397   7.412 -0.2296  0.0143 -0.1119
  972W        W43889  15.504   9.639   9.611  0.0385 -0.0208  0.1421
  973W        W43890  16.417  10.990   7.916  0.0839  0.1465 -0.4261
  974W        W43891  15.661  10.249   7.471 -0.2878  0.1608 -0.0372
  975W        W43892  15.459  11.335  10.847  0.1214 -0.2217  0.0808
  976W        W43893  15.674  10.885   7.600  0.0596  0.4861  0.1398
  977W        W43894  16.041  10.577   5.205 -0.0305  0.0897  0.1623
  978W        W43895  18.858   8.773   6.792  0.1592 -0.0874 -0.0226
  979W        W43896  18.588   9.022   7.200  0.1221  0.1806 -0.0704
  980W        W43897  17.578   6.516   5.947 -0.1839  0.0303 -0.1638
  981W        W43898  16.099   7.875   8.824 -0.0936 -0.0679  0.0153
  982W        W43899  15.652  10.896  10.697  0.4061  0.1915  0.0773
  983W        W43900  14.460   5.980   9.676 -0.1433 -0.1982 -0.2095
  984W        W43901  16.427   8.710   7.745 -0.1129  0.2385 -0.1389
  985W        W43902  15.597   7.927   8.551  0.4158  0.1562  0.0493
  986W        W43903  15.637  10.353   8.326 -0.1492  0.2855 -0.0824
  987W        W43904  13.198   9.150   8.338 -0.2030 -0.2431 -0.1151
  988W        W43905  18.941   9.925   9.120  0.2526  0.2597 -0.1971
  989W        W43906  17.165  12.637   8.309 -0.2061 -0.1075 -0.1008
  990W        W43907  18.506  10.506   6.454 -0.1576  0.4116 -0.0554
  991W        W43908  17.913   8.496   7.986 -0.1749  0.1447 -0.2739
  992W        W43909  16.655   9.768   9.831  0.1975 -0.0606  0.4034
  993W        W43910  17.652   8.278   6.935 -0.1579  0.1817  0.1700
  994W        W43911  17.585  10.130   8.676 -0.2122  0.1662  0.1240
  995W        W43912  18.483  11.590   9.409  0.4015  0.2032  0.2599
  996W        W43913  14.677  10.694   6.270 -0.2650  0.1117 -0.2985
  997W        W43914  16.673  10.471   9.792  0.0551 -0.3636  0.2530
  998W        W43915  17.682   8.951   8.248  0.2102 -0.1364 -0.1033
  999W        W43916  17.166   9.047   6.699  0.0523 -0.0141 -0.1584
 1000W        W43917  16.087   9.456   8.600 -0.1813  0.2894 -0.2549
 1001W        W43918  16.554  10.792  10.807  0.1039  0.2080 -0.1023
 1002W        W43919  18.335   7.658   4.955  0.4727 -0.1327  0.0191
 1003W        W43920  15.720  10.343  10.871 -0.2240  0.2411 -0.1037
 1004W        W43921  14.880  10.221   6.453 -0.0902  0.0951 -0.1801
 1005W        W43922  13.675   9.613   8.988 -0.0169 -0.2739 -0.0306
 1006W        W43923  14.956   9.712   8.359  0.0859 -0.1624 -0.2205
 1007W        W43924  15.814   9.758   9.959  0.2799 -0.1205  0.3416
 1008W        W43925  15.729   9.716   9.201 -0.2243  0.1175  0.0298
 1009W        W43926  17.892   6.377   5.593  0.1753 -0.0341 -0.0964
 1010W        W43927  17.934   7.291   8.092 -0.0264 -0.2322 -0.2188
 1011W        W43928  15.000   9.714   8.896  0.0200  0.1252  0.1580
 1012W        W43929  17.793  10.708   7.946  0.0431 -0.3207 -0.0521
 1013W        W43930  18.622   9.315   8.588  0.0709  0.0686  0.0814
 1014W        W43931  19.188  10.521   8.204 -0.1196 -0.0474  0.0435
 1015W        W43932  11.992   8.452   7.623  0.0167 -0.3935  0.1124
 1016W        W43933  16.850  10.556   8.701  0.0989 -0.3196  0.1650
 1017W        W43934  17.364  10.434   9.494 -0.1027  0.0923 -0.3303
 1018W        W43935  14.842   5.431   7.701 -0.0553 -0.1425 -0.0919
 1019W        W43936  16.310   8.735   7.122  0.0891  0.0104 -0.2745
 1020W        W43937  14.589   6.780   9.403  0.0684  0.1549  0.2691
 1021W        W43938  14.674   8.233   8.021  0.1937 -0.1293 -0.0412
 1022W        W43939  14.456   9.584   8.150  0.1098 -0.2853 -0.2509
 1023W        W43940  16.526  10.304  10.367 -0.1967  0.1413  0.0723
 1024W        W43941  16.900  12.546  10.082  0.2672  0.1726  0.0356
 1025W        W43942  13.636   7.108   9.697  0.1124  0.0197 -0.1295
 1026W        W43943  14.548   7.273   9.649 -0.0112 -0.1284 -0.0107
 1027W        W43944  15.266  10.644   7.383  0.0117 -0.0719 -0.3146
 1028W        W43945  14.980  11.739   9.573  0.0924  0.2296  0.1252
 1029W        W43946  15.693   9.297   7.098 -0.2987 -0.2402  0.0067
 1030W        W43947  18.974   9.040   8.808 -0.1479 -0.2651 -0.1920
 1031W        W43948  15.342   7.323   8.321 -0.3059 -0.3400  0.1242
 1032W        W43949  20.163   8.582   9.151  0.1177  0.2028 -0.0359
 1033W        W43950  17.090   9.615   8.357 -0.0830 -0.0195  0.0048
 1034W        W43951  16.074   7.965   6.837  0.5207 -0.0304 -0.0342
 1035W        W43952  16.653  10.840   7.447  0.0135 -0.1637  0.2046
 1036W        W43953  15.014  10.555   7.882 -0.1875 -0.1442 -0.0493
 1037W        W43954  15.878  10.825   8.125 -0.1309  0.0719  0.0876
 1038W        W43955  20.502  11.089   9.660  0.3201 -0.0379  0.0567
 1039W        W43956  18.176   8.988   8.222  0.0500 -0.2491  0.0519
 1040W        W43957  15.905   9.431   7.541 -0.1161  0.1937 -0.3625
 1041W        W43958  16.905   8.652   7.938  0.2362  0.0891 -0.2307
 1042W        W43959  21.091   7.452   6.075  0.0546  0.2453  0.0747
 1043W        W43960  18.858  10.947   8.905 -0.0572  0.0328 -0.2375
 1044W        W43961  16.057   9.872   6.701 -0.0241 -0.0988  0.0601
 1045W        W43962  17.074   7.401   7.660 -0.0031  0.0199 -0.3721
 1046W        W43963  15.747  10.109   7.963  0.0989 -0.0562  0.1912
 1047W        W43964  17.683  11.204   9.453  0.0808  0.0824 -0.2883
 1048W        W43965  17.235   7.348   5.869  0.1515  0.2384  0.2476
 1049W        W43966  21.307  10.489   8.232 -0.1850 -0.0381  0.2639
 1050W        W43967  18.222  10.917  11.459 -0.0383 -0.0281 -0.1268
 1051W        W43968  17.322  11.596  10.204  0.1304  0.2074 -0.1704
 1052W        W43969  20.028   9.029   9.541  0.0724  0.0345 -0.1279
 1053W        W43970  15.349   7.726   6.994 -0.0496  0.0933  0.1406
 1054W        W43971  15.643   8.169   9.345 -0.0954  0.0822  0.2867
 1055W        W43972  15.098   9.172   8.150  0.0192  0.2434 -0.2865
 1056W        W43973  16.161   7.154   8.048 -0.0412 -0.3484  0.0289
 1057W        W43974  18.580  10.012   9.896 -0.3601 -0.0623 -0.2867
 1058W        W43975  18.276  10.787   8.675 -0.1715  0.4464 -0.1918
 1059W        W43976  19.647   9.584   9.917 -0.0111 -0.4074 -0.2550
 1060W        W43977  13.830   6.621   9.835 -0.0178  0.1531  0.5072
 1061W        W43978  17.715   8.658   8.683  0.2970 -0.0038 -0.0031
 1062W        W43979  18.455   9.629   8.985  0.2621  0.0019 -0.2021
 1063W        W43980  16.593  10.030   7.352 -0.2362  0.3404  0.2184
 1064W        W43981  15.809   9.212   9.145 -0.0951  0.2064 -0.1084
 1065W        W43982  15.514  12.595   7.015 -0.1159  0.2866  0.2120
 1066W        W43983  14.672   9.405   6.570 -0.0879  0.0086 -0.1938
 1067W        W43984  13.413   4.406  11.235  0.1585  0.1516  0.2500
 1068W        W43985  16.953  12.381   9.086  0.0240 -0.2309 -0.2170
 1069W        W43986  16.560  10.098   6.307 -0.1720  0.2422 -0.5090
 1070W        W43987  19.025   8.205   9.025 -0.1574  0.1732  0.0583
 1071W        W43988  15.336  10.446   6.574 -0.1791  0.0711 -0.0709
 1072W        W43989  17.360   7.279   8.092  0.0953 -0.0730  0.0195
 1073W        W43990  15.098  11.361  10.403 -0.0205  0.1075 -0.4048
 1074W        W43991  16.617   8.169   8.073  0.0440 -0.0456 -0.0884
 1075W        W43992  13.320   9.891   8.681 -0.0298  0.7186 -0.0119
 1076W        W43993  17.256   8.699   7.191 -0.0445 -0.1853 -0.1863
 1077W        W43994  19.901   9.686   8.361  0.1252 -0.0127  0.1127
 1078W        W43995  15.243   7.802   9.454 -0.2710  0.2619 -0.0254
 1079W        W43996  17.768   9.283   9.143  0.1105 -0.1999  0.0052
 1080W        W43997  15.628  11.834  10.511  0.1468 -0.0011  0.1406
 1081W        W43998  17.694   7.374   5.717 -0.0321  0.1209  0.0675
 1082W        W43999  15.870   8.752   8.316  0.1396  0.0128 -0.0431
 1083W        W44000  16.425   7.236   8.518 -0.1619 -0.0787 -0.1992
 1084W        W44001  14.843  10.078   9.312 -0.2757  0.1915  0.2900
 1085W        W44002  13.684   9.617   9.496 -0.3293 -0.0286 -0.3397
 1086W        W44003  17.793  11.850  10.072 -0.0879 -0.1179  0.2373
 1087W        W44004  15.348   9.424   9.165  0.1998  0.1129  0.2262
 1088W        W44005  15.601  10.938   6.753 -0.0325  0.3077 -0.2702
 1089W        W44006  15.269   8.938  10.018 -0.0288  0.1065  0.1508
 1090W        W44007  16.272   8.986   9.198 -0.2710 -0.1232 -0.0470
 1091W        W44008  15.999   8.465   8.982 -0.3885  0.3105  0.1982
 1092W        W44009  17.257   9.642  10.225  0.1502 -0.1298 -0.3006
 1093W        W44010  19.122   8.747   9.965  0.1135  0.0150  0.0292
 1094W        W44011  16.028   9.478   9.540 -0.2381  0.0518  0.2715
 1095W        W44012  15.310   7.393   7.833  0.2440 -0.0324 -0.0771
 1096W        W44013  18.777  13.361   8.280  0.1898 -0.2163 -0.3698
 1097W        W44014  15.392  10.097   6.178 -0.0634 -0.1436  0.1965
 1098W        W44015  14.838   8.745   7.836  0.3836  0.1538 -0.1289
 1099W        W44016  14.776  11.190  10.025 -0.0388  0.3293 -0.2150
 1100W        W44017  14.050   9.757  10.351  0.0458 -0.1692 -0.0260
 1101W        W44018  15.848  11.235  11.166 -0.0149  0.0166 -0.0400
 1102W        W44019  16.431   9.672   8.321  0.0897  0.0152 -0.1383
 1103W        W44020  15.315   9.995   9.166 -0.3149 -0.3584 -0.1204
 1104W        W44021  18.922   6.695   8.167 -0.2451  0.0716  0.5745
 1105W        W44022  17.557  10.867   6.939 -0.0621  0.1999 -0.1098
 1106W        W44023  16.565  10.936  10.221 -0.0976 -0.3018  0.0689
 1107W        W44024  16.808   9.159   7.697  0.1864 -0.1608 -0.0931
 1108W        W44025  17.397   8.576   8.051  0.1258 -0.4562  0.1719
 1109W        W44026  19.055   9.775  10.069 -0.1973 -0.1076  0.0460
 1110W        W44027  16.335   9.071   8.294  0.1875  0.0778  0.2093
 1111W        W44028  15.750   7.208   7.582 -0.1908 -0.2224 -0.0890
 1112W        W44029  15.698   7.929  11.703  0.3249  0.1828  0.0764
 1113W        W44030  17.498   9.691   9.349 -0.1059 -0.2709 -0.1107
 1114W        W44031  19.493  10.725   6.780 -0.1295 -0.0165  0.1419
 1115W        W44032  16.012  10.525   7.761  0.2655  0.0097 -0.2949
 1116W        W44033  18.641   9.774   9.452  0.3095 -0.2649 -0.2570
 1117W        W44034  13.330   9.697  10.184 -0.0985  0.1655  0.0449
 1118W        W44035  16.313  10.329   6.675  0.1608  0.2022 -0.1265
 1119W        W44036  15.435  10.447   8.816 -0.2041 -0.3450  0.3190
 1120W        W44037  18.174   8.518   8.932 -0.0542  0.1234  0.1580
 1121W        W44038  15.792  11.539   8.793 -0.1989  0.2333  0.1045
 1122W        W44039  21.157   9.572   9.364 -0.0068  0.3123  0.1081
 1123W        W44040  18.282   7.927   6.108  0.0626 -0.1982 -0.1690
 1124W        W44041  20.695   9.695   9.594  0.0848 -0.0103  0.2589
 1125W        W44042  16.449   9.679   9.365  0.1398 -0.0091  0.2289
 1126W        W44043  16.476   9.251   8.749  0.2494  0.0703  0.1870
 1127W        W44044  15.464   9.102   9.568 -0.2222  0.2796  0.1878
 1128W        W44045  15.995   8.426   7.307 -0.1095  0.1762 -0.2399
 1129W        W44046  16.265  10.289   8.636 -0.1124  0.0760  0.0932
 1130W        W44047  17.075  10.115   8.688 -0.3817  0.0895  0.0818
 1131W        W44048  17.789   9.086   6.844  0.2047  0.0895  0.4066
 1132W        W44049  14.514   9.828   8.978  0.0701 -0.0417  0.0541
 1133W        W44050  16.021   8.016   8.110 -0.3078 -0.0996 -0.0718
 1134W        W44051  17.961   8.889   6.374  0.0127 -0.0126  0.1317
 1135W        W44052  12.879  11.021  10.749  0.1016 -0.0280 -0.0955
 1136W        W44053  17.314   6.039   5.844 -0.0936  0.1907  0.2894
 1137W        W44054  15.151   8.226   8.351 -0.2395  0.2563 -0.3541
 1138W        W44055  16.164   7.382   8.943 -0.2717 -0.0436  0.0122
 1139W        W44056  13.799  10.721   9.570 -0.2415 -0.1900 -0.2304
 1140W        W44057  14.789  11.209   7.185  0.0526 -0.2946 -0.1834
 1141W        W44058  19.064   7.333   9.013  0.0173  0.2982  0.1286
 1142W        W44059  17.880   7.564   9.004  0.0098  0.0201 -0.1613
 1143W        W44060  18.084   9.447   8.697 -0.0689  0.1326  0.4687
 1144W        W44061  15.637   9.654   8.730 -0.2946  0.1801  0.2518
 1145W        W44062  18.077   9.818   9.564 -0.0721 -0.1936  0.0853
 1146W        W44063  15.426  11.620   9.294 -0.0386  0.0289 -0.0841
 1147W        W44064  13.428   9.301   9.226  0.1527 -0.1677 -0.0072
 1148W        W44065  17.198   8.216   7.218  0.0475 -0.1310 -0.1027
 1149W        W44066  16.550  10.471   7.748  0.0351 -0.0489  0.0892
 1150W        W44067  14.777   8.233   9.459  0.0772 -0.1785  0.2719
 1151W        W44068  15.203  10.168   7.641 -0.1736  0.0879 -0.0127
 1152W        W44069  17.270   9.978   9.641 -0.2681 -0.2613  0.2995
 1153W        W44070  15.029   9.730   7.740  0.3912  0.1499  0.0407
 1154W        W44071  18.753  11.710  10.555  0.0301 -0.2439  0.3131
 1155W        W44072  16.440   9.170   7.392 -0.0585  0.0956 -0.1233
 1156W        W44073  13.662  12.284   9.131  0.0961 -0.1995 -0.0671
 1157W        W44074  14.315  10.343   7.233  0.0508  0.3122 -0.2715
 1158W        W44075  16.177  11.365   8.342  0.2196 -0.0830  0.0567
 1159W        W44076  20.216   7.432   6.581  0.0507  0.0217  0.0519
 1160W        W44077  17.603   9.544   9.787 -0.0256  0.1294 -0.3690
 1161W        W44078  17.750   9.055   7.783 -0.0222  0.1431  0.0847
 1162W        W44079  16.069  11.206   9.043 -0.0106  0.0847 -0.1334
 1163W        W44080  15.964   9.889   8.400  0.1435  0.0103  0.2052
 1164W        W44081  19.232  10.975   8.507  0.4544 -0.0130 -0.2596
 1165W        W44082  14.757   8.723   9.245  0.2642  0.3225 -0.4029
 1166W        W44083  16.371  11.757  10.761 -0.2657 -0.0397  0.0077
 1167W        W44084  20.276   7.760   8.411  0.1082  0.1053  0.2664
 1168W        W44085  13.986  10.523   6.282 -0.1672  0.4449  0.0904
 1169W        W44086  17.964   9.809   8.971 -0.0262  0.0712  0.3121
 1170W        W44087  16.987  11.879   7.642 -0.2286  0.1976 -0.0151
 1171W        W44088  12.867  12.755  10.982 -0.0559 -0.2546  0.1580
 1172W        W44089  16.317  11.040  11.183  0.1660 -0.1638 -0.1474
 1173W        W44090  14.655   7.082   8.983  0.2418 -0.0219 -0.1626
 1174W        W44091  18.833   7.984   9.475  0.2690  0.0434 -0.1937
 1175W        W44092  20.394   9.063   8.856 -0.2887 -0.2062 -0.1179
 1176W        W44093  14.193   6.727  10.272 -0.1949 -0.0848 -0.4823
 1177W        W44094  18.563   8.806   8.619 -0.1815 -0.0156  0.1157
 1178W        W44095  18.521   8.194   8.654 -0.1385 -0.3991 -0.2202
 1179W        W44096  14.239   9.795   8.568  0.1020 -0.1966 -0.0668
 1180W        W44097  16.114  10.361   5.714 -0.1923  0.1313  0.3557
 1181W        W44098  17.138  10.015   7.188  0.0340 -0.1661 -0.0100
 1182W        W44099  17.993   9.280  10.265  0.1712  0.0548  0.0527
 1183W        W44100  17.972   7.235   6.124 -0.0295  0.1440 -0.5569
 1184W        W44101  14.939   8.564   7.277  0.0300 -0.0482  0.2079
 1185W        W44102  16.247   9.774   8.897 -0.3310 -0.4807 -0.0078
 1186W        W44103  17.395   5.579   8.904 -0.1145 -0.1068  0.0231
 1187W        W44104  17.855  11.176   7.628  0.1635 -0.1823 -0.0974
 1188W        W44105  16.568  10.166   9.430 -0.2300  0.1191  0.0479
 1189W        W44106  15.141  11.542   7.230  0.0070  0.0744 -0.2206
 1190W        W44107  17.940   9.839   8.165 -0.0671 -0.1611 -0.2071
 1191W        W44108  16.995   8.939   9.729  0.1194  0.0730  0.0725
 1192W        W44109  18.189  11.191   9.475 -0.1705  0.0677  0.1108
 1193W        W44110  20.514  10.839   9.065  0.2564 -0.3215 -0.0510
 1194W        W44111  18.106   8.581   8.440 -0.0162 -0.1133 -0.0848
 1195W        W44112  12.147   8.841   9.279  0.3634 -0.1875 -0.2108
 1196W        W44113  13.731  10.032  10.020  0.1901 -0.0988 -0.0766
 1197W        W44114  15.630   5.620   8.991 -0.1552  0.1976  0.3675
 1198W        W44115  16.756   9.344   8.137 -0.1446  0.0712 -0.0201
 1199W        W44116  17.053  12.450   9.614 -0.2576  0.0955 -0.0544
 1200W        W44117  14.406   7.614   7.251  0.3806 -0.1407 -0.0449
 1201W        W44118  16.782  12.104   9.976  0.2757 -0.1378  0.0385
 1202W        W44119  15.846  10.080   8.851 -0.0540 -0.0510  0.1680
 1203W        W44120  17.860  10.484   8.856  0.0823  0.2377 -0.1838
 1204W        W44121  17.853  10.185   9.276  0.2142 -0.0386 -0.1656
 1205W        W44122  20.107  12.216   8.048  0.0651  0.5479 -0.0804
 1206W        W44123  13.779   8.972   9.069 -0.1322 -0.1631  0.3890
 1207W        W44124  17.708   9.619   7.798 -0.0102 -0.2579  0.0240
 1208W        W44125  17.231   8.218   6.731 -0.0174  0.0981  0.0834
 1209W        W44126  16.031  10.030   9.409  0.1761  0.1711  0.0318
 1210W        W44127  15.179   8.927   9.112 -0.2661  0.1248  0.1954
 1211W        W44128  16.103  10.016   7.617 -0.2725  0.0194  0.1568
 1212W        W44129  14.670  11.017   7.903  0.0568 -0.0588 -0.1242
 1213W        W44130  14.520   9.672   9.606  0.0738 -0.0037  0.1056
 1214W        W44131  15.135   8.305   9.175  0.2577 -0.3618 -0.1347
 1215W        W44132  16.912  10.632   8.215 -0.0303  0.2841 -0.0490
 1216W        W44133  14.555   9.267   8.588  0.3065 -0.4365  0.0935
 1217W        W44134  16.132   5.597  10.015 -0.0308  0.2487 -0.2143
 1218W        W44135  16.146  10.813   7.399 -0.0309 -0.0809 -0.1222
 1219W        W44136  15.342  11.124   9.222 -0.2104 -0.1586 -0.1936
 1220W        W44137  16.906   6.361   7.794 -0.2816 -0.0033 -0.1152
 1221W        W44138  14.485  10.706   7.602  0.2133  0.0588  0.1504
 1222W        W44139  15.437   8.391   6.989 -0.1059 -0.1335 -0.1416
 1223W        W44140  17.063   9.449   9.595 -0.0048  0.1578 -0.2058
 1224W        W44141  15.439  11.334   7.821 -0.4001 -0.2132 -0.1750
 1225W        W44142  18.682  10.926   8.393 -0.1123 -0.0215  0.2868
 1226W        W44143  14.161  10.156   9.471 -0.1862  0.0169  0.0998
 1227W        W44144  17.848   8.161   9.129 -0.1662 -0.2289  0.0563
 1228W        W44145  15.844  10.763   9.144 -0.0304 -0.0718  0.2032
 1229W        W44146  18.775   7.779   8.937 -0.0589  0.1716 -0.0558
 1230W        W44147  17.046  10.135   7.987 -0.1993 -0.1094  0.1579
 1231W        W44148  20.199  10.694   9.952 -0.0256 -0.1683  0.1015
 1232W        W44149  16.700   9.703   8.747  0.3546  0.1262  0.0968
 1233W        W44150  16.846   8.812   9.071  0.0099 -0.1804 -0.0606
 1234W        W44151  16.137  11.847   6.919 -0.1573  0.3776 -0.0118
 1235W        W44152  15.216  10.147   9.699 -0.5075 -0.0820  0.1171
 1236W        W44153  16.589  11.363   8.965 -0.0206  0.0024  0.1580
 1237W        W44154  16.983  11.650   9.875  0.1435 -0.2215  0.2107
 1238W        W44155  15.556   9.030   8.799 -0.0439 -0.0150  0.0050
 1239W        W44156  17.909   9.386   8.143 -0.0089  0.4626  0.2267
 1240W        W44157  16.082  10.702  10.596 -0.1793  0.1466 -0.6063
 1241W        W44158  17.016  10.835   9.533  0.0259  0.2155  0.1230
 1242W        W44159  20.259   6.188   9.456 -0.0493 -0.0327 -0.2632
 1243W        W44160  15.658  10.328   9.261  0.0078 -0.0525 -0.1747
 1244W        W44161  15.011  10.546  10.080 -0.0594 -0.3633 -0.1490
 1245W        W44162  15.575  11.879   7.298 -0.1669  0.0470 -0.0545
 1246W        W44163  18.885   9.365   9.751  0.1217 -0.1494  0.0692
 1247W        W44164  13.319   8.995   8.816 -0.0063  0.0359 -0.3318
 1248W        W44165  16.966   6.734   5.910 -0.2531  0.2064 -0.2427
 1249W        W44166  17.287  11.215   9.806  0.0110 -0.0940 -0.2398
 1250W        W44167  14.885  10.165  10.990  0.3539 -0.1931 -0.0585
 1251W        W44168  15.531  12.837   3.023  0.3056 -0.0252  0.2301
 1252W        W44169  15.388  12.750   0.318 -0.0855 -0.1575 -0.0637
 1253W        W44170  17.930   8.147  31.303 -0.0589 -0.0717 -0.0450
 1254W        W44171  18.706  14.745   0.252  0.1090  0.1039  0.3488
 1255W        W44172  13.617  14.168   0.238  0.1150  0.0904  0.0269
 1256W        W44173  15.311  16.500   0.931 -0.2110 -0.0156  0.0813
 1257W        W44174  14.068  13.976   2.928 -0.2815  0.2617 -0.0413
 1258W        W44175  16.508  14.502   0.112 -0.1305 -0.1109  0.3419
 1259W        W44176  17.807  12.463   1.645 -0.0928  0.0866 -0.1363
 1260W        W44177  16.331  13.659   1.227 -0.0257  0.0248  0.1723
 1261W        W44178  15.497  12.725   4.701  0.0750 -0.0257  0.0420
 1262W        W44179  14.631  14.865   2.283  0.0061 -0.1423 -0.0196
 1263W        W44180  14.655  11.426  29.893 -0.0234 -0.0071  0.1862
 1264W        W44181  16.073   9.567   2.773  0.0354 -0.4066  0.0851
 1265W        W44182  16.377  13.272   3.280 -0.0058 -0.2260  0.1010
 1266W        W44183  14.191  14.147   0.807  0.1539 -0.0049 -0.0796
 1267W        W44184  15.744  15.061   0.018  0.0482  0.1986 -0.1024
 1268W        W44185  16.200  12.136   2.595  0.3445 -0.4380 -0.1057
 1269W        W44186  16.346  13.482  30.878  0.0561  0.3497  0.2087
 1270W        W44187  16.173  13.176   2.748 -0.1698 -0.1525  0.0652
 1271W        W44188  17.203  12.629   1.257  0.0192 -0.1499 -0.0213
 1272W        W44189  15.614  15.294   1.366 -0.1055  0.0782  0.1758
 1273W        W44190  14.745  12.464  30.215  0.0866 -0.2791 -0.0481
 1274W        W44191  14.693  14.120   1.754  0.0687 -0.1518 -0.2466
 1275W        W44192  15.980  13.003   3.193  0.0735  0.1214 -0.1388
 1276W        W44193  17.809  14.054   2.232 -0.1164  0.2034  0.1895
 1277W        W44194  18.962  13.262   1.537  0.0013  0.1362 -0.2481
 1278W        W44195  15.290  15.912  31.336 -0.0696 -0.1220 -0.0141
 1279W        W44196  16.916  16.063   0.390 -0.4319 -0.4057 -0.0858
 1280W        W44197  17.531  14.233   3.119 -0.0617  0.1261 -0.0431
 1281W        W44198  14.578  14.021  31.749 -0.0708  0.0425 -0.1186
 1282W        W44199  14.422  13.798  30.707 -0.4319 -0.0538  0.1937
 1283W        W44200  14.417  16.654   1.223 -0.1974  0.0751  0.5084
 1284W        W44201  18.566  15.544  28.615  0.0664 -0.0583 -0.1788
 1285W        W44202  17.886  13.597   0.929  0.1066 -0.2425  0.2748
 1286W        W44203  16.375  16.577   2.865  0.0308 -0.2671  0.0129
 1287W        W44204  15.480  15.474  31.681  0.3570  0.0617  0.0738
 1288W        W44205  16.493  15.755   1.820 -0.0300 -0.0877  0.1435
 1289W        W44206  13.690  15.719   2.579  0.2156  0.1862 -0.1449
 1290W        W44207  15.481  14.963   3.500  0.3552  0.1248 -0.1708
 1291W        W44208  16.400  13.302   0.469  0.1533  0.3578 -0.1625
 1292W        W44209  14.947  16.399   1.228  0.1839  0.2271 -0.1736
 1293W        W44210  15.012  15.053   0.362  0.1768 -0.3302 -0.3540
 1294W        W44211  17.421  14.475   2.558 -0.2130  0.0149 -0.0809
 1295W        W44212  13.546  14.252  30.963 -0.2867  0.1119  0.0410
 1296W        W44213  16.527  12.487   3.840  0.1096 -0.0457 -0.2071
 1297W        W44214  16.070  14.518  30.150 -0.3496 -0.0292  0.0750
 1298W        W44215  15.578  11.454  30.694  0.1520 -0.1225 -0.0251
 1299W        W44216  14.868  12.863   2.412 -0.0613  0.0784  0.0064
 1300W        W44217  17.653  13.067  31.799 -0.1107 -0.2170 -0.1870
 1301W        W44218  15.610  11.803   2.035 -0.2944 -0.4750  0.0750
 1302W        W44219  17.596  16.198   1.911 -0.1333 -0.2278 -0.2044
 1303W        W44220  15.144  11.283   1.233  0.0825 -0.0014 -0.2058
 1304W        W44221  17.267  13.619   2.253  0.1026  0.2174  0.2244
 1305W        W44222  17.684  12.209   0.857  0.1249 -0.0870 -0.2749
 1306W        W44223  15.703  14.269   1.413  0.0861 -0.1651  0.1151
 1307W        W44224  13.738  13.906   2.069  0.0222 -0.0213  0.2733
 1308W        W44225  15.363  12.686  31.790  0.0057  0.1967  0.2015
 1309W        W44226  16.342  13.526  30.328 -0.1143 -0.0781 -0.3305
 1310W        W44227  16.713  13.041  31.651 -0.0008 -0.2761 -0.0593
 1311W        W44228  16.346  14.537  29.024 -0.0908  0.0343  0.0362
 1312W        W44229  13.315  14.183   1.903 -0.0608 -0.0789  0.1058
 1313W        W44230  16.320  15.598   2.309 -0.1084 -0.3152  0.0272
 1314W        W44231  15.113  12.088   2.428  0.0453 -0.3581  0.0755
 1315W        W44232  13.579  10.551   0.491  0.1411  0.3321 -0.0555
 1316W        W44233  17.420  13.892   0.478  0.0684 -0.0929  0.0852
 1317W        W44234  16.193  15.537   3.616 -0.2846 -0.1925 -0.3515
 1318W        W44235  18.499  11.406  31.598  0.0482  0.0299  0.3879
 1319W        W44236  16.045  12.485   3.406  0.1425  0.2457  0.1543
 1320W        W44237  16.668  14.414   0.807 -0.1968  0.0901  0.2008
 1321W        W44238  15.242  14.817  31.878  0.0339  0.0918  0.1889
 1322W        W44239  18.394  11.489   0.136  0.1545  0.2494  0.0991
 1323W        W44240  16.655   9.969   0.913 -0.1554 -0.1692 -0.3063
 1324W        W44241  15.051  13.117   0.147  0.1377  0.1597 -0.0867
 1325W        W44242  15.645  14.565   0.238  0.0435  0.1446 -0.2555
 1326W        W44243  17.078  13.291   0.059  0.4020 -0.0778 -0.0499
 1327W        W44244  17.844  11.787  29.871  0.0585 -0.1254 -0.2308
 1328W        W44245  14.049  15.520   0.171  0.0360 -0.3965  0.1142
 1329W        W44246  15.781  13.770   4.444 -0.2385  0.3502 -0.1929
 1330W        W44247  15.263  15.547   4.678 -0.0740  0.1459 -0.1557
 1331W        W44248  13.831  17.023  31.721  0.1510 -0.1773  0.2634
 1332W        W44249  15.751  15.770   1.231  0.0403 -0.0691  0.0610
 1333W        W44250  15.815  12.488   0.878 -0.0440  0.1387  0.1842
 1334W        W44251  14.663  13.281   4.178 -0.1184  0.0930 -0.0224
 1335W        W44252  13.904  14.832   3.521 -0.2190  0.1366 -0.2107
 1336W        W44253  17.011  11.472  29.206  0.0348  0.0277 -0.4495
 1337W        W44254  14.979  13.869   3.184 -0.0025 -0.1170  0.0583
 1338W        W44255  17.281  11.326   0.374  0.1989 -0.1504 -0.0712
 1339W        W44256  14.511  13.576   0.720 -0.0517 -0.1127 -0.0865
 1340W        W44257  16.845  14.137  31.113 -0.1917  0.0801 -0.0963
 1341W        W44258  16.305  12.500  31.425 -0.1226  0.0797 -0.0626
 1342W        W44259  16.387  12.794   0.614 -0.1953  0.0172  0.1771
 1343W        W44260  15.272  13.511   2.937  0.1490  0.1232 -0.1544
 1344W        W44261  14.982  11.948   1.060  0.0516  0.0452 -0.0133
 1345W        W44262  15.312  11.510   2.983 -0.2414  0.2914 -0.1905
 1346W        W44263  14.755   9.950   0.466  0.3433 -0.1713  0.1066
 1347W        W44264  18.465  14.114   0.865 -0.2126 -0.1506 -0.0871
 1348W        W44265  15.812  10.503   1.630  0.0406  0.0327 -0.3267
 1349W        W44266  16.442  11.681   1.087  0.1397 -0.1302  0.1250
 1350W        W44267  16.709  12.054   1.297 -0.1651  0.1371 -0.2989
 1351W        W44268  13.762  14.461   1.998 -0.0134  0.2257 -0.0091
 1352W        W44269  16.214  11.627   3.376 -0.0692 -0.0207  0.0284
 1353W        W44270  17.174  14.148  30.118 -0.0421 -0.1020  0.0957
 1354W        W44271  19.908  15.432   1.144  0.2927 -0.0929  0.0137
 1355W        W44272  16.261  16.305   0.426 -0.0167 -0.1211 -0.2904
 1356W        W44273  15.482  11.539   1.669  0.2689  0.1249  0.1448
 1357W        W44274  15.984  11.894   0.204 -0.2502 -0.1165  0.3784
 1358W        W44275  13.346  16.400   1.213  0.2144 -0.0398 -0.3214
 1359W        W44276  14.593  14.695   1.819 -0.0979  0.0493  0.0115
 1360W        W44277  14.489  13.053   1.921  0.0885 -0.0860 -0.1751
 1361W        W44278  18.324  14.816  30.585 -0.1192 -0.1671 -0.1546
 1362W        W44279  16.480  12.741  29.594  0.3082  0.4694  0.0538
 1363W        W44280  14.851  14.414   2.234  0.2944  0.2936 -0.2288
 1364W        W44281  16.243  10.204   3.135  0.0415 -0.0972  0.1490
 1365W        W44282  18.315  11.729   1.491  0.0726  0.0981 -0.4085
 1366W        W44283  17.089  10.723   0.515 -0.0919  0.3314 -0.1659
 1367W        W44284  15.454  10.098   1.144  0.2374 -0.1978  0.0056
 1368W        W44285  15.298  14.038   0.150  0.0143  0.2830  0.1010
 1369W        W44286  11.807  15.377  29.689  0.1226 -0.1191  0.3190
 1370W        W44287  14.279  13.714   3.942  0.1611 -0.1114  0.1716
 1371W        W44288  16.488  14.733   1.952  0.1966  0.0235 -0.2766
 1372W        W44289  16.950  12.131  31.106 -0.1550  0.0241  0.2292
 1373W        W44290  14.452  15.314   2.374  0.0434  0.2109 -0.3804
 1374W        W44291  13.375  14.845   3.793 -0.0594  0.0044 -0.2384
 1375W        W44292  14.764  14.557   0.010  0.0014  0.0758  0.1775
 1376W        W44293  14.604  12.960   3.359  0.1851 -0.0958  0.1923
 1377W        W44294  16.407  11.328  31.600  0.1590  0.0469 -0.1158
 1378W        W44295  17.270  12.475  31.023 -0.1867  0.0137 -0.1467
 1379W        W44296  17.055  14.885   2.710 -0.0663  0.4059  0.0207
 1380W        W44297  17.723  13.589  29.014  0.2023 -0.1777 -0.1175
 1381W        W44298  16.439  10.952  30.724 -0.0308  0.1826 -0.1296
 1382W        W44299  17.062   9.818   0.684 -0.1397  0.2502 -0.1522
 1383W        W44300  15.540  13.802   3.249 -0.2069 -0.2127 -0.0168
 1384W        W44301  14.689  16.861   0.262  0.1412 -0.1428  0.1768
 1385W        W44302  15.531  13.684   0.578 -0.0532 -0.0325  0.1340
 1386W        W44303  16.809  11.697  31.755 -0.0112  0.0312  0.0510
 1387W        W44304  17.024  13.978   0.072 -0.1622  0.1064 -0.0354
 1388W        W44305  14.835  13.230   0.762  0.0163  0.0473 -0.1086
 1389W        W44306  15.884  12.614   2.089  0.1093  0.2818 -0.1928
 1390W        W44307  17.059  13.205  30.817  0.1357 -0.0761 -0.0336
 1391W        W44308  15.736  11.682   3.189  0.3414  0.1776 -0.1374
 1392W        W44309  15.036  13.636   0.962  0.1779 -0.1246 -0.2027
 1393W        W44310  16.963  12.270   1.701  0.2247 -0.1576 -0.2411
 1394W        W44311  13.518  15.250  31.411  0.1316 -0.0537  0.3944
 1395W        W44312  16.569  11.834   3.016 -0.1291  0.1244 -0.1529
 1396W        W44313  16.421  11.827   0.611 -0.2962 -0.0499 -0.0336
 1397W        W44314  17.321  10.940   2.133  0.1389  0.3482  0.0897
 1398W        W44315  16.674  12.011   2.367  0.1559  0.0432 -0.0720
 1399W        W44316  15.422  13.712   1.402  0.2273 -0.1280  0.1464
 1400W        W44317  17.355  13.585   0.902 -0.1130 -0.3122 -0.1844
 1401W        W44318  15.366  13.131   2.615  0.3824 -0.3984 -0.0022
 1402W        W44319  17.462  11.323   2.726 -0.0629 -0.2324  0.0225
 1403W        W44320  14.394  14.795   3.145 -0.0983  0.3141  0.2333
 1404W        W44321  15.034  16.554   0.502 -0.0894 -0.0294 -0.1535
 1405W        W44322  17.226  12.215   2.579 -0.1778  0.0192  0.0105
 1406W        W44323  16.472  14.545   1.358  0.1342  0.1059  0.1106
 1407W        W44324  15.743  11.407   2.777 -0.0491  0.2970  0.0817
 1408W        W44325  15.364  12.112  31.830  0.1436 -0.1124  0.1284
 1409W        W44326  16.043  14.586  31.743  0.0235 -0.1496 -0.0892
 1410W        W44327  15.472  13.253   1.670 -0.2890  0.0426  0.1079
 1411W        W44328  14.756  11.748   2.066 -0.1178  0.1245  0.0825
 1412W        W44329  17.180  14.763   2.141  0.0495 -0.4199  0.0097
 1413W        W44330  16.195  16.426  31.269  0.1685  0.3589  0.0172
 1414W        W44331  16.771  13.741   2.089  0.1074 -0.0748 -0.3789
 1415W        W44332  13.945  16.268   1.433  0.0192 -0.4924  0.0017
 1416W        W44333  15.174  11.175  30.584  0.0960 -0.2424  0.1123
 1417W        W44334  14.867  15.879   0.446 -0.4914 -0.3101 -0.2226
 1418W        W44335  14.905  11.938   0.552  0.3162  0.4160  0.2087
 1419W        W44336  15.264  15.507   1.097  0.1985 -0.1695 -0.1021
 1420W        W44337  14.836  13.253   1.664  0.1294 -0.1827  0.1486
 1421W        W44338  17.498  13.053  31.139  0.4203  0.0603 -0.0078
 1422W        W44339  13.651  13.278   1.833  0.0127  0.1041 -0.2826
 1423W        W44340  16.758  11.447   0.648  0.0435  0.0125 -0.0277
 1424W        W44341  14.020  14.344   1.218  0.1237 -0.0274  0.1650
 1425W        W44342  16.579  12.971   2.901 -0.2055 -0.2450  0.3740
 1426W        W44343  15.637  12.342   0.171 -0.1005  0.1782 -0.0462
 1427W        W44344  15.679  14.148   0.575 -0.0523 -0.4062 -0.0096
 1428W        W44345  16.380  15.087   2.368  0.1463 -0.1262 -0.0608
 1429W        W44346  15.872  10.784  31.894  0.0766 -0.1870  0.1822
 1430W        W44347  16.997  11.567   1.194  0.2001  0.1100 -0.1506
 1431W        W44348  14.552  13.047   2.876 -0.1447 -0.1355 -0.2076
 1432W        W44349  14.309  14.619  31.841  0.1376  0.2302 -0.2141
 1433W        W44350  15.817  14.391   0.945 -0.1783 -0.0609 -0.1529
 1434W        W44351  16.656  13.236  31.151  0.6200 -0.2015  0.1475
 1435W        W44352  16.975  16.111  31.238  0.4032 -0.3720  0.0590
 1436W        W44353  15.283  13.619   6.931 -0.1143  0.4100 -0.0573
 1437W        W44354  18.059  15.484   2.964  0.1522  0.0104  0.0268
 1438W        W44355  16.275  10.598   3.546 -0.0928  0.0443  0.2820
 1439W        W44356  14.788  10.886   2.188  0.1244 -0.1191  0.0642
 1440W        W44357  16.391  12.892   2.059 -0.1783 -0.1092  0.4427
 1441W        W44358  16.182  13.883   1.967 -0.0597  0.0748 -0.3653
 1442W        W44359  16.424  13.669   2.907 -0.0115 -0.2229  0.0102
 1443W        W44360  17.200  15.269   3.661 -0.0913 -0.4795 -0.0524
 1444W        W44361  15.707   9.720   2.425 -0.0143  0.0583  0.1398
 1445W        W44362  17.536  15.516  31.934 -0.0245 -0.0847 -0.4207
 1446W        W44363  16.435  12.950   4.265 -0.1104  0.0974  0.0030
 1447W        W44364  14.580  13.295   0.337 -0.1960  0.0585  0.0764
 1448W        W44365  14.885  13.860   2.132  0.0297  0.0584 -0.0584
 1449W        W44366  14.579  14.465   0.460  0.0605 -0.1986  0.0419
 1450W        W44367  15.883  12.783   2.561  0.2326  0.3751 -0.0014
 1451W        W44368  13.475  13.230   3.512  0.0943 -0.0451  0.2053
 1452W        W44369  14.457  15.801   0.742  0.2583  0.0985  0.0434
 1453W        W44370  14.481  15.252   1.612  0.0894 -0.0068 -0.2746
 1454W        W44371  16.701  11.740  31.301  0.1786 -0.0234 -0.0360
 1455W        W44372  14.734  14.111   0.882  0.0908 -0.0946 -0.1798
 1456W        W44373  15.676  12.900   1.278 -0.2732 -0.2910 -0.1732
 1457W        W44374  18.539  13.031   0.748 -0.3568 -0.3407 -0.1415
 1458W        W44375  16.568  13.053  30.612 -0.2310 -0.6931  0.0465
 1459W        W44376  17.523  12.065   3.214  0.1482  0.0012  0.1042
 1460W        W44377  16.596  11.163   1.045  0.2364  0.1618  0.2867
 1461W        W44378  16.556  15.071  29.518 -0.1985 -0.2738  0.0020
 1462W        W44379  14.045  13.555   2.011  0.0916  0.0056 -0.1552
 1463W        W44380  17.989  15.190   3.780  0.0391  0.3231  0.2579
 1464W        W44381  15.221  13.114   4.394 -0.3012  0.1759  0.0718
 1465W        W44382  15.975  13.161   2.269  0.4608 -0.0463 -0.1673
 1466W        W44383  14.422  12.056  31.725 -0.3117 -0.4109 -0.2035
 1467W        W44384  15.029  14.633  30.990 -0.0885  0.0667 -0.0691
 1468W        W44385  17.223  14.371   1.343 -0.1363 -0.1239 -0.0981
 1469W        W44386  16.891  15.305  31.716 -0.2042 -0.1661 -0.2459
 1470W        W44387  16.538  12.495   1.442  0.2126  0.0002 -0.0281
 1471W        W44388  15.134  11.886   4.804  0.0876  0.1912  0.1380
 1472W        W44389  15.365  13.185   0.574  0.2251  0.0024  0.1743
 1473W        W44390  18.628  12.437  29.884 -0.4192  0.2762  0.1917
 1474W        W44391  13.861  13.473   3.155 -0.0123 -0.1901  0.1857
 1475W        W44392  16.404  13.580   4.101  0.0370  0.2773 -0.3574
 1476W        W44393  16.007  13.289   1.296 -0.1705 -0.0499 -0.1000
 1477W        W44394  17.986  13.069  31.373  0.0818  0.1768  0.1370
 1478W        W44395  16.233  12.527   2.944 -0.0471  0.0578  0.0084
 1479W        W44396  16.370  12.923   1.556 -0.4025  0.1701 -0.1466
 1480W        W44397  15.380  12.053   4.075 -0.1299  0.0679 -0.0002
 1481W        W44398  13.855  11.936   4.405 -0.3238  0.2740  0.1561
 1482W        W44399  16.100  16.236   1.005  0.3599  0.1150 -0.2809
 1483W        W44400  16.844  11.400  30.958 -0.1001 -0.1557 -0.0934
 1484W        W44401  17.393  12.492   1.878  0.1350  0.0232 -0.1091
 1485W        W44402  19.399  12.564   0.206  0.3401 -0.2243  0.0853
 1486W        W44403  14.813  14.379   1.295 -0.3275  0.1099 -0.3876
 1487W        W44404  15.431  14.888   0.571  0.4608 -0.0137 -0.2740
 1488W        W44405  18.114  12.513   2.988  0.2488  0.1371  0.0240
 1489W        W44406  14.938  13.270   2.138 -0.0994 -0.0520  0.3389
 1490W        W44407  15.417   9.700   3.907 -0.2583 -0.0013  0.1622
 1491W        W44408  16.867  12.538  28.498  0.1251 -0.1260 -0.1675
 1492W        W44409  16.038  14.004  31.649  0.3589 -0.0642 -0.0627
 1493W        W44410  16.225  12.062   1.502  0.3818 -0.0937 -0.0236
 1494W        W44411  15.942  10.876   1.312 -0.0859  0.1376 -0.0596
 1495W        W44412  15.123  15.445   2.217  0.2450  0.0203  0.1536
 1496W        W44413  16.165  15.550   0.423 -0.1936  0.0280  0.3366
 1497W        W44414  15.029  12.291   0.277 -0.0000  0.1616  0.1014
 1498W        W44415  15.477  13.298   3.446  0.0980 -0.1464  0.0532
 1499W        W44416  17.266  12.986   2.000  0.4379 -0.4516 -0.3456
 1500W        W44417  15.440  11.874  30.294 -0.0601 -0.0199  0.1157
 1501W        W44418  16.523  11.610   1.591 -0.1745  0.0470  0.0415
 1502W        W44419  14.593  15.475   0.366 -0.0176  0.0437  0.0470
 1503W        W44420  17.663   9.961   2.938  0.2522 -0.2103 -0.0272
 1504W        W44421  13.302  15.071   0.778 -0.1191 -0.2417 -0.0456
 1505W        W44422  15.707  12.198   1.712 -0.2628 -0.1626  0.1540
 1506W        W44423  15.969  15.250   2.105  0.3243 -0.4593 -0.0917
 1507W        W44424  15.309  10.502   1.437 -0.1258  0.2199  0.0355
 1508W        W44425  15.386  12.268  30.996 -0.0595  0.0082 -0.0024
 1509W        W44426  14.873  13.765   1.409 -0.1364 -0.0357 -0.0099
 1510W        W44427  16.087  12.047   2.087 -0.1120  0.1486  0.3340
 1511W        W44428  15.141  14.195   2.814 -0.0920  0.2708 -0.0467
 1512W        W44429  15.561  13.955   1.912 -0.0138 -0.0825 -0.0221
 1513W        W44430  15.620  14.985   2.432 -0.1053  0.3705  0.2429
 1514W        W44431  17.072  13.151   0.512 -0.3675 -0.1488 -0.3260
 1515W        W44432  14.729  13.991   0.292 -0.1529 -0.2738 -0.1335
 1516W        W44433  12.996  14.071   2.755  0.2808 -0.1345 -0.0126
 1517W        W44434  14.826  15.492   1.383  0.1188  0.1346 -0.1982
 1518W        W44435  14.834  15.116   1.938  0.3522 -0.0049 -0.0606
 1519W        W44436  16.411   9.537   1.768 -0.1944 -0.0233 -0.2726
 1520W        W44437  17.470  14.012  29.715  0.1589 -0.2227 -0.1391
 1521W        W44438  14.550  16.174   2.689  0.3214 -0.1457  0.0113
 1522W        W44439  15.374  13.572   2.273 -0.3597  0.2719 -0.3337
 1523W        W44440  16.647  14.517  30.296 -0.1912  0.0464  0.0709
 1524W        W44441  15.110  15.552   0.055  0.0922 -0.1449 -0.0756
 1525W        W44442  16.729  15.475   0.457 -0.0780 -0.2390 -0.2653
 1526W        W44443  15.968  13.633   2.520 -0.1805  0.2330 -0.0121
 1527W        W44444  15.503  10.347   2.383 -0.0497  0.2030 -0.0571
 1528W        W44445  14.602  14.975   0.699 -0.0470  0.2418 -0.0482
 1529W        W44446  15.530  13.111  29.609  0.0814  0.1158 -0.0350
 1530W        W44447  16.121  13.913  30.844  0.1143  0.0730 -0.0521
 1531W        W44448  15.391  16.591  31.644 -0.2234 -0.0249  0.1751
 1532W        W44449  17.048  15.148   0.684  0.0465 -0.1025 -0.2358
 1533W        W44450  16.803   8.692  31.075 -0.4405 -0.1658 -0.3306
 1534W        W44451  18.065  15.588   0.645  0.1481  0.1346 -0.2949
 1535W        W44452  18.829  13.402   1.056  0.3065  0.0823 -0.0500
 1536W        W44453  15.405  15.126   1.908  0.2124 -0.0956  0.0081
 1537W        W44454  16.921  12.536   0.847  0.3725  0.0302 -0.1485
 1538W        W44455  15.022  11.342   1.875 -0.0513  0.0849 -0.0486
 1539W        W44456  14.172  13.782   3.414 -0.1790  0.1698  0.1105
 1540W        W44457  21.162  12.828   0.481  0.0296  0.0228 -0.0932
 1541W        W44458  14.718  15.022   3.920  0.1866 -0.0260  0.3937
 1542W        W44459  18.339  15.914  29.880  0.1213 -0.2826  0.2447
 1543W        W44460  15.337  12.230   0.721  0.0743 -0.0655  0.2830
 1544W        W44461  16.197  12.774   1.097 -0.2119 -0.0207 -0.4733
 1545W        W44462  16.937  11.798   0.309 -0.1222  0.3001 -0.1238
 1546W        W44463  14.902  12.245  31.001 -0.1594  0.1079  0.1564
 1547W        W44464  15.644  13.912   1.007  0.0145  0.0347  0.2572
 1548W        W44465  14.141  15.993  30.996 -0.1268 -0.2102 -0.0035
 1549W        W44466  16.117  16.475   2.338 -0.1055  0.0378  0.0224
 1550W        W44467  16.514  14.923   2.852 -0.3009 -0.1358  0.1542
 1551W        W44468  14.894  11.668   1.487 -0.0689 -0.1677 -0.0873
 1552W        W44469  17.612  10.947   0.601  0.1092  0.1001 -0.0381
 1553W        W44470  16.313  13.382   1.899  0.0950  0.0816 -0.3849
 1554W        W44471  16.184  11.606   2.858  0.1784  0.2648  0.0081
 1555W        W44472  14.833  11.581  30.657 -0.0116 -0.0979 -0.4023
 1556W        W44473  16.036  11.662   0.822  0.1438  0.3631 -0.0563
 1557W        W44474  16.290  12.202   0.958 -0.1306  0.1560 -0.1090
 1558W        W44475  15.365  11.575   2.466 -0.2122 -0.0016  0.1539
 1559W        W44476  15.021  13.570   0.449  0.3571 -0.1930 -0.0503
 1560W        W44477  15.140  14.360  31.777 -0.2812 -0.1681 -0.3635
 1561W        W44478  15.370  10.448  31.093  0.0913 -0.1688  0.0599
 1562W        W44479  14.951  16.483   3.333 -0.3037  0.0699  0.0097
 1563W        W44480  14.440  11.711   1.270 -0.1760  0.2432  0.0045
 1564W        W44481  16.841  10.340  31.334 -0.2374 -0.1169  0.0382
 1565W        W44482  14.900  12.257  31.689  0.0458 -0.0295  0.2558
 1566W        W44483  14.921  13.374   3.294  0.0117 -0.0519  0.1203
 1567W        W44484  15.592  15.205   6.090 -0.0839  0.2625  0.3146
 1568W        W44485  15.238  14.175   1.077 -0.0322  0.1275 -0.0586
 1569W        W44486  16.846  13.614  31.657 -0.2098  0.0951 -0.2161
 1570W        W44487  17.918  13.123   0.846  0.3510 -0.0552  0.1699
 1571W        W44488  16.213  14.082  30.359 -0.1606 -0.1055 -0.3466
 1572W        W44489  15.906  13.729   1.466  0.0177  0.2852  0.2736
 1573W        W44490  14.790  12.708   0.077  0.0183  0.0445  0.0781
 1574W        W44491  13.385  12.731   1.537  0.4435 -0.0921 -0.1415
 1575W        W44492  16.953  15.961   0.937 -0.2097  0.1161 -0.1357
 1576W        W44493  19.718  12.698  31.267  0.1614 -0.1176  0.0753
 1577W        W44494  17.054  10.272  31.817 -0.0463  0.0837 -0.2352
 1578W        W44495  14.015  13.795   1.559 -0.2662  0.3195 -0.0317
 1579W        W44496  15.361  17.757   1.095 -0.3950  0.2489 -0.0051
 1580W        W44497  17.730  13.893   1.330  0.0465  0.0242 -0.0588
 1581W        W44498  17.695  12.138   2.309  0.3573 -0.3538  0.3640
 1582W        W44499  16.760  14.722  31.658 -0.1847 -0.0524  0.1931
 1583W        W44500  17.445  11.264   5.569 -0.0524  0.1761  0.0982
 1584W        W44501  16.919  13.208   1.439 -0.1961 -0.0661  0.1697
 1585W        W44502  15.113  14.665   3.733 -0.1229 -0.1768 -0.0796
 1586W        W44503  14.533  13.497  31.621 -0.0666 -0.0029 -0.1262
 1587W        W44504  17.250  14.190   2.184  0.0266  0.0419 -0.1110
 1588W        W44505  15.985  14.656   1.294 -0.0073  0.2718 -0.1247
 1589W        W44506  16.073  14.416  30.719 -0.3106 -0.3303  0.1036
 1590W        W44507  15.181  13.589   1.832  0.0908  0.2810  0.1062
 1591W        W44508  15.261  15.443   0.576 -0.5236  0.3901  0.1290
 1592W        W44509  17.001  12.209   0.024  0.0578  0.0832  0.0268
 1593W        W44510  15.331  14.585   1.255 -0.1078 -0.1166  0.0730
 1594W        W44511  18.006  11.739   0.291 -0.2168  0.2279  0.0945
 1595W        W44512  15.789  12.039   0.636  0.1276 -0.0363  0.3572
 1596W        W44513  15.431  14.551   2.634 -0.0831 -0.1250  0.1425
 1597W        W44514  14.054  12.711  31.395 -0.2509 -0.5036 -0.1559
 1598W        W44515  15.181  13.040  31.221  0.4104  0.1671  0.1436
 1599W        W44516  16.168  14.066   0.756 -0.1268 -0.0142  0.1846
 1600W        W44517  14.860  12.462   2.074  0.3216  0.0866 -0.4371
 1601W        W44518  14.283  12.993   3.917 -0.2430 -0.2794  0.0718
 1602W        W44519  15.146  12.563  31.364  0.2851  0.2768 -0.0074
 1603W        W44520  15.214  11.441   0.656 -0.3203 -0.4745 -0.0469
 1604W        W44521  15.856  13.551  31.175  0.1955  0.0041 -0.0203
 1605W        W44522  14.608  12.145   1.604  0.0640  0.0711  0.1281
 1606W        W44523  15.191  10.708   0.481  0.2104  0.2412 -0.4025
 1607W        W44524  15.737  13.826   0.089  0.2028  0.2041 -0.1209
 1608W        W44525  16.408  15.000  29.997  0.0866 -0.0815  0.2542
 1609W        W44526  15.504  13.054   2.090  0.0744 -0.1115 -0.1326
 1610W        W44527  16.421  13.403   2.377  0.2120  0.1015 -0.1494
 1611W        W44528  14.615  13.329  30.652 -0.0334  0.0323  0.1373
 1612W        W44529  16.048  13.260   4.245 -0.1310 -0.0389 -0.0559
 1613W        W44530  15.509  14.519   2.082 -0.0555  0.1442 -0.0076
 1614W        W44531  16.131  10.585   2.666  0.1974  0.2976  0.3322
 1615W        W44532  14.715  13.971   2.624 -0.0550 -0.3976 -0.2494
 1616W        W44533  15.100  14.496   0.360  0.1065 -0.3409 -0.4240
 1617W        W44534  15.410  14.586  31.329 -0.1308  0.3006 -0.0063
 1618W        W44535  18.723  14.407   1.220  0.0301  0.1406 -0.1537
 1619W        W44536  14.648  13.369   3.676 -0.4663  0.0827 -0.0209
 1620W        W44537  13.280   9.938   2.003  0.1915 -0.0387  0.0312
 1621W        W44538  15.912  11.828  30.848 -0.1080  0.1603  0.1171
 1622W        W44539  17.554  15.548   3.874  0.1881  0.3292 -0.1032
 1623W        W44540  16.225  13.059  31.497 -0.1397 -0.0796 -0.1969
 1624W        W44541  18.488  11.118   2.898  0.0100 -0.0732 -0.2270
 1625W        W44542  16.802  13.574   0.412  0.0002  0.1362 -0.1954
 1626W        W44543  15.723  12.204   2.344 -0.2896  0.0357 -0.0354
 1627W        W44544  13.766  11.511   3.058  0.1089  0.2873 -0.1300
 1628W        W44545  16.231  14.555   0.504  0.1081 -0.0817 -0.3534
 1629W        W44546  14.716  10.338   1.486  0.1288  0.1500  0.1396
 1630W        W44547  15.196  12.817   1.410 -0.0600  0.0550  0.0015
 1631W        W44548  17.219  15.910  30.684  0.1302 -0.0031  0.2990
 1632W        W44549  13.900  14.462   2.906  0.1072 -0.0426 -0.3009
 1633W        W44550  16.864  11.158   1.500 -0.1894  0.3525  0.0739
 1634W        W44551  14.771  15.202   2.953 -0.0077 -0.1272 -0.0010
 1635W        W44552  17.195  12.216   0.534  0.1553 -0.2420  0.2643
 1636W        W44553  17.632  15.270   3.447 -0.0626 -0.0702 -0.2758
 1637W        W44554  15.281  15.131  31.216 -0.1057 -0.4283  0.0749
 1638W        W44555  17.581  11.759   1.082  0.0547 -0.1378  0.0955
 1639W        W44556  17.585  14.906   1.838  0.0260  0.0593 -0.1530
 1640W        W44557  16.607  14.903   0.670  0.0216 -0.0028 -0.1778
 1641W        W44558  15.953  15.625   2.686 -0.1281 -0.1165  0.0457
 1642W        W44559  16.379  16.079   2.263  0.0890 -0.1683 -0.1344
 1643W        W44560  15.103   9.411   2.980 -0.0825  0.0278 -0.0008
 1644W        W44561  14.369  12.658   0.987  0.0955 -0.1335 -0.2958
 1645W        W44562  15.529  13.801  31.562 -0.2112  0.1587  0.0714
 1646W        W44563  16.896  11.156   0.005  0.0922 -0.1583 -0.1396
 1647W        W44564  15.182  11.910   1.852  0.0276 -0.1834 -0.0435
 1648W        W44565  16.416  10.762   1.412 -0.4885  0.3278  0.2727
 1649W        W44566  15.158  15.059   0.961 -0.2423  0.3428  0.0814
 1650W        W44567  15.648  13.922  30.717  0.2591  0.2009 -0.1740
 1651W        W44568  15.691  13.181   7.067 -0.0000 -0.1607  0.0875
 1652W        W44569  13.500  13.608   5.634 -0.0223  0.3184  0.1614
 1653W        W44570  17.162  10.959   2.942  0.1912  0.2146  0.0229
 1654W        W44571  16.800  12.872   3.471 -0.1018 -0.0241 -0.0718
 1655W        W44572  15.595  12.964   6.034  0.0760  0.0146 -0.1238
 1656W        W44573  16.443  15.415   3.021  0.0431  0.0702 -0.1517
 1657W        W44574  14.235  13.018   7.482 -0.1316  0.1658  0.0933
 1658W        W44575  15.630  14.774   6.315  0.0181 -0.1301 -0.1440
 1659W        W44576  15.913  14.111   4.728 -0.0411 -0.0331 -0.2339
 1660W        W44577  17.088  12.510   3.126 -0.0449  0.1265  0.2091
 1661W        W44578  18.075  13.824   7.261 -0.2572  0.0167 -0.0228
 1662W        W44579  17.002  12.834   6.714  0.1980  0.0492 -0.1106
 1663W        W44580  15.991  12.015   5.254  0.1388 -0.0873  0.0840
 1664W        W44581  14.011   8.642   6.670 -0.0638 -0.3445  0.1212
 1665W        W44582  16.433  11.855   5.110 -0.2712 -0.1398  0.1257
 1666W        W44583  14.499  13.252   4.655  0.2566 -0.1956  0.0435
 1667W        W44584  17.284  11.403   6.342 -0.4061  0.0715  0.2506
 1668W        W44585  15.615  13.277   3.981 -0.0698 -0.0520  0.5050
 1669W        W44586  16.989  14.799   6.275  0.1383  0.0599  0.0092
 1670W        W44587  15.518  12.029   6.856 -0.1182 -0.1401  0.1340
 1671W        W44588  16.283  11.182   4.629  0.1266 -0.1480 -0.0002
 1672W        W44589  13.761  13.490   5.100 -0.0293 -0.2652  0.2902
 1673W        W44590  12.907  11.880   3.280 -0.0458 -0.2824 -0.0599
 1674W        W44591  13.125  13.762   7.670  0.1167  0.1144  0.1685
 1675W        W44592  15.108  12.551   6.015 -0.3695  0.1698 -0.2554
 1676W        W44593  16.808  13.094   5.912  0.1242  0.0900  0.2204
 1677W        W44594  17.845  12.917   4.728 -0.0691 -0.0184  0.1940
 1678W        W44595  17.537  14.188   6.310  0.0292 -0.2826  0.0112
 1679W        W44596  15.992  13.352   3.597 -0.0833  0.0725  0.2832
 1680W        W44597  16.565  12.889   4.763 -0.0649 -0.0647  0.2689
 1681W        W44598  14.468  14.095   7.210 -0.2375 -0.1261 -0.3724
 1682W        W44599  13.515  15.384   5.524 -0.0937 -0.3485  0.0379
 1683W        W44600  15.002  14.146   4.971 -0.0656  0.2606 -0.2247
 1684W        W44601  16.246  14.317   3.314 -0.1775 -0.1404 -0.1840
 1685W        W44602  16.887  13.971   5.815  0.0655  0.0237 -0.1610
 1686W        W44603  15.541  14.166   9.482  0.0583  0.3055  0.2316
 1687W        W44604  14.998  15.352   4.290 -0.2745  0.1093 -0.1484
 1688W        W44605  14.967  14.483   8.075  0.0595 -0.1914 -0.2472
 1689W        W44606  15.874  14.207   6.764 -0.2996  0.0547 -0.0463
 1690W        W44607  17.082  13.511   7.584 -0.2956  0.0811 -0.1561
 1691W        W44608  17.585  13.146   4.088 -0.1177 -0.0437 -0.1700
 1692W        W44609  14.306  13.952   5.107 -0.0934  0.2328  0.2656
 1693W        W44610  15.966  13.710   3.983  0.2379  0.3054  0.1497
 1694W        W44611  16.077  14.840   3.143 -0.2458  0.3938 -0.1360
 1695W        W44612  14.970  14.609   5.257  0.2563  0.0370 -0.1090
 1696W        W44613  18.770  13.264   7.494  0.0003  0.0941 -0.0470
 1697W        W44614  15.669  14.284   6.327 -0.0170  0.1802 -0.5303
 1698W        W44615  16.090  14.093   2.824 -0.0222  0.1728 -0.1049
 1699W        W44616  16.197  13.189   4.936  0.1701 -0.1255 -0.1028
 1700W        W44617  15.550  11.847   5.029  0.4402 -0.1551  0.1337
 1701W        W44618  15.715  12.349   4.938  0.1413 -0.3379 -0.0512
 1702W        W44619  16.002  16.601   6.323 -0.0356 -0.0318  0.0951
 1703W        W44620  13.952  12.496   5.615  0.4548  0.1838  0.0551
 1704W        W44621  16.640  14.885   5.941 -0.0679 -0.0131 -0.0904
 1705W        W44622  15.752  12.361   3.847 -0.1188 -0.1883  0.0252
 1706W        W44623  16.266  12.391   5.513 -0.0463 -0.0949  0.1810
 1707W        W44624  15.563  16.592   6.492  0.2441 -0.1023 -0.0850
 1708W        W44625  15.829  12.139   5.721 -0.1551 -0.0808  0.1217
 1709W        W44626  17.127  13.441   4.110  0.0607  0.3405 -0.1367
 1710W        W44627  18.599  13.565   5.132 -0.1105  0.1050 -0.0504
 1711W        W44628  15.999  14.787   4.063 -0.2555  0.1262  0.0856
 1712W        W44629  13.180  12.578   4.560  0.1228 -0.2162 -0.4319
 1713W        W44630  15.417  13.169  10.231  0.0577  0.0803  0.0635
 1714W        W44631  13.498  12.993   6.828 -0.1080 -0.0436  0.1125
 1715W        W44632  14.180  12.233   2.524 -0.0741 -0.0684 -0.1506
 1716W        W44633  15.512  14.532   6.722 -0.1178 -0.3759 -0.2168
 1717W        W44634  14.129  13.854   7.504  0.2465 -0.0893  0.2114
 1718W        W44635  15.221  12.891   7.361 -0.1453 -0.3231  0.0974
 1719W        W44636  15.812  12.496   5.421 -0.2363  0.2385  0.1538
 1720W        W44637  15.334  14.080   5.510  0.2064 -0.1823 -0.3307
 1721W        W44638  17.382  14.019   2.681 -0.0666  0.2849 -0.0707
 1722W        W44639  16.657  10.674   6.521 -0.0711 -0.0234 -0.1167
 1723W        W44640  18.338  11.298   5.457 -0.0008  0.0892 -0.3235
 1724W        W44641  17.894  14.491   2.776  0.2308  0.0471 -0.0784
 1725W        W44642  16.035  12.776   4.061  0.1327 -0.2900 -0.2391
 1726W        W44643  15.488  13.782   6.110 -0.2999  0.2767  0.1885
 1727W        W44644  16.626  14.609   3.377  0.2877  0.0099 -0.2505
 1728W        W44645  14.444  14.560   5.945  0.1652 -0.0731 -0.2413
 1729W        W44646  16.640  12.410   7.509  0.2434 -0.5090  0.1758
 1730W        W44647  14.358  11.845   8.122 -0.0566 -0.1887  0.0059
 1731W        W44648  14.075  16.019   2.906 -0.0921  0.0544 -0.0259
 1732W        W44649  15.230  15.406   3.375  0.0123 -0.1924 -0.3495
 1733W        W44650  14.559  14.347   5.384 -0.1108  0.2149  0.1288
 1734W        W44651  15.169  11.269   6.804  0.1954  0.0460  0.2759
 1735W        W44652  16.683  12.714   6.197  0.0419  0.2904  0.0185
 1736W        W44653  17.950  12.002   4.570  0.3588 -0.2127 -0.3817
 1737W        W44654  16.465  12.417   6.573  0.1135 -0.3400  0.2824
 1738W        W44655  18.149  10.901   6.228  0.0246  0.0100  0.0978
 1739W        W44656  15.714  12.860   3.613  0.0208  0.1658 -0.1534
 1740W        W44657  17.157  12.993   3.003 -0.0097 -0.2018 -0.1508
 1741W        W44658  16.633  13.998   3.185  0.1311  0.2185  0.0493
 1742W        W44659  16.901  15.697   3.028  0.1075  0.2726 -0.1808
 1743W        W44660  14.737  12.187   5.448 -0.2241 -0.0902  0.0738
 1744W        W44661  14.154  13.325   6.811 -0.0346 -0.0990 -0.0508
 1745W        W44662  14.665  12.228   7.236 -0.0063  0.1668  0.0549
 1746W        W44663  13.584  11.842   4.940  0.0421 -0.1103 -0.0678
 1747W        W44664  16.655  12.649   5.701  0.2611 -0.1324  0.0145
 1748W        W44665  14.484  10.091   5.440  0.1633 -0.1981 -0.2237
 1749W        W44666  17.777  11.612   5.447 -0.1869 -0.2909 -0.0944
 1750W        W44667  14.595  15.297   5.940 -0.0488  0.3847 -0.1990
 1751W        W44668  10.498  15.051   4.248 -0.2823 -0.1103  0.0085
 1752W        W44669  18.600  12.001   6.806  0.1714 -0.2697  0.0323
 1753W        W44670  15.898  15.281   4.000 -0.1928  0.0330 -0.1403
 1754W        W44671  17.858  13.919   6.833  0.0481 -0.0928 -0.1185
 1755W        W44672  18.020  15.474   5.070  0.2234 -0.1660  0.0161
 1756W        W44673  15.165  10.544   8.408  0.0339  0.0732 -0.0939
 1757W        W44674  15.519  11.777   5.585 -0.0996 -0.1582  0.0628
 1758W        W44675  15.077  15.326   5.680  0.0333 -0.1033 -0.2295
 1759W        W44676  13.530  13.697   4.561 -0.3130  0.3966  0.2407
 1760W        W44677  15.336  14.203   3.528  0.2757 -0.0664 -0.0353
 1761W        W44678  16.034  15.464   5.480 -0.1355  0.3211 -0.1835
 1762W        W44679  15.502  13.332   6.476  0.1411 -0.2975 -0.1303
 1763W        W44680  16.674  12.709   7.124  0.0449  0.1878 -0.1113
 1764W        W44681  17.462  11.729   8.300  0.0806  0.2109  0.0281
 1765W        W44682  17.954  12.181   7.245  0.3457  0.1245 -0.1989
 1766W        W44683  17.311  12.033   6.129  0.1634 -0.2000  0.0508
 1767W        W44684  16.180  12.082   3.753  0.0138 -0.0199  0.0180
 1768W        W44685  16.511  13.358   6.890  0.0218  0.4131  0.0491
 1769W        W44686  15.137  14.851   2.241 -0.1637  0.0984  0.1866
 1770W        W44687  14.972  11.845   4.305 -0.1795 -0.1506 -0.1787
 1771W        W44688  15.090  13.763   5.767 -0.2860  0.0804 -0.1853
 1772W        W44689  16.219  13.600   4.641  0.1194 -0.2317 -0.0674
 1773W        W44690  13.959  14.117   8.089 -0.2078  0.2171  0.1404
 1774W        W44691  16.073  12.125   9.146  0.1267 -0.0280  0.1948
 1775W        W44692  15.783  13.267   4.667 -0.1255  0.2222 -0.2086
 1776W        W44693  16.195  14.038   7.354 -0.1580  0.1915 -0.2629
 1777W        W44694  17.330  13.719   5.048 -0.1840 -0.0063 -0.0684
 1778W        W44695  16.337  11.577   2.100 -0.0295  0.0776 -0.3856
 1779W        W44696  16.872  13.203   6.379 -0.1723 -0.1564  0.1795
 1780W        W44697  17.253  13.839   3.311  0.0524 -0.0560 -0.2193
 1781W        W44698  16.888  12.779   1.662  0.2054  0.0749  0.0953
 1782W        W44699  16.010  12.551   1.545 -0.0640 -0.2357 -0.1373
 1783W        W44700  14.282  10.526  11.182  0.0701  0.0979 -0.0865
 1784W        W44701  15.833  13.540   1.950  0.2034  0.1901 -0.2558
 1785W        W44702  15.361  12.312   5.676  0.1209 -0.0774 -0.2225
 1786W        W44703  16.042  13.650   3.143 -0.1143 -0.0039 -0.0133
 1787W        W44704  18.170  13.057   2.831 -0.0841  0.0994 -0.1646
 1788W        W44705  14.481  13.013   6.959 -0.0644  0.1327  0.0706
 1789W        W44706  17.078  14.334   9.204 -0.0425 -0.3110  0.0531
 1790W        W44707  18.660  14.647   4.947 -0.1938  0.0002  0.0288
 1791W        W44708  14.360  11.836   4.496  0.0288  0.4258 -0.0192
 1792W        W44709  14.684  12.768   4.376  0.0438  0.1255 -0.1913
 1793W        W44710  15.631  11.799   4.537  0.1413 -0.0007 -0.2439
 1794W        W44711  14.631  14.070   4.216 -0.0468  0.1557  0.0244
 1795W        W44712  17.073  11.498   5.858  0.0096 -0.1994  0.2557
 1796W        W44713  16.529  10.672   5.891  0.1504 -0.0195  0.2170
 1797W        W44714  16.892  11.042   6.238  0.0644  0.0289  0.2299
 1798W        W44715  19.159  13.515   7.376 -0.1296 -0.2049  0.1920
 1799W        W44716  16.342  12.454   1.899  0.4178  0.0205  0.0672
 1800W        W44717  17.158  12.202   4.444 -0.3316  0.1408 -0.2688
 1801W        W44718  15.218  13.695   3.614  0.0107 -0.2478  0.0642
 1802W        W44719  16.989  13.225   7.004 -0.0720 -0.0595 -0.0602
 1803W        W44720  15.937  12.616   5.887  0.0286  0.0246 -0.1801
 1804W        W44721  16.740  13.575   6.031 -0.1451  0.1508  0.2237
 1805W        W44722  16.258  14.345   8.439 -0.0258 -0.2911 -0.1891
 1806W        W44723  16.285  12.901   3.666 -0.1364 -0.1573  0.0149
 1807W        W44724  16.567  13.928   8.325  0.0866  0.0008 -0.3811
 1808W        W44725  16.249  12.475   4.898 -0.1513  0.2642  0.1189
 1809W        W44726  14.973  15.320   6.801  0.0978  0.1808 -0.0953
 1810W        W44727  14.409  14.867   4.741  0.2072 -0.1380  0.0863
 1811W        W44728  15.355  11.443   4.763 -0.1406  0.1117  0.1128
 1812W        W44729  15.892  13.063   5.634  0.2268 -0.1610  0.2784
 1813W        W44730  18.062  14.034   3.049  0.1093  0.0047  0.0579
 1814W        W44731  18.161  13.408   6.317  0.1119  0.0538 -0.2200
 1815W        W44732  16.336  14.060   4.979  0.0460  0.1382 -0.2676
 1816W        W44733  18.374  12.237   5.819  0.2466 -0.1481 -0.0678
 1817W        W44734  13.609  14.495   7.023  0.2147  0.2858  0.0181
 1818W        W44735  15.445  14.329   4.894  0.1075  0.0945 -0.0155
 1819W        W44736  12.995  13.569   4.366 -0.3481 -0.0788  0.2263
 1820W        W44737  16.808  11.567   4.819  0.3504  0.1935  0.1955
 1821W        W44738  15.497  13.814   4.914 -0.0758  0.1162  0.0615
 1822W        W44739  16.409  11.949   6.508 -0.3431 -0.0818  0.2882
 1823W        W44740  16.288  11.902   5.634  0.1627 -0.1113  0.0543
 1824W        W44741  14.507  15.831   7.237  0.1455  0.2419  0.2039
 1825W        W44742  16.692  12.018   3.601  0.0903  0.0176 -0.1500
 1826W        W44743  17.013  11.158   5.277 -0.1551  0.0666 -0.2906
 1827W        W44744  16.306  13.485   5.808 -0.0102 -0.1680 -0.2673
 1828W        W44745  14.175  12.367   8.134  0.0977 -0.3633  0.0024
 1829W        W44746  15.200  13.077   5.176  0.0703 -0.0077 -0.0997
 1830W        W44747  15.218  13.472   4.799  0.0819 -0.0197  0.1327
 1831W        W44748  14.240  12.060   4.065 -0.0956 -0.1915  0.0382
 1832W        W44749  14.606  12.899   6.071 -0.0647 -0.2033  0.2966
 1833W        W44750  16.387  14.981   6.416 -0.0767  0.1371  0.2135
 1834W        W44751  16.912  13.814   3.722  0.1626 -0.0808 -0.2207
 1835W        W44752  13.554  14.830   5.868 -0.2479 -0.0501 -0.1452
 1836W        W44753  17.150  12.907   5.036 -0.1826 -0.1590  0.0292
 1837W        W44754  16.303  14.503   5.230  0.3400  0.1990  0.3101
 1838W        W44755  14.983  12.885   4.750  0.0972 -0.0707  0.0150
 1839W        W44756  15.281  12.348   4.476 -0.0591  0.0828  0.1868
 1840W        W44757  15.115  13.252   3.920 -0.1036  0.0766  0.1332
 1841W        W44758  16.703  13.314   3.807 -0.1704 -0.0773 -0.0177
 1842W        W44759  17.270  13.472   5.834  0.3172 -0.1572  0.1706
 1843W        W44760  16.866  11.616   8.073 -0.0188 -0.2116 -0.0582
 1844W        W44761  14.871   9.724   4.976 -0.2595  0.1410 -0.2403
 1845W        W44762  16.402  17.374   3.595  0.1868 -0.4295  0.1416
 1846W        W44763  15.953  12.354   7.386 -0.1837 -0.2475 -0.0948
 1847W        W44764  15.134  15.562   2.914  0.2694 -0.2051 -0.2109
 1848W        W44765  14.515  13.471   5.916 -0.2859  0.2004  0.1491
 1849W        W44766  15.904  14.146   5.262  0.0642 -0.0348 -0.0069
 1850W        W44767  17.088  12.271   3.544 -0.0045 -0.0376 -0.1493
 1851W        W44768  14.855  14.909   7.116  0.0163 -0.1073  0.1695
 1852W        W44769  14.825  13.716   3.943 -0.1459 -0.0899 -0.0737
 1853W        W44770  15.993  13.881   6.230 -0.1010 -0.0768 -0.0765
 1854W        W44771  19.099  11.217   3.517 -0.3660  0.3061  0.0364
 1855W        W44772  17.548  12.505   2.896 -0.0850  0.0148  0.1157
 1856W        W44773  16.716  13.063   5.337 -0.3090  0.3053 -0.0257
 1857W        W44774  15.586  12.110   8.629  0.7067 -0.0108 -0.0444
 1858W        W44775  16.359  13.666   3.585 -0.2481 -0.1968 -0.0307
 1859W        W44776  17.639  12.669   8.357 -0.1322 -0.1299  0.4723
 1860W        W44777  15.323  11.523   6.359  0.1336  0.1570  0.0033
 1861W        W44778  16.888  15.289   5.321  0.3370  0.0511 -0.0316
 1862W        W44779  15.427  12.861   5.595  0.0522 -0.1332  0.0511
 1863W        W44780  16.378  15.313   8.334  0.0359  0.0894  0.0149
 1864W        W44781  17.356  13.353   6.366  0.3007  0.0156  0.1799
 1865W        W44782  16.044  10.813   5.866  0.1269  0.3464 -0.3065
 1866W        W44783  14.564  11.996   2.807  0.5162 -0.6111 -0.3287
 1867W        W44784  15.753  12.975   5.101  0.1547  0.2568 -0.0148
 1868W        W44785  16.823  12.571   4.296  0.2206  0.1340  0.0166
 1869W        W44786  15.257  12.457   3.226  0.1326  0.5466  0.0754
 1870W        W44787  16.842  13.950   5.017  0.1924  0.1428  0.1626
 1871W        W44788  14.657  14.927   6.552  0.0251 -0.2306  0.0239
 1872W        W44789  18.694  12.108   5.381  0.3310  0.0725  0.0798
 1873W        W44790  16.873  12.543   2.203  0.1055 -0.0338 -0.1973
 1874W        W44791  15.797  14.527   3.494 -0.0546 -0.3196 -0.1502
 1875W        W44792  15.825  11.749   6.463  0.1864  0.0810 -0.0510
 1876W        W44793  14.292  13.380   5.139  0.1405  0.3181 -0.3706
 1877W        W44794  16.760  11.574   5.442  0.0863 -0.0770  0.0901
 1878W        W44795  16.838  12.095   6.115  0.0416  0.3771  0.1024
 1879W        W44796  17.014  12.005   3.133 -0.3236 -0.0639  0.2067
 1880W        W44797  15.051  11.537   8.070  0.1484 -0.0051  0.1117
 1881W        W44798  13.241  12.847   6.106 -0.3741  0.2700  0.1247
 1882W        W44799  16.316  14.382   6.977  0.1803  0.2302 -0.1382
 1883W        W44800  16.385  11.551   3.858  0.0601 -0.0686  0.1565
 1884W        W44801  17.593  13.467   8.229  0.1896 -0.1182  0.0961
 1885W        W44802  17.274  11.255   3.742 -0.0283 -0.1196 -0.2204
 1886W        W44803  15.985  11.023   3.640  0.2957 -0.1680 -0.2007
 1887W        W44804  16.409  12.284   7.063 -0.1224 -0.1808 -0.0904
 1888W        W44805  17.886  12.088   8.291  0.1744 -0.1526  0.0001
 1889W        W44806  13.483  14.839   3.242  0.0076 -0.1727 -0.1788
 1890W        W44807  17.725  11.887   6.828 -0.0144 -0.0517 -0.1617
 1891W        W44808  15.196  14.319   4.403 -0.0926  0.0554 -0.4314
 1892W        W44809  16.372  14.408   2.426  0.0564  0.2328  0.1641
 1893W        W44810  17.234  11.795   3.560 -0.2887  0.3225  0.0610
 1894W        W44811  13.468  13.129   5.360  0.3601 -0.0489  0.1203
 1895W        W44812  14.888  13.536   7.736  0.1864  0.0065  0.2049
 1896W        W44813  15.994  14.257   3.922 -0.0306 -0.3270 -0.1135
 1897W        W44814  15.236  11.397   5.870  0.1899  0.1454 -0.1363
 1898W        W44815  14.591  14.553   6.898  0.3200  0.1123 -0.1854
 1899W        W44816  17.582  12.903   8.831 -0.0936  0.4149  0.0461
 1900W        W44817  15.931  11.303   2.317 -0.3960  0.2441  0.1485
 1901W        W44818  17.155  11.024   6.712  0.1108  0.1956  0.3984
 1902W        W44819  13.625  13.812   6.410  0.2610  0.1345  0.2144
 1903W        W44820  17.670  11.316   4.528 -0.1644 -0.0698  0.2184
 1904W        W44821  14.619  13.803   6.407 -0.2011  0.0118 -0.2270
 1905W        W44822  14.426  12.563   5.262  0.0881  0.0753  0.1370
 1906W        W44823  14.377  13.060   5.619  0.1665 -0.0194 -0.2920
 1907W        W44824  15.924  11.598   4.881  0.2587 -0.1676 -0.0254
 1908W        W44825  16.998  10.680   4.965  0.1331  0.0779  0.1167
 1909W        W44826  16.422  12.317   6.015  0.2084 -0.0895 -0.0490
 1910W        W44827  18.503  12.885   8.167 -0.0012 -0.1023  0.1037
 1911W        W44828  15.146  15.064   7.586 -0.0480 -0.0139  0.1397
 1912W        W44829  13.891  11.578   5.452 -0.0295  0.2681 -0.2095
 1913W        W44830  17.459  15.191   7.529 -0.2283 -0.1579  0.0266
 1914W        W44831  16.366  12.412   4.398  0.0867  0.0658  0.4308
 1915W        W44832  16.676  14.188   5.404 -0.0236  0.0358  0.0346
 1916W        W44833  15.717  13.900   7.213 -0.3021  0.3411  0.0485
 1917W        W44834  16.796  13.504   8.288 -0.4796 -0.1524  0.1891
 1918W        W44835  15.069  13.646   6.484 -0.1055  0.3233  0.2579
 1919W        W44836  15.382  11.071   4.468 -0.0217  0.1635  0.3088
 1920W        W44837  15.896  13.432   6.047 -0.1672 -0.0935 -0.1944
 1921W        W44838  13.286  12.779   7.808  0.0616 -0.0442 -0.0035
 1922W        W44839  15.761  13.788   5.657 -0.0798 -0.0738  0.2591
 1923W        W44840  15.140  15.133   1.471 -0.2281  0.0433  0.0767
 1924W        W44841  16.237  15.560   4.160  0.1200 -0.3050  0.0790
 1925W        W44842  17.373  15.330   2.564  0.2379  0.1763  0.0255
 1926W        W44843  16.466  14.435   6.158 -0.1112 -0.2854 -0.5031
 1927W        W44844  17.826  12.093   1.361  0.1485 -0.0211  0.1588
 1928W        W44845  15.516  17.643   3.163 -0.1132 -0.0470 -0.3142
 1929W        W44846  13.881  14.810   1.614  0.0534 -0.2299  0.0941
 1930W        W44847  16.745  14.318   2.117  0.1910  0.0609 -0.0722
 1931W        W44848  15.174  14.690   4.726  0.1560 -0.1511  0.0467
 1932W        W44849  18.773  15.205   6.120  0.1232 -0.0939  0.3367
 1933W        W44850  15.901  11.761   2.491 -0.1236 -0.0561 -0.0006
 1934W        W44851  15.562  13.433   5.215  0.0787 -0.1901 -0.0921
 1935W        W44852  18.472  11.162   5.921 -0.2262  0.1015 -0.1559
 1936W        W44853  15.725  15.128   7.474 -0.0348 -0.0090  0.1234
 1937W        W44854  15.604  11.489   6.873 -0.0802 -0.2238 -0.0510
 1938W        W44855  15.570  13.865   2.745 -0.2563  0.1190 -0.4824
 1939W        W44856  17.800  13.323   6.657 -0.0992 -0.0699 -0.1731
 1940W        W44857  17.750  11.735   7.362 -0.0126 -0.1389 -0.0166
 1941W        W44858  16.911  15.338   6.230 -0.0497 -0.1674  0.1411
 1942W        W44859  18.160  15.064   2.673 -0.0243  0.0278 -0.1576
 1943W        W44860  14.154  12.843   6.450  0.0341 -0.1661 -0.2013
 1944W        W44861  14.683  11.692   5.488  0.1855  0.1090  0.2353
 1945W        W44862  17.175  10.927   8.512 -0.1617 -0.0843  0.2373
 1946W        W44863  16.357  12.541   2.384 -0.1399  0.1428 -0.1202
 1947W        W44864  17.592  12.678   5.113 -0.1413 -0.0021  0.1456
 1948W        W44865  14.448  14.225   3.064 -0.1586  0.4259  0.1384
 1949W        W44866  15.875  15.954   8.015  0.2074 -0.2920  0.2298
 1950W        W44867  17.311  13.113   8.500 -0.2026 -0.1056 -0.0772
 1951W        W44868  13.481  12.486   3.706  0.1284 -0.1731  0.2059
 1952W        W44869  17.830  11.616   3.099 -0.0661  0.1063 -0.0069
 1953W        W44870  17.145  12.571   6.060 -0.0440 -0.0124 -0.1367
 1954W        W44871  17.887   9.931   6.320  0.0773 -0.0456 -0.2539
 1955W        W44872  15.314  14.802   5.675  0.1105 -0.0415 -0.1579
 1956W        W44873  16.563  11.452   2.529 -0.0155 -0.1323  0.1581
 1957W        W44874  16.478  12.599   9.154 -0.0344 -0.1696  0.0760
 1958W        W44875  14.820  13.097   6.608 -0.0923 -0.0223 -0.1294
 1959W        W44876  16.730  12.275   2.814  0.0123  0.0772  0.2627
 1960W        W44877  16.917  14.521   4.939  0.0221  0.4292  0.0008
 1961W        W44878  17.210  12.154   1.067  0.1232 -0.1279 -0.1503
 1962W        W44879  16.645  14.772   5.421  0.0446 -0.0725 -0.0662
 1963W        W44880  15.270  13.044   6.850 -0.1023 -0.0007  0.0928
 1964W        W44881  16.579  12.419   3.322  0.0588 -0.1522 -0.1092
 1965W        W44882  12.251  15.164   4.753 -0.0216  0.1180 -0.1523
 1966W        W44883  16.587  11.921   7.371 -0.1364  0.0601  0.0002
 1967W        W44884  14.582  15.108   7.780 -0.1470 -0.1154  0.1828
 1968W        W44885  14.382  13.299   6.385  0.3364 -0.1394 -0.2412
 1969W        W44886  16.847  14.013   2.551 -0.2857  0.1996  0.4997
 1970W        W44887  16.002  12.805   4.599  0.1347 -0.1770  0.0445
 1971W        W44888  14.359  14.768   3.687 -0.0987 -0.1506  0.2604
 1972W        W44889  15.930  15.094   5.131  0.0107 -0.2085 -0.0009
 1973W        W44890  16.905  14.298   6.316  0.0206 -0.0853 -0.0769
 1974W        W44891  14.752  11.496   4.701  0.1767  0.0800 -0.1090
 1975W        W44892  16.317  13.008   8.151  0.0854 -0.0824  0.1998
 1976W        W44893  17.212  13.898   4.611 -0.2532  0.1662  0.4382
 1977W        W44894  17.205  11.496   3.161  0.1039 -0.1554  0.0846
 1978W        W44895  14.239  14.080   6.233 -0.3177 -0.1827  0.0334
 1979W        W44896  16.044  14.700   6.070  0.1606 -0.0422 -0.0615
 1980W        W44897  16.242  14.072   4.328 -0.0817 -0.0367  0.1086
 1981W        W44898  17.725  12.918   7.055  0.0343  0.0582  0.0931
 1982W        W44899  16.532  14.127   1.706 -0.1092  0.0808 -0.0700
 1983W        W44900  17.763  13.383   5.947  0.4516 -0.0896 -0.1328
 1984W        W44901  15.182  14.160   6.331  0.2462 -0.2875 -0.0491
 1985W        W44902  14.878  13.144  10.121  0.0717 -0.1445 -0.0165
 1986W        W44903  16.410  13.901   2.400  0.0857  0.2886 -0.2017
 1987W        W44904  14.551  12.629   7.867  0.1362 -0.1709 -0.0470
 1988W        W44905  15.816  14.525   4.454  0.1114  0.0436 -0.0843
 1989W        W44906  16.628  14.543   6.653 -0.2665 -0.0095 -0.1345
 1990W        W44907  16.025  13.221   6.666 -0.3640  0.3125 -0.0555
 1991W        W44908  16.709  12.528   5.190  0.1279 -0.1731 -0.0491
 1992W        W44909  16.792  13.513   5.548 -0.2324 -0.0523  0.1272
 1993W        W44910  14.841  12.478   5.048  0.0730  0.2092  0.3512
 1994W        W44911  18.539  12.597   5.360  0.0515  0.2116 -0.0744
 1995W        W44912  17.667  11.023   6.465  0.0355 -0.1109  0.3066
 1996W        W44913  15.472  12.315   7.536  0.1449 -0.2690 -0.1828
 1997W        W44914  13.971  13.022   4.862  0.2721  0.1610  0.2429
 1998W        W44915  14.843  11.556   2.870 -0.1545 -0.3710 -0.1759
 1999W        W44916  13.813  14.055   4.870 -0.0605  0.1294  0.1868
 2000W        W44917  16.469  11.697   7.791 -0.2068 -0.2449 -0.0195
 2001W        W44918  14.911  13.328   5.577  0.0790 -0.0755  0.3724
 2002W        W44919  16.935  13.677   6.683 -0.1664  0.0788  0.0453
 2003W        W44920  16.053  11.206   3.201 -0.1249  0.0530  0.1240
 2004W        W44921  16.287  14.707   4.611  0.0131  0.3886  0.0161
 2005W        W44922  14.464  12.475   5.782 -0.1498  0.1236  0.3174
 2006W        W44923  12.463  10.995   6.304  0.2501  0.2332 -0.1359
 2007W        W44924  17.449  13.622   3.759  0.2707 -0.0378  0.1706
 2008W        W44925  15.425  13.349   5.775 -0.1256 -0.1392 -0.0125
 2009W        W44926  15.645  11.361   5.177  0.2719 -0.0777  0.0468
 2010W        W44927  16.481  13.830   7.002 -0.0405  0.2140 -0.0440
 2011W        W44928  16.089  13.726   6.765  0.0163 -0.1823 -0.3575
 2012W        W44929  15.449  13.767   7.907 -0.1690 -0.1874  0.0507
 2013W        W44930  17.419  12.040   7.308  0.0070 -0.0823  0.2013
 2014W        W44931  15.577  10.725   3.683  0.2491 -0.2289  0.0948
 2015W        W44932  15.111  13.643   5.256  0.1413  0.0726  0.1681
 2016W        W44933  17.433  15.631   6.440  0.1690  0.1368  0.2186
 2017W        W44934  17.907  15.452   2.424  0.2834  0.0304 -0.2593
 2018W        W44935  13.697  12.986   7.592 -0.0106  0.0572 -0.2549
 2019W        W44936  16.599  13.523   7.365 -0.0640  0.1381  0.1210
 2020W        W44937  17.131  13.205   8.016 -0.2350  0.2375 -0.0490
 2021W        W44938  16.093  12.038   3.074  0.3047  0.0171 -0.0041
 2022W        W44939  15.047  13.329   6.115 -0.0659 -0.0615 -0.2399
 2023W        W44940  18.190  12.636   3.455 -0.0355  0.1338 -0.2104
 2024W        W44941  18.169  11.730   7.001 -0.0443  0.2978 -0.1922
 2025W        W44942  16.906  15.034   3.292  0.0378  0.2358  0.2124
 2026W        W44943  15.516  10.520   7.909 -0.0571  0.0561  0.2721
 2027W        W44944  15.864  12.564   7.889 -0.1225  0.0520  0.0506
 2028W        W44945  17.570  13.912   5.862 -0.1298 -0.0458  0.0507
 2029W        W44946  14.383  12.801   4.834 -0.2172  0.0030 -0.0534
 2030W        W44947  15.728  12.419   2.852 -0.1735  0.3284  0.2029
 2031W        W44948  18.120  14.955   2.199 -0.0274 -0.0063 -0.1202
 2032W        W44949  17.221  12.807   7.140 -0.0617 -0.0408  0.0281
 2033W        W44950  18.304  13.390   3.713 -0.0538  0.3664 -0.1116
 2034W        W44951  17.869  14.032   7.716  0.0534 -0.1173  0.6127
 2035W        W44952  15.566  12.842   4.184  0.2082  0.0336  0.1608
 2036W        W44953  17.099  12.293   6.498 -0.3410 -0.0898 -0.1332
 2037W        W44954  14.802  12.324   4.181 -0.0635 -0.1112 -0.0345
 2038W        W44955  17.884  14.367   5.977 -0.0307  0.1141 -0.0470
 2039W        W44956  14.961  16.032   7.569  0.2233  0.2769 -0.1249
 2040W        W44957  15.451  14.331   8.024  0.0657 -0.1029  0.1300
 2041W        W44958  15.096  14.669   6.231 -0.3183 -0.0906 -0.2370
 2042W        W44959  15.138  12.065   7.171 -0.0318 -0.1383 -0.1620
 2043W        W44960  16.040  11.045   5.252  0.0877  0.0637  0.2523
 2044W        W44961  13.932  16.358   4.169 -0.1470  0.0098  0.1359
 2045W        W44962  15.928  15.013   3.640  0.1101  0.1885 -0.0684
 2046W        W44963  17.216  13.308   5.368  0.1130  0.0959 -0.0076
 2047W        W44964  15.576  12.480   6.308  0.1880 -0.0381 -0.0607
 2048W        W44965  16.259  16.278   8.148 -0.3485  0.2177  0.0783
 2049W        W44966  16.986  12.946   3.984  0.0183 -0.2138 -0.1109
 2050W        W44967  13.679  11.328  10.901 -0.0518  0.1002  0.2983
 2051W        W44968  15.960  12.859   8.569  0.2110 -0.0764 -0.2105
 2052W        W44969  17.352  12.386   8.734 -0.2423 -0.2228 -0.3114
 2053W        W44970  16.829  12.160   7.995 -0.0457  0.0101  0.1356
 2054W        W44971  15.247   9.614   7.243  0.3785 -0.0703  0.0798
 2055W        W44972  16.710  16.903  10.589  0.2286 -0.2480 -0.1623
 2056W        W44973  16.053  13.889   8.577  0.1845  0.4084 -0.1585
 2057W        W44974  16.347  13.867  10.496 -0.1997  0.0695  0.2022
 2058W        W44975  17.955  13.116   8.432 -0.2298 -0.0083 -0.1236
 2059W        W44976  13.297  11.226  10.624  0.0977 -0.3771 -0.1751
 2060W        W44977  16.199  10.372  10.977 -0.1974 -0.1473 -0.1169
 2061W        W44978  14.100  10.855   7.405  0.2598  0.0221 -0.2160
 2062W        W44979  18.863  12.996  11.087  0.1235  0.1307  0.2597
 2063W        W44980  14.522  12.111   7.712  0.0451 -0.0083  0.0583
 2064W        W44981  14.237  12.751  10.673 -0.5443  0.2588  0.2315
 2065W        W44982  16.524  11.974   9.043  0.2704  0.3336  0.0111
 2066W        W44983  17.446  14.741   6.179  0.0167 -0.1009  0.2138
 2067W        W44984  16.455  12.861  10.387  0.3000 -0.1768 -0.3816
 2068W        W44985  16.619  13.802   9.534  0.3424 -0.1178 -0.2716
 2069W        W44986  14.971  14.374   7.233  0.0276 -0.0872 -0.0992
 2070W        W44987  15.810  12.077  10.102  0.0866 -0.5044 -0.0795
 2071W        W44988  15.950  11.350   9.895 -0.0090 -0.1114  0.2002
 2072W        W44989  17.632   9.625   8.571  0.0179 -0.1038  0.2292
 2073W        W44990  16.364  13.407   8.488 -0.0903 -0.3976 -0.3178
 2074W        W44991  12.935  11.045  10.070 -0.3186  0.2619  0.1615
 2075W        W44992  17.267  13.755   9.554 -0.2308  0.1217 -0.2331
 2076W        W44993  14.393  12.097  10.203  0.1193 -0.2925 -0.3261
 2077W        W44994  14.261  13.328   8.267 -0.0558 -0.1989 -0.2823
 2078W        W44995  14.145  12.337   8.668 -0.2106  0.0519  0.5835
 2079W        W44996  19.001  15.614   6.289 -0.0906 -0.0869  0.2020
 2080W        W44997  14.460  13.286   8.713  0.1731  0.1032 -0.0814
 2081W        W44998  17.676  13.389   8.739 -0.3220  0.2035  0.1760
 2082W        W44999  16.506  11.282  10.707 -0.1703  0.0002 -0.0503
 2083W        W45000  15.872  13.332   9.971  0.0900 -0.2657 -0.3532
 2084W        W45001  19.124  14.750   9.418  0.1812  0.3183 -0.1993
 2085W        W45002  15.418  16.324  10.076 -0.0839 -0.1853 -0.0116
 2086W        W45003  14.448  12.799   8.914  0.0936  0.1492  0.1192
 2087W        W45004  17.102  11.395   8.751  0.1075 -0.3366 -0.2411
 2088W        W45005  14.774  10.281   6.968  0.3629  0.1167  0.0213
 2089W        W45006  17.523  13.866   7.361 -0.0177 -0.0203 -0.0892
 2090W        W45007  17.173  10.667   9.961 -0.1359  0.2773 -0.1390
 2091W        W45008  17.980  16.066   9.947  0.3198  0.1784 -0.1407
 2092W        W45009  16.738  13.233   8.859 -0.0242 -0.0329  0.4545
 2093W        W45010  15.704  12.536   9.756  0.1470 -0.0706  0.1499
 2094W        W45011  19.319  11.721  10.716 -0.1848 -0.2887 -0.0183
 2095W        W45012  19.112  13.322  10.680  0.1449  0.2083 -0.2275
 2096W        W45013  13.832  10.362  10.571  0.1175  0.0032 -0.0262
 2097W        W45014  16.824  13.052   7.457  0.0679  0.1151  0.0867
 2098W        W45015  15.290  13.227   7.886 -0.3101 -0.0826  0.1419
 2099W        W45016  13.622  12.685   8.207  0.0848 -0.0630  0.1058
 2100W        W45017  14.901  12.940   7.809 -0.0380 -0.1861 -0.0621
 2101W        W45018  15.140  12.028   8.961 -0.2896 -0.3349 -0.4251
 2102W        W45019  16.377  12.778   7.700 -0.3032  0.1607 -0.2131
 2103W        W45020  17.491  14.674   9.188 -0.1680  0.0537 -0.1816
 2104W        W45021  17.205  13.614   8.600 -0.0267 -0.1085  0.1989
 2105W        W45022  18.534  12.601   6.732  0.2127 -0.0361 -0.2324
 2106W        W45023  19.214  10.776   9.248  0.4273 -0.0459 -0.0992
 2107W        W45024  17.918  10.689   9.314  0.1623 -0.1557  0.0619
 2108W        W45025  15.745  14.417   7.220 -0.0069 -0.1169 -0.0189
 2109W        W45026  13.650  12.185   8.029 -0.2401  0.1156 -0.1808
 2110W        W45027  18.638  13.259   9.299 -0.0709 -0.0004  0.2293
 2111W        W45028  17.827  14.950   5.924 -0.0148  0.0288 -0.0188
 2112W        W45029  12.754  12.105  10.238  0.0056  0.4341  0.1065
 2113W        W45030  13.676  13.793   7.657 -0.2642 -0.0125  0.2010
 2114W        W45031  14.202  12.331   9.292  0.0243 -0.1127 -0.3469
 2115W        W45032  13.894  13.386   7.306 -0.0748  0.0818 -0.0618
 2116W        W45033  14.133  10.939   7.889 -0.1279 -0.0784 -0.0528
 2117W        W45034  15.638  11.724   9.716 -0.0093  0.0004 -0.2825
 2118W        W45035  18.293  10.304   8.616 -0.0921  0.1294  0.0094
 2119W        W45036  18.363  14.135   9.359  0.2515 -0.1314  0.0884
 2120W        W45037  14.717  12.435   8.768  0.4066  0.4217 -0.0425
 2121W        W45038  18.046  14.401   7.988 -0.0088 -0.1277 -0.1490
 2122W        W45039  18.235  10.930   7.247 -0.1405  0.1674  0.0154
 2123W        W45040  18.834  12.298   9.081 -0.1308 -0.4596 -0.1860
 2124W        W45041  14.869  11.249   9.294  0.0655 -0.0637 -0.1491
 2125W        W45042  12.121  12.061   8.177 -0.2196 -0.1422 -0.0545
 2126W        W45043  13.513  12.365   9.904  0.0538  0.1297  0.0397
 2127W        W45044  15.624  10.854  10.114  0.0038 -0.1113  0.0585
 2128W        W45045  17.362  10.977   9.186  0.1349 -0.0544 -0.0844
 2129W        W45046  14.913  11.991   8.058 -0.1382  0.0651 -0.1709
 2130W        W45047  12.288  14.485   7.465 -0.2239  0.1506 -0.0037
 2131W        W45048  15.080  14.306   9.596  0.1819  0.2155 -0.0274
 2132W        W45049  20.075  15.299   8.771 -0.0380  0.1668 -0.1648
 2133W        W45050  16.746  13.745  10.220 -0.0815  0.4686  0.3482
 2134W        W45051  16.818  13.873   8.771 -0.0943  0.1688 -0.1145
 2135W        W45052  14.126  10.341   7.740 -0.0009  0.1796 -0.1551
 2136W        W45053  15.617  13.066   9.035  0.0275  0.1956  0.1253
 2137W        W45054  15.957  13.530   8.117 -0.2031  0.2278 -0.2136
 2138W        W45055  14.702  11.697  10.171 -0.0975 -0.0342  0.7140
 2139W        W45056  18.862  12.582  10.146  0.0977 -0.1126 -0.2615
 2140W        W45057  16.311  13.006   7.227 -0.1269 -0.2116 -0.1769
 2141W        W45058  20.731  16.962  10.553  0.5586 -0.2465  0.0941
 2142W        W45059  15.799  11.791   8.335 -0.3503  0.2524 -0.1433
 2143W        W45060  16.019  12.773   6.915  0.3118  0.5598  0.0107
 2144W        W45061  18.345  13.749   6.827 -0.1721 -0.0853  0.2936
 2145W        W45062  12.313  14.058  10.063  0.2372 -0.3361 -0.1887
 2146W        W45063  13.717  10.954  10.540  0.1279  0.3211 -0.4326
 2147W        W45064  17.060  14.750   8.255  0.0511  0.0172  0.2095
 2148W        W45065  19.199  11.756  10.180 -0.2067  0.0471  0.1376
 2149W        W45066  12.904  13.263   6.197 -0.0711  0.1267  0.1233
 2150W        W45067  15.382  12.605   7.943 -0.1970  0.1037  0.0183
 2151W        W45068  17.807  13.435   7.116 -0.7373  0.4495  0.1926
 2152W        W45069  17.594  14.911   8.197 -0.0573  0.1724 -0.3585
 2153W        W45070  18.140  12.615   8.440  0.2496  0.2366  0.1184
 2154W        W45071  16.410  10.560   8.299 -0.1036 -0.1117  0.4809
 2155W        W45072  16.152  14.005   8.063 -0.0625  0.2727  0.2185
 2156W        W45073  15.950  13.908   9.266 -0.1747 -0.0712 -0.2562
 2157W        W45074  15.111  10.917   8.743  0.1882 -0.1604 -0.0027
 2158W        W45075  19.051  15.158   6.560 -0.0478 -0.0846 -0.2374
 2159W        W45076  16.671  13.534  10.636 -0.1461 -0.0388 -0.0913
 2160W        W45077  16.228  13.537   9.460  0.0801  0.1126  0.3203
 2161W        W45078  14.642  11.964   8.556 -0.1462  0.3313  0.1066
 2162W        W45079  15.747  12.548   9.017 -0.4215 -0.2907 -0.3639
 2163W        W45080  16.688  11.180   8.488 -0.0613 -0.1103  0.2583
 2164W        W45081  13.804  15.636   8.300 -0.2125  0.4101 -0.4102
 2165W        W45082  16.449  11.580   9.485  0.2040  0.0136  0.0271
 2166W        W45083  19.285  10.281   9.181  0.0487 -0.1686 -0.0374
 2167W        W45084  17.029  12.829   8.771 -0.1875 -0.0908 -0.3553
 2168W        W45085  18.570  12.438   9.747 -0.0808 -0.0656  0.0487
 2169W        W45086  14.871  13.219   7.239  0.4375  0.3577 -0.0636
 2170W        W45087  16.700  11.726   8.559 -0.0991 -0.0025 -0.1174
 2171W        W45088  11.777  15.835  10.296 -0.0840 -0.1680  0.2326
 2172W        W45089  18.271  12.931   9.393  0.3863 -0.0582  0.1872
 2173W        W45090  16.151  11.973   8.680 -0.1350 -0.0660  0.1389
 2174W        W45091  14.492  13.800   7.837 -0.1922  0.0522  0.0306
 2175W        W45092  14.876  12.608   6.903  0.0582 -0.3416 -0.0057
 2176W        W45093  17.395  10.489   8.293 -0.3188 -0.1133 -0.0143
 2177W        W45094  18.181  12.151  10.084  0.0614 -0.0019  0.2239
 2178W        W45095  13.293  13.763   7.160  0.0632 -0.1285 -0.0216
 2179W        W45096  16.234  16.473  10.791  0.0940 -0.1473  0.2656
 2180W        W45097  16.187  14.499  10.095 -0.0301 -0.0623 -0.2146
 2181W        W45098  17.625  11.556   9.103  0.4313  0.0458  0.2636
 2182W        W45099  14.014  15.045  10.273 -0.0368 -0.4748  0.4568
 2183W        W45100  14.627  11.196   8.879 -0.1860  0.1990  0.0664
 2184W        W45101  12.644  13.376   6.637  0.2880  0.0749 -0.3047
 2185W        W45102  17.934  12.536   9.480  0.0884 -0.0300 -0.0025
 2186W        W45103  18.560  13.873   5.636  0.0263  0.0052  0.0269
 2187W        W45104  16.204  10.935   9.764 -0.0670  0.0026 -0.0434
 2188W        W45105  15.153  11.848   8.475  0.0711  0.1382  0.0823
 2189W        W45106  14.706  12.537  10.162 -0.1087  0.1036  0.1158
 2190W        W45107  17.751  11.449   8.550 -0.1889  0.0985 -0.2051
 2191W        W45108  12.295  12.450   7.709  0.0928  0.4590  0.0561
 2192W        W45109  18.874  12.386  10.958  0.5005  0.1939  0.0847
 2193W        W45110  15.235  10.891  10.417  0.2182  0.1781 -0.1968
 2194W        W45111  13.164  12.347  10.464 -0.2174 -0.1529  0.0262
 2195W        W45112  17.804  13.037   9.705 -0.1301  0.1786  0.0347
 2196W        W45113  14.430  11.203   7.536 -0.1346  0.2241  0.2406
 2197W        W45114  13.934  13.011  10.012  0.0378  0.5388  0.2996
 2198W        W45115  16.072  10.492   9.605 -0.1709  0.1302 -0.0493
 2199W        W45116  18.926  11.326  10.238 -0.2527  0.1026 -0.1142
 2200W        W45117  15.660  10.327   9.951  0.0527 -0.0110 -0.4898
 2201W        W45118  13.035  13.046   9.724 -0.1440 -0.1854  0.2788
 2202W        W45119  17.662  13.725   6.307 -0.4052 -0.1612  0.0426
 2203W        W45120  16.844  13.046  10.673  0.1878 -0.3903 -0.0128
 2204W        W45121  15.896  10.636   8.646 -0.2271 -0.0390  0.0295
 2205W        W45122  17.611  15.380   6.901  0.1797  0.0198  0.0895
 2206W        W45123  16.853  12.771   7.859 -0.3615  0.0380  0.0354
 2207W        W45124  11.881  11.993   9.710  0.1866  0.1167  0.0515
 2208W        W45125  15.963  14.621   8.768  0.1103 -0.0355  0.2031
 2209W        W45126  15.396  12.082   8.097  0.0748  0.1229  0.1550
 2210W        W45127  16.858  13.492   9.246  0.1013  0.2278  0.3112
 2211W        W45128  16.095  12.943   9.038  0.0447  0.1058 -0.0097
 2212W        W45129  16.710  12.407   8.645 -0.0908 -0.2324 -0.2487
 2213W        W45130  18.752  10.257   7.809  0.2247  0.0893 -0.0282
 2214W        W45131  16.097  11.843   7.400 -0.1052 -0.0299 -0.2733
 2215W        W45132  13.964  13.047   8.603  0.0392 -0.0156 -0.0990
 2216W        W45133  17.325  13.251   9.997 -0.3153 -0.3756 -0.3456
 2217W        W45134  16.137  11.660  10.272 -0.0707 -0.1349  0.2405
 2218W        W45135  17.936  14.882   8.781  0.4142 -0.3008 -0.0674
 2219W        W45136  15.772  11.993   7.785  0.0445  0.0339  0.1076
 2220W        W45137  15.190  12.541   8.964  0.0578 -0.1371  0.2710
 2221W        W45138  15.813  13.398   8.568  0.3799 -0.2844  0.1123
 2222W        W45139  18.152  12.905   8.849  0.0272  0.2219  0.3140
 2223W        W45140  17.442  12.639   9.231 -0.0613 -0.0414  0.1003
 2224W        W45141  16.964  13.435  11.071 -0.4032 -0.1015  0.1630
 2225W        W45142  16.784  13.016   8.315 -0.1541  0.3334  0.0124
 2226W        W45143  18.308  13.148   6.752 -0.2039  0.0724  0.1769
 2227W        W45144  16.496  15.772  10.292  0.1208  0.4768  0.1633
 2228W        W45145  16.762  14.380   8.706 -0.0031  0.5719 -0.0116
 2229W        W45146  17.393  11.255   7.348  0.1476  0.1745 -0.0042
 2230W        W45147  18.999  13.085  10.136 -0.2317 -0.1936 -0.1539
 2231W        W45148  17.816  12.173   7.729  0.4127 -0.1588  0.0834
 2232W        W45149  19.257  11.228   8.949 -0.4306  0.2202  0.2538
 2233W        W45150  16.999  11.175  10.191  0.0607  0.2109 -0.2124
 2234W        W45151  16.896  11.871   9.434  0.2665 -0.0295  0.0753
 2235W        W45152  16.274  12.347  10.073  0.3169  0.0892  0.2618
 2236W        W45153  16.082  13.475   7.204  0.0200 -0.1018  0.0364
 2237W        W45154  18.124  13.933   8.192 -0.0792 -0.1023  0.0535
 2238W        W45155  17.457  11.662   9.656  0.1984  0.1200 -0.0235
 2239W        W45156  20.273  12.257  10.834  0.0132 -0.1811  0.1614
 2240W        W45157  15.162  11.757   6.726 -0.2440  0.1963 -0.0800
 2241W        W45158  15.360  13.132   8.571  0.1807 -0.0602  0.1962
 2242W        W45159  15.656  12.891   6.571  0.1808 -0.1845 -0.1998
 2243W        W45160  17.763  15.067   9.793 -0.0237 -0.3964  0.0935
 2244W        W45161  16.359  10.757   6.899  0.0150 -0.2759 -0.0808
 2245W        W45162  14.577  14.447   9.043 -0.0189  0.2739 -0.2860
 2246W        W45163  17.446   9.926   8.194 -0.0985  0.1094 -0.0790
 2247W        W45164  14.082  14.438  10.386 -0.1768 -0.0763  0.0581
 2248W        W45165  15.031  14.006   8.151 -0.1384  0.2687 -0.3094
 2249W        W45166  16.942  10.443   9.186 -0.1742 -0.0301  0.3590
 2250W        W45167  17.141  13.395  10.552  0.0573 -0.0378  0.1072
 2251W        W45168  19.451  14.128  10.044  0.0383 -0.0582  0.0504
 2252W        W45169  15.441  13.913   8.401  0.0126 -0.3064 -0.1361
 2253W        W45170  19.771  12.860   5.741 -0.0263 -0.1255  0.0716
 2254W        W45171  15.454  13.566   8.928  0.1907 -0.0153 -0.0436
 2255W        W45172  15.517  12.129   9.315 -0.3320  0.2237 -0.1982
 2256W        W45173  15.283  10.952   8.117  0.0374  0.1932 -0.1892
 2257W        W45174  15.907  12.863   7.457 -0.0230  0.1556  0.0329
 2258W        W45175  17.255  16.462   9.902 -0.3414  0.1274 -0.0845
 2259W        W45176  14.916  13.544   9.034  0.0119  0.2366 -0.0967
 2260W        W45177  16.355  14.185   8.887  0.0371  0.1572  0.0447
 2261W        W45178  17.654  13.049   8.002 -0.2932  0.2225  0.2637
 2262W        W45179  19.283  12.741  10.828 -0.4453  0.0606 -0.2814
 2263W        W45180  16.901  11.864  10.385  0.2142 -0.0730 -0.5251
 2264W        W45181  15.928  13.042   9.517  0.1918 -0.0738  0.1743
 2265W        W45182  13.000  13.656   8.873  0.1057 -0.0920 -0.0982
 2266W        W45183  13.512  11.782  10.553 -0.0240  0.2490 -0.2254
 2267W        W45184  15.878  10.728  11.194 -0.1369  0.2440  0.1509
 2268W        W45185  17.447  11.366   6.810 -0.2205  0.1613  0.0363
 2269W        W45186  18.291  11.630   9.872  0.1121 -0.4515  0.0827
 2270W        W45187  18.536  12.617   8.726 -0.3941  0.1800  0.0322
 2271W        W45188  16.549  14.299   9.395 -0.1595 -0.2093  0.2853
 2272W        W45189  17.246  11.813   6.684  0.0074 -0.1082 -0.0342
 2273W        W45190  17.557  14.363   7.506  0.0744 -0.0293  0.0700
 2274W        W45191  13.167  12.422   8.140  0.0013  0.1423  0.1792
 2275W        W45192  15.766  11.236   9.407  0.2268 -0.0566  0.0562
 2276W        W45193  18.793  11.699   8.195 -0.0668  0.1505 -0.3536
 2277W        W45194  15.885  15.529   7.079  0.0919  0.1895 -0.0751
 2278W        W45195  17.918  10.632  10.184  0.0991  0.0720 -0.1463
 2279W        W45196  14.827  14.018   8.652 -0.0246  0.1144  0.2888
 2280W        W45197  13.576  12.695   8.680 -0.1946  0.0760  0.1039
 2281W        W45198  17.116  14.280  10.448  0.1306 -0.0067  0.0066
 2282W        W45199  13.890  11.274   7.580 -0.0470 -0.1330 -0.4048
 2283W        W45200  18.192  12.739   9.909 -0.2142  0.1963  0.1431
 2284W        W45201  16.488  12.504   8.160 -0.1662  0.0991  0.1461
 2285W        W45202  16.463  13.078   9.388  0.0075 -0.1237  0.1740
 2286W        W45203  18.045  11.662   8.948  0.1565 -0.0471 -0.2225
 2287W        W45204  14.725  11.673   9.033  0.0080 -0.1390 -0.0971
 2288W        W45205  13.814  11.411  10.385 -0.1290 -0.6022  0.2686
 2289W        W45206  16.265  11.371   7.447 -0.1525  0.0310  0.1666
 2290W        W45207  16.408  11.815   9.898 -0.2065  0.1441  0.1905
 2291W        W45208  16.476  12.217   9.463  0.2642  0.1392 -0.1876
 2292W        W45209  17.400  10.963   7.721 -0.1805 -0.1615  0.2933
 2293W        W45210  16.064  12.571   9.415  0.3803  0.0124 -0.0569
 2294W        W45211  14.939  10.481  10.566  0.1352  0.1156 -0.1592
 2295W        W45212  14.876  11.226   8.397  0.1086 -0.0679  0.2725
 2296W        W45213  18.410  14.390   6.452  0.2028  0.2367 -0.1320
 2297W        W45214  19.077  12.116  10.512 -0.2266  0.1517  0.1018
 2298W        W45215  16.330  13.709   7.710  0.2992  0.0117  0.0163
 2299W        W45216  20.244  11.749  10.275 -0.1499  0.2128  0.2449
 2300W        W45217  16.929  13.448   9.713  0.0508  0.1018  0.2997
 2301W        W45218  15.166  10.449   9.321  0.0902  0.0463  0.1327
 2302W        W45219  17.639  13.447  10.358  0.1025 -0.2237 -0.0245
 2303W        W45220  18.740  13.421   9.764  0.0619  0.1073  0.0300
 2304W        W45221  16.171  10.371   9.112 -0.3605 -0.1034 -0.0615
 2305W        W45222  16.412  13.699   9.021 -0.1426 -0.0387  0.0766
 2306W        W45223  14.100  13.757   8.530  0.0877  0.1219  0.1321
 2307W        W45224  15.966  11.699   9.283 -0.1104  0.1454 -0.2465
 2308W        W45225  17.977  13.244  10.718 -0.0667 -0.3044  0.0862
 2309W        W45226  18.615  14.730  10.828 -0.1765  0.1008  0.1660
 2310W        W45227  16.251  12.166   7.771 -0.2336 -0.4766  0.1778
 2311W        W45228  14.926  12.984   8.820 -0.1605 -0.3371 -0.2703
 2312W        W45229  16.226  14.815   7.349 -0.2703 -0.0322  0.1016
 2313W        W45230  18.568  15.342   9.519 -0.0590  0.0845  0.3575
 2314W        W45231  17.353  14.179   8.852 -0.0227 -0.1593 -0.0689
 2315W        W45232  19.027  12.820   8.787  0.2733  0.3364 -0.1049
 2316W        W45233  16.571  12.645   9.720 -0.0854 -0.1479 -0.2077
 2317W        W45234  18.176  12.188   8.727  0.2516 -0.0362  0.0320
 2318W        W45235  16.489  10.715   9.398 -0.1301  0.1235  0.1252
 2319W        W45236  16.955  12.958   9.820 -0.1170 -0.1871  0.0145
 2320W        W45237  13.658  13.717   8.130  0.0510  0.0058  0.1471
 2321W        W45238  12.764  13.323   7.874  0.1849  0.0537 -0.1219
 2322W        W45239  16.077  12.817   9.978 -0.0046  0.0390  0.0047
 2323W        W45240  18.112  15.427  10.033 -0.1024 -0.1297  0.0447
 2324W        W45241  16.473  12.924   6.687 -0.0365 -0.1311  0.3087
 2325W        W45242  17.007  13.759   7.154  0.1942 -0.0007 -0.0235
 2326W        W45243  15.265  10.769  11.161  0.1975  0.0632  0.2707
 2327W        W45244  13.676  11.695   8.728  0.2123  0.3126 -0.0071
 2328W        W45245  16.045  12.298   8.259  0.0341 -0.0024 -0.1496
 2329W        W45246  17.329  14.253   5.000 -0.3005  0.0891 -0.4117
 2330W        W45247  15.753  11.445   7.419 -0.0846 -0.0062  0.3366
 2331W        W45248  13.357  14.078   8.971 -0.0984 -0.0908 -0.0680
 2332W        W45249  15.122  12.367   8.480  0.0625 -0.4432  0.0704
 2333W        W45250  15.572  12.641  10.209 -0.1271 -0.0673  0.0413
 2334W        W45251  17.881  14.380   9.025 -0.1908  0.3629 -0.1741
 2335W        W45252  16.438  12.815   8.598 -0.3966 -0.1005 -0.0806
 2336W        W45253  14.174  11.270  10.684  0.3382  0.0996  0.0850
 2337W        W45254  17.187  14.385   9.649 -0.1644  0.1922 -0.0064
 2338W        W45255  18.330  15.328   8.832 -0.1522  0.0122  0.3004
 2339W        W45256  15.944  11.482  10.746 -0.1887  0.2143 -0.0083
 2340W        W45257  16.726  11.266   9.744  0.1014 -0.2477  0.4627
 2341W        W45258  19.862  11.437   9.906 -0.0224  0.3446 -0.0701
 2342W        W45259  13.593  12.181   8.671  0.0754 -0.4352 -0.2172
 2343W        W45260  17.339  10.484   7.788  0.0857  0.0577  0.1991
 2344W        W45261  15.080  13.567   8.578 -0.1981  0.0532  0.2559
 2345W        W45262  12.498  10.952  10.369  0.2943 -0.2430 -0.0453
 2346W        W45263  19.225  10.796  10.255 -0.1188 -0.0062 -0.0233
 2347W        W45264  15.817  13.474  10.578  0.4009 -0.2600  0.0101
 2348W        W45265  17.993  12.798   6.677  0.4541 -0.0862 -0.2863
 2349W        W45266  17.386  13.484   6.856 -0.0799 -0.0279  0.0403
 2350W        W45267  13.448  13.625   9.185 -0.0227  0.2976 -0.3133
 2351W        W45268  17.222  13.263   9.000  0.1191 -0.4212 -0.1768
 2352W        W45269  19.316  12.760   9.909 -0.1060  0.0932 -0.1595
 2353W        W45270  14.538  10.427  10.247 -0.3310 -0.2411  0.1703
 2354W        W45271  16.296  13.375  10.359  0.0413 -0.1211 -0.3489
 2355W        W45272  15.325  13.542   7.453 -0.1051  0.3578 -0.0053
 2356W        W45273  18.129  12.472  10.499 -0.2128  0.1461  0.1099
 2357W        W45274  16.922  12.922   9.281 -0.0140 -0.1534 -0.4006
 2358W        W45275  16.165  10.325   7.198  0.2114 -0.4621  0.1793
 2359W        W45276  12.494  14.082  10.546  0.1347 -0.0662 -0.2239
 2360W        W45277  17.411  12.763   9.794  0.2793 -0.1303  0.0806
 2361W        W45278  14.729  17.749   1.064 -0.1409  0.0359  0.3049
 2362W        W45279  17.113  15.041   1.596  0.0936 -0.0601  0.1181
 2363W        W45280  17.030  15.086  29.223 -0.0606  0.3385 -0.1221
 2364W        W45281  15.978  17.907  31.279  0.2525 -0.3708 -0.3168
 2365W        W45282  13.301  16.437   0.345 -0.0380 -0.0125 -0.3433
 2366W        W45283  15.697  19.270   0.627  0.1905 -0.0351  0.1575
 2367W        W45284  14.342  15.696   1.416  0.2201  0.2215 -0.0299
 2368W        W45285  16.085  16.868   2.066  0.3092  0.1064  0.1541
 2369W        W45286  17.409  18.838  31.692  0.1921  0.0819 -0.1533
 2370W        W45287  15.755  17.074  28.404 -0.2626  0.1141  0.3853
 2371W        W45288  13.549  14.712   0.341 -0.0157  0.2309  0.0404
 2372W        W45289  16.053  19.353   1.585  0.0142 -0.1718 -0.1574
 2373W        W45290  14.674  14.759  30.672 -0.1109  0.1059  0.2357
 2374W        W45291  13.386  13.957   2.429  0.2627  0.1585  0.2418
 2375W        W45292  17.273  18.088   1.652 -0.4640 -0.2606  0.1449
 2376W        W45293  14.811  16.807  31.528  0.2516  0.0270 -0.0597
 2377W        W45294  15.078  17.513   0.721  0.1740  0.2818  0.0128
 2378W        W45295  13.695  15.300   0.936 -0.0904 -0.0804 -0.0541
 2379W        W45296  15.742  16.620  29.764 -0.0069  0.0949 -0.0196
 2380W        W45297  17.035  16.123   1.462 -0.0808  0.0042 -0.3227
 2381W        W45298  14.514  15.702   2.932  0.0687 -0.0264 -0.1268
 2382W        W45299  14.425  17.327   0.326  0.2538  0.3211 -0.1887
 2383W        W45300  17.645  15.363  29.717 -0.0186  0.0107 -0.1736
 2384W        W45301  12.878  16.101   2.076  0.0325  0.3908  0.2140
 2385W        W45302  14.831  15.440   0.813 -0.1810  0.0059 -0.0361
 2386W        W45303  16.834  14.125  29.632  0.0686  0.2281  0.0000
 2387W        W45304  16.451  17.252   0.826 -0.2188  0.0972 -0.2086
 2388W        W45305  14.491  18.496   0.570  0.2392 -0.0659  0.2722
 2389W        W45306  16.235  16.494  29.804  0.0188  0.0805 -0.0693
 2390W        W45307  17.231  16.503   1.687  0.4609 -0.1559 -0.3770
 2391W        W45308  15.067  17.133   0.420  0.0815  0.2906 -0.1297
 2392W        W45309  16.074  17.320  30.814  0.0707  0.2377 -0.0633
 2393W        W45310  16.399  18.228  31.004 -0.0464  0.0427  0.2490
 2394W        W45311  18.513  18.568  31.479  0.0703 -0.0572  0.0420
 2395W        W45312  16.650  20.270   1.074 -0.3020  0.0316  0.1568
 2396W        W45313  15.196  18.855   2.285  0.0350 -0.1574 -0.0252
 2397W        W45314  17.366  16.099  28.812  0.1650 -0.4628  0.1837
 2398W        W45315  15.099  16.971   3.139  0.0173 -0.0337  0.1498
 2399W        W45316  16.139  18.036   0.787  0.2604  0.0287  0.2126
 2400W        W45317  15.806  18.339   0.509  0.1412  0.2138 -0.2540
 2401W        W45318  15.086  19.398   1.711 -0.1604 -0.0927 -0.1725
 2402W        W45319  14.537  16.454  31.134  0.2281  0.1369 -0.1739
 2403W        W45320  15.578  17.266  29.602  0.1963  0.3620 -0.0734
 2404W        W45321  14.418  18.585   4.493 -0.3434  0.1821 -0.2009
 2405W        W45322  13.501  16.899   1.302  0.0926 -0.0753 -0.2865
 2406W        W45323  15.983  15.973   1.991 -0.0409 -0.0636  0.0508
 2407W        W45324  13.597  16.942  30.558  0.0526 -0.1582  0.3806
 2408W        W45325  16.193  15.967  31.084 -0.1140 -0.1321  0.0348
 2409W        W45326  16.391  15.352  30.339 -0.0969 -0.0781 -0.0451
 2410W        W45327  17.735  15.476  30.459 -0.1535 -0.0843 -0.2635
 2411W        W45328  15.508  13.750  30.188  0.1423 -0.0941  0.1678
 2412W        W45329  15.394  18.140   0.121  0.0595 -0.1579  0.2835
 2413W        W45330  14.024  16.008   0.539  0.0678  0.0457 -0.1435
 2414W        W45331  16.485  19.143   1.398  0.0349 -0.0970 -0.1884
 2415W        W45332  16.096  15.557  31.376  0.4196  0.1151  0.1936
 2416W        W45333  17.239  16.111   2.813  0.2760  0.0483  0.0773
 2417W        W45334  14.607  17.954   4.094 -0.1210  0.0580 -0.1787
 2418W        W45335  14.260  15.339   2.843  0.0436  0.3026  0.1354
 2419W        W45336  17.958  17.232  29.648  0.2819 -0.0305  0.4566
 2420W        W45337  16.882  20.270  31.643  0.0924 -0.0296  0.0941
 2421W        W45338  16.533  18.066  27.849 -0.2356 -0.4087 -0.0458
 2422W        W45339  14.635  17.310   0.855 -0.1492 -0.0909  0.0764
 2423W        W45340  14.743  15.785   2.526  0.0561  0.2052 -0.2393
 2424W        W45341  15.540  17.534   2.604 -0.0084 -0.1489  0.3089
 2425W        W45342  15.250  15.559  29.995 -0.3565  0.0960  0.0326
 2426W        W45343  18.058  15.905   2.642 -0.2881  0.0437  0.0538
 2427W        W45344  15.193  17.448  31.859 -0.0955 -0.1470 -0.1799
 2428W        W45345  15.981  17.034   0.650 -0.0063  0.0361 -0.0360
 2429W        W45346  15.016  16.071   2.866  0.1826 -0.3673 -0.1488
 2430W        W45347  16.193  18.736  31.780  0.0281 -0.0803  0.0755
 2431W        W45348  17.277  18.290  31.683  0.3036 -0.1441 -0.0887
 2432W        W45349  16.474  15.045   0.201  0.2957 -0.0339 -0.2255
 2433W        W45350  17.190  13.828   1.290  0.0208 -0.3960  0.0007
 2434W        W45351  15.388  16.822  30.713  0.2882 -0.0479  0.0435
 2435W        W45352  15.991  15.508  31.873 -0.3465 -0.2914 -0.1463
 2436W        W45353  15.931  17.814   2.031  0.1784  0.0737  0.0302
 2437W        W45354  16.625  15.808  28.667  0.4022  0.1124  0.2398
 2438W        W45355  12.956  18.873   1.695  0.0056  0.1435 -0.0625
 2439W        W45356  16.784  14.192   1.256  0.3685  0.3103 -0.1247
 2440W        W45357  15.321  16.656   2.081  0.3418 -0.0592 -0.1410
 2441W        W45358  15.299  16.398  27.647  0.1070 -0.2944  0.1021
 2442W        W45359  14.814  18.299   1.129  0.1101  0.2140 -0.0676
 2443W        W45360  14.215  17.525  30.247 -0.3629 -0.0668  0.1407
 2444W        W45361  15.225  15.531   1.720  0.0188 -0.0499 -0.1308
 2445W        W45362  13.757  17.323   4.487 -0.1599 -0.1893 -0.2098
 2446W        W45363  18.413  16.932  31.321 -0.0592  0.0831  0.1650
 2447W        W45364  14.876  17.677   0.266 -0.2685  0.0697 -0.1253
 2448W        W45365  17.106  14.466  31.354 -0.0607 -0.0000 -0.0163
 2449W        W45366  15.718  17.126  30.463  0.2705  0.0107  0.0175
 2450W        W45367  16.265  17.137  30.395 -0.3695  0.0729  0.0852
 2451W        W45368  16.795  15.770  29.614 -0.0042  0.0473  0.2761
 2452W        W45369  16.874  17.600  26.368 -0.1678 -0.2915 -0.0141
 2453W        W45370  14.632  17.477   1.500 -0.4570 -0.0784  0.0026
 2454W        W45371  13.780  17.682  31.088  0.2447  0.1315 -0.2003
 2455W        W45372  14.799  15.082  31.067 -0.0698  0.1192 -0.1777
 2456W        W45373  13.900  15.781   1.592  0.6100  0.0304 -0.1779
 2457W        W45374  17.651  17.547   1.066 -0.1179 -0.4264 -0.2664
 2458W        W45375  15.328  16.062   0.042 -0.0088  0.1410 -0.2332
 2459W        W45376  18.187  15.346  30.757 -0.3743  0.2367 -0.2146
 2460W        W45377  15.928  16.893  31.668  0.0239 -0.0050 -0.1389
 2461W        W45378  12.241  13.876   0.874  0.3701  0.0443 -0.1041
 2462W        W45379  17.769  15.360   1.962 -0.0358 -0.2884 -0.0280
 2463W        W45380  16.543  17.134  30.963  0.3640  0.1198  0.2329
 2464W        W45381  18.174  17.961   1.376 -0.0568  0.0077 -0.2125
 2465W        W45382  19.210  19.253  31.953 -0.0531  0.0059  0.2228
 2466W        W45383  13.761  16.799   0.716  0.2546 -0.0874  0.0466
 2467W        W45384  14.131  16.911   0.327 -0.1516 -0.0189  0.1031
 2468W        W45385  16.938  18.383   1.739  0.0172 -0.3122  0.1883
 2469W        W45386  14.533  17.815   0.587 -0.0387  0.1666 -0.0369
 2470W        W45387  16.459  13.934  31.856  0.0949 -0.3683 -0.2068
 2471W        W45388  16.869  19.849  31.070 -0.2882  0.1223  0.3171
 2472W        W45389  16.986  17.713  31.395 -0.1598  0.2099  0.0486
 2473W        W45390  15.590  17.031   0.119  0.0447  0.0204  0.0558
 2474W        W45391  17.543  13.444   0.301  0.0240 -0.0923  0.0289
 2475W        W45392  18.581  16.492  31.633  0.0075 -0.0262  0.0388
 2476W        W45393  17.183  15.607   0.668  0.0102  0.1029  0.0697
 2477W        W45394  14.391  15.475  31.173 -0.1144  0.0766  0.1449
 2478W        W45395  18.012  17.841   0.793  0.0815 -0.4044 -0.1419
 2479W        W45396  15.788  16.874  29.252 -0.1518 -0.0061  0.0887
 2480W        W45397  12.269  15.781   2.922  0.4166 -0.0324 -0.1879
 2481W        W45398  15.691  16.363   1.282  0.0490  0.1220  0.1443
 2482W        W45399  15.485  17.884   0.592 -0.1115  0.0093  0.0552
 2483W        W45400  14.105  17.541   1.778  0.2298  0.4031 -0.0512
 2484W        W45401  16.762  15.997   2.570 -0.1046  0.0123  0.1282
 2485W        W45402  13.936  16.410  30.895  0.3856  0.0390 -0.0692
 2486W        W45403  13.231  18.989   2.328 -0.0724  0.0960 -0.2203
 2487W        W45404  16.334  16.436  31.862  0.2859  0.1451  0.1766
 2488W        W45405  16.956  15.242  27.486  0.2520  0.2825  0.0466
 2489W        W45406  17.376  15.821   1.282 -0.1908  0.1033 -0.3191
 2490W        W45407  16.737  17.361  30.556  0.0129 -0.3086  0.2262
 2491W        W45408  16.516  16.507  30.223  0.0104  0.0273  0.0797
 2492W        W45409  15.909  15.195  30.216  0.0460 -0.0678 -0.1028
 2493W        W45410  13.971  17.861   3.848  0.0394  0.0650 -0.2981
 2494W        W45411  15.273  18.672   0.276  0.0263  0.0284  0.0909
 2495W        W45412  16.439  15.059   1.476 -0.0456 -0.4446  0.1812
 2496W        W45413  15.855  17.043  29.968 -0.1577  0.2446 -0.1762
 2497W        W45414  17.939  17.684  31.407  0.1274  0.2584  0.2194
 2498W        W45415  14.524  16.118   4.943 -0.0278  0.1642  0.2073
 2499W        W45416  16.739  17.202   3.270  0.2559  0.0975 -0.0048
 2500W        W45417  18.705  19.378   0.047 -0.1043  0.0172  0.0925
 2501W        W45418  16.443  15.904   3.353  0.2125  0.1733  0.2051
 2502W        W45419  15.793  15.612  29.758 -0.0556 -0.3185  0.2022
 2503W        W45420  16.701  15.565   1.006  0.0000  0.0475  0.2543
 2504W        W45421  14.123  16.878  30.868 -0.3084  0.0314 -0.0426
 2505W        W45422  18.324  13.539   0.740 -0.2053  0.0373 -0.1068
 2506W        W45423  16.549  15.271   1.929  0.1619 -0.0014  0.2997
 2507W        W45424  16.254  15.560   1.392 -0.1174  0.1090  0.0164
 2508W        W45425  16.980  17.248   1.913 -0.1700 -0.2797  0.1204
 2509W        W45426  15.506  16.702  30.223 -0.2137  0.1639 -0.0235
 2510W        W45427  15.483  17.471   0.337 -0.0253 -0.0764  0.2740
 2511W        W45428  14.333  16.839  31.834  0.1358 -0.1291 -0.0114
 2512W        W45429  17.324  17.333   3.217 -0.2687 -0.0912 -0.0437
 2513W        W45430  14.561  18.025   1.472 -0.2380  0.0291 -0.1282
 2514W        W45431  15.850  18.678   3.250 -0.1420 -0.1716  0.1156
 2515W        W45432  18.463  18.211   2.022  0.2977 -0.3013  0.0798
 2516W        W45433  15.290  18.282   1.191  0.0245 -0.1183  0.0937
 2517W        W45434  16.065  15.113   2.713  0.0729  0.0549 -0.0183
 2518W        W45435  15.752  15.420   0.775 -0.0161 -0.2452  0.0673
 2519W        W45436  12.903  17.005  31.465  0.1423 -0.0008 -0.0590
 2520W        W45437  15.738  17.423  31.777  0.1604  0.0312 -0.2717
 2521W        W45438  16.053  14.348   1.788 -0.1321  0.3629  0.1377
 2522W        W45439  14.225  18.763   1.898  0.2012  0.2461  0.0745
 2523W        W45440  13.693  18.031   0.395 -0.1715 -0.4154 -0.1992
 2524W        W45441  17.302  17.200   1.238  0.1364  0.1089 -0.1661
 2525W        W45442  13.680  18.564   0.338 -0.1682  0.3506  0.1197
 2526W        W45443  17.214  13.308  31.509 -0.1051  0.1262  0.0534
 2527W        W45444  15.033  19.446   0.685 -0.1461  0.0572 -0.2448
 2528W        W45445  15.849  16.397  31.674  0.2204  0.1472 -0.1674
 2529W        W45446  12.703  16.215  29.872  0.1520 -0.0966  0.4020
 2530W        W45447  16.972  16.517   0.636 -0.1238  0.0930  0.0855
 2531W        W45448  16.865  16.829  30.261 -0.0425  0.1133  0.0754
 2532W        W45449  14.116  18.018   1.661 -0.0602 -0.0068 -0.1059
 2533W        W45450  15.623  15.013  30.885 -0.0018  0.1497 -0.2923
 2534W        W45451  14.244  17.693   1.260  0.1577  0.1516  0.0573
 2535W        W45452  16.680  16.429   2.277  0.2675 -0.1055 -0.2325
 2536W        W45453  17.154  15.560  30.137  0.1990 -0.1280 -0.1787
 2537W        W45454  16.595  18.459   2.142  0.0584 -0.2924 -0.0709
 2538W        W45455  15.542  17.909  31.624  0.0383 -0.1852 -0.0172
 2539W        W45456  13.955  16.012   0.016 -0.2808 -0.0413 -0.0271
 2540W        W45457  17.731  17.455   1.876  0.2862  0.3568  0.0805
 2541W        W45458  16.562  15.347  31.180 -0.2095 -0.4067 -0.2905
 2542W        W45459  15.146  17.393   1.312  0.1134  0.0664 -0.0313
 2543W        W45460  16.522  16.773  30.626  0.3664 -0.1125  0.4877
 2544W        W45461  13.673  14.837  30.254  0.1821  0.1823  0.3092
 2545W        W45462  13.446  19.437   1.585 -0.1986  0.0015  0.1587
 2546W        W45463  16.279  16.710   0.811  0.1416  0.2951 -0.1333
 2547W        W45464  16.110  16.997   2.671 -0.0098  0.1822  0.0253
 2548W        W45465  16.594  16.294   0.931 -0.0713 -0.1558 -0.0515
 2549W        W45466  16.185  15.366  29.158 -0.5827  0.0594  0.0195
 2550W        W45467  15.846  15.939  30.753 -0.2825  0.2849  0.1342
 2551W        W45468  16.107  18.546   0.782  0.1415 -0.0286 -0.2935
 2552W        W45469  16.883  14.849   1.126  0.4701  0.1039  0.0805
 2553W        W45470  14.945  17.403   3.860 -0.1385 -0.1527  0.1083
 2554W        W45471  14.072  13.624   1.054  0.0027 -0.1137  0.0338
 2555W        W45472  16.438  19.597  29.242 -0.0290 -0.1711  0.0385
 2556W        W45473  17.570  16.713   2.818  0.0526 -0.2193  0.1261
 2557W        W45474  14.044  16.666  31.372 -0.0350  0.3965  0.4176
 2558W        W45475  14.243  15.602   1.957  0.2345  0.3319  0.1368
 2559W        W45476  16.722  15.410  29.955  0.0494 -0.4812  0.0100
 2560W        W45477  16.881  16.809   3.921  0.0936 -0.0584 -0.0247
 2561W        W45478  16.090  16.864  30.931 -0.1457  0.1910 -0.0970
 2562W        W45479  14.512  15.330  30.694 -0.1779 -0.1247 -0.0425
 2563W        W45480  15.542  18.053   2.836 -0.0134  0.2270  0.0342
 2564W        W45481  17.424  14.892  29.625 -0.0588 -0.1811  0.1107
 2565W        W45482  15.987  16.696   0.220  0.2337  0.0986 -0.3282
 2566W        W45483  16.611  16.396   1.439 -0.0946  0.1494 -0.1092
 2567W        W45484  16.392  16.927  31.878  0.1643  0.0935  0.0919
 2568W        W45485  15.924  17.597   0.533 -0.3110  0.0462  0.0023
 2569W        W45486  15.186  15.154   3.862 -0.0217  0.2371  0.0979
 2570W        W45487  15.263  16.764   1.430  0.3700 -0.1244 -0.1386
 2571W        W45488  17.621  15.788  30.084 -0.1992 -0.0499 -0.1103
 2572W        W45489  14.189  17.173   2.580 -0.1670 -0.0378 -0.1611
 2573W        W45490  16.571  20.107   4.260 -0.0976  0.0376  0.1456
 2574W        W45491  15.557  17.039   2.896  0.2134 -0.0605  0.0519
 2575W        W45492  16.192  16.609   1.339 -0.0781  0.0418 -0.1418
 2576W        W45493  16.110  15.236  29.736 -0.3114 -0.0262  0.1772
 2577W        W45494  17.049  15.616  31.315  0.3410 -0.1235  0.1382
 2578W        W45495  16.667  16.893   1.113  0.1057 -0.0848  0.0660
 2579W        W45496  14.552  17.197  31.000  0.0063 -0.1475  0.1086
 2580W        W45497  18.656  16.200  31.205 -0.0474  0.2893 -0.1645
 2581W        W45498  14.191  16.453   0.716  0.2040 -0.2617  0.0103
 2582W        W45499  16.685  16.566  31.042  0.2379 -0.0502 -0.0162
 2583W        W45500  16.581  17.124  26.371  0.3212  0.0195  0.2157
 2584W        W45501  14.270  16.946   0.849 -0.1000  0.0996 -0.0235
 2585W        W45502  14.975  16.221   4.624 -0.0168  0.2826  0.1342
 2586W        W45503  16.066  17.725   1.494 -0.2219  0.1618 -0.1070
 2587W        W45504  15.672  14.918   0.995 -0.0903 -0.0535  0.2214
 2588W        W45505  15.748  15.618   1.722  0.6676 -0.0666  0.1550
 2589W        W45506  15.354  16.127   0.527 -0.2263  0.0582  0.0612
 2590W        W45507  14.869  16.552   2.853 -0.0795 -0.0149  0.0976
 2591W        W45508  14.170  16.075   5.296  0.0029  0.0639 -0.0328
 2592W        W45509  16.164  20.339   1.246  0.1613  0.1133 -0.1000
 2593W        W45510  16.525  19.510  31.133 -0.1381  0.0894 -0.0176
 2594W        W45511  17.616  15.763   0.411  0.2350  0.0360  0.1277
 2595W        W45512  14.916  16.320  31.899 -0.2363 -0.4415 -0.3319
 2596W        W45513  17.792  18.772   1.397 -0.0721 -0.0120 -0.0687
 2597W        W45514  16.030  16.079   3.096  0.1024 -0.2374 -0.0909
 2598W        W45515  16.897  15.652   1.507  0.0259 -0.0829  0.1053
 2599W        W45516  16.071  17.232  31.280  0.3520 -0.2610  0.0133
 2600W        W45517  16.910  15.658   2.177 -0.2325  0.1932 -0.1106
 2601W        W45518  13.876  16.536  27.477 -0.1085 -0.0835 -0.0451
 2602W        W45519  16.988  19.282  30.665  0.1718 -0.2913  0.2127
 2603W        W45520  17.868  16.002  31.350 -0.0950  0.1135  0.2409
 2604W        W45521  13.313  16.023  31.603 -0.0913 -0.1072 -0.2783
 2605W        W45522  13.995  20.743   3.874 -0.1347 -0.1862  0.1560
 2606W        W45523  15.500  15.891  29.010 -0.0954  0.2298 -0.1282
 2607W        W45524  16.418  17.381  29.508  0.2095  0.1349  0.1134
 2608W        W45525  17.771  20.362   1.852  0.1308  0.2155  0.0454
 2609W        W45526  16.787  17.680   4.014  0.4822  0.0756 -0.2396
 2610W        W45527  17.555  15.718  31.044 -0.0963  0.4807 -0.1762
 2611W        W45528  17.592  15.683   2.839 -0.0941 -0.0054  0.0405
 2612W        W45529  15.210  16.685  29.811 -0.0861  0.2454 -0.0929
 2613W        W45530  18.044  15.056   3.249 -0.2488 -0.0669  0.1059
 2614W        W45531  13.241  18.277   2.934  0.3234  0.0871 -0.2016
 2615W        W45532  12.599  19.149   4.049  0.0882 -0.1981 -0.0563
 2616W        W45533  15.655  15.930  31.664 -0.2641 -0.1281 -0.3767
 2617W        W45534  16.677  16.070  30.812  0.1190 -0.3058  0.0869
 2618W        W45535  16.140  15.982  31.660 -0.0513 -0.0154 -0.1491
 2619W        W45536  15.887  15.897   0.681 -0.2617  0.0238 -0.3561
 2620W        W45537  16.594  15.825  31.380  0.3283  0.2447  0.3068
 2621W        W45538  15.732  18.831   0.489  0.0643 -0.0583  0.5313
 2622W        W45539  14.757  16.814   0.842  0.0811  0.0410  0.0705
 2623W        W45540  16.642  18.300   0.618  0.1240  0.1434 -0.0329
 2624W        W45541  17.960  16.762  30.412  0.0354 -0.0691  0.4939
 2625W        W45542  13.820  17.386   1.276  0.0281 -0.0792 -0.0074
 2626W        W45543  14.214  16.940   2.084 -0.0870 -0.0409 -0.2179
 2627W        W45544  15.656  16.613   2.564  0.1586  0.1707 -0.0358
 2628W        W45545  16.861  18.071  31.750 -0.1840 -0.0305 -0.0420
 2629W        W45546  16.156  15.114  31.053 -0.0079  0.1619 -0.0239
 2630W        W45547  16.859  17.752  27.168  0.0181 -0.0291  0.1156
 2631W        W45548  14.917  18.277   4.407 -0.0709 -0.0648 -0.1192
 2632W        W45549  12.533  19.207   2.250 -0.2546  0.0721 -0.3903
 2633W        W45550  14.255  17.734  30.987  0.1095 -0.3787  0.3794
 2634W        W45551  17.273  17.338  31.627 -0.1525 -0.0345 -0.1315
 2635W        W45552  15.108  16.903  31.885  0.0793  0.2770 -0.0681
 2636W        W45553  16.153  18.234   2.284  0.1322  0.1190  0.0640
 2637W        W45554  15.802  15.234  28.779  0.1009  0.1417 -0.2581
 2638W        W45555  16.424  16.886  31.346  0.2141  0.0428  0.1214
 2639W        W45556  13.150  17.158  31.056  0.2249 -0.3176  0.2322
 2640W        W45557  15.283  19.305  31.841  0.1681 -0.2451  0.0048
 2641W        W45558  15.097  17.651  31.428  0.0152  0.0638  0.2807
 2642W        W45559  16.555  18.351   0.024 -0.0056  0.1735  0.1258
 2643W        W45560  17.409  15.342  31.479  0.2828  0.0416  0.2937
 2644W        W45561  16.959  15.008  31.263 -0.1586 -0.3406 -0.0856
 2645W        W45562  18.749  17.645  30.185 -0.2266 -0.0432  0.0650
 2646W        W45563  16.530  17.166   2.074 -0.0901  0.1312 -0.1157
 2647W        W45564  16.384  15.847   2.815  0.1307 -0.0860 -0.0090
 2648W        W45565  16.808  15.039  30.314 -0.1504 -0.2269  0.0442
 2649W        W45566  14.944  16.978   3.582  0.0036  0.0145 -0.2559
 2650W        W45567  18.078  14.318  30.455  0.1149 -0.0253 -0.0040
 2651W        W45568  15.049  19.301   4.270  0.0637 -0.0210 -0.0011
 2652W        W45569  18.174  18.241  30.602 -0.2634 -0.0776 -0.0103
 2653W        W45570  13.615  17.626   0.136  0.0387 -0.4005  0.0793
 2654W        W45571  15.433  17.492  30.483 -0.1099  0.1598 -0.2946
 2655W        W45572  16.926  12.637  30.727  0.0539 -0.0246  0.3065
 2656W        W45573  14.232  17.747  29.172  0.1026 -0.0718  0.1017
 2657W        W45574  17.127  15.353   1.118  0.0763 -0.5638  0.1609
 2658W        W45575  14.807  18.522  31.607 -0.0987 -0.2372 -0.1620
 2659W        W45576  15.073  17.920   1.498  0.0168 -0.1919  0.3439
 2660W        W45577  14.883  19.266   2.277  0.0555  0.3227 -0.0977
 2661W        W45578  12.701  14.659  31.402  0.0325  0.1899  0.2356
 2662W        W45579  18.604  15.017  29.036 -0.0938  0.4861 -0.1114
 2663W        W45580  15.616  15.625   2.228 -0.0029 -0.0431 -0.2640
 2664W        W45581  17.549  14.116   0.069  0.1194  0.0584 -0.2934
 2665W        W45582  15.772  16.383   0.679  0.0100 -0.2726 -0.3310
 2666W        W45583  17.004  17.037  27.695 -0.0960  0.0631  0.2961
 2667W        W45584  16.314  17.916   2.676  0.1319  0.6326  0.1742
 2668W        W45585  16.066  17.193   1.141  0.1209 -0.0609 -0.2811
 2669W        W45586  14.555  15.907  31.332  0.1938  0.1803  0.1596
 2670W        W45587  15.232  15.869   2.509 -0.0686 -0.0569 -0.1463
 2671W        W45588  17.805  16.812  29.431  0.2720  0.1471 -0.0601
 2672W        W45589  14.498  19.297   1.919  0.2058  0.1951 -0.0596
 2673W        W45590  15.592  14.772   1.647 -0.0845  0.4464 -0.1443
 2674W        W45591  15.720  16.069  31.198  0.2353 -0.3272  0.2195
 2675W        W45592  13.921  18.996   0.097 -0.2144 -0.3817 -0.1195
 2676W        W45593  16.537  16.729   0.350 -0.0851 -0.0670  0.1872
 2677W        W45594  15.447  17.158   1.748  0.0525  0.1462 -0.0646
 2678W        W45595  13.986  15.220   2.476 -0.3034  0.4006 -0.2085
 2679W        W45596  17.790  16.529  27.514  0.1560  0.0299  0.0674
 2680W        W45597  17.437  15.867  31.593 -0.0090 -0.0695  0.2345
 2681W        W45598  14.153  18.311  28.664 -0.2755 -0.1635  0.0256
 2682W        W45599  16.135  18.179  31.668  0.3141  0.1203  0.0558
 2683W        W45600  15.995  17.312   1.893  0.1320 -0.3379  0.2509
 2684W        W45601  16.145  16.443   5.239  0.1488  0.0150  0.0180
 2685W        W45602  15.738  19.144   0.084  0.0999 -0.2064 -0.0633
 2686W        W45603  16.208  20.161   2.090 -0.0174 -0.0235  0.0945
 2687W        W45604  17.023  14.266  30.588  0.1742 -0.1466 -0.0613
 2688W        W45605  15.499  16.515   0.176  0.2074  0.3023 -0.2685
 2689W        W45606  14.241  18.046  30.609 -0.1725  0.0692  0.3473
 2690W        W45607  17.627  15.570   0.942 -0.0303 -0.0463  0.0321
 2691W        W45608  16.615  16.885   2.501 -0.2506  0.2797  0.0458
 2692W        W45609  13.072  16.692  30.719 -0.1289 -0.0016 -0.0523
 2693W        W45610  17.842  14.540   2.206 -0.2272  0.1393 -0.0257
 2694W        W45611  15.748  17.150   2.353  0.0297  0.0157  0.0293
 2695W        W45612  15.918  18.332   3.977 -0.1947 -0.0434 -0.0642
 2696W        W45613  13.277  16.454  31.287 -0.0164  0.0900 -0.2154
 2697W        W45614  15.626  16.243   2.178  0.0142 -0.0183 -0.0821
 2698W        W45615  15.636  15.804  30.223  0.0635 -0.0757 -0.0167
 2699W        W45616  15.209  17.815  30.903 -0.2985 -0.0669 -0.2485
 2700W        W45617  14.816  19.190   1.314 -0.0934  0.0540 -0.2438
 2701W        W45618  17.413  17.352  31.114 -0.1250 -0.3936 -0.3683
 2702W        W45619  17.755  17.786   1.519  0.2786 -0.0445  0.0286
 2703W        W45620  14.966  14.557   0.863  0.1174 -0.1301 -0.0332
 2704W        W45621  17.259  16.823  29.464  0.0608 -0.2898 -0.1509
 2705W        W45622  16.658  14.085   0.430 -0.1051  0.0294  0.1353
 2706W        W45623  14.821  16.991   1.377  0.0796  0.1924 -0.2900
 2707W        W45624  13.437  17.257  31.823  0.0043  0.0084 -0.1902
 2708W        W45625  13.509  17.405  30.680  0.0923  0.0039  0.1085
 2709W        W45626  14.606  17.242   2.174 -0.2119  0.0544 -0.1990
 2710W        W45627  16.425  15.073   3.416  0.0993 -0.2012  0.1166
 2711W        W45628  14.739  15.601   1.907 -0.2113  0.1978 -0.1187
 2712W        W45629  14.681  16.302   0.788 -0.1044  0.0294 -0.0863
 2713W        W45630  12.648  16.296   1.543 -0.0636  0.1442 -0.1495
 2714W        W45631  14.483  15.494  31.757  0.3758 -0.0647  0.0678
 2715W        W45632  14.749  15.905   1.118  0.1510  0.1784  0.0331
 2716W        W45633  14.303  16.405   0.191  0.2275  0.0329  0.3705
 2717W        W45634  16.001  16.065  29.699  0.2285  0.2004 -0.3818
 2718W        W45635  17.441  19.258  29.127  0.0504  0.0673  0.0367
 2719W        W45636  16.006  14.700   2.252 -0.0977 -0.1220  0.0056
 2720W        W45637  16.855  17.425   1.460  0.1292 -0.0344  0.0619
 2721W        W45638  12.749  16.778  31.029 -0.1344  0.1561  0.0402
 2722W        W45639  14.761  17.503   4.353 -0.1336 -0.1662 -0.0782
 2723W        W45640  16.045  14.892   1.781 -0.0748 -0.0394 -0.1392
 2724W        W45641  14.484  15.029  31.513 -0.1831  0.2184 -0.3236
 2725W        W45642  16.407  15.897   0.751  0.2341 -0.1597 -0.0712
 2726W        W45643  14.561  17.556  31.466 -0.0955 -0.3418  0.0518
 2727W        W45644  16.785  19.742  28.649 -0.2400  0.1269 -0.1316
 2728W        W45645  16.096  16.134   1.498 -0.0430  0.0774 -0.0497
 2729W        W45646  14.361  16.188   1.120  0.2521  0.0519  0.2674
 2730W        W45647  14.854  15.107  31.803 -0.0349 -0.2164 -0.1480
 2731W        W45648  18.821  15.325  31.335  0.2017 -0.1301  0.1648
 2732W        W45649  13.820  17.401   3.912 -0.2730  0.0198  0.0889
 2733W        W45650  17.054  18.673   0.886  0.3420  0.1856 -0.2461
 2734W        W45651  16.847  13.414  30.311 -0.0338 -0.1063 -0.5070
 2735W        W45652  17.710  18.132  29.073 -0.0361  0.1244  0.3353
 2736W        W45653  14.575  16.829   2.602 -0.3305 -0.3176 -0.0247
 2737W        W45654  14.774  16.845   4.034  0.0914  0.0801 -0.0166
 2738W        W45655  17.318  17.394   0.191 -0.0072  0.2374 -0.1649
 2739W        W45656  14.856  17.691   2.398  0.0728  0.0534 -0.0361
 2740W        W45657  16.190  15.525  30.766 -0.3608 -0.2556 -0.1656
 2741W        W45658  14.755  17.612  31.049  0.0274 -0.1199  0.2609
 2742W        W45659  15.648  17.339   1.336 -0.2778  0.2855  0.1190
 2743W        W45660  16.317  15.936  30.500  0.1152 -0.0099  0.0510
 2744W        W45661  15.517  17.610   2.106 -0.0149 -0.2840  0.1828
 2745W        W45662  16.248  18.698  31.114  0.0286  0.3382 -0.1562
 2746W        W45663  16.228  16.458   1.846  0.1344 -0.1938 -0.0405
 2747W        W45664  14.089  15.910  31.509  0.0670 -0.1061 -0.0742
 2748W        W45665  17.745  18.854  29.923  0.0179  0.0844 -0.3008
 2749W        W45666  16.120  18.684   2.068 -0.0445  0.0575  0.1354
 2750W        W45667  17.188  19.089   2.413  0.2488  0.2378 -0.1158
 2751W        W45668  14.984  18.017   0.669  0.1199  0.6575 -0.0473
 2752W        W45669  16.233  18.144   0.352  0.0573 -0.5391  0.2604
 2753W        W45670  15.584  15.707   3.097 -0.2041 -0.0101 -0.0544
 2754W        W45671  13.981  19.262   0.800 -0.1551  0.6554  0.2862
 2755W        W45672  13.781  16.502  30.389 -0.0502  0.0067  0.2742
 2756W        W45673  15.900  16.913   1.604  0.1868  0.1198 -0.0852
 2757W        W45674  14.479  15.874   0.091  0.2468 -0.0001 -0.0019
 2758W        W45675  14.759  14.545   2.759 -0.5212 -0.1431 -0.0937
 2759W        W45676  15.715  19.207   3.657  0.2581  0.0588  0.0364
 2760W        W45677  16.513  17.925  31.395 -0.0449 -0.1899  0.1637
 2761W        W45678  16.435  15.531   6.298  0.0854 -0.1816  0.1433
 2762W        W45679  14.420  16.543   3.334  0.2290  0.2420 -0.2863
 2763W        W45680  18.283  14.406   2.008 -0.2129 -0.0243 -0.0662
 2764W        W45681  17.510  18.430   3.647  0.3537 -0.5836  0.0362
 2765W        W45682  14.248  16.602   5.289  0.0461  0.1063  0.2823
 2766W        W45683  16.464  17.418   6.621  0.0063  0.0495 -0.0559
 2767W        W45684  16.622  14.636   7.585  0.2126 -0.1781 -0.1714
 2768W        W45685  17.158  17.982   8.432  0.1018 -0.0204  0.0512
 2769W        W45686  17.044  16.638   5.706 -0.3181  0.3086 -0.2991
 2770W        W45687  17.144  18.216   0.759  0.2254 -0.0553 -0.3138
 2771W        W45688  15.153  15.846   4.255  0.1461 -0.1448  0.0287
 2772W        W45689  15.416  17.823   7.965  0.3474  0.3115 -0.1603
 2773W        W45690  15.522  13.862   6.590 -0.1065 -0.1529 -0.0716
 2774W        W45691  13.227  14.158   6.008 -0.0805 -0.1189 -0.2018
 2775W        W45692  16.428  16.642   6.880 -0.2545  0.1206  0.0352
 2776W        W45693  15.284  16.798   4.295  0.0628  0.2929 -0.2409
 2777W        W45694  16.336  16.655   8.541 -0.1576 -0.0645 -0.0984
 2778W        W45695  14.953  15.894   5.052 -0.1421 -0.4693  0.4236
 2779W        W45696  14.121  19.146   3.767  0.1387  0.3119  0.1194
 2780W        W45697  14.904  14.942   8.203  0.4149  0.2959 -0.1160
 2781W        W45698  15.425  16.955   6.148 -0.1302 -0.0381 -0.1596
 2782W        W45699  14.853  18.826   4.257  0.2259  0.2215 -0.0895
 2783W        W45700  15.509  15.054   4.845 -0.3306 -0.0368  0.1226
 2784W        W45701  15.248  15.738   6.163 -0.0143  0.1388  0.1024
 2785W        W45702  14.195  16.860   6.621  0.0803 -0.0051 -0.0533
 2786W        W45703  16.143  16.085   3.928  0.0522  0.1205  0.2671
 2787W        W45704  16.130  17.429   4.266  0.1184  0.0144  0.3950
 2788W        W45705  15.589  17.200   5.750 -0.1962 -0.0889 -0.0119
 2789W        W45706  16.577  18.042   4.291  0.2072  0.0008 -0.2527
 2790W        W45707  17.084  15.600   6.851 -0.0945 -0.2573 -0.0278
 2791W        W45708  15.469  17.038   4.744  0.0702  0.1490  0.1301
 2792W        W45709  15.765  17.744   5.385  0.0640  0.2379 -0.2163
 2793W        W45710  16.756  19.358   2.651 -0.0583 -0.0408  0.1209
 2794W        W45711  17.679  16.261   2.512  0.1854 -0.0983 -0.3061
 2795W        W45712  16.290  16.288   7.215  0.0367 -0.0685 -0.1627
 2796W        W45713  14.163  19.560   9.732 -0.1190  0.1789  0.1156
 2797W        W45714  13.143  18.181   3.911 -0.4916 -0.1336 -0.1039
 2798W        W45715  16.089  18.613   7.257 -0.1572  0.1830 -0.2541
 2799W        W45716  16.536  18.869   8.573 -0.1956 -0.0558 -0.1530
 2800W        W45717  16.521  17.892   6.574  0.0164 -0.0384  0.2090
 2801W        W45718  14.919  17.027   6.180  0.1694 -0.2196  0.1451
 2802W        W45719  13.105  19.861   4.518 -0.0843 -0.3837 -0.1763
 2803W        W45720  15.435  16.855   5.271  0.0178 -0.0345  0.1969
 2804W        W45721  14.816  17.236   7.463  0.1440 -0.0474  0.1086
 2805W        W45722  14.170  16.852   5.946  0.2455  0.1674 -0.0079
 2806W        W45723  16.492  15.995   7.812 -0.1244 -0.2382  0.1532
 2807W        W45724  14.377  19.751   3.161  0.1681 -0.1032 -0.1169
 2808W        W45725  17.268  15.280   2.070 -0.5032  0.0326  0.2960
 2809W        W45726  17.159  16.201   2.278  0.2334 -0.0974 -0.0437
 2810W        W45727  15.227  16.788   2.638 -0.0161 -0.0106 -0.0912
 2811W        W45728  15.996  14.523   7.647  0.0799 -0.0073  0.0773
 2812W        W45729  14.642  17.573   6.707 -0.0621  0.2654  0.0070
 2813W        W45730  15.984  13.659   5.087  0.3353  0.0262  0.1470
 2814W        W45731  16.295  16.874   7.310 -0.3028  0.0093  0.0839
 2815W        W45732  15.657  16.649   5.835 -0.3648 -0.1898 -0.0401
 2816W        W45733  16.997  16.358   5.194 -0.1455 -0.3372  0.2082
 2817W        W45734  15.157  19.227   8.184 -0.0058 -0.2704 -0.0384
 2818W        W45735  14.565  16.691   7.973 -0.1580 -0.0165 -0.1250
 2819W        W45736  16.195  17.836   3.915 -0.1483  0.1453  0.0792
 2820W        W45737  15.050  17.958   5.199  0.1690  0.0927  0.0025
 2821W        W45738  16.933  16.786   2.005 -0.1368 -0.0889 -0.1468
 2822W        W45739  13.788  16.411   5.154 -0.1512  0.1855  0.2216
 2823W        W45740  11.793  15.789   7.906  0.2752 -0.0001 -0.4138
 2824W        W45741  14.991  16.893   7.046 -0.2171  0.0574 -0.0520
 2825W        W45742  15.960  15.353   3.197  0.1775  0.1701  0.0404
 2826W        W45743  17.204  18.229   7.978 -0.0497 -0.0135  0.1525
 2827W        W45744  14.682  18.578   8.188  0.2155  0.1491 -0.0566
 2828W        W45745  17.513  17.394   4.204 -0.1944 -0.3080 -0.3390
 2829W        W45746  13.849  17.079   6.280 -0.1091  0.2188  0.1934
 2830W        W45747  16.784  17.288   4.929 -0.1738 -0.0724 -0.0695
 2831W        W45748  16.912  17.514   2.888 -0.3792 -0.1861  0.0419
 2832W        W45749  16.023  14.647   6.576 -0.2368 -0.0287 -0.0529
 2833W        W45750  17.911  15.363   5.585  0.1554  0.1943  0.2260
 2834W        W45751  15.414  18.034   2.363  0.3954 -0.2206 -0.0203
 2835W        W45752  14.940  18.053   2.008 -0.0440  0.0938  0.1242
 2836W        W45753  15.384  17.066   6.794 -0.1957  0.0223  0.2425
 2837W        W45754  15.565  18.789   2.858 -0.5110 -0.0440  0.1216
 2838W        W45755  14.770  17.579   6.170 -0.0168  0.0178 -0.1992
 2839W        W45756  14.968  15.740   7.119 -0.1367 -0.1664  0.2540
 2840W        W45757  16.273  15.842   8.357  0.1424  0.1071  0.1378
 2841W        W45758  13.364  20.169   3.244 -0.0367  0.1224  0.2225
 2842W        W45759  13.515  16.104   7.981 -0.1865 -0.0101 -0.4474
 2843W        W45760  14.802  17.345   3.285  0.2555 -0.2058  0.1450
 2844W        W45761  14.302  16.281   7.124 -0.3396  0.2612  0.1083
 2845W        W45762  16.576  16.578   6.399  0.2310  0.2528  0.2981
 2846W        W45763  18.031  17.008   1.988 -0.1447  0.2213  0.2161
 2847W        W45764  14.087  15.159   8.027 -0.0763  0.2153  0.0682
 2848W        W45765  18.377  14.882   5.327  0.0444  0.1741 -0.1151
 2849W        W45766  14.522  16.442   5.692 -0.1465 -0.1272 -0.0628
 2850W        W45767  17.017  18.180   4.590 -0.1920 -0.4086  0.2467
 2851W        W45768  17.916  17.023   4.124  0.3386  0.0530 -0.1780
 2852W        W45769  15.912  17.718   1.056  0.1500  0.3006 -0.0911
 2853W        W45770  15.370  15.425   7.201  0.0197 -0.1112  0.0595
 2854W        W45771  14.807  15.488   5.300  0.0054 -0.3825 -0.2538
 2855W        W45772  14.822  16.236   7.067  0.2640 -0.0309 -0.2428
 2856W        W45773  15.559  15.634   5.757 -0.2442 -0.0114 -0.0275
 2857W        W45774  17.641  15.621   4.814  0.2481 -0.0142  0.0567
 2858W        W45775  13.753  15.579   3.099  0.2943  0.0168 -0.0643
 2859W        W45776  16.978  15.407   4.513  0.2489 -0.1869 -0.0631
 2860W        W45777  15.000  16.657   6.538  0.1078  0.1480  0.0889
 2861W        W45778  14.605  16.962   3.051  0.0683  0.0518  0.0794
 2862W        W45779  17.451  13.888   7.850  0.2448 -0.0698  0.2665
 2863W        W45780  16.536  19.340   3.157  0.1183  0.0685  0.0825
 2864W        W45781  16.728  17.969   3.075 -0.0845  0.1737 -0.0461
 2865W        W45782  15.908  17.680   3.530  0.2312  0.1006  0.1410
 2866W        W45783  16.248  15.749   7.397 -0.0679 -0.2630 -0.1998
 2867W        W45784  15.287  14.126   2.277 -0.1446 -0.3803 -0.0056
 2868W        W45785  14.454  18.100   4.552  0.0238  0.1586 -0.3255
 2869W        W45786  17.395  17.782   6.890  0.1141 -0.0627  0.0454
 2870W        W45787  14.686  14.477   3.875  0.0250 -0.0349 -0.0770
 2871W        W45788  18.456  16.891   6.832 -0.2168 -0.1131 -0.1719
 2872W        W45789  15.369  17.555   3.624 -0.1693 -0.2656  0.0545
 2873W        W45790  14.288  18.791   8.486 -0.1666  0.1632  0.1166
 2874W        W45791  18.028  16.241   6.667  0.1559 -0.0172  0.0506
 2875W        W45792  18.271  16.666   4.020 -0.0464 -0.1602  0.2820
 2876W        W45793  15.665  15.185   5.590 -0.1875  0.3160  0.0471
 2877W        W45794  15.238  15.927   2.021  0.4304 -0.0540  0.0014
 2878W        W45795  15.817  17.259   6.571 -0.3648 -0.1399 -0.1280
 2879W        W45796  13.164  20.565   3.733 -0.2363  0.1470 -0.0475
 2880W        W45797  13.462  15.937   6.515  0.0856 -0.3901  0.2035
 2881W        W45798  15.867  18.307   1.870 -0.0418  0.1430 -0.0349
 2882W        W45799  16.799  16.798   4.945  0.3664 -0.0098  0.1428
 2883W        W45800  14.614  16.369   7.555 -0.0103  0.0696 -0.0259
 2884W        W45801  16.468  17.265   6.108 -0.0221 -0.2737  0.0524
 2885W        W45802  13.812  16.264   0.956 -0.1349 -0.3926 -0.0595
 2886W        W45803  14.296  17.633   9.134  0.1086  0.1492 -0.1728
 2887W        W45804  16.294  13.849   5.482  0.0948 -0.0429  0.0836
 2888W        W45805  17.006  16.518   1.132  0.0720  0.2895  0.1273
 2889W        W45806  15.695  16.917   7.862 -0.1077  0.3317  0.0095
 2890W        W45807  17.234  16.796   5.299 -0.1326 -0.0666  0.1518
 2891W        W45808  16.833  16.116   1.912 -0.1518 -0.0627  0.2994
 2892W        W45809  15.735  16.066   2.649  0.0952 -0.2985 -0.0732
 2893W        W45810  16.601  16.729   5.949 -0.0999 -0.3894  0.2861
 2894W        W45811  15.727  17.218   3.360 -0.1342 -0.0354  0.1021
 2895W        W45812  15.305  17.075   7.555  0.1091 -0.0494  0.0271
 2896W        W45813  15.411  16.180   3.360  0.0643  0.0928 -0.2098
 2897W        W45814  16.356  19.116   5.662 -0.3390  0.1336  0.1385
 2898W        W45815  15.418  16.701   8.195 -0.0372  0.0315 -0.0520
 2899W        W45816  16.839  17.057   6.468  0.1943  0.0924  0.1287
 2900W        W45817  14.700  17.757   3.563  0.3782 -0.0952  0.0188
 2901W        W45818  15.888  16.915   5.443 -0.1900 -0.0687 -0.4254
 2902W        W45819  17.069  18.612   2.307  0.1274 -0.2095  0.0430
 2903W        W45820  15.667  15.465   3.649  0.1532  0.1475  0.0497
 2904W        W45821  15.013  19.832   2.316 -0.0549 -0.0808 -0.1831
 2905W        W45822  15.838  16.078   7.056  0.0588  0.0591  0.1786
 2906W        W45823  15.466  16.386   4.555 -0.0703 -0.3780 -0.2170
 2907W        W45824  15.422  15.920   7.270  0.0972  0.0407 -0.3050
 2908W        W45825  16.736  14.343   8.199  0.0048  0.1160  0.0038
 2909W        W45826  16.229  16.703   4.006 -0.1676 -0.0543 -0.0582
 2910W        W45827  13.785  14.975   5.401  0.4190 -0.0194 -0.1380
 2911W        W45828  15.996  17.168   3.780 -0.0852  0.0866 -0.1919
 2912W        W45829  17.126  15.582   5.717  0.1102 -0.2654 -0.1815
 2913W        W45830  15.327  15.888   3.752  0.2076 -0.3600 -0.0033
 2914W        W45831  14.675  15.633   7.753  0.1868 -0.1001  0.2951
 2915W        W45832  16.746  16.738   4.418  0.1860  0.0822 -0.0107
 2916W        W45833  15.573  18.071   3.405  0.1709  0.2895  0.1325
 2917W        W45834  17.327  15.658   7.794 -0.2408 -0.2462 -0.0185
 2918W        W45835  15.601  15.907   4.576 -0.0891  0.1901  0.0114
 2919W        W45836  14.602  18.111   6.118 -0.1556 -0.0713 -0.3044
 2920W        W45837  15.872  17.825   0.097 -0.0004  0.2696 -0.1525
 2921W        W45838  16.373  14.873   6.917  0.1146  0.1961  0.2835
 2922W        W45839  14.425  16.222   6.579 -0.0426 -0.1151 -0.1607
 2923W        W45840  14.489  18.801   3.656 -0.3322 -0.2366  0.0816
 2924W        W45841  15.681  17.118   7.159 -0.2572 -0.2154 -0.0846
 2925W        W45842  13.180  19.180   4.854  0.2709 -0.0853 -0.0842
 2926W        W45843  15.348  14.149   6.965  0.2727  0.0203  0.0939
 2927W        W45844  15.354  17.495   4.881  0.2048  0.0535 -0.1208
 2928W        W45845  14.585  16.063   3.189  0.1328 -0.0387 -0.0271
 2929W        W45846  13.349  16.795   5.439  0.4525 -0.1776 -0.1868
 2930W        W45847  14.682  14.389   4.589 -0.0084  0.3356 -0.0777
 2931W        W45848  15.666  17.513   4.011  0.2214  0.1967  0.0646
 2932W        W45849  15.985  16.509   3.576  0.0183  0.4207  0.1807
 2933W        W45850  15.820  14.563   5.514  0.2427 -0.1977  0.2477
 2934W        W45851  13.713  17.528   5.419  0.2066 -0.0287  0.1003
 2935W        W45852  16.301  17.022   5.146 -0.0879 -0.4056  0.0279
 2936W        W45853  17.144  15.056   4.241 -0.0815 -0.0778  0.1885
 2937W        W45854  15.190  17.338   6.406 -0.0013  0.1152 -0.2557
 2938W        W45855  16.326  16.019   6.323 -0.3768 -0.2693 -0.1939
 2939W        W45856  14.763  16.164   2.094  0.2027  0.5081 -0.0005
 2940W        W45857  18.086  18.094   4.385  0.1251  0.0980  0.0204
 2941W        W45858  14.691  17.440   4.915 -0.2096  0.1107  0.1670
 2942W        W45859  15.055  16.603   4.956  0.0882  0.2234  0.0165
 2943W        W45860  14.426  18.442   6.624 -0.1119  0.0765  0.2860
 2944W        W45861  16.801  17.470   5.719 -0.0085 -0.0058 -0.1305
 2945W        W45862  13.442  17.687   6.656  0.0773  0.0774  0.0147
 2946W        W45863  16.427  15.372   6.741  0.0905 -0.2029 -0.0708
 2947W        W45864  15.695  17.609   4.500 -0.0148  0.3375 -0.0198
 2948W        W45865  15.344  15.375   5.224  0.1636  0.2034 -0.0499
 2949W        W45866  15.596  14.985   3.015  0.3451 -0.0912 -0.3085
 2950W        W45867  14.324  16.542   3.889  0.2738  0.1262 -0.1478
 2951W        W45868  16.464  17.596   7.093 -0.0546  0.2191 -0.0995
 2952W        W45869  16.293  17.917   4.689  0.3502  0.3251 -0.0980
 2953W        W45870  16.032  17.010   6.095 -0.0583 -0.0648 -0.2595
 2954W        W45871  15.952  14.253   5.914  0.2082  0.0052  0.1300
 2955W        W45872  16.154  20.572   3.553 -0.1177 -0.0112 -0.1312
 2956W        W45873  14.715  16.064   5.446  0.0572  0.2303  0.0295
 2957W        W45874  14.466  19.069   4.599  0.0734  0.4332 -0.1659
 2958W        W45875  13.228  17.193   7.118  0.4381 -0.1948  0.2019
 2959W        W45876  15.921  16.760   6.903 -0.0165  0.1432 -0.1519
 2960W        W45877  16.136  15.262   5.992 -0.2058 -0.0084  0.3433
 2961W        W45878  14.080  18.287   7.841  0.1405 -0.1122 -0.1535
 2962W        W45879  14.762  17.490   5.414  0.1740  0.1302  0.0709
 2963W        W45880  13.139  16.114   7.017 -0.6202 -0.3977 -0.0578
 2964W        W45881  16.568  15.839   3.859 -0.2767  0.4780  0.1627
 2965W        W45882  17.751  18.134  31.020  0.1149 -0.3435  0.2773
 2966W        W45883  16.524  16.190   5.117 -0.2265  0.1555 -0.0338
 2967W        W45884  17.311  16.118   7.410  0.1022  0.0684  0.2173
 2968W        W45885  15.403  18.117   4.849  0.2693 -0.3228  0.1261
 2969W        W45886  17.797  14.813   7.259 -0.4731 -0.4921  0.0717
 2970W        W45887  17.739  14.811   6.773  0.3659 -0.3671  0.0739
 2971W        W45888  15.039  16.987   5.650 -0.0378 -0.1796  0.0905
 2972W        W45889  15.232  16.365   7.360 -0.0139  0.0477  0.0707
 2973W        W45890  16.922  16.992   7.852 -0.1307  0.0775 -0.0723
 2974W        W45891  13.999  17.321   7.273  0.1963  0.0227 -0.2720
 2975W        W45892  15.241  16.537   3.840 -0.2422 -0.2326 -0.2337
 2976W        W45893  16.221  15.695   5.064 -0.0159 -0.1217 -0.0348
 2977W        W45894  15.388  16.119   4.980 -0.2632  0.1539 -0.1670
 2978W        W45895  16.802  16.303   4.647  0.1145  0.0232  0.0243
 2979W        W45896  15.679  16.706   3.991 -0.1200 -0.3216 -0.0962
 2980W        W45897  16.203  15.719   5.872  0.0148  0.0591  0.1035
 2981W        W45898  15.536  15.430   4.309  0.2308  0.2278 -0.1559
 2982W        W45899  17.604  15.922   4.188 -0.0917 -0.1261  0.0273
 2983W        W45900  15.225  16.314   1.741  0.0087 -0.0790  0.2191
 2984W        W45901  14.431  17.185   6.163  0.0389 -0.1661 -0.4096
 2985W        W45902  14.233  15.472   8.528  0.1239  0.0742  0.0950
 2986W        W45903  16.499  17.923   6.050  0.3179 -0.2929  0.1953
 2987W        W45904  15.959  15.175   4.525  0.3153  0.2754 -0.0467
 2988W        W45905  14.501  14.669   8.000  0.3999  0.2216  0.0256
 2989W        W45906  16.250  17.459   4.853 -0.0795 -0.0672 -0.1275
 2990W        W45907  16.963  16.072   7.810 -0.1015 -0.2330 -0.1650
 2991W        W45908  12.164  14.599   8.435 -0.4858 -0.0709 -0.3358
 2992W        W45909  18.182  17.050   8.846  0.2345 -0.0272 -0.2121
 2993W        W45910  17.676  17.944   4.097 -0.3712  0.1581  0.1173
 2994W        W45911  16.405  15.403   4.674 -0.0788 -0.1683 -0.1682
 2995W        W45912  16.633  15.726   5.460 -0.0900  0.0680  0.0218
 2996W        W45913  16.198  16.976   3.253 -0.0301  0.2897  0.1279
 2997W        W45914  12.615  15.425   6.620 -0.2837  0.3218 -0.1306
 2998W        W45915  16.878  16.541   8.617  0.2006  0.3257  0.2547
 2999W        W45916  16.731  16.267   3.005  0.1616  0.5200 -0.0960
 3000W        W45917  15.698  15.656   7.623  0.4436  0.0099 -0.3009
 3001W        W45918  15.813  19.007   2.377  0.3653 -0.1620  0.1382
 3002W        W45919  15.136  17.394   5.908  0.1080 -0.1657  0.1956
 3003W        W45920  15.621  16.219   4.008  0.0861 -0.0678 -0.0595
 3004W        W45921  14.482  15.234   6.921 -0.0048 -0.1719 -0.2700
 3005W        W45922  14.003  19.732   5.181  0.2620  0.1328  0.0214
 3006W        W45923  15.954  17.513   2.848 -0.0623  0.1748 -0.1135
 3007W        W45924  13.946  18.617   4.564  0.0596 -0.0523 -0.2366
 3008W        W45925  13.935  19.074   6.239  0.0146 -0.3349 -0.2777
 3009W        W45926  17.291  16.249   6.406  0.1629  0.2296  0.0817
 3010W        W45927  17.597  14.973   2.343  0.1928  0.0838 -0.0985
 3011W        W45928  19.225  16.448  10.083 -0.0950 -0.0700  0.0513
 3012W        W45929  14.038  18.061   3.342  0.1074  0.2935 -0.1323
 3013W        W45930  15.690  16.326   5.407 -0.0634 -0.0957  0.0200
 3014W        W45931  15.486  18.187   7.512 -0.1282 -0.0870  0.0245
 3015W        W45932  15.335  17.436   8.938 -0.0364 -0.0353  0.1628
 3016W        W45933  14.784  16.188   3.676  0.1662 -0.1036  0.2423
 3017W        W45934  16.395  13.586   6.409  0.0833  0.1088  0.0011
 3018W        W45935  16.361  17.646   3.145  0.0488 -0.1563  0.1566
 3019W        W45936  16.866  17.550   6.209  0.0545 -0.1411  0.0406
 3020W        W45937  19.857  15.497   7.969 -0.0879  0.1724  0.2606
 3021W        W45938  15.883  15.202   6.562 -0.1039  0.0843 -0.1783
 3022W        W45939  14.988  17.847   7.635 -0.0087  0.0909  0.0295
 3023W        W45940  15.436  19.374   6.844  0.0265  0.1808 -0.2716
 3024W        W45941  15.822  16.584   3.019  0.3722  0.2051 -0.0427
 3025W        W45942  14.750  16.116   6.218 -0.1429  0.1215  0.0447
 3026W        W45943  13.883  16.092   6.318 -0.0509  0.0644  0.1251
 3027W        W45944  16.304  17.607   8.394 -0.0102  0.0951 -0.1942
 3028W        W45945  16.109  18.665   5.488 -0.0761 -0.1818  0.0064
 3029W        W45946  14.384  16.056   4.447 -0.1727  0.0731 -0.1629
 3030W        W45947  14.947  18.037   2.788  0.3348 -0.3093 -0.2629
 3031W        W45948  13.863  16.475   8.465  0.1818  0.1777  0.0499
 3032W        W45949  14.099  17.379   8.396  0.1634  0.1155  0.3434
 3033W        W45950  14.148  18.883   2.812  0.0165 -0.1325 -0.1084
 3034W        W45951  16.329  17.039   5.673  0.0972 -0.4262  0.1205
 3035W        W45952  15.100  17.561   2.928 -0.0972 -0.1212 -0.1803
 3036W        W45953  15.419  19.119   7.261 -0.0258 -0.0046 -0.1532
 3037W        W45954  13.997  16.267   3.560  0.0325  0.0242  0.0893
 3038W        W45955  14.171  18.650   5.435 -0.1401 -0.1911  0.1682
 3039W        W45956  13.157  17.282   5.168  0.1335  0.0249 -0.3209
 3040W        W45957  15.743  18.535   2.388 -0.1586  0.2902 -0.0539
 3041W        W45958  16.009  17.997   6.345  0.0506  0.0554 -0.0059
 3042W        W45959  16.147  15.731   6.734 -0.0229 -0.3769  0.1818
 3043W        W45960  16.477  16.312   4.285 -0.2303  0.3141 -0.2056
 3044W        W45961  16.934  16.508   3.469  0.2474 -0.1230  0.1812
 3045W        W45962  18.508  15.189   3.003  0.3962 -0.0851 -0.0678
 3046W        W45963  16.113  17.223   9.038 -0.0261 -0.1884 -0.0742
 3047W        W45964  15.923  16.090   7.536 -0.0187  0.0243 -0.1514
 3048W        W45965  15.559  16.029   1.616 -0.0721  0.0457 -0.3356
 3049W        W45966  15.435  16.615   6.970 -0.1572  0.0232 -0.0965
 3050W        W45967  19.019  13.737   6.966  0.1424 -0.2812  0.1333
 3051W        W45968  14.353  16.986   7.456 -0.0038 -0.1277 -0.1588
 3052W        W45969  16.223  18.739   2.544  0.0903 -0.1657  0.1230
 3053W        W45970  14.997  15.831   3.352  0.0910  0.2156 -0.1013
 3054W        W45971  15.419  16.121   5.831  0.0436  0.2640  0.1204
 3055W        W45972  17.233  15.356   4.951  0.1757 -0.1260  0.2460
 3056W        W45973  15.350  18.382   2.072 -0.1000 -0.2105 -0.0404
 3057W        W45974  15.841  15.697   6.222  0.1265  0.1961 -0.1408
 3058W        W45975  15.334  19.365   5.149  0.0553 -0.5346  0.0570
 3059W        W45976  13.056  18.454   6.251 -0.2081 -0.2812 -0.0898
 3060W        W45977  15.311  18.626   7.760  0.0713  0.0953 -0.0110
 3061W        W45978  14.218  15.807   3.391 -0.0019  0.3381 -0.0477
 3062W        W45979  15.918  16.092   4.964  0.4464 -0.1679 -0.1045
 3063W        W45980  15.659  15.780   5.269 -0.2722 -0.0466 -0.3383
 3064W        W45981  16.710  15.774   5.975  0.0613 -0.3259  0.2720
 3065W        W45982  14.987  17.880   5.726  0.1782  0.4275 -0.0538
 3066W        W45983  14.638  15.739   4.165  0.1462  0.1594 -0.1702
 3067W        W45984  16.040  17.430   5.652  0.0176  0.1177  0.0953
 3068W        W45985  16.541  15.329   5.739 -0.2688  0.1824  0.0359
 3069W        W45986  15.744  17.132   4.302 -0.0380 -0.0967  0.0298
 3070W        W45987  17.977  16.044   5.143  0.2732 -0.2970  0.0225
 3071W        W45988  15.740  16.479   1.769 -0.0559 -0.0016  0.2290
 3072W        W45989  16.779  16.699   7.454 -0.1686  0.2311  0.1603
 3073W        W45990  15.793  15.781   4.045  0.2175 -0.0048 -0.0029
 3074W        W45991  16.621  15.362   3.866 -0.3304  0.1334  0.0201
 3075W        W45992  13.864  16.568   6.269  0.1026  0.1368 -0.2906
 3076W        W45993  15.696  16.565   5.001  0.4262  0.0441  0.3400
 3077W        W45994  16.038  17.247   9.625  0.1450  0.0947 -0.3500
 3078W        W45995  13.678  15.950   5.619  0.1518 -0.0368 -0.0122
 3079W        W45996  16.271  19.100   5.072 -0.0609  0.1163  0.1058
 3080W        W45997  15.935  17.206   8.156 -0.2772  0.0486  0.2051
 3081W        W45998  13.261  19.104   3.957 -0.1121 -0.1355  0.1516
 3082W        W45999  15.762  17.269   5.035  0.1321  0.0150 -0.3450
 3083W        W46000  17.994  17.489   4.051 -0.2228  0.2808 -0.0630
 3084W        W46001  15.623  16.028   6.518 -0.3326  0.1345 -0.2049
 3085W        W46002  17.510  16.840   5.864  0.1499 -0.1668  0.1863
 3086W        W46003  18.697  18.145   5.866 -0.0620  0.0532 -0.2126
 3087W        W46004  14.636  15.036   5.254 -0.0037  0.0219 -0.0394
 3088W        W46005  17.617  15.032   4.085 -0.2448  0.1682  0.4225
 3089W        W46006  14.246  18.769   4.101 -0.5383  0.2056  0.0721
 3090W        W46007  16.589  16.612   5.423  0.2448  0.0444 -0.3022
 3091W        W46008  16.261  16.550   7.699  0.1265 -0.1930 -0.0606
 3092W        W46009  14.992  18.383   1.660 -0.0664 -0.2509  0.3636
 3093W        W46010  17.791  12.584   7.406  0.0395  0.0808  0.3969
 3094W        W46011  15.976  17.579   7.247  0.1833 -0.0326 -0.0243
 3095W        W46012  14.905  17.693   8.065 -0.0039  0.2196  0.0408
 3096W        W46013  14.805  16.674   5.361 -0.2369  0.1999 -0.1730
 3097W        W46014  16.777  16.562   8.070 -0.0059 -0.0046 -0.2262
 3098W        W46015  16.020  17.684   6.731 -0.1050  0.1675 -0.3361
 3099W        W46016  14.944  19.687   5.363  0.0323  0.2940  0.0831
 3100W        W46017  17.578  18.784   5.079  0.2843 -0.1882  0.0088
 3101W        W46018  15.949  17.943   3.120 -0.2268  0.1916  0.1513
 3102W        W46019  18.818  16.656   4.640 -0.0264 -0.1376  0.0057
 3103W        W46020  16.797  15.511   3.452 -0.0983  0.2537 -0.0826
 3104W        W46021  16.758  15.652   4.918  0.2497 -0.1552  0.2527
 3105W        W46022  17.027  14.403   4.443 -0.0701 -0.1253  0.1112
 3106W        W46023  15.723  15.832   8.600 -0.0927 -0.0173  0.2560
 3107W        W46024  15.293  17.504   5.433 -0.1251 -0.1640 -0.2615
 3108W        W46025  14.301  17.482   3.793  0.0363  0.1995 -0.0226
 3109W        W46026  14.863  17.238   2.617  0.1803 -0.0176  0.0892
 3110W        W46027  16.092  15.073   7.857  0.2763 -0.0181  0.0223
 3111W        W46028  14.082  16.782   7.076 -0.1461  0.1804 -0.0986
 3112W        W46029  14.834  15.730   5.906 -0.0061 -0.0568  0.1527
 3113W        W46030  14.234  15.993   3.932 -0.3891 -0.2123  0.0737
 3114W        W46031  17.447  17.808   3.390 -0.3036  0.4057  0.0077
 3115W        W46032  13.102  16.048   6.159  0.1742  0.2968 -0.4010
 3116W        W46033  14.693  14.395   6.333  0.0086 -0.1215 -0.3234
 3117W        W46034  16.186  19.177   3.939  0.0951  0.3157 -0.0020
 3118W        W46035  15.056  17.110   5.059 -0.0840  0.0812  0.0086
 3119W        W46036  17.184  14.805   3.761  0.3044 -0.0648  0.0868
 3120W        W46037  17.372  18.492   7.627  0.3405 -0.2321 -0.1728
 3121W        W46038  15.259  17.258   2.268 -0.2187  0.1417 -0.0369
 3122W        W46039  14.337  15.459   7.458 -0.0745  0.0411 -0.1112
 3123W        W46040  16.900  15.128   9.646 -0.1404  0.1016 -0.2020
 3124W        W46041  12.368  16.767   2.855  0.2781  0.0074  0.1847
 3125W        W46042  15.956  16.937   4.746  0.2360 -0.3528  0.3637
 3126W        W46043  16.142  19.743   1.325  0.1912 -0.3833 -0.0346
 3127W        W46044  14.841  19.141   3.176  0.0814 -0.0230 -0.2458
 3128W        W46045  14.889  16.738   7.542  0.1476  0.3546  0.0754
 3129W        W46046  15.127  18.247   8.024  0.0138  0.0955  0.2741
 3130W        W46047  14.863  14.188   7.727  0.1819 -0.1095  0.1540
 3131W        W46048  15.797  18.885   4.082  0.3515 -0.2036  0.3409
 3132W        W46049  14.774  17.741   8.751 -0.2029 -0.1102 -0.2018
 3133W        W46050  15.840  15.550   4.860  0.2010  0.0428  0.5722
 3134W        W46051  16.350  16.593   4.762  0.3179  0.2044 -0.2174
 3135W        W46052  15.999  17.978   4.323 -0.2507  0.0678  0.1637
 3136W        W46053  12.957  14.472   6.335 -0.1049  0.1541  0.1286
 3137W        W46054  16.209  15.549   7.926  0.0266 -0.0940  0.1211
 3138W        W46055  16.995  17.638   3.479 -0.3229  0.0634 -0.1538
 3139W        W46056  14.814  14.859   5.673 -0.1158  0.2508  0.1278
 3140W        W46057  16.927  15.998   3.414  0.3447  0.2241 -0.0966
 3141W        W46058  16.398  18.350   3.099  0.0609  0.0119 -0.0618
 3142W        W46059  14.421  15.761   6.210  0.0167  0.1596 -0.0232
 3143W        W46060  15.963  16.411   4.387 -0.1523 -0.1649  0.1992
 3144W        W46061  14.527  17.024   5.105 -0.3138 -0.0493  0.0496
 3145W        W46062  15.339  17.076   3.800  0.1448  0.2104 -0.0190
 3146W        W46063  17.496  16.886   8.035  0.0318 -0.2460 -0.0074
 3147W        W46064  15.498  16.722   3.393 -0.0975 -0.1260 -0.4658
 3148W        W46065  16.474  17.269   2.856  0.1218 -0.0488  0.1391
 3149W        W46066  15.432  18.539   7.165 -0.1432  0.1203  0.0131
 3150W        W46067  16.151  17.231   6.952 -0.1682  0.0371  0.1175
 3151W        W46068  14.642  18.885   5.347  0.0559 -0.2146 -0.0722
 3152W        W46069  15.508  17.724   5.827  0.1265 -0.2319  0.0097
 3153W        W46070  14.702  14.061   5.961 -0.2399  0.0847  0.2570
 3154W        W46071  13.204  16.602   8.024  0.3328 -0.2205  0.2259
 3155W        W46072  12.914  17.665   3.845  0.2805 -0.1333 -0.3494
 3156W        W46073  15.890  16.126   5.933 -0.1588  0.1793  0.1641
 3157W        W46074  15.787  14.916   6.925  0.0188 -0.0964 -0.0449
 3158W        W46075  15.846  17.824   4.915  0.0616  0.2433  0.5129
 3159W        W46076  16.917  17.775   9.218  0.0509  0.0201 -0.0053
 3160W        W46077  14.513  15.302   4.351 -0.3013  0.0383  0.1965
 3161W        W46078  14.524  16.063   9.784 -0.0913 -0.1498  0.1606
 3162W        W46079  14.834  15.480   8.180 -0.1756 -0.1062  0.1485
 3163W        W46080  18.929  16.926   7.094 -0.1177  0.1985  0.2718
 3164W        W46081  16.981  17.686  10.759  0.0662 -0.0084 -0.2096
 3165W        W46082  14.388  14.993   9.389 -0.2608  0.0923  0.0965
 3166W        W46083  15.874  16.317   8.671  0.4143 -0.0015 -0.2112
 3167W        W46084  16.938  17.748   9.710 -0.0787  0.1491 -0.1075
 3168W        W46085  16.452  16.320   9.575  0.0826  0.3248  0.3023
 3169W        W46086  17.931  15.367   7.559  0.2028 -0.0669  0.2193
 3170W        W46087  16.930  15.996  10.317  0.1218 -0.0900 -0.0460
 3171W        W46088  17.382  14.001   6.776  0.1945 -0.0391  0.0546
 3172W        W46089  16.075  14.120   9.677  0.0952 -0.0019  0.1186
 3173W        W46090  20.428  17.035  10.131  0.0112 -0.2166 -0.1547
 3174W        W46091  16.528  17.501  10.492 -0.1084 -0.1890  0.3804
 3175W        W46092  16.695  16.394  10.483  0.1133  0.2218  0.0770
 3176W        W46093  13.157  15.117   7.911  0.2479  0.1527 -0.1766
 3177W        W46094  14.515  14.705  10.485 -0.0513  0.4127 -0.1533
 3178W        W46095  16.709  15.232  10.427 -0.2129 -0.0190 -0.1829
 3179W        W46096  18.610  18.864  10.482  0.1217 -0.1227  0.0769
 3180W        W46097  14.018  15.499   6.031 -0.1449  0.0715  0.0205
 3181W        W46098  13.524  14.777   8.477 -0.0704 -0.2905 -0.0325
 3182W        W46099  15.128  11.510   8.866  0.0685 -0.1198  0.1378
 3183W        W46100  17.361  13.131   9.454 -0.0369 -0.2175  0.1145
 3184W        W46101  18.782  14.876  10.252 -0.3591  0.3501 -0.1045
 3185W        W46102  17.803  17.673  10.074  0.0060  0.3671 -0.3273
 3186W        W46103  16.509  18.838   9.728 -0.1232  0.2255  0.0462
 3187W        W46104  15.135  15.746   8.485  0.0701  0.1817  0.0274
 3188W        W46105  15.191  18.806   9.563  0.2089 -0.1125  0.3054
 3189W        W46106  15.295  16.130   9.363 -0.1590  0.0787  0.0488
 3190W        W46107  18.872  16.289   9.673  0.4622 -0.0891 -0.4216
 3191W        W46108  14.635  16.208   8.805 -0.0275 -0.1314  0.1896
 3192W        W46109  18.761  18.154  10.695  0.1486 -0.0058 -0.0261
 3193W        W46110  14.988  15.220   9.661 -0.2205  0.3580 -0.0598
 3194W        W46111  15.486  15.627   8.093 -0.0023  0.0353  0.1524
 3195W        W46112  13.958  12.738   9.083 -0.0787  0.0254  0.0601
 3196W        W46113  13.337  18.508  10.458  0.1526 -0.1759 -0.0967
 3197W        W46114  15.761  17.362   7.646  0.2511 -0.1382 -0.1265
 3198W        W46115  18.514  16.428   8.439  0.0580 -0.1102  0.0851
 3199W        W46116  15.554  14.771   8.434  0.3116 -0.2108 -0.1346
 3200W        W46117  17.776  15.869   7.586 -0.1776 -0.2323 -0.1086
 3201W        W46118  17.944  13.925  10.141 -0.0862 -0.2114 -0.1675
 3202W        W46119  16.839  15.522  10.046  0.2755  0.1362  0.3367
 3203W        W46120  15.654  13.472   9.419  0.0335 -0.0110  0.1526
 3204W        W46121  17.916  17.043   9.395 -0.1695  0.0513  0.0028
 3205W        W46122  17.943  14.095   9.634 -0.1993 -0.2416  0.0929
 3206W        W46123  16.020  18.279   9.051  0.2927  0.1645  0.2305
 3207W        W46124  14.835  16.475  10.206 -0.0865  0.2256 -0.1010
 3208W        W46125  17.288  17.947   7.576  0.1317  0.1817  0.0107
 3209W        W46126  17.934  14.571  10.108  0.0938  0.3702  0.0546
 3210W        W46127  15.446  18.468   9.153  0.0093  0.3817 -0.4647
 3211W        W46128  14.365  16.438  10.046  0.0251  0.2461 -0.0625
 3212W        W46129  15.313  14.350   8.604 -0.1167 -0.2614 -0.3800
 3213W        W46130  17.448  14.415   8.025  0.2736 -0.3750  0.1583
 3214W        W46131  15.270  15.489  10.418  0.2159  0.1049 -0.2858
 3215W        W46132  18.180  17.356  10.288  0.2620  0.5113 -0.2440
 3216W        W46133  16.252  17.133   8.543 -0.2131 -0.0160  0.1382
 3217W        W46134  15.709  13.050   8.187 -0.2164  0.2731  0.1311
 3218W        W46135  16.323  16.689  10.296  0.1195  0.1798 -0.1544
 3219W        W46136  15.038  16.543   5.887  0.0561 -0.0711 -0.2005
 3220W        W46137  15.010  16.431   8.032  0.0034 -0.2596 -0.0456
 3221W        W46138  21.070  17.341   9.515 -0.4168 -0.3226 -0.0976
 3222W        W46139  17.112  16.687   6.298 -0.3898 -0.0161 -0.0678
 3223W        W46140  15.646  18.059   9.375  0.0554 -0.1935 -0.1496
 3224W        W46141  15.871  18.202  10.510 -0.1183 -0.0908  0.0332
 3225W        W46142  17.312  18.542  10.222  0.1827 -0.0488  0.0671
 3226W        W46143  14.282  15.979   7.679 -0.2590 -0.0863  0.0672
 3227W        W46144  12.595  10.685  10.985  0.1512 -0.1123 -0.0007
 3228W        W46145  16.507  18.800  10.387  0.0258 -0.3859 -0.5247
 3229W        W46146  17.210  14.505   6.710  0.2146  0.0716 -0.2336
 3230W        W46147  16.944  15.074   7.543 -0.0267  0.3547 -0.0124
 3231W        W46148  16.678  15.042   8.948 -0.1396  0.0908 -0.0366
 3232W        W46149  17.873  18.934   9.667  0.1624 -0.1750  0.4234
 3233W        W46150  17.142  14.769   8.771 -0.2330 -0.0321 -0.0055
 3234W        W46151  16.705  15.628   7.535 -0.3971 -0.0672 -0.2565
 3235W        W46152  16.980  16.216   9.494  0.1279 -0.0174  0.3478
 3236W        W46153  14.850  15.902   6.666  0.1591 -0.0499  0.0192
 3237W        W46154  15.244  15.549   9.417 -0.2259  0.2960  0.2644
 3238W        W46155  15.098  12.274   9.431  0.2115  0.2573 -0.0160
 3239W        W46156  16.604  15.515   9.119  0.2794 -0.1392  0.2564
 3240W        W46157  16.208  16.215  10.316  0.0692 -0.0101 -0.3561
 3241W        W46158  14.440  15.838   9.059 -0.1600  0.1725  0.0719
 3242W        W46159  17.033  18.122  10.037  0.0913  0.1401 -0.2358
 3243W        W46160  20.036  18.969  11.078  0.0447 -0.0703  0.1582
 3244W        W46161  17.524  17.833   8.080  0.1911  0.2109 -0.0379
 3245W        W46162  15.234  15.121   9.175  0.1195  0.1100 -0.0390
 3246W        W46163  15.186  15.534   7.698 -0.1088  0.0456 -0.0205
 3247W        W46164  18.050  17.962   9.602  0.1458  0.0812 -0.0753
 3248W        W46165  16.103  18.701   9.950  0.3633 -0.2472  0.4833
 3249W        W46166  15.739  14.748   7.971 -0.1214  0.0745  0.0634
 3250W        W46167  17.057  17.448   8.307  0.1272 -0.1727 -0.1899
 3251W        W46168  15.904  16.653   8.292  0.0293  0.0602  0.0460
 3252W        W46169  17.794  12.982  10.223  0.0831  0.0866  0.5703
 3253W        W46170  17.883  17.649   9.182 -0.1648 -0.4686  0.2356
 3254W        W46171  14.084  14.733   7.731 -0.3726  0.1028 -0.2091
 3255W        W46172  15.684  16.339   9.118 -0.2457  0.0711 -0.1655
 3256W        W46173  14.723  18.975   9.259  0.0715 -0.2483 -0.0268
 3257W        W46174  16.015  16.167   9.481 -0.0339  0.2647 -0.3671
 3258W        W46175  15.923  17.942   7.604  0.0561 -0.0034  0.1937
 3259W        W46176  22.720  18.767  11.914 -0.1293  0.1581  0.0838
 3260W        W46177  15.365  16.897   9.037  0.3359  0.0692 -0.6088
 3261W        W46178  18.205  15.673   7.841 -0.0915 -0.1641 -0.1107
 3262W        W46179  17.130  15.645   7.331  0.0847  0.0835  0.0215
 3263W        W46180  17.344  16.447   8.822 -0.0273 -0.1954  0.0014
 3264W        W46181  17.370  17.457   7.281 -0.0400  0.2199 -0.0895
 3265W        W46182  18.572  16.541   7.102  0.0389  0.1215 -0.1699
 3266W        W46183  16.336  16.910   9.303 -0.3417 -0.0044  0.0497
 3267W        W46184  15.478  14.630   8.958  0.1256 -0.3171  0.1486
 3268W        W46185  15.053  14.577   9.174 -0.1528 -0.2659 -0.1383
 3269W        W46186  16.418  18.020   8.113 -0.0338 -0.1717 -0.1662
 3270W        W46187  13.183  16.530  10.545  0.0701  0.2324  0.1681
 3271W        W46188  19.354  18.198   9.967  0.2480  0.1332 -0.0048
 3272W        W46189  17.721  16.554   9.709 -0.2563 -0.1636 -0.4111
 3273W        W46190  16.626  15.133   7.916  0.1792 -0.2045 -0.0334
 3274W        W46191  13.632  13.320  10.214  0.2581  0.1903  0.2130
 3275W        W46192  14.566  18.038   7.904  0.3053 -0.1198  0.5901
 3276W        W46193  15.731  13.795   9.782  0.1486 -0.0483  0.0341
 3277W        W46194  16.604  12.518  10.742  0.1483 -0.2338 -0.0996
 3278W        W46195  17.670  17.209   8.983  0.0876 -0.0281 -0.0102
 3279W        W46196  17.754  14.587   9.596 -0.0022  0.0088 -0.1039
 3280W        W46197  16.307  15.269   7.432  0.2940 -0.2539 -0.0043
 3281W        W46198  16.165  13.219   7.718 -0.0016 -0.3894 -0.0965
 3282W        W46199  10.768  18.763   9.454  0.0362  0.0160 -0.2713
 3283W        W46200  18.343  16.890   8.400  0.1882 -0.2006  0.0584
 3284W        W46201  16.691  14.074   7.344  0.2754 -0.0875  0.5349
 3285W        W46202  14.533  18.296   8.889 -0.1181 -0.0244 -0.0257
 3286W        W46203  15.061  16.238   8.487 -0.1786  0.0410 -0.1172
 3287W        W46204  20.711  12.052  10.231 -0.4201  0.1902 -0.1151
 3288W        W46205  16.596  19.365  11.316 -0.3322  0.4810  0.1620
 3289W        W46206  14.913  17.288   8.390 -0.0919  0.1564 -0.1797
 3290W        W46207  14.138  13.455  10.313  0.0297 -0.3446  0.0888
 3291W        W46208  16.452  17.417   9.358  0.3291 -0.3737 -0.0837
 3292W        W46209  18.673  19.373  10.649 -0.1134 -0.1193  0.2377
 3293W        W46210  13.008  20.870  11.020 -0.3610  0.1290 -0.1343
 3294W        W46211  15.067  12.815   8.278  0.0172 -0.0022  0.0657
 3295W        W46212  14.416  13.749   8.917  0.0912  0.0563 -0.0760
 3296W        W46213  18.074  14.331   8.576  0.0351  0.0970  0.0142
 3297W        W46214  17.173  16.957   8.448  0.0366 -0.1860 -0.1411
 3298W        W46215  16.436  13.223   9.872 -0.0764 -0.1595 -0.0214
 3299W        W46216  15.511  13.826  10.363  0.3340 -0.0462 -0.4128
 3300W        W46217  13.150  19.823  10.319  0.3414  0.3244 -0.2545
 3301W        W46218  16.061  14.411   9.281 -0.1081 -0.1642  0.0315
 3302W        W46219  14.792  15.325   7.354 -0.0783 -0.1036  0.2150
 3303W        W46220  17.838  13.052   9.214  0.0452 -0.0035 -0.1281
 3304W        W46221  14.198  15.833   9.511  0.1705 -0.1018  0.0798
 3305W        W46222  13.892  18.537   9.181 -0.2226 -0.0569  0.2769
 3306W        W46223  16.057  19.171   8.814 -0.2455 -0.0695  0.1526
 3307W        W46224  16.349  15.398   9.792  0.1404  0.0070 -0.2306
 3308W        W46225  15.474  16.569   8.658  0.0728 -0.2914 -0.1257
 3309W        W46226  19.132  15.481   9.961 -0.1824  0.3259 -0.1099
 3310W        W46227  15.647  14.847   9.398 -0.0913 -0.2109 -0.0475
 3311W        W46228  14.449  14.168   8.163 -0.4920 -0.1041  0.3250
 3312W        W46229  17.441  17.343   9.965 -0.0471  0.0182 -0.0304
 3313W        W46230  15.541  17.278   9.489  0.0112 -0.0550  0.1495
 3314W        W46231  17.486  16.887  10.189  0.0483 -0.1903  0.0356
 3315W        W46232  16.804  13.241  10.206 -0.0964  0.1593  0.0467
 3316W        W46233  18.303  18.203   9.243  0.2122 -0.1581  0.1256
 3317W        W46234  15.040  16.495   8.933 -0.2012 -0.5748 -0.2102
 3318W        W46235  16.892  14.557  10.100  0.2619  0.5090 -0.0520
 3319W        W46236  15.403  15.590   8.901  0.0402  0.1204 -0.5964
 3320W        W46237  13.115  20.336  10.995  0.1557  0.4365 -0.1909
 3321W        W46238  14.975  16.222   9.757 -0.1465  0.1088  0.1933
 3322W        W46239  17.291  15.997   9.115 -0.2656  0.0676 -0.3024
 3323W        W46240  14.901  17.124  10.580  0.1243 -0.1277  0.3123
 3324W        W46241  18.458  15.591   6.831  0.1827  0.3439  0.1870
 3325W        W46242  17.255  17.208   5.618 -0.2333 -0.0203  0.0450
 3326W        W46243  16.230  15.731   9.469  0.2241 -0.1750 -0.1191
 3327W        W46244  17.958  16.528   8.258  0.0139  0.0027 -0.2690
 3328W        W46245  13.630  15.754   9.588 -0.0334 -0.1021 -0.0089
 3329W        W46246  18.014  17.483   8.601 -0.0376  0.0613 -0.0653
 3330W        W46247  16.001  15.335   9.284 -0.2899 -0.1740 -0.0420
 3331W        W46248  14.588  13.703   8.381 -0.1990  0.0990 -0.0042
 3332W        W46249  15.863  15.367   8.292  0.1640  0.1867  0.0771
 3333W        W46250  17.479  15.780   8.731  0.3164  0.0139  0.4405
 3334W        W46251  15.654  15.780   9.258 -0.0147 -0.0902  0.1024
 3335W        W46252  18.788  15.466   9.070 -0.3011  0.1913  0.0995
 3336W        W46253  16.384  16.180   8.690  0.2642  0.3217 -0.0942
 3337W        W46254  18.352  17.386   8.245 -0.1210  0.1652 -0.0027
 3338W        W46255  16.978  14.035   9.952 -0.0010 -0.1686 -0.2682
 3339W        W46256  16.803  17.018   8.877  0.3029 -0.1277  0.1007
 3340W        W46257  18.291  14.955  10.260  0.2587 -0.1325 -0.1071
 3341W        W46258  17.437  17.832   9.721 -0.1104  0.0706 -0.1699
 3342W        W46259  16.993  16.608   6.779 -0.4574 -0.1689 -0.0513
 3343W        W46260  17.544  14.005   8.380  0.0729  0.2165  0.0864
 3344W        W46261  16.812  16.429   9.101  0.0547 -0.1732  0.0909
 3345W        W46262  16.708  15.672   8.636  0.0211 -0.0185 -0.1046
 3346W        W46263  14.696  14.918   8.974 -0.2125  0.1029 -0.1051
 3347W        W46264  15.379  15.279   8.514  0.1815  0.0483 -0.2905
 3348W        W46265  15.787  16.559   7.367 -0.0349  0.0290 -0.3792
 3349W        W46266  16.155  15.541   8.729  0.1558 -0.2322  0.0734
 3350W        W46267  17.906  15.347   8.486 -0.1674  0.2180 -0.0122
 3351W        W46268  15.555  16.001   9.745 -0.2112 -0.1655 -0.0726
 3352W        W46269  14.118  16.801   9.154 -0.1156  0.1819  0.4814
 3353W        W46270  15.751  16.419   7.891  0.0980  0.0762 -0.1497
 3354W        W46271  17.253  18.666  10.933 -0.0683  0.0405  0.0757
 3355W        W46272  17.197  15.919   6.072 -0.1482 -0.2020  0.0439
 3356W        W46273  16.527  17.562   9.998  0.1039  0.2156 -0.0476
 3357W        W46274  15.725  14.149   8.876  0.3532 -0.1749 -0.4098
 3358W        W46275  16.080  15.939   9.021  0.0568 -0.0318  0.1108
 3359W        W46276  13.754  18.798   8.741 -0.0141 -0.0280 -0.0141
 3360W        W46277  15.416  12.650   9.378  0.1401 -0.0295  0.2142
 3361W        W46278  18.635  16.274  10.763 -0.0872 -0.1805 -0.0859
 3362W        W46279  15.885  13.003  10.385  0.1489  0.3008  0.0729
 3363W        W46280  12.468  14.562   9.862 -0.0661 -0.0085 -0.2658
 3364W        W46281  17.409  17.059   9.559  0.2843 -0.0528 -0.0447
 3365W        W46282  14.507  17.150   9.253 -0.0032 -0.1997  0.0682
 3366W        W46283  17.162  15.057  10.196 -0.4445  0.0760  0.1516
 3367W        W46284  16.653  13.258   7.916  0.1003  0.0822 -0.0836
 3368W        W46285  15.837  17.770   8.241  0.0496 -0.1855  0.0962
 3369W        W46286  13.890  14.668   9.982  0.0029  0.0490  0.2766
 3370W        W46287  15.743  17.503   9.893  0.0404 -0.1854 -0.2406
 3371W        W46288  17.708  17.328   7.774  0.0562 -0.0255  0.0138
 3372W        W46289  17.927  17.078   8.189  0.1513  0.0554 -0.1115
 3373W        W46290  18.529  17.418  10.651  0.2058  0.1090  0.2013
 3374W        W46291  16.616  15.826   9.724  0.1016 -0.1253  0.0184
 3375W        W46292  14.018  14.139   9.467  0.0815 -0.2341  0.2577
 3376W        W46293  15.274  19.595  10.214  0.2354 -0.3326 -0.3202
 3377W        W46294  16.581  15.982   9.203 -0.0701 -0.0223 -0.1124
 3378W        W46295  15.708  15.528   9.656  0.0453  0.1250 -0.2022
 3379W        W46296  18.345  15.816   9.149 -0.0131 -0.2382 -0.4592
 3380W        W46297  18.018  16.553  10.133 -0.0466 -0.1590  0.3913
 3381W        W46298  19.045  14.763   4.542  0.0265  0.2456  0.2927
 3382W        W46299  13.387  13.507   9.801 -0.5031  0.3037  0.1455
 3383W        W46300  16.721  15.622   8.049  0.0529 -0.0362 -0.3563
 3384W        W46301  16.695  19.083  10.751 -0.2699 -0.0233  0.0465
 3385W        W46302  14.424  14.943   9.951 -0.0695  0.1266 -0.0114
 3386W        W46303  17.361  15.401   8.352  0.1994  0.4161 -0.1513
 3387W        W46304  16.923  15.184   8.557  0.3374 -0.0181  0.4585
 3388W        W46305  13.730  17.323   6.811  0.0968 -0.0146  0.0114
 3389W        W46306  16.427  15.081   9.404  0.2130 -0.1714 -0.0233
 3390W        W46307  16.804  18.288   7.546  0.0119  0.1297  0.1537
 3391W        W46308  12.787  18.769  10.277 -0.2587  0.2657  0.0119
 3392W        W46309  17.803  19.284  10.147  0.0690  0.4833 -0.2786
 3393W        W46310  14.313  14.284   7.683  0.1826  0.3056 -0.1801
 3394W        W46311  19.342  16.532   9.580 -0.2459  0.1114  0.3139
 3395W        W46312  14.894  14.751  10.124 -0.0643 -0.5643 -0.0739
 3396W        W46313  17.362  15.384   9.751 -0.1808 -0.0780  0.0745
 3397W        W46314  17.261  15.490   9.013  0.4569  0.1258  0.0861
 3398W        W46315  17.096  17.679  10.137 -0.0327 -0.2742 -0.2953
 3399W        W46316  14.838  15.784   9.485  0.1898 -0.0935  0.0938
 3400W        W46317  17.064  13.948   8.269  0.2483 -0.0873  0.0001
 3401W        W46318  15.209  16.238   6.305 -0.0219 -0.2507  0.0619
 3402W        W46319  14.236  14.586   9.586 -0.0416 -0.0238 -0.0363
 3403W        W46320  17.196  15.855   8.291 -0.4063 -0.0742  0.0106
 3404W        W46321  14.599  15.791   8.482 -0.1312 -0.1143 -0.5354
 3405W        W46322  13.636  13.101   8.972  0.1956  0.2030  0.1893
 3406W        W46323  13.125  14.632   8.119  0.0507 -0.1832 -0.0832
 3407W        W46324  16.338  16.898   8.086 -0.1096 -0.0078  0.3826
 3408W        W46325  18.419  18.188   9.898 -0.1236 -0.0855 -0.0184
 3409W        W46326  17.497  18.957   9.957 -0.2572 -0.1163 -0.1673
 3410W        W46327  18.287  15.661  10.903  0.0859  0.0226  0.0383
 3411W        W46328  18.141  19.303  10.482 -0.1869  0.3942 -0.2605
 3412W        W46329  13.169  16.507   9.221 -0.1637 -0.1789  0.0447
 3413W        W46330  17.525  18.821  10.536 -0.0334  0.0567 -0.3932
 3414W        W46331  18.716  16.468  10.275  0.1002 -0.0607 -0.2275
 3415W        W46332  16.051  15.854   9.935  0.4413 -0.2317  0.1895
 3416W        W46333  14.837  14.725   9.592  0.1041 -0.5002  0.1866
 3417W        W46334  14.760  15.372   9.255 -0.0031  0.0285 -0.1120
 3418W        W46335  19.133  17.569  10.720  0.1423 -0.1373  0.1343
 3419W        W46336  16.992  17.716   5.299 -0.1291  0.1242 -0.3242
 3420W        W46337  19.626  18.156   8.515 -0.1901 -0.1528  0.1756
 3421W        W46338  15.358  17.311   8.019 -0.3502 -0.0705  0.2255
 3422W        W46339  16.414  14.217   7.755 -0.1176 -0.3498 -0.2382
 3423W        W46340  16.904  18.162   8.934 -0.0506 -0.0026  0.2612
 3424W        W46341  18.523  17.805   9.422 -0.1723  0.0812  0.1014
 3425W        W46342  16.005  14.897   8.365  0.1936 -0.2257 -0.2265
 3426W        W46343  22.431  16.330   8.578  0.1785  0.1188  0.2072
 3427W        W46344  15.254  14.070   9.020  0.3008 -0.2433 -0.1037
 3428W        W46345  16.980  15.638   9.431 -0.0850 -0.0678 -0.1763
 3429W        W46346  16.314  14.631   9.592  0.2236  0.0090 -0.1146
 3430W        W46347  16.396  16.966   9.805 -0.2054  0.0552 -0.0120
 3431W        W46348  16.455  18.085   9.849 -0.0403  0.1975  0.2124
 3432W        W46349  13.801  16.060   7.604  0.2217 -0.0573  0.1409
 3433W        W46350  15.096  14.876   8.686 -0.1222 -0.0644 -0.2177
 3434W        W46351  17.568  16.177  10.163 -0.3519  0.1258  0.3400
 3435W        W46352  15.449  15.110   8.043  0.1595  0.0066  0.0896
 3436W        W46353  17.060  17.239  10.339 -0.2243 -0.0438  0.1752
 3437W        W46354  16.773  16.331   9.985  0.2988  0.1875 -0.0532
 3438W        W46355  15.196  13.137   9.322  0.2871 -0.1002  0.1313
 3439W        W46356  16.867  18.198   9.450  0.0667  0.1758  0.1008
 3440W        W46357  15.804  16.758  10.242 -0.1806  0.2604 -0.1372
 3441W        W46358  15.393  14.563   7.610 -0.1979  0.0115 -0.2190
 3442W        W46359  14.572  18.149   6.969 -0.1299 -0.0368 -0.0283
 3443W        W46360  14.786  14.696   7.633 -0.1305  0.1597 -0.1629
 3444W        W46361  17.281  13.798  10.245 -0.2674  0.0470 -0.2370
 3445W        W46362  16.714  16.084   8.323  0.3634 -0.1112 -0.0153
 3446W        W46363  16.695  17.063   8.333  0.1413  0.1045  0.0622
 3447W        W46364  17.311  14.859   9.592  0.0721 -0.4592 -0.1818
 3448W        W46365  17.815  16.012   9.036 -0.0919 -0.1726  0.1290
 3449W        W46366  17.349  16.959   7.532  0.2222  0.3473 -0.1443
 3450W        W46367  16.802  14.678   9.427 -0.3765 -0.1101 -0.0577
 3451W        W46368  16.211  15.048   8.864  0.4318 -0.0589  0.1072
 3452W        W46369  16.285  13.721  10.007  0.1856 -0.0108 -0.0245
 3453W        W46370  17.567  14.129   9.305 -0.1023 -0.1657 -0.4059
 3454W        W46371  18.414  15.533   7.393  0.1122 -0.4250 -0.1486
 3455W        W46372  16.633  17.437   8.840 -0.0671  0.1722 -0.1123
 3456W        W46373  10.601  15.436  10.605 -0.0765  0.1873 -0.2872
 3457W        W46374  16.531  14.863   8.467  0.0768 -0.2507 -0.0155
 3458W        W46375  18.024  18.110  10.168 -0.1766  0.0249  0.1003
 3459W        W46376  16.783  13.825   7.861  0.3115  0.1754  0.1051
 3460W        W46377  19.702  15.051   7.460  0.0562 -0.1002  0.1859
 3461W        W46378  17.334  20.863   8.961 -0.1067  0.3480  0.0434
 3462W        W46379  15.981  19.004   9.495  0.0570 -0.1976  0.2183
 3463W        W46380  18.424  17.100   9.971  0.0660  0.1567  0.5434
 3464W        W46381  14.886  15.293  10.150  0.0976  0.1523 -0.0185
 3465W        W46382  16.428  14.628   9.069 -0.1579  0.0313  0.0475
 3466W        W46383  15.331  14.747   9.854 -0.0449  0.4012 -0.2140
 3467W        W46384  17.718  15.662   9.903 -0.3272  0.0198  0.0044
 3468W        W46385  15.805  14.318   8.370  0.0526 -0.0371  0.0299
 3469W        W46386  15.772  13.610   7.590  0.0773 -0.1155  0.1118
 3470W        W46387  16.040  19.693   9.734 -0.0515  0.0010 -0.1376
 3471W        W46388  15.615  17.858  10.226  0.1123 -0.0207 -0.1908
 3472W        W46389  14.720  21.407   1.808 -0.3546  0.1176  0.1761
 3473W        W46390  13.638  18.497  29.425  0.1436 -0.2235 -0.4335
 3474W        W46391  16.974  19.742  31.575  0.1362  0.0546 -0.1796
 3475W        W46392  15.394  19.066  29.930 -0.1880  0.1574  0.2122
 3476W        W46393  15.856  17.292  28.906 -0.2418  0.1083  0.0829
 3477W        W46394  17.635  21.922   1.109 -0.1218 -0.0414 -0.2444
 3478W        W46395  13.119  17.907   3.384  0.0547  0.1048 -0.1219
 3479W        W46396  16.360  21.083   2.672 -0.2581 -0.1800 -0.2740
 3480W        W46397  17.537  22.695   1.653 -0.1872  0.0671 -0.3900
 3481W        W46398  14.793  17.867  29.763  0.0757  0.0955 -0.1604
 3482W        W46399  13.074  22.136   1.989  0.0651  0.0757  0.4054
 3483W        W46400  15.541  21.866   0.770  0.0858 -0.0640  0.0614
 3484W        W46401  14.418  16.341  31.650 -0.1202 -0.1244 -0.2228
 3485W        W46402  14.916  17.786  28.989 -0.0545  0.2755 -0.0872
 3486W        W46403  16.478  20.475   3.909 -0.0809 -0.0259  0.0102
 3487W        W46404  15.591  17.545  31.298  0.1157  0.0575 -0.0237
 3488W        W46405  14.326  20.513   0.901  0.0842  0.0104 -0.0776
 3489W        W46406  16.187  16.372  30.790 -0.2095  0.0524 -0.0797
 3490W        W46407  16.768  22.491   0.254 -0.0569  0.0825 -0.2252
 3491W        W46408  15.406  17.094  31.528 -0.0285 -0.0472  0.0066
 3492W        W46409  14.438  18.183   3.655 -0.4242 -0.1976  0.1171
 3493W        W46410  16.200  21.866  31.565  0.2171  0.0691 -0.0086
 3494W        W46411  13.204  18.517  30.137  0.2989  0.0764 -0.0858
 3495W        W46412  14.935  19.940   0.382 -0.4233 -0.0029 -0.2043
 3496W        W46413  14.829  18.497  31.123 -0.2816  0.1269 -0.1760
 3497W        W46414  15.747  20.515   0.957 -0.2440 -0.0157 -0.1122
 3498W        W46415  15.219  21.988  30.965  0.0042 -0.1438  0.1753
 3499W        W46416  16.006  21.841   2.511 -0.1337  0.0080  0.0929
 3500W        W46417  16.351  22.194   1.853 -0.1735 -0.2515  0.0073
 3501W        W46418  17.596  21.054   1.805 -0.1953 -0.1817 -0.0527
 3502W        W46419  15.703  19.387   1.150 -0.0217  0.0640 -0.0432
 3503W        W46420  13.562  22.063  30.852 -0.0094  0.2493  0.1187
 3504W        W46421  13.824  18.551  30.036 -0.0635 -0.0321 -0.1981
 3505W        W46422  16.664  21.898  31.548 -0.0264 -0.0435  0.1371
 3506W        W46423  15.633  20.865   1.920 -0.1532  0.2074 -0.0572
 3507W        W46424  13.050  22.262   2.890 -0.0338 -0.2144  0.2224
 3508W        W46425  14.220  20.586  28.458  0.1122 -0.0757  0.2023
 3509W        W46426  15.422  20.959   3.196 -0.2238  0.3530  0.0051
 3510W        W46427  16.229  22.102   0.637  0.0984  0.1149 -0.1309
 3511W        W46428  15.965  18.272   1.392 -0.1156  0.1243 -0.1873
 3512W        W46429  15.056  19.005  31.388  0.0933 -0.0359 -0.0249
 3513W        W46430  15.305  19.483  29.358  0.0873 -0.2292  0.1100
 3514W        W46431  14.040  19.377  29.742  0.2551  0.0007 -0.3564
 3515W        W46432  14.493  20.841   3.290  0.0279 -0.4883  0.1011
 3516W        W46433  14.107  19.394  30.268 -0.4341 -0.1274 -0.0737
 3517W        W46434  16.791  21.904   3.224  0.0552 -0.1424  0.3510
 3518W        W46435  14.760  20.248  30.411  0.2426 -0.2953  0.3281
 3519W        W46436  18.515  19.476  29.429 -0.0991 -0.0595 -0.1599
 3520W        W46437  16.779  19.379  28.239 -0.4005 -0.1314 -0.1995
 3521W        W46438  16.244  17.832  28.294 -0.0555 -0.1516  0.0937
 3522W        W46439  15.625  17.302   0.841 -0.1023  0.2093  0.3459
 3523W        W46440  13.912  20.327  30.610 -0.2589 -0.4214  0.2417
 3524W        W46441  15.110  20.681   1.400  0.2018 -0.2558 -0.1233
 3525W        W46442  18.821  20.654   1.977  0.3970  0.0255 -0.0574
 3526W        W46443  15.547  19.488  31.370 -0.3998 -0.0064 -0.2280
 3527W        W46444  14.840  20.450   0.932 -0.4070 -0.0907 -0.4430
 3528W        W46445  14.399  21.026  30.543 -0.4061  0.0187  0.2445
 3529W        W46446  17.357  19.878  31.270 -0.1436  0.1222  0.2054
 3530W        W46447  15.952  20.604  29.029 -0.0569  0.1844  0.0531
 3531W        W46448  18.489  20.822  30.102  0.0433  0.2980  0.0713
 3532W        W46449  15.408  21.524  31.496  0.3244  0.1107  0.2767
 3533W        W46450  13.271  19.191  31.480  0.2183 -0.1628  0.1555
 3534W        W46451  14.716  19.410   2.752 -0.2091 -0.2187 -0.1112
 3535W        W46452  14.341  21.128   2.908  0.0691 -0.0137  0.4321
 3536W        W46453  15.829  16.688  28.714  0.1882 -0.2245 -0.1380
 3537W        W46454  17.697  21.158   2.349  0.1370  0.0365  0.1229
 3538W        W46455  15.193  22.600   3.634 -0.0954 -0.2058  0.1143
 3539W        W46456  17.490  20.624  30.241  0.0442 -0.0236 -0.3945
 3540W        W46457  15.930  21.456  31.448 -0.0628  0.2721 -0.0764
 3541W        W46458  17.072  22.108   0.938 -0.0672  0.0488  0.3314
 3542W        W46459  17.378  20.537   0.026 -0.2718 -0.1082  0.1861
 3543W        W46460  16.788  18.800   0.331  0.2897  0.0166 -0.2387
 3544W        W46461  15.595  17.966   1.564 -0.1254  0.1957  0.1503
 3545W        W46462  15.170  20.080  30.012 -0.2378  0.0699  0.2177
 3546W        W46463  17.356  20.412  31.498  0.0976  0.1228 -0.0159
 3547W        W46464  18.245  21.748   1.794  0.0739 -0.0679  0.0498
 3548W        W46465  16.704  21.049  27.019 -0.2313 -0.0590  0.0060
 3549W        W46466  14.829  20.749   0.053 -0.0562 -0.2260  0.3377
 3550W        W46467  15.177  20.913   1.822  0.1912 -0.1003 -0.2968
 3551W        W46468  16.019  22.772   0.664 -0.0107 -0.1605 -0.0697
 3552W        W46469  15.031  21.111  30.408 -0.2071  0.1119  0.0876
 3553W        W46470  15.487  20.386  31.573  0.2150  0.1059 -0.0101
 3554W        W46471  15.477  19.002  29.382 -0.2001  0.1094  0.4024
 3555W        W46472  13.818  18.389  30.530 -0.0916 -0.1138 -0.3452
 3556W        W46473  16.772  22.062   0.472 -0.3277  0.0197 -0.1207
 3557W        W46474  17.785  19.198  31.858  0.2505 -0.0466  0.2223
 3558W        W46475  15.578  19.542   1.629  0.0290 -0.0839  0.0306
 3559W        W46476  17.217  17.797  31.923 -0.1548  0.1710  0.2081
 3560W        W46477  14.722  20.313  30.959 -0.0532  0.2160  0.0475
 3561W        W46478  19.921  20.038   2.002 -0.0985  0.0441  0.2080
 3562W        W46479  16.739  20.359   0.153  0.0288  0.1934  0.1845
 3563W        W46480  16.305  20.593  30.486 -0.0364 -0.2618  0.1125
 3564W        W46481  14.548  19.767   2.064  0.2269 -0.1434  0.2040
 3565W        W46482  14.425  19.633  28.485 -0.1757  0.0342 -0.0110
 3566W        W46483  14.102  19.316   4.828  0.1323  0.1608 -0.2160
 3567W        W46484  14.594  18.968  31.627 -0.2847  0.0875 -0.0465
 3568W        W46485  16.526  20.873   1.007  0.2443 -0.0177  0.0585
 3569W        W46486  15.163  16.366  28.194 -0.3295 -0.1346  0.2279
 3570W        W46487  16.022  20.037  29.843  0.0415  0.3855 -0.0787
 3571W        W46488  15.771  18.449  31.920  0.0480 -0.2796  0.2420
 3572W        W46489  13.917  18.859  29.148  0.4061 -0.2771 -0.0704
 3573W        W46490  17.078  18.609   3.791 -0.0895  0.1027 -0.4412
 3574W        W46491  15.205  21.713  29.063  0.0748  0.2449  0.0241
 3575W        W46492  18.036  20.867   1.930  0.1480  0.1066 -0.1429
 3576W        W46493  17.007  21.101  30.915  0.0345 -0.1588  0.0508
 3577W        W46494  13.837  20.585   1.045 -0.0776  0.0277  0.2479
 3578W        W46495  15.461  16.257  29.470  0.3172  0.2054 -0.1176
 3579W        W46496  14.081  21.287   0.364  0.0292 -0.0848 -0.1030
 3580W        W46497  15.868  21.359   1.231  0.3082  0.0970 -0.2596
 3581W        W46498  15.625  17.205  30.961 -0.0685 -0.1692  0.1564
 3582W        W46499  17.685  21.202  30.244 -0.2957 -0.0522  0.0677
 3583W        W46500  16.628  18.762  30.079 -0.0749  0.1411 -0.2434
 3584W        W46501  14.035  20.834   0.588  0.2133 -0.0942 -0.2782
 3585W        W46502  15.840  19.984   0.967  0.1155 -0.0240  0.2654
 3586W        W46503  16.788  19.294   0.999 -0.4416 -0.1382  0.1697
 3587W        W46504  14.127  20.285  31.056 -0.0095 -0.1156 -0.0190
 3588W        W46505  14.826  15.613  30.906  0.1011 -0.3565 -0.0730
 3589W        W46506  16.590  21.663  30.694 -0.1465 -0.2242 -0.2539
 3590W        W46507  14.320  20.635  31.252 -0.1055  0.0103 -0.1973
 3591W        W46508  14.901  18.717   0.815  0.1018 -0.4242 -0.0715
 3592W        W46509  14.341  20.010  30.716  0.3505  0.4446  0.1950
 3593W        W46510  17.843  19.211   1.178 -0.2539  0.2474  0.2377
 3594W        W46511  14.562  21.947   0.528  0.2692 -0.0086 -0.0275
 3595W        W46512  16.350  19.082   1.962 -0.2169  0.0490  0.2918
 3596W        W46513  13.056  20.644  30.919  0.2491  0.0910  0.1074
 3597W        W46514  17.728  22.069   2.107  0.2742  0.2256  0.2618
 3598W        W46515  15.810  19.088  31.225  0.0641 -0.2533 -0.2149
 3599W        W46516  15.953  17.586  29.485 -0.0797 -0.0637  0.1789
 3600W        W46517  15.195  20.175   3.063 -0.2708 -0.1416  0.0823
 3601W        W46518  17.748  21.261   0.317 -0.1631 -0.0171 -0.0677
 3602W        W46519  16.048  16.482  29.371 -0.1347 -0.0992  0.1311
 3603W        W46520  17.513  18.708  28.217  0.0568  0.0559  0.0451
 3604W        W46521  13.839  21.960   3.328  0.1674 -0.0480  0.0708
 3605W        W46522  16.434  22.343  31.372  0.2886 -0.0115 -0.2875
 3606W        W46523  15.297  20.335   1.046 -0.0937 -0.2581  0.1380
 3607W        W46524  17.845  17.712  30.650 -0.2708  0.2337 -0.2986
 3608W        W46525  18.400  21.504  30.667  0.6240  0.1393  0.1607
 3609W        W46526  14.972  20.394   2.664  0.1923 -0.0543  0.1755
 3610W        W46527  15.312  20.709   2.836 -0.0090 -0.0338  0.1532
 3611W        W46528  18.222  20.535   1.587  0.0915  0.1481 -0.0829
 3612W        W46529  15.117  19.934   1.851  0.0864  0.1037  0.3181
 3613W        W46530  14.617  18.614  29.351  0.1792  0.1803  0.1712
 3614W        W46531  14.939  19.802  31.873  0.0964  0.0139 -0.2022
 3615W        W46532  12.693  22.643   0.817  0.1516  0.0190 -0.0167
 3616W        W46533  15.673  18.919   1.923  0.4882  0.0841 -0.0550
 3617W        W46534  15.321  19.916  31.578  0.0292  0.1720  0.3830
 3618W        W46535  15.254  19.359   3.121 -0.3749 -0.2573 -0.5953
 3619W        W46536  17.567  21.538  31.859 -0.1827 -0.1145 -0.0079
 3620W        W46537  15.592  20.472   0.166  0.0966 -0.2858 -0.2732
 3621W        W46538  14.109  19.122  30.930  0.3547  0.0662  0.0512
 3622W        W46539  15.118  21.732  30.544  0.4333 -0.1731 -0.0506
 3623W        W46540  15.153  20.330   2.259 -0.1661 -0.3549  0.0337
 3624W        W46541  13.394  21.659   2.006 -0.2747 -0.2189 -0.2781
 3625W        W46542  13.669  22.049   2.013  0.1013 -0.1497 -0.2159
 3626W        W46543  16.213  23.059   1.489 -0.2349  0.1097  0.2000
 3627W        W46544  16.007  20.993  30.439 -0.1658 -0.0798  0.4051
 3628W        W46545  15.089  17.921   3.293  0.0914  0.1300 -0.0751
 3629W        W46546  15.591  20.227  29.708  0.3926 -0.0088 -0.0610
 3630W        W46547  16.898  21.692   0.730 -0.0931  0.1039 -0.0306
 3631W        W46548  15.430  19.512  30.204 -0.0838 -0.0411  0.0588
 3632W        W46549  15.534  19.022   1.449 -0.3558 -0.1560  0.2923
 3633W        W46550  16.019  21.826   0.985  0.2283 -0.0433  0.2781
 3634W        W46551  15.049  19.440  29.874  0.2405 -0.2630 -0.2544
 3635W        W46552  17.028  21.761   1.300  0.4936 -0.0564  0.1556
 3636W        W46553  14.113  21.228   2.238  0.1613 -0.2995 -0.0959
 3637W        W46554  16.062  19.114   2.875  0.2564  0.2182 -0.0188
 3638W        W46555  15.847  21.116  30.874 -0.0233  0.0777 -0.1950
 3639W        W46556  16.098  18.670  30.395 -0.1089 -0.1859  0.0102
 3640W        W46557  13.709  20.149  31.935  0.1685 -0.1486  0.1115
 3641W        W46558  15.705  19.633  31.904  0.2006  0.0995 -0.2140
 3642W        W46559  16.542  20.091  29.172 -0.0244 -0.0361  0.3735
 3643W        W46560  15.017  20.143   1.400  0.0633  0.1035  0.3081
 3644W        W46561  14.917  18.913  30.797 -0.0179  0.1402 -0.0712
 3645W        W46562  15.186  21.109   1.050 -0.2163 -0.1226  0.0080
 3646W        W46563  16.318  20.405   4.813 -0.1009  0.2553 -0.2310
 3647W        W46564  17.035  18.650  30.496  0.3130 -0.0973  0.2836
 3648W        W46565  17.349  20.938   1.301 -0.0050  0.1097 -0.1950
 3649W        W46566  15.809  20.433   2.296 -0.2770  0.0331 -0.3394
 3650W        W46567  13.484  19.126   0.347 -0.1506 -0.3456  0.3050
 3651W        W46568  16.664  19.851   0.456  0.0739 -0.2367  0.1561
 3652W        W46569  14.905  19.062  30.190 -0.1053 -0.3952  0.4135
 3653W        W46570  14.105  18.713  29.565  0.1749  0.1612  0.2006
 3654W        W46571  16.167  20.407   4.267  0.1615  0.2838 -0.1602
 3655W        W46572  13.998  18.858  30.492 -0.1060  0.1593 -0.4680
 3656W        W46573  14.499  18.909  30.503 -0.1514  0.2497 -0.2320
 3657W        W46574  16.857  19.772   0.942  0.1704  0.0417 -0.0034
 3658W        W46575  16.063  20.954   2.166  0.1783  0.0182  0.2065
 3659W        W46576  14.808  16.776  30.910 -0.1902 -0.3673 -0.5000
 3660W        W46577  15.290  19.076   0.505  0.2450 -0.2314  0.0128
 3661W        W46578  16.009  18.822   1.578  0.3149 -0.2856  0.1292
 3662W        W46579  16.829  21.346   2.388  0.2160 -0.0162  0.0381
 3663W        W46580  16.540  19.176  29.767 -0.1273 -0.3997  0.2551
 3664W        W46581  14.894  19.672   3.239 -0.2231 -0.2510 -0.2157
 3665W        W46582  15.271  18.582  31.718  0.1369 -0.1033 -0.0440
 3666W        W46583  17.604  20.990  31.686 -0.0342 -0.0112  0.1079
 3667W        W46584  16.321  20.364  31.664 -0.0012  0.0736  0.0870
 3668W        W46585  14.037  19.863  31.300  0.0472  0.1998 -0.3843
 3669W        W46586  14.380  21.571  31.805 -0.0024 -0.2290  0.0976
 3670W        W46587  14.015  18.006  30.097 -0.1194  0.4355 -0.2764
 3671W        W46588  15.351  20.018   0.148  0.0664 -0.0860 -0.6687
 3672W        W46589  16.069  20.862   1.231  0.0845  0.2133  0.2412
 3673W        W46590  15.709  22.747  31.300 -0.1122 -0.0692  0.4294
 3674W        W46591  14.743  22.324   1.133 -0.0364  0.1112 -0.0318
 3675W        W46592  16.556  20.669  31.314  0.2074  0.2022 -0.0560
 3676W        W46593  16.614  21.764   2.113  0.0858  0.1043  0.0688
 3677W        W46594  17.301  19.046  30.958 -0.0828 -0.0009 -0.2511
 3678W        W46595  14.598  18.451   2.567 -0.0942  0.0683 -0.1391
 3679W        W46596  17.196  18.107  30.531 -0.1291  0.0170  0.4042
 3680W        W46597  14.915  18.920   0.013 -0.2249 -0.0586 -0.2216
 3681W        W46598  13.829  19.147   1.825 -0.4294 -0.1463 -0.0478
 3682W        W46599  18.510  20.707  30.570  0.0480 -0.1851  0.1932
 3683W        W46600  14.114  19.670   3.582  0.2215  0.4293  0.1058
 3684W        W46601  15.897  20.854   2.730 -0.2213 -0.0725  0.1864
 3685W        W46602  13.746  19.747   3.146 -0.2193  0.0097 -0.0141
 3686W        W46603  16.015  18.121  30.647  0.1244 -0.1948 -0.4443
 3687W        W46604  15.894  18.126  28.156 -0.1720  0.1470 -0.0851
 3688W        W46605  14.989  21.914   0.778  0.1182 -0.1261 -0.0193
 3689W        W46606  17.212  20.431   1.133 -0.0700  0.2890 -0.0574
 3690W        W46607  14.804  22.502  31.565  0.1202 -0.1117 -0.3731
 3691W        W46608  17.653  18.472  31.441 -0.2355  0.0796 -0.0785
 3692W        W46609  15.745  21.053   0.353 -0.0075 -0.1722  0.0803
 3693W        W46610  17.552  20.114   0.273 -0.0726  0.1544  0.0330
 3694W        W46611  15.136  20.855  31.568 -0.0297  0.1273  0.0111
 3695W        W46612  16.606  22.314   2.843  0.0276  0.1615 -0.0531
 3696W        W46613  16.899  18.861   1.323  0.1843 -0.1200 -0.0623
 3697W        W46614  15.642  22.023   1.254 -0.2048  0.1471 -0.1433
 3698W        W46615  17.466  18.711  30.305 -0.1024  0.0934  0.1017
 3699W        W46616  15.449  20.246   2.601  0.0552  0.2108  0.0564
 3700W        W46617  14.231  21.117   0.959  0.1888 -0.1236 -0.1020
 3701W        W46618  15.934  20.788   3.192 -0.0165  0.2858 -0.0118
 3702W        W46619  12.803  20.076   2.505 -0.1001 -0.0047  0.2081
 3703W        W46620  17.835  21.124   1.187 -0.1169 -0.0982  0.2185
 3704W        W46621  18.037  19.842  30.089 -0.1176 -0.2224 -0.1539
 3705W        W46622  16.903  19.114  31.591 -0.0210 -0.0663  0.1011
 3706W        W46623  17.083  19.430  31.190 -0.1770  0.3062  0.1637
 3707W        W46624  16.163  19.108   0.455  0.2251 -0.2527 -0.1042
 3708W        W46625  14.089  19.575  30.904  0.2240 -0.2284 -0.2879
 3709W        W46626  15.019  21.271   2.733  0.1057 -0.1650  0.0911
 3710W        W46627  15.240  17.151  30.182 -0.1366 -0.0861  0.3033
 3711W        W46628  16.087  20.847   4.018 -0.2171 -0.0797 -0.0981
 3712W        W46629  16.244  24.099   0.959 -0.0397  0.2996  0.2715
 3713W        W46630  16.526  20.356   0.601  0.2246 -0.0828 -0.0693
 3714W        W46631  14.898  18.004  31.756 -0.0898 -0.1736  0.0058
 3715W        W46632  14.435  18.231  31.789  0.2188 -0.2352  0.3482
 3716W        W46633  15.266  21.525   4.079  0.1107  0.2616 -0.0575
 3717W        W46634  14.416  19.588  29.510  0.2941  0.0118  0.0563
 3718W        W46635  16.704  18.957  31.160 -0.2609  0.1027  0.2840
 3719W        W46636  14.884  21.194   4.176 -0.1674  0.0254  0.0204
 3720W        W46637  15.283  19.606   3.719 -0.1631  0.0686 -0.2074
 3721W        W46638  15.570  16.526  29.055  0.2672 -0.1127 -0.0459
 3722W        W46639  17.247  19.499   1.039  0.2111  0.0947  0.0577
 3723W        W46640  16.948  20.259  29.809  0.1493  0.0347  0.1076
 3724W        W46641  15.305  20.411   1.765  0.4983 -0.0082 -0.1273
 3725W        W46642  16.562  22.721   2.562  0.0729 -0.0956 -0.1033
 3726W        W46643  14.746  20.606  31.520  0.2135  0.0111  0.3457
 3727W        W46644  14.413  21.493   0.727 -0.2825  0.1239 -0.1251
 3728W        W46645  14.664  19.635   1.554 -0.0176  0.1348  0.1514
 3729W        W46646  16.355  18.591   1.214 -0.0532  0.1253  0.1101
 3730W        W46647  14.471  21.076   0.084  0.0963 -0.0989 -0.1955
 3731W        W46648  15.890  20.299   0.543 -0.2655 -0.0148  0.2964
 3732W        W46649  17.024  21.134   3.447 -0.1652  0.1920  0.1546
 3733W        W46650  15.910  19.750   0.390  0.5011  0.1004  0.3029
 3734W        W46651  15.380  21.691   3.636  0.0437  0.1191  0.1241
 3735W        W46652  17.128  18.861  29.101  0.2827 -0.5602 -0.1506
 3736W        W46653  14.521  22.162   0.072  0.1539 -0.0309  0.1082
 3737W        W46654  14.088  19.583   2.226 -0.0335  0.2073  0.2686
 3738W        W46655  14.791  20.819   2.826  0.0738 -0.1699  0.2449
 3739W        W46656  16.418  21.145  30.937  0.0787 -0.2549  0.1599
 3740W        W46657  13.413  18.000  31.144  0.0455 -0.0815 -0.3251
 3741W        W46658  16.763  20.461  30.288 -0.0240 -0.1428 -0.1857
 3742W        W46659  15.236  22.256   1.045 -0.1027  0.1609 -0.0148
 3743W        W46660  13.276  20.924   1.685 -0.0506 -0.2130 -0.1085
 3744W        W46661  13.451  21.207  30.587  0.0212  0.1188 -0.0258
 3745W        W46662  17.864  21.336  31.330 -0.0442 -0.1174  0.3530
 3746W        W46663  15.107  24.265  31.290  0.0530  0.0590 -0.0731
 3747W        W46664  16.869  23.336   0.883  0.1131  0.0563 -0.0323
 3748W        W46665  14.528  18.005  28.784  0.1803  0.0497 -0.0493
 3749W        W46666  15.653  20.633  31.211 -0.2797 -0.0276  0.1086
 3750W        W46667  13.114  20.109  31.885  0.2334  0.0493  0.0035
 3751W        W46668  16.408  21.302   1.992 -0.1835  0.1738  0.0580
 3752W        W46669  16.433  21.651   0.584  0.3390  0.1235  0.3148
 3753W        W46670  17.328  19.852   1.814  0.2031  0.0852  0.1249
 3754W        W46671  17.185  18.509  29.874 -0.2878  0.1247 -0.1143
 3755W        W46672  16.268  21.171   0.366 -0.2215 -0.3110 -0.3478
 3756W        W46673  17.072  20.762  30.071  0.3681 -0.0666  0.1090
 3757W        W46674  17.765  21.576   0.759  0.1007  0.0750 -0.0072
 3758W        W46675  14.770  18.077  30.805 -0.2613  0.0330 -0.4437
 3759W        W46676  15.759  17.701  30.864  0.1415  0.0050 -0.0860
 3760W        W46677  14.206  20.795   1.413  0.2964  0.0737  0.1057
 3761W        W46678  16.600  19.310   4.168  0.3130 -0.1702 -0.1362
 3762W        W46679  14.398  22.277   2.204 -0.0829  0.0481  0.0688
 3763W        W46680  15.726  20.651  30.633 -0.0472  0.1625  0.0155
 3764W        W46681  13.953  18.197  30.975 -0.1516 -0.2003 -0.1865
 3765W        W46682  16.302  20.585   1.836  0.0105 -0.0529  0.2185
 3766W        W46683  17.556  19.529   1.501  0.0592  0.2810  0.1073
 3767W        W46684  15.395  18.668  31.215  0.1186 -0.2503  0.0710
 3768W        W46685  14.978  17.258  30.636 -0.3484  0.1635  0.0671
 3769W        W46686  15.009  18.291  29.977  0.3917  0.2783  0.3377
 3770W        W46687  16.881  20.773  31.899 -0.0199 -0.0500 -0.0005
 3771W        W46688  16.274  19.963   0.807  0.1436 -0.5143  0.4228
 3772W        W46689  15.434  18.043  30.014  0.0937 -0.2957  0.0949
 3773W        W46690  17.368  18.452   1.211  0.0433  0.0423 -0.1170
 3774W        W46691  14.726  19.435  31.571  0.0995 -0.3585 -0.2071
 3775W        W46692  16.527  18.845   0.789 -0.2891  0.0221 -0.2833
 3776W        W46693  15.693  18.693  30.670 -0.1892 -0.0605 -0.1476
 3777W        W46694  15.754  20.159  30.879  0.2295  0.0646 -0.5627
 3778W        W46695  15.830  20.381   2.944  0.0142  0.2729 -0.0838
 3779W        W46696  14.448  19.107   0.955 -0.0617  0.1295 -0.0634
 3780W        W46697  15.888  18.178  29.686 -0.1701 -0.1057  0.0778
 3781W        W46698  16.840  19.859   2.022 -0.0474  0.5400 -0.1173
 3782W        W46699  16.267  20.225  30.996  0.3247 -0.3637  0.1886
 3783W        W46700  16.436  22.463   0.873  0.1893 -0.1051 -0.3576
 3784W        W46701  14.631  18.942   0.459  0.2522  0.2842  0.2055
 3785W        W46702  16.029  17.265   0.217  0.0125 -0.1553 -0.0705
 3786W        W46703  14.349  19.757  31.693 -0.0411 -0.2178  0.0079
 3787W        W46704  14.064  20.077   2.822 -0.0140  0.1399  0.1836
 3788W        W46705  16.336  20.588   2.461 -0.2719  0.0499  0.1059
 3789W        W46706  13.889  20.286  31.526 -0.2190 -0.1710  0.2514
 3790W        W46707  17.141  20.610  30.622  0.0859  0.0176  0.0972
 3791W        W46708  16.495  19.690   2.353 -0.0408 -0.1903 -0.3632
 3792W        W46709  16.755  22.163  31.028 -0.1307  0.0259  0.4572
 3793W        W46710  16.087  20.767   0.661 -0.2004  0.1664  0.2373
 3794W        W46711  16.920  22.828  30.442 -0.0957  0.2844  0.0053
 3795W        W46712  14.825  19.241   3.679 -0.1642 -0.0866  0.1077
 3796W        W46713  18.994  20.394  29.442 -0.0095  0.0677 -0.2014
 3797W        W46714  17.614  22.393   1.130  0.0753  0.3171  0.0440
 3798W        W46715  15.138  19.029  27.616 -0.0440 -0.0048  0.0022
 3799W        W46716  16.816  18.495  30.913  0.0344  0.0583  0.3411
 3800W        W46717  14.269  21.537  30.817 -0.0207  0.1076 -0.2639
 3801W        W46718  17.327  19.028   1.129 -0.1759 -0.0218  0.0625
 3802W        W46719  16.523  19.438  31.632  0.4369  0.0632  0.2240
 3803W        W46720  16.613  21.816   0.109 -0.1140  0.2115  0.1177
 3804W        W46721  15.290  19.109   3.897 -0.1071  0.0871  0.1552
 3805W        W46722  15.963  23.293   0.878 -0.1301 -0.1505  0.3298
 3806W        W46723  15.211  22.507   2.430  0.1217  0.1307  0.0497
 3807W        W46724  14.495  19.782  31.136 -0.1446  0.1368 -0.0390
 3808W        W46725  16.375  19.603   1.887 -0.3134 -0.0670 -0.0468
 3809W        W46726  15.914  20.668  31.635  0.1848 -0.1267  0.0765
 3810W        W46727  15.313  22.075  30.196 -0.1268  0.0639  0.3192
 3811W        W46728  16.905  21.524  30.372 -0.0772  0.1033  0.2990
 3812W        W46729  15.637  18.108  28.653  0.2196  0.1256 -0.0827
 3813W        W46730  16.385  21.647  31.189  0.1888 -0.2660 -0.1447
 3814W        W46731  15.211  17.721  29.588  0.0222  0.2486  0.0545
 3815W        W46732  16.143  20.089  30.502  0.0214  0.0270 -0.0801
 3816W        W46733  16.190  18.653   0.275  0.1217  0.2276 -0.0027
 3817W        W46734  15.032  20.440   0.379 -0.0609  0.1753  0.4448
 3818W        W46735  14.307  18.275  29.777 -0.4887 -0.1810  0.1011
 3819W        W46736  16.467  19.375  27.875  0.0595  0.0742  0.2741
 3820W        W46737  14.371  20.193  31.464  0.0098  0.0384  0.1742
 3821W        W46738  12.984  19.327   2.025  0.0262  0.1228 -0.3249
 3822W        W46739  14.242  20.246   3.683 -0.2180  0.1602 -0.1535
 3823W        W46740  14.826  20.489   1.925  0.0856  0.2135  0.0116
 3824W        W46741  15.042  18.846  29.673  0.0614  0.1492 -0.1605
 3825W        W46742  17.271  21.467   0.407  0.1079  0.0159  0.1482
 3826W        W46743  15.483  19.679   0.821  0.2389  0.0901 -0.1023
 3827W        W46744  13.395  19.801   0.199 -0.1599 -0.0462 -0.0175
 3828W        W46745  15.901  20.515  30.148  0.0373  0.1213 -0.0348
 3829W        W46746  16.554  21.955   0.952  0.0333  0.0336  0.2926
 3830W        W46747  15.104  17.240  31.097  0.2494 -0.0353 -0.1758
 3831W        W46748  16.099  22.204   1.395 -0.4956 -0.1883 -0.0427
 3832W        W46749  16.475  16.979  29.893 -0.1564  0.2058 -0.1770
 3833W        W46750  15.429  20.158   0.596  0.1390  0.0736 -0.1751
 3834W        W46751  13.870  20.351   4.213 -0.1481  0.1361 -0.1500
 3835W        W46752  13.122  17.600  30.295  0.1468 -0.0684  0.1315
 3836W        W46753  15.960  19.341  31.619  0.0709  0.2154 -0.1071
 3837W        W46754  16.452  21.516   1.184 -0.0750 -0.3577  0.0513
 3838W        W46755  18.166  21.115  30.401  0.2164  0.0024 -0.0239
 3839W        W46756  14.895  21.853   1.854  0.3825 -0.0034 -0.0345
 3840W        W46757  14.872  22.352   2.048  0.0155 -0.3582 -0.0883
 3841W        W46758  14.240  19.380  31.383  0.0323 -0.0200  0.0968
 3842W        W46759  15.350  19.834  30.554  0.2117  0.2177 -0.1569
 3843W        W46760  16.256  21.360   3.064 -0.2781  0.0377 -0.0021
 3844W        W46761  16.677  20.703  30.835 -0.4971 -0.0267  0.1732
 3845W        W46762  16.246  19.421   0.959  0.4753  0.2857 -0.0859
 3846W        W46763  15.449  18.425  30.339 -0.0819 -0.2174 -0.1471
 3847W        W46764  13.724  18.792   3.360 -0.0129 -0.2438  0.0349
 3848W        W46765  14.661  21.475   0.280 -0.0601  0.2235 -0.0103
 3849W        W46766  15.660  18.273  30.981  0.1532  0.3178 -0.1242
 3850W        W46767  14.691  18.039  31.325  0.0192  0.0327  0.2825
 3851W        W46768  15.683  18.371  31.465 -0.1576 -0.1092 -0.3435
 3852W        W46769  15.190  20.554  31.135 -0.0133 -0.0448 -0.1381
 3853W        W46770  15.422  20.646   0.601 -0.0542 -0.0108  0.0775
 3854W        W46771  16.579  18.831  30.568 -0.1361  0.0890 -0.2242
 3855W        W46772  15.773  19.438   3.222  0.4143 -0.1503 -0.0360
 3856W        W46773  17.461  20.542   0.609 -0.3449 -0.1551 -0.1806
 3857W        W46774  17.008  20.214   1.572  0.1912  0.2043  0.0002
 3858W        W46775  16.456  17.792  30.430 -0.5374 -0.0819  0.1693
 3859W        W46776  17.201  20.947   0.392  0.0997  0.0956 -0.0259
 3860W        W46777  17.759  23.490   2.908  0.1085 -0.0269  0.1036
 3861W        W46778  16.999  24.651   4.080  0.0599  0.1330 -0.2850
 3862W        W46779  15.884  22.355   0.963  0.2549  0.1004  0.0104
 3863W        W46780  16.106  20.652  30.938 -0.1685 -0.1798  0.0413
 3864W        W46781  13.611  18.193   1.830  0.1625 -0.0463  0.0629
 3865W        W46782  15.582  17.984  30.441  0.0179 -0.2170 -0.3273
 3866W        W46783  15.320  19.581   0.311  0.0695 -0.0062  0.1093
 3867W        W46784  16.206  19.605   2.898 -0.1061  0.1645 -0.0988
 3868W        W46785  15.471  18.530  29.792 -0.0647  0.0177 -0.1254
 3869W        W46786  16.236  17.399  31.742 -0.1679 -0.1355  0.0655
 3870W        W46787  15.529  23.442   2.606 -0.1196  0.3189 -0.3511
 3871W        W46788  16.966  20.674   0.798  0.3805  0.0433  0.1115
 3872W        W46789  15.783  18.550   7.721 -0.2438  0.0466  0.1347
 3873W        W46790  15.319  18.464   3.186 -0.0470 -0.0025 -0.1501
 3874W        W46791  17.884  19.413   1.856 -0.0921  0.4207 -0.1793
 3875W        W46792  17.536  20.691   2.186  0.1762  0.3841 -0.2125
 3876W        W46793  14.002  19.526   5.686  0.1007 -0.3308 -0.0894
 3877W        W46794  18.260  19.979   2.058  0.0019 -0.0830  0.1151
 3878W        W46795  15.773  18.567   6.785  0.0246 -0.2162  0.0819
 3879W        W46796  16.693  20.367   5.692  0.1436  0.1551 -0.1992
 3880W        W46797  15.301  21.223   4.496 -0.2540 -0.3392 -0.0954
 3881W        W46798  15.763  21.407   3.822  0.1307 -0.2037  0.5420
 3882W        W46799  14.818  18.702   6.438  0.0743 -0.1492  0.1176
 3883W        W46800  16.408  19.597   5.953 -0.1752  0.0511  0.1820
 3884W        W46801  15.411  19.603   5.648  0.3096  0.3915  0.1040
 3885W        W46802  14.242  17.968   6.680  0.0720  0.1216  0.0493
 3886W        W46803  14.354  19.056   5.800 -0.1770 -0.0317  0.2506
 3887W        W46804  14.557  19.171   4.064 -0.1281  0.2827  0.0371
 3888W        W46805  14.916  18.487   6.936  0.0633 -0.0895  0.0067
 3889W        W46806  15.242  19.081   4.713 -0.0668  0.1835 -0.1619
 3890W        W46807  16.755  22.009   4.317  0.2314 -0.2330 -0.0453
 3891W        W46808  16.596  18.777   5.372  0.1808 -0.0545 -0.1646
 3892W        W46809  15.838  17.403   8.660 -0.0343 -0.3411 -0.4216
 3893W        W46810  15.621  21.064   5.368  0.2056  0.1591  0.2294
 3894W        W46811  14.512  20.242   2.267  0.0214 -0.2319 -0.1906
 3895W        W46812  14.843  20.582   5.400  0.2601 -0.0110 -0.0965
 3896W        W46813  15.905  19.447   6.859 -0.1645 -0.0874 -0.2608
 3897W        W46814  16.725  20.058   3.660 -0.0514 -0.1704 -0.1704
 3898W        W46815  15.259  19.774   4.221  0.1581 -0.0891 -0.1066
 3899W        W46816  16.242  21.305   4.082 -0.1796  0.1709  0.0320
 3900W        W46817  16.429  22.647   5.834  0.3846 -0.0192  0.0588
 3901W        W46818  15.874  19.895   5.826  0.1198 -0.3136 -0.0480
 3902W        W46819  14.104  20.701   6.705 -0.2971 -0.0390  0.0743
 3903W        W46820  14.710  20.190   3.929  0.0655  0.2597  0.1630
 3904W        W46821  15.013  22.772   1.063  0.3505 -0.0807  0.0312
 3905W        W46822  18.388  20.669   4.369 -0.2561 -0.0193  0.1052
 3906W        W46823  16.721  20.880   5.731  0.0415 -0.0930 -0.2398
 3907W        W46824  14.459  22.513   7.094 -0.2090  0.4020 -0.0414
 3908W        W46825  14.710  20.132   3.316  0.2183  0.1086 -0.1416
 3909W        W46826  16.606  21.825   6.755 -0.3217 -0.1030 -0.1694
 3910W        W46827  16.216  20.935   6.489  0.1818 -0.3439  0.0813
 3911W        W46828  15.302  18.765   6.667 -0.2241 -0.0839  0.0380
 3912W        W46829  16.915  19.965   4.651  0.0198  0.0670 -0.2811
 3913W        W46830  15.984  18.914   5.945  0.0570 -0.0890  0.0390
 3914W        W46831  15.113  21.041   5.484  0.1210 -0.0173  0.0195
 3915W        W46832  14.794  18.969   6.862  0.1033 -0.1316 -0.1060
 3916W        W46833  14.798  19.902   2.764  0.1569 -0.1956  0.0445
 3917W        W46834  17.850  17.508   7.250  0.1075 -0.3658  0.3709
 3918W        W46835  14.770  21.686   4.242 -0.0775  0.0184 -0.0001
 3919W        W46836  16.777  19.850   2.828  0.1869 -0.1183  0.2360
 3920W        W46837  15.329  19.080   0.992  0.2247 -0.4836  0.1993
 3921W        W46838  15.179  18.455   2.587 -0.4472 -0.0009  0.3523
 3922W        W46839  16.671  18.133   7.082 -0.1035 -0.1894  0.0518
 3923W        W46840  15.864  21.243   4.357  0.0293  0.3145  0.0981
 3924W        W46841  15.612  17.685   6.310  0.0474  0.1243  0.1532
 3925W        W46842  18.125  19.214   7.221  0.0770 -0.0320  0.1432
 3926W        W46843  16.362  21.526   2.467  0.2657  0.1650  0.0727
 3927W        W46844  15.977  20.091   5.065 -0.2675  0.2110  0.1923
 3928W        W46845  14.321  21.426   5.161  0.0210 -0.1001 -0.1851
 3929W        W46846  14.151  19.746   4.582 -0.0541 -0.0045 -0.1093
 3930W        W46847  18.853  20.577   0.832 -0.4977 -0.4005  0.3372
 3931W        W46848  17.275  20.319   3.703  0.2738  0.0068 -0.2350
 3932W        W46849  15.067  21.372   1.433  0.3536 -0.1017 -0.1644
 3933W        W46850  15.479  19.843   5.158  0.1196 -0.0416  0.3313
 3934W        W46851  13.817  21.927   5.585 -0.2006  0.2021  0.4675
 3935W        W46852  14.499  19.926   9.008  0.0804  0.0337 -0.5664
 3936W        W46853  13.788  19.466   3.949  0.1909  0.0014  0.0356
 3937W        W46854  18.081  19.266   6.563  0.1386 -0.0669  0.0531
 3938W        W46855  14.798  19.657   6.295  0.1997  0.0450  0.0297
 3939W        W46856  14.856  18.280   4.893 -0.0619 -0.1735 -0.2980
 3940W        W46857  15.303  18.490   5.214 -0.2900 -0.1475  0.0288
 3941W        W46858  17.797  19.032   5.749  0.0429 -0.1364  0.1168
 3942W        W46859  15.841  20.256   4.644 -0.2061 -0.1516 -0.2547
 3943W        W46860  15.642  17.969   3.869  0.0997  0.0325 -0.4501
 3944W        W46861  17.795  18.950   6.790 -0.0385  0.1093  0.3384
 3945W        W46862  15.612  19.972   3.748  0.1399 -0.0058 -0.1312
 3946W        W46863  14.467  20.596   4.007 -0.2796  0.0188  0.0010
 3947W        W46864  16.339  20.611   6.081  0.2281  0.0790 -0.0337
 3948W        W46865  17.833  19.605   2.892 -0.0821  0.3049 -0.0764
 3949W        W46866  15.477  21.052   4.047  0.0805 -0.0504  0.1980
 3950W        W46867  17.726  19.149   6.282 -0.3427  0.1079  0.0713
 3951W        W46868  15.773  20.553   6.586 -0.0168  0.1270 -0.0472
 3952W        W46869  12.730  22.240   3.312 -0.1168 -0.0755  0.1862
 3953W        W46870  12.507  20.191   4.326 -0.1210 -0.0341 -0.0856
 3954W        W46871  14.070  20.619   3.402  0.4699 -0.0458  0.0166
 3955W        W46872  15.288  19.803   6.713  0.0848  0.0219  0.0838
 3956W        W46873  16.348  21.773   3.928  0.0497 -0.0380 -0.1670
 3957W        W46874  17.603  19.484   3.857 -0.0011 -0.1806 -0.1958
 3958W        W46875  15.162  18.952   5.308  0.2220 -0.2457  0.0443
 3959W        W46876  17.352  18.839   6.058 -0.0544 -0.2770 -0.0229
 3960W        W46877  14.815  19.663   4.050 -0.1164 -0.1981  0.1522
 3961W        W46878  16.837  20.894   2.753 -0.1990 -0.0977  0.1076
 3962W        W46879  18.167  21.264   2.553  0.2808 -0.1082 -0.1852
 3963W        W46880  18.411  21.287  31.429  0.0224  0.1892 -0.1128
 3964W        W46881  15.561  18.643   6.187 -0.0315 -0.0443 -0.1027
 3965W        W46882  15.016  19.861   5.844  0.1321 -0.0225  0.3799
 3966W        W46883  13.813  17.706   9.171 -0.0182  0.3289 -0.1690
 3967W        W46884  14.552  18.040   7.425 -0.0922 -0.1067 -0.2959
 3968W        W46885  18.079  18.194   5.564  0.0134 -0.0438  0.0843
 3969W        W46886  16.071  19.656   4.910  0.2866  0.1071 -0.2119
 3970W        W46887  16.061  18.424   6.048 -0.2396  0.4100 -0.2079
 3971W        W46888  16.856  20.612   3.565  0.0751 -0.0678  0.0193
 3972W        W46889  13.176  19.619   3.372 -0.1927 -0.1228 -0.3275
 3973W        W46890  17.103  18.894   8.374  0.0934  0.2036  0.0065
 3974W        W46891  17.289  23.135   2.614 -0.0559 -0.0494 -0.0473
 3975W        W46892  18.896  20.586   6.483 -0.1137 -0.0641 -0.0867
 3976W        W46893  17.837  20.897   3.390  0.0423 -0.2086 -0.3506
 3977W        W46894  16.928  19.324   8.182  0.2797 -0.0281 -0.0977
 3978W        W46895  15.646  21.345   3.300  0.2016  0.1467  0.2765
 3979W        W46896  12.659  20.854   4.645  0.1255 -0.0795 -0.0917
 3980W        W46897  15.942  20.744   4.581 -0.2737  0.4368 -0.0810
 3981W        W46898  14.249  18.520   3.336 -0.1707 -0.3179  0.2736
 3982W        W46899  16.955  23.485   5.315 -0.1493  0.2878 -0.1317
 3983W        W46900  18.233  20.305   2.642  0.1534 -0.1915 -0.0899
 3984W        W46901  15.167  20.126   5.414  0.0022  0.3310  0.0925
 3985W        W46902  17.282  17.812   4.883  0.2347 -0.3994  0.0622
 3986W        W46903  16.410  18.511   8.263 -0.0295 -0.2366 -0.3112
 3987W        W46904  15.796  19.300   5.419  0.1356  0.0484 -0.0110
 3988W        W46905  15.482  21.046   1.402  0.2056  0.1085  0.1773
 3989W        W46906  17.002  21.229   4.395  0.0408  0.0161  0.1618
 3990W        W46907  13.369  20.876   2.784  0.1505  0.2327 -0.2417
 3991W        W46908  14.062  20.057   2.007 -0.2625 -0.2516  0.0785
 3992W        W46909  15.689  20.470   3.997 -0.0046 -0.0855  0.0043
 3993W        W46910  14.186  17.348   6.641 -0.2497 -0.0999 -0.0094
 3994W        W46911  15.962  18.233   8.064 -0.1689  0.2111 -0.3731
 3995W        W46912  15.997  18.985   8.322  0.1428  0.2273  0.0035
 3996W        W46913  14.616  19.771   3.635  0.1717 -0.0881  0.0008
 3997W        W46914  16.668  19.592   7.020 -0.1215 -0.0395  0.2162
 3998W        W46915  16.664  18.946   2.359  0.0810 -0.0829  0.0098
 3999W        W46916  19.089  20.238   2.518 -0.0939 -0.0052 -0.1115
 4000W        W46917  15.339  20.299   6.652 -0.2614 -0.1349 -0.1702
 4001W        W46918  17.197  20.742   4.372 -0.2197  0.0010  0.0621
 4002W        W46919  16.092  20.137   3.822  0.1434  0.3112 -0.1344
 4003W        W46920  16.551  18.749   1.677 -0.0535 -0.1913 -0.3209
 4004W        W46921  15.857  20.733   8.194  0.1137  0.0326  0.1401
 4005W        W46922  18.391  20.503   3.329  0.0271 -0.1416 -0.0096
 4006W        W46923  18.256  18.685   5.002 -0.4310 -0.1306  0.0825
 4007W        W46924  13.846  21.455   3.359  0.1763 -0.1403  0.0676
 4008W        W46925  17.514  21.852   3.728  0.0971  0.0081 -0.0685
 4009W        W46926  16.683  20.574   6.944  0.0175  0.2820 -0.0928
 4010W        W46927  15.698  17.921   8.729  0.0242 -0.0315 -0.1327
 4011W        W46928  15.498  20.445   3.365 -0.1424  0.1256  0.1156
 4012W        W46929  17.023  19.492   4.545 -0.0400 -0.1104  0.1502
 4013W        W46930  13.269  20.716   1.243 -0.0829  0.1584  0.2846
 4014W        W46931  17.903  16.258   5.703 -0.1110 -0.0050  0.0496
 4015W        W46932  16.247  19.192   6.271  0.2197  0.2202 -0.0334
 4016W        W46933  16.245  18.374   6.764 -0.1886 -0.0365  0.1109
 4017W        W46934  17.068  19.450   6.656  0.2368  0.1488 -0.0114
 4018W        W46935  17.091  18.748   5.303  0.0546  0.0292 -0.0630
 4019W        W46936  14.813  20.032   4.407  0.0861  0.0561 -0.0045
 4020W        W46937  14.497  20.261   2.907  0.1104  0.1031  0.1486
 4021W        W46938  15.238  18.278   6.530 -0.0859  0.1119 -0.1691
 4022W        W46939  15.503  20.494   7.136 -0.2260  0.4379 -0.1076
 4023W        W46940  13.901  20.478   5.698 -0.0850  0.3236  0.1312
 4024W        W46941  16.167  19.600   7.309 -0.1360 -0.0468  0.1690
 4025W        W46942  16.236  19.887   5.464  0.0308  0.0202  0.0397
 4026W        W46943  17.328  19.158   7.104  0.0913 -0.1903  0.2486
 4027W        W46944  15.176  19.579   4.732 -0.0193 -0.4355  0.1663
 4028W        W46945  16.562  19.626   4.561 -0.0246  0.2153  0.0773
 4029W        W46946  14.710  20.932   1.094 -0.0889 -0.1097 -0.2912
 4030W        W46947  15.621  18.053   6.754 -0.1969 -0.1838  0.3930
 4031W        W46948  15.448  19.804   3.306 -0.0847 -0.1011  0.1405
 4032W        W46949  15.200  20.262   4.056 -0.1238  0.0683  0.0361
 4033W        W46950  15.182  20.037   6.301  0.0625 -0.0175  0.1690
 4034W        W46951  15.025  22.377   1.560 -0.1097 -0.0771  0.2329
 4035W        W46952  16.744  17.312   7.458 -0.1237  0.2244  0.0501
 4036W        W46953  14.095  21.212   7.514  0.0710  0.2028 -0.0711
 4037W        W46954  14.032  21.451   1.284  0.2055 -0.0263  0.0461
 4038W        W46955  13.039  19.917   5.444  0.1378 -0.1409  0.1555
 4039W        W46956  17.586  17.028   4.571 -0.1419 -0.2771  0.0606
 4040W        W46957  17.947  21.541   2.126 -0.0632 -0.2622  0.0024
 4041W        W46958  16.110  18.739   6.407  0.2544  0.2128  0.2605
 4042W        W46959  15.821  19.651   6.412  0.0439  0.0518 -0.2127
 4043W        W46960  14.666  22.362   5.151  0.2336  0.0935 -0.4814
 4044W        W46961  15.875  18.280   5.265 -0.2266  0.2055  0.1401
 4045W        W46962  15.965  18.815   4.633  0.0751 -0.1581  0.0815
 4046W        W46963  15.639  19.609   7.428  0.1522  0.1102 -0.3076
 4047W        W46964  16.340  19.766   8.879  0.0277  0.2846 -0.2301
 4048W        W46965  14.066  19.239   4.282 -0.1379 -0.0977 -0.3108
 4049W        W46966  17.476  18.726   5.571 -0.0119  0.0874  0.2584
 4050W        W46967  15.620  19.972   2.204  0.1979  0.0369 -0.3669
 4051W        W46968  15.165  23.179   1.447  0.0859 -0.1657 -0.1364
 4052W        W46969  16.468  19.470   5.279 -0.2805  0.0935 -0.1642
 4053W        W46970  15.511  20.372   5.018 -0.0074  0.2538 -0.0823
 4054W        W46971  12.712  20.863   3.832  0.1489 -0.1399 -0.1926
 4055W        W46972  15.960  19.421   7.778  0.2669  0.4709  0.0350
 4056W        W46973  16.201  22.165   5.642 -0.2720 -0.2483  0.3098
 4057W        W46974  16.502  19.954   5.000  0.2379 -0.1261  0.2348
 4058W        W46975  14.746  17.072   6.618  0.0116  0.3024  0.0376
 4059W        W46976  14.706  20.153   5.461  0.0566  0.2068 -0.0019
 4060W        W46977  16.787  20.227   6.402  0.0153 -0.0522 -0.2988
 4061W        W46978  16.834  18.295   5.940 -0.1962 -0.3921  0.1190
 4062W        W46979  15.149  22.983   7.649  0.2944  0.3234  0.0053
 4063W        W46980  15.643  18.181   6.040 -0.0574  0.1610 -0.1221
 4064W        W46981  18.821  21.344   2.646 -0.2335  0.1909  0.3677
 4065W        W46982  16.552  19.284   6.646 -0.0992  0.1424  0.0576
 4066W        W46983  15.371  18.900   3.359  0.1306  0.0483 -0.1513
 4067W        W46984  15.027  18.809   7.372  0.2356 -0.0786 -0.2079
 4068W        W46985  14.206  21.942   2.542  0.1650 -0.2164 -0.1875
 4069W        W46986  16.490  18.380   6.319 -0.0396  0.0923  0.1142
 4070W        W46987  15.525  21.096   5.824  0.0382  0.0132 -0.2962
 4071W        W46988  14.654  23.291   2.525  0.4738  0.1649  0.1636
 4072W        W46989  15.966  20.771   5.694 -0.0442 -0.0012  0.4164
 4073W        W46990  18.328  20.004   3.074  0.2017 -0.1567  0.0430
 4074W        W46991  16.395  21.748   1.638  0.0950  0.0562  0.1838
 4075W        W46992  17.820  20.203   4.920 -0.1873  0.0141  0.0616
 4076W        W46993  17.341  19.758   4.298 -0.1416 -0.3032 -0.1268
 4077W        W46994  18.035  21.770   4.397  0.0380  0.2146  0.2431
 4078W        W46995  17.732  16.507   6.269  0.0279  0.1859 -0.1071
 4079W        W46996  15.603  19.444   9.732 -0.0109  0.3104 -0.1079
 4080W        W46997  15.545  21.791   2.003 -0.1002 -0.0155  0.2258
 4081W        W46998  16.401  19.151   7.182 -0.1547 -0.1416  0.0786
 4082W        W46999  16.831  21.393   8.351  0.0226  0.0640  0.0529
 4083W        W47000  14.782  19.701   7.542 -0.0474  0.2602  0.3008
 4084W        W47001  13.910  18.525   3.773 -0.0367 -0.1770  0.0563
 4085W        W47002  13.718  19.353   3.425  0.2456 -0.1581  0.0404
 4086W        W47003  15.829  21.300   6.461 -0.0808 -0.1702  0.1654
 4087W        W47004  17.149  19.802   5.889  0.2585 -0.2320  0.0459
 4088W        W47005  15.765  19.255   4.915 -0.0015 -0.0070 -0.2115
 4089W        W47006  15.328  18.704   4.234  0.0177  0.0273 -0.1293
 4090W        W47007  14.775  21.234   5.055 -0.0902  0.1889 -0.0034
 4091W        W47008  15.281  19.711   2.748 -0.0509 -0.0199  0.2164
 4092W        W47009  13.987  22.266   1.660 -0.1505  0.1173 -0.0994
 4093W        W47010  15.748  19.835   2.899 -0.1627 -0.3256  0.3672
 4094W        W47011  16.130  18.498  11.292  0.0682 -0.1133 -0.1057
 4095W        W47012  16.855  19.765   4.054 -0.3526 -0.0654  0.3762
 4096W        W47013  15.160  17.735   6.698 -0.0127 -0.1208 -0.3084
 4097W        W47014  16.986  18.125   6.523  0.1562 -0.1820  0.2236
 4098W        W47015  17.144  20.118   7.642  0.2460 -0.0326  0.0342
 4099W        W47016  14.925  19.446   6.775  0.1584 -0.0870 -0.0522
 4100W        W47017  14.087  18.557   7.409 -0.0322 -0.0746  0.1942
 4101W        W47018  16.442  21.719   6.092  0.0603  0.0387  0.2896
 4102W        W47019  15.094  18.105   3.735 -0.1617 -0.0830 -0.1095
 4103W        W47020  17.450  17.553   5.368 -0.2762  0.1705  0.1265
 4104W        W47021  17.403  19.551   4.925 -0.3640 -0.1609  0.2414
 4105W        W47022  17.178  20.793   3.079 -0.1637 -0.0784  0.0999
 4106W        W47023  16.830  19.100   6.260 -0.0921 -0.2743  0.0822
 4107W        W47024  16.550  18.631   7.108  0.0191  0.1551  0.0799
 4108W        W47025  14.628  19.508   4.436 -0.0038 -0.1235 -0.0325
 4109W        W47026  17.968  17.601   8.086 -0.0715 -0.1408  0.1148
 4110W        W47027  15.277  20.309   4.532  0.1548 -0.1718 -0.0791
 4111W        W47028  17.544  21.056   4.503  0.0896  0.2832  0.0036
 4112W        W47029  16.051  18.241   3.516 -0.2266  0.1448  0.0867
 4113W        W47030  13.754  18.894   4.969 -0.1452  0.3330 -0.0385
 4114W        W47031  16.274  20.708   7.938 -0.0462  0.2101 -0.2405
 4115W        W47032  13.468  19.231   5.287  0.1923  0.1960  0.0512
 4116W        W47033  15.042  22.960   2.437  0.2713  0.1898 -0.1252
 4117W        W47034  16.357  20.089   5.934  0.1592  0.1426 -0.1988
 4118W        W47035  16.471  19.349   7.664 -0.1721  0.1778  0.2314
 4119W        W47036  13.243  19.562   4.114  0.4274  0.2805  0.2874
 4120W        W47037  18.139  18.149   7.857  0.0293 -0.0613 -0.1190
 4121W        W47038  14.860  20.943   4.589 -0.1077 -0.3199 -0.2718
 4122W        W47039  15.848  17.913   2.483  0.2459 -0.2712 -0.1290
 4123W        W47040  15.776  20.882   6.939  0.2477  0.1015  0.1334
 4124W        W47041  15.213  20.768   5.005 -0.0643  0.1685 -0.2205
 4125W        W47042  14.833  20.536   4.348  0.0555  0.3314  0.2484
 4126W        W47043  16.137  18.950   7.686  0.0856  0.0095  0.0721
 4127W        W47044  16.644  19.142   4.674 -0.3529  0.0235  0.2142
 4128W        W47045  14.543  20.803   5.030  0.0306  0.1118  0.0819
 4129W        W47046  17.382  19.241   4.342  0.2587  0.1192 -0.0155
 4130W        W47047  18.471  20.720   5.376 -0.1376 -0.3151 -0.0614
 4131W        W47048  13.935  20.213   4.721 -0.0552  0.0339 -0.0506
 4132W        W47049  15.199  21.949   5.853 -0.2752  0.0693  0.1580
 4133W        W47050  15.979  21.466   6.038  0.2504 -0.1171  0.0642
 4134W        W47051  16.705  19.893   5.468  0.2538 -0.0623  0.4317
 4135W        W47052  13.839  18.502   8.244 -0.0542 -0.4019 -0.0417
 4136W        W47053  15.105  20.074   7.131  0.0958  0.0773 -0.0472
 4137W        W47054  17.336  18.256   5.444  0.2022  0.3397  0.1444
 4138W        W47055  15.525  18.237   4.304  0.2298 -0.1022  0.2742
 4139W        W47056  16.526  20.957   3.230 -0.0404  0.2184 -0.0739
 4140W        W47057  17.172  21.096   7.066  0.2166  0.0383  0.1346
 4141W        W47058  14.155  20.062   6.051 -0.1292 -0.1255 -0.2294
 4142W        W47059  15.080  21.021   0.531 -0.0184  0.2037 -0.2856
 4143W        W47060  17.085  20.957   3.946 -0.1550 -0.0372 -0.0328
 4144W        W47061  17.237  19.988   5.141  0.1161  0.0794  0.1631
 4145W        W47062  15.886  20.374   5.976 -0.1874 -0.1961 -0.0385
 4146W        W47063  15.973  18.314   2.775  0.2485  0.3201 -0.6359
 4147W        W47064  15.433  20.575   5.448 -0.0711  0.1706  0.2798
 4148W        W47065  13.461  22.903   3.135  0.1860 -0.2246  0.2037
 4149W        W47066  18.000  20.749   2.487  0.1827  0.3389  0.0898
 4150W        W47067  15.866  22.755   3.010  0.0739  0.2224 -0.0472
 4151W        W47068  16.456  19.995   6.936 -0.1433 -0.0665  0.2350
 4152W        W47069  15.599  20.587   1.430  0.0042  0.2652  0.0611
 4153W        W47070  18.933  19.811   4.420 -0.2027  0.0201 -0.4113
 4154W        W47071  17.451  18.874   4.049  0.1605 -0.0706 -0.1776
 4155W        W47072  16.981  19.971   6.826  0.1631 -0.1142 -0.2278
 4156W        W47073  15.722  18.773   5.105 -0.0848 -0.0515  0.0898
 4157W        W47074  15.688  19.426   2.509 -0.0533 -0.2787 -0.0400
 4158W        W47075  14.440  20.190   4.783  0.0643  0.0603 -0.3557
 4159W        W47076  17.232  18.997   6.586  0.2009  0.0790  0.2056
 4160W        W47077  14.549  19.487   9.370  0.0334 -0.1205 -0.2987
 4161W        W47078  19.102  21.500   3.089 -0.2122  0.1535  0.1080
 4162W        W47079  14.637  20.928   1.864  0.3710 -0.1376 -0.2394
 4163W        W47080  15.352  21.291   6.399 -0.0308 -0.0571  0.2114
 4164W        W47081  18.290  18.418   5.980 -0.0824  0.2004  0.0286
 4165W        W47082  15.110  20.022   3.587 -0.0793 -0.1905 -0.0957
 4166W        W47083  16.637  18.919   3.829 -0.0780 -0.0851 -0.0332
 4167W        W47084  13.730  21.232   3.912 -0.3219 -0.1258  0.1557
 4168W        W47085  14.777  19.314   4.956 -0.2050  0.0486 -0.1107
 4169W        W47086  16.211  21.037   5.224 -0.0840 -0.0532  0.0248
 4170W        W47087  13.703  20.701   4.579  0.2711 -0.0820  0.4651
 4171W        W47088  17.584  18.632   6.466  0.4290 -0.1516 -0.3516
 4172W        W47089  16.079  18.981   6.839  0.0920  0.0948 -0.1778
 4173W        W47090  16.476  17.498   5.355  0.3247  0.0566  0.2573
 4174W        W47091  15.051  20.391   5.910  0.1342 -0.0043  0.3832
 4175W        W47092  16.702  20.201   2.309 -0.0569 -0.2436 -0.0502
 4176W        W47093  15.656  20.090   6.302 -0.0380  0.0687 -0.0621
 4177W        W47094  15.641  19.013   7.915  0.3400  0.0690  0.3211
 4178W        W47095  16.432  20.060   3.200 -0.1026  0.1493 -0.0052
 4179W        W47096  17.577  19.978   7.428 -0.1391 -0.1237  0.0870
 4180W        W47097  19.926  20.117   0.895  0.1826  0.0892 -0.1210
 4181W        W47098  17.139  20.499   6.026  0.2599 -0.2082  0.1476
 4182W        W47099  16.898  19.576   5.012  0.0110 -0.1196 -0.0214
 4183W        W47100  14.674  18.436   4.033  0.1145  0.2368  0.1930
 4184W        W47101  13.939  20.270   5.221 -0.4126  0.2734  0.0431
 4185W        W47102  14.947  18.462   5.591  0.1913 -0.1865  0.1342
 4186W        W47103  15.804  20.263   5.484 -0.4525 -0.3310  0.0799
 4187W        W47104  15.062  18.391   6.063  0.1413 -0.1153 -0.0782
 4188W        W47105  17.241  21.222   2.679 -0.0005  0.0053  0.0454
 4189W        W47106  16.475  18.828   6.030  0.1402 -0.1214  0.0326
 4190W        W47107  15.068  21.999   2.806 -0.5580 -0.1292  0.0055
 4191W        W47108  16.762  20.434   3.001 -0.1467 -0.1593 -0.4094
 4192W        W47109  15.259  21.320   5.087 -0.0744  0.2209 -0.3330
 4193W        W47110  14.770  18.057   6.559  0.0805 -0.0434  0.2345
 4194W        W47111  16.410  21.863   5.196  0.2810  0.0373  0.1100
 4195W        W47112  17.686  20.890   6.829 -0.1866 -0.1335  0.0104
 4196W        W47113  16.805  18.473   4.259  0.2794 -0.0868  0.0817
 4197W        W47114  14.336  19.178   2.436 -0.1609 -0.2852  0.0031
 4198W        W47115  14.359  21.667   4.721  0.3354 -0.0860 -0.0712
 4199W        W47116  16.335  17.191   7.675 -0.2883 -0.0350  0.1034
 4200W        W47117  17.171  19.659   7.223  0.1356 -0.2098 -0.1029
 4201W        W47118  16.196  20.106   2.671  0.0400 -0.0773 -0.0964
 4202W        W47119  17.491  16.828   6.567 -0.2930 -0.1405  0.0495
 4203W        W47120  14.896  21.511   5.458 -0.2291 -0.1996  0.0742
 4204W        W47121  16.287  21.450   6.555  0.0353 -0.0395 -0.2380
 4205W        W47122  14.370  19.822   2.543 -0.2789  0.0138  0.1190
 4206W        W47123  15.392  19.615   6.125  0.0140 -0.3148  0.2556
 4207W        W47124  15.902  20.641   5.178 -0.1689 -0.0115  0.1749
 4208W        W47125  14.908  20.338   4.927  0.2072  0.1985 -0.2785
 4209W        W47126  16.123  19.841   4.472 -0.1767  0.2823  0.5567
 4210W        W47127  16.738  20.546   4.598 -0.1060 -0.1159 -0.2370
 4211W        W47128  18.289  19.383   6.095  0.0351 -0.0077  0.1731
 4212W        W47129  15.604  19.184   4.446  0.0304  0.2141  0.0491
 4213W        W47130  19.262  20.527   1.678 -0.1574  0.0222  0.0637
 4214W        W47131  15.508  18.561   1.599  0.3255 -0.0143  0.1790
 4215W        W47132  15.121  19.122   6.368 -0.0010  0.2339 -0.0024
 4216W        W47133  13.591  21.307   2.353 -0.1920  0.0904 -0.0496
 4217W        W47134  15.734  19.960   4.225  0.3472  0.2655  0.0539
 4218W        W47135  14.846  20.616   6.367 -0.2536  0.0149 -0.2829
 4219W        W47136  17.543  19.184   7.610  0.2040  0.1166  0.1865
 4220W        W47137  14.612  19.343   7.914 -0.1086  0.1774  0.0653
 4221W        W47138  15.357  20.812   6.688 -0.0167  0.1747 -0.1968
 4222W        W47139  13.037  21.040   3.516 -0.0286 -0.0013  0.0939
 4223W        W47140  17.960  20.231   3.359  0.2082  0.3099 -0.1053
 4224W        W47141  14.583  16.633   6.262 -0.2169 -0.1862 -0.1508
 4225W        W47142  14.019  19.127   5.328 -0.2757 -0.0583  0.1513
 4226W        W47143  17.655  20.987   3.923  0.0925 -0.0306  0.0518
 4227W        W47144  16.895  21.165   5.284  0.1061  0.2483  0.2827
 4228W        W47145  16.194  19.190   3.476 -0.1209 -0.0111 -0.0742
 4229W        W47146  17.284  20.903   5.547 -0.1920  0.0741 -0.3199
 4230W        W47147  15.305  19.408   2.181 -0.0630  0.2926 -0.0739
 4231W        W47148  16.640  18.763   7.637 -0.1134 -0.3250 -0.1347
 4232W        W47149  15.970  18.093   7.101  0.1931 -0.3039  0.1399
 4233W        W47150  14.089  19.537   2.831  0.0107  0.2624 -0.0914
 4234W        W47151  15.196  17.927   6.197 -0.1635  0.1662 -0.2271
 4235W        W47152  16.658  20.780   5.079  0.1946 -0.0069 -0.2451
 4236W        W47153  19.721  19.477   1.566  0.0499  0.0060 -0.0113
 4237W        W47154  15.571  19.944   7.079 -0.2108  0.1291 -0.0304
 4238W        W47155  15.053  20.933   5.967 -0.2643  0.1056 -0.2946
 4239W        W47156  13.812  19.133   9.682  0.0002  0.1075 -0.2087
 4240W        W47157  17.840  19.072   2.817  0.0023  0.0497 -0.1441
 4241W        W47158  15.331  21.948   5.215 -0.3326  0.1262 -0.0674
 4242W        W47159  16.003  23.446   7.620 -0.1826  0.1804  0.0452
 4243W        W47160  16.918  18.955   4.279  0.4440  0.1186  0.2348
 4244W        W47161  15.643  19.647   4.607 -0.0401 -0.0171  0.0255
 4245W        W47162  15.408  17.663   7.390 -0.0780  0.0323 -0.0544
 4246W        W47163  13.879  21.688   5.126 -0.0037  0.0416 -0.2679
 4247W        W47164  17.351  20.527   5.232  0.0092  0.2583 -0.1497
 4248W        W47165  14.300  17.695   6.224 -0.1869  0.2598 -0.0884
 4249W        W47166  15.686  18.632   1.145  0.0526 -0.3510  0.0940
 4250W        W47167  15.643  22.295   1.637  0.0991  0.1326 -0.1157
 4251W        W47168  16.334  19.773   6.493  0.1363 -0.1631 -0.3722
 4252W        W47169  16.017  19.750   2.345 -0.1525  0.0503 -0.0018
 4253W        W47170  15.996  20.126   7.252  0.1402  0.0575 -0.1059
 4254W        W47171  17.153  20.251   5.546 -0.2861 -0.2152  0.1389
 4255W        W47172  15.470  20.139   5.843  0.2017 -0.2823 -0.0915
 4256W        W47173  16.527  20.107   1.638  0.0400  0.1621  0.0726
 4257W        W47174  19.823  22.070   5.525  0.0274 -0.4731  0.0304
 4258W        W47175  15.253  19.875   7.630  0.0452 -0.1369  0.1900
 4259W        W47176  17.412  20.835   8.472  0.4431  0.1640  0.0214
 4260W        W47177  15.789  22.440   5.447  0.0120  0.3351 -0.0566
 4261W        W47178  16.916  19.206   5.336  0.1695  0.1080 -0.1779
 4262W        W47179  14.511  18.611   7.151  0.0850 -0.4007  0.3283
 4263W        W47180  15.483  18.618   4.691 -0.2049 -0.0692  0.2865
 4264W        W47181  17.599  19.531   5.800 -0.1138 -0.1781  0.0133
 4265W        W47182  16.988  18.531   6.808  0.0800  0.2301  0.0454
 4266W        W47183  16.834  19.347   5.832  0.2698 -0.0020 -0.0370
 4267W        W47184  16.387  18.873   4.254 -0.1483  0.0877 -0.0789
 4268W        W47185  14.832  20.169   7.702  0.2525  0.0801  0.0270
 4269W        W47186  16.776  19.673   6.258 -0.1779  0.0284  0.2083
 4270W        W47187  14.730  20.640  10.024 -0.1721 -0.1014  0.2524
 4271W        W47188  15.044  19.221   8.707  0.1468  0.0855  0.2564
 4272W        W47189  17.048  19.509   9.763  0.1608 -0.2182  0.1907
 4273W        W47190  17.012  20.098   8.445  0.3208 -0.2914  0.1839
 4274W        W47191  15.350  20.520  10.686 -0.3491 -0.2648 -0.3597
 4275W        W47192  15.730  20.236   7.731  0.1343  0.3561  0.3194
 4276W        W47193  17.825  21.007   9.365 -0.1549 -0.0066 -0.0067
 4277W        W47194  15.302  22.095   9.963  0.1921 -0.0046  0.2758
 4278W        W47195  16.766  19.689   8.744  0.0763 -0.2361 -0.0988
 4279W        W47196  17.092  22.158   8.831 -0.3107 -0.1646  0.2013
 4280W        W47197  16.824  18.610   9.122  0.0063  0.0680 -0.1925
 4281W        W47198  13.781  18.354  10.646  0.2118 -0.3394  0.1519
 4282W        W47199  16.995  20.062  10.008  0.2819 -0.0830 -0.0344
 4283W        W47200  15.177  22.338   7.591  0.0860  0.2563 -0.3718
 4284W        W47201  18.634  18.444   9.579  0.2234 -0.0425  0.2662
 4285W        W47202  14.361  20.030  11.110 -0.0416 -0.0888  0.1311
 4286W        W47203  16.842  20.493   7.578  0.2821  0.2409  0.2761
 4287W        W47204  16.212  19.236   9.998  0.1967  0.1494  0.2093
 4288W        W47205  16.061  21.445   8.928  0.1376 -0.1057  0.2372
 4289W        W47206  13.680  19.332  10.896  0.5057 -0.0219 -0.4788
 4290W        W47207  15.403  19.684   9.242  0.2556  0.2701  0.0824
 4291W        W47208  16.919  23.103   9.708 -0.2365 -0.1032  0.0043
 4292W        W47209  17.860  18.579  10.078  0.3262  0.0182  0.1303
 4293W        W47210  18.236  19.840   8.621  0.1731  0.0249  0.1095
 4294W        W47211  15.237  18.664  10.451  0.0842  0.3030  0.1648
 4295W        W47212  15.028  21.096   9.956  0.0083 -0.0154 -0.0522
 4296W        W47213  12.685  21.782   8.359  0.2174 -0.0677 -0.2815
 4297W        W47214  14.230  21.310   9.445  0.1138 -0.1212  0.1246
 4298W        W47215  15.419  21.608   8.896  0.0738  0.2834  0.0087
 4299W        W47216  16.769  20.181   7.252 -0.0204 -0.3980  0.0560
 4300W        W47217  15.012  20.970   7.695 -0.1507 -0.0365 -0.1250
 4301W        W47218  19.555  21.668   9.334 -0.0356 -0.0422 -0.3517
 4302W        W47219  14.404  20.246  10.270 -0.3060 -0.1188  0.1276
 4303W        W47220  15.418  21.005   8.205  0.0439  0.0948  0.0075
 4304W        W47221  15.550  20.901  10.968  0.1473 -0.1187  0.1985
 4305W        W47222  15.195  20.098  10.180 -0.2072  0.0143  0.2687
 4306W        W47223  15.312  22.647   6.760  0.2902 -0.1151 -0.0465
 4307W        W47224  14.635  17.292   7.940 -0.1349  0.1168 -0.2330
 4308W        W47225  14.691  19.080   8.314 -0.1501 -0.0422  0.2863
 4309W        W47226  18.422  18.623   8.010 -0.1171 -0.1538 -0.0461
 4310W        W47227  16.038  16.614   9.624 -0.3227 -0.1271 -0.0262
 4311W        W47228  15.094  20.669   8.958  0.4260 -0.2316  0.1414
 4312W        W47229  13.874  19.785  10.954  0.2413  0.3983  0.3727
 4313W        W47230  17.476  21.361   9.036 -0.0165  0.2878 -0.2396
 4314W        W47231  16.138  19.234  11.180 -0.0936 -0.2954 -0.0637
 4315W        W47232  15.430  23.734   9.093  0.2544  0.1084  0.0884
 4316W        W47233  14.745  17.413  10.209 -0.1635 -0.1755 -0.0676
 4317W        W47234  15.372  23.219   5.613  0.0721  0.0033  0.2556
 4318W        W47235  16.734  20.280   8.840 -0.2017 -0.0784 -0.0259
 4319W        W47236  17.598  20.409   6.849  0.0703 -0.0258 -0.2570
 4320W        W47237  15.002  20.150   8.322  0.0055  0.0160  0.2495
 4321W        W47238  15.560  17.546   6.909 -0.1167 -0.4135  0.1846
 4322W        W47239  17.730  18.796   7.271  0.0297 -0.2504  0.0985
 4323W        W47240  16.599  19.869   9.259  0.1650  0.0770 -0.2661
 4324W        W47241  18.528  19.265   9.230  0.3033 -0.0802 -0.1759
 4325W        W47242  15.689  19.985   9.532  0.3795  0.1011  0.1608
 4326W        W47243  17.281  18.758   8.863  0.1760  0.0789 -0.0792
 4327W        W47244  19.472  19.557   9.685 -0.2108 -0.1648 -0.2233
 4328W        W47245  16.411  19.339   8.512  0.1204  0.1306  0.0814
 4329W        W47246  16.866  19.881   8.007  0.0953 -0.3135  0.4192
 4330W        W47247  16.880  20.971  10.449  0.0917 -0.1868  0.0291
 4331W        W47248  16.868  19.277   7.402  0.1691  0.0892  0.0547
 4332W        W47249  15.485  22.329   7.110 -0.1215  0.0797  0.1349
 4333W        W47250  15.416  21.393   6.833 -0.3986 -0.4263  0.1601
 4334W        W47251  13.779  20.777   7.458  0.0704  0.1602 -0.0660
 4335W        W47252  16.014  21.439   7.503 -0.0785  0.2079 -0.0823
 4336W        W47253  17.314  16.560   9.322 -0.1217  0.0894 -0.0903
 4337W        W47254  17.017  19.380  11.086 -0.2139 -0.0624 -0.3655
 4338W        W47255  17.375  17.532   9.308 -0.0223 -0.0247  0.0543
 4339W        W47256  18.807  16.820   9.861 -0.2532  0.2104 -0.0381
 4340W        W47257  13.235  20.681   8.688  0.0789  0.1968 -0.1968
 4341W        W47258  16.277  21.019   7.449 -0.1781 -0.0408  0.0130
 4342W        W47259  17.712  19.498   7.250 -0.0819  0.0017  0.0118
 4343W        W47260  15.960  22.499   6.009 -0.2885 -0.0882 -0.0961
 4344W        W47261  15.092  19.325   9.502  0.0505 -0.1016 -0.2156
 4345W        W47262  15.834  18.654  10.394 -0.0875 -0.0339 -0.2729
 4346W        W47263  18.073  19.755  10.105  0.3150  0.2835 -0.0258
 4347W        W47264  16.339  18.360   9.452 -0.0813  0.0315 -0.0643
 4348W        W47265  18.504  18.661   9.029 -0.1351  0.0710 -0.0040
 4349W        W47266  16.426  17.976   9.157 -0.1122  0.0304  0.1171
 4350W        W47267  14.851  19.919   9.422 -0.0014 -0.1026  0.2479
 4351W        W47268  15.744  21.782   8.463 -0.1435  0.1118  0.1443
 4352W        W47269  20.076  20.772   8.777 -0.2361  0.1066 -0.1140
 4353W        W47270  14.512  20.352  10.768  0.0029 -0.2422  0.1815
 4354W        W47271  15.706  19.788  10.476 -0.0469  0.4114  0.4697
 4355W        W47272  15.417  19.924   8.810  0.2869  0.1324 -0.0079
 4356W        W47273  13.906  23.708   9.452 -0.0876 -0.1690 -0.0798
 4357W        W47274  17.220  19.306  10.206 -0.0951  0.5097 -0.1331
 4358W        W47275  16.484  18.379   8.788 -0.2210 -0.1618 -0.0725
 4359W        W47276  18.378  21.487   7.363  0.1525  0.0458  0.0287
 4360W        W47277  14.899  20.186   8.837  0.2878 -0.1499 -0.2555
 4361W        W47278  19.226  18.125   8.832 -0.0258 -0.0731  0.0779
 4362W        W47279  18.066  22.892   8.841  0.0753  0.0395  0.3602
 4363W        W47280  14.731  17.654   7.222  0.2517  0.2173 -0.2054
 4364W        W47281  16.776  21.932   8.418  0.2501 -0.0756  0.4627
 4365W        W47282  14.492  21.307   8.997 -0.1132  0.1667 -0.3324
 4366W        W47283  14.355  18.380  10.918 -0.0073  0.0908  0.0877
 4367W        W47284  15.880  19.893   9.044  0.3507  0.1978 -0.2735
 4368W        W47285  21.020  17.615  10.925  0.3080  0.1735 -0.1881
 4369W        W47286  14.277  20.352   9.129  0.0953  0.2062  0.3191
 4370W        W47287  17.046  18.757   7.314  0.1906  0.1073 -0.1464
 4371W        W47288  16.893  17.591   6.747 -0.0511 -0.1330 -0.0838
 4372W        W47289  17.148  20.999   8.108  0.2331  0.3549 -0.0911
 4373W        W47290  17.170  18.956   7.841 -0.1655 -0.0726 -0.0519
 4374W        W47291  17.286  18.217   7.133  0.1126  0.2032 -0.1361
 4375W        W47292  16.456  20.213   9.842  0.0701 -0.0903 -0.2176
 4376W        W47293  17.445  19.907   9.892 -0.0029  0.1844  0.2563
 4377W        W47294  16.904  19.109   8.810  0.0598 -0.4806  0.1384
 4378W        W47295  16.290  21.017   9.067 -0.0337  0.1076  0.0878
 4379W        W47296  13.693  21.618   8.390  0.2206 -0.1269  0.0963
 4380W        W47297  18.251  20.950   9.560 -0.1297  0.0744  0.2549
 4381W        W47298  15.736  15.156   8.859 -0.5027  0.2127 -0.1643
 4382W        W47299  16.273  18.420   7.710 -0.3310  0.1841  0.0111
 4383W        W47300  18.316  16.778  10.451 -0.2691 -0.3358 -0.1915
 4384W        W47301  13.356  21.306   8.258  0.4153 -0.0656 -0.0577
 4385W        W47302  15.219  22.580   8.868  0.0333 -0.0420 -0.1010
 4386W        W47303  19.273  18.681   9.731  0.0080  0.1518 -0.2026
 4387W        W47304  18.069  18.348   7.413  0.2250  0.1542 -0.0977
 4388W        W47305  17.973  20.213  10.354  0.1047  0.0599  0.2149
 4389W        W47306  14.192  19.491   6.254 -0.1469 -0.1603 -0.0032
 4390W        W47307  19.520  18.665  10.219  0.0522  0.0707 -0.0614
 4391W        W47308  13.724  19.952  10.392 -0.4028 -0.2656 -0.0488
 4392W        W47309  16.910  20.501   9.857 -0.4011  0.2357 -0.0584
 4393W        W47310  15.791  18.783   9.059  0.2463  0.1277  0.1477
 4394W        W47311  14.718  20.948   8.067  0.0320 -0.4488  0.0197
 4395W        W47312  16.709  21.195   6.704 -0.0080  0.0576  0.0520
 4396W        W47313  16.129  17.210  10.170  0.1438 -0.1727  0.0386
 4397W        W47314  18.492  20.196  10.296 -0.2365 -0.0450  0.2518
 4398W        W47315  16.299  21.112   6.970 -0.1980  0.1352  0.1975
 4399W        W47316  15.381  20.266   9.203 -0.1085  0.0691  0.0012
 4400W        W47317  14.981  21.122   8.886  0.1310  0.1140  0.0272
 4401W        W47318  17.508  18.027  10.153  0.1724  0.0077 -0.0575
 4402W        W47319  13.820  21.396   9.195 -0.0096  0.0730 -0.2728
 4403W        W47320  15.207  17.930   9.020 -0.3102  0.2533  0.2437
 4404W        W47321  14.177  19.816   8.589  0.2376  0.1977  0.3666
 4405W        W47322  15.007  20.171  10.929  0.0069  0.2157  0.0381
 4406W        W47323  15.982  21.939   6.062 -0.1010  0.0046 -0.2250
 4407W        W47324  15.130  16.800   9.929  0.0701 -0.0212 -0.1884
 4408W        W47325  16.177  17.844  10.772 -0.0479 -0.0640 -0.0058
 4409W        W47326  14.045  20.172  10.735  0.1724 -0.1815  0.4986
 4410W        W47327  16.418  17.902   7.522  0.0628 -0.0706 -0.3561
 4411W        W47328  14.080  19.001   7.087  0.1850  0.2694  0.0701
 4412W        W47329  17.998  19.891   9.487  0.0317  0.2136 -0.1021
 4413W        W47330  14.483  19.372  11.019 -0.3122  0.0175 -0.3256
 4414W        W47331  16.254  21.729   7.059  0.0073 -0.1150 -0.1312
 4415W        W47332  15.938  23.626   9.020 -0.0518 -0.2998 -0.2435
 4416W        W47333  15.698  19.375   8.312 -0.3481 -0.2758  0.0594
 4417W        W47334  13.792  20.608   9.302 -0.0467 -0.2026  0.0936
 4418W        W47335  17.397  19.701  10.434 -0.0241  0.1214 -0.1584
 4419W        W47336  14.165  18.090   9.160  0.2028  0.2288 -0.2288
 4420W        W47337  17.144  17.407   8.834 -0.2181 -0.1238  0.3210
 4421W        W47338  18.607  19.639   9.569 -0.2120  0.1170  0.0089
 4422W        W47339  16.246  24.103   9.310  0.1465 -0.1376 -0.1184
 4423W        W47340  17.961  18.715   7.772 -0.1767  0.2065  0.0583
 4424W        W47341  17.675  18.355   9.661  0.1735 -0.0927  0.1280
 4425W        W47342  17.578  22.151   8.467 -0.0916 -0.6250  0.1892
 4426W        W47343  15.187  20.318   9.694 -0.1981  0.3780  0.0822
 4427W        W47344  15.469  21.161   8.667 -0.0120 -0.1357  0.1784
 4428W        W47345  14.911  20.729   8.511 -0.1802  0.1864  0.0873
 4429W        W47346  16.064  20.601   9.223  0.0819 -0.1214 -0.1173
 4430W        W47347  15.943  21.056   7.805 -0.4478 -0.0567  0.0451
 4431W        W47348  15.583  20.862  10.396 -0.1717  0.4359  0.1501
 4432W        W47349  16.713  19.309  10.139 -0.2883  0.0492  0.0055
 4433W        W47350  16.622  17.432   7.977 -0.2165  0.0237  0.0294
 4434W        W47351  16.333  18.830   9.069  0.0820 -0.1601 -0.4393
 4435W        W47352  19.088  18.145   9.528  0.1230 -0.0569 -0.1424
 4436W        W47353  16.254  19.981   7.703  0.0740 -0.1468 -0.1828
 4437W        W47354  15.225  18.153  10.506 -0.0568  0.1814 -0.0002
 4438W        W47355  17.484  21.748   7.444  0.0627 -0.1481 -0.1278
 4439W        W47356  16.840  19.082   9.338 -0.2424 -0.3509  0.0299
 4440W        W47357  16.903  18.469   8.518  0.0981  0.1991 -0.2190
 4441W        W47358  13.428  20.325   9.038 -0.3614  0.0386  0.2129
 4442W        W47359  16.245  20.667   9.742  0.1756 -0.0321  0.0875
 4443W        W47360  15.515  19.644   7.976 -0.1037 -0.1858  0.0711
 4444W        W47361  17.782  19.578  10.806 -0.1705 -0.1396  0.3529
 4445W        W47362  13.776  21.308   9.995  0.1396 -0.0667  0.2184
 4446W        W47363  18.952  18.621   8.157 -0.0411 -0.2971  0.0948
 4447W        W47364  16.500  19.314   9.050 -0.1081  0.1451  0.3444
 4448W        W47365  14.793  19.628   8.505 -0.0762 -0.0330  0.1626
 4449W        W47366  18.953  18.912   9.144  0.1242  0.2930  0.2295
 4450W        W47367  15.415  19.069  10.132 -0.0137  0.2510  0.0931
 4451W        W47368  18.945  19.657  10.001 -0.4621 -0.1840  0.1841
 4452W        W47369  17.546  19.112   8.608  0.0953  0.2524  0.1216
 4453W        W47370  17.792  20.679   9.964  0.0679  0.1951 -0.0678
 4454W        W47371  17.743  18.139   8.494  0.5448  0.2207  0.1092
 4455W        W47372  17.517  19.957   9.382  0.1842 -0.3389  0.2403
 4456W        W47373  13.872  20.420  10.300  0.0429 -0.0447 -0.1152
 4457W        W47374  14.187  20.368   7.659  0.3632 -0.2158 -0.1671
 4458W        W47375  16.339  21.244   8.064  0.0413 -0.1514 -0.0181
 4459W        W47376  16.473  20.039  10.752 -0.0947  0.0504  0.1776
 4460W        W47377  18.648  19.173  10.132  0.1009 -0.0550 -0.0159
 4461W        W47378  17.702  18.372  10.487  0.1257 -0.0796 -0.3377
 4462W        W47379  15.619  18.688   9.826  0.1955  0.0084  0.1597
 4463W        W47380  15.526  19.375   8.861  0.0227 -0.0475  0.0055
 4464W        W47381  15.866  21.935  10.178 -0.2265 -0.1426  0.5134
 4465W        W47382  16.168  17.771   9.520 -0.1813 -0.0711 -0.3951
 4466W        W47383  15.077  22.058   7.215 -0.1130 -0.1617 -0.0231
 4467W        W47384  18.925  18.381   9.982  0.1473  0.0500  0.0972
 4468W        W47385  12.722  20.496   8.432 -0.4126  0.0231  0.0693
 4469W        W47386  16.190  20.132   9.414  0.0400 -0.1125  0.1940
 4470W        W47387  17.239  16.902   8.999  0.1005  0.4080  0.0200
 4471W        W47388  17.675  18.602   9.252  0.1943  0.3429 -0.2038
 4472W        W47389  17.327  19.236  10.693  0.0646  0.1031  0.1520
 4473W        W47390  13.435  18.903   7.785  0.0183  0.0744  0.1441
 4474W        W47391  17.609  18.879   8.097 -0.1267 -0.2838  0.0383
 4475W        W47392  15.374  20.452   8.631 -0.0924 -0.1914 -0.4177
 4476W        W47393  17.437  20.389   9.617  0.0143 -0.0953  0.1729
 4477W        W47394  17.312  18.057   9.297  0.3429  0.2518 -0.0214
 4478W        W47395  15.603  20.372  10.324 -0.0326 -0.2440  0.3465
 4479W        W47396  13.221  19.447   9.849  0.3843 -0.1287  0.2387
 4480W        W47397  13.859  20.967   9.599 -0.1773  0.4065  0.2874
 4481W        W47398  18.070  20.228   6.108 -0.1127  0.2075  0.0403
 4482W        W47399  15.265  19.883  10.654 -0.3845 -0.2051 -0.1780
 4483W        W47400  17.122  22.472   7.759  0.1211  0.0130  0.1085
 4484W        W47401  12.841  21.193  10.609  0.0017  0.1340  0.0213
 4485W        W47402  16.147  18.426  10.832  0.2127  0.0007 -0.0710
 4486W        W47403  12.512  20.868   6.593  0.1020  0.0593 -0.1247
 4487W        W47404  15.953  19.956   6.773 -0.0385  0.0018  0.1666
 4488W        W47405  14.685  21.185  10.305  0.0769 -0.1334  0.0456
 4489W        W47406  17.731  19.001   4.622  0.0457 -0.1606 -0.1616
 4490W        W47407  20.611  18.504  10.133  0.0567 -0.0609  0.2702
 4491W        W47408  18.598  19.857   6.039 -0.0675  0.0572  0.0763
 4492W        W47409  14.434  20.335   9.708  0.2487 -0.1191  0.1947
 4493W        W47410  14.238  17.993  10.593 -0.2991 -0.1161  0.1982
 4494W        W47411  17.976  20.333   8.699  0.1774  0.0262 -0.2501
 4495W        W47412  15.509  19.115   9.328  0.0455  0.3149  0.3286
 4496W        W47413  14.788  20.057   9.879 -0.2418  0.0205 -0.0278
 4497W        W47414  17.385  18.492   8.399 -0.2367  0.2108  0.1049
 4498W        W47415  17.070  22.132   6.912  0.2922  0.0244  0.1710
 4499W        W47416  18.463  19.423   8.352  0.2613  0.2193  0.2773
 4500W        W47417  16.973  21.261   9.182  0.0189  0.0347  0.0841
 4501W        W47418  14.363  20.713  10.429  0.3872  0.2597  0.0099
 4502W        W47419  16.364  21.082   8.540  0.1565  0.2270  0.2214
 4503W        W47420  13.558  18.693   9.704 -0.3082 -0.1308 -0.2120
 4504W        W47421  19.093  19.283   7.732  0.0086 -0.0142  0.1005
 4505W        W47422  19.702  20.180   9.221 -0.0877  0.1090  0.2447
 4506W        W47423  15.775  19.386  10.198 -0.1425 -0.1592  0.2953
 4507W        W47424  18.367  16.907   7.893 -0.1901 -0.0966  0.4929
 4508W        W47425  16.169  19.190  10.572 -0.1154  0.4429 -0.0582
 4509W        W47426  14.501  20.849   9.416  0.3134  0.0448 -0.0454
 4510W        W47427  16.297  19.703   8.161  0.2127  0.2312 -0.0840
 4511W        W47428  15.459  18.173   8.345 -0.3106  0.0180  0.0427
 4512W        W47429  16.159  17.720   8.852  0.1029  0.1300 -0.3728
 4513W        W47430  15.468  18.991   8.572  0.3022  0.1646  0.0442
 4514W        W47431  15.897  19.458   9.273  0.2038  0.0500  0.4082
 4515W        W47432  15.061  17.102   9.390 -0.2467  0.3350  0.3025
 4516W        W47433  14.992  15.934   8.072 -0.0100 -0.2760 -0.0776
 4517W        W47434  18.532  20.355   7.454 -0.0334 -0.2059  0.1650
 4518W        W47435  16.550  19.955  10.290 -0.3316 -0.1693  0.3281
 4519W        W47436  15.869  21.393   6.974 -0.1384 -0.1144  0.3109
 4520W        W47437  17.478  19.349   8.134 -0.1085 -0.2488 -0.2409
 4521W        W47438  16.048  21.431  10.137 -0.2477 -0.1791 -0.0318
 4522W        W47439  13.989  15.647   9.891  0.4708  0.3330 -0.1186
 4523W        W47440  18.116  19.046   8.798  0.2503  0.0706  0.1218
 4524W        W47441  17.555  19.573   9.058  0.0320 -0.2783  0.0011
 4525W        W47442  14.882  18.517   9.254  0.1022 -0.1853  0.4020
 4526W        W47443  15.977  20.923  10.090 -0.0999  0.3680  0.1658
 4527W        W47444  16.734  21.919   9.159  0.0412  0.0302  0.0201
 4528W        W47445  18.382  18.732  10.023 -0.0285 -0.1483  0.1160
 4529W        W47446  17.144  21.094   6.540  0.2848  0.1372 -0.0234
 4530W        W47447  15.387  22.170   9.215 -0.3070 -0.3469  0.4609
 4531W        W47448  16.070  18.628   8.658 -0.2303  0.0097 -0.0899
 4532W        W47449  15.353  21.493   7.414 -0.0362 -0.4702 -0.0835
 4533W        W47450  15.680  22.687   7.860  0.2971 -0.1066  0.0339
 4534W        W47451  20.312  21.089   8.438 -0.1493  0.2083 -0.0423
 4535W        W47452  16.106  18.126   8.509  0.0695  0.1583  0.3011
 4536W        W47453  18.965  21.341   7.407 -0.3708  0.1038  0.1915
 4537W        W47454  14.754  16.218   9.272 -0.1998 -0.1500  0.0594
 4538W        W47455  16.854  17.872   7.875  0.2004 -0.0839  0.0079
 4539W        W47456  16.853  18.620   8.059 -0.1052  0.2084 -0.1457
 4540W        W47457  13.379  20.802  10.742  0.0373 -0.0797 -0.3420
 4541W        W47458  14.040  20.009  10.000 -0.1166  0.0719 -0.2705
 4542W        W47459  15.875  19.801   8.588 -0.1735  0.0308  0.1652
 4543W        W47460  15.130  19.380   7.717 -0.1633  0.2074  0.0194
 4544W        W47461  15.382  21.178   9.208 -0.3790 -0.0267 -0.1531
 4545W        W47462  16.613  18.578  11.012 -0.1352  0.0646  0.2253
 4546W        W47463  15.510  20.108   8.291 -0.1796 -0.0046 -0.0484
 4547W        W47464  15.217  19.810   9.693  0.3503 -0.1566 -0.1181
 4548W        W47465  17.841  18.196   9.054  0.1974  0.1893  0.0665
 4549W        W47466  17.180  19.548   7.762 -0.0859  0.1220  0.2177
 4550W        W47467  18.063  19.617   6.951  0.4263 -0.3107  0.2899
 4551W        W47468  17.679  18.280   8.015 -0.0895  0.2726  0.3298
 4552W        W47469  13.938  21.820   9.410  0.2430 -0.0945  0.0095
 4553W        W47470  13.410  18.793   8.396  0.1085 -0.0917 -0.3453
 4554W        W47471  19.258  20.058   9.688 -0.0445 -0.0032 -0.1894
 4555W        W47472  14.983  22.405   8.478 -0.2083  0.0686 -0.1673
 4556W        W47473  16.381  20.459   7.379  0.2456 -0.1803  0.0134
 4557W        W47474  12.991  19.901   9.722  0.3672 -0.1974  0.0544
 4558W        W47475  16.502  19.055   8.091 -0.0021 -0.1523 -0.0198
 4559W        W47476  15.416  20.579   6.144  0.3268  0.3008 -0.0416
 4560W        W47477  16.816  16.727   9.483 -0.1353 -0.0552  0.0529
 4561W        W47478  17.041  20.034   9.491 -0.0480  0.1409  0.0615
 4562W        W47479  18.958  20.646   9.684  0.2152  0.0689 -0.0424
 4563W        W47480  17.843  16.574   9.102  0.4195 -0.0651 -0.4441
 4564W        W47481  17.805  17.853   7.641 -0.2813 -0.1601 -0.0117
 4565W        W47482  17.285  21.972   6.442  0.1019  0.1790  0.3027
 4566W        W47483  13.834  20.740  10.685  0.0331  0.0358 -0.1281
 4567W        W47484  16.507  20.065   8.487 -0.3118  0.2367 -0.1179
 4568W        W47485  16.849  20.385  10.330 -0.2985 -0.0771 -0.1154
 4569W        W47486  16.394  19.409   9.524 -0.0266 -0.2146 -0.1063
 4570W        W47487  15.916  19.177   7.300  0.2143  0.2850  0.0586
 4571W        W47488  17.705  22.954  11.748  0.0557  0.3476  0.3959
 4572W        W47489  15.310  23.744   9.755 -0.0486  0.4235 -0.1536
 4573W        W47490  17.506  17.833   8.863 -0.1534 -0.1739  0.1100
 4574W        W47491  12.172  19.569   9.998  0.0280 -0.1066  0.1391
 4575W        W47492  14.110  20.234   7.114 -0.0018  0.2332 -0.0359
 4576W        W47493  19.293  19.202  10.480 -0.1710  0.0809  0.4291
 4577W        W47494  17.638  19.403   9.635  0.3388  0.2057  0.1433
 4578W        W47495  15.842  16.875   8.779 -0.2623  0.1171  0.1041
 4579W        W47496  16.613  17.924   8.611  0.1574 -0.1474  0.1428
 4580W        W47497  13.901  21.249  10.941  0.0680 -0.1110  0.1018
 4581W        W47498  16.553  20.263   7.994 -0.3624 -0.0581  0.0876
 4582W        W47499  17.144  24.170   1.877 -0.0378 -0.0401  0.0649
 4583W        W47500  14.801  21.843   1.259  0.0200  0.1806 -0.0813
 4584W        W47501  17.094  20.988  31.504  0.2050  0.2293  0.1513
 4585W        W47502  15.619  24.427  31.259 -0.1447  0.1487 -0.1335
 4586W        W47503  13.856  23.311  31.404  0.0425  0.0306  0.0498
 4587W        W47504  16.585  25.388  31.457  0.0573 -0.1888 -0.1154
 4588W        W47505  14.668  22.832   2.027  0.0625 -0.1982 -0.5065
 4589W        W47506  16.911  24.713   1.073  0.1708  0.2065  0.1724
 4590W        W47507  17.551  23.856   2.668  0.2728 -0.2118  0.1142
 4591W        W47508  17.315  23.096   0.749 -0.1780 -0.0979 -0.1282
 4592W        W47509  16.302  20.548   2.972 -0.0177  0.0578  0.2935
 4593W        W47510  15.899  24.232   2.317  0.3240 -0.0509  0.2356
 4594W        W47511  16.460  22.856  29.555 -0.0596  0.1379 -0.2092
 4595W        W47512  13.242  21.987   1.053 -0.2716 -0.1971  0.4912
 4596W        W47513  17.948  23.014   2.647  0.0707  0.1286 -0.2774
 4597W        W47514  15.965  22.246  31.267  0.1255  0.1761  0.0970
 4598W        W47515  15.918  21.802   1.665  0.1728  0.1793 -0.3362
 4599W        W47516  16.089  24.532   0.953  0.1834 -0.0115  0.1234
 4600W        W47517  16.000  24.345  30.590  0.1595  0.2552 -0.1060
 4601W        W47518  15.843  23.059   2.574 -0.0026 -0.0611  0.0383
 4602W        W47519  16.359  21.879   2.867 -0.1367 -0.1406  0.2145
 4603W        W47520  15.215  24.130   1.569 -0.0797 -0.2188  0.0045
 4604W        W47521  16.627  24.387   0.919 -0.1264  0.1283 -0.1506
 4605W        W47522  16.231  21.247   0.854  0.3189 -0.0369  0.5110
 4606W        W47523  16.933  24.239   1.391 -0.1152  0.2310 -0.2426
 4607W        W47524  14.224  21.640   2.924 -0.2295  0.1656 -0.2463
 4608W        W47525  17.235  22.159  31.166 -0.1046  0.0275  0.2180
 4609W        W47526  16.409  23.907   2.894 -0.5787  0.0458 -0.1064
 4610W        W47527  16.307  25.421   1.051 -0.1673  0.0900  0.1861
 4611W        W47528  17.403  23.636   4.113  0.0044  0.2074 -0.3953
 4612W        W47529  16.471  24.884   1.803 -0.1289 -0.2255  0.0321
 4613W        W47530  14.374  25.620   1.197  0.0819  0.1522 -0.1326
 4614W        W47531  14.165  25.606  30.804 -0.0807 -0.2168 -0.1973
 4615W        W47532  18.019  24.145   0.390  0.1630  0.1679 -0.1689
 4616W        W47533  18.753  23.107   2.094 -0.0516  0.0751  0.1783
 4617W        W47534  16.265  26.265   2.603 -0.0496 -0.1587 -0.0321
 4618W        W47535  15.526  22.459   0.641 -0.0922  0.1687  0.0172
 4619W        W47536  16.645  26.079   1.446  0.1422  0.0672  0.1411
 4620W        W47537  14.996  24.558   1.912 -0.0401 -0.2399  0.1271
 4621W        W47538  16.249  22.022   3.417 -0.0240 -0.0306  0.0801
 4622W        W47539  16.752  25.266   0.938 -0.1248 -0.0532 -0.0158
 4623W        W47540  16.034  25.749  30.970 -0.0095 -0.1791  0.2299
 4624W        W47541  16.182  23.585   1.261  0.4774 -0.1064  0.0621
 4625W        W47542  16.874  25.023   1.493  0.3063  0.0127  0.2087
 4626W        W47543  16.085  23.717   0.517 -0.1562  0.3644 -0.1431
 4627W        W47544  18.505  21.660   4.269 -0.0417 -0.1561 -0.2357
 4628W        W47545  14.740  25.615  31.214 -0.1004 -0.1840  0.1150
 4629W        W47546  17.491  23.447  28.374 -0.1684  0.0658  0.4243
 4630W        W47547  13.371  23.481  31.516  0.2667 -0.0892  0.0304
 4631W        W47548  16.418  21.413  30.270 -0.0324  0.1156 -0.0935
 4632W        W47549  15.875  20.077   0.011 -0.0256 -0.1597 -0.0957
 4633W        W47550  14.376  27.728  31.832  0.2047 -0.1691  0.2087
 4634W        W47551  15.626  22.038   0.295  0.1120 -0.0958 -0.0105
 4635W        W47552  18.274  23.122   0.359  0.0734  0.1749 -0.0788
 4636W        W47553  15.315  20.931   0.150 -0.1843 -0.1743 -0.1234
 4637W        W47554  16.356  24.557   2.237 -0.0070  0.1024  0.3006
 4638W        W47555  14.173  25.151   1.402 -0.0365 -0.3634 -0.4161
 4639W        W47556  15.159  23.465   0.287 -0.0321  0.0364 -0.0100
 4640W        W47557  16.715  23.142  30.825  0.2272 -0.0240  0.3740
 4641W        W47558  17.531  24.200  31.400  0.2032 -0.3701 -0.3993
 4642W        W47559  16.852  24.285  31.822  0.0110  0.2920 -0.0775
 4643W        W47560  15.605  22.631  30.346  0.1607 -0.0042 -0.0079
 4644W        W47561  13.433  22.489   1.905 -0.0408 -0.0959  0.0521
 4645W        W47562  15.753  23.984   1.852  0.0450 -0.0582 -0.3394
 4646W        W47563  12.771  20.714  29.929  0.1217  0.0257 -0.0609
 4647W        W47564  16.941  22.685   0.752 -0.1102 -0.0636  0.1747
 4648W        W47565  14.704  25.225   0.289  0.1482 -0.2864  0.0062
 4649W        W47566  17.582  22.409  30.867 -0.0475  0.2687 -0.1920
 4650W        W47567  14.481  24.794   1.775 -0.3368 -0.1012 -0.1855
 4651W        W47568  18.052  25.079   1.591 -0.0928  0.1384  0.0797
 4652W        W47569  17.316  21.518  30.076  0.1313  0.0038 -0.1269
 4653W        W47570  17.617  21.876  30.914 -0.3103 -0.3665  0.1153
 4654W        W47571  17.576  22.553   2.230 -0.1566  0.1395 -0.0338
 4655W        W47572  14.875  22.872  30.718  0.2611 -0.0568  0.4135
 4656W        W47573  16.318  23.196  31.458  0.0813 -0.1329 -0.1916
 4657W        W47574  17.611  25.790   0.802  0.2174  0.0101 -0.0636
 4658W        W47575  18.241  21.102  31.024  0.1628 -0.0891  0.2281
 4659W        W47576  12.249  26.175   0.779  0.3940 -0.2856  0.3779
 4660W        W47577  15.901  21.456   2.162  0.2350 -0.2170 -0.2781
 4661W        W47578  14.939  26.553   2.384 -0.1369  0.1631  0.1381
 4662W        W47579  15.190  25.423  30.818  0.3177 -0.1726 -0.0569
 4663W        W47580  14.361  23.817   0.403 -0.1265  0.3449 -0.0841
 4664W        W47581  14.650  22.960   0.649 -0.0207 -0.0266 -0.1055
 4665W        W47582  16.816  21.788   2.696  0.0077  0.1405  0.1369
 4666W        W47583  17.135  24.106   2.894  0.1743 -0.3147  0.1705
 4667W        W47584  16.169  21.355  29.854  0.1927  0.3562 -0.1579
 4668W        W47585  15.126  22.745   0.520 -0.2329 -0.0721  0.0483
 4669W        W47586  15.056  21.881  31.424 -0.1409  0.2355  0.1937
 4670W        W47587  15.439  24.532   1.138  0.1270 -0.0334 -0.0951
 4671W        W47588  16.400  25.629  31.855  0.4293 -0.2201 -0.0153
 4672W        W47589  17.813  23.021  31.507  0.2318  0.2838 -0.1370
 4673W        W47590  16.817  25.310  31.912  0.1532  0.0810  0.1226
 4674W        W47591  14.256  22.722   1.676 -0.2737  0.1951 -0.0673
 4675W        W47592  15.526  21.309  30.515 -0.1573  0.0979 -0.0783
 4676W        W47593  15.678  21.004   0.862  0.1313  0.3291  0.3427
 4677W        W47594  15.231  22.048  31.872  0.2535  0.2711  0.0291
 4678W        W47595  17.082  24.131   2.377  0.2597  0.1607  0.3074
 4679W        W47596  14.692  21.506  31.340 -0.1026 -0.1812 -0.4693
 4680W        W47597  16.677  23.311   1.396 -0.0677  0.2314  0.1874
 4681W        W47598  14.312  23.188  31.215 -0.1118 -0.2505  0.1129
 4682W        W47599  14.674  23.996   1.724  0.0535  0.2848  0.3471
 4683W        W47600  18.396  22.042   1.390  0.0108  0.0855 -0.0284
 4684W        W47601  16.705  26.383  31.337 -0.4822  0.1237  0.1113
 4685W        W47602  18.089  26.623   2.895 -0.1526 -0.1313 -0.2165
 4686W        W47603  16.846  26.020   2.027  0.2034  0.3505 -0.2296
 4687W        W47604  15.848  21.725   2.995  0.0611  0.0458  0.1416
 4688W        W47605  13.924  20.563  28.891  0.0219  0.1031 -0.2889
 4689W        W47606  14.221  24.037  31.729  0.2238 -0.3140  0.0275
 4690W        W47607  14.282  22.593  31.790  0.1373  0.0387  0.1696
 4691W        W47608  15.507  21.452  31.944 -0.0606  0.1496  0.0599
 4692W        W47609  17.877  25.713   2.592  0.0668  0.3928  0.0537
 4693W        W47610  18.154  23.865  30.981  0.2190  0.0141 -0.1359
 4694W        W47611  12.907  26.297   2.794  0.0004 -0.1019  0.1704
 4695W        W47612  16.781  20.500   1.936 -0.0122  0.2265 -0.0280
 4696W        W47613  17.853  23.010   2.134 -0.2502  0.1748 -0.1549
 4697W        W47614  18.846  21.536   0.272  0.0346 -0.0473 -0.0898
 4698W        W47615  12.849  21.775  30.557 -0.3125  0.1338 -0.0212
 4699W        W47616  14.866  24.493   1.391 -0.5826  0.1990  0.2771
 4700W        W47617  14.530  25.887  30.654 -0.1290 -0.1600  0.0694
 4701W        W47618  13.489  22.859  31.461  0.0853  0.2971  0.0662
 4702W        W47619  14.770  25.724   0.110 -0.4294  0.1601  0.0036
 4703W        W47620  17.371  22.446   0.643  0.1621 -0.0400 -0.0481
 4704W        W47621  16.468  23.680   1.634  0.0784 -0.1304  0.0699
 4705W        W47622  17.154  21.026   2.076  0.0801 -0.4363  0.0876
 4706W        W47623  14.272  22.046  30.959  0.1459  0.1256 -0.0597
 4707W        W47624  13.698  25.483   2.805 -0.0836  0.2843  0.2618
 4708W        W47625  16.185  22.683  31.650  0.1350 -0.1413 -0.1127
 4709W        W47626  16.991  21.213   1.173  0.1093  0.2581 -0.4525
 4710W        W47627  16.918  22.992   3.266 -0.1624  0.0371 -0.0177
 4711W        W47628  17.451  22.737  30.385  0.1336  0.1961 -0.0032
 4712W        W47629  16.346  21.384  31.778 -0.0920  0.1403  0.2731
 4713W        W47630  16.069  20.936  29.423 -0.2778  0.1801 -0.2300
 4714W        W47631  13.554  25.640   2.296  0.1455 -0.1140 -0.3396
 4715W        W47632  16.581  24.124  31.469  0.1194 -0.0802 -0.0565
 4716W        W47633  15.593  25.017   1.399 -0.3382 -0.1753  0.2573
 4717W        W47634  15.697  23.435   0.045 -0.0935  0.3115  0.5166
 4718W        W47635  18.466  26.292   0.728  0.0916  0.3477 -0.0305
 4719W        W47636  15.107  23.647   1.130 -0.1096  0.1128  0.4194
 4720W        W47637  16.735  24.368   3.131 -0.2842  0.4402 -0.1650
 4721W        W47638  16.382  24.909   0.638  0.1809 -0.1652  0.0728
 4722W        W47639  15.204  20.615   3.757 -0.0942  0.2501 -0.1447
 4723W        W47640  16.299  23.591  30.097  0.1647  0.1915  0.2312
 4724W        W47641  15.071  20.343  31.851 -0.2628  0.3239 -0.5922
 4725W        W47642  14.397  24.254  30.108 -0.2553  0.1770  0.1239
 4726W        W47643  17.360  21.905   0.465  0.1571  0.3655 -0.4250
 4727W        W47644  16.090  22.140   0.111 -0.1395  0.0119 -0.2290
 4728W        W47645  14.066  20.342   2.404  0.0231 -0.1234 -0.1812
 4729W        W47646  17.559  22.666   2.786  0.3273 -0.1321 -0.0347
 4730W        W47647  16.314  22.943  30.528 -0.0201  0.0573 -0.2775
 4731W        W47648  14.245  24.333   0.499 -0.1671 -0.0205  0.1166
 4732W        W47649  15.990  23.763  30.546  0.3956 -0.1792  0.0056
 4733W        W47650  18.325  22.152   3.033 -0.0519 -0.0979  0.0756
 4734W        W47651  17.069  25.675   1.636 -0.0074  0.0849 -0.1478
 4735W        W47652  15.224  27.096   0.582 -0.1616  0.0425  0.1841
 4736W        W47653  16.657  25.003   4.125  0.1191 -0.0618  0.2227
 4737W        W47654  17.295  24.998   0.940 -0.0422 -0.2638  0.5084
 4738W        W47655  16.073  25.411   1.599  0.3939 -0.1620  0.3859
 4739W        W47656  15.431  22.639   1.349 -0.0660  0.3202  0.1090
 4740W        W47657  14.812  25.137   1.657  0.0842 -0.2388 -0.2091
 4741W        W47658  15.861  24.793   0.598 -0.1443  0.1261 -0.0142
 4742W        W47659  14.215  21.672  31.299 -0.0558  0.0191  0.1664
 4743W        W47660  14.244  23.563   2.583  0.1082 -0.2808  0.0415
 4744W        W47661  15.296  23.217  31.667 -0.4074 -0.2443  0.1745
 4745W        W47662  17.411  25.029   2.477 -0.0996 -0.0124  0.2199
 4746W        W47663  15.574  23.487   0.590 -0.2339 -0.1400  0.3059
 4747W        W47664  16.724  22.782  31.717 -0.0060 -0.0008 -0.0431
 4748W        W47665  14.041  24.606   1.801  0.1044  0.1126 -0.0153
 4749W        W47666  16.447  24.993  31.132 -0.2957 -0.2142 -0.1457
 4750W        W47667  13.481  20.602  30.705 -0.0637  0.2955  0.1050
 4751W        W47668  16.254  25.938   1.061 -0.0233 -0.1438 -0.2989
 4752W        W47669  18.059  23.725  28.906 -0.0142  0.0335  0.0761
 4753W        W47670  17.361  21.895   1.765 -0.3082 -0.0903 -0.1167
 4754W        W47671  15.395  21.399   0.672 -0.1108 -0.1609 -0.1399
 4755W        W47672  15.175  25.513   1.288 -0.1483  0.2221 -0.1199
 4756W        W47673  16.630  24.876   3.187 -0.1032  0.1090 -0.0524
 4757W        W47674  17.125  21.795  31.934 -0.1256  0.0256  0.0097
 4758W        W47675  17.487  25.583   2.395  0.1691  0.2397 -0.0181
 4759W        W47676  15.073  23.198   3.868 -0.2144  0.1903 -0.0903
 4760W        W47677  12.983  23.021  30.868 -0.3081  0.0963  0.1614
 4761W        W47678  17.475  23.800   3.171  0.0498 -0.1688 -0.0894
 4762W        W47679  16.619  22.594  30.791 -0.0412  0.1416 -0.1868
 4763W        W47680  13.241  25.955   0.095 -0.2496 -0.0943 -0.0508
 4764W        W47681  15.465  26.182   1.990 -0.0368  0.0701 -0.0338
 4765W        W47682  15.429  22.451  29.885 -0.0499 -0.1971  0.0322
 4766W        W47683  16.314  23.022   2.891 -0.0699  0.1044  0.1976
 4767W        W47684  15.185  23.817   1.948  0.2057 -0.0790  0.0545
 4768W        W47685  17.225  22.246   1.425 -0.0921  0.0944 -0.1270
 4769W        W47686  15.029  21.315  31.815  0.1135 -0.2875  0.1651
 4770W        W47687  17.663  24.896   1.840  0.0615  0.0995  0.1239
 4771W        W47688  16.656  25.366   1.939  0.0390  0.1238  0.3173
 4772W        W47689  16.456  24.034   0.158 -0.4025 -0.1354 -0.1902
 4773W        W47690  16.993  25.595   2.185  0.0157 -0.0476  0.0313
 4774W        W47691  17.057  22.707   3.685 -0.2383 -0.3141  0.0617
 4775W        W47692  18.012  24.941   0.251  0.1126  0.0867 -0.1515
 4776W        W47693  16.554  25.545   2.385 -0.1186 -0.1164 -0.1818
 4777W        W47694  14.802  23.925  31.609 -0.0148  0.1984  0.0826
 4778W        W47695  14.374  22.658   1.080 -0.1405 -0.1659 -0.2315
 4779W        W47696  14.703  23.695   2.132  0.4413  0.2418 -0.0465
 4780W        W47697  17.222  22.313   1.995 -0.2096  0.0106 -0.1353
 4781W        W47698  14.558  24.403   0.968  0.1021 -0.1622  0.1971
 4782W        W47699  15.580  23.835   1.019 -0.0775  0.0421  0.0475
 4783W        W47700  13.141  25.775   2.075 -0.0548  0.1243  0.1498
 4784W        W47701  18.500  21.873  30.266 -0.1876  0.3316 -0.2813
 4785W        W47702  15.611  23.458  30.794  0.2377  0.1128 -0.1549
 4786W        W47703  15.477  20.878   2.439 -0.0433 -0.0818  0.0014
 4787W        W47704  18.719  21.713   2.210  0.0493 -0.0365  0.0095
 4788W        W47705  15.505  24.086  31.603 -0.3586 -0.0085 -0.2284
 4789W        W47706  16.688  22.375   3.791 -0.0200 -0.0663 -0.3967
 4790W        W47707  14.316  21.812   1.088 -0.1262  0.0218 -0.2833
 4791W        W47708  17.818  23.758  31.809 -0.3904  0.1315 -0.1860
 4792W        W47709  14.621  21.756   2.245  0.1461 -0.0398  0.2652
 4793W        W47710  15.826  25.058   1.872  0.1729 -0.1972  0.1743
 4794W        W47711  16.398  23.406   2.013  0.0861  0.1784  0.1602
 4795W        W47712  15.987  23.273  30.365  0.2298 -0.1208 -0.0156
 4796W        W47713  13.851  22.041  30.478 -0.0470 -0.0193 -0.1123
 4797W        W47714  16.840  22.033   1.765  0.0441 -0.1121  0.2614
 4798W        W47715  16.719  24.374   0.442 -0.4135  0.1049 -0.0142
 4799W        W47716  16.530  22.302  31.839  0.0193  0.1083  0.4500
 4800W        W47717  18.242  24.006  31.890  0.1084  0.1194 -0.4818
 4801W        W47718  16.945  22.248   2.511 -0.1925 -0.1569 -0.1965
 4802W        W47719  15.988  21.731  30.209  0.3331 -0.0315 -0.2476
 4803W        W47720  15.661  21.759  29.678 -0.2461  0.0640 -0.2613
 4804W        W47721  13.697  24.276   1.637  0.1507  0.0425 -0.0083
 4805W        W47722  13.995  23.011  31.924 -0.3429 -0.0284  0.1656
 4806W        W47723  17.737  23.320   1.102 -0.0218  0.0726 -0.1301
 4807W        W47724  15.797  22.688   0.221 -0.0476  0.1465  0.0711
 4808W        W47725  16.056  22.238   2.821  0.1665  0.1354 -0.1169
 4809W        W47726  18.030  23.493   1.580  0.1247 -0.0562 -0.1412
 4810W        W47727  15.349  22.169   3.910 -0.3059 -0.1147  0.1627
 4811W        W47728  14.431  20.769   2.380  0.3838 -0.2883  0.1527
 4812W        W47729  16.321  27.440   1.435  0.1473 -0.2169 -0.1619
 4813W        W47730  16.950  23.641  29.419 -0.0650 -0.1331 -0.1818
 4814W        W47731  17.138  21.705   4.132  0.1596  0.2131  0.0088
 4815W        W47732  19.012  23.443   1.334  0.2150 -0.1342  0.4343
 4816W        W47733  17.351  20.861  28.804 -0.3476  0.0660 -0.1769
 4817W        W47734  14.797  23.385  31.869  0.3401 -0.0560  0.1705
 4818W        W47735  17.666  24.355   1.868 -0.0151 -0.4262  0.0001
 4819W        W47736  14.746  21.879  30.952  0.2640 -0.0600  0.0168
 4820W        W47737  17.262  22.932   4.089 -0.1539 -0.1347  0.2722
 4821W        W47738  15.870  25.303   0.613  0.3249 -0.2623 -0.0624
 4822W        W47739  17.628  24.195   0.779  0.2728 -0.0390  0.1844
 4823W        W47740  16.754  23.271  31.904 -0.2879  0.0029  0.1267
 4824W        W47741  14.408  23.152   0.291 -0.0751 -0.0257  0.1230
 4825W        W47742  15.423  26.552   1.555 -0.0797 -0.0479 -0.2188
 4826W        W47743  14.477  21.930  30.518  0.1058 -0.0339  0.0620
 4827W        W47744  16.332  23.034   0.016  0.0949 -0.0199 -0.0815
 4828W        W47745  16.546  24.528   1.480 -0.1422  0.4187  0.0552
 4829W        W47746  18.524  23.169   2.670  0.0075 -0.0396  0.1965
 4830W        W47747  15.099  21.249  31.220  0.0050  0.0227  0.0453
 4831W        W47748  18.204  23.371   3.614 -0.1771  0.3041 -0.2605
 4832W        W47749  14.613  22.031  31.491 -0.0941  0.1515  0.1959
 4833W        W47750  13.643  23.507   0.644  0.0784 -0.0010 -0.0502
 4834W        W47751  16.065  24.400   1.867 -0.0438 -0.0416 -0.0365
 4835W        W47752  12.861  26.192   1.973  0.2246  0.1857 -0.4436
 4836W        W47753  14.527  25.488   1.675  0.1622  0.0223 -0.2214
 4837W        W47754  16.383  22.145   2.381  0.2488  0.1540 -0.0626
 4838W        W47755  17.480  21.069  31.120 -0.2488  0.0016  0.1668
 4839W        W47756  14.387  24.394   1.492  0.1092  0.2732 -0.1019
 4840W        W47757  17.307  21.617   0.918  0.2415 -0.0251  0.2464
 4841W        W47758  14.491  25.977   1.788 -0.1827 -0.0129  0.2373
 4842W        W47759  14.617  22.658   0.149 -0.1460  0.0602 -0.2675
 4843W        W47760  14.582  25.602   0.588  0.1683  0.2320 -0.0645
 4844W        W47761  15.895  23.911   0.047 -0.0483 -0.2974 -0.3702
 4845W        W47762  16.676  23.828   1.149 -0.0084 -0.2940 -0.2239
 4846W        W47763  14.548  22.273   1.671  0.1897 -0.1162 -0.0763
 4847W        W47764  15.928  24.807   3.590  0.0330  0.1732 -0.0394
 4848W        W47765  15.850  22.894   1.162  0.2939 -0.0458 -0.2043
 4849W        W47766  15.203  20.429  28.460 -0.3548 -0.1083  0.1370
 4850W        W47767  14.461  24.303  30.576  0.3354  0.2195  0.2330
 4851W        W47768  14.752  25.413   3.553 -0.0761 -0.1052  0.0774
 4852W        W47769  14.813  24.770   2.360  0.5016  0.1115  0.1164
 4853W        W47770  13.862  23.461   1.116 -0.3654  0.0838  0.0437
 4854W        W47771  17.792  24.247  30.903 -0.0079  0.0706 -0.2379
 4855W        W47772  18.933  22.550  31.128  0.1366  0.1669 -0.1417
 4856W        W47773  16.921  24.885   0.559 -0.0710 -0.0681  0.0646
 4857W        W47774  16.551  23.901  29.145 -0.1965 -0.4539 -0.1094
 4858W        W47775  15.193  25.289   0.236  0.3668  0.1573  0.0841
 4859W        W47776  15.103  24.950   1.290 -0.3207 -0.1023  0.0995
 4860W        W47777  18.351  24.694  30.079  0.0691 -0.1012  0.1895
 4861W        W47778  16.209  24.748  30.751 -0.1607 -0.0425 -0.0508
 4862W        W47779  16.944  23.812   4.125  0.0769  0.0715 -0.0034
 4863W        W47780  16.502  21.820  29.176 -0.1667  0.2558 -0.1918
 4864W        W47781  16.896  23.030  31.238  0.2506 -0.0263  0.0762
 4865W        W47782  19.554  23.609   0.716  0.1422  0.2646 -0.1789
 4866W        W47783  14.920  25.853   3.692  0.1529  0.0258  0.2907
 4867W        W47784  16.643  23.014   1.894  0.0501 -0.2199 -0.1336
 4868W        W47785  15.261  20.964  29.339  0.1967  0.2771 -0.1004
 4869W        W47786  16.594  23.505   3.107 -0.0979 -0.1363  0.0456
 4870W        W47787  16.832  21.335  31.884  0.3321  0.0744 -0.3084
 4871W        W47788  16.250  25.591   3.492 -0.0995 -0.0057 -0.1009
 4872W        W47789  18.547  23.374   0.684  0.0931  0.1036  0.0685
 4873W        W47790  15.739  22.345  31.778  0.0003  0.3782 -0.0760
 4874W        W47791  16.421  22.787  31.214  0.0634  0.0243  0.0307
 4875W        W47792  16.982  20.958   1.618 -0.0044 -0.0517  0.1338
 4876W        W47793  15.869  23.475  31.540  0.0231 -0.0502 -0.4746
 4877W        W47794  18.167  24.527   1.771 -0.0179  0.3042 -0.0367
 4878W        W47795  17.045  23.399   0.413  0.1384  0.0848 -0.1099
 4879W        W47796  15.592  25.653   1.721  0.2025  0.0440 -0.0423
 4880W        W47797  15.239  27.099   2.549  0.1637 -0.0014 -0.2436
 4881W        W47798  16.292  22.615   0.206 -0.1427 -0.1060 -0.5151
 4882W        W47799  17.868  22.277   0.507 -0.0900  0.0277  0.0749
 4883W        W47800  14.293  22.428  31.281  0.1505  0.3418 -0.1702
 4884W        W47801  19.603  23.139   0.850  0.0927 -0.3229  0.2468
 4885W        W47802  15.568  23.016   0.745 -0.3205  0.1521  0.1146
 4886W        W47803  16.206  24.104   1.492  0.0469  0.1480 -0.0475
 4887W        W47804  16.598  23.928   0.671 -0.1266 -0.0333  0.4368
 4888W        W47805  15.124  21.728   0.331  0.2957 -0.2596 -0.1375
 4889W        W47806  17.867  23.194   0.095  0.2604  0.2093  0.0264
 4890W        W47807  18.270  22.918   2.300  0.1645 -0.0051  0.1881
 4891W        W47808  17.060  21.921  30.612 -0.0477 -0.1199  0.2892
 4892W        W47809  16.274  27.121   3.901  0.1328 -0.4598  0.1505
 4893W        W47810  14.284  20.498  30.255  0.2147 -0.0069  0.0931
 4894W        W47811  17.184  23.335   1.238  0.3061  0.0601  0.0760
 4895W        W47812  15.291  24.801   0.440  0.1027  0.1485 -0.0393
 4896W        W47813  17.022  22.917   0.179  0.0135  0.1533  0.0005
 4897W        W47814  16.899  24.669   1.859  0.1544 -0.1243 -0.2949
 4898W        W47815  17.320  20.554   1.728 -0.0928 -0.0945 -0.0095
 4899W        W47816  18.534  25.452  31.280  0.2930 -0.3183  0.1200
 4900W        W47817  18.202  22.445   0.895  0.0210  0.3555 -0.0197
 4901W        W47818  16.564  24.769  27.907  0.0710  0.0268 -0.0133
 4902W        W47819  17.343  23.045   2.037 -0.2285 -0.2987  0.0730
 4903W        W47820  17.162  25.541   1.031  0.1080 -0.2757  0.1925
 4904W        W47821  13.291  23.187   0.444 -0.0909  0.1336  0.3518
 4905W        W47822  17.731  24.230  31.864  0.1003  0.0563 -0.0876
 4906W        W47823  16.080  25.369  31.279 -0.4344 -0.0017  0.1622
 4907W        W47824  15.184  22.375  30.553 -0.1196 -0.0471  0.1251
 4908W        W47825  16.750  22.272   1.281  0.2604  0.2327  0.3667
 4909W        W47826  13.766  23.828  31.660  0.0758 -0.0468  0.1738
 4910W        W47827  17.737  22.789   0.810 -0.0569  0.1786 -0.1764
 4911W        W47828  18.164  23.021   1.683 -0.0337  0.0602 -0.1481
 4912W        W47829  15.172  25.881  31.092 -0.0408 -0.2063  0.1772
 4913W        W47830  16.880  23.269   2.253 -0.0985 -0.0054 -0.1534
 4914W        W47831  17.345  24.467   1.072 -0.0309  0.1728  0.0485
 4915W        W47832  14.531  24.886   1.176 -0.1915  0.0194 -0.0605
 4916W        W47833  14.913  23.493  31.398 -0.0607 -0.3301 -0.1995
 4917W        W47834  15.726  24.288   1.419 -0.0251 -0.1900 -0.0474
 4918W        W47835  15.425  25.093   0.859 -0.3341  0.0163  0.1997
 4919W        W47836  15.461  26.502   0.988  0.1881  0.1734 -0.1117
 4920W        W47837  17.579  23.195   1.623  0.2046  0.2088  0.0882
 4921W        W47838  17.769  21.733   1.578 -0.0428 -0.0790  0.3001
 4922W        W47839  17.199  24.946  31.823  0.3280  0.1073  0.0976
 4923W        W47840  14.596  21.406   1.303 -0.0677  0.0164 -0.3001
 4924W        W47841  18.398  19.978  31.128 -0.1571 -0.1029  0.2926
 4925W        W47842  19.295  20.600  29.953 -0.0179  0.1508 -0.0583
 4926W        W47843  16.453  22.853   3.548 -0.0725  0.1051 -0.1801
 4927W        W47844  15.323  23.678  29.620 -0.2045  0.1313 -0.1697
 4928W        W47845  14.836  23.576   1.554  0.0566  0.0238  0.0749
 4929W        W47846  15.615  22.172   2.444  0.0370  0.0082  0.0143
 4930W        W47847  17.096  22.737   2.370  0.1865  0.1308  0.0741
 4931W        W47848  17.066  22.748   1.694 -0.0861  0.0269  0.1249
 4932W        W47849  15.313  24.283   0.621  0.1200 -0.0774  0.0000
 4933W        W47850  15.085  24.139   1.045  0.0162 -0.1226  0.3058
 4934W        W47851  16.666  24.822   0.079 -0.0858 -0.2930 -0.1007
 4935W        W47852  16.076  20.599   0.156  0.0911  0.1762 -0.2958
 4936W        W47853  14.518  19.772   0.215  0.0255  0.0589 -0.0836
 4937W        W47854  17.202  22.776  30.930 -0.1824  0.1894 -0.0366
 4938W        W47855  17.054  25.419   0.543 -0.0361 -0.3079  0.2956
 4939W        W47856  16.300  20.102   0.256  0.1823  0.1901 -0.1532
 4940W        W47857  16.891  25.121   2.371 -0.0691 -0.0430 -0.2494
 4941W        W47858  15.722  23.001  29.948 -0.1466  0.1046  0.0762
 4942W        W47859  16.405  23.463   0.784  0.2289 -0.2230  0.0499
 4943W        W47860  15.420  21.539   1.152  0.1083 -0.0406  0.2800
 4944W        W47861  14.127  22.172   0.741  0.2194 -0.0525 -0.0910
 4945W        W47862  16.776  22.461   2.013 -0.0342  0.1524  0.1612
 4946W        W47863  16.997  23.934   0.284  0.4463  0.0779 -0.2259
 4947W        W47864  14.715  26.544   0.311  0.0813  0.1355 -0.1174
 4948W        W47865  16.784  23.776   2.046 -0.2911  0.0704  0.2343
 4949W        W47866  12.995  23.469   0.708  0.0986 -0.0331 -0.3105
 4950W        W47867  13.389  23.206   1.893  0.1942 -0.3674  0.1196
 4951W        W47868  18.646  23.749  31.666  0.1999  0.2570  0.0091
 4952W        W47869  16.584  24.166   2.510  0.1485  0.1214 -0.0661
 4953W        W47870  17.426  21.436   1.437 -0.1961  0.1371  0.2018
 4954W        W47871  18.143  24.202   3.471 -0.1648  0.0078  0.0766
 4955W        W47872  15.496  23.322   1.100 -0.1701 -0.2456 -0.2489
 4956W        W47873  15.904  22.095   2.058 -0.0354  0.0274 -0.1730
 4957W        W47874  15.682  22.605   2.134  0.1493  0.0826  0.1157
 4958W        W47875  16.833  22.914   1.218 -0.2057  0.1997  0.2151
 4959W        W47876  16.185  19.823  31.646 -0.0311  0.0189  0.0743
 4960W        W47877  16.015  23.300  31.053 -0.3892 -0.1332 -0.2191
 4961W        W47878  16.797  25.474  31.021 -0.1536  0.2314  0.0437
 4962W        W47879  16.983  22.704   2.871  0.2571 -0.0962 -0.0001
 4963W        W47880  14.620  22.384  30.815  0.0116  0.0012 -0.0083
 4964W        W47881  16.090  21.080   3.552 -0.0096  0.1951 -0.2171
 4965W        W47882  16.237  24.307   0.480 -0.0827  0.1572  0.0852
 4966W        W47883  16.646  26.118   0.482  0.3205 -0.1419 -0.0947
 4967W        W47884  14.815  23.858   0.182  0.1935 -0.0414 -0.0073
 4968W        W47885  18.894  21.391  29.527 -0.3044 -0.1930 -0.0873
 4969W        W47886  17.705  26.139   1.180 -0.1248  0.1852  0.0153
 4970W        W47887  17.206  25.045   1.995  0.0945  0.0812 -0.0479
 4971W        W47888  13.855  25.510   1.152  0.1313 -0.1376 -0.0941
 4972W        W47889  18.261  23.050   4.048  0.1181  0.0971 -0.0337
 4973W        W47890  13.015  20.192   1.674  0.0004 -0.1526 -0.2686
 4974W        W47891  16.033  24.084  31.584 -0.4893  0.1981 -0.1057
 4975W        W47892  16.404  23.027   1.011  0.1976  0.0055  0.0649
 4976W        W47893  18.552  23.638   0.189  0.0909  0.3181 -0.1253
 4977W        W47894  17.213  22.182   3.040 -0.1434 -0.2405  0.1140
 4978W        W47895  16.654  21.696  29.664 -0.1936  0.1098  0.1778
 4979W        W47896  16.326  26.110   3.477  0.1503 -0.1600 -0.0820
 4980W        W47897  15.725  25.426   2.148 -0.1240  0.3480 -0.0469
 4981W        W47898  14.311  25.180   4.884  0.3339  0.0597 -0.0716
 4982W        W47899  16.647  20.881   4.225 -0.2101 -0.1388  0.0354
 4983W        W47900  17.199  21.731   3.363 -0.2186  0.1505  0.0220
 4984W        W47901  15.937  21.955   5.112 -0.0521  0.0011 -0.2573
 4985W        W47902  15.966  23.552   1.795 -0.1132  0.2003 -0.3837
 4986W        W47903  15.524  24.854   2.747  0.0164  0.1521  0.1980
 4987W        W47904  15.173  20.445   7.508 -0.1992  0.0972 -0.1371
 4988W        W47905  16.929  23.361   6.223  0.1728  0.0967  0.0558
 4989W        W47906  17.710  26.392   7.194  0.3428 -0.0242 -0.1584
 4990W        W47907  16.488  24.700   2.748 -0.0112 -0.0636 -0.3164
 4991W        W47908  16.924  23.483   7.261 -0.3740  0.1236  0.2741
 4992W        W47909  14.805  24.595   5.757  0.0127  0.1879  0.0475
 4993W        W47910  14.696  20.934   3.718 -0.0825 -0.3510 -0.0871
 4994W        W47911  14.339  20.106   4.271 -0.2528 -0.0614 -0.1357
 4995W        W47912  19.353  24.677   5.274 -0.0695 -0.1914  0.0265
 4996W        W47913  15.966  22.846   3.732  0.0635 -0.0069  0.2207
 4997W        W47914  14.510  23.482   4.553  0.1493 -0.2748 -0.0174
 4998W        W47915  16.902  22.499   4.997  0.2366 -0.1463  0.0722
 4999W        W47916  15.423  25.762   5.802 -0.0326 -0.1020 -0.0075
 5000W        W47917  15.391  22.472   5.830 -0.2728  0.3868  0.1059
 5001W        W47918  16.004  21.419   5.497 -0.0960  0.0031  0.0483
 5002W        W47919  16.348  24.160   3.452  0.0414 -0.2611  0.1607
 5003W        W47920  14.445  21.879   3.586  0.2816 -0.0284  0.2703
 5004W        W47921  15.413  23.688   6.302 -0.2507 -0.0788 -0.3033
 5005W        W47922  16.490  21.452   5.465  0.0469 -0.0500 -0.1109
 5006W        W47923  16.490  22.819   4.962 -0.1157  0.2072 -0.1159
 5007W        W47924  16.782  22.926   4.024  0.1105 -0.2265 -0.0844
 5008W        W47925  15.007  24.788   4.737  0.1493  0.0332  0.1030
 5009W        W47926  16.900  23.759   4.729  0.1631  0.2258 -0.1390
 5010W        W47927  16.100  22.988   7.949 -0.2514  0.0616 -0.1028
 5011W        W47928  15.468  22.666   4.037  0.1475  0.2326 -0.0429
 5012W        W47929  14.748  26.749   5.259  0.1739 -0.0283 -0.0702
 5013W        W47930  15.991  24.335   3.764  0.2212 -0.0837 -0.2993
 5014W        W47931  18.816  23.848   4.062 -0.0396  0.4158 -0.0712
 5015W        W47932  18.640  26.469   4.830 -0.1194  0.0175  0.1881
 5016W        W47933  15.137  24.309   4.866 -0.2356  0.2552 -0.1832
 5017W        W47934  12.869  25.782   3.545 -0.4230 -0.2640  0.3091
 5018W        W47935  15.708  24.974   5.218 -0.0673 -0.2344 -0.0441
 5019W        W47936  15.017  22.680   4.375  0.3490 -0.1094 -0.2489
 5020W        W47937  16.202  22.697   5.365  0.4253  0.0687  0.1550
 5021W        W47938  17.378  24.621   3.788  0.4485  0.1464  0.1368
 5022W        W47939  16.008  24.857   2.855  0.2027  0.1634 -0.3088
 5023W        W47940  15.359  23.882   5.757  0.0918  0.1766  0.1474
 5024W        W47941  15.566  24.970   6.233  0.0618 -0.0022 -0.0504
 5025W        W47942  13.804  24.993   3.744  0.3067 -0.3099  0.0147
 5026W        W47943  16.983  21.884   7.472 -0.4821  0.0834  0.1543
 5027W        W47944  15.141  25.346   3.000  0.1031  0.1538 -0.2138
 5028W        W47945  16.610  21.493   3.477  0.0278 -0.0031 -0.0463
 5029W        W47946  16.354  22.676   4.128  0.1829 -0.2719  0.0512
 5030W        W47947  16.786  21.396   3.945 -0.4139 -0.3688  0.2562
 5031W        W47948  14.606  22.070   4.641 -0.0390 -0.1524 -0.0744
 5032W        W47949  16.237  24.397   4.465 -0.0705  0.0486  0.4902
 5033W        W47950  14.620  22.869   5.112 -0.1918 -0.1966 -0.1271
 5034W        W47951  16.505  23.728   5.344 -0.0978  0.0449  0.2490
 5035W        W47952  16.971  23.711   1.577  0.3525  0.4286 -0.0511
 5036W        W47953  16.262  22.181   4.277 -0.2641 -0.0177  0.3671
 5037W        W47954  16.771  22.434   3.323 -0.0514 -0.0315 -0.1439
 5038W        W47955  13.559  22.925   3.613 -0.0300 -0.0094  0.1416
 5039W        W47956  17.341  25.159   1.442 -0.1830  0.0769  0.0557
 5040W        W47957  16.885  24.324   4.391  0.0138  0.3082 -0.0779
 5041W        W47958  15.683  25.811   4.325  0.2259 -0.0446 -0.0553
 5042W        W47959  15.650  24.321   2.771 -0.2663 -0.0005  0.1713
 5043W        W47960  12.479  23.955   7.797 -0.0476 -0.2055 -0.1181
 5044W        W47961  15.514  22.726   6.300  0.1953  0.0499 -0.0554
 5045W        W47962  14.724  21.644   2.729  0.2328  0.2643 -0.1383
 5046W        W47963  18.306  23.618   7.208  0.0440 -0.0067  0.0170
 5047W        W47964  13.761  24.100   5.858  0.0541 -0.0799 -0.1088
 5048W        W47965  19.208  22.633   5.096  0.2592 -0.0905 -0.1709
 5049W        W47966  14.369  24.336   3.328 -0.1350  0.0332  0.2531
 5050W        W47967  16.268  25.106   4.971 -0.3100  0.2047  0.3268
 5051W        W47968  15.759  23.872   2.861 -0.0528 -0.1450 -0.0643
 5052W        W47969  15.409  20.763   4.447  0.0471  0.0069  0.1000
 5053W        W47970  16.688  23.406   5.694  0.1865  0.2841 -0.1691
 5054W        W47971  17.344  22.583   3.291 -0.0345 -0.1585 -0.1586
 5055W        W47972  15.132  23.118   5.203  0.1297  0.2015  0.1162
 5056W        W47973  17.266  25.621   6.038 -0.0552  0.0284  0.0567
 5057W        W47974  18.587  23.438   3.898  0.1310  0.2882 -0.1722
 5058W        W47975  15.471  23.161   4.181 -0.3321  0.0374 -0.2586
 5059W        W47976  17.025  22.179   5.376  0.0668 -0.1320  0.1430
 5060W        W47977  15.038  23.558   5.376 -0.3103  0.1574  0.0115
 5061W        W47978  15.921  25.904   2.116  0.1356  0.4146 -0.1171
 5062W        W47979  16.583  24.213   1.907  0.2320 -0.1767  0.0941
 5063W        W47980  16.636  23.283   3.555 -0.2271 -0.1856  0.1015
 5064W        W47981  13.305  21.353   7.111 -0.2140  0.3088 -0.1014
 5065W        W47982  14.641  23.995   5.188  0.2095  0.2174  0.1437
 5066W        W47983  17.244  21.358   4.898 -0.6855 -0.4227  0.1356
 5067W        W47984  14.493  22.903   6.800 -0.1160 -0.0910  0.0590
 5068W        W47985  16.395  21.938   4.679  0.3260 -0.1284 -0.0077
 5069W        W47986  14.431  26.199   3.938 -0.1683  0.2289 -0.1037
 5070W        W47987  17.902  24.423   3.880 -0.0552 -0.1008 -0.0775
 5071W        W47988  16.108  23.417   4.441  0.2135  0.1705 -0.3488
 5072W        W47989  17.428  25.638   3.486 -0.0949 -0.0855  0.1628
 5073W        W47990  13.805  23.156   5.022  0.2791  0.2743  0.0704
 5074W        W47991  16.779  23.139   2.701 -0.0389  0.2713 -0.2930
 5075W        W47992  14.490  20.962   6.308 -0.0433  0.0243  0.1039
 5076W        W47993  15.392  22.344   4.491 -0.0864  0.0938 -0.0488
 5077W        W47994  17.154  23.196   5.691  0.1716  0.1104  0.0579
 5078W        W47995  14.497  23.481   3.827 -0.0399  0.0848  0.4477
 5079W        W47996  18.045  23.129   3.150  0.0333  0.0506  0.4580
 5080W        W47997  14.963  21.841   3.762 -0.1406  0.0440 -0.4862
 5081W        W47998  15.358  24.742   2.251 -0.1024  0.0497  0.1469
 5082W        W47999  17.110  20.857   4.895 -0.1065  0.0850  0.3467
 5083W        W48000  17.538  26.155   3.960 -0.0133 -0.0867 -0.4052
 5084W        W48001  17.827  23.841   6.394  0.2737 -0.1161  0.1728
 5085W        W48002  16.479  24.762   5.395  0.1838  0.2016  0.2438
 5086W        W48003  15.799  22.270   6.656 -0.1470 -0.2520 -0.0638
 5087W        W48004  16.180  22.313   3.782 -0.1877  0.1095 -0.1536
 5088W        W48005  15.442  26.106   3.912 -0.0398  0.1214  0.1029
 5089W        W48006  15.370  25.267   2.491 -0.0166  0.1901 -0.2847
 5090W        W48007  15.320  21.617   3.051  0.0083 -0.0938 -0.1863
 5091W        W48008  15.352  25.331   5.471 -0.0608  0.1587 -0.1811
 5092W        W48009  15.981  22.644   2.510 -0.3646  0.1087 -0.1637
 5093W        W48010  16.271  23.221   6.604  0.2061 -0.0997  0.3751
 5094W        W48011  18.669  20.332   5.133 -0.0060  0.3488 -0.1429
 5095W        W48012  15.928  24.704   4.801 -0.0883  0.1392  0.0832
 5096W        W48013  13.906  21.952   4.672  0.0294 -0.1152 -0.0443
 5097W        W48014  15.492  23.374   2.030 -0.2130 -0.3473  0.1936
 5098W        W48015  15.340  25.767   4.643  0.1540 -0.2774 -0.1825
 5099W        W48016  15.271  23.797   2.892 -0.1026 -0.2731  0.1243
 5100W        W48017  13.064  22.777   3.905 -0.1169  0.0391 -0.0351
 5101W        W48018  13.267  21.304   5.748 -0.0625  0.2844  0.4194
 5102W        W48019  18.845  21.475   4.035  0.0329  0.2416  0.2828
 5103W        W48020  14.649  23.013   7.267 -0.0478  0.3130  0.2206
 5104W        W48021  16.220  23.059   5.723 -0.2656 -0.1420  0.1861
 5105W        W48022  14.963  23.310   1.930 -0.1577  0.0926 -0.0923
 5106W        W48023  14.072  23.958   5.344 -0.2536 -0.1671  0.1527
 5107W        W48024  15.633  21.005   4.904  0.0501  0.0971  0.1577
 5108W        W48025  17.479  23.086   3.061 -0.2878  0.2300  0.1792
 5109W        W48026  14.663  23.153   4.218  0.1694 -0.3747  0.0568
 5110W        W48027  16.940  24.203   3.761 -0.1596 -0.2002  0.0264
 5111W        W48028  17.414  23.603   3.635 -0.1164 -0.1880 -0.2118
 5112W        W48029  17.693  21.712   3.127  0.1601 -0.1248 -0.1134
 5113W        W48030  13.898  23.559   5.582 -0.1859 -0.1182 -0.0081
 5114W        W48031  17.852  24.755   4.252 -0.0304  0.2058 -0.0351
 5115W        W48032  16.145  26.075   4.477  0.2119  0.2895  0.0071
 5116W        W48033  15.900  21.335   2.648  0.1369  0.0001  0.1129
 5117W        W48034  18.274  25.031  31.795  0.0453  0.3516 -0.3491
 5118W        W48035  12.279  24.354   6.014  0.0417  0.1872  0.0121
 5119W        W48036  15.527  23.545   5.315 -0.2671 -0.2332 -0.0759
 5120W        W48037  16.626  23.459   4.223 -0.1550 -0.2041  0.4006
 5121W        W48038  16.616  21.426   7.228  0.1053  0.0880 -0.2327
 5122W        W48039  16.559  20.983   3.743 -0.2698  0.1658  0.0241
 5123W        W48040  15.825  23.401   3.927 -0.0160  0.0076 -0.4115
 5124W        W48041  14.579  25.031   3.943 -0.0073  0.2124  0.1693
 5125W        W48042  15.905  23.518   6.388 -0.2778 -0.2216  0.1307
 5126W        W48043  15.058  22.244   4.849 -0.0135  0.4551 -0.2399
 5127W        W48044  16.496  21.572   7.724  0.1892 -0.0888  0.1426
 5128W        W48045  18.727  24.515   6.169 -0.0685 -0.0813 -0.0191
 5129W        W48046  17.247  24.351   4.799 -0.1743 -0.2033 -0.1217
 5130W        W48047  15.128  26.035   5.097  0.2756  0.0388 -0.0233
 5131W        W48048  15.924  23.477   2.282  0.1306 -0.3911 -0.0963
 5132W        W48049  14.707  22.055   5.616  0.0676  0.2790  0.1654
 5133W        W48050  15.142  22.904   5.938  0.2709  0.0369  0.1968
 5134W        W48051  13.868  24.122   4.925  0.4285 -0.0052  0.0696
 5135W        W48052  14.763  23.431   5.005 -0.0076 -0.0884 -0.1227
 5136W        W48053  16.635  23.759   3.710 -0.1254  0.0104 -0.2154
 5137W        W48054  17.167  20.505   6.627 -0.1022 -0.0173  0.1332
 5138W        W48055  15.288  21.853   1.590  0.1145  0.3263 -0.2536
 5139W        W48056  15.432  24.238   3.205  0.2713 -0.2938  0.0670
 5140W        W48057  15.466  21.692   4.762  0.1495 -0.0061  0.2998
 5141W        W48058  18.099  24.709   5.141 -0.1614 -0.1027 -0.0277
 5142W        W48059  17.922  22.836   1.315  0.0763  0.1197 -0.0268
 5143W        W48060  16.426  23.570   4.871 -0.1952 -0.1232  0.3465
 5144W        W48061  15.266  25.175   3.508  0.3135 -0.1778  0.1023
 5145W        W48062  15.831  20.851   6.147  0.4464 -0.1437  0.0467
 5146W        W48063  14.942  24.140   3.936  0.2649  0.0608  0.1366
 5147W        W48064  16.064  21.583   3.470 -0.1768 -0.1395  0.1034
 5148W        W48065  15.179  22.799   1.898 -0.1052  0.2219 -0.2148
 5149W        W48066  16.676  21.355   4.886 -0.0981 -0.1039 -0.4952
 5150W        W48067  17.150  23.814   1.141  0.1017 -0.2024 -0.0646
 5151W        W48068  16.307  20.350   5.289  0.2725 -0.1069  0.2116
 5152W        W48069  14.659  21.937   6.105  0.0142 -0.0865  0.1000
 5153W        W48070  16.091  27.145   4.805  0.0253 -0.1429  0.0130
 5154W        W48071  16.347  26.061   5.724 -0.1047  0.1972  0.0724
 5155W        W48072  16.973  22.499   4.179  0.2260  0.0822 -0.0527
 5156W        W48073  16.790  24.308   6.209 -0.1767  0.2470  0.0126
 5157W        W48074  15.874  23.522   8.111 -0.1527  0.0057  0.0855
 5158W        W48075  15.943  22.972   4.195 -0.1033  0.2248 -0.3060
 5159W        W48076  15.842  23.174   5.401 -0.5798 -0.1368 -0.2240
 5160W        W48077  14.802  22.302   3.647  0.1207 -0.1765  0.2512
 5161W        W48078  12.899  27.361   7.061 -0.2325  0.1037 -0.2717
 5162W        W48079  14.800  25.253   4.957  0.0713  0.0282  0.1347
 5163W        W48080  15.845  22.437   4.224  0.1782 -0.0502 -0.0335
 5164W        W48081  14.064  25.159   2.907 -0.2430 -0.0444 -0.1871
 5165W        W48082  16.798  22.020   4.958 -0.2759  0.0080 -0.0708
 5166W        W48083  16.091  23.084   4.892 -0.2496  0.2643 -0.3722
 5167W        W48084  16.103  23.537   2.997  0.0729 -0.3704  0.3958
 5168W        W48085  15.576  23.232   4.911 -0.3953 -0.0228 -0.0878
 5169W        W48086  16.063  21.657   4.419  0.0732  0.4063  0.1663
 5170W        W48087  16.629  24.717   4.566 -0.2051 -0.3918  0.0565
 5171W        W48088  16.545  24.638   5.930 -0.0826 -0.3503 -0.0290
 5172W        W48089  17.279  22.192   4.015  0.5246 -0.1618 -0.2149
 5173W        W48090  16.588  25.480   1.414  0.0456  0.0610  0.2555
 5174W        W48091  16.759  23.855   6.456  0.1007  0.1644  0.2861
 5175W        W48092  14.829  23.671   4.095 -0.1514 -0.2562 -0.0683
 5176W        W48093  13.857  22.861   4.543 -0.0198 -0.0496  0.2983
 5177W        W48094  14.458  25.062   2.598  0.1131 -0.2860 -0.0067
 5178W        W48095  16.201  22.611   6.471  0.0574 -0.0600 -0.4829
 5179W        W48096  15.708  23.921   3.997 -0.1420  0.0499 -0.2901
 5180W        W48097  15.572  25.362   4.113 -0.2020 -0.0623 -0.0160
 5181W        W48098  14.401  24.293   5.560  0.3122 -0.0938  0.1648
 5182W        W48099  17.949  21.226   3.050  0.1170 -0.2531  0.1084
 5183W        W48100  15.860  25.920   1.384  0.2802  0.3671 -0.0857
 5184W        W48101  16.072  22.674   4.566  0.0206  0.1855  0.1605
 5185W        W48102  17.608  21.466   4.195  0.1890  0.1576  0.2432
 5186W        W48103  17.859  24.328   1.260  0.0180  0.0557  0.0256
 5187W        W48104  17.760  22.148   7.742 -0.0440 -0.2536 -0.1579
 5188W        W48105  15.094  22.323   5.402  0.0189 -0.0284  0.1691
 5189W        W48106  17.746  23.368   4.848 -0.0742  0.0558 -0.2572
 5190W        W48107  14.798  21.870   5.127 -0.0861  0.1776 -0.0533
 5191W        W48108  18.138  25.351   5.818 -0.0434 -0.0714  0.2907
 5192W        W48109  15.903  23.766   7.255 -0.1423  0.0132 -0.0122
 5193W        W48110  16.682  20.866   2.261 -0.2063 -0.1542  0.1385
 5194W        W48111  15.620  22.776   4.562 -0.0164 -0.3388 -0.0176
 5195W        W48112  15.800  22.745   5.070  0.3945 -0.0346  0.0054
 5196W        W48113  18.429  23.831   3.621 -0.0411  0.0696  0.1697
 5197W        W48114  16.494  25.081   3.653  0.5829 -0.0454 -0.3673
 5198W        W48115  20.692  21.865   2.728 -0.0438  0.2895 -0.1575
 5199W        W48116  15.525  24.327   4.566  0.3059  0.2518 -0.1928
 5200W        W48117  16.992  23.372   3.874 -0.2445 -0.1387  0.2366
 5201W        W48118  15.489  24.893   3.868 -0.3349 -0.1054  0.0277
 5202W        W48119  15.679  23.279   3.053 -0.1331 -0.5177 -0.0475
 5203W        W48120  14.833  21.555   6.760 -0.1382 -0.0760 -0.2311
 5204W        W48121  15.634  23.552   4.469 -0.0935  0.0965 -0.2166
 5205W        W48122  16.457  23.454   6.198 -0.0238  0.2537 -0.1324
 5206W        W48123  15.680  24.288   5.596  0.0583 -0.1014  0.1716
 5207W        W48124  19.064  25.493   4.900  0.2420  0.1490  0.0861
 5208W        W48125  15.667  22.037   5.706  0.1109 -0.0052 -0.1156
 5209W        W48126  14.020  24.693   6.873 -0.0578 -0.0209  0.0759
 5210W        W48127  16.597  25.566   5.642 -0.1096 -0.2293 -0.3980
 5211W        W48128  17.625  22.153   3.372  0.2410  0.2626 -0.1803
 5212W        W48129  15.893  23.882   5.415  0.0599 -0.0434  0.4408
 5213W        W48130  17.901  23.652   5.409  0.1261  0.1492 -0.1005
 5214W        W48131  18.260  23.982   4.611  0.1795 -0.0820  0.3168
 5215W        W48132  14.096  23.327   6.636 -0.2215  0.0097  0.2402
 5216W        W48133  17.306  24.379   7.143  0.3435  0.1459 -0.2700
 5217W        W48134  17.379  24.083   3.556 -0.2093 -0.0114  0.0269
 5218W        W48135  17.843  21.775   2.589 -0.0574  0.1629 -0.0414
 5219W        W48136  14.765  25.805   1.369  0.0590 -0.0378  0.2347
 5220W        W48137  17.181  23.970   5.102  0.0021 -0.0346  0.1905
 5221W        W48138  15.498  21.729   2.609  0.0071 -0.0962 -0.1039
 5222W        W48139  15.577  22.351   4.990 -0.1281 -0.2325  0.0108
 5223W        W48140  14.279  24.351   5.088  0.0371 -0.0798  0.3065
 5224W        W48141  14.233  23.239   3.316 -0.2983  0.1209  0.2008
 5225W        W48142  15.624  25.648   2.787  0.2904  0.2179  0.0433
 5226W        W48143  13.745  22.433   4.787  0.0514  0.0806 -0.2589
 5227W        W48144  17.604  21.392   6.072  0.2415 -0.2517 -0.5130
 5228W        W48145  16.011  21.133   1.704 -0.1564  0.1188 -0.0302
 5229W        W48146  16.322  22.912   7.111 -0.0706 -0.0336  0.3229
 5230W        W48147  14.621  23.976   4.418 -0.0621 -0.0352  0.1883
 5231W        W48148  14.894  21.209   3.251 -0.0274 -0.0512 -0.2999
 5232W        W48149  15.269  25.267   4.596  0.1262  0.0464 -0.1665
 5233W        W48150  12.482  24.949   5.762  0.1605  0.0632 -0.0814
 5234W        W48151  15.991  25.234   2.572  0.0407  0.0701 -0.1704
 5235W        W48152  14.388  21.728   5.516 -0.2231 -0.0409 -0.1992
 5236W        W48153  17.102  23.050   5.200  0.0627 -0.2516  0.3066
 5237W        W48154  14.813  23.020   4.697  0.4373 -0.0489 -0.4071
 5238W        W48155  18.034  23.036   5.565  0.1353  0.1152  0.1196
 5239W        W48156  16.061  23.029   6.176  0.1585 -0.1219  0.1631
 5240W        W48157  14.100  22.345   4.419 -0.3059  0.2423  0.0313
 5241W        W48158  16.747  24.231   5.576 -0.2121  0.3069  0.1136
 5242W        W48159  17.847  24.130   4.347  0.2662  0.1201  0.0861
 5243W        W48160  16.080  25.498   4.488  0.0782 -0.1960 -0.1806
 5244W        W48161  14.683  23.506   7.402 -0.0657 -0.0365  0.0340
 5245W        W48162  16.341  22.488   7.454  0.0326 -0.0515 -0.0833
 5246W        W48163  14.810  21.804   3.279 -0.0456 -0.1166  0.0311
 5247W        W48164  13.473  23.240   5.909 -0.0789 -0.1625 -0.3226
 5248W        W48165  15.445  26.677   2.266  0.3116  0.0351  0.0800
 5249W        W48166  14.179  23.041   5.277  0.2854  0.1120 -0.0513
 5250W        W48167  14.256  23.753   7.386  0.2279 -0.0344  0.1348
 5251W        W48168  13.490  27.226   4.179  0.2672  0.1587  0.0294
 5252W        W48169  16.453  25.243   2.825  0.0864 -0.5014 -0.1127
 5253W        W48170  16.419  25.059   2.344  0.4220  0.0602  0.0651
 5254W        W48171  15.765  26.717   5.972 -0.1675  0.0432  0.2780
 5255W        W48172  15.317  22.134   3.358  0.0777  0.2218 -0.1957
 5256W        W48173  14.352  24.955   4.483 -0.1291 -0.0743  0.0102
 5257W        W48174  15.235  23.514   3.454  0.0323 -0.3338 -0.0657
 5258W        W48175  16.718  25.379   3.214 -0.5535  0.0381 -0.1723
 5259W        W48176  15.299  23.995   3.597  0.0575 -0.2267  0.0218
 5260W        W48177  17.570  25.263   5.726  0.0720 -0.2623  0.1116
 5261W        W48178  17.522  19.792   2.590 -0.2046  0.0197 -0.0606
 5262W        W48179  18.548  22.717   4.850 -0.1021 -0.1317 -0.0263
 5263W        W48180  17.776  23.633   4.421  0.0257 -0.0832 -0.1211
 5264W        W48181  15.782  24.460   6.042 -0.1289 -0.0663  0.0980
 5265W        W48182  14.790  21.406   3.726 -0.3541 -0.0827 -0.0108
 5266W        W48183  15.091  23.221   0.728 -0.0015  0.1112 -0.0403
 5267W        W48184  16.729  25.247   6.608 -0.0862 -0.0999  0.1184
 5268W        W48185  15.506  21.628   6.062  0.0050 -0.1438 -0.0469
 5269W        W48186  12.041  23.417   6.215 -0.0796 -0.0897  0.3036
 5270W        W48187  16.772  26.334   3.687 -0.1273 -0.0393 -0.0795
 5271W        W48188  15.103  21.975   2.289  0.0918  0.1326 -0.0963
 5272W        W48189  14.193  21.983   6.533  0.0822  0.1016 -0.0444
 5273W        W48190  17.891  22.585   5.559  0.0153 -0.0298 -0.0596
 5274W        W48191  14.578  26.493   2.060 -0.1475 -0.1293 -0.1437
 5275W        W48192  16.585  21.541   4.440 -0.2683 -0.2151  0.0226
 5276W        W48193  16.225  24.576   3.180  0.1039 -0.1023  0.0603
 5277W        W48194  15.587  23.822   2.294 -0.0950 -0.2216 -0.3351
 5278W        W48195  13.492  26.483   5.509  0.1160 -0.0352 -0.2004
 5279W        W48196  14.006  22.545   5.327 -0.0205  0.2622  0.1739
 5280W        W48197  16.949  21.376   5.827 -0.0812  0.1757 -0.0599
 5281W        W48198  15.146  23.577   6.844  0.0237  0.3692  0.3630
 5282W        W48199  16.448  22.220   6.122  0.0620 -0.0855 -0.1767
 5283W        W48200  12.784  23.631   3.645 -0.0898  0.0205  0.0213
 5284W        W48201  17.959  21.301   1.666 -0.2480  0.0285 -0.0887
 5285W        W48202  14.260  23.023   4.787  0.0155 -0.1854 -0.0533
 5286W        W48203  15.588  22.172   6.194 -0.1571  0.1045  0.0511
 5287W        W48204  16.886  21.399   3.037  0.1891 -0.1703  0.0770
 5288W        W48205  15.745  22.890   5.810 -0.0180 -0.0145 -0.1019
 5289W        W48206  17.365  24.171   4.092 -0.0711 -0.3272 -0.1428
 5290W        W48207  16.846  27.415   7.880 -0.1707  0.0807 -0.3119
 5291W        W48208  13.196  21.300   5.280 -0.1301  0.0078  0.1753
 5292W        W48209  18.012  22.407   2.555 -0.2068  0.3631  0.1950
 5293W        W48210  14.322  22.565   3.929  0.3174 -0.0178  0.2404
 5294W        W48211  14.781  22.742   3.909  0.2168 -0.0954  0.0766
 5295W        W48212  17.237  24.075   6.178 -0.1670 -0.1306 -0.1941
 5296W        W48213  13.588  23.062   4.052  0.0234 -0.0844 -0.2315
 5297W        W48214  17.435  24.127   1.505 -0.2355  0.0561  0.1635
 5298W        W48215  17.322  21.338   5.397 -0.4439  0.2794  0.0490
 5299W        W48216  15.199  24.699   3.111  0.0039  0.1905 -0.1351
 5300W        W48217  17.430  23.071   3.628  0.0362  0.1111  0.0073
 5301W        W48218  15.248  23.993   5.259  0.3551 -0.1505 -0.2050
 5302W        W48219  14.622  23.255   5.504  0.1135 -0.3148 -0.1564
 5303W        W48220  15.703  24.299   5.105 -0.3741  0.0632 -0.1417
 5304W        W48221  17.910  25.517   5.440 -0.0779 -0.1324 -0.1726
 5305W        W48222  18.105  20.277   0.229 -0.2632 -0.2310 -0.2600
 5306W        W48223  15.400  22.889   2.840  0.0835  0.1528  0.3908
 5307W        W48224  15.393  24.317   4.046  0.3547  0.3476 -0.0944
 5308W        W48225  17.524  21.985   4.442 -0.1923  0.1218  0.0149
 5309W        W48226  16.975  22.845   4.552  0.0974 -0.2543  0.1294
 5310W        W48227  16.817  26.250   4.479  0.3579 -0.0477  0.0650
 5311W        W48228  18.078  22.076   7.237  0.3590 -0.0418 -0.4447
 5312W        W48229  15.121  23.425   4.553  0.0275 -0.1852  0.1784
 5313W        W48230  13.083  26.960   6.400  0.0874 -0.1247  0.1631
 5314W        W48231  14.652  22.867   3.389  0.1277 -0.1877 -0.3380
 5315W        W48232  15.994  23.986   4.550  0.3815 -0.3434 -0.1244
 5316W        W48233  16.212  22.572   2.076  0.0527  0.2838 -0.0540
 5317W        W48234  16.208  25.434   2.050 -0.1082 -0.1138 -0.0046
 5318W        W48235  17.643  24.543   5.224  0.3437  0.0143 -0.0909
 5319W        W48236  17.059  23.323   4.400  0.2964  0.0092 -0.0982
 5320W        W48237  17.921  25.909   4.743  0.0654 -0.0069 -0.3443
 5321W        W48238  14.180  23.828   5.998 -0.0524 -0.1760 -0.2523
 5322W        W48239  17.128  22.196   3.560 -0.1111  0.1107  0.1818
 5323W        W48240  16.311  21.147   4.579  0.0700  0.0798 -0.0354
 5324W        W48241  13.355  24.324   6.695 -0.0786  0.1155 -0.1664
 5325W        W48242  15.243  22.763   4.915 -0.0789 -0.0008 -0.0801
 5326W        W48243  15.695  22.448   3.594 -0.0051 -0.0351 -0.0722
 5327W        W48244  15.257  23.917   4.426  0.1083 -0.2466 -0.1413
 5328W        W48245  14.569  20.684   8.911 -0.0181  0.2642  0.4827
 5329W        W48246  14.871  22.484   5.862  0.3564 -0.0976 -0.0632
 5330W        W48247  15.977  23.570   5.013 -0.2001 -0.3084  0.0386
 5331W        W48248  15.702  21.980   4.284 -0.0564 -0.1062 -0.3158
 5332W        W48249  16.504  23.899   4.452  0.0895 -0.1991 -0.0231
 5333W        W48250  14.640  20.673   5.843 -0.0519  0.0542 -0.0641
 5334W        W48251  13.729  23.517   4.172 -0.0632 -0.1187  0.0895
 5335W        W48252  17.337  23.892   4.568 -0.0446 -0.0797 -0.2238
 5336W        W48253  16.974  24.887   3.578  0.3033 -0.1042  0.2502
 5337W        W48254  14.358  23.010   3.821 -0.0656 -0.0148 -0.2918
 5338W        W48255  16.470  24.166   3.970 -0.1138 -0.1356 -0.0656
 5339W        W48256  15.798  22.124   3.251  0.0867 -0.1680 -0.0435
 5340W        W48257  14.962  22.767   6.384  0.0733  0.1379 -0.2493
 5341W        W48258  16.189  21.523   4.954  0.0399  0.0281  0.0643
 5342W        W48259  13.343  24.115   2.269  0.1454 -0.1156 -0.3728
 5343W        W48260  16.689  22.886   5.541 -0.3026  0.1577 -0.2515
 5344W        W48261  15.465  27.023   4.177  0.0753 -0.0040  0.2435
 5345W        W48262  15.979  26.606   5.216 -0.0356  0.0317 -0.0504
 5346W        W48263  14.663  22.988   5.992  0.0511  0.3470  0.0073
 5347W        W48264  15.787  25.879   4.808  0.1669 -0.0602  0.3536
 5348W        W48265  12.964  20.714   6.161 -0.0439  0.1618  0.0829
 5349W        W48266  17.017  23.561   2.672 -0.1359 -0.1192 -0.1088
 5350W        W48267  14.486  25.356   5.909  0.0327  0.0221  0.2710
 5351W        W48268  18.644  24.744   4.527  0.2721 -0.1508 -0.2576
 5352W        W48269  16.626  21.920   5.671  0.0898  0.1901  0.5171
 5353W        W48270  17.817  23.348   3.901 -0.2348  0.2836 -0.0342
 5354W        W48271  15.014  21.096   6.885 -0.3342  0.0123 -0.0017
 5355W        W48272  15.323  24.054   6.744  0.2243  0.4521  0.1266
 5356W        W48273  16.827  23.834   5.964  0.0908  0.0138  0.1751
 5357W        W48274  14.281  22.030   5.149  0.1412  0.0744 -0.1991
 5358W        W48275  14.772  22.333   2.683 -0.3534 -0.3109  0.1085
 5359W        W48276  17.211  26.510   2.621 -0.0173 -0.0368  0.0281
 5360W        W48277  15.604  23.221   6.099  0.3146  0.3124  0.0887
 5361W        W48278  16.250  22.478   3.264  0.1865  0.0191 -0.1702
 5362W        W48279  15.915  23.461   5.806 -0.0513  0.1259 -0.0259
 5363W        W48280  15.920  22.206   4.693  0.1175 -0.0100  0.2412
 5364W        W48281  16.322  23.771   5.784 -0.2474 -0.0380  0.2447
 5365W        W48282  16.472  23.535   2.592  0.2413 -0.0853 -0.0367
 5366W        W48283  19.807  23.143   4.322  0.2388 -0.1923 -0.3112
 5367W        W48284  17.779  26.360   6.667 -0.1505  0.1314 -0.0487
 5368W        W48285  17.316  25.092   7.899 -0.0094 -0.2223 -0.0117
 5369W        W48286  14.299  25.268   5.368 -0.0170 -0.2056 -0.1856
 5370W        W48287  18.990  24.526   5.547  0.2155 -0.2083 -0.0342
 5371W        W48288  15.052  21.446   5.925  0.0758 -0.0378 -0.0676
 5372W        W48289  13.905  21.627   6.400 -0.0982 -0.6634  0.6411
 5373W        W48290  16.903  23.922   3.319 -0.1488  0.2755  0.2579
 5374W        W48291  16.167  23.801   4.083 -0.1014  0.0448 -0.2538
 5375W        W48292  16.196  22.072   6.509  0.2838 -0.2125 -0.0866
 5376W        W48293  18.568  22.413   3.890 -0.4171 -0.1606 -0.0837
 5377W        W48294  16.291  23.293   3.900 -0.2918  0.2600  0.3006
 5378W        W48295  14.729  24.945   6.062  0.2188  0.1117 -0.0356
 5379W        W48296  16.684  25.538   8.425 -0.0417 -0.0530  0.2044
 5380W        W48297  15.204  23.069   8.176 -0.1144  0.2742  0.1714
 5381W        W48298  17.778  23.430   6.975  0.1423 -0.2844  0.3276
 5382W        W48299  18.555  23.681   8.560  0.1084  0.0287 -0.1575
 5383W        W48300  14.970  23.041   6.871 -0.0448  0.0575 -0.0551
 5384W        W48301  15.348  21.401  10.135 -0.2988 -0.1249  0.1280
 5385W        W48302  15.346  24.268   8.971  0.0224 -0.2148 -0.0865
 5386W        W48303  19.558  25.849   8.908  0.1991 -0.0269 -0.0035
 5387W        W48304  16.552  23.005   6.149  0.1745 -0.0016 -0.2682
 5388W        W48305  15.758  21.886   7.014  0.1643 -0.1260  0.1162
 5389W        W48306  15.778  20.277   8.728 -0.1664 -0.1588 -0.0779
 5390W        W48307  13.664  21.103  10.438 -0.0689  0.1688 -0.0675
 5391W        W48308  23.278  21.425   8.669  0.2900 -0.0126 -0.0916
 5392W        W48309  15.087  23.502   7.794  0.3326  0.2351 -0.1103
 5393W        W48310  17.399  22.980   9.497 -0.0916 -0.1635 -0.1405
 5394W        W48311  16.377  22.803   8.478 -0.0355 -0.1681  0.0163
 5395W        W48312  15.616  26.436   7.950 -0.0139  0.2143  0.3226
 5396W        W48313  16.554  22.887   8.975  0.1628  0.0479  0.4198
 5397W        W48314  14.789  25.270   6.849  0.0195 -0.2516  0.2024
 5398W        W48315  15.328  23.841   7.221  0.0513  0.1092  0.4008
 5399W        W48316  16.869  17.230   9.853  0.2258 -0.2317  0.2853
 5400W        W48317  14.858  23.539   9.211  0.0987 -0.0341  0.1286
 5401W        W48318  16.461  23.366   9.042  0.0209 -0.0682 -0.1605
 5402W        W48319  16.557  22.362   8.264 -0.0329 -0.0435 -0.2232
 5403W        W48320  14.459  25.406   7.181 -0.0274 -0.0895 -0.2674
 5404W        W48321  17.899  26.726   7.603  0.1443 -0.1303 -0.0413
 5405W        W48322  14.259  21.675   8.387  0.2039  0.0071 -0.3027
 5406W        W48323  15.802  25.874   8.414  0.2042 -0.1709  0.6374
 5407W        W48324  16.404  24.171   6.626  0.3776 -0.1719 -0.2164
 5408W        W48325  17.043  24.941   7.501 -0.0492 -0.3007 -0.0243
 5409W        W48326  14.608  26.364   7.162 -0.2903 -0.2688 -0.1076
 5410W        W48327  14.978  24.442   8.072 -0.1307  0.0067  0.1100
 5411W        W48328  16.985  22.706   9.226 -0.0940 -0.0554 -0.2479
 5412W        W48329  17.274  25.074   6.077 -0.0218  0.0011  0.0244
 5413W        W48330  20.001  22.358   9.271  0.0885  0.4213 -0.0268
 5414W        W48331  16.072  24.472   8.525 -0.0910 -0.1391  0.0195
 5415W        W48332  15.668  23.625   6.875 -0.1478  0.3104  0.0331
 5416W        W48333  16.431  23.402   7.103  0.1667  0.0209 -0.4044
 5417W        W48334  13.601  22.283   5.347 -0.2547  0.0711  0.0168
 5418W        W48335  16.833  21.053   6.163 -0.4398  0.1262 -0.1434
 5419W        W48336  14.847  21.667   9.957  0.2299  0.0880 -0.0704
 5420W        W48337  16.525  27.142   9.891 -0.3785 -0.0762  0.0867
 5421W        W48338  15.784  20.471  10.945  0.4313 -0.0293 -0.2973
 5422W        W48339  15.677  24.123   9.360  0.1503  0.1188 -0.1198
 5423W        W48340  17.990  20.585   8.157  0.1319  0.1186  0.1035
 5424W        W48341  18.559  25.659   7.832 -0.1810  0.2864 -0.0325
 5425W        W48342  14.779  22.228   7.926  0.1139 -0.0936 -0.0866
 5426W        W48343  16.445  23.165   7.535 -0.0651 -0.0295 -0.0524
 5427W        W48344  17.866  24.058   8.402  0.1247  0.6220 -0.1375
 5428W        W48345  16.666  26.096   5.324 -0.0597  0.2511 -0.1708
 5429W        W48346  13.596  22.614  10.074  0.2696  0.2475 -0.1540
 5430W        W48347  15.692  21.791   6.502  0.2005  0.0852  0.1266
 5431W        W48348  18.466  23.096   6.233  0.1481 -0.1227  0.1923
 5432W        W48349  15.478  25.116   7.860  0.0282 -0.0270  0.0032
 5433W        W48350  19.359  27.619   8.572  0.1321 -0.0265 -0.0662
 5434W        W48351  16.872  23.995   7.810  0.0954  0.4364 -0.0117
 5435W        W48352  18.368  18.405  10.377 -0.1256 -0.0099 -0.3609
 5436W        W48353  16.069  23.947   7.804 -0.0013 -0.0739 -0.0206
 5437W        W48354  15.178  24.671   6.308 -0.0538  0.0906 -0.0169
 5438W        W48355  15.151  24.674   8.837 -0.2547 -0.0799  0.1159
 5439W        W48356  18.239  24.096   8.800  0.3381 -0.0448  0.1853
 5440W        W48357  18.098  22.680   6.876 -0.1446  0.0784 -0.1138
 5441W        W48358  15.626  26.780   8.323 -0.2296  0.4167  0.0592
 5442W        W48359  15.344  25.065   7.373 -0.0121  0.2503  0.2197
 5443W        W48360  12.787  22.586   9.354  0.0550 -0.0394 -0.0345
 5444W        W48361  15.457  23.238   9.127  0.0687  0.1920  0.0486
 5445W        W48362  14.360  23.315   9.486 -0.3707 -0.0079  0.3736
 5446W        W48363  15.843  25.488   6.682 -0.4885  0.1621 -0.1322
 5447W        W48364  17.254  23.223   6.853 -0.1005  0.1086 -0.2189
 5448W        W48365  17.705  20.470   9.187 -0.2328  0.0968  0.0520
 5449W        W48366  15.495  25.932   6.755 -0.1649 -0.0498 -0.1686
 5450W        W48367  17.210  23.206   8.386  0.1162 -0.1771 -0.0671
 5451W        W48368  17.049  21.648   8.770 -0.0754  0.2043  0.1870
 5452W        W48369  16.802  22.983   6.527 -0.1213  0.0636 -0.0164
 5453W        W48370  15.735  25.515   8.816  0.0269 -0.1667 -0.1020
 5454W        W48371  16.000  22.360   9.799 -0.2987 -0.1073 -0.0396
 5455W        W48372  15.249  21.880   7.774 -0.2927 -0.1342 -0.0494
 5456W        W48373  13.879  21.579   4.295  0.2312 -0.0495  0.1041
 5457W        W48374  14.342  21.596  11.234  0.3140 -0.0843  0.0870
 5458W        W48375  16.963  24.724   6.798  0.1797  0.0350  0.0604
 5459W        W48376  15.773  22.994   6.619  0.0265  0.2479 -0.1381
 5460W        W48377  16.964  23.376   7.753 -0.2507  0.0931  0.0239
 5461W        W48378  17.725  23.776   8.832  0.0716  0.0252 -0.1197
 5462W        W48379  16.292  25.222   8.153 -0.3890  0.3231  0.0929
 5463W        W48380  19.715  25.011   9.526 -0.2390 -0.1035 -0.0759
 5464W        W48381  16.313  23.888   8.835  0.0108 -0.5241 -0.1495
 5465W        W48382  15.567  25.193   8.465 -0.1147 -0.0360  0.1244
 5466W        W48383  17.328  23.651   6.457 -0.2365 -0.1791 -0.0188
 5467W        W48384  13.232  22.076  10.118 -0.1918 -0.2496 -0.1165
 5468W        W48385  17.707  24.259   8.969  0.1531  0.0550  0.0711
 5469W        W48386  16.267  25.297   7.170  0.3756  0.0322  0.2048
 5470W        W48387  18.168  24.609   8.707 -0.1377  0.1101 -0.0558
 5471W        W48388  17.683  23.217   8.686 -0.1686  0.2919  0.2401
 5472W        W48389  16.060  24.730   6.400  0.1118 -0.0536 -0.0605
 5473W        W48390  16.410  26.080   8.353  0.1348  0.1272 -0.0370
 5474W        W48391  14.911  26.316   5.445  0.0212 -0.3857 -0.0373
 5475W        W48392  16.381  22.568   9.419  0.0234  0.2199 -0.0628
 5476W        W48393  15.460  26.626   7.357  0.0307 -0.2377 -0.0237
 5477W        W48394  17.155  22.274   9.351  0.0549  0.1639  0.0300
 5478W        W48395  14.079  22.906   9.426 -0.0922 -0.1584  0.1965
 5479W        W48396  17.381  21.311   8.422 -0.2096 -0.0752  0.1917
 5480W        W48397  16.738  23.425   6.700 -0.2213 -0.0604 -0.0218
 5481W        W48398  18.404  22.530   7.465  0.0334  0.1851 -0.0516
 5482W        W48399  18.295  21.220   5.737 -0.2574  0.1720  0.1799
 5483W        W48400  16.358  21.916   8.106 -0.0805 -0.0946  0.2614
 5484W        W48401  15.632  22.313   8.725  0.1033 -0.1155 -0.0593
 5485W        W48402  15.186  23.972   8.353 -0.2157 -0.0367  0.0965
 5486W        W48403  16.751  21.082   7.761  0.1238 -0.1532  0.3155
 5487W        W48404  16.441  23.583   7.979  0.0562  0.2087  0.0439
 5488W        W48405  15.362  23.538   8.177 -0.6054 -0.0082 -0.0664
 5489W        W48406  16.263  24.100   7.083  0.1885  0.2922  0.0183
 5490W        W48407  13.767  22.499   9.606  0.0511 -0.1889 -0.1954
 5491W        W48408  17.443  23.772   7.425 -0.0721 -0.1700  0.1059
 5492W        W48409  15.897  21.130   9.369  0.3351 -0.0866  0.2072
 5493W        W48410  11.464  23.832   5.854 -0.3409  0.3630 -0.0570
 5494W        W48411  16.285  21.262   9.717  0.0493  0.1534 -0.0679
 5495W        W48412  14.395  22.852   9.831 -0.1589 -0.0479 -0.0022
 5496W        W48413  17.499  23.427   9.133 -0.0038  0.1056 -0.0491
 5497W        W48414  14.244  22.308   8.931  0.3389  0.3339 -0.0287
 5498W        W48415  14.608  23.480   6.904  0.1033 -0.1845 -0.0988
 5499W        W48416  16.652  22.409   9.042 -0.2108  0.0392  0.1582
 5500W        W48417  15.371  25.744   7.338  0.0662 -0.1726 -0.0117
 5501W        W48418  17.973  23.997   7.441 -0.1088 -0.0640  0.2315
 5502W        W48419  16.574  22.110   7.248 -0.0199  0.1060  0.2443
 5503W        W48420  15.856  25.726   6.213 -0.1110 -0.0589 -0.2090
 5504W        W48421  14.738  23.937   6.890  0.0705 -0.1614  0.0662
 5505W        W48422  17.415  20.771  10.535 -0.0469 -0.1407 -0.2829
 5506W        W48423  18.622  25.443   9.166 -0.1200 -0.1937 -0.0880
 5507W        W48424  14.907  24.305   6.588 -0.0028  0.2383  0.0374
 5508W        W48425  14.491  22.980   9.154  0.1207 -0.0471 -0.5459
 5509W        W48426  16.628  25.857   6.076  0.2857 -0.2411 -0.3406
 5510W        W48427  18.040  22.729   8.301  0.2265  0.0346  0.1698
 5511W        W48428  15.692  24.676   7.111 -0.0282 -0.0182  0.0564
 5512W        W48429  15.538  23.881   4.869  0.2040 -0.1170 -0.0282
 5513W        W48430  15.463  22.670   8.429 -0.1585 -0.0531 -0.2680
 5514W        W48431  18.571  22.769   8.750 -0.0106  0.1866 -0.0481
 5515W        W48432  18.894  24.024   7.041 -0.0528 -0.2052  0.0243
 5516W        W48433  17.033  18.947   9.754  0.0017  0.3261 -0.2548
 5517W        W48434  18.355  20.301   8.287 -0.1913 -0.0499 -0.0764
 5518W        W48435  14.743  24.003   8.028  0.0987 -0.1199  0.0593
 5519W        W48436  15.670  24.027   8.157  0.1590  0.3049 -0.0931
 5520W        W48437  15.904  24.217   6.480  0.0552 -0.2220  0.0819
 5521W        W48438  19.363  22.575   8.438  0.2901  0.0662 -0.0823
 5522W        W48439  14.325  22.480   9.419  0.1316 -0.0166 -0.2686
 5523W        W48440  14.802  25.782   7.975  0.1596  0.1138  0.0881
 5524W        W48441  14.437  24.129   9.501 -0.0707  0.3054 -0.2078
 5525W        W48442  15.918  22.630   7.030 -0.1357 -0.0601 -0.1848
 5526W        W48443  14.861  26.752   6.954 -0.1533 -0.1298 -0.1201
 5527W        W48444  18.576  21.578   9.427  0.1618 -0.0548 -0.0967
 5528W        W48445  14.863  22.600   9.338 -0.0513 -0.2851  0.0839
 5529W        W48446  15.044  21.416   7.891 -0.0306 -0.0178 -0.1333
 5530W        W48447  16.577  23.127   8.051  0.0858 -0.1734 -0.1003
 5531W        W48448  18.214  22.932  11.924  0.0098  0.1541 -0.1130
 5532W        W48449  17.133  24.081   9.349 -0.2443  0.4136  0.2585
 5533W        W48450  15.522  20.948   9.828  0.0278  0.3963  0.2835
 5534W        W48451  19.440  24.514   9.173 -0.0852  0.0751  0.1364
 5535W        W48452  14.402  25.008   9.261  0.1957  0.1986  0.0724
 5536W        W48453  14.826  25.420   9.074  0.1224  0.2110  0.0148
 5537W        W48454  15.748  24.771   7.632 -0.0292 -0.1384 -0.1047
 5538W        W48455  15.724  21.425   9.801  0.0077  0.0607 -0.2753
 5539W        W48456  15.499  25.112   9.355 -0.2346 -0.1856  0.0262
 5540W        W48457  17.159  25.981   7.602 -0.1622  0.1510 -0.2176
 5541W        W48458  17.279  24.789   8.369 -0.0875  0.1932 -0.2127
 5542W        W48459  19.026  20.219   7.360 -0.0761 -0.0203  0.1795
 5543W        W48460  16.697  24.171   5.069  0.1181 -0.1774 -0.2196
 5544W        W48461  16.203  21.571   8.427  0.2220 -0.0067 -0.0187
 5545W        W48462  16.786  23.337   8.620  0.0551  0.1604 -0.0564
 5546W        W48463  18.833  20.048   9.303  0.0179  0.1041  0.2174
 5547W        W48464  15.837  21.317   8.313 -0.1080 -0.3064 -0.2716
 5548W        W48465  17.048  23.302   9.280  0.1614 -0.1640 -0.1780
 5549W        W48466  13.232  22.909   6.657  0.3384  0.1277 -0.1813
 5550W        W48467  15.679  21.975   9.671  0.2258 -0.0089 -0.0707
 5551W        W48468  16.643  23.847   6.950 -0.1955 -0.0786  0.1368
 5552W        W48469  16.992  23.981   7.318 -0.0000  0.2306  0.2057
 5553W        W48470  18.728  22.078   9.264 -0.2550  0.2498 -0.0123
 5554W        W48471  15.226  24.375   7.088  0.0937 -0.4775  0.0483
 5555W        W48472  16.859  22.557   7.290 -0.0868  0.1581  0.2173
 5556W        W48473  16.173  21.945   7.525  0.0687  0.1561  0.2225
 5557W        W48474  15.103  26.570   8.278  0.0659  0.1719  0.0014
 5558W        W48475  17.140  24.106   8.863 -0.0837 -0.0977 -0.0485
 5559W        W48476  16.537  24.296   8.620  0.0642  0.3082 -0.1169
 5560W        W48477  19.609  24.738   8.663 -0.0529 -0.0447 -0.2435
 5561W        W48478  17.314  21.991   7.850  0.1250  0.0812 -0.1163
 5562W        W48479  16.509  23.041   9.437 -0.0623  0.0184  0.2375
 5563W        W48480  17.398  22.958   7.883  0.0025 -0.4759  0.0060
 5564W        W48481  16.575  24.756   7.594  0.1613 -0.0710 -0.1310
 5565W        W48482  14.666  22.135   9.273 -0.2188  0.4542 -0.2175
 5566W        W48483  14.999  21.245   8.355  0.4096 -0.2370 -0.0046
 5567W        W48484  17.538  24.652   5.771 -0.1527  0.0141  0.1947
 5568W        W48485  15.105  26.286   7.108 -0.3965  0.2798 -0.0474
 5569W        W48486  18.530  20.692   8.016 -0.3256  0.1723 -0.1750
 5570W        W48487  13.991  21.519  10.433 -0.1877 -0.0715  0.0436
 5571W        W48488  13.790  22.485   5.748 -0.2671  0.0595  0.1071
 5572W        W48489  14.385  23.895   6.483 -0.2077 -0.0240 -0.0134
 5573W        W48490  15.961  24.366   8.005 -0.2729 -0.1532 -0.1452
 5574W        W48491  15.350  21.557   8.227  0.2600 -0.0203  0.0399
 5575W        W48492  14.322  24.747   5.861 -0.0785  0.1068 -0.1724
 5576W        W48493  16.649  20.916   9.532 -0.0694  0.0243  0.0347
 5577W        W48494  17.875  25.614   8.506  0.0566  0.2783  0.2259
 5578W        W48495  16.091  24.521   6.868 -0.0761 -0.1262 -0.0271
 5579W        W48496  17.620  22.805   9.062  0.0079 -0.2860  0.0967
 5580W        W48497  15.664  20.507   9.669  0.2601 -0.0022  0.1850
 5581W        W48498  14.568  22.632   8.159 -0.0760  0.0205  0.0119
 5582W        W48499  15.097  23.996   9.402  0.2482 -0.0546 -0.1222
 5583W        W48500  17.555  22.492   8.047  0.0641 -0.0534 -0.3582
 5584W        W48501  15.554  25.856   7.881  0.0768  0.1804  0.1774
 5585W        W48502  16.531  20.909  10.113  0.2811  0.1413 -0.0463
 5586W        W48503  14.884  19.516   9.915  0.1855 -0.1982  0.2119
 5587W        W48504  15.286  24.196   6.293  0.1078 -0.0878 -0.0945
 5588W        W48505  15.855  22.474   9.334  0.1987  0.0935  0.1877
 5589W        W48506  16.745  26.462   8.465  0.3369  0.0323  0.2299
 5590W        W48507  16.534  24.264   8.094 -0.4115  0.0597  0.3518
 5591W        W48508  16.420  24.998   6.230 -0.2322 -0.0375 -0.3084
 5592W        W48509  16.531  25.400   7.583 -0.0633  0.1922 -0.0048
 5593W        W48510  16.681  20.870   8.166 -0.3845  0.1284 -0.2137
 5594W        W48511  16.020  27.193   8.482 -0.0725  0.0160  0.1788
 5595W        W48512  14.929  23.910   7.454  0.3776  0.3057 -0.1780
 5596W        W48513  17.564  24.785   7.496  0.3080 -0.2404 -0.1248
 5597W        W48514  16.993  24.455   7.586 -0.2724 -0.0186 -0.1146
 5598W        W48515  17.299  22.015   4.972  0.3112  0.1728 -0.4458
 5599W        W48516  18.465  23.492   8.099  0.0666  0.0269 -0.3605
 5600W        W48517  17.622  21.414   7.016  0.1410  0.4607 -0.1599
 5601W        W48518  14.530  23.394   8.774 -0.6447 -0.0345 -0.3273
 5602W        W48519  16.885  21.692   7.970 -0.1059 -0.2948  0.4906
 5603W        W48520  16.238  24.221   5.590 -0.0677  0.1597 -0.0525
 5604W        W48521  15.683  21.820   7.550  0.2477  0.0448  0.1222
 5605W        W48522  16.707  24.261   9.123  0.0441 -0.0645 -0.5284
 5606W        W48523  18.725  21.475   8.802 -0.0379  0.3717  0.1747
 5607W        W48524  14.697  22.001   6.596  0.0205 -0.1145  0.0005
 5608W        W48525  16.105  23.141   8.821  0.1904 -0.1459 -0.0250
 5609W        W48526  14.880  24.113   5.651 -0.2097 -0.0993  0.0869
 5610W        W48527  19.158  25.108   8.676 -0.2214  0.4090  0.0975
 5611W        W48528  16.068  25.015   8.564  0.0992  0.0498  0.2571
 5612W        W48529  13.587  21.248   6.608  0.0405  0.0146  0.0018
 5613W        W48530  17.815  24.472   7.183 -0.0319 -0.2794 -0.1238
 5614W        W48531  16.123  22.865   9.754  0.1408  0.2590  0.2621
 5615W        W48532  15.611  23.743   7.725  0.1402 -0.0230  0.0652
 5616W        W48533  17.048  21.418   7.533 -0.1351  0.0396  0.1819
 5617W        W48534  15.204  25.264   8.748  0.1405 -0.1474 -0.5358
 5618W        W48535  13.195  24.886   8.397 -0.1505 -0.0841 -0.2420
 5619W        W48536  14.466  23.646   7.836 -0.1075  0.2015  0.0913
 5620W        W48537  16.743  22.163   7.869  0.3850  0.0314  0.1519
 5621W        W48538  17.105  22.306   8.279  0.0111 -0.0241 -0.0794
 5622W        W48539  15.260  23.165   6.502 -0.0405  0.0170 -0.0833
 5623W        W48540  14.719  25.010   8.789  0.1643 -0.0142  0.0680
 5624W        W48541  17.120  21.824   9.528  0.0821  0.1588 -0.1649
 5625W        W48542  16.537  22.693   7.837 -0.0127  0.0723  0.1920
 5626W        W48543  15.830  24.228   7.460  0.1579  0.1299 -0.1287
 5627W        W48544  17.212  23.031   8.894  0.0743 -0.0486 -0.1443
 5628W        W48545  17.780  25.024   5.340  0.1747 -0.1315 -0.1503
 5629W        W48546  17.239  23.572   8.757  0.1477 -0.2127  0.3008
 5630W        W48547  17.260  25.096   6.553  0.2683  0.1514 -0.1198
 5631W        W48548  16.151  21.852   9.769 -0.1531 -0.1458 -0.1831
 5632W        W48549  15.524  24.508   6.615 -0.0200 -0.1531  0.1001
 5633W        W48550  16.981  23.574   8.185 -0.0613 -0.0889  0.0835
 5634W        W48551  16.381  20.525  10.375 -0.2657 -0.0194  0.2288
 5635W        W48552  16.951  22.597   8.706  0.2955  0.2696 -0.0688
 5636W        W48553  15.816  25.440   8.109 -0.2440  0.0990 -0.2083
 5637W        W48554  21.254  18.694   9.846 -0.0316 -0.1853 -0.0885
 5638W        W48555  14.957  23.822   6.302 -0.0617  0.0068  0.0707
 5639W        W48556  15.734  27.252   9.445 -0.0565 -0.0163 -0.0132
 5640W        W48557  15.654  22.177   7.926  0.0979 -0.3125  0.1823
 5641W        W48558  16.003  25.999   6.641 -0.0409  0.0939  0.1278
 5642W        W48559  18.239  25.283   7.614 -0.2276  0.1708 -0.0772
 5643W        W48560  20.486  25.008   9.080 -0.2511 -0.0868 -0.0141
 5644W        W48561  16.067  23.352   9.483 -0.1331 -0.0764  0.0097
 5645W        W48562  15.791  26.119   7.521 -0.1398 -0.1891 -0.0085
 5646W        W48563  13.997  22.842   8.934 -0.0784 -0.1968  0.2813
 5647W        W48564  17.007  22.651   6.818 -0.0333  0.0955 -0.1272
 5648W        W48565  16.954  20.558   8.465  0.1445 -0.2949 -0.0309
 5649W        W48566  16.136  22.265   7.883  0.1016 -0.2092  0.0589
 5650W        W48567  14.356  23.357   8.240  0.3702 -0.1565 -0.1335
 5651W        W48568  15.805  23.905   6.030  0.2075 -0.2652 -0.0047
 5652W        W48569  12.702  23.460   9.138 -0.3800  0.0572  0.1338
 5653W        W48570  15.342  23.173   8.615 -0.2824  0.2581  0.0296
 5654W        W48571  14.397  21.929   7.963  0.3489  0.2097  0.2155
 5655W        W48572  17.449  23.479   7.885 -0.1510 -0.0844 -0.1650
 5656W        W48573  15.297  22.002   6.732  0.2066 -0.2234 -0.1234
 5657W        W48574  14.357  22.062   9.663  0.1170  0.2214 -0.1248
 5658W        W48575  16.154  24.009   8.337 -0.0998 -0.3065 -0.0146
 5659W        W48576  18.399  26.465   9.437 -0.3486 -0.1044 -0.2915
 5660W        W48577  15.957  22.597   8.260 -0.1032  0.0425  0.1352
 5661W        W48578  14.767  23.341   3.435 -0.0895  0.3336 -0.1322
 5662W        W48579  15.329  20.953   7.245  0.0485 -0.1640 -0.0228
 5663W        W48580  18.564  21.937   8.194 -0.0930  0.1892  0.2881
 5664W        W48581  16.276  24.347   7.559 -0.0522  0.2917  0.1971
 5665W        W48582  18.357  25.836   5.570 -0.0466 -0.0482  0.1660
 5666W        W48583  15.998  20.242   8.231 -0.3368  0.0534  0.1202
 5667W        W48584  15.849  21.904   8.934 -0.0293  0.1575  0.2497
 5668W        W48585  15.838  23.109   8.398 -0.3460  0.0094 -0.2361
 5669W        W48586  17.044  19.513   9.208  0.1260  0.0463  0.0304
 5670W        W48587  17.630  20.901   7.870 -0.1783  0.1517 -0.0007
 5671W        W48588  17.239  24.565   9.084  0.2109 -0.0685  0.0337
 5672W        W48589  16.067  22.156   8.406  0.0165  0.1879 -0.2661
 5673W        W48590  17.427  23.248   7.388 -0.2383  0.1936 -0.0383
 5674W        W48591  15.823  22.320   7.461 -0.0470  0.0231  0.2522
 5675W        W48592  16.695  23.851   9.405 -0.0039 -0.0380 -0.0759
 5676W        W48593  16.932  22.906   7.630 -0.1473  0.2355  0.1619
 5677W        W48594  16.232  24.773   7.938  0.0167 -0.0827 -0.0845
 5678W        W48595  15.916  22.953   7.442  0.0872 -0.0395  0.0189
 5679W        W48596  18.460  24.105   9.323 -0.0714  0.1339  0.1579
 5680W        W48597  14.902  23.502   8.238 -0.1282 -0.0747 -0.1426
 5681W        W48598  16.872  24.746   8.031 -0.2137  0.1093  0.0415
 5682W        W48599  17.491  23.754   9.520  0.2927  0.2862  0.0153
 5683W        W48600  14.696  22.443   9.783 -0.2161  0.0017 -0.0223
 5684W        W48601  15.742  24.131   6.974 -0.2791 -0.1081 -0.0736
 5685W        W48602  16.965  24.202   6.741  0.4803  0.1570  0.5191
 5686W        W48603  17.497  22.475   9.632  0.2030  0.1600  0.0717
 5687W        W48604  14.589  21.631   9.435  0.0018 -0.2468 -0.0735
 5688W        W48605  16.551  19.739   9.819  0.0837  0.1347 -0.1843
 5689W        W48606  16.091  25.202   7.705  0.0381  0.0909  0.0790
 5690W        W48607  15.470  24.499   8.003 -0.2680 -0.1479  0.0421
 5691W        W48608  16.433  29.147   2.578 -0.1242  0.0797 -0.1299
 5692W        W48609  15.717  26.561  31.311 -0.0781  0.0556  0.0209
 5693W        W48610  16.982  26.052  30.988 -0.2052  0.1325 -0.2336
 5694W        W48611  16.797  28.958  30.708  0.0319  0.1271 -0.0299
 5695W        W48612  15.255  26.155   2.520  0.2296 -0.2803 -0.0130
 5696W        W48613  18.612  28.325   1.551 -0.1401 -0.1400 -0.2664
 5697W        W48614  14.980  26.101   2.060 -0.0509 -0.1388 -0.0602
 5698W        W48615  16.149  27.985   2.268  0.0242  0.0719  0.0389
 5699W        W48616  17.327  26.484   3.545  0.1265  0.1211  0.0200
 5700W        W48617  15.680  28.134   1.425  0.0487  0.0551 -0.3373
 5701W        W48618  16.177  28.210   4.884  0.3416  0.0775  0.1913
 5702W        W48619  16.707  27.055   0.960  0.2096 -0.0443  0.0472
 5703W        W48620  16.369  25.885  31.403 -0.0084  0.3321  0.0822
 5704W        W48621  13.423  25.647   0.910  0.1326 -0.1664  0.2782
 5705W        W48622  17.791  26.479   1.995 -0.0844  0.1151 -0.0600
 5706W        W48623  14.548  28.078   1.355 -0.2719  0.1610  0.1009
 5707W        W48624  14.766  28.571   1.452  0.1407 -0.2888  0.0867
 5708W        W48625  17.071  29.170   0.563 -0.2119 -0.1392  0.1352
 5709W        W48626  16.429  29.719   0.020 -0.0666 -0.2568 -0.0738
 5710W        W48627  17.939  25.846   0.436  0.3989 -0.1832  0.2567
 5711W        W48628  16.850  26.924   1.888  0.3628  0.0587  0.0201
 5712W        W48629  15.249  27.841  30.918  0.1619  0.3312 -0.2219
 5713W        W48630  14.127  26.894  31.275 -0.0139 -0.2542  0.0380
 5714W        W48631  14.842  27.258   1.118  0.3503  0.5721 -0.0562
 5715W        W48632  14.552  26.706   1.182 -0.1728 -0.1208 -0.1310
 5716W        W48633  16.936  26.457   1.661 -0.4673 -0.2940  0.0501
 5717W        W48634  19.058  25.766   0.490  0.2838  0.0313  0.0664
 5718W        W48635  16.936  27.886   1.450 -0.0551 -0.2239  0.1549
 5719W        W48636  17.466  25.582   3.964 -0.1373 -0.1180  0.0634
 5720W        W48637  15.968  29.092   2.653  0.2429 -0.1173  0.0770
 5721W        W48638  14.229  29.972   0.171 -0.1884  0.2204 -0.1926
 5722W        W48639  16.884  29.568  31.148  0.3008  0.1122  0.2795
 5723W        W48640  16.952  30.436   2.304 -0.2834 -0.1126  0.1574
 5724W        W48641  16.703  26.794   3.833 -0.1242  0.0833 -0.1162
 5725W        W48642  17.445  28.054   2.934  0.0323  0.2353  0.1746
 5726W        W48643  14.020  29.971   1.148 -0.3028  0.1504  0.0501
 5727W        W48644  15.558  29.181   3.943  0.0092 -0.0879  0.1502
 5728W        W48645  16.068  26.491   2.228  0.0421 -0.2943 -0.2647
 5729W        W48646  16.117  27.518   2.954 -0.1978 -0.1520  0.0518
 5730W        W48647  19.111  27.446  30.918  0.1655 -0.0345  0.1941
 5731W        W48648  16.162  28.751   0.499  0.1178  0.1147 -0.5951
 5732W        W48649  16.762  28.297   1.782  0.0001  0.2348  0.5435
 5733W        W48650  16.269  26.978   3.091 -0.2180  0.2793 -0.0473
 5734W        W48651  15.078  29.478   0.133 -0.0686  0.1021 -0.0842
 5735W        W48652  17.477  26.050   4.539 -0.0090 -0.2806 -0.0830
 5736W        W48653  16.787  30.172   0.046  0.0205 -0.0352 -0.0900
 5737W        W48654  17.919  26.770  31.915  0.0762 -0.1713  0.0883
 5738W        W48655  16.597  25.862  29.574 -0.2458 -0.1945  0.0703
 5739W        W48656  17.943  25.511   1.384 -0.0386 -0.0128 -0.3117
 5740W        W48657  14.031  24.485   0.022 -0.0834 -0.0735  0.1247
 5741W        W48658  16.490  27.849   1.809 -0.3156 -0.2096 -0.1686
 5742W        W48659  14.788  23.843   2.686  0.0865  0.0768 -0.2839
 5743W        W48660  16.633  28.223   2.254  0.0336  0.2270 -0.1150
 5744W        W48661  15.534  28.186  31.839  0.2515 -0.0923 -0.1527
 5745W        W48662  16.444  27.345   1.931  0.1093 -0.0759 -0.1444
 5746W        W48663  16.795  28.839   2.017 -0.1405  0.0551 -0.0032
 5747W        W48664  14.697  27.889   0.272  0.4260 -0.2010 -0.1755
 5748W        W48665  20.270  27.536  30.802 -0.0300  0.0785 -0.1699
 5749W        W48666  17.829  27.393   1.732 -0.1931  0.0999 -0.0935
 5750W        W48667  18.116  27.606  31.364 -0.1408 -0.2165 -0.0207
 5751W        W48668  16.275  27.408   0.817  0.3097 -0.1589  0.0578
 5752W        W48669  14.535  27.730   2.125 -0.1846 -0.1714  0.1547
 5753W        W48670  17.582  29.032   5.238 -0.2550  0.2185 -0.1513
 5754W        W48671  16.999  28.601   0.745  0.1559  0.3738 -0.1205
 5755W        W48672  18.680  27.397   2.740  0.0924  0.1500 -0.1483
 5756W        W48673  15.107  28.967   2.147 -0.0777  0.0802  0.1615
 5757W        W48674  17.091  25.006  31.082  0.2144  0.3980 -0.4433
 5758W        W48675  17.394  27.184   1.519  0.1310  0.0086  0.1171
 5759W        W48676  16.054  29.999   2.491 -0.2396 -0.2032 -0.1108
 5760W        W48677  14.640  28.596  30.382  0.0534  0.0152 -0.2311
 5761W        W48678  17.361  24.591   0.577 -0.1601 -0.0806  0.0371
 5762W        W48679  16.128  24.857   0.199  0.0356  0.0217  0.3388
 5763W        W48680  15.324  27.360  31.181  0.0423 -0.0902 -0.0159
 5764W        W48681  15.736  27.491   1.539 -0.1029 -0.3538 -0.1551
 5765W        W48682  16.496  28.144   3.277  0.3893  0.0244  0.0531
 5766W        W48683  17.202  25.756  30.520 -0.3644 -0.1115  0.3799
 5767W        W48684  15.878  26.690   0.345  0.1293 -0.5635 -0.2029
 5768W        W48685  15.373  27.978   0.957  0.4325  0.1633 -0.0529
 5769W        W48686  17.923  27.532   2.948 -0.4282  0.1230 -0.0610
 5770W        W48687  16.885  29.871  31.580 -0.1851  0.0200 -0.0288
 5771W        W48688  15.062  27.575   2.098 -0.4140 -0.1459  0.0142
 5772W        W48689  16.213  27.445   2.444 -0.1816 -0.0911  0.1462
 5773W        W48690  16.738  25.995   2.594 -0.0712  0.3283  0.3263
 5774W        W48691  14.307  27.523   0.481  0.0400 -0.0038 -0.2133
 5775W        W48692  17.847  26.227  31.898  0.0500 -0.0357  0.1991
 5776W        W48693  15.815  25.996   3.612  0.4632  0.1183 -0.0955
 5777W        W48694  17.053  24.593   0.188 -0.2432 -0.2075 -0.0734
 5778W        W48695  15.266  28.873   0.865 -0.3914  0.0165  0.0541
 5779W        W48696  17.788  28.755  29.658 -0.2252  0.0143  0.2354
 5780W        W48697  20.100  27.005   0.110  0.2146 -0.0893  0.2089
 5781W        W48698  17.876  28.877   2.982 -0.1460  0.1327 -0.0731
 5782W        W48699  15.395  27.517   1.186  0.3263 -0.0324 -0.0548
 5783W        W48700  15.872  27.716   0.787 -0.0396  0.0464 -0.0369
 5784W        W48701  14.958  27.609   3.488 -0.0507 -0.1807 -0.2349
 5785W        W48702  14.313  27.180   1.394  0.1238 -0.0729  0.0481
 5786W        W48703  17.866  25.862   1.751  0.1073  0.0937 -0.0285
 5787W        W48704  14.990  27.231  31.553 -0.0548  0.2040 -0.1068
 5788W        W48705  15.798  25.810   0.684 -0.0800  0.0612 -0.1039
 5789W        W48706  14.895  26.566   0.784  0.1809 -0.1649 -0.1504
 5790W        W48707  14.348  28.315   0.951 -0.2313 -0.2514  0.0372
 5791W        W48708  18.828  26.359   3.927  0.3896  0.1879 -0.2303
 5792W        W48709  17.836  27.766  31.728 -0.0882 -0.3497 -0.1119
 5793W        W48710  15.577  30.349   2.618  0.2651 -0.0301 -0.1191
 5794W        W48711  16.523  27.837   2.783  0.1914  0.2151  0.0371
 5795W        W48712  15.780  26.495   3.377  0.0704 -0.0287 -0.2634
 5796W        W48713  15.300  27.116   1.631 -0.0022 -0.2438 -0.4193
 5797W        W48714  15.072  29.442  31.399 -0.1664  0.2164  0.1446
 5798W        W48715  16.027  29.245   0.703  0.1275  0.1904  0.2365
 5799W        W48716  15.327  28.403   0.635  0.1664  0.1216  0.1891
 5800W        W48717  17.267  28.846  31.617 -0.2900 -0.2509  0.0311
 5801W        W48718  16.930  27.667  30.761 -0.3014  0.0433  0.2080
 5802W        W48719  14.897  26.298   2.957 -0.0503  0.2004  0.0886
 5803W        W48720  15.700  23.681   3.466  0.4200  0.2150 -0.3761
 5804W        W48721  17.272  28.131   1.729  0.0143 -0.1518  0.0170
 5805W        W48722  17.854  26.455   0.385 -0.1612  0.1332  0.0058
 5806W        W48723  14.975  25.753   0.877  0.1193 -0.3660 -0.2484
 5807W        W48724  17.720  27.965   1.710  0.0254 -0.0143  0.0729
 5808W        W48725  15.590  28.044   0.411 -0.4182  0.3162  0.1018
 5809W        W48726  14.803  30.353   3.393 -0.0099  0.2191  0.1564
 5810W        W48727  17.253  30.808   2.416 -0.3209  0.2519 -0.0049
 5811W        W48728  16.458  27.042   0.061  0.4345 -0.1527 -0.2829
 5812W        W48729  15.730  30.212   0.245  0.0479 -0.1025 -0.0825
 5813W        W48730  16.998  27.836   3.046  0.2026  0.2668 -0.0337
 5814W        W48731  14.217  25.249   0.886  0.0209 -0.2431 -0.1195
 5815W        W48732  15.767  30.228   3.056 -0.0604 -0.0281 -0.1547
 5816W        W48733  16.147  25.752   2.541  0.2152  0.2040 -0.3451
 5817W        W48734  17.973  26.168   0.782  0.2126 -0.0262  0.3711
 5818W        W48735  16.870  27.405   1.642 -0.0869 -0.0178 -0.0478
 5819W        W48736  19.021  27.383  31.957 -0.2631  0.1336  0.0978
 5820W        W48737  15.830  26.835  31.776  0.1112  0.1347  0.6597
 5821W        W48738  15.753  24.456   0.187  0.2969 -0.2716 -0.6055
 5822W        W48739  16.162  30.466   2.727  0.1522  0.0891  0.1007
 5823W        W48740  16.788  28.135   0.768  0.1321 -0.0670 -0.0562
 5824W        W48741  15.851  26.739   2.715  0.0368  0.1964  0.0200
 5825W        W48742  17.681  27.158   0.061 -0.1452  0.0262 -0.1577
 5826W        W48743  20.257  25.934  31.303 -0.2387  0.1302 -0.0998
 5827W        W48744  14.317  26.827   4.245 -0.0885 -0.1236 -0.2486
 5828W        W48745  15.257  30.258   2.262  0.2354 -0.0707 -0.1616
 5829W        W48746  16.372  28.674   2.273 -0.3309 -0.0507  0.3166
 5830W        W48747  17.147  26.000   3.668 -0.0924  0.0621  0.0361
 5831W        W48748  17.052  27.329   2.740  0.2610 -0.0885 -0.0804
 5832W        W48749  15.959  26.391   1.770  0.0814 -0.2476  0.0886
 5833W        W48750  15.959  29.366  28.671  0.3476  0.0353  0.0978
 5834W        W48751  18.220  24.844   2.132  0.4135 -0.0953  0.4151
 5835W        W48752  16.216  26.313  31.209  0.0305  0.4685 -0.3771
 5836W        W48753  16.714  25.726   3.618  0.0218  0.0993 -0.0662
 5837W        W48754  17.786  27.164   2.578  0.0511  0.5168 -0.1500
 5838W        W48755  18.370  26.978   1.231  0.3136  0.1072  0.2376
 5839W        W48756  18.162  27.747   0.774 -0.2176  0.0965  0.0479
 5840W        W48757  15.935  25.284   0.037 -0.0807 -0.0928  0.0263
 5841W        W48758  15.102  28.278   2.852  0.1085  0.0189  0.2923
 5842W        W48759  15.492  29.181   3.037 -0.1273  0.1109 -0.4004
 5843W        W48760  15.459  29.861   2.419 -0.1284 -0.0288  0.2366
 5844W        W48761  17.658  26.089   2.759  0.0873 -0.1929  0.0606
 5845W        W48762  16.247  26.956   0.604 -0.0302 -0.3100 -0.0009
 5846W        W48763  16.890  26.846   2.909  0.0176  0.0046  0.1173
 5847W        W48764  15.739  26.844   1.873  0.1232 -0.3141  0.0199
 5848W        W48765  15.968  30.740   1.735 -0.0180 -0.3237 -0.0031
 5849W        W48766  16.921  27.099  30.686 -0.0027  0.0775 -0.3744
 5850W        W48767  14.497  26.483   2.691 -0.2914  0.2147  0.2263
 5851W        W48768  16.955  27.314   3.178 -0.0509 -0.0727  0.0259
 5852W        W48769  15.204  29.049   0.319 -0.3072  0.1181 -0.1000
 5853W        W48770  16.499  26.459   4.146 -0.3228  0.2349 -0.2129
 5854W        W48771  14.872  28.318   1.010 -0.1141  0.0422 -0.0467
 5855W        W48772  17.105  25.926   0.625  0.1562 -0.2733 -0.3240
 5856W        W48773  15.575  28.406   1.046 -0.0647 -0.1864  0.0936
 5857W        W48774  15.900  24.387  29.662  0.1507 -0.0668 -0.0394
 5858W        W48775  13.351  29.467   0.137 -0.0837 -0.1159 -0.0663
 5859W        W48776  18.036  25.438  31.597  0.0514  0.4056 -0.0156
 5860W        W48777  17.176  30.322  29.235 -0.0001  0.1374  0.0510
 5861W        W48778  13.586  28.465  30.483  0.0050  0.1654  0.1033
 5862W        W48779  16.721  26.110   0.983  0.1004 -0.0605 -0.1529
 5863W        W48780  14.950  28.108   3.337  0.3959  0.0640  0.0506
 5864W        W48781  17.361  26.803  31.081 -0.2516  0.2170 -0.2339
 5865W        W48782  15.929  28.311   0.090 -0.0623 -0.1812 -0.2447
 5866W        W48783  16.528  27.189   3.488  0.0394 -0.2639  0.1050
 5867W        W48784  19.563  25.794   2.858  0.1714 -0.1522  0.0717
 5868W        W48785  14.270  28.821  30.625  0.0244  0.0822  0.2761
 5869W        W48786  17.780  24.695   2.285  0.1268 -0.2877  0.1415
 5870W        W48787  15.229  25.835   0.178  0.1778 -0.0060  0.1111
 5871W        W48788  16.626  28.613   1.334 -0.1000 -0.1205  0.0649
 5872W        W48789  16.620  30.380   3.576  0.1077  0.0493 -0.2594
 5873W        W48790  16.392  26.560   0.332 -0.0048  0.4116 -0.1901
 5874W        W48791  16.241  29.755  31.307 -0.1410 -0.1338  0.0635
 5875W        W48792  14.933  28.430   4.691 -0.2846 -0.0858  0.0592
 5876W        W48793  16.340  28.806   1.736 -0.0683 -0.0431 -0.3186
 5877W        W48794  15.914  26.269  31.671  0.0221 -0.1002  0.2315
 5878W        W48795  16.487  26.538   0.790 -0.4416  0.1329  0.1030
 5879W        W48796  16.933  27.979  31.891 -0.0201  0.2821  0.0843
 5880W        W48797  17.035  26.953   2.400  0.1099 -0.0525 -0.0616
 5881W        W48798  18.140  25.141   1.097  0.4139  0.3279  0.3504
 5882W        W48799  16.359  28.735   4.015  0.1547 -0.2002  0.3060
 5883W        W48800  15.331  27.642   0.560 -0.0985 -0.1635  0.0603
 5884W        W48801  19.427  26.739   1.242  0.0029  0.0764 -0.0514
 5885W        W48802  16.001  26.879   4.297 -0.0980  0.0780 -0.1546
 5886W        W48803  16.679  27.663   0.927  0.0559  0.0726  0.3308
 5887W        W48804  12.805  27.674   0.733  0.2085  0.0625  0.1530
 5888W        W48805  17.441  26.601   0.106 -0.1226  0.0851 -0.1269
 5889W        W48806  14.771  25.344   1.121  0.3821  0.2224 -0.0464
 5890W        W48807  13.496  28.691   3.325  0.1623  0.0145 -0.0530
 5891W        W48808  15.156  27.392   0.184 -0.0986  0.1299 -0.1925
 5892W        W48809  15.571  28.798   1.993 -0.0718 -0.3547 -0.4285
 5893W        W48810  15.472  26.038  31.668 -0.0372  0.2486  0.0062
 5894W        W48811  15.784  25.514  30.479  0.0078  0.1903 -0.0455
 5895W        W48812  15.290  26.081   0.628 -0.3890  0.0944 -0.3438
 5896W        W48813  20.675  24.809  31.936  0.1874  0.0879  0.0227
 5897W        W48814  17.303  27.413  31.040 -0.0964  0.0132 -0.0953
 5898W        W48815  17.219  25.975   2.460 -0.1724  0.0907 -0.0860
 5899W        W48816  14.791  26.314   3.568 -0.0262 -0.1418  0.2546
 5900W        W48817  18.325  28.041  30.619  0.0642  0.1546  0.0218
 5901W        W48818  13.214  26.540   1.480  0.1592  0.0364 -0.2630
 5902W        W48819  18.411  28.382   3.698  0.1935 -0.2643  0.0730
 5903W        W48820  15.717  27.328   4.542 -0.0953  0.3300  0.0555
 5904W        W48821  17.222  25.676   0.112  0.1045 -0.1713 -0.0233
 5905W        W48822  14.554  26.152   0.022  0.1471  0.0779 -0.1392
 5906W        W48823  14.344  29.176   3.366  0.1716 -0.0757  0.2349
 5907W        W48824  17.272  28.676   0.311 -0.0528 -0.1299 -0.0273
 5908W        W48825  17.370  27.597   0.084  0.2185 -0.1766 -0.1683
 5909W        W48826  17.627  26.893  30.221  0.0128  0.1955  0.0651
 5910W        W48827  17.086  27.853   0.386  0.0688 -0.0511 -0.1759
 5911W        W48828  17.407  26.768   1.850 -0.1123  0.0973 -0.1131
 5912W        W48829  16.939  26.601   1.096 -0.1509  0.0539  0.0526
 5913W        W48830  16.844  28.297   0.296 -0.0119  0.3801 -0.1045
 5914W        W48831  16.237  25.464   5.940  0.0723  0.0132  0.1065
 5915W        W48832  16.486  26.386   1.973  0.2212  0.1932 -0.0342
 5916W        W48833  15.429  25.856   1.040 -0.2125  0.0718  0.0647
 5917W        W48834  17.897  26.542   3.568  0.0343 -0.1488  0.1160
 5918W        W48835  15.364  27.206   3.350 -0.1330  0.1717 -0.1517
 5919W        W48836  15.260  26.035   3.354 -0.1509  0.0952  0.0840
 5920W        W48837  13.658  29.084   2.575 -0.1815 -0.0192  0.0750
 5921W        W48838  15.948  28.580   2.570  0.2036  0.0447  0.0309
 5922W        W48839  18.775  27.043  30.809  0.1615  0.1595  0.1636
 5923W        W48840  18.125  26.154   2.594  0.1293  0.0768  0.1467
 5924W        W48841  20.602  28.141  31.425 -0.3064  0.4911 -0.3264
 5925W        W48842  17.685  27.695  31.205 -0.0659  0.0606 -0.1857
 5926W        W48843  16.403  25.994   2.219  0.2007 -0.1170 -0.1216
 5927W        W48844  18.450  27.896   5.479  0.0780 -0.6280  0.0181
 5928W        W48845  15.537  25.872  30.741  0.0407 -0.1164  0.0918
 5929W        W48846  15.764  27.799   3.780 -0.1460 -0.1890  0.1201
 5930W        W48847  15.910  27.925   1.837  0.0960  0.0490 -0.0617
 5931W        W48848  17.641  28.421   1.487 -0.2615 -0.0532 -0.0401
 5932W        W48849  16.287  24.435  31.843 -0.0437 -0.0450 -0.3469
 5933W        W48850  13.223  27.933   0.554  0.2926  0.0476 -0.1265
 5934W        W48851  14.518  28.769   2.212 -0.0399  0.1552 -0.2399
 5935W        W48852  15.343  28.075  30.413 -0.0176  0.2411  0.0081
 5936W        W48853  16.048  28.353   1.181 -0.0419  0.0471 -0.1103
 5937W        W48854  16.569  27.007   2.315  0.3089 -0.1711  0.1907
 5938W        W48855  17.988  28.232   4.022  0.1374 -0.0154 -0.1776
 5939W        W48856  15.335  25.189   1.914  0.0483 -0.1094 -0.0196
 5940W        W48857  18.665  26.092   2.487 -0.2088 -0.2996  0.2437
 5941W        W48858  14.791  27.430   0.663  0.5655 -0.0466 -0.2065
 5942W        W48859  13.784  26.336  31.108 -0.0308 -0.1869  0.0467
 5943W        W48860  14.680  30.187   1.871  0.1593 -0.1356  0.0932
 5944W        W48861  13.933  27.286   1.700  0.2262 -0.1091  0.2052
 5945W        W48862  15.906  30.788   2.368 -0.0932 -0.4340  0.0138
 5946W        W48863  16.244  26.873   1.762 -0.0224  0.0675 -0.0058
 5947W        W48864  15.402  26.688   0.337  0.0357  0.3062 -0.0163
 5948W        W48865  17.737  26.649   2.582 -0.1555  0.1038 -0.0519
 5949W        W48866  18.340  27.302   3.190 -0.2596  0.0112 -0.1702
 5950W        W48867  16.365  28.323   2.645 -0.1107  0.1080  0.1959
 5951W        W48868  17.754  26.834   0.713  0.1778 -0.0072 -0.3276
 5952W        W48869  17.668  27.348   4.748 -0.1651  0.0023 -0.3224
 5953W        W48870  17.621  27.973   0.328 -0.1323 -0.0066 -0.0651
 5954W        W48871  15.330  29.073   1.655 -0.0098  0.0047 -0.0476
 5955W        W48872  15.519  28.313   1.867 -0.2927 -0.0247 -0.3350
 5956W        W48873  15.695  27.277   2.689  0.0913 -0.3517 -0.2777
 5957W        W48874  16.668  26.651   3.328 -0.3861 -0.2228  0.1882
 5958W        W48875  14.276  25.648   0.201  0.0290 -0.4036 -0.1528
 5959W        W48876  16.985  27.821   1.997  0.1544 -0.0398  0.0563
 5960W        W48877  15.788  28.778   3.302 -0.1614  0.0009 -0.1882
 5961W        W48878  15.869  27.288   1.086 -0.3532 -0.1192  0.1179
 5962W        W48879  14.891  29.776  31.761 -0.1831  0.0437  0.1015
 5963W        W48880  16.904  26.788  31.918 -0.2905 -0.2872 -0.0122
 5964W        W48881  17.249  27.086   0.243 -0.2257 -0.0817  0.0012
 5965W        W48882  15.537  28.745   2.807 -0.0003 -0.2355  0.0604
 5966W        W48883  15.166  26.581  30.464  0.0693 -0.0713 -0.1905
 5967W        W48884  14.586  28.852   1.044 -0.1008 -0.2189 -0.1084
 5968W        W48885  15.906  27.843  31.829 -0.3490 -0.0152 -0.0083
 5969W        W48886  15.543  29.777   1.605  0.1088  0.0761  0.2418
 5970W        W48887  16.024  28.404  31.577 -0.1669 -0.2992  0.0085
 5971W        W48888  17.758  26.042   2.215 -0.2386  0.0626  0.1467
 5972W        W48889  17.672  25.724  30.602  0.2945  0.1591 -0.4004
 5973W        W48890  18.759  27.351  30.429 -0.0272  0.2649 -0.0138
 5974W        W48891  18.350  26.075   0.139  0.1516 -0.0307 -0.1668
 5975W        W48892  16.975  28.208   3.361 -0.2794  0.2603  0.1168
 5976W        W48893  15.056  26.702   1.883 -0.2346 -0.0747  0.3621
 5977W        W48894  16.074  26.121   0.300  0.1881  0.0816  0.0482
 5978W        W48895  16.039  26.443   3.845 -0.2562  0.0612 -0.0801
 5979W        W48896  16.285  28.038   0.800 -0.0193  0.2592 -0.1157
 5980W        W48897  14.378  26.214   1.300 -0.0405  0.0898 -0.0494
 5981W        W48898  19.676  30.669  30.328 -0.3288 -0.0027  0.1599
 5982W        W48899  17.183  26.031   1.230  0.2079  0.0010 -0.0623
 5983W        W48900  16.274  26.929   1.123  0.3071  0.1371 -0.0049
 5984W        W48901  18.067  25.010   2.725  0.0967  0.0309  0.0335
 5985W        W48902  15.751  27.556   0.265 -0.1150  0.1416  0.0246
 5986W        W48903  15.927  26.446   1.275  0.1782 -0.2047 -0.3114
 5987W        W48904  16.298  29.523  30.007  0.0266  0.2066 -0.3788
 5988W        W48905  15.912  28.831   0.040  0.1069  0.0051  0.1630
 5989W        W48906  15.419  27.974   2.210 -0.0436  0.4013 -0.0733
 5990W        W48907  14.323  25.955  31.189 -0.2636 -0.0040  0.0193
 5991W        W48908  18.097  27.053  31.464  0.2453 -0.0113 -0.1122
 5992W        W48909  14.224  27.296   2.461 -0.0825 -0.1620 -0.1762
 5993W        W48910  17.271  24.634   1.537  0.0220  0.0802 -0.0913
 5994W        W48911  12.717  27.168   1.091  0.3160 -0.1962  0.3748
 5995W        W48912  18.730  26.074   1.143  0.5177  0.1619 -0.1418
 5996W        W48913  16.610  27.645   2.280  0.2616 -0.1272  0.0495
 5997W        W48914  14.914  27.146   2.015  0.1951  0.0203 -0.0269
 5998W        W48915  18.386  27.826   1.468  0.0012 -0.1374 -0.0347
 5999W        W48916  17.655  25.322   2.882  0.4139 -0.0064  0.0091
 6000W        W48917  17.329  27.612   1.748 -0.0048  0.3740  0.0593
 6001W        W48918  16.563  30.167   2.877 -0.3347  0.0913 -0.2938
 6002W        W48919  14.385  25.205   2.122 -0.0635 -0.0427  0.1166
 6003W        W48920  16.171  25.624   0.348  0.2170 -0.1194  0.2022
 6004W        W48921  16.466  26.557   1.366  0.0672 -0.0416 -0.0804
 6005W        W48922  14.267  28.662   3.668  0.0447  0.1342 -0.2831
 6006W        W48923  15.281  30.281   4.328 -0.2117  0.0979  0.3408
 6007W        W48924  14.639  25.029  31.318 -0.0115 -0.3581  0.0149
 6008W        W48925  16.305  28.186  30.483  0.2105  0.0177 -0.1925
 6009W        W48926  18.707  25.115   0.188  0.1433 -0.0890  0.0587
 6010W        W48927  18.507  28.632  31.363  0.0413 -0.2223  0.1052
 6011W        W48928  17.222  27.063  31.539 -0.0570 -0.1490 -0.0034
 6012W        W48929  15.995  26.999   2.306  0.0493 -0.3093  0.0488
 6013W        W48930  13.727  26.550   1.945 -0.1005  0.2826  0.1780
 6014W        W48931  16.723  28.710   2.653 -0.1232 -0.1833  0.2143
 6015W        W48932  18.516  27.132   3.665 -0.0191  0.0163 -0.3205
 6016W        W48933  14.123  24.743   0.740  0.0529  0.1062 -0.0928
 6017W        W48934  16.475  27.626   3.286 -0.2162 -0.3904  0.2476
 6018W        W48935  15.982  29.899   1.295 -0.1575  0.1037  0.2516
 6019W        W48936  15.470  27.190   2.086  0.1117  0.0334  0.1354
 6020W        W48937  18.581  24.392   2.100 -0.0705 -0.1408  0.0789
 6021W        W48938  16.541  28.132   1.237  0.1958 -0.1546 -0.0307
 6022W        W48939  18.433  25.166   2.415 -0.1186 -0.0413 -0.1870
 6023W        W48940  16.096  29.141   3.201  0.2101  0.0925  0.0633
 6024W        W48941  17.291  31.030   5.339  0.0874 -0.0339 -0.1718
 6025W        W48942  15.880  24.683  31.690  0.1493  0.1525 -0.3589
 6026W        W48943  16.482  28.917   3.459 -0.0724 -0.1467 -0.1927
 6027W        W48944  15.873  29.863   0.623  0.1011 -0.2763  0.1698
 6028W        W48945  17.107  29.349  31.581  0.3156  0.0904 -0.2404
 6029W        W48946  18.553  27.247   2.202 -0.0400  0.0752 -0.3349
 6030W        W48947  15.869  27.365  31.702  0.0152  0.1145  0.1684
 6031W        W48948  18.775  27.757   0.274  0.0455 -0.2123 -0.1249
 6032W        W48949  15.070  26.272   0.102  0.0518 -0.1364 -0.2843
 6033W        W48950  17.316  24.456  31.721  0.1712  0.0513  0.3340
 6034W        W48951  16.419  24.940   1.224  0.2210 -0.3403  0.0012
 6035W        W48952  16.632  29.401  31.540  0.0837 -0.3545 -0.1127
 6036W        W48953  15.870  26.792   0.854  0.3631  0.0583  0.0760
 6037W        W48954  14.093  27.906  29.742  0.2091 -0.1203  0.0245
 6038W        W48955  16.350  26.743   2.664 -0.2101  0.3354 -0.0868
 6039W        W48956  16.955  25.406   2.779 -0.2595 -0.0815  0.2361
 6040W        W48957  15.322  28.467   3.527 -0.1556  0.1262 -0.2370
 6041W        W48958  15.691  26.919   1.376 -0.1818 -0.0008  0.0985
 6042W        W48959  14.423  25.162  31.761 -0.3323 -0.3184 -0.1088
 6043W        W48960  20.761  28.169   0.141 -0.2068 -0.1672 -0.0348
 6044W        W48961  14.907  24.419  30.866  0.0973 -0.1557 -0.0937
 6045W        W48962  14.258  28.546   1.408  0.1364  0.2012 -0.0105
 6046W        W48963  16.831  29.428   0.113 -0.1476 -0.0265  0.0470
 6047W        W48964  15.579  27.128  27.576  0.1269 -0.2085  0.1195
 6048W        W48965  15.735  26.290   0.651  0.0215 -0.0385 -0.1017
 6049W        W48966  18.181  29.087   2.657 -0.0247  0.0701 -0.1491
 6050W        W48967  13.624  27.617  31.639  0.1666  0.2994 -0.2643
 6051W        W48968  17.214  26.969   4.010  0.2212 -0.2902 -0.1737
 6052W        W48969  16.505  26.693   4.605 -0.1242  0.1940  0.2425
 6053W        W48970  13.635  25.903   1.289 -0.0690 -0.0382 -0.1609
 6054W        W48971  15.292  27.578   2.589  0.1107  0.2272 -0.3876
 6055W        W48972  16.780  28.997  31.788 -0.0616 -0.1243 -0.0330
 6056W        W48973  16.724  27.200  31.674 -0.0712  0.0991  0.1275
 6057W        W48974  16.559  29.318   0.542  0.1184 -0.1051 -0.0886
 6058W        W48975  16.846  29.409   2.318 -0.1094 -0.1219  0.3568
 6059W        W48976  14.390  26.235   3.295 -0.0817  0.2473 -0.0284
 6060W        W48977  17.271  29.130   0.054  0.0911  0.0663 -0.0017
 6061W        W48978  17.090  28.270   2.258  0.0273 -0.2570 -0.0632
 6062W        W48979  18.629  27.556  31.227 -0.0715  0.2757 -0.0563
 6063W        W48980  17.515  25.717   1.399  0.0101  0.1194  0.0929
 6064W        W48981  16.850  26.781  31.031 -0.0487 -0.1274  0.2556
 6065W        W48982  15.975  27.300   1.905  0.0629  0.3143 -0.2094
 6066W        W48983  15.773  26.221   2.492 -0.3281  0.3670  0.2835
 6067W        W48984  17.586  24.835   2.947  0.0299 -0.0398 -0.0263
 6068W        W48985  15.515  26.185   2.938  0.0465  0.1458 -0.2026
 6069W        W48986  18.070  27.267   0.821  0.1878  0.2208  0.1395
 6070W        W48987  18.013  27.605  30.866 -0.1659  0.1265 -0.2199
 6071W        W48988  15.049  27.333   2.956 -0.3592 -0.3129  0.0812
 6072W        W48989  16.467  27.696  31.064  0.0505 -0.0320  0.1226
 6073W        W48990  15.356  26.644   2.766 -0.0997 -0.2162 -0.3571
 6074W        W48991  16.775  28.794   0.341 -0.0731 -0.0632  0.0649
 6075W        W48992  18.106  27.577   4.869  0.0323 -0.2021  0.0025
 6076W        W48993  14.365  26.373  31.555  0.0486  0.1287 -0.0293
 6077W        W48994  20.321  25.770  31.840  0.1067 -0.2322  0.3166
 6078W        W48995  16.295  28.754   2.939 -0.1612 -0.1000  0.2486
 6079W        W48996  16.510  28.110   3.970 -0.2882  0.0939  0.1805
 6080W        W48997  15.259  30.102   2.948 -0.0415 -0.0407 -0.0035
 6081W        W48998  17.535  27.157   2.085 -0.0566 -0.3848 -0.0752
 6082W        W48999  13.717  26.352   1.500 -0.1309 -0.4876 -0.0843
 6083W        W49000  16.291  27.318  29.135 -0.3019 -0.1405  0.0824
 6084W        W49001  17.308  29.570   0.471  0.1165 -0.0455  0.0604
 6085W        W49002  15.956  25.979   3.079 -0.1413  0.0420 -0.1158
 6086W        W49003  14.217  28.072   2.275 -0.0515  0.1997  0.0777
 6087W        W49004  15.743  27.591   2.280  0.1117 -0.0199 -0.0104
 6088W        W49005  13.923  30.479   3.393  0.1856  0.5389 -0.3853
 6089W        W49006  16.249  28.221   1.609  0.0732 -0.1552 -0.0793
 6090W        W49007  15.718  29.281   5.899  0.1753  0.0278 -0.0494
 6091W        W49008  15.459  28.002   2.675 -0.1360  0.0764  0.0149
 6092W        W49009  16.963  26.716   4.398  0.1065 -0.2383 -0.0999
 6093W        W49010  19.535  25.256   5.388  0.1680 -0.1708 -0.3088
 6094W        W49011  14.242  28.119   5.586  0.0290 -0.0800 -0.3594
 6095W        W49012  19.262  28.804   3.620  0.0078  0.2371  0.3405
 6096W        W49013  13.457  23.408   5.371 -0.0205 -0.1745  0.2388
 6097W        W49014  15.768  28.958   6.344 -0.0859  0.0178 -0.2443
 6098W        W49015  17.866  29.631   4.103 -0.1384  0.0048  0.2420
 6099W        W49016  17.387  25.814   4.941  0.2975 -0.2139  0.1996
 6100W        W49017  16.152  26.306   6.097 -0.1075 -0.2151 -0.0151
 6101W        W49018  17.603  28.598   4.762 -0.1018  0.1557  0.1528
 6102W        W49019  15.340  23.625   3.965 -0.1237 -0.0702  0.1228
 6103W        W49020  14.163  28.171   5.098 -0.0015 -0.1296  0.3962
 6104W        W49021  16.372  28.854   5.556 -0.1848 -0.2267  0.0431
 6105W        W49022  14.466  28.204   3.518  0.1846  0.0854  0.0458
 6106W        W49023  15.769  24.647   4.137 -0.2118  0.1168  0.3781
 6107W        W49024  17.239  27.668   4.675 -0.1113  0.3853  0.2645
 6108W        W49025  14.810  29.974   4.563  0.2027 -0.1234 -0.1605
 6109W        W49026  15.111  25.742   4.195 -0.3217  0.1961  0.3171
 6110W        W49027  15.169  25.018   5.858  0.0364 -0.1061  0.0827
 6111W        W49028  16.188  29.045   6.035 -0.3064  0.2204  0.1920
 6112W        W49029  14.684  28.003   4.977 -0.0117 -0.0459 -0.2285
 6113W        W49030  13.689  28.000   4.836  0.2498  0.1589  0.1515
 6114W        W49031  15.286  28.012   5.396  0.2101  0.0674  0.2272
 6115W        W49032  15.500  26.398   4.580 -0.0886 -0.3494 -0.1808
 6116W        W49033  19.403  26.822   5.966  0.2034 -0.1179 -0.0914
 6117W        W49034  15.005  27.640   6.720  0.1498 -0.0495  0.2118
 6118W        W49035  17.230  28.672   5.133 -0.0003  0.0264  0.2719
 6119W        W49036  16.132  25.074   6.762  0.2504  0.0842  0.1055
 6120W        W49037  14.482  27.243   4.531 -0.0093 -0.1259  0.0166
 6121W        W49038  13.563  30.273   5.945  0.0557 -0.0188  0.2465
 6122W        W49039  18.241  31.490   4.473  0.1026  0.2644  0.2028
 6123W        W49040  18.907  28.661   4.139 -0.0526 -0.1857 -0.0285
 6124W        W49041  17.626  27.258   7.066 -0.0167 -0.1618 -0.0336
 6125W        W49042  15.570  29.247   8.150 -0.1311 -0.1622  0.0026
 6126W        W49043  15.164  27.052   3.777 -0.0243  0.1278 -0.0944
 6127W        W49044  15.996  29.609   6.737 -0.1505 -0.2480  0.1175
 6128W        W49045  15.160  30.770   7.562  0.0151  0.3260  0.2339
 6129W        W49046  16.088  25.609   5.163 -0.5263 -0.2371  0.2939
 6130W        W49047  16.658  28.421   3.646 -0.0681  0.1095 -0.1014
 6131W        W49048  16.884  28.326   5.758  0.1471  0.0935 -0.1097
 6132W        W49049  15.982  28.011   6.000  0.1033 -0.0301 -0.0942
 6133W        W49050  15.619  27.265   6.100 -0.0143  0.0411  0.1686
 6134W        W49051  14.311  28.687   6.001 -0.0105 -0.2091 -0.0065
 6135W        W49052  18.076  25.036   6.741  0.1262 -0.2899  0.0950
 6136W        W49053  13.778  28.495   3.789  0.1207  0.1875  0.2158
 6137W        W49054  17.097  25.958   4.165  0.0769 -0.1438  0.3598
 6138W        W49055  16.056  25.512   2.965 -0.0812  0.4752  0.1542
 6139W        W49056  17.147  24.940   4.500  0.1402  0.2600 -0.0252
 6140W        W49057  14.779  26.683   3.899 -0.1266  0.0847 -0.0115
 6141W        W49058  14.400  27.591   5.774  0.0334 -0.0682 -0.1325
 6142W        W49059  14.213  24.252   4.109  0.0196  0.0168  0.1695
 6143W        W49060  16.692  28.849   4.487 -0.0815  0.0478  0.0013
 6144W        W49061  16.012  27.986   2.761  0.0836  0.0672  0.1714
 6145W        W49062  17.721  23.950   5.830 -0.2533  0.1888 -0.0491
 6146W        W49063  16.717  28.478   6.939  0.1063  0.2785 -0.0457
 6147W        W49064  15.197  26.597   4.234 -0.0898  0.0217 -0.2582
 6148W        W49065  15.587  29.266   4.603  0.0204 -0.2795 -0.1848
 6149W        W49066  18.115  27.358   4.336  0.0268  0.0322  0.0581
 6150W        W49067  16.727  26.440   2.392  0.0724  0.1380  0.1441
 6151W        W49068  14.391  25.541   4.510  0.2736  0.1046 -0.0719
 6152W        W49069  15.512  28.450   6.748  0.1237  0.1570  0.1073
 6153W        W49070  15.326  26.534   6.098 -0.1199  0.0902 -0.0539
 6154W        W49071  15.224  26.031   1.567 -0.0505 -0.1509 -0.0934
 6155W        W49072  17.571  26.956   6.075  0.1018 -0.0697 -0.0825
 6156W        W49073  13.990  27.294  10.295  0.0893  0.3933 -0.1067
 6157W        W49074  17.052  25.221   4.915  0.4762  0.2741 -0.1423
 6158W        W49075  15.029  27.311   4.275 -0.2088  0.1192  0.2118
 6159W        W49076  19.052  28.528   5.028 -0.0301 -0.1331  0.2113
 6160W        W49077  18.668  24.370   0.828  0.0821  0.0236  0.2832
 6161W        W49078  15.860  27.028   5.566 -0.0691  0.2948  0.1030
 6162W        W49079  17.640  27.692   5.670 -0.1051  0.1932  0.1698
 6163W        W49080  14.252  28.257   3.040 -0.0179  0.2329  0.2766
 6164W        W49081  16.035  28.543   5.276 -0.1620 -0.2978  0.1737
 6165W        W49082  17.105  27.681   6.536  0.2043  0.0180 -0.0914
 6166W        W49083  18.235  26.170   3.327  0.1021 -0.0794 -0.0467
 6167W        W49084  14.172  28.528   6.883 -0.1188  0.2090 -0.0427
 6168W        W49085  15.094  24.957   5.215  0.0679 -0.1154  0.0208
 6169W        W49086  18.118  27.461   5.647 -0.0228  0.2205  0.0789
 6170W        W49087  18.001  28.016   3.060  0.2219 -0.0543 -0.0926
 6171W        W49088  11.210  28.873   5.314 -0.0821  0.0833 -0.1115
 6172W        W49089  15.771  28.267   3.589  0.0916  0.0808  0.1868
 6173W        W49090  13.751  28.603   6.744  0.1343 -0.2470 -0.1404
 6174W        W49091  15.474  26.901   6.399 -0.1118 -0.0040 -0.0839
 6175W        W49092  17.182  26.279   3.059 -0.0099  0.2220 -0.1383
 6176W        W49093  11.846  26.281   6.442  0.0187 -0.1585 -0.2943
 6177W        W49094  16.409  27.006   5.154  0.1510  0.0339 -0.0675
 6178W        W49095  16.945  27.977   4.472  0.0336  0.1432 -0.4571
 6179W        W49096  17.330  29.660   4.086 -0.1745 -0.2879  0.0055
 6180W        W49097  19.120  27.122   4.883  0.0277  0.1183  0.0695
 6181W        W49098  15.803  28.344   4.459 -0.4116 -0.3942 -0.1841
 6182W        W49099  14.144  28.230   4.580 -0.1517 -0.1677 -0.1027
 6183W        W49100  16.342  27.468   5.493  0.2232 -0.0652  0.1790
 6184W        W49101  14.933  25.442   6.123 -0.1030 -0.0860  0.0089
 6185W        W49102  13.740  27.492   3.829  0.0560  0.1186 -0.2463
 6186W        W49103  17.720  26.494   5.676 -0.0076 -0.0660  0.2673
 6187W        W49104  15.979  28.329   4.008 -0.0306 -0.2651  0.0655
 6188W        W49105  16.574  25.673   4.950 -0.1826 -0.1011 -0.1693
 6189W        W49106  16.942  28.483   4.735 -0.0240 -0.1461 -0.1919
 6190W        W49107  15.138  26.581   4.891  0.2662  0.0410 -0.0926
 6191W        W49108  18.340  25.971   6.732 -0.1440 -0.1979 -0.0637
 6192W        W49109  18.471  28.358   4.447 -0.0231  0.0648  0.1602
 6193W        W49110  17.552  27.053   6.548  0.0478 -0.3001 -0.0375
 6194W        W49111  17.811  30.422   5.242 -0.3448 -0.1863  0.1852
 6195W        W49112  15.613  25.023   6.695 -0.0199  0.1514 -0.1122
 6196W        W49113  14.109  25.316   3.410 -0.0262  0.0080 -0.4026
 6197W        W49114  13.803  30.524   5.159  0.0640 -0.1843 -0.2087
 6198W        W49115  17.262  28.166   6.716 -0.1478 -0.1149  0.0946
 6199W        W49116  15.775  25.284   3.549  0.0806  0.2931 -0.3812
 6200W        W49117  16.307  29.594   4.988 -0.0764  0.0989  0.1380
 6201W        W49118  16.072  29.599   4.485 -0.0379 -0.1763  0.0758
 6202W        W49119  14.823  29.008   6.772 -0.1931 -0.2559 -0.1463
 6203W        W49120  17.409  26.171   5.959 -0.0129 -0.1713  0.1147
 6204W        W49121  17.626  28.900   7.932 -0.0648  0.0787  0.1139
 6205W        W49122  18.865  25.887   5.712  0.0767 -0.0460  0.1217
 6206W        W49123  14.645  25.642   2.187  0.1411  0.0908 -0.0418
 6207W        W49124  15.325  28.258   4.482  0.0007 -0.1929  0.2307
 6208W        W49125  15.457  29.271   1.235 -0.2792 -0.1383  0.0859
 6209W        W49126  13.772  26.611   5.087  0.4331  0.1030 -0.2701
 6210W        W49127  17.800  29.745   6.981 -0.0101 -0.2272 -0.2091
 6211W        W49128  16.680  25.277   4.605  0.1402  0.1866 -0.0845
 6212W        W49129  13.382  25.055   7.445 -0.3369 -0.0348  0.1093
 6213W        W49130  15.920  27.576   6.326 -0.0208 -0.2245 -0.1654
 6214W        W49131  13.336  29.785   4.880  0.0000 -0.0693  0.0110
 6215W        W49132  14.173  27.926   7.342 -0.3470  0.1683 -0.0845
 6216W        W49133  16.726  26.637   5.134  0.0158 -0.1721 -0.0330
 6217W        W49134  17.486  25.868   5.421 -0.1981  0.1993 -0.0165
 6218W        W49135  17.737  26.772   5.225 -0.0263  0.0081 -0.0213
 6219W        W49136  17.655  28.971   5.859 -0.0996  0.1473  0.3418
 6220W        W49137  17.012  25.728   4.675 -0.2120 -0.2491  0.2210
 6221W        W49138  17.615  26.689   3.941 -0.1746  0.1971  0.1597
 6222W        W49139  15.441  27.440   7.073  0.3000 -0.0165  0.2372
 6223W        W49140  17.518  28.122   4.478  0.4060  0.4999 -0.2517
 6224W        W49141  17.191  27.185   4.543  0.0920  0.1616 -0.1458
 6225W        W49142  17.207  26.389   2.120 -0.0461  0.0885 -0.0472
 6226W        W49143  17.911  27.047   3.075  0.1322  0.0948  0.2238
 6227W        W49144  16.566  27.917   5.507 -0.1343  0.2420  0.1486
 6228W        W49145  17.264  26.729   6.844  0.0356 -0.2297 -0.0410
 6229W        W49146  18.298  28.624   6.604  0.2533 -0.0790 -0.1546
 6230W        W49147  15.145  27.015   5.173  0.0843  0.2847 -0.1660
 6231W        W49148  16.193  26.480   3.061  0.1051  0.0418 -0.0110
 6232W        W49149  15.008  24.340   4.384  0.0874  0.0259 -0.0689
 6233W        W49150  15.296  31.909   3.766  0.2018  0.2720 -0.2534
 6234W        W49151  18.632  26.899   5.845  0.0229  0.0573 -0.0620
 6235W        W49152  15.668  25.401   4.884  0.0404  0.1006  0.0483
 6236W        W49153  15.315  24.788   4.343 -0.2173  0.3225  0.3190
 6237W        W49154  18.179  26.621   5.926 -0.4078  0.1194  0.3268
 6238W        W49155  17.068  27.757   5.577  0.2387 -0.1055 -0.0666
 6239W        W49156  17.582  28.284   5.320  0.0197  0.3289  0.2802
 6240W        W49157  15.484  29.343   0.738  0.1767 -0.2704  0.1672
 6241W        W49158  18.280  25.634   4.027  0.3115  0.0310  0.1782
 6242W        W49159  13.838  28.085   6.898 -0.1390  0.2870  0.0182
 6243W        W49160  15.015  28.929   7.362  0.0246  0.0243 -0.0038
 6244W        W49161  18.409  29.329   4.684  0.2406 -0.0321 -0.3286
 6245W        W49162  18.470  26.524   4.308  0.0424  0.1406 -0.0120
 6246W        W49163  15.782  26.471   6.516  0.0651  0.1243 -0.1892
 6247W        W49164  14.861  28.021   3.863  0.0198  0.1408  0.0688
 6248W        W49165  15.140  29.980   6.941 -0.2264  0.0938 -0.0060
 6249W        W49166  15.352  29.095   5.643  0.1858 -0.2897 -0.1217
 6250W        W49167  14.079  23.136   4.193 -0.0675  0.3074 -0.3714
 6251W        W49168  17.254  29.325   6.115 -0.0867  0.0165 -0.0140
 6252W        W49169  15.143  29.387   3.308  0.0085 -0.0507 -0.2771
 6253W        W49170  16.956  26.971   6.600 -0.5114  0.1090  0.2592
 6254W        W49171  14.953  28.393   4.218  0.0944 -0.2022 -0.0570
 6255W        W49172  16.373  24.513   4.992 -0.1143  0.0117  0.0267
 6256W        W49173  13.461  28.958   4.799 -0.3478 -0.0952  0.0364
 6257W        W49174  15.671  27.677   3.096  0.0419 -0.0201 -0.5333
 6258W        W49175  14.270  26.740   3.698 -0.0889  0.0332 -0.3114
 6259W        W49176  16.701  27.139   4.254 -0.1091 -0.2143  0.3807
 6260W        W49177  18.509  27.064   5.082  0.2837 -0.1151  0.2865
 6261W        W49178  14.153  26.498   2.337  0.1776  0.2695  0.1313
 6262W        W49179  17.037  25.422   4.230 -0.2370  0.2318  0.0171
 6263W        W49180  15.553  29.603   5.566 -0.1520 -0.1278 -0.0658
 6264W        W49181  16.744  28.061   6.640 -0.1322  0.1459 -0.1168
 6265W        W49182  16.592  24.560   3.561 -0.0937  0.2719 -0.0251
 6266W        W49183  15.836  28.852   6.832  0.0858 -0.2469 -0.4033
 6267W        W49184  15.412  26.224   5.520  0.0113 -0.1400 -0.0396
 6268W        W49185  14.145  26.296   1.857  0.3994  0.0413 -0.2579
 6269W        W49186  18.066  25.740   7.675  0.3253 -0.2438 -0.0520
 6270W        W49187  16.901  29.234   2.783  0.0672  0.1010 -0.1325
 6271W        W49188  16.386  27.630   5.008  0.1600 -0.2466 -0.2455
 6272W        W49189  15.421  27.888   6.835 -0.0612  0.2892 -0.0193
 6273W        W49190  14.726  29.599   4.147 -0.1190  0.1136 -0.0284
 6274W        W49191  15.217  27.921   4.931 -0.1327  0.2844 -0.0128
 6275W        W49192  14.638  28.977   6.273  0.0592  0.0141  0.0925
 6276W        W49193  17.358  28.057   5.768 -0.0210 -0.2123 -0.1125
 6277W        W49194  15.401  26.916   4.638 -0.2571  0.0030 -0.1839
 6278W        W49195  15.935  27.408   5.188 -0.0703 -0.1774  0.2143
 6279W        W49196  18.483  27.521   5.211  0.0832 -0.3164 -0.1342
 6280W        W49197  18.625  26.151   7.103 -0.3014  0.2311 -0.1319
 6281W        W49198  16.254  26.744   3.547  0.1573 -0.1379 -0.0255
 6282W        W49199  13.942  26.851   6.239 -0.2097  0.0013 -0.1734
 6283W        W49200  14.194  27.151   5.283  0.2157 -0.1766  0.0893
 6284W        W49201  18.321  28.711   4.083  0.1109  0.0315 -0.2500
 6285W        W49202  16.790  26.596   5.594 -0.2060  0.1003  0.2248
 6286W        W49203  15.278  27.441   4.716 -0.0532  0.0913 -0.2172
 6287W        W49204  14.673  24.935   5.428  0.1205 -0.4639  0.0250
 6288W        W49205  16.825  27.379   5.897 -0.0993  0.1141  0.2101
 6289W        W49206  16.783  27.166   4.865 -0.2225  0.1491  0.0975
 6290W        W49207  17.413  28.601   6.189 -0.0726 -0.3069 -0.0062
 6291W        W49208  15.400  29.627   3.742 -0.4805 -0.0666 -0.2047
 6292W        W49209  13.399  27.821   5.769  0.2770 -0.1159 -0.1156
 6293W        W49210  17.296  24.610   2.193 -0.3411 -0.2466 -0.2873
 6294W        W49211  16.933  25.820   3.173 -0.1473 -0.0916  0.1114
 6295W        W49212  16.528  25.502   4.030 -0.1480 -0.2065 -0.0900
 6296W        W49213  19.656  24.580   6.527  0.2046 -0.0426 -0.2339
 6297W        W49214  16.568  28.340   4.440 -0.1372 -0.0779  0.0548
 6298W        W49215  19.010  25.327   6.550 -0.1734 -0.1154  0.0660
 6299W        W49216  14.476  23.763   5.596  0.2108  0.1107 -0.3466
 6300W        W49217  15.967  27.299   3.497  0.1967  0.3032 -0.4003
 6301W        W49218  14.613  27.241   5.481 -0.0456 -0.0492  0.1066
 6302W        W49219  17.100  30.599   7.633  0.0094  0.2002  0.1163
 6303W        W49220  14.316  27.260   7.150  0.0407  0.0843  0.1181
 6304W        W49221  15.337  25.600   3.733  0.0948 -0.0954 -0.0070
 6305W        W49222  14.778  25.805   3.202 -0.1421 -0.1096 -0.0372
 6306W        W49223  15.719  28.705   3.848 -0.1736 -0.1098  0.1334
 6307W        W49224  20.098  26.890   6.568 -0.2570 -0.0003 -0.2476
 6308W        W49225  16.038  29.054   3.744  0.2421 -0.1870  0.1762
 6309W        W49226  18.612  25.460   5.735  0.1445 -0.3698  0.0434
 6310W        W49227  16.394  27.894   4.563  0.0090 -0.0923  0.3317
 6311W        W49228  18.904  27.566   5.012 -0.0071  0.2302 -0.4194
 6312W        W49229  17.440  26.544   4.365  0.2283 -0.1196  0.1129
 6313W        W49230  13.865  28.125   6.040 -0.0707  0.1466 -0.0931
 6314W        W49231  15.936  25.793   5.730  0.1625 -0.0985  0.2402
 6315W        W49232  17.865  28.702   5.496  0.1272 -0.3211  0.0778
 6316W        W49233  17.272  27.172   5.042 -0.0293 -0.0242 -0.1523
 6317W        W49234  17.965  25.967   5.271  0.0546 -0.0939  0.1819
 6318W        W49235  18.155  28.347   5.517  0.3554 -0.2780  0.0948
 6319W        W49236  16.745  27.786   6.194  0.1609  0.3230 -0.0086
 6320W        W49237  15.747  25.309   5.811  0.1141 -0.0280 -0.0821
 6321W        W49238  16.689  28.744   8.404  0.0834  0.1793  0.0648
 6322W        W49239  19.813  25.797   2.286 -0.0644 -0.3414  0.1325
 6323W        W49240  16.181  25.771   7.469 -0.3477 -0.3137 -0.1336
 6324W        W49241  18.231  26.914   5.531 -0.1423 -0.1870 -0.0007
 6325W        W49242  16.394  29.405   3.541 -0.0728 -0.3601 -0.3145
 6326W        W49243  14.621  25.659   4.074 -0.0877 -0.0642 -0.1185
 6327W        W49244  17.276  26.613   6.330  0.2305  0.0606  0.0923
 6328W        W49245  15.048  26.187   1.104  0.4692 -0.0988 -0.1890
 6329W        W49246  16.863  25.722   6.495  0.0317 -0.1770  0.4096
 6330W        W49247  15.131  28.848   3.135 -0.0046  0.1058 -0.0773
 6331W        W49248  16.814  28.654   4.052 -0.0436 -0.1104 -0.1149
 6332W        W49249  15.722  27.012   3.127 -0.5108  0.0051  0.1052
 6333W        W49250  14.606  25.621   5.283  0.0080 -0.0973 -0.2893
 6334W        W49251  15.869  27.521   5.677  0.0299 -0.0082  0.0028
 6335W        W49252  16.135  25.109   3.230 -0.0876  0.0937 -0.0657
 6336W        W49253  17.988  27.623   3.952  0.0679 -0.2551  0.0036
 6337W        W49254  17.249  28.113   4.878  0.0892  0.1641  0.0040
 6338W        W49255  17.910  26.208   7.722  0.1703 -0.0941  0.2103
 6339W        W49256  15.649  25.187   3.042 -0.0263  0.2840  0.1820
 6340W        W49257  18.738  25.225   7.595  0.0421  0.2564  0.1590
 6341W        W49258  15.040  29.241   4.771 -0.0553  0.0228  0.0224
 6342W        W49259  16.097  23.125   3.380  0.1247  0.0194  0.1221
 6343W        W49260  16.481  28.466   6.526  0.0970 -0.0725  0.0899
 6344W        W49261  13.556  26.768   6.649 -0.2581 -0.0200 -0.0723
 6345W        W49262  15.071  28.387   5.155  0.0195  0.0922 -0.1953
 6346W        W49263  15.328  24.545   5.315 -0.1703 -0.0005  0.1685
 6347W        W49264  16.123  24.811   5.846 -0.1961  0.2358  0.1354
 6348W        W49265  16.505  27.004   5.634  0.0104 -0.0212  0.0319
 6349W        W49266  18.960  26.297   6.699  0.4806 -0.1205 -0.1880
 6350W        W49267  16.428  27.435   7.644  0.2990 -0.4716 -0.1702
 6351W        W49268  15.377  27.509   5.235  0.1536 -0.0893 -0.1785
 6352W        W49269  17.400  29.444   7.154 -0.1519 -0.0725  0.0399
 6353W        W49270  17.882  27.274   5.241  0.0002 -0.3292  0.0710
 6354W        W49271  14.487  29.676   6.892  0.1988 -0.1663 -0.1694
 6355W        W49272  13.502  26.537   6.022 -0.2985 -0.0108  0.1958
 6356W        W49273  16.677  27.434   7.184  0.0695 -0.2230  0.0110
 6357W        W49274  17.213  30.257   4.796 -0.0055 -0.1665  0.2015
 6358W        W49275  14.793  25.159   4.466 -0.0318 -0.1065  0.0169
 6359W        W49276  15.448  28.288   3.999  0.0687 -0.1579  0.1297
 6360W        W49277  16.178  29.293   7.020  0.0155  0.2477  0.0659
 6361W        W49278  15.994  25.223   6.290 -0.0936  0.1614 -0.0502
 6362W        W49279  14.515  30.407   6.368  0.1680  0.0567  0.0954
 6363W        W49280  16.695  28.044   4.981  0.2775 -0.3378  0.1267
 6364W        W49281  16.052  25.180   3.952  0.1158 -0.1064 -0.1413
 6365W        W49282  17.601  28.083   6.222 -0.0637 -0.3116 -0.0775
 6366W        W49283  15.526  28.748   4.383 -0.3095 -0.1108  0.1688
 6367W        W49284  12.790  29.641   5.070  0.1123 -0.2055 -0.2247
 6368W        W49285  13.509  29.193   3.197 -0.2391 -0.1977 -0.0970
 6369W        W49286  17.459  27.731   5.220 -0.0727 -0.0773 -0.1808
 6370W        W49287  15.162  29.247   4.269 -0.1654  0.0417  0.0906
 6371W        W49288  17.130  26.995   7.672 -0.0525  0.4368 -0.1532
 6372W        W49289  17.021  24.924   2.887  0.0332 -0.1369  0.1091
 6373W        W49290  17.982  26.809   6.478  0.0236 -0.2643  0.2887
 6374W        W49291  17.988  24.332   5.556  0.0508 -0.1722  0.5495
 6375W        W49292  17.138  27.495   7.466  0.1777 -0.1062  0.2604
 6376W        W49293  14.687  26.275   4.946 -0.1755  0.2505 -0.1212
 6377W        W49294  14.983  25.643   1.824 -0.0674  0.2048 -0.2089
 6378W        W49295  16.421  26.712   6.261  0.2390 -0.0799  0.1352
 6379W        W49296  17.083  25.405   5.655 -0.1341  0.0219  0.0426
 6380W        W49297  14.573  28.002   6.602  0.1531  0.1785 -0.1806
 6381W        W49298  19.175  28.424   5.639 -0.0883 -0.2910 -0.4679
 6382W        W49299  15.643  27.065   5.026  0.0408  0.1607 -0.1058
 6383W        W49300  16.582  27.654   4.087  0.0301  0.2172 -0.1743
 6384W        W49301  18.311  24.905   6.118  0.2061 -0.1449 -0.0617
 6385W        W49302  17.451  27.403   3.109  0.2996  0.0225  0.0678
 6386W        W49303  16.206  24.028   5.052 -0.1196 -0.2696 -0.0708
 6387W        W49304  14.781  28.961   3.930 -0.1279 -0.0554  0.2832
 6388W        W49305  15.442  29.190   6.665 -0.1819 -0.2644 -0.0999
 6389W        W49306  15.403  28.668   5.933  0.0191 -0.3054  0.0723
 6390W        W49307  13.153  27.983   1.093 -0.0755 -0.3769  0.1860
 6391W        W49308  19.102  25.449   5.736 -0.0597  0.3802  0.2972
 6392W        W49309  14.037  26.603   6.682 -0.0562 -0.2757  0.1531
 6393W        W49310  17.736  23.342   5.783 -0.2202  0.2133  0.0700
 6394W        W49311  16.366  25.966   3.983 -0.2599 -0.2160 -0.0542
 6395W        W49312  18.671  26.125   6.383 -0.0115 -0.1035  0.1366
 6396W        W49313  14.289  29.280   6.058 -0.3033  0.4025 -0.0347
 6397W        W49314  13.762  26.905   5.711  0.0792 -0.2618  0.2312
 6398W        W49315  17.179  26.690   4.854 -0.1597  0.0541  0.0249
 6399W        W49316  17.471  28.356   7.101 -0.4033  0.0901  0.1165
 6400W        W49317  16.734  27.546   4.568 -0.0527 -0.0127  0.1683
 6401W        W49318  17.985  29.458   7.506 -0.0852 -0.0277 -0.2280
 6402W        W49319  15.667  26.463   4.141  0.0457 -0.1614  0.1434
 6403W        W49320  18.210  25.946   1.191 -0.2842  0.1357 -0.0961
 6404W        W49321  14.862  26.919   4.699  0.2361 -0.2359 -0.1053
 6405W        W49322  16.303  26.556   5.640 -0.1899  0.0487 -0.0115
 6406W        W49323  17.721  29.111   6.417  0.1530  0.0403 -0.0320
 6407W        W49324  15.074  25.220   3.986 -0.4584 -0.1106  0.1372
 6408W        W49325  17.711  29.417   6.067  0.0608 -0.1839 -0.0687
 6409W        W49326  16.596  25.790   4.437 -0.0219 -0.0480  0.2094
 6410W        W49327  15.222  29.647   4.556 -0.1514  0.2802 -0.3015
 6411W        W49328  18.521  27.354   4.667  0.0726  0.0779 -0.0419
 6412W        W49329  15.912  29.985   4.092 -0.0377  0.0623  0.2687
 6413W        W49330  13.739  27.006   7.147 -0.0450  0.0472  0.1497
 6414W        W49331  16.584  28.703   6.045 -0.1076 -0.1108  0.3253
 6415W        W49332  18.849  28.115   4.957  0.2430 -0.2652 -0.1815
 6416W        W49333  16.170  24.977   4.435  0.1282  0.1485  0.1673
 6417W        W49334  15.961  26.555   4.748  0.2526 -0.0920  0.1997
 6418W        W49335  13.556  30.406   4.191  0.0586  0.1091 -0.1249
 6419W        W49336  18.294  26.067   4.454 -0.0305  0.1104  0.0366
 6420W        W49337  15.199  25.549   5.071  0.3477 -0.0167  0.0770
 6421W        W49338  14.933  29.678   5.030  0.1555 -0.2168 -0.1175
 6422W        W49339  18.579  24.977   6.584 -0.0892  0.1632  0.1486
 6423W        W49340  17.440  28.225   3.593 -0.0930 -0.0892  0.0277
 6424W        W49341  15.453  28.535   7.658  0.0649  0.0057 -0.2491
 6425W        W49342  14.613  27.457   3.184  0.6005  0.0320 -0.0327
 6426W        W49343  16.993  26.162   4.909  0.0400 -0.0313 -0.1501
 6427W        W49344  14.739  28.532   3.085 -0.0608 -0.0278  0.3096
 6428W        W49345  16.440  29.374   2.058  0.0209  0.2022  0.2528
 6429W        W49346  17.605  27.584   4.326  0.0131  0.0810 -0.0601
 6430W        W49347  15.561  26.354   5.065 -0.3661  0.1655  0.0694
 6431W        W49348  19.051  26.975   6.458 -0.3409 -0.0706  0.0508
 6432W        W49349  15.981  25.647   3.991  0.0993  0.0690  0.0205
 6433W        W49350  17.950  24.993   3.264 -0.0158  0.0783  0.1366
 6434W        W49351  15.913  24.174   3.256  0.4447  0.3509 -0.0624
 6435W        W49352  15.552  28.285   4.905 -0.0147  0.2897  0.0486
 6436W        W49353  14.807  25.961   2.509 -0.0973 -0.3444  0.0189
 6437W        W49354  15.172  27.800   3.058 -0.0014 -0.0223  0.2136
 6438W        W49355  17.240  26.800   5.366 -0.1682 -0.2741  0.2450
 6439W        W49356  16.482  24.742   6.656  0.1808  0.0204  0.1381
 6440W        W49357  15.494  26.738   5.408  0.1667  0.2789 -0.3933
 6441W        W49358  14.897  26.283   6.040 -0.2965  0.1544 -0.1273
 6442W        W49359  17.079  28.177   5.368 -0.0072  0.3154  0.2158
 6443W        W49360  17.570  26.540   3.085  0.0521 -0.0443 -0.0566
 6444W        W49361  14.429  22.110   4.093 -0.1298  0.2392  0.0398
 6445W        W49362  14.369  25.730   3.639  0.2968  0.1615  0.0599
 6446W        W49363  17.515  27.454   3.809  0.0757 -0.1220  0.0229
 6447W        W49364  18.076  28.060   3.567 -0.3312 -0.2168  0.0503
 6448W        W49365  17.572  26.876   3.499 -0.0378 -0.0081  0.1190
 6449W        W49366  18.064  27.071   6.014 -0.1868 -0.0891 -0.1745
 6450W        W49367  15.514  28.431   2.390  0.0239  0.1077 -0.2708
 6451W        W49368  16.477  27.926   7.006  0.3495 -0.1389  0.1395
 6452W        W49369  16.158  27.154   6.014 -0.0877  0.0909 -0.0278
 6453W        W49370  14.181  25.307   3.987 -0.2091 -0.2676  0.0514
 6454W        W49371  16.102  26.100   5.187 -0.1453  0.0812  0.4108
 6455W        W49372  14.662  29.484   8.073 -0.1366  0.3337 -0.0872
 6456W        W49373  16.554  27.289   2.830 -0.5547  0.1193  0.1923
 6457W        W49374  14.816  27.605   4.693  0.2620  0.1715 -0.1236
 6458W        W49375  16.284  27.918   6.447  0.0479  0.0252 -0.0240
 6459W        W49376  13.191  26.137   6.834 -0.0062 -0.1732  0.4409
 6460W        W49377  18.340  29.281   3.111 -0.0747 -0.2928  0.1355
 6461W        W49378  16.086  28.604   5.906  0.0168 -0.0058  0.2135
 6462W        W49379  18.947  27.338   3.827 -0.0376 -0.0038 -0.2752
 6463W        W49380  18.135  25.491   4.561  0.2870  0.2717  0.1286
 6464W        W49381  16.673  26.322   2.998 -0.1549 -0.1262  0.5414
 6465W        W49382  14.679  24.233   6.135  0.0743 -0.3484  0.1651
 6466W        W49383  16.390  27.603   5.954 -0.0167 -0.4452  0.0324
 6467W        W49384  17.888  29.446   5.058 -0.2006 -0.0793  0.2902
 6468W        W49385  17.456  25.544   4.504  0.0181  0.2139  0.1718
 6469W        W49386  17.404  25.324   5.260 -0.2866  0.0906  0.5159
 6470W        W49387  15.289  28.753   4.830  0.0184  0.0734  0.1979
 6471W        W49388  13.904  27.490   4.983 -0.0138  0.0524 -0.1485
 6472W        W49389  18.320  26.799   3.348 -0.2876  0.2900  0.2970
 6473W        W49390  15.630  25.770   5.306  0.0118  0.0578  0.0022
 6474W        W49391  17.216  28.848   4.442  0.0535  0.0360  0.1081
 6475W        W49392  18.106  29.095   6.000  0.1845  0.5882  0.1804
 6476W        W49393  16.179  28.537   3.540  0.3939  0.0317 -0.1346
 6477W        W49394  18.849  25.471   3.243  0.0743 -0.0362  0.2764
 6478W        W49395  17.932  29.883   5.403  0.0620 -0.2966 -0.1993
 6479W        W49396  18.875  28.800   7.258  0.3919 -0.0288 -0.0378
 6480W        W49397  17.059  28.155   6.232  0.0105  0.2751 -0.1172
 6481W        W49398  17.689  26.817   4.700 -0.2987 -0.3157 -0.2164
 6482W        W49399  14.364  24.340   6.690 -0.0521 -0.0506  0.1093
 6483W        W49400  15.573  27.789   4.316 -0.1309  0.7254  0.1287
 6484W        W49401  16.266  29.641   3.946  0.1344 -0.0014  0.4259
 6485W        W49402  17.768  27.022   5.660 -0.2998 -0.1522  0.0096
 6486W        W49403  16.278  27.340   4.346  0.1290  0.1626  0.3101
 6487W        W49404  16.286  24.671   3.980  0.0298 -0.0993 -0.2104
 6488W        W49405  14.984  28.048   5.902 -0.0169  0.0630  0.1865
 6489W        W49406  15.998  29.074   4.224 -0.0428  0.1530  0.1017
 6490W        W49407  15.477  28.346  10.405 -0.2946 -0.0995  0.1635
 6491W        W49408  15.583  27.348   6.588 -0.1678  0.3205 -0.1780
 6492W        W49409  17.769  26.808   6.930 -0.2232  0.2883  0.2036
 6493W        W49410  18.475  25.627   7.284 -0.1223 -0.0100 -0.2030
 6494W        W49411  15.649  28.000   8.441 -0.0319  0.4452 -0.1107
 6495W        W49412  18.038  28.519   8.102 -0.1678  0.1257  0.0334
 6496W        W49413  18.245  25.548   8.824 -0.4210  0.0324 -0.1423
 6497W        W49414  17.282  27.557   9.381  0.0242 -0.1668  0.0427
 6498W        W49415  16.207  28.315   6.936 -0.2911  0.1734  0.0580
 6499W        W49416  15.076  27.479   8.604  0.0860  0.2709  0.0020
 6500W        W49417  18.326  26.555   7.890 -0.1308 -0.0340  0.0389
 6501W        W49418  14.143  23.768   8.808 -0.1601 -0.3055  0.1580
 6502W        W49419  17.127  27.151   9.261  0.2364  0.2139 -0.0268
 6503W        W49420  15.606  28.207   7.216  0.1418 -0.0451  0.0912
 6504W        W49421  15.611  24.826   8.845 -0.0932 -0.0689 -0.4067
 6505W        W49422  17.819  25.987   6.356  0.0152 -0.1113 -0.1442
 6506W        W49423  16.919  29.259   7.136 -0.2396  0.1179  0.0736
 6507W        W49424  16.742  25.247   7.993 -0.0781 -0.3139  0.1425
 6508W        W49425  16.179  27.614   8.606  0.2358 -0.0508  0.0131
 6509W        W49426  15.973  26.943   6.406 -0.2792  0.1815  0.3490
 6510W        W49427  14.957  25.337   7.279 -0.0821  0.0143 -0.1406
 6511W        W49428  15.112  27.813   8.998  0.1001 -0.2000  0.0816
 6512W        W49429  17.175  25.530   8.243 -0.0812 -0.4102 -0.0017
 6513W        W49430  16.722  27.706   8.747  0.1629  0.3455 -0.0131
 6514W        W49431  17.020  30.069   9.690  0.3110 -0.0528  0.1983
 6515W        W49432  18.631  26.028   9.462 -0.0170 -0.1056  0.1299
 6516W        W49433  15.953  27.815   6.865  0.1040  0.2455 -0.3227
 6517W        W49434  15.614  29.821   8.573 -0.0114 -0.1161  0.0863
 6518W        W49435  16.678  28.796   9.427  0.0101 -0.0303  0.1670
 6519W        W49436  17.375  28.068   9.286 -0.1720 -0.0313  0.0240
 6520W        W49437  15.434  29.072   7.658  0.4654 -0.1995 -0.0292
 6521W        W49438  13.687  25.863   9.561  0.1013 -0.3962 -0.0985
 6522W        W49439  14.128  28.533  11.020  0.2354  0.4231  0.0889
 6523W        W49440  16.655  29.231   7.866 -0.1945  0.1330  0.0271
 6524W        W49441  15.944  29.125   8.465  0.0081  0.1648 -0.1718
 6525W        W49442  15.982  31.081   8.025  0.1623  0.3373  0.3131
 6526W        W49443  17.554  26.329   4.948 -0.1059  0.2716  0.1412
 6527W        W49444  19.262  26.681   6.865  0.1672  0.1620  0.2443
 6528W        W49445  16.539  27.058   6.896 -0.1253  0.1298  0.1290
 6529W        W49446  17.662  25.377   6.327  0.2028  0.0596 -0.0602
 6530W        W49447  17.390  26.387   7.671  0.1397 -0.0852 -0.1956
 6531W        W49448  16.337  31.478   9.750 -0.2003 -0.0739  0.0922
 6532W        W49449  17.311  26.052   8.161 -0.1421 -0.2637 -0.0398
 6533W        W49450  18.094  27.194   9.292  0.1144  0.0472  0.2555
 6534W        W49451  18.833  27.628   9.311  0.2272 -0.2824 -0.0471
 6535W        W49452  17.296  27.042   8.430  0.0296 -0.0933  0.4393
 6536W        W49453  15.133  27.636   8.018  0.0160  0.0620  0.0979
 6537W        W49454  18.442  27.659   6.603 -0.0972  0.0427 -0.1109
 6538W        W49455  20.157  28.237   8.991  0.1179  0.6173 -0.1672
 6539W        W49456  15.831  28.878   7.876 -0.1426 -0.1898  0.1198
 6540W        W49457  13.875  27.003   8.223  0.1682  0.4722 -0.1146
 6541W        W49458  15.453  24.730   4.873 -0.0587  0.1184 -0.0015
 6542W        W49459  18.484  25.426   6.820  0.1741 -0.2769 -0.2440
 6543W        W49460  16.584  28.250   8.339  0.0571  0.0796 -0.0172
 6544W        W49461  17.242  26.549   8.154 -0.2226 -0.0428  0.1743
 6545W        W49462  17.491  27.744   7.139  0.2788 -0.2492  0.2235
 6546W        W49463  16.476  24.770   8.368  0.2578  0.1915 -0.1686
 6547W        W49464  17.796  25.293   7.832  0.2660  0.0292 -0.0475
 6548W        W49465  16.066  25.680   9.350  0.2858 -0.0154  0.1844
 6549W        W49466  16.621  26.914   7.744 -0.0251 -0.1073 -0.0618
 6550W        W49467  17.685  27.638   7.598 -0.0938  0.0853  0.1620
 6551W        W49468  19.074  24.873   6.445 -0.0363  0.1523  0.1566
 6552W        W49469  14.995  28.432  11.395 -0.2039  0.0640  0.1247
 6553W        W49470  16.412  28.362   5.588 -0.3586  0.1804 -0.0672
 6554W        W49471  16.501  27.221   8.617  0.1390 -0.0194  0.0104
 6555W        W49472  16.792  26.220   8.940 -0.0791  0.3692  0.0378
 6556W        W49473  17.983  26.744   9.116 -0.1796  0.5989  0.2641
 6557W        W49474  17.739  26.627   8.614 -0.0935  0.3539 -0.2100
 6558W        W49475  19.763  23.272   5.642  0.3104 -0.3936  0.0582
 6559W        W49476  16.818  27.506   9.575  0.0559 -0.0668  0.0457
 6560W        W49477  15.011  28.070   7.021  0.0242 -0.5447  0.1618
 6561W        W49478  18.553  31.087   7.840  0.1290 -0.3801 -0.1909
 6562W        W49479  19.263  27.138   8.597  0.0101 -0.1278  0.4177
 6563W        W49480  17.714  25.890   6.886 -0.2805 -0.2546  0.0609
 6564W        W49481  13.869  26.054   8.162 -0.1999  0.2010  0.0141
 6565W        W49482  16.974  25.560   8.816 -0.2002  0.1264  0.1968
 6566W        W49483  15.737  27.676   7.391 -0.1332  0.0030  0.1264
 6567W        W49484  15.358  25.455   6.899 -0.0771 -0.1760 -0.0566
 6568W        W49485  15.743  27.100   7.381 -0.0981 -0.2638 -0.0158
 6569W        W49486  16.819  24.786   9.193  0.2402  0.4793 -0.3778
 6570W        W49487  12.806  26.813   9.434 -0.0050 -0.3313  0.0554
 6571W        W49488  15.943  29.814   5.944  0.0629 -0.1110 -0.0233
 6572W        W49489  20.377  27.868   8.079 -0.0988  0.0967  0.1527
 6573W        W49490  17.289  29.891   8.872  0.0402 -0.2399 -0.0545
 6574W        W49491  14.983  24.972   9.337  0.0945  0.0015 -0.1644
 6575W        W49492  15.709  26.250   7.057  0.0697  0.0432  0.0834
 6576W        W49493  15.957  30.533   8.074  0.1268 -0.1532 -0.1167
 6577W        W49494  18.421  26.122   7.585  0.3544 -0.1396 -0.4030
 6578W        W49495  15.705  27.859   5.196 -0.0089 -0.0304  0.0289
 6579W        W49496  19.844  26.341   8.884 -0.0966 -0.0854 -0.0219
 6580W        W49497  18.259  26.986   6.901  0.1187 -0.0735  0.1927
 6581W        W49498  19.560  22.683   9.416 -0.2899  0.1781  0.1682
 6582W        W49499  18.054  27.799   6.329 -0.3765 -0.2235  0.3609
 6583W        W49500  15.030  26.255   6.615  0.0397 -0.0311 -0.0066
 6584W        W49501  17.341  29.476   8.595  0.0913  0.1689  0.0037
 6585W        W49502  16.606  27.245   6.309 -0.0844  0.2410  0.2021
 6586W        W49503  14.326  26.847   8.025  0.3223  0.2780  0.1691
 6587W        W49504  16.846  30.014   7.929 -0.1082 -0.0457 -0.0501
 6588W        W49505  17.577  24.325   9.439 -0.1210  0.0904 -0.0060
 6589W        W49506  15.027  27.152   7.684  0.1200 -0.0252  0.2149
 6590W        W49507  17.329  25.670   6.610 -0.2096 -0.0222 -0.1290
 6591W        W49508  16.645  24.490   7.156 -0.1111 -0.0342  0.4415
 6592W        W49509  17.442  25.608   7.834  0.3806 -0.0944  0.0287
 6593W        W49510  17.089  26.356   7.132  0.2041  0.0981 -0.2119
 6594W        W49511  16.912  26.961   7.182 -0.1256  0.1344 -0.3248
 6595W        W49512  18.957  29.336   9.278 -0.0078  0.0175 -0.2802
 6596W        W49513  18.395  26.969   8.845  0.2309 -0.1828 -0.2991
 6597W        W49514  16.278  26.531   6.707 -0.0790 -0.1116 -0.0268
 6598W        W49515  17.559  30.427   7.728 -0.2224  0.1798 -0.1279
 6599W        W49516  18.249  27.991   8.693 -0.1906 -0.3202  0.1965
 6600W        W49517  17.624  27.567   6.591 -0.0963  0.2932  0.0725
 6601W        W49518  16.353  25.527   6.383  0.1401 -0.1622  0.1125
 6602W        W49519  17.706  27.489   6.146  0.0737  0.0995 -0.2548
 6603W        W49520  16.039  26.213   8.004 -0.0399  0.1882  0.4211
 6604W        W49521  12.909  28.479   7.776  0.0576 -0.1725  0.0217
 6605W        W49522  18.303  24.396   7.508 -0.1193  0.1247  0.2012
 6606W        W49523  16.243  30.270   9.832  0.0249  0.0196  0.1814
 6607W        W49524  18.399  26.501   6.737  0.0873 -0.0460 -0.0406
 6608W        W49525  18.643  24.663  10.016  0.3297  0.1707 -0.0930
 6609W        W49526  16.348  29.036   8.778 -0.0071  0.3243 -0.1987
 6610W        W49527  19.884  24.748   8.228  0.0438 -0.0946  0.3134
 6611W        W49528  14.233  29.669  10.497  0.0402  0.4276  0.1494
 6612W        W49529  18.906  25.896   7.466  0.2244 -0.0733 -0.1463
 6613W        W49530  13.514  27.054   6.159 -0.0178 -0.0264 -0.0140
 6614W        W49531  16.100  28.049   8.232  0.0420  0.0799 -0.0112
 6615W        W49532  16.968  28.272   7.318 -0.0417 -0.0315 -0.0159
 6616W        W49533  16.948  24.281   8.282  0.0538 -0.2039  0.2907
 6617W        W49534  17.279  27.842   8.859 -0.0974 -0.3041  0.0124
 6618W        W49535  16.294  28.828   7.599 -0.1572  0.1525  0.1489
 6619W        W49536  16.054  27.915   9.686 -0.1030  0.0018 -0.1251
 6620W        W49537  16.640  26.545   7.182  0.2560  0.1740 -0.1575
 6621W        W49538  18.831  23.839   8.011  0.1119  0.0798 -0.1661
 6622W        W49539  15.531  27.216   8.628  0.0970  0.0410 -0.1742
 6623W        W49540  16.821  26.361   6.023  0.2556 -0.3457 -0.1393
 6624W        W49541  16.989  25.954   5.724 -0.0099  0.2242 -0.1942
 6625W        W49542  19.068  24.768   7.668  0.2171  0.0903  0.0849
 6626W        W49543  18.237  26.463   7.169  0.0968 -0.2440  0.3863
 6627W        W49544  15.509  26.582   8.786  0.1865 -0.1174 -0.0656
 6628W        W49545  15.857  25.750   7.099  0.0070  0.2400 -0.0697
 6629W        W49546  16.171  26.155   8.838  0.0589 -0.0415  0.0051
 6630W        W49547  18.178  23.552   9.528  0.2599  0.5415 -0.0358
 6631W        W49548  15.131  27.080   6.676 -0.1321 -0.2472  0.2465
 6632W        W49549  16.930  24.620   8.684 -0.2931 -0.1784 -0.1055
 6633W        W49550  16.742  26.051   7.242 -0.1265  0.0321  0.0055
 6634W        W49551  14.346  28.669   8.392 -0.2171  0.0971  0.2000
 6635W        W49552  16.521  29.686   8.068  0.0878  0.0134 -0.0447
 6636W        W49553  16.175  27.476   7.255  0.1648  0.1227  0.2217
 6637W        W49554  16.549  27.735   8.293  0.0615 -0.1171 -0.1876
 6638W        W49555  19.905  27.002   8.851  0.1571  0.2312  0.0144
 6639W        W49556  16.479  26.544   8.050  0.0598 -0.1177  0.1318
 6640W        W49557  16.861  25.743   7.891  0.1012 -0.1635 -0.2026
 6641W        W49558  16.245  27.469   9.056  0.4480 -0.0839 -0.3351
 6642W        W49559  19.864  23.532   9.519  0.1736 -0.0605  0.0355
 6643W        W49560  17.756  25.872   8.087 -0.0267 -0.1602 -0.0270
 6644W        W49561  18.204  26.256   6.329  0.0507  0.0480 -0.0231
 6645W        W49562  18.141  28.791   8.495 -0.1982  0.2373 -0.1432
 6646W        W49563  18.038  27.832   8.273 -0.0518 -0.0509  0.1650
 6647W        W49564  18.238  26.054   8.060  0.0883  0.0976  0.2580
 6648W        W49565  14.395  30.246  11.206  0.1543 -0.1667 -0.0608
 6649W        W49566  14.701  26.845   9.615 -0.1404  0.0890  0.1963
 6650W        W49567  14.389  26.437   8.880  0.0994 -0.2118 -0.0465
 6651W        W49568  13.664  27.277   7.743 -0.0741  0.1350 -0.0075
 6652W        W49569  16.394  28.350   9.725  0.0906  0.0058 -0.4528
 6653W        W49570  18.525  24.984   8.555  0.2501 -0.3897  0.1576
 6654W        W49571  16.478  28.217   6.104  0.0430 -0.1549 -0.0371
 6655W        W49572  16.909  25.108   8.512  0.0007  0.0301  0.3268
 6656W        W49573  17.407  27.306   7.940  0.1113 -0.1106 -0.2734
 6657W        W49574  16.350  25.674   7.938  0.0321  0.0923 -0.2231
 6658W        W49575  18.319  28.736   8.939  0.1561 -0.1505  0.0831
 6659W        W49576  16.310  26.965   7.407 -0.3219 -0.1608 -0.2938
 6660W        W49577  14.579  26.528   5.745  0.1528  0.2316  0.2229
 6661W        W49578  17.690  26.274   8.978 -0.3551  0.3058 -0.0308
 6662W        W49579  18.727  26.158   8.004  0.0714  0.0177  0.0880
 6663W        W49580  15.703  27.035   7.927 -0.3434 -0.2833  0.1618
 6664W        W49581  18.464  24.726   9.525  0.0689 -0.0287  0.0948
 6665W        W49582  16.611  28.357   9.186 -0.2474 -0.0842  0.0330
 6666W        W49583  16.183  27.848   7.795  0.3894  0.2181  0.1793
 6667W        W49584  17.624  25.855   7.406  0.3336  0.0230  0.0511
 6668W        W49585  16.089  28.013   7.299  0.0185  0.0228 -0.1815
 6669W        W49586  16.741  25.310   9.217  0.0112  0.2367  0.1960
 6670W        W49587  16.798  26.813   8.872 -0.1134 -0.1528  0.3228
 6671W        W49588  18.676  29.750   9.230  0.1762 -0.0454  0.1442
 6672W        W49589  16.823  25.397   6.115 -0.1964 -0.1916  0.0850
 6673W        W49590  15.699  26.555   9.235  0.1095  0.1133 -0.1673
 6674W        W49591  18.615  24.549   9.006  0.0051  0.1595 -0.0760
 6675W        W49592  17.183  26.167   6.662 -0.2169  0.0546 -0.2554
 6676W        W49593  15.954  27.436   7.801  0.2153 -0.1868  0.1333
 6677W        W49594  13.141  26.177   4.321  0.1782  0.2998 -0.2686
 6678W        W49595  16.875  26.258   7.997 -0.1925 -0.3792  0.3073
 6679W        W49596  17.137  29.127   7.578 -0.0949 -0.2001  0.2396
 6680W        W49597  17.250  26.632   5.804  0.1875  0.2537 -0.0435
 6681W        W49598  13.748  27.518   8.174  0.0813 -0.0675 -0.2229
 6682W        W49599  14.265  27.806   6.282 -0.0205  0.1128  0.2968
 6683W        W49600  17.045  27.950   8.355  0.2420 -0.3272 -0.0533
 6684W        W49601  15.964  27.824   9.181 -0.2309 -0.1272 -0.0060
 6685W        W49602  15.257  24.403   5.864  0.0074 -0.1532 -0.0966
 6686W        W49603  17.000  28.555   6.547 -0.0801  0.3512 -0.0033
 6687W        W49604  17.066  25.462   7.502 -0.0144  0.1160  0.2120
 6688W        W49605  15.383  29.048   9.640  0.1443  0.0049  0.3091
 6689W        W49606  16.764  30.189   8.420  0.0525  0.2312  0.0147
 6690W        W49607  19.095  26.090   8.991 -0.0963 -0.3627  0.2651
 6691W        W49608  17.759  28.430   9.324 -0.0002 -0.3471  0.2355
 6692W        W49609  17.227  27.360   8.809 -0.0632 -0.2592 -0.0876
 6693W        W49610  13.326  25.890   9.892  0.1268 -0.1975 -0.0116
 6694W        W49611  17.916  27.109   8.786 -0.1049 -0.0737  0.1023
 6695W        W49612  18.181  29.690   9.127  0.2229  0.4864 -0.0563
 6696W        W49613  14.430  30.640  10.841  0.3837  0.1466 -0.0361
 6697W        W49614  15.961  23.258   7.045  0.2124  0.2023  0.0978
 6698W        W49615  18.671  27.090   7.975  0.2350 -0.4547  0.1876
 6699W        W49616  17.046  25.716   9.269 -0.0529  0.1254 -0.1341
 6700W        W49617  17.115  28.714   7.078  0.2104 -0.1735  0.0928
 6701W        W49618  16.853  26.875   6.016  0.1920  0.0777  0.0645
 6702W        W49619  17.500  27.854   7.990  0.1937 -0.0675  0.0226
 6703W        W49620  17.619  28.059   8.431 -0.0490  0.0986  0.4006
 6704W        W49621  16.098  27.349   6.764  0.0452 -0.0063 -0.0665
 6705W        W49622  16.297  29.755   8.501 -0.1163  0.1265 -0.0452
 6706W        W49623  15.530  28.146   6.093 -0.1684  0.0243 -0.3959
 6707W        W49624  17.110  28.498   8.330 -0.1040 -0.1546  0.5402
 6708W        W49625  17.439  26.905   8.887  0.3641  0.3802 -0.0443
 6709W        W49626  19.192  24.527   7.029 -0.1002 -0.1194 -0.0608
 6710W        W49627  19.375  27.312   9.067  0.2407 -0.1860 -0.0416
 6711W        W49628  19.070  25.726   7.978  0.2552 -0.1329 -0.0679
 6712W        W49629  16.503  25.149   8.785  0.0844  0.2983 -0.1802
 6713W        W49630  16.114  25.199   5.452  0.0939 -0.2099 -0.0012
 6714W        W49631  19.031  30.265   7.434  0.0272 -0.1199 -0.1936
 6715W        W49632  14.299  27.331   8.372  0.0157 -0.0304  0.2704
 6716W        W49633  16.376  26.505   9.166  0.3391  0.4612  0.1994
 6717W        W49634  19.881  24.134   9.133  0.0735  0.2595  0.2395
 6718W        W49635  15.837  26.373   8.532 -0.1370  0.0895 -0.3553
 6719W        W49636  16.251  29.716   9.473  0.0378 -0.3348  0.2475
 6720W        W49637  16.095  28.439   7.905 -0.3840  0.0611  0.1224
 6721W        W49638  17.127  27.323   6.873  0.1414  0.1725 -0.0709
 6722W        W49639  17.342  28.909   9.080 -0.1257 -0.0469  0.0064
 6723W        W49640  16.740  25.529   7.012  0.5781 -0.3118  0.0077
 6724W        W49641  23.740  20.416   8.330  0.1550  0.1847 -0.3009
 6725W        W49642  15.352  25.640   8.378 -0.0088 -0.3117 -0.2518
 6726W        W49643  14.502  28.546   9.559  0.1905  0.1425  0.0834
 6727W        W49644  20.460  23.757   8.079  0.2078  0.0718  0.1304
 6728W        W49645  16.170  25.509   8.521 -0.1866 -0.0096  0.2256
 6729W        W49646  15.980  29.929  10.136  0.2619 -0.1935  0.2603
 6730W        W49647  18.420  25.053   7.195 -0.0393 -0.1047 -0.1933
 6731W        W49648  17.764  26.460   6.179  0.2437 -0.1500 -0.3490
 6732W        W49649  15.633  26.971   6.908 -0.0374 -0.0052  0.1995
 6733W        W49650  17.602  25.270   8.277  0.0058  0.1965 -0.1552
 6734W        W49651  14.134  27.682   7.814 -0.0373  0.2525 -0.1321
 6735W        W49652  15.965  25.241   9.572  0.1203 -0.0647  0.1870
 6736W        W49653  13.232  26.485   6.436  0.0812  0.3060  0.1914
 6737W        W49654  16.784  28.571   7.910  0.0073 -0.3123 -0.2121
 6738W        W49655  17.777  24.608   8.369 -0.0018 -0.0251 -0.0655
 6739W        W49656  17.725  29.072   8.415  0.1389  0.0817  0.0467
 6740W        W49657  18.067  27.157   7.333  0.2265 -0.0030 -0.0769
 6741W        W49658  16.873  28.201   9.611 -0.2081  0.1379  0.1507
 6742W        W49659  15.315  27.653   9.414 -0.0554 -0.0022 -0.0781
 6743W        W49660  18.656  28.590   8.572 -0.0212  0.0828  0.0074
 6744W        W49661  17.475  25.389   8.748  0.2007 -0.0913  0.0023
 6745W        W49662  17.154  25.838   7.114  0.2407  0.3822 -0.0711
 6746W        W49663  17.197  25.459  11.903  0.2569 -0.1352  0.1987
 6747W        W49664  14.173  28.898   9.774 -0.0320  0.2185  0.3490
 6748W        W49665  19.208  22.824   8.920 -0.0682  0.0747 -0.3738
 6749W        W49666  17.002  27.838   7.096  0.1860 -0.1766 -0.1411
 6750W        W49667  16.593  29.837   9.775  0.1795  0.1781 -0.1652
 6751W        W49668  15.171  28.298   9.246  0.1956  0.1642  0.2022
 6752W        W49669  14.445  27.881   9.664  0.3074  0.0363  0.0620
 6753W        W49670  16.518  28.170   7.867  0.4550 -0.1179  0.0363
 6754W        W49671  19.838  28.764   7.268  0.0108  0.0461  0.0484
 6755W        W49672  16.957  25.980   8.514 -0.1574 -0.2072  0.0292
 6756W        W49673  16.084  26.763   8.219  0.2401 -0.0518 -0.0254
 6757W        W49674  16.333  26.299   7.518 -0.0236  0.1335  0.1790
 6758W        W49675  18.188  26.797   8.374 -0.1629 -0.0202 -0.3502
 6759W        W49676  17.953  25.057   8.594  0.1022  0.0297  0.1858
 6760W        W49677  14.893  26.478   8.727  0.2412 -0.2510  0.2133
 6761W        W49678  14.647  27.266   6.125  0.0133 -0.2764  0.1541
 6762W        W49679  14.574  27.037   7.494  0.0250  0.1691  0.1870
 6763W        W49680  16.012  26.663   7.140 -0.1080  0.0207  0.0436
 6764W        W49681  13.323  27.308   8.313 -0.1393  0.0960  0.1025
 6765W        W49682  13.819  27.822   6.456 -0.0336  0.3443  0.0217
 6766W        W49683  17.186  28.610   7.577  0.1826 -0.3545  0.1490
 6767W        W49684  16.346  24.680   8.907 -0.0858  0.1919 -0.3428
 6768W        W49685  16.102  25.272   9.014 -0.0679  0.0932 -0.1044
 6769W        W49686  18.515  27.376   7.111 -0.1304  0.2610 -0.0664
 6770W        W49687  17.213  28.906   8.605 -0.0511 -0.0179 -0.0825
 6771W        W49688  16.855  29.746   8.718 -0.0874  0.0026 -0.1859
 6772W        W49689  16.613  27.550   6.687  0.2257 -0.0655 -0.0613
 6773W        W49690  12.069  26.322   8.306  0.0937 -0.1413  0.1447
 6774W        W49691  14.608  27.964   8.692  0.1227 -0.1113  0.1756
 6775W        W49692  15.401  29.233   7.149  0.2243  0.1169 -0.0750
 6776W        W49693  17.908  28.656   6.237 -0.1837  0.0749  0.0387
 6777W        W49694  15.915  26.663   7.608 -0.1575  0.3382 -0.0983
 6778W        W49695  19.084  26.065   6.173 -0.1152  0.0393 -0.0363
 6779W        W49696  17.554  26.828   7.937 -0.2159 -0.1858  0.5863
 6780W        W49697  18.886  26.186   8.555  0.0913 -0.0217  0.2117
 6781W        W49698  18.039  25.486   7.114 -0.0024  0.2190  0.2434
 6782W        W49699  19.302  25.037   9.205 -0.0746 -0.2938 -0.1772
 6783W        W49700  15.893  24.709   9.304  0.1579  0.0584 -0.1879
 6784W        W49701  17.451  24.208   6.660  0.0968  0.1277  0.1239
 6785W        W49702  17.026  28.037   7.833  0.0997  0.1994  0.0279
 6786W        W49703  16.580  27.174   9.312  0.0190  0.0729  0.0202
 6787W        W49704  16.751  26.446   6.703  0.0225 -0.4639  0.2462
 6788W        W49705  19.389  27.876   9.068 -0.4151  0.1704 -0.1544
 6789W        W49706  16.448  26.077   6.479 -0.0530 -0.0665 -0.0051
 6790W        W49707  19.299  25.838   6.617  0.0042 -0.2848 -0.0185
 6791W        W49708  16.342  28.054   8.837 -0.2530  0.0401  0.2842
 6792W        W49709  18.110  30.510   8.178  0.0941 -0.0145  0.0829
 6793W        W49710  18.478  26.415   8.362 -0.2807 -0.0910 -0.4093
 6794W        W49711  15.454  27.358   7.677 -0.2091 -0.0002 -0.1323
 6795W        W49712  15.623  28.391   8.133  0.1460 -0.0789 -0.2802
 6796W        W49713  15.476  31.368   8.598 -0.0191  0.0837 -0.2104
 6797W        W49714  18.648  26.566   8.991 -0.0688  0.2565  0.3247
 6798W        W49715  14.165  26.764   7.151  0.1312 -0.1547  0.0550
 6799W        W49716  17.927  24.987   7.211 -0.1399  0.2054  0.1942
 6800W        W49717  14.639  27.787  10.124  0.1395  0.0947  0.0180
 6801W        W49718  19.811  25.004   9.041  0.4243  0.2931  0.3013
 6802W        W49719  14.833  30.875   3.297 -0.2820 -0.3351  0.0281
 6803W        W49720  16.583  30.392   0.505 -0.0044 -0.1968  0.0939
 6804W        W49721  18.551  29.731  31.627 -0.0761 -0.1040 -0.3208
 6805W        W49722  16.212  31.098   2.004 -0.0108  0.2255 -0.1635
 6806W        W49723  15.491  30.672   1.508 -0.0580  0.0131  0.1299
 6807W        W49724  17.799  33.040   0.405 -0.3158 -0.1251 -0.2461
 6808W        W49725  15.274  29.592   2.846 -0.0703 -0.0302  0.1419
 6809W        W49726  18.172  32.438   0.556  0.2211  0.2078 -0.2093
 6810W        W49727  18.323  33.679   1.994  0.1963  0.1542 -0.0274
 6811W        W49728  15.512  32.638   0.246 -0.1136 -0.0121  0.0318
 6812W        W49729  15.089  30.431   3.801  0.1797 -0.2056  0.0341
 6813W        W49730  15.768  32.884   3.415 -0.1943  0.2160  0.1990
 6814W        W49731  16.301  27.544  31.928  0.1103 -0.0119 -0.1044
 6815W        W49732  16.410  29.946   0.680 -0.0859  0.2800 -0.1490
 6816W        W49733  19.656  32.018   1.280 -0.0779  0.1197  0.0568
 6817W        W49734  16.014  31.610   0.424 -0.1220  0.3275  0.0410
 6818W        W49735  14.879  31.369   3.068 -0.2091  0.0271  0.1020
 6819W        W49736  17.356  29.650  30.937  0.2002 -0.0784  0.1455
 6820W        W49737  18.027  31.358   1.191 -0.4195  0.0571 -0.0093
 6821W        W49738  14.645  31.367   1.086  0.2123  0.0610 -0.2495
 6822W        W49739  15.950  28.380   3.016  0.4650 -0.0713  0.3330
 6823W        W49740  17.207  30.114   1.911  0.1704  0.0327 -0.0903
 6824W        W49741  15.216  30.647   1.128 -0.5070  0.1193  0.0771
 6825W        W49742  14.629  29.224   2.131  0.0320 -0.0140 -0.0943
 6826W        W49743  15.814  31.408   3.057  0.0486 -0.0604  0.2724
 6827W        W49744  17.290  29.299   1.008  0.0592  0.0963  0.1919
 6828W        W49745  18.698  31.025   0.425 -0.2175 -0.0576 -0.1218
 6829W        W49746  17.166  32.711   1.118  0.0511 -0.1666 -0.0522
 6830W        W49747  17.766  30.875   0.833  0.2573  0.2991  0.1596
 6831W        W49748  17.598  28.793   3.434  0.1253  0.2898 -0.2955
 6832W        W49749  16.094  30.958   3.729  0.1957  0.3482  0.5760
 6833W        W49750  13.524  31.441   5.713 -0.5630  0.3111  0.5825
 6834W        W49751  16.492  31.146   1.530  0.0084  0.4128  0.0240
 6835W        W49752  19.408  31.806   0.880 -0.1438 -0.1611 -0.1218
 6836W        W49753  16.628  33.220   5.341 -0.0705 -0.1523 -0.1630
 6837W        W49754  17.778  31.549   2.634  0.1520  0.0758  0.1577
 6838W        W49755  15.237  31.263   2.181 -0.0061 -0.1011 -0.0902
 6839W        W49756  18.057  32.829   0.819 -0.0384 -0.3210  0.0621
 6840W        W49757  17.603  32.537   3.806  0.0640  0.0898  0.1195
 6841W        W49758  16.173  30.841   3.166  0.0627  0.1050  0.3555
 6842W        W49759  15.612  32.174   2.481 -0.1978  0.0898 -0.0557
 6843W        W49760  16.846  32.761   0.379 -0.2157  0.3937 -0.1206
 6844W        W49761  16.752  32.088   0.684  0.2431  0.0552  0.1655
 6845W        W49762  13.229  32.686   1.991 -0.0167  0.3628  0.2779
 6846W        W49763  13.965  32.644   5.277 -0.1930 -0.1025  0.1581
 6847W        W49764  17.279  29.721   2.340 -0.0078  0.0129  0.0439
 6848W        W49765  15.385  32.605  31.150 -0.2006  0.0031 -0.1461
 6849W        W49766  17.724  29.269   1.341  0.0282  0.3092 -0.3491
 6850W        W49767  15.010  31.349  31.442 -0.1076  0.1480  0.2032
 6851W        W49768  17.054  28.839   1.141  0.2617 -0.1586 -0.0283
 6852W        W49769  14.246  30.619   0.757 -0.0000 -0.1255 -0.3068
 6853W        W49770  14.865  33.148   3.974 -0.2745  0.0516  0.0461
 6854W        W49771  16.312  29.882   2.090 -0.1260  0.3086  0.1454
 6855W        W49772  16.676  30.917   4.245  0.3467 -0.2069 -0.2927
 6856W        W49773  15.971  30.462  31.729  0.1747  0.0676 -0.2400
 6857W        W49774  16.271  30.373   3.216 -0.1126 -0.3953  0.0734
 6858W        W49775  12.726  31.010   5.503  0.1604  0.0941  0.0641
 6859W        W49776  17.178  30.454   1.583 -0.0670  0.2111 -0.0742
 6860W        W49777  17.896  33.997   0.220 -0.1824 -0.0721  0.1306
 6861W        W49778  19.309  32.434  31.616  0.3023  0.0756  0.2059
 6862W        W49779  18.882  32.603  31.809  0.1206 -0.2130 -0.0497
 6863W        W49780  16.117  30.979  31.755  0.5244 -0.4651 -0.3348
 6864W        W49781  14.349  30.977   2.187 -0.2177  0.0517 -0.0691
 6865W        W49782  17.007  31.248   4.478  0.1019 -0.2228  0.0519
 6866W        W49783  14.523  28.406   0.459 -0.1485 -0.3172 -0.0550
 6867W        W49784  17.959  31.573   3.736 -0.4495  0.2798  0.1856
 6868W        W49785  15.968  31.023   5.688 -0.0184 -0.2066  0.1447
 6869W        W49786  16.973  29.961   0.444 -0.2717 -0.0757 -0.3042
 6870W        W49787  16.510  30.248   2.413 -0.0088 -0.0464 -0.2735
 6871W        W49788  18.013  33.017   2.684 -0.1918 -0.1980  0.1076
 6872W        W49789  19.364  31.575  31.283 -0.1000  0.0168  0.1506
 6873W        W49790  17.421  29.729   1.597  0.0403 -0.0080 -0.2563
 6874W        W49791  16.539  32.068   2.596 -0.0600  0.1225  0.0259
 6875W        W49792  15.170  29.672  28.535 -0.1113 -0.1764  0.2489
 6876W        W49793  16.787  32.343   1.508 -0.0164 -0.0223 -0.0761
 6877W        W49794  19.134  31.405   1.425 -0.3562 -0.3059  0.0126
 6878W        W49795  19.023  31.999  31.392 -0.2243  0.1151 -0.2879
 6879W        W49796  15.494  32.530   2.187  0.2340 -0.0451  0.0485
 6880W        W49797  15.611  29.791   3.219  0.2365 -0.0219  0.0537
 6881W        W49798  17.099  31.016   3.928 -0.0794  0.0013  0.0312
 6882W        W49799  15.069  32.275   0.080  0.1201  0.0805  0.1938
 6883W        W49800  13.546  31.618   0.336  0.3288  0.1893  0.1205
 6884W        W49801  15.927  31.550   0.977 -0.2522  0.1998 -0.0755
 6885W        W49802  15.742  30.253   1.611  0.1089  0.0952 -0.3437
 6886W        W49803  16.342  34.223   4.040 -0.0697  0.0257  0.0418
 6887W        W49804  18.622  30.085  30.933 -0.1224 -0.1147 -0.0739
 6888W        W49805  15.961  29.380   1.190  0.2602  0.0972 -0.1459
 6889W        W49806  19.109  26.959   0.951 -0.1385 -0.2998  0.0522
 6890W        W49807  15.892  32.600   1.613 -0.0031  0.2676 -0.1137
 6891W        W49808  19.245  34.498   1.676  0.0633  0.1295  0.0421
 6892W        W49809  17.442  30.827   1.891  0.1986  0.1273  0.2096
 6893W        W49810  19.672  33.033  30.787 -0.3377  0.2448 -0.2122
 6894W        W49811  14.142  30.688  30.930  0.0788 -0.3213  0.0345
 6895W        W49812  15.620  29.738   1.019  0.1841 -0.1966 -0.1814
 6896W        W49813  15.793  30.934   4.711 -0.0049 -0.0159 -0.1093
 6897W        W49814  17.149  30.263   1.030  0.0680 -0.3591 -0.1701
 6898W        W49815  15.437  30.198  31.786  0.0067  0.0339  0.0099
 6899W        W49816  16.969  29.148   3.995 -0.0643 -0.0941 -0.0730
 6900W        W49817  17.812  29.609  29.908  0.1127  0.2387 -0.0829
 6901W        W49818  17.648  31.999   0.609 -0.0539  0.1880  0.0378
 6902W        W49819  18.515  28.295  31.865 -0.4747  0.1058 -0.1918
 6903W        W49820  17.378  30.117  30.672  0.0162  0.2206  0.0149
 6904W        W49821  16.789  33.648   4.534 -0.0531 -0.0576  0.3442
 6905W        W49822  19.509  32.617  31.151 -0.1001  0.1255  0.0477
 6906W        W49823  15.615  30.861   3.965  0.1808  0.1950 -0.1385
 6907W        W49824  14.243  29.316   0.368 -0.0816  0.2875  0.0942
 6908W        W49825  13.456  33.481   1.360 -0.0550  0.0902 -0.0668
 6909W        W49826  15.598  32.257   1.366  0.1406  0.1472  0.0564
 6910W        W49827  14.227  28.611  30.142  0.0284 -0.2845  0.0035
 6911W        W49828  18.476  31.921   1.985  0.1664 -0.1334  0.2986
 6912W        W49829  16.307  30.180   0.145  0.2768  0.1341 -0.1240
 6913W        W49830  15.279  32.605   3.683 -0.1463  0.2550  0.1603
 6914W        W49831  17.339  30.158   3.915 -0.1534  0.0852  0.1631
 6915W        W49832  17.677  31.608   1.483 -0.1669 -0.4203  0.1148
 6916W        W49833  17.144  32.790   1.910 -0.0027  0.1868  0.1065
 6917W        W49834  15.223  29.942  30.646  0.3387  0.0844  0.1228
 6918W        W49835  18.248  32.713  31.243 -0.3248 -0.0776 -0.0562
 6919W        W49836  16.659  31.657   0.434 -0.4322  0.1347  0.0837
 6920W        W49837  15.382  30.108   1.263  0.0957  0.0314 -0.0518
 6921W        W49838  16.914  33.003   1.539  0.1135 -0.2616  0.0712
 6922W        W49839  16.991  30.185   3.206  0.1318 -0.0144 -0.1076
 6923W        W49840  15.201  32.622   6.166  0.0424 -0.0848  0.1229
 6924W        W49841  15.524  31.492   3.926 -0.0128  0.2591  0.0267
 6925W        W49842  15.830  31.248  31.075  0.0714  0.0490 -0.3281
 6926W        W49843  14.374  31.591   3.571  0.1237  0.1645 -0.1765
 6927W        W49844  16.536  31.132   2.961 -0.1076  0.3447  0.3036
 6928W        W49845  16.736  28.677  31.204 -0.2974  0.5385  0.2798
 6929W        W49846  16.810  31.613   2.751 -0.1489 -0.3994  0.3285
 6930W        W49847  19.259  32.031  30.494 -0.1132  0.0089  0.0136
 6931W        W49848  17.740  28.346  31.572  0.0121 -0.0638  0.0662
 6932W        W49849  18.023  28.323   0.075 -0.1034  0.0564 -0.0508
 6933W        W49850  14.120  31.924   5.375 -0.2678  0.2995 -0.0282
 6934W        W49851  18.000  31.369   0.310 -0.0753  0.0681  0.0368
 6935W        W49852  16.520  32.178   2.100  0.0674 -0.1459 -0.1949
 6936W        W49853  16.363  31.272   0.634  0.0147 -0.1995  0.1206
 6937W        W49854  18.968  32.845   1.110  0.0059 -0.4064  0.0793
 6938W        W49855  15.132  32.151   3.371 -0.0084  0.0780 -0.1520
 6939W        W49856  17.435  30.678   4.998 -0.1054 -0.0020 -0.1811
 6940W        W49857  16.995  32.550  31.884  0.1011  0.1281  0.0355
 6941W        W49858  15.712  28.900   1.112  0.0599 -0.1219 -0.1764
 6942W        W49859  17.242  31.081   0.876 -0.0353 -0.4684  0.2906
 6943W        W49860  16.028  29.581   1.728  0.2945  0.2686 -0.4484
 6944W        W49861  13.823  30.306  31.953 -0.0288  0.3032 -0.0742
 6945W        W49862  17.633  30.346   0.946  0.0708 -0.0751  0.1789
 6946W        W49863  15.663  28.860   0.609  0.0700  0.1502  0.0314
 6947W        W49864  14.893  27.772   1.040 -0.1984  0.2598 -0.1013
 6948W        W49865  18.091  32.174   5.667 -0.3172  0.1533 -0.2011
 6949W        W49866  18.519  32.391  31.511  0.1312  0.0141  0.5310
 6950W        W49867  17.473  31.279   4.834 -0.3248 -0.1204 -0.0087
 6951W        W49868  16.031  30.250  31.267  0.0028  0.1790  0.0522
 6952W        W49869  14.821  30.498   4.207  0.0372  0.4226 -0.1152
 6953W        W49870  14.764  31.782   4.489 -0.0207  0.1314 -0.0653
 6954W        W49871  17.289  31.661   2.598  0.1241 -0.1928 -0.1049
 6955W        W49872  16.751  32.597   2.361  0.0299  0.3249  0.2056
 6956W        W49873  18.274  31.142   0.747  0.1415 -0.2525  0.1570
 6957W        W49874  16.106  29.885   2.978  0.4509 -0.1445 -0.2672
 6958W        W49875  16.853  30.678   0.810 -0.0215 -0.3444 -0.2891
 6959W        W49876  16.446  32.866   0.764  0.6720  0.1275  0.1547
 6960W        W49877  15.134  30.751   0.625 -0.0452 -0.2528 -0.1976
 6961W        W49878  15.757  30.666   3.404  0.0715  0.0522  0.3917
 6962W        W49879  15.833  33.080   1.294  0.3196  0.1771  0.1343
 6963W        W49880  16.221  31.619   1.854  0.0196  0.2308 -0.0605
 6964W        W49881  17.147  31.310   1.789 -0.0529  0.2343  0.0441
 6965W        W49882  16.606  32.994  31.740 -0.0805  0.0467 -0.0570
 6966W        W49883  17.240  29.245   2.085 -0.3301  0.0157  0.2490
 6967W        W49884  13.481  32.146   2.725  0.0237  0.0241 -0.0004
 6968W        W49885  15.496  31.575  31.350 -0.2190  0.0828  0.0277
 6969W        W49886  14.075  29.741  31.701  0.1536 -0.2336  0.3143
 6970W        W49887  18.096  27.509   1.246 -0.3793  0.1478  0.0787
 6971W        W49888  16.663  30.015   1.085  0.0308 -0.0607  0.0531
 6972W        W49889  15.648  29.164   0.258 -0.2546 -0.0537 -0.0490
 6973W        W49890  15.583  29.405   1.907 -0.0920  0.2045 -0.1455
 6974W        W49891  14.892  31.798   2.767 -0.1209 -0.2119 -0.2186
 6975W        W49892  17.388  31.270   1.338  0.1764  0.1080  0.0085
 6976W        W49893  18.219  30.169   0.328  0.1079  0.0625 -0.1152
 6977W        W49894  17.910  32.171   1.166 -0.1442  0.2065  0.2451
 6978W        W49895  14.845  30.673   2.255 -0.0951 -0.1592  0.0473
 6979W        W49896  14.727  29.870  31.241 -0.1042  0.1805 -0.1554
 6980W        W49897  17.087  30.609   3.424 -0.3311 -0.3732  0.2727
 6981W        W49898  18.438  30.416   1.399  0.4459  0.1679 -0.0338
 6982W        W49899  13.944  32.415   2.595  0.0405 -0.1375 -0.1800
 6983W        W49900  15.344   0.090   5.110  0.0527 -0.0612  0.0472
 6984W        W49901  15.075  31.611   0.777  0.0300  0.0281  0.3823
 6985W        W49902  14.988  32.712   1.219 -0.0166 -0.0640  0.2530
 6986W        W49903  16.249  30.734   4.510 -0.1559 -0.2657  0.0894
 6987W        W49904  18.585  30.240   3.143  0.3010  0.1970  0.5071
 6988W        W49905  17.718  29.404   1.857 -0.1913  0.1114 -0.0478
 6989W        W49906  16.728  28.207  31.437 -0.0105  0.0884 -0.1803
 6990W        W49907  17.627  30.544   2.782 -0.0921  0.2476  0.3172
 6991W        W49908  17.412  30.983   3.407 -0.0040  0.0147  0.0025
 6992W        W49909  16.661  30.888   3.703  0.1234 -0.2431  0.0702
 6993W        W49910  15.692  31.716   3.500  0.1167 -0.2663 -0.0500
 6994W        W49911  16.448  30.080   3.906  0.0979 -0.0447 -0.3174
 6995W        W49912  18.478  33.949  30.798  0.0172  0.0282 -0.1132
 6996W        W49913  14.914  30.885   3.860  0.0506 -0.3564 -0.2211
 6997W        W49914  16.686  32.481   0.963  0.3080  0.2093  0.3208
 6998W        W49915  14.709  30.125   3.844  0.3376  0.1289 -0.0599
 6999W        W49916  15.224  32.152   2.876 -0.0508 -0.1604  0.1528
 7000W        W49917  16.718  31.591   3.238 -0.0040  0.2053 -0.0022
 7001W        W49918  15.306  31.035   4.890  0.0726  0.0894 -0.0725
 7002W        W49919  14.900  29.988   0.291 -0.0375  0.1581  0.2246
 7003W        W49920  15.428  31.354   4.386  0.1657  0.1377  0.0189
 7004W        W49921  17.659  29.269  31.738 -0.0539 -0.1278  0.2178
 7005W        W49922  18.556  31.504   0.503  0.1147 -0.0008  0.0090
 7006W        W49923  17.017  27.411   1.185  0.0877 -0.0293  0.1831
 7007W        W49924  18.387  28.289   2.852  0.0945  0.0458  0.0204
 7008W        W49925  17.853  31.010  31.795  0.2260  0.2976 -0.3107
 7009W        W49926  19.316  27.836   2.853 -0.1817  0.1571 -0.0138
 7010W        W49927  15.196  29.825   1.962  0.1082 -0.1388 -0.4051
 7011W        W49928  16.740  30.982   0.419 -0.1282 -0.0616  0.2975
 7012W        W49929  13.500  29.699   3.083  0.0003  0.1520  0.2532
 7013W        W49930  16.344  34.562   4.450 -0.1710 -0.1183  0.3065
 7014W        W49931  14.889  31.680   3.495 -0.1458 -0.0946  0.0940
 7015W        W49932  18.020  30.387  31.042 -0.0371 -0.2632 -0.0670
 7016W        W49933  16.762  26.857   0.438  0.0084  0.0197 -0.0151
 7017W        W49934  16.363  31.634   2.400  0.0880 -0.2807 -0.1075
 7018W        W49935  17.766  30.877   1.329 -0.1037 -0.1345  0.1902
 7019W        W49936  16.386  31.754   0.815 -0.0641 -0.2947 -0.0448
 7020W        W49937  18.442  30.229   0.931 -0.2913 -0.1401 -0.2613
 7021W        W49938  15.750  30.749   2.841  0.0191  0.2570  0.1377
 7022W        W49939  17.060  28.265   1.139 -0.2026 -0.4051  0.1474
 7023W        W49940  15.793  29.769  30.725 -0.0420  0.1593 -0.2965
 7024W        W49941  16.751  31.973   3.546  0.0599 -0.0022  0.0546
 7025W        W49942  14.639  30.502   5.803 -0.1240  0.0708 -0.1195
 7026W        W49943  17.253  31.620   0.992 -0.0354  0.1746 -0.1841
 7027W        W49944  16.277  27.824  29.872 -0.0100  0.2700  0.2191
 7028W        W49945  15.830  30.499   1.028 -0.0047 -0.2005  0.2269
 7029W        W49946  18.970  30.059   3.442  0.1907 -0.0727  0.1166
 7030W        W49947  16.746  29.665   3.849 -0.0457 -0.1717  0.0720
 7031W        W49948  14.293  30.122   3.447  0.1258  0.0710  0.3149
 7032W        W49949  17.041  32.116   2.524  0.0470  0.1332  0.0886
 7033W        W49950  19.266  32.184  30.970  0.1666 -0.1715 -0.1331
 7034W        W49951  17.961  30.090   2.685  0.2827 -0.0609  0.1354
 7035W        W49952  17.922  30.538   0.071  0.1194 -0.0463 -0.0237
 7036W        W49953  17.503  30.058   0.539  0.1947 -0.3581  0.0389
 7037W        W49954  15.780  31.074   0.706  0.0008 -0.0356 -0.0330
 7038W        W49955  17.923  31.077   4.489  0.3179  0.0357 -0.2134
 7039W        W49956  18.277  30.224  31.743 -0.0889 -0.0088 -0.0281
 7040W        W49957  16.470  29.457   3.010  0.1356  0.1856 -0.0450
 7041W        W49958  14.861  32.320   1.552  0.0053 -0.0127 -0.3481
 7042W        W49959  17.200  32.418   0.497  0.2237  0.3776 -0.0500
 7043W        W49960  16.907  29.493   1.738  0.0673  0.1142 -0.2279
 7044W        W49961  14.443  30.964   2.765 -0.0779  0.2021  0.1248
 7045W        W49962  14.022  32.659   4.258 -0.0271 -0.0941  0.0350
 7046W        W49963  15.368  31.093  31.301  0.3134 -0.1938 -0.2848
 7047W        W49964  18.382  31.978   0.436 -0.1714  0.1214 -0.1942
 7048W        W49965  18.495  32.162   1.498 -0.3358  0.1875 -0.3396
 7049W        W49966  17.098  31.759   4.716 -0.0839  0.1617  0.0134
 7050W        W49967  16.403  26.628  31.767 -0.0273  0.2018 -0.2090
 7051W        W49968  17.171  29.845   3.579 -0.0693 -0.3396  0.1129
 7052W        W49969  15.393  31.519   1.193  0.0345  0.0111  0.0597
 7053W        W49970  15.446  30.540   4.796  0.0620  0.2088  0.0389
 7054W        W49971  15.834  31.642   2.641  0.0136 -0.1819  0.0652
 7055W        W49972  14.479  30.737   3.623  0.0095  0.3535  0.3671
 7056W        W49973  16.108  30.340   2.086 -0.1250  0.0797 -0.1200
 7057W        W49974  17.670  29.292   3.179 -0.3684 -0.2209  0.3081
 7058W        W49975  18.438  30.621   0.591 -0.0238 -0.0377  0.3401
 7059W        W49976  16.678  31.854   1.657  0.0253  0.2769 -0.0818
 7060W        W49977  17.454  31.272   2.260 -0.0284  0.2917  0.2104
 7061W        W49978  14.995  33.126   4.656 -0.0062 -0.1160 -0.0843
 7062W        W49979  17.427  28.832   2.767 -0.1284  0.2224 -0.1202
 7063W        W49980  17.993  31.237   2.382  0.1804  0.1155 -0.0024
 7064W        W49981  20.382  30.947   0.373  0.0506 -0.0263  0.0383
 7065W        W49982  15.870  31.393   2.187  0.0995 -0.2652  0.0704
 7066W        W49983  15.637  31.036   1.975  0.3719  0.2774  0.3433
 7067W        W49984  17.039  30.801   4.679 -0.2960 -0.0167  0.2453
 7068W        W49985  16.922  28.275   2.754 -0.0881 -0.1325  0.1203
 7069W        W49986  16.412  29.277   1.436  0.3227 -0.1874 -0.0207
 7070W        W49987  18.225  31.901  31.617 -0.1318  0.3103  0.1629
 7071W        W49988  13.926  31.658   3.856 -0.0033 -0.1262 -0.0045
 7072W        W49989  15.289  30.623   3.004 -0.2962  0.2484 -0.1390
 7073W        W49990  14.214  32.790   1.037  0.3596  0.3144  0.1150
 7074W        W49991  19.570  32.876  31.556  0.0361  0.2072 -0.1641
 7075W        W49992  17.456  28.363   2.578  0.1703 -0.2018  0.0867
 7076W        W49993  19.140  34.438   0.737 -0.0067  0.1504  0.1487
 7077W        W49994  16.018  29.552   0.268  0.0728 -0.0645 -0.1486
 7078W        W49995  15.691  32.322   3.585  0.0650  0.0759 -0.2783
 7079W        W49996  14.210  32.528   1.888 -0.1438  0.3075 -0.0076
 7080W        W49997  16.691  32.161  31.664 -0.1570  0.0078  0.3988
 7081W        W49998  16.025  31.971   2.197 -0.1718 -0.0863 -0.1323
 7082W        W49999  19.493  31.063   2.333  0.0594 -0.1002 -0.1719
 7083W        W50000  20.562  26.802  31.430  0.0020 -0.2063  0.0727
 7084W        W50001  17.206  31.871   1.479 -0.2731  0.0381  0.1555
 7085W        W50002  17.958  29.992   0.736 -0.2249  0.1165 -0.3415
 7086W        W50003  17.865  31.818   4.226  0.1374  0.0614 -0.3825
 7087W        W50004  17.340  32.068   2.910  0.4997 -0.3796  0.0120
 7088W        W50005  17.654  28.816  31.925  0.0223  0.0538 -0.3495
 7089W        W50006  14.393  32.335   5.269 -0.1547 -0.1869 -0.0125
 7090W        W50007  17.168  26.908   0.693  0.1710 -0.3612  0.0790
 7091W        W50008  15.034  32.841   2.059  0.2235 -0.0128 -0.1707
 7092W        W50009  19.816  32.405   1.538  0.1864  0.2698  0.2054
 7093W        W50010  14.946  30.227  31.001  0.0711  0.0428 -0.1037
 7094W        W50011  17.010  31.039  31.907  0.3172 -0.1847  0.3668
 7095W        W50012  16.936  29.295   4.525  0.0883 -0.1245  0.2833
 7096W        W50013  16.105  33.347  31.387 -0.0790  0.1532  0.0207
 7097W        W50014  17.500  26.644   1.311  0.0083 -0.2486  0.0319
 7098W        W50015  15.734  33.588   2.109  0.0681 -0.1110 -0.2692
 7099W        W50016  16.853  31.401   0.792 -0.1199  0.1432 -0.4278
 7100W        W50017  15.242  33.484   3.010 -0.1792 -0.3933  0.1216
 7101W        W50018  15.206  28.941  31.295  0.0870  0.2147  0.1407
 7102W        W50019  20.707  30.980   0.886  0.1563 -0.0435  0.1693
 7103W        W50020  16.788  29.871   2.134  0.0675 -0.2075 -0.1889
 7104W        W50021  14.619  29.299   5.021 -0.0853  0.0930 -0.3285
 7105W        W50022  16.653  30.521   1.755  0.1148  0.1095  0.1398
 7106W        W50023  18.543  27.807  31.705  0.1222  0.2088 -0.4239
 7107W        W50024  17.098  32.947   2.437  0.0178 -0.2114  0.3008
 7108W        W50025  14.691  31.001   4.361  0.0473  0.0942 -0.2193
 7109W        W50026  15.552  30.721  31.848 -0.1422 -0.2815  0.1723
 7110W        W50027  17.455  30.244   2.307  0.1706  0.1276 -0.3825
 7111W        W50028  17.188  31.278   0.434  0.0104 -0.2130  0.2984
 7112W        W50029  16.801  32.454   2.849  0.1421  0.1157  0.0444
 7113W        W50030  17.393  30.230  31.581  0.3784  0.1160  0.0304
 7114W        W50031  19.017  31.476  31.634  0.0862 -0.1956 -0.0003
 7115W        W50032  17.440  30.675  31.839 -0.2231 -0.0039  0.0368
 7116W        W50033  15.683  31.165   3.460  0.0507 -0.1553  0.0882
 7117W        W50034  17.750  30.775   2.353 -0.0421 -0.1436 -0.0797
 7118W        W50035  13.936  29.965   2.945  0.1816  0.0524  0.0140
 7119W        W50036  18.221  31.889  30.853 -0.2060  0.0425 -0.1423
 7120W        W50037  17.339  30.713   1.165  0.1693  0.1914  0.0076
 7121W        W50038  16.704  31.272   2.030 -0.0397 -0.0231  0.4166
 7122W        W50039  18.224  30.722   1.041  0.1508 -0.0113  0.2291
 7123W        W50040  16.479  32.619   1.833  0.0672  0.0052  0.0055
 7124W        W50041  14.715  30.833   0.923  0.2045  0.0070 -0.1701
 7125W        W50042  18.617  32.253   2.349  0.0018 -0.1381 -0.1415
 7126W        W50043  19.629  30.925   0.791  0.2703 -0.0874 -0.2435
 7127W        W50044  17.180  28.671  30.378  0.0609  0.0354  0.1020
 7128W        W50045  16.792  30.468   1.277  0.0235 -0.0936 -0.1930
 7129W        W50046  18.423  31.603   0.004  0.1134  0.0541 -0.0398
 7130W        W50047  18.343  28.698   1.625 -0.2491  0.0253 -0.2992
 7131W        W50048  17.379  29.433   2.726 -0.2612 -0.0106 -0.1356
 7132W        W50049  16.279  32.036   0.164  0.2953 -0.1606 -0.0384
 7133W        W50050  17.856  28.412   2.797 -0.2996  0.1042  0.1750
 7134W        W50051  14.741  32.657   3.476  0.0893  0.0189 -0.0233
 7135W        W50052  15.963  31.659   4.318  0.2470 -0.0251  0.2517
 7136W        W50053  14.974  31.547   1.394  0.2128  0.1123 -0.0983
 7137W        W50054  13.727  31.591   5.259 -0.0155  0.1045 -0.0675
 7138W        W50055  16.476  29.756   1.541 -0.1153  0.1427  0.0105
 7139W        W50056  17.892  33.580  31.570 -0.3449 -0.5060 -0.0914
 7140W        W50057  18.903  32.018   1.778  0.2773 -0.1379 -0.1076
 7141W        W50058  19.030  32.287   0.142 -0.0508  0.0947 -0.0042
 7142W        W50059  19.650  31.415   0.578 -0.1873 -0.1742 -0.1116
 7143W        W50060  16.972  30.557   3.932  0.3146  0.2000  0.0229
 7144W        W50061  17.173  29.971  31.214 -0.1835 -0.1242 -0.1671
 7145W        W50062  15.703  29.984   2.043  0.0247 -0.0349  0.0156
 7146W        W50063  15.733  31.969   3.976  0.0002  0.2980 -0.1040
 7147W        W50064  16.407  28.074  31.904 -0.1585  0.0743 -0.1079
 7148W        W50065  14.024  30.440  31.409 -0.0082 -0.0353 -0.1429
 7149W        W50066  17.592  30.985   0.304 -0.1312  0.1346 -0.1967
 7150W        W50067  16.794  29.551   4.939  0.0686  0.1578 -0.2682
 7151W        W50068  14.035  30.865   4.218 -0.1399 -0.0370 -0.0314
 7152W        W50069  16.331  30.674   1.380  0.0519 -0.2498 -0.4931
 7153W        W50070  18.164  28.139  31.516 -0.0927  0.2632  0.1119
 7154W        W50071  19.099  30.994  31.370 -0.0436  0.1496 -0.0190
 7155W        W50072  14.135  28.012   0.271  0.0806 -0.0918  0.0058
 7156W        W50073  16.422  30.712   2.183 -0.3543  0.0010 -0.1122
 7157W        W50074  18.162  31.255  31.446 -0.1112  0.0650  0.1216
 7158W        W50075  19.250  31.886  31.825 -0.2505 -0.0919 -0.5565
 7159W        W50076  18.700  29.980   0.548 -0.1764  0.0588  0.1558
 7160W        W50077  17.666  30.410   1.772  0.4945 -0.0606  0.0294
 7161W        W50078  14.440  32.111  29.165 -0.1167  0.1942 -0.1737
 7162W        W50079  16.263  32.047   4.473 -0.2712 -0.1364 -0.1625
 7163W        W50080  17.193  29.006   3.196  0.4295  0.0890 -0.2650
 7164W        W50081  14.595  29.463  29.935 -0.5011  0.3731 -0.0730
 7165W        W50082  16.951  30.847   2.024 -0.1104  0.2025 -0.0203
 7166W        W50083  18.821  33.168   2.172 -0.6944  0.1209  0.1347
 7167W        W50084  17.263  31.525  31.172 -0.1565  0.2813 -0.1941
 7168W        W50085  16.067  32.252   2.667  0.3537 -0.3447  0.0095
 7169W        W50086  15.374  33.057   3.917  0.1415  0.0042 -0.1716
 7170W        W50087  14.966  30.217  31.501 -0.1283 -0.1678 -0.1302
 7171W        W50088  18.191  31.691   0.768 -0.0405 -0.1879  0.1561
 7172W        W50089  15.258  31.871   2.338 -0.0600  0.0423 -0.1780
 7173W        W50090  17.498  33.833  31.918  0.0871  0.0847 -0.0549
 7174W        W50091  18.195  30.096   1.774 -0.1273  0.2240  0.0647
 7175W        W50092  17.935  29.011   0.809  0.1756  0.0842  0.0279
 7176W        W50093  14.361  30.479   4.005 -0.0418 -0.0245 -0.4503
 7177W        W50094  14.391  31.956   3.068  0.4657  0.2330  0.2279
 7178W        W50095  16.872  29.549   1.248 -0.2862  0.1216  0.0339
 7179W        W50096  15.357  30.746   2.383  0.0011  0.0505  0.1696
 7180W        W50097  17.206  27.533  31.509 -0.1707  0.0102  0.1913
 7181W        W50098  18.867  31.727   0.186 -0.2172 -0.2315 -0.1077
 7182W        W50099  16.947  29.981   1.516 -0.3581  0.0811 -0.3015
 7183W        W50100  16.868  29.603   0.755  0.0570  0.1704 -0.1954
 7184W        W50101  16.067  31.097   2.717  0.0077  0.1836 -0.0781
 7185W        W50102  17.434  33.741   1.916 -0.0731  0.0300  0.0822
 7186W        W50103  18.210  29.873   3.818  0.2527  0.0023  0.0349
 7187W        W50104  15.953  29.301  31.759 -0.0633 -0.2918 -0.0658
 7188W        W50105  19.459  31.206  31.649 -0.2260  0.1767  0.1189
 7189W        W50106  17.145  31.405   3.120  0.0752 -0.1163  0.2052
 7190W        W50107  17.878  31.313   3.095 -0.4177  0.3487 -0.3613
 7191W        W50108  15.389  32.630   2.691 -0.2700  0.3744 -0.0589
 7192W        W50109  15.672  32.134   1.867  0.0627  0.0677 -0.2417
 7193W        W50110  16.049  27.840   4.178 -0.2757  0.3523  0.2492
 7194W        W50111  16.517  30.672   0.052 -0.3317  0.1302 -0.0190
 7195W        W50112  17.936  30.495   0.557  0.2233  0.1705 -0.4366
 7196W        W50113  17.813  29.082   4.644 -0.0716  0.2659 -0.0779
 7197W        W50114  16.867  29.065   1.484  0.2811  0.0337 -0.1055
 7198W        W50115  20.618  28.534  31.748 -0.0482  0.1256 -0.3446
 7199W        W50116  16.426  32.262   3.110 -0.0558  0.3201 -0.0598
 7200W        W50117  15.325  31.755   3.158 -0.0382  0.0445  0.0188
 7201W        W50118  15.930  31.488   5.954 -0.0623  0.1215  0.1332
 7202W        W50119  15.638  32.052   4.478 -0.4108  0.1865  0.0703
 7203W        W50120  17.192  27.657   3.493 -0.2462  0.2143 -0.0438
 7204W        W50121  18.555  30.170   3.684 -0.1280 -0.2158  0.1781
 7205W        W50122  15.299  30.477   5.262  0.2601 -0.0431  0.0289
 7206W        W50123  16.670  30.620   3.147  0.0920  0.0749  0.1004
 7207W        W50124  15.468  30.450   8.546  0.0131  0.0597  0.1806
 7208W        W50125  18.612  32.935   4.791  0.0614 -0.1132 -0.1338
 7209W        W50126  16.862  31.800   3.971 -0.3784  0.0560 -0.2312
 7210W        W50127  17.520  32.770   3.260  0.0274  0.4330  0.2010
 7211W        W50128  14.589  28.720   7.142 -0.2757 -0.0924 -0.0160
 7212W        W50129  14.584  32.077   6.612  0.0990 -0.1264  0.1875
 7213W        W50130  14.430  29.633   4.716  0.0023  0.2271 -0.1597
 7214W        W50131  13.890  30.309   5.604 -0.2044 -0.0528 -0.0406
 7215W        W50132  15.637  30.130   5.656 -0.0907  0.0353 -0.0272
 7216W        W50133  13.974  30.503   6.454  0.1537 -0.2084  0.1135
 7217W        W50134  15.910  29.475   6.290  0.0354 -0.0738  0.3164
 7218W        W50135  16.676  31.655   4.421  0.0414  0.0187  0.1019
 7219W        W50136  16.217  32.247   5.022  0.1330 -0.1526 -0.0224
 7220W        W50137  15.012  28.421   7.409  0.2542 -0.0959  0.3232
 7221W        W50138  16.508  29.332   7.383 -0.2176 -0.0506 -0.2053
 7222W        W50139  17.131  32.263   3.777  0.4124  0.2085 -0.2264
 7223W        W50140  15.937  32.515   5.396  0.0570 -0.3503  0.0648
 7224W        W50141  13.716  29.870   6.274  0.2849 -0.0377 -0.0259
 7225W        W50142  14.332  30.317   9.454 -0.2764 -0.0477 -0.2780
 7226W        W50143  16.257  30.102   6.539  0.1541  0.2520 -0.3432
 7227W        W50144  15.736  28.042   6.506 -0.2654  0.3308 -0.1944
 7228W        W50145  17.311  30.977   5.882  0.3109  0.0424 -0.3209
 7229W        W50146  18.042  32.665   4.000  0.0777 -0.0428  0.1041
 7230W        W50147  18.939  28.946   7.739 -0.0865 -0.0965  0.2134
 7231W        W50148  13.824  32.222   6.169 -0.1358  0.2820  0.1085
 7232W        W50149  14.881  33.519   5.102  0.0286 -0.3549  0.2277
 7233W        W50150  13.789  32.194   5.123 -0.2839 -0.1268 -0.0738
 7234W        W50151  18.503  32.968   4.009 -0.2227 -0.0789  0.3006
 7235W        W50152  16.856  34.162   5.479 -0.0242  0.1370  0.2717
 7236W        W50153  16.589  33.929   6.482  0.1438 -0.3107 -0.2717
 7237W        W50154  16.002  32.328   4.199 -0.1275  0.0360 -0.1662
 7238W        W50155  17.301  31.581   7.128 -0.1088  0.1115 -0.1738
 7239W        W50156  15.761  31.973   5.884  0.0954  0.1807  0.0225
 7240W        W50157  18.054  32.106   3.848 -0.0673 -0.0310  0.0753
 7241W        W50158  16.396  29.766   5.532  0.2424  0.1349 -0.1123
 7242W        W50159  14.590  32.089   3.510  0.2278  0.1035 -0.0006
 7243W        W50160  15.410  30.089   6.166  0.2022  0.1121 -0.1195
 7244W        W50161  14.268  31.281   9.524  0.1374  0.2407  0.2383
 7245W        W50162  14.168  30.575   5.942  0.0532  0.1263 -0.2772
 7246W        W50163  17.911  29.606   6.543  0.0098  0.1109 -0.2450
 7247W        W50164  16.448  32.818   5.035 -0.0464  0.2659 -0.0598
 7248W        W50165  17.728  27.882   4.795 -0.0784  0.3025 -0.1482
 7249W        W50166  17.335  29.114   4.808  0.0999  0.1747 -0.0698
 7250W        W50167  16.396  29.226   4.609 -0.0578 -0.1935  0.2383
 7251W        W50168  16.677  29.187   5.736  0.0414  0.2579 -0.0292
 7252W        W50169  14.431  32.736   5.638 -0.1817  0.3341 -0.0323
 7253W        W50170  14.598  28.550   6.581 -0.1808 -0.2385  0.1877
 7254W        W50171  18.340  31.359   7.393  0.0778 -0.3823  0.0878
 7255W        W50172  16.233  31.802   3.450  0.2923  0.0990 -0.0610
 7256W        W50173  15.864  30.231   6.199 -0.2809 -0.3692  0.2182
 7257W        W50174  15.713  33.012   6.833 -0.2130  0.3613  0.1596
 7258W        W50175  17.560  31.922   4.772  0.1540  0.1707 -0.1586
 7259W        W50176  17.927  30.706   4.049  0.0506  0.2150  0.0440
 7260W        W50177  17.296  31.451   5.719 -0.0269  0.1284 -0.1732
 7261W        W50178  17.502  30.224   3.237 -0.1521 -0.2145  0.0518
 7262W        W50179  14.751  30.238   5.040 -0.3035 -0.0852 -0.0004
 7263W        W50180  14.613  29.476   8.566  0.0994 -0.1108  0.0509
 7264W        W50181  13.393  30.674   7.461 -0.0167  0.0086 -0.5020
 7265W        W50182  17.009  30.931   1.477  0.0309  0.0000 -0.0107
 7266W        W50183  18.384  34.399   6.168 -0.1416 -0.0709 -0.1839
 7267W        W50184  14.639  31.881   9.175 -0.0705  0.1888  0.0207
 7268W        W50185  16.478  29.211   4.072 -0.0624  0.7459 -0.1090
 7269W        W50186  17.455  30.126   5.374 -0.1844  0.0348  0.1765
 7270W        W50187  17.677  30.431   6.453  0.2120 -0.0287 -0.3050
 7271W        W50188  17.588  29.751   3.147  0.1310  0.3284  0.1928
 7272W        W50189  16.198  28.995   5.072 -0.0229  0.3874  0.0565
 7273W        W50190  18.090  30.063   4.315  0.0162 -0.1185  0.2880
 7274W        W50191  14.074  33.836   2.990 -0.2418 -0.1080 -0.0288
 7275W        W50192  15.892  33.573   4.594  0.0645 -0.3061  0.2608
 7276W        W50193  18.150  31.942   6.696 -0.1804 -0.2266 -0.3519
 7277W        W50194  18.417  30.768   4.131 -0.1407  0.0478 -0.1649
 7278W        W50195  13.250  33.960   7.579 -0.3660 -0.3626 -0.0031
 7279W        W50196  14.679  28.931   8.120  0.0439 -0.3660 -0.0969
 7280W        W50197  17.051  32.057   5.118  0.2176 -0.0669 -0.3689
 7281W        W50198  17.052  30.912   2.976 -0.1473  0.0465 -0.1747
 7282W        W50199  15.021  32.357   6.608 -0.1576 -0.0492  0.1147
 7283W        W50200  15.334  31.940   5.656  0.1420  0.3463  0.1416
 7284W        W50201  12.518  28.667   7.345 -0.1968 -0.0425  0.1097
 7285W        W50202  16.303  31.176   7.424  0.3444  0.0727 -0.0678
 7286W        W50203  18.520  30.952   5.828  0.1934  0.0192  0.0107
 7287W        W50204  14.672  29.432   6.511 -0.0326  0.0615  0.0401
 7288W        W50205  15.977  30.390   3.831  0.1498 -0.0429  0.1698
 7289W        W50206  15.642  31.491   4.826  0.2799  0.2598  0.0767
 7290W        W50207  16.288  33.615   6.203 -0.0561 -0.0208  0.2857
 7291W        W50208  17.302  30.496   4.322 -0.1981 -0.2747  0.0239
 7292W        W50209  17.490  30.649   3.796  0.0101  0.3197 -0.0483
 7293W        W50210  15.257  30.043   8.328 -0.2169  0.0108  0.1135
 7294W        W50211  14.941  30.283   5.575 -0.2143  0.2818  0.4028
 7295W        W50212  13.794  29.503   8.428  0.0142 -0.0384 -0.0231
 7296W        W50213  15.791  29.224   5.137  0.1223 -0.1311  0.1401
 7297W        W50214  16.232  30.899   5.051  0.2831 -0.0621 -0.1725
 7298W        W50215  15.700  28.280   5.611  0.2620 -0.2919 -0.0368
 7299W        W50216  17.678  29.426   5.536 -0.1985  0.2709  0.0490
 7300W        W50217  15.974  32.631   3.055  0.1948  0.2043 -0.0479
 7301W        W50218  13.605  29.426   7.421 -0.0302  0.3594  0.2761
 7302W        W50219  16.561  31.138   4.647  0.2325  0.5727 -0.3746
 7303W        W50220  16.019  32.974   5.337  0.2342 -0.1548 -0.0587
 7304W        W50221  18.491  31.894   5.931  0.1925 -0.0877 -0.0460
 7305W        W50222  17.441  32.500   5.138  0.1849 -0.2193 -0.2359
 7306W        W50223  15.778  30.013   7.197 -0.1098 -0.2561 -0.0150
 7307W        W50224  13.977  31.211   3.627 -0.1631  0.0812  0.1450
 7308W        W50225  15.845  32.763   4.903 -0.5063  0.1171 -0.4642
 7309W        W50226  15.203  29.666   5.932  0.0748  0.0185 -0.3192
 7310W        W50227  15.770  30.529   4.292 -0.2135  0.1688  0.1601
 7311W        W50228  17.185  33.649   6.042 -0.0807 -0.0294  0.0354
 7312W        W50229  15.075  31.457   4.700 -0.0602 -0.1258  0.1481
 7313W        W50230  14.286  30.750   7.221 -0.0802  0.0271  0.1829
 7314W        W50231  16.689  29.164   6.303 -0.2086  0.3749  0.1650
 7315W        W50232  16.668  30.189   5.588  0.0383  0.0215  0.0417
 7316W        W50233  16.377  29.487   5.982  0.1383  0.0576  0.2167
 7317W        W50234  15.343  31.104   3.087 -0.2282  0.2704 -0.0849
 7318W        W50235  18.481  32.502   3.827  0.1338 -0.3814  0.0181
 7319W        W50236  14.690  33.125   5.470  0.1130 -0.0393 -0.0388
 7320W        W50237  14.966  30.522   8.533  0.1140 -0.0159  0.5161
 7321W        W50238  15.914  32.008   5.396 -0.1085 -0.0652  0.2341
 7322W        W50239  16.860  29.476   6.700  0.0084 -0.0978 -0.3305
 7323W        W50240  14.110  29.571   8.042 -0.2336  0.1051  0.0489
 7324W        W50241  17.414  29.480   6.604 -0.3123 -0.2539  0.1318
 7325W        W50242  15.904  30.603   5.363 -0.1526 -0.1326  0.0129
 7326W        W50243  15.642  30.013   6.610  0.0782  0.3859 -0.1152
 7327W        W50244  18.334  29.576   6.263 -0.0690  0.0729  0.1514
 7328W        W50245  16.937  29.838   2.662  0.2767  0.1433 -0.0055
 7329W        W50246  16.009  30.949   6.164  0.2574 -0.1305  0.0156
 7330W        W50247  17.340  33.858   5.259 -0.1450 -0.1820 -0.1709
 7331W        W50248  18.331  30.923   3.181  0.1210 -0.0542  0.0381
 7332W        W50249  17.563  29.464   4.507 -0.1003  0.0223 -0.0108
 7333W        W50250  14.301  30.715   7.729 -0.1890  0.3077  0.5061
 7334W        W50251  17.837  32.490   4.729  0.2238 -0.1437 -0.0957
 7335W        W50252  17.647  32.895   5.440 -0.0509  0.1151 -0.1496
 7336W        W50253  15.690  29.289   3.451 -0.1094  0.1548  0.0964
 7337W        W50254  17.523  32.024   5.281 -0.0189  0.0138 -0.1998
 7338W        W50255  16.084  29.983   4.815 -0.1730  0.1929 -0.0078
 7339W        W50256  18.069  30.202   6.694  0.2145 -0.1608 -0.2931
 7340W        W50257  15.479  30.543   6.351 -0.0684  0.0159 -0.0997
 7341W        W50258  16.853  28.694   5.445 -0.2625  0.0256  0.2781
 7342W        W50259  17.558  32.003   1.834  0.1055  0.0063 -0.1102
 7343W        W50260  17.152  29.021   6.645 -0.2575  0.0618  0.0750
 7344W        W50261  14.036  34.620   4.731  0.0677  0.1931 -0.1026
 7345W        W50262  18.223  31.227   4.943 -0.1213 -0.0940  0.1860
 7346W        W50263  17.276  30.547   6.107 -0.3194  0.0090 -0.0750
 7347W        W50264  14.528  28.563   7.651 -0.1735  0.0071  0.3473
 7348W        W50265  15.524  29.634   6.931  0.0635 -0.0981  0.2883
 7349W        W50266  16.933  29.960   4.207 -0.1437  0.3303 -0.3315
 7350W        W50267  16.921  30.688   5.696 -0.0129  0.1271  0.1119
 7351W        W50268  16.747  30.392   4.552  0.0980  0.1747  0.2135
 7352W        W50269  16.567  29.672   7.046  0.1664 -0.0550  0.0878
 7353W        W50270  14.553  31.546   6.728  0.0951  0.2895  0.2166
 7354W        W50271  14.137  30.134   6.140 -0.1389 -0.0429  0.1061
 7355W        W50272  15.779  30.581   5.881  0.1623 -0.1205  0.3272
 7356W        W50273  17.698  32.301   4.241  0.1831 -0.0420  0.2356
 7357W        W50274  14.997  28.688   9.508  0.3582 -0.3086 -0.1090
 7358W        W50275  17.056  28.145   3.870  0.1217  0.1363 -0.0156
 7359W        W50276  16.531  32.783   3.147  0.0067 -0.3056  0.3193
 7360W        W50277  17.448  31.569   4.457  0.2022 -0.0660  0.0107
 7361W        W50278  14.023  29.636   7.522  0.0027 -0.1289 -0.1060
 7362W        W50279  15.260  32.084   6.139 -0.1992  0.2307 -0.1645
 7363W        W50280  16.034  31.432   3.820  0.1033 -0.0822  0.4301
 7364W        W50281  16.584  31.129   7.008  0.2072 -0.1804 -0.1592
 7365W        W50282  13.729  33.717   5.201 -0.3758  0.0473 -0.2033
 7366W        W50283  18.674  26.686   5.414  0.3319  0.0392  0.1565
 7367W        W50284  14.997  32.304   4.431  0.2010  0.0156  0.0310
 7368W        W50285  15.970  29.777   5.295 -0.0522  0.0968  0.2068
 7369W        W50286  14.581  33.593   5.552 -0.5894  0.1422  0.1081
 7370W        W50287  17.136  32.033   5.680 -0.0258 -0.5402  0.0498
 7371W        W50288  18.038  32.036   5.120 -0.0957 -0.0231  0.4019
 7372W        W50289  14.782  29.804   5.570 -0.4410 -0.1415 -0.1211
 7373W        W50290  13.947  30.499   8.114 -0.0866  0.0933  0.0458
 7374W        W50291  15.011  33.678   8.126 -0.0191 -0.3647 -0.0628
 7375W        W50292  15.879  29.096   7.371  0.0320  0.1595 -0.0034
 7376W        W50293  16.773  29.001   4.981 -0.0423 -0.4439  0.1273
 7377W        W50294  16.604  34.130   4.487 -0.3721  0.0015  0.4079
 7378W        W50295  13.687  28.893   7.417  0.0417  0.1489 -0.0258
 7379W        W50296  15.686  30.173   5.135 -0.0056  0.3086  0.2345
 7380W        W50297  18.755  31.542   7.109 -0.1180  0.0613 -0.0646
 7381W        W50298  17.046  32.497   5.413 -0.2496  0.1668  0.1632
 7382W        W50299  14.876  31.289   6.094  0.1321  0.1829 -0.1187
 7383W        W50300  16.468  32.528   5.417 -0.0392  0.1825  0.2068
 7384W        W50301  15.434  31.811   5.185  0.1792  0.0773  0.0724
 7385W        W50302  14.798  33.564   4.636  0.0778 -0.0076 -0.1795
 7386W        W50303  15.530  29.942   7.882 -0.2710 -0.1461  0.0236
 7387W        W50304  16.508  30.898   5.885 -0.1948  0.0384 -0.2957
 7388W        W50305  17.801  30.258   3.913 -0.0527  0.0795 -0.2405
 7389W        W50306  15.241  29.942   5.372 -0.1257  0.0099  0.1576
 7390W        W50307  15.028  31.404   6.923  0.0836  0.0624 -0.2937
 7391W        W50308  16.439  31.165   7.902 -0.1588 -0.0502  0.3100
 7392W        W50309  16.478  31.988   6.703  0.3916 -0.0508 -0.0241
 7393W        W50310  16.920  32.319   7.506 -0.2238  0.1064  0.1360
 7394W        W50311  17.740  30.750   6.871 -0.0861  0.0490 -0.0082
 7395W        W50312  18.154  31.177   4.038  0.2321 -0.0517  0.2838
 7396W        W50313  16.913  32.245   6.366 -0.1906  0.1120 -0.0150
 7397W        W50314  15.622  29.583   4.230 -0.2679  0.0753  0.1511
 7398W        W50315  14.585  32.675   6.480 -0.0908 -0.1597 -0.0228
 7399W        W50316  15.555  33.868   4.339 -0.1545 -0.0828  0.2550
 7400W        W50317  15.273  29.351   5.203  0.1507  0.0821  0.0641
 7401W        W50318  16.829  30.731   6.771 -0.1501  0.0162  0.1226
 7402W        W50319  13.507   0.367   5.234 -0.0452 -0.1477  0.0297
 7403W        W50320  13.793  32.206   6.770 -0.1092  0.0390  0.1922
 7404W        W50321  16.894  27.360   3.823  0.0869 -0.0923 -0.0995
 7405W        W50322  14.953  32.241   3.910 -0.3081 -0.1055 -0.0051
 7406W        W50323  17.685  30.261   5.819  0.1106  0.3926  0.0665
 7407W        W50324  18.460  29.082   7.584 -0.2560 -0.0477  0.0053
 7408W        W50325  17.757  30.636   3.346  0.1002  0.1734  0.0271
 7409W        W50326  16.321  30.149   7.063 -0.2478  0.2632 -0.1267
 7410W        W50327  14.107  28.645   7.373  0.3036 -0.1689 -0.1886
 7411W        W50328  16.645  32.658   6.068  0.1357 -0.0559 -0.4596
 7412W        W50329  13.597  29.645   7.911 -0.2780 -0.0776 -0.0563
 7413W        W50330  14.127  32.889   7.796  0.1999 -0.1474 -0.0296
 7414W        W50331  14.497  29.559   7.557  0.0995  0.3158  0.1193
 7415W        W50332  17.498  27.970   4.010  0.1108 -0.0235 -0.4719
 7416W        W50333  17.137  28.739   2.369  0.3205 -0.3240 -0.0785
 7417W        W50334  14.626  30.292   7.056 -0.1793  0.4409  0.1190
 7418W        W50335  17.337  30.698   7.182 -0.2269 -0.1409  0.2810
 7419W        W50336  16.753  32.597   4.482  0.0948  0.0397 -0.1131
 7420W        W50337  18.444  30.192   6.361 -0.0887 -0.1497  0.1316
 7421W        W50338  14.199  30.910   8.388 -0.0162 -0.0684  0.2448
 7422W        W50339  17.050  31.281   6.165  0.2217 -0.2510  0.1162
 7423W        W50340  16.727  32.446   5.025 -0.1926  0.0704 -0.2592
 7424W        W50341  14.749  32.418   7.759  0.2574  0.0418  0.1012
 7425W        W50342  17.039  28.870   6.001 -0.2485  0.3608 -0.3125
 7426W        W50343  17.872  31.576   4.815  0.1766  0.1557 -0.2281
 7427W        W50344  17.712  28.374   5.812  0.2069  0.2329  0.2984
 7428W        W50345  15.022  29.398   7.554 -0.1008 -0.0980 -0.0504
 7429W        W50346  16.713  30.779   7.380 -0.0987  0.1006 -0.1360
 7430W        W50347  15.775  30.767   7.617  0.0845  0.1805  0.0484
 7431W        W50348  14.606  29.741   9.564 -0.0133  0.0053 -0.1044
 7432W        W50349  17.734  32.443   6.125 -0.2295 -0.1763 -0.1537
 7433W        W50350  16.764  28.636   3.142 -0.0531 -0.2000 -0.0060
 7434W        W50351  15.006  30.383   7.832  0.1735  0.3868  0.1108
 7435W        W50352  17.559  30.041   4.441 -0.2289 -0.2272  0.2609
 7436W        W50353  16.974  31.301   4.958 -0.1297 -0.0243 -0.0075
 7437W        W50354  14.887  29.189   9.631 -0.3750  0.0290  0.1296
 7438W        W50355  15.265  31.158   7.295  0.1859 -0.0560 -0.1314
 7439W        W50356  15.496  30.181   3.850  0.0262  0.1095 -0.0349
 7440W        W50357  17.568  28.718   6.676 -0.3090 -0.1596  0.2050
 7441W        W50358  15.232  31.940   4.741 -0.2580  0.2051  0.1504
 7442W        W50359  15.284  30.506   5.837 -0.3099 -0.2995 -0.1277
 7443W        W50360  15.808  29.608   2.753  0.2003  0.4149 -0.5726
 7444W        W50361  13.970  29.704   6.964  0.0387  0.0510 -0.0673
 7445W        W50362  15.463  31.739   7.170  0.0816 -0.0255  0.1682
 7446W        W50363  16.203  30.225   4.402  0.0678 -0.0835  0.0164
 7447W        W50364  15.213  31.836   4.239  0.1392  0.0629 -0.2648
 7448W        W50365  17.727  33.724   5.784 -0.3659 -0.7039  0.1499
 7449W        W50366  16.143  30.292   5.749  0.2061  0.0558 -0.0064
 7450W        W50367  15.859  29.099   1.580  0.1044  0.1906 -0.1133
 7451W        W50368  18.652  30.253   6.914  0.1518 -0.3825 -0.1198
 7452W        W50369  15.276  33.074   6.525 -0.2158  0.0395  0.0475
 7453W        W50370  16.261  29.121   6.534  0.2045  0.1252  0.0813
 7454W        W50371  14.241  32.450   6.968  0.1389  0.2142 -0.1633
 7455W        W50372  14.629  31.359   9.158  0.0861 -0.1192 -0.0708
 7456W        W50373  14.773  32.319   6.102 -0.1240  0.1402  0.0659
 7457W        W50374  18.853  30.404   6.494 -0.0389 -0.1871  0.1644
 7458W        W50375  17.357  31.353   6.695 -0.0675 -0.0627  0.1212
 7459W        W50376  16.151  31.097   6.718  0.0982 -0.3862  0.1674
 7460W        W50377  18.304  30.150   5.186 -0.1720  0.0152 -0.2686
 7461W        W50378  16.400  32.974   6.845 -0.0884 -0.0690  0.1322
 7462W        W50379  15.441  30.434   6.968 -0.1803  0.0112  0.4325
 7463W        W50380  18.305  31.563   6.341  0.2562  0.0950  0.3323
 7464W        W50381  18.276  30.702   5.187 -0.0937  0.1576  0.0527
 7465W        W50382  14.302  33.477   6.520 -0.1717 -0.0948 -0.1128
 7466W        W50383  14.313  30.098   8.077 -0.1798  0.0677  0.4385
 7467W        W50384  17.364  30.741   8.894 -0.0104 -0.1576 -0.0954
 7468W        W50385  15.887  31.868   6.823  0.3034  0.1987  0.1043
 7469W        W50386  14.462  28.918   5.390 -0.2803  0.0702 -0.2328
 7470W        W50387  16.432  30.534   3.993 -0.1010  0.1312  0.3225
 7471W        W50388  14.424  32.276   9.006 -0.0469 -0.1270  0.2297
 7472W        W50389  14.979  30.519   6.228  0.0094  0.0461  0.0191
 7473W        W50390  14.002  32.967   4.763 -0.0835  0.3186  0.0945
 7474W        W50391  16.566  34.108   3.288 -0.0364 -0.0123 -0.1879
 7475W        W50392  15.695  32.283   5.014  0.0430  0.1087 -0.0315
 7476W        W50393  18.832  33.493   4.807 -0.2323  0.1516 -0.2080
 7477W        W50394  15.746  31.106   5.173 -0.2748 -0.0311 -0.2601
 7478W        W50395  12.965  32.930   6.349 -0.0954  0.1595 -0.0286
 7479W        W50396  14.152  32.825   2.795  0.1467 -0.0525 -0.0450
 7480W        W50397  18.264  30.507   3.465  0.0600 -0.2231 -0.0558
 7481W        W50398  14.577  34.094   5.666 -0.2375 -0.2164  0.0984
 7482W        W50399  16.912  32.146   7.040 -0.0810 -0.0365  0.0139
 7483W        W50400  17.862  25.373   3.590  0.2366  0.0139  0.0696
 7484W        W50401  19.172  31.334   3.642  0.4475  0.0350 -0.2559
 7485W        W50402  19.763  29.242   3.895  0.0024  0.0524  0.3615
 7486W        W50403  17.635  31.803   7.926 -0.2784 -0.0865  0.0256
 7487W        W50404  15.507  28.750   7.249  0.0407 -0.1581  0.0288
 7488W        W50405  15.936  31.872   4.825 -0.0469  0.1026 -0.0955
 7489W        W50406  14.425  30.771   6.675 -0.1600  0.1066  0.1223
 7490W        W50407  18.565  29.028   6.197  0.0659 -0.1508  0.0535
 7491W        W50408  15.829  32.305   9.181 -0.0899 -0.0318  0.0653
 7492W        W50409  17.266  32.600   4.159 -0.0096 -0.0752  0.1498
 7493W        W50410  16.832  31.162   5.647 -0.4563 -0.3780  0.2345
 7494W        W50411  16.799  32.138   4.601  0.2000  0.1723 -0.0665
 7495W        W50412  15.795  28.759   4.858  0.1138  0.0030  0.1905
 7496W        W50413  16.845  32.011   3.068  0.1155 -0.0676  0.4405
 7497W        W50414  16.301  28.784   7.072 -0.2288  0.1319  0.0421
 7498W        W50415  16.837  33.153   5.806 -0.1890 -0.2593 -0.1196
 7499W        W50416  14.543  30.406   8.890  0.2187 -0.1912 -0.0832
 7500W        W50417  14.972  33.768   5.951  0.1242  0.1263 -0.1806
 7501W        W50418  16.981  29.939   5.215 -0.1205  0.0398 -0.4218
 7502W        W50419  18.805  33.014   8.050 -0.2789  0.0678  0.2073
 7503W        W50420  16.855  29.691   5.680 -0.0144 -0.0249 -0.5012
 7504W        W50421  17.171  28.390   4.295  0.1293 -0.4081  0.2293
 7505W        W50422  16.128  29.322   5.620  0.1544  0.0768 -0.0687
 7506W        W50423  19.442  29.532   5.131  0.1501 -0.0516  0.1669
 7507W        W50424  16.291  30.530   6.217 -0.0088 -0.0951  0.1896
 7508W        W50425  14.270  29.255   7.184 -0.2162  0.0062 -0.1320
 7509W        W50426  15.916  32.984   4.375  0.0805  0.3798  0.0228
 7510W        W50427  17.395  31.055   7.536 -0.0763 -0.0770 -0.0073
 7511W        W50428  16.193  31.290   3.338  0.4974  0.2155 -0.3460
 7512W        W50429  17.070  31.766   6.115 -0.0427 -0.0725  0.4688
 7513W        W50430  15.265  30.087   4.891 -0.1722  0.0660  0.1979
 7514W        W50431  16.582  30.067   4.999  0.2611 -0.3389 -0.1640
 7515W        W50432  14.954  30.472   6.701  0.0019  0.1292  0.0078
 7516W        W50433  15.560  31.015   5.964 -0.1455  0.0256  0.0425
 7517W        W50434  17.935  31.620   7.059 -0.0159  0.2676  0.0742
 7518W        W50435  13.669  29.371   5.595  0.0543  0.1796 -0.1100
 7519W        W50436  17.941  30.861   2.874  0.0311  0.1235  0.0185
 7520W        W50437  17.222  31.615   5.238  0.0905  0.0280  0.0894
 7521W        W50438  14.119  32.985   3.802 -0.0832  0.1914  0.2015
 7522W        W50439  17.400  30.998   4.358 -0.2503  0.0552 -0.2318
 7523W        W50440  16.276  33.257   4.874  0.4217 -0.2393 -0.1778
 7524W        W50441  14.212  30.285   8.543 -0.0948  0.1410 -0.0301
 7525W        W50442  17.724  32.807   6.521 -0.0102 -0.1616  0.1743
 7526W        W50443  17.087  31.092   7.013 -0.0038 -0.0554  0.3592
 7527W        W50444  17.269  31.965   4.280  0.1572 -0.3907  0.0326
 7528W        W50445  15.548  30.346   7.557  0.0895 -0.0081 -0.0375
 7529W        W50446  14.055  31.981   4.396  0.0122 -0.0333 -0.2636
 7530W        W50447  16.573  30.636   4.918 -0.2398  0.1338  0.0674
 7531W        W50448  15.263  28.801   6.451 -0.1061  0.2383 -0.0061
 7532W        W50449  15.296  33.631   4.688  0.2182  0.2074 -0.1865
 7533W        W50450  16.517  28.536   5.049 -0.2687 -0.1629 -0.2215
 7534W        W50451  16.101  32.363   5.883 -0.0720 -0.2313 -0.1304
 7535W        W50452  15.679  33.885   6.602 -0.0918  0.0011 -0.1068
 7536W        W50453  12.920  33.933   6.005  0.2941  0.0298 -0.0701
 7537W        W50454  15.092  30.292   7.337  0.2812  0.1130 -0.0067
 7538W        W50455  16.772  33.250   4.814  0.1911  0.3424 -0.0600
 7539W        W50456  16.639  32.213   5.793 -0.1041 -0.1021  0.0526
 7540W        W50457  15.583  31.446   5.535  0.0970  0.1370 -0.3682
 7541W        W50458  16.408  30.672   5.451  0.0210 -0.1931 -0.0142
 7542W        W50459  17.999  32.944   5.023 -0.2664 -0.0487  0.3280
 7543W        W50460  14.804  29.980   6.508  0.0027 -0.0180  0.0696
 7544W        W50461  19.303  29.979   4.873  0.1235  0.4378  0.1592
 7545W        W50462  16.240  30.195   5.297 -0.3511 -0.0997  0.3705
 7546W        W50463  15.933  32.672   7.212  0.0787 -0.0755  0.1900
 7547W        W50464  14.357  30.701   4.874  0.1604 -0.1322 -0.0877
 7548W        W50465  15.009  31.382   4.033 -0.0731 -0.0768 -0.0568
 7549W        W50466  15.903  33.980   3.959 -0.3197 -0.1092 -0.1804
 7550W        W50467  17.525  28.968   7.317 -0.0829 -0.3066 -0.1011
 7551W        W50468  11.983  29.636   7.986  0.3619  0.1433 -0.3561
 7552W        W50469  14.581  29.051   7.675 -0.1344  0.0932 -0.1849
 7553W        W50470  15.048  31.409   5.634  0.2656 -0.2133  0.0570
 7554W        W50471  17.245  31.488   3.989 -0.0251 -0.0824  0.1617
 7555W        W50472  14.759  28.809   4.946  0.0385  0.0339 -0.0973
 7556W        W50473  14.888  30.078   5.994 -0.3880  0.2273  0.0895
 7557W        W50474  16.037  33.099   3.874 -0.1358  0.1878  0.0118
 7558W        W50475  18.222  32.338   6.314  0.0406 -0.0709 -0.1405
 7559W        W50476  16.522  29.851   4.575  0.1882  0.3494  0.3864
 7560W        W50477  18.152  33.367   8.566 -0.1769  0.1204  0.0203
 7561W        W50478  12.264  30.957   4.675 -0.2700 -0.1753 -0.1175
 7562W        W50479  18.227  29.408   7.009 -0.0838  0.1215 -0.3558
 7563W        W50480  16.407  29.608   6.468 -0.3143  0.0179  0.2572
 7564W        W50481  14.013  31.104   4.846 -0.1457 -0.2918  0.1574
 7565W        W50482  16.747  31.408   6.617 -0.1299  0.1410 -0.1528
 7566W        W50483  14.855  31.514   5.193  0.0078 -0.2066  0.0168
 7567W        W50484  19.010  29.566   1.731 -0.0389 -0.0179 -0.2568
 7568W        W50485  16.260  31.792   5.665  0.2281  0.1396  0.0121
 7569W        W50486  15.380  30.956   9.340  0.0327  0.0824  0.1417
 7570W        W50487  14.498  28.298   8.104 -0.1408 -0.1900  0.2400
 7571W        W50488  17.504  31.524   6.198  0.1933 -0.0673  0.0900
 7572W        W50489  15.623  32.537   4.504 -0.0365 -0.1440 -0.1601
 7573W        W50490  18.602  31.764   3.182  0.1239  0.3892  0.0044
 7574W        W50491  18.788  28.875   4.661  0.0064  0.0613  0.0325
 7575W        W50492  16.373  31.313   4.222  0.1841 -0.1010 -0.1374
 7576W        W50493  15.324  27.719   6.254 -0.1508 -0.2776  0.1488
 7577W        W50494  16.414  30.572   6.704 -0.0306  0.0444  0.0540
 7578W        W50495  18.758  30.898   5.377  0.0367  0.0862  0.0577
 7579W        W50496  13.535  30.684   5.547 -0.1546  0.1992 -0.0650
 7580W        W50497  17.373  30.058   6.209 -0.2733  0.5356  0.0630
 7581W        W50498  17.316  32.383   4.644 -0.1730  0.2834  0.0971
 7582W        W50499  15.317  28.368   8.702  0.0476 -0.2237  0.1279
 7583W        W50500  16.776  27.814   3.645 -0.0424  0.0720  0.0438
 7584W        W50501  16.839  30.333   7.083 -0.0165  0.0496 -0.2359
 7585W        W50502  14.143  30.426   6.929 -0.1104  0.0515 -0.2052
 7586W        W50503  17.104  31.145   8.590 -0.3845  0.2072  0.1378
 7587W        W50504  16.181  32.679   3.608 -0.1560 -0.3755 -0.0252
 7588W        W50505  17.359  28.481   3.125 -0.1809  0.2676  0.0592
 7589W        W50506  16.534  34.046   6.983  0.3047 -0.0794  0.2755
 7590W        W50507  18.268   0.244   8.190 -0.0516  0.0325  0.0933
 7591W        W50508  15.823  31.383   7.034  0.2691  0.2227 -0.1164
 7592W        W50509  18.124  32.688   5.765 -0.1469 -0.1019  0.1693
 7593W        W50510  15.231  31.024   6.322  0.0025  0.2316 -0.4478
 7594W        W50511  15.726  33.331   4.977 -0.0221  0.3234  0.0927
 7595W        W50512  18.019  33.415   4.870  0.4352 -0.0332 -0.0036
 7596W        W50513  17.670  29.908   7.462  0.1862  0.0285 -0.1614
 7597W        W50514  15.230  30.932   6.842  0.0105 -0.3994 -0.3940
 7598W        W50515  15.337  28.966   3.549 -0.1080  0.0866  0.2676
 7599W        W50516  16.402  32.970   8.615  0.2351 -0.0287 -0.3114
 7600W        W50517  15.209  29.681   6.472  0.3085 -0.1851  0.4502
 7601W        W50518  15.679  33.727  10.152  0.1556 -0.0171  0.3921
 7602W        W50519  15.399  29.963   9.956  0.0567  0.1849 -0.2896
 7603W        W50520  19.366  31.422   5.799  0.0832  0.0338 -0.1154
 7604W        W50521  16.035  30.362   7.423  0.0778  0.0344  0.0562
 7605W        W50522  15.846  29.382   8.878 -0.0185 -0.2920 -0.1656
 7606W        W50523  17.570  33.909   6.274 -0.1345  0.1968 -0.1810
 7607W        W50524  17.479  32.375   7.921 -0.1168 -0.0945 -0.0420
 7608W        W50525  18.025  31.173   7.792 -0.1795  0.2707  0.0667
 7609W        W50526  17.360  30.784   8.248 -0.1606 -0.2268 -0.0397
 7610W        W50527  16.133  31.525   9.300 -0.0425 -0.1226 -0.0406
 7611W        W50528  16.544  30.592   8.040 -0.1087  0.2975  0.0099
 7612W        W50529  15.692  28.179   8.984  0.2076  0.4753  0.1403
 7613W        W50530  16.601  30.193   9.436  0.0003  0.4663  0.1602
 7614W        W50531  14.991  29.702   9.270  0.0069  0.0495  0.0725
 7615W        W50532  17.691  30.240   8.810 -0.0307 -0.2631  0.2324
 7616W        W50533  16.414  32.106   7.825  0.2444  0.1021 -0.1558
 7617W        W50534  15.718  32.544   7.678  0.0509 -0.1452  0.0566
 7618W        W50535  15.123  29.082  10.143  0.1904 -0.1095  0.1013
 7619W        W50536  15.499  32.064   8.789  0.3073  0.1437 -0.2358
 7620W        W50537  14.494  30.558   8.176  0.1439 -0.0323  0.3504
 7621W        W50538  16.657  34.603   9.282 -0.3205  0.0306 -0.0072
 7622W        W50539  13.914  29.356   9.633  0.2100  0.0688 -0.0787
 7623W        W50540  16.455  29.572   8.968  0.0712  0.0995 -0.4099
 7624W        W50541  18.555  29.057   8.554  0.2175 -0.1619 -0.1975
 7625W        W50542  16.079  30.650   8.941 -0.0176 -0.2017  0.3541
 7626W        W50543  16.683  31.147   8.346  0.1307 -0.0408  0.2880
 7627W        W50544  15.212  31.632   9.887  0.0981  0.2119 -0.3022
 7628W        W50545  15.570  32.166   9.797  0.3353 -0.0930 -0.1102
 7629W        W50546  15.791  31.874   8.352  0.0515  0.1387 -0.0598
 7630W        W50547  18.375  33.261   7.995 -0.0322  0.1127  0.0682
 7631W        W50548  16.111  32.865   7.615 -0.2759 -0.1497 -0.3871
 7632W        W50549  19.834  30.943   8.283 -0.1523  0.1403 -0.1944
 7633W        W50550  17.889  29.470   8.765 -0.0426  0.1328 -0.2298
 7634W        W50551  15.382  32.535   8.658 -0.0667 -0.3018 -0.0827
 7635W        W50552  16.548  31.658   8.060  0.1594  0.0439 -0.0839
 7636W        W50553  16.913  31.385   9.474  0.2892 -0.3010 -0.2666
 7637W        W50554  16.078  33.339   8.818  0.1273 -0.0735  0.0500
 7638W        W50555  17.319  30.842   6.567  0.1803  0.0441  0.1249
 7639W        W50556  15.971  31.750   7.329  0.2423  0.0584  0.1959
 7640W        W50557  17.833  29.985   7.974  0.4571 -0.0784  0.0698
 7641W        W50558  16.871  29.265   8.946  0.0992  0.2170 -0.2746
 7642W        W50559  17.913  31.382   9.524  0.2815  0.1111 -0.0833
 7643W        W50560  16.717  30.368   9.971 -0.1762  0.0317 -0.0862
 7644W        W50561  17.381  31.844   8.791  0.3215 -0.0549 -0.0486
 7645W        W50562  17.244  32.636   9.174  0.1219 -0.0920 -0.1157
 7646W        W50563  15.410  31.847  10.655 -0.2070  0.0668  0.0784
 7647W        W50564  13.237  28.767  10.880  0.3615 -0.2190 -0.1229
 7648W        W50565  18.602  34.460   8.630  0.1393  0.1833  0.0722
 7649W        W50566  18.233  34.430   8.078 -0.3163  0.2094  0.1169
 7650W        W50567  15.820  32.908   8.001  0.0507  0.0467 -0.0631
 7651W        W50568  15.478  30.973  10.556  0.4916 -0.1285 -0.2322
 7652W        W50569  15.771  30.125   8.234 -0.1551 -0.0402  0.0030
 7653W        W50570  17.684  30.379   8.309 -0.1890 -0.3563  0.0074
 7654W        W50571  19.045  32.364   9.283 -0.2684 -0.1091 -0.1312
 7655W        W50572  19.932  29.660   9.025  0.2941  0.0707 -0.2311
 7656W        W50573  16.436  32.028   7.240  0.2444 -0.3879  0.0306
 7657W        W50574  15.153  28.059  10.738 -0.0690 -0.2218  0.0342
 7658W        W50575  16.922  27.375   8.395 -0.0912 -0.0565  0.2897
 7659W        W50576  14.075  30.133   9.042 -0.1339  0.2162  0.1652
 7660W        W50577  18.057  32.911   8.137 -0.1663 -0.3462 -0.2736
 7661W        W50578  20.949  33.869   9.156 -0.0975 -0.0315 -0.1765
 7662W        W50579  18.311  29.950   7.169 -0.1501 -0.0118  0.3023
 7663W        W50580  14.612  29.987  10.275 -0.1060  0.3732  0.0071
 7664W        W50581  16.189  32.580   8.889  0.0536 -0.2571 -0.1668
 7665W        W50582  17.142  33.502   9.682  0.2975  0.4457  0.2617
 7666W        W50583  15.032  31.599   8.225 -0.0479 -0.1059 -0.1052
 7667W        W50584  19.448  31.682   8.834  0.1496 -0.0556 -0.0855
 7668W        W50585  16.899  32.251   9.325  0.1302 -0.1801 -0.0532
 7669W        W50586  17.789  28.801   8.884  0.1101 -0.2501  0.0225
 7670W        W50587  17.919  28.382   8.812  0.0562 -0.1638 -0.1685
 7671W        W50588  15.234  32.225   9.205  0.1021 -0.0371  0.2508
 7672W        W50589  17.317  33.721   8.033 -0.0765 -0.2220 -0.1793
 7673W        W50590  17.589  28.602   8.436 -0.3457 -0.0553  0.2048
 7674W        W50591  16.381  31.653   7.601  0.0673 -0.1497  0.0339
 7675W        W50592  14.813  28.718   9.976  0.4591  0.0957 -0.1582
 7676W        W50593  13.654  28.524  10.813 -0.0260  0.1051  0.0100
 7677W        W50594  14.675  27.802   8.129  0.3252  0.0308  0.1015
 7678W        W50595  16.443  28.360   7.379 -0.1560 -0.0972 -0.1136
 7679W        W50596  16.904  30.412   8.962  0.0547 -0.3310  0.2020
 7680W        W50597  16.453  30.640   9.239 -0.0700  0.1197  0.0786
 7681W        W50598  13.442  29.797  11.030 -0.0054  0.0881  0.0707
 7682W        W50599  16.269  32.943   8.143  0.3156 -0.2089  0.0809
 7683W        W50600  17.503  33.982   9.219  0.0564  0.1108 -0.1710
 7684W        W50601  15.728  31.750   6.346  0.1280  0.0846  0.2583
 7685W        W50602  16.852  28.220   8.758  0.0182 -0.0152 -0.1053
 7686W        W50603  15.742  28.738   9.480 -0.1319  0.1843  0.2973
 7687W        W50604  15.524  34.307  11.261  0.0852  0.0530  0.2711
 7688W        W50605  17.032  32.419   8.689  0.0232  0.4637 -0.1605
 7689W        W50606  15.382  30.654  10.148  0.2426  0.0782 -0.1210
 7690W        W50607  16.657  31.855   9.678 -0.1989  0.0881  0.0628
 7691W        W50608  15.459  31.537   6.702  0.0110  0.0539 -0.1214
 7692W        W50609  16.875  32.907   8.601  0.1671  0.0930  0.2265
 7693W        W50610  17.406  31.558   8.391  0.0168 -0.2432 -0.1418
 7694W        W50611  15.679  29.517   7.634 -0.2214  0.1719 -0.0978
 7695W        W50612  18.945  32.895   8.853 -0.2698 -0.0051 -0.0297
 7696W        W50613  15.035  32.650   7.376 -0.0040 -0.0031 -0.2886
 7697W        W50614  15.983  28.721  10.380  0.0876 -0.0897  0.3269
 7698W        W50615  18.385  30.738   8.608  0.0358  0.0515 -0.2153
 7699W        W50616  18.737  30.768  12.199 -0.0778 -0.1086  0.2108
 7700W        W50617  14.726  32.389   7.072 -0.0595  0.2838 -0.1354
 7701W        W50618  17.095  30.049   7.511 -0.1994 -0.1551 -0.2228
 7702W        W50619  19.901  30.064   7.343 -0.0021 -0.0025 -0.1662
 7703W        W50620  18.610  31.909   9.016  0.0456  0.1319 -0.3606
 7704W        W50621  16.729  28.832   7.398 -0.1128  0.0706  0.0057
 7705W        W50622  17.904  29.511   8.173 -0.1631 -0.1188  0.0216
 7706W        W50623  15.216  32.287   7.076 -0.3378 -0.0889 -0.0003
 7707W        W50624  17.269  32.975   9.524  0.0602 -0.0569  0.1518
 7708W        W50625  15.471  30.519   7.994 -0.0637 -0.0602 -0.0867
 7709W        W50626  19.535  31.700   6.939  0.2707  0.0282 -0.0698
 7710W        W50627  16.028  31.121   9.763 -0.0450 -0.0006 -0.1068
 7711W        W50628  17.735  31.975   8.439 -0.0224 -0.3619  0.3795
 7712W        W50629  16.151  31.997   9.763  0.2898 -0.2863 -0.0984
 7713W        W50630  16.175  31.433   8.372  0.0591 -0.2347  0.2362
 7714W        W50631  17.724  29.811   9.143  0.0292 -0.1285  0.1809
 7715W        W50632  14.844  31.861   5.922 -0.3860  0.2921  0.0318
 7716W        W50633  16.712  32.782   9.840  0.2501  0.1044  0.1562
 7717W        W50634  16.423  27.291   8.109  0.2005 -0.0975 -0.0021
 7718W        W50635  15.389  31.903   8.040  0.0522 -0.1561 -0.0829
 7719W        W50636  19.798  29.193   9.082  0.0517  0.2120 -0.0294
 7720W        W50637  14.811  30.804   7.252  0.1317  0.2335  0.1554
 7721W        W50638  16.126  30.199   9.245  0.0233  0.1131 -0.0429
 7722W        W50639  17.677  33.453   8.807  0.1351 -0.0450  0.1601
 7723W        W50640  16.047  31.752   7.941  0.1522  0.0601 -0.3048
 7724W        W50641  16.226  30.710   7.654 -0.0991 -0.1376  0.1553
 7725W        W50642  17.572  33.381   9.322 -0.0285 -0.0672  0.2410
 7726W        W50643  15.161  31.694   9.010 -0.0147  0.0154 -0.0243
 7727W        W50644  15.387  28.544   9.879  0.2138 -0.0925  0.1269
 7728W        W50645  16.812  32.390   7.989  0.0152  0.1691  0.0660
 7729W        W50646  16.994  31.446   7.966  0.1563 -0.3333  0.1841
 7730W        W50647  18.803  30.718   7.587 -0.1007  0.3019 -0.4086
 7731W        W50648  16.976  34.595  10.173  0.0477  0.1643 -0.0421
 7732W        W50649  15.413  27.464  10.562 -0.3805 -0.0574 -0.0888
 7733W        W50650  14.707  31.170   9.695  0.1752 -0.0779 -0.1712
 7734W        W50651  14.906  29.025   8.592 -0.1007  0.1585  0.1504
 7735W        W50652  15.858  31.462  10.554  0.1169 -0.0450  0.2092
 7736W        W50653  17.022  29.590   8.121 -0.0518 -0.3824  0.0210
 7737W        W50654  16.759  30.354   6.081 -0.2984 -0.0471  0.0277
 7738W        W50655  15.669  29.491  10.097  0.3279 -0.0328  0.3580
 7739W        W50656  15.254  29.568  10.353  0.1421  0.1357  0.1802
 7740W        W50657  15.926  32.810  10.281 -0.0664  0.1533  0.0266
 7741W        W50658  18.707  31.754   7.665 -0.1166 -0.0185 -0.0575
 7742W        W50659  13.789  30.444   7.605 -0.2111  0.2245  0.1613
 7743W        W50660  18.249  29.986   8.254 -0.2349  0.2270  0.2960
 7744W        W50661  18.571  33.109   9.578  0.3149 -0.1713 -0.2986
 7745W        W50662  14.999  31.935   9.526  0.0594  0.0843  0.0375
 7746W        W50663  15.795  32.898   9.097  0.2123 -0.3309 -0.2453
 7747W        W50664  17.410  32.913   8.734  0.4901  0.0571  0.0642
 7748W        W50665  11.998  30.290   9.686 -0.0186  0.0807  0.2910
 7749W        W50666  18.150  31.340   8.996  0.2369  0.0683  0.0216
 7750W        W50667  18.981  30.379   8.876 -0.0094  0.2391 -0.4799
 7751W        W50668  15.411  27.173   9.099 -0.0697  0.3080  0.0432
 7752W        W50669  15.909  31.640   8.797 -0.0922  0.0645  0.1634
 7753W        W50670  17.225  34.534   9.270  0.1731 -0.0645 -0.0798
 7754W        W50671  15.676  30.316  10.374  0.2855 -0.0385 -0.0821
 7755W        W50672  17.179  25.090   9.010  0.2740  0.0445  0.0270
 7756W        W50673  17.580  33.394   7.723 -0.2310  0.1145  0.2123
 7757W        W50674  15.193  32.710  10.796 -0.1703  0.3995  0.1256
 7758W        W50675  15.159  30.976  11.043  0.2043 -0.2144  0.1253
 7759W        W50676  14.984  29.312  11.136  0.1796  0.1060 -0.2159
 7760W        W50677  16.390  28.767  10.033  0.0291  0.0775 -0.0407
 7761W        W50678  16.108  32.482   7.960  0.0284 -0.0211  0.0041
 7762W        W50679  14.961  32.612  10.318 -0.1435 -0.2975  0.0930
 7763W        W50680  16.533  34.061   9.406 -0.2873  0.3070 -0.0737
 7764W        W50681  19.117  29.052   6.862 -0.0703 -0.1068  0.1632
 7765W        W50682  16.581  31.984   5.294 -0.2063  0.2832  0.0744
 7766W        W50683  15.901  30.801  10.149  0.1382  0.0939  0.0360
 7767W        W50684  18.191  30.318   8.608  0.0909  0.1506  0.1467
 7768W        W50685  14.524  27.288  10.316  0.2121 -0.1034  0.2795
 7769W        W50686  17.112  31.923   7.924 -0.1948 -0.0088  0.2958
 7770W        W50687  16.059  30.054   8.772  0.3165  0.0771  0.1321
 7771W        W50688  13.255  28.683   7.491  0.0240 -0.1858 -0.2361
 7772W        W50689  15.117  30.887   8.190  0.0992  0.0525  0.3216
 7773W        W50690  19.317  29.245   7.881 -0.1538  0.1283  0.1046
 7774W        W50691  16.779  33.573   8.785  0.0992  0.0419  0.0691
 7775W        W50692  15.630  30.779   9.764 -0.0151  0.0030 -0.1403
 7776W        W50693  14.745  30.536  10.306  0.1696 -0.0693 -0.0129
 7777W        W50694  17.249  30.387   8.565  0.1875  0.2528 -0.0607
 7778W        W50695  16.049  29.973   7.752 -0.1577  0.1884 -0.2913
 7779W        W50696  13.410  30.735   9.614  0.2017  0.0241  0.0883
 7780W        W50697  18.984  32.195   7.778 -0.0097  0.2513 -0.0545
 7781W        W50698  18.223  27.675   9.195  0.1403 -0.2971 -0.0895
 7782W        W50699  21.440  30.401   8.470 -0.0547  0.1972  0.2145
 7783W        W50700  18.213  32.008   8.075 -0.2776 -0.1606 -0.2081
 7784W        W50701  19.341  29.930   7.254 -0.0272  0.0641 -0.0198
 7785W        W50702  16.094  29.677   7.345  0.1447  0.1775 -0.0867
 7786W        W50703  13.859  28.996   6.935 -0.2551  0.0101 -0.0461
 7787W        W50704  18.366   4.040   9.017 -0.0083 -0.0563 -0.1091
 7788W        W50705  16.152  29.336   7.725  0.0614 -0.1781 -0.0776
 7789W        W50706  16.449  32.584   7.255  0.2316 -0.0903 -0.0808
 7790W        W50707  17.618  32.450   7.428  0.1092 -0.2294  0.2479
 7791W        W50708  15.841  29.806   9.114 -0.0846  0.0623 -0.0063
 7792W        W50709  11.764  24.833  10.283  0.0653  0.3285  0.2773
 7793W        W50710  14.565  28.310  10.111 -0.0687 -0.4583 -0.1782
 7794W        W50711  15.477  31.088   7.861  0.1605  0.1617 -0.2950
 7795W        W50712  18.720  32.409   8.895 -0.3852 -0.0649 -0.0985
 7796W        W50713  16.778  30.007   6.730  0.1187  0.0106  0.4282
 7797W        W50714  15.712  32.256   6.324  0.0999  0.0833  0.2173
 7798W        W50715  17.532  27.496   8.393 -0.1608  0.0602  0.0736
 7799W        W50716  15.899  34.099   8.747  0.1267 -0.2513 -0.2524
 7800W        W50717  15.068  33.265  10.254 -0.3250 -0.1575  0.1817
 7801W        W50718  18.894  30.702   8.481 -0.0387  0.0190  0.3205
 7802W        W50719  15.624  30.917   8.358 -0.0610  0.0890 -0.0157
 7803W        W50720  16.255  31.248   8.817  0.0036 -0.1453  0.1870
 7804W        W50721  15.878  28.833   8.999  0.0139 -0.2158 -0.2680
 7805W        W50722  19.595  31.749   8.266  0.0398  0.1479 -0.2352
 7806W        W50723  15.630  31.485   8.134 -0.1837 -0.0401  0.2664
 7807W        W50724  17.265  31.558   7.613  0.0764 -0.0257 -0.0408
 7808W        W50725  16.476  29.215   9.288 -0.0974  0.0968  0.0464
 7809W        W50726  16.202  31.535   6.410 -0.3467  0.2318 -0.0211
 7810W        W50727  13.695  30.155  10.737 -0.0406  0.1424  0.2959
 7811W        W50728  15.081  32.136   7.503 -0.1055  0.0501  0.0617
 7812W        W50729  17.597  31.793   6.710 -0.0273 -0.0622  0.1546
 7813W        W50730  17.350  31.992   7.472  0.1119 -0.5638 -0.0792
 7814W        W50731  17.004  34.093   9.202  0.5326  0.2158 -0.0194
 7815W        W50732  15.011  31.249   7.816  0.0123  0.0749 -0.0730
 7816W        W50733  14.648  28.103   9.221  0.1636 -0.1238 -0.2398
 7817W        W50734  15.235  32.457   7.870 -0.1297 -0.0689 -0.0393
 7818W        W50735  16.210  30.783   7.141 -0.2161  0.1486  0.2554
 7819W        W50736  15.624  31.302  10.072  0.2389  0.0853  0.1033
 7820W        W50737  16.695  28.930   6.797  0.1094 -0.1544  0.2765
 7821W        W50738  18.717  29.747   8.327  0.0266 -0.3056  0.3019
 7822W        W50739  17.843  28.605   7.488 -0.2298  0.2414 -0.2278
 7823W        W50740  16.761  32.105   8.437  0.1749 -0.2475  0.0281
 7824W        W50741  15.743  30.260   9.663 -0.3553 -0.2098 -0.3228
 7825W        W50742  18.701   0.267   8.502 -0.1306  0.1758  0.3933
 7826W        W50743  13.317  28.332  10.423  0.2012  0.1265  0.1241
 7827W        W50744  15.907  31.004   9.283 -0.1389  0.0374  0.1808
 7828W        W50745  18.017  29.176   9.192  0.2617  0.3551 -0.2960
 7829W        W50746  15.820  31.271   7.518  0.2211  0.0126 -0.1543
 7830W        W50747  17.503  28.359   7.906 -0.0315  0.0171 -0.0540
 7831W        W50748  16.576  33.216   8.983  0.0222 -0.1942 -0.2639
 7832W        W50749  15.868  32.229  10.704  0.1692 -0.3562 -0.0012
 7833W        W50750  18.645  31.404   9.169 -0.0786  0.0362  0.0626
 7834W        W50751  16.348  30.470   8.527  0.1614  0.1549  0.2088
 7835W        W50752  18.197  31.938   9.296  0.2188  0.1287  0.0238
 7836W        W50753  15.755  29.682   9.608  0.0260  0.2220  0.4935
 7837W        W50754  16.974  30.591   9.560  0.2597  0.0115 -0.1172
 7838W        W50755  18.530  30.329   7.443 -0.1085 -0.0113  0.2776
 7839W        W50756  16.862  31.820   7.486  0.0327  0.0586 -0.5785
 7840W        W50757  13.400  31.516   9.377  0.2202  0.2439  0.0706
 7841W        W50758  14.762  30.785   7.807 -0.0235 -0.3108 -0.0698
 7842W        W50759  17.163  30.366   8.094 -0.0850 -0.2888  0.0667
 7843W        W50760  18.663  28.445   9.282 -0.0800  0.2457 -0.1053
 7844W        W50761  16.969  29.573   7.578  0.1495  0.1650 -0.2309
 7845W        W50762  16.494  31.725   8.674 -0.2472  0.2557 -0.2031
 7846W        W50763  17.875  30.708   8.625 -0.0480  0.1120  0.0942
 7847W        W50764  14.960  29.894   7.862  0.1036  0.1368  0.0504
 7848W        W50765  16.755  31.388   8.961  0.0658 -0.0815  0.0164
 7849W        W50766  17.960  31.527   8.177 -0.1192 -0.2690 -0.0189
 7850W        W50767  15.961  32.339   6.832 -0.1034  0.1007 -0.0581
 7851W        W50768  16.400  31.130   9.334 -0.0579 -0.1542  0.0982
 7852W        W50769  15.816  31.928  10.276 -0.0492  0.2537  0.2373
 7853W        W50770  17.036  29.015   8.101 -0.3402  0.0437 -0.0367
 7854W        W50771  19.611  30.727   9.296 -0.2803 -0.0563 -0.0719
 7855W        W50772  20.761  29.218   8.881  0.0849 -0.0531  0.2236
 7856W        W50773  16.537  30.070   8.909 -0.2254  0.1176 -0.4521
 7857W        W50774  14.051  33.939  10.723  0.4506  0.0410 -0.0917
 7858W        W50775  14.976  33.202   9.279  0.1385 -0.0994  0.0154
 7859W        W50776  20.609  30.706   8.273  0.1044 -0.1582 -0.0962
 7860W        W50777  16.479  31.808   4.877  0.0153  0.0594 -0.2489
 7861W        W50778  17.740  31.557   7.526 -0.1162 -0.2158  0.1408
 7862W        W50779  12.698  30.500   8.627 -0.0536  0.0215 -0.1720
 7863W        W50780  13.519  30.590   9.126  0.5828  0.0367  0.0391
 7864W        W50781  16.827  31.304   7.467  0.0749 -0.0347  0.1298
 7865W        W50782  19.122  31.231   8.772 -0.1783 -0.0585  0.1137
 7866W        W50783  14.931  30.225   9.828  0.3556  0.0307 -0.2041
 7867W        W50784  18.713  34.632   8.106 -0.3153  0.2122  0.6781
 7868W        W50785  16.338  32.766   9.315 -0.1501  0.0938 -0.0390
 7869W        W50786  19.495  30.383   7.256  0.1144  0.1901  0.0900
 7870W        W50787  16.018  27.294  11.881  0.0118  0.2493 -0.1060
 7871W        W50788  19.349  31.282   8.284  0.0434  0.1035  0.1730
 7872W        W50789  14.872  30.193   9.234 -0.0914 -0.0015  0.2308
 7873W        W50790  15.723  30.870   7.168  0.0352  0.0860 -0.4448
 7874W        W50791  14.907  30.796   9.428  0.0652 -0.1681 -0.0945
 7875W        W50792  14.877  28.144   9.774 -0.2629  0.3472  0.0137
 7876W        W50793  15.260  30.451   9.528  0.4571  0.0025  0.0529
 7877W        W50794  17.355  33.076   6.692  0.0284 -0.0263 -0.2633
 7878W        W50795  15.668  30.461   9.152  0.5796 -0.0681 -0.2584
 7879W        W50796  16.645  29.341   9.771 -0.0162 -0.2225 -0.1247
 7880W        W50797  18.412  33.665   8.289 -0.2240 -0.0298  0.0510
 7881W        W50798  15.927  30.406   6.773  0.3257  0.0757 -0.1294
 7882W        W50799  16.327  28.968   8.133  0.0940  0.1788  0.1258
 7883W        W50800  15.131  30.237  10.292 -0.0378  0.1042  0.1642
 7884W        W50801  15.515  28.783   8.566 -0.1165  0.1529  0.3876
 7885W        W50802  17.466  29.928   8.397 -0.2246  0.1615 -0.0458
 7886W        W50803  15.486  30.820  11.395  0.0221 -0.2407  0.1480
 7887W        W50804  14.278  32.436   6.094  0.1129 -0.1399  0.2247
 7888W        W50805  16.253  26.657   8.666 -0.2233 -0.1210  0.1604
 7889W        W50806  18.561  30.558   7.997 -0.0241 -0.1426 -0.1255
 7890W        W50807  19.254  32.440   8.569 -0.2172 -0.0569 -0.1286
 7891W        W50808  20.784  30.584   7.352 -0.1390 -0.0076  0.0897
 7892W        W50809  16.353  30.132   8.119  0.2141  0.0570  0.2357
 7893W        W50810  17.300  32.130   8.312 -0.2820  0.1664 -0.1303
 7894W        W50811  15.368  27.787  10.221  0.2917 -0.1756  0.1408
 7895W        W50812  16.056  28.293   9.314 -0.2290 -0.1407  0.0530
 7896W        W50813  15.147  30.599   9.030  0.1360 -0.1204 -0.0034
 7897W        W50814  15.525  33.132   9.427 -0.0300 -0.0713  0.0205
 7898W        W50815  17.781  31.170   8.456  0.0352  0.4391 -0.0602
 7899W        W50816  17.129  33.143   9.056 -0.2802  0.2061 -0.2879
 7900W        W50817  15.050  29.702   8.752 -0.5046  0.0141 -0.0352
 7901W        W50818  18.817  33.503   8.028 -0.1312 -0.0125  0.0050
 7902W        W50819  15.330   0.863   9.724 -0.1129  0.1461  0.1530
 7903W        W50820  18.112  31.704   8.638 -0.4215  0.0111  0.0653
 7904W        W50821  18.583  31.553   8.702  0.3551 -0.1689 -0.0950
 7905W        W50822  16.488  27.777   9.835 -0.0356  0.0672 -0.1980
 7906W        W50823  14.236  30.228  10.543 -0.0377  0.0943  0.0843
 7907W        W50824  15.041  30.651  10.680 -0.3389 -0.2815 -0.0521
 7908W        W50825  20.571  28.977   8.011 -0.0364 -0.0196  0.1890
 7909W        W50826  16.527  29.816   7.560 -0.2604  0.0461 -0.2990
 7910W        W50827  17.770  30.775   7.389  0.0287 -0.0341 -0.1195
 7911W        W50828  16.776  32.693   9.089  0.0659  0.0526 -0.1016
 7912W        W50829  15.981  34.220   0.968 -0.0563  0.1171  0.2361
 7913W        W50830  16.329   2.196  30.755  0.0896  0.2919  0.0782
 7914W        W50831  16.998   2.419   1.472  0.1122 -0.0473 -0.2319
 7915W        W50832  14.106  32.522  31.268 -0.1031 -0.1765 -0.2429
 7916W        W50833  14.028  33.833   2.490 -0.2110 -0.2118  0.2699
 7917W        W50834  14.924   0.898   0.313 -0.2427 -0.0601  0.2735
 7918W        W50835  13.357  31.659   3.896  0.0045 -0.1085  0.0816
 7919W        W50836  16.091  32.998  31.820 -0.0362  0.0944  0.2430
 7920W        W50837  14.701  33.750   0.049 -0.4251 -0.1552  0.0594
 7921W        W50838  17.893  34.503   2.041 -0.3583 -0.0402 -0.2347
 7922W        W50839  12.404   0.044   1.603 -0.1115 -0.1800  0.0599
 7923W        W50840  14.352  34.264   3.138  0.0603  0.1977 -0.0151
 7924W        W50841  16.948   0.049   0.939  0.0210 -0.1949 -0.0715
 7925W        W50842  15.762  34.004   3.155 -0.1000 -0.0601 -0.2822
 7926W        W50843  16.163  34.392   2.330 -0.0304 -0.2614 -0.0497
 7927W        W50844  14.409  33.414  31.098 -0.2477  0.3193  0.0350
 7928W        W50845  11.986  33.861   3.070 -0.0905 -0.0987  0.2468
 7929W        W50846  15.903  33.668   3.586 -0.1253 -0.1208 -0.0975
 7930W        W50847  16.600  34.230   1.877 -0.0337  0.2253 -0.0424
 7931W        W50848  15.728   1.323   1.292 -0.3331 -0.3326  0.1275
 7932W        W50849  18.978   0.440   4.013  0.1647  0.0348 -0.3470
 7933W        W50850  17.147  34.619   2.613 -0.0718  0.1792  0.0074
 7934W        W50851  17.180  34.107   0.976  0.3947 -0.0115  0.4800
 7935W        W50852  17.528  31.910   3.863 -0.0873 -0.1526 -0.0690
 7936W        W50853  16.077   2.659   1.583  0.1623  0.2133 -0.3769
 7937W        W50854  16.399  33.865   1.076  0.0548  0.2204  0.0863
 7938W        W50855  16.224   0.534   1.846  0.0044 -0.2519 -0.1100
 7939W        W50856  17.260  32.137   0.934 -0.2762  0.1196  0.0508
 7940W        W50857  16.433  32.802   1.340  0.1819 -0.0199 -0.2229
 7941W        W50858  18.346  33.860  31.722  0.2213  0.0863 -0.1256
 7942W        W50859  15.234   0.552   1.731  0.0007 -0.2200 -0.1773
 7943W        W50860  16.751   0.370   2.086  0.0653  0.0932  0.1772
 7944W        W50861  14.092   0.262   1.941  0.0736 -0.1118 -0.0957
 7945W        W50862  13.188   0.618   2.994 -0.0976  0.0549 -0.1136
 7946W        W50863  14.431   1.441   4.817 -0.2676 -0.4089 -0.1854
 7947W        W50864  14.322  31.181   1.549  0.0760 -0.1409  0.0830
 7948W        W50865  17.327  33.501  31.586  0.5327  0.3436 -0.0621
 7949W        W50866  15.885  31.295   1.582  0.2606  0.0360  0.0880
 7950W        W50867  15.143  33.555   4.233 -0.0908  0.1253  0.1486
 7951W        W50868  16.657   0.072   0.063  0.2176  0.1221  0.2957
 7952W        W50869  16.305  31.716   2.895 -0.0133 -0.3245  0.3156
 7953W        W50870  16.908  31.452   1.343 -0.0529  0.0044 -0.0713
 7954W        W50871  19.093  33.114   0.618 -0.2602 -0.2804  0.1989
 7955W        W50872  14.910  34.492   4.095  0.0942  0.0234  0.0916
 7956W        W50873  19.243  31.008   0.452 -0.3949  0.0406  0.1987
 7957W        W50874  17.922   1.045   1.215  0.2454  0.2757  0.0909
 7958W        W50875  13.632  34.460   3.620  0.1286 -0.1446  0.5647
 7959W        W50876  14.991   0.138   1.938  0.0141 -0.4859  0.0271
 7960W        W50877  14.362  33.349   4.810  0.0822  0.4204 -0.0738
 7961W        W50878  14.317  33.397   0.386  0.1990  0.3390 -0.1699
 7962W        W50879  17.797  32.982   1.842  0.0110  0.2214  0.1344
 7963W        W50880  14.815  31.057   1.456 -0.0816  0.0569  0.0770
 7964W        W50881  15.860  31.761   1.493 -0.1605  0.1412  0.0020
 7965W        W50882  16.659   0.443   0.984 -0.0591 -0.0385 -0.4737
 7966W        W50883  16.579  33.254   3.208  0.0962 -0.2627 -0.0522
 7967W        W50884  16.478  31.145   2.462 -0.2792  0.0635  0.0079
 7968W        W50885  14.826  31.806  31.267  0.0985  0.0866 -0.0363
 7969W        W50886  14.511  31.992   1.912  0.1045  0.2393 -0.1215
 7970W        W50887  17.705  32.445   0.219  0.2569  0.3711 -0.2135
 7971W        W50888  16.679  34.438   0.482 -0.0645  0.2281 -0.0220
 7972W        W50889  15.342  32.659   1.625 -0.2188 -0.1246 -0.1552
 7973W        W50890  14.233  32.036   0.376  0.0323 -0.2224 -0.0541
 7974W        W50891  18.558  32.381   0.161 -0.0940  0.1679 -0.0396
 7975W        W50892  13.533  32.635   2.421 -0.2148  0.1486 -0.1897
 7976W        W50893  14.853   0.321   3.411 -0.1698  0.0798 -0.1246
 7977W        W50894  15.306  33.557   1.581 -0.0818  0.3912  0.1514
 7978W        W50895  17.156   0.031   0.227  0.2262 -0.2460  0.0770
 7979W        W50896  16.499  33.653  31.235 -0.0184 -0.1128  0.0904
 7980W        W50897  15.294   1.341  31.153 -0.2193 -0.0068 -0.0683
 7981W        W50898  17.311  32.901  31.657  0.2053 -0.0515 -0.1175
 7982W        W50899  15.580  31.737   0.652 -0.2375 -0.0992  0.1697
 7983W        W50900  16.163  34.007   1.951 -0.0457 -0.2293 -0.0554
 7984W        W50901  15.832  34.084   0.460 -0.1965  0.0740  0.0318
 7985W        W50902  15.055  34.046   1.927  0.0174  0.1182 -0.1668
 7986W        W50903  17.614  32.459   0.788  0.0097  0.0932  0.4914
 7987W        W50904  16.728  33.085   2.048  0.1491  0.0621  0.1640
 7988W        W50905  16.710  33.712   3.499 -0.1062  0.2707 -0.2828
 7989W        W50906  17.124  33.009   3.107  0.3913  0.0552  0.2626
 7990W        W50907  17.858  33.377   0.068 -0.2853 -0.0865  0.0208
 7991W        W50908  17.563   0.626   1.584 -0.4385 -0.1101 -0.0411
 7992W        W50909  15.412  33.905   0.135  0.1844  0.0995  0.2167
 7993W        W50910  16.014  32.513   2.109 -0.1573  0.2018  0.0781
 7994W        W50911  15.910  33.285   2.490  0.1736  0.3248 -0.3990
 7995W        W50912  16.155   0.134   1.396  0.1392 -0.2971 -0.4376
 7996W        W50913  15.860  32.752   2.486  0.0918 -0.1032 -0.1578
 7997W        W50914  17.637  32.518   1.899 -0.3535  0.1338 -0.1697
 7998W        W50915  15.993  33.765   0.825 -0.0116  0.0183  0.0375
 7999W        W50916  16.538  33.122  31.214 -0.0297  0.2817  0.0914
 8000W        W50917  17.181  32.556  30.983 -0.2658  0.1970 -0.1727
 8001W        W50918  14.099  34.450   3.580  0.0301  0.1444  0.0936
 8002W        W50919  17.879  33.095  31.440  0.2509 -0.0641 -0.0830
 8003W        W50920  15.885   1.036   2.616  0.0256 -0.1269 -0.1375
 8004W        W50921  16.915  33.852  30.476 -0.0121  0.2207  0.0373
 8005W        W50922  14.622   0.416   5.749  0.2508 -0.0664 -0.0601
 8006W        W50923  16.049  32.788   0.438  0.1380 -0.1531 -0.2488
 8007W        W50924  18.396  34.180   1.334  0.0244 -0.1125  0.0100
 8008W        W50925  13.589  33.271   2.050  0.0217 -0.0584 -0.1844
 8009W        W50926  14.309   0.006   0.184 -0.1066  0.0062 -0.0125
 8010W        W50927  16.263  34.105   2.852  0.1044 -0.0353 -0.1786
 8011W        W50928  13.822  33.279   2.972  0.2230 -0.0902  0.4710
 8012W        W50929  15.644  33.338   3.317 -0.0941  0.0107  0.1245
 8013W        W50930  12.981  33.056   1.284  0.0640 -0.2250  0.5009
 8014W        W50931  15.615  32.994   2.935 -0.3623  0.0134  0.2746
 8015W        W50932  18.827  33.218   1.646  0.2229  0.0380  0.0930
 8016W        W50933  18.211  33.549   1.398 -0.1262  0.2191  0.0723
 8017W        W50934  14.551  33.824   2.781 -0.1973 -0.0676  0.0711
 8018W        W50935  16.396   0.234   0.565 -0.2266  0.0801  0.1670
 8019W        W50936  16.268  33.474   2.015  0.0185  0.1084  0.0002
 8020W        W50937  17.294  31.665   2.070 -0.2530 -0.2464 -0.0137
 8021W        W50938  17.389   0.917   1.212  0.0924 -0.2066 -0.0056
 8022W        W50939  18.392  31.881   2.551  0.0692  0.1857  0.0092
 8023W        W50940  15.308  33.151   5.019  0.0257 -0.0172 -0.0981
 8024W        W50941  13.301  34.210   0.919 -0.2251  0.0093  0.0728
 8025W        W50942  13.011   0.272   5.239  0.0446  0.1792 -0.1811
 8026W        W50943  14.778  33.688   1.610  0.2750 -0.1749 -0.5902
 8027W        W50944  17.010  33.670  31.219 -0.1071  0.3459  0.0011
 8028W        W50945  15.111  34.396   1.553  0.1925 -0.0739 -0.0459
 8029W        W50946  18.383  33.180  31.299 -0.0760 -0.0900 -0.0944
 8030W        W50947  14.296  33.696   1.865 -0.2876 -0.2569  0.0808
 8031W        W50948  16.867  33.687   0.909 -0.0611  0.2467  0.1082
 8032W        W50949  16.314  33.723   4.311 -0.1529  0.2025 -0.1168
 8033W        W50950  18.771  33.220  31.723  0.0375  0.0376 -0.2670
 8034W        W50951  15.442  33.483   2.545 -0.2655  0.1265 -0.0539
 8035W        W50952  17.555  33.635   1.018  0.2380 -0.0820  0.2667
 8036W        W50953  17.106   0.496   5.145 -0.1405  0.1337  0.0606
 8037W        W50954  14.961  32.514   3.022 -0.0091  0.2688 -0.0326
 8038W        W50955  18.079   0.686   0.515 -0.2474 -0.0132 -0.0117
 8039W        W50956  17.815  33.474   1.970 -0.1585 -0.2773  0.2237
 8040W        W50957  17.842  33.655   0.523  0.1974 -0.3066  0.0853
 8041W        W50958  18.107   0.765   1.804  0.3239 -0.0622 -0.2696
 8042W        W50959  13.911   0.149   1.455  0.0037 -0.1300  0.0670
 8043W        W50960  17.046  33.361   2.700  0.3158  0.0980 -0.0658
 8044W        W50961  15.577  32.942   0.723 -0.0176  0.2070  0.1341
 8045W        W50962  16.266  32.595   4.590  0.1171  0.1343 -0.2899
 8046W        W50963  17.610   0.141   1.771  0.2026  0.1025  0.0288
 8047W        W50964  14.771  33.349   2.640  0.1839 -0.0363 -0.3236
 8048W        W50965  14.231  33.267  31.915 -0.2867 -0.1407 -0.2752
 8049W        W50966  15.041   0.696   0.945  0.1714 -0.2395 -0.0164
 8050W        W50967  15.850  33.519  31.809  0.1193 -0.1432  0.2943
 8051W        W50968  18.585  34.285   4.907  0.0094  0.2486  0.2546
 8052W        W50969  16.053  33.913   2.469 -0.0872 -0.0134  0.2859
 8053W        W50970  16.341   0.571   1.359 -0.0416 -0.1965  0.1921
 8054W        W50971  16.679   0.328   1.600 -0.2004 -0.2449  0.2161
 8055W        W50972  17.141  34.400   1.363 -0.3408  0.0247  0.0015
 8056W        W50973  17.506  34.329   2.438  0.0974  0.0446  0.1304
 8057W        W50974  15.755  33.165   0.222  0.0486  0.0023 -0.1491
 8058W        W50975  15.273  33.036   2.447 -0.2082  0.3958 -0.0511
 8059W        W50976  16.392  33.236   1.584 -0.0585  0.0624 -0.1963
 8060W        W50977  16.155  32.215   1.680 -0.2498 -0.2350  0.0303
 8061W        W50978  17.717  32.048  31.572  0.2415  0.2725 -0.4049
 8062W        W50979  17.156  33.249   1.165  0.0899 -0.2029 -0.0038
 8063W        W50980  17.852  30.356  31.566  0.2359  0.1195  0.3024
 8064W        W50981  15.169  33.558   2.066 -0.0747 -0.0307 -0.0663
 8065W        W50982  15.948  34.417   1.792  0.3560  0.0203  0.1260
 8066W        W50983  14.128   0.598   2.308 -0.0489  0.2108 -0.1199
 8067W        W50984  18.084  32.556   3.435 -0.0187 -0.0437  0.1208
 8068W        W50985  15.182  33.692  31.672  0.0074  0.1428 -0.0581
 8069W        W50986  13.655  32.995   3.406 -0.1994  0.1583  0.2220
 8070W        W50987  18.057  32.091   1.678  0.0167  0.1137  0.0710
 8071W        W50988  17.344  34.247   0.127  0.2319  0.0603  0.0966
 8072W        W50989  15.146  32.627   0.749  0.1491  0.0331  0.0392
 8073W        W50990  18.151   1.977   1.720 -0.0967 -0.1493 -0.2439
 8074W        W50991  15.884  33.877   1.299  0.1949 -0.2115 -0.1363
 8075W        W50992  16.792  31.781   2.184 -0.0072 -0.0253 -0.0314
 8076W        W50993  15.761  32.027   0.257  0.0029  0.2877  0.1608
 8077W        W50994  18.331  33.758   0.457  0.1407 -0.0206 -0.1096
 8078W        W50995  14.078   1.720   2.359  0.3631  0.0216  0.1730
 8079W        W50996  15.938   0.521   0.103 -0.0945  0.0746  0.1714
 8080W        W50997  17.607   2.555   3.954  0.1066 -0.1321  0.4328
 8081W        W50998  16.200   1.264  31.680  0.0800  0.0445  0.0568
 8082W        W50999  13.139  32.969  31.091  0.0249 -0.0626  0.1070
 8083W        W51000  16.800  33.531   1.408  0.1622  0.0770 -0.1513
 8084W        W51001  16.660  34.245   0.975 -0.1410  0.2767  0.2778
 8085W        W51002  15.010  33.842   2.476  0.2974 -0.1290  0.0301
 8086W        W51003  15.119  34.303   2.333  0.3032 -0.1123 -0.0910
 8087W        W51004  16.443   1.776   2.142 -0.0676 -0.0581 -0.2673
 8088W        W51005  15.498   1.721   2.307 -0.1644 -0.0484 -0.0359
 8089W        W51006  14.712  32.854   0.832 -0.1466  0.0418 -0.0589
 8090W        W51007  15.480  33.205   1.913  0.2921 -0.1105  0.0007
 8091W        W51008  15.188  32.254   1.966 -0.1623  0.1438 -0.1207
 8092W        W51009  16.946  33.002   0.777  0.2310  0.2898 -0.3602
 8093W        W51010  17.711  32.544   2.503  0.0547  0.2536 -0.1226
 8094W        W51011  18.892  33.874   4.421  0.0758  0.0476 -0.3650
 8095W        W51012  15.755   1.333   0.401  0.0379  0.0390 -0.0506
 8096W        W51013  13.657  33.363   0.161  0.0794 -0.1664 -0.1907
 8097W        W51014  20.685  31.549   2.144 -0.1369 -0.2943 -0.1657
 8098W        W51015  15.539   2.155   1.787  0.0968  0.0546  0.2661
 8099W        W51016  16.458   1.554   3.678  0.2615  0.0455 -0.2115
 8100W        W51017  14.913  32.699  30.944  0.2280 -0.1476  0.4835
 8101W        W51018  14.595  31.769   4.032  0.2279  0.1493  0.2765
 8102W        W51019  13.870  33.970   1.710  0.2248  0.0051  0.1608
 8103W        W51020  17.607  32.989   0.987  0.0486  0.1097  0.1895
 8104W        W51021  14.134  31.004   0.252  0.2478  0.1185  0.0843
 8105W        W51022  16.389  32.612   2.695  0.0505 -0.0951  0.1449
 8106W        W51023  14.615  32.375   1.079  0.1974  0.2150  0.2973
 8107W        W51024  15.203   0.012   3.589 -0.0774  0.0277 -0.0220
 8108W        W51025  17.647  33.002   2.308 -0.0641 -0.3645  0.1701
 8109W        W51026  15.896  31.164   4.249  0.0825 -0.1439  0.1513
 8110W        W51027  14.319  31.591  31.350 -0.1942 -0.0739 -0.1657
 8111W        W51028  17.261   1.328   2.294  0.3276  0.0980 -0.0579
 8112W        W51029  14.729  32.669   4.630 -0.3254  0.2899  0.2318
 8113W        W51030  20.864  32.723   0.689 -0.0732 -0.0717  0.1840
 8114W        W51031  16.892  34.614   1.735  0.1407  0.0173  0.1307
 8115W        W51032  14.781  32.179   4.848 -0.1157  0.0273 -0.0211
 8116W        W51033  15.481  32.694   1.136  0.0778  0.0350 -0.0109
 8117W        W51034  16.898  33.385   0.441 -0.1499 -0.0963 -0.4471
 8118W        W51035  13.592  34.350   1.436 -0.0849  0.1704  0.0807
 8119W        W51036  16.650  33.447   2.393  0.0560  0.1792  0.0729
 8120W        W51037  15.343  34.007   2.782 -0.0973  0.2675 -0.1108
 8121W        W51038  15.646  32.892  31.440  0.2367 -0.1157 -0.2802
 8122W        W51039  18.294   1.760   0.504  0.0348  0.3616 -0.1017
 8123W        W51040  14.609  32.963   3.003  0.0828  0.3152 -0.2514
 8124W        W51041  15.205  33.017   0.351  0.2997  0.0418 -0.2719
 8125W        W51042  15.483   0.822   0.361  0.0621  0.0484 -0.2241
 8126W        W51043  17.423  33.313   0.611 -0.0315 -0.3463 -0.0309
 8127W        W51044  16.280  32.248   3.716 -0.1745  0.0622 -0.1586
 8128W        W51045  14.998  32.593  31.423 -0.0067 -0.1587 -0.2155
 8129W        W51046  16.634  33.015   2.687  0.0496 -0.1518  0.0329
 8130W        W51047  18.669  34.446   3.960  0.3225 -0.0178 -0.2266
 8131W        W51048  18.948  34.384   4.531 -0.0674 -0.2276 -0.0594
 8132W        W51049  14.549  33.907   4.901  0.0405  0.1437 -0.0153
 8133W        W51050  15.703  33.347   6.350 -0.1163  0.1302 -0.0809
 8134W        W51051  14.255   0.906   4.368  0.0451  0.3508  0.0587
 8135W        W51052  13.235  32.193   6.677 -0.0724  0.0940 -0.2093
 8136W        W51053  15.712  32.657   3.940 -0.0706  0.0440  0.1828
 8137W        W51054  13.970  32.348   5.658  0.4204 -0.2204  0.1219
 8138W        W51055  16.752  33.867   4.069  0.1892 -0.0988 -0.0241
 8139W        W51056  16.364  33.260   4.278 -0.0770  0.2204  0.0275
 8140W        W51057  16.122  33.261   3.415  0.2087 -0.0167  0.3323
 8141W        W51058  15.621   0.270   6.078  0.1218 -0.0605 -0.3810
 8142W        W51059  14.493  32.117   5.721 -0.2533 -0.0002  0.2342
 8143W        W51060  14.289  33.934   6.337  0.2090 -0.0532 -0.0216
 8144W        W51061  14.604   1.394   4.373 -0.0244 -0.2922  0.1779
 8145W        W51062  13.111  34.167   4.825 -0.3990 -0.0432  0.2428
 8146W        W51063  18.059   1.061   6.210  0.0741  0.2875  0.0444
 8147W        W51064  18.816   1.169   4.392  0.0260 -0.0167 -0.1223
 8148W        W51065  18.645   0.711   4.363  0.3622  0.2079  0.0730
 8149W        W51066  17.189   0.497   6.426 -0.1175  0.3397  0.1989
 8150W        W51067  14.266   1.773   7.170 -0.2537  0.1723 -0.2259
 8151W        W51068  17.925   0.090   3.344  0.1506 -0.0335 -0.1056
 8152W        W51069  17.599  34.497   6.183  0.0483  0.1119 -0.2949
 8153W        W51070  19.823  33.212   3.428  0.0782  0.1933  0.3377
 8154W        W51071  17.418  32.913   1.542 -0.1709  0.0355 -0.0717
 8155W        W51072  17.183  33.629   4.857 -0.0677  0.0495 -0.0311
 8156W        W51073  13.337  34.446   5.240  0.0942 -0.0353 -0.2380
 8157W        W51074  17.379  33.664   7.088  0.0720  0.3773 -0.1201
 8158W        W51075  15.343   0.083   4.103  0.1323 -0.1716 -0.1669
 8159W        W51076  16.081  33.446   5.391  0.2975  0.0055  0.0007
 8160W        W51077  16.363  34.305   5.814  0.1264 -0.0628 -0.0377
 8161W        W51078  14.962  32.445   5.582  0.0443 -0.2224 -0.1231
 8162W        W51079  15.275   0.887   6.656 -0.2302  0.1125  0.0958
 8163W        W51080  13.763  33.506   6.539 -0.3147 -0.1930 -0.1641
 8164W        W51081  14.510  32.256   4.435  0.1489 -0.0523  0.2205
 8165W        W51082  19.821  34.283   4.721  0.0036  0.2787  0.0485
 8166W        W51083  16.788   0.733   4.206  0.2604 -0.0830  0.0291
 8167W        W51084  17.502  34.632   5.686 -0.2453 -0.0049 -0.0925
 8168W        W51085  19.243  34.017   2.008 -0.1710  0.1446 -0.0313
 8169W        W51086  16.097  32.831   6.202 -0.1972  0.0832  0.1243
 8170W        W51087  15.050  33.989   7.766 -0.1373  0.0474  0.0356
 8171W        W51088  16.425  33.554   3.862  0.1871  0.2664  0.1985
 8172W        W51089  14.868   0.986   6.929 -0.1897  0.0634 -0.1341
 8173W        W51090  16.453  33.641   5.704 -0.0595 -0.0754 -0.0610
 8174W        W51091  19.204  32.625   3.338  0.0390 -0.1401  0.3624
 8175W        W51092  14.332   1.004   7.861 -0.2420  0.0920  0.1673
 8176W        W51093  14.733  33.205   6.467  0.1964  0.1595  0.1236
 8177W        W51094  15.798   1.326   8.362  0.0109 -0.0453 -0.3211
 8178W        W51095  13.408  33.094   6.655  0.1373 -0.0163  0.0308
 8179W        W51096  18.019  32.878   7.144  0.1187 -0.0961  0.0576
 8180W        W51097  13.676  32.166   2.224  0.2188 -0.0380  0.0490
 8181W        W51098  16.958  34.340   6.722  0.1596  0.0843  0.0934
 8182W        W51099  13.367  33.624   6.773  0.2919  0.0012 -0.1667
 8183W        W51100  17.837  33.535   7.252  0.1318  0.2413  0.0586
 8184W        W51101  16.075  33.343   6.678  0.1273  0.2755 -0.1342
 8185W        W51102  13.965  33.206   4.265 -0.0866  0.2531  0.2042
 8186W        W51103  15.240  32.614   4.808  0.3326 -0.2597 -0.0840
 8187W        W51104  13.826  34.144   5.456  0.1380  0.5516  0.2094
 8188W        W51105  16.827   1.059   3.344  0.1140 -0.0041  0.1374
 8189W        W51106  17.143  32.404   3.252 -0.2220 -0.2416  0.2779
 8190W        W51107  14.176  33.422   5.257  0.0797  0.4222 -0.1750
 8191W        W51108  17.019  33.582   5.549 -0.0679 -0.1367 -0.0053
 8192W        W51109  15.083  34.618   9.023  0.2526  0.2573  0.2316
 8193W        W51110  15.467  34.285   3.996  0.1687 -0.0509  0.2187
 8194W        W51111  15.087  33.046   2.954  0.0544 -0.3237  0.4998
 8195W        W51112  14.651  34.575   5.773  0.2546  0.1164 -0.0237
 8196W        W51113  18.467   0.088   4.883  0.0960 -0.0395 -0.1528
 8197W        W51114  18.513  32.705   0.790 -0.1914  0.0991  0.0498
 8198W        W51115  18.487  34.511   2.281 -0.1499  0.1709  0.2659
 8199W        W51116  17.995  34.172   4.394  0.1567  0.0498 -0.2105
 8200W        W51117  15.026  30.920   5.251  0.1629  0.0874 -0.0680
 8201W        W51118  17.577  34.347   4.185  0.1214 -0.0821  0.1789
 8202W        W51119  17.026   0.226   7.375  0.0794  0.0364  0.5747
 8203W        W51120  18.084  34.229   3.501  0.4860 -0.0606  0.1344
 8204W        W51121  16.818  33.291   4.085 -0.0599  0.2130  0.2329
 8205W        W51122  14.100  31.386   6.931 -0.1136 -0.3103  0.0004
 8206W        W51123  17.535   0.130   7.522  0.0423 -0.0611  0.1882
 8207W        W51124  16.487   0.964   2.836 -0.1686 -0.0741  0.1668
 8208W        W51125  16.338  33.109   5.784 -0.3020  0.1919 -0.1338
 8209W        W51126  13.987   1.322   4.512  0.1766  0.0524  0.0590
 8210W        W51127  16.101  33.163   7.244  0.2613 -0.0366 -0.0858
 8211W        W51128  15.130  32.897   5.696 -0.3141  0.2108 -0.1561
 8212W        W51129  18.054  32.940   4.501 -0.1557 -0.0365  0.1735
 8213W        W51130  15.401  33.477   6.820  0.0869 -0.0726  0.1458
 8214W        W51131  20.496  33.472   5.395  0.1881  0.1013 -0.1985
 8215W        W51132  17.176  33.705   3.736  0.1129  0.0386  0.0545
 8216W        W51133  14.377  34.383   5.069  0.1921 -0.2904 -0.1276
 8217W        W51134  18.517  32.011   3.611 -0.2295 -0.2796 -0.0182
 8218W        W51135  15.434  32.726   5.289  0.0355  0.2595 -0.1372
 8219W        W51136  16.347   0.695   5.433 -0.0097 -0.0452  0.0145
 8220W        W51137  18.134   0.226   4.148  0.0993 -0.1798 -0.0655
 8221W        W51138  18.683  31.692   1.463  0.1399  0.2613  0.1386
 8222W        W51139  16.478   1.124   7.793 -0.0469  0.0563  0.2416
 8223W        W51140  13.751  33.388   3.703 -0.1815 -0.2069  0.1178
 8224W        W51141  18.013  34.376   4.865  0.0039 -0.2873  0.0765
 8225W        W51142  15.734  34.670   4.488  0.0004 -0.0989  0.3040
 8226W        W51143  15.938  34.469   4.072 -0.1663  0.1472  0.3066
 8227W        W51144  17.015  33.231   7.531  0.3336  0.0382 -0.1065
 8228W        W51145  16.057   0.464   6.642 -0.0113  0.0117 -0.1749
 8229W        W51146  16.152   0.226   4.157 -0.1751  0.0827  0.0278
 8230W        W51147  16.207   0.267   3.348 -0.1480 -0.2219  0.1403
 8231W        W51148  14.769  32.838   6.030 -0.3143 -0.1041 -0.3619
 8232W        W51149  17.569  31.939   5.877  0.0078  0.1004  0.0297
 8233W        W51150  15.392   0.911   3.952 -0.1802 -0.2946  0.1058
 8234W        W51151  18.500  33.869   5.219 -0.1206  0.1441 -0.1564
 8235W        W51152  17.461  32.944   4.881  0.0011 -0.0036 -0.2220
 8236W        W51153  16.369  33.996   5.286  0.1301 -0.3583 -0.2179
 8237W        W51154  18.130  33.063   6.153 -0.2782 -0.1020 -0.0482
 8238W        W51155  16.143  34.442   3.273  0.1415 -0.2315 -0.1111
 8239W        W51156  17.272  32.702   8.261  0.0739  0.2281 -0.1292
 8240W        W51157  17.231   0.547   6.942  0.1746 -0.1918  0.0425
 8241W        W51158  14.194   0.147   5.986 -0.1086  0.2912 -0.1412
 8242W        W51159  15.627  33.175   7.326  0.1120 -0.1929  0.2533
 8243W        W51160  17.221  33.507   4.254 -0.0750  0.0374 -0.2330
 8244W        W51161  16.537  31.404   3.694  0.0600 -0.0162 -0.2735
 8245W        W51162  15.510   1.897   5.836  0.2990  0.1410 -0.1268
 8246W        W51163  17.480   0.165   5.179  0.2306 -0.0426  0.2046
 8247W        W51164  15.576   2.749   6.362 -0.1262 -0.0293 -0.2496
 8248W        W51165  17.287   0.807   4.421  0.0743 -0.3790  0.0757
 8249W        W51166  16.064  34.078   7.144  0.0551 -0.1061  0.2195
 8250W        W51167  16.376  33.773   4.792  0.1693  0.0775 -0.1777
 8251W        W51168  17.110  34.127   4.865  0.0895 -0.1354 -0.2823
 8252W        W51169  16.656  33.127   7.231 -0.1371  0.0637  0.0705
 8253W        W51170  17.225  32.867   5.748 -0.0142  0.2030 -0.1318
 8254W        W51171  14.971  34.079   9.074  0.0137  0.0109  0.0273
 8255W        W51172  18.958  34.349   3.545 -0.2088 -0.3771 -0.1790
 8256W        W51173  16.735  32.576   6.822  0.0586  0.2000 -0.0873
 8257W        W51174  18.423  32.766   5.304  0.0437 -0.0569  0.3303
 8258W        W51175  15.435  33.711   3.877  0.1765 -0.1881 -0.0058
 8259W        W51176  14.715   0.102   6.258  0.6559  0.0491  0.3589
 8260W        W51177  16.804   2.206   7.987  0.2392 -0.2146  0.0284
 8261W        W51178  16.327  33.719   3.195  0.0290  0.0711 -0.0776
 8262W        W51179  17.219  33.686   7.548  0.0920  0.2243 -0.2083
 8263W        W51180  16.371  32.763   4.148 -0.0186  0.0203  0.0628
 8264W        W51181  13.698  33.343   4.723 -0.1503 -0.1543 -0.3380
 8265W        W51182  17.769  32.996   3.640  0.1273  0.1528 -0.1613
 8266W        W51183  15.289   0.359   2.722  0.0974  0.0577 -0.0132
 8267W        W51184  16.783  32.577   3.552  0.2299 -0.0729  0.2283
 8268W        W51185  15.669  31.980   7.620 -0.0535  0.4780 -0.0096
 8269W        W51186  14.406  32.979   6.803 -0.2710 -0.0648  0.1477
 8270W        W51187  16.590  31.881   6.166 -0.1947 -0.1090 -0.4210
 8271W        W51188  18.913  33.194   3.948  0.1414 -0.0253 -0.1944
 8272W        W51189  17.904  34.561   5.370 -0.0748  0.0556  0.0312
 8273W        W51190  17.044   0.311   6.003  0.1021 -0.0753  0.2574
 8274W        W51191  14.527  33.481   6.036 -0.1446  0.1059 -0.0129
 8275W        W51192  14.965  33.265   6.026  0.3179 -0.1600  0.0050
 8276W        W51193  14.909  33.825   3.177  0.0554 -0.2567 -0.0755
 8277W        W51194  16.057   0.058   5.745 -0.2572  0.0442 -0.1490
 8278W        W51195  17.212  31.872   3.383 -0.4596 -0.3391  0.0889
 8279W        W51196  18.179  32.463   2.596 -0.1819 -0.0515  0.0105
 8280W        W51197  17.056  33.535   3.188 -0.1475 -0.0527 -0.4412
 8281W        W51198  17.012   0.135   6.795 -0.2474 -0.2674  0.1147
 8282W        W51199  15.069  33.047   3.492  0.1285  0.0209  0.0502
 8283W        W51200  14.769   0.285   7.580  0.0444  0.1306 -0.0104
 8284W        W51201  19.669  33.705   5.319  0.0523  0.3318  0.2475
 8285W        W51202  15.015  33.549   3.618  0.0223  0.2417 -0.0296
 8286W        W51203  15.266   0.996   5.688  0.1984  0.2146  0.0452
 8287W        W51204  16.804  31.669   5.650 -0.1770 -0.0053  0.0988
 8288W        W51205  17.000   0.113   5.445 -0.1076 -0.0813  0.1731
 8289W        W51206  15.411  33.030   4.461  0.1522 -0.1777  0.1741
 8290W        W51207  17.613  32.225   3.327 -0.0464  0.2734  0.0702
 8291W        W51208  17.742  33.718   6.700  0.2910 -0.0624  0.1783
 8292W        W51209  17.432  32.643   6.961  0.1008  0.0487  0.0915
 8293W        W51210  15.233  34.117   6.214 -0.1614  0.0125  0.1297
 8294W        W51211  17.644  33.346   4.495  0.1315  0.2854  0.2230
 8295W        W51212  15.600  33.200   5.430 -0.1487  0.2086 -0.3255
 8296W        W51213  14.683   0.428   2.921  0.1491  0.0170 -0.0942
 8297W        W51214  15.312  34.276   5.312 -0.1676 -0.2745  0.1677
 8298W        W51215  17.213  32.780   3.657  0.3944  0.3433 -0.1208
 8299W        W51216  13.271  34.544   6.166  0.1213 -0.2896 -0.0584
 8300W        W51217  16.571   1.542   2.909  0.0729  0.0581  0.0545
 8301W        W51218  15.700   0.410   4.835  0.0533 -0.3246  0.1869
 8302W        W51219  16.814  33.938   5.982  0.0472  0.1393 -0.0949
 8303W        W51220  16.706  34.231   3.725  0.1500 -0.1586 -0.1290
 8304W        W51221  19.004   1.480   5.876 -0.0846  0.0525  0.0073
 8305W        W51222  18.351  33.081   1.813  0.1277  0.0582  0.3912
 8306W        W51223  14.464  34.037   6.784  0.1175 -0.3162  0.0961
 8307W        W51224  18.875  32.877   3.627 -0.1204  0.2412 -0.1067
 8308W        W51225  14.961  33.899   5.391 -0.1953  0.0076 -0.1083
 8309W        W51226  16.818  33.523   6.313 -0.0315  0.0743  0.2429
 8310W        W51227  17.323  33.526   6.488 -0.0194 -0.0345  0.0473
 8311W        W51228  17.056  31.811   6.673 -0.2210 -0.0964  0.2504
 8312W        W51229  17.190  34.203   3.882 -0.0445  0.0397  0.0257
 8313W        W51230  16.751  33.746   5.128 -0.1136  0.1087 -0.2598
 8314W        W51231  18.275  32.560   4.927 -0.3722 -0.1242  0.3773
 8315W        W51232  17.592  32.814   4.402 -0.0831  0.0618  0.1437
 8316W        W51233  15.334   0.530   5.736 -0.1858  0.1848 -0.0242
 8317W        W51234  15.113  33.405   5.521  0.2756 -0.1612 -0.0473
 8318W        W51235  15.595  31.377   9.105 -0.0292  0.0540  0.0196
 8319W        W51236  13.687   0.105   6.251  0.1918 -0.1160 -0.0420
 8320W        W51237  12.786  34.601   6.077  0.0030 -0.1857 -0.3184
 8321W        W51238  16.119  34.642   6.330  0.1116  0.0924  0.0925
 8322W        W51239  15.300  33.598   6.336  0.2537 -0.1139 -0.1532
 8323W        W51240  14.216  33.628   7.078 -0.1254  0.4091  0.0360
 8324W        W51241  15.581  34.126   4.781  0.2079 -0.1075 -0.2548
 8325W        W51242  15.861  32.844   5.785  0.1548 -0.2459 -0.0607
 8326W        W51243  14.649  32.919   7.314  0.1482 -0.2118 -0.1911
 8327W        W51244  12.894  32.549   3.949  0.1281  0.2113 -0.0210
 8328W        W51245  14.726   1.629   6.219  0.0445  0.0171 -0.0155
 8329W        W51246  15.297  32.905   7.700 -0.0950 -0.2482  0.2384
 8330W        W51247  18.117  33.520   5.998 -0.0917  0.1100  0.1593
 8331W        W51248  14.756  32.668   5.191 -0.1437 -0.0033 -0.0113
 8332W        W51249  15.077  34.041   4.298  0.1927 -0.2986 -0.2880
 8333W        W51250  13.847  33.029   6.453 -0.1147  0.1243  0.1469
 8334W        W51251  16.650  32.324   4.029 -0.0102  0.4061 -0.0000
 8335W        W51252  15.449  33.061   6.054 -0.0700 -0.0268 -0.0832
 8336W        W51253  19.166   0.096   4.349 -0.0869  0.2380 -0.1715
 8337W        W51254  15.171   0.020   5.955 -0.0181  0.3984 -0.0161
 8338W        W51255  15.690  33.404   4.151 -0.1750  0.2133  0.0801
 8339W        W51256  17.606   1.144   4.571  0.1187 -0.0516  0.4222
 8340W        W51257  13.183  32.822   5.250  0.0947 -0.1781 -0.1517
 8341W        W51258  16.051  34.152   4.430  0.0239 -0.1107 -0.1130
 8342W        W51259  16.621  34.324   4.993  0.1308 -0.0216 -0.3696
 8343W        W51260  16.744   1.537   6.642 -0.3413 -0.1229 -0.1318
 8344W        W51261  15.814  33.843   6.113  0.2982  0.2466 -0.1454
 8345W        W51262  17.676  32.914   5.946 -0.2372  0.1187  0.0790
 8346W        W51263  16.452  33.887   7.995 -0.1502 -0.0550  0.2920
 8347W        W51264  17.865  33.638   8.205  0.2686  0.1958  0.2186
 8348W        W51265  17.695  34.593   9.494  0.0140 -0.2146  0.0981
 8349W        W51266  15.289  33.798  10.557  0.0876  0.1995  0.3544
 8350W        W51267  16.434  33.195   6.321  0.0233  0.1030 -0.3367
 8351W        W51268  19.217  33.420   8.931  0.1179 -0.1882 -0.0022
 8352W        W51269  15.985  32.196   8.729 -0.2112  0.1856  0.2012
 8353W        W51270  14.613  32.321   9.503 -0.0427 -0.0197  0.2047
 8354W        W51271  17.920   1.523   9.827 -0.0733 -0.1783 -0.1275
 8355W        W51272  14.647   0.483  10.590  0.0494 -0.0969  0.0713
 8356W        W51273  15.923  32.567   9.593  0.0868  0.3315  0.0750
 8357W        W51274  16.038   1.313  10.614 -0.0537  0.1183  0.3479
 8358W        W51275  16.968  34.450   9.643 -0.4292  0.0207 -0.0756
 8359W        W51276  14.365   2.065   6.791  0.3060  0.2342 -0.2724
 8360W        W51277  14.085  33.990   7.931 -0.0195  0.0010 -0.0012
 8361W        W51278  15.184  33.940   8.646 -0.2846  0.1459  0.1886
 8362W        W51279  18.205  32.241   8.530  0.1748  0.0333  0.0902
 8363W        W51280  18.166  34.626   8.893 -0.0745 -0.0948 -0.3633
 8364W        W51281  17.647  33.160   8.280 -0.2315  0.0869  0.2136
 8365W        W51282  16.697   2.931   7.771 -0.0585 -0.1707 -0.2668
 8366W        W51283  17.258   0.650   7.448  0.0353 -0.1209 -0.0323
 8367W        W51284  15.408  32.772   7.156 -0.3375 -0.0553  0.1838
 8368W        W51285  18.472  32.659   9.328  0.2422  0.0850  0.2093
 8369W        W51286  18.113   1.302   8.669  0.0666  0.0202  0.0260
 8370W        W51287  16.518  31.830   9.212  0.3299  0.0362  0.3933
 8371W        W51288  18.152   1.182   9.129 -0.1387  0.1336  0.2302
 8372W        W51289  14.519   3.417   9.583 -0.2208  0.1336 -0.3971
 8373W        W51290  15.784  33.015   9.851  0.0407 -0.1172  0.2431
 8374W        W51291  15.008  34.484   7.807 -0.0160 -0.1666  0.2407
 8375W        W51292  15.750   0.501   8.059  0.1037 -0.2183  0.0864
 8376W        W51293  18.762  30.864   8.929 -0.1645  0.2434  0.1208
 8377W        W51294  18.196  30.673  11.962  0.0295 -0.1456 -0.0253
 8378W        W51295  15.486  33.064  10.409 -0.2063  0.2516 -0.4037
 8379W        W51296  16.395  34.486   6.771 -0.0491 -0.2673 -0.0288
 8380W        W51297  14.088  32.485  10.741  0.2626 -0.2705 -0.2997
 8381W        W51298  17.175  33.388   8.506  0.3376  0.0842 -0.0401
 8382W        W51299  18.536  33.505   8.890  0.3088 -0.0790 -0.0996
 8383W        W51300  17.668  34.197   8.142  0.0496 -0.0224 -0.2780
 8384W        W51301  15.659   0.565  11.190 -0.0245 -0.0937  0.1928
 8385W        W51302  16.233  33.774   9.091 -0.3490 -0.0003 -0.0409
 8386W        W51303  16.422  33.302   7.651  0.1829  0.0909 -0.1272
 8387W        W51304  14.259  34.121   7.240 -0.0233  0.0245 -0.1086
 8388W        W51305  16.883  34.659   8.228 -0.2649  0.2665 -0.3263
 8389W        W51306  15.867  34.117   7.787 -0.2930  0.2186  0.3698
 8390W        W51307  17.953  29.892   8.584  0.0528 -0.0312 -0.2112
 8391W        W51308  14.759   0.791   7.849 -0.2024 -0.1242  0.3470
 8392W        W51309  16.147   1.049   9.068 -0.1208  0.1666 -0.1612
 8393W        W51310  17.810  33.768   9.602 -0.1432 -0.0502  0.3059
 8394W        W51311  14.041  33.650   7.545 -0.0969 -0.0434  0.4336
 8395W        W51312  13.451  34.466   6.660  0.0236 -0.0856  0.1884
 8396W        W51313  19.356  33.796   9.700  0.0304 -0.1909  0.1112
 8397W        W51314  14.120  33.478   8.491  0.2179 -0.1506  0.1160
 8398W        W51315  16.478  32.356   9.658  0.1619  0.2741 -0.1718
 8399W        W51316  19.389  33.807   8.605  0.0077  0.1390  0.0965
 8400W        W51317  16.469  34.090   7.507  0.1000 -0.2422 -0.0988
 8401W        W51318  17.068  33.009   4.549 -0.0078 -0.0502  0.0657
 8402W        W51319  16.314  32.406   6.450  0.0483 -0.3296 -0.1696
 8403W        W51320  17.246  31.744   9.324  0.2319  0.2709  0.1193
 8404W        W51321  15.283   1.789   6.361  0.0457 -0.2657  0.6210
 8405W        W51322  15.993  32.586   8.441  0.0818  0.0844  0.3623
 8406W        W51323  15.542  32.510  10.462  0.1153 -0.1427 -0.1425
 8407W        W51324  19.592  32.352   9.368 -0.0757 -0.0469  0.1178
 8408W        W51325  17.391  34.388   7.713  0.3492 -0.2797 -0.1592
 8409W        W51326  17.251   0.353   8.332  0.0596 -0.2511 -0.0517
 8410W        W51327  15.829  34.673   8.147  0.2452 -0.2557  0.0525
 8411W        W51328  18.207   2.144   9.241 -0.0437 -0.2544 -0.1116
 8412W        W51329  16.266  32.039   8.302 -0.1441 -0.2285 -0.0477
 8413W        W51330  14.506  31.053  10.268 -0.0241 -0.2771  0.2214
 8414W        W51331  19.186  32.972   8.451  0.2120 -0.0648  0.2346
 8415W        W51332  15.282   0.507   9.319  0.4903 -0.0987  0.0266
 8416W        W51333  13.488   0.075   8.199 -0.1544  0.2322  0.0180
 8417W        W51334  16.838  33.041   6.591 -0.0917  0.1256  0.0576
 8418W        W51335  16.210  31.221  10.262 -0.0897 -0.1639 -0.0073
 8419W        W51336  15.817   0.837   9.881 -0.1205  0.3314 -0.1076
 8420W        W51337  17.190  33.156   6.161 -0.1791  0.0157  0.0310
 8421W        W51338  14.021   1.113   6.364 -0.3223 -0.4524 -0.1249
 8422W        W51339  19.762   0.038   9.354  0.2055 -0.0631 -0.1968
 8423W        W51340  16.947  34.587   7.679 -0.0138 -0.0236 -0.0208
 8424W        W51341  16.669  34.248   8.390  0.0658  0.2077 -0.0796
 8425W        W51342  17.344   2.001   8.845 -0.1725 -0.3532  0.0466
 8426W        W51343  19.134  31.544   9.599 -0.1826  0.1047 -0.0109
 8427W        W51344  15.422  32.597   9.508 -0.1689  0.0101  0.0323
 8428W        W51345  14.651  33.019  10.084  0.1746  0.4446 -0.0088
 8429W        W51346  16.570  34.065   8.854 -0.2148 -0.1150  0.2880
 8430W        W51347  16.547  34.294   9.936  0.1176  0.0507 -0.0683
 8431W        W51348  20.060  33.709   7.880  0.2981 -0.1166 -0.0811
 8432W        W51349  19.430  32.845   9.640  0.3146 -0.0029  0.1978
 8433W        W51350  16.725  33.365   9.980  0.1643 -0.1270 -0.0973
 8434W        W51351  17.353  34.115   5.808 -0.0255 -0.0087 -0.1178
 8435W        W51352  15.603  30.889   8.857  0.1884 -0.0499 -0.2829
 8436W        W51353  16.951  33.850   8.370  0.1231  0.0515  0.1765
 8437W        W51354  15.805  34.552   8.631  0.0262 -0.2604 -0.4191
 8438W        W51355  15.640   1.286   9.839 -0.2230  0.1672  0.1733
 8439W        W51356  17.061  33.294   7.017  0.0527  0.0018  0.0558
 8440W        W51357  16.519   1.891   9.167 -0.1196  0.0444  0.2976
 8441W        W51358  17.631  34.420   8.989  0.0405 -0.2816 -0.0548
 8442W        W51359  17.106  32.799   7.758 -0.1615  0.5017  0.0427
 8443W        W51360  17.932  34.349   7.603 -0.0309  0.0921  0.1179
 8444W        W51361  20.158  32.177   7.730  0.2103 -0.2396 -0.2637
 8445W        W51362  19.339  29.451   8.997 -0.0455 -0.0691 -0.0968
 8446W        W51363  15.932  33.510   7.556 -0.0540  0.1753 -0.1100
 8447W        W51364  16.058   0.671   9.452  0.1257  0.1155  0.1828
 8448W        W51365  15.499  33.888   7.472 -0.3336 -0.0522  0.3078
 8449W        W51366  16.130  31.975   6.184  0.2343  0.0263  0.1607
 8450W        W51367  14.698  33.147  10.559  0.2967 -0.2843  0.2465
 8451W        W51368  15.500   0.496   7.266  0.5175 -0.2081  0.1532
 8452W        W51369  15.730   2.227   6.161  0.0634  0.3313  0.1268
 8453W        W51370  16.270  34.471   8.935 -0.1846  0.1438 -0.1536
 8454W        W51371  16.503  32.533   8.354  0.3983  0.0942 -0.0205
 8455W        W51372  16.043  33.130   9.440  0.4816 -0.1668 -0.1700
 8456W        W51373  17.852  34.025   8.783  0.2357  0.2191  0.0162
 8457W        W51374  17.718   1.690   8.457  0.0050  0.0816  0.0110
 8458W        W51375  15.247   1.682  10.437 -0.1757  0.0587  0.4815
 8459W        W51376  19.294  33.306   9.458  0.0911 -0.2166 -0.3664
 8460W        W51377  17.539  33.099   7.230  0.3014 -0.0622  0.0244
 8461W        W51378  16.472  31.026   6.376 -0.1317  0.2958  0.0531
 8462W        W51379  16.142   0.260   8.966 -0.0043 -0.2128  0.1702
 8463W        W51380  18.866   0.604   8.881 -0.0020  0.0353  0.2096
 8464W        W51381  17.117  34.187   8.715 -0.2082 -0.1442 -0.0245
 8465W        W51382  15.486  33.737   5.283  0.2521 -0.0879 -0.0202
 8466W        W51383  14.551  33.316   7.648  0.0611 -0.2077  0.0056
 8467W        W51384  16.217   0.337  10.325 -0.0075 -0.1706 -0.1766
 8468W        W51385  16.648  32.818   7.609 -0.1335  0.1869 -0.2242
 8469W        W51386  15.435  34.025   9.380 -0.2298 -0.1079 -0.1207
 8470W        W51387  17.843  33.010   9.034  0.0122 -0.0869 -0.0207
 8471W        W51388  16.746   1.794   9.663  0.0040  0.0019 -0.1839
 8472W        W51389  17.996  32.807   8.612 -0.2721  0.3433  0.1653
 8473W        W51390  18.044  33.589   9.133  0.0256  0.1426  0.2207
 8474W        W51391  14.628  31.602  10.999  0.2350  0.1517 -0.2914
 8475W        W51392  15.775   0.908   6.426 -0.1432  0.1744 -0.1002
 8476W        W51393  15.245  32.287   5.198  0.2271  0.0440  0.3275
 8477W        W51394  14.663  33.516  10.908 -0.3169  0.2105  0.1934
 8478W        W51395  16.556  33.469   6.759 -0.1667  0.1956  0.0795
 8479W        W51396  16.272   0.229   7.915  0.0070 -0.1045  0.0522
 8480W        W51397  16.121   0.281   9.814 -0.0969  0.0361  0.0095
 8481W        W51398  16.553  32.243   8.825 -0.1458  0.0454 -0.1679
 8482W        W51399  18.857  32.622   9.800 -0.0002  0.0572 -0.1413
 8483W        W51400  19.855  33.553   9.828 -0.2034 -0.1865  0.2451
 8484W        W51401  16.106  30.900   8.491  0.0338  0.0157  0.1646
 8485W        W51402  16.771  32.931   8.130  0.3232  0.2752  0.2549
 8486W        W51403  15.544  32.946   8.444  0.0997 -0.1497 -0.0788
 8487W        W51404  20.149  31.736   8.004 -0.1001 -0.1707 -0.0910
 8488W        W51405  14.261  34.476   8.454  0.0660 -0.3625  0.0209
 8489W        W51406  15.823  33.521   9.259 -0.2179 -0.5135 -0.2131
 8490W        W51407  18.801  32.602   6.587 -0.2505  0.0891  0.1393
 8491W        W51408  16.822  33.511   7.891  0.1692  0.1260 -0.0248
 8492W        W51409  17.729   1.393   9.378  0.0837 -0.1209 -0.1218
 8493W        W51410  14.551  34.578   7.269  0.0232  0.0042 -0.2260
 8494W        W51411  14.980  34.333  10.010 -0.0152  0.2258 -0.2492
 8495W        W51412  14.544  33.913   9.874 -0.1955 -0.1590  0.1357
 8496W        W51413  16.410  33.835   9.836  0.1197 -0.0591 -0.1332
 8497W        W51414  13.254  29.290  10.766  0.2972  0.4664  0.0151
 8498W        W51415  16.346  33.515   9.498 -0.0862 -0.0179  0.0577
 8499W        W51416  14.299  32.975   6.194 -0.0897 -0.1600  0.1909
 8500W        W51417  18.349  32.996   8.981 -0.3529 -0.1655 -0.5416
 8501W        W51418  15.524   0.111   8.995  0.2165  0.1036  0.0682
 8502W        W51419  17.846   0.674   8.193 -0.0470 -0.0560 -0.2845
 8503W        W51420  16.370   0.845   9.847 -0.3756 -0.0613 -0.2200
 8504W        W51421  14.863  30.714   9.874 -0.2844 -0.0538 -0.0833
 8505W        W51422  17.243  32.426   5.984  0.0650  0.0831 -0.2656
 8506W        W51423  17.036  34.116   7.173 -0.1863 -0.2787  0.3748
 8507W        W51424  17.127  34.250   8.127  0.0986  0.1053  0.3772
 8508W        W51425  15.114   0.402   6.250  0.0458 -0.2193 -0.2493
 8509W        W51426  16.761   0.670   7.269  0.0133 -0.1303 -0.2708
 8510W        W51427  15.463  33.449  11.466 -0.2760  0.0790  0.3245
 8511W        W51428  16.161   2.156   8.964 -0.1920  0.3502 -0.1422
 8512W        W51429  14.753   0.244   9.352  0.1310 -0.1985  0.1062
 8513W        W51430  19.572  33.264   8.645 -0.1167  0.2714  0.0696
 8514W        W51431  16.005  32.862  11.407  0.0875 -0.0856  0.0633
 8515W        W51432  17.232  33.697   8.914  0.0032 -0.1983  0.1669
 8516W        W51433  18.037   2.863   3.848 -0.2242 -0.5545 -0.1843
 8517W        W51434  18.613   1.685   0.159  0.1236 -0.1518 -0.1145
 8518W        W51435  22.089   1.675  31.382 -0.5390 -0.1076 -0.0486
 8519W        W51436  22.591   3.595  30.822  0.1909  0.0789 -0.1830
 8520W        W51437  17.425   2.176   2.375  0.3046  0.0443 -0.1837
 8521W        W51438  19.459   3.814   2.683 -0.0301 -0.1191  0.0563
 8522W        W51439  19.836  33.579   3.749 -0.0074 -0.2308  0.1574
 8523W        W51440  19.722   3.375   0.488 -0.1043 -0.0988  0.2229
 8524W        W51441  20.934   2.963   2.445  0.1644  0.4423  0.0977
 8525W        W51442  18.670   0.886  31.313 -0.1109  0.0234  0.0264
 8526W        W51443  18.022  33.435   3.432  0.1354 -0.2762  0.2456
 8527W        W51444  18.636   3.284   3.667 -0.1865  0.0901 -0.1204
 8528W        W51445  18.792   1.353   1.237  0.2571 -0.0593 -0.0435
 8529W        W51446  18.854   0.117   1.683 -0.0799 -0.0083  0.2926
 8530W        W51447  20.811   2.053   3.880  0.1223 -0.3350  0.0730
 8531W        W51448  19.493   1.139  31.762  0.1070 -0.0409 -0.0582
 8532W        W51449  20.785   1.506   2.216 -0.0306 -0.1114  0.3369
 8533W        W51450  20.064   0.461   3.212 -0.0059  0.2075  0.0322
 8534W        W51451  19.010   3.160   2.264  0.0616  0.1262  0.1238
 8535W        W51452  20.808   2.210   1.110  0.3405 -0.2699  0.0556
 8536W        W51453  21.841  34.496   3.093  0.0938 -0.2273  0.2162
 8537W        W51454  20.331   3.866   2.263  0.1855 -0.0909  0.1278
 8538W        W51455  16.901   4.391  30.669  0.2422 -0.0391  0.1687
 8539W        W51456  18.234  34.481   2.987 -0.3282  0.0210  0.0012
 8540W        W51457  18.501   0.517   3.871 -0.2985 -0.1618 -0.1574
 8541W        W51458  19.686  34.542   3.419 -0.1968  0.1845  0.1512
 8542W        W51459  20.384   1.645   2.566 -0.0987 -0.3769  0.1501
 8543W        W51460  18.976   3.914   2.629 -0.1057 -0.4113 -0.1265
 8544W        W51461  18.637   1.648   1.979 -0.0122  0.0052 -0.1254
 8545W        W51462  22.956   0.743   2.881 -0.3662 -0.0187 -0.1221
 8546W        W51463  17.655   1.985   1.584 -0.0995 -0.0880 -0.0661
 8547W        W51464  16.587   3.953   0.996 -0.2062 -0.0487  0.1300
 8548W        W51465  18.728   4.745   1.153  0.0092 -0.3816 -0.0394
 8549W        W51466  21.330   6.099   1.914  0.0279 -0.2639 -0.1321
 8550W        W51467  22.153   3.466   1.848 -0.2563  0.2418  0.1574
 8551W        W51468  18.694   5.016   3.976 -0.0421 -0.0022 -0.0626
 8552W        W51469  17.950   2.192  31.662  0.2088  0.1312  0.0639
 8553W        W51470  19.261   5.364   2.038  0.1690  0.2646 -0.1987
 8554W        W51471  18.225   2.530   2.243  0.1460  0.0714  0.2607
 8555W        W51472  19.539   2.976   2.312 -0.0621 -0.3599  0.0457
 8556W        W51473  20.637   0.538   0.956 -0.1058 -0.2490  0.0523
 8557W        W51474  18.603   4.275  31.805  0.0328  0.1736 -0.1113
 8558W        W51475  19.608   0.813   1.364  0.4392  0.0106  0.1204
 8559W        W51476  18.421   2.957   3.152 -0.0090  0.0395 -0.1303
 8560W        W51477  19.242   3.014   1.434 -0.2244  0.0632 -0.0728
 8561W        W51478  22.225   1.744   4.019  0.0792 -0.0884  0.1443
 8562W        W51479  18.159   4.527   0.538  0.5079  0.0388 -0.1348
 8563W        W51480  21.357   2.281   1.087 -0.1670  0.0279  0.2386
 8564W        W51481  17.051   0.970   0.845 -0.1574  0.2652 -0.0857
 8565W        W51482  21.818   2.731   0.931  0.0297 -0.0268  0.2102
 8566W        W51483  18.939   0.621   2.457 -0.0882  0.2072 -0.2078
 8567W        W51484  17.583   2.200   0.485 -0.1237  0.0772 -0.1210
 8568W        W51485  18.770   0.205   3.590 -0.1518  0.3416  0.0358
 8569W        W51486  19.970   2.695   2.530  0.3245  0.3523 -0.2702
 8570W        W51487  18.701   0.962   3.449 -0.0008  0.1296  0.4221
 8571W        W51488  21.229   1.577   2.466  0.0454  0.1912  0.1076
 8572W        W51489  18.970   2.620   3.115  0.1901  0.0211  0.0436
 8573W        W51490  17.075   0.885   2.914  0.1369 -0.1631  0.1407
 8574W        W51491  19.095   2.973   0.606 -0.0533  0.3430 -0.0202
 8575W        W51492  21.940   3.648   1.250  0.3398  0.5945 -0.1975
 8576W        W51493  21.142   2.444  31.150  0.1514 -0.0370 -0.1617
 8577W        W51494  17.945  34.498   2.580 -0.3187  0.3067 -0.2906
 8578W        W51495  18.149   2.904   2.591  0.0601 -0.0560 -0.0907
 8579W        W51496  18.556   2.797   4.810  0.1430 -0.2971 -0.1635
 8580W        W51497  17.820  32.850  31.852  0.1457  0.1391 -0.4518
 8581W        W51498  24.429   3.594   2.726  0.2061  0.0121 -0.0445
 8582W        W51499  17.261   4.442   5.196 -0.2764  0.0941  0.2099
 8583W        W51500  22.635   1.211   2.881 -0.0696 -0.2892 -0.2982
 8584W        W51501  19.064   2.659   2.525 -0.1340 -0.0992  0.1620
 8585W        W51502  19.526   2.397   3.296 -0.0715  0.0914 -0.0459
 8586W        W51503  19.629   1.166  29.757  0.0569 -0.3369  0.1718
 8587W        W51504  21.523  33.723   3.045 -0.1565  0.2287  0.5970
 8588W        W51505  18.264  33.014   3.597 -0.1819 -0.1080 -0.0774
 8589W        W51506  17.955   1.466   0.277 -0.0658  0.1795 -0.0761
 8590W        W51507  18.237   2.072   1.178 -0.1532  0.0913 -0.0174
 8591W        W51508  21.814   2.834   2.616  0.2515  0.2409  0.3719
 8592W        W51509  22.811   1.243  30.763  0.1342 -0.1974  0.0530
 8593W        W51510  18.966   2.434   2.088  0.0515 -0.2321  0.0173
 8594W        W51511  19.953   2.367   2.971  0.2760 -0.1837 -0.2594
 8595W        W51512  20.382   3.343   2.033  0.5092  0.1275 -0.0934
 8596W        W51513  17.358   2.726  29.433  0.2216 -0.2111  0.4736
 8597W        W51514  18.857   0.579   0.915  0.1974  0.0610  0.1927
 8598W        W51515  17.510   3.815   1.072 -0.0301 -0.3090  0.0813
 8599W        W51516  18.318   1.965   3.061 -0.1161  0.1313 -0.1033
 8600W        W51517  18.313   1.923   3.546  0.2601  0.0612  0.0910
 8601W        W51518  21.239   3.625  31.755 -0.0953  0.0052 -0.1108
 8602W        W51519  16.342   0.684   4.005  0.3009 -0.0894  0.1796
 8603W        W51520  21.723  33.796   1.516  0.1130  0.3658 -0.1389
 8604W        W51521  18.258   2.430   0.023  0.0891  0.0671  0.0604
 8605W        W51522  22.086   5.383   0.731 -0.2595 -0.0647 -0.0144
 8606W        W51523  19.923   3.378  31.493  0.2246  0.1836 -0.1059
 8607W        W51524  19.526   1.785  30.934  0.0824 -0.1378 -0.1020
 8608W        W51525  17.944   1.310   3.841 -0.1688  0.2167  0.0640
 8609W        W51526  20.073   1.320   2.026 -0.1409  0.0473  0.0324
 8610W        W51527  17.104  34.005   3.385  0.1948  0.0439 -0.2324
 8611W        W51528  19.732   0.204   2.178  0.1534 -0.3454 -0.0481
 8612W        W51529  19.994   3.627   2.615 -0.1351  0.0241 -0.1058
 8613W        W51530  18.570   0.814   2.120 -0.0665  0.0143  0.2326
 8614W        W51531  19.768   2.179   1.884  0.0876 -0.3878 -0.2606
 8615W        W51532  18.590   2.166   0.689 -0.0321  0.0217 -0.3892
 8616W        W51533  16.966   2.773  31.094 -0.0863 -0.2061  0.1615
 8617W        W51534  21.524   1.407   4.055  0.1000  0.3290 -0.1871
 8618W        W51535  18.293   2.846  31.625  0.1203  0.1876  0.0976
 8619W        W51536  22.585   4.334   1.539 -0.3861 -0.2959 -0.1056
 8620W        W51537  19.942   3.972   0.617 -0.0410 -0.0948  0.0099
 8621W        W51538  18.373   1.186   4.123  0.4720 -0.4347 -0.0593
 8622W        W51539  16.719   1.326   1.975  0.1406 -0.2649  0.4104
 8623W        W51540  18.590   2.123   2.204  0.0315  0.0233 -0.1951
 8624W        W51541  18.397   1.970  31.779 -0.1565  0.1165  0.2970
 8625W        W51542  20.284   0.198   1.497 -0.1896  0.0535  0.0845
 8626W        W51543  23.455   3.700   2.171 -0.0614  0.2009  0.1645
 8627W        W51544  20.390   2.466   0.986 -0.0267 -0.0655  0.1539
 8628W        W51545  18.148   3.074   4.703  0.1202  0.0104 -0.2218
 8629W        W51546  22.077  34.436   4.562 -0.2644 -0.0501  0.0323
 8630W        W51547  23.443   1.385   3.405 -0.1454 -0.3168  0.0051
 8631W        W51548  20.170   2.904   1.350  0.2235 -0.1245  0.1560
 8632W        W51549  16.044  34.381  31.676 -0.1052 -0.0410 -0.4567
 8633W        W51550  19.309   2.333   2.840  0.0749  0.1622  0.1332
 8634W        W51551  16.782   3.940   1.861 -0.3833  0.0714  0.1760
 8635W        W51552  18.363   1.232   0.143  0.0279  0.0512 -0.0780
 8636W        W51553  18.322   2.915   1.443  0.1760  0.1132 -0.1488
 8637W        W51554  20.562   1.059   1.096 -0.3115 -0.1605  0.0103
 8638W        W51555  16.754   2.291   4.051  0.2814 -0.2120  0.1442
 8639W        W51556  19.972  34.286   3.102 -0.0162 -0.2349 -0.2185
 8640W        W51557  17.137   2.049   0.799 -0.1758  0.3648  0.3054
 8641W        W51558  17.931   4.702   4.102  0.0910 -0.1246 -0.2716
 8642W        W51559  18.336   0.380   1.032  0.1491 -0.2745  0.1361
 8643W        W51560  21.797   1.320   0.726 -0.3405 -0.1483  0.0164
 8644W        W51561  18.761   3.894   1.488  0.0490  0.2756  0.0781
 8645W        W51562  21.143   3.507   2.406  0.1175 -0.1003  0.2254
 8646W        W51563  19.912   2.420   0.023  0.0531  0.0574 -0.0947
 8647W        W51564  20.840  34.663  31.211 -0.0863  0.2669  0.2273
 8648W        W51565  17.565   2.420   2.949 -0.1639 -0.1016  0.2486
 8649W        W51566  20.472   3.247  31.200 -0.0533 -0.1745  0.0541
 8650W        W51567  20.468   2.215   0.415 -0.0491  0.1733  0.3584
 8651W        W51568  21.121   1.167  31.870 -0.1236  0.1298 -0.0618
 8652W        W51569  18.624   3.095   2.601 -0.0358  0.0067  0.3401
 8653W        W51570  18.917   1.333   2.961  0.2156  0.0135 -0.4292
 8654W        W51571  19.452   2.852   3.340  0.3463  0.3307 -0.1213
 8655W        W51572  18.678   2.249   3.389  0.0613 -0.2177  0.0124
 8656W        W51573  21.818   1.794   3.031  0.2561 -0.1339  0.1242
 8657W        W51574  18.921  34.322   1.271 -0.1352 -0.0588  0.2913
 8658W        W51575  20.903   0.506   1.838 -0.2433 -0.0193 -0.0273
 8659W        W51576  17.683   2.290   1.100  0.1229 -0.0992  0.2617
 8660W        W51577  22.004   0.291   2.848  0.0777  0.1288  0.0384
 8661W        W51578  20.970   0.568   2.693  0.1067 -0.1043  0.1589
 8662W        W51579  21.535  34.184   3.838 -0.2282 -0.4408  0.1458
 8663W        W51580  22.222   0.338   3.321 -0.0044  0.0186  0.0599
 8664W        W51581  19.557   0.621   1.879 -0.2579  0.1233 -0.0857
 8665W        W51582  21.472   2.736   1.265 -0.0278  0.0136  0.0224
 8666W        W51583  17.514   0.730   0.029 -0.1983  0.2827 -0.2310
 8667W        W51584  21.414   0.409   1.713  0.0567  0.0913 -0.0730
 8668W        W51585  17.720   0.006   1.232  0.0461 -0.2615  0.3387
 8669W        W51586  17.144   1.335   4.381  0.0301  0.0967 -0.0100
 8670W        W51587  21.187   3.773   2.989  0.1384  0.0138 -0.0177
 8671W        W51588  20.481   2.956   0.949  0.0813  0.0679  0.0305
 8672W        W51589  20.031   1.729   3.192  0.0283 -0.3387  0.0232
 8673W        W51590  20.097   0.385   2.637  0.0137  0.0172  0.0638
 8674W        W51591  20.037   3.071   0.771 -0.1889  0.0699 -0.2504
 8675W        W51592  18.806   4.295   0.840  0.2239  0.0035  0.0419
 8676W        W51593  19.240   0.230   2.191  0.0209 -0.1588 -0.2208
 8677W        W51594  17.528   3.889   3.440 -0.2480  0.2296  0.1525
 8678W        W51595  17.247   3.400  30.205  0.1420  0.2414  0.0437
 8679W        W51596  20.405   2.157   2.640  0.0953 -0.1483 -0.0782
 8680W        W51597  19.012   1.996  31.863  0.1580  0.0131  0.0692
 8681W        W51598  20.858  34.093   3.048  0.1962 -0.1889 -0.0093
 8682W        W51599  18.714   1.706   3.345 -0.0052 -0.1923  0.0505
 8683W        W51600  17.765   2.489   0.098  0.0012 -0.1626 -0.1899
 8684W        W51601  17.825   1.344   0.741 -0.0061  0.1524 -0.2180
 8685W        W51602  20.709   0.333   2.269 -0.2302  0.2817  0.2798
 8686W        W51603  18.900   3.434  31.433 -0.1282  0.2912  0.1203
 8687W        W51604  20.394   1.152   2.407 -0.0585  0.0515  0.2699
 8688W        W51605  19.656  34.064   2.770 -0.0522  0.0353  0.0704
 8689W        W51606  16.029   2.479   4.903  0.0831  0.4102  0.1116
 8690W        W51607  21.994   2.341   3.117  0.2231  0.0800  0.2374
 8691W        W51608  21.374   1.317   0.367  0.1111 -0.1372  0.0017
 8692W        W51609  19.836   3.110   3.088 -0.2226 -0.3018  0.4588
 8693W        W51610  18.852   1.563   4.889  0.1480 -0.2335 -0.2268
 8694W        W51611  17.185   0.402   1.847 -0.1382 -0.0210  0.0227
 8695W        W51612  24.996   2.012   2.595 -0.1290  0.0549 -0.0738
 8696W        W51613  21.225  34.629   1.813  0.0863 -0.1908  0.3816
 8697W        W51614  19.112   1.625   1.638  0.0306  0.0046 -0.2014
 8698W        W51615  19.508   3.790   0.753 -0.0827  0.0717  0.0639
 8699W        W51616  17.603   0.095   2.962 -0.1364 -0.1504  0.0290
 8700W        W51617  20.682   2.644   0.539 -0.0918 -0.1180  0.0315
 8701W        W51618  18.408  34.494   4.414 -0.1477  0.1161  0.3811
 8702W        W51619  21.033   2.441   2.297  0.0211 -0.2569 -0.0660
 8703W        W51620  19.432   1.306   3.059 -0.0044 -0.1464 -0.0478
 8704W        W51621  18.219  34.202   0.605  0.1635  0.0075 -0.1259
 8705W        W51622  19.949   2.131   1.306  0.0455  0.1021  0.0729
 8706W        W51623  19.511   2.126   1.027  0.1130 -0.0361 -0.1054
 8707W        W51624  20.851   3.274   2.027  0.1814 -0.0917 -0.0603
 8708W        W51625  18.372   2.639   3.549 -0.1436  0.0412  0.1789
 8709W        W51626  20.971   0.089   3.466 -0.3024  0.2172  0.2869
 8710W        W51627  23.403   3.702   1.346  0.0889 -0.3087 -0.0923
 8711W        W51628  19.904   3.014   3.584 -0.0826  0.0401  0.0744
 8712W        W51629  17.416   2.535  30.885  0.1340 -0.2154 -0.1966
 8713W        W51630  17.838   1.903   4.020 -0.0784 -0.0189  0.2732
 8714W        W51631  19.066   2.483   1.521 -0.0323 -0.0143 -0.0337
 8715W        W51632  20.522   0.472   2.889  0.1689 -0.1603  0.1897
 8716W        W51633  18.103   2.339   0.785  0.0124  0.2357  0.2272
 8717W        W51634  19.904   1.982   0.215  0.1429 -0.0403 -0.2499
 8718W        W51635  16.448   2.744   4.063  0.3052  0.1042  0.3676
 8719W        W51636  20.925   1.372  31.486  0.1961  0.2786 -0.0660
 8720W        W51637  18.888   2.593   0.862 -0.0887 -0.1947 -0.0193
 8721W        W51638  21.468   2.381   2.080 -0.3049  0.0876 -0.1192
 8722W        W51639  21.241   1.680   3.458  0.1834 -0.1412 -0.0124
 8723W        W51640  20.179   2.452  31.508 -0.1805  0.3566  0.2398
 8724W        W51641  20.509   0.281   3.710 -0.1308  0.0583 -0.1893
 8725W        W51642  18.590  32.997   2.593 -0.1725 -0.0827 -0.1599
 8726W        W51643  19.722   2.834   1.464  0.1274  0.3354  0.3026
 8727W        W51644  19.833  33.857   3.252  0.2191  0.0172  0.0735
 8728W        W51645  19.602   4.672   4.061 -0.0772  0.3725 -0.2558
 8729W        W51646  19.861   1.508   2.785 -0.1221 -0.2582  0.3018
 8730W        W51647  20.038   2.978  31.213  0.1380 -0.1905  0.1485
 8731W        W51648  18.118   0.332   2.970  0.2588 -0.3284  0.3041
 8732W        W51649  21.205   3.089   1.508  0.0730 -0.0143 -0.0002
 8733W        W51650  21.969   4.335   2.854  0.1896 -0.0153 -0.2760
 8734W        W51651  18.377   2.848  30.446  0.3434 -0.0448 -0.2307
 8735W        W51652  20.765   2.036   1.673  0.0086  0.1679  0.1358
 8736W        W51653  17.072   2.484   3.063  0.1587 -0.4319 -0.0331
 8737W        W51654  20.360   3.203  31.866  0.0254  0.3569 -0.0711
 8738W        W51655  20.117   1.918   0.721  0.1119  0.0324 -0.1663
 8739W        W51656  18.675   2.284   0.178  0.0296  0.1619  0.2392
 8740W        W51657  18.685  34.034   2.186 -0.2177  0.0373  0.2104
 8741W        W51658  20.387   2.861   2.385 -0.3412  0.1735  0.2803
 8742W        W51659  21.563   0.009   1.424 -0.0020  0.3825 -0.4564
 8743W        W51660  19.494   2.061   3.662  0.2933  0.1715 -0.1585
 8744W        W51661  20.626   2.462   1.901 -0.0480  0.0641  0.0803
 8745W        W51662  18.708   0.895   2.822 -0.0221 -0.1153  0.1671
 8746W        W51663  20.808   0.037   2.944  0.0542  0.1260 -0.0708
 8747W        W51664  20.294   6.538   3.577  0.2598  0.2173  0.0469
 8748W        W51665  25.117  34.546  31.063  0.0226 -0.0221 -0.0866
 8749W        W51666  22.103   1.950   3.450 -0.0093 -0.3431  0.2766
 8750W        W51667  19.350   1.282   1.355 -0.1982 -0.3025  0.2552
 8751W        W51668  20.486   1.548   1.237 -0.1170 -0.1091 -0.1315
 8752W        W51669  20.839   1.440   2.753 -0.0284  0.2479  0.2246
 8753W        W51670  21.264   1.717   2.951  0.2066 -0.2276 -0.1694
 8754W        W51671  18.342   1.495  31.273 -0.1762 -0.0502  0.1816
 8755W        W51672  20.003   1.868   3.987  0.0560  0.0758 -0.0211
 8756W        W51673  18.744   1.604  31.556 -0.0674 -0.1150  0.1718
 8757W        W51674  19.960   2.903   0.178 -0.2960 -0.3088  0.0624
 8758W        W51675  20.108  34.576   1.053  0.0945 -0.0731  0.1131
 8759W        W51676  19.769   0.698  31.761  0.1728  0.0523  0.1017
 8760W        W51677  19.092   2.113   2.478 -0.2593 -0.0470 -0.2743
 8761W        W51678  17.405   1.192   0.163  0.0316 -0.0186  0.4451
 8762W        W51679  16.623   1.084   1.129 -0.0323  0.1585  0.0292
 8763W        W51680  18.624   2.762   2.213  0.1605 -0.1091 -0.0036
 8764W        W51681  22.961   4.284   2.355 -0.1543  0.0320 -0.0950
 8765W        W51682  20.243   0.772   1.838  0.1489 -0.1305 -0.0723
 8766W        W51683  21.256  34.245   2.287 -0.0225  0.0097  0.1457
 8767W        W51684  19.838   1.677   1.043 -0.1949 -0.2568  0.4357
 8768W        W51685  19.897   0.694   2.199 -0.0444  0.2276  0.1536
 8769W        W51686  19.493   2.441   2.321 -0.0137  0.1564  0.0765
 8770W        W51687  18.864   3.723   3.456  0.2174  0.1831 -0.1666
 8771W        W51688  19.140   1.631   2.107 -0.1102 -0.1655 -0.0148
 8772W        W51689  20.688   0.013   5.078  0.1502 -0.3266  0.1810
 8773W        W51690  18.356   0.398   3.410  0.3694  0.2798 -0.0022
 8774W        W51691  19.193   0.899   3.289  0.0201  0.0653  0.0536
 8775W        W51692  21.035   0.638   4.282  0.0254  0.4995 -0.0725
 8776W        W51693  20.687   3.684  31.759 -0.0948 -0.1327  0.0853
 8777W        W51694  19.391   0.818   2.296  0.0709  0.3946  0.0732
 8778W        W51695  19.573   2.714   0.536 -0.1443  0.1489  0.2060
 8779W        W51696  22.089   2.555   0.405  0.1282 -0.0005 -0.3242
 8780W        W51697  18.087   1.770   2.194 -0.0025  0.0052  0.4897
 8781W        W51698  17.517   0.890   2.495 -0.0480  0.2809  0.0649
 8782W        W51699  21.740   1.775   2.472 -0.1729  0.0311  0.0270
 8783W        W51700  20.172   4.359   2.205 -0.2188  0.2436  0.2315
 8784W        W51701  18.812  34.062   0.660  0.1887  0.6797  0.0313
 8785W        W51702  19.263   2.787   1.932 -0.0449 -0.1906 -0.0629
 8786W        W51703  19.082   2.071   4.599 -0.5217 -0.2971  0.0634
 8787W        W51704  18.228   0.944   3.703 -0.2892 -0.2743  0.2663
 8788W        W51705  17.520   3.192   1.969 -0.0439 -0.1358 -0.1232
 8789W        W51706  18.781   1.594  30.505  0.0118 -0.0730  0.1795
 8790W        W51707  19.078   2.097   1.266 -0.1224  0.1154 -0.1167
 8791W        W51708  19.309   4.777   2.583  0.2090  0.3788 -0.0987
 8792W        W51709  21.257   3.261   0.171 -0.1169 -0.2410 -0.2248
 8793W        W51710  21.016   1.719   0.238  0.0252  0.2254 -0.2105
 8794W        W51711  16.839   5.521   0.435  0.1822  0.1344  0.0205
 8795W        W51712  20.542   3.131  29.865 -0.3412  0.1992 -0.2982
 8796W        W51713  18.279   3.406   0.323 -0.0406  0.1569 -0.1836
 8797W        W51714  22.608   3.460   3.741  0.1382  0.2199 -0.0985
 8798W        W51715  21.219  34.636  30.730 -0.2989 -0.1266 -0.2101
 8799W        W51716  21.111   1.958   2.090  0.0831 -0.0375  0.1537
 8800W        W51717  21.038   2.438   1.519 -0.2589 -0.0472  0.1373
 8801W        W51718  20.623   5.099   1.476  0.1036 -0.4365 -0.2498
 8802W        W51719  19.136   2.092   3.240 -0.0918 -0.2631 -0.2431
 8803W        W51720  18.852   1.107  30.386 -0.2321  0.2144  0.0979
 8804W        W51721  19.568   2.177   4.943 -0.2330  0.2872 -0.0215
 8805W        W51722  22.705   0.315   4.231 -0.2077  0.0299  0.1066
 8806W        W51723  16.732   2.094   4.575  0.0648  0.0672  0.3855
 8807W        W51724  21.325   5.268  29.684 -0.0680 -0.1069 -0.1034
 8808W        W51725  18.396   1.310   2.563  0.0812  0.0540 -0.1646
 8809W        W51726  20.465   1.521  31.301  0.0880  0.4966  0.0129
 8810W        W51727  21.622   2.558   3.404  0.0099  0.2313  0.3466
 8811W        W51728  20.402   2.019  31.374  0.0359 -0.2762 -0.0532
 8812W        W51729  19.169   2.993   2.926  0.0013 -0.0913  0.2358
 8813W        W51730  19.025   3.884   1.053  0.0343 -0.0365 -0.3331
 8814W        W51731  18.891   3.284   0.955 -0.2061 -0.1777  0.2677
 8815W        W51732  19.037   5.813   2.615 -0.1857 -0.1082 -0.3583
 8816W        W51733  17.329  33.856   2.388  0.0441 -0.0439  0.2235
 8817W        W51734  24.263   3.261  30.562  0.3118  0.2279  0.1952
 8818W        W51735  19.643   1.960   3.049 -0.1126 -0.3022  0.1348
 8819W        W51736  20.514  34.366   3.243 -0.1179 -0.1854  0.1192
 8820W        W51737  18.914   1.126   2.413 -0.1202  0.0923 -0.0670
 8821W        W51738  19.280   2.159  31.218  0.0450 -0.0796 -0.2562
 8822W        W51739  20.098   2.325   2.227 -0.0434  0.0873  0.1013
 8823W        W51740  19.922   2.001   2.637  0.0695  0.0743  0.0278
 8824W        W51741  19.590  34.500  31.625  0.0887  0.2446  0.2963
 8825W        W51742  20.960   2.208   2.937 -0.0630  0.1108  0.0275
 8826W        W51743  20.710   2.361  31.479 -0.1219 -0.1552 -0.0142
 8827W        W51744  19.136   2.078   0.699 -0.0357  0.2330  0.1994
 8828W        W51745  17.642  32.920  29.721  0.0938 -0.1280 -0.1472
 8829W        W51746  20.037   0.095   3.674  0.1273  0.2503 -0.0266
 8830W        W51747  17.919   1.639   1.253  0.0693  0.0002  0.1990
 8831W        W51748  20.241   2.830   1.866 -0.3074  0.1376 -0.1111
 8832W        W51749  20.004   3.549   0.869  0.3739 -0.0616 -0.0155
 8833W        W51750  17.723  34.588   0.366  0.0283 -0.1415 -0.2714
 8834W        W51751  22.938   4.032  31.200  0.4654  0.2698 -0.2803
 8835W        W51752  22.471   2.555   0.825 -0.2262 -0.0033  0.2506
 8836W        W51753  18.869   3.286   0.261  0.2181  0.0644  0.1608
 8837W        W51754  19.565   1.911   2.350 -0.1105 -0.1125 -0.2672
 8838W        W51755  19.686   2.221   0.575  0.4562  0.0009  0.0922
 8839W        W51756  18.470   0.126   2.688  0.2295  0.0336  0.3224
 8840W        W51757  20.501   4.546   1.761 -0.3640  0.0513  0.3119
 8841W        W51758  23.383   3.864   2.639 -0.0686 -0.0213 -0.0746
 8842W        W51759  18.566   2.403   1.345  0.0957  0.0125 -0.2143
 8843W        W51760  18.351   2.605   0.476  0.2059 -0.0891  0.3800
 8844W        W51761  17.722   2.533   2.478  0.1195 -0.0578  0.3816
 8845W        W51762  19.735   1.002   2.581  0.1092 -0.1312 -0.1031
 8846W        W51763  23.813   0.563   2.711  0.1406  0.0390  0.1311
 8847W        W51764  18.703   2.913  31.296  0.0363  0.0292 -0.1050
 8848W        W51765  22.349   1.187   1.591 -0.0864 -0.2492 -0.4205
 8849W        W51766  21.262   2.901   3.614 -0.2731  0.1047 -0.1071
 8850W        W51767  19.730   1.590   3.548 -0.1238 -0.1743 -0.2324
 8851W        W51768  16.090   3.277   1.402  0.0960  0.0714  0.3686
 8852W        W51769  17.811   2.012   3.121 -0.1732 -0.0596  0.2835
 8853W        W51770  18.017   2.377   1.482 -0.0413  0.2572 -0.0462
 8854W        W51771  18.296   4.449   0.989 -0.0070 -0.1191  0.2130
 8855W        W51772  20.089   3.745   1.492  0.1749  0.2792  0.3011
 8856W        W51773  20.415   1.354   0.709 -0.0563 -0.3798 -0.2691
 8857W        W51774  20.388   4.211   0.992  0.0756 -0.0437  0.0113
 8858W        W51775  19.574   0.443   2.570 -0.1117 -0.0267  0.1983
 8859W        W51776  20.983   1.286   1.358  0.0298  0.0854 -0.1201
 8860W        W51777  22.720   0.559   1.108 -0.0316  0.0574  0.4735
 8861W        W51778  20.500   1.743   0.309  0.0333 -0.3358  0.2883
 8862W        W51779  17.041   1.255   1.315 -0.0114  0.0701  0.0831
 8863W        W51780  16.407   4.531  30.961 -0.0418  0.2523 -0.3900
 8864W        W51781  17.587   1.024   1.876 -0.1556  0.1917  0.3455
 8865W        W51782  20.214   0.025   4.170 -0.0303  0.1238 -0.1702
 8866W        W51783  22.673   3.050   2.967  0.0397 -0.2210 -0.2735
 8867W        W51784  16.649   1.938   0.952 -0.0499  0.2927 -0.3401
 8868W        W51785  20.385   0.684   2.358 -0.1196  0.2856 -0.0667
 8869W        W51786  21.256   2.568   0.681 -0.1270 -0.2538  0.2295
 8870W        W51787  16.747  33.818   2.784 -0.0577 -0.0190  0.0864
 8871W        W51788  18.688   1.087   1.692  0.0432 -0.2961 -0.0232
 8872W        W51789  20.620   3.021   1.616  0.1120 -0.1774  0.1270
 8873W        W51790  20.414   2.045   1.260 -0.0117  0.2455  0.0554
 8874W        W51791  18.741  34.593   3.074  0.3061 -0.3099 -0.1535
 8875W        W51792  22.098   5.515   3.479 -0.0109  0.2249 -0.0314
 8876W        W51793  17.714   6.023  31.018  0.0949 -0.1312 -0.2398
 8877W        W51794  19.372   2.608   4.100  0.2093 -0.0130  0.0622
 8878W        W51795  18.680  33.974   3.768  0.1998 -0.0220  0.0521
 8879W        W51796  16.915   2.132  31.803  0.0089  0.2825 -0.1344
 8880W        W51797  20.968   1.593   1.769 -0.2266 -0.0908  0.4329
 8881W        W51798  19.509   1.818   1.444  0.2848 -0.0090 -0.2555
 8882W        W51799  19.714   2.629  30.313  0.1722 -0.1541  0.1356
 8883W        W51800  18.789   2.061   1.696  0.3533 -0.0590  0.0100
 8884W        W51801  18.749   3.766   2.195 -0.1370  0.0296  0.2272
 8885W        W51802  18.293   1.517   0.980  0.0405 -0.0079  0.0581
 8886W        W51803  20.512   3.447   0.724 -0.0025  0.1590  0.0685
 8887W        W51804  19.099   3.968   3.087  0.1334  0.0345 -0.2842
 8888W        W51805  21.756   3.147   1.500  0.0929 -0.1656  0.0548
 8889W        W51806  21.915   0.663   0.974  0.0621 -0.1041  0.3590
 8890W        W51807  19.667   1.470   0.120 -0.0898  0.1200  0.0360
 8891W        W51808  20.277  34.155   2.739 -0.1160 -0.0109  0.0587
 8892W        W51809  18.533   3.422   4.715  0.1661 -0.1376  0.0620
 8893W        W51810  20.740   0.965   2.932  0.0054  0.0411  0.0212
 8894W        W51811  18.785   2.123   2.916 -0.0852 -0.1294  0.1664
 8895W        W51812  21.166   1.248   2.101 -0.0672 -0.1209  0.1222
 8896W        W51813  19.542   4.009  31.842 -0.4392 -0.1857 -0.0462
 8897W        W51814  15.810   0.480   2.639 -0.0085  0.0275  0.3078
 8898W        W51815  18.220  33.630   2.524 -0.0829 -0.0726 -0.2663
 8899W        W51816  19.473   0.462   4.053  0.2681 -0.0287 -0.2721
 8900W        W51817  21.855   2.368   2.578 -0.2131  0.2311 -0.1921
 8901W        W51818  21.023   3.882   3.547  0.0608 -0.0263 -0.8344
 8902W        W51819  21.927   0.569   1.926 -0.3039  0.1104  0.0950
 8903W        W51820  21.513   2.764   1.750  0.0638 -0.0873 -0.0009
 8904W        W51821  20.173   4.299   1.424  0.1324  0.1799 -0.1081
 8905W        W51822  21.821   4.728   4.441  0.0281 -0.2601  0.1347
 8906W        W51823  19.009   1.664   0.445 -0.3084  0.1262 -0.1798
 8907W        W51824  20.749   4.217   1.485  0.3295  0.0857  0.0727
 8908W        W51825  17.888  32.112   2.772  0.1026  0.2089 -0.3075
 8909W        W51826  17.981   1.690  31.744 -0.1167  0.0457  0.3462
 8910W        W51827  19.418   2.045   0.171  0.1798  0.3825 -0.1447
 8911W        W51828  20.219   2.040   1.749  0.0093  0.4105 -0.0105
 8912W        W51829  18.593   2.042   4.825  0.2855 -0.0106 -0.0575
 8913W        W51830  19.582  34.213   0.820 -0.1362 -0.1585  0.1120
 8914W        W51831  19.003   2.958   4.114  0.1185 -0.0401 -0.1571
 8915W        W51832  19.184   0.391   2.916 -0.4705 -0.0635 -0.2183
 8916W        W51833  17.382   1.400   6.867 -0.1426 -0.0096  0.0910
 8917W        W51834  19.316   1.721   3.947 -0.0853 -0.1634  0.0036
 8918W        W51835  20.507   1.674   4.048  0.1514  0.0942 -0.1952
 8919W        W51836  19.213   2.591   4.540  0.1394 -0.1781  0.1179
 8920W        W51837  16.863   0.550   3.688  0.2031 -0.0752 -0.1423
 8921W        W51838  19.925   3.653   2.047  0.0062  0.0492 -0.0419
 8922W        W51839  18.512   0.391   5.733  0.1944 -0.0375  0.2324
 8923W        W51840  21.740   3.712   5.716  0.0121  0.0264  0.1662
 8924W        W51841  20.935   4.386   6.617  0.0622  0.1071 -0.0027
 8925W        W51842  20.844   1.916   2.578  0.0472  0.1247  0.1302
 8926W        W51843  18.991   0.985   6.170  0.3224 -0.2843  0.1279
 8927W        W51844  19.764   3.123   5.200 -0.0008  0.0478 -0.2255
 8928W        W51845  19.057  33.656   3.962  0.0081 -0.1978 -0.0207
 8929W        W51846  20.240   0.273   5.092 -0.2032 -0.2041 -0.0256
 8930W        W51847  20.342   2.226   3.780 -0.0822 -0.0470  0.1038
 8931W        W51848  19.102   3.244   3.377 -0.3387 -0.2077  0.2144
 8932W        W51849  18.561   1.035   6.528 -0.0587  0.0577 -0.1112
 8933W        W51850  21.608  33.673   4.051 -0.0270  0.2974 -0.0365
 8934W        W51851  19.006   4.221   5.802 -0.1250  0.0137 -0.2092
 8935W        W51852  20.044  34.223   6.168 -0.0810 -0.0514  0.2600
 8936W        W51853  19.738   0.432   7.240  0.0519  0.2486 -0.0418
 8937W        W51854  17.613   4.375   3.396 -0.1316  0.1195  0.2114
 8938W        W51855  18.216  33.832   2.968  0.2334 -0.2352  0.2074
 8939W        W51856  18.982   0.004   4.934 -0.1394 -0.0924 -0.1601
 8940W        W51857  19.370   1.584   7.379  0.1260 -0.2655 -0.0261
 8941W        W51858  20.646   1.448   5.572  0.0004 -0.2776  0.2108
 8942W        W51859  21.587   1.201   4.510 -0.2548  0.0467 -0.0181
 8943W        W51860  21.118   4.698   3.888 -0.3170  0.1893 -0.1605
 8944W        W51861  19.485   4.458   4.965 -0.1416  0.1985 -0.2530
 8945W        W51862  21.717   1.794   5.112  0.0692 -0.1961  0.1351
 8946W        W51863  17.422   2.753   8.370 -0.0420  0.2898  0.1614
 8947W        W51864  18.305   3.161   6.395 -0.2683 -0.0195  0.0427
 8948W        W51865  19.700   4.156   2.213 -0.0042  0.0247 -0.2560
 8949W        W51866  20.152   4.011   3.154 -0.0848  0.1741 -0.1010
 8950W        W51867  20.870   3.959   4.562  0.0049 -0.2602 -0.0771
 8951W        W51868  20.709   3.583   7.373  0.0672  0.3327 -0.0087
 8952W        W51869  17.723   2.795   4.481  0.0812 -0.1056 -0.1483
 8953W        W51870  20.665   4.470   7.902 -0.1177 -0.2334 -0.3083
 8954W        W51871  20.334   1.396   6.279  0.0190  0.1468 -0.0345
 8955W        W51872  20.815   2.176   5.102  0.0482 -0.1939 -0.1122
 8956W        W51873  22.207   1.929   2.481 -0.3404 -0.0351  0.0901
 8957W        W51874  19.341   6.225   2.894 -0.2329 -0.0455 -0.0668
 8958W        W51875  19.710   1.316   4.419  0.3266 -0.1348 -0.4709
 8959W        W51876  20.015   1.996   6.101  0.0721 -0.0515  0.1748
 8960W        W51877  18.068   3.990   5.483 -0.0319 -0.2437 -0.1640
 8961W        W51878  22.208  34.065   7.669  0.0700 -0.2145 -0.0340
 8962W        W51879  19.002   1.345   3.688 -0.3332 -0.1012  0.0873
 8963W        W51880  22.426   0.927   3.401 -0.1046  0.1691  0.2606
 8964W        W51881  20.485   0.593   4.122 -0.1633 -0.1490 -0.0827
 8965W        W51882  21.846   0.928   2.596 -0.0283 -0.1076 -0.0546
 8966W        W51883  18.428   0.229   6.190 -0.2557 -0.2113  0.2031
 8967W        W51884  19.190   1.951   5.720 -0.2569  0.0880  0.2151
 8968W        W51885  20.384   1.729   5.886  0.3055 -0.5849  0.2112
 8969W        W51886  21.212   1.783   6.316  0.1110  0.5542 -0.0716
 8970W        W51887  18.965   1.089   5.127 -0.0766 -0.1146 -0.0721
 8971W        W51888  21.981   1.241   6.692 -0.2175 -0.0107 -0.0688
 8972W        W51889  20.021   3.555   7.998  0.0108  0.0186 -0.2661
 8973W        W51890  18.505   3.939   4.779  0.1566 -0.0918 -0.0253
 8974W        W51891  20.378   4.121   2.711 -0.1015 -0.0872  0.1782
 8975W        W51892  20.598   3.310   5.083  0.3628  0.1123  0.2388
 8976W        W51893  20.550   2.035   2.159 -0.0649  0.0927  0.1285
 8977W        W51894  18.405   1.561   5.052  0.1059  0.1150 -0.1745
 8978W        W51895  18.734   2.002   6.561  0.0865 -0.0647 -0.0284
 8979W        W51896  16.427   2.085   4.964 -0.1004 -0.0550 -0.2172
 8980W        W51897  19.451  32.464   4.137  0.3021 -0.1027  0.1299
 8981W        W51898  22.800   1.452   6.614 -0.3741  0.1687 -0.1682
 8982W        W51899  17.907   1.546   7.513 -0.1193 -0.2493  0.0444
 8983W        W51900  23.632   0.686   5.045  0.1551  0.0786  0.0755
 8984W        W51901  19.716   3.079   6.979  0.4131  0.2458 -0.1734
 8985W        W51902  20.778   4.354   6.141 -0.0661 -0.0457 -0.2296
 8986W        W51903  20.431   4.014   1.766  0.0119 -0.4125 -0.0786
 8987W        W51904  20.591  33.183   6.142  0.2008 -0.0261 -0.0508
 8988W        W51905  20.104   1.500   5.423  0.0811 -0.0667  0.1573
 8989W        W51906  18.707   0.218   4.393 -0.0012  0.1375 -0.2660
 8990W        W51907  21.358   1.037   3.646 -0.1565  0.3171 -0.0357
 8991W        W51908  18.933   2.399   6.964 -0.1730 -0.0454 -0.0522
 8992W        W51909  22.386   1.322   5.316  0.5751  0.2072  0.0060
 8993W        W51910  19.735   2.564   3.669 -0.0769  0.0552  0.1062
 8994W        W51911  18.573   1.134   7.189 -0.2242  0.1220 -0.0176
 8995W        W51912  20.389   4.167   6.785 -0.0329  0.3966 -0.1721
 8996W        W51913  17.044   3.523   4.253  0.1644  0.0372 -0.0008
 8997W        W51914  19.026   3.606   4.415  0.0968 -0.3069  0.3349
 8998W        W51915  17.643   0.284   4.240 -0.0117  0.0831 -0.0782
 8999W        W51916  19.310   1.030   5.557  0.3158 -0.1827  0.0712
 9000W        W51917  20.454   1.903   6.392  0.1166  0.1993 -0.0830
 9001W        W51918  21.437   0.293   2.872 -0.1321  0.2825  0.2362
 9002W        W51919  15.998   0.151   7.131  0.2154 -0.2079  0.2290
 9003W        W51920  21.211  34.486   4.226 -0.2197  0.0821  0.0267
 9004W        W51921  21.642   2.501   3.893  0.0963 -0.0324 -0.0440
 9005W        W51922  20.587   1.765   3.084  0.0757 -0.1845  0.2028
 9006W        W51923  19.941   5.367   2.529  0.1759 -0.0801 -0.0226
 9007W        W51924  17.333   1.392   5.319  0.1956  0.2855  0.3019
 9008W        W51925  19.522   1.668   4.729  0.1424  0.0905  0.0618
 9009W        W51926  17.427  34.536   8.456  0.1154  0.0045 -0.0123
 9010W        W51927  17.444   0.374   4.691  0.0602  0.1581  0.0229
 9011W        W51928  22.893   1.537   5.004 -0.1709 -0.1078 -0.1495
 9012W        W51929  17.898   0.665   4.576  0.1270  0.1711  0.4488
 9013W        W51930  20.938   0.391   1.335 -0.1255  0.2123 -0.2165
 9014W        W51931  19.006   2.735   5.334 -0.1884 -0.1015 -0.3039
 9015W        W51932  18.234   4.236   4.039  0.0847 -0.1662 -0.1287
 9016W        W51933  20.906   2.050   5.615  0.3642 -0.0296  0.2485
 9017W        W51934  21.249   5.207   6.039  0.0998  0.3338 -0.0544
 9018W        W51935  22.615   2.467   5.372  0.0793  0.3313  0.2793
 9019W        W51936  21.060   3.180   4.895 -0.1015 -0.1342 -0.0769
 9020W        W51937  18.884  34.617   6.427  0.2153 -0.4756  0.2363
 9021W        W51938  18.150   0.746   4.179 -0.2875 -0.1553  0.0790
 9022W        W51939  18.072   2.656   6.493  0.0246 -0.0930  0.3632
 9023W        W51940  19.829   4.283   7.516  0.2458 -0.1468  0.1408
 9024W        W51941  18.874  31.765   2.246 -0.0779 -0.5027  0.0721
 9025W        W51942  20.519   5.632   5.484  0.1941  0.3162 -0.2816
 9026W        W51943  18.816   1.854   3.804  0.3196  0.2156  0.0728
 9027W        W51944  18.118   3.132   7.916  0.1920  0.0419  0.1163
 9028W        W51945  20.079   0.099   7.390  0.4139 -0.1046 -0.2008
 9029W        W51946  21.167   2.398   5.453 -0.1356 -0.0512  0.2057
 9030W        W51947  21.101   1.153   4.146 -0.0722  0.1171  0.1672
 9031W        W51948  20.507  34.172   4.827  0.2547  0.1153  0.3572
 9032W        W51949  19.394   3.096   4.402  0.2828 -0.1914 -0.1873
 9033W        W51950  17.673   4.767   3.671  0.1351 -0.1098 -0.3041
 9034W        W51951  19.193   1.897   5.103 -0.1236  0.0470 -0.0117
 9035W        W51952  19.936   4.054   4.933  0.0941  0.0011 -0.4988
 9036W        W51953  22.308   1.035   4.433 -0.1221  0.0753  0.1155
 9037W        W51954  17.950   2.651   8.362 -0.0957  0.0510  0.1413
 9038W        W51955  20.719   1.540   6.646 -0.1090  0.0303 -0.2545
 9039W        W51956  17.369   1.912   5.211 -0.0441 -0.0588 -0.2083
 9040W        W51957  20.449   3.206   7.008 -0.0378 -0.1459  0.2118
 9041W        W51958  20.184  33.927   5.181 -0.1443 -0.1797 -0.1187
 9042W        W51959  22.712  34.603   3.487 -0.2920  0.0234  0.0917
 9043W        W51960  20.869   2.467   6.745 -0.0775  0.0967 -0.0720
 9044W        W51961  20.101   0.867   4.327 -0.1225 -0.0647  0.1395
 9045W        W51962  20.034  32.945   4.467 -0.2104  0.0020  0.2101
 9046W        W51963  20.796   0.134   4.126  0.1973 -0.0195 -0.0036
 9047W        W51964  19.041   0.993   7.299 -0.0793 -0.2791  0.2344
 9048W        W51965  19.112   2.418   3.638  0.3553 -0.2131 -0.0226
 9049W        W51966  20.833   2.497   5.843 -0.1226 -0.0377 -0.1795
 9050W        W51967  21.412  34.491   3.443 -0.1806  0.1244  0.0468
 9051W        W51968  22.971   6.457   4.018  0.1446  0.1286  0.3790
 9052W        W51969  17.697   1.185   5.547  0.0526 -0.1215 -0.0800
 9053W        W51970  21.527   1.445   5.364 -0.1110  0.0951 -0.2004
 9054W        W51971  20.845   4.372   4.346 -0.0127  0.2015 -0.0419
 9055W        W51972  18.944  33.702   5.466 -0.4487  0.3493 -0.5169
 9056W        W51973  19.248  34.632   3.176 -0.0707 -0.1260  0.2282
 9057W        W51974  19.472   1.385   5.154  0.0264  0.2642 -0.1409
 9058W        W51975  18.803   2.062   5.388 -0.0892 -0.2132 -0.3831
 9059W        W51976  22.444   1.176   6.288  0.1036  0.1603 -0.0979
 9060W        W51977  21.170   0.201   5.188 -0.0070  0.0324 -0.1914
 9061W        W51978  20.303   2.294   5.102 -0.1698  0.1076 -0.0955
 9062W        W51979  19.850   2.573   6.863  0.1924  0.0505 -0.2211
 9063W        W51980  21.691   0.254   3.334 -0.2900  0.2386 -0.3619
 9064W        W51981  20.531   1.816   5.226 -0.1157 -0.2474 -0.2294
 9065W        W51982  20.389   0.916   3.289 -0.0037 -0.2277 -0.1161
 9066W        W51983  21.635  34.388   5.158 -0.0919  0.0789 -0.1344
 9067W        W51984  19.298  34.144   5.657 -0.1409 -0.0169 -0.0765
 9068W        W51985  18.291   2.043   5.249 -0.0708  0.0777 -0.1329
 9069W        W51986  22.427   3.516   4.933 -0.4649  0.2120  0.0245
 9070W        W51987  20.880   2.922   3.941  0.1181 -0.0531  0.0185
 9071W        W51988  19.829   1.571   6.367 -0.0411  0.1954 -0.0335
 9072W        W51989  19.095  34.145   3.954  0.0607 -0.2290 -0.2642
 9073W        W51990  17.729   5.140   4.165 -0.1782 -0.0241  0.1069
 9074W        W51991  19.649   4.628   2.950  0.0372  0.4222  0.2068
 9075W        W51992  21.274  33.720   5.774 -0.0830 -0.0285 -0.2123
 9076W        W51993  20.841   3.431   5.503 -0.3750 -0.3113 -0.3194
 9077W        W51994  18.246   4.341   2.959  0.4735  0.1266 -0.3456
 9078W        W51995  21.662   0.947   5.639 -0.1103  0.1567  0.3475
 9079W        W51996  18.437   1.536   4.512 -0.1137  0.0779 -0.1229
 9080W        W51997  21.795   0.260   4.619  0.3298 -0.0518 -0.0508
 9081W        W51998  20.353   3.584   2.925 -0.1531 -0.2794  0.3647
 9082W        W51999  17.797  33.948   2.691 -0.2381  0.0451 -0.1055
 9083W        W52000  18.920   0.525   4.777  0.3265  0.1327 -0.1439
 9084W        W52001  20.669  34.492   5.533 -0.0232 -0.0651 -0.1545
 9085W        W52002  22.153   3.134   3.891  0.1014 -0.0001  0.2642
 9086W        W52003  19.375   0.324   5.110 -0.0477 -0.0569  0.0524
 9087W        W52004  19.978   2.285   4.655 -0.1497  0.0539  0.1627
 9088W        W52005  17.604   2.156   5.667  0.0213 -0.0758 -0.1586
 9089W        W52006  20.934   2.003   6.694 -0.0625 -0.0105  0.2094
 9090W        W52007  20.978   1.586   3.867 -0.1829  0.0118 -0.1018
 9091W        W52008  21.557   3.897   4.845  0.1211  0.1306  0.1440
 9092W        W52009  22.906  34.631   7.028  0.0251  0.1329  0.0373
 9093W        W52010  17.185   1.913   4.641 -0.0574  0.1991 -0.2088
 9094W        W52011  21.818   1.679   4.396  0.1674 -0.1131  0.2487
 9095W        W52012  18.219   0.585   6.467 -0.0684 -0.1375  0.0366
 9096W        W52013  18.629   3.401   6.051  0.0251 -0.2688 -0.1517
 9097W        W52014  19.724   3.582   6.993 -0.2647 -0.0005  0.1363
 9098W        W52015  19.719   0.586   3.594  0.0045  0.0186 -0.0211
 9099W        W52016  18.315   0.865   5.635  0.0075 -0.0337  0.0173
 9100W        W52017  18.061   2.403   5.490  0.1054 -0.1774  0.1964
 9101W        W52018  21.637   2.602   6.144  0.0359  0.0112 -0.0551
 9102W        W52019  20.712   1.112   6.009 -0.0212 -0.0562  0.2496
 9103W        W52020  19.900   2.389   4.105  0.1383  0.3052  0.1212
 9104W        W52021  20.748   0.981   5.487  0.0814  0.0491  0.0977
 9105W        W52022  20.001   3.090   5.650 -0.1036 -0.0399 -0.0853
 9106W        W52023  18.849   0.789   5.767  0.0369  0.0073 -0.3177
 9107W        W52024  18.878   2.450   7.518 -0.0690 -0.0424  0.0375
 9108W        W52025  18.369   0.586   4.813  0.0645 -0.1066 -0.0703
 9109W        W52026  22.811   3.850   4.057  0.1832  0.0661  0.0136
 9110W        W52027  20.967   2.171   7.176 -0.0959 -0.0022 -0.1260
 9111W        W52028  20.095   0.335   4.540  0.1544  0.1221 -0.1344
 9112W        W52029  18.474   0.771   6.095 -0.2649 -0.2262  0.1714
 9113W        W52030  19.682   3.438   3.965 -0.0561 -0.2741 -0.1393
 9114W        W52031  21.263   0.334   6.230  0.1895 -0.1178 -0.0981
 9115W        W52032  19.561   2.719   5.435 -0.0041  0.1385 -0.0004
 9116W        W52033  18.978   2.436   4.906 -0.1497  0.1141 -0.1773
 9117W        W52034  18.414   1.457   6.856 -0.0269 -0.0192 -0.0505
 9118W        W52035  19.296  33.651   3.567  0.3885  0.2841  0.2068
 9119W        W52036  19.331   3.558   3.082  0.1278 -0.0425 -0.3786
 9120W        W52037  20.565  33.695   4.982 -0.2361  0.4209 -0.1862
 9121W        W52038  23.601  34.309   5.912 -0.1202 -0.0215 -0.2328
 9122W        W52039  20.860   1.660   4.858  0.0120  0.0286 -0.2727
 9123W        W52040  21.264   1.325   6.722 -0.0005 -0.2184  0.1404
 9124W        W52041  20.041  33.413   5.056 -0.2955  0.0436  0.2210
 9125W        W52042  20.242   3.083   6.078  0.2590 -0.0123  0.0088
 9126W        W52043  18.312   0.382   5.286 -0.0893  0.1518  0.0179
 9127W        W52044  19.847   3.762   7.533 -0.1231 -0.0939 -0.0451
 9128W        W52045  19.332   1.205   7.730 -0.1738 -0.0086  0.2282
 9129W        W52046  19.314  34.595   3.783 -0.2054 -0.0774  0.1619
 9130W        W52047  19.596   1.117   3.525 -0.1050 -0.2550  0.2951
 9131W        W52048  20.897   3.453   6.305 -0.0331  0.0690 -0.0755
 9132W        W52049  22.214   2.138   6.217 -0.1005  0.1329  0.1533
 9133W        W52050  19.935   1.747   4.493 -0.1309 -0.1001 -0.2066
 9134W        W52051  22.279   1.794   4.555 -0.0590  0.1049  0.1257
 9135W        W52052  18.421   0.655   6.918  0.1584  0.1186  0.4107
 9136W        W52053  18.535   4.087   3.566 -0.0495  0.0775 -0.0290
 9137W        W52054  19.623   4.145   3.169  0.1920  0.0547  0.3599
 9138W        W52055  20.471   2.692   6.831  0.2725 -0.0999 -0.0419
 9139W        W52056  19.225  33.388   6.868  0.1579 -0.0184  0.1698
 9140W        W52057  21.334   1.894   3.961 -0.0750 -0.2181  0.1419
 9141W        W52058  20.335  34.223   4.365  0.1208  0.1845  0.0844
 9142W        W52059  21.618   1.355   5.886 -0.1547 -0.0921 -0.0394
 9143W        W52060  20.729  34.014   6.542  0.2374  0.0865 -0.3215
 9144W        W52061  17.217   1.416   8.547 -0.4224 -0.0306 -0.0267
 9145W        W52062  17.184  34.617   6.359  0.1122  0.0253 -0.0544
 9146W        W52063  19.892   3.796   5.397  0.0289 -0.1092  0.1555
 9147W        W52064  23.413   0.242   4.715  0.0704 -0.2769 -0.1587
 9148W        W52065  20.668   0.848   5.033  0.2428 -0.1649 -0.2736
 9149W        W52066  22.950   2.545   4.215  0.1700  0.2293  0.1244
 9150W        W52067  19.945   2.144   3.465  0.1804  0.3056  0.1100
 9151W        W52068  19.984   1.426   4.983 -0.3009  0.3371  0.2396
 9152W        W52069  20.904   1.823   7.594  0.1785 -0.0085  0.1013
 9153W        W52070  19.421  32.905   3.765  0.2349 -0.1322 -0.1012
 9154W        W52071  19.803   1.093   5.357 -0.3285  0.3873 -0.0187
 9155W        W52072  19.395   4.315   2.676 -0.0376 -0.2102 -0.0276
 9156W        W52073  21.285   3.333   5.768  0.1127  0.2343  0.0411
 9157W        W52074  19.824   0.580   5.070  0.0231  0.1431 -0.0765
 9158W        W52075  18.465   1.062   5.057 -0.1613  0.1591  0.1579
 9159W        W52076  18.464   2.228   5.716  0.0030 -0.0047 -0.1433
 9160W        W52077  18.438  34.571   3.468  0.0289  0.2156 -0.2593
 9161W        W52078  21.078   2.655   3.183 -0.0173  0.2334 -0.1545
 9162W        W52079  19.113   3.492   5.692 -0.0734  0.0532 -0.2913
 9163W        W52080  20.666   3.100   6.553  0.0687 -0.0030 -0.0900
 9164W        W52081  20.002   0.490   4.012 -0.0442 -0.0539  0.0732
 9165W        W52082  21.130   1.456   7.974 -0.3281  0.2068  0.0727
 9166W        W52083  18.518   3.298   4.192 -0.2040 -0.0749 -0.0300
 9167W        W52084  19.000   1.565   5.395 -0.1362  0.1347 -0.0529
 9168W        W52085  19.562   1.860   5.420 -0.0962 -0.0788 -0.1163
 9169W        W52086  20.180   2.019   5.540 -0.0335 -0.3356  0.1218
 9170W        W52087  18.357   4.704   4.379  0.0330 -0.1560 -0.0127
 9171W        W52088  20.438  34.395   6.472 -0.0400  0.3047 -0.1872
 9172W        W52089  20.322   2.644   4.088  0.3725  0.2914  0.0031
 9173W        W52090  19.451   3.824   5.155  0.1762  0.3960  0.2021
 9174W        W52091  21.917   2.121   4.757  0.0722 -0.0924 -0.3415
 9175W        W52092  21.649   2.595   7.331 -0.2500  0.1847  0.0452
 9176W        W52093  18.170   1.322   5.477  0.0134  0.0994  0.2415
 9177W        W52094  20.383   4.781   5.123 -0.3165  0.1023 -0.0438
 9178W        W52095  21.119   2.161   3.413  0.0536 -0.0318  0.0753
 9179W        W52096  19.719   2.684   4.488 -0.1271 -0.1575 -0.1208
 9180W        W52097  18.529  34.181   7.133 -0.3511 -0.0931  0.0944
 9181W        W52098  20.056   3.289   6.690  0.0271 -0.3123  0.1904
 9182W        W52099  20.131   4.744   3.906 -0.0281  0.1548 -0.0847
 9183W        W52100  19.271  33.322   5.587  0.0720  0.0639 -0.0351
 9184W        W52101  18.609   3.892   3.032  0.0224 -0.4293 -0.1354
 9185W        W52102  18.917   5.167   7.728 -0.2209  0.1402  0.0545
 9186W        W52103  18.188   3.014   6.849  0.2193 -0.1320  0.1159
 9187W        W52104  18.510   4.162   5.719  0.1092 -0.1680  0.3075
 9188W        W52105  20.363   1.291   2.937  0.1511  0.1478  0.2744
 9189W        W52106  18.090   2.341   3.950  0.4844 -0.1398 -0.0067
 9190W        W52107  19.389   3.818   4.174 -0.2020 -0.2300  0.2150
 9191W        W52108  19.128   1.615   4.402 -0.0385 -0.2308 -0.0881
 9192W        W52109  19.844   3.640   4.421 -0.1335  0.1892 -0.0015
 9193W        W52110  16.834   1.077   4.708 -0.2721 -0.3441 -0.0638
 9194W        W52111  20.217   3.422   4.031 -0.0510  0.2714 -0.0553
 9195W        W52112  18.890   4.787   4.418 -0.0732  0.1605 -0.0229
 9196W        W52113  19.792   3.316   6.143 -0.1845 -0.0045 -0.2260
 9197W        W52114  22.298   3.185   3.406  0.0980  0.0480 -0.1555
 9198W        W52115  21.776   3.109   3.542  0.0232 -0.0904  0.1209
 9199W        W52116  21.981   1.812   5.847  0.0793  0.1734  0.1753
 9200W        W52117  20.108   2.238   6.536  0.2118  0.0981  0.0835
 9201W        W52118  17.812   0.396   5.545 -0.0124  0.0476  0.5051
 9202W        W52119  20.051   1.297   4.081 -0.1254  0.0771 -0.0632
 9203W        W52120  19.702   0.930   7.915  0.1019  0.1485 -0.3073
 9204W        W52121  22.684  34.363   7.373  0.2424 -0.3166 -0.2085
 9205W        W52122  16.638   4.896   6.431  0.0872 -0.1500 -0.1120
 9206W        W52123  20.469   3.683   3.651  0.3228  0.0213  0.4262
 9207W        W52124  18.667   2.424   4.506 -0.0786 -0.3118  0.1263
 9208W        W52125  19.641   2.866   5.949 -0.3247  0.0467  0.3178
 9209W        W52126  23.467   0.263   5.725 -0.1206 -0.0175 -0.1428
 9210W        W52127  19.590   0.683   3.106 -0.1775  0.0745  0.1226
 9211W        W52128  19.269   1.185   4.675 -0.4629 -0.0649  0.4452
 9212W        W52129  19.833   4.006   3.599  0.0431  0.0725 -0.0789
 9213W        W52130  19.948   3.865   6.534  0.1563  0.1763  0.0351
 9214W        W52131  20.270   5.114   6.461 -0.1761 -0.3175 -0.0195
 9215W        W52132  19.274   0.864   3.809 -0.0286 -0.0463 -0.3004
 9216W        W52133  21.924   1.485   4.846  0.0870  0.1445 -0.3418
 9217W        W52134  19.541   2.361   5.811 -0.2515  0.3209  0.1595
 9218W        W52135  21.245  34.146   6.122 -0.1140 -0.1309  0.0188
 9219W        W52136  16.555   0.145   5.863  0.4805 -0.0057  0.4644
 9220W        W52137  20.547  34.458   3.754 -0.0614 -0.2660 -0.0938
 9221W        W52138  19.910   1.405   5.904  0.3276  0.0014 -0.0203
 9222W        W52139  18.927   0.285   5.976  0.1910 -0.0416  0.1084
 9223W        W52140  20.576   0.915   4.553  0.0579  0.0269 -0.1340
 9224W        W52141  20.404   2.230   5.975  0.0326 -0.1612  0.0258
 9225W        W52142  22.132   1.290   3.096 -0.3661  0.4532 -0.1795
 9226W        W52143  21.507   2.246   5.109 -0.0733 -0.0178 -0.0735
 9227W        W52144  20.230   1.326   4.565 -0.1644 -0.0954  0.2399
 9228W        W52145  18.571  33.538   3.938 -0.3659 -0.1873 -0.0723
 9229W        W52146  17.799   1.661   5.260 -0.4181 -0.2677  0.1338
 9230W        W52147  20.016   2.522   5.737 -0.1013  0.0148 -0.1469
 9231W        W52148  22.489   4.388   8.036 -0.0547  0.2393  0.2648
 9232W        W52149  19.223   1.753   2.868 -0.0172 -0.1493  0.0566
 9233W        W52150  21.988   2.817   3.162  0.3164 -0.1569 -0.2011
 9234W        W52151  22.456  34.653   5.274  0.1409 -0.0320  0.1348
 9235W        W52152  19.287   3.892   1.644  0.1099 -0.2338 -0.0328
 9236W        W52153  20.650   1.068   3.880 -0.0726 -0.1964  0.3066
 9237W        W52154  20.327   4.317   4.250 -0.0316  0.0296  0.2515
 9238W        W52155  17.147  34.642   4.537  0.0323 -0.1689  0.0631
 9239W        W52156  20.783   3.395   4.543  0.0762 -0.2206  0.1781
 9240W        W52157  21.253   5.325   6.608  0.0176 -0.0333 -0.3102
 9241W        W52158  20.740   0.591   6.323 -0.2660 -0.3115 -0.1929
 9242W        W52159  19.113   0.537   5.479 -0.3115  0.2404  0.0589
 9243W        W52160  19.225   2.749   6.143 -0.0519  0.0747 -0.1291
 9244W        W52161  20.251   0.687   5.355 -0.0795  0.4012  0.1815
 9245W        W52162  19.804   2.304   5.368 -0.3435 -0.2029 -0.1230
 9246W        W52163  19.806   3.685   3.120  0.0488 -0.0029 -0.0555
 9247W        W52164  19.404  33.328   4.024 -0.0204  0.3432 -0.2106
 9248W        W52165  19.143   3.100   6.976  0.1993  0.1453  0.3227
 9249W        W52166  19.503   4.058   7.238 -0.0041 -0.1453  0.0411
 9250W        W52167  18.313   1.716   3.984  0.0326 -0.5076  0.3470
 9251W        W52168  19.938   1.921   5.045  0.2241  0.0420 -0.3017
 9252W        W52169  19.859   3.148   4.639  0.0240  0.0087  0.2764
 9253W        W52170  18.100   4.494   3.589  0.3715  0.2933  0.0922
 9254W        W52171  21.221   1.837   5.219 -0.1576  0.2931  0.0270
 9255W        W52172  20.723   2.503   2.681  0.2541 -0.0363  0.2322
 9256W        W52173  21.127   3.713   4.153 -0.1702  0.2035 -0.2623
 9257W        W52174  21.095   0.599   4.915 -0.0084 -0.1904 -0.1267
 9258W        W52175  22.037  33.582   3.059  0.1483  0.0284 -0.2833
 9259W        W52176  21.577   0.544   3.743 -0.2994  0.3308 -0.0059
 9260W        W52177  19.782   0.628   6.326  0.2962  0.1291  0.0173
 9261W        W52178  17.101   2.999   5.477 -0.0813  0.0046 -0.2214
 9262W        W52179  18.295   3.087   5.201  0.0791  0.2080 -0.0490
 9263W        W52180  22.005   3.298   6.807  0.0248  0.0671 -0.1650
 9264W        W52181  19.628   1.630   6.889 -0.2948 -0.4005 -0.3585
 9265W        W52182  17.888  34.613   7.129 -0.1263 -0.1215  0.0671
 9266W        W52183  18.916   1.322   6.762 -0.3301 -0.0108 -0.1980
 9267W        W52184  19.398   0.845   5.044  0.2569  0.0694  0.0891
 9268W        W52185  21.609   3.025   4.082 -0.0752 -0.1594 -0.1168
 9269W        W52186  19.298   1.253   4.097  0.0820 -0.3539 -0.1574
 9270W        W52187  18.287   0.823   3.180 -0.1277  0.3057  0.1717
 9271W        W52188  19.384   3.767   3.600  0.3145  0.2462  0.0470
 9272W        W52189  20.521   2.292   4.702  0.4257  0.1442  0.2844
 9273W        W52190  21.875   2.688   2.093  0.0909 -0.2312  0.0142
 9274W        W52191  22.839   3.631   5.275  0.2338  0.0803  0.1901
 9275W        W52192  18.766   0.970   3.945 -0.0875  0.2708 -0.1105
 9276W        W52193  20.259   0.575   6.510  0.0422  0.4711 -0.0325
 9277W        W52194  20.831  33.923   8.633  0.2398 -0.1432  0.0931
 9278W        W52195  20.784   1.263   3.376 -0.1675 -0.0947  0.2117
 9279W        W52196  18.766   1.516   6.354  0.3688 -0.0505  0.2135
 9280W        W52197  19.881   4.498   3.515  0.4110 -0.1903 -0.3556
 9281W        W52198  19.344   5.674   3.591  0.2513  0.1886  0.0409
 9282W        W52199  21.195   0.781   6.515  0.1584 -0.3115 -0.0597
 9283W        W52200  18.930   3.223   6.476 -0.2319 -0.1967 -0.0225
 9284W        W52201  16.191  34.133   6.274  0.0432 -0.1684 -0.0761
 9285W        W52202  19.967   3.531   3.591  0.1493  0.1370  0.0643
 9286W        W52203  17.743   2.805   7.949 -0.0635 -0.0263 -0.1832
 9287W        W52204  23.049   2.304   3.747 -0.0104  0.0586 -0.0310
 9288W        W52205  21.722   2.986   5.849  0.0681 -0.1662  0.1658
 9289W        W52206  20.182   2.574   3.432  0.1081  0.0787 -0.0393
 9290W        W52207  21.135  33.049   8.128  0.0181 -0.0189  0.1891
 9291W        W52208  18.112   1.055   6.726  0.2353  0.0281 -0.2504
 9292W        W52209  19.890   2.649   4.999  0.0824 -0.1238 -0.1302
 9293W        W52210  20.782  34.069   4.060  0.1261  0.0624  0.2091
 9294W        W52211  20.640   0.382   4.663 -0.0239 -0.2802 -0.0690
 9295W        W52212  21.027   4.324   4.923 -0.0704  0.0163  0.0316
 9296W        W52213  20.680   2.720   5.007 -0.3078 -0.0056 -0.0572
 9297W        W52214  20.297   1.086   5.699 -0.3027 -0.5600 -0.0410
 9298W        W52215  20.236   4.179   6.242 -0.2314 -0.1908 -0.0659
 9299W        W52216  20.833   1.596   6.055 -0.2835  0.1835 -0.2386
 9300W        W52217  19.632   0.817   4.555 -0.1904 -0.1940 -0.0779
 9301W        W52218  23.540   1.568   6.094 -0.1299 -0.1051 -0.1153
 9302W        W52219  19.458   3.927   5.666  0.3698 -0.0991  0.0958
 9303W        W52220  21.415   2.392   6.942 -0.1836 -0.0331 -0.0504
 9304W        W52221  18.322   4.411   7.980 -0.2142  0.1861 -0.1560
 9305W        W52222  20.249   3.877   4.582  0.1240  0.0352 -0.0284
 9306W        W52223  18.246  33.135   6.625  0.0892 -0.0388 -0.0188
 9307W        W52224  20.378   1.807   4.762  0.4143 -0.2225  0.1779
 9308W        W52225  21.607   2.495   5.657 -0.0590  0.0556  0.1598
 9309W        W52226  20.128   0.931   4.899 -0.0416 -0.0553 -0.0090
 9310W        W52227  18.282   1.041   4.597  0.0969  0.0417  0.0117
 9311W        W52228  21.464   0.685   4.585 -0.0046 -0.2848 -0.0514
 9312W        W52229  20.269   2.850   5.278  0.2046 -0.0436 -0.2983
 9313W        W52230  21.231   1.696   5.742  0.0332  0.2380  0.1113
 9314W        W52231  19.718  33.603   9.296  0.1972 -0.3755  0.0036
 9315W        W52232  21.732   1.410   8.037  0.2728 -0.0214 -0.1291
 9316W        W52233  21.570   0.962   6.800  0.0180 -0.1028  0.1004
 9317W        W52234  21.190   1.230   5.664 -0.0762 -0.0142 -0.2137
 9318W        W52235  17.451   1.352   7.629  0.1778  0.2532  0.1914
 9319W        W52236  21.020   2.679   6.272 -0.0075  0.1773 -0.0635
 9320W        W52237  20.429   2.561   9.067 -0.0482 -0.2549 -0.0320
 9321W        W52238  20.694   3.451   8.715  0.2031  0.1273 -0.2029
 9322W        W52239  21.215   3.940   6.738  0.1519  0.3203  0.2381
 9323W        W52240  19.388   0.134   7.499 -0.0566 -0.0896  0.0573
 9324W        W52241  19.710  31.448   9.482  0.0104 -0.0521  0.1491
 9325W        W52242  19.649  34.084   9.018 -0.0495  0.0634  0.4872
 9326W        W52243  19.364  34.256   7.000  0.2495  0.0979 -0.1889
 9327W        W52244  20.072   2.218   8.349  0.1756 -0.1740  0.0760
 9328W        W52245  21.995   0.252  12.577 -0.3352  0.1626  0.1600
 9329W        W52246  19.254   2.605   8.306 -0.0380 -0.0492  0.3021
 9330W        W52247  19.640   2.910   7.517 -0.3978 -0.2085 -0.0146
 9331W        W52248  20.918  33.554   7.921 -0.4552  0.1409 -0.2552
 9332W        W52249  19.742   1.932   8.697  0.0317  0.1416  0.1369
 9333W        W52250  18.602   2.448   6.230  0.2440 -0.1715 -0.2972
 9334W        W52251  17.040   1.286   8.057 -0.1305 -0.1702  0.2121
 9335W        W52252  19.965   1.861   9.220  0.1028  0.3837 -0.2565
 9336W        W52253  21.640  30.902   8.506 -0.0338  0.0070 -0.0214
 9337W        W52254  21.103   1.621   8.660  0.0680  0.0674 -0.0479
 9338W        W52255  19.598   3.130   9.293 -0.0253 -0.0115  0.2580
 9339W        W52256  17.820   3.425  10.061 -0.1764 -0.2165 -0.3689
 9340W        W52257  18.239   4.303   8.519  0.2480  0.3006 -0.0120
 9341W        W52258  18.436   4.950   7.787 -0.2802 -0.0310  0.1349
 9342W        W52259  19.440   3.363   7.326  0.1738  0.2022 -0.2359
 9343W        W52260  19.221   2.231   8.689  0.3252 -0.4041 -0.0874
 9344W        W52261  19.241   1.572   6.395 -0.2462  0.3093  0.0236
 9345W        W52262  18.695   1.873   8.445 -0.0279  0.4878 -0.2478
 9346W        W52263  18.900   2.984   8.157  0.1888  0.0565 -0.0761
 9347W        W52264  19.118   3.025   8.666 -0.0743  0.1558  0.0461
 9348W        W52265  20.011   0.223   8.284 -0.5043  0.3405 -0.3836
 9349W        W52266  18.015   5.017   9.124 -0.2360 -0.2840  0.1495
 9350W        W52267  19.393   2.634   7.160 -0.1652 -0.3090 -0.2111
 9351W        W52268  21.197   1.257   6.198  0.4234  0.0384 -0.0863
 9352W        W52269  19.204   0.070   7.059  0.1244 -0.0213  0.0257
 9353W        W52270  21.443   1.823   6.745 -0.1233  0.0269 -0.2111
 9354W        W52271  18.698   2.012   9.225  0.0125 -0.4064 -0.3614
 9355W        W52272  16.607   4.677   8.391 -0.3274  0.3354  0.0020
 9356W        W52273  20.407  33.519   8.756  0.0510 -0.0516 -0.0548
 9357W        W52274  20.317   1.342   7.387 -0.3462 -0.1522  0.1122
 9358W        W52275  19.648   2.855   9.779  0.1652 -0.1028  0.0825
 9359W        W52276  18.426   4.609   9.149 -0.0231 -0.4144 -0.4085
 9360W        W52277  18.581   2.498   9.203  0.2149 -0.1270 -0.2688
 9361W        W52278  22.131   1.192   7.721  0.3905  0.4095 -0.1652
 9362W        W52279  18.839   3.419   9.616 -0.1510 -0.5627 -0.6724
 9363W        W52280  19.366   2.939   7.918 -0.2488 -0.0638 -0.4011
 9364W        W52281  18.982   1.880   7.574  0.1874 -0.0183 -0.0551
 9365W        W52282  19.502   1.814   6.062  0.0220 -0.1628 -0.2225
 9366W        W52283  21.068   0.812   5.956  0.2669 -0.3933  0.0617
 9367W        W52284  20.297   3.084  10.014 -0.1897 -0.0916 -0.1993
 9368W        W52285  19.644   2.047   8.127 -0.2025  0.0247  0.0320
 9369W        W52286  18.424   3.803   6.982  0.0699 -0.2703  0.1082
 9370W        W52287  21.535   1.702   8.401  0.0175 -0.2719 -0.2961
 9371W        W52288  19.054   1.692   9.500 -0.0785 -0.1980  0.0810
 9372W        W52289  19.445   1.195   6.145  0.2394 -0.3297 -0.1050
 9373W        W52290  19.481   1.725   9.085  0.1790 -0.1617  0.0941
 9374W        W52291  18.707   4.332   8.817  0.1324 -0.0335 -0.1107
 9375W        W52292  20.363   2.554   7.627 -0.1845  0.1512  0.1723
 9376W        W52293  21.180   3.478   8.980 -0.0956  0.0196 -0.0235
 9377W        W52294  18.494   3.547   7.584  0.3126 -0.0410 -0.1051
 9378W        W52295  18.382   2.934   8.414 -0.3130 -0.2728  0.2592
 9379W        W52296  20.164   1.722   7.670 -0.1296 -0.0423 -0.5266
 9380W        W52297  18.760   0.847   9.432  0.2881 -0.1777 -0.3040
 9381W        W52298  21.045   3.023   8.802 -0.3478 -0.0413  0.2674
 9382W        W52299  20.927   1.290   7.506 -0.0072 -0.2279 -0.3504
 9383W        W52300  21.826   2.602   8.236  0.3166  0.2450  0.0458
 9384W        W52301  19.319   2.089   7.230 -0.1165 -0.3748  0.0552
 9385W        W52302  23.301   4.179   7.584  0.0298 -0.0056  0.2260
 9386W        W52303  20.482   2.353   8.561 -0.1046  0.3232 -0.0851
 9387W        W52304  20.124   2.948   7.267  0.1712 -0.0406  0.0939
 9388W        W52305  17.886   4.162   9.386  0.0504  0.1894 -0.2155
 9389W        W52306  16.851   0.565   8.680  0.4476 -0.1199 -0.0812
 9390W        W52307  16.769   1.630   7.795  0.5645 -0.0917  0.4183
 9391W        W52308  18.065   0.313   6.851  0.2119  0.0672  0.0723
 9392W        W52309  20.101  34.434   8.396 -0.1476 -0.1581  0.3418
 9393W        W52310  19.795   0.909   8.760  0.4356 -0.0055  0.0379
 9394W        W52311  16.458   2.582   7.924 -0.2457  0.2910  0.1264
 9395W        W52312  21.151   2.768   7.097 -0.1260  0.3808 -0.2472
 9396W        W52313  17.644   2.388   8.735  0.1797  0.0744 -0.0639
 9397W        W52314  22.621   2.611   7.439  0.0372 -0.2590 -0.1355
 9398W        W52315  19.853  30.488   7.641 -0.1044 -0.1068  0.1523
 9399W        W52316  16.580   0.186   7.528 -0.0634 -0.0906  0.4234
 9400W        W52317  18.947   2.718   9.501  0.0519 -0.2632 -0.1124
 9401W        W52318  19.476   3.756   9.597 -0.0914  0.1588  0.2075
 9402W        W52319  17.733   0.571   7.634  0.0346  0.1047  0.1680
 9403W        W52320  19.346   6.767   8.475  0.1062  0.1030  0.0378
 9404W        W52321  19.098   2.751   6.605  0.0516 -0.2532 -0.1275
 9405W        W52322  21.830   2.732   9.049 -0.1370 -0.0677 -0.2039
 9406W        W52323  22.032  34.537   7.724 -0.1019 -0.1813 -0.2603
 9407W        W52324  21.192  33.579   4.964 -0.2280  0.0086 -0.1501
 9408W        W52325  21.677   4.044   8.051 -0.0640  0.1064  0.1217
 9409W        W52326  18.664   3.410   9.012  0.0578 -0.0763  0.0021
 9410W        W52327  18.631   1.301   9.164  0.0609 -0.1263  0.0960
 9411W        W52328  19.360   4.126   9.137 -0.4623 -0.2226  0.0275
 9412W        W52329  22.898   2.980   9.643 -0.0679  0.0357 -0.1188
 9413W        W52330  18.301   1.852   6.065  0.0374 -0.2627 -0.1361
 9414W        W52331  20.844  34.335   7.845  0.1332 -0.1961  0.0132
 9415W        W52332  21.717   0.674   7.795 -0.2600 -0.0143 -0.5542
 9416W        W52333  23.112   3.467   7.052 -0.0204 -0.0488 -0.2785
 9417W        W52334  20.705   2.578   7.284  0.2881 -0.1906  0.1837
 9418W        W52335  19.561   0.183   8.539  0.1225 -0.0085 -0.0738
 9419W        W52336  19.723   1.432   8.040 -0.0777  0.1584  0.1226
 9420W        W52337  19.113   2.987   7.489 -0.0714 -0.1759  0.1369
 9421W        W52338  19.998   0.273   6.826 -0.0311 -0.2282  0.2173
 9422W        W52339  20.923   4.494   8.377  0.0726 -0.1546  0.0986
 9423W        W52340  16.164   2.665   9.803 -0.2975 -0.0525 -0.3350
 9424W        W52341  23.376   2.669   9.952  0.0743 -0.1407 -0.1290
 9425W        W52342  22.472  32.392   9.546 -0.0088 -0.1414 -0.2034
 9426W        W52343  18.774   0.563   6.416  0.1149  0.2881  0.0237
 9427W        W52344  20.140   1.732   8.237  0.1679  0.0119 -0.1402
 9428W        W52345  17.486   3.446   6.767 -0.2373  0.3144 -0.1881
 9429W        W52346  18.093   4.331  12.052 -0.0257 -0.0780 -0.0388
 9430W        W52347  19.566   0.285   9.831  0.0291  0.1292 -0.0052
 9431W        W52348  21.779   0.396   6.313  0.2198 -0.1798  0.0708
 9432W        W52349  21.290   1.157   7.189 -0.1459  0.6645  0.0111
 9433W        W52350  17.794   1.047   7.752  0.1065  0.0982 -0.1076
 9434W        W52351  17.208   3.140   8.506 -0.2178 -0.0025  0.1288
 9435W        W52352  17.851   0.786   9.183  0.1965  0.4045 -0.0235
 9436W        W52353  21.922   2.812   7.728  0.1360  0.0566  0.0682
 9437W        W52354  20.611   1.464   7.853  0.0577  0.0039 -0.3224
 9438W        W52355  19.172   3.779   7.530 -0.2560  0.0176  0.0142
 9439W        W52356  20.209   3.394   7.467 -0.0979 -0.0047 -0.3826
 9440W        W52357  22.041   1.634   8.331  0.1667  0.3328 -0.1252
 9441W        W52358  17.311   2.031   9.333 -0.1342  0.1333  0.0279
 9442W        W52359  19.624   2.959   6.521 -0.3017  0.1284 -0.1445
 9443W        W52360  21.349   3.286   9.426 -0.0460  0.3123 -0.0382
 9444W        W52361  18.800   4.337   8.245  0.0453 -0.2971 -0.1125
 9445W        W52362  21.913   0.165   7.185 -0.1456 -0.2127 -0.3136
 9446W        W52363  17.920   4.646   8.240 -0.1059 -0.0602 -0.0110
 9447W        W52364  19.368   1.190   7.008  0.0713  0.1888 -0.1306
 9448W        W52365  18.315   0.752   8.371  0.0632  0.3157 -0.0917
 9449W        W52366  21.356  34.536   7.830 -0.0324 -0.1233  0.4998
 9450W        W52367  21.097   1.635   7.125  0.0096  0.3899 -0.1262
 9451W        W52368  16.639   1.370   8.815 -0.3366 -0.6868  0.6113
 9452W        W52369  19.122  33.868   8.149  0.0458 -0.2182  0.0455
 9453W        W52370  19.280   4.986   9.320 -0.0974  0.1748 -0.1775
 9454W        W52371  21.517   0.010   6.449  0.1835  0.2247 -0.0659
 9455W        W52372  18.979   1.406   8.233 -0.4775 -0.1951  0.0521
 9456W        W52373  23.632  34.619   9.703 -0.0396 -0.3497  0.0647
 9457W        W52374  19.622   2.237   9.044 -0.0670  0.0487  0.3220
 9458W        W52375  18.484   6.506   7.735 -0.1684  0.1766  0.1064
 9459W        W52376  14.685   0.810  11.064 -0.1418 -0.0200  0.0161
 9460W        W52377  18.428  34.440   9.362  0.1260  0.1758  0.0575
 9461W        W52378  18.457   3.721   9.387  0.1577  0.1741  0.1868
 9462W        W52379  23.800   2.742   7.913  0.0595 -0.0712  0.2594
 9463W        W52380  20.497   1.093   8.382  0.1203  0.0173  0.0222
 9464W        W52381  18.217   0.315   9.325  0.1616 -0.0547 -0.0212
 9465W        W52382  19.918   2.730   9.209 -0.0078 -0.0231  0.0473
 9466W        W52383  22.016   2.987   8.637 -0.0117 -0.0280  0.2592
 9467W        W52384  16.843   8.180   8.904  0.1824 -0.2855 -0.0870
 9468W        W52385  20.482  33.015   9.438 -0.3494 -0.1182 -0.1708
 9469W        W52386  20.580   4.532   7.150 -0.0821  0.1825  0.1410
 9470W        W52387  19.854   1.371   7.589  0.1165  0.0690  0.0401
 9471W        W52388  20.210   1.353   8.832  0.2876 -0.3444  0.4385
 9472W        W52389  18.574   2.938   8.890 -0.0571  0.0608  0.5655
 9473W        W52390  19.685   1.856   7.620  0.1476 -0.0325 -0.0367
 9474W        W52391  20.347   3.042   8.992  0.1209 -0.0781  0.1215
 9475W        W52392  19.047   3.382   7.780  0.1574 -0.0360  0.1176
 9476W        W52393  17.360   4.758   7.160  0.3236 -0.1738  0.2533
 9477W        W52394  20.321   1.043   6.879  0.1830  0.2543  0.0027
 9478W        W52395  19.144   1.824   6.856  0.1903 -0.1524  0.1523
 9479W        W52396  17.941  34.496   8.480 -0.2290 -0.2904 -0.0333
 9480W        W52397  21.310   2.759   6.639  0.0483  0.2127 -0.1343
 9481W        W52398  18.170  33.962   7.956 -0.1546 -0.0473 -0.3609
 9482W        W52399  20.911   1.141   8.695  0.0791 -0.0936  0.2514
 9483W        W52400  20.568   0.109   8.513  0.3545  0.3130 -0.1232
 9484W        W52401  20.491  33.486   7.680 -0.1382 -0.0177  0.2187
 9485W        W52402  22.033   4.180   7.250  0.0475 -0.0308  0.1204
 9486W        W52403  21.156   1.150   9.191  0.0935 -0.1174  0.1679
 9487W        W52404  19.762   3.452   8.492  0.0543  0.4426  0.5048
 9488W        W52405  23.186   1.517   7.814  0.1017  0.0183  0.1555
 9489W        W52406  22.769   6.488   9.452 -0.0965 -0.1549 -0.1523
 9490W        W52407  21.674   0.201   7.654 -0.1342  0.0745  0.0308
 9491W        W52408  21.370   2.271   8.278  0.0163 -0.0540  0.1742
 9492W        W52409  18.614   2.990   7.704 -0.0046 -0.1180 -0.0650
 9493W        W52410  21.731  33.889   9.034  0.0042  0.1135  0.1766
 9494W        W52411  19.430  34.324   7.521  0.0737 -0.4285 -0.0541
 9495W        W52412  22.323   2.727   8.323  0.1384  0.0614 -0.1479
 9496W        W52413  21.258   2.210   7.567  0.1015 -0.0258  0.0222
 9497W        W52414  22.463   0.026  12.625  0.2212  0.0246  0.3023
 9498W        W52415  23.952   3.330   6.096  0.1822 -0.1701  0.2544
 9499W        W52416  21.053   1.955   8.015  0.4247  0.0718  0.2338
 9500W        W52417  18.550   2.094   7.866 -0.3760 -0.2002 -0.0912
 9501W        W52418  19.888  34.148   7.194 -0.2779  0.0710  0.3985
 9502W        W52419  19.104   3.074   9.157 -0.1886  0.2332 -0.5351
 9503W        W52420  21.211   2.723   7.600  0.2116  0.2817 -0.0112
 9504W        W52421  20.736   0.703   8.564  0.0418 -0.2151  0.2937
 9505W        W52422  18.664   1.383   8.628  0.1559 -0.0527  0.1396
 9506W        W52423  17.362   0.829   7.872  0.0874 -0.0565  0.1137
 9507W        W52424  18.371   3.917   8.168  0.2998 -0.0496  0.1089
 9508W        W52425  21.861   3.503   9.614  0.1368 -0.1386 -0.1407
 9509W        W52426  20.963  32.687   7.046  0.0445  0.1251 -0.2225
 9510W        W52427  19.074   3.621   8.767  0.2756 -0.0372  0.1842
 9511W        W52428  19.512   2.812   8.848  0.0666  0.1994 -0.3038
 9512W        W52429  16.219   4.992  10.011 -0.4017 -0.0514 -0.0719
 9513W        W52430  16.010   2.421   9.401  0.1668 -0.0976  0.0733
 9514W        W52431  21.673  34.190   9.418 -0.1132 -0.0891  0.1490
 9515W        W52432  20.648   0.877   7.872  0.0677  0.2057  0.1458
 9516W        W52433  18.685   2.228   8.790 -0.1103 -0.1648  0.1157
 9517W        W52434  17.926   0.856   8.716  0.1995  0.2173  0.1826
 9518W        W52435  22.648   1.127   9.166 -0.0987  0.2098 -0.1584
 9519W        W52436  19.568   5.100   8.914  0.0777  0.0731  0.1372
 9520W        W52437  20.797   4.050   7.540 -0.1694  0.2520 -0.1494
 9521W        W52438  21.237  33.243   9.333  0.0400 -0.0052 -0.1528
 9522W        W52439  18.435   2.350   7.341 -0.1365  0.1400  0.0920
 9523W        W52440  18.220   1.664   9.390  0.0379  0.1396  0.1718
 9524W        W52441  18.717   3.277   8.538 -0.0323 -0.0074 -0.0348
 9525W        W52442  22.095   3.261   7.620  0.4029  0.0622 -0.1110
 9526W        W52443  19.702  34.603   7.092 -0.1622  0.2733  0.2083
 9527W        W52444  20.980   2.199  12.717 -0.0932 -0.1891  0.1938
 9528W        W52445  19.153   0.500   8.362  0.0195  0.0439  0.3147
 9529W        W52446  18.677   5.969   9.396 -0.3287 -0.1652  0.0140
 9530W        W52447  19.529   4.574   8.817  0.0397  0.2284 -0.0709
 9531W        W52448  19.715   2.373   7.449  0.1909 -0.1502  0.0704
 9532W        W52449  18.465   7.378   8.896 -0.0074 -0.1785 -0.0111
 9533W        W52450  20.794   1.074   6.489  0.1660  0.3200 -0.3124
 9534W        W52451  21.916   1.770   8.809 -0.0441  0.0166 -0.1231
 9535W        W52452  22.174   1.852   7.892  0.1959  0.1555 -0.1892
 9536W        W52453  20.166  33.347   9.165  0.1438 -0.1319 -0.2246
 9537W        W52454  20.562   1.668   7.156 -0.0118 -0.1597 -0.1220
 9538W        W52455  21.149   3.280   7.278  0.0858 -0.0390  0.0382
 9539W        W52456  17.050   0.776   9.508  0.1323 -0.1001  0.0356
 9540W        W52457  21.048   0.715   8.961  0.2299  0.0086  0.1608
 9541W        W52458  21.257  34.170   8.209 -0.1350 -0.1611 -0.0388
 9542W        W52459  20.461   3.680   6.836 -0.0231  0.2818 -0.2227
 9543W        W52460  21.113   0.954   8.112 -0.0587  0.3186  0.0163
 9544W        W52461  19.394   6.379   8.182  0.1978 -0.0133 -0.0753
 9545W        W52462  19.448   3.344   8.875  0.0779  0.2461 -0.0108
 9546W        W52463  18.882   4.742   8.571  0.0453  0.0612 -0.2956
 9547W        W52464  19.402   1.704   8.407 -0.0767 -0.2168 -0.3148
 9548W        W52465  22.993   1.085   7.935  0.0765 -0.0298 -0.0491
 9549W        W52466  17.533   1.882   7.773  0.2723  0.1862 -0.1719
 9550W        W52467  20.512   2.133   6.906  0.3989 -0.1023  0.2398
 9551W        W52468  19.918   1.093   8.346  0.0116  0.1351 -0.0009
 9552W        W52469  18.514   4.190   9.488  0.3575 -0.3313  0.2076
 9553W        W52470  15.843   0.187   9.406 -0.0028 -0.0869 -0.3978
 9554W        W52471  20.194   1.550   6.741 -0.0926 -0.1375  0.0584
 9555W        W52472  18.931   0.845   6.807 -0.1831  0.2305  0.1403
 9556W        W52473  18.075   1.150   8.166 -0.0526  0.0361 -0.0499
 9557W        W52474  19.878  34.592   8.858  0.0749  0.1689  0.0847
 9558W        W52475  19.241  34.648   8.235 -0.2020 -0.0833  0.3478
 9559W        W52476  20.108   2.233   8.831  0.2358  0.1649 -0.0042
 9560W        W52477  20.288   0.682   8.160  0.2666  0.1985 -0.0396
 9561W        W52478  21.403   2.864   8.014  0.2392 -0.2423  0.1424
 9562W        W52479  19.287   3.312   8.306 -0.0414  0.1716  0.0499
 9563W        W52480  18.910   3.820   8.228  0.1771 -0.1667  0.1961
 9564W        W52481  20.345   2.664   8.162 -0.0929  0.2796 -0.2182
 9565W        W52482  21.135   3.266   7.802 -0.0843  0.3804 -0.0800
 9566W        W52483  16.932  33.942   9.687 -0.1351  0.0568  0.0341
 9567W        W52484  20.047   2.206   7.835  0.0644 -0.1997 -0.1137
 9568W        W52485  22.834   2.951   9.128  0.3165 -0.0142 -0.0410
 9569W        W52486  20.383  34.179   7.846  0.1541  0.2669 -0.0323
 9570W        W52487  16.763   3.759   9.644  0.2524  0.1100  0.1586
 9571W        W52488  19.531   4.561   9.606 -0.2779 -0.3966  0.1564
 9572W        W52489  20.045   1.417   9.404  0.0321 -0.1401  0.1391
 9573W        W52490  19.094   4.251   7.402 -0.0118  0.1895 -0.1144
 9574W        W52491  21.344   2.073   8.743 -0.0600 -0.2161  0.0643
 9575W        W52492  17.891   3.570   8.052  0.0584  0.0827  0.0104
 9576W        W52493  18.034   2.033   8.678  0.2373  0.1312 -0.2318
 9577W        W52494  20.153   3.730   8.857 -0.1772  0.3210  0.0294
 9578W        W52495  20.663   1.601   9.100 -0.1451  0.1674  0.0482
 9579W        W52496  20.437   2.061   9.192 -0.4679  0.0545 -0.0975
 9580W        W52497  21.568   5.060   8.743  0.0675 -0.1714 -0.1389
 9581W        W52498  18.615   1.446   9.631 -0.0154 -0.0255 -0.3026
 9582W        W52499  20.045  30.990   9.186  0.1324 -0.1460  0.2464
 9583W        W52500  21.612   0.586   7.289  0.0419 -0.0911 -0.1647
 9584W        W52501  17.345   0.797   8.599 -0.1420 -0.0712 -0.0165
 9585W        W52502  18.407   2.356   8.254 -0.1296 -0.2833  0.0998
 9586W        W52503  20.017   3.822   5.940  0.0510  0.0377  0.0338
 9587W        W52504  18.013   4.729   7.740  0.3537 -0.1893 -0.2882
 9588W        W52505  18.197   0.440   8.711  0.0837  0.0995 -0.3061
 9589W        W52506  17.835   1.538   7.998  0.2217 -0.2160  0.2876
 9590W        W52507  20.328   4.101   8.130 -0.1686 -0.0573  0.0415
 9591W        W52508  18.819   0.462   7.208  0.0504 -0.0893 -0.0343
 9592W        W52509  19.430   1.127   8.378  0.1195 -0.4498  0.1273
 9593W        W52510  19.150   4.224   6.900  0.2665 -0.0135 -0.0716
 9594W        W52511  19.851   4.236   9.283 -0.0292 -0.2102  0.1070
 9595W        W52512  18.428   1.635   7.889 -0.0256  0.0947  0.0943
 9596W        W52513  19.745   2.145   7.012 -0.1364  0.0674 -0.1996
 9597W        W52514  19.082   2.050   8.172 -0.1440  0.1968 -0.0548
 9598W        W52515  18.568  32.618  12.201 -0.2272  0.0147  0.1479
 9599W        W52516  18.732   4.615   9.713  0.0648  0.0705 -0.0935
 9600W        W52517  18.486   3.674   6.425 -0.1364  0.0650 -0.1447
 9601W        W52518  22.341  29.796  13.013  0.1377  0.0737  0.2061
 9602W        W52519  21.869   2.087   7.566 -0.1561 -0.0180  0.1471
 9603W        W52520  22.470   0.960   7.290 -0.0114  0.1003  0.0965
 9604W        W52521  21.916   0.438   8.983  0.1837  0.2153 -0.1538
 9605W        W52522  20.155   2.382   7.200 -0.0609  0.0553 -0.0168
 9606W        W52523  21.261   0.623  12.576  0.3069  0.1186 -0.2429
 9607W        W52524  18.807  33.575   7.195 -0.4677 -0.2180  0.2303
 9608W        W52525  18.911   0.922   8.482 -0.0021 -0.0654  0.0301
 9609W        W52526  20.503   2.079   7.450  0.0371 -0.1038  0.6526
 9610W        W52527  17.004   1.041   8.861 -0.2990 -0.1805 -0.0649
 9611W        W52528  20.979  34.594   6.267  0.1085  0.3387 -0.5210
 9612W        W52529  19.201   1.321   8.823  0.1633 -0.0380  0.2447
 9613W        W52530  20.076   1.795   7.187 -0.3719  0.0670  0.3157
 9614W        W52531  20.497   2.614   6.288  0.1371 -0.1222  0.1035
 9615W        W52532  20.490   2.419   9.537  0.2143 -0.0421 -0.3460
 9616W        W52533  21.071   6.645   8.328  0.4312  0.1101 -0.2402
 9617W        W52534  22.178   2.261   9.048 -0.2618 -0.0421 -0.1638
 9618W        W52535  19.152  33.549   7.543 -0.0104 -0.1845 -0.1029
 9619W        W52536  18.813   1.293   7.672  0.1877  0.2744  0.0814
 9620W        W52537  21.088  34.391   8.634  0.1313 -0.2752  0.1270
 9621W        W52538  19.047   0.263   7.884  0.1230 -0.1998 -0.2144
 9622W        W52539  20.236   0.777   8.699 -0.1262 -0.2198 -0.3502
 9623W        W52540  20.714   0.437   8.142 -0.1376  0.0405  0.0876
 9624W        W52541  20.096   3.073   8.301  0.1026  0.0561 -0.1778
 9625W        W52542  16.915   8.443   9.462  0.2391 -0.3733  0.0867
 9626W        W52543  17.972   6.930   2.659  0.2386  0.0088  0.0544
 9627W        W52544  18.977   5.592   4.398  0.0175 -0.1787 -0.0799
 9628W        W52545  18.639   2.836   0.070  0.0343 -0.0355  0.1571
 9629W        W52546  19.942   5.331   1.828 -0.3276  0.0399  0.3698
 9630W        W52547  18.873   5.248   1.716 -0.0119 -0.0942 -0.2782
 9631W        W52548  18.844   8.011   0.398  0.0384 -0.0040 -0.3262
 9632W        W52549  18.491   5.181   2.040 -0.1087  0.0025 -0.1645
 9633W        W52550  21.343   7.068   1.770 -0.1002  0.3765 -0.1097
 9634W        W52551  21.608   7.568   2.678 -0.4947  0.0212  0.2577
 9635W        W52552  20.904   7.299   1.866 -0.1317 -0.1190 -0.1715
 9636W        W52553  20.904   3.522   1.186 -0.0298 -0.2925 -0.1650
 9637W        W52554  20.146   5.517   3.988  0.0789 -0.0478 -0.0388
 9638W        W52555  20.109   4.370  30.248 -0.0851  0.1861  0.1910
 9639W        W52556  18.523   4.624   2.489  0.0025  0.1708 -0.0174
 9640W        W52557  21.961   4.216   4.430  0.1887 -0.3238  0.0877
 9641W        W52558  17.207   6.376  31.282 -0.0536  0.1367  0.0494
 9642W        W52559  19.265   5.168   3.670  0.0124  0.0650  0.0855
 9643W        W52560  21.269   5.629  30.944  0.2911 -0.2306 -0.2430
 9644W        W52561  20.001   8.860   1.762  0.2070  0.0379 -0.2101
 9645W        W52562  17.320   3.446   3.259 -0.0161  0.1971  0.0669
 9646W        W52563  19.411   4.264   3.887  0.0800  0.1021  0.0499
 9647W        W52564  21.018   8.280   1.815 -0.1206  0.1240 -0.2268
 9648W        W52565  17.294   4.666   0.754 -0.0480  0.0484 -0.0402
 9649W        W52566  18.974   4.341   1.320  0.0150  0.1005 -0.1319
 9650W        W52567  17.762   3.946   2.494 -0.2428  0.2385  0.0760
 9651W        W52568  21.970   5.097   0.330  0.3578  0.0836 -0.0463
 9652W        W52569  21.155   8.468   2.302  0.1564  0.1107 -0.1080
 9653W        W52570  19.063  10.236   2.504 -0.0980  0.4781  0.2740
 9654W        W52571  21.865   7.129   1.969  0.0108 -0.0070  0.2122
 9655W        W52572  21.856   4.811   2.726  0.2644 -0.0257  0.2351
 9656W        W52573  19.972   5.801   1.541 -0.3574 -0.3162  0.1199
 9657W        W52574  17.601   7.543   1.052  0.1259 -0.0542 -0.1627
 9658W        W52575  21.229   8.392   1.355  0.0189 -0.0925  0.1231
 9659W        W52576  20.240   9.682   1.677 -0.2706 -0.2103  0.1414
 9660W        W52577  20.717   6.185   2.876 -0.0723 -0.4832 -0.3181
 9661W        W52578  19.555   8.660   1.712 -0.2764  0.0428  0.0377
 9662W        W52579  20.192   6.286   0.545  0.0205 -0.0728  0.4998
 9663W        W52580  20.786   7.328   3.215  0.1923  0.2162 -0.0384
 9664W        W52581  19.960   6.684   4.404 -0.1687 -0.0948 -0.0487
 9665W        W52582  19.164   5.043  31.698  0.0789 -0.2480  0.2090
 9666W        W52583  19.358   6.899   0.697 -0.0836 -0.0383 -0.0153
 9667W        W52584  19.773   7.626  31.802 -0.0596  0.0439  0.0219
 9668W        W52585  22.239   7.743   2.550  0.0547  0.3179  0.0915
 9669W        W52586  19.022   6.109   4.798 -0.0479  0.0725 -0.3926
 9670W        W52587  21.166   7.475   1.480 -0.1410 -0.3727 -0.2563
 9671W        W52588  22.092   4.985   3.744 -0.0763 -0.0326  0.3785
 9672W        W52589  18.624   6.675   0.060  0.6938 -0.0004  0.2377
 9673W        W52590  18.573   5.634   0.913 -0.0457 -0.1260 -0.0362
 9674W        W52591  20.916   6.025   0.117 -0.0571 -0.3425  0.2641
 9675W        W52592  19.179   5.131   1.343 -0.2350  0.1373 -0.1564
 9676W        W52593  18.796   5.941  31.673 -0.0367 -0.1996 -0.0700
 9677W        W52594  19.689   8.340   1.400 -0.0177  0.3139 -0.1960
 9678W        W52595  19.538   2.382   1.513 -0.1850 -0.2039  0.0514
 9679W        W52596  19.688   6.966   2.320  0.4204 -0.0605 -0.2706
 9680W        W52597  20.993   6.433   1.561  0.1639  0.3191  0.2249
 9681W        W52598  20.844   7.907   1.264  0.1208 -0.3885  0.1901
 9682W        W52599  19.272   7.449   3.049  0.0744  0.0618 -0.2218
 9683W        W52600  18.886   3.878   3.906 -0.0061  0.2096 -0.0691
 9684W        W52601  22.334   9.425  30.684 -0.0597 -0.0814 -0.1660
 9685W        W52602  20.315   7.522   3.400  0.4229 -0.0248  0.0004
 9686W        W52603  21.214   7.839   0.865  0.0959  0.1046  0.5329
 9687W        W52604  17.210   3.935   2.623  0.0727  0.0669  0.0528
 9688W        W52605  17.946   3.284   2.335 -0.4293  0.3039  0.1767
 9689W        W52606  17.688   6.009   4.273  0.0011 -0.0657 -0.0421
 9690W        W52607  18.283   5.926  31.624 -0.0861 -0.0049  0.1709
 9691W        W52608  22.679   6.101   3.400 -0.2627  0.4802 -0.2876
 9692W        W52609  17.018   6.085   2.319  0.1167 -0.0821 -0.3085
 9693W        W52610  20.878   4.969   1.032 -0.2683  0.0018  0.0468
 9694W        W52611  20.432   5.315   0.917 -0.3709 -0.2937  0.1433
 9695W        W52612  21.778   6.486   3.540 -0.1349 -0.0916  0.1970
 9696W        W52613  21.289   5.739   1.360  0.2911  0.1157  0.1880
 9697W        W52614  19.471   4.572  31.790  0.0203 -0.2163  0.3770
 9698W        W52615  17.941   3.837   3.870 -0.3983 -0.0404  0.1615
 9699W        W52616  18.706   4.607   0.210  0.0496 -0.1110 -0.0223
 9700W        W52617  20.023   6.714   0.851  0.0663  0.2005  0.0627
 9701W        W52618  21.069   6.938   2.200  0.3769  0.0663  0.1082
 9702W        W52619  20.936   3.076   0.642  0.0280 -0.1447  0.1330
 9703W        W52620  19.486   6.581   3.205  0.3114  0.3879 -0.1661
 9704W        W52621  17.562   4.372   4.376  0.0631 -0.2505  0.0874
 9705W        W52622  19.807   8.238   3.511  0.1294  0.0797  0.0140
 9706W        W52623  18.935   9.782   0.193 -0.0001 -0.1005 -0.1950
 9707W        W52624  17.734   5.749   2.531  0.2922  0.2147 -0.2699
 9708W        W52625  16.210   5.515   0.527 -0.3163  0.5980  0.0616
 9709W        W52626  18.512   2.596   2.728 -0.1117  0.1404  0.0047
 9710W        W52627  18.465   7.514   3.360  0.0330  0.0926 -0.1250
 9711W        W52628  21.418   6.104   0.908  0.0887 -0.0574  0.0910
 9712W        W52629  18.082   3.197   3.484 -0.0168  0.2393  0.0524
 9713W        W52630  21.160   4.274   3.238 -0.1293 -0.1220 -0.1387
 9714W        W52631  17.855   4.784   0.917 -0.2073 -0.1025 -0.2769
 9715W        W52632  19.965   6.856   2.736 -0.0002  0.1980  0.1523
 9716W        W52633  21.076   4.850   1.466  0.5438 -0.1478 -0.0224
 9717W        W52634  21.579   6.439  31.443 -0.1806  0.1677 -0.2134
 9718W        W52635  17.018   5.600   3.102 -0.2445 -0.0405  0.0460
 9719W        W52636  18.929   6.244   1.372  0.0902  0.0973  0.0337
 9720W        W52637  16.617   2.809   5.464  0.0205 -0.0014 -0.0114
 9721W        W52638  19.261   6.427   2.362 -0.0519 -0.2447  0.1218
 9722W        W52639  19.241   6.962   2.084  0.1841 -0.0517  0.3087
 9723W        W52640  18.799   2.943   1.264 -0.1834  0.0213 -0.0729
 9724W        W52641  21.610   5.086   3.039 -0.1180 -0.1145  0.0920
 9725W        W52642  20.001   7.372   1.560 -0.2283  0.0437  0.2809
 9726W        W52643  16.977   5.472  31.657  0.1446  0.2471  0.0294
 9727W        W52644  21.493   2.244   3.036  0.3091  0.1360  0.1250
 9728W        W52645  20.719   7.703   0.274 -0.1005  0.0770 -0.3128
 9729W        W52646  20.194   8.478   2.021  0.0675 -0.0051  0.1038
 9730W        W52647  21.507   7.726   0.454  0.0545 -0.0896 -0.3040
 9731W        W52648  18.586   4.622   2.025  0.2888 -0.0211 -0.1172
 9732W        W52649  17.861   5.129  31.385  0.0223  0.1489 -0.0377
 9733W        W52650  18.710   7.438   2.380  0.1016  0.0419 -0.1439
 9734W        W52651  18.736   5.651   2.151 -0.1665  0.1327  0.1308
 9735W        W52652  20.114   7.192   0.510  0.1811 -0.1633 -0.4213
 9736W        W52653  21.498   8.222   0.981  0.1279 -0.0361 -0.2611
 9737W        W52654  18.595   5.222   0.589 -0.2341 -0.1383  0.1605
 9738W        W52655  18.479   5.138   0.147 -0.1132  0.1693  0.1901
 9739W        W52656  19.288   4.691   1.124  0.2517  0.0638 -0.2255
 9740W        W52657  22.061   6.246   2.358 -0.1680 -0.1387  0.1297
 9741W        W52658  20.415   7.544   1.834 -0.0225 -0.2309 -0.3015
 9742W        W52659  19.794   3.264   1.209  0.1745  0.1558 -0.2247
 9743W        W52660  19.774   8.682   2.718 -0.2113  0.3677  0.0311
 9744W        W52661  19.574   7.061   1.194  0.1153  0.0518 -0.4281
 9745W        W52662  15.941   4.662   0.920  0.0046 -0.0169  0.1150
 9746W        W52663  18.753   6.916   0.703 -0.1824  0.0916  0.2868
 9747W        W52664  21.654   4.553   3.184 -0.3290  0.1261 -0.0416
 9748W        W52665  16.687   4.213   5.056  0.0122  0.0438  0.0509
 9749W        W52666  18.164   4.291   4.648 -0.0864  0.3029 -0.0421
 9750W        W52667  17.383   5.109   1.023 -0.0868  0.2737  0.1595
 9751W        W52668  18.530   7.960   2.871 -0.0396  0.0375  0.1170
 9752W        W52669  20.138   4.855   2.077  0.0060 -0.2649  0.1406
 9753W        W52670  21.102   4.278   0.343  0.2371 -0.0132  0.0115
 9754W        W52671  18.462   5.497   3.633  0.3245 -0.0929  0.0610
 9755W        W52672  22.341   8.581   1.614  0.2273  0.2400  0.0291
 9756W        W52673  19.716   3.763   0.245  0.0530 -0.1438 -0.1135
 9757W        W52674  18.720   6.126   0.916  0.2239 -0.3380  0.1847
 9758W        W52675  17.422   8.332   4.205 -0.3381 -0.0095  0.0162
 9759W        W52676  21.402   8.012   1.929  0.1328 -0.0571 -0.0720
 9760W        W52677  21.510   6.846   0.508  0.2026  0.3949  0.0856
 9761W        W52678  19.922   7.487   2.098 -0.2338 -0.0846  0.1159
 9762W        W52679  21.802   7.751   2.264 -0.1882 -0.0684 -0.1657
 9763W        W52680  18.560   4.740   0.699 -0.0905 -0.1994 -0.0949
 9764W        W52681  20.444   8.054   1.551 -0.3656  0.1289 -0.1908
 9765W        W52682  20.082   6.114  31.670  0.1628 -0.2724 -0.2925
 9766W        W52683  18.920   4.673   1.657 -0.0965  0.1852 -0.1277
 9767W        W52684  20.473   5.898  30.781 -0.1208  0.0402 -0.2080
 9768W        W52685  20.165   3.497   0.351  0.1650 -0.1176 -0.3581
 9769W        W52686  18.920   7.537   0.207 -0.5228  0.0892  0.1135
 9770W        W52687  19.740   5.866   3.896 -0.3824 -0.2957 -0.1523
 9771W        W52688  17.877   5.286   3.736  0.1187 -0.0898 -0.2012
 9772W        W52689  18.758   4.322   2.873  0.1543  0.0127  0.3989
 9773W        W52690  20.316   5.500   4.454 -0.1303 -0.3689  0.1457
 9774W        W52691  21.572   7.029   2.810 -0.0997 -0.1178  0.3057
 9775W        W52692  20.303   3.247   3.316  0.0164  0.3178  0.3322
 9776W        W52693  19.493   7.597  31.354  0.4866 -0.3422  0.1018
 9777W        W52694  19.655   4.944   1.399 -0.2046  0.2212 -0.0319
 9778W        W52695  19.218   6.112   3.404  0.2542  0.4570  0.0574
 9779W        W52696  18.928   6.676   2.682 -0.3820 -0.0630 -0.1855
 9780W        W52697  19.870   6.664   3.832  0.0639  0.0900 -0.0813
 9781W        W52698  21.017   6.239   0.581 -0.0352  0.0341  0.0521
 9782W        W52699  18.382   4.967   3.553 -0.0324  0.2379 -0.2485
 9783W        W52700  20.274   4.834   0.331  0.1970 -0.1048  0.0144
 9784W        W52701  21.160   9.140   1.131 -0.0098  0.0754  0.0082
 9785W        W52702  20.645   7.503   2.293 -0.1333  0.1079 -0.0904
 9786W        W52703  19.503   1.745   0.559  0.2117 -0.0797 -0.3098
 9787W        W52704  19.951   7.830   2.626  0.0803 -0.1724  0.3319
 9788W        W52705  19.826   4.775  30.459 -0.1640  0.5456 -0.0262
 9789W        W52706  21.067   7.364   0.592  0.1729  0.1473  0.4280
 9790W        W52707  19.568   8.028  31.530  0.0663 -0.2659 -0.3681
 9791W        W52708  20.614   5.593   3.760  0.2499  0.3432 -0.0859
 9792W        W52709  19.252   7.461   1.245  0.1469  0.1636  0.0841
 9793W        W52710  18.205   3.745   2.325  0.0841 -0.1784 -0.0665
 9794W        W52711  18.638   4.834  31.674 -0.1095  0.1231 -0.1680
 9795W        W52712  20.576   2.532   1.431 -0.3314  0.5830  0.2255
 9796W        W52713  21.348   6.419   0.105  0.1573 -0.3179  0.2779
 9797W        W52714  19.512   3.295   1.728  0.3368  0.1339  0.1307
 9798W        W52715  18.160   3.194   1.798  0.1514  0.1115 -0.0844
 9799W        W52716  17.802   5.447   1.843  0.1091 -0.2218 -0.1536
 9800W        W52717  19.190   5.869   2.168 -0.0258 -0.1209  0.0200
 9801W        W52718  20.513   4.396   0.446 -0.1785 -0.0361 -0.1323
 9802W        W52719  19.676   7.051   3.102 -0.0872 -0.3808  0.0961
 9803W        W52720  18.342   5.334   5.148 -0.3791 -0.0508 -0.2070
 9804W        W52721  18.506   6.558   0.485 -0.1568  0.1345  0.0921
 9805W        W52722  19.098   3.449   2.663  0.0554  0.4925  0.1111
 9806W        W52723  18.037   5.835   1.517  0.1343 -0.0711 -0.1309
 9807W        W52724  20.149   7.954   3.234 -0.1316 -0.0844  0.1599
 9808W        W52725  19.222   6.035   0.918 -0.0467 -0.0118 -0.1815
 9809W        W52726  18.873   4.841   3.565  0.1508 -0.1529  0.0783
 9810W        W52727  17.707   4.290   3.917 -0.0588  0.0279  0.2337
 9811W        W52728  20.431   5.557   1.416 -0.0064  0.1312  0.3346
 9812W        W52729  17.676   5.174   3.291  0.3068  0.0780  0.1457
 9813W        W52730  19.777   2.657   1.947 -0.0483 -0.1603 -0.0281
 9814W        W52731  19.596   4.905   4.577  0.2789  0.0208 -0.0585
 9815W        W52732  18.873   6.215   0.427 -0.1266 -0.1170 -0.1121
 9816W        W52733  19.845   4.642   2.443 -0.1294  0.0416 -0.2585
 9817W        W52734  17.646   7.209   2.021 -0.1080 -0.0403  0.1952
 9818W        W52735  17.909   2.778   1.957 -0.3911 -0.3216 -0.1962
 9819W        W52736  21.005   6.743   0.549 -0.0353  0.1729  0.3364
 9820W        W52737  19.490   3.499   2.285 -0.1763  0.2107  0.1570
 9821W        W52738  18.151   4.305   0.104 -0.3669  0.1860 -0.2207
 9822W        W52739  18.263   5.665   1.949 -0.0462  0.3400  0.5448
 9823W        W52740  17.518   5.459   0.062 -0.0084 -0.0351  0.0167
 9824W        W52741  21.102   4.406   1.230  0.0068 -0.0595  0.1160
 9825W        W52742  19.579   7.838   2.292 -0.0306 -0.0789  0.0086
 9826W        W52743  19.230   7.951   1.340 -0.0686  0.1531 -0.4169
 9827W        W52744  20.073   8.330   2.547  0.1655  0.0373 -0.1512
 9828W        W52745  22.354   3.287  31.589  0.0149  0.1598  0.3492
 9829W        W52746  20.512   7.483   0.665  0.1004 -0.2560 -0.2024
 9830W        W52747  19.571   5.436   1.504  0.2328 -0.2933 -0.0599
 9831W        W52748  20.617   6.557   2.243  0.0853  0.2442  0.1675
 9832W        W52749  20.340   5.316   0.414  0.0372 -0.3836  0.0687
 9833W        W52750  20.786   3.849   2.695 -0.0907 -0.1378 -0.0131
 9834W        W52751  19.185   5.264   2.495 -0.0420 -0.0618 -0.4390
 9835W        W52752  21.668   7.255   1.451  0.3202  0.2003  0.2879
 9836W        W52753  16.506   4.229   4.607  0.0342 -0.0386  0.0762
 9837W        W52754  20.160   8.438   3.139 -0.0589 -0.2849  0.1785
 9838W        W52755  19.605   5.061   2.194 -0.0088  0.0323  0.2514
 9839W        W52756  19.261   4.507  30.846 -0.0712  0.0506  0.0907
 9840W        W52757  18.380   3.664   1.829 -0.2510  0.0463 -0.0659
 9841W        W52758  19.430   5.490   3.157 -0.1499 -0.1244  0.1050
 9842W        W52759  21.210   7.534   2.170 -0.1093 -0.4362  0.0257
 9843W        W52760  20.020   5.231   1.230  0.0713 -0.0403 -0.0831
 9844W        W52761  20.378   4.581  31.422 -0.1483 -0.1705  0.1082
 9845W        W52762  18.056   5.735   2.988 -0.1133 -0.3499  0.0984
 9846W        W52763  19.251   4.000   2.239 -0.4375  0.0475  0.0137
 9847W        W52764  19.734   6.057   0.555 -0.0324  0.1664 -0.2155
 9848W        W52765  17.758   3.611   1.811 -0.0344 -0.2935 -0.1313
 9849W        W52766  17.533   2.532   5.353  0.1051  0.3043 -0.2482
 9850W        W52767  19.627   6.192   1.400 -0.1506  0.5120  0.1845
 9851W        W52768  20.596   5.084   3.170  0.2289  0.1160 -0.0893
 9852W        W52769  19.930   5.246   4.730  0.0300  0.2333  0.0558
 9853W        W52770  20.393   7.029   3.522  0.0141 -0.1521 -0.2232
 9854W        W52771  17.870   1.669   3.483  0.0145 -0.2220  0.1323
 9855W        W52772  19.213   3.347   5.240 -0.2037 -0.1959  0.1648
 9856W        W52773  20.352   7.991   2.199 -0.1014  0.0711 -0.0349
 9857W        W52774  21.692   3.876  31.581  0.0968  0.0625  0.1443
 9858W        W52775  19.883   6.363   2.898 -0.0590 -0.2804 -0.2272
 9859W        W52776  20.978   4.269   2.803 -0.0457 -0.1628 -0.2690
 9860W        W52777  20.065   4.455   0.668 -0.1443 -0.0015  0.1640
 9861W        W52778  19.638   7.657   1.373  0.0820  0.1700  0.0628
 9862W        W52779  19.826   7.684   3.671  0.2873  0.0738  0.0455
 9863W        W52780  19.066   4.313   0.021 -0.1419 -0.2089  0.4070
 9864W        W52781  19.999   4.759   4.350  0.0628 -0.0902  0.4157
 9865W        W52782  18.555   6.380  31.643  0.1373 -0.0745 -0.1225
 9866W        W52783  19.893   5.991   2.569 -0.3951 -0.1714  0.0130
 9867W        W52784  21.391   5.759   2.297 -0.0633 -0.2542  0.1264
 9868W        W52785  18.265   5.116   2.739  0.0166  0.0361 -0.2461
 9869W        W52786  20.281   7.156   3.075 -0.2518  0.2631 -0.1355
 9870W        W52787  18.821   6.610  30.744  0.0663  0.3155 -0.1337
 9871W        W52788  19.365   5.482   0.160  0.1124 -0.0602  0.2680
 9872W        W52789  20.639   9.103   2.922  0.2192  0.0706 -0.5072
 9873W        W52790  19.916   6.382   5.599 -0.1536 -0.1646 -0.0066
 9874W        W52791  20.849   4.216  31.900 -0.2811 -0.1350 -0.1684
 9875W        W52792  22.509   3.285   1.369 -0.4073 -0.0809  0.1199
 9876W        W52793  19.412   7.862   1.792 -0.1821 -0.0666 -0.1112
 9877W        W52794  19.059   3.502   1.829 -0.0307  0.1149 -0.0932
 9878W        W52795  19.468   7.843   3.325  0.0088 -0.0985 -0.1777
 9879W        W52796  17.796   5.808   3.433  0.0320  0.2817 -0.0521
 9880W        W52797  18.716   6.708   1.218 -0.2472 -0.2950  0.0248
 9881W        W52798  20.118   4.903   1.608  0.0445 -0.1661  0.0075
 9882W        W52799  18.330   6.324   1.465 -0.0954  0.0887 -0.3717
 9883W        W52800  21.233   6.138   4.371 -0.0954  0.0163 -0.2796
 9884W        W52801  18.842   6.396   3.981 -0.0951 -0.0161  0.3218
 9885W        W52802  19.095   7.427   1.720 -0.2601  0.0039 -0.0460
 9886W        W52803  20.106   7.230   2.513  0.0650 -0.1667  0.0712
 9887W        W52804  20.626   7.213   0.280 -0.2146  0.3642 -0.1237
 9888W        W52805  19.385   4.904   1.794  0.2001 -0.2766  0.4002
 9889W        W52806  17.497   3.994   4.760 -0.0762  0.0930  0.2084
 9890W        W52807  20.008   3.970  30.816  0.0727 -0.2663 -0.0562
 9891W        W52808  18.996   5.067   0.279 -0.2229  0.3404  0.2733
 9892W        W52809  20.020   5.076   0.701 -0.0236 -0.1215 -0.0147
 9893W        W52810  18.264   5.999   0.571 -0.0752  0.2897 -0.1783
 9894W        W52811  18.197   7.349   2.590 -0.0660 -0.2274  0.5378
 9895W        W52812  20.179   4.951   2.763  0.2925 -0.0577 -0.0087
 9896W        W52813  18.581   6.987   1.752  0.0440  0.0572  0.0269
 9897W        W52814  19.696   4.740   0.832  0.2167  0.1246  0.0889
 9898W        W52815  17.964   6.008   0.168 -0.3324 -0.2191 -0.2002
 9899W        W52816  20.482   7.510   2.794 -0.0363  0.3075 -0.0654
 9900W        W52817  19.828   4.256   1.069 -0.0605  0.1848 -0.1644
 9901W        W52818  19.271   8.286   0.464  0.1368  0.2146 -0.0365
 9902W        W52819  17.215   4.586  31.836 -0.2162 -0.1967 -0.2868
 9903W        W52820  20.629   9.700   0.445  0.0473  0.0067  0.2973
 9904W        W52821  20.675   9.273   1.300 -0.1077 -0.0073 -0.1574
 9905W        W52822  21.588   9.260   3.423  0.2450 -0.2468  0.1186
 9906W        W52823  20.688   3.619  30.177  0.0017  0.3701  0.1375
 9907W        W52824  21.756   6.704   2.293 -0.0242 -0.0154  0.0806
 9908W        W52825  21.006   7.689   2.640  0.1149 -0.0314 -0.1491
 9909W        W52826  20.150   6.233   1.123 -0.2213 -0.3425  0.2673
 9910W        W52827  19.646   5.063   2.749  0.0678 -0.1938  0.1377
 9911W        W52828  18.109   5.338   3.218 -0.0906  0.2152  0.2358
 9912W        W52829  18.120   4.849   5.076 -0.0115 -0.0360 -0.0501
 9913W        W52830  20.805   6.461   3.466  0.0715  0.0056  0.3721
 9914W        W52831  19.215   6.312   1.876  0.2073 -0.0048 -0.0411
 9915W        W52832  22.270   7.156  31.346  0.3100  0.1586 -0.0725
 9916W        W52833  19.074   7.008   1.090 -0.2019 -0.1841  0.1426
 9917W        W52834  20.437   3.937   0.200 -0.0991  0.0309  0.3798
 9918W        W52835  20.723   4.233   2.305  0.2734 -0.0283  0.2271
 9919W        W52836  18.253   5.993   1.075  0.1184  0.3129  0.3714
 9920W        W52837  20.416   5.403   2.820  0.0461  0.0255  0.2218
 9921W        W52838  20.817   9.227   0.287  0.2153 -0.0974 -0.1416
 9922W        W52839  17.473   6.173   2.428  0.0942 -0.0515 -0.1004
 9923W        W52840  21.544   7.256   2.348 -0.0757  0.1613  0.2016
 9924W        W52841  15.367   5.409   0.261  0.1444  0.0646  0.1303
 9925W        W52842  20.931   5.252   0.611  0.5511  0.0220 -0.1324
 9926W        W52843  16.931   3.301   4.710  0.5055  0.1561 -0.1343
 9927W        W52844  20.670   3.132   2.881 -0.1366  0.0036 -0.2661
 9928W        W52845  20.459   3.061   0.405 -0.3425 -0.1304 -0.1716
 9929W        W52846  20.329   3.378   1.227  0.1821 -0.1274  0.1361
 9930W        W52847  20.641   8.262  30.874 -0.1997  0.1014  0.0671
 9931W        W52848  18.515   5.646   2.683 -0.0289  0.2841  0.0979
 9932W        W52849  21.076   6.294  31.584 -0.0101 -0.2233 -0.2359
 9933W        W52850  20.479   6.941   2.630  0.0340 -0.4111 -0.0030
 9934W        W52851  19.534   6.480   0.839  0.0893 -0.2042 -0.2514
 9935W        W52852  19.046   7.781   4.160  0.4266  0.2195  0.0273
 9936W        W52853  19.099   3.941   0.467 -0.0544  0.0972  0.1523
 9937W        W52854  21.477   4.214   2.866  0.1087 -0.0309 -0.1461
 9938W        W52855  18.097   3.819   0.095 -0.0001  0.1437 -0.0791
 9939W        W52856  21.513   5.567   4.917 -0.1596  0.0481  0.0447
 9940W        W52857  20.243   6.968   4.024 -0.0522 -0.0072 -0.1591
 9941W        W52858  19.152   2.910  30.151 -0.2017  0.1322 -0.0043
 9942W        W52859  20.878   6.660  31.909  0.0254 -0.0432 -0.0238
 9943W        W52860  21.719   6.701   1.579  0.0178 -0.2541 -0.0143
 9944W        W52861  20.691   7.486  31.773  0.0121  0.0762 -0.1406
 9945W        W52862  21.823   7.272  31.143 -0.1010  0.1474  0.0032
 9946W        W52863  19.795   6.106   2.045 -0.1022 -0.0289 -0.0147
 9947W        W52864  19.301   5.008   3.122  0.0542  0.2477 -0.1395
 9948W        W52865  20.704   8.443   1.303  0.2247  0.1636  0.2162
 9949W        W52866  22.572   6.618   2.640  0.1951 -0.3056  0.1023
 9950W        W52867  18.651   3.833   0.025  0.2090 -0.2458 -0.2387
 9951W        W52868  19.041   5.735   1.627 -0.0949 -0.1938  0.3233
 9952W        W52869  18.529   6.977   2.575 -0.3403  0.0916  0.2341
 9953W        W52870  22.299   5.023   1.159  0.0769  0.1568  0.0103
 9954W        W52871  21.698   3.791   2.844 -0.2997  0.1069 -0.0423
 9955W        W52872  15.922   5.752  31.641  0.2266  0.0618  0.1839
 9956W        W52873  18.836   2.852   3.526  0.0386 -0.1045  0.2036
 9957W        W52874  18.293   6.621   3.020 -0.1319 -0.0629 -0.2932
 9958W        W52875  19.483   9.107   2.294  0.1692 -0.0650 -0.2573
 9959W        W52876  18.681   6.774  31.341  0.2888  0.2366  0.1143
 9960W        W52877  19.007   5.181   5.252  0.0172  0.0596 -0.2234
 9961W        W52878  20.029   6.276   1.661 -0.2044  0.3738  0.2291
 9962W        W52879  21.042   8.836   1.522 -0.2497 -0.0934  0.0263
 9963W        W52880  19.679   6.337   4.137  0.4173  0.2048  0.3196
 9964W        W52881  19.330   4.564   2.140 -0.1285  0.4446 -0.1472
 9965W        W52882  22.350   7.273   2.203  0.1865 -0.0613 -0.1075
 9966W        W52883  19.497   5.683   2.697  0.3082 -0.2424 -0.0147
 9967W        W52884  19.531   5.211   0.988  0.1512  0.0322  0.2387
 9968W        W52885  19.976   4.225   0.167 -0.2855 -0.0801  0.0998
 9969W        W52886  20.160   5.796   3.564 -0.1853  0.2623  0.0489
 9970W        W52887  17.031   3.793   0.836  0.1015 -0.0868  0.1047
 9971W        W52888  17.972   5.333  31.848  0.1879  0.1030  0.1213
 9972W        W52889  19.664   5.981   5.240 -0.0196  0.0769  0.1797
 9973W        W52890  19.928   5.008   3.231 -0.0426 -0.4168  0.4453
 9974W        W52891  17.189   4.935   4.998  0.0508  0.1099 -0.0165
 9975W        W52892  18.712   3.373   1.493 -0.1467  0.3059 -0.0575
 9976W        W52893  19.445   5.048   0.526  0.1709 -0.3408  0.0525
 9977W        W52894  20.681   9.782   1.444 -0.0360  0.0036  0.1335
 9978W        W52895  19.374   4.264   0.840 -0.0498 -0.1997 -0.1085
 9979W        W52896  18.917   4.854   2.853  0.0263  0.0370 -0.1026
 9980W        W52897  20.529   6.491  30.611 -0.0815 -0.0058 -0.0344
 9981W        W52898  21.786   7.656  30.837 -0.3312 -0.2137 -0.1369
 9982W        W52899  20.504   3.807   1.245 -0.1563  0.1607  0.1603
 9983W        W52900  22.904   7.113   4.759  0.1529 -0.1344  0.0543
 9984W        W52901  17.493   7.688  31.876  0.1580 -0.1751 -0.2264
 9985W        W52902  18.980   4.388   2.429  0.1067  0.1472  0.0110
 9986W        W52903  17.931   6.322   3.223 -0.2457 -0.2036 -0.0277
 9987W        W52904  16.793   4.158  31.843 -0.0426 -0.3839  0.2844
 9988W        W52905  20.871   4.486   0.799  0.3709  0.2944 -0.0299
 9989W        W52906  19.476   7.214   0.294  0.3204 -0.5196  0.2417
 9990W        W52907  21.655   8.345   2.238 -0.2790  0.1780 -0.1335
 9991W        W52908  19.303   6.571   1.273  0.4509  0.0818 -0.0456
 9992W        W52909  19.007   8.350   0.889 -0.0167 -0.1109  0.2592
 9993W        W52910  18.382   3.665   3.887 -0.1356  0.5280 -0.0374
 9994W        W52911  20.580   7.057   2.101  0.1362 -0.2443  0.0766
 9995W        W52912  21.124   5.183   3.949  0.1176  0.2845 -0.1077
 9996W        W52913  21.996   6.410  31.028 -0.0519 -0.1134  0.0242
 9997W        W52914  21.487   4.316   3.583 -0.0464 -0.0689 -0.1664
 9998W        W52915  19.840   5.182   0.226  0.3064  0.0266  0.0736
 9999W        W52916  17.180   5.152   3.346  0.1198  0.1873 -0.0413
10000W        W52917  18.426   4.125   1.918 -0.2334 -0.0066 -0.0312
10001W        W52918  22.469   7.133   3.329  0.0554 -0.0411 -0.1969
10002W        W52919  18.473   3.938   1.068 -0.3237 -0.2141  0.0670
10003W        W52920  18.980   2.524  31.860  0.1017  0.1462  0.1734
10004W        W52921  19.710   4.691   0.258  0.0064 -0.1375  0.0438
10005W        W52922  19.669   5.973   3.140  0.1055  0.0954  0.1094
10006W        W52923  18.288   8.041   1.828  0.3544 -0.0315  0.3827
10007W        W52924  17.226   4.020   4.185  0.3060 -0.3997  0.1931
10008W        W52925  19.777   6.654   1.331 -0.1136 -0.1891  0.2434
10009W        W52926  19.410   6.401   3.707  0.1487  0.0371 -0.1067
10010W        W52927  18.749   4.490  30.854  0.1197 -0.1898 -0.1014
10011W        W52928  22.543   6.613   1.360  0.1146 -0.0533  0.0023
10012W        W52929  20.773   6.913   4.108  0.0138  0.1034  0.0065
10013W        W52930  20.652   8.511   3.031  0.0854 -0.0877 -0.5078
10014W        W52931  20.772   8.924   2.433 -0.1349 -0.0079 -0.2093
10015W        W52932  20.801   5.839   1.519  0.1068 -0.0328 -0.0847
10016W        W52933  19.290   1.626   3.366  0.2335  0.0971 -0.1607
10017W        W52934  19.100   5.042   0.831  0.3825 -0.4676  0.1053
10018W        W52935  20.614   5.888   0.582 -0.0143  0.0939 -0.2736
10019W        W52936  21.178   6.323   3.097 -0.1027  0.2367  0.0112
10020W        W52937  17.799   5.763  31.639 -0.4777 -0.0973  0.0483
10021W        W52938  19.416   2.733   1.052  0.0708  0.0614 -0.3010
10022W        W52939  18.185   9.131   3.141  0.1406  0.0575  0.1392
10023W        W52940  24.032   8.515   2.947 -0.0519  0.1045  0.3157
10024W        W52941  19.831   6.619   7.399 -0.2729 -0.0807  0.0755
10025W        W52942  17.541   6.323   4.618  0.0820  0.0435  0.0253
10026W        W52943  20.148   6.033   4.008  0.1342 -0.1018 -0.1725
10027W        W52944  20.864   6.111   4.810 -0.1687 -0.2588  0.3876
10028W        W52945  19.591   5.155   7.125  0.2596 -0.0766  0.2369
10029W        W52946  20.560   8.423   2.493 -0.1196  0.3121 -0.0027
10030W        W52947  19.273   4.128   6.274 -0.1962  0.2951 -0.2334
10031W        W52948  20.788   6.137   5.725 -0.0849  0.0820  0.0728
10032W        W52949  19.850   6.217   3.535 -0.2440 -0.1092 -0.0814
10033W        W52950  18.749   7.422   2.878 -0.2443  0.5293  0.0587
10034W        W52951  19.576   3.439   5.583 -0.3196  0.0123 -0.2269
10035W        W52952  20.613   6.946   5.837 -0.1856 -0.0414  0.1980
10036W        W52953  21.192   4.682   5.281 -0.0625  0.0869 -0.0789
10037W        W52954  18.689   0.679   5.280  0.1770 -0.2761 -0.4091
10038W        W52955  21.483   5.437   7.135 -0.0625 -0.1807 -0.1398
10039W        W52956  18.654   6.867   5.504 -0.3445  0.0998  0.3070
10040W        W52957  18.970   5.502   5.673  0.0424 -0.0571  0.0185
10041W        W52958  19.497   3.934   6.698  0.2847 -0.1618  0.0527
10042W        W52959  20.991   5.812   4.013  0.0606 -0.0096 -0.2334
10043W        W52960  19.069   5.037   6.414  0.1437 -0.1038  0.1977
10044W        W52961  20.123   5.250   5.578  0.0881 -0.1035 -0.4088
10045W        W52962  19.973   6.357   4.985 -0.2089 -0.1340 -0.2737
10046W        W52963  18.158   5.179   4.582 -0.4134  0.1123 -0.0022
10047W        W52964  18.705   5.965   5.637 -0.0614  0.2690 -0.0457
10048W        W52965  19.859   4.891   8.347  0.2539 -0.0374 -0.2444
10049W        W52966  19.041   4.669   5.078  0.0941  0.1512  0.0997
10050W        W52967  19.972   5.197   6.081  0.1102  0.2543 -0.5136
10051W        W52968  19.676   7.299   4.503 -0.3328 -0.2323  0.1470
10052W        W52969  20.462   6.563   5.560 -0.0689  0.0826  0.1546
10053W        W52970  21.274   4.297   7.112  0.0963  0.0922  0.0244
10054W        W52971  18.968   8.641   3.488  0.3801 -0.1905  0.1262
10055W        W52972  18.009   9.154   4.752 -0.0619 -0.1042  0.1067
10056W        W52973  19.486   6.749   2.710 -0.0512  0.1656  0.0600
10057W        W52974  20.382   6.477   4.316  0.1381 -0.1149 -0.0214
10058W        W52975  23.310   6.204   5.839 -0.1120 -0.1815  0.1919
10059W        W52976  19.510  10.337   7.297 -0.0953 -0.3214  0.2745
10060W        W52977  17.598   9.278   5.459 -0.0928  0.1289  0.3119
10061W        W52978  20.393   7.810   5.976 -0.3919  0.0844  0.2041
10062W        W52979  21.597   7.255   5.941  0.0723 -0.2633  0.1111
10063W        W52980  20.697   6.246   7.508  0.2713  0.0581  0.1449
10064W        W52981  21.722   6.240   5.846  0.1296 -0.1825  0.0195
10065W        W52982  18.493   6.402   3.427  0.0455  0.1332 -0.0976
10066W        W52983  18.886   5.567   4.942  0.1660 -0.1030 -0.0253
10067W        W52984  19.537   4.531   7.798  0.0953  0.0570 -0.2284
10068W        W52985  16.987   8.361   3.789 -0.0526 -0.2166  0.2646
10069W        W52986  20.908   4.568   7.533  0.2628  0.1234  0.0216
10070W        W52987  17.488   8.483   3.753 -0.1009 -0.1727 -0.3719
10071W        W52988  19.204   4.508   3.080  0.1123 -0.1448 -0.1258
10072W        W52989  16.822   4.880   3.813 -0.1593  0.1717  0.0487
10073W        W52990  21.159   6.977   5.900  0.2022 -0.1293 -0.1553
10074W        W52991  19.263   4.265   5.331  0.1680  0.2063  0.0769
10075W        W52992  18.027   7.900   6.777  0.3640  0.1313 -0.3040
10076W        W52993  17.619   5.936   7.072  0.0025  0.1842 -0.0047
10077W        W52994  22.020   8.965   4.509 -0.0155  0.2918 -0.1654
10078W        W52995  19.852   4.287   4.434 -0.0634  0.2996  0.3829
10079W        W52996  19.780   4.884   5.726  0.2443 -0.3245 -0.5535
10080W        W52997  19.315   8.547   5.917  0.2819  0.1430  0.0662
10081W        W52998  16.629   6.109   2.653 -0.3051  0.1264 -0.1755
10082W        W52999  22.050   5.043   5.287 -0.1483 -0.1901  0.0870
10083W        W53000  19.955   6.943   1.832  0.0725 -0.2647  0.1956
10084W        W53001  21.223   8.400   4.526 -0.0137 -0.1318 -0.0043
10085W        W53002  19.307   4.384   4.361 -0.2613 -0.0943 -0.0038
10086W        W53003  20.308   5.697   6.618  0.1112 -0.2022 -0.2973
10087W        W53004  17.416   7.796   5.591 -0.0800  0.1169  0.1444
10088W        W53005  18.767   4.323   4.271  0.1247  0.1896 -0.0383
10089W        W53006  22.074   7.638   5.236  0.0946 -0.1432 -0.0659
10090W        W53007  19.180   6.126   6.786  0.2328  0.0827 -0.4090
10091W        W53008  19.773   4.839   6.816  0.3250 -0.0160  0.0516
10092W        W53009  20.862   6.511   4.496  0.1302 -0.2449  0.1101
10093W        W53010  21.956   7.157   5.502  0.1455 -0.0417  0.0175
10094W        W53011  19.171   3.393   3.853  0.1161  0.4043 -0.0476
10095W        W53012  20.419   4.724   4.616 -0.0567 -0.2170  0.1144
10096W        W53013  19.829   5.939   5.825  0.2578 -0.1192  0.1550
10097W        W53014  18.524   7.292   5.651 -0.3741  0.1737 -0.3100
10098W        W53015  18.124   4.971   5.530 -0.3714  0.0211  0.0499
10099W        W53016  22.605   7.251   7.169 -0.0181 -0.2134  0.0056
10100W        W53017  19.952   6.938   4.929 -0.0994 -0.0919  0.2401
10101W        W53018  17.744   8.145   6.414  0.0697  0.0205 -0.2118
10102W        W53019  18.854   4.580   6.677  0.4072  0.1312 -0.0522
10103W        W53020  21.201   7.312   5.541  0.2126 -0.0800  0.0957
10104W        W53021  18.734  10.116   2.124 -0.0935 -0.0041 -0.1173
10105W        W53022  21.511   6.989   5.289  0.1824  0.0280 -0.4762
10106W        W53023  18.793   6.079   4.353  0.0258  0.1659 -0.0205
10107W        W53024  17.537   4.475   6.153 -0.1190 -0.1096  0.0461
10108W        W53025  19.532   6.441   6.689 -0.2602 -0.4345 -0.4984
10109W        W53026  20.749   5.013   3.640 -0.0807 -0.0164  0.2310
10110W        W53027  16.429   5.588   4.843  0.1172  0.0902 -0.0897
10111W        W53028  21.231   3.820   5.521  0.3169 -0.4212  0.0014
10112W        W53029  18.731   6.868   3.092  0.1248 -0.0262 -0.0768
10113W        W53030  21.794   9.613   6.362 -0.1469  0.1992 -0.0113
10114W        W53031  20.125   5.799   5.278  0.1225 -0.3931  0.0863
10115W        W53032  19.953   7.555   3.013 -0.0235 -0.1708 -0.0225
10116W        W53033  16.044   3.828   4.626  0.3292 -0.0133  0.0700
10117W        W53034  18.559   4.761   5.281  0.2084  0.0094 -0.2807
10118W        W53035  18.216   4.197   6.769 -0.4439 -0.0594 -0.0240
10119W        W53036  17.448   2.922   6.806  0.2669  0.1224  0.1871
10120W        W53037  20.255   6.551   8.131 -0.2059 -0.0772 -0.0162
10121W        W53038  17.369   6.473   5.498 -0.0739  0.0135 -0.1317
10122W        W53039  20.230   4.680   5.587 -0.1869 -0.1156  0.2381
10123W        W53040  19.176   6.015   3.932  0.3093  0.1614 -0.1653
10124W        W53041  18.594   8.037   3.953  0.0377 -0.0964 -0.0882
10125W        W53042  20.682   4.652   5.765 -0.2528 -0.0280  0.0448
10126W        W53043  20.072   7.713   4.365  0.0178  0.0976 -0.2906
10127W        W53044  21.613   7.831   5.014  0.2152  0.1794 -0.2967
10128W        W53045  21.017   7.644   4.584 -0.0243  0.3904  0.0618
10129W        W53046  18.541   2.720   5.606 -0.1865  0.0354  0.1379
10130W        W53047  20.264   4.255   5.328 -0.1014 -0.1040  0.2643
10131W        W53048  18.938   8.790   5.172  0.0879 -0.0660 -0.1318
10132W        W53049  21.406   6.546   5.630 -0.0905  0.2416 -0.3430
10133W        W53050  20.316   4.722   3.435 -0.2079  0.1076 -0.0015
10134W        W53051  22.632   8.496   5.774  0.0701  0.1535  0.0439
10135W        W53052  18.905   6.401   5.743  0.0568 -0.3464  0.1658
10136W        W53053  20.986   6.172   6.556 -0.2759 -0.0480 -0.2497
10137W        W53054  19.969   4.278   5.781 -0.2344 -0.4025  0.1005
10138W        W53055  22.856   6.407   6.710  0.0763  0.2523 -0.2277
10139W        W53056  22.179   6.019   5.564 -0.0390 -0.1200 -0.1012
10140W        W53057  18.417   3.614   5.662  0.1789 -0.1427  0.1102
10141W        W53058  20.319   8.617   4.172  0.0374  0.0213 -0.0095
10142W        W53059  19.006   5.806   3.096  0.0394  0.0855  0.0612
10143W        W53060  18.495   6.739   4.972  0.3490 -0.2114  0.3450
10144W        W53061  17.848   7.348   4.377  0.3317  0.0168 -0.2155
10145W        W53062  20.572   6.135   5.238 -0.1339  0.1377 -0.3058
10146W        W53063  16.298   5.274   8.472 -0.0498 -0.2115 -0.0393
10147W        W53064  20.458   5.421   8.927 -0.3314  0.0050  0.1951
10148W        W53065  18.283   5.239   6.061  0.1684 -0.0953  0.0922
10149W        W53066  19.588   6.953   6.995 -0.0399  0.0775 -0.0106
10150W        W53067  20.017   4.543   4.831 -0.1486  0.0247  0.1876
10151W        W53068  19.773   5.402   3.593 -0.3428  0.0969 -0.2905
10152W        W53069  20.329   6.993   6.308  0.1531 -0.0515  0.0793
10153W        W53070  20.653   8.396   6.090 -0.1711  0.1322  0.1915
10154W        W53071  21.117   5.216   3.170  0.2055  0.1437  0.0379
10155W        W53072  20.306   5.925   2.825  0.2165 -0.1411  0.0299
10156W        W53073  18.824   7.168   6.366 -0.3102 -0.1526 -0.1526
10157W        W53074  20.519   6.892   4.601 -0.4544  0.2107  0.0725
10158W        W53075  19.927   5.753   4.831 -0.2275 -0.0291  0.2248
10159W        W53076  19.764   4.089   1.713 -0.0020 -0.0949 -0.0601
10160W        W53077  21.160   6.874   4.960 -0.0036 -0.1450  0.1114
10161W        W53078  19.345   5.129   5.652 -0.1957  0.1272 -0.1422
10162W        W53079  22.109   6.702   7.702 -0.0171 -0.0347 -0.1211
10163W        W53080  19.699   8.075   4.055  0.2875 -0.0092  0.0019
10164W        W53081  19.931   5.454   8.889  0.3427 -0.0450  0.1845
10165W        W53082  19.739   4.950   3.667  0.0628  0.0318 -0.2890
10166W        W53083  20.080   3.883   4.028  0.3830 -0.3921  0.3627
10167W        W53084  17.880   6.473   4.237  0.0091 -0.2425  0.1060
10168W        W53085  21.147   4.773   5.840  0.4392  0.1466  0.2929
10169W        W53086  21.082   4.191   3.936 -0.0257  0.1942 -0.0835
10170W        W53087  19.163   3.575   6.942 -0.2031  0.0228 -0.3090
10171W        W53088  19.767   5.737   7.301 -0.0225  0.0245  0.0535
10172W        W53089  19.164   7.304   3.989 -0.1439 -0.0008  0.0168
10173W        W53090  20.910   5.402   5.761  0.1932  0.0133  0.0317
10174W        W53091  18.588   4.571   3.268  0.3630 -0.1186 -0.2669
10175W        W53092  20.141   3.005   7.810  0.3920 -0.2124 -0.4354
10176W        W53093  19.392   5.697   6.908 -0.2164 -0.0165 -0.1302
10177W        W53094  18.536   7.212   5.164  0.2591  0.1132  0.2039
10178W        W53095  23.037   4.527   6.397  0.3568  0.4047 -0.2757
10179W        W53096  20.741   7.265   4.919 -0.1302 -0.0081 -0.1662
10180W        W53097  20.041   4.513   6.551  0.0293  0.2605 -0.0639
10181W        W53098  19.754   5.178   4.119  0.2083 -0.0829 -0.0152
10182W        W53099  18.073   6.611   4.750 -0.3059  0.5182 -0.0656
10183W        W53100  19.552   6.741   4.683  0.0831 -0.1062  0.2521
10184W        W53101  20.484   4.149   5.781 -0.3121  0.1019  0.2027
10185W        W53102  18.980   8.050   3.614  0.1765 -0.2376 -0.0884
10186W        W53103  17.644   4.907   5.212  0.0492  0.0334 -0.0270
10187W        W53104  20.745   7.500   8.331  0.2365  0.2667  0.2618
10188W        W53105  20.788   6.611   5.045  0.1593 -0.1808  0.0438
10189W        W53106  21.247   4.780   6.510 -0.2046 -0.0449 -0.2978
10190W        W53107  18.220   7.745   3.799 -0.0218  0.1525  0.1196
10191W        W53108  18.168   5.700   4.309 -0.2290 -0.0841 -0.1576
10192W        W53109  17.961   6.436   3.694  0.0030  0.1673  0.2290
10193W        W53110  22.363   5.420   5.367  0.0329 -0.1866 -0.0709
10194W        W53111  20.040   6.728   3.209  0.2083  0.0099  0.1014
10195W        W53112  18.539   5.338   7.339  0.2598  0.1412  0.0136
10196W        W53113  20.301   6.042   5.689  0.1956 -0.0390  0.2509
10197W        W53114  18.282   6.172   4.289  0.0785 -0.1985 -0.1186
10198W        W53115  21.568   6.668   6.073  0.2141 -0.2957 -0.0939
10199W        W53116  22.526   4.639   4.039 -0.2288  0.2064  0.2444
10200W        W53117  21.012   6.019   7.785 -0.0951 -0.1777 -0.0018
10201W        W53118  19.734   4.295   6.817  0.0726 -0.1567 -0.1127
10202W        W53119  18.337   4.428   6.228 -0.1075  0.3182 -0.2738
10203W        W53120  21.455   5.761   7.621  0.2073 -0.0172  0.0570
10204W        W53121  18.977   4.829   5.617 -0.0994 -0.0452  0.0212
10205W        W53122  17.788   8.216   3.443 -0.2008 -0.2284  0.1523
10206W        W53123  22.470   5.263   7.438 -0.0962 -0.4485  0.0454
10207W        W53124  19.022   4.247   3.524  0.0052 -0.2158 -0.0845
10208W        W53125  18.803   7.575   4.840 -0.1016 -0.0666 -0.1959
10209W        W53126  19.180   4.950   6.944  0.0226 -0.0486  0.2402
10210W        W53127  21.440   6.326   8.432  0.0264  0.0509  0.1971
10211W        W53128  21.253   6.083   5.831 -0.2424 -0.3583 -0.2070
10212W        W53129  19.426   4.756   5.370 -0.2339  0.0607 -0.1319
10213W        W53130  21.615   5.038   6.862  0.1429  0.3011  0.2298
10214W        W53131  22.259   6.429   5.818 -0.0616  0.2966 -0.0627
10215W        W53132  19.228   4.169   7.873  0.2293  0.0645  0.0384
10216W        W53133  19.316   5.891   7.537  0.3792 -0.2027 -0.2759
10217W        W53134  21.137   5.704   6.115  0.2814  0.0319 -0.1490
10218W        W53135  21.412   7.959   2.979  0.2135  0.4629  0.0589
10219W        W53136  20.276   4.912   7.011 -0.1572  0.2512 -0.0919
10220W        W53137  16.976   6.060   4.020 -0.2278 -0.2250 -0.3914
10221W        W53138  17.484   4.394   6.735 -0.0163  0.1324 -0.1071
10222W        W53139  19.417   5.733   4.899 -0.1246  0.0968  0.1401
10223W        W53140  20.213   4.687   6.108 -0.1622  0.0807  0.0787
10224W        W53141  19.281   8.332   6.448 -0.3839 -0.2759 -0.0424
10225W        W53142  17.201   7.236   2.264 -0.2459 -0.4082 -0.1463
10226W        W53143  19.144   7.892   5.173  0.1566  0.2069  0.2786
10227W        W53144  20.564   5.934   4.363  0.0228 -0.1462  0.1997
10228W        W53145  18.436   6.887   3.514  0.2726  0.0648  0.0248
10229W        W53146  21.498   4.524   4.870  0.3288 -0.0225 -0.1296
10230W        W53147  22.031   3.155   5.153 -0.1672  0.1993 -0.0828
10231W        W53148  22.928   6.740   4.414  0.1692  0.0006 -0.1564
10232W        W53149  19.464   5.845   8.455  0.0057 -0.0944 -0.1211
10233W        W53150  19.234   3.025   5.698  0.1942 -0.1677 -0.2068
10234W        W53151  20.203   8.963   3.297 -0.0335 -0.0232  0.1205
10235W        W53152  17.329   6.162   3.289  0.2458  0.3131  0.0118
10236W        W53153  22.283   8.419   8.344 -0.3013  0.0814 -0.1770
10237W        W53154  19.278   5.489   8.704 -0.3181  0.0886 -0.0899
10238W        W53155  19.423   5.652   5.571  0.0606 -0.0151  0.1780
10239W        W53156  17.678   4.443   4.905  0.0996  0.0251 -0.0463
10240W        W53157  21.697   4.706   5.355  0.0840  0.2365 -0.0158
10241W        W53158  21.496   6.054   4.824 -0.0125  0.0804  0.3821
10242W        W53159  17.356   5.578   3.565 -0.0133  0.0741 -0.2621
10243W        W53160  20.629   5.890   6.156  0.0495  0.1269  0.1713
10244W        W53161  20.154   6.053   6.231  0.0338  0.0310  0.2843
10245W        W53162  20.370   5.867   4.846 -0.1288  0.1079  0.0786
10246W        W53163  19.378   5.947   4.404 -0.1157  0.3310 -0.0977
10247W        W53164  19.508   5.552   6.028  0.1456  0.3277  0.4336
10248W        W53165  17.422   4.082   6.371 -0.1826  0.0948  0.0643
10249W        W53166  22.162   7.392   4.631 -0.1631 -0.3401 -0.0281
10250W        W53167  20.921   2.907   5.403  0.0010 -0.1844  0.0210
10251W        W53168  20.719   3.913   6.379  0.0013 -0.2009  0.0356
10252W        W53169  18.357   4.661   6.838  0.0325 -0.2187  0.4343
10253W        W53170  18.943   5.933   7.199  0.1795  0.2340  0.2526
10254W        W53171  17.864   3.954   8.440  0.0044 -0.2570  0.2353
10255W        W53172  21.103   5.888   8.732  0.0154 -0.0468 -0.0371
10256W        W53173  20.090   6.144   4.512 -0.0950 -0.0019 -0.1163
10257W        W53174  20.282   5.180   8.346  0.2334 -0.1382 -0.2419
10258W        W53175  21.988   4.687   4.911 -0.0227 -0.0745 -0.0473
10259W        W53176  18.903   5.518   3.895 -0.3417 -0.2801  0.0613
10260W        W53177  18.558   5.640   5.998 -0.0794 -0.3934  0.1310
10261W        W53178  20.324   3.562   8.391 -0.2280 -0.3526  0.0762
10262W        W53179  19.137   5.136   4.186 -0.0391  0.2772  0.1935
10263W        W53180  20.340   4.142   8.632  0.0557 -0.0256  0.1764
10264W        W53181  19.058   5.919   5.313 -0.0173  0.0226  0.0802
10265W        W53182  19.659   7.825   5.012 -0.3190 -0.0718 -0.0232
10266W        W53183  20.367   3.803   5.064  0.1691 -0.2127 -0.1654
10267W        W53184  19.453   4.958   6.124  0.1102  0.0983  0.2095
10268W        W53185  20.384   8.534   5.186 -0.1433  0.1899  0.0103
10269W        W53186  17.141   3.677   3.784 -0.1182 -0.0765  0.3477
10270W        W53187  19.339   6.872   3.650  0.0329 -0.0390 -0.0443
10271W        W53188  21.773   4.324   6.077  0.1535  0.1748 -0.3302
10272W        W53189  21.155   4.220   7.900 -0.0014 -0.2679  0.2188
10273W        W53190  20.695   4.635   3.058 -0.3722  0.1991  0.0245
10274W        W53191  20.331   3.811   7.735 -0.1612  0.2430  0.1070
10275W        W53192  16.960   5.864   3.531 -0.4057  0.1741  0.0480
10276W        W53193  20.297   3.571   6.319  0.0374 -0.1637  0.0184
10277W        W53194  20.409   6.514   7.122  0.1069  0.2114  0.0132
10278W        W53195  18.794   6.384   5.256  0.0306  0.1010  0.1706
10279W        W53196  20.225   7.499   3.934 -0.0901  0.0154  0.0234
10280W        W53197  19.244   4.952   9.869 -0.0931  0.1702  0.1369
10281W        W53198  21.466   5.610   5.754  0.0369  0.2706  0.0529
10282W        W53199  19.431   3.432   4.810  0.1208 -0.1472 -0.0914
10283W        W53200  20.125   6.083   7.107  0.1311 -0.1621 -0.2724
10284W        W53201  20.832   4.900   6.207 -0.0153 -0.0354  0.0891
10285W        W53202  19.267   7.365   6.406  0.2171 -0.3453  0.7783
10286W        W53203  20.994   4.213   5.712 -0.1075 -0.0422  0.4367
10287W        W53204  22.328   6.772   5.487  0.0503 -0.1415 -0.2439
10288W        W53205  20.672   7.341   3.751  0.0815 -0.0039 -0.0775
10289W        W53206  17.387   4.896   6.513 -0.0911  0.0391  0.0746
10290W        W53207  19.914   4.399   8.401 -0.3695  0.0421 -0.1162
10291W        W53208  21.034   6.527   6.070  0.1159  0.0114  0.0071
10292W        W53209  20.690   3.885   5.406 -0.0075  0.2645  0.1911
10293W        W53210  18.893   7.242   3.421  0.2442 -0.2312 -0.4696
10294W        W53211  20.263   5.620   5.998 -0.0688 -0.2499  0.1402
10295W        W53212  19.364   5.768   6.442 -0.1707  0.0882  0.1474
10296W        W53213  19.187   6.497   4.359 -0.0559 -0.0344  0.0274
10297W        W53214  20.499   7.727   4.704 -0.1563 -0.0554 -0.0308
10298W        W53215  19.506   7.734   4.350  0.2080  0.0175  0.1872
10299W        W53216  21.420   8.794   6.462 -0.0256 -0.4805  0.0905
10300W        W53217  21.551   4.398   4.064 -0.0895  0.1012 -0.1812
10301W        W53218  18.696   7.915   4.518  0.0284 -0.2345 -0.3246
10302W        W53219  16.678   7.493   3.251 -0.1380 -0.0875  0.0603
10303W        W53220  19.458   6.876   4.167 -0.0394 -0.0162 -0.1504
10304W        W53221  18.518   9.843   3.528 -0.0944  0.0400 -0.1373
10305W        W53222  21.725   5.367   8.267  0.0891  0.0645  0.0128
10306W        W53223  19.784   5.430   5.253 -0.4240  0.2678  0.0741
10307W        W53224  20.823   5.674   5.057 -0.0506  0.1185 -0.1125
10308W        W53225  21.274   7.434   5.025  0.1318  0.0118  0.0056
10309W        W53226  21.837   7.159   7.491 -0.2272  0.2211  0.0824
10310W        W53227  18.021   4.788   6.118  0.0183  0.2257 -0.1872
10311W        W53228  18.889   4.203   1.872  0.3285 -0.1327  0.1129
10312W        W53229  20.299   5.762   7.426  0.3423 -0.0406 -0.2196
10313W        W53230  20.459   3.523   5.876  0.1888 -0.1624 -0.1397
10314W        W53231  20.615   5.928   7.101  0.1360  0.1306 -0.0018
10315W        W53232  18.191   6.991   4.451 -0.0420 -0.0058  0.0126
10316W        W53233  16.746   5.175   3.070  0.0917  0.0525  0.0106
10317W        W53234  19.883   4.950   5.156 -0.0779 -0.2133 -0.0015
10318W        W53235  21.232   2.824   5.826 -0.1153 -0.1460  0.1686
10319W        W53236  18.395   6.488   2.496  0.3683 -0.2117 -0.1675
10320W        W53237  19.616   6.146   6.238 -0.1388  0.0151 -0.0025
10321W        W53238  18.557   8.437   3.663  0.0810 -0.0809 -0.2290
10322W        W53239  19.272   7.502   4.912  0.1929 -0.3022  0.0768
10323W        W53240  18.758   7.663   5.331 -0.0604  0.0183 -0.1906
10324W        W53241  18.529   4.509   4.831 -0.0339 -0.1022  0.0494
10325W        W53242  22.524   5.948   6.374 -0.1992 -0.0096  0.0220
10326W        W53243  18.422   6.977   6.004  0.0965  0.2395  0.3522
10327W        W53244  20.959   4.792   4.831  0.3456 -0.2601 -0.0353
10328W        W53245  17.258   6.777   5.000  0.0000  0.0671 -0.0172
10329W        W53246  20.592   6.157   3.853  0.0761 -0.1116  0.0768
10330W        W53247  18.983   7.463   6.029  0.0392 -0.0424 -0.2177
10331W        W53248  18.923   7.566   6.720  0.0174  0.0079  0.0952
10332W        W53249  20.475   5.048   2.384 -0.0831  0.1200 -0.4711
10333W        W53250  22.567   6.424   6.228 -0.0947  0.2073 -0.1724
10334W        W53251  19.411   5.587   4.064  0.0520 -0.0447  0.3096
10335W        W53252  20.247  10.082   5.229 -0.2213  0.1673 -0.1722
10336W        W53253  18.975   4.573   6.182  0.1089  0.4533 -0.1048
10337W        W53254  19.114   4.661   3.948 -0.1206  0.0933  0.2212
10338W        W53255  15.782   6.550   2.798 -0.0605 -0.2173 -0.0381
10339W        W53256  19.597   5.711   8.013  0.1547  0.1716  0.0216
10340W        W53257  21.075   7.529   6.577  0.0980  0.1709  0.1141
10341W        W53258  19.920   3.582   4.922  0.3074  0.0349  0.0518
10342W        W53259  21.055   9.586   4.205  0.0328  0.2554 -0.0313
10343W        W53260  20.826   7.019   6.304  0.2464  0.0022 -0.2318
10344W        W53261  20.855   8.033   2.234 -0.4167 -0.1303 -0.2519
10345W        W53262  20.381   6.856   5.107  0.0205 -0.0370 -0.1791
10346W        W53263  19.124   6.351   6.317 -0.0886 -0.1124 -0.1729
10347W        W53264  17.052   6.543   4.548  0.2951 -0.3046 -0.1265
10348W        W53265  19.966   8.282   5.355 -0.3776  0.0146  0.0598
10349W        W53266  21.452   6.260   6.304 -0.2892  0.1978  0.0134
10350W        W53267  19.379   4.622   6.452  0.0640 -0.1612 -0.1157
10351W        W53268  18.226   5.561   5.617  0.4089  0.2866 -0.1239
10352W        W53269  16.965   6.957   5.469  0.0389 -0.0844  0.0174
10353W        W53270  22.439   3.855   6.593  0.0307 -0.0116 -0.0918
10354W        W53271  20.387   4.103   9.175  0.1206 -0.0917  0.2011
10355W        W53272  19.498   5.855   1.747  0.0307  0.1573 -0.2215
10356W        W53273  19.717   4.291   6.246 -0.5282 -0.0223 -0.1452
10357W        W53274  20.696   5.416   6.279 -0.0368 -0.2019 -0.0062
10358W        W53275  21.435   8.768   5.901  0.0298 -0.1318 -0.0232
10359W        W53276  17.781   5.207   2.775  0.0576  0.3251  0.0303
10360W        W53277  20.171   7.279   5.949  0.1724  0.2112  0.0722
10361W        W53278  17.960   6.892   5.800 -0.0409 -0.1073  0.2818
10362W        W53279  18.806   6.287   3.093  0.0868  0.2178 -0.0284
10363W        W53280  21.058   7.059   4.484  0.2231  0.1021  0.0152
10364W        W53281  20.632   4.643   4.022 -0.0163 -0.1877 -0.0593
10365W        W53282  20.603   7.830   4.229 -0.3461  0.1249 -0.0046
10366W        W53283  19.790   4.373   5.319 -0.3044 -0.3478  0.1005
10367W        W53284  19.591   3.321   2.731  0.3901  0.0669 -0.1300
10368W        W53285  20.745   4.402   5.332  0.0434  0.1704 -0.2434
10369W        W53286  19.222   4.815   7.566  0.0113  0.0401  0.0887
10370W        W53287  18.597   6.571   4.411 -0.0104  0.0857 -0.0781
10371W        W53288  19.152   7.138   2.551  0.0683  0.0038  0.1360
10372W        W53289  18.676   7.144   4.688 -0.1672  0.2569 -0.2610
10373W        W53290  18.858   3.371   7.296 -0.1017 -0.0997 -0.0005
10374W        W53291  18.370   4.985   6.454  0.2384 -0.1683  0.3858
10375W        W53292  18.495   5.859   3.997 -0.2208  0.1593 -0.1241
10376W        W53293  18.483   4.679   5.784  0.1490  0.0421 -0.0340
10377W        W53294  20.798   5.930   3.318  0.1515 -0.0305  0.3095
10378W        W53295  18.692   4.396   7.160 -0.3366 -0.2480 -0.2815
10379W        W53296  19.441   3.433   6.583  0.3396  0.0710  0.0481
10380W        W53297  20.743   8.293   4.044  0.0825  0.0159  0.0255
10381W        W53298  20.414   8.014   2.718  0.1249 -0.2303  0.1194
10382W        W53299  19.508   3.698   6.125  0.0120  0.0996 -0.0902
10383W        W53300  22.786   6.790   7.463 -0.0337  0.0180 -0.1535
10384W        W53301  19.199   8.307   1.720  0.1238 -0.0223 -0.0615
10385W        W53302  19.474   4.453   5.825  0.4232  0.0535  0.0114
10386W        W53303  19.493   4.586   7.195  0.3146  0.3094 -0.3569
10387W        W53304  17.960   1.484   4.323  0.1937 -0.2655  0.2624
10388W        W53305  19.957   5.351   6.882 -0.0492  0.0656  0.0379
10389W        W53306  19.316   9.535   4.656 -0.1137  0.2930 -0.0128
10390W        W53307  20.183   4.494   2.963  0.0131 -0.0224  0.0010
10391W        W53308  20.419   6.221   6.696  0.0202  0.1442 -0.1498
10392W        W53309  21.872   7.936   5.617  0.1598 -0.1701 -0.1325
10393W        W53310  17.705   3.469   4.638 -0.0046 -0.0012 -0.0767
10394W        W53311  18.793   6.168   2.393 -0.2129 -0.0663 -0.1479
10395W        W53312  19.242   7.790   7.774  0.3180 -0.1834 -0.1303
10396W        W53313  21.837   8.316   3.158  0.0662 -0.0436  0.0260
10397W        W53314  20.274   3.402   5.445  0.0147 -0.0244 -0.2234
10398W        W53315  19.406   4.664   3.502 -0.1225  0.1037  0.1678
10399W        W53316  17.705   5.037   7.405 -0.0490  0.3036 -0.2463
10400W        W53317  19.748   7.628   7.710 -0.1025  0.5098 -0.1603
10401W        W53318  21.666   6.356   5.213  0.3412  0.0907 -0.2156
10402W        W53319  17.765   4.482   5.391 -0.0521  0.0266 -0.2904
10403W        W53320  20.272   5.383   5.063 -0.0306 -0.1687  0.2702
10404W        W53321  19.090   8.777   4.100  0.1036 -0.2494  0.2470
10405W        W53322  18.281   6.296   5.315 -0.1774 -0.5621  0.2194
10406W        W53323  19.454   5.400   4.515 -0.0413  0.0892  0.1425
10407W        W53324  19.615   5.854   9.089 -0.4295 -0.2914 -0.0221
10408W        W53325  22.032   6.319   4.753  0.0877  0.2253  0.0370
10409W        W53326  23.467   7.302   7.517 -0.5145 -0.3298 -0.0192
10410W        W53327  20.862   4.470   3.562 -0.1294 -0.0357  0.2036
10411W        W53328  21.646   7.639   3.297  0.0379  0.1618  0.1583
10412W        W53329  21.498   8.186   5.340  0.0638  0.1214  0.1163
10413W        W53330  22.020   9.268   5.361 -0.1474 -0.0091  0.0995
10414W        W53331  21.113   6.632   6.499 -0.0301 -0.4257 -0.5302
10415W        W53332  22.563   6.343   7.474 -0.1350  0.6045 -0.1118
10416W        W53333  17.800   2.724   6.064 -0.1177 -0.2019  0.2079
10417W        W53334  18.919   5.398   3.423  0.0801 -0.0818 -0.0071
10418W        W53335  19.049   4.206   4.860  0.0519 -0.0177  0.2037
10419W        W53336  21.588   4.795   6.178  0.1408  0.0839  0.2948
10420W        W53337  19.824   4.845   7.501  0.0342  0.0168 -0.3256
10421W        W53338  20.255   5.208   3.582  0.3420 -0.0358  0.1556
10422W        W53339  19.070   7.109   6.834 -0.1625  0.0413  0.3142
10423W        W53340  20.765   4.985   7.929 -0.0314 -0.0231 -0.3775
10424W        W53341  18.655   6.858   8.905 -0.0728 -0.2224  0.2124
10425W        W53342  18.700   6.139   6.135  0.1740  0.0472  0.1093
10426W        W53343  21.612   4.251   8.858 -0.1847 -0.1828 -0.2490
10427W        W53344  20.085   4.440   7.101 -0.1931 -0.5367 -0.1316
10428W        W53345  19.322   5.023   8.495 -0.0905 -0.0035  0.0700
10429W        W53346  20.474   5.779   7.997 -0.1309 -0.2815  0.1740
10430W        W53347  22.582   6.970   6.235  0.2083 -0.0903 -0.1638
10431W        W53348  21.405   7.642   9.807 -0.1552  0.1350 -0.1470
10432W        W53349  19.428   7.324   8.025 -0.2159 -0.2044 -0.0737
10433W        W53350  18.242   5.282   9.494 -0.1230 -0.0438 -0.0221
10434W        W53351  19.074   4.121   9.592 -0.1492  0.1660  0.2717
10435W        W53352  18.187   6.063   8.396 -0.3512  0.1918  0.1784
10436W        W53353  22.586   6.983   8.995  0.1976  0.3136 -0.2535
10437W        W53354  18.827   7.340   7.178 -0.1065  0.1947 -0.1812
10438W        W53355  15.527   6.042   9.212 -0.1779 -0.0090 -0.1520
10439W        W53356  17.809   5.456   9.104  0.0910 -0.0075 -0.3510
10440W        W53357  21.362   7.705   9.068  0.2052 -0.2162  0.1902
10441W        W53358  19.839   6.393   8.436  0.1199  0.0841 -0.1620
10442W        W53359  20.761   5.088   6.736  0.0259 -0.0776 -0.0512
10443W        W53360  19.405   4.380   8.342  0.1433  0.0726 -0.0862
10444W        W53361  17.509   6.952   6.170  0.0710  0.0826  0.2918
10445W        W53362  19.946   8.033   9.257 -0.1219  0.1477 -0.0916
10446W        W53363  20.393   6.183   8.437  0.0420 -0.1350  0.0804
10447W        W53364  22.789   4.228   9.197  0.2273  0.1746 -0.1999
10448W        W53365  18.324   8.009   7.185 -0.3153  0.2614  0.2492
10449W        W53366  18.698   4.979   9.332 -0.2386 -0.0707  0.0459
10450W        W53367  17.883   7.377   7.034  0.1244  0.3252 -0.0206
10451W        W53368  19.296   7.709   8.754  0.1271 -0.2912  0.0395
10452W        W53369  21.401   7.811   5.838  0.1687  0.2571 -0.1017
10453W        W53370  21.344   7.188   7.329 -0.0481 -0.1181 -0.0331
10454W        W53371  19.606   6.298   4.647 -0.2391  0.1419  0.3442
10455W        W53372  18.684   7.144   8.114 -0.0427 -0.2264 -0.0949
10456W        W53373  21.085   6.408   9.246  0.4181  0.0998 -0.1651
10457W        W53374  20.852   7.924   5.779 -0.0146  0.0017 -0.0712
10458W        W53375  20.178   7.571   8.843  0.1842  0.0953  0.0663
10459W        W53376  18.446   8.522   7.652 -0.0950 -0.1705  0.3186
10460W        W53377  18.797   6.136   7.709 -0.3166 -0.2281  0.1817
10461W        W53378  20.320   4.807   7.572  0.2794  0.0258  0.1228
10462W        W53379  19.582   6.194   7.169 -0.1047  0.1674  0.1915
10463W        W53380  21.281   4.396   6.166  0.1584 -0.3868 -0.1441
10464W        W53381  20.128   4.524   9.642  0.0243  0.0636  0.5026
10465W        W53382  21.333   9.726   8.804 -0.0702  0.1297 -0.1428
10466W        W53383  17.718   6.015   8.199  0.3744 -0.1759 -0.2211
10467W        W53384  20.531   9.168   9.569  0.0018 -0.2256 -0.3387
10468W        W53385  17.367   5.730   9.403 -0.3233 -0.2529 -0.0380
10469W        W53386  21.945   7.159   7.999  0.0206  0.0869 -0.1201
10470W        W53387  19.136   6.411   7.221 -0.2088  0.2243  0.0919
10471W        W53388  22.112   6.620   6.273 -0.3163  0.0047  0.0127
10472W        W53389  21.344   9.030   7.568  0.1203  0.0829  0.0219
10473W        W53390  21.640   5.818   6.229 -0.1700  0.0110 -0.1353
10474W        W53391  18.808   6.821   7.131  0.2549  0.0685  0.1566
10475W        W53392  18.776   4.554   7.738  0.1766 -0.1171 -0.3130
10476W        W53393  21.286   5.399   9.631  0.2041  0.1696  0.4334
10477W        W53394  19.346   7.372   7.485  0.1346  0.0057 -0.0261
10478W        W53395  22.132   6.669   8.209 -0.1398 -0.0444 -0.1921
10479W        W53396  20.655   6.027   9.086 -0.1628  0.1050 -0.2217
10480W        W53397  22.074   5.219   7.761  0.0665  0.0072 -0.0528
10481W        W53398  22.083   7.081   9.587 -0.0831  0.2501  0.0815
10482W        W53399  18.634   6.145   6.826 -0.0365  0.2662 -0.1097
10483W        W53400  19.763   6.732   5.355  0.0806  0.4552  0.0830
10484W        W53401  23.150   3.204   8.397  0.1368  0.0512 -0.0965
10485W        W53402  20.886   6.383   8.740  0.3356 -0.1501  0.0168
10486W        W53403  18.229   8.535   9.852  0.1884  0.0932  0.0924
10487W        W53404  17.008   9.672   7.888 -0.1755  0.1170 -0.1812
10488W        W53405  17.865   6.382   7.816 -0.0936 -0.1916  0.0149
10489W        W53406  17.788   5.713   6.628  0.1198 -0.2256 -0.1886
10490W        W53407  16.717   6.865   8.752 -0.0415  0.1177 -0.1779
10491W        W53408  21.325   8.275   7.760 -0.1425  0.0489 -0.1195
10492W        W53409  22.278   3.537   8.066  0.1109 -0.0019  0.0291
10493W        W53410  22.118   4.464   8.875 -0.0898  0.0962 -0.0929
10494W        W53411  18.913   6.487   8.575 -0.0175  0.0769 -0.0342
10495W        W53412  21.601   8.581   7.342  0.0035  0.0235 -0.1190
10496W        W53413  22.889   5.494   7.513 -0.0016  0.1117 -0.1323
10497W        W53414  20.927   6.091   8.280  0.2709  0.0031 -0.0906
10498W        W53415  17.461   4.595   9.308  0.3039 -0.2545 -0.4598
10499W        W53416  18.650   6.299   8.184  0.0061 -0.0215 -0.1327
10500W        W53417  17.772   6.834   8.404  0.0736 -0.1876  0.0046
10501W        W53418  18.396   4.295   9.978  0.0627 -0.0320 -0.0119
10502W        W53419  17.116   5.162   9.029  0.1911 -0.0543 -0.1549
10503W        W53420  19.656   7.518   9.060  0.1251 -0.3424  0.0835
10504W        W53421  18.884   6.718   7.609  0.0795 -0.0928  0.0234
10505W        W53422  22.183   6.973   5.946  0.0067  0.0283  0.0590
10506W        W53423  20.762   5.289   8.396 -0.1716  0.1349 -0.0252
10507W        W53424  21.240   7.669   7.065 -0.0521  0.1900 -0.0243
10508W        W53425  16.608   4.058   7.051 -0.2826  0.4608 -0.1898
10509W        W53426  19.870   5.594   6.405 -0.0510 -0.0179 -0.2522
10510W        W53427  20.953   7.843   7.574 -0.3760 -0.1468 -0.1079
10511W        W53428  21.660   8.124   6.886 -0.1707 -0.3535  0.0125
10512W        W53429  20.033   5.084   7.886 -0.3022 -0.2498 -0.3488
10513W        W53430  23.739   7.912   7.318  0.0916  0.1253 -0.0576
10514W        W53431  20.037   4.460   8.880 -0.2385  0.0773 -0.0361
10515W        W53432  19.914   1.295   7.103  0.1063 -0.1519 -0.1333
10516W        W53433  18.042   7.215   8.718  0.4104 -0.2204 -0.0272
10517W        W53434  17.491   4.173   7.372 -0.0313 -0.0744  0.0261
10518W        W53435  20.878   7.004   7.888 -0.1486  0.1524  0.0196
10519W        W53436  19.873   7.894   8.122  0.4260  0.0166  0.2184
10520W        W53437  18.607   7.924   8.135 -0.0402  0.1725  0.2165
10521W        W53438  20.248   8.137   7.846 -0.0861 -0.0923 -0.0196
10522W        W53439  21.040   4.632   9.741 -0.0711 -0.0865 -0.2159
10523W        W53440  18.767   2.921   6.122 -0.2059 -0.2016 -0.0913
10524W        W53441  20.529   3.342   7.931  0.2234  0.4595 -0.2365
10525W        W53442  23.330   2.725   8.024  0.0553 -0.1135  0.1311
10526W        W53443  23.827   8.088   8.643  0.0056 -0.1046 -0.0534
10527W        W53444  20.813   4.053   7.009 -0.1092 -0.4305  0.1346
10528W        W53445  19.546   3.404   7.896 -0.2259 -0.1310  0.0233
10529W        W53446  21.737   6.226   9.335 -0.0729  0.0500 -0.0740
10530W        W53447  20.350   8.115   8.740 -0.0561 -0.0176  0.0981
10531W        W53448  20.835   3.730   7.935  0.2144  0.0756 -0.1722
10532W        W53449  22.026   6.211   8.643  0.1518 -0.0001 -0.0956
10533W        W53450  18.929   7.019   8.524 -0.1418 -0.0370  0.0931
10534W        W53451  19.375   8.056   7.340  0.0832  0.1170  0.1132
10535W        W53452  19.143   4.773   8.110 -0.3050  0.4471  0.3468
10536W        W53453  18.724   5.171   8.180  0.1704  0.1675  0.2726
10537W        W53454  17.603   6.814   8.875  0.0717  0.1255 -0.3575
10538W        W53455  18.914   8.256   5.963  0.2968 -0.4895 -0.1763
10539W        W53456  21.311   5.828   9.269  0.1801 -0.0855 -0.1939
10540W        W53457  23.055   1.815   9.145  0.0160 -0.0163  0.2086
10541W        W53458  21.871   3.503   8.920 -0.0248 -0.0403 -0.2603
10542W        W53459  21.300   5.512   8.472  0.4017 -0.2529 -0.4273
10543W        W53460  18.938   5.384   6.913 -0.1939 -0.0437 -0.0905
10544W        W53461  18.497   5.887   8.769 -0.1394 -0.0895 -0.1701
10545W        W53462  20.758   7.756   8.759 -0.1332  0.3464  0.2459
10546W        W53463  19.646   3.277  10.197 -0.1627 -0.0206 -0.1062
10547W        W53464  19.527   5.049   8.028 -0.1287 -0.0121  0.0376
10548W        W53465  20.863   8.017   6.997  0.0292  0.1290 -0.1037
10549W        W53466  19.955   6.920   8.369  0.0999 -0.0612 -0.0068
10550W        W53467  18.379   8.229   9.251  0.0914 -0.1659  0.0428
10551W        W53468  20.267   7.637   7.584 -0.1472 -0.0018  0.1870
10552W        W53469  20.467   6.734   7.614 -0.1797 -0.2676  0.0890
10553W        W53470  23.848   6.114   9.794 -0.0130  0.2103  0.1722
10554W        W53471  20.217   6.249   7.666 -0.0639 -0.0286 -0.0673
10555W        W53472  19.087  31.092   9.267  0.3326 -0.1180 -0.0537
10556W        W53473  17.625   8.101   8.139 -0.2388 -0.2457  0.3699
10557W        W53474  18.444   4.756   8.329 -0.3905  0.1446 -0.3375
10558W        W53475  17.548   7.153   6.784 -0.1159  0.1327  0.2279
10559W        W53476  22.330   2.670   8.796 -0.1949 -0.2701 -0.0436
10560W        W53477  21.444   7.141   7.823 -0.1861  0.2488 -0.1101
10561W        W53478  17.975   4.709   9.539 -0.0349  0.1838 -0.0352
10562W        W53479  18.208   5.768   9.277 -0.1361 -0.0726  0.3073
10563W        W53480  17.356   7.483   7.237  0.0923 -0.0625 -0.2454
10564W        W53481  22.473   3.435   6.791 -0.1047  0.3337  0.1154
10565W        W53482  18.755   4.059   6.193 -0.3469  0.2814  0.1380
10566W        W53483  22.905   3.747   9.270 -0.0415 -0.0710  0.0497
10567W        W53484  21.215   6.578   7.834 -0.0892 -0.4046 -0.2818
10568W        W53485  17.501   7.641   7.790 -0.3524 -0.0062  0.2623
10569W        W53486  21.201   7.566   8.618  0.2251  0.1364 -0.0418
10570W        W53487  19.161   5.975   8.018 -0.0971 -0.0210 -0.1574
10571W        W53488  17.832   7.709   8.464  0.0814  0.1700 -0.0468
10572W        W53489  22.215   6.690   8.773 -0.1799  0.0203 -0.0204
10573W        W53490  17.791   8.177   8.631  0.1043 -0.0999 -0.3945
10574W        W53491  20.671   3.714   9.185 -0.2377  0.0960  0.3736
10575W        W53492  17.686   5.960   9.065 -0.0422  0.0496  0.0186
10576W        W53493  22.614   6.823   8.430 -0.0386  0.3125  0.2388
10577W        W53494  21.292   7.097   9.733 -0.2064 -0.1615  0.0299
10578W        W53495  19.092   4.111   8.621 -0.0962  0.3127 -0.1420
10579W        W53496  22.433   7.626   7.477  0.3015  0.0078  0.1148
10580W        W53497  20.657   5.581   9.383  0.1213 -0.3471 -0.1045
10581W        W53498  18.442   6.414   8.633 -0.4420  0.0179 -0.2820
10582W        W53499  18.961   7.987   8.478  0.1888  0.0121 -0.1069
10583W        W53500  21.310   5.213   9.160  0.1970  0.2811  0.2595
10584W        W53501  24.721   5.147   9.096  0.1821 -0.2351  0.0153
10585W        W53502  20.173   7.993   6.621 -0.0807 -0.1986  0.1914
10586W        W53503  17.348   8.341   8.504 -0.0961  0.0941  0.2709
10587W        W53504  21.816   2.672   6.789  0.0070  0.1423  0.0407
10588W        W53505  20.269   6.980   7.961  0.0722 -0.2308 -0.1930
10589W        W53506  18.819   5.510   9.181 -0.3927  0.0556  0.0234
10590W        W53507  20.134   3.812   9.547  0.0819  0.0307  0.2588
10591W        W53508  20.220   7.048   8.924 -0.1891 -0.1349  0.2225
10592W        W53509  19.290   6.483   9.289 -0.3621 -0.2711  0.0449
10593W        W53510  20.193   5.106   9.222  0.1411  0.0946 -0.2348
10594W        W53511  18.803   4.909   7.267 -0.0172  0.2358 -0.0530
10595W        W53512  18.140   6.243   9.496 -0.2477 -0.3269 -0.0200
10596W        W53513  21.981   6.225   8.102  0.4595  0.3929 -0.0454
10597W        W53514  21.283   6.645   8.858 -0.2116  0.3521 -0.1788
10598W        W53515  21.055   4.842   8.810 -0.2078 -0.1179  0.0143
10599W        W53516  19.782   6.554   8.883 -0.1229  0.0437 -0.0989
10600W        W53517  20.136   6.679   9.312 -0.1621  0.1027 -0.2965
10601W        W53518  20.005   5.975   8.138  0.1460 -0.2021 -0.2172
10602W        W53519  19.863   7.426   8.344 -0.0544  0.1716  0.0490
10603W        W53520  20.621   5.768   8.628  0.1481 -0.2160 -0.2853
10604W        W53521  20.544   4.946   8.767 -0.2406  0.0967 -0.1649
10605W        W53522  20.538   7.211   7.621  0.2652 -0.1339 -0.1871
10606W        W53523  21.418   4.920   7.450 -0.1931  0.0152 -0.0293
10607W        W53524  20.956   5.413   8.862 -0.0872 -0.0092  0.0095
10608W        W53525  21.361   5.888   8.156  0.2066  0.0626 -0.2136
10609W        W53526  21.797   5.511   6.759 -0.2960  0.0208  0.0230
10610W        W53527  17.225   7.140   8.942  0.0325  0.1987  0.0880
10611W        W53528  18.022   5.793   7.503 -0.0541  0.2435  0.0785
10612W        W53529  20.074   8.304   8.338 -0.4136  0.1015  0.2193
10613W        W53530  21.220   5.045   8.292  0.0426 -0.0451 -0.0230
10614W        W53531  20.382   4.660   8.364 -0.0679 -0.2030 -0.0925
10615W        W53532  16.888   7.906   8.515  0.0040 -0.2415  0.1721
10616W        W53533  17.638   5.350   6.969 -0.0792  0.1784 -0.0308
10617W        W53534  19.719   5.382   8.341 -0.0874 -0.2182 -0.0243
10618W        W53535  22.252   6.193   9.638 -0.0694  0.0377 -0.3628
10619W        W53536  19.806   2.690   8.013 -0.2389  0.0037  0.1678
10620W        W53537  18.057   6.532   6.078 -0.0849  0.0943  0.1086
10621W        W53538  19.891   4.096   7.965 -0.0845  0.2177  0.0683
10622W        W53539  20.906   6.754   7.425  0.0071 -0.0699  0.0009
10623W        W53540  19.266   8.671   9.115 -0.1636 -0.1819  0.2292
10624W        W53541  20.686   6.947   8.371  0.1584  0.1294 -0.0638
10625W        W53542  19.721   6.093   7.711  0.1570 -0.1122 -0.0382
10626W        W53543  17.843   6.356   8.599 -0.1628  0.1946 -0.1456
10627W        W53544  22.276   6.644   9.367 -0.1407 -0.0549 -0.2797
10628W        W53545  21.509   7.975   9.478  0.0679  0.0661 -0.1027
10629W        W53546  19.325   6.394   7.672 -0.1730 -0.1017  0.1260
10630W        W53547  21.012   5.422   7.126 -0.0376  0.0131  0.0073
10631W        W53548  18.334   6.917   8.387 -0.0367  0.0579 -0.2868
10632W        W53549  19.386   7.269   8.535 -0.0020 -0.1734  0.1134
10633W        W53550  18.117   6.140   8.932 -0.1085  0.0810 -0.1447
10634W        W53551  20.890   7.918   6.292  0.1264 -0.0022 -0.1491
10635W        W53552  19.850   7.107   7.670 -0.0026  0.1458 -0.1016
10636W        W53553  19.286   6.812   6.308  0.0053  0.1258  0.0793
10637W        W53554  21.237   7.982   6.627 -0.1855  0.0371  0.1642
10638W        W53555  18.332   7.085   7.131  0.1538  0.0358  0.1466
10639W        W53556  20.288   7.253   8.417  0.1100  0.1756  0.1162
10640W        W53557  19.654   7.366   3.988  0.1898 -0.0663  0.0957
10641W        W53558  19.986   6.921   6.675 -0.4248 -0.0478 -0.1027
10642W        W53559  17.678   6.899   7.861  0.0805 -0.0683  0.0477
10643W        W53560  21.081   4.773   7.058  0.0556  0.3012 -0.3370
10644W        W53561  20.750   4.386   8.836 -0.0932 -0.3046  0.0531
10645W        W53562  21.639   3.366   7.984 -0.1337  0.1837 -0.5714
10646W        W53563  18.815   7.495   8.570  0.0101 -0.4273  0.0536
10647W        W53564  19.865   5.861   6.779  0.1693 -0.2756 -0.0211
10648W        W53565  22.837   7.992   6.658 -0.1573  0.0416  0.3106
10649W        W53566  19.185   5.447   8.189 -0.0646 -0.1856  0.0921
10650W        W53567  19.016   5.989   9.055 -0.3760  0.0078  0.0933
10651W        W53568  18.746   5.482   8.661 -0.0633  0.1559 -0.0769
10652W        W53569  21.059   6.984   6.953 -0.1086  0.1760  0.2232
10653W        W53570  20.450   4.670   9.194 -0.0194  0.0260  0.2271
10654W        W53571  19.502   8.931   7.962  0.4066  0.3824  0.2347
10655W        W53572  20.312   9.654   8.766 -0.0358 -0.0559 -0.1740
10656W        W53573  21.042   8.320   9.315  0.0033  0.1304  0.0892
10657W        W53574  18.013   4.101   7.243  0.1905 -0.0130  0.2925
10658W        W53575  20.802   3.852   8.466 -0.0443  0.0774  0.2051
10659W        W53576  17.679   3.501   8.704  0.2485  0.1123 -0.0021
10660W        W53577  18.420   5.496   7.861  0.1715  0.1629 -0.5722
10661W        W53578  19.804   4.777   9.179  0.0158 -0.0408 -0.0068
10662W        W53579  21.585   5.543   8.880 -0.1088 -0.1095 -0.0495
10663W        W53580  19.598   2.952   8.390 -0.1854 -0.0825 -0.1306
10664W        W53581  18.946   5.981   8.567 -0.2163  0.1482  0.1240
10665W        W53582  21.223   3.755   9.376  0.0948  0.2221 -0.0844
10666W        W53583  18.035   4.869   8.696 -0.1156 -0.0023 -0.1917
10667W        W53584  19.670   4.109   8.797 -0.1060 -0.3035  0.1914
10668W        W53585  16.860   8.433   8.432  0.0394 -0.0939  0.1730
10669W        W53586  18.134   8.066   8.190  0.0215 -0.1286  0.0038
10670W        W53587  20.465   2.949   9.532 -0.1358  0.0022 -0.1526
10671W        W53588  20.329   4.337   7.531 -0.3454 -0.0043 -0.1344
10672W        W53589  22.497   2.057   8.157  0.0944  0.0437  0.0470
10673W        W53590  19.244   6.702   5.468 -0.2206  0.2903 -0.0804
10674W        W53591  22.143   7.341   7.051 -0.1621 -0.0543  0.0155
10675W        W53592  22.923   7.860   9.300  0.1317 -0.1744 -0.0646
10676W        W53593  17.205   6.924   8.528  0.1506  0.2869  0.2356
10677W        W53594  20.627   6.509   9.151 -0.3502 -0.2527  0.2397
10678W        W53595  22.647  10.025   8.418  0.2199 -0.1098  0.4629
10679W        W53596  22.433   3.194   8.879 -0.0938 -0.0272 -0.2979
10680W        W53597  17.565   5.077   9.320  0.2788  0.0135 -0.1808
10681W        W53598  17.339   7.724   8.284 -0.1633 -0.2770  0.1410
10682W        W53599  20.803   3.227   9.194  0.1541  0.1683 -0.2122
10683W        W53600  19.801   6.592   7.883 -0.1060  0.0584  0.5065
10684W        W53601  21.771   5.453   9.311  0.0923 -0.2186  0.0407
10685W        W53602  17.356   6.309   8.050 -0.1971  0.1359  0.1780
10686W        W53603  22.527   6.221   8.602  0.0440 -0.0427  0.2049
10687W        W53604  19.345   6.811   7.988 -0.2956  0.4626  0.0241
10688W        W53605  22.057   3.944   8.852  0.2686  0.0821  0.1691
10689W        W53606  21.622   3.175   8.471  0.1427 -0.0619  0.0275
10690W        W53607  22.266   4.810   8.118 -0.1125 -0.0369 -0.2642
10691W        W53608  20.208   9.450   9.793 -0.1758 -0.1269  0.0462
10692W        W53609  21.284   3.557   8.348  0.0564 -0.0578 -0.0122
10693W        W53610  20.097   4.561   7.972 -0.0598  0.1156 -0.0091
10694W        W53611  17.345  10.129   9.105 -0.2303  0.3636 -0.3056
10695W        W53612  18.271   5.974   6.405  0.0324 -0.3021 -0.0022
10696W        W53613  19.906   8.455   8.779 -0.0183  0.1505  0.0651
10697W        W53614  18.618   8.553   9.564 -0.1247  0.2645 -0.1559
10698W        W53615  16.945   5.413   9.560  0.1228 -0.1183 -0.0008
10699W        W53616  20.025   5.268   7.373  0.0685  0.0132 -0.2394
10700W        W53617  21.654   6.662   7.367  0.0502  0.0172 -0.3419
10701W        W53618  18.965   7.580   8.089 -0.0938 -0.0235 -0.0974
10702W        W53619  18.417   5.330   8.979  0.0481 -0.0468  0.2272
10703W        W53620  21.658   6.771   8.016 -0.1046 -0.1712  0.5331
10704W        W53621  24.706   8.309   7.447 -0.2573 -0.1499 -0.0180
10705W        W53622  19.596   6.922   9.261  0.0570 -0.1872  0.2086
10706W        W53623  18.992   7.048   5.121 -0.2120 -0.0234  0.2488
10707W        W53624  17.460   4.956   8.409 -0.0671  0.1179  0.1040
10708W        W53625  18.989   4.468   9.216  0.0411  0.0890 -0.2368
10709W        W53626  20.803   5.673   7.512 -0.1072 -0.1033 -0.2671
10710W        W53627  21.562   5.337   7.693  0.1984  0.7599 -0.1979
10711W        W53628  17.927   7.290   7.589  0.1688 -0.0347 -0.0691
10712W        W53629  19.411   6.253   8.692  0.0512 -0.0206 -0.0417
10713W        W53630  24.232   5.924   9.449  0.1803  0.1346  0.3346
10714W        W53631  20.060   2.714   8.642  0.0924  0.1399  0.3353
10715W        W53632  17.692   6.446   9.147  0.1134  0.1630  0.0637
10716W        W53633  22.041   2.869   9.607 -0.1293  0.2499  0.1510
10717W        W53634  18.370   6.627   6.954  0.2491 -0.0572 -0.0461
10718W        W53635  19.929   3.221   8.945  0.2058  0.0274 -0.0715
10719W        W53636  19.774   6.320   9.379 -0.1228  0.2193  0.1145
10720W        W53637  18.107   5.972   7.014  0.1449  0.0079  0.1783
10721W        W53638  19.512   1.894   9.534  0.1095 -0.0750 -0.0451
10722W        W53639  21.823   6.518   8.962  0.2122 -0.2162 -0.0433
10723W        W53640  19.152   6.786   8.929 -0.2071 -0.2248 -0.2920
10724W        W53641  19.284   5.542   9.227 -0.0427  0.1280  0.0195
10725W        W53642  22.552  10.253   9.692  0.1374 -0.4860  0.2470
10726W        W53643  20.092   8.854   8.435 -0.1311  0.0986 -0.0582
10727W        W53644  22.675   6.495   8.997 -0.0243 -0.0535 -0.1208
10728W        W53645  18.278   6.077   7.889  0.2315  0.2761  0.0123
10729W        W53646  18.923   5.659   7.767  0.0644  0.2189  0.0471
10730W        W53647  20.152   5.825   9.182  0.0149  0.0762  0.0819
10731W        W53648  21.907   4.280   8.488 -0.0047 -0.2013  0.0911
10732W        W53649  20.866   5.658   6.733  0.0490  0.1386  0.2736
10733W        W53650  18.610   3.467   8.071 -0.0440  0.0403  0.2666
10734W        W53651  18.455   9.006   9.768  0.0116 -0.0829  0.0565
10735W        W53652  18.671   5.782   8.238  0.2338 -0.3819 -0.0031
10736W        W53653  18.209  11.593   3.586  0.0005  0.0965 -0.1893
10737W        W53654  20.971  11.154  31.062  0.1368  0.0585 -0.0191
10738W        W53655  20.836   8.875  29.376 -0.2117  0.1676  0.2743
10739W        W53656  21.794  11.194  31.745 -0.2094  0.3332  0.0968
10740W        W53657  19.524   8.300   2.543 -0.1918  0.4100 -0.0391
10741W        W53658  20.347  12.123   0.560  0.0421 -0.2571 -0.2243
10742W        W53659  17.106   6.552   2.490 -0.2041  0.1757  0.1050
10743W        W53660  20.742  10.432   0.691  0.0331  0.0108 -0.2223
10744W        W53661  21.478  11.126   0.627  0.0391 -0.3048  0.2212
10745W        W53662  20.492  10.854  29.094 -0.1755  0.0368  0.2546
10746W        W53663  19.684   9.638   0.226 -0.0017 -0.3556  0.1501
10747W        W53664  20.195  10.439   1.686  0.0278  0.1110 -0.1800
10748W        W53665  21.018   6.414  31.082  0.1923 -0.4341  0.0619
10749W        W53666  16.313   8.057   3.010 -0.1866 -0.0456 -0.0034
10750W        W53667  19.481  11.560   1.873  0.2061  0.1397 -0.1340
10751W        W53668  19.080   8.059  30.526 -0.1206  0.0383  0.0669
10752W        W53669  18.584   9.289   2.289 -0.1302 -0.3197  0.0068
10753W        W53670  20.677   8.891   3.412  0.0925  0.0767 -0.0163
10754W        W53671  21.244  10.519  30.450 -0.2009 -0.2535 -0.3286
10755W        W53672  19.685   8.299   2.095 -0.0760  0.1430  0.2157
10756W        W53673  19.243   8.691   2.450  0.1845 -0.0950 -0.2275
10757W        W53674  19.455   9.749   1.022  0.2010 -0.1200 -0.0860
10758W        W53675  18.973   7.820   0.891  0.2587 -0.0911 -0.1275
10759W        W53676  17.159   8.600   1.617 -0.1720  0.0295  0.1075
10760W        W53677  20.460   8.828   1.629  0.2384  0.1560 -0.1204
10761W        W53678  21.506   7.923   1.394 -0.0434  0.4788 -0.0575
10762W        W53679  20.340   8.950   2.120  0.2186  0.0644  0.1390
10763W        W53680  18.627  11.685   1.905  0.0133 -0.0358  0.2770
10764W        W53681  20.832  10.611   0.093  0.2150 -0.0018 -0.0471
10765W        W53682  20.287   9.083   3.800 -0.0198  0.1033 -0.0518
10766W        W53683  18.977  10.281   0.344 -0.0664 -0.1470 -0.0184
10767W        W53684  20.295  13.267   2.700  0.3394  0.0917 -0.0610
10768W        W53685  19.691  12.098  31.703  0.1034 -0.3801  0.2611
10769W        W53686  21.293  10.690  31.556 -0.2343 -0.0068  0.0406
10770W        W53687  19.455  11.039   3.092  0.1263 -0.2400 -0.2706
10771W        W53688  18.400  11.437   4.872 -0.0240 -0.1272 -0.2672
10772W        W53689  17.331   8.897   1.142 -0.0752 -0.0218  0.0001
10773W        W53690  19.870  12.538   2.248  0.4767 -0.1762 -0.2423
10774W        W53691  18.444  13.007   4.368  0.0533 -0.0543 -0.0844
10775W        W53692  19.889   8.861   0.676  0.0442  0.4556 -0.0569
10776W        W53693  20.306  10.312  31.794  0.2437 -0.0040 -0.2078
10777W        W53694  18.673  10.049  30.867 -0.2199 -0.0658  0.0094
10778W        W53695  19.292  11.535   1.087  0.0977  0.2390  0.0157
10779W        W53696  16.939   9.422   1.646 -0.1167  0.0685 -0.4648
10780W        W53697  18.667   9.219   1.424 -0.3165 -0.0237  0.0055
10781W        W53698  17.747   9.495   3.865  0.1979  0.0235 -0.1714
10782W        W53699  19.726  11.533   0.276 -0.1237 -0.1107  0.0080
10783W        W53700  20.066  10.410  30.900  0.2720  0.1492  0.0085
10784W        W53701  18.069   8.354   0.099 -0.2072  0.4983  0.4101
10785W        W53702  21.896   8.563   0.862  0.0824 -0.0393  0.1012
10786W        W53703  20.387   9.328   2.482  0.0728 -0.0906  0.1917
10787W        W53704  19.325  11.055   2.362 -0.0767  0.0275 -0.0607
10788W        W53705  17.562   8.175   2.463 -0.1301  0.2995  0.4029
10789W        W53706  18.869  10.621   2.203  0.3716 -0.2685  0.2984
10790W        W53707  18.900  11.074   1.305  0.0922  0.0437  0.0314
10791W        W53708  21.479   9.409   2.021  0.2731  0.0971  0.1827
10792W        W53709  16.927  10.454   2.949 -0.0408 -0.2185 -0.1224
10793W        W53710  18.981   8.267   2.743 -0.0892 -0.1269 -0.1532
10794W        W53711  22.176  10.611  30.375  0.0821 -0.0774  0.0338
10795W        W53712  21.697  10.711   2.481 -0.0366  0.0600  0.2343
10796W        W53713  19.428  14.434   0.541  0.0922 -0.0475 -0.2009
10797W        W53714  18.494   8.419   0.568  0.0070  0.0415  0.3514
10798W        W53715  18.371  11.223   6.915  0.1271  0.1562  0.0524
10799W        W53716  17.171   7.879   2.637 -0.1335 -0.0796 -0.1238
10800W        W53717  20.413   7.609   1.274  0.1861  0.2688 -0.0652
10801W        W53718  19.832   9.923   3.770 -0.0776 -0.0224  0.1786
10802W        W53719  18.007  11.851   4.020  0.1181 -0.0035  0.3168
10803W        W53720  22.657   6.950   1.868  0.2044  0.1053  0.1264
10804W        W53721  17.911  11.151   2.889  0.1494 -0.0789 -0.0626
10805W        W53722  19.985  10.641   4.501  0.0967 -0.2158  0.3737
10806W        W53723  22.232  11.416   0.082 -0.2815  0.2221  0.0381
10807W        W53724  19.154   9.040   1.474 -0.1077  0.1506  0.1001
10808W        W53725  20.126   9.578   2.945 -0.0916  0.1766 -0.0079
10809W        W53726  18.742  10.058  31.800  0.2705  0.1166 -0.1079
10810W        W53727  17.419  12.020   1.616  0.0666  0.0005  0.1194
10811W        W53728  21.861   9.406   1.327 -0.0388 -0.0661 -0.2903
10812W        W53729  20.500  10.848  31.606 -0.1792 -0.1520  0.0327
10813W        W53730  17.881   9.805   1.258 -0.1603 -0.0200 -0.1288
10814W        W53731  19.736   8.194   2.972 -0.0842  0.0156  0.0042
10815W        W53732  19.562   9.691   2.849 -0.4662 -0.3009  0.4002
10816W        W53733  17.525   9.667   0.405 -0.2221 -0.2255  0.1581
10817W        W53734  17.898  10.662   1.187 -0.2610 -0.1240  0.1328
10818W        W53735  17.047   7.521   1.815  0.3787 -0.1296  0.0249
10819W        W53736  17.839   6.791   3.212  0.0507 -0.2296  0.2391
10820W        W53737  19.974   9.897   2.544 -0.0976  0.0372 -0.0048
10821W        W53738  23.380   9.938   1.472  0.0193 -0.1452  0.2194
10822W        W53739  17.547   5.591   3.041 -0.1342 -0.1554  0.4085
10823W        W53740  22.481   7.907   0.756  0.3045  0.0934  0.1132
10824W        W53741  16.927   7.798  30.872  0.0818 -0.2021  0.0907
10825W        W53742  19.985  11.877  30.884 -0.1508 -0.0277  0.0115
10826W        W53743  25.029   8.704   2.603 -0.0944  0.0874  0.1426
10827W        W53744  20.534  10.601  30.913 -0.0801  0.3463  0.3378
10828W        W53745  18.330   8.446   2.158  0.0514  0.0729  0.2469
10829W        W53746  18.810   9.769   0.773  0.2942 -0.3326 -0.1754
10830W        W53747  18.178  10.973   2.089 -0.0964  0.0164  0.3825
10831W        W53748  19.542  10.129   2.526 -0.1993  0.3152  0.0814
10832W        W53749  20.121  11.351   2.404 -0.0040 -0.0383  0.2003
10833W        W53750  17.181   8.803   0.476 -0.1119 -0.2013  0.0394
10834W        W53751  21.398  10.557   2.109  0.5420  0.1829  0.0241
10835W        W53752  21.568   7.541   1.061  0.2471  0.0892  0.1291
10836W        W53753  18.032   9.601   0.205  0.2913  0.4329  0.2031
10837W        W53754  21.573  10.053   2.955  0.0917 -0.1168  0.2510
10838W        W53755  22.392  11.206   0.865 -0.1496  0.0728 -0.0764
10839W        W53756  20.884  11.969   1.640 -0.0027  0.0935 -0.0354
10840W        W53757  20.801  13.934   1.246  0.2782 -0.0614 -0.1947
10841W        W53758  17.815   8.225   1.986 -0.2474 -0.1369 -0.0658
10842W        W53759  18.349   7.931   0.227  0.2787 -0.0001  0.0006
10843W        W53760  19.017  11.962   0.978  0.1813  0.2601 -0.2259
10844W        W53761  18.686  12.081   1.521 -0.1664 -0.0585 -0.0148
10845W        W53762  20.521   8.438   0.667  0.2650 -0.1743 -0.0003
10846W        W53763  21.150  11.201   1.007 -0.1810 -0.0433  0.0498
10847W        W53764  20.993  11.555   0.154  0.1562  0.1159 -0.0399
10848W        W53765  19.122   8.561  31.168 -0.3253 -0.1673  0.2473
10849W        W53766  20.188   8.081   3.894  0.1875 -0.1435 -0.1637
10850W        W53767  20.044  11.370   3.415  0.2793 -0.2114  0.0839
10851W        W53768  19.847  11.330   1.623 -0.1204 -0.0067 -0.3368
10852W        W53769  21.614   8.039   0.008 -0.1372 -0.1781  0.0779
10853W        W53770  21.927  13.691  31.793 -0.0412  0.1534  0.2986
10854W        W53771  16.440  10.185  31.620  0.2810 -0.3085  0.2377
10855W        W53772  18.365  10.412   0.719  0.3319  0.0595  0.1228
10856W        W53773  19.797  10.767   1.664  0.0907 -0.0491  0.0100
10857W        W53774  21.049   9.633   1.193  0.0362  0.2255  0.1684
10858W        W53775  15.253  10.900   4.014  0.0713  0.1321  0.2060
10859W        W53776  20.710  10.307   3.208 -0.2219 -0.1538 -0.1522
10860W        W53777  17.603   7.471   2.492 -0.1012  0.0193  0.0417
10861W        W53778  18.521  10.370   2.644 -0.2260  0.1298 -0.0926
10862W        W53779  22.860   8.582   1.396 -0.2190  0.1477 -0.1278
10863W        W53780  20.332   9.646   1.041  0.1509 -0.1448  0.1635
10864W        W53781  19.827   9.137   3.015  0.0024 -0.2075 -0.1430
10865W        W53782  22.572   9.024   1.462  0.2689 -0.0318 -0.1662
10866W        W53783  21.818   9.232  30.476 -0.1330  0.0205  0.4243
10867W        W53784  18.242   8.263   1.337 -0.2155  0.0772  0.1707
10868W        W53785  15.838   9.873   3.150 -0.0868  0.5423  0.2032
10869W        W53786  18.396  11.271   1.106 -0.0893 -0.0345 -0.1702
10870W        W53787  18.137  10.234   1.348  0.3122  0.0875 -0.2289
10871W        W53788  19.901  10.729  31.723 -0.2316 -0.1220  0.3291
10872W        W53789  22.267  10.160   0.041 -0.0108 -0.0766 -0.1543
10873W        W53790  17.576  10.068   2.137 -0.0033 -0.0076  0.1118
10874W        W53791  20.691  11.904   3.729 -0.0044  0.0326  0.1030
10875W        W53792  21.133   9.893   3.096 -0.2484  0.0928 -0.1350
10876W        W53793  17.615   8.705   1.751 -0.0545 -0.2130  0.1376
10877W        W53794  19.043   9.315   0.550 -0.0256  0.2313  0.1795
10878W        W53795  22.201   6.746   1.723 -0.3077 -0.2500 -0.0601
10879W        W53796  16.031   9.320  30.920 -0.0262  0.0736 -0.0805
10880W        W53797  20.721   8.832   3.929 -0.0362 -0.3435 -0.1889
10881W        W53798  19.172   7.874  31.892 -0.1720  0.2153  0.1420
10882W        W53799  20.521   6.659   3.073  0.0156  0.4041 -0.0338
10883W        W53800  22.104   9.003   2.468  0.2110 -0.1613  0.1706
10884W        W53801  20.325   9.318   0.334  0.1407  0.0655  0.0923
10885W        W53802  19.180   8.590   1.286 -0.0632  0.1242 -0.0113
10886W        W53803  17.857   7.735  29.443  0.1380 -0.5023 -0.2241
10887W        W53804  19.544   9.196   0.590 -0.0071 -0.1038  0.2116
10888W        W53805  18.431  10.838   1.671  0.0811  0.0524 -0.0318
10889W        W53806  17.587  10.668   1.748 -0.1114 -0.4103 -0.0871
10890W        W53807  21.254  12.148   2.157 -0.0978  0.1536 -0.0512
10891W        W53808  22.189   8.167   2.131 -0.0552 -0.3629  0.3435
10892W        W53809  19.002   9.146   3.114 -0.0469 -0.0324 -0.1827
10893W        W53810  22.216   7.375   0.179 -0.0721 -0.1390  0.0334
10894W        W53811  20.130  11.374   0.498 -0.1768 -0.4160 -0.2093
10895W        W53812  18.979  10.812   0.376 -0.2138  0.2464  0.1707
10896W        W53813  19.451   7.401   2.074 -0.1169  0.1723 -0.0230
10897W        W53814  19.752  11.080   2.091  0.1584 -0.0778 -0.2066
10898W        W53815  19.477  10.140  29.435  0.1879 -0.1112 -0.4115
10899W        W53816  19.554  11.843   1.499 -0.0776  0.0721 -0.0310
10900W        W53817  19.335  12.668   1.591 -0.1750 -0.0450  0.3049
10901W        W53818  21.804   8.094   2.636 -0.3231  0.0840  0.0152
10902W        W53819  17.529  12.600   0.110 -0.0898  0.0322  0.0574
10903W        W53820  20.362   8.080   0.271  0.0146 -0.4016  0.2783
10904W        W53821  18.453   8.709   0.124 -0.2115  0.2404  0.0082
10905W        W53822  21.733   7.480   0.021  0.2800 -0.1301  0.4793
10906W        W53823  20.630  11.966   1.153  0.0990 -0.1140  0.0612
10907W        W53824  18.129   6.372   2.085  0.0182 -0.2289  0.1773
10908W        W53825  20.176  10.548   0.658 -0.0406 -0.0089 -0.0537
10909W        W53826  17.056  11.206   2.469 -0.0437  0.0620  0.0983
10910W        W53827  19.580   9.144   1.794  0.2630 -0.0209 -0.2203
10911W        W53828  20.525   8.315  30.331  0.2917  0.3714  0.0865
10912W        W53829  20.117   8.852   4.869 -0.1066  0.0800 -0.1536
10913W        W53830  18.737   9.664   1.854  0.1564 -0.1295  0.2401
10914W        W53831  19.765   8.134   0.537  0.0975 -0.2751 -0.0063
10915W        W53832  20.471   9.884   2.469 -0.0601 -0.0514  0.3044
10916W        W53833  19.174   9.921   2.062 -0.0971 -0.0494 -0.3120
10917W        W53834  17.721  11.202   1.822  0.2031  0.0472 -0.1765
10918W        W53835  21.664  10.675   0.575  0.2241 -0.1425  0.0388
10919W        W53836  17.353   7.747   2.167  0.0746 -0.1848 -0.1353
10920W        W53837  18.202   9.088   0.803 -0.1901  0.2220 -0.0441
10921W        W53838  19.757   9.617   1.702  0.0581  0.1640 -0.0258
10922W        W53839  18.798   8.688   2.898 -0.1096 -0.1954  0.0255
10923W        W53840  19.271   9.719   0.541  0.0952 -0.0184  0.0873
10924W        W53841  18.170   8.967   2.238 -0.1600 -0.3549  0.1631
10925W        W53842  21.344  11.551   1.806 -0.1151  0.0612 -0.0258
10926W        W53843  20.116  10.857   2.289 -0.2381  0.2029  0.0340
10927W        W53844  18.486  10.543   4.205  0.2057  0.0407 -0.3630
10928W        W53845  17.011  11.752   2.679  0.3685 -0.0217  0.1317
10929W        W53846  18.115   8.530   1.719  0.1861 -0.1661 -0.0013
10930W        W53847  21.299  10.414   0.963 -0.1247 -0.0756  0.1363
10931W        W53848  19.872   8.828   2.249 -0.1539  0.1539 -0.2013
10932W        W53849  20.433   8.376  31.870 -0.1452 -0.4417  0.0343
10933W        W53850  17.220   8.160   3.405  0.0801 -0.1267  0.0059
10934W        W53851  17.611  10.528   0.301  0.4055 -0.2935  0.1057
10935W        W53852  17.949   9.036   1.796 -0.1101  0.1523 -0.1458
10936W        W53853  18.274  12.138   1.141 -0.2083 -0.0721  0.0115
10937W        W53854  17.371  11.036  31.069 -0.0148 -0.3431  0.2481
10938W        W53855  17.514  10.169   1.145  0.1098 -0.0299  0.0365
10939W        W53856  23.930   8.161  31.561  0.1137  0.0602 -0.1030
10940W        W53857  20.424  11.030  31.154 -0.2916  0.2636  0.0265
10941W        W53858  19.071  10.068   1.089  0.1080  0.3577  0.3280
10942W        W53859  21.193   8.964   3.605 -0.0820  0.0514 -0.2387
10943W        W53860  18.265  10.816  30.350  0.3592 -0.0810  0.2456
10944W        W53861  20.129   7.185   4.480 -0.1214  0.1823  0.1416
10945W        W53862  18.254   7.139   3.112  0.0651  0.3662 -0.0899
10946W        W53863  20.312  11.448   1.456  0.2729 -0.1296  0.3141
10947W        W53864  17.517  10.288   2.577  0.1783  0.2517  0.1279
10948W        W53865  22.464  11.559   2.961  0.0778 -0.0813  0.0562
10949W        W53866  19.096   8.228   2.275  0.2029  0.3317  0.0749
10950W        W53867  20.844   7.386   1.107  0.2551 -0.0300 -0.0755
10951W        W53868  18.804   9.208   0.129  0.3186  0.2070  0.0570
10952W        W53869  18.619  12.232   2.026 -0.1882 -0.1187  0.3749
10953W        W53870  21.225  10.414   3.119  0.2207 -0.1064  0.2464
10954W        W53871  19.901  10.448   0.262  0.2102  0.0804 -0.1621
10955W        W53872  21.289   8.429  31.958 -0.0313 -0.1934  0.1927
10956W        W53873  16.346   8.634   1.992  0.1817 -0.1696  0.1400
10957W        W53874  21.421   9.548  30.759 -0.0111 -0.0621 -0.2333
10958W        W53875  20.423   9.436  30.627 -0.0809 -0.0297  0.0044
10959W        W53876  18.877  10.481   0.784 -0.2648 -0.0860 -0.1716
10960W        W53877  19.621   7.319   2.650  0.0863 -0.0814  0.1457
10961W        W53878  20.084  11.942   1.434  0.4340  0.1498  0.1772
10962W        W53879  20.706   8.618   2.050  0.2942  0.0994 -0.1066
10963W        W53880  20.806   9.344   0.767 -0.0190 -0.0808  0.2616
10964W        W53881  20.338   9.149   0.807  0.0724 -0.0128  0.2095
10965W        W53882  18.316  10.639   2.999 -0.1955 -0.1110  0.1743
10966W        W53883  19.321   8.805   2.988  0.1053  0.0178  0.0074
10967W        W53884  18.280  11.142   3.857 -0.0283  0.3785 -0.1552
10968W        W53885  21.966   7.840   0.321 -0.1920 -0.0382  0.0485
10969W        W53886  20.284   6.723   1.312  0.0033  0.0911 -0.0483
10970W        W53887  23.790   8.171   0.128  0.1686  0.2427  0.3078
10971W        W53888  18.672  10.587  31.139 -0.4323 -0.0689 -0.0660
10972W        W53889  17.841   8.006   1.298 -0.1442  0.2618 -0.1131
10973W        W53890  20.204  10.048   2.044  0.1119  0.1296  0.0429
10974W        W53891  20.888   6.801  30.375 -0.3193 -0.1127 -0.0476
10975W        W53892  21.199   9.222   2.596  0.3610  0.1703 -0.1974
10976W        W53893  18.870  11.263   0.012 -0.4813  0.1145 -0.0224
10977W        W53894  19.847  11.606   1.185  0.3964  0.3201  0.1544
10978W        W53895  20.283  10.062   0.813  0.0721 -0.0434  0.2031
10979W        W53896  18.664   8.915   0.565 -0.0303  0.2140  0.1079
10980W        W53897  17.333  12.872   3.547  0.0532 -0.0495  0.1336
10981W        W53898  16.984   6.761  29.676 -0.0327 -0.3615  0.0743
10982W        W53899  19.051   9.204  30.726  0.0333  0.1204 -0.2535
10983W        W53900  19.700  10.381   3.527 -0.2508  0.1551  0.0801
10984W        W53901  21.036  10.790   2.398  0.0553  0.0389  0.0073
10985W        W53902  21.803   7.321   0.605 -0.0074  0.0190  0.1085
10986W        W53903  20.190   8.201   4.397  0.2076 -0.0394 -0.0958
10987W        W53904  17.898   9.611   1.735 -0.0376 -0.2468 -0.3982
10988W        W53905  19.585   6.614   1.937 -0.0052 -0.0843 -0.2089
10989W        W53906  18.604  12.078   0.743  0.0682 -0.2294 -0.0210
10990W        W53907  17.359   8.887   2.883  0.2854  0.1795  0.1575
10991W        W53908  17.865  11.254  31.084  0.2977  0.0879  0.0399
10992W        W53909  19.305   8.409   3.766  0.2362 -0.1842 -0.2226
10993W        W53910  22.560  10.234   0.659  0.2251  0.1334  0.0956
10994W        W53911  20.329  10.697   0.194  0.1425  0.2338  0.3034
10995W        W53912  21.545   8.937   2.860 -0.3248 -0.1844  0.1627
10996W        W53913  17.744   9.217   2.647  0.0042  0.1024 -0.0023
10997W        W53914  19.197   9.355   1.061 -0.1798 -0.0683  0.2009
10998W        W53915  18.328  10.464   2.164 -0.3178  0.0914  0.1252
10999W        W53916  21.972   8.606   1.882  0.1495 -0.0437 -0.1101
11000W        W53917  18.529  10.835   2.472  0.1411 -0.0485 -0.0531
11001W        W53918  15.108   7.739   3.514  0.0257  0.0934  0.1447
11002W        W53919  20.879  10.736   1.889 -0.0004  0.1993  0.2272
11003W        W53920  20.446  10.665   1.269 -0.0892  0.1478  0.0974
11004W        W53921  18.466   8.883   1.876  0.1723 -0.0417 -0.1319
11005W        W53922  20.727  11.703   2.912 -0.1123  0.1070 -0.4293
11006W        W53923  15.950  13.987   3.483  0.0817 -0.3826  0.5657
11007W        W53924  16.601  10.487   2.084  0.0647 -0.0614  0.3277
11008W        W53925  18.160  11.669   0.958  0.2922 -0.1502 -0.0222
11009W        W53926  21.928  11.673  30.181 -0.0178  0.0990 -0.1229
11010W        W53927  19.316  10.516   1.554 -0.2844 -0.2972 -0.0880
11011W        W53928  21.057  10.857   0.499 -0.2219  0.0182  0.1893
11012W        W53929  19.323  10.158  31.707 -0.0134 -0.2795 -0.1817
11013W        W53930  17.217  10.457   1.385  0.0312  0.0830  0.1700
11014W        W53931  17.924  11.582  30.349  0.0904  0.0994  0.2816
11015W        W53932  19.965  10.874  29.940 -0.0330 -0.3493  0.0201
11016W        W53933  18.433   9.486   0.563  0.0236  0.0274  0.5218
11017W        W53934  20.650  11.090   1.420 -0.1681  0.1080 -0.0271
11018W        W53935  23.510   7.885  31.799 -0.0516 -0.3477  0.1795
11019W        W53936  23.606   7.091   1.039 -0.1486  0.1653 -0.0234
11020W        W53937  19.887   9.714  31.677  0.0893 -0.5292  0.1062
11021W        W53938  18.807  11.076   5.253 -0.2510 -0.0419 -0.2269
11022W        W53939  19.689  10.201   1.640 -0.2488  0.0461  0.0308
11023W        W53940  20.978  10.042   0.292 -0.3082  0.2035 -0.1671
11024W        W53941  17.889  11.648   2.396  0.1477  0.0979  0.0835
11025W        W53942  21.514  10.556   5.073 -0.2851 -0.2609 -0.0281
11026W        W53943  17.489  11.842   2.742 -0.0857  0.2381  0.4025
11027W        W53944  22.599  13.137   2.904  0.0800  0.3696 -0.0153
11028W        W53945  18.163   9.935   0.920 -0.2381  0.0264  0.1122
11029W        W53946  19.331   9.703  31.841  0.0922 -0.0795  0.0521
11030W        W53947  21.492   8.801   2.332 -0.2350 -0.1055  0.1379
11031W        W53948  19.717   8.925  31.678  0.1525  0.0166  0.0851
11032W        W53949  20.644  10.274   1.765  0.1204  0.0177 -0.0920
11033W        W53950  19.194  12.164   1.409  0.0700  0.2642 -0.5590
11034W        W53951  19.800  10.172   0.709  0.0805 -0.1011 -0.0580
11035W        W53952  17.479  10.953   1.225  0.1146 -0.0185 -0.0289
11036W        W53953  18.577   7.163   1.101 -0.3946  0.0918  0.0530
11037W        W53954  24.119   9.092   1.346 -0.0324  0.1503  0.5147
11038W        W53955  18.385   9.062   2.696  0.1351  0.2468  0.0739
11039W        W53956  21.720   8.764   3.301 -0.0594  0.2028  0.4349
11040W        W53957  18.118  11.311   0.537  0.2065 -0.4387 -0.3265
11041W        W53958  19.919  12.645   1.683  0.1540 -0.1064  0.1251
11042W        W53959  19.239   9.584   1.626 -0.2680  0.0987  0.0973
11043W        W53960  16.667   8.829   3.861 -0.2075  0.0861  0.0533
11044W        W53961  19.982   9.632   0.631  0.2250 -0.0540  0.5090
11045W        W53962  21.019  11.110   3.253  0.0252  0.2195 -0.0355
11046W        W53963  18.864  10.684  30.191 -0.0689  0.1821 -0.0920
11047W        W53964  18.759  11.578   1.029 -0.2415 -0.2170  0.0252
11048W        W53965  18.554   8.019   0.879 -0.1627 -0.0210 -0.1094
11049W        W53966  20.328   9.795  31.580 -0.3247  0.1174  0.3180
11050W        W53967  17.058   9.822  31.455 -0.1784  0.1010  0.2241
11051W        W53968  20.175   9.266   1.414 -0.1528 -0.0886  0.0875
11052W        W53969  20.298  11.607   0.929 -0.1847 -0.0118  0.0532
11053W        W53970  18.530  11.109   0.405 -0.1053  0.1437 -0.1306
11054W        W53971  21.392  11.846  31.436  0.2842 -0.3700  0.0289
11055W        W53972  20.914   9.412   2.215  0.0552  0.3134 -0.0067
11056W        W53973  19.395  10.543   1.067 -0.0371  0.1860 -0.0875
11057W        W53974  22.295  11.768   2.213  0.1077 -0.1047  0.0384
11058W        W53975  19.649  11.511   2.330  0.1341  0.0560  0.2861
11059W        W53976  19.848   8.838   1.282  0.0796 -0.1484  0.1261
11060W        W53977  21.865  12.017   2.207 -0.1247  0.1210 -0.1402
11061W        W53978  20.527  11.594   2.450  0.0098 -0.0518  0.0126
11062W        W53979  20.074   9.947   0.065  0.0528  0.0801  0.1569
11063W        W53980  19.897   9.799   1.256  0.1579 -0.3875  0.2198
11064W        W53981  17.837  10.769  31.819 -0.0770 -0.0470  0.0257
11065W        W53982  22.887   8.361   2.871  0.0671 -0.1903  0.2571
11066W        W53983  20.521  10.419   2.412 -0.1245 -0.0409  0.0945
11067W        W53984  18.313   9.486  31.380  0.1762  0.1689 -0.2155
11068W        W53985  22.077   8.529   2.476 -0.0300 -0.1244  0.2248
11069W        W53986  19.208  10.554   3.324 -0.0821  0.0335  0.0696
11070W        W53987  18.308  10.952   5.058 -0.0370  0.2067 -0.4095
11071W        W53988  17.980   9.881  31.193  0.2664 -0.0008  0.1833
11072W        W53989  19.396  10.655   2.658 -0.2463  0.1826 -0.0486
11073W        W53990  19.019  12.279   0.377  0.2620  0.2035  0.1343
11074W        W53991  18.878  14.184  29.939 -0.0962 -0.2435 -0.0071
11075W        W53992  21.629  12.828   1.896 -0.4970  0.0398  0.1098
11076W        W53993  21.281  11.072   0.094 -0.3819 -0.0216 -0.1481
11077W        W53994  20.907  10.250   1.210 -0.0165 -0.1471 -0.1469
11078W        W53995  18.750  10.371   3.305 -0.0114  0.1360 -0.2039
11079W        W53996  21.423   8.652   0.666  0.0671  0.2543 -0.0915
11080W        W53997  21.486   8.820   1.211 -0.2681  0.2216  0.0740
11081W        W53998  17.970  10.176   2.397  0.1957 -0.0168 -0.1973
11082W        W53999  18.072   7.315   1.009 -0.2505 -0.2262  0.1870
11083W        W54000  19.249   9.378  30.251  0.1362 -0.1082 -0.0835
11084W        W54001  18.908   8.885   1.025 -0.1218 -0.1517  0.1873
11085W        W54002  17.625   9.853   3.467  0.0779 -0.0377 -0.1800
11086W        W54003  17.514  10.061   1.613 -0.0156  0.0151  0.3012
11087W        W54004  18.044   8.247   0.875 -0.0603 -0.2423 -0.0681
11088W        W54005  18.020   9.630   2.409  0.1778 -0.0476 -0.0673
11089W        W54006  20.297  10.476  31.327  0.0338 -0.1603 -0.1314
11090W        W54007  20.475   7.116   1.584  0.1693 -0.0564  0.2421
11091W        W54008  18.298   9.916   2.083 -0.0204  0.0950  0.2015
11092W        W54009  19.393  10.729  31.605 -0.1107  0.1632  0.0398
11093W        W54010  20.544  12.093  31.549 -0.2267 -0.0471 -0.0785
11094W        W54011  20.162   7.824   0.654 -0.1690 -0.1816 -0.0912
11095W        W54012  21.121   8.976   1.979 -0.3046  0.6794 -0.2518
11096W        W54013  17.435  10.584   0.890  0.2644  0.3286 -0.1129
11097W        W54014  18.319  10.303   3.742 -0.1038 -0.1342  0.1734
11098W        W54015  21.037   8.715   2.757 -0.0359 -0.1341 -0.0587
11099W        W54016  19.210   8.832   0.621  0.3738 -0.0755 -0.3405
11100W        W54017  18.312   9.944   5.176 -0.0126  0.0404  0.4463
11101W        W54018  20.378  10.523  30.450 -0.3124  0.1113  0.1834
11102W        W54019  19.541   9.883  31.379  0.0451 -0.4868  0.3207
11103W        W54020  20.285  11.887   2.847 -0.0169 -0.2285 -0.1625
11104W        W54021  18.871  11.419   3.012 -0.2768  0.0371 -0.1077
11105W        W54022  18.554   5.015   4.847 -0.3656 -0.0961 -0.2408
11106W        W54023  20.500  11.624  31.032 -0.1715 -0.1665  0.0213
11107W        W54024  18.155  12.043   2.203 -0.1597 -0.1224  0.3091
11108W        W54025  20.620  12.900  30.935  0.2961  0.1800  0.2005
11109W        W54026  20.998   8.619   0.356 -0.2463 -0.4961 -0.2150
11110W        W54027  19.634  10.975   1.225  0.2753  0.1617  0.1500
11111W        W54028  17.724   7.687   3.319  0.1199  0.0400 -0.0087
11112W        W54029  19.357  10.434   2.048  0.0999  0.1613 -0.3310
11113W        W54030  20.967   9.754   3.566 -0.0417  0.1097 -0.2011
11114W        W54031  19.464   8.952   0.994 -0.1512 -0.2391 -0.0556
11115W        W54032  21.766  10.292   0.210  0.3973 -0.2096  0.1841
11116W        W54033  21.445  11.558  30.429  0.1697 -0.0051  0.0815
11117W        W54034  18.541  11.303   1.591 -0.1978  0.0504 -0.4729
11118W        W54035  20.996  11.526   1.381  0.1096  0.1361  0.0449
11119W        W54036  20.299  10.775   2.763  0.1917  0.0635 -0.0270
11120W        W54037  21.832   9.832  31.955 -0.3014  0.0591  0.3636
11121W        W54038  19.980   8.998   4.166 -0.0935 -0.0247  0.0628
11122W        W54039  18.922  10.899   1.793  0.0874 -0.0051 -0.0535
11123W        W54040  18.277   9.833  30.291  0.0511 -0.2101  0.1165
11124W        W54041  18.997   9.421  31.610  0.2853 -0.0745  0.0191
11125W        W54042  19.541  12.149   3.182 -0.0183 -0.2568 -0.0685
11126W        W54043  20.065  11.000   1.009  0.0029  0.0053 -0.0539
11127W        W54044  21.665   9.441   2.507 -0.0581  0.0659  0.3243
11128W        W54045  19.787   6.448   2.411  0.1670 -0.0927  0.0975
11129W        W54046  19.035  10.066   1.550  0.4529 -0.3737  0.0630
11130W        W54047  20.272  11.161   0.025  0.2585  0.3252 -0.0072
11131W        W54048  21.527   8.474   2.699  0.2155 -0.0574 -0.0527
11132W        W54049  19.111   9.686   3.014 -0.0171 -0.0712 -0.2357
11133W        W54050  20.987  11.521  31.407  0.1112 -0.0791 -0.0615
11134W        W54051  17.828  11.249   1.026  0.3494 -0.0651 -0.1126
11135W        W54052  20.274  10.082   1.353 -0.1548  0.0886 -0.1362
11136W        W54053  18.569   9.960   6.658 -0.3439  0.0048  0.1204
11137W        W54054  18.444  11.130   4.315  0.0048 -0.1721 -0.2004
11138W        W54055  18.698  10.782   3.685  0.0733  0.1404  0.1209
11139W        W54056  20.656  11.325   4.518  0.3086  0.0066  0.1104
11140W        W54057  16.787   9.458   6.930  0.1488 -0.0585  0.1968
11141W        W54058  19.973  10.955   3.139  0.5118  0.2009 -0.1001
11142W        W54059  19.930   6.511   6.382  0.1095 -0.2731 -0.0562
11143W        W54060  19.940  11.886   5.904  0.0799  0.0228  0.0208
11144W        W54061  21.799  10.347   4.764  0.0658  0.0630 -0.1045
11145W        W54062  20.100  10.155   6.108 -0.0607  0.1383  0.1092
11146W        W54063  20.184   7.038   5.529  0.1445  0.2559 -0.0122
11147W        W54064  19.277  10.916   5.294 -0.0130  0.2834 -0.1521
11148W        W54065  17.820   8.615   4.130  0.0863  0.0369  0.1353
11149W        W54066  17.298   7.852   5.125 -0.0429  0.2445  0.0974
11150W        W54067  19.846   9.642   5.995  0.0428  0.0022 -0.0451
11151W        W54068  18.249  10.730   3.463  0.0445 -0.1720 -0.3958
11152W        W54069  18.717   9.711   5.924 -0.5707 -0.5333  0.0481
11153W        W54070  20.345  10.502   4.049  0.1093  0.2985 -0.1534
11154W        W54071  20.341  11.053   3.802 -0.0523  0.0903 -0.2213
11155W        W54072  17.560   9.215   4.610 -0.2297 -0.2869 -0.0886
11156W        W54073  22.149   7.411   6.368  0.0932  0.2697 -0.1215
11157W        W54074  18.858   9.797   3.936  0.1473 -0.0514 -0.1055
11158W        W54075  17.972  10.313   2.858  0.1061 -0.0835  0.2067
11159W        W54076  17.513   9.171   6.327 -0.1822 -0.3014 -0.1066
11160W        W54077  18.086   9.852   3.773 -0.0473  0.1454  0.0567
11161W        W54078  19.482   7.557   5.400  0.0579 -0.0570 -0.1089
11162W        W54079  19.258   9.430   5.157  0.2071  0.2018  0.2441
11163W        W54080  16.922  12.538   4.779 -0.0270 -0.1021  0.0225
11164W        W54081  20.229  10.253   4.715 -0.0625  0.0262  0.0290
11165W        W54082  19.883   8.877   5.397  0.3047  0.1578  0.3022
11166W        W54083  17.226  10.767   7.239 -0.3764  0.1757  0.0390
11167W        W54084  18.753   9.541   6.399 -0.1168 -0.0269 -0.1351
11168W        W54085  17.857  11.654   4.892 -0.2389 -0.1830  0.2357
11169W        W54086  21.702  11.050   5.124 -0.0480 -0.0892  0.1080
11170W        W54087  21.261  10.684   5.487  0.0609 -0.2075  0.0696
11171W        W54088  19.089   9.190   6.567  0.0827  0.0917 -0.2694
11172W        W54089  19.115  10.788   3.889  0.2927  0.0105 -0.1089
11173W        W54090  20.428   9.354   4.772  0.0056  0.0979  0.0948
11174W        W54091  18.779  10.134   8.705 -0.0032  0.1350  0.0171
11175W        W54092  18.770   9.822   7.163  0.1570 -0.2368 -0.0020
11176W        W54093  18.360   9.311   5.091 -0.0244 -0.1879 -0.0909
11177W        W54094  19.691  10.718   4.965  0.2265  0.1749  0.2068
11178W        W54095  18.603  11.561   6.607 -0.5618 -0.1026  0.0614
11179W        W54096  19.017  11.002   9.812  0.5063  0.0148  0.0858
11180W        W54097  18.950  10.977   4.315  0.0203  0.2966  0.1238
11181W        W54098  21.592   7.315   6.811 -0.0499  0.1944 -0.1654
11182W        W54099  17.988   9.706   4.265 -0.0003  0.4212 -0.1777
11183W        W54100  20.522   9.056   4.348  0.0695  0.0522  0.0282
11184W        W54101  19.862  10.418   1.238  0.2698  0.1383 -0.3044
11185W        W54102  20.190  10.021   4.179  0.3712  0.2496  0.1370
11186W        W54103  18.680   7.542   3.864 -0.1117 -0.2729  0.2800
11187W        W54104  18.895  12.221   7.433  0.0275 -0.2241  0.2624
11188W        W54105  18.458   8.830   4.897  0.0176  0.0905 -0.0251
11189W        W54106  21.254  11.575   6.892 -0.0009  0.1528 -0.2339
11190W        W54107  20.167   8.256   6.130 -0.0208  0.1111 -0.0766
11191W        W54108  18.292  10.443   5.255  0.0400 -0.1701 -0.1292
11192W        W54109  18.710  12.946   9.685 -0.2927  0.0975  0.3124
11193W        W54110  19.439   9.256   2.760 -0.1126  0.2503  0.0075
11194W        W54111  18.799   9.666   1.326 -0.2389 -0.0840  0.3697
11195W        W54112  19.335  11.241   3.932  0.0499 -0.0895 -0.1629
11196W        W54113  20.808  10.762   5.256  0.3970  0.1801  0.2418
11197W        W54114  18.573  11.682   4.081 -0.0023  0.0948 -0.1369
11198W        W54115  18.443   9.613   8.142  0.0744  0.1183  0.3490
11199W        W54116  19.018   8.809   8.097  0.0767 -0.0930 -0.0242
11200W        W54117  18.989   7.831   2.637  0.0206 -0.1140  0.0686
11201W        W54118  22.976  10.255   5.416 -0.4456 -0.0065  0.0321
11202W        W54119  17.007  12.348   7.022  0.4362  0.1092 -0.0892
11203W        W54120  20.966   9.723   4.919  0.0432 -0.0994  0.0261
11204W        W54121  19.473   9.634   8.581  0.0387  0.4897 -0.2795
11205W        W54122  20.302  11.196   5.244 -0.2131  0.1013 -0.1848
11206W        W54123  20.926   9.350   4.617 -0.1424 -0.0428 -0.0418
11207W        W54124  20.565   8.189   3.388 -0.0265  0.0950 -0.0648
11208W        W54125  20.593   7.364   4.307 -0.0437 -0.3320 -0.0646
11209W        W54126  18.817  11.246   3.929  0.1055 -0.2012  0.0790
11210W        W54127  19.567  10.815   4.104 -0.0421  0.0967 -0.0886
11211W        W54128  22.745  11.238   6.295  0.0004  0.0994  0.2010
11212W        W54129  22.169  10.235   2.993  0.1287  0.2372 -0.2566
11213W        W54130  19.410  11.062   5.812 -0.1309  0.2977 -0.1656
11214W        W54131  21.590   7.574   5.438 -0.4871  0.1215 -0.0279
11215W        W54132  20.523  12.207   5.975  0.1130 -0.1813 -0.1721
11216W        W54133  18.630  10.985   4.741  0.1058  0.1530  0.0149
11217W        W54134  18.691   9.402   6.877 -0.0880 -0.2417  0.2868
11218W        W54135  19.196  10.244   2.964  0.0123 -0.1018  0.1515
11219W        W54136  15.975   7.178   5.739 -0.1358  0.0978  0.0918
11220W        W54137  19.716   9.789   6.855 -0.0125  0.1383  0.4297
11221W        W54138  21.460   8.520   4.940  0.1475  0.1744 -0.0055
11222W        W54139  18.134   8.696   4.549  0.0808  0.1722  0.0062
11223W        W54140  19.206   9.950   5.006 -0.3652 -0.2275 -0.0925
11224W        W54141  17.822  10.740   3.189 -0.0258  0.1946  0.1799
11225W        W54142  20.210  10.498   3.201  0.3273 -0.1098  0.0898
11226W        W54143  21.914   9.674   3.312  0.1961 -0.2314  0.1738
11227W        W54144  19.441  12.201   1.833  0.1481 -0.0427  0.1726
11228W        W54145  16.339   9.464   7.772 -0.3994  0.0703  0.1509
11229W        W54146  18.996   9.259   4.006  0.2061  0.1748  0.0756
11230W        W54147  21.154   8.062   4.884  0.0058  0.0357 -0.2744
11231W        W54148  18.438   7.519   6.915 -0.2374 -0.1270  0.1770
11232W        W54149  19.300   9.601   6.373  0.0934 -0.2396  0.1065
11233W        W54150  16.252   7.640   2.135 -0.0790  0.1047  0.2968
11234W        W54151  19.293   9.687   3.711 -0.1365  0.0917 -0.3507
11235W        W54152  18.534   8.768   5.968 -0.2859  0.1512 -0.3668
11236W        W54153  16.187   8.599   4.072 -0.0148  0.0982  0.1963
11237W        W54154  19.418   8.494   5.392  0.0221 -0.2070 -0.0172
11238W        W54155  18.753  10.133   5.148 -0.1034 -0.1057 -0.4412
11239W        W54156  21.049  10.163   6.647  0.2331 -0.1054 -0.1348
11240W        W54157  20.529  12.061   5.046 -0.0697 -0.1029  0.5097
11241W        W54158  18.859   9.217   5.441  0.1001 -0.1890 -0.1913
11242W        W54159  19.844  10.397   2.094  0.3649  0.3093  0.0122
11243W        W54160  19.160  10.280   4.700 -0.0011 -0.2495 -0.0908
11244W        W54161  19.096  10.752   7.198 -0.1042 -0.0915 -0.0652
11245W        W54162  20.020   9.479   4.445  0.1518  0.2881 -0.1051
11246W        W54163  20.280  10.684   5.630  0.1190 -0.0237  0.4686
11247W        W54164  18.501  10.059   5.593 -0.0068  0.0921  0.0738
11248W        W54165  18.299  11.406   7.506 -0.3168  0.2160 -0.0145
11249W        W54166  22.695   6.403   5.396  0.1273  0.1304  0.3650
11250W        W54167  20.211   9.331   6.225  0.2211  0.3095 -0.2413
11251W        W54168  19.896   7.064   3.563 -0.3503  0.1711 -0.3063
11252W        W54169  15.752   6.636   3.854 -0.0877  0.1012 -0.1233
11253W        W54170  19.289  10.360   5.348  0.4237  0.0819  0.0838
11254W        W54171  16.944  12.171   3.988  0.0564  0.0165  0.1918
11255W        W54172  17.649   9.786   5.497 -0.3801  0.0337  0.1534
11256W        W54173  19.325  10.395   4.265  0.1517  0.2333  0.0755
11257W        W54174  21.837   8.589   5.316  0.1216  0.3022 -0.3261
11258W        W54175  17.487  10.343   7.331 -0.5497  0.0250  0.1346
11259W        W54176  18.100   9.867   5.783 -0.0343  0.2361  0.0155
11260W        W54177  18.059  10.710   3.980  0.0358  0.1416  0.4238
11261W        W54178  18.243  10.669   8.169  0.3060 -0.0697  0.0579
11262W        W54179  20.056   7.471   4.920  0.0152  0.1285 -0.0886
11263W        W54180  22.191   8.669   3.389 -0.2733 -0.1288 -0.2223
11264W        W54181  20.560   9.190   7.794 -0.2803  0.0892 -0.1313
11265W        W54182  21.234  11.471   2.906 -0.0001  0.1125  0.2218
11266W        W54183  17.153  10.040   4.788 -0.0544  0.1614  0.0019
11267W        W54184  19.201   6.933   3.219  0.0747  0.0437  0.2581
11268W        W54185  17.773  11.649   7.918 -0.1907  0.1719  0.2033
11269W        W54186  20.767  12.355   4.488 -0.0579 -0.2583  0.0307
11270W        W54187  20.174  11.157   4.296 -0.0917  0.1991 -0.2241
11271W        W54188  19.086   9.741   2.533 -0.0300  0.3348  0.0174
11272W        W54189  20.102  11.627   3.876 -0.4731  0.0591  0.0825
11273W        W54190  19.343   8.799   6.602  0.0464 -0.0819 -0.0825
11274W        W54191  20.146  10.054   6.923  0.2479 -0.1844 -0.2631
11275W        W54192  21.594  12.223   4.372 -0.0784 -0.1923  0.3634
11276W        W54193  20.090   8.030   4.903 -0.2531  0.1611  0.1091
11277W        W54194  19.771  11.017   2.649 -0.0688  0.0498 -0.0474
11278W        W54195  17.016  10.455   6.015  0.2951  0.3816  0.1757
11279W        W54196  19.336  11.389   2.773  0.0668 -0.0934 -0.0535
11280W        W54197  19.332   7.740   3.773 -0.2776  0.0048  0.0099
11281W        W54198  18.003  10.254   4.212 -0.1329  0.1693  0.3443
11282W        W54199  20.635   6.657   6.642 -0.2628 -0.3568  0.2511
11283W        W54200  22.706   9.240   7.072 -0.2739 -0.0202  0.3403
11284W        W54201  20.474  11.038   3.307 -0.0774  0.2114  0.1699
11285W        W54202  19.887   8.554   4.466  0.0423 -0.1088 -0.2768
11286W        W54203  17.719  10.575   2.216  0.2122  0.0989  0.0353
11287W        W54204  19.188   7.962   4.677  0.0646 -0.2095 -0.1700
11288W        W54205  17.951  10.090   7.334  0.0898  0.1662 -0.1964
11289W        W54206  17.858  11.286   7.083 -0.0944 -0.2107 -0.0978
11290W        W54207  21.645  10.916   6.620 -0.0917  0.0834  0.0403
11291W        W54208  20.352  12.113   4.096  0.1421 -0.0039  0.2327
11292W        W54209  21.656  10.180   4.263 -0.0662  0.0723 -0.2153
11293W        W54210  17.789  10.711   5.184 -0.2414 -0.1551  0.1030
11294W        W54211  19.388  10.133   3.845  0.2271 -0.0257  0.4399
11295W        W54212  18.833  10.324   3.891 -0.2335  0.4978 -0.2111
11296W        W54213  20.759   5.425   4.231 -0.1903  0.2220  0.0355
11297W        W54214  18.933  11.167   6.927 -0.1151  0.1497 -0.0267
11298W        W54215  19.207   9.923   4.360 -0.0383 -0.1377 -0.1603
11299W        W54216  18.690  11.768   7.686  0.2370  0.2746 -0.0609
11300W        W54217  17.549  11.668   5.907  0.2559  0.0519  0.0491
11301W        W54218  19.530   8.046   5.484  0.2410  0.0632 -0.3155
11302W        W54219  16.263   9.797   5.997  0.1614  0.1242 -0.2408
11303W        W54220  18.120   7.081   2.136 -0.2415  0.2074  0.3271
11304W        W54221  18.533   8.875   3.379  0.0986  0.1256  0.0909
11305W        W54222  22.071   8.576   4.867  0.0772  0.1166 -0.1145
11306W        W54223  21.849   9.938   6.012  0.2051 -0.1362 -0.2848
11307W        W54224  18.968   7.895   6.280 -0.1846 -0.3530 -0.1516
11308W        W54225  19.190   7.197   5.597 -0.1952  0.1566 -0.0847
11309W        W54226  18.443  12.194   7.216 -0.0932 -0.4474 -0.0071
11310W        W54227  19.182   9.222   8.343 -0.1571  0.2758 -0.2736
11311W        W54228  18.836   9.211   4.929  0.0351  0.0195 -0.0013
11312W        W54229  20.355  10.937   7.643 -0.2270 -0.0821  0.2928
11313W        W54230  20.704   7.623   5.290 -0.2780  0.1583  0.3326
11314W        W54231  18.524   9.735   2.509 -0.1047 -0.1184 -0.1006
11315W        W54232  19.951   8.985   5.928 -0.0088  0.0167 -0.0647
11316W        W54233  16.598  10.145   5.786 -0.0349  0.1348  0.0277
11317W        W54234  19.024   9.986   5.536  0.1946  0.3088 -0.1354
11318W        W54235  19.154   9.113   4.461 -0.1447 -0.0606 -0.2196
11319W        W54236  19.549  11.725   5.159 -0.1229  0.0921  0.0905
11320W        W54237  18.773   9.661   5.130 -0.0709  0.0633 -0.0484
11321W        W54238  19.472   8.087   5.978 -0.3055 -0.3057 -0.3403
11322W        W54239  20.403  11.744   6.064 -0.1800 -0.1350  0.1099
11323W        W54240  18.425  10.586   5.940 -0.2747  0.0998 -0.0168
11324W        W54241  19.657   8.156   4.616  0.1630  0.3020  0.3414
11325W        W54242  17.244   9.809   6.603 -0.0930  0.4601  0.0089
11326W        W54243  19.661   9.853   4.222  0.1514 -0.0462  0.1529
11327W        W54244  18.676   8.471   4.276 -0.1091  0.0457 -0.1861
11328W        W54245  18.936   9.775   7.688  0.0355 -0.1630  0.0718
11329W        W54246  21.156   7.825   5.367 -0.0469  0.0821 -0.0036
11330W        W54247  23.379   9.664   4.229  0.1610 -0.1951  0.2870
11331W        W54248  20.443   8.576   4.656 -0.2221  0.0590 -0.2500
11332W        W54249  19.925  10.437   6.545  0.3460  0.1010 -0.0865
11333W        W54250  18.602  10.689   6.973  0.2647  0.1323 -0.0375
11334W        W54251  18.969   9.271   6.035 -0.0022  0.2534  0.3764
11335W        W54252  20.539   8.109   5.044  0.0277  0.0866 -0.2261
11336W        W54253  17.308  11.513   7.763  0.0811  0.1891  0.0309
11337W        W54254  18.633  10.478   4.682  0.0724  0.1907 -0.3873
11338W        W54255  17.416   9.126   5.845  0.2008 -0.1777  0.1840
11339W        W54256  19.871   9.467   3.935 -0.0544  0.1215  0.0581
11340W        W54257  19.791   9.391   4.997 -0.3982  0.0446 -0.1372
11341W        W54258  18.503   8.505   5.247  0.1086 -0.0054 -0.0223
11342W        W54259  20.988  10.155   5.738  0.0764  0.1692  0.0307
11343W        W54260  19.727   8.469   4.959  0.0905  0.0538 -0.1993
11344W        W54261  22.001   7.890   6.136 -0.3322 -0.0716 -0.0684
11345W        W54262  18.218   8.361   4.075 -0.1564 -0.0836 -0.0644
11346W        W54263  18.896  11.325   6.152  0.1627 -0.2597 -0.0840
11347W        W54264  17.867   7.686   6.207 -0.1573 -0.1244  0.0046
11348W        W54265  20.344  10.549   6.849 -0.0212 -0.2023  0.1259
11349W        W54266  19.476  10.917   8.102  0.1859 -0.0252 -0.0714
11350W        W54267  21.395   9.371   4.790  0.0514 -0.0171 -0.0432
11351W        W54268  19.193   9.122   3.608  0.0063  0.0873 -0.2175
11352W        W54269  18.989  10.162   6.394  0.0153  0.0697 -0.0894
11353W        W54270  22.299  10.391   6.383 -0.3738 -0.2443 -0.3089
11354W        W54271  20.115   9.948   3.234 -0.1163  0.2164 -0.1892
11355W        W54272  20.287  10.667   5.068  0.0502  0.1030 -0.2180
11356W        W54273  19.058   9.734   6.762  0.0191 -0.0725  0.4070
11357W        W54274  19.920   9.216   2.537  0.0134 -0.1157  0.0803
11358W        W54275  19.818  11.165   3.897 -0.0166 -0.2784 -0.1260
11359W        W54276  19.549  12.161   5.483  0.0985  0.2172  0.0667
11360W        W54277  20.242   7.817   5.407  0.0994 -0.1169  0.2080
11361W        W54278  19.696  10.197   5.650  0.1141 -0.1891 -0.0392
11362W        W54279  19.876   8.549   5.767 -0.1217 -0.0523 -0.4058
11363W        W54280  21.553   8.955   3.926 -0.4764  0.1237  0.0321
11364W        W54281  20.623  10.975   6.555  0.2044  0.2029 -0.0607
11365W        W54282  19.851   8.959   6.590  0.2124  0.4160  0.2719
11366W        W54283  20.621   7.740   7.925 -0.0720 -0.0236  0.1849
11367W        W54284  21.414  11.557   5.012 -0.2437 -0.0434 -0.3302
11368W        W54285  21.514   8.500   3.641  0.2175 -0.1081  0.0080
11369W        W54286  23.344   8.753   5.342  0.0249 -0.2584  0.0418
11370W        W54287  20.545   9.640   5.182  0.2873  0.4865 -0.0461
11371W        W54288  22.174  11.208   3.307  0.2108 -0.0016  0.0063
11372W        W54289  17.270   9.601   5.185 -0.1805 -0.5143 -0.0258
11373W        W54290  20.508  10.365   5.944 -0.3896 -0.0695 -0.0070
11374W        W54291  17.842   8.051   3.998  0.0124  0.2699  0.0257
11375W        W54292  18.836   9.929   8.185  0.2735 -0.2538 -0.2206
11376W        W54293  19.721   9.076   3.595  0.0645 -0.0036 -0.2345
11377W        W54294  21.093  10.986   6.335  0.4237 -0.3011  0.1766
11378W        W54295  19.490   9.420   3.305  0.3069 -0.2251  0.2331
11379W        W54296  17.453   9.651   6.177 -0.1395  0.2201 -0.1237
11380W        W54297  19.377  11.166   7.156  0.1825  0.0891 -0.0147
11381W        W54298  18.707   9.995   2.993 -0.0857  0.0247  0.2328
11382W        W54299  21.124  10.071   4.295 -0.0031 -0.0820  0.2197
11383W        W54300  19.972  12.452   5.423 -0.0336  0.1019 -0.2073
11384W        W54301  19.672  11.221   6.756 -0.2346  0.3350 -0.1311
11385W        W54302  19.137   8.239   4.309 -0.1947  0.0767 -0.1978
11386W        W54303  21.223   8.646   5.361  0.0613 -0.2007 -0.0905
11387W        W54304  17.373  10.707   3.592  0.0033 -0.0384 -0.0919
11388W        W54305  21.102   6.200   5.252  0.0220  0.2244 -0.1863
11389W        W54306  19.195   9.954   6.007  0.2364 -0.0238  0.1542
11390W        W54307  19.257   9.534   5.698 -0.1857 -0.2182  0.0140
11391W        W54308  19.745   9.310   5.547 -0.1890  0.0874  0.1545
11392W        W54309  20.312   9.428   5.743  0.1508 -0.0484 -0.0287
11393W        W54310  19.729   8.704   3.267  0.3712 -0.3308  0.0222
11394W        W54311  19.353   9.025   5.396  0.3429 -0.1530 -0.0321
11395W        W54312  23.876   8.822   7.332  0.4364 -0.1147  0.2010
11396W        W54313  20.021  10.310   7.557  0.1917  0.2411  0.1965
11397W        W54314  18.144   9.687   6.828 -0.2783 -0.0961  0.2153
11398W        W54315  19.739  10.647   5.447 -0.2007 -0.2082  0.4731
11399W        W54316  21.140   8.901   4.804  0.3115 -0.3662 -0.4999
11400W        W54317  19.783  11.554   4.768 -0.0726  0.4341 -0.0573
11401W        W54318  18.489   9.067   9.017 -0.3523  0.3073  0.1282
11402W        W54319  19.397   8.629   4.538 -0.1017 -0.0465  0.1172
11403W        W54320  18.566  11.003   6.421 -0.3454  0.1753 -0.0076
11404W        W54321  18.705   9.962   4.641  0.3425 -0.2661 -0.0853
11405W        W54322  17.844  11.373   4.055 -0.0852 -0.1885 -0.0527
11406W        W54323  18.229  11.853   7.520  0.0274 -0.1405  0.1174
11407W        W54324  18.182   9.969   4.666  0.2381  0.1960 -0.2506
11408W        W54325  16.632  12.062   4.664  0.1013  0.2488  0.0360
11409W        W54326  21.559  11.312   3.232 -0.0094  0.1643  0.0856
11410W        W54327  21.037  10.638   3.547 -0.2879  0.1820  0.1927
11411W        W54328  20.550  11.495   4.030 -0.3059  0.1165  0.1278
11412W        W54329  18.469  10.009   4.183  0.0427  0.0266 -0.1004
11413W        W54330  18.098  10.533   4.775  0.1202  0.0943  0.0793
11414W        W54331  17.465  10.390   3.119 -0.1218 -0.0839  0.2869
11415W        W54332  20.084  12.404   3.274  0.2998 -0.0164 -0.2913
11416W        W54333  16.679  11.090   6.730 -0.0589 -0.1895  0.0472
11417W        W54334  20.317   9.083   6.682  0.0482 -0.1533 -0.1038
11418W        W54335  22.489   6.537   4.195  0.1588 -0.0690  0.0701
11419W        W54336  20.918  10.790   4.638 -0.1986 -0.1006 -0.1167
11420W        W54337  23.708   8.507   3.896  0.3637  0.1309  0.0712
11421W        W54338  20.880  11.628   5.884 -0.0203 -0.1070 -0.3046
11422W        W54339  19.600   9.275   7.374 -0.1170  0.2126 -0.0555
11423W        W54340  18.085   9.144   4.137 -0.3950 -0.0690  0.2020
11424W        W54341  20.212  10.175   8.759  0.0495  0.2967  0.2471
11425W        W54342  21.387   6.289   6.908 -0.0816  0.1195  0.1503
11426W        W54343  19.475  12.041   6.159 -0.1309  0.1367  0.3004
11427W        W54344  19.944  11.629   1.974 -0.0547  0.4115 -0.1781
11428W        W54345  15.302   8.162   3.042 -0.3881 -0.2516  0.2998
11429W        W54346  17.705  11.623   3.605  0.1546  0.0850  0.1834
11430W        W54347  22.735   9.408   4.925  0.0351  0.1089 -0.0654
11431W        W54348  18.667  11.206   2.150 -0.0945 -0.3051 -0.0418
11432W        W54349  18.473   9.510   5.493 -0.1625 -0.1596  0.1721
11433W        W54350  18.098  10.165   6.765 -0.1554  0.3055  0.2615
11434W        W54351  18.322  10.076   6.164  0.1001 -0.0520  0.0554
11435W        W54352  17.533  12.339   5.534 -0.0819 -0.1239 -0.0219
11436W        W54353  19.062   8.764   1.932  0.0178  0.1586 -0.0020
11437W        W54354  19.758   9.403   6.474 -0.3445  0.1086  0.2930
11438W        W54355  19.998  10.197   8.303  0.2091 -0.0153 -0.0965
11439W        W54356  21.995  10.707   3.341 -0.1116 -0.0313 -0.2164
11440W        W54357  17.809  10.011   5.016  0.0502  0.1201 -0.1232
11441W        W54358  20.093   9.357   2.038 -0.1789 -0.1184  0.0472
11442W        W54359  20.618  10.348   5.445  0.2042  0.3403  0.3232
11443W        W54360  18.399   8.333   4.774 -0.1428 -0.0751  0.1886
11444W        W54361  19.004  10.020   3.531  0.0640 -0.4664  0.1482
11445W        W54362  19.927   7.956   5.778  0.1398  0.1332 -0.0281
11446W        W54363  18.844   9.396   3.504 -0.1625  0.1705 -0.2363
11447W        W54364  19.694  10.479   7.896  0.1642  0.1914 -0.1345
11448W        W54365  18.893   9.565   4.358  0.2557  0.2135  0.1040
11449W        W54366  19.035  11.655   3.776 -0.2707 -0.1940  0.2389
11450W        W54367  17.471  10.272   6.192 -0.4055  0.3264 -0.2884
11451W        W54368  18.474   9.501   4.655 -0.1915  0.0146 -0.5001
11452W        W54369  21.206  11.059   6.820 -0.4118 -0.3692  0.0480
11453W        W54370  17.800   9.482   5.069 -0.0099  0.0086 -0.0384
11454W        W54371  21.633  10.199   1.717  0.0745  0.0129  0.3520
11455W        W54372  21.391   9.748   6.132 -0.0869  0.2168  0.0062
11456W        W54373  19.315  11.643   4.673  0.2359  0.0497  0.0149
11457W        W54374  19.987  11.065   5.837  0.3882 -0.1354  0.0533
11458W        W54375  20.845  11.718   4.898  0.0610  0.1290  0.1213
11459W        W54376  19.234   8.542   7.668  0.2262  0.0069 -0.3180
11460W        W54377  18.983  10.694   6.638  0.1999  0.1493  0.0101
11461W        W54378  20.366  11.379   5.753 -0.0888  0.1714 -0.1984
11462W        W54379  19.775   9.088   4.590 -0.0934 -0.1763 -0.2512
11463W        W54380  17.650  10.019   4.000  0.2972 -0.1502 -0.1129
11464W        W54381  17.469  11.813   4.544 -0.3829  0.3198  0.4320
11465W        W54382  19.357   9.006   4.903 -0.0441 -0.0235  0.1921
11466W        W54383  20.684   9.195   5.438  0.1664 -0.2282  0.1042
11467W        W54384  18.913  12.128   3.947 -0.1405  0.0826 -0.0390
11468W        W54385  18.950   8.825   5.686 -0.0784  0.1310  0.1669
11469W        W54386  19.400  12.136   4.936  0.1070 -0.3322 -0.1842
11470W        W54387  19.911  11.370   7.183 -0.0428  0.0851  0.3220
11471W        W54388  19.368  11.089   1.719 -0.0376  0.4503  0.0030
11472W        W54389  19.816   9.893   7.947 -0.2190 -0.0373  0.2433
11473W        W54390  19.162  11.417   5.218  0.0814 -0.0906 -0.0038
11474W        W54391  19.621  10.100   6.225 -0.2060  0.1237 -0.1103
11475W        W54392  20.636   9.904   4.524  0.4579  0.0160  0.2260
11476W        W54393  17.946  10.401   6.040 -0.0200 -0.1516 -0.2018
11477W        W54394  20.219  11.302   6.292 -0.4172  0.0679 -0.0984
11478W        W54395  18.446   9.263   5.951  0.1138  0.1649  0.2450
11479W        W54396  21.659  10.289   3.449  0.0896 -0.0656  0.0093
11480W        W54397  19.523   8.908   4.010 -0.2351  0.1502  0.2897
11481W        W54398  16.847   9.601   7.432 -0.0210  0.2510 -0.3062
11482W        W54399  17.705  11.009   3.749 -0.0021  0.0366  0.0437
11483W        W54400  17.244  10.959   1.658  0.0092  0.1743 -0.0846
11484W        W54401  17.177  11.280   4.595  0.1615 -0.0955 -0.1281
11485W        W54402  22.579   7.356   6.609  0.1068  0.0304  0.0283
11486W        W54403  19.366   7.847   6.610  0.1387 -0.1530 -0.0212
11487W        W54404  17.654  10.778   4.598 -0.0178  0.2156  0.0004
11488W        W54405  18.481   9.497   4.050  0.0285 -0.0843  0.0731
11489W        W54406  22.182  10.673   2.529  0.1229  0.1142  0.4015
11490W        W54407  18.928   7.823   3.157 -0.1120  0.2743 -0.1648
11491W        W54408  16.803  10.080   3.945 -0.0388  0.1242  0.1927
11492W        W54409  20.750   9.342   3.840  0.1519  0.1125  0.1626
11493W        W54410  19.580  11.652   6.958  0.1572 -0.0640  0.3206
11494W        W54411  18.890   8.715   4.635  0.0349 -0.1272 -0.1635
11495W        W54412  23.924  10.466   6.832  0.0140 -0.0456 -0.0861
11496W        W54413  17.151   8.835   3.734  0.2727 -0.0406 -0.2554
11497W        W54414  20.998   9.762   7.148 -0.2284  0.1633  0.3122
11498W        W54415  21.995   8.870   5.676 -0.3452  0.0098 -0.0700
11499W        W54416  17.559   7.582   1.580 -0.2986  0.2911  0.3537
11500W        W54417  20.910   8.475   4.994  0.1027 -0.1050 -0.2105
11501W        W54418  20.894   8.866   5.778 -0.1098 -0.1002  0.0923
11502W        W54419  19.077  12.484   3.096  0.1733  0.2333  0.1370
11503W        W54420  18.829  10.294   5.936  0.0302 -0.0289  0.0391
11504W        W54421  19.183  11.719   7.866  0.0993  0.0108  0.4284
11505W        W54422  19.158   8.411   4.952 -0.0139  0.0758  0.2184
11506W        W54423  20.739  10.378   4.441  0.0131  0.2872 -0.2085
11507W        W54424  18.929  10.809   6.082  0.4021 -0.2273 -0.0576
11508W        W54425  19.433   9.385   4.152  0.0009 -0.2791  0.0121
11509W        W54426  22.677   9.186   2.322 -0.1477  0.0499  0.1087
11510W        W54427  18.778   9.288   8.035 -0.0316 -0.0327  0.2384
11511W        W54428  18.577   8.410   6.423 -0.2119  0.0314  0.1707
11512W        W54429  18.142   9.460   7.702  0.3088 -0.0280 -0.0391
11513W        W54430  21.229  11.010   4.938  0.1197  0.3577 -0.0860
11514W        W54431  20.809   9.305   5.931 -0.2672 -0.3362  0.2742
11515W        W54432  21.096  10.270   5.233 -0.0196  0.1927 -0.5023
11516W        W54433  23.233  10.105   4.966  0.2281  0.2550 -0.3931
11517W        W54434  17.318  10.148   5.271  0.1809 -0.0669 -0.2186
11518W        W54435  19.651   9.927   4.751  0.3214 -0.0230 -0.1331
11519W        W54436  19.296   7.579   7.067  0.2581 -0.2264 -0.1726
11520W        W54437  20.699  12.154   6.408  0.1881  0.1639  0.4837
11521W        W54438  18.983   8.700   6.232 -0.2488  0.2083 -0.3075
11522W        W54439  20.680  10.263   4.954 -0.4923  0.4148  0.1883
11523W        W54440  20.580   9.376   3.331  0.2512 -0.1384 -0.0723
11524W        W54441  19.426  10.542   6.303 -0.0114  0.0686 -0.0186
11525W        W54442  21.607  12.268   7.150  0.0391 -0.0140  0.2981
11526W        W54443  18.045  11.395   6.550 -0.2332 -0.0609  0.3680
11527W        W54444  21.890   9.578   6.906  0.0557  0.1178 -0.0848
11528W        W54445  18.113   7.655   5.751  0.1419 -0.0629 -0.2182
11529W        W54446  18.027  11.216   3.362  0.0923  0.1165  0.0131
11530W        W54447  18.856  10.576   5.512  0.0750 -0.0433 -0.0835
11531W        W54448  19.984   9.497   3.430 -0.2531  0.2255  0.1899
11532W        W54449  19.672   8.588   6.237  0.1291  0.2022 -0.1424
11533W        W54450  18.802   7.391   4.316  0.3109 -0.1773  0.1524
11534W        W54451  20.744  11.181   5.544  0.1601  0.1478 -0.0552
11535W        W54452  20.803   8.396   5.580  0.1741  0.2724 -0.0664
11536W        W54453  22.414  12.187   9.458 -0.0535 -0.2113  0.1181
11537W        W54454  18.029   8.536   5.017  0.1492  0.1214 -0.0103
11538W        W54455  20.333   8.260   5.667 -0.0683  0.4220  0.1048
11539W        W54456  21.629  10.247   7.449 -0.2905  0.0782 -0.4257
11540W        W54457  18.845  11.301   9.264  0.0633  0.0129 -0.2526
11541W        W54458  21.445  10.116   7.890 -0.1539  0.0228 -0.2141
11542W        W54459  22.944  11.283   8.060  0.1478 -0.2430 -0.0838
11543W        W54460  21.837  10.328   8.382 -0.1682 -0.1898  0.0854
11544W        W54461  19.654   8.899   7.066 -0.2774 -0.2962 -0.2500
11545W        W54462  20.935   8.903   9.679  0.1527 -0.2269  0.2959
11546W        W54463  19.875   7.659   6.205 -0.1159  0.4800 -0.2570
11547W        W54464  17.671   8.765   9.123 -0.1731 -0.0621 -0.0632
11548W        W54465  21.623   9.399   7.641  0.2212 -0.2375  0.2960
11549W        W54466  17.578   9.091   7.300 -0.1694  0.0226  0.0480
11550W        W54467  19.282   7.777   9.312  0.2717 -0.0358 -0.2070
11551W        W54468  21.900   8.986   7.135 -0.1419 -0.0936 -0.0390
11552W        W54469  21.188   8.973   8.412 -0.0957  0.2801  0.1891
11553W        W54470  22.242   5.757   9.390  0.0728 -0.1505 -0.0550
11554W        W54471  18.092  11.686  10.439 -0.2137  0.0087 -0.2919
11555W        W54472  17.557   7.745   6.860  0.0476  0.1164 -0.1907
11556W        W54473  19.693   8.525   9.353 -0.1613  0.0421  0.4049
11557W        W54474  20.166  10.621   8.157  0.1871 -0.0452  0.2701
11558W        W54475  20.614   8.181   8.314  0.1582  0.0962 -0.0359
11559W        W54476  20.128   8.756   7.045  0.0339 -0.1587 -0.2461
11560W        W54477  21.473   9.941   7.072  0.0800 -0.0198 -0.0098
11561W        W54478  17.535  10.964  10.242 -0.1331  0.2016  0.4212
11562W        W54479  20.892  11.304   9.446  0.0745 -0.2456 -0.0936
11563W        W54480  17.842  12.530   8.941 -0.0956 -0.1101  0.2651
11564W        W54481  17.731  12.057   9.624  0.0182 -0.0853  0.3242
11565W        W54482  21.307   8.536   8.668 -0.0694 -0.2843 -0.1375
11566W        W54483  19.352  12.253   8.187  0.0068  0.0174  0.0094
11567W        W54484  21.151   9.535   8.345 -0.1393 -0.2956  0.2541
11568W        W54485  19.426   8.853   8.672 -0.2103  0.0264  0.4649
11569W        W54486  18.264  13.242   9.720  0.1802 -0.3264 -0.2050
11570W        W54487  19.094  10.534   8.668 -0.2510 -0.1817  0.1125
11571W        W54488  18.340  10.574   9.121  0.1912  0.0578 -0.1952
11572W        W54489  19.100  11.334   8.112  0.0894 -0.4053 -0.0490
11573W        W54490  22.746   9.495   6.570 -0.2042  0.0110 -0.1885
11574W        W54491  21.318   7.125   6.370 -0.0655 -0.3134  0.0140
11575W        W54492  21.123   8.426   6.285 -0.2148  0.3681 -0.1951
11576W        W54493  20.022   7.090   7.139  0.0163 -0.0181  0.2609
11577W        W54494  19.162  12.206   9.873 -0.1855  0.1100  0.0449
11578W        W54495  21.734   7.356   8.518  0.2564 -0.2094  0.0971
11579W        W54496  20.638   9.532   8.176 -0.2501  0.1285  0.0271
11580W        W54497  20.997  10.017   8.129  0.2090 -0.0584 -0.0730
11581W        W54498  24.395  10.571   9.788  0.2825 -0.0648 -0.1321
11582W        W54499  19.555   8.241   7.811 -0.0597  0.0615 -0.0299
11583W        W54500  19.967  12.105   5.093  0.0272  0.1657  0.1281
11584W        W54501  21.891   9.850   8.460 -0.0157 -0.0238 -0.0050
11585W        W54502  20.355  11.785   6.589  0.1292 -0.0952 -0.4505
11586W        W54503  20.199   9.317   8.420  0.1801 -0.1075 -0.1043
11587W        W54504  18.695   8.048   5.018  0.0362 -0.0676 -0.1140
11588W        W54505  21.388  10.052   8.398  0.2257 -0.0823 -0.0792
11589W        W54506  19.476   9.733   9.048 -0.3413  0.3431  0.0659
11590W        W54507  23.741   9.888   9.920 -0.0093 -0.3023  0.1549
11591W        W54508  19.972   9.302   6.982 -0.2669 -0.1389 -0.2123
11592W        W54509  21.938   7.959   9.202 -0.0863 -0.0131  0.0258
11593W        W54510  19.014   6.975   9.360 -0.1735 -0.0749  0.2614
11594W        W54511  20.530  12.304   8.262  0.0653  0.0098 -0.2087
11595W        W54512  18.711  10.439   8.286  0.0744 -0.2835  0.0633
11596W        W54513  21.774  12.455   9.467 -0.2938 -0.2523 -0.2418
11597W        W54514  20.381   8.752   5.788 -0.1077 -0.0549  0.1920
11598W        W54515  19.690  12.919   9.657 -0.5470  0.1360 -0.2735
11599W        W54516  20.529  11.503   8.388 -0.1652  0.0411  0.1465
11600W        W54517  18.822  10.422   9.123  0.1604  0.0523 -0.0050
11601W        W54518  19.911   8.905   7.544 -0.0581 -0.4071  0.1130
11602W        W54519  18.487   9.544   9.898 -0.3148  0.0892 -0.0103
11603W        W54520  18.520  10.385   9.525 -0.0727  0.2520 -0.0147
11604W        W54521  20.181   7.486   7.995 -0.0276  0.1273 -0.0184
11605W        W54522  22.449   9.376   9.826 -0.2832  0.1361  0.1578
11606W        W54523  19.446   7.791   8.286 -0.0078 -0.1988 -0.1980
11607W        W54524  21.082  10.577   7.778  0.0357 -0.3172  0.0795
11608W        W54525  20.630  11.049   6.058 -0.3099 -0.0414  0.1993
11609W        W54526  18.803  11.153   7.579 -0.1519  0.0878 -0.2826
11610W        W54527  17.826   8.795   9.957 -0.0195  0.0198 -0.2484
11611W        W54528  19.605   8.531   8.268  0.2361 -0.0990 -0.0959
11612W        W54529  18.043   8.255   7.514  0.2615  0.1316  0.0240
11613W        W54530  19.212   8.922   7.349 -0.0426 -0.1840  0.0656
11614W        W54531  21.944   8.749   8.215 -0.3973 -0.1238 -0.2739
11615W        W54532  20.225   8.616   6.539 -0.2360 -0.0292 -0.1651
11616W        W54533  18.331  10.092   9.098 -0.1854  0.2965 -0.1809
11617W        W54534  18.735  10.841   9.366 -0.0660  0.1163 -0.1651
11618W        W54535  23.562  12.361   9.294  0.0213 -0.0613 -0.0163
11619W        W54536  20.979  10.664   8.672  0.2800  0.3534  0.0576
11620W        W54537  19.825   7.932   8.593 -0.0257 -0.1001  0.3079
11621W        W54538  18.812   7.861   7.184 -0.0122 -0.2014 -0.1020
11622W        W54539  18.543  11.287   8.038 -0.1410 -0.0053  0.2978
11623W        W54540  19.013  10.133   9.565 -0.0562  0.0836 -0.0396
11624W        W54541  19.707   8.483   6.789 -0.5166 -0.2438  0.0225
11625W        W54542  21.955  10.455   9.100  0.1000 -0.0934 -0.1261
11626W        W54543  18.219  10.427   7.572  0.0762 -0.1485  0.3364
11627W        W54544  22.514   9.114   9.385  0.2681 -0.2113 -0.2036
11628W        W54545  18.851  11.762   8.957  0.0339 -0.2289 -0.0833
11629W        W54546  19.546   6.573   6.001 -0.0524  0.2763 -0.0551
11630W        W54547  21.689  10.788   7.386  0.0209  0.1955 -0.0981
11631W        W54548  20.314  11.613   9.725  0.0608 -0.1559 -0.1521
11632W        W54549  19.017   9.549   8.709  0.0365  0.0363 -0.0147
11633W        W54550  21.002  12.005   8.076 -0.0940 -0.0515 -0.2789
11634W        W54551  21.461   9.453   7.168 -0.0434 -0.0366  0.0320
11635W        W54552  19.354   9.646   8.087  0.0375 -0.1892 -0.0678
11636W        W54553  21.934   7.618   7.748  0.1166  0.1306  0.0940
11637W        W54554  21.971   8.547   7.649  0.1502  0.0473 -0.2201
11638W        W54555  19.692  10.984   6.248 -0.1730 -0.1664 -0.0855
11639W        W54556  20.707   8.343   6.582  0.1113 -0.1720  0.0408
11640W        W54557  21.228   8.288   5.807 -0.0558  0.0246 -0.1668
11641W        W54558  20.486  10.063   7.987 -0.0394  0.0152  0.2849
11642W        W54559  19.861  11.941   9.591  0.0936  0.1119  0.1806
11643W        W54560  20.602   8.761   7.560 -0.3714 -0.0912  0.1701
11644W        W54561  21.928   9.054   7.759 -0.1125 -0.1670  0.1316
11645W        W54562  19.235  11.633   9.260  0.1815 -0.0405 -0.0699
11646W        W54563  21.711  10.595   7.877  0.4198 -0.3996 -0.3029
11647W        W54564  19.098   8.400   9.527 -0.2293  0.0226  0.2669
11648W        W54565  20.087  11.597   8.616  0.2344 -0.0818  0.0715
11649W        W54566  20.661   7.229   6.732  0.0931  0.1338 -0.3499
11650W        W54567  19.784  12.317   7.414 -0.0035 -0.2851  0.4282
11651W        W54568  21.577   6.785   9.314 -0.0018  0.1011  0.0247
11652W        W54569  21.105   5.502   7.974 -0.0654 -0.0319 -0.0962
11653W        W54570  20.543   8.899   6.213  0.1565  0.0759  0.1242
11654W        W54571  21.177  11.320  10.361  0.1527 -0.0741 -0.0905
11655W        W54572  19.299   9.931   7.140 -0.1690 -0.0585  0.0044
11656W        W54573  19.499  10.736   8.845  0.0704  0.3261 -0.1271
11657W        W54574  19.640  11.684   8.897 -0.0671  0.2062  0.0844
11658W        W54575  20.047  11.772   8.094 -0.1413 -0.0357 -0.2898
11659W        W54576  21.531   8.730   7.956 -0.0737  0.0436 -0.2186
11660W        W54577  22.161  10.583   9.544  0.0820  0.1848 -0.2322
11661W        W54578  20.406  11.420   7.848  0.1437 -0.1500  0.0171
11662W        W54579  21.087  10.159   8.755  0.0260  0.0033  0.0048
11663W        W54580  21.159  10.484   9.192  0.3994  0.4290 -0.2601
11664W        W54581  19.951  11.257   7.701 -0.0986 -0.3608  0.1772
11665W        W54582  19.228  10.009   8.693 -0.1428  0.0504 -0.2584
11666W        W54583  21.103  11.570   8.550 -0.1987 -0.1512  0.0227
11667W        W54584  20.418   7.230   9.411  0.0946 -0.0143  0.0352
11668W        W54585  17.057  12.073   8.482 -0.2482  0.1374  0.1874
11669W        W54586  20.686   7.445   5.784  0.1594  0.0136 -0.1323
11670W        W54587  18.375   7.548   7.376  0.0620  0.2007  0.0791
11671W        W54588  21.697   7.857   8.682 -0.1748  0.2400 -0.2848
11672W        W54589  21.547  10.101   6.607  0.0162 -0.1230 -0.1220
11673W        W54590  17.221   9.594   8.851 -0.0535 -0.0235 -0.1132
11674W        W54591  21.784   9.512   8.765  0.1323  0.0289  0.1926
11675W        W54592  17.193  12.895  10.317  0.0315 -0.3373  0.0748
11676W        W54593  21.999   6.419   7.040 -0.0542 -0.0640 -0.1447
11677W        W54594  18.422   8.518   6.989 -0.0225 -0.0846  0.1224
11678W        W54595  19.732   9.431   7.890  0.0126  0.0475 -0.0348
11679W        W54596  21.178  10.900   9.529 -0.1232  0.2066 -0.0310
11680W        W54597  20.819  11.153   8.625 -0.1191  0.1668 -0.0644
11681W        W54598  19.783   6.990   6.225 -0.0299 -0.3637  0.0383
11682W        W54599  19.770  11.106   8.951 -0.2200  0.1603  0.0408
11683W        W54600  20.672   9.953   8.564  0.3776  0.2629  0.2107
11684W        W54601  20.899   7.878   9.209 -0.0260  0.0440 -0.1156
11685W        W54602  17.848  10.327   8.353  0.3508 -0.1741  0.2057
11686W        W54603  20.706  11.982   8.557 -0.3433  0.1715 -0.0480
11687W        W54604  21.651   9.056   8.675 -0.2499 -0.0843  0.0157
11688W        W54605  18.693   8.579   9.022 -0.0749  0.1895  0.2031
11689W        W54606  21.133   7.139   8.371 -0.1675 -0.0601 -0.1191
11690W        W54607  20.415   9.588   7.139  0.0161 -0.2086 -0.2177
11691W        W54608  19.152   9.338   7.715  0.1553 -0.0837  0.0064
11692W        W54609  19.760  10.904   9.789  0.2808  0.3047 -0.4263
11693W        W54610  19.484  10.056   8.279 -0.0227  0.0051  0.1752
11694W        W54611  18.256  11.343   8.486 -0.2055 -0.0780  0.0727
11695W        W54612  18.501  11.769   8.603 -0.4663  0.0972  0.0681
11696W        W54613  20.200   9.457   9.285 -0.0195  0.1148 -0.3363
11697W        W54614  22.398   7.732   6.953 -0.0652 -0.1429  0.0367
11698W        W54615  23.064   9.462   8.357 -0.1981 -0.0328 -0.1627
11699W        W54616  18.866   8.530   7.280  0.2528 -0.1331  0.0620
11700W        W54617  21.039   9.267   6.945  0.4627  0.0568 -0.0129
11701W        W54618  16.975   9.258   8.618 -0.0779 -0.1251  0.1464
11702W        W54619  20.201  10.799   9.453  0.1335 -0.2727 -0.1274
11703W        W54620  20.216   7.729   7.107  0.1055 -0.1058 -0.2122
11704W        W54621  21.752   8.374   5.792 -0.2563 -0.0442  0.1470
11705W        W54622  21.221   8.090   9.937 -0.2168 -0.0239  0.0213
11706W        W54623  21.948  12.478   7.844  0.0066  0.1691 -0.1184
11707W        W54624  20.737  11.889   9.521  0.1648  0.1144 -0.1186
11708W        W54625  21.953   8.040   7.404  0.0808  0.3440 -0.0445
11709W        W54626  16.614  11.498  10.258 -0.3318 -0.1596  0.0264
11710W        W54627  22.452  11.098   7.953  0.1764 -0.0568 -0.3467
11711W        W54628  21.096   9.348   7.890 -0.1449 -0.0379 -0.1095
11712W        W54629  19.219  11.684   8.497  0.0564 -0.0600  0.0506
11713W        W54630  21.542   9.683   8.026 -0.1871 -0.0077 -0.1800
11714W        W54631  22.080   9.291   8.414 -0.1258  0.2060  0.1273
11715W        W54632  21.001  12.721  10.017  0.1526 -0.0489  0.4038
11716W        W54633  21.018   8.426   7.403 -0.1746 -0.1475  0.4980
11717W        W54634  21.071   7.428   7.968 -0.1212 -0.2815 -0.2522
11718W        W54635  21.256  12.462   9.592  0.0751 -0.2527  0.2324
11719W        W54636  20.824   8.807   6.694  0.0339  0.2212  0.1197
11720W        W54637  20.210  10.361   9.314  0.7229  0.4607 -0.0501
11721W        W54638  19.468   7.110   5.146  0.0690  0.1271 -0.1362
11722W        W54639  19.298  12.002   8.901 -0.2025 -0.1754 -0.4090
11723W        W54640  23.120  10.126   9.872  0.2376 -0.2884  0.1463
11724W        W54641  20.077   9.066   7.950 -0.2823 -0.2735 -0.1924
11725W        W54642  18.929  10.250   6.892  0.1237  0.0052  0.2494
11726W        W54643  19.286   8.537   7.025  0.2569  0.1833  0.0812
11727W        W54644  20.831   8.338   8.890 -0.4703 -0.1071 -0.0244
11728W        W54645  22.998  10.406   8.308  0.1795  0.0714 -0.1833
11729W        W54646  19.977   6.469   6.860 -0.0614 -0.0243 -0.0867
11730W        W54647  19.637  11.963   7.894 -0.4279 -0.1203  0.0507
11731W        W54648  21.839   9.191   9.618  0.2233 -0.2694  0.4004
11732W        W54649  19.911   8.359   9.748 -0.2599 -0.0558  0.0627
11733W        W54650  20.757  10.718   9.984 -0.3689 -0.0634 -0.2293
11734W        W54651  22.379   4.544   9.279 -0.1507 -0.0880 -0.2234
11735W        W54652  21.439  11.249   9.167 -0.2473  0.1071  0.2358
11736W        W54653  19.157   8.312   8.119  0.0209  0.0305 -0.2839
11737W        W54654  17.419   9.971   7.644 -0.0566  0.0776 -0.2163
11738W        W54655  22.318   9.633   8.708 -0.2840 -0.1247  0.0702
11739W        W54656  17.699  10.164   9.763  0.0009  0.2519 -0.5061
11740W        W54657  20.674   9.782   6.701  0.0843  0.0484 -0.2165
11741W        W54658  19.751   7.423   6.743  0.2575  0.1882  0.0058
11742W        W54659  19.377  11.203   7.636  0.1689  0.2634 -0.1567
11743W        W54660  18.947  12.132   8.603  0.1735  0.2003  0.2547
11744W        W54661  18.786  12.038   9.514 -0.0202  0.1723  0.0227
11745W        W54662  21.290  11.812   6.410  0.1598  0.2488 -0.0199
11746W        W54663  19.382  10.150   6.692 -0.3763  0.0409  0.0175
11747W        W54664  21.770  13.035   8.794  0.3218  0.1539  0.0747
11748W        W54665  20.180   8.458   7.475 -0.1391  0.0625  0.2967
11749W        W54666  20.781  10.509   8.164 -0.0818  0.1140  0.1295
11750W        W54667  19.630  11.299   8.513 -0.0526 -0.0265  0.1291
11751W        W54668  21.345  11.057   7.768  0.0849  0.0300 -0.1891
11752W        W54669  20.517  11.877   8.990 -0.0305 -0.1497 -0.0499
11753W        W54670  21.537   7.656   6.368  0.4018 -0.2391  0.3423
11754W        W54671  18.887   8.942   9.451  0.1182  0.0234 -0.1101
11755W        W54672  21.376   9.300   6.374  0.0159  0.1753 -0.0587
11756W        W54673  20.918  11.566   9.016  0.0407 -0.0029 -0.1899
11757W        W54674  20.569   9.108   7.120  0.4269 -0.1098 -0.1822
11758W        W54675  20.869  11.577   7.582  0.0979 -0.1543 -0.0244
11759W        W54676  19.941   9.843   9.118  0.1523  0.2638  0.0779
11760W        W54677  19.763   8.966   9.091 -0.0881 -0.0597  0.0106
11761W        W54678  21.739   6.761   8.550  0.0956 -0.1844  0.0718
11762W        W54679  20.292  11.155   8.692 -0.0565  0.2007 -0.2137
11763W        W54680  20.085   8.281   7.039 -0.2557  0.2397  0.0918
11764W        W54681  18.279  11.744   8.117 -0.2233  0.1173  0.0668
11765W        W54682  21.519  12.176   8.274  0.0302  0.0205  0.3847
11766W        W54683  21.602   8.727   9.038  0.0683 -0.1981 -0.0088
11767W        W54684  19.681   9.187   8.394 -0.2651  0.2858 -0.6903
11768W        W54685  20.565   7.459   6.271  0.0421  0.2652  0.4416
11769W        W54686  17.584   7.309  12.431 -0.6529 -0.0660  0.0553
11770W        W54687  18.264   8.977   7.748  0.1400 -0.3176 -0.0393
11771W        W54688  20.779   9.290   6.525 -0.0242 -0.0066 -0.2094
11772W        W54689  20.426   8.580   8.640 -0.0589 -0.0707  0.1341
11773W        W54690  18.000   9.234   9.771  0.0608 -0.1309  0.2392
11774W        W54691  19.413   9.032   6.159 -0.3197  0.0682 -0.2121
11775W        W54692  19.428   9.705   7.567  0.1447 -0.2800 -0.2362
11776W        W54693  20.223   9.605   7.978 -0.2736  0.1141  0.3736
11777W        W54694  20.415   9.772   6.196 -0.1622  0.0417 -0.0813
11778W        W54695  19.027   9.382   7.211 -0.1667  0.1699  0.0723
11779W        W54696  22.054  11.399   9.090  0.0747  0.3202  0.0762
11780W        W54697  18.507   7.932   6.593  0.3255  0.2080 -0.2577
11781W        W54698  19.897  10.623   7.091  0.0931  0.2594  0.0982
11782W        W54699  21.244   9.260   8.775 -0.0976  0.0594  0.1969
11783W        W54700  19.763  12.644   7.009 -0.1183  0.1934  0.1387
11784W        W54701  19.644  10.783   7.506  0.1720  0.1228 -0.0107
11785W        W54702  20.667  10.364   7.178 -0.0244 -0.0188  0.0383
11786W        W54703  18.368   9.354   9.412  0.1694  0.0566 -0.1410
11787W        W54704  20.380   8.670   8.078  0.3288  0.3934  0.0623
11788W        W54705  22.020  12.085   8.237 -0.2455  0.0907  0.2109
11789W        W54706  19.707   7.956   6.959  0.4149  0.0542 -0.1309
11790W        W54707  20.463   9.930   9.172 -0.2702  0.0760 -0.0249
11791W        W54708  17.868  13.043   7.569 -0.2433  0.2252 -0.0058
11792W        W54709  21.513  11.138   8.245  0.4267  0.2115  0.0928
11793W        W54710  20.445  10.662   8.577  0.0816 -0.0413  0.0431
11794W        W54711  18.058   8.962   8.742  0.0280  0.0730  0.0420
11795W        W54712  19.730  10.056   8.723 -0.1171 -0.1775 -0.3077
11796W        W54713  19.947   9.751   7.338  0.2436 -0.0938 -0.0515
11797W        W54714  20.565  10.508   7.649 -0.0248  0.0652 -0.1050
11798W        W54715  21.737  11.618   9.381 -0.1185 -0.4224 -0.4178
11799W        W54716  20.859   8.915   8.780  0.1385  0.1519  0.1180
11800W        W54717  23.468   9.622   7.573 -0.0352 -0.0717 -0.0826
11801W        W54718  20.525  10.323   9.797  0.1087 -0.0501  0.1985
11802W        W54719  23.420   6.953   6.390 -0.2113 -0.1802  0.1354
11803W        W54720  20.977   8.878   7.899  0.0391  0.2814 -0.0065
11804W        W54721  20.078  11.737   9.122  0.0166  0.0475  0.3430
11805W        W54722  20.692   8.332   7.875 -0.0581  0.0903 -0.1340
11806W        W54723  18.861   9.396   9.160 -0.1632  0.0408  0.0140
11807W        W54724  20.890   9.740   9.017 -0.0530  0.0510  0.2160
11808W        W54725  23.521   6.684   8.810  0.2810  0.0239  0.0857
11809W        W54726  18.940   8.168   7.642  0.0708  0.1624 -0.1255
11810W        W54727  22.082   9.992   6.524  0.1287 -0.1134 -0.1168
11811W        W54728  20.654   8.642   9.233 -0.0709  0.0513 -0.1021
11812W        W54729  16.903   7.983   6.421  0.1094 -0.1852  0.1369
11813W        W54730  19.439   9.366   6.912 -0.2634  0.0273  0.0393
11814W        W54731  21.998  10.178   7.888 -0.0597 -0.0822 -0.1530
11815W        W54732  19.338   9.069   9.607  0.1306 -0.0433 -0.0241
11816W        W54733  18.012  11.173   8.074  0.0255  0.0001 -0.1182
11817W        W54734  19.665   7.138   5.754 -0.0776 -0.0259  0.0258
11818W        W54735  24.544   6.396   8.735 -0.2243 -0.1573 -0.1213
11819W        W54736  21.179   9.679   6.669  0.0626 -0.0636 -0.1556
11820W        W54737  22.025  11.515   5.843  0.3556 -0.0219 -0.1423
11821W        W54738  18.340   7.440   8.380  0.2996 -0.0523  0.1982
11822W        W54739  20.407  10.023   7.467 -0.3504  0.2279  0.0698
11823W        W54740  22.554  10.827   7.067  0.1055 -0.2522 -0.4326
11824W        W54741  23.059   6.484   8.644 -0.4141  0.0680 -0.3339
11825W        W54742  20.510  10.201   6.468 -0.1101 -0.0145  0.0064
11826W        W54743  22.141   8.883   9.214 -0.1251  0.0213 -0.2449
11827W        W54744  19.705   9.429   9.392  0.2332  0.2432 -0.2553
11828W        W54745  21.022   8.839   7.185 -0.0827 -0.1227 -0.1600
11829W        W54746  20.007  10.637   8.923  0.2155  0.0304  0.1951
11830W        W54747  17.372  10.612   8.812  0.1209  0.1840 -0.1685
11831W        W54748  20.595   6.735   9.577  0.1536  0.0691  0.0883
11832W        W54749  20.160   9.337   7.508  0.0665  0.4254  0.2833
11833W        W54750  19.679   8.493   7.406  0.0534 -0.0791  0.0588
11834W        W54751  21.318   9.800   7.532  0.2739  0.1403  0.3669
11835W        W54752  20.766   9.379   8.687 -0.1938 -0.1178  0.1213
11836W        W54753  20.296   6.668   8.645 -0.0124  0.0036 -0.0477
11837W        W54754  21.610   9.717   9.742  0.2992  0.1448 -0.2139
11838W        W54755  19.035   8.537   8.601 -0.0031  0.0787 -0.0500
11839W        W54756  19.322   9.187   9.116 -0.0240 -0.0509  0.0917
11840W        W54757  18.466  10.246   7.182  0.0931  0.0500  0.1238
11841W        W54758  20.682   9.006   8.310  0.0234  0.3161  0.2728
11842W        W54759  19.839   9.370   8.815  0.0825  0.1269  0.0563
11843W        W54760  19.996   5.615   7.788  0.1015 -0.4068  0.0524
11844W        W54761  21.281  10.482   9.826  0.2776 -0.0238 -0.0382
11845W        W54762  17.095  10.393  10.415  0.2640  0.1921 -0.0072
11846W        W54763  20.143  11.712   4.393 -0.0250  0.1321  0.0666
11847W        W54764  18.760  12.813   1.400  0.1646  0.0452  0.0384
11848W        W54765  21.253  11.031  30.597 -0.2562 -0.3158 -0.1691
11849W        W54766  20.687  14.559  31.284 -0.0986 -0.1317  0.1251
11850W        W54767  17.252  11.526  31.852 -0.1610 -0.0395 -0.0596
11851W        W54768  20.235  15.107   0.931  0.3437  0.4261 -0.2416
11852W        W54769  17.372  11.403   1.396  0.0447 -0.0449  0.0719
11853W        W54770  20.258  14.606   1.214  0.0617  0.2247  0.1988
11854W        W54771  21.205  14.205   1.069  0.1608 -0.0755  0.0422
11855W        W54772  18.823  10.073  29.387  0.1191  0.0022 -0.2981
11856W        W54773  19.560  11.971   1.034  0.0476  0.3946  0.2585
11857W        W54774  18.207  15.251   1.689 -0.2178 -0.1977 -0.2169
11858W        W54775  19.342  11.524  30.959  0.1785 -0.2038 -0.1622
11859W        W54776  18.227  12.167   1.694 -0.0661 -0.0004  0.1668
11860W        W54777  20.280  13.833   2.677  0.1826 -0.1530 -0.2267
11861W        W54778  15.591  13.412   1.012 -0.0310  0.4759  0.0780
11862W        W54779  19.068  14.143   1.929  0.3416 -0.2447 -0.0457
11863W        W54780  19.470  10.112   0.214 -0.0068  0.1578  0.0987
11864W        W54781  18.685  14.455  30.317 -0.3308 -0.3914 -0.1639
11865W        W54782  18.132  13.039   4.047  0.1983 -0.2384  0.0161
11866W        W54783  19.093  11.865   5.427  0.0295  0.3346  0.1343
11867W        W54784  21.313  12.266  31.059  0.1535 -0.0671 -0.2008
11868W        W54785  17.773  12.937  29.042 -0.0801 -0.1414  0.2746
11869W        W54786  19.246  11.721   0.606  0.2388  0.3591  0.0904
11870W        W54787  21.565  12.770   0.910  0.1815  0.3251 -0.0588
11871W        W54788  24.325  14.550   0.377  0.4084  0.0908 -0.1297
11872W        W54789  19.765  14.075   0.895  0.0625  0.0612 -0.1686
11873W        W54790  19.921  14.980  31.826  0.0891 -0.0101  0.0475
11874W        W54791  21.871  11.255   0.997 -0.1249 -0.3177  0.3221
11875W        W54792  17.697  13.478  31.384  0.2162 -0.3345  0.0567
11876W        W54793  16.471  13.434  31.948  0.4177 -0.0641 -0.1739
11877W        W54794  19.383  12.461  31.572  0.3633 -0.1558  0.4040
11878W        W54795  21.273  15.406   0.189  0.2850  0.3291 -0.0513
11879W        W54796  21.111  14.062   2.218  0.0038  0.0468  0.4555
11880W        W54797  18.531  15.353   0.028 -0.3775 -0.0086  0.0688
11881W        W54798  17.855  14.102  31.579  0.2432  0.0133  0.0746
11882W        W54799  19.980  13.502   1.801  0.1211  0.2982 -0.3915
11883W        W54800  16.907  14.602   1.683  0.0992 -0.2306  0.0474
11884W        W54801  19.678  13.627   3.138 -0.0672 -0.1005 -0.1354
11885W        W54802  18.578  12.678  30.611  0.1154  0.2405 -0.2659
11886W        W54803  19.244  13.675  28.563  0.0303 -0.2628 -0.1122
11887W        W54804  19.471  12.317   0.628  0.0932 -0.2710  0.2404
11888W        W54805  16.735  12.965   2.432  0.2615  0.1382  0.0316
11889W        W54806  18.377  14.131   0.296 -0.1039 -0.0261  0.1428
11890W        W54807  19.931  12.327   2.764  0.1546 -0.1270 -0.2114
11891W        W54808  18.050  14.833  31.026 -0.0927  0.0721  0.0495
11892W        W54809  20.454  11.028  29.947  0.1622  0.2038  0.1205
11893W        W54810  17.724  13.344  30.768  0.2598 -0.0458 -0.0182
11894W        W54811  21.571  12.864   0.205  0.0276  0.0497  0.0278
11895W        W54812  19.261  10.997   0.851  0.0757 -0.0613 -0.4536
11896W        W54813  17.441  12.653  31.610  0.1199  0.0296  0.1732
11897W        W54814  20.253  10.938   1.687 -0.2030  0.1525 -0.0426
11898W        W54815  20.679  13.424   3.584 -0.0167 -0.0401 -0.0674
11899W        W54816  18.921  11.290   0.573 -0.0863  0.1244 -0.1479
11900W        W54817  21.496  13.652   0.286 -0.3125  0.1300 -0.1973
11901W        W54818  20.039  13.180   0.680 -0.1269 -0.1087  0.1639
11902W        W54819  19.016  12.803  31.833 -0.0094 -0.1120  0.4148
11903W        W54820  19.524  15.667  30.785 -0.1356 -0.0096  0.0669
11904W        W54821  19.066  12.989   1.924 -0.0662 -0.0456 -0.3265
11905W        W54822  19.761  14.315  31.259 -0.2552  0.1634 -0.1149
11906W        W54823  18.260  12.668   0.897  0.0010  0.3391 -0.0411
11907W        W54824  20.212  12.278  31.885 -0.2759 -0.0738  0.0779
11908W        W54825  18.487  13.466   1.606  0.1167 -0.4103 -0.0075
11909W        W54826  17.008  12.822  31.327  0.0109  0.4430  0.1564
11910W        W54827  20.739  13.938   3.326 -0.1429  0.2299  0.1890
11911W        W54828  16.532  13.751   0.762  0.0292  0.0865 -0.2376
11912W        W54829  19.644  13.430  31.579  0.0997  0.0104 -0.0352
11913W        W54830  16.079  14.220   0.133  0.0137  0.1510  0.5158
11914W        W54831  20.411  13.429   0.820 -0.1017 -0.0303 -0.2073
11915W        W54832  18.591  13.002  30.994 -0.1629 -0.3592 -0.0203
11916W        W54833  19.668  12.351   1.393 -0.3500  0.0796  0.0402
11917W        W54834  21.868  11.445  31.306  0.0707  0.3728  0.0933
11918W        W54835  18.427  14.429  30.795  0.0707 -0.1351 -0.0357
11919W        W54836  17.454  11.857   0.277 -0.2368 -0.0095  0.1904
11920W        W54837  22.080  13.812   2.073  0.0940 -0.1578 -0.1857
11921W        W54838  21.067  11.672   0.807  0.1808 -0.2509 -0.1366
11922W        W54839  19.182  13.167   0.799 -0.1912  0.1132  0.0292
11923W        W54840  18.056  13.917   4.351 -0.1450  0.2256  0.1767
11924W        W54841  18.865  13.461   2.018  0.0727  0.2243  0.1173
11925W        W54842  17.191  14.473  29.747 -0.2980  0.0670  0.2162
11926W        W54843  19.449  13.917   1.369  0.0405 -0.0063  0.0164
11927W        W54844  17.058  12.651   0.386  0.1846 -0.1481 -0.4249
11928W        W54845  19.009  11.628   1.531 -0.0790 -0.0588  0.1689
11929W        W54846  17.779  13.472   2.377  0.0893 -0.2014 -0.0481
11930W        W54847  22.484  11.078   1.358  0.0612  0.0883  0.0395
11931W        W54848  18.875  12.646   2.259 -0.0198  0.0841 -0.3110
11932W        W54849  22.120  10.453   0.519 -0.2790  0.2375  0.0098
11933W        W54850  16.469  11.987   0.128  0.2004 -0.1618 -0.0349
11934W        W54851  20.800  13.959   1.780 -0.2004  0.1803  0.1665
11935W        W54852  20.093  13.605  31.702 -0.0031  0.0164 -0.0580
11936W        W54853  19.601  13.055  29.496  0.1636 -0.0508  0.1420
11937W        W54854  18.580  12.995   1.912 -0.2253 -0.0781 -0.1055
11938W        W54855  18.913  14.356   0.020 -0.2903  0.1974 -0.0998
11939W        W54856  19.409  10.777   4.553  0.0015 -0.1991 -0.1148
11940W        W54857  19.657  13.796   0.244  0.0957 -0.0198  0.0082
11941W        W54858  20.227  12.705   2.510  0.0093  0.1450 -0.2512
11942W        W54859  17.878  11.241  31.672 -0.0404 -0.1679  0.0749
11943W        W54860  20.218  12.673   0.713 -0.4150 -0.5652 -0.2642
11944W        W54861  18.145  13.174  31.838  0.0076  0.0763  0.1985
11945W        W54862  15.905  12.702  31.781 -0.0546  0.0723  0.2753
11946W        W54863  19.039  11.936   1.933  0.0649  0.1133 -0.0603
11947W        W54864  21.399  14.934   0.172 -0.1686  0.1147  0.0562
11948W        W54865  18.871  13.918   3.186  0.0267  0.3189  0.0308
11949W        W54866  20.655  14.498   0.369 -0.3851  0.1109 -0.0201
11950W        W54867  19.387  12.522   1.018 -0.1594 -0.4600 -0.1654
11951W        W54868  16.886  13.432   0.926  0.1090  0.1429  0.0789
11952W        W54869  17.262  14.868  31.662 -0.2044  0.1538  0.1309
11953W        W54870  19.381  13.426   1.985 -0.0741 -0.2506  0.0855
11954W        W54871  19.079  13.284  31.004  0.1402 -0.3321 -0.1113
11955W        W54872  20.773  15.185   1.793 -0.0279  0.2453  0.0060
11956W        W54873  20.066  14.092   2.243 -0.0042  0.1768 -0.0258
11957W        W54874  18.332  13.772   1.233  0.2053 -0.2350  0.0295
11958W        W54875  20.325  11.285   2.888 -0.0554  0.2661 -0.2177
11959W        W54876  19.376  13.947   4.817  0.0518  0.2139  0.0663
11960W        W54877  18.426  13.938  29.529 -0.1239 -0.1877  0.0964
11961W        W54878  17.475  10.449  31.727 -0.1398 -0.3150  0.1594
11962W        W54879  18.756  15.562   0.465  0.0074 -0.3098 -0.2342
11963W        W54880  18.573  16.730  29.554  0.2623  0.0042 -0.0454
11964W        W54881  15.144  14.087   0.597 -0.1605 -0.0272 -0.1353
11965W        W54882  17.771  15.021  31.652 -0.0568  0.3585  0.4628
11966W        W54883  21.488  13.210   2.138  0.1385  0.0150 -0.1239
11967W        W54884  17.514  13.439   1.412 -0.0651 -0.0479  0.2451
11968W        W54885  18.544  12.197   4.860  0.1052  0.1504 -0.2294
11969W        W54886  18.083  12.909  30.865 -0.0998 -0.0287  0.2377
11970W        W54887  18.855  16.130  31.688  0.0245  0.3308 -0.0043
11971W        W54888  19.537  11.166  31.838  0.1748 -0.2501  0.0324
11972W        W54889  21.229  12.387   0.185 -0.2714  0.1664  0.0350
11973W        W54890  17.952  12.066   3.499 -0.0747  0.3156 -0.2285
11974W        W54891  17.909  13.100   1.451  0.1964  0.1131 -0.1745
11975W        W54892  20.428  13.383  31.352 -0.0037  0.0359 -0.0412
11976W        W54893  18.856  11.530  31.264  0.0883 -0.0962  0.1888
11977W        W54894  16.059  13.546   0.813  0.1263  0.1826  0.0582
11978W        W54895  20.427  13.261  31.835 -0.0130 -0.0905  0.0133
11979W        W54896  19.367  13.095  31.395  0.0825 -0.1403 -0.2073
11980W        W54897  20.507  11.066   0.659 -0.0304 -0.1162  0.0064
11981W        W54898  20.162  14.086  31.918 -0.2798  0.0805  0.0282
11982W        W54899  18.724  13.850   0.526  0.1360  0.1908 -0.1811
11983W        W54900  19.114  14.453   3.106  0.1488  0.1520  0.1287
11984W        W54901  17.713  12.493   3.383 -0.0508 -0.2769 -0.0987
11985W        W54902  18.908  11.120   2.594 -0.1528  0.2637  0.1669
11986W        W54903  18.034  12.763  28.660  0.0188 -0.2176 -0.2437
11987W        W54904  18.748  12.475  31.033  0.0612 -0.0924 -0.2103
11988W        W54905  15.981  16.225  30.174 -0.0516  0.0392  0.0114
11989W        W54906  19.713  11.281   0.732 -0.1883 -0.2228 -0.0126
11990W        W54907  19.935  13.114   1.510  0.0059  0.0190  0.0925
11991W        W54908  20.234  12.031   3.585 -0.1232  0.0124  0.0282
11992W        W54909  19.889  12.021   4.065  0.0825  0.0705  0.0091
11993W        W54910  20.402  14.102  30.920  0.0215  0.3939 -0.0329
11994W        W54911  19.075  13.699   1.643 -0.0917 -0.0377 -0.1173
11995W        W54912  19.806  13.976  29.287 -0.0730 -0.1850 -0.0056
11996W        W54913  19.486   9.982   3.356 -0.2301 -0.0087 -0.0788
11997W        W54914  16.032  11.530   5.415  0.1722  0.3137  0.2375
11998W        W54915  16.172  14.153   1.259 -0.1181 -0.1178 -0.2784
11999W        W54916  18.904  14.568   2.184  0.1755  0.0528 -0.2581
12000W        W54917  20.728  12.346   0.767  0.2398  0.0090  0.2997
12001W        W54918  20.540  10.617   3.611  0.0431 -0.2814 -0.2359
12002W        W54919  20.661  12.538  31.318  0.1254  0.4030 -0.0769
12003W        W54920  18.782  13.877  30.407  0.4041 -0.0648 -0.3111
12004W        W54921  19.205  13.192  29.766  0.0183 -0.2342  0.0969
12005W        W54922  19.582  11.657   4.141 -0.0722 -0.0515 -0.2046
12006W        W54923  19.441  13.813   3.901  0.2259 -0.5538  0.3154
12007W        W54924  18.246  16.379  29.745 -0.3161 -0.0319  0.1406
12008W        W54925  19.599  14.067   1.984  0.0558  0.1606  0.0542
12009W        W54926  18.845  13.892   1.225 -0.1730 -0.0892  0.0578
12010W        W54927  21.381  11.197  31.366 -0.0140  0.3062 -0.0167
12011W        W54928  17.934  14.145   0.901 -0.0910  0.0928  0.2827
12012W        W54929  17.681   9.798  28.595 -0.2501 -0.1764  0.0226
12013W        W54930  16.791  13.243   1.986 -0.2275  0.1983 -0.0145
12014W        W54931  20.385  13.148   1.223 -0.1290  0.0138 -0.2303
12015W        W54932  19.290  14.509  29.821 -0.0844  0.2754  0.0843
12016W        W54933  19.589  11.437   3.520  0.3671  0.2554 -0.0215
12017W        W54934  19.322  10.883  29.736 -0.4846 -0.0585  0.1866
12018W        W54935  19.298  15.070  30.556 -0.0185 -0.0433  0.1359
12019W        W54936  18.709  13.276   4.038  0.0014 -0.1345 -0.1171
12020W        W54937  21.287  10.261  31.240 -0.1979  0.2082  0.5208
12021W        W54938  19.282  14.929   2.359  0.1885 -0.1324  0.0609
12022W        W54939  18.346  13.719   2.027  0.1491  0.2722 -0.0684
12023W        W54940  18.529  11.697  30.342 -0.4797  0.2416 -0.0855
12024W        W54941  19.437  13.182   2.407 -0.1703  0.1125  0.1158
12025W        W54942  19.602  11.850   2.749 -0.1309 -0.1318  0.1213
12026W        W54943  18.422  13.842  30.968  0.3808  0.0270  0.2331
12027W        W54944  19.674  14.623   0.929 -0.1548 -0.0233 -0.3651
12028W        W54945  16.565  14.372  30.788 -0.3319 -0.0593 -0.0600
12029W        W54946  16.670  13.630   1.631 -0.3133  0.4285  0.2700
12030W        W54947  19.096  11.484   2.138  0.2163  0.2404 -0.1880
12031W        W54948  21.012  13.139   2.017 -0.1179  0.3977 -0.1485
12032W        W54949  19.953  11.179  31.513  0.0176  0.1981 -0.0153
12033W        W54950  17.912  12.624  31.703  0.0025 -0.0601 -0.0308
12034W        W54951  20.684  13.926  31.925  0.2253  0.0904  0.0704
12035W        W54952  20.680  13.455   2.962 -0.2690 -0.0392 -0.3898
12036W        W54953  18.036  10.798   2.560  0.2169  0.1665 -0.4637
12037W        W54954  18.815  14.526   2.669  0.0609  0.0761 -0.0508
12038W        W54955  20.205  12.485   1.254  0.0679  0.0980 -0.0470
12039W        W54956  20.280  14.728  31.601 -0.1277 -0.1146  0.0518
12040W        W54957  19.566  13.139   3.121 -0.0572 -0.0314 -0.1092
12041W        W54958  18.741  14.138  31.510  0.3262 -0.0026 -0.0588
12042W        W54959  18.040  12.169  31.168 -0.1051 -0.2614  0.0593
12043W        W54960  18.045  14.639  31.511  0.1359  0.2048  0.4466
12044W        W54961  20.302  13.093   1.855 -0.1318  0.1110 -0.0370
12045W        W54962  18.023  13.586   1.611 -0.0452 -0.3004  0.0056
12046W        W54963  19.289  14.243  30.816 -0.0775  0.2342 -0.3159
12047W        W54964  18.235  15.152   0.404 -0.3153 -0.2530  0.1364
12048W        W54965  21.250  12.889  29.215  0.0733  0.4807  0.0086
12049W        W54966  20.624  13.869  31.290 -0.2244  0.0437 -0.0700
12050W        W54967  20.579  11.625   0.510  0.0099 -0.1210  0.0640
12051W        W54968  20.911  12.575   3.075  0.0186 -0.0548 -0.0748
12052W        W54969  21.184  12.788  31.807 -0.1664 -0.1413  0.0159
12053W        W54970  18.663  10.905   0.851 -0.1056  0.1801  0.0668
12054W        W54971  18.400  12.069   3.205  0.3076  0.1346  0.2724
12055W        W54972  19.784  14.009   3.513  0.1275 -0.0870 -0.1508
12056W        W54973  17.232  11.649   0.737 -0.1408 -0.4110 -0.0791
12057W        W54974  19.595  14.887   3.713 -0.3248 -0.1081  0.2324
12058W        W54975  17.766  12.843   1.953  0.0706  0.1102  0.1235
12059W        W54976  20.959  11.284   0.573  0.4801 -0.2650 -0.0434
12060W        W54977  19.390  11.648  31.869  0.1710  0.2259  0.0083
12061W        W54978  19.218  13.041   0.319 -0.0240  0.1730 -0.0581
12062W        W54979  19.197  15.321  31.685  0.0279  0.0630  0.1578
12063W        W54980  18.584  13.006  31.568 -0.3734 -0.0699  0.1729
12064W        W54981  21.716  13.416  31.385 -0.1067  0.2973 -0.0779
12065W        W54982  19.047  12.667   0.717 -0.0688 -0.2558 -0.1603
12066W        W54983  18.848  11.870  30.918  0.1265 -0.2781 -0.1500
12067W        W54984  19.684  13.965  31.643  0.1961  0.0646  0.3511
12068W        W54985  19.298  13.616   0.976 -0.2029  0.0269 -0.0138
12069W        W54986  19.869  11.436   2.856  0.4419  0.0556  0.1881
12070W        W54987  19.848  14.473  31.757 -0.1975  0.0283  0.2676
12071W        W54988  22.096  10.488  31.513  0.1162  0.2889 -0.1846
12072W        W54989  20.391  11.441  31.480  0.0714  0.0667 -0.0046
12073W        W54990  21.666  12.241   1.847  0.0692 -0.2323 -0.1627
12074W        W54991  17.057  12.666   2.665 -0.1498 -0.3143 -0.2336
12075W        W54992  17.935  12.914   2.422  0.1798  0.1751  0.2558
12076W        W54993  21.268  14.143   2.658 -0.1596  0.0373 -0.0154
12077W        W54994  21.371  13.174   1.155 -0.0555  0.3086  0.1546
12078W        W54995  20.083  11.876   0.192 -0.3205  0.0551 -0.2615
12079W        W54996  19.724  13.282   0.154  0.1356  0.2342 -0.1163
12080W        W54997  19.926  13.071  31.681 -0.1421  0.1075 -0.1708
12081W        W54998  20.671  12.748   1.308  0.3598 -0.2437  0.1665
12082W        W54999  19.654  11.191   4.373  0.1792 -0.3466  0.0287
12083W        W55000  18.687  11.955  29.776  0.1695 -0.0772  0.0713
12084W        W55001  19.947  12.159   1.856 -0.0725  0.0340  0.3356
12085W        W55002  16.884  13.634  31.161  0.1496  0.1322 -0.2527
12086W        W55003  20.162  14.786   2.192  0.0918 -0.0529  0.0867
12087W        W55004  19.690  12.164  31.202  0.0010 -0.3543 -0.0265
12088W        W55005  18.829  12.431   1.092 -0.2301 -0.1302 -0.0125
12089W        W55006  17.948  13.793   0.417  0.0104 -0.0328  0.0263
12090W        W55007  18.424  11.611  30.911  0.1984 -0.2495 -0.0068
12091W        W55008  16.563  12.762  31.093  0.1077 -0.1516  0.2475
12092W        W55009  18.517  14.629   0.742  0.0545  0.0635  0.1610
12093W        W55010  20.378  12.639   4.220 -0.0969 -0.1408 -0.1780
12094W        W55011  20.762  11.114   0.157  0.1816  0.0094  0.3316
12095W        W55012  18.754  12.503   4.358  0.0808 -0.0445 -0.0297
12096W        W55013  19.133  15.218  29.026 -0.4038 -0.2577  0.3362
12097W        W55014  20.072   8.879  31.346  0.1976 -0.1219 -0.0155
12098W        W55015  19.217  14.747   0.129  0.1190  0.2806  0.2068
12099W        W55016  17.798  14.622   4.427 -0.1894 -0.0956 -0.1046
12100W        W55017  18.583  12.584   0.513 -0.0155 -0.1684  0.2869
12101W        W55018  22.436  11.011   2.242 -0.0205 -0.1728  0.0735
12102W        W55019  19.978  13.676   0.661 -0.0904 -0.1497  0.0540
12103W        W55020  19.143  13.964  31.794 -0.1594 -0.2651 -0.2738
12104W        W55021  22.493  14.178   3.384  0.1619 -0.0822 -0.1294
12105W        W55022  20.449  14.310   2.026 -0.1066  0.1085 -0.2529
12106W        W55023  19.263  14.116   0.989 -0.0544 -0.0731 -0.3557
12107W        W55024  19.478  12.974  31.863 -0.2145  0.0919 -0.0558
12108W        W55025  20.366  14.033   0.477  0.2507  0.1893 -0.0294
12109W        W55026  17.000  13.920   0.796  0.0282 -0.0625  0.2057
12110W        W55027  18.057  12.390   2.517  0.1528 -0.1298 -0.1652
12111W        W55028  19.375  12.594   2.157 -0.1424  0.0845 -0.1127
12112W        W55029  20.600  12.918   2.806 -0.1459 -0.1133 -0.5621
12113W        W55030  18.672  13.085   0.114 -0.3111 -0.3552  0.0495
12114W        W55031  18.598  12.366  29.397 -0.2168 -0.0658 -0.1289
12115W        W55032  17.881  12.943   3.211  0.0256 -0.0125  0.0266
12116W        W55033  19.470  13.391   1.504 -0.2132 -0.1627  0.0782
12117W        W55034  17.180  16.559  31.080 -0.0556 -0.0569  0.1587
12118W        W55035  19.109  13.779  30.866 -0.2254 -0.1841  0.1055
12119W        W55036  17.844  13.539  31.921  0.0466 -0.0779  0.0976
12120W        W55037  17.685  14.326   0.508 -0.1173 -0.2543  0.2800
12121W        W55038  17.649  12.237  30.853 -0.1974 -0.3223  0.0077
12122W        W55039  18.029  15.025  29.770  0.1030  0.0376  0.1382
12123W        W55040  17.052  13.744  29.893  0.1331  0.0257 -0.3578
12124W        W55041  18.180  16.329  31.940  0.0945  0.2885  0.2268
12125W        W55042  18.234  15.001  31.836  0.1320 -0.0322  0.1563
12126W        W55043  20.629  13.940   2.308 -0.0320 -0.1322 -0.0232
12127W        W55044  20.816  11.246  30.309  0.1981  0.2264  0.2416
12128W        W55045  22.797  12.754   2.038  0.0958 -0.1061  0.3212
12129W        W55046  21.498  11.955  31.920 -0.0223 -0.2122  0.2687
12130W        W55047  22.338  15.074   2.375 -0.0999 -0.3507  0.1973
12131W        W55048  19.743  14.774   0.296 -0.2742  0.0797  0.1264
12132W        W55049  17.299  10.616  31.307 -0.0616 -0.3002  0.1453
12133W        W55050  18.830  11.973   2.934 -0.0560 -0.2048  0.1563
12134W        W55051  20.174  12.478   3.782 -0.1737  0.2366  0.2044
12135W        W55052  17.587  13.845   1.793 -0.1155  0.0382 -0.1195
12136W        W55053  20.507  16.390  30.033  0.0058  0.1276  0.1175
12137W        W55054  19.267  11.200  31.437  0.3253  0.1347  0.2661
12138W        W55055  19.211  12.473   3.618 -0.1853 -0.1412  0.2192
12139W        W55056  21.728  14.878   0.672 -0.1234 -0.0449 -0.1541
12140W        W55057  18.256  14.211  31.341 -0.0364  0.2548  0.4067
12141W        W55058  19.903  12.313   0.865 -0.2879  0.3235 -0.1848
12142W        W55059  18.528  17.017  29.092 -0.0574 -0.1786 -0.0871
12143W        W55060  19.401  14.882   1.448  0.0380 -0.2047 -0.0275
12144W        W55061  17.491  13.080  30.449 -0.1101 -0.2416  0.0337
12145W        W55062  15.952  11.339  31.853 -0.1926  0.3185 -0.0935
12146W        W55063  22.361  12.945  31.057 -0.2452 -0.2525  0.2099
12147W        W55064  21.044  13.649   2.509  0.1925  0.0161  0.2291
12148W        W55065  20.288  10.219   2.772 -0.2457  0.0623 -0.1831
12149W        W55066  18.806  13.375   0.545 -0.2807 -0.0643 -0.1611
12150W        W55067  20.219  14.549  31.001 -0.0736 -0.3185  0.1999
12151W        W55068  18.788  13.623   2.482 -0.1526  0.0292  0.0584
12152W        W55069  17.175  13.495   1.782  0.0911  0.2581 -0.3332
12153W        W55070  18.258  12.309  31.664  0.1371 -0.0238 -0.2660
12154W        W55071  21.178  13.145   3.719 -0.4460 -0.1795  0.4244
12155W        W55072  18.916  14.336   0.488  0.0211 -0.0552  0.0046
12156W        W55073  21.296  13.947   1.591 -0.2293 -0.0364 -0.1427
12157W        W55074  19.586  12.068   0.209 -0.0422 -0.0453  0.0741
12158W        W55075  20.033  13.082   2.276  0.1611  0.2761  0.0247
12159W        W55076  18.161  12.248   0.587  0.0788 -0.1763 -0.0884
12160W        W55077  18.634  13.261   2.865  0.0458 -0.2116  0.0841
12161W        W55078  20.890  15.701   1.371  0.1689 -0.1364 -0.1520
12162W        W55079  18.974  12.276   2.529 -0.2150  0.1576  0.4981
12163W        W55080  19.842  12.599  31.792 -0.2226  0.0075  0.1221
12164W        W55081  20.683  14.460   1.001  0.1494 -0.0273  0.0435
12165W        W55082  17.843  14.907  29.306 -0.1942 -0.0111  0.0679
12166W        W55083  19.910  12.503   0.318  0.1837 -0.1341  0.3684
12167W        W55084  20.319  14.103   1.031  0.0826  0.0019 -0.0327
12168W        W55085  18.227  11.839  31.813  0.2416  0.0914  0.2072
12169W        W55086  20.758  14.858   1.381  0.1915 -0.1732 -0.2606
12170W        W55087  19.461  12.677   4.150  0.1729  0.2624 -0.2136
12171W        W55088  17.857  12.172   0.172 -0.3002  0.2935  0.0436
12172W        W55089  19.006  13.036   3.152 -0.5028  0.3264 -0.1800
12173W        W55090  17.216  15.373  30.969  0.0293  0.1000  0.1203
12174W        W55091  20.859  12.038   0.337 -0.3322 -0.4614 -0.2564
12175W        W55092  19.638  12.967   1.931  0.0448 -0.0244  0.5100
12176W        W55093  19.249  14.163  30.250  0.1627  0.0851  0.0179
12177W        W55094  19.670  10.565   3.075  0.3123 -0.0188  0.2486
12178W        W55095  18.629  14.082   2.234 -0.4503  0.1875 -0.2185
12179W        W55096  18.423  12.887   2.398 -0.2797  0.2750 -0.1290
12180W        W55097  17.609  14.079  28.945  0.0235  0.0603  0.2800
12181W        W55098  18.221  12.627   2.015  0.0931 -0.2601  0.1226
12182W        W55099  19.515  10.670  30.801  0.1811 -0.0096 -0.0403
12183W        W55100  19.498  14.770  31.692 -0.0516  0.0694 -0.0826
12184W        W55101  20.370  13.862   1.887  0.2343 -0.0941 -0.0804
12185W        W55102  19.193  12.930   1.211  0.1279  0.2574 -0.3799
12186W        W55103  19.162  15.300   1.434  0.1791  0.1525 -0.1392
12187W        W55104  19.914  11.819   0.701  0.1195  0.0902 -0.0482
12188W        W55105  22.146  12.890   1.994  0.1221  0.0216 -0.1314
12189W        W55106  20.829  10.519  31.460 -0.0061  0.3574  0.0667
12190W        W55107  19.657  12.877   0.565 -0.0727  0.0373 -0.2996
12191W        W55108  16.507  12.578  31.895 -0.0886 -0.0811  0.1790
12192W        W55109  17.965  14.748  30.235  0.0653  0.0202  0.0414
12193W        W55110  18.246  14.314   1.273  0.1009  0.3718  0.1316
12194W        W55111  18.311  11.567   3.042  0.1236 -0.0042 -0.0293
12195W        W55112  16.612  10.945   0.547 -0.2494 -0.2774 -0.2781
12196W        W55113  18.289  12.602   1.490  0.0579 -0.0819 -0.1777
12197W        W55114  17.409  12.721   0.813  0.0582  0.0100 -0.3490
12198W        W55115  20.103  15.049  30.845  0.1946  0.1385 -0.0551
12199W        W55116  18.471  12.088   2.598 -0.0311  0.2899 -0.1110
12200W        W55117  19.958  11.543  31.800  0.1675 -0.1909 -0.0269
12201W        W55118  18.315  13.262   1.140  0.0142 -0.2206 -0.0220
12202W        W55119  19.368  14.669  31.108 -0.0291 -0.1899  0.4611
12203W        W55120  20.892  12.748  30.475  0.0879  0.1112 -0.1229
12204W        W55121  21.612  13.326   3.799  0.0606 -0.1414 -0.1759
12205W        W55122  17.002  12.476  30.102 -0.2671 -0.2064  0.1105
12206W        W55123  18.816  13.023   3.648 -0.0480 -0.0987  0.2484
12207W        W55124  17.620  12.234   4.250  0.2814 -0.0585  0.1488
12208W        W55125  18.199  10.911  30.932  0.0558 -0.0604 -0.2733
12209W        W55126  19.660  11.689  31.364  0.1595 -0.3623 -0.0122
12210W        W55127  18.736  13.856   0.036  0.2694  0.0713  0.1168
12211W        W55128  19.754  14.487  29.179 -0.2386 -0.0962  0.0028
12212W        W55129  18.669  12.554   3.423  0.2111 -0.0527 -0.0316
12213W        W55130  18.802  13.674   3.754 -0.2631 -0.0599 -0.2585
12214W        W55131  17.851  11.526   1.501 -0.2362 -0.1454 -0.0853
12215W        W55132  20.757  14.022   0.772 -0.0319 -0.0770  0.0134
12216W        W55133  18.880  13.142   2.429  0.1150 -0.0148 -0.2791
12217W        W55134  21.467  14.101  31.831 -0.0213  0.3299  0.0904
12218W        W55135  20.469  11.705  31.905 -0.1296  0.0625  0.1427
12219W        W55136  19.592  11.117  30.997  0.2534 -0.1463  0.0449
12220W        W55137  19.462  12.398   2.652 -0.1611 -0.1839 -0.1665
12221W        W55138  19.272  14.268   2.401 -0.2255 -0.1690  0.0271
12222W        W55139  21.034  15.137  31.195  0.1054  0.0131  0.1684
12223W        W55140  17.742  11.148   0.191  0.0901  0.1771  0.2986
12224W        W55141  21.003  12.313   1.220  0.0396  0.0125 -0.3122
12225W        W55142  18.566  14.723   3.970 -0.5141  0.1372  0.3149
12226W        W55143  19.130  12.762   2.674  0.0936 -0.0123  0.0856
12227W        W55144  20.044  10.929  30.781 -0.2490 -0.2524  0.2045
12228W        W55145  17.632  13.351   1.854 -0.1629 -0.0502  0.1308
12229W        W55146  20.140  12.951   0.176 -0.2181  0.1406 -0.2015
12230W        W55147  21.200  13.958   3.105  0.0597 -0.0822  0.5115
12231W        W55148  18.280  12.749   0.136 -0.1601  0.2019  0.0383
12232W        W55149  21.369  13.215   0.630  0.0374 -0.2292  0.0073
12233W        W55150  19.760  13.594   2.309 -0.3997 -0.3827 -0.1245
12234W        W55151  19.685  13.484   3.611 -0.3974  0.0922  0.2417
12235W        W55152  20.431  15.253   2.217 -0.1629 -0.0858  0.0939
12236W        W55153  20.965  14.951   4.744 -0.3690  0.3783  0.1875
12237W        W55154  17.753  12.618   1.165  0.0714 -0.0606 -0.0244
12238W        W55155  17.198  12.260  30.555 -0.3225  0.0880  0.0198
12239W        W55156  19.597  13.272   1.047  0.2271 -0.0148  0.1017
12240W        W55157  22.075  11.399   2.581 -0.2468 -0.0429  0.0090
12241W        W55158  19.488  12.009   2.272  0.0106 -0.0205  0.1332
12242W        W55159  19.234  11.854  31.417  0.0374  0.0877  0.3218
12243W        W55160  18.442  13.904   3.934  0.0597 -0.1139 -0.1988
12244W        W55161  19.293  12.952   3.575 -0.2747  0.0642  0.2747
12245W        W55162  17.184  14.213   7.291  0.5249  0.1921 -0.1124
12246W        W55163  18.327  13.245   4.872 -0.1234  0.0625 -0.0822
12247W        W55164  21.533  10.825   3.381 -0.3840  0.2084 -0.0094
12248W        W55165  21.630  12.306   4.923  0.4611 -0.0527 -0.2143
12249W        W55166  18.895  14.373   4.122  0.0274 -0.0260  0.0369
12250W        W55167  17.004  16.056   5.620 -0.0452  0.2418  0.2927
12251W        W55168  17.710  11.737   6.377  0.0428  0.0658  0.0785
12252W        W55169  19.697  12.029   4.562  0.0864 -0.0948 -0.0163
12253W        W55170  19.844  15.864   6.205 -0.0518  0.3301 -0.1721
12254W        W55171  17.426  12.954   1.544  0.1415  0.0441  0.0753
12255W        W55172  19.751  11.219   5.293 -0.0628 -0.0076  0.2936
12256W        W55173  16.895  13.309   4.935 -0.0476 -0.2143  0.1336
12257W        W55174  18.049  12.952   5.214 -0.1205  0.0014 -0.1724
12258W        W55175  19.179  10.647   7.707 -0.0681  0.1735  0.1216
12259W        W55176  20.461  13.168   5.027 -0.2488  0.1816 -0.0435
12260W        W55177  16.785  14.800   4.450 -0.1901 -0.0554  0.1597
12261W        W55178  17.300  12.875   4.464 -0.3908 -0.1641  0.3315
12262W        W55179  22.008  11.714   3.280  0.1438 -0.1593  0.1106
12263W        W55180  18.172  12.589   4.434 -0.3664 -0.1945  0.1452
12264W        W55181  20.973  11.637   4.207 -0.2319  0.0350 -0.0660
12265W        W55182  18.125  12.497   6.178  0.2590  0.2045 -0.1122
12266W        W55183  18.650  13.008   5.592  0.0473 -0.2002  0.2167
12267W        W55184  17.244  13.121   2.467 -0.2425  0.0391 -0.2736
12268W        W55185  16.919  11.591   3.914 -0.0594 -0.1356  0.3390
12269W        W55186  17.901  12.035   5.938  0.3074 -0.1580 -0.0618
12270W        W55187  21.188  10.325   4.745  0.3942  0.3474 -0.2163
12271W        W55188  19.344  13.412   5.902  0.0743  0.2376 -0.1897
12272W        W55189  17.769  14.219   4.093 -0.2044 -0.0863  0.2984
12273W        W55190  17.489  15.276   6.082  0.0306  0.1976 -0.1337
12274W        W55191  21.625  12.949   5.425 -0.1912  0.0085 -0.0984
12275W        W55192  16.831  14.502   2.568  0.1569 -0.1950 -0.1031
12276W        W55193  18.855  15.078   5.077 -0.0043 -0.0666  0.2300
12277W        W55194  17.840  14.610   3.253 -0.0777  0.0564 -0.0167
12278W        W55195  19.694  14.193   4.373 -0.0461 -0.3756 -0.2228
12279W        W55196  20.814  13.208   6.291 -0.0455 -0.0292 -0.1473
12280W        W55197  18.398  16.082   7.437 -0.0156 -0.1245 -0.0350
12281W        W55198  17.955  13.739   3.888 -0.2628  0.1905 -0.0777
12282W        W55199  20.841  14.472   5.740  0.1845 -0.0330  0.0940
12283W        W55200  19.479  13.414   6.430 -0.0959  0.0466 -0.1119
12284W        W55201  18.937  14.225   5.668  0.1841  0.1790 -0.0192
12285W        W55202  18.938  13.240   6.109  0.1472  0.1421 -0.2397
12286W        W55203  18.654  14.498   1.727 -0.0751 -0.1025 -0.0422
12287W        W55204  20.144  13.882   5.970  0.2102  0.0018  0.1947
12288W        W55205  18.190  14.685   5.715 -0.3486  0.2252  0.0609
12289W        W55206  16.845  14.453   5.862 -0.1505 -0.1149  0.0274
12290W        W55207  22.316  12.041   6.906 -0.2144  0.0477 -0.0523
12291W        W55208  19.541  14.451   2.874 -0.1452  0.0549  0.2008
12292W        W55209  19.595  13.405   4.844  0.1937  0.1742 -0.0313
12293W        W55210  17.496  11.082   3.306  0.0416 -0.1594 -0.0510
12294W        W55211  21.802  11.577   3.736  0.0267 -0.0217 -0.2046
12295W        W55212  19.112  12.113   6.504 -0.0193  0.0136 -0.2223
12296W        W55213  17.400  16.457   4.525 -0.3061 -0.0597 -0.0046
12297W        W55214  17.770  12.241   6.425  0.1046 -0.0381  0.1183
12298W        W55215  22.382  12.451   5.558  0.0248  0.2644 -0.1877
12299W        W55216  19.183  12.981   4.486 -0.1422  0.2319 -0.2336
12300W        W55217  21.808  12.460   5.403 -0.1147 -0.0457 -0.2760
12301W        W55218  17.961  15.105   4.541  0.1185  0.0339 -0.1561
12302W        W55219  16.435  14.509   4.163  0.1782 -0.0924  0.1316
12303W        W55220  19.913  14.056   3.016 -0.1463  0.2725  0.0398
12304W        W55221  20.632  13.403   4.627 -0.0365  0.3555 -0.1102
12305W        W55222  19.129  14.161   3.638  0.0869 -0.0847 -0.3904
12306W        W55223  17.340  14.372   5.918 -0.1478 -0.1842  0.0698
12307W        W55224  17.151  13.831   6.277 -0.1943  0.0468 -0.1594
12308W        W55225  17.690  14.187   5.314  0.0712  0.0945  0.2238
12309W        W55226  19.397  11.951   3.658 -0.3446  0.1217  0.1627
12310W        W55227  22.506  13.777   7.477 -0.0917  0.3289  0.2041
12311W        W55228  16.435  13.968   5.980 -0.2084  0.1264 -0.2434
12312W        W55229  20.609  12.441   5.435 -0.0336  0.1807 -0.0520
12313W        W55230  16.493  13.586   5.104 -0.1626  0.0602  0.3639
12314W        W55231  23.171  13.668   6.737  0.0714  0.1109  0.1535
12315W        W55232  20.720  11.214   5.034 -0.1312  0.0595  0.0623
12316W        W55233  21.254  11.255   5.415  0.1100 -0.2385 -0.3581
12317W        W55234  17.794  13.807   3.391 -0.0438  0.0976  0.0181
12318W        W55235  19.397  14.416   3.994  0.4754 -0.3355 -0.3290
12319W        W55236  20.019  14.678   6.988  0.0449 -0.0063  0.2029
12320W        W55237  19.959  12.875   4.065 -0.0084 -0.0927 -0.1285
12321W        W55238  17.432  15.275   5.499  0.0212  0.3068  0.0205
12322W        W55239  19.318  12.572   7.247  0.1329 -0.2233 -0.2014
12323W        W55240  20.120  16.086   5.239 -0.1608  0.2543 -0.1192
12324W        W55241  17.340  13.493   2.792  0.1336 -0.0689 -0.0358
12325W        W55242  15.712  13.295   2.886 -0.3777  0.0450 -0.2472
12326W        W55243  16.701  13.978   4.184  0.0424 -0.1156 -0.3063
12327W        W55244  18.653  11.644   7.176  0.1859  0.0072 -0.3885
12328W        W55245  18.649  12.728   5.981  0.0295  0.1061 -0.3808
12329W        W55246  20.542  11.666   5.392 -0.1918 -0.1084 -0.0939
12330W        W55247  17.973  12.647   7.887 -0.0781 -0.0033  0.0559
12331W        W55248  20.713  12.042   2.501 -0.0900 -0.0827  0.2159
12332W        W55249  17.817  13.390   4.433 -0.1009 -0.0495 -0.4709
12333W        W55250  20.799  15.437   3.085  0.2120 -0.0224 -0.4391
12334W        W55251  22.826  13.118   3.853  0.0972 -0.0851  0.0174
12335W        W55252  18.589  14.030   1.685 -0.0176 -0.0360 -0.1784
12336W        W55253  17.930  12.057   5.389  0.2437 -0.2035  0.1763
12337W        W55254  17.325  13.399   4.635 -0.2947  0.0798  0.0934
12338W        W55255  19.117  12.958   5.706  0.0556 -0.0601 -0.2574
12339W        W55256  18.125  13.746   5.872  0.3259  0.3736 -0.0489
12340W        W55257  22.137  12.152   6.438  0.3527  0.0759  0.1380
12341W        W55258  18.048  11.996   2.866  0.0733  0.2707 -0.2836
12342W        W55259  21.217  12.636   4.448 -0.2154  0.2946 -0.0585
12343W        W55260  20.974  12.183   4.067 -0.1985 -0.2541  0.2074
12344W        W55261  16.876  14.459   3.972  0.0668 -0.0717 -0.3480
12345W        W55262  21.302  11.774   5.528  0.1253 -0.3013  0.0424
12346W        W55263  17.210  14.053   4.085 -0.1771 -0.1404  0.2839
12347W        W55264  22.337  13.318   6.436 -0.0455 -0.0635 -0.0845
12348W        W55265  19.710  15.552   4.499  0.2808 -0.2205 -0.0346
12349W        W55266  20.121  12.134   6.245 -0.1681 -0.0296 -0.0631
12350W        W55267  18.480  12.101   3.747 -0.0245  0.1089 -0.2182
12351W        W55268  15.919  14.592   4.927  0.1639  0.2072  0.0021
12352W        W55269  20.239  12.974   4.592 -0.1776  0.0668 -0.1778
12353W        W55270  17.911  12.996   6.220  0.1204  0.1387  0.1647
12354W        W55271  21.175  12.936   6.043  0.0479  0.1345  0.4781
12355W        W55272  19.339  12.967   6.225  0.1465  0.0700 -0.0588
12356W        W55273  19.967  13.394   5.216 -0.0018 -0.2211 -0.0423
12357W        W55274  20.164   9.656   6.640 -0.1062 -0.0870 -0.0580
12358W        W55275  20.855  13.227   5.307 -0.2111  0.0039  0.1152
12359W        W55276  21.118  13.163   4.732  0.0570 -0.0436  0.1115
12360W        W55277  18.325  13.475   4.250  0.1194 -0.0528 -0.0551
12361W        W55278  18.492  14.799   4.470 -0.4193 -0.1994 -0.0881
12362W        W55279  18.573  14.926   1.904  0.0624  0.2269 -0.1404
12363W        W55280  17.112  14.902   5.657 -0.2424 -0.1045  0.1073
12364W        W55281  19.189  13.971   4.324 -0.0122  0.3278  0.1177
12365W        W55282  21.897  11.736   6.262 -0.1802 -0.2371  0.0646
12366W        W55283  18.887  12.536   8.338  0.1449 -0.3641 -0.1721
12367W        W55284  19.193  12.475   6.136 -0.3278  0.0076 -0.3071
12368W        W55285  17.829  13.258   3.606 -0.2811 -0.1301 -0.2891
12369W        W55286  16.575  14.277   4.644 -0.2728  0.0152  0.0243
12370W        W55287  21.541  11.405   4.180  0.1379  0.2458  0.0247
12371W        W55288  21.098  11.347   2.405 -0.1241  0.1341  0.0751
12372W        W55289  20.884  11.913   6.753  0.0307  0.0694 -0.2277
12373W        W55290  21.194  12.747   3.464 -0.3796 -0.2745  0.1209
12374W        W55291  19.567  10.933   3.547  0.0721 -0.0576  0.2464
12375W        W55292  20.822  13.082   3.239  0.2826 -0.1636  0.0442
12376W        W55293  17.766  14.833   7.741  0.1559 -0.0217  0.1170
12377W        W55294  19.600  14.417   3.401  0.1452  0.0593  0.1982
12378W        W55295  18.303  13.351   5.436 -0.0524  0.1771  0.0276
12379W        W55296  18.828  12.990   5.125  0.0873  0.0062 -0.0445
12380W        W55297  19.827  15.249   2.394 -0.1126  0.2221  0.0769
12381W        W55298  18.115  12.396   5.013 -0.0725  0.1146  0.1778
12382W        W55299  19.581  15.075   5.795 -0.0178  0.2362  0.0566
12383W        W55300  20.908  13.843   3.843 -0.0004  0.2065  0.2200
12384W        W55301  19.289  11.573   5.775  0.0412 -0.2318  0.0851
12385W        W55302  16.723  14.887   3.780  0.4056  0.3873 -0.0923
12386W        W55303  19.704  12.408   3.727 -0.2024  0.1940  0.0167
12387W        W55304  17.335  14.668   0.949  0.3519 -0.0634  0.1685
12388W        W55305  23.717   9.953   5.886  0.1345  0.0973  0.0242
12389W        W55306  19.565  13.212   4.097  0.2054  0.0389  0.2514
12390W        W55307  20.352  11.565   4.870  0.1209  0.0948 -0.0719
12391W        W55308  21.683  13.017   6.093 -0.1509  0.0841 -0.2158
12392W        W55309  20.118  13.908   4.446  0.2801  0.3279  0.2072
12393W        W55310  18.991  12.435   5.096  0.0960 -0.1042  0.0371
12394W        W55311  19.195  13.794   2.281  0.1565  0.0206 -0.1441
12395W        W55312  19.279  11.626   6.289  0.2385 -0.1124  0.1408
12396W        W55313  16.330  14.660   8.031 -0.1917 -0.2237  0.2364
12397W        W55314  17.634  14.650   4.878  0.1948 -0.2779  0.0421
12398W        W55315  21.955  15.488   5.724 -0.1621  0.2646 -0.0840
12399W        W55316  19.811  14.825   3.251 -0.0332  0.0498 -0.2194
12400W        W55317  21.262  12.465   7.903 -0.0659  0.1582 -0.0386
12401W        W55318  21.221  11.841   4.594  0.0765 -0.3524  0.0868
12402W        W55319  18.350  14.713   2.967 -0.2718 -0.0245 -0.0712
12403W        W55320  20.526  13.019   0.542  0.0994 -0.2471  0.1648
12404W        W55321  18.911  11.947   6.073  0.0652  0.4941 -0.1360
12405W        W55322  16.749  15.347   7.150 -0.0106  0.0691 -0.1877
12406W        W55323  19.668  12.832   2.664 -0.2031 -0.1645  0.1695
12407W        W55324  19.943  14.348   5.212 -0.3020 -0.0925 -0.0193
12408W        W55325  18.505  15.883   3.851 -0.1804  0.1723 -0.1267
12409W        W55326  20.448  10.779   4.598  0.1278 -0.3918 -0.0577
12410W        W55327  16.415  14.083   6.519  0.2013  0.0100 -0.1203
12411W        W55328  18.368  15.152   4.891 -0.4684  0.2732 -0.0972
12412W        W55329  15.809  14.076   2.344 -0.1734  0.0754  0.2765
12413W        W55330  20.393  14.226   3.015  0.0036  0.1526 -0.2291
12414W        W55331  18.586  14.309   4.569 -0.3040  0.0975  0.0101
12415W        W55332  18.479  12.650   3.916  0.0170 -0.1256 -0.0600
12416W        W55333  18.955  10.676   5.023 -0.1011 -0.1382 -0.3304
12417W        W55334  17.742  16.863   8.622  0.0054  0.0899  0.2491
12418W        W55335  18.531  13.463   5.984 -0.3747 -0.3359  0.2930
12419W        W55336  19.110  11.785   2.558 -0.4289 -0.1685 -0.1326
12420W        W55337  21.372  13.925   5.172 -0.1662 -0.0236 -0.0720
12421W        W55338  19.801  12.381   5.922  0.3437 -0.3130 -0.0178
12422W        W55339  16.791  12.085   5.595 -0.0031 -0.2977 -0.0328
12423W        W55340  20.785  11.426   6.364 -0.1449 -0.2517  0.2610
12424W        W55341  20.263  12.082   5.517  0.2090  0.1995  0.0490
12425W        W55342  18.125  13.871   5.287  0.0533  0.2548 -0.2676
12426W        W55343  19.512  14.704   5.341 -0.0548  0.0163 -0.0111
12427W        W55344  18.897  12.482   1.703  0.0659 -0.1385 -0.0061
12428W        W55345  17.815  16.040   4.628  0.1025  0.0936 -0.0557
12429W        W55346  18.484  13.587   7.902  0.0007  0.2412  0.2186
12430W        W55347  19.892  12.961   4.979 -0.0357 -0.0657  0.3090
12431W        W55348  20.048  13.853   5.435  0.2453  0.0922  0.1811
12432W        W55349  19.228  11.154   6.519  0.1035  0.0798  0.0023
12433W        W55350  20.251  12.584   5.815 -0.0174 -0.2197  0.1594
12434W        W55351  20.978  13.303   4.134 -0.1443 -0.1815  0.0901
12435W        W55352  19.468  13.129   5.416  0.2340 -0.0356  0.2701
12436W        W55353  20.264  13.070   5.863  0.0629 -0.2255  0.1345
12437W        W55354  18.227  11.907   6.451  0.1491 -0.2345 -0.1715
12438W        W55355  20.132  15.837   4.744  0.0748 -0.0406 -0.0865
12439W        W55356  21.614  13.298   4.670 -0.0864  0.2616  0.1520
12440W        W55357  19.247  13.429   3.300 -0.0306 -0.0393  0.2465
12441W        W55358  16.340  14.391   5.674  0.0129 -0.3746 -0.3886
12442W        W55359  19.000  14.051   2.748  0.3976 -0.0828  0.3831
12443W        W55360  20.886  10.659   6.840  0.3666 -0.0660  0.0189
12444W        W55361  17.693  16.542   7.446  0.2339  0.0578 -0.0295
12445W        W55362  16.541  14.165   3.699  0.2293  0.0932  0.0361
12446W        W55363  15.565  14.050   4.015 -0.0141  0.1472  0.2127
12447W        W55364  19.195  13.508   2.806  0.0059 -0.0984  0.3560
12448W        W55365  18.394  12.183   4.291 -0.1969 -0.2281 -0.0919
12449W        W55366  20.411  11.651   3.237  0.2642  0.1741 -0.2545
12450W        W55367  22.831  11.809   6.881 -0.3238 -0.0918 -0.1935
12451W        W55368  18.682  12.703   2.832 -0.1188  0.1119 -0.2564
12452W        W55369  21.736  10.457   6.339  0.0722 -0.1408 -0.3063
12453W        W55370  18.121  12.303   6.769 -0.1824  0.1891  0.2323
12454W        W55371  22.471  14.096   5.656  0.2075  0.0914 -0.1228
12455W        W55372  19.140  11.585   6.747  0.3722  0.2864 -0.0636
12456W        W55373  19.439  14.849   6.811 -0.2198 -0.3395 -0.4231
12457W        W55374  16.249  13.063   6.192 -0.0245  0.0546 -0.2808
12458W        W55375  20.176  13.696   3.398 -0.2494  0.2947  0.1871
12459W        W55376  17.803  10.406   3.536 -0.2607  0.3060  0.1767
12460W        W55377  19.032  13.712   6.439 -0.3169  0.0993 -0.0852
12461W        W55378  19.890  15.343   3.519  0.0941  0.0139  0.1186
12462W        W55379  19.493  13.632   5.349  0.3017 -0.1230  0.1114
12463W        W55380  22.663  13.151   5.491 -0.2650  0.1499 -0.3077
12464W        W55381  17.573  13.736   4.227  0.4178  0.0104  0.2074
12465W        W55382  20.664  12.121   3.230 -0.1301 -0.2454 -0.0832
12466W        W55383  20.033  13.330   4.298 -0.1146 -0.2534 -0.2367
12467W        W55384  17.742  16.707   3.663 -0.0794 -0.1347 -0.1671
12468W        W55385  18.507  11.630   6.157 -0.0495 -0.2114  0.0389
12469W        W55386  19.868  13.987   6.420  0.2222 -0.0654  0.3217
12470W        W55387  20.014  11.646   5.344 -0.0657  0.0975 -0.2419
12471W        W55388  20.942  12.062   7.596  0.2929 -0.2499 -0.0932
12472W        W55389  21.757  13.507   6.139 -0.1835 -0.4937 -0.0519
12473W        W55390  21.152  12.179   3.559 -0.0630 -0.0767  0.1729
12474W        W55391  17.125  12.796   5.508  0.1178  0.1634 -0.3027
12475W        W55392  21.307  13.724   5.928 -0.0405  0.2753  0.1087
12476W        W55393  19.906  12.878   3.511  0.0438 -0.0990  0.2509
12477W        W55394  20.967  10.181   7.548  0.0641 -0.2329  0.0004
12478W        W55395  21.767  13.671   5.006 -0.2141  0.1241 -0.1295
12479W        W55396  19.753  12.436   4.806 -0.1242 -0.2392 -0.0482
12480W        W55397  18.837  11.759   4.992  0.2822  0.0873  0.3006
12481W        W55398  21.811  12.471   6.626  0.0115  0.0155 -0.2155
12482W        W55399  19.873  12.443   4.277 -0.0849  0.2886 -0.0948
12483W        W55400  20.697  10.898   7.301 -0.1377 -0.1544  0.4865
12484W        W55401  18.714  14.742   3.258  0.1838 -0.0795 -0.1256
12485W        W55402  19.145  15.186   1.962  0.2823  0.1816  0.1413
12486W        W55403  20.715  12.809   4.575 -0.2649 -0.4015  0.0752
12487W        W55404  18.942  12.085   3.427 -0.1380  0.2784  0.0742
12488W        W55405  17.159  12.488   7.509 -0.0931  0.2845  0.4657
12489W        W55406  17.174  11.930   2.147  0.0074  0.0717  0.0814
12490W        W55407  18.456  12.971   3.256 -0.2527 -0.0082  0.0957
12491W        W55408  19.090  13.410   5.008 -0.4098 -0.1729  0.2416
12492W        W55409  21.029  13.054   7.157 -0.3442 -0.0621 -0.1427
12493W        W55410  18.556  11.788   4.545 -0.1611  0.4166  0.3761
12494W        W55411  21.259  12.340   5.475 -0.2176  0.0031  0.1216
12495W        W55412  20.726  12.484   3.716 -0.0468 -0.0689  0.0074
12496W        W55413  16.845  14.719   7.078 -0.2433 -0.2075  0.0255
12497W        W55414  17.603  13.444   7.632  0.1516 -0.3288 -0.1040
12498W        W55415  19.465  13.913   6.707 -0.0274 -0.0502  0.0795
12499W        W55416  21.930  13.042   4.133  0.3436 -0.1446  0.1179
12500W        W55417  21.790  11.984   5.218 -0.0210  0.0206 -0.0108
12501W        W55418  22.204  12.516   5.093 -0.1753 -0.6984 -0.5386
12502W        W55419  22.070  12.801   5.923  0.1049  0.0725 -0.3979
12503W        W55420  19.841  14.626   5.687  0.0773  0.0656 -0.1147
12504W        W55421  18.895  12.857   6.454 -0.2238  0.2082 -0.2073
12505W        W55422  20.002  14.325   3.998  0.1251 -0.0906 -0.0096
12506W        W55423  21.258  12.880   2.979 -0.0087  0.0444  0.0940
12507W        W55424  17.683  14.992   2.895 -0.2275  0.1783  0.2421
12508W        W55425  18.148  13.164   7.995  0.0745  0.1947 -0.0534
12509W        W55426  20.739  12.926   5.819 -0.1557  0.1106  0.0557
12510W        W55427  18.375  14.259   5.937 -0.0989  0.1954 -0.0779
12511W        W55428  19.683  12.534   6.364 -0.2317  0.0032  0.3855
12512W        W55429  18.562  14.338   3.664 -0.1330 -0.1051  0.0706
12513W        W55430  17.125  14.448   5.457 -0.1162 -0.0439  0.0634
12514W        W55431  17.516  12.430   4.694  0.2747  0.0903  0.1509
12515W        W55432  16.425  15.188   5.159  0.1956 -0.1041 -0.1528
12516W        W55433  20.484  13.154   4.145 -0.3242 -0.0503 -0.0626
12517W        W55434  18.951  12.481   5.604 -0.0078 -0.0296 -0.2929
12518W        W55435  19.616  14.767   6.287 -0.2332  0.1328  0.1043
12519W        W55436  16.820  13.396   3.076  0.2024 -0.2929  0.0154
12520W        W55437  18.803  14.183   6.679 -0.2464  0.1648 -0.1151
12521W        W55438  17.616  15.081   0.979 -0.0736  0.0104 -0.3814
12522W        W55439  19.315  14.917   3.245 -0.2549 -0.0053 -0.1243
12523W        W55440  17.797  13.781   4.921 -0.2651  0.0459 -0.0392
12524W        W55441  22.002  13.310   5.590 -0.0000 -0.0262 -0.1085
12525W        W55442  19.962  11.867   3.178 -0.1030  0.1381 -0.0168
12526W        W55443  22.571  11.401   4.877  0.0903 -0.3881  0.0540
12527W        W55444  21.657  11.609   2.750  0.2423  0.2374  0.1160
12528W        W55445  20.696  12.753   7.390  0.0984 -0.2323 -0.1879
12529W        W55446  19.019  13.895   5.329  0.0327 -0.0292  0.1811
12530W        W55447  19.438  11.186   4.865 -0.0338  0.2454  0.0295
12531W        W55448  19.900  13.101   7.172  0.0480 -0.3847  0.2204
12532W        W55449  22.957  11.200   5.410 -0.0068 -0.0006 -0.1690
12533W        W55450  17.993  15.775   6.561 -0.1016  0.0888 -0.0656
12534W        W55451  21.798  12.757   4.517 -0.1803 -0.2239  0.1190
12535W        W55452  17.639  12.921   5.605  0.2785 -0.1410 -0.0162
12536W        W55453  18.042  12.335   3.982 -0.0795  0.1276  0.1367
12537W        W55454  22.318  11.972   5.075  0.0114  0.0114 -0.0012
12538W        W55455  16.164  14.898   5.556  0.0779  0.1128 -0.0365
12539W        W55456  20.575  11.900   4.507  0.1555  0.2413  0.0583
12540W        W55457  18.530  16.407   4.933 -0.2914  0.0957  0.0489
12541W        W55458  18.080  14.166   4.870  0.1864 -0.1949  0.0709
12542W        W55459  17.863  15.306   6.418  0.1269 -0.0370 -0.0470
12543W        W55460  19.362  12.172   4.184 -0.1813 -0.2203 -0.2341
12544W        W55461  18.961  12.879   4.089  0.1762 -0.0189  0.0662
12545W        W55462  18.872  12.185   7.956 -0.1453  0.1145 -0.2668
12546W        W55463  22.583  10.794   6.072  0.2332  0.1019  0.1216
12547W        W55464  18.899  12.357   6.979 -0.1607 -0.2177  0.2330
12548W        W55465  21.416  11.899   3.976  0.0401 -0.3958 -0.0947
12549W        W55466  17.702  13.608   5.445 -0.1419  0.0201  0.2739
12550W        W55467  17.642  12.373   6.938  0.2456 -0.0412  0.0209
12551W        W55468  18.320  13.396   2.515  0.1357  0.3231  0.0927
12552W        W55469  20.221  14.756   5.416  0.0647  0.1526 -0.1254
12553W        W55470  18.677  13.413   3.340  0.1166 -0.0669  0.1645
12554W        W55471  20.323  14.280   8.217  0.1543 -0.1397  0.0421
12555W        W55472  18.123  11.569   4.427  0.1454 -0.2201 -0.1939
12556W        W55473  19.543  12.635   3.138  0.1968 -0.1181  0.3553
12557W        W55474  17.532  13.367   3.218  0.1059  0.1539  0.1946
12558W        W55475  17.623  13.191   5.127  0.3054  0.1540  0.2313
12559W        W55476  19.844  14.198   7.114  0.0183  0.2741 -0.1328
12560W        W55477  18.815  13.217   4.673 -0.0326 -0.3736 -0.1339
12561W        W55478  22.056  14.538   0.586 -0.0539  0.2162 -0.2219
12562W        W55479  20.942  14.372   3.073  0.0267 -0.1627  0.1551
12563W        W55480  18.010  15.582   4.063 -0.2274 -0.0734  0.1883
12564W        W55481  19.203  12.446   4.598  0.0529  0.0322 -0.2858
12565W        W55482  20.839  12.010   5.511 -0.0572  0.0482 -0.3136
12566W        W55483  17.607  11.133   5.995 -0.0376 -0.0463 -0.0145
12567W        W55484  20.417  14.233   4.259  0.0666  0.1399  0.3688
12568W        W55485  21.190  14.862   5.704 -0.1209 -0.0220 -0.4656
12569W        W55486  18.717  11.617   5.657  0.0228  0.0030  0.0611
12570W        W55487  18.428  12.790   4.911  0.1191  0.0117 -0.0719
12571W        W55488  16.289  15.964   4.594 -0.2795  0.0998 -0.0953
12572W        W55489  21.465  11.624   6.056  0.0075  0.2196 -0.2607
12573W        W55490  21.625  11.101   5.694 -0.1478  0.1686 -0.2814
12574W        W55491  20.631  14.696   2.888  0.4136  0.4428  0.0196
12575W        W55492  21.210  10.819   7.352  0.0223 -0.0152 -0.1261
12576W        W55493  18.899  13.841   4.760  0.1275 -0.1578 -0.0067
12577W        W55494  17.288  16.021   3.747 -0.2238 -0.0063 -0.0431
12578W        W55495  16.793  15.031   4.867  0.0859 -0.0162 -0.0102
12579W        W55496  18.622  12.300   6.338  0.2913  0.1494  0.0499
12580W        W55497  18.551  13.886   6.337 -0.0556 -0.0990  0.0780
12581W        W55498  19.199  13.377   3.767 -0.2138 -0.1220 -0.2865
12582W        W55499  22.515  14.661   5.655 -0.0506  0.4202  0.0017
12583W        W55500  17.727  12.699   4.289 -0.1113 -0.1979  0.1187
12584W        W55501  20.715  16.267   5.270 -0.0246 -0.0391 -0.1401
12585W        W55502  17.529  12.011   5.017 -0.0288 -0.3617 -0.2815
12586W        W55503  21.303  10.596   6.605  0.3880  0.0097  0.0557
12587W        W55504  21.316  11.315   3.637 -0.2666  0.0745 -0.1668
12588W        W55505  18.591  13.404   7.083  0.6829  0.2878 -0.0789
12589W        W55506  17.085  13.373   3.498  0.0002 -0.0020  0.2348
12590W        W55507  17.734  12.765   3.778  0.0756  0.5149 -0.1326
12591W        W55508  17.360  13.014   6.046  0.1100  0.0652 -0.0280
12592W        W55509  20.250  10.951   7.113 -0.3390  0.2242  0.1550
12593W        W55510  18.216  12.919   5.813 -0.2638 -0.0073 -0.1068
12594W        W55511  16.756  13.648   4.544 -0.0078 -0.1464  0.1122
12595W        W55512  18.476  10.845   5.496 -0.0296 -0.2178  0.2588
12596W        W55513  20.057  12.832   2.968  0.2404  0.0887 -0.2208
12597W        W55514  18.014  11.422   6.022  0.1009  0.2604  0.2222
12598W        W55515  18.330  11.833   5.211  0.1040  0.2097 -0.0699
12599W        W55516  20.996  13.744   4.352  0.2801  0.1322  0.1410
12600W        W55517  21.767  12.100   3.602  0.0471  0.2315  0.2240
12601W        W55518  18.616  11.603   2.561 -0.0426  0.0937 -0.1923
12602W        W55519  22.187  13.734   6.756 -0.2841 -0.3120  0.2839
12603W        W55520  17.340  12.552   3.980  0.0352  0.0549 -0.3045
12604W        W55521  21.112  12.342   4.933 -0.2750 -0.2073 -0.2604
12605W        W55522  20.343  12.215   7.089 -0.2018  0.0943 -0.2307
12606W        W55523  17.759  10.477   6.530 -0.1605  0.1151  0.1884
12607W        W55524  18.254  14.321   4.055  0.2603 -0.0581 -0.3833
12608W        W55525  19.024  14.325   4.837  0.0798  0.2115  0.1152
12609W        W55526  20.940  15.060   2.817 -0.2213  0.0371 -0.1679
12610W        W55527  20.856  13.415   5.852 -0.1691 -0.3997  0.2280
12611W        W55528  18.511  14.737   6.120 -0.3029 -0.0487 -0.0759
12612W        W55529  18.930  11.089   5.700 -0.1534 -0.0660  0.0090
12613W        W55530  19.771  13.371   2.720  0.0733  0.0308  0.0529
12614W        W55531  19.191  13.472   4.494 -0.1805  0.0164 -0.0759
12615W        W55532  20.609  13.930   4.645 -0.1639 -0.3782  0.0586
12616W        W55533  22.404  12.503   6.691  0.1574  0.1044 -0.0299
12617W        W55534  20.100  13.468   4.752 -0.1155  0.0711 -0.1481
12618W        W55535  19.326  12.117   7.534 -0.0624 -0.0946 -0.1582
12619W        W55536  17.654  12.439   6.001 -0.3268  0.0454 -0.3722
12620W        W55537  19.946  15.194   5.429 -0.2759  0.1650 -0.0101
12621W        W55538  18.139  13.405   3.201  0.1016  0.1818 -0.2720
12622W        W55539  19.979  11.844   2.415 -0.0267  0.0447  0.1058
12623W        W55540  18.577  14.247   3.038  0.0792 -0.2216 -0.0551
12624W        W55541  17.750  13.559   9.220  0.0365 -0.1571 -0.0968
12625W        W55542  20.183  12.200   4.562 -0.0435  0.0292 -0.0127
12626W        W55543  19.395  12.607   5.362 -0.0857 -0.1789 -0.1434
12627W        W55544  20.891  16.049   2.922  0.3119 -0.0305  0.2400
12628W        W55545  18.821  14.225   7.841  0.0089 -0.2481  0.3627
12629W        W55546  18.976  12.005   4.472 -0.1678 -0.3110 -0.3117
12630W        W55547  22.338  12.670   3.722  0.0192  0.1155  0.2263
12631W        W55548  20.553  15.062   6.212  0.0820 -0.0120  0.3301
12632W        W55549  20.287  13.100   8.806  0.2036 -0.0349 -0.1374
12633W        W55550  19.284  14.553   5.782  0.0202 -0.1697  0.0337
12634W        W55551  23.627  12.212   5.001 -0.3217 -0.1917 -0.0877
12635W        W55552  16.359  13.021   5.697  0.0837  0.1713  0.0370
12636W        W55553  16.376  15.068   4.270  0.1152  0.0466 -0.0367
12637W        W55554  16.458  14.412   2.918 -0.1225  0.2844  0.0595
12638W        W55555  20.395  12.455   6.612 -0.2570  0.1423  0.0448
12639W        W55556  18.565  14.101   5.024 -0.0179  0.0304  0.1871
12640W        W55557  18.965  11.524   4.291  0.3006  0.0639  0.0609
12641W        W55558  17.563  14.693   5.561  0.1282  0.1493  0.3483
12642W        W55559  19.744  12.960   4.526 -0.0630  0.0528 -0.1085
12643W        W55560  17.254  15.620  10.265 -0.1786 -0.3548 -0.4741
12644W        W55561  19.060  14.464   7.464 -0.0845  0.1596  0.0507
12645W        W55562  20.369  11.336   6.830  0.0744 -0.0760 -0.0952
12646W        W55563  20.413  13.182   7.246 -0.0921  0.0800  0.4698
12647W        W55564  17.839  11.113   8.912 -0.0203  0.0845 -0.0875
12648W        W55565  21.445  13.281   8.513 -0.1969 -0.3942  0.2429
12649W        W55566  23.345  15.060   8.276  0.1347 -0.1447  0.2452
12650W        W55567  22.383  14.767   7.402 -0.1607 -0.2118 -0.2429
12651W        W55568  19.127  13.359   7.878 -0.0948 -0.1880 -0.2607
12652W        W55569  19.460  11.683   9.736  0.0620 -0.5365 -0.2091
12653W        W55570  20.089  11.227   8.184  0.3191 -0.0625 -0.0812
12654W        W55571  18.781  10.807   7.946 -0.1745  0.0145 -0.0523
12655W        W55572  22.588   9.203   8.517 -0.2862  0.0287 -0.0022
12656W        W55573  18.730  14.193   7.216 -0.0820 -0.0156 -0.1877
12657W        W55574  18.578  13.331  10.749 -0.0259 -0.0813 -0.1375
12658W        W55575  23.142   8.849   7.091 -0.2173 -0.0840 -0.1363
12659W        W55576  19.732  15.057   8.177 -0.0318 -0.2697 -0.1356
12660W        W55577  21.665   7.337   9.281  0.3568 -0.3806 -0.0202
12661W        W55578  20.683  14.089   9.551  0.1097  0.3622  0.0872
12662W        W55579  18.934  11.353  10.881 -0.3968 -0.3237  0.2635
12663W        W55580  18.968  11.557   9.701  0.0288  0.0354  0.1965
12664W        W55581  20.065  12.549   9.198  0.1471 -0.0791 -0.2023
12665W        W55582  19.894  13.545   8.951 -0.0351  0.2261  0.2034
12666W        W55583  20.831  13.195  10.313  0.1582  0.0504  0.1039
12667W        W55584  20.460  13.782   9.150  0.1089 -0.0121  0.1984
12668W        W55585  19.324  13.846  10.557  0.1094  0.0412  0.2101
12669W        W55586  19.409  13.891   8.876  0.2698 -0.0184  0.1850
12670W        W55587  18.816  14.414   9.197  0.1404  0.2075  0.1430
12671W        W55588  20.852  13.950   8.224  0.3066  0.1636  0.1030
12672W        W55589  22.137  11.540   7.031  0.1457 -0.0543  0.1508
12673W        W55590  17.215  14.749   7.778  0.1277 -0.2372  0.0951
12674W        W55591  21.876  13.639   8.569 -0.1551  0.0211  0.2063
12675W        W55592  19.951  14.588   7.552 -0.1654  0.0788  0.1014
12676W        W55593  19.938  15.153   6.714  0.1666  0.0757  0.0223
12677W        W55594  20.114  12.768   7.798  0.2032  0.4377  0.0936
12678W        W55595  19.323  14.820  10.047 -0.0038  0.0156 -0.2637
12679W        W55596  19.567  15.250   6.283  0.1557 -0.1681  0.0066
12680W        W55597  22.101  12.866   6.452 -0.1183 -0.0537 -0.0365
12681W        W55598  18.402  12.971   7.644 -0.0896  0.0740  0.1688
12682W        W55599  18.852  10.520   9.968 -0.2744 -0.1824  0.2420
12683W        W55600  20.817   9.710   7.724 -0.1783 -0.1895  0.2518
12684W        W55601  19.258  13.260   9.736 -0.0293 -0.2329  0.1521
12685W        W55602  20.825  11.588   9.922  0.2435 -0.2937 -0.0593
12686W        W55603  19.507  14.238   7.623 -0.2299  0.4052 -0.1220
12687W        W55604  17.232  12.352  10.414 -0.1136 -0.2231 -0.1120
12688W        W55605  19.460  14.407   9.525  0.0558 -0.2286 -0.0555
12689W        W55606  17.815  14.284   7.101  0.0217  0.0962 -0.1101
12690W        W55607  21.184  15.610   7.162 -0.1632 -0.3685  0.0572
12691W        W55608  21.743  15.209   8.591 -0.0063 -0.3493  0.1390
12692W        W55609  19.991  13.502   6.304  0.0157  0.1630 -0.0196
12693W        W55610  19.085  11.929   7.095 -0.2004  0.1154  0.0611
12694W        W55611  18.678  10.673   7.502  0.1325 -0.1223 -0.2362
12695W        W55612  20.843  12.430   6.946 -0.0234  0.3219 -0.0232
12696W        W55613  20.680  12.515   8.766 -0.1607 -0.0163  0.2261
12697W        W55614  20.511  13.048   7.731  0.0131 -0.0938  0.1359
12698W        W55615  19.597  12.962   6.676 -0.1093 -0.2423 -0.3863
12699W        W55616  21.443  13.712   8.837 -0.2063  0.0315 -0.3854
12700W        W55617  22.161   9.934   9.133  0.1222 -0.1181  0.0015
12701W        W55618  17.326  14.700   7.237  0.0343  0.2091 -0.0155
12702W        W55619  18.167  15.166   7.102 -0.0555  0.0731 -0.2357
12703W        W55620  23.190  11.606   9.462 -0.4674 -0.0161  0.1576
12704W        W55621  20.772  13.954   6.787  0.0019 -0.0713  0.2251
12705W        W55622  19.007  14.640   8.024 -0.1747 -0.1848  0.1203
12706W        W55623  16.820  16.296   6.021 -0.3569  0.0303  0.3886
12707W        W55624  19.757  12.476  10.773 -0.0490 -0.0707  0.4630
12708W        W55625  18.230  13.351   7.461  0.0656  0.0053 -0.1297
12709W        W55626  17.975  11.156   9.974  0.1194 -0.0335 -0.1188
12710W        W55627  21.024  13.240   9.764 -0.2396 -0.0834  0.1795
12711W        W55628  22.517  11.890   7.384  0.0654 -0.1116  0.0545
12712W        W55629  20.856  11.329   7.144  0.0202  0.3585 -0.0886
12713W        W55630  19.632  14.973   8.648  0.0643 -0.0074 -0.3663
12714W        W55631  20.950  14.789  10.495  0.2198 -0.1129 -0.1318
12715W        W55632  20.892  13.523   8.480  0.0013  0.2455  0.2285
12716W        W55633  21.259  13.767   6.601  0.0951  0.0452  0.0220
12717W        W55634  17.214  15.284  10.622  0.0342  0.1844  0.2382
12718W        W55635  18.308  12.817   7.176 -0.0253 -0.3161 -0.0478
12719W        W55636  18.388  11.298  10.307  0.1848 -0.1171  0.2255
12720W        W55637  19.325  13.256   8.316  0.0544 -0.1857 -0.0674
12721W        W55638  19.563  11.462   8.009  0.1047  0.3084  0.3465
12722W        W55639  19.760  11.558  10.526 -0.0682  0.1003  0.2020
12723W        W55640  18.410  14.927   8.447 -0.2004  0.1360  0.0163
12724W        W55641  19.427  13.735   7.939  0.4175 -0.1598  0.0372
12725W        W55642  22.169  15.874   8.716  0.0915  0.1595 -0.3863
12726W        W55643  21.659  13.163   7.367 -0.2868 -0.2655 -0.0249
12727W        W55644  17.330  12.095   9.937  0.0466 -0.0799  0.3970
12728W        W55645  18.588  13.821   8.347 -0.1797 -0.1743  0.2345
12729W        W55646  19.267  14.191   8.132 -0.1383 -0.1255  0.1459
12730W        W55647  19.465  12.106   9.324 -0.0391 -0.1240 -0.0903
12731W        W55648  18.980  12.960   8.079  0.0794  0.3036 -0.1298
12732W        W55649  22.553  13.961   6.998 -0.0307 -0.2477 -0.0125
12733W        W55650  20.241  13.700  10.160 -0.0163 -0.2238  0.3351
12734W        W55651  23.343  12.791   9.408  0.1358 -0.2702  0.2335
12735W        W55652  20.673  15.390  10.616 -0.0591  0.3526  0.0359
12736W        W55653  20.347  12.888   6.322  0.3509  0.2064 -0.0253
12737W        W55654  20.793  13.483   9.438  0.2858  0.1916  0.3630
12738W        W55655  17.220  16.418   8.269 -0.1903  0.1634 -0.4610
12739W        W55656  18.993  13.315   8.740  0.3118 -0.1468 -0.0385
12740W        W55657  19.487  12.984   7.928 -0.1622 -0.1801 -0.3214
12741W        W55658  21.106  12.534   9.111 -0.2479 -0.0803  0.0173
12742W        W55659  18.632  13.399   6.512  0.2068 -0.0420  0.0553
12743W        W55660  19.596  13.311   9.380 -0.0767  0.1013  0.0130
12744W        W55661  21.406  12.768   8.342 -0.0576  0.0194  0.4178
12745W        W55662  21.181  11.980   7.173 -0.0738 -0.0843 -0.1296
12746W        W55663  21.156  12.846   5.550  0.2010 -0.0131 -0.2168
12747W        W55664  19.774  10.585   5.946  0.1081 -0.0283  0.1503
12748W        W55665  20.388  14.456   9.747  0.2687  0.0010  0.2587
12749W        W55666  19.802  11.909  10.081 -0.4207 -0.1096  0.2962
12750W        W55667  20.922  12.742   5.098 -0.0295 -0.1895  0.0391
12751W        W55668  19.782  14.284   7.998 -0.1981  0.0801  0.0947
12752W        W55669  18.937  14.529   8.579 -0.1088 -0.0534 -0.1180
12753W        W55670  21.037  12.970   8.145 -0.1151  0.2815  0.0706
12754W        W55671  21.287  11.031   8.680  0.1804 -0.2351 -0.2120
12755W        W55672  20.087  13.115   6.686 -0.3779  0.0873  0.0661
12756W        W55673  16.632  14.221  10.388 -0.0908 -0.0909 -0.0528
12757W        W55674  17.691  15.358   7.988  0.0316 -0.0204 -0.0895
12758W        W55675  21.062  10.911   8.228  0.3038  0.2261  0.1123
12759W        W55676  19.706  14.541  10.197 -0.0876  0.0078 -0.3504
12760W        W55677  19.576  13.578   7.146 -0.2260 -0.4363 -0.0992
12761W        W55678  18.499  14.047  10.228  0.4888 -0.0050  0.0761
12762W        W55679  19.252  12.977   9.255 -0.3159 -0.1325  0.2228
12763W        W55680  21.714  15.934   8.012  0.1454  0.0937 -0.0535
12764W        W55681  18.154  15.026   9.230  0.3461  0.0910 -0.2601
12765W        W55682  18.333  12.818  10.861  0.0801 -0.1971 -0.0567
12766W        W55683  19.591  11.653   7.493  0.1753 -0.1312  0.4246
12767W        W55684  16.877  14.211   6.914  0.0055 -0.1002  0.0992
12768W        W55685  18.751  13.740   7.499 -0.0676 -0.0003 -0.0927
12769W        W55686  18.250   7.828   8.842 -0.0325 -0.0197  0.2747
12770W        W55687  20.983  12.929   8.653  0.0745  0.1116 -0.0933
12771W        W55688  19.702  14.296   6.076 -0.0023 -0.2445  0.0702
12772W        W55689  22.047  14.858   8.707 -0.0864  0.0071  0.0777
12773W        W55690  20.489  14.487   7.786  0.1409  0.0716 -0.0257
12774W        W55691  20.600  11.046   8.178 -0.2922  0.0143 -0.2537
12775W        W55692  18.397  12.988   6.310  0.1131 -0.4267  0.2911
12776W        W55693  19.085  13.234   6.709 -0.2622  0.0941 -0.2112
12777W        W55694  18.178  13.370   9.025  0.2715 -0.1700  0.2861
12778W        W55695  21.430  12.068   7.642 -0.0889  0.2217 -0.0704
12779W        W55696  20.134  14.528   6.149 -0.1736  0.0586 -0.0905
12780W        W55697  17.614  11.775  10.618 -0.1637 -0.1100 -0.1226
12781W        W55698  21.005  10.973   9.081  0.0625 -0.1571  0.1232
12782W        W55699  18.360  15.558   8.366  0.0746 -0.4036  0.2552
12783W        W55700  21.791  11.895   6.733  0.2218 -0.0743  0.0276
12784W        W55701  18.429  11.951   9.076 -0.3154  0.0414  0.2560
12785W        W55702  21.676  11.740   8.479  0.2588  0.4352  0.0450
12786W        W55703  21.443  13.019   9.780 -0.0138  0.2996  0.0358
12787W        W55704  18.031  15.506   9.531  0.0245  0.0307  0.1234
12788W        W55705  19.539  13.196   8.869 -0.2857 -0.0933 -0.0271
12789W        W55706  19.248  12.578   7.827  0.5310  0.1379  0.1573
12790W        W55707  19.828  14.170   9.079  0.2048 -0.1067  0.2310
12791W        W55708  23.450  13.697   9.232  0.0926 -0.0837 -0.1253
12792W        W55709  22.259  16.107  10.096  0.3378 -0.1681 -0.0610
12793W        W55710  21.618  11.206   9.758  0.0308 -0.2279 -0.0682
12794W        W55711  19.815  13.092   8.500 -0.1290 -0.1073 -0.0737
12795W        W55712  23.153  12.703   7.934 -0.3689  0.0609  0.0066
12796W        W55713  21.212  12.075   8.751 -0.1708  0.4762  0.2925
12797W        W55714  21.764  11.296   8.693 -0.1226 -0.2507  0.4292
12798W        W55715  20.179  13.744   7.966 -0.1352  0.2340  0.1514
12799W        W55716  20.210  13.149   8.137  0.2777 -0.2283  0.0202
12800W        W55717  17.093  11.826   8.979 -0.1921 -0.1620  0.3317
12801W        W55718  18.236  13.488   8.360  0.0338  0.2250  0.1813
12802W        W55719  22.901  13.657   9.345 -0.0183 -0.2092 -0.3171
12803W        W55720  19.651  12.370   9.793 -0.0264 -0.2336 -0.2129
12804W        W55721  19.514  14.558   7.231  0.1237 -0.1141 -0.1540
12805W        W55722  17.683  13.590   9.876  0.0874 -0.1681 -0.1246
12806W        W55723  20.034  12.269  10.351 -0.0890 -0.2313  0.5031
12807W        W55724  20.645  14.206   6.167  0.1082  0.2300 -0.0416
12808W        W55725  18.604  11.261   9.820  0.1027 -0.3386  0.2465
12809W        W55726  21.366  12.820   4.985  0.4940 -0.0857  0.3941
12810W        W55727  18.268  12.038   9.559  0.4680  0.1011  0.0016
12811W        W55728  19.960  12.234   6.721 -0.0994  0.1977  0.0500
12812W        W55729  19.271  12.599   6.766 -0.4182 -0.3635 -0.2842
12813W        W55730  18.947  13.762   7.936 -0.0516 -0.1428  0.0791
12814W        W55731  18.813  14.119   9.624 -0.0359 -0.0232 -0.1300
12815W        W55732  21.554  13.522   7.924 -0.0873  0.0004  0.2117
12816W        W55733  19.335  13.984   7.228 -0.4024 -0.2265  0.2141
12817W        W55734  19.668  13.224  10.068 -0.1391  0.0809 -0.1166
12818W        W55735  16.041  12.122   9.675  0.0646  0.1157 -0.5465
12819W        W55736  20.525  11.909   7.925 -0.1527 -0.1712  0.3066
12820W        W55737  20.893  13.766   8.934 -0.1418 -0.2350 -0.2396
12821W        W55738  17.244  13.773   9.082 -0.0223  0.1148 -0.0050
12822W        W55739  21.102  12.087   9.851 -0.1747  0.0982  0.0455
12823W        W55740  19.914  13.036   9.169  0.2570 -0.1255 -0.2036
12824W        W55741  21.597  14.726   8.464 -0.2921 -0.0108  0.0835
12825W        W55742  19.133  12.940   7.555 -0.1090  0.1046 -0.0054
12826W        W55743  19.831  10.987  10.289  0.0838 -0.0800  0.0548
12827W        W55744  21.485  11.681   8.021 -0.1677 -0.0962 -0.1222
12828W        W55745  19.737  12.473   7.911  0.1924  0.3634  0.0002
12829W        W55746  18.281  10.760   9.758 -0.3368  0.0752  0.0530
12830W        W55747  19.156  13.736   8.413 -0.0632 -0.0558  0.0265
12831W        W55748  17.976  14.543   5.280 -0.1714  0.2467 -0.0114
12832W        W55749  22.385  13.350   8.334 -0.2855 -0.1259 -0.1640
12833W        W55750  19.722  11.481   9.362 -0.0677  0.0848 -0.0514
12834W        W55751  20.345  12.257   9.445 -0.0896 -0.2167  0.0221
12835W        W55752  18.778  12.763  10.603 -0.0655  0.0377  0.1098
12836W        W55753  19.573  12.609   9.261  0.2230  0.1298  0.0291
12837W        W55754  21.854  14.416   9.906 -0.1878  0.1626 -0.0244
12838W        W55755  19.308  10.518   5.825  0.1545  0.1500  0.0950
12839W        W55756  17.891  14.403   6.523  0.1688 -0.1103  0.1357
12840W        W55757  20.341  11.504   7.331  0.0569 -0.0567  0.3115
12841W        W55758  18.412  16.267   9.926 -0.1913 -0.0079 -0.2983
12842W        W55759  18.296  14.794   6.829  0.1251  0.1680 -0.0205
12843W        W55760  19.646  12.052  10.572  0.0767  0.0257  0.2185
12844W        W55761  20.490  14.635   9.260 -0.3656 -0.2973  0.0958
12845W        W55762  19.855  11.899  11.176  0.2431 -0.1753 -0.1538
12846W        W55763  19.954  17.076  10.948 -0.0057  0.1650 -0.3346
12847W        W55764  21.733  12.017   5.785 -0.2326  0.0316 -0.1189
12848W        W55765  18.712  13.792   9.195 -0.1744 -0.0044 -0.0398
12849W        W55766  23.213  13.149   8.943  0.1994  0.3532 -0.1584
12850W        W55767  19.674  11.895   8.397 -0.1228  0.0404  0.4577
12851W        W55768  20.147  14.985   5.907  0.0471  0.1349 -0.4413
12852W        W55769  20.178  12.156   8.680 -0.1020 -0.0306  0.0609
12853W        W55770  18.090  16.510   8.709  0.1340  0.4647 -0.0244
12854W        W55771  18.866  14.290   6.151  0.1608  0.0993  0.1885
12855W        W55772  19.953  13.921   8.450 -0.2593  0.0625 -0.1393
12856W        W55773  21.442  10.750  10.294  0.1635  0.2129 -0.1263
12857W        W55774  19.464  12.143   6.834 -0.2497  0.1506  0.0987
12858W        W55775  19.261  14.388   6.843  0.0704  0.0188  0.1260
12859W        W55776  17.341  15.135   6.573 -0.2427  0.2371  0.0477
12860W        W55777  19.802  14.570   8.373 -0.2899 -0.0040  0.1308
12861W        W55778  18.470  14.650   7.853  0.0115 -0.0534 -0.2077
12862W        W55779  20.033  11.924   7.594  0.1830 -0.1528  0.2363
12863W        W55780  19.121  13.497   9.221  0.3739  0.4059  0.0452
12864W        W55781  21.260  12.525   6.288 -0.0599  0.1084 -0.0528
12865W        W55782  19.377  11.286  10.016 -0.0668 -0.3682 -0.1482
12866W        W55783  19.430  12.476   8.806  0.2759  0.1359  0.0670
12867W        W55784  21.254  13.523   7.166 -0.2310  0.0765 -0.1769
12868W        W55785  18.394  12.950  10.336  0.0425 -0.0478 -0.0159
12869W        W55786  19.467  14.848  10.600  0.1261  0.2526 -0.0956
12870W        W55787  23.671  12.863   8.095 -0.5335  0.2631 -0.0868
12871W        W55788  19.350  13.094   7.159 -0.3312  0.1373 -0.0245
12872W        W55789  20.118  12.681   8.272 -0.0913  0.0066 -0.2905
12873W        W55790  19.238  14.964   7.648 -0.1075 -0.0457  0.0165
12874W        W55791  20.486  12.612  11.174  0.1943  0.4703  0.3344
12875W        W55792  18.016  15.375  10.602 -0.2461  0.0858  0.1459
12876W        W55793  18.726  12.626   7.771 -0.1889 -0.0936  0.2381
12877W        W55794  23.099  11.258   5.972  0.0674 -0.0755  0.0957
12878W        W55795  23.343  10.047   9.049  0.0061 -0.0889  0.0546
12879W        W55796  18.354  12.488   9.231  0.1041  0.3611  0.3668
12880W        W55797  21.042  12.455   8.412 -0.1150 -0.0041  0.0648
12881W        W55798  19.724  13.067  10.989 -0.0294  0.2524  0.0883
12882W        W55799  17.706  12.421  10.070 -0.0799 -0.1390  0.0860
12883W        W55800  17.373  12.180   8.070  0.3370 -0.0466  0.2526
12884W        W55801  19.716  12.788   7.519 -0.0997  0.0123  0.2424
12885W        W55802  18.785  12.800   9.204  0.0664  0.1383 -0.1799
12886W        W55803  19.909  13.556   6.760  0.0311  0.1029  0.0183
12887W        W55804  17.556  14.502   8.508 -0.2616 -0.1114 -0.0856
12888W        W55805  22.305  10.851   9.195  0.1530  0.0037 -0.0737
12889W        W55806  17.948  12.111   9.188  0.0335 -0.2240  0.1876
12890W        W55807  20.761  12.621   6.289 -0.0890 -0.1751 -0.0924
12891W        W55808  20.176  13.125  10.247 -0.1022 -0.1713  0.2470
12892W        W55809  19.463  15.540   7.660  0.2791  0.1626 -0.0313
12893W        W55810  22.277  14.384   8.495 -0.1610 -0.0863  0.3113
12894W        W55811  20.187  14.102   9.463  0.0909  0.2390 -0.1021
12895W        W55812  15.024  11.129  10.833  0.0419 -0.1478  0.2806
12896W        W55813  20.203  14.192  10.155 -0.0028 -0.0437 -0.2158
12897W        W55814  22.348  12.353   7.586  0.0085  0.0030  0.0557
12898W        W55815  20.705  12.542   9.662  0.0183  0.1700 -0.0250
12899W        W55816  18.710  12.028  10.065  0.2140 -0.0295 -0.1494
12900W        W55817  18.134  14.485   7.502  0.1851  0.1264  0.1821
12901W        W55818  20.578  12.905   8.352 -0.0480  0.2684  0.1098
12902W        W55819  18.793  15.996   6.564 -0.0726  0.2048  0.0132
12903W        W55820  20.447  12.527  10.080  0.0110 -0.0536 -0.1582
12904W        W55821  19.818  13.829   7.582 -0.0304  0.4812 -0.0135
12905W        W55822  20.404  14.656   7.322 -0.3445 -0.1274  0.0049
12906W        W55823  20.819  13.743   6.337  0.2191  0.4068 -0.2355
12907W        W55824  20.275  13.604   7.460 -0.1956  0.1019 -0.3180
12908W        W55825  20.450  11.389   9.127 -0.1360  0.1190 -0.2026
12909W        W55826  22.842  13.716   8.379  0.1278 -0.1471 -0.5902
12910W        W55827  21.243  11.636   9.522  0.2741 -0.1153  0.0223
12911W        W55828  20.928   9.239   7.449  0.1260 -0.5267  0.3747
12912W        W55829  21.185  12.916   7.623  0.0638 -0.0071  0.2105
12913W        W55830  20.206  16.057   9.396 -0.1791  0.1019 -0.0886
12914W        W55831  18.363  12.282   7.724 -0.3822  0.0499 -0.0311
12915W        W55832  20.325  12.668   5.043 -0.0574  0.2132  0.2320
12916W        W55833  18.559  13.097   8.650 -0.1597  0.0396  0.1559
12917W        W55834  18.469  12.266   8.249  0.1405  0.2419  0.2815
12918W        W55835  20.652  10.358   8.978 -0.2631 -0.2022 -0.0191
12919W        W55836  18.858  12.948   7.112 -0.0718  0.2547 -0.1759
12920W        W55837  19.490  11.525  11.707  0.1067  0.1526  0.1711
12921W        W55838  21.554  12.037   9.675 -0.3125 -0.1666 -0.0173
12922W        W55839  21.816  14.554   9.367 -0.1442 -0.1144 -0.0780
12923W        W55840  22.324  12.993   6.874  0.0898 -0.0471 -0.2032
12924W        W55841  20.251  11.203  10.130  0.0022  0.0512 -0.0374
12925W        W55842  15.338  14.922   7.151 -0.3909 -0.1796  0.0034
12926W        W55843  18.002  13.591   7.844 -0.2905 -0.1025 -0.3547
12927W        W55844  19.401  11.141   9.496 -0.4188 -0.3216 -0.0596
12928W        W55845  19.282  13.751   9.727  0.3278 -0.1469 -0.3296
12929W        W55846  19.553  13.322   7.586 -0.0055 -0.1271 -0.0757
12930W        W55847  19.735  10.297   9.263 -0.1738  0.0987  0.1848
12931W        W55848  18.388  14.064   7.704  0.1368  0.2479 -0.4468
12932W        W55849  20.160  12.651   7.288 -0.1929  0.1096 -0.4926
12933W        W55850  20.546  14.986   9.589 -0.0499  0.0261 -0.2314
12934W        W55851  21.162  11.101   5.867  0.1350 -0.1818 -0.0032
12935W        W55852  21.815  10.898   9.138 -0.0650  0.0661  0.3083
12936W        W55853  21.285  12.062   9.245 -0.0456 -0.1454  0.0298
12937W        W55854  21.484  12.485   8.726  0.0802  0.1698 -0.2016
12938W        W55855  19.300  14.436   9.048  0.2423 -0.0559  0.3001
12939W        W55856  17.331   7.934   8.825  0.1137 -0.2557 -0.2656
12940W        W55857  19.712  10.789   9.318 -0.1175  0.1571  0.1158
12941W        W55858  19.365  12.736   8.331  0.1733 -0.1581  0.1293
12942W        W55859  20.157  12.639   8.735  0.1579 -0.0988 -0.2226
12943W        W55860  24.597  11.252   6.551  0.1779 -0.2751  0.1416
12944W        W55861  19.801  13.897  10.400 -0.0614 -0.0766  0.0398
12945W        W55862  19.917  12.694  10.124  0.3341 -0.0963 -0.2938
12946W        W55863  20.723  13.627   9.990  0.0930  0.0023  0.3698
12947W        W55864  19.479  10.107   9.777 -0.3535  0.0996  0.4548
12948W        W55865  19.179  14.051   9.313  0.1146 -0.0749  0.1999
12949W        W55866  19.126  12.539   9.472 -0.1882  0.0633  0.0527
12950W        W55867  18.544  12.250  10.535 -0.0692  0.0972 -0.3222
12951W        W55868  16.861  10.966   9.036  0.1354  0.2655  0.2308
12952W        W55869  21.676  11.878   8.931  0.0597 -0.1684  0.2455
12953W        W55870  17.940  13.836   8.705 -0.0020  0.1029  0.0642
12954W        W55871  12.912  10.647  11.764  0.0809 -0.0249 -0.1222
12955W        W55872  19.460  15.683   4.132  0.1624  0.0876 -0.0200
12956W        W55873  19.235  15.483   0.504  0.1014 -0.0835  0.2953
12957W        W55874  18.867  14.646  29.569  0.1656  0.2572  0.0032
12958W        W55875  18.053  16.871  31.733 -0.2041  0.1225  0.0272
12959W        W55876  16.068  14.726  28.680  0.2364 -0.1494 -0.0495
12960W        W55877  18.206  17.834  31.018  0.2453  0.0197 -0.1608
12961W        W55878  17.971  13.076   0.357 -0.0660  0.0281 -0.0373
12962W        W55879  19.925  16.937  31.452 -0.2714  0.1391 -0.1107
12963W        W55880  21.611  18.622   1.832  0.0792  0.2310  0.1729
12964W        W55881  18.445  16.587  30.372  0.0416  0.0537 -0.0730
12965W        W55882  17.903  16.499   3.159 -0.2847 -0.0595  0.2007
12966W        W55883  18.821  16.172   1.081  0.0287 -0.0781 -0.0087
12967W        W55884  19.310  14.363  29.327  0.2956  0.2710 -0.0709
12968W        W55885  18.135  15.602   0.115  0.2567  0.3552 -0.0513
12969W        W55886  18.532  15.914   2.329  0.0985  0.2850  0.0460
12970W        W55887  17.289  17.486  29.863  0.0699  0.1603 -0.1232
12971W        W55888  17.426  14.124   0.989  0.0072  0.1754  0.0470
12972W        W55889  18.745  15.109  30.471 -0.2373 -0.0759 -0.2071
12973W        W55890  18.961  18.169  31.295  0.0957  0.3204 -0.2803
12974W        W55891  17.915  14.970   1.363 -0.0286  0.0884 -0.0412
12975W        W55892  17.857  15.945  31.865 -0.0402  0.0004  0.0035
12976W        W55893  17.251  16.338  31.762 -0.2486 -0.2244  0.2533
12977W        W55894  16.053  17.989  30.135 -0.1440  0.0953  0.0296
12978W        W55895  15.877  16.092   0.157  0.1829  0.0135 -0.0678
12979W        W55896  18.174  17.083   1.174  0.3698 -0.2546  0.0023
12980W        W55897  17.480  14.399   1.792 -0.3347 -0.1683  0.0319
12981W        W55898  19.434  16.957   0.189 -0.1857 -0.1459 -0.2010
12982W        W55899  18.109  18.459   0.730  0.3123 -0.0580  0.1569
12983W        W55900  17.024  18.348   0.211  0.0031 -0.2736  0.3158
12984W        W55901  18.990  14.680  30.672 -0.2013  0.0234 -0.2592
12985W        W55902  16.496  18.452  31.482  0.1102  0.0650 -0.1969
12986W        W55903  18.035  19.529  29.700 -0.0386  0.1730  0.1330
12987W        W55904  17.832  17.928  27.054 -0.0834 -0.3076  0.0319
12988W        W55905  20.282  17.227  31.585 -0.2132 -0.1398 -0.1737
12989W        W55906  19.171  15.385   4.791  0.0665  0.1852 -0.1852
12990W        W55907  17.993  17.292   2.804 -0.0890 -0.0832 -0.1763
12991W        W55908  18.056  18.093  29.764 -0.1946 -0.2728  0.1350
12992W        W55909  20.435  15.242   4.045 -0.0748 -0.0543  0.2968
12993W        W55910  18.356  17.595   2.796 -0.0367 -0.1116 -0.1521
12994W        W55911  17.639  18.708   0.858  0.2629  0.2394  0.1011
12995W        W55912  17.735  16.445  31.791 -0.1236 -0.0528  0.1267
12996W        W55913  18.120  15.861  29.031  0.2686  0.0439  0.0942
12997W        W55914  17.587  17.049  29.994 -0.1529  0.3966  0.0472
12998W        W55915  17.813  17.456   3.219 -0.1203  0.1723  0.0355
12999W        W55916  17.119  15.602   0.146 -0.1443  0.2792 -0.0779
13000W        W55917  20.362  14.808   1.684 -0.0456  0.1707  0.1720
13001W        W55918  19.073  16.481  28.460 -0.1422  0.1434 -0.1342
13002W        W55919  21.279  13.071  30.331  0.0319 -0.0682  0.1336
13003W        W55920  18.536  14.965  30.021  0.2565 -0.1534 -0.0655
13004W        W55921  21.554  14.072   0.612  0.0524  0.0883 -0.0103
13005W        W55922  17.413  13.718  31.799  0.0931 -0.2452  0.1130
13006W        W55923  18.022  19.140  30.878  0.2672  0.0815 -0.1308
13007W        W55924  17.101  14.043   1.781  0.0105 -0.0263 -0.3391
13008W        W55925  18.957  15.772   1.313 -0.0074  0.1256 -0.1626
13009W        W55926  19.020  14.808  30.123  0.1502  0.1358 -0.3474
13010W        W55927  19.117  17.915   0.383 -0.0542 -0.2219 -0.0826
13011W        W55928  18.078  17.801   1.873 -0.0813  0.0284  0.1179
13012W        W55929  17.457  15.272   0.411 -0.4408  0.3928 -0.0678
13013W        W55930  20.288  16.391  31.055 -0.0742 -0.0429  0.1377
13014W        W55931  21.684  18.667  31.147  0.0928 -0.0039  0.0607
13015W        W55932  18.702  17.539  31.645  0.0831 -0.1727  0.1928
13016W        W55933  16.547  17.268  29.022 -0.0666  0.0206 -0.2639
13017W        W55934  16.600  16.391   3.770  0.3105 -0.1378 -0.1073
13018W        W55935  16.768  17.917   1.551 -0.0457  0.1411 -0.1770
13019W        W55936  18.405  14.913  29.459 -0.1065 -0.0186 -0.0589
13020W        W55937  20.089  17.920   1.703  0.1893 -0.2028 -0.2919
13021W        W55938  15.694  18.158   0.980  0.1319 -0.2838  0.0915
13022W        W55939  21.118  15.250   1.382  0.0311  0.0962  0.1355
13023W        W55940  18.220  17.333  31.669  0.0855 -0.0019  0.4380
13024W        W55941  20.585  17.447   0.553 -0.0468  0.0097 -0.6527
13025W        W55942  20.829  17.302  30.780 -0.0029 -0.1820 -0.0788
13026W        W55943  19.644  16.639  31.752 -0.1346  0.2910 -0.0481
13027W        W55944  20.029  15.972   0.974  0.3398 -0.0615  0.1980
13028W        W55945  17.449  16.270   1.094 -0.3971  0.0927 -0.1245
13029W        W55946  19.136  18.238   3.032 -0.0374 -0.1232  0.0341
13030W        W55947  21.118  15.325  30.721  0.0391  0.4386  0.0480
13031W        W55948  18.010  18.722  31.637 -0.2904 -0.0267  0.0166
13032W        W55949  16.490  17.591   1.803 -0.0873  0.0304 -0.0270
13033W        W55950  19.234  18.378   4.337  0.4169 -0.4770 -0.0359
13034W        W55951  18.535  17.223  30.208  0.0777  0.2717 -0.0281
13035W        W55952  16.975  17.060   0.427  0.0432  0.1710 -0.0123
13036W        W55953  18.621  17.986  30.586  0.1996 -0.2353 -0.0553
13037W        W55954  15.941  14.533   2.720 -0.0754 -0.1587 -0.0270
13038W        W55955  18.157  17.378   1.602 -0.1280  0.0345  0.0187
13039W        W55956  20.056  15.904  31.594 -0.4193  0.1742 -0.0661
13040W        W55957  17.995  14.174   1.659  0.0373 -0.0837  0.0695
13041W        W55958  20.288  15.508  30.100  0.2127 -0.1818  0.1159
13042W        W55959  17.320  16.789  31.508 -0.0969 -0.2079  0.1035
13043W        W55960  18.901  18.404  31.804 -0.0543 -0.0881 -0.0467
13044W        W55961  17.821  12.608   0.506 -0.4444 -0.3180 -0.2248
13045W        W55962  21.496  16.250  29.760  0.1846 -0.0610 -0.1705
13046W        W55963  16.201  15.130   0.983 -0.1412  0.0757 -0.0314
13047W        W55964  18.244  15.768  31.125 -0.1321 -0.0274 -0.0438
13048W        W55965  17.454  16.733   1.309 -0.3730  0.0741 -0.1206
13049W        W55966  17.344  13.579  30.993 -0.1666  0.3150  0.0607
13050W        W55967  20.473  16.306   2.027  0.1618 -0.0581  0.2368
13051W        W55968  17.266  15.091  28.753 -0.0980  0.0507 -0.3010
13052W        W55969  19.031  14.589  31.512  0.0377  0.1375  0.1064
13053W        W55970  18.229  16.757   0.745 -0.0269  0.0352 -0.0175
13054W        W55971  17.598  15.085  30.095  0.2833  0.3974 -0.2039
13055W        W55972  19.540  13.931   2.697  0.1736  0.4243  0.1891
13056W        W55973  18.400  16.283   1.949  0.0376  0.3094 -0.0861
13057W        W55974  20.257  17.774   0.798  0.3143  0.2787  0.1355
13058W        W55975  19.081  19.009   1.433  0.4208 -0.0945 -0.0506
13059W        W55976  17.544  15.328   1.487 -0.0198  0.1276  0.0775
13060W        W55977  16.508  15.993   0.100  0.1246  0.3600  0.0040
13061W        W55978  18.579  18.504   0.201 -0.2730  0.0518 -0.1491
13062W        W55979  18.702  15.663  30.305  0.1812  0.1541 -0.1395
13063W        W55980  16.855  15.666  27.782 -0.0469 -0.0883  0.2107
13064W        W55981  19.303  18.225   0.788  0.1216  0.1076 -0.0441
13065W        W55982  16.996  16.913  30.759 -0.0295  0.3177  0.4229
13066W        W55983  17.297  17.567   1.616 -0.1224 -0.1446 -0.0346
13067W        W55984  21.089  15.251   3.484 -0.1403 -0.0916 -0.2148
13068W        W55985  19.533  16.273   1.128  0.1582  0.3076 -0.0777
13069W        W55986  18.995  15.686   0.026  0.2695 -0.5532 -0.3023
13070W        W55987  17.951  14.273  29.687  0.0530 -0.2427  0.6357
13071W        W55988  18.333  17.105  30.670  0.1554  0.0313  0.1146
13072W        W55989  18.465  19.527  30.030  0.3924  0.0135  0.0586
13073W        W55990  17.035  17.670  30.310  0.0256  0.0677 -0.0292
13074W        W55991  19.941  16.027  30.948 -0.0833 -0.0305 -0.1620
13075W        W55992  21.221  14.763   1.604  0.3426  0.3582 -0.0632
13076W        W55993  16.780  18.351   5.118 -0.1378 -0.0435  0.0425
13077W        W55994  19.630  16.173  31.348  0.0920  0.1048 -0.0378
13078W        W55995  19.813  17.901  30.207  0.1298  0.0230 -0.0635
13079W        W55996  17.421  18.113   2.512  0.1893  0.3522 -0.4257
13080W        W55997  17.543  17.034   0.466 -0.2780  0.0775 -0.0921
13081W        W55998  20.118  16.671  30.194 -0.0990  0.1558 -0.0220
13082W        W55999  19.172  15.850   4.604  0.0063 -0.0734  0.0547
13083W        W56000  18.448  15.963  29.394 -0.2595  0.0071 -0.1107
13084W        W56001  18.214  15.713  30.383  0.0792  0.0318  0.4231
13085W        W56002  19.953  14.123  30.829  0.2696  0.0290  0.0030
13086W        W56003  17.804  16.695   1.683 -0.0138  0.2233 -0.0799
13087W        W56004  18.591  14.597  31.287 -0.0945 -0.2278  0.1561
13088W        W56005  16.509  15.486  31.952  0.0927  0.0141  0.0451
13089W        W56006  17.921  15.900  30.728 -0.1638 -0.1648  0.1762
13090W        W56007  20.538  18.075   1.769  0.2337 -0.2608 -0.0325
13091W        W56008  17.623  16.579   0.764  0.2276 -0.0938 -0.1009
13092W        W56009  18.354  15.482   2.120 -0.0886 -0.0732 -0.3234
13093W        W56010  19.676  17.214  31.753  0.0138 -0.2476  0.0150
13094W        W56011  19.772  15.525  31.787 -0.0763 -0.0507 -0.1697
13095W        W56012  19.100  15.915  29.340 -0.1873  0.0280 -0.4029
13096W        W56013  17.336  16.039   0.149 -0.1849 -0.3468 -0.0203
13097W        W56014  17.493  19.587  27.449 -0.3372 -0.0460 -0.1813
13098W        W56015  19.215  15.924   0.834  0.0367 -0.3196 -0.2925
13099W        W56016  18.989  15.458   0.910  0.2832 -0.1349  0.1132
13100W        W56017  19.480  14.276   0.078  0.6418 -0.1113  0.1067
13101W        W56018  19.519  15.219   0.167 -0.4691  0.0232  0.0924
13102W        W56019  19.026  14.695  29.019  0.1393  0.2612  0.0546
13103W        W56020  19.761  16.457   2.467 -0.3603 -0.0068 -0.1611
13104W        W56021  16.414  15.356  28.106 -0.0947 -0.2318 -0.2380
13105W        W56022  18.065  15.492   1.221 -0.0488 -0.3106 -0.2622
13106W        W56023  19.223  18.068   1.569  0.1466 -0.0399  0.0149
13107W        W56024  17.305  18.654   0.482  0.2683  0.0262  0.1756
13108W        W56025  17.941  16.568   1.220  0.2041  0.1905 -0.2673
13109W        W56026  19.811  16.512  31.053  0.0076 -0.2682  0.0873
13110W        W56027  18.590  15.414   1.373 -0.1493 -0.2081  0.1650
13111W        W56028  18.438  14.459  31.836  0.5066  0.0409 -0.0158
13112W        W56029  16.392  17.680   0.525 -0.5208  0.3198 -0.0675
13113W        W56030  17.367  17.967  29.982 -0.1228 -0.2282 -0.0045
13114W        W56031  18.926  16.724   1.483 -0.2603  0.2611 -0.2234
13115W        W56032  18.210  15.205  30.308  0.0905  0.1907 -0.2310
13116W        W56033  18.367  16.397  28.480 -0.0672 -0.3597  0.0560
13117W        W56034  19.927  16.964   2.659  0.0129 -0.1757  0.0222
13118W        W56035  16.552  17.430  31.366 -0.2365 -0.1628 -0.1877
13119W        W56036  20.049  15.942  30.315 -0.2526  0.2154  0.0241
13120W        W56037  17.649  19.724  30.334 -0.0653 -0.1037 -0.2383
13121W        W56038  17.016  17.070  31.260 -0.0466 -0.1545  0.0081
13122W        W56039  17.856  16.235  28.649  0.1150 -0.1784  0.1766
13123W        W56040  21.325  17.739  31.622  0.0477  0.1763 -0.1819
13124W        W56041  19.106  17.235  30.074 -0.0511  0.1189  0.2872
13125W        W56042  18.683  16.793   0.990 -0.1560  0.1203 -0.0185
13126W        W56043  19.351  16.176  31.934 -0.3820 -0.4418  0.0086
13127W        W56044  16.489  17.225   0.297 -0.3626 -0.0047  0.1500
13128W        W56045  19.896  14.912   1.396  0.0184  0.1145  0.1488
13129W        W56046  20.707  16.469   0.560 -0.1511  0.0901 -0.1230
13130W        W56047  18.572  16.661  30.916 -0.1359  0.1144 -0.2023
13131W        W56048  17.824  16.008   1.260  0.0223  0.0118 -0.0128
13132W        W56049  16.882  16.416  28.703  0.3961  0.0835  0.0175
13133W        W56050  19.297  16.616   2.365 -0.0136 -0.0533  0.1069
13134W        W56051  16.756  17.956   0.324 -0.0438  0.2222  0.0759
13135W        W56052  17.496  19.614   0.076 -0.1759  0.0212 -0.0072
13136W        W56053  18.998  17.419   0.419 -0.1295 -0.1938  0.0533
13137W        W56054  18.924  16.448  30.483  0.1667  0.1263 -0.0940
13138W        W56055  18.300  17.557   1.077 -0.0530  0.1497 -0.1618
13139W        W56056  18.560  16.342   1.490  0.0706  0.2485  0.0966
13140W        W56057  19.676  17.967   0.535 -0.0296  0.1173 -0.1294
13141W        W56058  18.452  16.786   0.054  0.0913  0.0146  0.1145
13142W        W56059  17.896  14.328  30.892 -0.0268 -0.2573 -0.2085
13143W        W56060  19.161  16.244  31.280  0.1614  0.0514 -0.2679
13144W        W56061  19.106  18.445   2.559 -0.2315 -0.3201  0.1610
13145W        W56062  19.258  15.702   1.844 -0.1200 -0.2465  0.0652
13146W        W56063  18.212  16.308   2.508 -0.0461  0.2026 -0.1817
13147W        W56064  18.054  14.643   0.896 -0.0349 -0.3582 -0.1349
13148W        W56065  19.714  18.415  29.615 -0.3850 -0.2907  0.2118
13149W        W56066  19.700  14.950   1.978 -0.1406  0.0148  0.1124
13150W        W56067  16.669  16.370  31.487  0.0582  0.5590 -0.1756
13151W        W56068  16.991  15.058   0.154  0.0486  0.0013 -0.1532
13152W        W56069  18.023  15.536  29.953 -0.4794 -0.3712  0.3098
13153W        W56070  19.397  15.154   1.011 -0.0860  0.1247  0.1000
13154W        W56071  16.024  19.009   0.961 -0.1129 -0.0803  0.1336
13155W        W56072  17.619  17.214  30.567 -0.2253  0.2040 -0.0791
13156W        W56073  16.723  17.494   2.393  0.3447  0.2462 -0.2356
13157W        W56074  19.575  16.469  29.991  0.0212  0.1507 -0.0138
13158W        W56075  20.204  15.918  29.821  0.0193 -0.2859  0.1375
13159W        W56076  19.405  15.169  29.843  0.2290  0.1621 -0.1367
13160W        W56077  19.660  16.138   0.553  0.0001 -0.0695  0.2771
13161W        W56078  19.085  15.955  30.351  0.2804  0.3162  0.3526
13162W        W56079  18.914  15.012   2.765 -0.1296  0.0729  0.0603
13163W        W56080  18.767  15.081   1.067  0.1137 -0.4812 -0.0300
13164W        W56081  18.140  17.746  31.957  0.0693 -0.3301 -0.0201
13165W        W56082  16.910  16.938   1.521 -0.2209  0.5266 -0.2529
13166W        W56083  19.343  18.235   0.171 -0.1399 -0.0581 -0.1952
13167W        W56084  19.389  15.502   3.302  0.0085 -0.3084 -0.1365
13168W        W56085  18.624  17.257   0.121  0.1562  0.1055  0.1021
13169W        W56086  17.799  16.241   0.296 -0.1341  0.2754 -0.0272
13170W        W56087  17.929  16.789   0.300  0.0242 -0.1728 -0.1810
13171W        W56088  18.095  17.218   0.201 -0.4529 -0.1520  0.1657
13172W        W56089  17.484  16.900  30.957  0.3411 -0.0242 -0.0852
13173W        W56090  22.027  14.291   1.368  0.0847  0.2184  0.0331
13174W        W56091  18.409  14.827   1.420  0.1171  0.0065  0.3995
13175W        W56092  19.752  17.061   0.700 -0.0196 -0.0355  0.1598
13176W        W56093  19.683  15.623  31.241  0.1312  0.3251  0.1292
13177W        W56094  17.694  14.873   0.547  0.3616 -0.0915  0.0079
13178W        W56095  19.299  14.928   0.588 -0.0521  0.3025  0.0438
13179W        W56096  18.948  16.892   0.292  0.2348 -0.0646  0.1532
13180W        W56097  18.357  15.921  31.659  0.1190 -0.1467 -0.0668
13181W        W56098  17.627  16.470  31.253 -0.3444  0.2267  0.0522
13182W        W56099  20.155  14.608   0.682 -0.2002  0.0147  0.0951
13183W        W56100  17.296  15.296   3.058 -0.2742 -0.0916  0.2729
13184W        W56101  18.026  14.684   1.769 -0.0093  0.1754  0.2538
13185W        W56102  20.173  18.473   2.612 -0.5703 -0.4489 -0.0797
13186W        W56103  20.809  15.575   0.058 -0.2220 -0.4454  0.1058
13187W        W56104  21.149  14.789   3.206 -0.1545 -0.0394  0.4384
13188W        W56105  18.989  16.074  30.829  0.0813  0.0352 -0.1047
13189W        W56106  19.744  14.326   1.351  0.1189 -0.1991 -0.0507
13190W        W56107  16.560  15.927   1.311  0.1912 -0.1807  0.2279
13191W        W56108  18.841  15.398   2.355 -0.1149  0.0586  0.1580
13192W        W56109  17.346  14.249  30.988 -0.1438 -0.0303  0.0945
13193W        W56110  19.000  15.178   0.240 -0.0322 -0.2812  0.1636
13194W        W56111  19.454  16.490  27.544  0.1864 -0.2784 -0.6942
13195W        W56112  18.766  16.397   0.137 -0.0016 -0.0628 -0.1871
13196W        W56113  19.787  15.049   0.736  0.4453 -0.0365 -0.1076
13197W        W56114  17.565  17.006  31.911  0.1030 -0.0480  0.1813
13198W        W56115  18.433  15.871   1.224 -0.0690 -0.0707  0.0251
13199W        W56116  17.190  17.210  30.280 -0.0793  0.2780  0.0532
13200W        W56117  20.146  14.634  30.004  0.4356 -0.4838  0.0921
13201W        W56118  18.824  17.177   2.987  0.1014 -0.2477  0.3242
13202W        W56119  19.465  15.756   2.833 -0.1208 -0.0887  0.2222
13203W        W56120  19.116  15.068  31.028  0.1528  0.1265  0.2347
13204W        W56121  20.463  15.247   1.460 -0.1327 -0.2777  0.2184
13205W        W56122  18.350  15.683  27.717 -0.0332  0.1490  0.1192
13206W        W56123  18.759  14.924  31.769 -0.1486  0.1791 -0.0376
13207W        W56124  19.275  17.028   1.989  0.1025 -0.1675  0.2794
13208W        W56125  17.376  16.896   3.973  0.1426 -0.2092 -0.2545
13209W        W56126  17.912  18.692  30.538 -0.0013  0.0935 -0.1442
13210W        W56127  19.385  14.046   3.183  0.4402  0.1917  0.0962
13211W        W56128  20.123  16.371   1.474  0.3811 -0.1198 -0.0038
13212W        W56129  18.769  17.817   0.778  0.0863 -0.1307  0.0048
13213W        W56130  20.270  16.640   2.367 -0.1204  0.0379  0.0796
13214W        W56131  19.135  16.549   1.050  0.3786  0.2242  0.3036
13215W        W56132  16.198  17.460   2.376 -0.3021 -0.1475  0.1507
13216W        W56133  16.962  17.370   0.942  0.1601 -0.0361 -0.2734
13217W        W56134  18.548  15.952   0.135  0.2059 -0.0679 -0.3159
13218W        W56135  17.641  17.532  31.833  0.1263 -0.2428  0.2140
13219W        W56136  17.393  16.677   2.282 -0.1028 -0.1402  0.1525
13220W        W56137  18.682  16.138   2.773  0.0021  0.4879  0.2920
13221W        W56138  20.329  17.644  30.345  0.0216 -0.0230  0.0884
13222W        W56139  18.823  16.246  29.578  0.0051 -0.0138 -0.2631
13223W        W56140  17.792  16.740  28.514 -0.0915 -0.0962 -0.0917
13224W        W56141  16.788  19.365   2.087 -0.1425 -0.1819 -0.1210
13225W        W56142  19.273  14.678   1.881  0.2434 -0.1535  0.0219
13226W        W56143  18.886  17.304   1.002 -0.0935  0.1088  0.5031
13227W        W56144  20.303  16.473   0.979 -0.0191  0.1426 -0.0371
13228W        W56145  17.694  15.988  29.221 -0.2961 -0.2832 -0.2160
13229W        W56146  18.634  17.159   1.430  0.2641 -0.0830 -0.0548
13230W        W56147  17.243  16.648  29.954 -0.0040 -0.0315  0.0213
13231W        W56148  18.338  17.418  31.205 -0.1011  0.0311 -0.2264
13232W        W56149  17.174  16.888   0.848  0.2311 -0.0259 -0.0722
13233W        W56150  17.528  14.481  31.585 -0.0069  0.0405 -0.2274
13234W        W56151  17.355  19.364  31.618 -0.2011  0.1073 -0.1956
13235W        W56152  19.672  17.076   1.608  0.3668  0.2833  0.0170
13236W        W56153  20.567  14.663  30.289  0.3606  0.1516 -0.1722
13237W        W56154  21.611  16.056   1.010  0.4291  0.2505  0.1925
13238W        W56155  19.480  17.469   0.360  0.3094 -0.0519  0.0271
13239W        W56156  19.881  17.282   1.191  0.1737 -0.0536  0.0800
13240W        W56157  18.342  17.574  30.520  0.3081 -0.1398 -0.0990
13241W        W56158  17.161  14.246  29.225 -0.0155  0.0267 -0.0575
13242W        W56159  17.260  17.849   1.168  0.2082  0.3059  0.2532
13243W        W56160  20.402  14.540   3.856  0.2128  0.0523 -0.2134
13244W        W56161  16.396  18.007   1.198 -0.2215 -0.0881  0.3207
13245W        W56162  21.291  17.346  30.238  0.4033 -0.4290 -0.1142
13246W        W56163  16.906  15.942  31.774 -0.1981  0.0237 -0.2414
13247W        W56164  17.761  15.266  31.143 -0.1248  0.0061 -0.0484
13248W        W56165  18.694  15.122   0.627  0.2526 -0.2435  0.1380
13249W        W56166  19.163  16.699  29.737  0.1640 -0.1480  0.0417
13250W        W56167  20.364  16.368  30.541  0.1071  0.0971 -0.0588
13251W        W56168  16.916  17.521   0.427  0.1292  0.0958  0.2902
13252W        W56169  18.273  18.459   1.599  0.0624  0.1490  0.0502
13253W        W56170  18.345  18.956   0.000  0.0088  0.1700 -0.1264
13254W        W56171  18.198  15.337  29.108 -0.2573 -0.0939 -0.0368
13255W        W56172  19.932  16.798   1.221  0.0681  0.0497  0.3051
13256W        W56173  18.967  15.299   3.282 -0.0127  0.0992  0.0350
13257W        W56174  19.405  15.506   2.359  0.1593  0.2394  0.0549
13258W        W56175  16.580  17.754  28.668  0.0115 -0.1342 -0.3783
13259W        W56176  20.598  15.937   0.765 -0.1160  0.0790  0.1570
13260W        W56177  18.800  16.424   0.637 -0.1121 -0.1409  0.1252
13261W        W56178  17.146  14.393   0.605 -0.2858 -0.0110 -0.2935
13262W        W56179  18.536  15.046  31.015 -0.1714 -0.0197 -0.1412
13263W        W56180  20.141  15.330   1.808  0.2705  0.1332  0.0183
13264W        W56181  19.655  16.917  29.608  0.0925  0.1304 -0.0785
13265W        W56182  18.952  17.733   1.248  0.1251  0.1534 -0.2782
13266W        W56183  18.433  14.493  29.811 -0.1422 -0.0630  0.0068
13267W        W56184  20.555  14.868   0.015 -0.1699 -0.1648 -0.2161
13268W        W56185  17.522  17.631  30.258  0.0683  0.1702 -0.2271
13269W        W56186  17.332  15.761   1.795  0.1213  0.0907 -0.1693
13270W        W56187  20.166  18.178   3.483 -0.0003  0.1018  0.3126
13271W        W56188  17.619  14.499  29.969 -0.0366 -0.2202 -0.3418
13272W        W56189  22.946  15.957  29.664 -0.2368  0.2179  0.3078
13273W        W56190  19.041  16.047   0.360 -0.0402  0.1906  0.0018
13274W        W56191  18.349  16.933  28.155 -0.0518  0.2250  0.0402
13275W        W56192  20.807  17.221   1.375  0.1733  0.0588 -0.0505
13276W        W56193  18.807  19.481   1.495 -0.3701 -0.1229 -0.2143
13277W        W56194  18.148  16.450  31.390 -0.1321 -0.0728 -0.5376
13278W        W56195  16.800  17.836   0.954  0.1492  0.5417  0.5540
13279W        W56196  21.873  16.512   1.408 -0.0763 -0.0595  0.2121
13280W        W56197  19.145  13.927   0.314  0.1891 -0.2581 -0.1822
13281W        W56198  18.926  15.336  30.015 -0.2362  0.1857 -0.2165
13282W        W56199  16.414  17.499   1.245  0.1060 -0.1283  0.1959
13283W        W56200  20.849  16.118   1.734  0.2436 -0.0143 -0.0576
13284W        W56201  19.352  15.211   2.824 -0.0157 -0.1175  0.0179
13285W        W56202  18.034  16.349  29.238 -0.0225  0.0799  0.0987
13286W        W56203  20.407  14.043   3.692  0.1350 -0.2234  0.1152
13287W        W56204  19.441  17.999   2.709  0.0570  0.1183  0.6110
13288W        W56205  16.272  19.299   2.423  0.2309  0.4223  0.2122
13289W        W56206  17.420  17.498  28.932 -0.1116 -0.2686 -0.0366
13290W        W56207  18.523  17.173   0.670 -0.0633  0.1705 -0.2333
13291W        W56208  17.857  16.021   0.766  0.0214  0.1065  0.2833
13292W        W56209  20.452  18.122  30.963 -0.1382 -0.0186  0.2537
13293W        W56210  19.419  16.640   1.739  0.1983  0.0564  0.0761
13294W        W56211  18.320  16.382   0.453  0.3692 -0.6626  0.0879
13295W        W56212  19.744  16.794   2.138  0.0912  0.0867  0.1111
13296W        W56213  17.555  14.718   0.099  0.0273  0.1753  0.1889
13297W        W56214  20.531  15.886  31.721 -0.2667 -0.0620 -0.0497
13298W        W56215  19.595  15.975  30.210  0.2266  0.1406 -0.0764
13299W        W56216  17.570  17.896   2.076  0.0857  0.0173  0.1904
13300W        W56217  17.515  16.376  29.463 -0.2514  0.2122 -0.1917
13301W        W56218  15.552  19.557  30.883 -0.0858  0.1901  0.0992
13302W        W56219  17.453  17.834  31.413 -0.1966  0.1078 -0.1275
13303W        W56220  17.629  14.204   4.602  0.1942 -0.1190 -0.0001
13304W        W56221  16.938  17.734   1.989  0.2900  0.1214  0.3015
13305W        W56222  17.543  18.485   0.102  0.1047  0.0978  0.2141
13306W        W56223  17.353  16.156   0.622 -0.1458  0.0468 -0.1896
13307W        W56224  20.775  17.236  31.868  0.2490 -0.4300  0.1277
13308W        W56225  16.830  15.906  30.342  0.1690 -0.0884 -0.0334
13309W        W56226  17.703  14.476   1.250  0.0725  0.2665  0.1085
13310W        W56227  20.745  18.394   0.396 -0.0292  0.0315 -0.1157
13311W        W56228  18.830  17.011  31.656  0.1407 -0.2465  0.0579
13312W        W56229  18.815  14.167  31.017  0.0628 -0.1554 -0.2307
13313W        W56230  21.514  16.093   3.545 -0.1412 -0.1926 -0.3863
13314W        W56231  16.282  15.685  29.549  0.0082 -0.0402 -0.0537
13315W        W56232  19.048  14.658   3.664  0.0286  0.2435  0.0754
13316W        W56233  19.186  14.367   1.435 -0.1387  0.2466 -0.2306
13317W        W56234  18.214  16.271  30.883  0.1961  0.2507 -0.2390
13318W        W56235  20.056  16.365  31.567 -0.0242  0.0294  0.0197
13319W        W56236  18.681  16.326  30.056 -0.1094 -0.2663  0.0611
13320W        W56237  21.381  17.285  30.759 -0.0741 -0.3904  0.1202
13321W        W56238  18.037  16.787   2.603 -0.0853  0.4245  0.2655
13322W        W56239  18.543  17.126   1.969 -0.1876 -0.0395  0.1895
13323W        W56240  18.362  15.790   1.738 -0.3537 -0.3589 -0.1309
13324W        W56241  19.334  15.844  31.588 -0.0037  0.0127 -0.0484
13325W        W56242  19.451  17.082   2.483  0.0580  0.0517  0.1285
13326W        W56243  22.345  16.359  30.233 -0.1176  0.4933  0.1313
13327W        W56244  21.546  13.566   2.467  0.2101 -0.1547 -0.1128
13328W        W56245  19.813  16.281  29.060  0.0985 -0.0357 -0.0520
13329W        W56246  18.001  15.955   2.122 -0.1509  0.1567 -0.1812
13330W        W56247  16.573  19.069   0.016 -0.1064 -0.2501 -0.2084
13331W        W56248  21.003  15.998   3.767  0.0053  0.0115  0.0050
13332W        W56249  18.243  13.900   2.506 -0.0562 -0.1020  0.3004
13333W        W56250  20.574  15.026  31.368 -0.1485  0.0396 -0.1879
13334W        W56251  17.970  15.553  31.585  0.3714  0.0264  0.2196
13335W        W56252  18.228  15.091   0.972 -0.0576  0.2000  0.2322
13336W        W56253  19.978  15.737   1.501  0.1421 -0.0374  0.0691
13337W        W56254  17.981  16.518   2.127  0.2351  0.2732 -0.0335
13338W        W56255  18.476  18.169   1.041  0.0974 -0.0931 -0.3371
13339W        W56256  19.822  16.136   2.846  0.2878  0.2614  0.3067
13340W        W56257  18.013  16.736  30.902  0.0733 -0.1489 -0.0215
13341W        W56258  19.639  17.619  31.332  0.3201  0.1134 -0.0110
13342W        W56259  19.322  20.184   0.708 -0.1088 -0.0716  0.2455
13343W        W56260  18.987  16.370   3.199  0.2433 -0.1045 -0.1313
13344W        W56261  18.244  18.702   1.166  0.2858  0.1258  0.1917
13345W        W56262  19.933  17.697   0.186 -0.1223 -0.2539 -0.0672
13346W        W56263  19.678  15.621   0.746 -0.3623  0.1316  0.3863
13347W        W56264  17.813  15.106  28.794 -0.0326 -0.0436 -0.2907
13348W        W56265  17.961  16.140  30.235  0.0696 -0.0346  0.4229
13349W        W56266  19.173  14.728   1.044  0.2455  0.2659  0.0680
13350W        W56267  15.985  15.003   0.519  0.1516  0.1863 -0.0387
13351W        W56268  19.532  13.418   0.585  0.0449 -0.2278 -0.1134
13352W        W56269  18.067  18.487  29.021  0.1165 -0.2561 -0.0020
13353W        W56270  18.351  16.770   1.652  0.0020 -0.1258  0.0097
13354W        W56271  18.367  17.910   8.311  0.0711 -0.0721 -0.2544
13355W        W56272  16.488  16.145   5.669 -0.0493 -0.3581  0.0248
13356W        W56273  21.242  14.456   4.622  0.1607  0.0283 -0.2304
13357W        W56274  20.688  17.096   4.285  0.0220 -0.0485 -0.0805
13358W        W56275  16.110  15.974   5.459  0.1316  0.2192  0.2701
13359W        W56276  17.916  19.257   4.173  0.0327 -0.3077  0.2295
13360W        W56277  19.829  12.991   6.221 -0.0893 -0.1536  0.1220
13361W        W56278  17.330  17.225   4.948  0.2012  0.2298 -0.0574
13362W        W56279  21.006  19.351   5.000  0.1122  0.0472  0.0929
13363W        W56280  21.066  16.262   3.334  0.0540 -0.3160  0.0486
13364W        W56281  18.493  15.428   5.292  0.0475  0.1098  0.2631
13365W        W56282  17.649  17.386   6.815 -0.0521  0.1963 -0.1447
13366W        W56283  17.609  13.052   2.822 -0.1911 -0.0964 -0.2196
13367W        W56284  17.243  14.893   5.140  0.2165  0.0769  0.3289
13368W        W56285  19.444  17.212   5.865  0.1880  0.0772 -0.2564
13369W        W56286  17.047  16.871   3.036  0.1699 -0.2613  0.2695
13370W        W56287  17.195  15.203   7.959 -0.2591  0.0710  0.0735
13371W        W56288  18.485  15.981   5.290 -0.4680  0.1052  0.4583
13372W        W56289  20.172  18.045   2.144  0.4555  0.0312 -0.2394
13373W        W56290  18.650  15.119   6.857 -0.3409 -0.1155 -0.0754
13374W        W56291  19.564  14.698   7.872  0.0508 -0.1708 -0.0123
13375W        W56292  17.261  18.199   4.206  0.6805  0.1602  0.1729
13376W        W56293  17.827  15.738   1.669 -0.0189 -0.2102  0.1044
13377W        W56294  17.056  17.177   4.335 -0.0751  0.2352 -0.3142
13378W        W56295  17.914  16.183   7.189 -0.0413  0.0071  0.1744
13379W        W56296  19.758  16.044   6.980 -0.1112 -0.2341  0.1905
13380W        W56297  19.995  16.985   4.855 -0.0710  0.1766  0.1387
13381W        W56298  18.915  18.825   5.606 -0.0616  0.2518 -0.0755
13382W        W56299  19.335  19.314   6.152 -0.2750  0.0906 -0.3985
13383W        W56300  19.781  15.529   8.495 -0.1219  0.0548 -0.1062
13384W        W56301  18.415  16.256   5.702 -0.2616 -0.1594  0.3367
13385W        W56302  14.917  19.394   5.728 -0.2023  0.0080 -0.0294
13386W        W56303  18.383  18.334   4.662  0.2272 -0.2267 -0.0729
13387W        W56304  21.230  16.843   3.838  0.5303 -0.1608 -0.1218
13388W        W56305  20.189  17.293   5.210 -0.3385 -0.0346 -0.2771
13389W        W56306  18.882  16.963   6.575 -0.2144 -0.0904 -0.2616
13390W        W56307  17.181  17.141   2.593 -0.0441  0.2103  0.4038
13391W        W56308  19.853  19.293   4.535  0.2032  0.0039  0.1396
13392W        W56309  18.512  16.720   6.173  0.1858 -0.0155  0.2198
13393W        W56310  18.521  15.741   5.779 -0.1072  0.0322 -0.0864
13394W        W56311  19.690  16.580   4.965  0.2614 -0.0451  0.1694
13395W        W56312  18.894  18.013   2.474 -0.0421  0.1203  0.1397
13396W        W56313  19.196  16.963   4.408  0.2272 -0.0994 -0.0404
13397W        W56314  18.121  17.197   6.916 -0.0698 -0.4466  0.1350
13398W        W56315  16.652  18.512   3.486 -0.2656 -0.0027 -0.0834
13399W        W56316  20.692  14.516   6.767  0.1981  0.0232  0.1217
13400W        W56317  16.965  18.895   1.916 -0.2129  0.1377  0.1713
13401W        W56318  17.318  15.671   3.362  0.3136  0.2917  0.0085
13402W        W56319  18.166  13.172   2.057  0.0590  0.1650  0.1299
13403W        W56320  21.167  14.617   2.477  0.1494  0.3262 -0.0327
13404W        W56321  19.013  14.675   5.373  0.1985 -0.0766  0.1749
13405W        W56322  18.234  19.009   3.188  0.2572  0.0366  0.0570
13406W        W56323  18.481  15.279   3.494  0.1166 -0.0328  0.2097
13407W        W56324  20.455  16.608   4.585  0.1251  0.0778  0.2798
13408W        W56325  19.791  15.241   4.058  0.0840  0.1272  0.0281
13409W        W56326  19.652  16.112   4.991 -0.0479 -0.2042  0.1065
13410W        W56327  18.024  20.895   4.641  0.3516  0.0363 -0.1855
13411W        W56328  17.519  14.117   3.679 -0.0948 -0.2869  0.1204
13412W        W56329  21.651  18.713   2.968  0.0627  0.0415 -0.2793
13413W        W56330  19.525  16.734   3.989 -0.1028  0.1866  0.2181
13414W        W56331  19.297  16.896   4.971 -0.0788 -0.1520  0.0554
13415W        W56332  17.138  15.891   4.623 -0.0684  0.2993 -0.2131
13416W        W56333  18.014  16.771   6.606 -0.1680 -0.1230  0.3632
13417W        W56334  19.284  17.181  10.271 -0.0004 -0.0087  0.2296
13418W        W56335  17.395  14.547   4.174 -0.0003 -0.1207  0.3499
13419W        W56336  18.834  17.394   5.184  0.1811  0.1904  0.3050
13420W        W56337  15.255  17.733   8.479 -0.2985 -0.1715 -0.1356
13421W        W56338  21.680  14.407   3.608  0.2862  0.3430 -0.0747
13422W        W56339  18.238  18.544   3.372 -0.0860  0.0264  0.3140
13423W        W56340  19.573  17.280   6.399 -0.2508  0.2991 -0.3912
13424W        W56341  18.745  16.784   4.126 -0.3983  0.1569 -0.1631
13425W        W56342  19.459  15.058   4.493 -0.0081  0.0327  0.0629
13426W        W56343  20.747  13.901   5.800 -0.0055  0.3858  0.0248
13427W        W56344  17.346  19.084   3.009  0.0982  0.2695 -0.0683
13428W        W56345  17.825  13.657   2.856 -0.1257  0.0542  0.1557
13429W        W56346  20.012  17.132   6.267  0.2506  0.2064  0.7217
13430W        W56347  19.341  16.226   2.077 -0.1395 -0.0169 -0.0248
13431W        W56348  17.579  19.436   6.742  0.0537 -0.0985  0.1342
13432W        W56349  20.095  15.461  10.065  0.0427  0.4608 -0.0562
13433W        W56350  19.026  18.920   6.286  0.0152 -0.0854 -0.2055
13434W        W56351  15.590  18.784   5.650 -0.2140 -0.0284  0.0275
13435W        W56352  18.480  17.289   4.169 -0.3858 -0.1113  0.3367
13436W        W56353  16.611  18.394   2.646  0.0324 -0.0601 -0.0194
13437W        W56354  18.918  15.543   5.390 -0.0393  0.4732  0.0110
13438W        W56355  18.702  17.354   7.061  0.0298 -0.2215  0.1791
13439W        W56356  22.073  15.117   4.320  0.1805  0.0182 -0.1310
13440W        W56357  17.190  13.930   5.443 -0.0399  0.4781  0.2240
13441W        W56358  20.285  14.965   2.626 -0.4216  0.1739 -0.1546
13442W        W56359  19.792  17.186   4.079 -0.1994  0.0599  0.7125
13443W        W56360  19.958  15.052   4.521 -0.0501 -0.0433  0.1446
13444W        W56361  18.368  16.564   2.911 -0.0646 -0.2306 -0.0108
13445W        W56362  19.273  17.540   3.262 -0.1323  0.1613  0.2263
13446W        W56363  16.468  17.066   4.596 -0.0071 -0.1382  0.3692
13447W        W56364  17.486  15.491   4.385  0.0439  0.1138 -0.1111
13448W        W56365  18.397  16.099   6.943  0.1447  0.2484 -0.1964
13449W        W56366  18.523  14.376   5.461  0.0744  0.1937 -0.2998
13450W        W56367  21.496  15.363   5.895  0.1524  0.2911 -0.1557
13451W        W56368  18.302  14.747   3.559  0.0065  0.0838  0.0578
13452W        W56369  18.658  16.298   4.090 -0.0367 -0.1317  0.1255
13453W        W56370  18.421  17.103   2.663 -0.0167 -0.0173  0.0038
13454W        W56371  18.080  15.589   4.543 -0.0251  0.1273  0.1974
13455W        W56372  19.339  15.371   7.242  0.1001 -0.2844 -0.2824
13456W        W56373  19.583  17.994   4.812  0.2741 -0.2501  0.1181
13457W        W56374  21.633  19.664   6.806  0.1015  0.0156  0.3960
13458W        W56375  20.709  17.598   4.135 -0.0366 -0.3218 -0.1964
13459W        W56376  17.102  15.652   4.016  0.2688 -0.2654  0.0916
13460W        W56377  16.527  16.901   3.595 -0.1728 -0.1194 -0.2919
13461W        W56378  18.226  18.637   4.193 -0.0522 -0.0861  0.0911
13462W        W56379  20.325  15.531   4.428  0.4330  0.0601 -0.2891
13463W        W56380  18.715  15.596   4.822 -0.5289 -0.0327 -0.0235
13464W        W56381  19.389  18.992   4.672  0.4385  0.0139  0.2571
13465W        W56382  19.260  16.440   5.268  0.1147 -0.0769  0.0404
13466W        W56383  17.188  16.500   7.741  0.1077 -0.0389 -0.0599
13467W        W56384  19.345  15.844   6.529  0.0297 -0.1768  0.0401
13468W        W56385  20.668  17.266   5.460  0.0086 -0.0044 -0.0394
13469W        W56386  17.594  17.335   3.688 -0.0470 -0.0889 -0.0906
13470W        W56387  17.506  15.821   2.312  0.0677  0.1397 -0.0985
13471W        W56388  18.400  17.861   4.707 -0.1699 -0.0137  0.1188
13472W        W56389  16.101  18.734   3.710  0.0990  0.0295  0.2629
13473W        W56390  16.589  17.945   5.569  0.0702 -0.0239 -0.2218
13474W        W56391  18.846  17.861   2.993 -0.2183  0.2243 -0.0445
13475W        W56392  20.537  15.224   4.762  0.0693  0.1877 -0.0221
13476W        W56393  17.637  16.961   7.050  0.1156 -0.1435 -0.0874
13477W        W56394  20.135  16.305   8.117  0.3201 -0.3169  0.3155
13478W        W56395  17.376  16.343   3.281  0.0231 -0.1787  0.2901
13479W        W56396  16.115  16.288   6.727  0.0019  0.1363 -0.0859
13480W        W56397  20.047  15.339   4.891 -0.0783 -0.1084  0.4517
13481W        W56398  20.772  14.367   2.482 -0.1412 -0.0477  0.0378
13482W        W56399  18.022  17.606   5.079  0.0260  0.0970  0.0388
13483W        W56400  19.128  16.403   3.767 -0.0212  0.3709  0.2083
13484W        W56401  18.796  15.120   3.831 -0.1018  0.0645  0.0956
13485W        W56402  18.491  13.780   2.914  0.0465  0.0537 -0.3358
13486W        W56403  17.371  18.297   4.969 -0.1219  0.0594  0.1884
13487W        W56404  19.784  16.324   3.703 -0.5576 -0.0070  0.1043
13488W        W56405  18.972  16.025   5.515 -0.1327 -0.0250  0.0813
13489W        W56406  20.059  14.427   2.642 -0.1367  0.0041 -0.2663
13490W        W56407  20.221  18.687   3.784  0.2332 -0.3300  0.0711
13491W        W56408  17.225  16.619   7.261 -0.0629  0.2282 -0.1820
13492W        W56409  20.834  17.247   6.795  0.2492  0.0891 -0.2265
13493W        W56410  20.005  16.327   4.650  0.2626  0.0470 -0.0594
13494W        W56411  20.196  14.126   7.476 -0.2033 -0.3258  0.0539
13495W        W56412  18.590  14.923   2.417 -0.0535  0.0014  0.0402
13496W        W56413  19.785  15.707   5.188 -0.0616 -0.1828  0.0197
13497W        W56414  16.615  19.667   1.388 -0.1905 -0.0734 -0.2381
13498W        W56415  20.015  16.035   7.520 -0.0815  0.1056 -0.2085
13499W        W56416  19.754  15.631   1.988  0.2357 -0.0717  0.2080
13500W        W56417  19.624  15.269   5.070 -0.2135  0.2009 -0.2709
13501W        W56418  21.381  16.265   9.299  0.0074 -0.1835 -0.1772
13502W        W56419  20.768  13.905   2.797  0.1350 -0.0974  0.0719
13503W        W56420  19.246  15.101   5.466 -0.1693 -0.0386 -0.1157
13504W        W56421  16.718  15.768   4.305 -0.1146  0.2686 -0.0471
13505W        W56422  20.941  14.566   7.198 -0.2948  0.1711 -0.0504
13506W        W56423  18.763  16.465   5.358 -0.1402  0.4639  0.0034
13507W        W56424  18.286  17.919   7.395 -0.0217 -0.1810  0.2271
13508W        W56425  20.085  17.658   6.905 -0.1914  0.0315  0.0148
13509W        W56426  19.859  16.882   5.770  0.1418  0.2095  0.3183
13510W        W56427  19.670  16.000   7.897  0.1081 -0.2021 -0.0506
13511W        W56428  19.220  14.922   4.069  0.2556 -0.1093  0.3590
13512W        W56429  19.114  16.890   3.732 -0.2658 -0.2413 -0.0918
13513W        W56430  18.509  18.038   3.660  0.0299 -0.2581 -0.0217
13514W        W56431  17.718  14.678   3.755 -0.1107 -0.1485 -0.1148
13515W        W56432  19.607  17.130   4.604 -0.2421 -0.1694 -0.0785
13516W        W56433  19.382  16.591   2.889  0.2609 -0.2427 -0.1270
13517W        W56434  21.147  16.937   7.083  0.1056 -0.0725 -0.1162
13518W        W56435  18.340  14.383   2.532  0.0482 -0.2711  0.0458
13519W        W56436  20.376  15.069   3.242 -0.0548 -0.1974 -0.0128
13520W        W56437  16.234  18.397   4.378 -0.1366 -0.1465  0.2352
13521W        W56438  18.136  14.628   0.354  0.0397  0.0770 -0.2174
13522W        W56439  19.546  16.083   4.450 -0.1335 -0.2428  0.1613
13523W        W56440  20.480  16.111   4.407 -0.1019  0.4142  0.1841
13524W        W56441  20.270  15.562   3.148 -0.1959 -0.2967  0.1718
13525W        W56442  17.792  14.982   5.291 -0.0232  0.0102  0.3926
13526W        W56443  20.319  14.807   4.878 -0.1190 -0.4053 -0.2599
13527W        W56444  18.233  17.086   5.318  0.2102 -0.2865  0.1036
13528W        W56445  18.852  16.168   7.004 -0.0687 -0.0696  0.0342
13529W        W56446  18.300  17.177   3.201  0.1737  0.3593 -0.2029
13530W        W56447  18.426  17.824   5.258  0.1780 -0.0300  0.3504
13531W        W56448  18.332  15.938   4.806  0.1037  0.4368  0.1214
13532W        W56449  16.887  13.442   2.557 -0.0999 -0.1065  0.0079
13533W        W56450  20.428  16.423   6.609 -0.0430  0.1589  0.0156
13534W        W56451  17.480  15.045   4.629 -0.2700  0.0405 -0.2655
13535W        W56452  18.950  17.344   3.611  0.1175 -0.2683 -0.2462
13536W        W56453  19.223  17.405   8.130  0.1150 -0.1705  0.0077
13537W        W56454  18.965  15.820   3.269 -0.1596 -0.1626  0.2364
13538W        W56455  19.780  18.051   4.265 -0.0245  0.0816  0.0875
13539W        W56456  18.755  17.445   7.564 -0.1389  0.2513  0.3418
13540W        W56457  19.734  16.993   5.320  0.1555 -0.2298  0.1162
13541W        W56458  16.594  15.891   7.038  0.0493 -0.3124  0.0030
13542W        W56459  17.034  14.282   3.501  0.1388 -0.0153 -0.0139
13543W        W56460  18.754  16.170   4.551 -0.0947  0.3970  0.0736
13544W        W56461  19.420  16.302   6.738 -0.2276  0.0737  0.1801
13545W        W56462  18.946  13.400   5.527 -0.0168  0.0767 -0.1145
13546W        W56463  18.788  17.638   8.268  0.0879  0.0368  0.0962
13547W        W56464  19.479  15.412   6.759  0.2245  0.1451  0.1314
13548W        W56465  20.102  17.027   3.218  0.1810 -0.0556 -0.1203
13549W        W56466  19.920  16.513   9.544  0.0859  0.0529  0.1921
13550W        W56467  19.307  15.289   3.810  0.1906 -0.2798 -0.0428
13551W        W56468  17.765  18.235   1.789  0.1041 -0.0208  0.0105
13552W        W56469  18.786  18.095   4.476 -0.0666  0.1293 -0.1220
13553W        W56470  19.714  14.747   4.241  0.0860 -0.0601  0.2260
13554W        W56471  18.945  14.686   6.560  0.2042  0.3894 -0.0223
13555W        W56472  16.502  17.888   2.185 -0.0412 -0.0636  0.0703
13556W        W56473  16.963  16.194   4.122 -0.0555  0.0463  0.4668
13557W        W56474  18.447  15.542   2.634  0.0715  0.1955 -0.1311
13558W        W56475  18.589  16.218   3.506  0.0829  0.0482  0.4136
13559W        W56476  18.343  15.174   4.187  0.3031 -0.1740 -0.1636
13560W        W56477  21.201  14.993   5.204 -0.1425  0.1938 -0.1103
13561W        W56478  19.042  15.852   2.271 -0.0314 -0.2242 -0.0334
13562W        W56479  20.353  14.314   5.629 -0.0626  0.2488  0.2165
13563W        W56480  18.077  15.508   6.021 -0.0944  0.1658 -0.0960
13564W        W56481  19.552  17.108   3.073 -0.1309 -0.0530  0.0380
13565W        W56482  17.460  16.103   4.974 -0.0415  0.2294  0.3539
13566W        W56483  19.391  17.865   5.598 -0.2149 -0.1138 -0.1183
13567W        W56484  17.187  17.731   4.360 -0.0201  0.0247  0.1210
13568W        W56485  18.920  16.000   5.011  0.1387  0.0184  0.3474
13569W        W56486  17.336  14.806   3.210 -0.2286 -0.3618 -0.0668
13570W        W56487  18.168  16.733   4.914 -0.2161  0.1371 -0.1150
13571W        W56488  21.007  15.407   4.840  0.1957 -0.1118  0.1952
13572W        W56489  17.616  15.734   5.268  0.0188  0.0110  0.1296
13573W        W56490  21.564  13.916   3.880 -0.3951  0.1807 -0.1892
13574W        W56491  16.846  18.170   3.829  0.0169 -0.1426 -0.4319
13575W        W56492  19.512  15.503   5.573 -0.0193 -0.0768 -0.0630
13576W        W56493  19.692  14.871   2.698 -0.3311  0.1322  0.0302
13577W        W56494  18.427  17.534   3.725  0.0655 -0.3344  0.0272
13578W        W56495  19.119  15.425   5.837  0.2194 -0.2940  0.0552
13579W        W56496  18.967  17.471   4.344  0.0856  0.2675 -0.1501
13580W        W56497  20.063  17.339   4.477 -0.0686 -0.4335 -0.2195
13581W        W56498  20.258  16.526   5.014  0.3716 -0.1668  0.2342
13582W        W56499  19.873  16.280   5.880 -0.1851 -0.0960  0.1711
13583W        W56500  20.061  15.617   9.607 -0.2988  0.2656  0.1064
13584W        W56501  16.823  15.060   6.648  0.1373  0.0478  0.2344
13585W        W56502  19.393  15.659   8.187 -0.1203  0.2238 -0.1572
13586W        W56503  20.709  14.680   3.444 -0.0208 -0.0319  0.0106
13587W        W56504  21.398  16.297   5.850 -0.1179  0.0637  0.1754
13588W        W56505  18.532  15.655   3.139 -0.0324 -0.1584 -0.1546
13589W        W56506  18.058  14.795   4.075 -0.4227  0.2417  0.2006
13590W        W56507  16.961  17.074   5.988 -0.0340 -0.0721  0.1324
13591W        W56508  17.560  15.783   5.736 -0.1255  0.1144  0.2111
13592W        W56509  16.817  16.507   0.019 -0.0129 -0.0449  0.1868
13593W        W56510  18.826  15.207   8.649 -0.1854  0.3002 -0.1316
13594W        W56511  18.408  17.825   2.308  0.1030  0.1348  0.2545
13595W        W56512  17.077  17.294   3.848  0.1633 -0.0154 -0.3213
13596W        W56513  19.065  15.954   4.120  0.1570  0.0918  0.1438
13597W        W56514  17.952  17.734   3.628  0.0998  0.1150 -0.0152
13598W        W56515  17.734  17.092   6.203  0.0375  0.1590 -0.0393
13599W        W56516  16.678  15.484   2.612 -0.1655 -0.0749 -0.3239
13600W        W56517  17.677  17.171   2.369 -0.0676 -0.0893  0.0888
13601W        W56518  17.610  17.515   4.678  0.0575  0.0898 -0.2314
13602W        W56519  21.716  14.853   5.837  0.0772  0.3424  0.1528
13603W        W56520  19.116  15.345   4.295  0.3017 -0.2653 -0.0031
13604W        W56521  20.683  15.539   6.928 -0.0557 -0.0415 -0.2254
13605W        W56522  18.060  17.169   3.638 -0.4011 -0.1097  0.0174
13606W        W56523  18.094  15.838   5.625  0.1489  0.1772 -0.0455
13607W        W56524  18.529  18.617   6.520  0.0673  0.0191 -0.0476
13608W        W56525  17.462  16.168   5.458  0.0140 -0.0821 -0.1768
13609W        W56526  19.820  15.765   3.171 -0.4105 -0.0242  0.1053
13610W        W56527  19.910  15.669   6.641 -0.2282  0.1160  0.0703
13611W        W56528  18.534  15.755   4.355  0.0165 -0.0099  0.2244
13612W        W56529  18.138  16.464   5.332 -0.1559  0.1574 -0.1627
13613W        W56530  20.807  15.683   4.481  0.0751 -0.0336  0.1981
13614W        W56531  18.418  17.370   4.897  0.0378 -0.0500 -0.2224
13615W        W56532  17.233  16.878   3.485 -0.2332  0.1188 -0.0811
13616W        W56533  20.328  17.200   6.702 -0.2285  0.0452  0.0092
13617W        W56534  21.355  16.708   4.881  0.1129 -0.0239 -0.0208
13618W        W56535  18.722  17.152   4.590 -0.1052  0.1500 -0.2554
13619W        W56536  16.844  15.960   6.532 -0.4789  0.2722  0.0692
13620W        W56537  19.703  16.574   8.084  0.0035  0.2327 -0.0989
13621W        W56538  19.581  18.669   4.078 -0.1786 -0.3730 -0.1494
13622W        W56539  18.392  13.840   3.478  0.1045  0.2164 -0.2631
13623W        W56540  19.408  16.665   3.400  0.2635 -0.1045  0.2791
13624W        W56541  17.962  19.092   5.098  0.2992 -0.0439 -0.1038
13625W        W56542  16.792  17.083   5.414  0.1131  0.1103 -0.0586
13626W        W56543  18.559  18.579   3.750 -0.0407 -0.1304  0.1700
13627W        W56544  18.811  17.668   4.783 -0.0946  0.2064 -0.0432
13628W        W56545  18.050  16.225   4.149  0.2383 -0.0378 -0.1639
13629W        W56546  17.822  20.635   4.245  0.1283 -0.1220 -0.1763
13630W        W56547  18.319  13.753   4.730 -0.1726 -0.0539  0.1032
13631W        W56548  17.299  17.785   3.870  0.1388  0.0045 -0.0141
13632W        W56549  16.972  16.550   2.699 -0.3808  0.0381  0.2312
13633W        W56550  18.994  17.961   3.485 -0.0807 -0.0707  0.0862
13634W        W56551  17.995  16.267   1.629  0.0678  0.0214 -0.0877
13635W        W56552  19.324  16.834   6.535 -0.2038 -0.3108 -0.1106
13636W        W56553  18.965  15.598   2.801 -0.0372 -0.0873 -0.0937
13637W        W56554  22.140  16.270   5.540 -0.0747  0.0166 -0.0615
13638W        W56555  20.697  15.206   5.248  0.0331  0.0308  0.0642
13639W        W56556  18.197  16.311   6.225  0.0906 -0.1474 -0.3075
13640W        W56557  16.543  17.213   4.084 -0.0054 -0.1501 -0.3136
13641W        W56558  18.091  15.690   3.538  0.1350 -0.2447  0.1163
13642W        W56559  18.982  15.772   7.375 -0.0222 -0.1006  0.1311
13643W        W56560  20.570  12.896   6.836 -0.1618 -0.2641  0.0161
13644W        W56561  17.428  18.656   6.954 -0.0117 -0.1915  0.0187
13645W        W56562  17.994  14.218   3.555  0.0115  0.2869  0.0904
13646W        W56563  20.461  17.138   4.795  0.1479  0.1305 -0.0348
13647W        W56564  20.520  13.713   4.186  0.5144  0.0222  0.0370
13648W        W56565  19.477  15.767   0.214 -0.1335  0.1450  0.3311
13649W        W56566  18.777  14.906   5.732  0.2933 -0.0817 -0.0048
13650W        W56567  19.831  17.507   2.855 -0.1273  0.1681 -0.0679
13651W        W56568  17.705  16.670   5.430 -0.0599  0.1320  0.1064
13652W        W56569  18.727  19.124   5.921  0.0253 -0.3377 -0.0983
13653W        W56570  16.072  17.959   5.701  0.0880 -0.2939  0.0347
13654W        W56571  22.771  16.374   4.206 -0.0620  0.1311  0.1161
13655W        W56572  18.420  15.735   6.355 -0.0011  0.4649 -0.0306
13656W        W56573  19.867  13.461   5.736 -0.1350 -0.1540 -0.2059
13657W        W56574  18.128  18.191   5.070 -0.2490 -0.1325  0.4404
13658W        W56575  21.723  14.792   3.935 -0.1057 -0.1967 -0.2860
13659W        W56576  18.199  17.159   5.871 -0.0997  0.0437  0.2427
13660W        W56577  17.465  16.377   5.873  0.0298  0.0955 -0.0142
13661W        W56578  16.877  15.127   2.321 -0.0188  0.2729 -0.4924
13662W        W56579  20.759  16.092   6.980 -0.0228  0.2084 -0.0437
13663W        W56580  18.920  14.853   1.521 -0.0891 -0.1601  0.0068
13664W        W56581  19.064  17.874   6.022 -0.1702  0.1763 -0.0006
13665W        W56582  17.914  16.227   3.626 -0.1625 -0.3322  0.1583
13666W        W56583  18.841  16.289   2.324  0.0138 -0.1868 -0.1317
13667W        W56584  20.116  14.892   3.674  0.3546 -0.1223 -0.0474
13668W        W56585  19.967  17.602   6.450  0.2306 -0.2002  0.2226
13669W        W56586  19.772  17.178   6.832 -0.3820  0.0622 -0.0401
13670W        W56587  17.070  14.394   3.001  0.0994 -0.0777  0.3815
13671W        W56588  17.778  17.902   2.896  0.0253 -0.1152  0.2273
13672W        W56589  20.576  17.647   4.590  0.0000 -0.1319 -0.1592
13673W        W56590  20.255  15.823   2.100 -0.1340 -0.2771 -0.1803
13674W        W56591  19.843  14.825   4.939 -0.3473 -0.1256  0.0582
13675W        W56592  19.990  18.129   5.808 -0.0556  0.1151 -0.2016
13676W        W56593  15.464  15.580   6.715  0.2469  0.1716  0.0144
13677W        W56594  18.890  17.905   5.435  0.0778  0.3694 -0.0693
13678W        W56595  19.005  19.147   3.798  0.1434  0.0130  0.5483
13679W        W56596  19.761  16.527   5.422 -0.2339  0.1805 -0.0382
13680W        W56597  16.149  16.553   5.798 -0.1726  0.1960 -0.2900
13681W        W56598  17.147  19.100   4.901  0.3063  0.1436  0.0704
13682W        W56599  19.796  15.577   7.225  0.0583 -0.0568  0.0044
13683W        W56600  18.931  15.415   7.754  0.1703 -0.1252  0.0642
13684W        W56601  19.349  18.021   4.024 -0.3495  0.1787 -0.0095
13685W        W56602  20.226  14.265   6.621  0.1370 -0.0796  0.0943
13686W        W56603  18.856  16.272   7.563  0.2023 -0.0518 -0.1712
13687W        W56604  17.658  18.012   5.743  0.1817  0.1286 -0.0522
13688W        W56605  18.306  16.584   3.406 -0.0103 -0.0439 -0.1196
13689W        W56606  18.219  18.393   8.750  0.0674  0.4022  0.2263
13690W        W56607  18.264  16.277   0.983 -0.2713  0.0747  0.0848
13691W        W56608  17.888  18.169   3.383  0.0844  0.3932  0.3636
13692W        W56609  21.257  16.348   6.374  0.0960 -0.2591 -0.0978
13693W        W56610  17.738  16.954   3.227 -0.1095  0.0580 -0.1645
13694W        W56611  19.583  15.994   5.541 -0.0214 -0.0004 -0.1290
13695W        W56612  19.347  14.900   4.953 -0.1310  0.0179  0.2473
13696W        W56613  20.588  15.967   4.932  0.0028 -0.1168 -0.1736
13697W        W56614  18.750  13.729   4.285  0.1239 -0.2664 -0.0421
13698W        W56615  16.671  17.078   7.004 -0.2806 -0.0794 -0.1074
13699W        W56616  19.704  14.522   2.251 -0.0530 -0.0870  0.0510
13700W        W56617  17.523  17.469   2.799  0.0381  0.0780  0.0365
13701W        W56618  17.700  16.555   4.932  0.2950  0.0260 -0.1796
13702W        W56619  19.122  15.902   8.542  0.0120 -0.1073  0.0490
13703W        W56620  16.783  16.195   7.349 -0.0870 -0.4780  0.1411
13704W        W56621  18.476  18.468   5.533  0.1305  0.1470 -0.4968
13705W        W56622  18.732  15.198   4.550  0.1074 -0.1244 -0.0194
13706W        W56623  18.260  16.124   3.112 -0.1566  0.1578  0.1964
13707W        W56624  18.088  14.000   6.377  0.1002  0.0472 -0.2043
13708W        W56625  18.359  15.220   6.412 -0.0413  0.0373 -0.1480
13709W        W56626  20.188  16.101   3.797 -0.1794  0.0544  0.3712
13710W        W56627  19.316  17.352   5.302  0.2653  0.0310  0.1075
13711W        W56628  18.795  15.471   1.810  0.0195 -0.0177  0.2572
13712W        W56629  20.860  15.989   6.249  0.0412  0.4589 -0.2626
13713W        W56630  18.550  16.941   3.663 -0.2148  0.0613  0.0734
13714W        W56631  17.918  16.997   7.418 -0.3900  0.0333  0.2682
13715W        W56632  18.083  16.236   9.452 -0.0885  0.1169 -0.1732
13716W        W56633  17.658  17.069   0.947 -0.1880  0.0436  0.4228
13717W        W56634  18.151  14.674   4.846  0.0028 -0.1227 -0.0411
13718W        W56635  16.464  17.971   3.521 -0.2036 -0.2416 -0.2056
13719W        W56636  19.805  16.603   3.093  0.2372 -0.0664  0.2131
13720W        W56637  17.828  17.082   5.057 -0.1970  0.2537  0.3762
13721W        W56638  19.244  16.425   7.258 -0.1027 -0.0762  0.0926
13722W        W56639  18.936  15.573   6.798 -0.1157 -0.0394 -0.1805
13723W        W56640  19.509  15.684   1.257  0.1276  0.1419  0.1740
13724W        W56641  18.032  16.672   5.897  0.1716 -0.0476 -0.2178
13725W        W56642  20.374  15.989   2.899 -0.0520 -0.0649  0.1738
13726W        W56643  19.289  16.317   5.774 -0.0315  0.2186  0.2076
13727W        W56644  17.247  16.485   3.853  0.0685 -0.2282 -0.3412
13728W        W56645  16.982  14.267   7.753  0.2821 -0.1891 -0.2157
13729W        W56646  17.155  17.112   7.013 -0.0243  0.1224  0.0091
13730W        W56647  20.620  15.488   3.595 -0.0692  0.0630 -0.1631
13731W        W56648  18.330  15.138   5.820 -0.4239 -0.0023 -0.0933
13732W        W56649  20.122  16.144   2.413 -0.4222 -0.2002 -0.1117
13733W        W56650  19.205  17.846   4.481  0.3118 -0.1147 -0.3015
13734W        W56651  17.917  16.627   4.483 -0.2496 -0.1107 -0.1361
13735W        W56652  19.232  15.915   3.654  0.1360 -0.0215  0.1766
13736W        W56653  17.812  15.903   6.149 -0.1459 -0.0436 -0.1451
13737W        W56654  17.873  18.501   4.648  0.0546  0.4504  0.2172
13738W        W56655  20.248  16.316   8.620 -0.1967 -0.1784  0.2039
13739W        W56656  18.882  16.049   1.835 -0.0657  0.3119  0.0879
13740W        W56657  21.598  17.054   2.277 -0.0001 -0.1426  0.2296
13741W        W56658  20.032  17.625   5.855 -0.3782 -0.3494 -0.2193
13742W        W56659  20.649  18.085   5.506  0.2669  0.1085  0.0903
13743W        W56660  18.885  16.003   6.033  0.1333  0.1667  0.2462
13744W        W56661  18.194  17.035   4.526  0.0587 -0.3475  0.1004
13745W        W56662  18.290  15.005   7.555 -0.1090  0.0219 -0.1583
13746W        W56663  17.505  18.680   2.633 -0.2152 -0.0325 -0.2888
13747W        W56664  19.103  16.413   4.317 -0.2468 -0.1633  0.2012
13748W        W56665  20.413  16.096   7.777 -0.1895 -0.1148 -0.1508
13749W        W56666  17.664  16.459   4.063 -0.4120 -0.0997  0.0582
13750W        W56667  18.882  15.582   3.733  0.0913 -0.0201  0.3147
13751W        W56668  18.592  17.345   8.713  0.1690  0.3331 -0.0566
13752W        W56669  16.654  17.580   4.492  0.1079  0.1033  0.0240
13753W        W56670  15.310  13.525   9.895 -0.0535  0.0763  0.1431
13754W        W56671  18.683  15.841   7.843  0.1162  0.1774 -0.1019
13755W        W56672  20.836  16.698   8.334  0.2820 -0.1107  0.0847
13756W        W56673  20.455  17.276   9.375  0.1821 -0.1598 -0.0782
13757W        W56674  20.236  14.474   8.631  0.1384 -0.3712  0.1585
13758W        W56675  20.577  17.691   6.656 -0.1174 -0.1297  0.1317
13759W        W56676  20.220  18.271  10.437  0.2932 -0.0135 -0.0441
13760W        W56677  21.308  15.485   8.583 -0.1062  0.1052  0.1710
13761W        W56678  17.915  17.890   6.778  0.0684 -0.0620  0.4294
13762W        W56679  18.677  13.556  10.246  0.1237 -0.2492 -0.0286
13763W        W56680  19.620  13.559   8.504 -0.0903  0.0148  0.0284
13764W        W56681  19.646  14.809   9.255 -0.2640 -0.0329 -0.1087
13765W        W56682  18.617  15.313  10.042  0.2576 -0.0470  0.0083
13766W        W56683  18.996  14.809   7.058  0.0557 -0.2767 -0.4055
13767W        W56684  20.436  12.932   9.287  0.1928  0.1674  0.2964
13768W        W56685  18.776  15.159   7.356 -0.0759  0.2786  0.0062
13769W        W56686  19.549  16.039   9.379  0.0447 -0.0121  0.2839
13770W        W56687  13.308  13.030   8.371  0.2088  0.2070  0.3059
13771W        W56688  20.467  14.697  10.742  0.0203 -0.3780  0.0126
13772W        W56689  17.652  15.905   6.847  0.0837  0.0806 -0.0754
13773W        W56690  18.472  15.793   9.823 -0.3787  0.2571 -0.4012
13774W        W56691  20.871  14.258   9.107  0.1998  0.1852 -0.0766
13775W        W56692  18.086  15.866   8.648 -0.1074  0.1239  0.2754
13776W        W56693  20.913  15.350   8.259  0.1519 -0.1465  0.0668
13777W        W56694  19.222  17.166   9.543 -0.2013  0.0247  0.2223
13778W        W56695  20.631  17.586  10.491  0.2860  0.0441  0.3284
13779W        W56696  19.327  19.683  10.522 -0.0430 -0.1291  0.0596
13780W        W56697  19.368  16.907   8.399  0.0289  0.0767 -0.0236
13781W        W56698  18.996  17.905  10.356 -0.2860  0.1536 -0.0028
13782W        W56699  19.521  15.977   8.835  0.1281  0.0936 -0.0911
13783W        W56700  18.938  16.633   9.310 -0.0386 -0.3542  0.0116
13784W        W56701  20.954  15.829   8.554  0.0755  0.0261 -0.0254
13785W        W56702  19.270  16.715  10.485 -0.1471  0.1532  0.1470
13786W        W56703  19.094  16.474   8.644 -0.1308  0.4230 -0.1223
13787W        W56704  18.631  15.954  11.148 -0.2160 -0.0371  0.0094
13788W        W56705  18.400  16.692  11.124 -0.2007  0.1836  0.2869
13789W        W56706  18.094  18.282   6.579 -0.1355  0.1651  0.0251
13790W        W56707  20.305  15.673  10.462 -0.1546  0.2247  0.0508
13791W        W56708  20.069  14.784   8.935 -0.2138  0.2503 -0.1084
13792W        W56709  21.004  14.799   8.360 -0.1487  0.2017 -0.0549
13793W        W56710  20.184  14.064  10.701 -0.2408  0.1737 -0.0006
13794W        W56711  19.129  18.743  10.689  0.0403  0.4101 -0.1467
13795W        W56712  18.219  14.973   9.777 -0.0464 -0.1054 -0.2072
13796W        W56713  19.733  15.067  10.259  0.2411  0.3065  0.1988
13797W        W56714  20.746  14.380   8.445  0.1743 -0.0109 -0.0635
13798W        W56715  20.321  17.975   9.174  0.2995  0.0414 -0.1643
13799W        W56716  16.362  18.279  10.347  0.0031 -0.2159  0.2251
13800W        W56717  19.005  17.441   5.672 -0.1785  0.0848 -0.0603
13801W        W56718  23.673  17.735   9.581 -0.2285  0.1455  0.2035
13802W        W56719  21.179  17.288   6.393  0.3454 -0.1763  0.1713
13803W        W56720  19.803  17.504  10.107  0.0178  0.0488  0.2145
13804W        W56721  20.585  14.852   8.657  0.1739  0.2444  0.3560
13805W        W56722  21.325  14.435   9.194 -0.1063 -0.0066 -0.2667
13806W        W56723  20.432  17.005   8.168  0.1553  0.4133 -0.0777
13807W        W56724  20.041  18.373   9.396 -0.1108 -0.1135  0.0985
13808W        W56725  19.078  17.272   8.622  0.0149 -0.1352 -0.1362
13809W        W56726  22.021  13.818   8.098  0.0120  0.0821 -0.2436
13810W        W56727  19.634  15.130   9.741 -0.0475 -0.2894  0.0641
13811W        W56728  18.482  17.015   9.383 -0.1098 -0.0119 -0.0437
13812W        W56729  18.580  15.360  10.576  0.3685 -0.2151  0.3727
13813W        W56730  20.541  17.161  10.993 -0.0165  0.0236  0.0856
13814W        W56731  17.991  15.663   7.154  0.1365 -0.1786 -0.0068
13815W        W56732  19.505  17.782  10.409 -0.1604 -0.1136  0.0533
13816W        W56733  18.143  19.249   3.683  0.2661 -0.1989  0.1690
13817W        W56734  17.945  11.632   9.522 -0.0296 -0.0225  0.1619
13818W        W56735  19.088  16.232  10.528 -0.2541 -0.0280 -0.3968
13819W        W56736  22.132  11.720   8.559 -0.0232  0.1293 -0.0550
13820W        W56737  18.368  17.672   9.928  0.0403 -0.2547  0.3156
13821W        W56738  19.753  13.368   8.071  0.3192  0.0739 -0.2143
13822W        W56739  20.074  12.871  10.634 -0.2697  0.1397 -0.0717
13823W        W56740  18.382  17.920  10.389 -0.0838  0.1674 -0.1712
13824W        W56741  20.945  17.809   8.497  0.3170  0.0170  0.0439
13825W        W56742  20.381  15.326   8.266  0.0215  0.3290  0.0395
13826W        W56743  19.933  18.960   7.189  0.2854  0.0447  0.0935
13827W        W56744  17.526  14.153   9.939 -0.1291 -0.0093 -0.0202
13828W        W56745  18.426  15.751  10.305 -0.1027 -0.0393 -0.0326
13829W        W56746  19.974  16.159  11.107 -0.3599  0.0087  0.2169
13830W        W56747  18.303  14.271   7.005 -0.1704  0.0686 -0.0936
13831W        W56748  20.268  15.575   9.184 -0.1341  0.0574  0.0123
13832W        W56749  18.833  16.467   5.883  0.1279 -0.3188 -0.1722
13833W        W56750  17.244  17.441   7.802 -0.2102  0.1914  0.0989
13834W        W56751  18.609  16.769   8.893 -0.1592 -0.1551  0.0001
13835W        W56752  19.850  13.612  10.861 -0.1213  0.1439 -0.1663
13836W        W56753  21.311  17.760   9.666 -0.0368 -0.1069  0.2138
13837W        W56754  17.542  15.697   9.448  0.1827  0.1216  0.0312
13838W        W56755  18.527  16.386   7.926  0.0688  0.2120 -0.2802
13839W        W56756  19.621  17.427  10.867  0.1471  0.0293 -0.1300
13840W        W56757  19.850  16.091   9.815  0.0480  0.2255  0.3131
13841W        W56758  19.498  16.014   7.432 -0.3218  0.0855  0.2412
13842W        W56759  20.067  18.015   8.311 -0.0088  0.1246 -0.0756
13843W        W56760  16.829  16.799  10.140  0.1396 -0.2028 -0.5162
13844W        W56761  20.907  16.973   9.771 -0.1153 -0.0144 -0.2531
13845W        W56762  21.513  14.856   7.068  0.2896  0.2286 -0.0068
13846W        W56763  19.293  14.328   6.362  0.2412  0.0053 -0.0688
13847W        W56764  18.370  14.556   9.031  0.2600  0.1088 -0.4239
13848W        W56765  19.678  16.688   6.206 -0.2847  0.0044 -0.1895
13849W        W56766  15.870  13.943  10.814 -0.0272 -0.2977 -0.0280
13850W        W56767  19.814  17.045  10.439 -0.1829 -0.0331 -0.0416
13851W        W56768  23.175  14.021   8.625 -0.0092 -0.0774 -0.1464
13852W        W56769  18.451  14.521  10.446 -0.2731 -0.1490  0.0178
13853W        W56770  18.864  15.592   8.238  0.1347  0.2497 -0.0351
13854W        W56771  20.345  13.826   6.436 -0.1845  0.1910  0.0512
13855W        W56772  21.951  17.094   7.247 -0.3436  0.1358 -0.1792
13856W        W56773  18.947  14.099   8.789 -0.0643 -0.1726 -0.2340
13857W        W56774  21.669  13.685   5.482  0.4312 -0.1121  0.0327
13858W        W56775  19.902  16.385   9.043  0.2252  0.0863  0.0144
13859W        W56776  19.230  15.163   8.254  0.0837  0.0652 -0.0483
13860W        W56777  20.585  14.190   7.190 -0.0550  0.2219  0.0654
13861W        W56778  21.416  17.763   6.644 -0.0523  0.0707  0.0487
13862W        W56779  16.851  18.571   9.996  0.1251  0.0125  0.0333
13863W        W56780  19.350  16.376   7.763 -0.2757 -0.1918 -0.3418
13864W        W56781  19.809  13.703   9.887 -0.0050 -0.0003 -0.0948
13865W        W56782  20.176  15.316   7.090  0.1083 -0.1647 -0.0834
13866W        W56783  21.132  15.239  10.167  0.0868  0.2311 -0.1497
13867W        W56784  18.412  18.450   7.101 -0.1582  0.0762 -0.0754
13868W        W56785  18.476  14.325   8.274  0.5880 -0.1933 -0.1308
13869W        W56786  21.248  14.162   8.766  0.2897 -0.3808 -0.0012
13870W        W56787  21.876  15.672   8.398  0.1350 -0.1003 -0.0712
13871W        W56788  19.542  15.596   9.640 -0.2417 -0.1863 -0.2100
13872W        W56789  19.133  18.103   8.288 -0.3992 -0.0463  0.0942
13873W        W56790  20.082  15.086   9.377  0.0148  0.4432  0.0876
13874W        W56791  19.065  19.369   9.470  0.1030 -0.2976  0.0735
13875W        W56792  19.696  16.641  10.816 -0.0020 -0.1065 -0.0730
13876W        W56793  19.604  15.612  10.243 -0.0184 -0.0071  0.0251
13877W        W56794  20.133  17.320   9.820  0.0627  0.0964 -0.4079
13878W        W56795  18.683  18.163   7.999  0.0129  0.0207  0.0338
13879W        W56796  20.076  14.879   9.840  0.3309 -0.3197  0.1612
13880W        W56797  20.642  16.102  10.227 -0.1501  0.0711  0.1659
13881W        W56798  17.315  18.184   6.140 -0.2353 -0.0049 -0.2797
13882W        W56799  17.793  15.801   8.198 -0.1265 -0.3276  0.2032
13883W        W56800  18.802  16.853   8.445  0.0970 -0.1070 -0.0411
13884W        W56801  20.967  14.899   9.256  0.1040  0.0532  0.0204
13885W        W56802  20.398  18.685  10.783 -0.2043 -0.1819 -0.0710
13886W        W56803  19.303  15.892   6.991  0.3889 -0.3308  0.1975
13887W        W56804  17.517  16.156   9.558  0.0903 -0.0653  0.1641
13888W        W56805  21.513  14.026   7.928 -0.0113 -0.0769  0.2393
13889W        W56806  19.709  14.403   6.643  0.5888 -0.0748  0.3052
13890W        W56807  19.322  12.512  10.359  0.0003 -0.3259 -0.3988
13891W        W56808  17.442  14.667  10.037 -0.2172 -0.0033 -0.0057
13892W        W56809  17.377  18.283   8.855 -0.0323 -0.0558  0.0562
13893W        W56810  20.233  15.617   7.672  0.0006  0.0613 -0.1270
13894W        W56811  17.676  16.230   8.520  0.1420  0.0457 -0.1779
13895W        W56812  23.528  17.095   9.566 -0.0312  0.1017  0.1795
13896W        W56813  17.511  15.142   8.755 -0.0722  0.2194  0.2250
13897W        W56814  18.797  18.098   9.091  0.2464 -0.0499  0.0835
13898W        W56815  19.058  15.021  10.885 -0.1092  0.1254 -0.1835
13899W        W56816  17.553  16.208   7.972  0.1316 -0.1224  0.0717
13900W        W56817  20.920  17.039   9.165 -0.2130  0.0725  0.2344
13901W        W56818  20.714  16.760   7.819 -0.0299 -0.0229 -0.3074
13902W        W56819  20.293  11.904  11.451  0.2463  0.1023  0.0150
13903W        W56820  18.849  16.106   8.219 -0.2300  0.1155 -0.0513
13904W        W56821  20.563  15.175   9.092 -0.3430 -0.2973 -0.0103
13905W        W56822  19.850  15.868  10.667  0.1362 -0.0751  0.3537
13906W        W56823  23.551  15.022   9.223 -0.1681 -0.1774 -0.0292
13907W        W56824  22.039  13.368   7.892  0.1030 -0.1458 -0.2245
13908W        W56825  19.576  18.214  11.299 -0.3134  0.0833 -0.2454
13909W        W56826  18.923  15.833   9.480 -0.0281 -0.1130  0.1444
13910W        W56827  21.626  17.333   9.693 -0.1270  0.1536  0.0306
13911W        W56828  20.549  16.739   9.516 -0.1008 -0.3176  0.0892
13912W        W56829  17.938  11.188  10.541 -0.0536 -0.1429  0.1642
13913W        W56830  20.047  15.859   8.823 -0.0815 -0.3099 -0.2620
13914W        W56831  19.760  15.532   9.185  0.1834  0.3197 -0.0082
13915W        W56832  17.544  17.368   8.327  0.3122  0.1478  0.1786
13916W        W56833  22.431  15.352   7.283 -0.1890  0.1294 -0.0984
13917W        W56834  21.252  16.763   6.075 -0.0734  0.0547 -0.1944
13918W        W56835  19.260  15.443   8.652 -0.0252  0.1235  0.2819
13919W        W56836  18.293  16.542   7.496 -0.2048 -0.0055  0.1921
13920W        W56837  20.900  14.545   9.601  0.0211 -0.1450  0.0595
13921W        W56838  20.580  15.503   8.694  0.0276  0.0398 -0.3369
13922W        W56839  21.134  13.949   9.763  0.1820  0.0657  0.1469
13923W        W56840  18.060  14.796   6.352 -0.3231  0.1325 -0.3475
13924W        W56841  16.094  20.141  10.478 -0.2388  0.1782 -0.0540
13925W        W56842  20.082  19.239   7.579  0.3949  0.1390  0.1356
13926W        W56843  19.424  16.256   6.262  0.1927 -0.0630 -0.0768
13927W        W56844  20.358  13.389  10.625 -0.1592  0.3925 -0.1917
13928W        W56845  18.230  16.027   8.233 -0.0165 -0.0076 -0.3223
13929W        W56846  19.141  15.917   7.833  0.0309  0.0288 -0.0545
13930W        W56847  21.224  15.742   9.427 -0.0631  0.1435  0.0897
13931W        W56848  20.642  18.298  11.102 -0.0808 -0.3009  0.0173
13932W        W56849  20.970  15.287   9.640 -0.1172  0.0652 -0.0691
13933W        W56850  21.368  13.827   8.352  0.2629 -0.2675 -0.1914
13934W        W56851  20.259  18.515   8.426  0.0418 -0.1456  0.3413
13935W        W56852  20.851  14.650   6.239 -0.5002 -0.0224 -0.1692
13936W        W56853  21.174  16.215   8.194  0.1341 -0.0288 -0.1756
13937W        W56854  19.375  18.011  10.836  0.0245  0.0407  0.3514
13938W        W56855  20.832  16.336   8.677 -0.3368 -0.1757 -0.1010
13939W        W56856  18.900  15.989  10.159 -0.0942  0.0891  0.1384
13940W        W56857  19.313  15.747   5.143 -0.2770  0.0286 -0.1676
13941W        W56858  19.369  18.936   6.676  0.1429  0.2683 -0.1749
13942W        W56859  19.435  17.348   9.050  0.1536  0.0377 -0.0029
13943W        W56860  20.439  13.887   8.658  0.2998  0.0270  0.0687
13944W        W56861  19.597  13.856   9.363  0.3339  0.1532  0.1185
13945W        W56862  17.999  16.229   7.789 -0.2956  0.1731 -0.0739
13946W        W56863  19.279  15.805  10.600  0.2701  0.2942  0.1464
13947W        W56864  20.067  16.219  10.368  0.0494 -0.0819 -0.0811
13948W        W56865  19.515  14.520   4.704 -0.1054  0.3009  0.1914
13949W        W56866  18.934  15.042   9.805 -0.0697  0.2643 -0.0910
13950W        W56867  20.592  14.805   8.127 -0.0385  0.0123 -0.5254
13951W        W56868  17.202  19.470   8.576  0.1309  0.0383 -0.0551
13952W        W56869  18.716  17.167  11.054  0.0059 -0.1556  0.0102
13953W        W56870  21.334  14.228  10.194 -0.2794  0.0571  0.0437
13954W        W56871  19.550  16.089  10.269  0.0317 -0.0808  0.0676
13955W        W56872  19.018  14.519   9.860  0.4545 -0.0110  0.0619
13956W        W56873  19.257  15.669   9.152  0.0075  0.0147 -0.1451
13957W        W56874  19.797  16.468   7.462 -0.1059 -0.0038  0.1623
13958W        W56875  18.283  13.758   9.755 -0.3096  0.0809 -0.1777
13959W        W56876  20.869  17.255   8.330 -0.1232  0.1542 -0.4875
13960W        W56877  20.217  13.502   8.458  0.0304  0.0849 -0.0681
13961W        W56878  19.595  18.002   6.828  0.2183 -0.1636 -0.0320
13962W        W56879  19.293  15.984   9.822 -0.1091  0.2548  0.0107
13963W        W56880  17.954  17.442   9.630 -0.1174 -0.2081 -0.2040
13964W        W56881  19.427  16.947   7.138 -0.3474  0.1533  0.1219
13965W        W56882  21.538  17.325   6.872  0.2691 -0.2234 -0.2130
13966W        W56883  21.009  16.398   9.750  0.1463  0.1361  0.1029
13967W        W56884  18.658  15.821   8.751  0.0054  0.3234  0.0276
13968W        W56885  17.200  18.159  10.561 -0.1133 -0.1062  0.0510
13969W        W56886  18.937  17.669   8.942 -0.0896 -0.0266 -0.0232
13970W        W56887  18.664  16.905   5.025 -0.0400 -0.1830 -0.1196
13971W        W56888  20.216  17.349  10.648 -0.0860  0.2902 -0.1110
13972W        W56889  20.329  15.400   5.624 -0.2686  0.4754 -0.0515
13973W        W56890  21.397  16.501   8.640 -0.1143  0.2197 -0.1295
13974W        W56891  19.211  13.524  10.168 -0.0587  0.2621  0.2238
13975W        W56892  17.875  17.025   9.906  0.0877 -0.0996  0.3936
13976W        W56893  18.642  13.877  10.763  0.1638 -0.2740 -0.2019
13977W        W56894  20.516  16.989   7.433 -0.3324 -0.0331 -0.2595
13978W        W56895  19.229  15.274   9.414  0.0522 -0.0526 -0.0807
13979W        W56896  20.094  14.791   8.011 -0.2900  0.2807 -0.0014
13980W        W56897  21.121  13.713   7.893 -0.0929 -0.0665 -0.0580
13981W        W56898  18.517  17.537   6.127  0.0642 -0.0051  0.1090
13982W        W56899  19.625  16.979   9.341 -0.0954  0.0619  0.2220
13983W        W56900  18.630  18.233  11.179  0.2486 -0.0588 -0.0164
13984W        W56901  20.642  18.215   8.695 -0.3486 -0.0403  0.0131
13985W        W56902  21.433  16.515  10.025 -0.2596 -0.0119 -0.2108
13986W        W56903  17.217  15.148   7.085  0.1202  0.2356  0.0677
13987W        W56904  21.606  16.480   8.173  0.4016  0.0374 -0.1157
13988W        W56905  20.725  19.494   9.923  0.0539  0.1062 -0.2062
13989W        W56906  18.518  16.403   6.600 -0.1241 -0.0211 -0.0825
13990W        W56907  21.112  16.230  10.286 -0.0797 -0.1391 -0.5277
13991W        W56908  21.251  15.594   6.307 -0.0062  0.1625 -0.0456
13992W        W56909  21.650  17.220   9.222 -0.2080 -0.3051 -0.0953
13993W        W56910  18.087  16.656   7.068  0.4303  0.3447 -0.1823
13994W        W56911  17.539  16.427   6.821 -0.0051 -0.2708  0.0295
13995W        W56912  17.818  15.530   8.991 -0.0721 -0.1215 -0.0316
13996W        W56913  20.636  13.459   8.065  0.2687 -0.0440  0.3472
13997W        W56914  17.296  17.282   6.349 -0.0159  0.0157  0.1545
13998W        W56915  17.644  15.174   9.336  0.3272  0.1266  0.2165
13999W        W56916  18.930  16.174   8.977 -0.2407  0.1134  0.0880
14000W        W56917  21.545  16.052   7.058  0.0766 -0.2225 -0.0778
14001W        W56918  20.867  15.549   9.132 -0.3214 -0.1668 -0.1974
14002W        W56919  19.324  16.261   8.258  0.2004 -0.0725 -0.3094
14003W        W56920  20.618  16.240   8.234  0.3633  0.3417  0.4096
14004W        W56921  21.638  17.364   8.721  0.0041  0.4856  0.0645
14005W        W56922  19.159  15.229  10.436  0.0957 -0.1065  0.2670
14006W        W56923  21.261  15.747   8.099  0.3404 -0.0217 -0.2842
14007W        W56924  21.933  16.222   8.451 -0.2036  0.1021 -0.0667
14008W        W56925  18.674  15.114   8.039 -0.1151  0.2144  0.1287
14009W        W56926  17.118  15.028   9.180 -0.2545 -0.1671  0.1666
14010W        W56927  19.942  17.818  10.621  0.0779  0.0016 -0.0293
14011W        W56928  23.035  14.909   7.680  0.0780 -0.3605 -0.2696
14012W        W56929  18.733  17.383   9.664  0.0736  0.1525 -0.1071
14013W        W56930  21.297  16.875   9.462 -0.1231 -0.2025 -0.1496
14014W        W56931  17.124  15.756   5.208 -0.1831 -0.3683  0.0229
14015W        W56932  18.729  17.413  10.174 -0.1279  0.0432  0.2440
14016W        W56933  19.617  17.253   8.586 -0.2760  0.1625  0.6031
14017W        W56934  23.009  14.903   8.594 -0.4552  0.5201 -0.4303
14018W        W56935  17.238  15.863   9.800 -0.0786 -0.0867 -0.1134
14019W        W56936  21.250  15.439   7.696 -0.1287  0.1516  0.3505
14020W        W56937  19.845  14.227   9.807  0.3417  0.0309  0.1294
14021W        W56938  22.099  14.046   7.177 -0.1674 -0.1793  0.1746
14022W        W56939  20.128  14.949   8.467 -0.2582 -0.2235 -0.1045
14023W        W56940  18.572  14.701   9.535 -0.5606 -0.1380  0.0767
14024W        W56941  18.106  18.789  10.507  0.0060 -0.1103  0.2081
14025W        W56942  18.995  16.574   8.080  0.0312  0.0709  0.3657
14026W        W56943  19.653  17.036   9.883  0.1803 -0.3343 -0.0944
14027W        W56944  21.517  14.837   8.957  0.1127  0.1362 -0.0115
14028W        W56945  19.228  14.979   8.985  0.1139 -0.2482  0.0707
14029W        W56946  20.254  15.797   7.134 -0.1510  0.0119  0.1027
14030W        W56947  18.469  10.664  10.283  0.3930 -0.1340 -0.0214
14031W        W56948  19.209  14.898   6.100 -0.0957  0.2789  0.0072
14032W        W56949  20.246  17.525  11.095  0.1747 -0.0512  0.1432
14033W        W56950  21.387  17.765   7.175 -0.0591 -0.0474  0.1431
14034W        W56951  20.245  15.180  10.504 -0.5459 -0.4476  0.1280
14035W        W56952  17.010  16.075   8.737  0.0783 -0.0657  0.0984
14036W        W56953  18.538  14.672   7.254  0.2362  0.1994  0.0110
14037W        W56954  18.682  14.978   9.128 -0.0642 -0.1143 -0.0691
14038W        W56955  19.532  17.676   6.049  0.4057  0.0033 -0.1944
14039W        W56956  16.212  17.801  10.236  0.2446 -0.0996 -0.0509
14040W        W56957  19.151  16.823   6.100  0.1448  0.0784  0.4040
14041W        W56958  21.451  17.890   8.588  0.0656 -0.3964 -0.0908
14042W        W56959  22.163  16.159   9.203 -0.1206  0.0995  0.0112
14043W        W56960  18.942  13.944  10.110 -0.2839  0.1029 -0.1369
14044W        W56961  21.862  17.671   8.353  0.0626 -0.1535 -0.0332
14045W        W56962  18.349  14.376   9.784 -0.1826  0.1567 -0.1892
14046W        W56963  20.897  14.802  10.008  0.2519 -0.0967 -0.0962
14047W        W56964  17.945  16.700   7.823 -0.1710  0.3912  0.1030
14048W        W56965  18.155  15.156   7.987 -0.1840 -0.0189 -0.3113
14049W        W56966  19.244  16.964   7.869  0.2059  0.0205 -0.4649
14050W        W56967  21.177  17.412   9.987  0.0434  0.2842  0.1747
14051W        W56968  18.506  17.470   5.569 -0.1063 -0.1768 -0.2269
14052W        W56969  20.901  16.073   9.236 -0.2536  0.1996 -0.2564
14053W        W56970  19.194  17.062  10.791  0.0478  0.0877 -0.0381
14054W        W56971  19.852  17.735   8.779  0.0442  0.2115 -0.1138
14055W        W56972  20.694  18.379   9.142 -0.1937 -0.2202  0.1747
14056W        W56973  18.455  14.104   8.784 -0.0749  0.2093 -0.0560
14057W        W56974  18.141  18.506   9.640 -0.1360  0.0262 -0.0714
14058W        W56975  17.151  16.093   6.940  0.1530 -0.0338 -0.1013
14059W        W56976  19.798  16.036   8.404  0.1781  0.0224 -0.3247
14060W        W56977  18.531  13.588   8.762  0.1086 -0.0726  0.0590
14061W        W56978  20.597  15.198   7.380  0.1143 -0.3239 -0.0883
14062W        W56979  21.798  16.782   9.778  0.2121  0.1340  0.3068
14063W        W56980  20.824  17.611   7.989 -0.2806  0.0393  0.0887
14064W        W56981  19.009  19.937   1.582 -0.5767  0.2182  0.2236
14065W        W56982  18.197  20.149  30.497  0.1816 -0.0981 -0.0158
14066W        W56983  19.555  17.481  29.935  0.1759 -0.0907  0.1345
14067W        W56984  20.071  17.215  30.187 -0.3606  0.2465  0.2153
14068W        W56985  16.259  20.877  30.042 -0.0754 -0.0663  0.0432
14069W        W56986  20.439  19.251  30.718  0.2736 -0.1066 -0.1451
14070W        W56987  18.792  18.881   2.412 -0.4181  0.0836 -0.1546
14071W        W56988  19.953  21.609   0.823 -0.1550 -0.0007  0.1700
14072W        W56989  20.885  21.723   1.323 -0.0265  0.1222 -0.0229
14073W        W56990  18.954  18.928  30.515  0.1701  0.0062  0.1501
14074W        W56991  19.367  17.638   3.752 -0.1470  0.2332 -0.1151
14075W        W56992  18.679  21.997  31.616 -0.0708 -0.0827 -0.0234
14076W        W56993  16.196  18.205  29.270 -0.1504  0.1770 -0.2377
14077W        W56994  17.070  19.155   0.587 -0.0082 -0.1252 -0.2964
14078W        W56995  18.545  20.249   1.095  0.2284 -0.1737  0.0243
14079W        W56996  17.739  20.237  30.173  0.2986 -0.2517  0.1596
14080W        W56997  17.543  20.151   1.362 -0.0562 -0.1278  0.0159
14081W        W56998  16.827  21.264  29.950  0.0271  0.3414 -0.0217
14082W        W56999  19.748  22.155  31.630 -0.1771 -0.0437  0.1803
14083W        W57000  17.407  18.551   1.707 -0.1618  0.3007 -0.3100
14084W        W57001  19.265  16.501   0.310 -0.0579 -0.3065  0.2240
14085W        W57002  20.417  21.428   0.629 -0.0874 -0.0742 -0.0734
14086W        W57003  19.005  19.447  29.283 -0.2439  0.4065  0.0243
14087W        W57004  15.812  19.367  29.810 -0.0438 -0.3075 -0.1502
14088W        W57005  18.015  19.401   0.335  0.1911 -0.0993 -0.0139
14089W        W57006  21.060  18.401   0.770 -0.2250  0.3480  0.1584
14090W        W57007  19.742  16.600   0.304 -0.1656 -0.0981 -0.2804
14091W        W57008  20.834  19.895  31.753 -0.1619  0.2132  0.0031
14092W        W57009  21.306  21.843   2.550  0.2201  0.0216  0.0120
14093W        W57010  17.429  16.999   1.886  0.0341  0.0728  0.1954
14094W        W57011  15.299  23.271  29.972 -0.0026 -0.0580  0.1592
14095W        W57012  19.366  19.960   0.286  0.0963 -0.0349 -0.1251
14096W        W57013  20.332  21.395   0.083  0.0316 -0.0819 -0.0029
14097W        W57014  22.172  21.300  31.626 -0.2757  0.2135  0.2270
14098W        W57015  21.700  20.641   1.209 -0.0552  0.0114  0.1449
14099W        W57016  19.210  23.340   2.338 -0.1579  0.1470  0.1127
14100W        W57017  16.496  19.927  28.296 -0.1726 -0.1371 -0.2804
14101W        W57018  20.141  21.913   2.722  0.0909  0.4190  0.0436
14102W        W57019  19.549  20.058   2.328 -0.1860 -0.2603 -0.2860
14103W        W57020  18.972  19.535   1.949 -0.1278 -0.1061  0.0892
14104W        W57021  18.939  19.697  28.646  0.0967  0.0967  0.2189
14105W        W57022  18.505  19.184  30.836  0.2377 -0.1837 -0.0926
14106W        W57023  17.594  19.483  31.032 -0.0771 -0.1275  0.1797
14107W        W57024  17.573  19.281   0.710  0.2288 -0.1437 -0.1051
14108W        W57025  19.236  21.637   0.000 -0.0847 -0.1686  0.1848
14109W        W57026  19.264  19.467   2.990 -0.0532  0.0057 -0.0223
14110W        W57027  16.803  19.773  30.580  0.0989 -0.0706  0.0289
14111W        W57028  19.091  17.939  30.795  0.1889 -0.4617  0.2440
14112W        W57029  18.568  18.633  29.733 -0.1432 -0.0870  0.0469
14113W        W57030  21.156  16.442  31.154 -0.0021  0.1350  0.0494
14114W        W57031  18.731  18.605  28.489 -0.3401 -0.0404 -0.0432
14115W        W57032  17.682  20.617   1.023 -0.1671 -0.2111 -0.0515
14116W        W57033  19.615  17.655   2.426  0.0664  0.2827  0.2195
14117W        W57034  19.505  20.922   1.410 -0.0311  0.0706 -0.0285
14118W        W57035  19.041  21.107   0.620  0.2489  0.3928 -0.0382
14119W        W57036  19.893  17.788   1.286  0.4562  0.2624  0.0597
14120W        W57037  17.094  20.642  31.151 -0.1915 -0.2117 -0.0997
14121W        W57038  18.174  19.523   1.351  0.0472  0.4067  0.2438
14122W        W57039  21.246  22.928  31.114 -0.1747  0.1189 -0.0352
14123W        W57040  19.329  20.231  31.729 -0.3674  0.0285 -0.1732
14124W        W57041  18.723  21.100  28.428 -0.3215  0.0671 -0.1596
14125W        W57042  16.562  19.970  30.154  0.2859  0.0611  0.1140
14126W        W57043  18.172  19.071   1.623 -0.1368 -0.1286  0.0635
14127W        W57044  16.487  20.965   1.570 -0.0160 -0.0284 -0.0065
14128W        W57045  16.828  16.572  29.173 -0.0469  0.2642 -0.1893
14129W        W57046  19.673  19.166   3.090 -0.0652 -0.2547  0.0185
14130W        W57047  20.189  19.316   2.955  0.4743  0.1810 -0.0187
14131W        W57048  20.312  17.252  29.045  0.2705  0.2098 -0.2983
14132W        W57049  19.249  18.925  31.536 -0.0819  0.3908  0.0576
14133W        W57050  20.924  20.025   0.279  0.2237 -0.0002  0.1686
14134W        W57051  19.530  19.006   0.357  0.0083 -0.0430  0.0161
14135W        W57052  19.450  18.005   1.163 -0.1802  0.1556 -0.2453
14136W        W57053  19.139  17.109   1.520  0.0977 -0.1674 -0.1288
14137W        W57054  18.179  20.923   0.178 -0.1693  0.1418 -0.1750
14138W        W57055  18.993  21.294  30.057 -0.0187  0.1534  0.1772
14139W        W57056  21.450  19.599   1.865 -0.1973  0.0437 -0.4939
14140W        W57057  19.449  19.715  29.944  0.3123 -0.1688 -0.2232
14141W        W57058  21.217  21.460   0.869  0.0917  0.3309  0.1469
14142W        W57059  18.057  18.712   2.457  0.1226 -0.0652 -0.2216
14143W        W57060  20.954  20.614   2.153  0.0891  0.3563  0.0925
14144W        W57061  16.283  20.404  28.133  0.1681  0.1901  0.3604
14145W        W57062  17.583  20.351  30.695  0.1945 -0.2854 -0.0965
14146W        W57063  17.684  18.767  30.982 -0.1778  0.0164 -0.0498
14147W        W57064  17.951  19.824   0.009  0.0055  0.0786 -0.1477
14148W        W57065  17.587  20.057  31.725  0.1137  0.2672 -0.5132
14149W        W57066  18.821  17.452  30.644 -0.2495  0.0123  0.3054
14150W        W57067  16.202  19.708   3.509 -0.2548 -0.1568 -0.0260
14151W        W57068  18.945  18.277   1.158 -0.1451  0.1963 -0.2158
14152W        W57069  18.757  22.536   0.986  0.0811  0.1337 -0.2616
14153W        W57070  19.972  20.462  30.114 -0.1964 -0.2420  0.0721
14154W        W57071  19.903  19.663  31.354  0.3095 -0.0983 -0.0029
14155W        W57072  20.435  21.334  31.070  0.0301 -0.0643 -0.0310
14156W        W57073  16.583  19.338   0.519  0.0673  0.1524  0.1837
14157W        W57074  17.098  20.072   0.093  0.0344 -0.2453 -0.1986
14158W        W57075  16.407  17.026   1.610 -0.2752 -0.1940 -0.1790
14159W        W57076  16.649  21.248  31.416 -0.0298 -0.0742  0.3153
14160W        W57077  18.643  18.112   1.564  0.3510  0.2133 -0.0091
14161W        W57078  16.291  19.584  30.633  0.3539 -0.3537  0.0003
14162W        W57079  19.572  17.209  30.315 -0.1613  0.4652 -0.1469
14163W        W57080  18.751  17.710  31.127  0.2244  0.2952 -0.0740
14164W        W57081  17.256  21.114  30.422 -0.4198 -0.6010 -0.0642
14165W        W57082  19.392  17.470   1.258 -0.3481  0.0911  0.0625
14166W        W57083  19.351  20.108  30.766 -0.0837  0.3500 -0.4714
14167W        W57084  21.638  20.998   3.135  0.0445  0.2694  0.0019
14168W        W57085  21.374  19.850   0.499  0.0746  0.0330  0.0246
14169W        W57086  17.404  19.204  30.426  0.0429  0.0170  0.0226
14170W        W57087  18.487  18.223  31.060 -0.0546 -0.2077  0.1740
14171W        W57088  18.623  21.014   0.419  0.0904  0.0629 -0.1773
14172W        W57089  17.673  19.747   2.088  0.1441 -0.1183  0.1330
14173W        W57090  18.239  19.962   0.586  0.0121 -0.0693  0.4224
14174W        W57091  20.397  20.104   0.512 -0.0455  0.1672  0.2834
14175W        W57092  17.828  20.144  31.225  0.2657 -0.2019  0.3843
14176W        W57093  18.696  20.535   2.472 -0.0601  0.0646  0.2606
14177W        W57094  19.185  17.559   1.685  0.0681  0.1894  0.0622
14178W        W57095  20.368  21.200   1.344  0.2085 -0.2272 -0.0288
14179W        W57096  19.227  17.084  30.689 -0.0320  0.1508  0.0086
14180W        W57097  18.065  17.180  29.127 -0.1415  0.0746  0.0258
14181W        W57098  20.171  21.592  31.456  0.0769 -0.1656 -0.0977
14182W        W57099  17.694  22.646  31.894 -0.3551  0.1785 -0.0152
14183W        W57100  18.751  19.433  30.434 -0.1979  0.4248  0.1487
14184W        W57101  19.529  21.230   0.710  0.0369 -0.0864 -0.0613
14185W        W57102  20.657  17.954  30.539  0.3838 -0.1284 -0.0628
14186W        W57103  17.193  19.578   2.877  0.3396 -0.5501 -0.1628
14187W        W57104  19.255  19.234   2.311  0.1090 -0.0443  0.0817
14188W        W57105  16.469  18.310  30.527 -0.0379 -0.1912 -0.3493
14189W        W57106  15.789  19.959  31.395  0.0922  0.1043  0.5435
14190W        W57107  17.992  17.353   0.691 -0.2435  0.1634 -0.0323
14191W        W57108  22.110  19.303  31.228  0.8284 -0.0372  0.1910
14192W        W57109  20.512  20.964   1.810  0.0484  0.0757  0.1578
14193W        W57110  20.125  20.304  31.270  0.1143  0.0043  0.0157
14194W        W57111  20.264  17.115  28.465 -0.1805  0.0768  0.0050
14195W        W57112  18.274  17.567  29.856 -0.1206 -0.0801  0.1113
14196W        W57113  16.971  20.183   0.608 -0.3025 -0.1188  0.3994
14197W        W57114  18.050  18.572   0.254 -0.2618 -0.0541  0.3210
14198W        W57115  21.085  19.900   1.077  0.3125 -0.1564  0.1071
14199W        W57116  18.448  16.535  26.704  0.3523  0.1980 -0.0299
14200W        W57117  21.405  18.120  31.194  0.0105  0.3895  0.2091
14201W        W57118  17.207  20.077  30.246  0.1815  0.0781 -0.1176
14202W        W57119  19.698  18.182   1.563 -0.0635 -0.0325  0.2107
14203W        W57120  19.118  20.380   0.173  0.0311 -0.1203  0.1782
14204W        W57121  18.463  16.723   2.252 -0.1711 -0.1584 -0.4150
14205W        W57122  17.585  18.583  29.290 -0.0830 -0.0972 -0.0024
14206W        W57123  18.449  17.511  29.306  0.1992  0.3644  0.1645
14207W        W57124  16.600  20.497  29.518  0.3515  0.0352 -0.1482
14208W        W57125  18.151  18.431  30.173  0.0707 -0.4873  0.0900
14209W        W57126  19.302  17.468  30.965 -0.2032  0.1314 -0.0285
14210W        W57127  16.989  18.160   2.203  0.0196  0.1422  0.2926
14211W        W57128  18.839  18.755   2.904 -0.2247  0.0020  0.2207
14212W        W57129  19.634  18.760  30.902  0.0149  0.2327 -0.3455
14213W        W57130  17.719  17.138   1.497  0.2092 -0.1598 -0.1846
14214W        W57131  15.604  21.161  27.613  0.0805  0.0221  0.2295
14215W        W57132  18.946  17.004   2.453  0.0414  0.2176 -0.0880
14216W        W57133  17.140  19.802   1.377 -0.1822  0.2754  0.4698
14217W        W57134  18.923  21.501   0.982  0.2735  0.3202  0.1228
14218W        W57135  21.371  21.388   2.781  0.2417 -0.0457 -0.1662
14219W        W57136  19.299  20.536   3.790 -0.0019 -0.0866  0.0337
14220W        W57137  17.601  19.307   2.456 -0.0997 -0.6454 -0.1826
14221W        W57138  18.733  17.794  29.702  0.0102 -0.2373  0.2273
14222W        W57139  16.042  19.578  31.146 -0.0557 -0.0733 -0.4840
14223W        W57140  18.273  19.428  28.075 -0.1079 -0.3155 -0.3862
14224W        W57141  20.545  19.622   0.271  0.1953  0.0331 -0.3261
14225W        W57142  19.067  20.397  31.073 -0.2753 -0.0576 -0.3719
14226W        W57143  18.671  18.945  28.932 -0.1263  0.1249  0.2344
14227W        W57144  20.129  21.495   1.748  0.2904  0.0708  0.0989
14228W        W57145  20.199  21.365  30.552 -0.1830  0.1006 -0.0616
14229W        W57146  21.965  19.303  31.959 -0.3416  0.1744  0.3782
14230W        W57147  17.792  22.225   1.535 -0.0732  0.0875  0.0310
14231W        W57148  16.655  20.219  30.694 -0.2904 -0.0428  0.2356
14232W        W57149  17.325  19.778  30.732 -0.0622 -0.1098  0.3117
14233W        W57150  19.745  18.201  31.868 -0.1042 -0.0604 -0.0333
14234W        W57151  19.325  18.300  31.607  0.1523 -0.2178  0.1840
14235W        W57152  18.394  19.543   1.818  0.1542  0.0605 -0.1122
14236W        W57153  19.425  18.988   0.816  0.0203  0.3141  0.0558
14237W        W57154  18.469  21.540   0.799  0.3146  0.2711 -0.1048
14238W        W57155  19.838  18.872   2.716 -0.3052 -0.1457  0.0856
14239W        W57156  20.638  16.909  28.131  0.1233 -0.0515  0.2087
14240W        W57157  20.471  18.615   1.148  0.1134  0.0831 -0.0039
14241W        W57158  17.569  21.079   0.779 -0.0145  0.1920  0.0481
14242W        W57159  18.912  20.318  30.564 -0.3121  0.1559 -0.0007
14243W        W57160  20.194  18.220   0.368 -0.0480  0.2043  0.1855
14244W        W57161  18.805  18.317   0.577  0.0678  0.0973 -0.2469
14245W        W57162  19.339  21.208   0.204 -0.1607  0.2646 -0.1525
14246W        W57163  20.043  21.821   5.148  0.1372  0.0207 -0.1989
14247W        W57164  17.139  19.437  29.595 -0.0778  0.4391 -0.1642
14248W        W57165  16.137  21.048  31.326  0.2236  0.0505  0.1322
14249W        W57166  17.533  18.441   2.188  0.1317  0.0483 -0.0378
14250W        W57167  19.260  18.979   2.756 -0.1502  0.0408 -0.2565
14251W        W57168  18.844  18.484   2.078  0.1420 -0.0102  0.0090
14252W        W57169  17.149  18.707  31.318  0.0252  0.1111  0.1269
14253W        W57170  19.012  19.196   0.459  0.1923  0.2080 -0.0034
14254W        W57171  19.626  19.378   2.660 -0.2763 -0.1187 -0.2258
14255W        W57172  20.021  17.406   1.616  0.4091 -0.2950 -0.4453
14256W        W57173  19.630  20.237   3.480 -0.1259  0.2410 -0.0253
14257W        W57174  17.424  19.054   1.629  0.0818 -0.0288  0.0238
14258W        W57175  20.893  20.732  31.631 -0.3074 -0.0296  0.1866
14259W        W57176  19.311  19.670   0.798  0.3334 -0.3531  0.2147
14260W        W57177  17.803  19.130  31.338  0.0087  0.0607  0.1933
14261W        W57178  16.545  20.019  31.376  0.2140  0.2352 -0.0843
14262W        W57179  19.688  19.278  31.953 -0.1076  0.1196 -0.0615
14263W        W57180  17.888  17.661   2.438  0.0652  0.0509  0.2716
14264W        W57181  17.926  20.524  31.830  0.1278  0.2144 -0.2099
14265W        W57182  18.936  19.908  31.805  0.0112 -0.4830  0.2732
14266W        W57183  17.775  20.668  31.286  0.0961 -0.1308 -0.0206
14267W        W57184  19.197  16.282   1.466 -0.1462  0.1055  0.1504
14268W        W57185  19.577  19.649   2.053 -0.5422  0.0921 -0.1616
14269W        W57186  17.755  18.953   0.333 -0.1063 -0.3222  0.2351
14270W        W57187  19.999  18.924   4.151  0.0014 -0.2967  0.1999
14271W        W57188  18.918  19.918  31.115  0.1649  0.0090 -0.3627
14272W        W57189  18.824  16.641   2.730 -0.1707 -0.0157  0.1936
14273W        W57190  17.403  18.079   0.334 -0.2626  0.0283 -0.1525
14274W        W57191  19.128  17.824  31.882 -0.0649 -0.3184  0.3393
14275W        W57192  15.489  21.317   1.792  0.0053  0.0062  0.1394
14276W        W57193  18.489  22.484   2.318 -0.1484  0.0489 -0.1446
14277W        W57194  19.552  19.906   1.178  0.1546  0.0802  0.0103
14278W        W57195  17.375  16.511   0.262  0.2368  0.0726  0.0333
14279W        W57196  17.338  17.788  30.843  0.0449 -0.0133  0.0229
14280W        W57197  20.899  20.758   1.151  0.3121  0.0055 -0.0216
14281W        W57198  19.142  18.619   0.535 -0.4270 -0.0217 -0.0663
14282W        W57199  19.473  20.828  31.453  0.0753  0.0950 -0.1582
14283W        W57200  20.429  20.072  29.826  0.1768 -0.1407 -0.1438
14284W        W57201  16.898  19.544   0.095  0.2271 -0.0959 -0.0127
14285W        W57202  21.504  18.537  30.299  0.0589 -0.3519 -0.1138
14286W        W57203  19.566  19.323  31.476 -0.1734 -0.1876  0.3545
14287W        W57204  16.621  19.925  31.874 -0.1026 -0.0243 -0.3787
14288W        W57205  18.166  18.119   2.716 -0.0857 -0.0742 -0.0952
14289W        W57206  18.142  18.630  31.195  0.1110 -0.3826 -0.2441
14290W        W57207  18.917  17.197  28.478 -0.1447 -0.0066 -0.0891
14291W        W57208  20.260  18.126   1.282 -0.0310  0.0602  0.4120
14292W        W57209  18.572  19.058   1.363  0.1309  0.0551  0.1103
14293W        W57210  18.519  19.209   0.948 -0.1722 -0.3526  0.1730
14294W        W57211  18.821  17.921   1.988 -0.1964 -0.2822 -0.1003
14295W        W57212  20.349  23.158   1.622 -0.2519  0.0478 -0.2531
14296W        W57213  22.374  18.612  30.799 -0.1993 -0.0029  0.0144
14297W        W57214  18.812  19.399  31.175  0.0403  0.3290  0.1369
14298W        W57215  20.178  18.139  29.866  0.0054 -0.0675 -0.1468
14299W        W57216  18.530  18.079  30.044  0.0283  0.0633  0.0202
14300W        W57217  16.420  20.411  29.959  0.1653 -0.2372 -0.4102
14301W        W57218  19.137  16.974   0.763 -0.1520  0.0376 -0.1799
14302W        W57219  17.000  19.905  29.292 -0.0581 -0.1920 -0.2291
14303W        W57220  20.367  15.988   1.640 -0.1127  0.2937 -0.3458
14304W        W57221  19.415  19.489   0.353 -0.0053 -0.2191  0.1509
14305W        W57222  20.286  21.977   1.678  0.3099  0.0422 -0.0566
14306W        W57223  18.367  17.619   0.421 -0.3594  0.0633 -0.0072
14307W        W57224  19.659  18.530   0.636  0.0995  0.2604 -0.0846
14308W        W57225  20.607  20.966   2.365  0.2535  0.0327 -0.1062
14309W        W57226  17.857  22.094  29.204 -0.0704  0.3481 -0.1444
14310W        W57227  18.815  19.023  29.447  0.2147 -0.0937 -0.2862
14311W        W57228  19.165  17.548   2.189  0.0033 -0.3675  0.0432
14312W        W57229  19.704  18.536  31.348 -0.1400  0.2930  0.3792
14313W        W57230  20.382  17.607  30.844 -0.0479 -0.2679 -0.3861
14314W        W57231  19.098  19.117   3.226 -0.1969  0.0596 -0.0681
14315W        W57232  16.810  19.746  29.824  0.1587  0.0845 -0.0448
14316W        W57233  17.751  17.650   0.422 -0.1570  0.0606  0.1026
14317W        W57234  18.006  21.272  31.856 -0.0641 -0.2444 -0.0649
14318W        W57235  16.641  20.789   0.384 -0.0468 -0.3271  0.1981
14319W        W57236  21.305  20.355   2.428  0.1179  0.2031 -0.2156
14320W        W57237  19.050  19.276   0.993 -0.1218  0.2352 -0.0690
14321W        W57238  20.401  18.570   0.007 -0.1293 -0.1828  0.0367
14322W        W57239  18.990  20.043   1.004 -0.2949 -0.0138  0.0660
14323W        W57240  20.148  17.689   3.347  0.2755  0.3026 -0.2388
14324W        W57241  20.129  21.085   2.271  0.0320 -0.1912 -0.0216
14325W        W57242  18.239  20.439  31.293  0.0462 -0.3568 -0.0121
14326W        W57243  19.488  21.561   1.093 -0.0712  0.0848 -0.0816
14327W        W57244  20.395  17.752  31.290  0.0430 -0.2808 -0.1847
14328W        W57245  16.009  21.502  30.638 -0.3341 -0.1598 -0.0092
14329W        W57246  17.856  19.606   5.040  0.2081 -0.0919 -0.0919
14330W        W57247  19.912  19.676   2.973  0.1044  0.0899  0.0390
14331W        W57248  19.167  20.823  30.777  0.1735  0.0263 -0.2019
14332W        W57249  19.324  18.545  30.555  0.2194  0.1292  0.0825
14333W        W57250  19.046  20.038  29.878 -0.1051 -0.1290  0.0876
14334W        W57251  17.448  21.224   3.220  0.0752  0.0599  0.1311
14335W        W57252  16.386  20.836  31.789 -0.0229 -0.2640  0.2199
14336W        W57253  20.087  21.984  31.206 -0.1701 -0.1248  0.3714
14337W        W57254  20.031  19.835  30.086 -0.3020  0.0861  0.1542
14338W        W57255  20.107  20.535   0.566  0.0202  0.1820  0.1494
14339W        W57256  19.047  21.876   1.303  0.1054  0.0137 -0.0634
14340W        W57257  18.478  20.157  26.574 -0.1861 -0.2343 -0.0853
14341W        W57258  18.085  20.103   1.209 -0.4506 -0.0192 -0.3231
14342W        W57259  17.333  22.137  29.662 -0.0156 -0.3626 -0.1315
14343W        W57260  20.976  18.340  30.348 -0.3763  0.0058 -0.2214
14344W        W57261  19.329  20.707   0.553  0.0918  0.1349 -0.0386
14345W        W57262  19.255  17.666   0.781  0.1601 -0.2006 -0.2652
14346W        W57263  21.446  18.150  30.682 -0.0272  0.1469 -0.2377
14347W        W57264  19.460  18.045  31.134 -0.1793  0.1534  0.2039
14348W        W57265  22.209  16.963  30.766  0.3888  0.1101 -0.0844
14349W        W57266  19.592  22.513   3.705  0.1194  0.1413 -0.0612
14350W        W57267  18.771  20.162   0.516  0.1020  0.0985 -0.2212
14351W        W57268  17.544  19.324  29.908  0.0760  0.4466  0.4010
14352W        W57269  18.910  20.936   1.555  0.1666 -0.0364 -0.0028
14353W        W57270  20.149  19.021   3.319  0.3370  0.1361  0.2178
14354W        W57271  18.726  20.388   1.537  0.0187 -0.0493 -0.0230
14355W        W57272  19.886  21.707  29.582 -0.3798  0.1184 -0.2697
14356W        W57273  14.670  19.351  30.998 -0.0306  0.1164  0.0541
14357W        W57274  17.867  20.257   0.658 -0.0418  0.0401 -0.0405
14358W        W57275  20.468  17.697   1.448  0.1585 -0.2001 -0.2985
14359W        W57276  18.284  18.765  28.593 -0.2889 -0.2236 -0.0441
14360W        W57277  23.165  18.679   0.109 -0.0325  0.2700  0.0451
14361W        W57278  19.751  20.298   0.254  0.1042 -0.3658 -0.2055
14362W        W57279  20.320  20.532   2.176 -0.3836  0.0889 -0.3013
14363W        W57280  19.140  22.143   1.786 -0.2224 -0.1021  0.0103
14364W        W57281  17.787  20.112  29.701  0.2221 -0.1120 -0.2658
14365W        W57282  19.041  19.809  30.315  0.2826  0.1468 -0.3865
14366W        W57283  17.255  19.347   1.990 -0.5635  0.1718  0.1071
14367W        W57284  18.469  17.924  31.505 -0.0891 -0.0025  0.0746
14368W        W57285  17.334  18.428  30.900  0.2703 -0.0831  0.3223
14369W        W57286  21.417  16.723  29.583  0.0150 -0.0296  0.0864
14370W        W57287  18.133  19.510   0.801 -0.2160 -0.1335  0.0838
14371W        W57288  17.516  18.907   2.108 -0.1000 -0.1928  0.2185
14372W        W57289  19.117  18.563  26.931 -0.0643  0.0243  0.1257
14373W        W57290  17.961  19.859   1.723  0.1510 -0.0520 -0.2556
14374W        W57291  20.269  19.394  30.225 -0.3228 -0.1129 -0.0242
14375W        W57292  18.598  21.424   1.404 -0.3439 -0.2063 -0.0401
14376W        W57293  17.048  18.204  31.243  0.4858  0.1748 -0.2836
14377W        W57294  18.760  18.849  31.148 -0.2555  0.0491 -0.0082
14378W        W57295  18.076  20.459  30.837  0.3828 -0.0723  0.0889
14379W        W57296  17.717  20.238   2.367  0.2891  0.2308 -0.3516
14380W        W57297  19.934  19.744   2.451 -0.0276  0.2261 -0.1113
14381W        W57298  19.927  19.151  30.926 -0.1233  0.2074 -0.1669
14382W        W57299  20.692  20.990   0.108 -0.0834  0.1025  0.1080
14383W        W57300  20.149  20.388   0.060 -0.3176  0.2868 -0.0464
14384W        W57301  20.368  19.947  31.923 -0.2512 -0.1630 -0.1831
14385W        W57302  18.960  18.847   0.091 -0.2649 -0.1285  0.0776
14386W        W57303  20.328  22.692   1.270  0.0705 -0.3815  0.0572
14387W        W57304  17.023  20.774  29.552  0.1107 -0.0713 -0.3237
14388W        W57305  17.769  19.590  31.489  0.1337  0.0456  0.1622
14389W        W57306  19.293  19.493   1.310  0.3245  0.0317  0.1118
14390W        W57307  19.858  17.192  28.186 -0.1753 -0.1750  0.1877
14391W        W57308  17.817  18.263   1.263 -0.2791  0.2797  0.0998
14392W        W57309  17.789  21.393  30.817 -0.1302  0.1949 -0.1286
14393W        W57310  21.596  19.170   0.864  0.2420  0.3332  0.1699
14394W        W57311  19.934  20.111  31.695 -0.3490  0.2141 -0.0580
14395W        W57312  19.715  21.259  31.200  0.0896 -0.0535 -0.0074
14396W        W57313  19.996  18.750   2.244  0.2860 -0.2350 -0.1008
14397W        W57314  20.064  19.540   1.975  0.2066  0.1047  0.2775
14398W        W57315  17.803  19.739   1.085 -0.0604  0.1454  0.0749
14399W        W57316  18.825  19.019  29.951 -0.0834  0.2440 -0.0927
14400W        W57317  18.634  21.070   0.997 -0.0849 -0.1081 -0.1804
14401W        W57318  19.840  19.668   0.754 -0.1044  0.0789 -0.0555
14402W        W57319  19.200  21.083   1.054 -0.4175  0.0798  0.2175
14403W        W57320  19.072  19.496  31.536 -0.0464 -0.0123  0.0306
14404W        W57321  18.276  19.632  30.563  0.0581  0.1396  0.0572
14405W        W57322  21.404  22.407   2.382 -0.1857  0.2385  0.1878
14406W        W57323  17.686  19.740   0.596  0.0892 -0.0307  0.3106
14407W        W57324  22.128  16.860  30.255 -0.0242 -0.2509 -0.1050
14408W        W57325  21.350  18.254  31.723 -0.1855 -0.1221 -0.1064
14409W        W57326  17.156  19.686   0.506  0.0393 -0.1497  0.2491
14410W        W57327  16.846  18.786  29.582 -0.3450 -0.2003 -0.4068
14411W        W57328  15.555  21.567  30.096  0.0283  0.1629  0.0105
14412W        W57329  15.047  19.602  31.230 -0.2683  0.0616 -0.1978
14413W        W57330  17.599  18.338   2.979 -0.1023 -0.4330  0.3247
14414W        W57331  17.126  20.624   2.427 -0.2229 -0.2125 -0.0805
14415W        W57332  18.139  20.888  31.554 -0.0024 -0.1774  0.1031
14416W        W57333  16.756  19.371  30.197  0.0780 -0.2158 -0.1676
14417W        W57334  19.803  19.960  30.937 -0.2073  0.0663 -0.1197
14418W        W57335  18.279  18.980  29.870 -0.2706 -0.0032  0.0846
14419W        W57336  17.864  19.831  30.811 -0.1550 -0.1456 -0.2025
14420W        W57337  19.927  19.514  30.591  0.2704 -0.0291  0.5052
14421W        W57338  20.421  19.882  30.331  0.3909 -0.1166  0.1621
14422W        W57339  17.693  18.038  31.859 -0.0526  0.2498  0.1200
14423W        W57340  21.522  21.538   3.936  0.0658 -0.0426  0.0840
14424W        W57341  18.746  21.027  27.329  0.0260  0.0135  0.0637
14425W        W57342  18.636  19.339   2.246 -0.0511  0.3520 -0.1879
14426W        W57343  18.212  19.488  31.246 -0.0120  0.3109 -0.0805
14427W        W57344  16.453  20.763  28.554 -0.1256  0.3208  0.1138
14428W        W57345  18.263  18.940  29.258 -0.1831  0.2998 -0.1189
14429W        W57346  22.026  20.285  30.857  0.0815 -0.3093  0.1792
14430W        W57347  19.486  20.260  29.685  0.1126 -0.0457 -0.0259
14431W        W57348  18.494  20.609  31.819  0.1015 -0.0253  0.1231
14432W        W57349  19.030  20.769   2.728 -0.2813  0.0571  0.1141
14433W        W57350  16.909  18.612  31.728 -0.1078  0.0837  0.2713
14434W        W57351  19.106  19.535  30.788 -0.0922 -0.2665  0.1329
14435W        W57352  19.751  19.135   2.081 -0.3611  0.0012 -0.0431
14436W        W57353  18.597  18.523  30.278  0.0350  0.1854 -0.1440
14437W        W57354  20.440  17.615   1.974  0.0430 -0.0041 -0.0117
14438W        W57355  18.499  21.234  31.906 -0.4666 -0.2287 -0.2123
14439W        W57356  16.291  18.402   4.950 -0.1604  0.1600 -0.2984
14440W        W57357  18.514  20.956   3.479  0.1395 -0.2872  0.3874
14441W        W57358  19.918  19.015  31.606 -0.2961 -0.2779 -0.0853
14442W        W57359  17.673  18.200   0.787  0.1043 -0.2196 -0.0741
14443W        W57360  19.528  16.539  28.767 -0.0660 -0.2062  0.1076
14444W        W57361  20.711  20.274  31.250  0.0915 -0.0773 -0.0231
14445W        W57362  17.198  19.167   0.111  0.1388 -0.3244  0.2900
14446W        W57363  18.387  19.064  30.352  0.1685 -0.0535  0.0423
14447W        W57364  18.593  19.795   2.414 -0.2471 -0.0203  0.0375
14448W        W57365  19.204  20.541   1.147  0.0499 -0.2894  0.0723
14449W        W57366  18.696  18.682   0.910  0.2805  0.4792  0.1135
14450W        W57367  17.190  20.212  30.961  0.0298  0.1581  0.2671
14451W        W57368  21.234  20.050  31.394  0.0581 -0.1572 -0.0812
14452W        W57369  18.300  20.955   1.369 -0.1694  0.1274  0.1104
14453W        W57370  20.622  21.587   1.726  0.1812  0.0083 -0.1707
14454W        W57371  20.413  18.589   3.340 -0.0599  0.3142  0.2599
14455W        W57372  18.538  18.940   0.489 -0.1903 -0.1533 -0.0926
14456W        W57373  18.964  18.957   1.982  0.1320  0.0401  0.3540
14457W        W57374  18.381  18.078   0.525 -0.3035 -0.3251 -0.0940
14458W        W57375  19.240  19.126  31.086 -0.0410 -0.1349  0.0148
14459W        W57376  21.466  18.323   1.247  0.1200 -0.0078  0.2493
14460W        W57377  17.354  17.589   0.719 -0.2110  0.0338  0.1073
14461W        W57378  20.197  18.130  27.929  0.1783 -0.2907  0.0517
14462W        W57379  18.981  20.971   3.212  0.3195 -0.2090 -0.1730
14463W        W57380  19.630  20.431   1.982  0.0923  0.0763 -0.1259
14464W        W57381  16.269  20.299   6.462 -0.0679 -0.1301 -0.0661
14465W        W57382  18.601  19.102   6.559 -0.1401 -0.1524 -0.0778
14466W        W57383  19.761  18.398   2.912 -0.0032 -0.1021  0.2854
14467W        W57384  21.287  19.982   3.950  0.2557  0.0698 -0.1008
14468W        W57385  19.469  18.767   2.379 -0.2993  0.2311 -0.1242
14469W        W57386  18.992  19.149   4.332  0.0558  0.0908  0.0728
14470W        W57387  18.610  19.402   6.935 -0.2314  0.1538  0.0194
14471W        W57388  19.370  20.297   6.239  0.1461 -0.0609 -0.3324
14472W        W57389  21.651  19.179   6.421  0.1420 -0.0142 -0.2759
14473W        W57390  21.121  16.994   2.018  0.0684  0.1529 -0.3072
14474W        W57391  17.738  18.754   3.288  0.3524  0.1243  0.1846
14475W        W57392  18.549  19.532   3.916  0.4080  0.0662 -0.4988
14476W        W57393  17.222  17.625   2.406 -0.1842  0.4344 -0.1319
14477W        W57394  16.421  18.374   5.724  0.0589 -0.0452 -0.0312
14478W        W57395  19.218  20.082   4.163  0.0159  0.0318 -0.1763
14479W        W57396  19.245  20.626   2.277 -0.0482  0.0745  0.1008
14480W        W57397  17.772  17.166   5.596  0.2264  0.1837  0.4313
14481W        W57398  16.949  19.164   3.372  0.0524  0.1224  0.0734
14482W        W57399  19.165  21.410   1.438 -0.0503  0.3999 -0.2240
14483W        W57400  19.539  19.560   7.471  0.0369  0.3063 -0.0065
14484W        W57401  18.814  18.602   5.180 -0.2258  0.2291 -0.3585
14485W        W57402  18.262  21.540   5.253 -0.0242  0.1266 -0.0545
14486W        W57403  20.470  19.819   1.800 -0.0253  0.1087  0.0361
14487W        W57404  17.328  18.665   4.497  0.0136  0.0159  0.3038
14488W        W57405  19.616  20.160   4.536 -0.1635 -0.1661 -0.1333
14489W        W57406  20.458  17.924   7.137 -0.3026  0.2509 -0.0671
14490W        W57407  19.752  16.680   6.835  0.0925  0.0673 -0.2428
14491W        W57408  17.703  20.557   5.766 -0.1066 -0.1489 -0.0338
14492W        W57409  19.434  19.646   4.436 -0.1209  0.3364  0.1980
14493W        W57410  20.569  19.382   6.011  0.0535 -0.0032 -0.0268
14494W        W57411  17.793  22.144   4.004  0.1508 -0.2034  0.1051
14495W        W57412  17.381  21.782   5.635  0.0760 -0.1192  0.1020
14496W        W57413  18.419  20.949   2.234 -0.0046 -0.1216  0.3019
14497W        W57414  20.381  18.884   2.772 -0.4955 -0.2332  0.2235
14498W        W57415  20.540  20.238   4.973 -0.0396  0.0552 -0.0232
14499W        W57416  19.872  21.118   7.503  0.5182 -0.1369  0.2935
14500W        W57417  18.685  20.118   1.979  0.0553  0.0495 -0.1978
14501W        W57418  19.516  20.241   7.549 -0.0171 -0.3682 -0.2476
14502W        W57419  20.600  20.244   6.458  0.3631  0.1780 -0.0446
14503W        W57420  20.063  19.828   4.226 -0.2548  0.0715  0.2740
14504W        W57421  18.391  19.046   2.725  0.1989 -0.0152  0.2474
14505W        W57422  20.215  19.299   2.384  0.0635  0.3733 -0.4002
14506W        W57423  20.489  21.945   4.877  0.1957 -0.1863  0.1986
14507W        W57424  18.559  19.502   5.630  0.0729 -0.1117 -0.3421
14508W        W57425  17.718  21.155   5.066  0.1253  0.1600 -0.0294
14509W        W57426  19.605  18.466  10.756  0.1312 -0.0514  0.2325
14510W        W57427  19.915  21.582   3.032  0.2380  0.1863  0.3307
14511W        W57428  19.528  16.218   3.207 -0.2102 -0.3180  0.0078
14512W        W57429  18.279  20.449   2.153  0.0365 -0.1524  0.1359
14513W        W57430  17.245  17.905   2.975  0.0484 -0.0227  0.0904
14514W        W57431  17.980  18.687   5.436  0.0293  0.2566  0.6337
14515W        W57432  18.310  21.099   4.999 -0.1447  0.0541 -0.0156
14516W        W57433  17.086  18.189   3.401 -0.0316 -0.1048 -0.4655
14517W        W57434  21.377  20.003   5.973  0.2518 -0.0557 -0.1618
14518W        W57435  18.631  17.562   3.292 -0.1280  0.0938 -0.0779
14519W        W57436  19.098  17.369   6.181  0.0858  0.0950 -0.1632
14520W        W57437  19.319  19.822   6.070 -0.2469 -0.1763  0.2496
14521W        W57438  16.883  18.856   5.800 -0.0818  0.0736 -0.1455
14522W        W57439  21.363  21.352   2.273 -0.2354 -0.1849 -0.2044
14523W        W57440  19.806  20.261   4.064 -0.2827  0.0507 -0.0039
14524W        W57441  20.548  22.297   2.642 -0.0880  0.0790  0.0688
14525W        W57442  18.060  19.837   2.515  0.2409  0.2290 -0.0914
14526W        W57443  17.336  19.831   6.443 -0.0038 -0.1686  0.2106
14527W        W57444  16.925  20.430   4.086 -0.0330 -0.0229  0.0336
14528W        W57445  17.071  19.682   2.409  0.2096 -0.0254 -0.0456
14529W        W57446  23.566  19.032   8.412 -0.1176 -0.1442 -0.0908
14530W        W57447  18.328  21.360   3.751 -0.0405 -0.3519 -0.0668
14531W        W57448  21.154  20.031   2.859  0.3994  0.0691 -0.1536
14532W        W57449  17.473  20.336   4.238  0.2331 -0.1970 -0.1248
14533W        W57450  21.887  20.767   6.207 -0.0588 -0.1926 -0.1414
14534W        W57451  21.099  20.968   2.566 -0.0036 -0.0238  0.0723
14535W        W57452  20.648  17.727   5.795 -0.0214 -0.0223 -0.2119
14536W        W57453  18.961  18.064   6.741  0.1772  0.3948  0.1964
14537W        W57454  20.505  19.829   1.275  0.1679 -0.2376  0.0527
14538W        W57455  20.773  19.324   1.111 -0.1993  0.1774  0.1439
14539W        W57456  20.194  19.946   5.206  0.2177  0.2253  0.0284
14540W        W57457  20.933  17.925   2.094 -0.1473  0.1132 -0.0645
14541W        W57458  18.170  20.672   5.862 -0.1242  0.2390 -0.1263
14542W        W57459  19.360  18.722   5.372  0.1708 -0.2021 -0.1121
14543W        W57460  18.554  20.371   5.854 -0.0669 -0.0389 -0.2186
14544W        W57461  18.007  22.328   3.596 -0.4080 -0.4245  0.1190
14545W        W57462  17.213  19.611   5.418  0.0930  0.0667  0.0954
14546W        W57463  17.280  20.315   2.841 -0.2331 -0.2958  0.0700
14547W        W57464  18.707  18.645   6.016 -0.1079  0.1985  0.1530
14548W        W57465  18.581  19.416   4.394  0.1762  0.1551  0.2928
14549W        W57466  20.093  17.702   4.958  0.0399 -0.2048 -0.2726
14550W        W57467  17.920  18.520   6.939  0.0187 -0.2248 -0.1253
14551W        W57468  19.952  20.249   3.088  0.2374 -0.2530  0.0743
14552W        W57469  18.233  20.284   5.531 -0.0574 -0.0311  0.0311
14553W        W57470  21.600  21.923   3.075 -0.0208  0.0992  0.0052
14554W        W57471  19.279  18.216   5.150  0.0706 -0.0265 -0.0481
14555W        W57472  19.499  20.456   2.748 -0.1411 -0.1094  0.0661
14556W        W57473  18.532  18.418   7.559 -0.0006 -0.1754 -0.1099
14557W        W57474  17.763  19.784   3.472 -0.0696  0.1761 -0.1173
14558W        W57475  18.691  18.882   7.097  0.4216 -0.0371 -0.2579
14559W        W57476  18.438  16.734   5.602 -0.0044 -0.2464 -0.1916
14560W        W57477  21.825  20.508   6.741  0.0263  0.0552 -0.2853
14561W        W57478  18.343  19.567   2.819  0.1752  0.2593  0.4029
14562W        W57479  18.505  18.402   2.535 -0.1021  0.0502  0.0955
14563W        W57480  16.899  18.849   2.902 -0.1231 -0.1350  0.2227
14564W        W57481  17.370  20.801   3.564 -0.0712  0.3631  0.1714
14565W        W57482  20.261  17.226   5.747 -0.2613  0.0430 -0.0833
14566W        W57483  18.728  20.785   4.910 -0.4997 -0.0574  0.4360
14567W        W57484  19.890  19.890   6.144  0.2585 -0.0227 -0.0555
14568W        W57485  19.168  21.108   6.197 -0.3882  0.1097  0.2818
14569W        W57486  17.544  19.210   5.293 -0.0000 -0.1057 -0.1388
14570W        W57487  17.094  19.324   3.870  0.0652 -0.1493  0.2098
14571W        W57488  20.014  20.335   4.957  0.0621 -0.2091  0.0021
14572W        W57489  20.391  20.605   3.103  0.0345 -0.0994  0.2265
14573W        W57490  17.111  18.412   2.777  0.1575 -0.1401 -0.1223
14574W        W57491  20.422  21.944   5.488 -0.0682  0.1420 -0.0060
14575W        W57492  19.945  19.437   3.504  0.1867  0.4708 -0.0845
14576W        W57493  16.843  19.019   6.920  0.0765 -0.0305  0.1676
14577W        W57494  18.442  17.699   7.825 -0.0638  0.0258 -0.0943
14578W        W57495  19.327  19.113   5.618 -0.1360  0.0087  0.1078
14579W        W57496  18.195  19.109   4.622  0.0350 -0.1628  0.0382
14580W        W57497  16.412  18.451   3.911  0.0243 -0.0410  0.1086
14581W        W57498  19.592  19.857   3.877  0.1095 -0.1298 -0.2233
14582W        W57499  19.888  21.021   2.794  0.0889  0.1029  0.1162
14583W        W57500  17.970  20.094   4.460  0.1634  0.1063  0.3115
14584W        W57501  17.959  22.289   4.512 -0.0916 -0.0086 -0.3656
14585W        W57502  20.781  18.511   5.286 -0.3219  0.1341  0.1004
14586W        W57503  17.166  20.914   7.606 -0.2223  0.1065 -0.1419
14587W        W57504  18.782  17.502   6.587 -0.2326  0.2506 -0.1031
14588W        W57505  17.893  18.672   1.919 -0.0192  0.1729  0.4305
14589W        W57506  17.382  21.423   7.906  0.3962  0.1501 -0.0282
14590W        W57507  17.719  20.009   3.958 -0.0009  0.1057  0.0059
14591W        W57508  19.462  18.029   2.120  0.2911  0.2088  0.3200
14592W        W57509  20.969  19.871   4.683 -0.2272  0.0657 -0.0387
14593W        W57510  20.321  19.346   4.338  0.0590 -0.1717  0.0058
14594W        W57511  18.564  17.581   1.817 -0.0336 -0.0548 -0.1477
14595W        W57512  18.651  19.377   3.171  0.2214  0.3596 -0.0204
14596W        W57513  18.068  19.387   5.538  0.2189 -0.0339 -0.2628
14597W        W57514  18.306  19.899   3.607  0.1925  0.1091 -0.0072
14598W        W57515  19.118  19.835   7.644  0.2001 -0.1020  0.0031
14599W        W57516  18.878  17.736   3.953  0.1906  0.0731  0.2124
14600W        W57517  20.651  18.907   3.635 -0.0337 -0.0023 -0.3070
14601W        W57518  18.156  19.796   5.841  0.2963 -0.1047  0.1238
14602W        W57519  20.482  20.418   7.686  0.1209  0.3706 -0.0628
14603W        W57520  19.913  22.682   5.549  0.0211  0.0668 -0.0168
14604W        W57521  18.266  17.868   5.931  0.2585 -0.1976 -0.0341
14605W        W57522  16.989  19.329   1.558 -0.0825 -0.1197  0.0868
14606W        W57523  18.132  17.522   4.510  0.0728 -0.3253  0.2315
14607W        W57524  18.069  20.730   2.978  0.1408 -0.1948  0.0896
14608W        W57525  20.255  18.844   4.559 -0.0823 -0.0945 -0.1881
14609W        W57526  20.515  16.876   6.391  0.0790 -0.1547  0.0042
14610W        W57527  19.027  19.416   4.712 -0.3012  0.4371  0.0908
14611W        W57528  20.333  18.860   5.430  0.0124 -0.1195  0.2017
14612W        W57529  20.659  20.302   1.901 -0.0242  0.3407  0.0541
14613W        W57530  18.130  19.674   4.090  0.1406 -0.2551  0.2069
14614W        W57531  17.777  19.255   3.311  0.1877 -0.4521  0.1111
14615W        W57532  19.445  20.545   4.845  0.0741 -0.1969  0.0710
14616W        W57533  17.293  19.198   5.694  0.0742  0.1011 -0.4036
14617W        W57534  15.504  21.563   5.520 -0.1473 -0.1339 -0.2306
14618W        W57535  20.904  20.151   6.082  0.1276 -0.2948  0.0977
14619W        W57536  19.867  17.763   3.802  0.0513  0.3018 -0.0517
14620W        W57537  17.997  17.595   5.612 -0.0100  0.0825 -0.1628
14621W        W57538  18.109  19.313   2.375  0.4366 -0.3228  0.1998
14622W        W57539  18.016  21.988   4.861  0.2233 -0.1328 -0.0396
14623W        W57540  19.333  21.242   3.406  0.3243  0.1713  0.2871
14624W        W57541  19.091  18.708   4.042 -0.0445 -0.0042 -0.0458
14625W        W57542  20.267  20.907   3.621 -0.1702 -0.0187  0.3676
14626W        W57543  22.095  20.968   2.430  0.4043 -0.1473 -0.0781
14627W        W57544  19.680  19.518   5.687 -0.1177  0.0412  0.2140
14628W        W57545  19.101  21.782   3.560 -0.2995 -0.0580 -0.3261
14629W        W57546  18.727  20.035   3.957 -0.1282 -0.1276  0.2383
14630W        W57547  17.987  20.666   5.216 -0.1439 -0.0471  0.1212
14631W        W57548  16.906  19.692   3.353  0.0649 -0.0103  0.1012
14632W        W57549  16.567  19.434   3.659  0.0654 -0.1448  0.0759
14633W        W57550  20.779  17.173   3.807 -0.1255 -0.0945 -0.2066
14634W        W57551  20.281  19.502   0.899  0.1602  0.1818  0.1711
14635W        W57552  16.296  17.938   5.170  0.2971 -0.0163  0.3705
14636W        W57553  18.596  18.316   3.043 -0.0458 -0.2803 -0.3830
14637W        W57554  17.902  20.967   6.209 -0.0263 -0.0535 -0.0512
14638W        W57555  20.460  20.358   5.971  0.0581 -0.2918 -0.0417
14639W        W57556  19.592  17.973   3.395 -0.3531 -0.0302 -0.2471
14640W        W57557  19.694  20.844   3.706  0.1681 -0.3195  0.1326
14641W        W57558  19.433  19.817   7.023 -0.2440  0.1295 -0.2994
14642W        W57559  18.526  19.763   0.966  0.2293  0.3951  0.1007
14643W        W57560  20.227  18.453   7.409 -0.2087 -0.2582 -0.0477
14644W        W57561  16.696  17.872   4.910 -0.1295 -0.1343 -0.0825
14645W        W57562  18.656  21.868   3.809  0.2123 -0.0574  0.2984
14646W        W57563  20.123  20.830   1.436  0.2862 -0.0194 -0.1433
14647W        W57564  15.691  20.838   3.654  0.2443 -0.3656 -0.0419
14648W        W57565  19.126  20.617   6.003  0.2307  0.1186 -0.2626
14649W        W57566  18.256  20.175   9.195  0.2778  0.3121 -0.4518
14650W        W57567  20.643  19.812   5.707  0.4083 -0.2820  0.0421
14651W        W57568  19.801  19.429   4.001  0.0357 -0.0747  0.1937
14652W        W57569  15.916  20.134   3.341 -0.2541  0.0517  0.6201
14653W        W57570  18.790  18.135   5.012  0.0385 -0.1405  0.0651
14654W        W57571  19.328  19.875   5.380  0.2220  0.0947 -0.1195
14655W        W57572  18.094  18.812   6.329 -0.3827  0.1726 -0.2186
14656W        W57573  18.072  20.127   7.322  0.3584 -0.0376  0.3311
14657W        W57574  17.792  18.542   5.912 -0.2845 -0.1026 -0.0673
14658W        W57575  19.400  21.086   2.850  0.0791 -0.0703 -0.0242
14659W        W57576  19.656  20.528   6.571 -0.2738 -0.0962  0.1494
14660W        W57577  19.192  20.060   3.670 -0.0427 -0.1071  0.3745
14661W        W57578  17.226  19.394   6.192  0.0162 -0.1033  0.0068
14662W        W57579  19.363  19.230   1.787 -0.1422  0.1943  0.0158
14663W        W57580  18.722  18.962   4.718 -0.1746  0.1504 -0.3106
14664W        W57581  16.849  20.336   5.151 -0.0215  0.0256  0.1770
14665W        W57582  17.195  20.179   2.222 -0.3241  0.1402  0.1864
14666W        W57583  18.154  22.199   6.698 -0.0684 -0.0395 -0.0597
14667W        W57584  19.110  18.309   5.631 -0.0235  0.2694 -0.1520
14668W        W57585  19.525  19.770   3.276 -0.1132  0.1180 -0.2940
14669W        W57586  18.064  18.108   3.855  0.3660  0.1082  0.0988
14670W        W57587  21.623  17.988   5.706 -0.2464  0.1344 -0.1552
14671W        W57588  18.960  19.589   3.479 -0.1576 -0.1741 -0.0673
14672W        W57589  20.285  18.543   6.266 -0.2968  0.3546  0.0426
14673W        W57590  18.537  20.179   4.473 -0.1850 -0.0855  0.1062
14674W        W57591  19.778  20.805   2.341  0.3284  0.2972 -0.2863
14675W        W57592  17.661  17.991   4.621 -0.0536 -0.1801 -0.1001
14676W        W57593  22.003  20.021   7.066 -0.1418 -0.2793  0.0799
14677W        W57594  18.242  19.898   5.160 -0.0732 -0.0662 -0.3370
14678W        W57595  18.851  19.295   2.694  0.0011  0.4790  0.0770
14679W        W57596  17.999  18.194   2.219 -0.0211  0.3033 -0.1530
14680W        W57597  19.029  20.988   3.775 -0.0224 -0.0388  0.0468
14681W        W57598  19.435  19.445   5.101 -0.0051  0.3631  0.0369
14682W        W57599  20.863  20.087   2.321  0.0592  0.1916  0.1320
14683W        W57600  21.727  20.091   3.668  0.0192  0.1444  0.0326
14684W        W57601  17.819  19.577   4.542  0.1695 -0.1176 -0.1073
14685W        W57602  18.762  17.473   2.430  0.1983  0.0934  0.4728
14686W        W57603  18.032  18.980   0.735 -0.3617  0.0712 -0.0605
14687W        W57604  18.912  18.519   3.438  0.3526 -0.0199 -0.0981
14688W        W57605  18.512  18.966   5.316  0.0071  0.0887  0.0048
14689W        W57606  18.722  20.346   2.939  0.0103  0.2771 -0.0137
14690W        W57607  19.780  17.938   5.249  0.0876 -0.3557  0.0667
14691W        W57608  18.576  21.015   4.021  0.0474 -0.0090 -0.0278
14692W        W57609  18.519  18.008   6.385 -0.2978  0.3891  0.1873
14693W        W57610  19.142  21.066   5.654  0.2386 -0.0340 -0.2642
14694W        W57611  17.915  17.610   6.315 -0.2103 -0.1919  0.2017
14695W        W57612  21.834  20.539   5.756 -0.0419 -0.2450  0.1712
14696W        W57613  20.593  19.547   2.217 -0.1990  0.1636 -0.1298
14697W        W57614  20.248  18.599   4.980  0.1475 -0.1562  0.1024
14698W        W57615  19.796  18.281   3.861 -0.1065  0.2524 -0.0859
14699W        W57616  18.879  18.261   4.003 -0.1463 -0.1079 -0.1101
14700W        W57617  18.304  18.917   5.877 -0.1510 -0.0919  0.0376
14701W        W57618  19.974  18.597   6.631  0.1199 -0.1498  0.3737
14702W        W57619  16.829  18.345   1.233  0.0359 -0.0365  0.1050
14703W        W57620  20.556  18.038   8.195  0.0350 -0.1136 -0.0021
14704W        W57621  19.374  21.092   2.377  0.2391 -0.1094 -0.5760
14705W        W57622  20.164  21.130   5.321  0.1811  0.2619  0.2258
14706W        W57623  17.028  20.176   3.310 -0.2138 -0.2228  0.3224
14707W        W57624  16.297  19.715   4.017  0.0523  0.1484 -0.1259
14708W        W57625  17.241  21.841   8.313 -0.0935 -0.2347  0.0518
14709W        W57626  16.847  17.946   2.604 -0.4237 -0.3163  0.0471
14710W        W57627  19.205  20.223   3.112 -0.2733  0.0480 -0.2194
14711W        W57628  19.955  21.156   4.456 -0.1193 -0.1327  0.0407
14712W        W57629  21.327  19.842   7.848 -0.1326 -0.2133  0.1095
14713W        W57630  19.180  19.711   2.470  0.0470 -0.0377 -0.1064
14714W        W57631  22.032  17.645   5.859 -0.3176 -0.1048  0.0620
14715W        W57632  19.734  18.364   2.373  0.0472 -0.1266 -0.0253
14716W        W57633  18.416  17.060   7.360 -0.2902 -0.0711 -0.0417
14717W        W57634  17.778  21.079   5.683  0.2608  0.0806 -0.1235
14718W        W57635  17.964  20.046   6.651  0.3054 -0.1460 -0.0211
14719W        W57636  18.597  21.303   3.078  0.0722  0.0827  0.2252
14720W        W57637  18.238  20.299   4.045  0.2573  0.0210  0.2003
14721W        W57638  21.397  18.193   6.117  0.2215  0.5429  0.1594
14722W        W57639  18.138  20.802   3.840  0.0947 -0.0789 -0.1178
14723W        W57640  21.144  19.858   5.567  0.3549  0.0233 -0.2459
14724W        W57641  19.495  21.000   4.162 -0.1091  0.1106  0.2441
14725W        W57642  19.101  21.417   4.539 -0.1939 -0.0557 -0.1632
14726W        W57643  20.168  19.947   5.746  0.0893  0.1187 -0.0762
14727W        W57644  22.104  19.042   3.910  0.1059 -0.3787  0.1848
14728W        W57645  18.789  19.906   4.984  0.1978  0.1081 -0.0085
14729W        W57646  16.987  17.788   7.194  0.1226 -0.1974  0.3133
14730W        W57647  20.942  19.749   7.519 -0.0791  0.0561  0.0625
14731W        W57648  19.604  21.686   3.479 -0.0668 -0.0786 -0.0638
14732W        W57649  18.035  18.623   2.934 -0.1787 -0.0262 -0.1822
14733W        W57650  19.407  19.139   4.073 -0.1026  0.2295  0.0389
14734W        W57651  18.051  21.176   7.111  0.0089 -0.1452  0.1943
14735W        W57652  17.579  20.035   5.917  0.1842 -0.2903  0.1588
14736W        W57653  17.417  22.166   2.538 -0.0196  0.2315 -0.1861
14737W        W57654  19.153  19.616   3.969  0.0220  0.1125  0.2370
14738W        W57655  18.535  20.018   0.125 -0.2352  0.1161  0.2503
14739W        W57656  21.188  20.171   4.378  0.2849 -0.0572 -0.1831
14740W        W57657  18.665  18.975   3.452  0.1981  0.1900  0.1794
14741W        W57658  17.836  21.573   5.611 -0.1140  0.2336  0.1361
14742W        W57659  17.208  20.373   4.730 -0.3247  0.1021  0.2166
14743W        W57660  19.881  21.389   4.014  0.2293 -0.0095 -0.1376
14744W        W57661  19.332  21.027   1.888  0.0764  0.5336 -0.0015
14745W        W57662  22.381  22.122   8.260  0.0561  0.2375  0.0770
14746W        W57663  17.260  18.649   3.265 -0.0620  0.0098 -0.0161
14747W        W57664  20.254  19.252   3.847  0.0138  0.1168  0.1724
14748W        W57665  18.862  19.814   2.915  0.1226 -0.0389 -0.3238
14749W        W57666  18.710  20.598   6.975 -0.1363 -0.3498 -0.1404
14750W        W57667  18.890  19.511   5.243 -0.0077  0.1962 -0.1537
14751W        W57668  19.437  19.358   3.587 -0.0955 -0.0078 -0.1082
14752W        W57669  18.978  19.520   7.244  0.1815 -0.1772 -0.2524
14753W        W57670  20.701  19.387   5.414 -0.3250 -0.1779  0.1748
14754W        W57671  17.094  21.578   7.005  0.1608 -0.1386 -0.0423
14755W        W57672  20.843  19.908   3.647 -0.1621  0.0139  0.1424
14756W        W57673  16.160  19.286   4.495 -0.2454  0.1704 -0.1013
14757W        W57674  18.759  20.050   3.359 -0.0663 -0.0082 -0.1176
14758W        W57675  20.448  17.470   6.180 -0.2108  0.1786  0.0748
14759W        W57676  19.832  19.331   1.097  0.0099  0.3963 -0.2001
14760W        W57677  18.638  19.976   5.468  0.1168 -0.0722  0.1215
14761W        W57678  19.688  22.396   3.211 -0.1211  0.0832 -0.0536
14762W        W57679  18.085  22.156   5.344  0.2685 -0.0569 -0.0046
14763W        W57680  16.999  21.677   5.247  0.1543 -0.1514  0.1166
14764W        W57681  16.446  18.835   3.063  0.1723 -0.0299 -0.0349
14765W        W57682  21.235  18.577   4.585 -0.5225 -0.0138  0.0424
14766W        W57683  17.798  20.264   2.891 -0.2912 -0.2365  0.0557
14767W        W57684  19.800  18.661   5.636 -0.3566 -0.2571  0.1822
14768W        W57685  18.021  19.709   7.685 -0.2459  0.1230  0.1183
14769W        W57686  19.916  20.369   2.534 -0.0703 -0.0281  0.0069
14770W        W57687  18.628  20.522   3.747  0.0955 -0.2069  0.0985
14771W        W57688  17.141  17.888   5.831 -0.0480  0.1699 -0.1385
14772W        W57689  20.045  18.441   1.827 -0.1450 -0.0850 -0.0219
14773W        W57690  21.308  20.557   6.065  0.2634 -0.2102 -0.1636
14774W        W57691  19.182  20.164   1.996  0.4030  0.0501  0.1389
14775W        W57692  20.404  20.901   5.806 -0.1745 -0.1573 -0.1391
14776W        W57693  17.763  18.137   6.252  0.0924 -0.3932  0.3074
14777W        W57694  18.358  18.785   2.080 -0.0759 -0.1950  0.1963
14778W        W57695  18.774  21.374   3.531 -0.1517 -0.0727 -0.1880
14779W        W57696  18.573  20.843   2.845  0.2151  0.1655  0.1005
14780W        W57697  21.892  20.060   5.922  0.0373 -0.2005  0.0971
14781W        W57698  17.756  18.442   4.175 -0.2031 -0.0363 -0.2259
14782W        W57699  19.264  21.708   2.188 -0.0517 -0.0696  0.2047
14783W        W57700  20.909  19.992   5.193  0.3655  0.1126 -0.0279
14784W        W57701  20.555  20.542   1.470  0.1299 -0.3081  0.0653
14785W        W57702  19.935  22.421   1.603 -0.2066 -0.0645  0.0780
14786W        W57703  21.503  20.778   4.675 -0.1428 -0.0779 -0.0843
14787W        W57704  16.550  18.772   6.567  0.2384  0.1768  0.0910
14788W        W57705  23.019  21.128   6.169  0.3083 -0.0119 -0.1578
14789W        W57706  18.282  20.501   4.811 -0.0975  0.2060  0.1460
14790W        W57707  19.318  18.364   3.645  0.1359 -0.0596 -0.3457
14791W        W57708  17.913  18.854   3.793  0.0755 -0.0792  0.0272
14792W        W57709  18.037  21.687   3.930 -0.1625 -0.3774 -0.2547
14793W        W57710  19.335  18.858   3.648 -0.1692 -0.2130 -0.1818
14794W        W57711  20.401  18.033   6.162 -0.1205  0.1916 -0.1109
14795W        W57712  20.343  21.706   1.170 -0.0560 -0.1341 -0.0692
14796W        W57713  20.911  18.306   6.150 -0.0614 -0.4760  0.0618
14797W        W57714  18.710  21.238   5.458 -0.3076 -0.1439  0.1300
14798W        W57715  17.989  21.307   6.607 -0.3038 -0.1456  0.3690
14799W        W57716  18.168  19.553   3.250  0.3263  0.0484  0.0124
14800W        W57717  18.925  18.360   7.222  0.1734 -0.4047 -0.1603
14801W        W57718  18.918  22.200   2.347  0.1428 -0.1627 -0.2371
14802W        W57719  18.336  21.502   4.705 -0.1642  0.0567 -0.2167
14803W        W57720  20.379  20.174   3.966  0.0083  0.3589  0.1224
14804W        W57721  18.139  20.582   1.079 -0.0762  0.1026  0.1205
14805W        W57722  19.411  20.541   4.286 -0.2525  0.1973 -0.2800
14806W        W57723  20.307  19.662   3.279 -0.2741  0.1251 -0.0902
14807W        W57724  20.204  17.772   5.437  0.0295  0.1434  0.0261
14808W        W57725  19.569  17.192   3.584 -0.0183 -0.1405  0.4199
14809W        W57726  19.846  18.975   4.936  0.2914  0.0320  0.1732
14810W        W57727  18.464  19.910   1.507 -0.2406  0.0945  0.1221
14811W        W57728  20.320  20.027   2.231  0.0508  0.1230 -0.2542
14812W        W57729  18.100  20.630   7.036 -0.2737 -0.2328 -0.1119
14813W        W57730  18.473  19.422   5.024  0.1703 -0.3060  0.2565
14814W        W57731  19.816  20.001   6.655  0.3772 -0.0993  0.4434
14815W        W57732  15.819  19.404   5.964 -0.2321 -0.3264 -0.0444
14816W        W57733  17.515  19.943   3.071 -0.2565 -0.1663 -0.4461
14817W        W57734  19.554  20.012   1.685  0.1504 -0.1157 -0.0959
14818W        W57735  17.682  17.987   5.215  0.1642 -0.2701  0.1690
14819W        W57736  18.274  17.919   3.188  0.1184  0.0952  0.1874
14820W        W57737  19.806  20.365   5.907  0.1823 -0.2821  0.0629
14821W        W57738  18.741  20.864   5.980  0.0846  0.0038  0.1452
14822W        W57739  19.796  18.614   3.451  0.2276  0.2145 -0.0039
14823W        W57740  21.533  19.639   6.272  0.0460 -0.0281  0.0072
14824W        W57741  18.286  21.945   2.269  0.0881  0.2463  0.0112
14825W        W57742  19.490  17.587   7.598 -0.0971 -0.0182 -0.0482
14826W        W57743  19.209  17.320   6.813  0.0820  0.1602 -0.0217
14827W        W57744  17.014  18.645   6.306  0.2512 -0.0892 -0.1495
14828W        W57745  18.490  19.049   4.085 -0.0133 -0.2426 -0.3999
14829W        W57746  20.669  20.515   3.584 -0.3647 -0.0567 -0.0314
14830W        W57747  19.910  21.281   3.466  0.1680  0.0815 -0.2696
14831W        W57748  19.771  20.097   5.366 -0.0205 -0.0958  0.1742
14832W        W57749  16.184  23.716   6.755  0.1633 -0.0675  0.1441
14833W        W57750  17.499  18.209   6.705 -0.1934 -0.0026  0.1999
14834W        W57751  19.372  18.573   1.215 -0.1042  0.0476 -0.1885
14835W        W57752  19.936  21.147   5.789 -0.2132  0.1108  0.1729
14836W        W57753  22.137  20.440   3.473  0.0503 -0.0892 -0.0546
14837W        W57754  22.385  19.070   5.302  0.0615  0.4215 -0.0820
14838W        W57755  20.353  18.148   3.013 -0.2603 -0.2340  0.0137
14839W        W57756  17.405  17.747   6.347 -0.2182 -0.1433 -0.3819
14840W        W57757  18.125  19.173   7.720  0.0539  0.0500  0.2718
14841W        W57758  19.080  19.050   5.110 -0.2149 -0.1491  0.4953
14842W        W57759  16.846  18.646   4.742  0.0732 -0.2581 -0.2665
14843W        W57760  17.459  19.013   3.594  0.0615  0.3762 -0.2332
14844W        W57761  21.153  18.870   5.019 -0.1340  0.4314  0.0574
14845W        W57762  15.863  18.324   4.734 -0.0369 -0.1516  0.1590
14846W        W57763  19.202  17.738   5.043 -0.1017 -0.2439  0.2404
14847W        W57764  19.374  20.330   5.688  0.0778  0.2069  0.1850
14848W        W57765  18.854  20.466   4.211 -0.0636  0.0144  0.0667
14849W        W57766  20.236  19.336   4.915 -0.2383  0.2699 -0.2778
14850W        W57767  17.560  20.455   3.256  0.1217 -0.0411 -0.1354
14851W        W57768  22.583  19.960   4.059  0.0767  0.1825  0.0346
14852W        W57769  19.581  22.842   5.905  0.0483  0.1167 -0.2584
14853W        W57770  20.931  21.029   6.960  0.1091 -0.0226 -0.1657
14854W        W57771  18.674  20.165   7.944 -0.0560 -0.3105 -0.1877
14855W        W57772  19.527  20.821   5.848 -0.2366 -0.0739 -0.2413
14856W        W57773  18.433  17.839   4.170  0.2208  0.1263 -0.0560
14857W        W57774  17.769  20.509   3.780 -0.0342  0.0020  0.0033
14858W        W57775  17.356  19.484   3.362  0.0875 -0.1658 -0.1908
14859W        W57776  22.755  18.307   5.459  0.0730  0.3133 -0.5958
14860W        W57777  17.603  20.595   4.680 -0.1372 -0.0658 -0.0004
14861W        W57778  20.165  16.817   1.738 -0.0408  0.1139 -0.2737
14862W        W57779  19.094  20.865   4.489 -0.0418  0.1762  0.1148
14863W        W57780  18.971  20.546   3.412  0.2590  0.2182  0.0205
14864W        W57781  20.447  19.110  10.010 -0.1019  0.1405  0.0622
14865W        W57782  18.878  18.855   7.562  0.1212  0.1963 -0.0005
14866W        W57783  20.922  19.176   6.323 -0.1741  0.1919 -0.1796
14867W        W57784  18.752  17.962   7.494 -0.1876  0.4208  0.0150
14868W        W57785  18.053  19.454   9.248 -0.1562 -0.0726 -0.0974
14869W        W57786  20.911  20.388   8.288 -0.1393  0.2164  0.0865
14870W        W57787  20.264  19.461   8.679  0.0319  0.0032  0.1130
14871W        W57788  20.360  23.584   9.331  0.1420  0.0396 -0.1604
14872W        W57789  21.028  19.625   6.097  0.0112 -0.1837 -0.1183
14873W        W57790  21.086  18.104   8.873  0.1717  0.2718 -0.1614
14874W        W57791  18.272  17.609   6.639 -0.1408  0.0477 -0.4742
14875W        W57792  17.785  18.662   8.755  0.0540 -0.2893  0.2422
14876W        W57793  16.282  22.108   9.320  0.0696 -0.0208  0.0355
14877W        W57794  17.982  19.061   8.325 -0.1591 -0.1116  0.1122
14878W        W57795  20.279  18.666   9.061 -0.3622  0.1387 -0.0481
14879W        W57796  19.413  16.451   9.080  0.2589 -0.2450  0.2688
14880W        W57797  19.964  21.532   8.358 -0.0151 -0.3341  0.0329
14881W        W57798  18.751  19.584   7.892  0.0110 -0.2217 -0.1183
14882W        W57799  18.780  16.849   7.633  0.0441 -0.0940 -0.1564
14883W        W57800  18.301  19.739   4.649  0.1682 -0.0712  0.0056
14884W        W57801  18.601  20.570   9.384  0.0010  0.1473 -0.2660
14885W        W57802  17.523  19.979   8.592 -0.1850  0.1448  0.1966
14886W        W57803  18.902  17.235   9.113 -0.4695 -0.0248 -0.0908
14887W        W57804  19.391  17.849   9.180 -0.4681  0.0271  0.0446
14888W        W57805  18.181  21.608   8.078  0.0566  0.1805 -0.0041
14889W        W57806  19.916  21.521   7.844 -0.1778 -0.2202  0.1968
14890W        W57807  20.960  20.581   7.721  0.0585  0.0382 -0.2302
14891W        W57808  17.301  19.001   9.347 -0.1068  0.3347  0.2263
14892W        W57809  19.000  21.476   7.875 -0.1940 -0.4162  0.1464
14893W        W57810  19.595  19.093   7.528  0.0297  0.1259  0.2031
14894W        W57811  17.847  19.694   6.343  0.2380 -0.0061  0.1171
14895W        W57812  20.190  20.085   9.467 -0.0881 -0.0263  0.0231
14896W        W57813  19.693  16.938   7.619 -0.2503  0.1232  0.1892
14897W        W57814  18.897  20.622   5.563  0.1635 -0.1085  0.1897
14898W        W57815  19.056  19.093   8.160 -0.1089 -0.1089 -0.0449
14899W        W57816  17.831  20.162   9.834  0.0312 -0.2673  0.3067
14900W        W57817  19.001  20.516   7.826 -0.0368 -0.0946 -0.0398
14901W        W57818  19.906  19.646   7.816  0.2804  0.1474  0.0447
14902W        W57819  19.197  20.359   5.216  0.0439  0.1431  0.0450
14903W        W57820  19.762  17.502   8.230  0.0505 -0.2269 -0.1564
14904W        W57821  18.796  19.382   8.779 -0.1035 -0.1347 -0.1473
14905W        W57822  16.373  21.595   9.328  0.0930 -0.1169  0.1315
14906W        W57823  19.953  18.204  10.932  0.2184 -0.0260  0.2556
14907W        W57824  18.661  19.901   8.445 -0.2596 -0.0333  0.1890
14908W        W57825  19.580  18.244   9.478  0.0094 -0.0269  0.2611
14909W        W57826  17.683  22.063   9.410  0.1669  0.2026 -0.1793
14910W        W57827  19.803  17.809  11.128 -0.0333 -0.0088 -0.3327
14911W        W57828  20.790  21.421   6.380 -0.0112 -0.0574  0.0708
14912W        W57829  20.840  19.995   9.551  0.0455 -0.1741 -0.0237
14913W        W57830  20.653  20.578   6.804  0.3030 -0.1287  0.2105
14914W        W57831  17.640  20.373   7.750  0.2485  0.0895  0.0133
14915W        W57832  18.199  17.423   7.576  0.0328  0.1243  0.3889
14916W        W57833  23.627  16.816   6.911 -0.1553  0.0483  0.1570
14917W        W57834  18.240  22.000   9.418  0.1007  0.3026  0.1237
14918W        W57835  24.036  17.647   9.214  0.0970 -0.1888 -0.2890
14919W        W57836  21.384  20.292   5.277 -0.2129 -0.0345 -0.1154
14920W        W57837  19.711  18.216   7.600 -0.2845 -0.0780 -0.1138
14921W        W57838  22.622  16.415   9.703 -0.1371  0.3200 -0.0355
14922W        W57839  19.534  19.302   7.023 -0.2961 -0.2155 -0.0623
14923W        W57840  19.254  18.493   9.151 -0.1357 -0.1454  0.3082
14924W        W57841  19.708  20.534   8.471  0.2298 -0.0794  0.0158
14925W        W57842  20.481  18.905   8.677  0.0460  0.0860  0.0776
14926W        W57843  21.578  18.525   9.516 -0.0097 -0.0172  0.1883
14927W        W57844  19.094  19.343   6.826 -0.0494  0.0810  0.2150
14928W        W57845  18.534  20.232   8.810 -0.2287  0.1398 -0.0153
14929W        W57846  18.848  19.478   6.325 -0.0120  0.4040  0.1962
14930W        W57847  18.338  17.869   8.827  0.0696 -0.0190  0.2800
14931W        W57848  18.083  20.471   9.528  0.3102  0.3187  0.1736
14932W        W57849  19.670  16.443   8.577  0.1559 -0.1469 -0.0190
14933W        W57850  22.164  18.840   8.375 -0.0222 -0.1456 -0.1689
14934W        W57851  18.202  20.252   7.824  0.4108  0.0030 -0.1135
14935W        W57852  20.372  22.078   6.474  0.2065  0.1864  0.1209
14936W        W57853  19.851  18.352   7.099  0.0905 -0.2581 -0.3906
14937W        W57854  19.250  20.244   6.784 -0.0627 -0.0418  0.0403
14938W        W57855  19.899  22.015   8.010 -0.1941 -0.1342  0.1793
14939W        W57856  18.332  19.227   9.682  0.0067  0.0966 -0.0766
14940W        W57857  18.334  17.415   9.173  0.0777  0.3499  0.0392
14941W        W57858  17.499  17.544   5.884 -0.2172 -0.0461 -0.0872
14942W        W57859  20.026  17.751   7.848 -0.0932  0.2394 -0.1925
14943W        W57860  19.897  19.100   5.417 -0.0481  0.0281 -0.0083
14944W        W57861  17.945  19.558   8.121 -0.2927  0.3477 -0.1256
14945W        W57862  18.953  18.650   6.743 -0.2344  0.1301 -0.0376
14946W        W57863  22.600  19.090   8.651 -0.1266  0.0313  0.0161
14947W        W57864  20.741  20.125   9.090 -0.1014 -0.1195  0.0228
14948W        W57865  20.038  20.723   9.353 -0.0867 -0.0758  0.2612
14949W        W57866  19.334  17.726   6.525  0.3967 -0.0570 -0.0791
14950W        W57867  18.729  21.983   8.732  0.0756  0.0098 -0.2743
14951W        W57868  20.315  20.843   7.066 -0.0455  0.1716  0.4166
14952W        W57869  19.785  17.031   8.184 -0.0136 -0.0466 -0.0727
14953W        W57870  19.796  18.741   9.815 -0.2419 -0.2213  0.1595
14954W        W57871  20.115  17.209   7.841 -0.1304 -0.0760 -0.0141
14955W        W57872  21.419  20.519   8.981 -0.0372 -0.1828 -0.4613
14956W        W57873  18.424  16.292   9.056 -0.0875  0.1036  0.1486
14957W        W57874  18.479  19.853   7.395  0.1917 -0.0027 -0.0082
14958W        W57875  18.977  20.995   8.033 -0.0864  0.3648  0.2357
14959W        W57876  18.029  20.544   6.476  0.3981 -0.0319 -0.0647
14960W        W57877  19.404  18.649   8.389 -0.1723 -0.4383  0.1751
14961W        W57878  17.168  19.901   8.924 -0.0337  0.2247 -0.0878
14962W        W57879  20.454  17.781   8.630  0.1830 -0.1183 -0.3473
14963W        W57880  16.817  18.446  10.512  0.1606  0.0501 -0.0090
14964W        W57881  19.915  17.397   7.414 -0.3052  0.0059 -0.2410
14965W        W57882  20.292  20.032   6.854  0.0897  0.1520 -0.1116
14966W        W57883  20.933  18.658   8.686 -0.1038 -0.2614  0.0230
14967W        W57884  20.207  17.510   9.066  0.0943 -0.2429 -0.3014
14968W        W57885  20.176  16.989   8.963 -0.0887 -0.3270  0.0042
14969W        W57886  19.603  20.002   8.035 -0.4230  0.3858 -0.2865
14970W        W57887  18.927  22.312   8.278 -0.1630  0.4949  0.4141
14971W        W57888  19.705  19.079   5.938  0.1581  0.0432  0.1698
14972W        W57889  20.773  21.544   7.792 -0.1701 -0.2333 -0.0745
14973W        W57890  18.360  19.783   6.451 -0.3104  0.4723  0.2782
14974W        W57891  20.062  20.070   8.448  0.2201 -0.0591  0.1058
14975W        W57892  20.064  21.103   8.051 -0.1091  0.2218 -0.2173
14976W        W57893  18.981  20.129   5.851 -0.2469  0.0581 -0.0682
14977W        W57894  20.170  17.780  10.214 -0.0404 -0.3175  0.0474
14978W        W57895  19.492  21.190   7.912 -0.2963 -0.0944 -0.0608
14979W        W57896  21.239  18.623   9.142  0.2229  0.2615  0.2156
14980W        W57897  20.234  16.615   9.920 -0.2470  0.3447 -0.1463
14981W        W57898  20.751  18.494   8.246  0.4374  0.2889  0.1149
14982W        W57899  21.400  20.083   9.412 -0.1578 -0.3343  0.0425
14983W        W57900  18.848  19.869   6.919  0.1439 -0.4015 -0.1240
14984W        W57901  20.395  17.945  10.806 -0.1514  0.1983 -0.2064
14985W        W57902  18.279  23.032   7.922 -0.1717  0.0878  0.0768
14986W        W57903  20.721  18.144  10.518 -0.0517 -0.1674  0.1902
14987W        W57904  18.783  17.211   7.980 -0.2996  0.0532 -0.2241
14988W        W57905  18.822  20.423   8.360 -0.0075  0.2392  0.4447
14989W        W57906  17.514  20.732   6.402 -0.2091  0.0196  0.1498
14990W        W57907  21.085  17.723  10.340 -0.1139 -0.0477  0.0421
14991W        W57908  19.487  18.348   8.024  0.2380  0.0432  0.1240
14992W        W57909  19.411  21.546   8.737  0.0014  0.0331 -0.2885
14993W        W57910  19.474  18.915   8.869 -0.0617 -0.2139 -0.0470
14994W        W57911  17.181  20.535   7.204  0.2608 -0.0225  0.1407
14995W        W57912  22.082  16.535   8.877 -0.2397  0.0077 -0.0539
14996W        W57913  15.278  21.498   9.562  0.0555 -0.2658  0.2487
14997W        W57914  19.048  17.685   7.136  0.2104 -0.0364  0.0741
14998W        W57915  18.756  17.998   8.605 -0.0432  0.1674 -0.1061
14999W        W57916  20.933  20.529   8.809  0.0768 -0.0910  0.1103
15000W        W57917  21.574  18.509   7.830  0.2127 -0.0185  0.3091
15001W        W57918  19.031  17.667   9.450 -0.0303 -0.0060 -0.0136
15002W        W57919  20.011  19.033   8.464  0.0211 -0.1264 -0.0345
15003W        W57920  16.139  22.506   8.895 -0.1519 -0.3816  0.1891
15004W        W57921  20.464  15.948   5.589 -0.0692 -0.1658 -0.1676
15005W        W57922  19.039  19.558   5.700 -0.1673  0.1210  0.1090
15006W        W57923  22.847  15.817   7.214  0.2101 -0.1739 -0.0392
15007W        W57924  17.833  19.557   8.669 -0.0556  0.2185  0.0612
15008W        W57925  16.714  20.783   9.030  0.2962 -0.1347 -0.1597
15009W        W57926  21.185  20.554   7.066  0.1978 -0.0228  0.0284
15010W        W57927  17.458  19.902   8.061  0.2318  0.2259 -0.1721
15011W        W57928  19.815  20.648   7.322 -0.0671 -0.1532  0.0266
15012W        W57929  20.651  24.260   8.014  0.0075 -0.1516  0.1053
15013W        W57930  19.472  17.855   8.065 -0.0289  0.1484  0.2757
15014W        W57931  19.356  17.669   8.547 -0.1119 -0.0202 -0.1002
15015W        W57932  17.917  19.907   8.992  0.1539  0.1247 -0.0787
15016W        W57933  20.819  22.064   7.961  0.0748  0.2434  0.2238
15017W        W57934  20.757  16.607  10.101  0.0248  0.2986  0.2336
15018W        W57935  20.738  17.650   9.059  0.0582  0.2229 -0.2260
15019W        W57936  21.856  21.012   6.660 -0.0134  0.1043  0.1753
15020W        W57937  20.026  17.917   7.346  0.0807 -0.3038  0.1234
15021W        W57938  16.980  21.046   8.660  0.1459  0.1385  0.2091
15022W        W57939  18.740  21.043   8.509  0.2949 -0.2599 -0.2321
15023W        W57940  16.955  17.258   9.341 -0.0958 -0.4666  0.1345
15024W        W57941  18.362  20.719   8.527 -0.1004  0.0207 -0.0497
15025W        W57942  19.074  19.948   8.105 -0.1435  0.3373 -0.0045
15026W        W57943  18.338  19.827   8.030 -0.2580  0.3319 -0.2064
15027W        W57944  21.597  17.441   5.724  0.1072  0.1538 -0.0096
15028W        W57945  19.776  19.662   8.779 -0.2341  0.3322 -0.0835
15029W        W57946  19.789  18.745   9.233 -0.1068  0.1581  0.2602
15030W        W57947  20.122  18.292   7.903 -0.1496  0.1863 -0.1760
15031W        W57948  14.609  21.023  10.772  0.4328  0.4210 -0.0544
15032W        W57949  20.696  20.359   4.481  0.0816 -0.0901  0.1527
15033W        W57950  19.398  18.418   6.420  0.1446  0.3872 -0.2443
15034W        W57951  20.627  16.450  10.534 -0.0449  0.0011  0.1031
15035W        W57952  21.068  19.906   8.459  0.1546 -0.3190  0.2560
15036W        W57953  19.485  20.476   8.026  0.3881  0.1557  0.0519
15037W        W57954  21.619  18.138   9.853 -0.1906 -0.1271  0.3663
15038W        W57955  16.646  22.720   9.850 -0.3334  0.3862  0.1009
15039W        W57956  19.319  17.565   9.919  0.0695 -0.0215  0.1256
15040W        W57957  20.224  19.554   6.579 -0.1390  0.1954 -0.1330
15041W        W57958  18.864  17.016  10.462  0.2965  0.1355 -0.1230
15042W        W57959  21.555  21.212   8.315 -0.0951  0.3124  0.3472
15043W        W57960  22.424  18.808   7.926  0.1490 -0.1770  0.2213
15044W        W57961  20.673  22.603   7.996  0.0860 -0.1083  0.1952
15045W        W57962  19.893  18.643   8.193 -0.1085 -0.1133  0.3846
15046W        W57963  21.362  19.313   7.804 -0.1349  0.0527 -0.0343
15047W        W57964  21.983  18.133   8.503  0.2209  0.3837  0.0599
15048W        W57965  19.254  18.077   7.441  0.2211  0.1363 -0.1519
15049W        W57966  20.807  17.836   9.534 -0.0387 -0.1558 -0.0217
15050W        W57967  19.592  20.668   5.358  0.0072  0.0677  0.1808
15051W        W57968  18.274  21.316   8.614  0.1384 -0.0154 -0.0700
15052W        W57969  20.603  21.379   7.145  0.1764 -0.0269 -0.0999
15053W        W57970  20.081  16.770   8.515 -0.2557  0.1092  0.1333
15054W        W57971  18.118  18.878   9.262 -0.3177 -0.3393 -0.1568
15055W        W57972  19.382  18.542   7.427  0.4478 -0.1698  0.2191
15056W        W57973  19.362  18.505   6.935 -0.3436  0.0196  0.1776
15057W        W57974  19.287  19.380   8.841  0.2138  0.1250  0.1376
15058W        W57975  19.080  17.766   7.816  0.1068  0.4259  0.1127
15059W        W57976  19.392  20.577   7.111  0.1953 -0.0851  0.1826
15060W        W57977  19.201  18.312  10.412  0.0478  0.1288 -0.0852
15061W        W57978  19.017  19.975   8.790 -0.1631  0.3911  0.0968
15062W        W57979  18.081  21.121   7.691  0.2115  0.1442  0.2136
15063W        W57980  20.293  18.817   9.595  0.2233  0.2045  0.2479
15064W        W57981  19.690  21.080   8.535  0.1778  0.1626 -0.1851
15065W        W57982  17.365  20.414   8.771 -0.2171  0.1648  0.2042
15066W        W57983  18.829  19.832  10.480  0.3867  0.2324  0.1951
15067W        W57984  20.717  19.610   6.477  0.0888  0.1278  0.1912
15068W        W57985  19.153  17.223   7.413  0.0658  0.0285 -0.3469
15069W        W57986  19.929  19.173   8.896 -0.0531  0.1706 -0.0484
15070W        W57987  20.165  16.721  10.430  0.0595  0.3543  0.2418
15071W        W57988  21.935  19.551   6.028  0.1179  0.0491 -0.1560
15072W        W57989  16.244  20.267   8.935 -0.1883 -0.1252  0.2748
15073W        W57990  18.267  21.201   9.122 -0.2415  0.2104 -0.1831
15074W        W57991  19.918  19.967   7.423 -0.2877  0.3441 -0.0994
15075W        W57992  20.776  21.114   7.533 -0.2433  0.1224 -0.1290
15076W        W57993  21.740  21.357   7.187 -0.0321  0.2485 -0.0319
15077W        W57994  18.458  20.293   6.362 -0.0976  0.0637 -0.0360
15078W        W57995  17.835  23.009   7.611  0.0216 -0.1624 -0.4516
15079W        W57996  16.794  20.908   7.271  0.2416  0.1034  0.0552
15080W        W57997  19.323  19.846   9.178 -0.0785  0.0630  0.0557
15081W        W57998  16.580  21.483   8.784 -0.2153 -0.2666 -0.1006
15082W        W57999  18.959  18.244   6.310 -0.0963 -0.1385 -0.0876
15083W        W58000  20.485  20.530   9.143  0.0476  0.0403 -0.0536
15084W        W58001  20.880  19.521   7.927 -0.0889  0.1872 -0.1762
15085W        W58002  18.882  19.122  10.968  0.5116  0.0016 -0.3119
15086W        W58003  21.448  19.402   5.291  0.0564 -0.1179  0.0649
15087W        W58004  21.921  22.374   8.552  0.0699  0.0512 -0.0464
15088W        W58005  18.261  18.865   6.850 -0.1631  0.1046  0.3834
15089W        W58006  17.388  20.428  10.135  0.0347 -0.0076 -0.4138
15090W        W58007  22.151  17.399   9.177 -0.0221  0.0493  0.0814
15091W        W58008  19.795  20.258   7.054 -0.0822  0.2948 -0.1162
15092W        W58009  20.503  18.021   7.641  0.1873  0.0685  0.0155
15093W        W58010  19.460  21.491   7.480  0.0339  0.4498 -0.2894
15094W        W58011  18.252  20.694   9.071 -0.1455 -0.2377 -0.3500
15095W        W58012  20.554  19.809   8.219 -0.1873 -0.4103  0.1153
15096W        W58013  18.357  18.867   7.445 -0.0950 -0.3164  0.1045
15097W        W58014  20.313  19.280   7.051 -0.1328 -0.3898 -0.1800
15098W        W58015  18.815  17.838   9.850 -0.1718  0.0011 -0.1576
15099W        W58016  19.905  18.832  10.610 -0.0441 -0.1365  0.1536
15100W        W58017  20.645  19.374   7.441 -0.0629  0.0495 -0.1115
15101W        W58018  19.715  18.232   9.008 -0.1124  0.1274 -0.3385
15102W        W58019  19.018  18.827  10.204  0.1302 -0.1890  0.2295
15103W        W58020  19.244  19.745   6.575  0.0565  0.1537  0.0377
15104W        W58021  19.800  17.954   9.822  0.2150  0.2479  0.2310
15105W        W58022  20.969  17.915   7.448 -0.3282  0.2470  0.1521
15106W        W58023  17.888  20.070   8.239 -0.1257 -0.2240  0.1884
15107W        W58024  19.214  22.334   9.272  0.0707  0.2041 -0.2272
15108W        W58025  19.702  16.647  10.165  0.1288  0.6800 -0.0210
15109W        W58026  21.857  20.350   5.250 -0.0950  0.0651  0.2330
15110W        W58027  20.274  17.798   9.688 -0.0144  0.2603 -0.1295
15111W        W58028  18.461  21.645   6.474  0.1176 -0.2690 -0.4021
15112W        W58029  20.203  19.830   8.973 -0.0592 -0.3246  0.0271
15113W        W58030  22.554  23.095   9.062  0.1196  0.0026  0.1918
15114W        W58031  17.441  20.255  10.644  0.4167  0.0375 -0.1724
15115W        W58032  20.055  20.301   8.899 -0.0127  0.0166  0.0548
15116W        W58033  19.567  20.679   8.983 -0.1849 -0.0998 -0.2155
15117W        W58034  20.324  17.595   8.199  0.2780 -0.0058 -0.2829
15118W        W58035  18.561  18.929   8.412  0.0939  0.0395 -0.1697
15119W        W58036  16.345  21.967   8.816 -0.0408  0.2949  0.3046
15120W        W58037  22.866  17.539   8.261  0.1297 -0.2796  0.2885
15121W        W58038  19.482  19.480   8.018  0.2795 -0.0947  0.0324
15122W        W58039  18.423  22.421   8.456  0.2456  0.4641  0.4081
15123W        W58040  18.579  18.423   8.425  0.0444  0.2420 -0.2618
15124W        W58041  19.250  20.744   8.469  0.1095 -0.0421  0.1873
15125W        W58042  17.924  21.995   8.969  0.1471 -0.1696  0.1398
15126W        W58043  20.608  19.188   9.525  0.1996  0.2143 -0.1906
15127W        W58044  19.879  19.158   8.021 -0.0095  0.0167 -0.0938
15128W        W58045  21.724  20.013   8.154  0.1643  0.1870 -0.1776
15129W        W58046  20.975  16.566   9.147  0.1728 -0.2484 -0.1026
15130W        W58047  18.949  16.446   6.358 -0.0159  0.2609  0.0476
15131W        W58048  20.448  18.698   6.861 -0.0897  0.1866  0.2215
15132W        W58049  18.171  18.247  10.786  0.0999  0.0281  0.0829
15133W        W58050  18.581  19.082   7.956 -0.0634  0.2212 -0.2064
15134W        W58051  17.474  20.383   8.261 -0.0144 -0.1696 -0.0585
15135W        W58052  16.597  20.408   9.413 -0.0671 -0.0872  0.1057
15136W        W58053  18.563  19.330   7.493  0.1959  0.1954  0.1926
15137W        W58054  18.025  18.556   8.259 -0.0848  0.1775 -0.2345
15138W        W58055  19.385  18.855   7.920 -0.0226 -0.5527  0.4655
15139W        W58056  18.789  18.945   9.713  0.0105  0.0935 -0.0254
15140W        W58057  20.105  18.680  10.186  0.1722  0.0668 -0.1335
15141W        W58058  19.974  19.235   9.635 -0.0976 -0.0286 -0.0707
15142W        W58059  20.277  20.865   7.574  0.0217  0.0819 -0.1029
15143W        W58060  18.238  16.705   9.651  0.0074 -0.0854  0.1752
15144W        W58061  17.532  19.855   6.896  0.0018 -0.3774  0.1124
15145W        W58062  15.206  20.664  10.119  0.0718  0.1507  0.0572
15146W        W58063  17.745  19.091   9.098  0.2092  0.3444  0.0657
15147W        W58064  21.169  21.029   7.979 -0.2694 -0.1104  0.2824
15148W        W58065  21.139  19.936   6.559  0.1336  0.2510 -0.1241
15149W        W58066  16.294  16.441   9.124 -0.0152  0.1557 -0.3230
15150W        W58067  20.436  19.071   6.403  0.1501  0.2118  0.2971
15151W        W58068  22.841  23.408   7.975  0.3266 -0.1812  0.0601
15152W        W58069  19.518  19.118   9.343  0.1596 -0.3409 -0.2151
15153W        W58070  18.484  17.959   6.930 -0.3230  0.1786 -0.1057
15154W        W58071  20.415  21.858   8.937  0.0559 -0.3507  0.0881
15155W        W58072  21.772  15.590   8.960  0.2700  0.1527  0.2705
15156W        W58073  20.597  16.128   9.716 -0.1026 -0.0428 -0.0387
15157W        W58074  20.628  21.111   8.015  0.3773 -0.2834 -0.3589
15158W        W58075  20.132  18.265   9.909 -0.2277 -0.0649  0.0587
15159W        W58076  20.792  18.885   9.066  0.1789 -0.1750  0.1843
15160W        W58077  18.732  20.675   8.873  0.4682  0.1203 -0.3144
15161W        W58078  17.711  18.053   7.189  0.2009 -0.0281  0.1465
15162W        W58079  22.190  18.489   6.888 -0.2330 -0.2487  0.0253
15163W        W58080  18.847  24.794   8.250 -0.1207 -0.0890 -0.0468
15164W        W58081  21.374  20.261   8.533 -0.3656 -0.0571 -0.1221
15165W        W58082  19.675  21.146   9.171 -0.0406  0.1145  0.1041
15166W        W58083  19.868  17.860   9.341 -0.1274  0.0662  0.1858
15167W        W58084  19.008  18.388   7.746  0.1362  0.1241  0.1417
15168W        W58085  19.744  18.183  10.325 -0.2657 -0.1265 -0.0471
15169W        W58086  23.122  18.727   7.929  0.0571 -0.0087 -0.0448
15170W        W58087  18.932  18.511   8.773  0.0796  0.0902  0.0935
15171W        W58088  19.710  16.868   8.854 -0.2063  0.2713  0.1209
15172W        W58089  21.421  22.017   8.498  0.0931  0.0771 -0.5425
15173W        W58090  19.519  19.137   8.426  0.0526 -0.1510 -0.1043
15174W        W58091  18.466  25.387   1.424  0.1111 -0.0155  0.0441
15175W        W58092  17.534  22.240  30.445  0.2672 -0.1960  0.0552
15176W        W58093  20.179  20.949  31.870 -0.0296 -0.3203 -0.0272
15177W        W58094  20.311  24.804   0.447 -0.2572 -0.2671 -0.0165
15178W        W58095  18.915  21.968  31.172  0.2474  0.0795  0.0055
15179W        W58096  20.133  23.803   2.703  0.0430 -0.3276 -0.0825
15180W        W58097  20.032  19.919   1.474 -0.0759 -0.1254  0.1662
15181W        W58098  21.800  25.036   2.038  0.1580  0.1731 -0.2079
15182W        W58099  19.276  23.623   3.134  0.2064 -0.2930  0.3714
15183W        W58100  18.972  24.123   1.325 -0.1603 -0.2999 -0.0127
15184W        W58101  18.205  21.458   0.337 -0.0433  0.1187  0.0938
15185W        W58102  19.555  24.596   0.495  0.0080  0.0365 -0.3023
15186W        W58103  19.802  20.766  31.034  0.0191 -0.0280 -0.3382
15187W        W58104  18.560  22.851  30.966 -0.0343 -0.0796  0.0929
15188W        W58105  20.483  22.574   3.377 -0.0840  0.0617  0.1627
15189W        W58106  18.728  24.176  31.949  0.0284 -0.2808  0.0061
15190W        W58107  18.903  22.481   1.518 -0.1662 -0.1093  0.3892
15191W        W58108  19.020  20.593  31.674 -0.1671 -0.0972 -0.0871
15192W        W58109  17.915  25.183   0.610 -0.4852 -0.1306 -0.1225
15193W        W58110  17.874  23.662   3.453  0.1070 -0.1807 -0.0695
15194W        W58111  19.700  20.460   1.389 -0.2886 -0.3372 -0.0109
15195W        W58112  20.007  24.530  31.851  0.1289  0.2052  0.0296
15196W        W58113  17.853  20.836  28.950 -0.1810 -0.1423 -0.2040
15197W        W58114  18.639  22.051   0.921  0.2481 -0.1397  0.1360
15198W        W58115  19.747  22.912   3.395 -0.0230 -0.1764 -0.1066
15199W        W58116  20.823  22.756  30.907  0.1567 -0.1595 -0.2714
15200W        W58117  21.773  23.967   0.015  0.1514  0.1539 -0.2218
15201W        W58118  20.763  23.488  31.630 -0.1520  0.2165 -0.1711
15202W        W58119  18.754  24.493   2.620 -0.1378 -0.4068 -0.0210
15203W        W58120  20.586  22.449   4.834 -0.0809 -0.0172  0.1102
15204W        W58121  18.950  24.633   1.786 -0.2181  0.4903  0.1352
15205W        W58122  18.018  24.040   1.659  0.1666 -0.0134  0.0270
15206W        W58123  18.957  23.908   0.514  0.5769 -0.0767 -0.0943
15207W        W58124  21.998  24.415   0.513  0.0520 -0.0324  0.1968
15208W        W58125  20.904  25.043   2.478 -0.0882  0.0478  0.1014
15209W        W58126  18.320  22.721   2.868 -0.0431  0.1656 -0.1470
15210W        W58127  17.815  24.725   0.749 -0.1386 -0.0606 -0.0529
15211W        W58128  20.634  23.355   1.992  0.0187 -0.1658  0.3762
15212W        W58129  18.984  24.651   3.519  0.2178  0.3522  0.0222
15213W        W58130  19.303  22.317   2.738 -0.1600  0.0217 -0.2534
15214W        W58131  19.520  21.643   0.438  0.2468  0.1362  0.2176
15215W        W58132  18.692  26.275  31.746 -0.0477  0.0766  0.3062
15216W        W58133  19.888  25.583  31.630 -0.3454  0.1176 -0.1426
15217W        W58134  18.710  21.810   2.719 -0.2593 -0.2340  0.5702
15218W        W58135  18.973  25.259   0.714  0.1030  0.1002  0.4238
15219W        W58136  21.789  21.984   2.621  0.1139 -0.0197  0.3194
15220W        W58137  16.710  23.674  31.013 -0.0042 -0.2566 -0.0378
15221W        W58138  19.806  22.381  31.031 -0.0868  0.4500  0.1314
15222W        W58139  18.038  21.597  28.370 -0.1177  0.3625 -0.0003
15223W        W58140  20.765  23.702   1.206 -0.2137 -0.0141  0.2022
15224W        W58141  21.474  22.233   1.092  0.1078  0.0920  0.2236
15225W        W58142  19.055  24.692  31.372  0.0605  0.0240  0.1807
15226W        W58143  20.845  22.600   3.007  0.1039 -0.0677 -0.0458
15227W        W58144  20.001  25.187   2.348 -0.0539  0.4125  0.1207
15228W        W58145  18.985  23.552   1.833 -0.1903 -0.0163  0.0902
15229W        W58146  20.275  22.726   1.806  0.0007  0.0899 -0.3177
15230W        W58147  17.242  22.485   0.160 -0.3213 -0.2529  0.0840
15231W        W58148  18.991  23.195  31.247  0.1245 -0.2021  0.2579
15232W        W58149  20.753  25.846   1.262  0.1486 -0.3128  0.1400
15233W        W58150  22.235  24.946   2.419  0.2513  0.0562 -0.2035
15234W        W58151  21.079  23.040  31.856 -0.0111 -0.0898  0.1663
15235W        W58152  17.548  22.492  31.396  0.2365  0.4420  0.0905
15236W        W58153  17.736  23.792   1.277 -0.1108 -0.0821 -0.2218
15237W        W58154  18.315  23.418   2.123 -0.0127  0.1918 -0.0487
15238W        W58155  20.196  17.751  29.208 -0.2066  0.0582  0.1217
15239W        W58156  23.185  23.742   3.919 -0.0170 -0.1531 -0.0846
15240W        W58157  18.404  24.079   3.058  0.0961 -0.0253  0.1179
15241W        W58158  20.485  22.208   0.273  0.2316 -0.3506  0.3282
15242W        W58159  21.090  25.090   1.573  0.1447 -0.1850  0.0820
15243W        W58160  21.333  22.953   1.515  0.0770  0.1759 -0.0363
15244W        W58161  18.197  25.053  31.256  0.1221 -0.0979 -0.1372
15245W        W58162  18.070  22.612  31.395  0.0337  0.0544  0.2830
15246W        W58163  18.117  21.194   0.792 -0.1405  0.1304 -0.3144
15247W        W58164  18.554  24.677  31.400  0.1982  0.1767 -0.1884
15248W        W58165  18.099  24.351   0.825  0.0063 -0.3202 -0.2698
15249W        W58166  21.325  23.401   3.132  0.0251 -0.1438  0.2581
15250W        W58167  21.517  22.716   0.122  0.0676  0.3082 -0.1358
15251W        W58168  19.847  24.851   1.435  0.3242 -0.2933  0.1029
15252W        W58169  18.843  21.717   1.735  0.0895  0.0226  0.3935
15253W        W58170  17.064  23.479   3.197  0.0784  0.0157 -0.0778
15254W        W58171  19.005  25.184  31.204 -0.2794  0.2167 -0.2418
15255W        W58172  18.980  23.005   1.058 -0.2267 -0.1336  0.0548
15256W        W58173  17.989  24.029  30.439  0.0070 -0.0343 -0.2066
15257W        W58174  18.269  22.557   1.457 -0.3342 -0.0440  0.0805
15258W        W58175  19.452  24.172   2.807  0.1290  0.0223 -0.1586
15259W        W58176  19.914  20.566  31.656 -0.0067  0.1098  0.1225
15260W        W58177  19.739  20.580   0.898  0.0549  0.1821 -0.3027
15261W        W58178  20.896  22.537   0.212  0.0018  0.2310  0.3146
15262W        W58179  19.571  24.636  31.549 -0.1078  0.1803  0.4498
15263W        W58180  21.699  23.441  31.779  0.0359 -0.3871 -0.0211
15264W        W58181  21.181  21.286  30.037 -0.0420 -0.2276  0.0833
15265W        W58182  20.389  24.860  31.460  0.0475  0.2575  0.1950
15266W        W58183  17.056  23.392  31.482  0.0068  0.0757 -0.1587
15267W        W58184  19.457  22.259   0.411 -0.1555  0.0978 -0.0202
15268W        W58185  18.073  22.544   1.966 -0.0122  0.2787 -0.3308
15269W        W58186  17.928  20.762   0.592  0.2251 -0.2682 -0.2202
15270W        W58187  20.866  22.324   3.613  0.0519 -0.1896 -0.0581
15271W        W58188  17.663  24.096  30.080 -0.3321  0.1839 -0.1328
15272W        W58189  20.548  22.525  30.517  0.0702 -0.2503 -0.1358
15273W        W58190  18.112  21.563   1.275  0.1864  0.0726  0.0832
15274W        W58191  19.300  24.148  31.642 -0.0116 -0.2784  0.0475
15275W        W58192  20.698  21.498   3.084 -0.2188 -0.4360  0.1635
15276W        W58193  19.847  25.424  31.027 -0.0177 -0.0610  0.1525
15277W        W58194  20.990  24.129   2.944 -0.1030  0.6281  0.1577
15278W        W58195  20.758  24.492   2.223  0.3846 -0.0642  0.0849
15279W        W58196  19.234  23.070   1.934 -0.1727 -0.0176  0.0133
15280W        W58197  18.858  21.055  31.634 -0.0407 -0.0581 -0.1785
15281W        W58198  18.833  23.747   0.971  0.0087 -0.1255 -0.1035
15282W        W58199  19.369  23.742   2.082  0.1344  0.1720  0.0146
15283W        W58200  20.333  20.993  30.174  0.0545  0.2039  0.3317
15284W        W58201  21.426  21.188   1.677 -0.0629  0.0267 -0.0279
15285W        W58202  19.898  23.728   0.357  0.0199  0.0774  0.0769
15286W        W58203  17.895  25.232   2.291 -0.1149 -0.2448 -0.0276
15287W        W58204  23.235  21.849   2.957 -0.3133 -0.2094 -0.2854
15288W        W58205  20.467  24.362  31.638  0.1605 -0.1091 -0.1664
15289W        W58206  22.220  23.985   0.382  0.0516 -0.0718 -0.2079
15290W        W58207  16.085  24.294  31.112  0.0480  0.1405  0.1989
15291W        W58208  21.327  24.116  31.710 -0.2054 -0.1581 -0.2455
15292W        W58209  17.203  25.634  29.131 -0.0692  0.0267 -0.0131
15293W        W58210  18.989  22.626   2.081  0.1378  0.2949 -0.1252
15294W        W58211  19.790  26.097  31.422  0.2581 -0.0429  0.0205
15295W        W58212  21.470  23.109   3.626  0.3947 -0.1118  0.0566
15296W        W58213  18.256  25.432   2.971 -0.0604 -0.0390  0.1401
15297W        W58214  18.747  22.357   2.786 -0.0345  0.2501 -0.2492
15298W        W58215  18.682  20.708  31.339 -0.1244 -0.0296 -0.1273
15299W        W58216  17.699  24.550   3.406  0.1021 -0.0508 -0.1827
15300W        W58217  18.384  21.952   0.421  0.1207  0.3491  0.0497
15301W        W58218  20.288  21.952  31.844  0.0662 -0.0789  0.0552
15302W        W58219  21.130  22.238   2.811  0.0541 -0.7357  0.0327
15303W        W58220  21.159  23.682  31.770  0.1111  0.2186  0.0480
15304W        W58221  21.176  21.599   0.379  0.1004 -0.0786  0.1238
15305W        W58222  19.985  24.766   0.804  0.1132 -0.0003  0.1900
15306W        W58223  19.414  23.135   1.482  0.3734 -0.1483  0.0145
15307W        W58224  19.695  23.271   2.259 -0.2250 -0.2594 -0.1327
15308W        W58225  19.833  23.204  30.555 -0.1467  0.1466  0.2110
15309W        W58226  18.902  22.118  30.324 -0.0245 -0.1162  0.0963
15310W        W58227  24.192  26.213  31.131 -0.1782  0.0548 -0.0590
15311W        W58228  18.394  23.889   1.974 -0.3790 -0.0732  0.2115
15312W        W58229  18.684  22.274   3.362  0.1655  0.0677  0.0624
15313W        W58230  21.780  24.335  31.499  0.0476 -0.2948 -0.2017
15314W        W58231  19.111  21.839   0.681 -0.1677  0.0277 -0.1202
15315W        W58232  19.414  24.445   0.044 -0.1821 -0.1351  0.2856
15316W        W58233  19.781  20.848   0.275  0.1925  0.3259  0.1155
15317W        W58234  18.146  27.013   0.366 -0.0713  0.0799 -0.0651
15318W        W58235  22.432  21.800   3.604  0.0331 -0.1908 -0.4044
15319W        W58236  21.100  22.972   0.511  0.1207 -0.4261  0.0054
15320W        W58237  20.813  21.828   0.826  0.2172 -0.4779 -0.1695
15321W        W58238  20.012  23.350   3.595  0.0774  0.2252 -0.2563
15322W        W58239  19.896  24.190   0.829  0.2135 -0.3075 -0.4391
15323W        W58240  19.315  23.812   1.540  0.0098  0.3402  0.1564
15324W        W58241  18.110  23.120  28.554  0.1724 -0.0991  0.0847
15325W        W58242  18.691  23.655   2.822 -0.1795  0.1120 -0.0636
15326W        W58243  17.045  23.254   1.727  0.1126  0.1884 -0.1011
15327W        W58244  18.636  25.735   2.030 -0.0181  0.1493 -0.1833
15328W        W58245  19.520  24.777   1.929  0.0483 -0.3020 -0.0763
15329W        W58246  20.404  23.579   0.230 -0.1388 -0.0483 -0.0048
15330W        W58247  20.178  22.318   2.218  0.0362  0.2108 -0.2139
15331W        W58248  19.687  21.737  31.350  0.0701 -0.1540 -0.0753
15332W        W58249  17.644  25.717  31.452  0.0276 -0.2380 -0.1222
15333W        W58250  19.663  23.480   1.786 -0.0232  0.0466  0.0676
15334W        W58251  20.054  22.284   1.072 -0.0324 -0.0053 -0.0125
15335W        W58252  18.523  25.533  31.887 -0.1213  0.2601  0.0535
15336W        W58253  18.087  23.654   0.254 -0.0413  0.4876 -0.2432
15337W        W58254  20.511  23.336   3.573  0.1500  0.0032  0.4205
15338W        W58255  20.379  25.016   0.942  0.3668 -0.0109 -0.0315
15339W        W58256  19.702  21.114  31.793 -0.0702 -0.0115 -0.0068
15340W        W58257  18.098  24.256   2.157 -0.1193  0.0530  0.0348
15341W        W58258  18.209  23.388  29.682  0.0693  0.2276  0.2072
15342W        W58259  18.908  21.535  31.501 -0.3759 -0.0059  0.3087
15343W        W58260  21.440  21.154   0.263  0.0773 -0.0260  0.3040
15344W        W58261  19.432  23.763  31.329  0.5321 -0.0938  0.0268
15345W        W58262  18.636  23.750   1.471  0.0259  0.0908  0.2459
15346W        W58263  19.887  21.858   1.308  0.1119 -0.2069  0.0041
15347W        W58264  19.687  24.035  31.949 -0.2763 -0.3342 -0.1129
15348W        W58265  19.569  22.213   1.328  0.1597  0.1519 -0.0329
15349W        W58266  19.001  22.673  30.243 -0.1960  0.1549 -0.0188
15350W        W58267  19.466  24.289   1.728 -0.1122 -0.0888  0.0122
15351W        W58268  18.863  22.766   2.536  0.1172 -0.2383 -0.1058
15352W        W58269  18.543  23.310   1.627 -0.0620 -0.0585 -0.3904
15353W        W58270  18.749  22.804   3.043  0.2195 -0.0329  0.0012
15354W        W58271  19.798  23.954   1.805  0.4749 -0.2065  0.0593
15355W        W58272  18.184  25.447   0.241 -0.0443  0.1564 -0.0730
15356W        W58273  19.968  24.821   2.727  0.3666 -0.2905 -0.2910
15357W        W58274  18.659  21.557  28.217  0.0887 -0.0312  0.1276
15358W        W58275  19.702  25.462   1.967  0.2096 -0.2040 -0.4018
15359W        W58276  19.473  21.997   3.838 -0.0071 -0.4914  0.0065
15360W        W58277  20.758  24.442   3.269  0.0426 -0.1521  0.2086
15361W        W58278  19.630  21.597   1.608 -0.0490  0.0140 -0.0352
15362W        W58279  18.194  23.026   0.852 -0.0999 -0.1768 -0.0530
15363W        W58280  18.802  21.498  30.998  0.1243 -0.1903  0.1637
15364W        W58281  21.274  23.720   1.422  0.0106 -0.1602 -0.2472
15365W        W58282  19.395  22.574   1.747  0.0145  0.0544 -0.3127
15366W        W58283  16.854  24.718   4.997 -0.0776 -0.0466  0.0066
15367W        W58284  20.207  19.435   1.383 -0.0674 -0.1770 -0.0753
15368W        W58285  21.285  25.913  30.195  0.0023  0.0722  0.1314
15369W        W58286  20.512  21.937   2.236 -0.1783 -0.3308  0.0826
15370W        W58287  17.444  21.620  31.265 -0.2028  0.0706 -0.0409
15371W        W58288  18.324  23.469   1.134  0.0690 -0.4747 -0.0604
15372W        W58289  18.381  23.832   0.675 -0.1501  0.1188 -0.0364
15373W        W58290  19.374  21.396  31.517  0.2232  0.2849  0.1135
15374W        W58291  19.610  22.010   0.892  0.3951  0.0320  0.1425
15375W        W58292  18.116  24.534   0.028 -0.0011  0.0543 -0.2029
15376W        W58293  16.151  24.297   2.752  0.0075  0.1955 -0.0691
15377W        W58294  20.063  19.386  28.038 -0.1799  0.0501  0.1606
15378W        W58295  19.153  24.420   0.815 -0.0732 -0.1988 -0.0944
15379W        W58296  19.028  22.941  31.651 -0.0430 -0.0554  0.1367
15380W        W58297  21.631  19.154   1.757  0.0030  0.0915 -0.0407
15381W        W58298  21.606  25.949  31.766  0.0736  0.1266 -0.1039
15382W        W58299  18.654  22.206   1.851  0.0098  0.1809 -0.0353
15383W        W58300  18.090  21.754   3.378 -0.1500 -0.2745  0.3180
15384W        W58301  23.409  22.904  31.774 -0.1581 -0.1969  0.3723
15385W        W58302  15.702  24.614   3.175  0.0540 -0.1026  0.0167
15386W        W58303  18.613  23.536   4.468  0.3036  0.0207 -0.0863
15387W        W58304  17.842  23.763   2.135 -0.2378 -0.0045  0.4147
15388W        W58305  20.083  23.200   0.190  0.1690 -0.1810 -0.2290
15389W        W58306  21.080  19.835  29.038 -0.1391  0.0104  0.2356
15390W        W58307  18.917  24.021   1.868 -0.1925  0.0973  0.4481
15391W        W58308  20.649  22.129   1.348  0.3622  0.3118  0.1585
15392W        W58309  20.721  23.936   0.106  0.2061 -0.1662  0.0160
15393W        W58310  22.148  21.812   2.190  0.1189 -0.1758  0.1536
15394W        W58311  19.573  24.669   1.080 -0.0825  0.1406  0.0393
15395W        W58312  21.117  22.533  30.508  0.0482 -0.1912  0.3036
15396W        W58313  19.795  24.086  31.505 -0.0005 -0.2455  0.2757
15397W        W58314  17.962  22.747   0.385 -0.2549 -0.0388 -0.0115
15398W        W58315  21.104  19.652   3.213  0.2704 -0.0703  0.2440
15399W        W58316  20.969  23.615   2.760  0.2001  0.1531  0.3015
15400W        W58317  20.033  23.259   0.662 -0.0416 -0.0526  0.1683
15401W        W58318  20.116  22.592   3.036  0.1462 -0.1479 -0.2706
15402W        W58319  20.286  22.780   0.327  0.1146  0.1328  0.1014
15403W        W58320  18.244  23.578   3.094  0.1419  0.2189 -0.0015
15404W        W58321  17.160  21.790   2.228 -0.2037 -0.1279 -0.2183
15405W        W58322  19.833  24.206   3.147 -0.0386 -0.2814  0.0838
15406W        W58323  24.061  22.361  31.042 -0.2733 -0.0714 -0.0609
15407W        W58324  21.007  22.092   0.419 -0.0536  0.1692 -0.0485
15408W        W58325  19.846  23.014  31.078 -0.3794 -0.1899 -0.0367
15409W        W58326  18.755  22.918   0.559 -0.0241  0.2049  0.3436
15410W        W58327  18.908  22.987   1.577 -0.1070  0.3806 -0.0935
15411W        W58328  20.167  24.253   3.528  0.0756 -0.1041  0.1288
15412W        W58329  17.660  19.704  29.361  0.0495  0.3289  0.1231
15413W        W58330  19.759  22.426   2.601  0.0847 -0.1837  0.0300
15414W        W58331  19.059  26.258  29.138 -0.0328  0.2238 -0.1135
15415W        W58332  20.803  23.193   1.385  0.2783  0.1510  0.0579
15416W        W58333  19.485  24.366   2.269  0.0563 -0.0448 -0.1414
15417W        W58334  15.934  21.147  31.882  0.0511 -0.2103  0.0021
15418W        W58335  17.369  25.704   2.885  0.0174  0.0645 -0.0666
15419W        W58336  19.122  22.918  29.538  0.0943  0.0144  0.0441
15420W        W58337  19.223  24.433  30.302  0.0098 -0.1302 -0.1658
15421W        W58338  20.381  23.667   1.730  0.0988 -0.1563  0.0990
15422W        W58339  21.782  23.595   2.808 -0.2466  0.4970  0.1519
15423W        W58340  19.463  20.674  31.922 -0.2610 -0.0139  0.2094
15424W        W58341  19.980  24.308   2.694  0.2872  0.0061 -0.1778
15425W        W58342  17.454  23.538  30.207  0.0860 -0.0612  0.1728
15426W        W58343  19.324  22.863   0.587 -0.1982 -0.0531 -0.0892
15427W        W58344  17.573  25.230   0.001 -0.1459 -0.3056  0.2070
15428W        W58345  17.699  24.848   1.252 -0.0970 -0.1624 -0.0228
15429W        W58346  19.224  25.153   2.053  0.3252 -0.0990  0.0734
15430W        W58347  20.615  22.391   1.980 -0.3726  0.1482  0.0337
15431W        W58348  20.388  22.034   0.735 -0.2360 -0.1689 -0.1235
15432W        W58349  20.996  24.492   1.804 -0.4240 -0.0629 -0.0296
15433W        W58350  17.879  22.815   3.567  0.2389 -0.0527  0.2082
15434W        W58351  20.271  24.111   1.633  0.1248  0.2218  0.2455
15435W        W58352  18.805  24.601   1.278 -0.0388 -0.0453  0.5398
15436W        W58353  19.701  24.895  31.959  0.2730  0.4447 -0.1678
15437W        W58354  20.857  23.261  30.985  0.1105  0.0601 -0.2735
15438W        W58355  18.985  25.686  31.503 -0.1976  0.1780 -0.0988
15439W        W58356  17.520  22.591   3.781  0.4067 -0.0835 -0.1183
15440W        W58357  19.015  23.263   2.875 -0.2056 -0.2148  0.1561
15441W        W58358  21.061  23.627   2.226  0.1078 -0.1451  0.4362
15442W        W58359  19.357  22.359  31.905 -0.1023  0.0274  0.0159
15443W        W58360  19.042  24.382   0.365 -0.4732  0.2742  0.2200
15444W        W58361  17.739  24.204   3.040 -0.2921  0.1646  0.1526
15445W        W58362  18.190  23.427  31.752 -0.0957 -0.2941 -0.0381
15446W        W58363  17.698  26.713  30.796  0.1456  0.5032 -0.4777
15447W        W58364  19.050  23.772  30.874 -0.2066  0.0278 -0.1982
15448W        W58365  18.158  23.115  31.047 -0.4948  0.1000 -0.1110
15449W        W58366  21.118  25.905   1.588  0.0220  0.0029  0.0198
15450W        W58367  18.925  22.015   0.102 -0.4867  0.0696  0.0526
15451W        W58368  18.415  22.600   0.452  0.0460 -0.1011  0.1832
15452W        W58369  18.562  22.811  31.458  0.1596  0.0883 -0.0613
15453W        W58370  20.229  22.880  31.367 -0.2606 -0.1365  0.0661
15454W        W58371  16.516  25.898  30.907  0.0943  0.2016  0.1541
15455W        W58372  20.465  23.572   4.354  0.0525  0.2119 -0.1896
15456W        W58373  19.250  21.304  30.649 -0.0037  0.0175  0.0891
15457W        W58374  21.158  24.026   1.905  0.2494  0.1763 -0.0953
15458W        W58375  23.365  22.839   1.959  0.0316 -0.2062  0.2875
15459W        W58376  20.784  23.017   3.266  0.0199  0.3142  0.1780
15460W        W58377  18.995  22.668   0.100 -0.1152 -0.4738 -0.3273
15461W        W58378  18.285  24.675   1.274  0.0040 -0.2386 -0.3626
15462W        W58379  16.337  23.044   2.346 -0.0413  0.4195 -0.0743
15463W        W58380  21.619  21.017   2.606  0.4681  0.1758  0.3361
15464W        W58381  17.235  24.624   3.246 -0.3470  0.2447 -0.2334
15465W        W58382  19.357  24.376  31.183 -0.1328 -0.0187 -0.1415
15466W        W58383  17.177  21.444  29.551 -0.0937 -0.0234  0.1890
15467W        W58384  17.663  22.967  31.030 -0.0030  0.0020 -0.0230
15468W        W58385  20.129  22.709   0.803  0.1807 -0.0002  0.0357
15469W        W58386  18.680  22.842  29.841  0.1680 -0.1511 -0.0567
15470W        W58387  20.174  22.199  30.691 -0.0159  0.0142 -0.1044
15471W        W58388  19.504  23.586  28.778  0.1880 -0.1478 -0.0634
15472W        W58389  18.432  24.180  31.323 -0.0929 -0.3865 -0.0137
15473W        W58390  17.375  26.274  30.756 -0.2838  0.1540 -0.2775
15474W        W58391  18.040  22.623  30.913 -0.1743 -0.2070 -0.0370
15475W        W58392  21.858  21.782  31.460 -0.0286  0.1880 -0.0216
15476W        W58393  19.745  23.320   3.150  0.0942 -0.1388  0.2623
15477W        W58394  19.818  21.645  31.790  0.1286 -0.0141  0.2565
15478W        W58395  18.144  21.962   0.924 -0.3955 -0.2553 -0.0525
15479W        W58396  19.301  21.650  31.027 -0.1834  0.1193  0.1503
15480W        W58397  21.507  22.931   2.243  0.4254 -0.0571 -0.1324
15481W        W58398  17.255  23.622   2.189 -0.0648  0.1702  0.3844
15482W        W58399  17.626  23.725  30.752  0.0045 -0.1006 -0.1517
15483W        W58400  21.948  22.712   2.089 -0.2052  0.3608  0.1714
15484W        W58401  19.290  22.655   1.250  0.0828  0.0193  0.0601
15485W        W58402  20.354  25.583   2.340 -0.2164  0.6467 -0.5696
15486W        W58403  17.417  23.629   0.634 -0.2468 -0.1120  0.1785
15487W        W58404  20.321  24.031   0.477 -0.3387 -0.1485  0.0508
15488W        W58405  18.475  20.644  28.544 -0.0212 -0.3711 -0.1618
15489W        W58406  17.533  23.667   1.732 -0.0030 -0.2745 -0.0504
15490W        W58407  20.576  24.010   4.116 -0.2868  0.2393 -0.0190
15491W        W58408  17.812  21.779   0.336 -0.0710  0.2058  0.0751
15492W        W58409  21.948  24.527  31.953 -0.0018 -0.1294 -0.2278
15493W        W58410  21.265  23.321   1.880 -0.2095 -0.0969 -0.1606
15494W        W58411  17.352  26.137  31.714  0.0961  0.0599 -0.3425
15495W        W58412  22.379  22.788   0.132  0.2150  0.0249  0.3178
15496W        W58413  20.599  25.027   3.975  0.0823 -0.4288  0.2759
15497W        W58414  16.441  22.625   1.391 -0.0464  0.3440 -0.2042
15498W        W58415  21.174  22.486  31.631 -0.1866  0.0299  0.1848
15499W        W58416  20.868  23.645   1.675 -0.1388  0.4436 -0.1541
15500W        W58417  19.972  23.201   1.216 -0.0811 -0.0369 -0.2812
15501W        W58418  20.018  23.732   1.364 -0.1836  0.1079  0.0591
15502W        W58419  17.506  22.882   0.333 -0.0210  0.1519  0.2062
15503W        W58420  21.716  23.597   1.680 -0.2360  0.3089 -0.1907
15504W        W58421  20.312  23.072   4.015 -0.2437 -0.2060  0.0951
15505W        W58422  19.511  23.211  31.408  0.1583  0.2710 -0.1887
15506W        W58423  20.959  21.698   2.269 -0.2670 -0.0855  0.0037
15507W        W58424  18.648  25.419   3.773 -0.1067 -0.1982 -0.0409
15508W        W58425  17.405  25.057   4.076  0.0702 -0.0411 -0.0105
15509W        W58426  16.980  21.544  31.168  0.2044 -0.1545 -0.4088
15510W        W58427  20.885  22.578   1.350 -0.0846  0.0386  0.2305
15511W        W58428  19.200  23.711   2.656 -0.3054  0.1253  0.0068
15512W        W58429  19.105  23.380   0.650  0.1155  0.0684  0.1985
15513W        W58430  21.457  24.585   1.630  0.0521 -0.0980 -0.1696
15514W        W58431  18.716  20.996  30.954  0.3680 -0.2455  0.5476
15515W        W58432  22.528  25.558   1.687  0.1787  0.0801 -0.0626
15516W        W58433  18.320  21.737  31.887 -0.0625  0.0329  0.0557
15517W        W58434  19.976  21.087   0.802 -0.0241 -0.0776 -0.0064
15518W        W58435  19.564  20.354  31.249  0.4810  0.0490  0.0858
15519W        W58436  20.147  24.494   1.231 -0.1323 -0.2691  0.0408
15520W        W58437  18.010  21.860  30.570 -0.2819 -0.1942 -0.0605
15521W        W58438  17.586  24.645  28.979  0.0060  0.1097  0.0897
15522W        W58439  18.497  24.275   1.515  0.1256  0.1324  0.0419
15523W        W58440  20.280  22.715   2.457  0.0871 -0.0751 -0.0154
15524W        W58441  19.046  22.056   3.079  0.1998  0.1252  0.2332
15525W        W58442  17.287  22.751   1.081  0.0935  0.0932 -0.1318
15526W        W58443  17.503  22.113  31.820  0.2226 -0.2325  0.2353
15527W        W58444  20.644  24.724   1.325  0.0894  0.1169 -0.0217
15528W        W58445  19.841  22.920   2.571 -0.3330  0.1331  0.1859
15529W        W58446  18.502  22.940   1.253  0.0318 -0.2192  0.0541
15530W        W58447  21.010  23.134   2.820 -0.0108 -0.1371  0.0314
15531W        W58448  20.650  24.325  31.123  0.1167 -0.0661  0.0121
15532W        W58449  17.895  22.160  31.168 -0.2125  0.0016 -0.0173
15533W        W58450  19.880  25.082   3.425  0.0733 -0.3127 -0.1780
15534W        W58451  16.487  21.839  30.116  0.0379  0.1101 -0.1755
15535W        W58452  19.122  23.545   4.455  0.0844 -0.1407  0.0408
15536W        W58453  19.264  21.722   2.686  0.2134 -0.1761  0.1601
15537W        W58454  18.588  19.641  31.554  0.0550  0.0156 -0.0803
15538W        W58455  19.787  22.005   1.896  0.2241  0.2191  0.0397
15539W        W58456  20.358  24.406   0.799  0.4749 -0.0534  0.4160
15540W        W58457  20.340  24.140  30.371  0.2438  0.1548  0.0040
15541W        W58458  18.481  25.245   0.617  0.2193  0.1353 -0.0677
15542W        W58459  20.739  24.713   0.783  0.0306 -0.2644 -0.3422
15543W        W58460  18.891  21.180   2.097  0.0167  0.1365  0.0541
15544W        W58461  22.328  22.325   0.613  0.3992  0.2526  0.1247
15545W        W58462  20.168  23.725   0.835 -0.2545 -0.1338  0.1470
15546W        W58463  21.536  23.473   0.759  0.2769 -0.3820  0.2440
15547W        W58464  19.988  22.252   0.502 -0.1337  0.0486 -0.1721
15548W        W58465  17.006  22.291  31.669 -0.0844  0.4320 -0.2540
15549W        W58466  18.384  20.573   0.613  0.0002  0.2784 -0.1217
15550W        W58467  20.796  24.249   0.987 -0.0345  0.2450  0.1224
15551W        W58468  20.303  23.761   3.693 -0.1139 -0.0158 -0.2905
15552W        W58469  18.160  20.018  31.605 -0.3201 -0.3260 -0.3472
15553W        W58470  19.606  23.261   0.307 -0.0385 -0.0003  0.0782
15554W        W58471  19.507  24.068   0.463  0.0596  0.0485  0.1540
15555W        W58472  17.927  23.737   0.799  0.0867  0.0369 -0.1586
15556W        W58473  18.504  22.320   0.051 -0.1155  0.3214  0.1888
15557W        W58474  19.678  23.726   2.904  0.1919 -0.1739  0.1457
15558W        W58475  20.339  25.085   1.577  0.0454  0.1084  0.2769
15559W        W58476  19.415  24.922   3.367  0.0036 -0.0050 -0.0551
15560W        W58477  19.177  22.244   0.974 -0.1433 -0.1403 -0.0280
15561W        W58478  21.921  22.591  31.870 -0.3922 -0.0448 -0.0459
15562W        W58479  19.710  23.780   2.382 -0.2276  0.3222 -0.1451
15563W        W58480  21.030  23.109   2.268  0.1051  0.0867  0.0902
15564W        W58481  20.090  23.322   2.685  0.0267 -0.1135  0.1365
15565W        W58482  21.066  22.594   1.977 -0.0808  0.2473 -0.1363
15566W        W58483  17.583  20.817   2.783 -0.3731  0.2494  0.3200
15567W        W58484  16.846  22.543  31.294 -0.3385  0.1629 -0.0346
15568W        W58485  17.362  22.268  29.211  0.0867  0.0796 -0.3852
15569W        W58486  19.808  22.719   1.259 -0.1577 -0.1324 -0.0854
15570W        W58487  19.720  24.145   1.316  0.1590  0.2894 -0.1629
15571W        W58488  19.258  21.938  31.550 -0.1210 -0.0218  0.0010
15572W        W58489  18.281  25.716   2.340  0.1971 -0.1898 -0.0220
15573W        W58490  21.186  22.219   1.491  0.0355 -0.1257  0.1599
15574W        W58491  19.377  22.690   6.371 -0.1710  0.2198 -0.3580
15575W        W58492  18.995  21.484   6.411  0.0195 -0.0955  0.0741
15576W        W58493  21.182  20.268   1.866 -0.1711 -0.0170 -0.1730
15577W        W58494  19.822  20.621   4.482 -0.1783 -0.0275  0.2676
15578W        W58495  18.004  21.235   4.278  0.2328  0.1988 -0.0477
15579W        W58496  19.928  26.101   2.740  0.1196 -0.1289  0.1597
15580W        W58497  17.713  21.444   3.582 -0.0499  0.0634 -0.1041
15581W        W58498  21.523  23.388   5.753  0.3448 -0.2101  0.2818
15582W        W58499  21.713  25.014   5.831 -0.2766 -0.2178  0.1993
15583W        W58500  21.210  24.241   1.378 -0.3187  0.3164  0.0695
15584W        W58501  19.627  23.726   4.931 -0.0720 -0.2136 -0.0045
15585W        W58502  18.907  22.531   5.658  0.1817  0.0543  0.0815
15586W        W58503  18.490  21.329   1.873 -0.1749 -0.0336 -0.0401
15587W        W58504  17.249  19.807   3.699 -0.0244  0.0076  0.1066
15588W        W58505  19.811  21.365   4.987  0.2547  0.1304  0.1184
15589W        W58506  18.885  23.894   3.279 -0.0312 -0.0293  0.0823
15590W        W58507  18.142  23.266   4.496 -0.0994  0.0491  0.1502
15591W        W58508  21.113  21.745   3.121  0.0387 -0.3523  0.0854
15592W        W58509  19.947  25.921   5.120 -0.2865  0.4415  0.0632
15593W        W58510  19.196  18.922   7.171  0.0380  0.0625  0.0927
15594W        W58511  19.503  21.083   7.125 -0.1597  0.2880  0.0611
15595W        W58512  21.339  25.284   4.442 -0.1271 -0.1021 -0.1877
15596W        W58513  18.427  22.627   4.356 -0.2092  0.0144  0.2223
15597W        W58514  17.015  21.864   6.022 -0.1208 -0.3057  0.1987
15598W        W58515  17.659  24.783   4.745 -0.2848 -0.1390 -0.0449
15599W        W58516  20.239  22.329   5.673  0.1760 -0.3582  0.1929
15600W        W58517  20.650  24.512   3.853  0.1832  0.1172  0.0405
15601W        W58518  20.308  25.259   4.423  0.0312  0.1342 -0.4385
15602W        W58519  20.463  26.294   5.361  0.1264 -0.4076  0.3162
15603W        W58520  19.860  23.015   6.671  0.1093  0.1917  0.0339
15604W        W58521  19.646  26.066   5.476  0.0661  0.0699 -0.0557
15605W        W58522  17.763  23.869   3.911  0.1684  0.3709 -0.4141
15606W        W58523  21.057  25.661   4.604 -0.0048 -0.1865 -0.0943
15607W        W58524  22.052  24.660   3.655  0.3225  0.1186  0.1579
15608W        W58525  21.162  23.067   6.765  0.0085  0.4728  0.1948
15609W        W58526  17.037  24.623   5.743  0.0507 -0.0646  0.1314
15610W        W58527  18.698  24.243   3.613  0.0244 -0.1217 -0.0401
15611W        W58528  19.083  25.708   3.641  0.0102 -0.1297  0.0114
15612W        W58529  18.287  24.501   6.445  0.2181 -0.1466 -0.4084
15613W        W58530  19.958  22.279   4.014 -0.0569  0.2550 -0.0555
15614W        W58531  21.301  24.466   3.114 -0.3188  0.1443 -0.4799
15615W        W58532  19.532  26.006   3.668  0.1759 -0.1405 -0.0201
15616W        W58533  20.061  23.536   4.639  0.1726  0.1341  0.0146
15617W        W58534  16.641  22.338   6.761  0.0506  0.1550 -0.2878
15618W        W58535  18.289  23.952   5.680  0.2679 -0.1746  0.1906
15619W        W58536  21.558  22.844   5.785 -0.2617  0.1179  0.3038
15620W        W58537  18.326  24.660   3.516 -0.0606  0.0860 -0.0751
15621W        W58538  22.157  23.834   3.669 -0.1075 -0.1164 -0.3278
15622W        W58539  18.300  23.997   1.140  0.1668 -0.3340 -0.1037
15623W        W58540  20.087  23.965   4.906 -0.1375  0.2423  0.1296
15624W        W58541  19.411  20.719   3.174 -0.0830 -0.1891 -0.0353
15625W        W58542  18.886  22.933   5.280  0.2443 -0.1454  0.2423
15626W        W58543  20.440  22.749   5.154  0.0513 -0.1107  0.2984
15627W        W58544  20.142  23.026   5.958  0.1068  0.0077 -0.3009
15628W        W58545  20.771  24.085   3.609  0.1724  0.2021  0.2204
15629W        W58546  20.520  23.537   7.122  0.0488  0.3546  0.0112
15630W        W58547  18.754  24.914   3.914 -0.0869 -0.4831 -0.0006
15631W        W58548  17.277  21.393   3.746  0.2540  0.0807  0.0719
15632W        W58549  19.394  22.361   2.201 -0.3623 -0.1550 -0.1687
15633W        W58550  20.761  23.582   3.870  0.2302 -0.0364  0.0525
15634W        W58551  20.104  22.567   4.629  0.2055 -0.4205 -0.3299
15635W        W58552  17.889  24.337   4.772  0.1343 -0.1604  0.1551
15636W        W58553  16.301  24.152   6.103 -0.2805 -0.0366  0.2254
15637W        W58554  17.539  22.831   5.777 -0.4365  0.2369  0.0905
15638W        W58555  19.014  20.864   0.112  0.0625 -0.3123  0.1194
15639W        W58556  19.503  21.917   5.887 -0.0623  0.1115  0.1519
15640W        W58557  17.416  24.044   8.052  0.0954 -0.3601  0.0659
15641W        W58558  19.917  20.860   4.958 -0.3016  0.1248  0.0401
15642W        W58559  18.907  22.691   4.143 -0.0074  0.1092  0.0034
15643W        W58560  21.286  23.777   5.333 -0.0234 -0.3054  0.1617
15644W        W58561  20.988  23.679   4.393 -0.5359  0.0756  0.0411
15645W        W58562  18.391  20.990   6.363 -0.1234  0.3101 -0.1469
15646W        W58563  19.346  19.890   4.854 -0.3164 -0.1533 -0.0704
15647W        W58564  19.032  23.652   3.657 -0.1759  0.1054  0.1216
15648W        W58565  20.203  24.797   3.588  0.0083  0.2934 -0.1428
15649W        W58566  20.220  23.174   5.404 -0.3878  0.1240 -0.0042
15650W        W58567  22.837  23.637   4.293  0.1125 -0.1924  0.0579
15651W        W58568  19.579  25.562   4.989  0.3754  0.0373  0.1566
15652W        W58569  18.600  21.679   7.758 -0.0535  0.1973  0.3138
15653W        W58570  18.684  23.678   5.949 -0.0829 -0.1989  0.2463
15654W        W58571  17.860  25.805   4.206  0.0805 -0.1084  0.0532
15655W        W58572  18.617  23.266   4.953 -0.3259  0.0762 -0.0937
15656W        W58573  18.697  24.175   4.512 -0.1340 -0.1690  0.0754
15657W        W58574  18.781  21.298   4.950  0.2599  0.3661 -0.0269
15658W        W58575  16.792  23.252   4.866 -0.1586 -0.2452 -0.0190
15659W        W58576  20.360  23.011   6.378  0.1660  0.3268  0.0294
15660W        W58577  16.904  21.573   6.455  0.2409 -0.1594  0.0720
15661W        W58578  21.196  22.060   5.467 -0.3264 -0.0277  0.2199
15662W        W58579  20.813  25.864   3.578 -0.0406 -0.0702  0.0022
15663W        W58580  21.829  25.275   4.372 -0.2936 -0.1881  0.0142
15664W        W58581  19.726  23.012   3.863 -0.2026  0.3614 -0.1495
15665W        W58582  20.045  23.602   4.029 -0.1169  0.3083 -0.1582
15666W        W58583  16.238  22.318   5.058  0.0619 -0.0047  0.0060
15667W        W58584  18.303  23.665   2.546 -0.0068  0.1600  0.0819
15668W        W58585  16.612  22.393   5.414 -0.0149 -0.1536 -0.0203
15669W        W58586  17.766  22.143   2.879 -0.1571  0.0930 -0.0179
15670W        W58587  19.309  21.392   4.986  0.1527  0.0609 -0.0186
15671W        W58588  16.445  23.248   5.291  0.0463 -0.0799 -0.0642
15672W        W58589  19.660  23.726   4.384 -0.1729  0.1579 -0.0943
15673W        W58590  19.945  22.719   5.070 -0.0295 -0.0486 -0.0087
15674W        W58591  18.633  21.789   3.247 -0.0769 -0.0675  0.0529
15675W        W58592  21.030  22.169   4.956 -0.0638 -0.1496 -0.4778
15676W        W58593  19.894  23.206   4.991  0.0758  0.0361 -0.0662
15677W        W58594  23.899  25.112   4.659 -0.1922 -0.1595 -0.0284
15678W        W58595  20.735  25.023   5.196 -0.0080 -0.0527 -0.0864
15679W        W58596  18.972  21.038   6.974  0.0463 -0.0813 -0.0290
15680W        W58597  18.355  22.660   3.461 -0.0046  0.3354 -0.3480
15681W        W58598  18.364  24.566   7.018 -0.2077  0.1301  0.1204
15682W        W58599  18.220  23.567   4.957 -0.3052  0.0524 -0.0190
15683W        W58600  20.812  21.389   2.602  0.3996  0.2481 -0.1508
15684W        W58601  21.571  25.447   5.535 -0.1774 -0.1318  0.2185
15685W        W58602  20.168  24.440   4.012 -0.2787  0.2360  0.0012
15686W        W58603  19.479  21.809   4.775  0.0842 -0.0172  0.0045
15687W        W58604  19.560  21.280   6.499 -0.0458 -0.2514 -0.0317
15688W        W58605  19.642  22.365   5.171 -0.2751  0.0793  0.2748
15689W        W58606  19.833  25.446   4.242  0.1131 -0.0941  0.0422
15690W        W58607  17.740  20.706   1.477  0.3224 -0.1516  0.0643
15691W        W58608  19.954  27.551   5.137 -0.0876 -0.2811 -0.1928
15692W        W58609  18.613  25.125   4.899 -0.1764 -0.0044  0.1044
15693W        W58610  19.650  24.893   5.712 -0.1104 -0.5211  0.1361
15694W        W58611  19.520  25.107   3.892  0.1479  0.2188 -0.2554
15695W        W58612  20.423  21.544   5.163 -0.0590  0.2461  0.2456
15696W        W58613  19.671  22.484   6.775  0.1457  0.6058 -0.2220
15697W        W58614  19.121  21.631   5.827 -0.1442  0.0707 -0.3256
15698W        W58615  17.108  22.189   4.577 -0.1711 -0.0636  0.2496
15699W        W58616  18.674  24.117   6.454 -0.0907 -0.2696 -0.0605
15700W        W58617  20.002  21.646   4.590  0.2285  0.3050 -0.0072
15701W        W58618  20.292  22.124   4.415  0.0230  0.1149 -0.0525
15702W        W58619  18.509  22.133   5.616  0.3281 -0.1111  0.1218
15703W        W58620  20.551  22.817   5.650 -0.2711  0.0927 -0.4871
15704W        W58621  19.792  21.893   4.261 -0.0362  0.2707  0.1888
15705W        W58622  20.258  21.418   2.690  0.0250 -0.1983 -0.1421
15706W        W58623  17.365  23.656   5.470 -0.0101 -0.3759  0.1561
15707W        W58624  19.394  25.128   4.940 -0.2195 -0.0084 -0.2271
15708W        W58625  19.191  24.522   4.600 -0.1386 -0.0306  0.0571
15709W        W58626  19.366  22.856   2.419  0.0433 -0.0657 -0.0363
15710W        W58627  22.063  23.617   4.227  0.2819 -0.0184  0.0994
15711W        W58628  16.496  23.014   4.491  0.0191 -0.1019 -0.0438
15712W        W58629  21.842  23.559   6.092  0.0842  0.2371 -0.1058
15713W        W58630  19.674  24.436   4.183  0.0537 -0.3353  0.0396
15714W        W58631  18.570  21.905   5.086  0.1686  0.3730  0.1518
15715W        W58632  18.353  25.111   4.224  0.1101  0.1058  0.2065
15716W        W58633  21.333  21.891   3.555  0.2458  0.0057  0.0004
15717W        W58634  17.257  24.498   2.694 -0.2659  0.1712  0.0294
15718W        W58635  21.422  22.928   6.303 -0.1498 -0.0754  0.0786
15719W        W58636  19.985  23.437   6.298  0.3788 -0.0715  0.1606
15720W        W58637  19.558  21.945   7.634 -0.1522 -0.3973  0.1284
15721W        W58638  20.395  20.762   5.127 -0.0521 -0.2172 -0.2594
15722W        W58639  19.100  22.081   5.566  0.0405 -0.1567  0.2901
15723W        W58640  20.429  22.478   4.028  0.1306  0.0248  0.3625
15724W        W58641  16.812  21.827   3.757  0.1756  0.5860  0.2205
15725W        W58642  19.944  22.042   6.843  0.0094  0.0722 -0.0140
15726W        W58643  17.119  22.676   5.572  0.1294  0.1186  0.1492
15727W        W58644  19.335  26.614   3.957  0.2012 -0.1547 -0.0815
15728W        W58645  19.553  23.774   6.503  0.1241 -0.1359  0.3239
15729W        W58646  20.950  21.616   4.921 -0.1044  0.2002  0.4630
15730W        W58647  19.526  23.215   6.326  0.2868 -0.1200  0.2580
15731W        W58648  19.909  22.103   4.789 -0.0820  0.1263  0.0120
15732W        W58649  18.674  24.498   3.135  0.2039 -0.1057  0.1207
15733W        W58650  18.313  24.668   4.005 -0.2093 -0.1071 -0.0572
15734W        W58651  18.645  21.425   6.014  0.0431  0.3188  0.3849
15735W        W58652  19.823  24.042   3.875  0.1648 -0.2689 -0.0488
15736W        W58653  19.432  25.647   4.032 -0.3901 -0.0505  0.1054
15737W        W58654  18.219  23.464   5.795  0.0081  0.0499  0.0569
15738W        W58655  17.204  26.274   5.361  0.0885  0.0935 -0.1547
15739W        W58656  20.374  19.856   4.607 -0.0361 -0.1791 -0.1214
15740W        W58657  15.978  24.633   5.358  0.2151  0.1789 -0.1290
15741W        W58658  17.676  23.413   2.412 -0.3307  0.3128  0.0137
15742W        W58659  18.270  22.100   4.129 -0.3249  0.1642 -0.0449
15743W        W58660  20.351  20.735   6.390  0.1029 -0.1755  0.2810
15744W        W58661  21.227  21.096   6.173 -0.1710 -0.0035  0.0377
15745W        W58662  17.672  20.060   5.392 -0.0783  0.1306 -0.0745
15746W        W58663  19.575  21.471   4.457  0.0740  0.2743  0.3747
15747W        W58664  18.205  26.648   5.111  0.0616 -0.0125 -0.0062
15748W        W58665  20.204  23.095   7.029 -0.2933  0.1193 -0.1471
15749W        W58666  20.279  21.153   3.129  0.1961 -0.0271  0.0618
15750W        W58667  20.431  24.749   4.344 -0.1088  0.0211 -0.2208
15751W        W58668  17.864  22.569   7.364 -0.1149  0.0818 -0.0940
15752W        W58669  17.455  22.913   4.785  0.0888  0.2597  0.0009
15753W        W58670  20.759  22.183   6.135 -0.3042 -0.3377  0.5045
15754W        W58671  20.010  22.720   4.191  0.0897  0.1392 -0.0068
15755W        W58672  18.772  25.639   5.246  0.1361 -0.1528 -0.1845
15756W        W58673  19.727  24.672   3.136 -0.1084  0.3246 -0.1314
15757W        W58674  18.575  23.052   4.432  0.1772 -0.0342 -0.2371
15758W        W58675  17.983  26.414   4.654 -0.1586 -0.0124  0.1091
15759W        W58676  19.897  19.561   8.323  0.2096 -0.1137  0.1545
15760W        W58677  19.775  21.587   6.981  0.1821 -0.1215 -0.0685
15761W        W58678  18.224  21.994   6.167 -0.0168  0.1285 -0.0270
15762W        W58679  18.622  22.993   3.669 -0.2824  0.3104 -0.0299
15763W        W58680  18.844  21.857   4.634 -0.0183 -0.0918 -0.2295
15764W        W58681  19.445  22.339   4.643  0.1708 -0.2379  0.1581
15765W        W58682  18.521  24.383   5.476 -0.1002  0.2279  0.1857
15766W        W58683  17.752  25.454   4.914  0.1224 -0.1180 -0.2817
15767W        W58684  19.209  20.857   5.167  0.2380 -0.1155  0.2590
15768W        W58685  20.471  25.693   3.896 -0.1267  0.0529 -0.0685
15769W        W58686  18.967  21.668   5.347 -0.1168 -0.1224  0.1964
15770W        W58687  19.006  24.117   2.407  0.1482 -0.0622  0.1825
15771W        W58688  17.091  22.863   6.068 -0.1887 -0.1528  0.0576
15772W        W58689  19.092  24.657   2.234 -0.2086 -0.0547 -0.1034
15773W        W58690  20.806  23.167   5.332 -0.4680 -0.3022 -0.1040
15774W        W58691  18.024  26.126   5.845  0.0775 -0.1546  0.1658
15775W        W58692  18.407  24.151   4.045 -0.2269 -0.2250 -0.1921
15776W        W58693  19.395  24.236   5.574 -0.1156  0.1986 -0.3503
15777W        W58694  22.293  19.906   2.508  0.0648  0.4286 -0.1109
15778W        W58695  18.685  23.438   3.314 -0.0386 -0.1089  0.0004
15779W        W58696  19.753  21.418   2.542  0.4527  0.1340  0.0282
15780W        W58697  20.979  20.400   5.650  0.1068  0.2333  0.1357
15781W        W58698  20.081  22.658   3.655 -0.1843  0.2271  0.0666
15782W        W58699  20.388  19.722   7.664 -0.1624 -0.1243  0.0333
15783W        W58700  17.835  22.031   5.838  0.2275  0.1913 -0.1061
15784W        W58701  21.155  24.461   5.168  0.0616  0.1839 -0.0977
15785W        W58702  16.879  22.313   5.857 -0.1738 -0.0198 -0.0246
15786W        W58703  19.345  25.498   6.246 -0.4682 -0.3643 -0.2151
15787W        W58704  18.320  23.141   8.480  0.0094 -0.2070 -0.1018
15788W        W58705  19.068  22.989   4.711  0.1739 -0.0563 -0.0763
15789W        W58706  18.868  22.167   4.208  0.1914  0.3609  0.0985
15790W        W58707  19.188  22.278   6.013 -0.1151  0.0036  0.4433
15791W        W58708  20.847  23.707   3.296 -0.0315  0.1530 -0.2313
15792W        W58709  18.894  24.100   2.846 -0.1584 -0.0025  0.0036
15793W        W58710  20.974  22.476   4.174 -0.1972 -0.0401  0.0531
15794W        W58711  18.014  22.563   5.002  0.0969  0.3249 -0.2048
15795W        W58712  20.671  22.138   3.124 -0.3162 -0.0722 -0.1907
15796W        W58713  21.300  26.298   3.289 -0.0035 -0.2392  0.0194
15797W        W58714  18.742  22.365   5.179 -0.1957  0.0414  0.1542
15798W        W58715  18.939  20.064   6.401  0.2836 -0.1919 -0.0118
15799W        W58716  20.638  23.798   4.730 -0.0860 -0.0288 -0.1080
15800W        W58717  20.897  22.231   2.317  0.1575 -0.0124 -0.1336
15801W        W58718  19.103  23.316   7.677  0.2303 -0.0125 -0.0470
15802W        W58719  19.907  22.068   6.328  0.1004 -0.1145 -0.0000
15803W        W58720  20.796  21.830   3.520  0.1609  0.0896 -0.0663
15804W        W58721  17.265  23.481   4.945 -0.0194 -0.1595  0.1808
15805W        W58722  20.842  24.710   5.614 -0.1581 -0.2814  0.3251
15806W        W58723  20.202  21.978   3.225  0.1153  0.2415 -0.1748
15807W        W58724  20.094  20.258   6.307  0.1724 -0.2212  0.5956
15808W        W58725  20.494  21.116   6.699 -0.0721 -0.0797 -0.0831
15809W        W58726  21.675  21.085   5.798 -0.1479  0.0672 -0.3229
15810W        W58727  19.444  23.313   3.595 -0.0029 -0.0981  0.1001
15811W        W58728  19.427  23.439   5.300 -0.0537  0.3244  0.0462
15812W        W58729  18.918  22.461   4.675  0.2989 -0.1136  0.0348
15813W        W58730  21.518  22.916   7.046 -0.0836  0.0643  0.1040
15814W        W58731  19.966  24.905   4.063 -0.1544  0.0490  0.0846
15815W        W58732  20.171  24.175   5.931 -0.0463  0.1267  0.2069
15816W        W58733  19.334  22.432   4.149 -0.3468  0.1297 -0.0080
15817W        W58734  16.552  22.453   4.547 -0.1364  0.0030  0.0292
15818W        W58735  17.366  24.573   6.247 -0.0854 -0.1293  0.1356
15819W        W58736  18.011  22.578   4.027  0.1358  0.0992 -0.1997
15820W        W58737  19.079  25.310   4.087 -0.1218 -0.1459 -0.0378
15821W        W58738  19.837  26.204   4.677 -0.1973  0.2786 -0.2446
15822W        W58739  21.871  23.930   7.119 -0.1545 -0.1299 -0.2506
15823W        W58740  18.203  21.650   2.923  0.2366 -0.0417 -0.1504
15824W        W58741  21.931  19.947   6.525  0.0059 -0.1170 -0.0151
15825W        W58742  18.397  25.208   5.368  0.1613  0.1328  0.3884
15826W        W58743  21.484  22.178   5.962  0.1935  0.2222  0.2516
15827W        W58744  15.041  26.223   4.589  0.0036  0.0980 -0.1515
15828W        W58745  17.460  23.191   6.262 -0.1926  0.3353 -0.0008
15829W        W58746  18.603  25.473   4.430 -0.2217  0.0635 -0.0807
15830W        W58747  19.135  20.280   4.645  0.0851  0.2375  0.0515
15831W        W58748  20.519  22.726   4.420  0.1801  0.1694  0.1452
15832W        W58749  19.284  21.838   4.248  0.1517 -0.1620  0.3238
15833W        W58750  21.992  23.260   6.885 -0.1400 -0.0651  0.1313
15834W        W58751  19.240  23.797   5.744  0.0099  0.1574  0.0300
15835W        W58752  17.906  22.795   4.550 -0.1578 -0.2565  0.3391
15836W        W58753  21.952  23.187   6.423  0.1389 -0.2087  0.0494
15837W        W58754  23.377  24.847   4.503  0.2113 -0.0757 -0.1315
15838W        W58755  17.169  24.443   5.292  0.0976 -0.0247  0.0296
15839W        W58756  16.963  22.403   6.371 -0.0239 -0.2012  0.2468
15840W        W58757  19.610  23.593   5.984  0.2843 -0.2274 -0.1134
15841W        W58758  21.005  21.440   4.112 -0.0301 -0.0396 -0.0534
15842W        W58759  19.959  21.826   3.779  0.2710 -0.0401 -0.2682
15843W        W58760  18.192  24.630   3.067  0.3502  0.0895  0.1342
15844W        W58761  17.290  23.638   5.967 -0.0178 -0.0136  0.1399
15845W        W58762  17.148  25.254   7.027 -0.2452 -0.1808  0.1505
15846W        W58763  17.129  26.462   3.999  0.1305  0.2833 -0.0199
15847W        W58764  18.966  23.186   4.114  0.4780 -0.2669  0.1592
15848W        W58765  18.078  23.081   5.029 -0.1256 -0.2159  0.2143
15849W        W58766  21.337  24.634   5.570  0.0986  0.1141  0.2779
15850W        W58767  17.932  22.544   3.148 -0.1701 -0.3706 -0.3678
15851W        W58768  18.433  24.408   4.907 -0.1384  0.2196 -0.1526
15852W        W58769  17.223  25.238   3.166 -0.1553 -0.3217  0.2192
15853W        W58770  19.150  22.685   3.340  0.0772  0.3704 -0.0907
15854W        W58771  19.140  26.547   4.939  0.1311 -0.1197  0.1126
15855W        W58772  21.274  25.726   5.795 -0.1301  0.2915  0.1538
15856W        W58773  20.908  21.185   1.937 -0.3860 -0.0294 -0.0440
15857W        W58774  21.132  20.726   3.431  0.0850  0.1010  0.2021
15858W        W58775  22.248  22.885   3.796  0.1026  0.0343  0.0236
15859W        W58776  20.043  25.193   5.865 -0.0156 -0.0101  0.2584
15860W        W58777  17.480  22.691   5.225  0.0430 -0.1731 -0.2155
15861W        W58778  19.925  20.851   1.891  0.0950 -0.1653 -0.0895
15862W        W58779  17.409  22.299   5.835  0.1243 -0.0245  0.0772
15863W        W58780  20.141  20.110   7.935  0.0429  0.1706  0.1415
15864W        W58781  18.817  23.927   5.436 -0.1445  0.1242  0.2054
15865W        W58782  21.595  24.995   4.853 -0.2641 -0.1873  0.3916
15866W        W58783  15.808  21.939   3.734 -0.0130  0.0535 -0.0372
15867W        W58784  19.243  23.983   4.666  0.0552  0.1508  0.0242
15868W        W58785  21.420  21.586   5.858  0.0986  0.0440  0.3286
15869W        W58786  20.301  24.543   3.066  0.1750  0.1009  0.1133
15870W        W58787  21.070  23.138   5.750  0.0299  0.1019 -0.1283
15871W        W58788  18.339  26.139   3.855  0.0800 -0.0245 -0.0367
15872W        W58789  20.074  25.712   5.967  0.0269 -0.0419 -0.0439
15873W        W58790  17.430  24.866   6.932 -0.2770  0.3205  0.3694
15874W        W58791  17.306  21.759   2.824 -0.0796 -0.0150  0.3329
15875W        W58792  21.756  21.536   4.893  0.2579 -0.0765 -0.2012
15876W        W58793  16.341  21.095   6.004  0.0012 -0.0508  0.3656
15877W        W58794  21.678  21.236   6.272  0.1777  0.0345 -0.2584
15878W        W58795  19.901  25.634   5.506  0.0505  0.0893 -0.0441
15879W        W58796  19.606  21.121   5.412  0.1925  0.0534  0.1686
15880W        W58797  17.564  22.564   4.326  0.0879 -0.1226  0.0672
15881W        W58798  19.728  22.361   5.929 -0.2818  0.0001 -0.1278
15882W        W58799  19.220  24.671   4.022  0.2504 -0.0870 -0.0483
15883W        W58800  19.383  22.527   5.545 -0.1162  0.1660  0.0501
15884W        W58801  21.246  24.098   3.468  0.1509  0.3485  0.0126
15885W        W58802  20.554  23.462   5.663 -0.1802 -0.0651  0.0845
15886W        W58803  19.571  22.954   5.247 -0.1326 -0.1159  0.2423
15887W        W58804  19.872  20.848   3.239 -0.1258  0.0294  0.0032
15888W        W58805  18.192  24.924   4.683  0.2266 -0.3626  0.2978
15889W        W58806  19.811  21.609   6.197 -0.1182 -0.0500 -0.2063
15890W        W58807  21.420  23.787   6.404  0.0813  0.4241  0.0315
15891W        W58808  19.179  22.061   5.092  0.3002  0.1636  0.1480
15892W        W58809  21.054  23.995   4.003 -0.3110  0.1893  0.1149
15893W        W58810  21.950  23.997   5.757  0.0792  0.0975  0.2217
15894W        W58811  18.779  23.679   2.288  0.1064  0.0413  0.2215
15895W        W58812  22.948  24.570   4.575 -0.1824 -0.2554  0.2427
15896W        W58813  19.496  24.872   4.386 -0.1109 -0.3197 -0.1755
15897W        W58814  18.446  22.144   4.649 -0.0989  0.0426 -0.0454
15898W        W58815  20.726  24.644   4.899  0.2045 -0.0123 -0.2427
15899W        W58816  21.468  24.054   4.958  0.0569 -0.1789  0.0932
15900W        W58817  20.856  20.359   3.131  0.0444  0.0017 -0.0861
15901W        W58818  17.755  23.855   4.860 -0.1861 -0.1673  0.0508
15902W        W58819  19.669  24.203   4.602  0.1036  0.0734 -0.0463
15903W        W58820  20.509  22.618   6.120  0.1694  0.1931 -0.2338
15904W        W58821  20.175  22.301   5.202 -0.2165 -0.0356  0.1758
15905W        W58822  18.725  28.228   2.435  0.1048 -0.0845  0.0155
15906W        W58823  20.964  21.512   6.868 -0.1110 -0.0356 -0.0688
15907W        W58824  19.497  23.302   4.690  0.1726 -0.1494  0.1449
15908W        W58825  19.836  24.509   6.079 -0.2490 -0.2234  0.3151
15909W        W58826  16.618  25.247   5.241  0.1445 -0.0835 -0.1880
15910W        W58827  17.921  22.947   6.115  0.0747 -0.5583  0.1481
15911W        W58828  19.417  25.354   4.500 -0.1228  0.0162 -0.2540
15912W        W58829  18.696  25.860   4.069  0.0312 -0.1576  0.0315
15913W        W58830  21.376  24.167   4.339 -0.0797  0.1385 -0.0357
15914W        W58831  19.034  22.287   3.698  0.1520 -0.1803  0.0373
15915W        W58832  20.390  23.449   6.668  0.3486 -0.3103  0.2658
15916W        W58833  19.326  21.424   3.957  0.0132  0.4094  0.0465
15917W        W58834  22.105  21.182   5.068  0.0452  0.4150 -0.3031
15918W        W58835  18.506  21.110   4.525 -0.2127 -0.2069  0.1284
15919W        W58836  17.505  22.408   4.857  0.1822 -0.0529  0.0663
15920W        W58837  17.598  24.059   5.297 -0.1936 -0.1676  0.0273
15921W        W58838  17.308  23.889  31.859  0.0469  0.0637 -0.1466
15922W        W58839  20.851  22.881   6.315  0.1966 -0.1733  0.1152
15923W        W58840  20.373  19.835   6.193 -0.2946  0.3712 -0.1929
15924W        W58841  18.910  20.741   7.398  0.0959  0.1088  0.2411
15925W        W58842  18.663  22.398   6.088 -0.0245 -0.3355 -0.0752
15926W        W58843  17.606  23.166   4.384 -0.3251  0.2220 -0.0492
15927W        W58844  21.954  24.101   4.075  0.0629  0.0869  0.0869
15928W        W58845  18.729  23.801   4.927  0.0281 -0.0219 -0.0998
15929W        W58846  16.690  20.730   6.473 -0.1131 -0.2293  0.0840
15930W        W58847  19.614  24.251   5.067  0.1164  0.2199  0.1959
15931W        W58848  20.975  25.576   4.058  0.1472  0.1317  0.0556
15932W        W58849  20.350  20.747   4.551 -0.0421 -0.2013  0.0824
15933W        W58850  24.148  25.078   5.251  0.2140 -0.1738 -0.0187
15934W        W58851  16.820  24.591   2.343  0.2836  0.0628  0.0836
15935W        W58852  20.995  24.073   6.607  0.1474  0.0232 -0.2849
15936W        W58853  18.584  21.194   7.749  0.0120  0.1384 -0.0334
15937W        W58854  16.954  21.502   1.725 -0.3160 -0.1983 -0.1980
15938W        W58855  18.345  21.706   5.719 -0.2370  0.1466  0.1849
15939W        W58856  20.051  25.922   3.671 -0.0932  0.0297 -0.1037
15940W        W58857  22.686  24.688   2.488  0.4185  0.2985 -0.2541
15941W        W58858  19.040  23.327   6.115  0.1835  0.0142  0.3412
15942W        W58859  17.864  23.066   6.593  0.0555  0.0672  0.4811
15943W        W58860  17.628  20.245   6.360  0.1083 -0.1927 -0.1340
15944W        W58861  21.581  23.706   4.519  0.1701 -0.1276 -0.1176
15945W        W58862  19.101  22.025   7.934 -0.1680  0.1394 -0.0885
15946W        W58863  22.011  23.371   3.774  0.2599 -0.0621  0.0996
15947W        W58864  21.131  21.115   4.565 -0.2258 -0.2630 -0.2234
15948W        W58865  19.196  24.195   4.224  0.0392  0.0344 -0.3061
15949W        W58866  17.671  21.666   5.125 -0.3124  0.3423 -0.1989
15950W        W58867  17.561  21.252   7.475 -0.2489  0.1797  0.1310
15951W        W58868  23.759  23.314   2.694  0.2566  0.2546  0.4650
15952W        W58869  19.481  21.706   5.458 -0.1032  0.0951  0.1346
15953W        W58870  19.597  21.953   2.997 -0.0509  0.3259 -0.0565
15954W        W58871  19.557  25.983   1.952 -0.1255 -0.0446 -0.0900
15955W        W58872  19.597  24.674   4.806 -0.1577 -0.0959  0.2505
15956W        W58873  19.488  22.832   2.928  0.1065  0.0078  0.1949
15957W        W58874  20.915  23.834   6.148 -0.1832 -0.1925  0.0069
15958W        W58875  21.247  25.209   5.938  0.1458 -0.1260 -0.0947
15959W        W58876  19.087  21.824   7.465 -0.4815  0.0301 -0.0857
15960W        W58877  17.584  22.147   5.347 -0.1344  0.2076 -0.2296
15961W        W58878  21.252  22.307   3.289 -0.0185  0.1123  0.0130
15962W        W58879  20.142  25.400   5.130 -0.2669  0.0599  0.5022
15963W        W58880  22.953  24.188   6.477 -0.1592 -0.1217  0.0451
15964W        W58881  20.382  24.378   4.632 -0.1655  0.2478 -0.2658
15965W        W58882  21.039  22.605   5.676 -0.1858 -0.2156 -0.1020
15966W        W58883  17.717  21.475   4.668  0.0482  0.1643  0.2961
15967W        W58884  19.029  25.713   4.435 -0.0530 -0.0526 -0.2342
15968W        W58885  17.634  24.206   2.311 -0.0480 -0.1584 -0.1581
15969W        W58886  21.273  20.802   5.687 -0.2269  0.0060 -0.3572
15970W        W58887  18.389  22.710   5.384  0.1508  0.1458 -0.4020
15971W        W58888  20.941  20.984   3.889  0.0117 -0.3119  0.0314
15972W        W58889  19.540  24.120   6.105 -0.3638  0.0556  0.0029
15973W        W58890  20.550  21.617   3.991 -0.1656 -0.1303 -0.0578
15974W        W58891  16.634  22.185   9.620  0.0860 -0.0537  0.0273
15975W        W58892  18.737  21.461   8.269 -0.1589 -0.1927  0.2395
15976W        W58893  20.238  20.360   7.209  0.0325  0.2181  0.4000
15977W        W58894  20.938  23.772   8.190  0.1113  0.0407  0.1177
15978W        W58895  17.540  22.701   8.556 -0.1902  0.0127  0.2283
15979W        W58896  21.200  26.040   8.022  0.2427 -0.2579 -0.3219
15980W        W58897  20.189  22.621   6.798 -0.1811 -0.1543  0.3204
15981W        W58898  22.041  23.010   8.590 -0.1994  0.0156  0.0203
15982W        W58899  21.862  23.059   7.517  0.1302 -0.0578 -0.1690
15983W        W58900  18.366  22.743   9.313  0.1724 -0.0981 -0.0124
15984W        W58901  19.092  19.537   8.397 -0.1180 -0.4124 -0.2596
15985W        W58902  16.167  19.634  10.351 -0.0488  0.2733  0.2008
15986W        W58903  18.049  22.582   7.836  0.1407  0.2990 -0.2546
15987W        W58904  18.959  23.519   8.299  0.1274 -0.0580  0.0989
15988W        W58905  17.946  22.468   9.201 -0.3700  0.0758  0.0088
15989W        W58906  19.450  20.837   7.537 -0.0625 -0.1770 -0.0345
15990W        W58907  21.795  24.144   6.249 -0.0961 -0.0685  0.0213
15991W        W58908  17.216  20.890   9.491  0.4088  0.2400 -0.0692
15992W        W58909  20.502  25.576   8.052  0.0090 -0.0894  0.1072
15993W        W58910  17.521  21.883   6.932  0.1813  0.0529  0.2039
15994W        W58911  18.409  20.151   6.872  0.1936 -0.0872 -0.1602
15995W        W58912  19.215  19.193   9.885 -0.0649  0.2697 -0.0428
15996W        W58913  21.754  20.353   7.766 -0.0986  0.0912 -0.2342
15997W        W58914  20.550  23.951   5.823 -0.4470 -0.0348  0.1075
15998W        W58915  18.714  21.077   9.407 -0.2712 -0.0199 -0.1371
15999W        W58916  20.739  24.468   6.612  0.0440 -0.1104  0.2117
16000W        W58917  17.173  23.745   6.933 -0.0065 -0.0835  0.1666
16001W        W58918  18.014  24.809   7.694  0.1334  0.1235  0.0242
16002W        W58919  20.092  24.755   6.750  0.1828 -0.0987 -0.3698
16003W        W58920  20.118  24.220   6.778  0.5422 -0.0823  0.4089
16004W        W58921  17.392  24.571   4.345 -0.0069 -0.2191 -0.1687
16005W        W58922  19.231  21.264   8.374  0.0432  0.2273  0.0197
16006W        W58923  20.679  23.022   6.759  0.1254 -0.2002 -0.0518
16007W        W58924  20.943  25.654   5.091 -0.2504 -0.1302  0.3950
16008W        W58925  24.263  21.767   7.561 -0.0422 -0.1117  0.1216
16009W        W58926  17.670  23.957   7.012 -0.0398 -0.0622  0.0569
16010W        W58927  19.322  24.698   8.230  0.3341  0.1030  0.0633
16011W        W58928  19.527  21.371   5.928  0.0796  0.1916  0.0293
16012W        W58929  20.114  20.481   6.777 -0.1047 -0.2541 -0.3224
16013W        W58930  20.330  21.402   7.609 -0.4299 -0.0883  0.2737
16014W        W58931  19.670  19.207  10.039  0.0055  0.0043 -0.1823
16015W        W58932  19.852  23.837   7.902 -0.1995 -0.1990 -0.1501
16016W        W58933  18.995  18.992   8.623  0.1143 -0.0359 -0.0045
16017W        W58934  20.217  22.713   7.340  0.2952 -0.2050  0.1537
16018W        W58935  19.897  22.423   7.705  0.0789 -0.1400 -0.6517
16019W        W58936  16.469  25.730   8.852  0.0844 -0.1326  0.1754
16020W        W58937  17.526  24.849   8.791  0.2355 -0.1421  0.0202
16021W        W58938  21.466  23.896   5.954  0.2875 -0.1834  0.2019
16022W        W58939  18.278  24.436   5.944  0.0134 -0.2359  0.1454
16023W        W58940  20.206  23.987   5.385  0.2940 -0.1007  0.1067
16024W        W58941  19.191  22.758   6.821  0.2410 -0.0089 -0.2204
16025W        W58942  18.129  20.635   7.536 -0.0259  0.3161  0.0438
16026W        W58943  21.370  21.664   7.125 -0.1595 -0.0318  0.0776
16027W        W58944  19.594  23.413   7.813 -0.3346  0.2732  0.0335
16028W        W58945  20.246  23.621   7.582  0.2448 -0.1613 -0.0932
16029W        W58946  20.137  24.534   5.062 -0.3769 -0.1926 -0.1004
16030W        W58947  21.088  22.769   8.309  0.2226  0.2416 -0.1848
16031W        W58948  20.399  22.258   7.590  0.1053 -0.1052 -0.2970
16032W        W58949  17.735  21.776   8.124  0.1984 -0.0758  0.0422
16033W        W58950  18.196  22.474   5.924  0.1746  0.2673  0.0899
16034W        W58951  21.232  23.167   8.738 -0.2095 -0.1433  0.2901
16035W        W58952  21.383  24.028   6.877  0.1333  0.1209 -0.2156
16036W        W58953  18.913  24.198   8.866 -0.0213  0.1095  0.3627
16037W        W58954  17.537  24.242   7.607  0.0756 -0.0085  0.0477
16038W        W58955  15.380  24.643   9.462 -0.0607 -0.0146  0.1630
16039W        W58956  17.833  24.817   6.243  0.2515 -0.2282 -0.0909
16040W        W58957  20.338  19.631   9.529 -0.3930  0.0404  0.1480
16041W        W58958  16.880  24.520   9.652 -0.0893  0.1788  0.3336
16042W        W58959  23.367  21.402   8.166 -0.2906 -0.0090 -0.0797
16043W        W58960  20.451  19.292   8.185 -0.1489 -0.3216  0.0189
16044W        W58961  17.843  21.850   6.493  0.0232 -0.1825  0.1862
16045W        W58962  21.499  24.477   7.072  0.4440 -0.1591  0.1513
16046W        W58963  20.015  21.620   5.606  0.1103 -0.0650 -0.0336
16047W        W58964  20.377  26.769   7.240  0.0390  0.4883  0.0057
16048W        W58965  16.939  22.740   8.130  0.1535  0.1226 -0.0750
16049W        W58966  17.951  22.420   8.676 -0.0438  0.1588 -0.2848
16050W        W58967  17.351  22.739   7.363 -0.0056  0.0364 -0.3126
16051W        W58968  17.106  20.515   7.984  0.4545 -0.1072  0.2248
16052W        W58969  20.944  23.202   7.234  0.0680  0.2706 -0.0557
16053W        W58970  18.581  23.167   5.628  0.2403  0.1145  0.3145
16054W        W58971  16.281  23.389   8.418 -0.0758  0.2454  0.3054
16055W        W58972  18.797  22.644   6.533  0.0989  0.0610  0.1842
16056W        W58973  23.415  24.151   8.190 -0.2720  0.0629 -0.1685
16057W        W58974  19.134  23.781   8.681 -0.3645  0.0203 -0.3141
16058W        W58975  17.090  20.490   9.169 -0.2706 -0.1815  0.1573
16059W        W58976  19.378  22.414   7.475 -0.0008 -0.0020 -0.1063
16060W        W58977  17.751  22.480   6.207 -0.1889  0.2931 -0.0309
16061W        W58978  17.682  22.960   7.053 -0.1064  0.2123  0.2133
16062W        W58979  19.077  24.188   8.331 -0.1819 -0.3213 -0.0517
16063W        W58980  22.656  24.298   7.493  0.0943 -0.0980  0.1127
16064W        W58981  20.021  21.386   6.608 -0.0744 -0.1849  0.2472
16065W        W58982  21.330  24.000   9.156  0.0115 -0.0625  0.1993
16066W        W58983  21.652  21.215   7.661  0.3204 -0.0961 -0.1032
16067W        W58984  19.911  19.667   7.041 -0.3900  0.3899 -0.1005
16068W        W58985  21.931  27.033   7.626 -0.3024 -0.3160 -0.0002
16069W        W58986  18.616  25.798   8.360  0.0160 -0.0314 -0.2673
16070W        W58987  18.507  22.564   7.994  0.0815  0.0591  0.1102
16071W        W58988  19.406  23.374   6.761  0.2305  0.1694  0.1333
16072W        W58989  19.069  21.780   8.356  0.0589  0.2953 -0.1393
16073W        W58990  18.723  21.901   6.057 -0.0478  0.1560 -0.1478
16074W        W58991  20.210  22.850   7.877 -0.1521  0.2519 -0.0918
16075W        W58992  21.502  22.973   8.028  0.0336 -0.0574 -0.1313
16076W        W58993  20.900  23.537   6.585 -0.0076  0.4821  0.0885
16077W        W58994  20.496  21.430   5.652 -0.3123  0.2671  0.1861
16078W        W58995  19.879  20.858   6.219  0.0988  0.1252 -0.0153
16079W        W58996  19.893  22.573   6.323 -0.1712  0.0348 -0.1322
16080W        W58997  20.612  25.557   9.352  0.0010 -0.0762  0.1834
16081W        W58998  20.923  23.063   7.810 -0.0835 -0.2604  0.1696
16082W        W58999  21.081  24.786   6.135 -0.1360  0.0583  0.1514
16083W        W59000  16.498  23.696   7.478 -0.2541  0.0565  0.0846
16084W        W59001  20.626  25.395   4.779  0.0069  0.1020  0.0682
16085W        W59002  17.882  21.587   9.275 -0.3249 -0.0598  0.0841
16086W        W59003  19.902  23.587   7.040 -0.3067 -0.1936 -0.0375
16087W        W59004  18.800  25.028   9.002  0.0945  0.0783 -0.4595
16088W        W59005  18.823  25.776   6.729 -0.0458 -0.2476  0.1478
16089W        W59006  23.085  24.904   7.930  0.0663 -0.1772 -0.7033
16090W        W59007  21.714  21.768   7.566 -0.1953  0.4075  0.2773
16091W        W59008  21.269  21.403   8.695  0.1419  0.1283 -0.3093
16092W        W59009  18.067  23.543   8.379  0.3798 -0.1405  0.1910
16093W        W59010  19.291  20.859   6.621 -0.1727  0.3204 -0.2816
16094W        W59011  18.401  20.097   9.724  0.3589  0.1248  0.0529
16095W        W59012  18.151  24.294   9.813  0.1596  0.0311  0.2197
16096W        W59013  20.947  22.238   8.366 -0.2260 -0.0994  0.0069
16097W        W59014  22.469  19.972   6.101 -0.2107 -0.0988  0.2532
16098W        W59015  20.257  25.621   7.043  0.3245  0.0337 -0.0777
16099W        W59016  19.264  21.519   6.854  0.2640  0.1091  0.0190
16100W        W59017  22.207  21.548   8.297 -0.1650  0.0281 -0.3081
16101W        W59018  22.266  22.577   8.219 -0.2274 -0.3848 -0.2732
16102W        W59019  20.112  25.563   7.571 -0.0389  0.1707 -0.0113
16103W        W59020  18.308  24.978   9.044  0.1658  0.0860 -0.0602
16104W        W59021  18.883  22.830   6.068 -0.0163 -0.0283  0.0509
16105W        W59022  21.258  20.777   8.476 -0.0863 -0.0158  0.1780
16106W        W59023  18.318  23.952   8.211 -0.2666  0.1090  0.0636
16107W        W59024  18.562  22.890   6.958 -0.2035 -0.1368 -0.1725
16108W        W59025  18.203  23.075   7.275  0.1358  0.2563 -0.0990
16109W        W59026  21.469  22.642   8.603 -0.2984  0.0101 -0.1300
16110W        W59027  21.655  25.527   6.151  0.0638 -0.3563 -0.1097
16111W        W59028  17.522  22.329   8.968  0.0736  0.0817 -0.0325
16112W        W59029  20.683  22.263   8.858 -0.0302 -0.0301  0.2808
16113W        W59030  17.440  24.286   8.490 -0.0161  0.2534 -0.0250
16114W        W59031  20.601  21.091   8.899  0.0153 -0.0491  0.1649
16115W        W59032  18.457  21.297   6.843  0.1914 -0.2579  0.2832
16116W        W59033  22.815  19.292   9.463 -0.2598  0.1001 -0.0812
16117W        W59034  20.344  22.033   8.418 -0.0737 -0.0314  0.3416
16118W        W59035  17.614  25.306   6.864 -0.3345 -0.2436  0.2636
16119W        W59036  19.460  23.416   7.262 -0.2160  0.4201 -0.0347
16120W        W59037  18.530  23.395   7.634 -0.1544  0.1011 -0.0708
16121W        W59038  17.994  24.815   5.763  0.0084  0.4016  0.0790
16122W        W59039  22.083  21.577   7.823 -0.3227  0.1232  0.0191
16123W        W59040  17.918  24.336   7.900  0.1793  0.1419  0.1281
16124W        W59041  20.149  22.417   8.732  0.5118 -0.0953  0.0330
16125W        W59042  20.011  21.869   9.318 -0.1335  0.2039  0.0174
16126W        W59043  21.063  21.576   8.268  0.0464 -0.1411  0.1722
16127W        W59044  19.516  20.069   8.596 -0.0987  0.3911  0.1103
16128W        W59045  21.739  20.739   8.175 -0.0434  0.0132  0.1805
16129W        W59046  21.859  26.420   6.510  0.2240 -0.0324 -0.0785
16130W        W59047  18.426  23.811   6.750 -0.0502  0.2102 -0.2755
16131W        W59048  15.836  24.120   8.773  0.0594 -0.3027 -0.0902
16132W        W59049  20.820  26.215   4.991  0.2232 -0.0643 -0.0284
16133W        W59050  18.173  21.839   8.529 -0.1748  0.3561  0.0003
16134W        W59051  15.810  24.780   8.181 -0.0177  0.2830 -0.2720
16135W        W59052  19.302  24.588   6.051 -0.0890 -0.1404 -0.3956
16136W        W59053  15.705  23.563   8.611 -0.0061 -0.1115 -0.2002
16137W        W59054  23.012  20.656   6.302 -0.0360 -0.2606 -0.1173
16138W        W59055  20.870  21.893   6.534  0.0524 -0.1375  0.0084
16139W        W59056  22.508  19.728   9.058  0.1246 -0.2511 -0.0988
16140W        W59057  20.461  21.651   6.769  0.1232 -0.4829  0.2534
16141W        W59058  18.854  20.223   9.939  0.1563 -0.1999  0.2591
16142W        W59059  21.755  21.587   8.613 -0.1276 -0.3651  0.2745
16143W        W59060  20.251  22.380   8.058  0.1618  0.0958  0.2020
16144W        W59061  21.454  20.767   6.481  0.0140 -0.1652  0.2128
16145W        W59062  20.826  21.157   8.475 -0.2264 -0.1877 -0.2315
16146W        W59063  21.795  24.766   6.684 -0.0042  0.0289  0.0148
16147W        W59064  19.053  22.651   7.825 -0.1734 -0.1880 -0.2197
16148W        W59065  18.908  22.650   7.239  0.1779 -0.2190 -0.1168
16149W        W59066  18.188  26.457   8.763 -0.1119 -0.0968  0.1541
16150W        W59067  20.043  21.847   7.341 -0.0161 -0.1675  0.1485
16151W        W59068  17.597  22.397   6.774 -0.1592  0.2312  0.2513
16152W        W59069  18.605  21.925   7.329 -0.0483 -0.3307 -0.1675
16153W        W59070  23.899  20.727   9.195  0.2813  0.0501  0.1042
16154W        W59071  18.790  22.268   7.586 -0.4197 -0.1095 -0.5459
16155W        W59072  19.512  24.877   7.821  0.1352  0.0793  0.1080
16156W        W59073  19.944  23.233   7.471 -0.1189  0.0631 -0.2329
16157W        W59074  19.651  22.864   7.085 -0.5121 -0.1762 -0.0071
16158W        W59075  22.471  24.102   5.744 -0.0523  0.1921 -0.1543
16159W        W59076  19.155  22.294   6.672 -0.1082  0.2318  0.4836
16160W        W59077  18.500  23.241   9.230 -0.1627 -0.0417 -0.1298
16161W        W59078  18.116  23.431   6.281 -0.0368  0.1545  0.0822
16162W        W59079  19.692  23.845   5.464  0.0041  0.1711 -0.2140
16163W        W59080  21.186  23.922   7.824  0.1472 -0.1792  0.3244
16164W        W59081  20.553  23.216   8.100 -0.0244 -0.1149  0.1156
16165W        W59082  19.562  22.084   8.423  0.2573 -0.1760 -0.0135
16166W        W59083  18.449  20.969   7.323 -0.4829 -0.0165 -0.1796
16167W        W59084  18.120  21.476   6.130 -0.2556 -0.0842 -0.0114
16168W        W59085  18.464  20.712   9.950  0.0955 -0.1241  0.1132
16169W        W59086  17.025  21.705   4.630 -0.1118 -0.0621  0.0337
16170W        W59087  17.833  24.309   6.170  0.3819 -0.1470  0.1509
16171W        W59088  22.512  21.265   7.977  0.2904  0.3252  0.0764
16172W        W59089  19.694  23.311   8.378 -0.3950 -0.2649  0.1243
16173W        W59090  17.995  22.208   8.193 -0.3597  0.0576 -0.0686
16174W        W59091  19.859  18.622   8.711  0.1217 -0.0347 -0.2066
16175W        W59092  20.568  22.606   8.451  0.1006  0.2252  0.0746
16176W        W59093  18.969  23.245   9.133 -0.1923 -0.0974  0.2577
16177W        W59094  19.277  23.972   9.158  0.2881 -0.1126 -0.1778
16178W        W59095  22.357  23.294   7.714 -0.0941 -0.0602  0.2800
16179W        W59096  17.398  22.771   6.466 -0.0374  0.0689  0.1827
16180W        W59097  20.925  24.083   8.796  0.2034 -0.1438  0.1413
16181W        W59098  20.343  20.673   8.112 -0.3017 -0.2492  0.0271
16182W        W59099  18.379  25.356   6.265 -0.0793  0.3657  0.3003
16183W        W59100  18.791  22.600   9.191 -0.2040 -0.0072 -0.0866
16184W        W59101  20.033  23.922   6.357 -0.1450 -0.0002 -0.2334
16185W        W59102  18.298  24.021   6.180 -0.1104  0.1241  0.2149
16186W        W59103  18.825  25.119   6.083  0.2139 -0.2713  0.1126
16187W        W59104  20.442  25.031   7.729 -0.2275  0.1589 -0.0135
16188W        W59105  20.377  21.807   7.909  0.0235 -0.3994  0.1829
16189W        W59106  18.694  23.772   9.036  0.0845  0.1930 -0.0088
16190W        W59107  18.889  23.702   7.440 -0.2725  0.2145  0.0931
16191W        W59108  20.292  24.987   7.276  0.1836  0.1131  0.1152
16192W        W59109  17.500  23.628   8.352 -0.1414  0.1495 -0.1603
16193W        W59110  19.969  20.569   7.811 -0.0389 -0.1265  0.0843
16194W        W59111  19.679  22.390   8.880 -0.1879  0.3117  0.1855
16195W        W59112  21.177  22.104   6.926 -0.0906  0.1124  0.0210
16196W        W59113  17.853  21.526   8.759  0.0079 -0.1471 -0.0394
16197W        W59114  21.373  24.015   7.385 -0.0254 -0.1672 -0.1668
16198W        W59115  22.481  24.633   5.871 -0.0078 -0.0096 -0.0325
16199W        W59116  17.367  22.248   7.274  0.0517  0.0942 -0.3277
16200W        W59117  17.953  20.925   8.784  0.0776  0.2662 -0.0614
16201W        W59118  23.538  20.852   8.020 -0.1044 -0.0234 -0.2785
16202W        W59119  19.092  23.096   7.172  0.2020 -0.4274 -0.4243
16203W        W59120  19.948  21.889   8.720  0.3435 -0.0242 -0.5663
16204W        W59121  18.734  23.645   9.602 -0.0347  0.0921  0.0599
16205W        W59122  18.663  22.118   6.498 -0.1713 -0.0737  0.0716
16206W        W59123  19.086  25.242   8.089  0.2337  0.0194 -0.0008
16207W        W59124  16.146  22.216   6.987 -0.3557 -0.0595  0.1057
16208W        W59125  20.916  22.040   7.364 -0.1041  0.1466  0.0979
16209W        W59126  18.360  21.721   8.998 -0.1397 -0.0460  0.3590
16210W        W59127  16.791  23.037   7.065  0.0714 -0.4771  0.1638
16211W        W59128  23.214  23.077   8.018 -0.3598  0.1515  0.0387
16212W        W59129  17.849  24.625   6.671 -0.1588  0.0626 -0.1100
16213W        W59130  16.473  22.160  10.124  0.2397  0.1875 -0.1264
16214W        W59131  19.477  21.704   8.047 -0.0488 -0.0452 -0.2595
16215W        W59132  20.634  22.579   7.115  0.1726 -0.1506 -0.1026
16216W        W59133  18.339  22.091   7.768 -0.0559 -0.0280 -0.5022
16217W        W59134  19.834  22.320   7.256 -0.0652 -0.4372 -0.4423
16218W        W59135  16.609  23.878   8.400  0.1212  0.1800  0.2113
16219W        W59136  18.000  24.172   6.741  0.1064  0.2732  0.0461
16220W        W59137  16.769  19.769   7.532  0.0903 -0.0391 -0.1455
16221W        W59138  20.997  24.363   7.077  0.1572  0.1821 -0.4649
16222W        W59139  22.029  22.638   7.158  0.1631  0.1081  0.1178
16223W        W59140  18.620  24.791   5.217 -0.1079  0.4091 -0.0259
16224W        W59141  21.894  22.788   5.366 -0.0851  0.1973 -0.1930
16225W        W59142  20.580  24.115   8.479  0.0122 -0.2428 -0.2912
16226W        W59143  20.850  23.773   9.194  0.0143  0.1611 -0.0140
16227W        W59144  18.391  22.322   8.959 -0.2234  0.2517  0.2743
16228W        W59145  20.077  23.339   7.941 -0.0754 -0.2086 -0.0202
16229W        W59146  20.100  21.279   7.105  0.1362  0.0426 -0.3107
16230W        W59147  20.193  23.788   8.551  0.0099  0.2180 -0.0088
16231W        W59148  17.366  24.541   7.940  0.0019 -0.0249 -0.3090
16232W        W59149  21.100  20.986   8.882 -0.2518 -0.1093  0.2601
16233W        W59150  18.244  22.684   6.402 -0.3280 -0.0055 -0.0886
16234W        W59151  20.204  23.193   8.924  0.1250 -0.1140 -0.0919
16235W        W59152  17.858  23.875   7.908  0.2582  0.1136 -0.2794
16236W        W59153  18.990  22.177   7.128 -0.0260  0.1492 -0.2160
16237W        W59154  21.042  25.212   7.698 -0.0463 -0.1946 -0.1149
16238W        W59155  20.476  25.266   8.682 -0.2426 -0.2521 -0.1659
16239W        W59156  18.946  22.448   8.778 -0.2539 -0.1684 -0.1157
16240W        W59157  22.199  23.765   7.941  0.0407  0.1811  0.0380
16241W        W59158  19.131  21.128   8.819 -0.1677  0.1750 -0.3323
16242W        W59159  21.332  22.983   7.496 -0.2610  0.0288  0.1280
16243W        W59160  20.580  21.573   8.396 -0.0483 -0.1430 -0.0376
16244W        W59161  19.204  20.505   9.241 -0.0362 -0.3043  0.0029
16245W        W59162  18.171  21.735   6.910  0.0492  0.2720  0.2743
16246W        W59163  17.469  21.464   6.568 -0.0547 -0.1130  0.0390
16247W        W59164  17.959  21.705   7.596 -0.0556  0.3768 -0.0816
16248W        W59165  17.782  23.093   8.175 -0.1127  0.0306 -0.0998
16249W        W59166  17.289  20.984   6.012 -0.0870  0.1944 -0.1348
16250W        W59167  21.632  23.664   7.589 -0.0439 -0.2108 -0.0316
16251W        W59168  18.353  21.116   8.182  0.1929 -0.0590 -0.1038
16252W        W59169  16.378  20.573   8.508  0.0455 -0.1783 -0.0775
16253W        W59170  20.794  23.264   9.079 -0.1479 -0.0775  0.4724
16254W        W59171  19.984  24.659   4.530  0.1420 -0.1832 -0.2183
16255W        W59172  17.918  23.187   9.247 -0.0533  0.3410  0.0160
16256W        W59173  18.356  24.097   7.132 -0.0364  0.1695  0.1498
16257W        W59174  17.687  20.775   7.312 -0.1577 -0.1591 -0.0699
16258W        W59175  18.789  21.777   6.894  0.2994 -0.2590  0.0212
16259W        W59176  21.044  23.663   7.044  0.4331  0.1954  0.0267
16260W        W59177  20.734  25.928   7.173 -0.1082 -0.2752 -0.2457
16261W        W59178  19.101  18.311  11.089 -0.0756  0.0720 -0.0146
16262W        W59179  18.246  23.344   6.746 -0.4394 -0.0741 -0.2023
16263W        W59180  21.418  24.349   6.533 -0.0297 -0.1637  0.1014
16264W        W59181  24.318  21.736   9.041 -0.1484  0.0229  0.0288
16265W        W59182  21.290  23.408   7.965  0.1596 -0.1511  0.0157
16266W        W59183  20.742  23.575   7.718 -0.2149 -0.0137 -0.0360
16267W        W59184  17.401  21.836   9.020 -0.1917  0.1250 -0.0057
16268W        W59185  22.396  23.365   6.524 -0.0695 -0.1777  0.0288
16269W        W59186  20.932  24.217   5.582 -0.0799  0.2314  0.1858
16270W        W59187  18.576  25.223   8.123 -0.0856  0.1876  0.0704
16271W        W59188  19.506  22.351   8.030  0.0582  0.0939  0.1987
16272W        W59189  19.551  21.879   6.594  0.1951  0.2788 -0.0521
16273W        W59190  20.878  20.156   6.964 -0.1716 -0.1896 -0.1616
16274W        W59191  21.510  23.362   6.637  0.2038 -0.2919 -0.2260
16275W        W59192  20.222  26.031   8.795 -0.1125  0.0505 -0.1886
16276W        W59193  19.942  23.593   8.989  0.0912 -0.1581 -0.5540
16277W        W59194  21.672  24.567   8.935 -0.0010  0.1737  0.1744
16278W        W59195  17.819  21.144   8.289 -0.5824  0.2072  0.0044
16279W        W59196  20.469  23.545   6.157  0.2941  0.1166  0.0206
16280W        W59197  20.115  24.228   8.167  0.2886  0.1286 -0.1214
16281W        W59198  24.420  17.695   8.961 -0.1109  0.0479  0.1568
16282W        W59199  18.535  22.378   6.952  0.1349 -0.2128 -0.0308
16283W        W59200  22.816  19.893   6.775 -0.0177  0.0595  0.2821
16284W        W59201  18.857  22.766   8.356  0.4638 -0.3453  0.2977
16285W        W59202  20.192  22.950   8.397 -0.1468 -0.1459  0.0599
16286W        W59203  17.375  26.982   2.805  0.2430 -0.1666 -0.2189
16287W        W59204  17.595  25.524   0.409 -0.1443  0.3292 -0.0884
16288W        W59205  20.816  26.775  31.890 -0.1489  0.1830  0.2274
16289W        W59206  20.059  27.526   2.274 -0.2800  0.3051  0.1548
16290W        W59207  16.533  25.297   0.373  0.0698  0.3692 -0.2587
16291W        W59208  19.630  27.330   1.978  0.0283 -0.0923  0.3124
16292W        W59209  18.572  24.934   2.843  0.3157  0.1723  0.0360
16293W        W59210  19.467  28.375   3.447 -0.0896 -0.2566  0.0903
16294W        W59211  23.986  29.199   2.476 -0.3485  0.2385 -0.0168
16295W        W59212  20.066  26.063  30.912 -0.0454 -0.0276  0.0733
16296W        W59213  20.720  25.194   1.214 -0.1027 -0.0996  0.0874
16297W        W59214  18.913  28.568   2.698  0.0533  0.0231 -0.0461
16298W        W59215  20.994  25.628   0.085  0.2538 -0.2406 -0.0805
16299W        W59216  18.374  25.833   1.634 -0.0392  0.3096  0.1235
16300W        W59217  19.532  26.422   0.863  0.4796 -0.1682  0.2512
16301W        W59218  21.255  27.018  31.875 -0.0642  0.0873  0.2894
16302W        W59219  20.422  28.349   1.993  0.0080 -0.1678 -0.0237
16303W        W59220  19.478  26.450  31.175  0.1981 -0.2406 -0.2447
16304W        W59221  19.323  26.994   1.689 -0.2914  0.0172 -0.3694
16305W        W59222  21.396  26.496   2.470 -0.1009  0.2307  0.1765
16306W        W59223  16.780  24.597  31.434 -0.1878 -0.1562 -0.1815
16307W        W59224  22.005  29.794  31.437  0.1726  0.1345 -0.0444
16308W        W59225  18.356  27.502   0.376  0.3102 -0.0275  0.0532
16309W        W59226  19.171  25.950   2.276  0.0442  0.1264 -0.0077
16310W        W59227  18.877  25.699   1.458  0.2410 -0.1480  0.1115
16311W        W59228  21.477  27.221   2.777  0.0260  0.0291 -0.0472
16312W        W59229  20.932  25.347   3.098  0.0181  0.0331 -0.1026
16313W        W59230  20.653  26.028   2.642 -0.0377 -0.1886 -0.2109
16314W        W59231  19.761  27.206  31.758 -0.4155  0.3300 -0.1732
16315W        W59232  20.359  26.368   2.820 -0.3070  0.1086  0.1151
16316W        W59233  18.005  28.475  31.182  0.0697 -0.1484  0.0585
16317W        W59234  17.961  29.588  31.241  0.1230 -0.2241 -0.2521
16318W        W59235  18.678  26.644   1.076  0.1581  0.0545 -0.2437
16319W        W59236  21.209  28.658   0.958  0.1583 -0.0201 -0.0274
16320W        W59237  21.311  28.025   2.732  0.2880  0.0339 -0.0784
16321W        W59238  19.348  29.275   2.989  0.0195  0.2844 -0.0992
16322W        W59239  18.238  28.589  30.481  0.1083 -0.1809  0.1024
16323W        W59240  19.121  27.911   3.359 -0.0837  0.0001 -0.1243
16324W        W59241  19.854  26.957   1.014 -0.1270 -0.1146  0.1640
16325W        W59242  18.137  27.784   1.924 -0.0225 -0.1121  0.3186
16326W        W59243  19.139  25.535   2.846 -0.1430 -0.1959  0.0967
16327W        W59244  19.874  25.122   0.464 -0.2194  0.1847  0.2577
16328W        W59245  20.062  28.066   3.367  0.1516 -0.0678  0.1013
16329W        W59246  17.843  27.937   2.563  0.1471  0.0273 -0.0984
16330W        W59247  16.176  28.884   1.207  0.0637 -0.1217 -0.2721
16331W        W59248  20.895  25.856   3.086  0.0627 -0.1403 -0.3354
16332W        W59249  19.157  28.296  31.149 -0.0430 -0.3839 -0.3548
16333W        W59250  20.196  29.460   0.329  0.1833 -0.1057 -0.1308
16334W        W59251  19.347  26.518  30.661  0.0190 -0.0996 -0.0130
16335W        W59252  21.612  26.651  31.907 -0.0636 -0.0732  0.2829
16336W        W59253  18.959  25.918  31.948 -0.1830  0.3460  0.0667
16337W        W59254  19.087  28.157   1.995 -0.1155  0.1293 -0.2321
16338W        W59255  19.308  26.218   0.465 -0.2919 -0.3138 -0.0709
16339W        W59256  21.162  26.843   1.988 -0.1560  0.1027 -0.1472
16340W        W59257  20.533  26.321   1.356  0.3606  0.2785  0.0418
16341W        W59258  20.750  26.977   0.975 -0.1770 -0.0800 -0.1278
16342W        W59259  20.561  29.195   2.962 -0.1924  0.0004  0.1671
16343W        W59260  17.852  26.901   1.714 -0.0208  0.0355  0.0023
16344W        W59261  21.282  28.482   0.013 -0.2337 -0.1748  0.1695
16345W        W59262  21.863  28.069   0.608 -0.0782 -0.1083 -0.0511
16346W        W59263  19.482  28.912   1.026  0.1926  0.1597  0.2885
16347W        W59264  17.984  26.060  30.083 -0.0908  0.1039  0.2283
16348W        W59265  17.891  25.866   3.194 -0.1108 -0.1093 -0.0505
16349W        W59266  18.352  27.765   2.681  0.1550 -0.0046 -0.1362
16350W        W59267  18.202  26.383  31.591  0.0413  0.1008 -0.2013
16351W        W59268  22.061  27.591   1.647 -0.0624 -0.0348  0.0173
16352W        W59269  18.130  28.941   3.417 -0.0892 -0.4284  0.2465
16353W        W59270  21.492  24.309   0.258 -0.3064  0.1231 -0.0931
16354W        W59271  19.946  25.912   1.676  0.4090 -0.0421 -0.2464
16355W        W59272  20.044  27.602   1.832  0.0742 -0.0478  0.1239
16356W        W59273  20.500  28.930  30.763 -0.0976 -0.1545 -0.1418
16357W        W59274  20.751  24.162   1.486 -0.1238  0.1902 -0.3108
16358W        W59275  21.158  24.657   1.065 -0.2165 -0.1897 -0.2983
16359W        W59276  20.299  25.574   1.407 -0.2908  0.0410 -0.1336
16360W        W59277  20.098  26.839  31.639 -0.0985  0.2818 -0.0409
16361W        W59278  19.670  28.367   1.724 -0.0632  0.1115 -0.0078
16362W        W59279  19.631  27.745   1.579 -0.0584 -0.3275 -0.1271
16363W        W59280  17.466  27.592   2.627 -0.0916 -0.1176  0.0758
16364W        W59281  19.833  22.981   1.694 -0.1103  0.2332  0.0179
16365W        W59282  19.054  27.202   2.207  0.0821  0.1718 -0.0139
16366W        W59283  22.090  30.353   0.060 -0.0306 -0.1542 -0.0172
16367W        W59284  18.437  27.765   3.210 -0.4301  0.0405  0.1029
16368W        W59285  18.397  28.181   0.336  0.0747  0.2385  0.0749
16369W        W59286  17.402  24.228   0.279  0.0367  0.1829 -0.0130
16370W        W59287  18.835  26.203   0.383  0.1044 -0.2136  0.2238
16371W        W59288  20.238  23.992  31.958  0.0763  0.0782  0.1813
16372W        W59289  17.439  25.062   3.539 -0.0957  0.1134 -0.2470
16373W        W59290  21.278  22.230   0.055  0.2387 -0.0532  0.0398
16374W        W59291  19.139  26.886   0.238 -0.1606  0.1362 -0.1450
16375W        W59292  22.803  26.892   1.245  0.5083  0.3634 -0.2739
16376W        W59293  21.370  27.369   1.657 -0.0697  0.2318  0.0768
16377W        W59294  20.285  25.585  30.977 -0.0583  0.5503  0.0994
16378W        W59295  18.237  25.379   1.978  0.1542 -0.0586 -0.3469
16379W        W59296  17.511  27.284   0.850  0.0683 -0.0001 -0.1011
16380W        W59297  19.289  24.933   0.773  0.0534  0.1543 -0.1506
16381W        W59298  19.282  24.837   1.452 -0.1375 -0.1420 -0.0027
16382W        W59299  19.221  25.598   1.889 -0.2442  0.1552  0.2604
16383W        W59300  17.519  26.071   0.309  0.2561  0.1020  0.0023
16384W        W59301  20.696  26.775   1.489 -0.0471  0.1785  0.0111
16385W        W59302  17.652  25.362   1.858  0.0115 -0.3070  0.0105
16386W        W59303  19.724  27.927  29.545  0.0256 -0.0462  0.0959
16387W        W59304  21.653  24.744   4.423 -0.1111 -0.0190 -0.3510
16388W        W59305  20.981  29.065   1.335 -0.0892  0.1026  0.1291
16389W        W59306  21.423  28.055   2.256 -0.0486  0.1122  0.3103
16390W        W59307  22.043  28.970   1.583 -0.0394 -0.1820  0.1559
16391W        W59308  17.982  27.029   3.771 -0.2286  0.0041  0.2912
16392W        W59309  17.829  25.749  31.892 -0.4220  0.2292  0.7382
16393W        W59310  17.195  28.374  31.384  0.3881 -0.2166 -0.1698
16394W        W59311  18.089  28.319   1.697  0.1000  0.0530 -0.2032
16395W        W59312  19.607  25.397   0.015  0.3076  0.3290 -0.0300
16396W        W59313  21.842  28.532   1.398 -0.0148  0.2408 -0.1376
16397W        W59314  19.297  26.230   1.269  0.1915 -0.2984  0.1030
16398W        W59315  18.269  28.224   2.348  0.1104  0.2194  0.2804
16399W        W59316  19.523  25.267   1.533 -0.3205  0.0781  0.0719
16400W        W59317  20.731  24.898   2.996  0.1537 -0.0173 -0.0926
16401W        W59318  20.817  27.417   2.796  0.1713  0.1144 -0.2510
16402W        W59319  16.857  24.391  28.697  0.2002  0.0466 -0.1481
16403W        W59320  21.045  28.005  31.708  0.1698 -0.4266 -0.3357
16404W        W59321  19.211  30.069   0.368 -0.1744 -0.2771  0.2765
16405W        W59322  19.558  25.899   0.918  0.0189 -0.0857 -0.2599
16406W        W59323  19.306  27.917  30.839 -0.0195  0.0527 -0.0027
16407W        W59324  20.803  27.311   1.406 -0.3264 -0.0764 -0.3264
16408W        W59325  19.839  26.036   3.251 -0.0638 -0.1771 -0.1863
16409W        W59326  22.226  26.709   4.287 -0.0034  0.0207 -0.4060
16410W        W59327  19.903  25.517   0.727  0.0990 -0.2145  0.1908
16411W        W59328  18.419  26.581   2.436 -0.1197 -0.3552 -0.0775
16412W        W59329  21.741  25.706   2.566 -0.2446 -0.1469  0.2902
16413W        W59330  20.400  22.583  31.854 -0.2379  0.2774  0.2913
16414W        W59331  20.887  25.571   2.625  0.2108 -0.0198  0.0753
16415W        W59332  20.922  27.671   0.246 -0.1054  0.1256  0.3578
16416W        W59333  20.108  27.073  30.583  0.1872  0.3677  0.2399
16417W        W59334  20.320  25.408   0.389  0.0839 -0.1624  0.1373
16418W        W59335  17.169  27.751   0.881 -0.4997  0.2035  0.0193
16419W        W59336  20.102  27.572   0.745  0.1187  0.0251  0.1822
16420W        W59337  20.920  28.483   3.494 -0.1220  0.1873  0.1963
16421W        W59338  19.665  26.087  30.399  0.3764  0.0189  0.2311
16422W        W59339  21.866  30.346   0.695  0.1872  0.2976 -0.3354
16423W        W59340  18.183  26.161   2.025  0.3376 -0.3944  0.1354
16424W        W59341  21.198  28.448   2.479  0.2686 -0.0475 -0.1835
16425W        W59342  20.051  26.843   1.980  0.2299  0.1538  0.4072
16426W        W59343  19.600  25.820   0.290  0.2226 -0.1072  0.0040
16427W        W59344  20.766  26.179  31.369  0.1138 -0.2116  0.2664
16428W        W59345  20.137  26.647   1.428 -0.0307  0.0518  0.0114
16429W        W59346  19.859  27.216   0.479 -0.2793 -0.4073 -0.0647
16430W        W59347  19.868  26.268   1.238 -0.0005  0.3366 -0.0743
16431W        W59348  19.123  26.072   1.698  0.0385 -0.1898 -0.0375
16432W        W59349  20.190  23.580   2.155  0.0859 -0.2190  0.0287
16433W        W59350  20.681  28.211   2.676 -0.1435 -0.1118  0.0505
16434W        W59351  21.799  26.614  31.115 -0.1684 -0.0893 -0.0502
16435W        W59352  21.661  27.747   1.888 -0.3684 -0.4927  0.0315
16436W        W59353  18.253  26.632   1.874  0.2357  0.2448  0.0384
16437W        W59354  20.531  22.915   2.855  0.3886  0.3522  0.0810
16438W        W59355  19.077  25.753   1.025  0.3070  0.1181  0.2601
16439W        W59356  17.249  29.813   1.056  0.0144 -0.2055 -0.1611
16440W        W59357  19.505  28.333   2.144  0.1677  0.0980  0.0849
16441W        W59358  20.900  26.026   0.802 -0.0159  0.0148 -0.1703
16442W        W59359  19.542  24.869   2.474  0.0112  0.0991 -0.1086
16443W        W59360  20.547  26.064  30.889  0.3878  0.1891  0.1286
16444W        W59361  19.835  28.999  31.560  0.2405  0.3969  0.0905
16445W        W59362  19.699  26.900  31.259 -0.3299 -0.2021 -0.0011
16446W        W59363  18.459  24.422   0.366  0.0080  0.0322 -0.0587
16447W        W59364  20.209  25.966   1.112  0.2256  0.4608  0.1030
16448W        W59365  20.124  27.983   1.192 -0.0294  0.0624  0.3037
16449W        W59366  20.502  27.763   2.057  0.1375  0.3405  0.0245
16450W        W59367  18.746  28.627   1.231 -0.2712 -0.0129 -0.3667
16451W        W59368  20.093  23.660   3.174 -0.2837  0.1537 -0.0064
16452W        W59369  17.832  27.083   1.251 -0.1589 -0.4023 -0.3318
16453W        W59370  19.847  26.701  30.767 -0.2410  0.0738 -0.2453
16454W        W59371  16.737  25.861  30.453  0.0778 -0.1850  0.4715
16455W        W59372  21.586  24.969   0.113  0.2096  0.2400  0.0820
16456W        W59373  21.978  26.839  31.604  0.1502 -0.2011 -0.2276
16457W        W59374  17.580  27.547   1.259 -0.4504 -0.1781  0.0186
16458W        W59375  19.064  25.233   1.242  0.1030  0.1163 -0.1608
16459W        W59376  18.600  27.077   0.786  0.0223 -0.1613 -0.2559
16460W        W59377  20.485  25.245   2.739 -0.3255  0.3221 -0.2785
16461W        W59378  18.613  25.031   1.053  0.2017 -0.1566 -0.1403
16462W        W59379  20.447  26.713   0.360  0.0485  0.1570  0.0959
16463W        W59380  18.870  26.842   3.989  0.0142  0.0575 -0.0295
16464W        W59381  17.981  27.168  29.985 -0.1436 -0.0465  0.2333
16465W        W59382  22.899  27.855   2.122 -0.2497  0.0007 -0.2314
16466W        W59383  16.789  26.603  30.295 -0.2049  0.0132 -0.0075
16467W        W59384  17.142  28.641   1.586  0.0759 -0.2422 -0.2174
16468W        W59385  19.663  27.752   5.577  0.3753 -0.0006  0.1233
16469W        W59386  19.092  26.773  29.877  0.0222  0.0554  0.1194
16470W        W59387  18.889  28.340   0.822 -0.2307 -0.1055 -0.0707
16471W        W59388  18.851  25.273   1.712  0.3549 -0.1651 -0.2343
16472W        W59389  20.841  27.076   4.098 -0.2672  0.0669 -0.2161
16473W        W59390  19.088  25.424   0.046  0.0544 -0.0085 -0.1809
16474W        W59391  18.681  24.918  30.973 -0.0361  0.1419 -0.0307
16475W        W59392  18.660  26.276   2.011  0.2184  0.0439 -0.1980
16476W        W59393  20.649  27.248   3.257 -0.4423 -0.1620 -0.1393
16477W        W59394  18.760  24.979   2.139  0.2307  0.2389  0.1258
16478W        W59395  17.337  29.066   1.608 -0.0311 -0.0359  0.0827
16479W        W59396  19.522  26.450   1.652  0.0360 -0.0907 -0.2726
16480W        W59397  21.351  30.133  30.958 -0.1673  0.0482  0.0479
16481W        W59398  20.606  26.756   3.174  0.2898  0.0551 -0.1893
16482W        W59399  19.740  26.490  31.703 -0.1702  0.1668 -0.2760
16483W        W59400  17.684  27.827   3.476 -0.0476 -0.0539 -0.2323
16484W        W59401  19.361  26.864  31.678 -0.1349  0.1621 -0.1025
16485W        W59402  20.031  24.097   2.245  0.1654  0.1614 -0.1191
16486W        W59403  21.380  27.766   0.673 -0.3040  0.2226 -0.1133
16487W        W59404  19.700  28.548  31.756 -0.0010  0.2175  0.1332
16488W        W59405  17.666  27.748   0.826 -0.2381  0.1219 -0.0511
16489W        W59406  21.900  25.624   0.139 -0.0461 -0.2657 -0.1585
16490W        W59407  20.530  29.006  31.795 -0.1961 -0.3747 -0.1887
16491W        W59408  19.470  25.388   0.517 -0.0031 -0.0599  0.2515
16492W        W59409  21.469  26.697   2.954 -0.1251  0.0964 -0.2399
16493W        W59410  20.874  26.272   0.291 -0.1413 -0.1311  0.0039
16494W        W59411  19.226  24.279   3.225  0.1077 -0.4873  0.1193
16495W        W59412  19.460  25.366   1.021  0.4180  0.2042  0.4072
16496W        W59413  23.039  27.495  31.610 -0.0975 -0.0519 -0.5487
16497W        W59414  18.745  26.674   0.537 -0.3862  0.1661  0.0121
16498W        W59415  20.000  30.090   4.318 -0.0250 -0.0058  0.1984
16499W        W59416  17.794  28.285   2.178 -0.3743  0.1031  0.1051
16500W        W59417  19.101  27.711   0.754 -0.0702 -0.0462  0.0205
16501W        W59418  19.299  26.394  30.179 -0.4818 -0.1023 -0.0208
16502W        W59419  19.317  26.747   3.092  0.0329 -0.1583  0.0854
16503W        W59420  19.683  28.188   3.024  0.0050  0.0980  0.3500
16504W        W59421  19.368  25.738   1.418 -0.0964  0.2045  0.2149
16505W        W59422  20.534  27.739   2.549  0.2054 -0.0982  0.0183
16506W        W59423  18.684  27.486   1.741  0.3222  0.0688  0.1167
16507W        W59424  21.185  26.233   2.068  0.1588 -0.1698 -0.1765
16508W        W59425  20.145  25.868   0.331 -0.2083 -0.3195 -0.1310
16509W        W59426  18.245  26.741   0.769  0.3705 -0.1727 -0.0022
16510W        W59427  18.501  24.895   1.676  0.1317  0.0148  0.1082
16511W        W59428  22.420  27.707   1.951  0.1062  0.4324  0.2942
16512W        W59429  20.673  26.824   2.014 -0.1674 -0.0529  0.2571
16513W        W59430  20.699  26.787   2.579  0.0381 -0.0364 -0.0857
16514W        W59431  18.924  26.303   3.220  0.0158 -0.2468  0.0171
16515W        W59432  18.251  24.516   2.585  0.1243  0.2533  0.3958
16516W        W59433  18.517  24.098   2.520 -0.0439  0.1218  0.0865
16517W        W59434  22.330  31.258   3.706  0.2552  0.0985  0.2348
16518W        W59435  20.882  25.802  30.496  0.1457  0.1178  0.1169
16519W        W59436  20.516  23.406   2.971 -0.1419 -0.0618  0.0133
16520W        W59437  20.839  26.354   1.714 -0.1031  0.1122 -0.0729
16521W        W59438  22.035  26.036  31.180 -0.0972  0.2160 -0.0890
16522W        W59439  18.592  26.359   1.535 -0.0604 -0.0679  0.0807
16523W        W59440  21.552  27.958   3.147  0.0958  0.1666 -0.0692
16524W        W59441  18.906  24.039  31.269 -0.2775 -0.1732 -0.0402
16525W        W59442  20.756  24.925   1.861 -0.0717  0.0567 -0.2972
16526W        W59443  19.936  29.613  31.446 -0.1001  0.0700  0.1163
16527W        W59444  19.872  28.399   0.764 -0.1282 -0.1852 -0.0248
16528W        W59445  19.664  23.540  31.791  0.0328 -0.3031 -0.3228
16529W        W59446  19.330  28.224   0.614  0.2168  0.4124  0.1055
16530W        W59447  18.104  27.880   4.378 -0.0346  0.1143  0.0360
16531W        W59448  16.657  26.317  30.680 -0.0249 -0.0351 -0.2949
16532W        W59449  19.073  26.172  30.989 -0.0095 -0.1597 -0.3736
16533W        W59450  19.165  28.661   2.261 -0.1980  0.1327  0.1245
16534W        W59451  22.188  26.912   3.711  0.0941 -0.1340 -0.0902
16535W        W59452  19.200  24.985   0.303 -0.1304 -0.2470 -0.3421
16536W        W59453  21.639  26.243   4.481  0.1268 -0.0642 -0.0402
16537W        W59454  15.665  28.533  30.250  0.1217 -0.0166  0.0059
16538W        W59455  18.560  27.513   1.039 -0.0210 -0.1921 -0.0224
16539W        W59456  17.091  26.925   3.491  0.1101  0.0580  0.3114
16540W        W59457  18.395  26.771  31.796  0.3702 -0.0585 -0.0585
16541W        W59458  19.088  25.109   2.616 -0.2103  0.0489  0.2511
16542W        W59459  22.008  27.641   2.231 -0.1919 -0.0497  0.0434
16543W        W59460  18.868  27.025   3.060 -0.1679 -0.0455 -0.0822
16544W        W59461  20.294  25.048   3.158 -0.3889 -0.1318 -0.0690
16545W        W59462  19.621  27.791   3.315  0.0883  0.2563 -0.1115
16546W        W59463  18.081  26.295   1.567  0.0912  0.1973  0.0147
16547W        W59464  19.641  28.517   2.634 -0.0738  0.2100 -0.1120
16548W        W59465  21.899  28.575  31.778  0.3902  0.1040 -0.0550
16549W        W59466  18.111  26.947   2.236 -0.1874 -0.1383 -0.1784
16550W        W59467  18.814  26.745   2.036  0.1114 -0.0716 -0.2383
16551W        W59468  19.183  26.439   2.046 -0.0495 -0.0168  0.1023
16552W        W59469  21.655  26.946   2.392 -0.0997 -0.2098  0.0965
16553W        W59470  20.789  24.197   0.508 -0.3892  0.0195 -0.0027
16554W        W59471  20.592  29.930   0.185  0.0957  0.0198  0.1839
16555W        W59472  17.888  27.376   3.433  0.1072  0.1158 -0.0568
16556W        W59473  18.646  25.534   0.978  0.0119 -0.0962 -0.1690
16557W        W59474  20.087  29.312  31.811 -0.1028  0.0855  0.0430
16558W        W59475  21.216  26.724   0.331  0.0498  0.1620 -0.1144
16559W        W59476  21.033  28.812  30.970 -0.0463 -0.1032  0.4230
16560W        W59477  18.826  26.902   2.537 -0.2795  0.1648  0.0321
16561W        W59478  21.663  25.728  31.229  0.1607  0.2430  0.2536
16562W        W59479  19.248  28.135   1.457  0.2557  0.0153  0.0643
16563W        W59480  18.154  29.180   1.607 -0.1500  0.1025 -0.1645
16564W        W59481  21.843  29.175   1.980 -0.0668  0.1614 -0.1088
16565W        W59482  19.052  28.793   0.268 -0.0171 -0.2453 -0.2972
16566W        W59483  20.980  27.683   1.810 -0.0569 -0.0172  0.2559
16567W        W59484  17.050  25.828  29.862  0.2108 -0.0574  0.0958
16568W        W59485  21.783  27.264   1.886  0.1042 -0.0256 -0.0200
16569W        W59486  20.939  23.437   0.252 -0.0360  0.2397 -0.1994
16570W        W59487  20.200  28.344   2.943  0.0838  0.1008 -0.2343
16571W        W59488  17.614  24.702   0.097  0.4266 -0.2327 -0.0269
16572W        W59489  19.701  24.671  30.495 -0.1811 -0.1664 -0.0992
16573W        W59490  18.688  29.050   1.814  0.1239  0.1649 -0.2015
16574W        W59491  21.423  25.852   4.305 -0.2879  0.0661 -0.2282
16575W        W59492  17.893  28.756   3.854  0.0283 -0.1128  0.3003
16576W        W59493  22.880  29.889  30.483  0.3088 -0.1516  0.2580
16577W        W59494  18.781  24.791   0.596 -0.3124 -0.4178 -0.2902
16578W        W59495  20.305  26.647   0.929  0.1582 -0.0949  0.2091
16579W        W59496  21.781  25.199   2.519 -0.0601  0.2706  0.0748
16580W        W59497  19.991  27.525   1.215  0.1018  0.1949 -0.0698
16581W        W59498  19.390  23.979   0.972  0.2666 -0.0842  0.0587
16582W        W59499  17.646  28.433   0.990  0.1844  0.1558 -0.1474
16583W        W59500  17.612  27.033   4.266  0.1845  0.1747  0.1903
16584W        W59501  20.206  28.176  31.866 -0.0438  0.1727 -0.0559
16585W        W59502  18.320  26.560   0.298  0.2134  0.3169  0.4534
16586W        W59503  21.427  25.873   0.544 -0.0051  0.0827 -0.1057
16587W        W59504  20.353  26.432   1.875 -0.3803  0.0144  0.2818
16588W        W59505  21.502  25.278   3.067  0.0165  0.1501  0.2544
16589W        W59506  18.496  25.811   0.542  0.1273  0.1972 -0.1764
16590W        W59507  20.495  24.386   0.164 -0.1811  0.2035  0.0632
16591W        W59508  20.958  28.052   0.636  0.2514 -0.0918 -0.1914
16592W        W59509  17.412  25.053   0.438  0.3211  0.0434 -0.1645
16593W        W59510  20.360  26.788  30.272 -0.0315  0.2113 -0.3712
16594W        W59511  21.632  26.142   2.866 -0.1456  0.2164 -0.0216
16595W        W59512  20.203  26.344   0.215 -0.1983  0.0041 -0.0423
16596W        W59513  22.475  27.305   2.461 -0.1494  0.0303  0.2823
16597W        W59514  15.601  26.256   0.135 -0.2792  0.1898  0.0974
16598W        W59515  21.252  26.370   0.680  0.1227 -0.0319  0.3087
16599W        W59516  18.100  27.346  31.868  0.0421 -0.3109 -0.0793
16600W        W59517  19.189  27.035   3.480 -0.0331 -0.0203  0.0239
16601W        W59518  19.611  30.269   4.051 -0.0395  0.0194  0.0337
16602W        W59519  18.143  25.602   0.829  0.0989  0.2278 -0.0726
16603W        W59520  22.279  28.322  30.233 -0.3413  0.0976 -0.0374
16604W        W59521  21.176  26.744   3.378 -0.2248 -0.1348  0.4068
16605W        W59522  21.990  31.136   0.489  0.0128  0.1276  0.0349
16606W        W59523  20.901  27.797   1.272 -0.1960  0.2901  0.0179
16607W        W59524  20.349  26.297  31.646 -0.1350 -0.2881 -0.4440
16608W        W59525  17.504  26.242   1.657  0.5301 -0.0334 -0.1149
16609W        W59526  20.357  29.934   2.825 -0.2235 -0.0225 -0.0030
16610W        W59527  20.209  27.630   4.066 -0.1156 -0.0968 -0.0235
16611W        W59528  21.270  24.284   0.727 -0.2734 -0.2457 -0.1002
16612W        W59529  19.328  28.397   0.141  0.1322 -0.2080  0.0176
16613W        W59530  19.131  29.067  29.828  0.0111 -0.0255 -0.2883
16614W        W59531  21.639  25.894   1.699  0.1339  0.1659  0.0392
16615W        W59532  20.198  25.499   1.885 -0.2698 -0.1444 -0.0290
16616W        W59533  18.211  29.480  30.432  0.0059  0.1137  0.3439
16617W        W59534  21.805  25.616   2.104  0.0470  0.1412 -0.1575
16618W        W59535  19.208  28.339   3.055 -0.1348  0.2342  0.1618
16619W        W59536  19.350  26.476   3.505  0.3379  0.0274 -0.0923
16620W        W59537  18.518  27.627  30.743  0.1239  0.1751 -0.2898
16621W        W59538  19.707  26.860   3.493  0.0347  0.2252 -0.1571
16622W        W59539  18.805  27.927   1.295  0.1205  0.1753 -0.2393
16623W        W59540  21.415  26.861  31.380  0.1994 -0.0706  0.2044
16624W        W59541  22.374  27.896   0.731  0.1334 -0.2323 -0.0422
16625W        W59542  20.907  25.432   2.123 -0.2037  0.0567 -0.0523
16626W        W59543  19.225  28.219   2.520  0.1687  0.2141  0.0940
16627W        W59544  20.465  24.795   2.570  0.0169  0.0277 -0.2295
16628W        W59545  20.284  27.083   0.776  0.2147  0.1499  0.4622
16629W        W59546  20.416  27.242  31.663  0.4033 -0.1365  0.0845
16630W        W59547  19.674  26.635   2.595  0.0814 -0.0632  0.1860
16631W        W59548  18.629  27.037   0.225 -0.0464  0.3444 -0.1864
16632W        W59549  19.263  26.399   0.015 -0.1704 -0.1051  0.3324
16633W        W59550  18.310  27.187   1.692  0.1937  0.1981 -0.0251
16634W        W59551  20.395  24.032   1.151  0.4349  0.3347  0.1731
16635W        W59552  19.944  25.544   3.195 -0.2510  0.3126  0.2811
16636W        W59553  19.459  26.929   0.597 -0.0121  0.0794 -0.1172
16637W        W59554  18.872  27.030   1.431 -0.4551 -0.1067 -0.2398
16638W        W59555  22.324  28.115   1.641 -0.1208 -0.0956 -0.3165
16639W        W59556  21.710  24.023   0.576 -0.0776  0.3054  0.3165
16640W        W59557  18.318  26.308  31.077  0.0305  0.0490  0.0082
16641W        W59558  20.797  26.536  30.861 -0.0800  0.1325 -0.0812
16642W        W59559  21.977  27.323   0.083  0.0248 -0.0313  0.1313
16643W        W59560  19.824  25.646   1.263 -0.1705  0.0772  0.1784
16644W        W59561  21.818  29.976   3.889 -0.0066  0.0135 -0.3586
16645W        W59562  17.775  25.260  30.300  0.0600  0.0745  0.0661
16646W        W59563  19.464  26.858   2.152  0.3042 -0.0711  0.2196
16647W        W59564  19.173  26.566   2.610 -0.1199  0.1970 -0.0520
16648W        W59565  17.213  22.943  31.678  0.2335  0.3747 -0.3608
16649W        W59566  21.383  24.406   2.132  0.1964  0.1950  0.1789
16650W        W59567  19.465  27.349   0.793  0.2550 -0.2186  0.1658
16651W        W59568  20.146  27.995   2.280  0.0363 -0.0396  0.0324
16652W        W59569  20.630  25.821   0.346  0.0127 -0.3498  0.4942
16653W        W59570  21.298  27.831   4.030  0.0219  0.0578 -0.1014
16654W        W59571  18.457  27.030   4.174  0.3635 -0.1363  0.0316
16655W        W59572  21.671  24.717   0.695  0.0918  0.1106 -0.2551
16656W        W59573  18.275  28.045   4.905 -0.0289 -0.0534 -0.3255
16657W        W59574  22.650  28.804   0.419  0.2194  0.0004 -0.4405
16658W        W59575  21.938  26.413   2.510 -0.0457 -0.1429 -0.1091
16659W        W59576  20.318  26.042   2.185 -0.1047 -0.0284 -0.0600
16660W        W59577  17.815  24.877   3.773 -0.2828 -0.2419  0.0877
16661W        W59578  17.986  28.045   1.185  0.1055  0.2707  0.2683
16662W        W59579  21.873  28.019   1.529  0.2568 -0.1231 -0.1949
16663W        W59580  20.525  25.907   1.699  0.2321 -0.0607 -0.1629
16664W        W59581  21.607  26.418   3.760 -0.0177  0.2142 -0.0271
16665W        W59582  20.415  27.725   1.564  0.0968  0.0830 -0.0665
16666W        W59583  18.883  26.835  31.809  0.0671 -0.0865 -0.0130
16667W        W59584  19.629  26.773   0.163  0.3807  0.0852 -0.3434
16668W        W59585  21.144  28.540   1.970 -0.2908  0.0817 -0.0087
16669W        W59586  19.329  27.739   0.348  0.0237 -0.0729 -0.2050
16670W        W59587  22.453  27.282   4.589  0.1378  0.0311 -0.0312
16671W        W59588  17.771  27.189  31.088 -0.0468  0.0036  0.1405
16672W        W59589  22.566  25.630   0.636  0.1922  0.0155 -0.2459
16673W        W59590  17.927  30.133   3.422  0.1089  0.2607  0.0138
16674W        W59591  20.967  31.344   3.481  0.1814 -0.3274 -0.2405
16675W        W59592  19.532  29.165   3.447  0.1733  0.0579 -0.2333
16676W        W59593  20.067  28.543   3.399 -0.2407  0.0136  0.3726
16677W        W59594  17.384  25.870   1.960  0.0325 -0.1272  0.4139
16678W        W59595  20.433  26.253   0.665 -0.1134 -0.0282  0.0557
16679W        W59596  20.015  27.288  31.281  0.1385  0.0906 -0.2061
16680W        W59597  20.563  27.796   3.082  0.1100  0.1058  0.0330
16681W        W59598  17.647  26.772  31.520  0.1927 -0.0639  0.0438
16682W        W59599  19.944  25.197   1.098 -0.0434 -0.1116 -0.0402
16683W        W59600  20.835  27.552   4.030 -0.1895 -0.1409  0.2819
16684W        W59601  19.935  26.192   0.704 -0.0669  0.1720 -0.0034
16685W        W59602  20.364  28.365   6.238 -0.0822 -0.0298 -0.1581
16686W        W59603  19.740  25.553   3.619  0.0977  0.0792 -0.0173
16687W        W59604  22.578  24.896   4.594 -0.1760 -0.2114 -0.1454
16688W        W59605  21.633  26.905   3.676  0.3125 -0.4663  0.1390
16689W        W59606  18.285  25.633   5.073 -0.2261  0.2336 -0.2803
16690W        W59607  20.433  29.542   4.559  0.2795  0.1958  0.0037
16691W        W59608  17.591  23.189   5.315  0.3617 -0.1587 -0.2215
16692W        W59609  19.718  27.206   5.605 -0.0329 -0.1474  0.0757
16693W        W59610  20.704  29.020   6.866 -0.0103 -0.1804  0.0289
16694W        W59611  19.694  27.988   2.492 -0.0723  0.0475  0.2292
16695W        W59612  20.486  27.873   7.585  0.1235 -0.3013  0.2213
16696W        W59613  19.468  27.872   7.351 -0.0784  0.0512 -0.3245
16697W        W59614  16.672  25.078   5.719 -0.0035  0.2207 -0.1562
16698W        W59615  17.306  24.150   5.647 -0.2657 -0.1703 -0.1843
16699W        W59616  19.002  27.570   6.349 -0.1455 -0.1689 -0.3122
16700W        W59617  19.538  26.302   2.993 -0.2046 -0.0652  0.2340
16701W        W59618  19.786  25.854   6.834  0.0934 -0.2442  0.1256
16702W        W59619  20.731  26.895   3.695 -0.0694  0.1282  0.0334
16703W        W59620  19.313  28.069   6.854  0.0759  0.1719 -0.1583
16704W        W59621  18.984  25.168   5.315  0.2805 -0.2042 -0.0048
16705W        W59622  20.340  24.985   4.897 -0.0319 -0.0514  0.0356
16706W        W59623  20.150  27.516   4.682 -0.1004  0.0305  0.3195
16707W        W59624  17.658  25.337   1.038 -0.1324 -0.0080 -0.3206
16708W        W59625  18.280  26.356   5.503  0.1450 -0.0166 -0.2191
16709W        W59626  19.710  28.192   6.223 -0.3219  0.1608 -0.1331
16710W        W59627  20.146  25.320   3.805  0.1482  0.0156  0.1459
16711W        W59628  20.076  26.228   5.714  0.1785  0.0569  0.5108
16712W        W59629  19.567  29.060   4.596 -0.2991 -0.0898 -0.0624
16713W        W59630  20.049  28.396   4.785  0.0275  0.0188  0.2994
16714W        W59631  20.414  27.156   5.814  0.0255  0.2122  0.0147
16715W        W59632  17.297  27.325   5.504  0.0373  0.1251  0.2338
16716W        W59633  18.311  28.861   4.600 -0.2785  0.1549  0.3522
16717W        W59634  19.860  27.659   3.702 -0.1745 -0.1050  0.1630
16718W        W59635  21.363  28.198   3.597  0.1426  0.2312  0.0463
16719W        W59636  21.727  30.169   4.436 -0.2418 -0.0766  0.0223
16720W        W59637  20.208  25.255   9.519  0.0484 -0.1147  0.1050
16721W        W59638  18.059  29.591   3.432 -0.1058 -0.1343  0.1461
16722W        W59639  19.565  28.554   5.001 -0.2879 -0.3833  0.1262
16723W        W59640  18.991  29.008   8.277 -0.2893  0.3300 -0.0784
16724W        W59641  19.357  28.485   6.092  0.1108 -0.1290 -0.0574
16725W        W59642  19.539  26.564   5.569  0.0513 -0.2312 -0.1109
16726W        W59643  18.960  27.937   5.449 -0.0753  0.1764 -0.0499
16727W        W59644  19.787  25.414   6.408  0.0451 -0.2242 -0.2030
16728W        W59645  18.711  28.051   6.774 -0.0695 -0.0862  0.2066
16729W        W59646  19.201  29.924   5.443 -0.1396 -0.1471 -0.1596
16730W        W59647  20.730  25.392   7.305  0.0490 -0.1022 -0.1378
16731W        W59648  20.330  26.634   3.613  0.0652 -0.2216 -0.0657
16732W        W59649  20.521  24.230   2.649  0.2099  0.0377  0.0055
16733W        W59650  18.695  25.952   3.508  0.0725 -0.3108 -0.0667
16734W        W59651  20.971  26.131   4.175 -0.1340  0.1126 -0.1242
16735W        W59652  19.049  23.444   4.997  0.0224 -0.1678 -0.1690
16736W        W59653  19.845  29.428   4.844  0.0914  0.3147 -0.3838
16737W        W59654  18.777  26.650   3.513  0.0748  0.0724  0.0181
16738W        W59655  20.985  27.609   5.365 -0.0594  0.0173  0.0009
16739W        W59656  20.668  28.133   5.863  0.0826  0.0137 -0.2733
16740W        W59657  21.625  26.801   6.206  0.0563 -0.1633 -0.4548
16741W        W59658  19.263  26.433   7.330 -0.1410  0.1698  0.1460
16742W        W59659  19.333  27.320   3.081  0.3139  0.0741 -0.1577
16743W        W59660  20.056  30.025   3.638  0.2280  0.1628 -0.1502
16744W        W59661  21.833  28.621   5.023  0.0695 -0.2891 -0.4408
16745W        W59662  20.230  27.525   3.384 -0.1943  0.7214 -0.0927
16746W        W59663  18.300  25.604   3.501 -0.2358 -0.3687  0.1188
16747W        W59664  18.504  26.954   9.382 -0.0795  0.0930  0.2170
16748W        W59665  18.795  26.590   6.242 -0.1857 -0.3413 -0.0785
16749W        W59666  18.278  24.818   0.758  0.0259  0.1925  0.1269
16750W        W59667  21.576  29.220   6.905  0.1136  0.0067 -0.1045
16751W        W59668  16.109  27.942   5.508  0.3232 -0.1473  0.0108
16752W        W59669  20.516  27.285   4.422 -0.0691  0.0701  0.1483
16753W        W59670  20.007  26.369   6.655  0.0569 -0.2747  0.0747
16754W        W59671  20.289  30.172   5.293  0.1862 -0.1214 -0.1391
16755W        W59672  20.719  25.413   1.663 -0.0057 -0.2771 -0.1296
16756W        W59673  21.293  26.396   5.173 -0.0801 -0.1772 -0.0149
16757W        W59674  22.275  26.101   5.311 -0.2390  0.1386  0.0243
16758W        W59675  19.401  27.046   4.417  0.1306 -0.0190 -0.0503
16759W        W59676  19.547  27.483   4.654  0.0758 -0.2671 -0.1017
16760W        W59677  20.386  28.815   5.988  0.0016 -0.0188 -0.0114
16761W        W59678  22.134  26.421   3.898 -0.0240 -0.1666  0.0311
16762W        W59679  18.242  28.131   6.643  0.0917 -0.0907 -0.5742
16763W        W59680  20.562  25.091   5.840 -0.0130  0.3925 -0.0347
16764W        W59681  19.466  27.775   8.045  0.0273 -0.0801 -0.0549
16765W        W59682  18.125  27.492   2.333  0.0219  0.2333  0.3767
16766W        W59683  18.587  27.901   4.540 -0.0193 -0.1475  0.1073
16767W        W59684  18.159  26.955   4.653  0.4564 -0.1448 -0.2168
16768W        W59685  17.827  26.475   8.154 -0.0416  0.1076  0.1091
16769W        W59686  19.582  28.750   5.589 -0.1585 -0.0592  0.3361
16770W        W59687  20.522  26.239   3.848  0.1451  0.2036  0.1523
16771W        W59688  20.567  26.105   6.657 -0.1402 -0.1130 -0.0750
16772W        W59689  21.653  24.992   5.314 -0.0235 -0.1357 -0.0178
16773W        W59690  21.262  28.889   3.658  0.0684  0.0827  0.2534
16774W        W59691  21.736  28.916   4.423 -0.2001 -0.2212 -0.2349
16775W        W59692  20.429  28.902   3.382  0.1802  0.2867 -0.1470
16776W        W59693  20.615  28.633   2.977 -0.0983  0.0286  0.2018
16777W        W59694  17.584  25.297   7.383  0.4107 -0.0923 -0.0689
16778W        W59695  21.018  26.597   5.561  0.1426  0.0976  0.0805
16779W        W59696  20.574  25.791   6.219  0.0011  0.2915  0.3310
16780W        W59697  17.971  26.326   4.143 -0.1947  0.0782 -0.0940
16781W        W59698  20.506  25.897   5.707  0.1765 -0.0276  0.3309
16782W        W59699  17.881  25.887   3.703 -0.0278  0.0537 -0.0264
16783W        W59700  22.679  26.435   4.794 -0.0727 -0.2125  0.1010
16784W        W59701  19.855  26.763   3.977 -0.1724  0.3270  0.0746
16785W        W59702  20.021  27.061   4.392  0.0183  0.1650  0.2084
16786W        W59703  20.502  25.830   5.133  0.0077  0.0723  0.4606
16787W        W59704  17.007  28.737   3.577  0.2387 -0.1364  0.0918
16788W        W59705  20.495  29.579   6.117  0.0777  0.0691 -0.0041
16789W        W59706  19.840  29.968   3.149  0.2235  0.2246 -0.0363
16790W        W59707  18.905  25.088   7.025 -0.1774 -0.0278 -0.1695
16791W        W59708  17.039  25.368   3.649 -0.0056  0.3174 -0.0246
16792W        W59709  19.459  27.300   6.169 -0.1199 -0.1685 -0.2150
16793W        W59710  18.979  28.853   5.430 -0.2445 -0.0640 -0.4806
16794W        W59711  20.441  25.119   2.132  0.1111 -0.0611 -0.0495
16795W        W59712  20.800  27.993   5.009 -0.1847 -0.0590  0.2463
16796W        W59713  19.543  26.858   5.106 -0.0344  0.0544 -0.1165
16797W        W59714  18.789  27.689   5.858  0.2002  0.3211  0.1470
16798W        W59715  19.257  23.903   5.212  0.0770  0.0160 -0.0198
16799W        W59716  21.266  27.304   4.994 -0.0499 -0.1809 -0.2701
16800W        W59717  20.445  26.791   4.535 -0.0208 -0.0150 -0.0139
16801W        W59718  17.018  25.684   5.222  0.0490 -0.2485  0.1542
16802W        W59719  20.919  29.945   6.133 -0.2305  0.1211 -0.0115
16803W        W59720  18.037  29.180   4.214 -0.0045  0.2211  0.0008
16804W        W59721  19.178  26.203   5.450  0.0970  0.3370 -0.0649
16805W        W59722  18.615  28.853   3.500 -0.0712  0.3261  0.0491
16806W        W59723  20.492  26.707   5.019 -0.0731 -0.1904  0.1223
16807W        W59724  18.693  27.252   6.686  0.2742  0.1278  0.2867
16808W        W59725  20.422  27.166   4.876  0.2262  0.3040 -0.1140
16809W        W59726  19.458  27.109   3.916 -0.0069  0.0049 -0.0688
16810W        W59727  18.938  28.124   7.219 -0.1984 -0.1818 -0.0527
16811W        W59728  19.721  24.600   3.725 -0.2805 -0.1002 -0.0887
16812W        W59729  21.768  26.163   5.021 -0.0599 -0.0004 -0.2571
16813W        W59730  21.389  27.986   5.425  0.2089  0.1186 -0.2576
16814W        W59731  21.489  27.041   4.465  0.0774 -0.0023 -0.2677
16815W        W59732  19.781  26.436   2.071 -0.0635 -0.0808  0.3515
16816W        W59733  20.296  26.260   4.859 -0.0639 -0.0723 -0.2779
16817W        W59734  19.664  26.766   8.449 -0.3153 -0.2061 -0.1837
16818W        W59735  19.314  28.217   4.690  0.1713  0.0362 -0.0972
16819W        W59736  20.787  24.886   7.378  0.0816 -0.0194  0.2638
16820W        W59737  17.903  25.252   4.131 -0.1062  0.2009  0.4886
16821W        W59738  21.296  29.241   3.988  0.2391  0.0590 -0.0446
16822W        W59739  17.920  28.159   7.731  0.3641 -0.1445 -0.0487
16823W        W59740  20.875  27.638   8.195 -0.1475  0.2959 -0.0676
16824W        W59741  21.293  28.739   4.684  0.0510 -0.0348  0.0844
16825W        W59742  19.040  25.201   3.607  0.7546 -0.1603 -0.1310
16826W        W59743  18.352  26.629   3.838 -0.2245  0.0796 -0.0114
16827W        W59744  19.529  25.839   4.476  0.0632 -0.1774  0.3146
16828W        W59745  20.551  28.076   4.162 -0.1316  0.1453  0.0154
16829W        W59746  19.554  26.304   5.063 -0.0331  0.2915 -0.0712
16830W        W59747  19.966  28.909   4.745 -0.1681  0.2338  0.0614
16831W        W59748  20.568  25.444   5.471  0.1145  0.0074 -0.1297
16832W        W59749  21.614  27.283   6.034 -0.0777 -0.0278 -0.0885
16833W        W59750  22.063  27.755   4.779 -0.0557  0.2692  0.2604
16834W        W59751  18.665  25.828   4.770 -0.0438  0.0054  0.0259
16835W        W59752  18.711  26.866   4.598 -0.0633  0.2599  0.0270
16836W        W59753  21.085  25.741   6.289  0.0333  0.3912  0.1212
16837W        W59754  18.429  26.948   6.333 -0.3136 -0.1221 -0.0477
16838W        W59755  16.808  27.278   5.389 -0.3946 -0.2439  0.1021
16839W        W59756  20.857  28.260   5.433  0.0350 -0.0283 -0.0092
16840W        W59757  19.455  27.546   5.207  0.1501 -0.3141 -0.2260
16841W        W59758  21.409  26.227   5.694  0.0794 -0.1908 -0.2767
16842W        W59759  19.170  25.975   4.867  0.1324  0.1853  0.0550
16843W        W59760  19.398  28.916   4.108 -0.0269  0.1204  0.0377
16844W        W59761  19.111  26.087   2.783  0.2597  0.0186  0.0560
16845W        W59762  18.879  26.173   4.488 -0.2495 -0.1508 -0.3627
16846W        W59763  20.088  26.780   5.698  0.0209 -0.1660 -0.1367
16847W        W59764  19.336  27.052   2.643  0.4440  0.1607 -0.0005
16848W        W59765  20.202  25.783   6.508 -0.0032  0.0212  0.2575
16849W        W59766  20.146  26.572   2.416 -0.0314  0.2572 -0.1376
16850W        W59767  23.217  24.173   7.127 -0.1657 -0.2500  0.1356
16851W        W59768  17.243  27.706   6.073 -0.1318 -0.1833 -0.0214
16852W        W59769  19.730  27.447   4.174  0.1460  0.0567 -0.0326
16853W        W59770  17.140  27.515   4.210 -0.0110  0.2368  0.1938
16854W        W59771  20.829  25.381   3.617  0.1090  0.0544 -0.1232
16855W        W59772  23.142  27.659   4.547  0.2427 -0.2402  0.0350
16856W        W59773  18.797  26.420   7.547 -0.1173 -0.3924 -0.2675
16857W        W59774  19.933  27.159   6.119  0.0979  0.4000 -0.0125
16858W        W59775  18.495  28.568   4.969 -0.3867  0.1031  0.2117
16859W        W59776  20.013  26.547   3.134  0.2176 -0.0951 -0.1365
16860W        W59777  21.798  25.989   3.989 -0.1140 -0.0630  0.2497
16861W        W59778  19.191  28.043   6.402 -0.4804  0.1551  0.0191
16862W        W59779  18.645  27.375   7.622  0.1006 -0.2617 -0.2185
16863W        W59780  16.226  27.662   3.709 -0.1382 -0.0207  0.1095
16864W        W59781  20.969  27.123   4.578  0.0177 -0.2214  0.0855
16865W        W59782  19.991  26.442   5.284 -0.0839 -0.0543  0.1708
16866W        W59783  18.564  27.972   6.250 -0.3731 -0.0712  0.1807
16867W        W59784  19.251  28.680   4.531 -0.0428 -0.0762 -0.0252
16868W        W59785  19.551  27.990   4.277 -0.0651 -0.1033 -0.2030
16869W        W59786  19.347  28.438   3.968 -0.0526 -0.1739 -0.0182
16870W        W59787  18.719  27.323   5.551  0.0871  0.1748  0.3035
16871W        W59788  20.458  27.312   3.788  0.0423  0.1023 -0.2263
16872W        W59789  20.006  26.656   4.829  0.2604 -0.2455  0.2686
16873W        W59790  19.225  26.172   4.111 -0.1373 -0.0072 -0.0249
16874W        W59791  20.952  28.156   3.870 -0.0105  0.0145  0.2602
16875W        W59792  20.648  26.975   6.475 -0.5321  0.1050 -0.2194
16876W        W59793  19.548  28.782   6.547  0.0672 -0.1796  0.0845
16877W        W59794  19.306  27.910   5.871  0.0114  0.0194  0.0361
16878W        W59795  20.603  25.819   4.393 -0.4219  0.3989 -0.1913
16879W        W59796  22.528  28.446   4.314 -0.0815 -0.1070  0.1928
16880W        W59797  20.097  23.717   5.763  0.1013 -0.1997 -0.1882
16881W        W59798  20.867  28.510   4.470  0.0093  0.0063 -0.1320
16882W        W59799  19.554  26.961   6.545 -0.1169  0.3195  0.1696
16883W        W59800  19.430  27.971   3.780 -0.1206 -0.1775  0.1585
16884W        W59801  19.942  26.007   7.250 -0.0458  0.0416  0.0032
16885W        W59802  18.852  25.617   6.165  0.1451  0.0568 -0.0810
16886W        W59803  17.392  28.671   3.863 -0.2321  0.0659  0.1256
16887W        W59804  18.053  27.278   6.505 -0.0445  0.4618 -0.2439
16888W        W59805  21.416  25.735   3.024  0.1976  0.1545 -0.5246
16889W        W59806  19.645  28.897   3.047  0.1629 -0.1753 -0.3070
16890W        W59807  19.321  24.147   3.742 -0.0596  0.0096 -0.0811
16891W        W59808  20.518  24.539   7.578 -0.0534 -0.1166 -0.0403
16892W        W59809  20.395  27.239   2.446  0.1348  0.0663 -0.1363
16893W        W59810  20.915  25.187   6.827 -0.1977  0.4633  0.0729
16894W        W59811  19.188  27.763   4.693  0.3051 -0.0837 -0.0222
16895W        W59812  21.491  26.834   5.257  0.1656  0.1642 -0.2163
16896W        W59813  18.774  26.646   7.065 -0.1012  0.0807 -0.0909
16897W        W59814  21.015  28.472   6.671 -0.0443 -0.0147 -0.2169
16898W        W59815  19.110  25.567   7.101  0.3109  0.1755  0.1350
16899W        W59816  21.106  28.208   3.122  0.1292  0.0841 -0.0022
16900W        W59817  18.198  23.632   4.174 -0.3037  0.4184 -0.0682
16901W        W59818  19.606  25.877   7.682  0.0225  0.0438  0.2101
16902W        W59819  21.577  26.595   4.830 -0.0268 -0.0887 -0.0584
16903W        W59820  18.511  25.958   2.946  0.2775  0.0548  0.1070
16904W        W59821  22.573  26.498   3.692  0.3545  0.1684 -0.1728
16905W        W59822  20.114  27.528   5.598 -0.0944 -0.0382 -0.1202
16906W        W59823  21.276  26.798   4.015 -0.2141  0.1016 -0.0937
16907W        W59824  19.704  25.220   2.883 -0.1436 -0.3187 -0.1242
16908W        W59825  18.409  28.764   5.445 -0.1825 -0.1290  0.1976
16909W        W59826  18.463  23.563   5.371 -0.0663 -0.1472  0.2299
16910W        W59827  20.457  27.908   3.660 -0.0340  0.0414  0.0595
16911W        W59828  20.776  27.125   5.194 -0.1669 -0.1930  0.1735
16912W        W59829  18.568  26.278   5.927 -0.1463 -0.3199  0.2541
16913W        W59830  20.191  27.084   5.301  0.1486 -0.1252  0.1130
16914W        W59831  20.578  26.793   5.514 -0.0545 -0.0365 -0.2065
16915W        W59832  19.258  27.273   6.803 -0.1323 -0.0872  0.1458
16916W        W59833  20.326  27.790   6.171 -0.0387 -0.1770  0.3820
16917W        W59834  20.424  28.477   5.093  0.1384  0.0233  0.0225
16918W        W59835  22.658  24.677   6.395  0.2160  0.2323 -0.3129
16919W        W59836  21.303  27.815   4.909 -0.0825  0.0885 -0.1428
16920W        W59837  20.345  26.116   3.345 -0.1473  0.0340 -0.0478
16921W        W59838  19.994  24.979   6.377 -0.1169 -0.1406  0.0428
16922W        W59839  21.163  26.967   6.330  0.0234 -0.0503  0.1437
16923W        W59840  15.703  25.094   4.488  0.1231  0.0567 -0.0844
16924W        W59841  19.780  26.412   7.106  0.0035  0.1115  0.1120
16925W        W59842  18.954  27.390   4.481 -0.2260 -0.1686 -0.1499
16926W        W59843  21.058  29.191   5.688 -0.0457  0.1500  0.0770
16927W        W59844  18.244  24.454   4.468  0.0918  0.2171  0.1505
16928W        W59845  17.101  24.923   5.380 -0.4607  0.1124  0.0838
16929W        W59846  20.215  29.731   5.648  0.0402 -0.1753 -0.1208
16930W        W59847  19.031  26.541   1.510 -0.2053 -0.0632 -0.2216
16931W        W59848  18.275  25.091   3.716 -0.0106  0.3064 -0.1381
16932W        W59849  20.508  28.241   4.654  0.1212 -0.1861  0.3522
16933W        W59850  23.648  26.377   5.390  0.0214  0.0414 -0.2631
16934W        W59851  18.662  25.535   2.724  0.2174  0.0874  0.0384
16935W        W59852  21.343  25.368   5.115  0.0771 -0.0545  0.2308
16936W        W59853  15.992  27.964   3.328  0.1366 -0.1044  0.0470
16937W        W59854  19.866  25.213   4.698  0.0147 -0.2584  0.2339
16938W        W59855  18.117  30.484   7.138  0.0336  0.1533 -0.0822
16939W        W59856  18.961  27.188   6.026 -0.4557 -0.0613 -0.3273
16940W        W59857  17.919  27.883   5.249 -0.3849  0.0899 -0.0062
16941W        W59858  19.007  24.794   4.949 -0.0470 -0.1887 -0.0619
16942W        W59859  19.809  26.658   6.185 -0.1179  0.3642  0.1119
16943W        W59860  20.980  28.046   4.460  0.1267  0.2244 -0.0896
16944W        W59861  20.207  26.188   6.177 -0.0249  0.3794  0.0865
16945W        W59862  19.693  30.061   6.798 -0.0320 -0.0255  0.0228
16946W        W59863  19.856  26.920   6.988  0.1479  0.3637  0.0705
16947W        W59864  18.955  29.334   5.443 -0.3032 -0.3690 -0.0786
16948W        W59865  21.861  27.938   3.561  0.2957  0.2924  0.0941
16949W        W59866  20.424  27.993   5.470  0.3313 -0.0426  0.5093
16950W        W59867  16.935  26.505   7.595 -0.1419  0.0378 -0.3762
16951W        W59868  21.273  26.917   8.257 -0.1254  0.2735 -0.2458
16952W        W59869  21.769  26.430   5.449 -0.1393  0.1035  0.0082
16953W        W59870  18.718  26.148   5.225 -0.2884  0.0407  0.0535
16954W        W59871  19.243  27.633   4.108  0.1892 -0.1432 -0.2768
16955W        W59872  19.800  27.669   6.143  0.2155  0.0829 -0.0845
16956W        W59873  18.484  27.429   6.172  0.0487 -0.0012  0.1207
16957W        W59874  16.862  29.243   3.441  0.1543  0.0861 -0.0716
16958W        W59875  19.697  26.631   4.410  0.0476  0.2031 -0.2253
16959W        W59876  22.336  28.737   5.947  0.3577  0.2811  0.0894
16960W        W59877  18.813  29.409   6.486  0.1134 -0.2204  0.1850
16961W        W59878  18.987  24.974   3.058  0.0173 -0.0393 -0.2967
16962W        W59879  17.788  29.149   6.920  0.2100 -0.0947 -0.0918
16963W        W59880  17.515  26.076   3.322 -0.2934 -0.4180 -0.1634
16964W        W59881  20.275  29.221   4.217 -0.2719 -0.0640 -0.2826
16965W        W59882  18.622  29.088   5.105 -0.0213 -0.1657  0.1496
16966W        W59883  20.321  26.672   6.214 -0.0369 -0.1277  0.1485
16967W        W59884  19.161  22.890   3.785 -0.0063  0.1772  0.1637
16968W        W59885  22.917  27.287   4.328 -0.0170 -0.0954  0.0550
16969W        W59886  22.963  26.922   4.884 -0.0825  0.0446 -0.1034
16970W        W59887  18.910  27.617   6.896 -0.0628  0.0263  0.1288
16971W        W59888  20.813  26.450   6.367  0.0286  0.0038  0.0686
16972W        W59889  19.698  23.809   3.479 -0.2194 -0.1420  0.0714
16973W        W59890  19.036  24.643   8.734  0.0165  0.3017  0.0482
16974W        W59891  22.209  23.524   5.674 -0.0956  0.1244  0.0123
16975W        W59892  18.473  29.833   6.718 -0.2432 -0.1495 -0.1119
16976W        W59893  21.747  29.187   3.723  0.0042  0.1901  0.1694
16977W        W59894  19.806  24.881   5.202  0.1144 -0.0460  0.1598
16978W        W59895  19.458  27.672   6.555 -0.0122 -0.2986  0.0151
16979W        W59896  20.334  26.880   4.061 -0.1084 -0.0127 -0.0264
16980W        W59897  20.285  27.385   2.924 -0.1169 -0.0780  0.1344
16981W        W59898  21.385  28.633   4.152  0.0055  0.1719  0.2621
16982W        W59899  18.417  29.592   5.181  0.1211  0.1592  0.0326
16983W        W59900  19.285  29.433   4.085 -0.1553 -0.2842 -0.3338
16984W        W59901  19.526  26.320   6.610  0.0277 -0.0931  0.1383
16985W        W59902  19.372  22.900   4.309  0.2421  0.0489  0.1446
16986W        W59903  22.608  28.317   5.687  0.1715  0.2076  0.0188
16987W        W59904  20.943  26.461   7.159 -0.1502  0.1418 -0.3455
16988W        W59905  23.281  23.711   5.830  0.3157  0.1492  0.4309
16989W        W59906  19.362  25.966   7.265 -0.1704  0.0437  0.4313
16990W        W59907  21.496  25.389   3.954 -0.1708  0.3139 -0.0807
16991W        W59908  20.261  27.939   4.952  0.2204  0.0833 -0.1904
16992W        W59909  18.086  25.970   7.209 -0.0445 -0.1286 -0.3253
16993W        W59910  18.763  24.470   4.094 -0.1681 -0.2905 -0.0075
16994W        W59911  20.507  27.773   4.538  0.0875 -0.0831  0.1621
16995W        W59912  19.739  26.196   4.089  0.1065 -0.3758  0.0243
16996W        W59913  21.178  29.298   5.072  0.2405  0.0206  0.0130
16997W        W59914  17.843  25.723   5.935  0.0289  0.2867 -0.1120
16998W        W59915  19.925  24.476   1.747 -0.2008  0.2657  0.1327
16999W        W59916  19.108  26.600   4.448 -0.4401 -0.1327  0.1005
17000W        W59917  20.408  25.191   6.767 -0.0376  0.1431 -0.0012
17001W        W59918  21.856  27.989   6.532 -0.0231 -0.1563  0.1363
17002W        W59919  19.681  28.425   4.386  0.0924  0.1891  0.2976
17003W        W59920  20.022  27.851   2.859 -0.1817 -0.1910 -0.0359
17004W        W59921  20.669  26.282   4.508 -0.1568  0.0193 -0.0061
17005W        W59922  19.264  29.806   3.076 -0.2317  0.0202  0.2613
17006W        W59923  24.426  26.882   5.201 -0.1219 -0.0582  0.3019
17007W        W59924  19.350  29.387   6.519 -0.1171  0.1242 -0.3593
17008W        W59925  19.234  25.972   3.275  0.0432  0.0047  0.2689
17009W        W59926  19.088  28.537   6.880  0.0235  0.3067 -0.1773
17010W        W59927  20.847  28.495   6.126 -0.0362  0.0256 -0.1643
17011W        W59928  20.787  25.926   2.142 -0.1679  0.0167 -0.0402
17012W        W59929  19.036  27.011   5.372 -0.1335 -0.0793 -0.1061
17013W        W59930  19.016  26.550   5.764  0.2959  0.0220  0.2936
17014W        W59931  21.009  26.464   2.936 -0.2967  0.0053  0.3711
17015W        W59932  19.544  26.526   7.757 -0.1218 -0.5504 -0.0976
17016W        W59933  18.374  27.640   3.664  0.1044 -0.1423  0.1018
17017W        W59934  20.283  24.963   5.460  0.1079 -0.1838 -0.2593
17018W        W59935  18.264  28.544   5.923 -0.2583  0.0694 -0.1073
17019W        W59936  18.701  27.341   8.727  0.2644  0.2105 -0.2987
17020W        W59937  19.721  27.931   4.787 -0.0696 -0.2109 -0.0310
17021W        W59938  19.614  27.500   7.678 -0.0744 -0.0209 -0.0791
17022W        W59939  18.816  27.418   3.319 -0.0241  0.0668 -0.1979
17023W        W59940  19.077  28.124   4.291  0.2196 -0.1326  0.1179
17024W        W59941  20.694  28.977   4.348  0.3339 -0.1431  0.1401
17025W        W59942  19.437  25.419   3.257  0.0616  0.1798 -0.0068
17026W        W59943  22.555  27.819   4.810 -0.0283  0.0210 -0.0674
17027W        W59944  21.907  26.915   5.827  0.0603 -0.1313  0.1210
17028W        W59945  23.891  27.378   3.681  0.0149  0.0234 -0.0285
17029W        W59946  19.507  25.037   6.177  0.1657  0.1515  0.0960
17030W        W59947  20.259  27.941   7.077  0.1012 -0.0150  0.0820
17031W        W59948  18.026  24.049   2.644 -0.2008  0.1026 -0.0242
17032W        W59949  19.400  27.524   2.420 -0.0475 -0.1269 -0.1656
17033W        W59950  19.838  26.377   3.654  0.1484 -0.1121  0.1304
17034W        W59951  19.979  27.025   7.493 -0.0710  0.0355 -0.2394
17035W        W59952  18.059  25.582   6.594  0.1991 -0.0991 -0.1805
17036W        W59953  18.307  26.151   4.968  0.1943 -0.0964 -0.0445
17037W        W59954  18.608  24.998   3.368 -0.0667  0.3379 -0.0464
17038W        W59955  20.291  30.559   4.878  0.3315 -0.1547 -0.3172
17039W        W59956  18.326  25.803   6.113 -0.0109 -0.0757  0.2402
17040W        W59957  16.698  25.007   7.136 -0.1613 -0.0844  0.0757
17041W        W59958  18.940  28.424   3.673  0.1905 -0.1796 -0.2357
17042W        W59959  19.992  28.686   5.290 -0.2814 -0.0226 -0.0952
17043W        W59960  19.994  24.987   1.910  0.0837  0.0596  0.1190
17044W        W59961  20.349  27.326   6.318  0.1254  0.2315  0.0194
17045W        W59962  19.771  27.332   3.296  0.1791  0.1733 -0.1914
17046W        W59963  20.826  26.860   5.998  0.1366 -0.2054  0.1281
17047W        W59964  19.766  25.911   6.303  0.1848  0.1002 -0.3650
17048W        W59965  18.372  27.013   2.779 -0.1834  0.1370  0.2543
17049W        W59966  22.180  26.519   5.665 -0.0756  0.1893  0.2213
17050W        W59967  19.937  28.081   5.292 -0.0873  0.1478 -0.3666
17051W        W59968  21.066  29.495   3.622 -0.2254  0.1956  0.0853
17052W        W59969  20.085  28.877   6.824 -0.0009  0.0701 -0.1325
17053W        W59970  20.378  26.275   7.098 -0.0053 -0.0919 -0.3808
17054W        W59971  19.245  27.485   5.616 -0.2123 -0.3395  0.2217
17055W        W59972  20.696  26.413   2.232 -0.1226  0.2486  0.3309
17056W        W59973  18.689  28.939   6.661 -0.3026  0.3548  0.0835
17057W        W59974  21.583  27.940   4.504  0.0109 -0.2251 -0.0785
17058W        W59975  20.576  24.210   5.087 -0.0718  0.0151 -0.0050
17059W        W59976  18.599  26.423   2.859 -0.0955 -0.0510 -0.1098
17060W        W59977  19.173  24.960   5.715  0.2546 -0.0897 -0.2232
17061W        W59978  19.238  26.531   6.322 -0.1335  0.1017 -0.3799
17062W        W59979  21.773  26.408   5.972 -0.0441 -0.1620  0.1888
17063W        W59980  17.966  27.655   6.929 -0.1258 -0.3737 -0.0980
17064W        W59981  20.412  25.743   2.974 -0.1239  0.0049  0.0862
17065W        W59982  20.817  28.663   3.991  0.0996  0.1033  0.1625
17066W        W59983  19.277  25.736   5.327 -0.0101  0.1349  0.2901
17067W        W59984  20.208  26.419   4.276 -0.2355  0.1548  0.1747
17068W        W59985  20.901  28.028   6.362 -0.1178 -0.3003  0.0511
17069W        W59986  20.157  29.217   6.167  0.0528  0.3769 -0.1611
17070W        W59987  21.077  29.135   6.513 -0.1981 -0.5504 -0.1998
17071W        W59988  19.978  25.575   2.690 -0.1883  0.1663 -0.1209
17072W        W59989  22.683  26.849   4.459  0.3255  0.1765 -0.3565
17073W        W59990  20.145  30.350   6.775  0.0055  0.1142  0.0950
17074W        W59991  20.976  27.218   5.665  0.0964  0.0188 -0.0508
17075W        W59992  20.331  28.418   5.665  0.4564 -0.0766 -0.1426
17076W        W59993  21.737  27.652   4.026 -0.4599 -0.0793  0.0291
17077W        W59994  19.394  25.810   5.814  0.0712 -0.0717  0.1651
17078W        W59995  19.466  26.303   5.967 -0.0188 -0.0471  0.1610
17079W        W59996  20.868  28.997   4.818 -0.0802 -0.0152 -0.1487
17080W        W59997  20.143  25.866   4.164  0.1787 -0.0061 -0.1476
17081W        W59998  18.027  26.778   4.195 -0.1855  0.3548  0.1884
17082W        W59999  19.522  26.208   2.496  0.1613  0.0087 -0.1365
17083W        W60000  18.942  27.127   7.240 -0.1623  0.1839 -0.0069
17084W        W60001  19.005  27.663   7.385 -0.1783  0.1138  0.1193
17085W        W60002  22.976  29.287   7.832 -0.0948  0.2367 -0.1025
17086W        W60003  21.090  24.427   7.591 -0.0140 -0.1654 -0.1651
17087W        W60004  21.243  26.519   6.050 -0.1233 -0.0780  0.0604
17088W        W60005  23.787  25.697   7.167  0.1676 -0.0694  0.1150
17089W        W60006  19.864  25.307   6.919 -0.1162 -0.1517  0.0578
17090W        W60007  21.714  26.687   8.046  0.0193 -0.1874  0.2160
17091W        W60008  19.918  28.222   8.176 -0.0329 -0.3465  0.2125
17092W        W60009  22.871  26.374   7.599  0.1301  0.1560 -0.4501
17093W        W60010  21.453  27.061   7.792  0.0633 -0.1966 -0.0628
17094W        W60011  21.022  27.645   8.696  0.0940 -0.0321 -0.2885
17095W        W60012  20.318  25.300   6.253 -0.0423  0.0636 -0.1649
17096W        W60013  17.962  23.939   9.274  0.0173 -0.1598  0.0718
17097W        W60014  21.308  28.596   7.904  0.1150 -0.2641 -0.0797
17098W        W60015  17.581  25.013   9.341 -0.4977 -0.1093  0.0095
17099W        W60016  19.331  26.568   9.073  0.3227  0.2089 -0.2839
17100W        W60017  20.839  27.235   8.491 -0.1728  0.2487  0.1459
17101W        W60018  21.721  27.959   7.682  0.3455  0.2164  0.0279
17102W        W60019  20.722  26.016   8.020  0.1498  0.0277  0.3988
17103W        W60020  19.234  26.969   8.106  0.3367 -0.0909 -0.0666
17104W        W60021  19.187  25.372   7.631 -0.1018  0.0218  0.2475
17105W        W60022  19.417  26.015   8.149 -0.1420  0.3501  0.1536
17106W        W60023  15.601  27.667   8.855 -0.1145 -0.0339 -0.0997
17107W        W60024  21.899  24.842   8.573 -0.2977 -0.0962  0.1362
17108W        W60025  21.989  26.557   7.522  0.0470 -0.4961 -0.1089
17109W        W60026  20.516  29.809   7.766  0.0246 -0.0890 -0.1035
17110W        W60027  20.948  24.336   9.309 -0.2367  0.2632 -0.0520
17111W        W60028  17.761  27.045   8.291  0.1470  0.0394  0.1285
17112W        W60029  16.750  28.742   8.874 -0.1818  0.0767 -0.1463
17113W        W60030  19.660  28.346   8.957  0.1173  0.1196  0.0327
17114W        W60031  20.469  26.588   6.765  0.0752  0.1630 -0.1360
17115W        W60032  17.965  27.481   7.986 -0.2563  0.0408 -0.1227
17116W        W60033  21.037  26.373   8.394 -0.1472  0.0200  0.0544
17117W        W60034  18.616  27.977   8.340  0.0206  0.6487 -0.3244
17118W        W60035  19.047  28.472   8.218 -0.0739 -0.0410  0.0092
17119W        W60036  19.006  26.958   9.153  0.1250 -0.0625  0.2789
17120W        W60037  19.257  26.467   8.214  0.1162 -0.2490 -0.1659
17121W        W60038  17.991  28.472   5.064  0.0264  0.1337 -0.0369
17122W        W60039  19.954  25.708   8.111 -0.1132 -0.2247  0.0116
17123W        W60040  19.358  23.830   7.622  0.0986 -0.0010 -0.0566
17124W        W60041  19.789  26.492   9.360 -0.1613 -0.3434  0.0620
17125W        W60042  19.800  23.963   7.429  0.0414 -0.2097 -0.1390
17126W        W60043  20.044  28.659   6.378 -0.1635 -0.1897 -0.1733
17127W        W60044  19.526  24.483   7.431  0.2166  0.0829 -0.1893
17128W        W60045  20.654  23.611   8.710  0.1174  0.0479  0.2836
17129W        W60046  21.226  26.553   7.922  0.3524 -0.2361 -0.0526
17130W        W60047  19.415  28.551   8.597  0.1378  0.0127  0.0328
17131W        W60048  18.944  27.882   7.936  0.2284 -0.0018 -0.0623
17132W        W60049  20.493  27.572   5.220 -0.1814  0.0972 -0.3317
17133W        W60050  22.452  28.989   6.778  0.2555 -0.1428  0.1057
17134W        W60051  19.410  28.238   7.984 -0.0825  0.0811 -0.1293
17135W        W60052  19.610  25.543   7.289 -0.0854  0.1257  0.0715
17136W        W60053  18.939  23.436   5.477  0.2321  0.0626  0.0190
17137W        W60054  22.371  26.225   8.811  0.2533 -0.0673  0.0219
17138W        W60055  20.358  25.991   7.644  0.1164 -0.0132 -0.1192
17139W        W60056  21.201  27.043   8.823 -0.0975  0.0248  0.2579
17140W        W60057  21.821  25.501   6.622  0.1544  0.0532 -0.2413
17141W        W60058  21.874  24.243   6.722 -0.1642  0.1407  0.0603
17142W        W60059  20.412  24.801   8.571  0.0020 -0.4608  0.1064
17143W        W60060  20.056  24.665   7.604 -0.0160  0.0673  0.0224
17144W        W60061  20.083  27.905   8.561 -0.1380 -0.1824  0.1911
17145W        W60062  23.538  29.395   9.205 -0.0480  0.3442 -0.0070
17146W        W60063  20.047  28.237   6.685  0.1384 -0.2296  0.3698
17147W        W60064  17.907  25.411   9.180 -0.0198  0.1189 -0.1091
17148W        W60065  19.769  28.530   7.774  0.0634 -0.1421 -0.0514
17149W        W60066  19.746  25.450   9.221 -0.5907  0.2285  0.0995
17150W        W60067  19.034  26.692   8.652 -0.1993  0.0404  0.0232
17151W        W60068  19.276  24.958   7.289  0.0830  0.1623  0.4093
17152W        W60069  18.930  27.463   8.268 -0.1246 -0.0765 -0.1335
17153W        W60070  20.987  26.759   6.737 -0.2085 -0.2677 -0.6399
17154W        W60071  22.333  23.587   6.985  0.0177 -0.0661  0.2389
17155W        W60072  18.623  23.505   6.402 -0.2025  0.0386  0.1498
17156W        W60073  21.532  30.454   6.938  0.0236  0.3355 -0.0812
17157W        W60074  22.369  25.205   6.470  0.0583  0.1028  0.1679
17158W        W60075  19.820  27.143   4.867  0.1497 -0.4761  0.2443
17159W        W60076  18.227  25.537   8.167  0.3801 -0.3837 -0.1449
17160W        W60077  21.433  24.232   8.679 -0.2717  0.0372  0.1705
17161W        W60078  19.336  23.840   7.000  0.1299  0.2379 -0.3284
17162W        W60079  19.884  24.392   5.465  0.0385  0.1970 -0.0354
17163W        W60080  22.728  25.908   8.303  0.0556 -0.0596 -0.2598
17164W        W60081  18.385  28.082   7.938 -0.0382 -0.1131 -0.0495
17165W        W60082  19.137  23.876   6.233 -0.4378  0.1515 -0.1970
17166W        W60083  22.190  28.044   7.266 -0.0909  0.0576  0.1433
17167W        W60084  23.579  25.929   7.621  0.1707 -0.1161 -0.1681
17168W        W60085  20.739  28.616   7.684  0.1077 -0.0646 -0.1185
17169W        W60086  21.837  24.080   7.849 -0.0642 -0.4013 -0.2043
17170W        W60087  18.928  24.273   4.983 -0.0200  0.2472 -0.1208
17171W        W60088  18.883  28.402   7.676 -0.0201  0.0588  0.6720
17172W        W60089  21.259  27.140   9.301  0.0990  0.1398  0.0351
17173W        W60090  18.519  24.830   7.721 -0.1280 -0.4009 -0.4145
17174W        W60091  20.557  28.163   8.475 -0.1855  0.4364  0.0774
17175W        W60092  20.337  28.942   8.496 -0.3287  0.2662  0.0139
17176W        W60093  20.824  27.302   9.064 -0.0964  0.2024  0.0662
17177W        W60094  21.111  26.134   9.455  0.1969 -0.0279 -0.1848
17178W        W60095  21.041  26.098   6.608 -0.2874  0.0258 -0.0316
17179W        W60096  21.237  28.541   8.706 -0.0749 -0.0048 -0.2774
17180W        W60097  17.647  27.135   7.557  0.1564 -0.1114  0.0111
17181W        W60098  19.970  24.395   7.237  0.3641  0.2516 -0.1920
17182W        W60099  21.131  27.686   5.847  0.1577  0.1603 -0.0693
17183W        W60100  21.421  24.830   9.324 -0.3936 -0.0193  0.0998
17184W        W60101  19.768  24.348   7.856  0.0108  0.0041 -0.1354
17185W        W60102  22.669  26.405   8.117  0.0598  0.0551 -0.2580
17186W        W60103  23.170  26.998   6.296 -0.2507  0.2525  0.0208
17187W        W60104  20.412  26.942   7.714 -0.0123 -0.2307  0.3070
17188W        W60105  19.106  27.409   7.764 -0.3012  0.2473  0.1383
17189W        W60106  23.740  24.521   6.076 -0.1242 -0.1349  0.0922
17190W        W60107  19.629  28.068   8.513  0.4799  0.0869  0.0066
17191W        W60108  17.744  27.331   9.621  0.2867 -0.0304  0.1309
17192W        W60109  21.564  25.979   6.680  0.1067  0.3485 -0.0642
17193W        W60110  21.050  27.584   6.570  0.4072  0.1902 -0.1467
17194W        W60111  18.203  25.981   8.580  0.0390  0.1763 -0.2343
17195W        W60112  21.946  30.567   7.578  0.2775 -0.0880  0.1193
17196W        W60113  20.605  25.739   8.527  0.0638 -0.1013 -0.0296
17197W        W60114  20.989  25.550   8.185  0.0836  0.2052  0.1701
17198W        W60115  21.386  25.957   9.862 -0.0020  0.3138  0.1754
17199W        W60116  19.056  26.898   7.635 -0.1746  0.2602  0.1528
17200W        W60117  18.769  23.125   8.027  0.0455  0.1989  0.0322
17201W        W60118  21.977  24.245   8.545  0.0075  0.2727 -0.1754
17202W        W60119  20.394  26.797   8.417 -0.1502  0.2583  0.2288
17203W        W60120  21.041  28.231   8.301 -0.0547  0.2484  0.0158
17204W        W60121  18.768  24.633   7.304  0.0134 -0.0822 -0.3586
17205W        W60122  20.962  22.753   8.796 -0.0321 -0.1238 -0.2628
17206W        W60123  18.497  29.314   8.984  0.0745  0.2492 -0.1073
17207W        W60124  19.787  27.779   7.004  0.0285 -0.0290  0.0656
17208W        W60125  21.278  24.805   6.771  0.1476  0.0541  0.1398
17209W        W60126  19.876  28.017   7.724 -0.5247  0.1235 -0.2378
17210W        W60127  19.919  26.223   7.972  0.0248 -0.1904  0.2457
17211W        W60128  19.380  24.252   8.735  0.0722  0.2005  0.1515
17212W        W60129  19.968  27.640   8.160 -0.2302  0.1844  0.0508
17213W        W60130  16.669  27.844   7.480 -0.1697  0.2333 -0.1478
17214W        W60131  22.106  25.392   7.319  0.0229 -0.0823 -0.0896
17215W        W60132  18.146  27.036   7.942 -0.2988 -0.4270 -0.2444
17216W        W60133  21.207  22.322   8.827  0.1358 -0.0977 -0.2462
17217W        W60134  18.214  26.120   9.112  0.1718  0.1673  0.0134
17218W        W60135  19.547  25.501   7.984  0.3341  0.0060  0.1348
17219W        W60136  19.596  25.120   8.357  0.3374 -0.1509 -0.1911
17220W        W60137  20.947  26.895   7.543  0.3672 -0.0060  0.1485
17221W        W60138  22.157  25.920   7.100 -0.1481 -0.2499 -0.3451
17222W        W60139  19.005  26.646  11.981  0.1513 -0.0512  0.0912
17223W        W60140  21.003  23.239   8.312 -0.0709  0.0151  0.0953
17224W        W60141  15.164  27.177   9.553 -0.0473  0.0183  0.0014
17225W        W60142  20.727  25.635   6.707 -0.1876  0.0408  0.3115
17226W        W60143  19.667  24.199   6.875  0.0406 -0.1646 -0.1773
17227W        W60144  25.607  26.566   7.470  0.1715  0.0441 -0.3288
17228W        W60145  23.773  27.540   9.221  0.0223 -0.1858  0.2076
17229W        W60146  17.427  28.031   7.516 -0.3427 -0.1078 -0.3667
17230W        W60147  20.132  29.252   7.151 -0.2259  0.1050 -0.0615
17231W        W60148  19.645  24.774   6.991  0.0944 -0.0996 -0.2228
17232W        W60149  20.463  24.566   7.024  0.1989  0.1007 -0.0306
17233W        W60150  18.560  29.938   8.775 -0.3162  0.0139 -0.0099
17234W        W60151  19.141  26.233   7.774 -0.2125  0.2355 -0.2289
17235W        W60152  18.732  23.272   8.710  0.2918  0.0105  0.0447
17236W        W60153  18.095  24.540   9.188  0.0526 -0.0385 -0.1747
17237W        W60154  21.883  27.156   8.218  0.1077  0.4172 -0.5271
17238W        W60155  19.717  22.927   8.071 -0.0423 -0.0132  0.1211
17239W        W60156  19.162  25.728   8.492 -0.1535  0.0705  0.3373
17240W        W60157  23.174  28.953   6.415  0.0561  0.0008  0.0196
17241W        W60158  20.612  26.258   8.598  0.1683  0.2406 -0.2261
17242W        W60159  18.676  24.334   7.930  0.0576  0.1254  0.1662
17243W        W60160  17.121  29.117   9.466 -0.1655  0.0533 -0.1191
17244W        W60161  24.712  26.437   7.965  0.2519  0.3704  0.0327
17245W        W60162  18.619  25.905   8.869 -0.0517  0.1190 -0.1529
17246W        W60163  19.521  26.858   7.313  0.2377  0.1078  0.0476
17247W        W60164  22.390  27.472   8.928 -0.3142 -0.1134  0.0129
17248W        W60165  21.439  24.771   7.842 -0.0403 -0.2924 -0.0616
17249W        W60166  20.011  26.818   8.033 -0.2263 -0.1476  0.0006
17250W        W60167  21.450  25.695   8.382 -0.0953 -0.0668  0.1671
17251W        W60168  19.614  27.308   8.246  0.1351 -0.1040 -0.0366
17252W        W60169  20.328  24.664   8.029  0.0584 -0.0720 -0.0643
17253W        W60170  18.799  28.000   8.848  0.2661 -0.1098  0.0366
17254W        W60171  20.493  22.695   9.038  0.0991 -0.1613  0.3084
17255W        W60172  18.225  24.024   5.192  0.1399  0.3100  0.0263
17256W        W60173  21.355  28.010   6.672  0.3105 -0.0750  0.1829
17257W        W60174  20.238  25.602   9.019  0.0492 -0.2661 -0.0626
17258W        W60175  21.686  28.855   8.618 -0.3424  0.0632 -0.1674
17259W        W60176  24.491  26.819   8.181 -0.1066 -0.2246  0.2166
17260W        W60177  22.230  25.610   8.935  0.2290  0.0074  0.3531
17261W        W60178  19.979  25.124   7.833  0.0744  0.3837  0.3259
17262W        W60179  19.193  24.340   7.860  0.2524  0.0454 -0.1388
17263W        W60180  17.895  26.058   9.619  0.0497 -0.1518  0.0924
17264W        W60181  19.096  28.012   8.436  0.3369  0.4160  0.1335
17265W        W60182  21.457  29.673   8.932  0.2059 -0.1879 -0.2377
17266W        W60183  22.506  27.065   8.060 -0.1574  0.1530 -0.1777
17267W        W60184  25.702  26.700   8.809  0.0009  0.1487 -0.3371
17268W        W60185  20.522  23.981   6.446  0.1674 -0.2389 -0.0968
17269W        W60186  22.194  26.659   8.443 -0.3187  0.2525  0.3550
17270W        W60187  20.798  26.808   8.092 -0.3079  0.0851 -0.2151
17271W        W60188  20.525  27.222   8.111  0.0274  0.5044  0.2555
17272W        W60189  18.998  25.105   4.561 -0.0243  0.1053 -0.3553
17273W        W60190  19.586  28.507   6.915  0.1440 -0.0042  0.1376
17274W        W60191  21.771  28.075   7.028 -0.0538  0.0654  0.1709
17275W        W60192  20.689  27.296   7.551  0.1694  0.4191  0.0268
17276W        W60193  20.209  23.930   7.147  0.4069  0.3355 -0.0394
17277W        W60194  19.400  26.308   8.663  0.0875 -0.2655 -0.1680
17278W        W60195  19.573  24.264   8.280 -0.2762  0.1298  0.0838
17279W        W60196  20.065  28.487   8.578 -0.2340 -0.1420 -0.2591
17280W        W60197  20.575  26.409   5.868  0.1734 -0.0243 -0.0560
17281W        W60198  18.194  29.078   8.103  0.0675 -0.1501 -0.2400
17282W        W60199  19.925  25.416   8.633 -0.3718  0.1832  0.3428
17283W        W60200  16.810  26.880   8.179  0.2896 -0.0930  0.1331
17284W        W60201  19.872  27.520   8.830  0.0795 -0.1120 -0.2368
17285W        W60202  21.289  25.913   8.982 -0.0430  0.1655  0.0961
17286W        W60203  20.255  27.238   7.000  0.1361 -0.1984 -0.0036
17287W        W60204  21.215  25.138   8.202  0.1051  0.1397 -0.1267
17288W        W60205  18.845  24.179   7.507 -0.0904 -0.0550  0.1008
17289W        W60206  21.133  29.508   8.057  0.1476 -0.0757  0.1354
17290W        W60207  21.490  26.643   8.617  0.2119  0.1161  0.0391
17291W        W60208  22.548  28.319   8.930  0.0011  0.2806  0.1256
17292W        W60209  18.937  23.714   6.692  0.0260  0.0145  0.2061
17293W        W60210  21.917  25.434   8.423 -0.2304  0.1822 -0.0027
17294W        W60211  19.446  23.776   8.290 -0.1385 -0.0008 -0.1323
17295W        W60212  20.646  27.788   9.102  0.3134  0.3867  0.1378
17296W        W60213  20.683  25.073   8.236  0.1337  0.2028  0.1764
17297W        W60214  22.216  25.087   8.153  0.0420 -0.0483  0.2224
17298W        W60215  21.719  27.076   8.706 -0.1950 -0.0861  0.2297
17299W        W60216  20.815  27.346   6.124 -0.1418  0.1971  0.3879
17300W        W60217  22.037  27.490   7.831  0.1337 -0.1284 -0.4175
17301W        W60218  17.441  26.769   7.342  0.4543 -0.4023  0.0453
17302W        W60219  18.563  28.625   8.067  0.2693  0.3133 -0.1571
17303W        W60220  19.160  28.440   8.966  0.0095 -0.0687 -0.1889
17304W        W60221  21.302  24.882   7.340  0.2219  0.3416 -0.1093
17305W        W60222  22.005  28.413   7.855 -0.4844  0.1797 -0.0912
17306W        W60223  21.778  26.726   7.079 -0.0350  0.0012  0.1926
17307W        W60224  18.170  23.589   8.928  0.2483 -0.2413 -0.2419
17308W        W60225  19.826  25.083   7.372 -0.2575  0.2097  0.0490
17309W        W60226  21.508  28.589   9.114 -0.0743 -0.2115  0.0711
17310W        W60227  19.405  25.187   6.869  0.2848 -0.0072 -0.1370
17311W        W60228  22.222  22.547   7.741  0.2015 -0.0066 -0.2472
17312W        W60229  21.864  23.382   7.953 -0.0949  0.0744  0.2398
17313W        W60230  19.810  27.351   6.705 -0.2108  0.3895  0.1651
17314W        W60231  21.141  26.175   7.554 -0.0491  0.0320 -0.1613
17315W        W60232  18.540  26.922   7.453  0.0644  0.1105 -0.1100
17316W        W60233  18.631  27.913   7.562 -0.4813 -0.1358  0.0389
17317W        W60234  18.898  29.443   8.703  0.3312  0.1999 -0.1117
17318W        W60235  18.683  22.928   7.569 -0.0097  0.1990 -0.2028
17319W        W60236  23.405  29.156   8.703  0.1936 -0.2866 -0.0018
17320W        W60237  19.599  23.128   9.093 -0.0176 -0.1701 -0.0130
17321W        W60238  18.597  24.326   8.476  0.1204 -0.4254  0.0716
17322W        W60239  21.563  26.227   8.361 -0.1372  0.0331 -0.0915
17323W        W60240  21.074  25.909   8.536 -0.1036 -0.3685 -0.0725
17324W        W60241  18.221  24.714   8.187  0.0898  0.0431  0.2721
17325W        W60242  21.009  25.691   7.660  0.0472 -0.1075 -0.1688
17326W        W60243  21.267  26.876   7.169  0.0926 -0.4119 -0.2000
17327W        W60244  18.772  24.586   6.751 -0.1647  0.0653  0.0008
17328W        W60245  21.191  23.493   7.517  0.0190  0.3754  0.0744
17329W        W60246  18.451  27.573   8.035 -0.1222 -0.2215  0.1230
17330W        W60247  21.016  27.203   7.948  0.1714  0.1527  0.1946
17331W        W60248  18.031  23.468   7.627 -0.0316  0.0739  0.0198
17332W        W60249  21.203  27.329   7.417 -0.0701 -0.2922 -0.3329
17333W        W60250  21.749  25.750   8.784 -0.2409 -0.1519  0.1718
17334W        W60251  20.944  28.131   7.431  0.1254 -0.2009 -0.2100
17335W        W60252  20.761  27.105   7.048  0.3619 -0.0147 -0.1714
17336W        W60253  21.185  28.742   7.403  0.3927  0.3800  0.0262
17337W        W60254  17.281  26.407   8.728 -0.0132 -0.3691  0.3828
17338W        W60255  19.423  28.764   8.002  0.0552  0.0936 -0.2069
17339W        W60256  21.527  25.841   7.603 -0.0692 -0.0790 -0.1302
17340W        W60257  20.644  24.484   8.843  0.1043 -0.1109 -0.0470
17341W        W60258  22.418  24.179   8.739  0.0910 -0.1234 -0.1067
17342W        W60259  19.619  27.014   7.823  0.3826  0.0614 -0.0239
17343W        W60260  23.233  25.742   8.984 -0.1595  0.0679 -0.2155
17344W        W60261  21.501  28.362   7.467 -0.1037  0.3078 -0.0810
17345W        W60262  20.051  30.070   7.795  0.0780 -0.1203  0.0905
17346W        W60263  19.621  25.399   5.850  0.0998 -0.1117  0.2838
17347W        W60264  20.750  29.187   6.131 -0.0256  0.0676 -0.1659
17348W        W60265  21.428  29.450   7.633  0.1220  0.1175 -0.2449
17349W        W60266  21.337  27.814   7.215  0.2262  0.1572  0.1927
17350W        W60267  21.675  26.240   7.818 -0.3895 -0.1672  0.2199
17351W        W60268  22.539  26.188   7.307  0.2097 -0.0477  0.2680
17352W        W60269  19.154  24.313   6.510  0.2976 -0.3284 -0.0152
17353W        W60270  21.746  26.152   7.286 -0.0329  0.1090 -0.1119
17354W        W60271  21.445  26.097   6.171 -0.0832 -0.2632  0.0678
17355W        W60272  19.167  25.536   9.041  0.0389 -0.1452  0.0280
17356W        W60273  18.767  25.434   8.659 -0.0944 -0.0904 -0.2059
17357W        W60274  20.209  27.387   7.749  0.1319  0.3966 -0.0335
17358W        W60275  20.248  24.163   7.629  0.1656 -0.2684  0.3127
17359W        W60276  15.160  23.110   9.515  0.0318  0.0997  0.0094
17360W        W60277  20.251  24.672   5.901  0.2090  0.0846 -0.2617
17361W        W60278  22.566  26.450   6.840  0.1832  0.0166  0.2193
17362W        W60279  19.515  22.896   7.553 -0.2639  0.0146  0.2134
17363W        W60280  18.906  24.146   5.870 -0.2519  0.3952 -0.2204
17364W        W60281  18.314  27.306   8.403  0.0404  0.0952  0.0009
17365W        W60282  23.201  29.323   5.975  0.0993 -0.0307  0.2016
17366W        W60283  20.571  24.805   6.327 -0.0112 -0.1869 -0.2490
17367W        W60284  17.712  26.064   8.508 -0.1085  0.0525  0.1631
17368W        W60285  20.914  24.784   7.920 -0.0448  0.1214  0.2342
17369W        W60286  20.312  26.582   8.817 -0.1366  0.0533  0.1240
17370W        W60287  20.558  27.731   6.693 -0.1946  0.1915 -0.3698
17371W        W60288  22.456  29.346   7.720 -0.0031 -0.4015 -0.1199
17372W        W60289  15.981  22.929   9.223  0.0186 -0.3179  0.1660
17373W        W60290  22.161  28.925   7.183 -0.1125  0.2334  0.0703
17374W        W60291  21.383  27.576   7.974 -0.2418  0.0378  0.0103
17375W        W60292  17.596  26.913   9.362  0.2300 -0.0184 -0.0504
17376W        W60293  20.187  25.184   8.261  0.1592 -0.1459 -0.2844
17377W        W60294  22.133  28.337   6.840  0.1065 -0.0317 -0.1963
17378W        W60295  18.594  24.838   5.725 -0.2153  0.0339 -0.1431
17379W        W60296  21.604  25.230   7.468 -0.1086 -0.0120 -0.1235
17380W        W60297  21.555  28.456   5.445 -0.2351  0.1807  0.1200
17381W        W60298  16.037  30.632   9.567  0.0474  0.0692  0.2414
17382W        W60299  20.099  27.211   8.428 -0.2604  0.0811 -0.1354
17383W        W60300  17.900  28.003   9.637  0.1314  0.0578  0.0688
17384W        W60301  21.663  26.757   9.189 -0.2127  0.1491 -0.0047
17385W        W60302  23.138  28.389   5.769 -0.1057  0.0317 -0.2268
17386W        W60303  18.832  26.641   8.086  0.0988 -0.1527  0.0913
17387W        W60304  18.798  28.883   9.095 -0.2812 -0.0414  0.0975
17388W        W60305  23.041  26.531   8.506  0.3450  0.0979 -0.2394
17389W        W60306  19.891  22.548   8.292  0.0317  0.0315  0.1249
17390W        W60307  19.822  26.003   8.491  0.0068 -0.0441 -0.0853
17391W        W60308  20.291  26.256   9.283  0.1944 -0.2861  0.0274
17392W        W60309  19.769  23.956   8.658  0.0516  0.1161  0.1769
17393W        W60310  20.255  24.373   6.347  0.0566  0.0262  0.1124
17394W        W60311  21.004  26.080   5.959  0.3877  0.0523 -0.1434
17395W        W60312  22.473  26.627   7.670  0.1811  0.0519 -0.2006
17396W        W60313  22.615  23.991   9.201  0.2215 -0.1578 -0.1280
17397W        W60314  20.998  29.301   0.423 -0.2107 -0.0115 -0.0711
17398W        W60315  21.418  30.591   0.387  0.3186 -0.1216  0.1063
17399W        W60316  21.558  29.468  31.565 -0.2199 -0.0484  0.1303
17400W        W60317  21.086  30.223   1.299 -0.2431  0.0939 -0.1534
17401W        W60318  18.801  31.263   1.045 -0.0285 -0.0288 -0.0336
17402W        W60319  21.555  31.776  31.835 -0.1277 -0.0200 -0.0829
17403W        W60320  17.825  29.266   3.707  0.1269 -0.3967 -0.0091
17404W        W60321  21.098  30.864  31.909 -0.1538  0.1585 -0.1219
17405W        W60322  20.654  31.107   2.277 -0.0629  0.0073 -0.0023
17406W        W60323  19.174  32.925  30.897 -0.1002  0.0417 -0.0634
17407W        W60324  18.616  30.690   2.804 -0.3091 -0.2025  0.1113
17408W        W60325  19.528  32.092   3.313 -0.1468 -0.0938  0.1648
17409W        W60326  18.651  27.959   1.917  0.0500 -0.4233 -0.3103
17410W        W60327  16.246  30.243   1.040  0.1690  0.0718 -0.1374
17411W        W60328  21.626  29.136   2.828  0.1106 -0.1190 -0.0070
17412W        W60329  19.162  30.397  31.779 -0.0041  0.0498  0.4526
17413W        W60330  17.353  28.274   0.624  0.0392 -0.0870 -0.0154
17414W        W60331  21.440  30.887  31.500  0.0549 -0.0572 -0.2448
17415W        W60332  20.989  32.401   2.217  0.1084 -0.0175  0.3563
17416W        W60333  19.120  27.545   1.424  0.2122  0.1138 -0.6778
17417W        W60334  19.054  30.036   3.955  0.0176  0.0657 -0.0769
17418W        W60335  19.314  30.435   1.505 -0.0477 -0.1604  0.0711
17419W        W60336  17.103  31.405  29.928 -0.0084  0.0636 -0.0725
17420W        W60337  18.400  28.326   1.047  0.3245 -0.1362 -0.0275
17421W        W60338  19.361  29.443   0.931 -0.2195  0.3190  0.2014
17422W        W60339  19.740  29.783   1.209  0.1925  0.3881  0.1905
17423W        W60340  20.715  28.656   2.344  0.0935  0.0587  0.2369
17424W        W60341  20.225  29.542   1.922  0.2445 -0.1939  0.0205
17425W        W60342  22.139  32.635   1.509  0.2692  0.1251  0.2046
17426W        W60343  19.077  29.779   2.481  0.3304 -0.0104 -0.0902
17427W        W60344  18.936  33.298  30.002 -0.2664  0.1326 -0.2004
17428W        W60345  20.445  30.939  31.317  0.0130  0.0739 -0.1644
17429W        W60346  19.412  34.620   2.610 -0.0942 -0.2625  0.1188
17430W        W60347  21.648  34.165   1.219  0.0160  0.0027 -0.1154
17431W        W60348  20.037  30.138   0.355 -0.1484  0.0004  0.0609
17432W        W60349  20.357  32.257   3.700 -0.0663 -0.0276 -0.1551
17433W        W60350  20.782  32.652   1.710 -0.0641 -0.2073  0.0017
17434W        W60351  21.219  33.235   3.335  0.0534 -0.1288 -0.3719
17435W        W60352  20.141  31.329   0.713 -0.1928  0.3600  0.4107
17436W        W60353  19.933  30.158   2.517 -0.0711  0.2384  0.0140
17437W        W60354  20.577  33.866   2.427  0.1515  0.0539 -0.0894
17438W        W60355  20.879  30.394   0.719 -0.0948 -0.0163 -0.3604
17439W        W60356  20.267  31.751   2.229 -0.4715 -0.0180 -0.1537
17440W        W60357  20.119  30.747   2.738  0.1766 -0.1085  0.0609
17441W        W60358  20.633  30.032   0.980 -0.0181  0.0566  0.1468
17442W        W60359  20.892  29.987   3.927 -0.2919  0.0185  0.0378
17443W        W60360  18.233  33.266   0.377  0.1088 -0.3049  0.1717
17444W        W60361  19.938  31.101  31.388  0.3332  0.2431  0.5438
17445W        W60362  20.241  31.428   0.219 -0.0077  0.2112 -0.1690
17446W        W60363  18.721  29.483   0.866 -0.4154 -0.1233  0.2668
17447W        W60364  19.052  28.638   1.700  0.1575 -0.1427 -0.3276
17448W        W60365  20.395  33.452   2.158  0.1754  0.2715  0.2202
17449W        W60366  17.673  28.611   4.252 -0.1468  0.1072  0.1390
17450W        W60367  21.510  30.902   2.322 -0.0436  0.2899  0.0143
17451W        W60368  21.311  31.328  31.763  0.0214 -0.1536 -0.1648
17452W        W60369  21.553  28.220   1.810  0.0433 -0.1867 -0.3196
17453W        W60370  19.879  32.560   0.878  0.1322  0.0418 -0.0072
17454W        W60371  19.282  31.884   0.383  0.3841 -0.0152  0.1148
17455W        W60372  21.211  34.399  31.451  0.2210  0.1457  0.1267
17456W        W60373  20.226  33.329   3.120 -0.1352 -0.2630 -0.2341
17457W        W60374  20.781  33.195   0.855  0.0102 -0.1491  0.2250
17458W        W60375  19.015  29.090   1.378  0.0567  0.0382 -0.0280
17459W        W60376  18.859  28.980   2.365  0.3367 -0.0416  0.1468
17460W        W60377  17.096  27.354   2.118 -0.2054 -0.2621 -0.0668
17461W        W60378  22.883  28.803   1.792 -0.1186 -0.1040  0.1088
17462W        W60379  22.009  32.093   2.653 -0.1323 -0.1595  0.2745
17463W        W60380  18.539  30.918   2.387  0.3476 -0.2741  0.2286
17464W        W60381  21.161  31.201   0.912 -0.0525  0.1115 -0.1144
17465W        W60382  18.461  31.257   1.460 -0.2942 -0.2135  0.1079
17466W        W60383  21.803  31.938   1.611 -0.2869  0.1372 -0.0765
17467W        W60384  20.289  30.689  29.106 -0.1725  0.2114  0.3047
17468W        W60385  20.622  29.844   1.860 -0.1599 -0.0889 -0.1454
17469W        W60386  21.633  28.457   0.951  0.0319  0.2654  0.1453
17470W        W60387  18.948  30.553   0.257 -0.3144  0.1784  0.1524
17471W        W60388  19.702  30.718   1.708  0.1133 -0.2598  0.1102
17472W        W60389  23.402  31.768   2.938  0.3078  0.1899 -0.1995
17473W        W60390  21.735  32.406   1.832 -0.3099  0.1743  0.4331
17474W        W60391  18.035  30.403   3.013  0.3285 -0.1087  0.0480
17475W        W60392  17.821  29.730   2.346 -0.0863  0.0109 -0.0572
17476W        W60393  20.683  32.097   3.321  0.0266 -0.2152 -0.0366
17477W        W60394  20.284   0.056   3.007 -0.1273 -0.0191  0.1338
17478W        W60395  17.687  31.190   1.772 -0.1843 -0.0654  0.0160
17479W        W60396  19.638  30.693  31.362  0.1362 -0.1251 -0.0460
17480W        W60397  17.627  29.125   0.402 -0.0654 -0.0138  0.2628
17481W        W60398  20.404  30.864   3.171 -0.0065 -0.2502  0.1278
17482W        W60399  21.617  30.410  31.880  0.0870 -0.0299  0.1161
17483W        W60400  17.540  28.819   1.246 -0.1184  0.2415 -0.2419
17484W        W60401  20.160  29.499   2.663  0.2446 -0.1626  0.0432
17485W        W60402  19.754  31.565  31.947  0.4331  0.1909  0.3026
17486W        W60403  20.792  33.524   1.306  0.0540 -0.2470 -0.0748
17487W        W60404  21.221  29.802   2.158 -0.1077 -0.1767  0.0031
17488W        W60405  21.346  32.180   1.947  0.2649  0.0808 -0.1720
17489W        W60406  19.264  31.562   2.552 -0.1305 -0.2968 -0.1183
17490W        W60407  18.702  28.558   2.027  0.1954 -0.3076  0.0717
17491W        W60408  19.754  28.693   3.763  0.0639  0.1098 -0.0587
17492W        W60409  17.775  29.594   0.227  0.2133  0.3470 -0.1303
17493W        W60410  21.450  31.017   2.850 -0.0512 -0.0377  0.0568
17494W        W60411  19.073  28.296  30.642 -0.1242  0.0317 -0.2155
17495W        W60412  21.732  28.090  31.853 -0.0571  0.1056 -0.2446
17496W        W60413  20.895  31.145   1.348  0.0737  0.0045 -0.1054
17497W        W60414  17.255  30.216   0.070  0.2368  0.4103 -0.2548
17498W        W60415  20.661  29.584   2.638  0.1428  0.2632 -0.2432
17499W        W60416  21.838  33.032   0.401 -0.0393  0.0250  0.1840
17500W        W60417  22.489  33.573   1.803 -0.1175  0.0111  0.0435
17501W        W60418  21.469  33.782   2.449 -0.0301 -0.2679  0.0381
17502W        W60419  17.523  31.467   3.517 -0.0164 -0.0651 -0.1348
17503W        W60420  19.653  29.264   1.776  0.0593 -0.0007  0.0349
17504W        W60421  18.572  31.475  31.519  0.1277  0.1838 -0.1027
17505W        W60422  21.343  31.247   0.407  0.0600 -0.1076  0.1375
17506W        W60423  20.467  28.898   1.913  0.0681 -0.0956  0.0673
17507W        W60424  22.965  33.279   3.774 -0.0291 -0.1385  0.0899
17508W        W60425  20.807  31.644   1.613  0.0207 -0.2375 -0.3239
17509W        W60426  17.558  31.134   2.731  0.0666 -0.0856 -0.0239
17510W        W60427  19.669  29.187   2.571  0.1297 -0.0212 -0.2000
17511W        W60428  21.915  30.388   1.558  0.0992 -0.3867  0.4406
17512W        W60429  20.257  28.714   2.460 -0.1559 -0.0388 -0.1887
17513W        W60430  17.425  28.858   0.759  0.5078  0.1533 -0.2254
17514W        W60431  21.409  32.862   1.344  0.1743  0.2309 -0.0759
17515W        W60432  19.515  32.859   0.664 -0.2189  0.2769  0.1770
17516W        W60433  16.619  30.963   1.111 -0.2327  0.0558 -0.0081
17517W        W60434  20.167  30.473   1.626 -0.2710 -0.0562  0.1870
17518W        W60435  20.234  26.872   2.811  0.3248 -0.1139  0.2302
17519W        W60436  19.165  30.507   3.689 -0.1609 -0.0015  0.1646
17520W        W60437  19.346  29.552   2.116 -0.4467  0.0056  0.1784
17521W        W60438  21.228  32.362   0.653  0.2355  0.1096  0.2126
17522W        W60439  19.779  31.266   2.820 -0.1513  0.0920 -0.0956
17523W        W60440  19.896  27.044   2.468 -0.3525 -0.0186 -0.0820
17524W        W60441  22.058  28.802   1.045 -0.0022  0.3606  0.2569
17525W        W60442  20.978  29.138   2.509  0.2541 -0.3027 -0.2720
17526W        W60443  22.111  31.475  29.585  0.1595 -0.0444  0.0557
17527W        W60444  22.739  31.545  30.126 -0.2774 -0.1098 -0.0258
17528W        W60445  22.407  29.173   0.125  0.1198 -0.0943  0.1554
17529W        W60446  17.683  31.757   3.110 -0.0802 -0.3509 -0.1152
17530W        W60447  21.554  32.747   0.928 -0.0431  0.0227 -0.0282
17531W        W60448  20.513  28.165   1.493 -0.4197  0.1572 -0.2774
17532W        W60449  19.369  28.389   1.097  0.5174  0.1312 -0.1050
17533W        W60450  21.443  32.918   2.897 -0.2925 -0.2036  0.3821
17534W        W60451  19.871  29.410   0.723  0.1147  0.2324  0.3159
17535W        W60452  19.873  31.456   5.006  0.0331  0.0077 -0.1843
17536W        W60453  22.886  32.016   1.714  0.1210 -0.0428  0.1800
17537W        W60454  19.921  27.160   1.562 -0.1884  0.0517  0.0421
17538W        W60455  18.796  30.717  31.566 -0.0659  0.4124  0.1800
17539W        W60456  17.963  28.160   0.691  0.1849  0.0816  0.0175
17540W        W60457  17.512  33.856  31.219 -0.0606 -0.2133 -0.0161
17541W        W60458  22.662  28.258   0.339 -0.1724 -0.3086  0.1846
17542W        W60459  21.967  28.095   2.155  0.4336 -0.0464  0.1181
17543W        W60460  19.957  28.192   3.890 -0.1015 -0.1795  0.1856
17544W        W60461  20.494  30.731   3.719 -0.0460  0.1937  0.1292
17545W        W60462  23.220  30.053  31.565  0.0070  0.2055 -0.0895
17546W        W60463  18.202  29.509   2.100 -0.0982 -0.2406  0.1531
17547W        W60464  18.085  29.765  31.727 -0.0790 -0.0282  0.2735
17548W        W60465  20.990  29.524   3.046 -0.1048  0.2844 -0.2392
17549W        W60466  18.280  31.213   2.787 -0.1022  0.2351 -0.0253
17550W        W60467  18.697  30.803   3.511  0.2072  0.0418 -0.4001
17551W        W60468  22.192  29.877   2.392 -0.0540  0.1204 -0.1155
17552W        W60469  20.494  30.575   1.126  0.1307 -0.0291  0.0995
17553W        W60470  20.735  31.438   3.926  0.1275 -0.1775  0.0739
17554W        W60471  18.762  29.923   2.066  0.1179  0.0965  0.5574
17555W        W60472  20.685  31.444   0.722  0.0242  0.2710  0.3775
17556W        W60473  21.883  31.434   1.511 -0.1117 -0.2588 -0.5171
17557W        W60474  18.564  29.125   1.278  0.0335  0.1311  0.1456
17558W        W60475  20.114  29.977   1.602  0.0415  0.2030 -0.0362
17559W        W60476  20.370  29.237   0.821  0.0084 -0.2207 -0.0080
17560W        W60477  21.297  31.412   4.368 -0.1190  0.1418  0.2164
17561W        W60478  20.374  31.385  31.183  0.3450 -0.0836  0.2061
17562W        W60479  21.886  29.748   1.354 -0.0848  0.1093  0.1678
17563W        W60480  15.857  30.789  31.365  0.0255  0.0768 -0.0031
17564W        W60481  21.768  30.455  30.835  0.0135 -0.0520  0.1767
17565W        W60482  19.075  31.479   0.635  0.1088 -0.4160  0.1191
17566W        W60483  22.955  27.458   3.232 -0.0370 -0.0702  0.0079
17567W        W60484  21.069  31.686  31.397 -0.0592  0.0137 -0.0131
17568W        W60485  17.470  30.156   1.378 -0.1378 -0.2507 -0.0335
17569W        W60486  18.575  27.526   4.206 -0.0056  0.0270  0.0545
17570W        W60487  17.542  32.027   2.401  0.0671  0.2145  0.2774
17571W        W60488  19.494  30.064   2.206 -0.0359 -0.0034 -0.1719
17572W        W60489  22.037  26.679   0.189  0.0446 -0.2744  0.1712
17573W        W60490  21.466  30.932   1.274 -0.1028 -0.1520 -0.1848
17574W        W60491  17.724  29.952   1.914  0.0741 -0.0839 -0.2608
17575W        W60492  17.071  27.883  31.198  0.0999 -0.2140 -0.1377
17576W        W60493  19.381  30.541   0.548 -0.2130 -0.0279  0.1971
17577W        W60494  18.510  28.793  31.908 -0.1013 -0.1134 -0.1995
17578W        W60495  18.185  30.896   0.301 -0.0840 -0.0554  0.1825
17579W        W60496  18.481  30.490   2.116 -0.1255  0.0801 -0.3790
17580W        W60497  20.855  28.578   0.514 -0.0423 -0.2324  0.3013
17581W        W60498  20.938  30.948  31.433 -0.2073 -0.2294 -0.0005
17582W        W60499  17.764  28.779   2.375 -0.1937  0.1194 -0.5299
17583W        W60500  19.381  30.816   3.401 -0.3085  0.1909 -0.1213
17584W        W60501  19.558  29.879   2.652 -0.0255  0.1378  0.0856
17585W        W60502  20.372  27.163   1.842 -0.2509  0.0092  0.1811
17586W        W60503  21.376  29.574   1.157  0.0026 -0.1652 -0.2258
17587W        W60504  22.432  31.973   2.152 -0.0749  0.3254  0.0356
17588W        W60505  19.533  27.292   1.296 -0.1480  0.2121  0.2081
17589W        W60506  19.795  30.538   3.525 -0.1116  0.2558 -0.1172
17590W        W60507  19.937  30.191   2.027 -0.1541 -0.2708 -0.0810
17591W        W60508  20.622  34.004   0.697 -0.2894  0.1051 -0.0738
17592W        W60509  20.272  29.837   0.766 -0.1144  0.0331 -0.2773
17593W        W60510  19.363  30.325   1.028  0.0443 -0.1253  0.0040
17594W        W60511  14.279  30.331   1.649 -0.0751 -0.0080 -0.1305
17595W        W60512  20.004  30.563   0.169 -0.0410 -0.1412  0.0719
17596W        W60513  19.387  27.515   3.626 -0.0872  0.0034  0.3842
17597W        W60514  19.503  30.930   1.312 -0.0547 -0.1162 -0.1567
17598W        W60515  19.558  28.789   1.529 -0.0443 -0.1259 -0.0233
17599W        W60516  19.536  31.375   1.094  0.1159 -0.3421  0.2686
17600W        W60517  21.293  31.868   1.557 -0.0464 -0.1288 -0.0259
17601W        W60518  22.244  32.123   0.760  0.0979  0.1163 -0.1817
17602W        W60519  21.354  30.052   2.572 -0.2830 -0.0316 -0.0936
17603W        W60520  22.704  31.090   4.074  0.0272 -0.1461  0.0402
17604W        W60521  20.449  30.394   0.516 -0.1442 -0.0355  0.1059
17605W        W60522  19.908  28.847   4.249 -0.1521 -0.0583  0.1552
17606W        W60523  17.623  27.757   2.151  0.0157  0.0690  0.3334
17607W        W60524  21.713  31.995   2.218 -0.0734  0.2755 -0.2578
17608W        W60525  17.980  28.341   4.585  0.2704 -0.1062 -0.1659
17609W        W60526  20.338  33.917   3.175 -0.0122  0.0319 -0.1809
17610W        W60527  18.836  31.991   2.762  0.0040 -0.2972  0.3277
17611W        W60528  19.153  29.145   1.886  0.0511 -0.1258  0.0279
17612W        W60529  21.650  31.014   0.088 -0.0341  0.0459 -0.0963
17613W        W60530  18.165  28.963   2.057  0.1030 -0.0292 -0.3018
17614W        W60531  21.175  32.926   2.429 -0.1686  0.2809  0.3150
17615W        W60532  20.632  29.577   0.573 -0.4365  0.1895 -0.1898
17616W        W60533  19.867  28.468   1.266 -0.0438  0.1402  0.0367
17617W        W60534  17.329  29.396   3.649 -0.2818  0.0551 -0.0909
17618W        W60535  21.786  30.312  31.381  0.0196  0.1458 -0.1466
17619W        W60536  22.461  32.666   1.104  0.1597 -0.2197 -0.1210
17620W        W60537  19.919  28.432   0.244 -0.1907  0.1475  0.1437
17621W        W60538  18.732  29.786   2.896  0.1278  0.2832 -0.0667
17622W        W60539  20.189  30.798   0.799 -0.1947 -0.1927 -0.1396
17623W        W60540  19.616  29.820   1.732  0.1700  0.2335  0.2019
17624W        W60541  18.411  29.646   2.555  0.2266  0.0060 -0.3695
17625W        W60542  21.694  29.456   4.216 -0.2356  0.2042  0.0742
17626W        W60543  19.246  28.880   2.685 -0.2144 -0.3144 -0.4230
17627W        W60544  18.995  30.783   3.120  0.1145  0.1764 -0.2658
17628W        W60545  19.533  31.161   1.789  0.0740  0.2779  0.3232
17629W        W60546  20.919  28.112  29.815  0.0405 -0.0786 -0.2454
17630W        W60547  21.073  30.470   2.717  0.1633 -0.5303 -0.1978
17631W        W60548  20.996  29.949   0.494  0.2180  0.0233 -0.2931
17632W        W60549  20.151  28.606  31.525  0.0934 -0.1816 -0.0825
17633W        W60550  17.115  30.416   2.752  0.1739 -0.1081 -0.0869
17634W        W60551  21.808  30.659   2.009 -0.0735  0.2439  0.1647
17635W        W60552  19.628  29.953   0.743 -0.0332  0.1809 -0.0885
17636W        W60553  19.136  30.063   1.874  0.1886  0.1391  0.2529
17637W        W60554  17.700  34.209   0.653 -0.1233  0.2073  0.0362
17638W        W60555  21.143  31.254   2.113  0.0902  0.2163 -0.0285
17639W        W60556  21.023  30.869   0.466  0.0577  0.4036 -0.1199
17640W        W60557  18.114  28.667   1.169 -0.2658 -0.4358 -0.2470
17641W        W60558  19.368  31.194   4.977  0.1317  0.2288 -0.0457
17642W        W60559  17.342  30.620   0.633  0.2324 -0.1237 -0.2448
17643W        W60560  21.639  32.469   1.323  0.3182 -0.1946 -0.0849
17644W        W60561  19.858  31.059   4.146  0.0951 -0.0831 -0.0983
17645W        W60562  21.523  31.068   1.735 -0.2580  0.0681 -0.1624
17646W        W60563  20.541  29.066   0.347 -0.1021  0.1675  0.0181
17647W        W60564  21.854  31.856   5.015 -0.2110  0.1490 -0.2485
17648W        W60565  20.397  31.316   1.150 -0.2157 -0.4018  0.1204
17649W        W60566  21.580  27.420   2.327  0.1758  0.1347 -0.0708
17650W        W60567  18.154  29.373   1.096  0.1925 -0.2107  0.0372
17651W        W60568  18.198  31.608   1.736 -0.1203 -0.0892  0.2862
17652W        W60569  18.433  32.232   0.930 -0.1218  0.2446 -0.0688
17653W        W60570  20.363  27.100   1.270  0.3428  0.1632  0.3132
17654W        W60571  20.843  30.061   2.294 -0.3504  0.2157  0.0430
17655W        W60572  18.691  30.024   1.602 -0.1474 -0.0749 -0.0360
17656W        W60573  21.388  30.451   2.228 -0.0830  0.1725 -0.1293
17657W        W60574  20.404  31.907   4.034 -0.3098 -0.1615  0.0384
17658W        W60575  19.370  29.443   1.441 -0.2885 -0.0411  0.1086
17659W        W60576  19.047  34.220   2.950 -0.1140 -0.1193  0.5982
17660W        W60577  22.347  30.913   2.084 -0.0444  0.2246  0.1420
17661W        W60578  17.918  29.540   2.790  0.0565  0.1873 -0.1634
17662W        W60579  17.465  30.035   2.770  0.1047 -0.1986 -0.0023
17663W        W60580  21.450  28.535   2.884  0.3040 -0.1430 -0.2070
17664W        W60581  20.433  31.001   1.530  0.2118 -0.0215 -0.1649
17665W        W60582  20.463  29.181   2.415  0.1755  0.0727 -0.0989
17666W        W60583  20.144  32.762   1.354 -0.3480 -0.1740  0.1519
17667W        W60584  18.462  32.243   2.923 -0.2886 -0.1404  0.2114
17668W        W60585  18.047  29.663   1.610 -0.0797  0.0877  0.1702
17669W        W60586  19.551  33.793   1.161 -0.0333  0.1247  0.0601
17670W        W60587  22.931  32.038   0.088 -0.1545 -0.0559  0.0771
17671W        W60588  23.028  31.245  31.524 -0.3156 -0.1362  0.0088
17672W        W60589  21.550  31.717   3.523  0.2241 -0.0884  0.0841
17673W        W60590  18.844  29.447   2.176 -0.3054 -0.4155  0.0524
17674W        W60591  19.991  31.610   1.118 -0.2425  0.2275  0.2108
17675W        W60592  20.853  32.090   0.908 -0.0087 -0.2370  0.0982
17676W        W60593  21.001  33.951   2.055  0.3207 -0.2658  0.1648
17677W        W60594  21.389  32.003   0.309  0.0722  0.1601 -0.2954
17678W        W60595  21.611  32.289   2.918  0.1355 -0.2631 -0.1085
17679W        W60596  23.794  30.221   0.197  0.0442 -0.2297 -0.2888
17680W        W60597  22.665  30.089   0.840  0.0841 -0.0229 -0.0042
17681W        W60598  21.927  29.896   0.394  0.0882 -0.1029 -0.0415
17682W        W60599  21.968  31.978   3.695 -0.0867 -0.0207 -0.2226
17683W        W60600  18.443  28.856   0.832 -0.1925  0.2503  0.1329
17684W        W60601  19.099  29.862   0.883 -0.2939  0.0754 -0.0411
17685W        W60602  18.623  30.218   2.568  0.0036  0.0863 -0.3074
17686W        W60603  20.479  30.292   1.996 -0.0884  0.1229 -0.1447
17687W        W60604  17.024  32.196   1.932 -0.2507  0.1516  0.1710
17688W        W60605  21.759  34.244   1.717  0.3105  0.0698  0.0875
17689W        W60606  18.667  29.348  31.950  0.0338 -0.4620 -0.0122
17690W        W60607  20.247  29.562   1.222  0.0599  0.0335  0.3059
17691W        W60608  23.477  27.713   2.987 -0.1430 -0.0229  0.3719
17692W        W60609  20.067  28.844   0.497  0.2413 -0.1367 -0.2365
17693W        W60610  20.334  30.756   2.061 -0.0012  0.0104  0.0099
17694W        W60611  21.622  30.956   0.716 -0.0081 -0.0572  0.2329
17695W        W60612  17.926  30.334   2.186 -0.1330 -0.0222 -0.2932
17696W        W60613  18.033  32.076   2.277  0.1493  0.1283 -0.4838
17697W        W60614  17.798  29.864   1.212  0.2417  0.1046  0.1766
17698W        W60615  22.103  31.543   0.721  0.0925 -0.2264  0.0546
17699W        W60616  18.703  28.369   3.213  0.2510  0.5183  0.3249
17700W        W60617  20.853  29.485   1.005 -0.0666 -0.3422 -0.0649
17701W        W60618  18.389  29.691   0.175 -0.1684 -0.0167  0.2092
17702W        W60619  20.979  29.044   1.930  0.1293 -0.0981  0.2033
17703W        W60620  17.809  28.871   1.716  0.1621 -0.1858  0.1512
17704W        W60621  18.337  30.001   2.249 -0.1438  0.2302 -0.0994
17705W        W60622  22.420  28.605   1.466 -0.3164  0.2195  0.1479
17706W        W60623  23.128  30.723   0.346 -0.2685 -0.2004 -0.2098
17707W        W60624  21.127  31.722   0.644 -0.4818 -0.1812  0.0921
17708W        W60625  19.374  31.293   4.128  0.3906  0.0881  0.2011
17709W        W60626  18.658  28.171  31.421 -0.0760 -0.1935 -0.1891
17710W        W60627  22.645  28.936  31.661 -0.1448  0.0021 -0.1526
17711W        W60628  18.826  29.664   1.273  0.0021 -0.0308 -0.0180
17712W        W60629  19.076  30.377   2.804 -0.0088  0.3454  0.1256
17713W        W60630  22.597  31.597   3.405  0.1860  0.2164 -0.0654
17714W        W60631  21.497  28.943  31.713  0.0809 -0.1573 -0.1446
17715W        W60632  21.960  30.757  31.624  0.1037  0.0833 -0.0788
17716W        W60633  20.698  28.820   0.952  0.1454 -0.0945 -0.1956
17717W        W60634  18.919  30.910   1.495  0.2122 -0.1480  0.5386
17718W        W60635  21.147  30.823   1.915  0.0798  0.0405 -0.0483
17719W        W60636  19.075  30.936   1.957 -0.4650 -0.0184 -0.2696
17720W        W60637  18.211  30.523   2.541 -0.1123 -0.3546 -0.1358
17721W        W60638  21.072  29.619  31.296  0.2029 -0.1591  0.0081
17722W        W60639  21.415  31.881   2.675  0.0513  0.2744  0.1695
17723W        W60640  21.814  28.569   0.384  0.2602 -0.1382  0.3562
17724W        W60641  20.052  28.999   1.566 -0.1817  0.1922 -0.2078
17725W        W60642  18.622  33.831   1.603  0.2025 -0.1187 -0.0573
17726W        W60643  21.267  29.978   0.902 -0.0009  0.2769  0.3245
17727W        W60644  19.735  27.422   2.775 -0.1613 -0.0968  0.4866
17728W        W60645  21.666  32.243  31.899  0.1025  0.2048  0.3192
17729W        W60646  19.532  28.919   2.140 -0.0310 -0.1472 -0.2732
17730W        W60647  22.628  31.317   1.307 -0.1100  0.0892  0.2518
17731W        W60648  20.732  32.607   3.392  0.2221 -0.1096  0.0029
17732W        W60649  19.595  32.390  30.588 -0.1010  0.1565 -0.1017
17733W        W60650  19.936  30.686   1.227 -0.1543  0.2501  0.0400
17734W        W60651  20.022  30.289   0.905 -0.1063 -0.0978  0.0127
17735W        W60652  22.695  32.088   1.121  0.1082  0.1715 -0.1016
17736W        W60653  19.607  30.792  31.921  0.1899  0.1774 -0.0322
17737W        W60654  21.192  29.926  31.954 -0.0357 -0.1158  0.0381
17738W        W60655  23.411  32.378   0.827  0.2083  0.4604  0.0973
17739W        W60656  20.472  29.107   1.305  0.1578  0.2469 -0.0094
17740W        W60657  21.319  28.863   0.356  0.0726  0.1177 -0.2399
17741W        W60658  23.903  29.042   2.936  0.0950  0.0922 -0.0761
17742W        W60659  19.046  30.310   2.306  0.2722 -0.0473 -0.0936
17743W        W60660  19.522  32.376   0.476 -0.2438 -0.2282 -0.0511
17744W        W60661  19.663  31.620   1.575 -0.0125 -0.1076 -0.2946
17745W        W60662  17.448  28.587   1.984  0.0006 -0.3164 -0.0612
17746W        W60663  19.782  29.477   4.369 -0.1147 -0.1094  0.3030
17747W        W60664  19.839  29.696   2.218  0.1076  0.2149  0.0431
17748W        W60665  17.039  27.829   2.544 -0.2780 -0.1809  0.0756
17749W        W60666  20.962  28.972   0.055 -0.0282 -0.1089  0.0159
17750W        W60667  24.021  31.407   0.979  0.1546 -0.2370 -0.4431
17751W        W60668  18.372  28.721   3.101  0.3754 -0.0565  0.1652
17752W        W60669  19.225  27.681   1.961  0.0729 -0.0895 -0.3460
17753W        W60670  21.069  31.017   2.548 -0.0146  0.1768 -0.0432
17754W        W60671  21.857  34.004   0.588 -0.0882 -0.0067 -0.1762
17755W        W60672  17.728  29.249   2.382 -0.1544 -0.3475  0.1434
17756W        W60673  23.844  34.156   3.547 -0.0241 -0.0408  0.2493
17757W        W60674  19.846  32.089   0.850 -0.0264 -0.0060  0.2009
17758W        W60675  19.815  30.437   2.950  0.0889  0.2800  0.2362
17759W        W60676  20.702  29.180   3.787 -0.1574 -0.2816 -0.0517
17760W        W60677  18.386  28.940  30.896  0.0599 -0.1922 -0.2399
17761W        W60678  18.809  27.853   2.852  0.2892 -0.2433 -0.0088
17762W        W60679  19.477  32.511   1.928  0.2101  0.1650 -0.2035
17763W        W60680  22.467  30.664  31.679 -0.3113  0.0277 -0.1881
17764W        W60681  19.952  32.776   4.965 -0.1325  0.2785  0.2243
17765W        W60682  21.068  31.810   4.097 -0.3562 -0.2244 -0.0911
17766W        W60683  18.673  27.911   0.745 -0.5128 -0.2950  0.1129
17767W        W60684  20.710  32.047   1.899  0.2100 -0.0313  0.2389
17768W        W60685  18.892  30.431   0.727 -0.1537  0.0067 -0.0678
17769W        W60686  19.968  31.149   1.469 -0.1916  0.4186 -0.1007
17770W        W60687  20.767  28.591   1.634 -0.1223 -0.0195 -0.0502
17771W        W60688  20.012  29.133   2.210 -0.1251 -0.3682  0.3135
17772W        W60689  17.953  28.486   3.290  0.0505 -0.1374 -0.0688
17773W        W60690  17.943  30.384   1.333 -0.0356  0.1924 -0.2719
17774W        W60691  22.955  31.678   1.166 -0.0602  0.0514 -0.0641
17775W        W60692  21.920  29.396   0.451  0.2532  0.2085 -0.1040
17776W        W60693  21.406  29.606   0.569  0.1481  0.1154  0.1002
17777W        W60694  21.755  31.652   0.304 -0.0088  0.0616  0.2262
17778W        W60695  19.844  31.580  31.265  0.0209  0.0727  0.2211
17779W        W60696  22.146  28.989   0.577  0.0819 -0.2734 -0.1709
17780W        W60697  21.232  26.933   1.229  0.2673  0.3837  0.1512
17781W        W60698  19.276  29.963   1.363 -0.0901  0.0228  0.1163
17782W        W60699  20.715  30.638   1.678  0.0451  0.0986 -0.3394
17783W        W60700  20.756  29.984  31.641  0.3023 -0.1327  0.0179
17784W        W60701  21.311  33.185  31.628 -0.4044 -0.1153 -0.1238
17785W        W60702  19.835  32.116   2.936 -0.0528 -0.3540 -0.1002
17786W        W60703  21.853  31.901   3.122 -0.0721 -0.0330  0.3078
17787W        W60704  19.267  31.640   1.978 -0.1006 -0.2785 -0.0054
17788W        W60705  21.854  33.487   2.204 -0.1674  0.0607 -0.1200
17789W        W60706  18.451  28.698   2.462  0.0197 -0.2103 -0.0123
17790W        W60707  21.798  29.019   0.195  0.0854 -0.1785  0.1234
17791W        W60708  18.880  29.353   3.329  0.0046 -0.1576 -0.1575
17792W        W60709  21.018  30.687   1.159  0.1039  0.1169 -0.1044
17793W        W60710  18.874  28.268   0.317  0.0518  0.0196 -0.0362
17794W        W60711  18.524  29.524   1.715 -0.2824  0.1593  0.3741
17795W        W60712  18.801  31.385   1.815 -0.1527 -0.2653  0.0648
17796W        W60713  19.216  29.339   2.525 -0.0845 -0.1334  0.0373
17797W        W60714  19.519  32.704   7.076 -0.1653 -0.2517 -0.2871
17798W        W60715  18.816  30.721   4.533 -0.2286  0.3726  0.3829
17799W        W60716  21.205  29.557   2.585  0.1700 -0.1831 -0.1293
17800W        W60717  20.730  30.452   5.186  0.0826 -0.0990  0.0137
17801W        W60718  18.346  31.412   3.461  0.2869  0.0541  0.0594
17802W        W60719  20.759  30.603   4.692  0.2883 -0.2488  0.0912
17803W        W60720  20.072  27.999   4.419  0.0033 -0.0886  0.1987
17804W        W60721  20.428  32.904   5.038 -0.3007  0.5059 -0.0366
17805W        W60722  21.033  32.154   5.303  0.3188 -0.0484  0.0725
17806W        W60723  17.832  31.633   2.072 -0.1153  0.2906  0.1321
17807W        W60724  18.881  29.549   4.942  0.1336  0.1878 -0.0381
17808W        W60725  20.343  33.460   6.610  0.0163 -0.1067  0.0892
17809W        W60726  17.612  29.919   4.909 -0.1481  0.0008  0.0235
17810W        W60727  18.160  29.228   5.482 -0.3215  0.0330 -0.1768
17811W        W60728  20.273  30.442   6.168  0.1739 -0.0136  0.1215
17812W        W60729  19.444  31.282   3.191 -0.1926  0.0988  0.1083
17813W        W60730  17.810  31.046   5.200  0.0068 -0.1267 -0.0485
17814W        W60731  18.962  30.402   5.450 -0.0023 -0.1571 -0.0718
17815W        W60732  20.985  32.340   4.196  0.0196 -0.3979 -0.3145
17816W        W60733  17.253  29.476   5.243 -0.1089  0.4279 -0.1133
17817W        W60734  19.103  28.963   6.360  0.1803 -0.2263  0.0608
17818W        W60735  18.750  31.516   2.704 -0.1462 -0.1517  0.1472
17819W        W60736  19.429  30.818   2.829  0.2532  0.1400  0.0208
17820W        W60737  19.060  31.934   6.152  0.0403 -0.2442  0.0376
17821W        W60738  19.175  31.466   5.354  0.0398 -0.0780  0.1525
17822W        W60739  19.484  30.765   4.012  0.0155  0.0404  0.1521
17823W        W60740  21.414  30.455   5.783 -0.0726 -0.1286 -0.1685
17824W        W60741  19.365  33.206   6.097 -0.3243  0.0708 -0.0535
17825W        W60742  20.561  31.830   6.092  0.1883 -0.1879 -0.1934
17826W        W60743  20.624  31.656   5.644  0.1891 -0.0446  0.0895
17827W        W60744  17.764  31.144   5.744 -0.2493 -0.1753  0.2306
17828W        W60745  18.475  33.341   5.153 -0.2092  0.2860 -0.1311
17829W        W60746  18.839  31.684   3.609 -0.0632 -0.2256  0.0308
17830W        W60747  22.571  31.966   4.505  0.0043  0.0579 -0.1856
17831W        W60748  20.792  32.613   5.301 -0.0814 -0.0970 -0.1874
17832W        W60749  18.936  34.057   7.397  0.3492 -0.4059 -0.2872
17833W        W60750  17.264  33.354   1.698  0.3798 -0.0393 -0.0545
17834W        W60751  20.570  32.998   7.276  0.1584 -0.0948 -0.3713
17835W        W60752  18.671  33.642   6.724 -0.3230 -0.4472  0.1449
17836W        W60753  19.356  30.292   5.867  0.2199 -0.1720  0.1040
17837W        W60754  19.421  30.431   4.719  0.2805  0.1262 -0.0650
17838W        W60755  19.423  32.071   1.774 -0.2370 -0.0825  0.0684
17839W        W60756  21.522  31.734   4.618 -0.1212 -0.1346 -0.0816
17840W        W60757  19.307  31.782   7.860 -0.0491 -0.2331  0.2165
17841W        W60758  18.634  32.187   4.741 -0.1793  0.2112  0.2977
17842W        W60759  21.726  29.222   5.423  0.1379  0.0526  0.0082
17843W        W60760  18.443  31.748   4.953 -0.3972 -0.0719 -0.1490
17844W        W60761  20.896  31.285   2.958 -0.1916 -0.1027  0.1547
17845W        W60762  20.484  28.406   3.750  0.0217 -0.1388 -0.1408
17846W        W60763  20.268  30.065   4.748 -0.0628 -0.2090  0.2030
17847W        W60764  18.349  29.611   4.216 -0.0652 -0.0623 -0.1442
17848W        W60765  19.667  31.749   4.120 -0.2013 -0.0268 -0.2841
17849W        W60766  18.784  30.289   5.966  0.3210 -0.0774  0.1832
17850W        W60767  19.669  31.845   5.924  0.1135  0.0151 -0.1843
17851W        W60768  19.358  30.300   3.150 -0.1657 -0.1302 -0.0975
17852W        W60769  19.473  30.353   5.248 -0.0604  0.1216 -0.2553
17853W        W60770  20.007  31.077   7.226  0.0507 -0.0243 -0.1910
17854W        W60771  18.501  30.685   6.746 -0.1528 -0.0229 -0.1958
17855W        W60772  21.938  31.199   2.029 -0.0071 -0.1417 -0.3446
17856W        W60773  22.646  32.423   4.530  0.1291  0.0773 -0.2339
17857W        W60774  19.966  32.935   2.973 -0.1163  0.1707  0.0410
17858W        W60775  18.798  29.648   3.865 -0.0714  0.3312  0.4766
17859W        W60776  16.916  30.961   7.893  0.0863 -0.3591  0.2202
17860W        W60777  19.997  32.644   7.009 -0.1317  0.0029 -0.2850
17861W        W60778  18.439  29.808   4.686 -0.3483  0.3769  0.1437
17862W        W60779  21.413  31.418   5.528 -0.2320 -0.3403  0.0978
17863W        W60780  19.892  32.285   5.827 -0.0332  0.5212 -0.2641
17864W        W60781  21.257  29.227   4.487 -0.2358 -0.1464  0.0633
17865W        W60782  19.916  31.895   5.261 -0.0394  0.0769 -0.3606
17866W        W60783  21.935  31.195   5.742 -0.2340 -0.1255 -0.0690
17867W        W60784  22.284  32.004   3.331  0.0315  0.2017  0.0681
17868W        W60785  19.108  29.068   4.952  0.1650 -0.1083  0.0697
17869W        W60786  20.264  28.463   4.298  0.0085 -0.1624  0.0362
17870W        W60787  20.386  29.862   2.305 -0.1217 -0.0017  0.1754
17871W        W60788  18.719  31.268   4.345 -0.0039 -0.0864 -0.0090
17872W        W60789  20.092  32.262   6.657  0.1033  0.0241  0.1563
17873W        W60790  21.105  32.944   4.329 -0.2996  0.2120 -0.3370
17874W        W60791  18.977  32.803   5.718 -0.0275 -0.3397  0.1339
17875W        W60792  20.502  29.740   3.706 -0.0163  0.0253  0.0062
17876W        W60793  22.655  31.865   9.339 -0.1646 -0.0017 -0.2384
17877W        W60794  19.416  30.650   2.083 -0.1083 -0.1967 -0.1315
17878W        W60795  16.090  31.552   5.245  0.0360  0.0275  0.5344
17879W        W60796  19.246  32.559   1.489 -0.0040  0.0566 -0.0038
17880W        W60797  16.971  29.719   6.272 -0.0076  0.0256 -0.3318
17881W        W60798  19.094  31.886   6.846  0.1606  0.2117  0.0454
17882W        W60799  21.351  27.304   4.024  0.1505 -0.0746 -0.1346
17883W        W60800  19.975  30.605   7.186 -0.0611  0.5143 -0.1562
17884W        W60801  22.044  29.537   5.143 -0.1337  0.2805 -0.0748
17885W        W60802  20.416  30.078   4.089 -0.1194  0.2492  0.2926
17886W        W60803  22.133  32.729   5.103  0.1453  0.3129 -0.0955
17887W        W60804  21.668  31.833   4.073  0.0459  0.2464 -0.3194
17888W        W60805  21.650  34.154   2.727 -0.0798 -0.0393 -0.2551
17889W        W60806  16.817  31.573   7.089  0.1831 -0.2087  0.1209
17890W        W60807  18.662  31.261   3.806 -0.0584  0.0713  0.0545
17891W        W60808  20.374  29.342   6.631 -0.1762 -0.0488  0.1735
17892W        W60809  18.363  28.608   7.600  0.3320 -0.0567  0.2122
17893W        W60810  19.799  30.855   6.312 -0.0134  0.0719 -0.0229
17894W        W60811  18.959  29.119   3.801 -0.0300 -0.0532  0.3483
17895W        W60812  21.290  29.784   4.305  0.1681  0.0455 -0.1379
17896W        W60813  20.117  31.036   4.707  0.2325 -0.0195  0.3792
17897W        W60814  18.780  31.097   4.935 -0.2814  0.4246  0.0280
17898W        W60815  22.406  28.396   7.597  0.0444  0.0057  0.2186
17899W        W60816  19.999  32.509   3.969  0.2025  0.1529  0.1016
17900W        W60817  21.975  31.404   6.171  0.0484  0.0390 -0.1821
17901W        W60818  19.969  33.122   6.837 -0.1097 -0.1480 -0.1444
17902W        W60819  18.801  28.426   6.396  0.1574 -0.2663  0.0080
17903W        W60820  18.826  27.837   3.729  0.0197 -0.0265  0.2844
17904W        W60821  19.334  32.847   5.394  0.1255  0.0886  0.0756
17905W        W60822  18.489  32.233   5.361  0.0973 -0.0806 -0.5050
17906W        W60823  20.010  31.305   3.412  0.1398 -0.3332 -0.3128
17907W        W60824  19.790  32.570   5.386 -0.2409  0.1336 -0.2324
17908W        W60825  19.699  30.771   4.911 -0.1593 -0.0990  0.0294
17909W        W60826  20.043  32.723   5.979  0.3464  0.2462  0.0091
17910W        W60827  19.884  29.668   7.054  0.2223  0.0255 -0.2581
17911W        W60828  20.744  29.373   5.286 -0.0941  0.0689 -0.0611
17912W        W60829  18.564  29.310   5.759 -0.0595  0.0499  0.2935
17913W        W60830  18.438  30.318   4.591  0.0740 -0.0373 -0.3044
17914W        W60831  23.566  32.626   4.422  0.1302 -0.0994  0.1119
17915W        W60832  18.681  32.149   6.393 -0.2205  0.0220  0.1941
17916W        W60833  17.158  30.217   5.746 -0.1929  0.1478 -0.1235
17917W        W60834  21.375  32.128   3.850  0.1057  0.3193 -0.1599
17918W        W60835  21.545  29.669   5.153  0.0475 -0.1428  0.1205
17919W        W60836  17.166  33.209   8.013 -0.3594 -0.2741 -0.0773
17920W        W60837  20.531  30.096   5.847 -0.0095 -0.1087  0.0327
17921W        W60838  18.242  29.843   3.019  0.0695 -0.1933  0.0739
17922W        W60839  18.181  31.672   2.991 -0.2903  0.1501  0.0393
17923W        W60840  18.110  32.058   4.637  0.2497 -0.0524 -0.1357
17924W        W60841  19.657  29.796   4.000 -0.0487  0.4986  0.0244
17925W        W60842  18.817  31.506   6.180 -0.0208 -0.0903  0.3919
17926W        W60843  20.950  31.784   3.612  0.0586  0.2041  0.0609
17927W        W60844  20.030  32.422   4.493 -0.1516 -0.1305  0.0617
17928W        W60845  19.137  31.194   2.784 -0.0894 -0.1293  0.2231
17929W        W60846  17.135  32.674   6.420  0.0425  0.0089  0.1124
17930W        W60847  20.761  30.578   6.010 -0.2202 -0.3870  0.4476
17931W        W60848  20.507  32.040   5.291  0.2092 -0.0670 -0.2220
17932W        W60849  20.239  28.820   3.879 -0.0847  0.3850  0.1093
17933W        W60850  21.490  32.877   3.627 -0.0991 -0.1061 -0.1941
17934W        W60851  18.507  30.454   5.541  0.3247 -0.2299 -0.1133
17935W        W60852  19.756  28.792   8.805  0.0164 -0.2991  0.1030
17936W        W60853  21.420  30.855   6.569  0.2084 -0.0002 -0.3519
17937W        W60854  18.644  28.203   5.822  0.2092  0.2685  0.1034
17938W        W60855  19.869  30.875   3.166 -0.1405  0.0718 -0.2487
17939W        W60856  18.829  29.586   4.393 -0.1158  0.3268  0.0731
17940W        W60857  18.032  33.212   4.031 -0.1638 -0.1356  0.3173
17941W        W60858  19.602  29.042   5.147  0.2833 -0.2014 -0.3322
17942W        W60859  21.165  28.168   5.842 -0.0337 -0.0525 -0.1353
17943W        W60860  20.281  29.125   5.118 -0.1740 -0.4057  0.1344
17944W        W60861  19.721  31.103   5.379 -0.0943 -0.1604  0.1957
17945W        W60862  18.963  30.912   4.040  0.0637  0.1011  0.0376
17946W        W60863  21.015  29.694   4.824  0.0818  0.1078 -0.2916
17947W        W60864  19.644  31.151   3.708  0.1880 -0.1808  0.0708
17948W        W60865  19.749  29.510   5.956  0.1109  0.1804 -0.0980
17949W        W60866  20.259  31.518   5.335 -0.0031  0.1101  0.2761
17950W        W60867  17.136  30.364   6.551  0.0817 -0.1935  0.2354
17951W        W60868  20.509  32.496   6.771 -0.4369  0.3241 -0.0710
17952W        W60869  19.990  30.680   5.383 -0.1002  0.5646 -0.2266
17953W        W60870  20.046  29.700   6.500  0.0325 -0.2499 -0.1098
17954W        W60871  18.516  29.686   3.398  0.2543 -0.3613 -0.0911
17955W        W60872  18.684  31.252   3.141  0.1148  0.0066  0.4848
17956W        W60873  20.907  32.312   3.725 -0.2290 -0.4403 -0.1216
17957W        W60874  18.040  27.925   5.845 -0.3418 -0.1927 -0.0624
17958W        W60875  19.271  33.706   5.904 -0.1343  0.1830 -0.1423
17959W        W60876  22.172  31.664   4.075 -0.0499 -0.2703 -0.0636
17960W        W60877  20.000  30.002   6.062  0.0219 -0.1395  0.1243
17961W        W60878  19.876  32.060   3.781  0.0418  0.1146 -0.0979
17962W        W60879  19.586  28.971   6.050  0.0982  0.3191 -0.1718
17963W        W60880  18.475  33.554   5.693  0.0309  0.1054 -0.2586
17964W        W60881  18.840  29.168   2.820  0.2553 -0.0873 -0.0594
17965W        W60882  17.357  28.676   5.613  0.0984  0.1562 -0.0768
17966W        W60883  21.971  31.137   4.668 -0.1523  0.0369  0.1888
17967W        W60884  21.802  31.404   3.805  0.1834  0.0541 -0.1620
17968W        W60885  18.801  29.823   6.196 -0.0452  0.1483  0.1439
17969W        W60886  19.286  31.634   4.549  0.1381  0.0651  0.0048
17970W        W60887  17.417  32.155   6.468  0.4570  0.3433 -0.1484
17971W        W60888  20.232  31.493   5.864 -0.1021  0.1267 -0.4495
17972W        W60889  19.510  30.428   2.547  0.0723 -0.0911 -0.2165
17973W        W60890  20.001  31.818   6.259  0.1164  0.1465 -0.0768
17974W        W60891  20.523  31.156   7.282  0.0666 -0.0334 -0.0803
17975W        W60892  16.622  29.880   3.324 -0.0347  0.3685  0.2025
17976W        W60893  21.310  31.610   5.076  0.0407  0.0647 -0.5268
17977W        W60894  17.790  30.518   4.496 -0.0473 -0.1113  0.0995
17978W        W60895  19.060  30.763   2.461  0.0720  0.3114 -0.1170
17979W        W60896  20.982  30.744   5.551 -0.0844 -0.1721 -0.0263
17980W        W60897  20.219  30.403   3.272 -0.1680 -0.2800 -0.0935
17981W        W60898  18.788  33.123   6.638  0.1323  0.0772 -0.0107
17982W        W60899  18.132  29.655   5.840 -0.0834  0.0760 -0.0933
17983W        W60900  18.577  32.500   5.777  0.0183 -0.0363  0.1150
17984W        W60901  18.030  31.611   5.905 -0.2365  0.1723 -0.0374
17985W        W60902  19.510  30.117   3.581  0.0158  0.1439 -0.3559
17986W        W60903  19.376  28.093   5.203 -0.0555 -0.2614 -0.0178
17987W        W60904  20.981  31.339   4.729  0.1869 -0.1074  0.0760
17988W        W60905  18.931  31.215   5.773  0.4465  0.0733  0.1561
17989W        W60906  20.113  33.230   7.851 -0.3486  0.2286  0.2693
17990W        W60907  17.464  30.636   5.551 -0.0827  0.1436  0.3257
17991W        W60908  23.236  31.675   4.236  0.2001  0.0936  0.1366
17992W        W60909  22.018  30.008   5.304  0.0580  0.1609  0.0797
17993W        W60910  19.831  31.662   3.087 -0.1001  0.1474  0.2007
17994W        W60911  16.976  32.877   5.074  0.2303  0.4436  0.4167
17995W        W60912  19.262  30.931   4.575 -0.0276  0.2521 -0.0550
17996W        W60913  19.731  29.897   4.676  0.1318 -0.2798 -0.0402
17997W        W60914  19.442  31.771   5.021  0.0453 -0.3323  0.2896
17998W        W60915  17.982  31.052   3.585  0.0289 -0.0929 -0.2681
17999W        W60916  18.998  32.921   7.190  0.1721  0.0648  0.1710
18000W        W60917  20.097  28.962   2.849  0.0520  0.1496  0.1974
18001W        W60918  23.189  31.653   5.128 -0.4440 -0.1531  0.1193
18002W        W60919  19.246  30.937   5.504 -0.0780 -0.1781  0.2242
18003W        W60920  21.624  27.610   6.903  0.0045  0.0796 -0.0626
18004W        W60921  20.797  29.564   4.146  0.0319  0.1868 -0.1130
18005W        W60922  21.694  29.822   7.758 -0.1068  0.2584  0.0995
18006W        W60923  19.264  29.514   4.638  0.1307  0.4123 -0.0800
18007W        W60924  20.247  31.962   5.684  0.2145  0.1790 -0.1654
18008W        W60925  18.228  30.105   5.720 -0.0386 -0.2209 -0.2657
18009W        W60926  22.001  30.973   5.185  0.0587 -0.0079  0.1136
18010W        W60927  18.576  32.227   6.861 -0.0011 -0.0167  0.0248
18011W        W60928  19.154  30.735   5.060 -0.0743  0.2496  0.4625
18012W        W60929  17.666  29.785   3.675 -0.1579  0.2007  0.0750
18013W        W60930  21.117  31.783   5.642  0.1472 -0.2470 -0.0483
18014W        W60931  23.866  31.815   4.514  0.1956 -0.0672  0.0347
18015W        W60932  20.373  31.090   4.074 -0.3916  0.1062 -0.0856
18016W        W60933  21.649  30.719   4.843 -0.0759  0.0359  0.0858
18017W        W60934  18.930  32.185   5.675 -0.1885 -0.0819  0.2335
18018W        W60935  18.580  29.147   4.230 -0.1491 -0.1995  0.3128
18019W        W60936  20.646  29.890   3.261 -0.2179 -0.3133 -0.1777
18020W        W60937  20.308  31.880   4.863  0.4118 -0.4027 -0.0791
18021W        W60938  19.867  28.223   7.255  0.3637  0.3270 -0.1995
18022W        W60939  22.276  28.744   4.593  0.1542 -0.2086  0.1858
18023W        W60940  22.075  28.230   5.499 -0.0525  0.0165  0.1035
18024W        W60941  18.588  31.094   6.323 -0.1048  0.2300  0.1528
18025W        W60942  21.158  30.069   5.118  0.0774  0.0197 -0.3076
18026W        W60943  19.749  32.338   6.314 -0.0783  0.0077  0.0912
18027W        W60944  18.762  31.213   6.750 -0.1704  0.0815 -0.0018
18028W        W60945  19.615  32.098   4.513 -0.0575  0.1812 -0.0721
18029W        W60946  19.774  29.514   2.980  0.3029 -0.0248 -0.0008
18030W        W60947  19.734  31.541   5.536 -0.0125  0.0140  0.3076
18031W        W60948  20.062  30.915   3.714  0.1311  0.0728  0.1247
18032W        W60949  19.599  32.548   2.624 -0.0578  0.1750 -0.2115
18033W        W60950  17.319  29.721   5.743 -0.0208 -0.0291 -0.0747
18034W        W60951  21.611  28.905   7.647 -0.0940  0.0699 -0.1839
18035W        W60952  19.099  28.920   3.174  0.1790  0.1662 -0.1004
18036W        W60953  21.526  30.916   5.626  0.0968  0.1513  0.1449
18037W        W60954  19.282  32.824   2.874 -0.0297  0.0583 -0.3162
18038W        W60955  22.513  30.217   5.058  0.1585  0.1734  0.0750
18039W        W60956  20.639  28.815   5.469 -0.3284  0.1377  0.0627
18040W        W60957  20.084  30.938   6.711  0.2753  0.1871 -0.0236
18041W        W60958  18.137  31.122   6.092  0.1222  0.1459 -0.2134
18042W        W60959  18.397  29.215   3.773 -0.1122  0.2126 -0.1732
18043W        W60960  22.118  32.377   3.098  0.3144 -0.1403  0.1670
18044W        W60961  21.256  32.126   3.286  0.1821  0.1766  0.1053
18045W        W60962  18.746  28.377   5.372 -0.0744  0.0883 -0.1052
18046W        W60963  22.192  29.779   7.517 -0.1492 -0.0251  0.0982
18047W        W60964  18.868  31.239   2.284  0.0240  0.1673 -0.2340
18048W        W60965  18.000  30.149   4.775 -0.0431  0.1070  0.2706
18049W        W60966  20.245  32.773   6.461 -0.0972 -0.0423  0.3644
18050W        W60967  18.619  31.019   7.189 -0.1618  0.0270 -0.0652
18051W        W60968  18.051  30.682   5.610 -0.0870  0.2219 -0.0829
18052W        W60969  18.786  30.437   4.053 -0.1409  0.3135  0.1785
18053W        W60970  19.867  30.299   4.960  0.1441 -0.1845  0.1052
18054W        W60971  17.892  31.982   6.282  0.1104 -0.1455 -0.2133
18055W        W60972  21.407  30.095   6.553 -0.0423 -0.1539  0.1006
18056W        W60973  22.110  31.706   7.405  0.2647 -0.0844 -0.2260
18057W        W60974  17.860  31.398   6.557 -0.0318 -0.2243  0.1214
18058W        W60975  20.201  33.106   5.701  0.3913 -0.1235 -0.2974
18059W        W60976  23.188  33.872   5.032 -0.2043 -0.0111 -0.0968
18060W        W60977  19.690  32.217   5.023 -0.0629  0.0347 -0.0605
18061W        W60978  18.488  28.464   7.034 -0.3843  0.2712 -0.2272
18062W        W60979  18.855  32.086   7.315 -0.1268  0.5350  0.0111
18063W        W60980  20.227  29.294   3.674  0.1607 -0.0690  0.1864
18064W        W60981  17.173  29.192   5.645 -0.1638 -0.4095 -0.1057
18065W        W60982  21.210  31.639   3.140  0.0676 -0.1025 -0.1929
18066W        W60983  18.092  30.896   6.540  0.2585  0.2143  0.0249
18067W        W60984  17.564  31.272   7.983  0.1649 -0.1924  0.0836
18068W        W60985  19.001  32.958   6.234  0.1909  0.1343  0.0750
18069W        W60986  19.928  31.049   2.004 -0.1291 -0.1767  0.2289
18070W        W60987  18.943  31.559   4.903  0.3039  0.0080 -0.0562
18071W        W60988  20.096  30.886   5.861  0.0893 -0.0816 -0.2229
18072W        W60989  19.731  30.223   1.398  0.3519  0.0207 -0.1738
18073W        W60990  18.382  30.577   6.113  0.2859 -0.1562 -0.2329
18074W        W60991  18.116  32.064   3.241  0.1408 -0.1735  0.0800
18075W        W60992  20.337  31.908   3.027 -0.5343  0.1459 -0.2821
18076W        W60993  16.890  30.808   6.221  0.1667  0.1533 -0.2329
18077W        W60994  20.587  31.391   6.300 -0.0100  0.0561 -0.0395
18078W        W60995  22.545  27.655   4.212 -0.1847 -0.0606 -0.0193
18079W        W60996  21.370  30.830   3.635  0.2985 -0.0671 -0.4586
18080W        W60997  22.169  29.392   4.660  0.3655  0.2962  0.1210
18081W        W60998  19.441  32.689   6.170 -0.1381  0.0703 -0.0367
18082W        W60999  20.122  29.657   3.986 -0.0558 -0.0533  0.1612
18083W        W61000  17.081  29.608   3.109 -0.1371 -0.1745 -0.2123
18084W        W61001  21.710  32.869   7.562 -0.1190  0.0683  0.1564
18085W        W61002  21.789  31.398   5.150 -0.1135 -0.1562  0.2027
18086W        W61003  18.624  32.617   7.193 -0.0048  0.1913  0.1889
18087W        W61004  20.233  31.776   3.497  0.2517 -0.1011 -0.1692
18088W        W61005  18.529  28.026   4.059 -0.1554  0.1203 -0.0552
18089W        W61006  18.919  31.660   5.717  0.1226  0.2733 -0.1007
18090W        W61007  21.761  30.502   5.359  0.1336 -0.2965  0.1170
18091W        W61008  21.036  31.540   2.563 -0.0761 -0.3147 -0.2561
18092W        W61009  17.908  30.668   6.110  0.1442  0.1323  0.0276
18093W        W61010  20.467  31.200   3.584 -0.0470 -0.2953 -0.1110
18094W        W61011  17.214  33.235   5.285 -0.0323 -0.3342 -0.1326
18095W        W61012  18.977  33.042   4.419 -0.3981  0.0316  0.3503
18096W        W61013  18.799  29.982   5.052 -0.1629  0.1306 -0.3617
18097W        W61014  20.783  31.061   4.362 -0.2748 -0.1396  0.1734
18098W        W61015  18.691  30.540   5.007 -0.2190  0.5238  0.4536
18099W        W61016  21.950  28.477   6.346  0.2414 -0.2057 -0.1486
18100W        W61017  17.917  29.944   6.214  0.3280 -0.1481  0.1373
18101W        W61018  21.295  30.524   5.092  0.1353  0.0962 -0.3208
18102W        W61019  21.668  30.492   3.876  0.0818 -0.0651 -0.0710
18103W        W61020  18.211  29.145   6.573 -0.0227  0.0543 -0.0050
18104W        W61021  20.080  30.445   3.938  0.0579  0.2349 -0.0019
18105W        W61022  20.711  29.870   5.238 -0.0928  0.2447 -0.0065
18106W        W61023  19.343  30.008   4.408 -0.1404 -0.2412  0.0895
18107W        W61024  19.099  32.469   6.998  0.2903  0.2250  0.3781
18108W        W61025  18.714  31.419   5.343  0.0677  0.1088 -0.0662
18109W        W61026  19.847  29.861   5.174  0.2863  0.0857  0.5110
18110W        W61027  21.018  31.848   4.570  0.1007  0.0389  0.2828
18111W        W61028  19.203  31.288   6.996 -0.0890  0.1613  0.0811
18112W        W61029  21.102  33.183   6.379 -0.0520  0.0298  0.0983
18113W        W61030  16.846  30.893   5.189  0.0155 -0.0375  0.2315
18114W        W61031  21.866  32.671   2.690  0.1551  0.0220  0.0896
18115W        W61032  19.271  32.321   5.278 -0.5200  0.0866 -0.2297
18116W        W61033  20.062  31.894   4.397 -0.1830  0.2949  0.1294
18117W        W61034  23.983  32.502   4.819  0.1326  0.1600 -0.0092
18118W        W61035  22.153  31.182   4.202 -0.0686 -0.0193  0.0565
18119W        W61036  17.043  30.416   5.263  0.1269 -0.1557 -0.1885
18120W        W61037  18.838  32.540   5.159  0.0292 -0.1569  0.0007
18121W        W61038  23.829  32.900   6.318  0.2151 -0.0875 -0.1657
18122W        W61039  17.938  32.502   5.287 -0.1847  0.0930  0.2390
18123W        W61040  19.903  29.415   5.398  0.3757  0.3835 -0.1237
18124W        W61041  16.501  31.380   5.984 -0.0271 -0.1824 -0.0672
18125W        W61042  21.763  29.782   6.744  0.2253  0.1958  0.1699
18126W        W61043  20.687  31.077   5.908  0.1158 -0.1006  0.4399
18127W        W61044  18.498  31.664   4.042  0.0744 -0.0652  0.1955
18128W        W61045  22.445  28.526   6.448 -0.0979  0.0029 -0.0157
18129W        W61046  19.400  32.431   5.755  0.1307 -0.3457 -0.2151
18130W        W61047  20.901  32.118   8.595  0.2990 -0.0185 -0.0948
18131W        W61048  20.555  31.612   2.648 -0.1228 -0.0171 -0.0247
18132W        W61049  19.196  31.520   6.513  0.1783  0.0473 -0.0450
18133W        W61050  20.315  29.625   5.087  0.0076  0.0818 -0.0444
18134W        W61051  19.108  31.708   3.131 -0.0466  0.3260  0.2333
18135W        W61052  22.502  31.923   3.795 -0.1143  0.0631  0.1553
18136W        W61053  18.963  30.209   4.634 -0.1259 -0.0022  0.2485
18137W        W61054  21.538  31.927   5.392  0.1487  0.0789 -0.2767
18138W        W61055  19.040  29.125   4.373 -0.2865  0.0363 -0.1661
18139W        W61056  22.508  28.099   5.209 -0.0673 -0.1207  0.1724
18140W        W61057  19.984  29.074   3.323 -0.2034 -0.0421 -0.1062
18141W        W61058  19.259  32.381   6.520  0.0467  0.2489  0.2955
18142W        W61059  19.271  29.655   3.591  0.1499 -0.1832 -0.0216
18143W        W61060  19.194  30.467   4.299  0.0622  0.0194 -0.1790
18144W        W61061  18.897  32.221   3.854  0.0020 -0.0643  0.0173
18145W        W61062  19.804  29.274   6.503  0.1722  0.0669  0.1892
18146W        W61063  18.833  29.413   7.881 -0.3795  0.1611 -0.2942
18147W        W61064  18.031  29.621   4.558  0.0732 -0.2498  0.0056
18148W        W61065  19.749  26.953   2.958 -0.0939 -0.0283 -0.1402
18149W        W61066  22.613  33.373   5.421  0.4722 -0.2410 -0.1024
18150W        W61067  17.174  29.708   4.678 -0.0455 -0.3317 -0.0028
18151W        W61068  19.023  30.733   5.916  0.4398  0.7301 -0.1061
18152W        W61069  21.321  30.709   4.145  0.2038 -0.1040 -0.0017
18153W        W61070  20.882  31.985   2.423 -0.0534 -0.0836 -0.1192
18154W        W61071  17.551  29.150   4.131 -0.0842  0.1952  0.0706
18155W        W61072  22.110  30.108   6.531  0.0148 -0.0092  0.2940
18156W        W61073  20.051  31.057  31.901  0.0180 -0.2207  0.0557
18157W        W61074  19.667  29.550   8.105  0.2313  0.1016  0.0771
18158W        W61075  19.672  28.257   5.672 -0.0817 -0.0931  0.0973
18159W        W61076  15.953  29.999   3.479 -0.0419 -0.2275 -0.4104
18160W        W61077  20.891  28.553   4.952  0.3773 -0.0047  0.0167
18161W        W61078  20.921  32.344   4.806  0.3364  0.1158  0.2925
18162W        W61079  22.410  34.013   4.400 -0.1121  0.1731  0.1483
18163W        W61080  19.497  34.153   6.108 -0.2166  0.0269  0.1182
18164W        W61081  21.170  32.647   8.468  0.3753 -0.1133 -0.1934
18165W        W61082  18.960  29.831   6.704 -0.2080 -0.0691  0.1762
18166W        W61083  19.885  30.394   5.776 -0.1896  0.0188  0.0573
18167W        W61084  21.042  32.156   7.216 -0.4033  0.2462 -0.0759
18168W        W61085  21.976  33.980   3.823  0.0808 -0.2350  0.0301
18169W        W61086  19.643  30.595   6.733 -0.2173 -0.0896 -0.2894
18170W        W61087  19.464  32.933   4.397  0.0471  0.0790  0.3993
18171W        W61088  17.993  28.494   7.016  0.0421  0.0772  0.0317
18172W        W61089  17.635  31.220   7.129  0.2734  0.1164  0.4447
18173W        W61090  22.304  31.891   5.218 -0.3268  0.0333  0.2039
18174W        W61091  18.630  30.028   4.274  0.0336  0.2424  0.0073
18175W        W61092  21.699  28.181   3.988  0.2124  0.3179 -0.0279
18176W        W61093  20.947  30.950   3.842 -0.1342 -0.2249  0.1451
18177W        W61094  18.206  30.736   4.743  0.3856  0.2986 -0.4097
18178W        W61095  21.228  30.259   4.553  0.0306  0.0333 -0.0838
18179W        W61096  19.621  31.410   7.355 -0.1111  0.2789  0.1795
18180W        W61097  18.240  31.732   5.430  0.0512  0.3519  0.1453
18181W        W61098  19.215  30.279   6.833 -0.0642 -0.0098  0.3388
18182W        W61099  17.009  31.350   3.568  0.0320 -0.2628 -0.1666
18183W        W61100  22.417  31.034   2.601  0.0635  0.2342 -0.2070
18184W        W61101  20.411  34.569   7.046  0.2242  0.0852  0.1122
18185W        W61102  20.732  32.755   6.424  0.0403  0.1667  0.1419
18186W        W61103  19.651  32.948   5.770  0.3118 -0.0389 -0.1220
18187W        W61104  22.727  31.571   4.274  0.0971  0.3329  0.3233
18188W        W61105  18.081  28.935   5.074 -0.2709  0.2329  0.1762
18189W        W61106  19.560  31.637   3.532 -0.0121  0.0724  0.0616
18190W        W61107  19.845  30.565   4.445  0.1761 -0.2355  0.1777
18191W        W61108  19.648  29.891   5.643 -0.2467  0.1363  0.1735
18192W        W61109  17.464  29.982   6.706 -0.1963 -0.2495 -0.1560
18193W        W61110  19.931  29.038   5.718  0.1174 -0.0529 -0.2208
18194W        W61111  19.659  34.169   5.158 -0.1320 -0.3016  0.0553
18195W        W61112  21.932  31.985   4.501  0.0463  0.0172  0.0256
18196W        W61113  16.991  30.986   9.233 -0.1351  0.0377 -0.1346
18197W        W61114  18.266  30.851   7.485  0.1427 -0.0834 -0.2430
18198W        W61115  21.893  29.328   7.450  0.1409 -0.0430 -0.3916
18199W        W61116  23.613  31.444   8.796 -0.3230 -0.2609  0.2364
18200W        W61117  19.085  30.867   8.050  0.1152 -0.0005  0.2742
18201W        W61118  19.405  31.263   7.738  0.1060  0.0717 -0.1130
18202W        W61119  21.403   0.067   8.473 -0.0219 -0.1736 -0.0541
18203W        W61120  21.028   0.158   8.817 -0.2130  0.0009 -0.1392
18204W        W61121  20.342  29.814   6.857  0.0344 -0.1212  0.4513
18205W        W61122  18.365  29.534   7.960 -0.1196  0.1571 -0.1815
18206W        W61123  18.818  29.807   7.176  0.2892  0.0889  0.0276
18207W        W61124  18.176  27.663   7.566 -0.4546 -0.2202  0.4535
18208W        W61125  19.897  29.405   8.592 -0.3082 -0.1044 -0.3824
18209W        W61126  19.101  30.853   6.679 -0.2838  0.1680  0.0224
18210W        W61127  20.280  28.476   7.191 -0.5140 -0.2175  0.0296
18211W        W61128  20.446  28.761   4.721  0.1423  0.0826 -0.0911
18212W        W61129  19.945  28.634   9.235 -0.0079 -0.0505 -0.2874
18213W        W61130  20.415  31.289   6.798  0.0671  0.3166 -0.1189
18214W        W61131  20.596  32.044   7.557 -0.0341  0.0156 -0.0617
18215W        W61132  17.757  28.109   6.749  0.2279 -0.1173  0.0884
18216W        W61133  17.372  29.936   7.892  0.1140 -0.0569  0.2317
18217W        W61134  19.801  31.839   7.565  0.2240 -0.2172 -0.0679
18218W        W61135  21.265  28.352   7.072  0.3932  0.1468 -0.1257
18219W        W61136  20.900  30.091   6.611  0.1188 -0.2314 -0.0379
18220W        W61137  21.074  30.563   7.756 -0.1637  0.0889  0.0192
18221W        W61138  20.353  31.214   8.113 -0.2430 -0.0968 -0.1450
18222W        W61139  18.789  32.496   8.332  0.1312  0.0910 -0.3327
18223W        W61140  20.154  32.504   8.667 -0.1638  0.0339 -0.0127
18224W        W61141  19.683  32.512   8.307 -0.1963  0.0443  0.2631
18225W        W61142  22.353  31.733   6.849 -0.0047  0.0442 -0.0106
18226W        W61143  18.789  33.251   7.556  0.0439 -0.0588 -0.1620
18227W        W61144  22.657  30.232   9.341  0.0453 -0.0963 -0.3670
18228W        W61145  20.963  28.724   9.105 -0.1799 -0.2012 -0.0754
18229W        W61146  20.454  32.520   7.278  0.0125 -0.0952 -0.1480
18230W        W61147  18.428  32.236   7.665  0.0809 -0.0449  0.0520
18231W        W61148  19.266  30.365   9.381 -0.0543  0.3473 -0.1941
18232W        W61149  19.017  33.951   6.932 -0.2274  0.0072  0.2858
18233W        W61150  20.467  31.074   5.417 -0.3088 -0.3536 -0.3093
18234W        W61151  19.207  31.069   6.243 -0.0388  0.2825 -0.3080
18235W        W61152  22.808  29.640   6.215 -0.2837  0.1679  0.0609
18236W        W61153  20.815  27.622   7.196  0.0531  0.0988  0.1169
18237W        W61154  20.981  31.005   8.442  0.0068 -0.2368  0.0061
18238W        W61155  16.657  29.272   8.374 -0.0800  0.0026  0.1513
18239W        W61156  20.066  31.616   7.204 -0.1871 -0.1498  0.0018
18240W        W61157  22.206  29.772   8.037 -0.1546 -0.0955  0.4520
18241W        W61158  20.343  32.727   7.795 -0.1613  0.2727 -0.0390
18242W        W61159  16.843  30.654   8.397  0.3840 -0.0978 -0.1032
18243W        W61160  20.274  31.848   6.806 -0.1184 -0.3529 -0.0885
18244W        W61161  22.110  33.132   8.944 -0.2606  0.0329 -0.1922
18245W        W61162  18.067  32.919   7.626 -0.0800  0.0449 -0.1953
18246W        W61163  20.287  30.760   7.686 -0.0387 -0.4119 -0.0862
18247W        W61164  17.880  28.036   7.249 -0.2620 -0.1138  0.0071
18248W        W61165  23.210  31.354   8.236 -0.1125  0.1321  0.3164
18249W        W61166  21.557  30.841   7.647  0.2061  0.1143  0.1662
18250W        W61167  26.592  33.898  12.792  0.2194  0.1650  0.0004
18251W        W61168  21.665  30.387   6.254  0.1870  0.0050 -0.0351
18252W        W61169  21.257  28.857   8.318 -0.1993  0.1601  0.1119
18253W        W61170  17.595  28.923   9.519 -0.1136  0.1024 -0.1071
18254W        W61171  16.382  29.990   6.060 -0.0405 -0.2548  0.2330
18255W        W61172  19.202  31.678   7.335  0.0980  0.2203 -0.1192
18256W        W61173  23.707  32.410   8.059  0.0460  0.0275  0.2203
18257W        W61174  21.889  29.623   5.718 -0.0942 -0.2702 -0.0153
18258W        W61175  20.224  33.917   9.050  0.0648 -0.0461 -0.0564
18259W        W61176  19.020  32.471   6.118  0.2464  0.0141  0.0273
18260W        W61177  16.826  33.635   9.275  0.0393 -0.0013 -0.1900
18261W        W61178  18.210  31.654   7.741 -0.3681  0.0382  0.0876
18262W        W61179  20.366  28.507   8.164  0.1019  0.1127  0.1743
18263W        W61180  18.580  30.065   7.848  0.2138  0.0071  0.0809
18264W        W61181  22.696  30.741   6.285  0.1718  0.3033  0.1687
18265W        W61182  21.530  29.246   8.081  0.0824  0.2734  0.2704
18266W        W61183  17.010  32.766   7.180 -0.0414 -0.1118  0.0479
18267W        W61184  20.459  30.503   9.104 -0.0405 -0.3745 -0.2440
18268W        W61185  21.416  29.994   5.990 -0.0352 -0.0711 -0.1614
18269W        W61186  21.600  31.909   7.275  0.0052  0.0957 -0.1458
18270W        W61187  20.601  30.253   6.988 -0.1143  0.1543  0.0686
18271W        W61188  18.990  31.438   7.987 -0.1172 -0.0897 -0.2715
18272W        W61189  17.787  25.793   8.938  0.0529 -0.2557  0.0822
18273W        W61190  17.434  29.444   7.818 -0.1620 -0.1938  0.1646
18274W        W61191  21.426  30.240   7.992 -0.2308  0.0966 -0.0151
18275W        W61192  20.906  29.712   8.794  0.0735  0.1204 -0.1509
18276W        W61193  20.365  32.061   8.770 -0.0610 -0.1145  0.1306
18277W        W61194  22.190  32.631   8.698 -0.1954  0.1193  0.0870
18278W        W61195  19.692  32.330   8.854  0.0474  0.0871  0.2045
18279W        W61196  20.273  29.129   9.024  0.2572  0.3788  0.0209
18280W        W61197  19.295  30.566   6.318 -0.0682 -0.0571  0.3237
18281W        W61198  19.769  31.346   8.568  0.0158 -0.1576  0.1168
18282W        W61199  20.090  32.873   8.266  0.1097 -0.0029 -0.1324
18283W        W61200  20.771  28.489   7.161 -0.2821 -0.1689  0.1793
18284W        W61201  22.781  30.860   8.863 -0.1273  0.2915 -0.0590
18285W        W61202  21.137  29.057   7.866 -0.0065 -0.0257  0.2965
18286W        W61203  22.839  28.552   8.066 -0.0338  0.0303  0.2619
18287W        W61204  21.614  31.273   8.838 -0.2549 -0.0004 -0.0623
18288W        W61205  18.743  28.707   5.839 -0.2034  0.1508  0.0408
18289W        W61206  20.627  30.929   8.914 -0.0131  0.0697  0.0400
18290W        W61207  18.563  34.157   6.586  0.1867 -0.3275 -0.0899
18291W        W61208  20.474  30.001   6.354  0.1744  0.0692 -0.1314
18292W        W61209  20.150  29.685   8.201 -0.0943 -0.2882  0.1356
18293W        W61210  21.462  26.528   7.449 -0.0652  0.0259  0.3873
18294W        W61211  18.255  31.162   5.471 -0.0553  0.0050 -0.0079
18295W        W61212  20.317  28.341   7.718 -0.2745  0.0103  0.3144
18296W        W61213  19.720  30.314   6.335  0.1264 -0.1611  0.2761
18297W        W61214  24.004  30.826   6.581 -0.0236  0.0836  0.1882
18298W        W61215  21.106  28.668   5.657  0.1248 -0.2018 -0.1929
18299W        W61216  20.367  30.913   6.314 -0.0929 -0.1048 -0.0105
18300W        W61217  20.602  30.495   6.541  0.2044 -0.0389  0.4304
18301W        W61218  20.819  30.071   9.264 -0.0797 -0.0541 -0.1210
18302W        W61219  19.059  29.173   5.909  0.3001 -0.0656  0.2911
18303W        W61220  20.850  33.256   8.526 -0.0138  0.1666  0.1557
18304W        W61221  22.857  28.609   9.356 -0.0048 -0.1246 -0.2077
18305W        W61222  21.961  32.186   9.636  0.0686 -0.2075  0.1726
18306W        W61223  19.139  29.527   8.245 -0.0550  0.0260  0.2098
18307W        W61224  19.370  31.904   5.514 -0.0740 -0.0438  0.3299
18308W        W61225  20.409  29.424   8.593 -0.3177 -0.0496 -0.0274
18309W        W61226  18.527  33.125   7.062 -0.0421  0.1022 -0.1580
18310W        W61227  21.255  29.396   8.569  0.1155 -0.4305 -0.0612
18311W        W61228  19.999  27.640   7.381 -0.1450 -0.2240 -0.1667
18312W        W61229  22.054  31.884   6.128  0.0705 -0.0699  0.0497
18313W        W61230  21.890  30.153   7.265  0.0918 -0.1699  0.1025
18314W        W61231  19.411  32.166   7.319  0.2117 -0.1939 -0.4690
18315W        W61232  22.602  31.418   7.963 -0.2339 -0.1416  0.0328
18316W        W61233  20.499  28.605   8.852  0.2458  0.0523 -0.1264
18317W        W61234  21.757  31.182   8.086  0.0434  0.1102  0.1519
18318W        W61235  19.445  29.295   5.580  0.4377  0.0678  0.1051
18319W        W61236  20.307  30.530   8.597  0.0871 -0.0142  0.0874
18320W        W61237  20.565  31.517   7.682  0.1169  0.1551 -0.2420
18321W        W61238  19.361  28.977   7.427 -0.2211 -0.0499 -0.0086
18322W        W61239  21.074  33.551   9.654 -0.0921 -0.0403 -0.1184
18323W        W61240  21.056  31.795   7.670  0.1749 -0.0395 -0.2336
18324W        W61241  24.566  28.906   8.860  0.1935  0.0597  0.0181
18325W        W61242  19.360  32.634   8.993  0.0838  0.1839 -0.1375
18326W        W61243  19.890  25.945   9.301 -0.4244  0.3024 -0.0360
18327W        W61244  19.345  33.425   8.240  0.2906 -0.1973  0.2888
18328W        W61245  19.590  29.788   6.329 -0.0856  0.2746 -0.0957
18329W        W61246  18.227  28.233   9.202 -0.1040 -0.0040 -0.0173
18330W        W61247  21.725  30.530   8.868  0.4016  0.1579 -0.1197
18331W        W61248  22.575  30.418   6.617 -0.0445 -0.1904 -0.1711
18332W        W61249  17.440  28.406   8.887  0.0029  0.0106 -0.0207
18333W        W61250  20.090  29.200   8.084  0.0209 -0.0041 -0.3049
18334W        W61251  16.581  30.885   8.807 -0.2830 -0.0976  0.0038
18335W        W61252  21.599  29.708   8.322 -0.1495 -0.0580  0.0474
18336W        W61253  18.762  29.366   7.001 -0.1991 -0.2590  0.0295
18337W        W61254  22.347  28.029   8.504 -0.0714 -0.3319 -0.0546
18338W        W61255  18.457  29.552   7.425 -0.1561  0.0622 -0.1956
18339W        W61256  19.767  30.858   8.767 -0.0207  0.1062  0.0468
18340W        W61257  21.771  29.407   8.709  0.1356 -0.1755 -0.1145
18341W        W61258  18.297  31.382   6.797 -0.3066 -0.1188 -0.0116
18342W        W61259  17.898  32.376   6.715 -0.2841 -0.0377 -0.1578
18343W        W61260  20.651  29.742   8.309 -0.1825  0.2318 -0.1239
18344W        W61261  16.890  27.878   9.195  0.1526 -0.0571 -0.1509
18345W        W61262  18.479  32.909   8.450  0.2637 -0.3647  0.2760
18346W        W61263  19.786  30.096   8.205 -0.2007 -0.0225  0.1067
18347W        W61264  23.116  30.298   9.148 -0.4394  0.0667  0.0402
18348W        W61265  19.536  30.484   8.047  0.1690 -0.2278  0.0075
18349W        W61266  17.961  27.584   8.681  0.1335 -0.4543  0.1161
18350W        W61267  20.526  33.785   8.145  0.1332  0.0254 -0.0296
18351W        W61268  18.340  31.907   7.211  0.1700  0.2963 -0.1736
18352W        W61269  17.118  29.830   7.028  0.0902  0.0146  0.0163
18353W        W61270  19.273  32.902   6.681 -0.0906 -0.0886  0.1296
18354W        W61271  20.584  28.339  13.123 -0.0339 -0.0234  0.0668
18355W        W61272  19.801  31.353   8.035 -0.1678  0.3451 -0.2856
18356W        W61273  18.276  32.634   6.826  0.0849 -0.2285  0.0928
18357W        W61274  18.070  30.414   7.673  0.0267 -0.1987  0.0170
18358W        W61275  22.402  26.987   5.801  0.1143  0.3477  0.3317
18359W        W61276  21.327  30.759   8.152  0.1173 -0.3176  0.2983
18360W        W61277  21.121  30.195   7.143  0.2308  0.0649 -0.3204
18361W        W61278  20.210  32.063   7.229 -0.1754  0.0725  0.1515
18362W        W61279  17.540  29.352   9.147 -0.3519  0.1186 -0.1112
18363W        W61280  22.105  29.735   8.513  0.0912  0.2397 -0.1166
18364W        W61281  21.869  27.999   9.352  0.1525 -0.0846  0.1332
18365W        W61282  19.961  28.573   5.908 -0.2328  0.0131  0.0557
18366W        W61283  19.521  30.082   7.717  0.0700 -0.0724 -0.1014
18367W        W61284  22.642  32.791   9.212 -0.1981 -0.0214  0.0032
18368W        W61285  18.703  29.964   5.634  0.2488 -0.1765 -0.0808
18369W        W61286  18.992  30.386   7.960  0.0185  0.0453 -0.1317
18370W        W61287  20.367  31.620   8.457 -0.1697 -0.0429  0.0702
18371W        W61288  21.866  30.216   5.828 -0.1251 -0.0631  0.3289
18372W        W61289  19.927  31.463   6.693  0.0377  0.1281  0.0060
18373W        W61290  19.862  32.413   7.419  0.0577 -0.0591  0.1020
18374W        W61291  19.852  28.790   8.237 -0.2005  0.0187  0.1222
18375W        W61292  17.706  30.735  11.983 -0.0564  0.2102  0.3234
18376W        W61293  21.816  32.210   9.119  0.0475  0.0159  0.1422
18377W        W61294  21.589  29.320   6.016 -0.2424 -0.3670 -0.1993
18378W        W61295  19.233  29.982   8.129 -0.0402 -0.1657  0.0847
18379W        W61296  22.570  30.187   7.798 -0.0706 -0.1543 -0.0324
18380W        W61297  21.277  30.815   7.230  0.0471  0.0034 -0.0364
18381W        W61298  17.284  29.727   9.372  0.0880 -0.1502  0.1317
18382W        W61299  19.206  30.094   6.351  0.3601 -0.1653 -0.2112
18383W        W61300  20.891  31.175   6.935  0.0087  0.1508  0.1587
18384W        W61301  20.745  30.963   7.774  0.0096  0.1318  0.0355
18385W        W61302  21.704  31.270   6.571  0.3052 -0.1585  0.2696
18386W        W61303  18.092  32.493   9.030 -0.3271 -0.1272  0.1225
18387W        W61304  19.556  30.778   5.878 -0.0537  0.0696 -0.1323
18388W        W61305  17.647  30.282   7.115 -0.1170  0.1439  0.2223
18389W        W61306  20.976  32.792   9.261  0.1639 -0.0486 -0.1683
18390W        W61307  19.630  31.387   6.257  0.2441 -0.2944 -0.2176
18391W        W61308  18.122  30.995   7.007  0.0014 -0.3663 -0.4832
18392W        W61309  19.990  29.588   7.721 -0.5187  0.0373  0.2308
18393W        W61310  19.145  29.036   8.768 -0.2420  0.3820 -0.1417
18394W        W61311  17.975  32.381   7.834 -0.3909 -0.0432 -0.2088
18395W        W61312  18.662  26.931   8.444 -0.2103 -0.0833  0.2556
18396W        W61313  22.146  30.363   8.783 -0.1357  0.1070  0.1761
18397W        W61314  19.354  30.711   7.640 -0.0656  0.0068  0.0227
18398W        W61315  21.038  30.609   6.823  0.2479  0.0117 -0.1186
18399W        W61316  22.620  31.973   8.767 -0.0989 -0.2245 -0.2929
18400W        W61317  19.547  30.857   7.144  0.3882  0.1877 -0.0296
18401W        W61318  20.228  31.091   8.595  0.0397  0.1088  0.1352
18402W        W61319  18.144  28.742   9.513 -0.0426  0.1343  0.1824
18403W        W61320  20.433  32.393   8.123  0.0809 -0.0073  0.0738
18404W        W61321  19.112  32.074   8.230 -0.2176 -0.3044  0.0295
18405W        W61322  20.148  30.540   8.074  0.1017  0.2658  0.1051
18406W        W61323  21.049  31.272   7.457 -0.1570 -0.0639 -0.1099
18407W        W61324  19.671  32.248   6.831  0.1253  0.0771 -0.1463
18408W        W61325  23.006  32.104   9.627 -0.0980 -0.0799  0.1487
18409W        W61326  20.534  28.701   6.489  0.2239  0.1021 -0.2368
18410W        W61327  19.954  33.399   8.281  0.0281  0.2999 -0.0501
18411W        W61328  17.926  32.035   7.494 -0.1221  0.0652  0.2450
18412W        W61329  20.329  34.396   8.873 -0.2908  0.2162 -0.0244
18413W        W61330  19.963  32.081   8.354  0.0278  0.0765 -0.4950
18414W        W61331  21.226  29.888   7.500  0.0688  0.2322 -0.2328
18415W        W61332  21.524  33.683   9.442  0.3066 -0.1877 -0.2056
18416W        W61333  23.415  29.237   7.546 -0.1355 -0.0683 -0.1731
18417W        W61334  17.691  27.445   9.045 -0.1876 -0.1289 -0.0650
18418W        W61335  19.273  29.669   5.882 -0.1707  0.3147  0.1196
18419W        W61336  21.383  31.219   6.928 -0.1795 -0.1477 -0.3974
18420W        W61337  19.550  29.471   7.424 -0.0622  0.1148  0.1044
18421W        W61338  19.569  31.104   6.696 -0.1605 -0.0460 -0.2926
18422W        W61339  20.859  26.690   9.307 -0.1639  0.1411 -0.0713
18423W        W61340  21.649  28.832   7.179 -0.0656 -0.0383  0.0421
18424W        W61341  19.499  29.138   8.360  0.1176  0.0243  0.6847
18425W        W61342  19.040  31.130   7.432  0.0298  0.1680 -0.0147
18426W        W61343  19.410  28.382   7.413  0.0017 -0.1046  0.0195
18427W        W61344  19.694  32.814   8.723 -0.3076 -0.0483  0.2672
18428W        W61345  20.993  27.702   7.693 -0.0925  0.4296 -0.1459
18429W        W61346  20.520  31.303   9.380 -0.1198  0.3787  0.1237
18430W        W61347  22.721  30.943   8.391 -0.3944 -0.1954  0.0879
18431W        W61348  19.819  30.440   8.537 -0.0719 -0.1727  0.1087
18432W        W61349  21.353  29.516   6.527 -0.2382 -0.2563 -0.1893
18433W        W61350  19.434  28.872   9.151  0.1194 -0.1837  0.1744
18434W        W61351  18.213  31.018   8.252 -0.1088 -0.0490 -0.2922
18435W        W61352  21.618  29.687   7.212 -0.0225  0.1008  0.2423
18436W        W61353  20.825  29.598   6.500 -0.0796 -0.2545 -0.1357
18437W        W61354  18.295  28.906   7.039  0.1129 -0.2191  0.0478
18438W        W61355  20.625  31.872   8.048 -0.2220 -0.1147 -0.1162
18439W        W61356  19.796  30.950   7.702  0.0135  0.3236  0.1224
18440W        W61357  19.018  29.842   7.657 -0.0523 -0.2266 -0.1389
18441W        W61358  18.555  29.179   9.537  0.2387  0.2008  0.0348
18442W        W61359  20.832  31.668   6.746  0.0987  0.0097  0.0067
18443W        W61360  20.241  28.816   7.667 -0.2942  0.1114  0.0797
18444W        W61361  21.206  31.645   7.122  0.2169 -0.2088 -0.0639
18445W        W61362  26.753  28.904   8.954 -0.0163 -0.2143  0.3324
18446W        W61363  22.811  29.977   8.856  0.2119  0.0475 -0.2447
18447W        W61364  20.839  29.252   8.379  0.2225  0.0289  0.0601
18448W        W61365  20.607   0.440   8.972 -0.1310 -0.0686  0.0282
18449W        W61366  23.087  30.099   7.867 -0.2294 -0.0443  0.0149
18450W        W61367  22.366  25.142   8.833  0.0788 -0.1729  0.2941
18451W        W61368  19.555  32.244   7.823  0.3796 -0.1180  0.1972
18452W        W61369  20.090  31.342   7.640  0.3308  0.2844  0.2734
18453W        W61370  21.129  29.248   7.246 -0.0560 -0.1221  0.0033
18454W        W61371  20.276  33.973   6.895 -0.0999 -0.1033  0.3277
18455W        W61372  21.564   0.122  12.793 -0.1105 -0.2434  0.0089
18456W        W61373  19.280  29.505   7.009 -0.1736  0.1441 -0.0640
18457W        W61374  20.534  31.444   8.900 -0.0214 -0.3295  0.2844
18458W        W61375  19.575  29.765   8.599 -0.0106  0.1690  0.0301
18459W        W61376  21.818  31.768   8.312 -0.0148  0.0970 -0.2696
18460W        W61377  19.143  29.886   8.717  0.1524  0.1071 -0.0938
18461W        W61378  23.398  32.530   8.440  0.4153 -0.1314  0.0192
18462W        W61379  17.822  32.436   8.313  0.0422 -0.0170  0.0237
18463W        W61380  22.263  31.065   8.131  0.0096  0.2885  0.1629
18464W        W61381  22.674  29.135   8.699 -0.1029 -0.0047  0.0506
18465W        W61382  18.504  31.556   8.145 -0.4218  0.3597  0.0032
18466W        W61383  18.978  30.636   7.093  0.0193 -0.1059 -0.1834
18467W        W61384  19.518  31.885   6.431 -0.0527  0.3799 -0.2020
18468W        W61385  17.977  32.618   9.579 -0.0088  0.0897  0.1314
18469W        W61386  20.980  31.127   9.404 -0.3233  0.0145  0.1457
18470W        W61387  19.032  29.344   7.405  0.1846  0.0140 -0.1984
18471W        W61388  22.085  32.674   9.215 -0.0084  0.1267 -0.1086
18472W        W61389  20.304  29.679   7.329 -0.2662 -0.2781  0.2368
18473W        W61390  16.616  30.339   7.603  0.4559  0.2634 -0.2981
18474W        W61391  21.912  32.615   7.954  0.0941 -0.2637  0.0067
18475W        W61392  22.111  31.523   7.945  0.0702 -0.0857 -0.0409
18476W        W61393  19.773  28.996   7.723  0.0608 -0.0514 -0.2705
18477W        W61394  17.783  30.806   7.952  0.1536  0.2184 -0.1496
18478W        W61395  18.127  29.903   7.619 -0.0518  0.1340 -0.0066
18479W        W61396  19.969  30.366   9.080 -0.0072 -0.2238 -0.2916
18480W        W61397  20.984  30.419   8.280  0.2598  0.0637 -0.1367
18481W        W61398  20.361  30.253   7.407 -0.3460 -0.2180  0.1103
18482W        W61399  20.735  29.026   7.413 -0.1137  0.3350  0.1561
18483W        W61400  19.930  31.047   9.791  0.2125  0.0909  0.0596
18484W        W61401  22.036  30.916   8.892  0.0361 -0.1195 -0.0772
18485W        W61402  20.896  24.829   9.273 -0.2066  0.0865  0.1736
18486W        W61403  21.499  31.305   6.092  0.0096  0.1217  0.0971
18487W        W61404  21.161  31.925   9.041 -0.0503 -0.0839  0.1344
18488W        W61405  20.684  29.528   6.998 -0.4175  0.0594  0.3967
18489W        W61406  20.776  29.963   7.348 -0.1918 -0.2091  0.0746
18490W        W61407  18.651  32.014   8.489 -0.0031 -0.0315 -0.1794
18491W        W61408  16.782  29.637   9.367  0.2617  0.2248 -0.1752
18492W        W61409  20.871  30.885   6.416 -0.0613  0.0059  0.3228
18493W        W61410  21.948  29.659   9.130  0.1833 -0.1611 -0.2613
18494W        W61411  19.388  27.316   7.315  0.2455  0.1737  0.1265
18495W        W61412  21.622  32.652   5.006 -0.0839 -0.0286 -0.4522
18496W        W61413  22.319  34.260   9.565 -0.1106 -0.0170 -0.1413
18497W        W61414  18.715  31.174   8.372  0.0136  0.1358 -0.4236
18498W        W61415  21.848  30.673   8.035  0.2600 -0.1699  0.2164
18499W        W61416  22.689  34.281  12.454 -0.0270  0.0361 -0.2269
18500W        W61417  20.042  32.191   9.162  0.1680  0.3502 -0.1160
18501W        W61418  21.144  29.700   7.010 -0.1524  0.0938 -0.2323
18502W        W61419  21.666  27.228   7.196  0.0815  0.1015 -0.1657
18503W        W61420  18.395  27.834   7.113  0.2134 -0.0600  0.2388
18504W        W61421  20.956  30.040   8.000 -0.2848 -0.2046 -0.0972
18505W        W61422  19.916  34.651   7.901 -0.1933  0.0969 -0.0136
18506W        W61423  20.630  31.842   9.338 -0.3172 -0.1066 -0.4906
18507W        W61424  17.023  33.141   0.032  0.0208 -0.1522 -0.0118
18508W        W61425  20.032  31.917   1.780 -0.2860 -0.1286  0.0852
18509W        W61426  21.544  33.881   1.983  0.0677  0.1914  0.0319
18510W        W61427  18.910  32.479   1.967  0.3620 -0.3446 -0.0381
18511W        W61428  22.717   0.684   0.502 -0.1151 -0.0072  0.1116
18512W        W61429  20.623  32.418   2.853 -0.0697 -0.3394  0.2191
18513W        W61430  20.358  32.907   2.182 -0.0773  0.0351  0.1687
18514W        W61431  18.897  30.280   1.228  0.2400  0.0484 -0.1221
18515W        W61432  19.969   1.154   3.201  0.5046 -0.1123  0.0153
18516W        W61433  19.154  32.951   1.890  0.1092  0.0467  0.3145
18517W        W61434  19.075  33.245   2.678 -0.0901  0.2612 -0.2813
18518W        W61435  17.378  33.424   0.162 -0.1414 -0.1166 -0.0897
18519W        W61436  18.026  30.774   1.903  0.0827 -0.0186  0.1748
18520W        W61437  18.538  30.972   1.897 -0.0514 -0.3095 -0.0672
18521W        W61438  17.978  33.447  31.054 -0.0416  0.2378  0.1376
18522W        W61439  17.330  32.812   0.230 -0.0700 -0.0940 -0.2856
18523W        W61440  20.653   1.052   1.923  0.1882  0.0427 -0.2090
18524W        W61441  18.499  34.138   3.235 -0.2909  0.0212 -0.1127
18525W        W61442  21.274  34.127   1.610 -0.0590 -0.1115 -0.2254
18526W        W61443  21.499   0.741   3.026  0.0174 -0.0978 -0.1598
18527W        W61444  19.677  32.567   3.113  0.4531  0.2671 -0.0630
18528W        W61445  19.939  34.495   2.631  0.0445 -0.0668 -0.5114
18529W        W61446  21.248   0.559   3.386  0.1532 -0.0884  0.2535
18530W        W61447  22.846  33.292   0.054  0.1252  0.1681 -0.2232
18531W        W61448  19.659  34.039  31.360  0.1297 -0.1657  0.0398
18532W        W61449  21.035  34.022   1.133 -0.0567  0.2831  0.1717
18533W        W61450  19.721  33.455   2.997  0.1520 -0.1252 -0.2093
18534W        W61451  18.701  30.070   0.067 -0.1346 -0.0294 -0.0258
18535W        W61452  19.598   1.177   2.046 -0.0058  0.0221 -0.2332
18536W        W61453  20.244  33.648   2.729  0.1216  0.2566 -0.1726
18537W        W61454  17.308  32.585   2.786  0.2555 -0.1594  0.2293
18538W        W61455  19.123  33.798   0.961  0.1274 -0.2320  0.3172
18539W        W61456  20.164   0.865   3.734  0.1001  0.2621  0.0762
18540W        W61457  18.095  33.668   4.406 -0.1203 -0.3326  0.2349
18541W        W61458  19.530  32.864   1.203 -0.0764  0.0505  0.2487
18542W        W61459  19.630  33.076   2.660  0.0137 -0.1108 -0.1461
18543W        W61460  18.952  33.609   1.964  0.0708  0.0956 -0.0304
18544W        W61461  20.848  34.322   2.621 -0.0341  0.2212  0.5490
18545W        W61462  20.069   1.267   1.072  0.1005  0.1249 -0.0992
18546W        W61463  21.556  33.620   3.531  0.0449 -0.1037 -0.0504
18547W        W61464  19.994  32.673   1.906  0.3735  0.2048  0.1443
18548W        W61465  21.764  32.751   3.244 -0.2393 -0.0875 -0.2160
18549W        W61466  17.428  33.138   3.989  0.2501  0.1051  0.0134
18550W        W61467  21.834  32.491   4.002 -0.2193  0.5142  0.1529
18551W        W61468  20.373  33.598   0.942  0.1091  0.0846  0.0620
18552W        W61469  16.293  34.311   1.413  0.2701  0.1103  0.1798
18553W        W61470  20.281  34.346   1.691 -0.0828  0.2205 -0.1893
18554W        W61471  18.426  31.426   2.222 -0.2052  0.2024  0.0264
18555W        W61472  20.122  32.025  31.362 -0.0410 -0.0762  0.1408
18556W        W61473  23.247   1.853   2.310  0.0075  0.1446 -0.1302
18557W        W61474  17.181  34.551   2.117  0.1412  0.0327  0.2007
18558W        W61475  20.019  32.084  31.833 -0.1612  0.0247  0.1765
18559W        W61476  19.804  34.654   1.721  0.2601 -0.2015  0.0183
18560W        W61477  20.470  32.868   2.972 -0.3464  0.1190  0.0648
18561W        W61478  18.678  33.545   2.446 -0.0370  0.1669  0.0235
18562W        W61479  21.579  32.561   0.315 -0.4080  0.1205 -0.0521
18563W        W61480  18.606  33.825   1.056  0.1209 -0.0300 -0.3160
18564W        W61481  19.084  31.649   4.048 -0.2383  0.3314 -0.2407
18565W        W61482  19.197  33.915   1.513 -0.1212  0.0911 -0.1182
18566W        W61483  20.532  32.180  31.872  0.2336  0.2413 -0.1556
18567W        W61484  18.377  33.691  31.242 -0.1245 -0.1630  0.2081
18568W        W61485  21.881  33.734   1.042  0.1426 -0.0163 -0.0779
18569W        W61486  18.332  33.256   3.024 -0.1205  0.2611 -0.1355
18570W        W61487  17.294  32.382   1.539  0.0352 -0.2713  0.0466
18571W        W61488  18.528   0.518   1.641 -0.2108  0.0502 -0.2863
18572W        W61489  20.669  33.190   3.368  0.0053  0.0593 -0.0083
18573W        W61490  19.504  33.458   1.817 -0.0134 -0.0401 -0.1545
18574W        W61491  19.982  33.173   2.066 -0.0731 -0.1116  0.1213
18575W        W61492  21.720  32.119   0.642  0.1858 -0.1233 -0.1850
18576W        W61493  19.263  32.751   0.217  0.2290 -0.0423  0.0696
18577W        W61494  20.272  31.335   2.972 -0.1476 -0.2981  0.2336
18578W        W61495  18.115  34.155  31.123  0.0521  0.0810  0.0342
18579W        W61496  20.256  31.469   1.732 -0.1353 -0.0958  0.0957
18580W        W61497  22.126  33.080   2.999 -0.2533  0.0124 -0.0218
18581W        W61498  20.728  34.125   1.617 -0.1872  0.3219 -0.1643
18582W        W61499  18.944   0.095   2.578  0.0299 -0.2642 -0.1955
18583W        W61500  21.741   0.454   2.447 -0.1720  0.3547 -0.0951
18584W        W61501  21.110   0.073   2.492 -0.2651  0.0933  0.0310
18585W        W61502  21.298   2.024   2.525  0.1889 -0.4049 -0.0985
18586W        W61503  19.050   1.196  31.464  0.3124  0.1706 -0.0387
18587W        W61504  21.002  33.824   2.616 -0.1754  0.0300 -0.3325
18588W        W61505  21.252  34.029   3.302  0.1437 -0.0331 -0.2136
18589W        W61506  19.569  34.427   2.179  0.0939 -0.0917 -0.2898
18590W        W61507  20.337  32.354   1.613  0.1177  0.1013  0.1209
18591W        W61508  21.177  32.434   1.543 -0.1794 -0.2478 -0.0176
18592W        W61509  20.947  33.991  31.445  0.0830 -0.1259  0.0553
18593W        W61510  18.260  34.155   1.853  0.4900 -0.2194  0.0606
18594W        W61511  19.701   0.185   2.960 -0.6373  0.2932 -0.0342
18595W        W61512  17.211  34.370   0.573  0.1115  0.0772  0.2312
18596W        W61513  19.150  31.990   1.289  0.0326 -0.0849  0.1355
18597W        W61514  21.975  34.646   3.599 -0.1416 -0.2419 -0.1274
18598W        W61515  20.714  33.303   2.590 -0.0545 -0.0723  0.1398
18599W        W61516  20.389  32.141   2.549 -0.0630  0.1564  0.0994
18600W        W61517  17.584   0.842   0.737  0.3524 -0.0794 -0.1573
18601W        W61518  20.080   1.822   2.182 -0.1212  0.1011 -0.0418
18602W        W61519  19.077   1.231   0.761  0.0556 -0.2320  0.0857
18603W        W61520  19.443  34.405  31.036 -0.3521 -0.2240  0.0080
18604W        W61521  20.166  33.810   4.612  0.1430  0.1121  0.1055
18605W        W61522  19.292  33.163   3.262 -0.1727 -0.2285  0.1068
18606W        W61523  19.038  32.581   0.684 -0.1688  0.0305 -0.0675
18607W        W61524  17.945  33.913   1.602  0.0807  0.0132  0.1314
18608W        W61525  18.526  32.757   2.168  0.0738  0.1295 -0.1103
18609W        W61526  18.275  32.584   1.283 -0.0100  0.0050 -0.3851
18610W        W61527  21.655  34.638   2.582 -0.0114 -0.2981 -0.0669
18611W        W61528  21.121  32.388   2.849 -0.0839 -0.2992 -0.1126
18612W        W61529  22.096  33.047   1.199  0.1545 -0.0775 -0.2060
18613W        W61530  19.391  33.275   2.290 -0.2015  0.0207 -0.5535
18614W        W61531  21.586  32.983   4.143  0.0994 -0.5234 -0.4038
18615W        W61532  20.739   1.789  31.761  0.2279  0.5057 -0.3014
18616W        W61533  22.264  34.142   2.902  0.0509 -0.2070  0.0423
18617W        W61534  19.134  30.955   0.932 -0.1416 -0.0653 -0.2789
18618W        W61535  18.035  32.753   2.213 -0.0016  0.2154 -0.2122
18619W        W61536  17.688  33.507   2.471  0.2778 -0.2336 -0.2497
18620W        W61537  20.364  33.484   1.520  0.0433  0.0059 -0.1467
18621W        W61538  19.079  30.946  31.908  0.1300  0.0245  0.0128
18622W        W61539  19.615  32.498   3.622 -0.1881  0.0244  0.3428
18623W        W61540  19.336  33.651   2.533  0.0365  0.0895  0.3029
18624W        W61541  17.916  33.483   2.905  0.2109  0.0287  0.1263
18625W        W61542  19.350  33.681   0.536 -0.0514 -0.0650 -0.0181
18626W        W61543  18.889  32.538   2.730 -0.0103 -0.1742  0.0895
18627W        W61544  20.965  33.626   3.345  0.1198  0.0280 -0.2797
18628W        W61545  21.905  34.046   3.286  0.1812 -0.0900 -0.1130
18629W        W61546  22.130  33.620   4.114  0.1298 -0.0268 -0.2490
18630W        W61547  19.140  32.314   2.340 -0.0174  0.0765 -0.3103
18631W        W61548  17.708  31.499   5.380  0.3177 -0.0453  0.0464
18632W        W61549  19.466  33.330   0.958 -0.0347 -0.1232  0.1541
18633W        W61550  23.058   1.178   3.856 -0.1929 -0.0663  0.1056
18634W        W61551  19.322   0.313   1.522  0.0420 -0.0477 -0.1953
18635W        W61552  20.018  32.191   2.269 -0.2180  0.0331  0.1551
18636W        W61553  17.052  33.240   3.635  0.1309 -0.2314  0.0745
18637W        W61554  20.333  33.871   3.962  0.1223  0.0437 -0.0059
18638W        W61555  19.832  32.671  31.912  0.1496 -0.1547 -0.0898
18639W        W61556  20.191  32.857   3.409  0.0022  0.1943 -0.1970
18640W        W61557  21.040  34.538   1.351 -0.1260  0.1234  0.1687
18641W        W61558  18.705  33.679   0.031 -0.1545 -0.0809 -0.3554
18642W        W61559  17.548  34.580  31.769 -0.2165  0.1144 -0.1088
18643W        W61560  20.583   0.694   1.486 -0.2450 -0.1361 -0.0585
18644W        W61561  21.120  32.508   1.088  0.1635  0.2161 -0.0966
18645W        W61562  21.195   0.445   0.746  0.0470 -0.3025  0.0267
18646W        W61563  20.049  33.950   2.362 -0.2327 -0.0198 -0.1075
18647W        W61564  18.905  33.317   5.905 -0.1669  0.2403 -0.6315
18648W        W61565  22.920  33.568   2.152  0.1455 -0.2618  0.4345
18649W        W61566  20.070   1.600   1.516 -0.0725  0.3887 -0.1957
18650W        W61567  23.067  33.685   2.969  0.0451 -0.1152  0.3101
18651W        W61568  16.557  33.037   3.695  0.1725 -0.0860  0.1255
18652W        W61569  17.541  33.289   3.314  0.2244 -0.0410  0.0206
18653W        W61570  19.068   0.789   1.411 -0.0076  0.1796  0.4147
18654W        W61571  20.404  32.809   0.738 -0.0114  0.1645 -0.3931
18655W        W61572  22.651   0.359  31.742 -0.1500  0.0046 -0.1673
18656W        W61573  21.122   0.881   1.612 -0.2686 -0.1189  0.2939
18657W        W61574  21.508   0.240   0.188  0.6147  0.1417 -0.2883
18658W        W61575  17.819  33.982   2.180 -0.2168  0.0946 -0.0992
18659W        W61576  22.400  34.024   0.619  0.0276  0.0551 -0.2150
18660W        W61577  17.433  33.575   2.918 -0.1109 -0.3545 -0.1930
18661W        W61578  22.207   0.683   2.395 -0.1272  0.0029  0.1897
18662W        W61579  18.151  32.620   1.744  0.1158  0.0041  0.1803
18663W        W61580  19.344   1.383   2.520  0.0138  0.0910  0.1181
18664W        W61581  21.967  33.771   2.571  0.0330 -0.1344  0.0166
18665W        W61582  20.701  32.718   2.508 -0.1489 -0.1188 -0.2770
18666W        W61583  19.426  32.441   1.043 -0.1528 -0.0264 -0.0071
18667W        W61584  21.618   1.096   0.003 -0.1712 -0.2671 -0.0071
18668W        W61585  18.917  33.374   1.145 -0.0211  0.2942  0.0995
18669W        W61586  20.773  31.713   4.995  0.2100  0.0994  0.1824
18670W        W61587  17.691  33.520   1.508  0.1385 -0.2607  0.1989
18671W        W61588  20.216  33.122   2.589  0.3341  0.1585 -0.0556
18672W        W61589  19.690   0.911   4.019 -0.0181 -0.0503  0.3614
18673W        W61590  20.183  34.408   2.216  0.2153 -0.2311 -0.3261
18674W        W61591  23.018   1.461   2.645 -0.0642 -0.1321  0.0820
18675W        W61592  19.023   0.683   1.916  0.2929  0.5089  0.0540
18676W        W61593  19.539  32.009   2.277  0.0214  0.1953  0.1142
18677W        W61594  21.236  33.608   1.583  0.3052 -0.0222  0.3387
18678W        W61595  18.751   1.760   0.896 -0.1739 -0.0353 -0.0772
18679W        W61596  17.353  34.112   2.858 -0.3036  0.1825  0.0290
18680W        W61597  20.589  30.901  31.834 -0.2985 -0.0605 -0.0270
18681W        W61598  22.207  34.418   1.973 -0.2348 -0.3722 -0.3173
18682W        W61599  20.442   1.586   1.878  0.0520 -0.2655 -0.0088
18683W        W61600  18.676  32.988   0.259 -0.0635 -0.2925 -0.1736
18684W        W61601  22.112  32.099   0.227  0.1879  0.0823  0.0715
18685W        W61602  20.217   0.258   2.123  0.0204 -0.1145 -0.4206
18686W        W61603  20.025  33.880   1.504  0.2625 -0.2209 -0.2563
18687W        W61604  18.628  32.707   1.579 -0.0216  0.0901  0.0690
18688W        W61605  19.267  33.715   3.032  0.0667 -0.0510 -0.1933
18689W        W61606  20.491  34.664   2.554 -0.0374 -0.0983  0.0240
18690W        W61607  20.167  32.278   1.144  0.0258  0.0487 -0.0269
18691W        W61608  21.581  32.485   2.316 -0.1474 -0.0129 -0.0935
18692W        W61609  21.401  33.716   1.119  0.1317  0.2826 -0.1011
18693W        W61610  18.952  33.873   3.342 -0.2844 -0.1460 -0.1207
18694W        W61611  17.358  33.750  30.193 -0.0226  0.0672 -0.0924
18695W        W61612  18.864  30.503   1.750 -0.2358 -0.2295 -0.0172
18696W        W61613  20.210  33.386   4.119  0.1044  0.1995  0.2426
18697W        W61614  18.300   1.222   2.081  0.2048 -0.0201 -0.1251
18698W        W61615  18.449  34.180   0.146  0.1142 -0.2043 -0.2633
18699W        W61616  20.498  33.060   1.705  0.1005 -0.2234 -0.1078
18700W        W61617  17.711  31.742   1.036 -0.2495 -0.1461  0.1304
18701W        W61618  19.141  32.795   2.381 -0.0408  0.1233 -0.0256
18702W        W61619  22.446   0.095   3.849  0.0088 -0.1788 -0.1937
18703W        W61620  17.662  31.169   3.982 -0.0672 -0.1122 -0.1434
18704W        W61621  18.810  33.576   0.501 -0.2736  0.1868  0.0829
18705W        W61622  20.232  31.298   2.435  0.3070  0.1510 -0.2420
18706W        W61623  17.916  33.042   1.356 -0.0916 -0.2377 -0.2407
18707W        W61624  22.474   0.168   1.012  0.2780 -0.0712  0.1675
18708W        W61625  19.522  34.016  31.863  0.2398 -0.2662 -0.3226
18709W        W61626  18.830  32.108   0.532  0.2702 -0.1184  0.0722
18710W        W61627  20.750  31.247   0.292  0.1417  0.3054 -0.1342
18711W        W61628  18.825  32.408   1.172 -0.0556  0.1134  0.3588
18712W        W61629  18.250  31.802   1.273 -0.1086  0.0604  0.0188
18713W        W61630  20.604  32.514   1.165  0.2453 -0.0216 -0.2319
18714W        W61631  21.789  34.264   2.253  0.0331  0.0312 -0.0493
18715W        W61632  19.720  34.329   1.300  0.1864  0.0543 -0.2786
18716W        W61633  23.010   0.727   3.408  0.0285 -0.0543  0.0083
18717W        W61634  19.674  32.955   1.735  0.0851 -0.1127  0.0374
18718W        W61635  18.997  34.464   2.155 -0.1137 -0.1316  0.1766
18719W        W61636  19.149   1.161   1.844  0.1204  0.1832 -0.0941
18720W        W61637  21.219  33.452   2.212 -0.2541  0.0219 -0.1372
18721W        W61638  20.112  32.541   2.634 -0.1975  0.0538  0.0369
18722W        W61639  18.417  33.051   1.239 -0.0313  0.1638  0.3204
18723W        W61640  21.291  33.316   3.839 -0.3597 -0.1229 -0.2112
18724W        W61641  22.345  33.554   2.281 -0.1736  0.1245  0.0365
18725W        W61642  22.529   0.613   6.451  0.2568  0.1932 -0.1382
18726W        W61643  18.913  33.356   3.484 -0.2929 -0.3037  0.1412
18727W        W61644  18.681  31.716   6.630 -0.0435  0.1791  0.1477
18728W        W61645  21.935   0.128   1.012  0.0035  0.0237 -0.0644
18729W        W61646  20.230  34.436   5.722  0.1061 -0.0426 -0.1832
18730W        W61647  19.690  31.335   4.512 -0.1006 -0.1677 -0.0962
18731W        W61648  18.074  33.669   5.399 -0.0033  0.0071 -0.0344
18732W        W61649  22.790  34.261   5.248  0.1239 -0.0561  0.1278
18733W        W61650  16.919  34.340   3.023  0.1341 -0.1592 -0.2380
18734W        W61651  18.130  32.433   7.251 -0.2607 -0.1247  0.1740
18735W        W61652  20.977  34.097   5.687 -0.0317 -0.1643  0.1032
18736W        W61653  21.599   0.968   6.237 -0.0601  0.1196  0.2259
18737W        W61654  21.123  32.766   6.080 -0.0285  0.1335  0.0012
18738W        W61655  17.942  32.979   3.163  0.3367  0.1044 -0.1454
18739W        W61656  18.130  33.854   3.861  0.0522  0.0299  0.2346
18740W        W61657  19.310   0.685   6.044  0.3472 -0.2038 -0.1748
18741W        W61658  20.935  33.176   6.888 -0.0711 -0.0148  0.0131
18742W        W61659  20.558  33.672   4.352 -0.2262 -0.0909 -0.0644
18743W        W61660  21.567   0.686   8.675  0.0375  0.0328  0.0938
18744W        W61661  20.675   0.141   5.992  0.2323 -0.1487 -0.1940
18745W        W61662  20.334  33.474   3.622 -0.3464  0.0251  0.0637
18746W        W61663  20.398   0.005   8.024  0.1007 -0.0807 -0.1307
18747W        W61664  20.872  31.920   2.936  0.2387 -0.1185 -0.0676
18748W        W61665  20.446  31.843   1.347  0.2757 -0.0654  0.0548
18749W        W61666  20.110  32.383   3.287  0.0820  0.3547  0.2885
18750W        W61667  20.459  33.018   6.794  0.0057  0.3883 -0.0543
18751W        W61668  20.623  34.283   6.027  0.1582 -0.0668  0.0018
18752W        W61669  20.953  33.917   4.657  0.0619  0.1129  0.1266
18753W        W61670  22.131  34.320   5.953 -0.1432 -0.0624  0.1302
18754W        W61671  19.887   0.219   5.466  0.0748 -0.1373  0.3799
18755W        W61672  19.246  33.494   4.514  0.1160  0.1180  0.1622
18756W        W61673  19.110   0.927   8.036 -0.2468  0.0948  0.0113
18757W        W61674  18.169  33.587   6.488 -0.0179  0.1172 -0.2164
18758W        W61675  17.000  31.267   2.448 -0.2772 -0.1306 -0.3123
18759W        W61676  20.957  32.879   4.812 -0.0065  0.0229 -0.4058
18760W        W61677  19.065  33.530   6.368 -0.0584 -0.0070  0.0300
18761W        W61678  21.998  30.630   6.675 -0.2849  0.1951 -0.2147
18762W        W61679  21.343  33.351   5.429 -0.0544 -0.1350 -0.2713
18763W        W61680  19.613   0.630   5.519  0.1586  0.1975  0.0749
18764W        W61681  18.754  31.785   4.496  0.0214  0.0783  0.0159
18765W        W61682  21.303  33.973   5.220 -0.1125 -0.0487  0.2786
18766W        W61683  20.264  33.703   6.069 -0.1290 -0.0506 -0.1814
18767W        W61684  23.475  32.132   4.383  0.0482  0.0203  0.0783
18768W        W61685  19.927  34.093   4.089  0.1510 -0.3402  0.0440
18769W        W61686  20.305  33.320   4.664 -0.0425 -0.2932  0.0973
18770W        W61687  18.524  32.983   5.761 -0.0596 -0.0275  0.3090
18771W        W61688  20.676  32.699   5.862 -0.2131  0.2361  0.0952
18772W        W61689  18.296  33.375   7.414  0.0729 -0.2000  0.2702
18773W        W61690  22.326   0.251   5.667 -0.2969  0.2010  0.0425
18774W        W61691  19.380  32.060   3.797  0.0269 -0.1561  0.0282
18775W        W61692  18.930  32.668   4.076  0.1652 -0.1463  0.2110
18776W        W61693  19.210   0.806   4.339  0.3761 -0.1910 -0.2089
18777W        W61694  21.318  32.672   6.604 -0.0430 -0.0253  0.0523
18778W        W61695  20.016  33.845   6.467 -0.2816 -0.1083  0.1804
18779W        W61696  21.186  33.823   3.802 -0.1709  0.1650  0.1664
18780W        W61697  21.722  33.197   3.337  0.0147 -0.2390  0.1754
18781W        W61698  19.091  32.114   4.836 -0.0518  0.0968 -0.0571
18782W        W61699  19.577  34.045   3.676  0.0695 -0.0653 -0.0913
18783W        W61700  19.297  32.258   2.921 -0.0962 -0.1748 -0.0249
18784W        W61701  21.050  34.309   3.757 -0.3250  0.0474 -0.0411
18785W        W61702  22.551  33.165   4.973  0.2769  0.0233  0.0130
18786W        W61703  16.655   0.654   6.149 -0.0569  0.1710  0.0523
18787W        W61704  19.601  34.305   8.028 -0.0988  0.2936 -0.0158
18788W        W61705  16.836  32.796   4.011 -0.3337 -0.0136  0.1820
18789W        W61706  21.458  32.156   4.382  0.1968 -0.0116 -0.1867
18790W        W61707  21.821  31.493   4.380  0.2376 -0.0709 -0.0501
18791W        W61708  20.680  33.593   2.959  0.1125  0.5626  0.1427
18792W        W61709  20.509  32.509   4.108  0.1387  0.1349 -0.0636
18793W        W61710  19.007  32.147   3.392  0.0073 -0.1485 -0.1123
18794W        W61711  18.427   1.613   7.411  0.0026  0.4328 -0.0055
18795W        W61712  17.850  32.505   3.024  0.0947 -0.1596  0.1462
18796W        W61713  19.899  32.992   3.932 -0.0885  0.5696  0.0485
18797W        W61714  20.540  32.147   6.469 -0.0994 -0.0455  0.0051
18798W        W61715  19.655  33.426   6.512 -0.2096 -0.2357  0.1163
18799W        W61716  22.442  33.436   8.999 -0.0269  0.2712 -0.3058
18800W        W61717  23.620   0.352   6.756 -0.0450 -0.0933  0.0687
18801W        W61718  20.751  34.550   4.588 -0.1237  0.1715  0.0609
18802W        W61719  20.262  32.565   5.527 -0.2118 -0.0478 -0.1120
18803W        W61720  19.409  34.535   4.795 -0.1293  0.5466 -0.1227
18804W        W61721  20.315  33.414   7.155  0.1614 -0.3480 -0.0232
18805W        W61722  19.054  34.077   6.386 -0.0682 -0.1885 -0.0931
18806W        W61723  20.294  32.385   4.950  0.1965 -0.0007  0.0035
18807W        W61724  20.080  31.551   3.968  0.5520 -0.4171 -0.0878
18808W        W61725  20.463  30.587   5.604 -0.3881 -0.1860 -0.1366
18809W        W61726  16.328  32.927   2.299 -0.0276  0.2680  0.1566
18810W        W61727  17.279  32.478   2.286 -0.1115 -0.1287 -0.3185
18811W        W61728  22.515  33.730   3.752 -0.1806  0.0159 -0.0409
18812W        W61729  19.986  34.016   5.657 -0.1218 -0.0698  0.4292
18813W        W61730  21.366  33.113   5.002 -0.0665 -0.0205  0.1754
18814W        W61731  21.487   0.882   4.069 -0.0403 -0.2877 -0.0664
18815W        W61732  19.479  32.555   4.763  0.0181 -0.4308  0.0458
18816W        W61733  20.129   0.966   6.199 -0.1908  0.0565  0.0295
18817W        W61734  17.765  33.840   3.201  0.0348  0.1550  0.0116
18818W        W61735  21.300  34.585   5.892  0.0844  0.0963  0.1412
18819W        W61736  19.584  33.120   4.870  0.0218 -0.2889 -0.1063
18820W        W61737  17.673  33.542   3.830  0.3556 -0.2174 -0.1341
18821W        W61738  20.476  33.930   5.603 -0.0962 -0.2381 -0.1344
18822W        W61739  19.467  33.179   7.293 -0.2742 -0.2593  0.2248
18823W        W61740  18.640  32.517   3.360  0.1271  0.2144  0.3850
18824W        W61741  19.772   0.947   5.891  0.1177 -0.0215  0.0222
18825W        W61742  18.374   0.025   7.184 -0.3923  0.1772 -0.2652
18826W        W61743  21.313  32.628   7.442 -0.1828 -0.1264 -0.1998
18827W        W61744  20.656   0.149   6.602 -0.0366  0.1427 -0.0247
18828W        W61745  21.539  32.750   5.795 -0.1538  0.1213  0.0920
18829W        W61746  22.473  33.267   3.356  0.1768 -0.0962  0.1825
18830W        W61747  19.687  34.639   4.215 -0.1229  0.1335  0.1110
18831W        W61748  21.221  33.627   6.946 -0.0090  0.1663  0.0167
18832W        W61749  23.369  34.325   5.116 -0.0291 -0.0478  0.2125
18833W        W61750  20.903  32.564   7.731  0.0983 -0.3071 -0.0764
18834W        W61751  22.191  33.225   5.639 -0.0484  0.0262 -0.3112
18835W        W61752  17.440  33.313   5.708 -0.2663  0.0678  0.1615
18836W        W61753  19.660  34.578   6.137  0.0031  0.0273  0.0738
18837W        W61754  20.256  34.583   4.718 -0.1385  0.1336  0.1395
18838W        W61755  19.102  32.073   4.295  0.3023  0.2664 -0.3654
18839W        W61756  20.166   0.495   5.968 -0.1278  0.0549  0.0548
18840W        W61757  22.082  33.243   4.798  0.0499  0.0470  0.0415
18841W        W61758  18.668  34.535   5.776 -0.5809  0.1961  0.2815
18842W        W61759  22.080  32.713   5.682  0.0034  0.3798  0.2270
18843W        W61760  19.473  33.854   7.738 -0.0467 -0.0896  0.0489
18844W        W61761  21.717  33.510   5.056  0.3712  0.2009  0.0247
18845W        W61762  20.147   0.046   6.102 -0.0065 -0.1262 -0.1073
18846W        W61763  20.178   0.806   7.565 -0.1617 -0.0928 -0.0849
18847W        W61764  20.462   0.446   7.674 -0.0183 -0.2035 -0.1346
18848W        W61765  17.105  34.117   6.282  0.2571  0.3765 -0.3918
18849W        W61766  20.589   1.742   3.565  0.3085 -0.0926  0.0381
18850W        W61767  21.848  33.653   6.521 -0.2332 -0.0089  0.1034
18851W        W61768  21.954   0.562   5.527 -0.0915 -0.2810 -0.1482
18852W        W61769  21.100   0.195   4.647  0.1157 -0.0331  0.1552
18853W        W61770  20.073  33.181   6.245 -0.0735  0.3738  0.0987
18854W        W61771  19.457   1.469   5.675  0.0148 -0.4753 -0.0157
18855W        W61772  18.817  33.818   2.880 -0.1903  0.0392  0.1096
18856W        W61773  22.273  32.292   4.837  0.1661 -0.1786 -0.2089
18857W        W61774  23.370  33.324   2.635 -0.0448 -0.4584  0.0033
18858W        W61775  17.950  34.098   5.279  0.2546  0.0490 -0.0653
18859W        W61776  20.040  32.306   0.329 -0.0774 -0.1881  0.0019
18860W        W61777  19.841   0.046   4.955 -0.2411 -0.0190  0.0355
18861W        W61778  20.451  32.373   2.134 -0.1136  0.0829  0.1120
18862W        W61779  21.407  33.704   7.895 -0.0676  0.0651  0.0501
18863W        W61780  20.930  33.675   5.397  0.3184  0.2069 -0.0622
18864W        W61781  20.521  30.802   6.915  0.1117 -0.0213  0.1491
18865W        W61782  22.158   0.183   4.268 -0.3473 -0.0713 -0.2855
18866W        W61783  19.686   0.386   5.943 -0.1239 -0.0182  0.0775
18867W        W61784  20.619   0.638   5.804 -0.2676 -0.1374 -0.0976
18868W        W61785  19.440  34.218   4.369  0.1788  0.1399 -0.0028
18869W        W61786  18.056   0.192   7.700 -0.0428 -0.0262  0.0820
18870W        W61787  21.265  32.631   3.935 -0.0755 -0.2735 -0.0479
18871W        W61788  19.430  34.135   3.216  0.1420 -0.0072  0.1102
18872W        W61789  21.228  31.765   2.164 -0.1225  0.4074  0.1957
18873W        W61790  22.008  34.662   5.019  0.2663  0.1259 -0.1211
18874W        W61791  24.419  33.824   4.474  0.0745  0.1628 -0.0624
18875W        W61792  18.480  32.169   4.207  0.1780 -0.1447 -0.1151
18876W        W61793  20.542  32.628   4.616 -0.2758 -0.1338  0.2127
18877W        W61794  19.251   0.603   7.554 -0.0064  0.0706 -0.1400
18878W        W61795  21.683  34.411   7.394 -0.2959 -0.0001  0.0663
18879W        W61796  17.617  34.056   3.649  0.0225 -0.2216 -0.1315
18880W        W61797  22.477   0.229   2.684 -0.1628  0.0688  0.1371
18881W        W61798  20.992  31.420   5.966 -0.1421 -0.0655  0.0733
18882W        W61799  21.667  32.965   4.630  0.1510 -0.0992  0.4803
18883W        W61800  18.481  31.450   5.790  0.8153 -0.1037 -0.0264
18884W        W61801  23.335   0.526   4.274  0.2979 -0.0358 -0.5005
18885W        W61802  19.770  34.454   5.643 -0.0376 -0.0128  0.3187
18886W        W61803  21.380  33.701   6.364  0.0240  0.0914  0.4394
18887W        W61804  20.249  34.451   5.221 -0.0622 -0.0170  0.2246
18888W        W61805  23.342  34.068   4.578  0.0722  0.0931  0.1996
18889W        W61806  17.949   0.151   6.357  0.2201 -0.1241 -0.2564
18890W        W61807  19.178  34.069   4.961  0.1576  0.0416  0.0607
18891W        W61808  20.786   0.405   7.232  0.0861  0.1177 -0.0196
18892W        W61809  20.135  34.127   3.566  0.2177 -0.0333 -0.0514
18893W        W61810  18.768   0.196   5.339 -0.1062  0.1570  0.0176
18894W        W61811  19.921  31.707   2.584  0.0472  0.2549  0.1847
18895W        W61812  18.725   1.836   4.270 -0.1724 -0.1511 -0.2018
18896W        W61813  17.697   0.651   6.360 -0.2734 -0.2838 -0.5343
18897W        W61814  18.794  32.960   3.079 -0.1531  0.1297  0.2195
18898W        W61815  22.453  33.680   4.811 -0.3597  0.2884  0.1307
18899W        W61816  19.119   2.182   4.100  0.0738  0.2244  0.0279
18900W        W61817  17.414  34.354   5.283 -0.0426  0.0668 -0.0811
18901W        W61818  21.342  34.005   4.316 -0.1602  0.1187 -0.1735
18902W        W61819  19.152  32.960   4.891  0.0536  0.0413  0.2738
18903W        W61820  21.442  33.449   4.553  0.0692 -0.2280 -0.1009
18904W        W61821  19.739  32.715   6.593  0.0470  0.0142  0.1790
18905W        W61822  22.384  32.213   7.203 -0.1477 -0.4277 -0.2539
18906W        W61823  19.291  33.509   5.010 -0.0822 -0.0051  0.0742
18907W        W61824  18.975  32.569   4.623 -0.1625  0.3289 -0.0503
18908W        W61825  20.644  33.097   4.275  0.0807  0.2011 -0.3742
18909W        W61826  18.512  33.266   4.415 -0.2362  0.3310  0.1440
18910W        W61827  17.761   0.295   8.548  0.0002  0.1863 -0.0293
18911W        W61828  20.767  33.428   3.862 -0.1135 -0.3914  0.1920
18912W        W61829  20.999  32.246   8.134  0.0212 -0.0675 -0.0787
18913W        W61830  20.017  33.522   5.620 -0.1814 -0.0749 -0.2771
18914W        W61831  18.376  34.481   5.309 -0.1069 -0.2544 -0.1146
18915W        W61832  18.236  33.922   4.761 -0.0251 -0.2632  0.0766
18916W        W61833  18.821  32.706   7.630  0.0171 -0.0539 -0.0439
18917W        W61834  17.599  31.039   6.282  0.2689  0.1271 -0.0837
18918W        W61835  21.306  32.568   4.602 -0.0796 -0.0661 -0.2366
18919W        W61836  20.271  33.924   7.411 -0.1604 -0.0860 -0.1170
18920W        W61837  20.621  32.048   7.039  0.1617  0.0645 -0.0856
18921W        W61838  17.697  33.777   4.934 -0.0503  0.1879  0.1343
18922W        W61839  19.982  34.437   6.643  0.4184 -0.2867 -0.1974
18923W        W61840  19.694  33.205   5.348 -0.0967  0.0690 -0.0944
18924W        W61841  21.796  33.511   5.574 -0.1196  0.2465  0.2766
18925W        W61842  21.024   0.313   5.730 -0.0622  0.2639 -0.2432
18926W        W61843  18.072  33.213   5.654  0.4319  0.1267 -0.0483
18927W        W61844  18.913  31.926   5.256 -0.1142 -0.1902 -0.1626
18928W        W61845  19.543  33.813   4.108 -0.0184 -0.1193 -0.0112
18929W        W61846  17.900  34.180   5.919 -0.5233  0.0172  0.0158
18930W        W61847  20.650  33.969   3.553  0.1764 -0.1035  0.2625
18931W        W61848  22.391  34.645   6.866 -0.0871 -0.3166  0.3333
18932W        W61849  22.314  34.234   3.470  0.1602 -0.0398 -0.4765
18933W        W61850  19.529   0.361   4.591 -0.0038  0.0284 -0.1118
18934W        W61851  17.580  32.387   5.619  0.0260 -0.0262  0.1979
18935W        W61852  18.310  32.725   2.986  0.0027 -0.0576  0.0596
18936W        W61853  18.881  33.101   5.299  0.0032  0.0529  0.2137
18937W        W61854  22.304  33.243   6.389  0.2570 -0.1044 -0.2604
18938W        W61855  20.866  33.192   5.184  0.2541  0.2095  0.0259
18939W        W61856  22.440  33.802   3.234  0.2729  0.0091  0.1405
18940W        W61857  16.588   0.620   7.742  0.2364  0.1380  0.3252
18941W        W61858  19.892   0.800   6.959 -0.0863 -0.1999 -0.2020
18942W        W61859  20.963   0.034   8.215  0.0339  0.2922  0.2250
18943W        W61860  18.294  33.647   7.019 -0.0261 -0.0092 -0.0744
18944W        W61861  19.464  33.899   6.626 -0.0083  0.0341 -0.0119
18945W        W61862  20.625  30.380   7.848  0.1033  0.2203  0.2544
18946W        W61863  20.994  32.138   9.559  0.1972 -0.4423  0.2359
18947W        W61864  19.535  30.210   8.926 -0.2175 -0.1562 -0.1768
18948W        W61865  21.858   0.048   9.406  0.1020  0.1087 -0.0943
18949W        W61866  18.600   0.165   7.579  0.1537  0.0295  0.0181
18950W        W61867  19.761   1.470   8.680  0.1589  0.1831 -0.2250
18951W        W61868  19.162  34.497   6.048 -0.2751 -0.0312 -0.2032
18952W        W61869  20.218   0.157   9.083 -0.1440 -0.2176 -0.2454
18953W        W61870  18.526  32.597   4.420 -0.0961 -0.2230  0.2366
18954W        W61871  17.135   0.369   7.829  0.0483  0.0208 -0.1549
18955W        W61872  19.901  33.599   8.722 -0.0209 -0.0063  0.0299
18956W        W61873  22.726  29.761   8.004  0.0185  0.1745  0.1318
18957W        W61874  21.190  33.486   8.908 -0.4781  0.0739 -0.0094
18958W        W61875  20.877  34.445   7.296  0.2025 -0.1163  0.1389
18959W        W61876  19.825  33.944   8.258 -0.0305 -0.2152  0.0307
18960W        W61877  19.340   0.259   6.287  0.1422 -0.0868  0.0267
18961W        W61878  18.545  32.817   6.258 -0.0474 -0.0611  0.4519
18962W        W61879  21.625  33.228   8.039 -0.1107 -0.0534 -0.3345
18963W        W61880  19.374  30.836   8.395 -0.3812 -0.0408 -0.0505
18964W        W61881  21.368   1.115   7.676 -0.0437 -0.2230 -0.2252
18965W        W61882  21.709   0.436   8.248  0.2453 -0.0597 -0.2721
18966W        W61883  19.565  31.274   9.038 -0.0045 -0.2236 -0.1663
18967W        W61884  20.131  33.097   8.678 -0.1364 -0.0374  0.0837
18968W        W61885  19.316   0.676   7.067  0.1282  0.0308  0.0149
18969W        W61886  19.436  32.700   7.598 -0.1462 -0.3541  0.0858
18970W        W61887  21.085  34.340   6.787  0.1618 -0.2996  0.4382
18971W        W61888  20.461  32.503   9.306  0.0988 -0.2948 -0.4259
18972W        W61889  18.123   2.348   9.792 -0.0773  0.2239 -0.2528
18973W        W61890  20.594   0.880   7.330 -0.0259 -0.1277 -0.0595
18974W        W61891  16.923  31.637   8.421  0.1677 -0.1262 -0.2464
18975W        W61892  21.439  31.731   8.673 -0.0891  0.1580  0.2615
18976W        W61893  22.279  32.407   8.258  0.1084  0.1857  0.2817
18977W        W61894  23.488   1.793   7.562  0.1366 -0.0132 -0.4291
18978W        W61895  18.242  34.100   8.492 -0.3264  0.1330  0.0527
18979W        W61896  18.779  30.249   8.388  0.0868  0.1699  0.1351
18980W        W61897  19.600  33.059   9.199  0.3421  0.0241  0.1574
18981W        W61898  18.311  34.032   5.692  0.2430  0.1964  0.1520
18982W        W61899  22.719  34.001   9.576  0.3806  0.1123  0.2451
18983W        W61900  19.689  33.744   4.841  0.2663 -0.1563 -0.1012
18984W        W61901  21.634  34.330   8.613  0.0517  0.1987  0.0421
18985W        W61902  18.081   0.434   5.942  0.0138 -0.0528 -0.1490
18986W        W61903  21.358   1.237   8.423 -0.1982 -0.1303  0.0394
18987W        W61904  19.121   1.211   9.371 -0.2263  0.1678  0.1704
18988W        W61905  17.583  32.919   7.812 -0.0118 -0.0373 -0.0104
18989W        W61906  17.333   0.198   8.858  0.1492 -0.0230 -0.0956
18990W        W61907  21.135  33.000   8.864 -0.1949  0.1939  0.3073
18991W        W61908  18.062   1.032   7.278 -0.1230  0.0139 -0.3316
18992W        W61909  21.858  30.928   6.231  0.1295  0.0392 -0.1061
18993W        W61910  19.940  34.210   7.676  0.1456 -0.0723 -0.3314
18994W        W61911  21.245  33.228   7.696 -0.3183  0.1201  0.0151
18995W        W61912  21.839  31.516   7.007 -0.0295  0.1530  0.2824
18996W        W61913  19.862  33.701   6.915 -0.0721  0.2083  0.0177
18997W        W61914  21.580  31.808   7.818 -0.1957 -0.0688 -0.0558
18998W        W61915  20.877  32.333   6.158 -0.0091 -0.1045 -0.2190
18999W        W61916  22.186  31.576   8.954  0.1234 -0.0462  0.1058
19000W        W61917  20.951  30.533   8.770  0.1200  0.0459  0.0142
19001W        W61918  18.986  34.533   7.460 -0.0427 -0.1287  0.0488
19002W        W61919  20.068   0.897   9.189 -0.0645  0.1376  0.2643
19003W        W61920  21.441  32.243   8.715 -0.1325 -0.0935 -0.0186
19004W        W61921  17.401  34.077   6.797  0.0364  0.1134 -0.0037
19005W        W61922  19.346   2.269   7.782  0.2772 -0.1868 -0.0799
19006W        W61923  18.196  33.902   7.435  0.1645 -0.1040  0.2578
19007W        W61924  20.213   1.168   7.938  0.2368 -0.1457 -0.2273
19008W        W61925  21.166  31.613   9.449 -0.0138  0.1699  0.2196
19009W        W61926  19.374  34.407   6.537 -0.0550  0.1879  0.0368
19010W        W61927  17.777   0.214   9.067 -0.0331 -0.2813  0.0133
19011W        W61928  21.475  32.007   9.528 -0.2782  0.1380  0.1197
19012W        W61929  20.127  32.868   9.097  0.2896  0.0233  0.0678
19013W        W61930  22.140  34.402   7.194  0.1215  0.1904 -0.3526
19014W        W61931  20.444  30.183   8.282  0.0786 -0.4077  0.2706
19015W        W61932  17.489  33.850   8.501 -0.1299  0.0773  0.0598
19016W        W61933  23.026  34.222   9.171 -0.2879  0.2367 -0.0234
19017W        W61934  19.942  31.731   8.790 -0.1594 -0.1775 -0.0590
19018W        W61935  17.702  33.365   6.271  0.0774  0.2305  0.1478
19019W        W61936  20.081  34.343   9.297 -0.0645 -0.1182 -0.0325
19020W        W61937  22.149   1.364   9.024 -0.0634 -0.0634  0.0107
19021W        W61938  19.119  34.290   7.883  0.0324 -0.1220  0.0138
19022W        W61939  21.205  33.517   8.335  0.0204  0.1176 -0.0252
19023W        W61940  18.629  29.771  12.090  0.0572  0.1167  0.0463
19024W        W61941  18.531  33.710   7.724 -0.3126  0.2345 -0.2024
19025W        W61942  17.424  34.194   9.662  0.4169 -0.0707  0.1778
19026W        W61943  21.909  32.327   5.306  0.0423 -0.2336 -0.2246
19027W        W61944  19.606  34.304   8.540  0.0454 -0.0725  0.1977
19028W        W61945  19.665  33.419   7.855 -0.0755 -0.1181  0.0315
19029W        W61946  23.250   1.397   8.301  0.2556  0.2769 -0.0808
19030W        W61947  20.581  32.843   8.704  0.0365  0.0882 -0.1335
19031W        W61948  19.742  33.721   6.064  0.1628 -0.2688 -0.1556
19032W        W61949  19.650  31.894   9.283 -0.2233 -0.0767  0.0844
19033W        W61950  20.564   1.228   9.642 -0.1154  0.2703  0.0524
19034W        W61951  19.019   1.845   8.858  0.0080 -0.0597 -0.1433
19035W        W61952  19.897   0.441   7.711  0.0861 -0.0604 -0.2043
19036W        W61953  19.234  33.131   7.794  0.3347 -0.2357 -0.0401
19037W        W61954  21.710  33.540   7.035  0.1862  0.2416  0.1878
19038W        W61955  23.685  32.065   9.673  0.0845 -0.2386  0.5584
19039W        W61956  22.434   1.008   6.790 -0.2084  0.0029 -0.0916
19040W        W61957  20.754  33.938   7.506 -0.0514 -0.0652  0.1756
19041W        W61958  18.704   0.577   8.063  0.0827  0.1404  0.2075
19042W        W61959  19.443  33.703   7.153  0.4337 -0.2831 -0.0656
19043W        W61960  22.304  32.422   7.710 -0.0331 -0.2809  0.0069
19044W        W61961  18.786  33.283   8.505  0.1241  0.1066 -0.0749
19045W        W61962  17.719  34.453   6.677  0.3115  0.0567 -0.0870
19046W        W61963  20.307   0.484   7.162  0.2295 -0.2212 -0.1511
19047W        W61964  21.113  29.951   8.429  0.0613 -0.3331 -0.1320
19048W        W61965  20.804  26.752   8.703 -0.2649  0.0988 -0.2711
19049W        W61966  19.034  31.724   9.183 -0.0359  0.0864  0.0452
19050W        W61967  20.199  29.899   8.681  0.0512  0.0678  0.0985
19051W        W61968  18.289   0.865   9.502  0.3331  0.2362  0.2797
19052W        W61969  19.523   0.298   7.977  0.3070 -0.1033  0.0013
19053W        W61970  20.852  32.401   8.987  0.0079  0.1513 -0.0301
19054W        W61971  19.891  33.614   7.444  0.0606 -0.2642  0.0226
19055W        W61972  19.364   0.132   5.689 -0.3672 -0.0819 -0.1824
19056W        W61973  20.253  33.938   8.552 -0.0217  0.0692 -0.0375
19057W        W61974  20.788  33.051   7.745  0.1124  0.0320  0.1217
19058W        W61975  21.455   2.722   8.562  0.0684 -0.1795  0.0100
19059W        W61976  20.987  32.252   6.686  0.0944 -0.1917 -0.0700
19060W        W61977  17.665  32.332   8.812  0.2167 -0.0087  0.2568
19061W        W61978  19.202  32.589   8.087  0.2090 -0.2585 -0.0728
19062W        W61979  21.697  34.152   7.798 -0.1306 -0.2199 -0.0966
19063W        W61980  21.969  33.061   8.321  0.0020 -0.1911  0.2657
19064W        W61981  19.016   0.346   6.754 -0.0201  0.0197  0.1926
19065W        W61982  22.812  34.536   8.891  0.1483  0.1446 -0.0778
19066W        W61983  18.730  33.928   8.625 -0.1531  0.1465  0.0448
19067W        W61984  17.554   1.155   8.265 -0.1051 -0.1206 -0.2028
19068W        W61985  23.177   0.031   8.102  0.1156 -0.1490  0.0963
19069W        W61986  17.351  30.287   9.170 -0.0102 -0.0920  0.1283
19070W        W61987  20.808  34.445   9.059 -0.3601  0.2183  0.0858
19071W        W61988  18.855  34.114   5.919 -0.0409  0.0557  0.2772
19072W        W61989  19.892  32.629   7.871 -0.3729 -0.2825 -0.2056
19073W        W61990  20.685  32.776   8.192  0.3153 -0.2650  0.2522
19074W        W61991  19.284  30.790   8.898  0.2502  0.0459 -0.0423
19075W        W61992  21.793  33.445   8.714 -0.2817 -0.1927 -0.2562
19076W        W61993  18.435  32.664   7.972 -0.0509 -0.0426  0.3218
19077W        W61994  19.381   0.853   6.545 -0.1829 -0.0010  0.3469
19078W        W61995  22.639   0.265   7.978  0.3076 -0.1075  0.3381
19079W        W61996  18.397  31.150  12.198 -0.1987 -0.0237 -0.1673
19080W        W61997  21.992  31.296   8.471  0.2354 -0.1197 -0.1377
19081W        W61998  19.755   0.479   8.986 -0.0554 -0.0804 -0.2362
19082W        W61999  22.325  34.395   8.654  0.0495 -0.1138  0.1115
19083W        W62000  21.224  31.798   8.251  0.0868 -0.1695  0.0266
19084W        W62001  19.073  34.276   8.507 -0.1084 -0.2591 -0.3610
19085W        W62002  22.586   0.637   8.770 -0.0769  0.1222 -0.1472
19086W        W62003  21.194   1.673   9.400  0.1260  0.1967 -0.0504
19087W        W62004  18.596   0.212   9.069 -0.2721 -0.0310  0.0471
19088W        W62005  17.805  33.242   6.826  0.4039  0.0398  0.0302
19089W        W62006  18.608   0.791   7.555  0.0800 -0.0400  0.0069
19090W        W62007  16.018  33.889   5.658  0.0348 -0.3020 -0.0450
19091W        W62008  19.632  29.165   7.059 -0.0494 -0.1456  0.1710
19092W        W62009  19.249  32.087   9.696 -0.1835 -0.0364 -0.1134
19093W        W62010  18.311  29.533   8.498 -0.2547 -0.1591  0.1451
19094W        W62011  18.629  33.807   6.213  0.1379 -0.0238  0.2012
19095W        W62012  20.737  33.285   9.059  0.3447 -0.0718 -0.0845
19096W        W62013  19.299  30.302   8.457  0.0353  0.2757  0.1471
19097W        W62014  21.334  32.424   9.251 -0.0742 -0.0898  0.1300
19098W        W62015  20.500  33.275   8.137  0.0903 -0.1449  0.1363
19099W        W62016  20.014  32.944   7.440 -0.1860 -0.0716 -0.0959
19100W        W62017  19.068  32.026   8.773 -0.3136 -0.2825  0.0037
19101W        W62018  18.514   0.214   6.691  0.1851  0.3838  0.3211
19102W        W62019  18.545  34.221   7.661 -0.1344 -0.0901  0.0842
19103W        W62020  21.719  33.851   6.012  0.1093  0.2588  0.0947
19104W        W62021  18.999  31.628   8.424 -0.2379  0.1946  0.0953
19105W        W62022  19.583  33.000   8.180  0.1471 -0.1060  0.2095
19106W        W62023  19.524   0.363   6.742  0.2720  0.0354  0.0046
19107W        W62024  21.218  34.110   9.641 -0.1313  0.2010 -0.1666
19108W        W62025  21.485   0.531   9.311 -0.1420 -0.0384  0.3459
19109W        W62026  20.670  33.763   7.046 -0.1292  0.3879 -0.0450
19110W        W62027  21.816   3.508   3.830 -0.1573 -0.2090  0.1280
19111W        W62028  22.653   2.155   1.445  0.0097 -0.1411  0.0299
19112W        W62029  24.611   1.710  28.277 -0.1075 -0.0610 -0.1874
19113W        W62030  26.279   2.087   2.875  0.1027 -0.2926 -0.0344
19114W        W62031  21.651   1.351   2.257  0.2615  0.1481  0.2848
19115W        W62032  24.970   4.059   1.218 -0.2253  0.1357  0.0365
19116W        W62033  22.760  33.866   0.914 -0.0486 -0.1142  0.1127
19117W        W62034  25.016   2.256   3.331 -0.3243  0.0778 -0.1496
19118W        W62035  24.307   2.296   2.711  0.0723 -0.2967 -0.2792
19119W        W62036  21.374   1.061  30.102 -0.0197  0.1324 -0.2414
19120W        W62037  22.179  34.528   2.664  0.1850  0.1682  0.2363
19121W        W62038  23.111   3.969   1.618 -0.0626 -0.4519 -0.0392
19122W        W62039  22.690  34.357   0.343  0.1411  0.0326  0.1720
19123W        W62040  21.738   0.081   1.924 -0.6534 -0.1825  0.0396
19124W        W62041  22.605   1.668   2.490 -0.1041  0.1398 -0.0599
19125W        W62042  21.411   3.222   1.974 -0.0850  0.1680 -0.1119
19126W        W62043  23.009   1.248   1.621  0.0359  0.1269 -0.3178
19127W        W62044  22.274   3.048   1.000  0.1095  0.0459 -0.1439
19128W        W62045  24.680   3.109   1.879 -0.2809  0.1830  0.1959
19129W        W62046  23.515  34.382   2.597 -0.3057  0.2472  0.1184
19130W        W62047  22.850   2.521   1.758 -0.2565 -0.1890  0.1585
19131W        W62048  24.397   2.407  30.020  0.2641  0.2800  0.1181
19132W        W62049  23.090   3.685  31.609  0.2304  0.0647  0.2956
19133W        W62050  22.181   1.585   2.130  0.0163  0.2643  0.1580
19134W        W62051  22.604   2.045   4.123  0.0621  0.0865 -0.1297
19135W        W62052  25.087   0.677   0.107  0.1121 -0.0007  0.1100
19136W        W62053  24.027   0.520   1.521 -0.2051 -0.1398 -0.2126
19137W        W62054  24.399   4.787   2.134  0.1045  0.0481 -0.0112
19138W        W62055  24.339   6.271   1.442 -0.0716 -0.1571  0.3070
19139W        W62056  23.782   3.855   3.060 -0.2012  0.1373  0.0389
19140W        W62057  21.285   4.625   1.862  0.0197  0.0739 -0.4928
19141W        W62058  22.116   3.046   0.507 -0.3706 -0.1653  0.2242
19142W        W62059  23.024   3.398   1.266  0.0515 -0.3536  0.1642
19143W        W62060  25.494   5.388   0.297 -0.0054  0.4103  0.3146
19144W        W62061  25.381   2.240   2.304  0.1022 -0.0362  0.2465
19145W        W62062  21.161   5.235   2.173 -0.0304  0.2613 -0.1170
19146W        W62063  21.271   3.880  31.262  0.0407  0.1987  0.1949
19147W        W62064  25.755   3.805   3.550 -0.0826 -0.1425  0.0502
19148W        W62065  26.840   3.509   2.204 -0.3438 -0.1470 -0.0880
19149W        W62066  22.697   3.085   1.936 -0.1032  0.1640  0.0266
19150W        W62067  22.620   1.588   1.593  0.5297  0.0574 -0.0203
19151W        W62068  21.912   3.173   2.175 -0.0760  0.1960  0.1885
19152W        W62069  21.319   2.604   2.749  0.2525  0.0080  0.0798
19153W        W62070  22.337   2.697   2.752  0.1741 -0.1804 -0.1871
19154W        W62071  20.027   3.277   1.672 -0.1566 -0.1387  0.3332
19155W        W62072  25.469  34.438   2.592 -0.1650 -0.0677 -0.1236
19156W        W62073  24.857   3.829   0.800  0.2849 -0.0942  0.2199
19157W        W62074  24.283   3.666  31.797  0.2483  0.0072  0.0529
19158W        W62075  22.053   2.061   0.272 -0.0980  0.0825  0.4212
19159W        W62076  22.910   0.697  30.845 -0.1679 -0.0200  0.1199
19160W        W62077  24.450  34.600   0.324 -0.0489  0.0342 -0.2221
19161W        W62078  20.780   3.764   2.099  0.1072 -0.3450  0.1242
19162W        W62079  23.307  34.588   1.175  0.0267  0.1301 -0.0128
19163W        W62080  25.961   3.473   1.482  0.1863 -0.2419 -0.1900
19164W        W62081  21.636   0.954  30.926 -0.1720  0.0796  0.1098
19165W        W62082  24.476   0.886   0.583  0.0109 -0.1428 -0.0188
19166W        W62083  23.900   3.496   2.683 -0.1298  0.1314 -0.0987
19167W        W62084  22.376   1.306   1.104 -0.0224 -0.2145 -0.0896
19168W        W62085  24.200   2.279   0.906 -0.0374  0.0336 -0.1715
19169W        W62086  25.599   4.028  31.247 -0.0815 -0.0708 -0.4143
19170W        W62087  23.813   4.401  31.431 -0.2468  0.1053 -0.3328
19171W        W62088  23.919   3.291  31.001  0.0168 -0.0640  0.0287
19172W        W62089  20.594   2.205   3.276 -0.0063 -0.1140 -0.0420
19173W        W62090  22.570   3.623   3.165 -0.0399 -0.0463 -0.0844
19174W        W62091  23.779   2.924   0.262  0.0397  0.3036 -0.2176
19175W        W62092  24.470   2.428   4.250 -0.4418  0.0606  0.0999
19176W        W62093  20.200   3.219   2.674  0.1060  0.2422  0.2002
19177W        W62094  25.140   0.367  31.192  0.0219 -0.1021  0.1988
19178W        W62095  23.744   2.239  31.773 -0.3384  0.0808  0.2695
19179W        W62096  23.511   3.512   0.392 -0.4402  0.2236  0.0946
19180W        W62097  24.659   2.570   0.486 -0.1441 -0.1086 -0.0764
19181W        W62098  25.948   0.995   1.299 -0.1174  0.2237  0.1532
19182W        W62099  26.224  34.471   2.001  0.0781 -0.1680 -0.1651
19183W        W62100  22.565   3.199   0.632 -0.0071  0.1141 -0.1444
19184W        W62101  23.012   2.462   1.084 -0.2084 -0.0241 -0.1453
19185W        W62102  26.358   3.308   1.837 -0.3489 -0.1856  0.3643
19186W        W62103  26.407   1.186  31.731 -0.0808  0.2724  0.0435
19187W        W62104  21.122   3.964   1.019 -0.0691 -0.2436  0.2678
19188W        W62105  22.602   1.299   2.012 -0.0524 -0.0749  0.2668
19189W        W62106  23.745   2.527   1.967  0.0996  0.2798 -0.1173
19190W        W62107  23.248   3.725  29.475  0.3766  0.0605  0.1786
19191W        W62108  19.578   2.731   2.795  0.0626  0.2109 -0.0722
19192W        W62109  22.041   3.602   0.513 -0.0822 -0.0409  0.1737
19193W        W62110  21.011   0.842   1.130  0.1597  0.0239  0.0337
19194W        W62111  19.471   2.991   3.831  0.1914  0.0322 -0.3041
19195W        W62112  25.403  32.604  31.943  0.3932 -0.3401  0.1922
19196W        W62113  23.230   0.491   2.124  0.0839 -0.0176 -0.2124
19197W        W62114  25.919   1.498   1.416  0.3322 -0.2773 -0.1459
19198W        W62115  21.793   4.108   1.548  0.0522 -0.1950  0.3132
19199W        W62116  24.787   3.859  31.923  0.1066  0.0538  0.2922
19200W        W62117  25.119   1.731  31.892 -0.1230  0.0269  0.1185
19201W        W62118  23.913   4.133  31.879  0.0227 -0.2189 -0.1070
19202W        W62119  21.494   1.308   1.718 -0.0972  0.0146  0.0521
19203W        W62120  21.429   2.033   0.149 -0.0919  0.2711  0.0180
19204W        W62121  23.451   0.463   3.701 -0.1171  0.2614  0.3103
19205W        W62122  18.649   0.377   3.037  0.0457 -0.0016 -0.2138
19206W        W62123  24.992   2.573   2.470  0.1037 -0.3056  0.0108
19207W        W62124  23.710   0.446  31.271  0.0869 -0.2502  0.1298
19208W        W62125  24.405   1.182   1.248  0.3137  0.0298  0.0577
19209W        W62126  23.462   1.197   1.919 -0.1293  0.1728  0.1207
19210W        W62127  21.341   3.982   1.517  0.3317 -0.1414  0.1928
19211W        W62128  24.680   2.556   3.544 -0.0739 -0.1827 -0.0953
19212W        W62129  24.804   4.750  31.288  0.0449  0.0572 -0.1427
19213W        W62130  23.022   4.102   5.214  0.1890  0.1846  0.1825
19214W        W62131  24.648   4.026   1.637 -0.1529  0.0822 -0.0914
19215W        W62132  23.441   1.738   1.751  0.0283  0.0321  0.0379
19216W        W62133  22.491   2.351   0.154 -0.2243 -0.0329  0.2341
19217W        W62134  21.419   2.537   0.056  0.3375 -0.1050 -0.0437
19218W        W62135  23.763   2.158   0.310 -0.0746 -0.3116 -0.1084
19219W        W62136  22.318   2.906   2.308  0.3558  0.2175  0.1490
19220W        W62137  25.768   4.566   1.476 -0.0875  0.1740 -0.0879
19221W        W62138  22.269   1.770   1.272  0.1138 -0.1068  0.4063
19222W        W62139  23.033   2.928   4.531 -0.0235 -0.0885 -0.0868
19223W        W62140  23.671  34.196   0.449 -0.0473  0.0792 -0.3011
19224W        W62141  25.208   2.916   2.805 -0.0461  0.0673 -0.1110
19225W        W62142  24.926   1.908   3.640 -0.1538  0.0074  0.0584
19226W        W62143  21.304   0.475   2.250  0.1753  0.0134  0.0510
19227W        W62144  24.804   4.675   0.327  0.1654  0.1737  0.0978
19228W        W62145  22.012   4.685   1.433 -0.1858 -0.1454 -0.1013
19229W        W62146  21.281   1.669   1.182 -0.0381 -0.0302 -0.0752
19230W        W62147  25.412   0.792  30.042 -0.0314 -0.1049  0.1068
19231W        W62148  23.488   1.773   0.478 -0.0741  0.0020 -0.2875
19232W        W62149  22.144   3.174   2.749 -0.1362 -0.0880 -0.3443
19233W        W62150  23.533   1.238   0.766 -0.1326 -0.4455  0.1414
19234W        W62151  23.434   2.320   0.652 -0.1230 -0.1229 -0.0772
19235W        W62152  22.714   5.571   3.594  0.2538  0.0108  0.1106
19236W        W62153  22.147   1.705   0.764 -0.1344 -0.1385 -0.0431
19237W        W62154  26.342   0.672  30.403 -0.0754 -0.0326  0.1260
19238W        W62155  23.819   1.471   3.099 -0.0161 -0.0343 -0.0768
19239W        W62156  24.266   1.368   2.932  0.0957 -0.0091 -0.1321
19240W        W62157  22.993   3.641   0.826  0.0207  0.2595 -0.1390
19241W        W62158  24.073   0.102   0.049 -0.0247 -0.0108 -0.1925
19242W        W62159  22.464   3.601   2.211 -0.2350 -0.2669 -0.3254
19243W        W62160  25.479   0.858   1.089  0.1526  0.0993  0.0193
19244W        W62161  21.326   3.497   3.328 -0.0354 -0.0329 -0.0249
19245W        W62162  22.349   1.613   0.163  0.1933  0.0848 -0.1303
19246W        W62163  26.134   4.670   0.662 -0.3324 -0.1142  0.0975
19247W        W62164  22.566   1.105   2.416 -0.1436  0.1192  0.2419
19248W        W62165  22.280   3.832   2.753  0.0296 -0.3002  0.0545
19249W        W62166  25.115   4.370   0.829 -0.1170 -0.2797  0.0079
19250W        W62167  23.808   1.646   1.388 -0.1640  0.0328  0.0442
19251W        W62168  23.120   1.534   0.661  0.1569 -0.2374 -0.1423
19252W        W62169  22.866   0.695   0.023 -0.0528  0.4165 -0.0206
19253W        W62170  22.631   4.460   0.281  0.0210  0.2022 -0.2450
19254W        W62171  24.556   1.996   1.229  0.1857 -0.1050 -0.0203
19255W        W62172  23.823   0.586  31.808  0.0799 -0.2588 -0.1025
19256W        W62173  24.275   1.257   3.798  0.0396  0.0024 -0.2404
19257W        W62174  24.459   1.722   3.885 -0.1936  0.0657  0.2054
19258W        W62175  23.876   1.933   0.743  0.0165  0.1328  0.3401
19259W        W62176  24.869   2.897   3.109  0.2822 -0.0099 -0.2538
19260W        W62177  21.502   1.765   0.627  0.0509  0.1082  0.1459
19261W        W62178  23.478   2.486   1.489  0.2497  0.3297  0.0499
19262W        W62179  20.826   3.146   3.428  0.0099  0.0193 -0.0465
19263W        W62180  22.126   5.797   3.995  0.0970 -0.2758 -0.0420
19264W        W62181  25.133   0.585   1.425 -0.0193  0.1477 -0.0047
19265W        W62182  21.913   1.363   1.233 -0.2517  0.1685  0.1189
19266W        W62183  23.353   0.874   4.654 -0.0828 -0.0932  0.1311
19267W        W62184  23.133   1.602   0.164 -0.1491  0.0214  0.0313
19268W        W62185  23.372   2.946   1.187  0.1377 -0.1659  0.1747
19269W        W62186  23.154   1.423   1.173  0.0356  0.0392  0.2721
19270W        W62187  23.256   0.386   1.097  0.0422 -0.0637 -0.0163
19271W        W62188  21.668   3.681   1.708  0.2983 -0.2994  0.0550
19272W        W62189  23.329   2.047   0.112  0.0934 -0.2243 -0.1537
19273W        W62190  24.322   2.691   3.897  0.1839 -0.0898 -0.0086
19274W        W62191  21.602   3.619   2.235 -0.0474  0.3363 -0.0765
19275W        W62192  24.458   1.119   1.892 -0.3883  0.1983 -0.1461
19276W        W62193  21.444   3.497   1.321  0.0238  0.0153 -0.1994
19277W        W62194  24.636   2.734   1.020  0.3342  0.3465 -0.2141
19278W        W62195  21.269   3.307  30.922  0.1032  0.0190  0.0861
19279W        W62196  23.218   0.137   1.648 -0.0008 -0.1726  0.0601
19280W        W62197  25.920   4.304   1.997  0.1217  0.0764  0.2626
19281W        W62198  22.801   2.732   2.356  0.1311  0.0975 -0.1350
19282W        W62199  24.624   2.089   2.316  0.1691 -0.2248  0.0585
19283W        W62200  21.955   0.749   3.186  0.4101 -0.1411 -0.1664
19284W        W62201  22.381   0.658   2.965 -0.0421 -0.2641 -0.2668
19285W        W62202  24.028   0.105  31.139  0.1359  0.1566 -0.0639
19286W        W62203  25.180   2.796   1.354 -0.4477 -0.0731 -0.1033
19287W        W62204  23.144   2.814   3.607 -0.0027 -0.0164 -0.1389
19288W        W62205  22.157   2.297   1.179  0.2846  0.0816 -0.4139
19289W        W62206  25.961   0.589   2.919 -0.1728  0.0448 -0.0386
19290W        W62207  22.492   2.082   0.852 -0.1477  0.0460 -0.0531
19291W        W62208  21.399   4.737   1.024  0.2167 -0.0154 -0.4374
19292W        W62209  23.113   1.998   0.847 -0.1808 -0.2181  0.0684
19293W        W62210  22.949   3.018   0.923 -0.0072 -0.0009 -0.1905
19294W        W62211  22.321   1.761   2.975 -0.3076  0.3218 -0.2144
19295W        W62212  24.156   0.233   2.238  0.1672 -0.0243 -0.3176
19296W        W62213  24.230   2.391   1.834  0.0984 -0.1311 -0.1628
19297W        W62214  22.643  34.418   2.767 -0.2476 -0.1482  0.0427
19298W        W62215  21.717   0.322   0.636 -0.1741  0.3714 -0.0219
19299W        W62216  22.831   2.074   2.208  0.0171 -0.1723 -0.0454
19300W        W62217  23.558   0.358   0.704  0.4502  0.0785  0.1783
19301W        W62218  24.043   1.218   1.608  0.3966 -0.1079  0.0269
19302W        W62219  23.507   3.420   3.005 -0.0574 -0.2221  0.0205
19303W        W62220  24.798  33.963  30.827 -0.2978  0.0870 -0.2244
19304W        W62221  26.754   4.785   0.791  0.0872 -0.3298 -0.3666
19305W        W62222  22.270   2.378   4.510 -0.0445  0.1299 -0.1063
19306W        W62223  22.770   1.198   0.738  0.2953 -0.0781 -0.1732
19307W        W62224  22.865   0.859   2.024  0.2168  0.1789  0.1464
19308W        W62225  22.391   2.388   2.336  0.0643  0.2777  0.2209
19309W        W62226  24.527   0.806   1.532  0.1734 -0.2864  0.0139
19310W        W62227  23.561   2.778   3.018 -0.1475 -0.2729  0.2158
19311W        W62228  23.660   2.927   1.584  0.0159 -0.3158 -0.0068
19312W        W62229  23.204   3.392   1.813  0.2128  0.1679  0.0157
19313W        W62230  26.007   0.474   0.367  0.0260 -0.3287 -0.0397
19314W        W62231  24.930   4.178   0.419  0.0030  0.0531  0.2217
19315W        W62232  23.779   0.379   1.961  0.0166 -0.3654 -0.2035
19316W        W62233  26.404   0.380   2.739 -0.2617  0.2506 -0.0811
19317W        W62234  25.119   3.828  31.041 -0.3662  0.4430 -0.2311
19318W        W62235  23.701   1.853   2.754  0.1151 -0.1179  0.0859
19319W        W62236  23.259  33.812   2.492 -0.0272 -0.0114 -0.3062
19320W        W62237  22.937   2.102   0.418 -0.2398 -0.0954  0.1106
19321W        W62238  20.748   0.510   3.293  0.2983  0.0263  0.5118
19322W        W62239  24.690   4.305   6.081  0.1824 -0.1612 -0.0345
19323W        W62240  23.501   1.329   2.528  0.0233 -0.0859  0.0268
19324W        W62241  22.581   0.182   1.654 -0.2812 -0.2479 -0.0973
19325W        W62242  22.271   1.236   0.486 -0.2562 -0.1566 -0.0077
19326W        W62243  23.146   2.430   2.355 -0.1436  0.2104  0.1135
19327W        W62244  26.251   3.854   2.373 -0.1635  0.3745 -0.2202
19328W        W62245  24.098   2.670  31.261 -0.2461 -0.0484  0.1654
19329W        W62246  26.859   2.384   0.507  0.0950 -0.1821 -0.1955
19330W        W62247  22.675   1.307   3.593  0.1522  0.0462  0.1364
19331W        W62248  22.003   1.520   1.711  0.1492  0.1629 -0.0356
19332W        W62249  24.530   3.272  31.588 -0.0891  0.2717  0.3176
19333W        W62250  23.624   3.108   2.030 -0.2787  0.3588 -0.1098
19334W        W62251  23.639   0.827   0.503 -0.5118  0.0831  0.3896
19335W        W62252  25.972   2.024   0.412 -0.0277 -0.0092  0.1874
19336W        W62253  24.090   0.475   0.632 -0.0366  0.3669  0.0339
19337W        W62254  23.982   0.937   3.543 -0.5992 -0.1954 -0.0355
19338W        W62255  24.723   2.374   2.917 -0.4862  0.2774 -0.2168
19339W        W62256  23.096   0.961   2.456  0.3472  0.2577 -0.1618
19340W        W62257  21.892   0.770   4.796  0.1279  0.1677  0.1487
19341W        W62258  24.459   5.332   1.274  0.2489  0.0911 -0.0478
19342W        W62259  24.702   2.031  29.922 -0.2385 -0.2007 -0.1892
19343W        W62260  23.810   2.065   1.834  0.0096 -0.0149 -0.2352
19344W        W62261  25.301   1.339   1.900 -0.3212 -0.3452 -0.0351
19345W        W62262  24.404   0.661   0.042  0.1570 -0.0112 -0.0036
19346W        W62263  21.772   2.144   4.244 -0.0672  0.3482  0.0126
19347W        W62264  24.758   0.262   2.324  0.1793  0.0621 -0.1641
19348W        W62265  22.692   1.231   0.214 -0.1086 -0.1737  0.0523
19349W        W62266  23.378   1.562   4.853  0.1101  0.0741 -0.1193
19350W        W62267  25.879   3.236  31.897 -0.1412  0.0568 -0.3266
19351W        W62268  24.203   3.027   1.636  0.0697  0.0800 -0.3047
19352W        W62269  24.586   2.708   2.175  0.5286 -0.1931  0.3488
19353W        W62270  21.273   1.962   1.559  0.0014 -0.1215 -0.2558
19354W        W62271  22.701   3.572   1.748 -0.0312 -0.0002 -0.0740
19355W        W62272  22.235   1.128  30.787 -0.0093 -0.2558 -0.0580
19356W        W62273  23.191   0.856   1.259  0.0730  0.0844 -0.0350
19357W        W62274  23.042   2.766   3.159  0.0713  0.3293 -0.1405
19358W        W62275  23.736   4.588   3.416 -0.1322  0.3549  0.2674
19359W        W62276  22.813   0.233   2.065  0.1109 -0.0630 -0.1672
19360W        W62277  25.569   2.718   0.868  0.2622 -0.1165 -0.0226
19361W        W62278  20.082   2.474   1.588 -0.1486  0.0013 -0.1658
19362W        W62279  24.096   1.328  31.145  0.1585 -0.2702 -0.1756
19363W        W62280  23.454   4.234   2.205 -0.0447 -0.1789 -0.3544
19364W        W62281  20.684   2.582   3.627  0.0818 -0.0686 -0.1085
19365W        W62282  23.023   2.998   1.547  0.0698 -0.2833  0.2013
19366W        W62283  24.939   1.587   2.229  0.0518  0.1122 -0.2253
19367W        W62284  26.237   1.759   1.770  0.1611  0.0220 -0.5259
19368W        W62285  23.398   2.418  31.429 -0.3081 -0.3241  0.0692
19369W        W62286  25.378   1.686   3.577  0.2373  0.2007 -0.1345
19370W        W62287  22.168   2.694   3.603 -0.0772  0.0378  0.2118
19371W        W62288  21.419  34.601   0.959  0.1216 -0.1882 -0.2848
19372W        W62289  24.317   4.023   3.005  0.1368  0.0680  0.1080
19373W        W62290  23.461   3.329   2.523  0.1468 -0.2365  0.1690
19374W        W62291  22.832   3.864   2.644  0.0192 -0.3258  0.1289
19375W        W62292  23.173   0.691   5.079 -0.0133 -0.0922 -0.0115
19376W        W62293  24.411   1.899   5.072 -0.0249  0.1492  0.0195
19377W        W62294  22.468   1.957   1.908  0.1434  0.3361  0.2565
19378W        W62295  21.208   0.426  31.346  0.1888 -0.0730  0.1824
19379W        W62296  24.509   1.704  29.165  0.1671  0.2042  0.0138
19380W        W62297  21.840   4.074   2.451  0.1671 -0.1908 -0.2020
19381W        W62298  21.671   1.385   2.773 -0.0567 -0.1367 -0.0655
19382W        W62299  21.822   3.287   0.870 -0.1633 -0.1958 -0.0012
19383W        W62300  24.063   2.601   1.343 -0.2995  0.0557 -0.1160
19384W        W62301  22.780   3.177   0.022  0.0368 -0.3603  0.0806
19385W        W62302  25.050   3.847   2.971  0.2037  0.1942  0.3230
19386W        W62303  24.203   3.126   0.046  0.2109 -0.2395 -0.1827
19387W        W62304  22.255   4.618   0.851  0.0501 -0.0855 -0.0605
19388W        W62305  21.771   4.432   1.059  0.0694  0.0374 -0.3210
19389W        W62306  25.464   2.276  30.417 -0.2142  0.0137  0.1436
19390W        W62307  23.735   3.570   1.697 -0.0679 -0.1617  0.1367
19391W        W62308  25.786   6.330   2.117  0.4823 -0.2966  0.3000
19392W        W62309  24.959   0.898   1.791 -0.1202 -0.0425  0.0936
19393W        W62310  23.500   1.196   1.429 -0.3019 -0.0882 -0.2541
19394W        W62311  24.059   1.063   0.670  0.0865  0.3238 -0.0322
19395W        W62312  21.065   4.146   1.860  0.2344 -0.0755 -0.3299
19396W        W62313  22.572  34.542   2.288 -0.2661 -0.0427  0.0087
19397W        W62314  25.507   1.075  30.448  0.2089 -0.0915 -0.0402
19398W        W62315  23.186   1.787   3.548 -0.0069 -0.0468  0.0058
19399W        W62316  26.451   0.784   3.727 -0.1022  0.1728 -0.1412
19400W        W62317  22.940   3.671   2.167 -0.1285 -0.0249 -0.0300
19401W        W62318  24.699   3.411  30.986  0.4131 -0.0782 -0.0540
19402W        W62319  22.142  34.082   1.458  0.0391 -0.2238  0.1392
19403W        W62320  20.581   3.459   2.466  0.2979  0.2419 -0.1035
19404W        W62321  26.706  34.271   2.143  0.0150 -0.3811  0.0473
19405W        W62322  24.688   3.382   0.849  0.0338  0.2636 -0.1816
19406W        W62323  23.023   3.145   0.462 -0.3155 -0.2863 -0.3500
19407W        W62324  22.348   0.902   0.819 -0.4861 -0.1085  0.2073
19408W        W62325  24.534   3.779   2.072 -0.1638  0.0933 -0.1840
19409W        W62326  21.000   5.353   1.704  0.0752 -0.0389 -0.3722
19410W        W62327  20.092   2.567   0.587  0.2822  0.3474  0.0970
19411W        W62328  24.612   2.714   1.578 -0.0264  0.0785 -0.2421
19412W        W62329  22.991   2.592   0.631 -0.0765  0.1396  0.1145
19413W        W62330  24.844   3.633   2.433 -0.0044  0.3490  0.3050
19414W        W62331  22.127   1.444   2.569  0.1471  0.1433 -0.2190
19415W        W62332  24.153   1.391  31.751 -0.1447  0.1471 -0.4444
19416W        W62333  23.623   2.222   2.358  0.3585  0.0559  0.1245
19417W        W62334  21.969   2.188   2.135 -0.0909  0.0362 -0.0102
19418W        W62335  22.960   2.671   0.080 -0.0192  0.0679 -0.0476
19419W        W62336  26.304   0.976   2.770  0.2873  0.0123  0.2788
19420W        W62337  26.221   0.937   0.476 -0.1754 -0.2012 -0.0188
19421W        W62338  23.503   4.453   2.729  0.3496 -0.1069  0.2945
19422W        W62339  22.582   2.808   0.391 -0.0675  0.1125  0.0509
19423W        W62340  24.473   1.240   2.394  0.3092  0.4265 -0.2274
19424W        W62341  23.030   4.278   0.536  0.1890 -0.0490  0.1757
19425W        W62342  23.510   0.990   2.893  0.3267  0.1510  0.1510
19426W        W62343  25.801   3.512   2.374  0.1722 -0.1141 -0.1748
19427W        W62344  21.476   0.867   1.989  0.2562  0.1258  0.1211
19428W        W62345  26.986   2.653  30.530 -0.0948  0.0953 -0.0175
19429W        W62346  26.341   1.155   1.928 -0.2580  0.0513 -0.0561
19430W        W62347  18.982   2.979  31.682  0.1274  0.3190 -0.1391
19431W        W62348  24.954   1.059   2.367  0.2671 -0.1388 -0.2415
19432W        W62349  25.350   4.451   1.914  0.2769  0.0698 -0.0951
19433W        W62350  24.155   2.698   3.020  0.2390  0.1182  0.2260
19434W        W62351  22.005   2.705   1.413 -0.1349  0.4882  0.0991
19435W        W62352  24.010   4.318   0.427 -0.2697 -0.2016 -0.3261
19436W        W62353  23.445   0.906  31.785  0.1582  0.2075 -0.1005
19437W        W62354  24.560   4.279   2.159 -0.0781  0.1591  0.0013
19438W        W62355  21.205   6.002   2.725  0.0248  0.1468  0.0890
19439W        W62356  26.437   0.887   1.256  0.2808  0.0629  0.2512
19440W        W62357  23.661   1.969   4.278  0.3384 -0.2000 -0.2842
19441W        W62358  20.738   2.747  30.159  0.0481 -0.1358  0.4085
19442W        W62359  24.713  34.116   1.469  0.0302  0.2675 -0.2594
19443W        W62360  23.647   5.776   2.035  0.2351 -0.1823 -0.0238
19444W        W62361  23.480   4.223   3.183 -0.0326  0.1720 -0.1265
19445W        W62362  21.562   2.623  31.449 -0.1117 -0.5368  0.0474
19446W        W62363  22.629   3.204   2.515 -0.1045 -0.3394 -0.0811
19447W        W62364  22.683   3.904   1.267 -0.0805  0.1569  0.1192
19448W        W62365  23.474   3.397  30.752 -0.0405 -0.3402 -0.1218
19449W        W62366  25.239   3.589   2.123 -0.1773 -0.1575  0.1601
19450W        W62367  23.143   0.889   0.806  0.4870 -0.0740  0.1676
19451W        W62368  24.323   3.203   2.417 -0.2450 -0.1277  0.1683
19452W        W62369  23.546   0.492   1.505 -0.0991 -0.2310  0.0045
19453W        W62370  26.190   1.751   1.005 -0.3012 -0.0073  0.0180
19454W        W62371  24.893  34.536   0.664 -0.0705 -0.3574  0.0028
19455W        W62372  22.262   2.994   1.745  0.1279 -0.3303 -0.1289
19456W        W62373  21.060   1.331  31.011  0.0359 -0.3064 -0.1286
19457W        W62374  22.679   3.646  31.893 -0.0807  0.0406 -0.0930
19458W        W62375  22.069   2.079   1.596  0.1147 -0.3324 -0.0583
19459W        W62376  23.443  34.065   2.050  0.1123  0.1872 -0.1790
19460W        W62377  23.023   3.420   2.826  0.0537  0.1582  0.1327
19461W        W62378  20.740   1.716   0.768  0.0522  0.0702  0.0464
19462W        W62379  20.827   0.908   0.666 -0.1016 -0.1546 -0.2089
19463W        W62380  24.819   4.786  31.763 -0.0411  0.0605 -0.0977
19464W        W62381  19.923  33.674   2.003  0.1726  0.3284  0.1419
19465W        W62382  22.332  34.092   2.368 -0.2015 -0.2325  0.3326
19466W        W62383  22.325   2.481   1.841 -0.1206 -0.1307  0.1076
19467W        W62384  23.887   4.552   1.418  0.4303 -0.0461 -0.2377
19468W        W62385  23.692   0.127   2.443  0.6212 -0.1390 -0.1449
19469W        W62386  24.941   3.325   3.357  0.2032 -0.1564  0.0845
19470W        W62387  21.555   3.814   0.849 -0.0377  0.1331  0.1735
19471W        W62388  23.082   1.405   2.113 -0.2298  0.0601  0.3720
19472W        W62389  23.892   0.368   3.449 -0.1167 -0.0799 -0.1203
19473W        W62390  21.199   0.807   0.289  0.0661  0.0776  0.1176
19474W        W62391  23.650  34.612   3.498  0.0132  0.0545 -0.1930
19475W        W62392  22.697   5.168  30.942  0.0730 -0.1633  0.2415
19476W        W62393  25.200   3.846  31.648 -0.1427  0.0779 -0.1684
19477W        W62394  20.845   5.620   2.913 -0.1421  0.1212 -0.0410
19478W        W62395  21.991   3.890   2.052  0.0586  0.0165 -0.0266
19479W        W62396  22.937   1.692   3.994  0.0740 -0.1149  0.0329
19480W        W62397  24.980   2.937  31.075  0.1851  0.1194  0.0934
19481W        W62398  22.211   3.645   4.055  0.3969 -0.1221 -0.3878
19482W        W62399  26.205   1.569   0.302  0.4248  0.0987  0.1076
19483W        W62400  25.370  34.583   0.772  0.0195  0.0213 -0.0184
19484W        W62401  22.595   4.885   0.031  0.1511  0.2995  0.0255
19485W        W62402  23.800   0.840   1.816 -0.1811  0.0851 -0.4017
19486W        W62403  21.152   3.175   2.932 -0.2256  0.1714 -0.0766
19487W        W62404  25.439   3.591   1.641  0.0937  0.0757 -0.0128
19488W        W62405  22.128   1.120   2.151 -0.1073  0.2338 -0.2892
19489W        W62406  24.100   2.069   2.247 -0.1212 -0.2102 -0.1431
19490W        W62407  24.135   2.097   1.434 -0.2568  0.1860 -0.2974
19491W        W62408  22.220   0.202   2.203 -0.1456 -0.0080 -0.1724
19492W        W62409  22.764   1.702   1.083 -0.1121 -0.1671 -0.0525
19493W        W62410  24.456   3.629   1.214 -0.1825 -0.2723 -0.1566
19494W        W62411  24.315   4.460   2.588  0.0819 -0.0581 -0.2213
19495W        W62412  26.229   3.080   3.066  0.2703 -0.1789  0.2222
19496W        W62413  23.380   3.302  31.949 -0.2827 -0.1103  0.1971
19497W        W62414  23.989   1.629   1.873 -0.0831 -0.0250  0.0191
19498W        W62415  22.743   5.158   1.723  0.1365  0.0935  0.1980
19499W        W62416  23.902   3.273   3.265 -0.0656  0.2862 -0.0206
19500W        W62417  22.577   4.627   2.172 -0.0853  0.1163 -0.1108
19501W        W62418  25.560   1.849   1.635  0.1438  0.2643 -0.1583
19502W        W62419  20.949  32.956   2.891  0.0092  0.0851 -0.2956
19503W        W62420  21.710   1.936   1.273 -0.2315 -0.1164 -0.2366
19504W        W62421  23.034   3.214   2.251  0.1038 -0.1365  0.1852
19505W        W62422  24.416   1.641   2.103 -0.2335  0.3661 -0.0380
19506W        W62423  22.681   0.994   1.291 -0.0991  0.0376  0.2258
19507W        W62424  24.127   0.640  31.053 -0.5022  0.3316  0.3625
19508W        W62425  21.938   3.416   3.196  0.1497  0.0545  0.0951
19509W        W62426  22.612   1.679   0.582 -0.0408  0.1448 -0.0519
19510W        W62427  21.983   2.207   5.441 -0.1550 -0.2063  0.0618
19511W        W62428  23.043   0.507   5.542  0.0181  0.0219  0.2264
19512W        W62429  23.855   0.945   5.419 -0.0188 -0.0538  0.2935
19513W        W62430  25.655   1.147   5.224  0.3682 -0.0570 -0.2504
19514W        W62431  22.585   1.468   4.261  0.4193 -0.1097  0.0988
19515W        W62432  23.855   3.097   0.774 -0.1108  0.1559  0.0732
19516W        W62433  21.469  34.069   6.995 -0.0867 -0.3981  0.1132
19517W        W62434  24.967   3.902   3.437  0.0656 -0.0222 -0.2123
19518W        W62435  26.452   3.104   6.210  0.1334  0.0334  0.0130
19519W        W62436  23.632   2.143   1.196  0.1368 -0.3249 -0.4006
19520W        W62437  22.509   1.172   8.706 -0.1184  0.1750  0.1703
19521W        W62438  23.315   2.449   5.150  0.1113 -0.0704 -0.1656
19522W        W62439  24.315  34.289   5.319  0.0128  0.1632 -0.0983
19523W        W62440  20.836  34.167   5.166 -0.0476 -0.2517  0.2442
19524W        W62441  23.427   2.792   5.534 -0.2562 -0.0928  0.2149
19525W        W62442  21.962   2.939   4.619 -0.1339  0.3162 -0.2765
19526W        W62443  22.597   0.815   7.830 -0.1703 -0.3281  0.1150
19527W        W62444  24.072   0.148   5.279  0.0827  0.2713  0.0449
19528W        W62445  20.894   2.811   4.575 -0.3653 -0.1465  0.1381
19529W        W62446  21.829   3.010   6.393  0.1948 -0.0454  0.0789
19530W        W62447  23.900   0.485   5.633 -0.2485  0.0845  0.1711
19531W        W62448  23.836   2.410   3.874 -0.0059  0.3349  0.0211
19532W        W62449  24.173   2.012   4.231 -0.0611  0.3044  0.1456
19533W        W62450  22.875   0.796   6.890 -0.1256  0.1399 -0.1078
19534W        W62451  20.318   2.721   4.693  0.1443 -0.1745  0.1275
19535W        W62452  23.807   0.149   7.665 -0.0768  0.0052  0.1127
19536W        W62453  25.559   1.441   4.044  0.1237  0.0187  0.3335
19537W        W62454  24.862   2.919   5.135 -0.0623 -0.1075  0.2987
19538W        W62455  22.616   4.705   6.015 -0.1167  0.1194 -0.1240
19539W        W62456  25.161   1.146   5.453  0.3525 -0.0249 -0.0072
19540W        W62457  20.702   1.428   4.396  0.0107  0.0603 -0.0703
19541W        W62458  20.282   2.776   2.901 -0.1315  0.2975 -0.1359
19542W        W62459  25.056   2.899   3.556 -0.1633 -0.0618 -0.0911
19543W        W62460  26.556   2.510   5.656 -0.1020 -0.1049 -0.2112
19544W        W62461  22.943   2.782   5.086 -0.0028 -0.1897 -0.2627
19545W        W62462  23.442   2.907   5.029  0.2576  0.1792  0.4825
19546W        W62463  22.692   2.113   4.674 -0.1406  0.0851  0.3069
19547W        W62464  23.092   2.764   6.138  0.0350 -0.0352 -0.2535
19548W        W62465  23.777   1.208   4.846 -0.2832  0.1383  0.0748
19549W        W62466  24.316   3.698   7.392  0.0978  0.2467 -0.2971
19550W        W62467  23.929   1.070   2.689 -0.0323 -0.0093  0.0282
19551W        W62468  22.564   3.630   4.412  0.1897  0.0483  0.1156
19552W        W62469  23.811   2.847   6.067  0.2834  0.1473 -0.0420
19553W        W62470  24.796   3.294   6.685 -0.0263 -0.2488 -0.1455
19554W        W62471  20.882   0.652   3.759  0.1579  0.0174  0.1063
19555W        W62472  26.455   2.004   5.665 -0.2465  0.0174  0.0107
19556W        W62473  23.438   4.034   4.757  0.2760 -0.3701  0.0118
19557W        W62474  25.563   2.417   3.524 -0.0144  0.0096  0.2118
19558W        W62475  24.369   1.447   4.765 -0.1399 -0.0932  0.0701
19559W        W62476  24.779   1.253   3.826  0.4153  0.1709  0.1247
19560W        W62477  24.624  34.519   5.972  0.2167  0.0450 -0.0178
19561W        W62478  22.469   4.036   5.237  0.2656 -0.2883  0.1969
19562W        W62479  21.669   2.027   6.193 -0.3446  0.0053  0.3170
19563W        W62480  23.889   3.070   4.761  0.1645 -0.1088  0.0651
19564W        W62481  25.395   2.301   1.712  0.0692 -0.1734  0.2417
19565W        W62482  24.423   1.312   6.875  0.0334 -0.0113  0.0991
19566W        W62483  21.432   2.916   4.626 -0.2059 -0.1959  0.1345
19567W        W62484  21.596   0.496   5.130  0.1271 -0.3179 -0.0023
19568W        W62485  25.477   3.943   2.674  0.1463 -0.0460  0.2329
19569W        W62486  24.471   3.647   5.287 -0.0183  0.0441  0.3909
19570W        W62487  23.455   2.808   2.368  0.2536  0.1720  0.0918
19571W        W62488  22.480   0.527   7.038  0.1086 -0.2857 -0.0928
19572W        W62489  21.256   3.119   6.255  0.0972 -0.1520  0.0415
19573W        W62490  21.879  34.478   6.743 -0.2155  0.0212 -0.0647
19574W        W62491  23.037   0.695   3.907  0.0052 -0.0806 -0.0597
19575W        W62492  26.893   3.414   4.619  0.1931  0.0531 -0.0933
19576W        W62493  21.605   2.054   3.500  0.1524  0.1158 -0.1241
19577W        W62494  22.734   3.005   3.557  0.0298  0.1446 -0.2687
19578W        W62495  24.280   2.882   4.403 -0.0158 -0.2210  0.2617
19579W        W62496  24.084   3.361   7.027  0.4254 -0.3744  0.1124
19580W        W62497  24.561   0.963   4.583  0.0251 -0.0026 -0.0249
19581W        W62498  25.813   0.497   4.397  0.0076 -0.2585 -0.1085
19582W        W62499  23.154   0.488   6.078 -0.1606 -0.0941  0.1286
19583W        W62500  21.553   3.007   3.096  0.0825  0.2357 -0.2653
19584W        W62501  22.660   2.554   3.830  0.4579 -0.1768 -0.0722
19585W        W62502  26.570   2.633   6.540 -0.2036  0.0439 -0.1795
19586W        W62503  24.584   1.838   2.847  0.2631 -0.2936 -0.1407
19587W        W62504  21.499   3.922   3.878 -0.1659  0.2077 -0.3531
19588W        W62505  24.361   0.000   6.898 -0.0631  0.0493 -0.0374
19589W        W62506  21.547   3.080   7.575 -0.1808  0.1565  0.2479
19590W        W62507  22.182   4.147   3.303  0.0648 -0.0120  0.0770
19591W        W62508  21.139   3.169   4.277  0.1767  0.1979  0.1186
19592W        W62509  22.493   3.958   3.710  0.2130 -0.1947  0.0102
19593W        W62510  21.506  33.206   6.712  0.1363  0.2011 -0.2908
19594W        W62511  22.951   3.225   4.919 -0.0795  0.0201  0.1527
19595W        W62512  24.572   1.360   4.221 -0.1513 -0.2785 -0.0028
19596W        W62513  21.697  34.384   6.129 -0.0049  0.1524  0.0257
19597W        W62514  24.565  32.910   6.289  0.1024  0.0248 -0.0111
19598W        W62515  21.450   2.924   5.396  0.0115  0.1091 -0.1637
19599W        W62516  25.512   3.616   3.102 -0.0389  0.1185 -0.1948
19600W        W62517  23.835   2.324   2.865  0.1586 -0.0171 -0.1392
19601W        W62518  24.110   1.910   2.974 -0.1893  0.0395 -0.0341
19602W        W62519  21.928   1.102   5.214  0.0096  0.2614 -0.0838
19603W        W62520  22.026   0.833   6.428  0.0743 -0.0175 -0.1134
19604W        W62521  25.165  34.062   7.606 -0.2701  0.2876 -0.3025
19605W        W62522  23.883  33.940   6.089  0.4919 -0.3291 -0.0724
19606W        W62523  25.587   2.195   5.612  0.1212  0.0076  0.0475
19607W        W62524  22.682   0.487   5.089  0.0410 -0.0607 -0.0922
19608W        W62525  23.742   2.456   4.854  0.0173  0.0313  0.0738
19609W        W62526  22.807   0.919   4.787  0.0595  0.0899 -0.0235
19610W        W62527  21.415   1.475   4.849  0.2948  0.0095 -0.1086
19611W        W62528  27.236   0.871   5.627 -0.2125 -0.0039  0.1026
19612W        W62529  25.314   4.067   3.801 -0.0910  0.0300  0.0594
19613W        W62530  25.114   4.211   6.326  0.0940  0.0859  0.4071
19614W        W62531  23.829   2.877   4.047  0.1643  0.0171  0.1934
19615W        W62532  21.628   0.509   6.773  0.0874 -0.5933  0.0089
19616W        W62533  22.714   0.358   3.139  0.0836  0.1957 -0.1375
19617W        W62534  22.539   4.954   6.640  0.2456  0.2726 -0.0399
19618W        W62535  23.183   2.470   4.674  0.0136 -0.1236 -0.1039
19619W        W62536  22.064  34.396   5.489 -0.3151 -0.1001 -0.0450
19620W        W62537  25.117   2.991   5.638  0.0058  0.1878 -0.0629
19621W        W62538  21.682   2.515   4.535 -0.0455  0.0900  0.3546
19622W        W62539  23.697   2.433   6.452  0.0095 -0.1380  0.3587
19623W        W62540  24.655  34.173   7.162  0.2548 -0.0180  0.0115
19624W        W62541  25.688   1.750   5.446 -0.1090  0.0019 -0.0191
19625W        W62542  24.965   1.608   4.104  0.0611 -0.0765  0.1379
19626W        W62543  23.598  33.710   2.876 -0.4967 -0.1167  0.0921
19627W        W62544  25.949   4.580   4.748 -0.0685  0.3391 -0.0492
19628W        W62545  20.464   3.053   4.318  0.0201 -0.0792 -0.1475
19629W        W62546  22.168   1.472   3.534 -0.3519  0.2016 -0.2343
19630W        W62547  23.328   2.215   2.773  0.0974 -0.0870  0.1497
19631W        W62548  25.481  34.002   4.006  0.1535 -0.0726  0.3153
19632W        W62549  23.079   0.462   7.849 -0.1075 -0.0183 -0.1981
19633W        W62550  26.700   1.205   6.147 -0.0141  0.0766  0.1381
19634W        W62551  22.076   1.286   4.103 -0.0293  0.1105 -0.4370
19635W        W62552  21.920   0.629   4.284  0.0039 -0.0246  0.1311
19636W        W62553  23.503   0.944   6.065 -0.2623  0.1073  0.0632
19637W        W62554  26.280   0.753   4.344 -0.0127 -0.0656  0.0261
19638W        W62555  25.466   1.618   5.934  0.1611 -0.0903  0.3171
19639W        W62556  26.456   2.769   4.114  0.0101  0.0235 -0.0509
19640W        W62557  23.178   2.054   1.442 -0.2009  0.2511 -0.0821
19641W        W62558  23.550   2.398   3.367  0.1343 -0.2417 -0.0043
19642W        W62559  20.448   2.848   5.713 -0.2119 -0.2529  0.3657
19643W        W62560  23.126   2.933   2.733  0.0586  0.0156  0.0520
19644W        W62561  22.640   3.355   5.768  0.0175  0.3245  0.1519
19645W        W62562  24.389   0.835   2.680  0.1256 -0.0450  0.4378
19646W        W62563  24.044   3.941   1.933 -0.1448 -0.0844  0.2577
19647W        W62564  22.597   1.951   3.547 -0.0355 -0.0249 -0.2217
19648W        W62565  23.777   1.408   7.135  0.0332  0.0869  0.2164
19649W        W62566  23.059   2.167   3.212 -0.5583  0.0334  0.1173
19650W        W62567  24.447   1.882   5.938 -0.1444  0.4169  0.0707
19651W        W62568  23.692   1.933   3.284 -0.0649 -0.2386  0.2722
19652W        W62569  24.298  34.183   6.723  0.1115  0.1335 -0.0642
19653W        W62570  21.723   3.897   3.363  0.3114  0.0255 -0.2262
19654W        W62571  25.116  33.617   4.868 -0.4017 -0.1802 -0.0438
19655W        W62572  23.679  33.360   7.246 -0.0995 -0.2670  0.2174
19656W        W62573  24.164   1.719   7.108  0.0524 -0.1192  0.2628
19657W        W62574  26.430   0.990   9.434 -0.1094 -0.2042  0.2408
19658W        W62575  25.745   1.041   1.964  0.0709 -0.0266  0.1923
19659W        W62576  23.560   2.905   4.464  0.1764 -0.0938 -0.3701
19660W        W62577  22.171   2.251   3.897 -0.2907  0.0158  0.0595
19661W        W62578  23.612   0.835   7.053  0.0354  0.1334 -0.2538
19662W        W62579  23.410   3.199   5.938 -0.0870 -0.2485 -0.2419
19663W        W62580  22.609   3.909   5.701 -0.3157  0.1889 -0.0389
19664W        W62581  24.460   2.882   7.435 -0.0439  0.2008 -0.0823
19665W        W62582  26.153   2.891   5.814  0.1390 -0.2034  0.1560
19666W        W62583  25.567   1.324   7.678 -0.4068 -0.1354  0.4031
19667W        W62584  23.460   1.552   3.970 -0.0405 -0.0723  0.0216
19668W        W62585  20.873   4.946   4.365  0.0070  0.0741 -0.0748
19669W        W62586  23.102   1.210   3.151 -0.3272 -0.2385  0.0431
19670W        W62587  22.083  33.534   6.039 -0.0691 -0.0112 -0.0749
19671W        W62588  26.089   2.874   4.847  0.0605 -0.0799  0.0204
19672W        W62589  20.525   4.587   2.596 -0.3004 -0.2110  0.0127
19673W        W62590  24.430   3.732   6.847  0.0805 -0.1063  0.3266
19674W        W62591  23.142   3.807   3.103 -0.2170  0.2493  0.1563
19675W        W62592  23.496  33.981   5.484 -0.2628 -0.1545  0.0245
19676W        W62593  20.787   2.478   4.197  0.3153 -0.0212 -0.1258
19677W        W62594  24.841   1.303   4.691  0.0335 -0.2583  0.3957
19678W        W62595  20.324   2.153   4.260 -0.2830  0.1748  0.1411
19679W        W62596  24.919  32.338   4.607  0.0132 -0.0146 -0.1121
19680W        W62597  27.105   2.894   2.153  0.0326  0.0134  0.0109
19681W        W62598  21.442   0.958   5.038 -0.0501  0.0375  0.3871
19682W        W62599  26.120  33.888   4.843 -0.0381  0.0674 -0.0104
19683W        W62600  21.945   4.096   3.843  0.0616  0.1057  0.2205
19684W        W62601  27.126   2.334   6.061 -0.0786  0.4775 -0.0208
19685W        W62602  23.488   0.599   3.207 -0.1654 -0.0913  0.1361
19686W        W62603  25.462   2.673   5.523 -0.0850 -0.1093  0.0134
19687W        W62604  23.208   2.257   6.170  0.1198 -0.2715  0.0355
19688W        W62605  22.484   0.983   3.894  0.0499  0.2173  0.1934
19689W        W62606  26.797   2.337   5.190  0.2620  0.2669 -0.1665
19690W        W62607  23.201   1.807   6.350 -0.0474 -0.2717  0.0108
19691W        W62608  19.949   2.939   4.098  0.0430 -0.1139 -0.0423
19692W        W62609  21.433   1.927   4.680  0.5487  0.1010  0.5576
19693W        W62610  23.961   1.657   4.659 -0.0768  0.2223 -0.0989
19694W        W62611  21.992   4.173   5.420  0.1627 -0.1640  0.0016
19695W        W62612  22.780   0.425   7.404 -0.1019 -0.0277  0.0509
19696W        W62613  25.325   0.745   5.154 -0.0706 -0.1378 -0.0267
19697W        W62614  22.208   0.521   6.066  0.0030 -0.0867  0.0975
19698W        W62615  22.847   1.009   5.393 -0.0149 -0.0872 -0.0737
19699W        W62616  24.141   2.183   6.288 -0.0661  0.0222 -0.1990
19700W        W62617  26.299   2.432   6.179  0.1534 -0.2874  0.2273
19701W        W62618  23.873   1.931   6.621 -0.1000 -0.1284 -0.2228
19702W        W62619  23.090   0.886   7.374 -0.3101  0.0818  0.4278
19703W        W62620  23.329   1.162   6.881  0.2424 -0.1613 -0.2033
19704W        W62621  24.510   3.578   3.237  0.0462 -0.2771  0.0049
19705W        W62622  24.758   2.163   6.285  0.1096 -0.0646  0.1176
19706W        W62623  22.989   1.778   1.851 -0.0153 -0.1022  0.2430
19707W        W62624  21.203   1.563   4.409 -0.2706 -0.0174 -0.0318
19708W        W62625  24.793   2.674   4.619 -0.2670 -0.1402  0.1391
19709W        W62626  23.537   1.587   6.606 -0.1971  0.0105  0.2439
19710W        W62627  21.216   2.666   5.009  0.1767 -0.3191  0.3141
19711W        W62628  24.466   2.778   5.326  0.1213  0.0222 -0.0533
19712W        W62629  22.252   4.611   5.534  0.2552  0.0516 -0.0123
19713W        W62630  25.216   1.507   2.689  0.0504  0.0784  0.0015
19714W        W62631  24.910   3.086   4.315  0.2360  0.2191  0.1570
19715W        W62632  24.729  34.302   4.977  0.4009  0.0155  0.1064
19716W        W62633  26.568  34.469   7.683  0.5190  0.1618  0.0098
19717W        W62634  24.514   1.138   3.308  0.1458  0.2417 -0.1427
19718W        W62635  24.588   1.466   6.428 -0.3542  0.0630  0.0452
19719W        W62636  21.836   1.585   7.559 -0.0011 -0.1836  0.1009
19720W        W62637  23.147   2.100   4.205 -0.2273 -0.0900  0.0458
19721W        W62638  21.801   1.028   7.368  0.1310 -0.0100 -0.0825
19722W        W62639  23.293   3.592   5.119  0.0591  0.3428 -0.1190
19723W        W62640  22.074   1.347   7.160 -0.1482  0.1186 -0.2487
19724W        W62641  23.317   1.164   5.232 -0.0629  0.0577  0.1873
19725W        W62642  22.989  34.458   4.774  0.1914 -0.0263 -0.0394
19726W        W62643  24.398   3.408   6.424 -0.1376  0.0794  0.1438
19727W        W62644  26.097   2.827   6.373 -0.0154  0.3257 -0.1861
19728W        W62645  25.738   2.947   4.451  0.0867 -0.1009 -0.3159
19729W        W62646  23.732   3.678   4.521 -0.0290 -0.0767 -0.1260
19730W        W62647  20.794   1.931   4.361 -0.1029 -0.5299  0.1318
19731W        W62648  26.269   1.247   4.671  0.3866  0.2749 -0.1455
19732W        W62649  23.506   2.072   3.779  0.1711 -0.0666  0.2340
19733W        W62650  24.300   2.587   4.801  0.3049  0.0481  0.4618
19734W        W62651  24.065  34.499   5.768  0.1377  0.0223  0.1147
19735W        W62652  24.078   3.216   3.761 -0.1522 -0.2714  0.1555
19736W        W62653  24.958   2.253   4.247 -0.3873 -0.1424  0.1006
19737W        W62654  22.502   1.700   6.925  0.0199  0.3284 -0.2201
19738W        W62655  24.438   0.908   4.068  0.4022 -0.0701 -0.0929
19739W        W62656  24.419   2.005   7.961  0.1518 -0.0974 -0.1458
19740W        W62657  21.492   0.507   5.810 -0.2915 -0.4420 -0.0807
19741W        W62658  24.791   2.695   6.065  0.0558  0.1641 -0.2299
19742W        W62659  25.136  34.549   2.983  0.0304 -0.0085 -0.0551
19743W        W62660  25.363   0.693   5.665 -0.1828 -0.0256 -0.0358
19744W        W62661  25.291   2.621   4.433  0.2088  0.1316  0.1879
19745W        W62662  25.047   0.839   4.739 -0.2104 -0.1898 -0.1014
19746W        W62663  21.986   1.404   6.253 -0.3637 -0.0946  0.0698
19747W        W62664  25.830   3.145   6.682 -0.2751 -0.4545 -0.0796
19748W        W62665  23.099   1.789   5.859 -0.0980  0.3776 -0.1852
19749W        W62666  26.476   0.785   4.811  0.4721 -0.1652 -0.0997
19750W        W62667  24.771   4.302   3.220  0.1166 -0.2961 -0.2357
19751W        W62668  24.683   2.036   5.444 -0.4866 -0.1032 -0.0068
19752W        W62669  24.125   1.835   5.524  0.2601 -0.2195  0.1420
19753W        W62670  22.808   1.461   5.571 -0.0485 -0.0193 -0.2274
19754W        W62671  22.644   1.927   6.080  0.3477  0.2816 -0.1210
19755W        W62672  22.458   1.407   4.836  0.3227  0.0236  0.1283
19756W        W62673  21.683   1.592   3.659  0.1404  0.1228  0.1722
19757W        W62674  23.990   2.767   5.130  0.0561  0.3211 -0.0677
19758W        W62675  25.419   2.153   7.457  0.1499 -0.3435 -0.1289
19759W        W62676  23.824   0.291   4.298  0.0601  0.1779  0.0679
19760W        W62677  23.670   0.054   6.152 -0.0771 -0.2888 -0.0389
19761W        W62678  23.580   3.221   3.668  0.1911 -0.0026  0.0493
19762W        W62679  24.882  34.015   4.617 -0.0924  0.0305 -0.4514
19763W        W62680  24.886   4.936   5.690 -0.0321 -0.0974  0.4516
19764W        W62681  21.676   3.778   4.367  0.2904 -0.0912 -0.0687
19765W        W62682  22.041   4.489   6.716 -0.1593  0.0683 -0.0981
19766W        W62683  24.763   0.368   6.236 -0.0125 -0.0465 -0.2683
19767W        W62684  24.271   1.272   5.320  0.0707  0.2874  0.2060
19768W        W62685  22.604   2.499   6.310  0.0904  0.2494 -0.0631
19769W        W62686  26.814   0.831   6.493 -0.1293 -0.0357 -0.0790
19770W        W62687  22.664   1.911   5.449  0.0902 -0.1154 -0.0949
19771W        W62688  23.039   0.922   5.885  0.0766 -0.1383 -0.2308
19772W        W62689  25.146   2.185   5.254 -0.3141  0.3337 -0.2517
19773W        W62690  26.140   3.166   4.105 -0.1117  0.3279  0.2475
19774W        W62691  20.997   1.304   5.178  0.1624 -0.0472 -0.0765
19775W        W62692  23.195  34.282   7.233  0.0032  0.2802 -0.0340
19776W        W62693  24.504   2.873   6.474 -0.1728 -0.0074 -0.2249
19777W        W62694  25.708   3.249   4.798  0.2652 -0.0461 -0.0362
19778W        W62695  22.566  34.290   5.693  0.1739 -0.0992 -0.4319
19779W        W62696  22.524   3.092   4.675 -0.1234 -0.2188  0.0568
19780W        W62697  21.627   1.495   7.098 -0.4862 -0.0291 -0.0785
19781W        W62698  21.058   1.170   4.685  0.0785 -0.0315 -0.1216
19782W        W62699  22.928   4.298   3.895 -0.1176  0.0985 -0.3681
19783W        W62700  22.616   2.524   3.332 -0.3512  0.1505 -0.0357
19784W        W62701  25.274   2.926   4.028  0.0573  0.1252  0.0425
19785W        W62702  23.456   3.262   4.155 -0.3816 -0.0703  0.0291
19786W        W62703  24.471   2.367   5.744 -0.1880 -0.0868 -0.2105
19787W        W62704  21.276   2.191   5.915 -0.0104 -0.1396  0.5194
19788W        W62705  20.713   3.418   4.018 -0.3570  0.2462  0.1242
19789W        W62706  25.803   5.790   1.102  0.0978 -0.2462  0.0522
19790W        W62707  21.177   3.391   3.801  0.0731 -0.2139  0.0065
19791W        W62708  26.743   2.658   6.085  0.0627  0.2487  0.0441
19792W        W62709  24.094   0.727   3.110 -0.2076  0.2155  0.1121
19793W        W62710  25.666   1.370   2.656 -0.3083  0.0922  0.1279
19794W        W62711  25.289   1.045   2.870  0.0174 -0.1231  0.1041
19795W        W62712  24.462   3.062   4.797 -0.0762 -0.1742  0.2184
19796W        W62713  22.872   0.986   6.428 -0.1221 -0.2627 -0.3585
19797W        W62714  23.404   0.972   4.185  0.1253 -0.2588 -0.3075
19798W        W62715  22.231   1.789   5.220 -0.0792  0.1415  0.2676
19799W        W62716  25.706  34.597   6.291 -0.0850  0.1266  0.2780
19800W        W62717  20.693   5.140   5.294 -0.3533 -0.0996 -0.1930
19801W        W62718  26.286   5.447   2.838  0.1048 -0.0637  0.1574
19802W        W62719  20.283   1.354   3.489  0.4239  0.1195 -0.1041
19803W        W62720  24.001   2.246   5.782  0.3274 -0.1030 -0.1998
19804W        W62721  23.999   1.166   6.226 -0.0160 -0.3861  0.1914
19805W        W62722  23.582   4.191   5.239  0.0530  0.0548  0.0566
19806W        W62723  23.626   0.544   6.269 -0.3000 -0.0671 -0.1303
19807W        W62724  22.397   4.082   4.198 -0.4708  0.1834  0.2030
19808W        W62725  21.424   3.453   5.250  0.1582 -0.2355 -0.1882
19809W        W62726  21.892   3.709   5.121  0.0688 -0.2182 -0.2154
19810W        W62727  22.347  33.949   7.213 -0.4655 -0.1698 -0.0017
19811W        W62728  25.423   2.146   4.441  0.0264 -0.1616  0.2872
19812W        W62729  24.017   2.742   5.644  0.1448  0.5312  0.1063
19813W        W62730  24.849   1.401   5.904 -0.3755  0.0462  0.3121
19814W        W62731  22.880   1.399   6.081 -0.0482  0.1540  0.2608
19815W        W62732  24.360   1.349   5.856 -0.0272  0.0826 -0.0554
19816W        W62733  24.540   3.669   4.443  0.1281 -0.1907 -0.1896
19817W        W62734  20.839   2.176   6.255  0.0098 -0.5602  0.0104
19818W        W62735  23.958   2.501   4.413 -0.2068 -0.0535 -0.0772
19819W        W62736  27.336   0.733   4.507 -0.4287 -0.0596 -0.1245
19820W        W62737  23.855   3.357   1.255 -0.1793  0.2610  0.0233
19821W        W62738  26.371   2.150   6.592  0.3429 -0.0925 -0.3684
19822W        W62739  22.420  34.245   4.845 -0.1580  0.1812 -0.2974
19823W        W62740  24.302   1.617   3.357 -0.0620 -0.3622  0.2944
19824W        W62741  22.034   2.713   4.170  0.1719  0.3617 -0.0430
19825W        W62742  22.951   2.091   5.088  0.0282 -0.2664  0.1125
19826W        W62743  24.863   3.224   6.210 -0.4629 -0.1712 -0.2320
19827W        W62744  22.404   0.495   4.595  0.0816  0.0468  0.5713
19828W        W62745  23.804   2.783   3.495 -0.2948  0.0489 -0.0550
19829W        W62746  24.746   1.518   5.406 -0.3683  0.0005  0.1370
19830W        W62747  21.128   6.934   3.059 -0.1351  0.2454 -0.4507
19831W        W62748  23.716   1.445   5.314 -0.1371  0.1716 -0.1530
19832W        W62749  24.456   3.260   4.121 -0.2453  0.1281 -0.2781
19833W        W62750  21.184   0.736   5.434  0.3076 -0.1406 -0.2019
19834W        W62751  24.200   3.186   5.229 -0.2332  0.2265  0.1093
19835W        W62752  25.914   2.990   5.386 -0.1284 -0.1527 -0.2899
19836W        W62753  24.932   1.068   4.267 -0.0887 -0.1076 -0.1646
19837W        W62754  23.566  32.486   7.138  0.0059 -0.1232  0.1032
19838W        W62755  22.650   5.951   3.997 -0.1445  0.1523 -0.0171
19839W        W62756  25.287   0.639   4.264 -0.2101  0.0378  0.0766
19840W        W62757  25.111   0.194   6.648  0.0463  0.1267 -0.0288
19841W        W62758  24.821   3.555   1.726  0.0356  0.0040 -0.2304
19842W        W62759  24.731  34.586   4.542  0.1520 -0.3243  0.2666
19843W        W62760  23.841   4.070   6.318  0.1012 -0.3468 -0.0820
19844W        W62761  21.576   2.006   5.576  0.1223  0.1977  0.0308
19845W        W62762  22.977   3.055   4.011  0.1591 -0.2383 -0.2836
19846W        W62763  22.778   2.024   6.579 -0.0831 -0.1105  0.0891
19847W        W62764  21.173   2.412   3.826 -0.2343 -0.0246  0.1182
19848W        W62765  22.179   3.385   5.896 -0.1710 -0.0500 -0.2226
19849W        W62766  26.379   3.567   3.388  0.2028 -0.3156  0.3057
19850W        W62767  26.524   1.441   5.641 -0.1315 -0.6102  0.3004
19851W        W62768  26.530   1.797   3.253 -0.2681  0.2404  0.0440
19852W        W62769  23.275   1.346   5.688  0.1526 -0.1549  0.1773
19853W        W62770  23.059   1.204   4.420 -0.2525  0.0041 -0.1646
19854W        W62771  24.336   0.094   6.307 -0.0768 -0.2451  0.0134
19855W        W62772  22.827   2.357   5.855 -0.1353  0.4363 -0.1482
19856W        W62773  21.661   1.244   3.318 -0.0989 -0.0842  0.0201
19857W        W62774  19.790   4.585   1.857  0.0878 -0.2429  0.1313
19858W        W62775  22.101   2.538   5.931 -0.0081 -0.2560 -0.1316
19859W        W62776  24.839  33.939   6.729 -0.1689 -0.1783  0.0216
19860W        W62777  24.472  33.642   6.916 -0.2343 -0.0898 -0.2198
19861W        W62778  20.523   1.326   5.041  0.0364  0.3876 -0.1489
19862W        W62779  23.428   0.751   5.576  0.0512  0.1064 -0.0860
19863W        W62780  24.637   1.821   4.530 -0.1619  0.1249 -0.1922
19864W        W62781  23.550   2.482   5.886 -0.0440  0.2397 -0.2307
19865W        W62782  22.170   0.432   5.010  0.3250  0.2318  0.0269
19866W        W62783  23.982   1.904   3.733  0.2292  0.0842 -0.1678
19867W        W62784  25.861   2.270   2.486 -0.1216 -0.0326 -0.1882
19868W        W62785  22.830   1.682   3.179 -0.0187  0.1667 -0.1656
19869W        W62786  27.155   4.393   6.273  0.1336 -0.0809  0.2131
19870W        W62787  21.949   0.926   3.702  0.0523  0.0810  0.1332
19871W        W62788  25.574   1.950   6.411  0.0534  0.2645  0.1829
19872W        W62789  22.697  33.760   7.749  0.1900  0.2092 -0.0847
19873W        W62790  23.326   0.469   2.630 -0.3246 -0.2171  0.1417
19874W        W62791  24.661   2.387   5.077 -0.0968  0.2199 -0.1085
19875W        W62792  22.862   2.392   2.769  0.3036  0.2609  0.4441
19876W        W62793  25.371   3.071   5.183 -0.0240 -0.3070  0.0360
19877W        W62794  21.299   4.115   4.390 -0.2110  0.2787 -0.1675
19878W        W62795  23.839   4.358   6.743 -0.3087  0.3244 -0.4783
19879W        W62796  21.868   0.135   5.883 -0.2366  0.0360 -0.1127
19880W        W62797  24.762   1.168   2.820  0.0864  0.1612  0.3096
19881W        W62798  24.990   3.391   7.976  0.1098 -0.0635  0.5125
19882W        W62799  25.749   1.310   4.773 -0.1648 -0.2274  0.2965
19883W        W62800  24.739   1.558   3.205  0.0304 -0.1038  0.1003
19884W        W62801  25.175   2.272   6.628  0.1966  0.0131  0.1173
19885W        W62802  23.117  34.206   5.666  0.1144 -0.2318  0.1240
19886W        W62803  22.174   2.805   5.471 -0.0672 -0.2931 -0.1773
19887W        W62804  24.185   2.329   5.246 -0.1564 -0.0307  0.0239
19888W        W62805  24.264  34.587   4.338  0.0963 -0.0633 -0.0395
19889W        W62806  24.591   2.073   3.289 -0.1309 -0.2580 -0.0623
19890W        W62807  23.197   2.789   1.982  0.0201 -0.3667 -0.1784
19891W        W62808  21.279   2.667   4.247  0.1090  0.0716 -0.2628
19892W        W62809  23.472   0.948   3.719 -0.2166  0.1132 -0.1315
19893W        W62810  24.963   0.761   5.949 -0.1073 -0.1861 -0.1885
19894W        W62811  23.391   3.366   4.685 -0.2757  0.2550  0.0018
19895W        W62812  25.775   3.117   6.132 -0.1711 -0.2806  0.2442
19896W        W62813  22.586   1.098   5.817 -0.0812  0.1426 -0.0222
19897W        W62814  25.303   3.465   2.631  0.0374 -0.0769 -0.0328
19898W        W62815  24.378   2.942   6.956 -0.3401 -0.1398  0.0208
19899W        W62816  25.215   2.503   7.105 -0.1999  0.2778  0.1985
19900W        W62817  20.671   3.935   4.018 -0.2300  0.2564 -0.1494
19901W        W62818  22.374   2.953   6.064 -0.0272  0.4164 -0.0831
19902W        W62819  21.285  34.166   7.480  0.0887 -0.3193 -0.1562
19903W        W62820  22.933   1.737   4.517 -0.0567  0.3477  0.2553
19904W        W62821  23.205   2.255   5.551 -0.1247  0.2397  0.0602
19905W        W62822  26.138   1.522   5.310  0.0081  0.0888  0.0485
19906W        W62823  23.595   0.531   7.501 -0.2917 -0.0864  0.0490
19907W        W62824  23.191   1.720   5.371 -0.1574  0.0140 -0.1613
19908W        W62825  22.105   3.816   6.060 -0.2455  0.1853 -0.0186
19909W        W62826  25.183  34.488   6.127  0.0216  0.2892 -0.1682
19910W        W62827  24.732  33.390   8.702  0.2626 -0.0638 -0.0812
19911W        W62828  24.080   0.864   8.805  0.1002 -0.1117 -0.1386
19912W        W62829  26.518   0.249   8.366  0.0814  0.1024  0.1953
19913W        W62830  28.448   1.611   8.360  0.0455  0.1123  0.1109
19914W        W62831  18.786   2.634   8.518 -0.0841 -0.2917  0.0656
19915W        W62832  22.725   3.730   6.170  0.2066 -0.0355 -0.2311
19916W        W62833  21.465   1.505   8.975  0.0586  0.0861 -0.1353
19917W        W62834  24.238   1.341   7.871  0.1898  0.2206 -0.2097
19918W        W62835  24.791   2.199   8.820  0.0236  0.4132  0.1943
19919W        W62836  25.122  33.762   8.603 -0.0162 -0.2624  0.1603
19920W        W62837  23.638  33.215   9.332  0.4296  0.2453 -0.1971
19921W        W62838  22.300  33.110   9.431 -0.1386  0.1341  0.3761
19922W        W62839  25.551  34.657   8.293  0.0721 -0.1042 -0.2364
19923W        W62840  23.040   3.061   6.675  0.2065 -0.0247  0.2776
19924W        W62841  21.806   1.304   8.638  0.1897  0.4533 -0.1945
19925W        W62842  21.908   1.765   6.609 -0.1302 -0.1307 -0.0257
19926W        W62843  24.643   2.408   8.308  0.1098  0.1367  0.2086
19927W        W62844  21.968  34.357   9.040  0.3453 -0.1109  0.2440
19928W        W62845  24.829   2.064   7.457 -0.0568  0.1789  0.2268
19929W        W62846  22.777   1.353   7.090  0.0230  0.2364  0.2689
19930W        W62847  21.708   0.946   8.212 -0.2695  0.0126  0.0215
19931W        W62848  19.093   2.286   9.788  0.0283 -0.2402  0.1771
19932W        W62849  26.060  32.968   9.135  0.0936 -0.0311  0.1414
19933W        W62850  26.765   2.665   9.468  0.2461 -0.2371 -0.0641
19934W        W62851  24.981   1.265   8.912 -0.0249 -0.0164  0.1340
19935W        W62852  23.437   3.191   7.478 -0.2794  0.0458  0.1647
19936W        W62853  23.013   1.051   8.640 -0.0702 -0.3237 -0.2616
19937W        W62854  23.229   2.237   7.167  0.1172 -0.2056 -0.2539
19938W        W62855  22.801   2.825   8.634  0.0472 -0.2272 -0.1490
19939W        W62856  24.817   1.964   8.395  0.1103 -0.0638  0.1183
19940W        W62857  22.367   2.175   5.767  0.0644 -0.1647  0.2356
19941W        W62858  23.346   2.207   8.679 -0.3679 -0.0863 -0.2649
19942W        W62859  24.381   0.430   7.245  0.2595 -0.2373  0.1874
19943W        W62860  23.759   2.400   7.032  0.1923 -0.0170 -0.0287
19944W        W62861  23.939   2.349   9.244  0.0283 -0.0516 -0.2729
19945W        W62862  22.396   2.989   6.543 -0.0438 -0.0977 -0.0412
19946W        W62863  21.305   2.262   6.427  0.0477  0.1245 -0.2112
19947W        W62864  24.988   1.197   6.349  0.1430  0.2051  0.4139
19948W        W62865  22.901   2.791   5.648  0.1163  0.1384  0.1174
19949W        W62866  26.372   0.653   8.043  0.5255 -0.2885  0.0533
19950W        W62867  23.820  33.469   7.789 -0.0234 -0.2915  0.1251
19951W        W62868  21.418   2.449   9.093  0.2900 -0.1992  0.0497
19952W        W62869  22.684   0.232   8.466 -0.1989 -0.0500  0.0960
19953W        W62870  23.669   3.369   8.558  0.2408  0.4511 -0.0896
19954W        W62871  25.112   3.136   8.510 -0.0328 -0.0864 -0.1187
19955W        W62872  19.309   1.668   7.895  0.1640  0.3022 -0.5171
19956W        W62873  22.707   1.265   7.564  0.0951 -0.2932  0.0037
19957W        W62874  23.455   2.823   6.993  0.0352 -0.2342 -0.0247
19958W        W62875  26.242   2.717   7.674 -0.3766 -0.3192  0.1126
19959W        W62876  22.661   1.660   7.868  0.3407  0.0956 -0.1223
19960W        W62877  21.822   2.103   8.246 -0.0536 -0.1774 -0.0621
19961W        W62878  22.413  34.385   6.416  0.1471  0.2993 -0.0627
19962W        W62879  27.308   1.676   8.268  0.0447  0.1078 -0.0639
19963W        W62880  25.130   0.710   8.816 -0.0840  0.0717  0.3160
19964W        W62881  24.654   2.227   9.659  0.0552 -0.1057  0.4402
19965W        W62882  24.417   1.916   6.626 -0.1773 -0.0384 -0.1524
19966W        W62883  24.179  34.418   7.332 -0.4386  0.0403  0.0035
19967W        W62884  25.929   0.206   9.145 -0.0592  0.0995  0.0455
19968W        W62885  23.370  34.345   6.381  0.3680  0.0570  0.2031
19969W        W62886  23.372   0.392   9.687  0.2384  0.0205  0.2059
19970W        W62887  25.472   1.494   8.678 -0.2394  0.0476 -0.1547
19971W        W62888  25.474   1.639   6.805  0.2515 -0.2583 -0.1531
19972W        W62889  22.476   3.963   7.801 -0.1497 -0.2294 -0.2966
19973W        W62890  22.341   1.619   7.461  0.1704  0.0654  0.1019
19974W        W62891  22.060   3.141   9.128  0.3012  0.2231 -0.0997
19975W        W62892  22.121   2.937   7.105 -0.1493 -0.1023  0.0279
19976W        W62893  23.124   2.320   8.162  0.0240 -0.1291  0.2420
19977W        W62894  21.635   2.014   9.172 -0.3458 -0.3682  0.0955
19978W        W62895  25.246  34.647   7.871 -0.1882  0.0546  0.0117
19979W        W62896  24.875   0.210   8.747 -0.2853 -0.0137  0.0099
19980W        W62897  21.289   3.526   4.604 -0.2147  0.3688 -0.0106
19981W        W62898  24.493   2.981   9.070  0.2899  0.2510 -0.0226
19982W        W62899  25.494   1.396   6.390 -0.2292 -0.0034  0.0136
19983W        W62900  23.113   1.666   6.892  0.1840 -0.0491 -0.1355
19984W        W62901  21.178   2.816   9.404  0.0340 -0.0036 -0.2804
19985W        W62902  23.449   0.269   8.454  0.1472 -0.3551 -0.1796
19986W        W62903  22.212   0.553   8.106 -0.2439  0.0738  0.0121
19987W        W62904  21.613   0.091   5.430 -0.0750  0.2519 -0.0614
19988W        W62905  26.377   0.571   9.074 -0.2976  0.0874  0.2018
19989W        W62906  26.120   2.240   7.084 -0.0471  0.2165  0.4411
19990W        W62907  22.690   2.453   7.929  0.1552 -0.1235 -0.0055
19991W        W62908  24.597   2.881   8.401  0.1252  0.0886 -0.0165
19992W        W62909  23.494   4.264   8.586  0.0301 -0.1583  0.4595
19993W        W62910  25.521   2.283   7.977  0.0924  0.0671  0.1890
19994W        W62911  26.873   1.475   8.764  0.0324  0.1421 -0.0627
19995W        W62912  22.249   0.016   8.161  0.4120  0.0527  0.0790
19996W        W62913  21.502   4.712   9.071 -0.2812  0.0757 -0.0099
19997W        W62914  22.477   2.971   7.853 -0.2605  0.2629 -0.1871
19998W        W62915  25.030   0.858   7.659 -0.3160 -0.0905 -0.0046
19999W        W62916  27.923   2.837   8.683 -0.1235  0.0154 -0.1299
20000W        W62917  24.419   3.065   5.915  0.1286  0.2952 -0.3246
20001W        W62918  28.120   3.152   8.167  0.0486  0.1669  0.4725
20002W        W62919  25.004   1.469   8.372 -0.2161 -0.0284  0.2139
20003W        W62920  23.890  32.999   7.943  0.0949 -0.0043  0.2770
20004W        W62921  25.095   1.687   9.762  0.0731 -0.2355  0.0033
20005W        W62922  22.151   3.451   6.386 -0.0225 -0.3029  0.4973
20006W        W62923  22.232   2.209   8.527 -0.1370 -0.0630 -0.0190
20007W        W62924  23.488   0.828   8.912 -0.1025  0.1783  0.1684
20008W        W62925  24.888   1.778   7.917 -0.0357  0.1909 -0.2083
20009W        W62926  23.389   1.677   8.756 -0.0699  0.0074 -0.0030
20010W        W62927  25.342   1.284   7.159  0.0212  0.3488 -0.1442
20011W        W62928  24.786  34.103   5.757  0.4047 -0.0971  0.1356
20012W        W62929  25.680   2.085   6.905  0.1903  0.2763  0.0096
20013W        W62930  24.762   2.337   6.903  0.0464 -0.3589  0.1218
20014W        W62931  25.062   1.674   6.481  0.1071  0.2223 -0.3390
20015W        W62932  24.198   2.808   9.428 -0.2077 -0.1775  0.2050
20016W        W62933  24.105   0.394   8.242  0.0756 -0.1847 -0.0462
20017W        W62934  23.233   0.455   7.057 -0.0831  0.0862 -0.0701
20018W        W62935  24.924   1.332   6.828 -0.2212 -0.2560  0.0530
20019W        W62936  22.479  34.204   9.049 -0.2712 -0.0827  0.3450
20020W        W62937  24.049   0.684   6.804  0.0720 -0.2916 -0.1413
20021W        W62938  26.918   2.968   8.792 -0.2106  0.0728  0.0253
20022W        W62939  25.029   1.918   5.950 -0.0204 -0.0219 -0.1608
20023W        W62940  23.917   0.888   8.338 -0.1201 -0.2740 -0.1099
20024W        W62941  18.720   3.998   7.707  0.2454  0.1331 -0.0331
20025W        W62942  25.864  33.841   8.092 -0.1084 -0.0515  0.2348
20026W        W62943  24.351  31.016   8.279 -0.0813 -0.1003  0.0378
20027W        W62944  26.490   2.309   7.420  0.2591 -0.1936 -0.0501
20028W        W62945  24.022   1.351   8.306  0.3917  0.1353 -0.3974
20029W        W62946  23.219  34.492   8.621 -0.0023 -0.1440  0.1153
20030W        W62947  25.294   0.590   9.588  0.1813  0.1063  0.0120
20031W        W62948  20.282   3.428   9.280 -0.0837 -0.1909  0.0732
20032W        W62949  25.615   2.782   7.554  0.1711 -0.6663 -0.0865
20033W        W62950  25.201   1.260   7.974 -0.1153 -0.1091  0.1346
20034W        W62951  21.766   2.221   6.627  0.2084 -0.0181  0.1395
20035W        W62952  24.181   1.224   7.366 -0.2447  0.0715 -0.0400
20036W        W62953  20.973   2.287   9.288 -0.3778 -0.3249  0.3292
20037W        W62954  25.561   0.109   9.468  0.0023 -0.0005 -0.0986
20038W        W62955  22.687   1.333   8.215 -0.1792 -0.1199  0.2153
20039W        W62956  24.744  34.615   7.963  0.1286  0.1046 -0.1717
20040W        W62957  22.130   2.584   6.415  0.0269  0.1408  0.0278
20041W        W62958  25.974  34.322   8.348  0.0264 -0.0848 -0.1452
20042W        W62959  21.649   2.961  10.255 -0.1949 -0.0457 -0.0707
20043W        W62960  21.928   0.049   8.605 -0.1768 -0.4201 -0.2061
20044W        W62961  22.956   1.839   8.251  0.0419 -0.1118  0.0103
20045W        W62962  25.546   0.941   8.007 -0.1472 -0.4686 -0.4096
20046W        W62963  25.943   2.388   8.950  0.1467 -0.2123 -0.1093
20047W        W62964  22.018  34.237   8.250 -0.2422 -0.0212 -0.1439
20048W        W62965  25.730   1.476   9.755  0.0791 -0.2113  0.1856
20049W        W62966  22.701   2.361   8.470  0.0969  0.1271  0.0051
20050W        W62967  23.498  34.366   8.228 -0.1421  0.2531 -0.2838
20051W        W62968  23.284   1.397   7.316 -0.0283  0.1306 -0.1563
20052W        W62969  25.736  33.866   7.141  0.2589 -0.0612 -0.1709
20053W        W62970  25.187  32.906   9.215 -0.1101  0.0415 -0.1634
20054W        W62971  21.501   3.775   8.714 -0.3269 -0.0568  0.2329
20055W        W62972  26.332  33.224   7.523 -0.1366  0.2300 -0.2684
20056W        W62973  23.863  34.667   8.138 -0.0312 -0.1801 -0.2725
20057W        W62974  22.283   3.779   7.317  0.0953 -0.0580 -0.0069
20058W        W62975  26.474   1.401   9.123 -0.3057 -0.1057 -0.0775
20059W        W62976  24.049  34.195   8.978  0.2128 -0.1714 -0.0994
20060W        W62977  23.263  34.673   9.165  0.0695  0.2054  0.0540
20061W        W62978  23.556   1.913   7.088  0.0559 -0.0590 -0.0189
20062W        W62979  24.657   0.885   9.049 -0.2804  0.0392  0.2230
20063W        W62980  23.665  34.195   9.394 -0.0437 -0.2354 -0.1659
20064W        W62981  23.848   0.395   8.802 -0.0358  0.0385 -0.2375
20065W        W62982  26.510   2.828   9.050 -0.0448 -0.1981  0.1339
20066W        W62983  21.526   1.914   7.933 -0.2173 -0.0370  0.2086
20067W        W62984  22.431   2.152   7.564 -0.1617 -0.0927  0.1833
20068W        W62985  22.322   3.631   9.194  0.3201 -0.0675 -0.0258
20069W        W62986  26.855   1.780   9.167  0.1826  0.1234 -0.1459
20070W        W62987  23.795   1.201   9.136  0.0406  0.0599 -0.1552
20071W        W62988  23.128   4.678   5.912 -0.0619 -0.1038 -0.0065
20072W        W62989  18.848   3.924   9.082 -0.3878 -0.2262  0.1735
20073W        W62990  26.071   0.168   7.469 -0.1373  0.1204 -0.0080
20074W        W62991  24.083   2.545   7.517  0.0460  0.1695 -0.0323
20075W        W62992  24.057  33.985   7.160  0.0718  0.0320 -0.0564
20076W        W62993  25.429   1.796   7.830 -0.4334 -0.0155 -0.2641
20077W        W62994  28.203  30.145   9.276  0.2692  0.0789  0.0773
20078W        W62995  28.966   1.754   8.684  0.3731 -0.1648 -0.0057
20079W        W62996  23.203  34.383   9.628  0.0269  0.0131  0.0329
20080W        W62997  23.066   0.371   8.775  0.3699 -0.1244  0.0394
20081W        W62998  25.644  30.550   8.949 -0.3061 -0.3763  0.0416
20082W        W62999  26.574   3.162   8.583 -0.0986  0.1006 -0.1254
20083W        W63000  24.842   2.858   6.925  0.1763  0.2610  0.1231
20084W        W63001  27.415   1.697   7.255 -0.0762 -0.0315  0.0843
20085W        W63002  23.312   2.170   6.693 -0.0489  0.1389  0.2104
20086W        W63003  24.713   1.229   7.878 -0.0079  0.1835 -0.0868
20087W        W63004  27.341   2.072   9.343  0.2713  0.0069  0.2270
20088W        W63005  20.547   2.936   8.523 -0.0503 -0.2867 -0.1427
20089W        W63006  27.717   2.387   9.318 -0.2953  0.1096 -0.0881
20090W        W63007  25.207   1.997   9.251 -0.1219  0.2791 -0.0520
20091W        W63008  22.883   1.758   7.348  0.0394 -0.3606  0.0236
20092W        W63009  25.743   0.888   6.914 -0.1514 -0.5012 -0.0181
20093W        W63010  26.309   0.773   8.540 -0.1373  0.2944  0.4177
20094W        W63011  26.616   1.554   9.641 -0.2327 -0.0285  0.0629
20095W        W63012  23.930   0.961   7.833  0.3024  0.0390  0.0831
20096W        W63013  21.076   0.738   7.489 -0.3232 -0.0580  0.1181
20097W        W63014  24.810  33.632   7.279 -0.3264 -0.1597  0.2924
20098W        W63015  22.216   2.423   7.931 -0.3600  0.0241 -0.2886
20099W        W63016  23.020   3.546   6.573  0.0258  0.0883 -0.1958
20100W        W63017  24.906   0.310   7.627  0.1522  0.0495  0.0021
20101W        W63018  21.606  31.666   9.157  0.1119 -0.0910  0.1407
20102W        W63019  22.399   1.678   6.467 -0.0333 -0.1459  0.4821
20103W        W63020  25.006   2.355   5.728  0.0550 -0.2601  0.1116
20104W        W63021  25.359   1.067   8.499  0.0098  0.0120 -0.0179
20105W        W63022  22.035   0.760   6.988  0.2452 -0.1829 -0.1563
20106W        W63023  21.675   3.483   7.233  0.0679  0.2388  0.0233
20107W        W63024  24.619  33.039   9.121 -0.0309  0.2334 -0.0745
20108W        W63025  22.579   2.492   9.262 -0.0818  0.0717  0.1130
20109W        W63026  23.456   2.211   9.359 -0.1730  0.0038 -0.1544
20110W        W63027  24.638  34.413   8.916  0.0292 -0.0031  0.1113
20111W        W63028  24.704   1.740   7.033 -0.0154  0.6070  0.1624
20112W        W63029  23.147   2.642   9.428 -0.0084  0.0249 -0.2799
20113W        W63030  20.925   2.588   8.289 -0.1400  0.1635 -0.1534
20114W        W63031  27.331   1.446   9.050 -0.1156  0.0608 -0.0393
20115W        W63032  22.897   2.894   8.104  0.1541  0.0385  0.0299
20116W        W63033  23.581   3.362   6.874  0.1017  0.3716 -0.1964
20117W        W63034  23.123  34.016   6.789  0.0870 -0.1680  0.0762
20118W        W63035  23.477   2.933   6.429 -0.0378  0.1320 -0.0578
20119W        W63036  22.433   1.695   8.592  0.2105  0.2617  0.1857
20120W        W63037  23.621   1.235   8.651 -0.1189 -0.1009  0.1896
20121W        W63038  24.935   3.059   7.372 -0.2357  0.0185  0.1981
20122W        W63039  23.938   1.599   7.557  0.1879 -0.1860 -0.2702
20123W        W63040  23.993   1.771   8.010  0.2948 -0.1392 -0.0044
20124W        W63041  23.311   0.730   6.560  0.2054 -0.0866 -0.0309
20125W        W63042  22.317   4.020   8.275  0.0056 -0.0091  0.0150
20126W        W63043  20.833   2.853   7.895  0.2096  0.1416  0.0258
20127W        W63044  24.415   4.635   6.253 -0.3589  0.2083  0.3082
20128W        W63045  23.469   2.614   8.960  0.1884 -0.2152 -0.0734
20129W        W63046  25.351   1.131   5.953  0.0402  0.2081  0.1362
20130W        W63047  27.101   3.445   8.838  0.2470  0.1198 -0.0852
20131W        W63048  25.954   1.786   8.388 -0.2829 -0.0390  0.0933
20132W        W63049  21.432  33.130   8.539 -0.2247 -0.0353 -0.2987
20133W        W63050  22.828   0.342   6.769  0.0095  0.1966 -0.2485
20134W        W63051  24.497   1.646   8.279  0.0155  0.2027 -0.0292
20135W        W63052  21.256   0.103   7.379 -0.0622 -0.2903 -0.3504
20136W        W63053  23.971   1.892   9.504 -0.0939  0.2621  0.2654
20137W        W63054  24.135  31.899   9.042  0.0438 -0.0706 -0.1287
20138W        W63055  22.654   0.585   5.923 -0.0866  0.2095  0.1592
20139W        W63056  27.205  33.143   7.558 -0.1945  0.1618 -0.2400
20140W        W63057  23.514   1.059   7.605  0.1654 -0.0778 -0.1400
20141W        W63058  20.985   2.450   8.817  0.0139 -0.0472 -0.1566
20142W        W63059  24.590   3.526   9.329 -0.1874  0.2290  0.4183
20143W        W63060  23.816  34.585   8.677  0.1470  0.1125  0.0294
20144W        W63061  26.325   0.137   8.812  0.2111  0.0861  0.0590
20145W        W63062  22.112   0.821   8.622 -0.0754  0.3546  0.1179
20146W        W63063  25.292   1.447   9.272 -0.1070 -0.2305 -0.2517
20147W        W63064  25.962   2.298   7.592  0.1729  0.2128  0.0888
20148W        W63065  18.796  34.544   6.925 -0.1315 -0.2395 -0.1000
20149W        W63066  20.486   1.995   8.011  0.1611  0.4838 -0.0703
20150W        W63067  23.561   3.738   6.016 -0.1368 -0.1692 -0.1819
20151W        W63068  25.864   1.037   6.276  0.2424  0.3054  0.1593
20152W        W63069  20.341   1.788   9.620 -0.0266  0.1881 -0.1143
20153W        W63070  26.633   0.716   6.912 -0.0872 -0.0597  0.0082
20154W        W63071  22.081   2.404   7.188 -0.3961  0.1112 -0.1159
20155W        W63072  25.833   2.243   9.414 -0.1094  0.0484  0.1701
20156W        W63073  20.356   1.862   8.668  0.3118  0.0273 -0.2751
20157W        W63074  26.880   3.572   8.000 -0.2440  0.2248 -0.2699
20158W        W63075  28.713   2.925   7.607 -0.1630 -0.2165  0.1651
20159W        W63076  23.651   0.505   8.046 -0.0772 -0.1788 -0.0423
20160W        W63077  23.741   1.940   8.469 -0.1051  0.0426 -0.2539
20161W        W63078  23.418   1.890   8.143  0.0893  0.1456 -0.1073
20162W        W63079  21.208   0.438   7.908  0.1871 -0.0248  0.0880
20163W        W63080  22.012   3.122   8.143  0.1443  0.0955  0.0366
20164W        W63081  26.759   3.201   9.616 -0.0312 -0.3361 -0.3232
20165W        W63082  24.876  33.723   7.782  0.4302 -0.0924  0.0380
20166W        W63083  22.903   1.546   8.679 -0.0515  0.0718  0.2370
20167W        W63084  22.509   3.211   7.274 -0.0582  0.0525 -0.0405
20168W        W63085  24.727   0.907   8.573  0.0039 -0.0699  0.0226
20169W        W63086  24.341   1.960   9.106  0.3684 -0.1359  0.3743
20170W        W63087  24.092   3.356   8.958 -0.1994  0.2439 -0.3741
20171W        W63088  21.512   2.007   7.210 -0.1295  0.2256  0.0239
20172W        W63089  24.615   0.454   8.088 -0.1437  0.1609  0.2391
20173W        W63090  23.108   3.195   5.441 -0.3084 -0.1631  0.0780
20174W        W63091  22.939   2.972   7.195 -0.0816  0.2079 -0.0439
20175W        W63092  23.781  33.918   8.640  0.0145 -0.2034 -0.1137
20176W        W63093  22.646   2.009   9.292 -0.0114  0.1300 -0.2447
20177W        W63094  24.567   0.755   7.694  0.1913 -0.1901  0.2003
20178W        W63095  27.180  34.266   9.289 -0.1686  0.0646  0.1323
20179W        W63096  25.120  34.126   8.950 -0.2511 -0.0362 -0.1404
20180W        W63097  25.948   3.144   8.228 -0.2009  0.0333  0.2189
20181W        W63098  22.476   2.655   6.930  0.3838 -0.0373 -0.0060
20182W        W63099  22.289   2.201   6.738  0.0870  0.2450  0.3725
20183W        W63100  22.748   2.020   8.810  0.3686  0.0354 -0.0306
20184W        W63101  24.616  34.161   7.637  0.1623  0.1138 -0.2958
20185W        W63102  25.579   0.606   8.370  0.0193 -0.0494 -0.3140
20186W        W63103  22.304   2.256   9.611  0.1533 -0.0105  0.1707
20187W        W63104  24.099   0.248   9.425  0.0851 -0.2089 -0.0608
20188W        W63105  20.804   1.174   6.990 -0.1422  0.1359 -0.1517
20189W        W63106  23.592   2.611   7.494  0.2631  0.0453 -0.2786
20190W        W63107  25.171   2.552   7.621 -0.3077 -0.5657 -0.0297
20191W        W63108  25.157   2.004   7.031 -0.4440  0.0955  0.3097
20192W        W63109  22.662   2.201   7.109 -0.0909 -0.1397 -0.0136
20193W        W63110  21.347   1.612   7.559  0.2139  0.0778  0.0836
20194W        W63111  19.871   2.276   9.534  0.3724  0.2628  0.2012
20195W        W63112  25.331   1.883   8.321  0.2802  0.0755 -0.0571
20196W        W63113  23.844   3.441   7.644  0.1510 -0.2461 -0.1471
20197W        W63114  19.620   1.237   9.177  0.1311  0.0832  0.0710
20198W        W63115  23.480   0.966   8.088  0.1485 -0.0265 -0.2213
20199W        W63116  27.159   2.530   7.441  0.0677 -0.0732 -0.0251
20200W        W63117  24.356   0.901   8.163  0.1278 -0.1540 -0.0713
20201W        W63118  26.129   0.399   6.841 -0.0361  0.0245  0.1247
20202W        W63119  25.844   3.181   7.683  0.2039 -0.2366  0.3398
20203W        W63120  19.426   2.585   9.376  0.2319 -0.2047  0.0104
20204W        W63121  25.519   1.015   9.508  0.0713  0.0973  0.2925
20205W        W63122  24.850   2.840   7.926 -0.1913  0.0133  0.1280
20206W        W63123  22.331   0.048   9.012  0.0472  0.2347  0.2466
20207W        W63124  23.873   0.227   7.177  0.0229 -0.0251 -0.4615
20208W        W63125  21.605   2.426   7.815 -0.2011 -0.2164  0.1496
20209W        W63126  23.021   0.034   7.586  0.1691  0.1151 -0.1926
20210W        W63127  25.060   1.502   7.522 -0.3682 -0.2792 -0.0050
20211W        W63128  24.435   4.119   9.526 -0.1073 -0.0714  0.0339
20212W        W63129  26.421  31.420   9.246  0.3079 -0.0083  0.2237
20213W        W63130  24.528   4.224   8.499  0.0983  0.0761  0.0611
20214W        W63131  21.722   1.013   9.631 -0.0301 -0.0041 -0.0760
20215W        W63132  24.003   1.448   6.689 -0.2550  0.2040  0.3729
20216W        W63133  23.774   0.588   9.297 -0.0707  0.2627 -0.0031
20217W        W63134  25.703   0.492   9.856  0.0516  0.0756 -0.0637
20218W        W63135  23.746  32.794   8.928  0.1471 -0.3163  0.1854
20219W        W63136  24.382  32.902   7.757 -0.0224 -0.1407 -0.0678
20220W        W63137  18.203   6.914   7.900  0.1269  0.1169  0.1289
20221W        W63138  26.249   1.870   9.023 -0.2524 -0.1874 -0.2158
20222W        W63139  20.903   6.638   2.701  0.0221  0.0955  0.2014
20223W        W63140  24.179   0.772   2.197  0.0840 -0.2664 -0.3000
20224W        W63141  25.247   5.127  31.644 -0.2896 -0.0676  0.2051
20225W        W63142  24.793   6.597   0.681 -0.2114  0.1455  0.1623
20226W        W63143  20.814   4.878   1.922  0.0943 -0.3408  0.2835
20227W        W63144  23.767   6.182   0.440  0.0436 -0.0347 -0.2133
20228W        W63145  21.318   5.638   3.101  0.0283 -0.1416  0.0681
20229W        W63146  24.724   5.089   2.506  0.0483 -0.1322  0.1393
20230W        W63147  24.436   7.257   3.193 -0.0316  0.0480  0.2871
20231W        W63148  24.119   4.181  31.028  0.2611 -0.1900 -0.0314
20232W        W63149  21.716   5.913   2.667 -0.0816  0.1188  0.0305
20233W        W63150  24.894   6.282   1.572 -0.1083 -0.1020 -0.3383
20234W        W63151  25.316   1.994  31.414  0.1163 -0.3848  0.0276
20235W        W63152  21.712   5.440   1.303 -0.0610  0.0111 -0.1907
20236W        W63153  25.814   5.044   1.483  0.1528  0.4173  0.2755
20237W        W63154  22.617   5.819   0.179  0.1454  0.3579 -0.0643
20238W        W63155  21.271   7.403   2.975  0.1128 -0.1743  0.0167
20239W        W63156  22.205   4.232   1.215 -0.2176  0.0686  0.1397
20240W        W63157  26.169   6.176   2.389  0.1235  0.0823 -0.1017
20241W        W63158  21.545   4.099   2.000  0.0380  0.1141 -0.1294
20242W        W63159  23.920   4.640   2.380 -0.1447 -0.1465  0.3732
20243W        W63160  23.460   6.343   0.053 -0.1288 -0.0995  0.1366
20244W        W63161  25.198   2.967   0.078  0.2540  0.0255 -0.2300
20245W        W63162  21.029   7.124   2.613 -0.3307 -0.1206 -0.0346
20246W        W63163  22.001   5.904   5.134 -0.2959  0.0914 -0.0743
20247W        W63164  23.722   5.175   0.185 -0.0229  0.0189 -0.0293
20248W        W63165  26.187   5.810   0.824  0.1178  0.1394 -0.2408
20249W        W63166  23.824   6.848   1.472  0.0613  0.3300  0.0112
20250W        W63167  26.280   5.455   1.175 -0.0354  0.0262  0.0852
20251W        W63168  24.112   4.392   3.840  0.1342  0.2297 -0.0910
20252W        W63169  19.053   6.505   0.849  0.0706 -0.0353 -0.1743
20253W        W63170  22.192   7.685   1.957  0.0463  0.0459 -0.2592
20254W        W63171  23.765   8.674  31.531 -0.1712 -0.0518  0.1001
20255W        W63172  25.864   7.457  31.587  0.1657  0.3399 -0.1328
20256W        W63173  25.437   8.376   3.605 -0.2079  0.0473  0.1204
20257W        W63174  22.176   9.254   3.442  0.0633  0.2515 -0.0232
20258W        W63175  22.250   5.779  30.702  0.3168 -0.0478 -0.2723
20259W        W63176  24.167   7.759   2.349  0.0063  0.1245 -0.2429
20260W        W63177  21.850   6.178   4.316 -0.1380  0.1872 -0.1704
20261W        W63178  24.292   3.994   2.473  0.1925 -0.1516  0.0858
20262W        W63179  23.456   4.713   2.068 -0.2649  0.2401  0.0205
20263W        W63180  24.694   7.007   0.272  0.1038 -0.4246  0.1091
20264W        W63181  23.826   6.371   1.595 -0.1871  0.3281 -0.1883
20265W        W63182  21.986   7.218   2.565 -0.1278  0.1978 -0.2395
20266W        W63183  22.860   6.227   2.525  0.0705 -0.1826  0.1960
20267W        W63184  23.954   5.461   2.798  0.0224  0.1183  0.0616
20268W        W63185  21.897   6.090  31.564 -0.1732 -0.1518  0.0285
20269W        W63186  25.752   5.725  30.762 -0.0587  0.1685  0.0553
20270W        W63187  23.991   4.739  30.334 -0.1563  0.1319 -0.0258
20271W        W63188  24.235   5.087  31.724 -0.2024 -0.0777 -0.3312
20272W        W63189  22.521   4.506   3.450  0.0553  0.0101  0.0667
20273W        W63190  23.421   7.428   2.380 -0.0481  0.1287  0.2277
20274W        W63191  22.183   6.877   2.884  0.1065  0.1615 -0.2774
20275W        W63192  26.548   7.289   2.381 -0.1561  0.0088  0.0068
20276W        W63193  23.507   5.232   1.919 -0.2884  0.1115  0.1695
20277W        W63194  24.710   6.482   1.179  0.1755  0.0147 -0.3510
20278W        W63195  22.017   7.823   3.033 -0.1140  0.1825 -0.1642
20279W        W63196  20.550   4.640   1.245 -0.0336  0.3050  0.0279
20280W        W63197  23.953   7.396   0.672  0.0126  0.0304  0.1485
20281W        W63198  26.034   8.922   1.677  0.3374  0.1320 -0.2052
20282W        W63199  21.674   8.220   0.508 -0.0557  0.0099  0.0832
20283W        W63200  21.043   6.242   2.300  0.2479  0.0687 -0.0165
20284W        W63201  21.152   9.247   5.199 -0.4148 -0.2844  0.1080
20285W        W63202  21.891   5.759   4.666  0.0504  0.2194  0.1189
20286W        W63203  21.874   5.434   2.694 -0.1320 -0.1596  0.0004
20287W        W63204  26.135   6.311   3.844  0.1838 -0.1503  0.1857
20288W        W63205  21.696   8.406   1.437 -0.1369 -0.0743  0.1879
20289W        W63206  27.102   4.795   1.135 -0.0655  0.0843 -0.0726
20290W        W63207  24.268   3.813   0.783  0.4037  0.1122  0.2826
20291W        W63208  24.599   6.370   2.842 -0.2027 -0.1516 -0.1862
20292W        W63209  24.443   7.831  30.789  0.0412 -0.0365 -0.3296
20293W        W63210  24.622   4.270   0.773 -0.0762 -0.2970  0.0093
20294W        W63211  25.019   4.087   2.264 -0.1604  0.3238  0.0272
20295W        W63212  22.124   6.247   0.901  0.0675  0.1131 -0.0927
20296W        W63213  25.045   5.696   0.099  0.3236  0.1987  0.0513
20297W        W63214  24.472   6.170   0.699  0.1230 -0.0388  0.2452
20298W        W63215  26.031   5.283   2.023 -0.1162 -0.2486  0.0709
20299W        W63216  23.144   8.085   2.285  0.3360 -0.2298  0.0499
20300W        W63217  24.209   4.769   3.549 -0.1813  0.1305 -0.0180
20301W        W63218  21.523   5.306   3.484  0.1793 -0.1049  0.2916
20302W        W63219  20.017   6.327  30.767  0.0015 -0.0800 -0.1211
20303W        W63220  21.854   6.239   1.895 -0.2631  0.0907  0.2532
20304W        W63221  22.894   6.069   1.883  0.1435 -0.0704 -0.2682
20305W        W63222  21.215   7.405   3.499 -0.0023 -0.2719 -0.0535
20306W        W63223  23.263   4.699   3.819 -0.1762  0.0738 -0.2736
20307W        W63224  25.433   5.024   0.618  0.2572 -0.3119  0.2918
20308W        W63225  21.890   5.221   4.558 -0.0584 -0.2952  0.1024
20309W        W63226  25.400   5.296   1.277 -0.0925 -0.1323 -0.1484
20310W        W63227  24.141   5.419   0.417  0.0444 -0.0848  0.1211
20311W        W63228  23.776   7.434   1.463  0.0790 -0.2106 -0.0062
20312W        W63229  23.067   5.772   0.522 -0.1405  0.1171  0.1791
20313W        W63230  25.632   6.406   0.266  0.1093  0.0952 -0.0196
20314W        W63231  19.862   5.698   4.336 -0.2433 -0.0373 -0.3622
20315W        W63232  23.438   4.361   1.700 -0.0052 -0.0236 -0.4593
20316W        W63233  22.734   4.056   1.948 -0.0887  0.0350  0.2254
20317W        W63234  20.317   6.463   2.652  0.1200 -0.0631 -0.0528
20318W        W63235  23.690   3.747   3.970 -0.3350 -0.0744 -0.3151
20319W        W63236  23.835   3.882   0.359  0.0331  0.0162 -0.1154
20320W        W63237  26.387   5.160   0.766  0.0579 -0.0444  0.0913
20321W        W63238  24.025   3.534   2.206 -0.0312  0.0709 -0.0597
20322W        W63239  21.757   5.344   2.001 -0.1798  0.2722  0.0181
20323W        W63240  25.540   5.322   1.877  0.5193  0.0793  0.1729
20324W        W63241  24.407   5.039  31.179 -0.4372 -0.1129  0.2526
20325W        W63242  26.158   7.923   3.142  0.3553  0.1700 -0.0767
20326W        W63243  26.413   5.919   1.464  0.0075  0.0685  0.2522
20327W        W63244  20.792   5.460   2.454 -0.3968  0.1834  0.1101
20328W        W63245  24.608   5.849   1.420 -0.1247  0.0860  0.3564
20329W        W63246  21.618   6.135   3.143 -0.0507  0.1770 -0.3882
20330W        W63247  23.227   6.434   1.412 -0.1411  0.0656 -0.0684
20331W        W63248  21.768   4.709   0.635  0.1245  0.0492  0.3233
20332W        W63249  26.267   7.315   3.138  0.0276 -0.0554  0.0618
20333W        W63250  23.289   6.041   0.937  0.0053 -0.1296  0.0748
20334W        W63251  22.638   6.634   3.580 -0.0913  0.0275 -0.3528
20335W        W63252  23.429   4.516   4.876  0.0346 -0.1556  0.0650
20336W        W63253  27.121   4.479   0.440  0.2821  0.1621 -0.0573
20337W        W63254  26.753   6.791   2.272  0.0676  0.1803 -0.0328
20338W        W63255  23.917   4.433   1.958 -0.1580  0.0893 -0.2582
20339W        W63256  25.384   7.962   2.857  0.2183  0.0305  0.0782
20340W        W63257  21.377   9.903   0.080 -0.2579  0.0197  0.2424
20341W        W63258  22.238   7.257   1.605  0.0124  0.0222  0.2980
20342W        W63259  24.520   7.528   1.147 -0.1059 -0.0077  0.1656
20343W        W63260  26.664   3.649   1.730 -0.0072 -0.0337 -0.0852
20344W        W63261  20.671   4.097   3.230 -0.3344 -0.0193 -0.0213
20345W        W63262  24.382   6.462   3.746  0.2259 -0.0176 -0.0517
20346W        W63263  20.344   6.605   1.845 -0.1594  0.0755  0.0209
20347W        W63264  21.953   8.587   4.137  0.0251  0.1319  0.2489
20348W        W63265  24.339   4.437   1.695 -0.3149 -0.1835 -0.0823
20349W        W63266  25.553   5.690  31.771 -0.0057 -0.1457 -0.1925
20350W        W63267  22.937   5.164   3.273  0.0854 -0.2366  0.2283
20351W        W63268  26.375   4.313   1.007  0.0250  0.1184 -0.0820
20352W        W63269  24.891   5.542   1.202 -0.2480 -0.1732  0.1094
20353W        W63270  24.824   5.088   1.919 -0.0968 -0.1399  0.2529
20354W        W63271  21.384   6.717   4.288  0.0925  0.0145  0.1202
20355W        W63272  25.684   6.140  31.769 -0.1325 -0.3516  0.0109
20356W        W63273  23.034   5.024   2.097  0.3401 -0.2226 -0.1890
20357W        W63274  26.159   2.197  31.940  0.1287  0.4717  0.0369
20358W        W63275  24.393   5.634   0.819  0.0309  0.0032 -0.0495
20359W        W63276  22.478   6.636   0.849  0.0907 -0.1678 -0.1652
20360W        W63277  23.511   5.737   3.831  0.1611 -0.1461  0.1504
20361W        W63278  24.258   8.284   2.550  0.2340 -0.2770  0.0847
20362W        W63279  22.547   5.127   2.339  0.3389  0.0592  0.3352
20363W        W63280  24.182   5.966   0.283 -0.1617  0.1636 -0.0056
20364W        W63281  23.781   4.908   2.814 -0.2452  0.2720  0.2269
20365W        W63282  21.685   8.198  31.498 -0.1125  0.0969  0.3859
20366W        W63283  22.531   4.928   0.532  0.2457 -0.0691 -0.3960
20367W        W63284  22.790   5.508   2.168  0.3423  0.1076  0.1366
20368W        W63285  24.610   4.322   4.010 -0.0839  0.3027 -0.0919
20369W        W63286  25.836   4.587   4.193  0.2195  0.2525  0.0323
20370W        W63287  25.890   5.720   0.226 -0.2543 -0.3370  0.2891
20371W        W63288  25.410   6.109   2.287 -0.1765 -0.4455  0.0993
20372W        W63289  20.961   6.103   1.101  0.1425 -0.2315 -0.0417
20373W        W63290  23.412   4.207   4.029 -0.2628  0.0881  0.1460
20374W        W63291  23.845   6.338   2.699  0.0318 -0.0970  0.0351
20375W        W63292  21.348   8.024   2.479  0.1959  0.1521 -0.0199
20376W        W63293  25.422   6.641   2.323  0.1103  0.0176 -0.0789
20377W        W63294  25.369   4.423   0.161  0.0327 -0.1551  0.2212
20378W        W63295  23.271   3.805   4.351  0.0558  0.1761 -0.0943
20379W        W63296  24.415   4.737   1.114 -0.1393  0.1399  0.2980
20380W        W63297  22.700   8.357   1.959 -0.1365 -0.2618  0.0426
20381W        W63298  24.131   7.916  31.922  0.0348 -0.2038  0.0297
20382W        W63299  23.250   4.894   1.631  0.0508  0.0933  0.1584
20383W        W63300  22.873   5.261   2.711 -0.1209 -0.0543  0.0059
20384W        W63301  24.854   7.653   0.630 -0.2139 -0.1562  0.3152
20385W        W63302  24.317   5.875   2.078 -0.2770  0.0110  0.2228
20386W        W63303  21.057   9.367   1.660  0.0203 -0.1521 -0.3336
20387W        W63304  24.748   4.159   2.627 -0.0250 -0.2614 -0.1989
20388W        W63305  20.701   7.960   0.746 -0.1182  0.2157 -0.2039
20389W        W63306  23.231   5.019   0.055 -0.0700 -0.0507  0.4089
20390W        W63307  20.384   5.893   1.844  0.0025 -0.0762  0.2001
20391W        W63308  24.016   5.174   3.259  0.0794 -0.2356  0.0598
20392W        W63309  26.361   6.879   0.805  0.0371  0.0246 -0.0756
20393W        W63310  23.082   3.289   3.288 -0.0652 -0.1621 -0.0770
20394W        W63311  22.792   4.780   1.428  0.2114 -0.0841 -0.2987
20395W        W63312  23.028   6.602   1.799  0.4530 -0.1685  0.1264
20396W        W63313  24.039   5.496   3.723  0.0520 -0.3577  0.0689
20397W        W63314  23.999   4.863   0.415 -0.2737 -0.2998 -0.0599
20398W        W63315  25.403   5.004   4.725  0.0509 -0.1281 -0.1672
20399W        W63316  21.689   5.803   3.498  0.0635  0.0943  0.2066
20400W        W63317  21.641   4.505   2.360  0.0026  0.3332  0.3096
20401W        W63318  24.102   6.251   3.116 -0.1074  0.1416 -0.0321
20402W        W63319  22.621   4.858   2.990 -0.0385  0.1191  0.1952
20403W        W63320  22.703   6.492   2.140  0.2552 -0.0123  0.0194
20404W        W63321  24.775   7.638   1.711 -0.1687 -0.0629 -0.2748
20405W        W63322  22.646   5.678   1.704  0.2155  0.3146  0.0459
20406W        W63323  23.603   5.640   1.554  0.0521  0.1907 -0.0920
20407W        W63324  21.263   4.656   2.887 -0.1843  0.2664  0.4396
20408W        W63325  24.243   5.624   3.245  0.1672  0.0736 -0.0820
20409W        W63326  20.341   6.214   3.233  0.0655 -0.0597  0.0412
20410W        W63327  25.023   3.555   1.268  0.1541 -0.1959  0.3353
20411W        W63328  21.058   4.663   2.365 -0.3582  0.1852  0.2134
20412W        W63329  27.133   6.003   2.933 -0.1307  0.0481  0.0978
20413W        W63330  22.322   4.802   1.793 -0.1968 -0.1825 -0.0717
20414W        W63331  21.563   8.326   4.080  0.0999 -0.4184 -0.1073
20415W        W63332  23.425   3.367   0.926  0.0944 -0.1394  0.0793
20416W        W63333  25.376   7.377   0.234  0.0306  0.0038 -0.1134
20417W        W63334  24.408   5.495   2.595  0.1487 -0.1018  0.1461
20418W        W63335  23.523   6.114  31.204  0.0404  0.1243  0.2530
20419W        W63336  20.154   6.761   2.296  0.1873  0.2380 -0.5480
20420W        W63337  24.503   7.297   0.671 -0.0603 -0.3300 -0.2395
20421W        W63338  24.352   4.928   1.646  0.1005 -0.0651 -0.0150
20422W        W63339  23.307   5.339   3.652  0.1756 -0.1496  0.1767
20423W        W63340  22.423   5.936   2.170  0.0322  0.0638  0.0209
20424W        W63341  21.962   6.979   3.357 -0.1702  0.1383  0.0201
20425W        W63342  25.841   6.957  31.431 -0.3154 -0.1815 -0.1838
20426W        W63343  24.659   8.103   1.718  0.1503 -0.1406  0.0014
20427W        W63344  23.684   5.650   0.529 -0.1475 -0.3413  0.0042
20428W        W63345  25.902   5.933   3.681 -0.3748 -0.1680 -0.1500
20429W        W63346  24.869   6.106  31.532 -0.0481  0.0472  0.0486
20430W        W63347  23.955   4.427   2.903  0.0409  0.1482 -0.1384
20431W        W63348  21.615   4.826   3.737  0.0796  0.0753 -0.1289
20432W        W63349  25.268   7.553   2.196 -0.3510  0.0339  0.0034
20433W        W63350  20.397   5.323   1.935  0.2401 -0.1164 -0.1525
20434W        W63351  23.844   6.812   2.909  0.1236  0.2277  0.1291
20435W        W63352  20.914   7.943   3.730  0.2456  0.0551  0.1859
20436W        W63353  24.052   3.890   1.446  0.0931  0.1555 -0.0621
20437W        W63354  21.419   5.364   2.677  0.1035  0.0448 -0.3016
20438W        W63355  24.465   6.318   1.891 -0.1689 -0.0124 -0.0619
20439W        W63356  24.897   8.827   2.096 -0.0450  0.0360  0.2509
20440W        W63357  23.982   5.076   1.281 -0.1898 -0.1982 -0.0622
20441W        W63358  24.005   4.213   1.011  0.0639 -0.4480 -0.1600
20442W        W63359  21.384   6.573   2.664  0.1908 -0.2816 -0.0568
20443W        W63360  25.020   7.208   0.675 -0.2341 -0.0954 -0.1027
20444W        W63361  23.352   5.230   0.569 -0.0211 -0.0619  0.0202
20445W        W63362  22.985   4.807   0.500 -0.1239 -0.2889 -0.2692
20446W        W63363  21.638   5.755   1.682  0.2052 -0.0204 -0.1258
20447W        W63364  25.377   6.302   1.841 -0.2833  0.1300  0.4898
20448W        W63365  25.733   5.268   2.389 -0.0005  0.0362  0.0659
20449W        W63366  23.145   4.446   1.349 -0.2983 -0.0223 -0.0141
20450W        W63367  23.972   5.697   2.406 -0.1020 -0.0541 -0.1290
20451W        W63368  24.460   5.282   3.593 -0.1639  0.3478  0.0527
20452W        W63369  21.033   5.556   3.529  0.0595  0.0564  0.4507
20453W        W63370  21.249   8.002   3.438  0.0581 -0.0938  0.0169
20454W        W63371  25.577   4.303  30.772  0.3061 -0.1948  0.5175
20455W        W63372  26.236   5.087   2.458  0.0174 -0.1264  0.1625
20456W        W63373  24.606   7.204   1.555 -0.2362  0.2769  0.0906
20457W        W63374  24.057   5.126  28.618 -0.3861 -0.1537 -0.1696
20458W        W63375  20.865   5.489   1.216 -0.1798  0.0617 -0.1089
20459W        W63376  25.118   7.216   3.156 -0.3272  0.1311  0.0121
20460W        W63377  23.052   4.046   0.106  0.0885 -0.0247 -0.1206
20461W        W63378  24.815   3.877   4.029  0.2758 -0.0542 -0.1842
20462W        W63379  22.736   5.675  31.053 -0.0237 -0.3531  0.0216
20463W        W63380  26.359   8.031   1.787  0.1330  0.0834  0.0126
20464W        W63381  22.038   5.886   3.054 -0.0710  0.1781  0.1206
20465W        W63382  21.828   5.965   1.249  0.1170 -0.2410 -0.0082
20466W        W63383  23.098   7.840   3.580 -0.0993  0.0641  0.1438
20467W        W63384  23.742   3.829   0.914 -0.1279 -0.0239 -0.0447
20468W        W63385  26.345   4.884  31.687 -0.5669 -0.0164  0.1614
20469W        W63386  22.864   7.372   3.782  0.2958 -0.4103  0.0471
20470W        W63387  24.497   5.405   1.722 -0.0857  0.1607 -0.2597
20471W        W63388  22.555   4.165   0.714 -0.1891 -0.1082 -0.0194
20472W        W63389  24.031   5.900   1.696 -0.1814  0.2279 -0.0232
20473W        W63390  23.149   7.174   0.209  0.0218 -0.1133 -0.1213
20474W        W63391  23.298   2.264   1.869  0.1415  0.0355  0.1280
20475W        W63392  21.677   6.675   3.098 -0.2254 -0.0857 -0.0942
20476W        W63393  21.418   5.583   4.380 -0.1078  0.1767 -0.0839
20477W        W63394  23.083   5.904  31.945  0.0305  0.0081 -0.4708
20478W        W63395  24.830   3.341   2.840  0.1915 -0.4728  0.3029
20479W        W63396  24.042   5.943   0.814 -0.0721 -0.0512 -0.0875
20480W        W63397  24.414   4.684   0.563  0.0397  0.0004 -0.0833
20481W        W63398  24.826   5.961   1.975  0.1641 -0.1237 -0.1629
20482W        W63399  24.039   5.906   4.088 -0.0603  0.3188 -0.0824
20483W        W63400  21.357   6.586   1.959 -0.0050  0.0038 -0.1738
20484W        W63401  24.992   6.927   2.337  0.3514 -0.1465 -0.0248
20485W        W63402  25.478   6.770   1.288 -0.2151 -0.1862 -0.1789
20486W        W63403  21.890   5.811   2.132 -0.0443 -0.0806  0.1608
20487W        W63404  21.057   6.461   4.023  0.2088  0.0064  0.0323
20488W        W63405  23.950   4.825   4.625 -0.1696 -0.1257 -0.1926
20489W        W63406  23.995   5.368   1.726  0.0948 -0.1325 -0.1962
20490W        W63407  22.609   5.397   0.746  0.0922  0.1724 -0.3341
20491W        W63408  25.939   7.141  30.942  0.4091  0.3572 -0.2142
20492W        W63409  23.441   6.900   4.736 -0.0807  0.2860 -0.3164
20493W        W63410  22.087   7.484   3.482 -0.1068  0.1086  0.0047
20494W        W63411  24.229   7.086   2.749 -0.0646  0.0663 -0.1633
20495W        W63412  23.977   6.565   0.207 -0.1593  0.0315  0.0231
20496W        W63413  25.087   8.108   0.632 -0.0530  0.2902 -0.1946
20497W        W63414  23.850   8.486   1.788 -0.0637 -0.2045  0.0717
20498W        W63415  24.230   6.690  31.373  0.2029 -0.1581  0.1191
20499W        W63416  22.759   8.002   3.194 -0.0429  0.0500 -0.1134
20500W        W63417  21.083   7.059   0.152  0.0272  0.2414  0.0321
20501W        W63418  24.935   9.139   0.415 -0.3550 -0.1396 -0.1368
20502W        W63419  24.277   6.354   2.423 -0.0478 -0.1141 -0.2198
20503W        W63420  25.365   5.811   1.857  0.1304 -0.1213  0.0853
20504W        W63421  24.829   4.956  30.846  0.1099  0.0865 -0.1667
20505W        W63422  26.389   5.103   1.569  0.1181  0.3046  0.2555
20506W        W63423  26.200   4.796   1.196  0.0922 -0.0953  0.1945
20507W        W63424  22.071   7.209   4.207  0.0714 -0.0485  0.1102
20508W        W63425  23.840   5.212   2.377 -0.2044  0.0931  0.1912
20509W        W63426  24.582   4.457  30.894  0.1830 -0.0595 -0.1124
20510W        W63427  23.373   4.861   3.075  0.2721 -0.1787  0.1150
20511W        W63428  23.118   5.463   0.991  0.2470  0.0743 -0.1817
20512W        W63429  21.746   9.015   4.966 -0.2390 -0.0003  0.3673
20513W        W63430  26.248   8.757   0.699 -0.0616  0.1098 -0.1491
20514W        W63431  19.993   3.054  30.696  0.0234  0.1601  0.3456
20515W        W63432  22.929   4.548   1.898  0.2053  0.3809 -0.2094
20516W        W63433  22.269   5.463   2.057 -0.1166  0.2706 -0.0925
20517W        W63434  23.666   5.620  31.281  0.2332 -0.1019  0.2068
20518W        W63435  20.825   5.683   2.057 -0.1177 -0.1984  0.0638
20519W        W63436  24.839   5.988   0.992 -0.0686 -0.0850 -0.0445
20520W        W63437  22.254   5.143   2.812 -0.0883  0.0871  0.0304
20521W        W63438  24.394   6.906   2.280  0.0673  0.0082 -0.0944
20522W        W63439  19.719   5.748   1.106  0.0918 -0.2269  0.1595
20523W        W63440  25.137   4.878   1.069 -0.1206  0.0485  0.1082
20524W        W63441  23.370   5.022   2.589  0.0009 -0.0070 -0.1273
20525W        W63442  24.538   2.796   2.685 -0.1643 -0.3316 -0.1523
20526W        W63443  21.521   4.957   2.367 -0.1967 -0.0405  0.1484
20527W        W63444  27.400   5.593  30.436 -0.3209  0.0781  0.2286
20528W        W63445  22.964   5.779   2.728 -0.0388  0.1431 -0.0343
20529W        W63446  21.539   6.272   2.330  0.0628 -0.2671 -0.3316
20530W        W63447  23.084   6.198  29.259  0.0242 -0.2040 -0.0875
20531W        W63448  26.988   7.558   4.670 -0.0738 -0.0119  0.0418
20532W        W63449  23.972   6.196  31.865  0.2753  0.1063 -0.0131
20533W        W63450  22.046   6.655   4.310 -0.1942 -0.1834 -0.0624
20534W        W63451  20.799   4.762   0.337 -0.1248  0.0381 -0.1227
20535W        W63452  23.851   3.762  30.981 -0.1504 -0.2576  0.2085
20536W        W63453  22.315   4.711   2.583 -0.0563  0.0313 -0.2363
20537W        W63454  22.453   6.279   1.815  0.1725  0.3643  0.0111
20538W        W63455  24.754   4.746   2.867 -0.0426 -0.1569 -0.4803
20539W        W63456  20.914   5.056   2.727  0.0740 -0.0400 -0.1617
20540W        W63457  24.577   7.841   0.229  0.2294  0.1615  0.1495
20541W        W63458  25.909   5.205   0.911  0.1630 -0.3792 -0.1971
20542W        W63459  22.734   7.435   0.383 -0.1890  0.0169  0.1377
20543W        W63460  26.999   6.940   1.838 -0.2207 -0.2632  0.2282
20544W        W63461  26.070   7.320   2.116 -0.2161 -0.0323 -0.2475
20545W        W63462  20.629   6.020   2.455  0.0470 -0.3314 -0.1972
20546W        W63463  24.162   6.590   0.994 -0.1866  0.0890 -0.3539
20547W        W63464  27.039   6.455   3.093 -0.1506 -0.0245 -0.2263
20548W        W63465  21.684   5.676   0.547  0.0553  0.2562 -0.0000
20549W        W63466  22.262   6.800   2.288 -0.0737 -0.0114  0.0429
20550W        W63467  22.844   8.381   0.566  0.0945  0.1165  0.1508
20551W        W63468  25.098   5.638  31.560 -0.3119 -0.0575  0.0063
20552W        W63469  25.058   5.142   3.156  0.2436 -0.0767 -0.0971
20553W        W63470  23.217   8.080   0.933  0.0814 -0.0902 -0.1313
20554W        W63471  24.099   2.379   3.373  0.0149  0.0109  0.2195
20555W        W63472  23.887   6.784   2.396 -0.3770  0.1272 -0.0305
20556W        W63473  21.880   5.384   4.018  0.3775 -0.2484  0.3642
20557W        W63474  24.370   6.774   1.485 -0.0246 -0.1195  0.0343
20558W        W63475  22.431   4.112   2.323 -0.0665 -0.1240 -0.0726
20559W        W63476  24.077   6.672   1.905  0.2844 -0.1304  0.4971
20560W        W63477  23.387   6.172   1.790 -0.1292  0.1968 -0.1300
20561W        W63478  25.419   6.820   1.781 -0.2421  0.2608 -0.4237
20562W        W63479  23.559   4.209   1.199 -0.1246 -0.2572 -0.0991
20563W        W63480  26.112   6.265   1.310 -0.0781  0.2181  0.0407
20564W        W63481  20.234   6.204   2.183 -0.1553 -0.0215  0.0759
20565W        W63482  24.323   2.975   0.544  0.1381 -0.2286 -0.1163
20566W        W63483  24.331   5.116   0.821  0.0021 -0.0083 -0.0495
20567W        W63484  22.549   6.020   2.865 -0.1269  0.3448  0.1388
20568W        W63485  22.131   5.897   1.639 -0.0194  0.2736  0.4069
20569W        W63486  22.326   6.313  31.748  0.0478 -0.1159  0.4264
20570W        W63487  23.172   5.917   2.238  0.1876 -0.0430 -0.1299
20571W        W63488  23.141   4.018   3.541 -0.2687 -0.2607  0.1415
20572W        W63489  23.183   5.517   4.471 -0.2829  0.1867  0.0056
20573W        W63490  22.668   7.489   1.816  0.1426  0.2168 -0.1377
20574W        W63491  23.490   4.782   0.451  0.0127  0.5217  0.1199
20575W        W63492  23.943   7.562  31.682  0.0825 -0.0516 -0.3972
20576W        W63493  23.228   4.672   0.933  0.1488  0.0379 -0.0203
20577W        W63494  21.450   5.164   1.629  0.0009  0.0026 -0.2346
20578W        W63495  24.848   4.991   0.667  0.0881  0.1996  0.0268
20579W        W63496  24.841   7.442   0.109  0.0447  0.0274  0.0538
20580W        W63497  22.665   5.386   1.240  0.3022  0.1220  0.0394
20581W        W63498  26.330   6.971   2.643  0.3560  0.0436 -0.1536
20582W        W63499  22.929   6.705   0.488  0.1658 -0.0404  0.1337
20583W        W63500  22.051   5.080   2.305 -0.0261  0.2053  0.0593
20584W        W63501  23.209   3.525   3.809  0.1867  0.1804 -0.1647
20585W        W63502  23.233   4.146  31.603  0.0083  0.2892  0.1826
20586W        W63503  22.330   6.361   0.456 -0.0186  0.1458  0.0343
20587W        W63504  25.271   5.719  31.047 -0.0146  0.3017 -0.0672
20588W        W63505  23.152   7.670   1.959  0.1499 -0.0027  0.1270
20589W        W63506  23.116   4.074   1.044  0.1040  0.2242 -0.3034
20590W        W63507  21.454   7.874   3.922  0.1518 -0.0241  0.2930
20591W        W63508  23.814   4.004   2.453  0.1318 -0.1600  0.1766
20592W        W63509  22.209   5.612   1.131 -0.3405 -0.1681 -0.1992
20593W        W63510  23.796   8.070   2.980 -0.1191 -0.2055  0.0257
20594W        W63511  26.031   6.824   0.416  0.0781 -0.0592  0.1115
20595W        W63512  26.625   4.664   1.383 -0.2563  0.0090  0.0094
20596W        W63513  23.099   5.890   1.403  0.0505  0.1370 -0.0099
20597W        W63514  21.580   6.145   3.880 -0.5213 -0.0288  0.3354
20598W        W63515  21.497   6.984   3.413  0.2685 -0.0852 -0.1767
20599W        W63516  25.877   5.546   1.537  0.2329  0.2796 -0.1887
20600W        W63517  21.440   5.653   3.866 -0.0310  0.2294  0.1164
20601W        W63518  24.465   4.163   0.286  0.3504  0.0164 -0.0475
20602W        W63519  24.921   7.289  30.291 -0.1103 -0.2627 -0.1417
20603W        W63520  21.923   7.313   3.025  0.2503  0.0307 -0.0028
20604W        W63521  24.456   4.194   1.231  0.0723 -0.0561  0.2732
20605W        W63522  23.046   4.578   3.374 -0.4691 -0.2045  0.1412
20606W        W63523  24.692   6.992   1.004  0.0162 -0.1030 -0.1194
20607W        W63524  24.641   4.801   3.876  0.0039  0.4480 -0.0828
20608W        W63525  22.291   5.292   1.575  0.0109  0.1920 -0.0045
20609W        W63526  24.404   5.871  31.652 -0.2594 -0.1471 -0.2065
20610W        W63527  23.793   6.344   2.134  0.1073  0.0566 -0.3061
20611W        W63528  24.034   7.803   3.342  0.0403  0.1729  0.2177
20612W        W63529  25.284   7.371   2.724 -0.1980  0.2511 -0.0828
20613W        W63530  25.814   5.798   2.133 -0.1250  0.0242  0.4082
20614W        W63531  22.015   3.572   2.481  0.3505 -0.2609 -0.2045
20615W        W63532  23.486   5.040   1.156  0.1529 -0.0149  0.0272
20616W        W63533  21.867   6.449   2.736  0.3445  0.0140 -0.1370
20617W        W63534  24.770   4.548   1.351 -0.1746 -0.1298 -0.1841
20618W        W63535  19.671   5.658   2.161 -0.0460  0.1161  0.0877
20619W        W63536  24.095   2.597   2.383  0.0548 -0.2960 -0.4820
20620W        W63537  23.524   7.218   2.909 -0.2754 -0.0957 -0.2752
20621W        W63538  25.634   6.336   1.119  0.0070 -0.0288  0.3880
20622W        W63539  23.376   5.770   6.415  0.1140  0.0916 -0.0046
20623W        W63540  20.763   3.596   3.207  0.2155 -0.2415  0.1985
20624W        W63541  23.718   6.498   1.109  0.0702  0.0112  0.0130
20625W        W63542  27.098   5.008   4.699  0.0695  0.0506  0.1497
20626W        W63543  22.157   5.610   6.353  0.1083 -0.0781 -0.0876
20627W        W63544  23.473   6.389   3.781  0.0568 -0.2706  0.0110
20628W        W63545  22.307   2.230   5.040  0.0091 -0.3957  0.0013
20629W        W63546  23.892   5.352   5.846  0.1716  0.2238 -0.1801
20630W        W63547  24.239   5.474   5.398 -0.0503  0.0265 -0.0239
20631W        W63548  23.402   6.412   4.629  0.1616  0.0027  0.2635
20632W        W63549  23.246   4.083   5.643  0.0419  0.1455 -0.0429
20633W        W63550  22.841   6.299   4.606  0.0666 -0.1863  0.0534
20634W        W63551  21.808   4.741   1.940  0.3306  0.3767 -0.0428
20635W        W63552  20.293   3.411   4.638 -0.0409 -0.1464  0.1362
20636W        W63553  24.788   5.207   4.936  0.0999 -0.0953 -0.0282
20637W        W63554  21.504   7.835   4.499  0.1791 -0.0508 -0.3389
20638W        W63555  21.259   3.789   7.301  0.1835 -0.0852  0.0551
20639W        W63556  22.963   4.160   4.446 -0.0505 -0.2098 -0.1783
20640W        W63557  22.789   5.585   7.055  0.1160 -0.0227 -0.2237
20641W        W63558  23.453   3.915   6.740 -0.0436 -0.2639 -0.5939
20642W        W63559  23.977   2.306   7.935  0.0088 -0.5355 -0.2320
20643W        W63560  21.863   6.645   5.604  0.1753 -0.1535 -0.2513
20644W        W63561  21.487   5.030   5.031  0.1261  0.3556 -0.2686
20645W        W63562  22.086   5.992   6.056  0.1441  0.2705  0.2522
20646W        W63563  21.282   4.098   8.345  0.1062 -0.1315 -0.1228
20647W        W63564  24.124   4.655   7.224 -0.1618  0.2032  0.0526
20648W        W63565  24.861   5.596   3.502  0.0802  0.1108 -0.0102
20649W        W63566  21.688   8.637   6.823 -0.0354 -0.0134  0.0894
20650W        W63567  23.402   4.342   6.123 -0.1453 -0.1750 -0.2890
20651W        W63568  24.313   4.611   4.888 -0.1760 -0.1212 -0.2117
20652W        W63569  21.274   7.117   3.941  0.1106  0.0676 -0.0120
20653W        W63570  22.948   5.894   4.934 -0.0146  0.0509  0.3206
20654W        W63571  23.449   4.461   4.396  0.1858 -0.0637 -0.1998
20655W        W63572  23.405   5.497   2.434 -0.1343 -0.0553  0.2812
20656W        W63573  25.832   5.472   6.937  0.2702  0.1112  0.0024
20657W        W63574  24.661   8.600   5.437  0.2258  0.0938 -0.0904
20658W        W63575  22.114   6.291   3.925 -0.0637 -0.1990 -0.0627
20659W        W63576  24.914   5.360   7.472  0.1011 -0.3622 -0.1714
20660W        W63577  22.779   5.064   7.096  0.0757 -0.0946 -0.0834
20661W        W63578  23.663   4.793   7.327 -0.0347  0.0421  0.0209
20662W        W63579  21.962   4.161   4.909 -0.1747  0.3148 -0.1623
20663W        W63580  24.946   6.755   4.431 -0.0747 -0.1094  0.2288
20664W        W63581  22.783   6.924   5.329 -0.0943 -0.1104  0.0139
20665W        W63582  23.961   5.080   6.391  0.1534 -0.0066 -0.1754
20666W        W63583  20.677   7.127   5.372  0.1817  0.0650 -0.0821
20667W        W63584  25.798   5.316   5.333  0.0586  0.0130 -0.0382
20668W        W63585  23.079   7.579   4.642 -0.3423 -0.3115 -0.1546
20669W        W63586  23.911   5.804   5.171 -0.0893 -0.0982  0.1248
20670W        W63587  23.799   4.699   4.114  0.0102 -0.3675  0.1459
20671W        W63588  23.704   5.014   3.599 -0.1008 -0.0914 -0.0184
20672W        W63589  22.550   4.360   6.373 -0.1802 -0.2029 -0.1617
20673W        W63590  23.269   6.962   5.226 -0.3738 -0.4143 -0.2555
20674W        W63591  23.812   3.817   5.020  0.4225 -0.2225 -0.0368
20675W        W63592  27.205   5.766   6.911 -0.2504 -0.0472 -0.1715
20676W        W63593  24.864   4.589   5.252  0.1049  0.0051  0.0784
20677W        W63594  24.251   5.944   5.521  0.1551 -0.0307  0.0222
20678W        W63595  23.356   5.940   6.968 -0.0790 -0.2725 -0.2559
20679W        W63596  21.712   5.306   6.265 -0.0019 -0.0150 -0.0002
20680W        W63597  25.200   7.079   3.639 -0.1431  0.1343  0.2713
20681W        W63598  24.363   8.749   5.095 -0.0041  0.3130  0.1013
20682W        W63599  24.049   5.373   4.389 -0.0487 -0.1125 -0.0179
20683W        W63600  21.206   4.832   3.424  0.0299 -0.0535  0.4173
20684W        W63601  23.656   5.350   8.199 -0.4084 -0.0124  0.1050
20685W        W63602  21.522   6.741   6.735  0.1417 -0.1338  0.1432
20686W        W63603  22.234   4.988   4.274  0.3098 -0.3917  0.0150
20687W        W63604  27.159   5.777   5.300  0.2369  0.0857  0.4147
20688W        W63605  23.815   5.950   6.706  0.0979 -0.1810 -0.1142
20689W        W63606  24.959   4.724   4.731 -0.0474 -0.1297 -0.0694
20690W        W63607  21.371   5.822   6.747 -0.0895  0.0449  0.0458
20691W        W63608  24.765   5.241   6.036  0.0278 -0.0312  0.0678
20692W        W63609  25.036   8.149   3.501  0.3825  0.1161 -0.0189
20693W        W63610  25.351   2.308   6.141  0.3477  0.0254 -0.0718
20694W        W63611  25.286   2.807   6.097 -0.0185 -0.0062  0.3390
20695W        W63612  22.476   8.713   2.741  0.0575 -0.1737 -0.0280
20696W        W63613  22.154   6.391   5.224 -0.3978 -0.0333 -0.1939
20697W        W63614  26.965   8.016   4.528  0.0726  0.0287  0.1604
20698W        W63615  25.862   5.117   2.845  0.1633  0.5092  0.1152
20699W        W63616  20.869   8.717   4.424  0.1252 -0.1806  0.0529
20700W        W63617  22.902   5.994   7.342 -0.0588  0.2563  0.0196
20701W        W63618  24.594   6.061   4.615 -0.0477 -0.1102 -0.1647
20702W        W63619  22.725   8.055   3.814  0.0101 -0.1820 -0.1227
20703W        W63620  21.102   8.054   4.211 -0.0018  0.2108  0.0165
20704W        W63621  22.033   6.869   4.961 -0.0204 -0.0385  0.4028
20705W        W63622  23.169   4.943   6.821  0.0222  0.1888 -0.0592
20706W        W63623  22.527   6.163   6.981  0.0803 -0.1547 -0.1219
20707W        W63624  24.488   3.037   3.510 -0.2761 -0.3781 -0.0077
20708W        W63625  23.035   3.278   7.813 -0.2267 -0.2718  0.0805
20709W        W63626  27.130   2.545   6.540  0.0129 -0.0895 -0.0847
20710W        W63627  20.933   6.922   3.609 -0.0469  0.1882 -0.1044
20711W        W63628  25.328   5.550   2.284 -0.1271 -0.1599 -0.2181
20712W        W63629  26.183   6.232   1.856 -0.0094  0.4409 -0.0447
20713W        W63630  22.838   5.052   3.840  0.0348 -0.1080  0.0511
20714W        W63631  20.494   5.450   7.042 -0.3362 -0.0952  0.1961
20715W        W63632  22.901   4.753   2.544  0.2287 -0.0020  0.3385
20716W        W63633  21.657   6.297   7.717 -0.1722  0.1002 -0.1189
20717W        W63634  21.647   3.956   7.039 -0.0802 -0.4078 -0.0098
20718W        W63635  25.412   3.910   5.248 -0.1803  0.0038  0.0219
20719W        W63636  22.179   3.659   3.525  0.0732  0.0559  0.0856
20720W        W63637  24.741   4.174   4.457  0.1644 -0.0729 -0.1583
20721W        W63638  22.742   4.992   5.078  0.0733  0.0826 -0.4122
20722W        W63639  20.527   6.545   6.181  0.3619 -0.0707  0.1999
20723W        W63640  27.056   5.665   5.820 -0.0185  0.0236 -0.1533
20724W        W63641  22.931   7.028   3.434 -0.1929  0.0724 -0.1616
20725W        W63642  26.306   6.668   6.012  0.1455 -0.1970 -0.2135
20726W        W63643  25.620   6.079   3.141 -0.2160  0.1196 -0.0133
20727W        W63644  22.447   4.263   6.877 -0.1231  0.1508  0.0018
20728W        W63645  21.941   4.511   3.575 -0.0349  0.0546 -0.0049
20729W        W63646  22.486   8.508   3.794  0.0835  0.0522  0.1043
20730W        W63647  23.257   6.689   5.949  0.1522  0.0657 -0.2906
20731W        W63648  23.275   5.070   4.190  0.0129 -0.2729 -0.2831
20732W        W63649  24.933   6.262   5.006 -0.0164 -0.1040 -0.2300
20733W        W63650  21.491   4.520   1.484  0.0768  0.1994 -0.2467
20734W        W63651  22.481   6.605   4.915 -0.1101  0.1320 -0.2314
20735W        W63652  25.153   3.639   6.397  0.1974  0.2692  0.2913
20736W        W63653  25.032   4.961   3.675  0.0346 -0.1349 -0.0380
20737W        W63654  22.675   4.881   5.562  0.0706 -0.1749 -0.0965
20738W        W63655  23.098   5.894   3.647  0.2895 -0.0550 -0.1058
20739W        W63656  25.396   8.896   2.916  0.2562  0.4629  0.1612
20740W        W63657  22.498   5.070   3.506  0.0902 -0.0308  0.0406
20741W        W63658  18.570   6.269   4.827 -0.0868 -0.1566 -0.3281
20742W        W63659  23.074   6.615   4.968  0.1135 -0.0326 -0.3041
20743W        W63660  23.980   3.303   4.328 -0.1638 -0.0732  0.2371
20744W        W63661  20.980   3.113   8.310 -0.1968  0.0277  0.3539
20745W        W63662  24.207   4.157   5.848  0.1344  0.1884 -0.3789
20746W        W63663  22.374   6.085   4.388  0.0296 -0.0115  0.3404
20747W        W63664  23.055   6.182   8.187  0.1935 -0.1797 -0.2552
20748W        W63665  23.744   1.902   5.147 -0.2195  0.0539 -0.3240
20749W        W63666  24.777   5.358   4.003 -0.0602  0.0705 -0.1623
20750W        W63667  25.383   4.728   7.096  0.2387  0.1299  0.0121
20751W        W63668  23.428   6.052   5.210  0.2071 -0.1481 -0.0001
20752W        W63669  23.481   3.678   3.419 -0.1134  0.1678 -0.2663
20753W        W63670  23.046   5.339   4.889  0.0766 -0.2191 -0.1024
20754W        W63671  23.436   7.167   5.882 -0.4489  0.1432 -0.0905
20755W        W63672  21.257   5.172   5.454  0.4142  0.3680  0.0213
20756W        W63673  23.559   6.562   5.083  0.0241 -0.1952  0.2312
20757W        W63674  22.194   4.697   3.124  0.3098  0.0540 -0.1326
20758W        W63675  25.271   6.807   4.050  0.1289  0.1255  0.1664
20759W        W63676  22.441   5.253   6.193 -0.4728 -0.1031  0.0913
20760W        W63677  23.996   5.202   7.362  0.1676 -0.1345 -0.0887
20761W        W63678  23.652   5.332   4.044  0.0387  0.1559 -0.2564
20762W        W63679  21.013   3.684   5.025 -0.1168 -0.3897 -0.0208
20763W        W63680  23.949   6.583   3.581  0.0500 -0.3606  0.0842
20764W        W63681  26.569   2.598   4.667  0.1757 -0.2773  0.0270
20765W        W63682  22.472   7.954   5.933  0.0192  0.4951 -0.0230
20766W        W63683  25.215   3.067   4.723 -0.2279  0.0035 -0.2984
20767W        W63684  23.528   5.659   4.805  0.1443  0.3084  0.3982
20768W        W63685  22.042   3.807   6.852  0.0781  0.0959 -0.3113
20769W        W63686  25.125   3.956   5.864 -0.2354 -0.2923  0.1517
20770W        W63687  27.219   6.631   5.099  0.1980 -0.1339  0.3554
20771W        W63688  24.417   3.607   3.752 -0.1651 -0.0320  0.0731
20772W        W63689  19.899   4.199   2.651  0.3654  0.0540  0.0366
20773W        W63690  24.113   3.939   5.421  0.2617 -0.0648 -0.1117
20774W        W63691  22.820   6.203   5.836 -0.0018  0.1810 -0.1932
20775W        W63692  22.418   7.798   6.403 -0.0596 -0.2713 -0.0932
20776W        W63693  24.656   5.789   6.249 -0.1634 -0.3203  0.1784
20777W        W63694  27.044   3.529   4.153  0.1399  0.1915 -0.3531
20778W        W63695  24.532   3.323   7.673  0.2360 -0.2942 -0.1378
20779W        W63696  22.488   2.815   4.208  0.0028  0.1319  0.1390
20780W        W63697  22.469   6.951   4.500 -0.2353  0.4396 -0.4139
20781W        W63698  21.585   5.894   5.363 -0.0151 -0.4629  0.1171
20782W        W63699  21.826   2.704   5.008  0.2270  0.1600  0.1794
20783W        W63700  24.315   6.572   5.512  0.3991 -0.0399  0.1618
20784W        W63701  21.686   7.399   3.809  0.2350  0.2244  0.1558
20785W        W63702  24.888   6.177   7.078  0.0600  0.1475  0.0133
20786W        W63703  23.119   6.019   4.268  0.1378  0.1290 -0.0317
20787W        W63704  24.213   3.952   4.115 -0.0083  0.3380  0.1180
20788W        W63705  20.940   9.657   5.511  0.0670 -0.0843 -0.2867
20789W        W63706  21.197   5.229   4.700 -0.1360  0.1636 -0.0678
20790W        W63707  20.659   5.258   4.718  0.0529 -0.3669 -0.0160
20791W        W63708  23.065   4.861   4.722 -0.2811 -0.0754 -0.2861
20792W        W63709  25.832   5.338   4.839 -0.0798 -0.1986 -0.1285
20793W        W63710  22.944   4.106   6.701  0.2707  0.0516  0.1076
20794W        W63711  25.968   3.848   6.686 -0.0567  0.1061 -0.2881
20795W        W63712  21.803   7.016   6.410 -0.1178 -0.3202 -0.0912
20796W        W63713  23.833   4.190   4.340 -0.1439  0.0333  0.0896
20797W        W63714  24.651   4.858   3.383  0.0960  0.1197 -0.0733
20798W        W63715  24.432   6.575   7.223  0.0548  0.0226 -0.0185
20799W        W63716  24.945   3.566   7.479 -0.0563 -0.0549  0.0503
20800W        W63717  22.797   5.191   4.379 -0.1464 -0.1985 -0.2701
20801W        W63718  24.739   5.399   5.376 -0.0302  0.0306  0.0958
20802W        W63719  22.089   3.761   4.632 -0.3799 -0.5635 -0.1752
20803W        W63720  22.776   5.738   4.458  0.0906  0.0744 -0.0867
20804W        W63721  25.606   5.926   4.503 -0.0381  0.0487 -0.2402
20805W        W63722  22.405   4.545   4.487  0.1199 -0.0096 -0.3006
20806W        W63723  20.937   6.675   5.530 -0.2677  0.0978  0.0007
20807W        W63724  23.893   4.488   6.103 -0.0659 -0.2086 -0.1748
20808W        W63725  24.646   3.945   4.926 -0.1380 -0.0283 -0.2632
20809W        W63726  21.894   4.754   5.822 -0.5107  0.1613  0.0956
20810W        W63727  21.756   5.441   5.322  0.2344 -0.0832  0.0217
20811W        W63728  22.920   5.908   6.728 -0.0928 -0.1841  0.1377
20812W        W63729  23.897   6.706   4.605 -0.2340  0.3664 -0.2124
20813W        W63730  22.440   4.484   5.039 -0.2657  0.0666 -0.1967
20814W        W63731  23.948   7.493   8.413  0.1786  0.0141 -0.0546
20815W        W63732  23.932   4.846   5.677  0.3369 -0.2034 -0.0984
20816W        W63733  23.636   6.241   4.200  0.2455 -0.2494 -0.2172
20817W        W63734  23.836   3.967   7.708 -0.1521  0.0051  0.1218
20818W        W63735  22.165   4.323   1.873  0.0337  0.2870  0.2980
20819W        W63736  20.393   5.086   4.195  0.2226  0.1599 -0.0575
20820W        W63737  24.045   5.273   4.943  0.3153 -0.3495  0.0047
20821W        W63738  23.701   2.300   5.387  0.0900  0.3789  0.0209
20822W        W63739  22.782   6.688   5.823 -0.0779 -0.0654  0.2312
20823W        W63740  23.718   4.148   5.765 -0.0238 -0.0822 -0.0127
20824W        W63741  20.148   5.636   8.445 -0.0440  0.0431  0.2477
20825W        W63742  23.568   1.894   5.668  0.4416 -0.0338 -0.0319
20826W        W63743  24.335   6.648   3.234  0.2686 -0.1161 -0.0293
20827W        W63744  21.967   3.325   4.349  0.1908  0.0913 -0.3363
20828W        W63745  25.104   3.356   7.043  0.2447 -0.0615  0.0772
20829W        W63746  25.392   4.972   2.743 -0.1573  0.1064  0.2576
20830W        W63747  25.346   3.147   6.488  0.0348 -0.0817 -0.0565
20831W        W63748  21.222   4.654   4.391 -0.2219 -0.1760  0.1130
20832W        W63749  25.346   8.046   5.166 -0.0639 -0.2424  0.3121
20833W        W63750  20.728   6.467   7.958  0.0697  0.0429 -0.1843
20834W        W63751  24.666   6.903   5.770  0.2002  0.0108 -0.3421
20835W        W63752  23.387   5.546   5.923 -0.0006  0.0750 -0.0664
20836W        W63753  23.786   3.195   5.613  0.0259 -0.3090 -0.0713
20837W        W63754  25.142   4.979   6.730  0.0620 -0.0253  0.2282
20838W        W63755  22.539   5.482   4.886  0.0512 -0.0014 -0.0758
20839W        W63756  25.541   6.273   4.916 -0.1714  0.1110 -0.0493
20840W        W63757  22.435   7.323   5.438  0.0876  0.1828 -0.2084
20841W        W63758  25.790   5.785   5.077  0.1338 -0.0381 -0.0667
20842W        W63759  22.613   4.400   2.823 -0.1651  0.0431  0.1655
20843W        W63760  24.002   5.493   6.728  0.1573 -0.2102  0.1345
20844W        W63761  25.391   4.134   3.243 -0.1462 -0.0663 -0.3385
20845W        W63762  22.872   4.412   4.859  0.2804  0.0838 -0.0955
20846W        W63763  23.491   3.616   5.565  0.0953 -0.1705 -0.0744
20847W        W63764  25.947   4.370   6.900  0.0815 -0.0300  0.0894
20848W        W63765  22.722   4.104   3.247  0.2794 -0.0961 -0.1043
20849W        W63766  24.048   4.410   5.443  0.2475 -0.1048 -0.2816
20850W        W63767  22.889   5.008   6.282  0.2935 -0.2465  0.0241
20851W        W63768  24.275   4.189   6.474 -0.0663 -0.0796  0.1624
20852W        W63769  21.505   3.490   6.656 -0.0327  0.2043 -0.2046
20853W        W63770  24.326   7.859   5.683  0.2332 -0.0444  0.1980
20854W        W63771  24.303   5.959   2.794  0.0871 -0.0980  0.2705
20855W        W63772  21.381   3.888   6.212 -0.0922 -0.3366 -0.0613
20856W        W63773  24.857   6.301   4.135 -0.0188 -0.1252 -0.1294
20857W        W63774  23.867   3.003   2.518 -0.2167 -0.0352 -0.0813
20858W        W63775  22.959   5.753   6.137 -0.1152 -0.1201  0.1870
20859W        W63776  24.724   5.953   8.859 -0.1249  0.2547 -0.1060
20860W        W63777  24.273   5.286   2.130  0.3223  0.0617  0.0971
20861W        W63778  23.446   3.466   6.387 -0.1397  0.0202  0.0888
20862W        W63779  23.596   6.319   3.186  0.1878  0.1065 -0.1869
20863W        W63780  24.936   6.051   3.730  0.1812 -0.2741  0.0018
20864W        W63781  24.617   3.243   5.496  0.0028 -0.4122  0.2155
20865W        W63782  20.813   3.081   5.969 -0.0115 -0.1111 -0.2308
20866W        W63783  23.392   6.633   8.031 -0.0612  0.1335  0.0500
20867W        W63784  20.427   6.360   4.811 -0.0709 -0.2056  0.4615
20868W        W63785  22.591   5.550   3.080  0.0058 -0.1724  0.2719
20869W        W63786  23.594   4.756   6.397 -0.2726  0.0230  0.1847
20870W        W63787  25.689   5.826   6.538  0.0919  0.2301  0.3172
20871W        W63788  22.679   2.611   4.692 -0.1030  0.0194  0.3945
20872W        W63789  24.717   3.988   7.252 -0.3807 -0.0602 -0.1656
20873W        W63790  22.528   7.857   5.425 -0.2668  0.1002  0.1240
20874W        W63791  25.232   3.435   5.973 -0.0907 -0.1058 -0.3346
20875W        W63792  22.956   8.503   4.797 -0.0299 -0.0402 -0.0122
20876W        W63793  22.062   5.152   6.586 -0.1618  0.3392 -0.0197
20877W        W63794  23.135   6.528   5.452 -0.0052 -0.0512 -0.1190
20878W        W63795  25.741   1.711   4.408 -0.2897  0.1029  0.2505
20879W        W63796  24.186   4.002   4.616  0.1693  0.2547 -0.1847
20880W        W63797  25.369   4.809   5.691  0.0390 -0.2496 -0.0638
20881W        W63798  26.825   5.745   6.257 -0.0487 -0.0307  0.4105
20882W        W63799  25.974   6.234   5.335  0.1394  0.2041 -0.1719
20883W        W63800  22.508   5.691   5.930  0.2806  0.2864  0.0266
20884W        W63801  25.222   4.101   4.290  0.1471  0.0316 -0.1305
20885W        W63802  25.067   6.207   3.205  0.2067 -0.0721  0.0978
20886W        W63803  21.577   6.526   4.728  0.0503 -0.2082  0.2194
20887W        W63804  21.994   5.584   5.800 -0.1093 -0.0181 -0.3471
20888W        W63805  23.536   4.599   5.561  0.2275  0.1493  0.1636
20889W        W63806  24.149   3.489   4.802  0.1599  0.2167 -0.0505
20890W        W63807  22.469   5.407   3.980 -0.2098  0.1125 -0.0891
20891W        W63808  23.316   4.985   5.111 -0.3363  0.0862 -0.3038
20892W        W63809  25.575   5.983   6.039  0.0606  0.1940 -0.0703
20893W        W63810  21.719   6.965   4.556 -0.2555  0.0477  0.4716
20894W        W63811  24.060   6.665   5.071 -0.0331  0.0754 -0.1309
20895W        W63812  22.187   6.758   3.835  0.0713  0.0311  0.1092
20896W        W63813  23.538   5.179   4.649 -0.2163 -0.0943  0.0558
20897W        W63814  25.081   5.790   5.291  0.2115 -0.1735 -0.0934
20898W        W63815  24.149   5.083   3.945 -0.4470  0.3125 -0.1000
20899W        W63816  24.357   6.947   3.614 -0.0595  0.2810 -0.1180
20900W        W63817  21.046   7.573   4.107 -0.1266 -0.0959 -0.0123
20901W        W63818  26.120   6.820   3.855  0.2129 -0.1185 -0.2550
20902W        W63819  22.634   8.884   4.771 -0.1044 -0.0301 -0.1179
20903W        W63820  25.409   5.452   4.428  0.0319  0.2570 -0.2061
20904W        W63821  24.765   5.525   2.199 -0.0216  0.4518 -0.0352
20905W        W63822  25.602   5.778   5.591 -0.1444  0.0617 -0.2701
20906W        W63823  24.290   4.764   3.043  0.2385 -0.0725  0.2080
20907W        W63824  25.304   6.462   5.320  0.0401 -0.0526 -0.0306
20908W        W63825  21.668   5.164   5.724  0.1343  0.0545  0.0006
20909W        W63826  22.335   5.038   4.728 -0.0798  0.0164 -0.1499
20910W        W63827  22.409   5.782   7.369  0.1688 -0.1519 -0.0337
20911W        W63828  26.837   4.243   7.831 -0.0689 -0.0281  0.0705
20912W        W63829  23.524   6.483   6.382  0.0299 -0.1947  0.0530
20913W        W63830  26.332   9.557   3.877 -0.2600 -0.0311  0.1160
20914W        W63831  21.434   4.172   5.223 -0.3747 -0.0899 -0.2835
20915W        W63832  21.429   4.398   5.642 -0.2622  0.0644 -0.2277
20916W        W63833  22.529   3.135   5.323 -0.1703 -0.2996  0.1507
20917W        W63834  22.167   6.016   3.514 -0.2042 -0.1053 -0.2325
20918W        W63835  22.870   4.247   6.027  0.0434 -0.0212  0.0476
20919W        W63836  24.575   6.135   3.338  0.2903 -0.0344  0.0918
20920W        W63837  22.526   8.329   4.714  0.1616 -0.1668  0.2310
20921W        W63838  22.930   7.341   5.602 -0.3129 -0.1139  0.1580
20922W        W63839  19.964   5.513   3.061 -0.0640 -0.2505 -0.2447
20923W        W63840  23.922   4.316   4.926  0.1204 -0.4045 -0.1695
20924W        W63841  23.191   5.684   8.003 -0.3964  0.0989  0.0174
20925W        W63842  24.174   3.505   5.702 -0.0096 -0.0488 -0.0876
20926W        W63843  22.401   5.569   7.821 -0.1052  0.2032  0.0431
20927W        W63844  25.000   5.147   4.400  0.1612  0.3482 -0.1449
20928W        W63845  21.715   5.940   7.144  0.0334 -0.1511 -0.1571
20929W        W63846  23.066   5.690   3.199 -0.1062  0.3235  0.1856
20930W        W63847  25.163   5.058   5.276  0.1501  0.0287  0.1102
20931W        W63848  23.071   4.243   2.931  0.0387  0.1299  0.3936
20932W        W63849  24.464   7.421   5.869 -0.0640  0.0573 -0.1298
20933W        W63850  20.512   4.273   4.859 -0.0866 -0.0213  0.6467
20934W        W63851  24.490   4.245   5.270 -0.0623  0.2743  0.1639
20935W        W63852  20.962   5.705   4.565 -0.2084  0.0184  0.3177
20936W        W63853  22.808   5.447   6.480 -0.1164  0.3294  0.0835
20937W        W63854  26.191   6.612   6.519  0.1761 -0.0170  0.0047
20938W        W63855  21.083   2.297   4.594 -0.2287 -0.0796 -0.1861
20939W        W63856  25.333   5.380   3.910  0.2718 -0.2027 -0.1723
20940W        W63857  24.074   3.770   3.453 -0.1166 -0.0272 -0.2345
20941W        W63858  24.555   6.177   6.566 -0.0164 -0.2490  0.2950
20942W        W63859  24.297   5.041   6.021 -0.2925  0.1983 -0.0313
20943W        W63860  26.328   6.782   4.732  0.2647 -0.0448  0.2040
20944W        W63861  20.471   5.136   5.894  0.0019  0.0318  0.2804
20945W        W63862  22.855   5.464   5.331 -0.0331  0.4339  0.0884
20946W        W63863  26.210   5.069   5.893 -0.1237 -0.2871  0.1775
20947W        W63864  23.698   3.327   5.131  0.0622  0.1952 -0.0278
20948W        W63865  20.419   4.256   3.731  0.2010 -0.0753  0.3430
20949W        W63866  23.545   5.024   5.932 -0.1967  0.2202  0.2987
20950W        W63867  26.033   6.302   4.702 -0.0527  0.0624 -0.0485
20951W        W63868  25.696   3.585   6.361 -0.1932  0.0684  0.3131
20952W        W63869  22.220   9.219   4.916  0.1432  0.2655  0.0545
20953W        W63870  24.659   3.569   5.898  0.3600  0.1081 -0.0833
20954W        W63871  24.788   5.738   5.754  0.0198 -0.1442  0.3047
20955W        W63872  22.952   5.988   8.666 -0.0740  0.0539  0.2792
20956W        W63873  21.131   9.049   4.158 -0.1172  0.1936 -0.4747
20957W        W63874  24.682   4.668   7.025  0.0456 -0.0437 -0.1234
20958W        W63875  22.317   5.519   4.449 -0.2750 -0.1543  0.0960
20959W        W63876  22.399   7.193   4.969 -0.0525  0.2346  0.2234
20960W        W63877  23.428   5.403   2.948 -0.0137 -0.1379  0.0696
20961W        W63878  23.050   4.673   5.303 -0.0712 -0.0446  0.2570
20962W        W63879  27.207   6.212   5.575  0.3577  0.2350 -0.1994
20963W        W63880  22.304   4.303   5.956  0.0230 -0.1842  0.0357
20964W        W63881  26.696   2.148   6.205  0.2330 -0.1789 -0.2902
20965W        W63882  23.386   2.060   4.835 -0.2150  0.0368 -0.3074
20966W        W63883  21.961   5.015   7.264  0.2369  0.0079  0.0768
20967W        W63884  21.092   5.790   5.474 -0.0894 -0.2001 -0.0342
20968W        W63885  21.430   7.352   4.305 -0.1005 -0.1883  0.1292
20969W        W63886  22.248   5.093   5.799  0.0991  0.1167  0.0634
20970W        W63887  23.745   5.173   5.371 -0.1215  0.1567 -0.0058
20971W        W63888  21.602   4.225   7.544 -0.3037 -0.0955  0.1946
20972W        W63889  21.234   5.996   3.553  0.1301 -0.0537  0.1809
20973W        W63890  20.379   3.041   3.797  0.0973 -0.1118  0.1332
20974W        W63891  26.683   6.338   4.112  0.1833 -0.0132 -0.1331
20975W        W63892  21.970   3.723   7.692  0.0548  0.3763 -0.0103
20976W        W63893  20.111   2.831   6.481  0.3033  0.4123 -0.0614
20977W        W63894  25.891   4.992   4.484 -0.2026  0.2823  0.0787
20978W        W63895  24.439   4.998   4.533 -0.2302  0.1454  0.0074
20979W        W63896  22.752   4.398   5.525  0.1179 -0.5726  0.0375
20980W        W63897  26.036   7.155   5.825 -0.1021  0.0760 -0.0858
20981W        W63898  21.475   5.024   4.220 -0.1331  0.0202  0.1337
20982W        W63899  23.699   4.996   6.829  0.1942  0.1124 -0.2142
20983W        W63900  23.234   5.202   7.258 -0.2783 -0.0026 -0.3181
20984W        W63901  23.000   4.620   4.238  0.0148 -0.0540  0.1994
20985W        W63902  25.242   3.526   5.471  0.1544  0.0597 -0.1139
20986W        W63903  23.510   6.881   3.345 -0.0053  0.0798 -0.1439
20987W        W63904  22.394   7.290   3.839  0.1849  0.1045  0.3212
20988W        W63905  23.804   5.574   6.250 -0.3115 -0.3003 -0.3744
20989W        W63906  23.746   6.028   6.173  0.0017 -0.2804 -0.3027
20990W        W63907  22.998   2.033   7.727  0.1422  0.1567  0.0521
20991W        W63908  24.243   4.462   4.360  0.0559  0.1457 -0.0879
20992W        W63909  24.384   5.367   6.383  0.3072  0.1805  0.0490
20993W        W63910  24.472   5.849   3.690  0.0078  0.3438 -0.4206
20994W        W63911  25.635   3.752   5.685 -0.0580 -0.3777 -0.1131
20995W        W63912  23.788   6.164   4.812 -0.0555 -0.1095  0.1156
20996W        W63913  21.655   3.405   6.110  0.0082  0.0591  0.0632
20997W        W63914  22.208   5.839   6.843  0.1048  0.1188  0.1990
20998W        W63915  26.393   3.155   4.583 -0.2930 -0.0499 -0.1045
20999W        W63916  22.473   4.033   4.736 -0.1313 -0.2611 -0.0838
21000W        W63917  27.103   2.512   5.585  0.0021 -0.1940  0.0916
21001W        W63918  23.922   6.277   5.301  0.1274  0.0252 -0.0582
21002W        W63919  20.951   3.410   6.830 -0.0633  0.0599  0.0465
21003W        W63920  21.577   3.272   2.624  0.0886 -0.0445 -0.1125
21004W        W63921  24.201   4.709   6.755 -0.1305 -0.0822  0.1771
21005W        W63922  24.456   6.191   5.899  0.3193  0.0106 -0.0557
21006W        W63923  21.719   6.917   3.840  0.2149  0.0901  0.0792
21007W        W63924  26.256   3.359   5.476  0.1945 -0.0399  0.0723
21008W        W63925  25.191   5.386   5.672 -0.3168  0.2443 -0.0062
21009W        W63926  24.144   7.083   5.695 -0.2075  0.2630 -0.2587
21010W        W63927  24.539   5.773   5.028  0.0035 -0.0422 -0.0975
21011W        W63928  25.960   3.755   4.913  0.0876 -0.1992  0.1787
21012W        W63929  20.520   4.687   6.555 -0.0756 -0.0476 -0.4137
21013W        W63930  23.402   5.569   5.375  0.2535 -0.2905  0.1082
21014W        W63931  22.471   5.988   4.882  0.1984 -0.0245 -0.0850
21015W        W63932  26.523   4.358   6.930 -0.4307 -0.0024 -0.1132
21016W        W63933  21.703   3.321   4.800  0.0561 -0.3654 -0.1040
21017W        W63934  23.001   3.388   4.373 -0.1062  0.1431 -0.1337
21018W        W63935  23.639   5.737   4.344 -0.0695 -0.5359  0.1753
21019W        W63936  24.647   3.992   5.687  0.1682 -0.0770  0.3376
21020W        W63937  23.967   6.497   8.726 -0.0458 -0.0858 -0.1340
21021W        W63938  22.688   4.221   7.329  0.1138 -0.0386 -0.0030
21022W        W63939  24.253   3.758   6.114 -0.0300 -0.4708  0.1639
21023W        W63940  28.026   6.777   9.748  0.1184 -0.2237  0.0538
21024W        W63941  21.515   3.098   8.998 -0.0354 -0.1531 -0.0237
21025W        W63942  24.813   7.760   7.296  0.2691  0.1881  0.1361
21026W        W63943  25.903   3.944   9.283  0.2757  0.0391  0.0545
21027W        W63944  25.838   5.841   7.889 -0.0991 -0.1362 -0.0425
21028W        W63945  25.045   4.138   8.163  0.0562  0.0212  0.3194
21029W        W63946  22.450   4.486   8.523  0.0425  0.0894  0.1379
21030W        W63947  23.105   3.578   5.859  0.1729 -0.1914 -0.1015
21031W        W63948  22.714   3.658   8.251  0.0411  0.0292  0.2004
21032W        W63949  24.113   5.660   8.032  0.4089  0.0179 -0.0326
21033W        W63950  21.452   4.565   8.507  0.0771 -0.1022  0.0500
21034W        W63951  20.744   5.028   7.379  0.1035  0.1202  0.0805
21035W        W63952  22.778   4.573   6.828 -0.0603  0.0869 -0.4196
21036W        W63953  26.042   5.413   8.860  0.1857  0.0098  0.0735
21037W        W63954  24.406   5.579   9.081 -0.0548 -0.0378  0.0199
21038W        W63955  24.981   7.519   6.580  0.3374  0.2945 -0.1983
21039W        W63956  23.298   6.124   7.723 -0.1935 -0.5312  0.0208
21040W        W63957  22.270   6.196   9.116  0.0988 -0.2867 -0.0986
21041W        W63958  21.819   2.363   9.578  0.2391 -0.1102  0.2960
21042W        W63959  23.641   5.443   7.131  0.3094 -0.0966 -0.1831
21043W        W63960  22.383   4.739   7.596 -0.1166  0.0570 -0.0697
21044W        W63961  24.361   7.038   5.238  0.2004  0.0993 -0.0698
21045W        W63962  23.351   5.730   7.408 -0.0207 -0.2934 -0.1963
21046W        W63963  22.000   7.022   9.071  0.0501 -0.2262 -0.0299
21047W        W63964  20.113   6.705   5.987 -0.1175 -0.0157  0.2116
21048W        W63965  24.462   6.603   4.744  0.2677  0.2060  0.1092
21049W        W63966  26.478   3.953   6.606 -0.2067  0.0766 -0.0461
21050W        W63967  22.306   7.102   7.510 -0.0397  0.1498 -0.1110
21051W        W63968  27.556   3.855   8.801  0.1720  0.1234 -0.2962
21052W        W63969  23.352   4.736   7.714  0.0675 -0.2066  0.1356
21053W        W63970  24.336   7.882   7.129 -0.3902  0.5615 -0.1165
21054W        W63971  24.279   7.240   8.610  0.2424  0.4202  0.1323
21055W        W63972  25.877   6.163   8.395  0.1449 -0.0232  0.2120
21056W        W63973  23.432   6.599   7.489  0.2562 -0.0305 -0.1010
21057W        W63974  24.089   4.609   8.326  0.0223 -0.1609  0.3518
21058W        W63975  23.189   4.123   7.143  0.1181 -0.2677 -0.0183
21059W        W63976  22.827   4.942   7.664 -0.0001 -0.0384  0.0397
21060W        W63977  24.325   2.913   7.964 -0.1329 -0.0258 -0.1917
21061W        W63978  22.202   8.005   8.780 -0.1548 -0.0239  0.0610
21062W        W63979  23.688   1.359   7.935 -0.0909 -0.3445 -0.1950
21063W        W63980  23.710   4.284   7.240  0.0202  0.1150 -0.0562
21064W        W63981  26.115   2.776   9.462  0.0458 -0.2414 -0.2180
21065W        W63982  23.748   6.137   9.038 -0.1867 -0.1114  0.0331
21066W        W63983  25.210   8.486   9.310  0.3110 -0.0597 -0.1949
21067W        W63984  25.533   6.104   7.512  0.1505 -0.2936 -0.1873
21068W        W63985  27.088   5.062   8.393 -0.0335 -0.2763  0.2560
21069W        W63986  23.887   6.982   6.197  0.1740  0.0172  0.0357
21070W        W63987  23.226   5.034   8.168  0.0504  0.3459  0.1145
21071W        W63988  22.952   2.507   6.680  0.2270  0.1300  0.0509
21072W        W63989  23.466   2.223   7.787 -0.0601  0.0807  0.0280
21073W        W63990  24.091   5.087   9.113  0.2097 -0.1791 -0.1117
21074W        W63991  24.987   6.721   7.172  0.2352 -0.1697  0.1728
21075W        W63992  26.154   5.981   8.812 -0.0987 -0.0751 -0.0496
21076W        W63993  24.095   3.635   8.480 -0.1187 -0.0423 -0.0088
21077W        W63994  25.059   0.203   9.351 -0.0394 -0.0407  0.3949
21078W        W63995  22.870   5.308   5.919  0.0766  0.1637 -0.0491
21079W        W63996  23.835   6.458   8.234  0.2162  0.0668 -0.2607
21080W        W63997  25.037   7.810   7.928 -0.0086 -0.3875  0.3192
21081W        W63998  24.299   4.218   7.120  0.1819 -0.1328  0.0621
21082W        W63999  22.351   4.970   8.602  0.0322 -0.0539  0.2052
21083W        W64000  21.354   8.066   7.276 -0.1933 -0.0149 -0.3290
21084W        W64001  22.712   6.025   9.182  0.1184 -0.1366  0.0394
21085W        W64002  24.180   5.919   7.579  0.4072 -0.3428  0.1010
21086W        W64003  23.181   3.371   9.524 -0.0596 -0.3417 -0.0088
21087W        W64004  21.919   5.845   9.006  0.0557  0.0013  0.0989
21088W        W64005  25.519   4.131   7.648  0.4331 -0.1582  0.0929
21089W        W64006  23.667   2.403   8.275 -0.2608  0.1420 -0.1794
21090W        W64007  22.318   5.143   9.497  0.2448  0.1403  0.1047
21091W        W64008  26.079   4.854   7.610  0.4534 -0.0671 -0.1292
21092W        W64009  26.498   3.913   8.048  0.4895  0.2522  0.0006
21093W        W64010  24.812   6.591   6.329 -0.0719 -0.3531 -0.0409
21094W        W64011  21.885   4.893   8.378  0.0633 -0.4494 -0.3916
21095W        W64012  23.560   3.203   8.004 -0.0874  0.1110 -0.2608
21096W        W64013  21.669   4.584   7.122 -0.1549 -0.1442  0.1130
21097W        W64014  21.575   3.031   7.034  0.3522  0.1431  0.2297
21098W        W64015  23.217   5.462   6.834  0.1814  0.2796 -0.0396
21099W        W64016  23.301   5.268   7.733  0.0144 -0.1988 -0.1587
21100W        W64017  22.814   5.586   9.284 -0.0948  0.0123 -0.0499
21101W        W64018  22.451   6.700   7.127 -0.4085  0.0920  0.0577
21102W        W64019  24.610   7.085   7.305  0.0668 -0.0686 -0.0736
21103W        W64020  24.561   6.465   8.114 -0.2619 -0.0088 -0.0486
21104W        W64021  23.210   3.754   8.453 -0.0364  0.1547 -0.0337
21105W        W64022  22.363   4.731   7.060 -0.1363  0.1873  0.0058
21106W        W64023  22.007   7.533   8.943  0.0568  0.1771  0.2144
21107W        W64024  21.997   4.926   9.055 -0.0677 -0.2470 -0.1481
21108W        W64025  23.451   4.774   8.616 -0.0304 -0.2527 -0.2363
21109W        W64026  24.337   8.294   8.065 -0.0856  0.1628  0.1841
21110W        W64027  25.170   7.022   6.687 -0.1464 -0.0951 -0.0689
21111W        W64028  25.718   6.307   8.844 -0.1177  0.1579  0.0249
21112W        W64029  27.983   2.970   9.521 -0.0703 -0.3434 -0.4329
21113W        W64030  22.937   3.813   7.491  0.3335  0.1305  0.0503
21114W        W64031  23.952   6.564   7.312 -0.1741 -0.1369  0.0263
21115W        W64032  23.874   6.760   6.687  0.0728  0.0621 -0.1344
21116W        W64033  18.684   6.484   9.261 -0.0927 -0.0780 -0.0440
21117W        W64034  26.730   5.612   8.143  0.0674 -0.2817 -0.2506
21118W        W64035  23.106   2.507   7.627 -0.2924  0.1295  0.1038
21119W        W64036  22.514   3.569   9.749 -0.1121  0.0620  0.0190
21120W        W64037  23.510   3.700   7.285  0.2298 -0.3913 -0.2946
21121W        W64038  25.142   2.657   8.330  0.0198 -0.0858  0.0636
21122W        W64039  26.391   5.781   6.488  0.3829  0.1045 -0.1545
21123W        W64040  23.929   3.636   6.581  0.2428 -0.5701  0.4010
21124W        W64041  24.439   1.692   7.568 -0.3149  0.2215  0.0589
21125W        W64042  22.954   6.433   7.207  0.0591 -0.1199  0.3263
21126W        W64043  24.574   7.026   8.079 -0.0858  0.0322 -0.0199
21127W        W64044  25.529   3.386   8.043 -0.1488 -0.2693  0.1487
21128W        W64045  27.333   3.426   6.392  0.0407  0.0763 -0.1420
21129W        W64046  25.036   7.022   7.593 -0.1030 -0.3435  0.0439
21130W        W64047  26.207   8.324   9.335 -0.1259 -0.1138 -0.0108
21131W        W64048  25.720   1.664   9.273 -0.1988 -0.1918 -0.3127
21132W        W64049  22.284   3.576   5.383  0.0362  0.2110 -0.0350
21133W        W64050  24.043   3.323   8.100 -0.1800  0.1539 -0.1922
21134W        W64051  21.882   5.754   7.941  0.0291  0.1803 -0.0531
21135W        W64052  29.250   3.407   9.213 -0.0982 -0.0123  0.1798
21136W        W64053  21.782   2.336   8.778 -0.2635  0.3106  0.0897
21137W        W64054  25.081   4.669   7.913  0.0844 -0.0387  0.3981
21138W        W64055  26.724   7.715   8.559  0.0507 -0.1227  0.4092
21139W        W64056  22.329   5.335   6.997  0.0296 -0.1032 -0.1318
21140W        W64057  23.014   4.103   8.803  0.1787  0.3995  0.0968
21141W        W64058  22.947   8.295   9.620  0.1144  0.1093  0.1051
21142W        W64059  25.872   5.735   7.378  0.0724 -0.3810  0.2239
21143W        W64060  22.788   5.761   8.274 -0.0025 -0.0039  0.1801
21144W        W64061  24.696   7.395   7.780  0.1184  0.3135  0.0193
21145W        W64062  22.369   7.384   8.044 -0.1234 -0.2630 -0.1238
21146W        W64063  23.873   2.914   7.219  0.0509 -0.1700 -0.3132
21147W        W64064  25.353   6.100   9.426  0.0876  0.0321 -0.2154
21148W        W64065  23.045   4.619   7.275 -0.0044 -0.0361  0.0964
21149W        W64066  24.963   5.736   8.324 -0.2101  0.3750  0.0786
21150W        W64067  23.017   7.819   8.478  0.0736 -0.1391  0.0896
21151W        W64068  23.547   4.183   8.060  0.3125 -0.0299  0.2114
21152W        W64069  21.063   7.960   8.098  0.0537  0.1341  0.0209
21153W        W64070  21.914   5.569   7.401  0.0283 -0.0227  0.0129
21154W        W64071  22.217   5.324   8.221 -0.1283  0.0364 -0.2930
21155W        W64072  23.742   1.937   8.985 -0.0328  0.0853  0.2743
21156W        W64073  24.976   4.562   8.412 -0.0562 -0.1057 -0.3667
21157W        W64074  20.837   4.117   9.404  0.4969 -0.1163  0.0093
21158W        W64075  22.532   3.216   8.386  0.2069  0.1084 -0.0332
21159W        W64076  23.734   6.931   8.379 -0.0396 -0.0768 -0.0711
21160W        W64077  23.942   4.623   8.778 -0.2134  0.1223 -0.0249
21161W        W64078  21.351   3.712   7.845 -0.0286 -0.1426  0.0988
21162W        W64079  26.985   5.905   8.970 -0.2660  0.0241  0.0733
21163W        W64080  21.594   4.518   8.050 -0.1268 -0.3459 -0.0139
21164W        W64081  24.392   6.624   6.698 -0.2432  0.3956  0.1198
21165W        W64082  22.747   4.792   8.125  0.1330  0.2107  0.1112
21166W        W64083  24.738   4.397   6.594 -0.2479  0.1420 -0.1910
21167W        W64084  25.058   5.912   7.540 -0.0742  0.3776 -0.1834
21168W        W64085  23.615   5.665   8.707  0.0466 -0.0338 -0.1274
21169W        W64086  24.785   3.399   8.793 -0.2180  0.3943 -0.1360
21170W        W64087  20.941   3.754   5.928 -0.1226 -0.0278 -0.1634
21171W        W64088  23.716   5.637   7.721 -0.0054 -0.2687 -0.0849
21172W        W64089  24.690   4.578   9.235 -0.1548  0.2889  0.1542
21173W        W64090  24.006   4.149   8.609  0.2554  0.0840 -0.4761
21174W        W64091  23.743   3.781   8.800 -0.2973  0.1863 -0.0371
21175W        W64092  26.169   6.086   7.592 -0.0258  0.0379 -0.1294
21176W        W64093  22.528   6.350   8.106 -0.2611  0.1620  0.5017
21177W        W64094  23.193   4.519   8.246 -0.0696 -0.1502 -0.0075
21178W        W64095  23.186   5.667   9.008 -0.1141  0.1349 -0.0814
21179W        W64096  25.473   4.471   8.123 -0.0089 -0.1217 -0.0873
21180W        W64097  23.529   8.369   8.110 -0.1854  0.1471 -0.3547
21181W        W64098  22.937   6.470   7.808  0.1257  0.0363  0.5633
21182W        W64099  22.664   8.109   8.688 -0.4086 -0.1239  0.2938
21183W        W64100  24.305   3.718   7.882 -0.1293 -0.0192  0.1339
21184W        W64101  25.182   6.066   5.648 -0.2660 -0.2142  0.1253
21185W        W64102  23.785   5.019   7.754 -0.2755  0.1319  0.0059
21186W        W64103  24.675   4.940   7.793 -0.0683  0.0094 -0.0461
21187W        W64104  23.896   2.338   8.689 -0.4852 -0.0993 -0.0248
21188W        W64105  25.841   5.129   8.453  0.3446 -0.0067 -0.1382
21189W        W64106  24.273   5.170   6.926 -0.0447 -0.2323 -0.0631
21190W        W64107  22.881   3.230   6.215 -0.2959  0.0496  0.1406
21191W        W64108  24.156   5.557   8.586 -0.2444 -0.2106 -0.0341
21192W        W64109  27.577   7.927   9.466 -0.1369 -0.1081 -0.2867
21193W        W64110  23.124   6.900   8.320 -0.0383 -0.0512  0.0939
21194W        W64111  25.189   5.637   7.915 -0.2121  0.1677  0.0264
21195W        W64112  21.267   7.179   8.915 -0.2374 -0.1187 -0.3516
21196W        W64113  24.503   5.698   6.809 -0.1594  0.1671  0.0204
21197W        W64114  25.619   6.719   6.726 -0.1810  0.2069 -0.3511
21198W        W64115  22.891   4.469   7.752 -0.1845 -0.0368  0.1197
21199W        W64116  25.822   6.204   9.544 -0.2311 -0.3231  0.1132
21200W        W64117  22.978   3.997   7.946 -0.0566 -0.0423 -0.1614
21201W        W64118  22.475   9.723   9.453 -0.0621 -0.0186 -0.0795
21202W        W64119  24.177   2.571   6.674  0.2425  0.0770  0.0375
21203W        W64120  27.442   4.542  10.034  0.2029  0.1474 -0.2191
21204W        W64121  24.148   6.171   8.053 -0.1229 -0.2478 -0.1876
21205W        W64122  21.512   4.391   6.629 -0.0524  0.1773  0.0457
21206W        W64123  24.239   6.760   8.390 -0.1230 -0.1126 -0.0840
21207W        W64124  22.563   3.481   7.702 -0.1113  0.0331  0.1536
21208W        W64125  21.774   8.126   7.883 -0.0592 -0.3121  0.2170
21209W        W64126  24.568   4.410   8.038  0.1837  0.2923 -0.0264
21210W        W64127  23.311   5.217   8.953 -0.0081  0.2117  0.1804
21211W        W64128  21.920   3.694   8.323 -0.0316 -0.3090 -0.0084
21212W        W64129  21.828   4.661   7.649 -0.1858 -0.0706 -0.0791
21213W        W64130  24.771   5.188   6.989 -0.1215  0.1435 -0.0758
21214W        W64131  25.463   6.885   7.415 -0.0197  0.0106  0.0092
21215W        W64132  22.745   3.811   6.979 -0.0625  0.3014  0.0903
21216W        W64133  23.784   5.965   7.262 -0.1286  0.2262 -0.1092
21217W        W64134  24.712   3.793   8.204  0.2939 -0.2177 -0.3406
21218W        W64135  22.712   5.352   8.617  0.0870 -0.2580  0.1295
21219W        W64136  24.385   8.479   8.695 -0.1957  0.2952  0.1958
21220W        W64137  22.887   3.367   8.763 -0.0548  0.0039 -0.4145
21221W        W64138  23.291   3.532   8.953  0.0646 -0.1493 -0.1391
21222W        W64139  24.901   6.257   8.451  0.1526  0.0370  0.2136
21223W        W64140  24.914   5.407   6.539  0.2692 -0.1657  0.1343
21224W        W64141  24.685   7.000   6.771  0.0064 -0.1367  0.1459
21225W        W64142  25.144   3.049   9.153 -0.0326 -0.3167  0.1085
21226W        W64143  22.438   5.767   8.788  0.0195  0.1568  0.0721
21227W        W64144  22.808   4.247   8.354  0.2633  0.0625 -0.2293
21228W        W64145  25.877   5.288   6.364  0.1126 -0.1112 -0.3539
21229W        W64146  22.084   5.409   8.706 -0.2348  0.4247  0.3306
21230W        W64147  20.757   7.565   7.232  0.1731  0.2493  0.0001
21231W        W64148  24.905   7.118   6.242  0.1154 -0.0916 -0.1935
21232W        W64149  23.808   5.139   8.603  0.1193  0.3759  0.0378
21233W        W64150  24.392   6.833   8.932 -0.1005  0.2429 -0.0151
21234W        W64151  24.231   4.228   7.643  0.0051 -0.0395 -0.0262
21235W        W64152  21.498   6.074   8.883 -0.0244  0.0468  0.0152
21236W        W64153  21.946   6.183   6.501  0.2839  0.1374 -0.1402
21237W        W64154  25.478   8.007   6.632 -0.0521 -0.1265 -0.0780
21238W        W64155  24.485   4.970   7.343  0.3631  0.2882  0.0020
21239W        W64156  24.644   3.844   6.399  0.0441 -0.0237 -0.4257
21240W        W64157  25.072   5.206   8.190  0.2344  0.2831 -0.0579
21241W        W64158  26.899   3.795   6.951 -0.0399  0.0647 -0.0543
21242W        W64159  21.739   3.905   9.272 -0.1129 -0.5820  0.1850
21243W        W64160  23.173   3.932   6.278  0.2947  0.1121 -0.1046
21244W        W64161  26.507   5.186   7.725  0.2052 -0.0776 -0.0673
21245W        W64162  21.721   5.849   8.444 -0.2051  0.0025  0.1754
21246W        W64163  23.939   5.976   8.437 -0.3061  0.0101  0.0628
21247W        W64164  26.176   3.618   7.486  0.1461  0.2695 -0.1584
21248W        W64165  24.226   5.589   7.182 -0.3722 -0.3199  0.0523
21249W        W64166  24.601   4.476   7.488 -0.0394  0.2049 -0.1085
21250W        W64167  21.895   6.941   7.013  0.1810  0.0706  0.1915
21251W        W64168  23.625   6.372   6.947  0.3047  0.0618  0.0779
21252W        W64169  23.267   6.187   9.006 -0.2253  0.0006 -0.3641
21253W        W64170  23.167   5.046   5.578  0.3133  0.1685  0.1928
21254W        W64171  26.952   5.085  10.649  0.1812 -0.0047  0.1046
21255W        W64172  23.946   2.847   8.876  0.1236 -0.0726  0.0412
21256W        W64173  21.091   4.068   8.957  0.1816  0.0954 -0.2604
21257W        W64174  23.299   3.079   8.846 -0.0469  0.2402  0.4447
21258W        W64175  25.956   7.076   8.806  0.0755  0.4151 -0.1449
21259W        W64176  25.293   5.568   9.134  0.0740  0.1725  0.0098
21260W        W64177  24.624   5.788   7.358  0.2143  0.2046  0.2164
21261W        W64178  25.013   5.674   7.093  0.0331 -0.2969  0.2828
21262W        W64179  23.693   2.906   8.386  0.1052 -0.0641  0.1366
21263W        W64180  24.057   4.062   8.128  0.2055  0.0846  0.0554
21264W        W64181  21.393   4.328   9.406 -0.3443  0.1156  0.1709
21265W        W64182  26.023   8.310   8.672 -0.0133  0.0707 -0.1643
21266W        W64183  22.096   4.771   6.284 -0.1173 -0.2041  0.0632
21267W        W64184  25.373   5.200   7.104 -0.0461 -0.1205  0.0114
21268W        W64185  25.073   4.240   7.011  0.1834 -0.4071  0.1277
21269W        W64186  23.756   5.817   5.660  0.1084  0.0021  0.0670
21270W        W64187  28.937   4.546   9.063  0.0031  0.1180  0.1058
21271W        W64188  26.129   5.278   7.372 -0.1288  0.0807  0.1808
21272W        W64189  20.979   4.572   9.206 -0.0520 -0.1462  0.0074
21273W        W64190  26.353   7.078   9.275 -0.1319  0.1735 -0.0490
21274W        W64191  26.279   5.915   8.250 -0.1038 -0.2231  0.2066
21275W        W64192  26.279   3.671   8.712  0.5520 -0.0672  0.1435
21276W        W64193  23.304   5.226   6.299 -0.0395 -0.1046 -0.0099
21277W        W64194  20.545   7.048   7.171 -0.1295 -0.3509 -0.0250
21278W        W64195  27.250   5.645   9.383 -0.3150  0.1033  0.1830
21279W        W64196  23.913   6.258   5.790 -0.4139 -0.0655 -0.3977
21280W        W64197  23.758   4.297   9.138 -0.2775 -0.3179  0.0719
21281W        W64198  22.123   6.140   7.566  0.0505 -0.3912 -0.2978
21282W        W64199  23.792   6.316   7.713 -0.0626  0.2000 -0.0621
21283W        W64200  24.451   5.936   8.382 -0.0434  0.1673  0.0356
21284W        W64201  26.462   5.313   9.111 -0.0325 -0.3031 -0.0084
21285W        W64202  23.189   4.542   8.995  0.0694 -0.1254 -0.0867
21286W        W64203  26.613   4.671   8.511  0.3465  0.1118  0.1553
21287W        W64204  22.355   3.653   8.631  0.1506 -0.0818  0.0981
21288W        W64205  26.841   6.798   9.106  0.2126 -0.0612 -0.2398
21289W        W64206  27.309   3.286   9.655 -0.1615  0.1374  0.0474
21290W        W64207  21.913   4.342   9.331  0.1370  0.0421 -0.0183
21291W        W64208  20.190   3.937   7.199  0.0201  0.1257  0.2137
21292W        W64209  22.742   5.954   7.794  0.3234  0.0096 -0.2126
21293W        W64210  22.284   7.997   7.815 -0.4554  0.0298  0.0302
21294W        W64211  22.212   5.763   8.356 -0.1129 -0.0205  0.0836
21295W        W64212  24.193   4.762   7.851  0.1984 -0.2227  0.0286
21296W        W64213  27.102   6.087   7.373  0.1415  0.1180  0.1637
21297W        W64214  23.673   3.211   9.221  0.3139  0.0131 -0.0976
21298W        W64215  24.745   2.586   9.322  0.2439 -0.1911  0.1537
21299W        W64216  23.182   5.403   8.491  0.1146  0.1930 -0.1430
21300W        W64217  26.335   5.677   7.821  0.0376  0.0206 -0.0825
21301W        W64218  23.608   6.036   8.087 -0.1813  0.2851  0.1352
21302W        W64219  21.217   6.343   7.425  0.1408 -0.0546  0.0854
21303W        W64220  19.967   3.915   8.463  0.1495  0.0953  0.0523
21304W        W64221  23.345   3.667   7.746 -0.1448  0.1027 -0.1209
21305W        W64222  24.329   6.714   6.083 -0.0835 -0.2366  0.2134
21306W        W64223  25.875   8.058   6.305 -0.0259 -0.0695 -0.1157
21307W        W64224  23.230   2.657   8.484 -0.0347  0.1891 -0.3214
21308W        W64225  23.899   3.850   7.029 -0.2293 -0.0185  0.1485
21309W        W64226  25.576   5.495   8.177  0.0534 -0.1072  0.1885
21310W        W64227  26.365   3.810   9.556  0.2636 -0.1098 -0.1545
21311W        W64228  24.725   6.760   8.466 -0.0131  0.1379  0.1675
21312W        W64229  25.563   7.364   8.911  0.0977 -0.4028 -0.0313
21313W        W64230  22.276   2.774   5.004 -0.1393 -0.0859  0.2102
21314W        W64231  23.647   4.800   8.165  0.3401 -0.0938  0.0763
21315W        W64232  23.215   7.040   7.854 -0.0118  0.0173  0.2676
21316W        W64233  19.925   5.971   8.665  0.0388 -0.2684 -0.4169
21317W        W64234  24.574   3.318   7.141  0.1251  0.1747 -0.0406
21318W        W64235  25.173   5.872   6.585  0.1485  0.1513  0.1874
21319W        W64236  23.384   4.535   6.872  0.1757  0.0558 -0.1264
21320W        W64237  24.970   6.128   7.973 -0.0030  0.2603 -0.2266
21321W        W64238  21.044   6.912   9.329 -0.1182 -0.1219  0.0491
21322W        W64239  21.487   7.629   8.152  0.0265  0.0151 -0.1916
21323W        W64240  25.291   2.251   8.621 -0.0369 -0.2355  0.2008
21324W        W64241  22.039   4.207   7.789  0.0464 -0.0605 -0.0265
21325W        W64242  22.798   5.307   8.125  0.2085 -0.2348 -0.0128
21326W        W64243  24.136   3.880   9.200 -0.1520 -0.0109  0.1645
21327W        W64244  24.790   3.987   9.136 -0.2215  0.1269  0.1778
21328W        W64245  21.811   4.022   6.471 -0.0365 -0.0922  0.2621
21329W        W64246  25.583   1.990   8.949  0.2665 -0.4897  0.1103
21330W        W64247  22.904   7.441   9.651  0.2805  0.0357 -0.1460
21331W        W64248  24.980   5.042   8.660  0.0154  0.0466  0.1042
21332W        W64249  23.095  10.027   3.109 -0.1836 -0.5926  0.2626
21333W        W64250  23.338   8.350   1.447  0.1017 -0.2027  0.0446
21334W        W64251  23.645   7.746  31.305 -0.1487  0.0188  0.0932
21335W        W64252  25.350   8.353  31.938 -0.1734 -0.0244 -0.2388
21336W        W64253  23.724   8.348   0.692  0.1453 -0.1372  0.1546
21337W        W64254  23.185  10.845   2.795 -0.3254  0.1308 -0.1341
21338W        W64255  24.135   8.918   1.960 -0.2093 -0.0600  0.1925
21339W        W64256  24.039  10.241   2.206  0.1867  0.0274 -0.2372
21340W        W64257  25.809  11.066   1.841  0.2501  0.0783  0.1599
21341W        W64258  24.196  10.249   1.646 -0.2290 -0.3111  0.1185
21342W        W64259  24.638   9.411   3.133 -0.0445 -0.0600 -0.2494
21343W        W64260  23.397   8.270   2.643  0.1229  0.1192 -0.2537
21344W        W64261  22.992   6.829   1.222 -0.0539 -0.0633 -0.0159
21345W        W64262  22.029   8.806   1.297 -0.1894  0.2286  0.0826
21346W        W64263  22.485   7.324   2.689 -0.1656  0.2445 -0.0828
21347W        W64264  22.893   8.673   2.387  0.0484 -0.0740 -0.0284
21348W        W64265  21.774   9.078   2.075 -0.1591  0.3956  0.1253
21349W        W64266  22.934  10.518   0.666 -0.2245  0.1442  0.1444
21350W        W64267  21.676  10.535   2.940 -0.1191 -0.0791  0.1991
21351W        W64268  22.413   5.594   2.526  0.0756 -0.0779 -0.1652
21352W        W64269  22.845   7.874   2.723 -0.0312 -0.1119 -0.0591
21353W        W64270  20.793  12.382  31.850 -0.0346  0.5147  0.3153
21354W        W64271  22.247   8.054  31.790  0.1021  0.1989 -0.0375
21355W        W64272  22.414   9.669   1.729 -0.2004 -0.0064  0.1931
21356W        W64273  22.846  10.249   2.371 -0.0641 -0.1419  0.2925
21357W        W64274  25.578   7.339   1.882 -0.2138 -0.3174  0.1399
21358W        W64275  22.723   7.109   0.781 -0.3436  0.0842 -0.0336
21359W        W64276  23.391  10.854   1.886  0.0054  0.2001  0.3252
21360W        W64277  24.917  11.142   2.832 -0.1175  0.0983 -0.0326
21361W        W64278  25.747   9.288   3.109  0.0374  0.0216 -0.1071
21362W        W64279  20.690   9.789   1.960  0.2147 -0.0879 -0.1526
21363W        W64280  20.846   7.782   1.790  0.2349 -0.0592  0.0685
21364W        W64281  22.003  10.930   1.345  0.3489  0.2213  0.1541
21365W        W64282  26.241   9.409   3.036  0.1104  0.1851  0.0656
21366W        W64283  24.463  10.516   2.122  0.0621  0.1441 -0.2209
21367W        W64284  22.205  12.322   0.331  0.2297 -0.1564 -0.0391
21368W        W64285  22.598  10.530   0.249 -0.0511  0.0389  0.0440
21369W        W64286  23.349   9.141   3.018  0.0148  0.0810 -0.0599
21370W        W64287  21.636   9.769   4.507  0.2668 -0.4539  0.0368
21371W        W64288  24.734  10.813  31.478  0.1828 -0.1159 -0.3345
21372W        W64289  23.450   6.715   0.403 -0.1603  0.0244  0.0967
21373W        W64290  21.698  10.193   0.729 -0.0140  0.0087  0.0281
21374W        W64291  24.796   8.563   1.577  0.0724  0.1491  0.1323
21375W        W64292  22.696  11.040   3.297 -0.0711  0.0322 -0.1635
21376W        W64293  24.895  10.164   2.324 -0.2343  0.4565  0.2173
21377W        W64294  24.822   7.304   2.580  0.2851  0.2562 -0.1138
21378W        W64295  24.799  11.323  31.333  0.3881  0.1154 -0.3228
21379W        W64296  24.242   9.673  31.613 -0.0232  0.0023 -0.0528
21380W        W64297  22.502   7.588   1.215  0.0844  0.0101 -0.1626
21381W        W64298  24.831   9.377  31.073  0.1346 -0.2031 -0.0932
21382W        W64299  23.562   7.735   2.704  0.1552 -0.0408 -0.1433
21383W        W64300  22.958  10.659   2.041 -0.4483 -0.0388 -0.2160
21384W        W64301  21.330  10.884   2.923 -0.1429 -0.4219  0.0152
21385W        W64302  26.524  10.897   1.183  0.1307 -0.0859 -0.0040
21386W        W64303  22.652   9.884  31.948  0.1336  0.0649 -0.0010
21387W        W64304  24.566  10.017   1.327  0.2603  0.3983  0.0183
21388W        W64305  22.344  11.706   0.999 -0.0153 -0.4198 -0.2725
21389W        W64306  22.250   9.310   2.100  0.0065  0.0755 -0.0456
21390W        W64307  23.324  12.863   1.229  0.1501 -0.0771  0.1369
21391W        W64308  22.701  11.065   1.772  0.1097  0.2013 -0.0994
21392W        W64309  24.738  11.668   0.398 -0.1232 -0.0772  0.1367
21393W        W64310  23.823   7.591   0.241  0.0781 -0.1694  0.0753
21394W        W64311  20.862  10.059   2.714 -0.1428 -0.1322  0.3148
21395W        W64312  20.879   9.590   2.765  0.2868  0.0334 -0.0209
21396W        W64313  23.560   6.719   1.915 -0.1654  0.1291  0.1701
21397W        W64314  24.484   9.055   2.288  0.1122  0.1334  0.0298
21398W        W64315  18.982  11.305   4.775  0.0539 -0.0977  0.1292
21399W        W64316  28.242   7.959   2.008 -0.0659  0.2088 -0.2152
21400W        W64317  22.567   9.805   0.912 -0.0434  0.1309  0.2367
21401W        W64318  25.407   8.704   2.196 -0.0389 -0.5086 -0.1778
21402W        W64319  23.400  10.686   1.014 -0.1630 -0.2474 -0.3356
21403W        W64320  25.657   7.864   1.760  0.0274  0.1494 -0.0131
21404W        W64321  24.334   8.149   3.155  0.0067  0.1138 -0.1114
21405W        W64322  22.770  11.184  31.799  0.2034 -0.4234  0.1655
21406W        W64323  23.222   9.376  31.491 -0.1391  0.3658  0.1370
21407W        W64324  25.862  10.304   2.508 -0.2344  0.3176  0.0546
21408W        W64325  23.246   7.110   0.661  0.4643 -0.1751 -0.0923
21409W        W64326  20.708  11.386   1.023 -0.0653 -0.2696  0.1039
21410W        W64327  21.941   9.725   2.803 -0.0125  0.4254 -0.0064
21411W        W64328  23.481  10.346   4.455  0.1835 -0.1572 -0.1031
21412W        W64329  20.890  11.221  28.812  0.1271  0.0227  0.2609
21413W        W64330  21.160   9.844   2.083 -0.0585  0.2224 -0.0584
21414W        W64331  19.621  10.153  30.793 -0.1796  0.3450 -0.2897
21415W        W64332  20.869   8.893   0.788 -0.0425 -0.0640  0.3271
21416W        W64333  22.139  10.042   0.868  0.2790  0.0646  0.2378
21417W        W64334  25.078   9.615   0.651  0.1070 -0.0646 -0.0644
21418W        W64335  22.574   7.684   3.486 -0.1886 -0.0122  0.1111
21419W        W64336  24.964  11.202   1.204 -0.1702  0.4176 -0.1796
21420W        W64337  22.069   9.556   0.878  0.0007 -0.1333 -0.2488
21421W        W64338  25.523  10.125  31.929 -0.0219  0.5109 -0.3504
21422W        W64339  25.250   7.852   1.016 -0.3170 -0.0267 -0.0351
21423W        W64340  25.228  11.228  31.567 -0.1969 -0.0830 -0.0337
21424W        W64341  20.554   9.807   3.122 -0.2440  0.0465 -0.1870
21425W        W64342  20.306   7.126   1.069  0.2298  0.0524 -0.3461
21426W        W64343  22.008   7.685   1.404  0.1669 -0.2096 -0.1301
21427W        W64344  19.903  10.507   2.637 -0.0662  0.1757 -0.0512
21428W        W64345  24.865   9.540   1.587 -0.1191 -0.1617 -0.0667
21429W        W64346  22.715   7.886  31.594  0.1451  0.0392  0.0306
21430W        W64347  27.078   7.139   2.426  0.2432 -0.2018 -0.1273
21431W        W64348  25.494  11.879   2.467  0.0692 -0.0260  0.2182
21432W        W64349  23.074  10.944  30.370  0.1452 -0.2021  0.0860
21433W        W64350  25.057   7.207   1.912 -0.0208  0.1974 -0.1088
21434W        W64351  23.217  10.543   0.146  0.1030 -0.3142 -0.1781
21435W        W64352  25.251  10.917   2.561 -0.1196  0.0654 -0.3445
21436W        W64353  24.814  10.868   0.052  0.1181  0.3054  0.1893
21437W        W64354  23.582   7.657   3.253  0.0657  0.1204  0.3002
21438W        W64355  23.678   5.853   2.974  0.1741 -0.1791  0.0379
21439W        W64356  21.367  11.992   1.516  0.0197 -0.0516 -0.3385
21440W        W64357  23.351   8.851   2.530  0.1788  0.1002  0.1836
21441W        W64358  21.451   6.226   1.462  0.0883 -0.1286  0.3280
21442W        W64359  26.542  11.631   2.253  0.0698  0.1824 -0.0895
21443W        W64360  23.661   9.072   1.071 -0.4890  0.0778  0.0376
21444W        W64361  19.602   9.767   5.336  0.0947 -0.0434  0.2469
21445W        W64362  21.832   8.066   3.666 -0.1183 -0.1924 -0.2929
21446W        W64363  23.923   9.363   1.801 -0.0980  0.2881 -0.0493
21447W        W64364  23.697   7.707   1.950 -0.2326 -0.1924 -0.1204
21448W        W64365  21.636   7.573   1.843 -0.2781  0.1456  0.0573
21449W        W64366  23.878  12.473   3.251 -0.2570 -0.1878  0.0411
21450W        W64367  20.103  12.396  31.361 -0.1234 -0.0099 -0.0413
21451W        W64368  22.200   8.280   0.595 -0.1827  0.2256  0.0816
21452W        W64369  21.857  11.900   0.346  0.1482  0.3690  0.2160
21453W        W64370  24.538   8.555   2.236  0.2605 -0.2581 -0.3487
21454W        W64371  24.087   8.740   2.485  0.0820 -0.2197 -0.1399
21455W        W64372  23.624   7.815   3.710  0.1499  0.0081  0.2269
21456W        W64373  23.669  10.326   1.375  0.3598 -0.2765  0.2622
21457W        W64374  20.910  11.277   1.899 -0.2432 -0.0476 -0.2296
21458W        W64375  23.545  10.191   0.388 -0.1302 -0.0600  0.1847
21459W        W64376  23.557   9.619   0.899 -0.2388 -0.1514 -0.0834
21460W        W64377  22.960   8.877   3.022 -0.0805  0.0446  0.3093
21461W        W64378  24.133  10.927  30.217  0.0714 -0.0432  0.1718
21462W        W64379  23.459   7.806   1.480  0.0870 -0.2360  0.2123
21463W        W64380  24.761   7.936   1.007  0.1619 -0.3756  0.0513
21464W        W64381  21.552  12.080   2.614  0.0513  0.0795  0.0729
21465W        W64382  25.822  11.231   2.610 -0.2438  0.3811 -0.0344
21466W        W64383  24.788  10.324  31.842  0.3836  0.0746  0.1984
21467W        W64384  23.361   8.607   0.962 -0.1601 -0.0996 -0.0579
21468W        W64385  24.823   9.055   1.530  0.2292  0.1656 -0.5440
21469W        W64386  20.221  10.219   3.647  0.0316  0.0045  0.0908
21470W        W64387  24.433   8.164   4.132 -0.1953  0.0245  0.1778
21471W        W64388  23.416  12.612   2.849  0.2472  0.0907 -0.0839
21472W        W64389  23.708   9.209   0.424  0.0307  0.3944 -0.0244
21473W        W64390  20.914   8.621  31.728  0.0134  0.0654  0.1202
21474W        W64391  25.143   8.042   1.498  0.2759 -0.1069  0.0209
21475W        W64392  23.266  11.822   0.934  0.2183  0.0213  0.4229
21476W        W64393  24.173   9.157   2.715 -0.0934 -0.5582  0.1843
21477W        W64394  23.315   6.697   2.827  0.1311  0.2683  0.2919
21478W        W64395  22.313   8.171   4.130 -0.2374 -0.1082 -0.1561
21479W        W64396  27.302   7.259   3.324 -0.0210  0.0626 -0.0100
21480W        W64397  23.317   7.573   0.512 -0.2202 -0.0100 -0.2004
21481W        W64398  25.574   9.962   2.326 -0.1954 -0.1112 -0.0863
21482W        W64399  21.949   8.857  30.793 -0.1249 -0.1124  0.1970
21483W        W64400  22.732   6.940   4.016  0.3611  0.1050 -0.2962
21484W        W64401  22.968   9.774   2.584  0.0939  0.0671 -0.0072
21485W        W64402  22.685  10.696   2.583 -0.0919 -0.3849  0.0308
21486W        W64403  22.801  11.274  31.333  0.3299  0.1087 -0.0355
21487W        W64404  26.058  10.451   2.062 -0.0060 -0.1310 -0.1343
21488W        W64405  23.412   8.128   1.869  0.0156  0.0498 -0.0424
21489W        W64406  23.332   6.675   0.908 -0.0476 -0.2877  0.1989
21490W        W64407  24.160  10.988   0.757  0.0371  0.2874  0.0824
21491W        W64408  21.516   9.067  31.580 -0.0323 -0.0911  0.0260
21492W        W64409  25.156   6.373   0.933  0.1525 -0.1764  0.1078
21493W        W64410  25.431  11.112   3.167  0.1267 -0.1491 -0.0013
21494W        W64411  23.095  10.132  30.724 -0.2171 -0.2027 -0.0352
21495W        W64412  25.383  10.440   2.469 -0.0720  0.1351 -0.1541
21496W        W64413  21.013  11.905  31.751  0.3224 -0.0764  0.2807
21497W        W64414  25.670   7.588   2.508 -0.0834  0.2558  0.0623
21498W        W64415  22.845  10.503   3.005  0.0980 -0.0271 -0.1146
21499W        W64416  23.890  11.044  31.612 -0.1789 -0.0900 -0.1055
21500W        W64417  22.267   9.807   0.451  0.1000 -0.0859  0.4312
21501W        W64418  27.201   8.664   2.914  0.0279  0.0791 -0.2825
21502W        W64419  24.224  11.021  31.266  0.0619 -0.1030  0.3974
21503W        W64420  23.004   7.780   1.292 -0.0145 -0.2329 -0.1104
21504W        W64421  23.400   6.875   2.351  0.0894 -0.1167  0.0573
21505W        W64422  20.407  11.367   2.006 -0.2398 -0.3240  0.0811
21506W        W64423  24.559   9.449   0.601 -0.0542 -0.1514  0.0830
21507W        W64424  24.429   9.271   1.800  0.2577 -0.2012 -0.2363
21508W        W64425  22.410  10.660   3.031 -0.2152 -0.0881 -0.0005
21509W        W64426  23.145  10.228   1.870 -0.1203  0.1526  0.2093
21510W        W64427  22.484   9.743  30.040  0.0882 -0.1135 -0.0196
21511W        W64428  27.870  10.388   3.524 -0.3295  0.1740 -0.0112
21512W        W64429  22.968   8.666   0.172  0.2075 -0.2708  0.0751
21513W        W64430  21.732  10.470   1.265 -0.0324  0.2890  0.0221
21514W        W64431  23.914  11.864   3.117 -0.1343  0.2056  0.0799
21515W        W64432  22.006   8.353   0.129 -0.0398 -0.1018 -0.0420
21516W        W64433  23.025  10.134   0.378 -0.0894 -0.0324  0.1740
21517W        W64434  23.211   9.152   2.036 -0.0495  0.2101  0.1986
21518W        W64435  24.657  10.475   1.669  0.0103 -0.0944  0.1638
21519W        W64436  23.106   9.028   1.551  0.2128  0.0326  0.0028
21520W        W64437  24.186   8.180   1.969  0.0661  0.2902 -0.2292
21521W        W64438  23.229   9.246   1.080 -0.1346 -0.0195  0.2181
21522W        W64439  23.890   9.901   1.791 -0.2714 -0.2723 -0.0371
21523W        W64440  22.944  10.163   1.280 -0.1481 -0.0398  0.3003
21524W        W64441  22.240  10.881   1.834  0.0784 -0.0339  0.4025
21525W        W64442  23.183   5.621   1.847 -0.0888  0.2496 -0.1413
21526W        W64443  23.203  11.659   1.407 -0.7336 -0.0641 -0.0301
21527W        W64444  26.701   8.574   2.773 -0.0632 -0.0366 -0.3677
21528W        W64445  22.107   9.341   0.396 -0.0815 -0.1564  0.2223
21529W        W64446  22.855   9.850   1.575  0.3218 -0.2104 -0.2737
21530W        W64447  22.535  10.555   1.107 -0.1084 -0.4842  0.2765
21531W        W64448  24.296   9.763   2.020  0.0308  0.0741 -0.0417
21532W        W64449  21.278  10.371   2.542  0.3091  0.0387 -0.0927
21533W        W64450  21.947   9.127  31.856 -0.1602 -0.0311 -0.0023
21534W        W64451  21.484  10.844   1.067 -0.1499 -0.2164 -0.2075
21535W        W64452  23.218   9.429   0.628 -0.0278  0.0698 -0.0336
21536W        W64453  25.069  10.805   1.563 -0.1860  0.3275  0.0971
21537W        W64454  22.183   6.401   3.139 -0.0859  0.1130  0.1971
21538W        W64455  27.987   8.631   2.729  0.5794  0.1629  0.1719
21539W        W64456  23.551   9.701   0.387  0.1576 -0.1802  0.0972
21540W        W64457  24.004   7.297   2.181 -0.0309  0.0809  0.0369
21541W        W64458  21.455   8.600   1.824  0.0437 -0.1054  0.0676
21542W        W64459  23.113  11.854  31.660  0.0356 -0.1946 -0.4407
21543W        W64460  20.979   8.492   3.610  0.1877  0.1114  0.0646
21544W        W64461  21.566  13.138   3.296  0.0377 -0.0327 -0.0135
21545W        W64462  20.383   9.520   4.130  0.0225  0.0195 -0.2352
21546W        W64463  22.688   7.853   2.156 -0.3389 -0.1016 -0.1058
21547W        W64464  23.172   7.313   1.336  0.0230 -0.0053  0.2136
21548W        W64465  22.536   9.695   2.224  0.0956  0.3253 -0.2162
21549W        W64466  23.186   9.527   1.662 -0.2582  0.2157  0.4099
21550W        W64467  22.670  11.568   1.611  0.0209  0.0076  0.0058
21551W        W64468  24.598   8.760   0.649  0.4748 -0.1337 -0.0957
21552W        W64469  21.418   9.663   1.559 -0.0009  0.0181  0.6067
21553W        W64470  23.351   8.098   0.360  0.3212 -0.0888 -0.3117
21554W        W64471  24.731  10.000   1.839 -0.1239  0.0949 -0.0899
21555W        W64472  21.254  10.528   1.447  0.1839  0.0173  0.0839
21556W        W64473  22.258   7.720   3.988  0.0561  0.2989 -0.3624
21557W        W64474  25.291   9.663  31.886  0.0110 -0.0091  0.1302
21558W        W64475  24.851   9.248   2.668 -0.0179  0.1151  0.1510
21559W        W64476  23.082   7.175   1.857 -0.2466 -0.2408  0.3432
21560W        W64477  24.789   8.287   2.703  0.0410  0.1548 -0.1096
21561W        W64478  23.340   6.071   2.659  0.1442 -0.2896  0.0641
21562W        W64479  22.704   7.368   4.304  0.1085  0.0736  0.2893
21563W        W64480  24.080  10.240   0.415 -0.1319  0.0561  0.2180
21564W        W64481  24.487   7.297  30.139  0.1051  0.0942 -0.2033
21565W        W64482  24.934   9.348   2.065 -0.1395  0.0214  0.0893
21566W        W64483  25.280   9.025   0.754 -0.0209  0.0440  0.2395
21567W        W64484  22.052   8.799   0.431 -0.4311 -0.3211  0.0417
21568W        W64485  22.820   8.832   1.876 -0.0037 -0.1651 -0.1840
21569W        W64486  25.932   8.279   1.744 -0.0655  0.2515  0.1021
21570W        W64487  22.240   6.377  30.579  0.2317 -0.1506 -0.2346
21571W        W64488  23.585   7.209   1.953 -0.0080  0.2449  0.1978
21572W        W64489  23.875  10.530   0.893 -0.3766 -0.2298  0.0481
21573W        W64490  25.262  10.830   0.619 -0.0901  0.0565 -0.1410
21574W        W64491  25.413   8.007   2.348 -0.3772 -0.1465  0.0557
21575W        W64492  23.486   6.904  31.855 -0.4816  0.1889  0.0097
21576W        W64493  22.459  12.270   2.169 -0.1316 -0.2223 -0.0634
21577W        W64494  22.067   6.387   1.391  0.0745  0.0689 -0.1143
21578W        W64495  24.409   9.806   0.869  0.0304  0.0135  0.0517
21579W        W64496  25.268   8.750   1.657 -0.3047  0.2470 -0.1248
21580W        W64497  24.982   7.789   2.501  0.2120  0.0983  0.1140
21581W        W64498  23.312   8.834  31.828  0.0469  0.0109  0.2105
21582W        W64499  25.609   7.068   3.247 -0.0548  0.2094 -0.1582
21583W        W64500  22.154  10.039   1.946  0.1249 -0.0622 -0.0254
21584W        W64501  24.134   7.192   1.705 -0.0388  0.1129 -0.2958
21585W        W64502  23.236  13.643   2.285 -0.0244  0.2128 -0.2955
21586W        W64503  20.564  11.057   2.397 -0.4466 -0.2319  0.2874
21587W        W64504  22.984  10.952   1.408 -0.0019 -0.0174 -0.0336
21588W        W64505  20.958   8.200   2.751 -0.2380  0.0137  0.0524
21589W        W64506  26.997  10.669   0.903 -0.1891  0.2579 -0.0745
21590W        W64507  23.666  11.115   0.912  0.2102  0.0132  0.0163
21591W        W64508  26.817   9.850   2.217  0.5378 -0.0120  0.0699
21592W        W64509  23.357  10.761   2.345  0.2486 -0.1130 -0.4032
21593W        W64510  22.538  10.215  31.514  0.0766  0.1906  0.3050
21594W        W64511  23.604   9.889   3.796  0.1908  0.0025 -0.0644
21595W        W64512  25.743  10.710   2.870 -0.0856 -0.0577 -0.2167
21596W        W64513  20.903  11.699   2.101  0.0096  0.1397  0.0714
21597W        W64514  22.235   8.285   5.616  0.0234  0.1595 -0.2480
21598W        W64515  22.034   8.758   2.941 -0.2381 -0.0571  0.2411
21599W        W64516  23.733  10.913   2.694 -0.0266 -0.0611 -0.0882
21600W        W64517  25.087   7.924   1.957 -0.1866 -0.0447  0.0686
21601W        W64518  22.054   9.097   1.646  0.0861 -0.2804 -0.0929
21602W        W64519  22.593  11.960   2.599 -0.0024 -0.1575  0.1854
21603W        W64520  22.341   9.473   1.316 -0.0883 -0.1357 -0.2369
21604W        W64521  22.615  11.918  31.654 -0.1445 -0.2321  0.0525
21605W        W64522  22.361  11.353   1.921  0.0382  0.0402  0.1696
21606W        W64523  24.286   9.664   1.518 -0.0306  0.1060 -0.1242
21607W        W64524  23.518  11.263   2.267  0.0933  0.1096 -0.2408
21608W        W64525  24.456   8.248   0.040  0.2409 -0.0947 -0.3030
21609W        W64526  20.398  11.891   2.001 -0.2244 -0.0176 -0.3121
21610W        W64527  19.707  11.349  30.056  0.0364  0.0284  0.2757
21611W        W64528  23.012   9.673   1.157 -0.0686  0.0661 -0.0942
21612W        W64529  21.625  13.590   0.819  0.1853  0.0776 -0.2371
21613W        W64530  26.922  11.534   2.567 -0.0330  0.0290  0.5218
21614W        W64531  22.553   7.798   0.093  0.1199 -0.0210 -0.2948
21615W        W64532  25.224  10.367   1.138 -0.0489  0.0673  0.0942
21616W        W64533  23.729   8.682   1.319 -0.1141  0.0766 -0.1626
21617W        W64534  24.797  10.406   3.291  0.2499 -0.1065 -0.1524
21618W        W64535  25.210  10.477   0.085 -0.1765 -0.0272 -0.2379
21619W        W64536  20.070   7.992   1.155 -0.1240 -0.1081  0.0310
21620W        W64537  21.377  10.579   4.421  0.1350  0.0090  0.2428
21621W        W64538  26.545   6.603   3.756 -0.0174  0.2323 -0.1234
21622W        W64539  20.757  12.306   2.045  0.2340  0.1491 -0.0361
21623W        W64540  23.665  11.498  31.774 -0.0276 -0.0107  0.0146
21624W        W64541  22.511   8.318   0.206 -0.1616  0.1367 -0.1743
21625W        W64542  22.041   9.727   2.304 -0.3768  0.1130 -0.2875
21626W        W64543  25.172   5.886   2.643  0.3784 -0.1134 -0.2373
21627W        W64544  24.395   9.819   0.328  0.0135 -0.0347 -0.1258
21628W        W64545  22.212   9.102   0.887  0.0892 -0.1497  0.0626
21629W        W64546  20.786  14.914   0.796 -0.0698 -0.1216 -0.0432
21630W        W64547  23.707   9.621  31.543  0.1290 -0.2360  0.0191
21631W        W64548  23.780  11.961   4.113 -0.1673 -0.0298  0.2004
21632W        W64549  22.074   7.307   1.093 -0.0623 -0.3007  0.4326
21633W        W64550  24.503   9.213  31.403 -0.3731  0.1086  0.2319
21634W        W64551  22.353  10.139   2.404 -0.1681 -0.0648 -0.1762
21635W        W64552  25.287   6.044   1.381 -0.1102  0.1448  0.3972
21636W        W64553  21.170   9.010   0.053 -0.0806 -0.0182 -0.1508
21637W        W64554  23.656   7.149   0.379 -0.0176  0.1054 -0.2628
21638W        W64555  24.057   8.148   3.738  0.0560  0.1447  0.0784
21639W        W64556  21.270   8.391   3.180 -0.0356 -0.1806 -0.0245
21640W        W64557  22.748   9.320   0.881 -0.3256 -0.0081  0.1733
21641W        W64558  26.079   9.736   2.467 -0.1989 -0.3898 -0.1458
21642W        W64559  21.967   9.932   1.398 -0.2239 -0.2221 -0.3390
21643W        W64560  24.513   9.521   2.464 -0.1365  0.0555  0.3434
21644W        W64561  21.115   9.362   3.213  0.1776  0.0125  0.1269
21645W        W64562  22.178  10.459   1.510 -0.2267 -0.1145 -0.1084
21646W        W64563  23.231   8.925   0.560  0.2310 -0.0124 -0.1621
21647W        W64564  23.259  10.061   0.811 -0.2758  0.1512 -0.1663
21648W        W64565  23.705  10.385   2.598  0.2254  0.1079 -0.0395
21649W        W64566  22.360   9.469   2.639 -0.0391 -0.0356  0.1546
21650W        W64567  26.214  10.469   0.423  0.0956  0.1701  0.1885
21651W        W64568  27.269  10.777   1.834 -0.1789  0.1272  0.4443
21652W        W64569  23.071  12.472  29.148 -0.1395 -0.0624  0.3741
21653W        W64570  25.765   9.903   1.860  0.0488  0.2182  0.0731
21654W        W64571  24.530  11.164   0.998 -0.1315 -0.3729  0.0194
21655W        W64572  22.365   8.237   2.925 -0.2481  0.0216 -0.1546
21656W        W64573  23.725   8.931   2.795  0.3185  0.2158 -0.0314
21657W        W64574  26.692  10.366   2.685  0.1847  0.3753 -0.1100
21658W        W64575  24.700   6.840   1.844  0.0011  0.1334  0.0042
21659W        W64576  23.659   8.499   2.217  0.2418  0.1837  0.1239
21660W        W64577  20.759   9.898   0.852  0.0297 -0.1884 -0.5544
21661W        W64578  28.176   9.973   1.162  0.0889  0.0820  0.0149
21662W        W64579  25.924   8.082   3.598  0.3066  0.0952  0.2537
21663W        W64580  22.858   6.954   2.942  0.2153  0.3893  0.0648
21664W        W64581  24.501   8.875   1.118 -0.2899  0.1130  0.0974
21665W        W64582  21.622  10.719   1.710 -0.1322 -0.0465  0.1917
21666W        W64583  21.282  10.382   0.443 -0.1170 -0.2400  0.0139
21667W        W64584  22.878   8.737   0.941  0.1678 -0.1092 -0.2569
21668W        W64585  23.747  10.810   1.499 -0.2411 -0.1798  0.0307
21669W        W64586  22.435  10.700  31.174 -0.0760  0.0815  0.0762
21670W        W64587  23.832  10.882   2.179  0.1900 -0.0151 -0.0009
21671W        W64588  23.226   8.587   1.974 -0.0666  0.1277 -0.1036
21672W        W64589  26.219  11.177   0.829 -0.0455  0.0675  0.1419
21673W        W64590  25.003   6.460   2.179 -0.0589  0.0318 -0.0589
21674W        W64591  26.080   7.814   2.199  0.0772  0.2158  0.0636
21675W        W64592  25.805   6.524   1.577  0.1911  0.4430 -0.6035
21676W        W64593  23.743   8.039   2.350 -0.3198 -0.1459  0.0071
21677W        W64594  23.362   6.922   1.530  0.0289  0.0945  0.0303
21678W        W64595  21.491   8.286  31.061 -0.0024 -0.2399 -0.2652
21679W        W64596  21.317   9.848   2.584  0.1816  0.1461  0.0610
21680W        W64597  22.879   6.917   2.426  0.1082  0.0925  0.0019
21681W        W64598  21.488  10.009   5.050  0.0818 -0.1429  0.0405
21682W        W64599  20.974  10.297   2.155 -0.3113 -0.0211 -0.0653
21683W        W64600  21.861   8.065   1.757  0.1426 -0.1590 -0.1438
21684W        W64601  24.505  10.232  31.414 -0.4570 -0.0084 -0.1795
21685W        W64602  20.878   7.891   3.118 -0.0919  0.2321 -0.0792
21686W        W64603  24.015   9.674   1.118 -0.0619  0.1740 -0.1890
21687W        W64604  21.926  10.542   2.078 -0.2719  0.2135  0.0506
21688W        W64605  24.413  12.543   0.809 -0.1200 -0.0726 -0.1132
21689W        W64606  23.565   8.997   1.760  0.2683  0.0078 -0.2445
21690W        W64607  25.992  10.409   3.748 -0.4440 -0.1978  0.0815
21691W        W64608  23.432   7.598   0.997 -0.2409 -0.0730  0.3254
21692W        W64609  25.420   9.194   1.923  0.3536  0.3493  0.0533
21693W        W64610  22.914   9.523   3.132 -0.0273  0.2685 -0.0135
21694W        W64611  20.729   9.121  31.796 -0.2171 -0.1209 -0.0466
21695W        W64612  25.034  10.540   2.859  0.1150  0.1820 -0.3073
21696W        W64613  24.065  11.894   2.597 -0.0421 -0.2726 -0.0063
21697W        W64614  25.247  12.166   0.404 -0.0782 -0.1042 -0.0443
21698W        W64615  22.731   9.324   1.814  0.2061  0.4210 -0.3051
21699W        W64616  22.222  14.808   2.984  0.0973 -0.1030  0.0161
21700W        W64617  21.969   9.286   2.934 -0.1749 -0.0354  0.1618
21701W        W64618  22.392   8.594   1.069  0.1324  0.2996  0.1447
21702W        W64619  23.785   9.393   2.999 -0.0408  0.0001  0.1834
21703W        W64620  25.037  11.284   1.926  0.0440 -0.1471 -0.0060
21704W        W64621  26.240   7.580   0.978  0.2373  0.2675  0.0551
21705W        W64622  21.109  10.071   1.622 -0.3030 -0.0305  0.0131
21706W        W64623  22.411   8.757   2.142  0.1428 -0.1070  0.1407
21707W        W64624  23.639   7.424   4.072  0.0614 -0.4162  0.1072
21708W        W64625  26.576  12.155   3.184  0.1838  0.0288  0.0183
21709W        W64626  21.485   9.155   1.600 -0.1222 -0.1378 -0.1685
21710W        W64627  24.505   9.383   1.158  0.1443  0.1165  0.1755
21711W        W64628  23.236  10.541   1.492  0.0360 -0.1812  0.4920
21712W        W64629  22.880   7.931   0.451  0.0915  0.2679  0.2121
21713W        W64630  22.527   8.362  31.568  0.0011  0.0755 -0.2057
21714W        W64631  24.100   9.191   0.867  0.2373  0.1281  0.3106
21715W        W64632  22.223  11.490   1.425  0.1465  0.1360  0.0274
21716W        W64633  25.658   9.786   3.303 -0.1130  0.3510 -0.0493
21717W        W64634  23.704   7.881   0.675 -0.0598  0.0348 -0.2815
21718W        W64635  23.776  11.369  31.262  0.4192  0.0555 -0.2240
21719W        W64636  23.556   9.583   2.073 -0.0211  0.0232  0.0127
21720W        W64637  24.584  10.949   1.484  0.1437 -0.1395  0.0852
21721W        W64638  22.859  12.724   3.537  0.0826  0.6189  0.0059
21722W        W64639  24.188  10.897   1.817 -0.1216 -0.2196 -0.5469
21723W        W64640  23.064   7.449   3.241 -0.2449 -0.1480  0.2352
21724W        W64641  22.088   8.210   1.177 -0.1572  0.1764  0.0224
21725W        W64642  21.612  10.033   2.162  0.0808  0.1656  0.0507
21726W        W64643  24.917   7.854   2.956 -0.1161  0.0681  0.1660
21727W        W64644  21.988   7.786   0.862 -0.0383  0.1742 -0.1416
21728W        W64645  24.030   5.607   1.308  0.1794  0.0002  0.0616
21729W        W64646  21.861  11.094   3.825 -0.3949  0.0756 -0.1357
21730W        W64647  25.562   9.707   2.733 -0.1042 -0.0879  0.3790
21731W        W64648  21.954   7.692   6.723  0.2131 -0.1159 -0.2819
21732W        W64649  21.698  11.362   4.659  0.0008 -0.1581 -0.1328
21733W        W64650  24.546   7.340   2.154  0.0377 -0.0864 -0.1149
21734W        W64651  25.084   8.799   1.191 -0.1245  0.0114 -0.2371
21735W        W64652  22.602   9.024   3.970 -0.3400  0.4848 -0.0140
21736W        W64653  24.248   9.361   3.473  0.0304  0.2242 -0.1441
21737W        W64654  23.223   7.714   4.046  0.3163 -0.1342 -0.0808
21738W        W64655  25.950  10.199   3.306  0.0600 -0.2105 -0.0743
21739W        W64656  25.916   9.734   5.435 -0.2498  0.1365  0.1700
21740W        W64657  23.208   6.877   3.807 -0.0556  0.2930  0.4253
21741W        W64658  23.668   8.081   4.783 -0.1861 -0.1147  0.0752
21742W        W64659  24.231  10.083   6.052  0.2633  0.0907  0.3707
21743W        W64660  25.206   8.756   4.365  0.0378  0.0704 -0.2482
21744W        W64661  20.771   8.174   4.554 -0.1387  0.2414 -0.2460
21745W        W64662  24.175   8.570   3.429 -0.2119 -0.1342  0.1755
21746W        W64663  23.001  10.750   5.783  0.0399 -0.0658 -0.2999
21747W        W64664  22.902   7.787   5.841 -0.0707 -0.1626  0.0615
21748W        W64665  24.137   8.275   4.934  0.0046  0.0228 -0.2114
21749W        W64666  21.360  10.312   3.832  0.2804  0.1643 -0.0394
21750W        W64667  24.726   6.171   5.455 -0.2349 -0.1661 -0.1373
21751W        W64668  22.567   7.398   6.017 -0.0858 -0.0221 -0.0927
21752W        W64669  22.444   9.724   4.673 -0.0178 -0.1101 -0.3734
21753W        W64670  23.615   7.667   4.547  0.1228 -0.3288  0.0252
21754W        W64671  22.317   9.775   5.877 -0.1440 -0.2004  0.1541
21755W        W64672  21.877   9.068   6.504 -0.0721 -0.2054  0.0382
21756W        W64673  24.304   8.576   4.553 -0.2348 -0.1552 -0.0874
21757W        W64674  26.953   7.872   2.493 -0.2843  0.0059 -0.0580
21758W        W64675  22.026   9.759   4.912  0.3215  0.1179  0.3626
21759W        W64676  23.067   9.400   4.520 -0.0034 -0.1096 -0.2246
21760W        W64677  22.989   9.430   5.361 -0.3178 -0.0946  0.0427
21761W        W64678  23.205  10.710   5.290  0.2262 -0.0107 -0.0298
21762W        W64679  23.320  11.263   3.708 -0.1732 -0.0638 -0.1314
21763W        W64680  22.322  10.847   3.712 -0.1399  0.0375 -0.1339
21764W        W64681  26.668  10.861   3.230  0.0812 -0.2489 -0.1641
21765W        W64682  24.655  10.213   5.079  0.1619  0.3469  0.1356
21766W        W64683  23.181  10.129   7.215  0.0040  0.0953  0.2119
21767W        W64684  21.896   9.990   3.804 -0.2074  0.1489 -0.0107
21768W        W64685  23.888   8.692   6.790 -0.2894 -0.0546 -0.0851
21769W        W64686  23.049  11.565   6.515  0.0123  0.1872  0.3032
21770W        W64687  23.763   7.151   4.442  0.3646 -0.1678  0.1520
21771W        W64688  22.393   9.688   3.102  0.6189  0.1579 -0.0526
21772W        W64689  24.563   8.784   3.650  0.1789 -0.1222 -0.0416
21773W        W64690  22.244  10.185   4.960 -0.3731  0.0725 -0.2605
21774W        W64691  22.610   9.574   8.148  0.0759 -0.0120 -0.0547
21775W        W64692  23.231   9.496   5.813 -0.0862  0.6187 -0.0094
21776W        W64693  26.370   7.455   5.508  0.1672  0.0038 -0.0627
21777W        W64694  21.887  11.038   2.889  0.2664  0.1328  0.0205
21778W        W64695  23.227   8.046   3.070 -0.0578 -0.4798  0.2126
21779W        W64696  23.366   8.642   3.000  0.0773 -0.0453 -0.2847
21780W        W64697  24.668   8.505   3.216 -0.0888 -0.0333  0.0254
21781W        W64698  23.057   6.242   6.292 -0.1099  0.0342  0.0427
21782W        W64699  22.514  11.510   5.320 -0.3554 -0.0844  0.3547
21783W        W64700  22.697   8.335   5.197 -0.0453 -0.1077  0.0200
21784W        W64701  25.400   9.000   5.431  0.2925  0.1220  0.1769
21785W        W64702  23.521   9.364   5.353  0.3045 -0.2658  0.3466
21786W        W64703  23.682   5.527   3.387  0.0730 -0.1131  0.0245
21787W        W64704  23.433   8.783   6.590  0.1766  0.0725  0.1256
21788W        W64705  21.549   9.069   5.483 -0.2767 -0.1986  0.2343
21789W        W64706  24.601   9.911   4.132  0.0227 -0.2940 -0.1276
21790W        W64707  26.316   9.790   3.378 -0.2278  0.0868 -0.0780
21791W        W64708  24.410   9.971   2.483  0.3239 -0.0077  0.0031
21792W        W64709  22.692  10.079   3.384 -0.1796  0.2334 -0.0016
21793W        W64710  21.446  10.751   6.038 -0.0119  0.4392  0.2719
21794W        W64711  22.217  10.486   6.837 -0.1202  0.0581  0.2284
21795W        W64712  21.705   8.393   4.540 -0.0059  0.3303 -0.4214
21796W        W64713  24.199  10.125   7.508 -0.2042  0.0079  0.2193
21797W        W64714  23.268   8.276   6.477 -0.1095  0.2036  0.1232
21798W        W64715  26.815   7.870   3.294 -0.0819  0.0916 -0.0034
21799W        W64716  21.906   9.761   5.503  0.2391 -0.0822 -0.4709
21800W        W64717  25.262  10.206   4.220 -0.0707 -0.1139 -0.1371
21801W        W64718  23.403   8.925   3.952  0.2521  0.0760  0.1596
21802W        W64719  25.609   8.069   4.721 -0.3448 -0.1429 -0.0636
21803W        W64720  23.639   8.333   3.386 -0.1774 -0.2067 -0.0160
21804W        W64721  23.086   9.823   3.678  0.0165 -0.0919  0.3091
21805W        W64722  21.164   8.575   4.047  0.2201  0.0221 -0.2372
21806W        W64723  25.216   8.508   5.527  0.0138 -0.0015 -0.0907
21807W        W64724  23.398   7.379   3.616 -0.1408  0.3489 -0.1400
21808W        W64725  22.529  10.682   5.600 -0.1329  0.0780 -0.2745
21809W        W64726  23.713   8.405   5.194 -0.0407 -0.3295 -0.3176
21810W        W64727  25.599   8.628   4.981 -0.3424  0.0748 -0.0348
21811W        W64728  21.849   9.472   3.848  0.0599  0.3621 -0.3223
21812W        W64729  21.180  11.322   4.548 -0.1938  0.1095  0.0338
21813W        W64730  20.087   9.737   4.875 -0.3501  0.0546 -0.2661
21814W        W64731  22.533   7.768   4.504 -0.0586  0.0836  0.0387
21815W        W64732  22.067  10.863   6.447  0.2424  0.1634  0.1496
21816W        W64733  24.167   7.483   5.374  0.0089 -0.0002 -0.1330
21817W        W64734  23.813   7.598   5.869 -0.0830  0.0725 -0.0584
21818W        W64735  25.312   7.105   4.479 -0.2997  0.0714 -0.0995
21819W        W64736  20.402   9.779   3.656  0.1784 -0.2175 -0.1310
21820W        W64737  26.210  10.595   4.245  0.0548 -0.2332 -0.3516
21821W        W64738  24.573   7.857   4.689 -0.0978  0.2134  0.0882
21822W        W64739  25.247   9.280   1.176  0.0354 -0.1603  0.2677
21823W        W64740  23.121   7.258   6.650  0.0149 -0.1696  0.2020
21824W        W64741  22.781   9.653   4.212  0.1302  0.0787 -0.1634
21825W        W64742  23.070   7.912   5.379  0.0468 -0.1010  0.0400
21826W        W64743  21.470   9.732   3.470  0.0067  0.1673  0.0868
21827W        W64744  24.050   9.568   6.505  0.1463 -0.3650  0.0179
21828W        W64745  24.034   7.815   4.056 -0.0637  0.1785  0.2126
21829W        W64746  24.262   9.669   2.858 -0.1766  0.0003 -0.0681
21830W        W64747  21.986   7.938   4.687  0.3322 -0.6897 -0.4357
21831W        W64748  20.861  10.673   5.770  0.1813 -0.4170 -0.2038
21832W        W64749  25.282   7.388   5.404  0.2577 -0.0863  0.1386
21833W        W64750  23.523  10.339   3.967  0.0772 -0.3404 -0.1003
21834W        W64751  24.589  10.601   8.770 -0.2083  0.3699 -0.2891
21835W        W64752  23.793  11.251   1.839 -0.1093 -0.0106 -0.3644
21836W        W64753  24.375   7.233   4.036 -0.0594  0.4427 -0.2644
21837W        W64754  22.287   9.237   5.806 -0.2030 -0.2394  0.2642
21838W        W64755  22.509  10.982   5.109 -0.0340  0.3133 -0.1164
21839W        W64756  25.510  10.371   5.033 -0.1587 -0.2412  0.1938
21840W        W64757  23.666   9.104   2.283 -0.0173  0.0333 -0.1040
21841W        W64758  24.450  10.726   4.280 -0.0206 -0.0602  0.0620
21842W        W64759  23.242   8.685   3.479  0.3932  0.1791 -0.0336
21843W        W64760  22.355  10.087   3.958  0.0425 -0.0626 -0.0220
21844W        W64761  23.288   8.032   7.150  0.3861  0.1120 -0.1513
21845W        W64762  23.769  10.089   5.155  0.1151 -0.1444  0.0033
21846W        W64763  21.782   7.343   4.925 -0.1806 -0.0763 -0.0625
21847W        W64764  23.234   9.361   2.514 -0.0391  0.3164 -0.2269
21848W        W64765  23.608  10.565   3.170  0.2701 -0.0373 -0.0311
21849W        W64766  23.793   8.972   3.317  0.0519  0.0676 -0.0723
21850W        W64767  22.450   9.748   7.047 -0.0379  0.3377 -0.1869
21851W        W64768  19.771  10.359   4.117 -0.1584 -0.0304  0.0838
21852W        W64769  25.971   6.645   5.644 -0.1765 -0.6255  0.1030
21853W        W64770  22.219   8.938   6.164  0.0924 -0.0387 -0.3150
21854W        W64771  23.706   8.937   4.386 -0.0268 -0.1223  0.2177
21855W        W64772  22.382  10.172   5.437 -0.1400  0.0420 -0.0979
21856W        W64773  21.568  10.314   5.781 -0.0927  0.1178 -0.0773
21857W        W64774  26.394  10.166   2.378  0.4051  0.0878  0.1353
21858W        W64775  28.011   9.128   2.903 -0.0922  0.1751 -0.2296
21859W        W64776  21.125   8.451   6.857  0.3939  0.0446 -0.0733
21860W        W64777  24.894   9.750   3.419 -0.4333 -0.0818 -0.0617
21861W        W64778  23.864   8.061   1.608  0.1444  0.1922  0.0818
21862W        W64779  22.983   8.608   3.906  0.3029  0.1321  0.2565
21863W        W64780  21.590   9.225   8.147  0.1764  0.1132 -0.1070
21864W        W64781  23.808   9.287   4.109  0.2834 -0.1579  0.0244
21865W        W64782  23.198  10.026   5.883  0.1528 -0.4915  0.0151
21866W        W64783  26.108   7.760   4.043 -0.1329  0.0765 -0.1294
21867W        W64784  25.527  10.147   3.609 -0.0205 -0.2206 -0.0261
21868W        W64785  21.221  10.347   7.096  0.4338  0.1415 -0.1256
21869W        W64786  22.534  11.249   5.763  0.1655 -0.1445 -0.0799
21870W        W64787  24.741  10.386   4.173  0.0064 -0.0596  0.0762
21871W        W64788  23.953   7.111   4.883 -0.1254  0.3727 -0.0250
21872W        W64789  21.875   9.696   1.828  0.0598  0.2675 -0.0383
21873W        W64790  22.973   8.896   4.373  0.0762  0.2441 -0.2659
21874W        W64791  21.929  11.064   2.185 -0.1671 -0.2726  0.1722
21875W        W64792  24.811   7.232   5.245  0.1022 -0.2011  0.0229
21876W        W64793  24.223   8.649   6.080  0.0473 -0.0163 -0.3317
21877W        W64794  24.174   5.861   6.373 -0.0687  0.5869 -0.0152
21878W        W64795  25.563   8.932   6.589  0.0436  0.2756  0.0549
21879W        W64796  23.985   7.528   2.905  0.0637  0.0255  0.0684
21880W        W64797  24.934   8.893   5.665  0.0025  0.0568  0.0121
21881W        W64798  21.537  11.165   2.560 -0.0982 -0.3688  0.1574
21882W        W64799  23.849   4.771   5.119  0.0499  0.2519 -0.2047
21883W        W64800  21.460   9.056   6.893  0.1067 -0.0308 -0.2229
21884W        W64801  22.097  11.153   5.524 -0.2981  0.3502 -0.0268
21885W        W64802  24.518   9.764   5.773 -0.0125 -0.2896  0.1694
21886W        W64803  23.634  10.110   3.003  0.0005 -0.3166  0.1767
21887W        W64804  23.738   8.841   6.206 -0.2569  0.0880 -0.0575
21888W        W64805  23.679   7.010   3.812  0.3606  0.1143  0.0689
21889W        W64806  23.107  10.002   4.472 -0.3048 -0.0426  0.0208
21890W        W64807  23.448  10.011   2.293 -0.0813 -0.1322  0.2630
21891W        W64808  24.090   7.467   4.454  0.0704  0.1310  0.0394
21892W        W64809  23.429   9.858   5.446 -0.2928  0.1782 -0.1784
21893W        W64810  22.624  10.110   2.795  0.0304 -0.3575 -0.1746
21894W        W64811  23.660   8.155   6.815  0.0293  0.0747 -0.2939
21895W        W64812  22.049   9.975   4.421 -0.0713  0.0659 -0.4231
21896W        W64813  24.537   4.580   5.638  0.2109  0.1458 -0.0249
21897W        W64814  23.080  10.618   4.821  0.1889 -0.1384  0.4946
21898W        W64815  22.115   9.024   3.917  0.0207 -0.1452 -0.3046
21899W        W64816  22.012   9.466   4.481 -0.3161  0.0180  0.3416
21900W        W64817  24.926   8.481   3.981 -0.1224 -0.1895  0.0542
21901W        W64818  26.416   8.007   2.647 -0.0771  0.1530 -0.0444
21902W        W64819  21.279   9.391   5.707 -0.2824 -0.2876  0.0712
21903W        W64820  22.631   5.926   5.366 -0.1364 -0.0128 -0.1604
21904W        W64821  21.741  11.836   4.697 -0.0678 -0.0062 -0.0442
21905W        W64822  22.673  10.261   5.826  0.4004 -0.2345  0.1465
21906W        W64823  23.104   6.162   3.118 -0.0229  0.2404 -0.1353
21907W        W64824  23.875   8.855   4.885 -0.0332  0.2055 -0.1940
21908W        W64825  23.439   8.665   4.784  0.0641 -0.0696 -0.0339
21909W        W64826  21.510   9.538   2.976 -0.0322  0.1656 -0.0806
21910W        W64827  25.419   9.407   4.175  0.2098  0.3109 -0.0181
21911W        W64828  24.749   6.677   5.228 -0.2898 -0.0470  0.2291
21912W        W64829  19.222  11.707   3.214  0.2337  0.2098 -0.1341
21913W        W64830  23.293   8.197   3.887  0.1680 -0.0211 -0.2027
21914W        W64831  21.585   9.526   5.245 -0.4661 -0.0757 -0.1832
21915W        W64832  21.689  10.931   4.247 -0.2409 -0.1882  0.1317
21916W        W64833  23.536   9.676   4.965 -0.0427  0.1161 -0.3804
21917W        W64834  24.485   7.457   4.990  0.1639  0.0871 -0.0031
21918W        W64835  25.546   8.455   2.625 -0.1489  0.1307  0.4424
21919W        W64836  24.915   7.121   4.101  0.0007  0.2384 -0.1981
21920W        W64837  26.255   8.497   3.104  0.1654 -0.0771  0.1268
21921W        W64838  24.557   8.263   5.819 -0.2165 -0.1630 -0.3284
21922W        W64839  23.924   7.747   6.791  0.0461  0.1032 -0.1376
21923W        W64840  23.065   8.932   5.661  0.4648  0.0393 -0.1982
21924W        W64841  23.038   5.842   5.634  0.1161 -0.2353 -0.2054
21925W        W64842  26.506  11.753   3.505  0.0229  0.3863 -0.0561
21926W        W64843  25.037   8.504   6.042 -0.3102  0.1583  0.0971
21927W        W64844  22.772  10.560   3.515  0.2043 -0.1156 -0.1079
21928W        W64845  22.983   7.178   6.107  0.0353  0.3844  0.0267
21929W        W64846  21.862  10.190   2.578 -0.0374  0.0701  0.1232
21930W        W64847  23.923   7.966   5.373 -0.1592  0.1174 -0.0339
21931W        W64848  22.898   8.762   6.175  0.1028  0.1196  0.0459
21932W        W64849  22.089  10.651   4.194  0.1829  0.0909  0.1500
21933W        W64850  20.240  10.691   6.152  0.0079 -0.1840 -0.0034
21934W        W64851  26.750   6.856   4.137  0.0531  0.2100  0.1391
21935W        W64852  22.873   8.354   4.340  0.0467 -0.2600 -0.0010
21936W        W64853  24.450   7.949   5.175 -0.0911  0.1970 -0.2316
21937W        W64854  24.434   6.265   5.081  0.0462  0.0019 -0.2541
21938W        W64855  24.796   8.426   4.449 -0.0991  0.0711 -0.1178
21939W        W64856  24.343   5.555   5.916  0.2667  0.0462  0.1302
21940W        W64857  22.866   8.791   5.236  0.0113 -0.2190 -0.1396
21941W        W64858  25.084  10.827   3.491 -0.1079 -0.1017 -0.0678
21942W        W64859  19.686  11.430   6.122 -0.3681  0.0549  0.1885
21943W        W64860  24.322  10.345   6.584  0.0240  0.0188 -0.1126
21944W        W64861  22.727   8.546   6.568 -0.1745 -0.0042 -0.0524
21945W        W64862  26.125   6.854   3.376 -0.0231  0.0911 -0.1471
21946W        W64863  24.596   8.246   3.663  0.0484 -0.1429  0.1999
21947W        W64864  23.523   7.827   5.179 -0.0833  0.0203  0.1825
21948W        W64865  26.297   9.838   5.113 -0.0962  0.0190 -0.0926
21949W        W64866  21.414   9.856   3.971 -0.0001  0.2049 -0.3459
21950W        W64867  25.243   7.245   4.963  0.0915 -0.1020 -0.1476
21951W        W64868  20.880   9.965   6.186  0.1194 -0.2631 -0.2197
21952W        W64869  25.043   8.828   5.163 -0.1074 -0.0766 -0.1133
21953W        W64870  21.270   6.508   3.507  0.3750  0.2028  0.0279
21954W        W64871  23.145   9.327   3.960 -0.3353  0.0434  0.0997
21955W        W64872  24.960   6.474   5.784  0.0686 -0.1323  0.3711
21956W        W64873  24.326   8.956   3.154 -0.2051  0.1030 -0.0696
21957W        W64874  26.921   8.849   6.377 -0.0796 -0.0134 -0.1846
21958W        W64875  23.808   8.573   5.757 -0.1326  0.0525  0.0424
21959W        W64876  24.647   8.891   4.687 -0.1136 -0.2134  0.0615
21960W        W64877  25.040   8.587   7.102 -0.1097 -0.0061  0.3428
21961W        W64878  23.490   8.515   7.161 -0.0942 -0.0535 -0.2071
21962W        W64879  24.346  11.074   4.628 -0.0778  0.0679 -0.0984
21963W        W64880  24.863   8.968   3.078 -0.1607  0.2276  0.1895
21964W        W64881  24.580   9.208   5.090 -0.2057 -0.0049 -0.1351
21965W        W64882  25.433  11.279   2.260 -0.0403  0.1463  0.0038
21966W        W64883  24.448   7.764   3.822  0.1138  0.1510 -0.1300
21967W        W64884  22.870   7.489   5.068 -0.3039  0.2870 -0.0069
21968W        W64885  24.605   9.318   6.239 -0.2071 -0.2537  0.0348
21969W        W64886  22.763   9.942   4.966 -0.0835  0.0236  0.0397
21970W        W64887  23.738   9.201   6.577 -0.1751  0.1243  0.1822
21971W        W64888  24.419   9.897   3.304  0.0598 -0.1806  0.1755
21972W        W64889  23.281  10.319   3.546 -0.1567  0.0583 -0.3542
21973W        W64890  23.962   9.006   5.406 -0.1003  0.2657  0.0758
21974W        W64891  20.334   9.953   5.720  0.0804  0.0281 -0.3177
21975W        W64892  23.944  11.003   5.972  0.1900 -0.0505 -0.0963
21976W        W64893  22.681   6.488   3.091 -0.2983  0.1620 -0.2591
21977W        W64894  23.476   9.727   2.710  0.0395 -0.0442 -0.5553
21978W        W64895  23.643   9.420   3.681 -0.2367  0.0798 -0.0365
21979W        W64896  24.727  10.119   7.518 -0.0101  0.1689 -0.2030
21980W        W64897  25.611   6.902   5.119  0.0446 -0.1580 -0.1316
21981W        W64898  25.625   7.727   4.352 -0.0977  0.0980 -0.0620
21982W        W64899  22.230  10.295   3.528  0.2482  0.0400  0.2086
21983W        W64900  24.512   6.712   4.186  0.1920 -0.2512 -0.0775
21984W        W64901  24.014   9.336   5.073 -0.0142 -0.1159 -0.1791
21985W        W64902  22.724   9.413   3.690  0.1835  0.1465  0.0099
21986W        W64903  21.859  10.849   4.694 -0.0657 -0.1363 -0.1655
21987W        W64904  24.300   4.949   5.285 -0.0404 -0.0993 -0.2015
21988W        W64905  26.047   8.086   4.431 -0.2954 -0.1162 -0.3503
21989W        W64906  22.803   9.722   5.796 -0.1219 -0.1415 -0.0209
21990W        W64907  23.411   7.548   7.083  0.0169 -0.0005 -0.1815
21991W        W64908  25.757   6.683   4.133 -0.1341 -0.0977 -0.0235
21992W        W64909  22.556   9.102   5.466  0.2009  0.1214  0.0381
21993W        W64910  25.111  12.229   4.368  0.0419  0.0187 -0.3806
21994W        W64911  22.608   8.992   3.425  0.2043  0.0833 -0.0082
21995W        W64912  24.099  10.324   4.815  0.1821  0.0066  0.0051
21996W        W64913  24.178   7.143   6.844  0.1469 -0.1021 -0.0334
21997W        W64914  23.284   8.251   5.061 -0.0014  0.1150  0.2556
21998W        W64915  26.103   8.940   3.305 -0.0887  0.0949  0.0340
21999W        W64916  23.497   6.772   4.207  0.1263  0.1608  0.0024
22000W        W64917  23.507  10.372   5.483  0.2824 -0.1120 -0.0009
22001W        W64918  22.598  10.267   7.138 -0.0983 -0.3452 -0.3630
22002W        W64919  20.071  10.948   6.606 -0.1495  0.2233  0.2606
22003W        W64920  21.353   9.872   5.635  0.1444 -0.1332  0.3913
22004W        W64921  25.504  10.952   4.309 -0.1170  0.0388  0.0733
22005W        W64922  23.902   9.901   2.530 -0.0888 -0.2740  0.2352
22006W        W64923  23.726   9.470   4.580 -0.2339  0.2614 -0.2949
22007W        W64924  23.264   8.044   4.478  0.0279 -0.2049 -0.0561
22008W        W64925  20.989  11.391   8.082  0.0941 -0.4299  0.0142
22009W        W64926  22.086  11.364   4.265 -0.0123  0.1631 -0.1469
22010W        W64927  25.264   9.206   3.520  0.1082 -0.1417 -0.2347
22011W        W64928  23.464  11.510   4.784 -0.2308  0.1124  0.1493
22012W        W64929  25.219  10.645   5.705 -0.0837  0.1070  0.0667
22013W        W64930  24.830   6.850   3.261 -0.5032  0.3397 -0.1059
22014W        W64931  25.089   9.690   2.501 -0.1489  0.1433  0.2240
22015W        W64932  26.366   8.906   2.524  0.1991  0.1202  0.1960
22016W        W64933  24.597   9.461   4.478  0.0192  0.1482  0.0127
22017W        W64934  24.601   9.026   7.416  0.3198  0.2406  0.0292
22018W        W64935  23.660   8.117   4.172  0.0195 -0.1249  0.1904
22019W        W64936  23.697   7.864   6.377  0.0873 -0.0184 -0.0585
22020W        W64937  25.761   6.742   6.115  0.0372  0.0912 -0.3252
22021W        W64938  24.351  11.609   5.285 -0.0185  0.0530 -0.0876
22022W        W64939  24.134  11.476   2.341 -0.0095  0.3698 -0.1587
22023W        W64940  20.239   8.599   3.624 -0.0181 -0.1595  0.0613
22024W        W64941  22.281   9.529   6.336  0.1257  0.1749  0.0782
22025W        W64942  26.446   7.210   6.239 -0.1212  0.1176  0.3273
22026W        W64943  22.239   8.078   3.422 -0.1200  0.0711 -0.0884
22027W        W64944  23.644   6.624   5.592  0.1924  0.1031 -0.3248
22028W        W64945  24.151   9.639   4.359  0.0395 -0.0918 -0.0720
22029W        W64946  23.946   9.661   5.529  0.1371 -0.3523 -0.1162
22030W        W64947  24.391  11.034   5.609  0.1699 -0.2277 -0.0328
22031W        W64948  22.360   9.730   3.614  0.4062 -0.1459  0.0546
22032W        W64949  25.764   7.246   4.285  0.1587  0.2396 -0.1069
22033W        W64950  23.033   8.368   6.889  0.0345  0.0507 -0.3668
22034W        W64951  25.259   4.162   4.834 -0.2924  0.0702  0.0203
22035W        W64952  21.642  11.224   7.093 -0.0322  0.2625 -0.0832
22036W        W64953  25.987   9.417   3.470  0.1064  0.0090 -0.3100
22037W        W64954  25.087   7.524   4.342  0.3091  0.1180 -0.0198
22038W        W64955  23.390   8.557   4.275 -0.0684 -0.0524  0.1302
22039W        W64956  23.234   6.439   2.193  0.0409  0.0260 -0.0649
22040W        W64957  25.155   9.857   6.878  0.1084 -0.0607  0.3948
22041W        W64958  24.300  10.421   3.279  0.2320  0.0733  0.0511
22042W        W64959  25.054  11.332   6.738 -0.0092 -0.2419  0.1137
22043W        W64960  21.543   9.305   4.283 -0.3263 -0.0048 -0.3123
22044W        W64961  24.591   7.568   4.328 -0.0975 -0.1313 -0.0053
22045W        W64962  21.790  10.566   3.800  0.0594  0.1074  0.1604
22046W        W64963  24.147   9.562   6.003 -0.0040  0.3094  0.2198
22047W        W64964  23.920  10.079   6.489  0.1027  0.1249  0.2317
22048W        W64965  22.409   8.659   4.316 -0.0899  0.0596 -0.1861
22049W        W64966  25.125  10.667   4.036 -0.0035 -0.0087 -0.2604
22050W        W64967  24.704   8.923   4.180 -0.1328  0.3547 -0.3008
22051W        W64968  20.823  10.582   2.763 -0.1580 -0.1402 -0.1436
22052W        W64969  25.101   8.738   3.515 -0.0682  0.0950 -0.0537
22053W        W64970  24.480  10.676   4.872  0.3111 -0.0604 -0.2916
22054W        W64971  21.020   8.936   6.264  0.3605  0.3452  0.1150
22055W        W64972  24.727  10.184   5.624  0.1265  0.3251 -0.0278
22056W        W64973  25.129   9.927   4.942  0.0117  0.1121 -0.0157
22057W        W64974  23.917   7.136   3.270 -0.0046 -0.2065 -0.1232
22058W        W64975  22.002   8.166   5.143 -0.1573  0.0147  0.0286
22059W        W64976  21.780  10.696   5.518  0.1970  0.1751 -0.3354
22060W        W64977  24.163   9.138   4.505 -0.2543  0.0427  0.2688
22061W        W64978  23.742   7.104   5.410 -0.4142  0.0910 -0.1778
22062W        W64979  19.999  10.702   3.775  0.0535  0.3778  0.0179
22063W        W64980  26.037   6.132   5.824  0.3709  0.1146  0.0447
22064W        W64981  24.904   9.394   4.054 -0.0877 -0.2993  0.4362
22065W        W64982  22.561   9.452   7.586 -0.0032 -0.0792 -0.0159
22066W        W64983  23.405   9.640   3.244  0.1822 -0.0905  0.0920
22067W        W64984  22.841   9.278   6.028 -0.0523 -0.3255  0.2175
22068W        W64985  21.501   8.841   4.507 -0.2572  0.2639 -0.2521
22069W        W64986  21.895  10.247   5.336  0.2774 -0.0548  0.0827
22070W        W64987  24.211   8.578   3.962 -0.0709  0.1228 -0.0267
22071W        W64988  23.145   9.204   3.465 -0.2833  0.4628 -0.0548
22072W        W64989  23.745  10.012   4.689  0.0353  0.0594  0.1132
22073W        W64990  22.759   6.881   6.796 -0.1019  0.0660 -0.0338
22074W        W64991  24.384   7.060   4.515  0.0618 -0.2907 -0.0972
22075W        W64992  24.200   6.323   4.420 -0.1708  0.4259  0.1100
22076W        W64993  22.897   7.955   4.918  0.0722 -0.1184 -0.0305
22077W        W64994  20.559   9.295   1.798  0.2163  0.1210 -0.0401
22078W        W64995  22.938  11.465   3.400  0.0218  0.3839 -0.0020
22079W        W64996  23.384   7.930   5.996 -0.0627 -0.0929 -0.0521
22080W        W64997  23.647   7.304   8.045  0.1463  0.1488 -0.0678
22081W        W64998  22.878   7.603   7.013 -0.0022 -0.1824 -0.3078
22082W        W64999  22.328   8.657   5.251 -0.2968 -0.0193 -0.0108
22083W        W65000  22.494   9.238   3.039  0.0449  0.1562  0.3728
22084W        W65001  24.402   9.257   4.036  0.0993 -0.1971  0.1096
22085W        W65002  24.014   7.449   3.700 -0.0965 -0.1938  0.1030
22086W        W65003  23.001   5.562   4.033  0.0313 -0.1374  0.2205
22087W        W65004  25.170   8.987   3.931  0.0822  0.0250 -0.0456
22088W        W65005  22.990  10.451   4.349  0.2603 -0.0013 -0.0767
22089W        W65006  24.102   7.964   4.498 -0.3826 -0.2317  0.0074
22090W        W65007  25.989  10.213   6.950 -0.1819  0.1155  0.2457
22091W        W65008  20.766   9.895   3.974  0.5288 -0.0548 -0.0292
22092W        W65009  23.893   8.081   5.867 -0.0140 -0.2703 -0.1850
22093W        W65010  24.488   9.555   6.744  0.0714 -0.4130  0.1439
22094W        W65011  20.635   8.953   4.985  0.3446 -0.1579 -0.2192
22095W        W65012  24.033   8.987   3.750  0.1902  0.1193 -0.1119
22096W        W65013  24.553  11.366   1.986 -0.0915  0.1190  0.0638
22097W        W65014  24.797  11.618   3.011  0.2794  0.0845 -0.0237
22098W        W65015  24.438  10.170   3.727  0.0002  0.0177  0.2871
22099W        W65016  23.280   9.161   6.262 -0.0832  0.0124 -0.0256
22100W        W65017  24.145   5.826   4.690 -0.1991  0.0609 -0.2694
22101W        W65018  24.015   6.709   4.123 -0.0699 -0.1035  0.4094
22102W        W65019  22.687   9.987   6.239 -0.1445 -0.2728 -0.4030
22103W        W65020  24.600   8.003   2.198 -0.1732 -0.0895 -0.1201
22104W        W65021  27.631   7.120   6.882 -0.2389  0.0076  0.1943
22105W        W65022  24.917   7.943   4.003  0.0135  0.2083 -0.2594
22106W        W65023  23.457   7.458   6.262  0.4221 -0.0563  0.2214
22107W        W65024  22.149   9.682   8.012 -0.3360 -0.0822  0.1123
22108W        W65025  26.779   9.621   3.145  0.0464  0.1415 -0.0290
22109W        W65026  22.389   7.915   4.972 -0.0776 -0.0011  0.0783
22110W        W65027  25.831   9.194   2.648 -0.1123  0.0509  0.1242
22111W        W65028  25.077  11.371   3.431  0.0945 -0.0083 -0.3155
22112W        W65029  23.152   7.126   7.176  0.3684 -0.0843 -0.0361
22113W        W65030  22.528   9.242   4.431  0.0425  0.0104 -0.1374
22114W        W65031  24.166   8.389   5.446 -0.2610 -0.0906 -0.1888
22115W        W65032  24.439  10.372   7.084  0.0959 -0.2494  0.2967
22116W        W65033  24.135   9.181   7.025 -0.2955 -0.0414 -0.1770
22117W        W65034  21.269   9.411   3.808 -0.2759 -0.3423 -0.2622
22118W        W65035  27.012   9.172   2.878  0.0475 -0.0378  0.2547
22119W        W65036  23.134  10.949   6.418  0.3975  0.0183 -0.1616
22120W        W65037  24.397  10.855   6.282  0.1135  0.0954 -0.0703
22121W        W65038  24.008  10.833   5.010  0.0610 -0.1165  0.1614
22122W        W65039  23.804   8.453   4.486  0.0431 -0.0073  0.2670
22123W        W65040  22.135   7.537   5.817  0.3222 -0.1655  0.0793
22124W        W65041  19.771  10.263   5.118 -0.2214  0.0194  0.1417
22125W        W65042  22.432   9.644   5.276 -0.2090  0.1598 -0.0040
22126W        W65043  24.454   9.243   5.754 -0.0764 -0.2099  0.0093
22127W        W65044  22.092  10.664   5.141 -0.0624  0.2845  0.0652
22128W        W65045  23.120   6.582   3.416 -0.3329  0.1346  0.0358
22129W        W65046  24.766  10.615   6.498  0.1883 -0.0595 -0.0014
22130W        W65047  24.065   9.413   2.253  0.3809  0.1283  0.1485
22131W        W65048  21.815   9.799   7.430  0.0114  0.1757 -0.4708
22132W        W65049  22.269   6.999   6.691  0.1559 -0.0286  0.1014
22133W        W65050  24.620   8.223   6.318 -0.0588  0.0977 -0.3179
22134W        W65051  24.177   7.824   9.066  0.0855  0.0019 -0.1997
22135W        W65052  22.214  10.225   8.696 -0.0042  0.0418  0.1249
22136W        W65053  25.150  10.796   8.576  0.1403  0.1965  0.0485
22137W        W65054  26.720   8.838   8.095 -0.0878  0.1153 -0.2521
22138W        W65055  25.363  13.456   8.613 -0.0258  0.1806 -0.0345
22139W        W65056  23.857   9.325   7.442  0.2333 -0.2437 -0.0482
22140W        W65057  23.638   4.807   9.120  0.1091  0.1948 -0.1286
22141W        W65058  23.243   6.719   6.817  0.3082 -0.2306 -0.0165
22142W        W65059  19.323  10.637   9.730 -0.2158 -0.1789 -0.4270
22143W        W65060  23.242   9.581   9.946  0.0806  0.0624 -0.2445
22144W        W65061  22.274   9.298   6.819 -0.1660  0.0275 -0.0052
22145W        W65062  24.151  11.213   9.538 -0.0518  0.0941  0.1275
22146W        W65063  23.891   7.574   7.742 -0.0989  0.1172  0.2152
22147W        W65064  23.253  11.251   7.635  0.1673 -0.1229 -0.0173
22148W        W65065  24.157   7.140   7.474 -0.1561 -0.2060 -0.2402
22149W        W65066  24.333  10.848   6.796  0.1692 -0.0070 -0.0300
22150W        W65067  20.532   8.037   7.439  0.1378 -0.2053  0.0509
22151W        W65068  21.069   8.472   8.247 -0.0257  0.0917  0.4192
22152W        W65069  22.472   8.492   8.940 -0.2501  0.1928  0.1225
22153W        W65070  22.914   7.264   9.200 -0.0421 -0.2758 -0.0550
22154W        W65071  19.758   5.398   9.326  0.0198  0.1312 -0.0078
22155W        W65072  22.929  12.274   8.288 -0.2720  0.2087 -0.0075
22156W        W65073  21.975  11.739   9.865  0.1842  0.0601 -0.3225
22157W        W65074  22.472  10.147   7.929  0.4549  0.0797  0.2043
22158W        W65075  22.624   9.946   8.927  0.2060  0.0169 -0.1543
22159W        W65076  23.457   9.704   7.073 -0.0503  0.1300  0.3289
22160W        W65077  25.628  10.015   6.615  0.2695  0.0399  0.0936
22161W        W65078  23.357   8.539   6.023  0.1076 -0.3423 -0.1724
22162W        W65079  24.701   8.752   7.831 -0.0259  0.1584  0.1178
22163W        W65080  22.782   7.219   7.771 -0.2093 -0.0072 -0.0359
22164W        W65081  22.112  10.843   7.709 -0.0298  0.1003 -0.3211
22165W        W65082  23.619   9.096   9.812 -0.3476 -0.1454 -0.0004
22166W        W65083  23.126   8.257   8.393  0.1642  0.0213  0.1028
22167W        W65084  22.292   9.939   7.510 -0.0212  0.0847 -0.2583
22168W        W65085  25.168   6.442   6.683  0.1222 -0.0062  0.2438
22169W        W65086  25.439   8.367   6.339  0.2251  0.0481 -0.0990
22170W        W65087  25.858   7.642   7.193  0.0162  0.0795  0.2446
22171W        W65088  22.688   4.880   9.047 -0.2282 -0.3683  0.4854
22172W        W65089  23.893   9.600   8.498  0.0594 -0.2793 -0.1327
22173W        W65090  24.290   7.532   8.093 -0.0570 -0.0363  0.1017
22174W        W65091  23.417  11.309   9.813 -0.0975  0.3266  0.0029
22175W        W65092  22.925   4.776   8.607  0.0652  0.0170  0.1974
22176W        W65093  22.939  10.282   8.853 -0.1043  0.0818 -0.0026
22177W        W65094  21.900  11.920   7.780 -0.0496 -0.0103  0.1518
22178W        W65095  26.177  10.594   5.539 -0.0313  0.2246  0.0307
22179W        W65096  26.028   9.863   7.385 -0.1601 -0.1011 -0.1367
22180W        W65097  23.007  10.079   6.609 -0.2185 -0.0228  0.1596
22181W        W65098  23.047   6.981   8.833  0.0978 -0.0023  0.0584
22182W        W65099  23.304   7.772   6.627  0.0182 -0.2261  0.0809
22183W        W65100  25.495   8.525   7.325 -0.0191  0.2033  0.0780
22184W        W65101  23.056   8.884   9.494 -0.3188 -0.0409 -0.2676
22185W        W65102  23.533   9.274   8.585 -0.0544  0.2464 -0.2617
22186W        W65103  23.656   9.389   6.091 -0.3760  0.2255  0.1276
22187W        W65104  24.330   7.780   8.581 -0.0428  0.2547 -0.1463
22188W        W65105  23.361   7.562   9.447 -0.1735 -0.2073  0.2338
22189W        W65106  23.370   9.112   8.069 -0.0057 -0.0999 -0.2835
22190W        W65107  24.050   9.133   9.505 -0.1405 -0.0261 -0.0170
22191W        W65108  26.677   6.195   8.039 -0.3826 -0.0106 -0.0908
22192W        W65109  24.794   7.665   5.502 -0.1689 -0.2916 -0.2285
22193W        W65110  20.673   7.307   8.979  0.1593  0.2985  0.0426
22194W        W65111  22.990   8.464   7.508  0.0312 -0.0488 -0.1178
22195W        W65112  22.036  10.084   7.033 -0.2099  0.3074 -0.2601
22196W        W65113  21.911  11.374   6.615  0.0338 -0.0866 -0.2496
22197W        W65114  21.994  12.047   9.255  0.1198 -0.0844 -0.1234
22198W        W65115  25.508   9.709   9.768  0.1070 -0.1603 -0.1134
22199W        W65116  24.957   9.543   6.516  0.2977  0.0631 -0.1841
22200W        W65117  23.770   6.845   9.227 -0.2370  0.0796 -0.0120
22201W        W65118  24.138   8.127   7.538  0.1345 -0.6760 -0.0917
22202W        W65119  25.014   9.844   8.785 -0.1457  0.1960 -0.2199
22203W        W65120  24.688  10.139   8.937 -0.2078  0.2389  0.0798
22204W        W65121  23.744  10.917   6.997  0.1158  0.0087 -0.3457
22205W        W65122  19.950  10.305   9.751 -0.0493  0.0976  0.1375
22206W        W65123  23.253   9.758   9.503  0.3920 -0.0976 -0.0758
22207W        W65124  21.999   8.447   9.128  0.2015  0.1392 -0.3702
22208W        W65125  22.896   8.940   9.031  0.1410 -0.3289  0.0034
22209W        W65126  24.713   7.892   8.256  0.1673  0.3655 -0.6981
22210W        W65127  24.238   7.849   6.236 -0.0706 -0.2037 -0.4083
22211W        W65128  21.759   9.369   5.913  0.1305 -0.0362 -0.0656
22212W        W65129  23.104  10.324   7.732  0.1657 -0.0335  0.2394
22213W        W65130  23.193  10.881   8.479  0.1658 -0.4661  0.0407
22214W        W65131  23.830  10.127   8.843  0.4862  0.1069  0.0851
22215W        W65132  21.828   8.101   9.961  0.1063  0.2512 -0.0447
22216W        W65133  23.098   8.092   7.830  0.2225 -0.1675  0.2003
22217W        W65134  21.075   7.391   9.374 -0.0885  0.1756 -0.0495
22218W        W65135  23.162  11.474   7.233 -0.0799 -0.1493 -0.1771
22219W        W65136  23.378   7.557   5.577  0.1079 -0.2195  0.0679
22220W        W65137  26.053   9.044   9.297  0.0140  0.0524 -0.2855
22221W        W65138  23.598   8.285   7.623  0.1146  0.0082 -0.4151
22222W        W65139  24.541   8.304   6.914  0.1611 -0.2428 -0.3501
22223W        W65140  23.936  10.925   6.498  0.0317  0.2588 -0.1684
22224W        W65141  21.439   7.614   7.643 -0.3776  0.4860 -0.5185
22225W        W65142  21.988   8.524   9.633 -0.1037 -0.1247 -0.2046
22226W        W65143  22.910  12.239   8.879  0.2709 -0.2009  0.0167
22227W        W65144  22.972   9.914   8.048 -0.0993 -0.0212 -0.3323
22228W        W65145  24.723   9.235   7.960  0.1659 -0.0903  0.1570
22229W        W65146  22.026   7.664   8.216 -0.0853 -0.2113  0.0801
22230W        W65147  21.172   8.885   9.189 -0.0796  0.3148  0.0098
22231W        W65148  24.986   6.752   8.020  0.2247 -0.0993 -0.0245
22232W        W65149  25.917   9.372   7.063  0.2239  0.4611 -0.0626
22233W        W65150  25.269   9.587   7.783  0.0864  0.3947  0.1175
22234W        W65151  24.056   6.385   6.388 -0.0372  0.0683 -0.4226
22235W        W65152  24.861   9.444   7.010  0.0056  0.4219 -0.2390
22236W        W65153  22.820   9.473   9.058  0.2852  0.0614 -0.1951
22237W        W65154  24.731   8.758   8.913 -0.0475 -0.0426 -0.2638
22238W        W65155  24.371   9.519   5.372  0.1388 -0.1530  0.2902
22239W        W65156  25.252   9.577   9.146  0.0105  0.0543 -0.0746
22240W        W65157  20.742  10.622   9.448 -0.1692  0.2966  0.1007
22241W        W65158  23.386   9.583   8.933  0.0059  0.0583  0.0195
22242W        W65159  22.451   7.544   9.153  0.1614  0.1234 -0.1802
22243W        W65160  23.167   7.214   4.198  0.2586 -0.1439  0.3611
22244W        W65161  21.103   8.060   8.565 -0.0877 -0.1676 -0.1074
22245W        W65162  21.257  10.312   6.191 -0.0259  0.1975 -0.0900
22246W        W65163  26.129   6.865   7.020 -0.1072 -0.1225 -0.0379
22247W        W65164  24.258   8.605   7.629 -0.1167  0.1644  0.2142
22248W        W65165  24.853   9.440   8.360  0.1429 -0.0379 -0.0476
22249W        W65166  22.069  11.116   9.548 -0.0145  0.1288  0.0343
22250W        W65167  23.081   8.415   5.611 -0.1593  0.0457  0.1334
22251W        W65168  21.380  10.057   9.242 -0.0176  0.3351  0.1265
22252W        W65169  21.466  10.513   8.732 -0.0974  0.3456 -0.0333
22253W        W65170  24.779   8.948   8.449  0.1098 -0.1611 -0.1750
22254W        W65171  23.977   7.393   6.411  0.0942 -0.0916 -0.0936
22255W        W65172  23.517   9.684   6.488 -0.3351 -0.1185 -0.0042
22256W        W65173  23.537   9.571   8.142 -0.1444  0.0293  0.1468
22257W        W65174  23.907   7.022   8.810 -0.0605  0.1620 -0.3972
22258W        W65175  22.285   5.813  12.540  0.0749  0.0077 -0.0615
22259W        W65176  23.295   9.142   4.931  0.2031 -0.0769 -0.1817
22260W        W65177  24.162   9.755   9.239 -0.2010  0.1787  0.0750
22261W        W65178  23.995   9.130   8.246 -0.2511 -0.1713 -0.0407
22262W        W65179  24.187   6.647   7.800  0.0760  0.3043  0.1257
22263W        W65180  21.960  10.954   8.184  0.0106 -0.2870 -0.0207
22264W        W65181  23.502   8.193   5.580  0.2894  0.1888  0.1332
22265W        W65182  22.938  10.585   7.294  0.1954 -0.0117  0.2073
22266W        W65183  24.706   7.743   6.161  0.0333  0.2339 -0.0611
22267W        W65184  24.155   8.209   6.583  0.2302  0.0491  0.2225
22268W        W65185  21.522   8.168   8.316  0.2580 -0.0327  0.0173
22269W        W65186  24.621   8.278   9.140 -0.0269 -0.2195 -0.2134
22270W        W65187  22.938  10.801   8.994 -0.1342  0.4486 -0.1991
22271W        W65188  24.983   8.549   6.630 -0.1266 -0.2430  0.1779
22272W        W65189  20.200   9.292   5.216  0.0454 -0.0842 -0.1133
22273W        W65190  22.757   7.715   7.910 -0.2671  0.5399 -0.0698
22274W        W65191  24.351   7.590   7.520  0.1528  0.0594 -0.0726
22275W        W65192  22.649  10.748   9.529  0.1591 -0.1041  0.0650
22276W        W65193  25.788  14.254   9.190  0.2003  0.1685  0.0440
22277W        W65194  22.876   9.377   9.590  0.0013  0.0312 -0.0468
22278W        W65195  24.762   9.681   9.206  0.0387  0.1115 -0.0001
22279W        W65196  22.589   7.055   9.540 -0.1670 -0.0195  0.2455
22280W        W65197  22.347   8.747   7.888  0.2497 -0.1003 -0.0622
22281W        W65198  24.218   6.407   9.213  0.0567  0.0254 -0.4208
22282W        W65199  22.753   8.590   8.400  0.1566 -0.1016  0.1398
22283W        W65200  25.163   9.985   8.253 -0.0087 -0.2449  0.0309
22284W        W65201  24.719   9.737   9.680  0.2772 -0.1866 -0.0090
22285W        W65202  23.309   4.015   9.189 -0.0361  0.0869 -0.3893
22286W        W65203  24.978   9.539   5.959  0.1601 -0.3308  0.2894
22287W        W65204  22.364   9.027   7.370  0.2676 -0.1607  0.0787
22288W        W65205  23.768   8.006   9.345  0.0864 -0.0629  0.3186
22289W        W65206  24.120  10.199   9.899 -0.2760  0.2196 -0.0204
22290W        W65207  23.814   7.501   8.889  0.0784  0.0594 -0.4655
22291W        W65208  23.547  10.875   9.510  0.1347  0.0300 -0.0795
22292W        W65209  22.407   8.327   6.277 -0.1431 -0.0637 -0.2179
22293W        W65210  20.109   9.861   9.546 -0.0322 -0.0465  0.1416
22294W        W65211  25.448   5.374   6.599 -0.0683 -0.1403  0.0631
22295W        W65212  23.746   8.365   6.354 -0.1015  0.1862  0.2418
22296W        W65213  23.938   8.504   8.407  0.0409  0.0433  0.0902
22297W        W65214  25.145   8.709   7.574 -0.1209 -0.2622 -0.1320
22298W        W65215  23.235   7.668   8.914 -0.1398 -0.1712 -0.0916
22299W        W65216  24.912   8.019   9.492 -0.1566  0.0721 -0.3143
22300W        W65217  22.464   5.287   9.029  0.3071 -0.0704  0.0652
22301W        W65218  21.578   8.211   6.244  0.2672  0.0143 -0.2273
22302W        W65219  23.294   9.884   8.465  0.1686  0.2254  0.1474
22303W        W65220  26.783   9.304   7.964 -0.2493 -0.1358 -0.1297
22304W        W65221  23.798  10.905   9.969 -0.0725 -0.2552  0.0175
22305W        W65222  23.772  10.083   9.363 -0.2345  0.2274 -0.0442
22306W        W65223  22.354   9.243   7.956 -0.1839 -0.1615 -0.0297
22307W        W65224  22.560   8.653   9.405 -0.3218  0.0047 -0.0617
22308W        W65225  21.954   8.506   6.306  0.0335 -0.4431  0.2209
22309W        W65226  22.143   9.390   9.197  0.3344  0.0744  0.2716
22310W        W65227  25.532   9.995   7.545  0.1128 -0.0530  0.0918
22311W        W65228  24.749   8.384   8.371 -0.0625  0.0457  0.1454
22312W        W65229  22.497  11.461   8.859  0.3257  0.0041 -0.1905
22313W        W65230  22.680   8.162   8.096 -0.1345 -0.2586  0.1409
22314W        W65231  25.202   6.356   8.901  0.1408 -0.2744  0.1883
22315W        W65232  23.425   8.706   9.133 -0.1428  0.1315 -0.0277
22316W        W65233  23.404   7.353   4.979 -0.3418 -0.2215 -0.0807
22317W        W65234  24.985   6.682   9.365 -0.1665  0.2173  0.4102
22318W        W65235  22.351   6.516   6.684 -0.3150  0.2105 -0.2546
22319W        W65236  26.260   9.763   6.867 -0.1606 -0.3012 -0.3186
22320W        W65237  23.415   8.180   8.914 -0.1100  0.0018 -0.2417
22321W        W65238  24.495   7.803   6.668 -0.0456 -0.1725  0.0491
22322W        W65239  21.524   8.229   9.014 -0.1361 -0.2089 -0.2044
22323W        W65240  22.239   8.751   6.755 -0.0850 -0.1084  0.1520
22324W        W65241  22.497  11.992   8.418  0.0887 -0.2310 -0.3721
22325W        W65242  25.150   9.080   9.150  0.2159  0.0554  0.1619
22326W        W65243  22.986   6.739   6.350 -0.0467  0.1523 -0.0011
22327W        W65244  22.382  11.890   7.936 -0.0591  0.1850 -0.4281
22328W        W65245  25.698   4.406   9.205 -0.2980  0.1012 -0.1166
22329W        W65246  23.444  11.913   9.758 -0.0093 -0.2112  0.0760
22330W        W65247  23.041  10.780   7.928  0.1140 -0.0416  0.0712
22331W        W65248  22.235   7.216   8.530  0.0290  0.1512  0.3833
22332W        W65249  24.343   8.771   8.209  0.0705 -0.1662 -0.1777
22333W        W65250  23.842   8.700   7.890 -0.0631 -0.0407  0.2233
22334W        W65251  21.644  10.714   9.519 -0.1543 -0.0088 -0.0564
22335W        W65252  25.600   9.087   7.646 -0.1126  0.1482 -0.0235
22336W        W65253  22.883  11.221   8.612  0.0757  0.0452 -0.0121
22337W        W65254  23.744   9.606   9.521  0.4130 -0.0256  0.0262
22338W        W65255  22.517   6.822   7.909 -0.2282  0.1278 -0.1987
22339W        W65256  23.931   9.836   6.996  0.2237 -0.1456  0.3214
22340W        W65257  22.257  11.670   9.443 -0.1906 -0.0943  0.0651
22341W        W65258  22.221  11.118   7.302  0.3116 -0.1353  0.0468
22342W        W65259  25.477   9.417   7.303 -0.0804  0.1691 -0.3513
22343W        W65260  22.456   8.430   7.478 -0.1085  0.1671  0.0219
22344W        W65261  23.348  10.465   8.717  0.2616  0.1078  0.0712
22345W        W65262  23.618   6.879   7.138  0.1569  0.2002 -0.0611
22346W        W65263  22.596   9.030   6.479  0.1844  0.0467 -0.2289
22347W        W65264  22.637  11.421   7.170 -0.0868  0.4708 -0.0046
22348W        W65265  23.478  10.154   6.278 -0.0332  0.2438 -0.1460
22349W        W65266  22.670   8.737   7.097  0.4692 -0.1275 -0.1254
22350W        W65267  26.072   7.943   6.827 -0.0631 -0.0171 -0.0142
22351W        W65268  25.461   6.888   8.110  0.1484 -0.0819  0.2719
22352W        W65269  25.543   8.237   5.841 -0.3380 -0.5690 -0.2185
22353W        W65270  21.990  11.476   8.096  0.0425 -0.0612  0.0221
22354W        W65271  22.962   7.619   6.294  0.0766  0.1564 -0.2170
22355W        W65272  24.040   9.076   5.896 -0.0948  0.1140 -0.4516
22356W        W65273  22.841   8.981   7.620  0.0663  0.0788  0.2765
22357W        W65274  22.090   8.425   7.087  0.1558 -0.0088 -0.3333
22358W        W65275  25.796   6.680   8.555  0.2536 -0.1964 -0.0096
22359W        W65276  22.977   9.424   7.825 -0.2114  0.0533  0.0517
22360W        W65277  23.756   6.939   7.710 -0.2134 -0.0244 -0.3901
22361W        W65278  22.312  11.493   7.592  0.2994 -0.1549  0.0797
22362W        W65279  23.053  10.541   6.778  0.3036 -0.1328 -0.2982
22363W        W65280  22.509  13.236   9.664 -0.1593 -0.0027 -0.2369
22364W        W65281  19.915   8.532   7.910  0.0866 -0.1523 -0.0355
22365W        W65282  25.487   8.479   6.834 -0.0319 -0.2957 -0.1920
22366W        W65283  26.397   9.551   9.150  0.0293 -0.1377  0.0595
22367W        W65284  20.275   6.266   8.919  0.3691  0.2606 -0.3576
22368W        W65285  22.878   8.186   6.144  0.0318  0.3256  0.2563
22369W        W65286  22.743   7.446   8.747 -0.1063 -0.0044 -0.0556
22370W        W65287  24.436  10.103   9.478 -0.1602 -0.0676 -0.2244
22371W        W65288  23.591   9.211   7.052  0.0689  0.1913 -0.3082
22372W        W65289  25.183  10.172   5.827 -0.0970 -0.1325 -0.1030
22373W        W65290  20.574   7.743   6.695 -0.2018  0.0897 -0.1193
22374W        W65291  24.920   8.334   7.892  0.3046  0.0859  0.1901
22375W        W65292  20.553   8.405   7.062 -0.2486 -0.1132 -0.2210
22376W        W65293  21.705  10.094   8.858  0.1504  0.0837 -0.2398
22377W        W65294  24.671   9.070   6.678  0.0205 -0.0255  0.2481
22378W        W65295  26.839   9.564   6.120 -0.0870 -0.1376  0.0393
22379W        W65296  23.901   8.988   8.978 -0.1014  0.3187  0.3481
22380W        W65297  21.647  10.462   6.923  0.2987 -0.0950  0.3204
22381W        W65298  24.351   8.752   7.112 -0.4270  0.2674 -0.1218
22382W        W65299  25.921  13.907   8.831 -0.3243  0.0994 -0.1115
22383W        W65300  21.840   8.398   8.646 -0.1698 -0.1372  0.0923
22384W        W65301  22.000  12.253   8.728 -0.2013  0.0413 -0.0340
22385W        W65302  25.622   9.784   8.696 -0.1229  0.0982 -0.2633
22386W        W65303  24.603   6.205   7.679 -0.1850 -0.0224 -0.0272
22387W        W65304  23.433   7.215   9.035  0.1245  0.0594 -0.0566
22388W        W65305  21.479  12.137  10.182  0.5061  0.3538 -0.1342
22389W        W65306  27.122   5.293   9.782  0.1736 -0.0275  0.0065
22390W        W65307  22.996  10.449   6.227  0.2357 -0.2294 -0.0121
22391W        W65308  21.852  10.168   9.532  0.2115 -0.1208 -0.0985
22392W        W65309  22.543   8.225   6.996  0.1945 -0.2430 -0.1057
22393W        W65310  22.843   9.018   8.097 -0.2069 -0.1798 -0.3149
22394W        W65311  23.692  10.564   9.109  0.0195  0.0876  0.1213
22395W        W65312  24.785   8.834   9.470  0.0066 -0.0247 -0.3012
22396W        W65313  23.084   8.617   7.933 -0.2417 -0.0674  0.0365
22397W        W65314  24.413   9.010   9.151 -0.0604 -0.0950  0.0906
22398W        W65315  23.496   7.755   8.396 -0.0398 -0.2255  0.0728
22399W        W65316  24.406   7.151   6.354  0.0270 -0.3481  0.0086
22400W        W65317  26.271   5.023   8.698 -0.1078  0.0624  0.1863
22401W        W65318  22.279   8.847   8.633 -0.0881  0.1516  0.0662
22402W        W65319  22.165   8.174   6.681 -0.0436 -0.1961 -0.1819
22403W        W65320  22.834   9.895   7.551 -0.1985 -0.3432 -0.0141
22404W        W65321  22.299  11.154   8.523  0.0673 -0.2716  0.0342
22405W        W65322  20.067  11.231   9.534  0.4710 -0.2446  0.0763
22406W        W65323  23.147   9.288   7.346 -0.2084 -0.2665  0.2190
22407W        W65324  26.050   8.888   7.581  0.0335 -0.1453 -0.2189
22408W        W65325  21.492   8.512   9.543 -0.2083 -0.1071 -0.2463
22409W        W65326  21.547   9.222   9.201 -0.1428  0.0914  0.4089
22410W        W65327  23.921   8.015   8.163  0.1704  0.3709  0.0883
22411W        W65328  26.305   8.089   7.801 -0.1450 -0.0047 -0.2729
22412W        W65329  23.250   7.549   7.973  0.0558 -0.1050 -0.0603
22413W        W65330  22.244  10.531   8.155 -0.0884  0.1609  0.1701
22414W        W65331  21.666   7.604   7.239  0.0124 -0.1402 -0.0997
22415W        W65332  22.458   8.128   9.347 -0.2165  0.2223 -0.1617
22416W        W65333  25.756   9.568   7.764 -0.0973 -0.2792  0.1484
22417W        W65334  23.961  11.040   9.036  0.0973 -0.0616 -0.0723
22418W        W65335  22.424   7.597   9.640 -0.0769 -0.1412 -0.1229
22419W        W65336  24.210   9.046   7.790 -0.0806 -0.1107  0.2719
22420W        W65337  26.132  10.094   6.434 -0.0306  0.0924  0.0427
22421W        W65338  28.407   7.773   7.986  0.0597 -0.1678 -0.0112
22422W        W65339  25.130   9.010   6.934 -0.1823 -0.0409 -0.2398
22423W        W65340  25.529  10.547   9.565  0.0133  0.2830  0.1903
22424W        W65341  23.509   6.221   8.586 -0.0240 -0.0992  0.1068
22425W        W65342  25.150   8.129   7.296  0.0249  0.2369  0.3244
22426W        W65343  22.788   8.035   7.404 -0.1279  0.0250  0.1573
22427W        W65344  22.199   9.901   9.829  0.1619 -0.0868  0.0502
22428W        W65345  22.989   7.539   7.489  0.2517 -0.1709  0.1530
22429W        W65346  23.019   8.999   8.541 -0.2000 -0.2432  0.0252
22430W        W65347  23.067   6.963   9.637  0.1993  0.1476 -0.0045
22431W        W65348  26.802   7.458   6.718  0.2811 -0.0601 -0.0398
22432W        W65349  23.019   8.487   8.825 -0.1741  0.0443  0.1777
22433W        W65350  22.000  10.712   8.664  0.4569 -0.0121 -0.2221
22434W        W65351  24.583   4.882   8.288 -0.0977 -0.0106 -0.3930
22435W        W65352  22.484   7.746   8.391 -0.1078  0.1112  0.1072
22436W        W65353  23.086   9.685   6.199 -0.1690 -0.3485 -0.2489
22437W        W65354  26.584   9.237   9.568  0.0847 -0.1832 -0.0807
22438W        W65355  24.252   9.022   8.664 -0.3023  0.1397 -0.2937
22439W        W65356  23.381   7.269   8.516  0.1208  0.2899 -0.4865
22440W        W65357  23.599   7.257   6.764  0.3734  0.1688 -0.1736
22441W        W65358  18.088   6.716   8.802 -0.0966 -0.2131 -0.0797
22442W        W65359  25.789   7.883   9.249 -0.0994  0.2774  0.1129
22443W        W65360  22.534  15.784   3.681  0.0858  0.1768 -0.0301
22444W        W65361  23.095  12.590   0.179  0.1265 -0.1249 -0.1990
22445W        W65362  24.662  11.881   1.810  0.0789 -0.0418 -0.0099
22446W        W65363  25.410  12.719   0.887 -0.1624 -0.2779  0.0262
22447W        W65364  22.485  10.038   1.385  0.0809 -0.2261 -0.1864
22448W        W65365  23.807  14.380   0.797 -0.2068 -0.2242  0.0075
22449W        W65366  21.168  11.790   2.505 -0.0950 -0.0410 -0.3432
22450W        W65367  22.116  14.738   1.037  0.2957  0.0402 -0.3317
22451W        W65368  22.460  13.409   3.848  0.0115 -0.3173 -0.1588
22452W        W65369  24.986  14.358  30.397 -0.0104 -0.1512  0.2944
22453W        W65370  20.399  12.771   3.276 -0.3986  0.0050 -0.0941
22454W        W65371  21.978  15.723   1.450  0.0439 -0.0506 -0.3038
22455W        W65372  22.662  11.677   0.110  0.2248  0.2199  0.0001
22456W        W65373  20.557  12.498   0.290 -0.0637  0.2591  0.1130
22457W        W65374  24.482  12.304   3.614  0.0349 -0.0695  0.1250
22458W        W65375  20.969  14.624  31.950  0.2149  0.2744 -0.1338
22459W        W65376  20.656  13.056   2.353 -0.2820 -0.2195 -0.1664
22460W        W65377  22.436  12.773   1.025  0.0455 -0.1776 -0.1313
22461W        W65378  21.891  13.236   1.771 -0.2524 -0.1758 -0.0982
22462W        W65379  22.058  12.734   0.634  0.1120  0.0271  0.2284
22463W        W65380  23.398  11.599   3.101 -0.0704 -0.0429 -0.2961
22464W        W65381  23.634  13.273   0.492  0.3645  0.3947 -0.0175
22465W        W65382  21.514  10.997  27.609 -0.2204 -0.2451 -0.1904
22466W        W65383  22.035  14.083   0.839  0.1797  0.1257 -0.1140
22467W        W65384  22.436  12.745   4.721 -0.0304  0.4114  0.1170
22468W        W65385  24.119  11.285   1.417  0.0356 -0.2413  0.0856
22469W        W65386  24.469  12.362   2.129 -0.2595 -0.4110  0.1728
22470W        W65387  21.969  14.713   0.097 -0.1528 -0.0323  0.0921
22471W        W65388  22.890  14.439   0.434 -0.0208 -0.0709  0.1331
22472W        W65389  25.544  13.704   1.932  0.2662  0.1768 -0.0352
22473W        W65390  20.964  14.319   1.449 -0.1196 -0.0202 -0.2148
22474W        W65391  21.835  14.710   1.521  0.2337 -0.0816  0.0932
22475W        W65392  22.549  13.711   2.895 -0.1108  0.2582 -0.1063
22476W        W65393  24.333  13.039   0.050  0.0347 -0.3242  0.3252
22477W        W65394  22.947  13.892   2.612  0.2189  0.0829  0.1763
22478W        W65395  22.082  15.200   0.789 -0.4873  0.3068  0.1675
22479W        W65396  20.081  15.303  31.404 -0.4966  0.1099  0.0091
22480W        W65397  23.523  15.206   4.426  0.0099 -0.0204  0.3493
22481W        W65398  23.546  14.599   3.137 -0.0287  0.1376  0.1472
22482W        W65399  23.707  13.610   2.362 -0.3366  0.3104  0.0359
22483W        W65400  25.464  12.434   1.371  0.0121  0.0731  0.0652
22484W        W65401  19.661  13.045  30.421  0.0395  0.0079  0.2088
22485W        W65402  22.781  12.142   1.629  0.1527 -0.1240  0.1969
22486W        W65403  22.428  13.663   3.408  0.0004  0.0026 -0.2245
22487W        W65404  22.609  14.971   1.886  0.0307  0.4185 -0.2988
22488W        W65405  24.117  10.186   2.838 -0.1025  0.0157  0.0139
22489W        W65406  23.168  15.766   0.725  0.0664  0.1362 -0.2246
22490W        W65407  24.841  13.439   0.017 -0.3113  0.1936  0.1181
22491W        W65408  22.391  11.797  31.136 -0.2656  0.3597 -0.0416
22492W        W65409  23.039  11.150   2.298 -0.3280  0.1387  0.1911
22493W        W65410  22.650  12.534   2.575  0.1902  0.1940 -0.1725
22494W        W65411  24.188  14.103   1.872 -0.2556  0.2472 -0.4532
22495W        W65412  22.946  12.396   3.105 -0.2134 -0.2630  0.1330
22496W        W65413  24.106  13.872   3.242  0.0987 -0.1285  0.2324
22497W        W65414  24.753  14.544  29.112 -0.0106  0.0084  0.3163
22498W        W65415  23.146  12.249   1.268  0.1551  0.2059 -0.0060
22499W        W65416  22.056  14.445   3.216  0.1475  0.0292  0.1119
22500W        W65417  20.421  13.611   1.457 -0.2397 -0.4921  0.0731
22501W        W65418  25.911  13.774   0.839 -0.3854  0.1822  0.0781
22502W        W65419  21.660  11.662   0.739  0.0658 -0.1822  0.1639
22503W        W65420  23.837  15.068  31.467  0.5224  0.4236  0.0559
22504W        W65421  20.993  14.224  31.644  0.0769  0.0565 -0.2665
22505W        W65422  21.119  12.843   1.444 -0.0578  0.0724 -0.3028
22506W        W65423  22.931  14.335   2.408 -0.0692  0.1086  0.0907
22507W        W65424  21.135  14.133   0.334  0.0597  0.1128 -0.0994
22508W        W65425  24.772  13.351   3.758 -0.1340 -0.1640  0.1685
22509W        W65426  20.555  12.947   3.690  0.2497  0.1589  0.0130
22510W        W65427  27.358  11.633   1.477  0.1078  0.1083 -0.0772
22511W        W65428  23.414  14.366   1.095  0.3586  0.0349  0.0310
22512W        W65429  23.081  14.657   1.638  0.3563  0.0868 -0.1624
22513W        W65430  23.950  13.654   1.850 -0.2216  0.1077  0.0664
22514W        W65431  23.583  10.442   2.081 -0.1187 -0.0231  0.2511
22515W        W65432  24.589  13.716   2.049 -0.1510 -0.0256  0.2459
22516W        W65433  24.310  13.513  31.758  0.0914 -0.1445  0.0563
22517W        W65434  23.857  13.724  31.901  0.0863 -0.1818 -0.1453
22518W        W65435  23.039  15.240   3.293  0.1327 -0.0535  0.0155
22519W        W65436  24.059  14.510   2.232 -0.0307 -0.0400 -0.0299
22520W        W65437  23.502  13.443   1.913  0.3350  0.0225 -0.0769
22521W        W65438  24.689  12.717   2.702 -0.0028 -0.0526 -0.2583
22522W        W65439  22.487  13.889   3.877 -0.0478 -0.0748 -0.0993
22523W        W65440  18.187  13.545  31.449  0.0348  0.0287 -0.2892
22524W        W65441  22.448  14.362   0.865  0.0430  0.1196 -0.2651
22525W        W65442  23.180  14.580  31.540 -0.0260  0.0075  0.1654
22526W        W65443  20.447  12.218   1.602  0.1447 -0.2216  0.0369
22527W        W65444  21.444  12.483   1.310 -0.0554  0.1417  0.4258
22528W        W65445  23.166  11.645   2.355 -0.3414 -0.0313 -0.2350
22529W        W65446  21.070  12.639   2.138  0.0608 -0.0423 -0.0763
22530W        W65447  26.643  12.047   1.308 -0.0756 -0.0080 -0.3826
22531W        W65448  20.761  13.244   1.546  0.0210 -0.1378 -0.1691
22532W        W65449  24.468  15.278   0.655  0.1758 -0.4141 -0.1200
22533W        W65450  26.246  12.116   0.877 -0.1712 -0.0200  0.1441
22534W        W65451  25.850  14.936  29.979 -0.2848 -0.0502  0.0808
22535W        W65452  19.793  12.777   1.090 -0.5492 -0.2247 -0.3271
22536W        W65453  19.938  13.585   1.202  0.3153  0.1017 -0.4798
22537W        W65454  21.908  11.944   1.114 -0.0023 -0.3566 -0.1543
22538W        W65455  21.673  14.502   0.980 -0.0622  0.3051 -0.1753
22539W        W65456  24.466  13.203   2.714 -0.1480  0.1198  0.0257
22540W        W65457  21.225  12.333   0.684 -0.1809  0.3037 -0.0515
22541W        W65458  23.904  11.400   2.837  0.0890 -0.1692  0.1246
22542W        W65459  20.855  13.461  31.753 -0.1398  0.1382 -0.0742
22543W        W65460  19.877  14.825  31.322 -0.0130  0.2414 -0.2793
22544W        W65461  23.629  11.287   4.158 -0.1735  0.0100 -0.0561
22545W        W65462  23.367  13.757  30.975  0.0444 -0.2665  0.0220
22546W        W65463  24.061  17.578   1.493  0.2587 -0.0918  0.2366
22547W        W65464  25.458  13.800   2.506 -0.1532 -0.0173 -0.0982
22548W        W65465  22.887  10.135   3.982 -0.3099 -0.1687  0.2895
22549W        W65466  21.656  12.721  31.698  0.1322  0.3580  0.3814
22550W        W65467  21.137  14.705   1.105 -0.0735  0.1817 -0.1015
22551W        W65468  24.394  15.913   1.698  0.0744  0.1495  0.1501
22552W        W65469  21.338  11.891   0.452 -0.1105  0.0476 -0.2273
22553W        W65470  23.174  14.744   0.764 -0.1341 -0.2731 -0.2129
22554W        W65471  22.963  14.150  31.453  0.1632  0.1177  0.1523
22555W        W65472  22.557  13.855   1.204  0.0856 -0.1670  0.3533
22556W        W65473  24.144  10.590   2.570  0.1266  0.3145 -0.2424
22557W        W65474  23.965  13.377   1.060 -0.0777  0.0345 -0.0343
22558W        W65475  23.207  13.293   1.508 -0.6282  0.3304  0.2931
22559W        W65476  22.776  12.201   0.351  0.3403  0.0022  0.0913
22560W        W65477  23.442  14.157  30.566  0.0436  0.0259  0.0244
22561W        W65478  18.676  13.491  31.696  0.1280  0.3608 -0.0333
22562W        W65479  20.110  15.586  30.989  0.0304  0.1966 -0.0033
22563W        W65480  22.355  15.158   3.324  0.1308 -0.2676 -0.0140
22564W        W65481  27.451  11.679   2.440 -0.1870  0.1356  0.5709
22565W        W65482  22.922  11.475   3.964  0.0524  0.0849 -0.1708
22566W        W65483  24.086  12.363   5.255  0.3008  0.0719  0.0048
22567W        W65484  19.694  10.991  30.418  0.3475  0.2005 -0.2207
22568W        W65485  21.696  13.197   2.807 -0.0602 -0.0399 -0.0862
22569W        W65486  23.262  10.874   0.587 -0.0946  0.0477  0.1290
22570W        W65487  21.516  11.570   1.348  0.1592  0.0711 -0.3294
22571W        W65488  21.608  12.859   3.721  0.4013 -0.2707 -0.2357
22572W        W65489  23.807  12.680   1.523  0.0895  0.0000  0.1300
22573W        W65490  22.570  12.847   0.059  0.0595  0.0289  0.1386
22574W        W65491  23.420  11.807  31.229  0.0388  0.2464  0.0753
22575W        W65492  21.746  14.220   2.793 -0.2167 -0.1861 -0.1431
22576W        W65493  22.403  14.043   1.793 -0.2500 -0.1109  0.0502
22577W        W65494  24.751  14.811   2.320  0.1200 -0.6199  0.2103
22578W        W65495  22.803  12.009   1.013  0.0185  0.1582 -0.0725
22579W        W65496  25.604  13.216   0.987  0.1120 -0.1196 -0.1915
22580W        W65497  22.040  14.405  31.715 -0.1265  0.0512  0.0354
22581W        W65498  25.048  12.634   1.567  0.0032 -0.3519  0.1774
22582W        W65499  22.136  13.435   2.927  0.1328 -0.0087  0.0184
22583W        W65500  22.084  11.914   2.698  0.1735 -0.3753  0.0928
22584W        W65501  24.305  12.276  30.291 -0.0380  0.3354 -0.1046
22585W        W65502  22.082  11.454   0.540 -0.0963 -0.0714 -0.3104
22586W        W65503  20.660  15.383  30.867  0.0415  0.0054 -0.2839
22587W        W65504  24.227  11.475   3.187  0.0005  0.0612  0.0664
22588W        W65505  22.595  13.138   1.653  0.0039 -0.3119 -0.0309
22589W        W65506  23.157  10.863   3.371  0.1125 -0.1301 -0.2184
22590W        W65507  21.851  12.587   2.900  0.1814  0.0944  0.1159
22591W        W65508  25.665  12.485   0.200 -0.0688  0.4754 -0.2911
22592W        W65509  21.462  12.399   3.271 -0.2757  0.0930  0.5553
22593W        W65510  20.722  13.989  30.493  0.1776  0.0258 -0.0433
22594W        W65511  24.508  11.364   4.239  0.0623  0.0588  0.2473
22595W        W65512  22.162  13.205   1.387  0.1668  0.1308 -0.1077
22596W        W65513  22.102  13.754   1.493  0.2141 -0.0894 -0.1454
22597W        W65514  23.807  15.576   4.589 -0.0186  0.1648  0.0147
22598W        W65515  23.614  13.321  31.547  0.1741  0.0780 -0.1302
22599W        W65516  23.348  11.719   3.974  0.1012 -0.3767  0.0831
22600W        W65517  22.867  11.761  31.245  0.2114  0.0956  0.1669
22601W        W65518  20.406  13.498   0.314  0.0118  0.0378  0.0979
22602W        W65519  23.380  13.922   0.180 -0.1896 -0.1194  0.0184
22603W        W65520  22.934  12.240   2.110 -0.3477  0.1818  0.2773
22604W        W65521  23.522  15.196   3.073 -0.2881 -0.0863 -0.4143
22605W        W65522  21.126  14.737  31.489 -0.1886 -0.2261  0.1832
22606W        W65523  22.859  10.997   3.805 -0.0156  0.0676 -0.3075
22607W        W65524  22.656  13.453   0.189  0.1860  0.1256 -0.1825
22608W        W65525  23.615  12.329   1.940  0.2696 -0.0819 -0.0065
22609W        W65526  20.186  14.556   0.183 -0.1656  0.1445  0.2434
22610W        W65527  21.963  12.574   1.089 -0.3464 -0.1522 -0.0466
22611W        W65528  18.308  13.928  31.781  0.3359 -0.1842 -0.1880
22612W        W65529  23.853  13.904   0.966 -0.0667 -0.0552  0.1071
22613W        W65530  23.383  15.204  29.943  0.1401 -0.1803  0.1410
22614W        W65531  22.554  11.746   4.214 -0.0775 -0.3173 -0.1253
22615W        W65532  23.247  12.563   2.258 -0.1391  0.2382  0.2806
22616W        W65533  19.951  13.953   1.511 -0.0420  0.0919 -0.2568
22617W        W65534  23.391  14.833   1.339 -0.1602  0.2171 -0.2345
22618W        W65535  23.286  11.963   1.805  0.1259  0.2015  0.2976
22619W        W65536  23.843  13.887   2.813  0.2219 -0.5515  0.2359
22620W        W65537  21.959  12.472   2.423  0.2758  0.1485  0.3826
22621W        W65538  22.501  14.080   2.434 -0.0251 -0.1926 -0.1198
22622W        W65539  25.193  13.082   3.695  0.0840 -0.2000  0.4931
22623W        W65540  20.312  12.573   2.016 -0.0439 -0.2006 -0.1955
22624W        W65541  22.256  12.864   2.675 -0.1131  0.0286 -0.0821
22625W        W65542  22.074  12.954   3.128  0.0989  0.4447  0.1351
22626W        W65543  22.118  13.695   0.459  0.0359 -0.3533 -0.0001
22627W        W65544  23.591  12.929   1.882 -0.1381  0.0684  0.2894
22628W        W65545  22.482  11.655   3.436 -0.0940  0.0843  0.1022
22629W        W65546  26.263  12.061   2.400 -0.3025 -0.0370  0.0562
22630W        W65547  23.606  11.748   2.689 -0.0890 -0.0756 -0.0574
22631W        W65548  22.803  11.763   2.068  0.2898  0.0037 -0.0544
22632W        W65549  24.066  15.698  31.771 -0.0657 -0.1258  0.0200
22633W        W65550  22.815  13.678   1.622 -0.1688 -0.1310 -0.1035
22634W        W65551  21.343  13.224   1.684 -0.1741 -0.4274  0.4174
22635W        W65552  22.030  13.698   3.955 -0.2000 -0.0111  0.1197
22636W        W65553  23.028   9.780   2.058 -0.0884  0.0741 -0.3295
22637W        W65554  24.946  15.500   0.553  0.0348 -0.0231 -0.0542
22638W        W65555  23.885  13.615   3.831  0.2996 -0.0727  0.1543
22639W        W65556  22.438  14.077   0.456 -0.2479  0.2772  0.2303
22640W        W65557  21.677  14.417   4.948 -0.2617 -0.1023 -0.1441
22641W        W65558  20.760  13.536   2.057 -0.1487  0.1591  0.3150
22642W        W65559  24.052  10.869   3.324 -0.2970  0.0844  0.0150
22643W        W65560  21.176  14.661   0.567  0.2680  0.0653  0.0163
22644W        W65561  20.794  12.957   0.123  0.1354 -0.1463 -0.1135
22645W        W65562  21.411  14.037   4.467  0.0714 -0.0829 -0.1399
22646W        W65563  22.689  10.537   1.613 -0.1003  0.2346 -0.2641
22647W        W65564  23.823  14.805   0.451  0.1710  0.4627 -0.0578
22648W        W65565  23.281  13.881   1.846 -0.2140  0.1894  0.3339
22649W        W65566  24.824  10.817   2.052  0.2535  0.1942  0.2440
22650W        W65567  24.103  14.438  31.493  0.0492 -0.1099  0.1701
22651W        W65568  24.119  12.811   2.786  0.0076 -0.0175 -0.2917
22652W        W65569  22.378  13.464   1.903  0.1961  0.0002  0.4977
22653W        W65570  24.767  13.585   1.555 -0.0496 -0.2330  0.2874
22654W        W65571  20.215  13.236   3.239 -0.3838 -0.1318 -0.0763
22655W        W65572  22.572  13.979   4.367  0.0289  0.1924  0.0918
22656W        W65573  21.115  12.114   2.871 -0.1250 -0.2960 -0.0678
22657W        W65574  23.209  12.199   0.578  0.2463  0.1836  0.1585
22658W        W65575  22.346  12.352  31.732  0.4324  0.1338 -0.4630
22659W        W65576  22.912  13.576   3.592 -0.1529 -0.0692  0.1726
22660W        W65577  25.323  13.467   1.515 -0.0263 -0.0354 -0.0199
22661W        W65578  22.729  13.197  31.710 -0.3414 -0.1110  0.0847
22662W        W65579  24.151  11.703   1.907 -0.0934 -0.1292 -0.0453
22663W        W65580  22.887  15.819   2.032  0.0264 -0.3112 -0.0357
22664W        W65581  23.543  13.724   1.370 -0.2373  0.0286 -0.1751
22665W        W65582  22.593  12.723  31.504  0.1755  0.0336 -0.1413
22666W        W65583  22.546  13.084   2.331  0.0689 -0.0025 -0.0475
22667W        W65584  21.185  12.394   1.715 -0.2244  0.1132 -0.2514
22668W        W65585  25.571  14.192   2.135  0.0559  0.0472  0.1331
22669W        W65586  24.010  13.240   2.265  0.3474  0.2074 -0.2100
22670W        W65587  26.316  11.945   1.725  0.0494 -0.1236  0.1653
22671W        W65588  23.709  12.956   3.220 -0.0003  0.2329  0.1299
22672W        W65589  23.651  10.639   3.634  0.2769  0.4748 -0.1734
22673W        W65590  22.388  12.207   1.326 -0.0766 -0.2714 -0.0431
22674W        W65591  23.401  14.959   1.914 -0.1799  0.0757  0.3309
22675W        W65592  26.066  12.540   2.364 -0.1929  0.3329 -0.0638
22676W        W65593  24.544  12.012   2.807  0.0917 -0.0729  0.0210
22677W        W65594  24.198  13.502   1.443 -0.0822  0.0219  0.0835
22678W        W65595  24.904  13.901   1.051 -0.6853  0.2552  0.1507
22679W        W65596  21.262  11.112   1.572 -0.2080  0.1431  0.0393
22680W        W65597  25.830  12.215   1.595 -0.3128  0.3284 -0.0924
22681W        W65598  20.226  12.863  31.287 -0.0063 -0.3771  0.3401
22682W        W65599  23.800  11.123   3.696  0.0999 -0.2865 -0.0877
22683W        W65600  23.743  14.049   2.074 -0.1565  0.1612  0.1188
22684W        W65601  23.748  13.209   1.499  0.3634 -0.1988 -0.3840
22685W        W65602  25.946  12.683   1.636  0.1022 -0.1930 -0.1229
22686W        W65603  21.262  13.629   2.022  0.0387 -0.1543  0.1833
22687W        W65604  22.116  16.265   0.949 -0.0213 -0.1559 -0.1740
22688W        W65605  20.942  13.657   0.349 -0.1939 -0.1075 -0.3136
22689W        W65606  22.646  13.567  30.442 -0.1418  0.1071  0.1232
22690W        W65607  24.518  11.867   2.290  0.0505 -0.1326  0.0721
22691W        W65608  23.301  14.310   3.502 -0.0404 -0.0386  0.0508
22692W        W65609  23.760  11.934  31.679  0.2098 -0.0473 -0.1545
22693W        W65610  25.808  14.876   2.956 -0.1941  0.2594  0.1209
22694W        W65611  20.905  15.076   0.278 -0.0739 -0.0627  0.0177
22695W        W65612  22.423  12.288   0.837  0.0186 -0.0944 -0.1387
22696W        W65613  22.432  14.799   1.435 -0.0992 -0.1770  0.0707
22697W        W65614  22.541  13.311   1.052 -0.0450  0.0426  0.0552
22698W        W65615  23.381  14.317   0.531  0.0481  0.2143  0.0586
22699W        W65616  23.421  11.313   2.735  0.0186 -0.1180  0.0748
22700W        W65617  23.879  13.206   0.010  0.2540  0.0256  0.1734
22701W        W65618  22.012  13.272   2.358  0.0519 -0.2194 -0.1168
22702W        W65619  24.253  15.898   2.713  0.2517 -0.0624  0.3220
22703W        W65620  24.419  13.211   1.824 -0.2429 -0.2135  0.1265
22704W        W65621  20.323  15.531   0.713  0.0131  0.0492  0.0332
22705W        W65622  24.389  14.026   1.101 -0.1652 -0.0440  0.3083
22706W        W65623  22.831  12.659   1.382 -0.0651 -0.1681  0.1733
22707W        W65624  22.227  12.668   1.560 -0.0662 -0.1439  0.2328
22708W        W65625  21.641  12.837   2.453 -0.3311  0.2581 -0.0776
22709W        W65626  23.836  12.268   2.799 -0.0448  0.0834 -0.0567
22710W        W65627  23.636  14.051   3.229 -0.0537  0.0341 -0.1189
22711W        W65628  23.292  12.358  31.430  0.0510  0.0867 -0.2769
22712W        W65629  21.815  17.282  30.937  0.1294 -0.0167  0.1192
22713W        W65630  21.998  15.417   2.257  0.1063  0.1013 -0.0381
22714W        W65631  20.784  12.526   2.505  0.1541  0.1860  0.0290
22715W        W65632  19.442  16.627  31.338  0.2404 -0.0661 -0.0146
22716W        W65633  24.898  13.126   1.601  0.2304  0.4648 -0.2882
22717W        W65634  21.835  13.139   0.913  0.1464  0.0126  0.0882
22718W        W65635  22.941  15.294   2.324  0.1240 -0.0876 -0.0428
22719W        W65636  22.233  11.901   0.063  0.2862  0.1397  0.0568
22720W        W65637  21.033  15.165  31.777 -0.1989  0.1982 -0.0553
22721W        W65638  19.311  14.095  31.327  0.2603  0.0540  0.0831
22722W        W65639  22.415  14.526   0.246  0.1369  0.1725 -0.0929
22723W        W65640  21.284  15.124   0.656  0.0605  0.0287  0.0818
22724W        W65641  22.899  13.552   4.124  0.1137  0.0326 -0.0987
22725W        W65642  23.670  11.513   0.660  0.1406 -0.1741 -0.0300
22726W        W65643  23.169  12.597   1.706  0.2434  0.0002  0.0479
22727W        W65644  26.767  12.014   2.081 -0.0086 -0.1545  0.2992
22728W        W65645  22.734  13.238   4.723 -0.1434  0.1736 -0.2072
22729W        W65646  22.873  13.342   2.091 -0.1113 -0.2692  0.0635
22730W        W65647  21.863  12.203   0.732 -0.0270  0.1311  0.4291
22731W        W65648  22.412  11.067   2.776 -0.2192  0.3635 -0.2096
22732W        W65649  23.640  11.666   1.654 -0.0057 -0.2680 -0.1073
22733W        W65650  22.307  15.037   3.799 -0.0734 -0.1829  0.0969
22734W        W65651  25.364  13.276  31.121 -0.2771  0.1300 -0.4951
22735W        W65652  21.223  13.225   0.170  0.1536  0.1413  0.0562
22736W        W65653  22.827  13.154   0.568 -0.2031  0.1126  0.0484
22737W        W65654  25.015  12.932   1.136  0.3098 -0.4262  0.2526
22738W        W65655  23.562  13.353  30.792  0.0559 -0.2089  0.0418
22739W        W65656  22.159  12.100   1.739 -0.0372 -0.0846 -0.2921
22740W        W65657  22.084  16.649   2.027 -0.0915  0.1602 -0.1410
22741W        W65658  21.736  14.237   1.856  0.1675  0.1097  0.1913
22742W        W65659  23.065  16.680   2.607  0.0434 -0.1314 -0.0947
22743W        W65660  20.016  11.389  31.081 -0.0308 -0.1560  0.0944
22744W        W65661  25.537  12.987   1.459  0.0964 -0.0090  0.1123
22745W        W65662  23.351  13.886   0.801 -0.0319 -0.0027  0.1879
22746W        W65663  25.453  15.349   4.090  0.2789  0.0805  0.0582
22747W        W65664  19.956  14.546   1.746  0.0862 -0.0998 -0.0063
22748W        W65665  23.184  11.474   1.853 -0.0782  0.0321  0.0548
22749W        W65666  24.245  14.146   2.797  0.0179  0.0223  0.1730
22750W        W65667  20.443  14.235   1.526  0.0257  0.0831 -0.0582
22751W        W65668  21.063  12.728   0.947  0.3120  0.1040 -0.0214
22752W        W65669  24.626  14.478   1.924  0.2107  0.1501  0.0259
22753W        W65670  23.312  11.857  29.554  0.1177  0.0089 -0.0066
22754W        W65671  22.860  15.406   3.868 -0.0922 -0.0840 -0.1618
22755W        W65672  21.382  11.095   2.054 -0.2026 -0.2682  0.0437
22756W        W65673  23.710  12.664   2.403 -0.1697 -0.1487 -0.0596
22757W        W65674  22.544  12.525  30.793 -0.1341  0.3189  0.3559
22758W        W65675  24.463  11.924   3.294  0.3821 -0.1273  0.1395
22759W        W65676  23.709  15.002   3.472  0.0685  0.0214 -0.0025
22760W        W65677  20.737  12.761   1.801  0.0103 -0.1648  0.0980
22761W        W65678  25.397  13.703   1.062 -0.1628  0.3685  0.1193
22762W        W65679  24.899  11.706   2.557 -0.0731 -0.0953  0.4208
22763W        W65680  22.116  13.563   0.993 -0.1634 -0.1423  0.4311
22764W        W65681  24.634  12.578   1.324  0.4522 -0.0956 -0.2648
22765W        W65682  24.602  15.919  31.833  0.1997  0.1024  0.1052
22766W        W65683  22.457  13.550   2.385 -0.1303  0.2120  0.0943
22767W        W65684  25.040  13.564   1.963  0.1143 -0.3485  0.0992
22768W        W65685  23.949  14.726   1.786 -0.0991  0.0111  0.2772
22769W        W65686  24.226  11.970   0.910 -0.1678 -0.1412  0.0040
22770W        W65687  23.203  13.127   3.515 -0.0746 -0.1440  0.1759
22771W        W65688  20.842  14.593   1.924 -0.2323  0.1352  0.2402
22772W        W65689  23.760  12.814   0.521 -0.0815  0.0140 -0.3030
22773W        W65690  24.307  12.333   3.050  0.0532 -0.0002 -0.0905
22774W        W65691  23.692  14.077  31.253 -0.2868 -0.0466 -0.0722
22775W        W65692  25.376  10.413   3.238  0.1944 -0.1925  0.0782
22776W        W65693  23.009  15.681   3.458 -0.3090  0.1147  0.3273
22777W        W65694  22.379  14.745   4.512  0.1023 -0.1659 -0.0055
22778W        W65695  19.608  15.179  30.885 -0.0802  0.3203 -0.0511
22779W        W65696  22.410  14.653   3.476 -0.1072 -0.1304  0.1148
22780W        W65697  23.288  14.299  31.065  0.0348  0.1197 -0.1687
22781W        W65698  21.830  15.810  31.182 -0.1771 -0.1343  0.0461
22782W        W65699  24.494  15.141   2.848 -0.1441  0.0328 -0.0345
22783W        W65700  22.840  13.858   2.141 -0.1126 -0.0694 -0.0000
22784W        W65701  24.240  14.116   0.661  0.0520  0.0485 -0.3029
22785W        W65702  21.108  13.558   1.375  0.0421  0.0966  0.1486
22786W        W65703  25.128  11.807   2.092  0.0360  0.1449  0.0762
22787W        W65704  24.017  14.045   1.444 -0.0824  0.3911 -0.0850
22788W        W65705  22.933  12.550   0.901  0.1886  0.2234 -0.1489
22789W        W65706  19.236  12.295  31.050  0.1545 -0.0252 -0.0116
22790W        W65707  21.660  13.951   1.158  0.1191 -0.3451  0.0057
22791W        W65708  22.089  14.257   3.758 -0.1054  0.1217  0.2607
22792W        W65709  23.895  10.612   4.482  0.0147 -0.0516  0.4579
22793W        W65710  21.641  14.097   2.330  0.1245 -0.1301 -0.0125
22794W        W65711  22.855  14.337   1.890  0.0571  0.1927  0.0562
22795W        W65712  21.143  13.693   0.890 -0.0574  0.0625 -0.1922
22796W        W65713  24.252  14.529   0.928 -0.2277  0.0297  0.1782
22797W        W65714  20.948  11.634   3.393 -0.1904 -0.3761  0.0865
22798W        W65715  20.388  12.723  31.710  0.2823  0.2121  0.1086
22799W        W65716  23.137  13.373  31.448 -0.1011  0.0230  0.0463
22800W        W65717  25.541  15.174  30.255 -0.0866  0.3328 -0.0035
22801W        W65718  21.665  12.428   0.358 -0.0044  0.0559 -0.2466
22802W        W65719  24.138  13.192   0.584 -0.1187 -0.4413  0.2003
22803W        W65720  21.800  13.291   0.426  0.1003 -0.0498  0.1332
22804W        W65721  24.452  11.438   2.707  0.2917  0.0233 -0.1767
22805W        W65722  24.604  10.257   2.898  0.1703  0.1416 -0.1420
22806W        W65723  21.379  11.485  31.769 -0.2144 -0.1097 -0.2281
22807W        W65724  23.412  13.076   2.319 -0.0066  0.2726  0.0912
22808W        W65725  23.669  11.901   0.255 -0.3897  0.0861 -0.1634
22809W        W65726  26.230  15.750  31.508 -0.0169  0.2195 -0.1482
22810W        W65727  24.787  12.291   2.471 -0.2418  0.2262  0.4709
22811W        W65728  24.640  14.192   3.106 -0.0560  0.1837 -0.2332
22812W        W65729  18.561  11.208   3.450  0.3477  0.2774  0.3265
22813W        W65730  25.306  13.822  30.990  0.0247  0.0262 -0.2485
22814W        W65731  21.738  14.831   3.245 -0.2027  0.0758  0.0292
22815W        W65732  27.557  14.676  31.893 -0.0153 -0.0232  0.0856
22816W        W65733  25.074  11.907   0.799 -0.1106  0.2459  0.0409
22817W        W65734  24.882  14.380   0.165 -0.0878  0.0298 -0.3143
22818W        W65735  21.389  11.595  30.998  0.5922 -0.0972  0.0077
22819W        W65736  21.968  14.142   0.342  0.3623  0.2054  0.1384
22820W        W65737  23.688  13.468   3.224 -0.2417  0.3207  0.1315
22821W        W65738  21.871  12.313  31.851  0.2212  0.2768 -0.2719
22822W        W65739  23.747  12.080   0.950  0.0446  0.1088  0.0308
22823W        W65740  26.394  13.541   1.446  0.1890  0.1575  0.6078
22824W        W65741  20.405  12.437   2.869  0.2276 -0.1253 -0.3391
22825W        W65742  22.997  13.598   1.065 -0.0963 -0.2289  0.0151
22826W        W65743  24.215  12.680   3.482  0.1889  0.0431  0.3278
22827W        W65744  22.182  14.439   2.701 -0.1737  0.1933 -0.3052
22828W        W65745  25.930  13.748   5.551 -0.3417 -0.0002  0.1736
22829W        W65746  24.503  13.242   1.157  0.0604 -0.2546  0.1152
22830W        W65747  25.835  13.303   0.350 -0.0188  0.2898 -0.2981
22831W        W65748  24.118  12.798   1.888  0.0197  0.2291  0.1274
22832W        W65749  24.952  14.602   3.305  0.3733 -0.0748  0.3032
22833W        W65750  23.429  13.223   2.795  0.2942 -0.1977 -0.1447
22834W        W65751  25.443  14.399   1.693  0.2657  0.0656  0.1838
22835W        W65752  22.589  13.155   3.405 -0.1772  0.1364 -0.0157
22836W        W65753  21.364  12.012   1.040 -0.1444  0.4549  0.1521
22837W        W65754  22.684  13.666   0.686 -0.1246  0.0053  0.1839
22838W        W65755  27.973  14.703   2.934 -0.0194  0.1407 -0.0455
22839W        W65756  23.386  12.166   3.112  0.0473 -0.1078 -0.1685
22840W        W65757  22.058  10.754   0.907 -0.0724  0.1844  0.1491
22841W        W65758  22.315  14.504   1.841  0.0286 -0.0200  0.2273
22842W        W65759  24.076  11.960   3.645  0.0281 -0.0397 -0.1903
22843W        W65760  23.418  14.134   7.656  0.0516 -0.0705 -0.0869
22844W        W65761  22.245  11.980   3.719 -0.1263  0.1189  0.0713
22845W        W65762  24.081  11.077   4.191  0.2631 -0.5500 -0.2480
22846W        W65763  23.993  14.409   3.195 -0.0205  0.2925  0.0577
22847W        W65764  23.901  10.220   3.497 -0.1212 -0.0213 -0.0044
22848W        W65765  24.457  12.590   5.586  0.6435 -0.3420  0.0875
22849W        W65766  23.403  11.263   6.766  0.0163  0.1189  0.1562
22850W        W65767  24.265  14.092   6.881 -0.2620  0.0413  0.2110
22851W        W65768  26.189  13.730   4.768 -0.1384  0.0879  0.3951
22852W        W65769  22.345  13.828   4.892 -0.0055  0.2372  0.1751
22853W        W65770  23.875  14.525   6.178 -0.1690 -0.1401 -0.2215
22854W        W65771  22.765  14.465   7.702  0.3077  0.2784 -0.1025
22855W        W65772  21.842  11.242   1.742  0.2516 -0.3885  0.1299
22856W        W65773  19.987  11.109   4.782  0.2331  0.2230  0.1418
22857W        W65774  24.914  12.241   5.792 -0.2683 -0.2509 -0.1496
22858W        W65775  22.260  13.315   5.042  0.0849 -0.0906  0.2773
22859W        W65776  22.488  13.010   6.042  0.0550 -0.1907  0.1243
22860W        W65777  22.702  10.933   4.638 -0.1553 -0.1032 -0.1201
22861W        W65778  24.522  13.526   5.347 -0.0328 -0.2444  0.0547
22862W        W65779  25.064  11.189   5.136 -0.1985 -0.0368 -0.3809
22863W        W65780  22.941  11.078   6.844  0.2591  0.0570 -0.2616
22864W        W65781  23.737  11.596   3.550 -0.2634  0.1173 -0.0821
22865W        W65782  21.398  12.463   3.932 -0.1988 -0.0397 -0.0639
22866W        W65783  20.707  10.834   4.176 -0.3122 -0.3312 -0.2758
22867W        W65784  23.020  12.202   6.048 -0.0422  0.0761  0.3067
22868W        W65785  24.920  12.109   4.802  0.3580 -0.1462  0.0174
22869W        W65786  24.073  13.571   4.273  0.2162  0.0637 -0.1731
22870W        W65787  22.023  12.255   4.685 -0.0324  0.0168  0.2866
22871W        W65788  23.802  14.813   4.518 -0.4013 -0.2889  0.3184
22872W        W65789  23.660  11.367   7.161  0.1294  0.1179  0.1661
22873W        W65790  24.055  12.909   4.495 -0.0083  0.0024 -0.0035
22874W        W65791  21.060  12.937   6.572  0.2538  0.1266  0.0384
22875W        W65792  23.085  15.247   2.794  0.0495  0.0724 -0.1968
22876W        W65793  24.485  12.990   5.264 -0.0044 -0.0112 -0.0543
22877W        W65794  24.031  15.039   5.046 -0.0430 -0.3729 -0.0485
22878W        W65795  22.939  14.589   5.291 -0.3122  0.0292 -0.0018
22879W        W65796  21.505  14.442   5.900 -0.1376  0.0986 -0.4369
22880W        W65797  23.086  14.339   6.132 -0.3262  0.1618 -0.0583
22881W        W65798  20.394  15.906   6.582 -0.2538 -0.2028  0.0484
22882W        W65799  24.666  14.481   5.474 -0.0430  0.3341 -0.0920
22883W        W65800  24.505  12.889   3.100  0.1701 -0.1724  0.4041
22884W        W65801  23.672  13.157   5.354  0.3022  0.3765 -0.1564
22885W        W65802  23.491  12.534   6.436 -0.1130  0.1863  0.1142
22886W        W65803  22.630  15.003   6.344 -0.1359 -0.0530 -0.2862
22887W        W65804  22.302  13.593   5.872 -0.3017 -0.0131 -0.1880
22888W        W65805  25.730  11.424   6.798 -0.2928 -0.0651 -0.3224
22889W        W65806  21.656  14.259   5.418  0.1027  0.0076  0.0163
22890W        W65807  25.079  12.779   2.221  0.3166 -0.2308 -0.0480
22891W        W65808  22.608  12.278   3.428  0.1867  0.3766  0.1402
22892W        W65809  22.562  10.715   4.172 -0.0417 -0.1304  0.0173
22893W        W65810  24.909   9.854   4.532  0.1448  0.0525  0.3061
22894W        W65811  21.062  13.630   5.486 -0.0980 -0.2354 -0.1845
22895W        W65812  24.128  11.389   4.931  0.0972  0.0714 -0.1411
22896W        W65813  25.044  13.890   6.215  0.1660 -0.1543  0.2920
22897W        W65814  21.936  11.841   4.154  0.0163  0.0802 -0.1328
22898W        W65815  23.841  13.003   6.336  0.0935  0.3596 -0.0050
22899W        W65816  23.747  14.061   6.332 -0.1256 -0.2832 -0.1351
22900W        W65817  19.378  12.948   4.954 -0.1159 -0.3116 -0.0400
22901W        W65818  24.234  15.776   3.659 -0.0106 -0.0149 -0.0831
22902W        W65819  22.920  12.701   4.544 -0.1210 -0.0720  0.2110
22903W        W65820  23.521  14.561   2.586 -0.0225  0.4576 -0.2126
22904W        W65821  22.706  12.728   5.186  0.0400 -0.0489 -0.2455
22905W        W65822  21.017  12.476   5.850 -0.0238  0.2462  0.0828
22906W        W65823  23.003  12.576   6.690  0.1015  0.1158  0.2688
22907W        W65824  20.854  10.410   3.939 -0.0216  0.1685 -0.1975
22908W        W65825  25.357  12.975   5.491  0.0060 -0.0785 -0.0248
22909W        W65826  23.478  14.655   5.828 -0.3518  0.0145  0.2994
22910W        W65827  24.347  13.179   3.951  0.1017  0.0461  0.0060
22911W        W65828  23.597  11.836   7.411 -0.0531  0.1901  0.2364
22912W        W65829  22.092  13.140   4.608 -0.2642 -0.0283  0.1299
22913W        W65830  23.693  11.744   2.181 -0.0295  0.0659  0.0647
22914W        W65831  25.185  11.329   4.355  0.0093  0.0481 -0.2841
22915W        W65832  24.557  11.258   6.041  0.0037  0.2671 -0.1247
22916W        W65833  22.257  14.582   4.040 -0.1679 -0.1001 -0.0429
22917W        W65834  22.589  11.234   4.253 -0.0247  0.1894  0.0265
22918W        W65835  24.082  14.548   3.973 -0.1203 -0.2332 -0.1030
22919W        W65836  21.934  13.574   3.431  0.0335  0.0458 -0.0506
22920W        W65837  19.340  14.237   5.217  0.0480 -0.1465 -0.0932
22921W        W65838  22.948  13.486   7.601 -0.0957 -0.1125 -0.0672
22922W        W65839  24.346  12.484   4.828  0.0786 -0.0352  0.3166
22923W        W65840  20.054  15.687   2.643 -0.1049 -0.1382  0.0669
22924W        W65841  20.397  13.464   5.579 -0.0794  0.2183  0.2162
22925W        W65842  22.100  13.141   3.606  0.0107 -0.3290 -0.3689
22926W        W65843  22.768  12.178   7.808 -0.0451  0.1894 -0.0813
22927W        W65844  22.945  12.910   7.043  0.0696  0.1238 -0.4163
22928W        W65845  24.872  10.779   4.517 -0.1131 -0.0173  0.2292
22929W        W65846  21.681  12.188   6.243  0.1771  0.1636 -0.0664
22930W        W65847  24.504  11.534   3.632  0.3196 -0.1514  0.1566
22931W        W65848  23.024  12.230   5.530 -0.1986 -0.3315 -0.3391
22932W        W65849  23.744  16.050   4.127 -0.3554 -0.2073 -0.2968
22933W        W65850  24.826  11.228   2.366 -0.1035 -0.1168 -0.0709
22934W        W65851  23.343  14.604   4.551 -0.1990  0.4042 -0.0045
22935W        W65852  22.119  12.285   5.990 -0.2674 -0.0944 -0.1390
22936W        W65853  21.858  12.143   3.074  0.0478  0.0992 -0.0467
22937W        W65854  23.493  11.810   6.889  0.0683  0.0159 -0.1620
22938W        W65855  21.760  11.209   6.162  0.2609 -0.0135 -0.2270
22939W        W65856  23.591  12.173   6.095  0.3030 -0.1561 -0.2811
22940W        W65857  22.364  12.043   3.113 -0.2578  0.1831 -0.3363
22941W        W65858  23.609  14.208   4.369 -0.2288 -0.4143 -0.3858
22942W        W65859  22.632  12.053   5.742 -0.4195 -0.0850  0.0708
22943W        W65860  22.203  11.786   4.587  0.0022  0.2896 -0.0964
22944W        W65861  23.308  11.903   9.025 -0.2068  0.2604 -0.4146
22945W        W65862  24.749  14.106   4.184  0.1355  0.0197 -0.4233
22946W        W65863  25.266  13.347   7.599 -0.2093 -0.0535  0.0045
22947W        W65864  23.565  14.047   3.859 -0.3502 -0.0520 -0.1920
22948W        W65865  23.920   9.734   3.300  0.0879  0.0046 -0.0952
22949W        W65866  20.315  13.534   2.222  0.1115 -0.0285 -0.0453
22950W        W65867  23.374  12.935   6.840  0.3762 -0.0524  0.0453
22951W        W65868  21.966  14.955   4.831 -0.0544  0.0585 -0.1744
22952W        W65869  22.387  11.355   3.805 -0.2082 -0.0032 -0.1449
22953W        W65870  23.249  13.498   4.916  0.1162 -0.3033 -0.0857
22954W        W65871  23.014  12.078   4.709 -0.0890  0.1166  0.0396
22955W        W65872  19.633  13.652   4.312 -0.0529  0.1614  0.1141
22956W        W65873  22.931   9.723   7.085  0.1633  0.1234  0.2148
22957W        W65874  26.426  13.019   6.233  0.1332 -0.0486  0.0668
22958W        W65875  24.949  10.615   5.030 -0.0835  0.0633 -0.1331
22959W        W65876  20.271  12.235   2.373  0.1011 -0.0627  0.1352
22960W        W65877  22.795  15.147   5.914 -0.1807  0.0902  0.1487
22961W        W65878  21.155  14.181   6.169  0.1683  0.2257  0.0384
22962W        W65879  23.325  11.820   5.873  0.3313  0.5406 -0.2542
22963W        W65880  24.141  11.529   3.946  0.3279  0.3094 -0.0835
22964W        W65881  21.379  12.300   6.718 -0.0624  0.1053  0.1383
22965W        W65882  25.138  12.954   5.946 -0.2086 -0.0970 -0.0802
22966W        W65883  23.341  12.412   4.527  0.3545 -0.1174  0.0753
22967W        W65884  20.595  13.917   7.761  0.0038 -0.2392 -0.0447
22968W        W65885  23.991  12.149   2.157  0.5335  0.0160 -0.5070
22969W        W65886  26.840  11.908   4.417  0.0251 -0.1229  0.1852
22970W        W65887  23.916  12.773   5.465 -0.1910 -0.0234 -0.3841
22971W        W65888  24.461  13.349   4.448  0.0864  0.0533 -0.0310
22972W        W65889  22.299   9.524   4.096 -0.0317  0.0127 -0.1764
22973W        W65890  23.171  12.842   4.055 -0.3468  0.3199 -0.0656
22974W        W65891  22.624  13.725   6.573 -0.0864 -0.0195  0.0969
22975W        W65892  22.156  13.797   5.327  0.0839 -0.0191 -0.1527
22976W        W65893  23.048  12.703   6.178  0.2233 -0.0997 -0.3549
22977W        W65894  24.424  11.704   4.598  0.1011  0.0704  0.0645
22978W        W65895  26.103  13.764   4.290 -0.4897  0.1048 -0.1663
22979W        W65896  22.948  11.697   5.039  0.1522  0.0051 -0.5676
22980W        W65897  24.719  14.025   6.640  0.0572 -0.1006  0.1914
22981W        W65898  21.241  14.436   5.198  0.2729 -0.1262 -0.1198
22982W        W65899  23.965  10.522   6.186 -0.2248  0.1497 -0.2034
22983W        W65900  22.763  11.944   3.741 -0.1498  0.3305  0.3148
22984W        W65901  23.967  11.967   4.743 -0.0266 -0.0399 -0.2640
22985W        W65902  22.153  13.978   3.065 -0.0816 -0.1148  0.1314
22986W        W65903  24.400  10.523   5.855 -0.0610  0.3122 -0.1997
22987W        W65904  23.834  11.724   5.128 -0.0480  0.1861 -0.1861
22988W        W65905  23.673  11.479   5.954  0.1403  0.0766  0.0434
22989W        W65906  25.546   9.993   6.126  0.1228 -0.2054  0.2349
22990W        W65907  25.466  12.599   1.841 -0.0300 -0.1272  0.1278
22991W        W65908  24.409  12.063   5.033 -0.2622 -0.0951  0.1311
22992W        W65909  23.051  10.967   4.283  0.0506 -0.2401 -0.0705
22993W        W65910  23.708  12.188   6.681  0.2377 -0.0160 -0.2582
22994W        W65911  23.249  13.654   5.769  0.2026 -0.0235 -0.2452
22995W        W65912  22.499  14.990   4.996 -0.3131  0.0704 -0.1414
22996W        W65913  25.103  14.180   5.532  0.0607 -0.0047 -0.0498
22997W        W65914  23.543  12.655   5.928 -0.0612 -0.0697 -0.2507
22998W        W65915  23.897   9.797   7.764 -0.2213 -0.1240  0.1439
22999W        W65916  24.515  11.907   3.973 -0.2652  0.4488  0.1307
23000W        W65917  21.225  13.342   2.960 -0.0978 -0.1640  0.2617
23001W        W65918  22.928  13.363   2.581  0.1207 -0.1230  0.0357
23002W        W65919  24.764   9.232   3.601 -0.1507 -0.0588  0.1163
23003W        W65920  24.372  13.013   7.710 -0.0035  0.0240  0.0364
23004W        W65921  23.248  16.232   4.043 -0.1200  0.0535  0.0764
23005W        W65922  24.083  13.876   5.974 -0.1850  0.2618  0.1333
23006W        W65923  21.296  12.487   2.651 -0.1625 -0.1767 -0.1256
23007W        W65924  24.464  10.133   4.575  0.1296  0.2072 -0.1497
23008W        W65925  21.414  13.569   4.257 -0.2185 -0.1596 -0.1499
23009W        W65926  20.877  12.813   4.077  0.0642 -0.0210  0.1281
23010W        W65927  22.059  10.410   5.853 -0.1396 -0.1625  0.0392
23011W        W65928  24.063  11.363   6.333  0.2707 -0.0331  0.0567
23012W        W65929  22.735  14.535   3.814  0.1098  0.1021 -0.2208
23013W        W65930  21.974  10.857   6.972  0.0611 -0.1014  0.0404
23014W        W65931  24.632   9.739   5.016  0.1386  0.2208  0.1627
23015W        W65932  19.461  13.882   6.162  0.1158  0.1030  0.1001
23016W        W65933  24.301  12.341   7.033  0.3721  0.0381  0.2706
23017W        W65934  24.113  10.645   3.850  0.0577  0.2619  0.2623
23018W        W65935  23.645  13.534   6.274  0.1619 -0.0376 -0.2053
23019W        W65936  25.000  11.666   7.233  0.3041 -0.0297 -0.1125
23020W        W65937  22.213  11.157   4.704  0.0953 -0.0591 -0.0568
23021W        W65938  24.837  12.386   6.750  0.2324  0.3217  0.0211
23022W        W65939  20.131  13.278   3.743  0.2104 -0.4220 -0.1752
23023W        W65940  22.525  14.605   6.596  0.0576 -0.0661 -0.0035
23024W        W65941  23.202  13.830   5.291 -0.2842  0.0852 -0.4400
23025W        W65942  21.208  12.091   5.955 -0.0593  0.1163  0.2249
23026W        W65943  22.938  11.587   4.572 -0.1598  0.1178 -0.1468
23027W        W65944  22.670  12.895   6.503  0.2465 -0.0746  0.1704
23028W        W65945  24.139  13.369   6.109 -0.2801  0.0350 -0.0196
23029W        W65946  21.901  12.899   4.969  0.0412 -0.3525  0.0881
23030W        W65947  22.965  11.489   2.836  0.0179  0.0515 -0.0600
23031W        W65948  24.340  12.197   6.056 -0.1698 -0.0306  0.1265
23032W        W65949  22.862  13.821   4.774 -0.0343 -0.1177 -0.1376
23033W        W65950  23.123  11.175   4.859  0.3573 -0.0763  0.0073
23034W        W65951  22.974  13.001   7.532  0.4237  0.1655  0.1439
23035W        W65952  24.065   9.721   3.815 -0.0171  0.0061  0.0345
23036W        W65953  25.266  16.800   3.004  0.1133 -0.1606 -0.5240
23037W        W65954  23.247  13.314   7.183  0.1416  0.0001 -0.0010
23038W        W65955  23.953  12.389   4.459 -0.0194 -0.0640 -0.2549
23039W        W65956  23.229  12.128   6.559 -0.0345 -0.1265  0.0760
23040W        W65957  22.642  10.466   5.104  0.2799  0.1855  0.2218
23041W        W65958  25.432   9.586   3.721 -0.1013 -0.1343  0.3078
23042W        W65959  23.184  15.929   6.352  0.2573  0.1765 -0.0215
23043W        W65960  22.729  12.634   4.062  0.0473  0.2440 -0.0610
23044W        W65961  21.060  14.070   4.867 -0.0374 -0.0497  0.2209
23045W        W65962  25.074   9.846   3.959 -0.1512  0.0745 -0.3325
23046W        W65963  24.978  14.057   2.089 -0.3200  0.0982 -0.0635
23047W        W65964  23.574  11.110   5.099 -0.0221  0.0286  0.3968
23048W        W65965  24.700  10.645   7.485 -0.1554  0.4211  0.3442
23049W        W65966  23.197  13.204   4.485 -0.1021  0.0597  0.2349
23050W        W65967  23.700  10.165   7.319  0.0497  0.0302  0.1315
23051W        W65968  22.289  10.564   4.613 -0.0031 -0.3278 -0.2879
23052W        W65969  22.493  13.081   4.315 -0.0751  0.0640 -0.1480
23053W        W65970  21.499  12.589   5.786  0.1219 -0.1654  0.0673
23054W        W65971  21.751  14.220   7.532 -0.0727 -0.3097  0.2756
23055W        W65972  22.981  13.767   7.224 -0.0547 -0.0937  0.0557
23056W        W65973  23.462  11.908   4.535  0.1883 -0.1009 -0.0197
23057W        W65974  21.431  11.892   3.171 -0.0477 -0.1893 -0.0207
23058W        W65975  22.270  13.982   6.196  0.1465  0.0228  0.1931
23059W        W65976  24.247  11.961   5.585 -0.0180  0.1824 -0.1076
23060W        W65977  24.088  12.858   4.989  0.1046  0.0928  0.1544
23061W        W65978  25.138  10.330   5.336  0.2515  0.0114 -0.0204
23062W        W65979  22.809  13.314   6.787 -0.0104  0.0127  0.2467
23063W        W65980  23.530  12.399   4.054  0.2687 -0.0164 -0.0676
23064W        W65981  23.864  13.176   4.126 -0.1253 -0.0274  0.1705
23065W        W65982  24.565  12.959   4.737 -0.4801  0.0450 -0.0218
23066W        W65983  22.116  10.900   5.952  0.0214 -0.0999 -0.1859
23067W        W65984  24.973  13.638   5.691 -0.2043 -0.3361 -0.1346
23068W        W65985  24.360  11.079   3.686  0.1114  0.2314  0.1449
23069W        W65986  25.196  13.687   4.924 -0.0891 -0.1542 -0.3033
23070W        W65987  25.335  12.615   5.114  0.1518 -0.1299 -0.1135
23071W        W65988  22.287  11.714   6.590 -0.0279  0.0835 -0.2132
23072W        W65989  24.007  12.387   5.780  0.0070  0.1095  0.1553
23073W        W65990  23.466  14.100   5.841 -0.2745  0.1637  0.1145
23074W        W65991  24.736  13.741   3.306 -0.0780  0.1942 -0.1493
23075W        W65992  25.235  11.921   6.002  0.3604 -0.1102  0.0887
23076W        W65993  26.075  13.622   3.652  0.2940  0.2132 -0.1996
23077W        W65994  23.752  14.143   5.075  0.3225  0.0015  0.1628
23078W        W65995  23.304  11.885   5.310 -0.0968 -0.2827  0.2908
23079W        W65996  24.901  11.592   6.302  0.1812 -0.0810  0.0619
23080W        W65997  23.069  10.578   3.876 -0.3962 -0.1142  0.0297
23081W        W65998  25.381  10.775   6.626 -0.0143 -0.2879 -0.1204
23082W        W65999  23.944  13.378   2.761  0.1411  0.0145 -0.0894
23083W        W66000  25.232  12.295   3.220  0.1801  0.0548 -0.0606
23084W        W66001  24.193  13.368   4.855  0.0320 -0.2033  0.1798
23085W        W66002  22.509  12.212   4.672 -0.1016  0.1322 -0.1261
23086W        W66003  22.018  14.491   5.663 -0.1391 -0.0807  0.2154
23087W        W66004  21.938  12.536   3.463 -0.1876 -0.3123  0.1473
23088W        W66005  23.629  12.974   3.720  0.0723  0.2174 -0.0841
23089W        W66006  22.574  14.446   6.104 -0.2975 -0.2180  0.1306
23090W        W66007  25.341  13.622   5.386 -0.1011  0.0324  0.2099
23091W        W66008  23.231  10.345   2.696 -0.1484  0.0008 -0.0286
23092W        W66009  24.646  11.778   5.866 -0.1063  0.1693  0.0621
23093W        W66010  19.871  13.910   4.934  0.3107 -0.0883  0.0385
23094W        W66011  24.520   9.653   3.742 -0.4535 -0.1423 -0.0679
23095W        W66012  21.368  13.349   6.315 -0.1664  0.0889 -0.1490
23096W        W66013  22.744  13.926   6.110  0.1362  0.0224 -0.1761
23097W        W66014  21.733  13.688   6.967 -0.2302 -0.0280  0.1076
23098W        W66015  23.618  12.791   4.327  0.2625  0.0902 -0.0874
23099W        W66016  23.985  11.882   6.150  0.1787  0.2277  0.0562
23100W        W66017  23.203  15.092   6.565 -0.2407 -0.2435  0.0438
23101W        W66018  24.731  13.426   4.902 -0.0595 -0.1536  0.2075
23102W        W66019  24.953  13.394   6.096 -0.0818 -0.0223 -0.1016
23103W        W66020  20.512  13.367   6.670 -0.1017 -0.1225 -0.2358
23104W        W66021  24.700  13.104   5.736 -0.4498 -0.0245  0.2052
23105W        W66022  25.678  15.308   3.626 -0.0929 -0.3502  0.0120
23106W        W66023  22.280  12.180   4.233 -0.0995 -0.0540  0.0388
23107W        W66024  21.431  13.030   4.193  0.3373 -0.0209  0.1196
23108W        W66025  24.207  12.914   5.894 -0.3176  0.2069  0.0422
23109W        W66026  22.796  12.634   5.709  0.2275  0.2016  0.5620
23110W        W66027  23.640  11.083   3.127 -0.0517  0.3446  0.2794
23111W        W66028  23.114  12.250   3.830 -0.1358  0.0420  0.0607
23112W        W66029  22.883  14.913   4.614 -0.0436 -0.1525 -0.2212
23113W        W66030  21.345  13.273   5.697 -0.3448  0.3782  0.2287
23114W        W66031  21.283  13.650   4.779 -0.0749 -0.0948  0.4327
23115W        W66032  23.182  13.007   4.961 -0.0405  0.0246  0.1861
23116W        W66033  23.284  12.755   5.452 -0.1252 -0.3008  0.0478
23117W        W66034  22.427  17.602   5.373 -0.0421  0.1394 -0.1614
23118W        W66035  21.584  11.597   2.222 -0.1094 -0.1763  0.1906
23119W        W66036  23.418  15.638   4.225  0.2943 -0.2587  0.0428
23120W        W66037  22.245  14.303   5.214  0.2618  0.2377  0.1913
23121W        W66038  25.247  14.828   4.682  0.0095 -0.1786 -0.1062
23122W        W66039  21.539  15.535   3.366  0.0778 -0.1151 -0.1854
23123W        W66040  26.380  13.945   5.806  0.1577 -0.0868 -0.1921
23124W        W66041  25.009   9.212   4.490  0.1237  0.1310 -0.1452
23125W        W66042  25.768  12.782   4.752  0.3181 -0.0087 -0.5622
23126W        W66043  25.632  11.501   4.025 -0.1404  0.2059 -0.0818
23127W        W66044  24.995  13.246   5.301  0.0300 -0.0107 -0.0872
23128W        W66045  23.995  12.560   6.251  0.0319 -0.0222  0.0089
23129W        W66046  24.541  11.110   3.239  0.4621 -0.3659 -0.0200
23130W        W66047  24.334  13.966   5.549 -0.0844  0.0420  0.3673
23131W        W66048  23.260  11.722   7.814  0.0764  0.0741 -0.3193
23132W        W66049  21.708  14.753   5.315  0.0592 -0.3903  0.1192
23133W        W66050  24.397  13.861   4.553 -0.2819  0.2989 -0.1310
23134W        W66051  21.921  15.019   2.600 -0.0373 -0.3016 -0.1250
23135W        W66052  23.127  13.303   5.398  0.4287  0.0905 -0.1463
23136W        W66053  25.018  11.038   6.317  0.3009 -0.1349 -0.1163
23137W        W66054  23.181  11.898   3.517 -0.2891 -0.3978  0.1955
23138W        W66055  23.966  11.720   6.650  0.1937 -0.0987  0.2362
23139W        W66056  23.164  14.037   4.337  0.2591  0.0621  0.4406
23140W        W66057  23.728  13.180   4.702  0.2041 -0.0146  0.0641
23141W        W66058  23.307  14.444   4.033  0.1117  0.0733  0.0837
23142W        W66059  21.326  10.809   3.964 -0.5586 -0.1995 -0.2108
23143W        W66060  24.821  11.759   4.373  0.0802  0.1161  0.3196
23144W        W66061  24.001  11.544   4.424 -0.4544 -0.1260 -0.0949
23145W        W66062  24.957  10.790   6.908 -0.0961  0.1904  0.0115
23146W        W66063  21.701  11.489   5.434 -0.1706  0.0467  0.3553
23147W        W66064  23.545  13.697   4.402  0.0522  0.2557 -0.2569
23148W        W66065  25.610  12.631   6.561  0.0612 -0.0741 -0.1134
23149W        W66066  24.011  12.717   3.954 -0.1874  0.3114 -0.1955
23150W        W66067  22.405  12.559   3.084 -0.1119  0.1402  0.4245
23151W        W66068  26.005  11.783   4.666  0.1978 -0.3332 -0.0692
23152W        W66069  25.244  13.455   3.999 -0.1633  0.2965 -0.2934
23153W        W66070  24.285  15.327   6.740 -0.3194  0.0617  0.2706
23154W        W66071  23.435  10.841   4.625 -0.2221 -0.0010 -0.1688
23155W        W66072  22.869  11.920   3.121  0.1514 -0.0279 -0.0928
23156W        W66073  21.949  12.410   3.941  0.0189  0.4400 -0.1728
23157W        W66074  23.915  12.618   6.820  0.2140  0.3823 -0.0306
23158W        W66075  25.264  13.819   6.672  0.0215  0.0743 -0.1539
23159W        W66076  22.043  11.575   5.086  0.0411  0.2166  0.0820
23160W        W66077  24.908  13.715   2.495 -0.2099 -0.1871 -0.0166
23161W        W66078  26.394  12.333   6.006 -0.0269 -0.1012 -0.3717
23162W        W66079  21.762  12.924   1.390  0.2156 -0.0941  0.2662
23163W        W66080  23.957  13.871   4.706 -0.0553 -0.1706  0.1858
23164W        W66081  23.245  16.337   5.047  0.2738 -0.1324  0.0067
23165W        W66082  22.386  11.829   6.104  0.1007  0.0424 -0.0170
23166W        W66083  21.070  15.751   3.331  0.2642  0.1467 -0.0669
23167W        W66084  25.175  14.447   6.531  0.0982  0.3153 -0.0062
23168W        W66085  22.755  12.153   5.144  0.1013 -0.2721 -0.0594
23169W        W66086  23.589  12.735   4.888 -0.1815 -0.3878  0.2112
23170W        W66087  22.750  15.020   3.605  0.1539 -0.1072 -0.1854
23171W        W66088  26.016  11.589   5.500 -0.3629  0.1166  0.2457
23172W        W66089  24.750  11.342   4.631  0.2486 -0.0134  0.0041
23173W        W66090  22.896  12.076   4.227  0.0396 -0.0271  0.3063
23174W        W66091  24.251  12.445   7.606  0.2239  0.1012 -0.0385
23175W        W66092  24.022  13.588   7.064  0.3247 -0.2812 -0.1768
23176W        W66093  24.116  13.185   6.765 -0.0275 -0.0503  0.0957
23177W        W66094  22.228  12.941   5.400  0.2051  0.0366 -0.0581
23178W        W66095  24.307  13.488   7.765  0.1527  0.1183  0.1760
23179W        W66096  21.927  13.822   4.446  0.3799  0.0041  0.1580
23180W        W66097  21.755  15.182   3.612  0.1023  0.1159 -0.2213
23181W        W66098  24.850  13.969   4.723  0.2584  0.0210 -0.0407
23182W        W66099  24.498  12.737   4.239  0.1708 -0.0039 -0.0902
23183W        W66100  25.924  14.212   5.729  0.0943  0.1312 -0.2917
23184W        W66101  22.574  10.127   4.501 -0.1728  0.1844  0.2434
23185W        W66102  24.301  10.017   5.375 -0.2121  0.1799 -0.3426
23186W        W66103  25.736  10.447   4.248 -0.0449  0.3850 -0.2630
23187W        W66104  23.885  13.340   7.483  0.2580  0.0935  0.0086
23188W        W66105  20.816  11.053   3.680 -0.0669 -0.3693  0.1408
23189W        W66106  21.319  13.690   3.493  0.0669  0.2166 -0.0989
23190W        W66107  19.426  14.027   5.684  0.0169 -0.4421 -0.0874
23191W        W66108  23.882  10.824   5.508 -0.0135  0.2212  0.2361
23192W        W66109  23.525  11.157   6.301  0.3445  0.0489 -0.0258
23193W        W66110  23.098  13.065   5.851  0.0089  0.1051  0.0045
23194W        W66111  24.561  11.173   5.096 -0.2610  0.0141 -0.3396
23195W        W66112  26.027  12.993   4.358 -0.1413  0.1835 -0.3244
23196W        W66113  23.485  11.049   5.721 -0.1878  0.0492  0.3823
23197W        W66114  20.902  11.107   2.764  0.2269  0.3307  0.1318
23198W        W66115  22.748  14.094   5.194 -0.2041  0.1048  0.1223
23199W        W66116  22.962  12.907   2.587 -0.3247 -0.0186 -0.0215
23200W        W66117  23.555  10.512   4.948  0.2084  0.0787 -0.0604
23201W        W66118  24.903  13.774   7.608  0.0297  0.2421  0.3635
23202W        W66119  21.150  13.007   2.500 -0.1299 -0.2951 -0.2309
23203W        W66120  23.989  11.933   7.084 -0.3812 -0.1099 -0.3295
23204W        W66121  23.277  12.376   7.053  0.0467 -0.2223  0.0728
23205W        W66122  22.635  11.466   2.498 -0.0670 -0.2357 -0.0370
23206W        W66123  23.393  10.530   5.933 -0.2454 -0.0043 -0.3111
23207W        W66124  23.010  15.498   5.449  0.0477 -0.0366  0.0602
23208W        W66125  21.885  13.276   6.567  0.1424  0.1541  0.0405
23209W        W66126  22.918  14.345   7.023  0.2279 -0.2690 -0.1069
23210W        W66127  21.621  11.723   7.185  0.2425  0.3217 -0.3361
23211W        W66128  23.845  11.115   4.597  0.1767  0.1827 -0.2737
23212W        W66129  23.746  13.770   5.545  0.1797 -0.2802  0.1227
23213W        W66130  24.844  12.557   4.624 -0.0842  0.0524  0.2206
23214W        W66131  24.754  11.418   5.514  0.1228  0.0076 -0.2597
23215W        W66132  24.768   9.755   2.824 -0.3995  0.2807  0.1088
23216W        W66133  22.148   9.490   7.356  0.0341  0.2188  0.1188
23217W        W66134  22.272  12.646   4.253 -0.0402  0.0082  0.1113
23218W        W66135  26.059  12.680   6.860 -0.3651  0.1212  0.1461
23219W        W66136  24.700  10.663   3.766  0.2592  0.1522 -0.1462
23220W        W66137  25.613  10.068   4.537  0.0593  0.4055 -0.3412
23221W        W66138  23.018  12.939   3.083 -0.1480  0.0512 -0.1153
23222W        W66139  22.913  11.648   5.586  0.0213 -0.0851 -0.0659
23223W        W66140  23.830  10.051   4.171  0.2291 -0.1177 -0.0692
23224W        W66141  23.522  11.716   6.353  0.0331  0.1111 -0.0331
23225W        W66142  23.863  14.282   5.551 -0.0152 -0.0896 -0.1233
23226W        W66143  24.267  14.206   6.369  0.2637 -0.2764  0.1392
23227W        W66144  23.487  10.802   4.132  0.0388 -0.0361  0.0241
23228W        W66145  23.224  14.216   2.970  0.1379  0.0151 -0.2137
23229W        W66146  22.975  15.780   4.970 -0.0906  0.1900 -0.1944
23230W        W66147  25.044  14.419   6.089  0.0970  0.1184 -0.2262
23231W        W66148  22.208  14.994   5.403  0.4400 -0.3931 -0.3312
23232W        W66149  25.861  13.035   6.395 -0.0255 -0.1058 -0.1561
23233W        W66150  20.860  10.583   6.332 -0.1249  0.1193  0.3148
23234W        W66151  23.973  11.310   5.427 -0.5031 -0.0982  0.1083
23235W        W66152  22.530  10.095   6.711 -0.2592  0.0275  0.2808
23236W        W66153  23.181  12.487   4.998  0.1391 -0.1617  0.1407
23237W        W66154  22.166  11.823   5.530 -0.0767 -0.1675 -0.0645
23238W        W66155  25.049  11.966   3.992 -0.3063  0.1998  0.0961
23239W        W66156  24.439  12.818   7.203  0.0307  0.0031 -0.2655
23240W        W66157  23.533  12.357   5.512  0.1208 -0.1165 -0.2617
23241W        W66158  22.565  10.573   8.694 -0.0866  0.2366 -0.0021
23242W        W66159  24.183  13.258   8.641 -0.0192 -0.1463  0.0913
23243W        W66160  23.481  10.587   6.527  0.1503 -0.1015 -0.0039
23244W        W66161  26.507  12.416   7.515 -0.1660 -0.3208 -0.3292
23245W        W66162  20.160  12.969   5.430 -0.0843  0.4325  0.4536
23246W        W66163  22.024  12.677   9.069  0.1140 -0.1245 -0.2603
23247W        W66164  22.767   9.728  10.003  0.1723 -0.0693 -0.3560
23248W        W66165  22.598  14.042   9.121  0.1257  0.0525 -0.0337
23249W        W66166  23.359  12.553   8.829  0.0301  0.1395  0.0157
23250W        W66167  22.810  13.243   8.579  0.1184  0.1176  0.0345
23251W        W66168  23.461  10.552   7.070  0.1783 -0.0731  0.2028
23252W        W66169  22.097  10.483   7.325  0.2051  0.0414 -0.2910
23253W        W66170  21.388  13.549   9.584  0.0940 -0.1621 -0.1168
23254W        W66171  22.424  11.998   8.927  0.0296 -0.1966  0.1709
23255W        W66172  21.116  12.451   7.378  0.0151  0.0292  0.4230
23256W        W66173  23.401  13.276   7.694 -0.1391  0.0300 -0.0135
23257W        W66174  22.923  15.011   9.122  0.1410  0.2224  0.3454
23258W        W66175  22.861  12.775   8.788  0.1801  0.0480 -0.1280
23259W        W66176  24.454  13.825   7.410  0.2944 -0.3255  0.0532
23260W        W66177  23.085  11.991   7.371  0.0190  0.1110  0.1261
23261W        W66178  21.560  13.774   7.437 -0.3784  0.0807  0.0997
23262W        W66179  21.390  11.325   6.427  0.3224 -0.2140  0.2249
23263W        W66180  25.851  11.366   8.514  0.0799 -0.1054 -0.1225
23264W        W66181  25.154  10.713   9.944 -0.2244  0.2598  0.1344
23265W        W66182  22.140  15.654   7.597  0.0356 -0.1441 -0.0961
23266W        W66183  23.907  14.108   7.279  0.2266 -0.0161  0.0968
23267W        W66184  22.017  13.756   7.597  0.1372  0.1599  0.0672
23268W        W66185  19.387  14.357   8.575  0.0692 -0.1233  0.0069
23269W        W66186  21.125  15.069   7.215  0.3676  0.0141  0.1702
23270W        W66187  25.719  12.283   5.305 -0.2679 -0.0440 -0.0896
23271W        W66188  22.660  12.674   7.778 -0.1960  0.2943 -0.0008
23272W        W66189  25.271  13.561   8.131 -0.2418 -0.0759  0.0581
23273W        W66190  24.150  12.655   8.118 -0.2393 -0.2487  0.3607
23274W        W66191  22.231  13.422   8.856  0.0950 -0.2487 -0.1379
23275W        W66192  26.160  14.372   8.752 -0.0845  0.2120  0.2745
23276W        W66193  22.716  14.169   8.676  0.2190 -0.0497  0.0184
23277W        W66194  22.593  15.470   5.095  0.0223  0.0144 -0.4298
23278W        W66195  25.319  12.263   6.747 -0.1493 -0.3590  0.0209
23279W        W66196  25.063  12.354   8.005  0.1366 -0.1701 -0.0928
23280W        W66197  24.896  13.460   6.573  0.2011  0.2457 -0.1359
23281W        W66198  24.477   9.464   7.521 -0.1310  0.1562 -0.0330
23282W        W66199  24.747  14.225   7.480 -0.3605  0.2656 -0.1639
23283W        W66200  22.743  11.697   9.618 -0.2563 -0.2505 -0.1873
23284W        W66201  25.706  13.422   7.351  0.2323  0.0387  0.0823
23285W        W66202  23.343  12.000   8.388 -0.3412  0.4085  0.0093
23286W        W66203  22.451  10.845   9.965  0.1430  0.1031 -0.2249
23287W        W66204  22.527  12.732   7.288  0.1148  0.2177 -0.0375
23288W        W66205  24.889  15.217   5.463 -0.0495  0.3153  0.0027
23289W        W66206  25.295  11.298   8.579 -0.1819 -0.0904 -0.1721
23290W        W66207  24.655  14.467   6.903  0.2715 -0.0788  0.1247
23291W        W66208  24.778  12.529   7.626  0.4165 -0.0523  0.0310
23292W        W66209  22.584  12.486   6.153 -0.1329  0.0315  0.3043
23293W        W66210  23.716  11.944   7.951 -0.0767 -0.0762  0.2607
23294W        W66211  28.400  28.867   8.984  0.2827  0.1306 -0.0440
23295W        W66212  28.422  13.330   8.492  0.0598 -0.2859 -0.1754
23296W        W66213  25.916  13.935   6.110 -0.0195 -0.1062 -0.3062
23297W        W66214  22.770  11.053   7.533  0.1372  0.1605 -0.2937
23298W        W66215  21.845  10.863  10.019 -0.0668 -0.0100 -0.0810
23299W        W66216  23.520  13.666   7.413  0.1820  0.0469 -0.1609
23300W        W66217  23.014  11.711   8.650  0.4814 -0.1712 -0.1851
23301W        W66218  23.246  14.605   9.278 -0.2035 -0.1633  0.0926
23302W        W66219  26.280  11.904   7.349 -0.1165  0.0569 -0.0147
23303W        W66220  22.217  14.279   9.477 -0.0113  0.1819  0.2620
23304W        W66221  21.296  14.625   7.520 -0.1477  0.0431 -0.0075
23305W        W66222  21.117  11.226   9.875 -0.2845  0.3890  0.0749
23306W        W66223  19.788  12.379   8.439  0.2689  0.0546 -0.3470
23307W        W66224  23.574  10.394   9.821  0.2324  0.1633  0.2701
23308W        W66225  21.640  12.978   7.832 -0.0362  0.0188 -0.2951
23309W        W66226  25.526   9.599   8.282  0.3264  0.4429  0.1423
23310W        W66227  24.268  11.515   8.460  0.0507  0.1347  0.1534
23311W        W66228  21.841  12.647   8.436  0.0679 -0.1407 -0.1327
23312W        W66229  25.240  12.560   8.807 -0.1611 -0.0866 -0.0501
23313W        W66230  23.844  11.332   8.196  0.0448 -0.1597  0.1392
23314W        W66231  23.861  14.351   6.713 -0.0434  0.1225  0.1897
23315W        W66232  20.169  12.699   9.690 -0.3108  0.1900  0.1131
23316W        W66233  23.780  12.321   7.338  0.1673  0.1660  0.0744
23317W        W66234  23.852  10.394   7.749  0.1869 -0.0002 -0.2030
23318W        W66235  23.531  10.157   6.819 -0.0792 -0.1973  0.2861
23319W        W66236  24.772  15.656   9.376 -0.0969  0.3584  0.0493
23320W        W66237  24.707  12.764   8.063  0.2217  0.1165  0.0888
23321W        W66238  20.851  11.061   7.748  0.1823  0.0752 -0.0073
23322W        W66239  24.131  13.321   5.573  0.1756 -0.2803  0.2311
23323W        W66240  24.172  11.501   9.139 -0.0187 -0.0796  0.0455
23324W        W66241  21.991  15.149   7.464 -0.2105 -0.1769 -0.1458
23325W        W66242  21.340  14.952   9.669 -0.0737  0.0217 -0.0886
23326W        W66243  23.383  12.528   8.337 -0.0851  0.2322  0.0786
23327W        W66244  21.372  14.943   8.003 -0.0248  0.1767  0.2171
23328W        W66245  24.365  13.279   7.244 -0.1754  0.0811  0.0823
23329W        W66246  22.928  11.807   8.149 -0.0655  0.2740  0.2289
23330W        W66247  24.570  14.199   9.399 -0.0375 -0.1794  0.1267
23331W        W66248  21.635  12.615   7.511 -0.1152 -0.1234  0.1642
23332W        W66249  24.184  11.944   7.578  0.2272 -0.3288  0.1874
23333W        W66250  22.097  13.133   9.343  0.0274  0.2669  0.3574
23334W        W66251  22.396  12.356   8.106  0.3832  0.3941  0.0970
23335W        W66252  24.177  13.903   8.717 -0.1167 -0.1029  0.1304
23336W        W66253  21.636  14.260   6.994  0.0440  0.0707  0.2368
23337W        W66254  21.261  13.932   9.261  0.2766  0.0564 -0.0508
23338W        W66255  23.693  13.859   6.851  0.0089 -0.2397  0.0657
23339W        W66256  25.662  11.173   8.916 -0.0301  0.3172  0.0183
23340W        W66257  22.896  11.727   6.101 -0.2368  0.0230 -0.2410
23341W        W66258  23.690  10.839   8.485  0.1644  0.0270 -0.3213
23342W        W66259  24.338  10.580   7.764 -0.1654 -0.2848 -0.0575
23343W        W66260  22.732  12.151   6.488  0.4551  0.0487  0.0765
23344W        W66261  23.362  10.704   7.577 -0.0593  0.0841 -0.0232
23345W        W66262  23.789  10.950   7.451 -0.1848 -0.2811  0.2556
23346W        W66263  24.340  14.031   7.856 -0.2625  0.0133 -0.2712
23347W        W66264  20.763  14.183  10.034 -0.0018  0.2762  0.2207
23348W        W66265  23.720  11.415   7.670  0.1447  0.3740 -0.2732
23349W        W66266  25.595  12.614   8.202  0.2139  0.3222 -0.0076
23350W        W66267  20.084  11.833   7.041 -0.0533  0.1144 -0.3880
23351W        W66268  24.445  12.825   8.509  0.2045  0.0016  0.0358
23352W        W66269  23.073  10.510   9.409 -0.1278 -0.1238 -0.1291
23353W        W66270  23.165  13.742   8.002  0.0349 -0.0950 -0.0034
23354W        W66271  23.225  13.468   8.458  0.0939  0.0601 -0.2373
23355W        W66272  20.438  13.470   6.132  0.2285 -0.0130  0.3562
23356W        W66273  22.038  11.973   7.312 -0.2444  0.1916  0.0906
23357W        W66274  23.386  10.942   8.995  0.2113  0.0930 -0.0499
23358W        W66275  25.498  11.198   7.655  0.0242  0.1888  0.5820
23359W        W66276  24.245  11.429   7.886  0.1077  0.0796  0.2122
23360W        W66277  23.792  12.420   7.857 -0.0493 -0.0387  0.2228
23361W        W66278  21.980  13.521   9.719  0.0491  0.0425 -0.0302
23362W        W66279  20.145  15.603  10.958 -0.0334 -0.0200 -0.2522
23363W        W66280  24.098  11.497   7.361 -0.0278  0.0928  0.0280
23364W        W66281  23.987  10.560   8.219 -0.0153 -0.0092  0.1125
23365W        W66282  22.377  15.471   6.090  0.4027 -0.0130  0.1275
23366W        W66283  23.936  13.532   9.007 -0.2613 -0.3029 -0.0576
23367W        W66284  23.805  12.230   8.831 -0.1127  0.0278  0.0009
23368W        W66285  24.370  13.185   9.141  0.0918  0.0779 -0.1925
23369W        W66286  20.926  13.439   7.569 -0.2167  0.2130  0.3977
23370W        W66287  21.903  13.216   8.311 -0.1655 -0.1484 -0.0263
23371W        W66288  22.033  13.352   7.150  0.1579 -0.0685 -0.2140
23372W        W66289  24.209   9.704   9.745 -0.0790 -0.0407 -0.1203
23373W        W66290  21.954  14.314   8.006  0.3062  0.1850 -0.0546
23374W        W66291  23.022  11.647  10.191  0.0857 -0.2112 -0.0728
23375W        W66292  21.843  12.890   6.967  0.2620 -0.0835  0.2862
23376W        W66293  24.960  11.384   9.510 -0.4266 -0.0447 -0.2424
23377W        W66294  25.699  11.339   5.900 -0.1985  0.3637 -0.0665
23378W        W66295  20.512  13.074   9.909  0.3883 -0.2273 -0.2277
23379W        W66296  24.301   9.509   8.062 -0.0732 -0.2057  0.1009
23380W        W66297  21.400  12.773   7.069 -0.1587  0.1760 -0.3208
23381W        W66298  25.084   9.811   7.400  0.0091 -0.0167  0.0944
23382W        W66299  19.813  11.758   6.525  0.1086  0.1191 -0.3346
23383W        W66300  23.654  11.360   8.705  0.1493 -0.2252 -0.1415
23384W        W66301  23.474  11.030   8.010  0.1875 -0.1288  0.1791
23385W        W66302  22.388  14.930   6.956  0.0159  0.2285  0.2022
23386W        W66303  22.630  15.852   8.437  0.0806 -0.1273  0.0998
23387W        W66304  24.476  13.731   6.340 -0.2456  0.1652 -0.1958
23388W        W66305  22.854  15.227   8.198 -0.0378 -0.0673  0.0196
23389W        W66306  24.698  11.584   8.098 -0.1445 -0.0066 -0.2024
23390W        W66307  24.697  12.095   7.213 -0.0263 -0.2170 -0.1631
23391W        W66308  24.462  11.707   6.417  0.1157  0.0984 -0.2397
23392W        W66309  24.744  10.960   8.311  0.2104  0.1119  0.1327
23393W        W66310  23.573  11.337   9.327  0.1283 -0.0726 -0.1851
23394W        W66311  24.431  11.105   8.786 -0.1897 -0.0157 -0.4119
23395W        W66312  22.584  10.602   7.697  0.0488  0.0721  0.0330
23396W        W66313  25.509  13.629   6.310 -0.0881 -0.0509  0.1372
23397W        W66314  22.239  11.297   6.232  0.0654 -0.0345 -0.0373
23398W        W66315  21.535  12.783   9.185  0.1939 -0.3691 -0.1280
23399W        W66316  23.415  12.827   7.346 -0.0820  0.1252  0.2014
23400W        W66317  22.524  11.244   9.338  0.2277 -0.3318  0.0138
23401W        W66318  20.354  16.041  10.787  0.0469 -0.0111 -0.1388
23402W        W66319  22.079  14.454   6.181 -0.2810 -0.0638 -0.0297
23403W        W66320  20.074  13.254   9.642  0.1194 -0.0407  0.0206
23404W        W66321  24.623   9.896   8.407  0.1902  0.0613  0.0388
23405W        W66322  24.820  13.909   5.269 -0.1703  0.0963  0.0977
23406W        W66323  24.363  10.771   9.146  0.0945  0.1502 -0.1628
23407W        W66324  24.499  13.570   5.855  0.1421 -0.0624 -0.2187
23408W        W66325  23.462  10.026   7.841 -0.1960 -0.0166  0.1532
23409W        W66326  24.186  13.649   8.251 -0.0276  0.3028 -0.0961
23410W        W66327  26.566  11.329   8.143  0.0137  0.0795  0.2859
23411W        W66328  23.232  10.989   7.207  0.0075  0.2008 -0.1558
23412W        W66329  22.338  13.550   9.292 -0.0674 -0.0942 -0.1054
23413W        W66330  23.160  10.807   9.848 -0.2189  0.0529  0.0782
23414W        W66331  25.461  14.145   6.290 -0.0580 -0.0313  0.3667
23415W        W66332  24.961  10.371   7.100 -0.0586 -0.1307 -0.0048
23416W        W66333  20.758  13.301   8.947  0.2331  0.2520  0.1411
23417W        W66334  24.195  11.021   8.397 -0.0122 -0.1656 -0.2356
23418W        W66335  21.574  16.477   5.429  0.0049  0.0812 -0.1796
23419W        W66336  22.574  14.575   9.853  0.1869 -0.0005  0.2970
23420W        W66337  25.694  11.663   9.031  0.0447 -0.2392  0.0114
23421W        W66338  24.220  10.042   8.082 -0.1000 -0.1833 -0.2104
23422W        W66339  26.268  14.102   9.163 -0.1408 -0.1824 -0.0529
23423W        W66340  25.321  12.925   7.364  0.0951 -0.4449 -0.0616
23424W        W66341  27.050  11.305   8.443  0.1123 -0.1563 -0.2147
23425W        W66342  24.516  11.660   6.947 -0.4184  0.0920  0.3672
23426W        W66343  25.683  11.917   5.683  0.2012  0.1610  0.2099
23427W        W66344  20.395  12.347   7.590  0.0885 -0.3728 -0.0412
23428W        W66345  23.383   8.836   7.577 -0.3165  0.0380  0.1766
23429W        W66346  21.826  14.632   6.678  0.1081 -0.1327 -0.0359
23430W        W66347  25.743  12.716   9.127 -0.0823  0.0389 -0.2440
23431W        W66348  26.195  11.077   7.809  0.0178  0.0741 -0.1510
23432W        W66349  20.674  11.827   7.188 -0.0404 -0.0839 -0.1198
23433W        W66350  22.715  12.288   7.077 -0.1593  0.0529  0.1126
23434W        W66351  23.421  11.442   5.448  0.0360 -0.1290  0.1084
23435W        W66352  23.082  14.124   9.179 -0.0263  0.2811 -0.1458
23436W        W66353  20.748  12.571   7.887 -0.5864 -0.1397  0.0243
23437W        W66354  21.016  13.384   6.730 -0.0832  0.0126  0.0950
23438W        W66355  26.038   9.481   8.226  0.2561  0.2017  0.1290
23439W        W66356  20.347  15.367   6.552  0.2191  0.1957 -0.1250
23440W        W66357  20.780  15.485   6.350 -0.2885  0.1172 -0.4883
23441W        W66358  24.816  13.274   8.413  0.0645  0.1373  0.0257
23442W        W66359  25.260  11.801   8.859 -0.1549 -0.3208 -0.1674
23443W        W66360  23.780  11.800   8.575  0.1424  0.1831  0.1675
23444W        W66361  23.009  12.260   9.413 -0.0276 -0.0996 -0.0739
23445W        W66362  25.417  13.975   8.625 -0.0706  0.0847 -0.1506
23446W        W66363  22.717  15.550   9.244  0.0325  0.3485  0.2560
23447W        W66364  22.945  14.315   9.651  0.4314 -0.0393  0.0082
23448W        W66365  23.197   9.322   6.738 -0.0373 -0.0233 -0.1179
23449W        W66366  24.004  15.555   5.276  0.1669 -0.0611 -0.1168
23450W        W66367  21.129  16.133   7.316  0.1662 -0.0079 -0.0194
23451W        W66368  20.253  13.853   6.926 -0.1095 -0.1508 -0.1505
23452W        W66369  24.188  11.522   5.810 -0.0401 -0.1412  0.0151
23453W        W66370  24.301  12.334   8.530  0.1909  0.0441 -0.0180
23454W        W66371  24.653  16.103   7.356  0.1214  0.1730  0.2204
23455W        W66372  22.126  12.902   7.533  0.1447  0.1344 -0.0382
23456W        W66373  22.491  15.216  10.092  0.1493  0.1960 -0.2028
23457W        W66374  20.753  13.594   7.101  0.3740 -0.2383  0.2085
23458W        W66375  23.448  14.126   8.210 -0.0084 -0.1761  0.3581
23459W        W66376  24.353  13.174   8.184 -0.0987  0.2173 -0.0798
23460W        W66377  24.182  11.317   6.788 -0.0315 -0.1070 -0.2421
23461W        W66378  23.242  12.964   8.431  0.1188 -0.1020 -0.0159
23462W        W66379  24.254  12.084   6.611  0.3778 -0.0022 -0.2630
23463W        W66380  25.747  13.425   8.966  0.0379  0.0055 -0.1305
23464W        W66381  22.406  11.196   6.734 -0.1537 -0.1647  0.0352
23465W        W66382  22.767  13.638   5.659 -0.1868  0.1360  0.3953
23466W        W66383  22.807  11.597   7.670  0.2947  0.4337  0.0262
23467W        W66384  23.106  11.114   9.359  0.2963  0.0327 -0.1288
23468W        W66385  24.051  10.608   8.740 -0.2108  0.1094 -0.0304
23469W        W66386  23.901  13.270   7.993 -0.0716  0.0861  0.5946
23470W        W66387  25.216   9.391   8.698 -0.3342  0.0872 -0.0445
23471W        W66388  21.720  16.147   8.958  0.3918 -0.1661  0.1669
23472W        W66389  21.730  14.408   8.843 -0.0244 -0.2009 -0.0429
23473W        W66390  22.775  14.172   6.550 -0.2807 -0.0680 -0.0953
23474W        W66391  22.547  11.495   8.274  0.0096  0.0033  0.3790
23475W        W66392  21.934   7.670   9.612 -0.3779 -0.1533 -0.3085
23476W        W66393  22.597  10.392   9.178 -0.0011 -0.1508 -0.0517
23477W        W66394  22.903  13.298   8.111 -0.0959  0.0951 -0.0077
23478W        W66395  24.872  13.185   7.384  0.2170  0.0134  0.0130
23479W        W66396  24.425  15.417   8.917  0.1684  0.0030  0.1428
23480W        W66397  22.245  12.805   8.137  0.1516  0.1268 -0.1572
23481W        W66398  25.896  12.558   7.832  0.0342 -0.1378  0.0141
23482W        W66399  22.999  12.510   7.413  0.3522  0.1129  0.3852
23483W        W66400  19.804  12.140   8.977 -0.0275 -0.3648 -0.0435
23484W        W66401  24.302  11.037   7.454 -0.2463 -0.0631 -0.0973
23485W        W66402  20.060  13.210   7.626 -0.1637 -0.3415  0.4720
23486W        W66403  20.932  12.979   9.285  0.2977 -0.1453 -0.1240
23487W        W66404  22.699  10.855   8.312 -0.0626  0.0153  0.1246
23488W        W66405  26.692  13.417   6.929  0.0561 -0.1432  0.0318
23489W        W66406  23.642  13.378   6.709 -0.2492  0.0051  0.0045
23490W        W66407  26.026  12.594   6.276 -0.2835 -0.0086 -0.0090
23491W        W66408  24.112  12.150   9.402  0.3020 -0.2229  0.3093
23492W        W66409  23.463   8.616   8.600 -0.0004  0.1175  0.0876
23493W        W66410  24.662  13.692   8.137 -0.1842 -0.2402  0.2513
23494W        W66411  25.238  11.360   9.076 -0.1705  0.0643  0.0109
23495W        W66412  25.097  10.082   9.360  0.3979 -0.0312 -0.2086
23496W        W66413  22.558  13.322   7.269  0.1373  0.2309 -0.0289
23497W        W66414  23.421  14.618   6.359  0.0998 -0.2511  0.4621
23498W        W66415  22.828  11.773   9.116  0.0885 -0.0064 -0.1006
23499W        W66416  22.767  15.100   5.429  0.1756  0.0077  0.2016
23500W        W66417  24.146  15.377   8.513  0.2665  0.0263 -0.0642
23501W        W66418  22.076  12.448   7.136  0.0910 -0.2267  0.0206
23502W        W66419  22.639  13.135   9.123  0.0635 -0.0710  0.1581
23503W        W66420  21.613  14.086   6.393  0.1675 -0.0028 -0.0311
23504W        W66421  23.372  14.106   7.134 -0.0341 -0.1861  0.0897
23505W        W66422  24.260  10.133   8.581 -0.0108  0.1295 -0.1194
23506W        W66423  24.404  15.044   8.251 -0.3768 -0.2174  0.3812
23507W        W66424  23.342  11.461   8.334  0.0979 -0.0756  0.0793
23508W        W66425  23.976  10.935   7.887  0.2605  0.0114 -0.2396
23509W        W66426  24.339   9.605   8.737 -0.1017  0.0245 -0.0504
23510W        W66427  23.934  15.705   8.871 -0.1294 -0.2597 -0.0780
23511W        W66428  22.072  14.248   6.656  0.0645 -0.0043  0.1488
23512W        W66429  23.732  13.100   7.096  0.2874  0.2865 -0.4233
23513W        W66430  22.527  12.442   8.653 -0.1698 -0.0941  0.1848
23514W        W66431  21.284  11.420   7.408  0.0009  0.2801  0.1931
23515W        W66432  21.775  11.380   7.592  0.0290  0.0433  0.2447
23516W        W66433  25.201  12.839   6.851  0.3219 -0.3429  0.0206
23517W        W66434  22.290  12.732   9.494 -0.2454 -0.0780 -0.1759
23518W        W66435  18.993  13.803   5.973  0.1489 -0.0083  0.1667
23519W        W66436  25.321  13.125   6.472  0.1026 -0.1962 -0.0875
23520W        W66437  24.415  13.744   9.159 -0.4625  0.1145  0.0543
23521W        W66438  21.468  11.614   9.975 -0.0090  0.2453  0.1565
23522W        W66439  21.508  13.244   6.879  0.0932  0.0327 -0.0450
23523W        W66440  22.669  10.780   6.586 -0.1075  0.1712 -0.0874
23524W        W66441  21.300  13.300   9.091  0.0743 -0.0605 -0.1670
23525W        W66442  21.361  14.366   9.708  0.0346 -0.2949  0.2348
23526W        W66443  24.948  15.678   5.421 -0.1092 -0.0148  0.1151
23527W        W66444  23.777  12.965   8.992 -0.2162 -0.1484 -0.3152
23528W        W66445  24.227  10.260   9.072 -0.0764 -0.2064 -0.0564
23529W        W66446  25.545  12.961   8.676  0.0057 -0.3312  0.2255
23530W        W66447  24.699  11.449   9.077 -0.4290 -0.0467 -0.0671
23531W        W66448  22.363  13.834   8.487  0.1269 -0.1532  0.0759
23532W        W66449  23.059  14.460   8.827 -0.0306 -0.2102 -0.1981
23533W        W66450  22.880  10.046   9.381 -0.5311 -0.0152 -0.2183
23534W        W66451  23.303  12.229   7.938 -0.4800 -0.0473 -0.0058
23535W        W66452  26.288  12.827   7.658  0.1187  0.0094 -0.3151
23536W        W66453  23.218  13.191   9.724 -0.2134  0.0493  0.3968
23537W        W66454  25.130  11.678   7.778 -0.3205  0.0663  0.3135
23538W        W66455  22.504  13.182   7.763 -0.3000 -0.1981  0.0698
23539W        W66456  23.809  12.301   8.314  0.0754  0.0722  0.1263
23540W        W66457  24.675  11.914   7.721 -0.2035  0.1691  0.1984
23541W        W66458  21.822  14.111   8.439  0.3405 -0.2352 -0.0818
23542W        W66459  25.166  15.302   8.991  0.0960 -0.0725 -0.0525
23543W        W66460  25.948  13.231   9.340  0.1446  0.2267 -0.0660
23544W        W66461  21.014  13.941   7.467 -0.1171  0.4743  0.2245
23545W        W66462  22.260  12.854   8.690 -0.0983 -0.0256  0.1592
23546W        W66463  21.922  16.564   7.338  0.0753  0.1513 -0.0549
23547W        W66464  25.659  11.808   8.420  0.1974 -0.0435  0.1094
23548W        W66465  22.380  11.404   9.822 -0.1501 -0.0219 -0.1337
23549W        W66466  24.196  11.851   8.124  0.0952  0.0268 -0.0274
23550W        W66467  21.878  16.257   9.676  0.1020 -0.0601 -0.0079
23551W        W66468  23.611  14.624   8.188 -0.2441 -0.4746  0.0577
23552W        W66469  22.750  16.653   3.432  0.1973 -0.2021  0.0980
23553W        W66470  19.904  15.420  30.556 -0.1104  0.3144 -0.1404
23554W        W66471  26.578  14.498   0.558  0.1679  0.1293 -0.1612
23555W        W66472  27.004  17.251   0.188 -0.2319  0.2710 -0.0595
23556W        W66473  23.584  14.289   1.642  0.0464 -0.1236 -0.0827
23557W        W66474  20.606  17.252  31.197  0.2706 -0.1605 -0.1124
23558W        W66475  21.339  15.178   1.888  0.0063  0.2101  0.0938
23559W        W66476  23.154  17.193   0.878 -0.1465 -0.1716 -0.1002
23560W        W66477  23.094  18.666   1.627  0.0236  0.0790 -0.2236
23561W        W66478  22.705  16.823   1.036 -0.2937 -0.0140 -0.1229
23562W        W66479  23.887  17.245   3.207 -0.1107  0.1999 -0.0375
23563W        W66480  20.874  17.620   3.593  0.1073  0.0808 -0.0049
23564W        W66481  21.163  16.398   0.262  0.2274  0.2580 -0.4283
23565W        W66482  21.697  13.727   1.810  0.0978  0.0169  0.0114
23566W        W66483  23.292  15.200  31.752 -0.0431 -0.0334  0.2072
23567W        W66484  21.352  16.753  31.520 -0.1940  0.2421  0.2432
23568W        W66485  21.100  19.002   0.364  0.0964  0.0544  0.1685
23569W        W66486  22.096  16.319   0.465 -0.0516 -0.0454  0.1017
23570W        W66487  23.435  17.428   0.542  0.1441  0.2878  0.2038
23571W        W66488  23.472  16.248   2.705  0.1276  0.0923  0.0591
23572W        W66489  22.802  14.872   2.531 -0.0563  0.1401 -0.2223
23573W        W66490  21.202  17.046   1.031 -0.2333 -0.1710  0.1365
23574W        W66491  23.412  15.043  31.211 -0.2071  0.0403 -0.0154
23575W        W66492  21.207  16.167   2.562  0.0117  0.1186  0.0904
23576W        W66493  22.406  16.028   1.289 -0.1734 -0.2682  0.0380
23577W        W66494  22.307  15.665   3.202  0.2668  0.2102  0.0347
23578W        W66495  26.208  16.560   0.552  0.1857  0.0803  0.0575
23579W        W66496  23.004  17.817   0.530 -0.1924  0.0476  0.1169
23580W        W66497  21.785  19.093  31.506 -0.2801 -0.0849  0.1449
23581W        W66498  22.331  16.798   3.032 -0.0969  0.2853 -0.3345
23582W        W66499  20.905  17.927   0.577 -0.1792 -0.4559  0.0170
23583W        W66500  21.724  18.750   1.323  0.0653  0.2830 -0.3539
23584W        W66501  21.898  18.147  31.615 -0.0801 -0.3019  0.1562
23585W        W66502  24.031  16.845  31.038 -0.0306  0.3536 -0.2261
23586W        W66503  24.405  17.610   1.160  0.0890  0.1761 -0.2019
23587W        W66504  20.793  17.445   2.340  0.0719  0.1696 -0.0395
23588W        W66505  21.702  17.528  30.004 -0.3197 -0.1468 -0.0443
23589W        W66506  22.885  16.930   3.019 -0.0229 -0.1889  0.2494
23590W        W66507  19.758  17.573   0.815  0.0456 -0.0944  0.0705
23591W        W66508  21.158  16.712   0.643 -0.0726  0.0847 -0.0373
23592W        W66509  21.706  15.477   0.958 -0.3293 -0.0069  0.1181
23593W        W66510  22.864  17.484  30.583  0.1202 -0.2547  0.1948
23594W        W66511  24.236  17.214   1.893  0.0878  0.3250  0.3209
23595W        W66512  21.684  15.381   1.608  0.1911  0.1650 -0.3445
23596W        W66513  20.880  19.060  31.859  0.2967 -0.0419  0.0240
23597W        W66514  24.456  15.797   3.224 -0.2223  0.0076  0.0702
23598W        W66515  23.094  16.331   0.733  0.5195  0.0307 -0.0559
23599W        W66516  25.739  15.257   0.282 -0.0442 -0.0659 -0.1613
23600W        W66517  22.137  16.419  31.172 -0.1982 -0.1771  0.0651
23601W        W66518  23.913  16.378   1.858 -0.0689  0.1789  0.0091
23602W        W66519  24.355  14.683   1.483 -0.0727 -0.1016 -0.1945
23603W        W66520  23.782  19.237   0.652 -0.1500  0.1688  0.0426
23604W        W66521  23.771  14.906   2.201  0.1877  0.0803 -0.2990
23605W        W66522  23.288  17.175   1.883  0.0448 -0.0731 -0.2225
23606W        W66523  25.197  15.117   0.721  0.1201  0.3599  0.3467
23607W        W66524  23.895  16.070   0.128  0.1236  0.1684 -0.0325
23608W        W66525  21.637  16.926   1.280 -0.2404 -0.1186 -0.1188
23609W        W66526  22.930  14.576   1.147 -0.0850  0.3180 -0.0729
23610W        W66527  25.269  18.177   1.331  0.2271 -0.2692  0.2027
23611W        W66528  25.688  18.478   0.425 -0.2297 -0.3301 -0.2577
23612W        W66529  21.991  17.743   0.764 -0.0655 -0.1331  0.0770
23613W        W66530  21.410  16.579   1.071 -0.3947  0.0619 -0.0319
23614W        W66531  19.652  15.958   2.390  0.1619 -0.1374 -0.3576
23615W        W66532  21.221  16.921   1.517  0.0363  0.0494 -0.1200
23616W        W66533  19.931  13.288  31.171  0.0725 -0.0497 -0.0266
23617W        W66534  25.402  18.996   2.762 -0.1949  0.2619  0.0696
23618W        W66535  20.124  16.284   3.300  0.0014  0.0397  0.0304
23619W        W66536  24.805  15.510   1.689 -0.2389 -0.0403 -0.1096
23620W        W66537  22.578  15.473   1.379  0.3303 -0.3079 -0.0958
23621W        W66538  23.383  20.917   1.406  0.2234 -0.1267 -0.0349
23622W        W66539  25.679  16.525  31.349 -0.1496 -0.0386  0.0233
23623W        W66540  22.913  14.148   0.875 -0.2590  0.1603  0.1560
23624W        W66541  25.926  15.606   1.085  0.1896 -0.1470  0.1476
23625W        W66542  20.505  16.852  31.859  0.3145  0.0354  0.2211
23626W        W66543  23.929  16.814   0.913  0.0571 -0.0288 -0.3915
23627W        W66544  23.105  17.667   1.640  0.1473 -0.0665 -0.2502
23628W        W66545  24.824  17.163   1.156  0.0561  0.0157  0.2293
23629W        W66546  20.647  15.965   2.363 -0.0939  0.2628 -0.2438
23630W        W66547  21.345  16.103   2.090 -0.0832 -0.1711 -0.0018
23631W        W66548  22.091  17.319   3.050  0.2717  0.1781 -0.0957
23632W        W66549  20.794  17.498  30.351 -0.1526 -0.0399  0.0117
23633W        W66550  21.057  17.259  31.450 -0.0054  0.0335  0.0777
23634W        W66551  21.886  16.735   0.897 -0.0107  0.0977 -0.0898
23635W        W66552  20.383  15.749   1.220  0.0358  0.0798  0.1302
23636W        W66553  22.399  16.533   1.315  0.0551  0.4123  0.1512
23637W        W66554  26.936  16.239   0.029  0.2335 -0.1755 -0.3750
23638W        W66555  22.892  17.217   2.404  0.0595 -0.0839 -0.0219
23639W        W66556  26.445  15.769   0.393  0.3325 -0.0225  0.0449
23640W        W66557  19.184  17.317  31.866  0.0571 -0.3821 -0.3025
23641W        W66558  23.819  19.063   0.167  0.2763 -0.1115 -0.3270
23642W        W66559  26.752  15.888   0.853  0.2215  0.0766  0.2495
23643W        W66560  25.097  17.945  31.839  0.0625 -0.0104 -0.1027
23644W        W66561  21.574  15.054   1.200 -0.1944 -0.0033  0.1510
23645W        W66562  21.046  16.791   2.538 -0.1401 -0.1632  0.3518
23646W        W66563  23.345  15.437   2.096 -0.0636 -0.0725 -0.1274
23647W        W66564  20.713  14.843   2.393 -0.1443  0.0660 -0.1051
23648W        W66565  23.463  17.032   2.307  0.1818  0.2579 -0.2719
23649W        W66566  22.778  13.670  31.267 -0.0849  0.5775 -0.1374
23650W        W66567  24.417  16.269   2.015  0.0532 -0.1544 -0.0061
23651W        W66568  20.924  16.596   1.074  0.2534  0.0882 -0.0454
23652W        W66569  18.880  16.669  31.287  0.1473  0.1870  0.1095
23653W        W66570  24.617  16.877   2.898 -0.3100 -0.1136 -0.0704
23654W        W66571  23.278  16.575  30.577 -0.0627  0.3770 -0.0275
23655W        W66572  22.950  20.119   0.836  0.0239 -0.2160 -0.1503
23656W        W66573  24.604  18.720   1.452 -0.1164  0.1798  0.1917
23657W        W66574  20.747  15.316   1.067 -0.0122 -0.0439  0.1655
23658W        W66575  21.593  16.928  30.215 -0.0484 -0.0342  0.3290
23659W        W66576  20.988  16.780  31.905  0.0598 -0.0880  0.0994
23660W        W66577  19.943  15.482   0.342 -0.1600 -0.1652  0.2808
23661W        W66578  20.448  15.065   0.480  0.0446  0.2047  0.0114
23662W        W66579  23.751  18.029   1.457  0.2599  0.1479 -0.0664
23663W        W66580  25.853  16.970  31.700  0.2100  0.1517 -0.1273
23664W        W66581  18.636  17.972   0.040 -0.0515  0.0528  0.0260
23665W        W66582  23.914  16.558   2.303  0.1276  0.0336  0.0495
23666W        W66583  22.250  15.259   1.777 -0.1967 -0.0833 -0.0629
23667W        W66584  22.826  15.915   1.525 -0.2376  0.2295  0.2969
23668W        W66585  20.708  15.562  31.383 -0.2344  0.2285 -0.2376
23669W        W66586  22.268  17.854  31.261  0.0624 -0.2386 -0.1758
23670W        W66587  20.829  18.602  31.656  0.1428  0.3982  0.1403
23671W        W66588  19.843  16.338  30.509  0.0658  0.0882 -0.1058
23672W        W66589  21.507  18.638   0.781  0.0426  0.4083  0.0735
23673W        W66590  23.010  15.225   0.905 -0.0177 -0.0967  0.0599
23674W        W66591  21.769  14.598   2.333 -0.0852 -0.4244  0.1087
23675W        W66592  23.423  16.933   3.278  0.1129  0.2222  0.0452
23676W        W66593  21.457  15.618  31.606 -0.2292  0.0639  0.0495
23677W        W66594  21.216  17.351   2.698 -0.0092  0.1087 -0.3263
23678W        W66595  23.842  16.639   1.367 -0.1474  0.1443  0.0016
23679W        W66596  25.401  15.762   1.093 -0.0666  0.1033 -0.2474
23680W        W66597  23.985  18.989   1.597  0.3174  0.2795 -0.3480
23681W        W66598  23.410  16.060   0.442 -0.0206 -0.0102 -0.3124
23682W        W66599  24.531  14.732  31.315 -0.1055 -0.0009  0.2521
23683W        W66600  22.747  14.120  31.008 -0.4293  0.0711  0.0530
23684W        W66601  20.453  16.983   2.647 -0.0687  0.4127  0.2206
23685W        W66602  20.455  16.810   1.281  0.0095  0.2123  0.0040
23686W        W66603  22.482  15.585   2.332 -0.1077  0.1557 -0.3390
23687W        W66604  22.931  14.767   0.002 -0.0221  0.1580 -0.3369
23688W        W66605  26.109  19.496   0.891  0.1633 -0.0382 -0.2725
23689W        W66606  21.245  16.203   1.396  0.1933  0.0284  0.1652
23690W        W66607  23.976  17.742   0.870  0.0809  0.2801 -0.0888
23691W        W66608  23.749  17.770  31.839  0.0270 -0.0739  0.0056
23692W        W66609  22.891  16.140   3.588 -0.1679 -0.1800  0.2830
23693W        W66610  22.049  15.224   1.320 -0.1910  0.0278  0.1416
23694W        W66611  20.911  14.191  31.083 -0.0625 -0.0068 -0.0940
23695W        W66612  21.689  18.584  31.665  0.1661 -0.2674  0.0898
23696W        W66613  23.197  14.953   4.143  0.1952  0.2100  0.0966
23697W        W66614  22.976  15.771   2.536 -0.1232  0.2593 -0.2108
23698W        W66615  20.169  14.395   3.404  0.0247 -0.0979 -0.0449
23699W        W66616  23.701  16.506   3.160 -0.1513 -0.1623  0.1536
23700W        W66617  26.855  16.658   2.172 -0.1001 -0.0394  0.2022
23701W        W66618  23.353  15.892   2.266 -0.1326 -0.2755 -0.1009
23702W        W66619  19.897  16.045   0.071 -0.0189 -0.0682 -0.3389
23703W        W66620  23.502  14.053   2.509  0.0017 -0.0964  0.0482
23704W        W66621  22.639  16.395   1.780 -0.0794  0.0906  0.1355
23705W        W66622  19.174  16.125   2.685 -0.0454 -0.1022 -0.0145
23706W        W66623  24.005  17.055   2.392  0.0083  0.2432 -0.2166
23707W        W66624  25.654  15.933   1.512  0.0334  0.2757 -0.1945
23708W        W66625  23.474  16.403   4.464 -0.3674  0.2457  0.1863
23709W        W66626  21.637  15.484  30.726 -0.1395 -0.0081  0.0283
23710W        W66627  21.617  17.189  31.565  0.1326 -0.1573  0.2983
23711W        W66628  23.417  13.417   0.014 -0.0052 -0.2424  0.1854
23712W        W66629  23.046  15.555   1.239  0.1922 -0.3235 -0.2363
23713W        W66630  22.135  18.207   0.576 -0.0313 -0.3255  0.2082
23714W        W66631  21.868  17.858  30.854  0.1140 -0.0788  0.1448
23715W        W66632  21.467  17.916   0.128 -0.0022  0.1544  0.1325
23716W        W66633  20.773  19.252  31.145  0.0320 -0.2525 -0.0985
23717W        W66634  24.191  15.131   2.328 -0.0229  0.2830 -0.0001
23718W        W66635  20.844  15.482   0.598 -0.0613 -0.0264 -0.0595
23719W        W66636  21.938  15.874   0.594  0.0308  0.0482 -0.2256
23720W        W66637  20.178  16.270   0.538  0.2776 -0.2402  0.1057
23721W        W66638  26.885  15.586   1.758  0.0837  0.1385 -0.1904
23722W        W66639  25.330  17.093   0.806 -0.1492  0.1561 -0.4493
23723W        W66640  22.586  14.312   1.366  0.2724 -0.1233 -0.1265
23724W        W66641  22.542  15.980   2.631 -0.0470  0.0976 -0.2506
23725W        W66642  20.985  17.814   1.491  0.0603 -0.1148  0.0753
23726W        W66643  21.277  17.437   1.349  0.0948 -0.0720 -0.2502
23727W        W66644  26.660  13.536   0.099 -0.1081 -0.2901 -0.2591
23728W        W66645  21.566  16.515   2.511 -0.0714 -0.0896 -0.2243
23729W        W66646  22.313  16.589   4.212  0.2535 -0.0302 -0.0124
23730W        W66647  19.615  16.067   1.604 -0.1769  0.1531 -0.0319
23731W        W66648  22.814  17.657   3.517 -0.0290  0.2817 -0.2854
23732W        W66649  22.412  15.946   0.571  0.0695 -0.0210 -0.1818
23733W        W66650  19.462  16.979   1.155 -0.2337 -0.0996 -0.0207
23734W        W66651  23.607  17.851   2.428  0.0182  0.1127 -0.0448
23735W        W66652  21.477  16.445  30.294 -0.1028 -0.2904 -0.1656
23736W        W66653  21.406  15.746   0.596  0.0527 -0.0072 -0.2265
23737W        W66654  22.169  16.177   2.924  0.1874  0.0472  0.4132
23738W        W66655  23.320  19.371   0.954  0.0374 -0.1207 -0.3544
23739W        W66656  23.385  16.565   2.162  0.3252 -0.0417  0.0338
23740W        W66657  21.717  15.202  31.883 -0.1465  0.2342 -0.0201
23741W        W66658  20.208  16.921   0.770  0.1288  0.0598  0.0586
23742W        W66659  23.326  18.302   0.555 -0.3096  0.0179 -0.3819
23743W        W66660  22.138  17.000   1.666  0.0643 -0.2610 -0.2378
23744W        W66661  22.679  18.413   4.928  0.0957 -0.1044 -0.0281
23745W        W66662  23.759  15.873   2.624  0.0866  0.0112 -0.0850
23746W        W66663  20.532  17.012   0.385  0.1754  0.0967  0.1006
23747W        W66664  24.965  15.917   0.974  0.0966  0.1618  0.0602
23748W        W66665  21.919  15.174  31.011 -0.2549 -0.1208 -0.0146
23749W        W66666  20.084  17.341   0.512  0.0955 -0.0928  0.1841
23750W        W66667  21.095  17.184   0.476  0.0675 -0.2052  0.1579
23751W        W66668  22.677  18.180   1.276 -0.0214  0.2603  0.0227
23752W        W66669  24.605  17.156   0.329  0.1720  0.0084 -0.0898
23753W        W66670  21.075  15.890  31.357  0.0690  0.0278 -0.0176
23754W        W66671  20.191  15.632   3.843  0.2555  0.1655 -0.0578
23755W        W66672  25.909  15.667   0.558  0.0485 -0.1320 -0.1435
23756W        W66673  23.235  16.768   1.075 -0.1014 -0.2496  0.5427
23757W        W66674  23.335  14.361   2.094  0.1017 -0.1468  0.0854
23758W        W66675  25.555  14.827   3.792  0.2044  0.1077  0.0391
23759W        W66676  25.387  15.714   0.299  0.0694 -0.0642  0.3480
23760W        W66677  22.690  14.940   3.042 -0.4085 -0.1328 -0.0152
23761W        W66678  23.445  15.468   2.550  0.2087 -0.2634  0.0492
23762W        W66679  23.320  17.533   1.188  0.0177 -0.1098 -0.0454
23763W        W66680  19.984  16.321   1.938 -0.1334 -0.0094 -0.0180
23764W        W66681  21.513  18.792   3.464  0.2687  0.2549 -0.2048
23765W        W66682  21.008  16.524   2.928 -0.2763  0.4616 -0.0445
23766W        W66683  21.412  13.638  31.697 -0.0912 -0.0429 -0.1392
23767W        W66684  20.192  16.516   0.073  0.0163 -0.1280 -0.1846
23768W        W66685  22.140  15.976   2.221 -0.1111 -0.0807 -0.1868
23769W        W66686  21.598  16.375   0.514  0.0612  0.1738 -0.1693
23770W        W66687  20.773  16.261  31.491 -0.2168  0.0057  0.0063
23771W        W66688  24.556  16.324   0.686  0.0746  0.1527  0.0276
23772W        W66689  20.564  17.136   1.810 -0.1078 -0.0719  0.0378
23773W        W66690  23.560  17.044   1.321 -0.1791 -0.3528 -0.0652
23774W        W66691  23.369  15.278   1.520  0.1026  0.2510  0.1313
23775W        W66692  20.666  17.749  31.667  0.0354 -0.0320 -0.0554
23776W        W66693  22.467  14.598   2.301  0.2259 -0.0817  0.0459
23777W        W66694  23.457  18.303  31.289 -0.2005 -0.3015 -0.0554
23778W        W66695  22.961  16.227   2.327 -0.2824 -0.4911 -0.0599
23779W        W66696  21.875  16.928   3.369  0.0142 -0.0976  0.1932
23780W        W66697  24.116  15.679   1.049  0.1398  0.1497 -0.2315
23781W        W66698  21.347  16.545   1.837 -0.0197  0.6128 -0.1519
23782W        W66699  23.349  13.741   2.894 -0.3799 -0.3083  0.0817
23783W        W66700  22.324  18.634   2.093  0.2029  0.0124  0.2548
23784W        W66701  24.322  15.698  30.355  0.2225  0.1595  0.1593
23785W        W66702  23.708  15.659   1.360  0.1130  0.0139  0.1736
23786W        W66703  25.525  17.034  31.258  0.3176  0.1754  0.2332
23787W        W66704  21.674  16.424  31.960 -0.0169  0.0242 -0.1389
23788W        W66705  20.696  15.665   1.951  0.2828  0.1062 -0.2255
23789W        W66706  22.903  16.772   2.086  0.1395  0.4383  0.1894
23790W        W66707  23.340  13.822  31.623  0.1477 -0.0611  0.1886
23791W        W66708  24.544  16.192   3.543  0.1384 -0.0358  0.0949
23792W        W66709  22.685  17.749  30.154  0.1441 -0.0146 -0.0835
23793W        W66710  22.715  17.313  31.905  0.2537 -0.3739  0.0153
23794W        W66711  23.864  14.541   1.282  0.3454 -0.0335  0.1474
23795W        W66712  21.186  15.659   1.770  0.2382 -0.0366 -0.2418
23796W        W66713  19.583  16.608   4.488  0.1132  0.0102 -0.0546
23797W        W66714  19.251  17.515  28.714  0.0651 -0.1642 -0.0022
23798W        W66715  22.535  14.877   0.840 -0.2546 -0.1550 -0.0358
23799W        W66716  23.194  17.659   2.747  0.0166  0.0120 -0.0895
23800W        W66717  24.053  15.986   0.606 -0.0309 -0.0409 -0.4258
23801W        W66718  22.835  13.124  31.152 -0.0035 -0.1605  0.0443
23802W        W66719  23.432  15.962   4.727  0.4462 -0.0109  0.2341
23803W        W66720  19.738  16.768  30.554 -0.2471  0.0937  0.1459
23804W        W66721  25.969  15.274  31.494 -0.0069  0.1212  0.2815
23805W        W66722  22.018  18.656   0.764 -0.1847 -0.0776 -0.1586
23806W        W66723  19.971  18.018   2.669 -0.0959 -0.6502 -0.3012
23807W        W66724  18.820  16.667   1.955 -0.1070 -0.0112 -0.1001
23808W        W66725  23.265  17.160   2.795 -0.1032  0.1734 -0.2765
23809W        W66726  22.131  14.276   2.223  0.1318 -0.2180  0.2712
23810W        W66727  21.958  16.796   0.283 -0.0009  0.0540  0.0710
23811W        W66728  24.010  15.456   2.840  0.0679  0.1983 -0.1401
23812W        W66729  22.291  16.054   0.109  0.2833  0.0304  0.2607
23813W        W66730  21.820  17.390   1.080  0.1562 -0.1250 -0.0242
23814W        W66731  21.052  17.438   1.862 -0.0710 -0.0669  0.1625
23815W        W66732  26.102  18.234   1.628 -0.0824  0.0890  0.0411
23816W        W66733  21.825  18.227   1.596 -0.0435  0.1436 -0.1194
23817W        W66734  19.620  15.339   1.606  0.1455 -0.0808 -0.2420
23818W        W66735  24.603  17.684   2.649 -0.3744 -0.2680  0.1801
23819W        W66736  23.364  17.881   0.833 -0.3132  0.0181  0.1188
23820W        W66737  22.476  14.528  30.717 -0.2792  0.2022 -0.1734
23821W        W66738  23.696  17.284  31.816 -0.2812  0.1168  0.1579
23822W        W66739  22.264  15.613   1.010  0.0297 -0.1925  0.0497
23823W        W66740  22.148  16.264   1.724  0.2267  0.2306  0.1387
23824W        W66741  22.215  18.791  31.219  0.1489  0.0769  0.3010
23825W        W66742  22.780  16.675  30.992 -0.0993  0.0356 -0.1963
23826W        W66743  25.127  16.975  30.967  0.1835 -0.2568 -0.0179
23827W        W66744  20.221  17.747   4.235  0.0294  0.2412  0.1895
23828W        W66745  21.974  15.435  31.461 -0.1072  0.1210 -0.0699
23829W        W66746  19.835  18.216   0.998 -0.0251  0.0376  0.0965
23830W        W66747  22.387  17.472   1.922 -0.1909 -0.3372  0.1708
23831W        W66748  22.848  16.307  30.041  0.1296 -0.1348  0.1150
23832W        W66749  22.739  18.305  30.911  0.0625  0.0951  0.0868
23833W        W66750  22.230  16.792   3.713 -0.2994  0.1053 -0.1488
23834W        W66751  23.758  15.031   2.659 -0.2162 -0.0523  0.2285
23835W        W66752  23.838  16.468   0.502  0.1898  0.0137  0.0358
23836W        W66753  28.106  17.091   1.258 -0.2347  0.0560 -0.1848
23837W        W66754  22.545  19.729   1.417 -0.0252  0.3004  0.0455
23838W        W66755  23.498  16.353   1.554  0.1170  0.1006  0.0832
23839W        W66756  21.060  15.684   0.965 -0.3343  0.0062  0.0849
23840W        W66757  20.670  14.538   4.679  0.1806 -0.0437  0.1363
23841W        W66758  22.924  13.912   3.217 -0.0403 -0.0383  0.2031
23842W        W66759  20.916  16.357   2.207  0.0483 -0.0327 -0.3350
23843W        W66760  25.600  17.841   1.078  0.3920 -0.3240  0.1029
23844W        W66761  21.477  15.098   2.381 -0.3098 -0.2162 -0.2289
23845W        W66762  23.009  17.170   3.519 -0.1784  0.2094  0.0417
23846W        W66763  25.247  16.308   3.178 -0.1495  0.1744 -0.0146
23847W        W66764  24.582  15.875   0.584  0.0054  0.0060 -0.0491
23848W        W66765  25.716  16.957   1.451  0.0930 -0.3578 -0.2230
23849W        W66766  21.914  17.772   0.207  0.1908 -0.0448  0.3547
23850W        W66767  20.382  17.430   0.088 -0.1755 -0.1889 -0.2439
23851W        W66768  18.591  15.957   0.664 -0.0402 -0.1314 -0.4574
23852W        W66769  21.576  14.475   0.303 -0.1277 -0.0219 -0.0007
23853W        W66770  25.032  14.521   1.450  0.1279 -0.0355  0.1543
23854W        W66771  22.365  15.270   2.815  0.1657  0.0091 -0.0582
23855W        W66772  23.704  15.610   0.348  0.1475  0.4493 -0.0178
23856W        W66773  21.281  17.523   0.821  0.2304 -0.0873  0.2396
23857W        W66774  24.189  15.621   0.354 -0.1508  0.1409 -0.1169
23858W        W66775  22.576  17.935   0.836 -0.0574  0.1451  0.0090
23859W        W66776  21.862  15.306   3.071 -0.2737 -0.1890  0.2561
23860W        W66777  23.309  15.992   1.204 -0.1139 -0.0532 -0.2042
23861W        W66778  22.642  16.893   1.552  0.0602 -0.3373  0.1306
23862W        W66779  24.339  16.815   0.069 -0.1653  0.0984  0.3576
23863W        W66780  21.334  17.282   3.634 -0.1507 -0.2768  0.1311
23864W        W66781  20.836  16.767  31.462  0.1147  0.1426 -0.3043
23865W        W66782  24.227  15.095   1.066  0.0968  0.0141  0.1494
23866W        W66783  20.012  17.637  31.644  0.2189  0.0414 -0.1575
23867W        W66784  22.594  16.429   2.816 -0.2249  0.0603  0.0657
23868W        W66785  22.567  18.435   0.798 -0.0576 -0.0409 -0.1359
23869W        W66786  20.668  16.984   0.863 -0.1752 -0.5884  0.1776
23870W        W66787  24.628  16.945  30.765 -0.2563 -0.0979 -0.1227
23871W        W66788  23.788  15.282   1.879 -0.1143 -0.1670 -0.0047
23872W        W66789  22.532  16.787  29.973 -0.1245  0.0809  0.0015
23873W        W66790  23.195  16.770   1.617 -0.3123 -0.0914  0.1290
23874W        W66791  24.449  19.105   1.700 -0.0077 -0.0151 -0.2067
23875W        W66792  21.493  14.373   1.429  0.1417 -0.0986  0.1072
23876W        W66793  22.364  15.800   1.790  0.1237 -0.2649  0.0853
23877W        W66794  24.145  19.093   2.064 -0.0868  0.1060  0.0032
23878W        W66795  22.438  14.769  31.771 -0.0979 -0.1200 -0.0319
23879W        W66796  23.275  15.782   1.719  0.0025  0.0569  0.3447
23880W        W66797  19.554  17.699  31.832 -0.0209  0.1106 -0.3846
23881W        W66798  23.159  14.674   2.846 -0.0403  0.4090  0.0742
23882W        W66799  23.296  14.989   2.421 -0.1271 -0.3243  0.2412
23883W        W66800  23.463  15.119   0.485 -0.0004  0.0076  0.0350
23884W        W66801  23.207  16.507   3.102  0.2506  0.0083 -0.0016
23885W        W66802  21.033  17.663   0.122  0.0933  0.3427  0.1352
23886W        W66803  20.457  16.898   3.550  0.0835 -0.5442  0.1410
23887W        W66804  20.172  15.272  29.097  0.0160 -0.0034 -0.0439
23888W        W66805  22.108  18.363   3.050 -0.0865  0.0584  0.0925
23889W        W66806  19.822  16.515   0.830  0.0974 -0.0544  0.0631
23890W        W66807  22.717  18.628  30.388 -0.1312 -0.0665 -0.0463
23891W        W66808  24.172  18.648   1.249  0.0832  0.0781 -0.1577
23892W        W66809  22.657  15.321   0.010 -0.4022  0.2132  0.1826
23893W        W66810  23.395  18.678   2.945 -0.1555 -0.3205  0.2390
23894W        W66811  22.631  14.276   2.842 -0.1215 -0.1801 -0.0664
23895W        W66812  23.645  15.822   0.892 -0.1496 -0.2768 -0.1743
23896W        W66813  23.741  14.874   0.920 -0.5108  0.0148 -0.1274
23897W        W66814  21.724  15.404   4.123  0.1653  0.0481  0.0625
23898W        W66815  19.474  16.124  30.818  0.2434  0.3530  0.2470
23899W        W66816  20.981  15.936   0.366 -0.1048  0.0089  0.4115
23900W        W66817  21.128  16.199   0.760  0.0141 -0.1765  0.0243
23901W        W66818  21.607  16.144   1.685 -0.1084  0.0362  0.0044
23902W        W66819  21.354  15.616   2.301 -0.1988  0.0864  0.1104
23903W        W66820  20.671  16.279   0.033 -0.0014 -0.5040 -0.3380
23904W        W66821  21.856  15.743  31.950 -0.1614  0.1450  0.1439
23905W        W66822  25.084  15.756  31.826 -0.1503  0.0719  0.1204
23906W        W66823  21.681  15.707   1.989  0.0779  0.1993  0.1730
23907W        W66824  20.780  17.296   2.879  0.0082  0.0399  0.0015
23908W        W66825  23.540  17.915   0.357  0.1504 -0.1189 -0.0571
23909W        W66826  24.479  17.154   1.479  0.4044 -0.0997 -0.0435
23910W        W66827  23.045  14.131   1.508  0.1288 -0.3022 -0.0648
23911W        W66828  23.322  18.686   0.982  0.3536  0.1355  0.0702
23912W        W66829  22.526  16.392  29.647 -0.0399 -0.1113 -0.1800
23913W        W66830  21.973  17.340   2.165 -0.0265 -0.0038 -0.1435
23914W        W66831  21.478  15.693   1.321 -0.1128 -0.0538 -0.2435
23915W        W66832  19.448  15.495  29.472 -0.3535  0.0219  0.2234
23916W        W66833  20.684  16.790   2.159  0.2736  0.1986 -0.2084
23917W        W66834  23.047  17.337  30.081 -0.0528  0.0951  0.1167
23918W        W66835  24.563  18.589   0.995  0.0003 -0.1678 -0.1298
23919W        W66836  23.422  15.877  31.127  0.1229  0.1906  0.3539
23920W        W66837  20.658  17.709   3.095  0.4933 -0.0386  0.8553
23921W        W66838  21.342  14.496   2.040 -0.2555 -0.2264 -0.2852
23922W        W66839  24.334  16.786   0.587  0.0564  0.0781  0.2833
23923W        W66840  23.597  17.530   4.057 -0.0740  0.1192 -0.1481
23924W        W66841  23.657  17.152  31.165 -0.2912  0.1307  0.0654
23925W        W66842  25.967  16.204   1.905 -0.1691  0.0346  0.1583
23926W        W66843  23.934  16.097   1.412  0.2212  0.0878 -0.0335
23927W        W66844  22.940  15.417   1.713 -0.0747  0.0665  0.2666
23928W        W66845  20.980  15.615   2.632  0.2462  0.0491 -0.0168
23929W        W66846  22.779  16.806  31.899 -0.1978  0.2219 -0.1889
23930W        W66847  20.296  15.868   0.224 -0.3344 -0.0131 -0.2590
23931W        W66848  25.796  13.452   1.388  0.1720 -0.1483  0.0873
23932W        W66849  23.920  15.347   0.720  0.0194 -0.1777  0.2974
23933W        W66850  20.320  17.341   1.029 -0.0322 -0.0789  0.2687
23934W        W66851  23.433  14.800  30.738  0.0610 -0.0464 -0.0132
23935W        W66852  21.736  16.987   2.815 -0.2081 -0.0091 -0.4284
23936W        W66853  22.485  16.475   2.280 -0.3385 -0.3694  0.2157
23937W        W66854  23.780  16.984   1.904  0.0241  0.2549 -0.1638
23938W        W66855  22.024  15.189  29.627  0.0157  0.0124  0.0345
23939W        W66856  23.650  16.817   0.133 -0.1901  0.1643  0.0373
23940W        W66857  22.553  18.281   2.826  0.1283 -0.0945 -0.3335
23941W        W66858  22.571  18.743   2.925 -0.3338 -0.2757  0.1035
23942W        W66859  21.490  17.772   1.669 -0.0796  0.0022  0.0049
23943W        W66860  23.815  15.079   1.379 -0.0801  0.2332  0.1031
23944W        W66861  21.664  13.504   1.360 -0.1810 -0.2958  0.0558
23945W        W66862  20.812  16.607   1.627  0.1044  0.1100  0.2441
23946W        W66863  24.097  17.285  30.298  0.2832 -0.0575 -0.0095
23947W        W66864  24.749  17.186   1.931  0.2067  0.1260 -0.2722
23948W        W66865  22.876  13.710  31.804  0.1488 -0.1288  0.1184
23949W        W66866  25.467  15.506   0.723 -0.4645 -0.0059  0.0931
23950W        W66867  22.122  16.555   2.617 -0.0940  0.0388 -0.0408
23951W        W66868  22.357  16.709   0.696  0.1165 -0.0141  0.1645
23952W        W66869  21.766  15.989   5.493 -0.0608  0.3680 -0.2832
23953W        W66870  20.996  15.527   3.920 -0.2119 -0.0599 -0.1400
23954W        W66871  23.629  15.614   3.365 -0.0649  0.0912  0.0061
23955W        W66872  24.892  16.843   2.473 -0.0705  0.2071  0.0252
23956W        W66873  21.823  14.242   4.172  0.4530 -0.0574  0.1113
23957W        W66874  25.127  19.348   3.012 -0.2284 -0.1636  0.0713
23958W        W66875  23.010  15.236   5.001 -0.1474 -0.0386  0.1700
23959W        W66876  25.282  16.869   4.888 -0.3631  0.1576  0.0496
23960W        W66877  23.444  17.539   5.906  0.1036 -0.0117  0.0006
23961W        W66878  24.706  17.550   3.152  0.1340 -0.2601  0.0985
23962W        W66879  23.160  16.167   7.336  0.0890  0.1048 -0.0972
23963W        W66880  22.152  17.222   5.082 -0.0503 -0.1693 -0.1955
23964W        W66881  21.415  14.406   3.166 -0.3304 -0.2944 -0.3186
23965W        W66882  20.429  14.237   5.062 -0.0170 -0.2624 -0.0480
23966W        W66883  24.783  16.872   5.299  0.0984  0.0465 -0.1486
23967W        W66884  22.056  16.025   3.421  0.3233 -0.0690  0.0039
23968W        W66885  21.690  15.274   5.205 -0.0599  0.1166  0.0125
23969W        W66886  20.840  14.350   3.854 -0.0435  0.0838 -0.0621
23970W        W66887  23.263  18.645   5.080 -0.0723  0.2476  0.2560
23971W        W66888  22.962  14.145   8.153  0.3312  0.0761 -0.1828
23972W        W66889  24.376  15.222   4.710 -0.4392 -0.3499  0.1039
23973W        W66890  23.495  18.389   1.896  0.2720 -0.0595 -0.0472
23974W        W66891  20.709  16.196   1.264 -0.2352 -0.0960  0.2238
23975W        W66892  21.226  14.073   5.644  0.0022  0.1315 -0.0191
23976W        W66893  22.044  18.401   4.100  0.1900 -0.2708  0.1287
23977W        W66894  25.345  14.579   5.260  0.1179 -0.2327 -0.3889
23978W        W66895  25.150  15.735   4.725 -0.2153 -0.0821 -0.0076
23979W        W66896  22.233  17.913   4.190 -0.3317  0.0807 -0.1694
23980W        W66897  22.003  17.336   3.591 -0.3403  0.1168 -0.0493
23981W        W66898  22.029  15.816   6.775  0.0115  0.0966  0.0305
23982W        W66899  19.702  15.772   3.680 -0.3255 -0.1666  0.0563
23983W        W66900  20.223  18.285   5.350  0.1092  0.2339 -0.1111
23984W        W66901  23.768  18.166   4.479  0.0534  0.0830 -0.1318
23985W        W66902  24.063  16.010   2.220  0.2048  0.0134 -0.2657
23986W        W66903  23.212  17.147   6.058 -0.2129  0.2119  0.0384
23987W        W66904  23.619  18.569   5.897  0.0810  0.0861 -0.1502
23988W        W66905  20.294  17.397   2.906  0.0155 -0.0396 -0.2190
23989W        W66906  23.151  17.862   6.781  0.1177  0.2720  0.1255
23990W        W66907  19.855  19.027   6.428  0.1656  0.1175  0.2289
23991W        W66908  24.067  18.549   3.286  0.1977  0.0963  0.4697
23992W        W66909  20.849  16.327   4.671  0.0039 -0.2352 -0.2394
23993W        W66910  21.715  17.453   2.605 -0.3013 -0.0193 -0.2223
23994W        W66911  24.343  14.428   5.931 -0.2253  0.1808  0.3539
23995W        W66912  21.877  18.410   6.184  0.3542 -0.2637  0.2467
23996W        W66913  20.933  17.210   4.988  0.0584 -0.0484 -0.4656
23997W        W66914  24.124  16.244   7.371 -0.1485  0.0940  0.0005
23998W        W66915  22.684  17.219   3.945 -0.0525  0.0782 -0.2640
23999W        W66916  23.343  17.613   5.316 -0.0413 -0.1739  0.1397
24000W        W66917  21.245  14.665   3.691  0.0897  0.0187 -0.0261
24001W        W66918  24.210  15.366   4.250 -0.1455  0.1702  0.3027
24002W        W66919  22.931  16.554   4.632  0.1505 -0.1974 -0.0320
24003W        W66920  20.533  18.924   4.137  0.0713  0.1973 -0.1838
24004W        W66921  23.099  16.363   5.513  0.0077  0.0610 -0.1868
24005W        W66922  23.707  15.861   5.071 -0.0060 -0.1011  0.0549
24006W        W66923  20.820  14.083   5.314  0.1745  0.0437 -0.0663
24007W        W66924  22.648  16.297   5.197  0.0522  0.1449 -0.0105
24008W        W66925  24.155  18.449   5.850 -0.0254 -0.0060 -0.0569
24009W        W66926  20.381  13.693   5.085 -0.0931  0.3528 -0.2626
24010W        W66927  22.818  17.243   1.863  0.0956 -0.2080 -0.0474
24011W        W66928  25.888  16.792   4.743  0.2492 -0.2875  0.0529
24012W        W66929  22.906  18.974   3.198  0.0092 -0.0718 -0.0869
24013W        W66930  21.355  16.315   4.000 -0.0517 -0.1958 -0.2778
24014W        W66931  20.481  17.391   7.127 -0.0409  0.0705 -0.0552
24015W        W66932  19.387  15.855   5.962  0.1364  0.0730  0.0832
24016W        W66933  22.139  15.694   2.680  0.0023 -0.0632  0.0009
24017W        W66934  25.711  17.373   6.553 -0.0573  0.2496  0.0454
24018W        W66935  21.037  18.545   5.733 -0.2393 -0.0021  0.0147
24019W        W66936  24.508  15.124   3.364 -0.2411  0.0040 -0.1955
24020W        W66937  22.059  16.778   6.248  0.0247 -0.2046  0.0619
24021W        W66938  23.424  18.467   4.605 -0.1998  0.0123  0.1169
24022W        W66939  24.941  17.308   2.693  0.0611 -0.0487  0.0388
24023W        W66940  23.372  14.366   5.388 -0.1366 -0.3464  0.1265
24024W        W66941  23.813  14.963   6.684 -0.1301 -0.2216 -0.0181
24025W        W66942  20.651  16.387   2.627 -0.0150 -0.1120 -0.1045
24026W        W66943  22.738  16.691   6.145 -0.0236  0.1281  0.0389
24027W        W66944  24.691  17.141   7.219 -0.2093  0.0680 -0.2633
24028W        W66945  23.362  17.147   5.100  0.1078 -0.5611  0.3466
24029W        W66946  20.980  18.969   4.416 -0.0099 -0.0769 -0.0029
24030W        W66947  23.540  18.630   6.363  0.5310  0.2497 -0.0116
24031W        W66948  23.668  16.291   5.390 -0.0089  0.1037 -0.2093
24032W        W66949  20.217  16.837   5.363 -0.1395 -0.0439  0.2056
24033W        W66950  20.594  14.943   5.670  0.1334 -0.0905  0.3585
24034W        W66951  20.874  16.638   4.160 -0.2272  0.0014 -0.1969
24035W        W66952  20.674  14.672   5.220  0.1094  0.0268 -0.0245
24036W        W66953  20.387  17.789   3.750 -0.0080 -0.1571 -0.1036
24037W        W66954  24.346  15.147   5.467 -0.3948 -0.2608 -0.1470
24038W        W66955  19.963  15.752   5.660 -0.0951  0.2217  0.1802
24039W        W66956  22.962  14.060   3.839 -0.0697  0.0929 -0.0744
24040W        W66957  19.915  16.801   3.653  0.0725  0.1940  0.2610
24041W        W66958  22.740  17.722   4.121 -0.1380 -0.1831  0.0819
24042W        W66959  23.818  15.534   3.909 -0.4970  0.4395 -0.0325
24043W        W66960  20.706  18.556   2.935 -0.1217 -0.1939 -0.1261
24044W        W66961  20.403  14.842   4.378 -0.1705  0.0883  0.6325
24045W        W66962  22.326  15.494   4.048  0.1478 -0.0747 -0.3394
24046W        W66963  23.001  14.655   5.763  0.2183 -0.1114  0.3022
24047W        W66964  20.325  15.582   5.165  0.1114  0.0259  0.2172
24048W        W66965  24.246  16.988   7.433  0.1978  0.0761 -0.1839
24049W        W66966  21.621  13.696   2.953  0.0221  0.1989  0.0094
24050W        W66967  21.316  15.790   2.911  0.0718 -0.2621  0.1635
24051W        W66968  23.586  17.601   3.568  0.1007  0.1508  0.1851
24052W        W66969  21.562  17.375   4.183 -0.1732 -0.0290 -0.1783
24053W        W66970  24.770  15.405   4.927  0.2412 -0.0319 -0.0143
24054W        W66971  22.939  17.328   4.339  0.1375 -0.0952  0.0494
24055W        W66972  24.615  19.097   5.651  0.1341  0.1721 -0.3911
24056W        W66973  23.596  18.566   3.865 -0.2693 -0.2241  0.0625
24057W        W66974  23.334  14.895   5.306  0.1273 -0.1308  0.1128
24058W        W66975  20.046  13.731   3.964  0.0019  0.3527  0.0348
24059W        W66976  21.110  17.346   4.386 -0.1859 -0.1174 -0.0361
24060W        W66977  21.448  17.902   4.434  0.0318  0.0720 -0.3519
24061W        W66978  22.018  13.837   2.585 -0.1433 -0.0837 -0.2083
24062W        W66979  24.858  18.836   4.829  0.0845 -0.2245  0.0421
24063W        W66980  24.403  17.712   4.119 -0.1130 -0.1178 -0.0007
24064W        W66981  20.673  16.790   5.173 -0.1369 -0.1449  0.2288
24065W        W66982  24.403  16.311   4.844  0.1673 -0.1983 -0.3263
24066W        W66983  23.960  15.877   6.511  0.1333  0.1965  0.0030
24067W        W66984  23.331  15.942   5.381  0.0570  0.3237 -0.3552
24068W        W66985  21.662  15.521   2.680 -0.1558  0.1156 -0.3697
24069W        W66986  23.906  18.083   3.542  0.2743  0.1206 -0.2146
24070W        W66987  19.150  17.315   4.766 -0.3286  0.0380 -0.1898
24071W        W66988  20.291  16.435   5.600  0.1864  0.4168 -0.0312
24072W        W66989  20.884  16.842   4.668  0.3192  0.0112 -0.2941
24073W        W66990  24.622  15.909   4.986 -0.1581 -0.1566  0.0256
24074W        W66991  20.026  16.888   7.180  0.0379 -0.1171  0.0517
24075W        W66992  24.175  15.840   4.855  0.1588 -0.0185  0.2357
24076W        W66993  20.816  14.954   3.853  0.2327 -0.1928  0.1621
24077W        W66994  22.991  18.653   4.665 -0.0988 -0.0851 -0.3647
24078W        W66995  25.083  14.820   4.183  0.0659 -0.0126  0.2379
24079W        W66996  23.524  15.395   5.303 -0.4039  0.2062  0.1121
24080W        W66997  23.095  16.665   7.201 -0.1281  0.3404  0.3895
24081W        W66998  24.534  18.083   1.855  0.3127 -0.0042 -0.0830
24082W        W66999  25.076  17.892   2.829  0.2233 -0.1863 -0.0955
24083W        W67000  22.927  16.023   4.522 -0.1328  0.0389 -0.1049
24084W        W67001  20.267  16.134   6.130  0.1693  0.1256 -0.2515
24085W        W67002  23.551  19.255   1.545  0.1154  0.1330  0.0578
24086W        W67003  21.527  17.254   3.179  0.0647 -0.1229 -0.1103
24087W        W67004  23.328  15.818   3.769 -0.1930 -0.4219  0.4797
24088W        W67005  23.823  17.428   2.108 -0.2227  0.0630 -0.0417
24089W        W67006  19.108  16.809   5.610 -0.1084 -0.1639  0.0161
24090W        W67007  22.064  17.076   4.587  0.0226  0.1916 -0.1108
24091W        W67008  24.429  16.637   2.501 -0.2091  0.0087 -0.0934
24092W        W67009  24.756  15.197   4.196 -0.0388  0.1314  0.2256
24093W        W67010  22.478  16.970   5.397  0.0554  0.1175 -0.2481
24094W        W67011  22.078  15.562   3.638  0.2441  0.0208 -0.0028
24095W        W67012  20.988  18.532   3.665  0.3017  0.3852  0.0912
24096W        W67013  25.075  15.628   4.198 -0.0287  0.1219 -0.1674
24097W        W67014  22.377  15.959   4.235  0.2699 -0.0287  0.4318
24098W        W67015  22.773  15.203   6.794 -0.0140 -0.0100 -0.1889
24099W        W67016  25.132  16.546   5.872 -0.0041 -0.0276  0.1978
24100W        W67017  25.523  15.918   4.311  0.0320 -0.3115  0.0010
24101W        W67018  21.844  16.496   4.229  0.1215 -0.0883  0.1961
24102W        W67019  20.182  17.153   2.142  0.0573  0.0820  0.2668
24103W        W67020  22.398  16.970   5.928  0.1740  0.1868  0.3145
24104W        W67021  21.672  15.850   5.940  0.0396 -0.0807 -0.0143
24105W        W67022  22.333  17.354   6.971  0.3912 -0.1329  0.0449
24106W        W67023  23.819  16.702   5.585  0.0549  0.1113 -0.2292
24107W        W67024  24.611  15.982   5.797 -0.1448 -0.3556  0.0919
24108W        W67025  21.155  15.342   5.482 -0.3374  0.0244 -0.1603
24109W        W67026  23.008  15.369   4.468 -0.0604  0.0298  0.0081
24110W        W67027  20.610  15.874   3.990 -0.3303 -0.0270 -0.1052
24111W        W67028  22.528  16.804   4.862  0.0561 -0.0330 -0.0480
24112W        W67029  22.337  13.567   4.375 -0.0971  0.2286  0.0639
24113W        W67030  18.736  18.579   4.359 -0.0793 -0.1778  0.0183
24114W        W67031  23.279  17.497   2.271  0.0766 -0.1374 -0.2636
24115W        W67032  22.493  17.412   5.855 -0.0103 -0.0065  0.1822
24116W        W67033  19.905  16.413   4.177 -0.2258  0.1495 -0.0207
24117W        W67034  23.394  15.491   4.861 -0.1171 -0.0951  0.1152
24118W        W67035  20.604  17.664   5.141  0.1786  0.0348 -0.0881
24119W        W67036  22.983  16.107   2.907 -0.0490  0.2805 -0.5550
24120W        W67037  20.957  14.704   4.245  0.0965 -0.1445 -0.1926
24121W        W67038  25.114  15.292   4.557  0.4045 -0.0856  0.0759
24122W        W67039  24.081  17.627   2.528 -0.1241  0.1107  0.2739
24123W        W67040  21.827  15.829   3.007  0.0823  0.1096  0.1581
24124W        W67041  21.513  15.778   3.956 -0.3030 -0.0523  0.2382
24125W        W67042  21.336  17.756   3.964 -0.2244 -0.0491  0.2877
24126W        W67043  24.249  16.362   5.700 -0.2914 -0.1066  0.0824
24127W        W67044  22.971  17.033   4.789  0.0598  0.0232 -0.3100
24128W        W67045  25.549  18.951   5.229  0.1460  0.3700 -0.0240
24129W        W67046  21.580  15.556   6.844 -0.2252 -0.3967  0.1384
24130W        W67047  20.909  14.214   4.346 -0.0794 -0.3287 -0.0004
24131W        W67048  23.741  13.624   5.057  0.2458 -0.2225 -0.0926
24132W        W67049  21.381  13.299   5.126  0.5935 -0.1196 -0.2282
24133W        W67050  20.157  16.627   6.084 -0.1971 -0.2648  0.3766
24134W        W67051  22.556  17.366   4.823  0.1256  0.0194  0.1147
24135W        W67052  22.358  17.526   2.502  0.2386  0.1237  0.2818
24136W        W67053  20.314  17.318   4.049 -0.0118  0.0653  0.1353
24137W        W67054  21.526  12.869   6.557  0.2369 -0.1063  0.1386
24138W        W67055  24.644  17.695   4.651  0.4349 -0.0153  0.1183
24139W        W67056  21.574  15.840   4.494  0.0311  0.2117  0.1141
24140W        W67057  21.285  15.462   4.421  0.0047  0.2790  0.0277
24141W        W67058  22.908  16.722   5.170 -0.0675  0.0309 -0.0486
24142W        W67059  24.189  17.225   5.378 -0.4011 -0.0240 -0.0486
24143W        W67060  23.743  14.631   5.091  0.1947 -0.1318 -0.2446
24144W        W67061  21.828  18.247   6.682 -0.3291  0.1202  0.0481
24145W        W67062  22.369  15.857   4.780  0.0451  0.0871  0.0367
24146W        W67063  24.549  18.955   2.374 -0.1707 -0.0215  0.0972
24147W        W67064  22.101  16.221   5.045 -0.0717  0.1103  0.2341
24148W        W67065  21.794  17.829   2.306  0.1275 -0.2074  0.0757
24149W        W67066  20.538  16.812   5.781 -0.4276 -0.0888 -0.1827
24150W        W67067  20.851  18.476   4.205 -0.2374  0.0041 -0.0450
24151W        W67068  23.638  15.472   6.527 -0.1852  0.1282 -0.1603
24152W        W67069  19.644  17.498   4.926  0.2086  0.1979  0.0979
24153W        W67070  21.628  18.103   3.739 -0.0380  0.3082  0.2999
24154W        W67071  21.015  17.779   6.359  0.1568  0.0430  0.0360
24155W        W67072  23.193  16.602   3.706  0.2651 -0.2530 -0.0742
24156W        W67073  24.397  18.073   2.929  0.0509  0.1056  0.0996
24157W        W67074  22.154  15.314   5.032 -0.2397  0.0652  0.1817
24158W        W67075  24.224  14.668   5.521 -0.2530  0.0130  0.1671
24159W        W67076  23.518  17.815   1.897  0.2560 -0.0082  0.2087
24160W        W67077  25.905  14.429   6.427 -0.0229  0.1103 -0.4683
24161W        W67078  22.056  15.634   4.457 -0.1312  0.0010  0.0219
24162W        W67079  25.075  17.118   4.439  0.1296  0.1819  0.1359
24163W        W67080  21.118  15.123   6.131 -0.1100 -0.0861  0.0086
24164W        W67081  21.789  16.768   7.818  0.2247  0.1112  0.0362
24165W        W67082  22.146  17.904   6.918 -0.1090 -0.3335 -0.1572
24166W        W67083  23.806  14.926   5.485 -0.2906 -0.0541  0.0281
24167W        W67084  21.893  14.940   1.996 -0.4233 -0.0041 -0.2299
24168W        W67085  21.169  17.279   5.857  0.1993  0.0065  0.2225
24169W        W67086  23.673  17.340   2.645  0.1235  0.0574 -0.0391
24170W        W67087  23.177  17.560   3.882  0.0175  0.0747 -0.2245
24171W        W67088  25.922  16.670   4.099 -0.2573 -0.0771  0.0060
24172W        W67089  20.515  15.716   6.045 -0.1934 -0.2931 -0.1005
24173W        W67090  24.426  14.673   3.099  0.0452 -0.1019  0.2399
24174W        W67091  24.218  17.239   4.056  0.1573  0.0671 -0.1332
24175W        W67092  20.667  16.356   3.733  0.0420  0.0731  0.0182
24176W        W67093  20.601  15.014   6.875  0.1169 -0.0445  0.0598
24177W        W67094  22.190  18.122   5.769 -0.0937  0.0579  0.3931
24178W        W67095  22.694  15.006   4.127 -0.2470  0.4754  0.1043
24179W        W67096  22.987  16.698   6.666  0.1602  0.2610 -0.0894
24180W        W67097  22.843  17.432   6.818  0.0820 -0.1978 -0.3412
24181W        W67098  20.985  16.659   5.606 -0.2550 -0.1189 -0.4038
24182W        W67099  19.928  16.288   6.537 -0.0851  0.0540 -0.0579
24183W        W67100  25.668  18.350   5.108  0.5391 -0.0307  0.4217
24184W        W67101  24.165  16.800   3.820  0.1007 -0.3015 -0.0333
24185W        W67102  22.267  15.423   8.168  0.1977 -0.1819  0.3629
24186W        W67103  24.503  16.943   4.842  0.1792  0.1807  0.0077
24187W        W67104  22.780  15.583   3.035 -0.2623  0.2734  0.0360
24188W        W67105  21.416  16.927   5.594 -0.0239 -0.0154  0.0990
24189W        W67106  23.626  16.579   8.240  0.0302 -0.2165  0.1153
24190W        W67107  22.606  16.045   3.205 -0.0089 -0.0226  0.1289
24191W        W67108  27.265  15.841   5.456  0.1857 -0.1272 -0.0938
24192W        W67109  22.444  18.947   2.436 -0.1063  0.2152  0.1970
24193W        W67110  22.361  17.599   3.827 -0.2537  0.1404 -0.2374
24194W        W67111  22.809  15.948   5.518 -0.0501 -0.0477 -0.1573
24195W        W67112  21.872  16.539   3.058 -0.3193 -0.0518  0.0623
24196W        W67113  21.882  17.942   6.314  0.0577  0.0272 -0.0503
24197W        W67114  23.276  15.705   2.936 -0.2042 -0.0947 -0.1187
24198W        W67115  21.523  16.603   3.531  0.1944  0.0871  0.5451
24199W        W67116  21.905  15.754   4.954  0.1117 -0.0094  0.1588
24200W        W67117  23.914  16.212   6.901 -0.0593 -0.3754 -0.0912
24201W        W67118  23.173  14.361   4.948 -0.0951 -0.0984 -0.1408
24202W        W67119  24.096  14.961   5.919 -0.1583  0.0640 -0.1342
24203W        W67120  18.366  16.462   4.485 -0.0244 -0.1290 -0.0125
24204W        W67121  25.849  14.149   4.848 -0.0141 -0.2844  0.0093
24205W        W67122  22.208  17.679   4.883  0.3158 -0.2221  0.2142
24206W        W67123  21.087  15.838   6.715 -0.0573 -0.0338  0.3666
24207W        W67124  22.584  16.848   2.608  0.1878  0.2549  0.1158
24208W        W67125  23.682  15.045   6.178 -0.0543  0.1168  0.0470
24209W        W67126  24.286  14.413   5.083 -0.0685  0.0869  0.1558
24210W        W67127  22.315  16.418   3.379 -0.1837 -0.0812 -0.0893
24211W        W67128  24.272  16.071   5.300 -0.0269  0.2403 -0.1608
24212W        W67129  22.158  16.723   5.181  0.0024 -0.0043  0.2283
24213W        W67130  17.789  15.933   3.220  0.3577  0.0045 -0.0103
24214W        W67131  26.399  16.962   7.165 -0.0972  0.1801 -0.0069
24215W        W67132  25.787  16.755   5.250  0.4405 -0.0912  0.2073
24216W        W67133  21.927  16.052   4.070  0.0172 -0.0954  0.0472
24217W        W67134  21.569  15.335   7.277  0.1177 -0.1984 -0.0284
24218W        W67135  23.362  15.165   5.733  0.0885  0.1381 -0.0501
24219W        W67136  22.854  15.916   4.063  0.2536  0.0712  0.1951
24220W        W67137  22.884  14.504   4.296 -0.2578  0.0556  0.0687
24221W        W67138  21.710  16.867   3.913 -0.1591  0.1581 -0.2527
24222W        W67139  20.119  18.182   8.770  0.0460 -0.0360 -0.2221
24223W        W67140  21.363  14.924   4.344 -0.0497  0.0279 -0.1590
24224W        W67141  20.096  18.417   4.381 -0.2019  0.0751 -0.0349
24225W        W67142  23.109  18.103   2.207 -0.3289 -0.0249  0.2664
24226W        W67143  24.288  17.824   3.305  0.1603 -0.0627 -0.1371
24227W        W67144  24.281  17.769   5.426  0.1696 -0.1966  0.0388
24228W        W67145  22.487  17.068   2.165 -0.1161 -0.1338  0.0524
24229W        W67146  22.172  18.210   4.685 -0.1728 -0.1885 -0.0047
24230W        W67147  21.714  14.027   3.348  0.0857 -0.0577  0.0942
24231W        W67148  25.681  18.586   3.055 -0.0656 -0.1579 -0.0465
24232W        W67149  22.002  16.104   4.567  0.1106  0.0206  0.0013
24233W        W67150  25.094  15.003   6.598 -0.1524 -0.1981 -0.1243
24234W        W67151  22.913  14.474   3.237 -0.2930 -0.4153 -0.0790
24235W        W67152  25.440  16.395   5.358 -0.1885 -0.1636 -0.1475
24236W        W67153  24.632  15.513   3.854 -0.2840  0.3206  0.3653
24237W        W67154  23.597  18.001   7.174  0.0151  0.0522 -0.1207
24238W        W67155  23.805  15.882   5.599  0.0377  0.1883 -0.0315
24239W        W67156  23.351  17.090   3.873 -0.0577  0.1468 -0.2249
24240W        W67157  22.899  15.693   5.929  0.0557  0.0557  0.2720
24241W        W67158  24.499  14.153   8.417  0.0576  0.1367 -0.0478
24242W        W67159  19.570  17.584   7.111  0.1261  0.0296 -0.0707
24243W        W67160  24.183  19.718   3.450  0.1780  0.2436 -0.0697
24244W        W67161  21.319  15.101   3.926 -0.0739 -0.2403 -0.0616
24245W        W67162  21.684  15.360   4.647 -0.0300  0.3252 -0.1800
24246W        W67163  25.432  14.418   4.352  0.1636 -0.2671 -0.0371
24247W        W67164  18.702  16.772   3.202 -0.3517 -0.0187  0.0145
24248W        W67165  23.258  16.113   5.888  0.1217 -0.0471  0.2143
24249W        W67166  23.213  19.234   2.928  0.1943 -0.0288  0.0329
24250W        W67167  21.842  17.694   3.909 -0.1331  0.0847 -0.1940
24251W        W67168  23.265  18.729   4.184 -0.1733  0.0518  0.0155
24252W        W67169  20.859  13.641   5.034  0.2113  0.0260  0.0135
24253W        W67170  23.980  17.169   4.525 -0.0045  0.4340 -0.2104
24254W        W67171  21.645  17.038   6.039 -0.1988  0.1521 -0.1474
24255W        W67172  24.238  16.648   5.197  0.1878  0.1434  0.1622
24256W        W67173  20.411  16.694   4.004 -0.1350 -0.2212 -0.1935
24257W        W67174  25.127  16.036   5.140 -0.0747 -0.1412  0.1304
24258W        W67175  22.431  15.587   6.879 -0.2509 -0.0882 -0.1368
24259W        W67176  21.806  15.488   6.306 -0.2409 -0.2014 -0.0143
24260W        W67177  23.331  15.335   3.715 -0.2790  0.0101 -0.1802
24261W        W67178  24.939  15.622   5.894  0.0064  0.1790 -0.3068
24262W        W67179  22.080  17.219   5.631 -0.1516  0.0125 -0.3110
24263W        W67180  24.694  17.364   5.453  0.0991 -0.1221 -0.0571
24264W        W67181  21.837  14.624   4.514 -0.0359  0.1374  0.4567
24265W        W67182  22.601  16.398   5.684 -0.0908  0.2002  0.2136
24266W        W67183  21.224  16.131   5.409  0.3226  0.0564  0.0107
24267W        W67184  22.600  15.903   6.497 -0.1379 -0.2898 -0.2503
24268W        W67185  24.421  17.611   6.350 -0.0495  0.0300  0.0339
24269W        W67186  22.628  14.508   4.850 -0.1176  0.1198 -0.0016
24270W        W67187  23.091  19.114   1.306  0.0075  0.0675  0.1988
24271W        W67188  24.770  16.186   4.562  0.3588  0.1722 -0.2197
24272W        W67189  20.446  15.417   2.667  0.1317  0.0509 -0.1310
24273W        W67190  23.392  13.735   3.513 -0.1765 -0.0794  0.3681
24274W        W67191  25.559  16.072   7.058  0.2467 -0.0747 -0.2339
24275W        W67192  19.240  16.351   4.801 -0.2212  0.0582  0.4352
24276W        W67193  23.083  17.318   7.792 -0.2216  0.1105  0.1125
24277W        W67194  23.528  16.807   6.327  0.1466 -0.0119 -0.0432
24278W        W67195  21.304  14.339   4.064 -0.0904  0.1261  0.2912
24279W        W67196  21.841  16.588   4.728  0.0063 -0.0633 -0.1459
24280W        W67197  19.891  15.245   2.986  0.1565  0.1307  0.0965
24281W        W67198  24.489  15.660   5.426 -0.1774 -0.2016  0.2532
24282W        W67199  25.353  14.188   4.828  0.1120 -0.1750 -0.0580
24283W        W67200  23.143  18.632   2.166 -0.2115 -0.0693  0.0632
24284W        W67201  24.294  14.888   4.337 -0.0531  0.0849  0.1458
24285W        W67202  23.315  17.482   6.483 -0.0247 -0.0292  0.1494
24286W        W67203  22.541  18.417   4.451  0.2716  0.2544 -0.2458
24287W        W67204  20.498  15.958   3.415  0.3566  0.0884 -0.0914
24288W        W67205  22.137  17.304   6.250  0.2749  0.0587 -0.0149
24289W        W67206  23.859  15.360   5.818  0.1853  0.0648 -0.1875
24290W        W67207  21.321  18.394   3.272 -0.0869  0.1239 -0.3141
24291W        W67208  25.310  18.526   5.492  0.1498  0.2317  0.0673
24292W        W67209  23.741  16.989   4.131  0.0665 -0.0604  0.5614
24293W        W67210  24.211  16.280   6.369  0.2184 -0.0586 -0.0815
24294W        W67211  22.519  16.349   4.674 -0.0379 -0.0571  0.1246
24295W        W67212  24.424  14.437   4.555  0.1858 -0.1356 -0.2147
24296W        W67213  23.360  16.067   3.277  0.0981 -0.0161  0.0014
24297W        W67214  21.397  17.376   5.217 -0.1123  0.0183  0.1682
24298W        W67215  21.501  16.278   2.966  0.2668 -0.0401 -0.0106
24299W        W67216  20.011  15.953   4.261 -0.1685 -0.0724  0.0967
24300W        W67217  19.907  18.160   6.319 -0.2333  0.1007  0.1064
24301W        W67218  22.289  14.287   7.611 -0.1302 -0.0256 -0.0261
24302W        W67219  23.385  15.637   5.750  0.0545 -0.3432 -0.3142
24303W        W67220  20.874  15.178   4.297  0.2258  0.0073 -0.3209
24304W        W67221  22.713  13.526   5.162 -0.0693 -0.1033 -0.1430
24305W        W67222  23.431  18.915   2.461  0.2094 -0.1480 -0.0286
24306W        W67223  23.400  14.997   4.844 -0.0211 -0.1568 -0.2551
24307W        W67224  20.097  14.450   4.600 -0.1930 -0.0740  0.1509
24308W        W67225  23.520  17.903   4.765 -0.0482  0.4163 -0.0902
24309W        W67226  25.594  18.779   4.745 -0.4732  0.0073  0.4568
24310W        W67227  23.875  15.994   3.064  0.0935  0.0193  0.2963
24311W        W67228  24.854  15.284   7.206  0.1734 -0.2022 -0.1428
24312W        W67229  20.920  16.928   3.373 -0.0201  0.0402  0.0182
24313W        W67230  23.512  15.896   6.765  0.0885 -0.0000 -0.0503
24314W        W67231  22.976  16.088   6.795 -0.1891  0.1913 -0.1507
24315W        W67232  21.523  14.714   2.795  0.0737  0.0166  0.1905
24316W        W67233  21.934  16.418   3.700 -0.1148 -0.1867  0.0825
24317W        W67234  21.342  18.368   4.111  0.0455 -0.1926 -0.2960
24318W        W67235  22.364  17.642   3.305 -0.1068 -0.1399 -0.1174
24319W        W67236  19.758  17.498   5.489  0.2419 -0.1404 -0.2715
24320W        W67237  23.761  16.857   7.760  0.2358 -0.2255 -0.1960
24321W        W67238  20.158  16.337   7.086 -0.0956  0.5347  0.0594
24322W        W67239  23.844  17.502   5.604  0.1541  0.1455  0.0389
24323W        W67240  22.112  15.969   6.258 -0.0452  0.2239 -0.1837
24324W        W67241  25.170  15.752   1.965 -0.4281  0.0675 -0.0814
24325W        W67242  24.650  14.066   5.945 -0.0436 -0.1816  0.2266
24326W        W67243  23.903  16.552   4.193  0.1749  0.2081  0.2815
24327W        W67244  22.226  14.999   5.953 -0.2976 -0.0304 -0.0014
24328W        W67245  21.622  18.697   6.969 -0.0580  0.0855 -0.0514
24329W        W67246  25.496  15.701   6.742 -0.0254  0.1034  0.0052
24330W        W67247  22.461  15.331   4.634  0.1033  0.0141  0.4191
24331W        W67248  22.737  16.730   3.909 -0.1251  0.2345  0.1645
24332W        W67249  24.700  17.951   6.059 -0.0052  0.1985  0.0143
24333W        W67250  21.198  15.752   5.817  0.1984  0.1445  0.2118
24334W        W67251  22.414  16.251   3.804  0.2644  0.0338  0.2170
24335W        W67252  23.300  17.674   8.034  0.3068 -0.0911  0.5423
24336W        W67253  24.597  17.791   3.714 -0.0034 -0.1448 -0.0405
24337W        W67254  23.582  15.391   7.900 -0.3032  0.0904 -0.0830
24338W        W67255  23.177  16.781   4.232  0.1977  0.0456  0.1582
24339W        W67256  24.727  16.627   3.894 -0.0275 -0.1664 -0.1275
24340W        W67257  21.468  19.054   4.556  0.3208 -0.0371 -0.3817
24341W        W67258  23.299  17.059   8.275  0.0537  0.2561  0.2704
24342W        W67259  22.840  18.752   5.257 -0.1199 -0.1112  0.3218
24343W        W67260  24.868  18.379   5.321 -0.3038  0.1008 -0.1464
24344W        W67261  21.111  15.927   4.801  0.0662  0.0755  0.1688
24345W        W67262  21.684  15.976   2.462  0.0438 -0.0909 -0.1035
24346W        W67263  21.346  16.315   4.528 -0.1145 -0.1838 -0.2645
24347W        W67264  24.213  15.940   4.348  0.2558  0.3134 -0.2628
24348W        W67265  22.174  14.287   4.673 -0.2211  0.3033 -0.2162
24349W        W67266  23.809  16.323   4.904 -0.0725  0.3109  0.0334
24350W        W67267  23.818  17.105   3.686 -0.2398 -0.0455  0.4431
24351W        W67268  23.424  17.406   4.516 -0.0879 -0.0741  0.2171
24352W        W67269  20.400  16.505   9.125 -0.1920 -0.0424  0.0683
24353W        W67270  22.996  15.979   7.743  0.1766 -0.1203 -0.1730
24354W        W67271  23.208  15.610   8.230  0.1382 -0.0187 -0.2027
24355W        W67272  24.501  13.551   6.833 -0.0320 -0.2237  0.0801
24356W        W67273  21.566  14.825  10.133  0.1862  0.4183 -0.4151
24357W        W67274  25.197  15.893   7.887 -0.0418  0.2609  0.3158
24358W        W67275  26.477  17.393   9.092 -0.0434 -0.0847 -0.1504
24359W        W67276  26.535  17.128   8.628  0.0365  0.2545  0.1440
24360W        W67277  23.652  15.792   6.130 -0.2903 -0.0827  0.2571
24361W        W67278  22.899  17.213   7.370  0.0818 -0.0404 -0.3364
24362W        W67279  22.501  15.482   5.579  0.0427 -0.1354  0.1192
24363W        W67280  21.260  14.326   8.300 -0.2133 -0.0695  0.1899
24364W        W67281  24.862  14.148   8.030 -0.1304 -0.0927 -0.3113
24365W        W67282  23.061  15.459   7.750  0.0277  0.0175  0.5012
24366W        W67283  22.463  14.238   8.061 -0.0916  0.0253  0.1676
24367W        W67284  23.295  15.232   9.645 -0.2966 -0.1181  0.2815
24368W        W67285  23.968  21.228   9.174 -0.3141  0.0481 -0.1412
24369W        W67286  21.485  15.590   9.935  0.0831  0.1085 -0.2572
24370W        W67287  22.286  16.394   6.067  0.3573  0.1279 -0.0207
24371W        W67288  20.980  17.409   7.298 -0.0644 -0.1163 -0.1075
24372W        W67289  22.188  16.662   6.940 -0.0200  0.2907  0.0113
24373W        W67290  22.362  17.856   9.210 -0.1155  0.1033 -0.2189
24374W        W67291  25.131  14.350   9.082 -0.2023 -0.1727 -0.1035
24375W        W67292  22.469  17.061   9.401  0.0120  0.0742 -0.2699
24376W        W67293  22.824  15.364   8.705 -0.0094  0.0513 -0.0385
24377W        W67294  24.799  17.978   8.040  0.1267  0.1886  0.0997
24378W        W67295  22.229  15.217   6.537 -0.1438 -0.5415 -0.2638
24379W        W67296  20.651  18.576   7.662  0.2634 -0.0492 -0.0433
24380W        W67297  22.432  15.104   9.060  0.0001 -0.3238 -0.1144
24381W        W67298  25.948  16.135   7.433  0.0326  0.1749 -0.1102
24382W        W67299  21.969  15.092   6.935  0.2834 -0.2651  0.0400
24383W        W67300  20.422  14.610  10.258 -0.2197  0.0509 -0.1634
24384W        W67301  23.515  16.227   9.714  0.1992 -0.2552 -0.0760
24385W        W67302  21.645  15.840   7.499 -0.0204  0.0403 -0.0263
24386W        W67303  23.069  16.105   8.267  0.2452  0.0339 -0.2369
24387W        W67304  21.124  17.420   8.767 -0.2086  0.1411  0.0826
24388W        W67305  21.710  16.975   5.203  0.1671 -0.3480 -0.0043
24389W        W67306  24.033  13.672   6.568  0.2255  0.1530 -0.0189
24390W        W67307  22.204  15.794   5.334 -0.1559  0.1622  0.1494
24391W        W67308  23.593  14.901   7.817 -0.1440 -0.0336 -0.0859
24392W        W67309  21.027  15.737  10.027  0.1171  0.4076  0.0245
24393W        W67310  23.989  17.106   9.326 -0.0376  0.1053 -0.2928
24394W        W67311  21.509  18.187   9.164 -0.1525  0.0440 -0.1503
24395W        W67312  23.393  14.680   6.873  0.1104 -0.1870 -0.0131
24396W        W67313  26.773  16.721   7.433 -0.1170 -0.1688 -0.1253
24397W        W67314  23.909  16.064   9.287  0.1037  0.0774 -0.2188
24398W        W67315  20.246  15.803   8.379 -0.1412  0.1104 -0.2855
24399W        W67316  25.074  15.456   6.418 -0.0513  0.2196  0.1337
24400W        W67317  25.152  17.663   7.721  0.1149  0.2613  0.0074
24401W        W67318  23.667  17.249   6.715 -0.0254 -0.1413 -0.2743
24402W        W67319  21.890  13.958   5.803  0.2304  0.1978  0.1930
24403W        W67320  21.231  13.972   7.031  0.2266  0.2525 -0.1010
24404W        W67321  24.965  14.729   8.859  0.1847  0.0587  0.2596
24405W        W67322  20.148  15.106   7.616 -0.0252 -0.2603 -0.2520
24406W        W67323  28.214  16.761   8.523 -0.0790 -0.1509 -0.4440
24407W        W67324  25.602  16.563   7.269 -0.0459 -0.1328 -0.2517
24408W        W67325  21.514  15.974   8.535 -0.0170 -0.3800 -0.4329
24409W        W67326  25.278  12.896   7.843  0.2588 -0.2420 -0.0281
24410W        W67327  20.329  14.744   6.544  0.5628 -0.1555  0.0389
24411W        W67328  21.488  17.187   7.351 -0.0862 -0.1276  0.1928
24412W        W67329  24.030  16.046   8.469 -0.1251  0.0981  0.2404
24413W        W67330  25.529  14.264   6.793 -0.1402  0.1244  0.2768
24414W        W67331  22.830  17.619   9.450 -0.0025  0.2352 -0.2168
24415W        W67332  22.664  16.958   7.020  0.1406 -0.1016  0.0006
24416W        W67333  21.775  16.868   8.623  0.0813  0.2038 -0.0907
24417W        W67334  20.833  15.348   5.815  0.0047  0.0412  0.5956
24418W        W67335  23.875  15.183   8.831  0.1029 -0.0247 -0.1787
24419W        W67336  24.448  15.851   8.598 -0.2135 -0.0999 -0.0309
24420W        W67337  23.274  15.445   6.180  0.0286  0.0831  0.2929
24421W        W67338  21.952  14.958   8.163 -0.1466  0.0851 -0.0856
24422W        W67339  22.483  15.057   8.446  0.0573  0.3860 -0.1627
24423W        W67340  23.895  16.642   7.312 -0.0339 -0.1259 -0.3725
24424W        W67341  24.539  13.588   8.667 -0.1584 -0.1230 -0.1020
24425W        W67342  24.721  16.281   6.793 -0.0545 -0.0204 -0.2030
24426W        W67343  20.248  15.942   9.988  0.0461 -0.0191  0.2748
24427W        W67344  21.506  15.126   6.626  0.0454 -0.0891  0.1802
24428W        W67345  21.846  13.524   9.137 -0.3056  0.0765  0.1380
24429W        W67346  21.810  14.761   7.735 -0.1397  0.0121 -0.4509
24430W        W67347  24.925  13.020   8.828  0.1158 -0.3039 -0.1309
24431W        W67348  21.588  16.818   6.987 -0.0497 -0.0963  0.4309
24432W        W67349  22.457  16.982   6.607  0.2094  0.1844 -0.1216
24433W        W67350  22.413  16.515   7.713 -0.3262 -0.1790  0.0391
24434W        W67351  24.787  17.760   8.538  0.0800 -0.0404 -0.0625
24435W        W67352  24.624  16.819   8.857  0.2487 -0.0001  0.0621
24436W        W67353  20.561  15.241  10.082 -0.3793  0.0803  0.0149
24437W        W67354  24.478  14.950   8.756 -0.0315 -0.0559 -0.1279
24438W        W67355  22.074  18.035   7.390  0.0847  0.0935 -0.4607
24439W        W67356  23.231  16.565   9.048  0.0321 -0.1903  0.2084
24440W        W67357  22.637  15.212   7.744 -0.3188 -0.1617  0.2920
24441W        W67358  24.910  15.714   8.795  0.1000 -0.3620 -0.2928
24442W        W67359  25.795  15.310   9.104  0.0076 -0.0287  0.1129
24443W        W67360  23.190  15.780   9.619 -0.2670  0.0012 -0.2472
24444W        W67361  24.485  15.613   7.218  0.2565  0.4456  0.1266
24445W        W67362  20.861  15.727   5.408 -0.2198 -0.1773 -0.0252
24446W        W67363  24.053  16.244   7.947 -0.2093 -0.3626  0.1759
24447W        W67364  21.103  17.136   7.776  0.1996  0.0023  0.0193
24448W        W67365  21.890  14.971   6.301  0.0041  0.1257 -0.3662
24449W        W67366  22.370  17.433   8.211 -0.3477 -0.2919 -0.1420
24450W        W67367  22.587  15.881   9.656 -0.1266  0.1092  0.2295
24451W        W67368  21.072  15.334   6.736 -0.0435 -0.0038 -0.2546
24452W        W67369  23.203  14.525   8.394  0.0357  0.1030  0.1742
24453W        W67370  25.227  14.249   7.478 -0.0607 -0.1840 -0.4279
24454W        W67371  24.018  15.765   7.488 -0.2716 -0.0719 -0.1923
24455W        W67372  23.809  16.270   5.917  0.0457 -0.0986  0.0460
24456W        W67373  24.247  14.833   6.480  0.0780  0.1000 -0.2227
24457W        W67374  24.428  16.824   6.506  0.1716 -0.0910 -0.1849
24458W        W67375  22.126  14.024   8.874  0.3277  0.0459  0.1592
24459W        W67376  24.735  14.648   6.394  0.2791  0.2075  0.2642
24460W        W67377  26.289  18.413   7.953 -0.0387  0.1360 -0.2068
24461W        W67378  21.293  17.618   7.680 -0.1557  0.1137  0.2878
24462W        W67379  23.373  15.302   8.717  0.3424  0.1748  0.1470
24463W        W67380  22.612  14.691   8.798 -0.1360 -0.1253  0.0449
24464W        W67381  22.999  14.615   6.566 -0.1030 -0.0717  0.3697
24465W        W67382  22.734  14.581   9.300 -0.0917 -0.1483 -0.0473
24466W        W67383  18.375  17.120   6.370  0.1601 -0.1653 -0.0534
24467W        W67384  28.377  15.503   8.569  0.0044 -0.0545 -0.1277
24468W        W67385  24.631  16.746   8.322  0.2469  0.2069  0.0859
24469W        W67386  24.873  15.951   6.275  0.0124  0.1285  0.0771
24470W        W67387  23.915  15.614   6.992  0.1620 -0.1839 -0.0902
24471W        W67388  22.972  14.161   5.613  0.2463 -0.1824  0.2020
24472W        W67389  23.572  13.784   8.672  0.0709 -0.0527  0.0710
24473W        W67390  20.520  15.983   8.922  0.1863  0.1910 -0.0926
24474W        W67391  24.337  17.517   7.249  0.4208 -0.0612  0.2298
24475W        W67392  22.939  15.341   7.252  0.0523  0.1057  0.0511
24476W        W67393  20.124  17.304   8.549 -0.1175 -0.0759  0.1952
24477W        W67394  20.526  16.312   7.398 -0.0665 -0.1110  0.1628
24478W        W67395  21.735  15.304   9.625 -0.0343 -0.2904 -0.0898
24479W        W67396  23.990  17.139   5.885  0.2431  0.0373  0.0735
24480W        W67397  22.449  17.597   6.555 -0.0972 -0.0363 -0.1305
24481W        W67398  25.321  15.994   8.356 -0.3585  0.2129 -0.2535
24482W        W67399  22.665  17.984   6.850 -0.2435 -0.0095  0.0442
24483W        W67400  22.809  11.192   9.775 -0.2365  0.1468  0.0715
24484W        W67401  21.393  16.701   7.436 -0.1471 -0.0469  0.2282
24485W        W67402  23.632  13.294   5.854 -0.2348 -0.1211 -0.0919
24486W        W67403  21.017  15.130   8.822 -0.0302  0.1646  0.3009
24487W        W67404  22.802  15.494   6.384  0.0684  0.0249 -0.0119
24488W        W67405  23.375  16.341   8.588  0.0388 -0.0311  0.0188
24489W        W67406  23.494  15.009  12.252 -0.1979  0.1889 -0.0284
24490W        W67407  25.262  15.277   6.923 -0.0401  0.0985 -0.1215
24491W        W67408  20.991  14.654   8.835  0.1434  0.0242 -0.4051
24492W        W67409  22.928  13.983   7.663  0.1214  0.0762 -0.0662
24493W        W67410  21.972  15.561   7.149 -0.0810  0.4749  0.3313
24494W        W67411  26.383  14.860   8.479 -0.1618  0.0105 -0.2305
24495W        W67412  23.528  15.835   8.644  0.0821  0.1664  0.3832
24496W        W67413  21.122  16.440   6.900  0.1510  0.1379  0.1376
24497W        W67414  25.813  15.477   8.590  0.1831 -0.0202  0.3074
24498W        W67415  22.401  16.124   6.934  0.1433 -0.0803 -0.0845
24499W        W67416  23.486  15.844   7.679  0.0681  0.1334  0.2490
24500W        W67417  22.181  15.348   8.730 -0.4222  0.2057  0.0406
24501W        W67418  24.188  16.817   7.983 -0.0178 -0.0354 -0.1794
24502W        W67419  24.570  14.498   8.995 -0.0299 -0.0996 -0.1977
24503W        W67420  21.362  15.355   9.129 -0.1004 -0.0649 -0.1269
24504W        W67421  23.564  14.148   9.341  0.1580 -0.0458  0.3223
24505W        W67422  24.312  15.108   7.205  0.0466 -0.1837  0.1096
24506W        W67423  20.749  15.671   7.462  0.1730 -0.0656 -0.0853
24507W        W67424  27.028  16.342   7.695 -0.0997  0.4580  0.0828
24508W        W67425  22.394  17.056   7.495 -0.2393 -0.1929 -0.0156
24509W        W67426  20.524  15.595   9.663 -0.1235 -0.0524 -0.1457
24510W        W67427  22.428  17.624   7.364 -0.4201  0.2877 -0.1901
24511W        W67428  24.696  14.611   8.362 -0.0157  0.0557  0.2286
24512W        W67429  22.787  16.168   6.118  0.1107 -0.2907 -0.1814
24513W        W67430  21.051  14.855   6.666 -0.1516 -0.1899 -0.2629
24514W        W67431  23.902  18.504   8.590  0.1154  0.2831 -0.2626
24515W        W67432  25.998  14.674   5.886  0.2204  0.0816 -0.0275
24516W        W67433  22.341  18.126   5.241 -0.1332  0.0560  0.0572
24517W        W67434  24.335  15.938   6.901  0.1559  0.1109 -0.0046
24518W        W67435  23.849  15.218   7.352 -0.1202 -0.2722  0.1802
24519W        W67436  21.829  17.574   7.288  0.2508  0.3930 -0.1970
24520W        W67437  25.679  15.654   8.171  0.0174  0.1133  0.1677
24521W        W67438  24.807  15.716   6.818  0.3434  0.2905  0.0572
24522W        W67439  22.403  14.416   7.055  0.0706 -0.1025  0.3110
24523W        W67440  22.148  17.295   9.716 -0.1156  0.0432 -0.3011
24524W        W67441  25.275  14.927   7.419 -0.1340  0.0491  0.1370
24525W        W67442  22.765  16.905   7.767  0.0114  0.0026  0.0761
24526W        W67443  25.907  13.936   7.206 -0.1177 -0.1902 -0.0055
24527W        W67444  23.125  16.549   9.559 -0.1514 -0.0132  0.0449
24528W        W67445  24.448  18.242   9.577  0.0305 -0.0913 -0.0816
24529W        W67446  20.811  16.164   5.783 -0.3533 -0.2504 -0.2737
24530W        W67447  23.074  15.788   8.842 -0.1185 -0.0849  0.3144
24531W        W67448  27.457  16.425   8.605  0.1390 -0.1444 -0.0202
24532W        W67449  22.842  12.742   9.523  0.1558  0.0284 -0.1493
24533W        W67450  25.621  16.213   8.062  0.1030  0.0991 -0.0311
24534W        W67451  25.024  14.744   5.643  0.1404  0.1742  0.0327
24535W        W67452  23.197  17.954   8.520  0.0165  0.5547  0.1483
24536W        W67453  26.014  16.139   6.950  0.3095  0.2530 -0.0739
24537W        W67454  24.230  14.480   8.064 -0.0211  0.4374  0.3300
24538W        W67455  20.388  13.661   9.609  0.1523 -0.1361 -0.0782
24539W        W67456  22.458  15.921   5.851  0.2515  0.1625 -0.2215
24540W        W67457  20.134  15.424   6.087 -0.0689 -0.1884 -0.0106
24541W        W67458  23.858  14.346   7.773  0.0980  0.2158 -0.3837
24542W        W67459  24.020  15.232   8.031  0.2903  0.3082 -0.1072
24543W        W67460  21.234  13.554  10.096  0.1082 -0.0571 -0.0139
24544W        W67461  22.394  14.792   7.879  0.1399 -0.4057 -0.2690
24545W        W67462  21.355  17.688   6.029  0.0656 -0.0260  0.1646
24546W        W67463  23.236  14.510   7.895 -0.3895  0.0684 -0.2176
24547W        W67464  24.047  16.707   6.085 -0.3893 -0.0987 -0.0143
24548W        W67465  22.660  17.439   7.774  0.0097  0.1925 -0.2982
24549W        W67466  23.002  17.083   9.664  0.1140  0.3225 -0.0888
24550W        W67467  20.663  15.668  11.032  0.1452  0.0297 -0.2524
24551W        W67468  22.946  16.288   8.743  0.1775  0.0217  0.2120
24552W        W67469  22.243  15.648   9.190 -0.1538 -0.2054 -0.2228
24553W        W67470  25.886  15.337   7.674 -0.2380 -0.0258 -0.0057
24554W        W67471  24.447  16.540   7.623  0.3231  0.0820  0.1733
24555W        W67472  21.371  16.998   8.281 -0.2186 -0.1742 -0.2731
24556W        W67473  26.124  16.145   7.929  0.0379  0.1487 -0.0316
24557W        W67474  21.120  16.933   8.686  0.3565 -0.3336 -0.0530
24558W        W67475  23.987  14.864   8.461 -0.3958 -0.0357 -0.0050
24559W        W67476  23.346  15.704   7.235  0.1120  0.0526  0.0733
24560W        W67477  24.636  16.603   6.135 -0.0423 -0.3292 -0.3012
24561W        W67478  19.634  17.513   9.527  0.0879  0.2889  0.7353
24562W        W67479  21.024  16.855   6.567 -0.0670 -0.0734  0.2131
24563W        W67480  25.306  17.206   8.508 -0.1306  0.4519 -0.0616
24564W        W67481  23.683  15.449   8.369  0.0850  0.1943 -0.3328
24565W        W67482  26.435  17.647   8.186  0.0708  0.1592  0.0461
24566W        W67483  23.752  14.565   9.122  0.0152  0.0645 -0.2774
24567W        W67484  21.209  16.672   7.994  0.0966 -0.0274 -0.1493
24568W        W67485  21.999  16.750   5.695 -0.1267  0.0581  0.0182
24569W        W67486  24.948  17.668   7.252 -0.1261  0.1979 -0.2275
24570W        W67487  21.889  17.124   8.205  0.2419 -0.1181  0.0062
24571W        W67488  24.554  14.832   5.037  0.1317  0.0470  0.0127
24572W        W67489  25.141  14.705   6.996  0.0963 -0.1841 -0.4965
24573W        W67490  24.544  12.420   9.397 -0.2716 -0.0718 -0.2665
24574W        W67491  22.680  15.731   7.963 -0.0320  0.3424 -0.0253
24575W        W67492  21.412  14.736   6.299 -0.0701 -0.0419  0.0701
24576W        W67493  24.850  16.849   7.621 -0.0628 -0.3576  0.0979
24577W        W67494  21.253  15.847   8.930 -0.0102  0.1074 -0.1187
24578W        W67495  23.543  18.342   9.403  0.0312  0.0258  0.1346
24579W        W67496  26.103  15.285  11.012 -0.1183  0.5573  0.3808
24580W        W67497  21.896  16.352   6.723 -0.1776  0.0855  0.0718
24581W        W67498  24.339  15.371   7.612 -0.1511  0.0666  0.0809
24582W        W67499  23.352  15.118   7.402 -0.2615  0.2273 -0.1163
24583W        W67500  20.910  16.580   7.398 -0.0580 -0.0978  0.3032
24584W        W67501  23.683  16.689   9.200 -0.4576 -0.1866  0.1713
24585W        W67502  20.923  14.919   7.729 -0.1201 -0.1586  0.0571
24586W        W67503  24.301  14.378   7.399  0.1022 -0.1276 -0.1126
24587W        W67504  21.717  18.992   9.685  0.0329 -0.2472  0.1242
24588W        W67505  24.165  14.893   9.141  0.0622  0.3084  0.0343
24589W        W67506  23.356  14.180   6.644  0.0157  0.2417 -0.0456
24590W        W67507  22.898  16.185   9.306  0.0341 -0.1552  0.0352
24591W        W67508  22.558  20.225   8.989 -0.0486 -0.2420 -0.1854
24592W        W67509  23.282  16.779   7.776 -0.0242  0.0848  0.4453
24593W        W67510  24.670  15.238   6.300  0.3456  0.1504  0.0941
24594W        W67511  22.850  14.828   7.197  0.0578 -0.1112  0.1574
24595W        W67512  22.842  13.340   6.315 -0.0914 -0.3243 -0.1000
24596W        W67513  21.873  15.133   9.134  0.0788  0.0934  0.2850
24597W        W67514  21.122  18.203   9.482  0.0107 -0.3279 -0.0563
24598W        W67515  21.484  14.887   4.823 -0.0111  0.1800 -0.1019
24599W        W67516  24.824  16.970   5.836 -0.1361 -0.2938 -0.0129
24600W        W67517  25.286  16.357   8.875  0.3135 -0.1040  0.2688
24601W        W67518  24.528  17.769   6.846 -0.1798  0.1508 -0.0837
24602W        W67519  23.752  15.462   9.357 -0.1266 -0.1686  0.2749
24603W        W67520  23.056  16.050  10.019 -0.0925 -0.0761  0.0550
24604W        W67521  18.493  15.228  11.070 -0.1706 -0.0447 -0.0646
24605W        W67522  24.974  17.440   8.158 -0.1011  0.0522  0.1459
24606W        W67523  24.910  16.175   8.575  0.0606 -0.1015 -0.0734
24607W        W67524  22.030  14.972   9.935  0.1039  0.2805 -0.0838
24608W        W67525  21.182  16.973  10.250  0.0193  0.0356  0.0632
24609W        W67526  25.183  16.537  12.468  0.0055  0.2807  0.1660
24610W        W67527  24.740  15.362   8.442 -0.0390 -0.0051 -0.5025
24611W        W67528  22.651  16.377   7.247 -0.1845  0.1873  0.1206
24612W        W67529  21.926  17.017   6.706  0.0264 -0.1503  0.0674
24613W        W67530  23.118  15.572   6.826 -0.1171 -0.0914 -0.1083
24614W        W67531  22.626  16.213   8.021 -0.0810  0.0836  0.4978
24615W        W67532  22.910  16.933   9.124 -0.4674  0.1347 -0.0687
24616W        W67533  25.180  16.410   8.118  0.1656 -0.1618 -0.3629
24617W        W67534  23.219  13.854   6.249  0.0492  0.0285  0.0063
24618W        W67535  26.286  15.749   7.324 -0.0325  0.0991  0.1747
24619W        W67536  20.865  16.274   7.787  0.0149  0.1791  0.1778
24620W        W67537  24.056  14.442   8.699 -0.0707  0.1139  0.0826
24621W        W67538  24.076  14.192   9.128  0.1709  0.0453  0.0803
24622W        W67539  20.020  14.536   9.382 -0.1448 -0.0536  0.0955
24623W        W67540  20.137  16.732   7.767  0.0429  0.3239 -0.1481
24624W        W67541  23.185  16.411   6.321  0.1929 -0.2748 -0.3186
24625W        W67542  21.965  14.612   7.219  0.0754  0.0459  0.0063
24626W        W67543  22.426  15.304   9.565  0.2413 -0.1239  0.0842
24627W        W67544  21.956  16.254   7.744 -0.0180  0.1739 -0.2711
24628W        W67545  23.206  15.423   9.164 -0.1812 -0.1583  0.2504
24629W        W67546  21.780  14.056   9.179  0.3006  0.2098  0.2227
24630W        W67547  20.332  14.223   8.998 -0.1691 -0.0456 -0.1289
24631W        W67548  24.700  17.518   7.631 -0.1138 -0.1316 -0.0090
24632W        W67549  25.141  16.714   8.524 -0.2368  0.0130  0.1098
24633W        W67550  22.502  13.730   7.970  0.1024  0.0646  0.1938
24634W        W67551  21.742  16.416   6.185 -0.1475 -0.2562 -0.0822
24635W        W67552  20.917  14.292   7.862 -0.2829 -0.0159  0.1077
24636W        W67553  25.359  15.423   7.615 -0.2372  0.0004 -0.0700
24637W        W67554  23.449  16.956   7.364  0.2466 -0.0752  0.2907
24638W        W67555  24.117  17.941   6.510  0.1185  0.0088 -0.3163
24639W        W67556  23.327  13.088   6.304 -0.1734  0.0313  0.3594
24640W        W67557  23.721  14.720   7.346  0.0433  0.1313 -0.4131
24641W        W67558  25.695  15.032   7.205  0.2551  0.1538 -0.0492
24642W        W67559  26.916  15.225   9.398 -0.0316  0.1371 -0.2870
24643W        W67560  23.397  17.540   7.055 -0.0479  0.0011 -0.2285
24644W        W67561  25.896  17.113   7.838 -0.1172 -0.0738 -0.0610
24645W        W67562  21.152  14.333   6.624  0.0193 -0.1413 -0.2105
24646W        W67563  23.513  14.848   8.726  0.2137  0.2952  0.0386
24647W        W67564  23.365  16.294   7.887  0.1052 -0.0350  0.1234
24648W        W67565  21.100  18.203  10.099  0.0973  0.3082 -0.0873
24649W        W67566  22.035  16.113   7.245  0.2275  0.0529 -0.1008
24650W        W67567  24.402  16.603   7.076  0.1671 -0.1648 -0.1413
24651W        W67568  23.462  15.257   6.953  0.2444  0.2513 -0.2739
24652W        W67569  24.009  15.729   8.013  0.0225  0.1114  0.2124
24653W        W67570  21.440  19.535   9.420 -0.3293  0.2802 -0.2900
24654W        W67571  23.625  17.347   7.827  0.0639  0.3414 -0.0900
24655W        W67572  23.204  14.508   7.403 -0.0243  0.3317 -0.0551
24656W        W67573  20.876  15.859  10.601  0.1146 -0.0166 -0.2078
24657W        W67574  21.861  15.390   7.899  0.3505  0.2524 -0.1198
24658W        W67575  22.941  17.919   8.980  0.3394  0.1468  0.0032
24659W        W67576  25.103  15.426   8.124  0.2431  0.2422  0.0318
24660W        W67577  21.704  15.851   9.446 -0.1351  0.0546  0.0826
24661W        W67578  25.862  14.439   5.341 -0.2808 -0.0679  0.1026
24662W        W67579  24.093  16.830   8.910  0.0010  0.4737  0.0433
24663W        W67580  20.753  15.808   8.030  0.0578  0.0247  0.3162
24664W        W67581  20.709  19.193   0.580  0.1203  0.0199 -0.0548
24665W        W67582  22.298  22.277  31.565 -0.3014 -0.3199 -0.0912
24666W        W67583  24.198  18.376  31.067 -0.0694  0.1506 -0.1062
24667W        W67584  26.527  17.972  31.695  0.2270 -0.3279 -0.0609
24668W        W67585  20.732  18.679  31.130  0.0437 -0.0144  0.2428
24669W        W67586  22.351  21.065  31.151 -0.0510 -0.1466 -0.1043
24670W        W67587  21.375  16.806   3.090  0.1008  0.2799 -0.1988
24671W        W67588  23.373  19.149  31.929 -0.0178 -0.2540 -0.3702
24672W        W67589  24.340  20.302   3.742 -0.2262 -0.0686  0.2395
24673W        W67590  22.447  19.023  30.238 -0.3722 -0.3782 -0.0681
24674W        W67591  22.484  17.171   3.433 -0.3158 -0.0571 -0.1468
24675W        W67592  21.609  20.092   2.073  0.0518  0.0395  0.2524
24676W        W67593  19.581  19.801  31.832  0.1718 -0.2408  0.2207
24677W        W67594  23.565  19.631  31.282 -0.2646 -0.0060  0.4667
24678W        W67595  20.962  18.225  30.892 -0.0011 -0.1597  0.4260
24679W        W67596  21.548  20.271  31.108  0.0897  0.0458 -0.3824
24680W        W67597  21.193  18.537  31.316  0.1522  0.1492  0.0889
24681W        W67598  24.319  21.602   1.033 -0.0391  0.3972 -0.1440
24682W        W67599  19.990  18.779   0.196  0.0612  0.0507  0.1885
24683W        W67600  23.555  18.413   3.381  0.1338  0.2043 -0.2967
24684W        W67601  21.844  19.591   0.663 -0.2011 -0.2427 -0.0407
24685W        W67602  20.839  19.592  30.784 -0.2775  0.2731  0.0011
24686W        W67603  22.055  19.926  30.285  0.1341  0.0170 -0.2510
24687W        W67604  21.828  20.313   1.651  0.1936 -0.2149  0.1334
24688W        W67605  22.526  19.403   0.244 -0.0675 -0.2832  0.4448
24689W        W67606  22.341  20.154   1.607  0.1190  0.1493  0.1375
24690W        W67607  23.710  20.635   1.721  0.0719  0.2917  0.0132
24691W        W67608  23.921  19.330   3.338  0.2276 -0.0426  0.1372
24692W        W67609  24.406  18.576   1.971  0.2486 -0.1010  0.2748
24693W        W67610  18.353  19.078  31.408  0.3358  0.4502  0.1462
24694W        W67611  20.735  21.213   0.953  0.1083  0.1744  0.0428
24695W        W67612  22.519  21.130   1.205  0.0714 -0.4016 -0.1181
24696W        W67613  25.547  20.782   2.110 -0.0363 -0.2815 -0.4490
24697W        W67614  23.072  22.268   1.250 -0.3217 -0.1222 -0.1238
24698W        W67615  22.058  20.956   3.411 -0.3257  0.0403 -0.0677
24699W        W67616  21.962  20.994   1.625 -0.0463 -0.1948 -0.0045
24700W        W67617  21.300  19.828   2.413  0.2188 -0.0604 -0.0381
24701W        W67618  21.922  20.624   2.906 -0.1438 -0.2574 -0.0669
24702W        W67619  23.067  19.292   2.430  0.1518  0.0046 -0.0305
24703W        W67620  21.799  21.173  31.879  0.0760  0.0599  0.1437
24704W        W67621  22.371  20.847  31.925 -0.2724  0.4491 -0.1520
24705W        W67622  21.497  19.386   0.371 -0.3160 -0.0821 -0.0998
24706W        W67623  19.802  19.012   3.713 -0.2542  0.0513 -0.1092
24707W        W67624  20.379  19.706   2.692  0.3883 -0.1843 -0.1528
24708W        W67625  25.620  18.995   3.305  0.0094 -0.0025  0.1999
24709W        W67626  22.673  21.566  29.828  0.1431 -0.1014 -0.0705
24710W        W67627  23.179  20.267  29.871 -0.1146  0.1209  0.2076
24711W        W67628  22.352  16.910  31.208  0.0031 -0.0845  0.1005
24712W        W67629  23.051  19.441   0.185  0.3118  0.0382  0.1718
24713W        W67630  22.330  18.128   0.015  0.1639 -0.1397  0.3263
24714W        W67631  22.851  18.781  30.853  0.0214  0.0765 -0.0566
24715W        W67632  20.638  19.338   1.722  0.1601  0.1990 -0.0565
24716W        W67633  22.590  19.080   1.237 -0.0508 -0.0191  0.2716
24717W        W67634  22.606  20.163  31.465 -0.0382 -0.2056 -0.1421
24718W        W67635  22.764  17.799   0.032 -0.1182 -0.0659 -0.1215
24719W        W67636  20.699  19.893   3.024 -0.1810 -0.0791 -0.1901
24720W        W67637  21.935  16.491  30.518  0.2421 -0.2019  0.0096
24721W        W67638  24.750  20.801   0.043 -0.3687  0.2266 -0.2521
24722W        W67639  23.997  22.039   1.962  0.0513  0.0943 -0.1568
24723W        W67640  22.635  21.463   0.847 -0.2825  0.0024 -0.2279
24724W        W67641  21.591  20.105   0.963 -0.0774 -0.0930  0.2472
24725W        W67642  20.756  18.973   1.998 -0.0226  0.0428  0.0400
24726W        W67643  19.906  18.571   1.348  0.2177  0.0201  0.2061
24727W        W67644  22.132  17.232  29.931 -0.1510 -0.4486 -0.2038
24728W        W67645  23.919  20.514   2.758 -0.1238 -0.0062  0.0953
24729W        W67646  20.669  19.219   2.568 -0.2239 -0.2106 -0.1428
24730W        W67647  24.287  17.255  31.880 -0.1099 -0.0192 -0.3153
24731W        W67648  22.784  19.995   3.165  0.2876  0.1642  0.2732
24732W        W67649  24.792  21.180   0.544 -0.0072 -0.3394 -0.1523
24733W        W67650  21.627  19.573  31.593 -0.2794 -0.2605 -0.1441
24734W        W67651  23.263  17.571   0.085  0.1392 -0.2239 -0.1251
24735W        W67652  23.299  17.903  31.652 -0.0306  0.1903  0.0714
24736W        W67653  22.137  21.437   0.163 -0.1290 -0.0513  0.2085
24737W        W67654  20.777  19.803  31.221  0.0071  0.2603 -0.4476
24738W        W67655  25.298  20.161   5.038  0.1533  0.2390  0.2625
24739W        W67656  21.501  21.034  31.336  0.4138 -0.0441  0.0097
24740W        W67657  20.983  20.731   1.643  0.0966  0.0366  0.0576
24741W        W67658  20.491  17.373   3.402 -0.0705  0.3742  0.2345
24742W        W67659  22.744  21.256   2.649  0.1683 -0.1201 -0.0369
24743W        W67660  22.259  20.662   1.375  0.2217  0.0713  0.2768
24744W        W67661  21.346  20.320   0.384 -0.1379  0.0949 -0.2466
24745W        W67662  21.072  21.260  31.420  0.0272  0.3049 -0.1997
24746W        W67663  18.516  19.486   0.514 -0.3840  0.1492 -0.1285
24747W        W67664  21.656  21.692   1.992  0.1503 -0.1433 -0.1805
24748W        W67665  24.505  16.442  31.672 -0.1300  0.1328  0.0074
24749W        W67666  23.329  19.035   1.920 -0.2630  0.1334 -0.0690
24750W        W67667  22.639  16.239   0.904 -0.1099 -0.1380 -0.0148
24751W        W67668  21.268  18.989  31.457  0.0115  0.0502  0.2042
24752W        W67669  24.089  20.951   1.857 -0.2987  0.0222  0.1893
24753W        W67670  24.803  20.067   0.538  0.1528 -0.2273  0.2738
24754W        W67671  23.251  21.266   0.248 -0.0771  0.0146  0.0274
24755W        W67672  22.864  19.073   2.045  0.1186  0.3057 -0.0888
24756W        W67673  21.515  17.432   0.357 -0.0005 -0.0770  0.3141
24757W        W67674  20.748  17.568   0.977 -0.0174  0.0341 -0.1861
24758W        W67675  20.275  18.607   0.655 -0.1827  0.2208 -0.0652
24759W        W67676  24.864  20.183   1.805 -0.2524  0.3573 -0.0552
24760W        W67677  21.676  19.587  27.434 -0.1267  0.1620 -0.0958
24761W        W67678  23.208  19.711   0.597 -0.0716 -0.0715  0.2452
24762W        W67679  21.146  19.392   0.726  0.0568 -0.0549  0.0725
24763W        W67680  17.905  18.112   0.380  0.0185 -0.3241 -0.0289
24764W        W67681  22.177  18.518   2.571  0.2365  0.3134  0.3736
24765W        W67682  22.611  23.185   0.796 -0.5055 -0.1262  0.0667
24766W        W67683  26.087  20.953   4.039  0.6098  0.0043  0.0208
24767W        W67684  21.645  20.181   2.752 -0.0908 -0.0795 -0.1672
24768W        W67685  21.619  17.200   1.779  0.1762 -0.0414 -0.1109
24769W        W67686  23.035  17.951  31.227  0.1790 -0.0192 -0.1002
24770W        W67687  20.189  20.402   1.748  0.0706  0.1634 -0.1086
24771W        W67688  21.294  20.661   2.973  0.0478 -0.1240 -0.0744
24772W        W67689  19.884  18.905  30.170  0.0088  0.1900 -0.0986
24773W        W67690  25.029  22.632   2.649 -0.2232  0.1483  0.0855
24774W        W67691  23.168  18.716  31.206 -0.2054  0.0555  0.1537
24775W        W67692  21.409  19.974   1.523 -0.0763 -0.1877 -0.2675
24776W        W67693  24.222  20.003   2.480 -0.1640 -0.1552 -0.0506
24777W        W67694  25.844  19.280   2.125 -0.0667  0.2331  0.0223
24778W        W67695  22.652  18.766   1.686  0.0608  0.0243 -0.0124
24779W        W67696  19.926  17.394  29.392 -0.1137  0.3686  0.2043
24780W        W67697  22.469  19.964   0.949  0.1226 -0.0635  0.2344
24781W        W67698  20.168  21.438  29.903  0.0037 -0.2961 -0.0607
24782W        W67699  21.502  20.780   2.211  0.0569 -0.0720  0.0753
24783W        W67700  24.579  19.378   2.074  0.0026  0.3477 -0.1589
24784W        W67701  18.231  17.366   2.265  0.0962 -0.0981 -0.0861
24785W        W67702  20.463  17.756   2.596 -0.1179 -0.1993  0.1022
24786W        W67703  22.705  18.472  31.913 -0.3904 -0.3085  0.0615
24787W        W67704  21.267  20.406   1.344  0.0734  0.3882 -0.1047
24788W        W67705  22.406  17.362   0.905 -0.1025 -0.1365 -0.2349
24789W        W67706  25.186  18.679   0.375 -0.2988 -0.3929  0.2831
24790W        W67707  22.553  18.998   3.636 -0.2191  0.1913 -0.0852
24791W        W67708  22.698  21.466   1.851  0.2035 -0.2919 -0.1009
24792W        W67709  22.667  17.613  31.423  0.2318  0.0221 -0.1594
24793W        W67710  23.943  19.037  31.596  0.3576 -0.2763  0.1236
24794W        W67711  21.776  19.376   1.341 -0.0827  0.0640  0.0634
24795W        W67712  23.221  19.626  30.281  0.0155 -0.2591 -0.1864
24796W        W67713  22.018  18.224   2.080  0.0389 -0.1910 -0.2324
24797W        W67714  23.227  17.886  30.026  0.2053 -0.2485  0.4464
24798W        W67715  26.231  22.553   0.924  0.0709  0.0883 -0.2391
24799W        W67716  21.492  18.246   2.261 -0.1951  0.1695  0.0044
24800W        W67717  23.622  20.953   2.137 -0.0482 -0.2179  0.3837
24801W        W67718  21.950  19.838   1.563  0.0244  0.4707 -0.0868
24802W        W67719  21.395  17.537   2.218 -0.2835  0.1166  0.0627
24803W        W67720  22.278  20.475  30.240  0.0028 -0.0161 -0.2577
24804W        W67721  22.274  17.522  31.864  0.1885  0.1351  0.0810
24805W        W67722  21.006  19.771   1.949 -0.1441 -0.5045  0.0205
24806W        W67723  24.202  19.494   0.895 -0.6317 -0.2535 -0.2664
24807W        W67724  21.781  17.644  31.696 -0.2881 -0.1173 -0.2185
24808W        W67725  20.888  18.045   3.821 -0.4320  0.0649 -0.2952
24809W        W67726  25.564  20.011   2.383  0.0906 -0.3443  0.0344
24810W        W67727  23.632  19.803   1.618 -0.0574  0.0355 -0.1034
24811W        W67728  22.180  19.352   1.561 -0.0500 -0.1557 -0.3527
24812W        W67729  19.252  18.531  31.135  0.2116  0.2204 -0.0492
24813W        W67730  22.446  17.966   2.031  0.3525 -0.1252 -0.2125
24814W        W67731  20.559  18.177   0.855  0.0260  0.0478 -0.1855
24815W        W67732  20.744  20.463   2.629  0.1672  0.0512 -0.1332
24816W        W67733  23.762  18.805   2.011  0.1271 -0.2404  0.4911
24817W        W67734  22.422  19.402   0.813  0.2157  0.0584  0.0555
24818W        W67735  22.183  17.798   1.251  0.2024  0.2247  0.0576
24819W        W67736  21.354  18.408  29.821 -0.1179 -0.0645 -0.0593
24820W        W67737  21.146  21.971  31.441  0.1813 -0.2236  0.1794
24821W        W67738  21.300  21.951   0.752  0.1866 -0.0255 -0.1936
24822W        W67739  21.281  18.718  31.881 -0.0683  0.1492 -0.3322
24823W        W67740  23.393  18.970   0.448 -0.0909  0.2622 -0.2656
24824W        W67741  22.068  20.333  31.343 -0.0979  0.2510  0.1055
24825W        W67742  23.740  19.071   2.969 -0.0160 -0.1612 -0.2648
24826W        W67743  21.142  21.146   3.114 -0.1863  0.1995  0.1876
24827W        W67744  21.632  17.851   1.236  0.0163  0.1892  0.1237
24828W        W67745  20.262  19.220  31.250 -0.3175 -0.0583  0.0037
24829W        W67746  21.415  17.438  29.255 -0.0553 -0.2712  0.1676
24830W        W67747  19.363  18.800  30.109  0.1212 -0.1707  0.4398
24831W        W67748  21.783  17.213   0.030 -0.0054  0.2535  0.0361
24832W        W67749  21.757  20.116   0.296 -0.3686  0.1480 -0.0767
24833W        W67750  21.013  18.409   2.132 -0.1641  0.1122  0.0021
24834W        W67751  20.266  16.571   2.837  0.1070 -0.2402  0.0187
24835W        W67752  20.138  23.081   2.165  0.2043 -0.0438 -0.2845
24836W        W67753  25.290  20.382   3.274 -0.1029  0.2134  0.0333
24837W        W67754  23.439  18.701  31.646 -0.3362 -0.1550 -0.0334
24838W        W67755  23.870  20.464   3.808 -0.0749  0.0349  0.0719
24839W        W67756  23.528  19.599   2.592 -0.4849  0.0495 -0.0575
24840W        W67757  22.114  18.128  29.176  0.3998  0.2437 -0.2655
24841W        W67758  24.911  18.860   2.027 -0.1463  0.1455 -0.1657
24842W        W67759  22.680  18.577  31.337 -0.1113 -0.0182 -0.0599
24843W        W67760  21.696  20.592   0.703  0.2950 -0.0129  0.0486
24844W        W67761  21.859  21.495   1.505 -0.3593  0.1627  0.0285
24845W        W67762  21.389  21.579   1.288  0.1028 -0.0315  0.0119
24846W        W67763  24.207  20.944   2.924 -0.2435 -0.3084  0.0719
24847W        W67764  20.609  18.058   3.427  0.2432  0.1821 -0.3916
24848W        W67765  24.317  19.438   3.065  0.1157  0.2938 -0.0712
24849W        W67766  22.405  18.885  31.788 -0.0603  0.0551 -0.4154
24850W        W67767  22.175  20.921   0.922  0.1787  0.0044 -0.2805
24851W        W67768  23.568  19.617   3.093  0.0683 -0.3439  0.1013
24852W        W67769  23.216  21.380  31.397  0.2273  0.1207  0.1237
24853W        W67770  23.429  20.320   1.446 -0.0587 -0.0125 -0.0929
24854W        W67771  22.372  19.246   3.153 -0.1595 -0.1571  0.1447
24855W        W67772  22.334  18.614   1.235 -0.3310 -0.2479 -0.0926
24856W        W67773  24.449  22.537   0.957 -0.0915 -0.0805  0.2038
24857W        W67774  22.963  18.689   0.612  0.1184  0.2710 -0.1325
24858W        W67775  22.654  18.207   0.360 -0.0517  0.2220  0.1119
24859W        W67776  19.772  18.952   1.579  0.3159 -0.0917  0.1652
24860W        W67777  22.046  19.152   0.522  0.3382 -0.1885 -0.0684
24861W        W67778  21.620  17.662  30.454  0.3495  0.1367  0.2468
24862W        W67779  21.630  20.263   4.202 -0.1038  0.0054 -0.3721
24863W        W67780  22.596  20.193   0.435  0.2375 -0.1537 -0.0771
24864W        W67781  20.114  19.388   0.398  0.1930 -0.3104  0.1846
24865W        W67782  25.557  18.220   1.728 -0.0052  0.1007 -0.2161
24866W        W67783  22.658  18.083  31.507 -0.0197  0.1043 -0.0239
24867W        W67784  22.858  18.638   1.207  0.2088 -0.0872 -0.2166
24868W        W67785  24.955  18.769   2.493 -0.0696  0.0706 -0.0034
24869W        W67786  20.939  17.708  31.184  0.1953  0.1107 -0.1893
24870W        W67787  22.995  18.030   3.806 -0.1700  0.2200 -0.0230
24871W        W67788  19.693  17.265   2.071 -0.0240  0.4131  0.1137
24872W        W67789  23.786  21.661   1.529 -0.1512  0.3087  0.1881
24873W        W67790  18.770  18.594   1.546 -0.3808  0.0528 -0.1003
24874W        W67791  23.416  20.200   1.942  0.1340  0.1216 -0.2494
24875W        W67792  22.154  21.458   1.141  0.0622 -0.3494 -0.0738
24876W        W67793  21.318  19.798  31.893  0.0770  0.1317 -0.3590
24877W        W67794  19.713  18.988  29.660  0.1377  0.0778 -0.0142
24878W        W67795  23.863  19.230   4.359 -0.2334  0.0407 -0.1769
24879W        W67796  22.978  20.609  31.482 -0.1386  0.0134 -0.0494
24880W        W67797  25.284  21.405   0.439 -0.1649 -0.0116  0.0338
24881W        W67798  24.669  19.501   0.715  0.2300 -0.4013 -0.0430
24882W        W67799  21.462  19.199  31.892 -0.2983 -0.0639 -0.0957
24883W        W67800  22.453  20.970   1.722  0.0130 -0.3467 -0.1121
24884W        W67801  23.839  21.344   1.054 -0.2756  0.0130  0.4360
24885W        W67802  21.799  21.835   1.073  0.0512  0.2098 -0.0213
24886W        W67803  21.356  15.259   3.003  0.0038 -0.0551  0.2810
24887W        W67804  24.457  20.359   0.767 -0.2595 -0.1086 -0.0176
24888W        W67805  24.111  17.594   0.249 -0.1487  0.1392 -0.1611
24889W        W67806  24.381  19.079   0.693 -0.1605 -0.2128  0.1301
24890W        W67807  23.701  20.442   1.066 -0.0801 -0.0464  0.3983
24891W        W67808  23.988  19.820   2.949 -0.0121  0.0519 -0.0321
24892W        W67809  19.082  18.604   4.757 -0.0374 -0.1486 -0.0201
24893W        W67810  25.020  21.632   1.981  0.1119 -0.1121 -0.0553
24894W        W67811  27.006  18.409   0.545 -0.0031 -0.1885  0.1640
24895W        W67812  22.233  19.435   2.402 -0.0518  0.0715 -0.2628
24896W        W67813  23.208  19.650   1.391  0.2070 -0.1341 -0.2090
24897W        W67814  22.615  19.914  31.887  0.0524  0.1897  0.2086
24898W        W67815  21.596  17.099   0.739  0.0313 -0.0870  0.3091
24899W        W67816  25.455  20.103   1.713  0.0122  0.0288  0.0528
24900W        W67817  20.592  17.784  29.985 -0.2117 -0.1124  0.0028
24901W        W67818  22.826  19.512   3.245 -0.1836  0.3566  0.0987
24902W        W67819  22.270  19.832   0.281 -0.0123  0.0618 -0.2014
24903W        W67820  21.317  18.228   1.779 -0.1077 -0.1127  0.0993
24904W        W67821  21.807  18.303   0.163  0.2591  0.1576  0.2020
24905W        W67822  20.754  19.781   0.744 -0.0518 -0.4435 -0.2505
24906W        W67823  22.461  18.913   0.765  0.1403  0.1442 -0.0791
24907W        W67824  22.036  18.315  31.049  0.3999  0.0981 -0.2499
24908W        W67825  22.079  19.761  31.799  0.3571  0.1066 -0.4100
24909W        W67826  22.874  17.696   2.088 -0.0206  0.2280  0.0728
24910W        W67827  23.227  19.930   3.286 -0.1788 -0.0026 -0.1622
24911W        W67828  22.606  19.366  31.759  0.1339  0.1159 -0.0922
24912W        W67829  21.867  18.930   2.123 -0.1857 -0.1155 -0.0636
24913W        W67830  20.476  20.565  30.484 -0.1530  0.0850  0.1551
24914W        W67831  21.935  18.696  30.679 -0.4476 -0.1667  0.2234
24915W        W67832  20.823  21.999   1.822  0.1916 -0.2529 -0.0484
24916W        W67833  21.976  21.217   2.919  0.1317 -0.0807  0.0093
24917W        W67834  21.142  19.331   2.277 -0.2350  0.0561  0.0218
24918W        W67835  22.384  18.266   1.670  0.1015  0.0037  0.0299
24919W        W67836  21.926  18.281   1.048 -0.3924  0.1828 -0.2018
24920W        W67837  21.245  18.660   1.473 -0.1061 -0.0977  0.1960
24921W        W67838  25.722  18.946   3.849  0.0343  0.3332  0.0927
24922W        W67839  22.614  19.538   5.378  0.0270  0.0696  0.2533
24923W        W67840  22.107  18.877   1.661  0.0665 -0.0347  0.0052
24924W        W67841  23.071  19.722   4.143  0.0540  0.0982 -0.1268
24925W        W67842  24.731  19.259   0.304  0.0275  0.1654 -0.2441
24926W        W67843  22.455  19.687   1.933  0.2613  0.2893  0.4545
24927W        W67844  21.008  18.861   0.864 -0.4045  0.0207  0.0237
24928W        W67845  24.608  19.493   2.576  0.4806  0.1263  0.1058
24929W        W67846  22.861  20.108   1.320 -0.1992  0.1457 -0.0201
24930W        W67847  24.481  17.749   0.583 -0.1976  0.2337  0.4173
24931W        W67848  21.371  21.597  31.118 -0.2397 -0.2949  0.0081
24932W        W67849  23.393  21.225   3.412 -0.0430  0.0005 -0.6091
24933W        W67850  20.818  20.157   1.428  0.0875  0.0110 -0.5824
24934W        W67851  21.084  20.785   0.265 -0.1294  0.1289 -0.0404
24935W        W67852  24.484  21.256   0.110  0.0663 -0.0108  0.0555
24936W        W67853  25.562  22.268  31.843  0.1860  0.1612  0.0006
24937W        W67854  22.540  20.099  30.961 -0.2298 -0.1256 -0.1636
24938W        W67855  23.387  18.942  30.769 -0.1477  0.1212 -0.3219
24939W        W67856  20.224  20.313   1.216  0.1763  0.1191 -0.0227
24940W        W67857  20.089  20.989  31.384  0.0132  0.3020 -0.1014
24941W        W67858  22.139  22.339   1.112 -0.2251  0.0082  0.0596
24942W        W67859  21.954  18.829   0.078  0.1019  0.1702 -0.2747
24943W        W67860  21.639  19.229   3.733 -0.1503 -0.2605 -0.0142
24944W        W67861  24.438  17.736  31.834  0.2124 -0.0103 -0.1095
24945W        W67862  24.030  19.978   1.094 -0.2951 -0.0264  0.0414
24946W        W67863  24.422  19.007  30.999 -0.0115  0.1374  0.2179
24947W        W67864  24.755  19.844   4.367 -0.0590 -0.1355 -0.2738
24948W        W67865  21.978  17.812   1.824 -0.0364  0.4195  0.1729
24949W        W67866  21.608  19.216  31.034  0.0429  0.2743 -0.0606
24950W        W67867  21.533  19.217   3.187 -0.0173  0.0884  0.0139
24951W        W67868  23.615  18.245  31.798 -0.1471  0.0582  0.0905
24952W        W67869  21.060  19.608   1.480 -0.1062 -0.2080  0.1750
24953W        W67870  24.610  22.908  29.892 -0.0323  0.0738 -0.5326
24954W        W67871  19.915  18.024  31.349  0.0131  0.1402 -0.1118
24955W        W67872  23.514  19.964   1.096 -0.3348 -0.2018  0.0714
24956W        W67873  22.718  18.403   2.330  0.1446  0.0678 -0.0070
24957W        W67874  23.459  17.837  30.889  0.1233  0.3975 -0.0177
24958W        W67875  20.597  18.234   2.507  0.1343 -0.2656 -0.1401
24959W        W67876  20.399  20.776   1.014  0.1624 -0.1090  0.1008
24960W        W67877  20.455  18.575   2.133 -0.0694  0.0946  0.1571
24961W        W67878  21.709  23.048   1.737 -0.3136  0.2275  0.1526
24962W        W67879  21.355  18.516  29.005 -0.0175 -0.3282 -0.0492
24963W        W67880  24.703  18.251  31.907  0.0874  0.2291  0.1734
24964W        W67881  20.060  17.562   2.415 -0.2751 -0.1747 -0.3031
24965W        W67882  23.777  18.367   1.024 -0.0763 -0.1557 -0.0469
24966W        W67883  22.161  21.902   1.392  0.1289  0.0451 -0.1015
24967W        W67884  23.092  18.340  31.583  0.0341 -0.0506  0.1539
24968W        W67885  22.889  17.980   3.089  0.1620  0.0677 -0.2920
24969W        W67886  22.039  19.721   1.104 -0.1647 -0.0566 -0.1584
24970W        W67887  22.770  17.357   0.514 -0.1962  0.0252 -0.0832
24971W        W67888  24.508  20.056   1.523 -0.1339  0.1639 -0.2281
24972W        W67889  21.605  20.549  31.488  0.2084  0.0280 -0.2333
24973W        W67890  24.961  21.632   2.479  0.0246  0.0174 -0.1350
24974W        W67891  21.431  17.517  31.151  0.1617  0.1261 -0.0133
24975W        W67892  22.705  19.727   0.570  0.6151  0.0289  0.0833
24976W        W67893  20.848  19.085  29.310 -0.0514 -0.2545  0.2699
24977W        W67894  23.847  18.541   2.869 -0.0486 -0.3024  0.1732
24978W        W67895  25.009  19.742   5.227 -0.0518  0.0472  0.2757
24979W        W67896  20.538  17.615  26.382 -0.4508 -0.1955  0.0646
24980W        W67897  24.976  21.034   1.604 -0.2406 -0.4197  0.3530
24981W        W67898  25.749  21.680   0.718 -0.0625 -0.1675 -0.0231
24982W        W67899  22.824  22.323   0.402 -0.0342  0.0144  0.0007
24983W        W67900  22.701  21.882   0.620 -0.1063  0.1326 -0.0520
24984W        W67901  21.508  20.705   1.742  0.0762  0.1665  0.1491
24985W        W67902  22.333  20.435   0.919  0.1222 -0.3612  0.2375
24986W        W67903  24.555  21.272   2.006  0.1726 -0.1223  0.2818
24987W        W67904  22.886  21.122   1.505  0.4379 -0.2085 -0.1364
24988W        W67905  22.242  19.739  30.801  0.2038  0.1125 -0.1525
24989W        W67906  19.872  18.851   0.905 -0.1360  0.2478  0.1202
24990W        W67907  20.545  20.521   0.274  0.0547  0.0185  0.0660
24991W        W67908  23.670  19.495  31.722  0.2920  0.0588  0.1710
24992W        W67909  23.950  20.428   2.157 -0.1817  0.2757  0.1204
24993W        W67910  23.502  19.946  31.659 -0.2489 -0.3638 -0.3069
24994W        W67911  24.707  18.677   0.501  0.2353 -0.3042  0.1140
24995W        W67912  22.612  20.113   2.125 -0.0591  0.3711 -0.0425
24996W        W67913  24.582  21.576   3.834 -0.2158 -0.3644  0.1100
24997W        W67914  21.771  19.484  30.105 -0.3294  0.7221 -0.3109
24998W        W67915  22.866  17.701   1.196 -0.2205  0.0523 -0.0127
24999W        W67916  20.459  18.916  31.585 -0.0910 -0.1883  0.1227
25000W        W67917  22.043  20.061   0.732  0.2213 -0.2390  0.5716
25001W        W67918  26.070  19.284   2.627  0.2687  0.1595 -0.1684
25002W        W67919  21.256  19.183  30.704  0.1323  0.2401  0.1289
25003W        W67920  25.306  21.904   0.843 -0.0428  0.0112 -0.2705
25004W        W67921  24.587  19.376  31.336 -0.0267 -0.2213  0.0668
25005W        W67922  23.579  17.657  31.320 -0.1280  0.0744 -0.0151
25006W        W67923  23.931  17.106   0.406 -0.1985  0.0091 -0.3844
25007W        W67924  22.130  20.068   2.030 -0.0424  0.0548 -0.3953
25008W        W67925  21.360  19.779  29.914  0.0793 -0.1119  0.0499
25009W        W67926  22.867  19.605   1.021 -0.0186  0.0161 -0.0130
25010W        W67927  22.774  18.995   0.196 -0.2861 -0.1723  0.2459
25011W        W67928  19.889  19.751   4.797 -0.1678  0.2971  0.0741
25012W        W67929  20.897  18.314   1.329 -0.1820 -0.1181 -0.3962
25013W        W67930  22.006  20.845  31.564  0.0418 -0.0975  0.0716
25014W        W67931  22.484  18.558  29.888  0.1791 -0.0628 -0.0574
25015W        W67932  23.403  23.598   2.458 -0.1394 -0.2794 -0.1082
25016W        W67933  23.162  18.188   0.150 -0.2128  0.0457  0.1446
25017W        W67934  19.149  17.606  31.414  0.0605  0.0088  0.0890
25018W        W67935  24.283  20.495   1.748  0.1835 -0.1879  0.1572
25019W        W67936  24.024  20.726   0.781 -0.1396  0.1368 -0.3353
25020W        W67937  22.289  18.423  31.543 -0.0581  0.2987  0.0206
25021W        W67938  23.021  20.725   3.593  0.1074 -0.1778 -0.0783
25022W        W67939  21.481  20.329  29.809 -0.1652  0.0310 -0.1949
25023W        W67940  21.467  19.657   3.528 -0.0026  0.0952  0.1280
25024W        W67941  22.513  17.351   1.410 -0.0739  0.0532  0.1698
25025W        W67942  20.346  18.343  31.367  0.0484 -0.1045 -0.2076
25026W        W67943  22.303  20.405   2.458 -0.1379 -0.0137  0.2775
25027W        W67944  21.023  22.380   0.873  0.1421  0.0636  0.0673
25028W        W67945  23.840  22.563   1.878  0.3122 -0.0700 -0.3297
25029W        W67946  22.959  18.865   2.621 -0.4015  0.3605  0.0903
25030W        W67947  25.798  20.602   3.740 -0.0850 -0.1619 -0.0314
25031W        W67948  21.131  17.939   1.035  0.2170  0.0239 -0.1362
25032W        W67949  23.113  19.539  31.683  0.0215  0.0646 -0.0774
25033W        W67950  21.213  17.933   3.426  0.1349  0.1218 -0.0666
25034W        W67951  22.928  21.791   1.057 -0.0316  0.1257  0.0338
25035W        W67952  24.343  19.898   0.577 -0.2206  0.3419 -0.0989
25036W        W67953  26.027  21.346   2.204  0.3119  0.1214 -0.0545
25037W        W67954  21.291  19.069   1.218 -0.0653 -0.0663  0.1198
25038W        W67955  20.648  18.625   1.697  0.1500 -0.0291 -0.2834
25039W        W67956  24.797  18.296   2.732  0.1922 -0.2767 -0.1074
25040W        W67957  21.553  18.022   0.626 -0.2293  0.0370 -0.1536
25041W        W67958  21.900  17.237  30.434 -0.1261 -0.0655  0.2705
25042W        W67959  22.252  21.038  30.656 -0.2009 -0.0072  0.0969
25043W        W67960  20.380  19.070   1.002 -0.2204  0.4379 -0.2929
25044W        W67961  23.293  17.068  30.612  0.2298 -0.1335  0.1601
25045W        W67962  22.877  18.229   1.727 -0.2076 -0.0340  0.1362
25046W        W67963  21.578  18.850   0.380 -0.0053 -0.2682  0.0012
25047W        W67964  23.725  21.558   3.263  0.0382  0.0975  0.0876
25048W        W67965  23.902  18.743   0.659  0.1111  0.1344  0.1763
25049W        W67966  23.990  19.446  31.340  0.0984  0.1775  0.1681
25050W        W67967  26.037  20.835   2.007  0.2289 -0.4354 -0.1726
25051W        W67968  23.739  19.285   2.269  0.5358  0.0889 -0.3527
25052W        W67969  23.857  21.156   0.479  0.0364  0.0451  0.1301
25053W        W67970  22.540  21.619   1.424  0.5493 -0.0553 -0.0272
25054W        W67971  20.965  15.227   2.222  0.0998 -0.0311 -0.0817
25055W        W67972  21.289  20.376  31.852 -0.1802  0.0774 -0.0146
25056W        W67973  21.312  20.994   1.202  0.1082  0.3740 -0.4833
25057W        W67974  24.171  18.676   0.236 -0.1662 -0.2495 -0.2399
25058W        W67975  22.757  19.339   1.649 -0.1185  0.0328 -0.0818
25059W        W67976  23.357  16.296  29.896  0.0160 -0.0365  0.1407
25060W        W67977  22.643  21.663   2.343  0.1305 -0.1834  0.0813
25061W        W67978  24.070  17.835   1.880  0.0695 -0.1271  0.1749
25062W        W67979  22.473  20.554   7.210 -0.0534 -0.0640 -0.2677
25063W        W67980  22.447  18.420   3.418  0.0784  0.2899 -0.1266
25064W        W67981  24.707  19.060   2.826  0.3641  0.1682 -0.0860
25065W        W67982  23.894  20.054   4.150 -0.0227  0.5800 -0.4435
25066W        W67983  19.754  18.481   5.178 -0.2209  0.0113  0.0430
25067W        W67984  22.632  20.617   3.845  0.2185 -0.2353  0.1990
25068W        W67985  21.543  16.790   6.498 -0.2582  0.3200  0.3098
25069W        W67986  22.867  19.776   4.948  0.1415 -0.1640 -0.1646
25070W        W67987  23.892  22.495   7.153 -0.0062 -0.2096  0.1211
25071W        W67988  20.836  18.902   1.340  0.0945 -0.1224 -0.1489
25072W        W67989  21.959  18.890   7.259 -0.1893  0.1787 -0.3650
25073W        W67990  20.186  18.935   5.929  0.1777 -0.0184 -0.1512
25074W        W67991  21.598  17.192   4.704  0.0903  0.0096  0.0838
25075W        W67992  21.548  16.098   5.010 -0.2498  0.2193 -0.1251
25076W        W67993  24.364  19.162   4.669  0.0709 -0.0838 -0.1134
25077W        W67994  21.171  19.444   4.437  0.2412 -0.0001 -0.0605
25078W        W67995  22.270  20.453   6.137 -0.2399  0.0981  0.2034
25079W        W67996  22.628  16.915   4.403 -0.1253  0.1583  0.0036
25080W        W67997  25.314  20.829   4.757 -0.1641  0.0676 -0.1740
25081W        W67998  24.065  18.837   6.735  0.0225 -0.1471 -0.0862
25082W        W67999  23.676  16.243   6.381  0.0027 -0.1085 -0.0437
25083W        W68000  23.772  20.881   4.208  0.2035 -0.0981 -0.3894
25084W        W68001  20.296  18.887   1.463  0.2084 -0.3552  0.0024
25085W        W68002  20.098  20.622   5.472 -0.2261  0.3823 -0.2308
25086W        W68003  20.822  20.734   4.802  0.0220  0.1975 -0.1177
25087W        W68004  22.636  17.877   5.731  0.1594  0.0438  0.2192
25088W        W68005  22.576  19.601   3.737 -0.0789  0.0032  0.2411
25089W        W68006  21.054  20.721   4.296 -0.1676  0.2609  0.1124
25090W        W68007  22.587  21.018   5.045 -0.1259  0.0899 -0.3724
25091W        W68008  25.103  18.072   6.451  0.0789  0.1118 -0.3801
25092W        W68009  21.951  19.545   3.066  0.0456  0.1128 -0.0110
25093W        W68010  20.358  21.209   4.017 -0.1393  0.0614 -0.1016
25094W        W68011  24.032  18.894   2.488  0.0992 -0.0097  0.0368
25095W        W68012  25.733  20.601   5.114 -0.2637  0.0820  0.0300
25096W        W68013  23.085  20.615   5.329 -0.0517 -0.3146  0.3732
25097W        W68014  21.890  21.984   6.853  0.1856 -0.3397 -0.4389
25098W        W68015  21.204  18.486   2.669  0.0754 -0.1584  0.1475
25099W        W68016  24.482  22.000   6.580  0.1461 -0.1480  0.1362
25100W        W68017  22.667  20.296   6.426 -0.0731 -0.1734 -0.0157
25101W        W68018  21.295  18.923   5.499  0.0203 -0.1035 -0.1083
25102W        W68019  23.971  19.222   3.853 -0.0456 -0.0994  0.3530
25103W        W68020  21.891  18.482   3.542 -0.1028  0.5163  0.1848
25104W        W68021  23.046  18.301   4.225 -0.3683 -0.1207  0.1010
25105W        W68022  22.244  20.768   5.361 -0.2047 -0.1160 -0.2346
25106W        W68023  20.013  20.824   4.065  0.1722 -0.0941 -0.1835
25107W        W68024  27.408  16.888   6.247  0.0613  0.1214 -0.0721
25108W        W68025  22.940  20.315   4.043  0.1009  0.2056  0.3895
25109W        W68026  23.452  20.749   3.192 -0.0139 -0.0845 -0.0958
25110W        W68027  20.069  17.303   3.631 -0.1885  0.1541 -0.1191
25111W        W68028  26.216  18.896   4.426 -0.0288  0.0826  0.0123
25112W        W68029  23.537  17.089   5.604  0.2699 -0.1397 -0.0030
25113W        W68030  21.269  21.251   5.472 -0.4184  0.1719  0.2616
25114W        W68031  20.740  19.437   4.106 -0.1120  0.1016  0.0457
25115W        W68032  23.907  19.656   4.730  0.1351 -0.2751 -0.0044
25116W        W68033  22.877  21.039   3.147  0.2171  0.0048  0.3049
25117W        W68034  22.774  19.408   6.670 -0.1139  0.0079 -0.1758
25118W        W68035  21.171  20.722   5.183  0.2505 -0.0928  0.0027
25119W        W68036  19.652  18.572   4.622  0.2359  0.1582  0.1006
25120W        W68037  24.847  20.277   3.506 -0.1457 -0.0612  0.0898
25121W        W68038  24.226  21.641   4.185 -0.3110  0.2653 -0.1286
25122W        W68039  20.299  20.180   2.769  0.2483  0.2686 -0.1698
25123W        W68040  21.986  19.497   4.555  0.1408 -0.2936  0.2442
25124W        W68041  22.501  20.883   6.192  0.0491 -0.2230  0.4230
25125W        W68042  21.324  19.836   5.062 -0.5329  0.2983 -0.0630
25126W        W68043  19.208  17.543   2.734 -0.2724  0.4202  0.2440
25127W        W68044  26.331  20.551   5.405  0.0246  0.1874 -0.4427
25128W        W68045  20.926  21.600   5.389 -0.3166  0.0374 -0.3486
25129W        W68046  26.415  19.213   4.769 -0.0480  0.1767  0.2038
25130W        W68047  20.788  21.138   5.183  0.2006 -0.0342  0.2548
25131W        W68048  24.828  19.402   4.758  0.2212 -0.1364 -0.2343
25132W        W68049  23.400  20.270   0.647 -0.0568  0.2368  0.0692
25133W        W68050  22.794  17.914   5.098  0.0007  0.1949 -0.0035
25134W        W68051  23.945  18.863   4.679  0.1416 -0.1000  0.0154
25135W        W68052  21.618  19.997   3.209  0.1445  0.1139 -0.3811
25136W        W68053  23.662  18.880   3.436  0.1092 -0.2584 -0.2072
25137W        W68054  24.883  17.661   6.423 -0.3425  0.0895 -0.0029
25138W        W68055  26.201  20.084   2.504  0.1044  0.1450  0.0116
25139W        W68056  21.604  20.282   4.810 -0.2666  0.1218  0.1904
25140W        W68057  22.537  18.940   6.591 -0.1040  0.1171 -0.0344
25141W        W68058  22.911  21.063   5.468 -0.2663  0.0668  0.4688
25142W        W68059  21.934  19.544   1.984 -0.0845  0.1240  0.1449
25143W        W68060  20.732  21.061   3.399  0.3440  0.1300 -0.2892
25144W        W68061  20.844  18.776   2.456  0.3806 -0.0435  0.0135
25145W        W68062  21.023  18.070   4.498 -0.2737 -0.0375 -0.0822
25146W        W68063  20.753  19.907   4.255  0.0964  0.3342  0.0553
25147W        W68064  24.186  18.628   3.775 -0.1092 -0.0165  0.1033
25148W        W68065  21.416  17.888   5.302  0.1540  0.0493  0.1125
25149W        W68066  23.017  18.088   4.692  0.1252 -0.1397  0.1345
25150W        W68067  20.719  19.289   3.036 -0.1084 -0.1850  0.0402
25151W        W68068  23.338  20.337   5.984  0.2656 -0.0648 -0.1119
25152W        W68069  22.905  18.446   3.210 -0.0866 -0.0313  0.0629
25153W        W68070  24.388  20.672   3.343  0.2434 -0.1696  0.1172
25154W        W68071  20.712  19.435   4.590  0.3018 -0.0140  0.1381
25155W        W68072  22.005  19.122   4.854 -0.2784  0.1377 -0.0060
25156W        W68073  24.171  15.793   5.982 -0.1256 -0.1663  0.1124
25157W        W68074  21.916  17.697   5.337  0.1487  0.4958 -0.2432
25158W        W68075  25.766  20.080   5.069  0.1989  0.0413  0.0699
25159W        W68076  20.271  19.109   1.937 -0.1131  0.4113 -0.0463
25160W        W68077  22.558  18.958   4.651  0.3149 -0.1458 -0.2462
25161W        W68078  21.980  21.621   3.610 -0.0419  0.2654  0.2291
25162W        W68079  19.545  18.622   1.870  0.2290  0.0102 -0.1602
25163W        W68080  24.655  19.285   5.217 -0.1826  0.0183  0.0476
25164W        W68081  21.909  22.089   5.086 -0.1088 -0.2652 -0.1891
25165W        W68082  25.053  20.503   6.770 -0.1209  0.2737  0.1658
25166W        W68083  26.420  22.435   5.291 -0.2743  0.0696 -0.1224
25167W        W68084  24.529  19.721   6.162  0.0226 -0.1287  0.0190
25168W        W68085  21.637  17.674   3.469 -0.3157 -0.3931  0.3203
25169W        W68086  20.209  20.312   4.455  0.1149  0.0322  0.1429
25170W        W68087  22.944  19.938   3.683  0.1571  0.0198 -0.0117
25171W        W68088  22.086  18.042   3.526  0.0600 -0.0306  0.4603
25172W        W68089  23.495  22.580   5.371 -0.2798 -0.0342  0.2463
25173W        W68090  22.917  20.357   1.740 -0.1986  0.1547  0.0422
25174W        W68091  20.859  20.685   6.049 -0.2942  0.1520  0.1454
25175W        W68092  25.096  20.249   6.301  0.2427 -0.1011  0.0856
25176W        W68093  23.767  19.054   6.062 -0.1218 -0.1188  0.0011
25177W        W68094  21.598  19.815   4.464  0.0973  0.0042  0.2751
25178W        W68095  22.494  18.116   3.810 -0.5064  0.0204  0.1436
25179W        W68096  23.292  20.958   4.506  0.1274  0.0502 -0.1419
25180W        W68097  21.696  19.217   2.485 -0.0603  0.2920 -0.0753
25181W        W68098  21.817  20.753   3.843 -0.1903  0.0563  0.0388
25182W        W68099  22.779  22.100   3.197 -0.0842  0.1128 -0.1083
25183W        W68100  25.784  18.295   2.524 -0.1048  0.0009  0.0322
25184W        W68101  20.761  19.221   6.809  0.4362 -0.1065  0.1546
25185W        W68102  23.248  19.080   6.334  0.0807  0.2982  0.2475
25186W        W68103  21.060  17.849   2.581  0.0302  0.2413 -0.3334
25187W        W68104  21.250  21.928   4.140 -0.1234 -0.1180 -0.1164
25188W        W68105  22.450  17.405   4.370 -0.0721 -0.0855 -0.0011
25189W        W68106  24.705  20.045   2.693  0.0426 -0.4016 -0.1029
25190W        W68107  22.402  19.340   5.820 -0.1472  0.2636  0.0703
25191W        W68108  25.262  19.208   4.879  0.2366 -0.2454  0.0716
25192W        W68109  20.942  18.097   3.054 -0.1617  0.1518 -0.0223
25193W        W68110  20.605  16.410   3.187 -0.0024 -0.1356  0.0096
25194W        W68111  22.582  18.111   7.319 -0.1367 -0.0037  0.0333
25195W        W68112  22.217  20.265   4.722 -0.2192  0.0166  0.0367
25196W        W68113  21.801  18.935   5.352  0.2112 -0.1859  0.1761
25197W        W68114  21.112  18.838   3.121  0.1069 -0.1315 -0.0432
25198W        W68115  24.240  20.721   4.261  0.1828  0.0094 -0.1839
25199W        W68116  21.250  19.497   3.953 -0.0942 -0.0608  0.1472
25200W        W68117  22.511  19.583   8.575 -0.0194  0.0583  0.0467
25201W        W68118  24.182  19.443   5.621 -0.1303 -0.2987  0.1735
25202W        W68119  21.388  16.831   4.352 -0.1089 -0.0228  0.2216
25203W        W68120  21.129  19.201   3.498 -0.3062  0.0707  0.0208
25204W        W68121  23.234  18.479   5.575  0.2545  0.1228  0.0946
25205W        W68122  21.281  22.065   1.975 -0.3435 -0.0162 -0.3052
25206W        W68123  23.007  17.438   5.739 -0.0814  0.0152 -0.0934
25207W        W68124  23.944  16.616   6.627  0.3816 -0.0849  0.1806
25208W        W68125  23.249  17.797   4.299  0.2415 -0.1289  0.0504
25209W        W68126  22.410  18.942   7.049 -0.0709 -0.0211  0.2031
25210W        W68127  25.792  20.199   3.268  0.1654  0.1377  0.2347
25211W        W68128  22.163  19.861   3.497 -0.3668  0.1243 -0.0379
25212W        W68129  19.613  17.673   1.822 -0.0734  0.1116  0.1539
25213W        W68130  23.035  18.685   6.210 -0.0880  0.0639 -0.2879
25214W        W68131  22.400  19.423   4.799 -0.2560 -0.0092  0.0578
25215W        W68132  20.519  20.332   5.493  0.0986  0.0060 -0.0258
25216W        W68133  25.276  20.693   7.140 -0.0201 -0.0802 -0.4684
25217W        W68134  25.070  18.031   3.696 -0.0540  0.1116  0.0802
25218W        W68135  23.533  18.272   6.733  0.0984 -0.1059 -0.0153
25219W        W68136  22.010  17.439   1.522  0.0979 -0.3115  0.0025
25220W        W68137  22.798  23.190   5.191 -0.1663  0.2160  0.0378
25221W        W68138  23.529  19.622   4.266  0.1522  0.3622 -0.1040
25222W        W68139  21.917  17.621   4.437 -0.4738  0.1001 -0.2008
25223W        W68140  25.549  19.813   5.505  0.0990  0.0264  0.2155
25224W        W68141  21.650  20.532   3.409  0.0700 -0.0427  0.0860
25225W        W68142  23.620  20.443   4.998  0.0861  0.2410  0.0641
25226W        W68143  23.186  20.283   2.715 -0.2254  0.0571  0.0480
25227W        W68144  22.736  17.203   6.270  0.0981  0.1092 -0.1561
25228W        W68145  21.337  20.596   3.852  0.1310  0.2007 -0.0427
25229W        W68146  20.419  20.129   3.351  0.2278 -0.1910 -0.2521
25230W        W68147  19.510  19.876   2.813  0.0458  0.0078 -0.1713
25231W        W68148  23.200  18.874   3.611 -0.0181  0.1369 -0.1695
25232W        W68149  25.183  18.451   4.942  0.1161 -0.0955  0.1194
25233W        W68150  22.887  19.267   4.886  0.0717 -0.0240 -0.3272
25234W        W68151  24.061  19.752   5.247  0.0470 -0.1946 -0.0671
25235W        W68152  20.935  20.334   3.956 -0.0883 -0.0242 -0.0539
25236W        W68153  23.720  19.815   5.566 -0.0035  0.2072  0.2988
25237W        W68154  25.572  16.953   4.335 -0.3311  0.2876  0.2343
25238W        W68155  25.490  20.317   5.448  0.1444 -0.3873  0.0106
25239W        W68156  21.985  19.436   6.581 -0.0780  0.1307 -0.0871
25240W        W68157  19.444  18.700   3.143 -0.1669 -0.2397 -0.1023
25241W        W68158  24.419  18.152   4.375 -0.0980 -0.0760  0.1152
25242W        W68159  24.957  18.997   3.412  0.1155 -0.4955  0.1497
25243W        W68160  20.068  20.478   3.679 -0.0133 -0.1137  0.1680
25244W        W68161  23.328  21.983   3.460 -0.0159 -0.0719 -0.1511
25245W        W68162  21.481  19.590   1.048  0.1529 -0.0884 -0.2876
25246W        W68163  21.009  18.065   5.030  0.0712  0.2138  0.1983
25247W        W68164  24.149  19.273   5.165  0.3613 -0.1159  0.0899
25248W        W68165  24.606  20.692   7.028  0.1316 -0.0466  0.4118
25249W        W68166  20.783  18.925   5.503  0.2577  0.1793  0.3162
25250W        W68167  21.178  17.629   4.865 -0.1000 -0.0006 -0.0843
25251W        W68168  22.785  21.557   4.873 -0.0344 -0.3556 -0.2256
25252W        W68169  24.680  20.135   5.856  0.0508  0.2530  0.1088
25253W        W68170  23.647  20.648   5.619 -0.1179  0.0439 -0.3769
25254W        W68171  23.097  21.071   7.866 -0.0131  0.2276 -0.1219
25255W        W68172  22.868  17.307   5.317  0.1211  0.1199 -0.0926
25256W        W68173  26.140  21.375   4.336 -0.1675  0.0103  0.1626
25257W        W68174  22.343  19.193   7.570 -0.1170 -0.0698 -0.0745
25258W        W68175  23.017  19.730   2.803  0.0135  0.0008  0.1657
25259W        W68176  20.606  19.667   5.038  0.0145 -0.0400  0.1235
25260W        W68177  20.920  19.593   2.693  0.1809  0.0100 -0.0933
25261W        W68178  23.393  17.958   6.329 -0.3178  0.0595 -0.0477
25262W        W68179  20.373  19.708   3.814 -0.0494 -0.1473 -0.2073
25263W        W68180  23.901  20.565   3.248 -0.0396  0.3039 -0.4632
25264W        W68181  19.802  18.625   6.106  0.1363 -0.1621 -0.1902
25265W        W68182  25.273  18.028   5.343 -0.1008  0.1950 -0.0110
25266W        W68183  24.680  20.694   1.963  0.0783 -0.0780 -0.0787
25267W        W68184  22.361  18.603   3.873 -0.2309  0.0982 -0.0793
25268W        W68185  25.012  19.255   5.965 -0.0239 -0.0883  0.3060
25269W        W68186  22.956  19.254   3.882 -0.4933 -0.0293 -0.1113
25270W        W68187  22.757  18.810   5.796  0.0785 -0.0492  0.0341
25271W        W68188  22.956  19.216   5.621 -0.0650 -0.0749  0.0163
25272W        W68189  22.861  20.799   4.283 -0.1714  0.0336 -0.1302
25273W        W68190  20.266  18.139   6.676  0.1137 -0.2045  0.3254
25274W        W68191  23.888  19.877   8.617 -0.2497  0.2909 -0.1087
25275W        W68192  21.188  19.460   6.684 -0.1201 -0.0905  0.0077
25276W        W68193  23.054  18.275   2.737 -0.1020 -0.0002 -0.1176
25277W        W68194  20.533  18.172   4.944  0.0939 -0.2006 -0.2397
25278W        W68195  22.151  19.784   5.548 -0.3903  0.2143  0.2676
25279W        W68196  25.197  21.668   5.027  0.0617 -0.3970  0.1188
25280W        W68197  22.484  19.338   4.169 -0.1220  0.1915  0.4933
25281W        W68198  24.021  18.381   4.870  0.0229  0.2684  0.0731
25282W        W68199  19.568  17.596   4.330 -0.2253  0.2013 -0.3431
25283W        W68200  20.514  18.446   5.774 -0.1679  0.0111 -0.0454
25284W        W68201  24.622  19.333   4.306 -0.0533 -0.1112  0.2207
25285W        W68202  22.100  19.676   3.943  0.3236  0.1176  0.0290
25286W        W68203  21.884  19.884   4.896  0.1427  0.0206  0.0019
25287W        W68204  24.238  19.887   5.814  0.2967 -0.1975  0.0220
25288W        W68205  23.412  16.614   5.869 -0.0443  0.1029  0.2131
25289W        W68206  22.462  16.474   6.583 -0.1718  0.0490  0.0492
25290W        W68207  26.194  19.978   5.942  0.0368  0.2073 -0.0625
25291W        W68208  22.895  19.829   5.811  0.0475 -0.0544 -0.0591
25292W        W68209  21.023  17.631   5.432  0.2319  0.0324 -0.0689
25293W        W68210  25.413  21.315   7.140  0.2026 -0.0330 -0.3396
25294W        W68211  23.161  19.928   2.328 -0.3554  0.1522  0.0203
25295W        W68212  23.311  18.944   5.853 -0.3407  0.0160 -0.0717
25296W        W68213  22.815  18.293   5.953 -0.0279  0.0185 -0.2216
25297W        W68214  23.999  18.345   2.228  0.2994  0.0659 -0.1114
25298W        W68215  22.835  18.546   3.780 -0.2120  0.2502 -0.1193
25299W        W68216  23.953  18.839   8.199 -0.0568 -0.0390 -0.0728
25300W        W68217  19.270  17.228   4.019  0.0210  0.0549 -0.4960
25301W        W68218  24.118  19.756   7.739 -0.1173 -0.0678 -0.3662
25302W        W68219  22.633  23.089   3.125  0.0671  0.0718  0.0204
25303W        W68220  22.665  20.157   4.630  0.4314  0.2872  0.0332
25304W        W68221  23.638  20.085   2.510  0.0142  0.1462  0.3671
25305W        W68222  21.086  18.945   3.949 -0.1940  0.2632 -0.0217
25306W        W68223  22.012  21.472   5.922  0.1555  0.2420  0.3190
25307W        W68224  20.357  18.289   4.010  0.0709  0.0670  0.3838
25308W        W68225  21.681  18.823   4.021  0.2057 -0.1822 -0.0288
25309W        W68226  24.144  20.909   3.790  0.2580  0.0760 -0.0748
25310W        W68227  24.625  21.588   7.158  0.0016 -0.0427 -0.3843
25311W        W68228  22.791  17.469   3.050  0.0729  0.1717  0.1510
25312W        W68229  24.795  20.060   7.114  0.0813  0.0550  0.3506
25313W        W68230  20.703  19.419   3.561 -0.1634 -0.3903 -0.0852
25314W        W68231  23.196  17.913   5.661 -0.2959 -0.2842 -0.0882
25315W        W68232  22.309  21.990   4.057  0.0024 -0.1530 -0.4146
25316W        W68233  20.603  18.998   5.036 -0.4019 -0.1250  0.1852
25317W        W68234  21.479  21.019   3.584  0.3498  0.1320 -0.1476
25318W        W68235  21.742  18.554   4.500 -0.0786 -0.0472  0.6154
25319W        W68236  22.103  18.877   4.435  0.0272  0.1767 -0.3355
25320W        W68237  21.133  20.360   4.838 -0.0366  0.2415 -0.0584
25321W        W68238  24.079  18.367   6.768  0.1432 -0.2244 -0.0512
25322W        W68239  24.348  21.078   6.247 -0.1783 -0.0672 -0.0941
25323W        W68240  19.849  18.692   7.704 -0.0527  0.2423  0.0626
25324W        W68241  22.944  21.276   4.349  0.2973 -0.3381 -0.0179
25325W        W68242  25.757  19.214   4.847  0.3764 -0.3312 -0.3082
25326W        W68243  21.792  21.965   3.975 -0.0055 -0.0262  0.1870
25327W        W68244  19.289  18.671   5.911  0.0081  0.2458  0.1311
25328W        W68245  21.909  19.348   5.593  0.0226 -0.1792  0.1256
25329W        W68246  24.261  20.376   6.141 -0.1687 -0.2586  0.2443
25330W        W68247  21.453  17.744   2.887  0.0900  0.0631 -0.4474
25331W        W68248  24.830  20.314   4.046  0.1151 -0.0424 -0.0460
25332W        W68249  22.802  19.129   7.809 -0.1138  0.0355 -0.1643
25333W        W68250  19.488  18.220   5.959 -0.1527  0.0896 -0.0133
25334W        W68251  21.387  21.710   5.204  0.0070  0.2709  0.3457
25335W        W68252  22.978  19.153   4.404 -0.0617  0.1473  0.2542
25336W        W68253  26.721  20.731   4.588  0.1093  0.2364  0.1194
25337W        W68254  23.083  24.579   5.422  0.0581  0.1081 -0.0194
25338W        W68255  22.179  17.123   4.086 -0.0938 -0.4750 -0.1835
25339W        W68256  23.100  20.013   4.574  0.0229 -0.1706 -0.2733
25340W        W68257  22.048  18.909   3.356  0.0991  0.1538 -0.1522
25341W        W68258  24.392  18.663   4.488 -0.4810  0.1009  0.0412
25342W        W68259  21.656  21.331   4.449  0.1489 -0.0861 -0.1669
25343W        W68260  25.286  20.161   7.105 -0.2460  0.0286 -0.0752
25344W        W68261  24.760  18.176   1.378 -0.0421 -0.0901 -0.3756
25345W        W68262  24.718  19.606   5.660 -0.0746 -0.0682 -0.1524
25346W        W68263  25.815  18.789   2.579  0.3003  0.1106 -0.0961
25347W        W68264  23.092  21.828   6.822 -0.2157 -0.2152  0.0188
25348W        W68265  22.273  18.494   7.401  0.1555  0.0535  0.2216
25349W        W68266  21.157  19.196   1.768  0.1935  0.0347 -0.0174
25350W        W68267  21.624  19.217   6.932 -0.2118 -0.0772  0.3279
25351W        W68268  22.905  17.797   6.208 -0.0346  0.2165  0.2050
25352W        W68269  20.278  21.220   6.197 -0.2443 -0.1822  0.2669
25353W        W68270  22.093  21.431   4.151 -0.2295 -0.0638  0.3092
25354W        W68271  20.530  18.188   4.464 -0.0718 -0.0873 -0.3012
25355W        W68272  21.213  19.079   2.740  0.0527 -0.1102  0.0352
25356W        W68273  23.659  17.793   6.741  0.1172  0.0238  0.1521
25357W        W68274  22.753  20.647   0.766 -0.5219  0.1929  0.0810
25358W        W68275  21.607  18.717   4.924  0.2167 -0.1437  0.0012
25359W        W68276  22.099  19.357   3.552 -0.0464  0.0763  0.1001
25360W        W68277  21.682  19.350   4.191 -0.0153 -0.1336 -0.0062
25361W        W68278  22.400  20.367   4.249  0.1699 -0.2124  0.0613
25362W        W68279  20.744  16.495   6.161  0.1144 -0.0139  0.0109
25363W        W68280  24.415  19.647   4.887  0.0134 -0.0281  0.2577
25364W        W68281  22.918  19.129   7.035 -0.1357 -0.2281 -0.0682
25365W        W68282  24.086  18.749   6.271  0.0652  0.0852 -0.3760
25366W        W68283  21.279  20.168   3.494  0.0376 -0.3410  0.0119
25367W        W68284  24.734  20.164   4.865 -0.3960 -0.0858 -0.0510
25368W        W68285  23.670  18.970   5.466  0.2723  0.0037 -0.0148
25369W        W68286  20.197  19.511   5.449  0.0460  0.0045  0.0162
25370W        W68287  22.266  18.038   2.537 -0.1050  0.0576 -0.0680
25371W        W68288  23.814  18.891   7.584  0.3493  0.2106  0.1805
25372W        W68289  24.753  18.055   3.211  0.1031  0.0734  0.0371
25373W        W68290  25.071  21.265   6.775 -0.1409 -0.0383  0.0152
25374W        W68291  21.616  18.118   4.919 -0.0229 -0.2276  0.0684
25375W        W68292  23.500  18.174   2.882 -0.0536 -0.1241 -0.2511
25376W        W68293  20.035  19.997   3.596 -0.1949  0.0156 -0.2535
25377W        W68294  22.138  20.913   5.818 -0.0046  0.1110 -0.1663
25378W        W68295  25.001  21.733   6.468 -0.3276 -0.0047 -0.1977
25379W        W68296  22.270  18.604   5.496 -0.0796 -0.1684 -0.1741
25380W        W68297  24.376  20.165   3.226  0.2978  0.2533  0.0481
25381W        W68298  25.244  19.033   3.971  0.2119 -0.2130 -0.2558
25382W        W68299  22.029  19.022   2.811 -0.0721  0.2453 -0.0663
25383W        W68300  22.724  20.623   2.558 -0.0796  0.0987 -0.1220
25384W        W68301  24.915  20.652   4.993 -0.2817  0.2185  0.1403
25385W        W68302  22.199  20.129   2.999  0.1763  0.0086  0.0753
25386W        W68303  24.362  20.657   4.719 -0.1729  0.1142  0.1802
25387W        W68304  25.885  18.399   7.718  0.1718 -0.1381  0.2466
25388W        W68305  26.082  19.038   3.504 -0.2343 -0.3675  0.0362
25389W        W68306  22.713  19.673   4.468 -0.0900 -0.3959  0.0957
25390W        W68307  21.804  21.501   2.511 -0.0824  0.2586  0.0135
25391W        W68308  23.593  20.024   4.594 -0.1192  0.1658  0.0314
25392W        W68309  23.795  19.735   6.748  0.0801  0.3732 -0.0243
25393W        W68310  24.459  20.308   2.200  0.1764  0.0280 -0.2423
25394W        W68311  24.474  18.632   5.483 -0.0690 -0.0949 -0.0585
25395W        W68312  21.826  21.803   4.508  0.2256  0.2467  0.1775
25396W        W68313  23.764  20.192   5.857 -0.0706  0.1095 -0.1432
25397W        W68314  21.701  18.265   2.697  0.1521 -0.0408  0.1725
25398W        W68315  21.608  18.556   5.774  0.1659 -0.3102 -0.1152
25399W        W68316  22.089  22.194   3.363  0.2070  0.2194  0.1942
25400W        W68317  22.533  20.743   3.398 -0.1385  0.0912  0.2813
25401W        W68318  22.572  20.510   5.120 -0.0655 -0.0570  0.0778
25402W        W68319  23.288  17.961   3.372 -0.1211  0.0411 -0.1173
25403W        W68320  25.343  21.492   4.076  0.6038  0.0119 -0.1327
25404W        W68321  22.615  17.800   4.605 -0.0705 -0.1041 -0.1171
25405W        W68322  25.199  19.796   4.746 -0.2703 -0.0313  0.0066
25406W        W68323  24.361  16.870   5.717  0.1256  0.0745  0.0101
25407W        W68324  22.419  21.142   3.689  0.2098  0.5007  0.0605
25408W        W68325  20.004  16.843   4.364 -0.3309  0.2284 -0.0651
25409W        W68326  22.104  19.073   1.076 -0.0309  0.0127  0.0645
25410W        W68327  21.772  22.642   3.292  0.1836  0.3526 -0.1447
25411W        W68328  22.936  16.868   5.669 -0.1301 -0.0933 -0.2402
25412W        W68329  21.223  18.742   6.146 -0.0534  0.1086  0.0665
25413W        W68330  20.071  19.426   6.037  0.0009 -0.1917 -0.0200
25414W        W68331  21.279  18.274   6.589  0.1919 -0.2978 -0.1616
25415W        W68332  23.173  20.879   2.729  0.1811  0.0267 -0.2107
25416W        W68333  21.356  15.652   5.169 -0.1960 -0.0283  0.2816
25417W        W68334  21.128  15.959   4.274  0.0868 -0.2590 -0.2814
25418W        W68335  23.652  19.686   3.703  0.1715  0.0006  0.0853
25419W        W68336  23.513  21.340   4.342 -0.0871 -0.4122  0.0172
25420W        W68337  21.713  18.119   3.231  0.1891  0.0769 -0.1045
25421W        W68338  24.864  22.847   6.690  0.3227 -0.0300 -0.0436
25422W        W68339  22.009  17.813   2.904  0.0670  0.0693  0.3462
25423W        W68340  23.158  18.250   7.120  0.0034 -0.3188 -0.1170
25424W        W68341  23.289  19.139   5.194  0.1692 -0.1180  0.0476
25425W        W68342  20.036  18.154   4.826  0.0017 -0.2301  0.0389
25426W        W68343  23.517  18.067   3.831  0.0341  0.1326  0.4509
25427W        W68344  23.467  19.181   3.953 -0.2378 -0.1110  0.0991
25428W        W68345  24.104  21.440   2.903  0.1343  0.0529  0.1158
25429W        W68346  23.567  20.052   6.348 -0.2897 -0.0601  0.0577
25430W        W68347  22.296  20.308   5.657  0.0787 -0.4203 -0.1832
25431W        W68348  22.110  18.922   5.780  0.1556  0.1040  0.1031
25432W        W68349  22.169  18.646   4.979 -0.0808  0.2005  0.0708
25433W        W68350  23.060  19.997   6.363 -0.2725 -0.0725 -0.0148
25434W        W68351  22.352  18.589   6.014  0.2666  0.1562  0.0677
25435W        W68352  23.091  17.543   4.846  0.0093 -0.1461 -0.1881
25436W        W68353  25.094  18.695   3.040 -0.1630  0.0155 -0.0655
25437W        W68354  21.017  17.872   6.895  0.1951 -0.1964 -0.0422
25438W        W68355  23.424  19.469   5.942 -0.1163 -0.1091  0.3221
25439W        W68356  25.344  20.271   8.462 -0.2342 -0.1963  0.3579
25440W        W68357  22.967  19.861   1.824  0.3680  0.0637 -0.0094
25441W        W68358  22.739  18.787   4.182  0.1544  0.0374 -0.1132
25442W        W68359  23.033  20.533   3.116 -0.2966 -0.2090  0.2135
25443W        W68360  19.656  19.474   6.559 -0.1442 -0.4134  0.2032
25444W        W68361  20.705  18.679   4.672 -0.3402  0.0143  0.0769
25445W        W68362  23.958  18.612   4.212 -0.0803  0.2362  0.0048
25446W        W68363  22.430  20.019   5.162 -0.1300 -0.1778 -0.0177
25447W        W68364  24.463  20.445   5.183 -0.2453  0.2232 -0.2090
25448W        W68365  21.093  17.485   3.199  0.1452  0.1232  0.0498
25449W        W68366  25.804  21.072   4.741  0.2568 -0.1191  0.0656
25450W        W68367  23.612  20.996   5.978  0.1603  0.0150  0.0501
25451W        W68368  25.955  21.534   6.297 -0.1711 -0.1405  0.1939
25452W        W68369  22.637  21.528   3.993  0.2410  0.5942  0.0501
25453W        W68370  24.675  21.521   5.209  0.0990 -0.1666 -0.0237
25454W        W68371  18.706  17.068   5.847 -0.2881 -0.0477  0.2016
25455W        W68372  22.696  19.637   2.368  0.1668 -0.0393  0.3572
25456W        W68373  22.612  20.221   3.526  0.1287  0.2074 -0.1897
25457W        W68374  23.400  19.013   4.563 -0.1085 -0.2677 -0.2835
25458W        W68375  23.300  19.404   3.472 -0.1824  0.1169 -0.2924
25459W        W68376  27.077  18.796   2.812  0.1856 -0.0330  0.1290
25460W        W68377  21.484  19.523   5.812 -0.0897 -0.1115  0.3016
25461W        W68378  21.576  19.069   5.944 -0.1658  0.1547 -0.1210
25462W        W68379  22.191  16.486   8.118  0.2694  0.4272  0.2432
25463W        W68380  21.440  18.093   7.542  0.5623 -0.2047  0.0995
25464W        W68381  25.101  18.612   7.655 -0.2589  0.0306  0.0344
25465W        W68382  24.841  18.895   8.122 -0.3096 -0.2055 -0.0433
25466W        W68383  20.482  16.724   6.967 -0.0485  0.0459 -0.1228
25467W        W68384  24.254  22.602   7.940  0.2731 -0.1808  0.0570
25468W        W68385  23.900  19.109   7.143 -0.1657  0.0659 -0.0035
25469W        W68386  24.115  17.362   7.750 -0.2177  0.1098 -0.0598
25470W        W68387  22.704  19.082   6.180 -0.1284  0.0519 -0.1581
25471W        W68388  21.656  17.287   7.781  0.0933 -0.0307  0.0078
25472W        W68389  22.569  18.460   6.461 -0.1595 -0.0398  0.1778
25473W        W68390  20.588  17.286   8.761 -0.0229 -0.0582 -0.2146
25474W        W68391  20.871  19.245   8.442 -0.2954  0.1894  0.1235
25475W        W68392  21.922  19.208   8.047 -0.1543 -0.0544  0.0879
25476W        W68393  23.745  19.445   7.567  0.0413 -0.0033 -0.3742
25477W        W68394  26.003  15.990   8.390 -0.1125 -0.0874 -0.0829
25478W        W68395  24.382  22.454   6.356  0.2606 -0.1185  0.1605
25479W        W68396  21.618  18.680   8.315 -0.0211 -0.2964 -0.2238
25480W        W68397  22.827  20.276   5.927 -0.0472 -0.0901  0.0939
25481W        W68398  20.809  18.677   6.549 -0.0881 -0.0230 -0.1699
25482W        W68399  22.513  19.443   7.139 -0.1727  0.1705 -0.1465
25483W        W68400  22.115  15.576   9.810 -0.2555  0.1279  0.0854
25484W        W68401  24.364  17.989   7.754 -0.0114  0.2661 -0.2395
25485W        W68402  24.243  19.525   7.027  0.2427  0.1109 -0.0299
25486W        W68403  21.738  20.730   8.681  0.0834  0.0617 -0.0757
25487W        W68404  22.649  20.427   8.238  0.0789 -0.2059 -0.0799
25488W        W68405  22.579  16.565   9.133 -0.0799  0.3410 -0.2555
25489W        W68406  22.672  23.044  12.202 -0.2796  0.2717  0.0578
25490W        W68407  22.750  19.657   7.622 -0.4410 -0.0329  0.0461
25491W        W68408  25.577  21.695   9.268 -0.3575 -0.1942 -0.0685
25492W        W68409  20.413  22.145   7.075  0.0218 -0.2943 -0.0454
25493W        W68410  23.545  16.878   8.713 -0.1659 -0.1479  0.0922
25494W        W68411  22.156  19.115   6.228  0.2864  0.4032 -0.0809
25495W        W68412  22.174  21.647   7.289  0.1121  0.1305 -0.1932
25496W        W68413  22.635  21.290   6.507  0.4921  0.1662  0.1369
25497W        W68414  21.920  18.743   8.766 -0.2572 -0.0225 -0.0246
25498W        W68415  24.087  20.471   7.294  0.0797  0.0377 -0.2423
25499W        W68416  25.163  18.551   6.756  0.0490  0.4179 -0.0261
25500W        W68417  23.192  18.768   6.774  0.0171  0.2054 -0.3965
25501W        W68418  24.172  18.923   5.740 -0.0871  0.0276  0.1275
25502W        W68419  22.723  18.188   9.354  0.5168 -0.1010  0.0592
25503W        W68420  22.862  22.094   8.491 -0.0578  0.4520  0.3690
25504W        W68421  20.764  18.355   7.243 -0.3844 -0.0610  0.1714
25505W        W68422  23.309  20.006   6.861  0.1039  0.1515 -0.2531
25506W        W68423  20.707  15.361   7.817  0.1288  0.1620  0.1438
25507W        W68424  25.870  23.062   9.113 -0.3078 -0.0258 -0.1461
25508W        W68425  21.264  17.551   8.234 -0.0686  0.1067 -0.0478
25509W        W68426  23.537  21.510   6.952 -0.0423  0.2722  0.1737
25510W        W68427  24.295  22.373   8.400 -0.1399 -0.0373 -0.0380
25511W        W68428  24.069  20.730   5.860  0.1864  0.1351  0.1899
25512W        W68429  21.880  19.334   7.448 -0.2021 -0.4599 -0.1339
25513W        W68430  22.916  17.749   7.246  0.0069 -0.0157 -0.0990
25514W        W68431  25.490  18.068   7.742  0.0752  0.0431 -0.4938
25515W        W68432  21.824  17.765   9.456 -0.1281  0.0811 -0.0852
25516W        W68433  24.438  20.759   8.706  0.1508 -0.1616 -0.1628
25517W        W68434  23.627  18.140   8.309 -0.4482  0.1599 -0.0557
25518W        W68435  23.642  16.073   8.218  0.0181 -0.1175  0.1579
25519W        W68436  25.496  17.374   7.970  0.3738 -0.2698  0.0492
25520W        W68437  21.651  19.856   5.456 -0.0830  0.2089 -0.2792
25521W        W68438  23.290  19.663   7.800 -0.0479 -0.0530  0.1785
25522W        W68439  24.045  21.102   8.215  0.1035  0.1056  0.2964
25523W        W68440  24.373  20.115   8.457  0.1973  0.0887  0.1625
25524W        W68441  22.333  16.938   8.975  0.2283 -0.0898 -0.2130
25525W        W68442  21.314  21.191   6.657  0.1043 -0.0794  0.2143
25526W        W68443  20.572  20.077   7.366 -0.0298  0.2340 -0.0317
25527W        W68444  20.862  20.098   7.859 -0.1229  0.3342 -0.0902
25528W        W68445  19.159  16.888   8.924 -0.1183  0.0782 -0.1923
25529W        W68446  21.350  19.143   8.309 -0.3794  0.0966 -0.1184
25530W        W68447  25.965  17.910   8.490 -0.0726 -0.2362 -0.2741
25531W        W68448  25.061  18.672   8.574 -0.0809  0.0817 -0.2719
25532W        W68449  21.456  19.617   8.284  0.1819  0.1796 -0.1730
25533W        W68450  26.286  21.521   9.372  0.0284 -0.1812 -0.0837
25534W        W68451  22.306  20.749   8.310  0.2826  0.1275  0.1022
25535W        W68452  23.675  19.406   5.170  0.1794  0.0087  0.0384
25536W        W68453  21.385  17.641   9.222  0.4057 -0.1481  0.1810
25537W        W68454  20.465  17.536   7.634  0.0128  0.2622 -0.0426
25538W        W68455  19.229  17.743  11.224 -0.2815 -0.1159  0.2237
25539W        W68456  21.641  16.005   6.476  0.0877 -0.0644 -0.1818
25540W        W68457  23.691  18.678   7.033 -0.5228  0.2474  0.0334
25541W        W68458  22.747  18.079   8.375 -0.1027 -0.2088  0.0491
25542W        W68459  22.357  19.795   6.707  0.0945 -0.0256  0.0049
25543W        W68460  22.368  22.031   7.088 -0.3793  0.0028  0.2394
25544W        W68461  26.278  19.599   8.656  0.1509  0.0352 -0.0821
25545W        W68462  22.336  19.778   8.026  0.0652  0.1276 -0.0765
25546W        W68463  22.002  18.771   9.285  0.0652  0.3281  0.0585
25547W        W68464  20.752  18.138   6.571 -0.0032 -0.2926 -0.0262
25548W        W68465  19.973  19.678   9.865  0.1296 -0.1655 -0.1234
25549W        W68466  22.564  18.725   9.355 -0.0062  0.1249 -0.2330
25550W        W68467  21.299  18.393   5.309  0.0970  0.1199 -0.1088
25551W        W68468  24.048  21.491   7.140  0.1195  0.2609 -0.2697
25552W        W68469  21.180  19.097   9.452 -0.0150 -0.2520  0.2143
25553W        W68470  25.037  21.350   7.930 -0.2924  0.1799 -0.2220
25554W        W68471  24.556  19.178   9.073  0.5189 -0.0645  0.0989
25555W        W68472  21.676  17.450   6.307  0.2744  0.0380  0.2402
25556W        W68473  22.332  20.035   8.467 -0.1634  0.0126 -0.1059
25557W        W68474  22.280  21.247   5.498 -0.0020 -0.0006 -0.1906
25558W        W68475  22.110  20.493   8.959 -0.0411 -0.0442 -0.1845
25559W        W68476  22.887  19.437   8.879  0.1976  0.0691 -0.1360
25560W        W68477  27.111  21.049   8.681 -0.1967  0.0827  0.3700
25561W        W68478  20.660  19.683   7.012 -0.0657 -0.2729 -0.1024
25562W        W68479  23.226  17.076   6.901  0.0747  0.0557  0.1919
25563W        W68480  22.306  16.960   7.987  0.0412 -0.2082 -0.2504
25564W        W68481  25.755  18.253   8.138 -0.1807 -0.1056 -0.1201
25565W        W68482  25.013  19.401   7.445  0.0568 -0.0239  0.1181
25566W        W68483  23.560  18.452   7.499  0.1573 -0.0222  0.0996
25567W        W68484  23.853  20.248   6.743 -0.0864 -0.0175 -0.3491
25568W        W68485  22.322  16.839   8.475  0.0645 -0.1477 -0.2450
25569W        W68486  23.229  18.140   5.180 -0.2874 -0.1117  0.0037
25570W        W68487  25.723  19.966   8.154 -0.1904  0.2353  0.1674
25571W        W68488  18.504  19.738   9.021  0.0517  0.1491 -0.0835
25572W        W68489  23.691  22.069   6.958 -0.0054  0.1528  0.0512
25573W        W68490  24.813  16.208   7.793 -0.0220  0.3047 -0.4144
25574W        W68491  21.053  18.169   7.929 -0.3356 -0.2784  0.1063
25575W        W68492  24.112  16.575   8.399 -0.0311 -0.1082  0.0807
25576W        W68493  22.797  20.870   8.227  0.0593  0.1672  0.1578
25577W        W68494  23.003  19.119   8.389 -0.1701 -0.1732  0.0197
25578W        W68495  22.206  14.838   9.498 -0.0125 -0.3804  0.3574
25579W        W68496  23.093  20.204   8.853  0.3317  0.0168  0.4007
25580W        W68497  25.123  18.387   8.150 -0.1940  0.0675 -0.0986
25581W        W68498  24.216  19.949   6.469  0.1957  0.1118  0.1765
25582W        W68499  22.494  15.973   7.554 -0.1112  0.1779  0.0401
25583W        W68500  23.884  19.358   8.570 -0.1542 -0.2176  0.2294
25584W        W68501  24.094  17.914   6.977  0.0837 -0.0210 -0.1321
25585W        W68502  21.041  19.150   5.858  0.0340  0.1688  0.2074
25586W        W68503  23.467  22.786   6.950  0.2618  0.1356  0.4478
25587W        W68504  21.260  21.219   7.321 -0.1830 -0.1649 -0.0831
25588W        W68505  23.344  16.065   9.143  0.0663 -0.1969  0.1768
25589W        W68506  22.263  19.799   7.527  0.0964  0.0200 -0.0823
25590W        W68507  23.520  20.880   5.173  0.2984  0.0503  0.0757
25591W        W68508  23.580  20.317   7.187 -0.0604 -0.2287  0.1636
25592W        W68509  20.600  20.102   8.637 -0.1314  0.0296 -0.4909
25593W        W68510  24.033  18.356   9.081  0.1274 -0.1636 -0.2792
25594W        W68511  23.377  20.014   8.454 -0.3074 -0.2505  0.0557
25595W        W68512  22.650  18.372   7.922 -0.1531 -0.1726 -0.0432
25596W        W68513  21.167  19.800   7.067 -0.1805  0.0919 -0.2115
25597W        W68514  23.159  17.442   8.687 -0.1347 -0.0434  0.0371
25598W        W68515  23.316  19.510   6.677  0.0077  0.1558  0.1353
25599W        W68516  18.584  22.153  11.583  0.3582 -0.0324 -0.1769
25600W        W68517  22.637  17.391   9.083  0.1849  0.1676  0.0229
25601W        W68518  24.060  19.739   9.240  0.3205 -0.0120  0.0386
25602W        W68519  23.205  18.811   7.323 -0.1487 -0.2070 -0.1078
25603W        W68520  22.866  17.895   7.881 -0.1800 -0.1672 -0.1191
25604W        W68521  25.329  19.221   8.773 -0.0129  0.3615  0.1157
25605W        W68522  24.771  17.999   9.106 -0.0531  0.0638  0.0471
25606W        W68523  21.380  18.892   8.721 -0.3082  0.2322  0.0074
25607W        W68524  25.393  19.840   8.685 -0.1572  0.0162  0.0576
25608W        W68525  22.017  18.948   6.763 -0.0740 -0.0653 -0.0546
25609W        W68526  21.959  18.777   7.774  0.0902 -0.4880  0.1879
25610W        W68527  23.054  18.334   7.590 -0.1372 -0.0153  0.0644
25611W        W68528  22.388  17.882   8.004  0.3421  0.1006  0.0562
25612W        W68529  22.078  18.278   7.960 -0.4065  0.1278 -0.0699
25613W        W68530  26.170  16.914   8.924  0.0238 -0.0474  0.0558
25614W        W68531  23.711  18.748   9.047  0.1599  0.1777  0.2450
25615W        W68532  22.171  16.647   9.385  0.0281  0.5481  0.0834
25616W        W68533  23.262  17.906   9.435 -0.2014 -0.0464 -0.4089
25617W        W68534  22.730  20.968   7.478  0.1546 -0.1040 -0.0814
25618W        W68535  20.946  18.818   7.092  0.2652 -0.1782  0.0752
25619W        W68536  22.167  17.304   8.676  0.0378  0.1028 -0.2459
25620W        W68537  20.545  18.230   9.584  0.1709  0.0696 -0.1193
25621W        W68538  26.375  18.283   8.480  0.2179 -0.2787 -0.1662
25622W        W68539  22.540  19.974   7.173 -0.4197  0.0962  0.1210
25623W        W68540  22.964  20.584   7.288 -0.3013  0.2583 -0.1397
25624W        W68541  24.166  22.689  12.719 -0.3555  0.1644 -0.1123
25625W        W68542  24.444  15.937   7.801  0.4887 -0.1281  0.0164
25626W        W68543  23.425  21.033   6.497 -0.2138  0.0974  0.2958
25627W        W68544  22.370  18.378   8.343 -0.1292  0.0428  0.2746
25628W        W68545  25.312  20.979   7.631  0.3693 -0.0956 -0.1919
25629W        W68546  24.162  18.895   8.800 -0.2103  0.1586 -0.2082
25630W        W68547  23.008  19.492   6.256 -0.1613 -0.0400  0.1460
25631W        W68548  23.697  19.153   6.580  0.1350  0.2128  0.0757
25632W        W68549  21.827  18.284   5.335  0.0927 -0.0862 -0.0996
25633W        W68550  22.863  18.431   8.876  0.2190 -0.4526  0.2052
25634W        W68551  23.056  18.619   9.288  0.2270  0.3711  0.0641
25635W        W68552  22.494  19.232   8.196 -0.2002  0.0704 -0.0858
25636W        W68553  22.810  16.987   8.228  0.0170 -0.1758 -0.1375
25637W        W68554  26.990  19.729   9.123  0.2679  0.0423 -0.1559
25638W        W68555  23.423  19.185   7.015  0.2047  0.0944  0.2391
25639W        W68556  20.969  19.040  10.028  0.1600  0.4012  0.0166
25640W        W68557  21.612  19.432   4.854 -0.3069  0.2213 -0.0216
25641W        W68558  23.021  22.118   7.716  0.1890  0.0907  0.1494
25642W        W68559  25.500  18.621   7.938  0.1100  0.0879 -0.2538
25643W        W68560  24.695  19.415   7.899 -0.2752 -0.0178 -0.0771
25644W        W68561  27.336  17.172   6.651 -0.1633 -0.1910 -0.0316
25645W        W68562  23.520  19.650   7.152 -0.2179 -0.0858 -0.0880
25646W        W68563  22.855  19.978   8.474 -0.0090  0.2391 -0.1445
25647W        W68564  23.256  19.310   7.443 -0.1547 -0.4957 -0.1267
25648W        W68565  21.185  18.322   8.431  0.3149  0.1885 -0.2948
25649W        W68566  24.550  18.440   7.562 -0.1267 -0.0145  0.0559
25650W        W68567  23.084  21.334   6.790 -0.0314 -0.2867  0.1555
25651W        W68568  20.892  19.436   9.194  0.2821 -0.2146  0.1123
25652W        W68569  22.431  17.967   6.176 -0.0218 -0.1425 -0.0110
25653W        W68570  22.757  18.597   6.928 -0.3105  0.2195  0.1345
25654W        W68571  20.696  18.782   6.039 -0.1864  0.3183  0.0169
25655W        W68572  20.418  18.915   7.352  0.0927  0.2467  0.0924
25656W        W68573  25.560  18.393   9.183  0.1684 -0.2311  0.2449
25657W        W68574  22.737  18.691   7.507 -0.0119 -0.0332 -0.0869
25658W        W68575  21.024  20.476   9.289  0.3334 -0.0100 -0.1505
25659W        W68576  24.279  15.496   9.383  0.1164  0.0035  0.1088
25660W        W68577  22.302  23.474   8.770  0.1289  0.0666 -0.0476
25661W        W68578  21.993  18.318   9.024 -0.2164  0.1728  0.1102
25662W        W68579  24.536  18.525   9.040  0.1413 -0.2762 -0.0915
25663W        W68580  21.613  19.825   7.347  0.0893  0.3444 -0.1957
25664W        W68581  22.911  14.918   9.611  0.1716 -0.3532 -0.2027
25665W        W68582  21.603  19.111   9.134  0.1962 -0.1967  0.0924
25666W        W68583  23.753  19.885   8.123  0.1399 -0.1655  0.3655
25667W        W68584  22.333  19.129   9.075 -0.1192  0.3631 -0.0618
25668W        W68585  22.566  17.668   8.689 -0.1394  0.2471  0.4797
25669W        W68586  21.386  16.255   7.697 -0.2857  0.0924 -0.1487
25670W        W68587  23.169  20.257   5.001 -0.1534  0.3561  0.1297
25671W        W68588  20.555  16.752   8.734 -0.2247  0.0858  0.4530
25672W        W68589  22.146  21.133   8.611 -0.0597 -0.1594  0.0890
25673W        W68590  23.461  20.495   6.504  0.4408 -0.1988  0.1513
25674W        W68591  21.814  17.787   7.800  0.0986 -0.0116  0.1017
25675W        W68592  27.006  18.905   8.990 -0.2722  0.2048  0.0522
25676W        W68593  23.262  18.889   8.836  0.2766 -0.1694  0.0814
25677W        W68594  23.553  20.845   8.599  0.2105  0.2565  0.1357
25678W        W68595  21.513  20.132   6.917  0.2865 -0.1860  0.0872
25679W        W68596  24.749  20.909   6.547  0.0215 -0.4178  0.0762
25680W        W68597  21.344  20.345   8.009  0.1113  0.1283  0.4639
25681W        W68598  23.812  17.150   8.257 -0.1799  0.3741  0.0351
25682W        W68599  26.686  19.281   8.902 -0.0276  0.0679  0.2146
25683W        W68600  24.300  18.757   7.307  0.0632  0.0055 -0.2492
25684W        W68601  20.560  20.733   8.563 -0.3711  0.0216  0.0757
25685W        W68602  21.592  18.707   6.441  0.1496  0.0699  0.1906
25686W        W68603  25.181  19.287   5.486 -0.4077 -0.1629 -0.0695
25687W        W68604  21.698  17.611   4.902  0.3056 -0.0534  0.2453
25688W        W68605  21.576  18.347   8.676  0.0375 -0.4296  0.3464
25689W        W68606  23.981  19.266   9.097 -0.1215  0.0235 -0.1029
25690W        W68607  23.929  19.687   6.117 -0.2438  0.3899 -0.1274
25691W        W68608  22.999  18.298   6.620  0.0769  0.1575  0.1758
25692W        W68609  25.145  21.803   6.967  0.0990  0.4408 -0.0662
25693W        W68610  22.909  19.544   8.193 -0.1138  0.0140  0.3745
25694W        W68611  20.362  19.192   9.112  0.2499 -0.1795 -0.0695
25695W        W68612  21.199  18.827   7.978  0.2556 -0.0733 -0.4204
25696W        W68613  32.917  25.530   9.469 -0.0003 -0.1411 -0.1144
25697W        W68614  25.300  20.901   8.181 -0.0321 -0.1773  0.2541
25698W        W68615  21.266  18.304   7.044 -0.1816  0.0878 -0.0114
25699W        W68616  24.134  19.370   6.560  0.3499 -0.0425  0.0485
25700W        W68617  22.381  18.594   8.858 -0.2896  0.0429  0.1035
25701W        W68618  22.711  17.126   8.709  0.3110 -0.1614 -0.1525
25702W        W68619  21.249  18.948   6.756  0.2163  0.0024  0.0226
25703W        W68620  22.850  20.060   5.388  0.0819  0.0542  0.1248
25704W        W68621  22.762  18.680   8.385 -0.0443  0.3343  0.2592
25705W        W68622  23.918  17.698   7.453 -0.1070  0.0609  0.2118
25706W        W68623  23.339  18.581   8.449  0.1947 -0.1506  0.1730
25707W        W68624  19.607  12.890  10.469  0.1450  0.0778  0.0789
25708W        W68625  20.902  19.022   7.656 -0.3246 -0.1035 -0.0899
25709W        W68626  24.412  20.086   7.515 -0.2092 -0.0487  0.0408
25710W        W68627  24.098  21.325   7.740 -0.0432 -0.1120 -0.0903
25711W        W68628  23.161  20.792   5.804  0.2555 -0.1809  0.0496
25712W        W68629  25.477  21.024   9.712 -0.0161  0.1539 -0.2035
25713W        W68630  23.052  19.697   7.153 -0.1963 -0.0694 -0.0195
25714W        W68631  21.799  17.828   8.904  0.0067 -0.0287  0.1486
25715W        W68632  24.460  22.565   8.831  0.1469 -0.0445 -0.0762
25716W        W68633  20.909  18.800  10.693  0.1296  0.2391 -0.0747
25717W        W68634  20.252  13.058  11.058  0.0147  0.2187 -0.0447
25718W        W68635  22.925  16.470   7.730 -0.0866 -0.0646 -0.1969
25719W        W68636  23.114  21.808   8.124  0.0030  0.0763  0.2050
25720W        W68637  23.398  18.335   8.879  0.2419 -0.1348 -0.0197
25721W        W68638  21.567  22.385   5.493 -0.0399 -0.1021 -0.3277
25722W        W68639  26.009  23.999   9.218 -0.0592 -0.1652  0.0391
25723W        W68640  20.074  21.330   8.823 -0.2447 -0.1817  0.1320
25724W        W68641  23.102  16.576   8.187  0.2485 -0.4955  0.2247
25725W        W68642  20.559  20.707   4.015 -0.0751  0.1088  0.3374
25726W        W68643  23.525  21.893   7.898 -0.0321  0.0743 -0.3624
25727W        W68644  22.601  15.940   8.955  0.0043  0.2319 -0.1959
25728W        W68645  24.246  19.640   8.244  0.0568 -0.1024  0.0992
25729W        W68646  22.229  15.954   8.117  0.1344  0.0849 -0.0427
25730W        W68647  25.416  17.836   7.275  0.2476  0.1989  0.0148
25731W        W68648  24.904  20.111   8.474 -0.2034 -0.4480 -0.0437
25732W        W68649  22.151  22.678  12.268 -0.0863 -0.0510 -0.3194
25733W        W68650  21.594  21.621   8.012 -0.0431 -0.1948 -0.0814
25734W        W68651  21.989  20.774   7.712 -0.3894  0.0502 -0.1860
25735W        W68652  21.545  18.083   8.123  0.1205 -0.3730  0.0093
25736W        W68653  21.854  19.691   7.794  0.0024 -0.0443  0.0389
25737W        W68654  21.941  17.547   6.686  0.6564  0.0071  0.2227
25738W        W68655  21.724  20.438   7.208 -0.1100 -0.1177  0.1655
25739W        W68656  22.267  18.340   9.549  0.2110 -0.0997 -0.1870
25740W        W68657  19.775  19.626   9.288  0.1035  0.0557  0.2280
25741W        W68658  24.355  20.643   6.613  0.1205  0.0712 -0.0662
25742W        W68659  21.615  22.407   6.973 -0.1408 -0.1334 -0.1531
25743W        W68660  25.097  19.368   9.273  0.0901 -0.5237  0.0236
25744W        W68661  22.308  20.288   6.779  0.3182 -0.1021 -0.0069
25745W        W68662  21.116  18.066   5.657 -0.2619 -0.0349 -0.4131
25746W        W68663  23.583  20.291   8.849 -0.1985  0.1082 -0.1495
25747W        W68664  23.361  20.763   7.528  0.0293 -0.1310 -0.2812
25748W        W68665  25.858  22.541   8.362 -0.0367  0.1746 -0.4307
25749W        W68666  23.060  16.762   8.664  0.3588 -0.4485  0.1079
25750W        W68667  23.026  20.425   6.803 -0.1185  0.0253 -0.1710
25751W        W68668  23.387  20.207   5.506  0.3787  0.4032 -0.2588
25752W        W68669  24.474  17.546   8.221 -0.2225  0.0304 -0.0400
25753W        W68670  21.789  18.430   7.363 -0.1981  0.0884  0.0316
25754W        W68671  23.881  17.283   7.199  0.0496  0.2692  0.2127
25755W        W68672  22.144  17.395   7.749 -0.2118 -0.0736 -0.0829
25756W        W68673  25.102  18.908   7.126 -0.0148 -0.0555 -0.4319
25757W        W68674  23.131  20.045   7.510 -0.0305 -0.0171 -0.2942
25758W        W68675  21.411  16.054   9.832  0.0079  0.2791  0.0929
25759W        W68676  23.401  17.358   9.121  0.0617  0.3873 -0.0610
25760W        W68677  21.625  16.727   9.076 -0.2778  0.1472 -0.1796
25761W        W68678  20.297  18.834   8.000 -0.0014 -0.0147 -0.0239
25762W        W68679  24.814  18.482   7.161 -0.0358 -0.2893  0.2220
25763W        W68680  24.677  20.224   6.546 -0.1894 -0.0702 -0.1166
25764W        W68681  20.842  18.672   9.559  0.0174  0.2299 -0.1782
25765W        W68682  21.233  19.418   8.804  0.2262 -0.4906  0.2104
25766W        W68683  21.186  18.579   7.527  0.1125  0.1580 -0.2122
25767W        W68684  21.498  18.973   7.435  0.0670  0.1550  0.2013
25768W        W68685  23.292  19.135   9.358 -0.3562  0.1567  0.0900
25769W        W68686  28.346  20.628   7.993  0.0011  0.1409 -0.0543
25770W        W68687  20.647  17.455   9.944  0.1211 -0.1947 -0.0144
25771W        W68688  23.930  17.350   8.812 -0.0263 -0.3992 -0.2009
25772W        W68689  25.025  23.317   7.877 -0.0329 -0.2136 -0.0117
25773W        W68690  24.758  18.962   7.474  0.1719  0.3418  0.0014
25774W        W68691  22.288  24.352   3.339 -0.1511  0.2794  0.0550
25775W        W68692  20.697  21.723   0.267 -0.1262  0.0632 -0.3016
25776W        W68693  23.611  22.169   0.562  0.2159 -0.0295 -0.2109
25777W        W68694  23.494  21.282   2.476  0.0853  0.0075 -0.0028
25778W        W68695  21.033  21.348  31.936  0.1141  0.0894  0.2049
25779W        W68696  22.396  19.691   3.039 -0.0772 -0.2045  0.0220
25780W        W68697  23.460  23.434   1.981 -0.1613 -0.0854  0.0146
25781W        W68698  25.618  24.664   1.765  0.1906  0.2067  0.2794
25782W        W68699  23.023  24.893  30.162 -0.4602 -0.1729  0.2078
25783W        W68700  23.178  21.679   2.432  0.0424 -0.1062 -0.1754
25784W        W68701  22.896  24.161   1.407  0.2286 -0.0794  0.2740
25785W        W68702  19.677  21.902  30.838 -0.1244 -0.1892  0.0313
25786W        W68703  21.575  18.702   2.457 -0.1318  0.2261 -0.2011
25787W        W68704  23.845  22.186   1.500  0.1730 -0.0068 -0.0773
25788W        W68705  21.312  22.873   0.945 -0.0302 -0.1404  0.1153
25789W        W68706  23.251  22.233   0.206  0.0039  0.1871  0.2971
25790W        W68707  23.689  21.197   1.698  0.3453  0.3462 -0.1925
25791W        W68708  21.712  24.059   2.211 -0.0992  0.0897  0.0592
25792W        W68709  21.152  21.404   3.612 -0.4339 -0.0528  0.0654
25793W        W68710  24.320  22.201   1.317  0.4583 -0.3221 -0.0347
25794W        W68711  22.520  21.195   2.235 -0.0065  0.0343 -0.0183
25795W        W68712  21.860  22.724   0.924  0.3103  0.0557  0.2646
25796W        W68713  21.604  22.413   2.865  0.0478 -0.0161 -0.0141
25797W        W68714  22.527  23.326   3.613 -0.0259  0.1930  0.1728
25798W        W68715  23.082  23.883   2.060 -0.1902  0.0559 -0.1146
25799W        W68716  23.005  22.445   1.853 -0.1550  0.1895 -0.2265
25800W        W68717  21.352  25.543   1.342 -0.0050  0.1081 -0.1958
25801W        W68718  24.681  25.095   2.401 -0.1996  0.4575  0.2560
25802W        W68719  23.603  22.319   2.941 -0.1324  0.2410  0.3547
25803W        W68720  22.125  25.922   1.648  0.0298 -0.1154 -0.0535
25804W        W68721  23.019  25.996   2.283  0.1603  0.0677 -0.0791
25805W        W68722  23.404  24.802   1.832  0.0303 -0.1146  0.0005
25806W        W68723  23.620  25.237   2.032 -0.1641 -0.0687 -0.2429
25807W        W68724  25.220  25.112   4.558  0.1225  0.1908 -0.0097
25808W        W68725  25.015  24.410   3.032  0.4422  0.0135 -0.0038
25809W        W68726  22.003  25.404  31.668 -0.3712  0.2360 -0.1842
25810W        W68727  24.238  25.306   3.978 -0.1401  0.0744  0.0325
25811W        W68728  22.678  26.474   4.184  0.2504  0.1811  0.0052
25812W        W68729  24.439  23.757   2.008  0.2562  0.0118 -0.0829
25813W        W68730  22.931  22.727   2.300 -0.1077 -0.4464  0.2546
25814W        W68731  21.291  24.935  31.383  0.0309  0.0893  0.4619
25815W        W68732  22.770  24.584   1.992 -0.0045 -0.2905  0.3991
25816W        W68733  21.187  24.937   2.919 -0.0921  0.1615  0.0372
25817W        W68734  19.527  23.302   2.714  0.1290 -0.1112 -0.0914
25818W        W68735  25.252  21.665   2.929  0.0551  0.0729 -0.1747
25819W        W68736  22.930  23.166  31.869 -0.3322  0.1992 -0.2272
25820W        W68737  22.755  20.475  31.904 -0.3331  0.0155  0.0808
25821W        W68738  21.716  21.237   1.036 -0.0510 -0.1366  0.1912
25822W        W68739  25.937  24.041   1.157 -0.2051  0.1826 -0.1116
25823W        W68740  20.542  23.217   2.484 -0.0013 -0.1790 -0.0210
25824W        W68741  22.701  26.349   1.101 -0.3389 -0.0805 -0.1151
25825W        W68742  22.291  21.849   0.349  0.0335 -0.1423 -0.0453
25826W        W68743  24.537  22.423   2.687  0.1950  0.3800 -0.0451
25827W        W68744  24.094  22.510   0.332 -0.2021 -0.3217  0.2672
25828W        W68745  20.713  22.900   1.812 -0.2413  0.3330  0.3334
25829W        W68746  21.863  23.567   0.367  0.3095 -0.2389  0.0981
25830W        W68747  21.891  22.573   0.431  0.0108  0.1304 -0.0139
25831W        W68748  26.443  22.941  30.881 -0.0289 -0.4277  0.3606
25832W        W68749  25.682  25.351   1.975  0.0472  0.0330  0.2565
25833W        W68750  23.808  24.596  31.232 -0.0247  0.0312 -0.0761
25834W        W68751  20.781  22.844   0.961 -0.2176  0.2895  0.2135
25835W        W68752  21.470  23.883   3.073 -0.2639  0.0839  0.2168
25836W        W68753  22.171  21.435   1.897 -0.0992  0.1968  0.1800
25837W        W68754  21.177  20.461   0.827 -0.0340 -0.4346  0.2249
25838W        W68755  25.160  23.140   1.932 -0.0506  0.0265  0.0117
25839W        W68756  22.307  24.540   2.782  0.0758 -0.2198 -0.0022
25840W        W68757  23.729  21.636   0.591 -0.2808 -0.1023 -0.0044
25841W        W68758  20.609  23.679   2.366 -0.1345 -0.1638 -0.3314
25842W        W68759  25.392  23.599   0.969 -0.2494 -0.1275 -0.2023
25843W        W68760  24.276  21.127   0.904  0.1032  0.0735  0.3200
25844W        W68761  25.302  20.585   2.478  0.0035 -0.0393  0.0943
25845W        W68762  25.074  21.097   4.289 -0.0482 -0.4023  0.2981
25846W        W68763  21.829  21.041   0.564  0.0311 -0.0198 -0.0598
25847W        W68764  23.471  24.561   0.954 -0.2699  0.0696 -0.0686
25848W        W68765  24.212  22.173   2.424  0.3750  0.1264  0.0596
25849W        W68766  23.415  21.744  30.871  0.0414  0.2132  0.0398
25850W        W68767  21.476  24.251   2.688  0.1931  0.0351  0.0066
25851W        W68768  22.444  21.302   3.187 -0.0460  0.0831  0.3937
25852W        W68769  23.244  23.882   3.381 -0.0547  0.0954  0.1275
25853W        W68770  22.843  25.658   0.194 -0.1267  0.0667  0.0732
25854W        W68771  22.351  23.464   2.919  0.0145 -0.0887 -0.3251
25855W        W68772  22.017  23.175   2.575  0.1683 -0.1397  0.2520
25856W        W68773  19.624  21.994   2.436 -0.2589 -0.0843 -0.3210
25857W        W68774  21.949  25.811   2.991 -0.1362  0.5041  0.2747
25858W        W68775  22.699  20.091   2.699  0.4267 -0.2852 -0.0897
25859W        W68776  22.119  24.051   1.990  0.0001 -0.0640 -0.1100
25860W        W68777  24.524  20.986   1.497 -0.1970 -0.0068 -0.2367
25861W        W68778  22.307  23.836   2.374  0.1483  0.0936  0.0491
25862W        W68779  25.450  24.015   1.231  0.2870  0.2857  0.0720
25863W        W68780  23.764  22.248   0.075 -0.2435 -0.0119  0.3679
25864W        W68781  24.537  23.442  30.660  0.0657  0.1509  0.2631
25865W        W68782  22.137  22.347   1.677 -0.3018  0.0374  0.3180
25866W        W68783  21.782  22.142   0.689  0.0249  0.0617 -0.1362
25867W        W68784  22.800  21.843   2.793  0.1070  0.0244 -0.1193
25868W        W68785  21.146  21.631   1.750 -0.0748 -0.0007  0.0697
25869W        W68786  25.075  22.415   2.192  0.0644  0.0573 -0.2087
25870W        W68787  21.643  21.603   0.578 -0.0029 -0.0031 -0.1662
25871W        W68788  23.953  20.867   1.393  0.3107 -0.0147  0.1669
25872W        W68789  22.773  21.033  31.665 -0.0900 -0.0547 -0.2081
25873W        W68790  21.417  24.702   2.479  0.1202 -0.0089  0.2303
25874W        W68791  25.551  21.598   1.778 -0.0994 -0.2906 -0.3611
25875W        W68792  23.885  24.879   1.758  0.4445  0.0811 -0.1054
25876W        W68793  26.139  24.233   3.905  0.1113  0.2901 -0.0852
25877W        W68794  24.373  25.102   1.950 -0.1209  0.1253 -0.1283
25878W        W68795  20.722  20.900   2.921 -0.0818  0.5054  0.0676
25879W        W68796  19.986  19.870   0.291 -0.0426  0.0950 -0.0487
25880W        W68797  20.909  28.079   2.173 -0.2659  0.0863 -0.0171
25881W        W68798  22.694  24.098   1.832 -0.0892  0.0015 -0.0966
25882W        W68799  22.467  20.634  31.404 -0.1857 -0.2396 -0.0613
25883W        W68800  25.841  24.953   2.199  0.0405 -0.0341 -0.2940
25884W        W68801  24.071  23.207  30.578  0.0548 -0.0042 -0.4283
25885W        W68802  23.005  24.103   2.904  0.2746  0.0851 -0.0416
25886W        W68803  23.393  24.130   2.392  0.1070  0.1305  0.4325
25887W        W68804  26.587  25.587   3.668 -0.2862  0.1433  0.0028
25888W        W68805  20.575  22.538   0.619 -0.2259 -0.0542  0.0877
25889W        W68806  21.340  21.012   0.708  0.0532 -0.2013  0.1378
25890W        W68807  23.718  24.465   2.070 -0.2418 -0.1250 -0.0411
25891W        W68808  23.467  21.931   1.790  0.0023 -0.2007  0.0608
25892W        W68809  21.471  25.042   1.262 -0.1350  0.0489  0.0020
25893W        W68810  21.970  24.084   2.668  0.4654 -0.1746 -0.1472
25894W        W68811  23.590  20.870   3.675  0.1840  0.0603  0.0333
25895W        W68812  19.420  23.321   4.074  0.0217 -0.0023  0.0618
25896W        W68813  22.880  21.267   3.626  0.0088 -0.1196  0.0550
25897W        W68814  20.753  22.200  31.756  0.0788 -0.0813  0.0903
25898W        W68815  21.932  24.769   1.426 -0.5344 -0.0748  0.1287
25899W        W68816  23.974  21.032   0.048  0.1742  0.1613  0.1576
25900W        W68817  24.499  22.578  31.921 -0.2211  0.1499  0.1275
25901W        W68818  22.983  23.353   2.209 -0.0987  0.3042 -0.0631
25902W        W68819  25.816  20.969  31.532 -0.0386 -0.2287 -0.1218
25903W        W68820  24.197  20.870  30.634 -0.0220  0.3680 -0.2135
25904W        W68821  23.377  23.359   1.098 -0.1645  0.2599 -0.1002
25905W        W68822  20.746  22.060   4.068 -0.0441 -0.2429  0.0141
25906W        W68823  23.672  24.794   2.763 -0.0276  0.2298 -0.1661
25907W        W68824  21.302  22.765   2.683 -0.2629 -0.1922 -0.1605
25908W        W68825  24.230  22.087  31.917  0.1554 -0.1147  0.3905
25909W        W68826  24.321  25.215  31.768 -0.0581 -0.2002  0.2417
25910W        W68827  21.712  23.515   3.353 -0.1119  0.0716 -0.1477
25911W        W68828  24.136  23.815   1.347 -0.1916  0.2495 -0.1691
25912W        W68829  22.566  23.609   2.055  0.0353 -0.1103  0.2743
25913W        W68830  21.713  23.450   2.196 -0.0411 -0.2141 -0.1461
25914W        W68831  22.046  23.668   1.134  0.2014 -0.1642 -0.0447
25915W        W68832  21.048  23.333   0.902 -0.0365  0.1789 -0.0870
25916W        W68833  21.874  23.042   0.135 -0.3326 -0.1180 -0.2310
25917W        W68834  23.912  21.043   3.338  0.0807  0.0366 -0.1727
25918W        W68835  22.187  22.308   2.355 -0.1576  0.0882 -0.3367
25919W        W68836  20.492  21.437   2.190 -0.0505 -0.0874  0.2060
25920W        W68837  23.984  22.632   3.409  0.0307 -0.2594 -0.1011
25921W        W68838  23.217  23.674   0.187 -0.2172  0.2491 -0.0023
25922W        W68839  22.319  23.258   0.279  0.1149  0.1851  0.1227
25923W        W68840  21.881  21.363  31.137  0.0398 -0.1467  0.2068
25924W        W68841  22.671  20.690   2.067  0.0153 -0.0011  0.1319
25925W        W68842  22.501  24.467   4.271  0.2809 -0.1678 -0.1483
25926W        W68843  22.703  24.543   3.076 -0.1303 -0.0040 -0.0763
25927W        W68844  23.873  26.396   4.380  0.0431 -0.2813 -0.0973
25928W        W68845  24.872  23.211   1.445 -0.0292  0.0214  0.1326
25929W        W68846  23.860  23.900   2.526  0.3756  0.1370 -0.1423
25930W        W68847  22.499  23.466   1.306  0.2840 -0.1307  0.4576
25931W        W68848  24.734  23.074   0.056  0.2889 -0.1805 -0.4898
25932W        W68849  23.825  23.131  31.567 -0.0933 -0.1078  0.1220
25933W        W68850  24.037  22.592   2.841  0.1875 -0.1235 -0.0342
25934W        W68851  23.419  26.473   1.651  0.1054 -0.0516 -0.0711
25935W        W68852  23.545  25.013   0.809  0.1982 -0.1463  0.0774
25936W        W68853  23.033  23.406   3.563 -0.1232  0.1745  0.1404
25937W        W68854  20.985  24.557   2.647 -0.1188 -0.0848 -0.2241
25938W        W68855  23.308  21.622   3.856 -0.3157  0.0715 -0.0475
25939W        W68856  21.675  24.785   2.905 -0.0591  0.0852 -0.0990
25940W        W68857  23.113  23.102   0.796 -0.1313  0.2211  0.0184
25941W        W68858  19.320  22.809  31.210  0.0605 -0.0332  0.0680
25942W        W68859  26.564  22.408   2.987 -0.0238 -0.3098 -0.4475
25943W        W68860  25.160  23.029  31.633  0.2648  0.2618  0.2891
25944W        W68861  21.652  22.994   0.588 -0.2594  0.1431 -0.2275
25945W        W68862  24.175  23.476   2.410 -0.0660  0.2037  0.1199
25946W        W68863  22.044  23.876   3.114  0.2471  0.2259 -0.2717
25947W        W68864  23.139  22.948   3.230 -0.1743  0.1249 -0.1479
25948W        W68865  23.003  21.774   0.226  0.1969 -0.2448  0.2704
25949W        W68866  23.805  26.123   3.582  0.0855 -0.3012 -0.0741
25950W        W68867  21.831  22.180   2.047 -0.2680 -0.1132 -0.1497
25951W        W68868  20.435  20.648  31.484  0.0505 -0.0587 -0.0158
25952W        W68869  24.724  22.079   2.338 -0.1846  0.1824 -0.1032
25953W        W68870  23.095  21.162  30.424 -0.0691  0.2235 -0.1473
25954W        W68871  22.003  26.309   1.980 -0.2852 -0.1112  0.3350
25955W        W68872  22.998  24.462   0.380 -0.2815  0.1597 -0.2149
25956W        W68873  22.262  24.875   1.950 -0.1786 -0.3643  0.0905
25957W        W68874  21.942  26.804   1.015 -0.0196 -0.2208 -0.2049
25958W        W68875  23.737  21.814   3.759 -0.2519 -0.0835  0.0309
25959W        W68876  25.784  23.762   2.038  0.0198 -0.1373 -0.3592
25960W        W68877  23.699  22.042   2.442 -0.3010  0.0138  0.1809
25961W        W68878  20.898  21.194   1.454  0.1433 -0.2291  0.0809
25962W        W68879  22.480  21.903   1.869  0.0038  0.2942 -0.1027
25963W        W68880  23.230  22.296   2.571 -0.0680 -0.2106  0.0435
25964W        W68881  23.634  22.953   3.348 -0.3163 -0.2580  0.0357
25965W        W68882  20.844  25.152   4.338 -0.3092  0.0800 -0.2978
25966W        W68883  23.938  19.473   1.846  0.0307  0.3691  0.1608
25967W        W68884  23.398  25.522  31.347 -0.0364  0.0388  0.0632
25968W        W68885  23.742  23.886   2.010 -0.1156  0.2514 -0.2037
25969W        W68886  23.282  23.117   0.295  0.0753 -0.0576  0.2849
25970W        W68887  20.089  21.728   2.196 -0.1142 -0.1403  0.2180
25971W        W68888  23.715  23.355   0.191  0.1143  0.2874 -0.0527
25972W        W68889  22.359  22.914   1.638  0.4485  0.3951  0.1014
25973W        W68890  24.276  26.321   1.466  0.0741  0.1624 -0.0305
25974W        W68891  22.086  24.782  31.139  0.1981  0.0383  0.0151
25975W        W68892  20.479  23.285   1.041  0.3614  0.0827 -0.0311
25976W        W68893  25.623  21.682   0.138  0.2377 -0.1596  0.1659
25977W        W68894  24.541  23.986  30.339  0.1363  0.1996  0.1613
25978W        W68895  25.328  19.996   4.323 -0.0539 -0.3008  0.0944
25979W        W68896  26.656  24.363   3.927  0.0284 -0.1832  0.1209
25980W        W68897  24.111  23.619   0.273  0.0876 -0.1296  0.0428
25981W        W68898  24.426  22.953   3.407  0.1319 -0.2510  0.0573
25982W        W68899  21.505  22.471   1.767 -0.5449 -0.1551  0.2898
25983W        W68900  21.634  23.932   1.125 -0.1042  0.3827 -0.1738
25984W        W68901  19.750  22.720   2.114  0.2987  0.0400 -0.1440
25985W        W68902  25.680  23.507   2.686  0.0720 -0.2276 -0.1457
25986W        W68903  21.584  24.472   3.984  0.2438  0.1466 -0.0725
25987W        W68904  22.383  22.784   1.111 -0.1328  0.0539 -0.2322
25988W        W68905  23.122  21.581   0.680 -0.0478 -0.0091 -0.2161
25989W        W68906  22.007  20.621   2.021 -0.1146  0.3328  0.1557
25990W        W68907  25.468  24.345   0.403  0.0083 -0.0763 -0.1883
25991W        W68908  25.673  23.918   0.705 -0.1109  0.0254  0.0950
25992W        W68909  24.922  22.701   0.461  0.0357 -0.0770 -0.1133
25993W        W68910  20.244  23.019   3.256  0.0145 -0.0060  0.0061
25994W        W68911  23.118  20.494   2.246 -0.2181  0.0443  0.0615
25995W        W68912  23.308  23.131   1.529  0.0248  0.0813 -0.0433
25996W        W68913  21.582  23.293   1.230  0.2228  0.1636 -0.1000
25997W        W68914  22.868  23.462   1.682 -0.1563  0.1440 -0.2676
25998W        W68915  23.975  22.974   0.320  0.1698 -0.2341 -0.1782
25999W        W68916  22.403  19.174   1.987  0.2382 -0.0740  0.1334
26000W        W68917  23.873  19.743   0.628 -0.1546 -0.0697 -0.0270
26001W        W68918  23.185  21.444   1.993 -0.0302 -0.0986 -0.3692
26002W        W68919  22.527  23.009   2.175 -0.3203  0.1521 -0.0923
26003W        W68920  23.541  23.299   3.797 -0.1223  0.3292 -0.0516
26004W        W68921  24.399  23.362   3.136  0.1302  0.2678 -0.0600
26005W        W68922  25.128  22.193   0.359  0.0842  0.3302 -0.4689
26006W        W68923  21.840  20.499   2.425 -0.4959 -0.0844  0.0305
26007W        W68924  24.992  22.600  31.925 -0.1191  0.1861  0.1231
26008W        W68925  23.481  22.586   1.540  0.2195 -0.1341  0.2766
26009W        W68926  21.757  21.168   2.040 -0.1264 -0.2162  0.0104
26010W        W68927  23.487  23.399   3.236 -0.0111  0.1003 -0.1040
26011W        W68928  22.533  22.038  31.194 -0.3362  0.0744  0.0192
26012W        W68929  23.660  21.666   2.787 -0.0097  0.0146  0.1325
26013W        W68930  22.157  23.182  31.741  0.1251 -0.4809  0.4257
26014W        W68931  23.268  20.792   1.871  0.0608 -0.1136 -0.1879
26015W        W68932  23.923  21.878   1.075 -0.1992  0.2144  0.1284
26016W        W68933  19.597  23.521   1.204 -0.4317  0.0020  0.1853
26017W        W68934  22.439  25.924   2.076  0.2176  0.2761 -0.1430
26018W        W68935  21.165  21.614  29.457 -0.2886  0.3893  0.1247
26019W        W68936  23.922  24.752   0.225 -0.1879  0.0225  0.1117
26020W        W68937  25.058  23.052   2.409  0.0675 -0.0632 -0.1852
26021W        W68938  24.629  23.385   2.632  0.0873  0.0714  0.0497
26022W        W68939  23.042  21.881  31.508 -0.2255  0.1094 -0.0224
26023W        W68940  24.175  21.359   3.602 -0.1668 -0.6111  0.1257
26024W        W68941  21.209  25.017   0.696  0.3048 -0.0147 -0.1038
26025W        W68942  23.398  22.129   3.955 -0.1571  0.1681 -0.1308
26026W        W68943  22.815  25.007   3.268 -0.1468 -0.2768 -0.0991
26027W        W68944  21.680  22.656   1.356  0.1668  0.4791  0.0119
26028W        W68945  22.142  24.128  31.741 -0.1182  0.2818  0.1313
26029W        W68946  22.168  20.252   3.895 -0.2106  0.1657 -0.0361
26030W        W68947  23.096  21.011   2.266  0.0116  0.0404  0.3033
26031W        W68948  22.767  22.864   0.422 -0.1946 -0.1200 -0.2402
26032W        W68949  26.497  21.698   4.637  0.0845 -0.0171 -0.0694
26033W        W68950  23.940  22.130   3.373  0.0080  0.1957  0.0179
26034W        W68951  22.715  23.044   1.349 -0.1082 -0.0873  0.1556
26035W        W68952  24.884  24.165   1.170 -0.2345  0.1035  0.0187
26036W        W68953  24.049  24.064   0.002 -0.4210  0.0327  0.0146
26037W        W68954  23.221  24.326   1.879  0.1987  0.2730 -0.2085
26038W        W68955  22.856  22.950   1.810  0.1230 -0.0310  0.1228
26039W        W68956  23.448  22.351   2.059  0.0902  0.1315 -0.3155
26040W        W68957  22.484  24.055   2.862  0.2321 -0.1610 -0.0985
26041W        W68958  19.867  21.293   1.237  0.3380  0.0873 -0.1269
26042W        W68959  22.815  24.107  30.468 -0.2454  0.0607 -0.0959
26043W        W68960  22.668  23.796   3.826  0.1635  0.3235 -0.2869
26044W        W68961  20.999  23.160   3.766  0.0160 -0.2269  0.1429
26045W        W68962  21.810  25.731   1.221 -0.0038  0.3916  0.5005
26046W        W68963  23.365  24.098   0.457 -0.3020  0.0618 -0.2729
26047W        W68964  23.862  24.276   0.451 -0.4333 -0.0651  0.3061
26048W        W68965  23.210  24.947   1.228  0.2347 -0.0446  0.4172
26049W        W68966  24.178  22.760  30.121 -0.0694 -0.1489 -0.2104
26050W        W68967  23.343  25.803   1.022  0.1327 -0.3999  0.1523
26051W        W68968  21.360  23.795   2.558  0.0910 -0.0322  0.1310
26052W        W68969  25.170  22.317  31.047  0.0007 -0.2764  0.1218
26053W        W68970  22.189  25.527   2.638 -0.0138 -0.0574  0.1883
26054W        W68971  23.132  25.478   3.401  0.0247 -0.0851 -0.1201
26055W        W68972  24.069  21.956   0.411  0.4061  0.1202  0.3984
26056W        W68973  25.781  23.036   0.209  0.3308  0.2517  0.1560
26057W        W68974  25.912  22.377   1.431  0.3682 -0.0524 -0.3039
26058W        W68975  23.242  23.843   4.564  0.0135  0.2146  0.1310
26059W        W68976  23.365  24.010   1.129  0.2119  0.3392 -0.0565
26060W        W68977  20.524  21.177  31.610 -0.0877  0.0625  0.0296
26061W        W68978  21.228  23.596   3.577 -0.2810  0.2388 -0.0851
26062W        W68979  26.296  21.970   2.448 -0.1789 -0.1858  0.1842
26063W        W68980  20.489  24.022   3.186  0.0362 -0.1400  0.3704
26064W        W68981  25.897  25.391  31.960  0.0069 -0.0878  0.1728
26065W        W68982  20.618  21.838  31.259  0.0894 -0.0246  0.0475
26066W        W68983  21.883  22.682   2.580 -0.2212  0.1123 -0.4033
26067W        W68984  26.400  22.820   2.228 -0.0357 -0.0814 -0.0842
26068W        W68985  21.868  25.716  30.782  0.0707 -0.3022  0.1534
26069W        W68986  22.661  22.464   1.484  0.0919 -0.1709  0.1506
26070W        W68987  22.335  23.678  31.501  0.0703  0.3266  0.4760
26071W        W68988  21.902  24.564   2.472 -0.0984 -0.2187  0.6371
26072W        W68989  21.435  25.363   1.897  0.0505 -0.1283 -0.0441
26073W        W68990  20.196  21.794   0.334  0.2784  0.2099  0.1389
26074W        W68991  26.125  24.038   0.616  0.1010  0.1354 -0.0927
26075W        W68992  22.500  22.577   1.977  0.1540  0.0936  0.2202
26076W        W68993  26.090  23.642   2.894 -0.1877  0.0621 -0.0967
26077W        W68994  22.924  23.690   1.231  0.2389  0.1149  0.0203
26078W        W68995  24.999  23.705   1.309 -0.1088 -0.0033  0.0694
26079W        W68996  25.428  22.988   2.767  0.0487 -0.1694  0.3215
26080W        W68997  21.665  21.980   1.523  0.2525 -0.2857  0.0343
26081W        W68998  23.138  22.115   0.768  0.1121  0.1415  0.0062
26082W        W68999  25.140  22.061   2.656 -0.0485 -0.1072  0.1233
26083W        W69000  23.625  23.763  31.468  0.0183  0.0451  0.0121
26084W        W69001  24.056  25.292   3.528  0.1682  0.1500 -0.1045
26085W        W69002  19.660  22.480   0.817 -0.1361 -0.3571 -0.0377
26086W        W69003  24.328  21.488  31.682  0.0102  0.0337  0.2239
26087W        W69004  22.022  23.245   0.788 -0.1539 -0.2821  0.0952
26088W        W69005  21.373  22.503   0.579 -0.0533 -0.4239 -0.1256
26089W        W69006  26.165  24.139   3.383 -0.0284 -0.2306  0.1859
26090W        W69007  20.670  20.316   0.975  0.0478  0.2324  0.2538
26091W        W69008  25.055  23.568  31.769  0.1893  0.1118  0.1561
26092W        W69009  22.702  19.308   2.782  0.2410 -0.1227 -0.0699
26093W        W69010  23.086  25.321   0.908 -0.0042  0.1619 -0.0893
26094W        W69011  24.264  23.156  31.928 -0.1875  0.0779 -0.1744
26095W        W69012  24.852  23.605   1.785  0.0431  0.3421 -0.2912
26096W        W69013  19.731  21.299   2.049  0.0506 -0.0550 -0.1345
26097W        W69014  24.573  24.223   2.038 -0.1124 -0.4301  0.0347
26098W        W69015  24.646  25.161   0.919 -0.2781 -0.2324 -0.2622
26099W        W69016  23.172  22.817   1.192 -0.0837  0.0712  0.0436
26100W        W69017  22.633  22.135   1.051  0.0878 -0.1710  0.4254
26101W        W69018  21.277  25.783   2.194  0.1322  0.0672 -0.0437
26102W        W69019  23.613  21.551   2.107 -0.4233  0.4805  0.1525
26103W        W69020  22.434  20.891   2.875 -0.1913  0.1609 -0.2190
26104W        W69021  24.350  24.185   0.357  0.1020 -0.0102 -0.2225
26105W        W69022  23.789  22.251   4.691 -0.0148 -0.1328 -0.1155
26106W        W69023  23.787  23.524   1.619 -0.2848  0.3138 -0.1179
26107W        W69024  24.422  24.610   3.812  0.1209 -0.2562  0.1032
26108W        W69025  20.686  23.683   0.703  0.4621  0.2665 -0.0222
26109W        W69026  24.125  23.847   3.036 -0.0138 -0.2808 -0.1035
26110W        W69027  23.688  22.712   2.405 -0.3650  0.1253 -0.1471
26111W        W69028  23.982  24.507   1.444  0.5561 -0.1261 -0.1117
26112W        W69029  21.637  24.124   1.719  0.3097  0.2558  0.1970
26113W        W69030  24.109  22.862   0.983  0.0680 -0.0732 -0.0817
26114W        W69031  24.614  23.970   1.551  0.1485  0.0215 -0.1626
26115W        W69032  24.582  21.118   3.358  0.0245 -0.0261  0.0152
26116W        W69033  24.936  23.147   0.554  0.2027 -0.0627  0.1245
26117W        W69034  23.161  21.591   1.479 -0.1704  0.2136  0.0388
26118W        W69035  21.454  23.284   2.594 -0.1331 -0.0533 -0.1267
26119W        W69036  23.436  21.750   1.108  0.0075  0.0692  0.0937
26120W        W69037  20.308  20.721  31.014  0.1033  0.3236 -0.0572
26121W        W69038  21.880  24.497   1.986 -0.0913  0.0332 -0.0636
26122W        W69039  24.460  23.854   3.409 -0.1249 -0.1277 -0.1891
26123W        W69040  23.506  22.820   2.873 -0.2388 -0.3631 -0.3847
26124W        W69041  22.244  22.928   2.931  0.1468 -0.1293 -0.1312
26125W        W69042  20.341  23.136  30.858 -0.1142 -0.1245 -0.1801
26126W        W69043  23.634  22.868   1.171  0.1097 -0.1109  0.0390
26127W        W69044  20.272  20.777   2.635 -0.2426 -0.1169  0.2731
26128W        W69045  20.257  20.976   0.396  0.2360 -0.0481 -0.2832
26129W        W69046  23.979  23.247   1.275 -0.0881  0.0969  0.2434
26130W        W69047  23.373  24.471  31.871 -0.0009 -0.1887  0.1117
26131W        W69048  22.165  22.438   2.937  0.1514  0.0602  0.2709
26132W        W69049  25.276  26.331   4.733 -0.5228  0.2038  0.0225
26133W        W69050  19.100  23.166   0.208  0.1493  0.1476  0.0397
26134W        W69051  22.206  23.383   1.741  0.0049 -0.3722  0.2485
26135W        W69052  22.327  20.895   4.187 -0.0124  0.0652  0.2123
26136W        W69053  20.764  20.956  31.202 -0.1722  0.2764 -0.1584
26137W        W69054  22.801  20.675   1.361  0.1514 -0.1668  0.0385
26138W        W69055  23.658  23.173   0.736 -0.1496 -0.3710 -0.2691
26139W        W69056  23.942  25.818   0.117  0.0729  0.0015  0.1206
26140W        W69057  23.220  24.620   2.308 -0.1306 -0.1058  0.0303
26141W        W69058  21.888  24.377   3.062 -0.2040 -0.2530 -0.0151
26142W        W69059  18.948  19.712   0.465  0.0866 -0.0069  0.1217
26143W        W69060  23.228  22.448  29.933  0.1930  0.0855  0.1103
26144W        W69061  23.262  23.844   1.592 -0.2100  0.3003  0.2647
26145W        W69062  24.150  23.365   0.692  0.3300  0.1495  0.1141
26146W        W69063  24.676  19.853   2.231  0.0630  0.0037  0.1310
26147W        W69064  23.595  22.666   0.203 -0.1181 -0.2213  0.3424
26148W        W69065  22.099  21.683   3.074 -0.0449 -0.2182 -0.0150
26149W        W69066  22.647  23.233   2.594 -0.0628  0.2197  0.0763
26150W        W69067  26.098  23.453   2.392  0.1209 -0.4032  0.3374
26151W        W69068  22.018  20.195   1.229 -0.2265  0.0903 -0.0349
26152W        W69069  23.740  23.751   0.602 -0.1115  0.1655 -0.5156
26153W        W69070  23.551  22.365   1.070 -0.0513 -0.0610  0.0862
26154W        W69071  19.875  21.341   0.354  0.1455  0.0173  0.1104
26155W        W69072  24.554  22.313   0.441 -0.2050  0.0414  0.2928
26156W        W69073  23.698  22.795   3.856 -0.0610 -0.0761 -0.1055
26157W        W69074  24.013  22.343   0.859  0.1042 -0.0990 -0.1124
26158W        W69075  24.131  24.101   1.765  0.0712 -0.0321  0.2771
26159W        W69076  22.997  22.870  31.456  0.1370  0.2781 -0.3662
26160W        W69077  24.546  23.663   1.091  0.0589 -0.2407 -0.0489
26161W        W69078  23.654  24.008   3.745 -0.2073  0.4778  0.0366
26162W        W69079  26.049  25.612   3.724 -0.1060  0.0082 -0.0592
26163W        W69080  23.687  24.033   1.513  0.1819  0.0489  0.2746
26164W        W69081  22.987  21.930   2.025  0.0265 -0.2780  0.0954
26165W        W69082  20.406  22.050   3.661 -0.1274 -0.2446 -0.1363
26166W        W69083  22.372  24.493   1.647 -0.0628 -0.2721  0.1248
26167W        W69084  23.714  22.705  31.320  0.2200 -0.1289  0.1143
26168W        W69085  23.581  20.935   0.881 -0.1955 -0.0350 -0.2760
26169W        W69086  22.106  21.437   0.652  0.1593  0.0386  0.3545
26170W        W69087  24.512  22.997  31.002  0.1655 -0.2651 -0.1158
26171W        W69088  21.795  25.147   3.491 -0.1914 -0.1007  0.3530
26172W        W69089  22.407  23.932   1.432  0.3665  0.1361  0.0650
26173W        W69090  23.001  24.328   5.041  0.0701  0.0588  0.2922
26174W        W69091  20.395  24.559   1.783 -0.0487 -0.0890  0.3356
26175W        W69092  23.499  23.752   2.894 -0.1749 -0.0073  0.4365
26176W        W69093  23.880  21.060   5.498 -0.0257  0.0488 -0.1948
26177W        W69094  20.143  21.956   5.907 -0.1407 -0.0707 -0.1112
26178W        W69095  26.891  24.623   6.181 -0.0174 -0.2504 -0.3013
26179W        W69096  23.351  19.578   4.744  0.0864  0.2184 -0.2288
26180W        W69097  22.910  22.044   4.754 -0.0194  0.1444  0.1373
26181W        W69098  24.874  25.637   5.248 -0.1453 -0.1212 -0.0421
26182W        W69099  24.536  24.609   2.924 -0.0580 -0.0443 -0.1015
26183W        W69100  21.668  22.712   4.555 -0.3226  0.1183 -0.2021
26184W        W69101  22.542  25.037   5.472 -0.0795  0.0520  0.1984
26185W        W69102  23.664  21.541   5.335 -0.0209  0.0116 -0.2857
26186W        W69103  19.501  21.034   4.716  0.1401 -0.2102  0.0265
26187W        W69104  23.318  20.436   4.520  0.0666  0.1258  0.1341
26188W        W69105  24.745  21.962   3.032 -0.0146 -0.1979  0.2039
26189W        W69106  22.292  22.266   5.423  0.2589  0.1740 -0.0752
26190W        W69107  22.687  22.229   2.265 -0.0107 -0.3941 -0.0315
26191W        W69108  22.216  24.755   5.125  0.0686  0.3740 -0.0511
26192W        W69109  20.766  20.778   5.503  0.2043  0.1863  0.0304
26193W        W69110  22.821  20.918   6.896 -0.0503  0.0566 -0.2367
26194W        W69111  22.521  22.803   4.620 -0.1132  0.2625  0.1068
26195W        W69112  21.812  19.756   2.511  0.0849  0.0564  0.0066
26196W        W69113  23.867  22.888   5.493 -0.1511 -0.0062  0.3564
26197W        W69114  22.275  21.602   4.873 -0.2252 -0.2788  0.2391
26198W        W69115  22.488  22.314   4.434  0.0322 -0.2198  0.0126
26199W        W69116  25.162  23.721   5.253 -0.0317  0.1322  0.1256
26200W        W69117  24.663  25.510   2.111 -0.0117  0.0900 -0.1652
26201W        W69118  25.617  27.806   4.386  0.1228 -0.0020 -0.0194
26202W        W69119  22.211  21.738   6.472 -0.1887 -0.1675  0.0321
26203W        W69120  22.936  24.148   4.229 -0.3205  0.1888 -0.0434
26204W        W69121  21.756  24.462   5.800  0.1390 -0.2460 -0.0682
26205W        W69122  24.528  23.408   4.811  0.1621  0.3479 -0.1881
26206W        W69123  24.603  23.795   5.674  0.0375 -0.0956  0.1277
26207W        W69124  23.841  24.631   5.558  0.1704 -0.0442  0.0463
26208W        W69125  24.860  26.103   4.550  0.0606 -0.0668  0.0060
26209W        W69126  21.625  24.679   3.423  0.1030  0.0326 -0.1315
26210W        W69127  24.587  27.300   4.850 -0.0799  0.0957 -0.0238
26211W        W69128  22.061  25.303   5.382  0.1242 -0.0980  0.0063
26212W        W69129  21.699  21.546   6.706 -0.0927  0.3049 -0.1840
26213W        W69130  19.206  23.063   5.677  0.0580  0.0955 -0.3245
26214W        W69131  22.196  25.885   4.869 -0.3347 -0.3346  0.3298
26215W        W69132  22.848  23.205   4.646 -0.0813  0.0424  0.0863
26216W        W69133  23.516  25.023   6.203 -0.1082  0.0590  0.1627
26217W        W69134  20.737  24.858   3.536  0.3338  0.0764 -0.2023
26218W        W69135  25.785  22.578   7.026  0.1074  0.1443 -0.0621
26219W        W69136  22.675  25.063   3.845  0.0560  0.0722 -0.1596
26220W        W69137  23.307  22.182   4.480  0.3264 -0.4534  0.3334
26221W        W69138  23.909  20.192   1.548 -0.0162  0.0460 -0.2711
26222W        W69139  24.240  21.955   4.992 -0.3106 -0.2417 -0.0891
26223W        W69140  22.900  21.876   3.686 -0.0368  0.0435 -0.3076
26224W        W69141  23.279  25.431   6.407  0.2394  0.2720  0.1488
26225W        W69142  20.909  21.173   5.837  0.1236  0.3420 -0.0080
26226W        W69143  25.853  26.274   6.367 -0.0468 -0.0610 -0.5790
26227W        W69144  23.789  23.165   4.232 -0.0951 -0.2579  0.1365
26228W        W69145  24.853  24.235   5.872 -0.0017  0.1158  0.0184
26229W        W69146  22.184  26.115   6.153  0.2510  0.1626 -0.0026
26230W        W69147  21.421  22.038   6.517  0.0303 -0.2721  0.0632
26231W        W69148  26.118  27.609   5.193 -0.0083 -0.0094 -0.1376
26232W        W69149  25.340  25.791   5.873 -0.0756  0.2641 -0.1239
26233W        W69150  24.865  24.267   3.872  0.0928  0.0192  0.0733
26234W        W69151  21.989  22.309   4.413  0.1411  0.1773  0.0287
26235W        W69152  21.015  23.645   5.720  0.2223 -0.0169  0.0816
26236W        W69153  21.547  23.789   8.256 -0.0829 -0.3326 -0.0840
26237W        W69154  23.525  20.621   2.473 -0.0046 -0.0331 -0.1958
26238W        W69155  25.504  21.596   6.660  0.0228 -0.1385  0.0036
26239W        W69156  24.786  24.868   4.675  0.2533  0.1101  0.0275
26240W        W69157  24.444  21.624   4.721 -0.0177 -0.1733  0.0841
26241W        W69158  24.392  24.117   3.830 -0.0142  0.1051 -0.0558
26242W        W69159  24.371  22.676   5.521  0.2118  0.0717  0.1013
26243W        W69160  23.443  24.755   4.013  0.0662  0.1119 -0.1791
26244W        W69161  23.685  21.036   2.848 -0.0301  0.3596  0.0684
26245W        W69162  22.609  21.368   5.875 -0.1553  0.1917 -0.0860
26246W        W69163  22.453  22.708   2.532  0.1724 -0.5196 -0.1610
26247W        W69164  22.829  21.618   3.283 -0.2399 -0.2094 -0.1280
26248W        W69165  24.235  24.320   6.000 -0.2619  0.2548  0.2394
26249W        W69166  22.726  24.094   3.358 -0.0103  0.1689 -0.3856
26250W        W69167  22.839  25.961   5.456 -0.2566 -0.0150  0.0024
26251W        W69168  22.372  22.935   5.140 -0.0648 -0.0574  0.2241
26252W        W69169  24.162  23.565   5.522 -0.1469  0.0331  0.2543
26253W        W69170  23.486  26.590   4.715 -0.0296 -0.2966 -0.3132
26254W        W69171  20.264  23.102   4.629  0.1750  0.0602 -0.0793
26255W        W69172  22.041  23.119   3.340  0.1268  0.2757 -0.2602
26256W        W69173  20.938  21.752   5.969 -0.2059 -0.0823 -0.0661
26257W        W69174  20.167  23.983   4.370  0.1165 -0.4896 -0.1690
26258W        W69175  24.804  20.721   4.468 -0.0216 -0.0845 -0.1541
26259W        W69176  21.378  21.155   4.994 -0.2127 -0.0045  0.2640
26260W        W69177  25.096  20.728   6.191 -0.0354 -0.2322  0.0576
26261W        W69178  20.121  24.606   2.252  0.1949  0.0130 -0.1836
26262W        W69179  23.857  25.613   4.039  0.1618 -0.1358 -0.0260
26263W        W69180  24.551  21.499   6.644  0.2320 -0.0456  0.0705
26264W        W69181  25.315  24.165   3.585  0.1842  0.2176  0.2205
26265W        W69182  20.818  24.397   4.351 -0.0635  0.2754 -0.0546
26266W        W69183  22.298  21.408   2.627  0.3082 -0.2993  0.1315
26267W        W69184  20.734  23.768   5.291  0.2593  0.0378  0.1372
26268W        W69185  23.340  20.671   4.040 -0.2786  0.0905 -0.2164
26269W        W69186  23.226  22.348   5.718 -0.0115  0.1197 -0.2655
26270W        W69187  22.320  21.976   2.690  0.1517  0.1596  0.2920
26271W        W69188  23.733  21.312   3.889 -0.0364  0.2400 -0.0048
26272W        W69189  22.644  22.435   5.019 -0.2635  0.1660  0.1140
26273W        W69190  21.292  24.587   4.713  0.1426 -0.0649  0.3074
26274W        W69191  24.782  21.085   8.318 -0.1304 -0.0405 -0.0047
26275W        W69192  23.141  26.128   4.190 -0.0866  0.1295 -0.0081
26276W        W69193  24.044  24.066   5.512  0.0312  0.1989 -0.0567
26277W        W69194  24.947  24.879   3.007 -0.0696 -0.1597  0.0567
26278W        W69195  22.007  21.048   4.593 -0.0050 -0.4682  0.0343
26279W        W69196  20.868  22.693   2.479 -0.0351 -0.1192 -0.2324
26280W        W69197  22.043  24.897   4.658 -0.0874 -0.1635  0.2512
26281W        W69198  21.480  24.170   5.531 -0.5185 -0.3677  0.1725
26282W        W69199  21.271  18.810   2.097  0.2804 -0.1391  0.1343
26283W        W69200  25.662  25.392   6.115 -0.0117 -0.3083  0.1522
26284W        W69201  25.333  22.649   3.122  0.0982  0.1432 -0.1050
26285W        W69202  23.726  25.411   5.276 -0.2340  0.1971  0.4538
26286W        W69203  24.999  21.187   5.711 -0.0180 -0.0566  0.1351
26287W        W69204  23.219  22.013   6.056  0.4415 -0.0053  0.0678
26288W        W69205  23.661  23.707   4.141 -0.2568 -0.0323 -0.0770
26289W        W69206  22.094  22.562   4.969 -0.0290  0.0337 -0.2090
26290W        W69207  24.043  25.931   4.509 -0.0212 -0.2993  0.0911
26291W        W69208  21.127  24.549   3.647 -0.0448  0.1750 -0.1072
26292W        W69209  21.888  23.349   5.332 -0.2054 -0.1646  0.1585
26293W        W69210  24.870  25.570   4.756  0.1208 -0.2325 -0.1625
26294W        W69211  23.240  21.130   4.001 -0.2414 -0.1537 -0.0078
26295W        W69212  22.443  22.093   7.573 -0.0031 -0.0889  0.1399
26296W        W69213  23.172  22.291   7.088 -0.1658  0.0445  0.1166
26297W        W69214  21.564  21.472   3.382 -0.2212 -0.4636  0.1304
26298W        W69215  22.376  22.773   5.635 -0.1192 -0.0505  0.0013
26299W        W69216  23.557  22.466   3.478 -0.1090  0.2611  0.2665
26300W        W69217  24.262  21.718   3.257  0.0809 -0.4199  0.0502
26301W        W69218  23.419  23.858   6.708  0.1176 -0.2570 -0.1568
26302W        W69219  26.029  25.010   2.916  0.1135  0.3508  0.0617
26303W        W69220  24.960  23.061   2.924 -0.1194 -0.1691  0.0292
26304W        W69221  24.013  21.245   5.031  0.0980 -0.4204  0.2228
26305W        W69222  22.389  25.215   4.994  0.1803 -0.2007  0.0567
26306W        W69223  25.261  23.502   3.441  0.0717 -0.1020  0.0385
26307W        W69224  23.750  24.786   5.010  0.0459  0.0576  0.2538
26308W        W69225  23.235  21.346   2.967 -0.0442 -0.0605 -0.4208
26309W        W69226  22.969  22.835   2.772 -0.1744 -0.3951  0.1100
26310W        W69227  20.713  23.040   4.790  0.0395 -0.0823  0.1126
26311W        W69228  24.043  20.408   8.784  0.0074 -0.2374  0.2268
26312W        W69229  23.958  23.902   5.969 -0.0308 -0.3737 -0.0891
26313W        W69230  23.109  21.163   4.930  0.1253 -0.1632 -0.0320
26314W        W69231  22.940  22.554   4.536 -0.0108 -0.1440 -0.1763
26315W        W69232  21.122  22.671   4.606 -0.1366  0.0117 -0.0809
26316W        W69233  21.209  24.685   4.216 -0.1025  0.3202 -0.2729
26317W        W69234  23.383  21.157   5.552 -0.1872 -0.0000 -0.0700
26318W        W69235  21.439  22.633   5.065  0.1857  0.0262 -0.0011
26319W        W69236  21.516  20.982   4.155 -0.1149  0.0627  0.1501
26320W        W69237  25.186  22.104   5.320 -0.2618 -0.1788 -0.3644
26321W        W69238  24.399  22.535   3.701  0.0492  0.1055  0.0789
26322W        W69239  24.778  23.809   6.233  0.0088 -0.3310 -0.2383
26323W        W69240  21.251  22.946   4.183 -0.1692 -0.1121 -0.0285
26324W        W69241  21.477  23.500   5.009 -0.2860 -0.2374  0.3406
26325W        W69242  21.546  23.425   7.142 -0.0336  0.0608  0.0101
26326W        W69243  22.131  24.359   5.388  0.3689 -0.1222 -0.1773
26327W        W69244  25.155  23.819   6.623  0.2780 -0.0554  0.0268
26328W        W69245  24.561  23.826   4.192 -0.2165  0.0172  0.0244
26329W        W69246  23.868  21.892   5.652 -0.1374 -0.1182 -0.0366
26330W        W69247  22.941  23.117   3.995  0.0441  0.0356  0.1699
26331W        W69248  24.144  22.770   4.162 -0.0285 -0.2503 -0.0035
26332W        W69249  24.653  23.010   3.888 -0.3686  0.1425  0.1276
26333W        W69250  20.649  21.144   4.477  0.0075 -0.1311  0.3920
26334W        W69251  25.016  25.189   5.012  0.0738 -0.0876  0.1378
26335W        W69252  24.388  24.816   4.282  0.3543 -0.1200  0.1262
26336W        W69253  24.904  25.553   3.872  0.1931 -0.0354  0.1254
26337W        W69254  22.968  24.853   4.162  0.1752 -0.2274 -0.0371
26338W        W69255  25.510  21.380   7.895 -0.0665  0.1588 -0.2491
26339W        W69256  21.869  23.878   5.254  0.3330  0.2220  0.1031
26340W        W69257  21.691  23.004   2.956  0.3367 -0.1588 -0.3217
26341W        W69258  20.429  23.448   5.020  0.1868  0.0561  0.1990
26342W        W69259  23.758  20.897   4.716 -0.2950 -0.0392  0.1653
26343W        W69260  23.254  22.625   4.125  0.2109  0.2943  0.4920
26344W        W69261  20.419  21.654   6.155 -0.1927  0.0517  0.1065
26345W        W69262  23.561  20.211   3.079 -0.0502 -0.2555 -0.0186
26346W        W69263  22.352  25.277   4.231  0.0340 -0.3110  0.0084
26347W        W69264  22.138  21.707   5.340 -0.1920 -0.1641 -0.0783
26348W        W69265  24.252  22.501   4.636 -0.0769 -0.0179  0.0615
26349W        W69266  25.250  25.108   6.272  0.2076 -0.2399  0.0946
26350W        W69267  23.802  25.079   5.783  0.0107  0.0709  0.3743
26351W        W69268  21.653  22.341   3.623  0.1646  0.1127  0.2826
26352W        W69269  24.215  22.108   7.149  0.1059 -0.0117 -0.0688
26353W        W69270  22.968  20.662   4.798  0.0761  0.0168  0.2711
26354W        W69271  21.314  25.046   3.424 -0.0784  0.1773 -0.1455
26355W        W69272  25.289  25.841   4.768  0.1468  0.3786 -0.1791
26356W        W69273  21.450  23.390   4.049 -0.0311  0.1466 -0.1073
26357W        W69274  23.358  24.699   5.814  0.0233  0.2819 -0.1253
26358W        W69275  22.621  22.254   5.862 -0.1867 -0.0406 -0.0925
26359W        W69276  24.996  24.438   4.516  0.4901 -0.1714  0.0106
26360W        W69277  21.927  20.562   4.454  0.1535 -0.2211 -0.1336
26361W        W69278  22.178  21.199   6.322 -0.3231  0.1293 -0.0708
26362W        W69279  21.517  22.125   4.771 -0.1019 -0.2198  0.0323
26363W        W69280  23.122  24.598   6.237 -0.0583  0.2492 -0.0962
26364W        W69281  22.803  22.507   5.469 -0.3885  0.2209 -0.0432
26365W        W69282  22.253  24.483   7.689 -0.0343  0.0162  0.0384
26366W        W69283  23.237  19.632   5.332  0.0304  0.1495  0.0763
26367W        W69284  25.637  23.582   6.007 -0.0901  0.2117  0.0091
26368W        W69285  22.725  23.640   5.660 -0.2341  0.0080  0.2482
26369W        W69286  23.343  22.858   4.586 -0.1186  0.1138 -0.4384
26370W        W69287  20.492  23.157   7.603  0.0580 -0.0894  0.0983
26371W        W69288  22.843  23.623   3.075  0.1138 -0.2742 -0.1992
26372W        W69289  21.962  23.618   4.826  0.0098 -0.0056  0.0822
26373W        W69290  21.094  25.040   3.868  0.1031  0.0870  0.1966
26374W        W69291  24.139  23.701   3.877 -0.2505  0.1886 -0.1740
26375W        W69292  22.321  25.738   5.723  0.0276 -0.0734  0.1326
26376W        W69293  24.921  20.789   3.391 -0.0017 -0.1214 -0.0700
26377W        W69294  23.210  24.401   3.239  0.1124 -0.1150  0.1835
26378W        W69295  24.358  22.325   3.199  0.0184 -0.1063  0.2782
26379W        W69296  24.143  23.632   4.991  0.0180 -0.0279 -0.1624
26380W        W69297  24.870  23.776   3.735 -0.1240 -0.1804 -0.0865
26381W        W69298  24.182  21.157   6.792 -0.0941  0.2528 -0.0407
26382W        W69299  20.931  20.894   6.506  0.0232  0.1048 -0.0028
26383W        W69300  25.184  24.490   5.138  0.1717 -0.0237  0.1132
26384W        W69301  20.823  25.510   5.910  0.1348  0.1689 -0.1613
26385W        W69302  23.205  27.175   5.750 -0.2796 -0.0229  0.0689
26386W        W69303  22.012  23.696   6.541  0.1662  0.2019  0.1975
26387W        W69304  23.419  21.843   4.841  0.2458 -0.3515  0.0715
26388W        W69305  21.470  19.556   2.856  0.0785  0.0931  0.0024
26389W        W69306  23.780  22.349   5.737  0.3479 -0.1651  0.0438
26390W        W69307  24.241  22.182   5.406  0.0674  0.4131 -0.2879
26391W        W69308  24.627  23.168   1.983 -0.2522 -0.2273  0.1430
26392W        W69309  22.492  20.690   4.644 -0.0009 -0.3174 -0.2021
26393W        W69310  21.215  23.167   4.635  0.0846  0.0424  0.0301
26394W        W69311  22.521  21.750   4.459 -0.3681 -0.0894 -0.1908
26395W        W69312  25.070  24.731   5.618 -0.0229 -0.0629  0.0087
26396W        W69313  21.729  22.872   3.925  0.0965  0.1264  0.1093
26397W        W69314  21.545  20.212   6.407 -0.2304 -0.0844  0.1107
26398W        W69315  24.733  22.985   5.015 -0.0137 -0.1191 -0.1249
26399W        W69316  23.911  20.720   6.362 -0.3022 -0.2349  0.0253
26400W        W69317  24.781  21.771   7.723  0.4165  0.1991  0.1133
26401W        W69318  24.021  21.791   6.684  0.0738 -0.1288 -0.1108
26402W        W69319  22.753  22.389   8.010 -0.1624 -0.0101  0.2339
26403W        W69320  19.663  22.819   4.698  0.0884 -0.2213 -0.0107
26404W        W69321  23.882  23.156   6.101 -0.2347 -0.1787 -0.0556
26405W        W69322  25.755  20.703   3.242 -0.0180  0.1128  0.1939
26406W        W69323  26.384  20.997   5.683  0.0021  0.4566  0.3305
26407W        W69324  24.952  23.946   4.836 -0.1306  0.1695  0.0844
26408W        W69325  22.841  21.987   4.169  0.1835 -0.0628  0.1612
26409W        W69326  22.470  21.262   4.486  0.1875  0.2947 -0.3797
26410W        W69327  24.002  23.209   6.605 -0.0822  0.0837  0.0716
26411W        W69328  25.044  21.188   3.771 -0.0057 -0.1029  0.3507
26412W        W69329  25.730  22.181   5.825 -0.2463  0.0895  0.0415
26413W        W69330  22.869  23.627   4.979  0.1349  0.0418 -0.0077
26414W        W69331  25.742  25.684   4.520 -0.0583  0.0984  0.1345
26415W        W69332  23.788  22.050   5.183  0.0402 -0.2582 -0.1127
26416W        W69333  21.339  23.039   5.333  0.2657 -0.1803 -0.1098
26417W        W69334  23.341  25.656   5.539  0.0357  0.0729  0.3987
26418W        W69335  21.180  22.679   3.741  0.0637 -0.4364  0.1828
26419W        W69336  23.968  23.037   3.039 -0.0921  0.3552  0.2499
26420W        W69337  24.194  26.035   5.762 -0.0003  0.1015  0.2158
26421W        W69338  23.514  21.787   6.498  0.1869 -0.2098  0.2611
26422W        W69339  22.577  20.443   3.022 -0.0862  0.0559 -0.3726
26423W        W69340  25.225  22.443   7.561  0.2069 -0.0506 -0.2012
26424W        W69341  22.302  22.646   3.371 -0.1669  0.3201 -0.1232
26425W        W69342  21.703  20.893   5.293 -0.0830 -0.1384 -0.0402
26426W        W69343  23.340  26.214   5.857 -0.2588  0.1747  0.2515
26427W        W69344  22.569  23.966   5.189 -0.0411  0.1457 -0.0682
26428W        W69345  25.157  25.158   4.069 -0.2023 -0.2776 -0.0475
26429W        W69346  23.319  23.317   4.291  0.2025  0.0753  0.0322
26430W        W69347  23.683  21.810   4.265 -0.0203  0.1845 -0.2086
26431W        W69348  23.299  25.205   5.778 -0.1498 -0.0627  0.2536
26432W        W69349  26.339  22.346   4.056 -0.0144 -0.3241  0.1003
26433W        W69350  23.303  23.959   5.006  0.3163 -0.0760  0.1162
26434W        W69351  23.912  23.470   4.588  0.0034 -0.3272  0.0886
26435W        W69352  23.570  22.922   6.500 -0.0294 -0.0545  0.1292
26436W        W69353  25.169  23.814   5.818  0.0704 -0.1315 -0.0498
26437W        W69354  25.171  25.142   3.562 -0.0346 -0.0757 -0.3152
26438W        W69355  22.900  21.956   5.622 -0.0576  0.0825 -0.0190
26439W        W69356  23.009  22.611   6.720 -0.1120  0.0754 -0.1611
26440W        W69357  24.819  22.965   5.504 -0.1062 -0.0276 -0.1649
26441W        W69358  22.627  22.391   2.863 -0.3017 -0.1995  0.0341
26442W        W69359  21.725  24.155   3.515 -0.0281 -0.1761  0.1308
26443W        W69360  22.249  24.641   6.800 -0.3344 -0.0216 -0.0176
26444W        W69361  20.960  23.502   4.942  0.0781 -0.0053 -0.2292
26445W        W69362  24.635  25.497   3.419 -0.0747  0.0211 -0.2985
26446W        W69363  22.973  23.253   5.918 -0.3291 -0.2356 -0.0440
26447W        W69364  24.831  22.631   3.303  0.0473 -0.1367 -0.6104
26448W        W69365  22.881  24.908   5.780 -0.2090 -0.1708 -0.3917
26449W        W69366  21.286  21.637   4.537 -0.3350  0.2036 -0.4209
26450W        W69367  22.458  23.244   4.121 -0.1906  0.0461  0.3144
26451W        W69368  21.083  27.200   3.530 -0.0952 -0.2914  0.0101
26452W        W69369  23.918  23.998   4.398 -0.3605  0.4499 -0.1154
26453W        W69370  22.432  23.985   4.239  0.2713  0.0295 -0.0924
26454W        W69371  25.090  24.623   6.163  0.1731  0.0881  0.0126
26455W        W69372  25.333  20.526   3.769 -0.3549  0.0880 -0.0013
26456W        W69373  24.778  22.069   6.081  0.0284 -0.4912  0.2842
26457W        W69374  25.029  19.912   6.723  0.4185  0.1295 -0.1322
26458W        W69375  23.522  24.901   7.471 -0.1372  0.0908 -0.2501
26459W        W69376  25.046  22.260   4.215 -0.1328  0.0098 -0.1772
26460W        W69377  23.145  22.437   3.025  0.1552 -0.0135 -0.1443
26461W        W69378  23.971  22.530   5.081 -0.1526  0.2112 -0.0668
26462W        W69379  24.917  20.945   7.307  0.2578 -0.2416  0.1139
26463W        W69380  21.886  22.787   6.735 -0.1579 -0.0235 -0.0189
26464W        W69381  25.869  23.907   5.690 -0.0201  0.0530 -0.2386
26465W        W69382  22.434  23.571   4.595  0.0678  0.2627  0.1728
26466W        W69383  24.521  25.985   3.248  0.0536 -0.1729 -0.0761
26467W        W69384  24.926  20.793   7.881 -0.0452 -0.1077 -0.3126
26468W        W69385  25.378  24.259   2.776 -0.1518 -0.1642 -0.3105
26469W        W69386  23.190  21.718   4.448  0.1720  0.0670  0.1800
26470W        W69387  21.598  25.694   4.784 -0.2637 -0.1421  0.0734
26471W        W69388  23.619  23.836   5.406  0.1021 -0.0120 -0.3321
26472W        W69389  25.488  26.277   2.771 -0.0764  0.2362  0.2615
26473W        W69390  20.306  21.567   3.478  0.0394  0.0766  0.0092
26474W        W69391  23.446  22.477   4.885  0.2263 -0.5404 -0.3301
26475W        W69392  21.934  22.546   5.785  0.1993  0.2145  0.0957
26476W        W69393  24.609  19.662   7.330  0.0931 -0.0935  0.0684
26477W        W69394  21.849  24.315   4.523 -0.1150  0.0569 -0.0255
26478W        W69395  24.475  21.167   5.646  0.1291  0.0377 -0.1055
26479W        W69396  23.835  24.655   4.376  0.1479 -0.2667  0.2343
26480W        W69397  22.762  24.016   4.648  0.4316 -0.0486  0.4548
26481W        W69398  23.159  23.293   2.863 -0.1001 -0.0287  0.0192
26482W        W69399  25.344  22.626   6.578 -0.0376  0.1970  0.1694
26483W        W69400  23.835  24.056   4.940 -0.0606  0.0869 -0.2269
26484W        W69401  24.490  24.994   3.351 -0.1143 -0.0264  0.1373
26485W        W69402  24.069  21.398   5.861 -0.0535 -0.2685  0.2797
26486W        W69403  24.867  22.451   3.811 -0.3041  0.1210 -0.0455
26487W        W69404  22.595  21.982   5.195  0.1374  0.1308 -0.2943
26488W        W69405  22.714  22.573   4.068 -0.2507 -0.2251 -0.1476
26489W        W69406  24.618  25.166   6.861  0.0943 -0.1462 -0.1559
26490W        W69407  20.694  21.658   4.436 -0.0685  0.0433 -0.2582
26491W        W69408  24.699  22.690   2.278  0.2587  0.1517  0.1153
26492W        W69409  23.567  19.930   5.072 -0.1225  0.1065 -0.0076
26493W        W69410  23.218  25.305   3.849 -0.0470  0.1459 -0.1150
26494W        W69411  25.529  22.116   7.144  0.0413 -0.2300  0.5681
26495W        W69412  23.482  26.057   4.553  0.2626  0.1473  0.2214
26496W        W69413  22.989  24.143   5.875 -0.3498 -0.0523  0.2962
26497W        W69414  24.343  26.368   4.476 -0.1720  0.0446  0.1149
26498W        W69415  26.002  25.300   4.714  0.1925  0.1791 -0.1475
26499W        W69416  24.490  21.163   4.108 -0.0601 -0.0262 -0.1030
26500W        W69417  23.073  23.985   5.421 -0.0303  0.2201 -0.0832
26501W        W69418  22.108  24.823   4.178  0.1192  0.2354 -0.0985
26502W        W69419  23.859  22.203   6.387 -0.2889  0.0919 -0.0787
26503W        W69420  24.419  21.824   5.717  0.0193  0.0930 -0.1776
26504W        W69421  23.230  26.014   3.330 -0.0558  0.0385  0.1178
26505W        W69422  23.746  21.031   7.339 -0.0250 -0.0360  0.0793
26506W        W69423  22.050  25.934   6.603  0.1254  0.2764  0.1518
26507W        W69424  22.322  22.162   6.301 -0.0328 -0.0862 -0.2025
26508W        W69425  22.123  22.416   3.882  0.2411  0.4131 -0.0945
26509W        W69426  23.896  22.625   6.674  0.1240 -0.0047  0.0451
26510W        W69427  23.784  23.354   5.231  0.1346 -0.0766 -0.2323
26511W        W69428  21.305  22.792   3.185  0.0909 -0.3481 -0.0872
26512W        W69429  25.947  26.309   5.835  0.0009  0.1471  0.1322
26513W        W69430  22.783  22.697   3.422 -0.0444 -0.2125  0.0439
26514W        W69431  25.776  23.997   6.220 -0.1395  0.0932  0.0675
26515W        W69432  24.132  23.103   3.747 -0.1601  0.1174  0.2215
26516W        W69433  23.839  20.440   4.523 -0.1098  0.0542 -0.3766
26517W        W69434  23.249  22.880   3.701  0.1725 -0.2624 -0.0750
26518W        W69435  23.215  23.339   5.418  0.0269 -0.2021  0.2646
26519W        W69436  21.573  22.451   4.178  0.0485  0.2124 -0.3783
26520W        W69437  23.674  25.183   4.203 -0.1503 -0.0015  0.3617
26521W        W69438  21.073  25.034   4.817  0.2565  0.0342 -0.0431
26522W        W69439  22.014  20.683   4.894  0.1355  0.2180  0.3350
26523W        W69440  20.954  22.717   5.103  0.3686  0.0183 -0.0478
26524W        W69441  22.751  24.798   5.087  0.3538 -0.2868 -0.2287
26525W        W69442  20.282  21.169   4.811  0.2664 -0.0319 -0.1996
26526W        W69443  23.460  24.274   4.205 -0.2466 -0.0229  0.3728
26527W        W69444  22.343  23.479   5.138 -0.1994 -0.0854  0.0781
26528W        W69445  20.809  23.186   4.237 -0.0889 -0.1803 -0.1147
26529W        W69446  23.464  24.336   5.289 -0.2438 -0.2135  0.2942
26530W        W69447  24.921  23.982   3.320 -0.2474  0.0249  0.3716
26531W        W69448  22.561  22.265   3.599 -0.0811  0.0627  0.1516
26532W        W69449  24.483  25.859   4.852  0.1054  0.0728 -0.1079
26533W        W69450  19.329  24.651   2.854  0.0444  0.0926  0.1693
26534W        W69451  23.132  22.194   5.176 -0.1345  0.0171  0.1328
26535W        W69452  21.982  22.098   5.951  0.0949  0.0081  0.0769
26536W        W69453  20.893  22.087   4.505 -0.0636  0.4780  0.1026
26537W        W69454  19.877  20.944   6.768  0.2712 -0.3535  0.0478
26538W        W69455  23.330  23.403   4.910 -0.2254 -0.0712 -0.1007
26539W        W69456  24.776  25.246   4.347 -0.3128 -0.1374  0.2073
26540W        W69457  23.208  24.793   4.987  0.0622  0.1245  0.0327
26541W        W69458  22.952  26.745   6.683  0.1093  0.0935 -0.1753
26542W        W69459  20.822  22.548   7.549  0.2360  0.2555 -0.0047
26543W        W69460  24.844  24.696   4.136 -0.0679  0.1936 -0.1382
26544W        W69461  24.181  25.695   6.155 -0.2789 -0.1056  0.0828
26545W        W69462  25.344  24.206   4.734 -0.3763 -0.1570 -0.0210
26546W        W69463  23.820  21.307   6.418  0.3195 -0.1422 -0.1409
26547W        W69464  24.556  24.305   4.979  0.4310 -0.1161 -0.3178
26548W        W69465  22.926  22.715   5.907  0.2481  0.0137  0.3358
26549W        W69466  23.190  25.011   6.656  0.0405  0.0160 -0.0247
26550W        W69467  24.727  23.316   5.881  0.0432  0.2526  0.1168
26551W        W69468  21.806  23.200   4.315  0.0041  0.0967  0.0435
26552W        W69469  25.038  21.721   3.342 -0.2717  0.1189  0.0604
26553W        W69470  24.310  24.769   4.874  0.0160 -0.1163 -0.3731
26554W        W69471  20.400  24.426   5.507 -0.0439 -0.0894  0.0280
26555W        W69472  24.127  22.160   4.280 -0.1393  0.0874  0.0837
26556W        W69473  23.871  23.634   6.359 -0.0540 -0.0106  0.4088
26557W        W69474  25.599  26.598   4.447  0.0369 -0.0036 -0.2949
26558W        W69475  22.123  22.674   6.237  0.1806 -0.2032  0.1918
26559W        W69476  21.518  23.866   3.967  0.1033 -0.0716 -0.0111
26560W        W69477  23.933  22.358   3.857 -0.0726  0.1031 -0.0631
26561W        W69478  23.852  26.464   5.837 -0.1140  0.0801  0.1226
26562W        W69479  24.619  24.558   6.902 -0.3666  0.1382  0.3443
26563W        W69480  24.070  25.567   4.925 -0.2078  0.1339 -0.0513
26564W        W69481  24.586  23.814   5.157 -0.1702  0.0915  0.0373
26565W        W69482  22.117  22.768   4.277 -0.1092  0.1530  0.0945
26566W        W69483  23.868  21.705   4.747  0.2207 -0.1226  0.0215
26567W        W69484  24.121  24.378   4.649  0.0516 -0.2602  0.1010
26568W        W69485  25.512  22.489   4.990 -0.0359 -0.1044  0.1402
26569W        W69486  22.175  23.204   4.639  0.1908  0.3950  0.1974
26570W        W69487  24.400  22.324   1.784 -0.0746  0.1815 -0.0686
26571W        W69488  23.550  23.352   6.784  0.2901  0.1222 -0.1471
26572W        W69489  26.065  24.684   4.016 -0.4638  0.1935 -0.0521
26573W        W69490  23.046  23.497   7.500 -0.3766  0.1021 -0.1022
26574W        W69491  22.573  22.497   8.569 -0.0085  0.4692 -0.0794
26575W        W69492  23.304  21.831   7.301 -0.0245  0.2736  0.0228
26576W        W69493  25.202  23.481   6.263  0.3244 -0.1814  0.2636
26577W        W69494  23.883  21.626   8.143 -0.0420 -0.1155 -0.2161
26578W        W69495  24.337  26.377   6.056  0.0456 -0.0658  0.0061
26579W        W69496  22.430  24.278   8.169  0.2463 -0.0677 -0.5220
26580W        W69497  23.652  25.033   7.954 -0.0333 -0.1501  0.1531
26581W        W69498  23.476  24.978   5.418 -0.2192  0.0922 -0.2296
26582W        W69499  21.998  19.643   8.349 -0.2023 -0.0690  0.1374
26583W        W69500  22.317  20.838   6.680 -0.1645  0.1692 -0.1855
26584W        W69501  20.700  20.639   7.283  0.4160  0.2518  0.0467
26585W        W69502  25.590  24.716   8.633  0.3277 -0.0158 -0.0236
26586W        W69503  22.610  23.800   6.624  0.0279 -0.0270 -0.2754
26587W        W69504  22.523  20.699   7.829 -0.2366  0.2631  0.2840
26588W        W69505  24.410  21.829   8.540  0.2646 -0.1063  0.1043
26589W        W69506  22.790  24.792   9.092  0.0583  0.2063  0.2641
26590W        W69507  22.761  23.402   8.492  0.0375  0.0200 -0.4362
26591W        W69508  23.444  25.377   7.354  0.1375 -0.2413  0.1677
26592W        W69509  21.747  23.063   4.912 -0.2724 -0.1170 -0.0252
26593W        W69510  21.251  20.228   7.440 -0.1265  0.0811  0.2012
26594W        W69511  22.828  23.961   8.127 -0.2185  0.5270 -0.0244
26595W        W69512  23.644  22.559   7.928  0.0612 -0.2729  0.1409
26596W        W69513  23.539  23.272   8.310 -0.0476  0.1723 -0.0580
26597W        W69514  23.973  25.251   6.326 -0.1635 -0.0350 -0.0156
26598W        W69515  26.038  25.589   8.614 -0.2678  0.1966  0.0831
26599W        W69516  22.172  22.411   6.699 -0.1573  0.0200 -0.1893
26600W        W69517  20.857  25.259   6.323  0.0380  0.0281  0.0490
26601W        W69518  22.911  23.069   6.892  0.1355 -0.0195 -0.4310
26602W        W69519  24.674  24.932   8.833 -0.1632 -0.4541  0.1636
26603W        W69520  23.989  24.789   7.577  0.1182 -0.0317 -0.0965
26604W        W69521  25.096  24.033   9.108  0.3106  0.3372  0.0138
26605W        W69522  22.021  22.922   7.989 -0.0194  0.4907 -0.0124
26606W        W69523  21.771  25.835   5.678  0.1729  0.1854 -0.2536
26607W        W69524  22.860  21.955   7.254  0.0941  0.2505  0.2917
26608W        W69525  20.878  24.585   8.366  0.0262  0.1634 -0.0742
26609W        W69526  20.646  24.043   6.945 -0.0103  0.0325  0.0676
26610W        W69527  25.349  22.994   7.488 -0.1483  0.1149  0.4420
26611W        W69528  22.372  21.868   5.724 -0.1778 -0.0651  0.0651
26612W        W69529  24.035  23.439   7.777 -0.1043 -0.0706  0.0666
26613W        W69530  23.900  20.254   5.402 -0.2733 -0.1076 -0.0333
26614W        W69531  18.433  23.891   7.653  0.1186  0.0096  0.0103
26615W        W69532  21.578  23.288   8.410  0.0979  0.0846  0.0452
26616W        W69533  21.502  20.914   6.998  0.2568  0.2135 -0.0141
26617W        W69534  25.493  23.423   7.976 -0.0190 -0.2791 -0.0400
26618W        W69535  23.083  24.536   7.451 -0.0006  0.2885  0.0675
26619W        W69536  21.625  21.115   9.092 -0.0495  0.2626  0.0313
26620W        W69537  25.012  24.858   6.713 -0.0340 -0.3430 -0.1573
26621W        W69538  24.873  25.858   8.771  0.0471  0.1863  0.1972
26622W        W69539  23.402  22.501   6.176  0.1088  0.0662 -0.3452
26623W        W69540  21.143  23.386   6.177 -0.0171  0.1963  0.1936
26624W        W69541  23.094  21.510   5.736 -0.1681 -0.1842 -0.1345
26625W        W69542  23.822  21.432   8.633 -0.1345 -0.0615  0.1611
26626W        W69543  21.112  22.571   7.156  0.1580 -0.0559 -0.1304
26627W        W69544  24.786  23.652   8.620  0.2533  0.1403 -0.0491
26628W        W69545  25.287  24.093   6.200 -0.3946  0.1304 -0.0395
26629W        W69546  23.836  23.441   7.330 -0.0950 -0.0010  0.0293
26630W        W69547  23.013  20.544   7.792  0.2363 -0.3010  0.1469
26631W        W69548  22.122  24.391   7.231 -0.0475  0.0596  0.1630
26632W        W69549  23.775  21.806   7.472 -0.1903  0.0189 -0.0485
26633W        W69550  26.629  25.684   9.054  0.1270  0.2170 -0.0601
26634W        W69551  25.865  21.953   7.736 -0.0402 -0.1446 -0.1516
26635W        W69552  22.696  22.148   6.666 -0.1535 -0.1543  0.3012
26636W        W69553  21.640  24.474   7.521  0.4419 -0.0385 -0.3513
26637W        W69554  20.416  26.450   8.024 -0.2693 -0.1357  0.0608
26638W        W69555  23.063  23.560   6.983 -0.1138  0.1127 -0.0206
26639W        W69556  24.720  22.701   8.260  0.0746  0.2377  0.0288
26640W        W69557  22.387  24.153   6.870  0.0395 -0.0448  0.0439
26641W        W69558  23.654  22.770   7.433  0.2767  0.1559  0.1051
26642W        W69559  23.555  21.317   7.711  0.0998  0.1330  0.2335
26643W        W69560  21.528  24.798   6.243  0.0556 -0.3500 -0.0775
26644W        W69561  25.302  24.677   7.080  0.0500 -0.0695  0.2574
26645W        W69562  25.935  21.305   6.771  0.0324 -0.1030 -0.0575
26646W        W69563  25.464  24.715   6.483 -0.0020 -0.3193 -0.2687
26647W        W69564  20.767  22.418   6.617 -0.1138 -0.0066 -0.0424
26648W        W69565  21.706  22.589   7.569  0.1025  0.1610  0.1513
26649W        W69566  21.979  22.110   7.926  0.0455 -0.0325  0.0493
26650W        W69567  21.713  21.917   5.555  0.0788  0.0445 -0.3639
26651W        W69568  25.274  23.607   8.817  0.0792 -0.0553 -0.2959
26652W        W69569  23.426  22.331   6.638  0.0859 -0.2931  0.0393
26653W        W69570  20.711  24.374   6.074 -0.0485 -0.0460 -0.1263
26654W        W69571  24.226  23.526   6.071 -0.0391  0.1332  0.0796
26655W        W69572  23.560  23.129   8.820  0.0957  0.1011  0.1547
26656W        W69573  25.727  24.786   9.162 -0.1855 -0.0785  0.3349
26657W        W69574  21.620  19.851   8.735  0.3985  0.0153  0.1559
26658W        W69575  22.621  22.908   8.034 -0.1999 -0.0455  0.1152
26659W        W69576  21.438  25.451   7.929 -0.2127  0.2143 -0.0736
26660W        W69577  23.699  24.139   6.966  0.1326  0.1009  0.2377
26661W        W69578  22.623  21.623   6.948  0.1171 -0.0193 -0.1555
26662W        W69579  25.582  25.687   8.837 -0.0750  0.2725  0.0096
26663W        W69580  24.328  25.557   6.641  0.0986  0.1977 -0.0155
26664W        W69581  22.644  21.255   8.571  0.2614  0.0813 -0.2083
26665W        W69582  22.214  22.685   8.892 -0.2434  0.1789  0.0141
26666W        W69583  22.292  22.089   4.818  0.1217  0.0309  0.0123
26667W        W69584  23.041  25.275   9.020  0.1364  0.1154 -0.0131
26668W        W69585  21.413  25.271   6.462 -0.0474 -0.0148  0.0606
26669W        W69586  21.648  23.633   8.881  0.1799 -0.0304  0.0682
26670W        W69587  22.617  25.260   7.180  0.2327 -0.0200 -0.0977
26671W        W69588  23.572  23.264   7.752 -0.1376  0.3956 -0.0122
26672W        W69589  22.876  23.760   6.176 -0.2894 -0.2373 -0.1204
26673W        W69590  23.510  22.732   8.471  0.2318  0.1355 -0.1605
26674W        W69591  23.806  23.756   8.140 -0.0732 -0.0222  0.1444
26675W        W69592  24.957  24.514   8.014 -0.2580 -0.1421 -0.1195
26676W        W69593  21.746  21.410   5.417 -0.1855  0.1351 -0.1705
26677W        W69594  22.465  19.500   6.309  0.2589  0.2194  0.2166
26678W        W69595  24.218  24.104   6.882  0.2312 -0.0667  0.0145
26679W        W69596  22.207  20.325   7.532 -0.0946  0.0131 -0.2178
26680W        W69597  21.970  23.086   5.869  0.3303 -0.1858 -0.2899
26681W        W69598  26.273  24.998   5.603  0.1864 -0.1607  0.1084
26682W        W69599  20.424  24.527   9.280  0.0883  0.0325 -0.1323
26683W        W69600  24.527  25.434   8.873 -0.1725 -0.0549 -0.1119
26684W        W69601  23.510  20.416   7.837  0.1973  0.1828  0.0629
26685W        W69602  21.234  22.511   6.629 -0.1840 -0.0628 -0.1249
26686W        W69603  24.873  22.531   6.346 -0.1654 -0.1758  0.4017
26687W        W69604  22.701  25.002   6.776  0.2376  0.1806 -0.1134
26688W        W69605  23.181  23.481   8.927 -0.1670  0.0131  0.1230
26689W        W69606  25.335  25.637   7.485  0.0203  0.0697  0.2340
26690W        W69607  23.494  22.827   5.857  0.1186  0.1203 -0.1521
26691W        W69608  23.263  24.062   7.677  0.1343 -0.4506 -0.0677
26692W        W69609  23.643  23.427   5.701  0.1548  0.0349  0.1946
26693W        W69610  20.673  20.850   9.656  0.1379 -0.0349  0.0663
26694W        W69611  21.489  25.718   9.414 -0.1062 -0.0409  0.1534
26695W        W69612  21.916  20.229   8.513 -0.0438  0.0651  0.0864
26696W        W69613  22.431  21.140   7.152 -0.0658 -0.2334 -0.3567
26697W        W69614  23.531  24.176   5.756 -0.1060  0.0583 -0.0341
26698W        W69615  22.294  23.966   7.474  0.0336  0.0661 -0.0571
26699W        W69616  21.763  19.229   8.564 -0.2743  0.1457  0.1895
26700W        W69617  24.075  23.225   8.860 -0.1933  0.2625 -0.0427
26701W        W69618  24.595  24.130   8.653 -0.0194  0.0917  0.2022
26702W        W69619  23.533  22.182   9.121  0.0420  0.1555 -0.0087
26703W        W69620  21.659  25.701   7.103 -0.1599  0.0172  0.0927
26704W        W69621  24.678  22.413   7.826 -0.1779 -0.1786 -0.1288
26705W        W69622  21.036  25.442   8.678 -0.0687 -0.0698  0.1226
26706W        W69623  23.368  23.442   6.248 -0.0072  0.2060 -0.2805
26707W        W69624  23.097  21.563   6.344  0.0958 -0.1335 -0.2914
26708W        W69625  23.304  23.627   7.906 -0.2852 -0.2116 -0.2342
26709W        W69626  25.197  23.700   8.291  0.3972  0.0196 -0.2747
26710W        W69627  22.658  21.840   7.931  0.2282 -0.1147  0.0346
26711W        W69628  22.487  18.117   8.777 -0.3434 -0.1731 -0.0886
26712W        W69629  22.845  23.844   8.780  0.4496 -0.1039 -0.2307
26713W        W69630  25.047  21.442   7.446  0.1765 -0.2063  0.0359
26714W        W69631  18.922  23.128   6.615 -0.1655  0.0480  0.0535
26715W        W69632  24.021  20.953   8.747 -0.0400 -0.1824  0.0962
26716W        W69633  21.253  21.570   6.345  0.0836  0.1633  0.0127
26717W        W69634  21.408  24.712   8.460  0.0986  0.1509  0.0680
26718W        W69635  23.680  24.406   7.389  0.0778 -0.3885  0.0788
26719W        W69636  20.691  22.364   5.285 -0.0607 -0.0921  0.1095
26720W        W69637  22.669  23.793   7.696 -0.3529  0.0703  0.1734
26721W        W69638  23.243  23.757   8.426 -0.0431  0.0919  0.1842
26722W        W69639  23.314  20.808   6.976  0.2012  0.1310 -0.3819
26723W        W69640  22.708  20.131   7.782  0.0453 -0.1286  0.0668
26724W        W69641  22.522  22.995   8.560  0.0141 -0.0751  0.2033
26725W        W69642  22.480  23.824   8.415 -0.3225  0.1990 -0.0609
26726W        W69643  24.288  24.894   8.501  0.2465 -0.0988 -0.1130
26727W        W69644  23.342  19.227   7.986 -0.0063  0.0688 -0.1791
26728W        W69645  24.317  24.876   7.135  0.0777  0.1319  0.1265
26729W        W69646  22.469  23.255   6.058 -0.0700 -0.0983  0.4056
26730W        W69647  18.713  23.371   7.092 -0.0276 -0.0234  0.3318
26731W        W69648  22.008  24.910   7.663  0.1508 -0.2493 -0.0626
26732W        W69649  21.990  22.185   7.337  0.1369 -0.1980 -0.1915
26733W        W69650  23.791  21.719   9.172  0.2783 -0.0213 -0.1345
26734W        W69651  20.789  24.030   7.391 -0.1260 -0.2272 -0.1553
26735W        W69652  25.608  20.773   9.170 -0.2453 -0.2929 -0.0199
26736W        W69653  23.833  24.096   6.431 -0.1618 -0.0727 -0.3666
26737W        W69654  22.627  22.643   7.049 -0.4575 -0.1091  0.0853
26738W        W69655  23.881  22.666   6.126  0.0479 -0.1835  0.5380
26739W        W69656  23.993  22.239   7.644 -0.1354 -0.0379  0.3167
26740W        W69657  23.325  24.651   8.325  0.0408  0.1682 -0.2125
26741W        W69658  24.774  22.208   8.508  0.5224  0.0532 -0.2801
26742W        W69659  21.074  20.413   6.565 -0.1165 -0.0174 -0.1676
26743W        W69660  19.254  23.117   8.121 -0.0991  0.0558  0.0678
26744W        W69661  20.614  23.090   8.625  0.1838 -0.2006  0.2828
26745W        W69662  24.782  24.299   6.419  0.0937  0.0016 -0.0724
26746W        W69663  25.253  21.866   8.781  0.0012 -0.0995 -0.1812
26747W        W69664  22.997  22.746   8.350 -0.1840  0.0949 -0.0109
26748W        W69665  23.990  24.584   6.952 -0.1049 -0.0864 -0.2701
26749W        W69666  22.750  22.486   7.477  0.0940  0.0317 -0.0220
26750W        W69667  22.155  20.273   8.068 -0.2645 -0.3544 -0.1135
26751W        W69668  24.858  23.379   6.689 -0.0264  0.0125 -0.2405
26752W        W69669  24.676  23.492   8.174 -0.0994  0.2099  0.3149
26753W        W69670  25.978  24.391   8.887  0.1106 -0.3618  0.0032
26754W        W69671  26.923  22.671   4.842  0.4047  0.0453 -0.3659
26755W        W69672  25.280  25.790   8.017 -0.4026  0.2690 -0.1058
26756W        W69673  25.997  23.461   6.848 -0.0522  0.0345  0.4621
26757W        W69674  23.886  23.024   7.053  0.0225 -0.0083 -0.0641
26758W        W69675  22.150  21.174   7.527  0.1568  0.2818  0.1897
26759W        W69676  21.469  20.700   7.546  0.1807 -0.1612 -0.0441
26760W        W69677  21.710  25.029   8.193  0.0059 -0.0505 -0.0194
26761W        W69678  26.869  23.682   7.803 -0.0633  0.0331  0.0306
26762W        W69679  24.805  22.067   7.278  0.1289 -0.1713 -0.2894
26763W        W69680  19.474  22.050   7.048 -0.3142 -0.1658  0.1401
26764W        W69681  22.604  22.680   6.364  0.0592  0.3551  0.2757
26765W        W69682  24.079  23.385   8.342  0.2057 -0.1641  0.0302
26766W        W69683  22.651  26.829   8.520 -0.0582  0.0549 -0.0845
26767W        W69684  21.766  21.740   6.227 -0.2259 -0.0121 -0.2274
26768W        W69685  21.173  25.446   7.246  0.1079 -0.0493 -0.0385
26769W        W69686  21.671  22.450   6.383  0.1532 -0.0622 -0.2071
26770W        W69687  23.499  23.760   7.200  0.0571 -0.2371 -0.2312
26771W        W69688  21.439  22.182   7.373 -0.2156 -0.2832  0.1857
26772W        W69689  25.875  19.717   7.771 -0.2621  0.0598  0.1063
26773W        W69690  24.955  20.470   8.924 -0.0395 -0.0072 -0.0791
26774W        W69691  21.244  22.529   7.793 -0.0406  0.1971 -0.1824
26775W        W69692  22.056  23.505   7.381  0.4066 -0.0675  0.2957
26776W        W69693  26.811  21.570   8.596 -0.0170 -0.2277  0.0319
26777W        W69694  22.823  23.031   7.626 -0.0823  0.0600 -0.0086
26778W        W69695  23.161  22.615   7.732 -0.0048  0.0444 -0.0729
26779W        W69696  24.045  24.269   7.725  0.0422 -0.1713  0.1324
26780W        W69697  24.105  23.874   7.350 -0.1798  0.1063  0.0960
26781W        W69698  22.774  23.913   7.201  0.2415  0.1094  0.3417
26782W        W69699  22.115  25.096   6.910  0.1687  0.0561  0.2830
26783W        W69700  24.412  23.447   7.141  0.1218 -0.0873 -0.0898
26784W        W69701  24.142  23.004   7.493  0.3315 -0.1676  0.0055
26785W        W69702  25.417  26.406   8.451 -0.1258  0.2427 -0.1304
26786W        W69703  24.718  22.213   5.499  0.1681  0.1497 -0.0170
26787W        W69704  21.964  24.625   8.060 -0.2039  0.0286  0.1125
26788W        W69705  23.208  25.265   4.387 -0.0883  0.0112  0.0206
26789W        W69706  24.054  25.036   6.768  0.3243 -0.1417  0.1972
26790W        W69707  24.426  24.646   7.713 -0.1118 -0.2614 -0.1533
26791W        W69708  25.654  20.486   7.474  0.3608  0.3062  0.0475
26792W        W69709  23.722  23.848   7.644 -0.0219  0.0679 -0.0304
26793W        W69710  23.528  21.802   8.427 -0.0275  0.4320 -0.3157
26794W        W69711  21.155  25.264   9.129 -0.0821  0.1922 -0.0682
26795W        W69712  23.175  21.630   5.220 -0.1872 -0.0704  0.0225
26796W        W69713  25.730  24.450   6.169  0.0885  0.0101  0.0001
26797W        W69714  21.225  21.736   7.640 -0.1928  0.1620 -0.0665
26798W        W69715  24.807  22.014   8.988  0.0598  0.1284 -0.1386
26799W        W69716  27.234  19.370   8.811  0.2559  0.1117  0.1580
26800W        W69717  23.744  24.706   6.554 -0.1201  0.0778 -0.0685
26801W        W69718  25.187  24.150   8.601  0.1943  0.0430 -0.3050
26802W        W69719  22.573  24.763   7.191 -0.4899  0.0722  0.1555
26803W        W69720  20.066  24.181   9.595  0.0349  0.0523  0.3407
26804W        W69721  22.451  26.355   9.501 -0.3173  0.2641  0.1328
26805W        W69722  21.270  23.481   9.101 -0.1938  0.0518 -0.0656
26806W        W69723  26.054  20.870   8.250  0.0588 -0.0796  0.0413
26807W        W69724  22.991  24.408   7.938  0.1609  0.1541 -0.0674
26808W        W69725  22.026  20.859   7.129  0.3435 -0.1228  0.0956
26809W        W69726  24.664  24.023   6.806 -0.1789  0.1033 -0.2603
26810W        W69727  26.179  26.528   8.880  0.1082  0.0186 -0.2543
26811W        W69728  23.314  24.191   8.669 -0.1541  0.1002 -0.0712
26812W        W69729  24.303  24.554   6.547  0.0359 -0.2750  0.0699
26813W        W69730  24.683  23.389   5.356  0.1473 -0.0709 -0.2530
26814W        W69731  24.468  21.173   9.047 -0.1203 -0.3063 -0.0782
26815W        W69732  25.129  22.274   6.894  0.0968  0.1536 -0.0989
26816W        W69733  21.722  22.557   8.120 -0.0146  0.2310 -0.0706
26817W        W69734  21.288  24.347   8.145  0.0541  0.0966  0.0427
26818W        W69735  24.870  21.764   8.297 -0.0646 -0.0256 -0.3395
26819W        W69736  25.858  25.058   6.545 -0.0632 -0.2576 -0.2753
26820W        W69737  23.823  25.100   7.180 -0.1057  0.0510 -0.2949
26821W        W69738  22.787  25.901   6.967  0.0096 -0.1707  0.0532
26822W        W69739  24.456  23.041   7.919 -0.1172  0.1559 -0.0583
26823W        W69740  23.847  24.094   8.489  0.0968 -0.0807  0.2906
26824W        W69741  22.091  19.509   8.873 -0.1357 -0.2284  0.0883
26825W        W69742  24.675  24.585   8.437  0.1550 -0.0549  0.3472
26826W        W69743  24.934  26.323   8.540  0.0576 -0.1551 -0.1260
26827W        W69744  22.154  21.394   6.841 -0.1722  0.3165  0.3136
26828W        W69745  22.610  21.521   7.449 -0.0820  0.2447  0.0207
26829W        W69746  21.864  24.794   7.198  0.3809  0.1877 -0.1205
26830W        W69747  24.868  23.304   8.963  0.0394 -0.0163  0.0624
26831W        W69748  24.500  25.135   7.557  0.0718  0.0177  0.1413
26832W        W69749  21.885  25.031   9.050 -0.3430 -0.1911  0.0619
26833W        W69750  22.333  23.742   6.131 -0.1290 -0.2784 -0.0014
26834W        W69751  24.303  24.012   6.371  0.1068  0.4213 -0.4802
26835W        W69752  21.457  25.147   8.664 -0.0590  0.1676  0.1212
26836W        W69753  25.780  24.370   8.353 -0.1772 -0.1502  0.3466
26837W        W69754  23.131  22.771   7.309 -0.2007 -0.2391 -0.1840
26838W        W69755  28.739  24.036   9.002 -0.0649  0.1261 -0.0242
26839W        W69756  22.631  23.416   7.308 -0.1536  0.1694 -0.1054
26840W        W69757  25.428  20.488   7.974 -0.0879 -0.0530  0.0406
26841W        W69758  24.898  20.626   8.448  0.0209 -0.2369 -0.2783
26842W        W69759  23.128  20.083   8.045  0.2133 -0.1550  0.0779
26843W        W69760  21.178  22.524   6.139  0.1077  0.1013 -0.1232
26844W        W69761  23.668  25.567   5.987  0.1908 -0.0969 -0.0717
26845W        W69762  22.012  21.136   8.063  0.1759 -0.2514 -0.0904
26846W        W69763  24.725  19.578   8.386  0.0234  0.1449 -0.1629
26847W        W69764  22.346  22.946   6.752  0.3496 -0.2693  0.1013
26848W        W69765  24.352  24.563   8.967 -0.0629  0.1747 -0.3940
26849W        W69766  22.776  21.796   6.085 -0.2351 -0.1290 -0.1067
26850W        W69767  19.217  21.944   8.973  0.1179  0.2025  0.2337
26851W        W69768  24.996  24.211   7.097  0.3544 -0.0108 -0.1364
26852W        W69769  24.359  23.908   7.736  0.2740  0.2974  0.4894
26853W        W69770  23.976  20.739   7.737 -0.0918 -0.0150 -0.2005
26854W        W69771  22.317  23.054   7.246  0.0433 -0.2035  0.0579
26855W        W69772  21.305  22.044   8.037  0.1873  0.0776  0.3114
26856W        W69773  23.462  24.546   7.816 -0.2420 -0.0402  0.2998
26857W        W69774  24.100  25.589   8.165  0.1989  0.0079  0.1096
26858W        W69775  24.077  24.821   6.139 -0.0682 -0.2413  0.0179
26859W        W69776  23.400  23.204   7.266 -0.2191  0.0435  0.0700
26860W        W69777  24.214  23.772   8.743  0.1025  0.1021  0.1415
26861W        W69778  24.406  23.610   6.657 -0.0386  0.0782 -0.2518
26862W        W69779  25.036  23.827   7.602 -0.0463  0.0728  0.0196
26863W        W69780  23.074  22.900   6.319 -0.0850  0.0498  0.3061
26864W        W69781  24.641  23.467   7.639 -0.0053 -0.0203 -0.1588
26865W        W69782  20.742  19.608   8.758 -0.1017 -0.1356 -0.0573
26866W        W69783  25.629  22.228   6.636 -0.4479  0.1284 -0.1340
26867W        W69784  24.446  25.043   6.385 -0.3338  0.2373  0.2385
26868W        W69785  19.694  22.891   8.635  0.3717 -0.0939 -0.1636
26869W        W69786  21.146  19.878   8.956  0.1148  0.0770 -0.1041
26870W        W69787  21.210  23.673   8.592  0.1085  0.3384 -0.0076
26871W        W69788  22.920  22.337   6.200 -0.0884  0.1704  0.1109
26872W        W69789  26.295  24.650   6.113 -0.1162 -0.1147  0.1808
26873W        W69790  20.264  26.038   8.249  0.0823 -0.0617  0.3243
26874W        W69791  22.609  24.743   8.108  0.2895  0.2565 -0.1364
26875W        W69792  24.794  24.319   7.573  0.1150 -0.1175 -0.2408
26876W        W69793  24.424  20.964   7.968  0.0045 -0.4114  0.0892
26877W        W69794  23.385  24.025   6.216  0.0075  0.1251  0.2549
26878W        W69795  23.484  22.278   7.489  0.1728  0.2153  0.1744
26879W        W69796  20.960  21.833   8.698  0.1714 -0.0599 -0.3488
26880W        W69797  23.289  22.304   8.228  0.2574 -0.0183  0.0216
26881W        W69798  23.140  21.574   7.704  0.2075 -0.1305  0.1767
26882W        W69799  19.221  23.259   8.641  0.2476 -0.1888  0.0446
26883W        W69800  23.780  24.702   8.922  0.1847 -0.3247 -0.5563
26884W        W69801  21.859  27.602   3.065  0.0247 -0.1624  0.1644
26885W        W69802  23.563  28.379   0.369 -0.0377 -0.1037 -0.2066
26886W        W69803  24.013  27.067   0.342 -0.2482 -0.2318 -0.0027
26887W        W69804  24.218  29.128  31.757 -0.0996  0.1292 -0.1411
26888W        W69805  22.840  25.582   2.106  0.0945 -0.3040  0.1384
26889W        W69806  25.334  27.812   1.833 -0.2164  0.1160 -0.4063
26890W        W69807  22.665  25.214   2.356 -0.2799  0.2789  0.1252
26891W        W69808  24.160  29.046   1.711 -0.1798 -0.2868 -0.1181
26892W        W69809  24.396  30.001   0.822  0.3511  0.1296  0.0496
26893W        W69810  23.791  25.405   1.075  0.1513  0.0283  0.3345
26894W        W69811  23.340  26.681   3.060 -0.1320 -0.0490  0.0957
26895W        W69812  22.822  28.455   0.767 -0.1853 -0.2336  0.1942
26896W        W69813  20.462  25.499   0.898 -0.1664 -0.1948  0.0300
26897W        W69814  21.199  24.944   2.093 -0.1740  0.4196  0.0832
26898W        W69815  24.463  27.611   3.236 -0.1537  0.1591  0.3151
26899W        W69816  21.074  26.367  31.794  0.3411 -0.2452  0.0219
26900W        W69817  22.599  28.196   1.131  0.3946  0.1163  0.0902
26901W        W69818  22.822  24.197   2.351  0.1370  0.1589  0.0957
26902W        W69819  21.391  27.810   1.447  0.1051 -0.1506 -0.1920
26903W        W69820  23.914  25.744   3.293  0.1955  0.1058  0.1026
26904W        W69821  23.395  24.908   3.178  0.0903 -0.0187  0.2656
26905W        W69822  23.099  28.701  31.468  0.0881 -0.2489 -0.1779
26906W        W69823  22.683  27.258   0.370  0.1377 -0.0043 -0.0792
26907W        W69824  20.242  28.082   0.406 -0.3711  0.1858  0.1001
26908W        W69825  21.808  27.138  31.159 -0.1572 -0.0550  0.0932
26909W        W69826  20.970  24.081   2.388  0.1401 -0.2385  0.1547
26910W        W69827  25.678  25.499   1.201 -0.0279  0.0670 -0.1664
26911W        W69828  22.672  27.629   1.035  0.0333  0.0692 -0.1334
26912W        W69829  23.777  30.085   1.976  0.3295  0.3359  0.1039
26913W        W69830  22.540  24.705   3.561  0.2921 -0.1347 -0.0905
26914W        W69831  21.664  27.856   1.042  0.0437  0.0053  0.3090
26915W        W69832  22.084  28.247   1.087  0.0533 -0.1106 -0.3326
26916W        W69833  23.231  27.902   1.637 -0.1050  0.1172 -0.0544
26917W        W69834  25.677  29.670   1.461 -0.2040  0.0110  0.1672
26918W        W69835  24.875  28.518   3.218 -0.1336  0.1220  0.4921
26919W        W69836  21.276  28.134   1.044  0.0936 -0.2543  0.0699
26920W        W69837  21.128  25.880  31.610 -0.2047  0.2172 -0.0070
26921W        W69838  24.528  27.935   2.779 -0.4095  0.1187 -0.1752
26922W        W69839  20.957  26.949   2.977 -0.0245  0.1388  0.3183
26923W        W69840  21.720  26.319   1.473 -0.2365  0.2231 -0.2143
26924W        W69841  23.059  27.346   1.278 -0.0466  0.0479 -0.0737
26925W        W69842  22.349  27.041  31.935  0.0557 -0.0112 -0.1929
26926W        W69843  23.768  27.273   2.245  0.0589 -0.0062 -0.0934
26927W        W69844  24.867  28.207   4.117 -0.0863 -0.1068 -0.1728
26928W        W69845  21.577  27.755  31.494  0.0053  0.0919 -0.2366
26929W        W69846  23.612  25.089   3.613  0.0237  0.0517  0.2009
26930W        W69847  23.426  28.307  31.460  0.4696  0.0828  0.0832
26931W        W69848  26.023  25.754   0.890 -0.1491 -0.0382  0.0234
26932W        W69849  20.973  25.511   0.753  0.2554  0.1027  0.3685
26933W        W69850  24.224  28.530   1.775 -0.1193 -0.0304  0.3390
26934W        W69851  22.722  25.071   1.889  0.1890 -0.0566 -0.4249
26935W        W69852  22.755  29.514  31.933  0.0143  0.0356 -0.4479
26936W        W69853  23.846  26.533   1.897  0.0232 -0.1485 -0.2867
26937W        W69854  24.890  29.302   1.706 -0.0574 -0.0509  0.1847
26938W        W69855  21.718  26.409   0.551  0.1692  0.2064 -0.1818
26939W        W69856  23.437  27.133   0.945 -0.0341 -0.1097 -0.1514
26940W        W69857  22.509  29.424   3.084 -0.1599  0.2275  0.0755
26941W        W69858  22.413  26.693   3.271  0.0484  0.0310 -0.0084
26942W        W69859  24.830  26.908   1.404  0.2249 -0.1380 -0.0496
26943W        W69860  26.482  29.622   1.794  0.0922  0.0077 -0.0869
26944W        W69861  24.543  29.085  30.915 -0.0870  0.3680  0.0643
26945W        W69862  21.523  26.775  30.511  0.1609 -0.4911 -0.1092
26946W        W69863  22.369  25.164   3.480 -0.2720 -0.2743 -0.1915
26947W        W69864  22.502  26.534   5.293  0.0505  0.0446  0.0044
26948W        W69865  23.700  25.423   2.526  0.0877  0.2874  0.1814
26949W        W69866  24.403  29.221   2.122  0.3939  0.2063 -0.3201
26950W        W69867  20.387  30.325   2.516 -0.1464 -0.1779  0.1158
26951W        W69868  23.309  24.474   1.412  0.3012  0.0820  0.0831
26952W        W69869  23.209  29.864   2.991 -0.1860 -0.1407 -0.4443
26953W        W69870  25.838  28.856   1.721  0.2897  0.1139 -0.1325
26954W        W69871  24.125  27.358  31.782  0.1505  0.1728 -0.0154
26955W        W69872  22.398  24.256   3.813 -0.0551 -0.0270  0.0794
26956W        W69873  25.333  25.328   1.610  0.3488  0.2261  0.1607
26957W        W69874  22.706  27.046  30.875 -0.0879 -0.1623 -0.0834
26958W        W69875  21.797  27.619   0.473  0.0397  0.0561 -0.1912
26959W        W69876  26.171  27.884   2.422 -0.0296 -0.0073 -0.1727
26960W        W69877  26.184  25.375   1.269  0.0043  0.0324  0.1591
26961W        W69878  22.560  27.352   1.532  0.1516 -0.0518 -0.2206
26962W        W69879  24.386  24.114   2.634  0.1511  0.2798 -0.1595
26963W        W69880  22.973  28.830   3.432 -0.0033 -0.0411  0.1588
26964W        W69881  22.703  28.440  31.735 -0.2509  0.1496 -0.0060
26965W        W69882  22.866  26.371   3.109  0.0031  0.1875  0.0090
26966W        W69883  22.068  25.521   0.782 -0.1170 -0.1845 -0.0035
26967W        W69884  22.140  26.175   4.342  0.1332  0.0049  0.1426
26968W        W69885  22.573  26.727   2.729  0.1358 -0.0600  0.2131
26969W        W69886  24.571  25.105   0.257 -0.0592 -0.3889  0.1671
26970W        W69887  21.679  24.945   3.919 -0.2068  0.0563  0.3114
26971W        W69888  24.871  23.734   2.269  0.0543 -0.1290  0.0908
26972W        W69889  21.001  28.451  31.328 -0.0985 -0.2311  0.0415
26973W        W69890  24.854  30.706   2.392 -0.1482  0.0219  0.0495
26974W        W69891  22.553  26.152   0.649  0.0565 -0.1561  0.1238
26975W        W69892  23.377  25.084  30.958  0.0491 -0.0710 -0.0950
26976W        W69893  22.865  28.669   1.268 -0.2059 -0.0052 -0.2409
26977W        W69894  23.001  26.037  31.313 -0.4040 -0.0632  0.0308
26978W        W69895  22.342  24.389   2.264  0.0992  0.0039 -0.1762
26979W        W69896  21.253  27.441   1.140 -0.0980  0.2262  0.0697
26980W        W69897  23.999  28.422   3.673 -0.1106 -0.0850  0.1522
26981W        W69898  21.470  26.230   0.194 -0.1223 -0.0554 -0.0549
26982W        W69899  25.802  28.165   2.840 -0.2760  0.1535 -0.0010
26983W        W69900  22.347  25.866   1.034  0.0531  0.1829  0.1626
26984W        W69901  23.175  27.096  29.951  0.0028  0.0206  0.0347
26985W        W69902  25.197  25.579   4.346 -0.1094  0.0483  0.2632
26986W        W69903  24.569  29.846   0.342 -0.0470 -0.0820  0.4130
26987W        W69904  26.344  28.247   2.721  0.2049 -0.3183  0.2107
26988W        W69905  23.515  29.495   1.225 -0.2851  0.1408  0.1125
26989W        W69906  23.168  24.781   3.609 -0.3514 -0.1543 -0.2214
26990W        W69907  21.153  26.943   2.478 -0.0385  0.0935 -0.0155
26991W        W69908  22.976  29.743   3.450  0.1943  0.0010  0.2678
26992W        W69909  22.838  27.021   3.003  0.2285 -0.3222  0.1158
26993W        W69910  23.262  25.611   2.518 -0.1867 -0.1693 -0.1101
26994W        W69911  25.075  30.470   1.492 -0.1771 -0.0716 -0.1569
26995W        W69912  22.022  26.243   1.098 -0.4547 -0.1506  0.1356
26996W        W69913  22.116  25.314   3.069  0.0642  0.0916 -0.2226
26997W        W69914  24.740  26.528   1.761 -0.1951 -0.0254 -0.1235
26998W        W69915  24.854  30.690   2.915  0.0602 -0.1071 -0.1780
26999W        W69916  22.544  26.928   1.702 -0.0564 -0.0710  0.0434
27000W        W69917  22.126  27.100   1.391  0.0364 -0.1581 -0.2742
27001W        W69918  22.467  28.033   2.333  0.0746 -0.1787  0.1015
27002W        W69919  23.406  29.099  31.407  0.1808  0.0526 -0.0409
27003W        W69920  20.550  27.427   0.989  0.2207  0.0819 -0.0726
27004W        W69921  22.237  27.214   2.023  0.0330  0.1271 -0.2926
27005W        W69922  22.184  26.007   2.527 -0.2423  0.1403  0.1314
27006W        W69923  22.102  27.530   4.339 -0.0805 -0.2559  0.2448
27007W        W69924  23.157  26.101   1.388  0.0541 -0.0854  0.3998
27008W        W69925  21.859  25.133   0.485 -0.1730  0.0349 -0.2742
27009W        W69926  21.011  28.162   1.626  0.1637 -0.0768  0.1372
27010W        W69927  24.836  24.485   0.194  0.1550 -0.2178  0.1284
27011W        W69928  27.426  27.277   1.231 -0.1903 -0.2436 -0.2515
27012W        W69929  22.422  28.486   2.962  0.0679  0.0196 -0.0914
27013W        W69930  26.097  27.639   0.764  0.0885 -0.0127 -0.2789
27014W        W69931  25.018  26.128   0.151  0.1196  0.1087 -0.2961
27015W        W69932  23.488  24.355   2.839  0.2334 -0.0069 -0.2054
27016W        W69933  21.821  27.379   3.609 -0.0723 -0.5255  0.1186
27017W        W69934  21.963  26.834   2.865 -0.4086 -0.0362 -0.1029
27018W        W69935  22.691  26.192   2.664  0.2087 -0.1513  0.0269
27019W        W69936  23.036  27.477   0.691 -0.0382  0.1834 -0.1979
27020W        W69937  25.534  30.530   1.202  0.0250  0.1243 -0.0424
27021W        W69938  21.778  28.382   3.352  0.0171 -0.0085  0.1552
27022W        W69939  24.658  27.306   2.342 -0.1522  0.0961 -0.0870
27023W        W69940  25.561  28.115   1.401 -0.0915 -0.2187 -0.0076
27024W        W69941  23.473  27.624   2.436 -0.0164  0.2552  0.1615
27025W        W69942  22.486  25.284   0.923 -0.1613 -0.0305 -0.2933
27026W        W69943  22.252  25.502   1.316  0.1811  0.1739 -0.0359
27027W        W69944  24.030  28.386  30.751  0.0328 -0.2267 -0.0292
27028W        W69945  23.752  26.081   1.587 -0.1115 -0.0918  0.2679
27029W        W69946  22.795  25.263   1.367  0.0609  0.1077  0.1038
27030W        W69947  22.131  24.844   3.198  0.0459  0.1259  0.1194
27031W        W69948  24.901  28.155   2.465 -0.2563 -0.0306  0.0099
27032W        W69949  23.429  26.236   2.104  0.1624  0.3260  0.1983
27033W        W69950  24.313  26.823   1.644 -0.0305 -0.1349  0.2195
27034W        W69951  22.426  27.404  31.073 -0.1948 -0.1252  0.4685
27035W        W69952  21.232  25.570   3.490 -0.3250  0.0514  0.1166
27036W        W69953  20.771  26.623   4.175 -0.2320 -0.0903 -0.1092
27037W        W69954  22.680  30.600   2.896 -0.2636  0.1269  0.4074
27038W        W69955  24.856  28.552   2.699 -0.0365 -0.1420  0.3075
27039W        W69956  21.207  29.479   1.663 -0.1849 -0.1011 -0.2034
27040W        W69957  22.721  26.030   3.433 -0.1572  0.4292  0.2821
27041W        W69958  23.203  26.134   2.721  0.0910 -0.1093 -0.0993
27042W        W69959  22.697  29.632  30.104  0.0795  0.4338  0.2590
27043W        W69960  24.271  27.482   2.628  0.0179  0.2799 -0.1229
27044W        W69961  22.030  26.787   1.839 -0.0287  0.1522 -0.1956
27045W        W69962  23.624  27.780   3.931 -0.0423  0.4324 -0.2685
27046W        W69963  20.875  27.165   0.327  0.3249 -0.2831 -0.0172
27047W        W69964  26.785  29.997   1.823 -0.3032 -0.1904  0.1489
27048W        W69965  21.764  27.476   1.279  0.2411 -0.2789  0.0718
27049W        W69966  24.985  25.878   0.926  0.5190  0.2394  0.0493
27050W        W69967  21.723  29.913  31.877  0.1300  0.4164 -0.0993
27051W        W69968  23.543  26.838   0.061  0.0448 -0.1775 -0.2242
27052W        W69969  21.977  26.363  31.580  0.0541 -0.1702 -0.2097
27053W        W69970  24.441  25.657   0.104 -0.0417  0.0852 -0.4712
27054W        W69971  24.936  26.793  31.338  0.0054 -0.2144 -0.2372
27055W        W69972  22.102  27.177   3.243 -0.1367  0.1256 -0.0490
27056W        W69973  24.054  25.819   2.815  0.2009  0.3560 -0.3027
27057W        W69974  21.358  29.319   2.082 -0.1858  0.2145 -0.3067
27058W        W69975  25.221  24.956   2.051 -0.3976  0.0835  0.2069
27059W        W69976  24.784  27.475   1.381 -0.2044 -0.0100 -0.0007
27060W        W69977  21.922  28.591   2.902 -0.1323  0.1364 -0.0234
27061W        W69978  22.900  26.010   1.846  0.2284  0.3109 -0.1600
27062W        W69979  22.007  29.145  30.667  0.0676 -0.2901  0.0133
27063W        W69980  25.536  27.737   2.558 -0.2061 -0.1814 -0.0363
27064W        W69981  23.240  28.581   2.575 -0.1815 -0.2657 -0.0424
27065W        W69982  22.302  28.703   0.084  0.1808 -0.1145 -0.1019
27066W        W69983  20.223  27.012   3.332 -0.0717 -0.0496  0.0942
27067W        W69984  22.662  24.826   1.023  0.3605 -0.1182 -0.1857
27068W        W69985  20.848  28.355   1.119  0.0655  0.0678 -0.1126
27069W        W69986  22.557  26.983   3.992 -0.2776  0.0148  0.0557
27070W        W69987  23.750  29.717   3.316 -0.0105 -0.4188  0.0538
27071W        W69988  23.388  26.904   2.104  0.1967  0.1509 -0.0596
27072W        W69989  23.894  25.408   1.618 -0.3399  0.2470  0.0830
27073W        W69990  24.663  26.795   2.261 -0.1985  0.0574  0.3712
27074W        W69991  24.359  27.720   4.563 -0.2734  0.1905  0.5214
27075W        W69992  22.431  26.375   1.807 -0.0867  0.2670  0.1913
27076W        W69993  22.189  28.305   4.805 -0.1712  0.0064 -0.2280
27077W        W69994  22.654  25.560   3.654  0.1481  0.0061  0.2373
27078W        W69995  25.454  31.119   0.943 -0.5628  0.2586 -0.0936
27079W        W69996  24.957  26.397   2.172 -0.2160  0.1263  0.0318
27080W        W69997  21.620  26.992   0.353  0.2266 -0.1941  0.2017
27081W        W69998  23.163  27.874   3.544 -0.1643 -0.4091  0.0437
27082W        W69999  22.246  28.677  31.401 -0.0037 -0.1048 -0.1636
27083W        W70000  24.960  27.349   2.764 -0.2773  0.1369 -0.1848
27084W        W70001  22.725  28.958   2.779  0.0654 -0.1027 -0.0428
27085W        W70002  25.032  28.868  30.448  0.0687  0.0908 -0.0159
27086W        W70003  23.938  26.920   2.874  0.1099  0.1023  0.2126
27087W        W70004  23.465  24.586   0.402 -0.2041  0.1499  0.1877
27088W        W70005  22.054  28.578  29.622 -0.2341 -0.0054  0.1589
27089W        W70006  24.482  27.810   2.311 -0.2490 -0.2107  0.0066
27090W        W70007  24.603  26.027   1.681 -0.0004 -0.1990  0.3263
27091W        W70008  23.741  28.256  31.808 -0.1850  0.1849  0.0504
27092W        W70009  24.536  26.080   2.775 -0.0803 -0.1386  0.3537
27093W        W70010  20.636  24.051   1.980  0.0765  0.2514  0.1200
27094W        W70011  24.911  28.108   1.933  0.0404 -0.4926 -0.0419
27095W        W70012  19.445  25.454   2.460 -0.0473  0.1836 -0.0399
27096W        W70013  22.242  27.725   2.637  0.0562 -0.0420 -0.3409
27097W        W70014  24.041  26.911   3.629 -0.3512  0.2727  0.0925
27098W        W70015  25.736  26.344  31.722 -0.2827  0.1255  0.1172
27099W        W70016  21.120  24.666   0.266 -0.1580  0.1248 -0.4185
27100W        W70017  22.783  27.731   0.293  0.0647  0.0330  0.1266
27101W        W70018  25.899  28.380   1.629 -0.1931 -0.0778  0.3149
27102W        W70019  25.292  28.269   3.041  0.2995 -0.0465  0.2722
27103W        W70020  21.639  26.921   1.532 -0.0493 -0.1413  0.0298
27104W        W70021  25.449  27.234   2.672  0.1673  0.4298 -0.1175
27105W        W70022  22.301  27.567   0.424 -0.0130 -0.3108 -0.0264
27106W        W70023  22.656  27.217  31.452 -0.2690 -0.1846 -0.1189
27107W        W70024  22.846  23.713   2.580 -0.2350  0.0305  0.3985
27108W        W70025  25.408  29.257   1.601 -0.0729  0.2150 -0.1241
27109W        W70026  23.957  26.869   0.896  0.3224  0.2250  0.2749
27110W        W70027  23.302  27.229   3.028 -0.0481 -0.0840  0.1436
27111W        W70028  24.341  24.557   2.442 -0.3436 -0.0091  0.0141
27112W        W70029  22.481  27.318   2.978 -0.0775 -0.2026 -0.1864
27113W        W70030  23.011  26.556   2.091 -0.0453  0.0240 -0.1405
27114W        W70031  25.349  27.547   0.488 -0.0310 -0.3403 -0.1746
27115W        W70032  25.062  28.543  29.535  0.1997 -0.1999 -0.1885
27116W        W70033  26.265  27.033   2.318  0.1167 -0.1376 -0.2167
27117W        W70034  25.293  25.849   2.921 -0.2500 -0.0191  0.4101
27118W        W70035  25.844  24.945   1.050 -0.1527 -0.1529 -0.0038
27119W        W70036  21.718  25.597   3.459 -0.2436  0.0767 -0.1815
27120W        W70037  25.089  26.153   1.747 -0.0800  0.2519 -0.1936
27121W        W70038  22.235  24.950   0.003 -0.1766 -0.0616  0.1875
27122W        W70039  23.084  25.836   3.748 -0.1560 -0.4076 -0.0388
27123W        W70040  23.552  28.711   0.716 -0.3956 -0.0111 -0.1389
27124W        W70041  23.034  27.007   1.752  0.2022  0.2036 -0.0075
27125W        W70042  23.832  27.559   1.827  0.2720  0.0026  0.5080
27126W        W70043  21.584  25.435   0.878 -0.1474 -0.0362 -0.1188
27127W        W70044  21.068  30.450   3.606  0.1425  0.1478  0.3723
27128W        W70045  22.973  24.439  31.529 -0.2506 -0.0070 -0.0770
27129W        W70046  23.173  27.396   0.109 -0.1768 -0.0402  0.1543
27130W        W70047  23.388  28.301   2.997  0.0310 -0.0145 -0.0382
27131W        W70048  24.666  27.040   3.150  0.1445 -0.1004 -0.0467
27132W        W70049  24.308  26.711   0.562  0.0111  0.1681 -0.2001
27133W        W70050  23.957  24.787   3.333  0.2875  0.0278  0.0612
27134W        W70051  21.683  27.274  31.633 -0.0511 -0.2822  0.0326
27135W        W70052  23.861  24.200   0.998 -0.3025  0.3246 -0.1266
27136W        W70053  21.703  28.498   2.468 -0.0100  0.1590 -0.1286
27137W        W70054  20.076  28.107   1.689 -0.1014  0.1646  0.1908
27138W        W70055  22.839  27.364   2.013 -0.0581  0.0461 -0.2942
27139W        W70056  24.115  26.108   1.908  0.2207  0.2290 -0.0604
27140W        W70057  24.575  25.691   1.276  0.1364 -0.1327 -0.1245
27141W        W70058  22.631  27.110   3.522  0.3057  0.1707  0.2068
27142W        W70059  25.089  27.595   2.381  0.0042 -0.0684  0.1696
27143W        W70060  24.066  29.786   4.155  0.0619 -0.0347 -0.0080
27144W        W70061  23.793  26.681   1.361 -0.0149 -0.0247 -0.1204
27145W        W70062  24.003  28.875   3.422 -0.0411  0.0091 -0.0097
27146W        W70063  25.365  26.964   0.556 -0.0273  0.1246 -0.0224
27147W        W70064  22.107  27.382   0.890 -0.3122 -0.2193 -0.0406
27148W        W70065  22.282  27.669   5.287 -0.0565 -0.1281 -0.1233
27149W        W70066  24.007  28.151   4.692  0.0431 -0.3492  0.0031
27150W        W70067  26.130  27.023   1.854 -0.3616  0.0939 -0.1800
27151W        W70068  23.451  25.752   1.982  0.0085 -0.0498 -0.0513
27152W        W70069  24.151  28.927  31.146 -0.3584  0.0458 -0.1585
27153W        W70070  22.679  29.212   1.389  0.2104  0.1162 -0.0847
27154W        W70071  19.954  28.535   2.163 -0.2107  0.0449  0.1670
27155W        W70072  22.241  28.157  31.597  0.0900  0.1147  0.2260
27156W        W70073  22.145  26.859   2.361  0.1967 -0.0974 -0.0020
27157W        W70074  25.341  27.540  30.452  0.1189  0.1771 -0.0018
27158W        W70075  22.919  28.893   2.276  0.0160  0.0578  0.2888
27159W        W70076  22.190  27.297  31.556  0.0512 -0.1202  0.1702
27160W        W70077  20.847  27.330   2.187 -0.0842  0.0101 -0.4542
27161W        W70078  20.815  27.690  30.441  0.3347 -0.1216  0.5531
27162W        W70079  24.797  27.701   0.829  0.0298 -0.0512  0.0775
27163W        W70080  22.841  29.299   1.866  0.0632  0.1549 -0.0163
27164W        W70081  26.395  29.272   2.547 -0.1908  0.1280  0.1986
27165W        W70082  24.267  25.303   1.188 -0.0710  0.1549 -0.1645
27166W        W70083  23.047  25.270   2.920  0.0363  0.0453 -0.1610
27167W        W70084  23.019  25.921   0.575  0.2586 -0.1746  0.0440
27168W        W70085  22.184  29.094   5.020  0.1143  0.0356  0.1221
27169W        W70086  24.020  28.542   0.613  0.1918 -0.0298  0.1368
27170W        W70087  22.535  25.123   2.820  0.3735  0.2059  0.2949
27171W        W70088  24.234  25.755   3.684 -0.0407 -0.4119 -0.2796
27172W        W70089  25.193  25.240   2.579  0.3102  0.1657  0.1675
27173W        W70090  22.151  28.744   2.434  0.2179 -0.1180  0.1688
27174W        W70091  23.498  29.669   1.984  0.0750 -0.4155  0.0777
27175W        W70092  19.521  27.882   1.084 -0.1487 -0.2124  0.0282
27176W        W70093  24.260  27.445   2.034 -0.0928  0.1696  0.1069
27177W        W70094  23.460  25.233   1.497 -0.1127 -0.3490 -0.1047
27178W        W70095  23.104  28.475   0.366 -0.1566  0.0747  0.2232
27179W        W70096  23.242  26.697   1.183 -0.3069  0.0991 -0.0115
27180W        W70097  22.904  29.244   0.388  0.0574  0.0360  0.0504
27181W        W70098  22.195  27.758   1.224  0.0955  0.1872  0.1808
27182W        W70099  23.642  28.082   2.604  0.0192  0.1456 -0.1834
27183W        W70100  21.400  26.989  30.929 -0.0688 -0.2366  0.0794
27184W        W70101  25.206  27.182   1.565 -0.4427  0.0951  0.0395
27185W        W70102  23.119  28.680   3.896 -0.1156  0.1883 -0.0124
27186W        W70103  24.156  25.500   2.173 -0.0744 -0.0138 -0.0821
27187W        W70104  22.659  25.702   2.576 -0.0247 -0.0754  0.0222
27188W        W70105  24.158  26.398   0.844  0.0949 -0.4003 -0.2655
27189W        W70106  23.028  27.951   3.073 -0.2762  0.1183  0.0408
27190W        W70107  22.956  25.811   2.944  0.0061  0.0603  0.1225
27191W        W70108  21.496  26.548   1.040  0.1331  0.1076 -0.2863
27192W        W70109  26.898  26.701   2.438 -0.2060  0.4782  0.1433
27193W        W70110  25.085  26.788   0.943  0.1609 -0.2470 -0.1767
27194W        W70111  21.344  28.532   1.437 -0.0686  0.2299  0.0200
27195W        W70112  20.811  26.576   0.700  0.2486 -0.3137 -0.0746
27196W        W70113  24.853  26.956   0.444  0.1684  0.0250 -0.0291
27197W        W70114  22.524  26.739  31.574  0.0595 -0.0707  0.0023
27198W        W70115  23.772  27.408   2.766  0.2791 -0.2073 -0.1333
27199W        W70116  24.218  27.752   3.736  0.2759  0.0651  0.0329
27200W        W70117  22.942  24.391   0.973  0.2240  0.0458 -0.4556
27201W        W70118  24.223  27.872   1.857 -0.0724 -0.3214  0.2454
27202W        W70119  24.643  26.090  31.790 -0.0555 -0.0210  0.0638
27203W        W70120  23.099  28.898   0.732 -0.2191 -0.0704  0.2298
27204W        W70121  23.333  27.819   0.363  0.1194 -0.1493 -0.3329
27205W        W70122  24.511  28.325   2.094  0.1943 -0.3454  0.3438
27206W        W70123  21.427  27.652   3.552 -0.1116 -0.0667  0.0926
27207W        W70124  24.548  29.983   3.361  0.0486  0.0969 -0.1936
27208W        W70125  24.550  29.530   1.218  0.1087  0.1830 -0.0472
27209W        W70126  21.822  25.343   1.567 -0.0590 -0.1493 -0.0227
27210W        W70127  22.590  28.048   2.816 -0.1956 -0.0244 -0.1540
27211W        W70128  21.034  29.680  30.780 -0.1512  0.1103  0.1952
27212W        W70129  24.851  24.042   2.710 -0.0632  0.0281 -0.3066
27213W        W70130  25.533  25.659   2.440  0.0460  0.3424  0.1666
27214W        W70131  24.233  31.000  30.421  0.2245 -0.1882  0.0508
27215W        W70132  26.296  26.139   3.171 -0.0012  0.1583  0.1088
27216W        W70133  21.096  30.177   1.862  0.1158  0.1830 -0.0143
27217W        W70134  21.515  28.940   2.340  0.1206 -0.2531 -0.0800
27218W        W70135  23.809  27.057   1.802 -0.0742  0.1210  0.2250
27219W        W70136  22.152  29.113   2.877  0.1018  0.2236  0.3305
27220W        W70137  23.561  27.626   1.388  0.0438  0.1671 -0.0749
27221W        W70138  23.380  28.572   1.172  0.1821  0.0131 -0.0809
27222W        W70139  24.102  28.994   0.930  0.0578  0.2376 -0.0901
27223W        W70140  24.260  28.066   0.985  0.0213  0.0895 -0.0844
27224W        W70141  24.866  24.741   1.166  0.0187 -0.1131 -0.0216
27225W        W70142  23.626  26.113   2.950  0.1089 -0.2369 -0.0899
27226W        W70143  25.411  28.087   0.089  0.0215  0.0755  0.0527
27227W        W70144  23.875  24.947   1.205  0.0975  0.1863  0.2277
27228W        W70145  22.177  28.467   3.610  0.3048  0.2571  0.0014
27229W        W70146  21.381  28.378   0.496  0.0914  0.1878  0.0023
27230W        W70147  20.750  27.649  31.412 -0.2032 -0.1495 -0.2383
27231W        W70148  21.741  27.897   2.619 -0.3275  0.0126 -0.1263
27232W        W70149  25.146  24.465   1.898 -0.0846  0.1916 -0.3015
27233W        W70150  23.026  26.791   3.450  0.1155  0.1322  0.0905
27234W        W70151  19.673  27.887   2.017  0.1478 -0.0952 -0.1256
27235W        W70152  22.535  26.009  31.424 -0.0887 -0.1421  0.0724
27236W        W70153  23.701  29.198   1.647 -0.1558  0.1927  0.2065
27237W        W70154  22.203  25.376   2.021 -0.1115 -0.2135  0.0820
27238W        W70155  20.964  27.524   0.752 -0.0135  0.0006 -0.1440
27239W        W70156  22.673  28.557   2.482 -0.1117 -0.0217 -0.1244
27240W        W70157  24.753  27.070   1.873 -0.0001 -0.4109 -0.0441
27241W        W70158  23.989  25.002   2.329  0.0620  0.1737  0.1868
27242W        W70159  27.974  27.243   2.966 -0.2949  0.1676 -0.1316
27243W        W70160  20.938  27.012  31.086  0.0075  0.3013  0.1463
27244W        W70161  26.101  27.065   2.988 -0.3362 -0.0654 -0.1361
27245W        W70162  24.939  25.668   2.477  0.2607  0.1529  0.0091
27246W        W70163  22.438  25.559  31.820  0.2760  0.3008  0.0654
27247W        W70164  24.366  27.491   1.029  0.0673 -0.0933 -0.0402
27248W        W70165  22.202  28.145   0.244 -0.1902 -0.1879  0.0224
27249W        W70166  23.892  29.224  31.458  0.1679  0.1173  0.0098
27250W        W70167  21.185  25.967   2.628  0.2150  0.0011  0.1239
27251W        W70168  23.050  27.725   4.062  0.0949  0.0149 -0.4302
27252W        W70169  20.377  25.607   3.443 -0.1105  0.2658 -0.0095
27253W        W70170  25.569  26.526   1.032 -0.0149 -0.2542  0.2222
27254W        W70171  22.669  28.436   4.824  0.0114 -0.0469 -0.0817
27255W        W70172  26.029  29.170   0.867 -0.1176  0.0664  0.2454
27256W        W70173  23.188  26.233   0.878 -0.1517  0.0365  0.1114
27257W        W70174  22.976  26.994   0.793  0.1104  0.0120  0.0738
27258W        W70175  21.863  26.666   3.340 -0.1938 -0.0583  0.3238
27259W        W70176  23.416  26.535   3.550 -0.1456 -0.0168 -0.1863
27260W        W70177  23.916  28.346   2.167 -0.1384  0.0814 -0.1209
27261W        W70178  21.264  26.498   1.491 -0.1606 -0.3285  0.1926
27262W        W70179  25.010  25.256   0.513 -0.3364  0.1417 -0.2737
27263W        W70180  23.380  27.379   1.864 -0.0353 -0.1405  0.0521
27264W        W70181  22.006  25.112   1.083  0.3343 -0.3116  0.1043
27265W        W70182  22.210  26.603   0.638  0.2163  0.0962  0.0734
27266W        W70183  23.005  26.528   2.559 -0.0310  0.0077 -0.0309
27267W        W70184  22.632  26.850   2.197  0.1634 -0.1077  0.1569
27268W        W70185  24.934  26.874   3.973 -0.0907  0.4262  0.0002
27269W        W70186  25.373  28.069   2.207  0.0705 -0.0606 -0.0607
27270W        W70187  26.888  25.799   1.525 -0.5000  0.0221 -0.0429
27271W        W70188  23.684  28.694   1.586 -0.2090 -0.0239  0.1092
27272W        W70189  23.516  29.012   3.499  0.0039 -0.3801 -0.2119
27273W        W70190  23.705  28.132   1.739 -0.0605  0.1554  0.1678
27274W        W70191  22.501  28.910   3.238 -0.3146 -0.0743 -0.0866
27275W        W70192  22.116  26.367   2.959  0.3111  0.1161  0.0890
27276W        W70193  21.609  27.209   0.826 -0.3366 -0.0526  0.0814
27277W        W70194  24.660  28.373  31.615  0.3012 -0.0694 -0.0436
27278W        W70195  23.776  25.857   2.345 -0.1714 -0.2469  0.0495
27279W        W70196  22.617  25.464   3.165  0.0088 -0.0496 -0.0864
27280W        W70197  24.820  27.211   0.976  0.2046  0.0880  0.0100
27281W        W70198  21.107  29.964   3.441 -0.0192  0.3825 -0.2837
27282W        W70199  23.567  27.885   4.430 -0.1914  0.0153 -0.1238
27283W        W70200  23.666  28.014   5.831 -0.0045 -0.2690  0.1668
27284W        W70201  24.338  26.477   2.060 -0.0436  0.1025  0.0298
27285W        W70202  22.218  25.643   3.442 -0.2320  0.1834 -0.1277
27286W        W70203  25.258  29.394   3.113 -0.1515  0.2732 -0.0843
27287W        W70204  20.948  27.719   3.499 -0.0243 -0.0969 -0.3116
27288W        W70205  25.009  29.423   3.604 -0.2428  0.0043  0.0809
27289W        W70206  24.013  26.498   6.525 -0.2045 -0.2130 -0.3156
27290W        W70207  24.726  27.686   3.636 -0.0602  0.1494 -0.0344
27291W        W70208  26.377  29.652   6.200  0.1278 -0.0774 -0.0069
27292W        W70209  22.233  26.220   3.441 -0.0219  0.2508 -0.1961
27293W        W70210  24.575  26.618   6.416  0.1817  0.3032 -0.2448
27294W        W70211  24.367  27.274   3.684  0.1769  0.0106 -0.3097
27295W        W70212  23.444  24.370   4.741  0.0716 -0.1957 -0.1438
27296W        W70213  19.997  27.182   3.765 -0.4108 -0.2297  0.1098
27297W        W70214  21.959  28.772   5.483  0.0504  0.0978  0.2752
27298W        W70215  22.655  28.515   3.651 -0.5658 -0.0969 -0.0953
27299W        W70216  23.737  26.870   4.309 -0.1083  0.1340  0.2434
27300W        W70217  23.819  27.507   5.768  0.2682 -0.3798  0.4130
27301W        W70218  24.789  29.333   4.219  0.0473  0.0322 -0.2035
27302W        W70219  21.276  26.041   4.781 -0.0486 -0.0796 -0.2322
27303W        W70220  23.427  26.715   7.154 -0.0129  0.0252 -0.0277
27304W        W70221  23.355  29.259   3.893  0.0449 -0.0469 -0.0268
27305W        W70222  23.974  27.628   4.240 -0.1227 -0.1633 -0.0463
27306W        W70223  22.178  26.405   4.827  0.1323 -0.2076  0.0162
27307W        W70224  22.708  27.336   5.026  0.1717  0.2876  0.0387
27308W        W70225  24.711  26.570   2.783  0.0783 -0.1806 -0.0634
27309W        W70226  23.553  26.530   2.471  0.0499  0.0644 -0.0318
27310W        W70227  24.265  27.770   5.007 -0.0745  0.0657  0.0307
27311W        W70228  24.066  29.466   6.597  0.1671 -0.1618 -0.3186
27312W        W70229  26.564  25.183   4.906 -0.1801  0.0591  0.2458
27313W        W70230  20.772  29.637   5.750  0.2175  0.0370 -0.4415
27314W        W70231  22.730  28.892   5.049 -0.0121 -0.2506  0.2202
27315W        W70232  23.254  28.861   5.885  0.0192 -0.2590 -0.2583
27316W        W70233  26.035  28.451   5.703 -0.1018 -0.1528  0.0587
27317W        W70234  23.371  29.503   4.343  0.4117 -0.2406  0.1190
27318W        W70235  21.841  29.335   6.472  0.1167  0.5738  0.3627
27319W        W70236  22.882  28.739   4.471 -0.2606 -0.0132  0.1653
27320W        W70237  23.356  29.385   6.469 -0.0285  0.2444  0.2439
27321W        W70238  22.404  27.464   6.591 -0.1884  0.1962  0.4362
27322W        W70239  23.298  27.545   6.384 -0.0176  0.0834  0.1093
27323W        W70240  24.847  27.191   3.600  0.0948 -0.0345 -0.0771
27324W        W70241  23.926  27.633   3.210  0.1337 -0.0844 -0.2296
27325W        W70242  26.680  26.978   3.182  0.1897 -0.2193  0.3192
27326W        W70243  23.854  27.851   5.296  0.3931  0.4676  0.2009
27327W        W70244  24.879  26.898   6.715  0.2099 -0.1381  0.0158
27328W        W70245  24.873  25.430   6.537 -0.2392 -0.2163 -0.2939
27329W        W70246  22.357  27.886   5.729  0.1221  0.0418  0.4132
27330W        W70247  23.380  28.125   2.109  0.4635 -0.0644 -0.3058
27331W        W70248  23.726  24.083   3.289 -0.0395  0.0028  0.1797
27332W        W70249  25.078  26.743   3.458  0.0978  0.1035 -0.2219
27333W        W70250  24.980  24.678   3.605 -0.2732 -0.1427  0.0978
27334W        W70251  20.588  27.636   5.780  0.0036 -0.1838 -0.0140
27335W        W70252  25.507  25.369   4.895  0.2628 -0.0125 -0.2629
27336W        W70253  25.914  28.260   6.267  0.0724  0.2430  0.0600
27337W        W70254  23.119  28.180   4.397 -0.0238 -0.0650  0.0635
27338W        W70255  24.399  27.797   7.004 -0.1303  0.0763  0.0455
27339W        W70256  22.147  27.267   7.079  0.0196  0.2966  0.2068
27340W        W70257  23.522  27.389   4.284  0.1214  0.0603  0.0388
27341W        W70258  25.740  28.793   4.208  0.2896 -0.1596  0.2654
27342W        W70259  25.391  28.160   4.806  0.1481 -0.2239 -0.0518
27343W        W70260  24.151  27.303   5.088  0.3230 -0.2021  0.2514
27344W        W70261  23.751  27.080   4.801 -0.0065 -0.0337 -0.1139
27345W        W70262  20.202  25.757   4.730 -0.1551  0.0667  0.0867
27346W        W70263  22.753  25.918   4.894 -0.3917  0.3081 -0.0725
27347W        W70264  23.971  24.347   4.005  0.4328 -0.2205  0.0477
27348W        W70265  24.813  27.819   4.972 -0.0714 -0.2705 -0.1941
27349W        W70266  21.652  27.442   4.674  0.0264  0.1739 -0.3129
27350W        W70267  26.123  27.217   4.519  0.0848 -0.2146 -0.0401
27351W        W70268  23.749  27.725   6.388  0.0367  0.1299  0.1977
27352W        W70269  25.260  29.145   5.118 -0.3616  0.0019 -0.2623
27353W        W70270  24.431  26.992   2.727 -0.0704 -0.1209 -0.0524
27354W        W70271  25.641  27.121   4.612  0.1467 -0.1009 -0.0134
27355W        W70272  23.925  26.768   5.167 -0.0303 -0.0389  0.0899
27356W        W70273  23.702  28.784   3.970  0.3118 -0.3883 -0.0287
27357W        W70274  20.568  28.247   3.294  0.1139  0.2525 -0.0135
27358W        W70275  27.076  27.555   4.984  0.0738  0.1131  0.0877
27359W        W70276  24.358  25.593   1.706 -0.2484 -0.0467  0.2970
27360W        W70277  22.674  29.836   5.345  0.1439  0.0750  0.1907
27361W        W70278  24.619  27.069   6.228 -0.0650 -0.2023  0.0416
27362W        W70279  23.819  27.212   6.514  0.2281 -0.2134 -0.3285
27363W        W70280  23.844  29.465   3.733 -0.4011 -0.2595 -0.0665
27364W        W70281  21.834  28.105   5.051  0.0972  0.1436  0.0754
27365W        W70282  21.160  29.003   2.912  0.2499 -0.2393 -0.2364
27366W        W70283  21.001  24.162   4.779  0.1834 -0.1643 -0.0326
27367W        W70284  23.371  27.740   5.058  0.2368 -0.1138  0.1797
27368W        W70285  26.065  27.023   3.481 -0.5476  0.0876  0.1129
27369W        W70286  21.407  25.882   5.264  0.1694 -0.0513 -0.1107
27370W        W70287  23.565  25.916   5.010  0.0775  0.1281 -0.2702
27371W        W70288  21.843  27.123   4.103 -0.1838 -0.1946  0.0598
27372W        W70289  24.126  27.817   6.032 -0.0934 -0.1266 -0.2859
27373W        W70290  25.894  27.542   1.797  0.1123  0.1275  0.1316
27374W        W70291  25.332  27.019   4.239 -0.0938  0.0200  0.0299
27375W        W70292  21.183  26.483   4.502 -0.1493 -0.0571  0.1011
27376W        W70293  22.522  25.551   4.590  0.0282 -0.0527  0.0632
27377W        W70294  22.776  25.391   5.730 -0.4626  0.3199  0.2047
27378W        W70295  25.035  26.570   4.359  0.0982 -0.1770  0.1350
27379W        W70296  24.820  28.544   3.735  0.0318 -0.0143  0.2583
27380W        W70297  20.661  22.816   3.771  0.3485  0.1952 -0.1813
27381W        W70298  25.765  26.719   5.028 -0.3042  0.3095  0.3120
27382W        W70299  24.028  26.899   6.148 -0.0184 -0.2351 -0.0128
27383W        W70300  21.163  27.573   4.435  0.0235 -0.2990 -0.2250
27384W        W70301  25.396  25.534   5.352 -0.0310  0.2057  0.1985
27385W        W70302  23.324  28.198   3.934 -0.0927  0.2622  0.2464
27386W        W70303  26.125  31.201   7.316 -0.1240 -0.1054  0.0717
27387W        W70304  25.759  27.366   5.477 -0.1925  0.1595 -0.0258
27388W        W70305  25.090  26.850   6.224  0.0807 -0.0162 -0.1208
27389W        W70306  23.647  26.076   4.035 -0.1564  0.0160  0.2353
27390W        W70307  22.697  29.971   4.366  0.1392 -0.0404  0.1383
27391W        W70308  24.084  29.116   6.940  0.3071 -0.0333 -0.0506
27392W        W70309  23.036  26.848   4.047 -0.1087 -0.3157 -0.0098
27393W        W70310  24.604  30.712   4.369  0.1578  0.3020 -0.1329
27394W        W70311  22.362  27.974   3.753 -0.0249  0.0614  0.0980
27395W        W70312  20.092  27.991   5.803  0.2763 -0.0649 -0.1993
27396W        W70313  22.877  27.174   7.634 -0.2119 -0.0855 -0.3763
27397W        W70314  24.562  27.757   4.088  0.2460  0.1282  0.0691
27398W        W70315  25.264  28.514   4.007  0.2174 -0.0797  0.3906
27399W        W70316  20.802  26.354   3.364  0.0234  0.1358 -0.2488
27400W        W70317  22.727  30.003   3.120  0.1162 -0.0322 -0.1035
27401W        W70318  21.982  29.405   3.224 -0.3067 -0.0434  0.3661
27402W        W70319  22.832  28.163   3.898 -0.0354  0.0331 -0.0648
27403W        W70320  24.198  28.053   4.142  0.1546 -0.1308  0.0247
27404W        W70321  24.959  26.340   3.716  0.4024 -0.1715  0.2075
27405W        W70322  22.007  26.913   6.686 -0.0111 -0.1558 -0.1437
27406W        W70323  23.649  28.137   6.799 -0.3004  0.0461  0.1111
27407W        W70324  23.127  27.244   3.793  0.2197  0.0313 -0.2536
27408W        W70325  23.059  26.569   5.376  0.1703 -0.1095 -0.0154
27409W        W70326  25.600  26.736   2.965  0.0726 -0.1865 -0.0791
27410W        W70327  25.740  28.481   5.063  0.0792 -0.2915  0.1286
27411W        W70328  25.152  27.766   6.229 -0.1257 -0.0111  0.3353
27412W        W70329  25.424  25.635   3.590 -0.0734 -0.2417 -0.0215
27413W        W70330  25.092  24.173   2.273 -0.1018  0.1054 -0.4213
27414W        W70331  25.166  25.451   2.104 -0.3065 -0.1876  0.1311
27415W        W70332  20.806  27.512   4.845  0.2068 -0.2298 -0.2458
27416W        W70333  24.202  28.618   6.055 -0.0867  0.1487  0.0094
27417W        W70334  24.203  30.370   4.562 -0.0303 -0.1140 -0.1556
27418W        W70335  23.828  25.249   3.070  0.0012 -0.1268 -0.0153
27419W        W70336  25.822  28.780   2.606  0.2635  0.0766  0.1141
27420W        W70337  20.936  26.023   5.446 -0.1263 -0.1569  0.0657
27421W        W70338  26.602  26.806   5.403 -0.0653  0.2715  0.1707
27422W        W70339  24.831  30.500   3.973  0.0370  0.1544  0.0928
27423W        W70340  23.031  25.128   5.355  0.0162 -0.0039 -0.1705
27424W        W70341  24.139  28.048   3.364  0.0790  0.2059  0.2326
27425W        W70342  23.564  25.683   3.648  0.0147 -0.2324 -0.1016
27426W        W70343  21.329  30.655   3.164  0.2007  0.0690 -0.0561
27427W        W70344  24.515  25.767   4.188  0.1199  0.0320 -0.0545
27428W        W70345  23.457  25.206   4.823 -0.1362  0.2519 -0.0722
27429W        W70346  23.448  26.191   7.218 -0.6241  0.0683 -0.0407
27430W        W70347  25.133  27.493   5.404 -0.1497  0.0591 -0.0450
27431W        W70348  27.567  26.097   3.342  0.2993  0.0776  0.0673
27432W        W70349  23.984  25.969   5.275  0.3566  0.0038  0.0429
27433W        W70350  23.454  26.987   2.630 -0.2962 -0.2207 -0.0637
27434W        W70351  22.834  25.519   6.580  0.1947 -0.2266 -0.0297
27435W        W70352  24.971  26.904   5.673 -0.1074 -0.3023 -0.2478
27436W        W70353  23.709  30.477   4.321 -0.0964  0.0752  0.1075
27437W        W70354  24.473  26.827   7.004 -0.1322  0.2668 -0.1253
27438W        W70355  25.364  27.912   3.926 -0.0634 -0.1222 -0.1606
27439W        W70356  24.007  27.561   7.448  0.0043 -0.2151  0.0681
27440W        W70357  24.178  26.921   4.120  0.1871 -0.0996 -0.0951
27441W        W70358  21.759  28.911   3.272  0.1675 -0.1026  0.3803
27442W        W70359  23.055  26.374   3.797 -0.4045 -0.0592 -0.1076
27443W        W70360  22.135  24.778   5.590 -0.0664  0.1238 -0.3479
27444W        W70361  23.043  30.058   5.088 -0.2220 -0.1585 -0.0538
27445W        W70362  24.029  27.930   2.846  0.0755  0.3739  0.2034
27446W        W70363  23.715  29.038   5.724 -0.0802 -0.0679 -0.3489
27447W        W70364  23.394  26.859   5.144  0.0485 -0.0124 -0.3519
27448W        W70365  25.814  26.276   4.778 -0.2023  0.1308 -0.1227
27449W        W70366  21.333  28.308   5.051  0.0555  0.3090  0.0980
27450W        W70367  22.769  27.615   3.695 -0.1497 -0.1877  0.4526
27451W        W70368  21.550  27.065   3.244  0.0453  0.4305 -0.0363
27452W        W70369  25.449  26.939   5.549  0.3527  0.0881  0.0316
27453W        W70370  25.173  26.754   1.896  0.2117  0.1528 -0.0799
27454W        W70371  21.343  26.447   6.524  0.1862 -0.3150  0.4378
27455W        W70372  22.603  24.462   5.402 -0.1817 -0.0400 -0.3138
27456W        W70373  20.830  29.482   2.134 -0.2224  0.0050 -0.0510
27457W        W70374  24.189  29.378   4.857  0.1112 -0.2688 -0.1923
27458W        W70375  24.209  26.038   2.405 -0.3565 -0.0150  0.1971
27459W        W70376  28.169  27.584   5.421 -0.0123 -0.0671 -0.0678
27460W        W70377  23.508  28.626   6.664  0.0250  0.3367  0.2424
27461W        W70378  23.293  27.011   4.512  0.5005  0.1005  0.2386
27462W        W70379  25.712  25.804   4.998  0.1377 -0.1948  0.1304
27463W        W70380  23.353  27.341   4.839  0.1031 -0.1742  0.0757
27464W        W70381  21.096  27.654   2.487 -0.2058  0.1154 -0.0414
27465W        W70382  25.616  27.876   6.170 -0.1393  0.1008  0.0730
27466W        W70383  21.228  27.592   3.010  0.0677  0.1337 -0.3634
27467W        W70384  22.034  28.583   4.151 -0.2055 -0.0500  0.2151
27468W        W70385  22.944  27.397   6.106 -0.2384  0.3104 -0.0548
27469W        W70386  24.994  27.165   4.601  0.0080  0.0101  0.0454
27470W        W70387  24.189  27.208   4.567 -0.0261 -0.5126  0.1057
27471W        W70388  23.068  25.749   4.537  0.0694 -0.2809  0.0018
27472W        W70389  22.103  25.698   4.276  0.2995 -0.1156  0.3696
27473W        W70390  24.764  29.493   6.394 -0.2845  0.2839  0.4052
27474W        W70391  25.122  26.832   2.707  0.1302 -0.0854 -0.0841
27475W        W70392  23.952  27.717   6.822 -0.0272 -0.0772  0.2795
27476W        W70393  21.909  25.143   6.299 -0.2982 -0.1600  0.0060
27477W        W70394  26.839  28.405   4.873 -0.2894 -0.2335 -0.2535
27478W        W70395  26.377  26.785   5.821  0.5670  0.3174  0.2451
27479W        W70396  22.661  27.393   5.650  0.1480 -0.2065  0.0546
27480W        W70397  22.435  26.860   4.900  0.0289  0.1033  0.2568
27481W        W70398  22.624  26.411   5.801 -0.1345 -0.0716 -0.2261
27482W        W70399  24.026  25.569   5.653  0.0890  0.0208 -0.0440
27483W        W70400  21.394  26.902   5.747 -0.2077 -0.1577 -0.0278
27484W        W70401  22.076  27.273   2.738  0.0033 -0.1994 -0.1140
27485W        W70402  22.576  26.450   6.347 -0.2154  0.1365  0.0734
27486W        W70403  26.068  26.172   3.704  0.1117  0.0574 -0.1209
27487W        W70404  26.461  29.894   2.579 -0.1603  0.0192  0.0350
27488W        W70405  25.021  27.081   5.174  0.0091  0.0650 -0.2455
27489W        W70406  23.068  26.448   6.181  0.0030  0.0770 -0.1424
27490W        W70407  25.309  28.760   2.954  0.0129 -0.1411  0.0969
27491W        W70408  23.599  25.566   8.022  0.2090  0.0325 -0.0621
27492W        W70409  22.729  26.984   5.351  0.0580  0.2863 -0.3543
27493W        W70410  24.833  27.407   5.871  0.1339  0.0871  0.2550
27494W        W70411  21.456  27.347   6.467  0.0820  0.1055 -0.1488
27495W        W70412  22.041  28.477   9.104  0.1882  0.1168  0.1858
27496W        W70413  22.821  26.051   6.064  0.2016 -0.0285 -0.0346
27497W        W70414  23.453  26.526   4.124 -0.0635 -0.0968  0.0144
27498W        W70415  24.272  25.493   3.052  0.0132 -0.0826  0.0290
27499W        W70416  21.831  27.187   5.366  0.2449  0.0628  0.0889
27500W        W70417  25.802  26.917   2.520 -0.1493 -0.1655 -0.1158
27501W        W70418  23.678  27.060   3.291  0.3643 -0.0757  0.2041
27502W        W70419  27.399  26.690   5.993 -0.2292  0.0359 -0.0940
27503W        W70420  24.202  26.896   7.403 -0.1353  0.1344  0.0865
27504W        W70421  25.113  27.092   2.310  0.1130 -0.1570  0.4014
27505W        W70422  23.775  26.545   3.217 -0.0215  0.1022  0.0106
27506W        W70423  21.710  28.199   5.900  0.3413  0.2618 -0.2316
27507W        W70424  22.619  25.606   6.137  0.0780 -0.0687  0.1179
27508W        W70425  25.465  27.607   6.678  0.1078  0.1062  0.0687
27509W        W70426  24.317  25.354   4.484  0.2475 -0.3578 -0.1403
27510W        W70427  25.530  26.666   6.652 -0.2978 -0.1965 -0.1072
27511W        W70428  25.263  26.810   4.814 -0.2651 -0.1364 -0.1460
27512W        W70429  22.306  25.625   8.067  0.0377  0.1383  0.1148
27513W        W70430  23.007  25.312   7.552  0.3998  0.1199 -0.2544
27514W        W70431  25.724  30.238   6.631  0.1247 -0.2617 -0.1075
27515W        W70432  25.906  27.745   3.278  0.1820  0.0674 -0.0755
27516W        W70433  27.682  25.004   5.135  0.0034  0.0081  0.1949
27517W        W70434  24.628  26.873   4.415 -0.2308 -0.1544  0.2165
27518W        W70435  24.666  25.266   2.849  0.3927  0.0424  0.1977
27519W        W70436  24.224  26.769   4.772 -0.1087 -0.4039  0.2385
27520W        W70437  25.381  26.004   5.345  0.0594  0.1709  0.3717
27521W        W70438  24.408  28.532   3.389  0.0114  0.0959  0.0710
27522W        W70439  23.688  27.365   5.302  0.1881 -0.1234  0.2581
27523W        W70440  24.176  29.079   3.936 -0.3425 -0.1529 -0.3361
27524W        W70441  22.167  29.119   4.208  0.1526 -0.2390 -0.1083
27525W        W70442  24.105  26.201   3.113  0.0906 -0.1871  0.1298
27526W        W70443  21.972  25.381   4.832 -0.0740  0.1951  0.2186
27527W        W70444  24.287  30.433   7.286 -0.2965  0.0635  0.2029
27528W        W70445  22.075  25.438   3.845 -0.1709  0.0256 -0.0045
27529W        W70446  25.178  28.993   3.416 -0.0831 -0.1341 -0.2868
27530W        W70447  24.977  28.441   5.592 -0.1303 -0.0072 -0.0054
27531W        W70448  24.438  28.273   7.321  0.1597 -0.0632  0.1541
27532W        W70449  24.413  25.595   2.614  0.0143 -0.0539 -0.2669
27533W        W70450  26.910  27.078   5.113 -0.0635 -0.1775 -0.2008
27534W        W70451  22.642  28.056   3.376  0.0787 -0.3375  0.2624
27535W        W70452  24.736  24.782   5.252 -0.0418  0.0292 -0.0402
27536W        W70453  21.667  28.390   4.600  0.0943 -0.1887 -0.0544
27537W        W70454  20.391  29.254   5.609 -0.1405 -0.0916 -0.0190
27538W        W70455  23.391  28.746   5.358  0.0831  0.4368  0.2076
27539W        W70456  24.756  26.532   5.423  0.1507 -0.1395 -0.2320
27540W        W70457  24.663  27.468   5.331  0.2185  0.0737 -0.2636
27541W        W70458  24.495  28.156   3.749  0.3625  0.3312  0.3037
27542W        W70459  26.505  26.744   6.901  0.0335  0.1349  0.0837
27543W        W70460  22.794  29.401   6.638  0.1404  0.1404  0.0544
27544W        W70461  22.298  27.174   5.252 -0.0384  0.2670  0.0006
27545W        W70462  26.464  28.901   5.474 -0.0022 -0.4171 -0.1191
27546W        W70463  26.283  26.736   5.020 -0.1345 -0.5113 -0.0987
27547W        W70464  22.106  27.375   5.678 -0.1828  0.0379 -0.3319
27548W        W70465  21.013  26.739   4.896  0.0097 -0.1105 -0.0814
27549W        W70466  23.153  27.881   6.918  0.1397  0.2970 -0.1851
27550W        W70467  24.152  28.226   5.156 -0.0220 -0.1292  0.1588
27551W        W70468  23.966  24.869   3.878 -0.1158  0.1440  0.0983
27552W        W70469  23.757  28.400   4.239  0.2804 -0.0383 -0.3774
27553W        W70470  21.459  28.460   6.329 -0.0617  0.0204 -0.1202
27554W        W70471  21.881  27.780   5.553 -0.1326  0.0593  0.1162
27555W        W70472  22.162  28.083   3.154 -0.1326 -0.0288  0.2019
27556W        W70473  26.804  27.051   2.078  0.0925  0.1003  0.0329
27557W        W70474  23.070  28.353   3.434  0.3737 -0.4237  0.2891
27558W        W70475  23.880  30.404   7.688  0.0230  0.1940 -0.0767
27559W        W70476  23.653  28.051   3.532  0.4532 -0.0571 -0.2443
27560W        W70477  21.672  27.613   5.122  0.0416  0.0852  0.1231
27561W        W70478  20.228  29.545   3.193  0.1543 -0.1883  0.2823
27562W        W70479  24.696  29.428   4.972  0.0658  0.1849  0.1853
27563W        W70480  22.365  29.633   3.456 -0.0560 -0.2188 -0.1916
27564W        W70481  26.370  28.775   5.968 -0.0012 -0.1685 -0.0440
27565W        W70482  24.974  24.668   2.465 -0.1342  0.0284 -0.2135
27566W        W70483  25.195  27.142   3.131  0.1217  0.0490  0.1056
27567W        W70484  24.703  28.171   4.640 -0.1121 -0.1250 -0.1080
27568W        W70485  24.057  28.589   8.167  0.0977  0.2058 -0.1242
27569W        W70486  24.298  29.123   5.343  0.3500  0.0398 -0.0104
27570W        W70487  23.620  24.503   3.552  0.1372  0.0363 -0.2188
27571W        W70488  22.635  26.005   4.412  0.0018 -0.2359 -0.1589
27572W        W70489  25.060  26.455   6.587 -0.0818 -0.2250  0.0510
27573W        W70490  21.853  29.826   6.231  0.2228 -0.0168  0.1390
27574W        W70491  26.458  30.079   4.003  0.2121  0.0013 -0.2060
27575W        W70492  22.891  27.701   5.321 -0.0155  0.0442 -0.0534
27576W        W70493  21.958  27.734   6.067  0.2220  0.1435 -0.1332
27577W        W70494  27.814  26.392   5.913 -0.2508  0.3154  0.0644
27578W        W70495  23.564  29.460   2.748  0.1094  0.1143 -0.1296
27579W        W70496  24.330  25.580   5.319 -0.3434 -0.2977 -0.0507
27580W        W70497  24.805  29.156   5.453 -0.2622  0.1048  0.3773
27581W        W70498  21.636  28.737   5.909  0.0651 -0.2106 -0.0855
27582W        W70499  22.254  27.401   3.853  0.5394  0.0723 -0.1445
27583W        W70500  23.104  26.568   4.463  0.1317  0.1241 -0.1848
27584W        W70501  27.281  25.590   6.337  0.3041  0.3091  0.0513
27585W        W70502  23.677  27.158   7.185 -0.2567 -0.0960 -0.1133
27586W        W70503  26.072  24.823   4.530 -0.0876 -0.1421 -0.0816
27587W        W70504  21.339  25.928   3.812  0.1438  0.2508  0.0849
27588W        W70505  23.908  26.505   3.844  0.1712  0.2169  0.4503
27589W        W70506  23.824  28.652   7.024 -0.0333 -0.1220  0.0459
27590W        W70507  23.173  27.284   5.253  0.0629  0.2457 -0.0138
27591W        W70508  24.350  28.764   2.765 -0.0475 -0.1687  0.0893
27592W        W70509  26.772  27.516   6.443  0.0660  0.5044  0.3406
27593W        W70510  22.942  27.142   2.493  0.1787 -0.1953 -0.1467
27594W        W70511  22.873  28.688   6.669 -0.1322 -0.1467 -0.2564
27595W        W70512  22.232  24.042   4.671 -0.2592  0.0831  0.2729
27596W        W70513  24.224  26.104   4.053 -0.1736 -0.1006 -0.0655
27597W        W70514  22.196  28.264   5.986  0.1875  0.4734 -0.1717
27598W        W70515  23.645  25.592   4.592 -0.1494 -0.4454 -0.2997
27599W        W70516  25.191  28.719   6.133 -0.1001 -0.0017 -0.1820
27600W        W70517  23.188  24.266   3.761 -0.0477 -0.0916  0.0730
27601W        W70518  26.617  27.025   2.691 -0.3690  0.1329 -0.0274
27602W        W70519  24.345  24.787   5.582 -0.2334  0.2743 -0.3581
27603W        W70520  22.583  30.121   2.123 -0.1366  0.1177 -0.1273
27604W        W70521  24.595  27.733   6.127  0.4996 -0.2965  0.0583
27605W        W70522  26.022  29.868   3.518  0.0267 -0.0613  0.1063
27606W        W70523  21.455  27.453   5.555  0.2536 -0.1381  0.3331
27607W        W70524  24.839  28.909   4.974  0.2717 -0.1298  0.1483
27608W        W70525  27.648  28.865   4.588  0.1256 -0.2043 -0.2719
27609W        W70526  25.399  26.580   4.004 -0.0206  0.0276 -0.0902
27610W        W70527  24.281  26.682   3.149 -0.0107 -0.2039 -0.1685
27611W        W70528  23.486  28.148   4.830 -0.1254  0.2444  0.0153
27612W        W70529  27.676  26.533   6.465 -0.1199 -0.1191  0.1560
27613W        W70530  23.483  26.744   5.685 -0.1496  0.1526 -0.1915
27614W        W70531  22.418  25.922   3.017 -0.1044 -0.1347 -0.1795
27615W        W70532  24.299  25.229   5.935  0.2270 -0.1971  0.1910
27616W        W70533  24.129  28.241   6.977 -0.0769 -0.4431  0.0632
27617W        W70534  23.798  28.094   8.122  0.2196 -0.1855 -0.1621
27618W        W70535  22.542  25.579   5.246 -0.3339 -0.0848  0.1326
27619W        W70536  24.546  28.020   5.335 -0.0239  0.2894 -0.5197
27620W        W70537  25.041  28.088   3.547 -0.1100 -0.0824 -0.0907
27621W        W70538  22.425  27.549   6.100  0.1372  0.1339 -0.1174
27622W        W70539  26.036  27.967   5.876  0.0664 -0.1921  0.0788
27623W        W70540  22.236  29.088   3.683  0.1579  0.1906 -0.0985
27624W        W70541  27.349  28.264   3.776 -0.3948 -0.2663 -0.1823
27625W        W70542  24.311  27.273   5.915  0.2662  0.1749 -0.1985
27626W        W70543  26.034  26.723   4.588  0.1158 -0.1403  0.2193
27627W        W70544  25.435  26.046   4.323 -0.0603  0.2308  0.0530
27628W        W70545  25.022  26.030   4.083 -0.3567  0.1650  0.0391
27629W        W70546  21.764  26.610   4.197 -0.3076  0.0355  0.3331
27630W        W70547  22.102  28.112   4.357 -0.1792 -0.2341  0.0674
27631W        W70548  23.699  28.305   5.304  0.3130 -0.0993 -0.3933
27632W        W70549  21.128  24.563   8.870  0.0081  0.0599 -0.2293
27633W        W70550  22.542  25.935   6.561 -0.2509 -0.0110  0.0276
27634W        W70551  23.353  27.646   5.704 -0.1899 -0.0728 -0.0438
27635W        W70552  23.144  25.609   5.072  0.0572  0.2038 -0.0865
27636W        W70553  25.740  29.624   2.961 -0.1087 -0.0792  0.0893
27637W        W70554  21.075  26.412   3.812 -0.1244 -0.0746  0.0809
27638W        W70555  23.217  26.260   4.935  0.0296  0.1217 -0.0084
27639W        W70556  22.907  28.514   2.979 -0.1646 -0.4919 -0.5417
27640W        W70557  25.319  28.554   3.474  0.1926  0.1829 -0.1725
27641W        W70558  21.896  25.716   5.212  0.0370 -0.2145 -0.1558
27642W        W70559  24.971  29.039   6.578 -0.1010 -0.0116  0.0366
27643W        W70560  22.429  26.455   2.328 -0.1550 -0.1807 -0.1752
27644W        W70561  24.047  27.406   8.807  0.0136  0.0644  0.0500
27645W        W70562  23.390  24.349   6.611 -0.2806  0.2479  0.0603
27646W        W70563  21.780  26.073   3.388 -0.1841 -0.1616  0.0800
27647W        W70564  24.662  25.976   3.746  0.1107 -0.1413  0.1984
27648W        W70565  22.952  29.635   4.554  0.0126 -0.5018  0.0209
27649W        W70566  26.559  26.978   4.728  0.2421  0.1408  0.3343
27650W        W70567  23.707  28.747   6.187 -0.0275 -0.1169 -0.0739
27651W        W70568  22.742  28.190   6.175 -0.0539  0.0872  0.2142
27652W        W70569  21.208  24.285   5.989 -0.0985 -0.1389  0.1283
27653W        W70570  25.346  26.354   3.255  0.0598 -0.3088 -0.0045
27654W        W70571  23.356  29.781   6.127 -0.2565 -0.1301 -0.0041
27655W        W70572  24.640  28.113   3.228  0.1349 -0.1566 -0.1336
27656W        W70573  27.558  28.224   6.336  0.0310  0.0633  0.0588
27657W        W70574  21.371  29.279   3.314  0.0862  0.3119 -0.1734
27658W        W70575  21.084  25.211   5.470  0.0029  0.1474  0.0168
27659W        W70576  21.669  28.526   6.823  0.0149  0.1190  0.4518
27660W        W70577  25.481  28.400   5.500  0.2096  0.1042 -0.3094
27661W        W70578  22.800  25.556   4.133  0.0487  0.0362  0.0920
27662W        W70579  24.359  26.331   5.035  0.0448  0.1437  0.2184
27663W        W70580  22.390  27.619   3.366  0.1035  0.0314 -0.0937
27664W        W70581  23.380  25.686   4.168  0.0172  0.0671  0.3789
27665W        W70582  23.556  27.027   3.895 -0.0507  0.0779  0.1401
27666W        W70583  22.714  28.008   7.775  0.1279 -0.0009  0.1624
27667W        W70584  25.048  29.635   4.563 -0.1400 -0.2029  0.2003
27668W        W70585  24.854  27.921   7.269 -0.1545 -0.1859  0.3064
27669W        W70586  24.101  26.509   2.607 -0.1712 -0.2204 -0.0472
27670W        W70587  25.460  27.784   3.070  0.2493  0.1287 -0.1223
27671W        W70588  25.970  28.772   7.761 -0.0641 -0.0098 -0.0723
27672W        W70589  24.985  28.343   8.113  0.0064  0.0690  0.5327
27673W        W70590  21.741  29.214   4.914 -0.2618 -0.0729  0.0760
27674W        W70591  26.511  28.407   5.415 -0.0229 -0.2455 -0.0087
27675W        W70592  24.658  25.212   5.482 -0.0177 -0.1055  0.5031
27676W        W70593  22.361  25.920   3.853 -0.1204 -0.0248  0.4990
27677W        W70594  23.414  27.437   3.445  0.4439 -0.0552 -0.1918
27678W        W70595  23.898  26.308   4.858 -0.0462 -0.0297 -0.0713
27679W        W70596  21.918  26.783   5.099  0.1270  0.0504  0.1506
27680W        W70597  22.487  24.448   4.825  0.0602  0.2318 -0.1324
27681W        W70598  24.070  28.878   4.465  0.0387 -0.0498 -0.0473
27682W        W70599  24.539  26.794   3.656  0.2118 -0.0225 -0.1903
27683W        W70600  21.295  29.174   9.347  0.1533 -0.0649 -0.2724
27684W        W70601  22.922  26.817   8.013  0.3105  0.1612  0.5108
27685W        W70602  24.831  25.057   5.977  0.3663 -0.1078  0.1318
27686W        W70603  25.982  26.139   7.539 -0.1574 -0.0583 -0.1227
27687W        W70604  23.085  25.867   7.405  0.2464 -0.0316  0.2182
27688W        W70605  22.463  28.771   9.058  0.1874 -0.0167  0.5821
27689W        W70606  25.186  28.334   8.727  0.2621  0.2753  0.1023
27690W        W70607  25.061  28.797   8.852  0.0157 -0.2795 -0.2035
27691W        W70608  23.760  28.298   7.371  0.1891 -0.1281 -0.1792
27692W        W70609  23.836  27.127   8.221  0.2038  0.0713  0.2555
27693W        W70610  22.423  25.258   7.652 -0.0949 -0.0538 -0.1236
27694W        W70611  21.646  25.421   9.839  0.1745 -0.0522  0.2067
27695W        W70612  23.985  26.129   7.408  0.1696  0.0489 -0.1105
27696W        W70613  22.352  27.984   6.392  0.0158  0.2180 -0.1971
27697W        W70614  21.242  25.951   7.118 -0.0731 -0.0256 -0.3628
27698W        W70615  22.630  28.157   6.736 -0.0189  0.2919 -0.2481
27699W        W70616  21.937  25.472   9.317 -0.0328 -0.0810 -0.2384
27700W        W70617  22.099  19.997   8.981 -0.3127 -0.2532  0.0689
27701W        W70618  23.469  27.487   6.836 -0.1043  0.1205  0.1273
27702W        W70619  22.381  24.230   6.275  0.0718  0.1429  0.1155
27703W        W70620  23.468  25.297   8.766  0.0347  0.0549 -0.1010
27704W        W70621  22.281  27.116   8.653 -0.0437  0.0920 -0.2853
27705W        W70622  21.079  25.425   9.569 -0.0378 -0.0106 -0.0306
27706W        W70623  24.793  24.770   7.340 -0.0428  0.4356 -0.1069
27707W        W70624  24.538  28.200   5.956 -0.1825 -0.1366 -0.0436
27708W        W70625  27.208  27.353   7.893  0.1276 -0.5726 -0.4377
27709W        W70626  21.929  27.468   6.524 -0.0474 -0.1281  0.0295
27710W        W70627  22.368  25.580   6.860  0.1298 -0.0530 -0.4249
27711W        W70628  23.499  29.629   5.626 -0.1195 -0.0780  0.0398
27712W        W70629  25.853  28.304   8.051 -0.0661  0.1189 -0.2200
27713W        W70630  20.056  27.771   6.602 -0.1042 -0.1156 -0.1581
27714W        W70631  23.207  25.166   8.319  0.0127 -0.0249  0.0074
27715W        W70632  25.294  26.097   8.961 -0.4320 -0.2083  0.3225
27716W        W70633  24.651  26.610   7.388 -0.2349 -0.1959  0.0915
27717W        W70634  21.252  28.096   7.851  0.1105  0.1248  0.0676
27718W        W70635  22.247  27.948   7.835  0.1006 -0.0836  0.0846
27719W        W70636  23.828  29.340   6.136 -0.0492 -0.2670 -0.1653
27720W        W70637  24.956  26.108   5.081  0.1495  0.0147  0.0491
27721W        W70638  23.435  27.007   6.746 -0.0000  0.0051  0.2207
27722W        W70639  25.223  25.571   6.973 -0.1202 -0.0931 -0.2320
27723W        W70640  21.931  26.115   9.208  0.2430  0.3443  0.0349
27724W        W70641  22.501  30.083   8.393  0.4316 -0.0371 -0.1535
27725W        W70642  25.778  26.508   7.926 -0.2502  0.1872  0.1803
27726W        W70643  23.580  27.214   6.079  0.1880 -0.2303 -0.0160
27727W        W70644  24.221  25.881   7.735  0.1432  0.1183 -0.1306
27728W        W70645  22.987  27.348   9.029  0.2717 -0.1437 -0.0123
27729W        W70646  20.496  28.343   9.349 -0.0124  0.0551  0.0826
27730W        W70647  26.217  27.287   6.238 -0.1252  0.2978  0.2389
27731W        W70648  25.394  28.337   7.075  0.1069 -0.0590  0.2670
27732W        W70649  25.606  27.761   5.225  0.0497  0.0148  0.0730
27733W        W70650  22.138  26.661   6.211 -0.0923 -0.3401 -0.1991
27734W        W70651  22.951  24.564   6.876 -0.1534  0.3777  0.0548
27735W        W70652  25.021  25.922   6.668 -0.1727 -0.1823 -0.3799
27736W        W70653  24.161  27.744   7.936  0.1334  0.1961 -0.2811
27737W        W70654  25.796  25.959   9.236  0.3329  0.1526  0.1093
27738W        W70655  27.398  27.550   6.865  0.0328 -0.0441 -0.0062
27739W        W70656  24.876  24.443   8.926  0.0877  0.5240 -0.2297
27740W        W70657  25.418  25.237   9.145  0.3733 -0.0891 -0.0717
27741W        W70658  22.612  28.583   7.053  0.1554 -0.0583 -0.0885
27742W        W70659  22.698  27.243   7.121  0.2572 -0.1477 -0.0507
27743W        W70660  29.376  28.214   8.800 -0.2198 -0.1653 -0.2159
27744W        W70661  25.965  27.739   6.564  0.2446  0.1528  0.0597
27745W        W70662  22.762  30.453   8.186  0.1641  0.1026  0.2224
27746W        W70663  22.577  28.777   5.533  0.3712 -0.1769  0.2605
27747W        W70664  21.704  30.012   8.721 -0.0133  0.2151 -0.1197
27748W        W70665  22.154  26.001   8.437 -0.0327  0.1862  0.2523
27749W        W70666  22.824  24.325   8.448 -0.1944 -0.0001  0.2105
27750W        W70667  23.173  28.085   7.550  0.0922  0.1368 -0.0599
27751W        W70668  24.744  26.598   4.905  0.0817 -0.0086  0.1838
27752W        W70669  25.399  25.137   6.781 -0.1655 -0.1475  0.1753
27753W        W70670  22.747  28.087   7.249 -0.1604  0.1651  0.0211
27754W        W70671  27.581  26.459   7.690 -0.0268  0.1385  0.1113
27755W        W70672  23.025  22.776   4.975 -0.2759  0.3901  0.0368
27756W        W70673  24.620  28.088   7.861 -0.2025  0.0988 -0.1015
27757W        W70674  20.359  24.003   9.013 -0.1058 -0.0143  0.2685
27758W        W70675  23.041  24.955   7.183  0.1283 -0.0359 -0.0426
27759W        W70676  24.372  27.613   9.353 -0.0447  0.1759  0.2367
27760W        W70677  22.445  26.091   7.807  0.0088  0.0217  0.2675
27761W        W70678  24.504  25.524   7.912 -0.1095  0.0403  0.0554
27762W        W70679  23.062  25.712   7.912  0.0251  0.1062 -0.0438
27763W        W70680  22.847  28.664   6.057  0.0503  0.0831  0.3249
27764W        W70681  25.356  27.482   5.910 -0.1772 -0.0322  0.0500
27765W        W70682  23.147  26.756   8.973  0.2039  0.1950  0.1541
27766W        W70683  25.896  27.420   7.883 -0.1479 -0.0084  0.5315
27767W        W70684  21.816  25.830   8.063 -0.0785 -0.0188  0.0641
27768W        W70685  23.359  25.967   6.316  0.0276  0.0731 -0.2817
27769W        W70686  24.752  28.854   9.394 -0.2370 -0.0958 -0.1749
27770W        W70687  24.207  26.605   7.762 -0.0333 -0.0855  0.3449
27771W        W70688  23.733  24.979   8.473 -0.2920  0.2170 -0.0635
27772W        W70689  24.645  29.009   8.237  0.2758 -0.0412 -0.2707
27773W        W70690  24.866  25.709   8.303 -0.0085  0.0078  0.1853
27774W        W70691  25.547  27.472   8.441 -0.0277  0.0039 -0.0881
27775W        W70692  22.309  26.769   7.153 -0.1937 -0.2124 -0.2187
27776W        W70693  24.244  27.007   6.585 -0.0298  0.2185 -0.2672
27777W        W70694  24.749  28.581   8.512 -0.4281 -0.1108  0.0284
27778W        W70695  22.651  26.972   6.243  0.1211 -0.1155  0.0602
27779W        W70696  22.106  25.853   7.566 -0.0461  0.0955 -0.3151
27780W        W70697  24.292  28.134   8.261 -0.0364 -0.3300 -0.0202
27781W        W70698  25.892  25.404   7.394  0.1676 -0.2325  0.0429
27782W        W70699  21.228  25.637   6.789 -0.1136  0.0631  0.1766
27783W        W70700  23.649  25.715   8.488 -0.0645  0.3809  0.0728
27784W        W70701  24.636  27.338   6.828  0.0552  0.0543 -0.0111
27785W        W70702  24.709  27.775   6.591 -0.0266  0.0332 -0.2353
27786W        W70703  25.474  26.110   3.753 -0.0718 -0.3480 -0.0454
27787W        W70704  23.186  27.965   6.180  0.0873  0.0753  0.0034
27788W        W70705  24.575  27.253   7.283  0.0056 -0.0723  0.2320
27789W        W70706  22.539  27.005   9.085 -0.1131 -0.1066 -0.2112
27790W        W70707  23.286  26.908   7.598 -0.1739 -0.2632  0.1363
27791W        W70708  25.051  28.868   7.928  0.1277  0.3021 -0.3695
27792W        W70709  24.502  25.929   9.068  0.4078 -0.1683 -0.0856
27793W        W70710  24.421  27.739   8.562 -0.0667 -0.2164 -0.1748
27794W        W70711  24.231  26.673  12.926  0.1154 -0.2364  0.0149
27795W        W70712  23.909  26.792   6.929 -0.0876  0.1650 -0.0464
27796W        W70713  20.866  28.214   8.831 -0.0808 -0.0369  0.1918
27797W        W70714  21.312  28.868   5.208  0.0660 -0.0885 -0.0904
27798W        W70715  27.273  24.348   9.304  0.0247  0.3404  0.1356
27799W        W70716  21.964  23.677   8.398  0.1005 -0.0014 -0.0681
27800W        W70717  23.886  26.129   6.820  0.0158  0.1699 -0.2921
27801W        W70718  23.393  26.396   7.674 -0.0593  0.0991 -0.1806
27802W        W70719  21.941  26.912   4.608 -0.0546 -0.1055  0.2059
27803W        W70720  26.671  28.228   8.315 -0.1875 -0.2602 -0.0622
27804W        W70721  25.021  28.367   7.583  0.2770 -0.2912 -0.0249
27805W        W70722  24.530  25.355   8.360 -0.1984 -0.0428  0.0031
27806W        W70723  23.037  25.460   7.039  0.1224 -0.0446  0.0278
27807W        W70724  23.041  27.646   7.867 -0.0750  0.0968 -0.1400
27808W        W70725  23.530  26.743   8.019 -0.0732 -0.1981  0.2013
27809W        W70726  22.287  23.341   8.254 -0.1907 -0.0705  0.2424
27810W        W70727  23.953  26.558   9.554 -0.3216  0.0685 -0.1633
27811W        W70728  23.207  26.030   8.579 -0.1063  0.2887  0.1516
27812W        W70729  26.293  27.081   7.756 -0.0060 -0.2935  0.0499
27813W        W70730  24.086  28.579   6.524  0.1436  0.1337 -0.1850
27814W        W70731  27.806  25.604   7.966 -0.0153  0.0234  0.0530
27815W        W70732  21.862  27.610   8.756 -0.0684  0.2412 -0.1478
27816W        W70733  22.808  27.897   8.258 -0.1551  0.0791 -0.2152
27817W        W70734  22.064  26.359   6.944  0.2041 -0.0528  0.1118
27818W        W70735  24.633  25.605   7.452 -0.1710 -0.0129  0.1089
27819W        W70736  25.301  27.162   6.819 -0.0518 -0.0666 -0.0768
27820W        W70737  24.532  26.046   8.167  0.3155 -0.2551 -0.0501
27821W        W70738  25.447  25.098   7.299  0.2333  0.2173  0.1071
27822W        W70739  21.272  30.848   8.854  0.1776  0.0250  0.1937
27823W        W70740  25.557  25.958   6.680  0.2075  0.0978  0.0367
27824W        W70741  22.131  25.644   6.244 -0.1845  0.0180  0.1768
27825W        W70742  27.303  28.711   8.151 -0.2524 -0.1832 -0.0649
27826W        W70743  25.054  27.085   9.048 -0.2257  0.0415  0.3402
27827W        W70744  23.317  28.384   7.123  0.3506 -0.3147 -0.0587
27828W        W70745  23.560  27.883   8.924 -0.1258  0.2870  0.0896
27829W        W70746  24.374  26.417   8.577 -0.3238  0.0888 -0.0959
27830W        W70747  24.756  29.733   9.447 -0.2872 -0.0612 -0.1508
27831W        W70748  23.492  28.474   8.785 -0.1994  0.2206 -0.1867
27832W        W70749  23.844  26.262   7.868 -0.1403  0.0169  0.1363
27833W        W70750  23.274  24.838   8.829  0.0415 -0.1792 -0.1347
27834W        W70751  21.973  28.488   7.316 -0.1930  0.1342 -0.1008
27835W        W70752  22.254  27.478   8.302  0.2101 -0.1418  0.2934
27836W        W70753  25.336  26.751   7.870 -0.2943 -0.0648 -0.2360
27837W        W70754  22.717  24.808   7.652 -0.0715 -0.1139 -0.0871
27838W        W70755  27.432  26.487   7.235  0.0380 -0.1448  0.2615
27839W        W70756  24.264  27.524   6.474  0.0670  0.2359 -0.2173
27840W        W70757  21.869  26.280   8.762  0.1831 -0.1803  0.2914
27841W        W70758  22.432  28.336   8.110  0.0462  0.1798  0.1339
27842W        W70759  23.916  24.600   8.075  0.2199 -0.1908  0.0094
27843W        W70760  27.218  33.124   8.439 -0.1010 -0.2706 -0.0947
27844W        W70761  23.121  28.832   7.301  0.2874  0.1796 -0.3910
27845W        W70762  21.696  27.883   8.269  0.2883 -0.0276 -0.0995
27846W        W70763  22.601  25.708   7.428  0.3294 -0.1402 -0.0920
27847W        W70764  26.175  26.917   7.196  0.1830 -0.2065 -0.0992
27848W        W70765  22.118  26.364   8.075  0.2998  0.0946  0.0420
27849W        W70766  24.552  26.480   3.990  0.2608  0.0896 -0.3424
27850W        W70767  23.457  24.768   6.967 -0.0809 -0.0387  0.0412
27851W        W70768  25.915  25.347   9.322 -0.2690 -0.1627  0.2322
27852W        W70769  22.856  24.907   8.544 -0.0003 -0.1235  0.0475
27853W        W70770  21.675  24.489   5.193 -0.2503 -0.2549  0.2535
27854W        W70771  21.881  28.835   8.158 -0.0476  0.1226  0.1473
27855W        W70772  25.167  29.298   8.244  0.0531  0.1744  0.2416
27856W        W70773  23.599  26.651   6.252  0.1100  0.1499  0.1865
27857W        W70774  26.547  26.930   9.006 -0.1140  0.0649 -0.2474
27858W        W70775  22.476  27.740   7.431  0.2074 -0.1834 -0.0808
27859W        W70776  22.129  27.147   6.232 -0.5308  0.0693 -0.1997
27860W        W70777  25.009  25.977   7.251 -0.1342 -0.1463 -0.0674
27861W        W70778  21.911  27.621   7.351  0.2037 -0.3424 -0.1653
27862W        W70779  24.611  26.919   9.251 -0.2162  0.0732 -0.2229
27863W        W70780  23.353  27.203   7.988 -0.1800  0.0499  0.1813
27864W        W70781  25.621  27.162   9.132 -0.4391  0.6603  0.0463
27865W        W70782  25.543  24.821   5.841  0.0961  0.0409  0.0550
27866W        W70783  24.967  25.373   7.748 -0.0411 -0.1913 -0.0398
27867W        W70784  25.465  26.146   7.660 -0.0524  0.0416  0.1087
27868W        W70785  24.434  26.789   5.742 -0.1207 -0.1119  0.0175
27869W        W70786  22.903  25.069   6.242  0.1078  0.1504  0.0324
27870W        W70787  22.903  26.807   5.817  0.1851 -0.1620 -0.0475
27871W        W70788  27.021  27.100   6.125 -0.0418  0.0811 -0.1078
27872W        W70789  24.803  29.218   7.694  0.0663  0.1894  0.1612
27873W        W70790  24.307  25.876   7.043 -0.1313 -0.2160  0.0941
27874W        W70791  22.051  26.733   8.906 -0.2787 -0.0963  0.0716
27875W        W70792  23.955  25.432   7.683 -0.1555 -0.0223  0.0335
27876W        W70793  22.479  27.007   6.716  0.0305 -0.0053 -0.2757
27877W        W70794  23.196  26.252   9.069 -0.2021  0.1642 -0.0278
27878W        W70795  23.823  25.670   6.567 -0.3409  0.0116 -0.1167
27879W        W70796  24.617  27.682   8.127  0.0883  0.0763 -0.4050
27880W        W70797  23.699  25.886   8.992 -0.0711 -0.1829  0.2616
27881W        W70798  25.167  28.072   9.138  0.1586 -0.1275 -0.1286
27882W        W70799  22.461  29.330   8.230  0.0697 -0.0806  0.0278
27883W        W70800  23.718  23.574   8.638  0.0029 -0.5461 -0.1636
27884W        W70801  25.186  24.844   8.997  0.3723  0.4352  0.0395
27885W        W70802  23.042  25.560   8.586  0.0326 -0.0988 -0.0291
27886W        W70803  20.525  28.238   6.755 -0.0418 -0.1776 -0.0636
27887W        W70804  24.186  28.859   9.254 -0.1878  0.1927  0.1230
27888W        W70805  23.629  28.463   7.843  0.0538  0.0683  0.0776
27889W        W70806  25.780  27.574   8.919 -0.0588  0.1012 -0.1618
27890W        W70807  24.220  26.438   5.479  0.0799 -0.4268  0.0332
27891W        W70808  25.433  28.322   6.416 -0.0621  0.0139 -0.0400
27892W        W70809  22.581  25.414   8.471  0.0562  0.2330  0.0812
27893W        W70810  23.121  26.174   8.096 -0.1385 -0.2660 -0.2695
27894W        W70811  23.586  28.500   5.782  0.1145  0.0223  0.0051
27895W        W70812  24.176  26.454   7.144  0.4278  0.0393 -0.0281
27896W        W70813  22.770  27.778   8.800 -0.0324  0.0085 -0.0718
27897W        W70814  23.359  25.834   6.861  0.0489  0.0949  0.1186
27898W        W70815  20.864  29.442   7.615 -0.1897  0.0944  0.0191
27899W        W70816  21.378  31.026   5.191 -0.1404 -0.0317 -0.0905
27900W        W70817  25.547  27.116   6.317  0.1203  0.0944  0.1174
27901W        W70818  23.340  28.453   6.251 -0.0616 -0.1509  0.0614
27902W        W70819  25.311  25.919   8.477  0.1637  0.2007 -0.0326
27903W        W70820  25.380  28.549   9.160  0.0794 -0.1806 -0.1311
27904W        W70821  25.791  24.848   7.629 -0.2495 -0.2704 -0.2415
27905W        W70822  24.971  27.433   7.653 -0.1181  0.0642  0.1649
27906W        W70823  22.973  27.667   7.362  0.0992 -0.0498  0.0077
27907W        W70824  24.456  26.049   6.535  0.1509  0.0266  0.1491
27908W        W70825  22.924  27.285   6.666  0.0159 -0.0175  0.1369
27909W        W70826  24.080  26.092   8.284  0.2364 -0.0529  0.0494
27910W        W70827  23.842  26.335   8.670  0.0990 -0.1335  0.0077
27911W        W70828  23.794  29.058   6.534 -0.4076  0.2285 -0.2537
27912W        W70829  24.978  25.520   9.135  0.7550 -0.2776 -0.1456
27913W        W70830  22.556  27.540   7.908 -0.3290 -0.1315 -0.3651
27914W        W70831  23.418  27.463   7.529 -0.2126 -0.0851  0.2420
27915W        W70832  23.981  26.586   8.259 -0.2170 -0.1423 -0.4036
27916W        W70833  23.821  26.108   6.250  0.2946  0.0489  0.2256
27917W        W70834  26.509  24.750   7.770  0.1644  0.0802 -0.0653
27918W        W70835  22.350  27.255   7.499 -0.0432  0.1127 -0.0933
27919W        W70836  23.006  26.370   7.070  0.0492 -0.1257  0.0675
27920W        W70837  24.229  27.535   5.503  0.2181 -0.0868 -0.1344
27921W        W70838  23.068  28.777   8.461 -0.1189 -0.1698  0.3092
27922W        W70839  22.378  24.703   8.559  0.0194  0.1067 -0.1270
27923W        W70840  24.182  25.070   7.980 -0.0330 -0.0748 -0.1652
27924W        W70841  25.017  27.696   4.480 -0.0562 -0.3067 -0.1809
27925W        W70842  19.999  26.466   7.567 -0.3009 -0.1382 -0.1153
27926W        W70843  24.970  26.049   5.688  0.1851 -0.1012 -0.1890
27927W        W70844  22.633  27.715   6.932 -0.2006 -0.1148 -0.0860
27928W        W70845  24.415  23.067   9.173 -0.0380 -0.1766  0.1214
27929W        W70846  21.096  26.374   8.918 -0.2336  0.0332  0.1384
27930W        W70847  24.765  26.419   9.042 -0.0180 -0.1533  0.2527
27931W        W70848  23.900  25.312   9.123  0.2419 -0.3164 -0.1222
27932W        W70849  24.377  28.678   6.965 -0.1292  0.0254 -0.0105
27933W        W70850  25.346  26.370   5.732 -0.0046 -0.0475 -0.1669
27934W        W70851  27.407  23.725   8.981 -0.2529 -0.2328 -0.0530
27935W        W70852  20.682  26.375   7.578 -0.1992  0.0261 -0.1122
27936W        W70853  22.560  28.660   8.537  0.4351  0.3705  0.0056
27937W        W70854  24.250  29.746   9.093 -0.0614  0.1248 -0.0449
27938W        W70855  22.775  25.302   8.020 -0.0536  0.4110  0.0154
27939W        W70856  23.090  27.023   8.479  0.0318 -0.1346  0.1406
27940W        W70857  22.018  29.446   7.015  0.0144  0.2775 -0.2223
27941W        W70858  25.444  24.396   9.016 -0.0269  0.0130  0.3829
27942W        W70859  22.884  27.862   5.797 -0.1712 -0.1472  0.2494
27943W        W70860  24.081  26.856   8.639 -0.1108  0.2692 -0.2480
27944W        W70861  21.189  27.292   6.929 -0.3429 -0.0560 -0.4538
27945W        W70862  23.008  28.254   8.539  0.1445 -0.1883  0.1307
27946W        W70863  24.916  28.192   6.300 -0.3008  0.2800  0.0825
27947W        W70864  24.427  28.086   9.265  0.2964 -0.1774 -0.1594
27948W        W70865  21.516  25.226   6.966 -0.2123  0.1551 -0.3780
27949W        W70866  25.746  30.538   8.426  0.1254  0.0178 -0.3287
27950W        W70867  24.199  24.430   8.501 -0.1857  0.0558 -0.2788
27951W        W70868  24.497  26.168   7.469  0.0652  0.1445 -0.1144
27952W        W70869  24.410  24.323   8.071 -0.1922  0.0950 -0.2805
27953W        W70870  23.175  29.838  12.855  0.0496 -0.1496 -0.4946
27954W        W70871  23.161  27.159   7.160  0.0119  0.1778 -0.3992
27955W        W70872  23.605  27.808   7.181  0.0349  0.2469 -0.2232
27956W        W70873  25.014  25.376   8.610  0.3751 -0.0989 -0.1659
27957W        W70874  21.892  28.982   9.049  0.2239 -0.0534 -0.1911
27958W        W70875  22.941  23.384   6.518 -0.2208 -0.3195 -0.1125
27959W        W70876  26.470  27.413   7.322  0.2398  0.0955 -0.1604
27960W        W70877  23.726  25.965   5.695  0.1543  0.0213 -0.0518
27961W        W70878  21.931  25.361   7.855  0.1199 -0.2541  0.2654
27962W        W70879  24.680  26.245   6.968  0.2159  0.1635 -0.4702
27963W        W70880  24.779  28.076   8.536  0.1169  0.0136 -0.0644
27964W        W70881  22.758  25.873   8.891  0.0718 -0.0180  0.0015
27965W        W70882  21.507  28.941   6.471  0.0848  0.1683  0.0586
27966W        W70883  22.315  25.206   5.869 -0.0556  0.0468 -0.0334
27967W        W70884  26.471  23.259   9.108  0.0626 -0.1801 -0.1967
27968W        W70885  24.432  27.740   7.487  0.0766  0.0124 -0.2343
27969W        W70886  23.616  29.305   6.994 -0.1392 -0.2273  0.0038
27970W        W70887  21.331  27.374   8.447  0.3017  0.1507  0.2791
27971W        W70888  23.580  25.291   6.806 -0.0521 -0.0887  0.1463
27972W        W70889  26.484  27.960   7.283  0.2584  0.1498  0.0271
27973W        W70890  24.283  26.545   9.131 -0.1601  0.2439  0.2113
27974W        W70891  25.497  25.224   8.620 -0.1259  0.0773 -0.1266
27975W        W70892  23.199  27.680   8.527  0.2166  0.3780 -0.1705
27976W        W70893  20.933  24.956   8.701 -0.3184 -0.1242 -0.1063
27977W        W70894  26.033  25.579   5.823 -0.1021  0.0389 -0.0669
27978W        W70895  25.073  26.391   7.543  0.3962  0.0989 -0.0552
27979W        W70896  23.966  28.017   9.473  0.4278 -0.1145 -0.2202
27980W        W70897  21.407  26.423   6.974 -0.3434 -0.0184  0.1732
27981W        W70898  24.382  28.261   8.788 -0.0251 -0.0178 -0.0537
27982W        W70899  22.968  26.225   6.616 -0.1112 -0.1395 -0.2614
27983W        W70900  26.326  26.462   6.281  0.1545 -0.0375 -0.0626
27984W        W70901  23.230  27.828   9.442  0.0621  0.0967  0.5094
27985W        W70902  23.152  30.282   8.641  0.0511 -0.1264  0.2126
27986W        W70903  25.251  27.108   7.396  0.1434 -0.1411  0.0747
27987W        W70904  19.912  24.604   9.347  0.0904  0.1512  0.3666
27988W        W70905  22.029  28.440   8.575  0.2593  0.0572 -0.0854
27989W        W70906  22.816  26.762   7.238  0.1281 -0.0734  0.1481
27990W        W70907  25.149  26.406   9.366  0.0549 -0.2825  0.1126
27991W        W70908  24.070  24.418   5.166  0.1155 -0.0516  0.1100
27992W        W70909  23.148  25.618   5.984  0.1585  0.1829  0.0936
27993W        W70910  23.779  26.685   7.506  0.1131  0.1365 -0.0520
27994W        W70911  27.616  22.825   8.822 -0.0899  0.1847  0.2375
27995W        W70912  23.835  31.318   3.873  0.1083 -0.0983  0.2273
27996W        W70913  24.156  31.543   1.699  0.1318  0.0062  0.2970
27997W        W70914  24.045  27.956  30.966 -0.1395  0.0321  0.0112
27998W        W70915  26.199  32.946   1.127 -0.0378  0.0600 -0.4522
27999W        W70916  22.950  30.529  31.711 -0.0720  0.3624 -0.0404
28000W        W70917  27.163   0.308  31.527  0.0078 -0.1817  0.0109
28001W        W70918  23.204  29.525   1.564  0.2117 -0.1013 -0.1727
28002W        W70919  24.783  30.887   1.395 -0.2124  0.1738  0.1039
28003W        W70920  24.471  30.769   2.048 -0.0060  0.2283  0.0030
28004W        W70921  25.987  30.712  29.925 -0.4785 -0.2335 -0.2567
28005W        W70922  24.012  31.983   2.236 -0.0169 -0.1357 -0.0154
28006W        W70923  22.875  31.653   2.132 -0.1055  0.0916 -0.1691
28007W        W70924  22.536  29.311   0.657 -0.0674  0.2289 -0.1845
28008W        W70925  23.391  28.825   3.006  0.0333  0.0595 -0.0409
28009W        W70926  24.386  30.997   2.742  0.1462 -0.3368  0.0584
28010W        W70927  22.240  30.711   0.581  0.0955 -0.0033 -0.0897
28011W        W70928  20.580  30.229   1.476 -0.2084  0.2245 -0.1167
28012W        W70929  22.623  30.218  31.873  0.1009 -0.0035  0.2609
28013W        W70930  24.681  31.696   0.646 -0.0233 -0.0195 -0.4318
28014W        W70931  25.049  29.636   1.212  0.1354 -0.0084  0.0364
28015W        W70932  23.373  29.458   3.236  0.3282  0.1774  0.0197
28016W        W70933  24.148  32.561   0.178 -0.0624  0.3237  0.3241
28017W        W70934  20.728  29.474   0.016  0.0208 -0.1421 -0.1954
28018W        W70935  21.630  28.938   0.679  0.0602  0.1877 -0.0977
28019W        W70936  20.897  29.958   2.792  0.0270 -0.0671  0.2660
28020W        W70937  22.755  29.778   2.518  0.0116  0.3125 -0.0963
28021W        W70938  24.180  32.399   1.333  0.0457  0.0616  0.3661
28022W        W70939  23.908  32.570   0.954  0.1474  0.0563  0.3108
28023W        W70940  23.338  32.286   0.031 -0.0268 -0.0199  0.3343
28024W        W70941  21.934  30.153   2.809 -0.0479 -0.0548  0.1569
28025W        W70942  22.345  32.433   2.370  0.0885 -0.3097  0.2798
28026W        W70943  23.776  31.649   0.583  0.0591  0.2538 -0.0568
28027W        W70944  22.887  31.225  31.052 -0.3848  0.1666  0.0583
28028W        W70945  25.009  33.572   1.195 -0.1042 -0.0138  0.0690
28029W        W70946  25.854  32.690   3.602  0.2650 -0.1407  0.0066
28030W        W70947  23.319  33.112  31.818 -0.3145  0.0287 -0.2978
28031W        W70948  23.218  31.274   0.048 -0.0292 -0.2592 -0.0357
28032W        W70949  23.850  32.485   2.244 -0.1075 -0.2995 -0.1691
28033W        W70950  24.320  33.911   1.706 -0.1334 -0.0760 -0.2676
28034W        W70951  23.643  30.457   1.653 -0.0611 -0.0431  0.1288
28035W        W70952  24.016  30.642   0.536 -0.0924 -0.2300 -0.1159
28036W        W70953  21.675  33.372   2.712 -0.0607 -0.0619 -0.0670
28037W        W70954  24.676  32.416   1.312  0.0035  0.4013 -0.0628
28038W        W70955  24.666  32.351   2.694  0.2012  0.0255 -0.3182
28039W        W70956  21.926  31.116  31.265 -0.2494 -0.0067 -0.1431
28040W        W70957  26.313  31.222   3.624  0.0203 -0.1662 -0.1664
28041W        W70958  22.168  32.538  31.080  0.1965 -0.1946 -0.0976
28042W        W70959  24.312  31.236   2.180  0.4667 -0.0920 -0.0532
28043W        W70960  22.658  30.309  30.132  0.1836  0.0580 -0.4950
28044W        W70961  26.005  29.038  31.765 -0.2331  0.1721  0.1878
28045W        W70962  25.182  29.685   1.680  0.1940  0.0976  0.2635
28046W        W70963  23.429  32.705  31.590  0.0106 -0.1703  0.4142
28047W        W70964  21.555  29.691   3.019  0.1736  0.3666 -0.1543
28048W        W70965  23.965  33.350   3.814  0.1404  0.0857  0.2253
28049W        W70966  22.931  32.493   0.925  0.1727  0.3004 -0.1266
28050W        W70967  25.413  30.399   0.120 -0.0668 -0.3938 -0.0448
28051W        W70968  22.356  30.439   1.720 -0.1717  0.1276  0.0307
28052W        W70969  21.583  30.185   1.891  0.2015  0.1331  0.0137
28053W        W70970  25.363  33.823  29.973 -0.0503 -0.0087  0.2092
28054W        W70971  25.872  32.924   2.186 -0.0713 -0.0738  0.2242
28055W        W70972  23.704  32.547   0.492 -0.0819 -0.0907 -0.2289
28056W        W70973  23.946  29.406   0.781 -0.2728 -0.0562 -0.1026
28057W        W70974  23.149  33.937   3.727 -0.1163  0.1920 -0.0960
28058W        W70975  23.570  30.718   1.185 -0.0059  0.2655  0.0974
28059W        W70976  24.240  30.104  30.808 -0.2513  0.0390 -0.1680
28060W        W70977  25.521  33.391   3.019 -0.1658 -0.1992 -0.0064
28061W        W70978  23.235  33.682   4.156  0.0339 -0.1267 -0.0759
28062W        W70979  22.890  27.945   0.737 -0.0263 -0.1216  0.0340
28063W        W70980  23.448  29.040   2.516 -0.0287  0.4313 -0.2926
28064W        W70981  25.116  32.168   3.683 -0.0439 -0.2365 -0.0844
28065W        W70982  24.275  30.284   0.342  0.1565  0.1216  0.2574
28066W        W70983  24.248  28.749   2.252 -0.0065  0.0479 -0.1800
28067W        W70984  24.142  27.203   3.224 -0.3189 -0.3638 -0.2251
28068W        W70985  22.120  32.993  29.735  0.2979 -0.3923  0.0292
28069W        W70986  22.623  29.680   1.119  0.0729  0.2696 -0.0156
28070W        W70987  25.606  31.874   4.032 -0.2482 -0.1024 -0.0466
28071W        W70988  25.412  29.902  31.883  0.0043 -0.0511  0.2733
28072W        W70989  23.236  32.991   3.449 -0.1054 -0.0985  0.2783
28073W        W70990  22.242  31.460   2.840  0.0364 -0.1144 -0.1235
28074W        W70991  23.593  33.637   4.648  0.1235  0.1982  0.1462
28075W        W70992  23.253  34.570  31.697 -0.1865 -0.1105 -0.1250
28076W        W70993  23.043  32.023   0.799 -0.3072  0.4922 -0.1282
28077W        W70994  22.239  31.535   0.239 -0.1316  0.2778 -0.0663
28078W        W70995  21.401  29.898   1.566 -0.2948 -0.0020  0.0462
28079W        W70996  24.562  32.041   2.301  0.2016  0.3013 -0.0156
28080W        W70997  25.569  31.912   1.151  0.0735  0.0682  0.0811
28081W        W70998  23.171  32.864   2.692  0.1957 -0.1994 -0.0868
28082W        W70999  24.678  26.238   1.159  0.1423 -0.0420  0.0275
28083W        W71000  22.656  32.478   1.524  0.1731  0.0114 -0.1876
28084W        W71001  26.008  32.118   1.923  0.1425  0.0728 -0.0045
28085W        W71002  24.860  32.889  31.385  0.1527  0.1520  0.2495
28086W        W71003  24.577  31.788  29.115 -0.1652  0.0441 -0.1907
28087W        W71004  22.739  29.681   1.620  0.1821 -0.0259  0.2165
28088W        W71005  23.025  29.931   0.046  0.1955 -0.0099 -0.2103
28089W        W71006  21.624  30.507   2.693  0.0193 -0.2985  0.0927
28090W        W71007  22.489  29.352   2.522  0.1046 -0.0533  0.2628
28091W        W71008  24.672  33.223   1.745  0.2049 -0.1944 -0.0386
28092W        W71009  21.299  28.759  30.452 -0.0644 -0.1088  0.2882
28093W        W71010  24.439  29.323  31.380  0.0753  0.1845  0.2166
28094W        W71011  22.256  29.336   1.173 -0.1882  0.0382  0.1349
28095W        W71012  21.389  31.971   1.049  0.1516  0.1421  0.3552
28096W        W71013  26.713  31.569   3.477 -0.0699 -0.0781  0.0763
28097W        W71014  25.023  32.330   0.098 -0.2113  0.0632 -0.0411
28098W        W71015  23.815  31.918   1.776  0.0777 -0.0108  0.2108
28099W        W71016  25.976  31.806   1.479  0.1334 -0.0518  0.0743
28100W        W71017  24.615  29.049   3.701  0.2554  0.1151  0.0910
28101W        W71018  23.557  29.826   0.860 -0.2706 -0.1022 -0.0193
28102W        W71019  22.453  32.740   3.251 -0.0704 -0.1665 -0.3528
28103W        W71020  22.496  33.025   1.501 -0.2846  0.4385 -0.1406
28104W        W71021  24.143  30.599   1.303 -0.3807 -0.0873  0.1731
28105W        W71022  26.300  32.399   2.826  0.2056  0.0589 -0.0379
28106W        W71023  23.786  33.236   1.300 -0.0758 -0.0233 -0.0043
28107W        W71024  23.617  32.202   2.801 -0.1429  0.2921 -0.3363
28108W        W71025  24.289  29.526   1.678  0.0704  0.2119  0.0683
28109W        W71026  24.673  31.003   3.308  0.0151  0.1747  0.2925
28110W        W71027  22.779  32.344   2.697  0.0995 -0.0167 -0.1986
28111W        W71028  22.845  31.204   0.888  0.2668 -0.0081  0.0390
28112W        W71029  23.163  33.157   1.671 -0.3940  0.0105 -0.0110
28113W        W71030  23.362  30.857  31.800  0.2028 -0.1314  0.0447
28114W        W71031  21.769  30.068   2.321 -0.0822  0.2589  0.2069
28115W        W71032  25.074  32.566  31.016  0.0951 -0.1331 -0.3275
28116W        W71033  25.099  30.721   0.966 -0.3358  0.2192 -0.1817
28117W        W71034  22.459  32.682   1.920 -0.1288 -0.2497 -0.0048
28118W        W71035  23.374  29.757   3.728  0.3216 -0.3179  0.1352
28119W        W71036  21.417  30.496   0.863  0.2076 -0.0244 -0.0428
28120W        W71037  23.967  32.777   1.467 -0.1318  0.0351 -0.0489
28121W        W71038  23.061  29.778   0.792 -0.1003  0.3456  0.1039
28122W        W71039  24.349  30.736   0.882 -0.2842  0.1741  0.2784
28123W        W71040  23.157  32.184   2.994 -0.0679  0.3007 -0.1768
28124W        W71041  24.568  31.184   1.772  0.0136  0.2589 -0.1657
28125W        W71042  24.576  30.657  30.711 -0.2030  0.0582 -0.5398
28126W        W71043  24.755  31.514  29.841  0.3941 -0.1037 -0.0811
28127W        W71044  23.495  30.898   1.614  0.0232  0.1018 -0.2343
28128W        W71045  24.506  31.603   1.177  0.1578  0.1344  0.0909
28129W        W71046  23.455  31.193   0.468 -0.3536  0.1682  0.3621
28130W        W71047  24.558  30.572  31.468 -0.1514 -0.0509 -0.4193
28131W        W71048  24.578  33.589   1.436  0.3446 -0.4134  0.1040
28132W        W71049  21.608  31.567   1.902 -0.2452  0.1491  0.3889
28133W        W71050  25.905  31.514   3.807  0.0470  0.2113 -0.0606
28134W        W71051  24.334  34.454   1.614  0.2833  0.0717  0.2099
28135W        W71052  23.202  28.995   1.431  0.1453 -0.0994  0.2159
28136W        W71053  23.640  32.320   1.387 -0.1580 -0.2072  0.0146
28137W        W71054  24.350  27.567  31.402 -0.1902  0.2112  0.1769
28138W        W71055  19.846  32.499  28.953 -0.0623  0.0572 -0.0945
28139W        W71056  23.233  30.361   2.002 -0.0655  0.1220  0.1150
28140W        W71057  25.248  29.498   0.262  0.0960  0.2773 -0.1863
28141W        W71058  23.397  30.400   2.959  0.2137  0.0329  0.1142
28142W        W71059  24.444  29.936   2.836 -0.1619 -0.0397  0.0532
28143W        W71060  24.876  31.065   0.572  0.0045 -0.3011 -0.1862
28144W        W71061  23.503  32.122   2.339  0.0552 -0.2531  0.0609
28145W        W71062  23.705  31.579   1.399  0.2454  0.0853 -0.3174
28146W        W71063  24.219  28.296   2.543  0.1379 -0.0265  0.1087
28147W        W71064  22.498  31.105   3.098  0.2204 -0.2046  0.2963
28148W        W71065  19.637  32.835   2.217 -0.0173 -0.0902  0.1249
28149W        W71066  24.543  32.524   2.221 -0.1723  0.0728 -0.1420
28150W        W71067  23.804  31.084  31.686  0.1172  0.0060  0.0209
28151W        W71068  25.270  30.498   3.167  0.0049  0.1150  0.1289
28152W        W71069  23.664  28.954   1.131  0.3663 -0.2344 -0.0195
28153W        W71070  21.608  33.056   2.337  0.1893  0.1881  0.2855
28154W        W71071  24.671  33.250  31.719 -0.2297  0.3151  0.4646
28155W        W71072  21.728  29.469   2.424  0.0143  0.2983  0.0785
28156W        W71073  26.268  32.734   2.466 -0.0983  0.1462  0.0907
28157W        W71074  22.964  32.748   0.024 -0.0691  0.2420 -0.0422
28158W        W71075  25.754  30.854   1.559  0.2278 -0.0379  0.0683
28159W        W71076  22.339  32.127   1.651 -0.0860 -0.0967  0.3976
28160W        W71077  23.762  28.949   2.078 -0.0356  0.0172 -0.2128
28161W        W71078  23.980  31.980   1.182 -0.2468  0.0478 -0.0056
28162W        W71079  22.343  29.986   1.518  0.0041  0.1220  0.1474
28163W        W71080  22.763  30.286  31.316 -0.1416 -0.3425 -0.2064
28164W        W71081  24.039  27.727   1.323 -0.1483  0.0042 -0.1175
28165W        W71082  24.836  32.642   0.875  0.4529  0.1140 -0.3869
28166W        W71083  21.685  29.708   1.922  0.0776  0.1327  0.2958
28167W        W71084  23.887  28.693   0.000  0.1552  0.1128  0.3074
28168W        W71085  22.711  31.954   3.000 -0.0162 -0.1881  0.0048
28169W        W71086  22.678  30.589   2.360  0.3723 -0.2620  0.0426
28170W        W71087  25.332  28.542  30.772  0.2377  0.3101 -0.3250
28171W        W71088  25.321  32.930   2.842 -0.2885 -0.1538  0.1540
28172W        W71089  23.553  31.110   2.413  0.1328  0.1914  0.5849
28173W        W71090  22.372  31.447  30.938  0.1708 -0.0737  0.0625
28174W        W71091  25.381  31.154   1.867  0.1834 -0.1172 -0.1930
28175W        W71092  24.322  28.986   0.489 -0.5417  0.0053  0.2465
28176W        W71093  22.574  31.634   1.761  0.2258 -0.1265 -0.0776
28177W        W71094  23.611  31.342   1.917  0.2426 -0.2418  0.0567
28178W        W71095  24.582  31.006  31.700 -0.1925  0.2185  0.2243
28179W        W71096  22.611  31.658   0.819  0.2760 -0.0752  0.0449
28180W        W71097  23.005  29.928   1.245  0.1505  0.0220 -0.5391
28181W        W71098  25.453  30.143   1.802 -0.0660 -0.2748 -0.0431
28182W        W71099  21.801  29.330   1.003  0.1824  0.2440  0.0993
28183W        W71100  23.423  28.639  31.876 -0.2308  0.0818  0.1631
28184W        W71101  23.997  31.199   0.454  0.1607 -0.2730 -0.0603
28185W        W71102  25.544  32.470   0.850  0.0984  0.0189  0.1492
28186W        W71103  24.054  29.852   0.515  0.2747 -0.2684 -0.3617
28187W        W71104  24.325  33.436   3.449  0.1502 -0.3407 -0.0813
28188W        W71105  22.973  28.377   2.140 -0.2594 -0.0717  0.2690
28189W        W71106  24.777  33.058   1.271  0.0654 -0.2158  0.2980
28190W        W71107  25.039  31.603   4.134  0.0495 -0.2776  0.0651
28191W        W71108  21.409  30.539   1.580 -0.1276 -0.1234  0.0377
28192W        W71109  22.725  30.409   1.196  0.0916  0.2234 -0.3449
28193W        W71110  22.803  31.740  30.850  0.2573  0.0732 -0.0038
28194W        W71111  24.347  29.703   2.335 -0.0452  0.1159 -0.2193
28195W        W71112  25.043  32.698   1.444 -0.0480 -0.1739 -0.1032
28196W        W71113  24.724  32.114  31.182  0.1455  0.2040 -0.0363
28197W        W71114  21.259  34.480   2.912 -0.2858  0.1602  0.1732
28198W        W71115  23.092  29.997  31.113 -0.1205  0.1789  0.2886
28199W        W71116  24.202  31.713   0.254  0.0553  0.3409  0.2830
28200W        W71117  23.404  29.958   1.506  0.0224 -0.1114  0.5214
28201W        W71118  25.438  30.654   1.865 -0.0399  0.1605 -0.2848
28202W        W71119  23.822  33.396  31.949 -0.2451 -0.4116 -0.0014
28203W        W71120  24.233  30.631   3.176 -0.0496  0.0378  0.1170
28204W        W71121  22.134  28.216   2.670 -0.1822  0.1035  0.4844
28205W        W71122  24.269  34.070   2.750 -0.2565  0.0769  0.1556
28206W        W71123  21.682  29.334   1.530  0.0172 -0.0773 -0.0514
28207W        W71124  25.305  34.552   4.396 -0.1346  0.0764  0.1477
28208W        W71125  22.864  30.228   1.704  0.4008 -0.0344  0.0477
28209W        W71126  22.504  29.587   2.067 -0.0519 -0.3086 -0.4254
28210W        W71127  23.951  30.249   0.816 -0.0326 -0.0310 -0.1211
28211W        W71128  23.869  31.724   2.858 -0.0089  0.2374  0.0461
28212W        W71129  25.058  32.302   2.342  0.2923 -0.0959 -0.1843
28213W        W71130  23.870  32.560  30.376  0.0480 -0.0431 -0.0929
28214W        W71131  24.905  31.204   1.049 -0.0482  0.1299  0.2349
28215W        W71132  22.747  31.412   2.798  0.1534  0.2168 -0.0225
28216W        W71133  23.194  30.490   1.416 -0.2275  0.2511 -0.1335
28217W        W71134  24.794  31.786  30.779 -0.1144  0.1016 -0.0288
28218W        W71135  22.314  31.726   1.313 -0.0830  0.0333 -0.0590
28219W        W71136  23.652  28.537   3.340 -0.2164  0.0196  0.1120
28220W        W71137  23.286  32.887   0.829  0.1640  0.2790  0.1727
28221W        W71138  22.480  30.188   2.655 -0.2938  0.1353  0.2405
28222W        W71139  23.080  29.393   2.351  0.1375  0.1403 -0.0605
28223W        W71140  24.964  31.903   2.811  0.0208 -0.0861 -0.0452
28224W        W71141  21.377  30.200   3.044  0.1355 -0.0999 -0.0357
28225W        W71142  20.568  30.238   3.595 -0.0929 -0.1886 -0.1245
28226W        W71143  25.960  31.816   2.343  0.1679 -0.1471 -0.0096
28227W        W71144  25.430  29.988   0.413  0.0267  0.2384  0.0561
28228W        W71145  25.296  31.946   5.357 -0.4317  0.2837 -0.1439
28229W        W71146  26.089  32.902   3.169 -0.0769  0.1382  0.0470
28230W        W71147  23.226  31.411   1.591 -0.1618  0.0603 -0.1816
28231W        W71148  20.929  29.072   3.372 -0.2592 -0.0598  0.1576
28232W        W71149  23.933  30.424   2.816  0.0089 -0.0295  0.2690
28233W        W71150  23.103  26.821   0.313 -0.0186 -0.0113  0.2209
28234W        W71151  23.933  29.442   2.034 -0.3624 -0.0615  0.0625
28235W        W71152  23.914  34.323   0.019  0.0110 -0.0873 -0.2809
28236W        W71153  23.227  32.475   3.527  0.1448  0.1545  0.1803
28237W        W71154  23.950  29.563  31.837  0.0357  0.1450 -0.1096
28238W        W71155  22.267  30.673   1.121  0.1055 -0.2355 -0.5379
28239W        W71156  23.688  33.046   2.241  0.1090  0.0480  0.3195
28240W        W71157  22.047  29.076  31.730 -0.1134  0.1945 -0.1263
28241W        W71158  21.455  31.482   1.264  0.2386 -0.1717 -0.1100
28242W        W71159  22.746  30.975   3.499  0.0147  0.0025 -0.2493
28243W        W71160  26.254  28.826   4.192 -0.3490  0.4520  0.1040
28244W        W71161  24.085  30.482  31.168 -0.1894 -0.1901 -0.1089
28245W        W71162  23.524  30.255   2.455  0.0945 -0.0152  0.1199
28246W        W71163  23.963  31.626  31.634 -0.3078  0.1089 -0.1421
28247W        W71164  24.457  29.515   0.738  0.3578 -0.1355  0.3335
28248W        W71165  22.174  33.156   2.524  0.2119  0.0049 -0.3554
28249W        W71166  19.747  31.463   2.186 -0.2743  0.2376 -0.2405
28250W        W71167  21.112  33.077   1.704  0.0663  0.0952 -0.2994
28251W        W71168  21.718  28.723   3.733  0.0831  0.0895  0.1072
28252W        W71169  23.144  30.249   0.927  0.4628 -0.3133  0.0169
28253W        W71170  23.978  32.119   3.142 -0.0600  0.0749  0.0486
28254W        W71171  25.009  33.273   2.756  0.2292 -0.2887  0.5086
28255W        W71172  24.366  34.112   3.220  0.1684  0.3031  0.2321
28256W        W71173  22.979  30.419   3.279 -0.5685 -0.1620  0.3023
28257W        W71174  26.245  30.810   2.384  0.1331  0.0871 -0.0251
28258W        W71175  27.551  33.424   2.022  0.3010  0.1318  0.1788
28259W        W71176  24.744  32.229   1.832  0.1102 -0.0426  0.0249
28260W        W71177  21.574  31.261   3.333  0.0967 -0.0747 -0.0902
28261W        W71178  24.225  30.353   3.608 -0.1325  0.1685  0.2805
28262W        W71179  26.243  30.853   1.748  0.2049 -0.1381  0.0446
28263W        W71180  22.764  28.333   1.658 -0.1996  0.0285 -0.1283
28264W        W71181  22.637  30.638   0.266  0.0215  0.0851 -0.0761
28265W        W71182  22.849  31.059   2.311 -0.2029 -0.1419  0.0314
28266W        W71183  24.580  28.831  31.436 -0.0842  0.0292  0.1222
28267W        W71184  21.867  31.922  31.517 -0.0137 -0.0750  0.1333
28268W        W71185  24.904  32.796   1.919  0.0777  0.1298 -0.2746
28269W        W71186  25.110  30.310  31.712 -0.0885 -0.1815 -0.0014
28270W        W71187  23.996  31.311   2.530 -0.0600  0.1270 -0.3514
28271W        W71188  22.182  29.514   1.656 -0.0442  0.0652  0.1335
28272W        W71189  22.007  32.227   1.187 -0.0102  0.2923 -0.1235
28273W        W71190  22.484  32.502   0.486  0.1890  0.2175  0.0962
28274W        W71191  25.126  33.372  31.538 -0.0486  0.0398 -0.0930
28275W        W71192  22.678  33.157   1.929 -0.1067 -0.3658 -0.0445
28276W        W71193  25.666  32.417   4.047 -0.0765 -0.3099  0.0811
28277W        W71194  24.822  28.654   1.160 -0.2490  0.5913 -0.1800
28278W        W71195  25.812  31.988   0.636  0.1073  0.0058 -0.0904
28279W        W71196  23.826  30.173   1.292  0.1459  0.3102  0.0267
28280W        W71197  25.620  33.560   4.969 -0.0504 -0.1259  0.0931
28281W        W71198  22.080  29.996   1.903 -0.0846 -0.0737 -0.2040
28282W        W71199  22.300  31.134   0.923 -0.0162 -0.2155 -0.0800
28283W        W71200  22.340  30.282   3.101  0.1332  0.0334  0.0193
28284W        W71201  26.976  30.082   2.400  0.2746 -0.0030 -0.2356
28285W        W71202  20.594  32.135   4.468 -0.1700  0.1804 -0.0908
28286W        W71203  25.935   0.307  31.763  0.0270 -0.0293 -0.0565
28287W        W71204  22.010  30.892   1.491  0.1589  0.0171  0.3828
28288W        W71205  22.506  30.880   1.510 -0.0292  0.2468 -0.1583
28289W        W71206  26.243  29.574   2.218 -0.0360  0.3128 -0.0744
28290W        W71207  24.242  31.800   0.815  0.1868 -0.2375  0.1782
28291W        W71208  21.558  28.968   1.233 -0.1391 -0.1352 -0.1014
28292W        W71209  22.069  33.820   1.949 -0.0487  0.1479  0.0820
28293W        W71210  22.288  31.260   1.682 -0.1411  0.1395 -0.1632
28294W        W71211  23.331  32.614   2.240 -0.1417 -0.0347  0.2631
28295W        W71212  19.817  29.277   1.231  0.1316 -0.2317  0.1742
28296W        W71213  25.704  32.620   0.411  0.1271  0.1486 -0.1685
28297W        W71214  21.580  30.158   1.227  0.4225 -0.0579 -0.1838
28298W        W71215  23.745  28.650   4.769 -0.1885 -0.0762 -0.2130
28299W        W71216  22.115  31.701   1.885  0.3883  0.0307 -0.2474
28300W        W71217  25.301  32.044   3.194  0.1241 -0.5986 -0.1552
28301W        W71218  23.105  32.480   4.273 -0.1000 -0.2361 -0.1999
28302W        W71219  21.423  28.918   1.791 -0.0388 -0.1182 -0.0441
28303W        W71220  25.163  31.879  31.326 -0.1496  0.2575 -0.0946
28304W        W71221  25.228  32.391   1.896 -0.0293 -0.0165 -0.0986
28305W        W71222  24.107  32.195  31.316 -0.0369 -0.0223  0.0685
28306W        W71223  27.509  33.114   1.666 -0.1726 -0.0177 -0.2455
28307W        W71224  23.192  30.776   0.877 -0.2732  0.1618 -0.0190
28308W        W71225  22.223  29.702   0.782  0.2800  0.0254  0.0107
28309W        W71226  23.838  31.115   1.324 -0.1934 -0.1092  0.2914
28310W        W71227  21.977  29.928   3.263  0.0803 -0.0308 -0.1809
28311W        W71228  26.458  32.854   5.374  0.3264 -0.1452 -0.1993
28312W        W71229  22.001  31.298  31.785 -0.1663  0.1223 -0.2619
28313W        W71230  24.448  31.811  31.526  0.0433 -0.0405 -0.1693
28314W        W71231  25.111  31.865   2.033  0.1944  0.0702  0.2544
28315W        W71232  23.207  34.022  31.510  0.1070 -0.0229 -0.2189
28316W        W71233  24.789  32.101   0.960 -0.1470 -0.2325  0.1555
28317W        W71234  24.539  32.271   0.330 -0.0473  0.4834  0.1225
28318W        W71235  21.872  31.136   1.121 -0.0870  0.1921  0.0933
28319W        W71236  26.452  32.229   1.690  0.0038  0.0371  0.0074
28320W        W71237  26.434  31.740   1.288 -0.1950 -0.0254  0.1262
28321W        W71238  23.845  28.995   0.401 -0.0560  0.0194  0.3701
28322W        W71239  22.483  29.072   2.098 -0.2232  0.0311  0.0682
28323W        W71240  22.412  31.424   2.255  0.1182  0.1765 -0.0811
28324W        W71241  25.570  30.623   0.630 -0.2459 -0.0423  0.0555
28325W        W71242  24.450  29.329   2.687  0.0534 -0.0100 -0.2051
28326W        W71243  22.938  30.931   1.401 -0.2788  0.2042  0.4666
28327W        W71244  23.778  28.690   2.595 -0.1208  0.0637  0.2289
28328W        W71245  24.759  34.065   2.909 -0.0693  0.1258 -0.1391
28329W        W71246  23.557  31.985   3.359 -0.0040  0.1120  0.1223
28330W        W71247  22.371  30.601  30.514  0.0659 -0.2024  0.1482
28331W        W71248  23.076  31.030   2.811 -0.2464 -0.0676  0.0134
28332W        W71249  23.211  31.020   2.000  0.3099 -0.0137 -0.0657
28333W        W71250  24.506  34.138   2.209  0.4508  0.0355  0.3036
28334W        W71251  26.971  32.635   0.385  0.0562 -0.0892  0.1708
28335W        W71252  23.109  29.126  31.835 -0.0633  0.1134  0.0086
28336W        W71253  25.598  33.465   0.786  0.1009  0.3092  0.0866
28337W        W71254  22.436  28.489   2.026 -0.0596 -0.2391 -0.2455
28338W        W71255  25.109  29.327   0.796 -0.0221  0.2557 -0.1187
28339W        W71256  23.070  28.133   1.229  0.1546  0.3285 -0.1132
28340W        W71257  23.530  31.303   2.865 -0.0792  0.3156 -0.3200
28341W        W71258  23.738  31.456   0.092  0.2055 -0.1796  0.0559
28342W        W71259  21.861  31.712   1.100 -0.0054 -0.1394 -0.1946
28343W        W71260  22.125  32.290  31.708 -0.0530 -0.0169 -0.1938
28344W        W71261  23.357  28.687   4.330 -0.1859  0.0760 -0.1238
28345W        W71262  19.882  30.628   2.283 -0.2538 -0.0797  0.2790
28346W        W71263  23.482  32.757   1.245  0.2271 -0.0253 -0.2645
28347W        W71264  24.349  31.869  31.010  0.1370  0.0686  0.0689
28348W        W71265  25.203  33.047   0.873  0.1789 -0.0449  0.2052
28349W        W71266  22.698  29.324   3.672 -0.1153  0.0270 -0.2485
28350W        W71267  22.308  29.770   2.867  0.1994  0.0557 -0.0425
28351W        W71268  24.061  32.139   0.380  0.0872 -0.0746  0.1671
28352W        W71269  23.202  31.590   0.635  0.0055 -0.0637  0.3733
28353W        W71270  23.545  29.889  31.899  0.1283  0.0944 -0.1065
28354W        W71271  25.099  30.656   0.415 -0.0554  0.0623 -0.0201
28355W        W71272  21.478  30.105   0.451  0.4353 -0.3845 -0.1809
28356W        W71273  23.464  31.486   3.462 -0.1282 -0.1587  0.0115
28357W        W71274  24.037  29.622   2.915  0.1940  0.1898 -0.1603
28358W        W71275  22.280  29.879  31.938  0.0374 -0.0456  0.0298
28359W        W71276  23.082  29.336   1.088  0.0713 -0.2799  0.0387
28360W        W71277  25.518  32.742   1.339 -0.2943  0.0412  0.2699
28361W        W71278  24.735  33.884  30.196  0.2734  0.3079 -0.0676
28362W        W71279  23.051  31.917   2.557  0.0231 -0.3235 -0.0818
28363W        W71280  23.931  34.372   2.022  0.1300 -0.0549 -0.0326
28364W        W71281  25.498  32.858  30.994 -0.1628  0.3337  0.0167
28365W        W71282  24.558  33.250   2.642  0.0397 -0.3797 -0.0668
28366W        W71283  25.899  31.741  31.870 -0.3389 -0.0423 -0.1867
28367W        W71284  25.400  29.592   2.626 -0.0020  0.0414 -0.1080
28368W        W71285  23.610  29.169  31.825  0.0506  0.0796 -0.2211
28369W        W71286  22.496  29.694   4.843  0.2414 -0.1441  0.0313
28370W        W71287  22.263  30.740   3.383  0.0886  0.2098 -0.0870
28371W        W71288  25.062  31.471   0.254 -0.0369  0.1021 -0.0386
28372W        W71289  22.125  27.726  31.879 -0.2470 -0.0592 -0.0661
28373W        W71290  24.028  29.790   1.050 -0.1224 -0.1004 -0.2014
28374W        W71291  26.523  32.128  31.461  0.4509  0.0142  0.1775
28375W        W71292  23.637  31.618   2.421 -0.1383  0.1270  0.2073
28376W        W71293  23.318  31.638  31.124 -0.0964  0.5461  0.0847
28377W        W71294  21.857  28.702   1.994  0.1606 -0.0703  0.0336
28378W        W71295  22.518  31.780   2.586  0.2011 -0.0264 -0.3865
28379W        W71296  24.363  31.970   3.480 -0.1476 -0.1629 -0.0109
28380W        W71297  23.734  29.555   0.328  0.2786  0.0812  0.2816
28381W        W71298  25.592  32.144   0.233 -0.1766 -0.0422 -0.1480
28382W        W71299  25.622  32.241   1.485  0.1239 -0.4281 -0.0042
28383W        W71300  24.864  34.588   1.686  0.2832 -0.0926 -0.3416
28384W        W71301  24.556   0.332  31.158  0.0256 -0.3886  0.0322
28385W        W71302  24.605  30.185   2.223 -0.3145  0.2524  0.0262
28386W        W71303  23.071  28.105   2.623 -0.2432  0.1967 -0.0465
28387W        W71304  23.300  28.286   0.801  0.0756  0.2278 -0.2015
28388W        W71305  22.846  31.594   0.270 -0.0783 -0.1038 -0.0625
28389W        W71306  22.151  30.628   2.757  0.1839  0.0620  0.2878
28390W        W71307  23.343  29.155   1.999 -0.0463 -0.2739  0.0549
28391W        W71308  24.240  29.987   1.893  0.0516  0.0510 -0.2790
28392W        W71309  24.725  33.716   1.920 -0.1628 -0.0689  0.2275
28393W        W71310  24.021  30.969   1.785  0.0602  0.1511 -0.0770
28394W        W71311  21.731  32.995   5.393  0.0838  0.0236  0.2083
28395W        W71312  23.725  30.572   3.351  0.0810 -0.1229  0.0808
28396W        W71313  23.612  30.686   2.102 -0.1322 -0.2883 -0.3024
28397W        W71314  26.090  31.925   3.579 -0.1039  0.1792 -0.1468
28398W        W71315  21.507  31.874   5.963  0.2253 -0.2371 -0.0050
28399W        W71316  23.620  32.658   2.605  0.2204  0.2638 -0.0240
28400W        W71317  23.073  28.234   6.617  0.2586 -0.1815 -0.2002
28401W        W71318  24.332  30.675   4.955  0.0191 -0.2183  0.0998
28402W        W71319  24.663  32.354   3.677 -0.3560 -0.0374  0.0190
28403W        W71320  24.412  31.947   2.926 -0.0226  0.3039  0.0025
28404W        W71321  23.321  30.104   5.742 -0.3759 -0.1770  0.0792
28405W        W71322  21.410  32.448   5.387  0.1548 -0.1670 -0.3239
28406W        W71323  22.022  27.318   4.917 -0.0454  0.1834 -0.0513
28407W        W71324  23.431  29.417   5.010 -0.3355  0.0715 -0.2370
28408W        W71325  23.204  31.208   6.661 -0.0092 -0.0677 -0.3257
28409W        W71326  23.240  31.187   4.233 -0.1631  0.0236  0.0177
28410W        W71327  22.883  31.196   5.166  0.2623 -0.0591  0.2042
28411W        W71328  23.351  30.459   3.728  0.0169  0.0917 -0.1291
28412W        W71329  23.371  31.758   1.962  0.0067  0.0310 -0.5383
28413W        W71330  24.518  29.003   4.600 -0.0804  0.1356 -0.0234
28414W        W71331  23.844  29.996   5.954 -0.0045  0.0138 -0.1391
28415W        W71332  24.025  31.639   5.390  0.1803 -0.1492  0.3085
28416W        W71333  22.736  32.293   3.451  0.4017 -0.0509 -0.2889
28417W        W71334  21.866  30.933   3.668 -0.0961  0.0684  0.1121
28418W        W71335  21.045  30.134   5.581 -0.2353  0.0206 -0.0954
28419W        W71336  24.260  30.610   5.557 -0.0076  0.0503 -0.0718
28420W        W71337  24.432  30.116   4.064 -0.2094 -0.1351 -0.1653
28421W        W71338  24.716  32.023   4.163 -0.1133 -0.2130 -0.1078
28422W        W71339  24.013  32.366   4.330 -0.1662 -0.0489 -0.0571
28423W        W71340  24.733  29.560   7.206 -0.2977 -0.0155 -0.1664
28424W        W71341  23.063  31.829   3.340 -0.3302  0.2494  0.0732
28425W        W71342  21.995  33.074   6.721 -0.2059  0.3126  0.0058
28426W        W71343  22.931  31.798   6.086 -0.0067 -0.0608  0.1533
28427W        W71344  24.968  31.380   4.594 -0.3404  0.1109  0.0893
28428W        W71345  22.641  33.430   7.298 -0.1031 -0.3495  0.0134
28429W        W71346  22.089  33.073   7.808 -0.0720  0.1556  0.0007
28430W        W71347  22.177  30.268   3.593 -0.0726  0.0279  0.1172
28431W        W71348  25.992  32.141   7.085 -0.1635  0.1444 -0.1442
28432W        W71349  21.319  33.673   7.425 -0.0259  0.1083 -0.0099
28433W        W71350  21.491  32.173   4.934 -0.0157 -0.0748  0.3242
28434W        W71351  22.873  32.038   4.121 -0.1048 -0.2269 -0.1282
28435W        W71352  25.225  30.783   3.691 -0.0651  0.2508 -0.3108
28436W        W71353  24.405  29.955   7.296 -0.2337 -0.2821  0.0623
28437W        W71354  22.403  30.990   5.516  0.5877  0.0973 -0.1000
28438W        W71355  22.305  32.786   4.629 -0.0942 -0.0691 -0.2048
28439W        W71356  23.982  30.338   5.168  0.0525 -0.1175  0.2195
28440W        W71357  22.906  32.199   2.166 -0.3102 -0.1921 -0.1085
28441W        W71358  25.247  30.059   4.680  0.1683  0.3736  0.2698
28442W        W71359  24.084  30.461   1.916 -0.0875 -0.3107 -0.1037
28443W        W71360  26.054  30.642   4.234  0.1753 -0.2452  0.1289
28444W        W71361  23.944  26.980   5.630 -0.1883 -0.0318  0.0806
28445W        W71362  23.918  32.555   7.615 -0.1716 -0.0239 -0.1190
28446W        W71363  22.635  30.463   3.591  0.3684 -0.1409  0.2021
28447W        W71364  23.288  31.638   6.437 -0.2904 -0.1302  0.0926
28448W        W71365  23.767  32.139   5.370  0.1079 -0.1598 -0.4324
28449W        W71366  22.176  29.461   6.130 -0.3217  0.0978 -0.0615
28450W        W71367  20.699  32.191   5.709  0.1020  0.0995 -0.1904
28451W        W71368  20.855  30.929   5.093  0.2416  0.1425  0.0113
28452W        W71369  24.867  32.785   4.430  0.2715  0.1262 -0.0358
28453W        W71370  24.051  33.857   5.357  0.2880  0.0579 -0.2275
28454W        W71371  24.531  32.784   2.906 -0.0655 -0.0578  0.0442
28455W        W71372  21.623  31.043   4.215  0.2263 -0.0126 -0.1263
28456W        W71373  23.028  30.527   5.933 -0.1397 -0.2783 -0.0539
28457W        W71374  22.285  30.535   5.359 -0.0737  0.5071 -0.3214
28458W        W71375  22.164  29.856   4.352 -0.0099  0.0985  0.0563
28459W        W71376  26.513  32.759   7.319 -0.0402 -0.2488 -0.0390
28460W        W71377  22.771  32.137   4.997  0.1327 -0.1689 -0.1241
28461W        W71378  24.844  30.156   4.368 -0.5306 -0.2066 -0.0649
28462W        W71379  23.966  31.720   3.563 -0.1945 -0.0596  0.0200
28463W        W71380  24.405  33.548   5.553  0.1271  0.1572 -0.1269
28464W        W71381  25.132  31.555   3.191 -0.1389 -0.1939 -0.3749
28465W        W71382  25.271  27.661   4.914  0.0974 -0.1157  0.0817
28466W        W71383  26.583  30.017   5.806 -0.0717 -0.3063 -0.0322
28467W        W71384  23.942  31.354   3.219 -0.0001  0.4629  0.1241
28468W        W71385  24.806  31.383   2.775 -0.0688  0.1618  0.1550
28469W        W71386  26.669  31.830   5.859 -0.0898 -0.0430 -0.1350
28470W        W71387  25.367  30.164   2.374  0.0073 -0.2292 -0.2292
28471W        W71388  21.887  32.395   7.349 -0.2926  0.0247  0.1672
28472W        W71389  24.735  28.409   5.052  0.1171 -0.0143 -0.1065
28473W        W71390  23.618  32.422   6.621 -0.1066 -0.1577  0.0308
28474W        W71391  22.360  34.022   5.268 -0.1836 -0.0013  0.1495
28475W        W71392  20.894  30.448   4.116  0.2701 -0.1361 -0.0604
28476W        W71393  25.387  32.614   3.292 -0.0746  0.1978  0.0164
28477W        W71394  21.371  29.552   5.637  0.0865 -0.1649 -0.2793
28478W        W71395  23.029  30.684   4.961 -0.0939  0.2207 -0.1683
28479W        W71396  26.141  29.672   3.962  0.1145  0.0543  0.0173
28480W        W71397  23.461  30.733   5.805  0.3197  0.0308 -0.1962
28481W        W71398  25.506  29.331   5.547 -0.0499  0.1493  0.0826
28482W        W71399  21.261  31.304   3.826  0.2030  0.1274 -0.0024
28483W        W71400  24.051  33.650   4.257 -0.5570  0.0010  0.1242
28484W        W71401  25.207  31.043   2.624  0.1793  0.2872  0.0837
28485W        W71402  23.725  32.846   3.808  0.0611 -0.0364  0.0420
28486W        W71403  22.480  29.602   5.756  0.1431 -0.1014  0.3294
28487W        W71404  22.072  30.501   4.933 -0.1808  0.0376 -0.0886
28488W        W71405  22.872  29.992   5.856 -0.0494 -0.0657  0.1214
28489W        W71406  21.559  30.223   3.535 -0.0836  0.1593  0.0086
28490W        W71407  25.605  30.319   4.424 -0.2359 -0.0930  0.0965
28491W        W71408  22.276  30.739   3.911 -0.0658 -0.1326  0.0385
28492W        W71409  25.703  28.690   5.980 -0.1417  0.0569 -0.3267
28493W        W71410  23.192  30.170   4.307  0.0404  0.0931  0.2913
28494W        W71411  20.617  31.565   3.247 -0.2107 -0.0894 -0.0510
28495W        W71412  25.508  29.139   6.063 -0.1743  0.1598  0.5527
28496W        W71413  25.614  32.206   3.606 -0.0747  0.0683 -0.0607
28497W        W71414  24.270  32.517   8.264 -0.1335  0.3352 -0.1035
28498W        W71415  25.310  31.046   5.117  0.1502  0.1872  0.0248
28499W        W71416  21.224  28.833   6.902 -0.1690 -0.2595 -0.0097
28500W        W71417  21.345  30.186   4.015 -0.0575  0.0791  0.0963
28501W        W71418  23.612  32.374   3.921  0.0550 -0.1556 -0.0824
28502W        W71419  24.542   0.514   5.822  0.1255 -0.2234 -0.2195
28503W        W71420  26.046  31.395   2.831 -0.3173  0.0709  0.0010
28504W        W71421  24.410  32.740   4.641  0.0023  0.0701 -0.0951
28505W        W71422  24.152  30.890   4.497  0.3008 -0.3863 -0.2827
28506W        W71423  22.404  32.365   5.323 -0.0208 -0.2543  0.1678
28507W        W71424  24.281  29.334   4.347 -0.2275 -0.0476  0.0843
28508W        W71425  23.314  30.478   5.385  0.5147  0.0038  0.1386
28509W        W71426  23.663  29.991   2.884 -0.2311  0.2397 -0.0663
28510W        W71427  23.290  28.404   1.624  0.2484  0.0876  0.2549
28511W        W71428  24.857  31.871   4.615  0.0143  0.1199 -0.2966
28512W        W71429  21.546  31.398   2.330  0.1164  0.3508 -0.1986
28513W        W71430  24.392  31.783   4.495 -0.0141  0.0850 -0.1386
28514W        W71431  24.417  32.199   4.703  0.0493 -0.5549 -0.0413
28515W        W71432  25.592  30.163   5.065 -0.0368  0.0413 -0.0954
28516W        W71433  21.915  31.673   5.573 -0.5327  0.2660 -0.2932
28517W        W71434  23.590  28.759   7.449 -0.0223 -0.1127  0.2740
28518W        W71435  25.210  31.042   3.161  0.1432 -0.0577 -0.0482
28519W        W71436  21.501  30.279   7.467  0.3373 -0.2464  0.2197
28520W        W71437  25.420  29.259   4.181 -0.0435 -0.1151  0.2333
28521W        W71438  25.441  32.384   5.448  0.1263  0.0181  0.2847
28522W        W71439  22.782  30.508   5.399  0.2559 -0.1037  0.0371
28523W        W71440  24.186  32.593   3.874 -0.1949  0.0884 -0.2205
28524W        W71441  24.424  30.501   2.628 -0.0968  0.3859 -0.2419
28525W        W71442  25.081  29.143   4.582  0.1924 -0.0857  0.1378
28526W        W71443  22.146  32.430   6.092 -0.0636 -0.0144  0.1629
28527W        W71444  24.927  31.262   3.675 -0.0990 -0.3084  0.0144
28528W        W71445  23.658  31.583   5.867 -0.4658  0.0107 -0.2011
28529W        W71446  22.570  28.877   4.031  0.0991 -0.1689 -0.0815
28530W        W71447  26.578  31.617   4.875  0.1622 -0.3597 -0.1687
28531W        W71448  20.809  33.233   5.727 -0.2294  0.2433  0.0188
28532W        W71449  23.286  31.246   5.921 -0.1612 -0.1076 -0.3420
28533W        W71450  24.388  33.153   3.914  0.0439  0.2334 -0.2414
28534W        W71451  21.546  30.060   5.455  0.2485 -0.3638  0.2341
28535W        W71452  23.425  30.963   3.589 -0.1469  0.2300 -0.2470
28536W        W71453  22.463  30.000   3.929  0.1546  0.1471 -0.1484
28537W        W71454  20.428  32.941   3.877 -0.4172  0.2358  0.0747
28538W        W71455  25.421  30.054   2.861 -0.0305 -0.1444  0.2367
28539W        W71456  24.209  29.952   4.862  0.4774  0.3708  0.0907
28540W        W71457  24.580  28.642   6.482  0.3645 -0.0397 -0.1326
28541W        W71458  24.004  30.977   7.078  0.0067 -0.0354  0.0771
28542W        W71459  24.893  31.032   6.165 -0.4866  0.1535  0.0198
28543W        W71460  22.474  31.214   4.626  0.0462  0.6359 -0.2077
28544W        W71461  22.319  32.697   4.088  0.1404 -0.0292  0.1564
28545W        W71462  24.751  30.409   5.628 -0.3303 -0.1574 -0.4736
28546W        W71463  21.387  31.816   6.668 -0.0792 -0.1214  0.2693
28547W        W71464  22.191  30.476   6.237  0.0377  0.1828 -0.3042
28548W        W71465  24.986  31.473   6.437 -0.0665 -0.1202  0.1874
28549W        W71466  23.817  32.444   3.491 -0.2146  0.1889  0.3857
28550W        W71467  25.700  29.208   6.789  0.0402  0.0448 -0.2595
28551W        W71468  20.763  30.371   3.152 -0.2280  0.0803  0.1252
28552W        W71469  23.293  33.474   5.562  0.1036 -0.0686 -0.3587
28553W        W71470  21.846  30.511   3.242 -0.1600 -0.2391  0.1204
28554W        W71471  22.956  29.499   5.088 -0.1051 -0.1897  0.1719
28555W        W71472  24.240  31.662   3.984  0.3073 -0.1674  0.0526
28556W        W71473  23.100  33.187   4.291 -0.2703  0.1126  0.1341
28557W        W71474  24.448  30.865   6.388 -0.0200  0.0425 -0.0333
28558W        W71475  24.125  33.101   4.888 -0.4225  0.1224  0.1186
28559W        W71476  25.155  29.743   4.054 -0.7022 -0.1722 -0.5610
28560W        W71477  23.630  32.581   5.137  0.0518  0.0424 -0.2045
28561W        W71478  23.622  30.825   4.014  0.0338  0.1414  0.0121
28562W        W71479  23.255  32.846   3.950 -0.0219 -0.0143  0.1182
28563W        W71480  27.298  28.735   4.924  0.2232  0.2278 -0.1353
28564W        W71481  24.122  32.325   2.644  0.0067  0.0994 -0.2567
28565W        W71482  22.469  30.780   4.430  0.0162 -0.0350 -0.1921
28566W        W71483  24.110  30.565   4.052  0.0314 -0.0774 -0.0406
28567W        W71484  22.851  32.526   5.399  0.0843 -0.2851 -0.0714
28568W        W71485  22.925  28.446   5.315  0.0685 -0.0423  0.2407
28569W        W71486  23.162  31.433   2.504  0.0170  0.0385  0.1682
28570W        W71487  25.913  31.066   5.972 -0.1117  0.5885 -0.0068
28571W        W71488  23.000  30.197   6.886  0.3424  0.1684  0.2363
28572W        W71489  20.375  30.675   4.314  0.0526  0.0459  0.1342
28573W        W71490  24.503  30.203   5.224  0.0203  0.0622 -0.0686
28574W        W71491  23.709  31.034   4.418 -0.0410  0.1281 -0.4007
28575W        W71492  20.909  31.331   5.423  0.2345  0.0013 -0.1397
28576W        W71493  22.665  32.447   6.808  0.0381  0.2983  0.2354
28577W        W71494  24.338  31.413   2.939  0.0744  0.1278  0.0208
28578W        W71495  22.787  33.750   5.150 -0.0224  0.0117 -0.2729
28579W        W71496  23.362  30.346   4.837 -0.0568  0.1418  0.0334
28580W        W71497  25.313  31.683   7.974 -0.3209 -0.0213 -0.0413
28581W        W71498  23.094  30.705   4.116 -0.2178  0.2315  0.1257
28582W        W71499  22.952  28.058   4.977  0.2063 -0.0043 -0.2516
28583W        W71500  22.537  29.341   5.282  0.0868  0.1414 -0.1462
28584W        W71501  22.778  30.984   5.872 -0.2050  0.3852 -0.4326
28585W        W71502  22.511  29.528   4.195  0.0113 -0.3606 -0.0060
28586W        W71503  23.254  30.784   6.276  0.1913  0.2083 -0.2688
28587W        W71504  23.795  29.071   5.111  0.0487  0.1883 -0.5782
28588W        W71505  26.679  32.536   2.178 -0.2007  0.1035  0.1588
28589W        W71506  23.951  31.697   7.801 -0.3141  0.1310  0.1803
28590W        W71507  23.001  32.958   4.725  0.0729 -0.0962  0.0605
28591W        W71508  20.529  31.298   4.964  0.1739  0.0379 -0.1527
28592W        W71509  21.858  30.663   4.409 -0.1555 -0.0305  0.0440
28593W        W71510  22.354  28.600   5.159 -0.2528 -0.3263 -0.2776
28594W        W71511  23.128  31.922   4.676  0.1966  0.2047  0.0320
28595W        W71512  24.011  30.889   3.652 -0.0990 -0.2494 -0.1764
28596W        W71513  22.923  31.088   4.600 -0.1165  0.1558 -0.0148
28597W        W71514  25.490  29.427   4.648  0.2711  0.1301  0.1645
28598W        W71515  24.412  33.685   2.366  0.3521 -0.0845 -0.1677
28599W        W71516  22.985  29.669   4.049 -0.0035  0.3574 -0.1063
28600W        W71517  24.775  30.246   7.332  0.2652 -0.0891  0.3394
28601W        W71518  23.711  33.222   4.305  0.3742  0.1943 -0.0760
28602W        W71519  24.531  29.515   5.744  0.1267 -0.1951 -0.0501
28603W        W71520  23.792  29.606   4.619  0.2418 -0.2423 -0.5624
28604W        W71521  24.983  29.997   3.120 -0.0887 -0.3943  0.3333
28605W        W71522  21.138  30.417   6.313 -0.1726  0.0373  0.2361
28606W        W71523  23.149  32.473   4.760 -0.2285  0.0490 -0.5164
28607W        W71524  22.033  30.709   5.752 -0.0686  0.0632 -0.2142
28608W        W71525  24.759  29.916   4.882  0.2741 -0.0746 -0.2547
28609W        W71526  23.167  28.549   4.858 -0.3319 -0.2383 -0.1487
28610W        W71527  22.501  32.103   6.123  0.1377 -0.4965  0.2190
28611W        W71528  24.552  31.657   4.923 -0.1115 -0.3242  0.1864
28612W        W71529  24.450  31.960   5.371 -0.2531 -0.0291 -0.0488
28613W        W71530  25.504  29.827   4.333  0.0860 -0.1468 -0.0309
28614W        W71531  25.079  30.201   5.150 -0.2500 -0.1515  0.1082
28615W        W71532  25.477  32.086   2.329 -0.0890 -0.1804  0.0823
28616W        W71533  23.324  32.712   5.659  0.0708 -0.0512 -0.0990
28617W        W71534  23.423  31.132   4.931 -0.1876  0.1214  0.3157
28618W        W71535  23.526  32.134   4.882  0.1519 -0.1304  0.2127
28619W        W71536  24.829  29.991   3.827 -0.1221 -0.0047  0.4671
28620W        W71537  23.366  29.847   4.748  0.0143  0.1504  0.0604
28621W        W71538  23.854  30.295   8.230  0.0106  0.0454  0.0389
28622W        W71539  22.519  30.883   4.981  0.1152  0.0106 -0.1443
28623W        W71540  24.374  30.434   6.030  0.0214 -0.2026  0.0442
28624W        W71541  24.207  32.743   6.005  0.0721  0.1249 -0.0939
28625W        W71542  25.370  28.988   2.367  0.0516  0.2994  0.1806
28626W        W71543  23.851  29.653   5.108 -0.0888  0.0278 -0.0064
28627W        W71544  24.512  31.385   6.341 -0.1110 -0.0621 -0.2548
28628W        W71545  24.153  30.215   2.344  0.3481 -0.1541 -0.2412
28629W        W71546  22.317  30.291   4.535  0.0893 -0.4811 -0.1836
28630W        W71547  23.650  29.657   7.434 -0.2615 -0.1691  0.2580
28631W        W71548  22.028  31.522   3.397  0.1705  0.2658  0.0315
28632W        W71549  22.364  30.086   5.668 -0.1212 -0.0873  0.0169
28633W        W71550  24.443  31.554   2.483  0.2193 -0.0311  0.1918
28634W        W71551  24.643  31.543   3.255 -0.2104  0.0862  0.4180
28635W        W71552  24.140  29.851   3.622 -0.0959 -0.1623 -0.0834
28636W        W71553  23.821  27.618   4.767 -0.1095 -0.0865 -0.1488
28637W        W71554  22.770  31.574   4.810 -0.0280  0.0382  0.2063
28638W        W71555  20.654  30.793   2.708 -0.1950  0.0825  0.0017
28639W        W71556  24.948  30.938   4.798  0.1323 -0.2295  0.2010
28640W        W71557  22.828  31.498   5.697 -0.0247  0.1626  0.1198
28641W        W71558  24.986  31.403   7.705 -0.1999 -0.1316  0.2008
28642W        W71559  23.558  29.904   4.139 -0.2541 -0.0348 -0.3814
28643W        W71560  23.212  30.997   7.559 -0.0820 -0.2345 -0.0707
28644W        W71561  24.830  32.056   3.273 -0.0253  0.1096  0.1453
28645W        W71562  22.647  29.038   6.339 -0.0689 -0.0081  0.0475
28646W        W71563  21.102  32.901   5.594 -0.0272 -0.2966  0.0006
28647W        W71564  20.305  32.317   6.071 -0.0559 -0.1613 -0.0166
28648W        W71565  21.708  32.238   5.727 -0.1664 -0.0488  0.1408
28649W        W71566  23.027  29.043   5.480  0.3404  0.2901 -0.0090
28650W        W71567  25.102  29.848   7.272  0.2072  0.1014  0.3034
28651W        W71568  23.463  33.157   4.769 -0.1014  0.1449 -0.0548
28652W        W71569  25.074  29.524   6.845  0.1389 -0.1848  0.2145
28653W        W71570  24.543  32.491   5.091 -0.1795  0.1973 -0.0848
28654W        W71571  22.923  30.117   3.864  0.2906  0.2546  0.2747
28655W        W71572  23.688  31.617   5.033 -0.0290  0.3211  0.1827
28656W        W71573  26.363  30.185   6.205 -0.1936 -0.0767  0.0253
28657W        W71574  21.989  34.014   6.870 -0.0345 -0.1339 -0.1366
28658W        W71575  23.644  27.868   7.690 -0.3648 -0.2772 -0.1145
28659W        W71576  23.476  30.350   6.158 -0.2201 -0.1386  0.3383
28660W        W71577  23.820  30.891   5.374 -0.1839 -0.0366 -0.1800
28661W        W71578  23.015  31.300   3.286 -0.0575 -0.2754  0.0838
28662W        W71579  24.867  34.402   2.556 -0.1936  0.1824 -0.0517
28663W        W71580  21.173  31.298   6.442 -0.0085  0.0602  0.3217
28664W        W71581  22.881  30.486   4.515  0.1065 -0.1880  0.0976
28665W        W71582  24.043  33.622   4.824 -0.1249 -0.1372 -0.1213
28666W        W71583  25.644  30.655   5.196 -0.1192  0.0924 -0.0721
28667W        W71584  21.622  31.498   2.851 -0.3273  0.2225 -0.0370
28668W        W71585  24.860  32.122   5.068  0.0138  0.1785  0.0611
28669W        W71586  26.129  32.130   4.145 -0.1971  0.1460 -0.0927
28670W        W71587  24.043  31.954   4.941 -0.1147  0.3399  0.2649
28671W        W71588  22.710  34.216   3.819  0.1926  0.3030  0.3192
28672W        W71589  24.848   0.350   3.527  0.1194  0.2120 -0.0789
28673W        W71590  22.856  31.909   6.546  0.0015 -0.3738  0.0669
28674W        W71591  24.512  32.360   6.274 -0.1605  0.1693  0.0897
28675W        W71592  25.837  31.279   3.343  0.1325  0.1498  0.2911
28676W        W71593  23.566  32.157   5.867 -0.0787 -0.0731 -0.0978
28677W        W71594  23.820  30.099   4.619 -0.0779 -0.0166  0.1240
28678W        W71595  22.361  32.207   9.106 -0.1578  0.2137 -0.0657
28679W        W71596  24.038  31.238   5.001  0.2291 -0.0125 -0.1838
28680W        W71597  23.023  29.399   2.867  0.0702  0.2247  0.2203
28681W        W71598  24.490  30.855   3.783 -0.2199  0.4326  0.3494
28682W        W71599  24.244  29.674   6.149  0.0509 -0.2455  0.2063
28683W        W71600  22.072  33.087   7.231  0.0841 -0.0622 -0.3233
28684W        W71601  26.384  33.696   0.966 -0.0078  0.2426 -0.0216
28685W        W71602  19.844  29.580   3.479 -0.0230  0.0487 -0.0120
28686W        W71603  23.639  29.130   4.615 -0.1261 -0.1328  0.1533
28687W        W71604  24.912  30.003   6.379  0.0958  0.1576 -0.0315
28688W        W71605  23.801  34.525   4.921 -0.2962  0.1021 -0.1200
28689W        W71606  23.787  30.237   3.825  0.0852 -0.1117  0.1588
28690W        W71607  25.327  32.123   4.881 -0.1950  0.1605 -0.1491
28691W        W71608  22.895  34.525   6.511 -0.2227 -0.0741  0.0169
28692W        W71609  22.960  33.023   5.652  0.0253  0.1052 -0.0213
28693W        W71610  20.890  30.801   3.312  0.1885  0.0916 -0.1899
28694W        W71611  24.517  28.630   5.444  0.1442 -0.4901 -0.2431
28695W        W71612  22.547  30.503   5.836 -0.0194 -0.0152 -0.4170
28696W        W71613  26.982  28.287   5.387 -0.1025  0.2124  0.3528
28697W        W71614  21.540  29.647   3.624 -0.1569  0.1338 -0.1304
28698W        W71615  25.312  31.718   3.616 -0.0738  0.1362  0.0503
28699W        W71616  24.351  31.102   5.401 -0.1318 -0.0133 -0.1435
28700W        W71617  22.553  29.174   4.603  0.0703  0.1084  0.0247
28701W        W71618  24.054  30.826   2.386  0.0451  0.3140 -0.0006
28702W        W71619  24.977  30.842   8.217  0.1973  0.0499 -0.3432
28703W        W71620  25.248  30.236   4.098  0.1160  0.4132 -0.0837
28704W        W71621  23.228  33.517   7.110  0.1074  0.0272 -0.1142
28705W        W71622  21.977  31.091   3.128  0.1613 -0.0838 -0.1299
28706W        W71623  24.785  29.514   3.161  0.1187  0.2332  0.1203
28707W        W71624  23.723  31.840   4.055  0.1163  0.0148  0.0275
28708W        W71625  24.071  31.993   5.768  0.0046  0.0903  0.1901
28709W        W71626  24.617  31.342   7.268 -0.3522  0.1731  0.2762
28710W        W71627  22.127  29.613   3.888 -0.0102 -0.2200 -0.0691
28711W        W71628  26.262  31.562   3.273 -0.1479 -0.0613 -0.0139
28712W        W71629  24.816  30.429   3.443  0.0602 -0.2303  0.2214
28713W        W71630  23.454  32.583   3.121 -0.0664 -0.4414  0.0385
28714W        W71631  25.867  31.194   4.421  0.1944 -0.0734 -0.1008
28715W        W71632  25.449  31.673   4.553  0.2783  0.0738 -0.2981
28716W        W71633  23.423  31.519   4.614 -0.1180  0.2660 -0.0452
28717W        W71634  26.867  32.963   5.992  0.1881  0.1552 -0.1589
28718W        W71635  24.787  30.755   5.215 -0.0082 -0.0025  0.1072
28719W        W71636  22.924  29.160   4.143 -0.1459 -0.0687  0.0127
28720W        W71637  23.290  32.015   3.814  0.2837 -0.1565  0.3002
28721W        W71638  22.266  32.397   3.658  0.1157  0.0568  0.2072
28722W        W71639  24.561  32.481   4.233  0.2444  0.2211  0.0124
28723W        W71640  24.638  29.979   5.926 -0.1644 -0.0027  0.2525
28724W        W71641  25.112   1.277   3.273  0.2458  0.0822  0.1083
28725W        W71642  23.499  31.384   7.790 -0.0797  0.0427  0.0571
28726W        W71643  23.273  32.103   6.285  0.1164  0.0070  0.0738
28727W        W71644  22.764  33.084   6.383  0.0527  0.0867  0.0012
28728W        W71645  21.342  32.767   1.977  0.0441  0.1502 -0.2159
28729W        W71646  23.496  31.353   5.436  0.1071 -0.0302  0.1658
28730W        W71647  22.952  32.664   3.140  0.2815 -0.2193  0.1565
28731W        W71648  21.283  30.998   4.629 -0.2243 -0.0236  0.0340
28732W        W71649  24.500  30.951   5.847 -0.1200  0.0941  0.1526
28733W        W71650  24.162  30.106   5.598 -0.1162 -0.0217  0.1791
28734W        W71651  24.347  31.317   3.556 -0.1840 -0.0418 -0.2837
28735W        W71652  24.511  29.566   3.922 -0.1260 -0.3224 -0.2412
28736W        W71653  27.094  28.391   4.389 -0.1631 -0.1254 -0.0547
28737W        W71654  23.790  29.306   4.196 -0.3142 -0.0178 -0.0658
28738W        W71655  22.441  30.663   9.159 -0.2136  0.1310 -0.0905
28739W        W71656  22.204  30.401   2.203  0.1253 -0.0325  0.2129
28740W        W71657  22.950  31.552   3.760  0.1195  0.2433  0.2533
28741W        W71658  22.643  30.463   4.102 -0.3799  0.4701 -0.0150
28742W        W71659  23.245  28.121   8.013 -0.2411  0.1230  0.2033
28743W        W71660  22.780  29.764   7.024  0.0236  0.1871 -0.2364
28744W        W71661  22.388  31.343   5.168  0.0658 -0.0625  0.0596
28745W        W71662  20.752  30.103   4.464 -0.0763 -0.2322  0.1561
28746W        W71663  25.994  34.168   4.346  0.4234 -0.4610  0.4046
28747W        W71664  21.640  29.682   4.663  0.1674  0.1087 -0.0043
28748W        W71665  21.652  30.162   4.965  0.0186 -0.1994 -0.1356
28749W        W71666  24.216  32.842   3.404  0.1232  0.3709 -0.3105
28750W        W71667  25.047  32.470   4.063  0.2108 -0.0487  0.1870
28751W        W71668  24.761  28.695   4.228 -0.1541 -0.0059  0.1060
28752W        W71669  24.244  31.695   6.673  0.0171  0.0511  0.0170
28753W        W71670  21.787  29.889   0.886  0.0038 -0.0801  0.1035
28754W        W71671  24.245  28.747   4.912 -0.1020 -0.1420 -0.0919
28755W        W71672  23.118  29.106   4.709 -0.2297  0.0613  0.0788
28756W        W71673  20.795  30.610   2.252  0.4076  0.3978 -0.0056
28757W        W71674  22.995  29.545   5.600  0.3550 -0.0063 -0.1273
28758W        W71675  25.230  31.603   4.985 -0.1523  0.0231  0.0174
28759W        W71676  24.109   1.637   6.234 -0.2145  0.2721 -0.2517
28760W        W71677  23.008  30.703   6.727  0.0815  0.0584 -0.2032
28761W        W71678  22.217  32.142   5.728  0.2103 -0.2025  0.2834
28762W        W71679  22.060  29.940   4.842  0.0550  0.0081 -0.0716
28763W        W71680  24.306  33.235   4.399 -0.1030 -0.1646  0.1981
28764W        W71681  25.183  32.183   6.681 -0.1129  0.0097  0.0621
28765W        W71682  25.853  33.045   5.233  0.0324 -0.0497 -0.0952
28766W        W71683  25.925  29.486   6.368  0.0063  0.0972 -0.3067
28767W        W71684  23.881  30.917   2.932 -0.2129  0.1201  0.4858
28768W        W71685  22.841  27.767   6.514 -0.2154  0.0190  0.3703
28769W        W71686  22.076  30.170   7.787  0.1260 -0.1427  0.1033
28770W        W71687  23.806  30.458   5.583 -0.0304 -0.0563 -0.1000
28771W        W71688  22.134  30.309   4.095  0.0598  0.0592  0.3159
28772W        W71689  25.077  28.520   4.605 -0.1914 -0.5284 -0.1497
28773W        W71690  24.202  33.887   3.746  0.1402  0.0369 -0.2253
28774W        W71691  21.254  30.841   6.049  0.0213 -0.0189 -0.0841
28775W        W71692  24.758  30.430   4.733  0.1854  0.1853 -0.3035
28776W        W71693  23.954  30.710   6.047  0.3523  0.0034  0.1123
28777W        W71694  22.199  31.265   6.582 -0.0608  0.1560 -0.1773
28778W        W71695  23.542  30.867   6.693  0.0352  0.3856  0.0694
28779W        W71696  21.976  31.644   2.433  0.3156 -0.0456 -0.0236
28780W        W71697  25.243  30.155   3.554  0.1142 -0.1736 -0.2250
28781W        W71698  23.988  31.472   6.281  0.5487 -0.0916  0.2278
28782W        W71699  24.812  32.801   8.028  0.1637  0.0717 -0.3911
28783W        W71700  24.139  32.132   7.953  0.0874  0.2803 -0.1310
28784W        W71701  24.332  29.716   5.266  0.1682  0.1146 -0.2970
28785W        W71702  21.470  27.777   6.252  0.0012 -0.0256  0.3330
28786W        W71703  24.094  30.089   3.173  0.0238  0.0077  0.2574
28787W        W71704  22.436  32.898   6.017 -0.0148  0.3264 -0.2838
28788W        W71705  23.774  30.768   4.866  0.1453 -0.1304 -0.4167
28789W        W71706  22.722  29.188   5.872 -0.2528 -0.0708 -0.0858
28790W        W71707  24.702  28.969   3.216 -0.0759 -0.2317 -0.1609
28791W        W71708  22.891  32.992   7.172  0.0752  0.1319 -0.2927
28792W        W71709  24.598  31.429   4.292 -0.2305 -0.1967 -0.0870
28793W        W71710  23.021  29.685   9.446 -0.0788 -0.0450  0.2058
28794W        W71711  23.872  28.221   6.271  0.1705  0.0314  0.1640
28795W        W71712  23.972  30.361   6.381  0.1584  0.0233  0.0855
28796W        W71713  23.675  31.967   6.935  0.3604  0.1314  0.0340
28797W        W71714  23.818  32.238   9.192 -0.0603  0.1493 -0.0750
28798W        W71715  26.606  32.744   6.392 -0.1771  0.1683  0.0514
28799W        W71716  25.185  30.002   9.274  0.1700 -0.0164 -0.0733
28800W        W71717  25.569  34.217   9.316 -0.0516 -0.0045 -0.1900
28801W        W71718  23.762  31.924   6.416  0.1858  0.1148  0.3575
28802W        W71719  24.036  28.365   9.143  0.5058 -0.3384  0.1687
28803W        W71720  21.557  28.407   8.314  0.0509 -0.1709 -0.0170
28804W        W71721  20.033  26.454   8.412  0.0845  0.4040  0.0514
28805W        W71722  23.302  31.655   9.680  0.0496  0.3528  0.0966
28806W        W71723  23.013  31.769   7.942  0.1804  0.2674  0.0930
28807W        W71724  22.866  32.287   9.099  0.0137  0.2811 -0.2581
28808W        W71725  22.179  29.028   8.529 -0.4537 -0.0430  0.1656
28809W        W71726  24.888  30.436   7.916 -0.1721 -0.1540  0.1856
28810W        W71727  22.335  29.899   8.949 -0.0453 -0.2557 -0.0617
28811W        W71728  24.091  31.492   7.121  0.0150 -0.2291  0.1479
28812W        W71729  21.116  29.486   6.109  0.0628 -0.0382  0.2134
28813W        W71730  23.362  29.761   8.942 -0.1044  0.0001  0.0918
28814W        W71731  26.107  30.535   9.125 -0.1043  0.0295  0.2219
28815W        W71732  24.043  27.868   8.992 -0.1873  0.0646  0.1563
28816W        W71733  28.551  32.409   8.062  0.0717  0.2397 -0.0791
28817W        W71734  22.792  32.136   8.273  0.1226 -0.0181 -0.4850
28818W        W71735  24.293  30.671   9.049  0.0128  0.2100 -0.0854
28819W        W71736  25.352  30.470   8.094  0.1823  0.6283 -0.2186
28820W        W71737  22.072  31.820   9.352  0.0803  0.2090  0.1679
28821W        W71738  23.163  32.348   8.023 -0.1805 -0.1770  0.1810
28822W        W71739  25.968  31.617   8.932 -0.1013 -0.2238  0.0506
28823W        W71740  21.902  30.245   8.276  0.0212 -0.0369 -0.4965
28824W        W71741  20.723  31.594   7.219 -0.1057 -0.0812  0.1254
28825W        W71742  25.257  29.501   7.738 -0.1042 -0.1943  0.0790
28826W        W71743  22.872  31.414   9.501 -0.4710  0.0865  0.3031
28827W        W71744  22.117  31.366   9.465 -0.2435 -0.3867 -0.0390
28828W        W71745  25.138  30.930   9.054  0.0520 -0.0434 -0.1355
28829W        W71746  23.635  32.006   8.790  0.2717  0.0064 -0.2768
28830W        W71747  24.952  31.742   8.314 -0.4495 -0.1413 -0.1915
28831W        W71748  23.771  29.864   6.403 -0.2166 -0.1079  0.0472
28832W        W71749  24.391  25.810   8.575 -0.2338 -0.1788  0.3153
28833W        W71750  22.405  33.592   9.504 -0.4147 -0.2190 -0.1262
28834W        W71751  27.010  25.319   9.817 -0.0637 -0.2887  0.1315
28835W        W71752  22.987  29.958   8.354 -0.0672  0.1072 -0.2239
28836W        W71753  23.006  29.407   8.940  0.3071 -0.0588 -0.0010
28837W        W71754  21.732  32.723   8.904  0.0617 -0.1752  0.1446
28838W        W71755  22.647  31.601   7.466 -0.1458 -0.0775 -0.1040
28839W        W71756  26.353  31.423   8.658  0.2270  0.1112  0.0243
28840W        W71757  23.529  30.019   8.549  0.3097  0.0189  0.0566
28841W        W71758  26.269  32.002   9.286  0.2595  0.0132  0.0493
28842W        W71759  22.159  27.773   6.841 -0.2568 -0.0513 -0.1515
28843W        W71760  23.326  30.762   4.580 -0.1763 -0.2665 -0.1291
28844W        W71761  23.824  30.876   8.897  0.2133 -0.0052 -0.1526
28845W        W71762  24.750  30.590   9.195 -0.1902  0.0815 -0.1603
28846W        W71763  25.433  29.233   9.046 -0.0873  0.0979 -0.1350
28847W        W71764  24.326  32.735   7.087 -0.1081 -0.2950 -0.0985
28848W        W71765  20.167  26.830   9.252 -0.0158  0.2482 -0.0977
28849W        W71766  22.617  30.420   8.759  0.0669 -0.2456 -0.1530
28850W        W71767  21.921  32.529   4.483 -0.0408  0.0837  0.1226
28851W        W71768  23.669  31.618   7.336  0.1438 -0.1743  0.0066
28852W        W71769  25.516  29.203   8.586 -0.1480 -0.1161 -0.0337
28853W        W71770  27.235  30.235   6.095  0.2093 -0.3198  0.0504
28854W        W71771  22.548  32.815   9.876 -0.1770 -0.0191 -0.1219
28855W        W71772  21.607  32.198   8.175  0.0155 -0.0356  0.2694
28856W        W71773  21.897  31.739   6.581 -0.2955 -0.0407 -0.1514
28857W        W71774  22.208  31.186   7.597  0.0268  0.3138  0.3973
28858W        W71775  20.464  27.559   8.537  0.1918  0.2495 -0.1289
28859W        W71776  23.320  32.604   8.948  0.0249  0.1245  0.0224
28860W        W71777  23.939  27.836   8.488 -0.1940  0.0162  0.0651
28861W        W71778  28.415  27.815   8.579 -0.0789 -0.2600 -0.0978
28862W        W71779  21.386  32.348   6.231  0.0584 -0.0076 -0.0005
28863W        W71780  25.848  33.102   5.996 -0.1509  0.1188 -0.2766
28864W        W71781  24.552  31.601   8.728 -0.0809  0.1131  0.0319
28865W        W71782  24.837  31.890   7.859  0.0276  0.3506 -0.1558
28866W        W71783  23.368  30.396   8.123  0.4303 -0.0988  0.0297
28867W        W71784  22.450  30.718   7.836  0.1665 -0.2054  0.0558
28868W        W71785  20.913  28.019   6.925  0.0514 -0.1011 -0.1071
28869W        W71786  24.138  28.283   7.775 -0.0874 -0.0376  0.1467
28870W        W71787  24.314  29.008   7.844 -0.0278 -0.1746  0.2561
28871W        W71788  23.809  28.978   7.907 -0.0356  0.1392  0.0247
28872W        W71789  22.949  32.969   8.849 -0.1790  0.4001 -0.3683
28873W        W71790  23.428  32.457   7.606  0.1535 -0.2297  0.0791
28874W        W71791  24.412  29.538   7.637  0.2509  0.3039  0.1898
28875W        W71792  25.744  33.073   8.460  0.0448  0.3651  0.0226
28876W        W71793  21.924  27.322   9.129 -0.1436 -0.0625 -0.0243
28877W        W71794  22.661  29.935   6.604  0.3443 -0.0834 -0.2449
28878W        W71795  22.769   0.335   9.221  0.1348 -0.1163  0.0896
28879W        W71796  23.160  30.777   8.402  0.1804  0.3361 -0.0911
28880W        W71797  23.382  29.152   8.095  0.1082  0.0070 -0.1857
28881W        W71798  25.767  33.470   6.895 -0.1475  0.1360 -0.0490
28882W        W71799  23.910  31.226   7.533  0.1253 -0.1186  0.0136
28883W        W71800  26.729  32.268   9.184 -0.0227  0.0846  0.0754
28884W        W71801  22.603  29.583   8.660 -0.0416 -0.1201 -0.0565
28885W        W71802  22.017  29.275   7.966  0.0006  0.0227 -0.1835
28886W        W71803  24.912  33.249   7.780  0.0405 -0.2700  0.2203
28887W        W71804  21.466  32.337   6.917  0.1602 -0.2628 -0.0304
28888W        W71805  23.197  31.666   8.654 -0.1052  0.1077 -0.1002
28889W        W71806  23.397  33.461   8.078 -0.0504 -0.0871  0.1092
28890W        W71807  25.521  29.651   9.392 -0.0834 -0.2077 -0.0479
28891W        W71808  21.222  30.109   8.899  0.2387 -0.0286 -0.0726
28892W        W71809  24.673  28.217   6.838 -0.2746  0.1076  0.1315
28893W        W71810  24.398  31.931   7.611 -0.0862  0.1896  0.2234
28894W        W71811  26.295  33.953   8.288 -0.3324  0.2227 -0.1375
28895W        W71812  23.664  30.843   7.482  0.1188 -0.1533 -0.0456
28896W        W71813  25.057  28.521   6.646  0.2073 -0.0289 -0.0920
28897W        W71814  22.531  30.959   6.708 -0.0025 -0.2988  0.0600
28898W        W71815  25.145  31.989   9.413  0.0118 -0.1023  0.1128
28899W        W71816  23.049  30.124   7.377  0.0172 -0.1626  0.2491
28900W        W71817  33.707  30.256  12.835  0.1399  0.1204  0.0663
28901W        W71818  22.891  30.710   9.420  0.4705 -0.0528  0.1204
28902W        W71819  25.151  29.592   8.940 -0.0427 -0.2784 -0.2410
28903W        W71820  21.636  28.178   8.732  0.0154  0.2637 -0.0246
28904W        W71821  23.469  30.133   7.178 -0.4637 -0.3655 -0.0166
28905W        W71822  22.468  28.863   8.033  0.0406  0.0026 -0.5133
28906W        W71823  21.009  31.821   6.316  0.2747 -0.0323 -0.0977
28907W        W71824  23.824  29.351   8.341 -0.4142  0.0071  0.3155
28908W        W71825  24.517  28.536   8.026 -0.1915 -0.1268  0.0608
28909W        W71826  24.397  32.428   7.451 -0.2456  0.0014  0.0889
28910W        W71827  24.803  30.279   8.391 -0.0520 -0.1729 -0.0831
28911W        W71828  22.267  29.639   6.596  0.4234  0.1580 -0.1675
28912W        W71829  23.301  31.123   9.348 -0.1998  0.1055 -0.2629
28913W        W71830  23.513  33.860   7.171  0.1125 -0.0071  0.2069
28914W        W71831  22.884  30.942   7.951 -0.2465  0.0403 -0.0178
28915W        W71832  23.666  30.015   5.376  0.1679  0.2216 -0.1312
28916W        W71833  21.641  32.774   7.039 -0.2113  0.0175  0.1975
28917W        W71834  22.007  32.094   6.953  0.0370  0.2309  0.1037
28918W        W71835  23.624  30.319   8.988  0.1456 -0.0495 -0.0777
28919W        W71836  25.269  32.885   7.800 -0.0369 -0.1131  0.0443
28920W        W71837  22.707  32.517   7.930  0.1457 -0.1666  0.0465
28921W        W71838  23.333  32.152   9.184 -0.3564  0.0559 -0.1267
28922W        W71839  21.083  31.343   8.911 -0.1668  0.0290 -0.0639
28923W        W71840  25.216  27.571   8.928 -0.0335  0.1588 -0.1073
28924W        W71841  22.775  33.801   9.107 -0.0294  0.2656 -0.0367
28925W        W71842  22.985  29.375   7.332 -0.0131  0.1420  0.1777
28926W        W71843  21.426  30.413   9.228 -0.0186 -0.2976  0.0745
28927W        W71844  24.725  29.857   8.946 -0.2118 -0.5906  0.0894
28928W        W71845  23.568  31.190   7.104  0.0950 -0.3502 -0.0701
28929W        W71846  23.015  29.290   8.349  0.2070  0.2524  0.0906
28930W        W71847  24.555  29.216   6.782 -0.0456  0.2734 -0.3639
28931W        W71848  26.612  32.757   8.456 -0.0496 -0.0722 -0.0827
28932W        W71849  24.419  30.344   7.733 -0.1014  0.2340  0.1864
28933W        W71850  23.123  29.145   6.885 -0.0061 -0.3453 -0.2961
28934W        W71851  25.149  27.762   8.221 -0.0011  0.1261 -0.0651
28935W        W71852  22.496  29.371   7.177  0.0581  0.2163  0.1167
28936W        W71853  22.534  33.898   8.640  0.0490  0.1365  0.1713
28937W        W71854  26.596  31.884   6.811 -0.2640  0.0478  0.3845
28938W        W71855  22.448  31.218   8.730 -0.3802  0.0025  0.0499
28939W        W71856  21.320  33.938   8.670  0.0728  0.0640 -0.3957
28940W        W71857  24.666  30.661   8.732  0.1209 -0.1858 -0.1145
28941W        W71858  24.291  28.722   8.562  0.0066  0.0617  0.3787
28942W        W71859  22.705  29.747   7.532 -0.1333 -0.1578  0.0434
28943W        W71860  22.456  32.911   8.188  0.2252  0.0631 -0.1073
28944W        W71861  24.688  31.142   8.597  0.1621 -0.1537  0.0380
28945W        W71862  24.574  27.345   8.981 -0.3257 -0.2246  0.1240
28946W        W71863  25.068  32.700   6.487  0.0057 -0.1885  0.0139
28947W        W71864  20.882  30.652   9.281 -0.2170  0.4461  0.0353
28948W        W71865  21.347  31.329   8.380  0.2044 -0.2946 -0.1595
28949W        W71866  23.152  30.980   5.508 -0.1170 -0.1910  0.3564
28950W        W71867  23.590  30.043   7.855  0.0565 -0.1310  0.1567
28951W        W71868  21.413  33.912  10.043  0.0201  0.0441  0.0250
28952W        W71869  22.784  30.612   7.149 -0.0334 -0.3815 -0.0907
28953W        W71870  20.692  30.124   8.686 -0.0046 -0.0056  0.1057
28954W        W71871  25.010  29.587   5.911 -0.2565 -0.0792  0.0089
28955W        W71872  23.874  32.809   8.439  0.0673  0.0172 -0.0354
28956W        W71873  23.008  28.776   8.930 -0.2307 -0.0613  0.0734
28957W        W71874  23.506  30.344   6.685  0.3540 -0.2244 -0.3592
28958W        W71875  22.860  28.496   7.564 -0.1164 -0.1133 -0.0857
28959W        W71876  24.627  30.836   7.811  0.3976 -0.0142  0.4421
28960W        W71877  26.317  28.871   8.256 -0.2189  0.0358  0.1562
28961W        W71878  25.260  27.875   7.660  0.2648  0.0515 -0.1962
28962W        W71879  23.558  26.312   8.261  0.0354  0.2043  0.0596
28963W        W71880  24.368  31.383   7.746 -0.0542 -0.1644 -0.0873
28964W        W71881  23.280  30.714   7.150 -0.1686 -0.1334 -0.1983
28965W        W71882  23.460  32.626   9.424 -0.2122  0.1438  0.0115
28966W        W71883  23.581  30.915   8.013  0.2366 -0.1717  0.1806
28967W        W71884  23.793  29.584   8.783  0.0756 -0.1783  0.1055
28968W        W71885  23.396  30.463   7.638 -0.1273 -0.0624 -0.4189
28969W        W71886  22.976  30.212   6.351  0.0970  0.0870 -0.0118
28970W        W71887  24.963  29.294   9.281 -0.0849 -0.1926  0.3367
28971W        W71888  24.169  30.164   6.878 -0.1711 -0.1453 -0.1932
28972W        W71889  26.374  32.551   8.965 -0.1306  0.2782 -0.3210
28973W        W71890  24.735  30.824   7.278 -0.0940  0.2029 -0.0023
28974W        W71891  24.356  30.573   9.528  0.0987  0.3042  0.0163
28975W        W71892  23.590  30.537   8.546 -0.0207 -0.0635 -0.1130
28976W        W71893  23.733  29.472   7.888  0.5766  0.1912  0.2444
28977W        W71894  21.334  29.025   8.885 -0.0292  0.0488 -0.2256
28978W        W71895  22.313  30.606   8.317 -0.0045 -0.0181 -0.1362
28979W        W71896  22.928  31.091   7.096  0.1694  0.0700  0.1021
28980W        W71897  24.961  31.882   8.881 -0.0633 -0.3366  0.1210
28981W        W71898  25.749  30.201   7.977  0.2374 -0.0135 -0.1301
28982W        W71899  22.409  29.975   6.159 -0.1503  0.2243  0.3249
28983W        W71900  22.256  29.948   6.992  0.0297  0.2857 -0.0446
28984W        W71901  24.366  30.727   6.911 -0.0371  0.0401  0.0133
28985W        W71902  26.080  32.210   8.046 -0.1587 -0.3884  0.1724
28986W        W71903  25.129  26.646   7.107  0.1546 -0.2716 -0.0067
28987W        W71904  24.443  30.235   8.811  0.0015  0.3054  0.0013
28988W        W71905  24.073  28.227   5.661  0.3274 -0.0357  0.0593
28989W        W71906  22.492  31.708   9.786  0.0380 -0.2420  0.0081
28990W        W71907  23.600  31.061   8.514 -0.1900  0.2199  0.1139
28991W        W71908  24.229  29.181   8.662  0.1184  0.0006 -0.1345
28992W        W71909  25.658  28.597   8.755 -0.0878  0.3461 -0.0269
28993W        W71910  20.412  29.599   9.119 -0.3115 -0.1717 -0.2117
28994W        W71911  23.375  32.000   8.319  0.0494  0.2676  0.0651
28995W        W71912  24.499  29.308   9.172  0.2387  0.1872 -0.1391
28996W        W71913  20.143  31.595   9.203  0.2413 -0.0777 -0.0769
28997W        W71914  25.390  27.552   9.439  0.2757  0.0967  0.0065
28998W        W71915  23.508  28.485   8.280 -0.0463  0.0314  0.2929
28999W        W71916  25.760  33.064   7.974  0.1324 -0.0318 -0.1137
29000W        W71917  22.005  28.854   6.689  0.2367 -0.0127 -0.0632
29001W        W71918  22.865  32.172   7.569 -0.3261 -0.0939  0.2458
29002W        W71919  25.464  31.923   8.612 -0.1508 -0.0502  0.1864
29003W        W71920  23.200  31.638   6.933 -0.3560  0.0676  0.2623
29004W        W71921  27.249  32.149   7.701  0.0954 -0.2664 -0.0681
29005W        W71922  24.132  29.539   7.139  0.2571 -0.0027 -0.0376
29006W        W71923  21.950  32.208   8.627 -0.3714 -0.2296 -0.1287
29007W        W71924  22.757  31.444   6.784 -0.2943  0.0765 -0.0792
29008W        W71925  25.547  32.108   8.075 -0.1474 -0.1130  0.0539
29009W        W71926  24.253  29.600   9.590 -0.0679 -0.0310 -0.0775
29010W        W71927  25.801  28.611   7.199  0.0539  0.1873 -0.4992
29011W        W71928  24.032  31.002   9.370 -0.2680  0.0233  0.0025
29012W        W71929  25.279  29.382   6.422  0.0076  0.3088 -0.0822
29013W        W71930  23.527  28.255   9.316  0.0765  0.0112 -0.0235
29014W        W71931  23.281  29.878   6.636  0.1499  0.3462 -0.5553
29015W        W71932  26.848  33.146   7.265  0.0611  0.0559 -0.1096
29016W        W71933  21.676  31.623   9.707  0.0868  0.0394  0.1382
29017W        W71934  21.805  32.222   6.502 -0.1492  0.1509  0.0023
29018W        W71935  24.852  27.361   9.422  0.1874  0.0794  0.2326
29019W        W71936  24.507  30.368   6.508 -0.0333  0.1833 -0.2441
29020W        W71937  23.821  28.866   8.564 -0.1212 -0.2610  0.1553
29021W        W71938  23.018  32.531   7.174 -0.1700 -0.4849 -0.1211
29022W        W71939  24.064  31.451   9.117  0.0369  0.1959 -0.1276
29023W        W71940  24.020  33.133   9.674 -0.0635 -0.2137 -0.1154
29024W        W71941  22.168  29.171   5.678  0.0715  0.1416 -0.3628
29025W        W71942  24.901  28.631   7.164 -0.3168  0.0935 -0.2353
29026W        W71943  22.427  27.389  12.873 -0.0438  0.1191  0.0971
29027W        W71944  21.680  32.959   9.379  0.2375  0.0206  0.0171
29028W        W71945  22.575  28.960   7.469  0.1525 -0.0163 -0.0672
29029W        W71946  24.120  33.087   9.114  0.1258  0.0920  0.0174
29030W        W71947  22.105  28.001   8.911 -0.1322  0.2246 -0.2027
29031W        W71948  22.729  27.306   8.471  0.0967 -0.4127 -0.0666
29032W        W71949  23.966  29.828   8.304 -0.4958  0.3609  0.0417
29033W        W71950  24.299  27.175   7.888 -0.0786  0.1495 -0.3074
29034W        W71951  25.955  28.978   6.314  0.0476 -0.1441  0.1720
29035W        W71952  24.592  31.719   9.206  0.0665 -0.1370  0.0045
29036W        W71953  23.583  27.018   9.082 -0.2442  0.4763  0.2446
29037W        W71954  22.372  30.278   7.366  0.1701 -0.1854  0.1347
29038W        W71955  24.618  32.355   7.891  0.0904 -0.1710  0.2326
29039W        W71956  22.501  31.136   9.224 -0.1882  0.6049 -0.0662
29040W        W71957  22.852  31.299   6.298  0.1072  0.0931 -0.1831
29041W        W71958  26.422  29.315   8.836  0.0195 -0.2600 -0.1829
29042W        W71959  27.298  32.630   8.487 -0.2174  0.1835  0.4659
29043W        W71960  23.210  29.719   7.606 -0.2170  0.2136 -0.0981
29044W        W71961  24.296  30.918   7.430 -0.0492 -0.0169  0.1502
29045W        W71962  26.788  33.845   9.445  0.0074 -0.0596 -0.1424
29046W        W71963  24.693  28.665   6.025  0.0157 -0.0375  0.1542
29047W        W71964  23.264  29.689   7.072 -0.0279  0.1973 -0.2759
29048W        W71965  23.313  32.031   7.315  0.1026  0.2413  0.2907
29049W        W71966  23.971  30.091   8.735  0.0663 -0.1800  0.1650
29050W        W71967  22.460  32.991   6.898  0.1731  0.0069 -0.2974
29051W        W71968  23.060  32.197   8.694  0.4132 -0.0675  0.1624
29052W        W71969  21.143  32.318   5.766  0.2501  0.0232  0.2013
29053W        W71970  22.364  31.532   5.851 -0.1088 -0.2116 -0.0527
29054W        W71971  23.732  32.876   6.880  0.0774  0.0129  0.1570
29055W        W71972  25.650  31.933   9.333  0.2949  0.0781  0.0046
29056W        W71973  23.479  28.086   8.485 -0.0017  0.1258 -0.1809
29057W        W71974  24.088  30.582   8.616 -0.2128 -0.1358 -0.0938
29058W        W71975  23.921  29.111   7.443  0.0334 -0.1580  0.2355
29059W        W71976  24.003  28.696   5.480 -0.0198  0.0689 -0.0867
29060W        W71977  24.269  29.068   5.894 -0.0246  0.0156  0.1169
29061W        W71978  23.669  28.990   9.667 -0.0366  0.1842  0.2845
29062W        W71979  22.136  28.844   7.712 -0.0325 -0.2014 -0.2772
29063W        W71980  21.190  28.878   6.118 -0.1926  0.0028 -0.1237
29064W        W71981  24.312  32.137   9.462 -0.3017 -0.0304  0.2674
29065W        W71982  20.772  28.714   8.338 -0.0543  0.2262 -0.2176
29066W        W71983  23.066  28.167   9.048  0.1314  0.2463 -0.1178
29067W        W71984  26.740  32.278   7.481 -0.1492 -0.3001  0.0466
29068W        W71985  20.759  28.146   7.919  0.0696 -0.1883 -0.1914
29069W        W71986  24.141  30.799   7.894 -0.2868  0.0506 -0.2583
29070W        W71987  21.340  32.233   7.742 -0.1065  0.0935 -0.5718
29071W        W71988  24.369  32.628   9.176 -0.2042  0.0391  0.1924
29072W        W71989  23.224  28.765   7.813 -0.0748 -0.0449  0.0754
29073W        W71990  22.358  31.229   7.060 -0.0158 -0.0379  0.0131
29074W        W71991  21.267  31.186   7.879 -0.0145 -0.0449  0.1376
29075W        W71992  22.906  30.570   7.619  0.1171 -0.0548 -0.1890
29076W        W71993  24.221  33.272   8.664 -0.0141  0.1306 -0.0089
29077W        W71994  20.386  29.292   7.662 -0.1594  0.0692  0.2264
29078W        W71995  23.943  31.235   8.056 -0.0407  0.3045 -0.1778
29079W        W71996  25.131  33.562   6.204 -0.1866 -0.1593 -0.0974
29080W        W71997  23.963  27.614   9.733  0.0799 -0.1093  0.2195
29081W        W71998  22.791  31.553   8.415 -0.1426 -0.1982  0.1168
29082W        W71999  26.574  33.403   6.896 -0.1240  0.5082 -0.0832
29083W        W72000  23.752  28.832   9.059  0.2688 -0.2413  0.0755
29084W        W72001  24.803  26.911   7.789 -0.3429 -0.1280 -0.3053
29085W        W72002  23.180  33.016   9.299 -0.0090  0.0361 -0.1686
29086W        W72003  21.560  31.008   9.245 -0.2143  0.2522 -0.0362
29087W        W72004  25.171  27.572   7.184 -0.1632  0.0503 -0.3116
29088W        W72005  22.362  31.782   8.362  0.1052 -0.1621  0.1244
29089W        W72006  23.337  29.719   8.148  0.2171  0.0114 -0.0301
29090W        W72007  23.768  30.507   7.111  0.0987 -0.2679  0.0683
29091W        W72008  25.605  33.672   8.506  0.1937  0.0223  0.2461
29092W        W72009  22.525  33.004   8.669 -0.0270  0.1154 -0.1591
29093W        W72010  26.100  33.458   8.351 -0.0123  0.1241  0.0650
29094W        W72011  21.517  26.928   6.747 -0.1006 -0.2171  0.1678
29095W        W72012  22.819  31.448   8.958  0.0763 -0.3178  0.1575
29096W        W72013  21.626  31.364   7.553 -0.0464 -0.0419  0.1707
29097W        W72014  25.967  29.138   8.608 -0.0717  0.2149 -0.1798
29098W        W72015  24.627  29.242   9.727 -0.3364 -0.0083 -0.1036
29099W        W72016  26.246  29.169   7.757 -0.0365  0.0583 -0.0955
29100W        W72017  26.274  28.755   8.785 -0.2577 -0.1575  0.0159
29101W        W72018  25.621  29.989   8.941  0.0473 -0.3024 -0.0387
29102W        W72019  21.214   1.798  31.682  0.2480  0.0218  0.1855
29103W        W72020  25.159  33.697  31.155  0.0469  0.4679 -0.0080
29104W        W72021  26.941   0.010   1.321  0.2240  0.1647 -0.0905
29105W        W72022  20.832  33.459   1.841 -0.0212 -0.3020  0.0400
29106W        W72023  22.501  33.483   2.850  0.0676 -0.1048  0.2935
29107W        W72024  22.938  33.816  31.023 -0.1262  0.0544 -0.0776
29108W        W72025  23.408  33.487   2.042 -0.0866 -0.1325  0.0823
29109W        W72026  23.233  33.581   0.006  0.1864 -0.5302 -0.1192
29110W        W72027  22.027  32.779   2.210 -0.0439  0.1841  0.2193
29111W        W72028  26.060   0.045   2.489  0.0485  0.0651  0.1158
29112W        W72029  19.838   1.189   1.620  0.0240 -0.2967 -0.0903
29113W        W72030  22.527  34.406   1.454 -0.0150  0.0141  0.2222
29114W        W72031  23.138  34.309   0.202  0.1903 -0.1420 -0.2116
29115W        W72032  24.646   0.439   0.468  0.0744 -0.0604  0.2170
29116W        W72033  24.458  34.193   4.079  0.0772  0.1363 -0.1860
29117W        W72034  25.340  34.444  29.798 -0.0588  0.1235  0.2583
29118W        W72035  22.765   0.543   2.449  0.0540  0.1266  0.2735
29119W        W72036  23.857  33.749   0.315 -0.1552 -0.1715  0.0760
29120W        W72037  27.127  33.473   1.722 -0.0154  0.1860  0.1627
29121W        W72038  25.399  34.208  31.372 -0.1804  0.0536 -0.0006
29122W        W72039  25.147  33.312   1.657  0.3378  0.0935  0.0905
29123W        W72040  25.592  33.699   1.473  0.1806  0.4142 -0.1311
29124W        W72041  21.902   0.993   1.579 -0.4187 -0.0258 -0.0316
29125W        W72042  25.668   0.138   2.850  0.1042  0.0076  0.0060
29126W        W72043  25.039   1.639  29.723  0.1740  0.1986  0.0129
29127W        W72044  24.639   1.687   0.158 -0.0673 -0.2403  0.3142
29128W        W72045  23.159  32.629  31.134  0.2362  0.0804  0.0996
29129W        W72046  22.378  33.513   1.002 -0.2309 -0.0680  0.1930
29130W        W72047  22.932  34.437   1.741  0.1829 -0.1250 -0.1518
29131W        W72048  23.637   0.792   1.022 -0.1685  0.1398  0.1889
29132W        W72049  22.685   1.902  31.945  0.1603  0.2670 -0.2932
29133W        W72050  20.396  33.925   1.977 -0.0346  0.2569 -0.0090
29134W        W72051  22.260  34.615   0.613 -0.0886  0.0351  0.0483
29135W        W72052  24.006   1.572   4.159  0.1998  0.4163 -0.0509
29136W        W72053  23.668   0.136   2.995  0.2668  0.1690 -0.1417
29137W        W72054  23.972  32.497  31.678 -0.3579 -0.2018  0.2855
29138W        W72055  25.711   0.112   0.383 -0.0714  0.0488 -0.2995
29139W        W72056  25.078  34.320   1.132 -0.1246  0.1885 -0.0369
29140W        W72057  25.055   0.743   0.631 -0.0120 -0.0181 -0.0941
29141W        W72058  25.703  33.698   0.304  0.1257  0.0613 -0.2057
29142W        W72059  23.909  33.485   2.366 -0.0406  0.1051 -0.1575
29143W        W72060  22.039  32.878   3.687 -0.0797  0.0791 -0.2193
29144W        W72061  24.743  32.737   0.420  0.1926 -0.2244  0.0814
29145W        W72062  22.568   0.046   4.812  0.1248  0.3526 -0.1932
29146W        W72063  24.188  32.323   1.892  0.1299 -0.2680 -0.2415
29147W        W72064  24.280  33.218  30.646  0.0872  0.0129 -0.0702
29148W        W72065  22.858  34.086   3.302  0.2105 -0.2718 -0.0960
29149W        W72066  22.815   1.079  31.223 -0.0562 -0.0307 -0.1022
29150W        W72067  24.180  32.865   2.482 -0.4187 -0.0310  0.0251
29151W        W72068  23.500  34.601   2.004  0.1096  0.0699 -0.1932
29152W        W72069  25.217  34.639   2.139 -0.1452  0.0072 -0.1328
29153W        W72070  19.144  34.078   2.502 -0.0206  0.0656  0.0275
29154W        W72071  23.330  31.751   0.016 -0.3742 -0.0006 -0.1470
29155W        W72072  21.227  32.610   3.277  0.0191 -0.0415 -0.0975
29156W        W72073  24.648  33.248   3.138  0.0703 -0.0751  0.2659
29157W        W72074  25.323  34.000   2.386  0.6203  0.0171  0.0919
29158W        W72075  20.969  34.419   0.818 -0.0307  0.2282 -0.1003
29159W        W72076  20.858  32.975   1.323  0.2256  0.0978  0.2373
29160W        W72077  25.620  33.852   3.229 -0.0215  0.0942  0.1642
29161W        W72078  24.366   0.921  31.383  0.1331 -0.0870  0.1016
29162W        W72079  22.042  33.467   0.592 -0.0148  0.1387  0.1338
29163W        W72080  20.789   0.157   0.636 -0.1727  0.3610 -0.1828
29164W        W72081  24.991  32.955  31.909  0.2115 -0.2044 -0.1845
29165W        W72082  21.474   0.318   4.256 -0.0724 -0.0743  0.0577
29166W        W72083  23.970  32.703   2.995  0.0933  0.1458  0.0073
29167W        W72084  22.478  33.797   0.087  0.2188  0.2279  0.2104
29168W        W72085  23.817  33.087  31.576 -0.4505  0.0920  0.0473
29169W        W72086  24.408   1.171   0.178  0.2378 -0.1824  0.3493
29170W        W72087  23.027  33.846   1.659  0.0273  0.2666  0.2126
29171W        W72088  23.137  33.370   0.734 -0.0628 -0.1896  0.0066
29172W        W72089  24.650   1.200  31.707  0.2804  0.2106  0.0466
29173W        W72090  24.380  32.338   0.805 -0.0907 -0.3345  0.1700
29174W        W72091  22.060  34.628   1.518  0.1841  0.2088 -0.0237
29175W        W72092  23.790  33.219   1.781 -0.1409  0.2521 -0.2485
29176W        W72093  26.106  33.599   3.794  0.0412  0.1735  0.0861
29177W        W72094  25.123  33.111   3.247 -0.1320  0.1343  0.2895
29178W        W72095  22.713  33.844   2.558 -0.1474  0.0444 -0.2866
29179W        W72096  23.915   1.215   2.180 -0.0171  0.0320 -0.0998
29180W        W72097  21.954   1.112  31.494 -0.0256  0.0452  0.2375
29181W        W72098  24.904   0.879   3.490 -0.0794  0.1787 -0.0591
29182W        W72099  23.358  34.593   0.591 -0.0083 -0.2414 -0.1931
29183W        W72100  26.271  33.104   1.846  0.0131  0.5303  0.1244
29184W        W72101  24.175  33.438   0.557  0.1033 -0.3553  0.0408
29185W        W72102  22.483  34.351   1.002  0.0903  0.0563  0.2853
29186W        W72103  22.784  31.206   1.776 -0.1783 -0.0324  0.0044
29187W        W72104  26.259  31.700   1.872  0.1254  0.0570 -0.1950
29188W        W72105  22.245  32.993   0.727  0.2702 -0.0879  0.3556
29189W        W72106  21.455   0.427   1.143 -0.1355 -0.0900 -0.3164
29190W        W72107  25.430   0.334  31.943 -0.1626 -0.0208 -0.0083
29191W        W72108  22.565  34.086   1.841 -0.1193  0.0226  0.1534
29192W        W72109  23.925  34.425   1.052  0.1060 -0.1940  0.0954
29193W        W72110  25.172   1.661   4.539  0.0606  0.1869  0.1176
29194W        W72111  22.026  32.355  30.571  0.2525  0.2288 -0.0457
29195W        W72112  22.455  33.181   3.905  0.0885 -0.0252 -0.5340
29196W        W72113  22.164  34.234   0.257  0.2323 -0.0870  0.1767
29197W        W72114  25.572   0.469   3.190 -0.1500  0.0478  0.1833
29198W        W72115  22.099  33.467   1.497  0.3447  0.0156 -0.1667
29199W        W72116  22.433  33.406  29.803 -0.0863  0.1612 -0.1914
29200W        W72117  21.605  34.420   4.677 -0.2561 -0.0718 -0.1968
29201W        W72118  23.514  33.619   1.574 -0.0297 -0.0293  0.0415
29202W        W72119  22.165  33.204   1.950  0.0964  0.0741  0.2057
29203W        W72120  24.345  33.106   0.210 -0.0193  0.0948  0.3845
29204W        W72121  25.513   0.511   1.825 -0.0607  0.1720  0.1016
29205W        W72122  22.727  33.197   2.509 -0.1316 -0.0831 -0.1512
29206W        W72123  24.169   0.113   3.802  0.2434 -0.1431 -0.0257
29207W        W72124  24.786   0.571  31.657  0.1239 -0.2274 -0.0884
29208W        W72125  23.831  31.617  30.154  0.1218  0.1542  0.0967
29209W        W72126  22.875  32.893   0.547  0.2361 -0.1432  0.1183
29210W        W72127  27.955  34.502   2.387 -0.4665 -0.0206  0.0601
29211W        W72128  24.212   1.970   0.014 -0.0192  0.0508 -0.0642
29212W        W72129  25.254  34.191   3.355  0.1848  0.2805 -0.3360
29213W        W72130  24.069  34.586   3.224 -0.1002  0.2190 -0.0082
29214W        W72131  22.092  33.589   3.539  0.0376  0.0515 -0.4456
29215W        W72132  23.776  34.118   6.754 -0.1811 -0.0439 -0.1322
29216W        W72133  22.447   0.594   1.993  0.1078  0.1888  0.0258
29217W        W72134  22.964  32.807   1.322 -0.1226 -0.3715  0.0279
29218W        W72135  22.952  34.195   1.262  0.3026 -0.3018  0.1140
29219W        W72136  23.854  32.079  31.909 -0.2401  0.0322  0.0305
29220W        W72137  22.201   0.439   0.637  0.3596 -0.2159  0.0434
29221W        W72138  24.155  34.450  31.536 -0.1313  0.2682 -0.1921
29222W        W72139  21.836  34.055   4.274 -0.1499 -0.0157  0.0978
29223W        W72140  24.851  33.912   0.869  0.0869 -0.2588 -0.2891
29224W        W72141  24.276  34.047   1.218 -0.1550 -0.1367 -0.0639
29225W        W72142  23.954  34.602   0.467  0.0873 -0.0570 -0.0902
29226W        W72143  23.877  33.686   1.885 -0.0653 -0.0873  0.1763
29227W        W72144  23.014  33.266   5.143 -0.2233 -0.0186 -0.1475
29228W        W72145  23.672  34.209  31.551 -0.1593  0.3069  0.1659
29229W        W72146  25.975   0.554   2.098  0.4335 -0.0397  0.1688
29230W        W72147  26.521   2.110   0.959 -0.0023  0.1805  0.1071
29231W        W72148  23.699   0.106  31.655 -0.1305 -0.1584 -0.1441
29232W        W72149  23.599   0.840   2.322 -0.0911 -0.0347 -0.3158
29233W        W72150  24.345   0.604   3.667 -0.2803  0.1825  0.0410
29234W        W72151  22.763   0.184  30.972  0.1563 -0.2448 -0.3859
29235W        W72152  26.224  33.942   1.351 -0.2211 -0.3881 -0.2771
29236W        W72153  23.917  33.859  31.754  0.0481  0.1723 -0.5330
29237W        W72154  21.815  33.270   3.837 -0.2444  0.0919 -0.0766
29238W        W72155  23.255   0.408  31.119  0.2802  0.3445  0.1289
29239W        W72156  23.545   1.382  31.568 -0.3150  0.1749  0.1851
29240W        W72157  21.808  32.372  31.308  0.0297 -0.0601 -0.0274
29241W        W72158  25.838  32.666   2.726  0.0313  0.0125 -0.0901
29242W        W72159  23.799  32.924   0.137  0.1602 -0.1023 -0.0246
29243W        W72160  25.268  32.379   2.777  0.1469  0.2900 -0.0562
29244W        W72161  23.934  34.024   2.394 -0.2608  0.0202  0.0974
29245W        W72162  25.766  34.173   1.313  0.3108  0.0010 -0.1239
29246W        W72163  26.634   0.262   3.560 -0.2281  0.0305 -0.1595
29247W        W72164  19.850  33.497   2.519 -0.1531 -0.1466  0.3386
29248W        W72165  22.049   0.422   3.841 -0.0549  0.1841 -0.0970
29249W        W72166  23.455  33.306   0.315  0.0748  0.2167 -0.0008
29250W        W72167  23.309  33.231   1.199  0.0299 -0.0691  0.0164
29251W        W72168  22.368   0.463  30.784  0.0026 -0.0516 -0.3070
29252W        W72169  25.319  34.348   1.687 -0.1837 -0.0472  0.3391
29253W        W72170  25.438  33.268   1.237 -0.1385 -0.0827  0.0757
29254W        W72171  23.943   1.013   0.103  0.0945  0.2088 -0.2208
29255W        W72172  22.166  33.309   0.086  0.1286 -0.1788 -0.1152
29256W        W72173  24.616   0.647   3.136 -0.1293 -0.0149 -0.0648
29257W        W72174  23.757  33.153   3.434  0.0964  0.1266 -0.1260
29258W        W72175  23.810   0.987  31.462 -0.1316  0.0002  0.0231
29259W        W72176  21.757  34.513   0.649 -0.0004  0.2354  0.0724
29260W        W72177  25.393  32.907   1.857  0.0068  0.1893  0.3754
29261W        W72178  22.588  31.957   0.448  0.1901 -0.0482 -0.1213
29262W        W72179  21.755  32.892   1.662  0.1314  0.1543  0.4673
29263W        W72180  26.666  33.718   1.403  0.0297  0.0759  0.2989
29264W        W72181  23.884   1.290   5.733 -0.3089 -0.3553  0.0733
29265W        W72182  23.911  33.698   3.281 -0.2391  0.0405 -0.0046
29266W        W72183  20.980  33.623   0.809 -0.1720  0.0156 -0.0862
29267W        W72184  23.290   0.960  31.135 -0.0504  0.2592  0.0876
29268W        W72185  23.113  34.522   2.318 -0.2175 -0.2504 -0.1456
29269W        W72186  22.232   0.630   0.134  0.0736  0.0159 -0.3140
29270W        W72187  25.523   0.595   2.688  0.3598 -0.1408 -0.1592
29271W        W72188  23.185  33.774   1.095 -0.0843 -0.1690 -0.1433
29272W        W72189  23.379  32.237   1.841  0.1691  0.0136  0.0541
29273W        W72190  23.130  32.304   1.370 -0.1129 -0.3301  0.1902
29274W        W72191  21.368   0.938   2.486 -0.0063 -0.0866  0.1794
29275W        W72192  23.889  34.390   3.962 -0.0254  0.0829  0.0136
29276W        W72193  23.466  31.853   0.985 -0.3077 -0.1877  0.3107
29277W        W72194  26.453   0.531   0.737 -0.3657  0.0823 -0.4120
29278W        W72195  23.461  34.611  31.267  0.1720 -0.0569 -0.0622
29279W        W72196  21.857   0.462   1.444 -0.0531 -0.2992  0.2583
29280W        W72197  22.433  31.792  31.874  0.2506 -0.0932 -0.2261
29281W        W72198  24.118   0.761   1.069  0.0611 -0.1956  0.1129
29282W        W72199  23.834   0.288   1.115 -0.1128  0.4104  0.0962
29283W        W72200  23.906  34.185   1.539 -0.2251  0.1786  0.2711
29284W        W72201  25.345  30.571   2.634 -0.0463  0.3156 -0.1040
29285W        W72202  22.255   0.723   1.314  0.0046  0.0386 -0.0574
29286W        W72203  23.253   0.815   1.730  0.0908  0.0713  0.1954
29287W        W72204  26.200   0.447   1.216 -0.3468 -0.2950  0.0483
29288W        W72205  24.613  34.555  31.575  0.1411  0.1984  0.2202
29289W        W72206  23.642  33.771   3.864 -0.2814  0.1384 -0.2679
29290W        W72207  21.178  33.385   2.867  0.1502 -0.1708  0.0081
29291W        W72208  23.801  34.398   5.366  0.1436 -0.1102  0.0275
29292W        W72209  24.828  34.405   3.341 -0.0865  0.4584  0.0363
29293W        W72210  22.854   0.589   1.601 -0.2283  0.0592 -0.0612
29294W        W72211  20.711   0.466  31.251 -0.1908 -0.1941 -0.1126
29295W        W72212  22.940  34.088   2.167 -0.3700 -0.1667 -0.1766
29296W        W72213  21.997  32.556   0.694 -0.0989 -0.2445 -0.0136
29297W        W72214  23.411  34.021   3.229  0.3699 -0.1102 -0.1149
29298W        W72215  23.377  34.296   1.590 -0.2041  0.3140  0.3574
29299W        W72216  23.159  32.778   5.164  0.0537  0.2849 -0.1668
29300W        W72217  22.666  33.069   0.976 -0.1398 -0.0629 -0.2355
29301W        W72218  22.790  32.708   2.355 -0.1699  0.3800  0.1952
29302W        W72219  22.442  33.330   4.474 -0.0644 -0.2753 -0.1336
29303W        W72220  25.646  34.319   2.136  0.1714 -0.0801  0.2861
29304W        W72221  23.298   0.404  31.769 -0.4090 -0.2183 -0.2356
29305W        W72222  22.855  33.929   4.656 -0.4221 -0.0010  0.2724
29306W        W72223  23.558  32.723   1.790  0.0886 -0.2039 -0.1823
29307W        W72224  23.571   0.083   0.134  0.0352  0.0905  0.4495
29308W        W72225  21.505  33.332   1.851 -0.1725  0.0392  0.1011
29309W        W72226  21.845   0.461  30.837 -0.1772 -0.2491  0.2107
29310W        W72227  24.022   0.328   4.769  0.1283 -0.0176  0.2716
29311W        W72228  22.565  33.837   1.343 -0.0198 -0.3145 -0.0730
29312W        W72229  24.196   0.892  30.080  0.1070  0.0831  0.2017
29313W        W72230  21.657  32.356   3.571  0.0463 -0.1006  0.0704
29314W        W72231  21.743  33.202   0.888 -0.0696 -0.1248 -0.0503
29315W        W72232  23.919  33.729   1.292 -0.0685 -0.2530 -0.0669
29316W        W72233  23.559  34.048   1.170  0.1065 -0.0157 -0.3786
29317W        W72234  23.954  33.980   0.836 -0.3423 -0.3097 -0.0463
29318W        W72235  24.855  31.567  31.745  0.0608  0.0672  0.0782
29319W        W72236  23.226   0.196   3.348 -0.1327  0.1143  0.1516
29320W        W72237  25.059   0.378   1.884  0.0677  0.1841 -0.2551
29321W        W72238  23.191   0.032   2.817 -0.0303  0.0402 -0.1478
29322W        W72239  22.749  32.423   3.917  0.3652 -0.2240 -0.4204
29323W        W72240  21.150   0.761   6.999  0.2692 -0.0686  0.1561
29324W        W72241  23.591   1.354   4.408 -0.4915  0.0072  0.0646
29325W        W72242  24.158  32.647   6.572 -0.1498  0.4376 -0.1112
29326W        W72243  23.419  34.187   4.057  0.0256 -0.2438  0.2139
29327W        W72244  22.726  32.852   4.256  0.2068 -0.1614 -0.1222
29328W        W72245  24.807  33.300   5.396 -0.0116  0.1155  0.0207
29329W        W72246  21.771  34.626   8.144  0.0747  0.0163  0.3204
29330W        W72247  23.501  33.850   6.394  0.1234 -0.0617 -0.0276
29331W        W72248  22.727  33.639   4.176  0.0218 -0.0973 -0.1326
29332W        W72249  24.136  32.169   6.668 -0.1896 -0.1861  0.1593
29333W        W72250  23.768  33.414   6.244  0.0190  0.2156 -0.0575
29334W        W72251  22.827  33.612   3.409  0.1114 -0.1338 -0.0491
29335W        W72252  21.233   0.162   3.860  0.0764  0.0584 -0.1982
29336W        W72253  20.711   0.620   6.791  0.1667 -0.2594  0.4554
29337W        W72254  23.744  33.625   6.752 -0.0301 -0.1840 -0.0002
29338W        W72255  25.764  34.221   4.849  0.0096  0.2642 -0.4300
29339W        W72256  24.135  33.768   6.460 -0.2552  0.1428  0.1208
29340W        W72257  24.424  32.954   5.526 -0.2584 -0.1481 -0.1938
29341W        W72258  23.535   0.176   5.222 -0.0911  0.3238  0.4337
29342W        W72259  27.755  31.943   6.152  0.2187  0.0154 -0.2130
29343W        W72260  26.234   0.038   3.713  0.1300  0.2498  0.1362
29344W        W72261  24.809   0.246   2.944 -0.4009  0.1757 -0.0542
29345W        W72262  23.337   1.690   3.014  0.0633  0.1274 -0.0129
29346W        W72263  24.824  32.882   5.123 -0.1085  0.0400 -0.0328
29347W        W72264  22.997   0.455   4.642  0.2362 -0.0498  0.1834
29348W        W72265  22.434   0.761   5.460 -0.2626 -0.0354 -0.1707
29349W        W72266  24.231  33.952   5.791  0.0945  0.2838  0.3423
29350W        W72267  22.065   0.984   5.951  0.0014  0.1703  0.0088
29351W        W72268  21.782  34.574   4.152  0.1731  0.1607 -0.0442
29352W        W72269  24.196  34.206   4.831  0.1000  0.1804  0.0416
29353W        W72270  21.588  34.269   5.654  0.1861  0.0640  0.1198
29354W        W72271  21.905  31.143   2.587 -0.1968 -0.1440  0.0258
29355W        W72272  24.000  32.315   6.135 -0.2545 -0.1659  0.1991
29356W        W72273  25.742   0.373   4.893 -0.0247 -0.1473 -0.0818
29357W        W72274  25.475  32.580   6.885 -0.1118 -0.1683  0.1778
29358W        W72275  24.271   0.272   2.828 -0.0231 -0.0130  0.2721
29359W        W72276  25.011  32.187   6.160  0.0271  0.1556 -0.3918
29360W        W72277  22.569  32.497   5.830  0.2589  0.1190 -0.0099
29361W        W72278  24.381  31.481   5.770 -0.0418 -0.0947  0.2059
29362W        W72279  23.255  31.768   5.674 -0.1665  0.0586 -0.0310
29363W        W72280  24.831   0.662   3.991  0.3794  0.1344  0.0930
29364W        W72281  24.814   0.579   5.384 -0.1755  0.1397 -0.1901
29365W        W72282  21.564  34.152   6.539 -0.2709  0.1065 -0.2113
29366W        W72283  19.791  33.422   4.472  0.1643  0.1550 -0.2260
29367W        W72284  20.744  33.765   6.057 -0.2025  0.3119  0.0841
29368W        W72285  21.029  33.497   4.273 -0.0428  0.0345 -0.0483
29369W        W72286  25.588   1.775   4.917 -0.0684 -0.2487 -0.2903
29370W        W72287  20.643  31.587   4.437 -0.1485  0.0787 -0.0129
29371W        W72288  23.530  33.067   5.390  0.2171 -0.1610 -0.1755
29372W        W72289  22.732   0.781   4.301  0.0753 -0.0212 -0.0562
29373W        W72290  27.803  33.348   6.247  0.1099  0.2148 -0.0103
29374W        W72291  22.813  33.750   5.691 -0.0767  0.2812  0.2844
29375W        W72292  20.190  31.419   4.475 -0.1403 -0.2127  0.0446
29376W        W72293  24.746   0.408   4.499  0.0998  0.0754  0.2890
29377W        W72294  23.548  33.597   5.205  0.0205  0.1802  0.3177
29378W        W72295  24.260   0.523   4.319 -0.0371 -0.2920 -0.1576
29379W        W72296  23.057   0.018   4.341  0.0576  0.2835  0.0308
29380W        W72297  21.280   1.179   3.016 -0.1647 -0.2806 -0.2557
29381W        W72298  24.208  33.249   6.424  0.2523  0.0677 -0.2247
29382W        W72299  23.455  33.795   9.047 -0.1971 -0.0135  0.0787
29383W        W72300  23.244   0.201   6.449  0.0048 -0.1753 -0.3032
29384W        W72301  23.135  34.218   2.827  0.2104  0.0190 -0.1269
29385W        W72302  23.518  33.089   3.023  0.1600 -0.2348 -0.1331
29386W        W72303  23.977  33.117   5.788  0.2958  0.2333  0.2687
29387W        W72304  23.149  34.413   3.626 -0.0205  0.0760 -0.0543
29388W        W72305  24.176   0.823   5.894  0.0076 -0.0232 -0.0122
29389W        W72306  27.415  32.597   1.723  0.0932  0.0856  0.0078
29390W        W72307  24.274  31.925   6.218 -0.0410 -0.0286 -0.1205
29391W        W72308  23.113  33.030   2.167  0.1865  0.1142  0.1105
29392W        W72309  23.059  33.371   6.059  0.0363 -0.0535 -0.0078
29393W        W72310  22.641  34.215   6.862  0.1624  0.1133 -0.1377
29394W        W72311  23.686  31.107   6.275  0.3224  0.0753 -0.3258
29395W        W72312  23.216  32.150   6.772 -0.0816 -0.0379 -0.0840
29396W        W72313  28.318   0.501   6.737  0.1016  0.2550 -0.1322
29397W        W72314  25.101   0.245   3.954  0.0278 -0.4485 -0.2327
29398W        W72315  23.009   0.246   3.794 -0.0138  0.1338 -0.1261
29399W        W72316  22.226  32.202   4.176 -0.1256 -0.0688  0.0617
29400W        W72317  24.383  34.665   4.882 -0.1187  0.0801  0.0188
29401W        W72318  25.471  33.358   7.748  0.5727  0.1967 -0.1410
29402W        W72319  23.784   0.772   4.485 -0.0195 -0.1583  0.0671
29403W        W72320  25.148  32.521   5.078  0.2604  0.0019 -0.1568
29404W        W72321  22.874  33.653   6.372 -0.0934 -0.4704 -0.0742
29405W        W72322  23.778  33.074   0.792 -0.3580 -0.4312  0.0651
29406W        W72323  22.347   0.920   4.990 -0.0821 -0.0577 -0.1890
29407W        W72324  26.540   0.303   4.155  0.1549  0.0521  0.1441
29408W        W72325  22.941  34.107   6.165 -0.2971  0.1812  0.2981
29409W        W72326  22.348  32.687   6.495  0.0425 -0.2982  0.1743
29410W        W72327  23.150  34.546   5.998  0.2900 -0.1628  0.0138
29411W        W72328  24.429   0.187   3.349 -0.0560 -0.1994  0.1001
29412W        W72329  24.000   0.751   7.380 -0.0194  0.0442  0.0855
29413W        W72330  22.588   0.524   3.617 -0.2149  0.0833  0.1243
29414W        W72331  23.987  34.369   6.330  0.2173  0.2084  0.2576
29415W        W72332  22.566  33.417   5.919 -0.1396  0.2049 -0.0497
29416W        W72333  23.475  33.311   3.847  0.0153 -0.2431  0.0321
29417W        W72334  24.900  31.801   7.323 -0.1419 -0.2086 -0.1414
29418W        W72335  23.546  32.547   6.101  0.0110 -0.0450  0.0649
29419W        W72336  21.559  33.941   4.720  0.0695  0.0192  0.1145
29420W        W72337  22.635   0.122   6.197 -0.0727 -0.0912 -0.1476
29421W        W72338  22.553  33.017   7.720 -0.1418  0.1262 -0.0140
29422W        W72339  22.452  31.614   6.349  0.1567  0.0668  0.1418
29423W        W72340  25.089   0.887   7.190  0.3053 -0.0540  0.1031
29424W        W72341  23.860   0.589   3.904  0.0552  0.0823 -0.1088
29425W        W72342  23.493   0.070   3.959 -0.4723  0.0385  0.1759
29426W        W72343  24.465  34.103   6.220 -0.3962  0.1207  0.2736
29427W        W72344  25.737  32.967   6.907  0.2021 -0.3177 -0.1998
29428W        W72345  25.788   1.337   3.545  0.2636 -0.2233  0.0321
29429W        W72346  23.706  31.453   6.682  0.1373 -0.0135  0.0351
29430W        W72347  23.041  32.244   5.838  0.1552 -0.3987 -0.2467
29431W        W72348  22.031  33.986   4.853  0.4140 -0.0032  0.1354
29432W        W72349  22.181   0.644   7.484  0.1054  0.1464  0.0584
29433W        W72350  25.281  33.216   3.844  0.0020 -0.0659  0.1085
29434W        W72351  23.852  34.165   3.028 -0.1241 -0.0416  0.2638
29435W        W72352  24.590   0.383   6.690  0.1832  0.1126 -0.0144
29436W        W72353  26.132  34.251   6.107 -0.1068 -0.1459 -0.1089
29437W        W72354  23.049   0.163   5.116  0.1146 -0.0589  0.2395
29438W        W72355  23.461   2.543   4.143  0.1995  0.2282 -0.3655
29439W        W72356  21.693  32.630   8.404  0.0904 -0.5908 -0.1042
29440W        W72357  24.583  31.977   5.863  0.2891  0.1698 -0.0683
29441W        W72358  26.584  34.162   6.313  0.1258  0.1949  0.0063
29442W        W72359  24.460   1.014   6.373  0.0591  0.0272  0.0372
29443W        W72360  23.380  33.625   8.579 -0.2252  0.5135 -0.1550
29444W        W72361  20.831   0.176   7.714  0.0233  0.2546 -0.2677
29445W        W72362  24.863   0.156   4.992 -0.0998 -0.1220 -0.2141
29446W        W72363  28.541  34.010   6.437 -0.0664 -0.0085  0.0489
29447W        W72364  25.850   1.083   5.661  0.1917 -0.2188  0.4248
29448W        W72365  24.793  33.360   3.676  0.1523  0.0254  0.0809
29449W        W72366  22.890  33.450   4.725  0.0334  0.1902 -0.3083
29450W        W72367  26.736  34.651   4.442  0.1700 -0.1363  0.1320
29451W        W72368  20.966  32.971   3.731 -0.0605  0.0881  0.0529
29452W        W72369  23.043  32.728   7.632  0.0277 -0.1557 -0.0721
29453W        W72370  22.923  34.201   4.273 -0.1708 -0.0156 -0.3666
29454W        W72371  21.780  33.966   5.288  0.0070 -0.0532 -0.0709
29455W        W72372  22.768  32.842   3.631 -0.0806 -0.1786  0.2599
29456W        W72373  24.200   0.950   4.921 -0.1541  0.2103 -0.2134
29457W        W72374  23.419  33.536   3.385 -0.1890 -0.0333 -0.0635
29458W        W72375  24.885  33.631   5.777  0.0617  0.0917 -0.0283
29459W        W72376  24.124  31.387   4.489 -0.4173 -0.0922  0.1275
29460W        W72377  23.201  32.885   6.778 -0.0601  0.3483  0.1602
29461W        W72378  24.850  33.141   5.995 -0.0287  0.1356  0.0016
29462W        W72379  24.605  33.576   6.225  0.2818 -0.2650  0.3554
29463W        W72380  25.209  33.728   5.361  0.1668 -0.2176  0.1024
29464W        W72381  21.901  33.604   4.535  0.0624 -0.0503  0.0374
29465W        W72382  21.372  33.180   7.212 -0.1536 -0.2518  0.1732
29466W        W72383  24.954  32.558   3.099 -0.0319 -0.2734 -0.0731
29467W        W72384  22.240  34.311   4.042  0.2366  0.0014 -0.0604
29468W        W72385  26.633  31.566   2.887 -0.0907 -0.1500  0.1207
29469W        W72386  23.727  33.597   5.776  0.1500  0.1276 -0.1927
29470W        W72387  25.932  33.352   3.389 -0.1973 -0.3203  0.3273
29471W        W72388  22.473  32.850   5.459  0.1102  0.1545 -0.2157
29472W        W72389  24.831  33.176   4.127 -0.0827 -0.2108 -0.2358
29473W        W72390  23.255   1.241   6.437 -0.3505  0.1663  0.0462
29474W        W72391  24.332  32.031   8.588  0.0826 -0.2795 -0.2188
29475W        W72392  22.524  34.520   4.351 -0.1057 -0.0129 -0.2656
29476W        W72393  22.158  33.545   5.234 -0.2005  0.1080  0.0131
29477W        W72394  24.662  32.491   6.830 -0.0887  0.2878 -0.0556
29478W        W72395  22.243  33.529   6.954 -0.1758 -0.4791  0.0263
29479W        W72396  20.818  33.347   4.712 -0.0691  0.2735 -0.0022
29480W        W72397  24.065  32.772   5.230  0.0773 -0.0531 -0.0754
29481W        W72398  22.440  33.814   6.575 -0.1126 -0.1367 -0.0817
29482W        W72399  25.545  34.030   6.291  0.0398 -0.1239  0.1107
29483W        W72400  24.767  33.468   4.520 -0.1898 -0.4447  0.1111
29484W        W72401  25.348   1.955   3.998 -0.0950  0.2383  0.1583
29485W        W72402  22.193  33.871   5.675  0.0498  0.1567 -0.0047
29486W        W72403  24.086   1.174   4.441  0.0732  0.0762  0.0738
29487W        W72404  24.836   0.383   7.083 -0.3034 -0.0965 -0.0202
29488W        W72405  24.448   0.310   1.792 -0.3055 -0.2293 -0.0577
29489W        W72406  22.022  33.134   4.288 -0.0446  0.2708  0.2273
29490W        W72407  25.261  32.976   4.291 -0.1782 -0.0760 -0.1284
29491W        W72408  22.376   1.512   5.841  0.0747  0.1175 -0.2672
29492W        W72409  24.571  33.104   7.346  0.2635  0.3757  0.0133
29493W        W72410  24.279  32.126   3.936  0.2217 -0.2916 -0.0535
29494W        W72411  24.522   0.574   4.960 -0.1021  0.0722 -0.2439
29495W        W72412  25.300  34.449   3.888 -0.1739  0.2718 -0.1436
29496W        W72413  22.203  31.605   4.711 -0.2491 -0.2177 -0.2321
29497W        W72414  24.460  32.392   3.209 -0.0015 -0.0606 -0.0432
29498W        W72415  22.864  33.898   7.244 -0.0982 -0.2756  0.1543
29499W        W72416  25.720   0.252   7.134 -0.3050 -0.0621 -0.3121
29500W        W72417  26.790  31.383   5.693  0.0846  0.2020 -0.3292
29501W        W72418  26.489  32.131   8.314  0.1605  0.0941 -0.0832
29502W        W72419  23.859   1.057   4.039  0.0494  0.2737 -0.1894
29503W        W72420  23.254  32.215   5.326 -0.1160 -0.1811 -0.1369
29504W        W72421  25.343  32.563   4.554  0.0337 -0.0349  0.0122
29505W        W72422  23.974  32.865   4.253  0.3605 -0.0516  0.0520
29506W        W72423  22.854  34.669   5.621 -0.1081  0.3746  0.0786
29507W        W72424  20.764   0.503   5.350 -0.1223 -0.0126  0.1069
29508W        W72425  25.008  32.825   7.007 -0.0152 -0.0483  0.2229
29509W        W72426  21.718  33.375   7.509  0.2647  0.0734  0.1207
29510W        W72427  21.164  34.353   4.812  0.0943  0.2536 -0.2975
29511W        W72428  23.725  34.030   4.946  0.1495  0.0013 -0.1839
29512W        W72429  22.659  32.030   5.594  0.1121 -0.3744 -0.2316
29513W        W72430  23.926  34.077   4.491  0.3091  0.0710  0.1925
29514W        W72431  21.927  33.037   6.050 -0.0085 -0.2051 -0.0040
29515W        W72432  23.950  31.141   5.807 -0.1000  0.3880 -0.1188
29516W        W72433  24.406  32.784   8.709 -0.3394  0.2578  0.0780
29517W        W72434  23.614  34.496   4.410 -0.0120 -0.1120  0.0289
29518W        W72435  23.059  32.742   6.094  0.1467 -0.4547 -0.0520
29519W        W72436  21.810  33.930   7.363 -0.0864  0.0669  0.0438
29520W        W72437  26.514  32.571   5.766 -0.0087 -0.1083  0.1241
29521W        W72438  22.825  32.418   6.344 -0.0788 -0.3810  0.0271
29522W        W72439  23.138  33.445   7.587 -0.1732 -0.2160 -0.0408
29523W        W72440  25.452  33.428   4.457  0.4079  0.0427 -0.0112
29524W        W72441  25.791  34.490   3.283 -0.0750 -0.0036 -0.2650
29525W        W72442  21.160  34.431   5.408  0.0895  0.2365 -0.1346
29526W        W72443  22.653  32.678   4.974 -0.0960 -0.0111 -0.0292
29527W        W72444  24.264   2.614   6.133 -0.0428 -0.0208  0.1794
29528W        W72445  24.921  34.206   4.194 -0.2599 -0.1846 -0.0956
29529W        W72446  24.605   0.202   4.064  0.0330 -0.1083  0.0829
29530W        W72447  20.858  33.555   6.552  0.1375 -0.2151  0.0095
29531W        W72448  22.384  34.586   3.141  0.1660 -0.1188  0.0665
29532W        W72449  23.348  33.851   5.966 -0.0080 -0.1015 -0.1743
29533W        W72450  25.552   0.199   5.679  0.1081  0.0084  0.1290
29534W        W72451  25.708  31.854   5.039 -0.3390 -0.0940  0.1437
29535W        W72452  25.303  34.004   5.807 -0.0460  0.0901 -0.0834
29536W        W72453  22.962   2.486   8.985 -0.1148 -0.0230  0.0121
29537W        W72454  26.146  32.778   6.620 -0.2919 -0.0854 -0.0039
29538W        W72455  25.192  33.160   7.356  0.3804 -0.0915 -0.2380
29539W        W72456  21.257   0.021   9.555 -0.3138 -0.0898  0.0548
29540W        W72457  23.620  33.906   8.066  0.1816  0.0940 -0.1031
29541W        W72458  24.058  32.413   8.791 -0.0673 -0.2645 -0.1831
29542W        W72459  21.840  31.016   7.163  0.1387  0.0508 -0.0322
29543W        W72460  20.853  31.614   8.548  0.4190 -0.2031 -0.1616
29544W        W72461  25.119  34.481   8.483 -0.0456  0.1455  0.0450
29545W        W72462  22.241   1.136   8.242 -0.2234 -0.0816 -0.0780
29546W        W72463  19.300   0.815   8.780 -0.1460 -0.3238 -0.1485
29547W        W72464  22.127   0.089   6.276  0.0123  0.1329 -0.0013
29548W        W72465  20.669   0.979   9.069  0.0453  0.3893 -0.0819
29549W        W72466  22.740  33.493   6.804  0.0793 -0.1915  0.2181
29550W        W72467  21.954  33.574   7.945 -0.0622 -0.1325  0.1515
29551W        W72468  20.906   2.076   8.479  0.4244 -0.2303  0.3844
29552W        W72469  25.324  32.825   8.752  0.0909 -0.2225 -0.0768
29553W        W72470  24.503   2.467   7.849 -0.2995  0.2239  0.0805
29554W        W72471  25.893   1.050   8.484 -0.1679  0.1309  0.1307
29555W        W72472  23.033  33.980   8.690  0.0324  0.1978  0.1518
29556W        W72473  25.662  32.928   7.430 -0.2648 -0.0528 -0.0185
29557W        W72474  22.319  31.055   6.079  0.0625 -0.0672  0.0372
29558W        W72475  23.840  32.068   7.497  0.1440 -0.0976  0.2278
29559W        W72476  24.338  33.824   8.561 -0.2701  0.3266 -0.0854
29560W        W72477  24.020  31.605   8.582  0.2961 -0.3669 -0.0792
29561W        W72478  24.996  33.433   6.856  0.0598  0.2109 -0.1099
29562W        W72479  29.142  33.801  13.127 -0.1316  0.1469  0.0392
29563W        W72480  21.185   0.506   8.411 -0.0352  0.2614  0.1088
29564W        W72481  21.317  34.283   9.067 -0.4369  0.1052 -0.2012
29565W        W72482  21.535  33.356   5.988 -0.0197 -0.1065 -0.0517
29566W        W72483  24.198  33.487   5.969 -0.1275  0.0559 -0.1132
29567W        W72484  28.924   0.798   8.239 -0.0740  0.2590 -0.1550
29568W        W72485  23.985  33.006   7.420  0.2276 -0.0413  0.3722
29569W        W72486  24.534   0.100   5.440 -0.0034 -0.2909 -0.0715
29570W        W72487  22.828  33.432   8.563 -0.1516 -0.1036  0.1065
29571W        W72488  24.950  34.002   6.215  0.1864 -0.2267  0.4283
29572W        W72489  25.534   0.902   7.441 -0.1435  0.1639  0.0176
29573W        W72490  25.816  33.436   7.384  0.0292 -0.0084 -0.0471
29574W        W72491  22.668  32.497   8.707  0.2944 -0.0080 -0.4305
29575W        W72492  23.089  33.649   9.496 -0.0893 -0.0059  0.5473
29576W        W72493  22.512  32.013   7.905 -0.0594 -0.1962  0.1076
29577W        W72494  22.703  31.089   7.524  0.0992 -0.0391  0.0762
29578W        W72495  24.287   0.173   7.737  0.1333 -0.3368 -0.2309
29579W        W72496  21.502   0.035   9.044 -0.1392 -0.0417  0.0860
29580W        W72497  23.945  32.723   9.436 -0.0781 -0.1216 -0.1251
29581W        W72498  21.680  33.848   8.272 -0.0614  0.2028 -0.0040
29582W        W72499  22.020  34.075   6.400 -0.1512  0.2256 -0.0828
29583W        W72500  26.441  33.568   9.653  0.5421  0.0022  0.0326
29584W        W72501  22.388   0.175   7.344 -0.1056 -0.0848 -0.2198
29585W        W72502  23.686   1.077   6.604 -0.3748 -0.0584  0.2173
29586W        W72503  26.196  33.040   8.601 -0.0047  0.1744 -0.5366
29587W        W72504  23.904  33.950   7.615 -0.1843 -0.2609  0.4789
29588W        W72505  24.491  31.121   9.049  0.2491 -0.0737  0.1683
29589W        W72506  24.111  33.212   6.945 -0.2336  0.0813 -0.2502
29590W        W72507  24.646   1.222   7.364  0.2777 -0.0746 -0.0283
29591W        W72508  25.858  32.009   6.094  0.0781 -0.2860 -0.3212
29592W        W72509  22.979  33.875   8.191 -0.1731  0.1287 -0.2026
29593W        W72510  26.639  34.310   9.046 -0.1870  0.0323  0.1330
29594W        W72511  21.991   1.881   7.107 -0.1929  0.4157  0.0932
29595W        W72512  22.816  31.952   7.088  0.2415 -0.1080 -0.0951
29596W        W72513  26.095  33.829   7.477  0.1340  0.1107  0.3244
29597W        W72514  25.378  33.743   8.068  0.3699 -0.1951 -0.0194
29598W        W72515  24.183  34.346   7.848 -0.0781 -0.0443  0.3532
29599W        W72516  27.220  33.359  10.103  0.1434 -0.1533 -0.1935
29600W        W72517  22.354  32.139   6.555 -0.1962  0.0682  0.0961
29601W        W72518  23.518  34.283   8.921  0.0791  0.1027  0.2657
29602W        W72519  22.469  33.414   8.045  0.2193 -0.2089  0.3056
29603W        W72520  25.830  28.764   8.239  0.0366 -0.0851 -0.1012
29604W        W72521  24.469  34.528   9.432 -0.1352 -0.1295 -0.3507
29605W        W72522  23.545  34.383   7.699 -0.0168 -0.0118 -0.2875
29606W        W72523  21.363  32.684   7.931 -0.1908 -0.2011 -0.1913
29607W        W72524  24.334  31.723   8.198  0.0582 -0.2344  0.0996
29608W        W72525  22.674   0.871   8.318  0.4635  0.0620  0.2486
29609W        W72526  23.274  33.130   8.464 -0.1087  0.0402 -0.2838
29610W        W72527  24.388  33.451   7.776  0.0382 -0.0568  0.0571
29611W        W72528  21.142   0.339   6.714 -0.3136  0.1646 -0.1205
29612W        W72529  27.536  33.796   6.800 -0.0540 -0.1260 -0.0889
29613W        W72530  22.633  33.447   9.961 -0.0241  0.0123 -0.0314
29614W        W72531  23.429   0.087   7.343 -0.0230  0.0632 -0.4052
29615W        W72532  24.430   0.299   8.584 -0.0526  0.2075  0.0767
29616W        W72533  23.880  33.479   8.319 -0.0386  0.2176 -0.0069
29617W        W72534  23.658  31.582   8.273 -0.0353  0.0150  0.1809
29618W        W72535  24.400  33.901   8.067 -0.1043 -0.0320  0.0634
29619W        W72536  24.695  33.835   8.930  0.1626  0.2736  0.1358
29620W        W72537  24.009  34.183   8.277  0.1289  0.0520  0.1467
29621W        W72538  21.970  33.436   9.328 -0.1287  0.1185 -0.0403
29622W        W72539  23.142  31.502   7.387 -0.2158  0.1266 -0.2502
29623W        W72540  24.783  33.619   8.264  0.0433  0.0462 -0.0142
29624W        W72541  25.970   0.662   7.303 -0.1161 -0.1744  0.1573
29625W        W72542  23.002  32.639   9.713 -0.1722 -0.1819  0.2880
29626W        W72543  23.748  33.295   8.795  0.0334 -0.1658  0.0839
29627W        W72544  22.764  33.268   9.401 -0.1988 -0.0520  0.0991
29628W        W72545  22.375  30.261  13.123  0.2133 -0.0805 -0.1473
29629W        W72546  26.719  34.007   7.420  0.1209 -0.0874 -0.1422
29630W        W72547  24.100   1.667   8.770  0.0481  0.1911  0.0980
29631W        W72548  26.009  34.331   7.683 -0.1459 -0.1475 -0.2628
29632W        W72549  22.187  33.832   9.101 -0.1295 -0.1659 -0.0941
29633W        W72550  24.307   0.735   5.386  0.0062 -0.0241 -0.1383
29634W        W72551  28.630  32.967   9.733 -0.1469  0.1656  0.0980
29635W        W72552  26.794  34.606   8.577  0.0592  0.0719 -0.2487
29636W        W72553  26.360   1.104   7.268  0.0836  0.5068  0.1979
29637W        W72554  23.888  33.669   9.470  0.1817 -0.0120 -0.1340
29638W        W72555  22.697  34.542   9.411 -0.0212 -0.0612 -0.0745
29639W        W72556  24.773  32.180   8.440 -0.4331  0.0893 -0.1181
29640W        W72557  22.270  30.731   7.092 -0.1675  0.1260 -0.3527
29641W        W72558  21.770  32.741   6.403 -0.0148 -0.0682  0.0564
29642W        W72559  22.462  33.916   6.078 -0.0067  0.2468 -0.1465
29643W        W72560  25.580  34.134   8.651 -0.0400  0.0500  0.0998
29644W        W72561  26.848  33.948   8.088  0.1463 -0.1226  0.0260
29645W        W72562  25.250  30.666   8.628 -0.0054 -0.3996 -0.1361
29646W        W72563  25.837  33.496   9.398  0.2724  0.2838  0.1151
29647W        W72564  24.896  32.951   8.482  0.3433  0.0461 -0.3052
29648W        W72565  26.906  32.422   8.108  0.1181  0.0395  0.0984
29649W        W72566  22.969  32.754   8.400  0.0377 -0.0106 -0.0372
29650W        W72567  22.480  34.020   8.171 -0.1289 -0.1588  0.0695
29651W        W72568  23.365  33.911   7.670  0.0176  0.2140 -0.1339
29652W        W72569  26.303  34.310   8.717  0.0592 -0.1428 -0.0504
29653W        W72570  25.800  34.439   8.905  0.0865 -0.1933  0.2051
29654W        W72571  26.022  32.713   8.189 -0.0167 -0.1422 -0.1275
29655W        W72572  22.569  32.660   7.381  0.1458 -0.1609  0.1978
29656W        W72573  22.029  33.970   8.612  0.1273  0.0956 -0.1716
29657W        W72574  24.479  33.091   8.274  0.0795  0.0441 -0.3727
29658W        W72575  31.215  31.687   8.125  0.2010  0.1212  0.0313
29659W        W72576  26.378  34.002   7.809 -0.0861 -0.1571  0.2053
29660W        W72577  22.826  34.400   8.291  0.2064 -0.0019 -0.0718
29661W        W72578  25.728  34.146   6.725 -0.3057  0.2013 -0.0463
29662W        W72579  19.375   0.725   9.366 -0.0125  0.0134 -0.2393
29663W        W72580  23.064  33.436   9.003 -0.0949  0.0390 -0.3213
29664W        W72581  26.959  32.520   7.063  0.2625 -0.0260 -0.2743
29665W        W72582  20.900  31.454   8.090  0.1695  0.0508 -0.0259
29666W        W72583  23.325  32.851   7.978 -0.0241 -0.1526 -0.0826
29667W        W72584  24.583   0.000   7.378  0.1273  0.2966 -0.1509
29668W        W72585  21.708   1.067   9.098 -0.3329 -0.0250  0.0847
29669W        W72586  24.097  33.566   7.350  0.2632  0.3212 -0.0411
29670W        W72587  20.627  34.291   8.375 -0.3092 -0.1756 -0.1292
29671W        W72588  24.858  32.653   8.907  0.0848  0.0403 -0.1945
29672W        W72589  25.015  30.298   8.848 -0.0949 -0.0686 -0.1236
29673W        W72590  25.108  34.550   7.407 -0.4432  0.2146 -0.0765
29674W        W72591  24.168   0.568   6.329 -0.2580  0.2388 -0.0291
29675W        W72592  23.746   0.034   9.150  0.1418 -0.0385 -0.2489
29676W        W72593  23.708  34.385   7.237 -0.0322  0.0987 -0.0562
29677W        W72594  24.392   1.254   8.606  0.0343  0.1036 -0.0175
29678W        W72595  26.640  33.305   8.512  0.0316 -0.2024 -0.1002
29679W        W72596  23.126   0.615   8.338  0.1294 -0.1780 -0.0630
29680W        W72597  23.493  31.871   7.863 -0.0957 -0.3733 -0.1257
29681W        W72598  25.991  33.913   8.820  0.1607 -0.1891  0.0033
29682W        W72599  25.319  34.590   8.968 -0.1451 -0.0338 -0.2039
29683W        W72600  21.375  32.782   9.716 -0.0620 -0.1291  0.3963
29684W        W72601  22.147   0.351   6.709  0.1916  0.0695  0.3548
29685W        W72602  20.475  34.561   7.564  0.1672 -0.1692 -0.1933
29686W        W72603  23.083  34.277   7.889  0.2020  0.2761  0.1001
29687W        W72604  23.885  32.085   8.397  0.1803  0.0284 -0.0906
29688W        W72605  20.904  33.438   7.386 -0.0828  0.2739 -0.1563
29689W        W72606  25.765  32.105   7.529  0.1524 -0.0625 -0.1975
29690W        W72607  21.492   0.018   6.943  0.1989  0.0668  0.1894
29691W        W72608  26.103  32.839   7.721  0.0888  0.0836  0.3088
29692W        W72609  23.098  31.150   8.681 -0.1336  0.0443 -0.5132
29693W        W72610  25.671  34.341   7.317 -0.0496 -0.1282 -0.1447
29694W        W72611  26.006  34.571   6.799  0.0151  0.1139 -0.2133
29695W        W72612  22.211  33.499   7.507  0.0492  0.1108 -0.0976
29696W        W72613  23.802  32.713   9.939 -0.0196  0.2197 -0.1906
29697W        W72614  24.572  32.212   8.957 -0.1072 -0.3317  0.0565
29698W        W72615  23.837  34.619   6.751  0.3895  0.1525 -0.0927
29699W        W72616  22.910  33.165   8.020  0.0143  0.0379  0.1970
29700W        W72617  25.960   1.916   7.870 -0.2851 -0.2581 -0.2091
29701W        W72618  22.043  32.051   7.972 -0.1056 -0.0731 -0.3605
29702W        W72619  22.566  34.401   7.861 -0.1838  0.1624 -0.1303
29703W        W72620  25.275  34.091   7.001 -0.2342  0.2393  0.1320
29704W        W72621  27.044  33.790   7.062 -0.0260  0.0897 -0.0614
29705W        W72622  22.267  33.400   8.467  0.0564  0.0768  0.1788
29706W        W72623  24.037  32.350   7.112 -0.1024  0.0088  0.2814
29707W        W72624  25.709   2.338   2.983 -0.2200 -0.0196  0.1530
29708W        W72625  26.715   2.442   2.132  0.3814  0.0417  0.0985
29709W        W72626  29.719   2.029   1.984  0.2869  0.0859 -0.0085
29710W        W72627  29.198   1.338   0.764  0.3037 -0.0643  0.1660
29711W        W72628  24.609   1.296  31.137 -0.0350  0.3578  0.1172
29712W        W72629  28.515   3.253   0.437 -0.2433 -0.1460 -0.1250
29713W        W72630  26.184   0.191   1.656 -0.2170  0.2232  0.3713
29714W        W72631  29.732   2.967   2.159  0.0797 -0.0163 -0.2813
29715W        W72632  27.507   1.848   1.046  0.1459  0.0454  0.1812
29716W        W72633  25.883   3.659   0.443  0.1768 -0.0586  0.0282
29717W        W72634  27.079   3.069   3.732 -0.1090 -0.3717 -0.0473
29718W        W72635  27.874   2.706   1.692  0.1120  0.0134  0.0572
29719W        W72636  27.092  34.276  30.099 -0.1915 -0.3564 -0.2044
29720W        W72637  25.420   1.097   2.355 -0.0404 -0.0192 -0.1437
29721W        W72638  29.406   1.526   3.865  0.0436 -0.2836  0.1480
29722W        W72639  24.820   3.126   2.400 -0.0869  0.0381  0.1276
29723W        W72640  27.190   0.688   2.339 -0.1347 -0.0131  0.3002
29724W        W72641  28.073   2.117   1.742 -0.0377 -0.0613  0.1467
29725W        W72642  27.862   4.715   0.704 -0.2165 -0.0840  0.1078
29726W        W72643  27.697   1.558   2.026  0.1907 -0.0640  0.1260
29727W        W72644  27.435   0.464   3.144 -0.0261  0.1719 -0.2040
29728W        W72645  25.149   3.196   1.801  0.1234  0.0052  0.0269
29729W        W72646  26.613   1.216   2.465  0.0972 -0.1339  0.0368
29730W        W72647  24.010   2.552   0.514 -0.0836  0.4098 -0.0401
29731W        W72648  26.749   3.771   2.622 -0.1329 -0.0119 -0.0535
29732W        W72649  29.147  34.237   1.046  0.1349 -0.3692  0.1448
29733W        W72650  30.126   1.699  31.096 -0.1714  0.1848 -0.0291
29734W        W72651  26.830   2.096   2.507  0.0075  0.0008 -0.0050
29735W        W72652  31.157   3.164   0.768 -0.1865  0.1870 -0.1019
29736W        W72653  28.090   2.716   3.179  0.2399 -0.3262  0.3360
29737W        W72654  24.670   2.905   0.084  0.0194 -0.3774 -0.1250
29738W        W72655  24.273   3.203   1.030 -0.2016  0.0544 -0.1628
29739W        W72656  28.516   1.922   0.687  0.0100 -0.1099  0.2638
29740W        W72657  27.395   2.999   0.869 -0.2751  0.0448  0.1221
29741W        W72658  28.500   3.839   2.840 -0.0644  0.1094 -0.0497
29742W        W72659  26.457   3.719   4.636  0.2871 -0.0956 -0.2400
29743W        W72660  26.102   2.707  31.067 -0.0283  0.1407 -0.0177
29744W        W72661  24.938   4.451   3.681  0.1078  0.1565 -0.1540
29745W        W72662  28.341   3.120   3.389 -0.4045  0.0683  0.1866
29746W        W72663  28.748   2.065   1.328 -0.0747 -0.3822  0.0459
29747W        W72664  27.187   2.519   1.767  0.1738  0.0716  0.0443
29748W        W72665  27.284   3.284   1.241  0.0554  0.1050  0.0250
29749W        W72666  26.751   1.510   0.939 -0.0275 -0.0866  0.1681
29750W        W72667  27.142   2.553   3.816  0.1018  0.2380 -0.1565
29751W        W72668  26.025   4.147   0.601 -0.1442  0.0430  0.2392
29752W        W72669  30.440   0.659   4.594  0.0139  0.2605  0.0727
29753W        W72670  27.489   2.080  31.887  0.2395  0.3185  0.0176
29754W        W72671  26.821  34.476  31.562 -0.0544 -0.0286 -0.1780
29755W        W72672  25.206   2.547   0.344 -0.2376 -0.0367  0.0819
29756W        W72673  26.576  34.666   0.931  0.1993  0.3405 -0.0097
29757W        W72674  26.489  34.193  30.663 -0.0071  0.0604  0.0107
29758W        W72675  26.723   4.964  31.026  0.1449  0.0552  0.2802
29759W        W72676  26.775   2.244   3.445  0.0036  0.1727  0.0509
29760W        W72677  27.312   1.121   4.193  0.0346  0.0053  0.0803
29761W        W72678  27.911   3.329   3.523 -0.2146  0.4052  0.1824
29762W        W72679  27.590   0.510   2.715 -0.0362 -0.1708 -0.1816
29763W        W72680  26.254   3.980   4.183 -0.2848 -0.0386  0.0352
29764W        W72681  25.269   1.295  31.961 -0.2424 -0.3104 -0.1787
29765W        W72682  27.655   1.151  31.754 -0.0052  0.3621  0.2517
29766W        W72683  31.633   4.221   1.477 -0.0387  0.0503  0.1144
29767W        W72684  26.981   2.820   0.280 -0.0089 -0.1185  0.1687
29768W        W72685  25.877   1.981   2.051 -0.1721  0.3672 -0.5324
29769W        W72686  26.244   3.315   2.495  0.0611  0.2172 -0.2972
29770W        W72687  26.850   4.476   4.107  0.0833 -0.3569  0.0429
29771W        W72688  27.223   1.344   1.066 -0.1467  0.2159 -0.0783
29772W        W72689  28.456   4.043   5.168  0.2078 -0.1776  0.0287
29773W        W72690  27.480   3.226   2.190  0.0016 -0.0779  0.3013
29774W        W72691  29.543   1.205   0.364 -0.0659  0.0771  0.1999
29775W        W72692  27.497   2.793   3.493  0.0155 -0.0638  0.2032
29776W        W72693  28.556   2.390   3.081 -0.3552 -0.0295  0.0083
29777W        W72694  28.305   1.868   0.176 -0.0084 -0.0753 -0.1005
29778W        W72695  29.817  34.024   3.013 -0.0001  0.2940 -0.1176
29779W        W72696  29.275   0.350   3.556 -0.1279  0.1855  0.0911
29780W        W72697  28.988   0.871   1.415 -0.2128  0.3039  0.1031
29781W        W72698  27.929   0.695   3.082 -0.0207 -0.0264 -0.1210
29782W        W72699  26.423   3.144   1.314  0.0353 -0.0645  0.0441
29783W        W72700  27.702   2.553   0.759  0.0841 -0.1907 -0.0017
29784W        W72701  27.698   5.218   0.576 -0.1677  0.0297  0.2219
29785W        W72702  26.800   0.907   2.872  0.0756 -0.1386  0.1721
29786W        W72703  27.461   3.934   3.443 -0.3590 -0.1062  0.0297
29787W        W72704  26.508   2.867   0.544  0.1141 -0.2112  0.1238
29788W        W72705  26.617   2.860   1.694 -0.1594  0.2368 -0.0455
29789W        W72706  24.651   3.181   1.343 -0.1407 -0.1843  0.1932
29790W        W72707  25.859   0.056   1.093 -0.3101  0.2104 -0.0142
29791W        W72708  28.097   0.415   2.679  0.0588  0.0735 -0.2961
29792W        W72709  28.719  34.312   2.020  0.4249  0.1016  0.0969
29793W        W72710  24.224   1.644   2.511 -0.0914 -0.0018 -0.1573
29794W        W72711  29.002   0.012   3.842 -0.0515  0.0845  0.1136
29795W        W72712  25.891   4.275   0.158 -0.0643 -0.0536 -0.0072
29796W        W72713  27.431   3.535   0.607  0.1478 -0.1057  0.1704
29797W        W72714  28.155   2.422   0.710  0.0392 -0.4112 -0.1407
29798W        W72715  27.341  34.574  31.380 -0.4155 -0.0275  0.3689
29799W        W72716  26.609   1.726   2.690  0.0186 -0.3018  0.0809
29800W        W72717  25.672   1.835   1.036  0.0012 -0.1007 -0.0911
29801W        W72718  25.605   0.285   2.287 -0.3665 -0.2339  0.0257
29802W        W72719  25.965   1.803   2.528 -0.2355 -0.1115 -0.1655
29803W        W72720  29.096   0.550   2.633 -0.0047 -0.2761  0.0119
29804W        W72721  24.609  34.511   1.197  0.3378 -0.2918  0.6177
29805W        W72722  27.889  34.451   1.563  0.1864 -0.4394 -0.0317
29806W        W72723  30.401   1.080   0.473  0.3597 -0.2867  0.0479
29807W        W72724  26.046   2.778   1.711 -0.2058  0.1855 -0.0879
29808W        W72725  30.721   0.744   5.590  0.0763  0.0547 -0.0827
29809W        W72726  28.924   3.906   0.061  0.1618  0.1963 -0.2920
29810W        W72727  29.571   2.024   3.938  0.0972  0.1480  0.1601
29811W        W72728  29.279   2.964   1.446 -0.0837  0.1646 -0.2102
29812W        W72729  27.698   1.220   3.821 -0.2057 -0.0942 -0.1881
29813W        W72730  24.805   1.498   1.688 -0.1436 -0.1592  0.1075
29814W        W72731  25.358   4.348   1.313  0.1419 -0.4611  0.1188
29815W        W72732  27.676   3.504   1.557  0.2002 -0.2781  0.0891
29816W        W72733  28.087   1.084   0.194 -0.3174 -0.1494  0.2668
29817W        W72734  27.100   2.583   2.649  0.3618  0.2172  0.1212
29818W        W72735  27.461   4.069   0.706  0.0526 -0.3241 -0.0278
29819W        W72736  26.143   3.910   1.449  0.2722  0.3309 -0.1475
29820W        W72737  28.165  33.265   2.478 -0.2476  0.0188  0.0318
29821W        W72738  30.096   2.142   2.309  0.2482  0.2226  0.0346
29822W        W72739  28.207   3.349   0.866 -0.1281  0.3502  0.0847
29823W        W72740  25.844   1.214   0.264  0.1797 -0.1907 -0.1633
29824W        W72741  29.099   3.475   1.284  0.0230  0.1795  0.1743
29825W        W72742  25.733   3.810  31.959 -0.0880 -0.2425 -0.3070
29826W        W72743  27.285   2.037   2.755 -0.4672 -0.1131  0.1825
29827W        W72744  27.557   1.464  31.077  0.0759 -0.0849 -0.0372
29828W        W72745  28.002   0.223   1.910 -0.1688 -0.1971  0.0876
29829W        W72746  26.696   2.744   3.665 -0.2644  0.1641 -0.0502
29830W        W72747  26.081   1.062   3.808  0.0342 -0.2478  0.0823
29831W        W72748  25.754   1.686   0.052 -0.1321 -0.0581 -0.0490
29832W        W72749  28.855   5.018   3.033  0.2972  0.2583  0.3526
29833W        W72750  27.836  34.160   2.826 -0.2820 -0.1106 -0.0175
29834W        W72751  27.669  34.135  31.355  0.0581 -0.2111  0.1189
29835W        W72752  25.923   2.744   3.303  0.1084  0.1795 -0.1425
29836W        W72753  28.719   1.421   0.788  0.2133 -0.0731  0.2054
29837W        W72754  28.191   1.628   3.052  0.3570 -0.2002 -0.3120
29838W        W72755  29.249   0.555   1.194  0.0826  0.0233  0.1593
29839W        W72756  26.561   5.205   2.072  0.1369 -0.2051  0.0108
29840W        W72757  28.820   4.585   0.228  0.2113 -0.1030 -0.1295
29841W        W72758  28.108   1.196   2.079 -0.1310  0.1779  0.1253
29842W        W72759  28.763   0.427   1.449  0.1120  0.2018  0.3028
29843W        W72760  28.839   4.330   0.677  0.1818 -0.0131 -0.1278
29844W        W72761  26.136   4.178   3.416  0.2885  0.0042 -0.1951
29845W        W72762  26.724   3.112   3.280  0.4342  0.0263 -0.0929
29846W        W72763  28.761   3.408   0.864  0.0221 -0.1333  0.2124
29847W        W72764  26.084   2.775   2.614 -0.2457 -0.2659  0.2392
29848W        W72765  26.227   2.458   0.570  0.3230  0.2910 -0.1712
29849W        W72766  27.595   1.175   0.303  0.4871  0.0337 -0.0692
29850W        W72767  27.155   4.975   0.014 -0.3088 -0.2672 -0.3014
29851W        W72768  29.923   1.540   1.508 -0.0324  0.3067 -0.1090
29852W        W72769  27.598   2.246   1.867 -0.1909  0.2748  0.0244
29853W        W72770  28.100   1.031   4.120 -0.0724 -0.5355  0.1129
29854W        W72771  29.099   1.687   2.752  0.2667 -0.0385  0.3829
29855W        W72772  26.735   1.046   3.334  0.0334  0.1857 -0.1407
29856W        W72773  28.896   0.197   1.963 -0.1676  0.1356  0.0811
29857W        W72774  26.243   1.250   0.874 -0.0466 -0.0580  0.0148
29858W        W72775  27.273   0.172   2.347 -0.0211 -0.0561  0.1684
29859W        W72776  25.962   3.502   2.939  0.0423  0.2583  0.0123
29860W        W72777  25.483   3.780   1.136  0.4986 -0.1473  0.1265
29861W        W72778  26.887   2.505   4.277  0.0334 -0.1219 -0.1697
29862W        W72779  28.754   2.360   3.536  0.1967 -0.0916  0.3206
29863W        W72780  30.140   0.736   3.517 -0.1019  0.2434  0.0501
29864W        W72781  27.497   1.719   3.341 -0.0185  0.2036 -0.0840
29865W        W72782  28.551   4.983   1.323  0.3371 -0.0407  0.0744
29866W        W72783  27.462   2.992   1.706 -0.1204  0.2607  0.1262
29867W        W72784  24.300  33.997  31.431 -0.0424 -0.6357  0.1438
29868W        W72785  26.361   4.005   1.900 -0.0112 -0.1437 -0.2545
29869W        W72786  25.190   1.897   1.182 -0.0868 -0.3533 -0.0699
29870W        W72787  28.507   1.275   3.297  0.0921 -0.0736 -0.0888
29871W        W72788  28.091   4.721   1.163 -0.2277 -0.2216  0.0457
29872W        W72789  28.969   0.080   3.290  0.2155 -0.0927  0.0241
29873W        W72790  24.509   4.070   3.596 -0.2739  0.3064  0.0972
29874W        W72791  25.277   1.366   0.848  0.1270 -0.0471 -0.1967
29875W        W72792  25.594   2.911   0.336  0.1161  0.1880  0.2168
29876W        W72793  26.365   0.305   2.129 -0.1147 -0.3268  0.2500
29877W        W72794  28.057   3.617   1.271 -0.0877  0.0959  0.4598
29878W        W72795  27.482   1.860   2.333  0.0526  0.2340 -0.3263
29879W        W72796  25.757   2.505   2.033 -0.0062 -0.0400  0.4543
29880W        W72797  24.835   4.516   1.855  0.0355  0.3438 -0.5347
29881W        W72798  29.436   0.290   2.847  0.1592  0.2347 -0.0139
29882W        W72799  27.304  34.208   0.607  0.2494 -0.0619 -0.0015
29883W        W72800  25.694   3.185   3.423 -0.2064 -0.2410 -0.2382
29884W        W72801  27.411   2.017   3.769 -0.4094 -0.0453  0.2244
29885W        W72802  24.935   2.389   1.310 -0.2272 -0.0739  0.1128
29886W        W72803  28.713  34.123   3.326 -0.2041 -0.2208  0.0353
29887W        W72804  25.169   0.637   2.271  0.0686  0.1404 -0.1774
29888W        W72805  25.152   1.807   3.102  0.1780 -0.1517 -0.0238
29889W        W72806  27.497   2.683   1.271 -0.0595 -0.0082 -0.0021
29890W        W72807  25.893   1.173  31.686  0.2698 -0.1957 -0.0718
29891W        W72808  25.682   4.033   1.609 -0.1151 -0.1449 -0.4063
29892W        W72809  26.390   1.441   3.639 -0.2167 -0.0028  0.1407
29893W        W72810  30.315   1.146   3.264 -0.6203 -0.1097 -0.0099
29894W        W72811  26.767   0.288   2.416  0.2652  0.1011 -0.0007
29895W        W72812  25.833  34.587  29.182 -0.1896 -0.3319  0.3771
29896W        W72813  28.487  34.642   1.704 -0.0908  0.2757 -0.0731
29897W        W72814  28.738   2.601   4.465 -0.1363  0.0882 -0.0626
29898W        W72815  26.979   3.706   3.669 -0.2799 -0.3562  0.2576
29899W        W72816  27.209   4.852   2.765  0.0700 -0.3139 -0.1719
29900W        W72817  27.018  34.548   2.688 -0.1978  0.2284 -0.1457
29901W        W72818  30.233   2.968   1.955 -0.1829  0.0442 -0.2891
29902W        W72819  29.735   1.813   3.383 -0.1146 -0.3406 -0.2385
29903W        W72820  28.480   3.179   1.252 -0.0125 -0.1067 -0.0772
29904W        W72821  26.531   1.887   1.409 -0.3515 -0.1447  0.2309
29905W        W72822  26.483   2.486   2.635  0.2328  0.2475  0.1980
29906W        W72823  25.295   2.758   1.893  0.1063 -0.0623 -0.0400
29907W        W72824  26.005   3.047   2.203 -0.2661  0.0285 -0.0464
29908W        W72825  26.547   3.768   1.188  0.1078 -0.0370 -0.0985
29909W        W72826  25.132   4.464   2.744 -0.2475  0.0481  0.1495
29910W        W72827  28.596   1.920  31.685  0.1660 -0.1378  0.0572
29911W        W72828  28.121   3.217  31.875 -0.1154  0.1311 -0.0051
29912W        W72829  27.604   2.571   3.004 -0.0190  0.1554 -0.0034
29913W        W72830  29.815   1.268   2.993  0.3253 -0.0030  0.1666
29914W        W72831  27.209   2.176   1.318 -0.1076  0.0448  0.1499
29915W        W72832  27.312  34.499   4.471 -0.0439 -0.0497  0.0490
29916W        W72833  26.647   1.940   1.950 -0.1185  0.3111  0.1470
29917W        W72834  27.147   2.448   0.934 -0.1379 -0.0783 -0.0965
29918W        W72835  27.032   1.658   2.193  0.2154 -0.1310  0.0029
29919W        W72836  28.329   3.627   3.585 -0.1442  0.1083  0.1916
29920W        W72837  25.491   1.715   2.291  0.0759  0.0253 -0.1563
29921W        W72838  26.649   1.811   0.510  0.0459  0.1171  0.2694
29922W        W72839  24.890   2.904  31.571  0.0619  0.0424  0.0861
29923W        W72840  28.586   2.140   1.957 -0.1386  0.0015 -0.1895
29924W        W72841  29.593   2.270   3.483  0.0768  0.0630 -0.3506
29925W        W72842  25.912   2.920  31.501 -0.0865 -0.2067  0.1183
29926W        W72843  29.065   2.180   2.659 -0.0197 -0.0057  0.3509
29927W        W72844  28.166   2.314   2.685 -0.0296  0.2461 -0.2543
29928W        W72845  26.906   3.234   1.532  0.1025  0.1439 -0.1067
29929W        W72846  28.331   2.198   1.170  0.3127 -0.1214 -0.2166
29930W        W72847  25.583   2.687   2.530 -0.0186 -0.0941  0.0553
29931W        W72848  26.112   2.233   3.312 -0.1040  0.3104 -0.0235
29932W        W72849  27.018   1.691   1.360  0.0200  0.1084 -0.2835
29933W        W72850  26.095   0.470   3.978  0.0719 -0.3260 -0.3426
29934W        W72851  25.810  34.025   2.749 -0.3990  0.3540  0.0344
29935W        W72852  28.929   0.710   3.258  0.0813 -0.0098 -0.1162
29936W        W72853  29.427   2.068   2.989  0.1894 -0.2963  0.0235
29937W        W72854  25.621   1.507   3.098 -0.2879 -0.1426  0.2739
29938W        W72855  28.524   4.079   3.430  0.1423 -0.0903 -0.2980
29939W        W72856  28.393   3.819   0.923  0.3952 -0.4525  0.0608
29940W        W72857  29.531   0.795   3.650 -0.2288 -0.2463 -0.2389
29941W        W72858  30.168   2.930   1.151 -0.1235 -0.0722 -0.0588
29942W        W72859  28.147   1.640   1.865  0.3449  0.3276  0.1678
29943W        W72860  24.899   2.381   1.820 -0.4366  0.3959  0.0637
29944W        W72861  29.606   0.760   2.691 -0.0024 -0.2830 -0.2164
29945W        W72862  27.070   1.926  31.712  0.2023  0.3140  0.2727
29946W        W72863  26.642   0.409   1.432 -0.0607 -0.3406 -0.2060
29947W        W72864  27.690   5.139   0.039 -0.1000  0.2354 -0.6300
29948W        W72865  27.934   3.785   0.774  0.2935 -0.3419 -0.1545
29949W        W72866  28.541   2.819   0.760  0.3188 -0.1849 -0.1579
29950W        W72867  24.343   1.635   1.512 -0.1353  0.1889 -0.0780
29951W        W72868  27.056   3.799   1.418  0.0921 -0.0946 -0.0692
29952W        W72869  25.900   0.790  30.762 -0.0604 -0.0863  0.0483
29953W        W72870  28.030   2.897   0.764 -0.0094 -0.1929 -0.4536
29954W        W72871  27.738   1.424   4.672 -0.0682 -0.2154 -0.3016
29955W        W72872  29.476   2.799   3.340 -0.2264 -0.1234  0.2000
29956W        W72873  27.711  34.485  31.807  0.2334 -0.1543  0.2336
29957W        W72874  29.411  34.543   3.248 -0.2519 -0.0836  0.0014
29958W        W72875  26.699   2.866   2.857  0.2661 -0.2436 -0.0239
29959W        W72876  28.141   0.405   1.486  0.1830  0.3759 -0.1560
29960W        W72877  26.228   4.387   1.511  0.1203  0.1594 -0.3285
29961W        W72878  25.911   3.734   1.932 -0.1011  0.0409  0.2278
29962W        W72879  26.393   3.670  31.686 -0.0309 -0.0964 -0.0357
29963W        W72880  25.908   0.658   0.839 -0.0237 -0.2534 -0.3084
29964W        W72881  28.574   1.444   2.618 -0.2295  0.2189  0.3582
29965W        W72882  27.256   2.321   2.276  0.0543  0.0291 -0.1022
29966W        W72883  30.488   1.245   4.179 -0.2982 -0.0055 -0.2096
29967W        W72884  26.744   2.287   1.570  0.2593 -0.2580  0.1191
29968W        W72885  27.961   1.759   3.478 -0.0698  0.0578 -0.2835
29969W        W72886  29.476   4.726   3.129  0.0326 -0.1862  0.2613
29970W        W72887  30.117   1.961   1.720 -0.2744  0.0630 -0.1418
29971W        W72888  27.227   3.179   3.156 -0.2892 -0.1831 -0.2468
29972W        W72889  26.247   3.027   3.614 -0.0222 -0.1460  0.1167
29973W        W72890  28.183   3.264   3.935 -0.1160 -0.2095 -0.2340
29974W        W72891  29.205   1.884   3.612 -0.0039 -0.0531  0.0923
29975W        W72892  26.689   1.447   1.791  0.2065  0.0770 -0.1182
29976W        W72893  26.583   4.165  31.608  0.1547 -0.0662  0.0918
29977W        W72894  24.861   4.640   2.364 -0.0305 -0.1037  0.0883
29978W        W72895  26.978   2.688   3.260  0.0520 -0.1282  0.0325
29979W        W72896  26.820   4.650  31.951  0.2311  0.0029  0.1789
29980W        W72897  27.201   3.049  29.549 -0.1614  0.2503 -0.0701
29981W        W72898  25.601   2.731  31.832 -0.0403 -0.2717  0.0961
29982W        W72899  27.438   5.539  30.911  0.0183  0.2199 -0.2402
29983W        W72900  25.993   1.178  30.394 -0.0439  0.0720 -0.4255
29984W        W72901  26.103   4.757   1.807 -0.0378 -0.4558 -0.1643
29985W        W72902  25.172   3.087   0.901 -0.0201 -0.3871  0.1513
29986W        W72903  27.430   1.170   1.427 -0.1327 -0.2330  0.0971
29987W        W72904  25.965   3.224   1.095 -0.2866  0.2576  0.0290
29988W        W72905  29.518   3.452   2.386 -0.1002 -0.1974 -0.0682
29989W        W72906  29.421   0.271  30.729  0.1937 -0.0324 -0.0187
29990W        W72907  31.431   1.918   0.613 -0.1243 -0.1604 -0.0124
29991W        W72908  28.064   2.105  31.819 -0.4786 -0.1619  0.2517
29992W        W72909  28.533   2.546   3.983  0.0713  0.0095 -0.0135
29993W        W72910  27.161   1.243   3.145  0.1520 -0.0122 -0.3701
29994W        W72911  27.056   1.056  31.779  0.0247  0.2424 -0.0533
29995W        W72912  28.662   0.320   3.541 -0.0744  0.1141 -0.0181
29996W        W72913  28.436   0.808   3.802  0.1051 -0.1514  0.2795
29997W        W72914  26.804   5.391   4.019  0.0057  0.0810  0.0545
29998W        W72915  28.179   3.564  31.534 -0.0692 -0.0007 -0.0525
29999W        W72916  25.222   2.421   2.935 -0.1053 -0.1305  0.2752
30000W        W72917  29.391   3.209   2.845  0.2888  0.5800 -0.0607
30001W        W72918  30.317   1.746   3.220 -0.1950 -0.2253 -0.0143
30002W        W72919  28.998   1.913   2.207  0.0057 -0.0179 -0.1237
30003W        W72920  27.579   0.507   1.842  0.1209  0.0962 -0.0586
30004W        W72921  26.539   6.487   0.186  0.0706 -0.0332 -0.3399
30005W        W72922  26.315   2.108   2.351 -0.0635  0.0987  0.1681
30006W        W72923  28.457   2.849   2.826 -0.0211 -0.0534 -0.3072
30007W        W72924  25.515   0.377   0.886 -0.1652 -0.0603 -0.0233
30008W        W72925  28.011   1.796   1.258 -0.0980  0.0275  0.0812
30009W        W72926  28.989   1.232   4.601  0.1863 -0.1864 -0.3270
30010W        W72927  30.087   0.816   4.264  0.0764 -0.1663  0.0014
30011W        W72928  25.324   3.085   2.260 -0.0776  0.0794  0.0838
30012W        W72929  26.997   2.729   1.301  0.2576 -0.1312 -0.0722
30013W        W72930  26.652   4.240   3.158  0.4405  0.1363 -0.2274
30014W        W72931  27.712   3.008   3.877  0.2620 -0.2169 -0.0752
30015W        W72932  28.448   0.840   1.537 -0.0638  0.2352  0.0566
30016W        W72933  30.589   1.980   3.653 -0.1549 -0.2708 -0.0405
30017W        W72934  29.709   0.384   1.397 -0.1705  0.1886 -0.1456
30018W        W72935  29.304   3.642   4.651  0.1263 -0.0570 -0.3595
30019W        W72936  25.845   4.753   2.485 -0.0652 -0.1828 -0.1325
30020W        W72937  27.979   0.079   1.106  0.2018  0.0142 -0.0613
30021W        W72938  24.595   1.995   1.739  0.0193  0.0382 -0.0128
30022W        W72939  26.483   2.578   3.258 -0.1633 -0.0480 -0.0118
30023W        W72940  29.806   2.901   2.741 -0.0493 -0.1112 -0.1387
30024W        W72941  24.665   0.726   2.166 -0.1330  0.2275 -0.1989
30025W        W72942  29.206   2.445   0.208 -0.0426 -0.0969 -0.1313
30026W        W72943  29.208   1.430   2.256  0.0558  0.1094  0.0532
30027W        W72944  26.966   6.193   0.140 -0.0713 -0.1978 -0.1298
30028W        W72945  30.102   1.840   1.164 -0.0933  0.0917  0.0019
30029W        W72946  26.307   4.002  31.276 -0.2731 -0.1505 -0.1917
30030W        W72947  24.222   1.664   1.025  0.1226 -0.0365 -0.1914
30031W        W72948  28.273   3.124   2.449  0.1479  0.2632 -0.0766
30032W        W72949  28.363   1.788   2.285 -0.1795  0.2351  0.3413
30033W        W72950  27.560   0.673   1.411  0.3350 -0.2536 -0.1870
30034W        W72951  27.167   4.506   1.681 -0.0169 -0.1612  0.1566
30035W        W72952  27.040   5.482   1.924  0.1483  0.0819  0.3099
30036W        W72953  27.623   0.826   2.265  0.1217  0.0397  0.0130
30037W        W72954  27.826   0.081   2.934  0.0439 -0.2240 -0.2736
30038W        W72955  27.344   2.836  31.765  0.0475  0.1894  0.0654
30039W        W72956  28.512  32.198   4.708 -0.2425 -0.1366 -0.0487
30040W        W72957  27.702   2.324   4.355 -0.1608  0.3257 -0.1098
30041W        W72958  27.639   3.506   4.868 -0.1273  0.2753  0.2194
30042W        W72959  24.895   1.128   1.338  0.1241  0.0790 -0.0965
30043W        W72960  26.823   3.035   4.197 -0.1858 -0.1886  0.0771
30044W        W72961  27.325   1.569   0.117  0.2149  0.3438  0.0339
30045W        W72962  27.994   0.908   1.223  0.0337 -0.1771 -0.0010
30046W        W72963  28.309   4.236   1.185 -0.0016  0.2360 -0.1150
30047W        W72964  27.786   2.697   0.009 -0.2397  0.0040 -0.4525
30048W        W72965  28.017   2.147   2.237 -0.0656  0.0069  0.5729
30049W        W72966  26.276   2.285   1.834 -0.0822 -0.3175 -0.0098
30050W        W72967  28.977   2.551   1.546 -0.0859  0.3297  0.3088
30051W        W72968  30.806   0.316   2.853 -0.1472  0.1709 -0.1623
30052W        W72969  26.321   2.426   3.778 -0.2242  0.0717 -0.1298
30053W        W72970  25.452   2.228   0.694 -0.0132 -0.0336  0.0458
30054W        W72971  25.082   2.590   0.873 -0.1667 -0.0882 -0.2394
30055W        W72972  26.244   1.162   3.243  0.2392  0.0641  0.2274
30056W        W72973  27.252   1.010   3.713 -0.0041  0.2872  0.2320
30057W        W72974  26.197   2.584   2.198  0.0146 -0.0693  0.0561
30058W        W72975  26.604   2.931   2.190  0.0067  0.2315 -0.0893
30059W        W72976  26.151   1.674  31.737 -0.0321 -0.0411 -0.0007
30060W        W72977  29.056   2.946   0.393  0.1572  0.1544  0.0558
30061W        W72978  24.322   3.542   1.692  0.2065  0.0956  0.1659
30062W        W72979  25.447   0.939   1.565  0.0965  0.0462 -0.3863
30063W        W72980  29.155   2.476   3.180 -0.4876  0.1011 -0.1968
30064W        W72981  29.982   2.386   1.412 -0.0860  0.4389 -0.1967
30065W        W72982  27.314   1.029  31.124 -0.0545  0.0514 -0.0034
30066W        W72983  28.723   2.731   1.984  0.1911 -0.0200  0.0941
30067W        W72984  27.112   1.330   0.532  0.2132  0.0054 -0.4874
30068W        W72985  28.298   0.914   2.736  0.0926  0.1845 -0.0143
30069W        W72986  25.219   0.985   3.915 -0.1718 -0.2282  0.0007
30070W        W72987  25.068   0.192  29.777 -0.0358  0.1673  0.0582
30071W        W72988  27.127   1.985   1.849 -0.1775 -0.4465 -0.0881
30072W        W72989  28.307   5.824   0.297  0.3215 -0.2696 -0.0820
30073W        W72990  27.861   4.266   0.972  0.2840 -0.1887 -0.2105
30074W        W72991  26.934   4.046   1.897 -0.0197 -0.2792 -0.1249
30075W        W72992  29.172   3.657   2.733 -0.2767  0.0128 -0.0151
30076W        W72993  26.657   2.597   0.928  0.0381 -0.1538  0.1770
30077W        W72994  27.939   3.094   1.411  0.0154  0.0429 -0.1327
30078W        W72995  25.276   3.581   3.658  0.0950 -0.1922 -0.3068
30079W        W72996  28.170   1.071  31.457 -0.0462 -0.3297  0.5376
30080W        W72997  29.599  34.557   2.510  0.2335  0.0393 -0.2126
30081W        W72998  28.158   2.650   2.109  0.0694  0.0650  0.1496
30082W        W72999  24.827   1.154   0.852  0.3291  0.0264 -0.1055
30083W        W73000  27.444   3.999   1.729  0.2383 -0.1554  0.1941
30084W        W73001  29.800   3.329   3.119 -0.2830  0.1847  0.0215
30085W        W73002  25.380   1.097   0.454 -0.4935 -0.0075 -0.1720
30086W        W73003  27.956   0.781   1.728 -0.1121 -0.2781 -0.1428
30087W        W73004  27.737   4.188   2.986 -0.0728  0.1879 -0.3661
30088W        W73005  24.747   0.286   1.391 -0.1303 -0.2696  0.0138
30089W        W73006  27.067   0.906  30.302 -0.0452 -0.3406  0.1602
30090W        W73007  26.977   2.896   4.742  0.0199  0.0290 -0.1882
30091W        W73008  28.190   2.812   4.263  0.0791  0.2983 -0.1025
30092W        W73009  28.380   1.737   4.083  0.1983 -0.2365 -0.1430
30093W        W73010  25.802   0.748  31.366 -0.1587 -0.1085 -0.1297
30094W        W73011  29.664   4.045   2.506  0.1445  0.0947  0.1226
30095W        W73012  27.534   2.648   4.679 -0.1608 -0.1546 -0.2573
30096W        W73013  29.066   3.748   4.237 -0.0305 -0.3648 -0.1582
30097W        W73014  29.151   3.732   3.706 -0.1011  0.2459  0.0953
30098W        W73015  27.544   1.714   1.531 -0.1922 -0.0128 -0.1529
30099W        W73016  25.327   0.052   1.273  0.1260 -0.1313 -0.1261
30100W        W73017  26.970   1.129   2.146  0.1792  0.2123  0.0223
30101W        W73018  26.286   3.936   0.121  0.1988  0.2418 -0.0524
30102W        W73019  29.861   1.622   2.318 -0.3020 -0.1720  0.0255
30103W        W73020  25.329   1.428   1.408  0.4217  0.3441 -0.1659
30104W        W73021  29.916  33.971  31.407 -0.2889  0.1806  0.1194
30105W        W73022  26.474   3.859   0.663  0.1737  0.0934  0.0340
30106W        W73023  28.779   1.070   2.904 -0.1345  0.1482  0.0186
30107W        W73024  27.754   1.010   4.462  0.0504 -0.3976  0.1737
30108W        W73025  26.067   1.674   3.253  0.1479  0.0617  0.1178
30109W        W73026  29.965  34.518   4.122 -0.3019 -0.0731 -0.2250
30110W        W73027  28.278   2.148   3.659  0.3149  0.2481  0.1010
30111W        W73028  25.294  33.168   5.256  0.1427 -0.0654 -0.0589
30112W        W73029  29.513   3.525   4.064 -0.2066 -0.2573  0.1321
30113W        W73030  28.098   0.554   5.788 -0.1348 -0.0308  0.2788
30114W        W73031  27.805   2.240   4.869 -0.0343 -0.0182  0.1508
30115W        W73032  29.285   2.139   5.408 -0.0086  0.3823 -0.2345
30116W        W73033  28.153   2.333   4.186 -0.2177  0.1752 -0.0803
30117W        W73034  25.323   0.553   6.871 -0.3398 -0.3966  0.2190
30118W        W73035  26.938   2.041   5.578 -0.0564  0.1276 -0.0065
30119W        W73036  28.072   0.289   3.330 -0.1720  0.1728 -0.1291
30120W        W73037  23.796  32.592   5.648 -0.0175 -0.1134  0.2510
30121W        W73038  28.909   0.766   5.163  0.1860  0.4715  0.1192
30122W        W73039  26.564   2.104   4.801 -0.0859 -0.2731 -0.0390
30123W        W73040  26.081   1.677   4.886  0.1208  0.1894 -0.4992
30124W        W73041  24.771   1.021   5.129 -0.3112  0.0048 -0.1159
30125W        W73042  26.826   5.120   2.897 -0.0358 -0.0531  0.0161
30126W        W73043  28.138   1.479   6.414  0.0512 -0.3713  0.0887
30127W        W73044  29.543   0.210   6.745  0.0209 -0.1113  0.0045
30128W        W73045  27.798   4.129   3.818  0.1316 -0.0947 -0.1147
30129W        W73046  26.767   2.225   2.968  0.1783  0.2335  0.4497
30130W        W73047  26.468   2.251   4.317  0.1392 -0.0098 -0.1182
30131W        W73048  27.106   0.094   3.718  0.0175 -0.1035  0.0494
30132W        W73049  28.383   2.172   4.690  0.1693 -0.0173 -0.1717
30133W        W73050  30.038   1.666   5.821 -0.1326 -0.1935  0.1048
30134W        W73051  28.030   2.532   6.491 -0.5194 -0.0258 -0.0403
30135W        W73052  27.734   3.890   5.666  0.0109 -0.1917  0.1464
30136W        W73053  31.511   1.588   6.088 -0.1835 -0.0091  0.0018
30137W        W73054  25.833   1.787   3.735  0.2296  0.1372  0.0455
30138W        W73055  25.933   3.512   4.400 -0.0483  0.0523 -0.0284
30139W        W73056  27.837   2.520   5.510  0.0626  0.2621  0.0926
30140W        W73057  29.999   2.856   5.189  0.2158 -0.3199  0.0461
30141W        W73058  29.565   2.467   5.642  0.3446 -0.3761 -0.0608
30142W        W73059  26.142   3.458   6.956  0.0351 -0.0706  0.4529
30143W        W73060  24.259   3.178   2.899  0.2840  0.0606  0.0576
30144W        W73061  27.593   3.200   6.792  0.0294 -0.0495  0.0115
30145W        W73062  27.511   1.699   5.100 -0.4076  0.0015  0.0043
30146W        W73063  29.422   2.394   6.188 -0.2299 -0.0104  0.2940
30147W        W73064  26.270   0.705   5.645  0.0381  0.1041 -0.2213
30148W        W73065  24.892   3.301   3.861  0.1452 -0.0234 -0.0710
30149W        W73066  27.968   2.853   6.120 -0.3607 -0.0379 -0.2145
30150W        W73067  26.258   0.771   6.337 -0.2781 -0.0702 -0.1498
30151W        W73068  25.888   2.381   6.567 -0.0253 -0.1870 -0.0089
30152W        W73069  30.727  34.487   6.467 -0.0709  0.0209 -0.1999
30153W        W73070  27.734   2.259   3.426 -0.0810  0.1898  0.1016
30154W        W73071  28.475   0.520   1.875  0.0841  0.1425 -0.0217
30155W        W73072  27.755   0.277   4.468 -0.0550 -0.0159  0.5290
30156W        W73073  28.187  34.164   4.394 -0.1666 -0.2769  0.0643
30157W        W73074  28.911  34.424   4.273 -0.2458 -0.1448  0.0653
30158W        W73075  28.605   2.518   4.987 -0.1208 -0.1891  0.0736
30159W        W73076  27.026  32.998   4.519  0.1017  0.1367 -0.2016
30160W        W73077  28.778   2.161   7.840  0.1887 -0.0717  0.2627
30161W        W73078  27.592   0.980   3.345 -0.0390 -0.0817 -0.2046
30162W        W73079  27.973  34.566   4.194  0.2762  0.0368 -0.2182
30163W        W73080  26.898   1.452   7.345  0.0113  0.1352  0.0712
30164W        W73081  24.151   2.128   4.687 -0.1377  0.0950 -0.0973
30165W        W73082  27.969   1.923   4.450  0.0006 -0.1107 -0.3255
30166W        W73083  29.225   5.043   5.741 -0.1536  0.1849  0.0727
30167W        W73084  25.719   2.960   3.846 -0.0724 -0.0812 -0.1657
30168W        W73085  27.996  34.555   3.685 -0.0392 -0.4198  0.2124
30169W        W73086  25.950   0.841   4.909 -0.0334 -0.0903 -0.1647
30170W        W73087  26.763   1.148   5.136  0.2695 -0.0846 -0.0249
30171W        W73088  25.136   0.612   3.062 -0.0092  0.0913  0.1726
30172W        W73089  28.557   1.721   6.552 -0.3862 -0.4548  0.1580
30173W        W73090  27.432   2.938   6.295  0.1017  0.3593 -0.0034
30174W        W73091  28.641  34.036   4.218  0.2881  0.0763 -0.3519
30175W        W73092  27.301   2.192   5.248 -0.1197 -0.1634 -0.0191
30176W        W73093  27.795   2.018   5.390  0.2890  0.1570 -0.1039
30177W        W73094  28.644   2.104   4.307  0.2255  0.2289  0.1177
30178W        W73095  28.294   0.936   6.563  0.0952  0.0815 -0.1226
30179W        W73096  28.628   1.254   6.379  0.0767  0.0986 -0.0315
30180W        W73097  25.508   0.979   3.384  0.0447 -0.0722  0.0083
30181W        W73098  26.530   1.217   4.189 -0.1669  0.0743  0.0811
30182W        W73099  30.688   1.816   5.872  0.2554 -0.0645  0.1476
30183W        W73100  30.477   2.345   4.047  0.0256 -0.1379 -0.1112
30184W        W73101  26.988   3.867   6.418 -0.0611  0.0765 -0.1318
30185W        W73102  29.502   2.803   6.924  0.1407  0.1316  0.1044
30186W        W73103  27.915   2.809   7.835  0.1022 -0.0548 -0.0863
30187W        W73104  27.121   1.488   2.658 -0.1999 -0.2676 -0.1044
30188W        W73105  28.191   0.857   4.630  0.1177  0.0091  0.0434
30189W        W73106  26.645   1.353   2.958  0.2101 -0.0846 -0.3112
30190W        W73107  25.541   0.781   4.705  0.2684 -0.1381  0.2087
30191W        W73108  26.981   1.438   4.246  0.2455  0.1224 -0.3016
30192W        W73109  30.173   0.370   5.021 -0.1071 -0.1666 -0.0411
30193W        W73110  26.728   0.244   4.989  0.2348  0.1229 -0.0886
30194W        W73111  29.594  34.279   5.019 -0.1395 -0.4493  0.0941
30195W        W73112  27.568   2.656   5.862  0.1987  0.1866  0.1982
30196W        W73113  28.941   4.303   5.122  0.1333 -0.5340  0.3644
30197W        W73114  30.833   1.983   6.487  0.1582  0.0077  0.0793
30198W        W73115  27.271   2.152   4.234 -0.2766 -0.0376  0.2963
30199W        W73116  25.178   1.732   5.543  0.2255 -0.0684 -0.0392
30200W        W73117  26.645   3.318   3.793 -0.0242  0.0630 -0.0192
30201W        W73118  27.822   2.186   6.883  0.0411  0.0206  0.0711
30202W        W73119  27.833   0.699   6.725 -0.0568  0.3145  0.0551
30203W        W73120  28.174   0.470   4.283 -0.0253 -0.3142 -0.0769
30204W        W73121  27.954   0.798   3.666  0.2011  0.0866  0.1673
30205W        W73122  27.494  34.513   3.992  0.2291  0.1646  0.1284
30206W        W73123  25.735   2.487   4.721  0.0530  0.3098  0.1545
30207W        W73124  26.557   1.792   5.276  0.1934 -0.3076 -0.2310
30208W        W73125  27.836   1.864   5.902  0.2370 -0.1798  0.1889
30209W        W73126  29.189   4.645   3.487 -0.2720 -0.2249 -0.1862
30210W        W73127  30.062   3.334   8.393  0.0208 -0.1120  0.2137
30211W        W73128  29.836   1.909   4.384  0.0643  0.0851  0.0440
30212W        W73129  28.006   1.527   5.424 -0.2005 -0.0740  0.0484
30213W        W73130  26.843   1.046   4.628  0.3334 -0.2708 -0.1454
30214W        W73131  26.842   2.858   6.848 -0.1653  0.2311 -0.3871
30215W        W73132  28.910   1.794   5.202 -0.1503  0.0082 -0.3137
30216W        W73133  29.708   1.110   4.018  0.0131  0.0555  0.0056
30217W        W73134  29.080   3.374   5.069  0.0840 -0.0732  0.2489
30218W        W73135  26.798   0.079   5.483 -0.1941  0.1494 -0.0808
30219W        W73136  26.389   2.861   5.332  0.1446  0.2278  0.2577
30220W        W73137  29.618  33.408   4.453 -0.0269 -0.4043  0.1248
30221W        W73138  32.258   1.125   5.808  0.0438  0.0762 -0.1525
30222W        W73139  28.364   2.532   5.600 -0.3197  0.0077 -0.0973
30223W        W73140  26.908   1.803   3.612 -0.1853  0.0098 -0.1956
30224W        W73141  29.544   2.534   3.927 -0.0767  0.1608 -0.0458
30225W        W73142  26.188   4.957   3.720 -0.2278  0.3033 -0.1932
30226W        W73143  25.859   1.074   3.001  0.0543  0.1878 -0.4731
30227W        W73144  29.221   4.261   3.931  0.1640  0.3034 -0.2971
30228W        W73145  29.658   0.523   5.170 -0.0665 -0.1453  0.0219
30229W        W73146  25.909   1.343   6.725  0.0889  0.1242  0.4997
30230W        W73147  28.228  34.264   6.024  0.6096 -0.1673  0.1068
30231W        W73148  27.680   3.466   4.109 -0.0415  0.1830 -0.0334
30232W        W73149  25.844   0.492   5.935 -0.3337  0.0406 -0.0694
30233W        W73150  28.308  33.036   4.806  0.1084  0.0025  0.3785
30234W        W73151  31.282   1.089   6.018 -0.1238  0.1676  0.1555
30235W        W73152  28.839   3.104   6.564 -0.3576 -0.3623 -0.5326
30236W        W73153  29.226   1.652   4.779  0.1429  0.1104 -0.2805
30237W        W73154  27.952   1.266   3.265 -0.1258  0.0152  0.0206
30238W        W73155  28.628   0.418   2.911 -0.2461 -0.0236 -0.1783
30239W        W73156  26.363   2.200   7.923 -0.2921  0.0824 -0.1820
30240W        W73157  27.456   1.071   4.939  0.0850  0.0287 -0.0114
30241W        W73158  29.536   1.423   6.613 -0.0187 -0.2406  0.0359
30242W        W73159  27.864   1.305   1.592 -0.0445  0.0976  0.2502
30243W        W73160  31.740   1.616   4.852 -0.0587 -0.0935  0.1396
30244W        W73161  25.796   2.714   8.055 -0.0260  0.0723 -0.5301
30245W        W73162  28.413   1.797   5.165 -0.0606  0.0917 -0.0321
30246W        W73163  28.929   2.141   4.774 -0.0840 -0.1812 -0.3306
30247W        W73164  28.613   0.965   4.851 -0.2399 -0.2718  0.2779
30248W        W73165  29.687   0.163   4.428  0.0909  0.1425 -0.1639
30249W        W73166  27.131   0.251   4.233  0.0455 -0.1431  0.2020
30250W        W73167  25.687   4.366   3.549 -0.3483 -0.2091 -0.0069
30251W        W73168  29.198   0.842   5.571 -0.0781  0.2180  0.2496
30252W        W73169  29.481  34.307   4.217 -0.1161  0.0798  0.3569
30253W        W73170  26.768   1.033   5.621 -0.2014  0.2291  0.1166
30254W        W73171  30.855   1.794   5.308 -0.2346  0.0223 -0.1522
30255W        W73172  30.039   1.612   3.735  0.2172  0.1865 -0.1456
30256W        W73173  28.270   2.182   7.045  0.0738  0.3155 -0.1506
30257W        W73174  27.656   2.356   2.568  0.0939  0.0422  0.0946
30258W        W73175  29.396  34.032   5.768 -0.0003  0.1184 -0.0930
30259W        W73176  26.997   0.410   5.907 -0.0603  0.1698 -0.0368
30260W        W73177  27.278   2.327   7.018 -0.0156 -0.2463 -0.3187
30261W        W73178  29.039   2.617   6.786 -0.0858 -0.0349  0.2453
30262W        W73179  26.423  34.568   5.201  0.0040 -0.2943  0.0470
30263W        W73180  27.875   1.247   6.737  0.1371 -0.3739 -0.0375
30264W        W73181  27.096  33.525   3.280 -0.2031  0.0866 -0.2225
30265W        W73182  27.118   3.249   5.517 -0.0811 -0.1262  0.0594
30266W        W73183  28.073   3.466   5.679 -0.1538 -0.0176 -0.0558
30267W        W73184  26.199  33.101   3.703  0.1596  0.0578 -0.2303
30268W        W73185  28.342   2.843   5.189  0.2015 -0.1360  0.3452
30269W        W73186  27.912   3.683   2.962  0.1429 -0.2592 -0.1861
30270W        W73187  27.374   0.992   6.507  0.0213  0.2588  0.0622
30271W        W73188  26.785   2.600   7.763 -0.0042 -0.1341 -0.3075
30272W        W73189  29.371   1.106   5.941  0.0461 -0.2627 -0.2626
30273W        W73190  26.347   4.585   5.642  0.2430 -0.0760  0.0557
30274W        W73191  25.697   0.154   4.084 -0.0445  0.1348  0.0184
30275W        W73192  25.612   2.470   4.113  0.3125 -0.0471 -0.0202
30276W        W73193  28.705  33.515   4.320  0.0425  0.2400 -0.2650
30277W        W73194  26.872   1.306   3.750  0.0922  0.1378  0.0551
30278W        W73195  27.090   0.649   5.088  0.0423 -0.0454  0.2277
30279W        W73196  27.071  33.872   3.663  0.0766  0.2414 -0.0107
30280W        W73197  26.036   3.814   5.403 -0.1539  0.1232 -0.0023
30281W        W73198  27.921  34.117   3.946 -0.1956  0.1221  0.2726
30282W        W73199  29.903   0.277   2.701 -0.0232 -0.1965 -0.0049
30283W        W73200  30.434   2.671   6.915  0.1924  0.0462  0.2446
30284W        W73201  27.624   1.772   7.858  0.1178 -0.3906  0.2250
30285W        W73202  27.691   2.459   3.856  0.2505 -0.1632  0.1009
30286W        W73203  30.334   1.169   5.410 -0.0141  0.1750 -0.2077
30287W        W73204  25.831   1.510   1.997  0.3144  0.0532 -0.1900
30288W        W73205  25.524   1.904   2.747 -0.0872 -0.1176 -0.1044
30289W        W73206  28.760   3.382   3.556 -0.0601 -0.0005  0.1746
30290W        W73207  27.308   1.512   3.745  0.3277 -0.1131  0.1640
30291W        W73208  28.615   2.186   5.941 -0.0187 -0.0878 -0.1476
30292W        W73209  27.255   1.878   6.218  0.3932  0.1552 -0.1787
30293W        W73210  28.214   1.353   4.889  0.1860 -0.0810  0.1389
30294W        W73211  27.786   0.302   3.882 -0.0332  0.1381  0.0317
30295W        W73212  25.838  33.164   4.418  0.0014 -0.1678 -0.0267
30296W        W73213  26.346   1.967   3.694 -0.0784 -0.0738  0.0331
30297W        W73214  27.949   1.492   4.234 -0.0455 -0.0341  0.1859
30298W        W73215  29.034   0.968   7.408 -0.2436 -0.2615 -0.1986
30299W        W73216  25.384   3.304   7.571  0.1738  0.0788 -0.1765
30300W        W73217  27.198   0.496   6.413  0.3171 -0.4385  0.1034
30301W        W73218  29.832   3.470   4.414  0.2559  0.0335 -0.0339
30302W        W73219  27.548  34.221   5.374 -0.1509 -0.1826  0.2255
30303W        W73220  23.677   1.658   2.210 -0.1935  0.2265  0.0544
30304W        W73221  25.618   3.418   4.030  0.0037  0.0057 -0.1984
30305W        W73222  26.088   2.622   4.370  0.0136 -0.1081  0.1707
30306W        W73223  29.631  31.575   5.140  0.1635 -0.0520  0.4788
30307W        W73224  26.953   1.600   5.884 -0.1939 -0.0672  0.2839
30308W        W73225  27.848   2.862   4.978 -0.0731 -0.1117 -0.1228
30309W        W73226  26.652   3.059   5.742 -0.0804 -0.0156 -0.3152
30310W        W73227  29.453   0.246   5.696 -0.3346 -0.1217 -0.0179
30311W        W73228  26.196   4.437   3.023  0.0602 -0.1166  0.1504
30312W        W73229  29.951   1.519   5.248 -0.0043 -0.3368  0.1578
30313W        W73230  32.147   1.982   5.592  0.1475  0.1346  0.2892
30314W        W73231  29.566   1.115   5.386 -0.0861  0.0509  0.1264
30315W        W73232  27.792  34.007   6.404 -0.2642  0.0927 -0.4643
30316W        W73233  26.763  34.531   7.111  0.2267 -0.2082  0.0086
30317W        W73234  27.404   3.753   6.718 -0.0887 -0.3255  0.0793
30318W        W73235  25.775   0.625   5.348  0.1087 -0.1566  0.3322
30319W        W73236  29.540   5.240   7.130 -0.3926  0.1664  0.3554
30320W        W73237  26.729   2.358   6.914 -0.1758 -0.2225 -0.1443
30321W        W73238  29.249  33.096   4.727 -0.5509  0.0498 -0.0921
30322W        W73239  25.653   1.929   3.298 -0.0482 -0.4061 -0.0417
30323W        W73240  25.022   2.207   4.756 -0.1155  0.2348  0.1988
30324W        W73241  28.839   1.344   5.084 -0.0319  0.3612 -0.0597
30325W        W73242  26.259   1.091   5.942  0.3741 -0.2755 -0.0012
30326W        W73243  30.398   2.462   3.495 -0.2657 -0.1059  0.0376
30327W        W73244  24.934   1.754   4.979  0.3047  0.2465  0.0063
30328W        W73245  28.970   0.283   5.613  0.2193 -0.0235  0.0615
30329W        W73246  27.938   1.062   5.108 -0.3965  0.2518  0.1573
30330W        W73247  27.083   2.345   4.719  0.0573 -0.1903 -0.0004
30331W        W73248  26.475   0.046   6.692 -0.2130 -0.1764  0.2705
30332W        W73249  26.067   2.031   5.332  0.1457  0.1017 -0.0596
30333W        W73250  28.634   0.415   4.621 -0.0975  0.2207 -0.0202
30334W        W73251  28.903  33.270   6.322  0.2110  0.2728  0.6051
30335W        W73252  28.990   0.281   6.149 -0.0531  0.0261  0.2477
30336W        W73253  26.594  33.950   4.759  0.1547 -0.0248 -0.3407
30337W        W73254  27.430  34.238   4.882 -0.0563 -0.0186  0.1861
30338W        W73255  27.017   4.264   6.729 -0.1925  0.0132  0.2439
30339W        W73256  28.443   0.109   2.187 -0.3696  0.4547  0.0229
30340W        W73257  28.191  34.152   4.928 -0.0434 -0.2061  0.1531
30341W        W73258  32.344   1.474   3.785 -0.0005 -0.0676 -0.0171
30342W        W73259  27.291   2.769   4.271 -0.0562  0.2137 -0.0191
30343W        W73260  24.831  34.478   3.821 -0.0272  0.0964  0.3471
30344W        W73261  27.853   1.402   7.643 -0.4285  0.1620  0.0236
30345W        W73262  27.017   1.717   3.064  0.2217  0.0543 -0.1839
30346W        W73263  27.710   0.992   7.185 -0.3636 -0.0704  0.0265
30347W        W73264  29.258   4.775   4.010  0.1434 -0.0861 -0.0155
30348W        W73265  27.877   1.928   3.976  0.1010  0.1310 -0.2462
30349W        W73266  25.643  33.968   5.323  0.1384 -0.1954  0.2201
30350W        W73267  23.645   2.028   6.203  0.1375  0.0471  0.0611
30351W        W73268  26.407   1.633   6.100 -0.3121  0.2204 -0.0077
30352W        W73269  27.712  34.206   3.484  0.2861 -0.2163  0.2725
30353W        W73270  30.426  34.346   4.343 -0.2591  0.1268 -0.0364
30354W        W73271  28.163   2.581   4.724  0.0319 -0.2141  0.0154
30355W        W73272  29.681   1.351   7.115  0.0139 -0.2216 -0.1959
30356W        W73273  27.775   0.333   2.309 -0.2235 -0.1509 -0.2620
30357W        W73274  28.067   1.039   5.645  0.1107 -0.2332 -0.2330
30358W        W73275  27.443   3.411   3.593  0.2875 -0.1655 -0.1750
30359W        W73276  26.852  33.738   5.492 -0.0229 -0.3436 -0.0645
30360W        W73277  26.050   3.948   6.196  0.2683 -0.2125  0.0177
30361W        W73278  27.011   1.674   6.925 -0.1100 -0.0946  0.2887
30362W        W73279  26.855   1.888   4.465 -0.2828  0.1601 -0.0320
30363W        W73280  28.441   0.168   6.310 -0.3582 -0.0051 -0.3819
30364W        W73281  28.727  33.699   3.779 -0.1632  0.0171 -0.2326
30365W        W73282  27.353   1.257   5.980 -0.2629 -0.1728 -0.1936
30366W        W73283  30.803  34.436   5.967 -0.1479  0.0995 -0.0925
30367W        W73284  26.979   2.055   6.639  0.3444 -0.0599  0.3704
30368W        W73285  26.234  33.316   5.625  0.0311  0.1648  0.1482
30369W        W73286  28.500   3.144   7.106 -0.3337  0.0142  0.4519
30370W        W73287  29.428   1.423   4.351  0.0779 -0.4020 -0.2384
30371W        W73288  27.580   1.190   5.530 -0.4234 -0.3313  0.2314
30372W        W73289  25.240   1.238   4.954  0.1023 -0.1722 -0.0696
30373W        W73290  28.319   0.150   7.700 -0.1955 -0.1335 -0.2643
30374W        W73291  27.849   0.991   6.314  0.2763 -0.0461  0.1700
30375W        W73292  27.499  33.737   5.098  0.1370 -0.2672  0.1423
30376W        W73293  30.004   2.685   3.744 -0.2869 -0.1043  0.4549
30377W        W73294  26.800   3.033   7.980  0.0235  0.0758 -0.2740
30378W        W73295  27.014   1.554   5.316  0.3018 -0.3152 -0.2969
30379W        W73296  25.247   3.519   4.949 -0.1823 -0.1602  0.0609
30380W        W73297  27.960   1.445   2.495 -0.1413 -0.2382 -0.1628
30381W        W73298  27.672   0.611   4.864  0.0491 -0.1046 -0.2223
30382W        W73299  29.520   3.280   6.173 -0.0328  0.0373 -0.2501
30383W        W73300  27.598   1.438   2.950 -0.0663  0.2882  0.0498
30384W        W73301  25.436   0.711   6.353 -0.3306 -0.1770 -0.3648
30385W        W73302  22.717   4.495   1.059 -0.3522 -0.0337  0.2032
30386W        W73303  29.067   3.273   4.055  0.0531 -0.0632  0.1154
30387W        W73304  24.807   2.662   4.034  0.0261  0.3542  0.0946
30388W        W73305  28.428   2.583   6.219  0.2100  0.0215 -0.1668
30389W        W73306  28.087   0.365   4.794 -0.1238 -0.0363 -0.3597
30390W        W73307  29.884   0.578   4.676 -0.2941 -0.0029  0.1073
30391W        W73308  29.820  33.679   4.848 -0.2730 -0.0452 -0.4231
30392W        W73309  27.431   4.121   7.064 -0.0075  0.2305 -0.0081
30393W        W73310  25.231   0.314   5.282 -0.0391 -0.0281  0.1484
30394W        W73311  28.993   1.976   3.138  0.2685  0.0601 -0.0507
30395W        W73312  26.952   0.458   7.275 -0.1458 -0.1471  0.3337
30396W        W73313  26.838  34.062   5.903 -0.2349 -0.0437  0.2860
30397W        W73314  25.828   2.484   6.054  0.2273 -0.4507 -0.2953
30398W        W73315  28.518   3.482   5.259 -0.0672  0.0778  0.0169
30399W        W73316  26.394   1.639   2.207  0.2977  0.0257 -0.2142
30400W        W73317  26.739   3.264   5.243 -0.1264 -0.1889 -0.0534
30401W        W73318  29.593  33.901   4.501 -0.0947 -0.6121 -0.2169
30402W        W73319  28.718   1.695   4.679 -0.0331  0.0180  0.0370
30403W        W73320  26.801   0.537   4.579  0.2165  0.0640  0.1011
30404W        W73321  28.036   3.772   5.178  0.2257  0.1680  0.0922
30405W        W73322  23.713   4.065   3.623  0.3110  0.1823 -0.0625
30406W        W73323  27.076   4.750   3.596  0.1916  0.2140  0.0871
30407W        W73324  25.237   0.006   3.481  0.1376  0.0703  0.0317
30408W        W73325  29.341   0.428   4.718  0.0108  0.1543  0.0532
30409W        W73326  27.227   1.490   4.702 -0.0528 -0.0951 -0.0738
30410W        W73327  30.697  34.566   4.738 -0.0982 -0.0853  0.1443
30411W        W73328  24.464   2.177   3.772  0.2038 -0.0967 -0.0411
30412W        W73329  28.898  34.127   3.808 -0.0674  0.0656  0.0604
30413W        W73330  30.112   2.233   6.917  0.0883  0.1110  0.1642
30414W        W73331  26.087   5.621   4.520  0.0945 -0.1789 -0.0741
30415W        W73332  29.037   1.754   4.096  0.0191 -0.3214 -0.1590
30416W        W73333  30.785   2.660   7.317 -0.0496  0.0950 -0.0070
30417W        W73334  26.634   1.552   4.766  0.1908 -0.0285 -0.2574
30418W        W73335  27.434   3.946   6.203  0.0781  0.1731  0.0919
30419W        W73336  28.159  34.071   6.785 -0.2065  0.1983  0.1079
30420W        W73337  27.463   0.539   3.633  0.0532 -0.0708 -0.0087
30421W        W73338  25.931   1.976   5.942  0.2348 -0.1297 -0.0215
30422W        W73339  27.638   0.841   5.880  0.0740 -0.1916 -0.0607
30423W        W73340  27.272   3.651   8.356  0.1617  0.2354 -0.1099
30424W        W73341  22.979   3.770   4.767 -0.4113  0.0853 -0.1742
30425W        W73342  29.327   0.930   3.100 -0.2754  0.0640 -0.0835
30426W        W73343  28.573   0.856   4.309  0.0826  0.0580  0.1501
30427W        W73344  26.167   1.450   2.809 -0.1741  0.1383  0.1498
30428W        W73345  27.979   2.358   5.952 -0.2138  0.0806 -0.1059
30429W        W73346  30.449   1.484   5.041  0.0111 -0.0441 -0.2873
30430W        W73347  27.054   1.369   6.455  0.1059 -0.0237  0.1185
30431W        W73348  28.040   2.636   6.982 -0.2081 -0.1541 -0.3727
30432W        W73349  29.004   2.141   6.254 -0.0222 -0.2693  0.0283
30433W        W73350  27.612   0.760   4.043 -0.1508 -0.1274  0.0145
30434W        W73351  26.588   1.701   4.056 -0.2767 -0.1933  0.0833
30435W        W73352  26.010   2.518   5.556 -0.1247  0.0747 -0.1198
30436W        W73353  31.097   2.635   5.385  0.1813  0.0559 -0.0914
30437W        W73354  29.496   1.999   5.881 -0.1459  0.1631  0.0167
30438W        W73355  26.309   4.475   3.941 -0.0178  0.2202 -0.0864
30439W        W73356  30.008   0.767   5.623  0.2151  0.1151  0.1082
30440W        W73357  27.486   1.677   4.271 -0.0935  0.2149 -0.1198
30441W        W73358  25.324   2.974   7.981  0.2015 -0.1749  0.0385
30442W        W73359  25.995   2.067   4.102 -0.1197  0.0535 -0.1814
30443W        W73360  28.951   2.628   6.320  0.1604 -0.1704 -0.0372
30444W        W73361  27.422   1.980   4.658 -0.1531  0.3253  0.2377
30445W        W73362  27.330   3.230   4.480 -0.1029  0.1538 -0.0045
30446W        W73363  28.803   3.098   5.351 -0.2834  0.2500 -0.1735
30447W        W73364  27.158   0.210   4.771  0.3651 -0.2947 -0.0549
30448W        W73365  28.964   2.033   7.358  0.1786  0.1451  0.3242
30449W        W73366  28.079  33.102   3.323  0.3503  0.0571  0.0872
30450W        W73367  27.628  34.470   6.081 -0.3793  0.2185 -0.0526
30451W        W73368  28.283  33.530   4.589 -0.0372 -0.0129  0.0865
30452W        W73369  26.265   2.410   5.071  0.1246 -0.3979  0.1451
30453W        W73370  25.172   2.370   3.822  0.0051 -0.4363  0.0272
30454W        W73371  23.747   2.661   0.965  0.1072  0.2027  0.1289
30455W        W73372  27.922   3.038   5.517 -0.0698  0.0132 -0.2174
30456W        W73373  28.442   1.937   7.503  0.2694 -0.3498  0.0889
30457W        W73374  27.297   0.401   5.514  0.1888  0.0316  0.0309
30458W        W73375  25.976  34.271   5.468 -0.1591 -0.0696 -0.0738
30459W        W73376  28.791   0.035   4.872  0.1595  0.0226 -0.2147
30460W        W73377  28.850   2.945   3.204 -0.0536  0.0868  0.2288
30461W        W73378  28.484  34.545   3.953 -0.3377  0.3186  0.1960
30462W        W73379  26.174  33.543   6.052 -0.1829 -0.1840 -0.1710
30463W        W73380  28.536   0.045   5.484  0.1929 -0.0014  0.1878
30464W        W73381  29.516   1.952   2.496 -0.1974 -0.0059 -0.0608
30465W        W73382  26.353   0.218   4.630  0.1780  0.0916  0.0685
30466W        W73383  28.209   4.746   7.354  0.1494  0.2750  0.1983
30467W        W73384  23.868   1.426   3.650  0.2097  0.3571  0.3864
30468W        W73385  28.811  34.504   6.456 -0.3008  0.1642  0.1357
30469W        W73386  28.146  34.419   5.501  0.1397 -0.2557 -0.3726
30470W        W73387  26.080   1.322   2.358  0.3141  0.0241 -0.0839
30471W        W73388  27.722   0.698   5.426  0.1738  0.0387  0.1992
30472W        W73389  27.094   2.911   5.895  0.0840  0.1318 -0.0662
30473W        W73390  29.126   2.302   3.882 -0.0272 -0.2173 -0.0549
30474W        W73391  28.000   1.801   4.926 -0.2512  0.1066 -0.0620
30475W        W73392  28.062   2.264   7.468  0.3171  0.0710 -0.0009
30476W        W73393  26.760  34.587   5.998 -0.2812 -0.0220  0.0045
30477W        W73394  28.484   2.957   4.712  0.1244 -0.1534  0.1193
30478W        W73395  28.238   2.011   6.255  0.2754 -0.2750  0.1849
30479W        W73396  30.064   4.884   2.815 -0.2369 -0.0040  0.1537
30480W        W73397  32.668   0.141   4.588  0.0752  0.1871 -0.1808
30481W        W73398  26.301   1.725   4.435 -0.2221 -0.0330  0.4222
30482W        W73399  28.382  33.728   5.139 -0.0132 -0.3480 -0.0080
30483W        W73400  26.808   2.045   9.635 -0.0225  0.1214  0.0711
30484W        W73401  28.252   1.551   5.936 -0.1777  0.0168 -0.1066
30485W        W73402  28.641  34.274   4.715 -0.0702  0.1384  0.1826
30486W        W73403  27.668   0.019   5.075  0.0418 -0.1325 -0.0082
30487W        W73404  29.349   2.550   4.706  0.2026  0.2836 -0.0078
30488W        W73405  25.040  34.355   5.406 -0.2378 -0.3156  0.1113
30489W        W73406  29.084   0.736   4.417  0.0466 -0.3033  0.3132
30490W        W73407  28.562   0.401   5.152 -0.2323  0.1719 -0.0592
30491W        W73408  29.467   1.639   5.236  0.1260  0.0139  0.1295
30492W        W73409  28.265   2.780   7.411  0.1912 -0.0450 -0.2704
30493W        W73410  26.013   0.718   3.408 -0.3059 -0.0396 -0.1986
30494W        W73411  31.082   0.814   5.061 -0.0055  0.3148  0.0057
30495W        W73412  28.625   2.266   6.537  0.2149 -0.1676  0.2943
30496W        W73413  26.967   3.020   7.443  0.0124  0.1698  0.0442
30497W        W73414  28.083   5.587   7.352  0.1828  0.0686 -0.1157
30498W        W73415  28.463   1.341   4.432 -0.1311  0.0035 -0.2764
30499W        W73416  24.642   1.023   5.640  0.1946 -0.2350  0.4431
30500W        W73417  26.701   4.690   4.651  0.2311 -0.1695 -0.0192
30501W        W73418  26.876   0.836   4.187  0.1569 -0.1344  0.3688
30502W        W73419  28.566   0.782   5.538 -0.1858  0.1981 -0.0754
30503W        W73420  28.493   1.836   3.358  0.2170  0.0833 -0.2022
30504W        W73421  28.062  34.389   3.192  0.0111 -0.1722  0.2839
30505W        W73422  25.843   4.361   6.406 -0.0375  0.0580 -0.0533
30506W        W73423  29.557   1.516   5.751  0.3419 -0.0529 -0.1055
30507W        W73424  27.610   1.593   8.722  0.0585 -0.1878  0.0060
30508W        W73425  25.635   1.385   8.214  0.0669 -0.3389 -0.1919
30509W        W73426  28.763   1.586   6.025  0.0394 -0.0948  0.0045
30510W        W73427  28.298   1.427   6.889  0.1973 -0.1463  0.2222
30511W        W73428  23.402  34.575   6.885  0.0166  0.1256  0.1723
30512W        W73429  28.550   1.360   8.837  0.1150 -0.3544  0.2136
30513W        W73430  27.152  33.315   9.476 -0.0865 -0.2444  0.0165
30514W        W73431  31.058   2.730   9.289 -0.5884 -0.3698  0.2857
30515W        W73432  28.457   1.185   5.312 -0.0742 -0.1166  0.3258
30516W        W73433  25.483   0.548   9.136  0.1898  0.1090 -0.1586
30517W        W73434  26.390   1.495   8.546 -0.4235 -0.2587 -0.2970
30518W        W73435  25.223  34.278   6.582 -0.2086  0.3105 -0.0316
30519W        W73436  29.052   0.401   8.535 -0.0141 -0.2561 -0.1470
30520W        W73437  25.569   2.820   8.511 -0.0236  0.0398 -0.0103
30521W        W73438  29.258   0.805   9.560 -0.3264  0.2574 -0.0544
30522W        W73439  27.138   0.209   8.403 -0.2734 -0.5324 -0.2099
30523W        W73440  27.310   2.660   9.614  0.3538  0.2119 -0.0508
30524W        W73441  28.358   3.129   9.143  0.0914  0.0023  0.1565
30525W        W73442  27.935   3.748   7.530 -0.0627  0.0045  0.2629
30526W        W73443  25.886   1.595   6.240 -0.0451 -0.4090  0.2333
30527W        W73444  25.063   0.785   8.158 -0.0748  0.0513 -0.1474
30528W        W73445  28.790   1.139   9.431 -0.0584 -0.0494 -0.0459
30529W        W73446  27.405   1.055   9.307 -0.2550 -0.1497 -0.0763
30530W        W73447  29.813   0.573   8.365  0.2210 -0.0550  0.0037
30531W        W73448  27.985   3.456   9.953 -0.3012 -0.2129  0.0703
30532W        W73449  29.659   3.987   9.943 -0.0572  0.0459 -0.0219
30533W        W73450  26.568   2.656   8.571 -0.1936 -0.1956 -0.3565
30534W        W73451  26.468   1.776  10.072  0.2125 -0.1265  0.0754
30535W        W73452  29.977   3.413   7.411 -0.1435  0.1539  0.1035
30536W        W73453  30.497   1.491   6.550  0.1879 -0.0295  0.1177
30537W        W73454  27.626   2.547   8.205 -0.2693  0.1180  0.0887
30538W        W73455  29.790   0.053   8.484 -0.1430 -0.0667 -0.1570
30539W        W73456  28.715   1.090   7.773  0.1035 -0.2016 -0.1474
30540W        W73457  26.221   2.694   6.909 -0.0205 -0.2278 -0.0912
30541W        W73458  28.839   2.169   8.606 -0.1399  0.2929  0.0421
30542W        W73459  27.453   2.870   7.712  0.0570  0.1580  0.3108
30543W        W73460  26.605   1.684   6.569 -0.0434 -0.2586  0.1432
30544W        W73461  25.375   0.273   6.132 -0.2607 -0.2838 -0.0024
30545W        W73462  27.509   0.911   7.814 -0.1431 -0.0079  0.1251
30546W        W73463  28.451   1.098   8.232 -0.1715  0.0905 -0.2360
30547W        W73464  27.443   0.258   8.886 -0.2185 -0.4090 -0.2829
30548W        W73465  24.417   3.747   8.804 -0.3882  0.1587 -0.0979
30549W        W73466  27.634  34.221   9.571 -0.1729 -0.0857  0.0756
30550W        W73467  28.199   1.680   8.872  0.2499  0.0569 -0.0777
30551W        W73468  32.635   1.068  12.594 -0.0336 -0.0607 -0.0537
30552W        W73469  28.089   3.969   8.810  0.0121  0.1741  0.0540
30553W        W73470  28.362   3.767   9.185 -0.2291 -0.0670  0.1487
30554W        W73471  29.967   4.603   8.323  0.1079  0.0204 -0.2263
30555W        W73472  28.360   3.307   7.641  0.0309 -0.2781  0.2134
30556W        W73473  29.689   2.529   7.290 -0.1940 -0.1014  0.0129
30557W        W73474  26.141  34.553   9.635  0.4426 -0.0231  0.0305
30558W        W73475  26.561  33.600   5.126  0.0071 -0.1046 -0.0861
30559W        W73476  28.350  31.957   7.873  0.0365 -0.0193 -0.0739
30560W        W73477  28.086   1.669   9.520 -0.1658 -0.1233  0.1483
30561W        W73478  29.437   1.401   8.062  0.1450 -0.4603 -0.2531
30562W        W73479  31.182   2.799   6.665 -0.0946 -0.2107 -0.3177
30563W        W73480  26.542  33.054   9.019  0.2160 -0.0746 -0.1207
30564W        W73481  26.995  33.018   8.014 -0.0208 -0.3704 -0.3694
30565W        W73482  26.405   1.479   6.978  0.0734  0.0630 -0.0005
30566W        W73483  27.561   3.258   8.651  0.0302 -0.1690  0.3106
30567W        W73484  28.765   3.991  10.005 -0.0148  0.0701  0.1164
30568W        W73485  27.989   0.791   8.408  0.2827  0.0923 -0.2418
30569W        W73486  27.068   2.524   9.094  0.0716 -0.1725 -0.0724
30570W        W73487  25.744   2.244   8.458 -0.1788  0.1401  0.0570
30571W        W73488  25.033  34.084   8.090  0.2867 -0.1546  0.0374
30572W        W73489  27.561   1.447   6.428  0.2088  0.0485  0.0142
30573W        W73490  27.382  34.104   8.424  0.3688  0.1113  0.1461
30574W        W73491  28.908   3.074  10.190 -0.0286  0.2880 -0.0886
30575W        W73492  24.471   0.218   9.049 -0.0853  0.1259 -0.1118
30576W        W73493  28.813   0.245   7.478  0.0219  0.1023  0.2051
30577W        W73494  27.062   3.496   7.368 -0.1604  0.1001  0.0191
30578W        W73495  31.549   3.643   8.087  0.0064 -0.0969  0.2343
30579W        W73496  29.787   0.661   7.648 -0.0072  0.1380  0.2896
30580W        W73497  27.990   1.110   8.026  0.1039 -0.1078  0.1491
30581W        W73498  26.330  33.895   9.176  0.2868  0.3129 -0.0079
30582W        W73499  28.264   1.242   9.253  0.0573 -0.0759  0.0025
30583W        W73500  26.177   1.029   8.950 -0.1490 -0.1724  0.0364
30584W        W73501  26.281   1.001   5.232  0.1535  0.1309 -0.2014
30585W        W73502  27.805   1.890   9.083 -0.4251 -0.0629  0.0541
30586W        W73503  28.403   0.803   9.478  0.0937  0.0800  0.2689
30587W        W73504  25.810   2.613   7.155  0.1316  0.4875 -0.2644
30588W        W73505  27.623   4.436   6.329 -0.1041  0.1916  0.0369
30589W        W73506  27.762   4.031   9.303 -0.1560 -0.1460  0.2362
30590W        W73507  28.350   0.688   7.925  0.0205 -0.1543  0.2553
30591W        W73508  28.243   3.920   9.728 -0.0799 -0.1121 -0.0211
30592W        W73509  27.539  34.549   6.644  0.1663 -0.0429 -0.0192
30593W        W73510  27.577   3.069   8.176 -0.1387 -0.1834  0.2026
30594W        W73511  26.675   3.731   7.588  0.1027  0.1214 -0.1088
30595W        W73512  28.648  34.557   5.952  0.2626  0.0223 -0.3475
30596W        W73513  28.288   4.475   9.909 -0.0017 -0.1717 -0.0619
30597W        W73514  28.599   2.424   8.246  0.1264 -0.3268  0.0293
30598W        W73515  31.594   2.532   9.239  0.0636  0.1196  0.0126
30599W        W73516  27.281   2.153   8.294 -0.0999 -0.5288 -0.1793
30600W        W73517  26.854   1.208   6.920 -0.0325  0.0918  0.1451
30601W        W73518  27.719   2.610   7.345  0.2054  0.2061  0.2075
30602W        W73519  24.255   2.217   6.991  0.0934 -0.0247  0.0882
30603W        W73520  27.462   2.338   8.871 -0.1923  0.0159  0.0742
30604W        W73521  27.475   4.123   8.367  0.1179  0.1895  0.0852
30605W        W73522  25.493   0.283   8.715 -0.0249  0.2958 -0.0841
30606W        W73523  29.215   0.462   9.048  0.2388 -0.0140  0.0434
30607W        W73524  25.376  33.231   6.646 -0.0939  0.0980  0.0658
30608W        W73525  30.167   1.852   6.442  0.1435 -0.0349 -0.0588
30609W        W73526  29.164   1.845   7.872 -0.2365 -0.2066 -0.0626
30610W        W73527  27.195  34.266   7.045 -0.1560 -0.1889 -0.0625
30611W        W73528  29.848   1.022   6.319 -0.1204  0.2546 -0.0006
30612W        W73529  29.054   1.533   9.153  0.0841 -0.0457  0.0306
30613W        W73530  28.357   2.096   8.568 -0.2874 -0.1799  0.1279
30614W        W73531  26.625   0.719   6.032  0.0119 -0.0518 -0.0393
30615W        W73532  29.968   4.305   7.909 -0.0404 -0.1129  0.1648
30616W        W73533  27.825  33.698   9.289  0.0908  0.0636 -0.0527
30617W        W73534  29.675   1.983   7.991 -0.3231  0.2751 -0.0620
30618W        W73535  25.761  33.295   8.871  0.0271 -0.0041  0.1665
30619W        W73536  28.915   1.326   8.425 -0.1687  0.2353  0.3912
30620W        W73537  27.433  33.441   7.173 -0.0811 -0.1154 -0.1705
30621W        W73538  24.551   3.346   8.252  0.0285 -0.1663  0.0313
30622W        W73539  28.974  33.372   9.546 -0.1550 -0.2016 -0.0149
30623W        W73540  27.668  33.658   8.128 -0.0899 -0.0085  0.0123
30624W        W73541  29.238   0.089   9.322 -0.2132  0.0605  0.0083
30625W        W73542  27.508   0.572   9.300 -0.1360 -0.1596  0.3407
30626W        W73543  28.275   1.047   6.064  0.1013  0.3369  0.1768
30627W        W73544  24.649   4.668   8.741  0.0598  0.0293 -0.2478
30628W        W73545  28.573   1.676   9.355 -0.0517  0.0076 -0.1144
30629W        W73546  29.462   1.252   8.855  0.2916 -0.0516  0.2743
30630W        W73547  28.035  33.601   6.689  0.0446 -0.1052 -0.2405
30631W        W73548  27.985   1.605   8.167  0.2206  0.2467 -0.1519
30632W        W73549  27.392   1.698   5.609 -0.1013 -0.0100  0.0116
30633W        W73550  26.915   1.208   9.328  0.1456  0.1059  0.1277
30634W        W73551  29.016   0.016   8.856 -0.1785  0.1205  0.0306
30635W        W73552  27.892   2.176   7.962  0.0480 -0.0765  0.0640
30636W        W73553  29.860   2.023   8.505 -0.0061 -0.0958 -0.2159
30637W        W73554  27.306   4.493   7.444  0.2327  0.0647 -0.0172
30638W        W73555  28.578  34.478   7.424  0.0130 -0.4026 -0.3099
30639W        W73556  28.925   2.983   9.109 -0.1198  0.1055  0.3143
30640W        W73557  25.581   1.693   7.364  0.0299  0.0511  0.0403
30641W        W73558  27.508   0.373   5.989  0.1069  0.0565 -0.2122
30642W        W73559  27.637   0.323   8.334  0.6020  0.0468 -0.1285
30643W        W73560  29.366   1.788   8.440 -0.1826  0.0312  0.0719
30644W        W73561  26.044  33.466   7.858 -0.1226 -0.0654 -0.0183
30645W        W73562  27.589  34.372   7.566 -0.2569  0.2135 -0.4046
30646W        W73563  26.072   2.707   8.540 -0.1020 -0.0152  0.0262
30647W        W73564  27.585   2.112   7.377  0.0432 -0.0327  0.1898
30648W        W73565  27.208   0.845   6.978 -0.1723  0.1178 -0.0937
30649W        W73566  29.997   1.895   9.014 -0.3623 -0.0189  0.2337
30650W        W73567  28.448   0.638   8.495  0.2431  0.2826 -0.4776
30651W        W73568  24.393   2.511   8.855 -0.0943  0.3639  0.0070
30652W        W73569  27.149   1.919   8.772 -0.1628 -0.1889 -0.3421
30653W        W73570  26.080   1.818   6.759 -0.2450 -0.2738 -0.0681
30654W        W73571  29.267   2.341   7.709 -0.1620  0.0313 -0.1729
30655W        W73572  30.159   3.617   9.093 -0.2476 -0.0170 -0.1564
30656W        W73573  28.232   0.897   8.894 -0.1370  0.0623  0.2647
30657W        W73574  26.757   0.497   8.764 -0.2513  0.2879 -0.1246
30658W        W73575  28.703   0.100   9.243  0.3216  0.0831  0.2432
30659W        W73576  30.148   1.606   9.388 -0.3811 -0.1129  0.0119
30660W        W73577  27.091   0.173   7.671  0.2441  0.0022 -0.0734
30661W        W73578  27.667  34.522   8.465 -0.2315  0.0359 -0.0532
30662W        W73579  27.922   4.211   7.679  0.0746  0.2649  0.1114
30663W        W73580  26.710   1.923   8.561  0.1394  0.2449  0.0678
30664W        W73581  28.894  33.974   8.466  0.0344 -0.0240  0.0804
30665W        W73582  26.113   1.829   7.377 -0.1261 -0.0085 -0.0254
30666W        W73583  27.380  32.934   9.333  0.1857  0.0217  0.1373
30667W        W73584  25.551   5.157   9.020 -0.2503 -0.3788 -0.1038
30668W        W73585  27.428   2.366   7.801 -0.0809 -0.2313 -0.1460
30669W        W73586  27.969   6.175   8.868 -0.2158  0.0779 -0.0560
30670W        W73587  27.478   2.174   5.717  0.1824  0.0564 -0.0057
30671W        W73588  27.168   1.651   7.714  0.0604  0.0319 -0.1784
30672W        W73589  26.024   0.969   7.681 -0.0128  0.2743  0.3059
30673W        W73590  27.609   2.353   6.275  0.1567  0.0205 -0.1777
30674W        W73591  27.491  33.634   9.747  0.1692 -0.0125  0.0337
30675W        W73592  27.996   1.263   8.565 -0.1125 -0.3854  0.0373
30676W        W73593  29.057  34.435   7.307  0.1527  0.2655 -0.2625
30677W        W73594  25.676  33.515   6.192  0.0114 -0.0243 -0.0013
30678W        W73595  29.492   0.698   8.734 -0.1820  0.1339 -0.1027
30679W        W73596  29.176   2.287   8.185  0.2400 -0.4018  0.0593
30680W        W73597  26.472   4.406   8.117 -0.2982  0.0971  0.1015
30681W        W73598  29.515   0.076   8.923 -0.1201 -0.1172  0.3649
30682W        W73599  24.278   2.113   8.522  0.2182  0.0606  0.1205
30683W        W73600  27.768   0.434   7.686  0.1666 -0.1635 -0.1193
30684W        W73601  29.208   0.997   7.891  0.2350  0.2813  0.1211
30685W        W73602  27.115   1.237   8.024  0.2673 -0.0205 -0.3498
30686W        W73603  28.870   0.887   9.868 -0.0068 -0.0218  0.0957
30687W        W73604  27.472   0.817   8.341  0.0484  0.1862 -0.1130
30688W        W73605  31.065   3.636   8.933 -0.1790  0.1138 -0.1431
30689W        W73606  31.326   2.833   7.195  0.4234  0.0005 -0.1201
30690W        W73607  25.268  32.344   8.490  0.0804  0.0434 -0.0801
30691W        W73608  26.590   1.860   7.601 -0.1425  0.0343 -0.2551
30692W        W73609  26.974   0.677   7.706  0.2160 -0.1954  0.2292
30693W        W73610  26.262   2.238   8.481  0.0739 -0.3343 -0.2448
30694W        W73611  26.283   1.304   6.397  0.0656  0.1767  0.0930
30695W        W73612  27.789   3.278   7.787 -0.1520  0.0014  0.0940
30696W        W73613  29.986   2.236   7.677  0.3159 -0.0953  0.2193
30697W        W73614  28.387   2.027   9.759 -0.3194 -0.1937  0.1739
30698W        W73615  25.083   0.280   8.264  0.1135 -0.4357  0.0407
30699W        W73616  27.295   1.185   7.442  0.0118  0.0887 -0.0250
30700W        W73617  27.652   1.700   6.825  0.1278  0.0582  0.1175
30701W        W73618  30.206   1.209   7.876  0.0077  0.0040  0.0165
30702W        W73619  27.329  34.014   5.831 -0.0627 -0.0769  0.2113
30703W        W73620  26.907   4.090   7.385  0.1419 -0.1454  0.2410
30704W        W73621  27.015  33.656   8.484 -0.0855 -0.1196 -0.0392
30705W        W73622  25.630   4.309   8.671  0.0939  0.1501  0.2577
30706W        W73623  29.121   3.253   7.749 -0.0108  0.0534  0.0345
30707W        W73624  25.944   0.707   9.347 -0.2074  0.2358 -0.0865
30708W        W73625  25.983   0.313   8.403  0.0741  0.1253 -0.4321
30709W        W73626  27.498   1.514   9.533  0.1408  0.1138  0.1029
30710W        W73627  28.191   2.511   9.674 -0.1106 -0.0360  0.3456
30711W        W73628  29.818   0.994   8.094  0.0741  0.0540  0.1219
30712W        W73629  27.571   3.715   9.661  0.0692 -0.4106  0.2374
30713W        W73630  28.131  34.650   8.700 -0.2037 -0.1083 -0.1790
30714W        W73631  26.714   2.310   8.225  0.1350 -0.0600 -0.0110
30715W        W73632  28.652   4.019   6.869  0.1041 -0.1410 -0.0487
30716W        W73633  24.146  31.145   8.666 -0.0020  0.1774  0.1007
30717W        W73634  25.730   3.679   7.680 -0.0567  0.0515  0.2364
30718W        W73635  28.357   2.494   7.823 -0.0030  0.0046 -0.1317
30719W        W73636  26.997   2.436   8.636  0.0332 -0.2628  0.1957
30720W        W73637  29.905   2.459   8.120 -0.2777  0.1181 -0.0693
30721W        W73638  28.064   0.923   7.570 -0.1252  0.0979  0.0420
30722W        W73639  26.959   2.103   7.852  0.3265 -0.1577  0.1784
30723W        W73640  23.947   2.103   7.488 -0.0518 -0.1813  0.1136
30724W        W73641  28.651   2.477   7.266  0.2558 -0.1024  0.1904
30725W        W73642  26.253   3.306   9.440  0.0003 -0.2234 -0.0732
30726W        W73643  28.548   0.840   7.413 -0.0182  0.3016  0.1881
30727W        W73644  30.908   1.148   6.796  0.4540 -0.0712 -0.2050
30728W        W73645  30.652   0.396   7.315  0.2210 -0.0835  0.0785
30729W        W73646  24.395   1.331   9.164  0.1655 -0.2858  0.0986
30730W        W73647  28.566  34.117   5.739 -0.0257 -0.1010 -0.0360
30731W        W73648  29.369   5.302   7.871  0.0205  0.0170 -0.1715
30732W        W73649  25.319   1.053   6.722  0.0558 -0.3617  0.0043
30733W        W73650  26.854   0.025   8.065  0.1526  0.1596 -0.3842
30734W        W73651  29.172  33.354   8.630 -0.2957  0.0481  0.2174
30735W        W73652  27.292   2.845   7.060  0.2529 -0.2199  0.2247
30736W        W73653  26.346   1.467   7.693  0.0033  0.1419  0.0861
30737W        W73654  27.280   3.348   7.842  0.2484 -0.0736  0.3304
30738W        W73655  29.380   1.956   8.974 -0.2736  0.2575  0.0524
30739W        W73656  29.477   2.689   9.579  0.2479 -0.0186  0.0116
30740W        W73657  25.888   1.306   7.280  0.2889  0.3276  0.3732
30741W        W73658  29.212   1.175   6.992 -0.1918  0.1268 -0.0338
30742W        W73659  31.875   2.254   9.601  0.0455  0.0584 -0.1599
30743W        W73660  28.914   0.628   7.783 -0.0302  0.0338 -0.2484
30744W        W73661  28.554   0.172   8.598  0.1460  0.0121  0.0719
30745W        W73662  28.874   0.469   9.506  0.0389 -0.1012 -0.0520
30746W        W73663  25.739   3.043   9.003  0.1628 -0.0962  0.2598
30747W        W73664  27.586   1.105   8.817  0.0515 -0.1186  0.1303
30748W        W73665  28.968   1.503   6.679  0.3005 -0.1023 -0.2382
30749W        W73666  25.496  33.822   9.039 -0.2580 -0.1445 -0.1318
30750W        W73667  29.275   1.169   9.932 -0.0751  0.1179  0.1360
30751W        W73668  24.874   2.736   8.803 -0.2309 -0.1435 -0.0674
30752W        W73669  28.887   3.270   8.670  0.2759  0.1146  0.1732
30753W        W73670  25.671  33.915   7.654 -0.1905 -0.0492 -0.0350
30754W        W73671  29.468   2.170   6.993 -0.0088  0.1077  0.3311
30755W        W73672  29.684   0.429   9.266 -0.2603 -0.0939 -0.2992
30756W        W73673  25.539   2.701   6.465  0.2064 -0.2006  0.0555
30757W        W73674  29.575   1.090   7.559 -0.0029  0.1859 -0.0101
30758W        W73675  28.642   3.826   8.727 -0.2329  0.2351 -0.4313
30759W        W73676  26.672   1.067   7.815  0.0361  0.1004 -0.1202
30760W        W73677  28.227   2.175   9.215 -0.0221  0.2497 -0.1975
30761W        W73678  29.183   2.457   9.203  0.1948  0.0378 -0.3840
30762W        W73679  28.696   0.310   8.116 -0.0194  0.4296 -0.2593
30763W        W73680  26.886   0.598   8.219 -0.0674  0.0326  0.2906
30764W        W73681  24.598   1.659   8.796  0.0849 -0.0029 -0.0597
30765W        W73682  27.582  34.132   8.926 -0.2140  0.0701 -0.2518
30766W        W73683  27.752   1.896   6.363 -0.2933 -0.2096 -0.2954
30767W        W73684  29.304   3.373  10.210 -0.3046 -0.2402  0.1939
30768W        W73685  28.117   1.880   6.686  0.2731 -0.2516  0.3215
30769W        W73686  29.867   3.069   7.081 -0.3560  0.0510 -0.1751
30770W        W73687  27.011   2.026   7.278  0.1092 -0.1072  0.1590
30771W        W73688  30.375   0.758   8.425 -0.0044 -0.3094  0.0110
30772W        W73689  25.939   1.498   8.845  0.4164  0.4200 -0.0765
30773W        W73690  30.355   2.372   9.520  0.0781  0.1404 -0.1848
30774W        W73691  26.243  33.433   9.008 -0.1666 -0.0253  0.3427
30775W        W73692  29.735   0.478   7.102 -0.1265 -0.1767  0.0345
30776W        W73693  26.151   1.215   8.090 -0.0498 -0.0172 -0.2218
30777W        W73694  29.844   1.250   9.526  0.1551  0.0649 -0.2639
30778W        W73695  26.727   0.547   5.474 -0.0874 -0.2662 -0.1664
30779W        W73696  25.017   2.728   6.504 -0.1548 -0.0712 -0.2032
30780W        W73697  26.036   3.628   8.127  0.4860  0.2782  0.2183
30781W        W73698  29.873   2.929   8.660 -0.0038 -0.0345 -0.0401
30782W        W73699  27.136   1.160   8.518 -0.0757 -0.1713 -0.0434
30783W        W73700  27.922   3.532   9.353 -0.0346 -0.0647 -0.0438
30784W        W73701  27.685  33.250   8.514 -0.2441  0.1690  0.0018
30785W        W73702  26.768   0.119   9.071  0.1270 -0.2065 -0.0244
30786W        W73703  27.592   1.304   8.290 -0.1112  0.4656 -0.2567
30787W        W73704  29.346   2.922   7.462  0.0349  0.0574  0.0724
30788W        W73705  28.210   0.921   7.075 -0.1234  0.0491  0.1173
30789W        W73706  26.534   2.297   9.038 -0.1812 -0.0708 -0.0028
30790W        W73707  24.860  32.661   7.495 -0.0845 -0.0986  0.0125
30791W        W73708  27.290  33.768   9.294  0.0662  0.2256 -0.0376
30792W        W73709  27.121   2.623   8.117  0.1404 -0.3029  0.2081
30793W        W73710  26.794   4.465   5.432  0.1121 -0.0238  0.1490
30794W        W73711  24.103  33.639   8.984 -0.3749  0.0368 -0.3204
30795W        W73712  29.132   4.846   8.634  0.0764  0.3020  0.1092
30796W        W73713  29.216   3.802   7.045  0.1581  0.0265 -0.0699
30797W        W73714  29.170  33.867   9.401  0.1726 -0.1390 -0.0374
30798W        W73715  27.838   1.413   9.161  0.2051 -0.2361  0.3293
30799W        W73716  31.470   3.085   9.399  0.2310 -0.1969 -0.0849
30800W        W73717  27.698  32.574   6.867  0.0270  0.1940  0.1052
30801W        W73718  27.335   0.487   7.985  0.0212  0.0513  0.0401
30802W        W73719  27.998   1.778   7.295  0.0210 -0.4663 -0.1540
30803W        W73720  26.083   1.835   9.642 -0.1967 -0.0884 -0.2282
30804W        W73721  26.505   1.966   7.044 -0.1975 -0.1369  0.0789
30805W        W73722  28.514   2.866   8.589  0.1802  0.0937 -0.0245
30806W        W73723  26.847   0.946   7.307  0.0026 -0.1936 -0.3461
30807W        W73724  29.900   2.938   8.109 -0.0168 -0.0012  0.2256
30808W        W73725  28.537   4.773   9.213 -0.1577  0.3325  0.0391
30809W        W73726  28.659   0.540   8.962 -0.1119  0.2899 -0.1138
30810W        W73727  30.405   1.122   9.452  0.3343 -0.1015 -0.0804
30811W        W73728  27.760  34.604   9.057  0.0367  0.1575 -0.0744
30812W        W73729  26.717   1.625   8.096 -0.2900 -0.1463 -0.0849
30813W        W73730  29.417   2.049   9.479  0.0557 -0.0219 -0.1725
30814W        W73731  31.704  33.778   9.795  0.1977 -0.3208  0.0480
30815W        W73732  26.070   5.624   9.405  0.2700  0.3205  0.2709
30816W        W73733  29.227   0.229   7.152  0.2237 -0.1541 -0.0957
30817W        W73734  27.441   3.245   7.331  0.2063 -0.0391  0.0244
30818W        W73735  27.867   0.505   7.175  0.1817  0.2559 -0.2889
30819W        W73736  26.268   5.603   2.334 -0.1571 -0.0161  0.0135
30820W        W73737  26.792   4.586  31.352 -0.0784 -0.0791  0.1123
30821W        W73738  27.534   4.128  30.654  0.1947  0.0517 -0.2816
30822W        W73739  29.023   5.701  31.141  0.1071 -0.1181 -0.2230
30823W        W73740  26.317   4.537   2.365 -0.0464  0.0656 -0.0079
30824W        W73741  28.054   6.429   1.158 -0.0666 -0.1254  0.2258
30825W        W73742  26.757   5.643   2.947 -0.0671  0.0800 -0.0358
30826W        W73743  28.824   6.682   2.205 -0.1775 -0.5025  0.0611
30827W        W73744  29.230   5.528   1.392  0.0829 -0.0118 -0.2223
30828W        W73745  27.852   5.665   0.181 -0.0468 -0.5797  0.3053
30829W        W73746  27.528   4.694   0.308 -0.0459 -0.1056 -0.0810
30830W        W73747  29.934   5.035   1.429  0.1137 -0.1347  0.0450
30831W        W73748  25.673   3.172   1.861  0.0134 -0.0810 -0.2254
30832W        W73749  27.298   3.870   2.203 -0.0721  0.0555 -0.1092
30833W        W73750  28.759   5.147   0.892  0.0946  0.0727 -0.1844
30834W        W73751  26.578   6.266  31.726 -0.1023 -0.1666  0.1465
30835W        W73752  27.733   7.094  31.485 -0.3560 -0.0993 -0.2974
30836W        W73753  26.706   5.134   1.149 -0.3372 -0.2153  0.0065
30837W        W73754  26.826   8.478  31.938  0.0339  0.0636 -0.1895
30838W        W73755  27.690   2.237   1.342 -0.3641  0.2683  0.0499
30839W        W73756  27.664   4.431   3.411  0.1937  0.1846 -0.1080
30840W        W73757  26.897   7.530   0.490  0.0144  0.1397 -0.2145
30841W        W73758  23.814   5.204   0.766  0.4133  0.1942  0.2456
30842W        W73759  26.153   6.052   2.918  0.1844  0.3044 -0.1182
30843W        W73760  29.147   4.085   2.390 -0.0163 -0.1767 -0.0516
30844W        W73761  26.671   3.681   0.151 -0.0490  0.2158 -0.0353
30845W        W73762  28.345   6.705   0.721  0.1193  0.3810 -0.2339
30846W        W73763  26.185   9.339   2.127  0.4327 -0.1523  0.4036
30847W        W73764  27.937   7.804   1.244 -0.0811  0.0536 -0.0690
30848W        W73765  26.646   4.465   1.895 -0.0834  0.0656 -0.1437
30849W        W73766  26.544   6.139   1.017 -0.0108  0.1493  0.3167
30850W        W73767  22.772   8.444   3.374  0.0761 -0.3066 -0.2256
30851W        W73768  27.544   7.387  31.833 -0.0397  0.2350  0.2751
30852W        W73769  30.451   6.203   0.437  0.1587  0.1310 -0.0815
30853W        W73770  26.647   6.620   1.166  0.0888 -0.0404 -0.1447
30854W        W73771  27.647   7.329   2.467  0.3965  0.0945 -0.0265
30855W        W73772  26.482   8.199   0.238 -0.1131  0.1862 -0.4189
30856W        W73773  27.102   6.825   2.792 -0.1932 -0.1768  0.0084
30857W        W73774  27.595   5.716   2.962  0.0497  0.1516  0.1409
30858W        W73775  29.751   4.205   2.018 -0.1430 -0.1287 -0.0676
30859W        W73776  25.704   5.589   0.666  0.3430  0.3224 -0.1519
30860W        W73777  27.935   6.867   0.991 -0.1842 -0.1930  0.3033
30861W        W73778  27.265   5.386   0.314 -0.0839  0.0999 -0.0534
30862W        W73779  27.063   6.298   2.576 -0.0875 -0.1674 -0.1767
30863W        W73780  27.424   8.177   1.082 -0.0487 -0.1828 -0.2047
30864W        W73781  31.624   5.447   2.020 -0.1115  0.0360  0.1117
30865W        W73782  24.166   8.064   0.411  0.0165  0.3125 -0.5548
30866W        W73783  26.789   4.048  31.171  0.0355  0.2777 -0.5317
30867W        W73784  24.627   3.980  30.991  0.0522 -0.1166  0.2401
30868W        W73785  31.768   3.371   0.009  0.2155 -0.2530 -0.0625
30869W        W73786  27.556   2.658   2.148 -0.0584  0.1914  0.2698
30870W        W73787  27.080   5.139   2.327 -0.2585  0.0622 -0.0672
30871W        W73788  25.693   3.135   2.792 -0.1267  0.0255  0.2068
30872W        W73789  29.385   4.580   2.215 -0.1625 -0.1493 -0.0375
30873W        W73790  28.688   2.514   0.395 -0.1624 -0.0535  0.4200
30874W        W73791  28.686   5.543   0.017 -0.1887 -0.0031  0.2059
30875W        W73792  26.032   7.357   3.801 -0.0281 -0.2381 -0.3086
30876W        W73793  23.842   4.897   1.804 -0.1671 -0.0432 -0.2321
30877W        W73794  28.471   8.310   0.267  0.0475 -0.2658 -0.5453
30878W        W73795  28.362   6.931   2.169  0.1413  0.0143 -0.0295
30879W        W73796  25.740   6.048   1.559 -0.2020  0.2650  0.1536
30880W        W73797  27.413   7.449   0.423  0.1307  0.3150  0.2001
30881W        W73798  27.191   6.322   4.127  0.1773  0.2212 -0.5617
30882W        W73799  25.372   5.918   0.837  0.1269 -0.2066  0.3008
30883W        W73800  26.453   2.548  30.353 -0.2136  0.0142 -0.3923
30884W        W73801  31.754   7.649   2.564  0.2221 -0.2345  0.2237
30885W        W73802  26.731   6.459   1.730  0.1819 -0.0819  0.2768
30886W        W73803  29.636   4.764   0.060  0.2122 -0.2883  0.1166
30887W        W73804  27.126   7.124   0.075  0.0158 -0.0240 -0.2563
30888W        W73805  29.578   7.610   0.447 -0.0698 -0.1960  0.1010
30889W        W73806  25.583   6.584   0.710  0.0790 -0.1674 -0.0742
30890W        W73807  27.900   4.127   2.079  0.2513  0.0223 -0.1795
30891W        W73808  27.844   4.494   2.405 -0.0763  0.1702  0.0067
30892W        W73809  22.743   5.823   0.938  0.3175  0.0509 -0.1191
30893W        W73810  26.767   4.853  30.527 -0.2062 -0.0320 -0.0325
30894W        W73811  28.819   7.206   1.877 -0.1348 -0.0519  0.1488
30895W        W73812  29.045   3.465   0.455 -0.0339 -0.0741  0.0836
30896W        W73813  26.660   7.618   2.845 -0.1703 -0.0885  0.2005
30897W        W73814  28.232   4.272   4.252  0.0694 -0.1179 -0.0401
30898W        W73815  29.203   5.483   1.928  0.1730 -0.0143 -0.1524
30899W        W73816  23.847   7.108  31.438  0.3055 -0.2456 -0.1680
30900W        W73817  26.929   5.669   1.338 -0.2634 -0.2565 -0.0996
30901W        W73818  26.927   5.793   0.426  0.1259  0.1651 -0.0119
30902W        W73819  25.439   6.598   3.183  0.1172 -0.2615 -0.2644
30903W        W73820  26.468   4.885   0.280  0.0660  0.2807 -0.4101
30904W        W73821  29.267   4.259   1.827 -0.2982 -0.0218  0.0299
30905W        W73822  25.224   5.008   2.256 -0.0115 -0.2452  0.2428
30906W        W73823  29.298   4.467   1.359 -0.0657 -0.0191  0.1013
30907W        W73824  27.374   7.090  30.871  0.0320 -0.2713 -0.0470
30908W        W73825  30.145   6.793   0.379 -0.2080  0.0877 -0.1571
30909W        W73826  28.600   6.537  31.928  0.1517 -0.2043 -0.0817
30910W        W73827  28.035   9.262  30.562 -0.2701 -0.0538  0.0782
30911W        W73828  25.945   4.263   2.513 -0.1931  0.1022 -0.2248
30912W        W73829  27.231   5.305   0.950 -0.0575  0.0567 -0.0212
30913W        W73830  25.500   4.506   4.570  0.1050 -0.0912  0.0961
30914W        W73831  25.857   4.084   3.041 -0.1868 -0.0774 -0.4138
30915W        W73832  27.457   5.919   2.465  0.1061 -0.2177 -0.1614
30916W        W73833  25.550   3.924  30.452 -0.1174  0.0513  0.1535
30917W        W73834  25.872   4.191   1.130 -0.0876 -0.1207 -0.0121
30918W        W73835  26.501   7.015   0.352  0.0774 -0.0026  0.1200
30919W        W73836  25.598   6.961   0.184 -0.0633  0.0236  0.0601
30920W        W73837  28.558   4.863   1.912  0.0600 -0.1424 -0.0981
30921W        W73838  26.354   7.730  31.612  0.2760 -0.4566  0.0580
30922W        W73839  29.266   5.926   1.716 -0.1000 -0.0342  0.0575
30923W        W73840  28.004   6.199   1.617 -0.0418  0.1583  0.0114
30924W        W73841  25.853   4.786   3.227 -0.0875 -0.1222  0.0605
30925W        W73842  24.857   5.081   1.402  0.1051  0.0310 -0.2800
30926W        W73843  24.724   6.883   2.779  0.2565 -0.0828  0.0498
30927W        W73844  25.627   6.337   2.677 -0.1225  0.0737  0.6114
30928W        W73845  26.346   5.339  31.948  0.0031  0.2102  0.2272
30929W        W73846  28.914   6.842   1.548  0.3750 -0.3909 -0.1855
30930W        W73847  27.990   5.712   2.371 -0.1383 -0.0612  0.0495
30931W        W73848  25.548   5.186   3.208  0.0177  0.2039 -0.1903
30932W        W73849  26.812   3.939   4.202 -0.1892  0.1557 -0.1716
30933W        W73850  29.626   5.575  31.793 -0.0209 -0.0645 -0.1376
30934W        W73851  26.808   5.034  31.560 -0.1786 -0.2024 -0.3474
30935W        W73852  25.103   5.530   0.609  0.0126  0.1265 -0.3557
30936W        W73853  28.820   5.816  31.577 -0.2586  0.1953  0.0751
30937W        W73854  25.680  10.485   1.008 -0.1946  0.1461 -0.4077
30938W        W73855  26.159   7.957   1.262  0.1015  0.0522 -0.0537
30939W        W73856  26.634   7.763   0.077  0.1781 -0.1149 -0.0028
30940W        W73857  27.426   4.144   0.147  0.0580  0.2095  0.1323
30941W        W73858  26.324   3.915   2.937 -0.4117 -0.1000  0.0580
30942W        W73859  28.432   5.445   2.374 -0.0292 -0.1959  0.1762
30943W        W73860  27.337   5.396  31.743 -0.0727 -0.3730 -0.0438
30944W        W73861  26.116   5.201   3.265  0.0881  0.0898 -0.1511
30945W        W73862  28.222   3.489   1.711  0.1142 -0.1473  0.0595
30946W        W73863  27.368   5.703   0.680 -0.5853  0.0756  0.0431
30947W        W73864  26.409   4.830   2.856  0.1570  0.1065  0.1561
30948W        W73865  29.198   4.947   1.861  0.2800 -0.0397  0.1712
30949W        W73866  28.551   3.500   0.010  0.2153  0.0684 -0.0559
30950W        W73867  25.440   4.896   0.148 -0.2423  0.0629  0.3116
30951W        W73868  24.716   5.986   2.460  0.0668  0.0264  0.2980
30952W        W73869  26.056   5.825  31.701 -0.0971 -0.2616  0.0711
30953W        W73870  27.415   5.691   1.645  0.0838  0.1272  0.0270
30954W        W73871  26.878   3.346   0.517  0.4200 -0.0850  0.0391
30955W        W73872  30.266   6.743  31.067 -0.1460 -0.0356  0.1159
30956W        W73873  26.773   5.563   3.468  0.2073  0.0008 -0.0948
30957W        W73874  28.450   8.243   2.717  0.0991  0.2672  0.0715
30958W        W73875  27.419   6.922   0.690 -0.2176 -0.1245  0.3767
30959W        W73876  27.953   2.749   2.597  0.0826  0.0058 -0.1437
30960W        W73877  27.964   4.695  31.421 -0.0575 -0.1257 -0.0572
30961W        W73878  26.845   5.491  31.259 -0.1230 -0.1779 -0.0266
30962W        W73879  24.114   7.194   1.134 -0.0123  0.0099  0.3257
30963W        W73880  27.753   3.905   2.540  0.0810 -0.1269  0.1426
30964W        W73881  27.836   4.226   1.503  0.2446  0.5358 -0.0837
30965W        W73882  26.662   4.178   2.317  0.1089 -0.1297  0.1147
30966W        W73883  29.805   4.275   1.528 -0.0065  0.0716  0.2440
30967W        W73884  28.876   5.249  31.050  0.1528 -0.3461  0.1532
30968W        W73885  27.361   6.832  31.671  0.1827 -0.0448  0.0889
30969W        W73886  26.760   6.310  30.500 -0.1184 -0.1284 -0.0359
30970W        W73887  27.415   3.642   3.091  0.0702  0.0689 -0.1104
30971W        W73888  28.210   5.118   0.694  0.3326 -0.1373  0.1695
30972W        W73889  26.515   8.964   2.004  0.0524  0.1069  0.1018
30973W        W73890  27.532   6.179   1.557 -0.0803  0.0115  0.1657
30974W        W73891  28.464   7.381   0.389  0.1760  0.1336  0.0602
30975W        W73892  28.006   5.656   0.667 -0.3884 -0.1728 -0.0426
30976W        W73893  27.554   3.807   1.108  0.0196 -0.1123 -0.1729
30977W        W73894  25.997   7.476   1.639  0.0299 -0.2498  0.0174
30978W        W73895  24.300   7.940   1.318  0.1018  0.1205  0.0468
30979W        W73896  27.258   2.237   3.252  0.1140 -0.0007 -0.1166
30980W        W73897  28.345   5.904   3.168 -0.1199  0.1962  0.4189
30981W        W73898  26.485   7.088  30.904  0.2759  0.2466 -0.0936
30982W        W73899  27.686   6.427   2.318  0.0841 -0.1227  0.0461
30983W        W73900  24.308   7.426   0.122  0.2891  0.3651  0.2114
30984W        W73901  28.573   3.432   2.044  0.0253 -0.4273  0.1769
30985W        W73902  25.316   9.216   2.432 -0.1671 -0.0205  0.1049
30986W        W73903  27.104   5.198  30.689 -0.1579  0.2308  0.1292
30987W        W73904  25.491   4.004   2.159  0.0551  0.0423 -0.2006
30988W        W73905  28.539   5.493   0.615 -0.1325 -0.0606 -0.0555
30989W        W73906  28.726   4.240  30.883  0.1132  0.0039  0.2585
30990W        W73907  26.377   3.361   0.785 -0.3126 -0.2818 -0.0453
30991W        W73908  27.531   4.855   2.361  0.0007  0.3943  0.1494
30992W        W73909  22.866   7.425   2.235  0.0661  0.4402 -0.0653
30993W        W73910  28.221   7.586   1.671  0.0510 -0.0950 -0.0968
30994W        W73911  26.593   4.317   0.460 -0.0708  0.1160 -0.1619
30995W        W73912  27.261   7.588   2.199 -0.1500 -0.1143  0.3237
30996W        W73913  26.503   7.160   3.658  0.0079  0.1011 -0.3936
30997W        W73914  25.629   4.569   0.547 -0.0093 -0.1002 -0.3618
30998W        W73915  28.085   5.104  31.681 -0.0938  0.0814 -0.0763
30999W        W73916  27.423   4.289   2.578  0.2143 -0.4208  0.1996
31000W        W73917  25.689   8.604   1.397  0.0297  0.1458 -0.0278
31001W        W73918  26.692   7.535  31.279 -0.0209  0.2200  0.0449
31002W        W73919  28.289   6.507  30.804  0.1553  0.1542 -0.2326
31003W        W73920  25.735   7.074   0.860  0.3625 -0.1824 -0.2879
31004W        W73921  27.895   3.118   2.000  0.0838  0.0374 -0.1161
31005W        W73922  27.951   6.099   2.723 -0.3289  0.3022  0.0209
31006W        W73923  27.200   4.941   0.563  0.2368  0.3089  0.1853
31007W        W73924  27.192   5.076  31.204  0.0480  0.0513  0.4557
31008W        W73925  27.397   5.906   0.134  0.2736 -0.2049 -0.2070
31009W        W73926  29.117   6.772   0.533 -0.3053  0.0524 -0.0745
31010W        W73927  27.428   2.951   2.668  0.0292  0.3317 -0.2735
31011W        W73928  27.153   7.465   2.861 -0.1140 -0.0148  0.1553
31012W        W73929  26.930   3.188   2.537  0.0240  0.3348 -0.1351
31013W        W73930  28.393   8.615  31.715  0.0767  0.0474 -0.1850
31014W        W73931  26.548   3.371   2.876  0.3110 -0.3939 -0.1957
31015W        W73932  23.412   7.234  31.146 -0.2071 -0.1304 -0.3624
31016W        W73933  25.280   4.908   1.687 -0.0102 -0.1245  0.2760
31017W        W73934  26.260   7.196   1.302 -0.1970 -0.2726  0.0530
31018W        W73935  27.293   4.213   1.257  0.2743  0.0205 -0.0431
31019W        W73936  28.236   5.673   1.842 -0.1925  0.2415  0.0104
31020W        W73937  26.592   8.275  31.105  0.1748  0.1978  0.3203
31021W        W73938  26.626   7.252   0.953  0.0685 -0.1843  0.0318
31022W        W73939  28.385   3.783  30.572  0.0172 -0.5202  0.3528
31023W        W73940  28.057   7.302  31.921 -0.0563 -0.1446  0.0812
31024W        W73941  26.649   5.478  30.787 -0.3197  0.1949  0.1043
31025W        W73942  27.563   4.704   1.420  0.3675 -0.1088 -0.2700
31026W        W73943  27.933   7.790  31.711 -0.2536  0.0384  0.0776
31027W        W73944  27.997   3.953   3.415  0.1096  0.0018 -0.1079
31028W        W73945  24.270   4.991   2.579  0.2154  0.2048 -0.0149
31029W        W73946  27.809   7.421   1.596 -0.1875  0.3149  0.1301
31030W        W73947  26.139   6.310   3.368 -0.1220 -0.4096  0.0041
31031W        W73948  30.502   6.402   1.783  0.3238 -0.0489 -0.1791
31032W        W73949  25.046   5.460   1.722  0.1634 -0.1770 -0.1031
31033W        W73950  28.039   3.496  30.988  0.0968  0.3670  0.1325
31034W        W73951  26.595   2.569   0.114  0.0300 -0.0802 -0.1247
31035W        W73952  28.009   5.085   2.471 -0.1541 -0.1593  0.2419
31036W        W73953  30.888   8.513  31.522  0.2472 -0.0089  0.1939
31037W        W73954  27.288   9.565   0.827 -0.0518 -0.2828  0.1516
31038W        W73955  29.130   5.377  31.448 -0.1778 -0.0415 -0.0073
31039W        W73956  26.519   6.639   3.215  0.2753  0.0481 -0.0087
31040W        W73957  29.598   2.129   0.931  0.0058 -0.1631  0.2413
31041W        W73958  28.226   5.623  31.747 -0.1907  0.1904 -0.1041
31042W        W73959  27.001   7.515  31.717  0.1378 -0.0916 -0.0337
31043W        W73960  24.947   4.587   4.216 -0.1069 -0.2528 -0.2020
31044W        W73961  29.530   4.800   0.952  0.0921 -0.1352  0.1071
31045W        W73962  28.020   4.966  30.944 -0.0534  0.0875 -0.1696
31046W        W73963  29.158   4.861   0.040 -0.3807  0.3078  0.1191
31047W        W73964  27.872   5.062   1.571  0.0998  0.0447 -0.2845
31048W        W73965  28.426   6.330   2.864 -0.1998 -0.0201 -0.1380
31049W        W73966  26.973   4.227   3.579  0.3256 -0.1005  0.2644
31050W        W73967  29.486   6.592   2.819 -0.0278 -0.2359  0.0377
31051W        W73968  28.267   4.694   0.337 -0.1420  0.1107  0.0185
31052W        W73969  28.975   6.054   1.306  0.0463  0.1482 -0.2443
31053W        W73970  28.759   5.929   0.493  0.0181  0.4668 -0.1053
31054W        W73971  28.392   4.577  31.756  0.0742 -0.3937  0.2458
31055W        W73972  27.111   6.241   3.553 -0.1417  0.0982 -0.0248
31056W        W73973  27.207   6.519   0.922 -0.1928  0.1672 -0.0902
31057W        W73974  24.942   5.227  31.270  0.3161 -0.0094  0.2643
31058W        W73975  28.123   4.194   4.820 -0.2336  0.3025 -0.1916
31059W        W73976  26.383   7.690   0.547  0.2018  0.1274  0.0885
31060W        W73977  25.227   6.841   0.892 -0.1959  0.2393 -0.1745
31061W        W73978  28.479   4.230   0.122  0.1143  0.1903  0.1877
31062W        W73979  26.712   5.428   2.501  0.2477 -0.1538  0.0746
31063W        W73980  26.685   8.058   1.402 -0.0325 -0.1731 -0.1035
31064W        W73981  27.122   7.916   0.181  0.1743  0.0474  0.0255
31065W        W73982  26.118   6.416   0.724 -0.0379  0.1786  0.1128
31066W        W73983  26.019   7.655  31.084  0.2423  0.2251  0.3680
31067W        W73984  30.278   6.087   2.590  0.2638 -0.2104 -0.1223
31068W        W73985  25.924   3.521  31.462 -0.1134 -0.1991  0.0401
31069W        W73986  30.712   2.799   2.739 -0.1184  0.2620  0.1748
31070W        W73987  25.704   7.602   1.234  0.2830 -0.0098  0.0174
31071W        W73988  27.656   3.749  31.741  0.2140  0.1308 -0.0096
31072W        W73989  25.394   6.895   2.795 -0.1626  0.2531  0.0569
31073W        W73990  23.126   5.364   1.463 -0.0204  0.0340 -0.2734
31074W        W73991  27.176   6.301   2.097 -0.1096 -0.0504 -0.2782
31075W        W73992  27.586   7.045   0.204 -0.1407  0.1651 -0.0435
31076W        W73993  29.639   4.729   1.736  0.0788 -0.1190  0.0702
31077W        W73994  27.657   6.608   1.833  0.0264 -0.1007  0.0696
31078W        W73995  30.180   6.389   0.898  0.0659 -0.0990 -0.1552
31079W        W73996  27.309   4.947   1.890  0.1014 -0.0464  0.2148
31080W        W73997  25.856   6.179  30.517 -0.1052  0.0333  0.1708
31081W        W73998  29.817   6.122   4.300  0.0049  0.0886 -0.3182
31082W        W73999  30.248   5.732   0.204 -0.0124  0.2403  0.0307
31083W        W74000  26.959   7.006   0.585 -0.0107  0.2077  0.3121
31084W        W74001  25.381   5.449   2.807  0.2832  0.2691 -0.2515
31085W        W74002  28.110   3.791   3.985  0.0081 -0.2754 -0.2485
31086W        W74003  28.241   8.107   0.995 -0.0075  0.0472 -0.0082
31087W        W74004  27.850   3.140  29.987  0.1184 -0.0391  0.0479
31088W        W74005  26.243   6.720  31.096 -0.0532 -0.2653  0.0905
31089W        W74006  26.929   5.844   3.860 -0.0708  0.0605  0.4430
31090W        W74007  25.309   5.596   3.275  0.3242 -0.1210 -0.3787
31091W        W74008  24.919   8.359   0.246  0.3759  0.0621 -0.0211
31092W        W74009  27.765   7.402  30.550 -0.0224  0.3917 -0.0751
31093W        W74010  28.382   6.973   0.181 -0.0182 -0.2262 -0.2770
31094W        W74011  28.439   4.878   3.397 -0.0339 -0.1110  0.2241
31095W        W74012  27.227   3.702   0.060 -0.2042 -0.1827 -0.0444
31096W        W74013  27.013   6.967   1.064 -0.0808 -0.0845  0.0846
31097W        W74014  25.743   9.149   1.216  0.0044  0.1163  0.2915
31098W        W74015  26.994   5.955  31.665 -0.0852  0.1698  0.0262
31099W        W74016  27.556   9.429   1.273 -0.0143  0.0954 -0.1096
31100W        W74017  30.475   6.105   3.127 -0.0311 -0.1972 -0.1768
31101W        W74018  26.881   5.395  31.906  0.2980  0.1084 -0.0436
31102W        W74019  27.574   6.090   1.006 -0.1222 -0.2526  0.4059
31103W        W74020  29.283   7.317  31.812 -0.0647  0.0989  0.4221
31104W        W74021  28.445   5.750   3.651 -0.3198  0.1984 -0.0281
31105W        W74022  27.253   3.530   2.549  0.0681 -0.1357 -0.5553
31106W        W74023  29.292   2.632   0.737 -0.0687  0.0963  0.1121
31107W        W74024  26.341   5.842   4.120  0.5519 -0.1332 -0.2085
31108W        W74025  28.380   3.719   4.777 -0.0120  0.0304  0.1222
31109W        W74026  26.316   5.436   5.132 -0.0400  0.2430  0.2016
31110W        W74027  27.703   6.531   0.662 -0.2733  0.2799 -0.0396
31111W        W74028  27.402   4.547   0.823 -0.1741 -0.5481  0.1267
31112W        W74029  27.010   5.962   1.740 -0.0893 -0.3544  0.0585
31113W        W74030  29.813   5.368   2.607 -0.1505 -0.2362  0.0244
31114W        W74031  27.348   7.395  31.327  0.3998 -0.0963 -0.1978
31115W        W74032  26.829   4.689   3.118 -0.0753 -0.0251 -0.1779
31116W        W74033  28.180   7.880   0.224 -0.1358  0.1988  0.1277
31117W        W74034  25.895   6.596   3.028 -0.1934 -0.0887  0.2990
31118W        W74035  27.012   6.237   1.286 -0.0724 -0.2405 -0.1347
31119W        W74036  25.960   4.523  31.655 -0.1876  0.1041 -0.0458
31120W        W74037  30.069   4.109  31.482 -0.1981 -0.3678 -0.0057
31121W        W74038  27.703   6.517   4.101  0.0153 -0.0374 -0.1674
31122W        W74039  28.066   3.921  31.888  0.0763  0.1150 -0.0561
31123W        W74040  26.780   5.230   0.472 -0.1508  0.2245 -0.1806
31124W        W74041  28.215   5.238   0.226  0.1745 -0.1336 -0.3394
31125W        W74042  28.520   6.067  31.910  0.1748 -0.1514 -0.0837
31126W        W74043  28.121   2.125   3.136 -0.1594 -0.1753 -0.1704
31127W        W74044  26.578   5.938  30.779  0.1414  0.5138  0.1827
31128W        W74045  29.710   4.047   0.261 -0.0492  0.2553  0.2362
31129W        W74046  27.931   7.027  30.202  0.3814  0.1528  0.0658
31130W        W74047  28.237   7.551   3.029 -0.0982  0.2078  0.1518
31131W        W74048  27.638   6.331  31.616  0.0477 -0.0153 -0.0978
31132W        W74049  28.080   4.260  29.355  0.0012  0.0361 -0.3574
31133W        W74050  25.737   7.680   3.021 -0.0133 -0.0283 -0.0990
31134W        W74051  27.048   4.510   2.194 -0.1666  0.1424  0.0281
31135W        W74052  28.128   7.929   3.587 -0.0244  0.0745  0.2635
31136W        W74053  26.736   4.149   1.441 -0.0191  0.1679 -0.1363
31137W        W74054  28.141   7.396  31.368  0.1192 -0.4104  0.2222
31138W        W74055  28.703   6.516   0.457  0.3030  0.0295  0.3275
31139W        W74056  25.324   8.788   0.302  0.2307 -0.0323  0.2006
31140W        W74057  28.824   7.998   0.069  0.0682  0.2705 -0.1085
31141W        W74058  28.750   6.222   2.470 -0.2321 -0.2117  0.0094
31142W        W74059  25.650   4.893   2.046 -0.0643 -0.2934 -0.0085
31143W        W74060  27.533   7.081   1.162  0.0968  0.0139 -0.3928
31144W        W74061  28.092   5.359   1.152  0.2727 -0.1866 -0.0177
31145W        W74062  28.365   4.224   0.594 -0.0182 -0.0107 -0.0419
31146W        W74063  25.886   6.735   2.550 -0.0119 -0.1061  0.1604
31147W        W74064  26.565   7.582   1.574  0.2213 -0.0653 -0.0720
31148W        W74065  27.366   5.226   1.405  0.0260  0.1400  0.2888
31149W        W74066  27.784   3.306   2.588 -0.2284 -0.0679 -0.0644
31150W        W74067  26.946   8.548  31.428 -0.2504  0.0885  0.1898
31151W        W74068  28.883   5.336   2.550  0.0099  0.3224 -0.0788
31152W        W74069  28.447   7.690   1.181 -0.1293 -0.1549  0.1924
31153W        W74070  25.516   7.849   3.857  0.1380  0.0713 -0.0661
31154W        W74071  27.372   5.975  31.288  0.1445  0.1392  0.0854
31155W        W74072  26.716   4.824   2.454  0.0322 -0.0861  0.1017
31156W        W74073  27.847   8.946   0.480 -0.4445 -0.3832  0.1486
31157W        W74074  26.931   7.042  31.424 -0.1139  0.2376 -0.1066
31158W        W74075  28.780   5.710   1.740  0.0605  0.1919  0.0377
31159W        W74076  28.833   7.161   0.063 -0.0260 -0.2885  0.0667
31160W        W74077  29.300   5.898   0.642 -0.1687  0.0387 -0.2231
31161W        W74078  27.694   3.813   0.304 -0.0630 -0.0552  0.1680
31162W        W74079  29.465   2.389  31.678  0.3805  0.3360 -0.1554
31163W        W74080  27.128   3.250   0.019  0.0324  0.0789  0.1286
31164W        W74081  25.181   6.398   2.760  0.0827  0.0754  0.0011
31165W        W74082  24.980   6.148   0.507  0.0916 -0.0659  0.0025
31166W        W74083  26.913   6.736  31.863 -0.1027  0.1094 -0.0360
31167W        W74084  26.524   5.821   0.026 -0.0173  0.3310  0.1571
31168W        W74085  27.131   3.982   2.803 -0.1299 -0.1425  0.0718
31169W        W74086  26.559   5.843   1.962 -0.1773 -0.0529  0.1282
31170W        W74087  25.690   5.819   2.584 -0.1724 -0.0013  0.0607
31171W        W74088  25.516   3.384   0.234 -0.0739  0.2664  0.1777
31172W        W74089  27.869   7.491   0.335  0.1469 -0.0617  0.3414
31173W        W74090  27.865   3.650   2.062  0.2507 -0.3216 -0.0226
31174W        W74091  25.979   7.772   0.191 -0.3668 -0.0164  0.2035
31175W        W74092  28.198   6.207   0.753  0.1733 -0.1073  0.0732
31176W        W74093  28.892   7.358  31.490  0.1790 -0.0923  0.3041
31177W        W74094  27.630   5.077  30.598  0.0265 -0.0776 -0.3784
31178W        W74095  28.939   6.876   4.323 -0.1702 -0.1335 -0.1276
31179W        W74096  24.469   5.555   0.052  0.0574 -0.0977 -0.0155
31180W        W74097  28.630   2.916   3.717  0.1637  0.0177 -0.0913
31181W        W74098  27.222   3.534   1.856 -0.0719  0.1979 -0.0210
31182W        W74099  23.016   4.546  31.950  0.0453 -0.0349  0.0608
31183W        W74100  28.193   4.682   2.727 -0.1579  0.0421  0.0872
31184W        W74101  27.782   7.296  31.033  0.3605  0.2651  0.1312
31185W        W74102  29.204   8.067   0.395  0.2065 -0.0852  0.1350
31186W        W74103  27.144   5.336   3.169  0.0334  0.0390 -0.1223
31187W        W74104  26.303   6.618   2.214 -0.2140 -0.2108 -0.4291
31188W        W74105  27.572   4.508   1.959 -0.1411 -0.0874 -0.1333
31189W        W74106  28.890   4.322  31.763 -0.0963 -0.0012  0.1711
31190W        W74107  27.576   6.887   2.671 -0.2200  0.0397 -0.0528
31191W        W74108  29.260   6.714   1.925 -0.3153  0.0130 -0.1787
31192W        W74109  26.880   4.428   2.706  0.1572  0.2018 -0.0586
31193W        W74110  26.575   7.313  31.863 -0.0496 -0.2117  0.0929
31194W        W74111  24.187   4.329   3.337 -0.3764 -0.0903  0.2000
31195W        W74112  25.740   4.222   5.035 -0.3098  0.1520  0.1025
31196W        W74113  27.659   5.549   1.019  0.1679 -0.2339 -0.0967
31197W        W74114  26.076   3.761   0.971 -0.0466 -0.0364 -0.1604
31198W        W74115  28.602   4.455  31.303 -0.1137  0.1012  0.0515
31199W        W74116  27.550   6.032  30.747 -0.1981  0.0063 -0.1664
31200W        W74117  26.116   6.181   0.231 -0.2535  0.0709  0.1187
31201W        W74118  27.542   4.932  31.571  0.0041  0.1957  0.0919
31202W        W74119  27.248   6.627   0.371 -0.1022  0.0909  0.0337
31203W        W74120  26.968   8.245   0.959 -0.2034  0.2410 -0.0470
31204W        W74121  27.631   5.010   1.070  0.1294 -0.0483  0.0574
31205W        W74122  25.827   5.240  31.870 -0.1867  0.0630 -0.1805
31206W        W74123  27.662   5.795  31.644  0.1037 -0.2912  0.1455
31207W        W74124  26.702   7.095   1.442  0.1437 -0.2339 -0.0716
31208W        W74125  29.177   6.632   3.284  0.1968  0.0542  0.2206
31209W        W74126  28.827   8.033   2.104 -0.1900  0.1115 -0.0313
31210W        W74127  27.683   6.467   0.140 -0.2563 -0.2082 -0.4933
31211W        W74128  25.234   4.640   3.218  0.0406  0.0409  0.1132
31212W        W74129  27.674   5.376  31.333 -0.0580 -0.0909 -0.0694
31213W        W74130  26.311   5.076  30.637  0.0710 -0.0600 -0.0419
31214W        W74131  29.054   5.415   0.488  0.0943 -0.0093 -0.0873
31215W        W74132  26.395   5.617   0.430 -0.2574  0.0202 -0.2685
31216W        W74133  26.250   4.763  31.169 -0.3228  0.0758 -0.0237
31217W        W74134  27.492   6.563   3.641 -0.1766  0.1548  0.0171
31218W        W74135  28.875   5.219   1.591  0.0325  0.0638 -0.3069
31219W        W74136  26.742   6.439   5.920  0.0214 -0.0122 -0.2231
31220W        W74137  25.565   4.909   3.667  0.0420  0.2320  0.1527
31221W        W74138  28.830   4.732   4.716 -0.1946 -0.2247 -0.0513
31222W        W74139  28.535   6.396   1.520 -0.1499  0.0278  0.6806
31223W        W74140  25.393   4.503   5.168 -0.0941  0.0423 -0.1108
31224W        W74141  29.313   7.108   3.438  0.3556 -0.4957 -0.4099
31225W        W74142  26.423   3.131   6.703 -0.0646  0.2232 -0.0630
31226W        W74143  28.141   6.704   4.978 -0.0486 -0.3387  0.1306
31227W        W74144  29.026   4.317   6.905 -0.1026  0.1410  0.0480
31228W        W74145  26.724   6.247   2.223 -0.0018 -0.1396  0.1706
31229W        W74146  27.608   5.391   4.519  0.5127  0.3132 -0.0230
31230W        W74147  25.679   5.286   5.863  0.0817 -0.1931 -0.0324
31231W        W74148  28.308   5.183   3.821 -0.1475  0.0677  0.3098
31232W        W74149  26.895   2.806   5.266  0.0056  0.3192  0.0530
31233W        W74150  28.186   7.465   6.322 -0.0608 -0.2018  0.1674
31234W        W74151  25.865   5.164   4.058  0.3305  0.3186  0.0768
31235W        W74152  26.406   2.780   8.147  0.0029 -0.0508  0.0456
31236W        W74153  27.194   4.355   3.135  0.0878 -0.0028  0.0871
31237W        W74154  26.849   6.814   4.730 -0.5875  0.2470 -0.0136
31238W        W74155  26.757   3.468   6.534  0.0314  0.1048 -0.1831
31239W        W74156  28.340   4.622   5.464  0.0199 -0.0817 -0.2463
31240W        W74157  27.997   8.160   2.841  0.0359  0.0193  0.0109
31241W        W74158  27.350   5.432   4.098 -0.4894 -0.2222 -0.0587
31242W        W74159  26.733   5.780   4.901  0.1007 -0.0663 -0.1760
31243W        W74160  27.181   3.453   5.107 -0.1427  0.0368  0.1325
31244W        W74161  27.082   4.019   5.328 -0.1075  0.1664 -0.2364
31245W        W74162  27.918   6.282   4.845 -0.6068 -0.3638 -0.1380
31246W        W74163  28.662   7.247   5.772  0.3577 -0.0347 -0.1963
31247W        W74164  28.458   6.219   3.537 -0.1115 -0.2353  0.0827
31248W        W74165  28.329   5.256   9.300 -0.3270 -0.0975  0.2213
31249W        W74166  26.020   6.651   5.075 -0.0500 -0.2000 -0.0299
31250W        W74167  26.760   6.690   6.356  0.0738  0.0008 -0.0227
31251W        W74168  27.273   7.893   3.111 -0.1115  0.0955  0.0554
31252W        W74169  30.944   7.308   3.220 -0.1599  0.1213  0.2621
31253W        W74170  26.518   6.267   6.325 -0.1379  0.2119  0.0340
31254W        W74171  27.956   6.084   7.374 -0.0735  0.0896 -0.1154
31255W        W74172  27.218   7.731   3.691  0.0461  0.2369 -0.1584
31256W        W74173  27.618   6.671   7.203 -0.0384  0.0222  0.0056
31257W        W74174  26.834   6.159   5.254  0.1680 -0.0683 -0.1087
31258W        W74175  27.479   7.462   3.967  0.2098 -0.0994 -0.2528
31259W        W74176  27.677   6.483   5.291 -0.0588  0.1123  0.0907
31260W        W74177  27.532   5.889   5.864 -0.1863  0.0264  0.0239
31261W        W74178  26.468   6.181   4.545 -0.5049  0.1103 -0.0598
31262W        W74179  27.086   5.375   5.042  0.0918  0.1830  0.2842
31263W        W74180  28.033   5.906   5.965  0.2746  0.0730 -0.0163
31264W        W74181  28.199   4.753   7.858 -0.0091  0.0753 -0.2751
31265W        W74182  27.128   5.470   4.560 -0.0716 -0.2856 -0.1196
31266W        W74183  28.773   4.146   1.686 -0.0533 -0.1401  0.1643
31267W        W74184  27.294   4.434   3.971  0.1067  0.0077 -0.1104
31268W        W74185  28.989   3.831   0.906 -0.1938  0.5034 -0.2332
31269W        W74186  26.913   3.942   4.764  0.3552  0.3433  0.1822
31270W        W74187  30.180   8.236   6.123 -0.0696 -0.2212  0.1385
31271W        W74188  28.138   3.253   4.960  0.0127  0.0813  0.0456
31272W        W74189  28.719   5.676   6.733  0.0290  0.2131 -0.0868
31273W        W74190  28.224   6.388   2.331 -0.3076  0.0885  0.2115
31274W        W74191  28.113   5.167   5.305  0.0175 -0.1034 -0.3559
31275W        W74192  26.968   5.197   5.989  0.0412 -0.1906  0.0463
31276W        W74193  26.182   4.978   5.383  0.1172 -0.2118 -0.0451
31277W        W74194  28.812   5.007   4.255 -0.2766  0.0666 -0.0555
31278W        W74195  29.385   9.074   4.539 -0.2091 -0.0382 -0.0515
31279W        W74196  27.228   7.131   4.960  0.0087 -0.1419  0.0510
31280W        W74197  26.822   6.719   5.334  0.0696 -0.2767 -0.0217
31281W        W74198  26.172   5.574   5.576  0.0094  0.2931 -0.1471
31282W        W74199  24.644   4.940   6.554 -0.0977  0.2330  0.2373
31283W        W74200  27.551   5.423   2.321 -0.3509  0.0309  0.1120
31284W        W74201  29.977   5.344   6.278 -0.2169  0.0458 -0.0177
31285W        W74202  28.299   4.891   6.717 -0.5290  0.1342 -0.1004
31286W        W74203  28.701   5.977   5.313 -0.1876 -0.1816  0.1845
31287W        W74204  27.762   6.336   5.759  0.0739 -0.2127  0.1208
31288W        W74205  27.662   7.057   3.599  0.0579 -0.2391 -0.0115
31289W        W74206  26.984   7.346   3.746  0.1222  0.0406 -0.2957
31290W        W74207  29.021   3.179   6.064 -0.0898  0.2168 -0.0483
31291W        W74208  29.709   3.100   5.624 -0.2233 -0.2939 -0.3285
31292W        W74209  28.138   5.401   3.369  0.0108 -0.0048 -0.0035
31293W        W74210  27.016   4.006   5.911 -0.1457  0.1332 -0.1216
31294W        W74211  28.887   7.884   7.668  0.0014  0.1469  0.2498
31295W        W74212  28.394   5.170   4.893 -0.1127  0.2096 -0.1431
31296W        W74213  26.917   8.124   5.068  0.0433 -0.0531  0.0429
31297W        W74214  26.180   4.456   6.075 -0.3761 -0.2993  0.1321
31298W        W74215  29.662   5.600   6.686  0.1548  0.1574  0.2874
31299W        W74216  27.175   8.405   2.475 -0.0433 -0.3130 -0.0322
31300W        W74217  25.998   5.721   6.065  0.2993 -0.0574 -0.2876
31301W        W74218  26.403   6.321   5.515  0.0025 -0.0286 -0.3099
31302W        W74219  26.790   3.635   5.673 -0.0540  0.1416  0.0088
31303W        W74220  28.287   6.763   5.726 -0.1136 -0.0848 -0.3538
31304W        W74221  28.127   4.486   6.383  0.2911 -0.1668  0.0261
31305W        W74222  25.478   4.530   6.100 -0.3351  0.1433  0.0425
31306W        W74223  29.272   3.593   6.480 -0.1050  0.3402 -0.0039
31307W        W74224  25.068   7.582   3.548  0.1583 -0.0287  0.1358
31308W        W74225  29.757   7.182   2.673  0.0329 -0.1951  0.1980
31309W        W74226  28.192   4.381   3.655 -0.1594 -0.0433  0.1014
31310W        W74227  29.632   6.430   3.402 -0.0961 -0.0545 -0.0760
31311W        W74228  25.791   5.402   3.631  0.0135 -0.1286  0.1758
31312W        W74229  25.708   2.265   5.133  0.1619  0.3846  0.2798
31313W        W74230  25.948   4.481   7.878 -0.0529  0.0859 -0.0148
31314W        W74231  24.976   3.795   6.853 -0.1112  0.0731  0.0253
31315W        W74232  28.113   3.975   7.175 -0.3569 -0.2117 -0.0551
31316W        W74233  25.461   4.454   2.396  0.3078 -0.2109 -0.0457
31317W        W74234  28.512   5.441   5.363  0.0273 -0.0225  0.0981
31318W        W74235  27.241   5.951   4.532  0.0906  0.1998  0.5522
31319W        W74236  26.298   7.041   5.168 -0.0438 -0.0764 -0.0219
31320W        W74237  27.886   5.407   8.232 -0.4212  0.1882  0.3882
31321W        W74238  27.535   5.172   5.110 -0.0699  0.2286  0.0889
31322W        W74239  29.041   7.383   6.662 -0.0871  0.0338 -0.0136
31323W        W74240  27.864   8.568   4.160 -0.1692  0.1232  0.2544
31324W        W74241  27.855   3.544   6.569  0.0437 -0.2048  0.4918
31325W        W74242  26.267   5.715   3.298 -0.3499  0.1094  0.0979
31326W        W74243  26.715   9.298   4.753  0.0322 -0.1934  0.0248
31327W        W74244  28.471   5.950   6.300 -0.0817  0.0802  0.0691
31328W        W74245  27.430   3.753   4.452  0.2480  0.0632  0.2023
31329W        W74246  27.860   9.851   3.856  0.3470  0.0291  0.0968
31330W        W74247  27.703   3.205   3.061  0.0057  0.1108 -0.0349
31331W        W74248  26.629   5.337   4.682  0.2968 -0.3829 -0.3199
31332W        W74249  28.394   3.122   5.631 -0.2410  0.0886  0.1085
31333W        W74250  27.792   5.214   5.862  0.1978  0.3601  0.1437
31334W        W74251  28.739   4.782   5.838 -0.2478 -0.0905  0.0913
31335W        W74252  26.302   4.728   4.333 -0.1098 -0.2440 -0.0152
31336W        W74253  28.295   7.653   4.634  0.1496  0.0525  0.0313
31337W        W74254  25.730   8.278   3.074  0.0713 -0.1304  0.1566
31338W        W74255  24.738   5.819   4.229 -0.1268 -0.0768 -0.2921
31339W        W74256  27.353   6.584   4.614  0.1249  0.0310  0.4002
31340W        W74257  28.989   4.369   5.977 -0.2092 -0.2377 -0.1364
31341W        W74258  25.432   4.012   6.620 -0.1025 -0.0310  0.0218
31342W        W74259  28.316   3.432   6.665 -0.1174  0.2729  0.0808
31343W        W74260  26.903   6.293   4.726 -0.1065 -0.3586  0.0197
31344W        W74261  26.025   6.188   6.331 -0.0138 -0.1516  0.0319
31345W        W74262  28.215   3.389   4.457 -0.3923  0.0326  0.1630
31346W        W74263  27.946   3.785   4.452 -0.0259  0.1305 -0.0291
31347W        W74264  26.674   5.023   5.118  0.2606 -0.0479  0.1518
31348W        W74265  28.308   5.593   4.146 -0.4921  0.1211 -0.1337
31349W        W74266  26.526   6.059   3.613  0.0554  0.0652 -0.1240
31350W        W74267  27.875   4.632   4.119  0.0704  0.1636  0.2129
31351W        W74268  26.685   4.908   6.721  0.0123  0.2075  0.0834
31352W        W74269  28.339   6.632   6.715  0.3186 -0.1278  0.2263
31353W        W74270  27.830   5.776   3.423  0.1679 -0.1484 -0.4276
31354W        W74271  28.683   4.487   2.604 -0.0686 -0.2320 -0.0102
31355W        W74272  30.140   5.748   2.920  0.0934 -0.0430  0.2446
31356W        W74273  27.259   8.090   5.443 -0.0916  0.1337  0.0291
31357W        W74274  30.529   5.402   6.495 -0.0476  0.0703  0.3275
31358W        W74275  28.203   7.919   4.220  0.2338  0.1315  0.2688
31359W        W74276  27.546   3.128   5.814 -0.1008 -0.0398 -0.1928
31360W        W74277  28.669   5.559   1.286 -0.0761  0.0503  0.2901
31361W        W74278  27.055   4.446   4.918  0.3272 -0.1188 -0.0844
31362W        W74279  26.220   7.026   4.326  0.0127 -0.2362 -0.0531
31363W        W74280  28.771   5.379   6.279 -0.0624  0.0535  0.1291
31364W        W74281  27.931   4.615   4.633  0.2563 -0.1695  0.1606
31365W        W74282  27.098   3.327   6.892 -0.0349 -0.1150  0.2097
31366W        W74283  29.895   5.085   8.508  0.1485 -0.4336  0.1822
31367W        W74284  29.182   5.340  31.943 -0.1403 -0.0369 -0.0447
31368W        W74285  25.487   6.439   4.452 -0.3742  0.0506  0.1871
31369W        W74286  26.087   3.610   3.857 -0.1658 -0.0980  0.1777
31370W        W74287  26.248   4.959   4.876  0.2555  0.1532 -0.0647
31371W        W74288  26.717   5.709   4.380  0.0208 -0.1497 -0.0340
31372W        W74289  25.312   5.460   4.960  0.2658  0.0165 -0.0905
31373W        W74290  29.614   7.262   5.998 -0.4437  0.0536 -0.2381
31374W        W74291  29.733   6.542   3.934 -0.2279  0.1873  0.0974
31375W        W74292  26.160   5.119   6.794 -0.1108 -0.1569 -0.0217
31376W        W74293  28.744   3.825   0.501  0.1233  0.0765 -0.0443
31377W        W74294  26.258   6.662   1.557 -0.0302 -0.0143 -0.2511
31378W        W74295  27.951   5.622   5.107  0.1268  0.0665 -0.3687
31379W        W74296  28.054   3.007   6.664 -0.0107  0.1042  0.0456
31380W        W74297  27.451   6.154   4.944  0.0405  0.0566  0.0470
31381W        W74298  28.141   7.162   2.575 -0.3267  0.3447  0.1515
31382W        W74299  27.164   5.256   5.521 -0.1012  0.0363 -0.0235
31383W        W74300  27.903   5.481   3.816  0.2588 -0.0258 -0.3104
31384W        W74301  30.784   2.314   6.863 -0.0144 -0.2243 -0.1711
31385W        W74302  25.805   7.301   5.430 -0.2779 -0.3683  0.1704
31386W        W74303  23.895   4.727   0.889  0.3636  0.1552  0.0349
31387W        W74304  25.423   5.862   3.699  0.0391  0.1047  0.0650
31388W        W74305  29.292   4.744   5.086  0.1767  0.0369  0.1765
31389W        W74306  27.639   5.182   2.854  0.0473  0.0269  0.2170
31390W        W74307  26.606   3.730   5.212 -0.0975  0.1543  0.0500
31391W        W74308  27.727   3.561   6.072  0.1599  0.0447 -0.0687
31392W        W74309  27.375   7.213   5.941  0.1740  0.2663 -0.2462
31393W        W74310  27.399   5.449   6.071  0.2585 -0.0909  0.3143
31394W        W74311  28.337   4.362   2.144 -0.0209  0.1125 -0.3356
31395W        W74312  29.147   5.694   8.150  0.1500 -0.2095 -0.2516
31396W        W74313  27.440   4.507   5.867  0.3012 -0.1272 -0.1562
31397W        W74314  25.330   4.532   3.956 -0.0257  0.1466  0.3034
31398W        W74315  26.626   5.036   5.641  0.0791  0.0082  0.1496
31399W        W74316  28.574   3.506   4.060 -0.2086 -0.0694  0.1071
31400W        W74317  24.843   5.577   4.634  0.0646  0.1043  0.2723
31401W        W74318  28.506   6.157   7.538 -0.1790  0.0878 -0.0305
31402W        W74319  27.900   5.296   2.004 -0.1227 -0.3278 -0.0375
31403W        W74320  26.361   5.913   5.229 -0.1361 -0.0865  0.0268
31404W        W74321  26.598   5.160   8.377 -0.2332 -0.1408 -0.0065
31405W        W74322  29.134   5.650   7.561 -0.0892 -0.2005 -0.1823
31406W        W74323  27.678   4.154   4.336 -0.1565 -0.2833 -0.0234
31407W        W74324  26.568   3.910   3.702 -0.1711  0.0336 -0.2315
31408W        W74325  27.381   3.056   4.938 -0.3439 -0.1716 -0.2555
31409W        W74326  28.152   7.417   7.195 -0.1118  0.2389  0.0414
31410W        W74327  27.879   4.569   5.134  0.0609 -0.0545 -0.1367
31411W        W74328  27.203   7.626   6.212  0.2096 -0.2976  0.0976
31412W        W74329  28.194   2.327   5.173 -0.0947  0.1092 -0.0106
31413W        W74330  30.080   7.506   4.482 -0.0725 -0.2172 -0.5188
31414W        W74331  27.868   4.434   7.140  0.1171 -0.0057 -0.2251
31415W        W74332  27.293   5.798   3.352 -0.0987 -0.0717 -0.0883
31416W        W74333  25.853   6.745   4.616 -0.0628 -0.3527  0.1054
31417W        W74334  28.441   6.107   1.971 -0.1380  0.1728 -0.2715
31418W        W74335  28.414   3.600   7.213  0.1030  0.1608  0.0032
31419W        W74336  26.219   7.557   5.074  0.1014 -0.1904 -0.2818
31420W        W74337  26.622   4.921   3.928  0.2387  0.2932  0.1073
31421W        W74338  26.740   7.771   6.328 -0.0053  0.0350  0.0713
31422W        W74339  29.803   3.669   6.256  0.0743 -0.0027 -0.0868
31423W        W74340  28.078   6.357   3.246  0.0149 -0.3094 -0.0269
31424W        W74341  28.310   5.064   5.757  0.0733 -0.0445 -0.2842
31425W        W74342  30.759   3.030   5.413 -0.1323  0.3468 -0.0322
31426W        W74343  26.485   6.097   0.537 -0.0617  0.2504  0.0126
31427W        W74344  26.044   4.175   5.717 -0.0500  0.0029  0.1501
31428W        W74345  25.719   3.481   5.282 -0.1997  0.0540  0.4062
31429W        W74346  28.916   8.101   5.213  0.2327  0.0481 -0.1282
31430W        W74347  24.985   4.779   6.216  0.2251 -0.2590 -0.0677
31431W        W74348  27.106   8.886   6.832  0.1803 -0.1210 -0.1402
31432W        W74349  25.812   4.974   7.181 -0.1677  0.3256 -0.0024
31433W        W74350  28.908   3.843   5.404 -0.2854  0.3722  0.1032
31434W        W74351  25.647   4.511   2.878 -0.0035  0.2429 -0.2792
31435W        W74352  25.590   4.282   5.561 -0.2415 -0.0867 -0.0188
31436W        W74353  26.669   7.424   5.159  0.2501  0.1364  0.0850
31437W        W74354  27.433   4.960   3.910 -0.2047  0.4060  0.0684
31438W        W74355  28.715   5.419   4.536 -0.0787 -0.0489  0.4370
31439W        W74356  26.488   3.517   4.184 -0.1856 -0.1213  0.0629
31440W        W74357  26.979   5.825   2.293 -0.1279  0.3452  0.1642
31441W        W74358  27.158   5.293   3.661 -0.1549 -0.0886  0.0491
31442W        W74359  27.918   4.702   5.918  0.0335 -0.0383  0.3035
31443W        W74360  26.393   3.877   7.105 -0.3087  0.0513  0.0786
31444W        W74361  27.537   5.915   3.812  0.1739 -0.1139 -0.1585
31445W        W74362  26.487   4.592   3.428  0.0840  0.0715 -0.0997
31446W        W74363  26.153   3.315   4.994 -0.0914 -0.0752  0.0466
31447W        W74364  25.858   4.821   6.179 -0.0725  0.4026 -0.2776
31448W        W74365  26.647   3.387   7.145 -0.1095 -0.0409 -0.1183
31449W        W74366  24.725   4.053   7.748  0.0636 -0.0885 -0.0919
31450W        W74367  28.346   5.323   6.542 -0.1734 -0.0272 -0.1734
31451W        W74368  30.038   4.742   3.848  0.2405 -0.0117 -0.2596
31452W        W74369  29.054   4.591   6.511  0.1559  0.0935  0.2601
31453W        W74370  28.715   4.259   5.602  0.1979 -0.1845  0.2212
31454W        W74371  27.996   4.966   3.157  0.0896 -0.0435 -0.4115
31455W        W74372  27.317   6.728   2.250 -0.2681 -0.1845 -0.0387
31456W        W74373  26.775   4.975   8.833 -0.0133 -0.2087  0.3383
31457W        W74374  27.439   4.855   3.269 -0.0405  0.2596  0.2410
31458W        W74375  27.390   2.847   5.352  0.0251  0.1795 -0.2692
31459W        W74376  27.708   7.216   3.020 -0.1697  0.1374 -0.6492
31460W        W74377  27.945   6.761   4.524  0.1367  0.1621  0.0063
31461W        W74378  28.462   3.118   6.249 -0.1583 -0.0626  0.0207
31462W        W74379  25.702   3.942   4.100 -0.1050 -0.2683 -0.0523
31463W        W74380  26.209   6.985   7.525 -0.1951 -0.0297  0.0329
31464W        W74381  26.613   6.132   3.154 -0.0234  0.2007 -0.1188
31465W        W74382  27.833   5.970   1.962  0.0692 -0.0866 -0.0893
31466W        W74383  28.014   5.009   6.299  0.2186 -0.0640  0.0113
31467W        W74384  27.649   6.441   8.043 -0.0555 -0.1096 -0.0871
31468W        W74385  27.727   1.935   2.941 -0.0891 -0.0797  0.1925
31469W        W74386  28.023   4.318   5.612 -0.1419  0.4448  0.0096
31470W        W74387  26.519   7.253   4.626 -0.1015  0.1386 -0.2107
31471W        W74388  28.217   3.569   6.198  0.1208  0.0743 -0.2530
31472W        W74389  26.530   6.992   5.625  0.0464  0.0055  0.0393
31473W        W74390  27.187   6.164   6.546 -0.2149 -0.1958 -0.2190
31474W        W74391  27.634   4.860   5.491  0.0074 -0.0472 -0.0682
31475W        W74392  29.661   3.610   6.853  0.0229  0.1276 -0.0978
31476W        W74393  27.613   4.295   4.793  0.0527 -0.1469 -0.0072
31477W        W74394  25.866   4.652   5.692 -0.3339 -0.0582 -0.2296
31478W        W74395  30.966   6.110   8.225 -0.1749  0.2267  0.2606
31479W        W74396  25.472   7.115   6.372 -0.1903 -0.0573 -0.0389
31480W        W74397  26.327   5.257   4.256 -0.1468 -0.1960  0.4727
31481W        W74398  26.735   5.950   6.832  0.1575  0.3853 -0.1437
31482W        W74399  29.801   6.956   4.613  0.0337 -0.1121 -0.0011
31483W        W74400  26.745   5.471   6.826  0.1402  0.1016  0.0161
31484W        W74401  24.938   3.934   5.306  0.1657 -0.1040  0.3033
31485W        W74402  27.109   6.582   7.322 -0.0166  0.0033  0.1816
31486W        W74403  27.373   3.841   3.927  0.0013 -0.2427 -0.4931
31487W        W74404  27.403   4.378   5.290  0.2028 -0.2047  0.0419
31488W        W74405  27.574   5.361   3.421 -0.2338 -0.0584  0.2001
31489W        W74406  25.790   6.312   6.894 -0.1153 -0.3577 -0.2563
31490W        W74407  26.499   6.364   5.001 -0.3126 -0.1686 -0.0732
31491W        W74408  25.678   7.006   3.748 -0.1267  0.2022  0.1005
31492W        W74409  28.658   7.068   2.979 -0.0879 -0.0859 -0.1564
31493W        W74410  28.708   7.166   3.949 -0.0886 -0.0066 -0.4272
31494W        W74411  29.717   6.560   7.701  0.0874 -0.0709 -0.0742
31495W        W74412  28.553   3.954   2.283  0.0625 -0.1413 -0.2466
31496W        W74413  26.011   7.196   4.783  0.1323  0.0292 -0.2826
31497W        W74414  25.217   5.900   4.777 -0.2737  0.2512  0.1274
31498W        W74415  27.469   7.105   4.495 -0.1187  0.0687  0.2805
31499W        W74416  28.244   6.239   5.665  0.3841 -0.0782 -0.0479
31500W        W74417  30.440   5.009   8.647 -0.1487  0.0454  0.0139
31501W        W74418  28.805   3.340   4.576 -0.2114 -0.0869 -0.2262
31502W        W74419  28.616   4.289   4.662 -0.1711  0.0104 -0.3883
31503W        W74420  28.902   3.807   4.915 -0.5109 -0.3990 -0.0141
31504W        W74421  28.019   6.339   6.989 -0.2627  0.0622 -0.0213
31505W        W74422  26.296   5.454   3.742  0.0917  0.1949  0.2353
31506W        W74423  25.743   6.534   3.579 -0.1642  0.2669  0.1137
31507W        W74424  25.969   6.124   4.267  0.1583  0.0833  0.1537
31508W        W74425  28.724   4.661   7.163 -0.1273  0.0338  0.0708
31509W        W74426  26.449   7.747   7.104  0.0416 -0.2701 -0.1050
31510W        W74427  29.665   8.190   3.330 -0.2348  0.0825  0.2821
31511W        W74428  25.216   3.596   4.238 -0.0110  0.3304 -0.0899
31512W        W74429  26.699   5.556   5.401  0.0231 -0.0311 -0.2361
31513W        W74430  28.412   4.632   4.964  0.4127  0.3073  0.2095
31514W        W74431  27.246   6.613   1.555  0.0401  0.0135  0.0508
31515W        W74432  29.030   5.614   5.596  0.2206 -0.0828 -0.0420
31516W        W74433  28.331   6.724   4.119 -0.1396 -0.2257 -0.0714
31517W        W74434  28.821   4.968   5.255  0.1023  0.3341  0.1045
31518W        W74435  29.918   7.861   5.216 -0.0838 -0.1347 -0.0573
31519W        W74436  27.176   5.528   2.691 -0.0068 -0.0943  0.0971
31520W        W74437  29.684   5.586   4.344  0.1139  0.2040 -0.3540
31521W        W74438  26.994   4.688   5.881  0.1056 -0.1301 -0.1223
31522W        W74439  28.275   4.390   6.874  0.2893  0.1743 -0.0167
31523W        W74440  24.792   5.710   2.997 -0.2533  0.1230 -0.3243
31524W        W74441  28.975   2.925   4.846 -0.2254  0.0889 -0.1782
31525W        W74442  27.445   4.737   4.900 -0.2089  0.0859  0.2993
31526W        W74443  26.466   4.545   5.074 -0.3409 -0.1360 -0.0869
31527W        W74444  28.627   6.610   3.226  0.0841  0.2546  0.2762
31528W        W74445  30.050   5.335   6.957 -0.2934 -0.0236 -0.1092
31529W        W74446  28.347   5.237   1.721 -0.1157 -0.0680 -0.0320
31530W        W74447  27.477   6.118   8.716 -0.3599  0.1493  0.0943
31531W        W74448  26.829   2.151   3.949 -0.1562 -0.1259  0.2039
31532W        W74449  28.975   6.314   3.590 -0.2008 -0.0002  0.1153
31533W        W74450  27.937   5.092   4.746 -0.0171 -0.0507 -0.2491
31534W        W74451  24.824   3.420   4.757 -0.0841  0.1900 -0.1820
31535W        W74452  28.791   8.044   5.749  0.1270 -0.2997  0.0438
31536W        W74453  25.507   3.808   4.608  0.1731 -0.1578  0.2711
31537W        W74454  30.666   5.501   2.098  0.3046 -0.1101 -0.0646
31538W        W74455  29.695   4.820   6.913 -0.0362 -0.1389 -0.2772
31539W        W74456  29.965   7.650   3.496  0.2507  0.1138 -0.1665
31540W        W74457  28.670   5.358   3.501 -0.2413 -0.2385 -0.0689
31541W        W74458  28.188   7.298   5.718  0.2612  0.5164 -0.2665
31542W        W74459  25.081   4.372   5.654 -0.0011 -0.0878  0.0422
31543W        W74460  28.412   7.928   5.308 -0.1163  0.1195  0.4471
31544W        W74461  28.505   5.817   5.764  0.1354 -0.1544 -0.2273
31545W        W74462  29.454   2.497   2.731  0.0914 -0.1128  0.0323
31546W        W74463  27.789   3.152   4.534 -0.0650  0.1618 -0.0203
31547W        W74464  25.567   6.230   3.997 -0.2535  0.2845  0.0753
31548W        W74465  30.356   3.890   7.364  0.0540  0.1798 -0.4959
31549W        W74466  28.907   3.990   7.329  0.0550  0.0635 -0.0683
31550W        W74467  28.257   8.790   3.904 -0.3572 -0.0002  0.0019
31551W        W74468  26.295   4.634   6.542  0.0670  0.3579 -0.0658
31552W        W74469  26.074   5.916   6.843 -0.0875  0.0153  0.0324
31553W        W74470  26.715   7.857   7.616  0.2669  0.0957  0.1315
31554W        W74471  28.080   5.620   4.602  0.1020  0.0950 -0.5140
31555W        W74472  27.212   4.435   4.457 -0.2196  0.2793 -0.1744
31556W        W74473  26.584   5.096   3.358  0.1833 -0.1828 -0.0330
31557W        W74474  27.761   8.499   4.792  0.0755  0.0703  0.0388
31558W        W74475  29.376   6.041   3.284 -0.0206 -0.4373 -0.2924
31559W        W74476  28.843   5.912   4.689  0.0735 -0.0097  0.0364
31560W        W74477  29.337   6.876   5.947  0.1022  0.0873 -0.1164
31561W        W74478  26.989   3.427   6.043  0.0096  0.0952  0.2070
31562W        W74479  28.828   3.707   3.178 -0.4545  0.1940  0.3213
31563W        W74480  29.078   4.196   4.512 -0.3577  0.1847 -0.1754
31564W        W74481  27.420   3.899   4.979  0.0329  0.3893 -0.4123
31565W        W74482  25.219   5.857   4.177  0.2408 -0.0518  0.2165
31566W        W74483  25.266   6.484   3.658  0.1243 -0.0437 -0.1148
31567W        W74484  28.077   5.535   5.611  0.2247 -0.1087 -0.1568
31568W        W74485  28.446   4.472   6.014  0.2947  0.1131 -0.3438
31569W        W74486  25.595   3.215   5.667  0.0022  0.0555  0.2954
31570W        W74487  28.280   5.438   6.106  0.0748  0.3153  0.0389
31571W        W74488  28.203   4.191   2.610  0.0880 -0.3224  0.2227
31572W        W74489  27.567   6.237   3.277 -0.3542 -0.1234 -0.3699
31573W        W74490  26.156   3.396   5.935 -0.1330  0.1696  0.2263
31574W        W74491  25.578   3.969   6.083 -0.0188  0.1767  0.1549
31575W        W74492  27.513   6.754   3.158  0.1061 -0.1185  0.0382
31576W        W74493  29.228   6.750   3.806 -0.0917 -0.1163 -0.4314
31577W        W74494  27.008   1.924   4.962 -0.4184 -0.1602  0.1654
31578W        W74495  28.972   4.051   6.424  0.0110  0.0832 -0.1489
31579W        W74496  25.770   4.842   5.185  0.2319  0.0575  0.2767
31580W        W74497  26.533   3.770   6.134 -0.1591 -0.0502 -0.1870
31581W        W74498  26.169   3.519   6.407 -0.0129  0.0993  0.1144
31582W        W74499  25.405   2.826   3.249 -0.0905 -0.1567  0.1282
31583W        W74500  26.209   4.139   5.111 -0.2290 -0.3174 -0.2040
31584W        W74501  28.538   6.181   6.866 -0.2322  0.0064  0.2606
31585W        W74502  26.466   8.194   3.441 -0.4155 -0.2428 -0.3232
31586W        W74503  27.010   4.998   4.236  0.0586 -0.1223  0.0454
31587W        W74504  28.192   6.083   5.206  0.1380  0.0807  0.1852
31588W        W74505  25.536   3.588   6.841 -0.2478 -0.4067  0.1682
31589W        W74506  28.073   6.017   3.845 -0.1942  0.4227 -0.1725
31590W        W74507  25.408   5.063   6.243 -0.1573 -0.3528  0.1131
31591W        W74508  29.501   5.714   2.948 -0.1644 -0.1535  0.0054
31592W        W74509  30.222   4.114   5.524 -0.0951  0.0365  0.2986
31593W        W74510  27.561   4.878   4.392 -0.2890  0.0619 -0.2079
31594W        W74511  27.121   0.861   6.091 -0.2691 -0.3792  0.0358
31595W        W74512  26.579   4.715   7.521 -0.3371 -0.3834 -0.0101
31596W        W74513  29.118   5.120   4.704 -0.1697  0.0636  0.1000
31597W        W74514  25.952   4.178   4.488 -0.2370 -0.0998  0.2690
31598W        W74515  28.328   3.903   5.657 -0.4763 -0.2232 -0.1039
31599W        W74516  28.818   5.785   2.265  0.0201  0.0497 -0.0768
31600W        W74517  25.461   4.942   4.240  0.2070  0.1638  0.0266
31601W        W74518  29.142   4.835   6.981 -0.0251 -0.2053  0.1372
31602W        W74519  27.559   5.538   5.485  0.0935 -0.0822 -0.3444
31603W        W74520  28.480   5.273   7.035 -0.0102  0.1123 -0.0409
31604W        W74521  26.527   4.229   4.521  0.2531 -0.1586 -0.0591
31605W        W74522  29.206   4.550   2.714 -0.1016  0.0183 -0.0394
31606W        W74523  27.391   6.281   6.992  0.1196  0.0332  0.0701
31607W        W74524  29.231   7.420   4.775  0.1540 -0.0262  0.0015
31608W        W74525  26.638   5.194   7.247  0.0457  0.2755  0.1528
31609W        W74526  28.798   4.517   4.238  0.1474  0.1389 -0.0044
31610W        W74527  25.346   3.803   7.278 -0.0646  0.1969  0.2568
31611W        W74528  26.509   6.494   2.724 -0.0986  0.2454  0.0869
31612W        W74529  26.256   6.545   4.280  0.0661  0.1472 -0.2044
31613W        W74530  28.327   4.406   3.068  0.2118 -0.6405 -0.3411
31614W        W74531  25.307   2.603   4.961 -0.6128 -0.1793 -0.1706
31615W        W74532  28.554   4.019   6.111 -0.1391  0.2383  0.3297
31616W        W74533  26.720   7.788   5.436  0.0923  0.1354 -0.2284
31617W        W74534  29.462   6.287   4.801 -0.1810 -0.0542 -0.0849
31618W        W74535  22.435   3.091   9.458 -0.2513  0.0748  0.1631
31619W        W74536  27.654   3.739   7.948  0.2693 -0.4465 -0.1459
31620W        W74537  29.359   4.001   7.512  0.1310 -0.1975  0.2507
31621W        W74538  28.509   4.299   9.037 -0.3126 -0.1938 -0.2177
31622W        W74539  25.544   4.251   7.119  0.0516 -0.2660 -0.0178
31623W        W74540  27.749   8.157   7.297  0.0012  0.1681 -0.2376
31624W        W74541  27.624   5.526   9.032  0.1107  0.1524  0.2383
31625W        W74542  30.903   8.778   8.910 -0.1147 -0.1235  0.1405
31626W        W74543  27.735   5.982   6.772  0.0197  0.2117  0.0438
31627W        W74544  26.068   4.011   7.821 -0.3262  0.0829 -0.1132
31628W        W74545  27.845   4.196   9.743 -0.1911  0.4240 -0.0134
31629W        W74546  27.734   2.088   9.686 -0.2013 -0.1673  0.2392
31630W        W74547  29.031   2.304   9.722 -0.1711  0.0966 -0.2766
31631W        W74548  27.027   4.717   9.144 -0.4356 -0.0682  0.1273
31632W        W74549  27.207   0.084   9.366  0.1878 -0.1383  0.0230
31633W        W74550  28.553   2.931   8.035  0.1879 -0.3936 -0.0587
31634W        W74551  28.154   4.667   8.937 -0.0157  0.5915  0.0020
31635W        W74552  23.638   2.725   9.485  0.1521  0.2256  0.0679
31636W        W74553  27.380   6.822   7.680  0.2701  0.1241 -0.0665
31637W        W74554  25.269   4.545   6.634 -0.3401  0.0556  0.2563
31638W        W74555  26.965   3.946   8.825  0.3651  0.1086 -0.0788
31639W        W74556  29.487  11.814   9.666 -0.1628  0.3822  0.4157
31640W        W74557  29.101   4.211   8.142 -0.1485 -0.3459  0.2535
31641W        W74558  26.200   4.333   9.393  0.1466  0.2336 -0.0782
31642W        W74559  27.559   7.195   8.507 -0.1723 -0.1913  0.0001
31643W        W74560  28.311   4.391   8.570  0.0762  0.1263 -0.1593
31644W        W74561  27.543   6.174   9.201 -0.1584  0.0749  0.0256
31645W        W74562  25.122   7.997   6.335 -0.0100 -0.0433  0.0850
31646W        W74563  26.719   4.409   8.908 -0.1364  0.1792 -0.0030
31647W        W74564  28.101   5.741   9.167 -0.2790  0.3209 -0.2969
31648W        W74565  27.600   3.402   5.380  0.0811  0.1407  0.1650
31649W        W74566  28.791   6.134   9.546 -0.0943  0.2060  0.0436
31650W        W74567  26.926   4.288   8.331  0.0705 -0.0078 -0.1777
31651W        W74568  27.387   5.747   6.457 -0.2368 -0.1153 -0.0635
31652W        W74569  28.039   6.318   8.373  0.1182  0.1695  0.0703
31653W        W74570  27.291   4.133   9.730  0.0177 -0.1601 -0.0609
31654W        W74571  27.170   4.605   8.623 -0.0332 -0.0733 -0.1254
31655W        W74572  27.961   4.082   6.094  0.2001  0.2008 -0.3796
31656W        W74573  27.778   4.719   6.706 -0.0280  0.1523 -0.1349
31657W        W74574  28.361   5.655   7.826 -0.0454  0.0126 -0.0782
31658W        W74575  30.144   1.402   7.385  0.1249 -0.0639  0.2135
31659W        W74576  26.783   6.649   6.904  0.4275  0.1222 -0.2181
31660W        W74577  27.721   2.687   9.883  0.1454  0.4000 -0.1127
31661W        W74578  26.705   6.070   8.549  0.2294 -0.1894  0.0483
31662W        W74579  26.403   4.257   7.485 -0.3068 -0.1047  0.3349
31663W        W74580  28.710   3.427   8.105  0.0444  0.5145  0.0686
31664W        W74581  24.198   6.022   8.834 -0.2332 -0.3396 -0.2583
31665W        W74582  28.923   6.887   7.419  0.1435 -0.2032 -0.1645
31666W        W74583  27.676   7.404   8.987  0.2815 -0.0984 -0.1215
31667W        W74584  28.604   6.519   7.249  0.3240 -0.2131  0.1603
31668W        W74585  27.179   5.237   6.986 -0.1100 -0.0126 -0.0061
31669W        W74586  26.902   3.050   6.345 -0.0664 -0.0408 -0.0476
31670W        W74587  28.966   5.031   9.312  0.1312 -0.2548 -0.0920
31671W        W74588  27.488   4.452   9.396 -0.3692 -0.2060 -0.0842
31672W        W74589  29.841   4.414   9.677 -0.1505 -0.0209  0.0083
31673W        W74590  27.481   5.643   4.934  0.0555 -0.1455 -0.0152
31674W        W74591  28.887   4.313   9.484  0.1531 -0.1763 -0.3122
31675W        W74592  31.956   3.896   9.739  0.0707  0.2487  0.0125
31676W        W74593  27.808   4.168   6.704 -0.0598  0.2368  0.4566
31677W        W74594  25.414   5.174   7.666 -0.1529  0.2675  0.1007
31678W        W74595  28.994   7.812   9.354  0.0866 -0.1197 -0.3230
31679W        W74596  29.093   4.721   8.108 -0.1123  0.3356 -0.1774
31680W        W74597  26.786   4.781   9.553 -0.1848 -0.1372 -0.0559
31681W        W74598  27.223   6.645   6.688  0.1093 -0.0439  0.0723
31682W        W74599  25.300   4.673   8.842 -0.1414 -0.0402 -0.0460
31683W        W74600  25.952   4.382   7.412  0.2215 -0.0292 -0.1689
31684W        W74601  25.485   3.914   9.087 -0.1724 -0.2227  0.2112
31685W        W74602  27.492   8.207   8.949 -0.0016 -0.4261  0.3329
31686W        W74603  29.879   4.019  10.429  0.0376 -0.3369 -0.1231
31687W        W74604  28.817   3.768   9.519  0.0640  0.0143 -0.0584
31688W        W74605  25.114   3.566   9.381  0.0418 -0.2465 -0.2754
31689W        W74606  29.072   8.371   7.722  0.2025 -0.0373  0.3976
31690W        W74607  27.868   4.948   9.313 -0.0833  0.1086  0.1804
31691W        W74608  30.097   6.031   7.033 -0.1695 -0.1299  0.1061
31692W        W74609  25.769   3.400   8.606 -0.1663 -0.0275 -0.0026
31693W        W74610  26.494   4.103   8.582  0.0924 -0.0035 -0.2190
31694W        W74611  23.660   3.713   8.201  0.1329  0.1612 -0.0034
31695W        W74612  26.418   3.342   8.153 -0.0506 -0.1612 -0.0674
31696W        W74613  28.050   3.401   8.829  0.0528  0.0159  0.1855
31697W        W74614  29.265   4.068   8.615  0.4861  0.2041  0.0058
31698W        W74615  24.376   5.406   7.645 -0.1447 -0.2124  0.0565
31699W        W74616  28.708   7.572   6.369  0.0587  0.0885 -0.1462
31700W        W74617  26.980   5.441   8.742 -0.2103 -0.0406  0.2587
31701W        W74618  27.808   6.882   8.873 -0.1115 -0.0837  0.4456
31702W        W74619  24.316   4.329   9.039  0.1068  0.4328  0.1861
31703W        W74620  26.185   4.467   8.875  0.0187  0.0405 -0.0147
31704W        W74621  25.131   7.590   8.720 -0.1662  0.0432  0.0102
31705W        W74622  28.592   6.300   8.183  0.2571  0.0019  0.2567
31706W        W74623  27.090   5.300   6.482 -0.1849 -0.1146  0.0541
31707W        W74624  28.219   6.285   9.490 -0.0037  0.2925  0.1744
31708W        W74625  29.007   6.533   8.255 -0.1797 -0.2080 -0.2179
31709W        W74626  30.275   4.032   9.538  0.2238  0.1334  0.0505
31710W        W74627  30.012   1.144   9.055 -0.1541 -0.0915 -0.1716
31711W        W74628  25.877   3.889   7.207 -0.0771 -0.2073  0.2666
31712W        W74629  28.067   4.917   8.336 -0.0884  0.0165 -0.1916
31713W        W74630  25.253   7.725   7.051 -0.1587  0.4762  0.3204
31714W        W74631  25.857   3.888   8.789 -0.0320 -0.1106  0.0038
31715W        W74632  27.821   5.768   8.675 -0.2570 -0.0352 -0.1786
31716W        W74633  28.340   5.339   8.575  0.0306  0.1460 -0.2280
31717W        W74634  27.123   4.849   5.247  0.1122  0.1594  0.0885
31718W        W74635  28.180   4.993   9.701 -0.0441  0.0666 -0.2384
31719W        W74636  30.227   4.110  10.025  0.0782  0.0532  0.2433
31720W        W74637  29.550   4.818   8.195 -0.1925  0.0296 -0.2288
31721W        W74638  29.023   4.392   7.682  0.3452 -0.2104  0.0961
31722W        W74639  28.534   4.281   7.464 -0.0397 -0.0637 -0.0662
31723W        W74640  30.133   5.891   8.312 -0.0637  0.2851 -0.1089
31724W        W74641  27.476   5.416   8.557  0.1967 -0.1561 -0.0534
31725W        W74642  25.700   4.893   6.693  0.0940 -0.0150  0.2075
31726W        W74643  30.763   7.537   8.736  0.5135 -0.5770  0.1064
31727W        W74644  26.751   3.608   8.520 -0.0499  0.2375 -0.2076
31728W        W74645  29.646   7.203   8.926 -0.1323  0.1758  0.2689
31729W        W74646  27.384   5.019   9.435  0.1157 -0.1358  0.2452
31730W        W74647  28.172   2.656   9.201  0.0311  0.2508 -0.0074
31731W        W74648  27.399   2.769   8.605  0.4654  0.2048  0.1643
31732W        W74649  25.083   7.428   5.859 -0.0044 -0.3495 -0.0689
31733W        W74650  30.936   1.173   9.499  0.1373 -0.1909  0.1144
31734W        W74651  22.539   4.062   8.797  0.2166 -0.2987 -0.1252
31735W        W74652  27.109   4.950   7.572 -0.1470  0.3116 -0.1864
31736W        W74653  25.824   3.477   9.155  0.1410 -0.2014 -0.2604
31737W        W74654  26.076   4.136   8.326  0.0267  0.1581  0.1262
31738W        W74655  24.766   1.734   9.269 -0.0997  0.2479 -0.1561
31739W        W74656  24.443   6.366   9.700 -0.1355 -0.1921  0.0108
31740W        W74657  25.177   4.824   9.300  0.1340  0.0585 -0.2164
31741W        W74658  29.020   2.689   7.936  0.0242 -0.0454  0.0404
31742W        W74659  27.240   7.376   7.406 -0.1046 -0.0253 -0.0759
31743W        W74660  26.956   5.635   7.268 -0.2066  0.2151 -0.2051
31744W        W74661  26.929   5.230   9.325 -0.1172  0.0816 -0.1348
31745W        W74662  24.694   5.727   7.843 -0.0032  0.2142 -0.1143
31746W        W74663  26.923   4.649   7.097  0.1613 -0.0607  0.0611
31747W        W74664  30.015   5.976   9.492 -0.1663 -0.1931 -0.0358
31748W        W74665  25.528   6.451   5.808 -0.3491 -0.2270 -0.1829
31749W        W74666  29.642   1.597   9.235 -0.0561  0.0552  0.0305
31750W        W74667  29.091   6.981   8.964  0.1737 -0.1620  0.0950
31751W        W74668  24.331   5.098   8.675  0.1967 -0.0882 -0.0601
31752W        W74669  25.547   5.868   7.055  0.0351  0.2313 -0.2918
31753W        W74670  30.608   3.359   9.057 -0.0733 -0.1641 -0.2078
31754W        W74671  30.241   5.682   7.339 -0.3449 -0.3739  0.0388
31755W        W74672  28.843   2.825   9.730  0.0522  0.4035  0.2787
31756W        W74673  29.350   1.289   9.462  0.2843 -0.1661  0.1760
31757W        W74674  24.098   5.158   8.219 -0.0124 -0.0143 -0.2677
31758W        W74675  29.481   3.889   7.997 -0.1994  0.2915 -0.1381
31759W        W74676  23.938   3.018   6.680  0.0333  0.1862 -0.0311
31760W        W74677  29.841   3.387   9.383  0.0909 -0.0653  0.0102
31761W        W74678  27.818   4.430   8.627 -0.0698  0.1526  0.1909
31762W        W74679  25.070   7.263   8.069 -0.1047 -0.3381  0.0885
31763W        W74680  30.580   5.782   8.120 -0.0817 -0.1410  0.1562
31764W        W74681  25.721   4.944   7.984  0.1956  0.1833 -0.0754
31765W        W74682  27.960   5.349   7.731  0.3231  0.0313 -0.1018
31766W        W74683  28.405   6.969   7.560 -0.2029  0.3709  0.0478
31767W        W74684  25.552   4.713   7.558  0.5472 -0.0882  0.0689
31768W        W74685  25.364   3.449   8.902 -0.1388 -0.0074 -0.0046
31769W        W74686  27.597   4.857   8.336 -0.0465 -0.1764  0.1130
31770W        W74687  27.550   2.829   9.134  0.1338  0.3783 -0.1853
31771W        W74688  27.815   5.951   9.651 -0.4724  0.3430  0.0090
31772W        W74689  28.621   2.367   9.441 -0.0496  0.2380 -0.1414
31773W        W74690  29.279   7.366   5.667  0.1225  0.0539 -0.2371
31774W        W74691  26.469   5.717   7.303 -0.0106  0.2332  0.0208
31775W        W74692  25.180   3.656   8.434  0.0827 -0.0312  0.0628
31776W        W74693  27.905   5.678   6.399 -0.1515 -0.1477  0.1265
31777W        W74694  27.796   5.789   7.783 -0.0025 -0.4287 -0.1669
31778W        W74695  26.032   5.050   9.322  0.1793 -0.0433  0.4094
31779W        W74696  25.869   5.365   7.775 -0.0120  0.0275 -0.1053
31780W        W74697  25.137   4.157   8.724  0.2719  0.0073 -0.1216
31781W        W74698  29.819   2.799   6.053  0.0461  0.1325  0.1820
31782W        W74699  26.289   4.736   7.140 -0.1344 -0.0120  0.0970
31783W        W74700  27.306   3.786   9.260  0.2656  0.0379  0.0794
31784W        W74701  29.797   5.349   7.508  0.1202  0.0786 -0.1573
31785W        W74702  24.155   3.157   8.552 -0.0526  0.3199 -0.1605
31786W        W74703  29.679   5.874   8.357  0.2089  0.2078  0.0535
31787W        W74704  26.284   6.393   8.615 -0.1716 -0.0734  0.0762
31788W        W74705  26.561   4.138   5.764  0.0254 -0.2436  0.0068
31789W        W74706  27.249   1.831   9.819 -0.5993 -0.2661  0.2339
31790W        W74707  26.431   4.767   9.156 -0.0225 -0.0958  0.1213
31791W        W74708  28.428   4.228   8.020  0.0744 -0.1105 -0.3069
31792W        W74709  30.252   2.615   9.039  0.2265  0.0320  0.2087
31793W        W74710  27.676   7.739   8.668 -0.0492  0.1586 -0.1542
31794W        W74711  29.308   3.950   9.483  0.0687 -0.2148  0.1379
31795W        W74712  28.812   6.635   8.731  0.4385 -0.2235  0.1029
31796W        W74713  26.442   4.014   9.092  0.1831 -0.4575 -0.3121
31797W        W74714  26.969   4.275   9.332 -0.1565  0.0651 -0.1100
31798W        W74715  26.197   5.433   8.291 -0.1032 -0.1687 -0.1976
31799W        W74716  26.731   6.581   8.420 -0.0023  0.5364  0.0788
31800W        W74717  27.492   5.780   7.399  0.2295  0.0985  0.3843
31801W        W74718  29.633   4.620   8.699  0.2730  0.0758 -0.0886
31802W        W74719  30.829   4.007   8.122 -0.1712  0.0081  0.0669
31803W        W74720  29.062   4.517   9.910 -0.2404 -0.1172 -0.0656
31804W        W74721  29.080   4.043  10.910  0.1960  0.0944 -0.0921
31805W        W74722  26.060   3.056   7.226 -0.0842  0.2189 -0.0562
31806W        W74723  27.672   6.011   8.246  0.2134 -0.0794  0.1085
31807W        W74724  28.846   6.940   7.922 -0.2029 -0.3106  0.1070
31808W        W74725  27.260   4.693   7.994  0.0563  0.1354 -0.1912
31809W        W74726  25.055   4.906   7.413 -0.1772  0.3400 -0.2975
31810W        W74727  25.307   5.581   6.192 -0.3169 -0.1228  0.0561
31811W        W74728  26.563   5.231   6.347 -0.2473  0.1129 -0.2472
31812W        W74729  26.009   7.451   9.143 -0.1274 -0.1483 -0.0139
31813W        W74730  28.499   2.805   6.750  0.5230  0.1207  0.0810
31814W        W74731  25.416   5.575   7.442 -0.1032 -0.4285  0.0919
31815W        W74732  29.096   3.141   8.235 -0.3638 -0.0315  0.0248
31816W        W74733  31.176   7.347   9.047 -0.0832  0.0262 -0.1131
31817W        W74734  27.885   5.125   8.844  0.1753  0.1532 -0.1433
31818W        W74735  29.169   2.494   7.237  0.2923 -0.0762 -0.3889
31819W        W74736  31.339   4.924   9.040 -0.1833  0.2331  0.0037
31820W        W74737  28.964   7.176   8.470 -0.0888  0.0090  0.0041
31821W        W74738  24.776   5.453   8.714  0.0537  0.0674 -0.0834
31822W        W74739  28.823   5.476   9.246 -0.0259  0.0609  0.0170
31823W        W74740  27.091   6.369   9.273  0.0484  0.0679  0.0121
31824W        W74741  26.434   7.621   9.396 -0.2032 -0.0771 -0.1082
31825W        W74742  26.501   3.210   7.601  0.3012 -0.1173 -0.1523
31826W        W74743  28.955   6.071   7.811 -0.6332  0.3026 -0.0250
31827W        W74744  26.598   4.290   9.724  0.1942  0.3366 -0.3064
31828W        W74745  27.398   5.563   8.088 -0.0342  0.0874  0.3175
31829W        W74746  27.802   6.610   9.330 -0.1935  0.1466 -0.0913
31830W        W74747  28.212   5.728   6.867 -0.0290 -0.1863 -0.2293
31831W        W74748  28.082   6.204   7.912 -0.3094  0.0361  0.2695
31832W        W74749  26.955   5.319   7.862 -0.2757 -0.0450  0.2492
31833W        W74750  26.638   6.305   7.406 -0.1803 -0.4798  0.4548
31834W        W74751  26.477   6.990   6.716 -0.0376 -0.0698 -0.0444
31835W        W74752  28.605   5.671   7.402 -0.3028  0.1597  0.0095
31836W        W74753  25.745   7.548   6.677  0.3044  0.0807 -0.1905
31837W        W74754  28.469   3.834   7.704 -0.0261 -0.0576 -0.1950
31838W        W74755  27.576   4.735   8.893 -0.0294  0.1338  0.1242
31839W        W74756  30.045   4.834   6.436 -0.1154  0.0103  0.0754
31840W        W74757  25.884   6.540   7.343  0.0460 -0.2254 -0.1806
31841W        W74758  27.435   5.310   7.434  0.0658  0.1682 -0.3579
31842W        W74759  26.760   4.809   8.038 -0.0091 -0.0873 -0.0901
31843W        W74760  23.812   4.458   7.745 -0.0772 -0.2423 -0.1045
31844W        W74761  26.598   3.547   9.068 -0.1434 -0.2866  0.0617
31845W        W74762  29.173   5.297   8.966 -0.2974  0.2027  0.0419
31846W        W74763  27.649   5.482   6.995  0.2426  0.2632 -0.0209
31847W        W74764  28.763   3.487   9.095 -0.0759 -0.0047  0.1900
31848W        W74765  27.683   7.077   8.021 -0.4248 -0.0373 -0.2451
31849W        W74766  27.543   6.685   8.448  0.0022  0.2377 -0.0143
31850W        W74767  26.498   5.635   8.653 -0.0369  0.0406 -0.0795
31851W        W74768  25.092   1.769   8.789  0.5716  0.0255 -0.0193
31852W        W74769  30.250   3.896   8.033 -0.1380  0.2379  0.1737
31853W        W74770  22.823   7.351   8.248 -0.2380  0.1456  0.0097
31854W        W74771  25.709   3.446   7.279 -0.1695 -0.1679 -0.3438
31855W        W74772  28.003   2.334   8.773  0.0758 -0.2714 -0.0460
31856W        W74773  25.338   5.476   8.627  0.0974 -0.1740 -0.0929
31857W        W74774  24.850   6.086   9.337  0.2457 -0.2634  0.2418
31858W        W74775  25.387   4.910   8.416 -0.1810 -0.2852 -0.2145
31859W        W74776  26.617   4.778   6.154  0.3065  0.0790  0.1123
31860W        W74777  25.213   3.812   7.823  0.2497 -0.2478 -0.0059
31861W        W74778  28.872   5.199   8.308 -0.1392  0.3140  0.1690
31862W        W74779  27.499   4.812   7.120 -0.3286 -0.0435 -0.0896
31863W        W74780  27.093   6.970   8.119  0.1824  0.1207  0.0753
31864W        W74781  26.673   4.256   6.245 -0.4663 -0.0487  0.1625
31865W        W74782  29.048   5.395   6.983  0.0331 -0.0306  0.1344
31866W        W74783  29.326   2.322   8.662 -0.1124  0.0380  0.1078
31867W        W74784  27.704   6.105   6.271  0.0872 -0.2035  0.1640
31868W        W74785  28.538   6.327   9.101  0.1001  0.0521 -0.1275
31869W        W74786  27.113   7.429   8.373  0.2541  0.1929  0.0303
31870W        W74787  27.496   3.319   9.181 -0.1346 -0.0460  0.1210
31871W        W74788  30.446   6.240   8.647  0.0616  0.0221  0.0990
31872W        W74789  29.103   3.630   9.861 -0.0925  0.0529 -0.1692
31873W        W74790  28.338   1.946   8.012  0.2883  0.3716 -0.0656
31874W        W74791  25.591   3.920   8.120  0.3875 -0.0933  0.1025
31875W        W74792  30.593   6.099   9.457 -0.0500  0.1776  0.0492
31876W        W74793  29.941   1.592   8.245  0.0931  0.2722 -0.2694
31877W        W74794  29.571   5.064   6.132  0.1381 -0.0007 -0.4998
31878W        W74795  27.996   8.026   8.154 -0.0198  0.0014  0.0386
31879W        W74796  25.438   5.992   8.213 -0.1210  0.1415 -0.0418
31880W        W74797  25.942   4.620   8.358  0.3347 -0.0607 -0.1046
31881W        W74798  28.607   8.313   7.388 -0.0274 -0.2426  0.0669
31882W        W74799  29.611   5.764   9.238  0.2228 -0.0181 -0.2628
31883W        W74800  27.353   4.289   8.937 -0.0268  0.1400  0.1179
31884W        W74801  30.742   5.838   8.586 -0.0673  0.3226 -0.1757
31885W        W74802  27.752   2.020   8.433  0.2528 -0.3269  0.1615
31886W        W74803  31.196   5.031   7.312  0.0409 -0.1337 -0.0698
31887W        W74804  27.466   3.798   7.450 -0.3914 -0.0424  0.0202
31888W        W74805  25.348   7.656   8.294  0.3520  0.0907  0.1560
31889W        W74806  24.274   6.132   7.057 -0.0378 -0.0002  0.0340
31890W        W74807  25.081   4.320   7.490  0.0981 -0.1276 -0.2397
31891W        W74808  26.258   4.926   8.124  0.1418 -0.1264  0.0830
31892W        W74809  24.548   5.416   8.304  0.1563  0.1207  0.1519
31893W        W74810  26.573   2.765   7.269  0.0412  0.2106  0.2985
31894W        W74811  28.578   4.778   8.306 -0.0281  0.0746  0.2363
31895W        W74812  29.794   3.946   9.458  0.3796 -0.0333  0.0211
31896W        W74813  25.973   1.211   9.426 -0.2077  0.1833 -0.0147
31897W        W74814  30.786   5.165   7.922  0.2843 -0.1134  0.0402
31898W        W74815  28.441   6.120   8.617  0.2215  0.0632 -0.2631
31899W        W74816  28.153   2.600   8.308  0.0075 -0.0084 -0.0451
31900W        W74817  27.223   4.801   6.720 -0.2004  0.4797 -0.2345
31901W        W74818  25.525   3.019   7.055  0.0681 -0.0065  0.3674
31902W        W74819  28.672   4.807   9.716  0.0317  0.1004  0.0339
31903W        W74820  28.675   4.784   7.668 -0.1390 -0.4697 -0.2013
31904W        W74821  28.039   6.911   7.204  0.1624 -0.0705 -0.1072
31905W        W74822  24.172   2.576   8.323 -0.1844 -0.0109  0.1417
31906W        W74823  29.260   5.565   9.561 -0.0728 -0.1862 -0.4117
31907W        W74824  29.887   7.466   8.590  0.3889 -0.3239  0.1611
31908W        W74825  29.662   5.441   8.870 -0.2167  0.0687  0.2009
31909W        W74826  29.531   4.419  10.118 -0.0906 -0.2546  0.3091
31910W        W74827  29.376   6.170   8.070 -0.1910  0.5101 -0.1352
31911W        W74828  27.338   4.104   7.803  0.1583 -0.2882 -0.0154
31912W        W74829  30.216   5.421   8.728  0.2833 -0.0997 -0.1449
31913W        W74830  28.841   4.418   8.584 -0.0128 -0.1267  0.3455
31914W        W74831  25.367   2.570   9.019  0.0623 -0.1098  0.1863
31915W        W74832  28.970   3.720   7.792  0.1758  0.2380  0.0186
31916W        W74833  28.498   5.709   8.876  0.1759 -0.2017 -0.2636
31917W        W74834  28.409   3.364   8.514 -0.0069  0.2458 -0.1169
31918W        W74835  28.380   5.219   7.533 -0.2105 -0.0679 -0.3536
31919W        W74836  26.197   3.249   8.952  0.0209  0.1553  0.0300
31920W        W74837  29.014   6.086   8.496 -0.1189  0.0215  0.0136
31921W        W74838  26.875   3.834   9.533 -0.1134 -0.2024  0.1839
31922W        W74839  25.063   2.239   7.995  0.0173 -0.0845 -0.0625
31923W        W74840  25.809   5.683   8.552  0.3870 -0.0464  0.0536
31924W        W74841  27.840   3.620   8.400 -0.0297  0.0523 -0.0706
31925W        W74842  30.272   2.688   8.450  0.2702 -0.1274  0.1602
31926W        W74843  27.107   3.171   8.358  0.1014 -0.0303  0.0085
31927W        W74844  27.790   3.594   7.105  0.1219  0.0068 -0.1964
31928W        W74845  23.214   6.725   9.216  0.1705  0.0082 -0.0889
31929W        W74846  28.116   3.673   8.020  0.2322  0.0532 -0.4465
31930W        W74847  28.566  10.275   1.212  0.0742  0.2120 -0.0915
31931W        W74848  24.153   7.692   1.766 -0.1226  0.0918 -0.1245
31932W        W74849  27.989   8.438   0.294  0.0676  0.5267  0.1127
31933W        W74850  27.857   9.503  31.806  0.2193  0.0762  0.1564
31934W        W74851  23.853   9.941   0.057  0.1087 -0.2030  0.1922
31935W        W74852  28.481  12.598   1.128 -0.1199  0.1279  0.2504
31936W        W74853  28.013   7.355   2.098 -0.0802  0.0954 -0.0683
31937W        W74854  29.193   9.091   1.770  0.2570  0.1699 -0.3990
31938W        W74855  29.226  11.047   2.242 -0.3175 -0.1547 -0.0958
31939W        W74856  26.877  11.027  31.678  0.1869 -0.0595  0.0401
31940W        W74857  25.958   8.580   3.694 -0.0974  0.1373 -0.1390
31941W        W74858  27.056  10.178   0.757 -0.2179  0.0302 -0.2583
31942W        W74859  27.627  10.394  31.399  0.0278  0.0133 -0.3535
31943W        W74860  27.373   7.584   1.699  0.1488 -0.3284 -0.2126
31944W        W74861  28.915   6.803   1.069  0.2465 -0.1754  0.0626
31945W        W74862  22.979  10.289  31.789 -0.0852 -0.0198 -0.0560
31946W        W74863  26.853   7.356   1.986 -0.3030  0.1019  0.3786
31947W        W74864  27.848   8.418   1.186 -0.0602  0.4745 -0.0090
31948W        W74865  28.269  11.746   1.672  0.0935 -0.0228 -0.0403
31949W        W74866  28.960   8.050   2.605 -0.2140  0.1662 -0.0418
31950W        W74867  27.426   7.129   1.993 -0.2535  0.0108  0.0275
31951W        W74868  28.961  11.091   0.550 -0.0785 -0.1825 -0.0919
31952W        W74869  26.062   8.227   0.496 -0.2556  0.4109  0.0473
31953W        W74870  26.305   9.654   0.969 -0.2718 -0.0214  0.2002
31954W        W74871  28.328   7.182   0.837  0.0361  0.0503 -0.1604
31955W        W74872  28.594   8.430   1.777  0.4205 -0.0896  0.0651
31956W        W74873  29.544  11.518   0.381 -0.1441 -0.1721 -0.2589
31957W        W74874  28.452  12.149   1.467  0.0539 -0.2344 -0.2177
31958W        W74875  29.803  10.892   1.036  0.0098 -0.0562 -0.1482
31959W        W74876  28.358  10.284   3.553  0.0929  0.0403 -0.2550
31960W        W74877  25.057   8.611   0.732 -0.0967  0.0102  0.4766
31961W        W74878  23.492  11.246   1.450  0.1611  0.0130  0.0267
31962W        W74879  26.620   9.001  31.130  0.1107 -0.0828 -0.0462
31963W        W74880  30.517  12.205   1.357 -0.4015  0.1235  0.2369
31964W        W74881  27.218  10.723   2.743  0.2196 -0.1508  0.1041
31965W        W74882  29.906  10.863   3.326  0.3217 -0.2518  0.4240
31966W        W74883  24.633   9.428   0.036 -0.2197 -0.3136  0.3576
31967W        W74884  27.598   9.381   2.747 -0.1217 -0.1883  0.1398
31968W        W74885  25.874  12.369   3.724 -0.0976 -0.1729  0.0493
31969W        W74886  27.542  10.756   2.311  0.0709 -0.0062  0.1158
31970W        W74887  27.436   9.103   0.664 -0.3034 -0.0382 -0.0022
31971W        W74888  26.601  12.998   1.067  0.1934  0.1463  0.2049
31972W        W74889  29.100   9.684   2.509  0.0781 -0.2491  0.0748
31973W        W74890  27.635  10.261   2.450 -0.2727  0.0938 -0.2457
31974W        W74891  25.228   9.791   1.949 -0.2307  0.3918  0.1048
31975W        W74892  29.187   7.209   3.972 -0.2301  0.1477  0.0811
31976W        W74893  25.425   9.594   1.499 -0.0201 -0.0821  0.1861
31977W        W74894  27.006   9.599  31.858 -0.0544  0.1402 -0.1145
31978W        W74895  26.808   8.989   1.392 -0.1197 -0.1551 -0.1438
31979W        W74896  27.793   7.396   0.851 -0.1084 -0.1574 -0.2661
31980W        W74897  26.778   8.655   2.294 -0.1554  0.0033 -0.2690
31981W        W74898  27.690  11.440   1.145 -0.1126  0.1411  0.0339
31982W        W74899  26.476   7.028   1.890  0.1707  0.2971  0.1295
31983W        W74900  31.766   9.440   2.481  0.0830 -0.2569  0.0075
31984W        W74901  29.030   9.826   1.094 -0.0559  0.0114  0.0136
31985W        W74902  29.488   8.205   1.673  0.2873  0.2734 -0.1061
31986W        W74903  25.349  11.427   2.723 -0.1011  0.0196  0.3872
31987W        W74904  25.851   9.393   1.710  0.2970  0.1332 -0.2970
31988W        W74905  28.798  10.651   0.864 -0.1981 -0.1313 -0.1173
31989W        W74906  28.330  11.325   2.455 -0.1054  0.1975  0.0388
31990W        W74907  27.281  14.006   1.099  0.1042  0.0378 -0.2340
31991W        W74908  25.756   9.824  30.888  0.0861  0.1221  0.0346
31992W        W74909  25.775  10.675   3.372 -0.3150 -0.0106 -0.3535
31993W        W74910  26.501   7.395   4.109  0.0329  0.3058  0.1496
31994W        W74911  25.481   8.404   0.537 -0.3818 -0.1759 -0.1551
31995W        W74912  27.736  11.930   1.130 -0.0587 -0.1868 -0.1457
31996W        W74913  25.890   8.917   2.157 -0.1477  0.0115  0.0778
31997W        W74914  29.760   7.629   0.947 -0.1619 -0.0907 -0.1240
31998W        W74915  27.930  11.631   0.768 -0.2310 -0.2850  0.0471
31999W        W74916  28.984  10.530   2.147  0.1836  0.2166  0.0947
32000W        W74917  26.788   9.874   0.349 -0.1940  0.0634  0.0791
32001W        W74918  30.042   8.828   0.619 -0.4741  0.0144  0.1370
32002W        W74919  28.846   6.154   3.138 -0.0331 -0.2765 -0.2266
32003W        W74920  24.916  11.423  31.933 -0.0744  0.0597  0.2954
32004W        W74921  27.246  11.281  31.444  0.1591 -0.1436  0.1412
32005W        W74922  30.198   9.522   1.069  0.0461 -0.1170 -0.1432
32006W        W74923  30.604  11.089   0.898  0.2576 -0.4103  0.1338
32007W        W74924  26.277  10.781   5.056  0.2936  0.4081  0.0047
32008W        W74925  28.720   9.932   2.649 -0.4812 -0.0054  0.0232
32009W        W74926  29.366   8.754   2.271 -0.2059  0.1636 -0.0117
32010W        W74927  25.945  10.900   0.246 -0.0118  0.1354 -0.1008
32011W        W74928  25.405  11.215   1.578 -0.0838  0.1621 -0.0978
32012W        W74929  26.614   9.425   0.464 -0.3418  0.1155 -0.3282
32013W        W74930  25.547   7.104   2.345 -0.0615 -0.2252 -0.0069
32014W        W74931  27.965   9.065   0.986 -0.3144 -0.1481 -0.0585
32015W        W74932  29.723   7.578   1.667  0.1272 -0.0045 -0.0724
32016W        W74933  25.861   8.035   2.652 -0.0083 -0.0522 -0.1472
32017W        W74934  27.889   9.097   1.516  0.1053 -0.0828  0.0595
32018W        W74935  24.857  10.047   0.825  0.0306 -0.1192 -0.0184
32019W        W74936  29.288  10.860   0.981 -0.2921 -0.1118  0.2609
32020W        W74937  27.121   9.853   1.161 -0.1121  0.0337 -0.1217
32021W        W74938  29.079  12.569  30.532  0.3608  0.0933 -0.1098
32022W        W74939  26.619   8.573   1.744 -0.1968  0.2157  0.1027
32023W        W74940  27.158  10.327   1.217  0.1681  0.2473  0.5689
32024W        W74941  26.173   8.460   2.537  0.0532 -0.2686 -0.0901
32025W        W74942  28.302   8.097   1.505  0.2128  0.2449  0.0250
32026W        W74943  29.091   9.173   2.257  0.3159  0.0370 -0.1072
32027W        W74944  23.479   8.594   0.300 -0.1008  0.0284  0.2636
32028W        W74945  27.336   8.538   3.412 -0.0810  0.3907  0.0985
32029W        W74946  26.749   9.519   1.309  0.0432  0.0754 -0.1971
32030W        W74947  26.208  10.693   1.618 -0.2016  0.0283 -0.1883
32031W        W74948  28.833   7.049   3.451  0.0689  0.0987 -0.1157
32032W        W74949  29.734  13.211   0.748 -0.0527  0.0855  0.0109
32033W        W74950  27.662  13.040   1.101 -0.0421  0.1203 -0.2023
32034W        W74951  28.301  12.118   0.941 -0.1080 -0.0183  0.1302
32035W        W74952  25.869   7.024   1.512  0.0501  0.2093  0.3458
32036W        W74953  26.416   8.138   0.851  0.0272 -0.1607  0.0119
32037W        W74954  25.480  12.656   3.568  0.0765  0.1416 -0.2133
32038W        W74955  28.198  10.221   1.635 -0.3779 -0.0398  0.0717
32039W        W74956  27.607   8.051  30.856  0.0499  0.0082 -0.0246
32040W        W74957  30.516  11.728   2.248 -0.2686  0.2664  0.0241
32041W        W74958  27.120   8.358   0.395  0.0411 -0.0543  0.1436
32042W        W74959  28.327   8.184   3.208 -0.1410  0.0389  0.1946
32043W        W74960  30.443   6.975   1.740  0.1928  0.0741 -0.1533
32044W        W74961  29.638  10.682   2.929 -0.0711 -0.2407  0.0157
32045W        W74962  29.406   9.610   2.116 -0.0188  0.0491 -0.1649
32046W        W74963  26.896   7.926  30.849 -0.1476 -0.0312 -0.0283
32047W        W74964  26.807  14.148   2.466  0.1128 -0.0935 -0.1164
32048W        W74965  25.097   9.750   1.133 -0.1255 -0.1518 -0.1614
32049W        W74966  26.490  10.172   0.001  0.1766 -0.1897  0.0866
32050W        W74967  27.112  10.460   2.263  0.0744  0.0347 -0.1177
32051W        W74968  29.631   7.237   1.313  0.3906 -0.1595  0.2406
32052W        W74969  25.781   8.388   2.188 -0.2210 -0.0830  0.0607
32053W        W74970  28.265   9.953   2.386 -0.0241  0.2863 -0.2276
32054W        W74971  26.314   9.213  31.457 -0.0738 -0.0200  0.2549
32055W        W74972  26.801   9.644   0.816 -0.1181 -0.1449 -0.1743
32056W        W74973  27.204   7.384   0.887 -0.0433 -0.2047  0.0495
32057W        W74974  27.024   8.937   0.488 -0.1414 -0.2825  0.0816
32058W        W74975  28.218   9.814   3.523  0.2942 -0.1965 -0.0767
32059W        W74976  28.788  10.597  31.796 -0.1367 -0.0423  0.1641
32060W        W74977  26.559   9.700  31.574 -0.0190 -0.0307 -0.3116
32061W        W74978  27.091   9.693  31.331 -0.0018  0.1759  0.4316
32062W        W74979  27.607  13.308   3.818 -0.1118  0.0313 -0.0971
32063W        W74980  28.771  11.181   2.168 -0.0753 -0.1351 -0.3450
32064W        W74981  26.762   9.902   1.728 -0.1123  0.1586 -0.3044
32065W        W74982  27.271   8.084  30.525 -0.0742  0.0183 -0.2556
32066W        W74983  27.038  11.562   2.096  0.1899 -0.1034 -0.4589
32067W        W74984  24.268  10.646  31.686  0.3560 -0.1198 -0.2646
32068W        W74985  28.654  10.759   3.917 -0.2657 -0.1160 -0.0609
32069W        W74986  28.675  11.684   1.250  0.1200 -0.0713  0.5813
32070W        W74987  28.052   5.505   2.783 -0.2067 -0.0135 -0.4932
32071W        W74988  27.498   9.313  30.578 -0.0557  0.0701  0.1403
32072W        W74989  28.928   7.629   0.365  0.0076  0.2356  0.4137
32073W        W74990  24.124  11.802   1.415  0.0146  0.1143 -0.0112
32074W        W74991  26.706   6.549   0.669  0.3388  0.1067 -0.0959
32075W        W74992  27.972   6.835   1.511  0.3160  0.1360 -0.1885
32076W        W74993  27.502   6.401   2.774 -0.0671  0.1396  0.1734
32077W        W74994  30.487   6.558   2.791 -0.0669  0.1052  0.0776
32078W        W74995  30.082   8.931   1.774  0.0923  0.4383 -0.0401
32079W        W74996  30.104  10.816   1.441  0.1919  0.0522  0.0068
32080W        W74997  25.498  10.959   1.043 -0.3640 -0.1129 -0.0375
32081W        W74998  27.561   8.379   2.940  0.3318  0.3053 -0.0532
32082W        W74999  27.359   8.097   2.149  0.1000  0.0806  0.0135
32083W        W75000  25.644  14.715   2.128  0.1607  0.3585 -0.1196
32084W        W75001  29.484   7.661   3.495 -0.1574 -0.1986  0.1393
32085W        W75002  27.748   9.517   0.526 -0.0880  0.1316 -0.2984
32086W        W75003  27.446   7.840   2.623 -0.2390  0.3863 -0.0394
32087W        W75004  26.265   9.106   0.318  0.0616 -0.0041  0.0513
32088W        W75005  27.050  10.841   1.354  0.0541  0.1334  0.3086
32089W        W75006  27.284  11.430  30.927 -0.0481  0.1145 -0.0995
32090W        W75007  26.790   7.341   3.298  0.1906 -0.0606 -0.0048
32091W        W75008  27.540  10.348   1.972  0.5044  0.2598  0.0579
32092W        W75009  24.949  11.314   0.685 -0.1552  0.1419  0.4309
32093W        W75010  28.231  14.069   3.540  0.0709  0.1973  0.1997
32094W        W75011  26.222  10.976   2.092  0.3800 -0.3840  0.1126
32095W        W75012  28.722   6.672   3.763  0.1635 -0.0017  0.0887
32096W        W75013  24.552  12.027   1.326  0.2048 -0.0146  0.0378
32097W        W75014  26.045   9.211   0.806 -0.1088  0.0810 -0.1383
32098W        W75015  26.297   8.443   1.394  0.0264  0.0621  0.0723
32099W        W75016  29.475  10.651   2.009 -0.1888 -0.0833  0.0532
32100W        W75017  27.809  11.240  29.598 -0.0833  0.0788  0.1548
32101W        W75018  27.684   8.163   3.359  0.0131  0.0889  0.2559
32102W        W75019  25.856   9.644   1.180  0.0318  0.1928  0.0337
32103W        W75020  25.066  10.401   1.943 -0.0864  0.2220  0.2395
32104W        W75021  28.506  12.854   2.119 -0.4490 -0.1086  0.0559
32105W        W75022  27.564   8.475   1.643  0.0307  0.2488  0.0028
32106W        W75023  29.111  10.772   4.146  0.2426 -0.3989  0.0929
32107W        W75024  27.001   6.748   3.582 -0.0154  0.1278  0.0202
32108W        W75025  25.502   7.933   0.371  0.1100 -0.0951 -0.1225
32109W        W75026  29.409   7.886   2.392  0.3191 -0.0805  0.1657
32110W        W75027  27.308   8.034   1.549 -0.0799 -0.0561  0.1876
32111W        W75028  26.479  11.455   1.183  0.1259 -0.2957 -0.4046
32112W        W75029  28.962  12.329   1.689  0.2593 -0.0085 -0.2432
32113W        W75030  26.484   9.998  30.205  0.1830 -0.0131  0.0617
32114W        W75031  27.178   9.347   1.519  0.2948 -0.0610 -0.0339
32115W        W75032  26.655   5.969   2.636 -0.2325  0.1051  0.1017
32116W        W75033  29.070  11.131   3.688 -0.1174 -0.4268 -0.3956
32117W        W75034  25.879   6.888   2.034 -0.0694  0.2744  0.1808
32118W        W75035  26.009  10.270   1.569  0.2615  0.0224  0.1247
32119W        W75036  29.031   8.219   0.819 -0.1067  0.2929  0.2311
32120W        W75037  30.424   8.967   1.427  0.0210  0.2390 -0.1267
32121W        W75038  27.070   9.990   3.307  0.0867  0.1629 -0.0884
32122W        W75039  28.373  10.825   1.080  0.0671 -0.0868  0.1941
32123W        W75040  28.863   8.591   2.611  0.2374 -0.2540 -0.0951
32124W        W75041  28.329  10.320  31.809  0.0805 -0.1803 -0.1694
32125W        W75042  28.440  11.152   3.518 -0.0415  0.2736  0.0540
32126W        W75043  25.083  10.380   0.558  0.0140 -0.1384 -0.0285
32127W        W75044  26.595  10.433   1.403 -0.1343 -0.1060  0.1431
32128W        W75045  25.359   9.495  31.029 -0.1760 -0.0001  0.0894
32129W        W75046  28.327   7.055   3.705 -0.0742 -0.1280 -0.1994
32130W        W75047  29.089  11.285   1.303 -0.0534 -0.3959  0.0333
32131W        W75048  24.777   8.407   1.079  0.1388  0.1747  0.2442
32132W        W75049  27.092  12.109   2.569 -0.1065  0.1131 -0.2460
32133W        W75050  28.685   7.664   1.603 -0.4044 -0.0009  0.2971
32134W        W75051  27.445  12.290   0.360  0.1495 -0.0264  0.1693
32135W        W75052  26.619   8.598   1.008 -0.2340 -0.0950 -0.0885
32136W        W75053  28.055   8.378   3.700  0.4545 -0.0484 -0.0091
32137W        W75054  28.106   8.619   0.756 -0.0153 -0.1874 -0.0372
32138W        W75055  27.433   7.666   4.432  0.3289 -0.2098  0.3024
32139W        W75056  27.407   7.968   4.842 -0.0059 -0.1306  0.1467
32140W        W75057  30.607  10.008   1.451  0.0186  0.2216 -0.3982
32141W        W75058  25.210   9.444   2.969 -0.0185 -0.0791  0.1297
32142W        W75059  28.057  11.555   4.450 -0.1728 -0.0800  0.1604
32143W        W75060  25.724   9.139   3.786 -0.1658 -0.1185 -0.2330
32144W        W75061  26.865   9.254  31.509  0.4794  0.3138  0.2134
32145W        W75062  26.137   6.230  30.934  0.1671  0.0513 -0.1008
32146W        W75063  26.441  10.485   3.452  0.1769  0.0519 -0.5258
32147W        W75064  28.151   9.545   0.805 -0.0889 -0.1007 -0.0692
32148W        W75065  25.449   9.772   0.374  0.4441  0.1133 -0.3131
32149W        W75066  28.606   9.036   2.376 -0.0788 -0.0056  0.2505
32150W        W75067  27.426   8.982   1.758  0.1502 -0.1408 -0.2190
32151W        W75068  27.009   8.387   1.913  0.2058  0.2350  0.0514
32152W        W75069  27.398   8.289  31.823  0.3403  0.1749 -0.0390
32153W        W75070  27.399   9.910  31.588 -0.0515  0.3756  0.0345
32154W        W75071  27.289   6.902   4.039  0.1802 -0.2021  0.2491
32155W        W75072  26.789   7.994   0.552  0.0658 -0.1720 -0.2314
32156W        W75073  28.218   6.605   1.832  0.1243  0.1881  0.0290
32157W        W75074  27.639  10.331   1.010 -0.0308 -0.1103 -0.0976
32158W        W75075  30.751   8.926   1.771 -0.0274 -0.0073  0.0602
32159W        W75076  27.441  12.188   2.158 -0.1187  0.1804  0.2453
32160W        W75077  26.979   8.239   3.686 -0.1968  0.0185  0.0258
32161W        W75078  27.979  12.253   2.853 -0.1350  0.0606  0.1146
32162W        W75079  28.617   8.569   0.645 -0.0029 -0.2440  0.1262
32163W        W75080  29.504   9.469   1.471 -0.0137 -0.2026  0.2543
32164W        W75081  29.816  11.281   1.436  0.0353 -0.0442  0.3408
32165W        W75082  28.712   9.426   1.004 -0.2886  0.1489  0.6497
32166W        W75083  25.595  10.076   1.346  0.1093  0.0706 -0.2216
32167W        W75084  28.767  11.462   1.777 -0.0203  0.0157 -0.1481
32168W        W75085  25.843   8.797   0.288 -0.0992  0.1902  0.2027
32169W        W75086  29.677   9.138   1.956 -0.1745 -0.2124 -0.1544
32170W        W75087  27.383  11.572   0.796  0.0478 -0.1182 -0.0963
32171W        W75088  30.078   9.382   1.556 -0.1153 -0.1782  0.1561
32172W        W75089  28.242   9.371  31.493  0.0794  0.1785 -0.1218
32173W        W75090  28.578   9.460   1.773 -0.0280  0.0832 -0.1247
32174W        W75091  24.949  10.308   4.643  0.0409  0.0312 -0.1937
32175W        W75092  26.402   6.756  31.682 -0.2404  0.3408  0.3869
32176W        W75093  26.527  10.296   1.894  0.1498 -0.1054  0.0663
32177W        W75094  27.381  12.109   3.795  0.1035 -0.0024 -0.1624
32178W        W75095  29.542   7.364   4.393  0.2635  0.3558 -0.2002
32179W        W75096  25.452   7.168  31.679 -0.1646  0.2546  0.2493
32180W        W75097  29.080  10.760   3.114  0.0035  0.0401  0.0635
32181W        W75098  22.840   8.869  31.685  0.0836 -0.1258 -0.0073
32182W        W75099  26.709   7.775   1.017 -0.2849 -0.2244 -0.1784
32183W        W75100  28.095  14.819   4.045  0.2153 -0.1919  0.1657
32184W        W75101  25.359  10.839   2.063  0.2479 -0.0703 -0.1660
32185W        W75102  27.898  10.624   2.732 -0.1363  0.0243  0.1382
32186W        W75103  27.501   7.663   1.212  0.1000  0.1567  0.2387
32187W        W75104  28.346   8.543   2.277  0.0333  0.0502 -0.0753
32188W        W75105  28.291  11.990   3.758 -0.2981  0.0021  0.2094
32189W        W75106  30.714   8.898   2.737  0.0890  0.3002  0.0457
32190W        W75107  28.358  10.820   2.494 -0.0364  0.1594  0.0402
32191W        W75108  27.627   9.928   2.866  0.3033 -0.3611  0.1427
32192W        W75109  29.391   8.998   4.013 -0.2801 -0.3366 -0.0333
32193W        W75110  29.198   9.254   1.073  0.2044 -0.3348 -0.2620
32194W        W75111  28.707  10.298   1.793  0.3547  0.1362  0.3579
32195W        W75112  28.553   9.532   2.265  0.1326  0.1356 -0.1833
32196W        W75113  28.360   9.435   3.259  0.1489  0.1437 -0.0246
32197W        W75114  30.413   8.269   1.195  0.2072 -0.0106  0.0738
32198W        W75115  26.343   9.336   1.518 -0.1182  0.2863  0.0443
32199W        W75116  28.099  10.510  31.348  0.1939  0.1809  0.0867
32200W        W75117  25.934  11.477   3.250  0.3931  0.1949  0.1968
32201W        W75118  26.630   9.391   2.396  0.0166 -0.1381 -0.0782
32202W        W75119  24.997  11.758   1.444  0.2092  0.2624 -0.3793
32203W        W75120  26.249   9.965  30.721 -0.2076  0.0487 -0.0165
32204W        W75121  27.510   9.787   0.104  0.0836  0.3860  0.1043
32205W        W75122  28.082  11.461   3.815 -0.2041  0.3310  0.3459
32206W        W75123  26.320   8.687   0.093 -0.2934  0.2791  0.0919
32207W        W75124  28.010  11.020   1.381 -0.0704 -0.0579  0.0069
32208W        W75125  23.805  10.054   0.836 -0.0050 -0.1389  0.2270
32209W        W75126  27.855   9.943   1.948 -0.1932 -0.0186  0.0084
32210W        W75127  25.557  11.818   1.338 -0.0161  0.1082  0.1309
32211W        W75128  26.529  11.122   4.012  0.0823 -0.1572 -0.1238
32212W        W75129  28.497   7.463   2.196 -0.2121 -0.0836 -0.0222
32213W        W75130  30.867   9.884   2.536  0.3001  0.1834  0.3062
32214W        W75131  28.915   8.629   0.159 -0.0760 -0.0406 -0.1433
32215W        W75132  28.015   9.636   1.512 -0.1581 -0.0024  0.2086
32216W        W75133  27.455  11.400   3.298  0.2258  0.0793  0.0904
32217W        W75134  25.212   9.148  31.953  0.4373  0.0154 -0.2919
32218W        W75135  26.532   7.705   2.197 -0.0904 -0.2393  0.0997
32219W        W75136  29.737   6.913   3.178 -0.0272 -0.2002 -0.0037
32220W        W75137  25.587  10.714   1.491  0.3976 -0.0001  0.1280
32221W        W75138  29.797   9.813  31.375 -0.0204 -0.2872 -0.0658
32222W        W75139  23.935   7.111  31.940  0.1348  0.1984 -0.1434
32223W        W75140  28.320   8.729   1.176 -0.3224 -0.0333  0.0494
32224W        W75141  28.827   8.795   3.941  0.2643  0.0752  0.1032
32225W        W75142  28.994  10.188   0.722 -0.1673 -0.0615  0.0012
32226W        W75143  27.020   7.522   1.327  0.0445 -0.2997  0.1252
32227W        W75144  26.785  11.201   0.903 -0.0315 -0.0448  0.0112
32228W        W75145  24.566  13.750   2.865 -0.0083 -0.1234 -0.0317
32229W        W75146  28.909   9.776   4.209 -0.1975 -0.0550 -0.1020
32230W        W75147  25.056   6.946   1.473  0.0602  0.0824  0.2685
32231W        W75148  28.377   8.911   1.944  0.0652 -0.2213  0.0479
32232W        W75149  26.626  10.086   3.110 -0.0554 -0.6434 -0.1358
32233W        W75150  29.292   6.606   2.387 -0.0199  0.2673  0.1386
32234W        W75151  24.945   9.955   0.233 -0.0292 -0.2968 -0.1193
32235W        W75152  26.517  10.762  30.756 -0.2032  0.1828 -0.2272
32236W        W75153  27.524  10.586   1.460  0.2390  0.2667 -0.0846
32237W        W75154  27.113   9.603   2.541 -0.0670 -0.1514  0.0339
32238W        W75155  28.836   8.408   1.309 -0.1114 -0.1893 -0.2874
32239W        W75156  28.821   8.694   2.090 -0.3935 -0.1586  0.1599
32240W        W75157  26.289   9.926  31.198 -0.4593 -0.0387 -0.2311
32241W        W75158  28.295  12.294   2.372  0.2237  0.1225  0.0195
32242W        W75159  26.209   8.572   2.013 -0.1549  0.2626 -0.0918
32243W        W75160  27.564   9.177   0.133  0.0556 -0.1150 -0.1858
32244W        W75161  27.316   9.856   1.622 -0.0209  0.1131 -0.0302
32245W        W75162  28.133   9.029   2.394 -0.2869 -0.1710  0.0734
32246W        W75163  29.606   9.841   3.217 -0.0734 -0.1351  0.0461
32247W        W75164  25.680   8.072   1.305  0.2865  0.1123  0.2558
32248W        W75165  29.739   9.659  30.347 -0.0719 -0.0478  0.1091
32249W        W75166  30.371   9.680   1.864  0.1086 -0.0329  0.2555
32250W        W75167  26.688  10.696   2.223  0.2108  0.0306 -0.3293
32251W        W75168  27.605   9.461   1.801  0.3225  0.1257 -0.2446
32252W        W75169  28.663  11.739   2.419  0.0415  0.3468 -0.1474
32253W        W75170  26.336   9.831   1.420  0.1577  0.0297 -0.2817
32254W        W75171  28.787  12.188   1.064  0.0720  0.1974 -0.1729
32255W        W75172  31.242   8.755   1.567  0.2556  0.2804 -0.1400
32256W        W75173  27.098   8.210  29.536 -0.1762 -0.1110 -0.1428
32257W        W75174  29.015   8.096   1.626 -0.1444  0.3325 -0.0468
32258W        W75175  26.997  11.648   1.092 -0.1619 -0.0711 -0.4402
32259W        W75176  28.977   9.403   1.464  0.2420 -0.1971  0.2486
32260W        W75177  29.680   9.017   1.459  0.2153 -0.0269 -0.1534
32261W        W75178  26.518  10.873   0.633 -0.3571  0.1185  0.0443
32262W        W75179  27.882   7.444   4.390  0.4070 -0.2230  0.2427
32263W        W75180  26.682  10.776   1.752  0.0489 -0.1029 -0.1145
32264W        W75181  26.987  10.441   3.102  0.0892 -0.0089 -0.0420
32265W        W75182  25.905  10.789   0.691 -0.0288 -0.0162  0.0943
32266W        W75183  29.667   8.622   3.736 -0.0442  0.0386  0.1013
32267W        W75184  26.617  10.852   2.721  0.0499 -0.2990 -0.0977
32268W        W75185  28.942  10.663   1.325 -0.0964  0.0087  0.3118
32269W        W75186  28.022  10.923   2.135  0.0729  0.0461  0.0272
32270W        W75187  27.094   8.917  31.852  0.1226  0.1278  0.0239
32271W        W75188  30.333   9.820   0.657  0.2941  0.2386  0.0489
32272W        W75189  27.118   9.129   2.371 -0.1001 -0.0225  0.0268
32273W        W75190  28.816   9.339   2.780  0.2352 -0.0520  0.0335
32274W        W75191  28.424   7.951  30.600  0.3575 -0.4063 -0.0333
32275W        W75192  26.532   8.913   3.038 -0.0049  0.0353 -0.0871
32276W        W75193  24.287  10.139  31.892 -0.2799 -0.1307 -0.0570
32277W        W75194  24.914  11.496  30.220  0.1722  0.1901  0.1245
32278W        W75195  27.322   9.603   3.090 -0.0176 -0.0796  0.1371
32279W        W75196  27.708   6.010   5.410  0.1734 -0.2281  0.0381
32280W        W75197  25.224   6.720   4.851 -0.1029  0.2782 -0.1057
32281W        W75198  26.225   8.906   1.216  0.2248  0.4116 -0.2750
32282W        W75199  24.217   8.412   1.430  0.1901 -0.2833  0.1797
32283W        W75200  27.968   8.395  30.705 -0.2600 -0.2969 -0.2528
32284W        W75201  25.904   7.156   2.806 -0.2040 -0.0028 -0.2559
32285W        W75202  26.093   7.320   0.424 -0.0526  0.1510 -0.0399
32286W        W75203  29.218   8.596   1.710  0.1681 -0.0403 -0.2993
32287W        W75204  28.323   9.745  30.743 -0.0626 -0.0303 -0.1627
32288W        W75205  28.604   7.925   0.677  0.0287 -0.1977  0.1347
32289W        W75206  30.548   9.712   3.380 -0.3007  0.1898 -0.2375
32290W        W75207  25.476  10.702  30.354  0.0557 -0.1564 -0.0044
32291W        W75208  28.167   7.804   2.558 -0.0300 -0.1184  0.2366
32292W        W75209  26.284   7.692   3.561 -0.3935 -0.0826  0.1628
32293W        W75210  25.245   7.568   1.483  0.2282  0.3236 -0.0851
32294W        W75211  28.135   8.590   1.582  0.1771  0.0180 -0.0020
32295W        W75212  28.319  11.284   1.900 -0.2051  0.1415 -0.1401
32296W        W75213  28.516   9.931   0.776 -0.0420 -0.2258  0.1962
32297W        W75214  26.633   8.573   0.490  0.3042  0.1329 -0.2134
32298W        W75215  26.052  11.984   3.396 -0.2947  0.1308 -0.0322
32299W        W75216  23.064   7.384   2.763 -0.0987 -0.1243  0.2162
32300W        W75217  27.835  10.360   0.313 -0.1961  0.1636 -0.0431
32301W        W75218  27.159  10.159   2.704 -0.1942 -0.0393 -0.1333
32302W        W75219  30.307  11.268   1.612  0.2396  0.2143  0.1394
32303W        W75220  30.281   7.133   3.172  0.0653  0.2050 -0.0041
32304W        W75221  27.423   8.692   0.159  0.1876  0.0919  0.0839
32305W        W75222  27.784   7.759   3.015  0.2502  0.1223  0.1480
32306W        W75223  25.664  11.721   3.559 -0.1695 -0.2691 -0.2114
32307W        W75224  29.966   9.448   3.316  0.0618 -0.1793 -0.2324
32308W        W75225  24.807   8.659  31.367 -0.0418 -0.4521 -0.2923
32309W        W75226  27.505   8.724  31.547 -0.0147  0.0156  0.1644
32310W        W75227  26.989  11.278   1.609 -0.1655  0.2613 -0.0428
32311W        W75228  27.645   9.826   0.990 -0.2338 -0.0805 -0.0219
32312W        W75229  27.857   8.864   2.012 -0.0435  0.2955 -0.2505
32313W        W75230  26.681   9.448   1.874 -0.2866 -0.0410  0.1654
32314W        W75231  28.423  12.422   1.921  0.1421  0.0478 -0.1064
32315W        W75232  26.582  11.554   1.741 -0.2166  0.1811 -0.0465
32316W        W75233  26.434   8.357  31.602  0.0411  0.2178 -0.1553
32317W        W75234  29.822  10.198  31.762 -0.4143  0.0396 -0.1927
32318W        W75235  27.667   9.737   2.379 -0.1041 -0.2080 -0.1925
32319W        W75236  27.879  11.415   2.294 -0.1763  0.1225  0.3358
32320W        W75237  27.094  12.239   3.354  0.1383 -0.0994 -0.1590
32321W        W75238  29.125   9.944   1.678  0.2110 -0.1347 -0.0681
32322W        W75239  24.491   8.691   2.763  0.0291 -0.1517  0.3903
32323W        W75240  27.105  10.288   1.758  0.0723 -0.1239 -0.2642
32324W        W75241  27.557   8.772   2.535  0.0992 -0.3136  0.0010
32325W        W75242  28.708   8.896   1.538 -0.0942 -0.1752  0.3005
32326W        W75243  26.566   9.840   2.686  0.1679  0.1185  0.1392
32327W        W75244  27.611   8.393  30.395  0.1635  0.2569  0.3383
32328W        W75245  25.379  11.815   4.312  0.0789  0.0986  0.0179
32329W        W75246  28.854  12.150   2.631  0.3367  0.0529  0.2599
32330W        W75247  25.153   8.512   4.807 -0.1546 -0.0081 -0.0276
32331W        W75248  25.473   7.921   3.384  0.2712 -0.2865  0.1614
32332W        W75249  27.954   6.643   3.712 -0.0682  0.0041 -0.0565
32333W        W75250  28.586   9.618   3.745 -0.1437 -0.0418 -0.0358
32334W        W75251  27.396   6.736   5.600 -0.0883  0.2878  0.0097
32335W        W75252  26.405  11.215   2.514  0.3874 -0.2997  0.1520
32336W        W75253  25.566   6.356   6.394 -0.1182 -0.0599 -0.1904
32337W        W75254  30.055   6.904   5.356  0.2457  0.0243 -0.2723
32338W        W75255  29.528  12.035   5.142 -0.1492 -0.0400  0.0439
32339W        W75256  30.200   9.272   2.146 -0.0035 -0.0706  0.0101
32340W        W75257  25.102   7.972   4.638 -0.1711 -0.1639 -0.0163
32341W        W75258  26.951   9.389   8.407 -0.0745 -0.2088 -0.0866
32342W        W75259  26.878   8.129   2.893  0.0853 -0.1164 -0.1848
32343W        W75260  27.689   6.926   4.918  0.1119  0.1358  0.1484
32344W        W75261  28.457  10.499   5.534 -0.0411 -0.1792 -0.0532
32345W        W75262  27.486  11.109   1.550  0.2717 -0.1109  0.0117
32346W        W75263  28.177   7.108   6.729  0.0091 -0.0135 -0.1854
32347W        W75264  27.508   8.394   3.868 -0.0408 -0.0712  0.3490
32348W        W75265  28.251   9.718   4.154  0.1652 -0.0904  0.1136
32349W        W75266  28.407   6.568   7.854  0.2645  0.0700  0.0992
32350W        W75267  27.595   8.017   5.825 -0.0190 -0.1961  0.1079
32351W        W75268  27.836   9.448   3.320  0.1007 -0.1658 -0.0991
32352W        W75269  27.665   8.285   2.462 -0.0062 -0.3944 -0.0682
32353W        W75270  25.848   9.268   5.137 -0.1859  0.0605  0.1576
32354W        W75271  26.955  10.064   5.773 -0.0641 -0.0768 -0.1476
32355W        W75272  27.983  10.263   4.837 -0.0007  0.2880 -0.2205
32356W        W75273  28.207   9.112   4.976  0.1800  0.0289 -0.0961
32357W        W75274  27.894  10.710   4.236 -0.1788  0.0968 -0.1912
32358W        W75275  26.797  11.035   5.176 -0.3044  0.3503 -0.1837
32359W        W75276  25.995   8.011   5.780 -0.1602 -0.0560 -0.0528
32360W        W75277  26.104   9.909   2.901  0.1147  0.0203  0.0957
32361W        W75278  23.962  10.318   5.689 -0.2274 -0.2439  0.0657
32362W        W75279  26.730   9.780   3.663 -0.2509 -0.4078 -0.0084
32363W        W75280  28.282   8.856   5.537 -0.1271 -0.0096  0.3036
32364W        W75281  27.185  10.831   4.658  0.0446  0.2719 -0.1116
32365W        W75282  27.643  10.669   6.280 -0.2121 -0.1906 -0.2127
32366W        W75283  26.223  10.378   2.932 -0.0999 -0.3026 -0.0738
32367W        W75284  26.247  11.298   6.927 -0.0367 -0.1119 -0.0975
32368W        W75285  25.459   9.690   5.730  0.3410  0.0582  0.1431
32369W        W75286  26.281   9.187   4.255 -0.0802  0.0325 -0.4772
32370W        W75287  27.283  11.098   3.838  0.2880 -0.3343 -0.2884
32371W        W75288  25.150  10.019   3.031 -0.0006  0.0836  0.0794
32372W        W75289  27.752   9.398   4.964 -0.0024 -0.0063  0.1569
32373W        W75290  27.218  10.386   5.522  0.0115  0.0114 -0.1446
32374W        W75291  25.315   9.588   4.646 -0.1061  0.3224  0.1458
32375W        W75292  29.947   8.281   8.814 -0.0444 -0.0391 -0.1263
32376W        W75293  26.074  11.468   3.770 -0.1649 -0.2524  0.4999
32377W        W75294  28.425   8.799   2.872 -0.0479 -0.1170  0.1628
32378W        W75295  26.235   9.082   3.793 -0.0334 -0.1161  0.1211
32379W        W75296  28.003   9.305   5.375 -0.0202 -0.0026  0.1439
32380W        W75297  26.086   8.461   4.987 -0.1983 -0.1259 -0.3065
32381W        W75298  26.438  13.204   4.924 -0.1763 -0.2409  0.0122
32382W        W75299  24.937   7.708   5.039 -0.2224  0.0193  0.0827
32383W        W75300  28.916  12.224   4.463 -0.1901 -0.3316 -0.2379
32384W        W75301  27.343  10.398   3.537 -0.1699  0.0328 -0.1451
32385W        W75302  27.613   8.433   6.045  0.0371 -0.0687  0.0509
32386W        W75303  24.517   9.830   6.324  0.0985 -0.2709  0.0291
32387W        W75304  25.156   6.927   5.571 -0.2267  0.0770  0.0632
32388W        W75305  27.347  11.823   2.924 -0.1106 -0.2089 -0.1198
32389W        W75306  29.342  10.734   4.575  0.0839 -0.0952 -0.0541
32390W        W75307  28.225  10.423   3.999 -0.0205 -0.0453  0.0299
32391W        W75308  24.683   7.288   3.633  0.0172 -0.4212 -0.1583
32392W        W75309  25.979   8.417   6.036  0.1007  0.1228  0.2979
32393W        W75310  25.073   9.343   5.026  0.0453  0.1712 -0.2153
32394W        W75311  26.567   7.811   4.864  0.0139  0.0020 -0.1323
32395W        W75312  28.062   9.901   6.239  0.1367 -0.0579  0.1079
32396W        W75313  25.850   9.593   6.566 -0.2894  0.0367 -0.0054
32397W        W75314  27.417   9.132   5.190 -0.1030  0.0345 -0.0071
32398W        W75315  25.916   8.759   2.905  0.2223 -0.1635  0.2451
32399W        W75316  28.639  10.094   3.933 -0.2020  0.1211 -0.0390
32400W        W75317  30.268   9.086   2.631 -0.0217  0.0284  0.0062
32401W        W75318  28.879   7.635   5.475  0.0190  0.2523  0.1435
32402W        W75319  26.730   9.192   3.849  0.1167  0.0890  0.0094
32403W        W75320  25.668   9.465   2.208  0.1124 -0.0249 -0.0485
32404W        W75321  30.051   6.814   3.559  0.0717  0.2729 -0.0745
32405W        W75322  28.863  11.280   6.471 -0.3758 -0.1912 -0.0222
32406W        W75323  30.715   9.419   2.595 -0.1321 -0.0565 -0.3515
32407W        W75324  26.095  10.661   6.612 -0.0131  0.0666 -0.1583
32408W        W75325  29.172   8.105   6.098  0.0715 -0.0135 -0.1045
32409W        W75326  26.693   9.760   4.855 -0.0169  0.0163  0.1085
32410W        W75327  25.308  11.763   3.200  0.1231 -0.1071  0.5560
32411W        W75328  28.232  10.471   3.063  0.0321 -0.0417 -0.0623
32412W        W75329  26.535  10.387   0.847  0.1608 -0.0815 -0.0752
32413W        W75330  25.825   8.253   5.370 -0.0451  0.2122 -0.0301
32414W        W75331  25.443   9.514   6.271 -0.0088  0.2157 -0.2721
32415W        W75332  28.246  10.554   4.517  0.1257 -0.2481 -0.0907
32416W        W75333  26.888   6.970   5.946 -0.0941 -0.2179  0.1016
32417W        W75334  27.674   8.969   4.681 -0.0384 -0.1839  0.1620
32418W        W75335  27.337   9.008   3.726  0.2122  0.1169  0.2997
32419W        W75336  28.159  11.014   4.629  0.1836 -0.0475  0.1107
32420W        W75337  27.764   8.758   3.704 -0.0598 -0.2561 -0.3123
32421W        W75338  27.320  11.925   4.639 -0.1541  0.1046  0.1474
32422W        W75339  23.519   9.064   5.723 -0.4083 -0.1188 -0.0167
32423W        W75340  25.052   9.811   5.455  0.0921  0.2059  0.0174
32424W        W75341  25.416   7.570   6.205 -0.0519 -0.0832 -0.1434
32425W        W75342  27.138   6.085   6.091  0.1356 -0.1041  0.0932
32426W        W75343  24.888   9.354   5.500 -0.0139  0.0463  0.0779
32427W        W75344  26.573   8.461   5.043  0.1586  0.0788 -0.1683
32428W        W75345  28.566   9.085   3.601  0.2732 -0.1070 -0.1360
32429W        W75346  26.162   7.578   4.502  0.1960 -0.0744  0.1811
32430W        W75347  25.015   8.341   2.253  0.3932  0.2155 -0.0997
32431W        W75348  29.362   5.813   8.775 -0.1873 -0.0312 -0.3904
32432W        W75349  26.505  11.260   3.565  0.1646  0.1642  0.0321
32433W        W75350  30.609  10.518   5.191  0.1627  0.3297  0.0609
32434W        W75351  29.492  11.611   4.285  0.1568  0.2358 -0.1692
32435W        W75352  27.324   8.081   6.241 -0.1309 -0.1100 -0.0513
32436W        W75353  25.377   7.371   3.960  0.0591 -0.0344 -0.0545
32437W        W75354  25.079  11.313   5.903  0.1453  0.0755 -0.1754
32438W        W75355  26.368  10.138   5.571  0.2204 -0.0187 -0.0260
32439W        W75356  26.793   8.251   4.144 -0.2918 -0.0421 -0.1966
32440W        W75357  27.290   9.683   5.987 -0.3406  0.2469  0.1282
32441W        W75358  27.260   9.937   3.773 -0.1873  0.3897  0.0330
32442W        W75359  24.669   8.817   6.170 -0.0827 -0.0628 -0.2470
32443W        W75360  29.064   8.134   7.267 -0.0015  0.2797 -0.2448
32444W        W75361  28.901   7.555   4.199  0.3065  0.2225 -0.2213
32445W        W75362  27.124   8.914   4.804  0.1219 -0.2290  0.1156
32446W        W75363  25.638   7.501   3.514 -0.0577 -0.0981 -0.0602
32447W        W75364  27.585  10.388   4.568  0.0029  0.0139 -0.2315
32448W        W75365  26.822  12.086   3.833 -0.1039 -0.1738 -0.1536
32449W        W75366  27.185   9.513   2.036 -0.0664 -0.1051  0.0212
32450W        W75367  29.065  12.254   5.395  0.1953  0.0035  0.1473
32451W        W75368  28.329   7.189   4.242 -0.0975  0.0637 -0.3254
32452W        W75369  24.964   8.081   6.837  0.3976 -0.3831 -0.0876
32453W        W75370  26.548   7.154   8.280 -0.0394 -0.1562 -0.0279
32454W        W75371  24.820   6.752   3.771  0.0118 -0.0964  0.1428
32455W        W75372  25.871   9.229   5.681  0.1357  0.3391 -0.2140
32456W        W75373  28.468   6.768   4.581 -0.0228 -0.1448 -0.0368
32457W        W75374  30.778   9.355   2.043  0.0407  0.2213  0.3241
32458W        W75375  27.333   8.563   6.481  0.0124 -0.1239  0.0544
32459W        W75376  28.997  10.032   3.514 -0.1833 -0.1536  0.0647
32460W        W75377  26.944   8.934   3.355 -0.0250 -0.4503 -0.0013
32461W        W75378  28.169   7.206   4.797 -0.4754 -0.2500  0.2789
32462W        W75379  26.811   8.701   7.247 -0.0438  0.1530 -0.3513
32463W        W75380  27.753   9.529   4.287 -0.0035  0.0241  0.0263
32464W        W75381  26.879  10.273   3.630 -0.3707  0.2400  0.2733
32465W        W75382  26.728   7.816   3.809 -0.1117  0.1977 -0.2465
32466W        W75383  28.786   9.860   4.797  0.1692 -0.0577  0.0424
32467W        W75384  25.475   9.113   4.832 -0.0768 -0.1545  0.2021
32468W        W75385  28.385   9.519   7.068  0.0422 -0.0671  0.1730
32469W        W75386  29.081  10.718   5.107  0.2028 -0.2549  0.1357
32470W        W75387  29.143   6.578   7.754  0.0130  0.0606 -0.3715
32471W        W75388  26.841   8.483   3.223 -0.1264  0.0219 -0.2156
32472W        W75389  29.296   7.038   2.949 -0.1753 -0.2784 -0.0379
32473W        W75390  25.702  11.162   3.600  0.1646  0.2075  0.0294
32474W        W75391  28.568   7.428   6.833  0.1944 -0.1284  0.2401
32475W        W75392  27.100  10.888   5.662 -0.2756 -0.0976 -0.2389
32476W        W75393  29.833   8.587   6.355 -0.0961  0.2258 -0.0639
32477W        W75394  29.014   7.672   5.969 -0.0383  0.1632 -0.0129
32478W        W75395  29.098   9.015   3.581  0.2175  0.2620 -0.0904
32479W        W75396  28.069  10.787   3.758  0.0544 -0.1583 -0.0551
32480W        W75397  27.475   9.052   3.187 -0.0847  0.1763  0.0953
32481W        W75398  28.871   6.573   6.758  0.1088  0.0211 -0.0030
32482W        W75399  26.190  10.456   6.102 -0.1911 -0.3028 -0.3104
32483W        W75400  25.909  10.868   7.448 -0.0338  0.2029 -0.0138
32484W        W75401  27.739   7.785   6.386  0.0301 -0.1475 -0.0665
32485W        W75402  26.699  10.756   3.762  0.2818  0.3283 -0.0971
32486W        W75403  27.866   6.601   7.632  0.0300  0.0973  0.0495
32487W        W75404  27.087   9.491   4.053  0.0566 -0.0149  0.0206
32488W        W75405  27.609  12.365   3.375 -0.0071  0.2824  0.2063
32489W        W75406  25.590   9.885   4.082  0.0017 -0.2533  0.1366
32490W        W75407  27.714   6.838   5.981 -0.4484 -0.3159 -0.2469
32491W        W75408  26.955  10.951   4.195  0.0016 -0.1164  0.0888
32492W        W75409  26.837  11.749   3.101 -0.2350  0.3599  0.1188
32493W        W75410  26.448   7.857   5.850  0.0494 -0.2109 -0.0857
32494W        W75411  25.420  10.564   4.630 -0.1063  0.2110  0.1599
32495W        W75412  28.495   7.615   3.898  0.2876 -0.3507 -0.2035
32496W        W75413  25.683  10.510   6.355  0.0936  0.3773  0.0765
32497W        W75414  28.258   9.515   2.658  0.1465  0.1382 -0.2006
32498W        W75415  26.976   8.696   3.907  0.0372 -0.0443  0.0665
32499W        W75416  28.523   8.075   4.818  0.1982  0.0334 -0.2600
32500W        W75417  27.567  10.906   3.057  0.1760  0.3058 -0.1088
32501W        W75418  24.822   7.219   4.651 -0.0286 -0.0945 -0.1385
32502W        W75419  26.037   8.681   4.241  0.0531 -0.0377  0.1091
32503W        W75420  25.434  11.170   5.580 -0.2667  0.0384 -0.3916
32504W        W75421  24.865   8.145   5.342  0.2208  0.1526 -0.0324
32505W        W75422  28.970   7.584   3.642  0.0521  0.3923  0.1277
32506W        W75423  27.835   8.768   5.188 -0.1443  0.0291  0.1222
32507W        W75424  26.640  10.490   5.867  0.1363  0.1983  0.1333
32508W        W75425  24.517   7.736   3.356  0.0077  0.1140  0.0199
32509W        W75426  28.152   8.259   4.587 -0.0339 -0.0349 -0.1423
32510W        W75427  27.005   8.448   6.004 -0.1596 -0.1856 -0.1390
32511W        W75428  25.752  12.349   3.246  0.0748 -0.3102  0.2844
32512W        W75429  26.699   9.733   5.582 -0.2637 -0.3037  0.1754
32513W        W75430  26.581   8.213   2.194  0.0361  0.0346  0.2993
32514W        W75431  25.648  10.153   2.922 -0.2454  0.0307 -0.2396
32515W        W75432  25.137   9.034   6.449  0.0353 -0.2491 -0.3638
32516W        W75433  27.979   7.822   5.635 -0.2067  0.0518 -0.3602
32517W        W75434  27.035   7.163   5.461  0.4739 -0.0673  0.1142
32518W        W75435  27.188   7.604   5.153  0.0977  0.0636 -0.0320
32519W        W75436  26.832  10.111   5.293  0.0268 -0.0605 -0.0661
32520W        W75437  27.818   8.883   5.712 -0.1900  0.1125 -0.1506
32521W        W75438  27.625   5.295   6.503  0.0940 -0.0326 -0.0969
32522W        W75439  26.229   7.572   7.585  0.1468 -0.0296 -0.1190
32523W        W75440  27.685   6.473   6.643 -0.2802  0.2231  0.1878
32524W        W75441  31.485  11.241   5.162 -0.0240  0.1442 -0.2383
32525W        W75442  25.732   7.812   7.680  0.1332  0.1843 -0.1658
32526W        W75443  27.990  11.075   2.696  0.0506  0.2727 -0.1104
32527W        W75444  24.689   8.389   4.984 -0.2168  0.1273 -0.0011
32528W        W75445  27.886   9.833   5.194  0.3098 -0.4961 -0.2082
32529W        W75446  27.442   8.391   4.428  0.0257 -0.2218 -0.1072
32530W        W75447  25.916   9.534   4.135 -0.2560  0.3682 -0.1166
32531W        W75448  26.336   8.293   3.969 -0.1373  0.1154  0.0514
32532W        W75449  26.466   8.389   5.955  0.2432  0.2343 -0.0530
32533W        W75450  30.523   6.511   4.458  0.2476 -0.1843  0.2669
32534W        W75451  27.391   8.630   2.102  0.2324 -0.4191 -0.0938
32535W        W75452  28.838   8.345   3.023 -0.3035  0.0392  0.0101
32536W        W75453  30.533   7.626   6.855 -0.0762  0.2539  0.1688
32537W        W75454  29.315   7.492   2.717 -0.0291 -0.1529 -0.1529
32538W        W75455  28.487   8.361   7.865  0.3802  0.0887 -0.3107
32539W        W75456  27.247   7.631   5.688 -0.0780 -0.1483 -0.0972
32540W        W75457  29.334  10.262   3.110  0.0363  0.0988  0.1894
32541W        W75458  26.091  10.066   4.195  0.0595  0.1004  0.1367
32542W        W75459  25.549  10.105   5.432  0.1544  0.4431 -0.3590
32543W        W75460  26.194   8.593   7.984 -0.0504  0.0653  0.1376
32544W        W75461  27.813   6.982   4.069  0.2093 -0.0672 -0.0502
32545W        W75462  26.137   7.537   2.600 -0.0492  0.0879 -0.2459
32546W        W75463  27.250  10.410   6.527 -0.1204  0.1034  0.1981
32547W        W75464  27.669  11.016   3.541 -0.3584 -0.0474 -0.0254
32548W        W75465  26.318   9.362   5.247 -0.1475 -0.0046  0.1228
32549W        W75466  28.441   9.585   5.309 -0.0993 -0.0113  0.3140
32550W        W75467  27.561  10.212   5.157  0.0226 -0.3852  0.0836
32551W        W75468  27.701   9.921   5.681 -0.3238 -0.1355 -0.2363
32552W        W75469  28.106   9.384   3.790 -0.0682 -0.3576  0.0831
32553W        W75470  28.020   7.533   3.887 -0.0918  0.1766 -0.1649
32554W        W75471  27.135   7.176   6.460 -0.1349  0.3633  0.0576
32555W        W75472  28.794  11.025   4.820  0.1551  0.1946 -0.1004
32556W        W75473  27.881   6.892   5.486 -0.3453  0.0062 -0.0637
32557W        W75474  28.545   8.432   5.930  0.3081  0.2256 -0.2485
32558W        W75475  27.344   7.513   6.785  0.1570  0.2255 -0.1965
32559W        W75476  27.914   8.313   6.461  0.1758  0.2248 -0.2563
32560W        W75477  26.485   5.990   5.941  0.0226 -0.2259 -0.0652
32561W        W75478  28.143   9.140   6.067 -0.0965  0.0899 -0.1441
32562W        W75479  30.474   7.176   3.608  0.0113  0.0315 -0.0834
32563W        W75480  27.653   8.019   6.852  0.1618  0.0150  0.0620
32564W        W75481  25.636   8.827   3.342  0.2356 -0.1495  0.3237
32565W        W75482  26.616   8.882   5.309  0.0751  0.0405 -0.2102
32566W        W75483  26.058   7.586   6.192 -0.0443  0.0859  0.2868
32567W        W75484  27.175   8.800   5.410  0.0986  0.0764 -0.1036
32568W        W75485  27.024   9.721   4.456  0.1849 -0.1566 -0.2125
32569W        W75486  28.395   8.777   7.478 -0.2774  0.0460  0.3053
32570W        W75487  27.175  11.755   3.484 -0.1468  0.0808 -0.0389
32571W        W75488  28.581  10.336   2.359  0.2465  0.0037 -0.3094
32572W        W75489  26.045   7.968   4.897  0.1488 -0.1349  0.0687
32573W        W75490  25.727   9.077   4.295 -0.0502  0.2554  0.3826
32574W        W75491  27.091   9.000   7.616 -0.2367 -0.1238  0.1177
32575W        W75492  25.738   8.217   4.035 -0.1445 -0.0208  0.0091
32576W        W75493  27.101  11.034   2.373 -0.1375  0.1209 -0.1438
32577W        W75494  27.645   9.829   4.710  0.1605 -0.1360  0.1923
32578W        W75495  27.541   8.529   5.593  0.1533  0.0106 -0.2883
32579W        W75496  27.001   7.359   4.230 -0.0344  0.3881 -0.0431
32580W        W75497  29.219   9.001   5.992 -0.2160  0.0156  0.1853
32581W        W75498  26.527   8.873   4.645  0.0301 -0.1989  0.0132
32582W        W75499  28.284   7.929   6.541 -0.1265  0.0265 -0.0843
32583W        W75500  25.989  10.211   5.271 -0.2879 -0.0518  0.2041
32584W        W75501  24.014   7.684   4.920  0.0566  0.0822 -0.1936
32585W        W75502  27.343   9.306   4.460 -0.0998 -0.1132 -0.5870
32586W        W75503  28.557   7.461   5.037 -0.1614 -0.0443 -0.2404
32587W        W75504  28.695   8.886   5.759  0.0791  0.0932  0.0945
32588W        W75505  28.186   9.753   4.799 -0.3370 -0.2013  0.2755
32589W        W75506  27.636  10.376   3.978  0.0731 -0.0351  0.0378
32590W        W75507  27.554  10.042   6.315 -0.2803  0.3517  0.0503
32591W        W75508  25.381   9.182   5.923  0.1559  0.0291 -0.0449
32592W        W75509  26.708  10.551   5.402  0.1285  0.0330  0.1110
32593W        W75510  29.224   8.140   3.628  0.1629  0.0582  0.5497
32594W        W75511  27.194   9.769   5.407 -0.0926 -0.0036 -0.0267
32595W        W75512  26.346   8.086   6.461 -0.2548  0.2442  0.0239
32596W        W75513  27.981   8.398   7.864  0.1530 -0.0873  0.0690
32597W        W75514  28.397  10.055   5.144  0.1685 -0.3041 -0.0352
32598W        W75515  25.794   5.663   4.103 -0.3379  0.2862 -0.0554
32599W        W75516  27.946   8.527   3.213 -0.1764 -0.0282 -0.2672
32600W        W75517  26.255   9.722   7.841 -0.2349 -0.0468 -0.2161
32601W        W75518  26.999   9.333   5.718 -0.0843 -0.0709 -0.1286
32602W        W75519  25.680  11.352   5.096  0.0608  0.0671  0.4469
32603W        W75520  26.866  10.004   4.120  0.1360 -0.1247 -0.0885
32604W        W75521  28.179  11.761   2.770 -0.2116  0.1021  0.0439
32605W        W75522  28.504   9.806   6.067 -0.1586 -0.3650 -0.0576
32606W        W75523  25.836   5.611   3.048 -0.1726  0.0828  0.2458
32607W        W75524  24.756  10.636   5.460 -0.0087 -0.0599 -0.1513
32608W        W75525  24.270  10.973   2.831  0.0877  0.3720 -0.1559
32609W        W75526  29.484  10.451   4.152 -0.1042  0.1698 -0.4172
32610W        W75527  25.006  10.267   3.723 -0.2387 -0.0191  0.1192
32611W        W75528  29.116   9.062   5.480 -0.0901 -0.1777 -0.2400
32612W        W75529  28.954   6.433   4.875  0.1818  0.0984  0.0763
32613W        W75530  29.237   9.197   5.018 -0.1673  0.0416  0.0660
32614W        W75531  29.680   8.134   6.011 -0.1439  0.1775 -0.1434
32615W        W75532  27.606  11.302   5.405  0.1202 -0.0388 -0.0321
32616W        W75533  26.395   8.686   6.374 -0.1073  0.1177  0.0832
32617W        W75534  27.856   8.337   1.979 -0.2399 -0.0015 -0.4126
32618W        W75535  25.048   8.032   5.793 -0.0996  0.1127  0.1095
32619W        W75536  30.666   8.578   9.493 -0.1023  0.2718  0.0431
32620W        W75537  25.896   8.342   7.640 -0.1516  0.0716  0.0180
32621W        W75538  28.794  11.211   3.179 -0.2019  0.1519 -0.1135
32622W        W75539  25.221   8.395   3.057  0.1514  0.2332 -0.2106
32623W        W75540  27.987  10.424   5.395 -0.1975  0.1232  0.1367
32624W        W75541  27.454  10.412   3.048  0.1390 -0.0286 -0.1635
32625W        W75542  28.177   6.915   6.221  0.1031  0.2096 -0.1117
32626W        W75543  24.899  11.971   3.490  0.2075 -0.0367  0.0805
32627W        W75544  25.381   9.401   6.768 -0.1081  0.2712 -0.0328
32628W        W75545  26.503  10.145   4.489 -0.1838 -0.0038 -0.4887
32629W        W75546  26.543   7.858   4.327  0.5151  0.0536 -0.2211
32630W        W75547  29.108   8.558   5.119 -0.0338  0.0542  0.0838
32631W        W75548  26.494   9.634   4.362 -0.0592  0.0004 -0.1247
32632W        W75549  28.694   5.793   8.152 -0.1750 -0.2845 -0.0471
32633W        W75550  25.763   9.496   4.594 -0.1387  0.1612  0.3650
32634W        W75551  27.570   9.471   3.802  0.0025  0.1482 -0.3322
32635W        W75552  26.921   9.310   5.217  0.1699  0.2169 -0.1698
32636W        W75553  28.550   6.996   7.068  0.1104 -0.0396 -0.1957
32637W        W75554  29.097   9.866   3.016 -0.2853  0.0856  0.0193
32638W        W75555  28.557   9.911   6.762 -0.2504 -0.0552  0.0361
32639W        W75556  27.256   9.985   2.204 -0.1588  0.2003 -0.1585
32640W        W75557  28.969  11.690   4.270  0.2965  0.3047  0.2323
32641W        W75558  26.745   8.313   6.388 -0.0578 -0.0821 -0.0719
32642W        W75559  29.464   7.696   4.013  0.0140 -0.1642 -0.0427
32643W        W75560  26.901   8.588   4.498 -0.1213  0.0343  0.2695
32644W        W75561  26.096   8.899   5.366 -0.1161  0.0450 -0.4270
32645W        W75562  27.651  11.009   5.898 -0.1775  0.0699  0.1922
32646W        W75563  24.564   5.258   3.071 -0.0051  0.3442 -0.0776
32647W        W75564  29.615   9.067   3.560  0.0515  0.0483  0.1289
32648W        W75565  27.563   7.248   5.341 -0.0242  0.2595 -0.2694
32649W        W75566  26.180  10.898   3.590  0.0035 -0.2871  0.0695
32650W        W75567  27.588   9.910   3.371  0.3203  0.3166 -0.0001
32651W        W75568  25.242  10.641   7.427  0.0181  0.1100 -0.0104
32652W        W75569  25.277   8.227   4.199 -0.1228  0.0644  0.1299
32653W        W75570  26.615  10.979   6.087  0.1091 -0.2171  0.2912
32654W        W75571  30.673   9.637   6.231 -0.1407 -0.3200 -0.0787
32655W        W75572  28.188   6.862   3.223  0.0872  0.2315 -0.0802
32656W        W75573  25.632   8.457   4.450  0.0840  0.0086  0.5095
32657W        W75574  26.409  10.146   3.846 -0.1398 -0.1896 -0.3150
32658W        W75575  28.504   7.375   8.335  0.1637 -0.1909 -0.2017
32659W        W75576  29.141   6.436   7.182  0.1470 -0.0737 -0.0973
32660W        W75577  28.441   6.746   2.635  0.0303 -0.2288  0.1152
32661W        W75578  29.033   8.485   5.585  0.0305  0.1661 -0.0755
32662W        W75579  25.709   8.658   5.593  0.1569 -0.1505 -0.1206
32663W        W75580  26.461  10.376   6.795  0.3215  0.0760  0.0990
32664W        W75581  27.585   9.208   2.200 -0.1790  0.1531 -0.1171
32665W        W75582  28.162   8.962   7.043 -0.1528 -0.1323 -0.2464
32666W        W75583  26.536   8.747   4.112  0.0741 -0.1451  0.1091
32667W        W75584  25.369  11.043   4.791 -0.1184 -0.2475  0.0390
32668W        W75585  28.713   9.862   5.617 -0.3565  0.0423  0.1651
32669W        W75586  26.863   9.086   4.309 -0.2370 -0.1442  0.3980
32670W        W75587  29.421   9.775   5.007  0.3050 -0.0186 -0.2807
32671W        W75588  27.340   8.791   4.250  0.2856  0.1100  0.4588
32672W        W75589  29.236   7.845   4.418  0.0360 -0.0130 -0.0954
32673W        W75590  28.822   7.745   4.687 -0.1653 -0.1373 -0.1612
32674W        W75591  26.629   8.902   6.852 -0.1703  0.1641 -0.1560
32675W        W75592  23.990   5.928   3.524  0.2620 -0.3295  0.1096
32676W        W75593  27.826  12.006   2.437 -0.1662  0.0028 -0.0805
32677W        W75594  25.989  11.050   4.053 -0.0715 -0.1528 -0.0800
32678W        W75595  28.883   7.381   7.294 -0.3637  0.1936  0.0866
32679W        W75596  26.880   8.457   6.825 -0.0632 -0.0780 -0.0691
32680W        W75597  25.687   9.893   5.000  0.1752 -0.1725 -0.0546
32681W        W75598  26.972   9.051   1.882  0.0610 -0.1084 -0.1664
32682W        W75599  30.317  10.327   4.596  0.1635  0.0943  0.0533
32683W        W75600  27.729   7.947   3.842 -0.1746  0.0652 -0.3788
32684W        W75601  26.468   8.335   4.580  0.1389  0.1250  0.0252
32685W        W75602  27.133  10.460   3.996  0.0743  0.2503  0.2546
32686W        W75603  28.666   9.836   1.423 -0.1496 -0.0682 -0.0940
32687W        W75604  27.793   5.807   4.205  0.2628 -0.1475 -0.1903
32688W        W75605  28.947  10.312   4.397 -0.0817  0.2270 -0.0866
32689W        W75606  26.707  10.501   4.182 -0.0289 -0.1295 -0.1772
32690W        W75607  25.043   9.214   7.501 -0.3219 -0.0473  0.0851
32691W        W75608  27.238   6.633   6.181  0.2428 -0.1298  0.0337
32692W        W75609  24.463   7.809   2.772 -0.2152  0.1738 -0.0449
32693W        W75610  27.742   7.465   4.839  0.0657 -0.0528 -0.0383
32694W        W75611  27.065  10.349   4.461 -0.1209 -0.4288 -0.0013
32695W        W75612  27.816  13.270   3.345 -0.0943 -0.0950  0.1076
32696W        W75613  27.422  11.356   6.237 -0.2141  0.0770 -0.2502
32697W        W75614  29.438   8.822   6.459  0.1780 -0.7593 -0.0235
32698W        W75615  25.504   7.163   5.798 -0.0530 -0.1515 -0.1814
32699W        W75616  28.678   9.016   5.253  0.5731 -0.0659 -0.0078
32700W        W75617  27.673  10.413   5.810  0.1154 -0.2207  0.0669
32701W        W75618  30.140   9.560   3.740  0.1120  0.0118  0.0426
32702W        W75619  29.431   6.925   5.454 -0.0943 -0.1189 -0.0311
32703W        W75620  30.047   8.351   4.957 -0.0349 -0.0420 -0.3321
32704W        W75621  26.384   8.449   6.867  0.2728 -0.2966  0.0664
32705W        W75622  25.564   8.707   4.001 -0.0519 -0.1176  0.1442
32706W        W75623  28.730   9.405   4.967 -0.0967  0.1439  0.0850
32707W        W75624  27.239   8.001   4.100 -0.1580  0.0101  0.0860
32708W        W75625  26.838   8.409   5.480 -0.1268  0.0580 -0.0831
32709W        W75626  29.824   7.912   4.284  0.0006  0.2171 -0.0860
32710W        W75627  26.158   8.814   5.860 -0.1296  0.0298 -0.2463
32711W        W75628  29.803   7.405   3.116  0.2382  0.1617 -0.1057
32712W        W75629  27.314   8.451   5.052 -0.0734  0.1427 -0.1624
32713W        W75630  26.782  10.544   6.393 -0.1521  0.2518 -0.1536
32714W        W75631  27.791   9.533   6.091  0.2704  0.0316  0.1664
32715W        W75632  25.775  10.806   2.293  0.1694  0.2062 -0.0990
32716W        W75633  28.528   8.684   4.306 -0.0916 -0.1139  0.0164
32717W        W75634  29.703  10.195   4.998  0.1923 -0.0724  0.3259
32718W        W75635  29.056  10.695   7.210 -0.0232  0.2010  0.0894
32719W        W75636  26.878  11.326   5.590 -0.0740  0.1413  0.0210
32720W        W75637  27.958   7.956   4.905 -0.1125  0.0088 -0.0417
32721W        W75638  24.987   6.123   6.148 -0.2681 -0.1995  0.0207
32722W        W75639  25.629   7.580   4.837  0.0047 -0.2802 -0.0353
32723W        W75640  27.065   9.396   3.518 -0.1123 -0.1334  0.0844
32724W        W75641  28.565   9.518   4.532 -0.0783 -0.2604 -0.1738
32725W        W75642  25.843   7.771   5.305  0.0794  0.0416 -0.1737
32726W        W75643  28.708   7.862   2.997 -0.1563 -0.1078  0.4031
32727W        W75644  25.873   9.628   6.052  0.1321 -0.0724  0.2628
32728W        W75645  28.119   9.887   2.969  0.2097 -0.0831 -0.2886
32729W        W75646  31.712   9.086   9.284 -0.0623  0.0388 -0.1374
32730W        W75647  25.790   7.391   8.433 -0.1618 -0.1045 -0.2443
32731W        W75648  28.161   7.410   7.766 -0.0354  0.1366 -0.2009
32732W        W75649  28.532   9.142   6.727  0.0052 -0.0238  0.0113
32733W        W75650  25.404   6.426   7.153 -0.2675 -0.4395  0.2019
32734W        W75651  29.041  10.679   6.261 -0.3164  0.0982  0.0684
32735W        W75652  26.028  10.421   9.500 -0.1556 -0.0095 -0.2210
32736W        W75653  26.042   7.754   8.164  0.0118 -0.0956  0.4452
32737W        W75654  27.528   9.990   6.877 -0.1565 -0.0195  0.2570
32738W        W75655  25.593   8.798   9.504  0.0251  0.2792 -0.0377
32739W        W75656  26.768   5.800   7.690 -0.0910 -0.2296 -0.1084
32740W        W75657  23.904   7.441   7.187 -0.2251 -0.1282 -0.1848
32741W        W75658  26.448  10.096   8.656 -0.3806  0.2414  0.0609
32742W        W75659  25.276   9.165   8.108 -0.2014  0.0022  0.1067
32743W        W75660  24.900   8.013   8.674  0.1618 -0.3311  0.1393
32744W        W75661  27.545   8.187   7.766 -0.0481 -0.1644 -0.2010
32745W        W75662  26.482  10.797   8.100  0.4228 -0.2494 -0.1342
32746W        W75663  27.807   9.169   8.029  0.0633 -0.1583 -0.0796
32747W        W75664  27.909  11.132   5.043  0.3908 -0.0444  0.1656
32748W        W75665  25.269   6.710   6.156 -0.0457  0.0310 -0.1293
32749W        W75666  25.263   7.560   7.536 -0.1561 -0.0690  0.0452
32750W        W75667  24.486   9.307   9.622 -0.1604  0.3349 -0.2549
32751W        W75668  25.743   5.843   9.031 -0.2211  0.0662  0.0704
32752W        W75669  28.215   8.834   8.037  0.1373  0.0002 -0.2684
32753W        W75670  27.345   9.612   8.572 -0.0117  0.0306 -0.0166
32754W        W75671  27.160  11.229   8.960 -0.1233 -0.0771 -0.1468
32755W        W75672  26.290   9.139   7.997 -0.1914  0.0244  0.1555
32756W        W75673  24.057  10.564   9.444 -0.0643 -0.0463 -0.1856
32757W        W75674  27.234   9.272   6.342 -0.1890  0.1631 -0.1869
32758W        W75675  28.172  10.108   7.740  0.1991 -0.3135  0.1889
32759W        W75676  25.966   8.483   6.587  0.3540 -0.0936 -0.0499
32760W        W75677  27.765  10.011   8.748  0.0346  0.0806  0.3138
32761W        W75678  28.058   7.283   8.678 -0.2144  0.1031 -0.0083
32762W        W75679  25.590  10.526   7.771  0.1770  0.1578  0.0965
32763W        W75680  25.830   8.312   9.633  0.2698  0.1071  0.2212
32764W        W75681  25.767  10.618   9.097 -0.2234 -0.0217 -0.2517
32765W        W75682  27.047  10.766   6.784  0.4213 -0.0634  0.0316
32766W        W75683  27.687   9.025   6.212  0.2201  0.1178 -0.0998
32767W        W75684  28.510   7.742   7.352  0.0372  0.0089  0.1781
32768W        W75685  29.036   7.457   8.042 -0.0416  0.2003  0.1266
32769W        W75686  25.203   6.486   7.640 -0.2228 -0.1096 -0.1145
32770W        W75687  27.870   9.590   8.492  0.0552 -0.3640 -0.1913
32771W        W75688  26.231   7.330   7.074  0.3677 -0.0358 -0.2605
32772W        W75689  28.086   7.980   7.612  0.3628  0.0233 -0.3974
32773W        W75690  28.173   5.842   8.259  0.1542  0.0390 -0.1128
32774W        W75691  26.651  10.217   7.631  0.0502 -0.1012  0.0612
32775W        W75692  24.756   7.195   8.866  0.2304 -0.0339 -0.0387
32776W        W75693  30.125  12.804   5.778 -0.1303  0.0400  0.3116
32777W        W75694  28.785   8.683   8.110 -0.2074 -0.1578  0.1422
32778W        W75695  26.991  10.062   6.253 -0.1128 -0.0313  0.0130
32779W        W75696  23.507   9.164   9.315 -0.0470 -0.0434  0.0527
32780W        W75697  26.939   7.982   5.852  0.0963 -0.0044 -0.2951
32781W        W75698  29.012   9.320   8.045 -0.1248 -0.1119  0.1008
32782W        W75699  30.557  10.708   8.829  0.3170  0.0631 -0.1159
32783W        W75700  29.917   9.906   7.970  0.2136  0.0789  0.2525
32784W        W75701  27.563   9.389   5.666 -0.0576 -0.1365  0.0687
32785W        W75702  30.049   8.772   8.677 -0.2209  0.1866 -0.1340
32786W        W75703  29.721   6.342   8.962  0.3632  0.1711  0.1120
32787W        W75704  25.585   8.765   6.026  0.1757  0.0023 -0.0805
32788W        W75705  27.647   7.658   7.750  0.2614 -0.1181 -0.1048
32789W        W75706  29.109   9.524   8.696  0.0114 -0.2088 -0.0627
32790W        W75707  27.850   8.454   9.229  0.0413 -0.0120 -0.2338
32791W        W75708  25.932  10.382   8.699 -0.0816 -0.0304  0.2020
32792W        W75709  27.118  10.905   6.270 -0.0743  0.0331  0.0116
32793W        W75710  23.736  10.146   8.296 -0.3270 -0.2502 -0.0101
32794W        W75711  25.609   8.636   7.874  0.3216  0.0659  0.1863
32795W        W75712  25.263   7.994   9.124 -0.0053 -0.2975 -0.1390
32796W        W75713  26.141   9.737   9.582 -0.0595  0.1395  0.0240
32797W        W75714  28.540   6.787   8.341 -0.1452 -0.1962  0.2488
32798W        W75715  27.622   8.258   8.361 -0.2801  0.0635  0.0663
32799W        W75716  27.589   9.044   7.303 -0.2077  0.0145  0.1440
32800W        W75717  28.069  10.005   6.895  0.0085 -0.2142 -0.0945
32801W        W75718  29.409   8.236   9.497  0.0284  0.3702 -0.1295
32802W        W75719  27.119  10.471   6.023 -0.1144 -0.0144 -0.0488
32803W        W75720  25.704   9.313   9.502  0.3417 -0.4856  0.0522
32804W        W75721  25.923   7.725   8.710 -0.0850  0.2427  0.1501
32805W        W75722  25.590   7.359   7.965  0.0098 -0.0304 -0.1603
32806W        W75723  26.269   6.373   7.058 -0.1911  0.0468  0.1445
32807W        W75724  29.473   9.596   7.846  0.2507 -0.1054 -0.0433
32808W        W75725  27.287   9.106   9.349 -0.3173 -0.0956  0.1868
32809W        W75726  25.474   7.794   5.670 -0.0598 -0.0682  0.1372
32810W        W75727  27.334  10.505   7.599 -0.1153  0.1490  0.0706
32811W        W75728  28.435   8.963   8.974 -0.1097 -0.0310 -0.2038
32812W        W75729  25.575  12.104   7.967  0.0354  0.1539  0.2877
32813W        W75730  25.579   8.436   8.989 -0.0198 -0.2607 -0.0989
32814W        W75731  25.674   8.202   8.198  0.0215  0.2214  0.1314
32815W        W75732  27.542   9.989   8.260 -0.0972  0.1908 -0.0705
32816W        W75733  25.184  10.203   7.823 -0.1453 -0.1406 -0.0539
32817W        W75734  25.680   7.169   6.955  0.1011 -0.1237 -0.0475
32818W        W75735  29.463   9.933   8.246 -0.2466  0.0491 -0.0052
32819W        W75736  27.530   8.693   7.706 -0.1946  0.0842 -0.0158
32820W        W75737  27.729   9.494   8.995 -0.0130  0.0908 -0.0760
32821W        W75738  28.513   9.972   9.142 -0.0002 -0.0109 -0.1030
32822W        W75739  26.729   7.486   5.896  0.2082 -0.3672 -0.4030
32823W        W75740  28.766  10.657   8.360  0.4756  0.1220  0.0055
32824W        W75741  26.396   9.211   7.122  0.4759  0.3870 -0.0935
32825W        W75742  25.617   9.810   7.030  0.0609 -0.0964  0.0131
32826W        W75743  26.960   8.712   9.025 -0.1693  0.0427  0.2487
32827W        W75744  28.750   7.534   8.847  0.0988  0.0017 -0.1382
32828W        W75745  24.394   8.638   6.554  0.2411 -0.0352  0.1224
32829W        W75746  29.926   6.458   9.425  0.1705  0.0498 -0.2724
32830W        W75747  27.283   8.677   7.225 -0.0460 -0.0590 -0.1558
32831W        W75748  28.588   8.936   6.248  0.0422  0.2305 -0.0670
32832W        W75749  30.591   8.521   7.718  0.0034  0.1414 -0.0877
32833W        W75750  28.252   7.751   8.687 -0.4143  0.2623  0.0845
32834W        W75751  26.236   9.089   8.828  0.1725  0.1195  0.1059
32835W        W75752  27.251  10.066   8.880 -0.1058  0.1501 -0.0508
32836W        W75753  27.564   9.619   6.517 -0.0512  0.2952 -0.1064
32837W        W75754  28.180  10.173   5.879  0.2867 -0.0435  0.2536
32838W        W75755  21.720   9.711   9.230  0.0469  0.2196 -0.2122
32839W        W75756  29.437  11.409   6.638 -0.3287  0.0601 -0.0491
32840W        W75757  24.044   8.325   7.069 -0.0385 -0.1120 -0.4397
32841W        W75758  26.490   7.680   8.003  0.0676 -0.0933  0.0869
32842W        W75759  28.435   5.770   9.560  0.0165 -0.0442 -0.2525
32843W        W75760  24.678   9.815   7.890  0.0406 -0.0865  0.1018
32844W        W75761  25.850   6.992   9.368  0.3727 -0.0599  0.2594
32845W        W75762  29.372   6.770   8.646 -0.2244  0.0002  0.2457
32846W        W75763  28.439  10.420   8.024  0.0348  0.1211  0.2460
32847W        W75764  26.082   6.614   9.072 -0.2535  0.1833 -0.0134
32848W        W75765  26.528   9.124   6.159  0.2037  0.1960 -0.0757
32849W        W75766  27.998   7.841   9.133 -0.1568  0.0908  0.0170
32850W        W75767  25.682  10.070   9.222 -0.3007 -0.0470 -0.0992
32851W        W75768  27.226   9.016   8.215 -0.2812  0.2643  0.0638
32852W        W75769  26.734   7.416   7.383  0.0059  0.1045  0.1957
32853W        W75770  26.487   9.306   8.457  0.1175 -0.1294  0.1402
32854W        W75771  26.274   8.453   5.527 -0.0187  0.0153  0.0535
32855W        W75772  26.242   6.778   8.284 -0.3514 -0.0828 -0.1432
32856W        W75773  27.052   6.943   8.665 -0.0550  0.1122 -0.3571
32857W        W75774  25.612   8.969   7.100  0.1395  0.0341  0.2769
32858W        W75775  28.583   8.674   8.629 -0.1569  0.1152  0.1820
32859W        W75776  25.372  10.236   8.726  0.2439  0.0683 -0.0637
32860W        W75777  26.308   6.139   9.460  0.1311 -0.0162  0.2513
32861W        W75778  24.930  11.834   9.332 -0.0062 -0.2459  0.1157
32862W        W75779  27.942   8.590   7.390 -0.1754 -0.0217  0.1519
32863W        W75780  27.768   7.076   6.372  0.0630 -0.0722  0.0799
32864W        W75781  30.001   6.371   8.505 -0.0503  0.4089  0.2338
32865W        W75782  29.097   9.034   6.867  0.0855 -0.0787 -0.2217
32866W        W75783  25.420   8.214   7.711  0.0150 -0.0176 -0.0908
32867W        W75784  25.644   6.355   7.963 -0.0798  0.0358 -0.3940
32868W        W75785  25.780  10.078   9.978 -0.1185  0.3591 -0.6067
32869W        W75786  28.617   7.366   7.709 -0.0312 -0.1337  0.0150
32870W        W75787  26.332   7.533   6.629  0.0390 -0.3186 -0.0174
32871W        W75788  28.251   6.844   9.213  0.0369 -0.3243  0.0696
32872W        W75789  26.039   8.759   9.762  0.0798  0.0780 -0.4742
32873W        W75790  25.577  10.001   8.023 -0.1401 -0.0983 -0.4283
32874W        W75791  26.195  10.897   9.399  0.0090 -0.2646  0.0471
32875W        W75792  27.207   8.389   8.115 -0.2499 -0.1131 -0.1662
32876W        W75793  25.915   9.198   6.235  0.0702  0.1576 -0.0517
32877W        W75794  27.450   8.690   9.090 -0.0666  0.1491 -0.0317
32878W        W75795  27.225   8.559   8.627  0.0989 -0.5630 -0.3027
32879W        W75796  26.710   7.253   8.967  0.3644  0.2259 -0.0320
32880W        W75797  25.317   8.939   8.641 -0.1614  0.1132  0.0108
32881W        W75798  28.610  11.512   8.748 -0.0096  0.2507  0.2380
32882W        W75799  28.562   9.573   8.499 -0.1765 -0.2801 -0.2391
32883W        W75800  27.161   8.057   8.558  0.2340 -0.0103  0.1227
32884W        W75801  29.650  10.567   6.771 -0.1605 -0.2432 -0.2551
32885W        W75802  25.180   8.111   8.272 -0.0935 -0.0961  0.1635
32886W        W75803  25.183   8.642   8.173  0.2389  0.1113  0.0911
32887W        W75804  24.784   7.093   9.384 -0.5760  0.0857  0.1598
32888W        W75805  26.344   8.143   8.365  0.1626 -0.2623  0.1376
32889W        W75806  25.819   9.047   8.106  0.0232  0.4209 -0.2866
32890W        W75807  26.426   8.487   7.530  0.0097  0.0818  0.0226
32891W        W75808  24.994   9.319   9.570 -0.0836  0.0435 -0.0922
32892W        W75809  29.174   6.973   6.994 -0.3155 -0.5492  0.3719
32893W        W75810  26.322   9.536   6.248 -0.0382 -0.2888  0.2894
32894W        W75811  27.430   7.841   8.183  0.0626  0.1524 -0.2162
32895W        W75812  26.892   9.247   7.193 -0.0378  0.1644 -0.0298
32896W        W75813  25.376   6.465   8.425 -0.1277 -0.2540  0.0721
32897W        W75814  27.712  11.274   7.275  0.0775 -0.0393 -0.0564
32898W        W75815  27.288   6.039   7.905 -0.1805 -0.1283 -0.0124
32899W        W75816  28.175   7.885   7.025  0.1004 -0.0879 -0.1864
32900W        W75817  25.145   4.534  12.690 -0.0303  0.1121  0.0840
32901W        W75818  28.440  13.989   8.798  0.0573 -0.0246  0.1282
32902W        W75819  28.146   9.649   5.736 -0.1316  0.0450  0.0010
32903W        W75820  26.896   5.973   9.503 -0.1260  0.0032  0.2773
32904W        W75821  24.701   7.739   9.086 -0.1091  0.3947  0.3817
32905W        W75822  29.389   8.387   9.007 -0.1296 -0.1802  0.2497
32906W        W75823  28.834   9.478   6.865  0.2157  0.0284  0.1931
32907W        W75824  27.144  14.428   9.143  0.1010 -0.3096 -0.1574
32908W        W75825  25.758   9.274   8.632 -0.1924  0.1333  0.0093
32909W        W75826  28.970   8.711   7.360  0.2042  0.2893  0.0060
32910W        W75827  26.783   9.220   8.944 -0.2040 -0.0978  0.2957
32911W        W75828  28.667   7.988   6.881 -0.2062  0.0271 -0.1936
32912W        W75829  20.261  12.070   9.943 -0.3951  0.1700 -0.0023
32913W        W75830  29.391   8.210   8.450  0.1226  0.0998  0.2301
32914W        W75831  26.772   8.931   8.562 -0.0087 -0.0784  0.2267
32915W        W75832  25.681   7.302   7.478  0.0344  0.1205  0.1474
32916W        W75833  28.397   7.042   5.302 -0.0140  0.2118  0.2665
32917W        W75834  24.107  12.633   9.130  0.0774 -0.0943 -0.3489
32918W        W75835  28.677  10.273   5.891 -0.0179 -0.0043  0.0426
32919W        W75836  27.172   7.958   6.692 -0.0644  0.1652 -0.3472
32920W        W75837  24.666   6.688   7.629 -0.1752  0.1679 -0.1551
32921W        W75838  27.028   7.656   7.111 -0.3773  0.0069  0.1869
32922W        W75839  26.548   6.776   7.896 -0.0914  0.2475 -0.3054
32923W        W75840  29.777  11.422   9.305  0.0921  0.1379  0.0108
32924W        W75841  26.897   7.040   7.600 -0.0029  0.1841 -0.3799
32925W        W75842  23.444  10.544   8.095  0.0846 -0.0535 -0.3046
32926W        W75843  27.207   6.321   8.287  0.1683 -0.0169 -0.0498
32927W        W75844  26.905  10.771   8.366  0.0322  0.1910  0.3348
32928W        W75845  26.289   9.271   6.614  0.1081 -0.1406 -0.1406
32929W        W75846  25.159   7.219   7.152 -0.0871 -0.0048 -0.1476
32930W        W75847  27.626   8.985   6.733  0.2070  0.1114 -0.2262
32931W        W75848  28.342  10.426   9.284  0.2096 -0.0591 -0.0415
32932W        W75849   7.892   5.320  10.034  0.2642  0.0873  0.2273
32933W        W75850  32.412  11.539   9.226  0.0779 -0.2124 -0.0606
32934W        W75851  26.288   7.387   8.607  0.0937  0.1942 -0.1165
32935W        W75852  28.751   9.547   8.994  0.1323  0.1766  0.0777
32936W        W75853  29.373   5.330   8.494 -0.3024  0.0293  0.0535
32937W        W75854  26.737   8.836   5.845 -0.3037  0.1672 -0.0886
32938W        W75855  27.114   8.292   9.344 -0.1956  0.0198 -0.0511
32939W        W75856  25.621   9.045   9.030  0.1142  0.1760 -0.2325
32940W        W75857  28.225   9.138   8.570 -0.2029 -0.1476 -0.1047
32941W        W75858  27.600   8.523   6.902  0.0717 -0.1413 -0.0706
32942W        W75859  28.879   9.070   8.865 -0.0913  0.2078  0.1720
32943W        W75860  25.959   8.481   7.144 -0.0246 -0.1786 -0.1098
32944W        W75861  28.886  10.388   9.249 -0.0789  0.1155  0.0414
32945W        W75862  24.116   9.771   4.934  0.0788  0.2617 -0.1108
32946W        W75863  27.091   9.502   7.544  0.1126  0.1303  0.2315
32947W        W75864  24.597  11.034   7.876  0.1052  0.0679 -0.0873
32948W        W75865  28.738   8.045   6.324 -0.2046 -0.0793  0.0184
32949W        W75866  28.005  10.023   9.164  0.0504 -0.0667  0.0363
32950W        W75867  29.815   7.990   8.355  0.0275  0.2375  0.2047
32951W        W75868  28.821  10.932   9.204  0.1424  0.0521 -0.3572
32952W        W75869  26.613   7.015   7.202 -0.1901  0.1106  0.0553
32953W        W75870  29.995  10.491   5.269  0.1327  0.1845 -0.1164
32954W        W75871  26.165   6.424   7.952  0.0271  0.2459  0.0082
32955W        W75872  26.279  10.486   9.089 -0.3073  0.0555 -0.0185
32956W        W75873  26.314   8.013   8.975 -0.4039 -0.0442  0.2336
32957W        W75874  27.291  11.004   5.127  0.0651  0.0653 -0.1107
32958W        W75875  26.128   7.214   8.035 -0.1028  0.1536  0.0384
32959W        W75876  26.850  11.142   7.104  0.0422 -0.1889  0.3401
32960W        W75877  24.725   9.301   8.880 -0.0096  0.3228 -0.0869
32961W        W75878  26.343   8.721   8.439  0.0472 -0.3008  0.2906
32962W        W75879  24.542   7.911   7.785  0.1743  0.2729 -0.1261
32963W        W75880  28.878   8.348   9.103 -0.0194  0.1582  0.0392
32964W        W75881  27.261   9.037   8.738 -0.2024 -0.0760  0.0008
32965W        W75882  26.678   7.968   6.757 -0.0768 -0.2641 -0.3632
32966W        W75883  27.738   7.489   5.832 -0.2786 -0.0363  0.1800
32967W        W75884  27.940   8.885   9.017  0.3905 -0.0520  0.1380
32968W        W75885  27.125   7.464   8.871 -0.3295 -0.1950 -0.1189
32969W        W75886  27.071   6.507   7.823 -0.1625  0.0958  0.1231
32970W        W75887  27.321   8.912   5.906  0.2481  0.2135  0.1209
32971W        W75888  26.111   8.876   6.856 -0.1387 -0.0648  0.0907
32972W        W75889  28.671   9.126   7.761 -0.2130  0.0626 -0.1509
32973W        W75890  25.476   8.018   8.641 -0.0190  0.2102  0.2916
32974W        W75891  27.796   7.537   8.222 -0.0389  0.1833 -0.2211
32975W        W75892  27.129   7.051   7.028 -0.2079 -0.0109 -0.2789
32976W        W75893  28.554  11.004   5.555  0.0667 -0.2144 -0.0242
32977W        W75894  28.629   9.081   8.302 -0.2150 -0.0291 -0.0317
32978W        W75895  26.931  10.154   6.782  0.0165  0.2468 -0.0127
32979W        W75896  28.088   8.036   6.092  0.1057 -0.2749 -0.2032
32980W        W75897  27.971  11.337   7.682 -0.1356  0.0028 -0.2653
32981W        W75898  24.313   7.351   9.105  0.0284  0.4241  0.1921
32982W        W75899  27.067   7.444   7.863 -0.2562 -0.1190  0.1461
32983W        W75900  29.704   8.841   9.022  0.1893 -0.1188  0.1997
32984W        W75901  27.501   5.106   7.898 -0.0549 -0.0542 -0.2345
32985W        W75902  25.600   8.067   7.138  0.0564  0.1641 -0.2018
32986W        W75903  23.176  11.416   8.976  0.0978 -0.1594  0.1535
32987W        W75904  27.172   9.571   9.045  0.0154 -0.3010 -0.0578
32988W        W75905  26.555  10.848   6.780 -0.2280 -0.3313 -0.0872
32989W        W75906  27.421  10.979   8.556 -0.0692 -0.1008  0.0292
32990W        W75907  24.694  10.073   6.773 -0.1766  0.0798  0.1082
32991W        W75908  27.323   9.342   6.896  0.3078  0.2183  0.1190
32992W        W75909  26.592   9.830   6.526 -0.2124  0.1514 -0.0420
32993W        W75910  30.314  10.199   8.122 -0.0351  0.0429 -0.3620
32994W        W75911  24.564   7.569   9.552 -0.0710 -0.0357 -0.1893
32995W        W75912  29.793  10.369   9.416 -0.0499  0.2575 -0.1705
32996W        W75913  26.946   7.940   8.102  0.2294  0.2615 -0.0085
32997W        W75914  29.462   7.681   6.158 -0.0219  0.0234 -0.1495
32998W        W75915  27.707   7.207   7.470 -0.0904  0.3234 -0.1408
32999W        W75916  24.735   7.386   8.423 -0.0808  0.0699  0.2519
33000W        W75917  24.406   9.806   7.159  0.0830 -0.3122  0.0989
33001W        W75918  27.726   9.130   8.620 -0.0663 -0.2310 -0.1760
33002W        W75919  25.150   8.446   8.778 -0.2104 -0.1430 -0.3135
33003W        W75920  24.613  10.165   9.971 -0.1395  0.3412  0.2334
33004W        W75921  27.070   8.485   7.619 -0.2464 -0.1877  0.1868
33005W        W75922  30.277  10.782   6.023  0.1159  0.0059  0.0453
33006W        W75923  26.002   8.649   9.016  0.1247 -0.0516  0.3046
33007W        W75924  25.579   6.539   9.289 -0.1582 -0.0886  0.2089
33008W        W75925  28.265   9.406   8.071 -0.0494  0.1557 -0.0595
33009W        W75926  26.601   8.932   7.650  0.4238 -0.1107 -0.2410
33010W        W75927  25.815   6.846   7.754  0.2264  0.0510 -0.0575
33011W        W75928  27.211   8.178   7.117  0.1212 -0.2863 -0.3076
33012W        W75929  25.962   7.124   6.519 -0.0672  0.2527  0.2423
33013W        W75930  28.536   9.876   8.075  0.0007  0.0637  0.2244
33014W        W75931  27.549  11.478   8.727 -0.3209 -0.1823  0.0778
33015W        W75932  28.285   9.498   6.526 -0.2058  0.0139  0.1090
33016W        W75933  25.220   7.064   8.580 -0.0713  0.2392 -0.3143
33017W        W75934  28.687  10.130   7.656  0.2986  0.0563  0.0652
33018W        W75935  26.260  11.376   5.884 -0.0375  0.3819 -0.3055
33019W        W75936  30.456   8.369   8.493 -0.0301  0.1036 -0.0080
33020W        W75937  26.773   8.411   8.369  0.0554  0.1192  0.5425
33021W        W75938  28.295   6.613   8.756 -0.1529 -0.1411 -0.1437
33022W        W75939  27.225   7.846   7.570  0.1808  0.0849  0.1062
33023W        W75940  26.716   8.346   7.909 -0.0359  0.1053 -0.1093
33024W        W75941  27.993  10.356   6.420  0.1148  0.3399 -0.0634
33025W        W75942  26.537   6.600   9.480  0.1099 -0.0632 -0.0414
33026W        W75943  26.454   6.887   8.782  0.0201 -0.3458  0.1773
33027W        W75944  26.481  10.201   9.498  0.2642 -0.1958 -0.2270
33028W        W75945  27.636   8.725   8.209  0.1663 -0.0161  0.0698
33029W        W75946  27.913  10.955   8.669 -0.0118  0.2000 -0.0191
33030W        W75947  26.754   9.708   8.816  0.1871  0.3101  0.1685
33031W        W75948  30.028   9.745   8.734  0.1037  0.0253 -0.1152
33032W        W75949  29.480  10.431   8.066 -0.1281  0.3100  0.3117
33033W        W75950  25.816   4.803   8.820 -0.2342  0.2593  0.0099
33034W        W75951  24.577   7.463   6.966 -0.2013  0.3407 -0.0827
33035W        W75952  25.515   6.816   8.915  0.3927 -0.1472  0.2776
33036W        W75953  26.929   8.828   9.559 -0.3904  0.2207  0.0403
33037W        W75954  26.110   8.016   7.372  0.0373  0.1833  0.0395
33038W        W75955  27.652   7.676   7.225  0.4948 -0.1725  0.2522
33039W        W75956  29.936  10.172   8.974  0.2381  0.2097  0.0496
33040W        W75957  26.708   8.199   7.225 -0.0865  0.0636  0.1518
33041W        W75958  26.061  14.362   3.076  0.1630  0.0486 -0.0122
33042W        W75959  26.449  14.218   2.059 -0.0394  0.2593 -0.1299
33043W        W75960  29.325  11.368   0.848 -0.0133 -0.0659  0.1135
33044W        W75961  28.989  13.112  31.887 -0.0731 -0.0935  0.1062
33045W        W75962  26.572  12.400   4.153  0.1017 -0.0620 -0.1713
33046W        W75963  27.449  15.389   0.903 -0.1907 -0.0249 -0.3585
33047W        W75964  27.784  11.202   4.153  0.0989  0.0647 -0.1591
33048W        W75965  28.965  14.130   2.037 -0.1915  0.2869  0.1135
33049W        W75966  29.558  15.555   1.436  0.1320 -0.1115  0.0540
33050W        W75967  25.653  11.569  31.450 -0.3149 -0.1521 -0.2560
33051W        W75968  26.701  13.137   3.649  0.1265  0.0778 -0.2572
33052W        W75969  27.616  15.590   2.633 -0.0869 -0.1653 -0.0057
33053W        W75970  26.016  10.835   1.191 -0.1933 -0.1590 -0.1339
33054W        W75971  27.213  11.242   1.154  0.3076  0.0396  0.0604
33055W        W75972  27.740  14.297   2.843 -0.0175 -0.1793  0.0487
33056W        W75973  27.160  14.494   0.180  0.3476  0.0654  0.0060
33057W        W75974  26.701  11.170   2.041 -0.2624  0.3353  0.1466
33058W        W75975  27.597  12.493   1.069 -0.0983  0.1333  0.0415
33059W        W75976  28.222  17.264  31.927  0.3175 -0.1312  0.5083
33060W        W75977  25.889  10.965   5.385 -0.0166 -0.1675  0.3190
33061W        W75978  26.164  12.132   2.896  0.1536  0.0843  0.1607
33062W        W75979  27.973  13.678   0.645  0.2150 -0.6130  0.2341
33063W        W75980  25.215  12.662   0.388  0.1791 -0.1358 -0.2584
33064W        W75981  26.230  13.316   2.193 -0.0027 -0.4226 -0.0443
33065W        W75982  26.154  10.721   2.564 -0.1215  0.0552  0.3507
33066W        W75983  27.467  11.222   2.054 -0.3132 -0.0459  0.0322
33067W        W75984  28.101  15.136   2.671  0.3187 -0.1507 -0.2090
33068W        W75985  26.378  15.335   1.872 -0.0425  0.1934 -0.2423
33069W        W75986  27.887  15.561   3.011  0.2094 -0.0442  0.0850
33070W        W75987  28.224  12.849   2.830  0.1045  0.1092 -0.1921
33071W        W75988  26.778  13.249   1.401 -0.2233 -0.1172 -0.4326
33072W        W75989  25.142  14.491   2.201  0.1465  0.0912 -0.1320
33073W        W75990  26.809  12.338   1.708 -0.0136 -0.0990 -0.0891
33074W        W75991  28.011  14.005   1.723 -0.0634  0.0518  0.0607
33075W        W75992  28.122  13.102   2.411 -0.0736 -0.1430 -0.2927
33076W        W75993  27.007  13.740   4.539 -0.0301  0.1459  0.2712
33077W        W75994  25.005  13.427   1.088 -0.0308 -0.0868 -0.1613
33078W        W75995  28.083  15.166   4.404 -0.2552  0.2507  0.3383
33079W        W75996  27.605  15.028   2.411 -0.1331  0.2087 -0.3054
33080W        W75997  27.883  11.390   1.727  0.0903  0.1533  0.2692
33081W        W75998  27.031  13.689   0.794 -0.0342 -0.0968  0.2347
33082W        W75999  27.797  14.992   1.425  0.3150 -0.0523 -0.0048
33083W        W76000  26.855  13.758   1.333 -0.1112  0.3187  0.0048
33084W        W76001  26.134  13.919   1.274 -0.3532  0.0657  0.0567
33085W        W76002  25.887  13.178   3.045 -0.0193 -0.3902  0.2857
33086W        W76003  30.313  13.394   4.437  0.1403  0.0279 -0.0403
33087W        W76004  27.457  15.874   0.251 -0.1437  0.0844  0.3367
33088W        W76005  27.743  13.814   1.089  0.2191  0.0420 -0.0723
33089W        W76006  27.110  12.297   1.241  0.2950 -0.1711 -0.4856
33090W        W76007  27.441  12.971  31.091 -0.2100  0.0401 -0.1693
33091W        W76008  27.272  10.994   0.665 -0.1535  0.0360  0.1829
33092W        W76009  28.132  12.971   1.253 -0.1410 -0.0295  0.3142
33093W        W76010  27.137  13.453   3.690 -0.4445 -0.1518 -0.0701
33094W        W76011  27.320  14.481   3.626  0.0060 -0.2038 -0.4545
33095W        W76012  24.514  11.981   0.101 -0.0332 -0.4059 -0.2698
33096W        W76013  28.730  13.091   1.290  0.1451 -0.1228  0.0163
33097W        W76014  25.576  13.999   2.992  0.1196  0.0507 -0.0480
33098W        W76015  25.868  12.630   1.084 -0.0379  0.4708 -0.1778
33099W        W76016  27.152  13.389   0.374 -0.0186 -0.0993 -0.0898
33100W        W76017  29.170  13.562  29.215  0.2030  0.0159 -0.1160
33101W        W76018  28.669  14.199  30.570 -0.1328 -0.1084  0.1835
33102W        W76019  26.983  14.385  31.703 -0.0902 -0.2990  0.1900
33103W        W76020  25.331  13.124   1.908  0.0183  0.2036 -0.0679
33104W        W76021  25.383  12.099   1.833 -0.2280 -0.2510 -0.3613
33105W        W76022  25.894  11.371   0.440 -0.2173  0.1868 -0.2614
33106W        W76023  26.942  14.614   1.746 -0.0913  0.1572 -0.1232
33107W        W76024  23.758  14.463   3.619  0.3252  0.2688  0.1828
33108W        W76025  30.094  12.877   0.833 -0.0885  0.1104  0.2341
33109W        W76026  25.876  14.384   0.508 -0.0909 -0.0640 -0.1495
33110W        W76027  28.357  15.992   3.039  0.1739 -0.2893 -0.2607
33111W        W76028  27.196  14.982  30.423 -0.4394  0.2447  0.1491
33112W        W76029  26.606  12.771   2.306 -0.0793 -0.1637 -0.2947
33113W        W76030  26.344  12.224   3.708  0.1242  0.0775  0.0857
33114W        W76031  26.297  14.999  31.875  0.2048 -0.1207 -0.0474
33115W        W76032  24.710  14.380   1.101 -0.2120  0.1053  0.0707
33116W        W76033  29.139  14.803   0.674  0.1734  0.2138 -0.0702
33117W        W76034  26.956  14.598  31.248  0.0740 -0.1152 -0.0887
33118W        W76035  25.385  15.442   1.578 -0.3555  0.0664  0.0632
33119W        W76036  26.051  12.457   4.179 -0.0986 -0.1368  0.0463
33120W        W76037  26.387  12.726   3.744 -0.2771  0.0956 -0.1897
33121W        W76038  27.664  17.757  31.518 -0.2943 -0.2998 -0.2228
33122W        W76039  23.396  13.967   4.800  0.2570  0.1511  0.0949
33123W        W76040  22.691  15.451   0.524 -0.0102  0.0816 -0.4040
33124W        W76041  23.104  12.080   2.670  0.0504  0.5090  0.0018
33125W        W76042  26.111  13.680   1.807  0.2779 -0.1424  0.2403
33126W        W76043  28.812  11.549   0.399  0.2408  0.0304  0.0978
33127W        W76044  24.116  11.500   0.995  0.0444 -0.0554 -0.1758
33128W        W76045  28.930  12.961   0.823  0.1538 -0.1492 -0.1940
33129W        W76046  27.226  14.650   2.217  0.1801 -0.0865 -0.1112
33130W        W76047  29.135  15.726  30.969  0.0245  0.2207 -0.0302
33131W        W76048  30.817  14.371   1.611 -0.0316  0.2199 -0.1483
33132W        W76049  29.461  13.512  30.456 -0.3715 -0.1917  0.0591
33133W        W76050  25.708  11.836   2.911  0.0656 -0.0362 -0.0539
33134W        W76051  26.133  12.991   2.577 -0.1165  0.2573  0.1534
33135W        W76052  25.235  13.299   2.413  0.0568  0.1456 -0.0922
33136W        W76053  24.672  10.780   2.543  0.0695 -0.1832  0.0663
33137W        W76054  28.163  14.401   1.981  0.1091 -0.0029 -0.0674
33138W        W76055  26.592  13.185  31.501  0.0958 -0.0550 -0.0507
33139W        W76056  29.083  10.211   2.531  0.0432  0.1332 -0.4346
33140W        W76057  25.714  13.810   0.301  0.0015  0.2788 -0.2424
33141W        W76058  25.174  14.717   0.089 -0.2496 -0.1316  0.0830
33142W        W76059  26.655  11.895   2.697 -0.1191 -0.2307  0.2465
33143W        W76060  28.459  14.266  31.000 -0.1619 -0.2020  0.1024
33144W        W76061  29.002  14.509   1.626  0.0271  0.1398  0.0491
33145W        W76062  28.716  15.291   1.907  0.3422 -0.2279  0.0971
33146W        W76063  26.880  12.909   2.773 -0.1022  0.0368 -0.0568
33147W        W76064  22.813  11.409   1.143  0.1752  0.0838  0.0236
33148W        W76065  24.865  14.642   2.821  0.2730 -0.0593 -0.3256
33149W        W76066  26.292  14.579   1.130 -0.0346  0.3857  0.0896
33150W        W76067  24.614  12.103   0.591 -0.0919  0.0706  0.0731
33151W        W76068  30.038  15.736   1.548  0.2298 -0.1581 -0.0182
33152W        W76069  26.399  15.137   1.122 -0.1731 -0.0087 -0.0257
33153W        W76070  25.444  13.452   2.852 -0.1033  0.0248 -0.0456
33154W        W76071  30.907  10.558   3.317 -0.0617  0.1108  0.1741
33155W        W76072  27.341  13.433   1.313 -0.0186  0.0085  0.3419
33156W        W76073  27.720  14.436   1.062 -0.0888  0.1319 -0.1262
33157W        W76074  24.265  12.162   1.748 -0.2578 -0.1047 -0.1525
33158W        W76075  28.682  13.948  31.556  0.1363 -0.1576 -0.2653
33159W        W76076  25.081  14.577   0.595 -0.3244  0.3040 -0.2874
33160W        W76077  25.184  13.920   1.672  0.1023  0.0989 -0.3519
33161W        W76078  28.110  15.692   2.558  0.0655 -0.0019  0.1604
33162W        W76079  29.291  13.883   1.085  0.0282  0.0521 -0.2436
33163W        W76080  26.127  11.466   4.249 -0.4222 -0.1866 -0.1214
33164W        W76081  27.174  12.980   3.558  0.2044  0.0950 -0.2739
33165W        W76082  23.212  11.369   0.789 -0.0629  0.1692  0.2091
33166W        W76083  26.219  14.219   2.537 -0.0828  0.3339 -0.2692
33167W        W76084  30.174  13.330   0.896 -0.0632  0.2131  0.6630
33168W        W76085  30.401  10.659   1.007  0.0818  0.3155  0.0367
33169W        W76086  27.916  12.383   3.862  0.1175 -0.1214 -0.0130
33170W        W76087  28.297  14.693  31.579 -0.3941  0.2172 -0.5604
33171W        W76088  26.561   9.178   0.981  0.2668 -0.1295 -0.1982
33172W        W76089  26.673  10.010   1.140  0.1414 -0.0868 -0.1748
33173W        W76090  21.181  14.164   3.538  0.4200 -0.1274 -0.0456
33174W        W76091  26.548  15.050   0.625 -0.1798  0.4192 -0.1035
33175W        W76092  27.851  12.646   2.432  0.2144  0.1514  0.2250
33176W        W76093  27.507  13.490   0.741 -0.1939 -0.1510 -0.1979
33177W        W76094  27.494  14.146  30.757  0.0726  0.0253 -0.0048
33178W        W76095  24.169  14.793   3.505  0.0341 -0.0704  0.0835
33179W        W76096  27.081  16.469   1.749  0.2035  0.1689  0.2325
33180W        W76097  28.571  16.675   1.137 -0.2782  0.0069  0.3614
33181W        W76098  27.694  12.837   2.993  0.1395  0.3231 -0.2512
33182W        W76099  26.610  11.026   0.125 -0.4887  0.0785  0.1205
33183W        W76100  26.640  13.808   0.500  0.0694 -0.0832 -0.3034
33184W        W76101  27.230  16.288   0.491  0.0942  0.2073  0.1355
33185W        W76102  28.455  13.254   0.451 -0.1155 -0.0635 -0.0433
33186W        W76103  27.678  12.773   1.555  0.1165  0.0233 -0.0113
33187W        W76104  28.671  10.735   3.396 -0.0444  0.3525 -0.3225
33188W        W76105  27.654  13.852   3.875 -0.0619 -0.1659 -0.2984
33189W        W76106  29.687  11.230  31.916  0.1657  0.0646  0.1760
33190W        W76107  29.051  12.465   0.728  0.1075  0.2547 -0.1181
33191W        W76108  27.142  12.619   0.862  0.1570  0.0963 -0.0896
33192W        W76109  26.976  11.319   3.344  0.0239 -0.4396  0.1814
33193W        W76110  26.614  13.758   1.848  0.2176 -0.3272 -0.0944
33194W        W76111  24.664  14.119   1.537 -0.1579  0.0808  0.2114
33195W        W76112  28.782  13.115   1.816 -0.1505 -0.2229  0.0715
33196W        W76113  28.040  12.675   0.868 -0.0895  0.1746 -0.2794
33197W        W76114  26.946  14.158   2.027  0.1674  0.1679  0.1935
33198W        W76115  25.667  14.599  31.946 -0.1200 -0.0817  0.1464
33199W        W76116  25.908  13.803   2.276 -0.0998 -0.0996 -0.0776
33200W        W76117  26.324  13.957   0.066 -0.3484  0.3292  0.1644
33201W        W76118  27.203  12.794   3.115  0.1308 -0.1353 -0.2970
33202W        W76119  28.336  14.998   3.109  0.4635  0.1542 -0.1418
33203W        W76120  26.606  14.871   1.472 -0.3383 -0.2299  0.0199
33204W        W76121  27.618  14.102   1.478 -0.2158  0.1461  0.4977
33205W        W76122  25.697  16.738   0.859 -0.1799 -0.1497 -0.0128
33206W        W76123  27.691  12.858   3.539 -0.0930 -0.2653 -0.0883
33207W        W76124  25.826  14.717   0.935  0.0833  0.2811 -0.0357
33208W        W76125  25.428  10.962  31.934  0.3193 -0.0073 -0.2855
33209W        W76126  26.110  11.503   1.903  0.2569  0.0412  0.3817
33210W        W76127  28.639  12.691   1.559 -0.1626 -0.3687 -0.2290
33211W        W76128  27.743  10.859   0.258 -0.1304 -0.1162  0.0540
33212W        W76129  24.200  10.664   1.267  0.1558 -0.1876  0.0589
33213W        W76130  27.722  11.472   2.871 -0.3457  0.0399 -0.0596
33214W        W76131  25.172  15.642   2.441 -0.3208  0.1756 -0.2506
33215W        W76132  28.493  14.595   2.732  0.0380  0.1230  0.0564
33216W        W76133  27.495  12.849  31.595  0.2560 -0.0196 -0.0555
33217W        W76134  28.514  14.730   0.062  0.1770  0.3028 -0.0988
33218W        W76135  24.366  13.346   3.187 -0.2377 -0.2062  0.1207
33219W        W76136  25.768  12.912   0.634  0.1313 -0.0417 -0.2220
33220W        W76137  29.700  14.592   2.276  0.0545  0.1300 -0.1627
33221W        W76138  29.911  12.665   1.654 -0.1407  0.0608 -0.1323
33222W        W76139  24.925  15.229   2.683 -0.0157  0.0956 -0.0746
33223W        W76140  26.576  13.230   2.541 -0.3420 -0.0355  0.0707
33224W        W76141  26.620  12.782   1.672 -0.1046  0.0634  0.0325
33225W        W76142  24.975  13.125   2.852  0.0162 -0.0313 -0.0426
33226W        W76143  26.727  13.598   4.946 -0.1706  0.0642  0.1354
33227W        W76144  27.970  12.218   1.996 -0.0941 -0.0477  0.3101
33228W        W76145  24.952  12.425   3.616  0.1722  0.1009  0.2250
33229W        W76146  26.580  11.313   2.992 -0.2062  0.0557 -0.2673
33230W        W76147  28.224  11.795   2.189 -0.2459  0.3046 -0.1335
33231W        W76148  28.601  14.665   1.923  0.1255  0.1270  0.1199
33232W        W76149  27.991  12.438   4.432 -0.2860  0.1018 -0.0313
33233W        W76150  24.403  12.828   2.335 -0.3066 -0.1403  0.2812
33234W        W76151  30.054  12.198   1.493  0.1263 -0.1518 -0.0188
33235W        W76152  29.952  14.929   0.197 -0.0911  0.0266 -0.2332
33236W        W76153  29.003  14.207   2.548 -0.0356 -0.1226 -0.4221
33237W        W76154  26.134  13.072   1.363  0.1735 -0.0324 -0.0341
33238W        W76155  28.505  13.193   3.064  0.0563 -0.4316 -0.1188
33239W        W76156  27.055  13.412   2.732  0.0172  0.2617 -0.0223
33240W        W76157  27.359  12.746   4.408  0.0707  0.0591  0.1054
33241W        W76158  22.975  13.419   3.119 -0.1784  0.2898 -0.1234
33242W        W76159  26.767  15.508   2.260  0.2218 -0.0134  0.0414
33243W        W76160  25.969  14.164   1.852  0.1910 -0.0163  0.0702
33244W        W76161  28.231  12.094   0.382  0.1207  0.1230  0.3612
33245W        W76162  26.536  14.807  31.442  0.2250  0.1261  0.0050
33246W        W76163  27.199  12.650   1.686 -0.2721  0.0191  0.1664
33247W        W76164  30.985   9.465   3.601 -0.0825  0.0753 -0.0047
33248W        W76165  27.798  13.548  31.748 -0.0814 -0.1789  0.1090
33249W        W76166  28.663  13.076   2.569 -0.1856 -0.0192 -0.1464
33250W        W76167  25.903  12.901   3.416  0.0619  0.0990  0.0198
33251W        W76168  30.361  14.296   0.736 -0.3228 -0.1160 -0.0915
33252W        W76169  24.269  12.357   2.559 -0.2202  0.1262 -0.1399
33253W        W76170  27.447  14.673   2.711 -0.0650  0.1550  0.0503
33254W        W76171  27.550  11.493   4.836  0.2071  0.0255  0.2242
33255W        W76172  26.412  13.020   3.024 -0.0470 -0.2452 -0.0794
33256W        W76173  27.486  13.977   0.655  0.0360 -0.0606 -0.0484
33257W        W76174  27.822  12.172   0.703  0.2147  0.1615 -0.2409
33258W        W76175  28.026  16.503   0.842  0.2951 -0.2295  0.1177
33259W        W76176  27.581  13.230   0.093  0.1580 -0.0574 -0.2923
33260W        W76177  30.489  13.073   0.514  0.0693 -0.0435  0.1625
33261W        W76178  28.034  13.168   0.712 -0.0126  0.2444 -0.0648
33262W        W76179  28.013  12.835   1.962  0.1430 -0.2924  0.0292
33263W        W76180  27.516  11.734  31.836 -0.1347  0.2734  0.0567
33264W        W76181  26.985  12.473   2.171  0.2681  0.0269  0.2767
33265W        W76182  27.024  13.516   1.765  0.0639 -0.0851  0.3663
33266W        W76183  27.213  14.586   0.872 -0.1798  0.1648 -0.2392
33267W        W76184  26.937  12.401   2.931 -0.0357  0.0131  0.0666
33268W        W76185  26.266  14.864   4.409  0.1570 -0.2051  0.1390
33269W        W76186  28.127  13.700   2.508  0.2059 -0.0413  0.0284
33270W        W76187  27.562  13.671   2.487  0.0221 -0.0013 -0.2485
33271W        W76188  27.037  11.500   4.700 -0.1128  0.0225  0.0376
33272W        W76189  29.262  15.210   1.005 -0.1760 -0.0291  0.0133
33273W        W76190  27.441  13.175   1.710  0.4069  0.2616  0.1346
33274W        W76191  29.561  14.073   2.494  0.2537  0.0934 -0.3922
33275W        W76192  28.321  13.882   2.081 -0.0060 -0.1537 -0.3670
33276W        W76193  27.629  13.178  30.369  0.1955  0.0683 -0.0178
33277W        W76194  24.254  12.905   1.404  0.0753 -0.1806  0.3111
33278W        W76195  27.695  14.824   3.629  0.1184 -0.0115 -0.0092
33279W        W76196  26.925  11.403   0.468  0.1671  0.0573 -0.0738
33280W        W76197  27.439  11.963   5.095  0.1053  0.1725  0.1364
33281W        W76198  25.848  14.220   1.044 -0.1060 -0.2767  0.1670
33282W        W76199  26.353  15.547   0.801  0.2685  0.1353 -0.0071
33283W        W76200  27.650  13.883  31.404 -0.1095  0.3310 -0.0180
33284W        W76201  26.333  11.183   1.583  0.1490 -0.2524  0.1618
33285W        W76202  26.378  14.950   3.764  0.1693  0.1585  0.2057
33286W        W76203  25.226  12.401  31.898  0.3529  0.1664  0.1092
33287W        W76204  26.092  12.406  31.937  0.0850  0.0871 -0.1694
33288W        W76205  28.679  13.443   0.861  0.0038 -0.1211  0.1425
33289W        W76206  28.010  14.521   3.428 -0.0664 -0.3940  0.1662
33290W        W76207  25.885  11.357   1.196 -0.1740 -0.2214 -0.1567
33291W        W76208  28.810  13.659   1.912 -0.1440 -0.0071  0.2434
33292W        W76209  23.935  14.964  30.979  0.2792 -0.2266  0.2405
33293W        W76210  29.422  12.041   3.972 -0.0125 -0.0830 -0.1861
33294W        W76211  24.616  14.838   0.686 -0.2229 -0.0975 -0.0792
33295W        W76212  25.240  14.376   3.001  0.0209 -0.0822 -0.2410
33296W        W76213  27.295  13.610  31.864  0.0554 -0.0181 -0.1664
33297W        W76214  25.778  12.740   5.523 -0.1871  0.2525 -0.2582
33298W        W76215  28.985  13.930   0.702 -0.1546  0.1053 -0.3023
33299W        W76216  25.908  14.477   1.462  0.0498 -0.2800  0.1931
33300W        W76217  28.487  13.155   3.638 -0.0624 -0.2673  0.0966
33301W        W76218  27.492  15.100   2.934 -0.1922  0.0852 -0.0216
33302W        W76219  26.890  12.662   3.853 -0.0693  0.0247  0.0925
33303W        W76220  27.917  13.525   4.325  0.0695  0.0633 -0.0498
33304W        W76221  27.803  12.622  29.745 -0.0720 -0.2663  0.1587
33305W        W76222  27.880  15.910   1.940  0.3345  0.0804  0.1892
33306W        W76223  24.794  14.212   3.634 -0.2636 -0.1730  0.1058
33307W        W76224  29.737  15.779   3.944  0.1400  0.0770 -0.0065
33308W        W76225  26.224  14.058   0.498  0.0938 -0.3169 -0.1863
33309W        W76226  27.610  12.043  31.267 -0.0753  0.0123  0.0170
33310W        W76227  28.493  13.796   0.434 -0.1445  0.1065  0.0872
33311W        W76228  25.620  14.576   3.321  0.0915  0.2944  0.0908
33312W        W76229  25.346  12.357   2.350  0.1586  0.0588  0.0840
33313W        W76230  27.732  15.877   0.673  0.1578  0.0820  0.1782
33314W        W76231  27.896  13.029  31.169  0.0025 -0.2100 -0.3093
33315W        W76232  28.308  12.770  31.415  0.0376  0.0572 -0.1230
33316W        W76233  26.803  14.639   2.712  0.0325 -0.0317  0.0626
33317W        W76234  26.471  13.630   0.973  0.1197 -0.1349  0.4372
33318W        W76235  24.481  14.186   2.322  0.2081 -0.0796  0.3499
33319W        W76236  25.269  15.221   0.205 -0.2087  0.1161 -0.0104
33320W        W76237  27.387  14.314  31.277  0.0342  0.4257 -0.2955
33321W        W76238  26.036  14.848   0.481 -0.1505  0.0783  0.4728
33322W        W76239  26.931  13.154   4.687 -0.0157  0.0338 -0.5099
33323W        W76240  29.926   9.947   0.298  0.0985  0.5159 -0.6003
33324W        W76241  29.403  13.736   0.567  0.1027 -0.0678  0.2523
33325W        W76242  29.942  12.294  30.199  0.3739  0.2416 -0.1589
33326W        W76243  25.586  13.754   3.790  0.0207  0.2317 -0.0227
33327W        W76244  26.453  12.548   2.804  0.1947 -0.3081  0.3467
33328W        W76245  24.978   9.381  31.596  0.0814 -0.0753 -0.1075
33329W        W76246  25.647  12.781   2.318  0.2504 -0.0416  0.0794
33330W        W76247  31.160  11.522   4.832 -0.3202 -0.0717  0.0395
33331W        W76248  23.265  14.814   3.636 -0.0828  0.1931 -0.1615
33332W        W76249  27.304  14.669  30.871  0.0675  0.2223 -0.0143
33333W        W76250  24.645  12.733   1.818  0.1177 -0.1013  0.1145
33334W        W76251  25.530  12.007   0.012  0.0761 -0.0987  0.0425
33335W        W76252  27.684  13.089   2.190  0.1129  0.5660  0.0908
33336W        W76253  26.708  14.212   0.205 -0.1523 -0.0934 -0.2106
33337W        W76254  26.835  13.241   3.175 -0.0606  0.0464 -0.2231
33338W        W76255  25.690  14.362   2.577  0.2635  0.2383 -0.3670
33339W        W76256  26.949  14.460   1.282  0.4394 -0.3096  0.0216
33340W        W76257  29.067  16.123   0.453  0.0564 -0.4414  0.1023
33341W        W76258  22.479  10.530   2.119 -0.0598 -0.1140 -0.0922
33342W        W76259  29.422  12.736   0.888 -0.2402 -0.1214 -0.0189
33343W        W76260  25.710  13.338   2.366  0.0888 -0.3177 -0.0463
33344W        W76261  28.691  13.503   2.724 -0.0667 -0.1968 -0.0770
33345W        W76262  27.172  11.951   1.804 -0.1500 -0.0838  0.2092
33346W        W76263  28.011  14.756   0.175  0.2504  0.0808  0.0805
33347W        W76264  26.046  13.844   2.975  0.1651 -0.2130  0.0456
33348W        W76265  25.643  12.867   3.979  0.1772 -0.1729  0.2044
33349W        W76266  27.530  12.734   0.155  0.0741 -0.1836 -0.1935
33350W        W76267  29.953  14.671   3.142  0.0116  0.0733  0.3219
33351W        W76268  26.947  12.985   1.979  0.0774 -0.4559  0.1609
33352W        W76269  27.074  13.747   3.207  0.0914 -0.2011  0.0642
33353W        W76270  28.717  12.100   0.523  0.1413  0.0612  0.1433
33354W        W76271  28.815  12.698  31.117 -0.1310  0.3038  0.0664
33355W        W76272  25.370  14.599   1.013 -0.1537 -0.1405 -0.1318
33356W        W76273  27.610  12.240   1.647 -0.0166  0.2372 -0.0978
33357W        W76274  27.680  16.521   4.149 -0.1591  0.1278  0.3723
33358W        W76275  23.509  12.204   2.410  0.0620 -0.1416 -0.0396
33359W        W76276  29.346  12.769  30.982  0.0212 -0.3407 -0.2413
33360W        W76277  28.327  13.059   1.689  0.1104 -0.5170 -0.1906
33361W        W76278  28.411  15.664   0.844 -0.0430 -0.2737 -0.0123
33362W        W76279  27.003  14.214  30.912 -0.3193 -0.1418 -0.1646
33363W        W76280  28.502  16.142   1.998  0.2163 -0.3706 -0.1918
33364W        W76281  24.722  13.275   2.260  0.0932  0.1542  0.0123
33365W        W76282  26.970  15.045   2.886 -0.2701 -0.1293  0.0145
33366W        W76283  26.867  15.121   1.978  0.1545  0.3513  0.0938
33367W        W76284  25.586  11.631   1.903  0.3216 -0.1061 -0.0320
33368W        W76285  27.609  12.908   0.646 -0.2506  0.2051  0.0128
33369W        W76286  26.549  15.624   1.314 -0.0276  0.2384  0.4520
33370W        W76287  29.309  13.799   2.149 -0.1128  0.1083  0.0252
33371W        W76288  27.790  14.521   2.345  0.1617  0.0574  0.0211
33372W        W76289  30.204  13.976  30.253  0.1823 -0.0686  0.0411
33373W        W76290  28.832  13.333   3.907 -0.1227  0.0955  0.2563
33374W        W76291  26.355  15.144   3.305  0.0336 -0.2113 -0.0244
33375W        W76292  27.509  16.404   2.986 -0.0379 -0.2516  0.1900
33376W        W76293  23.727  12.356  31.227  0.1960  0.3144 -0.0579
33377W        W76294  25.600  12.317   2.767 -0.1302  0.1169 -0.1834
33378W        W76295  25.956  12.679   2.895 -0.1518 -0.1621  0.2657
33379W        W76296  25.085  13.093   0.641  0.2706 -0.0792 -0.0640
33380W        W76297  28.409  15.496   2.870 -0.3110 -0.0313 -0.1574
33381W        W76298  26.857  13.032  31.954  0.1123 -0.0249 -0.2391
33382W        W76299  27.386  15.149  31.077  0.1639 -0.0395 -0.2240
33383W        W76300  25.843  12.176   2.133  0.7199  0.0599 -0.1232
33384W        W76301  27.543  12.631   2.014 -0.4871  0.1915  0.1260
33385W        W76302  28.508  11.211   1.438  0.4510  0.0425  0.0650
33386W        W76303  27.401  14.203   2.420 -0.3389 -0.0190 -0.1098
33387W        W76304  25.620  12.294   0.765 -0.0051  0.0490 -0.2936
33388W        W76305  27.662  14.299   0.232 -0.1695  0.0061  0.1067
33389W        W76306  26.527  14.141   1.142 -0.4349 -0.1824  0.0923
33390W        W76307  26.176  10.960   3.041 -0.0376  0.0141  0.0120
33391W        W76308  24.825  11.033   4.049 -0.0473  0.1999 -0.0927
33392W        W76309  26.239  12.356   1.333  0.0630  0.0296 -0.0321
33393W        W76310  25.151  10.177  31.578  0.1616  0.0583  0.0821
33394W        W76311  29.407  13.936  30.819  0.0885 -0.1225  0.0787
33395W        W76312  26.768  11.454   4.256 -0.1511 -0.0446 -0.3772
33396W        W76313  25.031  12.226   1.185 -0.1539  0.4482  0.1478
33397W        W76314  29.832  13.952  31.880  0.0490  0.0049 -0.1808
33398W        W76315  27.695  13.733   0.237 -0.2227  0.3249 -0.0667
33399W        W76316  28.061  10.473   1.227 -0.2697  0.2764  0.0784
33400W        W76317  27.173  13.878   0.278 -0.3853  0.0120 -0.0646
33401W        W76318  26.053  15.186   1.465  0.1944  0.2173 -0.2176
33402W        W76319  27.794  14.119   3.321 -0.3572  0.0556 -0.0407
33403W        W76320  27.207  11.792   4.134  0.1369 -0.1389  0.5229
33404W        W76321  24.973  12.326   1.955  0.2182 -0.0730  0.0836
33405W        W76322  27.326  12.637   2.495 -0.1840  0.0254  0.1596
33406W        W76323  26.874  15.254   1.291  0.3899  0.0550 -0.0476
33407W        W76324  27.452  17.612   0.112 -0.0525  0.0583 -0.0396
33408W        W76325  25.420  13.082   3.213 -0.1819 -0.2226  0.2241
33409W        W76326  27.827  14.599   4.456 -0.2399 -0.1150 -0.2680
33410W        W76327  24.324  10.974   2.260 -0.2949  0.0511 -0.1594
33411W        W76328  29.300  14.333   0.775 -0.1731  0.0418  0.3817
33412W        W76329  26.812  15.353   3.301 -0.2723 -0.2984  0.0255
33413W        W76330  30.190  14.343  30.656 -0.0090  0.1016  0.0885
33414W        W76331  27.474  12.370   2.912  0.4536  0.0233  0.2643
33415W        W76332  27.806  13.462   1.468  0.0070  0.0839 -0.0292
33416W        W76333  26.403  12.348   2.006 -0.2018  0.2392 -0.3391
33417W        W76334  23.398  13.462   4.002  0.1986  0.2796 -0.1762
33418W        W76335  28.132  14.230  30.638 -0.3517  0.2358 -0.2305
33419W        W76336  28.201  11.635   1.159  0.2543 -0.2290 -0.4633
33420W        W76337  28.969  12.671   1.220 -0.4002 -0.2454  0.1699
33421W        W76338  27.080  13.878  31.367 -0.2780  0.2096  0.4107
33422W        W76339  27.681  13.761   2.955  0.3265 -0.1315 -0.2074
33423W        W76340  28.443  13.050  31.961  0.1052 -0.0979 -0.0986
33424W        W76341  26.436  11.832   3.990  0.2269  0.1864  0.3199
33425W        W76342  28.609  16.894  31.918  0.0527 -0.2455  0.0951
33426W        W76343  27.254  13.317   2.177  0.0136 -0.1653 -0.1040
33427W        W76344  24.977  12.467   0.762 -0.2495 -0.1426 -0.1697
33428W        W76345  28.725  14.331   0.822  0.4791  0.1103  0.0962
33429W        W76346  25.732  13.602   3.249  0.2317  0.0936 -0.3533
33430W        W76347  27.354  13.535   4.201 -0.2653 -0.1675  0.0484
33431W        W76348  26.994  14.567   3.222 -0.0042  0.0313  0.1014
33432W        W76349  27.882  13.558   1.994 -0.1492 -0.2330 -0.5362
33433W        W76350  24.584  11.482   1.449 -0.0164  0.1054  0.0803
33434W        W76351  26.424  13.780   2.374 -0.0221  0.1887  0.2012
33435W        W76352  27.122  12.840   0.440  0.2185 -0.0423  0.1532
33436W        W76353  25.253  13.584   3.378 -0.3333 -0.1175  0.1741
33437W        W76354  28.713  11.992   1.968 -0.0389  0.0491 -0.0477
33438W        W76355  27.999  12.527   0.399  0.2080  0.0242  0.1727
33439W        W76356  27.167  15.232   2.474  0.1935  0.1441 -0.3020
33440W        W76357  27.890  15.481   1.499 -0.2177  0.1836  0.0553
33441W        W76358  27.226  13.569   6.228 -0.1020 -0.0407 -0.2760
33442W        W76359  26.654  12.758   5.049 -0.4049 -0.1447  0.1269
33443W        W76360  28.950  13.819   4.200  0.0095  0.0306  0.2081
33444W        W76361  29.079  15.716   4.311 -0.0704  0.1366  0.2489
33445W        W76362  25.389  12.093   3.670 -0.1882  0.1375  0.0201
33446W        W76363  27.317  15.000   3.990 -0.2695  0.0084  0.2056
33447W        W76364  26.516  10.017   6.043 -0.3041 -0.1437  0.1165
33448W        W76365  28.738  13.941   6.967  0.0940  0.3252 -0.0702
33449W        W76366  27.606  13.742   5.361  0.2424 -0.1897 -0.0699
33450W        W76367  26.576  13.655   3.011 -0.1494  0.1106 -0.0354
33451W        W76368  25.343  11.079   7.165  0.4761  0.0397 -0.1993
33452W        W76369  25.876  13.406   6.077  0.1110 -0.1421  0.0909
33453W        W76370  28.344  11.345   2.943  0.0945 -0.1131  0.0608
33454W        W76371  24.735  10.188   6.107  0.1403 -0.0803 -0.1408
33455W        W76372  28.789  12.166   4.953 -0.0443 -0.0653 -0.2276
33456W        W76373  25.918  13.340   4.721 -0.4336 -0.1281  0.1281
33457W        W76374  25.220  12.127   5.353  0.2926 -0.1340 -0.1946
33458W        W76375  26.737  12.707   3.343  0.4441  0.2659  0.1607
33459W        W76376  26.092  13.109   3.836  0.0011 -0.1041 -0.2334
33460W        W76377  26.099  12.514   5.046 -0.2185  0.3436  0.0307
33461W        W76378  28.101  11.407   5.508  0.0450  0.1543  0.1585
33462W        W76379  25.600  16.301   2.499 -0.1334 -0.0123 -0.0250
33463W        W76380  26.184  11.611   2.816  0.2578  0.1190 -0.0398
33464W        W76381  23.728  11.902   5.596  0.1318 -0.1310 -0.4187
33465W        W76382  26.727  12.082   7.220 -0.1741 -0.1444  0.0292
33466W        W76383  28.033  10.911   5.592  0.1243  0.0291 -0.0518
33467W        W76384  28.901  13.146   4.859  0.1592 -0.1794 -0.0859
33468W        W76385  28.517  15.796   5.733  0.4971  0.2312  0.4414
33469W        W76386  27.089  14.281   4.544  0.2618  0.2171  0.0348
33470W        W76387  28.956  12.848   6.242 -0.0162 -0.2410  0.1624
33471W        W76388  25.566  14.867   4.280  0.2625 -0.2694  0.0914
33472W        W76389  24.341  13.682   3.617 -0.1836 -0.0057 -0.1560
33473W        W76390  26.169  14.379   4.492 -0.0541  0.1283 -0.0666
33474W        W76391  28.828  13.344   4.380 -0.1097 -0.1131 -0.2337
33475W        W76392  26.911  11.436   6.103  0.5376  0.1645 -0.2167
33476W        W76393  27.563  12.558   6.355  0.0162 -0.2783 -0.1248
33477W        W76394  24.614  12.843   3.706 -0.1221 -0.1171 -0.0370
33478W        W76395  26.739  14.858   6.696  0.2885  0.1151 -0.1407
33479W        W76396  27.071  14.047   8.780 -0.1586 -0.0053  0.7034
33480W        W76397  25.893  12.351   5.790  0.3455 -0.4428  0.5030
33481W        W76398  29.719  12.818   4.810  0.1082 -0.0723 -0.0369
33482W        W76399  25.098  15.032   3.726 -0.0179  0.2446 -0.0348
33483W        W76400  27.178  12.280   6.174  0.1257 -0.1895 -0.0556
33484W        W76401  26.309  13.386   5.864 -0.0479  0.1698  0.3793
33485W        W76402  26.683  14.089   4.901  0.0776  0.0200  0.1193
33486W        W76403  31.289  14.155   5.187  0.2779  0.0733  0.2506
33487W        W76404  26.662  16.114   3.277 -0.0055 -0.2112 -0.1892
33488W        W76405  30.449  11.420   2.637  0.0785 -0.1725  0.0183
33489W        W76406  26.266   9.665   5.768 -0.0650  0.0692 -0.0011
33490W        W76407  28.494  12.468   4.376 -0.2407 -0.0561  0.1427
33491W        W76408  28.223  13.169   5.486  0.0158  0.0187  0.0207
33492W        W76409  24.963  14.402   4.518  0.1276  0.3257 -0.1450
33493W        W76410  24.878  10.876   5.917  0.1490  0.0675  0.0264
33494W        W76411  28.365  14.263   7.300 -0.1861  0.1544 -0.3007
33495W        W76412  28.050  13.554   5.182 -0.2516  0.0206 -0.0241
33496W        W76413  29.410  11.113   4.981  0.3592  0.0641 -0.0580
33497W        W76414  23.921  12.843   7.508 -0.1508  0.1424  0.2158
33498W        W76415  25.184  12.622   2.797 -0.1489 -0.0492  0.0642
33499W        W76416  30.135  15.310   3.727 -0.2027  0.1405 -0.1877
33500W        W76417  28.299  14.299   4.931  0.2378 -0.0623  0.0652
33501W        W76418  27.149  13.903   2.711 -0.1025  0.0360  0.0975
33502W        W76419  25.873  11.919   4.017 -0.3131 -0.1138  0.0037
33503W        W76420  27.373  12.718   7.347  0.1099  0.2275  0.2480
33504W        W76421  24.767  12.474   5.146 -0.1401  0.1809  0.0563
33505W        W76422  27.667  10.685   4.930 -0.0627  0.0826 -0.2187
33506W        W76423  28.883  11.523   7.070 -0.0515  0.4676 -0.2623
33507W        W76424  26.295  13.636   6.369  0.0766 -0.0409 -0.1851
33508W        W76425  27.603  10.746   5.448 -0.1128 -0.0329  0.1765
33509W        W76426  25.377  12.464   5.721  0.0919 -0.2139  0.1994
33510W        W76427  28.524  15.236   4.793 -0.0626  0.0869 -0.3255
33511W        W76428  28.754  14.164   3.568  0.0558 -0.0075 -0.1547
33512W        W76429  27.489   9.961   4.256  0.0309  0.2843 -0.3822
33513W        W76430  28.872  11.690   4.756  0.2013  0.0185 -0.2815
33514W        W76431  25.360  14.838   2.781 -0.1423  0.0453  0.0720
33515W        W76432  24.916  13.082   4.264  0.1267  0.2593 -0.2113
33516W        W76433  29.536  12.743   7.109 -0.0690  0.0787 -0.0782
33517W        W76434  29.070  14.574   4.163  0.1500 -0.1113 -0.2331
33518W        W76435  26.504  14.542   4.104  0.0455 -0.3040 -0.1584
33519W        W76436  28.791  10.309   7.099  0.1417 -0.3353 -0.1678
33520W        W76437  26.907  12.219   6.653  0.0807  0.0365 -0.0339
33521W        W76438  25.655  13.305   3.637  0.2918 -0.0495 -0.1168
33522W        W76439  27.775  13.002   5.825 -0.4357 -0.0364  0.1690
33523W        W76440  25.710  11.375   4.550  0.2126  0.0171 -0.1924
33524W        W76441  25.774  11.060   6.475 -0.0956  0.0019  0.0819
33525W        W76442  26.648  11.716   5.776 -0.2967  0.1782  0.2158
33526W        W76443  29.328  10.182   2.082  0.0870  0.1885 -0.3694
33527W        W76444  25.135  10.023   6.437  0.0492 -0.1069 -0.0048
33528W        W76445  28.480  11.890   4.521 -0.1906  0.3728  0.1975
33529W        W76446  26.489  13.019   4.152  0.1879  0.0949 -0.0322
33530W        W76447  28.162  15.064   3.647 -0.1412 -0.0581 -0.2112
33531W        W76448  29.689  11.450   5.215 -0.2126  0.1991 -0.0120
33532W        W76449  28.774  14.937   2.274  0.0625 -0.0102  0.1591
33533W        W76450  26.523  11.638   5.255  0.0440 -0.2359  0.2846
33534W        W76451  27.102  11.161   2.892 -0.0208  0.1332  0.0351
33535W        W76452  25.488  10.941   6.084 -0.2021  0.0016 -0.0099
33536W        W76453  25.193  10.547   6.199 -0.1370 -0.0742  0.1514
33537W        W76454  28.755  11.853   7.508 -0.2195  0.2841 -0.1876
33538W        W76455  26.534   9.307   3.416  0.3078  0.0174  0.0715
33539W        W76456  27.830  12.837   4.771 -0.0004 -0.0314 -0.1508
33540W        W76457  27.001  14.529   4.109  0.0187  0.0768  0.2658
33541W        W76458  26.885  12.819   4.372  0.1554  0.1605 -0.1521
33542W        W76459  27.822  11.651   6.421 -0.2455  0.0518  0.0034
33543W        W76460  27.017  13.116   6.163  0.2779  0.0562  0.2645
33544W        W76461  29.578  14.532   6.851 -0.1070  0.0489 -0.1079
33545W        W76462  27.780  14.050   4.406 -0.3651  0.0228  0.1753
33546W        W76463  26.426  11.020   5.488 -0.1631 -0.2530  0.1859
33547W        W76464  27.850  11.965   3.608 -0.0708  0.2176  0.3140
33548W        W76465  24.750  14.893   4.574  0.1152  0.3524 -0.3643
33549W        W76466  26.281  13.074   6.674  0.6262 -0.3189  0.0489
33550W        W76467  25.386  10.797   5.252 -0.2313  0.1852 -0.2099
33551W        W76468  29.679  15.334   4.163  0.0302 -0.0632  0.0876
33552W        W76469  27.495  14.470   4.148  0.3508 -0.1494 -0.0546
33553W        W76470  26.667  15.092   7.227 -0.0377 -0.0498 -0.2123
33554W        W76471  28.942  11.189   5.336  0.0649 -0.1721  0.2400
33555W        W76472  29.372  14.816   5.159  0.1400  0.0157  0.1411
33556W        W76473  28.258  14.742   4.601  0.0666 -0.2298  0.1218
33557W        W76474  25.794  10.794   4.906 -0.0686  0.0226 -0.2313
33558W        W76475  26.675  15.631   3.737 -0.0915  0.0366  0.0192
33559W        W76476  25.069  13.830   2.937  0.2494 -0.0441  0.0752
33560W        W76477  25.714  13.702   5.063  0.3085  0.2561 -0.1096
33561W        W76478  27.634  13.753   4.819 -0.4288 -0.0579 -0.0159
33562W        W76479  29.812  12.267   4.198  0.3012 -0.1385 -0.1772
33563W        W76480  25.581  12.571   7.079  0.0360 -0.4069 -0.1765
33564W        W76481  27.253  12.250   5.609 -0.1073 -0.0363  0.0099
33565W        W76482  26.102  11.036   4.596 -0.5990  0.0360 -0.0994
33566W        W76483  25.715  13.058   7.693 -0.1655 -0.2799 -0.1722
33567W        W76484  28.577   9.958   3.144 -0.0855  0.1218 -0.2568
33568W        W76485  28.191  13.720   3.054 -0.0526 -0.1317  0.3289
33569W        W76486  28.933  12.278   6.597 -0.2599  0.1119  0.1163
33570W        W76487  28.541  13.756   3.888  0.2954  0.0230 -0.0153
33571W        W76488  28.181  12.950   3.333  0.1016 -0.2559 -0.0668
33572W        W76489  27.446  12.649   3.906 -0.0498 -0.1351  0.1997
33573W        W76490  25.236  13.343   7.052  0.0131 -0.0732 -0.2156
33574W        W76491  28.642  14.413   4.568 -0.2014 -0.2882 -0.0660
33575W        W76492  26.650  12.812   5.844 -0.0929  0.0543  0.0371
33576W        W76493  28.692  12.157   4.022  0.3807 -0.1370 -0.0078
33577W        W76494  28.182  16.471   3.088 -0.1573  0.2202 -0.0126
33578W        W76495  26.923  12.563   9.036 -0.0084 -0.3056  0.0867
33579W        W76496  26.731  12.933   7.761  0.0747 -0.0187  0.2014
33580W        W76497  28.111  15.261   5.742 -0.2912 -0.2247  0.0987
33581W        W76498  26.747  10.598   4.769 -0.1324  0.2109 -0.2351
33582W        W76499  26.939  11.463   3.805 -0.1406  0.1137 -0.2291
33583W        W76500  27.657  11.733   4.304  0.0471 -0.0091 -0.2011
33584W        W76501  25.250  14.093   3.403  0.0248 -0.0256 -0.1528
33585W        W76502  28.945  11.735   5.285 -0.0092 -0.1186  0.2318
33586W        W76503  26.238  11.251   5.021  0.0764  0.0783 -0.0530
33587W        W76504  26.755   9.735   7.074  0.0134 -0.0229 -0.0707
33588W        W76505  29.073  13.215   5.305 -0.2284 -0.1851  0.0805
33589W        W76506  26.283  14.012   3.404 -0.0247  0.1030  0.1906
33590W        W76507  27.815  11.477   5.956 -0.1443 -0.0171 -0.1581
33591W        W76508  24.996  13.807   3.789 -0.0859  0.1590 -0.1882
33592W        W76509  28.516  12.280   5.361 -0.1529  0.3758  0.0244
33593W        W76510  24.934  12.706   5.538 -0.0232  0.1914  0.1403
33594W        W76511  25.426  13.360   5.842 -0.3501  0.3828 -0.1890
33595W        W76512  29.080  14.374   6.183 -0.1289 -0.1457  0.2408
33596W        W76513  28.375  12.729   6.569 -0.1380 -0.1194 -0.2721
33597W        W76514  27.083  11.491   7.977  0.0011 -0.0949 -0.1362
33598W        W76515  26.687  11.132   4.687 -0.0774 -0.2110  0.0015
33599W        W76516  27.356  12.920   5.558  0.0219 -0.0975 -0.0005
33600W        W76517  25.553  12.376   4.145 -0.0973 -0.0951 -0.1184
33601W        W76518  25.461   9.544   5.268  0.1842  0.1195  0.1853
33602W        W76519  26.751  15.882   6.003  0.1000 -0.2485 -0.2193
33603W        W76520  27.067  15.776   3.391 -0.0546  0.1894  0.0229
33604W        W76521  29.045  13.398   6.092  0.2543 -0.0268 -0.2210
33605W        W76522  25.933  12.997   5.175 -0.0847 -0.0213  0.0678
33606W        W76523  30.623  11.828   4.758  0.2566  0.2287  0.1362
33607W        W76524  24.640  15.704   4.485  0.3492  0.0856 -0.3151
33608W        W76525  26.218  12.576   3.297  0.1546 -0.0718 -0.0859
33609W        W76526  24.218  12.272   4.087 -0.0533  0.0437  0.1459
33610W        W76527  29.459  10.618   3.611  0.3269 -0.1039 -0.1233
33611W        W76528  28.603  14.019   2.813 -0.2267 -0.3125 -0.1144
33612W        W76529  24.245  10.502   5.289  0.2789 -0.2047  0.0244
33613W        W76530  28.683  11.920   5.688 -0.0221 -0.2700 -0.1323
33614W        W76531  24.624  14.630   4.110  0.1559  0.1401 -0.3429
33615W        W76532  28.587  10.827   7.161 -0.2848 -0.2820  0.1460
33616W        W76533  28.684  11.550   6.048  0.1152  0.0545 -0.3795
33617W        W76534  27.605  13.456   6.655  0.0641  0.0335 -0.1114
33618W        W76535  27.282  13.500   7.142  0.2526 -0.3702  0.3409
33619W        W76536  26.370  12.621   4.607 -0.0364 -0.2184  0.3208
33620W        W76537  31.029  13.751   7.391 -0.4363 -0.2613 -0.2973
33621W        W76538  26.702  13.677   3.610 -0.2834 -0.2616  0.2663
33622W        W76539  23.966  14.354   4.700  0.1281 -0.1117  0.1158
33623W        W76540  26.318  15.369   5.832  0.1813  0.2964  0.1512
33624W        W76541  27.568  12.389   4.774 -0.0310  0.1360  0.3764
33625W        W76542  26.591  15.786   4.618  0.0416  0.0808  0.0106
33626W        W76543  24.079  10.607   7.380  0.0173  0.4727  0.4206
33627W        W76544  28.196  12.713   5.660 -0.1027 -0.0404  0.2757
33628W        W76545  24.743  12.039   5.416  0.0600  0.2246 -0.2854
33629W        W76546  26.233   9.363   4.796 -0.0111  0.1371 -0.1640
33630W        W76547  24.869  11.664   5.115 -0.3611  0.2580 -0.1405
33631W        W76548  27.273  12.280   7.014 -0.1546 -0.0697  0.2881
33632W        W76549  29.474  12.604   4.368  0.1043 -0.0032 -0.1407
33633W        W76550  27.510  14.017   6.480  0.0326  0.0776  0.0455
33634W        W76551  27.410  13.216   4.542  0.1043 -0.0468  0.2787
33635W        W76552  29.405  16.148   4.126  0.0226 -0.3380 -0.3017
33636W        W76553  29.304  13.831   6.890 -0.0459  0.0144  0.1276
33637W        W76554  25.169  12.067   2.805 -0.0629 -0.1209 -0.2911
33638W        W76555  27.217  14.019   5.102  0.1370  0.1191 -0.4114
33639W        W76556  24.741  12.340   4.030 -0.0526 -0.1036  0.1171
33640W        W76557  28.332  11.067   4.173 -0.5364 -0.3560  0.0682
33641W        W76558  26.431  14.502   6.634 -0.2075  0.0239 -0.1948
33642W        W76559  26.139  14.078   3.872 -0.0175  0.1054 -0.0121
33643W        W76560  26.319  15.958   5.013 -0.0064  0.1193 -0.0198
33644W        W76561  27.506  11.521   3.867 -0.0754 -0.2383  0.1081
33645W        W76562  25.126  14.199   2.570 -0.3837  0.3206 -0.2290
33646W        W76563  25.190  11.665   5.519 -0.1232  0.1294 -0.1872
33647W        W76564  27.571  12.272   4.273 -0.0504 -0.1572  0.1379
33648W        W76565  28.643  12.894   5.398  0.0953 -0.0417  0.1155
33649W        W76566  27.932  11.674   5.121 -0.1354  0.0210  0.1200
33650W        W76567  26.498   9.760   8.273  0.2158 -0.1097  0.1066
33651W        W76568  29.394  13.147   4.464 -0.0255  0.0394 -0.2789
33652W        W76569  26.074  11.766   6.882  0.2773 -0.0998 -0.0211
33653W        W76570  29.628  13.538   6.152  0.3921 -0.1525  0.2802
33654W        W76571  26.191  11.900   5.985 -0.0801 -0.1435  0.1679
33655W        W76572  28.401  11.839   5.067 -0.0034  0.1993  0.2002
33656W        W76573  28.328  12.282   4.827  0.2219  0.1305 -0.0674
33657W        W76574  27.071  13.785   6.774  0.2092 -0.0816 -0.0467
33658W        W76575  27.961  12.083   6.931 -0.0430 -0.1644 -0.0013
33659W        W76576  27.096  12.368   4.210  0.2539 -0.1295  0.3519
33660W        W76577  28.383  11.192   5.103 -0.0092 -0.0376  0.2332
33661W        W76578  26.286  12.542   5.559 -0.0519  0.1081 -0.0518
33662W        W76579  29.250  12.418   6.255 -0.1223  0.0199  0.0859
33663W        W76580  27.188  13.022   4.030  0.2121 -0.0450 -0.2292
33664W        W76581  28.556  13.335   5.775 -0.0665 -0.0146 -0.0560
33665W        W76582  27.354  11.459   5.785 -0.1312 -0.4315  0.0019
33666W        W76583  27.867  11.934   4.737 -0.2383 -0.0494  0.2247
33667W        W76584  27.186  11.485   5.215 -0.3387 -0.1604 -0.0395
33668W        W76585  27.360  10.453   7.041 -0.2536  0.1132 -0.0457
33669W        W76586  28.643  12.638   4.923 -0.0516 -0.0253  0.1351
33670W        W76587  26.780  11.929   4.917 -0.2831  0.0851 -0.0459
33671W        W76588  25.364  10.418   8.248  0.0615 -0.0227 -0.1546
33672W        W76589  27.496  13.070   7.012 -0.1724 -0.0175 -0.2365
33673W        W76590  27.896  14.315   3.898  0.3063 -0.3106 -0.0280
33674W        W76591  29.787  11.736   4.806 -0.2530  0.0687  0.2772
33675W        W76592  29.115  14.076   4.678  0.1487  0.2201 -0.2879
33676W        W76593  28.399  14.460   3.845 -0.0554 -0.2428  0.0631
33677W        W76594  24.529  12.194   4.482 -0.0554 -0.2763 -0.0370
33678W        W76595  26.808  12.567   7.117 -0.0848 -0.0696 -0.1148
33679W        W76596  27.315  11.310   4.318 -0.0069  0.0251 -0.0720
33680W        W76597  27.865  12.436   8.642 -0.3376 -0.0528  0.2482
33681W        W76598  27.229  15.059   3.330 -0.2444 -0.0164 -0.1470
33682W        W76599  27.592  12.573   5.270  0.2258  0.2017 -0.0460
33683W        W76600  29.308  13.314   3.538 -0.2149 -0.3069 -0.2528
33684W        W76601  24.683  12.731   6.053  0.0998 -0.1208  0.5141
33685W        W76602  25.084  14.986   6.075 -0.0176 -0.5465  0.0058
33686W        W76603  24.921  11.482   3.952  0.1492  0.2446 -0.0161
33687W        W76604  25.428  15.421   2.889  0.4610  0.0531  0.0490
33688W        W76605  28.154  11.899   5.489 -0.1629  0.1227  0.1944
33689W        W76606  27.844  11.963   7.700 -0.1170 -0.0365  0.0836
33690W        W76607  26.434  10.256   4.987 -0.0155 -0.0272 -0.0761
33691W        W76608  28.927  11.134   5.860  0.1107 -0.1581  0.3355
33692W        W76609  25.369  15.783   3.771 -0.2870  0.3855  0.0150
33693W        W76610  28.601  10.751   5.986  0.1649 -0.1927  0.2478
33694W        W76611  25.386  13.262   4.493  0.2643 -0.1494 -0.1775
33695W        W76612  24.532  13.167   6.281 -0.0951 -0.0599  0.0072
33696W        W76613  26.819  12.646   6.285 -0.1794  0.2429 -0.1928
33697W        W76614  26.125   9.809   4.690  0.1696  0.2206 -0.0977
33698W        W76615  27.365  13.318   5.047  0.2462 -0.2239  0.3974
33699W        W76616  25.669  11.826   5.161 -0.1403 -0.1946  0.3862
33700W        W76617  29.848  11.550   6.420 -0.0373 -0.0402  0.1183
33701W        W76618  29.285  13.919   7.389 -0.4007  0.0228  0.2710
33702W        W76619  28.461  12.236   6.728  0.1298 -0.0831 -0.2008
33703W        W76620  28.745  12.881   7.743  0.1921  0.0458  0.1500
33704W        W76621  29.510  14.091   3.525  0.0017 -0.3752 -0.1237
33705W        W76622  26.423  13.027   5.428 -0.0853 -0.0759  0.1159
33706W        W76623  25.144  12.513   6.324 -0.0745 -0.1040  0.0155
33707W        W76624  26.434  11.029   7.367 -0.0927  0.0356 -0.0637
33708W        W76625  27.834  13.038   5.233  0.0809  0.1676 -0.3526
33709W        W76626  26.499   8.684   3.630 -0.1847  0.2024 -0.1042
33710W        W76627  26.957  14.609   6.260 -0.2438  0.0783  0.0917
33711W        W76628  25.461  11.818   6.536  0.1489  0.1336  0.0503
33712W        W76629  27.053  12.280   5.110 -0.4801 -0.1241 -0.1117
33713W        W76630  24.041  13.177   3.551  0.1030  0.2484 -0.1978
33714W        W76631  27.465  13.181   2.675  0.0412 -0.0297  0.1288
33715W        W76632  27.548  14.474   5.231  0.0833  0.0045 -0.0772
33716W        W76633  28.173  16.618   4.166  0.2120 -0.2852  0.1055
33717W        W76634  25.491  13.280   5.045 -0.2324 -0.1099  0.1775
33718W        W76635  25.999  14.572   4.054 -0.1074 -0.4989  0.1011
33719W        W76636  25.225  14.450   3.805  0.3290  0.2538 -0.1332
33720W        W76637  29.365  12.832   3.443 -0.0609  0.2090  0.2669
33721W        W76638  26.407  13.444   3.926 -0.2106 -0.2648 -0.1932
33722W        W76639  30.123  12.779   6.369  0.0015 -0.2124 -0.0146
33723W        W76640  28.484  11.657   4.044 -0.1660  0.1803 -0.0813
33724W        W76641  29.619  13.586   7.293  0.0187 -0.1820 -0.5200
33725W        W76642  29.161  11.244   4.414 -0.1153  0.0262 -0.1280
33726W        W76643  28.950  14.409   8.028  0.0996 -0.0785 -0.3623
33727W        W76644  26.516  13.648   5.398 -0.1548 -0.1049 -0.1741
33728W        W76645  28.341  13.358   4.111 -0.1119  0.1436  0.0942
33729W        W76646  25.553  14.070   5.346  0.1036 -0.2041  0.1430
33730W        W76647  27.464  11.546   7.677  0.3498  0.1338  0.5390
33731W        W76648  24.330  13.841   5.055 -0.0392  0.0031 -0.0438
33732W        W76649  30.002  15.430   5.830  0.0858 -0.2143 -0.0162
33733W        W76650  24.242  10.292   4.196 -0.1002 -0.5181 -0.1035
33734W        W76651  26.839  13.515   4.112 -0.0710  0.4445 -0.0261
33735W        W76652  31.013  11.930   5.108 -0.1236 -0.3568  0.2370
33736W        W76653  28.083  12.851   3.861 -0.1402  0.0492 -0.2325
33737W        W76654  28.669  10.755   4.445 -0.0722 -0.0522  0.1500
33738W        W76655  27.281  14.992   5.414 -0.1053  0.4054 -0.1630
33739W        W76656  25.442  14.454   5.834 -0.1651 -0.1206 -0.4608
33740W        W76657  25.582  14.780   6.160  0.2323 -0.1878 -0.0248
33741W        W76658  25.593  10.693   3.817 -0.1130 -0.0523 -0.0074
33742W        W76659  29.079  14.559   4.810  0.0087  0.0784 -0.0216
33743W        W76660  27.212  11.314   6.697  0.3113  0.0108  0.0794
33744W        W76661  29.535  10.429   5.495  0.1162 -0.0085 -0.4079
33745W        W76662  25.979  10.955   5.941  0.3938  0.0392  0.0309
33746W        W76663  28.559  11.505   5.500 -0.0875 -0.2987  0.1092
33747W        W76664  27.929  13.402   7.062  0.0237 -0.2364  0.0113
33748W        W76665  25.913  10.100   5.764 -0.0929 -0.1155  0.0697
33749W        W76666  27.201  13.998   3.674  0.2863 -0.0854 -0.0910
33750W        W76667  28.930  12.755   4.510 -0.0241  0.0733 -0.0597
33751W        W76668  26.786  14.136   3.396 -0.0879 -0.0014  0.0514
33752W        W76669  29.423  14.949   4.429  0.3288  0.0351 -0.0647
33753W        W76670  23.582  12.140   3.633 -0.0289  0.1238 -0.0432
33754W        W76671  27.348  13.808   2.013 -0.2927  0.1542  0.0442
33755W        W76672  25.120  12.734   3.990  0.2661 -0.0074 -0.3234
33756W        W76673  26.583  12.302   5.157 -0.2280  0.3558 -0.1237
33757W        W76674  28.132  13.191   6.117  0.0729  0.1331 -0.0486
33758W        W76675  27.682  11.044   4.626  0.1506 -0.1680  0.4940
33759W        W76676  28.482  14.467   3.265 -0.0981 -0.4213 -0.3515
33760W        W76677  28.185  12.591   5.182  0.1952 -0.1182  0.0357
33761W        W76678  25.881  15.445   3.084 -0.3197  0.0683  0.0210
33762W        W76679  26.898  13.179   5.159 -0.1357 -0.0791  0.0149
33763W        W76680  28.770  14.656   5.851 -0.0470 -0.1370  0.2405
33764W        W76681  24.939  13.567   4.409 -0.1274 -0.2005 -0.0690
33765W        W76682  27.210  14.842   6.586  0.0333  0.1575  0.3314
33766W        W76683  30.310  13.277   5.561  0.0338  0.0523  0.0414
33767W        W76684  25.727  13.459   4.185 -0.1281 -0.3352  0.3096
33768W        W76685  25.288  12.742   4.450 -0.0743  0.0968  0.1297
33769W        W76686  24.127  14.064   4.115 -0.2361 -0.0240 -0.1494
33770W        W76687  31.835  12.045   5.583  0.0726  0.0287  0.1929
33771W        W76688  28.202  11.712   5.913 -0.1077 -0.1405  0.1848
33772W        W76689  26.049  16.124   2.448 -0.1807 -0.0366  0.2809
33773W        W76690  27.794  10.434   6.857 -0.1500  0.0231  0.1898
33774W        W76691  27.755  15.655   5.729  0.0547 -0.0004 -0.0015
33775W        W76692  27.512  13.232   8.527  0.2152  0.0332 -0.0539
33776W        W76693  26.263  13.346   3.340 -0.0439  0.0583  0.0902
33777W        W76694  26.938  11.865   5.405 -0.0100  0.0834  0.0165
33778W        W76695  27.320  14.192   3.121 -0.1109  0.2231 -0.1985
33779W        W76696  27.852  12.870   4.295 -0.1587 -0.0841  0.0580
33780W        W76697  30.350  14.755   7.365  0.0691 -0.0705 -0.0029
33781W        W76698  27.688  12.478   5.799  0.0168 -0.1462  0.0387
33782W        W76699  28.578  14.792   4.227  0.0143  0.2977  0.1258
33783W        W76700  26.317  12.076   5.537  0.1762 -0.4650 -0.0838
33784W        W76701  28.595  11.653   3.485 -0.0456  0.2431  0.0725
33785W        W76702  27.954  10.148   4.319 -0.0220  0.2175  0.1910
33786W        W76703  27.770  13.506   6.188 -0.1008  0.3001  0.0392
33787W        W76704  24.762  12.381   3.107  0.0148  0.2244 -0.2447
33788W        W76705  28.091  12.005   4.254 -0.0572  0.1436  0.1086
33789W        W76706  26.125  13.469   5.205  0.1849  0.0921  0.2695
33790W        W76707  26.409  11.594   6.306 -0.2063 -0.1135 -0.2195
33791W        W76708  26.322  10.624   7.664  0.0998 -0.0869 -0.0006
33792W        W76709  25.586  12.259   4.828  0.0609 -0.1712 -0.0190
33793W        W76710  26.006   9.886   3.691  0.0394  0.1985 -0.0275
33794W        W76711  28.804  14.861   3.256 -0.2578 -0.2320 -0.2013
33795W        W76712  25.974   8.909   4.666  0.0342 -0.1876  0.2418
33796W        W76713  25.692  10.559   5.809 -0.0954 -0.0657 -0.2574
33797W        W76714  27.186  12.809   5.095  0.1918 -0.2076 -0.1649
33798W        W76715  27.478  15.483   4.796  0.0686 -0.0620 -0.1091
33799W        W76716  27.276   9.526   4.904  0.1819 -0.2873 -0.0510
33800W        W76717  28.663  14.162   8.382  0.1979  0.0212  0.0216
33801W        W76718  25.335  15.007   1.908  0.4551  0.0980 -0.0616
33802W        W76719  28.047  12.686   6.147 -0.1528 -0.0594 -0.3275
33803W        W76720  25.803  13.240   5.588 -0.0240  0.2452  0.2282
33804W        W76721  25.999  10.339   4.725  0.0523 -0.0069  0.0012
33805W        W76722  27.180  11.887   5.937  0.0736 -0.1520 -0.3745
33806W        W76723  27.518  14.327   4.775 -0.0026  0.0319  0.1772
33807W        W76724  30.001  15.895   2.919 -0.3106  0.0250 -0.2050
33808W        W76725  25.576  14.413   7.873  0.4191 -0.2077  0.0649
33809W        W76726  29.298  13.863   6.359 -0.0894 -0.1413 -0.0751
33810W        W76727  24.218   9.092   6.365 -0.1246  0.2300 -0.0919
33811W        W76728  28.833  15.419   3.685 -0.1979  0.1426  0.1761
33812W        W76729  29.231  14.277   6.664  0.2022 -0.1600 -0.1101
33813W        W76730  28.568  13.595   3.420  0.2229  0.0776 -0.2419
33814W        W76731  30.529  11.872   5.253  0.2014  0.1000 -0.2988
33815W        W76732  27.097  13.979   4.143 -0.2313  0.2278 -0.2364
33816W        W76733  26.141   9.670   8.671 -0.1506  0.1104  0.1063
33817W        W76734  27.479  13.036   6.228  0.0779  0.0180 -0.0541
33818W        W76735  28.615  14.683   5.037 -0.1811  0.1335 -0.1416
33819W        W76736  26.883  12.652   5.433  0.2020  0.0166 -0.4358
33820W        W76737  27.429  10.785   4.175  0.2291  0.0296 -0.0479
33821W        W76738  28.079  13.547   3.656  0.0813 -0.0689 -0.1863
33822W        W76739  26.110  12.000   5.097 -0.0888 -0.0973 -0.0967
33823W        W76740  27.846  12.180   5.190 -0.2919  0.1460 -0.0356
33824W        W76741  28.046  11.459   6.848  0.2122  0.0935  0.0978
33825W        W76742  27.633  13.347   7.516 -0.2067  0.1636  0.0065
33826W        W76743  27.695  12.032   6.084 -0.0548  0.0983 -0.0679
33827W        W76744  25.286  11.131   3.869  0.2390 -0.2262  0.1670
33828W        W76745  28.379  12.897   4.529 -0.2202  0.2162  0.0727
33829W        W76746  29.076  12.711   6.936 -0.3380 -0.0639 -0.0033
33830W        W76747  28.471  13.977   6.507  0.1428 -0.1319 -0.2140
33831W        W76748  27.334  15.135   6.221  0.1254 -0.1859 -0.0206
33832W        W76749  28.813  14.193   5.104 -0.1292  0.0787 -0.2720
33833W        W76750  26.454   9.144   5.648 -0.1640  0.1224  0.2461
33834W        W76751  26.091  12.912   5.859 -0.1167  0.3901 -0.1301
33835W        W76752  27.753  15.138   5.439 -0.3364 -0.0659  0.1278
33836W        W76753  28.800  13.906   6.189 -0.1792  0.4791  0.1785
33837W        W76754  26.273  12.072   6.483  0.0720 -0.2502 -0.0637
33838W        W76755  26.461  11.596   4.699 -0.1840 -0.5045 -0.0510
33839W        W76756  25.053  14.953   5.084 -0.0250  0.0277 -0.0156
33840W        W76757  26.770  12.214   5.719 -0.1964 -0.3362 -0.2946
33841W        W76758  25.410  10.954   8.139 -0.0137 -0.0060 -0.0353
33842W        W76759  24.995  11.202   7.513 -0.0268  0.0038 -0.0155
33843W        W76760  28.637  12.523   7.099  0.0212  0.2416 -0.0024
33844W        W76761  27.690  10.826   7.779 -0.1066 -0.0717  0.1060
33845W        W76762  25.881  10.362   7.419 -0.1560  0.0319 -0.0340
33846W        W76763  26.926  12.100   8.759 -0.0501 -0.5891 -0.0729
33847W        W76764  27.752  16.231   8.913  0.1856  0.1783  0.3536
33848W        W76765  28.182  16.607   9.081 -0.1464  0.2811 -0.0788
33849W        W76766  29.403  12.871   6.556 -0.2318  0.0946  0.0987
33850W        W76767  26.443  11.288   9.470 -0.0687  0.0324  0.0474
33851W        W76768  27.887   9.734   7.970  0.1019  0.2500 -0.0657
33852W        W76769  25.195  10.094   9.880  0.0150  0.0903 -0.1268
33853W        W76770  24.849  12.038   8.868  0.1914 -0.1624  0.0517
33854W        W76771  25.523  12.520   7.552 -0.1840 -0.0022 -0.1342
33855W        W76772  25.908  10.848   9.833  0.0053 -0.0449  0.0363
33856W        W76773  24.640  10.938   9.515 -0.0721 -0.0361  0.0540
33857W        W76774  28.435  14.238   7.955  0.0980  0.2886  0.2387
33858W        W76775  32.315   9.266   8.960 -0.1170 -0.3234  0.0845
33859W        W76776  26.547  15.211   8.160 -0.1761  0.1683  0.0057
33860W        W76777  25.359  11.386   6.307  0.1528  0.0644 -0.0650
33861W        W76778  26.123  10.879   8.804  0.0822  0.3093  0.1464
33862W        W76779  26.104  14.718   7.441  0.1510 -0.3428  0.0841
33863W        W76780  31.220  11.082   9.175  0.1828 -0.1025 -0.0852
33864W        W76781  28.900  12.100   7.113 -0.0030  0.0363 -0.2040
33865W        W76782  26.841  14.028   7.192  0.2500  0.0888  0.3720
33866W        W76783  27.382  14.224   7.899  0.2754 -0.0377 -0.1634
33867W        W76784  26.015  12.928   8.339  0.3314  0.0005  0.0847
33868W        W76785  23.587  13.627   8.208 -0.1203  0.0192 -0.0287
33869W        W76786  25.962  14.255   7.536  0.0875 -0.1753  0.0596
33870W        W76787  28.461  11.245   7.773  0.1533 -0.6444 -0.1757
33871W        W76788  26.013  12.947   7.296 -0.1016  0.0862  0.0830
33872W        W76789  27.393  11.678   8.333  0.3647 -0.1534 -0.0940
33873W        W76790  28.319  12.137   7.334  0.0130 -0.0507  0.1583
33874W        W76791  26.909  14.251   6.616  0.1384  0.0820 -0.1137
33875W        W76792  26.382  11.566   7.730  0.3625 -0.2696 -0.2851
33876W        W76793  24.831  11.410   8.535  0.0722  0.2434  0.2846
33877W        W76794  26.760  13.459   6.428  0.0916  0.0303 -0.0049
33878W        W76795  28.326  11.210   5.946  0.3062 -0.1946  0.1225
33879W        W76796  25.271  11.571   4.845 -0.0634 -0.0430  0.1185
33880W        W76797  27.212  13.236   6.630  0.0617  0.4742  0.2938
33881W        W76798  27.078   9.743   6.621 -0.2773  0.0755  0.2819
33882W        W76799  24.746  14.006   8.889  0.2572  0.0009 -0.0516
33883W        W76800  26.175  12.066   8.739 -0.1098 -0.1152  0.2562
33884W        W76801  27.273  10.887   7.299 -0.0996  0.0580  0.2606
33885W        W76802  25.880   9.582   9.056 -0.0219  0.0442 -0.2756
33886W        W76803  26.308  13.525   9.663 -0.3110  0.2945 -0.2073
33887W        W76804  26.189  12.115   7.778  0.2346  0.1411 -0.2729
33888W        W76805  28.241  13.648   6.014  0.2528  0.3621  0.0275
33889W        W76806  27.907  14.380   8.007 -0.2385 -0.1329 -0.0207
33890W        W76807  27.459  13.417   8.040  0.1251 -0.5282  0.2618
33891W        W76808  25.732  11.609   7.874 -0.2082 -0.2578  0.1096
33892W        W76809  26.090   9.347   7.521  0.0851  0.0468  0.0992
33893W        W76810  26.815   9.787   7.877 -0.0103 -0.1372 -0.1704
33894W        W76811  25.894  14.795   8.532 -0.2133 -0.1518 -0.0840
33895W        W76812  27.642  12.591   6.849 -0.3173  0.2950 -0.2564
33896W        W76813  29.393  11.129   7.762  0.1588 -0.0535 -0.1087
33897W        W76814  33.504   8.453   8.879 -0.0446 -0.1965 -0.1608
33898W        W76815  26.492  12.970   7.192  0.2991  0.1825  0.2575
33899W        W76816  25.406  13.852   7.699  0.0567  0.4588  0.2138
33900W        W76817  28.812  14.927   8.979 -0.1064 -0.3386  0.1489
33901W        W76818  28.153  12.554   6.948 -0.0401  0.7824  0.1771
33902W        W76819  24.829  15.857   8.227  0.3936  0.1040 -0.2191
33903W        W76820  25.103  14.188   6.986 -0.0356  0.2771 -0.1780
33904W        W76821  25.191  10.919   9.463 -0.0454 -0.2067 -0.0617
33905W        W76822  24.491  12.280   8.012  0.1080 -0.0582  0.0642
33906W        W76823  25.384   5.948   8.670  0.0636 -0.2777  0.2551
33907W        W76824  27.326  14.371   6.807 -0.0291  0.0417 -0.1425
33908W        W76825  28.364  10.403   6.749 -0.1452 -0.1599 -0.2318
33909W        W76826  28.197  10.818   7.926  0.2530 -0.0051  0.3674
33910W        W76827  25.153  12.817   8.416 -0.0645 -0.3061  0.2520
33911W        W76828  28.006  13.877   7.321 -0.3436 -0.0326  0.4710
33912W        W76829  29.565  10.665   7.607 -0.4133 -0.3041 -0.3388
33913W        W76830  27.951  13.907   6.799  0.0359  0.0486  0.0271
33914W        W76831  27.769  12.421   9.343  0.2217 -0.0520 -0.0097
33915W        W76832  26.867  11.242   7.599  0.0944 -0.3208  0.0955
33916W        W76833  26.027   9.989   8.257 -0.2826 -0.1656 -0.3993
33917W        W76834  24.974  10.746   7.888 -0.1763  0.0040 -0.3579
33918W        W76835  27.829  11.712   8.088  0.2407 -0.0119  0.1139
33919W        W76836  26.580  11.830   6.791  0.0612  0.3886 -0.3210
33920W        W76837  24.885  13.714   7.128 -0.0903  0.0532  0.0584
33921W        W76838  27.869  15.257   7.558 -0.1851  0.0047  0.1438
33922W        W76839  25.549  14.444   8.822  0.0503 -0.0364  0.0436
33923W        W76840  28.336  13.211   8.027  0.3123  0.0774  0.4133
33924W        W76841  26.690   8.303   8.824 -0.3183  0.0307  0.1220
33925W        W76842  26.359  12.326   6.979  0.1591  0.6496 -0.0254
33926W        W76843  25.755  13.704   8.347  0.2155  0.0188 -0.2050
33927W        W76844  25.971  12.251   8.265 -0.0841 -0.0220  0.3016
33928W        W76845  25.912  10.480   8.199 -0.3155  0.0896 -0.1925
33929W        W76846  27.902  15.287   9.112  0.2002  0.4956 -0.0833
33930W        W76847  26.456  12.072   8.328 -0.3033  0.1209 -0.0673
33931W        W76848  26.823  12.569   8.501  0.0418  0.0721 -0.3582
33932W        W76849  26.945  11.792   7.590 -0.0417 -0.0823  0.0974
33933W        W76850  25.454  11.628   7.362  0.2929 -0.1935  0.1153
33934W        W76851  25.625  16.416   8.511  0.0834 -0.1460 -0.0789
33935W        W76852  24.543  11.505   7.452 -0.2448  0.0540 -0.0457
33936W        W76853  26.685  10.995   9.123 -0.1914  0.0212  0.3006
33937W        W76854  26.962  15.494   7.472 -0.1174  0.1275  0.1015
33938W        W76855  26.704  13.369   8.636 -0.1905  0.0563  0.1807
33939W        W76856  25.084  11.275   8.062  0.2458 -0.2307  0.1693
33940W        W76857  28.592  12.077   9.235  0.1627  0.0106  0.0606
33941W        W76858  28.000  13.533   7.741 -0.1932 -0.0762  0.4481
33942W        W76859  29.111  12.633   8.025  0.1954 -0.0910 -0.1141
33943W        W76860  27.873  11.062   6.354 -0.2906  0.0595  0.2164
33944W        W76861  27.816   9.403   7.013 -0.2143 -0.1867  0.1187
33945W        W76862  26.037  14.820   9.015  0.2290 -0.0849  0.2759
33946W        W76863  27.455  11.149   9.523  0.0208 -0.0940 -0.2715
33947W        W76864  26.218  10.640   7.107 -0.1083 -0.2075  0.1119
33948W        W76865  30.431  12.807   8.294 -0.3778 -0.1633 -0.1441
33949W        W76866  24.903  13.530   9.015  0.5930 -0.2538  0.1699
33950W        W76867  26.583  14.498   9.084  0.3052  0.0111 -0.3236
33951W        W76868  26.732  10.621   7.265  0.0010 -0.1782  0.1346
33952W        W76869  26.015  10.166   7.815  0.2095  0.1706  0.2121
33953W        W76870  25.744  10.768   6.979 -0.1926  0.0771 -0.2361
33954W        W76871  25.540  15.212   6.362 -0.0182 -0.1236  0.2274
33955W        W76872  26.839  10.294   9.019 -0.1104  0.1640 -0.0219
33956W        W76873  27.921  11.147   8.140  0.1579  0.0582 -0.0362
33957W        W76874  27.226  11.775   6.448 -0.1680 -0.2438 -0.0111
33958W        W76875  29.671  11.291   8.771 -0.2508 -0.0800  0.0629
33959W        W76876  24.957  11.915   6.769  0.1822 -0.0752  0.2699
33960W        W76877  28.856  11.154   8.254 -0.0645 -0.1888  0.0072
33961W        W76878  26.687  15.873   9.390 -0.1242 -0.1586 -0.0669
33962W        W76879  26.290  14.189   8.271  0.0111  0.4037  0.1050
33963W        W76880  26.403  10.302   8.123 -0.3819  0.2916  0.2288
33964W        W76881  26.061  14.886   6.548  0.1406 -0.3637  0.0997
33965W        W76882  27.247  14.319   7.441 -0.1888  0.0255  0.0021
33966W        W76883  25.706   8.638   8.440 -0.2403  0.0915 -0.1156
33967W        W76884  26.674  16.902   9.044  0.1697  0.1544 -0.1154
33968W        W76885  27.713  14.457   7.175  0.0815  0.2294  0.0447
33969W        W76886  28.504  13.808   7.579  0.1471 -0.2563 -0.2435
33970W        W76887  23.759  11.776   9.088  0.0199  0.2862 -0.0929
33971W        W76888  29.376  10.116   9.176  0.0668  0.2630 -0.0540
33972W        W76889  23.860  13.807   7.754  0.1061  0.1615 -0.1149
33973W        W76890  25.933  11.402   7.336 -0.0579  0.1638 -0.2827
33974W        W76891  24.391  12.673   6.570  0.0160 -0.1073  0.1781
33975W        W76892  27.473  12.397   7.773  0.0340  0.4349 -0.1428
33976W        W76893  28.762  13.028   7.248 -0.0768 -0.1743 -0.1172
33977W        W76894  23.844   9.467   9.039 -0.1149  0.0899 -0.3524
33978W        W76895  26.498  11.158   8.612  0.0817  0.0437 -0.0070
33979W        W76896  21.729  13.939  10.100 -0.0698  0.1254 -0.0640
33980W        W76897  28.406  11.883   6.362 -0.3901 -0.1710 -0.2317
33981W        W76898  25.921  11.588   6.303  0.2840 -0.0265 -0.0740
33982W        W76899  27.330  10.600   8.096  0.1095  0.0458  0.0280
33983W        W76900  26.177  15.574   8.112  0.0339  0.2569  0.1626
33984W        W76901  23.900  14.097   8.358  0.0437  0.0328 -0.1580
33985W        W76902  27.243  15.753   7.055 -0.2429  0.2751  0.0328
33986W        W76903  24.794  13.276   7.922 -0.3664  0.1142  0.1431
33987W        W76904  22.745  12.836   8.304 -0.0236  0.0470  0.0836
33988W        W76905  25.650  12.145   8.943  0.1288 -0.0722 -0.1767
33989W        W76906  25.374  12.192   8.502  0.2873 -0.1658 -0.1121
33990W        W76907  27.288   9.522   8.073  0.2662  0.1499 -0.0663
33991W        W76908  27.044  13.101   7.221  0.1490 -0.1326 -0.2682
33992W        W76909  28.106  12.827   9.351  0.0284 -0.2082  0.2174
33993W        W76910  25.225  10.581   9.080 -0.2822 -0.0065 -0.2374
33994W        W76911  26.503  10.568   8.616  0.0967 -0.0981  0.2484
33995W        W76912  26.260  11.099   6.427  0.2741 -0.1469 -0.2555
33996W        W76913  26.544  13.950   6.771 -0.0731  0.1067 -0.2335
33997W        W76914  24.956  10.310   8.551  0.1461 -0.2399  0.0657
33998W        W76915  26.307  12.570   8.075 -0.1663 -0.0926  0.1458
33999W        W76916  27.263  10.736   9.305  0.1252  0.3352 -0.0679
34000W        W76917  27.622  12.758   8.136 -0.1173  0.1946  0.0295
34001W        W76918  25.891  14.059   7.983  0.1990 -0.0606 -0.1286
34002W        W76919  27.928  13.779   9.062 -0.2395  0.3393 -0.1062
34003W        W76920  28.425  11.409   7.312 -0.1140  0.2184  0.0216
34004W        W76921  27.215  13.903   5.715  0.2075 -0.3142 -0.0135
34005W        W76922  28.334  12.902   8.888  0.1304  0.1014 -0.0019
34006W        W76923  26.862  11.763   8.361  0.0116  0.3956 -0.2827
34007W        W76924  27.083  14.962   7.393  0.0851  0.0600  0.1321
34008W        W76925  27.477  13.803   8.799  0.1131 -0.1726  0.1017
34009W        W76926  27.561   9.386   7.695  0.2865 -0.0134 -0.1024
34010W        W76927  26.949  10.251   8.001 -0.1379  0.3069 -0.1291
34011W        W76928  27.462  15.435   8.876  0.3976 -0.1332 -0.1393
34012W        W76929  29.503  14.353   7.368  0.1520 -0.0824 -0.0100
34013W        W76930  26.706  11.970   6.200  0.0403  0.1086  0.0743
34014W        W76931  29.119  12.133   9.380 -0.1449 -0.1283 -0.3278
34015W        W76932  25.102  12.450   7.168  0.1062  0.1311 -0.1158
34016W        W76933  27.382  12.254   9.057  0.1264 -0.2342 -0.0971
34017W        W76934  27.429  13.773   7.616  0.0123 -0.4108  0.1801
34018W        W76935  25.825  12.515   8.635  0.3517  0.1317 -0.1464
34019W        W76936  26.934  14.041   7.680  0.0340 -0.2702  0.2136
34020W        W76937  25.644  11.068   9.409  0.0154  0.0523  0.1245
34021W        W76938  28.969  14.373   8.792  0.0573 -0.0415  0.4826
34022W        W76939  29.042  12.937   5.747  0.1679 -0.1009  0.0004
34023W        W76940  28.588  12.603   9.234  0.1722  0.1643  0.0263
34024W        W76941  28.310  11.693   7.698 -0.1774 -0.1890  0.0514
34025W        W76942  25.631  10.747   8.654 -0.0966  0.1256  0.0933
34026W        W76943  25.184  12.105   7.511  0.1932  0.3097  0.0375
34027W        W76944  26.401  10.105   7.231 -0.0176 -0.4797  0.0063
34028W        W76945  26.433  13.773   7.278 -0.4860  0.0829  0.1195
34029W        W76946  26.319  13.421   9.058 -0.0936  0.0774 -0.2304
34030W        W76947  26.158  13.208   7.953  0.1090 -0.0996 -0.3657
34031W        W76948  22.595  12.535   9.166  0.2134 -0.2243 -0.0769
34032W        W76949  25.088  13.014   4.804  0.4443  0.0599  0.0428
34033W        W76950  26.438  12.595   6.563 -0.0981  0.3938 -0.0648
34034W        W76951  27.157  15.524   8.483  0.3413 -0.0601 -0.0535
34035W        W76952  28.141  10.145   8.323 -0.0772  0.1288 -0.0103
34036W        W76953  25.665  13.072   6.892  0.0840  0.2348 -0.2053
34037W        W76954  27.810  10.589   8.312  0.2590 -0.0084 -0.1828
34038W        W76955  26.745  14.785   9.602  0.1994 -0.0291  0.1285
34039W        W76956  26.236  12.601   9.125 -0.1688 -0.0095 -0.1692
34040W        W76957  25.884  10.981   8.160 -0.0107  0.2504 -0.1368
34041W        W76958  28.038  12.287   6.438  0.1057  0.2949 -0.4683
34042W        W76959  26.037  15.072   8.144 -0.1114 -0.0165 -0.2677
34043W        W76960  26.062  13.003   8.845 -0.4903  0.1986  0.4785
34044W        W76961  27.140  13.555   8.557 -0.0639 -0.0375 -0.2666
34045W        W76962  25.983  11.453   9.539  0.0913 -0.0025 -0.0724
34046W        W76963  26.470  13.030   9.313  0.4348 -0.2871 -0.0414
34047W        W76964  26.184  10.010   9.096  0.0101  0.0867  0.3112
34048W        W76965  27.044  11.792   6.949  0.0169  0.0242 -0.1724
34049W        W76966  27.975  11.936   9.487  0.1799 -0.3755  0.0793
34050W        W76967  24.624  14.797   7.840  0.0441  0.1595  0.2251
34051W        W76968  26.439  14.084   7.786 -0.2541 -0.0293 -0.0731
34052W        W76969  27.670  10.305   7.851  0.0079  0.2133 -0.1012
34053W        W76970  26.164  14.607   9.415  0.2641  0.3024  0.0120
34054W        W76971  26.750  12.991   6.660  0.0294  0.1145  0.0587
34055W        W76972  24.971  14.971   8.174 -0.1659 -0.0503 -0.2195
34056W        W76973  25.638  13.228   8.209  0.2558  0.4435 -0.2283
34057W        W76974  28.497  12.879   6.002  0.1796  0.0576  0.1383
34058W        W76975  25.496  13.871   9.127 -0.2008 -0.1850  0.0660
34059W        W76976  27.267  11.417   7.210 -0.3335 -0.0392 -0.4351
34060W        W76977  30.245  12.410   8.722  0.1116  0.3771 -0.0301
34061W        W76978  28.813  13.059   6.661 -0.2387  0.2573  0.1513
34062W        W76979  27.951  11.698   7.333 -0.0545 -0.1971 -0.3066
34063W        W76980  25.472  10.343   7.006 -0.1307  0.0709 -0.4144
34064W        W76981  28.288  13.072   6.951  0.0014 -0.0682 -0.0257
34065W        W76982  26.788   9.336   6.647  0.1769  0.0110  0.0922
34066W        W76983  26.936  10.753   7.811 -0.1571 -0.2518  0.0249
34067W        W76984  26.760  12.189   7.869 -0.1501 -0.1620  0.0621
34068W        W76985  27.389   9.703   7.266  0.0012 -0.2086 -0.2162
34069W        W76986  25.054  14.286   8.591 -0.1804 -0.2114 -0.3144
34070W        W76987  26.266  13.646   8.207  0.0699 -0.0145 -0.4043
34071W        W76988  25.923  13.707   9.379 -0.2294 -0.0127  0.1814
34072W        W76989  28.325  17.613   9.337  0.1588  0.3536  0.2410
34073W        W76990  26.602   9.489   7.477 -0.0161  0.1755 -0.1521
34074W        W76991  29.564  10.501   8.890 -0.1762  0.1057  0.2705
34075W        W76992  24.548  11.913   8.496 -0.2555  0.0202 -0.0022
34076W        W76993  27.344   9.934   7.740  0.1358  0.1525  0.2385
34077W        W76994  27.803  12.244   8.157  0.2763 -0.0708  0.1929
34078W        W76995  26.128  11.948   9.270  0.2463  0.1985  0.0001
34079W        W76996  27.991  12.974   8.478 -0.1657  0.1903  0.2352
34080W        W76997  26.681  11.603   7.236 -0.0890 -0.0442 -0.1015
34081W        W76998  28.213  10.434   7.240 -0.1524  0.1725 -0.2045
34082W        W76999  24.814  12.088   6.290  0.2136 -0.0685 -0.0670
34083W        W77000  27.101  13.412   7.619 -0.0070 -0.1938  0.0153
34084W        W77001  26.792  12.238   9.406  0.5054  0.1518  0.0544
34085W        W77002  27.977  11.506  13.009  0.1031 -0.1391  0.3239
34086W        W77003  29.167  10.408   8.498 -0.2161  0.0248  0.0380
34087W        W77004  29.269  13.188   7.013 -0.1459  0.2305 -0.0565
34088W        W77005  26.406  11.639   8.586  0.1720 -0.0531  0.0721
34089W        W77006  24.907  15.190   7.754  0.0191  0.2907  0.1828
34090W        W77007  29.373  12.258   7.174 -0.0756 -0.1732 -0.0399
34091W        W77008  27.699  16.637   9.254 -0.1399  0.0749  0.0984
34092W        W77009  24.436  11.808   9.479  0.1015 -0.2622  0.0430
34093W        W77010  26.339  12.563   8.628 -0.1687 -0.0576  0.0160
34094W        W77011  30.183  13.671   9.390 -0.1411 -0.0085  0.1096
34095W        W77012  28.227  10.794   8.953 -0.0868  0.1335 -0.1531
34096W        W77013  25.792  12.018   7.504 -0.2834  0.1796 -0.3074
34097W        W77014  22.658  13.659   8.848  0.2429 -0.1033  0.0178
34098W        W77015  28.348  12.146   7.876  0.0376 -0.1800  0.2744
34099W        W77016  27.558  12.130   6.606  0.1334  0.0278  0.1228
34100W        W77017  24.641  12.569   8.909 -0.0235 -0.1250  0.1364
34101W        W77018  25.896  12.247   6.713 -0.0115 -0.1304 -0.0386
34102W        W77019  26.905  14.956   7.889 -0.3249 -0.1552  0.1500
34103W        W77020  28.479  13.519   7.025 -0.1503  0.1021 -0.3830
34104W        W77021  28.274  11.865   8.866 -0.1847 -0.1536 -0.1880
34105W        W77022  27.045  10.104   7.319 -0.0703  0.0357  0.1933
34106W        W77023  26.573  12.942   8.797 -0.0829 -0.1235  0.1855
34107W        W77024  27.791  10.511   9.124 -0.2299  0.0737  0.0724
34108W        W77025  29.787  11.858   7.455  0.1131 -0.3250  0.0776
34109W        W77026  27.564  10.921   6.835 -0.0415 -0.0679 -0.1063
34110W        W77027  27.381  13.013   7.790  0.0957 -0.4133  0.0125
34111W        W77028  25.642  12.228   6.228  0.0752 -0.2836  0.1667
34112W        W77029  24.212  11.951   8.923 -0.2752  0.2741 -0.2360
34113W        W77030  25.112  14.617   7.757 -0.2141 -0.1239 -0.1870
34114W        W77031  24.676  11.113   7.130 -0.2131 -0.1765  0.0016
34115W        W77032  26.734  11.268   6.573  0.0653  0.1336 -0.0109
34116W        W77033  28.728  13.843   8.046  0.1420  0.0463 -0.0720
34117W        W77034  28.236   7.332   9.146  0.0333  0.1595  0.1286
34118W        W77035  24.452  10.577   8.295 -0.3150 -0.2449  0.3366
34119W        W77036  26.739  13.595   7.932  0.0444 -0.0200 -0.0673
34120W        W77037  28.687  13.350   7.648  0.0642 -0.2277  0.1038
34121W        W77038  27.844  12.867   8.964 -0.1868 -0.0854 -0.2543
34122W        W77039  25.617  11.964   6.994  0.1717  0.0230 -0.1379
34123W        W77040  24.716  13.070   6.833  0.1172  0.2370 -0.0677
34124W        W77041  26.983   9.886   8.347 -0.2954  0.1589  0.2860
34125W        W77042  27.538  13.919   7.157 -0.0123 -0.0540 -0.1494
34126W        W77043  24.909  11.004   8.964 -0.0661 -0.0432  0.1372
34127W        W77044  27.125  12.637   8.055 -0.1428  0.1277 -0.0294
34128W        W77045  29.008  13.223   9.166  0.1384 -0.0990 -0.1708
34129W        W77046  29.839  11.502   9.897  0.4146  0.1972 -0.0070
34130W        W77047  27.919  12.842   7.240  0.0439  0.1106 -0.1610
34131W        W77048  27.044  13.116   8.248  0.0901  0.2530  0.0190
34132W        W77049  29.076  13.281   8.680 -0.0094 -0.3214 -0.2086
34133W        W77050  26.110  11.685   8.163 -0.1993 -0.0078 -0.1272
34134W        W77051  27.638  13.935   6.003 -0.3735  0.1113 -0.1350
34135W        W77052  25.495  11.522   9.579  0.0823  0.0148  0.3261
34136W        W77053  26.029  12.436   7.355 -0.3411  0.0125 -0.4441
34137W        W77054  26.670  14.403   8.552  0.1263  0.0928 -0.2549
34138W        W77055  26.816  12.431   4.689  0.1183  0.0925  0.2497
34139W        W77056  28.946  11.654   8.338  0.0912 -0.1885 -0.2070
34140W        W77057  31.376  13.296   8.630  0.2882 -0.1868 -0.0346
34141W        W77058  24.464  16.352   8.803 -0.0077 -0.0853  0.0528
34142W        W77059  27.784  14.682   8.388 -0.3918  0.0129  0.0520
34143W        W77060  24.729  10.288   8.037  0.1506  0.0236  0.1326
34144W        W77061  23.683  13.198   8.490 -0.0625 -0.0862 -0.1360
34145W        W77062  27.043  12.351   7.484 -0.1436  0.1310 -0.2191
34146W        W77063  27.241  11.620   9.476  0.1416  0.1817  0.2901
34147W        W77064  24.855  10.464   9.588  0.4369 -0.0761 -0.1288
34148W        W77065  22.279  13.548  11.584  0.0853  0.0501  0.0266
34149W        W77066  25.338  15.504   8.531 -0.1279  0.0965 -0.2602
34150W        W77067  27.704  11.977   8.571 -0.0956 -0.1179 -0.1242
34151W        W77068  22.571  17.766   1.628  0.0630 -0.0521 -0.1405
34152W        W77069  26.376  15.840   2.035  0.0501  0.1444  0.1983
34153W        W77070  29.570  16.867  31.219  0.0491 -0.0855  0.0866
34154W        W77071  29.575  15.054   0.477 -0.1390  0.1451  0.4488
34155W        W77072  24.972  15.128   3.149 -0.0712 -0.0185 -0.1623
34156W        W77073  27.823  19.432   1.461 -0.0518 -0.0862 -0.1748
34157W        W77074  24.825  16.114   3.129  0.0144 -0.2178 -0.0677
34158W        W77075  29.023  16.986   0.263 -0.0359 -0.0530  0.0171
34159W        W77076  27.540  19.192   3.047 -0.0988  0.3660  0.1705
34160W        W77077  27.711  19.511   0.742  0.2875  0.1308 -0.0549
34161W        W77078  27.191  16.763   2.668 -0.0143  0.0188  0.2159
34162W        W77079  25.314  18.433   2.723  0.0632 -0.0542 -0.0452
34163W        W77080  24.677  15.816   2.116 -0.3728  0.0951  0.0158
34164W        W77081  25.709  13.915   1.485 -0.0557 -0.1673 -0.1380
34165W        W77082  27.603  16.648   1.668 -0.2679 -0.2897  0.1058
34166W        W77083  24.269  15.576   2.044  0.2786 -0.0360  0.1521
34167W        W77084  24.894  16.533   2.071 -0.1203 -0.1075 -0.1639
34168W        W77085  25.560  15.600  31.609  0.1405  0.0286 -0.1196
34169W        W77086  25.370  18.738   1.820  0.2918 -0.0354 -0.4214
34170W        W77087  24.870  14.858   1.798 -0.0491  0.5040  0.0885
34171W        W77088  26.040  15.271   4.538 -0.0532  0.2182  0.0917
34172W        W77089  27.677  17.330   1.533 -0.2641 -0.1907 -0.0174
34173W        W77090  24.859  17.401  31.882  0.0553 -0.4554  0.1639
34174W        W77091  25.885  15.201   0.757  0.1562  0.0141 -0.1239
34175W        W77092  26.054  16.540   2.702  0.0108  0.1135 -0.1452
34176W        W77093  26.964  16.302   0.955 -0.1126  0.2576 -0.0146
34177W        W77094  29.166  16.222   1.052  0.0888  0.0051  0.0168
34178W        W77095  25.929  21.245   0.986 -0.1391  0.0104  0.0901
34179W        W77096  27.319  19.156   2.595 -0.0702 -0.0128  0.1770
34180W        W77097  26.254  15.429   3.692 -0.0322 -0.0446 -0.2506
34181W        W77098  25.120  18.099   1.969  0.2643  0.1099 -0.0333
34182W        W77099  25.398  17.388   1.189 -0.1946  0.0837 -0.0249
34183W        W77100  25.132  16.757   1.161 -0.1011  0.1576 -0.0970
34184W        W77101  30.129  17.550   1.216 -0.4043  0.1998  0.0978
34185W        W77102  27.654  16.768   0.589 -0.1278 -0.1290  0.0667
34186W        W77103  24.608  18.640   3.136  0.2057  0.0299  0.1653
34187W        W77104  26.599  16.678   0.837  0.1697  0.0108 -0.2542
34188W        W77105  27.094  21.481   2.560  0.2565  0.0065  0.1603
34189W        W77106  26.044  17.857   3.295  0.1308 -0.1583 -0.0903
34190W        W77107  28.275  16.953   2.789 -0.0220 -0.1360  0.1527
34191W        W77108  25.216  16.281   1.254 -0.0073  0.0741 -0.0788
34192W        W77109  27.854  17.462   0.432  0.0069  0.1145 -0.2739
34193W        W77110  28.540  18.481   1.166  0.0259  0.0449 -0.3089
34194W        W77111  27.307  17.483   3.237 -0.1595  0.0349 -0.0869
34195W        W77112  25.646  17.274   1.866  0.3290  0.2104 -0.3485
34196W        W77113  28.131  13.813   4.709  0.0224 -0.2253 -0.0182
34197W        W77114  26.825  16.566  31.233  0.1936 -0.0233 -0.0363
34198W        W77115  29.219  16.415   1.496  0.3153  0.0041 -0.0849
34199W        W77116  26.312  17.304   0.330  0.0753  0.1584  0.0588
34200W        W77117  28.324  17.651   0.366  0.0738  0.2348  0.0571
34201W        W77118  28.535  17.161   0.344 -0.2042  0.0257  0.3663
34202W        W77119  26.016  19.748   2.248 -0.0614 -0.0182 -0.1609
34203W        W77120  28.176  14.226   2.973 -0.2098 -0.0333  0.1399
34204W        W77121  28.292  16.614   2.102 -0.0274  0.1158 -0.1441
34205W        W77122  28.756  16.644   2.013 -0.0649 -0.2472 -0.1290
34206W        W77123  28.518  15.958   2.475  0.2317 -0.0950 -0.0316
34207W        W77124  26.475  18.991   2.716 -0.2059  0.1939  0.4509
34208W        W77125  24.063  18.159   0.018  0.0547  0.0995 -0.1369
34209W        W77126  28.550  19.252  31.493 -0.1665 -0.5544 -0.1008
34210W        W77127  29.362  18.083   1.113  0.1262  0.0322 -0.2127
34211W        W77128  26.861  19.473  31.765 -0.0373 -0.2241  0.1588
34212W        W77129  24.403  16.834   1.075 -0.1973  0.3260  0.3186
34213W        W77130  23.097  16.303   1.838 -0.1628  0.3275 -0.1426
34214W        W77131  24.450  17.573   2.146  0.0733  0.1288 -0.1866
34215W        W77132  26.920  15.774   0.264  0.1265  0.0207 -0.0244
34216W        W77133  27.679  17.134   2.487 -0.0314 -0.0624  0.1599
34217W        W77134  25.509  17.806   3.385  0.2236  0.1677  0.0129
34218W        W77135  29.507  17.751   1.507 -0.1884  0.1818 -0.0547
34219W        W77136  25.830  17.259   2.360 -0.0147  0.3807  0.1353
34220W        W77137  29.162  16.820   1.072 -0.0440  0.3101 -0.3070
34221W        W77138  27.048  17.822  31.847  0.4123  0.1634  0.0385
34222W        W77139  29.395  14.164   0.250  0.0862  0.0044  0.1497
34223W        W77140  25.534  12.973   2.747  0.1400  0.2569 -0.0366
34224W        W77141  27.109  15.687   1.166 -0.0424 -0.2676  0.5112
34225W        W77142  25.454  18.052   0.371  0.3146  0.0259  0.2881
34226W        W77143  27.815  18.141   3.604 -0.1322 -0.1179 -0.2752
34227W        W77144  28.551  16.061  31.354 -0.0889 -0.0332 -0.2246
34228W        W77145  25.331  18.459   2.241 -0.1896  0.0053  0.0771
34229W        W77146  27.073  15.927   4.483 -0.1845  0.0488 -0.0680
34230W        W77147  26.751  17.023   3.200 -0.2050 -0.0231  0.2117
34231W        W77148  25.586  19.625   0.550 -0.1104 -0.1228 -0.1213
34232W        W77149  24.633  15.545   1.086 -0.0823  0.1094  0.0955
34233W        W77150  27.243  18.578   1.336  0.2641  0.0797  0.1893
34234W        W77151  25.076  12.739   3.248  0.0424  0.1628  0.0649
34235W        W77152  27.316  16.736   2.171 -0.2335  0.2114 -0.1520
34236W        W77153  30.310  17.177   1.769  0.0215 -0.1230 -0.1040
34237W        W77154  27.418  15.535   1.986  0.1721 -0.0074 -0.1502
34238W        W77155  29.123  14.714   1.164 -0.1649  0.3363  0.0176
34239W        W77156  22.984  17.195   1.408  0.0880  0.1572 -0.0355
34240W        W77157  26.140  18.632   0.210 -0.1937 -0.2356  0.0553
34241W        W77158  27.811  16.360  30.221  0.1571 -0.1931  0.0808
34242W        W77159  29.906  17.268   0.809  0.0177  0.0461  0.1242
34243W        W77160  24.551  16.010   1.247 -0.0876 -0.1786  0.0868
34244W        W77161  26.567  16.858   1.686 -0.4239 -0.0863 -0.0992
34245W        W77162  27.740  15.730   3.844  0.0581 -0.0601  0.2350
34246W        W77163  26.293  14.557   1.773  0.1640  0.2372 -0.3942
34247W        W77164  27.491  16.208   1.924  0.2324 -0.3087 -0.3541
34248W        W77165  27.705  17.338  31.766  0.0035  0.2304  0.1852
34249W        W77166  28.052  16.197   2.295  0.0050 -0.0393 -0.0289
34250W        W77167  26.175  15.962   1.486  0.2715  0.0906  0.2399
34251W        W77168  26.241  16.043   0.820 -0.2730 -0.0320 -0.1660
34252W        W77169  28.304  17.492   3.069  0.1473 -0.1773  0.2380
34253W        W77170  27.676  18.707  31.879  0.0682  0.0715 -0.2319
34254W        W77171  26.632  18.126   2.521  0.0336 -0.0906 -0.3350
34255W        W77172  26.936  16.675  31.777 -0.1947 -0.1383  0.2992
34256W        W77173  26.704  14.628   2.192 -0.0893  0.0655  0.0596
34257W        W77174  22.995  16.021  31.338 -0.3797 -0.1767 -0.1747
34258W        W77175  24.352  16.486   1.521  0.2381  0.0612 -0.0686
34259W        W77176  26.669  18.899   1.951 -0.1227  0.0420  0.0769
34260W        W77177  28.411  16.633   0.476  0.2879  0.1881  0.1082
34261W        W77178  27.490  20.318   1.996  0.0122 -0.0108 -0.0205
34262W        W77179  28.322  17.904   1.745  0.2054  0.0009  0.4060
34263W        W77180  26.179  18.886   2.278 -0.0279 -0.1581 -0.1845
34264W        W77181  26.829  14.846   1.010  0.2789 -0.2864  0.1315
34265W        W77182  30.039  16.377   2.076  0.3476 -0.4897  0.0039
34266W        W77183  27.283  17.311   2.764 -0.1536  0.0143 -0.0956
34267W        W77184  26.721  16.286   0.463 -0.1567  0.1568  0.2752
34268W        W77185  26.057  19.136  31.826  0.0241  0.1093  0.1447
34269W        W77186  25.691  17.609  30.537 -0.0567  0.1354  0.2798
34270W        W77187  24.239  15.466   1.524 -0.0079  0.0908  0.3377
34271W        W77188  25.139  19.644   2.121 -0.0669  0.2612 -0.1779
34272W        W77189  28.777  15.859   1.249 -0.3018 -0.1130 -0.5009
34273W        W77190  24.423  16.389   2.979  0.3046 -0.3579  0.2044
34274W        W77191  27.789  16.838   2.923  0.2254  0.4199  0.0395
34275W        W77192  22.480  17.012   0.266  0.1554 -0.0513  0.1851
34276W        W77193  24.814  17.399   0.706  0.2525 -0.4545 -0.1292
34277W        W77194  28.732  14.995   1.416 -0.2909 -0.2750 -0.2226
34278W        W77195  31.428  16.106  31.680  0.0144  0.1828  0.0495
34279W        W77196  27.485  18.316   2.848 -0.1206 -0.0219  0.0909
34280W        W77197  29.088  17.231   1.348  0.1587 -0.0353  0.1293
34281W        W77198  29.789  15.646  31.612  0.1462  0.0042  0.2319
34282W        W77199  27.919  15.513  31.859  0.1353  0.5004 -0.1755
34283W        W77200  25.359  18.673   3.592 -0.2500 -0.1715  0.0699
34284W        W77201  28.047  17.010   0.429 -0.0163  0.1664 -0.1818
34285W        W77202  26.759  17.673   2.432  0.0714 -0.0945  0.0417
34286W        W77203  29.936  16.110  31.653 -0.2632 -0.0558 -0.1684
34287W        W77204  29.403  18.371  31.887 -0.0647 -0.1715 -0.1462
34288W        W77205  24.914  17.688   1.243  0.2609  0.0174  0.2680
34289W        W77206  29.743  17.820   0.915  0.1384 -0.3039  0.1296
34290W        W77207  27.643  19.207   0.358 -0.1795 -0.3446 -0.0258
34291W        W77208  29.073  16.817   2.385 -0.2820 -0.1267  0.1511
34292W        W77209  29.029  17.521  31.606  0.1724 -0.2532  0.1426
34293W        W77210  27.697  15.791   1.165 -0.1597 -0.0147  0.0034
34294W        W77211  25.233  17.673   0.765  0.1042  0.3249 -0.3609
34295W        W77212  29.494  16.266   1.908  0.0392 -0.3314 -0.2462
34296W        W77213  29.322  15.120   2.249  0.0565  0.1377  0.0488
34297W        W77214  27.519  14.315   1.949 -0.2287  0.1282  0.2301
34298W        W77215  29.776  15.977   2.354 -0.0970 -0.2484 -0.1877
34299W        W77216  27.692  18.923  31.427  0.2104 -0.0071 -0.2870
34300W        W77217  26.214  17.591   2.318  0.0870 -0.1024 -0.0473
34301W        W77218  29.182  16.571   0.576  0.0517  0.0019 -0.1187
34302W        W77219  26.188  15.702   2.774 -0.1486  0.0988  0.3692
34303W        W77220  23.545  18.425   2.470 -0.0409 -0.2573  0.1319
34304W        W77221  23.783  18.936   1.126 -0.2838 -0.2979 -0.1980
34305W        W77222  30.653  16.779   2.926  0.0118 -0.0180 -0.0597
34306W        W77223  27.771  17.738   1.777 -0.1975  0.2878 -0.0610
34307W        W77224  27.537  14.656   3.205 -0.1480 -0.0067  0.0434
34308W        W77225  28.306  16.424   0.019  0.1821  0.2114  0.1066
34309W        W77226  26.758  19.299  31.204  0.0641 -0.0736 -0.2902
34310W        W77227  27.912  16.429   0.321 -0.3052 -0.0920 -0.3468
34311W        W77228  25.179  14.989   1.396 -0.0188 -0.1190  0.2505
34312W        W77229  26.084  19.044   1.109  0.1869  0.2983  0.0723
34313W        W77230  25.081  17.078   0.236  0.0841  0.3237  0.1614
34314W        W77231  27.027  17.200   2.286  0.1532  0.3276 -0.0633
34315W        W77232  27.089  17.979   1.122  0.1458  0.0913  0.0227
34316W        W77233  27.711  17.247   0.999 -0.2507  0.1041  0.1196
34317W        W77234  24.001  17.133   1.310 -0.3617 -0.1714  0.1450
34318W        W77235  26.528  16.238   1.170 -0.0824  0.1397  0.0436
34319W        W77236  26.369  16.717  31.499 -0.1019  0.3539  0.2336
34320W        W77237  26.954  16.029   2.019 -0.2617 -0.0475 -0.0901
34321W        W77238  27.434  17.373  30.672 -0.0813 -0.0638  0.2749
34322W        W77239  24.639  15.137   1.374 -0.4862  0.1477 -0.2164
34323W        W77240  27.110  16.274   2.418  0.2681 -0.2124  0.1943
34324W        W77241  24.155  19.938   1.893 -0.1106 -0.0316  0.3015
34325W        W77242  25.771  17.875   4.253 -0.0157  0.2246 -0.1355
34326W        W77243  29.752  13.754  30.041 -0.0635  0.0213  0.3613
34327W        W77244  29.188  17.243   2.773  0.0136 -0.2391 -0.0404
34328W        W77245  25.502  15.906   3.268 -0.5628 -0.0344 -0.2365
34329W        W77246  25.268  16.346  30.884  0.0368 -0.0266 -0.0934
34330W        W77247  29.374  15.579   3.501 -0.0197 -0.1675 -0.1618
34331W        W77248  25.637  16.429   1.447  0.1267  0.1919  0.0270
34332W        W77249  24.069  18.543  31.639  0.0736 -0.1618  0.1771
34333W        W77250  25.530  17.750   1.607 -0.0438 -0.0417  0.0686
34334W        W77251  24.790  16.240   1.626  0.2654 -0.2161  0.3022
34335W        W77252  27.038  17.007   1.816  0.0370  0.1874 -0.0175
34336W        W77253  26.395  17.350   3.238  0.4086  0.0113 -0.2084
34337W        W77254  28.757  16.442   2.483 -0.2029 -0.1118  0.4597
34338W        W77255  29.025  17.629   1.640  0.1526 -0.0972 -0.3102
34339W        W77256  27.292  15.416   0.389  0.1658 -0.1935  0.1637
34340W        W77257  29.265  18.452   0.771  0.0180 -0.1934 -0.0199
34341W        W77258  26.561  16.362   1.809 -0.0312  0.1010 -0.0833
34342W        W77259  24.067  15.374   3.372 -0.0555  0.4615  0.1667
34343W        W77260  25.533  17.404   3.668 -0.1256 -0.0631  0.0309
34344W        W77261  29.006  18.702   1.188 -0.0174 -0.3267  0.0526
34345W        W77262  26.123  15.549   2.325  0.0330 -0.0208  0.0134
34346W        W77263  27.458  16.707  31.736 -0.1908 -0.1477  0.1264
34347W        W77264  26.170  16.655   1.088 -0.3666 -0.0095  0.0295
34348W        W77265  27.135  17.386   1.144 -0.1396  0.0973  0.1753
34349W        W77266  28.007  18.008   2.699 -0.0363  0.3271 -0.1073
34350W        W77267  24.126  19.555   2.275 -0.2397  0.4813 -0.1074
34351W        W77268  25.097  15.841   1.470 -0.0814  0.1135  0.0742
34352W        W77269  22.126  17.075   2.560  0.2884  0.0727 -0.3001
34353W        W77270  27.953  14.356  31.203 -0.0516  0.0103  0.0245
34354W        W77271  27.014  19.147   1.385  0.1403 -0.2274 -0.1935
34355W        W77272  28.291  18.199   0.407  0.0082 -0.0918 -0.3099
34356W        W77273  28.278  15.619   1.903  0.1566 -0.0130 -0.1479
34357W        W77274  25.782  17.687  29.915 -0.1131 -0.1270 -0.2831
34358W        W77275  29.676  14.965   2.616  0.1351 -0.3224 -0.2609
34359W        W77276  26.653  15.950   2.424 -0.0220  0.1445 -0.2061
34360W        W77277  24.924  15.270   2.102  0.2064  0.2206 -0.0283
34361W        W77278  27.279  19.463   1.704 -0.0940  0.0183 -0.0383
34362W        W77279  23.576  16.361   0.930 -0.1516  0.2327  0.1006
34363W        W77280  27.944  17.845   0.883  0.0619 -0.1930  0.2563
34364W        W77281  27.746  16.886  31.420 -0.1537  0.4907  0.0722
34365W        W77282  28.554  17.296   1.529 -0.2602  0.0711 -0.0468
34366W        W77283  29.258  16.699   1.908 -0.1542 -0.2007  0.1384
34367W        W77284  25.890  17.399   1.312  0.1076 -0.2349 -0.1027
34368W        W77285  28.622  17.025   2.360 -0.2486 -0.0313 -0.4546
34369W        W77286  25.882  15.552   1.745 -0.0170  0.0132  0.1729
34370W        W77287  28.740  17.519   0.601  0.0067  0.0416  0.1235
34371W        W77288  27.199  17.181  31.679 -0.2369 -0.3300  0.0380
34372W        W77289  25.610  16.588   2.042 -0.1245 -0.2707 -0.0527
34373W        W77290  26.693  17.437   1.917  0.1625 -0.3532 -0.2597
34374W        W77291  28.098  16.934   1.740  0.2815  0.1627 -0.1688
34375W        W77292  27.324  14.939   1.204 -0.0068  0.3280  0.1450
34376W        W77293  26.893  16.079   1.453 -0.0390  0.1991  0.0765
34377W        W77294  26.862  15.402   0.781 -0.5009 -0.2024  0.0115
34378W        W77295  25.580  16.260   3.847 -0.0978  0.0660 -0.1394
34379W        W77296  24.893  15.803   3.535  0.2013 -0.0855  0.1240
34380W        W77297  26.175  18.581   3.293  0.1064 -0.1851  0.0669
34381W        W77298  29.992  17.099  31.365  0.2596  0.0382  0.0454
34382W        W77299  27.749  15.212   3.933  0.0550  0.2987 -0.0800
34383W        W77300  28.144  16.588   1.339  0.1088 -0.0589  0.0309
34384W        W77301  28.031  18.953   1.623  0.1331  0.1893  0.1479
34385W        W77302  25.808  15.127   2.498 -0.2744 -0.3430 -0.0736
34386W        W77303  28.289  16.638   3.604  0.1646  0.0619 -0.1017
34387W        W77304  25.591  15.302  29.689 -0.1207  0.0855  0.3230
34388W        W77305  29.336  14.428  31.661  0.1980 -0.4202  0.2165
34389W        W77306  27.724  18.051   0.455 -0.0659 -0.2276  0.2399
34390W        W77307  27.526  18.202   0.975  0.3890  0.1390  0.0629
34391W        W77308  28.961  14.977  30.539  0.2149 -0.2137  0.1958
34392W        W77309  22.898  15.067   1.380  0.3297 -0.0464  0.3659
34393W        W77310  24.366  19.146   1.176  0.1552 -0.2755 -0.3412
34394W        W77311  27.268  16.995   1.363 -0.1120 -0.0968  0.0316
34395W        W77312  26.784  17.215   1.412  0.2946  0.2480  0.1597
34396W        W77313  25.703  17.412   4.107  0.1015 -0.0004  0.2705
34397W        W77314  27.898  17.439   3.921  0.0529  0.0088 -0.1094
34398W        W77315  28.936  13.546  31.518  0.0889  0.2538  0.1217
34399W        W77316  29.795  16.421   2.688 -0.0997  0.2169  0.1921
34400W        W77317  24.282  17.311   0.743  0.1322 -0.2677 -0.3128
34401W        W77318  26.645  14.208   1.628  0.0021 -0.0061  0.0210
34402W        W77319  24.387  18.533   2.556  0.0634 -0.1859 -0.0954
34403W        W77320  22.991  18.172   0.887 -0.1300  0.1265 -0.0010
34404W        W77321  25.516  18.651   1.397 -0.0374  0.1556  0.5956
34405W        W77322  27.444  14.618   1.552 -0.1089  0.0072  0.0064
34406W        W77323  25.576  15.367   2.113 -0.1343 -0.0866 -0.0135
34407W        W77324  25.304  18.085   4.428  0.0146  0.2563  0.0589
34408W        W77325  27.337  15.843   1.621  0.1849  0.0448  0.4011
34409W        W77326  25.167  16.954   3.510 -0.3027 -0.0128 -0.1145
34410W        W77327  26.740  15.291   0.254  0.4063 -0.1532 -0.3551
34411W        W77328  26.248  19.931   2.984 -0.1861  0.3031 -0.0466
34412W        W77329  28.513  15.999   0.324  0.0782 -0.1806 -0.1315
34413W        W77330  26.150  17.060   0.777 -0.0626  0.1935  0.0247
34414W        W77331  25.698  15.720   2.574 -0.1264  0.1607 -0.0337
34415W        W77332  25.926  15.836   3.599 -0.1080 -0.1681  0.0950
34416W        W77333  27.797  18.400   3.205 -0.1838 -0.2343  0.0178
34417W        W77334  25.997  15.002   1.968 -0.1553  0.1999 -0.2742
34418W        W77335  26.319  17.694  28.717  0.1371  0.2308 -0.0180
34419W        W77336  24.511  17.139   2.448  0.1916 -0.0461 -0.1802
34420W        W77337  26.141  17.230   1.902  0.2181 -0.0302  0.1083
34421W        W77338  24.918  18.473   1.713  0.1004  0.2913  0.0785
34422W        W77339  28.918  17.140   1.962 -0.1092  0.1291  0.2592
34423W        W77340  27.680  16.718   1.132 -0.0313 -0.0550  0.2364
34424W        W77341  28.165  18.966   2.887  0.3546 -0.1327  0.0012
34425W        W77342  26.638  18.066   0.764 -0.1336 -0.0043 -0.3805
34426W        W77343  23.832  18.268   0.509  0.1260  0.1546 -0.1452
34427W        W77344  25.764  17.392   0.812  0.1910 -0.0392  0.2890
34428W        W77345  27.811  18.162  30.727 -0.0317  0.4422  0.3926
34429W        W77346  26.664  17.600   1.128 -0.0424 -0.1515 -0.1710
34430W        W77347  27.306  18.586   3.208 -0.0582 -0.1395 -0.0601
34431W        W77348  27.983  15.247  30.050 -0.2883 -0.1054 -0.1613
34432W        W77349  27.927  15.394   2.168  0.0665 -0.3192 -0.0170
34433W        W77350  29.400  16.108  30.741  0.1510  0.2878 -0.1421
34434W        W77351  28.472  17.962   2.866 -0.0591  0.0362 -0.0393
34435W        W77352  26.234  17.100   2.666 -0.0102 -0.0699  0.0457
34436W        W77353  29.283  15.696   1.018  0.1256 -0.0924  0.1168
34437W        W77354  25.212  15.453   3.429 -0.1729 -0.1761  0.1362
34438W        W77355  27.818  13.999   2.233  0.2159 -0.1493  0.1983
34439W        W77356  24.822  19.667   1.763  0.0654 -0.1338  0.2149
34440W        W77357  26.543  18.087   1.330 -0.1437  0.1985  0.0218
34441W        W77358  24.018  16.458  31.777  0.3098 -0.3304  0.0126
34442W        W77359  26.582  17.026   2.149 -0.1858  0.0226  0.1139
34443W        W77360  28.959  15.909   2.271 -0.1745  0.2390  0.1425
34444W        W77361  27.021  16.898  30.840  0.1215  0.1054  0.4234
34445W        W77362  26.468  15.048   2.360  0.0229 -0.1582 -0.2243
34446W        W77363  26.779  17.067  31.472 -0.0082 -0.0413 -0.1424
34447W        W77364  25.071  19.238   2.403  0.0347 -0.0018 -0.0455
34448W        W77365  26.740  18.700   1.455 -0.2483  0.0589 -0.0700
34449W        W77366  25.600  15.206   1.178  0.0895  0.0079 -0.0199
34450W        W77367  30.322  17.677   2.074 -0.0496 -0.0020  0.0177
34451W        W77368  26.103  14.591   2.231 -0.2805 -0.2009 -0.1004
34452W        W77369  28.802  15.054   2.764  0.0704 -0.1921 -0.1253
34453W        W77370  26.406  17.517   1.528 -0.1583 -0.1693 -0.1373
34454W        W77371  29.160  17.211   0.765 -0.2856 -0.0767  0.0626
34455W        W77372  24.079  16.912   2.882  0.4130 -0.1191  0.1579
34456W        W77373  22.730  17.910   2.542 -0.3349 -0.0190  0.0960
34457W        W77374  26.203  15.302   0.300  0.0051  0.0272  0.3219
34458W        W77375  30.296  16.802   2.176  0.1060 -0.1146  0.0047
34459W        W77376  26.647  18.720  29.754 -0.1029  0.0156  0.1227
34460W        W77377  29.240  20.703   1.973  0.2704  0.0784  0.0431
34461W        W77378  25.917  14.936   3.468 -0.1588 -0.0266  0.1212
34462W        W77379  27.930  16.836  31.930  0.0660  0.0519 -0.3137
34463W        W77380  24.747  18.063   0.905 -0.0634 -0.1905 -0.3225
34464W        W77381  25.688  16.521   3.048 -0.1338  0.0639  0.2941
34465W        W77382  27.841  17.322   2.920  0.1280  0.1677 -0.0465
34466W        W77383  25.413  16.213   0.077  0.3316 -0.4111  0.1151
34467W        W77384  29.453  17.141   2.294 -0.1203  0.1965  0.1460
34468W        W77385  24.971  15.613   3.043 -0.0289 -0.0876 -0.1649
34469W        W77386  26.309  17.518   0.793  0.0085  0.0098  0.3831
34470W        W77387  28.079  17.953   3.190 -0.0545  0.0616  0.0911
34471W        W77388  27.189  20.191   1.461 -0.2314 -0.3402  0.2138
34472W        W77389  25.071  16.414   0.804  0.0556  0.0745 -0.1550
34473W        W77390  28.191  17.382   1.949 -0.2602 -0.1367  0.0027
34474W        W77391  28.874  17.803   2.540  0.1171 -0.0496  0.1906
34475W        W77392  28.344  14.347  30.188  0.0738  0.0961  0.2022
34476W        W77393  25.764  16.398   0.447 -0.0928  0.1850  0.3604
34477W        W77394  25.872  19.589  31.371  0.2446 -0.0644  0.3176
34478W        W77395  27.785  16.254   1.360 -0.1553  0.0446 -0.1986
34479W        W77396  29.149  15.981   3.223 -0.2904 -0.2507 -0.1609
34480W        W77397  26.870  19.009  31.568  0.1787  0.2559 -0.3407
34481W        W77398  27.244  15.431   3.736  0.0491  0.1108 -0.3875
34482W        W77399  27.110  19.095   1.983  0.0362 -0.2026 -0.2782
34483W        W77400  26.156  17.989   2.759 -0.0030  0.3226  0.3483
34484W        W77401  27.181  17.498   1.682  0.2886 -0.0507  0.1147
34485W        W77402  24.458  18.077   2.401 -0.1694 -0.0541 -0.0594
34486W        W77403  26.092  16.886   0.205 -0.0997 -0.2495  0.1852
34487W        W77404  26.881  20.539   1.717  0.1121 -0.2823 -0.1946
34488W        W77405  28.568  18.428   2.076  0.3821  0.3449  0.1049
34489W        W77406  24.769  15.867   2.654  0.3550 -0.0794 -0.2552
34490W        W77407  29.548  16.871   0.738 -0.1420  0.1249  0.0310
34491W        W77408  27.406  15.355   1.538  0.3113 -0.2680  0.1922
34492W        W77409  29.823  14.109   1.552 -0.1969  0.2095  0.0614
34493W        W77410  28.631  14.853   0.693  0.2552 -0.1852 -0.1629
34494W        W77411  27.609  16.481   2.542 -0.0255  0.1309 -0.5367
34495W        W77412  25.869  16.189   1.092 -0.0694 -0.3256  0.1396
34496W        W77413  24.165  16.336   1.003 -0.2788  0.1681  0.0818
34497W        W77414  26.504  16.489   0.009 -0.0344  0.1147  0.2871
34498W        W77415  24.531  13.677   4.058  0.0166  0.0644  0.0561
34499W        W77416  25.109  15.389   1.153 -0.0934 -0.0898 -0.1697
34500W        W77417  23.574  18.637   1.430  0.4061 -0.0586  0.1429
34501W        W77418  26.142  16.528   1.580  0.0399 -0.0366 -0.0387
34502W        W77419  29.089  17.955   0.690 -0.1896 -0.3779  0.0114
34503W        W77420  23.862  15.819   1.830  0.0300  0.1044 -0.0801
34504W        W77421  26.158  13.466   2.679 -0.2540  0.0331 -0.0677
34505W        W77422  27.414  18.355   0.202  0.0124  0.1892  0.2040
34506W        W77423  27.249  17.631   2.214  0.1529 -0.0210  0.3291
34507W        W77424  24.786  14.091   0.638 -0.1801  0.1331  0.0890
34508W        W77425  29.178  18.632   2.689  0.0781  0.1101  0.1489
34509W        W77426  25.792  18.533   2.055 -0.0424  0.1925  0.1787
34510W        W77427  26.853  17.556   3.101  0.0789  0.1465 -0.2130
34511W        W77428  28.235  14.315   4.292  0.3431  0.1285  0.0663
34512W        W77429  27.580  17.065   0.209 -0.2452  0.0130  0.1427
34513W        W77430  26.335  14.760   2.742 -0.0909  0.3965  0.0493
34514W        W77431  27.278  16.762  31.283  0.0106  0.3253  0.0470
34515W        W77432  27.727  18.179  31.216  0.0062 -0.2466 -0.2037
34516W        W77433  28.125  17.025   3.276  0.0755 -0.2019 -0.2476
34517W        W77434  24.398  18.966   3.448  0.4018  0.0226 -0.0979
34518W        W77435  24.075  14.674   2.683 -0.2169 -0.1737  0.1070
34519W        W77436  26.731  17.277  29.728  0.0733  0.0138 -0.2109
34520W        W77437  26.121  19.431   4.428 -0.0371 -0.0348  0.1622
34521W        W77438  28.686  17.533   0.011  0.1034 -0.1863  0.0942
34522W        W77439  30.218  16.177   1.272 -0.5140 -0.1657  0.0287
34523W        W77440  26.573  18.203   0.162  0.3617 -0.1792  0.1835
34524W        W77441  24.008  15.009   3.088  0.0925  0.1882 -0.1059
34525W        W77442  23.566  17.418   1.591 -0.2517  0.0568 -0.1109
34526W        W77443  25.930  17.374   2.988  0.0352 -0.2142  0.5418
34527W        W77444  27.138  15.756   2.439  0.1662  0.1024  0.2087
34528W        W77445  28.497  14.487   1.428 -0.1884  0.2243  0.0904
34529W        W77446  27.932  19.016   0.731  0.2620  0.2344 -0.0771
34530W        W77447  25.263  16.697   1.663  0.0851 -0.0540  0.1365
34531W        W77448  29.062  17.157  31.227 -0.0086  0.2712 -0.2498
34532W        W77449  25.768  17.682   2.649 -0.0508 -0.1802  0.0785
34533W        W77450  27.546  18.928   1.786  0.2355  0.1518 -0.0887
34534W        W77451  27.385  17.803   2.638  0.0438 -0.3746 -0.0068
34535W        W77452  25.734  16.161  31.061 -0.1047  0.0343  0.2324
34536W        W77453  30.104  16.804  30.925  0.0639 -0.1751  0.0262
34537W        W77454  26.073  21.009   2.969 -0.2651  0.1507  0.1933
34538W        W77455  28.528  19.325   2.945  0.2461 -0.0417  0.1364
34539W        W77456  26.012  18.982   2.990 -0.0111  0.0625 -0.0106
34540W        W77457  29.893  17.461   1.657 -0.2422  0.1061  0.0622
34541W        W77458  25.279  16.010   2.798  0.0669  0.1557  0.1143
34542W        W77459  27.324  17.984   1.670 -0.1703  0.0459  0.1083
34543W        W77460  28.524  19.657   2.446  0.3618 -0.0059 -0.0336
34544W        W77461  25.468  16.074   0.657 -0.0697 -0.0157  0.1200
34545W        W77462  25.314  16.222   1.761  0.1640 -0.3545 -0.1329
34546W        W77463  30.303  15.315   0.304 -0.0681  0.0502  0.0337
34547W        W77464  25.632  16.947   3.797 -0.0512 -0.0986  0.0574
34548W        W77465  26.993  16.056   2.921  0.0757 -0.1175  0.0166
34549W        W77466  26.426  18.148   6.146 -0.1726  0.2610 -0.0258
34550W        W77467  23.680  16.652   3.760  0.1647 -0.0799  0.0276
34551W        W77468  28.180  14.908   2.231 -0.4320 -0.4746 -0.1059
34552W        W77469  28.003  16.625   5.527  0.3742 -0.1252 -0.1509
34553W        W77470  24.266  14.229   3.583  0.1596  0.0046  0.2728
34554W        W77471  27.002  17.245   3.575  0.4210  0.1639 -0.0875
34555W        W77472  27.198  11.965   7.913  0.3130 -0.2334 -0.1238
34556W        W77473  27.761  17.108   4.302 -0.1851  0.0717  0.0552
34557W        W77474  29.723  16.951   6.376 -0.4427 -0.0496 -0.2813
34558W        W77475  28.408  17.957   2.390  0.0535  0.4350 -0.4291
34559W        W77476  26.566  16.351   5.953  0.0710  0.0617 -0.2450
34560W        W77477  28.334  18.423   4.691 -0.0715 -0.0684  0.0816
34561W        W77478  27.370  16.794   3.648  0.0239  0.2579 -0.1568
34562W        W77479  26.488  14.823   5.855  0.3399  0.0894  0.0096
34563W        W77480  27.345  15.327   5.748  0.0207  0.1571 -0.1234
34564W        W77481  24.632  14.724   3.640 -0.2238  0.3009  0.0237
34565W        W77482  24.378  17.513   5.804  0.1890 -0.1891  0.3016
34566W        W77483  29.160  16.525   3.347 -0.0262  0.2299  0.0028
34567W        W77484  25.608  17.031   3.221  0.0368 -0.2552 -0.2773
34568W        W77485  27.050  14.455   5.088 -0.0071  0.0516 -0.2673
34569W        W77486  25.985  14.479   7.017 -0.1639  0.0118  0.0285
34570W        W77487  25.279  17.518   3.060 -0.0576  0.1438 -0.1069
34571W        W77488  26.112  16.904   3.131  0.1522  0.2498  0.3213
34572W        W77489  23.435  16.879   4.649 -0.3061 -0.0030 -0.0734
34573W        W77490  25.849  16.258   5.104 -0.1407 -0.0858  0.0682
34574W        W77491  25.059  16.306   3.653 -0.0087  0.1079 -0.0698
34575W        W77492  29.201  15.815   5.875  0.0740  0.2916  0.2397
34576W        W77493  26.177  17.567   5.497  0.0798 -0.2904  0.0267
34577W        W77494  27.843  18.010   4.720  0.2107 -0.1564 -0.1504
34578W        W77495  29.906  16.653   6.035 -0.1363  0.1083 -0.0924
34579W        W77496  23.652  16.232   7.438 -0.0577 -0.1583 -0.1635
34580W        W77497  24.075  18.180   4.045 -0.3551  0.2059  0.0847
34581W        W77498  24.113  16.343   3.388 -0.2523 -0.2097 -0.0807
34582W        W77499  29.730  18.633   2.741  0.2901 -0.1511 -0.2338
34583W        W77500  29.003  17.186   5.618  0.1797  0.2542 -0.5753
34584W        W77501  25.804  17.744   6.923  0.0404 -0.1140 -0.1711
34585W        W77502  28.114  17.046   2.258  0.2345 -0.1114 -0.2834
34586W        W77503  27.450  20.177   6.040 -0.1160 -0.0194 -0.0383
34587W        W77504  26.860  19.169   7.981 -0.0951  0.1158 -0.4670
34588W        W77505  26.799  16.130   5.297 -0.0849 -0.2676 -0.1810
34589W        W77506  25.747  14.066   4.168 -0.1338 -0.0617 -0.1452
34590W        W77507  24.297  17.357   4.908 -0.1576 -0.0028  0.3776
34591W        W77508  27.357  17.357   3.943  0.1421  0.1065  0.4215
34592W        W77509  26.799  16.590   5.541 -0.3644 -0.0413  0.0218
34593W        W77510  25.596  17.234   4.793  0.0053  0.0514 -0.5265
34594W        W77511  27.919  14.733   4.939 -0.1288  0.0265 -0.1325
34595W        W77512  24.818  18.381   2.218 -0.1597  0.3034 -0.1568
34596W        W77513  29.315  16.284   2.380  0.0204 -0.1188 -0.0547
34597W        W77514  24.492  16.618   4.363  0.0438  0.0879 -0.0927
34598W        W77515  27.484  16.049   4.173 -0.1559  0.1740 -0.0360
34599W        W77516  25.581  12.821   6.068  0.1187  0.1041  0.0624
34600W        W77517  25.252  16.934   7.164 -0.1107  0.0272 -0.0134
34601W        W77518  26.025  15.428   6.314  0.0939 -0.2237  0.3329
34602W        W77519  29.129  16.934   6.498  0.1093 -0.2959  0.0191
34603W        W77520  27.843  16.056   2.761 -0.0632 -0.0354  0.2506
34604W        W77521  27.628  11.842   5.572 -0.0547 -0.2612  0.0259
34605W        W77522  23.997  17.130   6.364  0.2207  0.1008  0.0573
34606W        W77523  25.238  16.253   4.730 -0.2071  0.1525  0.0283
34607W        W77524  27.446  17.150   2.046  0.0082  0.2782  0.2528
34608W        W77525  29.869  17.521   5.443 -0.1018  0.7594 -0.2129
34609W        W77526  27.509  17.644   4.390 -0.2470 -0.1716 -0.1717
34610W        W77527  24.257  16.831   3.337  0.0328  0.0169  0.0925
34611W        W77528  24.136  14.854   7.728 -0.1165 -0.1106 -0.0837
34612W        W77529  22.840  14.742   8.137  0.0779 -0.2616  0.3851
34613W        W77530  27.551  13.653   3.429 -0.2145 -0.1078  0.1927
34614W        W77531  28.228  17.035   4.428 -0.1634  0.1439  0.0431
34615W        W77532  24.164  16.988   6.896 -0.0922  0.0826 -0.0601
34616W        W77533  27.090  15.980   3.847  0.1340  0.0359  0.1885
34617W        W77534  26.748  16.194   4.159 -0.0397 -0.1336  0.0832
34618W        W77535  28.027  17.755   6.387  0.4570 -0.0694  0.0931
34619W        W77536  27.619  15.976   4.701  0.1184 -0.2646 -0.3869
34620W        W77537  28.576  13.376   6.271  0.0475 -0.1279 -0.2268
34621W        W77538  28.573  13.890   5.703 -0.1104  0.0160 -0.1470
34622W        W77539  23.995  16.354   2.739  0.2722 -0.2988  0.0253
34623W        W77540  27.011  15.408   4.668 -0.1658  0.0661  0.4661
34624W        W77541  29.293  16.834   5.940 -0.0354  0.0195 -0.0150
34625W        W77542  29.268  17.476   3.260 -0.2924  0.1621  0.1779
34626W        W77543  24.847  16.452   5.040  0.1972 -0.2387 -0.1840
34627W        W77544  25.766  16.918   5.846 -0.0043 -0.2085  0.0571
34628W        W77545  28.460  17.717   5.508  0.0104  0.2562 -0.1813
34629W        W77546  24.203  18.127   1.254 -0.1456  0.1166  0.2060
34630W        W77547  24.581  14.865   5.974  0.0611  0.0725 -0.2915
34631W        W77548  24.403  16.759   2.017 -0.2018 -0.0735 -0.1132
34632W        W77549  27.058  14.887   5.861 -0.0463 -0.0312  0.0374
34633W        W77550  28.051  17.550   5.255 -0.3966  0.2562 -0.0945
34634W        W77551  28.916  14.999   4.579  0.1140  0.2153  0.4748
34635W        W77552  24.244  16.290   3.901  0.0582 -0.2903  0.1646
34636W        W77553  28.290  15.643   6.158 -0.1368 -0.0830  0.3475
34637W        W77554  25.483  16.579   3.479  0.1808 -0.2302  0.1055
34638W        W77555  29.232  17.946   4.355  0.0787 -0.0478 -0.2751
34639W        W77556  27.280  16.078   5.894 -0.1899  0.0622  0.2143
34640W        W77557  26.456  16.177   2.851 -0.0940 -0.0331 -0.0836
34641W        W77558  25.339  16.932   6.118 -0.0014 -0.1471 -0.1202
34642W        W77559  24.684  17.211   3.865 -0.0773  0.1210 -0.0899
34643W        W77560  26.577  15.627   6.447 -0.0683  0.1717  0.2561
34644W        W77561  25.110  16.054   5.697 -0.0988 -0.3518  0.1582
34645W        W77562  29.870  17.040   7.129 -0.1210  0.0440 -0.4059
34646W        W77563  23.386  12.612   3.483 -0.0833  0.1821  0.0750
34647W        W77564  26.510  16.601   3.356 -0.0250  0.1124 -0.2307
34648W        W77565  26.881  16.627   4.514  0.0930  0.3036  0.1254
34649W        W77566  25.588  15.384   4.605  0.2231 -0.2001 -0.0050
34650W        W77567  27.964  15.353   4.995 -0.1369  0.1016 -0.1611
34651W        W77568  26.199  18.695   4.935  0.1895 -0.1306 -0.0610
34652W        W77569  29.997  20.174   6.025  0.3316 -0.0739  0.0175
34653W        W77570  28.483  16.318   3.957 -0.2495 -0.1690  0.0329
34654W        W77571  28.037  14.144   6.308 -0.3091  0.2282  0.0454
34655W        W77572  25.191  16.711   4.119 -0.1539  0.1726  0.1678
34656W        W77573  23.454  20.072   3.958  0.1157  0.2801 -0.0399
34657W        W77574  26.494  15.803   5.542  0.1081  0.1915  0.0265
34658W        W77575  26.102  16.790   2.187 -0.1827 -0.0131 -0.2592
34659W        W77576  29.483  18.803   5.458 -0.1686 -0.0932 -0.1561
34660W        W77577  26.856  16.576   3.013 -0.1182  0.3781  0.0532
34661W        W77578  26.137  16.534   7.225  0.3155  0.0658 -0.1740
34662W        W77579  28.761  13.726   4.852 -0.2329 -0.2712 -0.3396
34663W        W77580  28.108  16.020   5.885 -0.3405  0.3659 -0.0327
34664W        W77581  26.324  15.306   5.171 -0.0021  0.5337  0.0410
34665W        W77582  25.780  14.042   3.462  0.0627  0.2645  0.3064
34666W        W77583  26.667  17.157   5.237  0.2989  0.0462  0.0409
34667W        W77584  25.314  17.741   3.987  0.1609 -0.0210 -0.1884
34668W        W77585  24.845  16.820   6.880 -0.1554  0.1505 -0.0932
34669W        W77586  25.929  18.207   6.173  0.1284  0.0625 -0.0244
34670W        W77587  27.218  16.422   4.031  0.5997  0.0846 -0.0399
34671W        W77588  25.445  16.406   6.259 -0.0522 -0.2148 -0.1353
34672W        W77589  28.655  16.247   5.805  0.0932 -0.0933  0.0391
34673W        W77590  25.521  16.459   4.356  0.2754 -0.1023  0.1739
34674W        W77591  26.652  18.900   6.654  0.1918 -0.0440 -0.0124
34675W        W77592  29.107  15.311   3.119  0.0922 -0.3413  0.0582
34676W        W77593  28.812  16.246   3.610  0.2014  0.1380 -0.1619
34677W        W77594  28.671  17.417   6.637 -0.3087  0.1142 -0.0234
34678W        W77595  27.144  16.975   5.201  0.1360  0.0180  0.0168
34679W        W77596  28.928  15.828   2.789  0.1861  0.0138 -0.0184
34680W        W77597  26.395  15.223   2.815 -0.0247 -0.1108  0.2048
34681W        W77598  24.421  15.736   6.435 -0.5424  0.2189 -0.0248
34682W        W77599  26.644  17.852   4.392  0.0497 -0.0291 -0.1992
34683W        W77600  26.672  14.690   4.570 -0.2546  0.0144 -0.3516
34684W        W77601  27.841  16.865   3.828 -0.0377  0.1063 -0.2566
34685W        W77602  30.099  18.698   4.032 -0.0679  0.0888 -0.0688
34686W        W77603  23.990  17.710   4.378 -0.2039  0.4533 -0.3013
34687W        W77604  29.427  18.279   6.925  0.2577  0.0491 -0.3298
34688W        W77605  28.800  18.281   4.905 -0.1977  0.0595 -0.0611
34689W        W77606  26.689  13.976   6.279  0.0996  0.0944 -0.3063
34690W        W77607  26.887  17.067   4.714 -0.0519 -0.3283 -0.1148
34691W        W77608  27.877  15.664   4.377 -0.1579  0.1442 -0.0475
34692W        W77609  23.243  17.480   3.227 -0.1777  0.1309 -0.0233
34693W        W77610  29.772  14.583   5.345 -0.0467  0.0010  0.1277
34694W        W77611  28.593  13.415   5.207  0.0715  0.2606 -0.3099
34695W        W77612  26.870  14.545   7.104  0.1443 -0.1156 -0.4490
34696W        W77613  29.276  15.550   6.339 -0.3888  0.0103 -0.0418
34697W        W77614  27.196  16.824   0.807 -0.0287  0.2874 -0.0596
34698W        W77615  28.160  13.435   6.585 -0.1605  0.0334 -0.1633
34699W        W77616  24.493  15.512   2.490 -0.1994  0.5065  0.0252
34700W        W77617  26.760  14.082   5.466  0.4177 -0.3879  0.0032
34701W        W77618  25.513  15.626   6.113 -0.1641  0.1857  0.2916
34702W        W77619  26.083  17.764   6.522 -0.2055  0.0766 -0.3799
34703W        W77620  28.381  18.671   7.209 -0.1862 -0.0963 -0.0370
34704W        W77621  28.067  16.968   6.134 -0.0131 -0.0036 -0.0358
34705W        W77622  25.858  15.325   6.776 -0.0358  0.2230 -0.0369
34706W        W77623  28.717  15.768   1.776 -0.1571 -0.0920 -0.0035
34707W        W77624  25.243  20.199   2.801 -0.0204  0.1501 -0.1388
34708W        W77625  25.177  17.033   2.073 -0.1972 -0.1336  0.0632
34709W        W77626  26.566  13.964   4.367  0.1381 -0.3532 -0.1051
34710W        W77627  27.754  16.511   6.021 -0.3072 -0.5044  0.2765
34711W        W77628  25.574  18.336   3.907  0.0805 -0.5722 -0.3537
34712W        W77629  27.928  17.536   3.416 -0.1570  0.1743  0.1285
34713W        W77630  23.838  15.516   2.300  0.0023 -0.0186 -0.0362
34714W        W77631  26.360  14.375   5.598  0.2830 -0.1826  0.0865
34715W        W77632  26.507  18.444   6.644 -0.2104 -0.0228 -0.2747
34716W        W77633  26.003  15.759   4.571 -0.0603 -0.1386 -0.2028
34717W        W77634  25.044  17.513   3.569 -0.2180 -0.0550 -0.0513
34718W        W77635  27.897  15.963   3.292  0.0621  0.0118  0.0417
34719W        W77636  26.311  16.259   3.740  0.0028 -0.0550  0.1238
34720W        W77637  25.603  16.186   5.825 -0.2729 -0.1922 -0.2560
34721W        W77638  27.195  12.706   5.933  0.2142 -0.2252 -0.1632
34722W        W77639  24.259  19.246   6.078  0.2079  0.0502  0.2403
34723W        W77640  27.367  15.533   4.229  0.0455 -0.1968  0.2973
34724W        W77641  27.965  16.153   4.325  0.0108 -0.1090  0.0114
34725W        W77642  28.685  16.732   5.935 -0.0580  0.2206  0.0559
34726W        W77643  28.257  14.989   5.249  0.2124  0.0571 -0.0254
34727W        W77644  24.381  15.077   3.857 -0.0799  0.2984 -0.1347
34728W        W77645  30.477  15.516   6.502 -0.0898  0.1139 -0.2569
34729W        W77646  27.273  16.496   5.448 -0.1844 -0.3600  0.0308
34730W        W77647  26.228  18.137   4.170  0.1184  0.0538 -0.0904
34731W        W77648  29.347  17.527   5.431  0.0528  0.2767 -0.1888
34732W        W77649  23.831  17.869   5.227 -0.2105 -0.0954 -0.2089
34733W        W77650  26.066  17.337   4.527 -0.3342  0.0087  0.1113
34734W        W77651  25.361  14.079   8.165 -0.0969 -0.1175  0.2099
34735W        W77652  28.195  15.144   6.251  0.1656  0.1294 -0.3071
34736W        W77653  25.896  15.075   3.993 -0.1408 -0.0750 -0.0270
34737W        W77654  24.902  14.502   5.031  0.1176  0.1241  0.1070
34738W        W77655  26.721  16.688   5.053 -0.0131 -0.2038  0.0695
34739W        W77656  27.106  17.814   4.119  0.0238 -0.0110 -0.1519
34740W        W77657  27.708  15.978   6.130  0.3427  0.1992 -0.0275
34741W        W77658  26.693  17.328   7.455  0.3282  0.1042  0.1116
34742W        W77659  25.566  13.778   4.538 -0.0912  0.3110 -0.1714
34743W        W77660  28.041  18.289   5.560  0.2133  0.2381 -0.1268
34744W        W77661  26.821  15.368   5.941  0.0661  0.0322  0.1163
34745W        W77662  26.941  16.861   3.834  0.1028 -0.2208  0.1538
34746W        W77663  25.638  17.783   4.826 -0.1510  0.0721  0.2154
34747W        W77664  27.521  16.105   3.683  0.2205  0.0924  0.3779
34748W        W77665  26.897  14.990   4.970 -0.1987  0.0991 -0.0475
34749W        W77666  24.713  17.837   5.094  0.2785  0.1189  0.2640
34750W        W77667  26.794  17.227   2.724 -0.2738 -0.0162  0.2769
34751W        W77668  26.263  17.081   5.637 -0.0336 -0.1577 -0.2588
34752W        W77669  29.406  15.438   4.562 -0.2828 -0.3322 -0.0399
34753W        W77670  27.621  17.816   3.085  0.1593 -0.0979  0.2791
34754W        W77671  28.351  16.233   5.399  0.0143  0.0003  0.0541
34755W        W77672  28.514  14.310   6.064  0.3688  0.1389 -0.2446
34756W        W77673  27.153  15.850   4.940  0.1152  0.1787 -0.1160
34757W        W77674  28.308  15.128   7.318 -0.0477 -0.0409 -0.1165
34758W        W77675  25.287  15.301   5.737  0.4247  0.0247  0.2550
34759W        W77676  29.665  17.791   4.685  0.0941 -0.1327 -0.1560
34760W        W77677  25.580  15.924   4.834 -0.2272  0.4687  0.1733
34761W        W77678  27.448  17.508   5.914 -0.0787 -0.0763 -0.1510
34762W        W77679  24.493  16.227   8.172  0.1510  0.2546  0.1311
34763W        W77680  26.065  16.763   3.603  0.2590 -0.2011 -0.0071
34764W        W77681  26.390  14.684   3.228 -0.1740  0.4502  0.3886
34765W        W77682  26.701  15.634   5.133  0.3460 -0.2495 -0.1031
34766W        W77683  29.131  18.210   3.955 -0.0628  0.0196 -0.2132
34767W        W77684  26.503  17.038   3.655 -0.0116  0.2386  0.1220
34768W        W77685  28.585  15.094   5.615 -0.1670  0.3681 -0.0216
34769W        W77686  26.420  15.190   6.739  0.4126 -0.3440  0.1653
34770W        W77687  27.162  15.371   5.209 -0.1946  0.2591  0.1324
34771W        W77688  28.295  16.474   2.623 -0.0851  0.0544  0.0779
34772W        W77689  27.132  16.490   4.956  0.2076 -0.0948  0.1758
34773W        W77690  26.341  14.803   7.013  0.0638  0.1576  0.0961
34774W        W77691  29.025  16.511   5.601  0.2383  0.0948 -0.1121
34775W        W77692  26.325  15.674   3.253 -0.1333 -0.0583  0.4011
34776W        W77693  26.681  14.687   5.371 -0.2198  0.2065  0.0295
34777W        W77694  26.685  16.248   4.796  0.3137  0.0227  0.0030
34778W        W77695  27.073  16.642   5.965 -0.4628  0.1098 -0.2735
34779W        W77696  24.488  15.445   5.903  0.0361  0.2466  0.0465
34780W        W77697  29.439  19.285   5.214 -0.1872 -0.0514  0.1212
34781W        W77698  28.849  16.849   2.881  0.3505  0.1420  0.2126
34782W        W77699  28.652  14.754   6.447 -0.0629  0.0822  0.2747
34783W        W77700  27.135  17.138   5.785 -0.0759  0.2552 -0.3483
34784W        W77701  24.522  17.170   4.407 -0.2239 -0.1403  0.0871
34785W        W77702  23.780  16.043   3.585 -0.0186 -0.2521 -0.2103
34786W        W77703  28.545  18.163   8.503  0.0026  0.2354 -0.2473
34787W        W77704  27.532  15.529   3.375  0.0709  0.0244 -0.1151
34788W        W77705  28.217  16.677   4.990 -0.0002 -0.0823 -0.4065
34789W        W77706  24.910  18.494   3.536  0.0541  0.2838  0.5273
34790W        W77707  27.386  18.459   5.563  0.0051  0.0679 -0.1341
34791W        W77708  24.803  17.309   4.968  0.0313  0.4677  0.1985
34792W        W77709  25.598  15.851   5.362  0.1577 -0.3434  0.1489
34793W        W77710  25.018  18.052   6.960 -0.2351  0.1072  0.2159
34794W        W77711  25.851  16.046   2.942  0.1914 -0.3516 -0.4214
34795W        W77712  24.459  18.228   3.581 -0.3257  0.1030 -0.0375
34796W        W77713  28.658  17.304   5.314 -0.2603 -0.0933 -0.1835
34797W        W77714  28.545  14.346   5.504 -0.1739 -0.3094  0.2207
34798W        W77715  27.452  14.956   4.923 -0.1099 -0.1802 -0.4408
34799W        W77716  27.669  14.481   6.499 -0.0363 -0.0014  0.0862
34800W        W77717  25.377  16.739   2.439  0.1889  0.1835  0.1461
34801W        W77718  28.105  13.901   4.031 -0.2017  0.1500 -0.0929
34802W        W77719  23.654  18.038   5.770 -0.0689 -0.1353 -0.1276
34803W        W77720  25.714  13.590   6.756 -0.2652 -0.0080  0.0116
34804W        W77721  24.702  17.067   3.358 -0.0784 -0.0292 -0.2992
34805W        W77722  27.856  13.002   6.677  0.0200 -0.1047  0.0667
34806W        W77723  26.816  15.534   4.223 -0.3421  0.1095 -0.3559
34807W        W77724  27.619  14.688   5.637  0.0189 -0.1186 -0.0001
34808W        W77725  30.666  15.653   4.407 -0.1411  0.2386  0.0244
34809W        W77726  27.062  17.266   6.256 -0.1323  0.1316 -0.0897
34810W        W77727  26.009  16.089   4.110 -0.3140 -0.0153 -0.2799
34811W        W77728  26.153  17.237   6.781  0.1167 -0.0426 -0.1627
34812W        W77729  31.571  17.785   4.957  0.0250  0.1041 -0.3476
34813W        W77730  26.534  17.389   4.534 -0.1161  0.2301  0.1184
34814W        W77731  26.085  14.948   5.484 -0.0910 -0.1767 -0.3228
34815W        W77732  28.370  15.293   6.794 -0.2637 -0.4112  0.1889
34816W        W77733  27.728  16.754   5.144  0.1282 -0.0275 -0.2920
34817W        W77734  25.286  15.376   5.054  0.0914 -0.0972 -0.0020
34818W        W77735  26.421  17.913   1.909  0.0060  0.2723  0.1884
34819W        W77736  26.816  19.557   7.594  0.3673 -0.1403  0.1096
34820W        W77737  24.444  17.169   6.198  0.0143  0.3791 -0.3650
34821W        W77738  25.283  17.486   5.118 -0.1573 -0.1284 -0.2930
34822W        W77739  27.141  16.316   3.353 -0.0949  0.2884 -0.1962
34823W        W77740  27.427  18.131   4.402 -0.1315  0.0590 -0.1356
34824W        W77741  28.868  17.254   6.100 -0.0478 -0.0196 -0.0789
34825W        W77742  28.204  15.675   5.402 -0.0885  0.0491 -0.3065
34826W        W77743  23.854  16.933   5.025  0.2067  0.4105  0.1244
34827W        W77744  24.812  18.371   4.581  0.0548 -0.1596 -0.0738
34828W        W77745  29.008  18.226   2.954  0.4279  0.2472  0.1805
34829W        W77746  25.284  17.544   4.565 -0.2359 -0.1541  0.2264
34830W        W77747  29.887  15.364   8.153 -0.2404  0.1184 -0.3502
34831W        W77748  27.030  13.617   5.338  0.0052 -0.0275 -0.0614
34832W        W77749  29.760  16.112   5.212 -0.1900  0.0840 -0.3251
34833W        W77750  27.690  17.004   5.796  0.3118 -0.0880  0.2438
34834W        W77751  28.518  19.054   7.643  0.2023 -0.0967  0.0187
34835W        W77752  28.658  17.772   5.005 -0.0703 -0.0542 -0.3288
34836W        W77753  28.035  16.370   1.780 -0.0395  0.2069 -0.3364
34837W        W77754  26.243  15.915   6.033 -0.2084 -0.2657 -0.1659
34838W        W77755  26.513  13.036   8.293 -0.0189  0.0732  0.0921
34839W        W77756  24.619  18.813   6.629 -0.2075 -0.0693 -0.0499
34840W        W77757  26.311  17.182   4.125  0.1143  0.0334  0.1259
34841W        W77758  25.119  16.230   4.141  0.1683  0.2593 -0.0567
34842W        W77759  25.604  14.843   5.622  0.2373 -0.1131 -0.1126
34843W        W77760  29.111  14.896   6.074 -0.0792  0.2318  0.1554
34844W        W77761  25.369  17.321   2.429  0.1267  0.0694 -0.0489
34845W        W77762  25.721  15.327   5.421 -0.3779  0.2530  0.0577
34846W        W77763  24.937  16.675   4.548 -0.0861  0.2081 -0.0709
34847W        W77764  25.242  16.497   6.880 -0.1257  0.3089 -0.0044
34848W        W77765  24.156  18.331   5.321  0.1792  0.3080  0.0011
34849W        W77766  24.236  13.769   2.470  0.2579 -0.0526 -0.0228
34850W        W77767  30.567  16.197   4.987  0.1137 -0.0222 -0.0116
34851W        W77768  26.009  15.679   5.561 -0.2866 -0.0044 -0.0509
34852W        W77769  27.335  16.386   6.353 -0.2619 -0.2535  0.0853
34853W        W77770  26.523  15.249   4.706 -0.0151  0.0333 -0.0929
34854W        W77771  26.328  16.364   4.382  0.4363  0.3035 -0.3259
34855W        W77772  27.551  17.334   5.359 -0.0516 -0.1514  0.1238
34856W        W77773  25.699  17.780   5.326  0.2684 -0.1532 -0.1340
34857W        W77774  26.770  17.057   4.233  0.0048 -0.2601  0.1337
34858W        W77775  31.140  15.872   7.054 -0.0178  0.0073 -0.2349
34859W        W77776  29.213  15.895   1.545  0.0097 -0.2696 -0.0674
34860W        W77777  29.067  18.598   5.820  0.0630 -0.4081 -0.1547
34861W        W77778  25.876  15.484   4.968 -0.0256  0.0664  0.1523
34862W        W77779  26.800  15.023   4.251  0.2366  0.0436  0.2895
34863W        W77780  25.909  16.238   4.592  0.2342  0.1491  0.0507
34864W        W77781  26.145  15.266   7.220 -0.0607 -0.0004  0.1745
34865W        W77782  26.900  18.276   5.840  0.2167  0.1138  0.2106
34866W        W77783  25.259  13.999   4.145 -0.2741 -0.0378  0.3076
34867W        W77784  28.443  17.446   3.614 -0.2005  0.1100  0.0131
34868W        W77785  26.794  16.395   3.721 -0.0615 -0.1076 -0.0035
34869W        W77786  25.853  18.600   4.294 -0.3127  0.0973 -0.2874
34870W        W77787  27.935  17.241   4.842  0.2058  0.1570  0.3139
34871W        W77788  27.909  16.669   4.614  0.0413 -0.2834 -0.0335
34872W        W77789  24.043  16.646   4.642  0.2943  0.0436  0.1855
34873W        W77790  28.870  15.794   6.306  0.1384 -0.0276 -0.1616
34874W        W77791  28.874  17.625   5.788 -0.2154 -0.2060 -0.2100
34875W        W77792  25.488  15.042   3.257  0.3308 -0.0635 -0.0925
34876W        W77793  26.178  17.074   5.118  0.0423  0.0698 -0.0458
34877W        W77794  23.654  18.478   5.322  0.0674  0.1713  0.0516
34878W        W77795  27.790  14.887   6.164  0.2899  0.3114  0.3712
34879W        W77796  29.151  15.051   5.556 -0.1869 -0.0505  0.2715
34880W        W77797  27.039  17.470   4.444  0.3002  0.1997 -0.3052
34881W        W77798  27.428  17.394   4.859  0.0799  0.0489 -0.2276
34882W        W77799  28.709  18.672   6.697  0.0361  0.0024  0.0484
34883W        W77800  26.209  17.627   6.005 -0.0036 -0.0283 -0.2105
34884W        W77801  23.650  17.726   3.059 -0.1648 -0.3784 -0.2540
34885W        W77802  26.426  16.846   4.599  0.0526  0.2780  0.0445
34886W        W77803  24.882  18.053   4.167 -0.0716  0.3216  0.1472
34887W        W77804  25.226  17.180   3.968  0.0421 -0.2811  0.1873
34888W        W77805  28.847  18.119   5.961 -0.1380 -0.0055  0.3270
34889W        W77806  24.852  13.257   3.300 -0.3001 -0.2657  0.1448
34890W        W77807  27.467  16.409   4.596  0.1027  0.1735 -0.0634
34891W        W77808  26.430  16.696   4.070 -0.3646  0.0194  0.0186
34892W        W77809  28.596  12.925   4.078  0.0776 -0.3953  0.0790
34893W        W77810  29.029  15.820   3.789 -0.0535 -0.1336 -0.0741
34894W        W77811  26.638  14.082   3.883  0.1254 -0.0529  0.0732
34895W        W77812  24.882  16.416   2.786 -0.0683 -0.1699  0.2322
34896W        W77813  24.036  19.355   2.687 -0.0684  0.1629  0.0504
34897W        W77814  25.902  16.923   7.057 -0.1422  0.0339  0.1787
34898W        W77815  26.830  13.206   5.657  0.3278  0.3336 -0.0927
34899W        W77816  26.357  14.465   4.969  0.0720  0.0403  0.2729
34900W        W77817  24.710  16.461   5.592  0.0965  0.1020  0.1417
34901W        W77818  26.073  14.879   4.972 -0.0242 -0.2092 -0.1338
34902W        W77819  28.801  16.734   3.571 -0.1495  0.0770 -0.4158
34903W        W77820  26.373  15.785   4.176  0.0999 -0.0156 -0.2225
34904W        W77821  23.630  14.793   4.031 -0.2865 -0.1062  0.0759
34905W        W77822  29.601  17.082   3.199  0.2503  0.0648  0.2975
34906W        W77823  29.455  16.780   2.723 -0.3166 -0.0564 -0.0454
34907W        W77824  26.028  16.288   3.354  0.2324 -0.1515 -0.0240
34908W        W77825  29.512  18.682   7.206  0.1237  0.1015  0.1466
34909W        W77826  24.719  15.977   4.023  0.1924 -0.1301 -0.0301
34910W        W77827  28.243  14.770   5.875 -0.1310  0.2186 -0.1950
34911W        W77828  27.414  14.542   6.052 -0.1736 -0.2134  0.2637
34912W        W77829  26.542  14.204   2.981 -0.0022 -0.2804  0.1035
34913W        W77830  26.428  13.435   4.435  0.1980  0.2531 -0.2632
34914W        W77831  25.143  16.146   2.355 -0.1777  0.0588 -0.0030
34915W        W77832  26.937  18.352   4.341 -0.0051 -0.0436 -0.0848
34916W        W77833  26.149  16.176   5.507  0.3192  0.3959  0.2553
34917W        W77834  25.728  17.604   5.805  0.1324  0.1808  0.2434
34918W        W77835  25.584  14.991   5.071 -0.2352  0.1119  0.2677
34919W        W77836  28.107  18.829   4.923  0.1642 -0.2017 -0.0952
34920W        W77837  25.368  16.960   6.687 -0.3193 -0.0090  0.2620
34921W        W77838  29.691  18.329   3.717 -0.4409  0.0628 -0.0364
34922W        W77839  26.787  14.329   5.925 -0.1875 -0.0991  0.2169
34923W        W77840  28.909  16.149   4.177 -0.0211  0.2073 -0.1638
34924W        W77841  24.932  17.012   6.392 -0.2233  0.1359  0.0398
34925W        W77842  25.591  14.807   6.741 -0.3916  0.0989  0.0347
34926W        W77843  31.471  17.572   4.016 -0.3807  0.1913  0.0579
34927W        W77844  25.892  15.578   4.109  0.3142  0.3335  0.2617
34928W        W77845  29.130  16.988   4.710 -0.1924 -0.1388 -0.1560
34929W        W77846  28.877  17.695   3.062 -0.1669  0.0006 -0.0048
34930W        W77847  24.029  17.626   3.797 -0.0177 -0.0009 -0.2030
34931W        W77848  28.509  17.980   3.407  0.1519  0.3057  0.1708
34932W        W77849  26.364  15.298   4.150 -0.2347 -0.1589  0.0094
34933W        W77850  28.874  17.031   6.897 -0.0207  0.3206 -0.1749
34934W        W77851  29.319  16.812   7.125 -0.1092 -0.1507 -0.1262
34935W        W77852  25.690  17.234   5.350 -0.0688 -0.1309 -0.0044
34936W        W77853  29.391  17.945   2.073  0.0961  0.4183 -0.1096
34937W        W77854  28.590  17.006   4.953  0.1022  0.1649  0.1107
34938W        W77855  27.108  17.654   6.689 -0.1542 -0.0408  0.1861
34939W        W77856  27.392  17.888   4.953  0.2023 -0.1157 -0.1268
34940W        W77857  29.214  16.345   5.064 -0.0770 -0.0046  0.1305
34941W        W77858  26.327  14.366   6.151 -0.2366  0.2069  0.0420
34942W        W77859  26.124  14.511   3.577  0.3921  0.0386 -0.0010
34943W        W77860  25.400  17.886   2.348  0.2500 -0.0619  0.1596
34944W        W77861  26.694  15.579   7.066 -0.2319 -0.2680  0.0520
34945W        W77862  25.729  14.585   4.699 -0.4132 -0.1885  0.0104
34946W        W77863  28.591  15.791   5.003 -0.2630  0.4074  0.2842
34947W        W77864  24.525  17.156   7.881 -0.1466 -0.1907  0.0225
34948W        W77865  27.704  17.353   6.296 -0.0301 -0.1174  0.2270
34949W        W77866  26.414  20.640   9.549 -0.3173  0.1797 -0.1131
34950W        W77867  27.344  15.230   7.810  0.2183  0.0218  0.1842
34951W        W77868  27.797  15.454   6.170  0.4948 -0.1080  0.0604
34952W        W77869  29.167  14.040   8.360  0.0604 -0.1235 -0.1062
34953W        W77870  24.966  13.788   8.489 -0.0561 -0.3956  0.0801
34954W        W77871  28.145  19.032   8.186  0.0708  0.4892 -0.0825
34955W        W77872  29.270  15.894   7.307 -0.3929 -0.1049  0.0939
34956W        W77873  27.987  17.283   8.610  0.0601  0.1655 -0.0419
34957W        W77874  28.390  16.290   6.913 -0.2620 -0.1658  0.2350
34958W        W77875  26.859  17.276   8.315  0.1979 -0.1351 -0.0591
34959W        W77876  26.375  14.272   7.226 -0.2791 -0.0803 -0.2556
34960W        W77877  26.969  15.568   8.034  0.3671  0.2405 -0.0458
34961W        W77878  28.727  15.670   7.568  0.1611  0.3992  0.1364
34962W        W77879  25.677  15.822   7.689  0.0033 -0.2420  0.1089
34963W        W77880  27.122  15.681   9.199  0.1034  0.0022  0.2854
34964W        W77881  26.499  14.702   8.037  0.0023  0.1297 -0.1780
34965W        W77882  26.697  18.930   8.505 -0.2381  0.2350  0.0991
34966W        W77883  26.243  15.771   8.772 -0.1000 -0.1601  0.2840
34967W        W77884  27.223  16.535   7.318  0.0291 -0.3692 -0.1054
34968W        W77885  25.520  14.554   7.249  0.0926  0.0478  0.1791
34969W        W77886  25.639  15.918   8.779  0.1887  0.0789 -0.0074
34970W        W77887  27.644  15.931   8.498 -0.0554  0.1318  0.3244
34971W        W77888  28.852  15.253   8.506  0.0805 -0.0752 -0.3518
34972W        W77889  26.921  17.672   9.061 -0.1507  0.0929 -0.0396
34973W        W77890  25.414  17.897   8.280  0.1582  0.3611  0.1971
34974W        W77891  27.802  16.876   6.555 -0.0706 -0.0841  0.3061
34975W        W77892  25.702  15.608   7.225 -0.1556 -0.1857  0.1162
34976W        W77893  24.340  15.918   9.088 -0.0818 -0.0941 -0.0516
34977W        W77894  25.179  17.213   7.569  0.2770 -0.0965  0.1056
34978W        W77895  27.992  15.715   8.856 -0.0128 -0.0202  0.0302
34979W        W77896  25.278  16.679   7.700 -0.1888  0.0962  0.0842
34980W        W77897  29.020  16.217   8.743  0.0818  0.1878 -0.1374
34981W        W77898  27.779  15.856   7.504 -0.2102  0.1812  0.0049
34982W        W77899  25.909  16.477   6.103 -0.1970  0.0317 -0.1773
34983W        W77900  27.272  15.807   7.677 -0.0182 -0.1666 -0.1642
34984W        W77901  24.858  15.660   7.617  0.0200  0.1233 -0.1370
34985W        W77902  26.429  16.208   7.482 -0.0669 -0.0334 -0.1722
34986W        W77903  28.006  15.616   6.601  0.0916 -0.1678 -0.1987
34987W        W77904  26.270  16.034   6.487  0.5228 -0.1377 -0.0181
34988W        W77905  28.958  15.286   6.689 -0.0772  0.0746 -0.2920
34989W        W77906  27.036  15.053   8.343 -0.0708 -0.1171  0.0131
34990W        W77907  28.178  15.622   7.624  0.1529 -0.1619  0.0624
34991W        W77908  22.660  15.662  10.107 -0.1440  0.0714  0.1026
34992W        W77909  28.791  17.721   8.677 -0.0661 -0.1039  0.3575
34993W        W77910  29.422  14.684   7.823 -0.2031  0.1000  0.2230
34994W        W77911  26.337  17.514   7.723  0.2435 -0.2084 -0.0946
34995W        W77912  26.042  14.578   8.058 -0.2481 -0.0036 -0.1025
34996W        W77913  29.781  15.701   6.491  0.1431 -0.1990  0.0220
34997W        W77914  29.437  19.057   8.311  0.1061 -0.6182 -0.1358
34998W        W77915  28.453  17.490   6.136  0.3346 -0.2956  0.1514
34999W        W77916  26.529  15.498   7.709  0.2221  0.2531 -0.2168
35000W        W77917  26.560  11.972   9.020 -0.1918  0.0963  0.0921
35001W        W77918  28.523  15.818   8.018  0.0702 -0.0926 -0.1034
35002W        W77919  26.208  15.661   6.814 -0.0143 -0.0761  0.2541
35003W        W77920  26.437  17.930   9.031  0.1371 -0.0304  0.1327
35004W        W77921  29.059  16.365   6.080 -0.0629 -0.1474 -0.2380
35005W        W77922  28.266  14.475   8.384  0.0440 -0.0385 -0.0709
35006W        W77923  28.673  12.925   8.245 -0.2416 -0.0645  0.0583
35007W        W77924  26.287  16.625   5.415  0.0147 -0.1058  0.0739
35008W        W77925  27.331  14.669   8.240 -0.3742  0.1010 -0.1470
35009W        W77926  28.090  16.039   7.859  0.3482 -0.0611 -0.0310
35010W        W77927  28.964  13.573   7.230 -0.3148 -0.1660 -0.1373
35011W        W77928  27.048  16.970   7.040  0.0721 -0.1852  0.0331
35012W        W77929  25.810  16.526   7.736 -0.3052  0.2219 -0.1915
35013W        W77930  24.657  15.033   6.789 -0.2568  0.1670 -0.3003
35014W        W77931  24.711  15.111   9.192  0.1082 -0.0909 -0.0017
35015W        W77932  27.374  14.504   8.723 -0.0934  0.0466 -0.2338
35016W        W77933  29.198  13.096   7.972  0.2835  0.1283 -0.1397
35017W        W77934  28.849  12.017   7.997  0.0449 -0.1501  0.1936
35018W        W77935  25.485  16.846   8.210 -0.5346 -0.1932 -0.0338
35019W        W77936  28.057  17.113   7.776  0.0120 -0.2288 -0.1686
35020W        W77937  28.724  15.193   7.615 -0.1518  0.1744  0.2023
35021W        W77938  27.925  16.474   6.869 -0.1526 -0.1721  0.3659
35022W        W77939  26.619  15.954   7.912  0.0001  0.2009  0.5364
35023W        W77940  24.797  12.355   8.412 -0.0907 -0.0751 -0.0251
35024W        W77941  27.100  12.970   8.786  0.0801 -0.0254 -0.1456
35025W        W77942  25.765  14.890   7.742 -0.0094  0.0738  0.0013
35026W        W77943  28.423  15.751   7.191 -0.1207 -0.0404 -0.1119
35027W        W77944  26.915  15.248   6.444 -0.3721  0.0252  0.2873
35028W        W77945  26.572  16.947   6.651  0.1575  0.0580  0.4021
35029W        W77946  28.233  17.640   7.761 -0.2062  0.0377  0.0681
35030W        W77947  31.075  16.190  13.032  0.1129  0.0925  0.0749
35031W        W77948  27.899  16.395   7.370 -0.0443  0.1568 -0.1161
35032W        W77949  27.627  15.855   9.328 -0.2127  0.0521 -0.0820
35033W        W77950  26.375  16.376   9.098  0.0200 -0.0182  0.1434
35034W        W77951  26.114  18.008   9.373 -0.3539  0.0943  0.1613
35035W        W77952  26.097  17.934   8.008  0.1657 -0.2792 -0.2341
35036W        W77953  28.096  13.968   5.695 -0.3274  0.2049  0.0798
35037W        W77954  28.168  17.931   8.228  0.1902 -0.4279  0.0290
35038W        W77955  28.369  16.953   6.865  0.1792  0.0199  0.0794
35039W        W77956  28.084  16.295   9.453 -0.2182 -0.0245  0.1617
35040W        W77957  28.433  14.766   9.293 -0.0659  0.0197 -0.3012
35041W        W77958  26.788  13.693   5.858 -0.0141 -0.0020 -0.0006
35042W        W77959  27.099  18.174   7.911 -0.2167  0.2497 -0.2454
35043W        W77960  26.081  19.596   8.199 -0.1855 -0.0629 -0.0347
35044W        W77961  25.732  16.522   6.762  0.3077 -0.2845 -0.0625
35045W        W77962  27.291  17.990   5.828 -0.1687 -0.1626 -0.1231
35046W        W77963  27.951  13.011   7.808 -0.0874 -0.2508 -0.2485
35047W        W77964  26.752  13.852   8.401 -0.3373 -0.1909  0.1705
35048W        W77965  27.047  15.226   6.892 -0.1337  0.0605  0.1882
35049W        W77966  28.607  14.695   7.388  0.0407  0.1118  0.1387
35050W        W77967  29.702  16.505   9.400 -0.3978  0.2433 -0.1359
35051W        W77968  26.430  15.174   6.278 -0.2561 -0.1964 -0.1618
35052W        W77969  28.170  14.608   6.409  0.0421 -0.1067  0.0343
35053W        W77970  26.821  17.820   7.183  0.1487  0.0565  0.3083
35054W        W77971  26.576  17.867   6.580 -0.0749 -0.2835  0.0097
35055W        W77972  27.661  14.165   5.580  0.2732  0.1487 -0.1702
35056W        W77973  28.591  17.268   7.710  0.2162 -0.1109  0.2938
35057W        W77974  26.815  15.418   8.810  0.3610  0.1655 -0.0618
35058W        W77975  29.103  17.424   7.764 -0.0962  0.0063  0.0935
35059W        W77976  26.668  15.756   8.470  0.2265  0.0040  0.0760
35060W        W77977  26.168  17.166   6.251 -0.0463 -0.2068  0.0582
35061W        W77978  27.539  14.736   7.547 -0.0260 -0.1395 -0.3403
35062W        W77979  24.149  17.495   6.762 -0.1758 -0.0919 -0.2303
35063W        W77980  26.372  13.786   8.651  0.0641 -0.0289  0.1353
35064W        W77981  27.860  14.946   6.635 -0.0915  0.1573 -0.0777
35065W        W77982  29.621  13.941   9.219  0.1810 -0.1164 -0.1375
35066W        W77983  27.962  15.527   8.155 -0.0351  0.0942  0.2344
35067W        W77984  26.136  13.461   7.023  0.0745 -0.1870  0.0839
35068W        W77985  25.798  14.244   8.434 -0.0811  0.1572 -0.0694
35069W        W77986  25.035  16.928   8.082  0.0585  0.2288 -0.0341
35070W        W77987  27.289  17.443   7.117 -0.1354  0.2043  0.0654
35071W        W77988  27.509  15.315   6.661  0.0059  0.0359  0.1720
35072W        W77989  27.802  17.291   6.895 -0.1596  0.1016 -0.1008
35073W        W77990  28.507  15.745   6.650  0.0299  0.1814  0.0041
35074W        W77991  27.264  14.855   9.670 -0.2128  0.0116  0.0965
35075W        W77992  29.559  15.363   7.319  0.3214  0.0169 -0.5412
35076W        W77993  28.222  16.479   5.954  0.1059  0.1360  0.0795
35077W        W77994  28.868  16.058   8.314  0.1404 -0.1653  0.1146
35078W        W77995  26.606  17.648   8.636  0.1244  0.0026  0.1450
35079W        W77996  28.322  15.025   8.363  0.0319 -0.1460 -0.0832
35080W        W77997  27.481  15.281   9.421  0.0399 -0.0856 -0.0991
35081W        W77998  28.108  14.343   6.866  0.1320  0.0127 -0.2999
35082W        W77999  26.018  14.015   6.705 -0.0604 -0.0865  0.0658
35083W        W78000  27.262  15.624   6.147  0.1964  0.0655 -0.0799
35084W        W78001  28.447  16.332   8.196 -0.2435  0.1767 -0.1620
35085W        W78002  26.503  15.052   9.012  0.3175 -0.1215 -0.1059
35086W        W78003  27.833  19.237   9.152 -0.2007 -0.4667  0.1106
35087W        W78004  27.273  18.995   7.760 -0.3544  0.1468 -0.2508
35088W        W78005  27.888  15.485   7.097  0.2018 -0.0002 -0.1482
35089W        W78006  23.575  14.321   8.736 -0.0088  0.2560  0.0989
35090W        W78007  26.987  13.408   9.002 -0.3202  0.1092 -0.1734
35091W        W78008  26.845  15.938   7.362  0.3113  0.0725 -0.2324
35092W        W78009  25.778  18.209   7.228  0.1675 -0.3202  0.0914
35093W        W78010  28.733  19.367   6.457 -0.2996  0.0626 -0.0680
35094W        W78011  27.747  17.719   7.206 -0.0735 -0.1154  0.3044
35095W        W78012  24.984  16.485   7.368 -0.3415  0.1105  0.1747
35096W        W78013  29.414  18.624   8.571  0.0497  0.0799 -0.0161
35097W        W78014  28.418  16.157   7.442 -0.3994  0.0326  0.4698
35098W        W78015  25.545  15.124   8.143  0.0606  0.0845 -0.0509
35099W        W78016  26.512  16.062   6.951 -0.0751  0.0876  0.0661
35100W        W78017  26.555  17.431   6.432  0.1413 -0.1670 -0.1217
35101W        W78018  28.672  14.721   8.537 -0.0069  0.0573  0.0053
35102W        W78019  27.778  14.539   9.257 -0.4425 -0.3532 -0.1395
35103W        W78020  29.318  18.007   8.511 -0.1894  0.1768 -0.1871
35104W        W78021  24.174  14.612   7.010  0.0025 -0.1599 -0.3777
35105W        W78022  22.261  14.472   9.041 -0.2287  0.1170  0.1480
35106W        W78023  25.271  16.101   6.628 -0.1448 -0.1069 -0.2020
35107W        W78024  21.707  13.980   9.623  0.3898 -0.0482  0.1320
35108W        W78025  26.670  17.935   7.657  0.1319  0.0335 -0.1057
35109W        W78026  25.633  17.005   7.478 -0.0481 -0.0901 -0.0601
35110W        W78027  25.767  16.887   6.397 -0.2195  0.3323  0.0116
35111W        W78028  26.121  11.378   9.060  0.1924 -0.0003 -0.1456
35112W        W78029  27.764  18.491   6.838 -0.3496  0.0559 -0.0435
35113W        W78030  27.396  15.001   8.689  0.2573  0.2699  0.3617
35114W        W78031  28.849  16.115   7.237  0.0575 -0.1928  0.1614
35115W        W78032  27.267  11.786   8.968 -0.0229  0.1548 -0.0455
35116W        W78033  28.415  15.343   7.973  0.1597 -0.2067  0.2287
35117W        W78034  27.288  13.399   5.720  0.0759  0.0503  0.1189
35118W        W78035  25.472  13.849   5.793  0.0938  0.0203 -0.3026
35119W        W78036  25.613  17.277   8.993  0.0802  0.2008 -0.0432
35120W        W78037  29.450  15.056   6.911  0.2599 -0.2042  0.2342
35121W        W78038  27.500  16.395   7.680  0.2586 -0.0801 -0.3683
35122W        W78039  28.405  16.159   8.826  0.3879  0.1327  0.0696
35123W        W78040  25.900  16.295   8.986  0.0372 -0.0346  0.3065
35124W        W78041  28.798  15.724   8.731  0.2038 -0.1927 -0.0931
35125W        W78042  28.009  17.453   5.842 -0.1264 -0.0597 -0.4562
35126W        W78043  26.244  16.558   6.741 -0.1046 -0.1091 -0.1971
35127W        W78044  29.097  15.340   7.212  0.0198 -0.0682 -0.0167
35128W        W78045  26.885  14.781   8.805 -0.0522 -0.1207  0.0236
35129W        W78046  26.966  18.275   7.415 -0.1622 -0.3953 -0.0732
35130W        W78047  28.061  14.477   5.458 -0.0696  0.1362 -0.0862
35131W        W78048  27.303  12.153   8.341  0.0149 -0.0447  0.1760
35132W        W78049  27.878  17.619   9.029  0.4729 -0.1019  0.2095
35133W        W78050  28.546  17.014   6.360  0.1105 -0.2717 -0.2029
35134W        W78051  29.108  19.501   8.188  0.0243 -0.1913  0.1611
35135W        W78052  26.765  14.503   7.590 -0.2130 -0.2139 -0.0111
35136W        W78053  28.675  16.586   6.583 -0.1502  0.0042 -0.2930
35137W        W78054  28.030  18.281   8.565  0.0136  0.2021 -0.0560
35138W        W78055  28.033  16.093   6.548 -0.2891 -0.1383  0.0073
35139W        W78056  27.004  14.325   9.647  0.2475 -0.1726 -0.1576
35140W        W78057  25.795  15.224   5.908  0.3101 -0.0524 -0.0090
35141W        W78058  27.414  16.615   6.846 -0.0196  0.1511 -0.1292
35142W        W78059  26.998  16.492   8.132  0.1945  0.0387 -0.2935
35143W        W78060  27.936  13.500   5.706 -0.0082  0.0598  0.0394
35144W        W78061  26.271  16.894   7.609 -0.2235  0.1706 -0.1534
35145W        W78062  27.418  12.634   8.560 -0.1974 -0.1154 -0.1018
35146W        W78063  25.387  14.638   8.332 -0.0528 -0.0719  0.1612
35147W        W78064  26.827  17.935   8.296  0.0959  0.0307 -0.3609
35148W        W78065  28.397  15.170   8.968  0.1032  0.1565  0.2869
35149W        W78066  27.724  17.972   9.387 -0.1821  0.0931 -0.2891
35150W        W78067  26.759  16.265   6.503 -0.2267  0.0707  0.1471
35151W        W78068  27.496  16.123   7.185  0.0196  0.1908 -0.4386
35152W        W78069  30.165  15.155   8.836 -0.1456 -0.1273  0.0985
35153W        W78070  26.864  18.127   8.781 -0.0032  0.0304 -0.3118
35154W        W78071  29.411  15.527   6.819 -0.1030  0.0505 -0.0838
35155W        W78072  27.453  15.648   8.095  0.0504  0.0884 -0.0756
35156W        W78073  28.095  17.243   6.501 -0.1799 -0.1986 -0.0405
35157W        W78074  26.832  14.342   8.089  0.0704  0.2562  0.1306
35158W        W78075  27.803  17.963   5.894  0.2239 -0.2447  0.0553
35159W        W78076  28.242  16.599   6.476  0.0725 -0.3050  0.0725
35160W        W78077  27.426  15.337   7.272 -0.1174 -0.1423  0.1723
35161W        W78078  27.598  16.940   7.742  0.2817  0.0155 -0.0426
35162W        W78079  28.285  14.813   6.897  0.0477 -0.0195 -0.1793
35163W        W78080  23.667  17.632   8.475 -0.0499  0.0756  0.0242
35164W        W78081  23.428  16.347   6.893 -0.0864  0.0242  0.0555
35165W        W78082  28.124  17.326   7.332  0.1458  0.0511 -0.2040
35166W        W78083  24.480  15.512   8.045 -0.2095  0.0582 -0.1828
35167W        W78084  29.365  15.191   8.174 -0.1650 -0.1082  0.2517
35168W        W78085  29.512  13.420   9.270  0.1652  0.0686  0.1277
35169W        W78086  29.095  14.748   7.022  0.0996 -0.0358 -0.0222
35170W        W78087  25.983  17.350   7.345  0.2235 -0.3246 -0.3379
35171W        W78088  27.143  14.103   6.201  0.0694 -0.1251  0.1437
35172W        W78089  26.913  17.268   9.376  0.1381  0.0307 -0.1890
35173W        W78090  24.782  14.730   7.378  0.1403 -0.3246 -0.2580
35174W        W78091  27.138  16.027   8.352 -0.0289 -0.2050 -0.0502
35175W        W78092  31.512  13.860   9.114  0.1598  0.0866 -0.1185
35176W        W78093  27.014  18.130   5.402 -0.0297 -0.3746 -0.0610
35177W        W78094  27.934  15.244   8.641 -0.0651 -0.0639 -0.2296
35178W        W78095  23.837  19.341   8.072  0.1889  0.0387  0.1373
35179W        W78096  27.421  19.229   8.201  0.0745  0.0949 -0.2475
35180W        W78097  26.085  17.437   8.693  0.5265  0.2914  0.0751
35181W        W78098  25.428  13.791   7.147  0.1459  0.1711 -0.0530
35182W        W78099  29.742  12.924   8.285  0.2587 -0.0738 -0.0401
35183W        W78100  24.083  16.577   9.440  0.0292 -0.0435 -0.0643
35184W        W78101  26.564  16.512   7.847 -0.1015  0.1524  0.0810
35185W        W78102  27.023  15.694   6.624 -0.0175  0.1569 -0.0056
35186W        W78103  27.621  16.141   8.079 -0.1971  0.4933  0.2571
35187W        W78104  26.573  16.893   6.076 -0.0278  0.0643 -0.0744
35188W        W78105  30.018  15.305   6.319  0.1103  0.2086  0.0720
35189W        W78106  29.476  14.847   7.332  0.0801 -0.0561  0.0679
35190W        W78107  26.723  13.837   9.136  0.0365 -0.1967 -0.3805
35191W        W78108  28.494  16.148   6.294 -0.1560 -0.0008 -0.1052
35192W        W78109  26.578  16.709   8.325 -0.0875  0.0759  0.0586
35193W        W78110  27.283  17.958   7.105 -0.1188 -0.1643  0.3535
35194W        W78111  26.396  15.036   7.700 -0.3752 -0.2001 -0.0963
35195W        W78112  27.761  17.857   7.740 -0.4422 -0.1475  0.0182
35196W        W78113  26.823  16.913   7.953 -0.0011  0.1860  0.1780
35197W        W78114  26.354  18.677   6.209 -0.0394  0.0406  0.0394
35198W        W78115  27.925  15.007   8.039  0.1381 -0.2485  0.0580
35199W        W78116  27.244  17.814   7.600 -0.1579  0.2140  0.0764
35200W        W78117  26.707  16.559   7.015 -0.2131 -0.1695  0.0622
35201W        W78118  29.075  18.776   8.213 -0.3287 -0.0018 -0.1044
35202W        W78119  29.493  16.104   8.461  0.1138  0.4200  0.1413
35203W        W78120  30.461  16.272   8.119  0.1274  0.0991  0.0233
35204W        W78121  28.157  15.902   8.344 -0.1975 -0.0345 -0.1209
35205W        W78122  25.053  15.934   7.230  0.2469  0.1876  0.2987
35206W        W78123  27.771  16.797   8.780  0.0332 -0.2066  0.1537
35207W        W78124  29.232  18.297   8.010 -0.0555 -0.1576  0.1303
35208W        W78125  27.305  18.199   8.403 -0.0227 -0.0638  0.1377
35209W        W78126  25.342  16.215   7.553 -0.5227 -0.1352 -0.1519
35210W        W78127  25.988  17.534   9.248 -0.2458  0.0249 -0.1198
35211W        W78128  25.908  17.008   8.457  0.1406 -0.5472  0.2261
35212W        W78129  28.667  16.611   7.185 -0.0166  0.0099 -0.0361
35213W        W78130  28.188  12.565   8.220  0.2137  0.2518 -0.0573
35214W        W78131  29.693  16.665   8.462  0.0692  0.2531 -0.0419
35215W        W78132  27.898  14.918   7.198 -0.2149  0.5396 -0.0552
35216W        W78133  29.124  13.630   7.855 -0.2742 -0.0655  0.1693
35217W        W78134  27.977  12.475   7.755 -0.1163 -0.1552  0.1450
35218W        W78135  28.120  14.669   7.624 -0.0475  0.0838 -0.2985
35219W        W78136  24.141  15.300   6.263 -0.1855 -0.1335 -0.1369
35220W        W78137  25.574  17.847   6.324  0.0152 -0.1980 -0.1039
35221W        W78138  27.022  17.230   8.824 -0.2794 -0.2709 -0.2067
35222W        W78139  25.749  16.025   6.446 -0.1996 -0.3678 -0.1103
35223W        W78140  26.363  13.302   7.512 -0.0443 -0.0356  0.1688
35224W        W78141  28.820  18.396   8.934  0.0653 -0.0633 -0.2697
35225W        W78142  23.955  17.879   8.774  0.0454 -0.1557 -0.0753
35226W        W78143  25.041  11.839   8.415 -0.1751  0.3492 -0.2607
35227W        W78144  28.258  16.704   7.486 -0.1760 -0.1524 -0.0704
35228W        W78145  28.851  16.955   7.964  0.1473  0.0352 -0.1152
35229W        W78146  27.896  13.848   8.561  0.0062  0.1782 -0.1682
35230W        W78147  26.721  17.769   6.058 -0.3440  0.0274  0.0784
35231W        W78148  26.195  14.000   5.238  0.2533 -0.2640 -0.2173
35232W        W78149  26.792  16.450   8.714 -0.0153  0.0875  0.2100
35233W        W78150  27.473  18.324   6.169 -0.2720 -0.2463 -0.0561
35234W        W78151  28.307  19.418   8.538  0.0273  0.1664  0.2086
35235W        W78152  23.942  12.765   8.573 -0.2101 -0.0956  0.2109
35236W        W78153  27.589  17.366   7.535 -0.3461 -0.0121  0.2553
35237W        W78154  29.322  18.334   9.010 -0.4144  0.1823 -0.0143
35238W        W78155  27.911  13.414   8.268  0.2749 -0.1687  0.0003
35239W        W78156  27.977  15.984   7.052  0.2444 -0.0577 -0.0506
35240W        W78157  26.107  18.529   7.179 -0.4056 -0.2195  0.2496
35241W        W78158  26.060  13.686   7.669  0.3858 -0.0811  0.1025
35242W        W78159  28.805  14.174   7.604  0.1336  0.0356  0.0951
35243W        W78160  28.045  18.273   7.275 -0.1206 -0.1222 -0.1642
35244W        W78161  24.922  14.711   9.379 -0.3170 -0.0200  0.0573
35245W        W78162  27.769  14.180   7.611  0.0496  0.0286  0.1119
35246W        W78163  29.953  16.907   9.273 -0.0764 -0.0819  0.3528
35247W        W78164  26.970  16.719   6.501 -0.2946 -0.1656  0.0496
35248W        W78165  29.646  15.023   5.616  0.0432 -0.1210  0.0754
35249W        W78166  27.837  19.272   8.631 -0.2810  0.3639  0.0443
35250W        W78167  27.292  17.206   7.999 -0.0999 -0.2838  0.0097
35251W        W78168  27.810  16.995   8.276 -0.0388  0.3529  0.1368
35252W        W78169  28.636  12.451   8.131  0.0032  0.1448  0.2256
35253W        W78170  27.062  16.204   6.907 -0.0863  0.2752  0.2002
35254W        W78171  27.960  16.636   7.961  0.0213  0.0784 -0.1199
35255W        W78172  27.450  16.590   8.114 -0.0255 -0.0066 -0.0410
35256W        W78173  26.265  15.295   8.567  0.0313  0.2998 -0.0300
35257W        W78174  27.423  14.866   7.087  0.2552 -0.0111  0.3538
35258W        W78175  27.262  18.917   8.558 -0.1034  0.0221  0.2429
35259W        W78176  28.208  15.792   9.311 -0.0677  0.1048 -0.2038
35260W        W78177  26.605  21.398   2.270  0.1333 -0.1317  0.0044
35261W        W78178  22.205  20.273  31.951 -0.0762 -0.1426  0.1655
35262W        W78179  26.581  17.372  30.832  0.1158 -0.1225  0.0709
35263W        W78180  31.046  20.015   1.928  0.2059 -0.1948 -0.1870
35264W        W78181  23.341  19.532   1.898  0.0578 -0.0063  0.1952
35265W        W78182  31.202  20.654   1.210  0.1638  0.3042  0.2765
35266W        W78183  24.204  17.903   4.846  0.3124 -0.0059 -0.0238
35267W        W78184  27.722  21.259   1.280 -0.0050 -0.1840 -0.0934
35268W        W78185  28.890  21.330   3.846 -0.0940  0.0015  0.1307
35269W        W78186  29.151  22.227   2.113 -0.2611  0.0269 -0.0066
35270W        W78187  25.361  19.224   1.864  0.0741 -0.0633 -0.1879
35271W        W78188  26.824  21.831   2.256  0.0885  0.0493 -0.1180
35272W        W78189  27.889  19.818   1.142 -0.0847 -0.1168 -0.2831
35273W        W78190  23.319  18.178   1.273  0.1053  0.3288 -0.0793
35274W        W78191  28.507  20.135   1.456 -0.1539  0.0024 -0.1684
35275W        W78192  25.178  20.845   1.122  0.1494 -0.0877  0.3309
35276W        W78193  27.347  18.804   0.492 -0.3488  0.1401 -0.1790
35277W        W78194  26.506  19.525   2.757  0.1166 -0.2430 -0.0751
35278W        W78195  27.266  22.046  31.760  0.0431  0.1236  0.0822
35279W        W78196  26.244  18.535   2.660 -0.0573 -0.2285  0.2929
35280W        W78197  27.113  18.505   1.862  0.0045 -0.1712 -0.0763
35281W        W78198  26.417  22.164   0.149 -0.5219  0.1656  0.1179
35282W        W78199  24.290  18.196   0.792 -0.0907 -0.1321 -0.0193
35283W        W78200  22.390  18.733   0.348  0.1759  0.1509  0.3433
35284W        W78201  27.160  19.481   3.375  0.0093 -0.0517 -0.0688
35285W        W78202  26.294  20.725   0.206 -0.1533  0.2350 -0.1928
35286W        W78203  26.943  18.092   2.117 -0.3370  0.1991  0.0340
35287W        W78204  25.173  21.411   0.918 -0.2289  0.0922  0.0212
35288W        W78205  28.021  22.244   1.851  0.4633  0.2914 -0.4498
35289W        W78206  26.775  17.494   3.960 -0.1198 -0.1057 -0.1019
35290W        W78207  25.126  21.206   2.670 -0.0339  0.1844 -0.0752
35291W        W78208  25.598  23.491   0.065  0.0334 -0.0587 -0.0496
35292W        W78209  25.675  20.457   2.801 -0.1259  0.0010  0.0380
35293W        W78210  30.337  20.323   1.335  0.1944  0.0307  0.0717
35294W        W78211  28.287  22.328   2.617 -0.0997 -0.0656  0.1873
35295W        W78212  26.885  21.352   2.997 -0.0310  0.2174  0.2707
35296W        W78213  26.432  21.211   0.697  0.1054  0.0959 -0.0290
35297W        W78214  26.631  22.653   1.234  0.2455 -0.0653  0.0004
35298W        W78215  26.286  21.361   4.948  0.0719 -0.1071  0.0702
35299W        W78216  27.525  19.048   1.272 -0.2202  0.0823 -0.0966
35300W        W78217  27.198  18.955  31.941 -0.1573  0.1541  0.1730
35301W        W78218  24.729  21.909   1.135  0.3376 -0.3854  0.0367
35302W        W78219  27.817  22.733   2.419 -0.0288  0.2163  0.1510
35303W        W78220  26.337  21.723   2.025  0.1538 -0.0643 -0.1867
35304W        W78221  24.475  21.778   2.649  0.2379  0.0525  0.1104
35305W        W78222  27.374  18.733   2.274  0.0580  0.1231 -0.0196
35306W        W78223  25.168  19.917  31.488  0.0334  0.3211  0.3312
35307W        W78224  29.526  17.754  31.787 -0.1577 -0.1523  0.1531
35308W        W78225  25.883  19.615   0.006  0.1336 -0.2902  0.1114
35309W        W78226  28.691  19.890   0.817 -0.0945 -0.1732 -0.2742
35310W        W78227  26.598  20.177   1.445 -0.0171 -0.0287 -0.0199
35311W        W78228  24.007  21.703   2.437 -0.0347 -0.1684  0.0543
35312W        W78229  25.070  21.011   2.116 -0.1109  0.0591  0.0315
35313W        W78230  27.492  19.624   2.779  0.1627 -0.0612  0.4575
35314W        W78231  25.419  20.575   0.745 -0.0897  0.0529  0.1624
35315W        W78232  27.531  20.475   2.453  0.1228  0.0845 -0.0912
35316W        W78233  26.337  21.224   1.753  0.1212  0.0428  0.2594
35317W        W78234  26.790  21.126   1.570  0.5792  0.1191  0.0139
35318W        W78235  27.280  22.821   1.780 -0.1620 -0.0470 -0.0083
35319W        W78236  27.768  21.901   2.678  0.0016 -0.0360 -0.3234
35320W        W78237  28.704  22.789   0.594 -0.0703  0.0740  0.3274
35321W        W78238  24.736  21.564   1.533 -0.0316  0.0231  0.2516
35322W        W78239  26.549  20.848   2.958 -0.1921 -0.2303  0.1115
35323W        W78240  26.652  19.617   3.240 -0.1018  0.1120 -0.2218
35324W        W78241  25.638  19.670   1.898  0.1881 -0.0520 -0.3170
35325W        W78242  28.057  21.064   0.998  0.2518 -0.0799  0.4421
35326W        W78243  25.635  21.857   3.792  0.0166  0.2673 -0.1013
35327W        W78244  27.353  20.811   1.899 -0.0538 -0.2544 -0.3179
35328W        W78245  27.699  21.850   3.150 -0.0640  0.0234 -0.3726
35329W        W78246  26.468  20.732   1.522 -0.2172 -0.0810  0.2205
35330W        W78247  28.770  23.253   0.874  0.0311 -0.3773  0.0889
35331W        W78248  27.841  19.813   1.983  0.4175  0.2240 -0.2518
35332W        W78249  29.202  17.565   2.279  0.1001  0.1675  0.3320
35333W        W78250  25.669  18.897   0.190  0.2669 -0.2679 -0.2878
35334W        W78251  29.090  21.438   0.997  0.3390 -0.0671  0.0970
35335W        W78252  28.052  19.437   2.865 -0.1125  0.1749 -0.1535
35336W        W78253  28.999  18.663  31.832 -0.0817 -0.0986 -0.0703
35337W        W78254  26.939  21.271   0.542 -0.0675  0.2170  0.0990
35338W        W78255  24.294  17.379   3.463  0.1561 -0.3456  0.3758
35339W        W78256  25.039  21.943   3.816 -0.1521  0.0984  0.0694
35340W        W78257  24.170  20.400  30.879  0.3409 -0.0652  0.1834
35341W        W78258  25.243  19.205   0.546  0.2418  0.1195  0.3513
35342W        W78259  25.186  20.903   0.352  0.0627 -0.0221  0.1535
35343W        W78260  23.574  19.481   0.291  0.0140 -0.2765  0.3855
35344W        W78261  25.022  21.221   3.231 -0.2634 -0.1436 -0.1673
35345W        W78262  27.110  18.824   0.933  0.1095  0.3019  0.0060
35346W        W78263  24.282  19.597   1.486  0.0766  0.0082  0.0726
35347W        W78264  28.364  18.786   2.496  0.0246 -0.1637 -0.1530
35348W        W78265  26.392  20.873  30.927 -0.1420 -0.4629 -0.4679
35349W        W78266  28.902  21.547   2.828  0.1537 -0.1159 -0.0611
35350W        W78267  28.708  18.369  31.534  0.0384 -0.0426 -0.3620
35351W        W78268  27.235  21.646   0.319 -0.2224  0.3990  0.0846
35352W        W78269  24.558  21.185   2.483 -0.3264  0.0408 -0.0945
35353W        W78270  25.093  18.674   1.102 -0.1483  0.1679  0.1745
35354W        W78271  25.141  19.745   2.645  0.2791 -0.0107  0.0712
35355W        W78272  24.418  21.758   2.145 -0.0606 -0.0265  0.2914
35356W        W78273  27.752  19.923   4.082 -0.1198 -0.4302 -0.1210
35357W        W78274  25.851  17.868   2.070  0.1253 -0.1813  0.2057
35358W        W78275  25.505  18.863   0.807  0.1150 -0.2576  0.1902
35359W        W78276  25.974  19.037  31.315 -0.0416 -0.2706 -0.0795
35360W        W78277  25.580  21.820   1.351  0.1237  0.0269  0.2255
35361W        W78278  26.517  18.094   3.194 -0.1196  0.0391  0.3898
35362W        W78279  26.732  22.731   0.701 -0.0058 -0.3611  0.1165
35363W        W78280  29.073  22.159   5.351  0.1478 -0.0419 -0.1633
35364W        W78281  29.658  22.893   1.716  0.1377  0.0683  0.0186
35365W        W78282  26.545  19.353   3.611 -0.1204  0.1191  0.0821
35366W        W78283  26.448  19.947   0.617  0.0386  0.0658  0.0704
35367W        W78284  25.400  21.382   4.632  0.0868 -0.0387  0.0413
35368W        W78285  25.820  20.949   2.530  0.1633 -0.2702 -0.0344
35369W        W78286  25.367  18.761  31.761 -0.0953  0.1283  0.0051
35370W        W78287  29.336  21.572   1.448  0.0936 -0.1711  0.1217
35371W        W78288  27.765  22.992  31.877 -0.3297 -0.0460 -0.1614
35372W        W78289  25.899  20.106   1.947  0.1916  0.0864 -0.1809
35373W        W78290  29.026  19.126   2.950 -0.0146 -0.0654  0.0432
35374W        W78291  28.232  20.972   3.068 -0.4880 -0.3469  0.2772
35375W        W78292  26.814  17.844   1.609  0.1363  0.2325 -0.0872
35376W        W78293  23.599  20.035   0.256  0.0279  0.4306 -0.1668
35377W        W78294  27.117  21.957   0.744 -0.1798  0.2084  0.2060
35378W        W78295  26.499  22.387  31.341 -0.3482 -0.0955  0.0209
35379W        W78296  25.073  21.428  31.586 -0.1072 -0.0462 -0.0554
35380W        W78297  28.417  20.702   1.030  0.0705 -0.2559  0.2566
35381W        W78298  28.947  20.192   1.786  0.0922 -0.5003  0.0763
35382W        W78299  24.269  19.014   4.115  0.1366 -0.2477 -0.0236
35383W        W78300  26.666  18.493   2.842  0.0930 -0.1471 -0.2940
35384W        W78301  27.246  19.771  31.858 -0.3466  0.0974  0.1086
35385W        W78302  25.712  21.903   2.686  0.2230 -0.3354  0.0075
35386W        W78303  28.038  21.351  30.873 -0.0929  0.0482  0.0550
35387W        W78304  28.767  19.404   0.975 -0.0441 -0.2045  0.1619
35388W        W78305  26.124  20.233   3.785  0.1930 -0.2144 -0.2041
35389W        W78306  28.954  20.081   0.372 -0.2029  0.1022 -0.1339
35390W        W78307  27.144  19.871   1.956 -0.1868 -0.0521  0.1088
35391W        W78308  26.171  18.743   1.759  0.0088  0.3867  0.3345
35392W        W78309  26.122  22.088   4.455 -0.2057  0.2068 -0.2403
35393W        W78310  27.054  21.497   1.251 -0.5026 -0.0553  0.2540
35394W        W78311  25.957  23.048   0.722  0.0013 -0.2393 -0.0444
35395W        W78312  25.955  19.915   0.711  0.1066  0.1085  0.0376
35396W        W78313  28.788  21.639   0.554 -0.0391 -0.3467  0.3551
35397W        W78314  26.679  20.174   1.960  0.2710 -0.0246  0.1129
35398W        W78315  27.835  20.664   2.088  0.1574  0.0939  0.0176
35399W        W78316  29.216  22.063   1.596 -0.0219  0.1111  0.1029
35400W        W78317  26.011  19.801   3.425  0.0405 -0.0477 -0.2786
35401W        W78318  25.895  18.686  31.698 -0.1393  0.0431  0.1685
35402W        W78319  27.686  20.756   0.083 -0.1308 -0.0534 -0.0342
35403W        W78320  26.228  21.173  31.330 -0.1462 -0.0630 -0.2483
35404W        W78321  28.484  20.025   2.069  0.3192 -0.0676  0.1531
35405W        W78322  27.610  18.412   1.840  0.0641 -0.1560 -0.2061
35406W        W78323  26.430  17.589   2.780 -0.3154  0.1275  0.1488
35407W        W78324  27.964  21.765   2.076  0.3892 -0.2240 -0.0606
35408W        W78325  27.371  19.604   1.151 -0.1897  0.0785 -0.2655
35409W        W78326  27.998  19.799   3.599  0.4078  0.1941 -0.0000
35410W        W78327  24.870  18.699  31.957  0.0632 -0.0910  0.0536
35411W        W78328  26.812  16.751   1.288 -0.1898 -0.1594  0.2042
35412W        W78329  25.532  21.020   3.839  0.2069 -0.0655  0.1633
35413W        W78330  27.411  22.824   2.722 -0.1302  0.4054  0.1056
35414W        W78331  28.101  20.261   4.413 -0.0353  0.0941 -0.1579
35415W        W78332  28.223  20.571   2.352 -0.2392  0.0694 -0.0846
35416W        W78333  26.574  18.810   3.585 -0.0503  0.0191 -0.3143
35417W        W78334  26.333  20.274   1.002 -0.1421 -0.0641 -0.0936
35418W        W78335  26.858  22.047   1.322 -0.2483  0.1004  0.1960
35419W        W78336  26.566  19.737   2.323 -0.1751 -0.1122  0.0605
35420W        W78337  24.913  17.879   2.353 -0.0841  0.0284  0.2147
35421W        W78338  28.075  22.267   3.089  0.0782 -0.1716 -0.0674
35422W        W78339  25.642  22.095   0.427  0.2557  0.3880 -0.2877
35423W        W78340  28.188  20.223   3.318  0.3289 -0.3688  0.3897
35424W        W78341  24.511  21.759   0.192 -0.1114 -0.0098  0.0220
35425W        W78342  27.540  17.771   1.258  0.0110 -0.0100 -0.0937
35426W        W78343  24.767  20.586   2.487 -0.0215  0.3111  0.1999
35427W        W78344  26.399  21.307   1.172 -0.3304  0.0914 -0.1213
35428W        W78345  24.874  20.199   0.009  0.2526  0.0962 -0.0153
35429W        W78346  29.337  20.204   0.901 -0.1954  0.1074  0.0809
35430W        W78347  29.233  19.445   1.771 -0.1068  0.4779  0.0996
35431W        W78348  26.289  20.924   2.481 -0.1674 -0.2724  0.0634
35432W        W78349  24.929  20.389   1.004 -0.3717  0.1338 -0.2024
35433W        W78350  23.993  21.146   2.463 -0.1141 -0.0281  0.0802
35434W        W78351  27.108  19.770   0.745  0.0377  0.2739 -0.0397
35435W        W78352  29.415  17.969   0.295  0.5377  0.1871  0.1089
35436W        W78353  26.119  22.036   3.014 -0.1145  0.0755  0.1182
35437W        W78354  26.455  19.280   2.256  0.0015 -0.1500 -0.1426
35438W        W78355  25.437  19.535  31.756 -0.2119  0.1686 -0.0539
35439W        W78356  28.254  22.325   4.238 -0.1769  0.4930  0.0147
35440W        W78357  24.878  20.605   0.558  0.0128 -0.0691  0.2632
35441W        W78358  24.496  22.783   1.408  0.2193 -0.0109  0.2367
35442W        W78359  28.809  22.548   2.499  0.1606 -0.0676  0.0244
35443W        W78360  24.163  21.496  31.209  0.0543  0.3566  0.1129
35444W        W78361  25.660  20.427   4.638 -0.1146 -0.0849 -0.5004
35445W        W78362  26.907  21.572   3.515  0.1633  0.0174 -0.1004
35446W        W78363  27.390  21.000   2.867 -0.2431 -0.0758  0.0647
35447W        W78364  27.714  20.049   0.622 -0.1886  0.0092 -0.0491
35448W        W78365  25.605  19.592   1.094  0.0461 -0.0923  0.2022
35449W        W78366  25.781  19.994   1.367  0.0579 -0.3989  0.1677
35450W        W78367  27.060  21.120   2.139 -0.0608  0.0324  0.0582
35451W        W78368  25.751  18.243   3.433  0.0903 -0.1740 -0.0091
35452W        W78369  26.557  20.430   2.414  0.3227  0.0799 -0.2954
35453W        W78370  26.877  19.119   2.394  0.1347 -0.0987  0.0602
35454W        W78371  25.915  22.660   1.886 -0.0389 -0.1042 -0.1301
35455W        W78372  28.325  19.755   3.127  0.0524 -0.2614  0.3268
35456W        W78373  26.195  21.638   0.473  0.1041  0.0885  0.1309
35457W        W78374  22.888  19.278   0.643  0.5117  0.0362 -0.2366
35458W        W78375  25.764  20.295   0.969 -0.1749 -0.1523 -0.2213
35459W        W78376  26.148  20.350   0.495  0.0816 -0.1732 -0.1141
35460W        W78377  26.280  20.436   2.000  0.1066 -0.0616  0.1252
35461W        W78378  25.648  22.176   1.798  0.4369  0.0862 -0.0463
35462W        W78379  25.518  21.268   3.057  0.0724  0.2439  0.1224
35463W        W78380  27.466  18.612  31.005  0.2943  0.0822  0.1625
35464W        W78381  29.831  22.442  31.107 -0.0649 -0.0431 -0.2422
35465W        W78382  26.299  19.025   0.681 -0.0726  0.0526 -0.1120
35466W        W78383  27.501  18.662   3.676 -0.1612  0.0294 -0.1256
35467W        W78384  29.521  20.362   1.773  0.0545 -0.2404 -0.1767
35468W        W78385  26.399  17.702   3.604 -0.1701 -0.0188 -0.3301
35469W        W78386  25.176  20.543   1.823 -0.1464  0.0871  0.1197
35470W        W78387  27.747  21.953  31.779  0.0240  0.0451  0.0827
35471W        W78388  26.139  22.018   1.699  0.0341  0.0471 -0.2430
35472W        W78389  27.022  23.033   2.962 -0.0490 -0.2207 -0.2815
35473W        W78390  25.296  19.371   3.619 -0.1072  0.1154 -0.0469
35474W        W78391  25.362  20.476  31.815 -0.1184  0.2899  0.1101
35475W        W78392  25.436  19.116  31.396  0.0310  0.0265 -0.0627
35476W        W78393  26.565  20.859   2.072 -0.0892 -0.0115  0.0675
35477W        W78394  27.381  20.168   2.854 -0.1324  0.1812 -0.3004
35478W        W78395  27.775  21.942   0.811 -0.3484  0.1668 -0.2167
35479W        W78396  28.395  18.953   1.998 -0.1099 -0.3916 -0.2162
35480W        W78397  25.638  22.510   2.669  0.0202 -0.0285  0.0512
35481W        W78398  28.401  19.307   1.460 -0.1902  0.2691 -0.1700
35482W        W78399  26.239  20.811   1.072 -0.1068 -0.1591  0.2967
35483W        W78400  27.386  22.203   1.209  0.2804  0.3241  0.2461
35484W        W78401  23.933  18.037   2.749 -0.0338 -0.2930  0.1103
35485W        W78402  28.037  21.648   1.102 -0.3033 -0.2113 -0.1092
35486W        W78403  27.366  20.261   0.943  0.1595  0.3801  0.0266
35487W        W78404  25.803  17.856   3.781 -0.0548  0.0791  0.2404
35488W        W78405  27.898  17.680   2.305 -0.2073  0.3427  0.0445
35489W        W78406  26.299  20.021   5.026  0.2918 -0.2444  0.2266
35490W        W78407  25.455  18.951   2.250  0.0171 -0.0570  0.1177
35491W        W78408  25.889  23.097   2.859 -0.2104 -0.2041  0.1602
35492W        W78409  29.338  19.475  30.833 -0.0231  0.1970  0.1033
35493W        W78410  26.960  18.081   2.980  0.0481 -0.4966 -0.2597
35494W        W78411  27.820  21.973   1.437  0.1599 -0.0228  0.1549
35495W        W78412  27.946  20.556   0.868 -0.0467 -0.0626 -0.4827
35496W        W78413  25.861  20.444   2.313 -0.2147 -0.2500  0.2831
35497W        W78414  28.584  21.612   3.315  0.1030 -0.2801  0.2198
35498W        W78415  25.688  16.975   2.725 -0.0701 -0.1287 -0.0918
35499W        W78416  27.078  19.287   3.888  0.0742 -0.0533  0.1222
35500W        W78417  26.731  23.212  30.360  0.1332 -0.0447  0.1582
35501W        W78418  26.310  19.918   1.765 -0.1335 -0.0647 -0.0072
35502W        W78419  29.485  20.502   0.447 -0.1762 -0.1534 -0.0516
35503W        W78420  26.567  19.480   0.663  0.1381  0.2559 -0.0707
35504W        W78421  26.564  22.853   3.263  0.0569 -0.0390  0.2448
35505W        W78422  26.133  17.783   1.175 -0.1541 -0.2277 -0.4893
35506W        W78423  24.921  19.481  30.622  0.1095 -0.0666 -0.0885
35507W        W78424  27.518  21.535   2.085 -0.0461  0.0136  0.1700
35508W        W78425  27.576  20.877   0.918 -0.2241  0.2610 -0.0439
35509W        W78426  27.899  18.063   1.418 -0.1478  0.4115  0.1409
35510W        W78427  27.477  19.388   2.217  0.3896  0.1777 -0.1207
35511W        W78428  23.072  20.497   0.370  0.1863 -0.1502  0.0381
35512W        W78429  26.737  19.678   0.239 -0.1693  0.2811 -0.0217
35513W        W78430  26.994  24.055   3.317  0.2899 -0.0086  0.0286
35514W        W78431  26.190  20.517   2.808 -0.0550  0.0911  0.1550
35515W        W78432  24.037  21.999   2.876  0.0931  0.1325 -0.0160
35516W        W78433  28.378  20.772   0.555 -0.1736  0.0404  0.1474
35517W        W78434  27.725  20.783   1.531 -0.0639 -0.0776  0.0421
35518W        W78435  26.979  20.632   2.925  0.2605 -0.1086  0.1646
35519W        W78436  27.354  18.148   3.386  0.3676  0.2431  0.1193
35520W        W78437  27.247  21.698   3.057  0.0689  0.0478 -0.0922
35521W        W78438  26.002  21.529   1.586  0.1053 -0.0870  0.4475
35522W        W78439  28.635  20.973   2.266 -0.0078  0.1979  0.2369
35523W        W78440  28.137  22.155   1.067  0.1038 -0.0313 -0.0416
35524W        W78441  26.985  22.584   3.302 -0.1527 -0.1237  0.1015
35525W        W78442  25.067  17.296   1.554  0.2314 -0.2152 -0.1179
35526W        W78443  26.520  19.508   5.149  0.1928 -0.0069  0.1750
35527W        W78444  27.064  22.155   1.941 -0.2254 -0.1240 -0.0840
35528W        W78445  26.344  17.099   1.238  0.0331  0.1775  0.0574
35529W        W78446  25.095  20.412  30.676  0.0703  0.2443 -0.2971
35530W        W78447  26.436  21.319   3.842 -0.0956  0.1136  0.0791
35531W        W78448  24.660  20.792   0.985  0.0098 -0.0993 -0.3538
35532W        W78449  26.903  21.591   1.812  0.0111  0.0371 -0.0328
35533W        W78450  28.272  20.097  31.834  0.1874 -0.1160 -0.1383
35534W        W78451  27.821  21.423   0.710 -0.0259  0.2000  0.1542
35535W        W78452  28.523  22.448   0.991 -0.3692  0.3879 -0.0312
35536W        W78453  25.791  19.062   1.572  0.1943 -0.2499  0.1150
35537W        W78454  26.028  21.003   1.500 -0.0671 -0.1878 -0.1166
35538W        W78455  26.669  23.479   1.721  0.0036 -0.0972  0.1494
35539W        W78456  26.767  19.541   1.931  0.2166  0.0226 -0.0746
35540W        W78457  25.219  21.422   1.401  0.3125  0.1669  0.2071
35541W        W78458  28.029  20.257   1.862  0.2604  0.2385  0.2893
35542W        W78459  27.979  19.609   2.411 -0.2228  0.5845 -0.1744
35543W        W78460  28.723  18.164   1.650  0.1020  0.0838  0.2873
35544W        W78461  29.643  18.365   0.408  0.0293 -0.4127  0.2669
35545W        W78462  25.638  22.215   4.567  0.0997  0.0339  0.0873
35546W        W78463  27.522  21.162   2.376 -0.0898  0.1458  0.3338
35547W        W78464  26.739  20.073  31.800  0.1276 -0.0493 -0.3836
35548W        W78465  26.464  21.290   3.346 -0.0429 -0.2046 -0.0975
35549W        W78466  28.680  18.745   2.858 -0.0448  0.0282 -0.3157
35550W        W78467  27.519  22.198   4.297 -0.0342  0.0580 -0.0164
35551W        W78468  28.499  21.887   0.190 -0.2271 -0.0404  0.0406
35552W        W78469  26.162  19.438   3.161  0.3068  0.0475  0.0002
35553W        W78470  26.449  19.792   1.183  0.2541  0.0851 -0.2899
35554W        W78471  28.058  17.566   1.401  0.2874  0.0949  0.0783
35555W        W78472  26.285  19.247   1.807  0.1772 -0.0092  0.0028
35556W        W78473  27.785  21.263   0.102 -0.0367  0.1166 -0.1204
35557W        W78474  26.707  22.336   2.465 -0.0911 -0.0806 -0.2224
35558W        W78475  28.164  22.568   1.393  0.2148 -0.0233  0.1517
35559W        W78476  26.609  22.152   1.825  0.1019  0.2569  0.0442
35560W        W78477  24.937  19.148   1.575  0.0470 -0.0799  0.0795
35561W        W78478  28.934  19.970   2.318  0.1288  0.0903  0.2153
35562W        W78479  25.602  18.144   5.688 -0.0555  0.2305  0.2575
35563W        W78480  29.702  18.213   2.361 -0.0296  0.2578 -0.1881
35564W        W78481  27.283  21.265   0.880  0.1094  0.1408 -0.1459
35565W        W78482  30.352  20.853   1.562  0.2614 -0.0242  0.3219
35566W        W78483  26.833  22.975   5.228 -0.2946 -0.1553 -0.3829
35567W        W78484  24.329  20.774   2.308  0.0202 -0.0316 -0.3143
35568W        W78485  27.353  21.303   1.638 -0.3230  0.2395 -0.1637
35569W        W78486  28.819  20.314   3.721 -0.3053  0.0426  0.2206
35570W        W78487  27.106  20.689   0.672  0.1309  0.0750  0.1137
35571W        W78488  26.120  21.756   1.141  0.3660 -0.1718 -0.0241
35572W        W78489  23.483  16.846   0.638 -0.1969  0.0305 -0.3624
35573W        W78490  28.309  19.549   1.880 -0.1210  0.1764 -0.0320
35574W        W78491  25.772  20.670   1.245  0.0509  0.1345 -0.2362
35575W        W78492  25.842  21.821   2.101  0.0848 -0.0075 -0.2889
35576W        W78493  27.512  20.324   3.870 -0.0061  0.1057 -0.0523
35577W        W78494  23.406  20.368   3.555  0.0094  0.1493 -0.2108
35578W        W78495  29.324  19.550  31.312  0.1130  0.3240 -0.1625
35579W        W78496  28.534  21.997   2.964  0.0373 -0.1345 -0.1502
35580W        W78497  27.207  23.355   1.665  0.1288  0.2551 -0.2023
35581W        W78498  28.864  20.497   0.931 -0.1121 -0.2257 -0.1884
35582W        W78499  29.130  23.159   1.952 -0.0960 -0.0233 -0.2092
35583W        W78500  23.508  20.760   0.367  0.1348 -0.0678  0.1652
35584W        W78501  28.556  23.370   2.756 -0.1443 -0.2878  0.1035
35585W        W78502  29.152  19.997   3.099 -0.1586  0.1089 -0.0080
35586W        W78503  26.961  18.285  30.748  0.1063 -0.1519 -0.0104
35587W        W78504  23.740  19.831   2.110 -0.1084  0.3228  0.5049
35588W        W78505  25.804  22.122   1.027 -0.1858  0.1880  0.2927
35589W        W78506  27.939  19.239   1.979 -0.0376  0.1644  0.2219
35590W        W78507  29.424  18.477   3.124 -0.1386 -0.2024 -0.0060
35591W        W78508  27.967  21.746   0.239 -0.1162 -0.0754 -0.1632
35592W        W78509  26.136  20.373   1.482  0.1768  0.1702  0.1553
35593W        W78510  26.790  22.116   4.234  0.3718  0.1859  0.1511
35594W        W78511  27.133  21.832   3.956  0.2108  0.0583  0.1843
35595W        W78512  25.663  20.746   0.120 -0.0919 -0.0636 -0.2175
35596W        W78513  25.962  21.092   3.428  0.0758  0.1349 -0.0267
35597W        W78514  24.166  21.309   1.478 -0.1177  0.1611 -0.0194
35598W        W78515  26.671  22.987  31.924  0.2847 -0.1204  0.1100
35599W        W78516  29.804  20.136   2.321  0.1362  0.1696  0.0854
35600W        W78517  27.181  20.938   1.286  0.0289  0.1581  0.1399
35601W        W78518  28.565  21.159   3.447  0.1761 -0.1349 -0.0376
35602W        W78519  26.250  18.323   2.194 -0.6227  0.0890  0.0028
35603W        W78520  29.846  20.372   1.320 -0.0105  0.1482 -0.1513
35604W        W78521  26.873  19.423   1.012 -0.2520 -0.1835  0.1438
35605W        W78522  27.026  19.005   3.318  0.0653 -0.1739 -0.0550
35606W        W78523  24.225  20.477   1.208 -0.3559  0.2554  0.3333
35607W        W78524  25.175  19.591   0.932  0.2568 -0.0085 -0.0584
35608W        W78525  25.093  20.135   2.292 -0.2383 -0.2690 -0.0354
35609W        W78526  27.650  17.135   3.392 -0.0427  0.1114 -0.3463
35610W        W78527  25.515  19.596   4.052  0.1010 -0.0664  0.0512
35611W        W78528  26.009  19.551   1.416  0.2317 -0.1676  0.2953
35612W        W78529  26.510  19.271   1.365 -0.2720 -0.2447 -0.1886
35613W        W78530  29.974  22.216   0.329 -0.1433 -0.2207  0.2328
35614W        W78531  25.405  20.361   1.279  0.0234  0.0948 -0.2623
35615W        W78532  25.276  18.262   0.792  0.0079 -0.0018  0.1710
35616W        W78533  28.246  20.895   1.929  0.1414  0.1664 -0.0528
35617W        W78534  29.333  20.462   2.912  0.2063  0.1979 -0.2362
35618W        W78535  25.240  19.539   1.512  0.0780  0.0244 -0.1026
35619W        W78536  28.042  20.688   3.447  0.2555  0.0447  0.1382
35620W        W78537  22.750  20.890  30.666  0.3683  0.2087 -0.1700
35621W        W78538  26.893  19.257   2.926 -0.0141 -0.0206  0.1818
35622W        W78539  26.074  17.324   3.705  0.0847  0.0901  0.0964
35623W        W78540  22.985  19.035  31.591  0.0055 -0.0913  0.0524
35624W        W78541  25.522  20.988   1.551 -0.0212 -0.0710 -0.4187
35625W        W78542  28.431  21.258   2.707 -0.1126 -0.0233  0.1201
35626W        W78543  28.666  21.944   0.940 -0.1270  0.0468  0.2398
35627W        W78544  28.432  21.997   3.924  0.5865 -0.0965  0.0426
35628W        W78545  26.899  22.053   3.310  0.1517  0.3260 -0.0296
35629W        W78546  24.000  18.471   1.677 -0.5060  0.0873  0.1560
35630W        W78547  26.540  19.235   0.188  0.2437  0.3097 -0.3858
35631W        W78548  25.494  21.873   3.321  0.1522  0.2038 -0.0448
35632W        W78549  27.811  21.127   1.919 -0.1226 -0.2041 -0.1513
35633W        W78550  29.808  17.620   3.034  0.1843 -0.0442 -0.3257
35634W        W78551  27.307  22.016   2.487 -0.0646 -0.0069  0.0416
35635W        W78552  23.785  19.532   1.127  0.0283 -0.2465 -0.1254
35636W        W78553  25.765  21.701   4.266 -0.0800  0.1502  0.1965
35637W        W78554  28.333  21.549   3.726 -0.1889 -0.0158 -0.0070
35638W        W78555  25.713  20.573   1.701 -0.3301 -0.1059  0.1364
35639W        W78556  28.127  19.864   1.575  0.3574  0.2396  0.0519
35640W        W78557  24.666  21.090  31.550  0.2251  0.1226 -0.2059
35641W        W78558  25.264  20.402   0.303  0.2875 -0.0263 -0.0399
35642W        W78559  26.923  19.719   1.478  0.1020 -0.1123  0.0464
35643W        W78560  27.071  20.153   2.298  0.0591 -0.0127 -0.3184
35644W        W78561  27.511  21.657   1.134 -0.2511 -0.1707  0.1871
35645W        W78562  27.704  20.245   4.843 -0.1652 -0.0853  0.0631
35646W        W78563  26.798  21.045   0.982 -0.0272  0.2895  0.1218
35647W        W78564  29.266  19.911   1.607 -0.2501 -0.0751  0.1148
35648W        W78565  26.858  21.962   2.793 -0.1896 -0.0924 -0.1497
35649W        W78566  29.371  21.896   3.943 -0.1557  0.2742 -0.0673
35650W        W78567  26.403  22.214   1.341 -0.1662 -0.1852  0.0425
35651W        W78568  28.967  20.875   1.167 -0.2658  0.0536  0.1390
35652W        W78569  24.233  18.899   2.955 -0.2082  0.1367 -0.3435
35653W        W78570  25.325  20.074   0.887 -0.2739 -0.0989 -0.0139
35654W        W78571  27.438  21.778   1.633  0.0706 -0.0465  0.1869
35655W        W78572  27.581  19.902   1.531  0.0598 -0.2568  0.2019
35656W        W78573  27.030  19.611   2.428 -0.2684 -0.0197  0.0376
35657W        W78574  25.842  19.195   0.579 -0.0562 -0.1102 -0.0088
35658W        W78575  24.504  23.465   3.677 -0.0598 -0.0185  0.0806
35659W        W78576  26.411  21.451   2.760  0.1466 -0.1485 -0.5104
35660W        W78577  26.481  20.364   6.378 -0.0037  0.0154 -0.1935
35661W        W78578  24.717  19.014   3.902 -0.0071 -0.3804 -0.5344
35662W        W78579  26.956  17.807   3.591 -0.2539 -0.0366  0.2499
35663W        W78580  27.080  19.116   4.393  0.2612 -0.0503 -0.1622
35664W        W78581  24.907  18.943   4.328 -0.0091 -0.0343  0.0464
35665W        W78582  27.305  22.690   5.275  0.1326  0.2305 -0.1349
35666W        W78583  26.761  17.321   6.945 -0.0579  0.0927 -0.0939
35667W        W78584  28.334  20.701   5.876 -0.1972  0.0061  0.0076
35668W        W78585  27.681  21.718   4.528  0.1096  0.0732 -0.1695
35669W        W78586  28.331  20.664   3.899  0.0161 -0.1189  0.3062
35670W        W78587  25.717  19.157   6.709  0.1131  0.1125 -0.1177
35671W        W78588  26.736  21.581   7.156  0.0539  0.0255 -0.6728
35672W        W78589  24.868  17.790   5.619 -0.2960 -0.0762  0.2689
35673W        W78590  23.260  18.305   6.029 -0.2040 -0.0342 -0.3195
35674W        W78591  29.577  18.761   6.284 -0.1598 -0.1207 -0.1202
35675W        W78592  25.702  21.213   4.261 -0.0134  0.2963  0.1968
35676W        W78593  26.028  18.199   6.753  0.1448  0.1647 -0.0127
35677W        W78594  26.011  19.456   5.973 -0.1774  0.1117  0.3013
35678W        W78595  27.811  20.605   5.226  0.2652 -0.1933 -0.1262
35679W        W78596  27.324  18.434   4.978  0.1873  0.1226 -0.2975
35680W        W78597  27.883  19.235   5.988 -0.1902 -0.1457  0.1318
35681W        W78598  26.509  19.973   5.492 -0.3350  0.2218  0.1493
35682W        W78599  26.787  20.761   5.575 -0.1889 -0.0996  0.0096
35683W        W78600  26.049  19.640   4.900 -0.1435 -0.2954 -0.0436
35684W        W78601  25.317  18.344   7.234  0.4962  0.0131  0.0740
35685W        W78602  27.439  17.750   3.661  0.0644 -0.4857  0.1539
35686W        W78603  29.468  20.154   3.723  0.0822 -0.1461 -0.1573
35687W        W78604  27.462  19.544   5.713  0.1438  0.0126  0.1065
35688W        W78605  28.343  22.633   6.331  0.1579  0.2360 -0.0526
35689W        W78606  28.433  19.706   6.709  0.0207 -0.0904 -0.1342
35690W        W78607  24.609  19.879   3.690  0.1580 -0.1513  0.1572
35691W        W78608  24.297  20.333   5.648 -0.1312  0.2657  0.0962
35692W        W78609  25.854  21.532   5.252 -0.2573  0.1684 -0.1559
35693W        W78610  27.455  20.224   4.374  0.2785  0.0198  0.1250
35694W        W78611  27.615  21.064   4.150 -0.2908 -0.4938  0.0059
35695W        W78612  26.921  20.331   7.164 -0.2416  0.2631  0.0650
35696W        W78613  26.602  20.916   4.153 -0.1245 -0.0479 -0.1309
35697W        W78614  27.343  21.933   6.503 -0.0824 -0.0463  0.0001
35698W        W78615  26.388  18.938   7.915  0.0609 -0.2134 -0.0946
35699W        W78616  27.044  19.008   6.990  0.3097 -0.0349  0.0561
35700W        W78617  25.661  20.267   4.137  0.1621 -0.1233  0.3387
35701W        W78618  27.995  18.845   3.448  0.1004 -0.0364  0.0308
35702W        W78619  26.315  22.804   3.858  0.0860  0.2262 -0.1363
35703W        W78620  26.470  18.908   7.132  0.1130  0.0087 -0.1623
35704W        W78621  24.906  20.264   5.392  0.2224  0.0787 -0.0565
35705W        W78622  30.222  20.436   7.113 -0.2274  0.0295 -0.2326
35706W        W78623  24.771  21.955   4.992  0.0412  0.0090 -0.2267
35707W        W78624  26.227  18.175   3.671  0.0848  0.0440  0.0069
35708W        W78625  25.522  18.932   5.700 -0.1610 -0.2923 -0.0710
35709W        W78626  28.658  17.594   2.094  0.0581 -0.2434  0.1688
35710W        W78627  25.817  18.230   4.584  0.2805 -0.0566  0.0826
35711W        W78628  24.316  18.277   6.278  0.0417 -0.5257  0.1276
35712W        W78629  27.359  19.849   4.815 -0.0464 -0.2814  0.0273
35713W        W78630  29.779  19.874   6.411 -0.2668 -0.3251  0.3558
35714W        W78631  27.823  18.457   2.505 -0.2538  0.0751  0.1133
35715W        W78632  25.933  19.032   6.258  0.1648  0.1160 -0.1615
35716W        W78633  25.992  20.542   6.575  0.0165  0.0940  0.0075
35717W        W78634  26.485  19.661   4.668  0.0354 -0.0914  0.0564
35718W        W78635  29.556  23.354   3.884  0.4599 -0.1522  0.1404
35719W        W78636  30.076  21.323   5.417 -0.2194 -0.0777 -0.0766
35720W        W78637  29.017  21.488   5.063  0.1783 -0.0048  0.2696
35721W        W78638  27.600  20.133   3.388  0.0495 -0.0276 -0.0087
35722W        W78639  25.415  18.392   6.103 -0.4043  0.2347 -0.0727
35723W        W78640  26.708  18.754   5.810 -0.4800 -0.2140 -0.0638
35724W        W78641  24.659  17.611   1.688 -0.1802 -0.0670 -0.0054
35725W        W78642  28.733  20.642   6.488 -0.0586  0.0028 -0.0768
35726W        W78643  25.801  21.618   5.836 -0.4753 -0.0330 -0.2755
35727W        W78644  28.275  19.051   5.355 -0.1634 -0.0328 -0.0175
35728W        W78645  26.481  21.950   7.412 -0.1006  0.3214 -0.0563
35729W        W78646  28.787  21.725   5.474 -0.1572 -0.1105 -0.1474
35730W        W78647  25.598  19.518   2.509  0.0063  0.0692  0.0460
35731W        W78648  26.733  18.667   4.661 -0.0036 -0.1930  0.0614
35732W        W78649  29.388  18.632   5.015  0.2519  0.0662 -0.0585
35733W        W78650  25.131  20.378   4.575 -0.1777 -0.0907  0.1008
35734W        W78651  27.936  20.141   2.358 -0.5221  0.3807  0.1704
35735W        W78652  29.013  19.120   5.466 -0.1447 -0.0172  0.0768
35736W        W78653  26.857  21.033   2.582 -0.0305 -0.0149 -0.2845
35737W        W78654  25.115  19.880   5.741  0.0805  0.0796 -0.0378
35738W        W78655  26.824  19.909   5.074  0.1105  0.0813  0.0810
35739W        W78656  28.711  22.659   5.969  0.0207 -0.1257  0.0763
35740W        W78657  24.173  21.585   5.348  0.2861  0.1934 -0.0154
35741W        W78658  22.071  19.957   4.326 -0.0097 -0.1168  0.3206
35742W        W78659  26.176  20.466   3.319  0.1968  0.2508  0.0432
35743W        W78660  26.618  17.936   5.612  0.1821 -0.1435 -0.0517
35744W        W78661  27.302  20.492   5.280  0.0387  0.1304  0.1077
35745W        W78662  28.165  17.080   5.277 -0.3460 -0.2311  0.0160
35746W        W78663  24.564  19.173   7.018 -0.2041 -0.1094 -0.1935
35747W        W78664  28.210  17.872   3.802 -0.2789  0.0051 -0.0752
35748W        W78665  25.630  21.979   5.056  0.0472 -0.0202 -0.0071
35749W        W78666  30.002  20.373   6.551  0.0515 -0.2698 -0.0016
35750W        W78667  26.530  18.569   4.100  0.3326  0.0901  0.1460
35751W        W78668  28.028  21.901   4.217 -0.1006 -0.0148  0.0974
35752W        W78669  24.494  19.931   5.304 -0.0599  0.2254 -0.4033
35753W        W78670  26.134  19.257   3.981  0.1068  0.0009  0.1560
35754W        W78671  26.872  18.602   7.876  0.0978 -0.1910 -0.1220
35755W        W78672  24.814  17.443   5.973 -0.2111 -0.1449 -0.1253
35756W        W78673  27.870  20.701   6.254  0.2150  0.1887  0.0064
35757W        W78674  25.679  18.049   2.937 -0.0780  0.3438 -0.1377
35758W        W78675  26.986  19.787   5.706  0.0789  0.2462  0.0917
35759W        W78676  24.677  19.511   3.413 -0.2927 -0.0428 -0.0494
35760W        W78677  25.294  20.776   5.449 -0.1102 -0.1178 -0.0173
35761W        W78678  28.264  20.462   6.345  0.2886 -0.1879  0.2005
35762W        W78679  27.724  22.011   3.761  0.1240 -0.1344  0.0375
35763W        W78680  29.277  20.507   5.347 -0.4528 -0.2117 -0.0191
35764W        W78681  28.742  20.175   4.626  0.2911  0.1120 -0.0421
35765W        W78682  25.993  20.118   6.360 -0.1322 -0.1618  0.0041
35766W        W78683  25.590  20.070   3.698 -0.0350  0.0059 -0.3228
35767W        W78684  26.165  20.481   4.894 -0.1274  0.0282  0.2896
35768W        W78685  28.703  19.879   5.063 -0.0107  0.0338  0.0829
35769W        W78686  26.423  18.369   5.695  0.3773  0.0879 -0.1349
35770W        W78687  28.591  19.270   4.986 -0.0133 -0.0517  0.0402
35771W        W78688  27.929  18.862   3.954 -0.2051 -0.0073 -0.1369
35772W        W78689  24.607  19.626   6.690 -0.2067 -0.2547  0.0880
35773W        W78690  28.496  18.071   6.465 -0.1339 -0.2930  0.1085
35774W        W78691  29.077  19.497   4.245  0.0316 -0.1119  0.1073
35775W        W78692  27.159  18.733   5.984 -0.1817  0.1024 -0.0220
35776W        W78693  24.856  17.489   4.224 -0.2000 -0.0846  0.1062
35777W        W78694  27.577  21.042   5.142  0.1664 -0.0048  0.0196
35778W        W78695  24.369  18.779   5.029  0.0878  0.1388 -0.0908
35779W        W78696  24.867  20.429   3.052  0.2191  0.2541 -0.3408
35780W        W78697  28.683  20.122   5.493 -0.1381  0.1952  0.0420
35781W        W78698  29.543  17.066   5.602 -0.2609  0.0096 -0.2526
35782W        W78699  24.514  18.769   6.030 -0.0209 -0.2433 -0.2347
35783W        W78700  26.104  19.922   6.824  0.0371 -0.1919 -0.1850
35784W        W78701  25.709  19.196   4.308  0.2073 -0.1421  0.1343
35785W        W78702  25.714  20.353   6.914  0.0654  0.0806 -0.0820
35786W        W78703  26.232  17.636   4.067 -0.0492 -0.1003 -0.1910
35787W        W78704  26.679  18.056   3.955  0.0273 -0.0990  0.0816
35788W        W78705  27.321  20.453   6.451  0.0025  0.1680 -0.0357
35789W        W78706  27.823  19.392   3.865  0.1368  0.0147 -0.0197
35790W        W78707  27.013  18.720   3.994 -0.0411  0.0032  0.0932
35791W        W78708  27.141  18.302   2.515 -0.2299 -0.1244  0.2552
35792W        W78709  27.254  21.405   4.872  0.2811  0.0450  0.1741
35793W        W78710  27.023  20.520   4.230 -0.0955 -0.0933 -0.1346
35794W        W78711  27.840  18.858   5.399  0.0695 -0.1285 -0.0799
35795W        W78712  26.731  19.488   4.216  0.1322 -0.1230  0.0398
35796W        W78713  30.379  23.317   4.751  0.0045 -0.0745 -0.3770
35797W        W78714  25.095  19.936   3.811  0.2561  0.2882 -0.0245
35798W        W78715  27.746  20.063   7.358  0.0050  0.1816  0.0054
35799W        W78716  29.538  21.692   6.104 -0.1096  0.1615  0.1559
35800W        W78717  27.649  17.927   5.438 -0.3205  0.0346  0.1296
35801W        W78718  25.173  17.568   1.955  0.2955 -0.0392  0.2612
35802W        W78719  26.693  17.376   5.788  0.1987 -0.0296  0.0120
35803W        W78720  24.938  19.923   3.183 -0.0704  0.0093  0.2818
35804W        W78721  27.764  18.338   5.157  0.3793  0.3159  0.0540
35805W        W78722  26.069  18.089   5.152  0.0029  0.3504 -0.1576
35806W        W78723  27.909  19.708   5.861 -0.1439  0.3266  0.0656
35807W        W78724  29.016  19.493   5.067 -0.2685  0.1517 -0.0010
35808W        W78725  28.179  19.312   3.330 -0.0360 -0.2064 -0.2633
35809W        W78726  27.784  18.552   4.620  0.0589 -0.0509  0.0236
35810W        W78727  25.477  19.782   3.276 -0.0653  0.2167  0.0077
35811W        W78728  26.279  20.053   7.790  0.2272  0.1090  0.0053
35812W        W78729  23.646  18.510   7.974 -0.1633  0.1100 -0.0227
35813W        W78730  26.559  21.932   5.534 -0.1014  0.3171  0.3797
35814W        W78731  26.533  20.385   5.841 -0.4828  0.1379 -0.0518
35815W        W78732  28.561  18.284   5.563  0.0450 -0.3408  0.2741
35816W        W78733  28.324  18.919   6.207  0.1774 -0.1291 -0.3396
35817W        W78734  26.969  19.945   4.265 -0.0618 -0.4006  0.0627
35818W        W78735  28.302  20.401   5.477 -0.2939  0.3034  0.0985
35819W        W78736  27.498  19.001   4.127 -0.0369  0.0883  0.2234
35820W        W78737  26.072  17.529   4.997 -0.2233 -0.2498 -0.2074
35821W        W78738  26.767  21.760   5.092 -0.5987  0.0079 -0.2151
35822W        W78739  25.295  18.253   3.264 -0.1359  0.1076  0.2221
35823W        W78740  29.832  18.728   5.861  0.0830 -0.1406  0.1179
35824W        W78741  25.476  19.937   6.438  0.0829  0.0873 -0.0415
35825W        W78742  29.421  19.938   5.946  0.2449  0.0604 -0.0072
35826W        W78743  25.034  22.123   8.005 -0.1953 -0.2586 -0.0829
35827W        W78744  25.092  18.434   4.010 -0.1484 -0.0308  0.0692
35828W        W78745  24.981  19.463   3.959 -0.1037  0.0199 -0.0892
35829W        W78746  28.688  18.757   4.216  0.0595 -0.0544 -0.0494
35830W        W78747  27.695  20.539   3.128  0.4543 -0.0402  0.1578
35831W        W78748  24.956  18.135   7.474  0.1020 -0.0424 -0.3040
35832W        W78749  26.792  18.565   7.045  0.0286  0.0574 -0.0333
35833W        W78750  28.138  20.976   5.486 -0.1407 -0.2945 -0.0433
35834W        W78751  29.380  17.900   6.497  0.4201 -0.1485 -0.0951
35835W        W78752  28.981  17.403   4.979 -0.0635  0.2522  0.1043
35836W        W78753  29.908  20.472   5.075  0.0058 -0.3673  0.0459
35837W        W78754  27.962  19.645   6.846  0.3829 -0.0633  0.1044
35838W        W78755  26.470  19.012   3.182 -0.0264 -0.3858  0.3153
35839W        W78756  28.414  18.522   5.211  0.0663 -0.0793 -0.1109
35840W        W78757  25.000  18.286   5.778 -0.1033 -0.2581  0.0336
35841W        W78758  24.383  20.219   4.270 -0.1403  0.2063  0.1475
35842W        W78759  29.108  20.624   4.594 -0.1730  0.0850 -0.1965
35843W        W78760  25.708  19.726   4.494  0.3781  0.2460 -0.1404
35844W        W78761  27.050  21.943   4.712  0.3063 -0.0306  0.1641
35845W        W78762  25.343  19.455   6.528 -0.3994  0.1957  0.2350
35846W        W78763  26.084  18.855   7.566 -0.0148  0.0707  0.3447
35847W        W78764  27.606  17.745   6.729 -0.4138 -0.1404 -0.2200
35848W        W78765  26.489  19.397   5.670  0.0807 -0.0011 -0.2071
35849W        W78766  27.350  22.398   4.776 -0.1166 -0.2082  0.0995
35850W        W78767  27.483  19.404   5.183  0.1437  0.4372 -0.0069
35851W        W78768  26.532  17.896   4.989 -0.3053 -0.2584 -0.2158
35852W        W78769  27.234  20.198   8.257  0.3209  0.1642 -0.1022
35853W        W78770  29.280  19.094   5.961  0.0025 -0.0686 -0.0696
35854W        W78771  29.209  18.736   3.728  0.1285 -0.0219  0.2954
35855W        W78772  27.301  19.934   5.307 -0.3402  0.2498  0.0805
35856W        W78773  25.671  20.722   4.249 -0.1936 -0.0867 -0.2362
35857W        W78774  24.504  18.292   4.946 -0.0446 -0.2070 -0.0968
35858W        W78775  25.461  20.977   6.681 -0.0027  0.3143  0.0742
35859W        W78776  24.616  18.327   6.721  0.1247 -0.0945  0.0930
35860W        W78777  25.517  19.690   6.891 -0.1776  0.0160 -0.1937
35861W        W78778  26.549  20.921   5.165  0.3893  0.1819 -0.1398
35862W        W78779  28.277  21.172   5.967 -0.3982  0.0535  0.4628
35863W        W78780  27.784  16.567   3.418  0.0009 -0.2453 -0.0617
35864W        W78781  27.092  20.197   3.272  0.0329 -0.0653  0.1089
35865W        W78782  26.359  18.299   4.659 -0.4991 -0.3101 -0.1800
35866W        W78783  29.296  18.731   6.677 -0.1207 -0.0083  0.0582
35867W        W78784  27.802  21.072   3.174 -0.2120 -0.0505 -0.2232
35868W        W78785  28.949  18.160   6.692  0.1552  0.1757  0.0925
35869W        W78786  26.240  16.501   4.894  0.1197  0.1194 -0.0918
35870W        W78787  25.999  19.751   4.007 -0.0169 -0.0182  0.1195
35871W        W78788  23.821  18.205   6.264  0.0636 -0.2251  0.3734
35872W        W78789  26.813  23.051   5.749 -0.2624  0.0147  0.1341
35873W        W78790  25.967  19.618   9.054 -0.0288  0.0006 -0.3171
35874W        W78791  26.984  19.090   4.932  0.1293  0.1319 -0.0619
35875W        W78792  27.290  18.650   4.466 -0.1942  0.1027  0.1270
35876W        W78793  26.907  20.599   6.159  0.0968 -0.1693  0.5978
35877W        W78794  29.131  21.034   5.194  0.0453  0.1596 -0.0384
35878W        W78795  25.270  19.393   4.444 -0.2759  0.3331  0.0720
35879W        W78796  29.328  19.313   3.858 -0.0392 -0.0762  0.0771
35880W        W78797  25.858  18.650   5.931 -0.2557  0.1169  0.0614
35881W        W78798  26.558  20.401   4.138 -0.2567 -0.1540  0.2176
35882W        W78799  26.095  17.995   5.735  0.0232  0.1617 -0.0609
35883W        W78800  26.715  20.382   5.086  0.0221  0.0234  0.2439
35884W        W78801  27.676  18.741   5.912 -0.0248  0.0559 -0.0240
35885W        W78802  27.945  20.676   4.727  0.2385 -0.1140  0.3692
35886W        W78803  28.255  17.061   3.909  0.1710 -0.0878  0.2851
35887W        W78804  25.668  18.574   6.457  0.2594  0.0227  0.0256
35888W        W78805  26.399  20.555   7.837  0.0396  0.1924  0.1116
35889W        W78806  25.708  18.660   6.928  0.0743  0.1710  0.1743
35890W        W78807  26.369  17.629   7.085 -0.3532  0.1227 -0.0996
35891W        W78808  28.676  21.409   5.917  0.3350  0.0172  0.0687
35892W        W78809  28.477  21.130   4.006 -0.2567  0.0538  0.1348
35893W        W78810  27.338  20.173   6.901  0.0774  0.3589 -0.0396
35894W        W78811  27.643  18.508   4.176  0.0409  0.0401  0.1113
35895W        W78812  26.648  19.041   4.076 -0.2288  0.0172  0.0676
35896W        W78813  23.744  17.447   4.955 -0.3303 -0.1508 -0.0454
35897W        W78814  27.126  19.724   6.688  0.1464  0.0150  0.2296
35898W        W78815  27.860  21.443   3.489  0.1718 -0.0945  0.0854
35899W        W78816  26.534  19.439   7.197 -0.0348 -0.3158  0.0151
35900W        W78817  27.123  20.280   4.786 -0.1179 -0.1323 -0.0393
35901W        W78818  26.631  21.924   3.781 -0.1650 -0.4149 -0.1070
35902W        W78819  28.177  20.258   4.976  0.3536  0.0147  0.5076
35903W        W78820  26.544  18.918   5.202  0.3341 -0.3790 -0.0048
35904W        W78821  26.128  22.374   6.725 -0.3713  0.0847 -0.1218
35905W        W78822  24.424  20.446   2.787 -0.0052 -0.2809 -0.1053
35906W        W78823  26.966  19.531   4.695  0.0672  0.0284 -0.0448
35907W        W78824  27.570  21.690   5.498  0.2197  0.0642 -0.3015
35908W        W78825  28.960  18.641   5.300 -0.1865  0.0999 -0.0034
35909W        W78826  26.939  18.087   4.772 -0.0111 -0.2759  0.3945
35910W        W78827  27.227  19.692   6.200 -0.2745  0.3448  0.0763
35911W        W78828  27.001  21.074   5.993  0.3596  0.0812 -0.0640
35912W        W78829  27.065  17.587   5.466 -0.0827  0.0994  0.1770
35913W        W78830  26.118  19.688   5.439  0.1242 -0.3928  0.0003
35914W        W78831  24.972  19.980   7.572  0.0673  0.1121 -0.0832
35915W        W78832  26.927  22.202   6.508 -0.1094 -0.3583  0.1434
35916W        W78833  26.166  18.987   5.687  0.2786  0.3936  0.2227
35917W        W78834  26.134  18.781   6.707 -0.1633  0.0145  0.0731
35918W        W78835  25.693  19.842   6.019  0.1172  0.0735  0.0805
35919W        W78836  29.273  20.581   3.442 -0.1238 -0.0913 -0.2261
35920W        W78837  25.957  20.913   8.761  0.0126 -0.3514 -0.0431
35921W        W78838  25.023  19.677   6.275 -0.0116  0.0383 -0.0332
35922W        W78839  26.011  19.573   7.205 -0.1571  0.2812 -0.1280
35923W        W78840  29.311  19.392   4.691  0.0941  0.2403  0.1479
35924W        W78841  26.740  21.594   4.127 -0.2137  0.0600  0.1910
35925W        W78842  24.336  20.213   6.904 -0.2773 -0.1314 -0.0888
35926W        W78843  28.096  20.158   6.917 -0.1579 -0.0888 -0.1742
35927W        W78844  28.170  20.201   5.900  0.1846 -0.1930 -0.1357
35928W        W78845  23.603  16.732   2.732 -0.1333 -0.2326  0.0905
35929W        W78846  27.045  19.771   2.916 -0.0917 -0.0243  0.3030
35930W        W78847  25.981  21.852   6.724 -0.3910  0.1032  0.0176
35931W        W78848  23.875  20.777   6.892  0.1674 -0.1861  0.0423
35932W        W78849  24.140  21.180   4.435 -0.0019 -0.2105 -0.0691
35933W        W78850  28.874  18.788   2.299 -0.1614 -0.0516  0.0163
35934W        W78851  27.626  20.861   3.706  0.2057 -0.1094  0.3449
35935W        W78852  28.824  20.418   5.048 -0.2642  0.1126  0.2466
35936W        W78853  27.445  19.297   4.690  0.0285 -0.3801  0.1914
35937W        W78854  25.531  20.543   6.390 -0.1225 -0.0004 -0.0086
35938W        W78855  24.735  20.960   2.879  0.2295  0.0437 -0.2461
35939W        W78856  29.399  21.700   2.916  0.2078 -0.2075  0.4626
35940W        W78857  25.969  21.002   6.418  0.2299  0.0434  0.0032
35941W        W78858  28.700  19.401   7.174  0.0210  0.2813  0.2037
35942W        W78859  28.327  17.945   4.497  0.1527  0.3432  0.0323
35943W        W78860  27.903  19.959   3.026  0.0882  0.2483 -0.1565
35944W        W78861  26.689  20.064   2.728 -0.2523 -0.0486 -0.0746
35945W        W78862  26.870  22.126   6.016  0.0118 -0.0247 -0.0846
35946W        W78863  25.675  20.308   5.950 -0.0807 -0.2785 -0.0433
35947W        W78864  25.320  18.578   4.385  0.3515 -0.0427 -0.0082
35948W        W78865  23.680  17.971   7.817 -0.0982 -0.2536  0.0360
35949W        W78866  30.105  17.413   8.347  0.0478  0.2543 -0.3202
35950W        W78867  24.592  19.966   7.985 -0.0324 -0.4707  0.0282
35951W        W78868  25.500  22.662   4.165  0.0252 -0.0287 -0.0201
35952W        W78869  27.681  19.590   3.280 -0.1217  0.0995  0.1426
35953W        W78870  26.170  20.581   4.375  0.3300  0.0476 -0.0569
35954W        W78871  28.375  16.210   4.876  0.1595  0.1163  0.0096
35955W        W78872  26.515  20.017   3.509 -0.1304  0.0629 -0.3124
35956W        W78873  26.513  18.385   5.217 -0.1593 -0.2360  0.0649
35957W        W78874  25.558  21.169   5.694 -0.2166  0.2183 -0.0084
35958W        W78875  25.632  20.858   6.047  0.2224  0.1574  0.1349
35959W        W78876  25.900  19.565   6.448 -0.0116  0.0647  0.3611
35960W        W78877  24.616  18.558   4.028 -0.0015  0.0424 -0.1169
35961W        W78878  29.534  18.547   4.142  0.4831  0.1514  0.0789
35962W        W78879  25.498  18.135   6.778 -0.1855 -0.0642 -0.0496
35963W        W78880  28.350  17.974   5.978 -0.0222 -0.4068 -0.0167
35964W        W78881  26.818  19.343   6.710 -0.1226 -0.3198 -0.0153
35965W        W78882  27.525  18.869   5.000 -0.1081  0.1391  0.3013
35966W        W78883  25.210  17.812   5.974  0.1293  0.2504 -0.1324
35967W        W78884  24.881  18.540   6.313 -0.0789  0.0710 -0.0236
35968W        W78885  26.263  20.950   4.716  0.0626 -0.1869  0.2960
35969W        W78886  28.123  19.904   5.470 -0.3134  0.0831 -0.1081
35970W        W78887  26.154  18.643   3.824 -0.0298  0.3447  0.2614
35971W        W78888  27.604  21.781   6.065 -0.0900 -0.1369 -0.0978
35972W        W78889  25.222  17.947   4.879 -0.1253  0.1591  0.3999
35973W        W78890  26.859  18.387   3.593  0.0141  0.0839 -0.0008
35974W        W78891  25.674  19.363   2.991 -0.2183  0.1526  0.1309
35975W        W78892  24.980  18.763   5.832 -0.3052 -0.1676 -0.0830
35976W        W78893  25.230  21.914   7.575 -0.1772  0.1863 -0.1104
35977W        W78894  24.818  16.607   3.288 -0.2761 -0.0328  0.0065
35978W        W78895  29.700  21.535   4.148 -0.2995 -0.3241 -0.0867
35979W        W78896  28.548  18.519   6.128 -0.0614 -0.2532  0.3201
35980W        W78897  26.082  20.555   6.027  0.1045 -0.0134  0.0797
35981W        W78898  27.806  19.330   4.353  0.0904 -0.1745  0.6694
35982W        W78899  26.964  20.342   3.758 -0.1688  0.1943  0.0870
35983W        W78900  25.252  17.431   5.642  0.0273 -0.2228  0.0594
35984W        W78901  28.786  20.956   6.047 -0.2064  0.1067  0.1109
35985W        W78902  30.526  20.903   6.137 -0.1630  0.1413  0.2986
35986W        W78903  26.131  19.173   5.191  0.3422 -0.2344  0.0370
35987W        W78904  25.073  17.327   6.902  0.0449  0.4749 -0.1411
35988W        W78905  25.890  20.702   5.621 -0.2077  0.1683  0.2232
35989W        W78906  27.688  20.232   5.523 -0.2590 -0.0595 -0.0361
35990W        W78907  27.047  18.074   6.270 -0.1326  0.0649 -0.0305
35991W        W78908  25.530  19.572   5.081  0.3782  0.1234 -0.0475
35992W        W78909  28.679  17.799   7.001 -0.1235 -0.4060 -0.2058
35993W        W78910  26.526  19.771   6.546  0.2241 -0.1506 -0.1757
35994W        W78911  24.154  20.274   7.896  0.1001  0.2164 -0.2784
35995W        W78912  26.055  21.776   3.471 -0.1702  0.0236 -0.1805
35996W        W78913  26.294  21.540   7.602  0.1081 -0.2478  0.0503
35997W        W78914  27.696  21.199   5.601  0.1303  0.2284 -0.1456
35998W        W78915  27.252  21.455   5.858  0.5636 -0.0042  0.3336
35999W        W78916  28.137  21.113   4.935  0.3757 -0.1584  0.3492
36000W        W78917  28.626  18.986   3.321  0.0487 -0.2859 -0.3424
36001W        W78918  31.077  19.919   5.984  0.0940  0.0590  0.1087
36002W        W78919  25.328  17.699   6.718  0.1200  0.1805 -0.2662
36003W        W78920  28.133  18.381   4.259 -0.2389  0.1560  0.1028
36004W        W78921  27.343  18.216   3.905  0.2900 -0.2571 -0.1432
36005W        W78922  25.148  19.035   6.645 -0.2051  0.0486 -0.1064
36006W        W78923  25.024  18.897   5.290 -0.3862  0.0153 -0.1458
36007W        W78924  26.119  20.072   4.422  0.1711 -0.0680  0.3960
36008W        W78925  26.603  20.186   4.593  0.1001 -0.0234 -0.0143
36009W        W78926  28.484  18.303   6.888  0.0739  0.1294  0.0607
36010W        W78927  25.350  18.898   6.237 -0.1564  0.1836  0.1444
36011W        W78928  24.150  17.942   5.917 -0.1501 -0.1858 -0.1880
36012W        W78929  25.292  16.943   5.548 -0.1098 -0.0548  0.0233
36013W        W78930  27.319  19.579   4.227 -0.0769 -0.0632  0.2159
36014W        W78931  24.629  17.235   6.719  0.2951  0.0875 -0.2385
36015W        W78932  24.523  18.153   5.637 -0.0205  0.1925 -0.0749
36016W        W78933  27.418  19.745   3.714  0.0971  0.0407  0.2413
36017W        W78934  27.933  22.782   2.853 -0.1053 -0.1179 -0.1727
36018W        W78935  27.522  19.114   3.558  0.1627 -0.0425 -0.1930
36019W        W78936  27.081  20.821   7.254 -0.2444 -0.1189  0.0023
36020W        W78937  25.498  21.211   5.111 -0.1650 -0.1174 -0.0090
36021W        W78938  26.965  20.129   6.081  0.4244 -0.1021  0.0375
36022W        W78939  26.287  19.460   7.760  0.1047 -0.0268  0.0686
36023W        W78940  23.720  17.266   0.934  0.1209  0.2781  0.0834
36024W        W78941  27.042  19.447   5.347  0.1090 -0.0079  0.0544
36025W        W78942  27.681  21.212   4.666 -0.1104 -0.3360 -0.0744
36026W        W78943  27.292  20.658   3.404 -0.2092  0.0360  0.2170
36027W        W78944  26.280  21.879   5.080  0.1976 -0.0015  0.0251
36028W        W78945  26.457  21.956   6.880  0.2195 -0.4269  0.1013
36029W        W78946  25.004  16.523   6.419  0.2718 -0.1436 -0.4043
36030W        W78947  29.120  20.533   4.058 -0.0204  0.1170  0.0564
36031W        W78948  25.302  17.396   6.291  0.0978  0.1906  0.0691
36032W        W78949  29.596  20.082   5.468 -0.1855 -0.1261  0.4391
36033W        W78950  28.770  18.400   3.728 -0.2166  0.1408  0.2594
36034W        W78951  28.281  19.374   4.648  0.1880 -0.2076  0.0250
36035W        W78952  25.766  17.709   7.663 -0.2007 -0.3325 -0.0057
36036W        W78953  25.386  19.730   7.368 -0.0054  0.3115  0.3635
36037W        W78954  28.863  19.158   3.773  0.0339 -0.1345 -0.1124
36038W        W78955  24.270  19.679   3.986 -0.1683  0.1532  0.1675
36039W        W78956  28.208  18.588   6.572  0.0706 -0.0605  0.0159
36040W        W78957  27.085  22.435   2.877  0.2057 -0.2157  0.0259
36041W        W78958  25.742  19.346   5.494 -0.2000 -0.2247  0.3193
36042W        W78959  24.354  17.288   2.917  0.0038  0.0809  0.1215
36043W        W78960  26.046  18.512   5.461 -0.3358 -0.1138 -0.0357
36044W        W78961  26.867  21.334   5.320 -0.0101  0.0870 -0.2196
36045W        W78962  29.924  19.970   6.937  0.3105 -0.1425 -0.2845
36046W        W78963  24.688  19.217   6.324 -0.1183  0.0472 -0.3270
36047W        W78964  28.527  20.668   2.759  0.3211 -0.2485  0.3779
36048W        W78965  26.873  20.126   6.618  0.1778  0.0369  0.0974
36049W        W78966  27.889  20.639   5.747  0.0617  0.0533 -0.2209
36050W        W78967  26.873  21.734   6.269 -0.1093  0.1009  0.1073
36051W        W78968  27.801  19.773   4.550  0.3071  0.0334 -0.0753
36052W        W78969  26.151  17.873   4.638  0.0309  0.0318  0.0232
36053W        W78970  25.994  22.131   6.230 -0.0479 -0.2548 -0.4208
36054W        W78971  27.504  20.859   5.966 -0.1125 -0.0047 -0.3983
36055W        W78972  28.882  17.751   6.330 -0.3683 -0.1890 -0.2845
36056W        W78973  23.883  20.110   3.433  0.0873 -0.0264  0.0009
36057W        W78974  27.811  17.988   4.128 -0.0430  0.0657 -0.0657
36058W        W78975  25.734  21.678   7.144  0.2018 -0.0119 -0.2964
36059W        W78976  29.563  20.744   3.812 -0.1320  0.0591 -0.1807
36060W        W78977  26.489  20.893   6.156 -0.2170 -0.1016 -0.0674
36061W        W78978  27.477  21.993   8.178  0.0498 -0.1574  0.0689
36062W        W78979  27.352  18.735   6.617  0.2040  0.1361  0.1680
36063W        W78980  27.853  19.177   7.763 -0.3099 -0.0030 -0.2351
36064W        W78981  24.518  18.008   7.275  0.1339 -0.1168 -0.0243
36065W        W78982  28.241  22.155   7.991  0.1371  0.0464 -0.0527
36066W        W78983  29.801  20.675   6.908  0.0265 -0.3431 -0.0245
36067W        W78984  26.732  20.230   9.172 -0.0082 -0.1831  0.3757
36068W        W78985  26.755  21.393   7.826 -0.0221 -0.2467 -0.0651
36069W        W78986  27.744  18.742   7.366  0.0790  0.2395  0.1839
36070W        W78987  27.147  17.103   7.556  0.2169 -0.0255 -0.1873
36071W        W78988  25.062  17.396   8.946 -0.2344  0.0661  0.1609
36072W        W78989  24.312  19.224   7.472  0.0841 -0.1336  0.2016
36073W        W78990  24.795  19.641   8.955  0.3076  0.0118  0.2287
36074W        W78991  26.469  21.454   8.210 -0.0572 -0.1203 -0.0729
36075W        W78992  28.791  21.563   7.615 -0.0898 -0.1170  0.1682
36076W        W78993  27.503  19.310   6.682 -0.0561  0.3321  0.0580
36077W        W78994  27.759  21.005   6.761 -0.2093  0.3026  0.1423
36078W        W78995  24.490  20.641   7.571 -0.2799  0.0757 -0.0441
36079W        W78996  26.148  16.696   8.045  0.0778  0.1490  0.0203
36080W        W78997  25.665  21.182   8.421  0.1082  0.0759  0.0140
36081W        W78998  27.538  18.243   7.547 -0.1873  0.1269 -0.2669
36082W        W78999  30.234  17.946   8.303  0.2082 -0.2249  0.2279
36083W        W79000  27.406  20.419   7.426  0.0088  0.0173  0.5096
36084W        W79001  28.661  20.334   8.829  0.0249  0.2258 -0.0664
36085W        W79002  26.078  20.858   7.536  0.0084  0.0394 -0.1162
36086W        W79003  26.361  21.623   8.882 -0.1927 -0.0224 -0.1390
36087W        W79004  25.765  19.131   8.050 -0.0805  0.2770  0.0149
36088W        W79005  30.566  21.360   7.602 -0.0282  0.2279 -0.0091
36089W        W79006  24.958  20.482   7.466 -0.0259  0.0976  0.3558
36090W        W79007  31.814  20.649   9.292 -0.4140  0.0496  0.2498
36091W        W79008  28.643  19.732   8.227  0.1045 -0.1717  0.0201
36092W        W79009  25.927  20.440   7.888 -0.0185 -0.1558 -0.1954
36093W        W79010  27.366  19.488   7.591  0.1132  0.1256  0.0235
36094W        W79011  22.988  22.997   8.768  0.0540 -0.0423  0.1531
36095W        W79012  25.783  20.858   7.077  0.0272  0.1512 -0.2645
36096W        W79013  28.634  19.487   5.439 -0.1506 -0.1598 -0.0215
36097W        W79014  27.832  18.830   6.403  0.0742  0.1874 -0.4223
36098W        W79015  27.758  19.563   6.315  0.1376 -0.1348  0.1488
36099W        W79016  24.438  18.122   8.652 -0.2289  0.1744  0.2767
36100W        W79017  25.331  23.660  13.361 -0.0437  0.1002  0.0193
36101W        W79018  28.132  20.484   8.928 -0.0495  0.0693  0.0084
36102W        W79019  27.722  20.128   8.253  0.0413  0.3611  0.1228
36103W        W79020  24.376  19.099   8.295  0.1336  0.0513 -0.0833
36104W        W79021  25.743  22.420   9.965  0.0495 -0.1103  0.0846
36105W        W79022  26.107  18.360   8.963 -0.1991 -0.0218 -0.1384
36106W        W79023  27.695  21.529   6.983  0.0857 -0.2074  0.1326
36107W        W79024  27.807  18.631   8.881  0.2306 -0.1903 -0.1193
36108W        W79025  26.710  19.913   7.050 -0.1114 -0.1818 -0.0198
36109W        W79026  26.327  17.145   8.118  0.2273 -0.0522 -0.1038
36110W        W79027  27.477  19.136   7.261  0.0157  0.2481  0.1278
36111W        W79028  28.204  17.613   6.875 -0.1998 -0.1957  0.0039
36112W        W79029  25.732  20.287   9.067  0.0290 -0.0203 -0.0034
36113W        W79030  28.376  21.003   8.995  0.2717 -0.0469 -0.5965
36114W        W79031  27.833  19.019   6.877  0.1861 -0.5855 -0.0112
36115W        W79032  26.696  19.953   8.644 -0.1852 -0.2868 -0.0311
36116W        W79033  26.523  18.424   7.464  0.0434  0.0762  0.0981
36117W        W79034  26.278  21.830   5.922 -0.0617  0.2744 -0.0091
36118W        W79035  25.501  19.368   5.940  0.2753  0.0127 -0.1056
36119W        W79036  30.065  22.870   9.033  0.0013  0.3672 -0.2791
36120W        W79037  26.129  20.488   7.156 -0.1194  0.0399  0.1012
36121W        W79038  26.721  20.793   9.162  0.1648  0.0443 -0.2015
36122W        W79039  22.026  19.547   7.059 -0.2041  0.2573  0.2276
36123W        W79040  23.855  23.529   9.156 -0.2612  0.0824  0.1053
36124W        W79041  21.142  19.290   7.189 -0.0035 -0.1274 -0.2021
36125W        W79042  24.489  18.642   8.490 -0.1933  0.3074  0.1407
36126W        W79043  23.192  20.522   8.314 -0.0408  0.3888  0.0600
36127W        W79044  28.251  19.481   6.301 -0.0113  0.1109 -0.1426
36128W        W79045  28.008  20.257   7.845 -0.1661 -0.0075  0.0615
36129W        W79046  25.003  20.239   7.993  0.0065  0.1308  0.0721
36130W        W79047  27.949  21.550   5.767  0.0760 -0.0636  0.2372
36131W        W79048  29.776  19.453   7.276  0.0406 -0.1942 -0.1993
36132W        W79049  28.788  19.494   7.778  0.1284 -0.1397  0.2699
36133W        W79050  22.016  19.322   9.397 -0.3223 -0.0350  0.1496
36134W        W79051  25.072  20.790   9.297  0.1683  0.1346 -0.2123
36135W        W79052  24.894  18.868   9.313  0.4970 -0.1944 -0.1589
36136W        W79053  24.775  19.045   8.625  0.2413 -0.0458  0.0105
36137W        W79054  27.157  18.629   9.450  0.0096  0.0355  0.1937
36138W        W79055  28.931  18.844   8.697  0.0840  0.1271 -0.2143
36139W        W79056  24.323  18.921   7.854 -0.2239  0.0312  0.3532
36140W        W79057  25.784  22.551   7.557  0.0028  0.1208  0.0706
36141W        W79058  29.399  21.055   8.637 -0.2085 -0.2214  0.1705
36142W        W79059  29.055  20.474   8.396  0.1196 -0.2010  0.1378
36143W        W79060  27.499  19.742   7.013  0.3015 -0.0708  0.0287
36144W        W79061  25.500  18.882   8.396  0.1349  0.1611 -0.1005
36145W        W79062  25.286  24.157   8.070 -0.0179 -0.0310 -0.2141
36146W        W79063  28.100  18.161   9.110  0.0066  0.4364 -0.1130
36147W        W79064  25.555  18.778   7.439 -0.1283 -0.2413 -0.0118
36148W        W79065  27.863  21.372   8.343  0.1408 -0.0495  0.0537
36149W        W79066  27.390  18.156   6.667  0.1324  0.2854 -0.0525
36150W        W79067  29.841  18.387   8.879  0.0780  0.0989  0.2600
36151W        W79068  27.846  19.505   8.204  0.0358  0.1680 -0.1430
36152W        W79069  23.878  17.601   6.139  0.1012  0.0543 -0.1389
36153W        W79070  28.150  21.672   7.548 -0.1327 -0.0521 -0.0033
36154W        W79071  27.237  21.868   8.953 -0.0532  0.1551  0.1963
36155W        W79072  26.093  20.009   9.369 -0.0262 -0.3364 -0.0779
36156W        W79073  27.442  19.689   8.453 -0.0711 -0.2680 -0.1478
36157W        W79074  29.098  19.967   8.354  0.0143  0.0468  0.1239
36158W        W79075  26.573  19.697   8.175 -0.0854  0.2987  0.0173
36159W        W79076  27.010  21.764   8.017 -0.1932  0.1051 -0.3624
36160W        W79077  29.538  20.328   8.409  0.0556  0.2110 -0.1759
36161W        W79078  29.963  21.156   6.633  0.2345 -0.1633  0.1184
36162W        W79079  26.966  19.068   6.338  0.1413  0.0747 -0.0968
36163W        W79080  29.668  18.259   8.307  0.1567 -0.2668  0.0558
36164W        W79081  28.172  18.503   8.121 -0.2156 -0.0206  0.1675
36165W        W79082  26.978  20.970   7.770 -0.0136 -0.1451 -0.3203
36166W        W79083  29.621  19.070   6.935  0.0063  0.1240  0.3999
36167W        W79084  30.158  20.529   7.602  0.0377 -0.1221 -0.1874
36168W        W79085  25.142  19.306   8.250  0.0313 -0.0450  0.3007
36169W        W79086  29.254  20.392   7.960  0.0490  0.0601  0.3868
36170W        W79087  25.281  17.908   9.015 -0.1785 -0.0552  0.1488
36171W        W79088  27.956  20.549   7.147 -0.1341 -0.2595  0.0485
36172W        W79089  27.050  16.843   8.492  0.2571  0.2151  0.1001
36173W        W79090  24.609  21.151   6.979  0.2515  0.0387  0.0449
36174W        W79091  27.642  18.149   8.877  0.2624 -0.0336 -0.1150
36175W        W79092  26.458  19.767   9.126 -0.1031  0.2346 -0.0844
36176W        W79093  30.582  19.293   7.897 -0.0446  0.0517 -0.0536
36177W        W79094  24.041  17.771   8.072 -0.0394 -0.1345 -0.0021
36178W        W79095  26.287  19.385   6.764  0.0192  0.1136 -0.1448
36179W        W79096  25.520  15.057   8.711  0.2143 -0.0305  0.1428
36180W        W79097  24.584  23.131   8.508 -0.0981  0.2623 -0.5868
36181W        W79098  29.575  19.709   5.044 -0.0206  0.0791 -0.0943
36182W        W79099  26.744  20.037   7.609 -0.1894  0.0525 -0.0259
36183W        W79100  27.653  20.582   9.561 -0.2391  0.0891  0.1863
36184W        W79101  26.914  20.507   7.625  0.0639  0.1075  0.1275
36185W        W79102  24.781  17.170   8.538  0.0914  0.1723 -0.0036
36186W        W79103  26.788  23.418   7.424 -0.0245  0.0681 -0.1212
36187W        W79104  27.404  20.669   6.948  0.1809 -0.0632 -0.1164
36188W        W79105  26.567  18.512   8.913  0.0006 -0.0501  0.0393
36189W        W79106  26.766  22.839   9.258 -0.0122 -0.0798 -0.0366
36190W        W79107  31.499  20.254   7.968  0.0264  0.0732  0.1612
36191W        W79108  26.304  21.872   8.421 -0.0995  0.1278 -0.2580
36192W        W79109  28.168  19.879   8.162 -0.0143 -0.0651 -0.1095
36193W        W79110  23.095  22.496   8.760 -0.3020 -0.1297  0.0381
36194W        W79111  27.282  18.610   7.202  0.0614 -0.0282  0.0700
36195W        W79112  28.806  21.066   7.510 -0.1619  0.0145 -0.0106
36196W        W79113  24.349  18.909   9.448  0.2786  0.0907  0.0364
36197W        W79114  25.382  14.849   9.116  0.0762 -0.2344 -0.3173
36198W        W79115  24.167  20.622   8.270 -0.3070  0.4173 -0.2130
36199W        W79116  29.173  16.643   7.673 -0.1943  0.2987  0.1799
36200W        W79117  25.927  19.053   7.150  0.6588 -0.1019 -0.0812
36201W        W79118  28.826  15.541   9.261 -0.0867  0.0007  0.2036
36202W        W79119  25.915  17.500   8.164 -0.0776  0.0291 -0.0889
36203W        W79120  26.298  19.168   8.317  0.0499 -0.1671  0.1185
36204W        W79121  23.820  16.364   8.855 -0.2825  0.0328  0.1719
36205W        W79122  23.448  19.529   8.907  0.3392 -0.2189 -0.1888
36206W        W79123  25.716  20.905   7.893 -0.3025  0.1840  0.0851
36207W        W79124  30.590  20.542   8.544  0.0037  0.1079  0.0256
36208W        W79125  27.023  19.817   8.003 -0.2057 -0.0755  0.1103
36209W        W79126  26.276  19.967   7.253  0.2271 -0.0370  0.2427
36210W        W79127  31.836  17.046   9.180  0.0255 -0.0850 -0.4700
36211W        W79128  30.794  19.611   7.257  0.1833  0.2901 -0.2057
36212W        W79129  30.768  19.865   8.024 -0.3934 -0.1192 -0.0610
36213W        W79130  28.319  19.101   9.362  0.1111 -0.3618 -0.0247
36214W        W79131  31.091  21.245   6.876 -0.1450  0.0952  0.0778
36215W        W79132  25.474  20.020   7.705  0.0568  0.0944 -0.0017
36216W        W79133  26.520  20.745   8.454 -0.3372  0.1056 -0.2014
36217W        W79134  25.412  19.543   7.879  0.0431 -0.0097  0.0545
36218W        W79135  26.222  18.754   8.639 -0.2404 -0.2684 -0.2416
36219W        W79136  27.893  21.808   9.261  0.1439 -0.0646 -0.3635
36220W        W79137  27.047  20.693   8.292 -0.2797 -0.3119  0.2196
36221W        W79138  23.239  21.174   7.311 -0.0240  0.2179  0.0214
36222W        W79139  27.544  16.921   7.257 -0.1082 -0.0652  0.3018
36223W        W79140  25.814  21.361   7.502 -0.0490  0.0471  0.1211
36224W        W79141  26.111  18.618   9.401  0.1763  0.2116  0.1225
36225W        W79142  28.047  19.961   6.391  0.1919  0.1303 -0.2536
36226W        W79143  26.488  16.192   8.325  0.0302 -0.2547  0.3472
36227W        W79144  29.969  22.068   8.554  0.1213 -0.1222  0.2287
36228W        W79145  28.298  19.679   7.193 -0.0998 -0.0344 -0.2284
36229W        W79146  26.158  17.958   7.494 -0.3647 -0.1199 -0.0621
36230W        W79147  28.571  19.100   8.921  0.0772 -0.0207 -0.0277
36231W        W79148  30.083  19.930   8.675 -0.0610 -0.1783 -0.3235
36232W        W79149  25.322  19.065   7.722  0.3148 -0.1544  0.3349
36233W        W79150  27.275  16.770   8.972  0.0124  0.1061  0.0171
36234W        W79151  27.177  19.938   7.415  0.0343 -0.1657 -0.0294
36235W        W79152  27.440  17.817   6.277 -0.3093  0.0934 -0.1957
36236W        W79153  27.733  20.433   6.659  0.0507 -0.0487  0.1883
36237W        W79154  25.510  19.908   9.339  0.2349  0.1323  0.0132
36238W        W79155  27.202  18.072   9.153  0.2678  0.0659 -0.1067
36239W        W79156  26.887  18.203   6.709 -0.0803 -0.0687  0.1546
36240W        W79157  28.255  21.776   8.344  0.0376 -0.1663  0.0138
36241W        W79158  29.690  19.035   7.586 -0.0672 -0.0062  0.0383
36242W        W79159  28.823  19.384   8.624  0.0513  0.2390  0.0817
36243W        W79160  29.419  19.228   9.241  0.1195 -0.1031 -0.0629
36244W        W79161  27.012  19.325   5.856 -0.0284 -0.2627  0.3263
36245W        W79162  25.040  18.423   9.122  0.2211 -0.0777 -0.0964
36246W        W79163  26.353  20.865   6.697  0.0425 -0.2015  0.2217
36247W        W79164  27.850  22.650   8.389 -0.0097 -0.2317 -0.0845
36248W        W79165  27.601  21.246   8.802  0.2337  0.2586 -0.0476
36249W        W79166  27.977  18.294   6.228  0.1761  0.3327  0.2883
36250W        W79167  27.395  19.293   9.525  0.1142  0.0826  0.3094
36251W        W79168  27.035  19.510   7.136 -0.1118 -0.3014  0.0791
36252W        W79169  27.890  21.229   7.809 -0.2045  0.3889 -0.1374
36253W        W79170  30.532  20.005   8.487 -0.4114  0.0066 -0.0437
36254W        W79171  26.862  18.560   6.314 -0.0738  0.1144 -0.2103
36255W        W79172  26.224  19.186   9.060 -0.1330  0.1884 -0.1969
36256W        W79173  26.227  20.506   9.059 -0.0874  0.0438  0.0399
36257W        W79174  27.516  21.012   8.270 -0.2358 -0.0876 -0.0268
36258W        W79175  28.423  22.759   9.147 -0.0378  0.1401  0.0655
36259W        W79176  25.645  19.553   8.402  0.1238 -0.1039  0.3421
36260W        W79177  30.345  18.815   9.485 -0.2108  0.0773 -0.1316
36261W        W79178  28.298  19.612   9.017  0.0655 -0.0427 -0.0707
36262W        W79179  28.228  17.776   8.680 -0.0609 -0.2727  0.2913
36263W        W79180  29.924  19.717   9.121  0.1708  0.1215  0.2031
36264W        W79181  25.478  21.236   8.891 -0.4469  0.0322 -0.0180
36265W        W79182  28.078  21.370   8.766 -0.0484 -0.0122 -0.1336
36266W        W79183  27.605  15.911   6.668 -0.1647 -0.4002  0.0193
36267W        W79184  27.105  21.358   7.481 -0.0183 -0.3757 -0.2249
36268W        W79185  25.982  18.742   8.176  0.2020 -0.0989 -0.0156
36269W        W79186  24.765  21.539   8.733  0.2207 -0.0127  0.0240
36270W        W79187  28.202  20.945   6.463 -0.0933  0.1393  0.0417
36271W        W79188  28.242  20.303   7.413  0.2645  0.2680 -0.3700
36272W        W79189  28.662  21.279   8.113  0.1262  0.0631 -0.1994
36273W        W79190  27.933  19.436   5.378 -0.1692  0.0167  0.0065
36274W        W79191  25.811  20.475   8.477  0.1731  0.2069  0.2420
36275W        W79192  24.288  20.976   7.276  0.1269  0.0321 -0.0378
36276W        W79193  30.478  20.063   6.809  0.0696 -0.2647 -0.1041
36277W        W79194  26.938  21.209   9.626 -0.0450  0.4050  0.0010
36278W        W79195  28.850  18.916   7.215 -0.0605  0.0320  0.0340
36279W        W79196  28.462  19.798   5.828 -0.0802  0.0754 -0.1323
36280W        W79197  29.273  17.832   7.179 -0.1512  0.1199 -0.0050
36281W        W79198  27.436  20.593   8.619 -0.1699 -0.5267  0.1283
36282W        W79199  26.903  18.458   8.417 -0.0145  0.1502 -0.1950
36283W        W79200  28.521  20.529   9.324 -0.0640 -0.0263 -0.1984
36284W        W79201  25.209  19.819   8.210 -0.0013 -0.0484  0.0877
36285W        W79202  25.258  21.476   8.412  0.0804  0.0346 -0.1637
36286W        W79203  27.947  16.336   8.371  0.2939 -0.1736 -0.1034
36287W        W79204  26.566  20.605   7.289 -0.1217 -0.0494 -0.0975
36288W        W79205  26.740  20.336   8.098  0.0545  0.1139  0.0951
36289W        W79206  24.580  20.453   8.070 -0.3037 -0.0252 -0.0395
36290W        W79207  27.448  19.950   7.847  0.3195 -0.0844  0.1243
36291W        W79208  26.095  21.408   8.531  0.2337 -0.0091  0.0912
36292W        W79209  24.034  18.263   7.380 -0.1979 -0.0341  0.2799
36293W        W79210  28.978  18.352   8.423 -0.0221  0.2630 -0.1697
36294W        W79211  25.604  17.600   8.597 -0.0343 -0.0522 -0.1617
36295W        W79212  28.896  20.187   9.218 -0.1196  0.1509 -0.2746
36296W        W79213  30.929  18.630   8.334 -0.0695  0.0210 -0.2756
36297W        W79214  23.437  19.521   8.405  0.2946  0.1041 -0.4376
36298W        W79215  25.467  19.009   9.296 -0.0873  0.0255  0.0488
36299W        W79216  29.167  19.637   6.315  0.2140  0.2484  0.0782
36300W        W79217  30.135  18.869   8.935 -0.1291 -0.0096  0.3502
36301W        W79218  24.109  18.468   7.805  0.0661 -0.1710 -0.2490
36302W        W79219  28.126  19.114   7.293 -0.2259  0.1542  0.2662
36303W        W79220  25.872  19.986   8.650  0.1569  0.1345 -0.2000
36304W        W79221  30.222  21.789   8.879 -0.0403  0.1515  0.1044
36305W        W79222  25.601  17.327   7.039  0.1142  0.0423  0.1438
36306W        W79223  29.009  19.815   7.382  0.1441 -0.1561  0.0011
36307W        W79224  28.547  18.707   8.473 -0.0397 -0.0540 -0.0677
36308W        W79225  28.027  22.979   6.760 -0.0546  0.1594 -0.0043
36309W        W79226  28.683  19.800   6.271 -0.3874 -0.0096  0.0084
36310W        W79227  27.170  22.316   7.962 -0.0413  0.2483  0.1179
36311W        W79228  24.174  18.286   8.221 -0.0070  0.0229  0.3136
36312W        W79229  30.244  23.284   8.759 -0.0025  0.3632  0.1696
36313W        W79230  28.173  18.945   8.671  0.3124 -0.3198 -0.0897
36314W        W79231  29.142  17.281   7.217 -0.2155  0.2065 -0.1425
36315W        W79232  27.746  18.808   8.415 -0.0889  0.0891  0.0766
36316W        W79233  25.205  22.498   8.317  0.0427  0.0573  0.2556
36317W        W79234  30.603  18.126   9.554  0.1867 -0.1309 -0.1794
36318W        W79235  26.486  21.384   6.719  0.1836  0.0823  0.1505
36319W        W79236  28.347  20.068   9.143 -0.1627  0.0930 -0.1460
36320W        W79237  25.021  19.418   6.974  0.0688  0.0632  0.0635
36321W        W79238  27.360  20.520   7.896 -0.1094 -0.0797 -0.3138
36322W        W79239  28.490  22.023   7.579  0.5658  0.0117 -0.1452
36323W        W79240  28.463  19.947   8.649 -0.1042 -0.1153  0.3510
36324W        W79241  26.466  20.301   6.868 -0.1027  0.0272 -0.4939
36325W        W79242  30.969  19.561   9.144 -0.1895  0.1072 -0.0500
36326W        W79243  23.978  19.936   7.165  0.0422 -0.1244  0.0859
36327W        W79244  28.718  16.535   7.692 -0.1986  0.0877  0.0334
36328W        W79245  25.041  18.144   8.606 -0.1970 -0.2458 -0.2369
36329W        W79246  26.799  15.927   8.901 -0.0660 -0.0368  0.2946
36330W        W79247  24.318  19.569   8.762  0.0906 -0.2130  0.1482
36331W        W79248  27.954  19.745   7.684  0.0838 -0.2390  0.0786
36332W        W79249  24.576  20.109   8.885 -0.0178 -0.1874  0.0246
36333W        W79250  27.823  20.635   8.169  0.0398  0.1561  0.0043
36334W        W79251  23.658  19.987   7.627 -0.1328 -0.0420  0.1944
36335W        W79252  28.654  19.226   8.156  0.1673  0.0313 -0.0127
36336W        W79253  24.582  18.434   8.036  0.1156  0.1796 -0.1177
36337W        W79254  23.431  17.817   8.912 -0.0807 -0.0757  0.1967
36338W        W79255  28.623  20.114   7.210  0.0218 -0.1212 -0.3030
36339W        W79256  29.148  20.344   7.396 -0.2124  0.1395 -0.1284
36340W        W79257  25.917  19.233   8.691 -0.2501  0.3558 -0.1197
36341W        W79258  25.459  19.255   7.193 -0.0064  0.1123 -0.1350
36342W        W79259  24.267  17.118   8.427 -0.2097  0.1739 -0.1882
36343W        W79260  27.279  17.732   8.119  0.2458 -0.1778  0.1337
36344W        W79261  28.438  20.743   8.509 -0.2101 -0.0951 -0.0959
36345W        W79262  28.748  22.411   9.011  0.1080 -0.0301  0.0619
36346W        W79263  23.236  18.230   8.047  0.0901 -0.2706  0.2256
36347W        W79264  31.050  19.468   8.040  0.3079 -0.1460 -0.1467
36348W        W79265  29.980  20.091   7.471  0.0776  0.0199 -0.0132
36349W        W79266  32.459  18.236   8.317  0.1249 -0.1295  0.0238
36350W        W79267  30.338  20.801   8.990 -0.0159  0.0371  0.0616
36351W        W79268  29.059  19.120   7.866 -0.1392 -0.0711 -0.1584
36352W        W79269  26.431  18.117   7.008 -0.0011 -0.0897  0.3545
36353W        W79270  28.142  18.166   7.808  0.1266 -0.0689  0.2687
36354W        W79271  28.362  20.598   6.855 -0.0749 -0.2192 -0.1164
36355W        W79272  29.783  21.127   8.249  0.0800  0.0295  0.0702
36356W        W79273  28.250  17.818   7.313 -0.0690  0.1805  0.0870
36357W        W79274  27.947  19.775   8.652 -0.3440  0.1441 -0.0683
36358W        W79275  27.826  19.482   7.312 -0.1752  0.2253 -0.2532
36359W        W79276  30.356  19.813   7.793 -0.0073  0.0026  0.1511
36360W        W79277  20.575  18.005  10.026 -0.3174  0.0818  0.1505
36361W        W79278  26.900  20.521   8.731  0.0755 -0.1591  0.1991
36362W        W79279  30.098  21.386   7.767 -0.0006  0.0872 -0.1609
36363W        W79280  25.570  18.361   8.581 -0.2003 -0.1192  0.1134
36364W        W79281  26.256  20.111   8.286  0.0506  0.2775  0.0024
36365W        W79282  26.859  18.931   7.489  0.0310 -0.1755  0.3589
36366W        W79283  26.881  17.516   7.894  0.1056  0.3762 -0.3950
36367W        W79284  23.373  17.733   7.520  0.1195 -0.1508 -0.1261
36368W        W79285  28.231  19.443   7.910  0.0057  0.2119 -0.0599
36369W        W79286  27.850  20.653   7.637  0.0648 -0.1836  0.0641
36370W        W79287  25.592  16.810   8.802  0.1694 -0.0346 -0.0774
36371W        W79288  26.898  25.228   3.773  0.2295 -0.1009  0.0554
36372W        W79289  26.637  24.043  30.470  0.0762 -0.1124 -0.0713
36373W        W79290  28.806  21.822   1.384 -0.0280 -0.0263  0.0115
36374W        W79291  27.962  24.043   1.515 -0.1785  0.3328 -0.2732
36375W        W79292  26.450  23.160   1.011  0.0860  0.1101  0.1758
36376W        W79293  28.132  22.707   0.844 -0.2746 -0.1200  0.2271
36377W        W79294  25.771  19.846   2.815 -0.0582 -0.1521 -0.0007
36378W        W79295  27.266  25.635   4.294  0.1042  0.1643 -0.0548
36379W        W79296  29.839  26.660   2.595  0.1849  0.1849  0.1268
36380W        W79297  27.411  23.902  30.730 -0.2164  0.0145  0.0874
36381W        W79298  26.608  24.377   3.275 -0.0565 -0.2372  0.2437
36382W        W79299  25.573  24.887  31.913  0.0343  0.0366 -0.1175
36383W        W79300  29.327  22.854  31.470 -0.2080  0.0902  0.1232
36384W        W79301  24.259  22.958   2.552 -0.0095  0.0994 -0.1369
36385W        W79302  27.251  23.955   1.193 -0.1840  0.2993 -0.0273
36386W        W79303  24.813  23.833   0.378 -0.1607  0.2289 -0.1280
36387W        W79304  24.206  21.902   3.700  0.1971  0.1693 -0.1546
36388W        W79305  27.091  22.953   0.354  0.0302 -0.0070 -0.1530
36389W        W79306  28.620  25.951   0.568  0.1123  0.2145  0.1324
36390W        W79307  27.378  22.816   3.937 -0.0790  0.1156  0.1746
36391W        W79308  27.588  23.208   3.030  0.0141 -0.0384 -0.0690
36392W        W79309  28.032  24.937   0.969  0.2484  0.1788  0.2125
36393W        W79310  24.097  24.307  30.746 -0.1171 -0.0444 -0.0501
36394W        W79311  26.862  23.838   3.908 -0.2125  0.3629 -0.0037
36395W        W79312  25.238  23.170   1.070  0.0961  0.2485  0.0037
36396W        W79313  28.230  23.384   2.042 -0.2304  0.0346 -0.0965
36397W        W79314  27.918  23.866   2.773  0.0133 -0.1308 -0.1207
36398W        W79315  27.510  25.667   2.133 -0.0945 -0.0849 -0.0629
36399W        W79316  26.762  24.210   2.855 -0.1284  0.0831 -0.1254
36400W        W79317  27.761  23.623   3.732 -0.0962  0.2167 -0.2736
36401W        W79318  26.150  23.263   1.861 -0.1571  0.1294 -0.2029
36402W        W79319  22.899  26.512   1.627  0.0979 -0.0736  0.0815
36403W        W79320  27.240  24.022  31.650  0.0211 -0.0203 -0.1926
36404W        W79321  27.084  24.320   0.891  0.0184  0.0468 -0.0754
36405W        W79322  26.125  23.140   3.313 -0.0945 -0.1548  0.0373
36406W        W79323  26.584  26.134   3.707 -0.0631  0.0388 -0.1278
36407W        W79324  26.455  24.161  31.125  0.0910 -0.2347  0.3563
36408W        W79325  26.182  25.890   4.569  0.2751  0.1040 -0.2087
36409W        W79326  25.460  24.765   3.818 -0.2864  0.1690  0.4696
36410W        W79327  26.669  25.193   3.287 -0.2374  0.1333 -0.0371
36411W        W79328  24.679  22.732  31.459  0.0339  0.0117  0.4772
36412W        W79329  26.744  24.043   0.406  0.0523  0.0278  0.0544
36413W        W79330  28.846  24.719   3.307 -0.0645  0.3091 -0.0167
36414W        W79331  25.607  22.980   3.312  0.3444 -0.0455  0.0983
36415W        W79332  27.360  24.794  31.555  0.1448 -0.1356  0.1952
36416W        W79333  27.341  21.281   3.366 -0.3348 -0.0693  0.1389
36417W        W79334  23.346  25.220  30.441  0.2187 -0.2492 -0.1763
36418W        W79335  29.113  24.022  30.915  0.0312 -0.0342 -0.0018
36419W        W79336  25.216  22.577  31.463  0.2005 -0.0024 -0.3532
36420W        W79337  28.943  22.367   0.754 -0.2245  0.1767  0.3844
36421W        W79338  26.675  22.250   0.618  0.0626  0.2024  0.2966
36422W        W79339  25.487  23.935   2.425  0.3514 -0.3401 -0.2664
36423W        W79340  25.202  23.035  30.594  0.1819 -0.0304 -0.2240
36424W        W79341  28.093  23.347   2.994 -0.1035 -0.3295  0.1258
36425W        W79342  26.052  23.645  31.811 -0.3627 -0.0550 -0.1611
36426W        W79343  26.580  23.842   3.154 -0.2274 -0.4324  0.0264
36427W        W79344  25.713  22.788   4.678  0.0059 -0.0395 -0.1684
36428W        W79345  25.193  22.414   1.698  0.3646 -0.0557 -0.0896
36429W        W79346  25.269  23.552   0.496  0.0142 -0.2848  0.1214
36430W        W79347  26.294  23.736   1.964 -0.3393 -0.1288 -0.2968
36431W        W79348  27.145  26.242  31.338  0.2361 -0.0142  0.1262
36432W        W79349  26.789  23.603   1.180  0.0248  0.1345 -0.0525
36433W        W79350  25.758  24.080   3.032 -0.0481 -0.0906 -0.2898
36434W        W79351  25.693  25.067   4.314  0.0534 -0.0776  0.0302
36435W        W79352  25.128  22.902  29.752 -0.0130 -0.0883 -0.2003
36436W        W79353  27.935  22.182   4.596  0.0530  0.0768 -0.1634
36437W        W79354  24.104  24.321   3.435 -0.0023  0.1313  0.2263
36438W        W79355  29.939  23.675  31.579  0.0101  0.0393 -0.2571
36439W        W79356  24.655  24.292   0.723  0.1753  0.0735 -0.0866
36440W        W79357  25.312  23.994   0.073 -0.1393  0.1393 -0.3918
36441W        W79358  27.040  24.531   0.386 -0.1054 -0.0608 -0.1151
36442W        W79359  28.171  22.308   0.108 -0.0686  0.3090 -0.0383
36443W        W79360  27.050  24.554   3.075 -0.6566  0.1206  0.0442
36444W        W79361  25.811  23.622  31.242  0.0859  0.1726 -0.2645
36445W        W79362  24.359  24.683   0.475 -0.0928  0.0005 -0.2058
36446W        W79363  29.388  21.708   4.755  0.0022  0.1968  0.0389
36447W        W79364  27.460  24.553  30.074  0.0946  0.0466 -0.1419
36448W        W79365  27.647  25.364   0.167  0.2617 -0.0047 -0.0974
36449W        W79366  27.239  23.332   5.657 -0.1430  0.0826  0.1198
36450W        W79367  27.360  24.615   1.863 -0.5202 -0.0459 -0.0507
36451W        W79368  25.880  24.699  31.027 -0.2372  0.0436  0.0490
36452W        W79369  25.341  22.836   1.472 -0.1923 -0.0283  0.2218
36453W        W79370  27.103  24.906  30.429  0.0581 -0.0704 -0.1165
36454W        W79371  24.909  22.788   1.042  0.1275  0.0800 -0.0408
36455W        W79372  27.291  24.291  31.223 -0.2026  0.1627 -0.1077
36456W        W79373  29.289  21.149   1.721  0.2015 -0.3580  0.2030
36457W        W79374  25.227  22.956   4.586 -0.0277 -0.1548  0.2538
36458W        W79375  28.595  22.447   1.777  0.2059 -0.1336  0.0932
36459W        W79376  25.850  23.857   0.262 -0.3698 -0.0015 -0.0066
36460W        W79377  27.791  25.637   1.173 -0.0606  0.0616  0.0631
36461W        W79378  26.820  22.616   2.053 -0.1543 -0.1791  0.1334
36462W        W79379  28.137  22.766   0.303  0.0514 -0.1608  0.1473
36463W        W79380  24.889  23.160   3.403 -0.0125 -0.2357 -0.2091
36464W        W79381  24.898  23.595   3.011 -0.1727  0.0270  0.0547
36465W        W79382  26.055  21.484   3.102 -0.0560 -0.2207 -0.0021
36466W        W79383  26.380  22.641   1.700 -0.2181 -0.1171 -0.6197
36467W        W79384  27.467  23.276   3.505  0.0303 -0.2526 -0.3863
36468W        W79385  26.302  22.802   0.506 -0.0216 -0.2660 -0.1095
36469W        W79386  27.046  22.461   0.968 -0.0430 -0.2669 -0.2236
36470W        W79387  28.322  23.118   0.615 -0.2695 -0.0473 -0.0839
36471W        W79388  25.230  24.485   0.851 -0.0032  0.1398  0.4019
36472W        W79389  27.765  22.457   3.970  0.2130 -0.4122  0.1680
36473W        W79390  26.847  23.859   2.142  0.3580 -0.1447 -0.0332
36474W        W79391  29.034  26.265   1.872  0.2997 -0.1957 -0.0533
36475W        W79392  28.160  25.684   1.498  0.4131  0.0192 -0.1618
36476W        W79393  25.815  23.063   4.234  0.0712  0.1413  0.0763
36477W        W79394  27.425  23.446  30.916 -0.1635  0.2234  0.0841
36478W        W79395  25.271  24.439   1.366 -0.1509 -0.1671  0.3122
36479W        W79396  25.618  24.133   1.681  0.0637  0.0151  0.1981
36480W        W79397  24.271  22.815   1.854  0.1995 -0.2395 -0.0052
36481W        W79398  28.409  24.267   1.586  0.0881 -0.1277 -0.0633
36482W        W79399  27.842  22.426   0.521  0.1439 -0.0462 -0.0011
36483W        W79400  24.448  23.441   1.594 -0.1246  0.3165  0.4144
36484W        W79401  27.502  22.696   3.200 -0.0461  0.0358  0.3715
36485W        W79402  26.533  23.948   3.621 -0.0839  0.0175  0.2173
36486W        W79403  25.722  23.441   0.547 -0.1067 -0.0291  0.2471
36487W        W79404  26.642  23.360  31.119  0.0461 -0.0323 -0.0994
36488W        W79405  28.935  25.761   3.157  0.0857 -0.2929  0.1901
36489W        W79406  25.576  23.823  31.623 -0.2662  0.2623  0.0405
36490W        W79407  24.537  23.171   0.969  0.2363  0.5159 -0.2666
36491W        W79408  24.362  24.816   1.487 -0.0856  0.1826 -0.1338
36492W        W79409  28.435  24.465   2.019 -0.3585 -0.0095 -0.0188
36493W        W79410  26.449  24.990   4.077 -0.3513 -0.1205  0.0148
36494W        W79411  28.077  20.880   4.320  0.0840  0.0063 -0.2084
36495W        W79412  24.958  21.225  31.071 -0.2826  0.2202 -0.1803
36496W        W79413  24.750  24.443   1.579  0.2455 -0.1245 -0.1000
36497W        W79414  26.265  22.340   2.145 -0.0256  0.0235  0.0357
36498W        W79415  27.970  23.476  31.843  0.0236 -0.0779 -0.2266
36499W        W79416  26.576  22.210   4.747 -0.0602  0.1703  0.0038
36500W        W79417  27.328  25.210   1.809  0.3339  0.2819  0.3271
36501W        W79418  27.635  24.125   0.011 -0.0421 -0.0326 -0.0018
36502W        W79419  29.280  22.166  31.794  0.3862  0.0717 -0.1454
36503W        W79420  25.484  24.463   3.214 -0.1756 -0.0019 -0.0579
36504W        W79421  28.014  24.472  31.946  0.2444 -0.0500 -0.1973
36505W        W79422  25.144  24.019   1.616  0.1013  0.0502 -0.0277
36506W        W79423  26.699  21.764   0.462 -0.0681  0.2496 -0.0333
36507W        W79424  27.840  23.183   0.853  0.0692  0.0831 -0.1830
36508W        W79425  25.970  24.531   3.052  0.1726  0.4000 -0.1675
36509W        W79426  26.448  24.213   2.027  0.2178 -0.2949  0.0417
36510W        W79427  28.316  24.096   2.540 -0.0445 -0.1729 -0.0774
36511W        W79428  25.901  22.821   2.425 -0.0108  0.2085 -0.0132
36512W        W79429  26.992  23.478   0.096 -0.1252 -0.1070  0.1179
36513W        W79430  28.319  23.617   3.403  0.0348 -0.0245  0.1168
36514W        W79431  24.557  24.923  31.326 -0.0220  0.3797 -0.0672
36515W        W79432  25.948  21.442   3.821 -0.1440  0.2674 -0.1264
36516W        W79433  26.876  23.377   0.701 -0.2211  0.0311 -0.0601
36517W        W79434  27.251  21.276   3.876  0.0586  0.0088 -0.0816
36518W        W79435  28.112  22.984   5.091  0.2039  0.1595 -0.0804
36519W        W79436  28.951  22.779   1.038 -0.0995  0.0686  0.0186
36520W        W79437  27.574  23.660   1.475  0.0210  0.0341  0.0809
36521W        W79438  26.953  23.084  30.776  0.0514 -0.0340 -0.1894
36522W        W79439  26.044  22.555   3.205  0.0432 -0.4183  0.1159
36523W        W79440  26.902  24.836   2.586 -0.2287  0.1396  0.0828
36524W        W79441  26.505  24.803   2.880 -0.2593  0.1761 -0.2014
36525W        W79442  27.468  25.233   3.217 -0.0947  0.0098  0.0618
36526W        W79443  28.141  22.354  31.515  0.1114  0.1026 -0.0966
36527W        W79444  26.165  21.844   3.957 -0.2103 -0.2201 -0.1965
36528W        W79445  27.293  22.516  31.957 -0.2351  0.0917 -0.1688
36529W        W79446  28.153  26.136   0.008  0.0183  0.0229 -0.1576
36530W        W79447  26.254  25.132  31.684  0.1377  0.0335  0.1373
36531W        W79448  26.202  23.152  31.908  0.5397 -0.1799  0.0129
36532W        W79449  26.999  23.124   2.066 -0.0160  0.1922 -0.1520
36533W        W79450  26.498  25.563   0.860  0.2343  0.1005 -0.0850
36534W        W79451  26.925  25.538   2.852  0.3229  0.2222  0.0566
36535W        W79452  24.318  24.708   1.009 -0.0485  0.0643  0.0700
36536W        W79453  29.707  21.855   1.658  0.2890  0.0068 -0.0476
36537W        W79454  25.128  25.412   1.189  0.0858  0.0030  0.0499
36538W        W79455  23.722  22.708   0.688  0.0705 -0.0575  0.3221
36539W        W79456  25.676  22.894  30.566 -0.1831  0.0414 -0.3926
36540W        W79457  28.965  21.292  31.357 -0.0035 -0.3944 -0.2144
36541W        W79458  28.030  23.787   0.700 -0.1892 -0.3252  0.0062
36542W        W79459  26.962  24.319   1.876 -0.2846 -0.2376  0.2511
36543W        W79460  24.683  21.481   2.949 -0.0873  0.0293 -0.0153
36544W        W79461  25.981  25.803   2.713 -0.2064  0.2526  0.0766
36545W        W79462  27.392  24.130   2.172  0.0439  0.0571  0.2129
36546W        W79463  29.251  22.641   2.760 -0.2965 -0.0048 -0.1497
36547W        W79464  28.513  23.002   3.855  0.1249 -0.1742 -0.1617
36548W        W79465  28.584  22.915   4.760 -0.2024  0.1315 -0.1511
36549W        W79466  25.468  22.001  30.595  0.2370  0.1614  0.0715
36550W        W79467  28.250  24.608   2.615 -0.0281  0.1931 -0.2038
36551W        W79468  27.011  24.852  30.930  0.0399  0.1429 -0.0195
36552W        W79469  23.873  24.650   0.758  0.0454 -0.0578 -0.2513
36553W        W79470  26.925  23.435   4.945 -0.2986 -0.1629 -0.2780
36554W        W79471  23.722  22.751  30.777 -0.0550  0.0492  0.1067
36555W        W79472  25.993  24.531   0.352 -0.0427 -0.1296 -0.1090
36556W        W79473  26.496  25.071   1.017 -0.2310  0.0730 -0.2590
36557W        W79474  28.398  25.248   1.107 -0.2862  0.0673  0.3283
36558W        W79475  26.258  24.174   2.875 -0.2443 -0.2516  0.4747
36559W        W79476  25.701  23.040   1.737  0.1592  0.0358 -0.3230
36560W        W79477  25.157  23.569   2.601 -0.0392  0.1815  0.0679
36561W        W79478  25.904  22.238   3.617  0.1864 -0.3979  0.1030
36562W        W79479  27.828  23.255   4.127 -0.0676 -0.0159  0.3262
36563W        W79480  25.696  25.215   3.800  0.2312 -0.2666 -0.0037
36564W        W79481  26.815  22.569   0.227  0.1849  0.1816  0.0408
36565W        W79482  29.640  25.333   1.842  0.0774  0.0602  0.1595
36566W        W79483  26.998  23.012   3.579  0.2440 -0.0766 -0.0048
36567W        W79484  27.858  23.605  31.080 -0.3033 -0.0164  0.2213
36568W        W79485  26.548  23.721   2.621  0.2258 -0.0907 -0.1441
36569W        W79486  25.466  22.972   0.677 -0.0318  0.0615 -0.2798
36570W        W79487  26.940  23.023   1.040 -0.1146 -0.0992  0.3802
36571W        W79488  26.241  23.663   1.233  0.0625  0.1965  0.1124
36572W        W79489  28.156  25.748   0.414 -0.1705  0.0361  0.2902
36573W        W79490  27.462  25.666   0.528 -0.1541 -0.0149 -0.0060
36574W        W79491  29.172  20.462   1.427 -0.1511 -0.1482  0.0459
36575W        W79492  28.252  23.939  30.904 -0.0062  0.0157 -0.0573
36576W        W79493  26.518  23.494   4.634 -0.3118 -0.1493  0.2059
36577W        W79494  28.256  23.066   1.667  0.3029 -0.0472 -0.1258
36578W        W79495  26.739  21.472   5.824  0.1992 -0.0729  0.0373
36579W        W79496  24.804  21.683   0.645 -0.0490  0.2824  0.0675
36580W        W79497  28.498  23.869   3.779  0.4495  0.1858  0.0264
36581W        W79498  25.344  20.788   2.903 -0.1971 -0.0998 -0.1632
36582W        W79499  27.491  25.616   3.580 -0.0317 -0.2377  0.2004
36583W        W79500  25.901  24.960   5.102  0.1362  0.1161  0.3395
36584W        W79501  27.824  22.758  31.323  0.1505 -0.1361 -0.0363
36585W        W79502  27.917  23.314   0.384  0.0828 -0.1368 -0.0912
36586W        W79503  25.674  23.256   1.293  0.3131 -0.1862  0.2588
36587W        W79504  27.171  23.851   1.673 -0.3545  0.3707 -0.0669
36588W        W79505  28.063  24.156   0.389  0.1756 -0.0346  0.0844
36589W        W79506  28.581  22.791   1.405  0.0181 -0.1861  0.0244
36590W        W79507  24.905  23.556   0.820  0.0218  0.1067  0.2554
36591W        W79508  27.400  22.866   0.779 -0.2038  0.0065 -0.0645
36592W        W79509  29.599  21.829   0.186 -0.4459 -0.2817  0.1664
36593W        W79510  25.145  21.751   0.046  0.3297  0.1264  0.1930
36594W        W79511  24.898  21.314   4.717 -0.0941  0.0580 -0.2854
36595W        W79512  27.794  23.339   2.549  0.3749  0.1257  0.0373
36596W        W79513  27.784  23.296   1.871  0.4515  0.0606  0.0557
36597W        W79514  27.756  24.939   1.745  0.0533  0.1277  0.1017
36598W        W79515  25.419  22.736   2.185 -0.1248  0.1789 -0.2473
36599W        W79516  25.630  24.136   3.972 -0.0171 -0.1686  0.4811
36600W        W79517  23.961  22.998   4.874  0.0040 -0.1575  0.0613
36601W        W79518  29.270  26.834   2.829 -0.0019  0.1040 -0.6671
36602W        W79519  29.697  22.518  31.579  0.4071 -0.1365  0.3669
36603W        W79520  28.236  23.671   1.685  0.0395  0.2446  0.1931
36604W        W79521  28.881  22.314   1.292  0.2079  0.2081 -0.1462
36605W        W79522  26.795  22.221  31.764 -0.0451  0.1084  0.1169
36606W        W79523  26.529  23.318   2.179 -0.0819 -0.0244  0.2288
36607W        W79524  27.519  23.081   2.222 -0.3724 -0.0865 -0.2406
36608W        W79525  26.614  23.418  31.607  0.0155 -0.0372 -0.0613
36609W        W79526  29.699  22.917   2.531  0.1679 -0.2652 -0.3269
36610W        W79527  26.630  26.378   0.997 -0.0093  0.0782 -0.1132
36611W        W79528  25.948  23.609   1.587  0.2039  0.2160 -0.2066
36612W        W79529  26.530  23.659   0.135 -0.1884  0.1513  0.2545
36613W        W79530  24.487  22.834   2.961 -0.1028  0.0982 -0.1009
36614W        W79531  26.716  24.720   2.043  0.1070 -0.0841 -0.1552
36615W        W79532  24.411  23.358  30.132 -0.1798 -0.0304  0.1519
36616W        W79533  25.460  22.970  30.112 -0.1286 -0.1784  0.3149
36617W        W79534  27.820  23.641   3.275  0.0957  0.3101 -0.0304
36618W        W79535  29.972  23.022   4.590  0.0228  0.0298  0.1939
36619W        W79536  28.915  21.822  29.823  0.1524  0.2335  0.2211
36620W        W79537  28.263  24.280   3.010  0.0044  0.0049  0.1220
36621W        W79538  24.558  23.433   0.397  0.5429 -0.0531 -0.0445
36622W        W79539  28.913  23.937   0.882 -0.0398  0.0798  0.1591
36623W        W79540  25.465  25.022   3.173  0.1008 -0.1152  0.1733
36624W        W79541  26.938  23.544   3.028 -0.0283 -0.0269 -0.0774
36625W        W79542  28.460  26.798   2.240 -0.4003 -0.0853 -0.2746
36626W        W79543  28.246  21.788   0.665  0.0030  0.1410  0.1013
36627W        W79544  28.065  22.844   3.863 -0.2946 -0.0161 -0.3859
36628W        W79545  25.983  25.682   2.157 -0.0765 -0.1105  0.1605
36629W        W79546  28.879  21.650   1.899 -0.1667 -0.2692 -0.1889
36630W        W79547  27.041  25.095   3.002 -0.0970 -0.1086  0.3228
36631W        W79548  26.080  22.905   1.399 -0.2747  0.2069  0.0057
36632W        W79549  26.434  26.608   2.561 -0.0000 -0.2360 -0.1794
36633W        W79550  28.239  24.806   1.631  0.3871 -0.4338 -0.3247
36634W        W79551  26.411  24.623  31.860  0.0468  0.0382 -0.0338
36635W        W79552  25.489  21.330   2.241 -0.0956 -0.1581  0.1567
36636W        W79553  27.172  24.207   3.931 -0.0264 -0.1592  0.1160
36637W        W79554  26.148  23.947   2.430  0.1852  0.1836  0.1057
36638W        W79555  26.746  21.763  31.956 -0.1645 -0.1977  0.0386
36639W        W79556  26.734  24.892   0.612  0.0570 -0.0032 -0.0922
36640W        W79557  26.608  25.252   2.470  0.0977 -0.3499  0.0473
36641W        W79558  23.786  23.010   1.670 -0.0778  0.2368 -0.1266
36642W        W79559  26.037  26.652  31.912  0.2022 -0.2825  0.0749
36643W        W79560  27.811  24.160   1.063  0.0746  0.1803  0.0350
36644W        W79561  27.059  23.846   0.734 -0.2001  0.4313 -0.4138
36645W        W79562  27.624  26.333   2.194  0.0087  0.3403 -0.1989
36646W        W79563  26.987  21.337  31.908  0.0840  0.1365  0.1018
36647W        W79564  27.269  24.483   1.316 -0.0867 -0.2557  0.1762
36648W        W79565  23.880  24.945  31.621  0.1703  0.2040 -0.1951
36649W        W79566  27.648  23.748   0.401  0.0310  0.1758  0.2865
36650W        W79567  24.393  24.674  31.941  0.0153  0.2117 -0.0674
36651W        W79568  29.307  23.823   3.679  0.3528  0.2704  0.0373
36652W        W79569  29.321  22.430  31.226 -0.1582 -0.1121 -0.0729
36653W        W79570  27.416  24.986   1.383 -0.0012  0.2073 -0.1979
36654W        W79571  26.362  22.882   2.739 -0.3537 -0.3194 -0.0629
36655W        W79572  26.969  26.103   4.104  0.0588  0.0552  0.1640
36656W        W79573  25.398  22.448   0.753  0.1639  0.0168 -0.3568
36657W        W79574  28.885  21.767  31.435  0.0310 -0.2069  0.1444
36658W        W79575  25.932  24.446   2.573 -0.0523 -0.1680 -0.0032
36659W        W79576  28.831  22.037   4.298  0.0993  0.0906  0.0559
36660W        W79577  25.791  25.393   3.322  0.0614  0.0948  0.4556
36661W        W79578  27.817  24.111  31.136 -0.0962  0.2867 -0.0086
36662W        W79579  27.475  22.356   1.700  0.0506 -0.1982  0.0826
36663W        W79580  26.603  24.016   0.921  0.0156 -0.0690  0.3370
36664W        W79581  27.745  23.790   1.955 -0.2993  0.2130 -0.0333
36665W        W79582  26.807  24.296   0.004  0.0823 -0.1576 -0.1522
36666W        W79583  28.718  23.778   2.537 -0.1350 -0.0651 -0.0386
36667W        W79584  27.140  26.347   2.219  0.1327 -0.0325  0.4252
36668W        W79585  27.362  22.814   1.279 -0.3517  0.2014 -0.3154
36669W        W79586  27.196  24.067   0.260  0.3314 -0.0953  0.1730
36670W        W79587  25.846  22.588   0.634 -0.0994  0.0337  0.2089
36671W        W79588  27.392  23.647   3.002  0.0420 -0.3190  0.1082
36672W        W79589  27.057  23.787   2.656 -0.1247 -0.1554  0.3086
36673W        W79590  29.373  21.551   2.014 -0.0172 -0.1462  0.0460
36674W        W79591  26.169  24.669   1.840  0.2099  0.3988 -0.1036
36675W        W79592  28.180  23.601   2.454 -0.0764 -0.1271 -0.1531
36676W        W79593  26.487  24.465   0.492  0.1705  0.1402 -0.2706
36677W        W79594  26.002  25.327   2.468 -0.4502  0.4236 -0.0828
36678W        W79595  27.220  23.086  31.788  0.0425 -0.1744 -0.1337
36679W        W79596  28.702  23.876   1.508  0.0082 -0.2811  0.3526
36680W        W79597  27.026  22.479   1.530 -0.1938  0.0574  0.0918
36681W        W79598  27.560  24.716   3.243  0.2919  0.1037 -0.3080
36682W        W79599  26.486  23.317   3.003 -0.0563  0.1568  0.0110
36683W        W79600  30.206  22.726  31.589 -0.3202 -0.0049 -0.0282
36684W        W79601  23.409  25.217   0.341 -0.0022 -0.0519  0.1274
36685W        W79602  24.793  22.333   1.363 -0.1617 -0.4120  0.1270
36686W        W79603  25.706  23.474   3.191 -0.0818  0.0473  0.2221
36687W        W79604  26.821  22.909   2.500  0.4344  0.3342 -0.1145
36688W        W79605  28.776  22.674  31.413 -0.1911 -0.0163  0.2069
36689W        W79606  27.714  23.187   1.372 -0.2369 -0.2647  0.2515
36690W        W79607  27.046  25.656  31.353  0.1268  0.2626  0.1616
36691W        W79608  28.585  24.822   0.798 -0.0012 -0.1248 -0.3621
36692W        W79609  26.661  24.522   1.524 -0.1345 -0.2333  0.3721
36693W        W79610  25.373  22.346   3.717 -0.2657  0.1486  0.0304
36694W        W79611  26.780  22.896   1.621 -0.1059  0.1015  0.0221
36695W        W79612  29.266  24.235   4.226  0.0711 -0.0705  0.0318
36696W        W79613  26.361  23.625   0.743  0.0001  0.0146 -0.1332
36697W        W79614  24.001  24.347   2.880 -0.0214 -0.2535  0.1652
36698W        W79615  23.178  25.301   1.920  0.2060 -0.2590  0.1021
36699W        W79616  27.251  23.302   2.591 -0.1819  0.1386 -0.4797
36700W        W79617  26.157  23.616   3.478 -0.0678 -0.2207 -0.1771
36701W        W79618  26.342  24.110   0.058  0.0240 -0.0366  0.1777
36702W        W79619  30.389  21.864   5.574 -0.0765 -0.3071 -0.1164
36703W        W79620  26.149  25.015   0.245 -0.0150  0.0681  0.3178
36704W        W79621  26.274  24.036   4.341 -0.1045 -0.0526 -0.1490
36705W        W79622  24.257  23.930   0.779 -0.0694  0.1356  0.1292
36706W        W79623  25.900  24.306   2.094 -0.1025 -0.1109  0.2484
36707W        W79624  27.279  24.470  31.925  0.4903  0.0378 -0.0430
36708W        W79625  26.680  26.046  31.456  0.2704  0.0739  0.1919
36709W        W79626  26.482  27.365   1.642  0.1114 -0.0370 -0.0191
36710W        W79627  27.353  23.357   0.492 -0.0702  0.2389  0.0715
36711W        W79628  26.503  24.393   2.471  0.0186  0.0671  0.1120
36712W        W79629  25.782  23.220  31.695  0.0314  0.1639  0.2655
36713W        W79630  29.966  21.127   1.236 -0.3395  0.1933 -0.0719
36714W        W79631  27.754  22.483   1.058  0.2068 -0.0546 -0.0661
36715W        W79632  24.839  24.720   0.603  0.3047 -0.1501 -0.4514
36716W        W79633  24.080  21.448   1.965 -0.0237  0.1551 -0.0756
36717W        W79634  25.743  22.290   2.266  0.2720 -0.1798  0.0745
36718W        W79635  23.770  23.653   1.064 -0.4912  0.2177 -0.1402
36719W        W79636  27.081  20.803   4.945  0.0205  0.1940 -0.1291
36720W        W79637  24.627  22.044   3.523  0.0628 -0.0427 -0.2836
36721W        W79638  25.314  23.683   1.973  0.2709 -0.0881 -0.0788
36722W        W79639  26.679  21.710   0.982  0.2320  0.2558 -0.2005
36723W        W79640  28.721  23.818  31.284 -0.0529 -0.0723  0.0742
36724W        W79641  25.655  22.771   1.095  0.2186 -0.0812 -0.0990
36725W        W79642  24.437  22.884   0.501 -0.0289 -0.3133 -0.1552
36726W        W79643  26.631  23.978   1.609  0.2820  0.0701  0.0194
36727W        W79644  28.390  25.187   0.480  0.0911  0.1784 -0.2500
36728W        W79645  24.004  22.606   1.395  0.1261 -0.0529  0.1372
36729W        W79646  29.475  22.851   3.587 -0.3716 -0.1774 -0.0738
36730W        W79647  24.983  23.973  30.991 -0.2740  0.1154 -0.0105
36731W        W79648  26.619  22.626   4.369 -0.0145 -0.1359 -0.0501
36732W        W79649  27.782  24.159   3.166  0.1985  0.1913 -0.1624
36733W        W79650  25.422  22.441  30.291 -0.1617  0.1428  0.2901
36734W        W79651  26.131  22.429   2.655 -0.0036 -0.3377  0.0189
36735W        W79652  27.468  24.165   0.653  0.2166  0.0147  0.0317
36736W        W79653  28.797  25.282   3.347 -0.0824  0.0413  0.0713
36737W        W79654  26.994  24.368   2.378 -0.2383 -0.2228 -0.1925
36738W        W79655  26.261  23.734   4.962 -0.0398 -0.0602 -0.1006
36739W        W79656  24.649  20.809   3.825 -0.0756 -0.3170  0.0631
36740W        W79657  27.314  23.554   2.120  0.1196 -0.1111 -0.0274
36741W        W79658  27.388  24.346   3.502  0.0540 -0.0529  0.0977
36742W        W79659  28.982  23.847   2.048  0.0783 -0.3652 -0.1752
36743W        W79660  29.169  21.943   1.082  0.0046 -0.2909 -0.2647
36744W        W79661  26.592  23.198   0.399 -0.2555  0.3609 -0.1518
36745W        W79662  27.082  20.829   3.844 -0.0141  0.1333  0.1281
36746W        W79663  25.887  25.011   1.535  0.2270  0.1331  0.1770
36747W        W79664  29.854  25.375   1.391  0.2446 -0.0325 -0.0620
36748W        W79665  26.484  21.684   1.479  0.1093  0.0499  0.3463
36749W        W79666  29.781  22.623   1.221 -0.0577  0.1887 -0.1750
36750W        W79667  27.705  26.341  31.794  0.2921  0.0458 -0.0920
36751W        W79668  24.593  22.075   4.009 -0.3005  0.3118  0.0279
36752W        W79669  26.162  23.385   0.353 -0.4656 -0.0456  0.2246
36753W        W79670  28.229  23.046   2.507 -0.0693 -0.1259  0.1119
36754W        W79671  27.321  23.313   1.044  0.1023 -0.2039  0.0183
36755W        W79672  27.318  24.197   2.880  0.1498  0.1273  0.0644
36756W        W79673  26.201  23.233  31.359 -0.0762 -0.1416 -0.1183
36757W        W79674  27.841  24.983  31.386  0.0371  0.0937  0.4508
36758W        W79675  27.973  24.459   1.836  0.1764  0.0371  0.1020
36759W        W79676  28.333  24.355   3.923  0.0534 -0.3051  0.2332
36760W        W79677  27.678  22.810   6.129  0.0031 -0.0029  0.0691
36761W        W79678  27.950  22.649   3.419 -0.1301  0.0677  0.2235
36762W        W79679  25.407  22.284   1.266  0.2462 -0.0285  0.2398
36763W        W79680  24.520  23.594  31.901 -0.0651 -0.0610 -0.1305
36764W        W79681  27.333  25.898  30.898  0.3098 -0.1942 -0.0277
36765W        W79682  29.542  22.392   1.746 -0.1030  0.3328  0.0049
36766W        W79683  26.110  24.196   1.594  0.1175 -0.0314 -0.0764
36767W        W79684  28.417  21.015   1.415 -0.3458 -0.0437 -0.1552
36768W        W79685  27.410  25.199   5.494  0.0162  0.0396  0.0169
36769W        W79686  28.592  24.991   1.965  0.1961  0.1755 -0.0016
36770W        W79687  26.241  23.778   6.040 -0.1874 -0.0129 -0.1585
36771W        W79688  25.285  21.864   4.507  0.0681 -0.0066  0.1486
36772W        W79689  28.264  23.392   5.526 -0.2501  0.0692  0.0185
36773W        W79690  29.297  23.690   4.458  0.0846  0.1963  0.2448
36774W        W79691  23.052  22.388   3.723  0.3648 -0.1958  0.1507
36775W        W79692  26.023  24.091   5.216  0.1883  0.2345 -0.1957
36776W        W79693  26.399  21.859   6.394  0.2505  0.2187  0.0066
36777W        W79694  29.165  24.339   5.254  0.0436  0.4235 -0.0164
36778W        W79695  28.304  25.750   6.239  0.0572  0.1715  0.3282
36779W        W79696  29.146  23.976   2.685  0.0903  0.2623  0.1219
36780W        W79697  26.911  20.624   6.742  0.0634 -0.1063 -0.2060
36781W        W79698  26.796  23.467   5.421  0.1981  0.2059  0.0146
36782W        W79699  25.349  21.945   2.166  0.2253 -0.0632  0.1100
36783W        W79700  25.151  20.400   5.798 -0.3192 -0.2643  0.3544
36784W        W79701  28.899  23.962   6.854  0.0041  0.2717 -0.2598
36785W        W79702  25.043  23.410   4.836 -0.0818  0.1975  0.3180
36786W        W79703  27.247  22.730   5.772 -0.4412  0.1392 -0.0160
36787W        W79704  26.825  23.018   4.097  0.0622 -0.1671 -0.1631
36788W        W79705  28.649  24.816   5.310  0.0605 -0.3684 -0.0500
36789W        W79706  24.773  20.732   5.505 -0.0615  0.1501  0.1019
36790W        W79707  28.855  22.355   6.937 -0.1552  0.0893  0.2612
36791W        W79708  25.366  24.543   4.255 -0.1281 -0.1638  0.4708
36792W        W79709  24.132  23.299   1.935  0.0567  0.2107 -0.3295
36793W        W79710  25.092  23.276   3.881 -0.0976 -0.2022 -0.0365
36794W        W79711  28.171  24.843   5.686 -0.1760 -0.2289 -0.2831
36795W        W79712  28.765  20.962   4.835  0.0415  0.3830  0.3999
36796W        W79713  28.903  23.360   6.790  0.3138  0.1348  0.0973
36797W        W79714  25.591  23.000   5.502 -0.1404  0.0140  0.2058
36798W        W79715  25.890  23.949   4.710 -0.1659  0.1389 -0.2158
36799W        W79716  29.592  21.950   6.511 -0.1450  0.3105  0.0623
36800W        W79717  25.912  26.940   5.949 -0.0774  0.0790 -0.0804
36801W        W79718  25.861  24.462   4.898 -0.1371  0.0017  0.0936
36802W        W79719  26.500  25.733   4.964 -0.1722  0.2810  0.1568
36803W        W79720  28.511  25.286   3.781 -0.0377 -0.1472  0.1923
36804W        W79721  28.688  24.872   7.966 -0.0049 -0.2607 -0.0259
36805W        W79722  26.780  23.707   5.930 -0.0774  0.1187  0.4291
36806W        W79723  26.969  24.383   4.740 -0.0479  0.2644 -0.0158
36807W        W79724  27.276  25.804   7.321 -0.0911  0.2479 -0.2884
36808W        W79725  28.759  22.297   6.403 -0.0996  0.1711  0.1551
36809W        W79726  25.223  23.203   5.823 -0.0643  0.1724 -0.0928
36810W        W79727  27.779  23.191   4.637 -0.0946 -0.3485 -0.0520
36811W        W79728  26.316  24.853   2.322  0.1509  0.2282 -0.0001
36812W        W79729  27.322  23.019   4.862  0.0826 -0.0771  0.2438
36813W        W79730  25.516  24.031   7.663  0.0952  0.2313 -0.0408
36814W        W79731  26.516  25.049   6.490 -0.1528  0.1599  0.0622
36815W        W79732  29.300  23.063   5.925 -0.2320  0.3985 -0.1423
36816W        W79733  25.633  25.345   2.803 -0.0108 -0.0673 -0.2461
36817W        W79734  27.306  23.853   3.596  0.2252  0.1627 -0.3086
36818W        W79735  23.951  23.573   3.442  0.2136  0.0181 -0.0384
36819W        W79736  27.123  22.507   4.345 -0.1323  0.1533 -0.1280
36820W        W79737  27.445  22.205   5.402  0.0284 -0.1244 -0.1562
36821W        W79738  27.260  23.645   5.259  0.4145  0.0206 -0.2192
36822W        W79739  27.132  21.074   4.340 -0.1697  0.0336 -0.3418
36823W        W79740  27.725  22.052   6.834  0.1290  0.1280 -0.0096
36824W        W79741  26.494  22.379   6.347  0.0333 -0.0578 -0.2165
36825W        W79742  27.785  23.562   5.548 -0.2112 -0.2756  0.1367
36826W        W79743  25.605  24.598   5.380 -0.2149  0.1052  0.1547
36827W        W79744  26.575  24.671   4.843 -0.1831 -0.1018 -0.0875
36828W        W79745  26.502  25.929   2.739  0.1419 -0.0330 -0.3538
36829W        W79746  29.236  25.795   5.036  0.4317  0.0872  0.2755
36830W        W79747  28.683  24.589   4.357  0.0116  0.2614 -0.2899
36831W        W79748  25.898  21.633   4.717 -0.5299  0.4572  0.1418
36832W        W79749  24.485  21.631   6.167 -0.2637 -0.1698 -0.2124
36833W        W79750  25.204  22.155   6.359  0.0767 -0.5522 -0.2612
36834W        W79751  25.081  22.201   3.280 -0.0819 -0.1482  0.0156
36835W        W79752  30.079  23.776   4.195  0.0262 -0.0413 -0.0468
36836W        W79753  25.963  25.040   5.964 -0.0424 -0.0610  0.3170
36837W        W79754  30.748  22.395   6.613  0.1407  0.0676 -0.1489
36838W        W79755  28.269  23.566   5.998 -0.2731  0.0957  0.1745
36839W        W79756  27.719  24.599   6.738  0.0003 -0.0919 -0.1595
36840W        W79757  28.646  24.986   4.867  0.0373 -0.3431  0.3563
36841W        W79758  28.359  21.417   5.452  0.0610 -0.0537 -0.1984
36842W        W79759  28.121  21.798   5.322 -0.2556 -0.1517  0.0934
36843W        W79760  25.862  22.363   5.317  0.2107 -0.1356  0.0176
36844W        W79761  27.021  24.870   4.746 -0.1990 -0.3618 -0.2966
36845W        W79762  28.277  24.675   6.809 -0.0066  0.3333  0.0568
36846W        W79763  27.845  23.757   4.541 -0.1197  0.0200 -0.2441
36847W        W79764  25.374  24.330   5.742  0.1630 -0.0072 -0.0290
36848W        W79765  24.643  20.694   6.018  0.1347 -0.1713  0.0820
36849W        W79766  28.175  22.228   6.569 -0.0927 -0.3705 -0.2414
36850W        W79767  25.851  24.901   3.428 -0.0964 -0.1414 -0.0760
36851W        W79768  24.487  22.438   6.915  0.1668 -0.0368 -0.3924
36852W        W79769  24.258  24.565   1.947 -0.1157 -0.0712 -0.0846
36853W        W79770  24.064  20.733   5.068 -0.0304 -0.1170  0.0481
36854W        W79771  26.258  23.909   6.481 -0.1149  0.3044  0.0754
36855W        W79772  27.710  22.607   5.582 -0.0276 -0.2172  0.0671
36856W        W79773  25.220  22.081   5.821 -0.1135 -0.0381 -0.0040
36857W        W79774  29.324  21.580   6.712 -0.2056 -0.1432 -0.0255
36858W        W79775  24.498  24.324   5.523  0.2542 -0.1149 -0.0484
36859W        W79776  29.690  27.023   5.155  0.1156  0.1387 -0.0455
36860W        W79777  28.817  23.511   4.644  0.2074  0.1263 -0.0069
36861W        W79778  26.865  23.518   4.255 -0.0233  0.3165 -0.1403
36862W        W79779  24.003  21.787   6.148 -0.2192 -0.5177  0.3119
36863W        W79780  24.512  20.939   5.108 -0.2672 -0.0150 -0.0770
36864W        W79781  26.219  21.078   7.086 -0.4403 -0.0586 -0.3977
36865W        W79782  26.427  19.185   6.169  0.1785  0.1557  0.3123
36866W        W79783  30.095  22.681   7.246 -0.1779 -0.1432 -0.0406
36867W        W79784  25.544  23.199   3.784  0.0021 -0.0088  0.0825
36868W        W79785  29.266  23.647   7.062  0.2133 -0.0723 -0.2161
36869W        W79786  27.578  23.385   6.094 -0.4004  0.0671 -0.0219
36870W        W79787  24.409  23.928   4.680 -0.0682 -0.2167 -0.0495
36871W        W79788  29.866  21.731   6.825  0.1340  0.0569  0.0324
36872W        W79789  26.278  25.163   3.540  0.0947  0.4930 -0.1761
36873W        W79790  29.399  24.486   6.094 -0.0576  0.2935 -0.0023
36874W        W79791  27.732  23.934   5.204 -0.5528 -0.0177 -0.1834
36875W        W79792  27.209  23.020   6.193  0.1591  0.1186 -0.0604
36876W        W79793  26.528  21.777   3.203  0.1526  0.0465  0.1679
36877W        W79794  27.903  25.630   3.257  0.2412  0.2257 -0.4086
36878W        W79795  24.796  22.621   4.684 -0.4169 -0.1098 -0.2384
36879W        W79796  26.089  22.634   4.345  0.2570  0.0792 -0.0614
36880W        W79797  29.559  26.295   3.680 -0.2550  0.1729  0.1504
36881W        W79798  26.344  23.113   4.368  0.0613 -0.1036  0.0501
36882W        W79799  24.963  24.130   5.434 -0.1537 -0.2847 -0.1662
36883W        W79800  29.062  21.233   7.100 -0.0033  0.1394  0.1650
36884W        W79801  31.567  22.018   4.836  0.0025 -0.3595  0.0253
36885W        W79802  28.854  22.626   5.511  0.2931  0.2102 -0.1317
36886W        W79803  24.850  21.738   4.322  0.1698  0.0110 -0.0917
36887W        W79804  28.700  24.989   5.778 -0.0552 -0.0428  0.0920
36888W        W79805  25.754  25.914   3.271 -0.0249  0.1639  0.2426
36889W        W79806  23.682  22.538   4.313  0.1350 -0.2851  0.1196
36890W        W79807  28.380  21.793   5.728  0.1934  0.0725  0.0324
36891W        W79808  29.640  22.427   3.949  0.1167  0.0851 -0.1221
36892W        W79809  26.720  22.918   6.976 -0.1431  0.0144  0.1954
36893W        W79810  28.548  22.186   5.403  0.1424 -0.2604  0.2919
36894W        W79811  24.288  22.295   5.925 -0.1985  0.0638 -0.0171
36895W        W79812  24.724  25.667   6.969  0.2321 -0.1900  0.1392
36896W        W79813  28.509  21.385   7.189  0.1229 -0.0652 -0.0667
36897W        W79814  29.382  22.307   4.832  0.0305  0.2352 -0.2815
36898W        W79815  26.773  23.966   5.338  0.0033  0.1521  0.0083
36899W        W79816  27.319  24.372   5.962 -0.1117  0.0069 -0.0074
36900W        W79817  25.790  22.276   4.099  0.0294 -0.0007  0.2648
36901W        W79818  27.229  22.339   3.868  0.0180  0.1158  0.2322
36902W        W79819  24.527  23.101   6.390  0.2014 -0.0890 -0.1107
36903W        W79820  24.497  24.333   4.271  0.0983  0.1105 -0.2098
36904W        W79821  25.663  22.258   3.117 -0.0527 -0.1685 -0.0708
36905W        W79822  29.270  22.286   4.329  0.1555  0.1074  0.0034
36906W        W79823  25.770  24.450   3.619 -0.1735 -0.2200  0.0986
36907W        W79824  27.213  24.328   6.572  0.2838 -0.1372 -0.0330
36908W        W79825  27.183  22.595   8.402  0.1081  0.0124  0.1035
36909W        W79826  28.141  23.929   4.095  0.0329  0.0318  0.1096
36910W        W79827  23.381  21.880   5.622  0.1127 -0.0190 -0.2497
36911W        W79828  27.285  23.624   4.615  0.3989 -0.4826 -0.1625
36912W        W79829  27.713  22.712   4.989  0.0097  0.1866  0.2410
36913W        W79830  24.098  26.903   2.208  0.1935 -0.0131 -0.0146
36914W        W79831  29.349  20.728   7.125 -0.3219 -0.1117  0.1845
36915W        W79832  25.447  22.529   5.498  0.4104 -0.0180 -0.0907
36916W        W79833  26.014  20.163   5.502  0.0702 -0.0797 -0.2890
36917W        W79834  29.220  23.787   5.522  0.0815 -0.1173 -0.0349
36918W        W79835  29.877  22.728   5.322  0.0438 -0.2479  0.4099
36919W        W79836  28.823  24.066   4.663 -0.1109  0.3217  0.1021
36920W        W79837  26.263  24.632   3.528  0.1551  0.1811 -0.1092
36921W        W79838  25.089  21.629   5.963 -0.3237  0.0773 -0.4181
36922W        W79839  25.528  23.292   4.870 -0.1304  0.0288 -0.1794
36923W        W79840  26.290  23.724   5.465 -0.0695  0.2586 -0.0949
36924W        W79841  29.923  23.599   5.951  0.1982  0.0089  0.1806
36925W        W79842  28.540  21.625   5.047  0.2131  0.0694  0.1377
36926W        W79843  26.966  22.253   5.120  0.1656 -0.1635 -0.1292
36927W        W79844  28.255  22.920   4.327  0.0927  0.0409 -0.0062
36928W        W79845  26.218  24.713   1.276 -0.4137 -0.1505 -0.0219
36929W        W79846  25.389  23.712   3.880  0.1515  0.1336 -0.0162
36930W        W79847  26.937  20.238   5.514 -0.0687  0.2454 -0.3230
36931W        W79848  27.669  24.085   3.935 -0.0121 -0.2916  0.0409
36932W        W79849  28.660  23.672   5.108 -0.1059  0.2150  0.0300
36933W        W79850  24.490  22.395   5.054 -0.1001  0.0372  0.1379
36934W        W79851  24.825  25.731   2.924  0.1160  0.2119 -0.2931
36935W        W79852  29.297  22.510   5.766  0.2495  0.0310 -0.0150
36936W        W79853  24.372  23.354   4.188  0.0398  0.0442  0.0378
36937W        W79854  26.497  20.687   3.681  0.1692 -0.0886  0.1098
36938W        W79855  23.571  21.341   4.860  0.1288 -0.0830  0.0919
36939W        W79856  27.282  21.833   5.125  0.1342  0.2183  0.0842
36940W        W79857  29.238  25.422   4.240 -0.0028  0.1824 -0.0293
36941W        W79858  25.763  22.941   6.654  0.2619  0.3183 -0.1178
36942W        W79859  26.100  22.431   4.837  0.1994 -0.1238 -0.3299
36943W        W79860  26.006  23.307   5.416 -0.0850  0.3573 -0.0164
36944W        W79861  27.295  22.538   6.283 -0.1241  0.0279 -0.1884
36945W        W79862  30.203  22.199   2.831 -0.2181  0.1110  0.1210
36946W        W79863  27.836  23.765   7.931  0.1207 -0.2090 -0.0496
36947W        W79864  28.266  24.043   5.032  0.1840  0.0094  0.3530
36948W        W79865  24.706  25.070   3.833  0.0089  0.0203  0.2516
36949W        W79866  28.639  21.847   6.164  0.2510  0.2411 -0.1325
36950W        W79867  26.072  21.941   5.490 -0.1132 -0.1018 -0.2267
36951W        W79868  27.003  24.804   6.584 -0.2405 -0.0380  0.1308
36952W        W79869  25.898  25.941   5.456  0.0948  0.2543 -0.1129
36953W        W79870  25.382  23.343   4.292  0.0019 -0.2330  0.1320
36954W        W79871  24.638  24.401   3.406  0.2963 -0.0026 -0.1545
36955W        W79872  26.189  22.850   6.897  0.0801 -0.1985  0.3986
36956W        W79873  26.384  22.869   5.521 -0.1034  0.1123 -0.1302
36957W        W79874  27.218  21.596   4.398 -0.1463  0.4139  0.1317
36958W        W79875  24.595  22.182   4.539 -0.0304  0.1149  0.2366
36959W        W79876  25.824  22.656   6.221  0.0834  0.0728 -0.0870
36960W        W79877  28.293  24.314   4.539 -0.1752 -0.0506  0.0812
36961W        W79878  27.198  20.567   5.757  0.2148 -0.0576 -0.1031
36962W        W79879  26.942  24.049   6.289 -0.0282 -0.1146  0.2754
36963W        W79880  26.846  22.557   5.537  0.0446 -0.1823 -0.0821
36964W        W79881  28.854  26.434   4.367 -0.1162 -0.0984 -0.0878
36965W        W79882  29.721  22.429   7.522 -0.1439 -0.2663 -0.1823
36966W        W79883  27.646  23.461   5.036 -0.1602 -0.3509  0.2176
36967W        W79884  27.287  23.819   5.882  0.2357  0.0795 -0.2904
36968W        W79885  25.247  22.952   5.120 -0.0478 -0.0478 -0.1941
36969W        W79886  26.430  21.377   6.155  0.0973  0.0413  0.0053
36970W        W79887  24.436  22.965   4.635  0.3177 -0.2559  0.2261
36971W        W79888  25.426  23.722   4.669 -0.0627 -0.0741 -0.0033
36972W        W79889  24.627  22.846   5.964 -0.0699  0.2095  0.3117
36973W        W79890  27.645  22.357   2.891  0.0570 -0.2553  0.0769
36974W        W79891  29.090  23.823   5.042 -0.2641  0.1122  0.0779
36975W        W79892  29.154  22.608   6.248  0.0253  0.0586  0.4447
36976W        W79893  30.040  20.718   6.231 -0.0316 -0.0746 -0.1445
36977W        W79894  27.451  24.573   4.751 -0.1525 -0.3638 -0.0377
36978W        W79895  28.603  21.012   6.843  0.0279 -0.3704  0.1644
36979W        W79896  28.036  22.338   5.350  0.1160  0.0045  0.2649
36980W        W79897  27.011  25.665   5.417  0.1738 -0.0261  0.2854
36981W        W79898  25.477  21.345   6.210  0.1198 -0.3844  0.0315
36982W        W79899  27.426  24.085   7.616 -0.1110 -0.4391 -0.2551
36983W        W79900  25.930  24.323   7.409  0.0842 -0.1560 -0.1643
36984W        W79901  27.736  22.710   4.455 -0.1297  0.0420  0.0492
36985W        W79902  28.845  20.839   3.805 -0.0482 -0.0474  0.0618
36986W        W79903  26.420  23.352   5.868 -0.2770  0.0870  0.1028
36987W        W79904  28.847  21.859   7.164  0.3140  0.3686  0.1441
36988W        W79905  27.848  24.613   6.026 -0.0241 -0.0640  0.0610
36989W        W79906  28.641  24.078   4.205  0.0675  0.1152 -0.1720
36990W        W79907  26.835  23.892   4.840 -0.1887 -0.0942 -0.1949
36991W        W79908  29.039  21.597   6.287  0.1496  0.1599  0.0884
36992W        W79909  26.489  23.433   3.908  0.2762  0.1306  0.0063
36993W        W79910  24.548  22.532   4.224 -0.0252  0.0536 -0.1587
36994W        W79911  26.773  21.073   7.007  0.0135  0.2751  0.1585
36995W        W79912  29.119  22.801   7.511  0.1419  0.0116 -0.4808
36996W        W79913  27.069  21.935   5.551 -0.2747  0.0681 -0.3392
36997W        W79914  29.288  21.245   6.067 -0.0464  0.1123 -0.1671
36998W        W79915  30.697  22.690   5.275 -0.0329  0.1210 -0.4839
36999W        W79916  26.527  22.784   6.566 -0.1046 -0.2190 -0.0808
37000W        W79917  24.446  21.986   8.056  0.2194  0.4287  0.0458
37001W        W79918  28.473  26.098   6.743  0.1478  0.0635  0.2190
37002W        W79919  28.835  22.095   4.898  0.0807  0.1641  0.0866
37003W        W79920  29.071  20.153   6.332  0.0921 -0.2201 -0.1399
37004W        W79921  29.977  25.120   4.032 -0.0366 -0.0813  0.0664
37005W        W79922  28.562  23.594   4.178  0.4699 -0.0119 -0.0702
37006W        W79923  26.665  22.434   6.878 -0.1593 -0.1186  0.0710
37007W        W79924  30.043  22.071   7.728 -0.1348  0.0827 -0.0664
37008W        W79925  26.796  22.586   3.782  0.1975 -0.1111  0.1301
37009W        W79926  27.912  24.946   6.475 -0.0791 -0.3164  0.1602
37010W        W79927  29.377  24.131   4.702  0.0772  0.0246 -0.2067
37011W        W79928  26.426  23.291   5.220 -0.2959  0.4915 -0.2522
37012W        W79929  29.157  23.472   8.194 -0.1825 -0.0312  0.2058
37013W        W79930  24.825  21.226   6.211  0.0962 -0.1214 -0.2947
37014W        W79931  25.780  25.256   5.549 -0.1390  0.1493  0.0667
37015W        W79932  25.476  21.442   3.567 -0.0509 -0.0638  0.0789
37016W        W79933  28.091  23.607   5.034 -0.2234 -0.0769 -0.0618
37017W        W79934  26.885  24.212   5.836  0.6297  0.1707 -0.2795
37018W        W79935  28.614  22.672   7.328  0.3600 -0.1678 -0.0419
37019W        W79936  26.417  22.876   4.817 -0.0484  0.0551  0.1827
37020W        W79937  29.376  22.501   7.158 -0.2313  0.0488 -0.2241
37021W        W79938  24.514  25.243   4.931 -0.1952 -0.0101 -0.2396
37022W        W79939  24.847  21.783   5.590  0.0056  0.0933 -0.1221
37023W        W79940  28.472  26.239   5.330  0.0010 -0.0777 -0.3000
37024W        W79941  24.807  26.486   5.967 -0.0534  0.1559  0.2533
37025W        W79942  26.100  25.510   5.218 -0.0840  0.3999 -0.3584
37026W        W79943  29.672  20.612   5.812 -0.1025 -0.1985 -0.2333
37027W        W79944  27.792  21.684   6.525  0.0967  0.4571 -0.0358
37028W        W79945  27.958  23.079   5.753  0.2595  0.0982  0.0379
37029W        W79946  29.058  21.816   7.954 -0.3179 -0.1777 -0.0217
37030W        W79947  28.742  23.956   7.350 -0.0655 -0.1315 -0.0301
37031W        W79948  24.924  22.551   5.202  0.1018  0.0859  0.1477
37032W        W79949  30.408  25.526   6.070  0.0876  0.0015 -0.0022
37033W        W79950  29.595  23.493   3.390  0.0486  0.1865 -0.0298
37034W        W79951  25.382  24.984   5.279  0.3431 -0.0135 -0.1694
37035W        W79952  24.280  23.153   5.767 -0.2884  0.0222  0.1966
37036W        W79953  26.203  21.585   7.080 -0.0915  0.1014  0.2257
37037W        W79954  27.691  24.085   6.180  0.0430  0.1140  0.0209
37038W        W79955  26.013  21.164   5.931  0.2176 -0.1125 -0.2854
37039W        W79956  26.027  23.219   3.780 -0.3163  0.0238  0.3375
37040W        W79957  24.984  25.498   6.049 -0.1328  0.0067  0.2748
37041W        W79958  24.633  23.877   7.307  0.0819  0.1770 -0.0894
37042W        W79959  25.748  26.414   5.381 -0.0201  0.5043 -0.0100
37043W        W79960  26.821  25.166   4.369  0.0600 -0.2744  0.0933
37044W        W79961  28.342  23.334   4.561 -0.0472 -0.0628 -0.0235
37045W        W79962  26.353  24.140   5.705 -0.0621 -0.0180 -0.0353
37046W        W79963  25.381  21.627   5.591 -0.1286 -0.2833 -0.0483
37047W        W79964  25.541  24.138   5.183 -0.0479  0.3150 -0.0252
37048W        W79965  25.754  23.925   3.544  0.0630  0.0689 -0.2479
37049W        W79966  27.432  26.067   3.913 -0.2282  0.0330  0.0881
37050W        W79967  25.059  23.935   4.266  0.1440  0.0061  0.3141
37051W        W79968  29.656  24.130   7.078 -0.2616 -0.3318  0.1276
37052W        W79969  28.085  21.577   4.804 -0.3647 -0.3427 -0.2020
37053W        W79970  29.572  23.938   5.132 -0.1181  0.0715 -0.2867
37054W        W79971  30.092  23.899   5.111 -0.5478  0.0089  0.2309
37055W        W79972  27.210  23.746   6.644  0.3273  0.0556 -0.0224
37056W        W79973  28.436  23.133   6.561 -0.1837 -0.0165 -0.1720
37057W        W79974  28.460  21.900   4.596  0.0202 -0.1051  0.0588
37058W        W79975  25.420  22.499   6.022  0.2643 -0.0423 -0.1652
37059W        W79976  29.235  21.637   7.482 -0.0054 -0.0770  0.2649
37060W        W79977  25.512  26.640   6.116  0.2333  0.0423  0.2065
37061W        W79978  29.211  24.815   3.647  0.2585 -0.1337 -0.1886
37062W        W79979  25.205  22.849   3.641 -0.4969 -0.1250 -0.1343
37063W        W79980  27.919  22.050   5.725  0.1543 -0.1106 -0.0748
37064W        W79981  27.607  20.950   7.288  0.1026  0.0113  0.3164
37065W        W79982  26.834  23.083   4.599  0.3884  0.0841  0.0766
37066W        W79983  27.373  22.213   5.869 -0.3610 -0.2400 -0.1586
37067W        W79984  28.218  26.391   6.492  0.1827 -0.1429  0.2427
37068W        W79985  25.457  24.737   4.830  0.0064 -0.0593 -0.1264
37069W        W79986  26.310  23.842   6.934  0.0200 -0.1276 -0.2522
37070W        W79987  24.110  20.187   4.972  0.0199 -0.3580  0.3840
37071W        W79988  30.087  22.492   6.016 -0.1247 -0.0006  0.1074
37072W        W79989  25.684  21.657   8.700  0.2502  0.0064 -0.0281
37073W        W79990  29.544  22.743   7.884  0.0019  0.0411 -0.0692
37074W        W79991  24.980  22.504   5.733 -0.0592  0.0970  0.0465
37075W        W79992  29.357  22.856   5.397 -0.0157 -0.0996  0.2193
37076W        W79993  29.050  21.288   5.612  0.3302 -0.0416 -0.1445
37077W        W79994  26.829  22.663   6.083  0.0165 -0.0041 -0.2087
37078W        W79995  28.864  22.172   5.840  0.2987  0.0994  0.4195
37079W        W79996  28.721  23.581   5.619  0.0089 -0.0146 -0.0833
37080W        W79997  28.468  22.769   3.400 -0.0497 -0.0356  0.1741
37081W        W79998  28.596  23.917   5.961 -0.0761  0.0553  0.3462
37082W        W79999  27.694  22.552   6.551 -0.0352 -0.3700 -0.1009
37083W        W80000  28.739  23.356   2.304  0.2195 -0.0505  0.2236
37084W        W80001  26.508  24.222   6.158 -0.0177 -0.0143 -0.0005
37085W        W80002  27.092  23.478   6.222  0.0965  0.2274 -0.2308
37086W        W80003  26.988  25.260   6.660 -0.0194 -0.1568 -0.0683
37087W        W80004  24.857  23.302   4.357  0.2044 -0.1207 -0.0383
37088W        W80005  28.390  22.950   2.971  0.0374  0.2654  0.3639
37089W        W80006  29.019  23.310   7.347 -0.0322  0.0480 -0.1224
37090W        W80007  26.817  25.594   4.091 -0.2141  0.1569 -0.1796
37091W        W80008  30.017  24.235   5.433 -0.0125 -0.0901  0.1097
37092W        W80009  27.411  24.731   6.343 -0.3052 -0.1043  0.0272
37093W        W80010  26.035  22.833   5.173 -0.0870 -0.1992 -0.4230
37094W        W80011  28.479  23.729   6.828  0.2460  0.4328 -0.1775
37095W        W80012  30.581  25.961   4.821 -0.3732  0.2111 -0.1414
37096W        W80013  27.727  21.511   5.105  0.2420 -0.0433  0.0934
37097W        W80014  23.496  22.961   5.070  0.1143  0.0957 -0.3057
37098W        W80015  25.608  25.677   4.043  0.0632  0.1757  0.2793
37099W        W80016  27.040  22.718   6.656  0.0558  0.0913 -0.2817
37100W        W80017  28.355  22.248   6.019  0.4820 -0.3026  0.2852
37101W        W80018  27.705  25.451   4.349 -0.4606 -0.0209 -0.1762
37102W        W80019  27.373  21.468   6.389 -0.0889 -0.1254 -0.1988
37103W        W80020  26.702  23.629   6.420 -0.0614 -0.3452  0.0181
37104W        W80021  26.405  25.463   8.161 -0.3260 -0.2099 -0.4736
37105W        W80022  25.182  22.765   7.063  0.2699  0.1606 -0.1655
37106W        W80023  28.275  23.878   5.533  0.0490 -0.0585  0.0590
37107W        W80024  25.026  23.045   6.264 -0.0505  0.1418  0.2091
37108W        W80025  26.306  24.209   4.826  0.0230 -0.0761  0.1822
37109W        W80026  28.316  25.659   5.709 -0.1226 -0.1175 -0.0200
37110W        W80027  26.347  22.226   3.486  0.1334  0.0068  0.0209
37111W        W80028  27.352  25.541   6.879 -0.0949 -0.1897  0.1662
37112W        W80029  26.364  21.484   5.457 -0.0526 -0.0165 -0.3800
37113W        W80030  28.642  22.415   4.592  0.0594  0.1609  0.0471
37114W        W80031  29.965  21.024   5.062  0.1431 -0.0820  0.0596
37115W        W80032  26.466  23.302   6.741 -0.1117 -0.0299 -0.1676
37116W        W80033  25.829  22.715   3.787  0.1415  0.2737  0.0092
37117W        W80034  25.910  23.708   3.983 -0.2488  0.0949  0.0079
37118W        W80035  25.908  23.518   4.403 -0.2276  0.1544  0.0843
37119W        W80036  26.026  21.347   8.040  0.0899  0.3219  0.0976
37120W        W80037  26.348  22.525   7.230  0.1012 -0.0882  0.1438
37121W        W80038  24.259  23.129   5.261 -0.2778 -0.0471  0.0442
37122W        W80039  24.983  22.795   4.204 -0.2323 -0.2659 -0.0561
37123W        W80040  27.830  24.210   4.774 -0.2876 -0.1007 -0.0452
37124W        W80041  25.014  21.171   5.207 -0.0883  0.2481 -0.4209
37125W        W80042  22.735  21.532   5.368  0.0545  0.0085 -0.1003
37126W        W80043  27.343  24.093   4.941 -0.1787 -0.1889 -0.1015
37127W        W80044  28.542  24.320   3.478 -0.1519 -0.1613 -0.0243
37128W        W80045  27.367  21.780   3.521  0.0256  0.3450 -0.1147
37129W        W80046  31.361  25.810   7.889 -0.0951  0.0172 -0.2427
37130W        W80047  25.478  24.570   2.277  0.1446 -0.0363  0.0714
37131W        W80048  27.716  20.193   8.849 -0.2129 -0.0459  0.0901
37132W        W80049  26.013  22.162   7.171 -0.0520 -0.1791  0.2565
37133W        W80050  25.858  21.410   2.664 -0.1416 -0.0139 -0.1203
37134W        W80051  28.771  24.071   5.365 -0.1347 -0.0888 -0.3171
37135W        W80052  28.684  22.540   4.025  0.2588  0.0105  0.2746
37136W        W80053  28.828  26.123   3.941  0.0682  0.2761  0.0660
37137W        W80054  28.311  23.473   7.936 -0.0113  0.4794 -0.3579
37138W        W80055  27.347  22.193   7.313 -0.0518  0.0000 -0.3743
37139W        W80056  25.520  21.849   6.186  0.0890 -0.0065  0.0004
37140W        W80057  27.358  25.674   4.952  0.3225  0.0110 -0.3167
37141W        W80058  27.072  23.246   7.876  0.1974 -0.0383 -0.2612
37142W        W80059  27.122  23.395   3.830  0.0739  0.3966  0.0841
37143W        W80060  28.374  20.699   5.093 -0.1612  0.0215 -0.2982
37144W        W80061  25.964  22.702   5.677 -0.1067 -0.2526 -0.0223
37145W        W80062  24.417  21.502   8.061  0.0138  0.2342 -0.0970
37146W        W80063  26.457  24.313   7.584 -0.2227 -0.1195  0.1900
37147W        W80064  28.101  22.645   5.901 -0.0641  0.3531 -0.0958
37148W        W80065  27.454  20.712   4.576 -0.1019  0.1367 -0.0191
37149W        W80066  28.287  22.141   4.975  0.3035  0.0880 -0.2267
37150W        W80067  28.854  23.843   3.389  0.2241  0.1118  0.2455
37151W        W80068  24.347  22.899   6.829  0.0968  0.0037  0.2231
37152W        W80069  29.159  24.720   4.129 -0.1117  0.1095 -0.2042
37153W        W80070  29.124  23.331   5.329  0.0430 -0.1215 -0.0646
37154W        W80071  26.931  24.729   4.175 -0.0566  0.0406  0.1531
37155W        W80072  29.330  22.403   6.685  0.0245 -0.1690  0.3047
37156W        W80073  28.103  24.427   5.386 -0.0039 -0.2475  0.0913
37157W        W80074  27.830  22.226   6.201 -0.0948  0.2489 -0.1274
37158W        W80075  27.232  26.296   6.815  0.0754  0.0839  0.2557
37159W        W80076  29.913  26.009   6.764  0.1829 -0.0939  0.2309
37160W        W80077  25.717  23.724   5.121  0.0450  0.4972  0.2805
37161W        W80078  28.820  24.978   2.464 -0.0613 -0.1157 -0.0927
37162W        W80079  26.020  21.067   5.308  0.1236  0.0175  0.0279
37163W        W80080  25.126  22.260   4.799 -0.1130  0.0850 -0.0045
37164W        W80081  26.041  23.262   4.848  0.3071  0.0022 -0.1167
37165W        W80082  22.643  20.690   5.664 -0.1440 -0.2458 -0.4226
37166W        W80083  29.113  21.747   5.812  0.0605  0.2394 -0.4244
37167W        W80084  26.561  25.452   5.393  0.1647  0.1344  0.1891
37168W        W80085  28.127  23.875   6.359  0.0215 -0.0165 -0.0282
37169W        W80086  26.394  26.235   8.497 -0.0199 -0.0053  0.0361
37170W        W80087  26.966  21.610   6.741 -0.2063 -0.3456 -0.0839
37171W        W80088  28.155  21.372   6.727 -0.1040  0.0027 -0.3062
37172W        W80089  30.060  23.778   7.984  0.0514 -0.2033 -0.1500
37173W        W80090  26.168  22.225   8.116 -0.0894  0.1031 -0.1413
37174W        W80091  27.723  23.294   8.639  0.1887 -0.1564 -0.2432
37175W        W80092  31.712  26.064   8.813  0.0583  0.1593 -0.3103
37176W        W80093  31.520  24.299   8.270 -0.2113 -0.2111  0.2059
37177W        W80094  28.155  22.586   7.689 -0.1264  0.0216 -0.1805
37178W        W80095  28.712  21.786   8.888  0.2872  0.0728 -0.1757
37179W        W80096  27.753  19.889   5.167  0.1373 -0.0808 -0.1517
37180W        W80097  26.978  19.408   8.407 -0.2422 -0.1327 -0.2706
37181W        W80098  28.818  22.545   8.451 -0.0647  0.0244  0.0718
37182W        W80099  23.252  23.999   9.141 -0.2677  0.3058 -0.0129
37183W        W80100  26.146  22.747   8.840  0.0163  0.0358  0.2624
37184W        W80101  27.267  21.154   6.930 -0.0256  0.2195  0.0012
37185W        W80102  28.976  24.394   8.134  0.2422 -0.1352 -0.0870
37186W        W80103  28.834  20.742   8.947 -0.0562 -0.1479  0.0624
37187W        W80104  29.784  20.898   9.174  0.1976  0.0363  0.1464
37188W        W80105  26.503  21.837   7.913  0.3890  0.1254  0.2447
37189W        W80106  25.146  23.217   8.428  0.3779  0.2022 -0.2528
37190W        W80107  25.820  23.219   7.616  0.2640  0.0918  0.2888
37191W        W80108  26.311  22.075   9.468  0.0346  0.2047  0.3713
37192W        W80109  29.529  21.470   7.963 -0.1516  0.0465 -0.3127
37193W        W80110  29.529  25.922   8.578  0.0692  0.0217  0.0358
37194W        W80111  27.235  25.718   9.406  0.0138 -0.1073  0.1189
37195W        W80112  26.225  25.303   6.875 -0.1372  0.2028 -0.3799
37196W        W80113  25.378  23.494   7.439 -0.1531  0.0162  0.0720
37197W        W80114  28.053  24.332   6.439 -0.0909 -0.1552 -0.3047
37198W        W80115  25.280  24.498   7.552 -0.2045  0.0940  0.0990
37199W        W80116  26.073  23.743   8.579 -0.0485  0.2122  0.0403
37200W        W80117  26.590  23.991   8.526 -0.3675 -0.1165 -0.0323
37201W        W80118  26.814  25.215   9.281 -0.2989  0.1146  0.3133
37202W        W80119  28.618  23.421   9.259 -0.0627  0.0496  0.1674
37203W        W80120  24.546  25.370   9.434 -0.2732  0.3938  0.1276
37204W        W80121  25.721  23.338   8.736  0.1202 -0.1994 -0.2143
37205W        W80122  27.104  23.065   7.328  0.0775 -0.2120  0.3007
37206W        W80123  26.352  22.845   6.107  0.0810 -0.2514 -0.0037
37207W        W80124  28.454  22.951   7.739  0.1105 -0.2494 -0.1964
37208W        W80125  28.719  20.457   7.603  0.0375 -0.1842 -0.0432
37209W        W80126  27.196  25.761   8.293 -0.3279  0.1000  0.1846
37210W        W80127  28.539  25.391   8.207 -0.0562  0.0794 -0.2925
37211W        W80128  25.773  22.101   9.538 -0.1054 -0.1506  0.0902
37212W        W80129  30.366  25.702   8.836  0.0011  0.2862  0.1988
37213W        W80130  27.721  24.130   8.301 -0.0885 -0.0339  0.2150
37214W        W80131  30.669  25.705   9.226 -0.0200  0.0699 -0.1745
37215W        W80132  27.090  24.827   5.727  0.1383 -0.1964  0.4607
37216W        W80133  30.542  25.500   7.938  0.2040  0.2909  0.2063
37217W        W80134  28.268  25.255   6.572 -0.0216 -0.1852  0.0348
37218W        W80135  25.009  23.652   7.075  0.1751  0.2053 -0.0686
37219W        W80136  25.819  19.278   7.599  0.0253 -0.2484 -0.0389
37220W        W80137  27.945  22.179   7.410 -0.0184 -0.0380  0.0457
37221W        W80138  26.841  24.425   8.465 -0.1566 -0.1127 -0.0144
37222W        W80139  27.001  23.970   7.330  0.0329 -0.0466  0.2208
37223W        W80140  27.605  22.537   7.466 -0.1262 -0.3191 -0.2528
37224W        W80141  31.667  22.088   9.036  0.1564  0.1706 -0.0530
37225W        W80142  27.931  20.874   8.588  0.0715 -0.0424  0.3210
37226W        W80143  25.874  24.008   6.747  0.0398  0.0197  0.0163
37227W        W80144  27.560  24.606   7.492  0.2614  0.2314  0.1734
37228W        W80145  26.593  23.289   8.290 -0.4138  0.0627 -0.2260
37229W        W80146  28.667  23.671   8.390 -0.0948 -0.3943  0.0338
37230W        W80147  25.677  25.560   8.206 -0.2279  0.1171 -0.2553
37231W        W80148  25.771  25.456   6.793 -0.0375 -0.1770  0.0281
37232W        W80149  25.677  27.973   9.391 -0.0145  0.1071 -0.1228
37233W        W80150  25.646  23.971   8.817  0.0670 -0.1207 -0.0997
37234W        W80151  23.900  24.129   9.031 -0.2315 -0.0017 -0.0503
37235W        W80152  27.991  22.364   8.838  0.0593  0.0629 -0.2271
37236W        W80153  27.745  22.384   7.936  0.3671 -0.1142  0.0964
37237W        W80154  28.710  22.131   8.106  0.0487  0.0491 -0.1469
37238W        W80155  26.291  24.317   6.950 -0.0009 -0.1622  0.2044
37239W        W80156  29.279  26.054   7.695  0.0341  0.1586 -0.0348
37240W        W80157  29.925  20.943   7.349 -0.2874 -0.3174 -0.2714
37241W        W80158  26.542  24.581   5.650 -0.1990 -0.0541 -0.3287
37242W        W80159  25.185  26.273   8.060 -0.2054 -0.1265  0.1294
37243W        W80160  24.883  21.555   9.288  0.1913  0.1552  0.0555
37244W        W80161  24.131  22.838   8.442 -0.1415  0.3946  0.3203
37245W        W80162  25.642  23.012   8.347  0.1508 -0.3143  0.0098
37246W        W80163  27.901  21.740   7.955 -0.0195 -0.2312  0.4433
37247W        W80164  26.212  22.797   9.410  0.3468  0.2352  0.2790
37248W        W80165  23.887  22.187   8.112 -0.1030 -0.0535  0.0686
37249W        W80166  26.277  25.980   8.900 -0.1346  0.0753  0.3308
37250W        W80167  29.102  25.195   8.843  0.1709 -0.1969  0.0985
37251W        W80168  29.482  24.310   8.443 -0.0957 -0.1943 -0.0799
37252W        W80169  25.037  22.419   9.047 -0.5475 -0.1208  0.0125
37253W        W80170  25.521  22.297   7.933  0.1874 -0.0650  0.2131
37254W        W80171  27.375  23.575   7.508  0.0776 -0.1921 -0.2391
37255W        W80172  26.754  18.290   9.333 -0.3452  0.2341  0.1431
37256W        W80173  27.821  24.798   8.430  0.0741  0.2432 -0.2506
37257W        W80174  27.936  24.818   7.146  0.0357  0.2144 -0.1322
37258W        W80175  28.383  28.255   8.324  0.2282  0.2910 -0.2377
37259W        W80176  26.288  23.332   7.260 -0.2025 -0.0925 -0.0026
37260W        W80177  25.350  21.819   8.088 -0.1191 -0.4713  0.0655
37261W        W80178  26.880  25.313   8.190 -0.0529 -0.0072  0.0382
37262W        W80179  26.752  24.090   6.859  0.1940  0.0334 -0.2405
37263W        W80180  26.840  23.434   8.739  0.1305  0.3589 -0.1461
37264W        W80181  25.207  24.937   7.828  0.1912  0.0794 -0.0649
37265W        W80182  26.950  22.054   8.422  0.0022 -0.1653  0.3647
37266W        W80183  25.801  24.526   6.901  0.0456  0.0007 -0.1081
37267W        W80184  28.196  21.039   8.178  0.0792  0.0474 -0.1245
37268W        W80185  30.321  23.373   8.077  0.2599  0.0691 -0.4328
37269W        W80186  28.514  23.483   7.490 -0.2337 -0.0702 -0.2119
37270W        W80187  28.133  21.821   6.190  0.1108 -0.2797 -0.0896
37271W        W80188  26.896  22.860   8.123 -0.0885  0.1184  0.0680
37272W        W80189  28.448  25.031   7.152 -0.1362 -0.0973 -0.2308
37273W        W80190  25.504  26.883   8.311  0.0763 -0.0176 -0.1024
37274W        W80191  28.105  21.785   7.090 -0.1047 -0.8163  0.0885
37275W        W80192  27.512  24.202   8.840  0.1446  0.2673 -0.0494
37276W        W80193  24.795  24.019   8.051 -0.3924 -0.0891 -0.3625
37277W        W80194  25.972  21.375   8.991  0.0124 -0.0346 -0.1224
37278W        W80195  23.902  22.563   8.799 -0.1575  0.0700 -0.4610
37279W        W80196  26.246  22.344   5.879 -0.1543 -0.1657  0.0656
37280W        W80197  25.373  23.093   9.009 -0.1339 -0.1726  0.0130
37281W        W80198  25.564  23.532   9.222 -0.1155 -0.0220  0.0582
37282W        W80199  27.943  22.494   7.017  0.0847  0.0686 -0.1222
37283W        W80200  26.417  21.021   7.965 -0.1523  0.2792  0.5284
37284W        W80201  29.130  22.124   7.466  0.0004 -0.1855 -0.3065
37285W        W80202  26.928  22.438   8.809  0.3147  0.1757 -0.0705
37286W        W80203  26.150  23.297   6.310  0.0454 -0.3314 -0.2447
37287W        W80204  24.095  25.359   8.649 -0.2191  0.1965 -0.0780
37288W        W80205  22.982  24.322   8.993  0.0987  0.2264  0.0045
37289W        W80206  29.581  21.957   7.757 -0.0678  0.0515 -0.0834
37290W        W80207  26.480  22.392   8.520  0.0650 -0.2906  0.2064
37291W        W80208  25.740  25.862   6.128 -0.0584 -0.0267  0.2609
37292W        W80209  26.981  21.892   7.539  0.1695 -0.2551  0.0213
37293W        W80210  22.233  18.925   9.739 -0.2473  0.3054 -0.0677
37294W        W80211  26.657  25.820   8.579 -0.0418  0.0399  0.2808
37295W        W80212  26.471  23.805   7.403 -0.2278  0.2373 -0.2433
37296W        W80213  26.889  27.886   8.643 -0.0586  0.0674  0.2686
37297W        W80214  27.441  25.005   6.965  0.0880 -0.0124 -0.0465
37298W        W80215  30.474  22.849   9.560  0.2316  0.1068 -0.0407
37299W        W80216  26.316  24.430   8.348 -0.0612  0.0355  0.0161
37300W        W80217  26.016  21.923   9.094  0.1006 -0.1548  0.0319
37301W        W80218  23.977  22.012   8.749 -0.2429  0.3649  0.1075
37302W        W80219  28.634  23.161   8.304 -0.1031  0.0724  0.0004
37303W        W80220  29.104  23.746   7.566  0.1570 -0.3810  0.0071
37304W        W80221  25.879  22.830   7.954 -0.2092  0.2206 -0.1404
37305W        W80222  28.861  22.936   9.387 -0.1130 -0.0908  0.0982
37306W        W80223  24.191  27.034   9.111  0.1220  0.2643 -0.3172
37307W        W80224  27.654  23.548   6.542 -0.2515 -0.2896 -0.1110
37308W        W80225  24.725  23.021   7.303  0.0867 -0.1364 -0.0891
37309W        W80226  27.296  21.154   9.178  0.1751 -0.0669 -0.0868
37310W        W80227  28.548  22.708   6.768  0.0658 -0.1303  0.2468
37311W        W80228  25.672  23.919   8.203 -0.1287 -0.0403  0.0011
37312W        W80229  27.029  25.442   8.886  0.3441  0.2225 -0.2663
37313W        W80230  25.531  24.112   7.105  0.1752 -0.0822 -0.1497
37314W        W80231  25.496  22.575   9.393 -0.0708 -0.0006 -0.0124
37315W        W80232  30.767  23.897   8.737  0.0861 -0.1455 -0.3416
37316W        W80233  26.406  22.804   7.910  0.2556  0.2004  0.0499
37317W        W80234  26.841  21.303   9.076 -0.3734 -0.0507  0.0775
37318W        W80235  24.376  21.292   8.587  0.0330  0.1104  0.2874
37319W        W80236  27.637  23.315   8.085 -0.0161  0.1471  0.0233
37320W        W80237  28.192  21.900   8.818  0.4179 -0.1509 -0.1407
37321W        W80238  27.925  22.114   8.385  0.0504  0.0763 -0.1723
37322W        W80239  30.621  24.857   7.462  0.0737  0.0622 -0.1700
37323W        W80240  26.753  23.610   6.977 -0.0190 -0.0205  0.1059
37324W        W80241  25.340  22.799   7.955  0.0065  0.0001  0.1336
37325W        W80242  28.025  24.395   8.668 -0.2854 -0.3207  0.0882
37326W        W80243  26.578  21.016   7.495  0.0657 -0.3868  0.0729
37327W        W80244  26.233  23.219   8.683 -0.0083  0.0540  0.0317
37328W        W80245  26.237  24.772   6.805 -0.0236 -0.1728  0.1971
37329W        W80246  27.237  23.280   8.418 -0.2023  0.1921  0.2209
37330W        W80247  28.001  22.978   7.910 -0.1174  0.0802 -0.0691
37331W        W80248  28.813  23.951   7.962  0.1267  0.0481 -0.2482
37332W        W80249  26.871  21.164   6.508 -0.3041  0.0111 -0.2002
37333W        W80250  26.258  22.845   8.351  0.0644 -0.1480 -0.0016
37334W        W80251  25.827  21.179   9.467  0.1046  0.2741 -0.1473
37335W        W80252  30.365  23.013   6.911 -0.0194  0.1332 -0.2161
37336W        W80253  25.857  23.650   7.314 -0.0320 -0.1292  0.2180
37337W        W80254  23.558  21.586   6.015 -0.1092 -0.0864  0.0739
37338W        W80255  26.532  24.362   8.922  0.3552  0.1074 -0.1306
37339W        W80256  28.875  25.205   7.616  0.1333 -0.0927 -0.0738
37340W        W80257  26.769  24.492   9.424 -0.0368  0.2566 -0.0176
37341W        W80258  27.206  20.000   8.735 -0.0961  0.0147  0.0835
37342W        W80259  24.591  26.257   9.485  0.0098 -0.0697  0.1419
37343W        W80260  28.318  22.189   9.258 -0.0120  0.0511  0.1935
37344W        W80261  27.502  23.032   6.579  0.3192  0.3647 -0.1832
37345W        W80262  26.742  23.137   6.203 -0.0528 -0.0019 -0.0840
37346W        W80263  27.111  22.759   7.684 -0.1832 -0.2174  0.0783
37347W        W80264  29.579  21.376   9.108 -0.0524 -0.1290  0.3376
37348W        W80265  27.086  27.230   8.829 -0.0517  0.1340 -0.3231
37349W        W80266  29.574  23.422   7.401 -0.1054  0.1664 -0.2568
37350W        W80267  23.235  14.960  11.811  0.2872 -0.4359 -0.0567
37351W        W80268  28.027  21.219   7.250 -0.1921  0.1201  0.2097
37352W        W80269  28.514  23.205   7.049 -0.1317  0.1106  0.0450
37353W        W80270  25.293  23.141   6.697  0.0395 -0.0343 -0.1591
37354W        W80271  27.952  23.115   6.325 -0.0359 -0.0665  0.1375
37355W        W80272  27.354  25.025   8.278  0.2835  0.1580  0.2835
37356W        W80273  28.076  24.443   8.178  0.1632 -0.3540 -0.3865
37357W        W80274  28.807  21.990   9.319  0.3177 -0.0006 -0.0169
37358W        W80275  24.581  21.263   7.619  0.2976  0.3465 -0.1539
37359W        W80276  25.392  24.272   6.694  0.1017 -0.2271  0.4433
37360W        W80277  25.878  23.172   5.878  0.1452 -0.1060 -0.0039
37361W        W80278  26.300  24.757   9.233 -0.1607  0.3991 -0.0015
37362W        W80279  28.486  21.874   6.662 -0.0596 -0.0785 -0.1525
37363W        W80280  24.244  25.405   7.176 -0.1055  0.1686  0.1952
37364W        W80281  25.581  22.677   8.783  0.0693  0.0078  0.3262
37365W        W80282  26.984  29.636   8.050  0.0032 -0.0006  0.3112
37366W        W80283  25.777  25.727   7.741 -0.1029  0.0061 -0.2245
37367W        W80284  23.940  22.976   7.948  0.1816  0.0759 -0.1493
37368W        W80285  27.542  23.104   7.643  0.3211  0.1085 -0.1693
37369W        W80286  29.193  23.863   8.487  0.0072 -0.0841 -0.2535
37370W        W80287  25.543  22.196   8.967  0.1638  0.0569 -0.2840
37371W        W80288  28.511  22.139   8.553 -0.0550  0.0648  0.1630
37372W        W80289  27.124  24.496   8.849  0.0334 -0.2532 -0.1765
37373W        W80290  26.468  21.101   8.861  0.3641  0.1245  0.1288
37374W        W80291  28.784  21.504   6.768 -0.1459  0.2990  0.0486
37375W        W80292  27.257  24.930   7.775 -0.1797 -0.1412  0.0254
37376W        W80293  24.299  23.859   8.299 -0.3144 -0.1401  0.1778
37377W        W80294  26.104  23.538   9.056  0.2143  0.2714  0.2679
37378W        W80295  27.108  24.821   7.297  0.2195 -0.0641 -0.1247
37379W        W80296  28.331  22.667   8.685  0.0181  0.1260  0.1569
37380W        W80297  25.566  28.473  12.910 -0.0752 -0.1590  0.2503
37381W        W80298  27.296  24.298   7.054  0.0909 -0.2352 -0.0366
37382W        W80299  27.484  22.391   9.069 -0.2524 -0.2718  0.2197
37383W        W80300  25.944  23.653   7.865 -0.0279 -0.4004 -0.0784
37384W        W80301  27.540  23.939   9.723  0.2787 -0.0840  0.1655
37385W        W80302  27.900  24.283   7.723 -0.0613 -0.3297  0.1990
37386W        W80303  28.457  22.629   8.122 -0.2438 -0.1319 -0.0484
37387W        W80304  27.609  19.645   9.018 -0.1478 -0.0026  0.1026
37388W        W80305  31.348  21.662   6.684  0.2886 -0.2392 -0.3494
37389W        W80306  27.043  24.390   7.579  0.3341  0.0835  0.1746
37390W        W80307  25.798  20.032   7.269  0.2081  0.0417 -0.0440
37391W        W80308  28.789  24.143   8.491 -0.1603  0.0293 -0.0568
37392W        W80309  23.549  22.263   8.632 -0.3304  0.1770  0.3549
37393W        W80310  26.621  22.907   8.652  0.2819 -0.0076  0.1161
37394W        W80311  27.295  20.354   9.086 -0.1273  0.0626 -0.1046
37395W        W80312  27.957  23.379   7.514  0.3041  0.0657  0.0402
37396W        W80313  28.765  22.515   7.767  0.0849 -0.0126 -0.0753
37397W        W80314  26.386  23.801   8.153  0.0612 -0.1672 -0.2498
37398W        W80315  26.155  25.475   6.415  0.2657 -0.2816  0.1362
37399W        W80316  26.761  26.010   9.465  0.4137  0.3203  0.1866
37400W        W80317  23.917  23.629   6.905 -0.3116 -0.0830  0.0202
37401W        W80318  28.332  21.523   9.156 -0.0846 -0.3606  0.1819
37402W        W80319  24.328  24.349   7.313  0.2783  0.2328  0.1127
37403W        W80320  27.468  22.238   8.596 -0.2058 -0.1738  0.1621
37404W        W80321  28.020  23.513   6.832 -0.1976 -0.0442  0.0514
37405W        W80322  27.727  26.629   8.200 -0.1119 -0.0597  0.2374
37406W        W80323  26.078  24.184   7.973  0.3455 -0.0788 -0.0742
37407W        W80324  25.503  23.675   6.958  0.0626  0.1658 -0.3343
37408W        W80325  28.398  23.067   6.048  0.0648 -0.1672  0.0337
37409W        W80326  27.051  20.613   9.527 -0.1600  0.1185 -0.1738
37410W        W80327  26.969  21.177   8.226 -0.2065 -0.0030  0.1767
37411W        W80328  25.532  22.146   8.399 -0.0524 -0.0032  0.1118
37412W        W80329  30.785  24.377   9.048 -0.1558  0.1147 -0.2033
37413W        W80330  24.329  22.529   7.412  0.1078  0.1941  0.2239
37414W        W80331  29.230  24.262   7.184 -0.0434  0.0418  0.0782
37415W        W80332  25.591  24.848   8.160 -0.3049  0.3324 -0.0204
37416W        W80333  28.236  24.785   7.716 -0.0199 -0.0140  0.3477
37417W        W80334  28.068  22.942   7.306 -0.2243 -0.3556  0.0003
37418W        W80335  28.836  25.995   7.470  0.0106 -0.0478  0.0893
37419W        W80336  25.718  23.093   7.124  0.3469 -0.2765  0.1574
37420W        W80337  33.300  23.268   9.595 -0.1567 -0.0084  0.2876
37421W        W80338  30.733  24.712   9.742  0.0243  0.1233 -0.0331
37422W        W80339  27.653  21.511   7.455  0.0859  0.0245 -0.2773
37423W        W80340  25.955  22.454   9.215 -0.1056  0.1219 -0.1451
37424W        W80341  25.360  25.529   6.492 -0.5490 -0.3012  0.0600
37425W        W80342  27.390  21.438   7.928 -0.0174 -0.0284  0.0195
37426W        W80343  26.840  25.474   7.110 -0.0684  0.0642 -0.0445
37427W        W80344  28.268  24.950   8.699  0.1576  0.0869 -0.1664
37428W        W80345  26.277  22.407   7.658 -0.4627 -0.0775 -0.1196
37429W        W80346  28.174  25.275   9.126  0.0621  0.2500 -0.3232
37430W        W80347  28.307  23.918   7.698  0.1463  0.3467  0.2064
37431W        W80348  28.752  24.708   7.398  0.0313 -0.1539  0.1809
37432W        W80349  27.320  22.316   6.825 -0.2339  0.0907 -0.0506
37433W        W80350  28.052  23.910   9.484 -0.1897  0.0808  0.3169
37434W        W80351  25.629  23.609   6.465 -0.0487  0.2390  0.0980
37435W        W80352  29.817  23.266   7.844 -0.1333 -0.2401  0.1151
37436W        W80353  29.169  20.802   7.637  0.0986 -0.0067 -0.0415
37437W        W80354  28.845  25.795  13.163  0.0271  0.0354 -0.3790
37438W        W80355  24.897  22.858   7.732 -0.2707 -0.1078  0.0722
37439W        W80356  27.109  22.612   7.211  0.1167  0.0540  0.2558
37440W        W80357  27.520  23.692   8.495  0.1928  0.1626  0.1577
37441W        W80358  24.666  24.935   8.049  0.1209 -0.0269  0.1779
37442W        W80359  27.334  21.579   8.413 -0.1649 -0.0997 -0.1580
37443W        W80360  27.744  25.798   7.043 -0.2122  0.1365  0.3784
37444W        W80361  27.435  22.806   8.084  0.0786  0.2319 -0.1675
37445W        W80362  28.419  21.679   7.928  0.0876 -0.1754  0.3383
37446W        W80363  29.111  25.294   6.101 -0.4445 -0.3568  0.0272
37447W        W80364  29.250  23.422   6.467  0.0820  0.0912  0.0457
37448W        W80365  28.374  20.787   7.285 -0.3516 -0.2653  0.3582
37449W        W80366  25.538  23.083   6.219 -0.0762 -0.0132 -0.1715
37450W        W80367  25.847  21.777   8.202  0.1100 -0.2034 -0.2120
37451W        W80368  27.691  20.808   9.024 -0.3557 -0.1807 -0.1937
37452W        W80369  27.460  23.366   7.026 -0.0826 -0.1067  0.0778
37453W        W80370  28.057  25.358   8.341  0.1636 -0.2687 -0.2097
37454W        W80371  26.454  22.431   9.054 -0.1008  0.0373  0.0166
37455W        W80372  28.897  25.679   6.336  0.1742  0.4568  0.1897
37456W        W80373  29.887  25.493   6.655 -0.0331 -0.0421  0.2045
37457W        W80374  30.979  20.753   8.681  0.1920 -0.2081 -0.2255
37458W        W80375  27.585  22.831   7.032 -0.0121 -0.2547 -0.0663
37459W        W80376  31.059  24.365   9.666  0.2490 -0.1381  0.0597
37460W        W80377  25.381  20.723   8.679 -0.1449 -0.1134 -0.0050
37461W        W80378  26.696  22.319   8.051 -0.4084  0.1288 -0.0255
37462W        W80379  27.581  24.649   8.022 -0.3479  0.1506 -0.2414
37463W        W80380  26.331  23.377   7.847  0.1097 -0.0618  0.0928
37464W        W80381  26.904  22.054   7.039 -0.1324  0.2366 -0.2122
37465W        W80382  28.304  24.958   8.245 -0.1911 -0.2224 -0.3506
37466W        W80383  27.251  21.708   7.139  0.1411 -0.0545 -0.2175
37467W        W80384  27.534  23.828   7.097 -0.0890  0.2176 -0.0721
37468W        W80385  26.070  22.244   8.729 -0.0857 -0.1205 -0.0488
37469W        W80386  26.104  22.897   7.429  0.2664  0.0091  0.0287
37470W        W80387  28.577  21.323   8.624  0.2817  0.0547  0.3960
37471W        W80388  25.011  22.803   8.749  0.0083  0.4244  0.0738
37472W        W80389  26.618  22.947   7.455 -0.3011  0.1837 -0.1251
37473W        W80390  25.940  23.387   8.239  0.2806  0.1789 -0.5641
37474W        W80391  25.772  18.779   8.866 -0.1174  0.2827  0.2960
37475W        W80392  31.516  19.450   9.061  0.0472 -0.1462  0.0331
37476W        W80393  26.820  21.822   9.273  0.2706 -0.1286 -0.2894
37477W        W80394  32.790  24.740   8.278 -0.2460 -0.0876 -0.1709
37478W        W80395  32.610  23.796   9.441  0.1194  0.0350  0.1897
37479W        W80396  25.618  27.849   0.985 -0.0973  0.1518  0.3432
37480W        W80397  27.081  24.826   1.000  0.3402  0.1022 -0.0278
37481W        W80398  27.255  26.236   1.713  0.0950 -0.0911 -0.3604
37482W        W80399  28.383  27.607   1.283  0.2300  0.4285  0.0489
37483W        W80400  26.040  25.289   0.693  0.0274 -0.4114 -0.3408
37484W        W80401  27.148  30.096   0.355  0.1355  0.0374  0.0064
37485W        W80402  25.760  24.509   0.818  0.3461 -0.1602 -0.1960
37486W        W80403  25.532  27.586   1.449 -0.0103  0.2511 -0.0402
37487W        W80404  28.431  30.904   2.038  0.0801  0.2626 -0.0310
37488W        W80405  28.483  26.906  31.561  0.3660  0.1793 -0.3281
37489W        W80406  27.213  26.372   0.943  0.1421  0.1294  0.0403
37490W        W80407  25.024  27.832   2.859 -0.0133  0.0844 -0.0066
37491W        W80408  28.538  25.992   1.625 -0.0384 -0.3127  0.2529
37492W        W80409  25.469  23.305   2.253 -0.1584  0.3291 -0.0214
37493W        W80410  29.996  26.978   2.218  0.4877  0.0058 -0.0511
37494W        W80411  25.886  26.703   0.728  0.0894  0.1418 -0.1061
37495W        W80412  25.740  26.140   1.372  0.0985  0.1289 -0.0411
37496W        W80413  28.402  26.337   2.603 -0.0932 -0.0250  0.0974
37497W        W80414  27.379  30.378   1.223 -0.1161  0.0112 -0.0635
37498W        W80415  27.080  25.451   2.371 -0.2265  0.2437  0.0018
37499W        W80416  26.346  25.782   4.067  0.1338  0.1766 -0.1755
37500W        W80417  27.636  28.151   1.090 -0.0676  0.1625 -0.2286
37501W        W80418  24.717  25.601  31.605 -0.0587  0.0871  0.1456
37502W        W80419  24.314  27.315   1.534  0.0394 -0.3384 -0.0937
37503W        W80420  27.374  26.628   1.389  0.1161 -0.0424  0.2282
37504W        W80421  27.039  25.866   2.017 -0.2792 -0.1470 -0.1482
37505W        W80422  28.927  26.332   2.445 -0.2506 -0.0876 -0.0848
37506W        W80423  27.285  30.014   0.840 -0.1249  0.0502 -0.2413
37507W        W80424  28.000  29.175  31.960  0.1852 -0.0244  0.2235
37508W        W80425  27.570  27.488   2.829  0.1624 -0.1809 -0.5926
37509W        W80426  24.409  26.737   1.156 -0.0196 -0.1004 -0.1874
37510W        W80427  25.836  27.974   2.003  0.1976  0.0848  0.0969
37511W        W80428  26.049  29.260  31.297  0.4640 -0.1979  0.0122
37512W        W80429  29.242  31.908   1.139 -0.1742 -0.0320 -0.1718
37513W        W80430  26.350  29.536   0.724  0.1399 -0.0779 -0.0959
37514W        W80431  27.300  29.942   3.467 -0.0277 -0.2670 -0.1654
37515W        W80432  24.943  28.575  31.222 -0.0778 -0.0420 -0.2388
37516W        W80433  27.440  30.442   2.519  0.1570  0.0945 -0.2586
37517W        W80434  27.415  28.781   2.551 -0.0934 -0.0181 -0.0331
37518W        W80435  24.979  28.544   2.199  0.1235 -0.0103  0.1730
37519W        W80436  27.770  28.513   1.495  0.0795 -0.0244  0.2320
37520W        W80437  28.204  30.361  31.691 -0.0887  0.1861  0.3062
37521W        W80438  28.942  29.172   0.133 -0.0261  0.2260 -0.1055
37522W        W80439  26.864  28.891   2.467 -0.0937  0.0237 -0.4132
37523W        W80440  26.778  27.873   1.664  0.3249  0.0292  0.3954
37524W        W80441  27.442  24.628   4.244  0.0849  0.3902  0.0091
37525W        W80442  25.472  27.035   1.142  0.0582  0.1419  0.2752
37526W        W80443  28.412  27.557  29.981  0.2351 -0.3139  0.0856
37527W        W80444  27.896  27.720   1.232 -0.2652 -0.2019 -0.2083
37528W        W80445  28.960  26.173   1.325  0.1516  0.0304 -0.0417
37529W        W80446  26.188  24.808   0.729  0.0611  0.1182  0.0200
37530W        W80447  24.954  30.146   0.226  0.1224  0.1215  0.0211
37531W        W80448  26.820  25.358   2.000  0.3281  0.1499 -0.0754
37532W        W80449  28.159  28.543   2.766  0.0181 -0.1684 -0.0439
37533W        W80450  26.519  24.470   0.974  0.0353 -0.0230 -0.3942
37534W        W80451  28.369  25.085   2.435 -0.0868  0.1125 -0.0548
37535W        W80452  24.634  28.408   1.554 -0.0243 -0.0487 -0.1065
37536W        W80453  25.303  25.845   1.347 -0.1111  0.2791  0.1767
37537W        W80454  29.185  27.996   1.036  0.3138 -0.1027 -0.0474
37538W        W80455  29.255  28.237   0.423  0.2762 -0.2421 -0.0504
37539W        W80456  27.462  28.840   1.712  0.1939 -0.0023  0.0844
37540W        W80457  26.976  27.301   1.481 -0.2646 -0.0200  0.1839
37541W        W80458  24.636  28.860   1.834 -0.3559 -0.2011 -0.0651
37542W        W80459  26.452  28.159   2.101 -0.2744  0.4747  0.1868
37543W        W80460  27.103  25.323  31.717 -0.1763 -0.0178 -0.0756
37544W        W80461  28.241  29.832   3.541  0.0267  0.2222  0.0101
37545W        W80462  26.343  28.294   3.277 -0.0090 -0.2913  0.2047
37546W        W80463  28.079  26.219   0.566 -0.0873  0.0526 -0.2464
37547W        W80464  27.633  30.155   2.902  0.0053 -0.0112 -0.1647
37548W        W80465  28.156  27.202  31.242 -0.3594 -0.0933 -0.1850
37549W        W80466  29.576  28.056   1.471  0.0830 -0.1165 -0.1637
37550W        W80467  27.814  24.486   2.750  0.1146  0.2093  0.1548
37551W        W80468  24.073  29.343   1.256  0.0562 -0.0566 -0.1860
37552W        W80469  24.405  27.232   0.641  0.0369  0.3157  0.1354
37553W        W80470  28.651  27.943   2.465 -0.3288 -0.0260  0.0805
37554W        W80471  30.749  26.395   1.065 -0.2545  0.0727  0.0633
37555W        W80472  24.898  31.199   2.159 -0.0753 -0.0598 -0.2157
37556W        W80473  26.142  27.480   0.212 -0.1759  0.2199 -0.0245
37557W        W80474  25.910  29.362   5.219 -0.1353 -0.2278  0.0095
37558W        W80475  27.727  30.491  30.701  0.0024  0.3652  0.0883
37559W        W80476  26.727  25.760   0.371  0.1603 -0.0110  0.0975
37560W        W80477  25.348  27.810  31.537  0.1049  0.2062  0.3115
37561W        W80478  24.733  24.746   2.042  0.0637  0.0041  0.0750
37562W        W80479  27.352  28.295   2.450  0.0627  0.1897 -0.0398
37563W        W80480  28.120  25.836   2.009  0.0184  0.2447 -0.0037
37564W        W80481  24.959  25.673   1.647  0.0717 -0.1193 -0.0861
37565W        W80482  30.876  25.857   2.451  0.1290 -0.0106 -0.1725
37566W        W80483  25.930  30.353   0.924  0.0440 -0.0319  0.1201
37567W        W80484  27.689  29.493   2.764 -0.1995 -0.1598 -0.1735
37568W        W80485  28.686  27.079  30.306 -0.0904  0.0847 -0.1791
37569W        W80486  27.240  29.361   0.132  0.0663 -0.3268  0.4632
37570W        W80487  25.714  26.124   2.304 -0.4694  0.5741  0.4627
37571W        W80488  27.154  27.132   0.349  0.0829 -0.1349 -0.0263
37572W        W80489  24.379  26.334   3.555 -0.2609  0.2736 -0.0813
37573W        W80490  23.483  25.630   3.009 -0.0689  0.1911 -0.2092
37574W        W80491  28.227  28.201   2.376 -0.0256 -0.0278 -0.1476
37575W        W80492  24.459  23.876  30.932 -0.0784  0.1149  0.1923
37576W        W80493  26.936  29.516   1.594 -0.3437 -0.3282 -0.1145
37577W        W80494  26.410  29.214   1.173  0.0252  0.1281  0.0942
37578W        W80495  26.951  28.688   1.617 -0.2250  0.3265  0.3079
37579W        W80496  27.572  23.681   0.879 -0.1228  0.2224 -0.2101
37580W        W80497  28.292  30.831   0.518 -0.1000  0.1515 -0.0748
37581W        W80498  28.921  28.923   2.313 -0.0478  0.0835 -0.0070
37582W        W80499  28.596  31.338   1.181  0.1299  0.0061 -0.1962
37583W        W80500  26.901  27.359   3.486 -0.1124  0.0079  0.0688
37584W        W80501  26.924  24.933   1.546  0.1944 -0.0041  0.1021
37585W        W80502  25.740  29.812   2.234  0.1133 -0.1810  0.0785
37586W        W80503  26.910  26.784   1.251  0.3257  0.0245  0.2792
37587W        W80504  27.498  26.840   0.130 -0.0023 -0.0785  0.1273
37588W        W80505  28.872  29.447   2.283  0.1898  0.2321  0.1189
37589W        W80506  27.117  29.182   1.293  0.4379  0.1446  0.0571
37590W        W80507  25.563  28.039   3.483  0.1264 -0.0096 -0.1864
37591W        W80508  27.194  26.402   3.590 -0.0118  0.0732 -0.2862
37592W        W80509  29.080  28.146   2.708  0.2952  0.2072  0.2111
37593W        W80510  27.249  28.672   1.213  0.0420  0.0393  0.0370
37594W        W80511  24.836  22.581  30.795 -0.0480 -0.2924  0.0970
37595W        W80512  30.538  29.457   0.245  0.1930 -0.0860 -0.0401
37596W        W80513  24.013  30.076  31.710  0.0175 -0.0844 -0.0758
37597W        W80514  25.110  26.835  30.814  0.0788  0.2987 -0.0472
37598W        W80515  25.993  27.855   1.292 -0.3336  0.4197 -0.3205
37599W        W80516  29.995  26.103   3.490 -0.2260  0.0376 -0.2354
37600W        W80517  25.984  26.855   1.175 -0.1412 -0.0665  0.3234
37601W        W80518  28.557  27.899   2.976 -0.1486  0.1442 -0.0819
37602W        W80519  25.367  25.194  29.943 -0.0814 -0.0018  0.0903
37603W        W80520  25.032  26.223   2.655 -0.2749  0.2344 -0.1784
37604W        W80521  27.007  26.010   2.607 -0.0922  0.0545  0.0577
37605W        W80522  28.805  27.352   1.487  0.2398 -0.0421  0.0786
37606W        W80523  27.476  27.115   3.225  0.1306 -0.1657 -0.0988
37607W        W80524  28.598  26.584   1.789 -0.2063  0.2152  0.3373
37608W        W80525  27.829  27.490   1.874  0.1244 -0.0196 -0.0675
37609W        W80526  26.744  23.892  31.714 -0.0740  0.1435  0.1861
37610W        W80527  26.263  27.871   1.730  0.1363 -0.1934  0.4739
37611W        W80528  26.865  29.331   0.853 -0.1399 -0.0038  0.0353
37612W        W80529  28.281  27.171   1.943  0.1544 -0.1916  0.0481
37613W        W80530  26.810  27.626   2.090 -0.1555  0.3015  0.2214
37614W        W80531  28.382  29.155  31.406  0.1627  0.1624  0.1587
37615W        W80532  26.533  27.319   1.011  0.5088  0.0842 -0.2382
37616W        W80533  26.887  28.198   3.883  0.4459 -0.0072 -0.1025
37617W        W80534  26.387  27.398   3.309  0.1754  0.0479 -0.1371
37618W        W80535  27.332  24.772   3.758 -0.2154  0.0730 -0.0205
37619W        W80536  27.854  26.876   1.266  0.1342  0.1296 -0.2111
37620W        W80537  26.376  25.895   1.225 -0.1277 -0.0625  0.1514
37621W        W80538  25.228  29.180  31.875 -0.2558  0.0208 -0.1964
37622W        W80539  29.402  26.488   2.346 -0.0689 -0.2863 -0.1458
37623W        W80540  27.874  26.935   2.110 -0.1610 -0.0312  0.1100
37624W        W80541  24.668  26.007   2.178 -0.0602 -0.1606  0.3206
37625W        W80542  30.634  27.380   4.619  0.3532  0.0501 -0.0081
37626W        W80543  27.974  25.178   1.392  0.3235  0.1242 -0.1253
37627W        W80544  27.926  27.860   0.726 -0.1247  0.0687 -0.0754
37628W        W80545  26.658  27.116   0.573  0.1969  0.3699  0.2764
37629W        W80546  30.103  27.287   3.707  0.0998  0.0145  0.2325
37630W        W80547  26.412  28.446   1.531  0.0056 -0.0132  0.1889
37631W        W80548  26.711  28.652   3.252  0.2618  0.2469  0.1295
37632W        W80549  27.871  28.530   2.323 -0.2584 -0.1380 -0.2001
37633W        W80550  27.183  28.340   3.342  0.1755  0.0225  0.0197
37634W        W80551  27.596  27.365   2.306 -0.0949  0.0983  0.2029
37635W        W80552  29.477  25.620   0.454 -0.1011 -0.0061  0.1151
37636W        W80553  26.233  30.552   0.456  0.1078 -0.0065 -0.1880
37637W        W80554  26.166  28.807   1.296  0.1567 -0.3253 -0.4389
37638W        W80555  26.452  25.594   1.684 -0.2081  0.3500 -0.1653
37639W        W80556  28.160  30.939   1.493 -0.2388  0.2118 -0.1558
37640W        W80557  25.891  28.624  30.891  0.1238 -0.0204  0.1358
37641W        W80558  27.778  29.492   2.285  0.0612  0.0244 -0.1804
37642W        W80559  25.244  28.710  29.958  0.2383  0.1025  0.0123
37643W        W80560  30.574  26.845   3.640  0.1785  0.0548 -0.1840
37644W        W80561  23.997  27.828   2.295  0.0456 -0.1822 -0.2665
37645W        W80562  26.777  26.823   0.116 -0.0154  0.1714 -0.0214
37646W        W80563  22.408  26.256  31.801 -0.0957 -0.3885 -0.1831
37647W        W80564  28.440  26.320  31.382  0.0724  0.1843 -0.0499
37648W        W80565  27.391  26.914   0.922 -0.0097  0.1236  0.3714
37649W        W80566  26.686  26.265   2.352 -0.0297  0.0090 -0.2119
37650W        W80567  26.878  25.928   0.943 -0.0299  0.3534  0.0251
37651W        W80568  23.289  29.826   2.501  0.0957  0.1030  0.1375
37652W        W80569  27.335  27.738   2.497  0.1284 -0.5026  0.0043
37653W        W80570  27.990  27.270   0.984  0.0321 -0.3057 -0.2797
37654W        W80571  27.528  28.412   2.950  0.2310 -0.1346  0.0250
37655W        W80572  26.022  29.385   3.513  0.1168 -0.0701 -0.0542
37656W        W80573  24.989  24.854   1.635 -0.2209  0.0648 -0.0847
37657W        W80574  28.682  25.940   2.749  0.4034 -0.0732  0.1437
37658W        W80575  26.929  26.661   1.783  0.0872  0.0576  0.2133
37659W        W80576  25.894  29.191   1.346 -0.1193  0.1060  0.0156
37660W        W80577  27.525  31.472   0.621  0.2490 -0.0515  0.0136
37661W        W80578  26.113  26.349   1.047  0.3303  0.0968  0.0295
37662W        W80579  26.767  29.599   2.195 -0.2242 -0.1681  0.1334
37663W        W80580  27.223  27.990   2.954  0.0810  0.0963 -0.2558
37664W        W80581  28.679  29.185   4.434  0.1276 -0.0737  0.2793
37665W        W80582  26.807  27.697   3.077 -0.1139 -0.0931 -0.0698
37666W        W80583  28.594  27.432   2.365 -0.0950  0.3983 -0.1002
37667W        W80584  27.380  25.670   1.583 -0.0797  0.1489 -0.3060
37668W        W80585  28.890  27.075   3.066  0.3392  0.2043  0.0003
37669W        W80586  28.014  28.166   3.073 -0.1858 -0.0806  0.3508
37670W        W80587  27.183  29.096   2.866 -0.2503  0.0145 -0.2087
37671W        W80588  24.789  22.665   1.803 -0.0539  0.1380 -0.0737
37672W        W80589  27.429  29.976  31.833 -0.2920 -0.1282  0.1286
37673W        W80590  27.961  26.269   3.854  0.1005 -0.1257 -0.3813
37674W        W80591  27.322  28.294   1.538  0.0496  0.0737  0.1592
37675W        W80592  25.041  29.103   1.284  0.0183  0.2892 -0.1870
37676W        W80593  26.715  28.851   1.101 -0.2137 -0.1695  0.0843
37677W        W80594  27.521  24.204   1.654 -0.0384  0.1875 -0.1511
37678W        W80595  26.837  30.663   2.086  0.1054 -0.1914 -0.1409
37679W        W80596  25.699  29.424   0.616  0.2894 -0.5893  0.3558
37680W        W80597  24.697  28.919   2.412  0.0394  0.2187  0.1093
37681W        W80598  28.919  25.686   1.670 -0.3279  0.0463  0.3394
37682W        W80599  24.963  28.367   0.619  0.3492  0.2822  0.1590
37683W        W80600  27.930  26.192   1.392 -0.0412  0.1659  0.1851
37684W        W80601  30.270  26.049   3.947 -0.1021  0.0319 -0.1755
37685W        W80602  27.077  27.566   0.068  0.0879 -0.0438 -0.0348
37686W        W80603  26.806  24.810   3.550  0.1466  0.1060 -0.1505
37687W        W80604  24.792  26.411   3.244 -0.2054  0.1579  0.1588
37688W        W80605  27.436  27.818  31.518  0.0375  0.1574  0.4536
37689W        W80606  25.562  24.841   2.717 -0.2327 -0.1591  0.1269
37690W        W80607  27.134  30.365   1.633 -0.0906  0.2446 -0.3528
37691W        W80608  25.747  28.611   3.226  0.3882  0.2060 -0.0063
37692W        W80609  25.858  27.828  31.380  0.1703 -0.1526  0.0407
37693W        W80610  27.728  25.986   0.848  0.1836 -0.0429  0.1985
37694W        W80611  26.810  25.344   1.354  0.1553 -0.1836 -0.1149
37695W        W80612  28.353  27.105   0.626  0.1017  0.1891  0.1826
37696W        W80613  28.637  28.019   1.013  0.1464 -0.0172  0.1103
37697W        W80614  27.800  25.528   1.770 -0.1072 -0.1942 -0.1588
37698W        W80615  25.534  25.951   0.924  0.1052 -0.0795  0.3799
37699W        W80616  27.723  28.001   2.721 -0.0604  0.4241  0.1111
37700W        W80617  26.930  26.259   1.348  0.0631 -0.1303  0.3131
37701W        W80618  25.485  29.302   1.103 -0.3324  0.0549  0.3889
37702W        W80619  29.491  26.368   2.856  0.1084  0.2267 -0.0704
37703W        W80620  28.412  25.631   2.442  0.1110  0.3419 -0.0619
37704W        W80621  28.919  24.647   2.140 -0.0919 -0.0191  0.3228
37705W        W80622  27.397  25.687   3.003 -0.0223 -0.2575  0.2124
37706W        W80623  27.907  24.544   3.688 -0.0531  0.2431  0.1770
37707W        W80624  26.072  28.757   3.605 -0.0402 -0.2045 -0.0634
37708W        W80625  27.260  29.662   2.020 -0.1750 -0.2027 -0.3808
37709W        W80626  27.983  31.257   0.489  0.1224 -0.0150 -0.1085
37710W        W80627  29.875  26.696  31.514 -0.3571 -0.0565  0.1748
37711W        W80628  29.371  25.852   3.923 -0.1898 -0.3163 -0.0433
37712W        W80629  29.476  26.159   1.510 -0.1662  0.2153 -0.0707
37713W        W80630  29.299  27.390   1.978  0.0346  0.0238 -0.1319
37714W        W80631  26.440  27.501   2.613  0.3166  0.1338  0.0731
37715W        W80632  27.879  28.490   3.366  0.2907 -0.0844  0.0742
37716W        W80633  26.385  26.771   0.916 -0.2135 -0.0039  0.0966
37717W        W80634  27.019  25.867   3.712  0.0791 -0.1476 -0.2566
37718W        W80635  26.402  28.409   0.977  0.0675  0.0558 -0.0955
37719W        W80636  28.821  28.334   0.092  0.1992  0.3251 -0.1069
37720W        W80637  28.117  27.270   2.426  0.2147 -0.2919  0.0620
37721W        W80638  25.787  24.494   1.326 -0.0324  0.0141 -0.0724
37722W        W80639  25.856  27.466   2.305 -0.2462  0.1617  0.1428
37723W        W80640  26.289  27.025   0.074 -0.1361 -0.0231  0.1022
37724W        W80641  27.817  27.083  31.587  0.1401  0.3166 -0.0134
37725W        W80642  28.426  27.347   2.875  0.4265 -0.3533 -0.1625
37726W        W80643  25.622  28.915   3.748  0.0775 -0.0494 -0.3088
37727W        W80644  28.610  25.153   0.039 -0.1039  0.1554 -0.0044
37728W        W80645  27.728  27.511   3.394 -0.0525 -0.1024  0.0680
37729W        W80646  24.815  27.607   1.931  0.2623 -0.3515  0.0905
37730W        W80647  27.558  24.626   0.841  0.0399  0.1631  0.1320
37731W        W80648  27.429  30.172   2.106  0.1446 -0.0465 -0.1794
37732W        W80649  26.832  27.904   2.549 -0.1633  0.2634  0.0519
37733W        W80650  25.608  28.270   0.638  0.0880 -0.0215  0.3025
37734W        W80651  28.472  24.947   2.923 -0.1363 -0.0284 -0.4667
37735W        W80652  28.225  29.125   2.903  0.1217 -0.0656  0.0166
37736W        W80653  25.291  28.405   1.069  0.1622 -0.2648  0.1297
37737W        W80654  30.265  26.158   0.941 -0.0208  0.0036  0.1061
37738W        W80655  28.526  29.275   2.563 -0.2507  0.2152  0.1206
37739W        W80656  25.939  25.631   1.631 -0.2363 -0.4324  0.0122
37740W        W80657  27.154  28.676   2.149  0.0500 -0.0822  0.0670
37741W        W80658  30.329  27.642   2.684 -0.3252 -0.1615  0.4788
37742W        W80659  27.541  30.485   0.740  0.0472  0.1449 -0.1008
37743W        W80660  26.218  26.113   1.873  0.0552 -0.0598  0.1774
37744W        W80661  27.383  27.275   4.216  0.1597  0.3015 -0.2682
37745W        W80662  25.864  26.403   3.236 -0.0055 -0.1279  0.0364
37746W        W80663  26.964  25.349   0.777 -0.2914  0.2405 -0.1876
37747W        W80664  25.047  28.852   0.775 -0.0025 -0.0125 -0.0200
37748W        W80665  27.990  26.098   2.475  0.0557  0.1608  0.2497
37749W        W80666  23.927  28.385   2.923 -0.0520  0.1764 -0.1051
37750W        W80667  25.030  30.355   2.003 -0.0158  0.3225  0.1078
37751W        W80668  27.855  26.893   0.608 -0.1195 -0.0495 -0.0403
37752W        W80669  27.179  29.644   1.143  0.1330  0.0471 -0.0832
37753W        W80670  26.722  30.854   1.581  0.0279 -0.1443 -0.0943
37754W        W80671  26.851  25.718  31.838 -0.1500 -0.3319 -0.2777
37755W        W80672  22.998  30.200   2.479  0.4367 -0.0866 -0.1191
37756W        W80673  25.529  28.549   2.025  0.4398  0.0642 -0.1786
37757W        W80674  29.316  29.888  31.696  0.1169 -0.0343 -0.2732
37758W        W80675  25.168  28.387   1.657  0.0365  0.0678  0.1406
37759W        W80676  29.029  28.639   1.901  0.1647  0.1088  0.0671
37760W        W80677  27.202  24.953   0.027  0.1461  0.0499  0.0583
37761W        W80678  27.830  27.591  31.285 -0.1144 -0.2223 -0.0186
37762W        W80679  28.800  24.293   1.242 -0.0824  0.0317 -0.1900
37763W        W80680  27.789  30.019   3.744  0.0040  0.0721 -0.0454
37764W        W80681  28.160  27.859   1.646 -0.4413 -0.2976 -0.1410
37765W        W80682  27.654  26.566   1.764  0.1618 -0.0180  0.2479
37766W        W80683  25.439  26.592   2.346 -0.0810 -0.4034  0.1160
37767W        W80684  29.598  26.555   3.281 -0.2232  0.3991 -0.2773
37768W        W80685  25.622  30.868   3.289  0.0247  0.1117  0.0711
37769W        W80686  29.172  30.178   0.570 -0.2483  0.3673 -0.0653
37770W        W80687  25.222  25.853   0.526  0.0784 -0.1495  0.2024
37771W        W80688  23.462  27.007   1.467  0.0625 -0.2671 -0.0893
37772W        W80689  28.941  24.543   2.750 -0.0326 -0.0367  0.0109
37773W        W80690  27.014  27.201   0.930  0.2162  0.3098 -0.0733
37774W        W80691  28.689  24.780   1.394 -0.0842 -0.2394 -0.4117
37775W        W80692  26.303  27.518   2.125  0.1487  0.1506  0.0462
37776W        W80693  26.657  28.620   2.003  0.1394 -0.1220  0.1974
37777W        W80694  27.042  28.594   2.869 -0.0577  0.0678 -0.1341
37778W        W80695  24.075  25.114   0.703  0.0905  0.1460  0.0240
37779W        W80696  30.347  26.599   1.285  0.1844 -0.1389 -0.2320
37780W        W80697  28.784  26.710   2.735  0.2133 -0.0970  0.0994
37781W        W80698  28.086  24.059   3.542 -0.0603  0.1092  0.0956
37782W        W80699  25.982  26.594   1.624  0.0628  0.0841 -0.0062
37783W        W80700  28.461  24.273   0.692 -0.1286 -0.3502 -0.4109
37784W        W80701  27.460  27.612   0.851  0.1009  0.2710  0.1423
37785W        W80702  26.350  26.547   0.489 -0.1070 -0.2957  0.0713
37786W        W80703  27.864  28.211  31.667  0.0753 -0.0129 -0.3059
37787W        W80704  28.961  28.297   3.682  0.0305  0.0750  0.0655
37788W        W80705  27.999  26.593  30.265 -0.0323  0.0085 -0.1532
37789W        W80706  28.981  30.174   1.116 -0.2807  0.5306  0.0113
37790W        W80707  26.724  25.018   0.039 -0.0370 -0.0349 -0.3917
37791W        W80708  28.718  27.358   0.962  0.1054 -0.3313  0.2460
37792W        W80709  26.034  27.340   1.250  0.2367  0.0583 -0.3537
37793W        W80710  25.916  28.340   2.375  0.0821  0.1413 -0.1905
37794W        W80711  28.983  29.375   1.430 -0.0604 -0.0549 -0.0458
37795W        W80712  25.371  24.954   1.243  0.0226  0.0815 -0.1310
37796W        W80713  28.720  28.643  30.594  0.3127 -0.0879  0.0405
37797W        W80714  29.148  27.769   1.550 -0.0396  0.0679  0.1024
37798W        W80715  28.041  30.944   0.970 -0.1046 -0.1360 -0.1056
37799W        W80716  28.155  28.695  31.707 -0.1993 -0.0306 -0.2023
37800W        W80717  26.788  30.725   0.408 -0.0715  0.1831 -0.0668
37801W        W80718  27.268  26.894   2.126  0.0226  0.1676  0.0331
37802W        W80719  26.599  29.453   3.144 -0.0841 -0.1046  0.6637
37803W        W80720  28.205  30.435   1.645  0.1300  0.0276  0.2537
37804W        W80721  27.648  25.108   2.198 -0.0276  0.0976 -0.0132
37805W        W80722  25.144  26.248   1.177  0.0249 -0.2376  0.1008
37806W        W80723  25.358  26.638   1.436  0.0071 -0.0324  0.0667
37807W        W80724  29.348  26.036   2.456  0.1781 -0.0238 -0.0795
37808W        W80725  27.821  26.242   2.934 -0.0222  0.2780 -0.0925
37809W        W80726  27.645  30.947  31.858  0.0077  0.2000 -0.0762
37810W        W80727  28.834  27.153   2.007  0.0313  0.0898  0.2033
37811W        W80728  26.043  28.012   4.689 -0.0282  0.0190 -0.2971
37812W        W80729  24.233  29.348   3.410  0.2749  0.1862 -0.1124
37813W        W80730  26.202  28.003   0.283  0.1128  0.1269 -0.1305
37814W        W80731  27.545  28.365   2.018 -0.0221  0.3745 -0.2250
37815W        W80732  27.121  29.175   1.930  0.1849 -0.1363 -0.0823
37816W        W80733  27.672  29.536   0.813 -0.2823 -0.0763 -0.1034
37817W        W80734  27.605  28.998   2.131 -0.1216  0.2800  0.1885
37818W        W80735  28.625  25.663   0.184  0.1286 -0.2569 -0.0943
37819W        W80736  29.320  29.455   0.008 -0.0429 -0.1368 -0.0440
37820W        W80737  24.732  26.410   0.685 -0.1309 -0.1300 -0.0100
37821W        W80738  30.706  25.869   1.134 -0.2026  0.3076  0.4138
37822W        W80739  27.264  25.661   1.065  0.0082 -0.0330 -0.1010
37823W        W80740  26.476  28.443   3.714 -0.3872 -0.0974  0.2387
37824W        W80741  21.561  26.535   1.871 -0.0023  0.0643 -0.0889
37825W        W80742  25.224  27.966   0.722  0.1093  0.0980  0.0456
37826W        W80743  25.465  27.392   2.052  0.0897 -0.1569 -0.2580
37827W        W80744  26.677  23.360   3.464  0.0043  0.0001  0.0425
37828W        W80745  26.191  25.231   2.012  0.2209  0.0659  0.0283
37829W        W80746  25.622  26.905   2.044 -0.3186  0.1393 -0.1526
37830W        W80747  23.365  28.651   2.039  0.1080 -0.2091  0.0483
37831W        W80748  27.248  28.914   0.765 -0.0045 -0.2775  0.0655
37832W        W80749  27.792  26.762   2.660  0.0079  0.0499 -0.1676
37833W        W80750  23.600  23.889   0.002 -0.1267 -0.0452  0.4033
37834W        W80751  27.835  29.060  31.509 -0.1707  0.0203 -0.0597
37835W        W80752  27.369  27.806   2.004  0.1102 -0.3140 -0.0719
37836W        W80753  27.894  25.445   0.701 -0.1664 -0.3900 -0.0354
37837W        W80754  29.195  29.615   1.885  0.0071  0.5481 -0.0246
37838W        W80755  24.596  27.921   1.522  0.0038  0.1855  0.1870
37839W        W80756  26.775  25.945   3.223  0.0259 -0.1307  0.2352
37840W        W80757  26.211  26.099   2.360  0.0664  0.0725  0.0709
37841W        W80758  24.713  25.137  30.833  0.1495 -0.0951 -0.1484
37842W        W80759  26.723  26.199   1.875 -0.0400  0.1477  0.0835
37843W        W80760  27.845  30.036   0.938 -0.1545  0.0120  0.1889
37844W        W80761  28.914  31.006   2.161  0.3488 -0.1310  0.0113
37845W        W80762  27.390  29.927   1.519 -0.3529 -0.1797  0.1112
37846W        W80763  25.854  29.410   2.475 -0.0138 -0.5307  0.1769
37847W        W80764  25.357  23.819   2.992  0.0770  0.0696  0.0251
37848W        W80765  28.390  27.679   0.753  0.0338  0.2069  0.0864
37849W        W80766  27.868  30.026   2.341 -0.1404  0.1328 -0.1870
37850W        W80767  27.373  28.656   0.303 -0.1631 -0.2664  0.3052
37851W        W80768  29.504  25.793   2.859  0.0721  0.0377  0.1332
37852W        W80769  27.610  29.130   1.162  0.0437  0.0691 -0.2330
37853W        W80770  23.089  24.723   2.809 -0.0915  0.2868  0.0791
37854W        W80771  26.773  28.404   2.430 -0.2149  0.1697  0.0414
37855W        W80772  27.951  28.765   1.886 -0.0106 -0.1262 -0.1707
37856W        W80773  25.531  26.387   1.894  0.0560 -0.0765  0.1559
37857W        W80774  27.738  26.437   1.036  0.0663  0.1154 -0.1540
37858W        W80775  29.465  29.388  31.449  0.0822 -0.2089  0.0128
37859W        W80776  25.706  27.032   1.584 -0.1305  0.1546  0.0521
37860W        W80777  26.425  26.345   1.490 -0.0974  0.1700  0.2868
37861W        W80778  27.833  27.926   2.140 -0.0398  0.0489  0.1626
37862W        W80779  28.709  28.716  31.804  0.3370 -0.1382  0.2738
37863W        W80780  28.161  28.215   1.265  0.2224 -0.2092 -0.0766
37864W        W80781  27.747  28.667   0.976  0.1753 -0.2807  0.1163
37865W        W80782  28.050  28.124   0.294  0.1184 -0.0613 -0.0378
37866W        W80783  27.447  28.752   3.284  0.1570 -0.2558  0.0265
37867W        W80784  28.862  29.440   4.852  0.1011  0.4006 -0.0679
37868W        W80785  26.766  28.859   4.264  0.2447  0.0004  0.0574
37869W        W80786  29.120  27.983   2.017 -0.2718 -0.1998 -0.2000
37870W        W80787  26.182  24.347  30.608  0.1358  0.3363  0.1289
37871W        W80788  26.859  28.250   1.263  0.0723 -0.0767  0.0241
37872W        W80789  26.330  27.819   2.955  0.0906  0.2462 -0.2157
37873W        W80790  26.897  27.635   3.940 -0.1724  0.1041  0.0575
37874W        W80791  27.390  24.835   2.758 -0.0848  0.0887 -0.1869
37875W        W80792  28.866  25.851   2.247 -0.1443 -0.3044 -0.1584
37876W        W80793  25.827  30.985   2.075  0.1173  0.7159  0.3749
37877W        W80794  26.975  28.192   2.039 -0.1900 -0.2085 -0.1435
37878W        W80795  27.735  27.476   6.046  0.1047  0.0753 -0.0600
37879W        W80796  27.938  25.598   4.705  0.1532  0.1050  0.0205
37880W        W80797  27.401  26.419   2.682 -0.0317 -0.1007  0.2009
37881W        W80798  27.045  26.877   3.529 -0.0126  0.1753  0.1348
37882W        W80799  26.792  25.214   5.762 -0.4737  0.0095  0.1684
37883W        W80800  29.590  27.599   5.047  0.0962 -0.1969  0.1932
37884W        W80801  26.221  25.952   6.113  0.1299 -0.0544  0.0941
37885W        W80802  28.764  26.078   4.829 -0.1357 -0.0114  0.0014
37886W        W80803  29.735  28.860   5.500  0.0521  0.1559  0.3497
37887W        W80804  29.143  26.847   4.361 -0.0537 -0.0873  0.0353
37888W        W80805  27.436  26.992   7.358  0.0171  0.0538 -0.0903
37889W        W80806  28.132  29.895   6.547  0.0769 -0.0959  0.0393
37890W        W80807  27.057  26.676   3.027 -0.0090 -0.1694 -0.2478
37891W        W80808  28.125  25.684   5.242  0.2647  0.3197  0.2506
37892W        W80809  28.273  26.179   5.810  0.0483  0.2203 -0.1713
37893W        W80810  26.125  28.838   5.064  0.1804  0.2195 -0.1110
37894W        W80811  28.950  25.256   5.087  0.1344  0.3932  0.2786
37895W        W80812  27.323  25.276   4.697  0.0171  0.0116  0.1347
37896W        W80813  28.351  30.353   7.223  0.3414  0.1390  0.1281
37897W        W80814  27.273  25.559   5.846  0.1041 -0.7327  0.1766
37898W        W80815  28.336  23.816   4.618  0.0580  0.2003  0.1174
37899W        W80816  26.551  27.852   3.518 -0.3031 -0.3156  0.1027
37900W        W80817  26.955  26.585   4.379  0.1171  0.1105 -0.0724
37901W        W80818  26.230  27.250   5.643 -0.1603  0.1376  0.0025
37902W        W80819  26.640  27.503   8.861 -0.2645 -0.0853  0.1295
37903W        W80820  27.585  26.404   4.824 -0.0694  0.0618  0.1313
37904W        W80821  29.235  27.858   3.165 -0.2316  0.1862 -0.3038
37905W        W80822  26.350  28.685   6.505 -0.0235 -0.0754 -0.0575
37906W        W80823  27.220  27.920   4.175 -0.0808  0.2301 -0.1491
37907W        W80824  28.339  26.694   6.128 -0.1200 -0.2131  0.1379
37908W        W80825  25.652  29.100   3.289 -0.1833  0.1261  0.1058
37909W        W80826  25.292  28.260   5.936 -0.1148 -0.2689 -0.1600
37910W        W80827  27.845  27.958   5.147  0.0810 -0.0159 -0.0386
37911W        W80828  28.836  28.137   6.005  0.1396 -0.0749 -0.2029
37912W        W80829  29.096  26.829   5.683 -0.4244 -0.5315  0.1081
37913W        W80830  28.949  28.943   9.176 -0.2134 -0.0932 -0.0830
37914W        W80831  26.597  27.447   5.233 -0.3728 -0.0952 -0.0070
37915W        W80832  28.156  28.544   7.615  0.1438 -0.2378 -0.0902
37916W        W80833  25.871  29.585   7.577  0.0800 -0.1794 -0.0288
37917W        W80834  26.534  26.246   5.876  0.3408  0.0557 -0.0590
37918W        W80835  29.855  28.546   3.449  0.4949  0.0048  0.0395
37919W        W80836  25.502  28.930   4.648  0.0026  0.0932 -0.2721
37920W        W80837  27.388  27.780   4.670 -0.1669 -0.4262 -0.0258
37921W        W80838  27.832  26.732   7.018 -0.1783  0.1169 -0.0551
37922W        W80839  25.472  28.865   6.510  0.0985 -0.0736 -0.2235
37923W        W80840  30.073  27.760   6.371  0.3173 -0.0503 -0.1555
37924W        W80841  26.136  28.294   4.120 -0.0415 -0.2136  0.2503
37925W        W80842  28.322  27.053   3.959  0.0876  0.2705  0.1358
37926W        W80843  27.630  25.161   6.055  0.1414  0.2412 -0.0472
37927W        W80844  29.058  26.168   3.470  0.1893  0.2076 -0.0795
37928W        W80845  28.365  22.860   5.524  0.1067  0.1428 -0.0928
37929W        W80846  25.893  29.249   4.024  0.0479 -0.0703 -0.0599
37930W        W80847  27.088  25.152   6.170  0.1325 -0.0875  0.2093
37931W        W80848  26.941  26.709   7.069  0.1340  0.1393 -0.0548
37932W        W80849  27.669  27.716   4.284  0.3336  0.0231 -0.1349
37933W        W80850  27.881  24.940   4.036 -0.0265  0.1463  0.0581
37934W        W80851  25.838  28.238   6.765 -0.1213  0.0782 -0.0197
37935W        W80852  25.376  27.084   3.739 -0.0723  0.2055 -0.1609
37936W        W80853  28.677  29.196   3.368 -0.0035 -0.1124 -0.0671
37937W        W80854  28.107  29.680   2.652  0.1983  0.2761  0.0667
37938W        W80855  28.103  28.275   1.868  0.1355  0.0396 -0.1495
37939W        W80856  25.498  27.565   3.587  0.2268  0.2664  0.0185
37940W        W80857  27.949  26.263   6.902 -0.0823  0.2380  0.3244
37941W        W80858  26.972  27.523   4.460 -0.3481  0.1016  0.4544
37942W        W80859  26.522  25.804   2.158  0.0107 -0.0955  0.0486
37943W        W80860  28.707  27.438   6.650 -0.3955  0.1450 -0.2566
37944W        W80861  26.101  27.829   7.660  0.1745 -0.2883  0.0101
37945W        W80862  29.708  25.837   4.982 -0.0425 -0.2682 -0.0579
37946W        W80863  26.740  26.453   3.363  0.2396  0.1137  0.0286
37947W        W80864  28.547  28.343   4.484  0.0436  0.2365 -0.1134
37948W        W80865  28.604  27.938   3.927 -0.1811  0.0175 -0.0772
37949W        W80866  28.752  25.791   5.201  0.1045 -0.0437  0.3903
37950W        W80867  28.232  25.995   4.802  0.1386 -0.0546 -0.0968
37951W        W80868  25.997  26.435   2.735  0.0162  0.0823 -0.3456
37952W        W80869  27.894  29.604   4.450 -0.0499  0.0545 -0.0156
37953W        W80870  29.156  27.816   6.237  0.3139  0.1223  0.4893
37954W        W80871  27.801  27.414   3.964  0.0061  0.0703  0.2761
37955W        W80872  27.013  26.002   6.035 -0.2695  0.0743 -0.0164
37956W        W80873  27.603  26.857   5.574 -0.3606  0.0949 -0.1469
37957W        W80874  28.494  28.991   6.818 -0.2505  0.1231 -0.3510
37958W        W80875  26.178  28.650   2.928  0.0621 -0.2577 -0.1577
37959W        W80876  23.262  28.077   5.408  0.0068 -0.0030 -0.0268
37960W        W80877  25.412  28.422   2.565  0.1127 -0.2040 -0.0813
37961W        W80878  24.849  25.979   6.214  0.0221  0.1089  0.2132
37962W        W80879  26.720  27.213   5.675 -0.1222 -0.1509 -0.3996
37963W        W80880  28.196  25.024   4.560 -0.0675 -0.0176  0.0831
37964W        W80881  26.684  26.067   6.386  0.0740  0.2562 -0.0887
37965W        W80882  28.139  26.473   5.040  0.0762  0.0673  0.2950
37966W        W80883  25.122  27.435   4.051  0.0402 -0.0198 -0.0422
37967W        W80884  25.696  28.861   5.368  0.1220 -0.1278  0.0485
37968W        W80885  27.816  25.058   3.538 -0.1976 -0.0015  0.2037
37969W        W80886  29.122  29.346   3.789 -0.0739  0.1219 -0.3043
37970W        W80887  22.945  25.189   4.855 -0.1619 -0.0857  0.1296
37971W        W80888  27.643  25.953   4.517  0.0765 -0.0907 -0.0597
37972W        W80889  27.054  27.181   6.750  0.1620  0.0308  0.0173
37973W        W80890  27.768  26.014   5.053  0.0243  0.0482  0.0364
37974W        W80891  28.342  26.098   7.244  0.0488 -0.1035  0.0483
37975W        W80892  25.314  25.274   5.732  0.2356 -0.1498  0.0413
37976W        W80893  28.247  24.379   7.377 -0.1208  0.3537 -0.0474
37977W        W80894  26.266  26.186   5.022  0.1312  0.4311 -0.0526
37978W        W80895  25.680  27.180   3.258 -0.0605 -0.0767  0.2416
37979W        W80896  26.998  25.851   6.766  0.0028  0.3204 -0.2231
37980W        W80897  27.504  31.495   3.890  0.0922  0.1502  0.1289
37981W        W80898  28.868  26.510   6.809  0.0433  0.3340  0.1549
37982W        W80899  28.182  28.502   5.191  0.2419  0.2872 -0.1450
37983W        W80900  27.311  27.519   6.285  0.0722 -0.1965 -0.1472
37984W        W80901  26.485  25.066   1.565  0.3437  0.1837  0.0499
37985W        W80902  25.528  27.886   5.693 -0.0154  0.0021  0.0758
37986W        W80903  27.712  27.194   6.783 -0.0409 -0.0803  0.2046
37987W        W80904  25.537  25.847   1.831 -0.0600 -0.1919 -0.4310
37988W        W80905  28.859  28.570   6.781 -0.2008  0.2167 -0.0345
37989W        W80906  28.225  29.259   4.231  0.2703 -0.0143 -0.1776
37990W        W80907  28.489  26.975   5.622 -0.0969  0.3575 -0.2325
37991W        W80908  29.088  25.942   4.340  0.1155  0.1129  0.1804
37992W        W80909  30.591  28.553   5.213 -0.4619  0.0782 -0.0305
37993W        W80910  27.658  24.772   5.577 -0.0868  0.0032 -0.3475
37994W        W80911  25.209  25.924   2.156  0.1537  0.3071 -0.0523
37995W        W80912  28.298  28.145   4.834 -0.4375 -0.2232 -0.1705
37996W        W80913  26.020  28.128   5.259  0.2194 -0.0769 -0.2238
37997W        W80914  26.536  26.444   4.662 -0.1190 -0.1270  0.0880
37998W        W80915  27.090  29.623   4.521 -0.0091 -0.3546 -0.2131
37999W        W80916  28.865  25.164   6.531  0.1826  0.0936  0.0545
38000W        W80917  24.534  25.664   5.779  0.0192 -0.3359 -0.0026
38001W        W80918  26.344  26.659   3.057  0.0266 -0.1693 -0.3645
38002W        W80919  26.794  26.105   5.018 -0.1773  0.0467 -0.0374
38003W        W80920  26.616  26.759   7.457  0.2206 -0.0112 -0.1413
38004W        W80921  27.457  26.406   4.294  0.0189  0.0065  0.0839
38005W        W80922  27.474  25.943   2.530 -0.2424 -0.0708  0.0964
38006W        W80923  27.379  26.772   6.826 -0.3251 -0.1518 -0.1277
38007W        W80924  26.995  27.253   3.005 -0.1202 -0.0981 -0.0719
38008W        W80925  28.171  25.289   2.043 -0.3356  0.1748 -0.1190
38009W        W80926  26.784  24.083   4.395 -0.1321 -0.0152  0.0308
38010W        W80927  25.981  27.301   7.407 -0.0420 -0.1220 -0.0900
38011W        W80928  26.407  27.477   3.844 -0.0467  0.0664  0.1283
38012W        W80929  27.960  27.170   5.528 -0.2351 -0.0185 -0.0623
38013W        W80930  27.199  26.190   3.087  0.2534 -0.0100  0.1479
38014W        W80931  28.385  28.626   3.288  0.1576  0.1995  0.1981
38015W        W80932  24.937  27.899   5.789 -0.0504  0.1320  0.1655
38016W        W80933  28.465  26.814   7.462 -0.0834 -0.0037 -0.0512
38017W        W80934  28.513  29.002   4.856 -0.4563 -0.1934  0.1501
38018W        W80935  26.281  26.577   3.567  0.0705  0.1314  0.0187
38019W        W80936  26.417  26.577   1.950  0.1389  0.0551 -0.1452
38020W        W80937  28.097  27.793   5.923  0.3286 -0.0773  0.0674
38021W        W80938  26.404  28.727   2.449 -0.1075  0.1987 -0.1451
38022W        W80939  28.147  24.201   5.932 -0.0223 -0.1099  0.3155
38023W        W80940  27.807  24.304   7.149 -0.0372 -0.1212 -0.0367
38024W        W80941  27.235  25.446   7.750  0.4305  0.0516  0.2740
38025W        W80942  29.191  27.019   5.045  0.4397 -0.1447  0.1490
38026W        W80943  27.043  28.698   3.736  0.0535  0.1911  0.0739
38027W        W80944  26.414  25.447   4.502 -0.2877 -0.2571  0.0317
38028W        W80945  26.760  26.346   2.865  0.3181 -0.0932  0.4652
38029W        W80946  30.249  25.692   7.527  0.2527 -0.2143  0.1895
38030W        W80947  26.000  26.861   6.479  0.0357 -0.0824  0.1685
38031W        W80948  27.303  28.465   5.794 -0.1009  0.1403  0.3406
38032W        W80949  28.713  26.934   7.069  0.1619 -0.1090  0.2920
38033W        W80950  27.826  26.877   5.088 -0.1502  0.0406 -0.2879
38034W        W80951  26.733  25.715   5.797  0.1874  0.1921 -0.1888
38035W        W80952  26.500  27.028   3.683  0.1737 -0.2342 -0.1217
38036W        W80953  26.611  28.976   3.796 -0.4135  0.1435 -0.0092
38037W        W80954  28.332  28.371   3.927  0.0627 -0.2555  0.0198
38038W        W80955  27.105  25.273   5.114  0.2630  0.1726 -0.1260
38039W        W80956  29.434  26.295   4.660 -0.1665  0.0849  0.1573
38040W        W80957  26.451  27.583   4.685  0.3126 -0.1438 -0.1423
38041W        W80958  29.901  27.002   6.970  0.0975 -0.0592  0.0522
38042W        W80959  24.354  28.614   3.897 -0.2374  0.2422 -0.0949
38043W        W80960  28.055  24.732   3.156  0.2141  0.1033 -0.1231
38044W        W80961  25.752  29.743   4.880  0.0827  0.0003 -0.3306
38045W        W80962  27.130  24.962   2.177 -0.1467  0.0686  0.0040
38046W        W80963  25.708  27.351   4.158 -0.3934  0.0836  0.2274
38047W        W80964  28.772  26.642   3.390 -0.1424 -0.1230 -0.1859
38048W        W80965  27.023  29.080   4.589  0.1647  0.1173 -0.1163
38049W        W80966  26.226  25.983   6.710  0.2397  0.0123 -0.0090
38050W        W80967  26.778  24.950   5.326  0.0373  0.1419 -0.0929
38051W        W80968  25.974  30.451   6.223 -0.2027 -0.1127  0.3035
38052W        W80969  26.568  27.277   4.318  0.2089  0.0368  0.0317
38053W        W80970  27.897  25.804   3.747  0.2538  0.1291  0.2377
38054W        W80971  29.597  26.206   5.867 -0.4102 -0.3244  0.0612
38055W        W80972  28.047  26.481   7.469  0.2097 -0.0283  0.0886
38056W        W80973  24.232  25.031   2.814 -0.1779 -0.0614  0.0841
38057W        W80974  31.381  26.618   6.509  0.3080 -0.1354  0.0488
38058W        W80975  27.178  26.085   4.648  0.0384  0.1375 -0.0119
38059W        W80976  26.149  27.983   3.747  0.0222 -0.1582 -0.2155
38060W        W80977  29.590  27.205   4.601  0.2717  0.0831  0.1114
38061W        W80978  25.940  27.482   2.875  0.2214 -0.0419 -0.1637
38062W        W80979  27.314  29.585   5.413  0.0093  0.4218  0.0269
38063W        W80980  28.120  25.312   6.055 -0.1651  0.0436  0.0345
38064W        W80981  28.943  27.131   8.378  0.1749  0.2810 -0.0663
38065W        W80982  27.526  25.937   6.647 -0.2741  0.1331 -0.0591
38066W        W80983  26.069  25.318   4.170  0.1448  0.0317 -0.0283
38067W        W80984  28.059  25.919   4.236 -0.3403  0.1121  0.1435
38068W        W80985  28.796  26.751   5.233  0.0861  0.1762  0.1053
38069W        W80986  29.249  25.767   5.944 -0.2500 -0.0719 -0.1596
38070W        W80987  27.240  28.604   7.417  0.0363 -0.0360  0.0849
38071W        W80988  27.626  24.068   6.664 -0.0643  0.2296 -0.0087
38072W        W80989  29.385  30.200   5.394 -0.0037  0.0459  0.1457
38073W        W80990  27.391  27.892   5.945  0.1280  0.4119 -0.2143
38074W        W80991  27.803  27.395   5.082  0.2168  0.0757 -0.2796
38075W        W80992  24.992  27.333   6.428 -0.0063  0.2206 -0.1815
38076W        W80993  27.340  27.291   3.695  0.0450 -0.4008  0.0641
38077W        W80994  28.346  24.829   6.190  0.0988  0.0153  0.1097
38078W        W80995  28.344  27.343   5.924 -0.0315  0.1059 -0.1410
38079W        W80996  25.818  27.561   4.775  0.0774 -0.1312  0.2753
38080W        W80997  25.461  28.287   8.351 -0.3141  0.2770  0.1118
38081W        W80998  30.911  26.090   3.309  0.0889 -0.1531 -0.0851
38082W        W80999  28.047  29.188   4.761  0.1198  0.0126 -0.0338
38083W        W81000  27.221  24.755   5.168 -0.1132 -0.1237  0.3130
38084W        W81001  30.050  26.215   6.084  0.3156 -0.0284 -0.2661
38085W        W81002  26.976  27.311   2.475  0.1188 -0.0362 -0.1779
38086W        W81003  27.220  24.236   5.503  0.0539 -0.2143 -0.0464
38087W        W81004  26.611  24.528   6.587  0.0242 -0.3350  0.2426
38088W        W81005  29.260  27.206   3.866  0.2483  0.1353 -0.0887
38089W        W81006  25.443  27.230   5.120 -0.0274 -0.1608  0.2445
38090W        W81007  28.271  28.083   6.925  0.0658 -0.0609 -0.3435
38091W        W81008  26.238  26.466   5.464  0.0037  0.3523  0.1032
38092W        W81009  28.970  25.146   3.898  0.3405  0.0918  0.1300
38093W        W81010  27.585  25.180   0.972 -0.0743 -0.1349 -0.2753
38094W        W81011  26.450  27.697   5.682 -0.0512  0.0962  0.1879
38095W        W81012  28.669  27.476   4.267  0.1547  0.1190  0.2539
38096W        W81013  26.676  28.999   2.912 -0.1641 -0.0773  0.3619
38097W        W81014  29.914  26.390   4.029  0.2257  0.0366  0.0330
38098W        W81015  27.301  26.173   5.121 -0.2508 -0.2865 -0.1685
38099W        W81016  28.264  26.554   3.560  0.1382  0.0836  0.1109
38100W        W81017  27.234  26.747   3.984  0.2091  0.0834 -0.3316
38101W        W81018  26.886  26.595   5.893  0.0377 -0.0932 -0.0353
38102W        W81019  26.887  26.408   5.448  0.0318 -0.0313  0.0582
38103W        W81020  30.327  26.543   5.717  0.1136 -0.0896  0.0751
38104W        W81021  29.638  24.607   5.263  0.1670  0.1327 -0.4550
38105W        W81022  28.823  26.984   6.029  0.2468  0.1627  0.0849
38106W        W81023  29.160  25.184   5.558 -0.1073  0.0700  0.4192
38107W        W81024  26.266  24.549   5.259 -0.0913 -0.0455  0.1237
38108W        W81025  24.933  25.210   7.233  0.2826 -0.1417 -0.0674
38109W        W81026  29.275  29.673   4.556 -0.1624 -0.0766  0.0368
38110W        W81027  29.578  27.564   2.395 -0.0236  0.1992 -0.1706
38111W        W81028  28.666  26.511   5.821  0.1535  0.3439  0.1696
38112W        W81029  28.625  27.432   3.332 -0.2144 -0.0195 -0.4125
38113W        W81030  28.101  26.076   3.387  0.0131  0.1939 -0.1270
38114W        W81031  28.111  26.602   5.559  0.3415 -0.1487 -0.0817
38115W        W81032  29.049  27.377   5.725  0.0705  0.4873  0.2100
38116W        W81033  25.641  26.650   3.573  0.1206  0.0643 -0.1315
38117W        W81034  30.575  26.161   6.048  0.0750  0.1163 -0.0794
38118W        W81035  27.853  29.546   3.290 -0.2281  0.1435  0.1869
38119W        W81036  28.230  27.271   4.348 -0.0750  0.1991  0.0134
38120W        W81037  29.076  27.962   5.069 -0.2578  0.1564  0.2685
38121W        W81038  25.932  26.893   5.464  0.1630 -0.0465  0.2499
38122W        W81039  27.147  28.943   7.751  0.0076  0.0314 -0.3462
38123W        W81040  25.946  26.591   4.005  0.2540  0.1281 -0.0814
38124W        W81041  28.206  25.846   2.877 -0.0607  0.1363 -0.2588
38125W        W81042  30.749  26.263   5.535 -0.2631  0.0253  0.0106
38126W        W81043  26.180  27.939   8.133 -0.0257 -0.1864  0.1110
38127W        W81044  27.701  24.945   4.573 -0.3308 -0.1162  0.2222
38128W        W81045  29.782  27.075   6.167 -0.1458  0.0803  0.1666
38129W        W81046  26.123  27.631   4.229  0.1726  0.0438 -0.1703
38130W        W81047  29.762  24.649   5.775 -0.2614  0.0713 -0.2051
38131W        W81048  26.891  28.333   6.385  0.0126 -0.0945 -0.1299
38132W        W81049  27.318  27.866   5.242 -0.1947  0.1964 -0.0457
38133W        W81050  27.587  28.212   4.400  0.0110  0.0391  0.0745
38134W        W81051  28.128  24.667   4.945 -0.0732 -0.0460  0.1482
38135W        W81052  27.620  25.714   5.399 -0.1281  0.4106 -0.0522
38136W        W81053  26.444  26.787   4.171  0.2451  0.5063 -0.0763
38137W        W81054  31.472  25.985   4.961  0.2483 -0.2329 -0.3197
38138W        W81055  28.014  26.867   6.587 -0.0391 -0.3306  0.1694
38139W        W81056  27.407  26.176   6.180 -0.0484 -0.0250 -0.3301
38140W        W81057  29.084  27.317   7.102 -0.1246  0.1413  0.0545
38141W        W81058  29.400  26.601   6.068 -0.3899 -0.0371 -0.1560
38142W        W81059  27.758  29.169   3.936 -0.0471 -0.1274  0.1743
38143W        W81060  24.614  24.601   6.041 -0.2996 -0.1081 -0.0017
38144W        W81061  27.613  25.433   7.368 -0.1339 -0.1939 -0.1847
38145W        W81062  28.723  27.058   4.805 -0.0958 -0.0344  0.0347
38146W        W81063  25.897  24.315   4.373 -0.0948 -0.0931  0.0358
38147W        W81064  26.494  29.440   3.722 -0.1916  0.2536  0.0416
38148W        W81065  26.915  29.243   5.500  0.0715 -0.0320 -0.0031
38149W        W81066  24.574  27.252   4.117  0.2917 -0.0105  0.1023
38150W        W81067  26.303  28.377   4.930  0.0417 -0.1803  0.1610
38151W        W81068  26.379  27.989   6.370 -0.3393 -0.0086  0.0677
38152W        W81069  28.542  26.597   4.730 -0.1881 -0.0973  0.1124
38153W        W81070  28.015  30.068   4.803  0.2984  0.0204  0.1564
38154W        W81071  28.389  24.885   4.085  0.1289  0.1610  0.3199
38155W        W81072  26.933  28.097   5.856  0.1370 -0.1859 -0.1702
38156W        W81073  27.307  27.001   2.667 -0.0225  0.1206 -0.2811
38157W        W81074  27.445  30.457   3.395  0.1106  0.0479 -0.1778
38158W        W81075  25.577  29.138   2.783  0.1741 -0.0825  0.0753
38159W        W81076  27.922  28.638   8.149  0.0545  0.0146  0.1502
38160W        W81077  27.903  25.486   2.403  0.4286 -0.0675 -0.0866
38161W        W81078  28.311  27.472   3.711  0.0786  0.2397 -0.1520
38162W        W81079  29.138  25.084   4.554  0.0126  0.1330  0.1156
38163W        W81080  26.779  28.748   8.384 -0.0386  0.0240  0.0602
38164W        W81081  27.342  26.272   5.693  0.1754 -0.1742  0.2105
38165W        W81082  29.321  27.817   3.689  0.1996  0.0542  0.1332
38166W        W81083  25.848  29.172   7.347  0.3003  0.2190  0.1149
38167W        W81084  30.464  25.463   5.571 -0.2275 -0.1416 -0.1148
38168W        W81085  26.898  27.642   6.976  0.1740 -0.0090  0.1587
38169W        W81086  27.462  29.281   4.333 -0.1869  0.4330 -0.1322
38170W        W81087  26.408  25.205   6.057  0.1923  0.1138  0.0964
38171W        W81088  27.133  26.895   5.526  0.0471 -0.0872  0.0826
38172W        W81089  28.481  25.468   4.861 -0.2241  0.0045 -0.0595
38173W        W81090  26.624  29.155   2.058  0.1316 -0.0766 -0.1004
38174W        W81091  27.558  26.797   4.535  0.3190  0.0848  0.1427
38175W        W81092  26.589  28.373   4.410 -0.3075 -0.1021  0.0614
38176W        W81093  26.048  27.153   5.096  0.2092 -0.3365  0.0664
38177W        W81094  26.488  28.262   5.885  0.0615  0.0451 -0.3804
38178W        W81095  27.545  26.641   3.092  0.2095 -0.1432  0.0622
38179W        W81096  27.925  27.773   4.697  0.0214 -0.3665 -0.2831
38180W        W81097  26.715  24.970   6.942  0.1669 -0.0533 -0.0184
38181W        W81098  31.755  26.264   6.589 -0.0420  0.1990 -0.1155
38182W        W81099  27.379  27.272   5.290  0.1255 -0.4770  0.2367
38183W        W81100  28.648  26.885   4.331  0.2207 -0.0566  0.2961
38184W        W81101  26.853  24.434   5.219 -0.2535 -0.0593  0.0489
38185W        W81102  27.946  26.930   5.942  0.0602 -0.2043 -0.1794
38186W        W81103  25.133  25.374   3.102 -0.2004 -0.0015 -0.0170
38187W        W81104  28.755  27.477   6.109  0.0410  0.0695  0.2225
38188W        W81105  27.580  26.707   3.602  0.0362  0.2692 -0.0600
38189W        W81106  27.357  28.889   6.896 -0.0923  0.3157  0.2593
38190W        W81107  26.282  25.553   3.018  0.0865 -0.2213 -0.1984
38191W        W81108  27.926  24.541   4.247 -0.0522 -0.0517 -0.0889
38192W        W81109  26.553  27.883   4.251 -0.1759 -0.0695 -0.3351
38193W        W81110  29.070  26.083   6.534 -0.3229 -0.5751  0.0165
38194W        W81111  25.679  28.092   7.494  0.2612 -0.0439 -0.4129
38195W        W81112  26.460  24.495   4.364  0.1145  0.1692 -0.3174
38196W        W81113  29.480  28.768   4.308  0.0176 -0.0665  0.0651
38197W        W81114  29.641  27.308   4.137 -0.1582  0.1993  0.3112
38198W        W81115  25.731  30.467   2.934 -0.0316  0.0958 -0.1223
38199W        W81116  29.124  26.683   3.874 -0.3110 -0.2549  0.2583
38200W        W81117  28.097  28.209   6.423  0.0173 -0.0670 -0.0254
38201W        W81118  27.756  25.838   5.881 -0.0411 -0.0089  0.1162
38202W        W81119  28.847  25.678   3.660  0.0857  0.0125 -0.0517
38203W        W81120  28.568  25.962   4.386 -0.2587  0.0052 -0.0750
38204W        W81121  26.936  25.640   4.705 -0.0392  0.3946  0.0615
38205W        W81122  27.925  26.071   5.506  0.1136  0.0536  0.1149
38206W        W81123  27.960  29.631   3.968  0.2491  0.2142  0.0164
38207W        W81124  29.095  28.584   5.137  0.1735  0.0963  0.0229
38208W        W81125  30.104  27.066   5.773  0.0269  0.1045 -0.2761
38209W        W81126  28.142  26.421   2.092  0.1928  0.1222 -0.0498
38210W        W81127  29.236  26.278   7.151 -0.0596 -0.3661  0.0530
38211W        W81128  28.494  26.976   6.626  0.0366 -0.1024  0.1505
38212W        W81129  26.976  27.191   7.311 -0.0234 -0.1339 -0.0881
38213W        W81130  25.036  27.561   3.307 -0.1764  0.1710 -0.1165
38214W        W81131  27.175  26.322   9.414 -0.2732 -0.1062  0.1331
38215W        W81132  27.281  28.219   4.883  0.0065  0.1346 -0.1709
38216W        W81133  27.818  28.773   5.068 -0.0237 -0.1938  0.1643
38217W        W81134  28.479  28.783   4.210 -0.0501 -0.0864 -0.2294
38218W        W81135  26.753  26.615   3.860  0.1179 -0.0485  0.0417
38219W        W81136  28.564  29.216   3.924 -0.1292  0.0567  0.0825
38220W        W81137  26.675  25.986   4.502 -0.4307 -0.0422 -0.2376
38221W        W81138  28.591  25.340   6.136 -0.1406  0.2515  0.0197
38222W        W81139  29.512  24.204   5.628 -0.3770 -0.0042  0.2161
38223W        W81140  28.659  27.680   5.636 -0.0725 -0.1039  0.1164
38224W        W81141  25.678  28.330   4.275  0.2123 -0.0557  0.1942
38225W        W81142  25.953  28.550   4.594  0.1007  0.0127 -0.2849
38226W        W81143  27.509  28.440   5.261  0.0685  0.2979  0.2554
38227W        W81144  26.298  24.759   7.310  0.1589  0.1388 -0.1017
38228W        W81145  27.326  27.341   5.805  0.0848 -0.0820  0.0251
38229W        W81146  26.936  27.764   5.501  0.0375  0.0024  0.0509
38230W        W81147  25.935  26.061   4.170  0.1272  0.0830 -0.1740
38231W        W81148  28.860  27.856   3.434 -0.0587  0.1111 -0.2954
38232W        W81149  25.536  23.501   5.506 -0.0881  0.0945 -0.2366
38233W        W81150  27.275  25.161   4.100  0.0623  0.1530  0.0834
38234W        W81151  29.611  27.526   3.190 -0.1838 -0.0115  0.1524
38235W        W81152  27.783  29.017   3.426  0.2355 -0.0580  0.1586
38236W        W81153  27.690  26.438   5.273 -0.1484 -0.0182 -0.1139
38237W        W81154  29.284  27.160   6.184  0.3375 -0.1087 -0.1044
38238W        W81155  25.014  29.181   2.677 -0.0684  0.1399  0.3165
38239W        W81156  29.458  25.332   5.007  0.1252 -0.0767 -0.1788
38240W        W81157  26.699  25.584   6.259  0.0037 -0.1926  0.0957
38241W        W81158  24.976  25.900   3.399  0.1822  0.2278  0.3225
38242W        W81159  27.389  27.291   4.782 -0.1624  0.1471 -0.0897
38243W        W81160  28.712  27.312   5.225 -0.2628  0.0146  0.1492
38244W        W81161  28.336  29.577   2.221  0.0715  0.1283  0.2075
38245W        W81162  26.937  26.573   4.940  0.2056 -0.2406 -0.2755
38246W        W81163  28.102  27.291   6.422  0.2859  0.0795 -0.2754
38247W        W81164  25.998  24.548   5.663 -0.0475 -0.4051 -0.2897
38248W        W81165  27.310  27.601   3.233 -0.0566 -0.2195 -0.2502
38249W        W81166  28.288  26.955   5.165 -0.1272  0.2424  0.2273
38250W        W81167  28.020  27.931   3.658  0.2128 -0.0949  0.0523
38251W        W81168  28.596  24.179   6.561  0.0024  0.0364  0.0117
38252W        W81169  28.265  26.400   4.333  0.2861 -0.0149  0.1553
38253W        W81170  25.681  24.426   7.870  0.3424 -0.2373 -0.2643
38254W        W81171  26.012  27.806   7.170  0.0276  0.2528  0.1317
38255W        W81172  30.134  29.485   6.256 -0.1203  0.1070 -0.3016
38256W        W81173  27.035  27.051   4.537 -0.0218  0.2395  0.0189
38257W        W81174  29.657  27.170   3.520  0.0716  0.1052  0.3149
38258W        W81175  25.945  27.501   3.761  0.2423 -0.0472  0.0079
38259W        W81176  25.436  27.310   7.959 -0.3212  0.2058  0.1993
38260W        W81177  27.851  26.825   4.111  0.0470  0.0053 -0.1102
38261W        W81178  26.891  25.826   7.593 -0.0618 -0.4329  0.0016
38262W        W81179  27.901  29.061   5.910 -0.1336  0.0390  0.2032
38263W        W81180  26.335  28.327   6.919 -0.0661  0.0195  0.0763
38264W        W81181  25.999  26.552   2.186 -0.0938  0.0425  0.3810
38265W        W81182  27.599  28.086   3.329 -0.1381  0.0598 -0.0294
38266W        W81183  27.578  28.974   7.398  0.4104  0.1084  0.0241
38267W        W81184  28.488  29.042   7.373 -0.1213 -0.0098  0.3940
38268W        W81185  28.541  27.819   5.150 -0.0895  0.2149  0.0404
38269W        W81186  29.914  26.868   4.755 -0.0186  0.1865 -0.0183
38270W        W81187  27.347  26.810   5.098  0.0330  0.1271 -0.2598
38271W        W81188  26.113  27.078   4.021  0.2647  0.1136  0.0001
38272W        W81189  28.159  27.733   4.095 -0.1578 -0.0266 -0.0364
38273W        W81190  28.298  25.429   4.314  0.1209 -0.3109 -0.1462
38274W        W81191  26.382  26.283   4.175  0.0454  0.1457 -0.5187
38275W        W81192  28.381  25.828   3.866  0.0209  0.1009 -0.1188
38276W        W81193  26.404  30.147   5.018  0.1413 -0.3676  0.2026
38277W        W81194  28.030  26.745   3.094  0.1328  0.3779 -0.2527
38278W        W81195  26.667  26.351   8.923  0.0596 -0.1353 -0.3201
38279W        W81196  25.944  25.147   8.338  0.0457  0.1117  0.0605
38280W        W81197  32.175  26.232   6.179  0.1525 -0.1341  0.1056
38281W        W81198  28.490  25.771   9.132 -0.0623  0.0391 -0.2347
38282W        W81199  26.613  26.828   6.332  0.2653  0.1705 -0.0621
38283W        W81200  28.296  30.065   7.759 -0.4103 -0.1807 -0.1409
38284W        W81201  23.230  31.697   9.150 -0.0376  0.0017  0.3185
38285W        W81202  29.166  26.775   7.569 -0.1955  0.0437  0.1580
38286W        W81203  27.713  27.792   6.546  0.1883 -0.0896 -0.1426
38287W        W81204  26.973  30.850   8.311  0.0446 -0.3783 -0.0364
38288W        W81205  27.606  24.388   5.245 -0.2256  0.3513  0.1420
38289W        W81206  26.385  24.803   8.719  0.2449  0.3383 -0.1858
38290W        W81207  29.864  26.508   8.798 -0.1012  0.3015  0.2183
38291W        W81208  25.877  27.468   5.975 -0.1400 -0.1828 -0.1444
38292W        W81209  27.496  27.696   8.198 -0.2692  0.1357  0.1534
38293W        W81210  27.852  27.313   7.346  0.1381  0.0601 -0.0280
38294W        W81211  25.996  28.368   9.052 -0.2188 -0.3050 -0.1065
38295W        W81212  29.556  25.370   8.444 -0.2933  0.1803  0.1039
38296W        W81213  27.806  28.087   7.409  0.2046 -0.0411 -0.3337
38297W        W81214  26.387  26.325   7.179 -0.1257 -0.1412 -0.2889
38298W        W81215  24.724  27.816   8.986 -0.1914 -0.0227 -0.5238
38299W        W81216  27.400  27.931   7.731  0.0583  0.0665  0.0178
38300W        W81217  28.875  26.350   7.767  0.0796 -0.0049  0.0378
38301W        W81218  29.206  25.914   9.280 -0.2295 -0.1119 -0.2369
38302W        W81219  27.964  27.869   8.832  0.0189 -0.3089  0.0710
38303W        W81220  28.720  28.532   7.659  0.1034  0.3364 -0.2184
38304W        W81221  25.632  27.852   8.000  0.0493 -0.0823 -0.1618
38305W        W81222  25.249  28.761   8.388 -0.0531 -0.0803 -0.0534
38306W        W81223  27.586  27.198   8.206  0.1611 -0.0150  0.1093
38307W        W81224  30.720  28.955   6.141 -0.1392 -0.0422 -0.0303
38308W        W81225  26.334  26.541   8.108 -0.1666 -0.2037 -0.0444
38309W        W81226  29.211  26.438   8.982  0.1770 -0.2172  0.0257
38310W        W81227  28.769  26.503   7.310  0.0352  0.0653  0.0702
38311W        W81228  26.916  27.606   5.956  0.1476 -0.0919  0.1513
38312W        W81229  27.715  27.458   7.792  0.3801 -0.0778  0.1819
38313W        W81230  23.507  26.739   8.509  0.1166 -0.0864 -0.1750
38314W        W81231  25.986  29.439   9.278 -0.0672  0.2675  0.3176
38315W        W81232  30.304  26.301   6.596 -0.1197 -0.0970 -0.1224
38316W        W81233  28.253  26.987   7.016  0.0101 -0.1832  0.0104
38317W        W81234  28.651  25.532   7.218 -0.1081 -0.1138 -0.1497
38318W        W81235  27.193  24.869   9.311 -0.2911  0.1114  0.0664
38319W        W81236  24.801  28.359   9.049 -0.0986 -0.1236  0.0723
38320W        W81237  26.978  26.801   9.274  0.0211  0.2426  0.0128
38321W        W81238  29.096  26.134   8.196  0.0843 -0.2605  0.0857
38322W        W81239  29.253  27.011   8.031  0.2436 -0.1752  0.3524
38323W        W81240  28.478  28.107   7.791 -0.4468  0.1350  0.0421
38324W        W81241  24.896  25.915   7.711 -0.0053 -0.0449  0.1841
38325W        W81242  28.742  27.708   7.649  0.1387 -0.0305 -0.1703
38326W        W81243  30.279  27.204   8.556  0.0385 -0.0135 -0.0695
38327W        W81244  26.306  28.782   7.418 -0.1161 -0.0631  0.0554
38328W        W81245  26.413  25.926   5.431  0.3182 -0.2285 -0.0208
38329W        W81246  26.084  24.388   6.485  0.2205  0.0182 -0.2292
38330W        W81247  30.692  26.819   8.318 -0.1322  0.1151 -0.2135
38331W        W81248  28.977  26.655   8.313 -0.1086 -0.1605  0.0436
38332W        W81249  28.420  31.610   5.956  0.0842  0.0834 -0.0295
38333W        W81250  29.394  29.655   9.475 -0.6168  0.1093  0.1306
38334W        W81251  29.089  25.621   8.361  0.4042 -0.3000 -0.1827
38335W        W81252  28.243  25.809   8.111  0.5549 -0.0354  0.0068
38336W        W81253  25.683  25.844   7.212 -0.2671 -0.1106 -0.0885
38337W        W81254  30.302  27.225   6.237 -0.1577  0.1906 -0.0222
38338W        W81255  31.189  26.706   8.044  0.2799  0.0161  0.2567
38339W        W81256  27.623  27.376   8.761  0.1449 -0.0377  0.3059
38340W        W81257  27.753  31.376   9.028  0.0467 -0.2911 -0.0427
38341W        W81258  23.802  27.115   7.726  0.1301 -0.3524 -0.2443
38342W        W81259  27.871  24.995   9.475 -0.1490 -0.0838 -0.2008
38343W        W81260  26.122  26.628   7.544 -0.0654 -0.0603 -0.0051
38344W        W81261  25.891  24.981   7.108  0.0160 -0.3082 -0.2126
38345W        W81262  27.755  25.097   8.812 -0.0833 -0.0571 -0.2738
38346W        W81263  28.966  24.297   7.628 -0.0332 -0.2242 -0.1506
38347W        W81264  26.887  23.674   8.302  0.0046  0.0755 -0.1559
38348W        W81265  25.955  26.488   6.957 -0.1251  0.0214 -0.2197
38349W        W81266  30.628  26.580   6.864  0.1258  0.0008  0.0774
38350W        W81267  27.840  26.017   7.480  0.0286 -0.0938 -0.0200
38351W        W81268  26.613  28.418   7.470  0.1486  0.2094 -0.3130
38352W        W81269  27.508  28.008   8.640  0.1651 -0.0512  0.1807
38353W        W81270  25.106  27.987   6.768 -0.0958 -0.1875  0.0122
38354W        W81271  26.565  25.894   7.171 -0.1381 -0.0857  0.1439
38355W        W81272  25.952  25.012   8.831  0.0323  0.2042  0.1094
38356W        W81273  30.161  26.146   8.936  0.0853  0.1592  0.1496
38357W        W81274  29.017  28.730   7.230 -0.2769 -0.1130 -0.1166
38358W        W81275  25.383  26.253   7.098 -0.0460  0.0200 -0.1295
38359W        W81276  30.302  29.803   7.668 -0.3242 -0.1377 -0.1418
38360W        W81277  28.494  28.723   8.501 -0.0151  0.2042  0.0101
38361W        W81278  29.727  27.576   7.309  0.2639  0.0142 -0.0704
38362W        W81279  26.572  23.277  12.820  0.1400  0.1586  0.4158
38363W        W81280  26.154  25.159   7.759 -0.1332  0.1863  0.1350
38364W        W81281  27.551  31.570   8.546  0.1981 -0.0580  0.0475
38365W        W81282  28.203  27.209   8.624  0.2823 -0.0312  0.0940
38366W        W81283  27.437  25.913   7.819  0.0544  0.0141 -0.1797
38367W        W81284  28.099  28.459   8.681 -0.0608  0.1188 -0.4288
38368W        W81285  26.564  27.678   8.330 -0.2963 -0.0644  0.3182
38369W        W81286  29.030  27.645   8.646 -0.0433  0.0104  0.2560
38370W        W81287  28.233  24.282   9.188 -0.0699  0.0524  0.1305
38371W        W81288  26.473  27.822   6.821 -0.2711 -0.2744  0.0785
38372W        W81289  29.111  27.579   8.055 -0.0869  0.0679  0.0495
38373W        W81290  24.345  28.090   6.456  0.0217 -0.0015  0.0061
38374W        W81291  25.314  26.189   6.207  0.0209 -0.0739  0.0207
38375W        W81292  30.218  25.123   9.202  0.3341  0.2211  0.1429
38376W        W81293  29.826  28.411   8.552  0.0335 -0.3474 -0.3048
38377W        W81294  25.552  25.286   7.811 -0.2045  0.1868  0.1305
38378W        W81295  28.130  23.616   9.101  0.0180 -0.1979  0.1326
38379W        W81296  28.111  23.076   8.396 -0.0083  0.0566 -0.2277
38380W        W81297  29.458  26.865   8.451 -0.0730 -0.3768  0.0518
38381W        W81298  27.678  27.631   5.555 -0.0528  0.3941  0.4555
38382W        W81299  27.751  25.564   6.332 -0.0842 -0.1371  0.0266
38383W        W81300  27.671  28.550   7.719 -0.0209 -0.0269 -0.3868
38384W        W81301  23.565  27.326   8.601 -0.0961 -0.1605 -0.3316
38385W        W81302  26.619  25.236   7.735 -0.3615 -0.1879  0.0975
38386W        W81303  30.974  27.783   6.404 -0.0665  0.0441  0.1417
38387W        W81304  27.158  26.986   8.330 -0.2512 -0.1799 -0.0904
38388W        W81305  28.929  29.019   7.686  0.0133 -0.1485  0.1608
38389W        W81306  26.727  25.834   8.084 -0.0486 -0.0322 -0.0820
38390W        W81307  25.692  26.069   8.130 -0.0538  0.0748 -0.1910
38391W        W81308  26.666  26.255   6.813 -0.0803  0.1767 -0.1337
38392W        W81309  27.337  27.958   7.121  0.0189 -0.3592  0.1618
38393W        W81310  27.363  26.312   8.131  0.0942  0.0269 -0.0129
38394W        W81311  27.475  25.768   8.896 -0.0868 -0.2149  0.1131
38395W        W81312  29.426  29.061   7.172  0.1989 -0.0448 -0.1904
38396W        W81313  30.485  26.516   9.012 -0.0590 -0.0107  0.0193
38397W        W81314  26.545  25.299   8.609 -0.2312 -0.2030 -0.1803
38398W        W81315  28.236  25.311   7.802 -0.1929  0.1372 -0.1700
38399W        W81316  28.472  29.905   8.234 -0.0663 -0.1308 -0.0545
38400W        W81317  27.918  28.098   8.374 -0.1767 -0.0886 -0.2136
38401W        W81318  29.146  26.342   5.694  0.1888  0.1184 -0.0444
38402W        W81319  28.480  26.809   8.325 -0.3670  0.0085  0.0470
38403W        W81320  26.950  26.230   7.279  0.0749 -0.1315  0.1255
38404W        W81321  26.492  27.875  13.138 -0.2010  0.0370  0.1421
38405W        W81322  28.192  25.531   7.121 -0.2264 -0.3239  0.0478
38406W        W81323  26.903  27.642   7.620 -0.1124  0.0516 -0.3041
38407W        W81324  28.945  28.136   8.451 -0.2788 -0.3156 -0.1865
38408W        W81325  24.913  27.256   8.129  0.0631  0.3618 -0.0570
38409W        W81326  29.162  25.593   7.850  0.1506 -0.4159 -0.0280
38410W        W81327  26.193  30.736   8.224  0.0338  0.0433 -0.1447
38411W        W81328  26.514  26.210   7.685  0.2139  0.1898 -0.1065
38412W        W81329  25.223  25.301   8.191  0.1631 -0.0025  0.0471
38413W        W81330  27.884  29.462   8.683  0.0372  0.3108  0.2914
38414W        W81331  29.027  28.087   7.461  0.1455 -0.1096  0.1664
38415W        W81332  30.708  26.094   8.931  0.1697 -0.2516 -0.0128
38416W        W81333  27.038  26.093   8.984  0.0466  0.4588 -0.0102
38417W        W81334  29.112  30.714   8.435 -0.1649 -0.2641  0.3218
38418W        W81335  27.051  23.259   6.751  0.0948 -0.0075  0.0008
38419W        W81336  25.239  26.515   5.265  0.0008 -0.0644  0.2465
38420W        W81337  29.377  26.385   8.520 -0.0527 -0.1721 -0.3138
38421W        W81338  26.912  26.272   8.424  0.2654  0.0980 -0.0385
38422W        W81339  26.477  27.509   7.908  0.2438  0.1778 -0.1428
38423W        W81340  29.533  27.930   7.605 -0.0653  0.1137  0.2371
38424W        W81341  26.301  25.641   7.699  0.3404  0.0829 -0.1218
38425W        W81342  25.821  27.277   6.841 -0.3382  0.1583  0.0118
38426W        W81343  30.781  26.131   9.600  0.1658 -0.0100  0.0262
38427W        W81344  27.565  25.443   8.489  0.0772 -0.0480  0.2519
38428W        W81345  29.763  25.584   7.208  0.1252 -0.0562 -0.2729
38429W        W81346  27.384  24.556   8.458  0.1783 -0.1712  0.2342
38430W        W81347  29.946  28.362   7.439  0.2076  0.0066  0.3911
38431W        W81348  27.380  29.923   7.826 -0.0917 -0.2177 -0.0266
38432W        W81349  28.371  25.691   7.562  0.1125 -0.3725 -0.0543
38433W        W81350  31.114  28.582   8.046 -0.0608  0.2351  0.3479
38434W        W81351  27.966  29.017   8.864  0.1221 -0.0150 -0.0741
38435W        W81352  24.133  27.289   6.976  0.1243  0.0492 -0.1369
38436W        W81353  27.480  26.611   9.124 -0.1539  0.0269 -0.0806
38437W        W81354  30.101  25.028   8.705  0.0691 -0.2637 -0.2930
38438W        W81355  27.019  27.859   8.060  0.1561 -0.0911 -0.2470
38439W        W81356  26.415  25.260   7.309  0.0012 -0.1381  0.0053
38440W        W81357  27.007  28.353   7.801  0.4634  0.1050  0.0114
38441W        W81358  28.114  25.767   6.700  0.1988  0.2747 -0.0373
38442W        W81359  28.235  27.815   7.430  0.3245  0.0874 -0.1617
38443W        W81360  26.442  24.934   8.217 -0.3841 -0.3765  0.1869
38444W        W81361  28.181  26.697   7.909 -0.3844  0.2241  0.0899
38445W        W81362  26.324  25.294   9.042 -0.0384  0.0971 -0.0316
38446W        W81363  27.913  29.475   7.272 -0.3136  0.3286  0.1592
38447W        W81364  26.937  24.683   8.080 -0.0073 -0.1099 -0.0799
38448W        W81365  26.679  24.215   8.032 -0.4424  0.1277 -0.5509
38449W        W81366  27.433  25.309   9.192 -0.1247  0.2353  0.1373
38450W        W81367  27.699  28.988   8.428 -0.1137  0.0283 -0.1153
38451W        W81368  27.328  26.796   7.927 -0.1265 -0.3554  0.2490
38452W        W81369  31.225  27.454   8.305 -0.1807 -0.4797 -0.0384
38453W        W81370  25.599  28.057   8.903  0.1227 -0.1475 -0.1508
38454W        W81371  29.064  25.515   6.788  0.1821 -0.0275  0.1322
38455W        W81372  28.450  31.162   8.977 -0.1718 -0.3881 -0.2198
38456W        W81373  27.081  26.693   7.544  0.1935  0.2773  0.1903
38457W        W81374  30.806  27.002   7.256 -0.0538 -0.0430  0.2683
38458W        W81375  27.878  26.054   6.333  0.2769 -0.1639  0.1246
38459W        W81376  28.024  31.106   7.479  0.0230  0.2530 -0.1904
38460W        W81377  27.776  26.908   7.715 -0.0205 -0.0661 -0.1004
38461W        W81378  30.075  26.124   7.679  0.0923 -0.0734  0.0277
38462W        W81379  27.910  26.226   7.932 -0.1535  0.0010  0.1896
38463W        W81380  27.028  27.473   8.378 -0.3162 -0.1526 -0.2144
38464W        W81381  23.370  26.481   6.684  0.0976  0.0189 -0.1558
38465W        W81382  27.473  25.188   6.523  0.0100  0.2293  0.0761
38466W        W81383  26.217  29.310   6.786  0.0199  0.2721  0.1696
38467W        W81384  26.763  29.542   7.146  0.0387 -0.0353 -0.0866
38468W        W81385  29.745  25.040   7.367  0.0995 -0.0850  0.1671
38469W        W81386  25.140  24.794   8.431 -0.0319  0.2501  0.3653
38470W        W81387  24.549  26.016   5.395  0.1575  0.0924 -0.0188
38471W        W81388  29.018  26.205   5.223  0.2544 -0.2065  0.1024
38472W        W81389  28.495  26.423   8.748  0.3344  0.0705 -0.3359
38473W        W81390  26.724  24.491   7.137 -0.2240  0.1449  0.1046
38474W        W81391  27.157  24.067   8.505  0.0079  0.2001 -0.0643
38475W        W81392  29.327  24.039   7.968 -0.0590  0.0215 -0.0242
38476W        W81393  28.555  32.069   8.944 -0.0023  0.1305 -0.3737
38477W        W81394  28.838  28.547   8.169  0.0344 -0.0727 -0.0909
38478W        W81395  26.549  23.765   8.986  0.0502 -0.1900 -0.1649
38479W        W81396  28.375  26.199   7.747  0.1725  0.0947  0.1600
38480W        W81397  28.941  26.169   8.680  0.3345  0.2160 -0.1076
38481W        W81398  23.756  29.832   9.267 -0.0761  0.2136 -0.1387
38482W        W81399  27.955  26.048   8.958  0.2278  0.0406 -0.1772
38483W        W81400  29.267  28.676   7.831  0.0065  0.3524  0.0232
38484W        W81401  29.598  27.461   7.822 -0.2347 -0.1792 -0.1435
38485W        W81402  28.986  24.804   6.203 -0.0995  0.3027  0.0629
38486W        W81403  27.225  28.904   8.695  0.1255 -0.0222 -0.2733
38487W        W81404  25.188  26.641   8.835 -0.0166  0.0180 -0.4520
38488W        W81405  24.740  29.598   8.018  0.1689 -0.1434 -0.2832
38489W        W81406  28.821  27.769   7.103 -0.1263  0.1936 -0.0912
38490W        W81407  26.065  31.259   8.204  0.2870  0.3478  0.1251
38491W        W81408  28.955  30.051   8.009 -0.1634 -0.0322  0.1278
38492W        W81409  26.818  26.668   8.093 -0.0690 -0.1248  0.3098
38493W        W81410  25.827  28.977   9.113  0.0460 -0.2074 -0.5489
38494W        W81411  26.440  27.200   6.739  0.0739 -0.0659  0.1033
38495W        W81412  28.818  29.850   7.591 -0.4027 -0.0137 -0.1250
38496W        W81413  26.377  28.416   7.956  0.0299  0.0614 -0.0295
38497W        W81414  30.500  25.468   4.982  0.2268  0.0707 -0.0773
38498W        W81415  29.210  27.548   7.525 -0.3580  0.0323 -0.0208
38499W        W81416  28.737  25.021   8.461 -0.0496 -0.1207 -0.0433
38500W        W81417  28.797  26.823   7.882  0.2430  0.0251 -0.2388
38501W        W81418  27.231  24.292   8.054  0.0458 -0.3091 -0.4252
38502W        W81419  29.765  29.765   7.590  0.2873 -0.1205  0.4530
38503W        W81420  26.063  27.177   8.759  0.1700 -0.1205  0.0900
38504W        W81421  26.978  26.281   7.822  0.0581  0.0700 -0.0352
38505W        W81422  31.923  25.672   8.628  0.0185 -0.0454  0.0678
38506W        W81423  25.988  26.840   9.232 -0.2609  0.2338  0.0988
38507W        W81424  26.190  26.042   8.012  0.3308 -0.1859  0.0798
38508W        W81425  27.503  30.808   7.541 -0.2470 -0.2564  0.0437
38509W        W81426  27.057  26.706   8.798 -0.1590 -0.0223 -0.1393
38510W        W81427  28.718  30.422   8.501 -0.5162 -0.2427 -0.1034
38511W        W81428  26.247  25.756   9.359 -0.2979  0.0890 -0.0244
38512W        W81429  31.028  26.506   7.254  0.0538  0.0413  0.3350
38513W        W81430  25.909  26.559   8.375  0.0505 -0.0996 -0.2790
38514W        W81431  25.970  27.039   8.198 -0.0702 -0.1095 -0.2877
38515W        W81432  28.494  25.916   8.530 -0.0047 -0.0718 -0.0052
38516W        W81433  26.576  26.718   8.565 -0.1527  0.2266  0.1918
38517W        W81434  25.073  28.462   9.556 -0.1183  0.0510 -0.0643
38518W        W81435  25.658  26.920   7.125  0.0685 -0.0945 -0.0255
38519W        W81436  29.737  26.400   5.062  0.0138  0.1750  0.0187
38520W        W81437  28.639  25.389  13.399  0.1722 -0.1824  0.1774
38521W        W81438  28.382  26.542   7.031 -0.3178  0.0305 -0.1288
38522W        W81439  25.770  26.939   7.715 -0.0684 -0.3588  0.2795
38523W        W81440  26.151  27.343   9.230 -0.0361  0.1570  0.0404
38524W        W81441  25.813  26.165   8.711 -0.2933 -0.0127 -0.1407
38525W        W81442  29.573  26.868   9.059 -0.0211  0.2754 -0.1821
38526W        W81443  31.455  24.759   8.617 -0.0270 -0.2182 -0.0208
38527W        W81444  29.590  27.752   8.759  0.3560  0.1163 -0.4126
38528W        W81445  28.581  25.619   6.729 -0.0948  0.2835 -0.2078
38529W        W81446  30.146  26.907   8.916 -0.0967 -0.1467  0.1171
38530W        W81447  23.639  27.605   8.093  0.4597  0.2967 -0.2571
38531W        W81448  27.910  29.903   8.414 -0.0829  0.1548 -0.2886
38532W        W81449  26.651  27.291   9.299 -0.0403 -0.0308  0.0280
38533W        W81450  27.380  26.277   8.605  0.1271  0.2556 -0.3376
38534W        W81451  26.335  27.985   8.721 -0.0798  0.0546  0.1648
38535W        W81452  26.777  27.113   7.804  0.0528 -0.1507  0.1733
38536W        W81453  29.977  27.658   8.459 -0.1285 -0.0361 -0.4004
38537W        W81454  27.891  28.434   6.003 -0.1340  0.4143 -0.0947
38538W        W81455  25.015  26.730   8.237  0.2895 -0.1266  0.0478
38539W        W81456  24.364  27.300   8.397 -0.0006 -0.1588  0.0302
38540W        W81457  27.081  28.375   8.527  0.0705  0.1274 -0.0892
38541W        W81458  29.218  26.817   7.051 -0.0174  0.0446  0.0743
38542W        W81459  30.620  24.815   8.473 -0.2117 -0.1667 -0.1648
38543W        W81460  27.351  27.507   7.408  0.2832  0.0184 -0.2660
38544W        W81461  28.316  30.666   8.770 -0.0075  0.0530  0.1779
38545W        W81462  27.269  25.013   8.778 -0.0856  0.0591  0.0850
38546W        W81463  29.158  23.742   9.469  0.2330  0.0425  0.0189
38547W        W81464  30.265  25.674   6.970  0.0023 -0.1723  0.0583
38548W        W81465  22.448  29.498   9.235  0.0441 -0.1178  0.0030
38549W        W81466  27.563  27.015   6.343 -0.0102  0.3170  0.0801
38550W        W81467  26.580  25.608   6.712 -0.1785 -0.0349 -0.1239
38551W        W81468  25.565  27.585   7.425  0.1884  0.0384  0.3418
38552W        W81469  24.870  27.508   8.556  0.2754  0.0722  0.2677
38553W        W81470  26.894  24.892   8.542 -0.2485  0.2057  0.1652
38554W        W81471  29.572  27.048   7.400 -0.2092 -0.0223 -0.0100
38555W        W81472  26.787  24.866   8.996 -0.2082 -0.1661 -0.3256
38556W        W81473  24.437  27.908   9.739 -0.1198  0.1174  0.2307
38557W        W81474  30.131  27.421   7.053 -0.2511 -0.0899 -0.2784
38558W        W81475  28.345  28.596   7.158  0.0199  0.0012 -0.0653
38559W        W81476  27.094  26.552   6.399 -0.3570 -0.0176 -0.1587
38560W        W81477  28.757  25.868   7.991 -0.0279  0.1950 -0.0704
38561W        W81478  26.067  24.716   8.062  0.0518 -0.0934 -0.0400
38562W        W81479  27.606  24.666   9.013  0.0265 -0.0489  0.1592
38563W        W81480  30.582  30.099   8.777  0.2242 -0.2545  0.0190
38564W        W81481  28.472  27.395   7.135 -0.1270 -0.2683  0.2409
38565W        W81482  23.894  28.311   8.588  0.0032  0.0828  0.2155
38566W        W81483  29.005  24.745   9.100 -0.0292  0.2108 -0.3067
38567W        W81484  29.988  28.528   9.109  0.2505 -0.1089 -0.3433
38568W        W81485  31.052  26.048   8.566  0.1975  0.3009 -0.4134
38569W        W81486  28.084  29.111   7.656 -0.1657 -0.0455  0.0737
38570W        W81487  29.680  27.959   9.208 -0.0148  0.1955  0.2864
38571W        W81488  27.345  23.742   8.005 -0.2254  0.0016 -0.1160
38572W        W81489  31.982  25.803   4.963  0.1138 -0.1462 -0.0203
38573W        W81490  27.352  30.550   7.920 -0.2409 -0.1485 -0.0482
38574W        W81491  25.198  27.107   8.572  0.0803  0.3145 -0.0962
38575W        W81492  28.116  26.346   8.392 -0.3059 -0.1246  0.3745
38576W        W81493  28.032  27.187   8.074  0.0381 -0.1855  0.1459
38577W        W81494  27.812  25.313   6.877 -0.0344  0.4770  0.1651
38578W        W81495  30.674  26.795   6.409 -0.1830  0.1059 -0.1277
38579W        W81496  29.700  26.904   7.872 -0.6243 -0.2871  0.0490
38580W        W81497  32.732  30.594   9.492 -0.4125 -0.2713 -0.1878
38581W        W81498  30.719  27.321   8.183 -0.0404  0.0159  0.1211
38582W        W81499  24.869  24.936   9.373  0.1495 -0.2352 -0.0334
38583W        W81500  26.530  27.201   8.328  0.1475  0.1765  0.1853
38584W        W81501  28.273  27.229   7.638  0.3199 -0.1053  0.1043
38585W        W81502  30.563  27.804   8.416  0.3455  0.0283 -0.3671
38586W        W81503  27.774  25.967   8.475 -0.1690 -0.2564 -0.1418
38587W        W81504  28.566  26.156   6.208 -0.2460 -0.1910  0.0516
38588W        W81505  29.047  31.022   7.031  0.5892 -0.1360 -0.1329
38589W        W81506  28.663  30.871  13.365 -0.0521 -0.3516  0.2094
38590W        W81507  24.081  32.843   1.982  0.1794 -0.1543 -0.1988
38591W        W81508  26.471  31.146   0.505  0.3329 -0.0164 -0.0282
38592W        W81509  29.349  29.434  30.245  0.3051 -0.1363  0.3154
38593W        W81510  29.317  31.622  29.788 -0.0373  0.1129 -0.2520
38594W        W81511  25.078  27.876   1.380 -0.0092 -0.2604 -0.0097
38595W        W81512  28.730  32.481   1.581  0.4101 -0.2810 -0.1293
38596W        W81513  24.574  30.478   1.619  0.3556 -0.0824 -0.5073
38597W        W81514  26.574  30.407   2.520 -0.1571  0.2589 -0.0818
38598W        W81515  28.107  32.743   2.582 -0.1446  0.3065 -0.0769
38599W        W81516  27.373  31.334  31.174 -0.0995 -0.0398 -0.0566
38600W        W81517  27.589  31.988   2.367 -0.0291 -0.2818 -0.0409
38601W        W81518  27.274  32.450   3.031  0.1569 -0.0691 -0.2127
38602W        W81519  26.990  30.406   0.776  0.1789 -0.0435  0.0621
38603W        W81520  24.782  30.196   1.074 -0.0907 -0.0708 -0.0937
38604W        W81521  29.832  30.638   0.357  0.0018 -0.1348 -0.1142
38605W        W81522  24.315  31.098   1.315 -0.0213 -0.0117 -0.2990
38606W        W81523  24.529  29.336  30.506 -0.0395  0.1120 -0.1150
38607W        W81524  27.303  29.790   2.943 -0.4239 -0.0685 -0.2787
38608W        W81525  26.477  32.075   0.833  0.2761  0.0149  0.1510
38609W        W81526  26.524  30.450   1.778 -0.1336 -0.2070 -0.1741
38610W        W81527  28.052  30.384   2.675 -0.2033 -0.0089 -0.1904
38611W        W81528  27.085  31.765   0.824  0.1477  0.0628  0.0261
38612W        W81529  24.721  30.514  31.932 -0.1407 -0.1379 -0.2567
38613W        W81530  25.802  30.184   1.451  0.0065  0.0888 -0.1602
38614W        W81531  23.834  29.717   1.624 -0.2948  0.1055 -0.4670
38615W        W81532  28.261  30.277   3.773 -0.2554  0.0983  0.0613
38616W        W81533  28.852  31.595   0.713 -0.2079  0.2485  0.0077
38617W        W81534  27.195  32.493   2.334  0.1751  0.0199  0.0423
38618W        W81535  28.545  31.526  30.826  0.0433  0.0958  0.0354
38619W        W81536  27.995  30.361   3.350 -0.1605 -0.1134 -0.0858
38620W        W81537  25.590  34.148   0.648 -0.1807 -0.0747  0.3199
38621W        W81538  24.547  33.618   4.009 -0.2717 -0.0831 -0.2226
38622W        W81539  26.769  33.631  31.915  0.1981  0.2226 -0.2044
38623W        W81540  27.050  32.301   0.802 -0.0673  0.2196  0.1892
38624W        W81541  27.001  31.280   1.734 -0.0617  0.2116 -0.0345
38625W        W81542  25.672  33.484   4.025  0.0097  0.0876 -0.1163
38626W        W81543  25.806  31.163  31.917  0.0056 -0.0558 -0.1737
38627W        W81544  26.772  33.468   2.501 -0.1847  0.2721  0.0330
38628W        W81545  26.603  32.453   1.198 -0.0295  0.1250  0.3058
38629W        W81546  26.762  30.505   1.299  0.0703  0.4397  0.1664
38630W        W81547  27.321  32.025   0.005 -0.1472 -0.4215 -0.2267
38631W        W81548  25.883   0.220  30.477  0.3815  0.1135  0.0517
38632W        W81549  27.081  32.821   0.828 -0.1181 -0.1179 -0.4051
38633W        W81550  25.794  32.287   2.995  0.0845  0.2970  0.0477
38634W        W81551  27.007  32.953   1.615 -0.0804  0.0434 -0.2622
38635W        W81552  30.277  30.227   1.431 -0.1108  0.1055  0.0954
38636W        W81553  28.953  32.319  30.706  0.0728 -0.4496  0.2407
38637W        W81554  28.113  31.797  30.661  0.2085  0.0603 -0.0738
38638W        W81555  28.738  32.405   0.221 -0.0076 -0.1014 -0.2073
38639W        W81556  28.229  32.111   0.003 -0.0970 -0.1456  0.1504
38640W        W81557  28.900  29.153   0.813 -0.0591 -0.2057  0.1764
38641W        W81558  26.214  32.556   1.964  0.0761 -0.1231  0.0669
38642W        W81559  27.369  30.658   2.047 -0.1173  0.3957  0.2502
38643W        W81560  28.077  32.688   4.162  0.1991  0.1299  0.1954
38644W        W81561  26.885  30.369  31.936  0.0804 -0.1109 -0.1428
38645W        W81562  27.523  29.398   1.631  0.1587 -0.2785 -0.1240
38646W        W81563  26.359  33.168   2.789  0.1938  0.1565  0.2518
38647W        W81564  25.955  29.909   1.784 -0.1615  0.2920  0.0828
38648W        W81565  28.013  34.014  31.733  0.0271 -0.0038  0.3388
38649W        W81566  28.004  33.359   1.759 -0.2184 -0.2279  0.1338
38650W        W81567  28.301  32.592  31.675 -0.3223  0.0032 -0.2769
38651W        W81568  23.726  30.971   0.799  0.0338  0.0866 -0.0673
38652W        W81569  24.813  31.923   1.458 -0.2829  0.1108  0.0285
38653W        W81570  25.230  32.089   4.350  0.0719  0.0597  0.3307
38654W        W81571  26.872  29.829  31.006  0.0907 -0.1065  0.2100
38655W        W81572  30.119  31.367   1.754 -0.0279  0.0755  0.1597
38656W        W81573  26.900  31.381   4.458 -0.1667  0.1023  0.0363
38657W        W81574  28.095  30.267   0.264 -0.3673  0.0574 -0.0921
38658W        W81575  27.429  31.767   3.454  0.0744  0.2950 -0.0081
38659W        W81576  28.521  33.143   1.472  0.0749  0.1378 -0.0793
38660W        W81577  27.655   0.303  31.642  0.0946  0.2613  0.0139
38661W        W81578  27.851  30.828   1.971 -0.0470 -0.2052  0.3862
38662W        W81579  28.619  31.318   1.739 -0.0555  0.0587  0.1062
38663W        W81580  26.180  32.511  31.537 -0.0577 -0.2150 -0.1405
38664W        W81581  25.171  32.250  30.389 -0.2199 -0.3698  0.2384
38665W        W81582  30.318  33.458   1.964 -0.0872 -0.0772 -0.0177
38666W        W81583  28.277  30.809  30.576 -0.2379  0.1417 -0.1381
38667W        W81584  24.864  33.232   2.235  0.4346  0.1243  0.0606
38668W        W81585  27.649  30.682   2.927  0.1245 -0.0443  0.0185
38669W        W81586  26.040  32.591   1.469 -0.0702  0.1138 -0.1564
38670W        W81587  24.318  31.890  29.878 -0.2418 -0.2339 -0.0735
38671W        W81588  24.270  33.292   2.018  0.4752 -0.0752 -0.1829
38672W        W81589  26.525  33.646  31.164  0.0591  0.0092 -0.0807
38673W        W81590  25.339  29.436   2.123 -0.0251 -0.1193 -0.0536
38674W        W81591  25.988  31.307   1.717  0.0254 -0.2221 -0.1183
38675W        W81592  28.873  28.775   0.411 -0.0976  0.1181  0.0464
38676W        W81593  25.873  30.917   2.727 -0.1570  0.1172  0.0299
38677W        W81594  30.341  29.543  31.790  0.1408 -0.2752  0.4574
38678W        W81595  25.244  32.977   0.388 -0.2202  0.0741 -0.1802
38679W        W81596  27.522  33.800   3.163  0.0665 -0.0955  0.2107
38680W        W81597  28.014  31.841   1.500 -0.0226  0.0770 -0.1832
38681W        W81598  26.398  32.775  31.196 -0.0331  0.0496  0.0302
38682W        W81599  23.468  30.104   3.376  0.0237 -0.3081 -0.0994
38683W        W81600  26.333  29.978   1.035 -0.1167 -0.2257 -0.1019
38684W        W81601  27.113  31.021   2.259  0.3356  0.2858  0.3571
38685W        W81602  26.161  29.319   0.307  0.0511  0.1993 -0.3356
38686W        W81603  28.964  29.583   3.096 -0.2917  0.0435  0.0031
38687W        W81604  24.539  29.996  31.794 -0.0971 -0.3196 -0.1690
38688W        W81605  27.303  31.351   1.075 -0.2989  0.1919  0.0736
38689W        W81606  27.497  32.080   0.876 -0.1968  0.2234  0.0169
38690W        W81607  25.151  31.575   2.461 -0.2982 -0.3409  0.1417
38691W        W81608  28.048  31.179   2.975  0.3079  0.2857  0.0356
38692W        W81609  25.454  30.851   0.022 -0.1044 -0.0156 -0.2978
38693W        W81610  28.490  31.545   3.305 -0.1028  0.2756 -0.1232
38694W        W81611  27.016  32.090  31.292 -0.0922  0.1490  0.0843
38695W        W81612  25.978  30.094   4.693 -0.0582  0.0666 -0.2831
38696W        W81613  24.725  31.533  31.202  0.2610 -0.2430 -0.0096
38697W        W81614  26.620  33.716   0.418 -0.2784 -0.1638 -0.1736
38698W        W81615  27.484  31.974   3.003 -0.1806 -0.3165  0.2146
38699W        W81616  26.184  29.627   1.311 -0.3745  0.0318 -0.3076
38700W        W81617  28.985  33.497   2.353  0.0002 -0.0135 -0.0085
38701W        W81618  24.460  31.220   0.794 -0.0689  0.0471 -0.1229
38702W        W81619  26.231  29.172   1.778  0.0500 -0.0813 -0.2007
38703W        W81620  26.844  31.063   2.921  0.1665  0.1150 -0.0918
38704W        W81621  27.027  33.049  31.839 -0.1374 -0.0680  0.0324
38705W        W81622  29.577  32.802  30.871 -0.0031  0.1316  0.0510
38706W        W81623  24.463  30.908   0.271 -0.0761 -0.0755 -0.1512
38707W        W81624  27.920  33.748   1.282  0.0950  0.0867  0.2546
38708W        W81625  25.817  33.148   0.336  0.1336 -0.0630  0.0510
38709W        W81626  24.575  31.384   0.194 -0.1391 -0.2719 -0.1662
38710W        W81627  28.066  33.897   3.217 -0.1566 -0.1777  0.2060
38711W        W81628  29.191  31.184  30.688  0.3040 -0.2555 -0.1399
38712W        W81629  25.636  31.341   2.442  0.1471 -0.0599  0.1010
38713W        W81630  26.735  30.472   3.983 -0.1540  0.5205  0.1055
38714W        W81631  24.357  32.186  31.837  0.0654  0.0770 -0.0826
38715W        W81632  26.162  31.281   1.176  0.0312 -0.2964  0.0137
38716W        W81633  29.164  30.028   2.941 -0.1309  0.1196  0.5079
38717W        W81634  28.744  31.928   0.348 -0.0744 -0.1517 -0.0561
38718W        W81635  27.206  31.718   1.615  0.1538 -0.1045 -0.3259
38719W        W81636  28.652  33.346   0.071  0.1060 -0.0113 -0.1145
38720W        W81637  29.022  30.359  31.012  0.1282 -0.0420 -0.0126
38721W        W81638  26.483  30.451   0.876 -0.1361 -0.4246 -0.0287
38722W        W81639  26.963  30.844   4.458 -0.0416  0.0735  0.2531
38723W        W81640  27.986  32.517   1.773  0.0258 -0.4837  0.0731
38724W        W81641  25.643  33.375   1.991 -0.6305  0.1385 -0.0362
38725W        W81642  27.885  32.304   0.637 -0.0775  0.1379  0.2077
38726W        W81643  30.021  33.696   0.904  0.0202 -0.1567  0.1423
38727W        W81644  25.603  31.458   1.395  0.0691 -0.2844 -0.0474
38728W        W81645  28.645  31.259   3.779 -0.0923  0.1050 -0.0476
38729W        W81646  28.542  33.643   2.488 -0.1789  0.0683  0.3299
38730W        W81647  27.460  31.169   1.943  0.1016 -0.1046 -0.2379
38731W        W81648  25.790  30.385  30.433 -0.0175  0.1630  0.4114
38732W        W81649  25.622  31.577   0.764 -0.1248  0.1620 -0.1003
38733W        W81650  24.558  32.720  31.927  0.0106 -0.0326  0.0342
38734W        W81651  31.342  30.239   1.600  0.1889  0.0658  0.0346
38735W        W81652  26.755  30.800   3.594 -0.2500 -0.1953 -0.3592
38736W        W81653  26.830  29.599   2.736 -0.3330 -0.1519  0.0584
38737W        W81654  29.090  31.157   2.604 -0.0557 -0.3157 -0.2166
38738W        W81655  26.450  30.829   0.058 -0.1603  0.2182  0.0820
38739W        W81656  25.582  30.520  31.570  0.1040 -0.3275  0.1936
38740W        W81657  24.396  32.311  30.172  0.1082  0.1266 -0.3341
38741W        W81658  29.019  32.070   1.704 -0.3371  0.3012  0.1058
38742W        W81659  26.094  30.263   3.205 -0.0125 -0.4554  0.4085
38743W        W81660  25.070  32.376   0.589  0.1263 -0.0981  0.1546
38744W        W81661  27.007  32.010   3.089  0.0679  0.1622 -0.1975
38745W        W81662  28.109  30.440   2.154  0.2279  0.1520 -0.1690
38746W        W81663  26.498  31.288   1.600 -0.0766 -0.0746 -0.0644
38747W        W81664  27.565  31.343   0.166  0.1063  0.0210 -0.2391
38748W        W81665  26.184  32.210  31.046  0.0189 -0.2544 -0.0710
38749W        W81666  25.235  31.853   0.017 -0.2403 -0.2200 -0.3405
38750W        W81667  26.287  30.111   2.154 -0.1411 -0.0048 -0.1017
38751W        W81668  25.431  32.601   2.325  0.0243 -0.0652  0.1796
38752W        W81669  25.535  31.598   0.270 -0.1299  0.3227 -0.0291
38753W        W81670  27.139  31.534   2.104  0.0897  0.1974 -0.1219
38754W        W81671  23.845  31.768  31.017  0.2087 -0.1313 -0.2219
38755W        W81672  28.616  29.763   2.688 -0.0386  0.0506 -0.2224
38756W        W81673  26.983  33.340   1.200 -0.2405  0.1543  0.0076
38757W        W81674  26.048  31.461   0.409  0.0725 -0.0319 -0.0018
38758W        W81675  24.847  32.144  31.662  0.0353 -0.0697  0.0770
38759W        W81676  30.169  29.736   0.360 -0.0833 -0.0306  0.4019
38760W        W81677  29.956  31.819  29.054 -0.0458 -0.3139  0.0879
38761W        W81678  25.362  31.149   0.448 -0.0278  0.0257  0.1062
38762W        W81679  27.421  31.149   2.868  0.2105  0.0642 -0.1497
38763W        W81680  26.398  31.677   3.880 -0.2833  0.0392 -0.2157
38764W        W81681  27.705  29.839   1.910 -0.2144 -0.2209  0.2183
38765W        W81682  28.253  29.959  31.195 -0.1944 -0.2116  0.2659
38766W        W81683  27.086  32.517   1.304 -0.1700 -0.1316 -0.1138
38767W        W81684  25.717  32.523   1.881  0.0019  0.1333  0.1138
38768W        W81685  24.346  32.048   1.547 -0.1921 -0.0218  0.0021
38769W        W81686  30.286  28.936   1.902  0.1765 -0.0259 -0.0615
38770W        W81687  25.559  31.640  31.515 -0.0369 -0.0615  0.1010
38771W        W81688  26.478  32.352   0.022  0.0957 -0.1401 -0.1474
38772W        W81689  26.672  32.926   3.571  0.1912  0.1202 -0.0187
38773W        W81690  26.571  30.927   1.096 -0.2070  0.1082 -0.1311
38774W        W81691  25.993  29.134   4.523 -0.1168  0.2295  0.0548
38775W        W81692  29.292  31.352   2.109  0.4689 -0.0855 -0.1680
38776W        W81693  24.352  30.044   1.385 -0.3393 -0.2455  0.3596
38777W        W81694  26.774  28.518   0.668  0.1625 -0.0791  0.2474
38778W        W81695  26.946  31.099   0.776  0.1835 -0.1073  0.0251
38779W        W81696  27.800  31.432   0.998  0.0728  0.3015  0.0414
38780W        W81697  27.927  32.010   2.755  0.5717 -0.0492  0.1236
38781W        W81698  26.794  32.414   3.311  0.1789 -0.1864  0.0079
38782W        W81699  27.680  29.931   0.450 -0.0829  0.1923  0.4130
38783W        W81700  29.300  34.079   2.542  0.1040 -0.1379  0.2914
38784W        W81701  25.854  30.917   1.074  0.1060  0.0597  0.1916
38785W        W81702  25.949  32.701  30.794  0.3692  0.0735  0.0194
38786W        W81703  26.230  30.506   1.365 -0.0556 -0.2909 -0.2442
38787W        W81704  25.224  31.881   0.582  0.0038  0.0977 -0.2877
38788W        W81705  26.817  32.435   2.798 -0.2633  0.2237 -0.1965
38789W        W81706  26.723  32.202   0.394  0.0507  0.1673 -0.3841
38790W        W81707  26.595  33.395  30.485  0.0297 -0.6186 -0.2007
38791W        W81708  26.371  30.002   1.519  0.1640  0.0608 -0.1445
38792W        W81709  28.841  30.491  30.128 -0.3003  0.2241 -0.1701
38793W        W81710  27.492  30.639  30.229  0.1143 -0.0406 -0.2834
38794W        W81711  26.912  30.071   1.255  0.1775  0.1911  0.0346
38795W        W81712  28.243  30.072   3.017  0.2367 -0.3118 -0.1429
38796W        W81713  27.793  31.375  30.872 -0.0647  0.1417  0.1080
38797W        W81714  27.292  30.186   3.915  0.0647 -0.0814  0.1848
38798W        W81715  25.975  30.448   1.871 -0.0136 -0.2790 -0.0781
38799W        W81716  28.623  32.844  31.929  0.1674  0.2325 -0.1213
38800W        W81717  25.292  30.944   1.400  0.3010 -0.0910 -0.1048
38801W        W81718  27.519  32.755   3.920  0.0137  0.1459  0.0389
38802W        W81719  25.596  31.661   1.918  0.0841 -0.0844 -0.2331
38803W        W81720  25.300  30.043   1.335 -0.1441  0.3273 -0.2059
38804W        W81721  25.769  29.621  31.583  0.0113  0.1009 -0.0484
38805W        W81722  26.530  30.158   2.975 -0.0231  0.0106  0.0083
38806W        W81723  27.971  32.696   0.878  0.3344  0.0139  0.2089
38807W        W81724  26.935  30.415  31.172  0.0175  0.2195  0.1947
38808W        W81725  29.142  28.649   1.017 -0.1185 -0.3197  0.3983
38809W        W81726  25.818  29.396   1.897  0.0988 -0.2430 -0.1125
38810W        W81727  28.363  31.619   0.269  0.3013  0.1033  0.0036
38811W        W81728  27.342  32.908  30.668 -0.0992  0.0722  0.1658
38812W        W81729  24.352  32.895   1.112  0.0720 -0.0590  0.0407
38813W        W81730  28.185  31.494  31.246 -0.2133  0.2425 -0.2935
38814W        W81731  27.661  30.367   1.705 -0.1050  0.1672  0.1019
38815W        W81732  25.662  30.386   3.427 -0.3594 -0.0545  0.2564
38816W        W81733  28.885  30.183   2.430  0.4987  0.0294 -0.1562
38817W        W81734  26.974  30.307   3.526  0.0296 -0.3638  0.0799
38818W        W81735  26.242  30.636   2.867  0.2805  0.0917  0.1123
38819W        W81736  27.998  31.717   3.191  0.1446  0.0094 -0.0967
38820W        W81737  27.678  29.517  31.330 -0.2380 -0.0610  0.2509
38821W        W81738  30.534  29.721   1.662  0.0835  0.1603 -0.3021
38822W        W81739  28.128  31.392   1.350 -0.2210 -0.0217  0.1195
38823W        W81740  27.726  29.613  31.952  0.1622 -0.1334  0.0144
38824W        W81741  27.451  30.809   1.592  0.2468 -0.1641  0.0853
38825W        W81742  28.379  30.110   2.428 -0.1073 -0.2791  0.2238
38826W        W81743  28.246  30.373   0.785  0.1683  0.1005 -0.1130
38827W        W81744  27.613  30.881   2.449 -0.1613  0.1136 -0.1485
38828W        W81745  26.998   0.513  31.941 -0.1692 -0.2418 -0.0951
38829W        W81746  27.358  32.965   2.126  0.2326  0.1023  0.2849
38830W        W81747  27.566  31.355   1.463  0.5449  0.1469  0.0565
38831W        W81748  25.122  31.688   1.060 -0.0506 -0.0120  0.0778
38832W        W81749  24.978  32.290   5.597  0.2593 -0.1488 -0.1438
38833W        W81750  26.124  31.669   0.865  0.2115  0.3138  0.1035
38834W        W81751  26.338  31.350  31.936 -0.1067  0.0159 -0.0385
38835W        W81752  27.073  30.938   1.225  0.1289 -0.1721 -0.0034
38836W        W81753  30.612  30.580   1.524 -0.0459 -0.1559  0.2023
38837W        W81754  28.279  32.210   1.042 -0.0300  0.2426  0.0182
38838W        W81755  29.442  29.809   1.503 -0.0264  0.3102  0.0508
38839W        W81756  25.487  33.998  31.961 -0.3224  0.3620 -0.1757
38840W        W81757  27.597  31.375   2.373  0.1295  0.2291 -0.1155
38841W        W81758  27.479  34.396   3.087  0.0492 -0.1548  0.3320
38842W        W81759  25.827  31.768   3.187  0.0282  0.1209  0.0852
38843W        W81760  25.190  32.235   1.182 -0.0268  0.0011 -0.0673
38844W        W81761  27.995  29.101   0.750  0.0989 -0.0970 -0.0217
38845W        W81762  28.559  30.745   1.118 -0.0515 -0.2813  0.0001
38846W        W81763  27.077  31.842   0.358 -0.1632 -0.0404  0.1292
38847W        W81764  29.668  30.023   1.869  0.2301  0.1927 -0.1326
38848W        W81765  24.896  29.278   2.196 -0.1630 -0.3124  0.0305
38849W        W81766  26.575  32.743   1.665 -0.1095 -0.0923  0.1011
38850W        W81767  25.311  32.739   3.771 -0.2540 -0.0187  0.1216
38851W        W81768  28.694  32.640   2.382  0.0059 -0.0674  0.2589
38852W        W81769  25.544  32.090  31.684 -0.2854  0.0953 -0.2058
38853W        W81770  24.903  30.229   2.647 -0.2182  0.0311 -0.0805
38854W        W81771  26.676  30.650   3.087  0.1886  0.0777  0.0201
38855W        W81772  28.083  31.267   1.876  0.1848  0.0157  0.1554
38856W        W81773  25.580  28.833   0.888 -0.1007 -0.1495 -0.5247
38857W        W81774  25.982  30.923  31.092  0.2238  0.1855 -0.1951
38858W        W81775  26.939  32.445   1.781  0.1863 -0.2470 -0.0618
38859W        W81776  24.992  30.825   1.850 -0.1564  0.1248 -0.0352
38860W        W81777  26.747  33.212  31.446 -0.0604 -0.2698  0.1109
38861W        W81778  26.386  31.398  31.112 -0.1232  0.2773 -0.1053
38862W        W81779  27.211  31.247  31.676  0.1400  0.1336  0.1088
38863W        W81780  27.869  32.725   1.367  0.0504 -0.0436 -0.2891
38864W        W81781  25.877  28.892   0.255  0.2308  0.2513 -0.1053
38865W        W81782  25.693  32.974   0.854  0.0069  0.4962 -0.2283
38866W        W81783  24.755  33.464  30.818  0.2500  0.0838  0.1406
38867W        W81784  26.610  32.605   0.749 -0.0709  0.2575 -0.1107
38868W        W81785  26.271  34.389   4.716 -0.2535  0.0525  0.0234
38869W        W81786  28.413  32.062   3.235  0.0836  0.0152  0.1991
38870W        W81787  27.423  27.794   0.429 -0.0071  0.2926  0.1157
38871W        W81788  28.846  31.081   0.632 -0.1056  0.0959 -0.0847
38872W        W81789  27.572  31.804   1.255  0.1797 -0.0641  0.3231
38873W        W81790  27.969  32.098   4.917  0.0438 -0.2445  0.2964
38874W        W81791  28.073  31.196   2.347  0.1017  0.1747 -0.0732
38875W        W81792  26.621  30.246   0.433 -0.1115 -0.0906 -0.0626
38876W        W81793  24.602  31.686   1.932 -0.0005  0.5067  0.0814
38877W        W81794  29.728  28.944   2.013  0.0693  0.0429 -0.4945
38878W        W81795  27.142  32.117   2.621 -0.1137  0.0177 -0.1087
38879W        W81796  28.908  33.242  29.885 -0.1614 -0.1319 -0.1511
38880W        W81797  26.051  30.009  31.712 -0.1988 -0.2353  0.0641
38881W        W81798  26.066  29.929   0.612 -0.2347 -0.1093 -0.0357
38882W        W81799  28.861  29.621   1.008  0.0242 -0.0135 -0.1050
38883W        W81800  29.025  32.048  31.370  0.0127 -0.1546  0.0944
38884W        W81801  27.463  29.789   2.489 -0.1089  0.1534  0.1438
38885W        W81802  26.723  32.928   1.198 -0.2791 -0.1583 -0.1484
38886W        W81803  25.839  33.177   1.627 -0.1785 -0.1541 -0.2190
38887W        W81804  27.744  33.067   2.569 -0.4739  0.0584  0.0283
38888W        W81805  24.764  30.176  30.958 -0.1846 -0.2455  0.1114
38889W        W81806  30.142  31.352  31.624 -0.1114 -0.0021 -0.1856
38890W        W81807  26.360  29.293   4.181  0.0162 -0.0108 -0.1204
38891W        W81808  28.174  29.983   1.967  0.0469 -0.0025 -0.1047
38892W        W81809  25.672  29.312   0.103  0.0482 -0.1641 -0.1948
38893W        W81810  28.788  32.241   0.744 -0.0088  0.0134 -0.0738
38894W        W81811  25.773  30.465   2.399 -0.1401  0.1209  0.1112
38895W        W81812  24.970  31.444   1.618 -0.1409 -0.2227 -0.3303
38896W        W81813  26.933  31.289   0.233  0.1279 -0.3519  0.1191
38897W        W81814  28.581  31.114   2.718  0.0326  0.2306 -0.1698
38898W        W81815  26.756  31.117  31.513  0.0568 -0.1333 -0.0510
38899W        W81816  27.588  30.980   3.759 -0.1914 -0.1753 -0.0118
38900W        W81817  26.251  29.528  31.793  0.2299  0.1179 -0.2457
38901W        W81818  27.352  30.568   0.194  0.1201 -0.0601  0.2305
38902W        W81819  25.897  31.007   0.436 -0.0110 -0.0999 -0.0130
38903W        W81820  27.161  30.792   3.196  0.0547  0.0207 -0.0642
38904W        W81821  26.956  29.550   3.556  0.0938  0.1029 -0.1982
38905W        W81822  25.244  30.242   0.816 -0.0577 -0.2197  0.0181
38906W        W81823  28.365  30.673  31.341  0.2091 -0.0675  0.0441
38907W        W81824  29.165  32.711   2.438 -0.0368 -0.1910 -0.3942
38908W        W81825  24.867  33.715   0.092 -0.2298 -0.1452 -0.0411
38909W        W81826  26.196  32.426   0.434 -0.0735  0.0579 -0.0869
38910W        W81827  27.494  32.536   1.031 -0.1723  0.5074 -0.1164
38911W        W81828  25.180  28.899   1.798  0.2180 -0.0215 -0.0912
38912W        W81829  25.985  30.966   5.015  0.0577 -0.0221  0.1869
38913W        W81830  27.951  33.934   1.799 -0.2712 -0.1501 -0.1166
38914W        W81831  27.839  29.588   1.255  0.0701  0.3081  0.1825
38915W        W81832  25.883  30.265   0.237 -0.4507 -0.0597  0.1571
38916W        W81833  24.977  33.880   3.756  0.1877  0.0408  0.1477
38917W        W81834  28.721  30.579   0.664 -0.1970 -0.1584 -0.0873
38918W        W81835  30.661  29.186   4.001 -0.5910 -0.0681 -0.1847
38919W        W81836  26.348  31.960  30.539  0.0230 -0.1134  0.1203
38920W        W81837  28.388  29.581   4.748  0.1151 -0.1106 -0.0727
38921W        W81838  27.598  31.268   3.335  0.2524  0.0407 -0.1179
38922W        W81839  27.027  34.249   4.126 -0.0575  0.0891 -0.0989
38923W        W81840  25.681  31.761  30.515  0.1173  0.4142 -0.0945
38924W        W81841  26.633  31.579   2.260 -0.2506  0.0695 -0.0679
38925W        W81842  26.555  31.454   0.895  0.0486  0.1136  0.0791
38926W        W81843  26.883  33.874   1.858 -0.0244 -0.0198 -0.0085
38927W        W81844  29.198  34.565   2.224 -0.5574 -0.0583 -0.0688
38928W        W81845  27.585  30.959   1.070  0.1046  0.3129 -0.2731
38929W        W81846  28.844  33.120   2.638 -0.1014 -0.2658 -0.0970
38930W        W81847  26.015  29.006   2.163  0.2564  0.1008 -0.2675
38931W        W81848  29.280  31.281   0.506  0.4560 -0.2584 -0.1323
38932W        W81849  29.667  29.067   0.241 -0.1850  0.3822 -0.0536
38933W        W81850  25.532  31.401   2.922 -0.1278 -0.0489 -0.0157
38934W        W81851  24.934  31.082   0.037  0.2258 -0.0912 -0.3084
38935W        W81852  26.498   0.615   0.224  0.1652 -0.2097  0.0308
38936W        W81853  26.154  31.320   2.254 -0.0427  0.1243 -0.0322
38937W        W81854  27.969  28.789   4.186 -0.1234 -0.1820  0.4177
38938W        W81855  26.041  29.154   2.888  0.1451  0.1675 -0.0909
38939W        W81856  25.168  32.520  31.499 -0.0348 -0.1037  0.1701
38940W        W81857  25.546  30.053  31.341  0.3273 -0.2349 -0.1066
38941W        W81858  28.219  33.466   0.278  0.1877 -0.1278  0.2741
38942W        W81859  25.293  31.861   1.557 -0.1918  0.0293  0.2100
38943W        W81860  26.935  27.730   1.135 -0.1029 -0.2095  0.2597
38944W        W81861  26.953  32.256  31.767  0.1925 -0.0150 -0.1006
38945W        W81862  27.149  32.882  31.181  0.4127 -0.0343  0.2129
38946W        W81863  26.653  29.616   1.173 -0.0114 -0.2024  0.0930
38947W        W81864  29.981  33.280   3.562  0.0610 -0.1404  0.1127
38948W        W81865  27.354  32.551   0.054 -0.0514  0.1839  0.2549
38949W        W81866  28.945  29.375   5.507 -0.0065 -0.0226 -0.1972
38950W        W81867  26.961  30.138   4.359 -0.0019  0.0921 -0.1814
38951W        W81868  24.843  29.891  30.114  0.1131 -0.3674 -0.0884
38952W        W81869  27.215  29.584   0.595  0.4108  0.2148 -0.0719
38953W        W81870  25.975  31.981  31.392  0.1121 -0.1346 -0.0919
38954W        W81871  29.523  33.997  31.024 -0.1222  0.3131 -0.1049
38955W        W81872  26.256  33.681   2.633 -0.1083  0.0634 -0.1106
38956W        W81873  27.592  33.324   5.405 -0.1137 -0.0508 -0.0807
38957W        W81874  24.810  29.702   2.454 -0.0156  0.0546 -0.3367
38958W        W81875  29.118  31.823   0.014  0.0374  0.0832 -0.1200
38959W        W81876  27.851  31.858   3.672 -0.0108 -0.4269 -0.0345
38960W        W81877  25.164  31.370  31.319  0.4767 -0.0665 -0.2196
38961W        W81878  27.637  32.256   1.488  0.0753 -0.1444  0.1793
38962W        W81879  28.670  30.843   1.605  0.1520  0.2992  0.1508
38963W        W81880  24.793  29.987   1.650 -0.1528 -0.2542 -0.0275
38964W        W81881  25.525  31.885   2.777 -0.1821 -0.1173 -0.0637
38965W        W81882  29.051  32.533   1.971  0.0125 -0.0792 -0.3366
38966W        W81883  28.533  30.030   0.277  0.0560  0.0038  0.1830
38967W        W81884  28.133  31.108  31.544 -0.0760  0.3029  0.0107
38968W        W81885  27.999  31.295  31.954 -0.2479  0.3168 -0.1960
38969W        W81886  24.703  31.879   0.130  0.0811  0.1808 -0.0667
38970W        W81887  26.536  29.862  31.698 -0.0809 -0.0770 -0.1131
38971W        W81888  28.964  30.982   3.067  0.0489  0.1035 -0.0199
38972W        W81889  27.495  29.576   3.749  0.1379 -0.0965  0.1365
38973W        W81890  27.107  32.127   3.613 -0.0365  0.2735 -0.0877
38974W        W81891  27.770  31.887  31.815  0.2061  0.2640  0.0357
38975W        W81892  30.588  31.239  31.250 -0.2936  0.0978 -0.1119
38976W        W81893  28.275  30.710   2.982 -0.1803 -0.0756  0.2421
38977W        W81894  28.479  31.032   3.357  0.2395 -0.1230 -0.1367
38978W        W81895  28.156  32.448   3.081  0.3662 -0.1510  0.0954
38979W        W81896  28.583  32.287   2.011 -0.0598  0.1763 -0.2017
38980W        W81897  26.865  29.903   3.189  0.0554 -0.3313 -0.0556
38981W        W81898  25.365  32.959  31.448 -0.2025 -0.3681  0.2016
38982W        W81899  26.887  31.974   1.241 -0.1588 -0.0911 -0.0748
38983W        W81900  28.905  34.024   1.549  0.1363 -0.3674 -0.0027
38984W        W81901  28.992  32.170   2.327  0.2962 -0.0492  0.0107
38985W        W81902  27.953  29.114   1.534  0.0240 -0.2014  0.0244
38986W        W81903  28.263  33.414   3.671  0.1769 -0.0536  0.0036
38987W        W81904  27.429  32.525   0.574  0.0130  0.2744 -0.0783
38988W        W81905  26.787  31.279   7.763  0.0770 -0.0306  0.0026
38989W        W81906  26.408  29.373   5.227  0.0990  0.2355 -0.0516
38990W        W81907  28.377  30.167   4.499  0.0582  0.0298 -0.2622
38991W        W81908  28.969  31.524   4.121 -0.1215  0.1703  0.3238
38992W        W81909  24.178  34.483   2.464 -0.4910 -0.1779  0.2489
38993W        W81910  28.304  31.695   5.079 -0.2010 -0.2376 -0.2539
38994W        W81911  26.648  28.449   8.831 -0.2287  0.0615  0.0796
38995W        W81912  30.846  33.583   6.826  0.0009 -0.0477 -0.2497
38996W        W81913  29.657  31.825   6.161  0.1272 -0.2345  0.0066
38997W        W81914  26.559  32.783   3.049 -0.3893 -0.0932  0.1292
38998W        W81915  25.647  29.981   7.418  0.0831 -0.1898 -0.2171
38999W        W81916  27.609  29.874   6.896  0.1025 -0.0933 -0.1441
39000W        W81917  26.191  28.535   2.023 -0.1668  0.0640  0.3520
39001W        W81918  27.148  28.980   5.927 -0.2459 -0.2551 -0.1145
39002W        W81919  29.150  31.099   5.017  0.0538 -0.0919  0.1319
39003W        W81920  25.041  28.987   3.991 -0.1472 -0.1651  0.1583
39004W        W81921  26.077  30.324   3.745  0.2425  0.2082 -0.0605
39005W        W81922  26.691  30.237   5.378 -0.0018 -0.0689  0.3329
39006W        W81923  26.503  31.237   5.190 -0.0073  0.0657 -0.1006
39007W        W81924  27.330  28.395   6.742 -0.0123  0.1735  0.0684
39008W        W81925  25.201  28.625   5.121 -0.0241 -0.1761  0.0560
39009W        W81926  25.266  33.319   5.725 -0.0585  0.1768 -0.1474
39010W        W81927  26.129  31.901   2.812  0.0301  0.1939  0.0437
39011W        W81928  27.584  30.903   5.309 -0.0974  0.2123  0.3221
39012W        W81929  25.635  29.935   3.876  0.0045 -0.2423  0.1514
39013W        W81930  29.418  30.557   5.752 -0.1802 -0.2246 -0.3283
39014W        W81931  27.887  30.621   4.969 -0.4347  0.1959 -0.2509
39015W        W81932  26.248  32.156   5.824 -0.1793  0.0576  0.1348
39016W        W81933  28.313  33.672   5.656 -0.0154  0.0464  0.1837
39017W        W81934  29.551  27.969   5.409 -0.0286  0.0155 -0.0430
39018W        W81935  26.259  31.468   5.691 -0.1094 -0.0197 -0.1809
39019W        W81936  23.375  32.963   7.282 -0.1049 -0.1218 -0.2607
39020W        W81937  24.892  31.492   5.953 -0.1975  0.0015  0.1265
39021W        W81938  28.712  29.981   3.254  0.2822 -0.2088  0.0202
39022W        W81939  30.362  30.839   5.187  0.2050  0.1375 -0.0221
39023W        W81940  28.189  32.522   4.912  0.0335  0.0131  0.2547
39024W        W81941  26.198  32.365   3.322  0.2760  0.0809  0.1515
39025W        W81942  29.616  32.957   5.503 -0.0698  0.0026 -0.0201
39026W        W81943  26.971  32.162   5.641 -0.2452 -0.3421  0.0562
39027W        W81944  27.403  30.509   4.890 -0.2336 -0.0109 -0.0179
39028W        W81945  27.459  29.411   5.919 -0.0601 -0.4063 -0.2176
39029W        W81946  26.141   0.225   3.249 -0.2101  0.0551  0.1534
39030W        W81947  26.317  31.190   4.669 -0.1036  0.2336  0.0136
39031W        W81948  27.097  29.638   6.694  0.1889 -0.1347  0.0937
39032W        W81949  27.175  31.482   4.876  0.0076 -0.1107  0.2407
39033W        W81950  30.003  27.320   6.594 -0.0062  0.0504 -0.3445
39034W        W81951  26.727  33.029   4.978 -0.3529  0.2748  0.2378
39035W        W81952  28.118  30.533   5.377 -0.1117 -0.1840 -0.1510
39036W        W81953  25.468  31.341   4.159 -0.2644 -0.2430  0.1058
39037W        W81954  28.187  29.569   1.721 -0.1932  0.0473 -0.0019
39038W        W81955  26.930  27.142   3.958 -0.0493 -0.1510 -0.1918
39039W        W81956  27.012  33.888   5.036  0.0645  0.2619 -0.2012
39040W        W81957  26.030  30.121   4.215 -0.0514 -0.2779 -0.0042
39041W        W81958  31.025  30.707   4.707  0.1702  0.0822  0.0672
39042W        W81959  27.461  31.736   5.659 -0.0484  0.0156  0.0614
39043W        W81960  26.984  28.088   7.423  0.2514 -0.3183 -0.0655
39044W        W81961  26.178  31.172   4.065 -0.0849  0.0811  0.1533
39045W        W81962  25.262  30.556   5.496  0.0990  0.0294 -0.0890
39046W        W81963  27.782  32.238   3.356 -0.1260  0.2581  0.1514
39047W        W81964  27.623  30.705   6.655  0.1472 -0.0631  0.2238
39048W        W81965  27.927  33.771   5.320  0.0690  0.1733  0.0023
39049W        W81966  24.493  31.163   4.761 -0.1719 -0.0962  0.1815
39050W        W81967  24.715  31.892   6.393  0.1357 -0.0493 -0.2368
39051W        W81968  24.499  29.745   6.837  0.1028  0.3863 -0.0488
39052W        W81969  27.079  27.888   3.523  0.1347 -0.0567  0.2872
39053W        W81970  30.147  29.580   7.190  0.0524 -0.0923 -0.0444
39054W        W81971  26.431  31.971   7.254  0.0410  0.1093 -0.1379
39055W        W81972  28.619  28.498   4.974  0.2351 -0.1322  0.2535
39056W        W81973  28.127  29.181   5.469 -0.0530 -0.1967  0.0914
39057W        W81974  30.878  32.239   3.570 -0.2706  0.0264  0.0899
39058W        W81975  30.855  31.756   2.279  0.1701 -0.1646  0.1748
39059W        W81976  26.722  29.713   5.395  0.1334  0.2242 -0.1399
39060W        W81977  27.572  29.125   5.336  0.1072  0.0353 -0.3423
39061W        W81978  26.868  33.193   2.916  0.4112  0.0587 -0.1920
39062W        W81979  26.497  30.393   3.519 -0.0315  0.2968  0.0405
39063W        W81980  31.498  32.364   6.764 -0.3184 -0.2354  0.0803
39064W        W81981  29.553  29.215   5.775  0.1427 -0.0661 -0.1289
39065W        W81982  25.271  32.560   5.903 -0.1205 -0.1239  0.1992
39066W        W81983  28.138  28.686   4.667  0.1074  0.2920  0.5315
39067W        W81984  27.556  32.209   8.206  0.1633  0.0054  0.1967
39068W        W81985  25.353  33.531   3.463 -0.0195 -0.0068 -0.0688
39069W        W81986  24.990  32.234   7.139  0.2362 -0.0766 -0.1541
39070W        W81987  26.293  32.511   3.812 -0.0089 -0.0669  0.0650
39071W        W81988  26.378  30.581   5.633 -0.0024  0.1605 -0.1077
39072W        W81989  26.392  31.365   6.212  0.4424 -0.2355 -0.1950
39073W        W81990  27.001  29.816   3.963 -0.3499 -0.2080 -0.0683
39074W        W81991  25.853  29.922   6.181  0.0279 -0.2542 -0.0455
39075W        W81992  30.704  31.546   6.158  0.1776 -0.1023  0.0644
39076W        W81993  25.697  31.365   4.879 -0.0593 -0.1300  0.0202
39077W        W81994  27.776  32.763   4.910 -0.0137  0.2788 -0.0525
39078W        W81995  28.958  29.589   4.198  0.2895 -0.3299 -0.3088
39079W        W81996  28.671  30.610   4.420  0.1858 -0.3710  0.0382
39080W        W81997  24.871  29.813   5.396 -0.1973  0.0735 -0.0843
39081W        W81998  25.557  30.860   4.178 -0.3197  0.2398 -0.0433
39082W        W81999  25.900  28.757   6.729 -0.0119  0.0834 -0.1754
39083W        W82000  26.581  31.118   2.533  0.1769  0.0364 -0.1379
39084W        W82001  29.235  30.531   6.844  0.1344 -0.2147  0.0492
39085W        W82002  26.213  29.783   3.065  0.0302  0.2260  0.0059
39086W        W82003  28.247  28.761   6.245  0.2173  0.2853 -0.1950
39087W        W82004  28.873  31.865   5.104  0.0049  0.1272  0.0029
39088W        W82005  24.968  30.993   5.663  0.0421 -0.1068 -0.0172
39089W        W82006  29.204  28.212   6.985  0.0186 -0.2196  0.0753
39090W        W82007  27.659  32.585   2.149  0.1128  0.1044 -0.1148
39091W        W82008  31.001  32.330   7.201  0.1865  0.0657  0.0567
39092W        W82009  26.789  32.159   4.111 -0.2210 -0.1839  0.1087
39093W        W82010  25.565  29.649   5.910  0.0207 -0.0017  0.2523
39094W        W82011  25.102  29.858   2.124  0.1445 -0.0784  0.1001
39095W        W82012  25.488  32.310   6.306 -0.0824  0.0235 -0.2892
39096W        W82013  25.122  30.084   5.756 -0.1808  0.4240 -0.0351
39097W        W82014  25.962  31.683   4.368 -0.0972  0.0799  0.1594
39098W        W82015  27.345  31.546   4.370 -0.1759 -0.0554  0.0212
39099W        W82016  27.614  31.461   5.278 -0.1032  0.0120  0.0310
39100W        W82017  25.400  28.876   7.017  0.0399 -0.3396  0.3013
39101W        W82018  28.355  28.292   5.974  0.1950 -0.1326 -0.0099
39102W        W82019  28.408  30.222   5.641  0.0808  0.0847 -0.1259
39103W        W82020  26.816  29.934   6.345  0.0704  0.0346  0.1387
39104W        W82021  26.335  29.007   3.273 -0.2708 -0.1922 -0.0933
39105W        W82022  26.808  30.926   5.588 -0.1719  0.1279 -0.0120
39106W        W82023  24.934  34.211   1.996 -0.2076 -0.0674  0.2184
39107W        W82024  23.986  29.483   5.647 -0.2330  0.1243 -0.0321
39108W        W82025  25.138  30.665   4.392 -0.0799 -0.2296  0.1824
39109W        W82026  28.396  28.776   7.982  0.0593 -0.0091 -0.0730
39110W        W82027  25.253  28.843   5.637 -0.2332  0.0553 -0.2676
39111W        W82028  27.362  29.168   6.387  0.0610  0.2285 -0.0493
39112W        W82029  25.753  32.182   4.556  0.2628  0.0261 -0.2077
39113W        W82030  25.913  32.121   8.863  0.2539 -0.0699 -0.0715
39114W        W82031  27.765  30.402   4.534 -0.0737 -0.1224 -0.2028
39115W        W82032  28.676  30.582   6.957  0.3170 -0.3319  0.1641
39116W        W82033  28.386  29.589   7.489 -0.0900  0.0104 -0.0467
39117W        W82034  29.877  31.049   3.650 -0.1344  0.1661  0.1509
39118W        W82035  30.179  29.243   4.729 -0.0280 -0.0956 -0.1597
39119W        W82036  29.343  30.047   2.240  0.0306  0.2887  0.0245
39120W        W82037  26.835  30.779   7.793  0.0988 -0.1997 -0.0491
39121W        W82038  26.193  34.140   3.871  0.1204  0.1071 -0.0107
39122W        W82039  27.550  31.217   5.768  0.1456 -0.0167  0.1853
39123W        W82040  25.289  30.561   4.866 -0.1711  0.1110 -0.1541
39124W        W82041  25.561  30.984   5.563 -0.1663 -0.1737  0.0796
39125W        W82042  25.263  31.440   5.529  0.4849  0.1084  0.2702
39126W        W82043  28.203  30.925   8.283 -0.4076 -0.2908  0.1271
39127W        W82044  27.100  32.471   4.561  0.1589 -0.0873  0.1124
39128W        W82045  28.463  30.395   4.934 -0.1748 -0.1666 -0.0154
39129W        W82046  26.815  28.612   5.769  0.0339  0.2583  0.2395
39130W        W82047  27.517  27.769   3.815  0.3348 -0.0927  0.0233
39131W        W82048  27.118  33.776   2.314 -0.1855  0.1887 -0.1063
39132W        W82049  28.845  30.252   5.318 -0.2293 -0.1176  0.0609
39133W        W82050  27.777  28.156   5.589 -0.2157  0.1763 -0.1053
39134W        W82051  27.010  30.009   7.141 -0.1075  0.0111 -0.0540
39135W        W82052  29.397  30.919   6.613 -0.1267  0.1463 -0.1561
39136W        W82053  27.214  30.702   3.787  0.2303  0.2467  0.0801
39137W        W82054  27.652  30.174   6.479 -0.2537  0.6879 -0.1672
39138W        W82055  26.320  30.764   3.826 -0.1472  0.0493  0.1528
39139W        W82056  25.937  30.295   7.104 -0.0434 -0.0377  0.0943
39140W        W82057  26.608  30.959   7.375  0.2000  0.2833 -0.1421
39141W        W82058  26.052  32.781   5.643 -0.0947 -0.0391 -0.0675
39142W        W82059  28.683  33.730   6.051 -0.2342  0.3204 -0.1307
39143W        W82060  28.929  30.813   3.569  0.1241  0.0398 -0.1386
39144W        W82061  26.589  28.019   7.739 -0.2212  0.1923 -0.1632
39145W        W82062  26.521  28.785   4.703 -0.2009  0.1926 -0.4125
39146W        W82063  25.727  32.427   5.028 -0.2910 -0.1047 -0.1003
39147W        W82064  24.840  31.014   6.708 -0.1741 -0.1025  0.1254
39148W        W82065  26.830  28.664   6.786 -0.1525 -0.3510 -0.2198
39149W        W82066  27.228  32.022   6.060 -0.2986  0.2610  0.2442
39150W        W82067  26.620  33.851   3.425 -0.0708 -0.1961 -0.3267
39151W        W82068  27.208  30.156   8.273  0.1363 -0.4059 -0.1254
39152W        W82069  28.053  32.808   5.518  0.2327 -0.0967  0.0332
39153W        W82070  29.033  28.934   4.134 -0.1850 -0.2686  0.1628
39154W        W82071  24.838  31.286   5.141  0.1432  0.3742  0.2174
39155W        W82072  25.791  32.667   4.455 -0.1761 -0.0465 -0.2714
39156W        W82073  26.163  30.997   5.481  0.1904  0.2771  0.3104
39157W        W82074  26.046  29.599   5.823 -0.3533 -0.0121 -0.0170
39158W        W82075  27.046  32.584   3.853 -0.1258 -0.1935  0.0724
39159W        W82076  26.287  29.860   7.133 -0.1674 -0.2225  0.0693
39160W        W82077  24.859  29.132   6.013  0.0828 -0.0649 -0.1721
39161W        W82078  25.402  32.063   5.860 -0.3454  0.0909  0.1174
39162W        W82079  28.322  29.299   6.404 -0.1887  0.0900  0.0178
39163W        W82080  27.221  29.311   2.433  0.0432  0.2118  0.1107
39164W        W82081  30.203  31.643   6.888  0.1338 -0.1221 -0.0654
39165W        W82082  28.040  29.424   6.751 -0.0551 -0.0814 -0.0594
39166W        W82083  26.484  30.847   4.334  0.0450 -0.0034  0.1308
39167W        W82084  29.636  29.504   7.023  0.1355  0.1159  0.2300
39168W        W82085  26.883  28.902   6.348  0.1542 -0.2673  0.1059
39169W        W82086  27.034  31.919   4.502 -0.0130 -0.2628 -0.1688
39170W        W82087  28.012  30.337   6.785  0.0756 -0.0457 -0.2020
39171W        W82088  28.538  29.955   6.036  0.1881 -0.2560  0.1193
39172W        W82089  26.070  32.384   5.375 -0.1910  0.1540 -0.4792
39173W        W82090  25.246  30.438   6.411 -0.1507 -0.2351  0.2620
39174W        W82091  28.411  30.757   7.524  0.2911 -0.0806 -0.2207
39175W        W82092  24.533  29.759   4.432 -0.1847  0.1643 -0.1590
39176W        W82093  26.983  29.104   3.328  0.1030  0.0070  0.2995
39177W        W82094  25.151  28.014   5.324  0.0034 -0.0026 -0.3942
39178W        W82095  30.739  30.763   6.457 -0.0980  0.0724  0.1081
39179W        W82096  26.980  30.538   7.360  0.4889  0.1278 -0.0207
39180W        W82097  25.926  30.808   6.982 -0.0122 -0.1227 -0.0611
39181W        W82098  26.942  27.973   4.613  0.0689 -0.0506  0.2991
39182W        W82099  29.985  30.650   3.339 -0.1252 -0.0711 -0.1097
39183W        W82100  28.176  29.843   7.060 -0.3344  0.0035 -0.2531
39184W        W82101  25.372  31.090   4.652 -0.0182  0.1977 -0.2197
39185W        W82102  24.852  30.506   6.096 -0.1740  0.3051  0.1289
39186W        W82103  25.360  30.232   7.084 -0.0198  0.1081 -0.1177
39187W        W82104  27.792  28.322   4.847  0.0227  0.1229  0.3667
39188W        W82105  25.377  31.205   6.116  0.0476 -0.3342 -0.0335
39189W        W82106  24.329  34.398   3.593 -0.3246 -0.0734  0.1238
39190W        W82107  25.737  31.370   6.941  0.4149 -0.3268  0.0039
39191W        W82108  28.398  27.766   4.559  0.0597  0.0882 -0.1785
39192W        W82109  28.113  30.867   3.837  0.1715  0.1072  0.2855
39193W        W82110  27.337  28.713   4.157 -0.2353 -0.4068  0.0485
39194W        W82111  29.859  29.340   7.837  0.0383 -0.0654 -0.1096
39195W        W82112  29.753  31.808   3.184 -0.1554 -0.0422 -0.3801
39196W        W82113  27.558  29.406   6.918  0.0993  0.3422  0.0580
39197W        W82114  25.486  29.707   6.745  0.0661  0.3377 -0.2902
39198W        W82115  27.776  29.400   6.343 -0.0612  0.0133 -0.0865
39199W        W82116  26.184  30.504   6.676 -0.0945  0.0232  0.1746
39200W        W82117  29.463  32.157   6.940 -0.0787  0.2782 -0.1140
39201W        W82118  25.577  31.500   7.399 -0.1130 -0.1217 -0.2306
39202W        W82119  27.424  29.306   3.225  0.1559 -0.0133 -0.0913
39203W        W82120  25.757  28.376   3.768  0.0204  0.1119  0.1048
39204W        W82121  27.376  31.258   6.706 -0.0184  0.5139 -0.1366
39205W        W82122  27.071  31.995   7.149 -0.0222 -0.2115  0.1869
39206W        W82123  26.530  32.066   4.560 -0.0517 -0.1093 -0.1284
39207W        W82124  26.794  28.990   5.058 -0.0449 -0.2380  0.0752
39208W        W82125  25.188  31.617   6.943  0.1389  0.0955 -0.2602
39209W        W82126  28.474  30.440   3.348 -0.4612 -0.0810 -0.0649
39210W        W82127  27.821  31.131   4.935 -0.2323  0.0019 -0.0089
39211W        W82128  28.802  32.691   4.794  0.0153  0.0164 -0.0421
39212W        W82129  26.140  28.302   7.526 -0.3299 -0.0003  0.1432
39213W        W82130  27.088  31.465   3.116 -0.1805  0.1243  0.2778
39214W        W82131  29.400  28.633   6.850  0.0145 -0.0768 -0.1012
39215W        W82132  28.586  28.185   7.302  0.1277  0.0734  0.0615
39216W        W82133  27.380  29.357   7.761  0.3849  0.1993 -0.0206
39217W        W82134  25.625  31.523   8.305  0.0239 -0.1286 -0.0447
39218W        W82135  26.607  29.235   5.877  0.0926 -0.1731  0.0693
39219W        W82136  26.546  30.882   6.669 -0.0601  0.0181 -0.0242
39220W        W82137  27.674  31.572   2.818  0.1317  0.0656  0.0014
39221W        W82138  27.174  27.930   6.575 -0.0718 -0.0120 -0.1780
39222W        W82139  30.430  31.298   5.748  0.0678 -0.0348 -0.1212
39223W        W82140  27.310  31.917   5.157 -0.4350  0.1790  0.3811
39224W        W82141  25.240  30.204   7.663 -0.1643 -0.3409  0.2877
39225W        W82142  30.167  31.085   6.879 -0.0497 -0.1264 -0.0791
39226W        W82143  24.629  29.685   1.992  0.2822  0.0051  0.1754
39227W        W82144  27.846  31.135   6.576  0.1522  0.0245 -0.1429
39228W        W82145  27.316  33.384   3.778  0.3394 -0.2712  0.1404
39229W        W82146  27.362  30.589   4.282  0.0163  0.0682  0.4260
39230W        W82147  26.562  30.687   5.173  0.0057 -0.2572  0.1794
39231W        W82148  26.065  29.836   5.309 -0.0351 -0.1395 -0.1599
39232W        W82149  26.001  32.597   7.184 -0.0178 -0.1435 -0.0336
39233W        W82150  23.797  29.731   2.407 -0.0069  0.2366  0.1566
39234W        W82151  26.387  32.165   2.297  0.1669 -0.1371  0.0041
39235W        W82152  25.509  29.816   5.417  0.4463  0.0266  0.1704
39236W        W82153  31.052  29.435   6.808  0.1208  0.1165 -0.0688
39237W        W82154  26.502  29.886   3.537  0.0872 -0.1657  0.1412
39238W        W82155  30.083  29.989   6.213 -0.1363  0.1030  0.3304
39239W        W82156  26.484  33.238   3.261 -0.0768  0.0509 -0.4547
39240W        W82157  29.197  30.467   6.233  0.3208  0.0987  0.0880
39241W        W82158  25.670  31.594   5.873  0.1742  0.0484  0.1929
39242W        W82159  24.375  31.216   6.782  0.3650  0.1757 -0.0513
39243W        W82160  26.422  31.541   4.354  0.0077 -0.1706 -0.1169
39244W        W82161  26.677  27.977   5.092  0.2937  0.0521 -0.1080
39245W        W82162  27.583  29.828   5.007  0.0131 -0.0264  0.1634
39246W        W82163  27.567  32.750   5.388  0.0507 -0.2042  0.0420
39247W        W82164  29.841  31.474   6.490  0.0114  0.1827 -0.2566
39248W        W82165  27.828  29.532   5.588 -0.0125  0.1053  0.0135
39249W        W82166  25.116  31.082   7.104  0.2459 -0.0124 -0.0597
39250W        W82167  28.149  29.676   6.106 -0.0146  0.1247  0.1937
39251W        W82168  29.712  32.434   6.250  0.0071  0.1847  0.1208
39252W        W82169  25.903  31.528   6.383  0.3472  0.0756 -0.1600
39253W        W82170  24.684  31.627   6.863 -0.1178 -0.0501  0.0156
39254W        W82171  26.923  31.065   4.948 -0.3633 -0.2286  0.3283
39255W        W82172  27.380  30.761   5.730  0.0792  0.0217 -0.3171
39256W        W82173  25.771  30.699   4.619 -0.0829 -0.0683 -0.1226
39257W        W82174  25.658  33.497   5.467 -0.0615 -0.1127  0.1474
39258W        W82175  26.278  31.871   6.269 -0.0000  0.3461 -0.0919
39259W        W82176  26.134  31.729   6.836 -0.2614 -0.0862  0.1855
39260W        W82177  25.764  33.792   4.496 -0.5262 -0.1564 -0.2457
39261W        W82178  29.543  33.699   2.735  0.0585 -0.1028  0.0500
39262W        W82179  27.894  32.293   4.391  0.1300  0.0891  0.0892
39263W        W82180  28.566  29.194   5.962  0.0670 -0.1919 -0.2057
39264W        W82181  27.040  30.689   2.619 -0.1982 -0.0097  0.1381
39265W        W82182  26.975  32.630   5.334  0.2599 -0.3192  0.2493
39266W        W82183  25.567  33.057   3.473 -0.0598  0.2630 -0.1021
39267W        W82184  27.904  33.111   4.442  0.2175  0.0589 -0.0644
39268W        W82185  26.552  32.075   3.672  0.2551  0.0184 -0.1445
39269W        W82186  28.207  31.795   4.604  0.1157  0.0326  0.3250
39270W        W82187  27.327  29.122   3.682  0.0061  0.0632  0.0462
39271W        W82188  27.360  30.075   4.585  0.3514  0.1730  0.0111
39272W        W82189  26.761  29.919   4.806 -0.3903  0.1945  0.1513
39273W        W82190  26.877  31.339   6.501 -0.0864  0.2423 -0.0930
39274W        W82191  26.571  29.678   6.682  0.4702 -0.1819  0.0223
39275W        W82192  25.859  30.624   5.720 -0.2229 -0.2602 -0.3169
39276W        W82193  26.901  29.674   5.913  0.1003  0.0535  0.1257
39277W        W82194  31.403  29.701   6.558 -0.0667  0.0021  0.2763
39278W        W82195  26.243  31.474   7.749 -0.1676 -0.1928  0.0765
39279W        W82196  26.707  31.260   4.008 -0.2209  0.3262  0.1560
39280W        W82197  25.432  31.258   3.675 -0.1249  0.3564  0.3443
39281W        W82198  27.345  29.788   6.273 -0.0285 -0.1870 -0.1294
39282W        W82199  29.372  26.326   4.121  0.2107  0.0532 -0.3080
39283W        W82200  26.730  31.724   1.789 -0.0871  0.0727 -0.0278
39284W        W82201  27.387  28.684   6.271 -0.2431 -0.3210 -0.0298
39285W        W82202  27.753  33.559   4.324  0.0397 -0.1085 -0.5172
39286W        W82203  25.756  31.448   5.373 -0.0043  0.3513  0.3137
39287W        W82204  28.923  32.780   5.930  0.1360  0.1798  0.2373
39288W        W82205  25.923  29.593   4.412  0.2247 -0.2293 -0.1484
39289W        W82206  29.462  30.540   4.958 -0.3431  0.1320 -0.1582
39290W        W82207  28.567  28.376   6.386 -0.2042  0.0143  0.2571
39291W        W82208  27.859  28.671   5.574  0.2244  0.0792 -0.5343
39292W        W82209  25.578  29.911   3.319 -0.1716  0.0052 -0.2651
39293W        W82210  26.995  29.475   5.023  0.0053 -0.0151 -0.0348
39294W        W82211  29.341  32.518   5.487 -0.0509 -0.0212  0.0911
39295W        W82212  25.624  30.204   5.810  0.0431  0.1015  0.2119
39296W        W82213  27.191  31.100   4.049 -0.2405  0.1834 -0.2151
39297W        W82214  29.453  29.764   8.057  0.3769 -0.2059  0.1404
39298W        W82215  28.073  31.333   3.471 -0.1316  0.1706 -0.2011
39299W        W82216  27.103  33.495   6.690 -0.1577  0.0157 -0.1224
39300W        W82217  26.098  30.710   3.395  0.1192  0.0555  0.3371
39301W        W82218  28.159  29.296   3.609  0.0572  0.1077  0.1049
39302W        W82219  26.088  31.097   6.611 -0.2718 -0.1166 -0.0826
39303W        W82220  26.130  29.899   6.658 -0.1557  0.0491 -0.0797
39304W        W82221  27.622  31.295   7.637 -0.0646 -0.2227  0.0124
39305W        W82222  25.507  29.384   3.695  0.1852  0.0738  0.3385
39306W        W82223  31.625  31.600   4.681 -0.4998 -0.0709  0.1226
39307W        W82224  28.854  30.642   5.831 -0.1740  0.0304  0.0204
39308W        W82225  26.159  32.817   4.159 -0.0669 -0.1684 -0.1323
39309W        W82226  26.303  29.714   4.791 -0.1193 -0.0729  0.0304
39310W        W82227  25.737  32.463   5.859 -0.0662  0.0007  0.1395
39311W        W82228  24.326  28.421   4.445 -0.1148  0.0010  0.3756
39312W        W82229  28.450  33.309   6.074  0.3319 -0.1426  0.1977
39313W        W82230  29.652  32.519   5.064 -0.1058  0.1345 -0.1260
39314W        W82231  25.643  30.458   3.903 -0.1800  0.1620 -0.0505
39315W        W82232  25.961  29.120   5.815  0.0019  0.0241 -0.0492
39316W        W82233  25.831  31.943   5.545  0.0249 -0.2483  0.2387
39317W        W82234  27.746  31.802   4.217 -0.1755 -0.1324  0.0905
39318W        W82235  28.462  30.140   6.794 -0.3675 -0.0402  0.0356
39319W        W82236  25.054  33.653   3.046 -0.0449  0.0339 -0.0560
39320W        W82237  27.814  27.712   7.059  0.1890 -0.0287  0.2465
39321W        W82238  27.186  30.270   6.691  0.1094  0.0186  0.0297
39322W        W82239  27.515  33.168   4.772  0.1942  0.0325 -0.0287
39323W        W82240  25.033  31.067   4.140 -0.2013 -0.0177  0.1125
39324W        W82241  26.401  30.762   6.178  0.3076 -0.0165 -0.1388
39325W        W82242  26.169  32.178   4.922 -0.4006 -0.1041 -0.0473
39326W        W82243  28.506  32.487   4.277 -0.1938  0.3145  0.2141
39327W        W82244  27.922  33.317   5.035 -0.0578 -0.0254 -0.2112
39328W        W82245  26.263  30.565   4.762 -0.2219  0.1130  0.1816
39329W        W82246  29.067  29.105   5.909 -0.3408 -0.1352 -0.4008
39330W        W82247  25.205  29.752   5.044 -0.0051  0.2525 -0.0659
39331W        W82248  26.940  29.283   4.045 -0.3855  0.0867 -0.1910
39332W        W82249  27.485  29.281   4.841 -0.0779 -0.0955 -0.1398
39333W        W82250  26.434  32.260   6.503 -0.0356 -0.0707 -0.1383
39334W        W82251  24.808  32.867   3.486  0.1329 -0.1158 -0.0506
39335W        W82252  26.877  30.446   4.801 -0.0647  0.0775 -0.1458
39336W        W82253  25.222  30.675   7.392  0.2659 -0.2392  0.0647
39337W        W82254  26.965  29.425   6.304  0.0588  0.1445  0.1027
39338W        W82255  26.766  29.211   6.756  0.0309  0.1602  0.1439
39339W        W82256  24.201  31.118   4.094 -0.0254 -0.2847  0.2370
39340W        W82257  24.732  31.768   3.732  0.1067 -0.0006 -0.2398
39341W        W82258  28.716  31.724   4.644  0.2190  0.1719 -0.0717
39342W        W82259  28.343  28.741   5.717  0.0097 -0.3630 -0.1167
39343W        W82260  25.807  30.955   3.745 -0.0883 -0.1495 -0.2135
39344W        W82261  27.277  32.088   4.057 -0.0334 -0.2532 -0.0024
39345W        W82262  27.422  30.995   4.677 -0.0908 -0.1274 -0.1581
39346W        W82263  26.522  30.323   4.441 -0.2970 -0.1076 -0.3000
39347W        W82264  28.741  30.352   7.623  0.0126  0.2151  0.1598
39348W        W82265  26.155  32.685   4.979  0.2272 -0.2471  0.0285
39349W        W82266  27.464  29.719   7.337 -0.0165 -0.3541 -0.3146
39350W        W82267  26.991  31.041   6.031  0.0473  0.0773 -0.0651
39351W        W82268  25.949  29.989   2.695  0.0719  0.1068 -0.1996
39352W        W82269  27.061  30.011   5.584 -0.2771  0.3250 -0.0377
39353W        W82270  29.410  31.334   3.119  0.1650  0.2121 -0.1515
39354W        W82271  26.656  31.969   2.645 -0.0462  0.0213  0.1997
39355W        W82272  25.742  30.748   6.490  0.1120 -0.0510 -0.0780
39356W        W82273  25.371  32.529   7.399  0.1771 -0.1216 -0.1866
39357W        W82274  26.106  30.145   5.728  0.0701 -0.0642 -0.0158
39358W        W82275  27.018  31.402   2.574 -0.0346  0.3172  0.2281
39359W        W82276  26.841  30.589   6.894  0.1220 -0.0034 -0.1790
39360W        W82277  29.524  30.905   3.366 -0.0159  0.1407  0.2620
39361W        W82278  27.784  28.308   3.959 -0.0107  0.1003  0.1518
39362W        W82279  27.136  30.113   5.115 -0.0746 -0.1307 -0.1552
39363W        W82280  25.473  30.706   6.055 -0.1234  0.0834  0.1154
39364W        W82281  26.311  29.295   7.251 -0.2937  0.0036 -0.0490
39365W        W82282  28.255  31.007   5.162 -0.3038  0.0162 -0.2253
39366W        W82283  26.342  31.078   3.126 -0.1012 -0.1901  0.1378
39367W        W82284  27.845  30.822   3.336  0.0854  0.1718  0.1342
39368W        W82285  24.711  33.758   3.387 -0.0295  0.0908 -0.2105
39369W        W82286  24.474  32.053   7.105  0.0939  0.0492 -0.4040
39370W        W82287  27.138  30.308   2.965  0.1452 -0.3569 -0.1761
39371W        W82288  27.656  29.981   5.846 -0.2940 -0.1403  0.1123
39372W        W82289  28.496  32.809   5.219  0.0407  0.0168  0.0169
39373W        W82290  28.950  29.379   7.199 -0.2054 -0.1885  0.0039
39374W        W82291  26.652  29.699   4.277 -0.1805 -0.3036 -0.3053
39375W        W82292  28.325  32.802   2.060 -0.2944  0.2117  0.0987
39376W        W82293  27.995  33.241   5.731 -0.2123  0.2529  0.2091
39377W        W82294  30.666  32.999   7.714 -0.0195  0.1876  0.1758
39378W        W82295  25.407  34.626   6.949  0.1430 -0.2211  0.1007
39379W        W82296  27.584  32.741   4.427 -0.0329 -0.0181 -0.2663
39380W        W82297  25.401  29.979   6.265  0.2726  0.0038  0.1296
39381W        W82298  26.482  32.011   3.146  0.0314  0.0706 -0.1758
39382W        W82299  27.158  28.808   5.447 -0.1752  0.0094  0.2330
39383W        W82300  29.425  31.362   6.236 -0.0570  0.1229  0.0228
39384W        W82301  26.806  32.048   5.028  0.0930 -0.0069  0.0613
39385W        W82302  26.624  29.280   4.727  0.2665 -0.0058 -0.0196
39386W        W82303  25.653   0.227   6.658 -0.2407 -0.1974 -0.2500
39387W        W82304  28.874  29.368   6.413 -0.0768  0.3724 -0.2333
39388W        W82305  27.432  34.557  13.027 -0.1331 -0.1873  0.1096
39389W        W82306  27.402  31.038   7.996 -0.0384 -0.1915  0.0856
39390W        W82307  28.642  28.897   6.374 -0.0684 -0.0518  0.0139
39391W        W82308  29.587  26.561   7.371  0.1113  0.2590 -0.1960
39392W        W82309  26.218  30.268   8.036  0.0094 -0.0890  0.1453
39393W        W82310  30.852  30.330   7.063 -0.2425  0.1453  0.1179
39394W        W82311  29.354  31.589   7.972 -0.1262 -0.0242  0.3367
39395W        W82312  29.824  32.763   9.691  0.1194  0.0182  0.1679
39396W        W82313  26.751  29.275   7.604 -0.1437 -0.4719 -0.1592
39397W        W82314  26.633  28.847   7.832  0.3233 -0.1994 -0.2331
39398W        W82315  26.451  29.730   7.590  0.1350  0.0455 -0.2759
39399W        W82316  27.985  28.168   7.910  0.1218 -0.0153 -0.0524
39400W        W82317  26.772  31.683   8.654 -0.2105 -0.0720  0.1018
39401W        W82318  27.611  26.864   8.682 -0.3389  0.0004 -0.1446
39402W        W82319  27.742  30.230   8.057 -0.0648 -0.1477 -0.2254
39403W        W82320  28.458  31.678   8.631  0.3414 -0.2756  0.3463
39404W        W82321  28.370  31.833   6.907 -0.3032  0.1951  0.0110
39405W        W82322  30.065  31.868   9.146  0.3347 -0.0956  0.0492
39406W        W82323  27.314  30.795   7.033 -0.0988 -0.3867  0.1006
39407W        W82324  25.236  32.064   7.577 -0.0352  0.1423  0.1897
39408W        W82325  27.673  30.792   8.370 -0.0761  0.0779  0.0484
39409W        W82326  25.135  29.908   8.041 -0.1605 -0.6560 -0.1533
39410W        W82327  28.392  29.411   8.606  0.2076 -0.2590 -0.1802
39411W        W82328  28.818  29.836   6.914  0.2132 -0.1555 -0.2789
39412W        W82329  25.990  31.089   9.120  0.2567 -0.3251 -0.4563
39413W        W82330  29.168  32.031   9.242 -0.3015  0.2412 -0.0018
39414W        W82331  25.224  30.975   7.762 -0.3927  0.0384  0.3200
39415W        W82332  26.707  30.475   8.188  0.3309  0.2199 -0.1555
39416W        W82333  25.666  30.464   7.526 -0.4619  0.0894 -0.3632
39417W        W82334  29.966  32.329   8.737  0.0642  0.0308 -0.0019
39418W        W82335  26.416  31.940   7.786 -0.0037  0.2629 -0.4845
39419W        W82336  27.814  32.431   8.619 -0.1530 -0.1001  0.4004
39420W        W82337  28.219  31.360   6.798  0.1993  0.2724  0.2319
39421W        W82338  28.274  30.026   8.787  0.4350 -0.1156 -0.2584
39422W        W82339  27.950  31.789   8.228  0.2060  0.2944 -0.1683
39423W        W82340  24.974  30.034   6.860  0.2653 -0.0644  0.2550
39424W        W82341  29.868  29.215   7.355  0.1460  0.0345  0.1112
39425W        W82342  26.890  30.537   5.860  0.0080 -0.0796 -0.1243
39426W        W82343  28.999  29.042   6.813 -0.0058 -0.2147  0.2447
39427W        W82344  29.373  28.475   7.409  0.2755 -0.0201  0.1531
39428W        W82345  28.378  32.860   8.269 -0.0731 -0.3514 -0.3281
39429W        W82346  29.296  34.350   8.605  0.1703 -0.1210 -0.1855
39430W        W82347  27.973  30.415   8.481 -0.1045  0.3235 -0.0833
39431W        W82348  29.902  30.886   7.598  0.1231  0.0872 -0.2108
39432W        W82349  31.005  33.051   9.131 -0.0085  0.2590  0.1504
39433W        W82350  25.441  33.309  13.069  0.1894  0.0126 -0.0814
39434W        W82351  29.427  31.601   8.993  0.1726 -0.2915  0.1022
39435W        W82352  29.422  30.066   6.688 -0.0203 -0.2177 -0.0080
39436W        W82353  26.600  30.146   7.372 -0.0358 -0.0835  0.0228
39437W        W82354  24.012  29.304   9.134 -0.1042  0.1687 -0.1595
39438W        W82355  25.443  30.729   6.923 -0.0989  0.0873 -0.2399
39439W        W82356  29.379  30.888   8.956 -0.4908  0.1010 -0.0695
39440W        W82357  26.048  31.802   8.376  0.3621  0.0334  0.2917
39441W        W82358  28.624  34.374   8.787 -0.0811 -0.2069  0.2030
39442W        W82359  30.003  29.063   9.254 -0.2172  0.1160 -0.1010
39443W        W82360  27.578  28.560   8.580 -0.0568 -0.2180 -0.0654
39444W        W82361  28.675  30.285   9.004 -0.3536 -0.2143  0.0151
39445W        W82362  26.425  28.887   6.964  0.5034  0.3148  0.2766
39446W        W82363  27.763  28.196   6.846 -0.0650 -0.2580 -0.0240
39447W        W82364  29.781  30.955   9.640 -0.2918  0.1124  0.0282
39448W        W82365  30.133  30.554   7.243 -0.0165  0.0307  0.1938
39449W        W82366  26.168  33.172   7.085 -0.0642  0.2066  0.0084
39450W        W82367  26.146  32.532   6.159 -0.0367  0.3050  0.1634
39451W        W82368  25.139  31.252   8.473 -0.1962  0.0054 -0.1713
39452W        W82369  25.129  32.428   7.880 -0.0461 -0.2179  0.3105
39453W        W82370  24.705  26.882   8.649 -0.0586 -0.1033  0.0604
39454W        W82371  26.203  32.467   8.526  0.0748  0.0190  0.2393
39455W        W82372  31.189  30.328   7.607  0.2341  0.0300  0.1165
39456W        W82373  32.357  28.311   8.029  0.1040  0.0377 -0.0826
39457W        W82374  27.410  30.286   7.468 -0.0647  0.0416  0.0840
39458W        W82375  31.226  34.566   6.223  0.3247 -0.4858 -0.1373
39459W        W82376  29.412  30.108   7.673  0.1685  0.0068  0.4497
39460W        W82377  28.910  31.326   7.429 -0.1597  0.0504  0.2607
39461W        W82378  24.606  30.161   9.325  0.0117 -0.1896  0.1502
39462W        W82379  25.648  29.652   8.033  0.0792  0.0485 -0.0666
39463W        W82380  24.084  30.277   9.220 -0.0529  0.1052  0.0824
39464W        W82381  30.007  28.055   8.831 -0.0725 -0.2440 -0.0213
39465W        W82382  25.793  30.749   7.916 -0.4523 -0.0690 -0.0167
39466W        W82383  24.057  29.950   7.810  0.0802 -0.3371  0.1153
39467W        W82384  28.869  32.638   7.782 -0.1188 -0.2958  0.0955
39468W        W82385  29.411  31.611   8.482 -0.1360  0.0018 -0.0165
39469W        W82386  28.101  32.778   7.841 -0.3111  0.0140  0.0694
39470W        W82387  25.946  32.408   9.268 -0.4525 -0.1136 -0.0575
39471W        W82388  23.924  30.047   7.293 -0.2167 -0.2451  0.1106
39472W        W82389  25.651  31.279   7.876  0.0819  0.1015  0.2949
39473W        W82390  28.879  31.686   7.781  0.0546  0.1478  0.2705
39474W        W82391  24.363  29.106   6.330  0.0759  0.0578 -0.1403
39475W        W82392  30.296  33.606   8.032 -0.0773  0.1632 -0.5711
39476W        W82393  26.874  29.296   8.582 -0.1096 -0.0127 -0.2259
39477W        W82394  31.143  32.209   9.742  0.0256  0.0379  0.1093
39478W        W82395  28.894  30.781   7.426 -0.4924 -0.2034 -0.2818
39479W        W82396  25.427  29.417   7.224  0.0749  0.2890 -0.1241
39480W        W82397  27.846  31.282   8.124 -0.0506 -0.0907 -0.2078
39481W        W82398  26.890   0.335   6.789  0.0294 -0.3992  0.1791
39482W        W82399  24.386  30.508   8.204 -0.4336  0.0891  0.0054
39483W        W82400  26.808  33.477   9.072 -0.0309 -0.0754  0.1557
39484W        W82401  28.822  31.484   6.943  0.0945 -0.0482 -0.2648
39485W        W82402  24.146  28.671   7.443 -0.0111 -0.0009 -0.1942
39486W        W82403  30.048  26.745   8.420  0.0241 -0.0170  0.2183
39487W        W82404  29.995  27.257   7.543  0.1254 -0.2331  0.2619
39488W        W82405  29.373  31.060   7.433 -0.1634  0.2387  0.1253
39489W        W82406  28.386  29.583   5.691  0.0708  0.0818 -0.1444
39490W        W82407  28.783  28.628   5.980  0.0387 -0.0937 -0.0563
39491W        W82408  26.635  31.527   7.320  0.0142 -0.3658 -0.0552
39492W        W82409  25.372  30.158   8.456 -0.2518 -0.1879  0.0476
39493W        W82410  26.428  29.189   6.365 -0.1506  0.0227  0.2107
39494W        W82411  28.532  33.576   8.327 -0.0348 -0.2690  0.3482
39495W        W82412  23.283  30.774   9.002 -0.0073  0.0671  0.1106
39496W        W82413  28.363  32.196   8.477 -0.1099 -0.0766  0.2044
39497W        W82414  28.159  29.236   8.224  0.1113  0.0148 -0.0499
39498W        W82415  26.628  30.006   8.073 -0.1077 -0.0573  0.2851
39499W        W82416  29.717  28.813   8.195  0.1807  0.0686  0.2251
39500W        W82417  23.292  33.302   6.547  0.2927  0.1596 -0.0338
39501W        W82418  29.069  32.814  13.485 -0.1594  0.0447 -0.0990
39502W        W82419  27.757  30.972   7.080 -0.1265 -0.0660 -0.1414
39503W        W82420  28.647  27.352   7.975  0.0898  0.3713 -0.1676
39504W        W82421  28.331  31.478   8.182 -0.1042  0.1427 -0.0394
39505W        W82422  26.952  31.073   6.915 -0.2786  0.1367  0.3774
39506W        W82423  26.502  31.086   8.343 -0.3338  0.0031  0.4115
39507W        W82424  28.571  32.977   9.172 -0.2901 -0.4358 -0.1112
39508W        W82425  26.508  31.630   8.247 -0.2690 -0.3785 -0.3072
39509W        W82426  28.208  27.687   7.937  0.2500 -0.0946 -0.2383
39510W        W82427  27.497  31.447   7.164 -0.1190 -0.1511 -0.3873
39511W        W82428  28.980  29.525   7.992  0.1770  0.0254 -0.1841
39512W        W82429  26.514  30.971   8.895  0.5367 -0.2885  0.1303
39513W        W82430  27.390  32.409   9.064 -0.1272 -0.1030 -0.1861
39514W        W82431  25.676  31.886   6.656  0.0344  0.0090  0.0365
39515W        W82432  33.291  29.206   9.423  0.2266 -0.0503  0.2954
39516W        W82433  27.508  32.062   8.686 -0.1197 -0.1693  0.1799
39517W        W82434  32.001  28.128   8.836 -0.0437  0.0989 -0.0418
39518W        W82435  27.668  32.023   7.168 -0.3429  0.2835 -0.1146
39519W        W82436  24.362  29.694   8.608 -0.2334 -0.1558  0.1690
39520W        W82437  24.939  29.797   8.479 -0.2476 -0.1171  0.2185
39521W        W82438  30.012  29.342   6.758 -0.0757 -0.0510  0.0157
39522W        W82439  29.942  31.007   6.367  0.0640 -0.1197 -0.0634
39523W        W82440  24.652  28.713   7.592 -0.1749  0.0164 -0.0358
39524W        W82441  29.001  31.355   8.764  0.0339  0.1379 -0.0313
39525W        W82442  26.820  30.217   8.834  0.1823 -0.1185 -0.2223
39526W        W82443  29.402  27.950   8.317  0.0670  0.1856  0.0303
39527W        W82444  23.734  29.801   6.891  0.1111 -0.2221 -0.2287
39528W        W82445  29.751  29.810   8.508  0.1058 -0.0757  0.1833
39529W        W82446  26.584  29.332   8.050 -0.2903  0.0324 -0.0239
39530W        W82447  26.868  29.708   8.953  0.2174 -0.0263  0.0165
39531W        W82448  28.110  33.497   8.538  0.1607  0.4086  0.1004
39532W        W82449  24.921  30.549   6.800  0.1025 -0.1449  0.0178
39533W        W82450  25.468  31.476   8.792 -0.0350  0.1565  0.3100
39534W        W82451  31.990  33.183   9.262 -0.0641  0.1484 -0.2212
39535W        W82452  26.825  33.487  13.181  0.1128 -0.1999 -0.0297
39536W        W82453  28.978  31.833   8.780  0.1541  0.0210 -0.2618
39537W        W82454  28.481  31.228   7.761  0.1357 -0.1126  0.4035
39538W        W82455  27.777  32.790   8.226  0.1283  0.2700 -0.1822
39539W        W82456  29.386  26.490   7.939  0.1649  0.0637  0.2037
39540W        W82457  27.776  25.680   9.265 -0.0820 -0.4878  0.4335
39541W        W82458  30.909  32.796   7.308  0.2263  0.1094  0.0023
39542W        W82459  27.135  29.233   7.163  0.3755  0.0817 -0.1654
39543W        W82460  27.171  31.912   8.407 -0.1027  0.0252 -0.0986
39544W        W82461  26.217  32.305   7.534  0.0905  0.0495 -0.0999
39545W        W82462  28.558  32.670   6.856  0.0712  0.0915 -0.2168
39546W        W82463  26.151  30.718   7.485  0.0129 -0.2702  0.0937
39547W        W82464  24.681  31.368   8.133 -0.0914 -0.3564  0.4550
39548W        W82465  25.962  29.643   8.826 -0.0773 -0.0113 -0.1290
39549W        W82466  29.575  27.402   6.918 -0.2844 -0.2649 -0.2838
39550W        W82467  26.405  30.551   7.140 -0.0286 -0.4195 -0.3762
39551W        W82468  26.032  29.977   9.218 -0.1169 -0.0405 -0.0389
39552W        W82469  29.944  29.321   8.307 -0.0073 -0.2174  0.1384
39553W        W82470  29.537  25.886   8.117 -0.2100 -0.0440 -0.1857
39554W        W82471  27.939  30.763   7.894  0.3095 -0.1671  0.1205
39555W        W82472  29.183  30.035   8.557  0.0879  0.1256 -0.4127
39556W        W82473  26.904  31.872   7.960 -0.0243  0.2666 -0.0604
39557W        W82474  26.396  31.025   7.836  0.0898  0.0720  0.1008
39558W        W82475  30.623  31.211   7.008  0.2932  0.1846 -0.2246
39559W        W82476  27.742  31.631   6.788 -0.2105  0.2605  0.2269
39560W        W82477  28.883  29.086   8.191 -0.3706  0.1008 -0.2090
39561W        W82478  26.494  30.493   7.704  0.2016 -0.1657 -0.1733
39562W        W82479  28.206  30.835   6.882  0.0201 -0.1436 -0.2651
39563W        W82480  28.667  27.823   8.148  0.1720 -0.0718  0.0136
39564W        W82481  28.668  30.788   8.060 -0.0937 -0.1857 -0.2267
39565W        W82482  30.187  31.432   7.822  0.1201  0.0016 -0.1233
39566W        W82483  28.954  26.870   8.788 -0.1849 -0.0874 -0.1163
39567W        W82484  27.864  30.889  13.514 -0.1494 -0.0229 -0.1972
39568W        W82485  27.864  29.614   7.740  0.1246 -0.0846 -0.1182
39569W        W82486  29.901  29.401   8.830 -0.0678  0.3015 -0.0299
39570W        W82487  29.925  31.714   8.704 -0.0513  0.0118 -0.1470
39571W        W82488  26.204  28.405   8.432 -0.0991  0.0920  0.1354
39572W        W82489  25.490  29.723   8.549 -0.1413  0.0375  0.0996
39573W        W82490  26.807  30.498   6.378 -0.0224  0.1732 -0.0529
39574W        W82491  27.917  31.626   5.840  0.0612 -0.1983 -0.3705
39575W        W82492  29.616  30.719   7.950  0.1021  0.2943 -0.3963
39576W        W82493  27.516  29.922   9.086  0.1497  0.0345  0.2966
39577W        W82494  21.941  30.633   9.314  0.0511  0.3528  0.2468
39578W        W82495  25.888  29.606   7.063 -0.2968 -0.0961  0.0876
39579W        W82496  26.050  31.688   7.313 -0.0008 -0.2173  0.2082
39580W        W82497  28.077  32.976   8.744 -0.2673 -0.2009  0.0468
39581W        W82498  28.270  27.633   6.759 -0.3593 -0.0400 -0.1712
39582W        W82499  26.272  29.567   8.441 -0.1098  0.5712 -0.1063
39583W        W82500  29.011  28.404   9.083 -0.0643 -0.2862 -0.1770
39584W        W82501  29.557  32.481   8.478  0.0843 -0.2938 -0.2779
39585W        W82502  27.203  32.638   5.828  0.1533 -0.0351 -0.2080
39586W        W82503  30.764  27.823   7.451 -0.0036  0.5059 -0.3559
39587W        W82504  30.347  31.834   8.085  0.1016  0.0598  0.3799
39588W        W82505  28.858  30.834   8.930  0.1096 -0.2092 -0.1824
39589W        W82506  25.965  29.233   8.140 -0.0576 -0.0927  0.0391
39590W        W82507  29.725  31.400   9.323 -0.0380 -0.4316  0.0712
39591W        W82508  26.386  32.021   8.778 -0.1583 -0.0675  0.0839
39592W        W82509  28.930  31.449   8.265  0.2550  0.1459 -0.1210
39593W        W82510  24.988  29.119   7.078  0.0004  0.3647 -0.1522
39594W        W82511  25.461  32.095   7.073  0.0799 -0.0027 -0.1131
39595W        W82512  25.565  31.008   8.805 -0.1789 -0.1794  0.2856
39596W        W82513  26.995  32.699   7.539  0.0699  0.1702  0.2519
39597W        W82514  30.103  32.204   7.793 -0.1620  0.0535  0.2440
39598W        W82515  27.059  31.539   6.968 -0.1454  0.0807  0.0545
39599W        W82516  30.994  32.472   8.521 -0.3846 -0.3332  0.2665
39600W        W82517  26.413  29.931   8.899 -0.2566  0.0069 -0.0600
39601W        W82518  30.299  31.484   8.375  0.2087  0.0870  0.0529
39602W        W82519  25.670  31.001   7.447  0.1385 -0.2591  0.1564
39603W        W82520  27.899  30.567   7.446 -0.1552  0.2098 -0.1690
39604W        W82521  26.776  33.274   6.429  0.0021 -0.0015 -0.2581
39605W        W82522  29.870  30.501   5.416  0.1442  0.2269 -0.1451
39606W        W82523  29.315  31.099   8.221 -0.1254  0.0826 -0.1797
39607W        W82524  29.769  28.759   7.686 -0.1519  0.0788 -0.3689
39608W        W82525  25.599  31.340   9.261  0.0710  0.3585  0.1296
39609W        W82526  26.901  28.138   6.940  0.2004 -0.1527  0.1943
39610W        W82527  28.816  31.814   7.311 -0.2352 -0.1090 -0.2694
39611W        W82528  24.483  30.024   8.171 -0.2019 -0.1949  0.1171
39612W        W82529  27.759  28.989   6.624  0.0454  0.2708  0.0352
39613W        W82530  32.337  28.929   8.128  0.0073 -0.0971 -0.0581
39614W        W82531  28.034  29.040   7.108 -0.0172  0.0633 -0.1000
39615W        W82532  29.736  31.833   9.613 -0.1095 -0.0008 -0.2175
39616W        W82533  28.219  32.580   6.526 -0.1437  0.0356 -0.0128
39617W        W82534  27.396  32.659   7.886 -0.5651 -0.0630 -0.0598
39618W        W82535  27.865  30.039   7.411 -0.0308  0.1193 -0.0394
39619W        W82536  26.159  29.791   8.003  0.1151  0.2707  0.0077
39620W        W82537  29.557  30.251   8.221  0.0372 -0.2851  0.2208
39621W        W82538  23.704  31.715  12.935  0.0020  0.0469 -0.0186
39622W        W82539  27.000  29.702   7.566 -0.0567 -0.1928  0.0843
39623W        W82540  29.043  31.061   7.838 -0.3980 -0.2445  0.2929
39624W        W82541  28.903  29.605   9.183  0.1118  0.2109  0.0121
39625W        W82542  27.627  31.894   9.136 -0.1008 -0.4396 -0.2454
39626W        W82543  27.805  30.481   5.760  0.0908 -0.3087  0.2911
39627W        W82544  27.099  31.160   7.384 -0.0878 -0.1216 -0.0564
39628W        W82545  24.847  29.257   8.680 -0.1727  0.0590  0.3415
39629W        W82546  28.481  29.295   7.878  0.0175  0.0916  0.0846
39630W        W82547  25.945  30.091   8.477  0.0662 -0.2916  0.0556
39631W        W82548  26.387  30.486   8.611 -0.0411  0.1108 -0.0434
39632W        W82549  25.416  28.483   7.851  0.0491  0.2469 -0.0907
39633W        W82550  28.570  30.492   6.314  0.1276 -0.1817  0.0062
39634W        W82551  29.931  31.061   8.196  0.1550 -0.1765 -0.0084
39635W        W82552  27.060  30.628   5.234 -0.2029  0.2721 -0.0163
39636W        W82553  26.524  30.146   6.813 -0.0047 -0.1149  0.0156
39637W        W82554  28.045  32.830   6.032  0.2170 -0.3864 -0.2226
39638W        W82555  30.229  26.161   9.618  0.0909 -0.2072 -0.0760
39639W        W82556  31.313  31.023   8.883 -0.0185 -0.1465  0.0679
39640W        W82557  28.886  33.111   8.158  0.0767  0.1864  0.1327
39641W        W82558  27.784  28.548   7.176  0.1794 -0.4470 -0.0689
39642W        W82559  25.531  29.096   7.951 -0.1125  0.0879  0.3370
39643W        W82560  26.201  34.263   7.222  0.1695 -0.2209 -0.0302
39644W        W82561  26.909  32.713   9.338  0.0385 -0.0208 -0.0752
39645W        W82562  27.557  30.917   6.178 -0.0836 -0.0269 -0.2127
39646W        W82563  25.877  27.992   8.498 -0.3876  0.0747 -0.0463
39647W        W82564  25.330  31.189   6.662  0.2351  0.3032 -0.3118
39648W        W82565  28.420  32.766   7.319 -0.0351 -0.1045  0.0176
39649W        W82566  27.818  32.691   7.409 -0.2188  0.3381  0.2100
39650W        W82567  30.618  32.520   6.476 -0.0712  0.0109 -0.0368
39651W        W82568  29.264  29.804   7.170  0.2274 -0.0102 -0.1953
39652W        W82569  29.862  31.998   6.596  0.2196 -0.2080  0.1124
39653W        W82570  29.133  30.541   7.948  0.1052  0.2563 -0.0451
39654W        W82571  31.561  29.432   8.956  0.2098  0.0263 -0.0027
39655W        W82572  29.148  28.089   7.916  0.3704  0.0376  0.4279
39656W        W82573  28.563  33.739   8.789  0.1804  0.1536 -0.1548
39657W        W82574  24.487  28.425   9.682  0.1702  0.0065 -0.1592
39658W        W82575  24.423  29.083   7.310  0.2874 -0.2395  0.1561
39659W        W82576  27.063  33.927   8.898  0.0900 -0.3686  0.1384
39660W        W82577  27.247  29.195   8.247 -0.3049  0.1086 -0.1317
39661W        W82578  27.449  28.197   8.163 -0.0640 -0.3538  0.1394
39662W        W82579  30.093  32.592   6.664 -0.1831 -0.2655  0.0983
39663W        W82580  24.295  29.389   8.180  0.2877  0.4264 -0.1328
39664W        W82581  26.953  30.188   7.766 -0.0729  0.3891  0.3460
39665W        W82582  29.783  31.529   8.218  0.0833 -0.1601  0.1471
39666W        W82583  27.771  32.285   7.606  0.0622  0.0443 -0.0627
39667W        W82584  27.325  31.159   8.613 -0.2175 -0.5625  0.3665
39668W        W82585  25.834  31.722   7.896  0.0557 -0.2590 -0.2383
39669W        W82586  25.322  28.908   7.497 -0.0512  0.1870 -0.1455
39670W        W82587  28.080  28.615   6.737  0.0889 -0.1125 -0.0143
39671W        W82588  27.911  33.669   7.152 -0.1958 -0.2404  0.1224
39672W        W82589  28.631  31.666   5.515  0.1134  0.1989  0.0342
39673W        W82590  23.155  29.076   9.328 -0.0628 -0.0867  0.2114
39674W        W82591  29.866  30.358   7.606 -0.0091  0.1849 -0.0329
39675W        W82592  27.970  31.540   7.247  0.1787 -0.0099 -0.2118
39676W        W82593  29.665  30.568   9.194  0.1146  0.0498 -0.4995
39677W        W82594  30.055  26.550   9.243  0.0119  0.4065  0.1610
39678W        W82595  28.027   0.383   9.272  0.0725  0.1024  0.2355
39679W        W82596  26.837  28.852   7.301 -0.0150 -0.1426 -0.1019
39680W        W82597  26.136  27.839   9.196 -0.0566 -0.0722  0.0495
39681W        W82598  28.279  30.377   8.121 -0.3424  0.0256 -0.3873
39682W        W82599  24.756  29.972   7.753 -0.2619  0.0432  0.3618
39683W        W82600  26.134  30.190   7.526 -0.1871  0.0942  0.3337
39684W        W82601  30.778  30.770   8.747 -0.1586  0.4872 -0.1756
39685W        W82602  28.072  31.332   8.648  0.4192  0.1447 -0.0970
39686W        W82603  30.667  31.673   6.601  0.0584  0.1353 -0.1000
39687W        W82604  27.031  31.356   8.219  0.0214  0.0276  0.1420
39688W        W82605  29.521  32.238   9.870 -0.0601  0.3743 -0.0650
39689W        W82606  29.137  32.539   9.449  0.1292  0.0582 -0.0285
39690W        W82607  26.068  27.525   8.381  0.0075 -0.1610  0.4712
39691W        W82608  26.825  31.706   9.341  0.2450 -0.1494  0.1633
39692W        W82609  28.056  31.586   7.764  0.0905 -0.3126 -0.4497
39693W        W82610  29.378  29.474   7.627  0.1424 -0.1439  0.3064
39694W        W82611  27.292  29.575   8.599  0.0680 -0.2475 -0.0866
39695W        W82612  27.679  29.429   8.189  0.0188 -0.0899  0.0070
39696W        W82613  28.171  31.660   9.168 -0.2215 -0.0053  0.0222
39697W        W82614  30.380  31.057   8.680 -0.0304  0.0675 -0.0217
39698W        W82615  26.445  33.248   1.444 -0.1978  0.1878 -0.1654
39699W        W82616  27.454  33.916  31.860  0.0372  0.1478  0.0068
39700W        W82617  27.206  34.608   5.257 -0.1978 -0.1594 -0.1725
39701W        W82618  28.045   1.029   0.733  0.1425 -0.2420  0.3435
39702W        W82619  26.652  32.720   4.139  0.0094 -0.1664  0.0119
39703W        W82620  29.690   0.270   0.715 -0.0351 -0.3668 -0.0034
39704W        W82621  28.653  34.480   2.977 -0.4480  0.0156  0.2072
39705W        W82622  28.278  33.414  31.699  0.2742 -0.0476  0.2333
39706W        W82623  27.292  33.316   2.410  0.1679  0.0979  0.1283
39707W        W82624  29.178  34.564   2.797  0.0127 -0.0000 -0.1282
39708W        W82625  27.553   1.498   0.639  0.1467  0.0746  0.0744
39709W        W82626  27.083  33.703   2.815  0.2731  0.0285  0.2749
39710W        W82627  26.755  34.049   2.559 -0.3567  0.0902 -0.0795
39711W        W82628  27.508  33.182   3.398 -0.1591 -0.1270 -0.0454
39712W        W82629  28.300  32.037   4.131  0.1851 -0.1981  0.0638
39713W        W82630  24.089  31.458  29.578  0.2097 -0.3519 -0.0900
39714W        W82631  24.876   0.708   2.670  0.1514  0.1892 -0.1681
39715W        W82632  24.632   0.710   1.069 -0.1199  0.3583 -0.2898
39716W        W82633  28.351  34.666   2.664 -0.2663  0.0536 -0.0629
39717W        W82634  29.995  34.355   1.994  0.0985  0.3996  0.1456
39718W        W82635  26.171  33.822   3.161 -0.0488 -0.0188 -0.1917
39719W        W82636  27.766  34.057   2.352 -0.0499  0.0057  0.3099
39720W        W82637  26.917   0.470   1.018 -0.2618 -0.0699  0.0384
39721W        W82638  28.984  32.301   3.270 -0.3567 -0.0714 -0.0145
39722W        W82639  26.443  33.999   0.086 -0.2642 -0.2144  0.2393
39723W        W82640  27.099   0.109  31.002  0.0709  0.2213 -0.4309
39724W        W82641  26.407  31.838  31.893  0.0371  0.0315 -0.1072
39725W        W82642  26.780  34.437   3.456 -0.3417 -0.1968 -0.0724
39726W        W82643  25.275  34.062   2.893  0.2968  0.3350  0.0094
39727W        W82644  25.381  33.294  30.692  0.1792 -0.2604 -0.1304
39728W        W82645  28.460  31.764   3.750  0.0126  0.0293 -0.0794
39729W        W82646  26.145   0.030   0.143  0.2363  0.3562  0.0906
39730W        W82647  26.356   2.577   1.372 -0.0181 -0.0313  0.0394
39731W        W82648  26.735   0.896   1.728 -0.0373  0.3946 -0.0943
39732W        W82649  26.235  32.918   0.562  0.0528  0.3202  0.0781
39733W        W82650  25.407  34.427   0.257  0.0578  0.0258  0.0599
39734W        W82651  27.470  33.732  31.171  0.2996  0.0742  0.0498
39735W        W82652  28.330  34.140   2.429 -0.2790 -0.1603 -0.1298
39736W        W82653  28.039  33.645   2.201  0.3199  0.4165  0.0491
39737W        W82654  29.941  34.434   0.663  0.1235 -0.1220  0.1805
39738W        W82655  26.139   0.115   0.642 -0.6114  0.1285 -0.0213
39739W        W82656  22.852   0.091   1.299 -0.4735 -0.1744 -0.0828
39740W        W82657  28.586  33.508   0.659  0.1130 -0.2183 -0.1166
39741W        W82658  26.506   0.599   3.230  0.0605  0.0658 -0.2350
39742W        W82659  28.433  32.863   2.918  0.1321 -0.0139  0.1856
39743W        W82660  30.082  34.600  31.736  0.3574 -0.1351 -0.1467
39744W        W82661  24.838  32.821   2.539  0.1330  0.2712  0.0050
39745W        W82662  26.294  34.568   4.227 -0.0725 -0.0191 -0.0231
39746W        W82663  27.079  32.913   3.329 -0.0648 -0.2616 -0.0487
39747W        W82664  22.441  32.777   2.721  0.2567  0.4292 -0.1928
39748W        W82665  27.094   0.085   3.160 -0.0803  0.3314  0.0493
39749W        W82666  24.222  32.356  30.830  0.0255 -0.0639 -0.5029
39750W        W82667  28.408  32.680   1.249 -0.0566 -0.2671 -0.3331
39751W        W82668  26.094  33.348   0.739 -0.0126  0.2078 -0.2032
39752W        W82669  27.259  32.806   4.960  0.1034  0.2926 -0.0252
39753W        W82670  24.529  34.586   2.047  0.1463 -0.0765 -0.0688
39754W        W82671  26.362  33.599  31.676 -0.2919 -0.2788  0.0968
39755W        W82672  26.877   0.857   0.381 -0.1411  0.2558 -0.0449
39756W        W82673  27.446  33.889   3.954  0.0953 -0.1189  0.0327
39757W        W82674  26.972  34.275   1.596 -0.0616  0.2265  0.0635
39758W        W82675  25.551  33.583  31.586  0.0953  0.1399  0.1040
39759W        W82676  24.340   1.436   0.591 -0.2068  0.0316 -0.0432
39760W        W82677  28.437  33.619   1.536  0.1227 -0.0004 -0.1923
39761W        W82678  25.843  33.743   2.300  0.0016 -0.0905  0.0900
39762W        W82679  26.506  34.516   2.551 -0.1578 -0.0281 -0.1765
39763W        W82680  24.502   0.166   0.857 -0.1130 -0.1506 -0.2113
39764W        W82681  25.889  34.409  31.245  0.0536 -0.1791  0.1640
39765W        W82682  28.866  33.475   1.813 -0.1637 -0.4609  0.1805
39766W        W82683  29.320  32.801  31.868  0.2715 -0.3772  0.1330
39767W        W82684  26.594  31.907  30.964 -0.2622 -0.0775  0.2282
39768W        W82685  27.164  33.542  31.570 -0.0141 -0.0253  0.0204
39769W        W82686  26.408  33.855   2.115 -0.0961 -0.1941  0.0551
39770W        W82687  23.941  33.501  30.312  0.3312 -0.3672  0.1075
39771W        W82688  27.750  32.831   3.054 -0.1389 -0.1026 -0.0940
39772W        W82689  28.495  33.335   2.115  0.0061 -0.0757 -0.1190
39773W        W82690  26.002  32.101   1.097 -0.3250 -0.2583  0.0834
39774W        W82691  26.574  33.803   3.880 -0.0487  0.0041 -0.0103
39775W        W82692  28.697   1.214   4.038 -0.1371  0.1270  0.2010
39776W        W82693  28.260  33.719  30.382  0.1906  0.4357 -0.3890
39777W        W82694  28.952   0.852   0.943  0.1222 -0.1106 -0.2483
39778W        W82695  27.233   0.588  30.706 -0.2401  0.1673  0.0337
39779W        W82696  26.890   0.497   1.967 -0.1705 -0.1793  0.2712
39780W        W82697  27.681  31.617   1.903 -0.0208  0.0165  0.3062
39781W        W82698  27.873  32.995   2.025  0.5704  0.3323 -0.2416
39782W        W82699  28.716  32.410   3.821  0.1485 -0.0541  0.1538
39783W        W82700  30.017  32.247   3.376  0.2070 -0.0109  0.0564
39784W        W82701  24.833   0.067   0.057 -0.1066  0.1146  0.3830
39785W        W82702  26.534   0.254  31.784  0.2816 -0.0114 -0.3113
39786W        W82703  27.513  33.495   0.974 -0.1596 -0.2327 -0.1954
39787W        W82704  24.243  32.784   0.606  0.1504  0.3127  0.2516
39788W        W82705  28.287  34.476   0.707 -0.0167  0.0207 -0.0035
39789W        W82706  27.779   0.997   2.728  0.0317  0.1523  0.2433
39790W        W82707  27.307  31.783  31.565  0.1499  0.3554  0.0021
39791W        W82708  27.051  33.777   0.824 -0.2101 -0.0759  0.1265
39792W        W82709  24.890   1.134   0.336  0.1019  0.2611  0.0900
39793W        W82710  27.627   0.064   3.428 -0.3444  0.0121  0.2029
39794W        W82711  27.957   0.504   0.900 -0.0253  0.0837 -0.0321
39795W        W82712  25.750   1.336  31.161 -0.3333  0.0623 -0.1768
39796W        W82713  27.244   1.427   1.830 -0.1449 -0.1254 -0.0803
39797W        W82714  27.881   0.692   0.384 -0.5016  0.1262 -0.2118
39798W        W82715  26.864   1.194   1.379 -0.3157  0.0172  0.2193
39799W        W82716  27.056  33.300   0.695  0.2050 -0.1869  0.3588
39800W        W82717  28.015  33.902   0.273  0.1603  0.3524 -0.2797
39801W        W82718  26.852  32.068   2.171 -0.1044 -0.3923  0.1074
39802W        W82719  27.041   0.666   3.284 -0.1367 -0.1373  0.2064
39803W        W82720  28.560  33.073   0.939  0.2371  0.2107 -0.0888
39804W        W82721  29.244  33.777   1.178 -0.1335  0.1776 -0.1741
39805W        W82722  27.521  33.780   0.492  0.2539 -0.2702  0.0853
39806W        W82723  29.825   0.550   3.126 -0.0967  0.0333  0.1046
39807W        W82724  29.096   2.088   1.689 -0.1295 -0.1381 -0.1366
39808W        W82725  27.876  33.142   3.864  0.2603  0.0825  0.1166
39809W        W82726  26.603  33.466   1.903  0.2079  0.3364  0.1833
39810W        W82727  25.297   0.573   3.591  0.1996 -0.1604  0.1997
39811W        W82728  25.428  33.600   2.569  0.1923 -0.0837  0.2815
39812W        W82729  27.276   0.906   1.817  0.0879 -0.1842  0.0661
39813W        W82730  25.858  32.953  31.296  0.0838  0.1015 -0.0359
39814W        W82731  27.143   0.848   1.214  0.2473  0.1220 -0.0402
39815W        W82732  27.160   0.436   1.522  0.0344 -0.1827 -0.0551
39816W        W82733  26.404   1.410   1.367 -0.0310 -0.2232 -0.2767
39817W        W82734  25.516   0.644   0.425 -0.2659 -0.0418  0.2932
39818W        W82735  26.132  33.605   1.736 -0.0553 -0.2140 -0.1257
39819W        W82736  26.498  34.167   1.711  0.0083  0.1144  0.0468
39820W        W82737  27.760  32.308   3.883  0.0236  0.0341  0.0208
39821W        W82738  27.522  34.488   2.577 -0.0010 -0.1056 -0.1022
39822W        W82739  26.137  33.843   0.544 -0.0382 -0.1757  0.4723
39823W        W82740  25.168   0.232   2.595 -0.2511  0.1232 -0.3480
39824W        W82741  27.195  34.313   1.168 -0.0849 -0.1841  0.1126
39825W        W82742  27.450   1.255   2.399  0.0319  0.0221 -0.2009
39826W        W82743  29.800  34.495   2.930 -0.0123 -0.0887  0.0904
39827W        W82744  28.807   0.861   1.880  0.1572 -0.0614  0.2934
39828W        W82745  27.489   0.039   1.431  0.1358  0.0083  0.1648
39829W        W82746  26.400  33.312   4.120 -0.1016  0.2520 -0.1368
39830W        W82747  24.475  34.297   0.742 -0.0333 -0.1244 -0.1347
39831W        W82748  27.286  34.099   2.668  0.1440 -0.1470  0.0381
39832W        W82749  27.420   0.381   1.036 -0.2123  0.1214 -0.1188
39833W        W82750  24.807  33.281   0.309 -0.1164  0.1573  0.0607
39834W        W82751  23.549   1.319   0.125 -0.1627 -0.1013  0.0567
39835W        W82752  26.877   0.952  30.741  0.2263 -0.1229 -0.0829
39836W        W82753  26.728  32.394  31.044  0.0187  0.1121  0.1926
39837W        W82754  26.827  32.867   2.586  0.0230 -0.1607  0.0359
39838W        W82755  29.005  32.494   4.233  0.1278 -0.1162 -0.0473
39839W        W82756  27.415  33.963   1.993  0.0813 -0.2593 -0.1589
39840W        W82757  29.525   0.017   3.879  0.1604  0.0553  0.1676
39841W        W82758  27.251   0.716   0.630  0.4061  0.4459  0.2864
39842W        W82759  27.167  34.297   2.213  0.3338 -0.1880  0.1636
39843W        W82760  25.087   1.967   1.925 -0.1718  0.0048 -0.2510
39844W        W82761  24.854  33.716   2.568  0.1600  0.1309 -0.0880
39845W        W82762  27.578  34.019   1.004  0.3365  0.1321 -0.3358
39846W        W82763  26.188   0.701  31.771  0.0604  0.4826 -0.0869
39847W        W82764  30.730  31.159  29.480  0.0139 -0.2241  0.2403
39848W        W82765  28.481  33.862   1.983  0.2150  0.0559  0.0710
39849W        W82766  28.973  33.062   0.206  0.0629  0.1586 -0.0566
39850W        W82767  26.142   0.761   1.729  0.0667 -0.0713 -0.0271
39851W        W82768  26.089  31.730  29.997 -0.1513 -0.0130 -0.0374
39852W        W82769  25.376  33.889   1.010  0.1401  0.0326 -0.0310
39853W        W82770  29.426  31.940   3.516 -0.4178 -0.1417 -0.1156
39854W        W82771  27.359   0.766  31.572  0.1021 -0.0696 -0.3181
39855W        W82772  26.835  34.169   0.632  0.1038  0.2660  0.2459
39856W        W82773  28.245  32.259   3.666 -0.1489 -0.2002  0.0279
39857W        W82774  29.775  34.089   2.456 -0.4013  0.0990  0.0969
39858W        W82775  23.431  32.011   0.424 -0.1988  0.2260  0.1039
39859W        W82776  27.624  34.537   0.376  0.0984  0.3880 -0.0357
39860W        W82777  26.305  34.468   1.343 -0.1225 -0.1167  0.1009
39861W        W82778  29.130  33.191   3.446 -0.0059  0.0652  0.1474
39862W        W82779  25.130  33.545   0.704  0.2386 -0.1548 -0.0465
39863W        W82780  28.756   0.094   0.076 -0.2409  0.1791  0.0328
39864W        W82781  25.244  33.927   0.378  0.2301 -0.1984 -0.1891
39865W        W82782  25.142   0.254   0.467  0.1234  0.2551 -0.0496
39866W        W82783  29.682   1.110   2.307 -0.2447 -0.2372 -0.0181
39867W        W82784  27.020  33.944   0.227 -0.0195 -0.0952 -0.2185
39868W        W82785  24.210  33.211   1.505 -0.2928  0.2212 -0.0971
39869W        W82786  27.085  33.433  31.050  0.2456 -0.4268  0.0470
39870W        W82787  26.739  33.999  31.547 -0.1557 -0.1061 -0.1359
39871W        W82788  27.515  34.141   1.547  0.3840  0.1643  0.0702
39872W        W82789  22.956  33.175   3.006  0.1226  0.3685 -0.3527
39873W        W82790  29.909  34.383   3.461 -0.0490  0.2136  0.1515
39874W        W82791  29.385  34.550   0.753  0.1183  0.1729  0.1304
39875W        W82792  24.241  33.402   1.066 -0.1632 -0.3319  0.1558
39876W        W82793  28.931  31.644   2.506  0.1483  0.5677 -0.0214
39877W        W82794  26.735  34.152   1.164 -0.0397  0.4088 -0.0448
39878W        W82795  29.693   1.285   3.548  0.1804  0.0701 -0.0750
39879W        W82796  30.257  34.109   3.271 -0.2022  0.1761  0.1214
39880W        W82797  25.533  32.868   5.646  0.0427 -0.1352  0.3755
39881W        W82798  25.649   0.388  30.951 -0.1085 -0.1836  0.0213
39882W        W82799  27.317  32.954   1.246 -0.0609 -0.2547 -0.1830
39883W        W82800  27.962  33.644   0.693 -0.0380 -0.0481 -0.3117
39884W        W82801  27.579  33.630   1.594  0.1446 -0.2570  0.0172
39885W        W82802  26.581   0.760   2.218 -0.0329  0.1346 -0.1316
39886W        W82803  24.467   0.620  30.353  0.3044 -0.1939  0.2778
39887W        W82804  25.918  34.610   5.042  0.0286  0.1186 -0.0016
39888W        W82805  27.262  34.323   3.582  0.1288 -0.2279 -0.3367
39889W        W82806  25.751   1.244   0.900 -0.2570  0.0357 -0.0389
39890W        W82807  25.895  32.805  31.896  0.1205  0.3531  0.0595
39891W        W82808  25.882  32.327   2.351  0.0888  0.1856  0.4832
39892W        W82809  26.124  34.301   0.893 -0.0309 -0.3216 -0.0498
39893W        W82810  26.306  33.382   0.197 -0.0229 -0.0671 -0.0373
39894W        W82811  25.997  34.088   1.864  0.1144 -0.1146  0.0776
39895W        W82812  27.301  32.818   2.658 -0.3451 -0.2133  0.0426
39896W        W82813  24.797  34.165  31.335  0.3320  0.0116  0.0568
39897W        W82814  27.232   0.011   1.896 -0.0608  0.3927 -0.1082
39898W        W82815  25.197  33.532   2.110  0.0293 -0.4864 -0.1212
39899W        W82816  30.821  33.566   2.286 -0.2191 -0.2602  0.1262
39900W        W82817  29.172   0.456   0.682  0.2444  0.0516 -0.1872
39901W        W82818  27.430  32.536   3.495  0.0793  0.0620 -0.1147
39902W        W82819  27.888  32.076   1.908 -0.0690 -0.2586 -0.0519
39903W        W82820  26.048  32.538   0.852 -0.1214  0.0506 -0.0057
39904W        W82821  27.633  33.654   2.639  0.2923  0.0353 -0.1459
39905W        W82822  27.129   0.009   0.866 -0.1147  0.0565  0.2260
39906W        W82823  27.063   0.455   2.805 -0.4847  0.0909  0.2796
39907W        W82824  27.492   0.319   0.574 -0.2022  0.1213 -0.0644
39908W        W82825  28.897   1.532  31.948  0.1284 -0.0310 -0.1304
39909W        W82826  24.007  33.255   2.965 -0.4423  0.1157 -0.3367
39910W        W82827  26.305   0.750  31.254  0.2800  0.1616 -0.0235
39911W        W82828  27.558   0.938   0.953 -0.0796  0.0349 -0.2857
39912W        W82829  25.706   0.237   3.616  0.2970  0.3421  0.0757
39913W        W82830  26.333  33.319   2.282  0.0871 -0.1686  0.2543
39914W        W82831  26.310  33.844  30.279 -0.3950 -0.1889 -0.0609
39915W        W82832  25.731  34.358   5.888 -0.1556  0.0279  0.2349
39916W        W82833  26.646  32.545   4.915  0.0236  0.0898  0.0451
39917W        W82834  28.826  33.631   3.292  0.1627  0.2488  0.1527
39918W        W82835  26.980  31.710   3.892  0.0206  0.0251 -0.2422
39919W        W82836  23.495  33.105   5.877 -0.2549 -0.5306  0.1689
39920W        W82837  25.855   0.881   2.464  0.0207  0.0390 -0.0348
39921W        W82838  26.940  33.795   6.310  0.1033  0.1706  0.0469
39922W        W82839  27.195  31.160   5.354 -0.0260 -0.0545 -0.0014
39923W        W82840  24.704  32.612   5.875  0.0432  0.0903  0.1421
39924W        W82841  29.165  33.711   6.152  0.0706  0.3118 -0.1358
39925W        W82842  26.300  33.789   4.260 -0.2036  0.0387 -0.2544
39926W        W82843  27.118  33.372   5.102 -0.0440  0.2448 -0.0892
39927W        W82844  29.519  34.477   5.455  0.3517 -0.0650  0.3757
39928W        W82845  27.023  34.056   4.564 -0.3939 -0.0139  0.2924
39929W        W82846  26.489  34.101   5.284  0.0146  0.2069 -0.2325
39930W        W82847  23.839  34.652   1.641 -0.2990  0.1159  0.0353
39931W        W82848  25.248   0.381   4.677 -0.0892 -0.0771  0.2620
39932W        W82849  27.870  34.494   4.672  0.2582  0.0665 -0.0529
39933W        W82850  29.528  33.303   5.115 -0.1311 -0.2681 -0.5627
39934W        W82851  30.151  32.764   4.961  0.1028  0.0153  0.1024
39935W        W82852  26.256   0.973   6.799 -0.2856 -0.0873  0.2956
39936W        W82853  28.785   0.050   7.005 -0.0308  0.4159 -0.1733
39937W        W82854  28.938   1.192   3.563 -0.1764 -0.1413  0.0347
39938W        W82855  29.814  33.744   5.860 -0.2135 -0.0687 -0.0216
39939W        W82856  28.662  33.109   3.287  0.0249  0.4203 -0.2485
39940W        W82857  25.873   1.086   4.369  0.3204 -0.0104  0.0917
39941W        W82858  27.870  32.716   3.545 -0.1673  0.3774  0.0889
39942W        W82859  27.734  32.851   6.407  0.1503 -0.3870 -0.2644
39943W        W82860  26.057   0.160   5.586 -0.0110 -0.0310  0.0479
39944W        W82861  29.996  32.502   4.519  0.0276 -0.1412 -0.3052
39945W        W82862  28.942  32.407   5.154  0.1173 -0.0075 -0.1322
39946W        W82863  25.034  32.851   5.559 -0.0619 -0.2493 -0.0934
39947W        W82864  25.035   0.117   5.738 -0.1398 -0.1624 -0.2464
39948W        W82865  26.411   0.715   7.545 -0.0946 -0.3343  0.0871
39949W        W82866  24.733  34.463   6.489  0.1348 -0.0527  0.1121
39950W        W82867  26.161  34.469   2.937  0.0951 -0.0849 -0.2133
39951W        W82868  29.231  32.802   5.112  0.0995  0.1368  0.2808
39952W        W82869  27.147  31.530   6.053  0.0545  0.1852 -0.2276
39953W        W82870  28.723  31.371   5.077  0.1112 -0.2453  0.0499
39954W        W82871  28.376  34.673   4.449 -0.1387 -0.1592  0.0286
39955W        W82872  29.680  32.936   4.649  0.1788  0.1176  0.2340
39956W        W82873  24.913  33.188   6.478  0.0066  0.0876  0.3457
39957W        W82874  26.703  33.409   3.648 -0.1406  0.4410 -0.0932
39958W        W82875  25.358  33.741   6.637 -0.2395 -0.0712  0.4154
39959W        W82876  29.555  33.079   3.785 -0.0581 -0.4961  0.1064
39960W        W82877  30.831  33.924   4.810 -0.2216 -0.3618 -0.2716
39961W        W82878  26.427  34.395   5.674 -0.3409 -0.1330  0.0693
39962W        W82879  25.326  34.651   4.908  0.0753  0.1053  0.2368
39963W        W82880  28.401  33.683   7.025 -0.2270 -0.0348 -0.3364
39964W        W82881  24.308  32.429   5.623  0.3653  0.1849  0.0204
39965W        W82882  31.199  33.944   5.306  0.3492  0.0168  0.2200
39966W        W82883  24.488  32.767   1.578  0.1661 -0.0205 -0.2222
39967W        W82884  29.099  30.510   4.013  0.1345 -0.0186 -0.3064
39968W        W82885  26.132  33.368   4.943  0.2256  0.0624  0.2899
39969W        W82886  28.974  33.460   6.918  0.1349  0.0714  0.2131
39970W        W82887  26.681  33.508   5.974 -0.0416  0.0206  0.3907
39971W        W82888  25.566  33.892   1.915  0.0680 -0.0289 -0.2153
39972W        W82889  24.532  34.502   2.899 -0.1236 -0.3096 -0.1450
39973W        W82890  29.072  32.233   4.720 -0.0601 -0.1194 -0.0943
39974W        W82891  28.031   0.308   5.326  0.0183 -0.2364 -0.0467
39975W        W82892  27.771  33.678   3.577  0.3788  0.1883 -0.1339
39976W        W82893  25.836   0.024   4.540  0.0496 -0.3348 -0.2019
39977W        W82894  29.838  32.927   6.351 -0.2652  0.4230 -0.0502
39978W        W82895  24.920  34.545   6.923  0.1008  0.0162 -0.4145
39979W        W82896  28.912  32.963   5.464  0.0713  0.1285 -0.0794
39980W        W82897  26.590   0.014   3.087 -0.0637  0.2969  0.3212
39981W        W82898  26.775  31.819   6.321 -0.1187  0.1199  0.0993
39982W        W82899  30.234  30.030   2.425 -0.1827  0.0664  0.1170
39983W        W82900  26.912  33.124   2.176 -0.1466 -0.3743  0.2198
39984W        W82901  27.690  32.437   2.631 -0.0349 -0.2181 -0.0728
39985W        W82902  28.554  32.569   3.299 -0.0173 -0.0395 -0.0502
39986W        W82903  26.532  32.214   5.408  0.0428 -0.0290 -0.1240
39987W        W82904  25.685  34.662   1.720  0.2047  0.1198 -0.2809
39988W        W82905  29.365  32.384   3.845  0.0874  0.2078  0.0821
39989W        W82906  27.184  33.457   5.780 -0.0801 -0.2094  0.0689
39990W        W82907  28.331  32.784   3.698 -0.0587  0.2476 -0.0303
39991W        W82908  26.401  33.896   5.770 -0.3087  0.2213 -0.0786
39992W        W82909  29.619  32.177   7.480  0.0044 -0.0721 -0.0307
39993W        W82910  26.596  34.144   4.253 -0.0219 -0.1846  0.2347
39994W        W82911  29.209   0.118   5.150 -0.5270 -0.0884  0.0448
39995W        W82912  25.350  33.075   2.312 -0.2578 -0.1519  0.1648
39996W        W82913  27.205  34.486   5.776 -0.3958 -0.2463 -0.0363
39997W        W82914  27.367   1.292   6.938 -0.0049  0.0140  0.1282
39998W        W82915  25.528  33.035   4.796 -0.0082 -0.1339 -0.3351
39999W        W82916  25.510  34.453   5.423 -0.3273  0.1400  0.0241
40000W        W82917  29.748  32.091   4.788 -0.0963 -0.1111  0.1037
40001W        W82918  26.676  34.551   3.892 -0.0192  0.0288 -0.1507
40002W        W82919  24.376  33.671   2.971  0.0737 -0.0075  0.0186
40003W        W82920  29.741  32.103   4.199 -0.3126 -0.2590 -0.0352
40004W        W82921  26.238  32.479   4.506 -0.0471 -0.0611 -0.0304
40005W        W82922  25.333  34.038   4.477  0.0622  0.0144  0.4011
40006W        W82923  26.630  34.030   6.886 -0.0886  0.0166  0.1266
40007W        W82924  28.376  33.406   2.971  0.0551  0.4186 -0.1324
40008W        W82925  24.962   0.716   6.589  0.0125  0.1294  0.0777
40009W        W82926  25.155  33.846   1.659 -0.3108 -0.0036  0.0931
40010W        W82927  29.227  31.522   4.757  0.0568  0.2853 -0.0676
40011W        W82928  28.003  31.392   3.979  0.1154  0.2898  0.0247
40012W        W82929  26.630   0.011   1.712  0.0486 -0.2197 -0.2478
40013W        W82930  27.274  33.189   6.261 -0.2156  0.0781 -0.1392
40014W        W82931  28.909  33.362   5.767  0.2005 -0.0574 -0.0865
40015W        W82932  25.190  34.078   5.005  0.1858 -0.0736 -0.2760
40016W        W82933  27.903  33.959   5.741 -0.0026 -0.2035  0.0531
40017W        W82934  26.762  33.461   4.641 -0.0778  0.0864  0.3357
40018W        W82935  28.882  33.063   4.332 -0.3554  0.1440  0.3019
40019W        W82936  30.332  33.948   4.647  0.1742  0.2969 -0.0699
40020W        W82937  27.667  33.593   5.852 -0.0764 -0.0586  0.0606
40021W        W82938  29.738  33.598   3.217  0.0978 -0.0661  0.0113
40022W        W82939  30.168  32.299   5.034 -0.2676  0.1670  0.2715
40023W        W82940  29.486  32.671   6.673  0.2075  0.3136 -0.3336
40024W        W82941  25.670   0.699   3.933 -0.0132 -0.2072 -0.0742
40025W        W82942  27.830  31.932   5.381 -0.0422 -0.1938 -0.0841
40026W        W82943  25.406  31.832   6.304  0.1865  0.0922  0.1198
40027W        W82944  25.313  33.092   6.138 -0.0256  0.2987 -0.1839
40028W        W82945  27.199  34.208   6.425 -0.0486 -0.1766  0.1615
40029W        W82946  28.411  32.308   2.701  0.2136 -0.3884  0.2242
40030W        W82947  26.860  34.444   4.882  0.0181  0.0503  0.0505
40031W        W82948  28.249  34.627   5.056  0.0747 -0.2208  0.3643
40032W        W82949  29.737  31.611   4.608 -0.0707  0.0011  0.1345
40033W        W82950  27.652  34.132   4.404 -0.0568 -0.0856  0.1167
40034W        W82951  28.186  33.700   4.069  0.1972  0.0044 -0.0746
40035W        W82952  26.890  31.653   5.300 -0.0570 -0.0541 -0.1171
40036W        W82953  27.421  33.177   4.220 -0.1898  0.3565 -0.3010
40037W        W82954  28.915  31.222   4.567 -0.2585 -0.4267  0.1028
40038W        W82955  30.057  34.088   5.077 -0.0200  0.1939 -0.4679
40039W        W82956  28.540   0.370   5.847  0.1294 -0.0944  0.2557
40040W        W82957  27.600  31.417   6.205 -0.0157  0.0167 -0.2774
40041W        W82958  26.966  34.107   3.137 -0.0508 -0.0481 -0.0825
40042W        W82959  29.063  34.305   5.006  0.3708  0.0360  0.0749
40043W        W82960  30.179  32.853   2.697  0.0287  0.1444 -0.2837
40044W        W82961  26.623  33.607   2.972  0.3393  0.1852  0.2164
40045W        W82962  24.744  33.853   5.236  0.1597 -0.2257 -0.2416
40046W        W82963  30.151  34.205   6.056 -0.0164 -0.1064  0.1767
40047W        W82964  25.892  33.288   2.507  0.0742  0.1812  0.0760
40048W        W82965  28.252  33.135   6.472  0.2409  0.0598  0.0954
40049W        W82966  28.790  32.024   2.803 -0.3006  0.4121  0.0049
40050W        W82967  26.373  32.974   4.592  0.0905  0.3159  0.0279
40051W        W82968  26.037   1.555   5.761  0.1972 -0.0410 -0.2193
40052W        W82969  27.343  32.145   1.947 -0.1951 -0.1628 -0.0916
40053W        W82970  25.781  34.123   3.625  0.1708  0.2118  0.2081
40054W        W82971  28.031   0.118   5.926  0.0694 -0.0774  0.1212
40055W        W82972  27.475  32.133   4.573 -0.0655  0.0109 -0.0906
40056W        W82973  27.660   0.037   5.623  0.0235  0.0054  0.1507
40057W        W82974  30.665  32.756   4.410  0.3492 -0.1399 -0.1521
40058W        W82975  28.777  33.745   5.445  0.0980  0.1356  0.0004
40059W        W82976  28.627   0.663   6.325  0.0897  0.0192 -0.3694
40060W        W82977  26.682   0.294   6.331 -0.1367  0.0670 -0.1887
40061W        W82978  25.321   0.446   7.409 -0.1016  0.0443  0.1444
40062W        W82979  26.272  31.823   5.256  0.1296 -0.0625 -0.1345
40063W        W82980  25.086  33.671   4.225 -0.2630  0.1982  0.0959
40064W        W82981  28.424  31.031   4.201 -0.0594  0.0095 -0.0773
40065W        W82982  29.635   0.656   5.905 -0.4353  0.0195  0.3058
40066W        W82983  29.067  32.808   3.851  0.2394  0.2661  0.0871
40067W        W82984  28.047  34.479   6.469  0.1178  0.0036  0.0262
40068W        W82985  28.115  33.764   2.710  0.1929  0.1400 -0.1980
40069W        W82986  26.970  34.230   5.417  0.0756  0.1208  0.0395
40070W        W82987  29.002  32.992   6.786  0.0674  0.2597  0.1248
40071W        W82988  26.550  34.157   2.968 -0.1974 -0.0235 -0.2262
40072W        W82989  25.051  33.173   4.779 -0.0658  0.2666 -0.0495
40073W        W82990  30.890  32.936   6.431  0.1083 -0.2284  0.0376
40074W        W82991  27.879  33.811   4.774 -0.2921  0.0063 -0.1747
40075W        W82992  24.249   0.153   1.319 -0.0957 -0.1212 -0.2142
40076W        W82993  28.323  33.209   4.187 -0.0133  0.0074 -0.1622
40077W        W82994  27.083  32.982   6.740  0.0062  0.2911 -0.3071
40078W        W82995  24.890  31.766   5.442  0.4436 -0.1650  0.1778
40079W        W82996  29.285  32.689   3.440 -0.3957 -0.1425  0.0114
40080W        W82997  26.906   0.616   3.758 -0.0186  0.1219  0.3017
40081W        W82998  27.621  34.409   1.980 -0.2689  0.1855  0.0432
40082W        W82999  29.300   0.976   4.896 -0.0806  0.0332  0.2503
40083W        W83000  26.127  34.195   2.399  0.1243 -0.0056 -0.1832
40084W        W83001  26.294   0.405   5.213  0.3282 -0.0293  0.0870
40085W        W83002  27.382  33.253   2.930 -0.2336  0.0939 -0.0443
40086W        W83003  26.142   0.201   6.304  0.2813  0.2835 -0.1284
40087W        W83004  27.330  33.671   4.615 -0.0461 -0.0032 -0.0377
40088W        W83005  27.540  32.342   5.126 -0.3597 -0.1037  0.2423
40089W        W83006  29.988  33.953   4.190  0.1993  0.0520 -0.1167
40090W        W83007  28.427  34.561   3.414 -0.0491  0.2915 -0.2704
40091W        W83008  23.992  33.344   5.310 -0.0068  0.1661  0.0174
40092W        W83009  26.961  33.060   4.010  0.2740 -0.3354  0.0532
40093W        W83010  26.434   0.270   5.897 -0.1517  0.3596  0.1571
40094W        W83011  30.214  34.537   4.886  0.2198 -0.0502 -0.1804
40095W        W83012  29.935   0.157   5.431 -0.1963  0.0512  0.0236
40096W        W83013  29.941  32.629   7.573  0.1493  0.0572 -0.0290
40097W        W83014  28.252   0.287   3.824  0.0799  0.0344 -0.1160
40098W        W83015  28.615  34.244   5.231 -0.0632  0.2341 -0.4078
40099W        W83016  31.753  33.690   0.870 -0.1652  0.0034  0.0185
40100W        W83017  28.629  30.588   3.887 -0.0749  0.1367  0.1428
40101W        W83018  27.811   1.358   5.931 -0.2375  0.1304  0.1077
40102W        W83019  28.335  34.057   3.660  0.0812  0.1831 -0.2520
40103W        W83020  26.876  32.399   6.086 -0.1768  0.1110 -0.2802
40104W        W83021  26.097  33.703   5.286 -0.1234  0.1231 -0.0657
40105W        W83022  26.282  34.274   3.415  0.0988  0.0546 -0.2761
40106W        W83023  25.864  33.862   5.833  0.2075 -0.2216 -0.0335
40107W        W83024  27.438  32.232   6.598  0.0600 -0.0675 -0.0037
40108W        W83025  25.942  32.335   6.639  0.0994  0.1259  0.1426
40109W        W83026  27.151  31.180   3.571  0.1545 -0.1244 -0.4609
40110W        W83027  28.037  30.681   6.270 -0.0338 -0.0319  0.0402
40111W        W83028  29.005  32.486   6.791 -0.1484  0.1113 -0.1242
40112W        W83029  24.577  33.458   5.007 -0.1846 -0.1323 -0.1065
40113W        W83030  26.006  33.731   6.512  0.1078  0.0973 -0.2337
40114W        W83031  25.463  32.709   8.228 -0.3418  0.0287 -0.0756
40115W        W83032  28.336  30.701   5.871  0.0541  0.3363  0.2589
40116W        W83033  26.903  33.602   4.152 -0.2103  0.3724 -0.4291
40117W        W83034  28.007  31.027   5.616  0.0367 -0.0464 -0.0271
40118W        W83035  28.527  33.267   5.391 -0.1660 -0.0652  0.3095
40119W        W83036  25.668  32.935   4.020 -0.1323 -0.2594  0.1440
40120W        W83037  26.728  33.265   5.513  0.3357 -0.2192 -0.2585
40121W        W83038  26.036   1.499   4.096  0.3729  0.1282  0.1453
40122W        W83039  26.865  34.569   6.527  0.2883  0.0932 -0.0685
40123W        W83040  25.368   1.194   4.479  0.1521  0.0280 -0.2282
40124W        W83041  27.868  33.416   3.021 -0.2933  0.2583 -0.1343
40125W        W83042  22.197  32.596   6.966  0.1381 -0.0567 -0.3228
40126W        W83043  26.033   2.159   4.641 -0.1141  0.2998 -0.2583
40127W        W83044  28.228   1.397   3.733  0.0962  0.1815 -0.3235
40128W        W83045  29.121   1.356   5.573  0.0036 -0.0302  0.0420
40129W        W83046  28.466  32.915   5.736  0.0969  0.1822 -0.3057
40130W        W83047  28.748  33.325   4.873  0.2979  0.3543 -0.0078
40131W        W83048  26.360  33.077   6.091 -0.1292 -0.0811 -0.1124
40132W        W83049  29.357  33.797   4.960 -0.0925  0.2649  0.3371
40133W        W83050  29.675  33.869   7.927 -0.2784  0.2344 -0.2789
40134W        W83051  26.202  33.744   7.005 -0.1243 -0.2331  0.0794
40135W        W83052  29.418  34.421   7.704 -0.3604  0.1952  0.0173
40136W        W83053  25.817  32.704   8.804 -0.1952  0.1132 -0.3351
40137W        W83054  28.073  31.165   6.089 -0.3001 -0.2423  0.1436
40138W        W83055  26.370  33.086   8.119 -0.0475  0.0342 -0.2130
40139W        W83056  29.372  32.084   8.260  0.0267 -0.0056  0.4409
40140W        W83057  25.245  33.291   8.796  0.1497  0.0497  0.2986
40141W        W83058  27.332  33.984   7.848 -0.2076  0.1054 -0.2399
40142W        W83059  28.523  33.838   9.293 -0.0801  0.0577  0.2220
40143W        W83060  29.061  32.383   8.809 -0.0774 -0.1556  0.0025
40144W        W83061  25.973  33.193   6.499 -0.1437  0.3159 -0.4213
40145W        W83062  25.391   0.471   7.898 -0.0050 -0.0567  0.0499
40146W        W83063  27.372  31.661   8.009 -0.1386 -0.0145  0.1525
40147W        W83064  29.424  32.983   8.154  0.0636 -0.2379 -0.0756
40148W        W83065  27.403   0.597   7.446  0.0397 -0.1482 -0.1341
40149W        W83066  28.248  34.568   9.221 -0.0794 -0.1103 -0.0420
40150W        W83067  27.448   0.040   7.246  0.0422  0.0510  0.0143
40151W        W83068  28.716  33.986   7.954  0.0464 -0.0666  0.0069
40152W        W83069  26.228  34.151   6.631 -0.2274 -0.0985  0.2938
40153W        W83070  28.686  34.117   6.885  0.0843 -0.0615  0.0379
40154W        W83071  28.500  32.039   6.405 -0.0314  0.1350  0.0327
40155W        W83072  26.893  33.563   7.549 -0.0407 -0.1205 -0.3543
40156W        W83073  27.739   0.225   6.401 -0.2586  0.1774  0.1236
40157W        W83074  29.005  28.648   8.633  0.0083  0.3695  0.3617
40158W        W83075  25.650   1.091   8.963  0.2587 -0.1114  0.0674
40159W        W83076  27.999  34.561   7.410 -0.1813 -0.1456 -0.1762
40160W        W83077  27.521  30.239   5.408 -0.2172 -0.1318 -0.3649
40161W        W83078  29.553  33.451   8.226  0.0937 -0.0094 -0.1710
40162W        W83079  28.866  34.543   8.291  0.0525  0.2489  0.2752
40163W        W83080  28.832  33.458   9.065  0.0147 -0.0899 -0.0094
40164W        W83081  29.339  33.306   6.586 -0.0598  0.0763 -0.0323
40165W        W83082  23.729  31.755   9.279  0.3026  0.0642 -0.3411
40166W        W83083  29.364   0.680   6.364 -0.0710 -0.1699 -0.0298
40167W        W83084  28.757  32.015   8.285 -0.1460  0.4472 -0.0219
40168W        W83085  29.299   0.590   7.473 -0.2085 -0.0326 -0.1624
40169W        W83086  26.048  30.901   8.628  0.0190  0.0011  0.0969
40170W        W83087  25.874   0.566   7.908  0.0539  0.3206  0.3332
40171W        W83088  26.483  34.372   8.161 -0.0374 -0.0725  0.2873
40172W        W83089  25.225  33.228   8.206  0.4589 -0.0934  0.1798
40173W        W83090  27.868  34.642   7.929  0.1154  0.3375 -0.0460
40174W        W83091  26.489  33.808   8.729  0.1036  0.2103 -0.0114
40175W        W83092  29.696  33.561   9.618 -0.2082 -0.1430  0.2544
40176W        W83093  25.330  32.325   9.018  0.0465 -0.1498  0.1601
40177W        W83094  25.506  30.937   8.235  0.0995 -0.0519  0.1057
40178W        W83095  28.935  34.449   7.798  0.0334  0.3672  0.2333
40179W        W83096  26.952  32.276   6.565  0.4156  0.0605 -0.0020
40180W        W83097  26.591   0.295   7.732 -0.2339 -0.2134 -0.2853
40181W        W83098  29.093  32.492   8.242  0.2209 -0.1883  0.0633
40182W        W83099  27.499  32.265   5.644  0.0254  0.1667  0.3211
40183W        W83100  29.347  33.156   7.170 -0.2991 -0.0968  0.0536
40184W        W83101  28.342  32.261   5.255  0.1721  0.2466  0.3071
40185W        W83102  28.382  34.508   6.850  0.0565 -0.2644  0.1048
40186W        W83103  29.580  32.737   5.905  0.0172  0.1470  0.1523
40187W        W83104  28.407  33.695   7.598  0.2754  0.1350  0.1422
40188W        W83105  28.271  33.381   9.048 -0.2195 -0.0294 -0.0054
40189W        W83106  27.485   0.371   6.863 -0.1367 -0.0854  0.1306
40190W        W83107  27.248   0.048   6.230 -0.2911  0.1339 -0.2985
40191W        W83108  30.322  32.667   9.541  0.0187 -0.3679  0.3557
40192W        W83109  28.675  32.485   9.233  0.2128  0.2353  0.1056
40193W        W83110  28.243  34.079   7.291 -0.0336  0.0160 -0.0555
40194W        W83111  27.884   1.209   9.605  0.0083 -0.0910 -0.0423
40195W        W83112  25.623  32.826   6.424  0.1268 -0.0652 -0.2856
40196W        W83113  28.695  32.620   8.560  0.1579 -0.0398 -0.2466
40197W        W83114  29.610  32.999   7.547 -0.2297 -0.0265  0.0620
40198W        W83115  25.767  32.327   8.443 -0.1035  0.1562 -0.1938
40199W        W83116  27.122  31.679   7.496  0.2376 -0.0309 -0.2115
40200W        W83117  28.942  30.553   9.401  0.2210 -0.0485  0.2919
40201W        W83118  24.565   0.849   6.901 -0.1452 -0.0836 -0.3551
40202W        W83119  29.178  32.139   7.772 -0.1146  0.1168  0.4240
40203W        W83120  24.928  31.362   8.959 -0.0132 -0.1266 -0.1338
40204W        W83121  28.615  33.209   8.699  0.1025  0.0661  0.0740
40205W        W83122  27.245  31.803   6.541 -0.0502  0.0666  0.2350
40206W        W83123  28.418  32.465   6.082 -0.0226 -0.2647  0.0777
40207W        W83124  28.447  34.213   8.336 -0.0821 -0.1573  0.0798
40208W        W83125  29.654  32.609   7.121 -0.3891 -0.2413  0.0840
40209W        W83126  27.604  32.996   5.887  0.0132  0.0804 -0.1154
40210W        W83127  25.882   0.621   8.813  0.1574 -0.0735 -0.0121
40211W        W83128  27.710  33.159   7.456 -0.2184 -0.0017 -0.3150
40212W        W83129  28.149  32.422   7.043 -0.0500 -0.0283 -0.0780
40213W        W83130  27.830   0.326  13.272 -0.0803 -0.0356 -0.1004
40214W        W83131  30.112  33.161   9.456  0.1233 -0.0192  0.1539
40215W        W83132  27.086  31.947   9.021 -0.2757 -0.2299  0.2101
40216W        W83133  28.701   1.109   6.906  0.2045  0.1204 -0.1516
40217W        W83134  29.727  31.316   7.745  0.1494 -0.3336  0.3736
40218W        W83135  27.767  34.248   7.094  0.0379  0.1194  0.1088
40219W        W83136  28.372   1.344   7.486  0.1085 -0.2290  0.0354
40220W        W83137  28.260  32.373   7.596 -0.1240  0.0427 -0.1318
40221W        W83138  27.899  33.864   7.665  0.0564 -0.1214  0.1325
40222W        W83139  27.603  32.438   6.134 -0.2676 -0.4018  0.3171
40223W        W83140  28.928   0.960   8.757  0.2139  0.2697 -0.0803
40224W        W83141  29.113   1.130   6.378 -0.1498  0.0773  0.0604
40225W        W83142  25.335  33.585   7.255 -0.4254 -0.0012 -0.1471
40226W        W83143  28.928   0.716   5.950 -0.0749  0.1462  0.1343
40227W        W83144  28.873  33.449   7.773 -0.0233 -0.2355 -0.3365
40228W        W83145  29.269  33.128   5.987  0.1178  0.0952  0.0970
40229W        W83146  27.759  33.316   8.982 -0.0545 -0.0050 -0.0130
40230W        W83147  30.293   0.260   8.300  0.1352 -0.0364  0.0877
40231W        W83148  29.404  33.433   7.778  0.2203  0.0810 -0.3370
40232W        W83149  26.529  33.691   6.470  0.1708 -0.1806  0.0512
40233W        W83150  26.492  32.388   6.995  0.2904  0.0073 -0.0847
40234W        W83151  29.509  33.901   8.452  0.0909 -0.0520 -0.0577
40235W        W83152  24.359  34.506   8.271 -0.2386 -0.0154 -0.1389
40236W        W83153  27.244  32.674   6.392 -0.1038  0.0524  0.0493
40237W        W83154  27.424  33.704   6.316  0.0200 -0.1332  0.4024
40238W        W83155  26.496  31.369   6.843 -0.1584  0.2478 -0.0113
40239W        W83156  27.418  32.910   7.133  0.3167 -0.2431  0.1488
40240W        W83157  30.650  33.129   9.496 -0.0621  0.1667 -0.2346
40241W        W83158  28.110  33.307   7.857 -0.1016 -0.2771  0.1141
40242W        W83159  25.493  34.229   8.010 -0.1334  0.0873  0.0335
40243W        W83160  26.470   0.268   7.173 -0.0366 -0.1822  0.0564
40244W        W83161  27.623  31.771   7.612 -0.0378 -0.2279 -0.1876
40245W        W83162  28.945  34.176   6.123 -0.1104  0.4245 -0.1723
40246W        W83163  27.973  32.331   5.755 -0.1862 -0.1797 -0.0506
40247W        W83164  27.570  33.241   6.725 -0.2270  0.1033  0.1570
40248W        W83165  28.260  31.952   5.616  0.3354 -0.0453  0.1281
40249W        W83166  28.345  30.618   9.333  0.3426  0.0852 -0.2976
40250W        W83167  28.882  32.657   7.276  0.2111  0.2189  0.1490
40251W        W83168  26.497  32.554   7.869 -0.1472  0.4107  0.1103
40252W        W83169  27.955   0.097   6.900  0.0505  0.0513 -0.1523
40253W        W83170  26.862   0.674   9.241 -0.2115 -0.2648  0.0752
40254W        W83171  30.278  33.036   8.222 -0.0512 -0.1115 -0.1025
40255W        W83172  24.609  33.094   6.823 -0.0372  0.3558 -0.0016
40256W        W83173  29.122  33.045   7.621 -0.1071  0.1334 -0.0199
40257W        W83174  25.031   3.040  12.754  0.0013  0.2205  0.0970
40258W        W83175  28.507  33.190   6.858  0.1540  0.0181  0.2110
40259W        W83176  29.534  34.433   7.219 -0.2018 -0.2419  0.1403
40260W        W83177  31.066   1.711   9.244  0.2383  0.1182 -0.2020
40261W        W83178  27.986  32.970   6.883  0.3305 -0.0830 -0.0529
40262W        W83179  30.316  32.148   6.635  0.1637  0.0253 -0.3237
40263W        W83180  26.827  32.277   8.616  0.1383 -0.1503 -0.0547
40264W        W83181  29.519  34.164   6.238 -0.4766  0.2687 -0.1261
40265W        W83182  26.579  33.554   7.961 -0.0830  0.1062  0.3031
40266W        W83183  26.703   1.010   8.783  0.2469  0.1152  0.3251
40267W        W83184  27.603  32.815   8.864  0.0663 -0.1995  0.3470
40268W        W83185  29.221   0.145   9.813 -0.0622 -0.2478 -0.0071
40269W        W83186  27.778  34.159   8.027 -0.2045 -0.1623  0.3645
40270W        W83187  26.916  32.835   8.838 -0.2881 -0.1505 -0.2521
40271W        W83188  28.635  32.838   6.370  0.2304 -0.3660  0.0767
40272W        W83189  26.216   0.105   7.991  0.0674 -0.1583  0.0949
40273W        W83190  27.168  33.046   5.523 -0.0968 -0.1705  0.0391
40274W        W83191  28.167  33.810   8.073  0.1092 -0.0743 -0.2187
40275W        W83192  27.507  33.169   8.016  0.4922 -0.0064 -0.2845
40276W        W83193  31.018  32.676   6.819 -0.0926 -0.0062  0.2385
40277W        W83194  27.450  33.534   7.700  0.1140 -0.1292 -0.0073
40278W        W83195  24.729  34.152   8.514 -0.1139 -0.1519 -0.1748
40279W        W83196  27.922  32.127   6.651  0.1187  0.0162  0.0934
40280W        W83197  25.037  33.476   9.208 -0.0878 -0.1028  0.3398
40281W        W83198  26.547  32.878   6.859  0.1423  0.1602  0.1365
40282W        W83199  27.091  34.355   7.561  0.2159  0.2836 -0.0400
40283W        W83200  25.709   0.038   7.789  0.2038  0.0158  0.0978
40284W        W83201  30.125  32.272   7.133 -0.2300 -0.0240 -0.1741
40285W        W83202  28.080  31.623   6.402  0.0131 -0.1894  0.1885
40286W        W83203  26.676   1.083   8.306 -0.2732  0.0676 -0.2487
40287W        W83204  27.391  32.408   7.289  0.0841 -0.1206 -0.2382
40288W        W83205  30.105  31.911  10.028  0.4440 -0.1913 -0.0989
40289W        W83206  26.759  34.130   8.558  0.0274 -0.1410 -0.0819
40290W        W83207  27.257  33.290   8.950 -0.1084 -0.1703 -0.3138
40291W        W83208  28.792  33.241   7.292  0.1123 -0.2109  0.1595
40292W        W83209  25.679  32.551   7.780 -0.3858  0.0531  0.3167
40293W        W83210  27.802  33.228   9.634  0.1152 -0.2671  0.0711
40294W        W83211  28.763   0.551   7.052 -0.3009  0.2831 -0.2192
40295W        W83212  29.197  34.519   5.867 -0.0529  0.5309  0.1672
40296W        W83213  28.019  32.330   8.136 -0.1094  0.0533 -0.1498
40297W        W83214  28.140   0.579   6.277  0.1118  0.2199 -0.1484
40298W        W83215  27.085  33.531   7.994  0.0974  0.0363 -0.1955
40299W        W83216  29.792  31.841   7.816 -0.0500 -0.2946 -0.0541
40300W        W83217  28.620  32.218   7.159  0.0271  0.0320 -0.1385
40301W        W83218  28.704  32.210   7.616 -0.0830  0.1932 -0.0038
40302W        W83219  29.439   3.720   3.270 -0.1984 -0.1120 -0.3161
40303W        W83220  29.191   2.166   0.607 -0.0322  0.0761  0.0423
40304W        W83221  30.751   0.465  31.111  0.3008  0.1805 -0.3110
40305W        W83222  33.034   1.056   3.220 -0.0822  0.1553 -0.3165
40306W        W83223  29.545   0.864   0.817 -0.1694 -0.0822  0.1286
40307W        W83224  31.918   0.259   1.219  0.1441 -0.4733 -0.1936
40308W        W83225  29.929  33.785   1.944  0.0665 -0.0127 -0.2359
40309W        W83226  28.370   2.484   1.618  0.2121  0.0113 -0.0711
40310W        W83227  31.671   4.856   4.251  0.1610 -0.1056 -0.0164
40311W        W83228  30.032   3.676   0.113  0.0878  0.0174  0.0118
40312W        W83229  31.520  34.548   3.791 -0.0794  0.4383  0.1645
40313W        W83230  31.009   3.371   3.826  0.1997  0.0479  0.2203
40314W        W83231  31.015   0.025  30.953  0.1814  0.1100  0.0972
40315W        W83232  30.460   1.835   2.201  0.2191  0.0749  0.0242
40316W        W83233  32.076   0.722   1.203 -0.3673 -0.1157  0.1243
40317W        W83234  27.933   2.005   0.822 -0.3730  0.1030 -0.0166
40318W        W83235  29.306   1.483   3.225 -0.2564  0.1381 -0.4562
40319W        W83236  30.972  33.223   0.920 -0.0067 -0.0179  0.1518
40320W        W83237  30.508   4.447   1.022  0.3354  0.2507 -0.2338
40321W        W83238  31.556   0.859   1.139  0.2068  0.2813 -0.1795
40322W        W83239  31.459  34.249   4.248  0.2403 -0.0605 -0.0465
40323W        W83240  30.590   1.840  30.866  0.1247  0.1664 -0.1703
40324W        W83241  30.523   1.783  31.394 -0.0665  0.1446 -0.0587
40325W        W83242  29.274   2.873   2.436 -0.0620  0.1044  0.0022
40326W        W83243  30.638   1.018   2.497  0.0139 -0.3697 -0.5316
40327W        W83244  32.302  34.561   3.219  0.3102  0.1064 -0.1709
40328W        W83245  30.355   0.751  31.504 -0.2689 -0.0772  0.0914
40329W        W83246  30.945   2.135   1.128 -0.0055 -0.1284  0.3537
40330W        W83247  31.576   4.203   0.511  0.1557 -0.0691  0.0260
40331W        W83248  32.696   1.231   4.792  0.1522 -0.1389  0.0902
40332W        W83249  28.946   3.735   1.908  0.1103  0.1378 -0.2215
40333W        W83250  31.112   2.578   1.540  0.1304 -0.4132 -0.1070
40334W        W83251  30.736   3.044   1.274 -0.3837 -0.1309 -0.0371
40335W        W83252  32.874   2.049   2.522  0.4179 -0.3409  0.3085
40336W        W83253  32.782   1.916   3.950 -0.0894  0.0060 -0.3728
40337W        W83254  30.892   3.687   4.250  0.1029 -0.1323 -0.2160
40338W        W83255  28.685   2.430  31.786 -0.2077  0.0031 -0.3273
40339W        W83256  32.367   4.708   4.275  0.0394  0.1682 -0.0230
40340W        W83257  31.126   2.856   2.990 -0.3291 -0.3631  0.0442
40341W        W83258  31.930   0.943   1.632  0.1833  0.0770 -0.0604
40342W        W83259  28.909  34.527   1.388 -0.0973  0.3345  0.0459
40343W        W83260  28.272   2.436   0.146 -0.0378  0.1084  0.1128
40344W        W83261  31.902   2.990   2.901  0.1187 -0.0019 -0.3076
40345W        W83262  30.262   1.895   4.074 -0.2937 -0.0616 -0.1005
40346W        W83263  28.103   2.671   3.709 -0.0809  0.1814  0.0759
40347W        W83264  32.939  34.125   3.645 -0.1105  0.0303  0.0161
40348W        W83265  27.598   1.970  30.809  0.1309 -0.2032 -0.1891
40349W        W83266  28.550   0.384  30.196  0.1342 -0.1492  0.0475
40350W        W83267  32.886  34.127  30.696  0.0730  0.0793 -0.1901
40351W        W83268  30.388   0.607   0.395  0.0386  0.0871 -0.0986
40352W        W83269  31.427  33.123   1.055  0.0320 -0.1370  0.0234
40353W        W83270  29.087   3.251  31.872  0.0875  0.4962  0.2045
40354W        W83271  31.815   2.153   2.792 -0.0914 -0.0316  0.2311
40355W        W83272  33.948   1.078   3.474 -0.0161 -0.2655 -0.2706
40356W        W83273  30.539   0.328   1.003 -0.0082 -0.0525 -0.3067
40357W        W83274  30.963   3.192   3.297  0.1322  0.2978 -0.1735
40358W        W83275  30.462   3.185   2.307 -0.2082 -0.1614 -0.3900
40359W        W83276  26.790   3.123   1.009  0.0642  0.0580  0.3695
40360W        W83277  32.868   4.692   0.167  0.3205 -0.1533 -0.0611
40361W        W83278  32.365   3.811   1.256  0.1522  0.2832 -0.1746
40362W        W83279  31.035   3.130  31.407 -0.0484 -0.2987 -0.2487
40363W        W83280  29.481   2.427   1.716  0.0219 -0.0240 -0.2407
40364W        W83281  30.179   1.134   4.688  0.1736  0.2389  0.0403
40365W        W83282  30.102   0.949   1.600  0.0608 -0.1168  0.2451
40366W        W83283  31.239  33.607   1.072  0.0142 -0.1397 -0.0291
40367W        W83284  32.971   1.997   3.476  0.2403 -0.0305 -0.0237
40368W        W83285  30.827   4.188   2.399  0.0316 -0.0741 -0.1281
40369W        W83286  31.564   1.409   2.705 -0.2115  0.3699 -0.3371
40370W        W83287  29.066   3.294   2.124 -0.1135 -0.2814 -0.1464
40371W        W83288  32.579   3.699   3.070  0.2687  0.0122 -0.1514
40372W        W83289  31.957   1.984   1.135  0.0782  0.4587 -0.0640
40373W        W83290  32.840  34.187   2.078  0.1916 -0.4712 -0.1503
40374W        W83291  31.397  34.007   3.751 -0.0299  0.1461 -0.2626
40375W        W83292  29.433   0.928  29.910  0.2534 -0.1884 -0.3298
40376W        W83293  30.829   2.324   0.675 -0.0623  0.3448 -0.1958
40377W        W83294  32.225   3.807   3.458 -0.0399  0.1903  0.2264
40378W        W83295  32.416   2.660   1.497 -0.2682  0.1579 -0.0448
40379W        W83296  30.431   2.437   2.923 -0.2637 -0.0921  0.0935
40380W        W83297  31.961   1.578   4.375 -0.0529 -0.0043 -0.3541
40381W        W83298  29.920   3.269   3.961  0.1504 -0.0100 -0.1089
40382W        W83299  31.118   2.801  30.386 -0.1894  0.0569 -0.0559
40383W        W83300  30.121   1.049   1.131  0.1283 -0.0974  0.1514
40384W        W83301  28.250   3.751   0.402  0.2528  0.1549 -0.0377
40385W        W83302  29.935   0.142   2.157 -0.0128 -0.0137 -0.2832
40386W        W83303  31.739   2.620   2.424 -0.0342 -0.1637 -0.2378
40387W        W83304  33.200   0.760   0.013  0.1004 -0.2557 -0.4271
40388W        W83305  29.319  33.864   3.182  0.0045 -0.1458  0.2092
40389W        W83306  32.754   0.451   0.616  0.0668  0.4462 -0.0011
40390W        W83307  29.976   0.606   0.077  0.1889 -0.1643  0.3041
40391W        W83308  32.660   4.367  31.818  0.4066 -0.0984 -0.0113
40392W        W83309  32.762   0.957  31.840  0.0355 -0.2217  0.1647
40393W        W83310  31.211   3.500   0.177  0.0257  0.0684 -0.1578
40394W        W83311  29.435   1.267   2.706  0.0775  0.0556  0.3734
40395W        W83312  28.693   1.328   2.013  0.0826  0.1753 -0.3215
40396W        W83313  30.257  33.988   2.229 -0.0282 -0.0192 -0.2023
40397W        W83314  28.088   0.701   2.217  0.0913  0.2427  0.0607
40398W        W83315  29.495   3.988   4.350 -0.0611 -0.2005 -0.1501
40399W        W83316  30.223  34.416  30.539  0.1055  0.1041  0.2014
40400W        W83317  33.664   0.730   0.268 -0.4865 -0.1950  0.1819
40401W        W83318  29.964   2.427   0.900  0.3142  0.0559 -0.2187
40402W        W83319  29.589   1.490   1.064 -0.0734  0.1919  0.3822
40403W        W83320  31.069  33.807   2.705  0.0178  0.1960 -0.2382
40404W        W83321  30.293   2.150  31.214 -0.3135 -0.3244  0.2239
40405W        W83322  31.958   3.469   3.119 -0.0161 -0.1817  0.2103
40406W        W83323  31.508   2.354   2.016  0.2255  0.1542  0.1992
40407W        W83324  27.307   0.942   2.849  0.1188 -0.0513  0.0796
40408W        W83325  29.362   0.024   1.262  0.0434  0.3908 -0.0071
40409W        W83326  30.235   3.396   1.293  0.0318 -0.0288 -0.0106
40410W        W83327  31.255   1.261   1.217  0.1962 -0.1661  0.0661
40411W        W83328  30.191  33.247  31.929  0.1702  0.0180  0.0496
40412W        W83329  32.499   0.910   1.610  0.1081 -0.0903 -0.0368
40413W        W83330  29.303   1.569   1.419 -0.2096 -0.2886 -0.0708
40414W        W83331  30.516   3.416   1.754 -0.1112 -0.0841  0.1911
40415W        W83332  32.215  34.606   3.737 -0.0246  0.0318  0.0838
40416W        W83333  31.664   2.276   4.227 -0.1021  0.0576  0.1046
40417W        W83334  30.306   2.288   0.504  0.3749  0.0214  0.1019
40418W        W83335  31.222   0.623   0.079  0.0346  0.0739  0.1828
40419W        W83336  28.904   2.682   2.720  0.1001 -0.3237 -0.0588
40420W        W83337  29.255   2.256   1.212  0.2124  0.0584 -0.1451
40421W        W83338  29.957   3.419   1.900  0.1347  0.2092  0.2463
40422W        W83339  31.467   1.365   0.774  0.2320 -0.2654  0.1295
40423W        W83340  32.420   1.686   1.271 -0.2277  0.0946  0.0717
40424W        W83341  30.150   1.127   3.828  0.1838  0.2183 -0.1573
40425W        W83342  32.026   1.210   4.026  0.2269 -0.0698  0.3340
40426W        W83343  28.105   2.919   0.293  0.2008 -0.0736 -0.0087
40427W        W83344  30.861   2.670   2.105 -0.0551  0.2039 -0.2166
40428W        W83345  32.952   1.344   0.124 -0.1199 -0.0724 -0.3898
40429W        W83346  33.559   0.616   0.855 -0.2142  0.2512 -0.4593
40430W        W83347  33.090   1.537   4.706 -0.3265 -0.3340 -0.1474
40431W        W83348  31.537   2.663   1.285 -0.3480  0.0280 -0.0522
40432W        W83349  30.960   0.609  30.633  0.0624 -0.2352 -0.2348
40433W        W83350  28.993   0.401  29.273 -0.1756  0.0513  0.3912
40434W        W83351  30.071   3.112   3.471 -0.0968  0.0726 -0.0543
40435W        W83352  31.575   1.845   1.855 -0.2785  0.0805  0.0122
40436W        W83353  33.204   2.221   2.873 -0.0098  0.1820  0.0272
40437W        W83354  32.517   0.649  31.504  0.2263 -0.0142 -0.2911
40438W        W83355  32.953   3.812   1.048 -0.1675 -0.2576  0.1764
40439W        W83356  29.998   2.724   3.154 -0.1030  0.0208 -0.2920
40440W        W83357  32.214   2.532   2.672 -0.3009  0.0218  0.0612
40441W        W83358  32.316   3.237   2.811  0.1253  0.0315  0.1754
40442W        W83359  30.629  34.496   3.811  0.1265  0.0006 -0.0781
40443W        W83360  30.755   3.269  31.760  0.0210 -0.1149 -0.2189
40444W        W83361  31.802  34.524   3.361 -0.0377 -0.1668  0.1276
40445W        W83362  27.515   3.472  31.358  0.1827 -0.0765 -0.1100
40446W        W83363  32.214   0.478   1.691  0.0750  0.1495  0.3117
40447W        W83364  31.755  32.608   1.837  0.0543 -0.0033 -0.0720
40448W        W83365  30.154   2.672   2.377 -0.1320 -0.0767  0.2080
40449W        W83366  30.449   2.627   1.582  0.2988  0.3188 -0.1166
40450W        W83367  32.263   1.952   1.792 -0.4608 -0.0298  0.3117
40451W        W83368  32.376   2.063   2.662  0.0698 -0.0708 -0.1525
40452W        W83369  32.961  34.610  30.835 -0.0256  0.3946  0.2487
40453W        W83370  31.501   0.782   2.451 -0.4291  0.0278 -0.1139
40454W        W83371  29.522   3.010   3.861 -0.2337 -0.1202  0.2081
40455W        W83372  28.188   3.589   2.462 -0.3564  0.1383  0.1738
40456W        W83373  34.544   2.774   4.422 -0.4688  0.1335  0.2690
40457W        W83374  28.558   1.955   2.810  0.0196  0.2770 -0.0356
40458W        W83375  32.937  33.908   2.856  0.0309  0.2185  0.0366
40459W        W83376  28.343   2.200  29.562 -0.0902  0.0466  0.0677
40460W        W83377  29.369   4.306   0.854 -0.1023  0.4088  0.1644
40461W        W83378  30.214   2.859   0.596  0.0356  0.1180 -0.0421
40462W        W83379  29.812  33.220   1.742  0.1548 -0.1808  0.0063
40463W        W83380  28.722   1.611   3.717  0.1431 -0.1347  0.2801
40464W        W83381  30.541   2.311  30.770  0.1355 -0.1880 -0.0463
40465W        W83382  30.757   4.188   3.398  0.0787 -0.0180 -0.0003
40466W        W83383  29.069   1.853   1.046 -0.2057 -0.1292  0.1133
40467W        W83384  31.978  33.618   2.931  0.1700 -0.0418 -0.0151
40468W        W83385  28.746   3.540   2.513  0.1479  0.0869 -0.1003
40469W        W83386  26.651   1.058  31.265 -0.0991 -0.0783  0.0400
40470W        W83387  28.384   1.293   1.649  0.1992  0.3218 -0.0503
40471W        W83388  31.745  34.467   2.469  0.2521  0.1651 -0.0569
40472W        W83389  33.201   3.011   2.444  0.0336 -0.0629  0.1723
40473W        W83390  29.665   2.015   1.439  0.1040 -0.2752  0.2247
40474W        W83391  30.299  34.385   1.533  0.5213  0.1304  0.1852
40475W        W83392  28.253   3.961   1.654  0.1810 -0.0417  0.0966
40476W        W83393  31.130   2.052   3.486  0.0616  0.2931 -0.0353
40477W        W83394  32.739   0.544  31.080 -0.3018 -0.1803 -0.0143
40478W        W83395  32.736   2.452   3.679  0.0994 -0.0658 -0.0493
40479W        W83396  31.769   1.513   3.169  0.1668 -0.2286  0.0221
40480W        W83397  28.604   2.300   2.495  0.0978  0.1184  0.2048
40481W        W83398  31.987   1.551   1.999 -0.1054  0.0195  0.0691
40482W        W83399  30.526   1.434   3.625 -0.1285  0.2711 -0.1183
40483W        W83400  30.394   4.297   1.467  0.0322 -0.0494 -0.1114
40484W        W83401  31.852   2.848   3.433  0.2328  0.1480 -0.0361
40485W        W83402  29.447   3.345   1.735  0.1619  0.3794 -0.4910
40486W        W83403  27.283   1.930  31.230  0.0222  0.1945  0.1453
40487W        W83404  32.764  34.650   2.385 -0.2021  0.0621  0.1772
40488W        W83405  32.289   0.679   3.023  0.5170  0.1198  0.2762
40489W        W83406  31.527   0.474   2.909  0.3246 -0.2257 -0.3793
40490W        W83407  30.780   0.510   1.792 -0.1259  0.2295 -0.2271
40491W        W83408  28.772   1.728   1.649  0.3738  0.0191 -0.4349
40492W        W83409  32.831   4.316   3.906 -0.2192 -0.2412 -0.2040
40493W        W83410  32.454   0.025   5.718 -0.1576 -0.1529  0.1018
40494W        W83411  30.992   2.887   3.722 -0.0543  0.0236 -0.1138
40495W        W83412  31.078   0.751   2.695  0.0574 -0.0786 -0.2743
40496W        W83413  32.738   4.082  30.872 -0.3898 -0.3699 -0.1309
40497W        W83414  31.442   1.021   2.025 -0.3058 -0.0285  0.1736
40498W        W83415  31.312  34.201   0.196 -0.1639  0.3136  0.2283
40499W        W83416  29.970   2.437   4.170 -0.2258 -0.0056  0.1396
40500W        W83417  31.436   2.137   1.334  0.0112 -0.1073 -0.1813
40501W        W83418  31.912   1.762   3.574 -0.0566 -0.0615 -0.1528
40502W        W83419  29.191   1.198   1.825 -0.1197  0.0849  0.0912
40503W        W83420  31.548   0.286   0.367  0.1907 -0.1608 -0.2280
40504W        W83421  29.441   3.800   2.038  0.1767  0.3194 -0.0703
40505W        W83422  32.356  34.126  30.949 -0.1667 -0.1037  0.0560
40506W        W83423  31.763  34.413   0.119 -0.1400 -0.0116 -0.1029
40507W        W83424  30.344  34.495   0.238  0.2015 -0.0621 -0.2022
40508W        W83425  34.273   0.285   3.217 -0.3759 -0.0649 -0.1878
40509W        W83426  29.877   1.503  30.504  0.0438 -0.0467  0.0766
40510W        W83427  32.144   0.730   4.194 -0.1066  0.0707  0.0627
40511W        W83428  32.570   1.022   1.162 -0.0841 -0.4065  0.1492
40512W        W83429  31.030   1.282   1.742  0.0646 -0.3946 -0.1788
40513W        W83430  28.405  34.119   1.531 -0.3488  0.2614 -0.1708
40514W        W83431  31.768   3.438   3.554  0.2965 -0.2426 -0.0680
40515W        W83432  32.168   2.103   4.547 -0.1004 -0.0697  0.0175
40516W        W83433  29.717   0.595   1.839 -0.2627 -0.2023 -0.0274
40517W        W83434  31.733   0.181  31.758  0.1633  0.2226 -0.2726
40518W        W83435  32.762   1.553   0.904 -0.1657 -0.0504  0.2252
40519W        W83436  33.007   3.975   2.064 -0.0692 -0.1470  0.3240
40520W        W83437  29.271   2.210  30.996  0.0086  0.0311 -0.3056
40521W        W83438  34.161   0.472   1.342 -0.0516 -0.0523  0.0322
40522W        W83439  29.975   3.323   2.452 -0.0622 -0.1101  0.0919
40523W        W83440  31.996   1.160  31.586 -0.3268 -0.0751  0.0279
40524W        W83441  30.457   1.915   0.775  0.2127 -0.3009 -0.4086
40525W        W83442  29.989   2.471   1.923 -0.0551 -0.1683  0.0277
40526W        W83443  29.884   0.629   2.323  0.0888 -0.0791 -0.0276
40527W        W83444  31.314   4.841   2.632 -0.0875 -0.1099 -0.0345
40528W        W83445  31.207   0.001  31.942 -0.1028 -0.1318 -0.3433
40529W        W83446  30.926   1.221   0.773  0.1947  0.1327  0.1606
40530W        W83447  32.550   0.134   1.454 -0.4383 -0.3496 -0.3073
40531W        W83448  31.298   1.913   2.932  0.2011 -0.0545 -0.1100
40532W        W83449  29.171   0.196   4.284 -0.1570  0.5135  0.2021
40533W        W83450  31.347   4.296   0.995  0.1539  0.0552 -0.0114
40534W        W83451  34.191   1.781   0.422  0.0037  0.1050 -0.1223
40535W        W83452  33.615   0.554   2.846  0.0905 -0.1472  0.2533
40536W        W83453  29.557   2.642   1.204 -0.5542  0.0651 -0.0911
40537W        W83454  29.921   0.908  31.318  0.0138  0.0153  0.0720
40538W        W83455  30.715  32.041   1.648  0.4583  0.1391 -0.2681
40539W        W83456  30.784   3.136   4.607  0.3051 -0.0661  0.2409
40540W        W83457  30.467   0.368  30.662  0.2288  0.1051 -0.0077
40541W        W83458  33.204   1.677   2.573 -0.1338  0.0554 -0.2028
40542W        W83459  32.497   2.142  31.412  0.0350 -0.2407  0.0632
40543W        W83460  30.988   3.129   2.450  0.2274 -0.2990 -0.0339
40544W        W83461  33.976   0.030   1.454 -0.0148  0.1335  0.5451
40545W        W83462  28.450   0.737   3.261 -0.0216 -0.1618 -0.0164
40546W        W83463  29.059   4.124   3.422  0.0475 -0.0562 -0.1453
40547W        W83464  30.312   1.248  31.268  0.0833 -0.2004  0.2753
40548W        W83465  30.890   2.102  30.476 -0.2195  0.1562  0.2141
40549W        W83466  31.191   3.859   2.695 -0.0652  0.0903 -0.0947
40550W        W83467  32.956   1.546   3.102 -0.0448  0.3023  0.1248
40551W        W83468  32.228   0.023  31.440  0.0905 -0.0426  0.2263
40552W        W83469  32.545   0.204   1.967  0.2700  0.4517 -0.2512
40553W        W83470  29.633   2.456   2.272 -0.0550  0.0004  0.1379
40554W        W83471  31.955   0.232   2.984 -0.1850 -0.0103  0.0343
40555W        W83472  29.750   3.660   2.793 -0.1261  0.1778  0.1397
40556W        W83473  30.545   3.897   3.963  0.0778  0.3165 -0.3167
40557W        W83474  31.548   1.705   1.136 -0.0954  0.1288  0.0212
40558W        W83475  28.948  33.652   2.804  0.1660 -0.2527  0.0279
40559W        W83476  30.575   0.864   0.912  0.2716  0.0161 -0.2876
40560W        W83477  32.331   1.371   0.859  0.0279 -0.1603 -0.1978
40561W        W83478  31.953   2.115   2.153  0.0192 -0.0878 -0.0239
40562W        W83479  32.398   2.254   3.261  0.3245 -0.0161 -0.2977
40563W        W83480  29.502   1.593   1.888  0.0108  0.2224  0.0884
40564W        W83481  31.526   3.155   3.140  0.1173 -0.2249 -0.1004
40565W        W83482  32.359   1.782   2.250  0.0989  0.0277 -0.0534
40566W        W83483  29.665   2.390   0.458  0.2622  0.1775  0.0234
40567W        W83484  28.854   0.142   2.509 -0.0408  0.0968  0.0004
40568W        W83485  31.729   0.773   3.841  0.0900  0.0958 -0.0240
40569W        W83486  30.904   3.034   1.752  0.0071 -0.0546 -0.2038
40570W        W83487  29.711  34.486  31.384  0.0311 -0.0191 -0.0963
40571W        W83488  31.245   1.458   0.300  0.0653  0.0844 -0.1153
40572W        W83489  26.899   3.641   3.125  0.2936 -0.1784  0.0622
40573W        W83490  29.595   0.931   4.486  0.0209 -0.3008 -0.0043
40574W        W83491  29.904   4.428   2.954 -0.3238  0.2668 -0.0807
40575W        W83492  32.341   2.773   0.211 -0.2476 -0.2720 -0.4430
40576W        W83493  32.190   2.568   1.984  0.1388  0.0608 -0.0269
40577W        W83494  30.229   3.679   2.285  0.0019 -0.0096 -0.2236
40578W        W83495  29.444   0.579   0.081  0.1015  0.1759  0.0972
40579W        W83496  31.821   2.819   1.706  0.2051 -0.1216 -0.3513
40580W        W83497  27.826   2.215   0.301  0.0025  0.1104  0.1999
40581W        W83498  31.696   1.680   0.192  0.2075 -0.1006  0.0547
40582W        W83499  30.186   0.838  30.617 -0.2541 -0.1208 -0.2333
40583W        W83500   0.358   2.802   2.704 -0.2331 -0.1510 -0.3676
40584W        W83501  32.486  34.635  30.895  0.3696 -0.1225 -0.1431
40585W        W83502  31.025   0.736   1.091  0.2839  0.0746  0.3539
40586W        W83503  31.463  34.643   2.140 -0.0371  0.1092 -0.3228
40587W        W83504  30.490   4.762   3.039 -0.0933  0.0826  0.1911
40588W        W83505  31.778   0.743   3.241  0.0073 -0.0564  0.0619
40589W        W83506  30.361  33.588   1.426 -0.0939 -0.1741 -0.3116
40590W        W83507  30.302   1.459   2.475  0.0831 -0.1675  0.0571
40591W        W83508  32.693  34.487   2.920 -0.1833 -0.3011  0.2024
40592W        W83509  30.745   3.291   2.861 -0.2498 -0.1059 -0.0987
40593W        W83510  29.975   2.935  31.568  0.2995  0.0299  0.2297
40594W        W83511  30.026   1.128   0.137 -0.3976  0.0726  0.1618
40595W        W83512  30.201   1.470   1.898  0.1114  0.3964  0.0801
40596W        W83513  32.379  33.624   2.560 -0.1201 -0.1268 -0.1691
40597W        W83514  30.743   3.193  30.319  0.2309 -0.0878  0.0895
40598W        W83515  31.411   2.426   2.998  0.0252 -0.2302 -0.1029
40599W        W83516  30.892   1.617   1.035 -0.0845 -0.2831 -0.0493
40600W        W83517  31.015   1.680   3.799  0.3325  0.0643  0.3918
40601W        W83518  30.894   2.393   3.747 -0.0887  0.0251  0.0188
40602W        W83519  30.561   0.128   1.504 -0.1848  0.4719 -0.0791
40603W        W83520  33.008   2.521   2.314 -0.1361 -0.1010 -0.0557
40604W        W83521  30.697   2.108   3.144 -0.3173  0.1222  0.1619
40605W        W83522  31.897  34.113   3.796  0.0917 -0.2603  0.0343
40606W        W83523  29.923  33.957   0.494 -0.3425 -0.1728  0.0969
40607W        W83524  31.103   0.786   1.575 -0.2050 -0.2910  0.0972
40608W        W83525  30.808   1.700   4.302  0.0789 -0.0331  0.0415
40609W        W83526  30.946   2.312   2.771  0.1363 -0.4698  0.2233
40610W        W83527  30.727   1.507  30.488  0.2703  0.0909 -0.1106
40611W        W83528   0.094   2.428   2.436  0.3196 -0.2149  0.0174
40612W        W83529  30.587   2.005   0.244 -0.1859  0.0631  0.4595
40613W        W83530  31.183   4.446   1.552 -0.2175 -0.0333 -0.0211
40614W        W83531  30.614  34.046   1.267  0.0082 -0.0643  0.2370
40615W        W83532  29.440   1.734   0.542  0.0595 -0.0896  0.0571
40616W        W83533  29.235   0.469   1.699  0.2444 -0.1319  0.1225
40617W        W83534  32.311   1.315   2.402  0.0935  0.1278  0.2196
40618W        W83535  31.296   4.055   3.170 -0.0153 -0.1825  0.2778
40619W        W83536  30.507  34.505   1.085 -0.0352  0.1315  0.0427
40620W        W83537  31.878   2.228   1.594  0.2770  0.0069  0.2369
40621W        W83538  31.436   2.834   2.002 -0.0197  0.2312  0.2026
40622W        W83539  29.521   1.690  31.104  0.2729  0.3387  0.0244
40623W        W83540  30.759   1.170   1.281  0.0336  0.4372 -0.2830
40624W        W83541  30.446   1.535   1.367 -0.0274  0.1079  0.2891
40625W        W83542  28.785   1.011   2.395  0.2606  0.0000 -0.1761
40626W        W83543  32.726   2.465   2.766  0.1103  0.1598 -0.0107
40627W        W83544  33.408   3.380   3.187  0.0154 -0.0843 -0.0396
40628W        W83545  31.824   0.018   0.813  0.2676  0.2546  0.5206
40629W        W83546  29.218   0.881   2.250 -0.0392  0.0969  0.5805
40630W        W83547  28.867   4.300   1.163 -0.1159  0.1411  0.2395
40631W        W83548  32.463   0.668   2.073 -0.0707  0.3201  0.1024
40632W        W83549  31.956   0.776   2.097  0.0846  0.3395 -0.0488
40633W        W83550  31.534   2.458  30.845  0.1053  0.1626  0.0046
40634W        W83551  32.730  34.573   3.628  0.2617  0.2345  0.0108
40635W        W83552  30.991   5.307   2.438  0.3286  0.0041  0.1199
40636W        W83553  31.247   3.367   2.805 -0.0969  0.0169  0.0316
40637W        W83554  29.787   2.076  31.053 -0.3696 -0.0561  0.1536
40638W        W83555  31.667   2.077   3.309  0.0115 -0.2308  0.0492
40639W        W83556  30.849   1.682   3.288  0.0818  0.0120  0.1063
40640W        W83557  30.861   5.094   1.214 -0.1057  0.0248 -0.1303
40641W        W83558  32.016   3.926   1.664  0.0327  0.1642 -0.3830
40642W        W83559  32.415   0.560   0.230  0.0010  0.2181 -0.2856
40643W        W83560  31.620   3.697   2.881  0.0040  0.2363 -0.1389
40644W        W83561  30.477   1.353   0.903  0.0399 -0.0663  0.0034
40645W        W83562  32.951  34.428   1.463  0.1132 -0.3198  0.2012
40646W        W83563  30.781   0.312   0.257 -0.0563  0.0311 -0.0257
40647W        W83564  31.433   0.404   1.069  0.1324 -0.2879 -0.0872
40648W        W83565  30.344   0.072  30.208  0.1136 -0.3166 -0.0445
40649W        W83566  29.788   1.587   0.052 -0.1113 -0.1889  0.2038
40650W        W83567  31.167   1.699   1.546  0.0914 -0.0177 -0.3421
40651W        W83568  31.900  34.164   4.600 -0.1480 -0.2123 -0.0437
40652W        W83569  30.548   2.379   2.427 -0.2111 -0.0621  0.0568
40653W        W83570  30.494   2.255   1.954  0.0666 -0.0225  0.1495
40654W        W83571  29.290  34.426  30.299 -0.0139  0.0569  0.2963
40655W        W83572  30.674   3.808   1.457 -0.1865  0.1240  0.2170
40656W        W83573  29.840   1.829   2.885 -0.4110  0.1117  0.1346
40657W        W83574  27.194  33.838   1.342  0.0465  0.1521 -0.3781
40658W        W83575  29.462   2.892   0.126 -0.0629  0.0967 -0.3959
40659W        W83576  30.767   4.359   1.967  0.3767 -0.0855  0.1123
40660W        W83577  32.513   1.118  31.280  0.1113 -0.2381  0.2736
40661W        W83578  34.537   4.446   3.360 -0.0952  0.3563 -0.0016
40662W        W83579  29.484   1.127  31.339  0.1659  0.0664  0.2859
40663W        W83580  32.992   1.040   1.521 -0.2380 -0.1012 -0.2765
40664W        W83581  32.172   0.368   3.411 -0.0738 -0.0516  0.0725
40665W        W83582  29.410   0.718  30.491 -0.0068 -0.0637  0.0448
40666W        W83583  30.995  34.219   0.965  0.1084 -0.2054 -0.1125
40667W        W83584  30.189   5.411  31.104  0.0720  0.1318 -0.0835
40668W        W83585  32.009   3.410   1.553 -0.0194  0.1746  0.0235
40669W        W83586  31.000   2.493   3.289 -0.1770  0.0038  0.4885
40670W        W83587  30.114   3.994   2.657  0.1455  0.1570  0.3550
40671W        W83588  30.685   1.641   1.760  0.0005  0.0557  0.0798
40672W        W83589  31.919   0.804   0.256 -0.2425 -0.0096 -0.1280
40673W        W83590  31.121   1.270   4.399  0.2219  0.2003  0.3962
40674W        W83591  30.000   2.059   0.190  0.0856 -0.0308 -0.0806
40675W        W83592  33.406   1.369   2.895  0.1120 -0.0158 -0.3099
40676W        W83593  31.709  34.181   0.578  0.2124 -0.2548  0.0202
40677W        W83594  30.754   1.383   2.204  0.2055 -0.1281 -0.2920
40678W        W83595  30.210   3.163   2.928  0.1612 -0.0901 -0.1188
40679W        W83596  33.550   4.331   4.425 -0.1527 -0.2308 -0.0774
40680W        W83597  29.037   2.460   2.213  0.0924  0.0222 -0.1624
40681W        W83598  31.912   1.305   1.219  0.5127  0.2501 -0.0727
40682W        W83599  30.762   2.208  31.782 -0.0810 -0.2661  0.0906
40683W        W83600  29.974   2.395   2.746 -0.2242  0.4052  0.1060
40684W        W83601  30.851   0.815   0.429 -0.1016  0.1893 -0.1324
40685W        W83602  31.000   2.177   2.265  0.0830 -0.3784  0.3165
40686W        W83603  29.689   2.776   4.377 -0.0327  0.0723 -0.0158
40687W        W83604  31.782   2.697   3.904  0.5858  0.0219  0.1512
40688W        W83605  28.474   1.667   1.169 -0.0290 -0.0125  0.1080
40689W        W83606  32.345   0.829   0.775  0.0164 -0.0964 -0.2210
40690W        W83607  31.337   5.070   3.610  0.3587  0.0593  0.1429
40691W        W83608  31.854   2.577   4.592 -0.1316  0.1751  0.1184
40692W        W83609  30.823   4.774   2.493 -0.0800 -0.0669  0.2404
40693W        W83610  33.074   2.779   2.916  0.0913  0.0277  0.2676
40694W        W83611  30.935  34.437   1.472  0.3434 -0.2069 -0.1107
40695W        W83612  30.405  34.223   0.700 -0.2660 -0.1814  0.0301
40696W        W83613  29.416   1.024   1.303 -0.0571  0.0695 -0.0458
40697W        W83614  31.444   1.485   2.273  0.0981 -0.1602 -0.3039
40698W        W83615  28.913   1.356   1.236  0.0442  0.1477  0.0595
40699W        W83616  31.745  33.199   0.396 -0.0144 -0.1992 -0.1457
40700W        W83617  31.105   3.567   1.770 -0.0575 -0.0061  0.2934
40701W        W83618  31.493   2.011   2.423  0.1096 -0.0738 -0.1537
40702W        W83619  30.648   3.191   6.243  0.1572 -0.4043 -0.0615
40703W        W83620  30.768   0.723   4.136 -0.0507 -0.3957  0.0426
40704W        W83621  33.081   0.036   3.172  0.0017 -0.3215  0.0214
40705W        W83622  33.723   1.519   6.024 -0.0552 -0.2536 -0.3271
40706W        W83623  29.958   1.421   4.245 -0.1281 -0.0754  0.0854
40707W        W83624  32.403   1.811   4.234 -0.1556 -0.3349 -0.2764
40708W        W83625  32.042  33.641   4.648  0.2699 -0.1596 -0.1295
40709W        W83626  32.975   1.159   2.713  0.0075 -0.1821 -0.1110
40710W        W83627  33.139   2.664   5.251  0.0080  0.0122  0.0706
40711W        W83628  31.381   3.431   2.245 -0.2176 -0.2726 -0.1411
40712W        W83629  31.236   0.455   5.421  0.0419 -0.1964 -0.1475
40713W        W83630  31.304   3.091   5.178 -0.2523  0.0591 -0.1498
40714W        W83631  31.321   0.827   4.173 -0.0822  0.1298 -0.1944
40715W        W83632  29.589  33.423   6.206 -0.0386 -0.0184 -0.1149
40716W        W83633  33.133   0.939   6.761  0.3694 -0.2149  0.2307
40717W        W83634  30.840   1.198   5.269 -0.4358 -0.0987 -0.0999
40718W        W83635  31.929  33.907   7.637  0.0948  0.1246  0.1186
40719W        W83636  32.095  34.499   5.475 -0.2482  0.2288  0.0986
40720W        W83637  29.489   4.296   4.831 -0.1732  0.4727 -0.3459
40721W        W83638  31.885   1.032   4.496  0.1943  0.1022 -0.2565
40722W        W83639  32.630   1.845   6.367 -0.1427  0.2221 -0.1131
40723W        W83640  28.396   5.248   2.976 -0.1855 -0.1744  0.0825
40724W        W83641  30.695   1.094   4.705 -0.2502 -0.0900  0.0376
40725W        W83642  27.567   2.629   6.712 -0.4449  0.2901  0.2688
40726W        W83643  29.336   3.911   5.161  0.0836  0.0756 -0.0839
40727W        W83644  32.329   1.170   6.742 -0.2539  0.1187 -0.0902
40728W        W83645  31.211   2.141   5.569 -0.1318  0.2533  0.4249
40729W        W83646  28.593   3.911   4.356  0.4550 -0.0331 -0.1860
40730W        W83647  31.160   2.421   4.565  0.0704  0.2291 -0.0791
40731W        W83648  32.875  33.877   8.833  0.1983 -0.2040 -0.1908
40732W        W83649  29.337   2.835   5.919 -0.0476  0.2900 -0.1142
40733W        W83650  30.712   5.169   4.507 -0.2258  0.0258  0.0215
40734W        W83651  29.517   4.395   5.329 -0.2563  0.3186 -0.1586
40735W        W83652  31.655   5.248   3.947  0.3261 -0.0588  0.1180
40736W        W83653  33.511   1.215   6.927  0.0634 -0.0438  0.1608
40737W        W83654  31.176   2.389   7.616  0.1332  0.0731  0.1646
40738W        W83655  30.784   1.940   4.718 -0.1953  0.2625 -0.1270
40739W        W83656  31.287   4.236   7.242 -0.1457  0.0108  0.0587
40740W        W83657  29.793   4.733   4.935  0.3201  0.0363 -0.2945
40741W        W83658  30.308   3.064   7.333  0.0245  0.0301 -0.1028
40742W        W83659  31.070   3.084   4.215 -0.2039 -0.0184 -0.0389
40743W        W83660  30.450   2.875   3.770  0.2687 -0.0392 -0.2466
40744W        W83661  32.173   1.307   4.847 -0.1811 -0.0019  0.3873
40745W        W83662  31.676   2.130   6.240 -0.2769  0.1181  0.0052
40746W        W83663  29.523   3.418   5.288 -0.0475 -0.4117 -0.0062
40747W        W83664  33.362  34.231   8.023 -0.2614  0.1243  0.2678
40748W        W83665  29.319   1.979   4.433  0.0504 -0.1356  0.0545
40749W        W83666  31.786   1.169   6.288  0.0516 -0.0157  0.0852
40750W        W83667  31.033   1.422   4.863  0.0924 -0.0085  0.1467
40751W        W83668   0.370  34.366   3.912  0.1281  0.1824 -0.2218
40752W        W83669  31.727   0.209   6.337 -0.0310 -0.0148 -0.2289
40753W        W83670  30.311   3.786   5.141 -0.0668 -0.2027 -0.2622
40754W        W83671  30.823   0.953   6.218 -0.0189  0.0057  0.1285
40755W        W83672  32.019   4.324   6.377 -0.0181 -0.0056  0.1600
40756W        W83673  31.915   1.711   2.588  0.2409  0.2019  0.0560
40757W        W83674  32.362   1.418   5.382 -0.0954  0.1528  0.1089
40758W        W83675  30.731   2.288   6.101 -0.0902 -0.1517  0.2423
40759W        W83676  29.917   1.184   5.820 -0.2972  0.0669  0.0213
40760W        W83677  31.528   3.056   2.571 -0.2703 -0.0459  0.1588
40761W        W83678  33.665   2.992   4.544  0.0803  0.1541 -0.2442
40762W        W83679  31.770   4.770   3.749  0.1710  0.0025 -0.1007
40763W        W83680  31.657   2.202   5.247 -0.0084  0.3623 -0.0534
40764W        W83681  31.640   2.565   7.533 -0.2824 -0.0576  0.1587
40765W        W83682  30.401   1.011   6.494 -0.0413  0.0346 -0.1035
40766W        W83683  31.070  34.075   4.433  0.0847  0.0789  0.3446
40767W        W83684  32.684   1.820   7.180  0.1898 -0.0463 -0.0522
40768W        W83685  29.020   2.431   5.720 -0.0084  0.0430  0.0001
40769W        W83686  33.717  34.210   4.682 -0.0615 -0.2681  0.2397
40770W        W83687  29.400   3.168   4.438 -0.1431  0.0077 -0.0166
40771W        W83688  32.163   1.509   6.208  0.1539 -0.0230  0.1424
40772W        W83689  32.591   1.110   2.049  0.0975 -0.0864 -0.3294
40773W        W83690  34.418   0.140   4.033 -0.0899 -0.1483  0.0728
40774W        W83691  33.044   0.411   6.490  0.1078 -0.0857  0.1851
40775W        W83692  30.655   2.528   4.663  0.1780 -0.0988 -0.0593
40776W        W83693  30.697   1.321   5.719 -0.0490  0.0246 -0.1315
40777W        W83694  32.680   3.270   5.453  0.0464 -0.0199 -0.0472
40778W        W83695  32.225   0.844   3.607  0.1416 -0.0438 -0.0921
40779W        W83696  30.545   2.787   5.980 -0.0917  0.0474  0.3788
40780W        W83697  34.469  34.657   7.097 -0.1863  0.0136 -0.3271
40781W        W83698  32.314   2.494   6.510 -0.2021  0.0091  0.3182
40782W        W83699  28.868   3.282   2.890  0.1561  0.1486 -0.2052
40783W        W83700  30.393   3.595   6.475 -0.1119 -0.0697  0.0819
40784W        W83701  27.315   3.648   5.743  0.1324  0.0559 -0.2128
40785W        W83702  31.023  34.046   6.446 -0.2739  0.2246 -0.1592
40786W        W83703  32.294   2.550   8.178 -0.0051  0.1695 -0.3446
40787W        W83704  34.189   2.002   4.561 -0.1090 -0.0019  0.2604
40788W        W83705  30.872   0.087   6.821 -0.0047 -0.0909 -0.1503
40789W        W83706  31.507   0.610   4.839  0.0752  0.1730  0.4138
40790W        W83707  30.811   3.878   5.273 -0.1941  0.1964 -0.1882
40791W        W83708  32.641   6.491   6.714 -0.1168  0.0988  0.3361
40792W        W83709  32.555   1.725   3.357 -0.1797  0.2060  0.3535
40793W        W83710  32.936   0.958   4.387 -0.2144 -0.2229 -0.0801
40794W        W83711  29.392   0.014   6.303 -0.1004  0.2189 -0.1492
40795W        W83712  30.312   1.849   5.410  0.0451 -0.3822  0.0587
40796W        W83713  31.100   0.563   5.872  0.0248 -0.0053 -0.1057
40797W        W83714  29.748   2.295   4.634  0.1865  0.0078 -0.1559
40798W        W83715  33.119   0.444   6.975  0.1901  0.2486  0.4951
40799W        W83716  31.570  33.238   3.397  0.0914 -0.1118  0.0757
40800W        W83717  32.512   0.371   3.809 -0.2117  0.0037 -0.1789
40801W        W83718  32.322   0.821   4.744 -0.3940  0.3329 -0.0672
40802W        W83719  30.049   2.240   3.231 -0.5193  0.0465 -0.1142
40803W        W83720  33.589  33.277   6.214 -0.0696 -0.1104  0.1830
40804W        W83721  30.794   3.625   2.433 -0.1106  0.0604  0.3294
40805W        W83722  33.086   2.897   5.773  0.1232  0.2046 -0.0385
40806W        W83723  31.569   4.192   4.777  0.1544 -0.2026 -0.2400
40807W        W83724  31.725  34.399   7.766 -0.2596 -0.0342 -0.2491
40808W        W83725  28.655   1.143   5.824  0.1702  0.0178  0.1022
40809W        W83726  29.888   3.889   7.195  0.4445  0.0534  0.4808
40810W        W83727  29.372   5.231   5.184 -0.4516  0.1515  0.1098
40811W        W83728  31.580   0.360   3.524  0.0396 -0.2677 -0.1757
40812W        W83729  32.288   2.890   5.008 -0.0312  0.2004 -0.3891
40813W        W83730  32.605   2.189   4.903 -0.3320 -0.0300  0.4325
40814W        W83731  32.120   2.394   5.061  0.0194 -0.0389  0.0656
40815W        W83732  32.035   0.511   6.621 -0.1702  0.2540 -0.2725
40816W        W83733  33.309   1.057   5.403  0.2065  0.1377 -0.3655
40817W        W83734  33.393   0.785   4.222  0.0802  0.1285 -0.1696
40818W        W83735  30.232   1.035   2.193  0.0861  0.0322 -0.0953
40819W        W83736  30.894   4.395   3.901 -0.0026 -0.1665  0.0596
40820W        W83737  29.447   4.115   2.923 -0.3976 -0.0538 -0.0954
40821W        W83738  29.727   0.099   4.905  0.0502  0.2374 -0.0847
40822W        W83739  30.690   5.510   1.510 -0.1968  0.2329  0.3825
40823W        W83740  32.833   0.697   4.915  0.1703 -0.1762 -0.1228
40824W        W83741  31.041   2.785   6.074  0.1112  0.4291 -0.0443
40825W        W83742  34.556  33.707   8.046 -0.0303  0.2844  0.3262
40826W        W83743  30.901   1.788   2.582 -0.0693  0.1914 -0.0907
40827W        W83744  30.224   2.528   7.342  0.3038 -0.1987 -0.1892
40828W        W83745  34.209  33.787   4.107 -0.0460  0.0583  0.2698
40829W        W83746  34.050  34.585   1.925  0.1629 -0.1771 -0.1351
40830W        W83747  31.786   2.496   6.557  0.0988 -0.2435 -0.0821
40831W        W83748  33.551   1.965   4.717 -0.0011  0.2886 -0.0129
40832W        W83749  30.255   0.573   2.881  0.0384 -0.1919 -0.1579
40833W        W83750  31.070   1.736   2.096 -0.2263 -0.0978 -0.0447
40834W        W83751  28.980   2.136   6.894  0.0598 -0.1683  0.1594
40835W        W83752  29.312   4.699   4.504 -0.1381 -0.0967 -0.0775
40836W        W83753  31.351   1.621   3.401  0.0961  0.1241 -0.2089
40837W        W83754  31.131   0.963   5.585  0.2161 -0.1697 -0.0696
40838W        W83755  33.980   0.635   3.224  0.2284  0.0570  0.2067
40839W        W83756  31.980   2.132   6.832 -0.2538 -0.1294  0.0753
40840W        W83757  31.119   1.983   6.059  0.1463 -0.0006  0.2140
40841W        W83758  33.478   2.200   5.157  0.0052  0.1726  0.0441
40842W        W83759  32.122   0.479   6.133  0.1075 -0.0263 -0.2474
40843W        W83760  30.390   2.002   2.706 -0.1852 -0.5015 -0.2277
40844W        W83761  32.028  34.405   4.169  0.0329 -0.1068  0.2375
40845W        W83762  30.016   4.816   3.346  0.3232 -0.3054 -0.2417
40846W        W83763  33.335   1.156   5.976 -0.0969 -0.1896 -0.0833
40847W        W83764  31.452  34.453   4.701 -0.2195 -0.1392 -0.2645
40848W        W83765  32.713  34.438   8.455  0.0453  0.0306 -0.1434
40849W        W83766  34.087   0.470   8.851  0.0476  0.0408 -0.1116
40850W        W83767  32.484   1.093   2.875 -0.1277 -0.0477 -0.0891
40851W        W83768  32.756   0.463   5.408  0.1557 -0.0262 -0.0393
40852W        W83769  31.000   0.667   4.588  0.1164  0.0041 -0.1615
40853W        W83770  30.905  34.572   7.605 -0.0558 -0.1256 -0.1068
40854W        W83771  31.267   2.362   6.378  0.1428 -0.2996  0.3070
40855W        W83772  30.839   2.708   7.865  0.1801  0.1131  0.3195
40856W        W83773  32.000   3.871   6.613 -0.0791  0.3209 -0.1408
40857W        W83774  31.675   1.699   5.317 -0.1269 -0.0756  0.2571
40858W        W83775  33.159  33.668   7.508 -0.1227  0.1799  0.1518
40859W        W83776  31.838   1.167   2.401 -0.2044 -0.2912 -0.0187
40860W        W83777  29.616   4.360   3.542  0.0160  0.2273 -0.0563
40861W        W83778  30.586   2.876   3.252  0.0214  0.3612 -0.3810
40862W        W83779  30.540  34.177   5.120 -0.0402 -0.0337  0.1001
40863W        W83780  29.964   3.491   5.757  0.2080  0.2236 -0.0684
40864W        W83781  30.759   4.162   4.413 -0.0460  0.0761 -0.2349
40865W        W83782  32.520   2.249   5.363  0.1575 -0.3934  0.0569
40866W        W83783  28.855   4.362   2.117 -0.1573 -0.1218 -0.0780
40867W        W83784  32.969   0.336   5.989 -0.0778  0.4949  0.2673
40868W        W83785  28.904   3.440   7.332  0.0119  0.1315  0.1484
40869W        W83786  30.586   2.187   1.406 -0.3100  0.1634 -0.3032
40870W        W83787  30.320   1.605   4.527 -0.0123  0.3395 -0.2048
40871W        W83788  33.467   0.328   3.361 -0.2162 -0.1050  0.1895
40872W        W83789  32.623   0.286   3.139 -0.0054  0.0372 -0.0668
40873W        W83790  28.626   1.561   5.564 -0.2280 -0.3313  0.1053
40874W        W83791  30.181   0.186   4.516  0.1869  0.0115 -0.2250
40875W        W83792  29.790   4.295   4.123  0.0152  0.0454 -0.1109
40876W        W83793  32.438   1.724   7.672  0.0032  0.0127 -0.1128
40877W        W83794  33.168   0.587   3.035  0.2186  0.0282  0.1021
40878W        W83795  30.584   2.214   7.598  0.1524  0.0729 -0.2339
40879W        W83796  29.993   0.584   6.693 -0.1933  0.1085 -0.2554
40880W        W83797  29.926   0.401   4.064 -0.1342  0.0665  0.0347
40881W        W83798  33.004  34.472   5.781 -0.0075 -0.0395  0.1016
40882W        W83799  31.341   0.108   5.806  0.2474  0.3159  0.0209
40883W        W83800  30.307   3.758   3.535 -0.3496  0.0260  0.0664
40884W        W83801  31.807   3.560   5.148 -0.3233 -0.0686 -0.0997
40885W        W83802  32.565   0.317   6.265 -0.1043  0.3438 -0.2391
40886W        W83803  30.014   3.781   4.020 -0.0050  0.0019 -0.0126
40887W        W83804  30.375  33.577   4.993 -0.1614  0.1444 -0.4006
40888W        W83805  33.439   1.456   4.334  0.3557 -0.4859  0.1400
40889W        W83806  31.496   0.506   6.759  0.1607  0.0180  0.0189
40890W        W83807  29.993   0.989   5.088 -0.1057  0.0522 -0.0190
40891W        W83808  32.666   1.306   6.322  0.1919  0.0053 -0.0361
40892W        W83809  34.174   2.938   6.241  0.0347 -0.2351  0.1045
40893W        W83810  33.496  33.978   7.144 -0.0214 -0.2176 -0.3995
40894W        W83811  31.360   2.361   6.956  0.0919  0.0327 -0.1320
40895W        W83812  31.891   0.140   5.775  0.1086  0.0063  0.1573
40896W        W83813  31.969   4.419   4.433  0.2333  0.1269  0.0996
40897W        W83814  31.888   0.078   6.868  0.0341  0.0358  0.0058
40898W        W83815  30.273   3.478   4.658 -0.1131  0.0902 -0.0723
40899W        W83816  28.625   3.524   5.859 -0.1100 -0.1721 -0.0838
40900W        W83817  29.121   2.805   3.634  0.0874  0.0340  0.2119
40901W        W83818  31.978   2.484   3.113 -0.0552  0.1377  0.1749
40902W        W83819  30.332   2.885   4.271 -0.0506 -0.3478  0.1134
40903W        W83820  29.229   2.750   4.270  0.2608  0.0019 -0.0645
40904W        W83821  30.026   2.334   5.146  0.1738 -0.1127 -0.3928
40905W        W83822  31.910   0.304   3.932 -0.1393  0.0749 -0.1090
40906W        W83823  30.349   4.444   2.618  0.0291  0.0550  0.0428
40907W        W83824  32.594  34.515   5.045  0.0770 -0.2010  0.4207
40908W        W83825  32.609  33.217   6.323  0.2984 -0.1319 -0.3513
40909W        W83826  31.955   1.892   4.024  0.1325  0.1861 -0.0635
40910W        W83827  32.476  34.579   7.231 -0.0401 -0.2938  0.3671
40911W        W83828  30.609   0.869   3.664 -0.1262 -0.0654 -0.1442
40912W        W83829  32.741   2.496   5.739  0.1308 -0.0232 -0.2104
40913W        W83830  29.253   1.611   6.146 -0.0625  0.0471 -0.0029
40914W        W83831  31.627   4.057   5.267  0.0208 -0.0607 -0.1644
40915W        W83832  31.451   1.643   7.074  0.2088  0.2570 -0.3750
40916W        W83833  32.161   1.742   3.038 -0.2250  0.1660  0.2272
40917W        W83834  31.061  33.129   4.164 -0.1960  0.0086  0.0074
40918W        W83835  29.937   3.079   4.715  0.2036  0.3071  0.0240
40919W        W83836  33.180   2.412   6.080 -0.1255 -0.0544  0.0493
40920W        W83837  30.256   2.158   4.510 -0.1834 -0.2538  0.0860
40921W        W83838  33.535   2.603   4.063 -0.1847 -0.1265 -0.0671
40922W        W83839  29.575   2.550   5.138 -0.0984 -0.0542  0.0814
40923W        W83840  31.942   1.168   5.284 -0.2934  0.0755 -0.2152
40924W        W83841  31.215   3.899   4.589 -0.0537  0.0319  0.2185
40925W        W83842  29.727   1.419   4.742  0.0461  0.0557  0.2720
40926W        W83843  30.400  34.668   6.764 -0.2500  0.0086 -0.3601
40927W        W83844  33.641   2.023   5.647  0.3083  0.0182 -0.2348
40928W        W83845  31.976   0.718   5.089  0.2743  0.0886  0.0433
40929W        W83846  33.210   0.704   5.743 -0.0941  0.1599 -0.0712
40930W        W83847  33.472   0.204   6.515 -0.0445 -0.4057  0.3033
40931W        W83848  31.134   0.265   7.333 -0.1757  0.0553 -0.3276
40932W        W83849  32.136  33.353   6.531 -0.0633 -0.1436  0.1335
40933W        W83850  31.859   4.503   5.498  0.1485  0.0236 -0.1780
40934W        W83851  33.369   1.314   3.451 -0.1178  0.2116  0.1933
40935W        W83852   1.017   0.562   6.542 -0.0053  0.2486 -0.0171
40936W        W83853   0.458   1.437   4.526 -0.1176  0.0064 -0.0240
40937W        W83854  30.988   2.134   1.679 -0.0122  0.0090 -0.0703
40938W        W83855  29.065   3.417   5.621  0.0935  0.3688  0.0860
40939W        W83856  33.363   0.453   7.979 -0.1367 -0.2702  0.0019
40940W        W83857  30.930   1.137   3.396 -0.0013 -0.2545  0.0189
40941W        W83858  32.854  32.673   7.783 -0.0262  0.0560  0.0292
40942W        W83859  29.603   3.961   3.792 -0.1900 -0.2295  0.2206
40943W        W83860  29.862   3.806   4.850  0.0781  0.0394  0.2320
40944W        W83861  31.134   1.179   2.505  0.1361 -0.0696  0.0206
40945W        W83862  29.494   0.579   4.172  0.1680 -0.0417 -0.3217
40946W        W83863  31.804   3.059   5.912  0.0524  0.2619 -0.2462
40947W        W83864  31.524   1.990   3.815  0.2497  0.1007 -0.2058
40948W        W83865  29.667   3.445   3.585  0.0573  0.1818  0.1416
40949W        W83866  31.419   3.782   5.683  0.0584  0.1357  0.0900
40950W        W83867  31.531   0.860   5.293  0.0685  0.5793  0.1720
40951W        W83868  31.471   1.127   4.803  0.2940 -0.1395 -0.0322
40952W        W83869  34.433   0.846   7.416 -0.0315  0.1705 -0.0949
40953W        W83870  29.090   2.537   5.104 -0.0891  0.1081  0.0445
40954W        W83871  32.950   0.184   5.035  0.0948 -0.1831 -0.0446
40955W        W83872  31.035   3.805   7.005  0.3632  0.2266  0.0467
40956W        W83873  30.438   2.164   5.021  0.1247  0.0479  0.0187
40957W        W83874  31.304   2.997   5.718  0.2094 -0.1363 -0.1570
40958W        W83875  32.236   0.945   6.293  0.3868 -0.1447 -0.0602
40959W        W83876  34.024  33.575   5.972  0.2084 -0.3934  0.2788
40960W        W83877  31.163   1.579   5.651 -0.0248 -0.0280  0.1892
40961W        W83878  32.826   1.123   5.711 -0.1122  0.0888  0.1963
40962W        W83879  30.589   4.179   7.660  0.0129 -0.0872 -0.1095
40963W        W83880  30.412   4.709   4.602 -0.0141  0.2367  0.1087
40964W        W83881  31.465   4.035   6.392  0.1865  0.1013 -0.0311
40965W        W83882  32.789   3.574   6.320  0.0417 -0.1715 -0.1256
40966W        W83883  28.675   3.613   6.364  0.2090  0.0006 -0.2557
40967W        W83884  28.311   0.235   7.207  0.0722 -0.1625 -0.0810
40968W        W83885  32.161   1.213   7.674 -0.0816  0.0327 -0.1893
40969W        W83886  32.817   1.655   5.560  0.2054 -0.3708  0.2025
40970W        W83887  30.721   0.824   3.059  0.3668 -0.0513  0.5667
40971W        W83888  31.404   1.717   4.401 -0.0530 -0.0418 -0.3054
40972W        W83889  29.827   2.194   6.459 -0.0302  0.3364  0.0289
40973W        W83890  30.559   0.722   5.079 -0.1176  0.2446  0.2446
40974W        W83891  29.996   2.128   3.726  0.0356 -0.0361  0.0516
40975W        W83892  32.576   1.585   2.786 -0.2102  0.0438  0.1415
40976W        W83893  32.584   2.776   5.326  0.1419  0.1971 -0.0449
40977W        W83894  31.503   4.874   4.749 -0.2249 -0.3943  0.2230
40978W        W83895  31.377   1.331   5.266  0.0471  0.0019  0.0539
40979W        W83896  28.743   5.273   5.781 -0.0799  0.3755 -0.0638
40980W        W83897  31.392   4.282   3.625  0.0241  0.1256 -0.1527
40981W        W83898  32.316   2.881   5.785  0.2776  0.2633 -0.0634
40982W        W83899  28.702   2.807   5.864 -0.0209  0.1224  0.1000
40983W        W83900  32.053   2.610   6.102  0.6913 -0.1693 -0.1192
40984W        W83901  34.649  33.536   3.927 -0.2493 -0.3094  0.1149
40985W        W83902  32.499   0.904   5.240 -0.2419  0.0731  0.2052
40986W        W83903  33.003   2.137   5.362  0.0676 -0.0443 -0.0021
40987W        W83904  31.926   1.741   8.741 -0.0564 -0.2486 -0.0345
40988W        W83905  31.554   0.632   6.130 -0.2941  0.0002  0.0139
40989W        W83906  30.949  32.727   2.803 -0.0792 -0.0842  0.1109
40990W        W83907  30.970   1.986   7.242  0.0590  0.1396 -0.0269
40991W        W83908  34.301  34.399   6.644 -0.2752 -0.2259  0.1286
40992W        W83909  29.433   4.589   5.965  0.5344  0.0085  0.0893
40993W        W83910  31.905   1.184   3.532  0.0325  0.0328 -0.0492
40994W        W83911  30.252  33.825   5.473  0.1753 -0.0133  0.1927
40995W        W83912  31.476  34.458   7.274 -0.1707  0.2800  0.3318
40996W        W83913   0.058  33.845   5.189 -0.0674 -0.1417 -0.0002
40997W        W83914  30.786   4.686   4.238  0.0820  0.0452 -0.3875
40998W        W83915  30.915   0.221   3.783 -0.1161 -0.0083  0.2984
40999W        W83916  29.961   4.263   5.138 -0.0127  0.0982  0.0465
41000W        W83917  30.433   2.689   5.280 -0.4443 -0.3396 -0.0061
41001W        W83918  31.566   2.632   4.996  0.0970 -0.1857  0.1786
41002W        W83919  30.550  33.843   4.237  0.1566 -0.0094 -0.1121
41003W        W83920  33.085  34.591   6.249 -0.1561  0.2883 -0.0137
41004W        W83921  31.299  34.251   5.846 -0.1305  0.1907  0.1951
41005W        W83922  33.643   0.615   6.693 -0.0267  0.0944 -0.2272
41006W        W83923  29.994   1.840   4.868  0.2608  0.3101  0.1417
41007W        W83924  32.197   0.297   4.451 -0.1805  0.0483  0.0990
41008W        W83925  30.930   2.285   5.069 -0.2379  0.1288  0.2853
41009W        W83926  31.946   1.554   5.727  0.1387  0.0104  0.3585
41010W        W83927  32.386   1.164   4.420 -0.1792  0.0642 -0.1281
41011W        W83928  31.890   4.204   5.926  0.1863 -0.1758 -0.3630
41012W        W83929  31.327   2.689   4.141 -0.0096 -0.0993  0.3237
41013W        W83930  32.225   3.352   5.834 -0.2266  0.0669 -0.1009
41014W        W83931  29.829   2.031   5.484 -0.1079 -0.0838 -0.2866
41015W        W83932  31.267   0.213   4.536  0.0644  0.1016  0.2513
41016W        W83933  30.175   2.629   4.665 -0.0644  0.0241 -0.1777
41017W        W83934  31.283   3.086   7.650  0.0414  0.0207 -0.4099
41018W        W83935  33.111   3.874   5.848 -0.2295  0.0942  0.0126
41019W        W83936  28.770  33.207   3.797 -0.1364 -0.0225 -0.1370
41020W        W83937  33.601   1.956   4.254 -0.1357  0.0330 -0.2577
41021W        W83938  33.773   4.095   5.248  0.3291  0.0505 -0.1202
41022W        W83939  27.892   4.920   3.630  0.1616  0.1304 -0.3396
41023W        W83940  32.663   0.781   3.377  0.0285  0.1750 -0.2534
41024W        W83941  31.609   3.327   5.536 -0.1541 -0.0039  0.2550
41025W        W83942  28.706   2.180   5.370 -0.2024  0.2324 -0.1749
41026W        W83943  31.400   4.664   5.633 -0.1883 -0.1904 -0.3135
41027W        W83944  32.215   3.352   4.911  0.0649 -0.0284 -0.1678
41028W        W83945  31.407   1.012   3.508  0.2243 -0.1625  0.3334
41029W        W83946  31.342   1.357   6.542 -0.0658 -0.0930 -0.0261
41030W        W83947  28.629   3.028   4.178 -0.0136  0.1211  0.0947
41031W        W83948  34.087   0.381   4.398  0.2576 -0.3754 -0.2639
41032W        W83949  33.695   0.905   4.990 -0.0886 -0.0856  0.0073
41033W        W83950  30.142   5.585   2.260  0.0156 -0.0640  0.2353
41034W        W83951  34.312   0.189   8.511  0.0947  0.2129 -0.1361
41035W        W83952  30.907   3.324   5.035 -0.2502  0.1320 -0.1628
41036W        W83953  30.084   2.576   5.670 -0.0406  0.1756  0.5037
41037W        W83954  30.702   1.327   2.867 -0.0578 -0.0534  0.0723
41038W        W83955  33.160   1.163   7.262 -0.0788 -0.1658 -0.2679
41039W        W83956  31.654   3.051   4.229 -0.1722  0.0608  0.1645
41040W        W83957  30.956   3.918   3.732  0.1090 -0.2369 -0.0736
41041W        W83958  32.374   2.254   5.969  0.0828  0.0214  0.4488
41042W        W83959  32.548  34.163   5.479  0.1171 -0.2790 -0.5048
41043W        W83960  33.403   2.117   3.705  0.0491  0.2166 -0.2633
41044W        W83961  32.505   1.713   4.668  0.0506 -0.1420 -0.0394
41045W        W83962  34.235   0.502   2.216 -0.1954 -0.0978 -0.3460
41046W        W83963  32.649  34.202   3.257  0.1035 -0.1993 -0.1962
41047W        W83964  30.494   0.827   6.971  0.0079 -0.1603 -0.1067
41048W        W83965  29.393   2.824   6.429  0.1938 -0.1434  0.3946
41049W        W83966  30.706   3.963   2.816 -0.2586  0.0215 -0.0506
41050W        W83967  29.769   3.197   6.547  0.0867  0.0089  0.1151
41051W        W83968  32.493  33.725   6.213  0.2591  0.1471 -0.1028
41052W        W83969  30.927   1.643   6.872 -0.0725  0.3215 -0.1983
41053W        W83970  31.275   1.857   5.100 -0.0006  0.2744 -0.1737
41054W        W83971  29.005   0.618   3.948 -0.1662  0.3245  0.1957
41055W        W83972  31.718   2.819   5.482  0.4170  0.1434  0.1759
41056W        W83973  31.473  34.426   5.383 -0.0327  0.1305  0.0838
41057W        W83974  28.263   1.970   5.606 -0.1618  0.1016  0.0417
41058W        W83975  30.224   4.030   4.381  0.2744 -0.2215 -0.0480
41059W        W83976  32.796   1.496   4.288  0.1840 -0.0857  0.2130
41060W        W83977  30.476  33.110   4.727  0.2401 -0.0701  0.1058
41061W        W83978  33.735   1.128   6.404 -0.1427 -0.0147 -0.1172
41062W        W83979  31.566   1.444   3.926  0.0117  0.1491  0.2039
41063W        W83980  31.437  34.173   8.446 -0.1483  0.1442 -0.2479
41064W        W83981  31.340  33.592   7.759 -0.2729 -0.0722 -0.0774
41065W        W83982  30.225  33.384   3.104 -0.3487 -0.1131  0.1604
41066W        W83983  32.249   1.704   6.704  0.1494  0.1465  0.0498
41067W        W83984  33.998   2.349   5.445  0.1191 -0.1451 -0.2174
41068W        W83985  33.078   4.333   4.422  0.3230  0.1115  0.0113
41069W        W83986  29.997   1.358   6.677 -0.0634 -0.0416  0.1659
41070W        W83987  32.573   5.011   5.988 -0.1615 -0.2395 -0.1397
41071W        W83988  28.655  32.440   5.581 -0.1507  0.1897  0.1248
41072W        W83989  33.906   1.599   4.402  0.0001 -0.2477 -0.0881
41073W        W83990  31.110   3.487   7.349  0.3086 -0.4426  0.1694
41074W        W83991  33.720   2.716   5.052 -0.1206 -0.1050  0.0948
41075W        W83992  33.526   1.403   4.889 -0.1490  0.1350  0.2053
41076W        W83993  33.285   0.965   4.693  0.1117 -0.0170  0.1115
41077W        W83994  30.235  34.154   7.275  0.0376 -0.1454 -0.3039
41078W        W83995  29.660   0.970   6.798 -0.1024 -0.3458  0.0083
41079W        W83996  33.138   3.403   5.618 -0.0946 -0.0070 -0.3242
41080W        W83997  30.173   0.062   3.712  0.1243  0.1261  0.3365
41081W        W83998  31.531  34.539   2.914  0.1189 -0.1185  0.1230
41082W        W83999  32.149   2.013   6.311  0.0190 -0.0567 -0.1130
41083W        W84000  30.882   2.776   4.984  0.1111  0.1666 -0.1002
41084W        W84001  30.975   1.122   3.926 -0.1864 -0.1465 -0.0330
41085W        W84002  33.628   1.256   7.424  0.0031  0.2493  0.1802
41086W        W84003  30.393   2.998   4.911 -0.0325 -0.2131  0.1679
41087W        W84004  32.837   2.314   6.453  0.0987 -0.2157  0.2543
41088W        W84005  31.230   0.125   5.057 -0.2133  0.0555 -0.0051
41089W        W84006   0.006   0.418   5.155  0.4526  0.0234  0.0273
41090W        W84007  31.821   4.850   5.882  0.2298 -0.0920 -0.3107
41091W        W84008  32.761   2.640   8.279  0.1080 -0.2058 -0.2400
41092W        W84009  30.462   4.182   4.800 -0.1636 -0.1073 -0.1317
41093W        W84010  33.194   1.300   6.407 -0.2664  0.0005 -0.0744
41094W        W84011  30.928  34.392   5.475 -0.1750 -0.1326 -0.1856
41095W        W84012  30.820   2.660   4.190  0.1165 -0.1799 -0.0803
41096W        W84013  30.018   3.375   5.106 -0.3270  0.1001 -0.0421
41097W        W84014  34.304   1.810   7.043 -0.0966  0.1231  0.0565
41098W        W84015  30.792   0.144   5.647 -0.1223 -0.1168  0.3067
41099W        W84016  32.930   0.247   4.059  0.2146  0.0032 -0.0404
41100W        W84017  29.495   3.653   5.787 -0.3231 -0.0471 -0.0367
41101W        W84018  31.552   2.438   5.915  0.1056 -0.3824  0.2306
41102W        W84019  29.700   2.388   9.948  0.0269 -0.1153  0.1463
41103W        W84020  32.136   1.023   7.160 -0.1744  0.1809 -0.1203
41104W        W84021  32.257  34.151   6.370  0.1276  0.0507  0.0778
41105W        W84022   1.517   1.171   7.215 -0.1222  0.1496  0.2599
41106W        W84023  28.759   1.570   7.785 -0.0082 -0.0098  0.0425
41107W        W84024  33.352   1.931   7.910  0.0131  0.2962 -0.2091
41108W        W84025  32.533   3.759   8.851  0.2724  0.0847 -0.0613
41109W        W84026  30.672   0.993   9.871  0.0567  0.2201 -0.0648
41110W        W84027  31.650   2.115   4.724 -0.1775 -0.0525 -0.0514
41111W        W84028  32.163   0.465   9.074 -0.1388 -0.1456  0.3824
41112W        W84029  31.780  33.470   7.960  0.1457  0.0989 -0.2237
41113W        W84030  28.674  31.022   9.399 -0.0188  0.2410 -0.1839
41114W        W84031  32.269   0.053   8.483  0.0917  0.2191  0.1914
41115W        W84032  31.119   1.321   7.257  0.0020  0.1727  0.1879
41116W        W84033  28.124   0.367   8.230 -0.2984 -0.1022 -0.1727
41117W        W84034  32.244   2.118   7.937  0.1042 -0.0594 -0.0528
41118W        W84035  33.511   2.768   8.523  0.0739  0.0831  0.2862
41119W        W84036  27.885   0.908   9.188  0.1623  0.0013 -0.0739
41120W        W84037  31.034   0.736   9.230 -0.0368  0.0437  0.2473
41121W        W84038  28.863   2.033   9.153  0.1082  0.2023  0.0099
41122W        W84039  30.613   2.870   8.810 -0.0791  0.0134 -0.0643
41123W        W84040  31.236   1.056   7.667  0.0073  0.0954 -0.0288
41124W        W84041  31.735  34.201   9.524 -0.2412 -0.0304  0.0110
41125W        W84042   0.919   2.511   9.446  0.1831  0.0607  0.0289
41126W        W84043  31.247   0.822   6.504  0.2811  0.1511 -0.0686
41127W        W84044  29.963   2.823   7.608 -0.1320  0.0333 -0.0949
41128W        W84045  31.345   1.894   6.554 -0.1515  0.1947  0.1213
41129W        W84046  30.327   3.697   8.604 -0.1774 -0.0993 -0.0555
41130W        W84047  30.063   0.949   7.088  0.2938  0.0557 -0.0950
41131W        W84048  33.384   0.909   7.706 -0.2031  0.0300 -0.1585
41132W        W84049  29.318   1.679   7.040 -0.2217 -0.1835  0.2225
41133W        W84050  32.839   0.679   8.282  0.0649 -0.1126 -0.0518
41134W        W84051  31.743   1.002   6.800 -0.0097 -0.0547  0.0261
41135W        W84052  32.234   2.893   6.819  0.0698 -0.4256  0.1434
41136W        W84053  32.228   1.596   7.219  0.0479  0.1544  0.1435
41137W        W84054  30.246   1.690   8.685 -0.0246 -0.3126 -0.2544
41138W        W84055  29.450   3.075   4.902 -0.0734  0.3734 -0.0743
41139W        W84056  33.942   0.993   7.024 -0.0719 -0.1924 -0.0822
41140W        W84057  31.773   2.766   7.005 -0.0462  0.1231  0.3827
41141W        W84058  32.763  33.215   7.747  0.3809  0.0298 -0.3100
41142W        W84059  30.808  33.314   7.275 -0.1512 -0.2914 -0.0932
41143W        W84060  30.165   1.756   7.807  0.0336  0.0027  0.0318
41144W        W84061  30.969  33.586   9.147 -0.0064  0.0002 -0.1312
41145W        W84062  31.131   0.308   6.416 -0.1365 -0.0711 -0.3636
41146W        W84063  32.122   2.578   9.291 -0.0882  0.0205 -0.1735
41147W        W84064  30.646   3.258   8.543  0.2115 -0.0237  0.2986
41148W        W84065  29.757   1.588   6.203  0.1391 -0.0498 -0.0876
41149W        W84066  33.901   2.159   7.243 -0.2018 -0.1816 -0.2812
41150W        W84067  32.964   1.633   8.019  0.2088  0.0416 -0.1376
41151W        W84068  31.656   1.973   5.741  0.4435  0.1315  0.0192
41152W        W84069  31.009  34.387   8.918 -0.0817 -0.0185 -0.1299
41153W        W84070  32.306  34.595   6.664  0.1406 -0.1372  0.0148
41154W        W84071  34.501   0.367   7.439 -0.2494 -0.0014  0.2041
41155W        W84072  29.951   2.780   9.420 -0.1212 -0.2668 -0.2312
41156W        W84073   0.202   2.014   9.085  0.1255  0.0999 -0.5672
41157W        W84074  33.189   1.598   7.577 -0.3523 -0.1225  0.0413
41158W        W84075  32.932   1.840   9.250  0.0913  0.0660  0.0266
41159W        W84076  33.774  31.363   9.125  0.3255 -0.2221 -0.0390
41160W        W84077  30.178  34.654   6.295  0.3010  0.3521 -0.5209
41161W        W84078  31.392   3.423   6.011  0.0892  0.0336  0.3083
41162W        W84079  30.360  33.541   9.621 -0.0650 -0.1602  0.0318
41163W        W84080   1.822   0.899   5.963  0.2625 -0.1129 -0.3259
41164W        W84081  31.150   2.284   8.523 -0.0575 -0.0330  0.0741
41165W        W84082  30.413   3.011   8.103 -0.0659  0.2035 -0.0162
41166W        W84083  31.641   2.863   8.488 -0.0841 -0.1377 -0.0903
41167W        W84084  30.161   0.596   7.969  0.2088  0.2232  0.2787
41168W        W84085  28.360  34.607   8.133  0.1941 -0.0951 -0.1339
41169W        W84086  30.217   0.228   9.277  0.0315 -0.1661 -0.0699
41170W        W84087  33.961   0.956   7.567  0.1250  0.4801 -0.0249
41171W        W84088  33.439  33.880   9.768 -0.3362 -0.0888 -0.0762
41172W        W84089  31.271   1.530   8.049 -0.0582 -0.0174  0.1095
41173W        W84090   2.187   1.057  11.502 -0.0590 -0.0868 -0.1941
41174W        W84091  32.488   1.730   8.213  0.0083  0.2418  0.0896
41175W        W84092  33.250   1.518   8.909 -0.2795  0.0005 -0.0995
41176W        W84093  29.954   0.609   8.861  0.0604  0.0010  0.0895
41177W        W84094  29.698  34.339   8.226  0.1700 -0.0550 -0.2982
41178W        W84095  29.884  34.473   7.630 -0.2042  0.2020 -0.3216
41179W        W84096  30.578  33.989   6.201 -0.3666  0.1017 -0.2126
41180W        W84097  32.697   1.488   9.485  0.2492  0.2068  0.2214
41181W        W84098  32.564   0.645   5.798  0.2512  0.2682 -0.0692
41182W        W84099  30.614   0.838   7.985  0.0017 -0.0336  0.1520
41183W        W84100  33.343   2.578   6.661  0.1841  0.0224 -0.0738
41184W        W84101  34.396   4.149   8.752 -0.3433 -0.0284  0.0834
41185W        W84102  31.999   2.881   8.052 -0.0488  0.2164  0.1139
41186W        W84103  27.338  34.534   7.975  0.0713 -0.4117 -0.1618
41187W        W84104  29.826   0.298   6.285 -0.2194 -0.2262 -0.2943
41188W        W84105  29.165   3.659   8.320 -0.2077 -0.3081 -0.1000
41189W        W84106  31.289   1.283   8.514  0.3515  0.0608  0.1960
41190W        W84107  30.613  34.614   8.083  0.2186 -0.0929  0.2491
41191W        W84108  33.073   0.375   9.233  0.1155 -0.3162 -0.0187
41192W        W84109  32.443   1.745   5.875  0.1583  0.1724 -0.1509
41193W        W84110  32.129   1.574   9.458  0.2363  0.1552 -0.1282
41194W        W84111  31.393   0.187   9.056 -0.2671 -0.2998 -0.3810
41195W        W84112  30.156   0.301   7.529  0.1833  0.1095  0.2731
41196W        W84113  32.229   2.105   8.481  0.2192  0.2672  0.1587
41197W        W84114  29.968   2.751   6.681  0.0810 -0.0378  0.4637
41198W        W84115  28.819   1.869   8.230  0.2508  0.0951 -0.0067
41199W        W84116  32.031   1.628   7.986 -0.0069  0.0024 -0.0914
41200W        W84117  32.757   0.422   7.331 -0.0339  0.3355 -0.0329
41201W        W84118  30.780  34.191   7.910 -0.1903  0.1025 -0.0831
41202W        W84119  32.050   0.958   8.075  0.2610  0.1882  0.2807
41203W        W84120  33.774  34.019   6.688  0.1261  0.0191 -0.1228
41204W        W84121  32.006   2.021   7.330 -0.0568  0.1433 -0.2384
41205W        W84122  32.172   1.882   5.064 -0.1045 -0.0606  0.2334
41206W        W84123  33.219   0.439   7.467 -0.2277  0.1792  0.1411
41207W        W84124  31.432   1.710   8.819  0.1498  0.2013 -0.3522
41208W        W84125  30.394   0.354   8.779  0.2776  0.2313 -0.0833
41209W        W84126  32.436   0.704   7.972 -0.1125  0.2319 -0.2998
41210W        W84127  33.272   1.775   8.411 -0.0983 -0.0620  0.0658
41211W        W84128  29.618   0.900   9.181 -0.1578  0.0599 -0.0124
41212W        W84129  32.847   2.074   8.160  0.0093  0.0607 -0.0887
41213W        W84130  27.456  33.724   8.694  0.1255 -0.0302 -0.0537
41214W        W84131  30.279   2.132   6.019 -0.1311 -0.0750  0.1148
41215W        W84132  31.323   0.924   7.059  0.1730 -0.1726 -0.2205
41216W        W84133  30.295   2.361   6.502  0.1372 -0.2447 -0.1918
41217W        W84134  30.934  34.266   8.442 -0.0022 -0.1237 -0.1144
41218W        W84135  31.717   1.585   9.173 -0.1880  0.0159 -0.0026
41219W        W84136   0.017   0.786   6.389  0.0756 -0.0220  0.1076
41220W        W84137  33.082  34.249   9.686 -0.1012 -0.2411  0.0254
41221W        W84138  31.178   0.201   8.010 -0.3257  0.1238  0.0942
41222W        W84139  32.092   0.949   8.735 -0.2315 -0.1605  0.1916
41223W        W84140  27.580   7.055   9.320  0.1134  0.2662  0.0211
41224W        W84141  32.760   1.367   7.700 -0.0461 -0.3686  0.1703
41225W        W84142  32.618   1.313   7.218 -0.1621  0.1535 -0.1904
41226W        W84143  30.759   2.982   6.925 -0.1420 -0.2202 -0.1901
41227W        W84144  29.804   1.779   6.834 -0.0512  0.1541 -0.0578
41228W        W84145  30.491  34.244   8.845  0.0401  0.1512  0.1303
41229W        W84146  33.603   4.840   9.391  0.4191  0.0635 -0.1083
41230W        W84147  31.151   3.225   6.379 -0.0133  0.1752 -0.1138
41231W        W84148  31.874   2.378   8.723  0.2043 -0.1753 -0.0733
41232W        W84149  30.819   1.762   7.790  0.0080 -0.2374  0.0913
41233W        W84150  32.787   1.241   9.021 -0.3284  0.3225  0.0203
41234W        W84151  29.543   2.731   7.867 -0.1919  0.0574  0.3685
41235W        W84152  30.330   0.478   5.471  0.1023  0.1920  0.0697
41236W        W84153  28.604   1.796   7.017 -0.0366 -0.0329 -0.0060
41237W        W84154  32.864   0.461   7.809 -0.0686 -0.0847  0.0931
41238W        W84155  34.267   1.234   8.425 -0.1420  0.0340 -0.0370
41239W        W84156  29.194   0.194   7.840  0.1158  0.2963  0.0090
41240W        W84157  29.325   0.043   8.276 -0.0040  0.0100  0.2237
41241W        W84158  30.115   0.723   9.400  0.0579  0.1253 -0.2534
41242W        W84159  33.255  34.326   8.532  0.3643 -0.1307 -0.0286
41243W        W84160  30.546   0.471   6.625 -0.1593 -0.1250  0.1529
41244W        W84161  33.220   1.389   9.539  0.0338 -0.1822  0.2751
41245W        W84162  30.980   0.982   8.814  0.1936  0.2389  0.3171
41246W        W84163  30.590   0.404   6.153 -0.2958 -0.2699 -0.3278
41247W        W84164  31.759   2.456   8.135 -0.1840  0.1579 -0.0655
41248W        W84165  32.155   0.453   7.143  0.0679 -0.3698 -0.3531
41249W        W84166  28.843   1.457   7.280 -0.0887 -0.3839  0.0346
41250W        W84167  33.128   2.408   7.948  0.2559 -0.1112 -0.1658
41251W        W84168  29.975  34.430   9.750 -0.0821 -0.2653  0.1326
41252W        W84169  30.142  34.599   8.857  0.0027  0.0939 -0.0856
41253W        W84170  32.439   0.872   7.512  0.0745 -0.1955  0.1977
41254W        W84171  31.880   0.511   8.671 -0.2153  0.0240 -0.3174
41255W        W84172  31.236  29.732   9.183 -0.1186  0.0588 -0.0542
41256W        W84173  30.567  33.410   8.473  0.4678  0.3127  0.1142
41257W        W84174  32.605   2.700   6.145 -0.3531  0.0410 -0.1805
41258W        W84175  31.116   1.810   8.401 -0.3067  0.2573 -0.0689
41259W        W84176  32.958   3.810   9.673  0.2240  0.1109 -0.0588
41260W        W84177  31.385   0.484   8.674  0.0145  0.0024  0.0471
41261W        W84178  30.704   0.295   9.201 -0.2408  0.0129  0.1345
41262W        W84179  30.342   2.626   7.845  0.1699  0.0135  0.1647
41263W        W84180  29.465   1.940   7.437  0.1096 -0.0204 -0.3572
41264W        W84181  30.823  32.900   8.700 -0.0182  0.2362  0.1151
41265W        W84182   0.196   0.699   7.267 -0.0482  0.2237 -0.1126
41266W        W84183  31.782   1.654   6.537 -0.2102 -0.0964  0.2365
41267W        W84184  32.457   0.929   9.295 -0.0103  0.1548  0.1740
41268W        W84185  34.148   0.794   6.523  0.2230 -0.1165  0.1095
41269W        W84186  31.109  33.086   9.711  0.1399 -0.1725  0.0537
41270W        W84187  33.608   1.122   9.065  0.1259 -0.2748 -0.0596
41271W        W84188  31.242   1.098   9.971 -0.0577 -0.1471 -0.2468
41272W        W84189  33.027  34.378   5.282  0.1669  0.0564 -0.0790
41273W        W84190  30.047  34.072   9.120  0.0901  0.1398  0.1417
41274W        W84191  33.651   2.312   8.253  0.1329  0.0101  0.2437
41275W        W84192  29.395  34.217   9.070  0.0901  0.1926 -0.2422
41276W        W84193   1.015   2.745   8.740  0.4362  0.0427 -0.0566
41277W        W84194  29.348   1.019   8.391  0.0858 -0.0606 -0.2110
41278W        W84195  32.412   0.363   7.632 -0.0178 -0.0577 -0.1270
41279W        W84196  32.214   2.486   7.106 -0.1182  0.0892 -0.0482
41280W        W84197  31.632   2.040   8.405  0.2251  0.1471 -0.1215
41281W        W84198   0.335   2.052   8.528  0.3244 -0.0700 -0.1341
41282W        W84199  31.227  34.001   9.253  0.1007 -0.2383  0.1284
41283W        W84200  32.942   2.278   8.977 -0.2076 -0.0597  0.1963
41284W        W84201  33.689   2.249   6.310 -0.2854  0.0191  0.1715
41285W        W84202   1.388   0.665   9.787 -0.1863  0.1972  0.0255
41286W        W84203  33.515  34.673   8.242  0.0907 -0.0176  0.0233
41287W        W84204  32.872  33.769   7.944 -0.0962  0.0194  0.5216
41288W        W84205  30.621  32.905   9.909 -0.0445 -0.1376 -0.0177
41289W        W84206  32.358  33.771   8.816  0.2783  0.0947  0.0867
41290W        W84207  30.603   3.281   4.131  0.0424  0.0357 -0.1659
41291W        W84208  32.475   1.567   8.701  0.1584 -0.1725  0.1570
41292W        W84209  33.484  33.499   7.138  0.1267  0.0705 -0.1293
41293W        W84210  29.902   1.028   8.625 -0.1385 -0.0677  0.2361
41294W        W84211  29.362  34.552   4.655  0.0725 -0.1655 -0.3402
41295W        W84212  32.708   2.707   6.785 -0.1706 -0.0629 -0.0568
41296W        W84213  30.632  34.213   9.982 -0.0982  0.2380 -0.3468
41297W        W84214  30.815   3.114   7.477  0.0179  0.3925 -0.0683
41298W        W84215  31.584   0.299   8.236 -0.0632  0.0627  0.0762
41299W        W84216  29.775   0.168   7.986  0.1615 -0.3560 -0.2629
41300W        W84217  31.691   1.559   8.356  0.0430 -0.1898 -0.0034
41301W        W84218  34.509   1.248   9.419  0.1193 -0.1333 -0.0706
41302W        W84219  31.751  34.673   8.744  0.0809  0.0363  0.2080
41303W        W84220  31.020   0.636   7.731 -0.1019  0.0614  0.5521
41304W        W84221  30.347  34.375   9.296 -0.0026 -0.2151 -0.0967
41305W        W84222  34.511   2.907   7.203 -0.1003 -0.0341  0.0484
41306W        W84223  31.064   0.879   8.316  0.0960  0.0072  0.1425
41307W        W84224  32.975   1.071   8.071 -0.0800  0.2117 -0.0667
41308W        W84225  30.569   0.363   7.838  0.1967 -0.0525  0.2822
41309W        W84226  31.306   2.099   8.025 -0.2417  0.1614  0.3724
41310W        W84227  29.904   4.335   9.185  0.4655  0.1890 -0.1929
41311W        W84228  30.780   4.516   7.971  0.2022  0.2276 -0.1540
41312W        W84229   0.132   1.651   6.689  0.0306 -0.0997 -0.4344
41313W        W84230  32.545   2.771   7.296 -0.0657 -0.1308  0.1478
41314W        W84231  30.878   0.915   7.325  0.0823  0.3837 -0.3108
41315W        W84232  32.734  34.032   7.477 -0.0755 -0.2311 -0.3456
41316W        W84233  29.801   1.557   8.755  0.0870 -0.0177 -0.1163
41317W        W84234  28.277   3.961   6.526  0.0709  0.0330  0.0163
41318W        W84235  31.987   0.695   7.664  0.2617 -0.2028  0.1317
41319W        W84236  30.301   4.369   7.195 -0.1132  0.0301 -0.3124
41320W        W84237  32.183   0.002   6.174  0.1535 -0.1227 -0.0770
41321W        W84238   1.078   2.016   9.212 -0.1277 -0.1570  0.2530
41322W        W84239   0.286   1.451   9.563  0.1058 -0.0235  0.0599
41323W        W84240  29.802  34.244   8.690  0.0341 -0.1970  0.3265
41324W        W84241  32.569  34.189   6.994 -0.2761  0.0630  0.0666
41325W        W84242  32.551   3.627   6.745 -0.1268 -0.0895 -0.2593
41326W        W84243  30.365   1.392   6.112 -0.2157 -0.1963  0.1894
41327W        W84244  30.432   1.232   8.365 -0.2404  0.2231  0.1134
41328W        W84245  30.602   1.760   9.610  0.0773 -0.1176  0.0551
41329W        W84246  31.387   0.031   6.744  0.4258 -0.0813 -0.2088
41330W        W84247  30.497  33.808   9.257  0.3212 -0.2634 -0.3180
41331W        W84248  31.255   2.601   8.099 -0.0297  0.0537  0.4515
41332W        W84249  29.338   3.042   8.700  0.0678 -0.0563  0.3417
41333W        W84250  31.770   1.641   7.510 -0.1585  0.2039  0.0316
41334W        W84251  29.773  34.579   5.930 -0.1023  0.2007 -0.2480
41335W        W84252  31.510   2.058   9.405  0.1103 -0.0782  0.1291
41336W        W84253  30.320   1.389   9.902  0.1711 -0.3476  0.1731
41337W        W84254  31.692   1.185   7.350  0.0335 -0.2305 -0.1681
41338W        W84255  34.472   0.878   6.922 -0.0869  0.0058  0.3153
41339W        W84256  31.562   0.686   7.949 -0.0313  0.0362 -0.1616
41340W        W84257  30.826  34.331   9.471  0.0259  0.2614 -0.2811
41341W        W84258  31.291   1.640   7.581  0.2240  0.2666  0.0930
41342W        W84259  32.713   0.841   7.045  0.1682  0.0802 -0.1142
41343W        W84260  31.649   0.948   8.415 -0.0203 -0.1482 -0.0422
41344W        W84261  32.545   0.325   6.862 -0.3361 -0.1577  0.2988
41345W        W84262  30.934   0.433   8.815  0.3283 -0.1172  0.0038
41346W        W84263  31.522   0.757   9.022 -0.4913 -0.0624  0.2851
41347W        W84264  29.675  33.914   7.371  0.1444 -0.1969 -0.3238
41348W        W84265  32.989   2.136   6.946 -0.2040 -0.4601 -0.2918
41349W        W84266   0.650   2.131   8.010  0.1888 -0.0464  0.0566
41350W        W84267  31.588   3.067   6.738 -0.1984 -0.2892  0.2132
41351W        W84268   0.491   1.822   7.591  0.0130  0.0154 -0.2040
41352W        W84269  32.808   1.952   8.631 -0.1825 -0.1340  0.0286
41353W        W84270  27.977  31.854   8.725  0.3522 -0.2049 -0.2963
41354W        W84271  30.852   1.283   8.105 -0.0107  0.2539 -0.1706
41355W        W84272  31.055   3.005   8.454 -0.2102 -0.0215  0.0811
41356W        W84273  31.574  34.277   9.023  0.0114  0.2789  0.2329
41357W        W84274  30.651   1.437   9.048 -0.2333 -0.5293  0.1414
41358W        W84275  30.824   2.168   8.074  0.3965  0.0600  0.1489
41359W        W84276  30.803   0.378   8.298 -0.0437 -0.1710 -0.0107
41360W        W84277  30.571   5.791   5.526 -0.1527  0.2550 -0.0564
41361W        W84278  30.304   2.166   8.154 -0.0260  0.2598 -0.0020
41362W        W84279  29.735   1.533   7.711 -0.2646 -0.1470 -0.1225
41363W        W84280  31.613   0.295   7.196  0.0286  0.0917  0.0873
41364W        W84281  32.286   3.555   6.367  0.1072  0.3084 -0.3519
41365W        W84282  31.440   0.955   9.475  0.0720 -0.1051 -0.0073
41366W        W84283  30.659   0.003   8.595  0.0481  0.0371  0.1527
41367W        W84284   1.053   2.755   6.792 -0.1284  0.1683  0.1430
41368W        W84285  32.024   0.480   8.164  0.1629  0.0598  0.0438
41369W        W84286   0.636   2.278   8.942 -0.2831  0.0336  0.1516
41370W        W84287  31.822  34.607   9.275  0.2148 -0.0704  0.2723
41371W        W84288  30.813   1.399   8.603 -0.0243 -0.1620 -0.1116
41372W        W84289  30.367   0.897   5.937  0.1057 -0.0787  0.0349
41373W        W84290  30.428   1.842   6.906  0.0393  0.3856  0.0343
41374W        W84291  31.503   2.073   7.357 -0.0556  0.0270 -0.1661
41375W        W84292  30.250   0.352   7.027 -0.2243  0.1309 -0.3821
41376W        W84293  30.007  33.906   6.901  0.2105 -0.0166  0.4407
41377W        W84294  32.417   2.981   7.801  0.1179 -0.0048  0.2374
41378W        W84295  30.707   1.920   8.776  0.2567 -0.0457  0.0578
41379W        W84296  30.371  33.735   8.813 -0.0518  0.1681 -0.4753
41380W        W84297  34.099   1.541   9.197 -0.1431 -0.0562  0.3205
41381W        W84298  32.900   1.447   8.467 -0.0628  0.2449  0.0925
41382W        W84299  33.059  34.192   7.033 -0.2961 -0.1944  0.1523
41383W        W84300  29.308   2.945   5.375  0.3646  0.0907 -0.1613
41384W        W84301  30.475  34.629   5.311 -0.2715 -0.2414  0.1535
41385W        W84302  32.140   0.698   9.642 -0.0174  0.1644 -0.1632
41386W        W84303  32.502   2.202   7.426 -0.2386  0.1419 -0.0849
41387W        W84304  32.134   2.819   8.654 -0.0165  0.0574 -0.0367
41388W        W84305  27.165  34.431   8.784 -0.0819 -0.1749  0.0451
41389W        W84306   0.495   0.802   8.704  0.0440 -0.2559 -0.1264
41390W        W84307  34.445   1.299   7.598 -0.1123 -0.1345  0.0623
41391W        W84308  32.304   0.021   8.960  0.1314 -0.2420  0.4559
41392W        W84309  32.156   2.516   7.644 -0.3014 -0.1855  0.0262
41393W        W84310  32.632   1.050   8.605  0.0310  0.1093 -0.3207
41394W        W84311  31.433   0.640   7.471 -0.0067  0.0991  0.1741
41395W        W84312  31.553   3.266   7.247 -0.0960 -0.1173  0.1658
41396W        W84313  29.786  34.475   9.270 -0.0602  0.1677  0.2529
41397W        W84314  30.107   0.408   5.914 -0.0714  0.0503 -0.1252
41398W        W84315  29.784   2.387   8.984 -0.1108 -0.3488 -0.1311
41399W        W84316  31.801   0.641   5.698  0.1078 -0.0491  0.4733
41400W        W84317  33.994   2.642   7.291  0.1785 -0.1192  0.0013
41401W        W84318  34.396   3.266  10.001 -0.1693 -0.2094  0.0839
41402W        W84319  31.901   0.929   9.279  0.0829 -0.1157  0.4330
41403W        W84320  33.345   1.986   8.926  0.1004  0.2291 -0.1535
41404W        W84321  27.959  32.790   9.228  0.2805 -0.2734 -0.0871
41405W        W84322  30.967   1.508   6.159 -0.1177 -0.0592  0.1245
41406W        W84323  31.683   1.131   5.758 -0.0538  0.0250  0.0661
41407W        W84324  34.635   2.037   7.789 -0.1136 -0.0285  0.0490
41408W        W84325  29.351  33.011   9.468  0.0714  0.0570  0.2233
41409W        W84326  33.706   0.518   7.658  0.0968 -0.0796 -0.1521
41410W        W84327  28.909  34.294   9.175  0.0879 -0.0001  0.1357
41411W        W84328  32.447   2.042   9.035 -0.0410  0.1971  0.0590
41412W        W84329  31.339   5.300   3.004  0.1006 -0.4363 -0.1771
41413W        W84330  30.912   3.569   0.634  0.1895  0.0678 -0.0543
41414W        W84331  32.092   4.036   0.436 -0.2900 -0.1948  0.1804
41415W        W84332  33.103   6.114   0.558  0.0608  0.1826  0.0210
41416W        W84333  29.529   3.757   0.833 -0.1220 -0.0671 -0.1665
41417W        W84334  29.323   5.023   1.360 -0.1562 -0.0494 -0.2582
41418W        W84335  30.320   3.333  31.927  0.0681 -0.0956  0.3058
41419W        W84336  30.479   7.499   0.780 -0.0313  0.0165  0.3133
41420W        W84337  31.620   7.926   3.020  0.0249 -0.0521  0.0253
41421W        W84338  32.377   6.755  31.745  0.0655  0.2576 -0.0015
41422W        W84339  30.391   5.103   1.782 -0.1576 -0.1402  0.0241
41423W        W84340  31.998   9.831   2.604 -0.7649 -0.0174 -0.0717
41424W        W84341  30.243   5.306   0.621  0.1453  0.1936 -0.3174
41425W        W84342  30.770   5.338   0.773  0.2055  0.1245 -0.0300
41426W        W84343  32.514   5.676   2.052 -0.1293 -0.3837  0.2716
41427W        W84344  30.159   4.745   0.211 -0.0209 -0.1253 -0.0997
41428W        W84345  28.895   4.622   1.614 -0.0096 -0.3468  0.1865
41429W        W84346  32.618   4.295   1.101  0.0578 -0.1731  0.3301
41430W        W84347  29.734   5.678   0.910  0.0811 -0.0505  0.0351
41431W        W84348  30.907   4.436   2.922  0.0088  0.1383 -0.1738
41432W        W84349  30.261   5.235   3.072  0.0640  0.3049 -0.0055
41433W        W84350  29.716   8.466   0.492 -0.0058  0.0456 -0.0525
41434W        W84351  31.583   2.939  30.566 -0.1227 -0.0312  0.4702
41435W        W84352  28.254   6.393   0.286 -0.1001 -0.3834 -0.0212
41436W        W84353  29.183   3.931   1.432  0.0309  0.1458  0.0758
41437W        W84354  31.823   4.033   1.005 -0.1242 -0.1172 -0.3585
41438W        W84355  32.518   6.668   1.107 -0.2510 -0.1043  0.1149
41439W        W84356  30.077   7.593   2.011  0.0106 -0.3437 -0.1983
41440W        W84357  32.377   7.923   1.539  0.2333  0.1448 -0.0192
41441W        W84358  31.424   5.572   2.446  0.1742  0.1042 -0.1513
41442W        W84359  27.604   6.566   1.213  0.1960 -0.2531 -0.1714
41443W        W84360  29.121   6.278   0.897  0.0520  0.2806  0.1336
41444W        W84361  30.194   8.231  31.711 -0.0634 -0.3108 -0.2263
41445W        W84362  33.328   7.016   1.301 -0.2010 -0.1796 -0.1829
41446W        W84363  30.840   6.914   1.465 -0.0428  0.1595 -0.0865
41447W        W84364  33.007  10.366   2.334  0.1881  0.0777 -0.3883
41448W        W84365  29.048   4.699   1.020 -0.0279  0.0304  0.1435
41449W        W84366  31.747   6.112   3.137  0.0035  0.2787  0.1294
41450W        W84367  31.608   6.485   4.394 -0.0588  0.3538 -0.1132
41451W        W84368  31.899   4.840   1.319  0.2520  0.0265  0.0786
41452W        W84369  31.719   6.107   2.590  0.0114 -0.2375  0.0161
41453W        W84370  31.336   8.063   0.710 -0.0442 -0.0366 -0.1419
41454W        W84371  30.822   6.733   1.919 -0.1166  0.0680 -0.0350
41455W        W84372  30.710   4.704   1.603  0.1044  0.1121  0.1668
41456W        W84373  30.949   6.284   2.107 -0.2103  0.1618  0.0076
41457W        W84374  30.847   3.705   3.217 -0.0975 -0.0592  0.1707
41458W        W84375  30.258   7.892   0.511  0.0059 -0.1232 -0.3618
41459W        W84376  33.425   6.470   1.300  0.0134  0.0673 -0.0795
41460W        W84377  29.317   0.172   0.254 -0.1899 -0.2480 -0.1413
41461W        W84378  33.102   5.583   1.625  0.1056 -0.0375  0.0223
41462W        W84379  30.179   3.896   1.309 -0.1252  0.0139 -0.1090
41463W        W84380  31.533   5.865   1.710 -0.2153 -0.0376  0.0307
41464W        W84381  28.624   3.610   1.411  0.2066  0.1723  0.1637
41465W        W84382  33.114   5.628   2.701 -0.1368  0.0332  0.1234
41466W        W84383  29.359   4.576  31.580 -0.0184 -0.0407 -0.2364
41467W        W84384  30.461   7.468   1.704 -0.0874 -0.3102  0.1342
41468W        W84385  32.275   7.071   5.189 -0.1254  0.0682 -0.3826
41469W        W84386  30.142   4.277   0.461  0.2317 -0.3391  0.2162
41470W        W84387  33.048   5.369  31.476 -0.1000 -0.0392  0.2967
41471W        W84388  32.821   7.646   1.641  0.0691 -0.3090 -0.0105
41472W        W84389  31.055   8.147   0.260 -0.0443 -0.1848  0.0738
41473W        W84390  29.323   3.150   0.857 -0.0358 -0.2362  0.0523
41474W        W84391  31.279   6.333   3.287  0.1008  0.3952  0.1619
41475W        W84392  28.774   5.281   2.061  0.2385 -0.2838 -0.1865
41476W        W84393  32.493   3.559   1.781  0.3163  0.0969 -0.2615
41477W        W84394  30.836   7.210   1.895 -0.1638 -0.4911 -0.1193
41478W        W84395  29.010   7.440   3.128 -0.0170 -0.3927 -0.1130
41479W        W84396  32.214   4.662  31.953 -0.0088  0.0418 -0.0356
41480W        W84397  31.681   5.063   0.714 -0.2283 -0.1093  0.1272
41481W        W84398  34.604   4.684   2.629  0.0314 -0.2825  0.1420
41482W        W84399  32.721   7.494  30.485 -0.1437  0.0852 -0.0890
41483W        W84400  30.319   3.485   0.478  0.0447  0.2164 -0.1012
41484W        W84401  33.235   4.853   4.042  0.0562 -0.0591 -0.1382
41485W        W84402  32.059   5.680  31.254  0.0440 -0.3790  0.1429
41486W        W84403  30.568   5.141   0.169 -0.1365  0.1364 -0.0380
41487W        W84404  32.178   6.269   2.748  0.0186  0.0161  0.1621
41488W        W84405  30.564   6.705   0.773  0.4740 -0.1853  0.2904
41489W        W84406  29.012   5.689   0.962  0.5822  0.0904 -0.0661
41490W        W84407  28.899   5.437   4.017  0.0849 -0.0913 -0.0828
41491W        W84408  30.654   8.407   0.087 -0.1433 -0.0256  0.0708
41492W        W84409  30.689   3.200   0.332  0.0100  0.2908 -0.1775
41493W        W84410  30.112   6.376   1.471  0.2815  0.1407  0.1969
41494W        W84411  30.093   4.820   0.669  0.1282  0.0120  0.0112
41495W        W84412  32.096   5.766   2.764 -0.1369 -0.0239 -0.2949
41496W        W84413  32.748   2.898   2.099  0.0652 -0.0505  0.3508
41497W        W84414  30.503   5.306   3.612 -0.2289 -0.1547 -0.0024
41498W        W84415  31.284   3.134   1.230 -0.1730 -0.0637 -0.0570
41499W        W84416  28.395   5.941   1.431  0.1526  0.1544 -0.3139
41500W        W84417  32.044   7.195   2.617 -0.4602  0.2282 -0.1764
41501W        W84418  32.270   6.057   1.833  0.1495 -0.3025  0.0966
41502W        W84419  32.966   9.561   2.284  0.1912 -0.0050 -0.1803
41503W        W84420  28.640   5.323  31.543  0.0586  0.0285  0.1327
41504W        W84421  29.272   3.668  31.692 -0.1218 -0.0682 -0.0030
41505W        W84422  28.810   4.023   3.917  0.3774 -0.0059  0.0124
41506W        W84423  28.167   4.608   1.636  0.0753 -0.0165 -0.3460
41507W        W84424  31.992   6.036   1.439  0.0794 -0.0904  0.2364
41508W        W84425  27.736   3.268   0.997  0.0520 -0.1437 -0.3922
41509W        W84426  32.309   5.843   0.398 -0.2396  0.1223  0.1851
41510W        W84427  31.014   6.523   0.591  0.3285  0.2525 -0.1864
41511W        W84428  28.658   7.243   1.241 -0.1256  0.2912 -0.2748
41512W        W84429  30.336   5.843   0.801  0.1373 -0.0155 -0.0013
41513W        W84430  31.718   7.795   0.780  0.4607 -0.0249 -0.0011
41514W        W84431  34.200   5.099   4.540  0.3343 -0.3722  0.3313
41515W        W84432  33.179   7.327   1.734  0.1320  0.0716  0.1362
41516W        W84433  31.205   4.975   1.632 -0.0873  0.0897 -0.1220
41517W        W84434  29.902   3.251   0.809 -0.2979 -0.1283 -0.2299
41518W        W84435  27.853   6.920   2.309 -0.2231 -0.0203  0.0171
41519W        W84436  31.796   8.486   0.825 -0.1176  0.0871 -0.0278
41520W        W84437  31.154   4.012   0.485 -0.0234  0.4547 -0.2350
41521W        W84438  32.345   6.631   0.270 -0.1871  0.1586 -0.1797
41522W        W84439  31.554   6.297   1.410  0.1969  0.3204 -0.5130
41523W        W84440  30.090   6.605   1.946 -0.2811 -0.0752 -0.1855
41524W        W84441  31.727   5.174   2.501  0.1461  0.2230  0.1209
41525W        W84442  32.973   6.592   1.397  0.2376  0.2419 -0.2077
41526W        W84443  31.436   6.544   2.866  0.2425  0.0810 -0.2437
41527W        W84444  29.714   3.928  31.765  0.3067  0.2792  0.2302
41528W        W84445  32.016   6.461   1.129 -0.1546 -0.0379  0.0938
41529W        W84446  28.136   9.319   0.253 -0.3212 -0.0916  0.0104
41530W        W84447  28.550   5.875   0.953  0.0553  0.0827  0.0765
41531W        W84448  29.716   5.538   1.381  0.0489 -0.0637  0.1979
41532W        W84449  32.192   5.666   1.035 -0.1536  0.1173 -0.1280
41533W        W84450  28.983   4.847   2.303 -0.1950  0.0742 -0.3375
41534W        W84451  32.687   3.910   3.636  0.0035 -0.2781 -0.1980
41535W        W84452  28.896   5.702  30.636  0.1866 -0.3541 -0.2519
41536W        W84453  29.304   7.108   2.338  0.0333  0.3808  0.0275
41537W        W84454  30.710   2.813   0.725 -0.1967  0.1035 -0.1603
41538W        W84455  32.969   4.998   1.325  0.1652 -0.1666  0.0077
41539W        W84456  30.624   7.030   2.294 -0.0935 -0.0831 -0.2375
41540W        W84457  34.027   5.662   1.528  0.4019  0.0039 -0.1562
41541W        W84458  33.269   1.685   0.465 -0.1636  0.0089  0.0097
41542W        W84459  31.684   3.726   0.430 -0.0674 -0.0600 -0.1652
41543W        W84460  29.186   5.523   4.402 -0.0744 -0.0680 -0.0155
41544W        W84461  29.788   2.900   1.685  0.2392  0.0560 -0.2160
41545W        W84462  30.953   6.585   2.473 -0.1672 -0.1213 -0.0776
41546W        W84463  31.782   3.114   1.224  0.3965  0.1773 -0.0362
41547W        W84464  34.192   7.394   1.770 -0.1204 -0.0504 -0.0256
41548W        W84465  27.685   4.643   2.874  0.0181 -0.0907  0.2483
41549W        W84466  33.173   5.338   3.575  0.1188 -0.0989 -0.0492
41550W        W84467  31.732   6.485   3.475  0.1049 -0.3649  0.1752
41551W        W84468  29.853   5.185   0.083  0.1125  0.2977 -0.1919
41552W        W84469  30.626   4.555   0.265 -0.1429 -0.0777 -0.0141
41553W        W84470  32.669   4.733   2.522 -0.0687 -0.2522  0.0296
41554W        W84471  27.957  10.065   0.711  0.0304  0.1120  0.1570
41555W        W84472  32.859   3.249   3.066 -0.0244 -0.1845  0.0644
41556W        W84473  31.462   3.060   0.293  0.0518 -0.1768 -0.1323
41557W        W84474  32.492   2.314   2.288 -0.0853  0.1499 -0.1329
41558W        W84475   0.250   4.979   4.635  0.0166  0.3057  0.1327
41559W        W84476  32.338   6.434   1.517 -0.2404  0.2924  0.2119
41560W        W84477  32.757   6.136   2.074  0.0663  0.0024  0.0020
41561W        W84478  29.458   8.810  31.161 -0.1996  0.0808  0.0454
41562W        W84479  31.966   1.144   2.890  0.3984  0.2023 -0.2306
41563W        W84480  29.333   5.192   2.856  0.1787 -0.2399  0.0909
41564W        W84481  30.460   9.194   3.563  0.3025  0.1079  0.1514
41565W        W84482  32.942   3.737   2.617  0.0182  0.2931  0.0085
41566W        W84483  34.144   4.567   4.007 -0.0269  0.0286 -0.0926
41567W        W84484  32.060   5.568   1.787 -0.3843 -0.0837  0.0196
41568W        W84485  31.570   6.489   0.946 -0.0333 -0.0782  0.0817
41569W        W84486  29.803   6.049  31.616 -0.0762 -0.1902 -0.0064
41570W        W84487  31.973   6.508  31.451 -0.0872 -0.2078 -0.0403
41571W        W84488  28.063   4.866   2.045 -0.1127 -0.0612 -0.0322
41572W        W84489  29.797   6.483   2.444 -0.0218 -0.0926 -0.1597
41573W        W84490  30.222   7.307  31.730  0.3896 -0.0062  0.0116
41574W        W84491  30.230   6.339   3.484 -0.2679  0.1954  0.0178
41575W        W84492  29.993   8.251   1.696  0.0734  0.2017 -0.3584
41576W        W84493  32.931   2.438   3.235  0.0452 -0.1878 -0.0351
41577W        W84494  30.980   7.015   0.970  0.1006 -0.1710  0.0880
41578W        W84495  29.822   4.184   1.003  0.1329  0.3087  0.1178
41579W        W84496  28.088   6.820  31.775 -0.1719  0.1248 -0.1264
41580W        W84497  31.965   4.262   2.541 -0.1062 -0.0581  0.0811
41581W        W84498  30.950   6.140   0.158  0.0190 -0.2586 -0.0222
41582W        W84499  31.397   5.985   2.160 -0.3354  0.0021  0.1326
41583W        W84500  32.337   4.933   2.826  0.0288 -0.1775  0.1936
41584W        W84501  29.701   5.971   2.510 -0.1652 -0.3913  0.2204
41585W        W84502  31.540   7.159   2.497 -0.1325  0.0765  0.1756
41586W        W84503  32.555   4.153   1.850  0.1805 -0.1961  0.0463
41587W        W84504  33.603   7.158   2.856 -0.0723 -0.1097 -0.1425
41588W        W84505  31.640   5.800   1.199 -0.1212 -0.1898  0.0132
41589W        W84506  30.246   4.823  31.209 -0.1744  0.2416  0.0727
41590W        W84507  32.161   5.352   2.278  0.0717 -0.0064 -0.1179
41591W        W84508  30.706   6.211   0.872  0.0163  0.0075 -0.0696
41592W        W84509  31.315   5.468   1.390  0.2169 -0.0476  0.1958
41593W        W84510  31.964   7.362   0.768  0.0368  0.2121 -0.1835
41594W        W84511  29.571   5.555   0.397  0.2599 -0.1730 -0.0676
41595W        W84512  29.100   4.452  31.203 -0.2910  0.0175  0.0633
41596W        W84513  31.498   4.295   2.703  0.0786  0.2714 -0.0872
41597W        W84514  31.320   6.589   3.749  0.1059  0.0500  0.0410
41598W        W84515  32.457   4.018   0.719  0.1490 -0.2674  0.1256
41599W        W84516  31.875   5.553   0.668  0.0670  0.1510  0.0846
41600W        W84517  30.727   3.867   1.995  0.0597  0.4956 -0.1447
41601W        W84518  31.847   5.282   3.017 -0.0416  0.1239  0.4309
41602W        W84519  31.937   4.320   3.546 -0.3044 -0.1515  0.4102
41603W        W84520  29.247   6.061   2.221 -0.0058 -0.1589  0.2488
41604W        W84521  32.776   1.522   2.338  0.0698 -0.2259 -0.1939
41605W        W84522  33.595   8.128   0.478  0.0672  0.1553 -0.0018
41606W        W84523  32.966   4.026   7.363 -0.0870  0.1854 -0.2834
41607W        W84524  31.076   4.993  30.906 -0.2230  0.0576 -0.0275
41608W        W84525  30.111   4.671   1.733 -0.0605 -0.3829 -0.1452
41609W        W84526  30.538   7.114   1.162  0.0220  0.0754  0.1529
41610W        W84527  32.139   3.876   2.939 -0.1885  0.0938  0.0851
41611W        W84528  31.140   7.781   3.314 -0.0190  0.2320  0.0440
41612W        W84529  30.956   7.639   0.959  0.2018 -0.1060  0.1965
41613W        W84530  30.136   7.810   1.541 -0.0196 -0.0536  0.1856
41614W        W84531  30.477   3.198   0.849 -0.3499 -0.1550 -0.0954
41615W        W84532  31.447   6.188   0.356 -0.1655 -0.2046  0.0483
41616W        W84533  32.517   5.678   1.553 -0.1291  0.1063 -0.0284
41617W        W84534  32.528   5.194   4.409 -0.1348 -0.1646 -0.0829
41618W        W84535  31.365   4.391  29.955  0.0885 -0.0996 -0.4286
41619W        W84536  31.741   3.892   3.333 -0.1911 -0.0209  0.0601
41620W        W84537  31.070   2.669   1.047  0.0421 -0.2015  0.0798
41621W        W84538  32.834   5.065   3.090  0.4008 -0.5264 -0.1158
41622W        W84539  28.491   4.981   2.521  0.0685 -0.2492 -0.0938
41623W        W84540  30.792   8.167   3.451 -0.1100 -0.0375  0.2330
41624W        W84541  29.942   3.956   3.176 -0.0865  0.2135  0.0808
41625W        W84542  31.403   5.045   2.156 -0.0808 -0.1839  0.1023
41626W        W84543  30.078   4.636   1.228  0.0381  0.0736  0.1906
41627W        W84544  29.693   7.078   0.182  0.0221  0.3227 -0.0267
41628W        W84545  31.443   7.306   1.162  0.2312 -0.0677  0.1710
41629W        W84546  32.174   8.553   1.254  0.5758  0.1156 -0.0826
41630W        W84547  33.581   5.604   1.887 -0.2158  0.0764 -0.2095
41631W        W84548  29.996   6.115   2.118 -0.0352 -0.0873  0.0367
41632W        W84549  32.664   6.643   1.866  0.0005  0.3146  0.2738
41633W        W84550  32.103   6.195  31.129  0.0826 -0.2351 -0.6079
41634W        W84551  29.226   7.249   0.353  0.3750  0.1111  0.1299
41635W        W84552  28.766   4.473   3.638  0.0307 -0.2811 -0.1030
41636W        W84553  31.285   7.563   2.771 -0.1392 -0.0390  0.2055
41637W        W84554  31.145   5.010   0.809 -0.2799  0.0077 -0.0600
41638W        W84555  33.372   3.687   2.146 -0.5003  0.1429  0.1813
41639W        W84556  32.082   6.335   2.239  0.0846  0.0683  0.1936
41640W        W84557  27.890   5.767   1.416 -0.0278 -0.2948  0.1875
41641W        W84558  31.691   5.200   1.608  0.1090 -0.3279  0.2246
41642W        W84559  33.227   6.454   3.421  0.0461  0.2242  0.0711
41643W        W84560  32.741   6.481   0.516 -0.0836 -0.0038 -0.1309
41644W        W84561  34.558   5.750   3.364  0.0606  0.0279 -0.1417
41645W        W84562  33.737   4.328   1.103 -0.0997  0.0306 -0.1097
41646W        W84563  31.729   6.452  31.878  0.1653  0.0071 -0.1359
41647W        W84564  32.246   2.922   2.358 -0.0739 -0.1704 -0.0805
41648W        W84565  32.889   4.237   2.663 -0.0797  0.3513 -0.0849
41649W        W84566  31.065   4.944   0.228 -0.1108 -0.0683  0.0928
41650W        W84567  31.286   3.639   3.436  0.0584 -0.1686 -0.2859
41651W        W84568  32.063  10.028  29.606  0.2474  0.5163 -0.2157
41652W        W84569  29.317   4.942  31.131 -0.0715  0.3572 -0.0980
41653W        W84570  30.648   3.653   0.140 -0.0785 -0.2296 -0.0158
41654W        W84571  29.264   2.860   1.939  0.1689  0.1485  0.0949
41655W        W84572  30.485   5.590   4.701 -0.1302 -0.1889  0.1028
41656W        W84573  29.849   2.513  31.389  0.3901  0.0893  0.2708
41657W        W84574  30.452   6.156  31.900  0.1767  0.0093 -0.0784
41658W        W84575  31.840   8.241   3.710 -0.4056 -0.1289  0.0551
41659W        W84576  33.697   3.771   3.132 -0.2466 -0.1777  0.0337
41660W        W84577  31.239   1.916  29.897  0.2488 -0.1125  0.0699
41661W        W84578  32.421   5.506   4.032  0.1132 -0.2170 -0.2048
41662W        W84579  31.067   6.468   1.068  0.1291  0.0058 -0.0686
41663W        W84580  31.919   3.552   2.072 -0.2674 -0.3170 -0.1216
41664W        W84581  31.182   8.625   2.391 -0.1318  0.1099  0.0145
41665W        W84582  30.285   5.457   1.249 -0.3893  0.1408  0.1882
41666W        W84583  31.770   5.431  31.834  0.1838  0.1894 -0.0796
41667W        W84584  30.871   4.982   2.044  0.1267  0.1178 -0.0015
41668W        W84585  32.377   5.922   2.429  0.0183 -0.1137  0.0325
41669W        W84586  31.310   7.117   1.714  0.1896  0.0932 -0.0278
41670W        W84587  34.047   5.949   3.655 -0.2099 -0.0062 -0.0996
41671W        W84588  32.001   6.754   0.707 -0.2851 -0.2334 -0.1581
41672W        W84589  29.588   5.282   1.761 -0.2126  0.1427  0.0908
41673W        W84590  30.284   7.367   2.687  0.0067  0.3007 -0.1428
41674W        W84591  31.168   6.963   2.854 -0.0991  0.0044 -0.1804
41675W        W84592  30.686   4.122   0.526  0.2989  0.1250  0.2783
41676W        W84593  29.772   6.004   1.611 -0.2465  0.0405  0.1693
41677W        W84594  31.584   3.754   1.754  0.1036 -0.0485 -0.1794
41678W        W84595  30.922   6.475   2.998  0.0269 -0.1320  0.0555
41679W        W84596  30.277   4.247   2.105  0.0851 -0.3420 -0.1192
41680W        W84597  29.528   8.129   0.809 -0.0977 -0.2385  0.1122
41681W        W84598  31.038   6.429   4.553  0.1822 -0.2806 -0.0223
41682W        W84599  29.891   5.204   0.968 -0.0360 -0.1085  0.0612
41683W        W84600  27.357   9.361  31.643  0.0940  0.2880  0.2149
41684W        W84601  33.127   5.850   1.174  0.0448 -0.0910 -0.0131
41685W        W84602  31.371   6.163  31.731 -0.0935 -0.0790  0.1218
41686W        W84603  31.406   6.817   1.290  0.0706 -0.0462  0.0384
41687W        W84604  29.305   4.360   0.172  0.0126  0.1004  0.1674
41688W        W84605  28.755   7.055   0.614 -0.0131 -0.1598 -0.1868
41689W        W84606  30.027   7.390   0.442  0.0089 -0.3254 -0.3663
41690W        W84607  31.082   7.414   0.165 -0.0365 -0.0599 -0.3525
41691W        W84608  29.343   5.302   0.904 -0.1073 -0.1092 -0.2698
41692W        W84609  31.454   7.118   3.783  0.1156 -0.1707  0.1427
41693W        W84610  33.981   5.278   1.166  0.3419  0.3709  0.0171
41694W        W84611  33.982   6.263   0.951 -0.2427 -0.0465 -0.2143
41695W        W84612  32.293   3.098   1.880 -0.1710  0.0180  0.0643
41696W        W84613  33.451   6.185   4.070 -0.0808 -0.1076 -0.1629
41697W        W84614  31.781   8.478   2.136  0.3318 -0.0481 -0.1256
41698W        W84615  30.820   5.756   1.062  0.1598 -0.2975  0.1641
41699W        W84616  32.007   4.417   1.893  0.1245  0.0337  0.1277
41700W        W84617  33.452   2.943   5.474 -0.0407 -0.0958 -0.2368
41701W        W84618  30.534   6.119   1.381  0.0609  0.1708  0.1346
41702W        W84619  32.953   7.569   1.128  0.3431 -0.0072  0.1743
41703W        W84620  29.260   4.815   0.533 -0.1022  0.1692  0.0154
41704W        W84621  29.701   4.553   0.508 -0.0823 -0.2458  0.1519
41705W        W84622  33.095   2.889   3.412 -0.2097 -0.2722  0.3503
41706W        W84623  33.165   6.845   0.431 -0.0026 -0.0436 -0.1000
41707W        W84624  31.403   6.485   2.321 -0.1806 -0.1217 -0.0041
41708W        W84625  27.011   8.518   1.394 -0.0648  0.0246  0.1403
41709W        W84626  32.559   7.220   1.206 -0.3200  0.0945 -0.0910
41710W        W84627  29.272   7.719   1.838  0.1531 -0.1617  0.2129
41711W        W84628  30.012   2.554   0.126 -0.2214  0.0097  0.2252
41712W        W84629  33.028   2.947   0.373  0.2501 -0.2181 -0.0624
41713W        W84630  30.034   5.451   1.790  0.2035 -0.2269 -0.1472
41714W        W84631  32.337   4.221   3.217 -0.0333  0.0972 -0.0892
41715W        W84632  29.435   5.996   1.192  0.0470  0.1612  0.0308
41716W        W84633  31.305   5.539   0.893  0.0117 -0.2433 -0.1334
41717W        W84634  28.471   5.789   2.752 -0.0880 -0.2391  0.0107
41718W        W84635  30.355   4.996   1.072 -0.1198  0.1708  0.3244
41719W        W84636  29.900   6.068   1.148  0.0873 -0.3624 -0.0512
41720W        W84637  32.388   6.917   4.137  0.0341 -0.0549 -0.1522
41721W        W84638  31.192   3.935   1.395  0.1944  0.1714 -0.0247
41722W        W84639  30.563   8.178   2.862  0.2119 -0.0694  0.1190
41723W        W84640  32.121   4.795   2.411 -0.1371  0.0725 -0.3908
41724W        W84641  32.324   3.246   1.181 -0.0958 -0.0393  0.1250
41725W        W84642  26.659   5.605   0.848 -0.2525 -0.2266 -0.1913
41726W        W84643  32.361   4.409   4.727 -0.1226  0.0547  0.0252
41727W        W84644  32.468   5.972   5.051  0.1570  0.1798 -0.1210
41728W        W84645  31.601   2.854   0.805 -0.4366  0.1585  0.0290
41729W        W84646  33.148   6.435   1.846 -0.4282  0.1076  0.1286
41730W        W84647  33.484   5.699   2.353 -0.0391 -0.1185 -0.3303
41731W        W84648  29.800   9.206   0.208 -0.3476 -0.0633 -0.3868
41732W        W84649  32.391   5.505   3.115  0.1843 -0.3380  0.0701
41733W        W84650  30.134   7.388   1.226 -0.1504  0.1071  0.0765
41734W        W84651  28.736   3.009   2.410 -0.1470  0.2786  0.0847
41735W        W84652  30.221   8.102   2.476  0.1029  0.1821  0.1091
41736W        W84653   0.728   5.830   4.062 -0.0436 -0.0791 -0.0812
41737W        W84654  29.958   1.326   0.730 -0.0665 -0.0888  0.1354
41738W        W84655  31.115   5.405   1.939  0.0677 -0.2608 -0.0296
41739W        W84656  29.490   5.053  31.661  0.0811 -0.0176 -0.3413
41740W        W84657  33.578   5.271   3.858  0.1372  0.2041  0.0066
41741W        W84658  33.018   4.883   3.550  0.0410 -0.0192 -0.3301
41742W        W84659  32.372   7.007  30.581  0.2124 -0.0085 -0.1625
41743W        W84660  32.665   1.792   5.136  0.0389  0.1972  0.0309
41744W        W84661  30.684   7.043   2.853 -0.1274 -0.0014 -0.1112
41745W        W84662  30.219   6.242   4.004  0.1269  0.0935 -0.1946
41746W        W84663  29.934   4.403  31.902  0.0342  0.0854 -0.1622
41747W        W84664  30.152   5.312   4.368 -0.0695 -0.3584 -0.0917
41748W        W84665  31.717   6.261   1.916 -0.0053 -0.1683  0.2547
41749W        W84666  29.493   6.771   1.021 -0.3348  0.0431  0.4012
41750W        W84667  32.595   8.444   0.537  0.0775  0.1777 -0.0614
41751W        W84668  31.833   5.313   1.093  0.1691 -0.0995  0.2566
41752W        W84669  31.250   6.090   2.761  0.1393  0.1215  0.0219
41753W        W84670  31.924   4.971   1.994 -0.1682  0.0029  0.1665
41754W        W84671  31.302   3.792   0.923 -0.0032  0.0115 -0.0746
41755W        W84672  31.704   3.610   1.219 -0.0239 -0.1565  0.1284
41756W        W84673  31.633   3.885   2.477  0.3179 -0.2004 -0.1244
41757W        W84674  30.660   6.093  31.392  0.1854  0.0935  0.1485
41758W        W84675  29.767   4.570  31.291 -0.2135 -0.1903 -0.2594
41759W        W84676  31.435   4.970   1.194  0.0299 -0.1027 -0.0299
41760W        W84677  28.921   4.088   2.842 -0.2299 -0.3452 -0.0773
41761W        W84678  31.690   4.609   2.302 -0.0682  0.0239 -0.2219
41762W        W84679  29.610   6.081   0.110 -0.0041 -0.2339 -0.0832
41763W        W84680  29.912   3.087   0.159 -0.0072  0.1057  0.2607
41764W        W84681  33.554   5.720   1.331 -0.1324  0.2823  0.0316
41765W        W84682  28.698   5.012   0.431  0.1259  0.2246  0.0444
41766W        W84683  29.299   5.887  31.619  0.2100  0.0026 -0.0397
41767W        W84684  31.896   5.787   2.226  0.2474 -0.0300  0.3630
41768W        W84685  33.396   6.080   1.629  0.0383  0.1758  0.0823
41769W        W84686  31.961   3.080   0.348  0.1382  0.2466  0.1993
41770W        W84687  32.504   7.848   4.206 -0.1537 -0.0913 -0.0227
41771W        W84688  28.986   5.180  30.491  0.0773  0.0549  0.1928
41772W        W84689  29.635   5.661   3.483  0.1428 -0.1130 -0.3191
41773W        W84690  29.900   4.519   2.428  0.1845 -0.2049 -0.2502
41774W        W84691  29.346   2.650  31.291  0.2125  0.3164 -0.0732
41775W        W84692  30.064   3.887   1.788 -0.1634 -0.0413 -0.0355
41776W        W84693  29.148   7.200   0.890  0.0786 -0.0983 -0.0162
41777W        W84694  32.419   7.467   0.452 -0.0595  0.0392  0.0668
41778W        W84695  31.078   7.291   4.160  0.0090 -0.0162  0.2891
41779W        W84696  30.517   8.530   1.634  0.1606  0.0339 -0.0153
41780W        W84697  26.853   4.963   1.656 -0.0120 -0.1787  0.1965
41781W        W84698  31.828   6.027   0.756 -0.0096 -0.1391  0.0443
41782W        W84699  30.801   6.175   3.488 -0.0005  0.0647  0.0930
41783W        W84700  33.182   6.468  31.564 -0.1568 -0.0293 -0.2287
41784W        W84701  32.795   3.288   4.061  0.1728  0.0587  0.0548
41785W        W84702  32.131   4.084  31.091  0.0671  0.1740 -0.0504
41786W        W84703  28.845   3.100   1.594 -0.0413  0.1426 -0.1071
41787W        W84704  30.991   5.811   2.297  0.1154 -0.0763  0.2469
41788W        W84705  33.111   4.623   3.032  0.0591  0.2928 -0.3056
41789W        W84706  29.697   3.692   1.392  0.2164 -0.0852 -0.0179
41790W        W84707  32.719   3.385   3.481  0.1420  0.0223 -0.3770
41791W        W84708  29.694   6.778   1.549  0.1379 -0.2546  0.2320
41792W        W84709  32.166   4.027   2.133 -0.2856 -0.0205 -0.0460
41793W        W84710  32.832   5.601  31.846  0.2303 -0.1518 -0.0716
41794W        W84711  31.835   4.309   3.047 -0.0216  0.1742  0.0038
41795W        W84712  30.008   6.855   1.192 -0.0470 -0.0297 -0.1212
41796W        W84713  31.708   7.693   3.531  0.0026 -0.0133  0.1031
41797W        W84714  31.573   4.695   1.773  0.0517  0.1274  0.0324
41798W        W84715  32.830   6.540   0.044 -0.0182 -0.0515 -0.2349
41799W        W84716  30.539   5.620   2.593 -0.1720 -0.1518 -0.2801
41800W        W84717  33.134   7.036   3.546 -0.1854  0.1389 -0.0280
41801W        W84718  30.237   6.729   4.916  0.1257  0.0227  0.0006
41802W        W84719  30.952   4.574  31.578 -0.0469 -0.0429 -0.0109
41803W        W84720  30.872   4.125   1.016 -0.0423 -0.0288  0.1810
41804W        W84721  29.682   5.090   0.512  0.1003  0.0748  0.0912
41805W        W84722  28.495   3.974  31.649 -0.0754 -0.1023  0.0668
41806W        W84723  34.523   5.711   2.225 -0.0332 -0.0464 -0.3816
41807W        W84724  30.552   3.757   0.969  0.1067 -0.0481 -0.3540
41808W        W84725  29.525   3.365   0.430  0.2277  0.1203  0.1940
41809W        W84726  30.514   6.034   2.175  0.0951 -0.2190  0.1029
41810W        W84727  30.919   6.374   1.529 -0.0879  0.0644 -0.2697
41811W        W84728  29.796   5.438   8.142  0.1201 -0.0091  0.1288
41812W        W84729  28.403   4.811   4.510 -0.0942  0.1719 -0.0734
41813W        W84730  34.339   4.114   3.683 -0.0336 -0.3296  0.1845
41814W        W84731  32.647   2.653   4.126  0.1500 -0.1498  0.3364
41815W        W84732  30.994   4.199   4.908  0.2908 -0.1992  0.2999
41816W        W84733  32.798   6.653   3.619 -0.0882 -0.2432 -0.1442
41817W        W84734  29.497   4.469   7.825  0.1637  0.2012  0.0284
41818W        W84735  29.822   6.880   5.805  0.0861 -0.0575 -0.1076
41819W        W84736  31.285   7.496   6.456  0.4745 -0.0923  0.4944
41820W        W84737  32.303   6.542   3.511 -0.1261 -0.1882 -0.1027
41821W        W84738  30.834   3.514   6.637 -0.0096 -0.0667  0.1658
41822W        W84739  28.047   7.427   5.252 -0.2530 -0.0097 -0.2998
41823W        W84740  28.332   3.013   1.789  0.0456  0.1133 -0.0858
41824W        W84741  31.505   2.857   6.215 -0.0365 -0.1548  0.0722
41825W        W84742  31.957   5.257   6.626 -0.1395  0.0281 -0.0816
41826W        W84743  29.578   6.460   6.142  0.2655 -0.3187  0.2036
41827W        W84744  31.485   5.476   7.316 -0.0850 -0.1437  0.0228
41828W        W84745  30.330   5.860   3.736 -0.0336 -0.1036  0.1127
41829W        W84746  32.534   7.642   5.282 -0.2156  0.3449 -0.0388
41830W        W84747  30.563   2.319   5.547  0.1907 -0.2118 -0.1058
41831W        W84748  32.479   4.650   6.405 -0.1984 -0.0378  0.0222
41832W        W84749  31.861   6.366   5.677 -0.1580  0.0763  0.0371
41833W        W84750  29.589   4.852   2.608 -0.0243  0.0257  0.1273
41834W        W84751  30.190   3.565   6.957 -0.2228  0.0506  0.1786
41835W        W84752  30.680   3.489   7.103 -0.0802 -0.2299 -0.2867
41836W        W84753  31.159   5.556   5.345 -0.0091  0.0599 -0.0707
41837W        W84754  33.814   4.810   4.801 -0.0974  0.2303 -0.0061
41838W        W84755  31.016   7.008   5.320 -0.0867  0.0668  0.0450
41839W        W84756  32.032   7.494   5.544  0.0853  0.2225  0.2567
41840W        W84757  31.151   4.821   6.075  0.2818 -0.1390  0.1975
41841W        W84758  27.720   7.563   3.501  0.0447 -0.0118 -0.2918
41842W        W84759  28.102   8.994   3.458  0.4899  0.0697 -0.1854
41843W        W84760  31.643   6.689   5.365 -0.1820 -0.0457 -0.2680
41844W        W84761  33.240   6.229   4.963 -0.0437  0.2629 -0.2855
41845W        W84762  31.860   6.015   7.328 -0.3224  0.2235  0.0170
41846W        W84763  30.924   7.688   5.682 -0.1446 -0.2039  0.1451
41847W        W84764  27.237   6.173   0.557  0.3664  0.0683  0.1465
41848W        W84765  32.005   4.952   7.700  0.2059  0.2165  0.1326
41849W        W84766  31.157   7.188   7.091 -0.1163  0.2856 -0.2685
41850W        W84767  31.948   5.311   5.677 -0.1020 -0.0020 -0.0287
41851W        W84768  31.187   6.015   4.378  0.0353 -0.0536 -0.0425
41852W        W84769  31.440   7.313   3.307 -0.1187  0.3651  0.2945
41853W        W84770  33.685   6.760   4.952  0.0427 -0.1403  0.4674
41854W        W84771  31.333   5.997   7.461  0.1340  0.0859 -0.0414
41855W        W84772  30.382   5.399   5.325 -0.0987  0.1914 -0.3733
41856W        W84773  33.615   3.307   5.847 -0.2982  0.3344 -0.0243
41857W        W84774  31.708   4.946   5.336 -0.1378 -0.0595  0.3714
41858W        W84775  31.248   5.274   4.931 -0.3780 -0.0070  0.0480
41859W        W84776  32.513   3.986   2.503 -0.1021 -0.1523 -0.0987
41860W        W84777  33.674   4.630   5.829  0.0981  0.0952 -0.0314
41861W        W84778  31.544   4.745   3.193 -0.1728  0.3771 -0.1460
41862W        W84779  30.709   7.778   3.822  0.1979 -0.0195 -0.0179
41863W        W84780  31.801   3.050   4.931  0.0040  0.1425  0.0975
41864W        W84781  33.735   5.608   9.393 -0.0854  0.0612  0.0199
41865W        W84782  30.979   5.632   3.695 -0.1867 -0.0742 -0.3690
41866W        W84783  31.672   6.690   5.983 -0.0928 -0.0171  0.1252
41867W        W84784  29.635   4.862   5.587  0.1876 -0.0981  0.1427
41868W        W84785  28.759   7.253   4.623 -0.1169  0.0259 -0.2465
41869W        W84786  33.904   6.955   4.103  0.1360 -0.1635  0.1385
41870W        W84787  31.255   7.446   5.444  0.1457  0.2314 -0.0236
41871W        W84788  32.390   7.031   3.641 -0.0048  0.1505 -0.4259
41872W        W84789  29.540   5.577   5.471 -0.1702 -0.4158  0.0221
41873W        W84790  29.841   4.868   7.806 -0.1672  0.1151 -0.0459
41874W        W84791  29.418   4.057   6.663  0.1100 -0.2207 -0.1881
41875W        W84792  29.652   3.183   1.280  0.0071 -0.2390 -0.2306
41876W        W84793  33.309   5.891   4.608 -0.2146  0.2084  0.2212
41877W        W84794  29.596   6.258   7.183  0.2826 -0.1829  0.4726
41878W        W84795  32.606   3.947   4.629  0.0555  0.1494  0.3362
41879W        W84796  29.224   5.473   6.428 -0.0109 -0.0563 -0.0092
41880W        W84797  32.119   6.913   6.241  0.1074 -0.1639 -0.1679
41881W        W84798  31.528   5.467   3.424  0.0179 -0.1821 -0.0088
41882W        W84799  32.383   2.565   4.579 -0.5658 -0.0171  0.2318
41883W        W84800  32.446   5.819   6.277  0.3143 -0.0425  0.0974
41884W        W84801  30.649   5.506   4.093  0.0015  0.1821 -0.0910
41885W        W84802  29.338   6.001   4.371 -0.2445  0.0260 -0.1063
41886W        W84803  34.269   4.778   7.398  0.0507  0.0121 -0.0823
41887W        W84804  31.829   4.786   2.797 -0.0944  0.0423 -0.2122
41888W        W84805  29.261   4.150   5.662  0.0387 -0.0689 -0.1938
41889W        W84806  31.494   3.841   7.490  0.0456 -0.0365 -0.3659
41890W        W84807  30.746   5.392   8.353  0.1217 -0.0954 -0.1683
41891W        W84808  30.156   7.809   2.927  0.2420 -0.4959 -0.0083
41892W        W84809  28.905   5.485   5.015  0.0825 -0.1465  0.0012
41893W        W84810  28.842   4.970   3.759  0.1007 -0.2045  0.2978
41894W        W84811  28.612   4.418   6.504  0.2323 -0.2190  0.2261
41895W        W84812  29.334   5.032   6.561  0.1289  0.3569  0.1924
41896W        W84813  31.308   2.899   4.614 -0.1622 -0.0429 -0.0380
41897W        W84814  28.775   3.514   6.856 -0.1925 -0.0646 -0.2629
41898W        W84815  31.771   3.462   4.582 -0.1689  0.0531 -0.3010
41899W        W84816  30.146   6.284   4.732 -0.0050 -0.0244 -0.2263
41900W        W84817  33.142   6.044   5.927  0.0469  0.2711  0.0151
41901W        W84818   1.147   6.155   4.345 -0.0227 -0.0852  0.2393
41902W        W84819  32.659   5.280   3.589 -0.1535  0.2194  0.1135
41903W        W84820  27.778   4.928   7.546  0.0503  0.1093 -0.1099
41904W        W84821  30.176   3.865   5.995  0.0956 -0.0955 -0.4576
41905W        W84822  30.796   5.302   5.604  0.0969 -0.0312  0.1196
41906W        W84823  30.540   4.839   6.430  0.0017 -0.1683  0.4534
41907W        W84824  30.869   6.212   6.554 -0.2442 -0.3310 -0.0560
41908W        W84825  31.146   4.939   5.305 -0.1338 -0.1821  0.0383
41909W        W84826  31.904   5.537   4.349  0.2357 -0.2981 -0.1896
41910W        W84827  30.285   5.925   4.389 -0.1742 -0.1437 -0.1307
41911W        W84828  28.879   5.899   4.136 -0.3215 -0.0527  0.0263
41912W        W84829  32.269   6.681   7.653  0.0456 -0.1839  0.0684
41913W        W84830  32.113   6.153   3.710  0.1290  0.1014 -0.1262
41914W        W84831  33.227   5.993   5.442 -0.0042  0.0126  0.1492
41915W        W84832  32.808   7.805   4.647 -0.3155 -0.0561  0.1122
41916W        W84833  33.134   4.846   7.076 -0.1658  0.3897  0.0346
41917W        W84834  28.411   4.739   4.002 -0.3111 -0.0777 -0.1541
41918W        W84835  29.108   8.658   4.608 -0.1000 -0.0189  0.0006
41919W        W84836  30.218   5.170   4.856 -0.1861 -0.2115 -0.0495
41920W        W84837  29.822   3.837   5.378  0.1577  0.0265  0.0392
41921W        W84838  32.729   6.829   4.570  0.1056  0.1394 -0.1921
41922W        W84839  29.317   5.768   3.878  0.1459 -0.1211 -0.1420
41923W        W84840  30.079   3.907   6.662  0.6045 -0.4452  0.0371
41924W        W84841  32.077   4.903   6.258 -0.2196  0.0720  0.1900
41925W        W84842  32.402   5.255   6.380  0.0785 -0.0183 -0.0391
41926W        W84843  33.612   6.747   5.488 -0.1538  0.0339  0.1351
41927W        W84844  30.331   4.291   3.124 -0.2615  0.0772 -0.3172
41928W        W84845  32.307   6.476   3.988 -0.2638 -0.2343 -0.3625
41929W        W84846  27.781   8.023   4.416 -0.0892 -0.2407 -0.0756
41930W        W84847  29.442   5.230   2.264  0.0540 -0.2740  0.0336
41931W        W84848  32.943   6.062   4.322  0.0597 -0.1763  0.1864
41932W        W84849  31.110   4.243   5.405  0.1640  0.0141 -0.1346
41933W        W84850  27.410   4.916   6.192  0.1742  0.0023  0.0125
41934W        W84851  31.561   4.639   7.580 -0.1795  0.0673 -0.0295
41935W        W84852  29.238   5.410   3.319  0.1095  0.0809  0.1653
41936W        W84853  29.920   5.809   6.042 -0.2321 -0.0334  0.2141
41937W        W84854  32.725   4.695   5.591  0.1466  0.2933  0.0498
41938W        W84855  31.344   3.546   4.227  0.3193 -0.1384  0.1936
41939W        W84856  31.477   3.545   6.618 -0.1790 -0.0431  0.2611
41940W        W84857  32.209   5.493   5.269 -0.0346 -0.3282 -0.0104
41941W        W84858  29.957   4.866   4.480 -0.0657  0.1956 -0.2140
41942W        W84859  30.974   5.639   2.859  0.0651  0.0955  0.0538
41943W        W84860  28.471   8.490   6.448 -0.2975 -0.1940 -0.0036
41944W        W84861  32.539   6.297   4.422 -0.1857 -0.1066  0.1729
41945W        W84862  30.304   5.904   5.087 -0.2982 -0.0583  0.0991
41946W        W84863  30.884   5.906   1.810  0.1419  0.1733 -0.2609
41947W        W84864  32.765   5.357   4.858 -0.0561  0.1412 -0.1545
41948W        W84865  29.428   5.706   4.811  0.1429 -0.1153 -0.0081
41949W        W84866  30.709   4.931   7.472  0.1765 -0.1703  0.2149
41950W        W84867  32.362   6.140   5.658  0.0379  0.1762  0.0318
41951W        W84868  30.705   5.147   5.015  0.1626 -0.0258  0.3407
41952W        W84869  32.422   5.177   1.803 -0.1391 -0.0673  0.0096
41953W        W84870  29.056   6.395   4.335  0.3051  0.0999 -0.0887
41954W        W84871  29.355   6.246   3.909  0.0652  0.0051 -0.2090
41955W        W84872  32.112   3.984   4.610 -0.1032  0.1557  0.0713
41956W        W84873  30.292   4.652   5.059  0.0873 -0.0831 -0.0768
41957W        W84874  29.909   4.615   5.986  0.2308 -0.1212  0.1106
41958W        W84875  31.793   4.640   7.119 -0.1164 -0.2122 -0.1843
41959W        W84876  33.636   4.973   5.274  0.0552  0.2496 -0.0637
41960W        W84877  30.827   4.947   3.789 -0.1323 -0.0710  0.2399
41961W        W84878  28.969   5.685   2.907  0.2230 -0.0123 -0.0808
41962W        W84879  33.144   5.514   5.167  0.1363 -0.2508  0.0174
41963W        W84880  29.093   4.599   5.539  0.6182 -0.1166 -0.0426
41964W        W84881  29.083   9.299   7.498 -0.0262  0.1608  0.1392
41965W        W84882  33.768   5.679   7.976  0.1900  0.2809 -0.0941
41966W        W84883  32.925   6.571   4.156  0.3447  0.4946 -0.1598
41967W        W84884  30.939   5.569   7.199 -0.0348 -0.0321  0.0980
41968W        W84885  31.835   3.452   4.055  0.0966 -0.2788 -0.1088
41969W        W84886  29.154   6.902   4.785 -0.0608 -0.0467  0.0396
41970W        W84887  32.548   5.985   4.040  0.1195 -0.1593 -0.4259
41971W        W84888  32.026   3.969   3.943  0.0594 -0.4938 -0.0758
41972W        W84889  31.637   6.257   6.249 -0.0532 -0.0853  0.1073
41973W        W84890  31.958   6.608   3.078 -0.0877  0.5329  0.2820
41974W        W84891  31.564   5.135   7.644  0.0887 -0.0525 -0.1972
41975W        W84892  29.197   6.007   5.184  0.0831  0.0329 -0.1371
41976W        W84893  32.274   4.508   5.961  0.0145 -0.0930  0.0029
41977W        W84894  29.089   8.178   4.759  0.1442  0.1218 -0.1356
41978W        W84895  28.202   6.336   4.417  0.1061 -0.0509 -0.1250
41979W        W84896  29.452   4.074   6.127  0.0986 -0.1678  0.3654
41980W        W84897  30.033   5.841   5.524 -0.0514 -0.2530  0.0154
41981W        W84898  32.366   4.449   3.781  0.0793 -0.1047  0.0378
41982W        W84899  31.143   5.412   6.215  0.1382  0.1539 -0.0485
41983W        W84900  32.119   4.980   5.063 -0.0484  0.1475  0.0149
41984W        W84901  28.475   6.220   4.831  0.0793 -0.0720  0.0269
41985W        W84902  30.511   4.898   5.475  0.2571 -0.2216 -0.0453
41986W        W84903  34.209   1.841   5.052  0.2513  0.0533  0.1335
41987W        W84904  31.700   6.676   6.525  0.2570  0.0162  0.0689
41988W        W84905  30.405   6.284   6.704 -0.3192 -0.0841  0.1520
41989W        W84906  28.562   6.260   4.006  0.1519  0.0525  0.0291
41990W        W84907  30.766   6.746   6.473 -0.0970  0.1560 -0.4274
41991W        W84908  29.649   6.487   5.529 -0.2964 -0.1103  0.0933
41992W        W84909  28.768   8.039   3.441  0.3078  0.1439  0.1828
41993W        W84910  31.933   5.912   5.495 -0.0643  0.1299 -0.0179
41994W        W84911  30.963   5.577   4.624  0.0381  0.0444 -0.1514
41995W        W84912  28.720   6.923   5.019  0.0009  0.3838 -0.2442
41996W        W84913  29.857   4.409   7.406  0.2637 -0.0501 -0.0057
41997W        W84914  32.099   5.002   8.385  0.1728  0.0434  0.1547
41998W        W84915  30.648   4.370   5.293  0.0106 -0.3679  0.0904
41999W        W84916  30.388   4.420   4.116  0.0118  0.3220  0.1341
42000W        W84917  28.221   6.353   6.208 -0.1194 -0.0032  0.0175
42001W        W84918  31.934   5.842   5.036  0.1356 -0.0327 -0.1794
42002W        W84919  30.184   5.758   6.461 -0.0580  0.1630 -0.0778
42003W        W84920  29.994   4.912   7.335  0.0351  0.1326  0.0812
42004W        W84921  31.103   3.754   6.191 -0.0585  0.1892 -0.1695
42005W        W84922  32.392   6.630   4.902  0.0060  0.1105  0.0531
42006W        W84923  31.254   4.629   6.919 -0.0178 -0.0104 -0.1778
42007W        W84924  28.462   5.673   4.897 -0.0240 -0.0477 -0.0713
42008W        W84925  27.980   5.107   7.061  0.5640  0.0573 -0.0245
42009W        W84926  31.678   5.498   5.373 -0.0941 -0.2756 -0.2692
42010W        W84927  32.282   3.470   4.352 -0.0067 -0.1211  0.4965
42011W        W84928  29.400   7.094   6.431 -0.1506  0.1971  0.0574
42012W        W84929  30.893   6.654   5.778  0.1176  0.2489  0.0739
42013W        W84930  29.183   6.432   5.837  0.0118 -0.1751 -0.1822
42014W        W84931  30.575   3.290   3.562 -0.2273 -0.0509  0.0734
42015W        W84932  32.590   5.943   2.854  0.0561 -0.0467  0.2686
42016W        W84933  30.583   3.562   5.884  0.0082  0.0102 -0.3760
42017W        W84934  33.309   4.758   6.208  0.1644 -0.0364 -0.1197
42018W        W84935  31.175   5.383   4.092 -0.1217 -0.0165 -0.0969
42019W        W84936  30.597   4.509   8.604 -0.2561 -0.2162 -0.0387
42020W        W84937  29.395   1.893   6.571  0.1113  0.0036  0.0656
42021W        W84938  32.284   5.759   7.351  0.0560 -0.0429  0.2036
42022W        W84939  29.381   5.570   5.973 -0.1174  0.2044  0.1924
42023W        W84940  30.541   7.160   7.057  0.4114 -0.2689 -0.3141
42024W        W84941  28.742   3.944   8.265  0.0767 -0.2607  0.1784
42025W        W84942  29.757   5.231   3.130  0.0684 -0.1423 -0.1201
42026W        W84943  29.923   5.005   2.189 -0.1602 -0.1960 -0.1768
42027W        W84944  30.026   5.030   5.353 -0.0399 -0.0511  0.1453
42028W        W84945  32.075   5.108   7.217 -0.1824 -0.3125  0.2460
42029W        W84946  31.184   4.966   4.365  0.1221 -0.2777  0.1810
42030W        W84947  31.173   4.450   4.460 -0.0849  0.0859  0.1870
42031W        W84948  28.696   6.260   5.977 -0.0257  0.1351 -0.1544
42032W        W84949  32.831   5.607   4.422  0.1310 -0.1971  0.1410
42033W        W84950  30.713   6.021   4.626  0.0498  0.1385  0.1603
42034W        W84951  29.099   6.697   6.329 -0.1464 -0.1149  0.1930
42035W        W84952  31.279   3.409   4.688 -0.1143  0.2163 -0.2845
42036W        W84953  30.391   4.343   6.638  0.0615  0.0970 -0.0263
42037W        W84954  29.721   5.160   4.126 -0.0579  0.0232 -0.4194
42038W        W84955  32.869   5.389   6.200  0.2013 -0.1509  0.1308
42039W        W84956  31.623   5.789   5.946  0.4160  0.1202 -0.3162
42040W        W84957  29.804   3.761   8.447 -0.0968 -0.0374 -0.2892
42041W        W84958  29.387   4.423   7.213  0.0016  0.0726  0.2757
42042W        W84959  30.273   6.964   7.578  0.0056  0.4584  0.0169
42043W        W84960  33.715   3.089   2.489 -0.3141  0.1531 -0.1339
42044W        W84961  31.463   5.470   6.628 -0.1422 -0.0396  0.1495
42045W        W84962  33.374   5.688   4.134  0.0013 -0.2309  0.0391
42046W        W84963  30.245   5.853   1.660 -0.1748  0.3642  0.0643
42047W        W84964  31.167   3.283   6.928  0.1299  0.1798 -0.1515
42048W        W84965  30.765   4.612   6.842  0.0909 -0.1785  0.2612
42049W        W84966  31.227   3.908   2.191 -0.0582  0.2179  0.1163
42050W        W84967  32.467   4.092   6.547  0.2912 -0.3587 -0.2548
42051W        W84968  29.964   5.545   3.843  0.2964 -0.2352  0.1681
42052W        W84969  32.326   7.529   4.774 -0.2377  0.2295 -0.2184
42053W        W84970  31.566   5.711   4.104  0.1069  0.0584 -0.2787
42054W        W84971  30.296   4.945   5.980  0.0432 -0.2233 -0.1136
42055W        W84972  29.435   7.056   7.752 -0.0274 -0.0021  0.2839
42056W        W84973  28.776   4.536   3.151 -0.1062  0.4647 -0.0981
42057W        W84974  30.787   6.158   2.595 -0.2184  0.2880  0.0885
42058W        W84975  32.782   7.019   7.029 -0.1045  0.0884 -0.0008
42059W        W84976  33.850   5.416   8.417 -0.0997  0.2279  0.3153
42060W        W84977  31.205   4.545   2.140  0.0169 -0.0961  0.0912
42061W        W84978  32.090   6.072   6.057 -0.1394 -0.1489  0.3559
42062W        W84979  29.914   5.497   5.119 -0.1512 -0.2735  0.0518
42063W        W84980  31.643   4.378   4.042  0.1582  0.0332 -0.1301
42064W        W84981  30.254   7.851   8.510 -0.2437 -0.0878 -0.1807
42065W        W84982  31.082   3.449   5.475  0.1539 -0.0519 -0.0039
42066W        W84983  30.700   7.470   5.308 -0.2031  0.3102 -0.3666
42067W        W84984  30.798   4.249   7.221  0.2273 -0.0591 -0.0943
42068W        W84985  29.446   6.536   6.759  0.3230 -0.4157  0.2154
42069W        W84986  28.817   5.051   6.672 -0.1967  0.1332  0.1087
42070W        W84987  31.377   5.281   8.170 -0.5946 -0.1568  0.0775
42071W        W84988  28.974   5.840   6.074  0.2328 -0.0495  0.0861
42072W        W84989  29.035   4.973   6.200  0.3236 -0.1058  0.1612
42073W        W84990  30.548   6.393   8.193  0.0268  0.1931  0.0939
42074W        W84991  32.128   5.081   4.028  0.1377  0.0254 -0.3422
42075W        W84992  30.025   7.053   6.228  0.1667 -0.0572  0.0061
42076W        W84993  27.960   3.190   7.311 -0.2631 -0.2015  0.0414
42077W        W84994  31.552   5.097   6.287 -0.0199 -0.0405 -0.0802
42078W        W84995  32.330   7.033   5.823  0.0971  0.4278  0.0094
42079W        W84996  29.917   4.197   6.323  0.0670 -0.0620  0.0394
42080W        W84997  31.359   6.597   1.781  0.2552  0.5119  0.1805
42081W        W84998  28.941   5.080   7.354  0.1345 -0.1070  0.1360
42082W        W84999  30.741   5.135   6.935 -0.4840 -0.0606  0.1175
42083W        W85000  29.649   6.718   5.044 -0.0152  0.0940  0.0142
42084W        W85001  31.589   5.735   2.902 -0.0059 -0.1834 -0.1250
42085W        W85002  31.691   5.964   4.589 -0.3432  0.4146  0.1477
42086W        W85003  29.295   7.668   5.207  0.2146  0.1537 -0.0695
42087W        W85004  30.286   3.616   3.058 -0.0911  0.0215 -0.2955
42088W        W85005  29.842   7.320   5.532  0.0819  0.0314 -0.1418
42089W        W85006  29.283   6.458   1.379 -0.2266  0.0068 -0.0492
42090W        W85007  31.906   7.015   5.561  0.4576  0.0306  0.0492
42091W        W85008  29.735   6.113   6.676  0.1339 -0.0053  0.0530
42092W        W85009  34.016   5.808   5.393 -0.0784 -0.1716  0.1508
42093W        W85010  33.488   4.845   3.443 -0.2172  0.0265 -0.0566
42094W        W85011  34.118   6.621   5.179  0.1394 -0.0089 -0.0671
42095W        W85012  32.439   4.203   4.229 -0.0516 -0.2338  0.0572
42096W        W85013  34.254   5.376   8.166  0.0276 -0.2142 -0.1078
42097W        W85014  29.821   5.324   5.783 -0.0385 -0.2777 -0.0785
42098W        W85015  30.135   5.581   3.374 -0.1466 -0.1140 -0.0113
42099W        W85016  30.157   6.609   7.977 -0.0189  0.0825  0.1512
42100W        W85017  32.732   3.074   4.948  0.1517  0.1134 -0.5254
42101W        W85018  30.459   8.006   5.109  0.2998 -0.2730  0.0248
42102W        W85019  32.750   6.795   5.184 -0.2734  0.1587  0.3367
42103W        W85020  29.979   6.262   6.276  0.3757  0.1523  0.1944
42104W        W85021  30.308   5.454   5.803 -0.2500 -0.0877 -0.3127
42105W        W85022  33.597   2.469   4.618 -0.3643 -0.1252 -0.3465
42106W        W85023  32.701   6.454   2.950  0.0581 -0.1301  0.1657
42107W        W85024  29.873   6.050   3.720  0.2631 -0.0550  0.2244
42108W        W85025  30.135   6.318   5.291 -0.1653  0.0645  0.0596
42109W        W85026  29.012   7.205   6.141 -0.3027  0.0576  0.3810
42110W        W85027  29.983   6.253   5.770 -0.0716  0.0916 -0.0568
42111W        W85028  29.017   3.822   5.982  0.0969  0.0044  0.1092
42112W        W85029  33.227   5.632   6.913 -0.1874  0.0538 -0.0797
42113W        W85030  30.948   6.127   5.437  0.2079  0.1558 -0.2039
42114W        W85031  31.302   3.726   5.124 -0.1336  0.0603 -0.1885
42115W        W85032  29.608   4.574   6.451  0.0740 -0.1628  0.1794
42116W        W85033  31.445   5.734   4.971  0.0192 -0.0540  0.0286
42117W        W85034  30.473   6.414   6.180 -0.2338 -0.4462  0.0179
42118W        W85035  30.322   4.607   7.707  0.3395 -0.3582 -0.0578
42119W        W85036  30.927   5.294   3.336  0.0646  0.1479 -0.2194
42120W        W85037  30.506   5.695   6.951  0.2552  0.1705 -0.3324
42121W        W85038  32.000   5.660   3.837 -0.0936  0.0278  0.2801
42122W        W85039  32.732   5.717   5.393 -0.1022 -0.2177 -0.0022
42123W        W85040  32.928   5.244   5.703  0.0833  0.2798 -0.1101
42124W        W85041  32.544   4.870   4.799  0.1318  0.2360 -0.1127
42125W        W85042  28.074   5.114   4.252  0.5022 -0.2404 -0.2558
42126W        W85043  32.596   6.769   6.284  0.1565 -0.0376 -0.2004
42127W        W85044  32.267   6.553   5.915  0.2716  0.2009 -0.0094
42128W        W85045  29.694   5.243   4.720  0.1618  0.0808  0.1096
42129W        W85046  34.273   6.076   4.471 -0.0524  0.1177 -0.1219
42130W        W85047  31.760   7.605   6.338 -0.1493  0.1869 -0.1717
42131W        W85048  31.805   6.765   4.886  0.1591 -0.0810  0.1845
42132W        W85049  34.074   4.441   4.998  0.1266  0.1159 -0.0721
42133W        W85050  31.159   7.817   4.152  0.1560 -0.0891 -0.0276
42134W        W85051  31.434   4.499   5.150 -0.1999  0.0640 -0.2882
42135W        W85052  30.926   6.252   6.064 -0.1262  0.1039 -0.1758
42136W        W85053  32.019   7.710   6.821 -0.0117 -0.1704  0.0400
42137W        W85054  30.485   4.598   3.503 -0.1523  0.1913 -0.1218
42138W        W85055  31.898   4.561   4.959  0.0066 -0.1066 -0.1456
42139W        W85056  30.498   7.669   3.279  0.0406  0.0251  0.6022
42140W        W85057  32.605   5.103   5.258  0.1282 -0.2041  0.0297
42141W        W85058  32.644   4.786   7.051  0.0682 -0.0841  0.4498
42142W        W85059  29.313   5.639   2.508 -0.2955 -0.3334  0.0265
42143W        W85060  33.247   4.379   5.787 -0.1801 -0.1413  0.0233
42144W        W85061  30.243   6.616   5.779 -0.0072 -0.2505 -0.2341
42145W        W85062  30.017   7.610   6.045 -0.0704 -0.0901  0.1556
42146W        W85063  30.455   6.565   2.284  0.3996  0.2412 -0.2048
42147W        W85064  30.441   6.639   7.143 -0.0557  0.0647 -0.0049
42148W        W85065  30.558   6.884   6.056 -0.1754  0.0834 -0.1128
42149W        W85066  31.235   4.744   3.958 -0.2221 -0.0724 -0.0361
42150W        W85067  31.994   7.329   5.998 -0.0072 -0.1088 -0.3763
42151W        W85068  33.874   5.744   4.588  0.0319  0.0656  0.2050
42152W        W85069  32.728   5.770   5.892  0.4597 -0.1423  0.1701
42153W        W85070  31.419   5.465   4.537  0.0045 -0.0961 -0.1928
42154W        W85071  32.338   3.666   5.404 -0.0709  0.0573  0.0791
42155W        W85072  32.045   2.486   5.571 -0.0986  0.1218 -0.2128
42156W        W85073  29.485   5.944   6.288 -0.1978 -0.1605  0.1523
42157W        W85074  29.689   6.016   5.188  0.0228 -0.0779  0.0787
42158W        W85075  29.176   6.105   2.720  0.1042  0.0068 -0.1621
42159W        W85076  28.848   6.856   5.587 -0.0445 -0.2646  0.1162
42160W        W85077  32.818   5.379   6.763  0.1818 -0.1983  0.0438
42161W        W85078  30.711   4.068   5.727 -0.2144  0.1707 -0.3274
42162W        W85079  29.771   4.162   5.769 -0.2747 -0.0275 -0.0281
42163W        W85080  29.979   4.369   4.646  0.2789 -0.1846 -0.0339
42164W        W85081  31.871   7.642   4.589  0.0375  0.1721  0.0321
42165W        W85082  30.303   4.369   6.021 -0.1561 -0.0477 -0.0211
42166W        W85083  30.678   2.669   6.460 -0.3586  0.1088  0.1071
42167W        W85084  32.880   5.222   4.028 -0.0020  0.4088 -0.1368
42168W        W85085  34.242   6.560   4.686  0.1212  0.3647  0.0243
42169W        W85086  30.383   5.046   4.053 -0.1739  0.4395 -0.3793
42170W        W85087  31.224   6.942   6.644 -0.1805  0.1224  0.0206
42171W        W85088  30.421   4.741   2.160 -0.2160  0.3436  0.4827
42172W        W85089  29.632   5.741   7.208 -0.2354  0.1151  0.0804
42173W        W85090  31.191   4.852   7.904 -0.0700  0.3296 -0.1850
42174W        W85091  28.287   3.317   2.952 -0.2755  0.2392  0.3532
42175W        W85092  29.922   5.881   4.742  0.1686  0.1629  0.0981
42176W        W85093  30.601   6.710   5.374  0.0603  0.0139  0.0001
42177W        W85094  30.751   5.215   2.857 -0.1916 -0.2122 -0.2694
42178W        W85095  30.415   5.267   7.269  0.2197  0.0002  0.1461
42179W        W85096  29.437   6.005   5.712 -0.0605  0.2520  0.2522
42180W        W85097  30.395   3.413   5.456 -0.1709  0.0321 -0.1532
42181W        W85098  31.025   4.596   3.464  0.1002  0.0592  0.2029
42182W        W85099  31.500   5.875   6.952 -0.0691  0.0017  0.2078
42183W        W85100  34.378   4.931   3.415  0.1302 -0.0221  0.1344
42184W        W85101  32.325   4.554   5.235 -0.0031 -0.3184 -0.1384
42185W        W85102  30.612   5.646   3.240  0.0462  0.3702  0.1245
42186W        W85103  30.168   3.243   6.219 -0.0420 -0.2006 -0.0050
42187W        W85104  28.720   6.996   6.528  0.3460  0.3376 -0.1555
42188W        W85105  30.734   5.816   6.325  0.1294 -0.1405 -0.1222
42189W        W85106  31.061   5.721   5.809 -0.0653  0.0561 -0.0695
42190W        W85107  31.512   3.793   3.823 -0.0796  0.1731  0.0124
42191W        W85108  31.962   5.705   3.315 -0.0972 -0.0281  0.0739
42192W        W85109  29.432   4.864   7.477  0.2641 -0.0725  0.0104
42193W        W85110  33.472   4.485   5.382 -0.2581  0.1113 -0.0100
42194W        W85111  30.880   4.580   5.702  0.1838  0.0684 -0.0463
42195W        W85112  30.082   4.241   3.676 -0.1851  0.0251  0.0255
42196W        W85113  31.872   5.382   8.104  0.0774 -0.0712  0.1859
42197W        W85114  30.065   5.176   3.610 -0.1247 -0.2603  0.1353
42198W        W85115  30.843   4.661   4.861  0.2186 -0.1798 -0.0967
42199W        W85116  30.671   8.306   5.721  0.1509  0.4069 -0.1368
42200W        W85117  33.743   5.660   6.818 -0.2446  0.0323 -0.0086
42201W        W85118  29.544   7.234   5.060 -0.1937 -0.0792 -0.1415
42202W        W85119  30.391   5.916   5.940  0.0453 -0.0630  0.0676
42203W        W85120  29.214   3.248   3.368  0.1136  0.2163 -0.1781
42204W        W85121  28.920   6.275   1.908 -0.1240  0.1965 -0.5658
42205W        W85122  28.944   5.834   3.507 -0.0489 -0.3785 -0.0037
42206W        W85123  31.361   5.874   6.403 -0.1745 -0.2518 -0.0943
42207W        W85124  30.136   4.596   5.524 -0.0222 -0.0566 -0.0312
42208W        W85125  30.385   5.197   2.441  0.0131  0.0051 -0.1220
42209W        W85126  29.740   7.056   6.808 -0.1511  0.3464  0.2002
42210W        W85127  32.759   6.264   6.179  0.2616  0.0739 -0.2781
42211W        W85128  32.217   7.806   7.280 -0.1079 -0.1324 -0.5236
42212W        W85129  30.266   5.628   9.703  0.3468  0.2219 -0.0030
42213W        W85130  33.081   2.811   6.373  0.0777  0.0455 -0.2033
42214W        W85131  34.062   5.006   9.010  0.2527 -0.0470  0.2500
42215W        W85132  29.234   1.453   7.600 -0.0468 -0.0416 -0.0625
42216W        W85133  33.390   5.910   9.137 -0.1073 -0.1990 -0.0708
42217W        W85134  32.826   7.848   8.585  0.0077 -0.0044  0.0842
42218W        W85135  34.133   4.572   8.770  0.1547  0.0860  0.1698
42219W        W85136  30.722   5.154   6.116 -0.1199  0.0736 -0.0957
42220W        W85137  32.075   3.483   8.948 -0.2592 -0.0298 -0.1735
42221W        W85138  30.347   3.082   6.669 -0.0496  0.0604  0.0734
42222W        W85139  28.664   2.473   8.933 -0.1141  0.1307 -0.0774
42223W        W85140  32.388   5.150   8.865 -0.2892  0.0876  0.3582
42224W        W85141  26.510   5.789   9.140 -0.1498 -0.0674  0.1547
42225W        W85142  30.405   2.030   9.213  0.1756  0.0368 -0.0837
42226W        W85143  31.119   4.921   6.571 -0.1946  0.0786  0.0764
42227W        W85144  31.394   7.179   8.621  0.2058 -0.0919  0.0740
42228W        W85145  30.533   6.638   9.061 -0.2182 -0.1533 -0.3355
42229W        W85146  32.649   5.493   7.601  0.0824  0.0458  0.1153
42230W        W85147  28.857   5.332   7.818 -0.0873 -0.1191  0.3126
42231W        W85148  28.211   4.818  10.290  0.1022 -0.2125  0.0196
42232W        W85149  29.769   5.655   9.789 -0.3062 -0.0072 -0.0976
42233W        W85150  32.251   4.781   9.203 -0.1230  0.0061  0.0681
42234W        W85151   0.320   3.123   9.239  0.1954  0.0173 -0.2323
42235W        W85152  30.015   5.282  10.057  0.4000  0.1234 -0.0413
42236W        W85153  29.764   3.905   8.962  0.0566 -0.0218 -0.2047
42237W        W85154  30.546   3.550   9.638  0.1693  0.0690 -0.2129
42238W        W85155  26.790   7.826   9.086  0.2697 -0.0330  0.2428
42239W        W85156  29.924   5.857   8.783 -0.1874  0.2679  0.0297
42240W        W85157  32.950   6.233   8.247 -0.1191 -0.3278 -0.5091
42241W        W85158  28.921   5.994   7.165 -0.0201  0.1211 -0.0687
42242W        W85159  30.071   3.678   9.937 -0.0921 -0.1781 -0.0602
42243W        W85160  30.201   6.216   9.071 -0.1242 -0.1485  0.2322
42244W        W85161  29.430   8.022   7.540 -0.0894 -0.0608  0.0208
42245W        W85162  30.979   6.753   8.034  0.0357 -0.2508 -0.1949
42246W        W85163  27.298   5.144   8.921 -0.0350 -0.1066 -0.0875
42247W        W85164  30.986   8.190   7.512  0.1380 -0.2979 -0.0567
42248W        W85165  33.622   5.817   7.263 -0.0506 -0.4016 -0.0245
42249W        W85166  31.195   4.210   5.893  0.0134  0.0232 -0.0956
42250W        W85167  32.632   4.247   7.030 -0.0990  0.1589 -0.1959
42251W        W85168  30.527   0.515   9.670 -0.0334 -0.1490 -0.0136
42252W        W85169  31.601   7.390   7.038 -0.2202  0.1724 -0.0909
42253W        W85170  29.362   4.482   9.485  0.1030 -0.1187  0.0244
42254W        W85171  30.764   3.773   4.810 -0.1668  0.0351  0.0596
42255W        W85172   0.695   4.958   8.952  0.0485  0.3039  0.0661
42256W        W85173  30.097   1.838   9.829 -0.1612 -0.3488 -0.1218
42257W        W85174  29.853   2.239   9.439 -0.1294  0.0469 -0.1489
42258W        W85175  30.908   6.614   7.122 -0.2478 -0.1799  0.3006
42259W        W85176  33.682   4.393   8.665 -0.1434 -0.3762  0.0032
42260W        W85177  32.187   4.462   6.828  0.1464 -0.0976  0.1951
42261W        W85178  30.251   5.361   8.228  0.2671 -0.2775 -0.1344
42262W        W85179  31.675   3.790   7.020  0.0634 -0.0120 -0.1572
42263W        W85180  32.739   4.804   8.793  0.0056  0.0577 -0.0281
42264W        W85181  31.872   6.053   9.189  0.0854  0.0457 -0.2663
42265W        W85182  29.930   0.290   9.714  0.0284  0.2160 -0.1695
42266W        W85183  32.315   5.492   8.499  0.4949  0.0420 -0.1350
42267W        W85184  30.008   4.569  10.124  0.1397  0.1552 -0.3133
42268W        W85185   1.027   0.840  10.512 -0.0136 -0.0687  0.4313
42269W        W85186  30.312   5.171   7.773  0.0553 -0.0502  0.2515
42270W        W85187  30.605   6.578   7.655  0.0609  0.0834  0.0128
42271W        W85188  31.898   5.522   7.104 -0.1401 -0.1445 -0.0530
42272W        W85189  30.819   4.379   6.292  0.1396  0.0695 -0.2746
42273W        W85190  26.507   8.786   9.190  0.0065 -0.0590 -0.2980
42274W        W85191  29.265   6.000   6.770  0.1854  0.0644 -0.2372
42275W        W85192  29.039   6.606   9.305 -0.1735  0.1954 -0.2809
42276W        W85193  28.384   5.179   8.059  0.3818  0.1859 -0.1094
42277W        W85194  27.039   6.860   9.582 -0.3274  0.0051  0.2166
42278W        W85195  30.069   5.551   9.182  0.2829  0.1876  0.0597
42279W        W85196  32.797   3.901   8.257 -0.5105 -0.1002 -0.3284
42280W        W85197  29.904   3.083   9.831 -0.2947 -0.0492 -0.0145
42281W        W85198  29.203   6.374   8.893 -0.0894 -0.2009 -0.1780
42282W        W85199  32.567   6.290   8.653 -0.3183  0.0851  0.1315
42283W        W85200  33.059   3.770   8.692  0.1419  0.1170 -0.1534
42284W        W85201  31.905   7.219   6.681  0.0724 -0.0385  0.4891
42285W        W85202  29.784   3.365   8.848  0.0580  0.0707  0.2888
42286W        W85203  31.527   3.530   9.133 -0.1623 -0.0036  0.1372
42287W        W85204  28.970   2.737   8.487  0.2027  0.0194 -0.2469
42288W        W85205  30.630   5.445   9.378  0.0826  0.0102  0.3134
42289W        W85206  32.402   4.083   8.518  0.0327  0.0117  0.0024
42290W        W85207  30.883   4.853   8.900  0.2733  0.0489 -0.3449
42291W        W85208  29.597   5.751   7.774  0.0188 -0.1646 -0.0214
42292W        W85209  30.917   7.833   9.197  0.1941  0.1179  0.0620
42293W        W85210  31.499   8.332   8.794  0.1349  0.0127  0.2275
42294W        W85211  30.522   4.908   9.892  0.1190 -0.0937 -0.1628
42295W        W85212  28.364   1.359   9.780  0.0459 -0.0277 -0.2295
42296W        W85213  30.335   4.852   6.967  0.1591  0.1734  0.0615
42297W        W85214  31.118   8.152   9.548  0.4388  0.1003  0.0401
42298W        W85215  31.528   5.831   8.809  0.3406 -0.0969 -0.0608
42299W        W85216  31.770   2.035   7.803  0.0913  0.2368 -0.0219
42300W        W85217  34.419   6.088   8.795  0.3307  0.0003  0.2090
42301W        W85218  29.414   4.845   9.076 -0.1405 -0.1675 -0.0601
42302W        W85219  31.686   6.321   7.627  0.0896  0.1392 -0.0953
42303W        W85220  30.727   5.372   8.900  0.0727  0.2673  0.0702
42304W        W85221  29.318   3.260   6.845 -0.1038 -0.3700  0.0462
42305W        W85222  33.153   7.489   8.201  0.0750 -0.0455  0.1491
42306W        W85223  29.499   7.285   8.298 -0.0567 -0.0351  0.4063
42307W        W85224  30.156   6.449   7.462 -0.2342 -0.1705 -0.0066
42308W        W85225  30.345   6.283  10.513  0.2112 -0.0578 -0.0003
42309W        W85226  31.034   2.235   9.501  0.1926 -0.1812  0.1044
42310W        W85227  30.999   6.117   7.072  0.3743  0.0433 -0.0835
42311W        W85228  29.573   2.989   9.169 -0.0209  0.1951  0.0851
42312W        W85229  31.724   4.244   6.829  0.0612 -0.2316 -0.2075
42313W        W85230  33.323   4.775   8.484  0.0331 -0.0495 -0.1389
42314W        W85231  32.266   4.624   7.328  0.1414  0.0230 -0.3114
42315W        W85232  32.904   1.291   5.259 -0.3456 -0.3515  0.2427
42316W        W85233  33.018   5.819   7.359  0.0187 -0.4473 -0.0442
42317W        W85234  31.015   5.777   9.106 -0.1742 -0.0042  0.0216
42318W        W85235  28.586   6.502   5.282 -0.0484 -0.0244  0.0633
42319W        W85236  34.121   5.859   8.469 -0.0265  0.2564  0.1184
42320W        W85237  30.441   4.967   9.194  0.0599  0.2377 -0.0815
42321W        W85238  31.793   5.810   8.331 -0.1790  0.0477  0.0714
42322W        W85239  32.098   4.332   9.468  0.0095 -0.0742 -0.1335
42323W        W85240  30.292   6.202   7.827  0.1742 -0.1358 -0.0366
42324W        W85241  30.559   3.923   6.889 -0.0094  0.2646  0.0991
42325W        W85242  28.035   6.830   8.292 -0.0802 -0.0728  0.0820
42326W        W85243  32.857   4.212   8.807 -0.0770  0.1201  0.4499
42327W        W85244  30.335   3.141   9.509  0.0430 -0.2889 -0.0049
42328W        W85245  32.189   4.498   8.248  0.1217 -0.3399 -0.1294
42329W        W85246  31.574   4.298   9.357  0.2108 -0.1156 -0.0259
42330W        W85247  31.583   5.076   6.959 -0.0232 -0.0107 -0.0668
42331W        W85248  31.537   3.145   8.062 -0.2168 -0.2243 -0.1000
42332W        W85249  27.986   8.195   8.720 -0.2571 -0.0298 -0.2413
42333W        W85250  33.626   3.484   9.028 -0.1276  0.1469 -0.3512
42334W        W85251  31.423   4.182   7.846 -0.0197 -0.1991 -0.0467
42335W        W85252  29.892   6.959   8.529  0.0449 -0.1574 -0.2833
42336W        W85253  32.361   7.926   8.804  0.1622  0.0563  0.1272
42337W        W85254  30.542   1.353   7.083  0.1035 -0.0674  0.3688
42338W        W85255  27.356   6.706   8.988 -0.1793  0.0239  0.2648
42339W        W85256  28.711   6.803   6.048 -0.0481  0.0794  0.0675
42340W        W85257  32.497   4.658   7.876 -0.1049  0.2156 -0.0372
42341W        W85258  28.888   5.517   8.669  0.1884 -0.1200  0.1257
42342W        W85259  32.980   2.780   8.689 -0.2543 -0.2912 -0.0634
42343W        W85260  28.699   5.050   8.786 -0.0885 -0.1020 -0.1235
42344W        W85261  29.801   4.286   6.874  0.3640  0.1522  0.1799
42345W        W85262  29.581   3.339   8.289  0.0646 -0.0970 -0.1072
42346W        W85263  30.733   2.404   9.006 -0.1957 -0.2371  0.3721
42347W        W85264  31.493   5.385   9.103  0.2630 -0.2523 -0.2838
42348W        W85265  32.602   3.316   9.313 -0.0418  0.0934 -0.3382
42349W        W85266  32.639   3.619   5.809  0.0411 -0.0831  0.2263
42350W        W85267  29.346  10.272   9.688 -0.0194  0.0198 -0.1086
42351W        W85268  31.998   3.102   6.402  0.2814 -0.1030 -0.0088
42352W        W85269  29.399   4.266   9.020  0.1692 -0.0218 -0.1600
42353W        W85270   1.883   5.278  10.229  0.2041 -0.1511 -0.0706
42354W        W85271  30.375   4.311   8.226 -0.1135  0.0552  0.0057
42355W        W85272  28.954   3.966   9.089 -0.1627 -0.0575  0.1648
42356W        W85273  31.690   6.338   8.406 -0.0209 -0.3116  0.0168
42357W        W85274  31.304   5.773   8.353 -0.0485 -0.0327 -0.1215
42358W        W85275  27.225   0.730   8.814  0.3583  0.0072 -0.3171
42359W        W85276  33.266   4.204   9.445 -0.2676 -0.0894 -0.2107
42360W        W85277  29.684   5.318   9.384 -0.4077 -0.0898 -0.1519
42361W        W85278  29.890   3.832   7.726  0.2767 -0.1090  0.1500
42362W        W85279  30.664   3.610   7.691 -0.1029  0.1763  0.0866
42363W        W85280  31.059   3.150   8.957 -0.0186  0.2545 -0.1896
42364W        W85281  31.959   3.870   8.670  0.0990 -0.3041 -0.1134
42365W        W85282  32.560   3.228   9.836  0.2054  0.0368  0.2276
42366W        W85283  32.605   7.435   7.259 -0.0244 -0.1283  0.4809
42367W        W85284  30.818   6.067   7.728 -0.3391  0.0350  0.0051
42368W        W85285  29.404   3.409   7.302  0.1266 -0.1600 -0.3370
42369W        W85286  32.478   5.369   7.094  0.0470 -0.2880 -0.3653
42370W        W85287  30.085   4.216   8.626  0.0572 -0.1089 -0.0254
42371W        W85288  32.790   4.433   8.368  0.1168 -0.3096  0.1013
42372W        W85289  30.650   5.616   7.637 -0.2018  0.1079 -0.2614
42373W        W85290  29.353   7.181   9.333  0.1480 -0.0092 -0.0174
42374W        W85291  31.635   0.211   7.757  0.2760  0.0426  0.1221
42375W        W85292  31.787   6.723   7.842 -0.0145  0.2871 -0.2572
42376W        W85293  32.359   3.213   7.410 -0.0412 -0.2491  0.3083
42377W        W85294  32.464   5.062   7.482  0.0847  0.1381 -0.0671
42378W        W85295  32.137   1.334   8.454 -0.1447 -0.0832 -0.3349
42379W        W85296  33.242   4.456   9.022 -0.2054  0.0221 -0.2953
42380W        W85297  30.582   2.761   9.396 -0.0284  0.0205  0.1400
42381W        W85298  30.552   1.734   7.405 -0.2086  0.2437  0.2126
42382W        W85299  30.532   5.804   9.006  0.1317 -0.2053  0.0831
42383W        W85300  33.641   3.197   8.190  0.0166  0.1668  0.0845
42384W        W85301  31.342   6.412   7.993 -0.1487 -0.1175  0.0515
42385W        W85302  31.891   4.380   8.977  0.3579 -0.1098  0.0239
42386W        W85303  28.153   4.403   9.402 -0.1707 -0.1174  0.3624
42387W        W85304  30.613   4.468   9.157 -0.2805  0.2048  0.1170
42388W        W85305  31.968   5.436   7.567 -0.2542 -0.0843 -0.2497
42389W        W85306  31.139   7.580   8.413  0.0471  0.1821 -0.0276
42390W        W85307  32.028   4.455   7.741  0.1277  0.1333 -0.3095
42391W        W85308  32.673   3.181   6.965  0.1318  0.1396  0.1318
42392W        W85309  31.672   4.478   8.422 -0.1033 -0.1485 -0.0972
42393W        W85310  32.882   3.294   7.447 -0.1086 -0.0249  0.2169
42394W        W85311  33.935   3.236   9.721 -0.0409 -0.3350 -0.0209
42395W        W85312  33.964   3.010   8.550 -0.0597  0.0501  0.2177
42396W        W85313  32.003   3.592   7.368  0.1105  0.4216  0.0632
42397W        W85314  31.855   4.217   7.333 -0.0367 -0.1340  0.0219
42398W        W85315  30.657   3.933   6.248 -0.0341 -0.1349  0.6077
42399W        W85316  31.422   6.899   7.419 -0.0586 -0.2698  0.0190
42400W        W85317  34.309   5.846   7.974 -0.0296 -0.0563  0.0880
42401W        W85318  31.896   5.911   6.523 -0.2764 -0.0643  0.2547
42402W        W85319  31.060   3.575   8.389  0.0426  0.1763  0.1075
42403W        W85320  31.018   3.923   7.548 -0.0374 -0.0371 -0.1333
42404W        W85321  31.045   4.320   8.986  0.0139  0.0694 -0.1612
42405W        W85322  31.628   2.985   8.939 -0.3205 -0.2173 -0.0229
42406W        W85323  31.089   4.203   6.728 -0.1873  0.2666  0.1166
42407W        W85324  29.773   2.859  13.493 -0.1250 -0.2431 -0.0278
42408W        W85325  29.612   3.320   7.774  0.3490 -0.1266  0.0261
42409W        W85326  31.861   6.559   9.386  0.0467  0.0422 -0.0178
42410W        W85327  30.519   6.936   8.089  0.0883 -0.0650  0.0948
42411W        W85328  31.498   4.100   8.915 -0.0340 -0.1179  0.1521
42412W        W85329  34.002   2.662   8.217 -0.1197 -0.0311  0.0255
42413W        W85330  31.250   1.259   9.067  0.0781 -0.2621 -0.1782
42414W        W85331  27.155   5.835   8.424  0.1192 -0.0744  0.0772
42415W        W85332  33.333   4.392   7.107  0.3936  0.0504  0.2433
42416W        W85333  31.114   6.576   7.549 -0.0677  0.0279  0.4588
42417W        W85334  31.331   4.898   8.536  0.3421 -0.1022  0.0229
42418W        W85335  30.139   3.327   7.902  0.2609 -0.1241 -0.4015
42419W        W85336  31.178   5.368   8.692  0.3532 -0.0114  0.0517
42420W        W85337  30.332   4.062   9.056  0.1292 -0.3201 -0.3232
42421W        W85338  28.460   7.711   5.947 -0.2352  0.3687 -0.4303
42422W        W85339  33.220   5.191   8.112  0.1768  0.3525  0.0657
42423W        W85340  32.653   4.320   9.688  0.2439  0.0038  0.1311
42424W        W85341  29.147   4.995   9.808  0.2948 -0.1029 -0.1869
42425W        W85342  30.323   4.851   8.202 -0.1405  0.1078 -0.0672
42426W        W85343  30.024   6.801   9.020 -0.0727 -0.0659  0.3179
42427W        W85344  28.885   5.925   9.021  0.1846  0.1213 -0.2031
42428W        W85345  32.235   6.183   7.612 -0.3244 -0.3246  0.0642
42429W        W85346  26.603   6.295   8.975 -0.2258 -0.1692  0.2465
42430W        W85347  31.982   3.372   6.845 -0.0088 -0.1473  0.1874
42431W        W85348  32.697   4.496   9.188  0.3383  0.0359 -0.2213
42432W        W85349  31.172   2.174   9.001 -0.2762  0.0607 -0.1628
42433W        W85350  32.462   3.777   7.889 -0.1364  0.0385  0.0326
42434W        W85351  30.777   3.994   8.720  0.1652  0.4039  0.0876
42435W        W85352  33.098   6.853   8.062  0.1578  0.2031  0.2432
42436W        W85353  31.439   3.306   8.631  0.0276 -0.2153  0.1637
42437W        W85354  30.157   5.117   9.566  0.0231  0.0258  0.0402
42438W        W85355  30.167   3.130   9.000 -0.1983  0.0603  0.2663
42439W        W85356  31.052   4.563   7.531 -0.0238 -0.0119  0.1325
42440W        W85357  32.323   2.488   9.752  0.1503  0.2582  0.0989
42441W        W85358  31.280   6.246   8.681  0.3295  0.0630 -0.0654
42442W        W85359  29.588  10.854   8.569  0.0780  0.2909  0.1935
42443W        W85360  30.516   8.893   8.533  0.1590 -0.2499 -0.0401
42444W        W85361  29.595   4.280   8.256 -0.1365  0.1338 -0.0143
42445W        W85362  31.279   2.652   8.814  0.1344  0.1053  0.1391
42446W        W85363  31.700   1.280   7.896  0.2579  0.3398 -0.0473
42447W        W85364  31.412   3.952   8.461  0.1899  0.4039  0.2567
42448W        W85365  31.967   3.257   8.395 -0.3605 -0.1370  0.1003
42449W        W85366  27.046   6.378   8.755  0.1270  0.1519  0.1841
42450W        W85367  32.492   1.610   9.931 -0.2060 -0.1388 -0.4509
42451W        W85368  31.168   5.497   7.728 -0.2050  0.0425 -0.0664
42452W        W85369  32.932   5.257   7.258 -0.0125 -0.1050 -0.1364
42453W        W85370  31.202   3.566   7.809 -0.0457  0.1938  0.1504
42454W        W85371  31.813   4.726   6.627  0.4029 -0.2191  0.2309
42455W        W85372  31.606   6.481   8.934  0.0524 -0.1925 -0.1777
42456W        W85373  31.159   3.510   9.451  0.0617  0.1730  0.2394
42457W        W85374  31.920   3.851   9.201 -0.2756  0.1083  0.0826
42458W        W85375  33.264   4.903   5.595  0.2691  0.2777 -0.2457
42459W        W85376  33.328   4.971   8.990 -0.0107  0.0933  0.0860
42460W        W85377  29.619   7.824   9.283 -0.1292 -0.0838  0.1685
42461W        W85378  34.097   3.530   9.344  0.0588  0.0463 -0.3019
42462W        W85379  29.451   2.745   8.364  0.0501  0.1079  0.1855
42463W        W85380  30.832   6.261   8.963 -0.3092  0.2186  0.0372
42464W        W85381   0.149   4.756   9.584  0.1936 -0.0772 -0.2765
42465W        W85382  30.711   2.545   8.473 -0.3972 -0.2563  0.1295
42466W        W85383  29.443   1.729   9.808 -0.0827  0.0342  0.4473
42467W        W85384  31.402   6.472   7.130 -0.1281 -0.1151  0.2154
42468W        W85385  32.109   3.447   9.508 -0.0531 -0.0107  0.2983
42469W        W85386  33.030   6.196   6.858 -0.0443 -0.1524 -0.0486
42470W        W85387  29.412   5.393  10.023  0.1826  0.3783 -0.1472
42471W        W85388  28.877   6.161   6.485 -0.0010  0.2330  0.0033
42472W        W85389  32.878   5.818   8.515  0.4399  0.4533 -0.1172
42473W        W85390  31.351   7.369   7.553 -0.1155 -0.0148  0.2010
42474W        W85391  33.946   6.869   9.178 -0.4357 -0.0296 -0.0497
42475W        W85392  31.524   4.524   6.173 -0.0397 -0.0571 -0.0718
42476W        W85393  33.646   3.696   8.064  0.0558  0.0215 -0.0070
42477W        W85394  33.840   4.216   9.771  0.0468  0.0684 -0.2984
42478W        W85395  34.068   3.342   8.907 -0.1923 -0.0841  0.0885
42479W        W85396  31.947   2.931   7.433  0.1065 -0.0027 -0.0001
42480W        W85397  31.086   4.418   8.482 -0.1328 -0.2560 -0.0846
42481W        W85398  27.916   4.290   8.162 -0.1099 -0.3242  0.0171
42482W        W85399  29.924   6.046   7.555  0.2887  0.0467  0.1421
42483W        W85400  29.640   4.950   9.904  0.0858 -0.2139 -0.0324
42484W        W85401  31.864   4.034   8.218 -0.1981  0.0353  0.0084
42485W        W85402  30.903   3.206   8.004 -0.1116  0.0857  0.1653
42486W        W85403  32.231   5.749   7.887 -0.2051 -0.0726 -0.0959
42487W        W85404   0.175   2.540   9.129 -0.2633 -0.1124 -0.2529
42488W        W85405  30.716   4.176   9.778  0.0464  0.0879 -0.1509
42489W        W85406  32.992   3.602   7.005  0.1595 -0.0514 -0.1806
42490W        W85407  32.845   5.078   7.822  0.2104  0.2776  0.2720
42491W        W85408  31.686   3.358   7.688 -0.0617  0.0024 -0.3510
42492W        W85409  28.525   4.934   6.248  0.0056 -0.2455 -0.2462
42493W        W85410  28.956   2.962   7.146 -0.4444  0.4749 -0.1260
42494W        W85411  29.963   5.053   9.022  0.1117  0.2374  0.0545
42495W        W85412  31.329   6.280   6.654  0.0059 -0.1081  0.1849
42496W        W85413  34.121   5.833   7.346  0.0890 -0.1874 -0.0976
42497W        W85414  30.465   0.840   8.917  0.1852  0.1143 -0.2183
42498W        W85415  31.730   5.795   7.784  0.0186  0.1199 -0.3347
42499W        W85416  33.618   5.820   8.664 -0.2000  0.0282 -0.0909
42500W        W85417   0.150   2.968   8.210  0.0163  0.1199 -0.1402
42501W        W85418  32.871   4.672   7.527 -0.0185  0.0861  0.0338
42502W        W85419  32.792   3.985   9.238  0.2021 -0.0527 -0.2805
42503W        W85420  30.679   1.278   7.628  0.1177 -0.2938 -0.0293
42504W        W85421  31.932   3.919   7.780  0.0671  0.2568  0.0581
42505W        W85422  33.334   6.227   7.330 -0.0911 -0.0054  0.2517
42506W        W85423  28.440   3.392   9.530  0.0303  0.2709 -0.5233
42507W        W85424  30.507   3.549   8.168  0.1003  0.0522  0.1639
42508W        W85425  31.065   5.197   9.357  0.0002  0.1745 -0.1671
42509W        W85426  30.148   5.672   7.823  0.0125  0.2821 -0.3926
42510W        W85427   0.556   5.386   7.934 -0.1723 -0.3448  0.2298
42511W        W85428  31.692   4.816   8.088  0.0241 -0.3627  0.1622
42512W        W85429  32.927   6.682   8.462 -0.3623 -0.0708  0.1306
42513W        W85430  32.395   3.012   8.311 -0.0107  0.1784  0.0589
42514W        W85431  30.011   1.899   7.306 -0.2503  0.1959 -0.2892
42515W        W85432  29.606   8.664   8.477  0.3970  0.2814 -0.1185
42516W        W85433  31.670   5.328   8.600  0.0512  0.1058  0.1337
42517W        W85434  30.181   4.643   8.907 -0.0729  0.0952  0.0085
42518W        W85435  29.368   3.609   8.775  0.4180  0.1357  0.1103
42519W        W85436  32.954   2.884   7.747 -0.2241  0.0519 -0.0063
42520W        W85437  29.868   6.239   8.055  0.0974  0.1952 -0.0250
42521W        W85438  29.010   1.719   9.580  0.1530  0.2561 -0.0182
42522W        W85439  30.440   8.258   3.937  0.1391 -0.1840  0.2406
42523W        W85440  30.210   7.842   1.023 -0.2349  0.0999 -0.0388
42524W        W85441  31.865   8.716  31.349  0.1356  0.0188  0.0844
42525W        W85442  33.724  10.204  31.791  0.0713  0.0933  0.1595
42526W        W85443  29.231   7.696   0.811  0.1900  0.0961 -0.0052
42527W        W85444  31.988  11.095   1.164  0.1433  0.0888  0.0040
42528W        W85445  30.368   6.701   3.898 -0.0267  0.0723  0.0498
42529W        W85446  32.357   9.561   3.561  0.1548  0.0513 -0.1969
42530W        W85447  29.658  11.918   2.290  0.1299  0.1508 -0.2015
42531W        W85448  28.218  10.674   0.186  0.0485 -0.0742  0.1756
42532W        W85449  31.527   9.266   3.282 -0.1842 -0.1772 -0.2953
42533W        W85450  32.215   9.361   2.703  0.1749  0.1496 -0.0013
42534W        W85451  29.736   7.955   2.003 -0.0425 -0.0460 -0.1658
42535W        W85452  28.882   6.625   2.776  0.0006 -0.1584  0.1759
42536W        W85453  32.793   9.128   2.535  0.0070 -0.0101  0.0994
42537W        W85454  27.818  10.561  31.826 -0.2213 -0.5024  0.0411
42538W        W85455  29.247   8.796   1.290  0.0143 -0.0061  0.2728
42539W        W85456  30.815  10.440   2.196  0.2069  0.1156  0.1228
42540W        W85457  28.927  10.777   2.531  0.1714  0.0002 -0.2115
42541W        W85458  29.680   6.355   0.827  0.2437 -0.0188 -0.4070
42542W        W85459  31.630   8.405   2.937  0.3646  0.0254  0.0801
42543W        W85460  33.089   8.305  31.552 -0.0922 -0.0164  0.0409
42544W        W85461  29.719   6.974   2.082 -0.1915 -0.0003  0.1427
42545W        W85462  29.728   8.639   1.889 -0.1052  0.0282  0.0698
42546W        W85463  30.307   9.309   4.168 -0.2316  0.1123  0.1945
42547W        W85464  32.899   8.276   2.930 -0.0031 -0.0762 -0.0834
42548W        W85465  32.393  10.456   1.161  0.1572 -0.0025 -0.0935
42549W        W85466  31.824  12.371   0.462 -0.0245 -0.0943  0.1701
42550W        W85467  31.390  11.740   2.132 -0.0486 -0.1071  0.2248
42551W        W85468  33.096   7.318   3.052 -0.4557 -0.0044  0.2582
42552W        W85469  30.032  12.284   0.562  0.0639 -0.0110  0.4313
42553W        W85470  28.085   9.362   1.984  0.0090  0.0510 -0.2636
42554W        W85471  30.141  10.931   0.642  0.0766 -0.1616 -0.1126
42555W        W85472  33.757  11.100   1.047 -0.1754 -0.1078  0.1120
42556W        W85473  33.919  11.820   2.791  0.2348 -0.1173 -0.1140
42557W        W85474  30.495  11.176   4.145 -0.0369 -0.2874  0.0765
42558W        W85475  32.069  10.075  31.183  0.0043 -0.0557 -0.2217
42559W        W85476  31.756   8.714   3.406  0.0569  0.0406 -0.0226
42560W        W85477  30.438  10.795   3.336  0.0069 -0.1456  0.1454
42561W        W85478  31.612   7.520   4.127  0.4872 -0.0127  0.0259
42562W        W85479  31.126  10.053   1.472  0.0193 -0.2989 -0.3344
42563W        W85480  29.906  10.384   1.213 -0.2394 -0.0167 -0.1536
42564W        W85481  31.356   9.794   2.670  0.0862 -0.0634 -0.1866
42565W        W85482  31.171  11.060   2.816  0.2040 -0.0898  0.0213
42566W        W85483  30.592   8.870   2.227 -0.0541 -0.3205 -0.0888
42567W        W85484  32.611   7.275   2.732 -0.0345  0.1482 -0.0228
42568W        W85485  29.711  12.389  31.629 -0.0997  0.1209 -0.2537
42569W        W85486  32.535   9.529   0.793  0.0943  0.0404  0.2795
42570W        W85487  30.861   8.624   1.235 -0.0805  0.0674 -0.5453
42571W        W85488  31.288   9.369  31.917 -0.0496  0.0557 -0.0956
42572W        W85489  32.991   8.587   1.998 -0.0799  0.1071 -0.0244
42573W        W85490  31.193   9.610   2.163 -0.1682 -0.0257 -0.2458
42574W        W85491  31.026   6.977   3.720  0.0005 -0.1694  0.1021
42575W        W85492  33.186   9.941   2.553 -0.2069  0.0517 -0.1208
42576W        W85493  31.957  10.276   1.771 -0.1641  0.3581  0.2921
42577W        W85494  32.909   7.822   2.549  0.0229  0.0201 -0.3727
42578W        W85495  30.824  10.948   1.935  0.0698  0.1206  0.2140
42579W        W85496  31.506   8.091   1.628  0.5761 -0.0213 -0.0267
42580W        W85497  31.756  10.731   0.807  0.1607  0.1465  0.1737
42581W        W85498  32.179  11.159  31.608  0.1468  0.4016  0.1473
42582W        W85499  31.739  10.264   0.420  0.0591  0.2490 -0.2850
42583W        W85500  30.015   9.082   1.123 -0.3391  0.0216 -0.1444
42584W        W85501  28.777  10.389   3.040  0.0575  0.1966 -0.1592
42585W        W85502  28.426   8.628   3.408  0.1726 -0.1160  0.1106
42586W        W85503  28.731   8.852  30.870  0.0018  0.1175 -0.0637
42587W        W85504  33.082   8.065   2.102  0.3486 -0.2978  0.1752
42588W        W85505  29.331  11.011   2.715 -0.3855  0.2761 -0.1576
42589W        W85506  32.884   8.201   1.645  0.2806 -0.1537 -0.2118
42590W        W85507  32.214   7.939   0.724 -0.1367  0.0954  0.2452
42591W        W85508  31.434  10.412  31.916  0.3350  0.0941  0.1889
42592W        W85509  30.311  10.668  29.153 -0.0743  0.0394  0.2131
42593W        W85510  32.286   7.638   2.489 -0.2238  0.0016  0.0091
42594W        W85511  31.289   7.757   1.297  0.2108  0.0674  0.0476
42595W        W85512  27.781  11.305  30.097  0.1303 -0.3413  0.3217
42596W        W85513  30.802   9.945   2.036  0.1430  0.0112  0.0916
42597W        W85514  31.611  11.295   3.044  0.0948 -0.0829  0.0070
42598W        W85515  33.840  11.111   2.088  0.3292  0.0895  0.6058
42599W        W85516  30.498  10.783   2.385 -0.0401 -0.0383  0.4106
42600W        W85517  30.992   9.143   3.244 -0.1870  0.0456 -0.2152
42601W        W85518  32.233   9.078   3.681  0.0021  0.1815 -0.0945
42602W        W85519  29.729   9.529  31.790  0.2196 -0.0041  0.2109
42603W        W85520  30.583   8.918   0.490  0.2074 -0.0242  0.0914
42604W        W85521  28.655  10.492   0.338  0.2239 -0.2234 -0.0231
42605W        W85522  30.007   8.790   3.405 -0.0308 -0.0883  0.0032
42606W        W85523  31.735  10.719   3.835 -0.0516 -0.0027 -0.3116
42607W        W85524  33.373   9.919  30.679  0.1185  0.1739 -0.2446
42608W        W85525  28.794   8.860   1.017 -0.3097 -0.1617 -0.2198
42609W        W85526  33.356   7.644   2.185 -0.0007  0.1934 -0.1053
42610W        W85527  31.012   8.644   0.368  0.2722  0.1326 -0.0070
42611W        W85528  31.444  11.877  31.829 -0.0420 -0.1939  0.3872
42612W        W85529  33.473  10.304   1.720  0.1899  0.2916  0.0743
42613W        W85530  30.501  11.186  30.585 -0.1935  0.0830 -0.0008
42614W        W85531  29.839   9.751   1.856 -0.0866  0.2191  0.2070
42615W        W85532  30.067   8.278   0.831  0.2014  0.2032 -0.0658
42616W        W85533  29.691   9.116   3.009 -0.0370 -0.0849 -0.1188
42617W        W85534  28.623   7.487   2.725  0.2669  0.0922 -0.3417
42618W        W85535  32.511   8.039   2.769  0.1579 -0.1216  0.2199
42619W        W85536  31.552   8.134   1.124 -0.0192  0.3583  0.0315
42620W        W85537  32.165   9.537  31.281 -0.0824  0.1811 -0.0166
42621W        W85538  32.704   8.067   0.834  0.0967 -0.0451 -0.0436
42622W        W85539  29.313   8.269   1.236 -0.1119  0.1157  0.4254
42623W        W85540  33.840   6.626   2.789 -0.0695 -0.0706 -0.4695
42624W        W85541  31.577  11.235   0.890 -0.0341  0.1937  0.3624
42625W        W85542  33.526  12.078   2.471 -0.2645  0.1983 -0.1713
42626W        W85543  34.337  13.718   0.839  0.1326  0.2788 -0.2579
42627W        W85544  31.559   9.157   4.200  0.2290  0.3643  0.2195
42628W        W85545  29.393   7.171   1.759 -0.0737 -0.1726  0.4254
42629W        W85546  28.436  10.688   1.542  0.2824 -0.1781 -0.2094
42630W        W85547  32.457  11.716  30.736  0.2984 -0.1250  0.3964
42631W        W85548  32.581   9.559   1.407 -0.2956 -0.0204  0.2375
42632W        W85549  33.449  11.745   1.599  0.1907  0.1439  0.1667
42633W        W85550  31.263  10.708   2.398 -0.0301  0.2257 -0.2052
42634W        W85551  29.424   8.696   3.259  0.0146  0.0234 -0.0831
42635W        W85552  30.930   8.762   3.637 -0.1153  0.0758 -0.3243
42636W        W85553   0.259  10.292   1.168  0.2083  0.1702 -0.1807
42637W        W85554  31.086   7.706   1.787 -0.1021 -0.1732  0.4021
42638W        W85555  29.183   8.663   0.713  0.0977  0.0617  0.0356
42639W        W85556  31.432  11.823   0.499  0.1270 -0.1617 -0.2895
42640W        W85557  29.920  10.826   0.188 -0.1211 -0.0015  0.0549
42641W        W85558  29.706   8.644   2.845  0.0521 -0.3109  0.1312
42642W        W85559  30.791   7.876   0.562 -0.0286 -0.0301 -0.0417
42643W        W85560  31.988   8.067   2.283 -0.1197 -0.0115 -0.0091
42644W        W85561  30.460   7.107   5.085 -0.1125  0.1677 -0.1331
42645W        W85562  31.105   8.246   1.413 -0.0877 -0.1636 -0.0806
42646W        W85563  31.492   8.952   0.182 -0.0206  0.1930 -0.3078
42647W        W85564  28.875   9.457   3.364 -0.0413 -0.1822 -0.0298
42648W        W85565  31.547   6.962   0.840  0.1785 -0.1112  0.2146
42649W        W85566  33.379   8.787  31.529  0.0611 -0.2433 -0.2068
42650W        W85567  33.129   9.388   2.943 -0.1083 -0.2983 -0.0378
42651W        W85568  32.665  10.355   0.742  0.2032 -0.0310  0.2250
42652W        W85569  29.126   7.417   1.423 -0.0993  0.0674 -0.1657
42653W        W85570  31.371   7.478   0.689 -0.0785  0.1183  0.0063
42654W        W85571  30.919   9.713   3.034  0.0632 -0.0591  0.0337
42655W        W85572  32.630   8.984   0.504 -0.1595  0.0367  0.0267
42656W        W85573  31.183  10.241   2.426  0.0468  0.0306  0.0310
42657W        W85574  29.164  10.277  31.658 -0.0153  0.5105  0.0574
42658W        W85575  31.480  10.994  30.962 -0.0234  0.2818  0.2094
42659W        W85576  31.666   9.918   1.244 -0.1311 -0.2146 -0.2596
42660W        W85577  30.003   9.498   2.791 -0.3288  0.1333  0.0505
42661W        W85578  31.210   9.618   1.176  0.0996  0.0224 -0.1192
42662W        W85579  31.593   7.561   1.718 -0.2363  0.1342  0.3081
42663W        W85580  31.551   9.924   2.236  0.2981  0.2897 -0.0660
42664W        W85581  33.373   9.834   1.043 -0.0191 -0.1536 -0.0775
42665W        W85582  30.576   9.099  31.918  0.0198  0.1278 -0.1106
42666W        W85583  32.902   8.897   2.997  0.4313 -0.3762 -0.0007
42667W        W85584  32.436   9.687   1.869 -0.0616  0.0663  0.0996
42668W        W85585  30.710   8.198   2.196 -0.0807 -0.0062  0.1212
42669W        W85586  33.362   8.946   2.928 -0.0830  0.1919  0.0986
42670W        W85587  32.149   9.266   1.727 -0.0966  0.3706 -0.2741
42671W        W85588  32.386   9.230   2.220 -0.1067  0.0834  0.3290
42672W        W85589  31.013   9.695   0.378 -0.2453  0.0444  0.0375
42673W        W85590  30.999   9.110   0.325 -0.1629 -0.0833  0.2304
42674W        W85591  31.826   8.843   1.702  0.1766 -0.1176  0.0279
42675W        W85592  30.806  11.374   1.523 -0.2530  0.0314 -0.1239
42676W        W85593  32.006   9.875   3.374 -0.1083 -0.2363 -0.0808
42677W        W85594  33.015   9.396   0.460 -0.3519 -0.0306 -0.0428
42678W        W85595  30.618   7.711   2.726 -0.1707 -0.0077  0.0495
42679W        W85596  30.481   8.019   1.782  0.0875  0.1417 -0.0940
42680W        W85597  30.608  11.335  31.099 -0.1663 -0.2821  0.0733
42681W        W85598  31.424  10.360   0.960  0.1720 -0.1165  0.1353
42682W        W85599  30.970   8.515   1.888  0.0536 -0.1282 -0.2853
42683W        W85600  29.241  11.566   2.112  0.0363  0.0433  0.0173
42684W        W85601  29.874  11.450   0.749 -0.0632 -0.1080  0.1540
42685W        W85602  33.140   8.667   2.573  0.2553  0.1458  0.0243
42686W        W85603  30.878  11.456   2.036 -0.1432 -0.2651 -0.1472
42687W        W85604   0.154   7.600   2.575 -0.1015 -0.0390 -0.0405
42688W        W85605  26.156  12.843   2.060 -0.1575  0.2307 -0.0970
42689W        W85606  30.180   9.811  30.656  0.2629  0.0890 -0.1620
42690W        W85607  29.609   6.404   1.963 -0.5480 -0.0835  0.1151
42691W        W85608  32.955   9.684   1.782 -0.0007 -0.1923  0.0005
42692W        W85609  31.261  11.836  30.415 -0.1869 -0.3696 -0.0443
42693W        W85610  29.770   8.373   2.319 -0.1035 -0.0549 -0.0528
42694W        W85611  30.483   6.639   1.274  0.2632 -0.2195 -0.1538
42695W        W85612  30.657  10.985   2.855  0.0633 -0.2837  0.1174
42696W        W85613  31.564   9.438   0.419  0.0984  0.0797 -0.0268
42697W        W85614  33.212   8.899   1.699  0.1659 -0.1019  0.1604
42698W        W85615  32.013  10.738   2.040  0.1669 -0.2456 -0.2090
42699W        W85616  31.297   8.003   3.703 -0.1083 -0.0236 -0.2114
42700W        W85617  27.755   7.821   2.218  0.0258 -0.0608  0.0857
42701W        W85618  31.996   7.856   1.825 -0.1931  0.2174 -0.0662
42702W        W85619  32.306   8.758   2.180  0.1859  0.0644  0.0362
42703W        W85620  28.856   9.953   2.164 -0.0844  0.3263  0.0900
42704W        W85621  31.453  11.474   2.546 -0.3469  0.3902 -0.1323
42705W        W85622  30.639   8.083  31.559 -0.0096  0.1450 -0.2121
42706W        W85623  31.586   9.384   1.460 -0.1887  0.3880 -0.2980
42707W        W85624  30.987   7.675   4.633 -0.1660 -0.1293 -0.0809
42708W        W85625  32.644   8.444   2.515 -0.0346  0.0784  0.2698
42709W        W85626  30.755   7.924   1.382  0.0632  0.1468  0.1439
42710W        W85627  32.063   9.409   0.630  0.0992 -0.0718  0.3824
42711W        W85628  31.576   9.416   0.921  0.3015 -0.0752  0.1039
42712W        W85629  29.476   9.809   0.974  0.1021 -0.2489 -0.0680
42713W        W85630  32.097   9.325   3.154 -0.1001  0.1506  0.1048
42714W        W85631  30.315  10.157   1.914 -0.1686 -0.3191  0.0772
42715W        W85632  32.071   7.010   1.149  0.0564  0.1779  0.0184
42716W        W85633  31.808  10.705  30.659 -0.0452 -0.1230  0.1469
42717W        W85634  32.033  11.267   3.731 -0.0684 -0.0698 -0.1221
42718W        W85635  30.146  10.338   0.104 -0.2047 -0.1758  0.0063
42719W        W85636  30.282   8.185   3.412  0.0051 -0.1111 -0.0599
42720W        W85637  30.438  10.218   2.425 -0.0519  0.0106  0.1382
42721W        W85638  31.125  10.181   2.953  0.1168  0.0110 -0.3938
42722W        W85639  27.343  10.801  31.698 -0.0151  0.5933  0.1022
42723W        W85640  30.546  10.306  31.764 -0.1273  0.1488  0.3105
42724W        W85641  30.044  12.834   2.105 -0.0406 -0.0788  0.1807
42725W        W85642  31.875   7.358   2.118 -0.0566 -0.1266 -0.0439
42726W        W85643  28.568   9.557   0.480 -0.2496 -0.1005 -0.2624
42727W        W85644  31.253   8.521   0.929  0.0018 -0.1103 -0.0410
42728W        W85645  32.856   5.575   3.200 -0.0205  0.1222 -0.2048
42729W        W85646  33.329  10.815  31.201 -0.2463  0.2862 -0.0537
42730W        W85647  30.335   8.537   2.639 -0.3239 -0.0592  0.0440
42731W        W85648  29.422   7.793   1.296  0.1311  0.1281  0.0794
42732W        W85649  31.585  11.304   1.394  0.0786  0.0367  0.0623
42733W        W85650  27.956   6.656   2.799  0.0000 -0.2973 -0.0691
42734W        W85651  33.391  11.612   2.715 -0.0731  0.2365  0.0136
42735W        W85652  29.791  11.276   2.895  0.1210  0.1991 -0.2800
42736W        W85653  30.165   9.312   0.640 -0.2886 -0.3139 -0.1458
42737W        W85654  29.821   8.432  31.365 -0.3818  0.0141  0.3027
42738W        W85655  30.418   9.812   2.880  0.2703  0.0307  0.1846
42739W        W85656  32.394  11.235   0.354 -0.1103 -0.3292  0.2097
42740W        W85657  31.223   9.248   1.792 -0.4087 -0.0313 -0.1303
42741W        W85658  32.689   7.112   1.781 -0.0118 -0.3658 -0.0541
42742W        W85659  31.364  10.383   3.606  0.2203  0.0920 -0.3240
42743W        W85660  32.802  10.768   2.156  0.0544 -0.2461  0.0806
42744W        W85661  32.106  10.678  31.097  0.2113  0.2282 -0.1186
42745W        W85662  29.757   9.592   0.558 -0.1342 -0.0553  0.3233
42746W        W85663  29.886   6.075   3.201 -0.1800  0.0054 -0.1336
42747W        W85664  31.576  10.535   2.042 -0.2344  0.2346  0.3068
42748W        W85665  31.147   5.843   3.303 -0.0226  0.0872  0.1456
42749W        W85666  30.538   9.462   1.405  0.3943  0.1062 -0.0821
42750W        W85667  32.132  10.252   3.001 -0.2719 -0.2403 -0.1297
42751W        W85668  32.426   9.772   3.132  0.3646  0.3436 -0.0066
42752W        W85669  29.981   6.504   2.979 -0.2518  0.0755 -0.0011
42753W        W85670  32.319  11.464   2.008 -0.1119 -0.0283 -0.0819
42754W        W85671  31.877   9.697  31.713 -0.2122  0.1429 -0.1631
42755W        W85672  34.025   8.102   3.458 -0.1083 -0.1440 -0.0635
42756W        W85673  32.396   8.858   2.658  0.0624 -0.1244 -0.1391
42757W        W85674  29.840   8.516  31.861  0.3077 -0.2680 -0.4288
42758W        W85675  29.317  10.435   1.598 -0.1671 -0.2287 -0.0071
42759W        W85676  31.348   8.764   3.064 -0.2067  0.0226 -0.0940
42760W        W85677  31.798   8.145   0.485 -0.1602 -0.0489 -0.0371
42761W        W85678  31.979   9.752   1.568  0.1784 -0.4301  0.0136
42762W        W85679  30.385   8.698   1.013  0.1936 -0.0102  0.1290
42763W        W85680  31.859   9.897   0.734  0.0113  0.0370 -0.2419
42764W        W85681  32.692  10.234   3.045 -0.0566  0.0965 -0.1538
42765W        W85682  27.523   8.800   1.238 -0.3296 -0.1507 -0.1000
42766W        W85683  30.502  10.569   4.094  0.0180  0.1653  0.0180
42767W        W85684  29.224  10.633   0.528  0.1875  0.2878  0.0629
42768W        W85685  32.236  10.301   0.238  0.2866 -0.1417 -0.2205
42769W        W85686  29.620   7.468   2.170 -0.0128 -0.0090 -0.3298
42770W        W85687  32.715   7.350   4.434  0.1629  0.4237 -0.1091
42771W        W85688  28.362   9.240   1.280  0.0043 -0.2764 -0.4788
42772W        W85689  32.738   8.339   3.950 -0.2074 -0.2619 -0.2277
42773W        W85690  30.176   9.510   0.106 -0.2036  0.1205  0.0874
42774W        W85691  31.205   6.999   0.483 -0.2162  0.0070  0.2132
42775W        W85692  30.911  12.724   1.805  0.0564 -0.0307 -0.4308
42776W        W85693  29.864  10.295   2.228 -0.1331 -0.1330  0.0617
42777W        W85694  28.561  10.838   2.964  0.0530 -0.1013 -0.0161
42778W        W85695  31.076   7.801   2.399 -0.0832 -0.1877 -0.3338
42779W        W85696  32.210   9.872   1.160  0.0332 -0.1753 -0.1442
42780W        W85697  28.949   9.155   0.145  0.0036 -0.1493  0.1274
42781W        W85698  32.595   9.274   3.050 -0.0986 -0.1306 -0.0303
42782W        W85699  32.674   8.957   3.494 -0.2932 -0.0451  0.0531
42783W        W85700  30.401   8.802   3.085 -0.1045  0.0128  0.2720
42784W        W85701  31.705  10.310   4.125  0.2247  0.0538 -0.0406
42785W        W85702  31.569  11.234   0.346  0.2377  0.0413 -0.0176
42786W        W85703  29.521  10.021   2.603 -0.0189 -0.1710 -0.0179
42787W        W85704  29.219   7.984   3.129  0.2681 -0.0315 -0.1441
42788W        W85705  31.157   9.344   0.704  0.1397  0.0465 -0.1626
42789W        W85706  31.397  10.486   1.582 -0.1587  0.0613  0.1195
42790W        W85707  28.405   6.846   1.277 -0.2348 -0.0123 -0.1983
42791W        W85708  32.951   9.623   1.103 -0.2216  0.2656  0.1796
42792W        W85709  31.245  11.383   3.517  0.0905  0.1988  0.1008
42793W        W85710  29.978   8.855   2.312 -0.2664  0.0760 -0.0566
42794W        W85711  28.658  11.046   0.135 -0.1024 -0.1709  0.0661
42795W        W85712  31.983  11.826  29.927  0.1159  0.0135 -0.1422
42796W        W85713  32.954  10.940   0.190 -0.0658  0.0025  0.2806
42797W        W85714  31.690  11.019   3.437 -0.0572  0.1865 -0.1067
42798W        W85715  32.246   7.424   1.537 -0.1046 -0.0359 -0.3508
42799W        W85716  29.067   9.716   0.564 -0.1358  0.1394 -0.6505
42800W        W85717  27.636   8.406   0.731 -0.3614  0.1467  0.2930
42801W        W85718  30.916  11.773  31.099 -0.1630 -0.3153 -0.1160
42802W        W85719  29.456  10.357   1.089 -0.1767 -0.1772  0.0125
42803W        W85720  31.397  12.226   0.802  0.0462  0.1865  0.0755
42804W        W85721  32.890   7.462   0.624  0.0792  0.1724 -0.2782
42805W        W85722  33.341   9.827   3.003  0.1461  0.2304  0.2055
42806W        W85723  33.370   8.327   1.494 -0.0325  0.3288  0.1879
42807W        W85724  30.754  11.481   3.087 -0.1929 -0.0374  0.0378
42808W        W85725  29.365   9.419   3.268 -0.2194 -0.1427  0.2549
42809W        W85726  31.259   6.539   0.058 -0.1405 -0.1052  0.1601
42810W        W85727  30.946   9.648   1.634 -0.0650  0.1693  0.2193
42811W        W85728  31.923   7.493   3.003 -0.1815  0.1824 -0.1883
42812W        W85729  28.549  11.356   4.520  0.2162 -0.0306 -0.1246
42813W        W85730  31.245  10.230   1.934 -0.1718 -0.0142 -0.0725
42814W        W85731  32.400   7.750  31.733 -0.1966  0.1438  0.0331
42815W        W85732  31.428   8.862   2.023 -0.1559  0.1115  0.1537
42816W        W85733  31.303   7.443   2.181 -0.4183 -0.1874  0.0381
42817W        W85734  32.662   8.668   1.575  0.2359 -0.0366  0.2625
42818W        W85735  32.343   7.393   2.058  0.1394  0.1008  0.1960
42819W        W85736  29.745  10.519   0.720  0.2249  0.1083  0.1782
42820W        W85737  30.716  11.884   2.788 -0.0568 -0.1337  0.1555
42821W        W85738  29.291  12.203   1.100 -0.0865 -0.0010 -0.2795
42822W        W85739  30.003   8.653   1.383  0.0789  0.3208  0.3477
42823W        W85740  34.555  10.122   1.491 -0.1936  0.3558  0.2354
42824W        W85741  29.288   8.254   2.082  0.2616  0.2466  0.1140
42825W        W85742  32.237   6.138   3.253 -0.0675 -0.1744  0.4076
42826W        W85743  29.979   7.169   1.656  0.1314  0.0715  0.3361
42827W        W85744  31.228  10.334   0.398 -0.0973 -0.1117 -0.1464
42828W        W85745  32.586   8.084   3.301 -0.2005 -0.1348  0.2561
42829W        W85746  29.703   7.975   2.866  0.1736  0.0571 -0.1503
42830W        W85747  29.921   9.995   0.904  0.1606 -0.3147  0.0347
42831W        W85748  32.046   8.395   3.189  0.2635 -0.1358  0.2316
42832W        W85749  31.254  10.049  31.174 -0.1371 -0.2034  0.4843
42833W        W85750  32.897  11.466   1.798 -0.3681  0.1289 -0.3350
42834W        W85751  31.158   5.954   1.354  0.1505  0.1732 -0.2374
42835W        W85752  32.967   7.856  31.707  0.1386 -0.1449  0.0728
42836W        W85753  30.278   8.498   2.098  0.1102  0.0817  0.0971
42837W        W85754  26.938   7.883   1.859 -0.1655 -0.0451 -0.4209
42838W        W85755  32.718  10.766   2.692 -0.2160 -0.1074  0.2036
42839W        W85756  29.796   8.103   1.279  0.2055 -0.0416 -0.1561
42840W        W85757  31.425   8.385  31.863  0.2595  0.1250  0.3209
42841W        W85758  33.559   8.865   1.319 -0.1059  0.0414  0.1971
42842W        W85759  31.653  12.836  30.444 -0.2830  0.1471  0.1092
42843W        W85760  31.166  10.417  31.454  0.0319 -0.1045  0.0899
42844W        W85761  31.663  10.935   1.751  0.0893 -0.1665 -0.5109
42845W        W85762  29.300   8.378   2.814 -0.1765 -0.2652  0.1698
42846W        W85763  31.927  10.354   2.376 -0.1075 -0.0071  0.3164
42847W        W85764  32.028  11.371   0.709 -0.1645  0.0061 -0.1249
42848W        W85765  30.225   7.081   0.755 -0.0165  0.1920 -0.0440
42849W        W85766  30.867   8.197   0.965  0.4772  0.0252  0.0004
42850W        W85767  29.654   8.564   0.999 -0.0280 -0.0519  0.1575
42851W        W85768  33.080   7.281   2.534  0.2625 -0.0732  0.0068
42852W        W85769  31.908   8.918   2.876 -0.3377  0.0859  0.1562
42853W        W85770  32.198  13.117  31.451  0.2523  0.2741 -0.2648
42854W        W85771  31.770   6.757   3.975 -0.3148 -0.3736 -0.1286
42855W        W85772  30.984  11.342   4.006  0.4326  0.1076  0.0787
42856W        W85773  31.019  12.437   1.366 -0.1997 -0.0320 -0.0689
42857W        W85774  28.790   7.512   0.831  0.0497 -0.0031  0.2709
42858W        W85775  30.516   9.317   3.053  0.0373 -0.0694  0.0308
42859W        W85776  30.989  10.059  31.890 -0.1547 -0.4497 -0.2512
42860W        W85777  30.113   9.938   1.502 -0.2734 -0.1785 -0.1328
42861W        W85778  32.266  11.688  31.357 -0.1332 -0.1975 -0.2074
42862W        W85779  31.669   9.421   1.964  0.0805  0.2834  0.2915
42863W        W85780  34.158  10.447  31.960  0.3963  0.0377 -0.0171
42864W        W85781  32.499   7.839   2.000 -0.0545  0.0838  0.0538
42865W        W85782  33.075   8.061   1.202  0.0003 -0.1812  0.2183
42866W        W85783  31.253   8.138   2.036 -0.1992 -0.3147 -0.2667
42867W        W85784  31.360   8.986   1.167  0.1747 -0.1963 -0.1259
42868W        W85785  32.030   9.834   2.078  0.0489 -0.0295  0.1228
42869W        W85786  29.451  10.000  30.584 -0.3124  0.3258 -0.0690
42870W        W85787  31.116   8.828   4.221 -0.1790 -0.1644 -0.1188
42871W        W85788  32.106   7.946   3.331  0.2488 -0.0047 -0.0712
42872W        W85789  30.857   9.184   3.996 -0.0092 -0.0819 -0.3002
42873W        W85790  29.288   8.286  31.796  0.1221 -0.0844  0.2049
42874W        W85791  30.176  10.221  31.366  0.2018  0.0953  0.0366
42875W        W85792  32.065   9.780   0.201 -0.4853 -0.0402  0.0595
42876W        W85793  30.690   6.698   3.438  0.4064  0.2964  0.2013
42877W        W85794  28.351   7.121   1.675  0.2266 -0.3357 -0.2933
42878W        W85795  31.357  11.003  31.858 -0.0104  0.2501  0.2139
42879W        W85796  33.687  13.814   0.915  0.1838  0.0064 -0.0935
42880W        W85797  28.177   7.672   0.739 -0.4480 -0.0433  0.0360
42881W        W85798   1.003   9.163   4.431 -0.0685  0.2407 -0.1837
42882W        W85799  31.104  12.679   0.783 -0.1003 -0.0379  0.1781
42883W        W85800  31.961   7.809   5.915 -0.0697 -0.2746 -0.4428
42884W        W85801  30.139   6.816   2.615 -0.1828  0.1802 -0.2114
42885W        W85802  28.942   9.128   0.643 -0.2198  0.0647 -0.1563
42886W        W85803  30.931  10.405   1.198  0.2992  0.0993 -0.0541
42887W        W85804  30.950   9.121   1.339  0.1849  0.4774 -0.1208
42888W        W85805  30.940  11.929   1.410 -0.3029  0.2711  0.2009
42889W        W85806  30.097   9.951   3.415 -0.0981  0.0883  0.0047
42890W        W85807  30.186  11.711   3.441 -0.3235 -0.0253 -0.0631
42891W        W85808  28.842   7.078   2.513  0.0522 -0.0349  0.2365
42892W        W85809  32.480   9.707   2.449  0.3462  0.0849 -0.1142
42893W        W85810  27.916  13.261   2.851 -0.1639  0.1799  0.0509
42894W        W85811  32.381  10.880   0.017  0.1500  0.2385 -0.0726
42895W        W85812  30.920   7.317   2.536 -0.1731  0.2385  0.3003
42896W        W85813  31.161  10.992   1.519 -0.1529  0.2286  0.1768
42897W        W85814  29.626   5.731   2.084  0.0712  0.2584 -0.0194
42898W        W85815  29.621   9.180   2.452  0.1500 -0.1568  0.0076
42899W        W85816  32.218  13.297   3.084  0.2397 -0.1369  0.2247
42900W        W85817  31.916   7.629   1.221 -0.1332 -0.1132  0.0563
42901W        W85818  33.458   7.556   1.322 -0.1240  0.0416  0.0343
42902W        W85819  32.727   8.977   0.019 -0.0651 -0.3076  0.3998
42903W        W85820  31.073   9.149   2.417  0.0303  0.0208  0.4349
42904W        W85821  31.954   9.327   0.066 -0.0133  0.3474 -0.0487
42905W        W85822  30.941  11.557   2.523 -0.1874  0.1730 -0.0059
42906W        W85823  30.932  11.081   2.399 -0.1524 -0.0909 -0.2919
42907W        W85824  32.509  10.225   2.550  0.1967  0.4357 -0.0984
42908W        W85825  30.968   8.910   0.867  0.0332  0.0749  0.2574
42909W        W85826  32.002   9.426   1.205 -0.0247 -0.1242  0.2595
42910W        W85827  30.472  12.643   3.168  0.2504 -0.0410 -0.0713
42911W        W85828  31.917  10.697   3.099 -0.1021 -0.1408  0.1614
42912W        W85829  29.265  11.453   2.954 -0.2924 -0.1761 -0.1353
42913W        W85830  33.700   9.503   2.787 -0.2907 -0.2694  0.0018
42914W        W85831  28.986   7.550   2.266  0.0733 -0.1755 -0.3297
42915W        W85832  30.785   9.821   0.887  0.0782 -0.1705 -0.3019
42916W        W85833  28.896  10.924   1.739 -0.2326 -0.3012 -0.1371
42917W        W85834  32.995  10.303   1.782 -0.0197 -0.0334  0.2625
42918W        W85835  30.642   7.607   2.142  0.0657  0.0007  0.2340
42919W        W85836  32.455   7.686   1.047  0.0354  0.1294 -0.1129
42920W        W85837  29.710  13.540   1.795 -0.0648 -0.2616 -0.1039
42921W        W85838  29.551  11.441   2.513 -0.0867 -0.4057  0.1222
42922W        W85839  28.154   8.648   6.105 -0.1968  0.0365 -0.1394
42923W        W85840  31.828  10.826   5.262  0.0378 -0.1895  0.0992
42924W        W85841  31.660   6.284   3.952  0.0232 -0.1755 -0.0321
42925W        W85842  31.664  11.005   2.353  0.0019  0.0546 -0.0312
42926W        W85843  29.476   8.198   4.017 -0.0333 -0.0552  0.3339
42927W        W85844  33.233   9.694   5.540  0.1354 -0.0539  0.0874
42928W        W85845  29.983   7.097   8.055 -0.2357 -0.3522  0.0964
42929W        W85846  31.654   9.673   6.309 -0.0433  0.0059  0.0930
42930W        W85847  33.949  10.488   4.735  0.0639 -0.2258  0.3150
42931W        W85848  32.901   8.493   3.345  0.2119  0.2803 -0.0773
42932W        W85849  27.651   7.777   5.291  0.4248  0.0573  0.2242
42933W        W85850  30.587  11.373   6.670  0.0492 -0.0825 -0.2806
42934W        W85851  30.688   6.083   4.061 -0.0799  0.4661  0.2202
42935W        W85852  29.542   7.195   7.210 -0.0864 -0.2615 -0.3094
42936W        W85853  34.324   8.150   4.392  0.0227 -0.2820 -0.2787
42937W        W85854  29.242   9.002   2.722  0.0735  0.2802  0.0760
42938W        W85855  30.404   7.028   4.524  0.0586  0.2427 -0.1451
42939W        W85856  33.524   6.825   4.386 -0.2755  0.0216  0.0799
42940W        W85857  31.890  12.388   2.869 -0.1455 -0.0351 -0.1569
42941W        W85858  30.984   7.137   6.146 -0.1863  0.1257 -0.1019
42942W        W85859  32.371   9.265   4.774  0.3406  0.0952 -0.2000
42943W        W85860  32.751   9.138   4.414 -0.0206  0.5668 -0.1168
42944W        W85861  30.644   7.027   4.080  0.1070 -0.1460 -0.0309
42945W        W85862  26.288   8.020   5.370  0.1401  0.0376  0.0363
42946W        W85863  31.535   9.282   6.054 -0.1413 -0.0592  0.1878
42947W        W85864  30.876   7.002   7.466  0.2273  0.2726  0.0075
42948W        W85865  33.032   8.462   6.238 -0.1960  0.0364 -0.1102
42949W        W85866  30.482  10.932   4.871  0.1542  0.1156  0.1504
42950W        W85867  33.905  10.106   4.397 -0.0507  0.3286 -0.0206
42951W        W85868  31.086   7.656   6.920 -0.2231 -0.4338 -0.0930
42952W        W85869  29.315   9.942   5.506 -0.1855 -0.0747  0.0691
42953W        W85870  26.282  12.183   4.641 -0.1705 -0.1364 -0.0144
42954W        W85871  32.323  10.499   4.651  0.2314 -0.0670 -0.0390
42955W        W85872  33.435   7.814   6.416  0.0529  0.2130 -0.1058
42956W        W85873  30.738   9.472   7.286  0.3856  0.1701  0.1561
42957W        W85874  29.653   9.515   4.634  0.0133  0.1930 -0.1056
42958W        W85875  29.022   8.384   4.157 -0.0598 -0.1376  0.4467
42959W        W85876  30.062  10.239   6.829 -0.1993 -0.0385 -0.1043
42960W        W85877  30.840   9.846   5.490  0.0652 -0.0060  0.2329
42961W        W85878  30.799  10.902   5.894  0.2998  0.0521  0.3074
42962W        W85879  32.680  10.860   4.326  0.1869 -0.2800 -0.2559
42963W        W85880  31.285   9.535   3.959  0.1069  0.1195  0.0852
42964W        W85881  29.743   9.185   4.972 -0.1207 -0.1762 -0.0164
42965W        W85882  30.037  10.412   4.129 -0.1290  0.1198 -0.0285
42966W        W85883  30.373  10.080   5.214  0.1707  0.0403 -0.0438
42967W        W85884  33.496   6.124   8.215 -0.1004 -0.2215 -0.1045
42968W        W85885  30.526  10.287   3.401 -0.0077 -0.0799  0.0857
42969W        W85886  31.264   8.356   3.354  0.2254  0.2402 -0.1088
42970W        W85887  30.170   7.158   2.173  0.0364  0.2406  0.1436
42971W        W85888  32.181   9.188   4.219 -0.0389 -0.2352 -0.2428
42972W        W85889  29.655   7.712   4.752 -0.4313  0.1262 -0.2465
42973W        W85890  31.092  12.800   4.872 -0.0985  0.3931 -0.2855
42974W        W85891  31.315   6.315   5.779  0.2728 -0.0862 -0.0323
42975W        W85892  34.640   9.497   4.107  0.0187 -0.0254 -0.2068
42976W        W85893  31.670  10.195   3.208 -0.3570 -0.1583 -0.1213
42977W        W85894  30.740  10.050   4.876 -0.1312  0.1721  0.1416
42978W        W85895  32.804   9.420   5.334 -0.1795 -0.0710  0.2719
42979W        W85896  29.469   9.517   2.789 -0.0964  0.3862  0.2146
42980W        W85897  31.900  12.187   3.323  0.4966 -0.2507  0.2685
42981W        W85898  33.598  10.020   4.929 -0.0284  0.1034 -0.0432
42982W        W85899  32.685  11.569   3.247 -0.1927 -0.2660 -0.0953
42983W        W85900  27.835   9.053   4.165 -0.2172  0.4641 -0.2426
42984W        W85901  29.710   8.201   7.955  0.0104  0.0202  0.0956
42985W        W85902  30.258   8.756   6.124  0.2872 -0.0798  0.0313
42986W        W85903  31.438   8.511   3.971  0.1128  0.0252  0.0016
42987W        W85904  31.846   7.522   7.447 -0.0297  0.0576 -0.0739
42988W        W85905  30.373  10.088   5.703 -0.1437 -0.3756  0.0161
42989W        W85906  32.254   7.039   4.673 -0.1329 -0.1582  0.2100
42990W        W85907  30.212   9.672   6.629  0.3261  0.0938 -0.0720
42991W        W85908  32.974   7.649   5.771 -0.2579 -0.0516 -0.1450
42992W        W85909  31.566  10.444   2.773 -0.1141  0.0041 -0.1200
42993W        W85910  33.180   6.764   4.823 -0.0342 -0.0256  0.2206
42994W        W85911  31.620   6.900   6.938 -0.0660  0.0281  0.0385
42995W        W85912  30.458   8.668   3.591 -0.1095 -0.2076 -0.1002
42996W        W85913  30.740   9.691   4.112 -0.0102  0.1630 -0.0133
42997W        W85914  33.957   9.578   6.042  0.2285 -0.1636 -0.1217
42998W        W85915  32.016   8.491   2.564 -0.1274  0.0159 -0.1474
42999W        W85916  28.605   9.012   4.659  0.0920 -0.3276 -0.3892
43000W        W85917  29.936   8.771   5.310 -0.1197 -0.1990 -0.2428
43001W        W85918  30.142  10.141   6.360 -0.1336 -0.2820  0.2230
43002W        W85919  32.779  10.774   3.699  0.2158 -0.2879 -0.1794
43003W        W85920  28.574   9.352   5.741 -0.0343 -0.1895  0.1734
43004W        W85921  30.045   8.390   4.235  0.2848  0.0900  0.0095
43005W        W85922  29.916   7.351   7.589 -0.3644 -0.2222 -0.4433
43006W        W85923  29.770  10.536   4.548  0.0107  0.1365  0.1013
43007W        W85924  32.645   8.263   4.522  0.2959 -0.2280 -0.3457
43008W        W85925  28.126   9.235   4.544 -0.0206 -0.3115 -0.0162
43009W        W85926  31.782   6.293   6.846  0.2651  0.2083 -0.0552
43010W        W85927  30.137   9.378   4.735  0.1122 -0.0413  0.0667
43011W        W85928  33.287   9.167   4.419  0.1976  0.0627  0.0808
43012W        W85929  33.204   8.431   3.787  0.3656  0.1150 -0.2500
43013W        W85930  31.271  11.137   2.034 -0.0771  0.4740 -0.1015
43014W        W85931  29.159   7.881   6.568 -0.0831 -0.1705  0.1944
43015W        W85932  29.099   9.515   4.642  0.1982 -0.0998  0.1730
43016W        W85933  28.107   8.471   6.886  0.0532  0.2210 -0.3896
43017W        W85934  30.583   6.304   5.041  0.1289 -0.0450  0.0025
43018W        W85935  30.833   7.233   6.651  0.0405 -0.0950 -0.2060
43019W        W85936  29.205   6.475   5.295 -0.0930 -0.3646 -0.2054
43020W        W85937  29.666   8.259   4.612 -0.1184  0.0060  0.0453
43021W        W85938  30.781   6.775   4.879  0.0311  0.2275  0.0345
43022W        W85939  30.004  10.086   2.696 -0.1510  0.2967  0.1934
43023W        W85940  30.068   7.118   7.194 -0.0514 -0.0688 -0.1730
43024W        W85941  31.934   8.835   3.999  0.1934  0.1006  0.1859
43025W        W85942  33.375  10.198   5.389  0.0771 -0.0091 -0.2536
43026W        W85943  32.514  11.958   3.961 -0.1278 -0.0159 -0.3715
43027W        W85944  31.872   9.599   4.175  0.3163 -0.2816 -0.1423
43028W        W85945  30.687   7.941   4.314 -0.0806 -0.1720  0.0505
43029W        W85946  30.041  11.000   5.150 -0.1577 -0.1893  0.0880
43030W        W85947  31.142   9.825   6.359  0.2277  0.1886  0.0654
43031W        W85948  31.095   6.059   4.981 -0.0302 -0.0718  0.2286
43032W        W85949  32.992  10.161   5.715  0.0599  0.1423  0.0881
43033W        W85950  30.832   8.146   4.744  0.1638  0.1918 -0.0354
43034W        W85951  30.427  10.487   6.632 -0.0222 -0.0929 -0.0898
43035W        W85952  30.526   7.830   5.984  0.0620 -0.3025 -0.2723
43036W        W85953  32.199   8.862   6.028 -0.1093  0.3826  0.1393
43037W        W85954  32.282   8.090   5.594 -0.0438  0.1043  0.0971
43038W        W85955  30.229   7.745   3.996  0.1833  0.2360 -0.2336
43039W        W85956  32.446  10.092   3.570  0.0717  0.1669 -0.0243
43040W        W85957  30.711  10.186   4.318 -0.0469  0.1763 -0.1826
43041W        W85958  28.073  11.005   3.180  0.1579  0.3381 -0.0858
43042W        W85959  30.142   9.848   4.820  0.1990  0.2032  0.1126
43043W        W85960  33.290   5.594   5.763  0.0794  0.1929 -0.1535
43044W        W85961  28.295   8.483   8.971  0.1029  0.2059  0.1032
43045W        W85962  31.944   6.547   7.235  0.0381 -0.1817 -0.0397
43046W        W85963  31.735   8.146   4.191 -0.0585  0.2208  0.0099
43047W        W85964  29.912  10.464   5.776  0.0306  0.0429  0.1848
43048W        W85965  32.589   6.974   2.301 -0.0108  0.3707  0.2016
43049W        W85966  32.718   7.374   3.418 -0.0506  0.2399  0.3446
43050W        W85967  32.705  10.065   6.098 -0.2321 -0.0952 -0.3550
43051W        W85968  32.538  10.449   4.019  0.1245  0.0304  0.3273
43052W        W85969  33.268  10.202   3.283 -0.0348 -0.0765  0.2795
43053W        W85970  31.819   6.979   3.487  0.3354  0.0617 -0.0627
43054W        W85971  29.729  11.702   5.664 -0.1778  0.1378 -0.0926
43055W        W85972  31.136   9.548   5.831 -0.2204  0.0006 -0.0022
43056W        W85973  29.599  12.078   6.208 -0.2339  0.0051 -0.2753
43057W        W85974  31.545   8.883   2.591  0.0451  0.0019 -0.1978
43058W        W85975  34.287   9.143   3.652  0.1854 -0.1535 -0.2528
43059W        W85976  29.457   8.562   4.294  0.1476 -0.0115  0.1253
43060W        W85977  33.030   9.151   6.191 -0.1577 -0.2290  0.4272
43061W        W85978  31.460   8.873   6.822  0.1466 -0.2019  0.0001
43062W        W85979  30.474   6.252   5.601  0.1465 -0.1164  0.0601
43063W        W85980  28.937   8.878   3.123 -0.0608 -0.1021 -0.2156
43064W        W85981  30.023   7.490   6.855 -0.1420 -0.2564 -0.1234
43065W        W85982  29.876  11.869   3.782 -0.1268 -0.0829 -0.0342
43066W        W85983  32.430   8.127   4.995  0.1164  0.1014  0.1083
43067W        W85984  31.148   7.882   5.206 -0.1258  0.1878 -0.2445
43068W        W85985  32.725   5.834   6.965  0.0534  0.0253  0.1694
43069W        W85986  29.734   8.289   5.499 -0.1242 -0.1993  0.1227
43070W        W85987  32.023   8.506   4.527 -0.1527 -0.2729 -0.3020
43071W        W85988  31.205   8.492   6.004  0.0309  0.4783 -0.0634
43072W        W85989  29.628   9.579   3.719 -0.0560  0.2658 -0.2853
43073W        W85990  29.491   9.062   7.139  0.0554 -0.1732 -0.1537
43074W        W85991  30.122   9.270   6.241  0.1997 -0.0631  0.1549
43075W        W85992  27.153  10.025   4.858  0.3802  0.0146  0.2624
43076W        W85993  31.074   9.977   6.816  0.1311 -0.1686  0.0362
43077W        W85994  31.915   8.268   5.255  0.1455 -0.1654 -0.5014
43078W        W85995  30.823   8.348   5.192 -0.1357  0.1397 -0.0590
43079W        W85996  31.538   7.649   4.987  0.0537 -0.1913 -0.1375
43080W        W85997  31.348  11.611   4.392 -0.0331 -0.1132  0.2124
43081W        W85998  30.430   9.693   2.345  0.0492 -0.0259 -0.1924
43082W        W85999  31.113   7.505   3.710  0.0706  0.0933  0.1281
43083W        W86000  31.558  10.761   4.394 -0.0288  0.1421  0.2043
43084W        W86001  29.830  10.438   1.739  0.0567 -0.1523 -0.1982
43085W        W86002  33.105  10.566   4.070 -0.1044  0.0812 -0.1671
43086W        W86003  29.479  10.126   3.593 -0.0908  0.2087  0.3421
43087W        W86004  31.383   7.376   4.550 -0.2781 -0.1047 -0.0267
43088W        W86005  30.237  11.456   4.993 -0.0944  0.1724 -0.0841
43089W        W86006  29.861   9.575   4.202 -0.1141  0.0384 -0.1548
43090W        W86007  28.956   9.536   5.358  0.1181 -0.3033  0.0276
43091W        W86008  32.886   8.699   4.381  0.0165 -0.0639 -0.1629
43092W        W86009  32.460   8.804   4.012 -0.2659  0.0286  0.0442
43093W        W86010  29.138   8.015   8.064 -0.2272  0.2579 -0.1657
43094W        W86011  31.347   5.221   5.792  0.0316 -0.1905 -0.1907
43095W        W86012  27.155  10.506   5.067 -0.2731 -0.1965  0.1160
43096W        W86013  30.790   8.116   6.648 -0.3296 -0.0033 -0.0232
43097W        W86014  31.984   7.758   3.920  0.1748 -0.0310  0.3183
43098W        W86015  32.235   8.850   3.272 -0.0542 -0.0967  0.1546
43099W        W86016  30.985   8.918   6.707  0.0191 -0.1725  0.0388
43100W        W86017  29.457   6.623   4.415 -0.2385  0.1270  0.1086
43101W        W86018  31.618   8.833   5.873  0.3812 -0.0085  0.1032
43102W        W86019  31.676   8.572   4.953  0.0786 -0.2979 -0.2668
43103W        W86020  30.264   9.853   4.348 -0.0115 -0.1649  0.0536
43104W        W86021  33.132   9.594   4.150  0.2551  0.0897 -0.0439
43105W        W86022  30.650   9.517   4.625 -0.1733 -0.2592 -0.1174
43106W        W86023  29.775   7.250   3.622  0.2399 -0.1824  0.0130
43107W        W86024  32.785   8.981   4.933  0.0676  0.0436 -0.4063
43108W        W86025  29.872   8.273   7.268  0.3166 -0.0192 -0.0890
43109W        W86026  31.498   7.099   5.224  0.1482 -0.2721  0.1934
43110W        W86027  28.485   8.292   3.905  0.1881 -0.3471  0.0478
43111W        W86028  30.419   8.514   4.518 -0.4509 -0.0073  0.0573
43112W        W86029  31.289   7.997   6.538 -0.1355 -0.0822  0.0098
43113W        W86030  31.147   9.494   5.060 -0.1300 -0.1809  0.0074
43114W        W86031  29.392  10.179   7.136  0.1680 -0.0236 -0.2055
43115W        W86032  29.379   6.124   7.577  0.0232 -0.0857  0.2542
43116W        W86033  31.363  10.663   3.153 -0.1591 -0.1346  0.1318
43117W        W86034  31.958   9.265   5.032 -0.1684 -0.1895 -0.0252
43118W        W86035  31.046  10.665   4.157  0.0622  0.1306  0.0232
43119W        W86036  31.035   9.297   6.296  0.1187  0.0164 -0.3074
43120W        W86037  32.142  10.054   4.908  0.1730 -0.2700  0.1221
43121W        W86038  30.235   7.979   4.616 -0.0698 -0.2292  0.1207
43122W        W86039  30.566   9.022   4.469 -0.0522  0.0524 -0.1413
43123W        W86040  28.866   7.984   3.903 -0.1288  0.1719 -0.0132
43124W        W86041  29.645  11.041   3.793  0.0553 -0.1661  0.3751
43125W        W86042  33.229   7.213   4.330  0.1565 -0.1282 -0.0247
43126W        W86043  30.052  11.014   2.525  0.1669 -0.1044  0.1804
43127W        W86044  30.529   7.591   4.822 -0.1041 -0.1132  0.0659
43128W        W86045  31.958   8.337   6.031 -0.2437  0.2268 -0.1419
43129W        W86046  33.394   7.959   3.742  0.0647  0.1154  0.1506
43130W        W86047  33.149   5.470   7.728 -0.1715  0.0634  0.2353
43131W        W86048  29.039   7.222   5.242  0.3317 -0.3364  0.0920
43132W        W86049  32.777   9.810   2.775  0.0974 -0.1244 -0.1329
43133W        W86050  29.550   9.169   8.124  0.2503  0.2360  0.3569
43134W        W86051  30.626  10.859   7.488 -0.1026 -0.0417 -0.1276
43135W        W86052  27.770   8.232   5.291  0.1727 -0.3319  0.4037
43136W        W86053  32.071   6.279   4.753 -0.0601  0.2332 -0.1344
43137W        W86054  30.587   8.753   4.038  0.0696  0.2958 -0.1245
43138W        W86055  29.362   9.497   4.219  0.1391  0.2351 -0.2206
43139W        W86056  32.288   9.512   6.853  0.0004  0.0535  0.0777
43140W        W86057  31.912   8.971   4.618 -0.0863  0.1376  0.1899
43141W        W86058  32.039   7.766   5.116 -0.1757  0.1731 -0.2650
43142W        W86059  28.088   8.361   5.643  0.1226 -0.0153 -0.1403
43143W        W86060  32.552   7.457   3.902  0.0971 -0.0969 -0.0752
43144W        W86061  30.226   8.843   4.865  0.3277  0.2281  0.0457
43145W        W86062  30.819  10.573   4.657 -0.0134 -0.0257 -0.2828
43146W        W86063  30.646   8.550   6.813  0.2612 -0.1650  0.1320
43147W        W86064  32.684   9.321   3.948 -0.2461 -0.0573 -0.0010
43148W        W86065  30.625   9.116   4.976 -0.1956 -0.1206 -0.2979
43149W        W86066  29.489   6.728   8.157  0.1000 -0.0345  0.1690
43150W        W86067  31.122   8.469   6.589 -0.3184  0.2896 -0.0634
43151W        W86068  31.118  10.346   5.044  0.0337  0.1640 -0.0410
43152W        W86069  29.741   8.724   7.955 -0.0837 -0.0867  0.0825
43153W        W86070  33.590   9.931   5.800  0.2955  0.0457  0.0437
43154W        W86071  31.801   9.484   3.626  0.0392  0.0556  0.0886
43155W        W86072  32.354   9.550   5.221 -0.1916 -0.1024  0.0760
43156W        W86073  31.263   6.796   4.226 -0.0826  0.0911  0.0151
43157W        W86074  33.290   6.470   2.834 -0.1165  0.0753  0.1927
43158W        W86075  29.558   8.812   5.577 -0.1278  0.1630 -0.2146
43159W        W86076  33.413   9.553   6.060 -0.2363  0.1245  0.0881
43160W        W86077  31.558   6.279   4.942  0.3175 -0.0378 -0.0274
43161W        W86078  32.469   7.070   6.679  0.1250  0.4367  0.0375
43162W        W86079  31.210  11.876   2.785 -0.2646  0.2848 -0.2408
43163W        W86080  34.162   9.597   4.239 -0.1628 -0.4108  0.1056
43164W        W86081  32.773   8.481   4.960 -0.0430  0.2128  0.2051
43165W        W86082  30.551   9.168   5.907 -0.0659  0.2513 -0.3415
43166W        W86083  30.895  10.375   5.498  0.1606  0.0602  0.2558
43167W        W86084  29.880   9.992   3.864 -0.1656 -0.0153  0.0886
43168W        W86085  31.221  10.038   3.934  0.0100 -0.0205 -0.0113
43169W        W86086  31.630   9.606   5.219  0.4155 -0.1399 -0.0018
43170W        W86087  30.594   8.096   7.119  0.0255 -0.1213 -0.0021
43171W        W86088  30.040   6.645   4.358 -0.4169 -0.0208  0.2318
43172W        W86089  31.563   8.476   6.359  0.0052  0.0489  0.3567
43173W        W86090  29.964   8.984   4.384  0.0082  0.1035 -0.1150
43174W        W86091  29.604   4.895   3.603  0.2374 -0.2688  0.3005
43175W        W86092  31.370  13.401   6.902 -0.0423 -0.1294 -0.0101
43176W        W86093  28.741  10.438   4.815 -0.2097 -0.1740  0.0540
43177W        W86094  28.159   8.729   4.645 -0.3937  0.2786 -0.0579
43178W        W86095  30.791   5.664   5.071 -0.0936  0.0433 -0.3675
43179W        W86096  30.884   8.687   4.676 -0.1157 -0.0775 -0.0430
43180W        W86097  32.236   8.633   5.075 -0.0254 -0.3803  0.1113
43181W        W86098  31.136   8.149   7.035 -0.0388  0.1457 -0.0146
43182W        W86099  31.460  10.005   5.999  0.2515 -0.0418 -0.2192
43183W        W86100  29.103   9.492   5.867  0.1109 -0.0558 -0.0623
43184W        W86101  31.675  10.868   5.776  0.3670  0.1934  0.3170
43185W        W86102  32.990   8.882   3.931  0.1673 -0.1076 -0.1164
43186W        W86103  30.451  10.011   3.813 -0.2075 -0.3574 -0.1914
43187W        W86104  29.007   8.579   6.299  0.1025  0.0495 -0.0721
43188W        W86105  31.224  10.011   7.678 -0.0785 -0.1624 -0.2466
43189W        W86106  31.465   8.783   4.588  0.1981  0.2482  0.0083
43190W        W86107  31.179   6.571   5.139 -0.1343  0.1754 -0.4759
43191W        W86108  33.349   8.624   4.233 -0.0340 -0.2533 -0.1802
43192W        W86109  29.320  11.631   4.961  0.2401  0.1801 -0.1590
43193W        W86110  30.022   7.392   5.042 -0.1323 -0.2181 -0.0695
43194W        W86111  30.993  10.975   4.898 -0.1530  0.0261 -0.0396
43195W        W86112  33.198  11.665   3.326 -0.2052 -0.1437 -0.1280
43196W        W86113  33.215   9.246   5.690  0.0098  0.1631  0.1218
43197W        W86114  32.470   9.614   4.278  0.4285 -0.1755 -0.1990
43198W        W86115  30.933   8.373   3.955 -0.1640  0.1592 -0.1801
43199W        W86116  29.257  10.341   4.877 -0.2090  0.4410  0.0345
43200W        W86117  28.482  10.067   4.444 -0.3457  0.0258 -0.0098
43201W        W86118  31.355   9.811   3.365  0.2822 -0.0551  0.1483
43202W        W86119  28.400   9.906   1.924  0.0532  0.0147 -0.1207
43203W        W86120  32.139  10.823   7.005 -0.2363  0.0678 -0.0080
43204W        W86121  32.105   6.651   4.442  0.2683 -0.2858 -0.3222
43205W        W86122  33.569   9.121   4.866 -0.1861 -0.0861 -0.0399
43206W        W86123  33.763   7.589   4.145  0.2309 -0.1128 -0.3789
43207W        W86124  34.130   9.578   5.384  0.0921 -0.4298 -0.2671
43208W        W86125  32.090   9.177   5.581 -0.0207 -0.0051  0.1300
43209W        W86126  31.759   7.040   4.481  0.0364  0.2870 -0.2613
43210W        W86127  30.066   9.000   3.844 -0.2982 -0.0297  0.1503
43211W        W86128  34.021   7.816   8.479  0.1025  0.0752 -0.2754
43212W        W86129  30.239  11.722   7.272  0.0998 -0.0796 -0.2945
43213W        W86130  31.724   9.605   2.994  0.0179 -0.1813 -0.0358
43214W        W86131  29.601   6.986   4.132  0.0460  0.0593 -0.1095
43215W        W86132  29.704   9.046   6.070 -0.4034  0.0643  0.0095
43216W        W86133  33.524   6.415   6.882 -0.1931 -0.0831 -0.0546
43217W        W86134  30.658  10.242   2.929  0.1611 -0.1075 -0.0423
43218W        W86135  29.949   6.496   6.901  0.1243  0.0031  0.0608
43219W        W86136  29.805  10.040   4.475 -0.0543  0.0920  0.1081
43220W        W86137  31.277  10.843   6.280 -0.0058  0.1671  0.1078
43221W        W86138  31.550   9.659   7.639  0.1021 -0.0866  0.2579
43222W        W86139  31.420   6.075   5.371  0.0582 -0.1046 -0.0477
43223W        W86140  34.593   7.639   4.529 -0.0659  0.1335  0.0515
43224W        W86141  29.951   8.566   5.839  0.1357  0.3964  0.0144
43225W        W86142  30.049   7.905   7.569  0.0429 -0.2437  0.2078
43226W        W86143  28.600   8.442   5.386 -0.0093  0.2275 -0.0610
43227W        W86144  32.201   8.025   4.545  0.0328  0.1971  0.4313
43228W        W86145  31.602  10.334   5.644  0.0488  0.0348  0.0063
43229W        W86146  30.229   7.188   5.754 -0.1735  0.1088 -0.1623
43230W        W86147  31.960   7.251   3.874  0.1134  0.1037 -0.0310
43231W        W86148  32.824   7.603   9.059 -0.0444  0.2239  0.2402
43232W        W86149  32.328   8.515   3.604  0.0083  0.0857 -0.0760
43233W        W86150  31.611   9.744   6.781 -0.0659 -0.2257 -0.2535
43234W        W86151  29.490   8.160   5.094  0.1245  0.0166 -0.2289
43235W        W86152  32.406   7.977   3.740  0.0157 -0.0502 -0.1800
43236W        W86153  28.912   8.509   3.533  0.1846  0.1500  0.1496
43237W        W86154  31.033   8.016   6.126 -0.0642 -0.2250  0.0243
43238W        W86155  33.132  10.079   4.022  0.0275  0.0738 -0.1902
43239W        W86156  29.248   7.993   5.548 -0.0778 -0.0627 -0.1099
43240W        W86157  33.167  11.165   2.914  0.2965 -0.1326  0.0920
43241W        W86158  34.127   8.195   4.849 -0.3521  0.2111  0.5154
43242W        W86159  29.936  10.434   3.592  0.1608  0.0673 -0.5012
43243W        W86160  32.781   6.387   4.887  0.2820  0.0952 -0.2709
43244W        W86161  33.924  10.117   6.333  0.1432  0.2227  0.0660
43245W        W86162  30.305   7.646   5.478  0.3006  0.0079  0.0271
43246W        W86163  33.464   9.575   5.149 -0.1364  0.0662 -0.1365
43247W        W86164  32.552   8.949   5.419  0.0151 -0.0969  0.1776
43248W        W86165  31.160   6.114   3.861 -0.2335 -0.0888 -0.0052
43249W        W86166  31.181   8.331   4.395 -0.1479  0.4735  0.2156
43250W        W86167  28.242  11.905   3.248 -0.0341  0.2777 -0.1965
43251W        W86168  31.816   8.804   5.421 -0.0063 -0.1097  0.3274
43252W        W86169  31.769   9.562   5.700  0.1154 -0.1846 -0.0619
43253W        W86170  29.416  11.544   3.760  0.0912  0.1619  0.2099
43254W        W86171  31.928   7.529   8.870  0.0634  0.0601 -0.1630
43255W        W86172  31.643  10.509   6.153 -0.3918  0.3961  0.2866
43256W        W86173  29.408  11.007   5.459 -0.0918 -0.2990  0.0862
43257W        W86174  30.072   7.110   4.061  0.0403  0.1301 -0.0611
43258W        W86175  30.056  12.294   5.975  0.0943 -0.1195 -0.0726
43259W        W86176  31.439   7.921   4.554 -0.2445  0.1280 -0.2393
43260W        W86177  31.474   8.999   3.715 -0.4048 -0.0038 -0.2576
43261W        W86178  33.713   8.634   5.064  0.2317 -0.5147 -0.1339
43262W        W86179  32.228   8.275   4.119 -0.4665 -0.1327 -0.1047
43263W        W86180  32.450   8.742   4.626  0.0432 -0.0007 -0.0875
43264W        W86181  31.579   9.441   4.697 -0.5067  0.2086  0.0059
43265W        W86182  33.255   7.509   3.525 -0.1524 -0.1974 -0.0466
43266W        W86183  32.021   6.135   4.233  0.0334 -0.2691 -0.0490
43267W        W86184  28.871   9.886   6.364  0.1272 -0.1107 -0.0310
43268W        W86185  28.630   8.143   4.344 -0.2541  0.2374  0.2806
43269W        W86186  32.084  11.311   3.264 -0.0988 -0.0510 -0.2446
43270W        W86187  30.730   9.295   5.418  0.0872 -0.0521 -0.0674
43271W        W86188  30.600   7.749   8.091 -0.1616  0.1599  0.2234
43272W        W86189  29.703   7.770   5.690 -0.0154  0.0131 -0.2037
43273W        W86190  31.324  10.017   5.374 -0.0073  0.1391 -0.0042
43274W        W86191  31.107   7.349   4.983 -0.2546 -0.1821  0.1153
43275W        W86192  33.017   9.465   4.793  0.0372  0.1668 -0.0081
43276W        W86193  30.747   8.770   5.559  0.0804  0.1230  0.1035
43277W        W86194  28.521   7.414   3.385  0.1026  0.0415 -0.0284
43278W        W86195  32.189   9.915   3.898  0.0992  0.2720 -0.1844
43279W        W86196  33.852   7.802   4.630 -0.0925  0.5196 -0.2644
43280W        W86197  30.584   7.436   4.330  0.3238 -0.0814 -0.1082
43281W        W86198  30.537   9.297   7.782  0.2324  0.0310  0.0331
43282W        W86199  31.650   9.983   3.703  0.0532 -0.3688  0.1041
43283W        W86200  32.066   9.916   6.549 -0.0946 -0.1308  0.3675
43284W        W86201  33.407   6.416   7.805 -0.2113  0.0850 -0.1371
43285W        W86202  30.038   8.330   2.995  0.3700 -0.0133  0.0868
43286W        W86203  31.017   8.926   5.160 -0.0731 -0.1864  0.1546
43287W        W86204  33.303   7.941   4.871  0.2141  0.0761  0.1189
43288W        W86205  32.989   9.329   3.556  0.0504  0.1099 -0.0207
43289W        W86206  28.664  10.369   6.361 -0.0054 -0.1037  0.2441
43290W        W86207  30.691  11.006   6.974  0.1791 -0.3847  0.2480
43291W        W86208  29.150   9.324   6.380  0.2363  0.0351 -0.1780
43292W        W86209  32.981   7.948   4.172 -0.1742 -0.1364 -0.1783
43293W        W86210  30.556   9.107   6.496  0.0937 -0.1721  0.0230
43294W        W86211  31.751  11.464   1.897  0.0218 -0.0265 -0.1651
43295W        W86212  32.369   6.643   5.459 -0.0337  0.0637 -0.1056
43296W        W86213  31.043   9.196   4.602 -0.2422 -0.4683  0.0773
43297W        W86214  29.480   8.086   7.036  0.0320 -0.3602 -0.0473
43298W        W86215  30.358   8.591   5.347  0.2067  0.0591 -0.1542
43299W        W86216  32.676   9.922   7.032  0.0514 -0.0225  0.1332
43300W        W86217  29.888   7.662   2.506  0.0186 -0.0923 -0.0765
43301W        W86218  32.200   7.437   3.498 -0.1994 -0.2407 -0.0100
43302W        W86219  29.298   9.957   4.562 -0.1241 -0.1702  0.1962
43303W        W86220  29.622   9.275   5.452  0.3872 -0.0651 -0.1554
43304W        W86221  31.801   8.116   4.855 -0.0469  0.0631  0.0313
43305W        W86222  30.690  10.069   6.434 -0.5824 -0.0814  0.1780
43306W        W86223  31.284  10.865   5.357  0.1452  0.0862 -0.0613
43307W        W86224  32.944  11.109   6.922  0.1683 -0.1224  0.0225
43308W        W86225  30.792   8.540   3.120 -0.1038 -0.0764  0.0771
43309W        W86226  33.661   7.620   2.619  0.3704  0.0147 -0.1002
43310W        W86227  31.107  10.346   6.420  0.1879 -0.0112  0.1728
43311W        W86228  33.696  10.536   6.245 -0.2104 -0.0180 -0.0403
43312W        W86229  33.481   9.630   4.618  0.0981  0.1529  0.0444
43313W        W86230  34.119   9.409   7.020  0.0398 -0.0321  0.2592
43314W        W86231  30.301   7.843   6.489  0.1590 -0.0345 -0.0796
43315W        W86232  29.138   9.605   3.776 -0.2215  0.2161  0.0231
43316W        W86233  28.957   9.242   4.219  0.0365 -0.0638 -0.2211
43317W        W86234  30.984   8.597   7.227  0.1062  0.1482 -0.1294
43318W        W86235  31.419   7.094   5.714 -0.1139  0.1451  0.1506
43319W        W86236  30.884   6.524   3.929 -0.0016  0.0655  0.0715
43320W        W86237  29.642  11.242   6.079  0.1514  0.2917  0.1836
43321W        W86238  30.812   7.534   7.384  0.1904  0.0791 -0.0981
43322W        W86239  30.836   9.052   9.385 -0.0304 -0.0458  0.1037
43323W        W86240  29.703   7.683   7.258  0.0621  0.0744  0.0632
43324W        W86241  29.268   7.504   7.552  0.1584 -0.0378 -0.2036
43325W        W86242   0.045   5.863   9.395  0.0126 -0.1184  0.2176
43326W        W86243  28.120   8.864   6.527  0.2819 -0.0789 -0.3819
43327W        W86244  30.785  10.824   9.320 -0.0748  0.0801  0.2377
43328W        W86245  31.364   8.941   7.485 -0.1802 -0.2541 -0.0679
43329W        W86246   3.779  10.047   8.641  0.0946  0.1598 -0.2529
43330W        W86247  31.235   8.656   5.501 -0.0395  0.1392 -0.0679
43331W        W86248  32.563   6.778   8.853  0.1364 -0.1687 -0.1127
43332W        W86249  32.323   8.317   9.116 -0.1100 -0.1104  0.0646
43333W        W86250  29.270   7.519   8.946  0.1315 -0.0702  0.1366
43334W        W86251  30.986   9.942   8.877  0.0437  0.4417  0.1477
43335W        W86252  28.663   8.551   4.770 -0.0257  0.1181 -0.0699
43336W        W86253  28.737   5.344   9.716  0.1140  0.0532 -0.1794
43337W        W86254  31.403   7.849   7.486 -0.0785 -0.1939  0.0933
43338W        W86255  30.797  10.189   7.990  0.1326 -0.2221 -0.1431
43339W        W86256  29.319  10.624   9.324  0.1878  0.2540 -0.3362
43340W        W86257  31.658   7.698   8.039  0.0805  0.1130  0.2951
43341W        W86258  30.264   9.761   6.063  0.3421 -0.0660 -0.2808
43342W        W86259  28.918   8.329   8.419  0.0494  0.3727  0.0323
43343W        W86260  31.015   7.760   7.795  0.0401 -0.1591  0.0751
43344W        W86261  32.652   7.933   7.059 -0.1061  0.1730 -0.0013
43345W        W86262  33.874   9.900   8.171 -0.1859 -0.1226  0.2135
43346W        W86263  29.889  11.175   8.125 -0.1655  0.2377 -0.1859
43347W        W86264  29.894  10.651   8.181  0.2738  0.0148  0.1171
43348W        W86265  28.452   9.634   7.623  0.3621 -0.4007  0.1734
43349W        W86266  29.343  11.319   7.206 -0.0005  0.0038 -0.0522
43350W        W86267  29.790   9.558   8.349 -0.1970  0.0506 -0.0425
43351W        W86268  33.274   9.571   8.743 -0.2416  0.3086 -0.2550
43352W        W86269  29.679   9.488   6.405 -0.0171 -0.1314 -0.2754
43353W        W86270  34.437   9.160   8.413  0.0128 -0.0258  0.2442
43354W        W86271  30.008   8.453   8.294  0.2546  0.1685 -0.1754
43355W        W86272  30.272   9.623   7.126  0.1538 -0.0579 -0.4014
43356W        W86273  31.325   9.694   8.163  0.0375 -0.1134 -0.1159
43357W        W86274  30.015   9.376   7.933  0.1695 -0.1475  0.1902
43358W        W86275  31.635  10.517   8.389 -0.2779 -0.1202  0.0753
43359W        W86276  32.240   8.591   5.634  0.0415 -0.2022 -0.2528
43360W        W86277  30.449   7.306   6.273  0.0022  0.1805  0.3290
43361W        W86278  32.111   6.544   8.801 -0.1850  0.1378 -0.1897
43362W        W86279  33.341   5.374   8.598  0.1343  0.0950 -0.0064
43363W        W86280  32.077  10.413   9.281  0.0100  0.0846 -0.1311
43364W        W86281  30.730   7.029   8.900 -0.0285 -0.0974  0.1566
43365W        W86282  31.871   8.077   7.729  0.0080 -0.0232 -0.1971
43366W        W86283  29.979   7.375   9.251 -0.1254  0.0967 -0.2257
43367W        W86284  32.576   9.705   9.027  0.0057 -0.1163 -0.2149
43368W        W86285  28.369   9.952   7.291  0.1293  0.0582 -0.0392
43369W        W86286  31.762  10.511   7.743  0.1970  0.1719 -0.1485
43370W        W86287  32.899  10.125   9.222 -0.0518 -0.0123 -0.1742
43371W        W86288  30.527  10.035   6.975  0.1224 -0.1264 -0.2938
43372W        W86289  29.244   7.679   7.073  0.1634  0.2269 -0.1953
43373W        W86290  29.806   7.983   6.448 -0.1850 -0.3678 -0.1734
43374W        W86291  32.169   5.645   9.023  0.1683  0.5166 -0.1799
43375W        W86292  29.946   9.643   7.514  0.0782  0.0750 -0.1676
43376W        W86293  31.376   8.902   8.838  0.0367  0.2774  0.1979
43377W        W86294  32.192   9.226   7.355 -0.0228 -0.1094 -0.3716
43378W        W86295  31.357   8.149   7.923 -0.0370  0.2827 -0.2186
43379W        W86296  28.560   7.936   9.044 -0.1660 -0.3659 -0.2476
43380W        W86297  30.122   9.003   5.697 -0.0182 -0.1802 -0.0804
43381W        W86298  32.423  10.546   6.229  0.0812  0.1667 -0.2809
43382W        W86299  32.843   8.388   7.343  0.1866  0.0857  0.0246
43383W        W86300  29.959   8.881   7.202  0.1986  0.2730 -0.0978
43384W        W86301  29.593   9.996   7.576  0.2007  0.0035  0.0667
43385W        W86302  30.868   9.684   7.906 -0.2110  0.2260  0.0696
43386W        W86303  30.254   9.257   8.666 -0.2615 -0.1232  0.0494
43387W        W86304  27.939   9.644   7.412 -0.1394  0.0678  0.0892
43388W        W86305  27.955   9.648   9.536  0.0260  0.2225  0.0711
43389W        W86306  28.451   8.290   8.370 -0.0599 -0.0916  0.2208
43390W        W86307  33.350   8.786   8.529  0.1586 -0.2147 -0.1094
43391W        W86308  31.861   8.058   8.965  0.3147  0.2621  0.1229
43392W        W86309  28.555  10.586   7.552  0.0087 -0.2907  0.0576
43393W        W86310  32.205   9.943   7.120  0.1903  0.0937  0.1729
43394W        W86311  31.836   7.343   8.413 -0.2662 -0.3471  0.0078
43395W        W86312  32.164  10.514   7.424 -0.3504  0.2930  0.4058
43396W        W86313  27.494   6.319   7.507  0.1133  0.1280  0.0817
43397W        W86314  29.568   7.927   8.817 -0.2955 -0.0664 -0.1419
43398W        W86315  29.511   6.350   8.504 -0.0443  0.0753  0.4180
43399W        W86316  29.466   8.337   6.534 -0.2815 -0.0644  0.0324
43400W        W86317  32.497   7.480   8.277  0.1033  0.0180 -0.4022
43401W        W86318  30.087   8.438   7.693  0.1321 -0.2369 -0.0887
43402W        W86319  29.003   9.734   7.747 -0.1870 -0.1949  0.0526
43403W        W86320  29.828   9.953   5.486  0.2541  0.2131 -0.4166
43404W        W86321  34.197  11.106   7.425  0.0685 -0.0450  0.1117
43405W        W86322  31.495   9.263   8.406 -0.1010 -0.0900  0.0107
43406W        W86323  28.200   9.319   9.254  0.0753  0.0965  0.1254
43407W        W86324  29.351   8.643   6.981 -0.0963  0.0387  0.0893
43408W        W86325  31.258   9.268   9.583 -0.1347 -0.0163 -0.1422
43409W        W86326  30.392   9.862   7.804  0.1225  0.1640  0.3826
43410W        W86327  32.113   8.666   7.681  0.5029 -0.3617 -0.3572
43411W        W86328   0.149  13.206   9.913 -0.1549  0.1408 -0.1400
43412W        W86329  30.582   9.326   8.289 -0.0093 -0.2543  0.0004
43413W        W86330  31.435   7.890   9.240 -0.0494  0.1462  0.1283
43414W        W86331  32.071   9.743   9.150 -0.0747 -0.2308  0.1326
43415W        W86332  29.003  10.226   8.019 -0.2717 -0.1888 -0.0186
43416W        W86333  33.181   8.999   8.942  0.1157 -0.1971 -0.2356
43417W        W86334  28.600   8.692   7.048  0.0056 -0.0607  0.3001
43418W        W86335  29.237   8.936   7.799 -0.1189 -0.1104 -0.0071
43419W        W86336  27.740  11.043   9.105 -0.1740  0.4481 -0.2970
43420W        W86337  33.822   8.673   8.123  0.0110  0.0432  0.0732
43421W        W86338  29.094   9.902   6.803  0.0596  0.2173 -0.1855
43422W        W86339  30.293   7.542   7.308 -0.1006  0.0115 -0.0767
43423W        W86340  34.372   7.587   9.845  0.2398 -0.3026  0.1831
43424W        W86341  33.572   8.318   8.405  0.0960  0.0883 -0.0245
43425W        W86342  32.395   8.382   6.257  0.0186 -0.1791  0.0748
43426W        W86343  32.588   7.731   7.623 -0.1631  0.0172  0.2165
43427W        W86344  31.830   9.480   8.792  0.1085  0.0317 -0.3375
43428W        W86345  30.293   8.453   9.091  0.0463 -0.2291 -0.2007
43429W        W86346  31.372   9.206   5.477  0.1058  0.0623  0.0417
43430W        W86347  32.703   9.314   8.140  0.0447 -0.0195  0.0482
43431W        W86348  29.165   9.016   8.400 -0.3330  0.1522  0.0622
43432W        W86349  32.496  10.580   8.613  0.0032  0.2313  0.0997
43433W        W86350  32.651   7.945   8.093  0.0713  0.1963 -0.0231
43434W        W86351  29.975   8.173   3.782 -0.3053  0.1526 -0.2920
43435W        W86352  27.493   8.463   9.598  0.1342  0.1905 -0.3068
43436W        W86353  30.009  11.903   5.289  0.1060  0.3064 -0.0078
43437W        W86354  32.435   5.967   8.283 -0.1055  0.0049  0.3173
43438W        W86355  30.753   3.905   9.288  0.0052  0.2641  0.0502
43439W        W86356  32.375   8.410   7.145 -0.0606  0.1363  0.0694
43440W        W86357  31.612   8.687   7.850 -0.2052  0.0773  0.0118
43441W        W86358  28.515   7.088   8.779  0.0819 -0.2137  0.3480
43442W        W86359  29.309   9.092   9.102 -0.1927 -0.1586  0.3003
43443W        W86360  28.094  10.912   7.468 -0.0820 -0.0742  0.1128
43444W        W86361  30.301   9.712   8.253 -0.2433  0.1023 -0.1296
43445W        W86362  31.898   6.982   7.420 -0.0305  0.1170 -0.1120
43446W        W86363  29.803  10.463   7.243  0.0071  0.0549 -0.1668
43447W        W86364  29.401   9.411   6.801 -0.0239  0.0625  0.0247
43448W        W86365  29.547   7.577   6.728  0.1378  0.0130 -0.2895
43449W        W86366  29.923  10.105   8.401  0.2207 -0.2132  0.0285
43450W        W86367  30.505   9.594   5.098  0.0304  0.2275  0.3390
43451W        W86368  34.338   8.668   8.399  0.2394  0.1650 -0.0108
43452W        W86369  28.256   9.759   8.818  0.1062  0.0633  0.2378
43453W        W86370  31.770   6.816   8.610  0.2973 -0.3207  0.2000
43454W        W86371  28.961  10.029   8.897 -0.0184  0.0049 -0.2299
43455W        W86372  30.880   8.564   8.379  0.2985  0.0126 -0.2954
43456W        W86373  29.753   9.548   5.831  0.2192  0.0377  0.0380
43457W        W86374   1.805   5.348   9.704  0.2480  0.0980  0.0187
43458W        W86375  30.869  10.417   6.911 -0.0808 -0.3169 -0.1087
43459W        W86376  28.026   9.112   7.582 -0.2625 -0.1370 -0.0073
43460W        W86377  32.744   8.083   9.085 -0.2065  0.0595  0.3430
43461W        W86378  28.159  11.216   9.813  0.0483  0.1251 -0.2130
43462W        W86379  32.850   6.215   5.559 -0.1930  0.1538  0.1657
43463W        W86380  30.309   6.894   6.602 -0.0673 -0.2233  0.2050
43464W        W86381   0.354   5.976   8.987  0.5257 -0.2711 -0.2528
43465W        W86382  32.340   8.758   8.446 -0.1349  0.1221  0.2707
43466W        W86383  28.810  10.723   6.669 -0.0887  0.0261  0.1209
43467W        W86384  30.608  10.307   9.037  0.0655 -0.1531  0.0724
43468W        W86385  29.427   8.551   5.985  0.0669 -0.1862 -0.0284
43469W        W86386  29.163  10.420   6.725  0.0639  0.1882  0.1557
43470W        W86387  34.351  12.211   8.214  0.1435  0.0828  0.3794
43471W        W86388  30.405   8.052   9.413  0.2166 -0.0501 -0.0495
43472W        W86389  30.039   9.017   8.244  0.1574  0.4742  0.0480
43473W        W86390  32.272   6.191   7.037 -0.0497  0.0846 -0.0463
43474W        W86391  33.716   8.823   9.187  0.3749  0.0803 -0.2382
43475W        W86392  31.276   9.414   8.910  0.1545  0.0456 -0.0813
43476W        W86393  29.397   6.175   9.378 -0.1169 -0.0581 -0.2405
43477W        W86394  32.200   9.878   8.042 -0.0868 -0.0185  0.0700
43478W        W86395  28.999   9.849   8.340  0.1457  0.4364  0.0162
43479W        W86396  28.510   9.720   9.600  0.1672  0.2340  0.0089
43480W        W86397  31.095   9.310   7.616  0.0956  0.1024  0.0835
43481W        W86398  27.162   7.355   9.354  0.2060  0.0163  0.0443
43482W        W86399  29.582   9.171   8.630 -0.2766  0.2435  0.0084
43483W        W86400  28.706   9.433   6.271  0.0638 -0.0824 -0.0409
43484W        W86401  30.007   7.797   8.966 -0.0356 -0.0887  0.1437
43485W        W86402  31.852   8.095   6.495  0.4368 -0.0799 -0.2183
43486W        W86403  30.469   8.991   7.303 -0.0510 -0.0595 -0.0797
43487W        W86404  28.865  11.108   7.502 -0.1709 -0.0835 -0.0073
43488W        W86405  31.926   8.203   7.225  0.1258  0.1644 -0.0543
43489W        W86406  33.872   2.036   9.063 -0.1011 -0.0281 -0.1382
43490W        W86407  32.858   8.675   8.322  0.0615  0.2743  0.2275
43491W        W86408  32.095   7.875   8.394  0.2544 -0.0451  0.2131
43492W        W86409  31.079   9.018   5.869 -0.0210  0.0591 -0.0885
43493W        W86410  31.202  10.193   8.236 -0.1655  0.1595 -0.2632
43494W        W86411  32.523   8.891   7.983 -0.0336  0.0655 -0.2968
43495W        W86412  29.654   9.175   7.599  0.0271  0.0728  0.4619
43496W        W86413  33.905   8.774   8.627  0.3863 -0.4314 -0.0893
43497W        W86414  28.685   9.162   7.238 -0.0831 -0.0250 -0.1594
43498W        W86415  33.065   7.896   7.376  0.0869 -0.0420  0.0035
43499W        W86416  30.264   9.542   5.588 -0.1950 -0.0374 -0.1155
43500W        W86417  29.799   9.969   6.066 -0.0780 -0.1097 -0.1269
43501W        W86418  31.110   8.574   7.754 -0.2552 -0.8658 -0.2417
43502W        W86419  33.421   7.872   8.230 -0.1395  0.0756 -0.1132
43503W        W86420  29.494  11.740   9.094 -0.2967 -0.1889 -0.0558
43504W        W86421  33.125   7.944   6.849 -0.1268 -0.1608  0.1875
43505W        W86422  31.958   6.167   8.016  0.2086  0.0390  0.1056
43506W        W86423  32.856   8.873   7.042 -0.2986  0.0212 -0.0210
43507W        W86424  31.459   7.584   5.891  0.1428 -0.1696 -0.3882
43508W        W86425  29.086   8.643   8.760  0.0212  0.2251 -0.0358
43509W        W86426  30.165   8.926   7.704 -0.2937 -0.0781 -0.2108
43510W        W86427  30.569  12.301   8.029  0.1108 -0.2387  0.2895
43511W        W86428  32.704   9.351   7.641  0.0947  0.3486 -0.1610
43512W        W86429  30.081   7.719   9.590  0.4208  0.2658 -0.0492
43513W        W86430  30.101   7.656   7.970  0.3782 -0.3925 -0.3531
43514W        W86431  28.455   9.189   4.118  0.0954 -0.0563  0.0733
43515W        W86432  29.808   9.070   6.691 -0.1606  0.1197 -0.3255
43516W        W86433  31.660   8.531   9.212  0.0568  0.0446 -0.0045
43517W        W86434  30.260   7.215   8.863  0.0826  0.0876 -0.0320
43518W        W86435  27.712  10.142   7.337 -0.0318  0.0642  0.1257
43519W        W86436  31.312   6.685   8.423  0.0980 -0.2278 -0.0176
43520W        W86437  28.203  11.299   8.962 -0.2298  0.0289 -0.1052
43521W        W86438  29.414   9.597   9.138 -0.6050 -0.2693  0.2313
43522W        W86439  29.776   4.803   9.396 -0.1104 -0.2132 -0.1116
43523W        W86440  31.038   8.302   9.009 -0.2364  0.0407 -0.0244
43524W        W86441  33.049   8.586   9.323 -0.0789  0.0986 -0.1889
43525W        W86442  30.549   7.940   7.576 -0.1162 -0.2661 -0.0858
43526W        W86443  33.040   9.621   9.224 -0.2305  0.1637 -0.0081
43527W        W86444  28.301  10.683   8.471  0.0549 -0.0197  0.0564
43528W        W86445  31.838   8.769   8.822  0.0859  0.0913 -0.1300
43529W        W86446  31.027   9.570   8.509 -0.4794  0.0312 -0.1035
43530W        W86447  31.041  11.473   6.797  0.1179 -0.0766  0.0259
43531W        W86448  29.258   7.712   8.429 -0.1900  0.1979  0.0946
43532W        W86449  29.517   8.595   7.487  0.3788  0.1700  0.0073
43533W        W86450  32.249   9.314   7.879  0.0059 -0.1704  0.0101
43534W        W86451  31.025   9.082   7.156 -0.0580  0.0244 -0.0685
43535W        W86452  31.838   8.061   9.509 -0.2018 -0.0189 -0.2841
43536W        W86453  29.857   9.454   6.993  0.2108 -0.0729 -0.4462
43537W        W86454  29.516   9.864   8.720  0.0451 -0.2497  0.1798
43538W        W86455  28.066  10.688   6.028  0.1675  0.0101  0.1317
43539W        W86456  30.422  10.476   7.716  0.2074  0.1011  0.0561
43540W        W86457  28.675  10.128   8.545  0.1943 -0.1247  0.1661
43541W        W86458  32.463   7.567   5.768  0.0243  0.1567 -0.2778
43542W        W86459  30.799   8.034   8.507  0.1648 -0.0153 -0.0534
43543W        W86460  33.313   8.686   8.031 -0.0708  0.0084  0.0074
43544W        W86461  30.404   8.702   8.117  0.1496 -0.0091  0.0520
43545W        W86462  30.312   8.493   7.186  0.0671  0.1289 -0.1105
43546W        W86463  30.027  12.351   6.513 -0.4245  0.1107 -0.0546
43547W        W86464  30.346   8.964   9.066 -0.3427 -0.0919  0.1131
43548W        W86465  29.020   7.984   8.792  0.1625 -0.0247  0.0644
43549W        W86466  33.511   3.582   9.695  0.2286  0.1056  0.1012
43550W        W86467  31.262   8.270   4.946  0.0453  0.2002  0.2173
43551W        W86468  29.329  11.288   9.527  0.0382 -0.0037  0.0944
43552W        W86469  28.895   9.770   7.251 -0.1047  0.1092  0.2099
43553W        W86470  31.027   9.055   8.433  0.2013 -0.0549  0.1665
43554W        W86471  30.329   9.912   9.246 -0.1849  0.0871  0.0769
43555W        W86472  28.720   7.868   8.397  0.1682 -0.0705  0.0494
43556W        W86473  33.543  10.011   8.990  0.1435 -0.1079  0.0701
43557W        W86474  30.829   6.609   8.542  0.0806  0.3228  0.0007
43558W        W86475  29.319   8.593   8.125  0.2827 -0.3292 -0.0530
43559W        W86476  32.080   8.395   8.631  0.0020 -0.1361 -0.1277
43560W        W86477  31.431   9.847   8.633  0.0178  0.0289 -0.0757
43561W        W86478  29.021   9.863   9.455 -0.1529  0.0580  0.1791
43562W        W86479  29.940   9.606   5.210 -0.1488  0.0964 -0.0384
43563W        W86480  31.332   8.904   6.307 -0.4824 -0.0266 -0.1457
43564W        W86481  30.219   9.197   5.239  0.0603  0.3508  0.0821
43565W        W86482  32.508   7.619   6.737  0.3939 -0.1032  0.1158
43566W        W86483  30.799   8.195   8.009 -0.2415 -0.1699 -0.3244
43567W        W86484  27.191  10.192   9.386 -0.0820  0.0358 -0.0589
43568W        W86485  29.612   6.708   7.263  0.0186 -0.1148 -0.0827
43569W        W86486  31.856   8.758   7.235 -0.1592  0.0408 -0.0899
43570W        W86487  33.826   8.158   9.827 -0.2377 -0.3508  0.1656
43571W        W86488  30.449  10.477   7.200  0.0879  0.0428  0.0872
43572W        W86489  31.584  10.436   9.657  0.0762  0.0336 -0.5714
43573W        W86490  32.319   8.335   8.072  0.2452 -0.1377  0.0548
43574W        W86491  28.058   8.620   8.507  0.0727 -0.1046  0.2221
43575W        W86492  27.910   5.395   9.563 -0.0585 -0.2256  0.2533
43576W        W86493  32.692  12.454   9.030 -0.0607  0.1020  0.0526
43577W        W86494  30.786   8.968   7.976 -0.2792  0.0309  0.1021
43578W        W86495  31.226   8.168   8.387 -0.1799 -0.0855 -0.2688
43579W        W86496  29.202  10.327   7.586  0.2263 -0.0939 -0.4675
43580W        W86497  30.858   7.064   8.451 -0.2213 -0.1184 -0.1789
43581W        W86498  32.107  10.251   8.402  0.0317 -0.2245 -0.4863
43582W        W86499  28.129  10.315   8.772  0.0884 -0.0907 -0.0696
43583W        W86500  28.986   8.339   6.759 -0.0280 -0.1836 -0.2164
43584W        W86501  30.272   9.235   6.852 -0.5536 -0.0910 -0.0557
43585W        W86502  31.166   9.730   7.263  0.0717 -0.1015  0.0688
43586W        W86503  32.200  11.005   9.137  0.1249 -0.1235  0.1990
43587W        W86504  31.299   6.205   9.364  0.2812  0.1813  0.1315
43588W        W86505  32.212   9.282   8.398  0.0524 -0.1591 -0.0787
43589W        W86506  29.591   7.700   7.977  0.1367 -0.2177  0.2033
43590W        W86507  31.417   7.095   8.079  0.0298 -0.1418  0.3034
43591W        W86508  32.727   6.899   7.525  0.1646  0.1090  0.3554
43592W        W86509  29.511   6.740   9.135 -0.3329  0.4221  0.1995
43593W        W86510  30.273   8.115   8.043 -0.1534 -0.2583  0.2789
43594W        W86511  29.229  10.975   6.859  0.0609  0.3944 -0.1649
43595W        W86512  30.543   9.426   9.212 -0.1201  0.0730  0.1642
43596W        W86513  28.196   8.458   5.078 -0.0681 -0.2541 -0.0550
43597W        W86514  30.217   8.290   6.595 -0.2859  0.1308 -0.0520
43598W        W86515  31.461   8.376   7.392  0.0928  0.1735 -0.0722
43599W        W86516  30.391   6.819   8.604 -0.1670 -0.0321  0.0667
43600W        W86517  30.540   6.096   7.338  0.1868  0.0745  0.1092
43601W        W86518  31.031   3.861  13.157 -0.0253 -0.3860 -0.1622
43602W        W86519  31.725   8.308   8.213 -0.2542  0.2949 -0.1212
43603W        W86520  30.962   5.553   6.701 -0.0615 -0.1528 -0.1037
43604W        W86521  29.366   9.967   6.335 -0.0232  0.3431 -0.1163
43605W        W86522  27.919   7.534   6.748  0.0741  0.0520 -0.0507
43606W        W86523  28.630  10.501   8.873 -0.0033 -0.0123  0.1915
43607W        W86524  31.591  11.359   7.858  0.1780 -0.1952  0.1296
43608W        W86525  31.814   9.238   6.752 -0.2074  0.1783 -0.2120
43609W        W86526  32.609   8.675   8.873 -0.1407  0.1469 -0.0876
43610W        W86527  30.045   7.989   6.899 -0.1623  0.0500  0.0995
43611W        W86528  33.328   8.656   7.305 -0.0155 -0.0357  0.1381
43612W        W86529  31.011   5.614   9.649  0.1090 -0.1385 -0.3837
43613W        W86530  29.797   8.495   6.868 -0.3301  0.1393  0.0719
43614W        W86531   0.514   8.646   9.054  0.0920  0.1865  0.1853
43615W        W86532  30.531   8.018   8.931 -0.2062  0.0034  0.2260
43616W        W86533  31.914   5.202   9.220  0.1750 -0.0326 -0.4925
43617W        W86534  29.667   9.881   6.713 -0.0334 -0.0517 -0.0654
43618W        W86535  28.714   7.191   9.230 -0.2328  0.0509 -0.2247
43619W        W86536  31.389   8.691   8.326  0.2307 -0.0477 -0.2431
43620W        W86537  30.261  11.160   9.811  0.0270 -0.4831  0.0439
43621W        W86538  30.150   8.105   5.604  0.3042  0.0282 -0.0171
43622W        W86539  31.574   8.340   6.828  0.1154 -0.1515 -0.2076
43623W        W86540  30.950  11.517   9.101 -0.0108 -0.5016 -0.0805
43624W        W86541  29.891   9.828   9.399 -0.1493 -0.0523 -0.3379
43625W        W86542  33.101   8.274   8.224 -0.0956 -0.0218 -0.2441
43626W        W86543  32.162   7.673   7.910  0.1930  0.0643  0.1132
43627W        W86544  30.197   8.798   6.619 -0.1428  0.3193 -0.0806
43628W        W86545  30.251   6.889   9.469 -0.0886 -0.1559 -0.1204
43629W        W86546  33.756   8.645   9.705  0.1077 -0.0243 -0.3780
43630W        W86547  30.440   7.415   7.765  0.1132  0.0606  0.4551
43631W        W86548  32.086   7.052   8.993  0.0243  0.1032 -0.2874
43632W        W86549  32.462  11.998   9.107 -0.0799 -0.0050  0.1410
43633W        W86550  32.598   8.892   7.468  0.0768 -0.1744  0.0925
43634W        W86551  30.168  12.037   2.432 -0.2272 -0.0644 -0.2579
43635W        W86552  28.468  11.531  30.802 -0.0336  0.0803 -0.1541
43636W        W86553  33.159  12.179  31.263 -0.0183  0.0669 -0.2477
43637W        W86554  33.283  12.542   0.724  0.3176 -0.2775 -0.3734
43638W        W86555  29.879  13.589   0.336  0.3870 -0.1282 -0.0953
43639W        W86556  31.328  14.302   0.807  0.2100 -0.1771  0.0389
43640W        W86557  30.297  10.585   2.819 -0.0934 -0.2714  0.0245
43641W        W86558  32.057  16.013   2.650 -0.0645  0.1231  0.1773
43642W        W86559  33.562  15.493   0.467  0.1541 -0.1170 -0.2778
43643W        W86560  30.830  12.970  31.439  0.3223 -0.0116 -0.0009
43644W        W86561  29.755  11.843   2.762 -0.2425 -0.1782 -0.0953
43645W        W86562  31.764  15.665   2.476 -0.1300 -0.0838 -0.0757
43646W        W86563  29.627  13.114   2.111 -0.1581 -0.2516 -0.2661
43647W        W86564  29.421  10.512   2.503  0.1031 -0.1010  0.1185
43648W        W86565  29.698  12.331   2.610 -0.0622  0.1021  0.0716
43649W        W86566  28.130  14.010   0.147 -0.2791 -0.0428 -0.0159
43650W        W86567  30.525  13.051   2.030  0.0375  0.0817  0.1125
43651W        W86568  29.251  13.062   1.233 -0.0002  0.1615 -0.2417
43652W        W86569  32.666  15.560   0.881  0.1407 -0.2013  0.0051
43653W        W86570  30.928  10.629   2.772  0.0894  0.2560 -0.1439
43654W        W86571  33.697  12.422   1.953 -0.2745  0.0689  0.2173
43655W        W86572  30.929  15.547   1.674  0.0864  0.0386  0.2397
43656W        W86573  28.836  13.664  30.609  0.1575  0.1518 -0.0548
43657W        W86574  30.202  14.017   1.191 -0.1464 -0.2556  0.1423
43658W        W86575  30.078  13.179   1.740  0.3010  0.0477  0.1116
43659W        W86576  32.513  11.564   1.484  0.1007  0.1627  0.1780
43660W        W86577  31.708  15.931  31.210  0.2005 -0.2584  0.2674
43661W        W86578  30.128  15.801   2.068 -0.0545  0.0078  0.1368
43662W        W86579  33.355  13.540   0.687 -0.1395 -0.0656  0.0346
43663W        W86580  33.353  13.261   3.041 -0.0471 -0.1062  0.2625
43664W        W86581  28.014  14.610   1.428  0.2983 -0.0207  0.0692
43665W        W86582  28.637  16.300   1.535 -0.0372 -0.0369 -0.1936
43666W        W86583  29.977  17.049   1.340 -0.0912 -0.2248 -0.0784
43667W        W86584  32.193  12.320   1.901  0.1946 -0.0105  0.1837
43668W        W86585  31.508  13.967   2.365  0.0431  0.1071 -0.0587
43669W        W86586  30.268  15.037   3.345  0.1693  0.0475 -0.0611
43670W        W86587  30.908  13.639  30.533  0.0756 -0.1003 -0.3398
43671W        W86588  30.683  15.850   3.932  0.0826 -0.0710 -0.1113
43672W        W86589  28.924  15.425   2.486 -0.2423 -0.2580 -0.3069
43673W        W86590  29.797  13.771   0.880 -0.3444 -0.0044  0.2295
43674W        W86591  31.087  13.781   0.775  0.4217  0.1368 -0.0762
43675W        W86592  31.331  13.764   0.080  0.3836 -0.0669 -0.2355
43676W        W86593  28.970  11.854   3.780 -0.2989 -0.0917  0.1225
43677W        W86594  29.250  13.385   1.775  0.1334 -0.1463  0.0809
43678W        W86595  30.480  15.486   1.623  0.1508 -0.0659 -0.2028
43679W        W86596  32.312  12.424   3.529 -0.0391  0.0035 -0.2060
43680W        W86597  30.321  12.988  30.007 -0.0269 -0.1331  0.0698
43681W        W86598  32.871  10.305   0.258 -0.5470  0.2952  0.2660
43682W        W86599  30.259  12.787   0.242  0.1215  0.3006  0.0490
43683W        W86600  33.941  11.255  31.106  0.2006  0.4243 -0.0801
43684W        W86601  30.789  12.637   0.300 -0.0788 -0.0631  0.0491
43685W        W86602  30.651  16.911   0.776 -0.0589 -0.2650 -0.1839
43686W        W86603  31.737  11.804   0.921 -0.1386 -0.3045  0.1459
43687W        W86604  32.503  11.628   4.362  0.0979 -0.4461  0.0090
43688W        W86605  29.970  15.470   2.556 -0.2372  0.1837 -0.0121
43689W        W86606  29.651  11.102   2.010  0.0947  0.1438  0.0370
43690W        W86607  30.619  15.193   3.017  0.0558 -0.1495  0.1541
43691W        W86608  31.151  13.858   1.736  0.0388 -0.0258  0.1799
43692W        W86609  32.726  14.610   0.484 -0.0678 -0.1966 -0.0241
43693W        W86610  32.941  15.228   2.332  0.1693  0.1165 -0.0919
43694W        W86611  31.188  14.596   0.271 -0.0717 -0.2622  0.1944
43695W        W86612  29.348  13.912   1.635  0.1429  0.0765 -0.0907
43696W        W86613  28.913  14.417   2.995  0.0284 -0.4042  0.1921
43697W        W86614  28.963  13.555   1.395  0.0679 -0.0662  0.1191
43698W        W86615  30.420  10.726   0.108  0.0831  0.0117 -0.1623
43699W        W86616  33.368  13.287   4.034 -0.1685  0.0864 -0.0465
43700W        W86617  29.630  14.977   1.885  0.3370  0.3964 -0.0780
43701W        W86618  32.092  11.278   1.612  0.0674  0.1789  0.0216
43702W        W86619  32.087  15.568   2.855  0.4327 -0.0546 -0.1244
43703W        W86620  33.253  13.934   2.178  0.2519 -0.0623  0.3108
43704W        W86621  32.288  12.198   0.411  0.2535 -0.2627 -0.0501
43705W        W86622  32.413  12.832   1.885 -0.1847  0.0027  0.1876
43706W        W86623  32.483  12.251   2.304  0.2620  0.2015 -0.2013
43707W        W86624  31.242  12.386  29.527  0.1040  0.1048  0.0087
43708W        W86625  31.618  14.290   0.307 -0.2627 -0.3117  0.3559
43709W        W86626  32.438  15.556   3.295  0.0982 -0.4205  0.1206
43710W        W86627  32.875  11.039  30.919  0.2299 -0.0513  0.1765
43711W        W86628  29.153  15.542   1.981  0.3331 -0.2194  0.3534
43712W        W86629  27.754  11.934   3.151 -0.0940 -0.0325 -0.1447
43713W        W86630  30.865  15.601   2.981 -0.1767 -0.2897  0.3652
43714W        W86631  31.807  13.118  31.746 -0.0081  0.0657 -0.0610
43715W        W86632  27.762  14.962   0.919 -0.0069  0.0407  0.0960
43716W        W86633  29.746  13.672  31.141 -0.0794 -0.3342 -0.3715
43717W        W86634  29.540  11.695   1.211  0.3488 -0.1934 -0.0588
43718W        W86635  30.156  14.449   2.080  0.2707  0.0672  0.1859
43719W        W86636  32.340   9.983   0.610 -0.2313 -0.0136 -0.0710
43720W        W86637  29.501  13.686   3.179 -0.0101  0.1799 -0.0957
43721W        W86638  32.839  12.815   1.556  0.2374  0.3874 -0.3062
43722W        W86639  28.957  14.986   0.181 -0.2327 -0.2664 -0.0275
43723W        W86640  32.830  15.047   0.785  0.0809  0.0077 -0.2077
43724W        W86641  32.111  11.608   1.214 -0.1152  0.0690 -0.2078
43725W        W86642  31.780  12.894  31.190  0.0634  0.1107  0.2923
43726W        W86643  28.937  13.105   3.296  0.2541 -0.2131  0.0385
43727W        W86644  28.910  12.377   0.173 -0.2093  0.1687 -0.1563
43728W        W86645  28.022  10.468   2.257 -0.1413  0.2166 -0.3352
43729W        W86646  27.515  11.178   2.551  0.0615 -0.0297  0.0641
43730W        W86647  30.567  13.893   3.021 -0.0192 -0.0755 -0.2121
43731W        W86648  27.845  10.046  31.754  0.1901  0.0454  0.1616
43732W        W86649  32.623  12.564   0.462 -0.0533  0.0686  0.0205
43733W        W86650  29.423  12.545   1.422 -0.1837  0.1504  0.2730
43734W        W86651  29.479  15.031   1.424  0.4022  0.2408  0.0273
43735W        W86652  32.535  11.065   1.784 -0.1504  0.0317  0.2720
43736W        W86653  32.090  15.061   1.246  0.3097 -0.1953  0.2169
43737W        W86654  33.321  14.935   2.205  0.1258 -0.1309 -0.1701
43738W        W86655  34.001  15.211   1.908 -0.0457 -0.1129 -0.0719
43739W        W86656  29.495  12.608   1.911 -0.0100  0.0647  0.0285
43740W        W86657  28.529  11.690   0.793 -0.0622  0.0511 -0.0013
43741W        W86658  30.262  14.377   1.617 -0.0269  0.1271 -0.1416
43742W        W86659  30.662  12.584   2.203 -0.0910 -0.2464 -0.0162
43743W        W86660  31.086  12.916   1.387  0.0831 -0.2764 -0.2612
43744W        W86661  33.298  15.181   0.892  0.3506  0.2729 -0.1588
43745W        W86662  31.447  12.611   1.156 -0.1069 -0.0928 -0.0776
43746W        W86663  28.094  14.129   1.156  0.0666 -0.0273  0.3752
43747W        W86664  30.052  11.580   2.298 -0.0451  0.1198 -0.1771
43748W        W86665  31.897  12.725   1.910 -0.0683  0.1088 -0.1510
43749W        W86666  31.066  12.046  31.522  0.0303 -0.0317  0.1071
43750W        W86667  28.382  12.053  30.715 -0.1256 -0.1808  0.2319
43751W        W86668  34.522  14.154   0.359  0.2923  0.4784  0.0648
43752W        W86669  29.390  14.791  30.706  0.1700  0.1703 -0.0639
43753W        W86670  29.130  12.831   1.669 -0.1008  0.1674  0.3887
43754W        W86671  31.525  15.174   3.399  0.1680 -0.2081 -0.1159
43755W        W86672  33.789  13.983   2.023  0.0297  0.1344  0.0795
43756W        W86673  27.717  11.807   1.971 -0.3299 -0.2646 -0.2556
43757W        W86674  30.985  13.139   0.862  0.0679  0.0774  0.2517
43758W        W86675  29.450  13.318   0.217  0.3600  0.0022 -0.3263
43759W        W86676  29.645  15.813   1.908  0.5070 -0.0608  0.2218
43760W        W86677  33.236  12.284   2.054  0.3619 -0.0735 -0.1925
43761W        W86678  30.711  10.862   1.356 -0.2171 -0.1811  0.0840
43762W        W86679  31.648  15.850   1.050 -0.2126  0.1887 -0.2432
43763W        W86680  32.293  14.528   1.313  0.1095  0.1257 -0.1511
43764W        W86681  28.649  12.266  31.357 -0.0241  0.0228 -0.0850
43765W        W86682  29.975  12.874  30.788 -0.0057 -0.1356  0.2613
43766W        W86683  28.876  12.749   3.644  0.1855  0.3233 -0.0748
43767W        W86684  33.520  14.954   0.505  0.2136  0.2303 -0.4333
43768W        W86685  30.259  12.578   1.215  0.1298  0.2495  0.0801
43769W        W86686  31.371  12.121   1.250  0.0041  0.2248 -0.2878
43770W        W86687   0.233  14.155  31.352 -0.0730  0.3673 -0.1182
43771W        W86688  28.435  13.397   2.135 -0.0161  0.2076  0.0740
43772W        W86689  32.484  14.950   3.086 -0.1013 -0.1141 -0.1530
43773W        W86690  31.673  14.129   1.106  0.0371  0.0013  0.1590
43774W        W86691  31.241  11.569   1.638 -0.0234  0.0096 -0.1271
43775W        W86692  30.622  13.025  31.960 -0.0496  0.1715 -0.1155
43776W        W86693  30.859  13.444   0.420 -0.3847  0.0459  0.0767
43777W        W86694  28.627  15.316   0.476  0.1400  0.1389 -0.2376
43778W        W86695   1.087  11.397   2.062  0.3128 -0.2057 -0.1439
43779W        W86696  31.392   9.911   0.735  0.1132 -0.3230  0.1018
43780W        W86697  30.920  10.529   1.677 -0.0101  0.0791  0.0005
43781W        W86698  32.893  12.602   2.798 -0.1806  0.1052  0.1202
43782W        W86699  33.048  13.993   1.345  0.2611  0.2219  0.0337
43783W        W86700  30.698  13.958   1.066  0.2849 -0.0602  0.0831
43784W        W86701  31.370  12.376   0.090  0.0166 -0.0580 -0.1263
43785W        W86702  31.078  12.372   2.692 -0.1265  0.0392  0.1750
43786W        W86703  29.724  13.160   3.867 -0.1543 -0.2129  0.0280
43787W        W86704  29.970  16.120   3.348  0.0265  0.1521 -0.2499
43788W        W86705  32.196  13.376   3.963  0.2568  0.0804  0.1610
43789W        W86706  32.018  15.788  31.518 -0.0705 -0.1742 -0.2544
43790W        W86707  34.303  11.263   3.877 -0.1565 -0.0769  0.0654
43791W        W86708  32.736  12.148   0.171 -0.2326  0.3249 -0.2031
43792W        W86709  31.106  15.241   0.851  0.1086  0.0684 -0.1123
43793W        W86710  30.516  12.464  31.940  0.1228  0.0876  0.1517
43794W        W86711  31.687  11.798   1.484 -0.0145 -0.0240  0.1534
43795W        W86712  31.052  15.722   0.817  0.1184 -0.3261  0.0064
43796W        W86713  30.844  14.468   0.643  0.0549 -0.0835 -0.0642
43797W        W86714  31.987  13.960   3.480  0.1593  0.1801 -0.2562
43798W        W86715  28.569  14.069   1.651  0.1398 -0.0049 -0.0113
43799W        W86716  32.842  11.256   2.300  0.0482  0.0230  0.1299
43800W        W86717  29.466  15.980   2.751  0.1616 -0.3693 -0.0078
43801W        W86718  28.895  14.485   0.378 -0.2664  0.1274 -0.1989
43802W        W86719  30.575  14.043  31.422 -0.2463 -0.0383 -0.1669
43803W        W86720  34.063  13.785   1.523 -0.2430 -0.2405  0.1704
43804W        W86721  32.232  12.463   1.435 -0.1374  0.0591  0.0401
43805W        W86722  29.279  13.677   2.683 -0.1146 -0.0703 -0.0944
43806W        W86723  29.651  11.639   1.780 -0.3019 -0.1856 -0.0335
43807W        W86724  29.843  14.630   1.335 -0.0291 -0.2951  0.1917
43808W        W86725  32.056  12.850   1.089  0.0455  0.2470  0.0291
43809W        W86726  32.054  11.552  30.441 -0.1358 -0.0557 -0.1196
43810W        W86727  30.583  14.012   2.488 -0.1361  0.1204 -0.0345
43811W        W86728  31.222  16.448   3.309  0.2142  0.2420 -0.2679
43812W        W86729  29.246  12.157   2.126  0.0665  0.1870 -0.0227
43813W        W86730  32.186  12.925   2.382  0.0477 -0.0237 -0.1151
43814W        W86731  30.194  14.882   1.778  0.0893  0.2154  0.1835
43815W        W86732  30.075  14.703   0.845  0.1643 -0.1011 -0.1209
43816W        W86733  32.045  14.049   2.035 -0.2264 -0.2515  0.2551
43817W        W86734  30.906  13.296   1.803 -0.2608  0.0163  0.0652
43818W        W86735  30.874  14.185   2.143 -0.1381  0.2115 -0.1505
43819W        W86736  28.981  11.803   0.874  0.0358  0.1538  0.1148
43820W        W86737  30.268  12.137   4.101 -0.0954  0.1725  0.2092
43821W        W86738  31.334  13.405   0.529 -0.2894 -0.0931  0.2408
43822W        W86739  30.862  13.908  31.946 -0.2933  0.1033 -0.2507
43823W        W86740  30.620  13.477   0.909 -0.0686 -0.2678  0.1525
43824W        W86741  32.309  13.640   2.152 -0.2076  0.1682 -0.2364
43825W        W86742  30.506  12.144   3.190  0.1192  0.0022  0.0204
43826W        W86743  31.858  15.486   3.353 -0.3610 -0.1434 -0.2179
43827W        W86744  29.293  11.237   1.742  0.1085 -0.3477 -0.1747
43828W        W86745  33.688  15.852   2.310  0.0246 -0.0809 -0.1207
43829W        W86746  30.075  13.745   3.242 -0.1407  0.0127 -0.0325
43830W        W86747  30.370  14.825   0.408 -0.3536  0.0140 -0.3064
43831W        W86748  28.767  13.802   2.358  0.3909 -0.0436 -0.1996
43832W        W86749  29.585  15.451   2.912 -0.0745  0.0137 -0.0944
43833W        W86750  29.489  13.475   1.311  0.4089 -0.2116 -0.0613
43834W        W86751  30.218  16.182   2.490 -0.2632  0.1380  0.3502
43835W        W86752  30.369  13.915   0.000 -0.3661  0.1541 -0.3704
43836W        W86753  29.762  14.256   0.933 -0.0040  0.0403  0.0597
43837W        W86754  31.596  11.435  30.671 -0.0772 -0.0438 -0.1994
43838W        W86755  33.557  11.668   0.655 -0.1584  0.3858  0.1858
43839W        W86756  32.008  10.939   0.462 -0.0641 -0.0680  0.0087
43840W        W86757  32.768  12.432   3.249  0.2730 -0.1095  0.0221
43841W        W86758  32.310  12.068  31.739  0.0973 -0.0741 -0.0557
43842W        W86759  31.199  10.856   3.694 -0.1885  0.0964 -0.0829
43843W        W86760  30.611   9.219   0.896  0.3013 -0.1690  0.0348
43844W        W86761  33.005  15.133   3.015 -0.1658 -0.2793  0.2087
43845W        W86762  26.963  13.696   2.275  0.1401 -0.1652  0.0003
43846W        W86763  32.642  16.545   5.307 -0.2939  0.0067  0.2128
43847W        W86764  28.975  15.435   1.465 -0.1388  0.0532 -0.1094
43848W        W86765  29.742  14.160  31.460  0.1470  0.1509  0.0969
43849W        W86766  28.733  12.666  31.745  0.0063  0.0265 -0.1258
43850W        W86767  29.991  13.180   2.525 -0.0973  0.1814 -0.1878
43851W        W86768  29.759  13.509   4.761  0.0015 -0.0288  0.0496
43852W        W86769  32.318  13.217   0.744 -0.1647  0.2290  0.3931
43853W        W86770  33.090  13.172   2.099  0.2596  0.2255  0.0046
43854W        W86771  29.130  14.594   2.175  0.0372  0.2935  0.1807
43855W        W86772  32.411  12.506   0.911 -0.0068  0.3589 -0.2051
43856W        W86773  32.847  15.510  31.553 -0.3034 -0.1985 -0.0713
43857W        W86774  30.667  14.664   2.104 -0.1763  0.0528 -0.1800
43858W        W86775  31.100  11.251   1.120 -0.1937 -0.1386  0.1228
43859W        W86776  31.444  13.245   0.080 -0.6295  0.0687 -0.1972
43860W        W86777  30.249  11.267   3.098  0.0280 -0.1691  0.1089
43861W        W86778  28.797  11.280   2.657  0.1693 -0.1740 -0.1440
43862W        W86779  31.727  14.349   2.616 -0.1082 -0.2214  0.2007
43863W        W86780  30.228  13.474   2.102 -0.1973  0.1420 -0.0430
43864W        W86781  30.401  10.661   1.921  0.1142  0.1110 -0.1540
43865W        W86782  31.573  16.596   2.461  0.1591 -0.0232  0.1326
43866W        W86783  33.457  11.904  30.573 -0.0530 -0.1509  0.0523
43867W        W86784  32.968  12.176   4.194  0.1719  0.0313  0.1675
43868W        W86785  32.088  13.236   2.023  0.0572  0.1620 -0.0105
43869W        W86786  30.289  12.425   1.921  0.0542  0.1590  0.2739
43870W        W86787  29.052  12.910   2.190  0.0272  0.0738  0.0259
43871W        W86788  29.701  15.094   3.256 -0.1637 -0.1674  0.1242
43872W        W86789  28.157  11.207   0.938  0.1793  0.1577 -0.2100
43873W        W86790  33.832  11.083   3.638 -0.1092  0.1434  0.2173
43874W        W86791  32.947  15.858   0.167 -0.2523 -0.0988  0.2124
43875W        W86792  31.740  12.830   0.161 -0.3345  0.0433  0.0794
43876W        W86793  29.908  13.703  30.667  0.0070  0.2402 -0.0967
43877W        W86794  28.376  13.399  31.518 -0.1204 -0.0544  0.2060
43878W        W86795  28.405  13.401   4.634  0.1363 -0.1986 -0.1130
43879W        W86796  29.117  11.593  31.358 -0.0642  0.0893 -0.0864
43880W        W86797  29.228  13.985  31.410 -0.0384  0.0901  0.3349
43881W        W86798  30.889  14.257   2.850  0.2156  0.0797  0.3811
43882W        W86799  31.463  13.670   3.872 -0.1415  0.3073  0.1672
43883W        W86800  29.617  11.016   0.549 -0.0831  0.0247  0.0934
43884W        W86801  33.494  10.345   3.690  0.3711  0.1687  0.1183
43885W        W86802  30.263  15.496   1.136  0.3240  0.0799 -0.2001
43886W        W86803  29.586   9.986   1.472  0.0545 -0.0243 -0.2703
43887W        W86804  29.844  15.730   1.012 -0.3896 -0.1750 -0.1571
43888W        W86805  29.129  14.959   1.813  0.1706 -0.1130  0.1326
43889W        W86806  30.893  14.984   0.480 -0.3764 -0.3913 -0.0506
43890W        W86807  31.777  11.632   3.414  0.2279 -0.2135  0.2540
43891W        W86808  30.403  11.248   2.122 -0.1062 -0.0880 -0.0903
43892W        W86809  29.916  15.314   1.688  0.0029  0.1977  0.0715
43893W        W86810  32.738  12.004   4.608 -0.2511  0.0963 -0.1360
43894W        W86811  31.286  14.287   3.205  0.0156  0.2721 -0.0684
43895W        W86812  29.600  13.062   1.619 -0.0436  0.3895  0.0460
43896W        W86813  30.294  14.805   4.570  0.0651  0.1694 -0.1745
43897W        W86814  31.948  13.423   0.258  0.2624 -0.1669  0.4635
43898W        W86815  29.390  15.658   2.381 -0.0595  0.2705 -0.2460
43899W        W86816  31.237   9.314   2.829  0.1600  0.0585  0.1929
43900W        W86817  30.011  14.561   2.670  0.2004  0.1451 -0.0882
43901W        W86818  32.135  14.884   1.738 -0.3090  0.3374  0.1730
43902W        W86819  30.554  11.629   1.168 -0.2472 -0.0443  0.1712
43903W        W86820  30.719  13.761   1.549 -0.0117 -0.3555 -0.0910
43904W        W86821  30.212  14.973   2.815 -0.3469  0.1165  0.1413
43905W        W86822  29.273  13.383   0.873 -0.2110 -0.0509 -0.1254
43906W        W86823  28.302  15.443  31.509 -0.2780 -0.2949 -0.2717
43907W        W86824  32.438  15.246   1.559  0.0597 -0.6075  0.1757
43908W        W86825  30.433  13.987   1.985  0.2903  0.0838  0.2459
43909W        W86826  30.701  14.949   1.519  0.1943 -0.2204 -0.2024
43910W        W86827  31.004  13.424   1.288  0.0862  0.0233 -0.0260
43911W        W86828  28.290  13.752  30.571 -0.1472 -0.0356  0.0851
43912W        W86829  28.237  15.100   1.749 -0.1359 -0.0310  0.0090
43913W        W86830  33.019  15.527   0.555 -0.0827 -0.0639  0.2803
43914W        W86831  30.056  15.187   0.685  0.0054  0.0180  0.1700
43915W        W86832  32.414  14.258   2.371  0.1005 -0.2903  0.0617
43916W        W86833  32.151   9.068  31.009 -0.1612 -0.1474  0.0756
43917W        W86834  30.718  13.615   2.213  0.3489 -0.0478 -0.1605
43918W        W86835  31.631  13.554   2.666 -0.0171  0.3885  0.4194
43919W        W86836  31.751  14.701   3.447 -0.1158  0.0899 -0.0765
43920W        W86837  30.133  11.907   1.908 -0.4573  0.1177  0.0310
43921W        W86838  29.785  12.359   1.108 -0.1384  0.1630  0.1224
43922W        W86839  31.129  15.236   2.865 -0.3431  0.1617 -0.0478
43923W        W86840  33.715  12.472   3.738 -0.0990  0.1775  0.2374
43924W        W86841  30.814  14.833   3.792  0.1187 -0.0675 -0.0733
43925W        W86842  34.566  14.522  31.632  0.1337 -0.3503 -0.3032
43926W        W86843  30.495  12.189   0.391 -0.3544  0.1732 -0.0201
43927W        W86844  31.910  15.943   2.139  0.1613  0.0527 -0.0878
43928W        W86845  30.986  12.000   2.351 -0.0035 -0.1776  0.2701
43929W        W86846  30.469  12.124  31.549 -0.1857  0.0283 -0.4537
43930W        W86847  30.986  13.793   2.674 -0.1638 -0.2114 -0.1812
43931W        W86848  31.460  15.195   0.170  0.1163 -0.1337  0.0681
43932W        W86849  30.523  12.344   2.749  0.0517  0.2600 -0.0583
43933W        W86850  31.993  15.060   0.048 -0.0113  0.1875 -0.1637
43934W        W86851  28.757  13.445  31.071 -0.3858 -0.2552  0.2076
43935W        W86852  33.286  14.530   0.249  0.2181  0.1166  0.1951
43936W        W86853  29.378  13.201   2.511 -0.0106 -0.1964  0.0306
43937W        W86854  32.910  11.944   3.013  0.0662 -0.0023 -0.1099
43938W        W86855  28.773  14.352  31.807 -0.2533 -0.3424  0.2104
43939W        W86856  31.956  13.653   0.755  0.1703  0.4598 -0.1025
43940W        W86857  31.005  12.251   3.638  0.0921 -0.1065  0.0356
43941W        W86858  28.830  12.423   2.199 -0.0135  0.1233 -0.0280
43942W        W86859  31.324  12.117   1.755  0.0429  0.0819 -0.1451
43943W        W86860  30.944  12.870   2.822 -0.1688 -0.1353 -0.1034
43944W        W86861  31.314  12.910   0.431 -0.2103 -0.1921  0.0314
43945W        W86862  32.573  13.241   2.256 -0.2231 -0.2270 -0.0686
43946W        W86863  28.681  11.215   0.984  0.2746 -0.1930  0.0283
43947W        W86864  31.985  12.306   0.021  0.1432 -0.2297 -0.1337
43948W        W86865  30.966  14.734   1.057 -0.0577  0.1455  0.1451
43949W        W86866  31.728  12.988   1.499 -0.0361 -0.2804 -0.0317
43950W        W86867  30.431  13.771   4.200 -0.3103 -0.1343 -0.0188
43951W        W86868  30.077  10.688  31.703  0.0073 -0.1857  0.0022
43952W        W86869  34.113  14.130   1.015 -0.0911  0.3137  0.3253
43953W        W86870  32.270  13.097   1.468 -0.1941 -0.0770 -0.2489
43954W        W86871  31.372  14.799   0.694  0.0918  0.3362 -0.3688
43955W        W86872  32.814  11.570   0.216 -0.0496 -0.0278  0.0360
43956W        W86873  33.802  13.670   2.456 -0.0668 -0.0532  0.0979
43957W        W86874  29.848  12.323   2.133  0.0016 -0.2409 -0.0322
43958W        W86875  32.189  15.744   1.723 -0.0904 -0.0304  0.2202
43959W        W86876   1.827  12.553   1.310 -0.0435  0.1430 -0.1957
43960W        W86877  32.259  12.035   0.947 -0.2542 -0.3961  0.0723
43961W        W86878  30.047  12.838   3.006  0.0490 -0.1152  0.0931
43962W        W86879  28.173  15.137   0.541 -0.0612 -0.1101  0.1082
43963W        W86880  33.795  11.518   3.375 -0.2466 -0.1374 -0.1621
43964W        W86881  32.805   9.969   2.125 -0.0213  0.2080  0.0007
43965W        W86882  31.004  15.460   0.372  0.0936  0.2525  0.4830
43966W        W86883  34.248  10.764   2.294  0.0551  0.1008  0.2299
43967W        W86884  30.483  13.304   1.418 -0.1981  0.1390 -0.2149
43968W        W86885  28.223  15.534   3.894 -0.0701  0.0660  0.1647
43969W        W86886  29.336  14.351  31.101 -0.0423 -0.0313  0.0998
43970W        W86887  29.789  13.651   2.297  0.2924 -0.0781 -0.0712
43971W        W86888  32.122  14.001   1.282 -0.1080 -0.2071  0.2308
43972W        W86889  31.141  16.464   0.554 -0.0317 -0.3553  0.0165
43973W        W86890  33.425  15.424   3.084 -0.0540  0.0452  0.1727
43974W        W86891  33.196  12.059   0.607 -0.3259 -0.0144 -0.1426
43975W        W86892  32.381  14.382   1.865 -0.3520 -0.1092  0.0583
43976W        W86893  28.612  12.700   3.219 -0.0770 -0.2298 -0.3090
43977W        W86894  31.156  12.888  31.906  0.1855 -0.3480 -0.0195
43978W        W86895  32.113  10.389   0.737 -0.1978  0.2193 -0.2799
43979W        W86896  30.208  13.745   1.610  0.0859  0.0565 -0.1074
43980W        W86897  29.620  12.163   1.679  0.1118  0.0169 -0.0305
43981W        W86898  29.688  12.975  31.814 -0.1478 -0.1161 -0.0652
43982W        W86899  27.146  14.098   1.573  0.0989 -0.0219 -0.0856
43983W        W86900  28.491  10.712   2.048 -0.1128 -0.1624  0.3506
43984W        W86901  29.069  11.551   3.381  0.1079  0.1630 -0.3252
43985W        W86902  30.706  12.176   1.813 -0.1948  0.0676 -0.1477
43986W        W86903  28.991  12.382   3.074 -0.0058 -0.0789  0.0202
43987W        W86904   0.073  13.685  31.232 -0.0662  0.2864 -0.3484
43988W        W86905  27.440   9.998   0.538  0.1353 -0.1916  0.0104
43989W        W86906  28.159  13.535   1.109  0.1654 -0.0643 -0.2405
43990W        W86907  32.769  14.731   2.239  0.0954 -0.3146  0.0357
43991W        W86908  31.521  16.152   0.590  0.1029 -0.2481  0.3187
43992W        W86909  32.443  11.755   0.612  0.2730  0.0261 -0.2151
43993W        W86910  32.332  14.009   2.816  0.1005 -0.0358 -0.1197
43994W        W86911  28.486  12.528   0.644 -0.1464 -0.1487  0.0792
43995W        W86912  30.779  11.813   4.272 -0.0520 -0.2495  0.0560
43996W        W86913  28.665  12.604   2.666  0.1629 -0.0239 -0.2530
43997W        W86914  29.679  11.946  30.578 -0.1112 -0.2396 -0.0720
43998W        W86915  32.589  13.795   1.733 -0.0478 -0.2005  0.3953
43999W        W86916  31.852  14.662   1.004  0.0758  0.3508 -0.2211
44000W        W86917  31.277  15.644  31.923 -0.2107  0.0268 -0.0191
44001W        W86918  30.228  14.386   0.224  0.2311 -0.2058  0.3140
44002W        W86919  30.519  16.748   3.474  0.3307  0.2587  0.0999
44003W        W86920  29.879  10.251   3.150 -0.0078 -0.2520 -0.0369
44004W        W86921  31.753  12.298   1.530  0.0239  0.1774  0.2232
44005W        W86922  31.136  15.100   1.420 -0.0401  0.1856  0.1013
44006W        W86923  32.721  12.777   2.290  0.0362  0.0060 -0.2037
44007W        W86924  32.151  11.924   1.607  0.0202 -0.0703  0.0399
44008W        W86925  33.616  13.554   0.129  0.1162  0.1549 -0.0457
44009W        W86926  30.959  10.074   3.479 -0.1342  0.0744  0.1195
44010W        W86927  28.548  13.897   1.075 -0.1578 -0.1674 -0.1982
44011W        W86928  34.205  14.761   2.324 -0.0320 -0.3429  0.0561
44012W        W86929  29.098  11.819   1.424  0.0993 -0.2273 -0.0441
44013W        W86930  30.459  10.444   1.456 -0.1465 -0.0550 -0.1455
44014W        W86931  31.491  13.155   1.133 -0.3040  0.0516 -0.1136
44015W        W86932  29.493  12.290   0.649 -0.1445 -0.0554  0.0410
44016W        W86933  28.919  14.168   1.273  0.0088 -0.0491  0.0254
44017W        W86934  31.710  14.941   2.081 -0.1197 -0.0149 -0.0580
44018W        W86935  32.242  15.736   0.748 -0.1037  0.2040  0.0419
44019W        W86936  30.793  13.089   3.278 -0.0661  0.0017  0.0437
44020W        W86937  30.433  14.528   1.189 -0.1905 -0.0944 -0.0653
44021W        W86938  32.161  12.156  31.283 -0.0087 -0.1794 -0.1847
44022W        W86939  30.779  15.385   1.148  0.0211 -0.0396 -0.2840
44023W        W86940  32.198  16.056   4.176  0.1306  0.1852  0.1385
44024W        W86941  32.514  16.133   1.662 -0.2769  0.1339  0.0467
44025W        W86942  31.680  12.722   0.713 -0.1957 -0.1783 -0.0047
44026W        W86943  28.096  12.393   3.373  0.0935 -0.2505 -0.3018
44027W        W86944  31.539  13.908   0.602  0.1761  0.1788  0.1238
44028W        W86945  30.607  15.066   2.458  0.0875  0.2248 -0.0309
44029W        W86946  32.940  10.760   3.160 -0.0227 -0.1327  0.3491
44030W        W86947  30.124  12.102  31.940 -0.1359  0.1472 -0.2196
44031W        W86948  32.055  14.213   0.709  0.1335  0.0439 -0.2422
44032W        W86949  31.852  16.096   3.806  0.1337  0.3705  0.0716
44033W        W86950  29.433  14.358   1.909  0.0384  0.1192 -0.0155
44034W        W86951  30.773  12.790   6.260 -0.1878 -0.0916  0.3395
44035W        W86952  29.922  11.348   4.043 -0.0844 -0.0671 -0.3306
44036W        W86953  31.858  12.296   1.042 -0.0814 -0.2394  0.2716
44037W        W86954  32.297  13.696   4.953 -0.1071  0.1594 -0.0505
44038W        W86955  27.327  13.277   3.190  0.0739 -0.0591 -0.1453
44039W        W86956  32.258  14.832   3.953  0.1980 -0.1394 -0.0580
44040W        W86957  31.733  11.473   5.542  0.1699 -0.1175 -0.0122
44041W        W86958  31.647  13.209   5.471  0.0714  0.0630  0.0978
44042W        W86959  33.688  15.216   4.848 -0.1944 -0.0543 -0.2577
44043W        W86960  32.336  13.807   3.749 -0.0373  0.1286  0.1886
44044W        W86961  32.267  12.077   5.956  0.2881 -0.4045  0.3496
44045W        W86962  29.722  13.270   6.881 -0.1039 -0.1552 -0.1150
44046W        W86963  32.754  11.536   3.739 -0.1643 -0.1881 -0.1631
44047W        W86964  29.651  10.707   4.981 -0.1674 -0.0974 -0.1963
44048W        W86965  31.542  12.151   2.542 -0.2433  0.0370  0.1000
44049W        W86966  28.532  12.352   6.250 -0.2498  0.0537 -0.1542
44050W        W86967  30.183  13.739   5.163 -0.2644  0.0105  0.0233
44051W        W86968  29.524  12.477   3.084 -0.1590 -0.1678 -0.0055
44052W        W86969  29.511  13.096   5.121 -0.0261 -0.1293 -0.2632
44053W        W86970  29.279  11.592   6.206  0.0162 -0.1504  0.1656
44054W        W86971  30.961  11.287   6.340  0.4632 -0.0967 -0.0296
44055W        W86972  30.308  14.873   3.913 -0.2418  0.1854 -0.0691
44056W        W86973  29.930  12.784   3.510  0.2309 -0.1248 -0.1186
44057W        W86974  29.484  13.884   4.301 -0.1156 -0.1462 -0.0940
44058W        W86975  29.815  13.261   3.330  0.2013  0.2946 -0.3716
44059W        W86976  31.986  12.884   4.152  0.2214 -0.0577 -0.1867
44060W        W86977  32.000  10.877   4.750  0.3359 -0.0696 -0.0561
44061W        W86978  31.457  13.887   4.512 -0.1482 -0.1599 -0.1309
44062W        W86979  30.406  14.247   4.870 -0.0113 -0.1905 -0.0398
44063W        W86980  32.690  11.777   5.477 -0.2165 -0.2834 -0.0078
44064W        W86981  28.957  14.531   5.434  0.1913  0.1277 -0.1922
44065W        W86982  27.850  14.061   5.102  0.2070  0.2843  0.2029
44066W        W86983  30.198  14.429   4.023 -0.3954 -0.0424  0.0595
44067W        W86984  31.839  13.428   3.586 -0.3939  0.1361 -0.0132
44068W        W86985  32.216  12.505   6.618  0.0214  0.0134 -0.0962
44069W        W86986  30.323  14.011   7.022 -0.0677  0.1498 -0.0426
44070W        W86987  29.943  14.223   5.050 -0.1563  0.2824  0.0258
44071W        W86988  30.802  13.198   4.795 -0.4589 -0.0163  0.0924
44072W        W86989  29.747  13.690   6.591 -0.0555  0.0724  0.1225
44073W        W86990  30.855  12.167   5.559 -0.2382  0.3268  0.0913
44074W        W86991  30.206  12.025   4.663 -0.3062 -0.0644 -0.2575
44075W        W86992  30.690  13.375   2.841 -0.0594  0.1065 -0.2460
44076W        W86993  29.400  14.563   5.757  0.0767  0.3705 -0.2009
44077W        W86994  30.517  13.797   5.515 -0.1541  0.2741 -0.1321
44078W        W86995  29.351  13.361   6.510 -0.0477 -0.3887  0.0825
44079W        W86996  31.988  10.020   6.034  0.1254  0.1477 -0.1634
44080W        W86997  29.513  14.570   3.461  0.2824 -0.0685  0.2363
44081W        W86998  32.370  11.648   2.844 -0.0751 -0.0500 -0.1093
44082W        W86999  29.219  11.873   2.510  0.0788 -0.0214 -0.1186
44083W        W87000  31.683  12.024   4.146  0.1424 -0.1551 -0.1314
44084W        W87001  31.228  10.272   4.514 -0.1651  0.0137 -0.0025
44085W        W87002  29.997  14.872   4.997  0.0841  0.0819 -0.1363
44086W        W87003  31.403   9.897   4.878  0.2920 -0.3330  0.1492
44087W        W87004  33.280  15.128   5.802 -0.2549  0.1095  0.2235
44088W        W87005  31.529   9.918   4.352 -0.2399  0.3265 -0.2297
44089W        W87006  32.102  11.567   5.898  0.0104 -0.3080  0.2819
44090W        W87007  30.079  12.515   5.064  0.1961 -0.2870  0.2284
44091W        W87008  30.744  13.634   6.324 -0.2633  0.0369 -0.0115
44092W        W87009  34.130  13.334   3.436 -0.1069 -0.0027 -0.2966
44093W        W87010  31.877  13.999   4.000  0.0637  0.0241  0.2212
44094W        W87011  29.527  16.233   3.633  0.0290  0.1408 -0.1718
44095W        W87012  29.112  12.461   4.030 -0.1462 -0.1254  0.2783
44096W        W87013  28.900  12.037   6.170  0.0163 -0.1524 -0.1101
44097W        W87014  29.665  13.979   5.451  0.1780  0.0184  0.3470
44098W        W87015  29.685  11.589   3.275 -0.0599  0.1713  0.0373
44099W        W87016  32.518  12.331   6.272  0.0386 -0.0982 -0.1061
44100W        W87017  31.261  12.778   7.078 -0.2439 -0.4842 -0.1093
44101W        W87018  32.257  11.763   3.314 -0.1854  0.0657  0.0017
44102W        W87019  29.518  13.073   5.601 -0.1355 -0.0278  0.0939
44103W        W87020  30.806  14.419   5.883  0.0420 -0.0442 -0.1495
44104W        W87021  33.138  14.112   4.417 -0.0488  0.2304  0.1525
44105W        W87022  29.818  12.166   5.613 -0.1825 -0.1434 -0.2117
44106W        W87023  33.595  11.183   5.459 -0.0515  0.0329 -0.1506
44107W        W87024  30.574  14.674   3.065  0.2345  0.0548 -0.1073
44108W        W87025  28.690  12.253   3.443  0.2240 -0.1136 -0.0564
44109W        W87026  30.675  14.797   5.558  0.1301  0.0216 -0.1616
44110W        W87027  29.189  12.952   4.037  0.0873  0.2195 -0.3645
44111W        W87028  30.751  14.205   6.830  0.4091 -0.2434 -0.1372
44112W        W87029  30.623  10.471   6.095  0.2608  0.1859 -0.2061
44113W        W87030  31.959  15.929   6.746 -0.0436  0.0828  0.1879
44114W        W87031  30.603  15.473   3.482 -0.0275 -0.2854  0.0874
44115W        W87032  29.843  15.651   4.962 -0.2377  0.4533 -0.1185
44116W        W87033  29.761  13.464   5.414  0.0866  0.3343 -0.1506
44117W        W87034  29.332  11.940   6.612  0.0151  0.4003  0.0776
44118W        W87035  30.082  13.591   7.352 -0.0604 -0.3432 -0.1394
44119W        W87036  32.172  11.298   4.605  0.1952 -0.0611 -0.2040
44120W        W87037  29.489  10.915   6.446 -0.0001 -0.2766 -0.1217
44121W        W87038  32.571  10.973   4.864  0.0244  0.1388 -0.0766
44122W        W87039  28.738  14.964   3.827  0.0853  0.1316  0.1681
44123W        W87040  31.538  14.772   4.358 -0.3479  0.2100  0.0649
44124W        W87041  32.706  12.094   5.098  0.1173 -0.3233  0.0966
44125W        W87042  31.403  16.582   7.527  0.2534  0.0511 -0.2322
44126W        W87043  29.829  13.150   6.400  0.1829 -0.2626 -0.4677
44127W        W87044  31.597  12.525   4.220  0.0828  0.2389 -0.1499
44128W        W87045  30.150  10.847   4.497 -0.1183  0.1100 -0.0050
44129W        W87046  29.303  11.489   5.684 -0.0150 -0.0143 -0.1281
44130W        W87047  31.421  13.140   4.857 -0.0715  0.2362  0.2972
44131W        W87048  29.898   9.705   2.321 -0.2260  0.1979 -0.0381
44132W        W87049  31.998  10.359   3.533  0.1438  0.1183 -0.1478
44133W        W87050  31.760  11.858   2.967  0.0800 -0.0019  0.2799
44134W        W87051  28.348  13.581   1.610  0.1707 -0.2606 -0.0292
44135W        W87052  30.650  12.352   5.130 -0.1418  0.0766 -0.0375
44136W        W87053  29.908  15.252   6.784 -0.1170  0.0732 -0.3470
44137W        W87054  33.574  13.685   6.100  0.0952  0.0428  0.4629
44138W        W87055  31.196  13.603   2.163 -0.0638 -0.1606  0.2913
44139W        W87056  29.345  11.960   4.617 -0.0011  0.2825 -0.3282
44140W        W87057  28.786  11.271   4.107 -0.2641  0.0870  0.2830
44141W        W87058  30.191  15.941   5.291 -0.0807  0.1974 -0.1712
44142W        W87059  30.505  14.801   5.101  0.0548  0.0228 -0.0319
44143W        W87060  29.311  11.933   2.999 -0.3447  0.1419  0.2502
44144W        W87061  33.260  13.751   5.706  0.0612 -0.1539 -0.4223
44145W        W87062  30.372  13.021   3.532  0.1684  0.0554 -0.0457
44146W        W87063  30.377  13.953   6.540  0.0628  0.1572 -0.1465
44147W        W87064  32.491  11.056   6.181  0.2381  0.0466  0.3049
44148W        W87065  30.988  12.632   5.457 -0.6363 -0.0083  0.0964
44149W        W87066  30.182  11.230   3.603  0.2064  0.0884  0.1928
44150W        W87067  29.051  12.836   2.918  0.0098 -0.0280 -0.0176
44151W        W87068  31.026  14.650   6.469 -0.1294 -0.1545 -0.0666
44152W        W87069  28.628  15.299   4.251  0.1372  0.3312  0.0887
44153W        W87070  29.202  14.789   2.623  0.1736 -0.2940 -0.3720
44154W        W87071  29.910  13.277   5.862  0.1935 -0.0547 -0.0565
44155W        W87072  30.972  11.910   3.262 -0.2616  0.0736 -0.0121
44156W        W87073  27.788  12.326   7.320  0.1036  0.0400  0.1660
44157W        W87074  30.712  13.230   6.091 -0.2265 -0.1023 -0.0246
44158W        W87075  29.074  13.704   3.582 -0.2403 -0.1210 -0.1180
44159W        W87076  31.013  14.124   6.203  0.1589  0.2296  0.2155
44160W        W87077  32.511  11.173   3.031  0.2704 -0.0288 -0.2047
44161W        W87078  32.313  12.118   5.427 -0.0500 -0.0606  0.0618
44162W        W87079  32.158  11.029   5.728  0.1149 -0.1575 -0.1002
44163W        W87080  30.539  14.552   2.573 -0.1194  0.1252 -0.0616
44164W        W87081  30.552  11.719   1.732  0.3173  0.0108 -0.0250
44165W        W87082  32.978  11.193   3.448 -0.3801  0.1356  0.0499
44166W        W87083  31.096  11.506   5.422 -0.0732 -0.0018  0.1455
44167W        W87084  30.583  11.998   3.761  0.0491 -0.3622 -0.2510
44168W        W87085  30.922  13.682   5.199 -0.1418  0.2844 -0.0767
44169W        W87086  32.496  11.152   3.531 -0.0278  0.1678  0.3034
44170W        W87087  31.159  14.437   2.432 -0.3559  0.2162 -0.2427
44171W        W87088  29.904  10.944   5.651  0.2446 -0.2292 -0.0884
44172W        W87089  32.508  15.052   5.268 -0.1026 -0.0470 -0.0515
44173W        W87090  29.605  14.660   4.777  0.0399 -0.0156 -0.2318
44174W        W87091  30.857  10.421   3.782 -0.0859 -0.0060  0.0931
44175W        W87092  29.780  14.063   3.013  0.2707 -0.2015 -0.1603
44176W        W87093  32.492   8.510   3.012 -0.0327  0.2945 -0.0448
44177W        W87094  30.064  14.071   2.504  0.3561 -0.0387  0.1597
44178W        W87095  32.070  10.442   5.810  0.1618 -0.0837  0.4227
44179W        W87096  32.281  11.509   5.448 -0.0603  0.5216 -0.0866
44180W        W87097  31.722  10.343   5.104  0.3047  0.1857 -0.0129
44181W        W87098  31.770  14.369   7.488  0.1042 -0.2148 -0.4599
44182W        W87099  29.753  12.067   3.299 -0.1608 -0.0811  0.0105
44183W        W87100  31.643  10.838   7.148 -0.1096  0.1307 -0.2058
44184W        W87101  29.523  13.162   2.949 -0.1950  0.0004  0.0027
44185W        W87102  30.477  11.847   5.755  0.1587  0.1352  0.1742
44186W        W87103  30.163  13.212   4.884 -0.0745 -0.0325 -0.4558
44187W        W87104  29.880  14.244   6.623 -0.1924 -0.1888  0.3678
44188W        W87105  31.356  13.608   4.998 -0.1609 -0.0240 -0.1445
44189W        W87106  30.050  12.328   2.999 -0.1505  0.1697  0.0060
44190W        W87107  31.298  10.510   7.878  0.0295 -0.1010 -0.1378
44191W        W87108  30.970  11.822   6.030  0.2472  0.4143 -0.0196
44192W        W87109  30.918  14.778   2.778  0.2532  0.0593 -0.0542
44193W        W87110  31.101  14.930   2.333 -0.3526  0.3719  0.0394
44194W        W87111  31.907  11.072   4.272 -0.0629 -0.3777 -0.1772
44195W        W87112  30.283  14.286   5.460  0.1681 -0.2145  0.0468
44196W        W87113  31.020  15.488   3.782 -0.2381  0.3530 -0.1657
44197W        W87114  31.025   9.808   4.545 -0.1546 -0.1116  0.0283
44198W        W87115  28.916  13.760   5.371  0.1879  0.1440 -0.2037
44199W        W87116  33.886   8.431   4.198  0.0171 -0.0611  0.0742
44200W        W87117  28.383  13.924   5.245  0.0104  0.1369  0.0547
44201W        W87118  30.994  12.546   3.212 -0.1928 -0.0537 -0.1524
44202W        W87119  29.018  13.568   3.107  0.0409  0.2228  0.0727
44203W        W87120  30.088  10.888   3.942 -0.3957  0.0724  0.0977
44204W        W87121  30.127  13.528   3.740 -0.0899  0.1526  0.2768
44205W        W87122  29.764  12.296   4.692 -0.0299  0.0282  0.2661
44206W        W87123  32.052   9.363   6.063  0.1149 -0.1359  0.2232
44207W        W87124  29.670  13.523   7.971 -0.1173  0.0874 -0.2401
44208W        W87125  31.182  13.230   3.971 -0.1725 -0.0632 -0.1434
44209W        W87126  33.149  11.701   2.238 -0.0496 -0.2307 -0.1365
44210W        W87127  31.811  14.233   3.130 -0.1089 -0.0116 -0.1473
44211W        W87128  30.579  14.394   6.348  0.3089 -0.1738  0.1679
44212W        W87129  28.489  12.225   2.948  0.1948 -0.0377  0.0038
44213W        W87130  32.693  10.247   4.999 -0.2274 -0.3534  0.1883
44214W        W87131  31.984  11.912   3.759  0.0638 -0.1101 -0.2161
44215W        W87132  30.736  15.187   4.580 -0.1210  0.3325 -0.2261
44216W        W87133  31.798  14.260   4.483 -0.1334 -0.0150  0.1403
44217W        W87134  28.711  14.216   4.124  0.0097 -0.0230  0.4037
44218W        W87135  28.944  15.396   5.890 -0.2031 -0.0427  0.5017
44219W        W87136  30.237  11.427   4.494 -0.0445  0.2367  0.0556
44220W        W87137  31.151  12.709   3.930  0.0646  0.0504 -0.1462
44221W        W87138  29.689  13.653   3.674 -0.1041 -0.0649 -0.3091
44222W        W87139  28.847  11.712   2.973  0.3794 -0.2135  0.0916
44223W        W87140  30.666  14.191   4.463 -0.0042  0.1531  0.2293
44224W        W87141  31.739  12.277   5.095  0.3508  0.1894 -0.2644
44225W        W87142  31.726  11.641   6.621  0.0768 -0.2349 -0.1156
44226W        W87143  30.144  12.681   7.814  0.4827  0.1171  0.1222
44227W        W87144  33.407  10.246   4.422  0.2882 -0.2474  0.0148
44228W        W87145  34.493  14.872   3.002 -0.0221  0.0988  0.2385
44229W        W87146  33.595  13.714   4.286 -0.0476  0.0766  0.3143
44230W        W87147  30.472  12.777   4.149 -0.1252  0.0950 -0.3778
44231W        W87148  28.513  13.853   4.402 -0.0217  0.1490 -0.0091
44232W        W87149  29.645  14.426   3.931 -0.0070 -0.2210  0.0902
44233W        W87150  30.268  11.480   5.511 -0.1313 -0.3539  0.3140
44234W        W87151  28.843  13.353   8.214 -0.0369  0.0401  0.0419
44235W        W87152  29.629  15.218   3.726 -0.2585  0.3450  0.3361
44236W        W87153  30.510  15.761   5.666  0.1141 -0.0243 -0.2985
44237W        W87154  32.780  10.305   4.445 -0.1319  0.0180 -0.1717
44238W        W87155  30.321  13.593   2.634  0.2986  0.1688  0.0212
44239W        W87156  33.331  10.446   4.871  0.0182 -0.1120  0.0651
44240W        W87157  31.713  11.288   6.046 -0.2019 -0.0250 -0.0103
44241W        W87158  29.539  12.586   3.833  0.2442 -0.0866  0.0783
44242W        W87159  32.497  10.123   5.629 -0.2964  0.1387 -0.0705
44243W        W87160  31.105  11.045   4.416 -0.2157 -0.2735  0.1458
44244W        W87161  32.153  14.371   3.753 -0.0821  0.2842 -0.1256
44245W        W87162  30.746  11.337   4.616 -0.2671  0.0531 -0.3886
44246W        W87163  30.688  14.206   7.328 -0.0276  0.1086  0.1017
44247W        W87164  30.300  11.913   8.981 -0.0336 -0.1712  0.2879
44248W        W87165  31.944  12.899   2.847 -0.0563  0.2525 -0.0408
44249W        W87166  31.165  13.292   2.578 -0.1793  0.0486 -0.1388
44250W        W87167  30.673  12.641   3.649  0.3905  0.1240  0.1770
44251W        W87168  31.926  13.053   4.641  0.0662 -0.0865 -0.0963
44252W        W87169  30.745  12.345   4.138 -0.1162  0.0945  0.0643
44253W        W87170  33.919  12.062   4.218  0.1046 -0.2254 -0.1989
44254W        W87171  29.454  14.345   4.394  0.0768 -0.3278  0.1710
44255W        W87172  30.372  14.566   3.537 -0.2318  0.2414 -0.0276
44256W        W87173  29.238  14.076   3.920 -0.1627 -0.0688 -0.2424
44257W        W87174  30.028  13.814   5.732 -0.0250 -0.2608  0.1633
44258W        W87175  30.735  11.420   5.093 -0.2472  0.0271  0.3001
44259W        W87176  30.688  11.459   3.598 -0.0063  0.0938 -0.4386
44260W        W87177  32.084  10.602   4.207 -0.1177 -0.0387 -0.1554
44261W        W87178  30.451  12.810   5.222  0.2365  0.1237 -0.4769
44262W        W87179  32.009  10.808   6.172 -0.1138  0.0977  0.0036
44263W        W87180  29.843  12.293   7.825 -0.0522  0.1470 -0.1457
44264W        W87181  29.243  10.293   5.914 -0.0794 -0.1250 -0.4153
44265W        W87182  32.242  14.902   5.935 -0.1407 -0.1375  0.1358
44266W        W87183  31.253  13.280   3.074 -0.1281  0.0952  0.0213
44267W        W87184  30.774  11.376   7.388  0.2416  0.3013 -0.0319
44268W        W87185  31.029  13.869   3.168 -0.1360  0.2125 -0.0705
44269W        W87186  29.430  14.444   2.861 -0.0072  0.1584  0.4141
44270W        W87187  30.311  13.213   3.990 -0.0601 -0.0461  0.0897
44271W        W87188  30.395  12.040   6.347  0.6240 -0.0393  0.1592
44272W        W87189  30.708  10.929   3.763  0.0640 -0.3833  0.3192
44273W        W87190  31.175  10.613   5.838 -0.1651  0.3102  0.1178
44274W        W87191  30.306  15.360   2.169 -0.0836 -0.0906 -0.3967
44275W        W87192  29.589  13.939   4.796  0.4842  0.2396 -0.1103
44276W        W87193  29.286  12.203   3.510 -0.0440 -0.0236  0.2577
44277W        W87194  29.847  11.217   4.731  0.1854 -0.0830  0.0588
44278W        W87195  29.831  13.585   8.927 -0.1888  0.3329 -0.0806
44279W        W87196  30.116  12.541   2.503  0.1134 -0.1204  0.0626
44280W        W87197  29.714  15.380   2.115 -0.0537  0.1580  0.1164
44281W        W87198  29.226  13.569   4.599 -0.0523 -0.1187 -0.1419
44282W        W87199  30.805  13.415   4.273 -0.1707 -0.0495 -0.2947
44283W        W87200  31.428  11.067   4.017 -0.6172 -0.1005 -0.0869
44284W        W87201  31.505  11.188   4.631 -0.1865 -0.1095  0.0864
44285W        W87202  29.199  14.048   3.104  0.1168 -0.3690 -0.1187
44286W        W87203  32.756   9.788   3.860 -0.0888  0.2994  0.0288
44287W        W87204  30.674  14.210   3.369 -0.0713 -0.0430 -0.4739
44288W        W87205  29.350  12.520   5.723 -0.0641  0.2134 -0.0815
44289W        W87206  28.732  15.484   5.340 -0.1408 -0.3401 -0.0761
44290W        W87207  32.049  10.419   6.482  0.0813  0.0167 -0.0972
44291W        W87208  31.536  12.118   4.581  0.2543  0.1995  0.0424
44292W        W87209  29.951  11.747   4.262 -0.1925 -0.2509  0.3642
44293W        W87210  33.647  11.600   5.100 -0.0538 -0.0215 -0.3695
44294W        W87211  29.904  14.027   4.047  0.1350 -0.6097 -0.1310
44295W        W87212  29.197  12.801   7.463  0.3096 -0.1722 -0.1553
44296W        W87213  30.815  15.230   5.142 -0.0068 -0.0762 -0.1879
44297W        W87214  31.225  12.950   3.523  0.2332 -0.5387 -0.1207
44298W        W87215  29.866  15.560   3.399 -0.0096 -0.1115  0.1785
44299W        W87216  30.556  13.611   7.261  0.0822 -0.0388 -0.2092
44300W        W87217  32.491  12.998   6.615 -0.1706  0.0021  0.1608
44301W        W87218  30.125  12.599   3.930 -0.1476  0.0645  0.3554
44302W        W87219  32.441  10.642   3.220 -0.3727  0.0449  0.0174
44303W        W87220  29.703  15.677   5.452 -0.1950  0.2283  0.1902
44304W        W87221  28.804  12.355   7.650  0.2390 -0.0227 -0.1931
44305W        W87222  28.323  13.055   4.988 -0.2540 -0.5074  0.2267
44306W        W87223  30.663  14.767   4.230 -0.1531 -0.1331 -0.0612
44307W        W87224  30.635  13.587   3.351 -0.0385 -0.0333 -0.2782
44308W        W87225  30.353  15.231   4.922 -0.1741 -0.1406  0.2531
44309W        W87226  31.171  14.018   3.656 -0.0769 -0.0437  0.2361
44310W        W87227  32.025  11.140   2.766  0.3194 -0.0336  0.0787
44311W        W87228  29.003  14.077   5.744  0.1634  0.1959  0.1207
44312W        W87229  30.088  14.945   2.266  0.0374  0.1525  0.2776
44313W        W87230  31.045  15.135   4.214 -0.2235 -0.1887 -0.3149
44314W        W87231  29.110  15.215   4.134  0.0319 -0.0717  0.1329
44315W        W87232  32.013  13.522   7.236 -0.1842 -0.1119  0.0177
44316W        W87233  32.427  10.274   2.062  0.0215 -0.1032 -0.3512
44317W        W87234  31.601  14.240   3.587 -0.0982 -0.0821 -0.0670
44318W        W87235   0.293  13.526   5.815 -0.3318 -0.1947  0.1012
44319W        W87236  31.857  13.472   5.014  0.0095 -0.2549  0.0721
44320W        W87237  31.032  13.959   4.745  0.1008 -0.0529 -0.1947
44321W        W87238  29.441  11.048   3.286 -0.1549  0.1878 -0.1451
44322W        W87239  29.869  13.564   4.217 -0.1846  0.1709 -0.0250
44323W        W87240  31.991  11.265   8.117  0.1675  0.1525 -0.1356
44324W        W87241  30.196  14.142   8.099  0.1626  0.3892 -0.1023
44325W        W87242  31.381  12.177   3.118 -0.1673  0.0937  0.0743
44326W        W87243  27.142  10.840   3.404 -0.2337 -0.0745 -0.3391
44327W        W87244  29.350  13.622   5.073  0.0320 -0.0842 -0.1804
44328W        W87245  33.146  11.059   5.142  0.2391 -0.2329 -0.0191
44329W        W87246  30.581  15.999   0.797  0.2021  0.0797 -0.0073
44330W        W87247  33.727   8.772   4.472 -0.1738  0.1249  0.1335
44331W        W87248  27.225  14.764   4.507  0.0606  0.1051  0.1762
44332W        W87249  29.012  14.682   7.599 -0.0299  0.2169 -0.1282
44333W        W87250  30.369  14.042   5.946  0.1169  0.2669 -0.1554
44334W        W87251  28.268  10.661   5.027  0.1183 -0.2188 -0.0305
44335W        W87252  31.380  12.262   5.549  0.2555  0.0894  0.0064
44336W        W87253  31.427  10.734   4.891  0.1657 -0.0343 -0.0973
44337W        W87254  31.249  11.993   6.722 -0.1571 -0.1846 -0.1453
44338W        W87255  29.283  13.596   5.716 -0.0586 -0.0608  0.0076
44339W        W87256  33.333  13.200   5.262  0.2838  0.1810 -0.2159
44340W        W87257  29.606  12.615   5.272 -0.2067  0.1735  0.1369
44341W        W87258  30.538  11.041   5.374  0.0656 -0.0673 -0.0749
44342W        W87259  30.979  11.037   3.278 -0.2997  0.1236 -0.0322
44343W        W87260  31.322  14.691   6.015  0.1510  0.0486 -0.0796
44344W        W87261  31.400  12.644   1.694 -0.1911  0.0223 -0.0533
44345W        W87262  33.028  15.745   5.300  0.2663  0.5766  0.3202
44346W        W87263  30.607  12.378   4.612  0.0549  0.0634 -0.0277
44347W        W87264  31.912  12.677   3.314 -0.2028 -0.0193  0.4039
44348W        W87265  29.313  13.538   4.006  0.0742  0.0585  0.1898
44349W        W87266  29.555  12.419   6.657 -0.1010 -0.2255 -0.2772
44350W        W87267  33.389  14.872   5.089  0.0654 -0.1260  0.0442
44351W        W87268  29.665  10.977   4.271 -0.0477 -0.0588 -0.1781
44352W        W87269  32.071  13.644   1.663  0.2674  0.1079 -0.0455
44353W        W87270  31.450  12.516   3.474 -0.2358 -0.1249 -0.1673
44354W        W87271  30.467  15.616   2.631 -0.0933 -0.0003  0.2376
44355W        W87272  30.935  13.834   5.828  0.1530  0.1339  0.1214
44356W        W87273  32.756  15.515   3.695  0.1469 -0.2179 -0.0327
44357W        W87274  30.138  12.581   4.499  0.3674 -0.1832 -0.1516
44358W        W87275  31.297  15.348   6.580 -0.1699  0.0777  0.0274
44359W        W87276  33.542  13.845   5.313 -0.0414  0.1226  0.0510
44360W        W87277  31.500  11.592   3.921 -0.0757  0.0167  0.2478
44361W        W87278  29.934  12.992   4.354  0.1407 -0.2804  0.0945
44362W        W87279  26.717  14.592   3.637  0.2952  0.2563  0.2700
44363W        W87280   0.051  11.687   4.533  0.0432 -0.2575  0.2818
44364W        W87281  29.645  10.943   7.172  0.0371 -0.2328  0.1957
44365W        W87282  32.236  14.712   3.406 -0.0658  0.3756  0.1069
44366W        W87283  32.106   9.635   4.666  0.0057  0.0321 -0.1979
44367W        W87284  30.176  14.878   5.503 -0.1793  0.1290  0.1426
44368W        W87285  30.808  12.843   6.758  0.0618  0.0156 -0.0410
44369W        W87286  28.388  12.518   3.748  0.3705 -0.1118 -0.1894
44370W        W87287  33.520  13.243   5.738  0.0705  0.1176  0.2035
44371W        W87288  29.240  12.486   2.564  0.0991  0.1048 -0.1810
44372W        W87289  31.099  16.510   4.612 -0.2083 -0.1680 -0.3015
44373W        W87290  33.143  14.162   5.405 -0.3195  0.1280 -0.1616
44374W        W87291  31.768  10.353   4.597  0.1758  0.3069 -0.0159
44375W        W87292  31.940  13.769   3.029  0.5068 -0.0635  0.3012
44376W        W87293  32.065   9.922   5.437 -0.3832  0.0692 -0.1575
44377W        W87294  32.378  12.142   3.038 -0.2956  0.0504 -0.2673
44378W        W87295  33.245   9.766   3.659 -0.2490  0.0435 -0.0164
44379W        W87296  31.164  12.489   4.427  0.0217 -0.0895  0.0794
44380W        W87297  29.039  10.416   3.786  0.2848  0.2416 -0.1192
44381W        W87298  30.213  13.306   3.098  0.0168 -0.1673  0.3014
44382W        W87299  27.199  12.681   6.680 -0.0260 -0.0761  0.0345
44383W        W87300  29.870   9.922   7.161  0.0980  0.0219  0.0616
44384W        W87301  28.152  10.844   6.970  0.0836 -0.0347  0.2017
44385W        W87302  29.033  14.575   3.637  0.3306  0.0560  0.1670
44386W        W87303  30.383  11.637   3.966  0.4084  0.3059  0.2246
44387W        W87304  33.066  16.361   6.151 -0.2252  0.0937  0.1926
44388W        W87305  31.516  11.823   5.222 -0.0065 -0.0835 -0.1115
44389W        W87306  30.383  13.089   7.049 -0.3388  0.4472  0.2794
44390W        W87307  30.945  12.937   4.342 -0.1180 -0.0732  0.0506
44391W        W87308  31.679  13.323   4.135  0.3429  0.0630 -0.2050
44392W        W87309  32.230  10.142   4.365 -0.1700  0.1144  0.4646
44393W        W87310  32.339  13.036   6.166 -0.1472 -0.2017  0.2931
44394W        W87311  28.983  13.362   2.271 -0.1693  0.1199  0.1440
44395W        W87312  31.489  14.609   5.580 -0.0812  0.0131 -0.1909
44396W        W87313  30.760  13.389   5.644 -0.1412 -0.1322  0.1553
44397W        W87314  27.964  11.499   3.338  0.0206  0.0879 -0.2644
44398W        W87315  30.566  13.779   4.689  0.0790 -0.1107  0.0880
44399W        W87316  32.615  14.760   4.389  0.0056  0.2927 -0.0867
44400W        W87317  31.733  13.578   2.074  0.0455  0.2297 -0.2165
44401W        W87318  32.142  11.998   4.341  0.2207 -0.0929 -0.0950
44402W        W87319  33.425  15.354   3.886 -0.1767 -0.1201 -0.0153
44403W        W87320  29.061  12.717   5.201 -0.0562  0.2128 -0.1720
44404W        W87321  30.459  12.871   4.705  0.2546  0.1828  0.2883
44405W        W87322  31.512  12.795   5.837  0.2630 -0.0058  0.2056
44406W        W87323  30.415  12.881   2.717  0.0352  0.0007 -0.0387
44407W        W87324  31.975  11.665   4.834  0.0154  0.0749  0.1795
44408W        W87325  29.670  12.811   2.596 -0.2306  0.2124 -0.1796
44409W        W87326  28.291  11.368   6.392  0.0831 -0.0717  0.1185
44410W        W87327  31.176  14.237   5.655  0.0669 -0.1998 -0.0687
44411W        W87328  32.024  11.257   5.090  0.1179 -0.2974 -0.2746
44412W        W87329  31.978  11.553   4.191 -0.2736 -0.0971 -0.0906
44413W        W87330  32.215  10.807   3.762  0.1862 -0.1336 -0.0657
44414W        W87331  29.986  14.271   3.513  0.1542 -0.1246  0.0139
44415W        W87332  29.289  12.424   4.891  0.0119 -0.2310 -0.0369
44416W        W87333  31.528  12.035   3.638 -0.1075  0.4273  0.2617
44417W        W87334  31.074  11.996   4.652  0.1601 -0.0701  0.0278
44418W        W87335  30.181  12.326   3.521 -0.0927  0.0940 -0.3156
44419W        W87336  31.351  15.555   5.713  0.0372  0.2507  0.5225
44420W        W87337  29.789  13.538   2.816  0.1689  0.0541  0.1470
44421W        W87338  30.251  14.270   3.032  0.0086 -0.3130 -0.0234
44422W        W87339  31.776  14.163   5.424  0.4040 -0.0119 -0.0304
44423W        W87340  31.190  12.577   6.594 -0.1042  0.3584 -0.1073
44424W        W87341  30.335  14.623   5.871  0.4917  0.2293  0.0202
44425W        W87342  31.715  14.403   2.062 -0.2056 -0.3672  0.0714
44426W        W87343  29.384  10.000   4.049  0.0105 -0.1346 -0.0312
44427W        W87344  30.314  13.981   3.775  0.2108 -0.4245 -0.1475
44428W        W87345  29.272  14.724   6.531 -0.3296 -0.2161  0.1514
44429W        W87346  32.951  10.567   5.283  0.0691 -0.0276  0.0579
44430W        W87347  29.509   8.658   4.895  0.0721  0.3028  0.2469
44431W        W87348  33.882  11.584   3.896  0.1665 -0.3044  0.0392
44432W        W87349  29.880  14.305   5.747 -0.1873 -0.1425  0.1681
44433W        W87350  30.041  13.814   4.569  0.1129 -0.3913  0.1045
44434W        W87351  29.735  13.628   9.667  0.1803  0.0055  0.0105
44435W        W87352  29.505  10.752   5.866  0.2820  0.1744 -0.4747
44436W        W87353  33.340  12.015   5.866 -0.0271 -0.1212  0.0811
44437W        W87354  32.611  10.836   7.242  0.1841  0.0186 -0.1728
44438W        W87355  29.817  11.545   6.968 -0.1449 -0.3028  0.0237
44439W        W87356  31.170  13.487   6.139 -0.0003  0.0080 -0.1212
44440W        W87357  31.531  12.715   8.157  0.1681  0.1002 -0.0089
44441W        W87358  30.762  14.450   9.137 -0.0804  0.1180 -0.2970
44442W        W87359  30.683  12.508   8.587  0.1551 -0.1130 -0.1802
44443W        W87360  31.218  10.730   8.427  0.0705 -0.0951 -0.2380
44444W        W87361  29.818  12.088   6.859 -0.0158 -0.1214  0.1561
44445W        W87362  27.882  11.494   9.312 -0.2671 -0.0575  0.1213
44446W        W87363  34.205  11.421   8.818  0.0645  0.2488 -0.1945
44447W        W87364  29.314  12.005   5.734 -0.0784  0.0240  0.1982
44448W        W87365  27.565  11.689   6.921  0.0584 -0.1532 -0.0496
44449W        W87366  30.788  11.396   5.777 -0.1303  0.2958  0.0811
44450W        W87367  32.807  13.049   7.945 -0.1129  0.0160 -0.0850
44451W        W87368  33.887  10.308   8.644 -0.1500  0.0123  0.2262
44452W        W87369  29.627  10.415   6.294  0.1267 -0.2103  0.0016
44453W        W87370  29.809  11.981   8.177 -0.2096  0.0891 -0.2507
44454W        W87371  27.543  13.260   9.031  0.1153  0.1251 -0.2132
44455W        W87372  28.385  11.627   8.204 -0.3165  0.0483 -0.0755
44456W        W87373  30.145  11.467   8.870  0.1506 -0.0224  0.0754
44457W        W87374  30.797  10.377   8.533  0.0185 -0.1672  0.0336
44458W        W87375  30.084  12.812   7.357 -0.2781 -0.1095 -0.1096
44459W        W87376  32.374  12.389   7.486  0.1903  0.0267 -0.2139
44460W        W87377  30.330  12.773   9.103 -0.3493  0.2277 -0.1559
44461W        W87378  28.984  12.192   9.985 -0.1152 -0.2512 -0.1830
44462W        W87379  31.446  13.231   8.006 -0.3286  0.1867 -0.0578
44463W        W87380  32.421  13.595   8.412  0.2961  0.1355 -0.0644
44464W        W87381  29.304  12.274   7.652 -0.1868  0.1309  0.2648
44465W        W87382  29.851  12.358   9.712 -0.3886  0.2252 -0.3015
44466W        W87383  28.687  14.160   9.488  0.1551 -0.3194  0.0431
44467W        W87384  30.303  13.470   6.142 -0.1956 -0.3367  0.0868
44468W        W87385  28.494  11.215   6.811 -0.0093  0.1292 -0.2243
44469W        W87386  28.916  11.863   8.885  0.1047  0.4673  0.1172
44470W        W87387  30.089  12.953   8.674 -0.3864  0.3168  0.0802
44471W        W87388  31.234  12.371   5.052 -0.0695  0.1675  0.2753
44472W        W87389  31.428  11.797   5.778  0.0831  0.1924 -0.0037
44473W        W87390  31.724  12.559   8.638  0.0191 -0.0992 -0.3164
44474W        W87391  32.219   8.824   9.159 -0.3111  0.1225  0.2853
44475W        W87392  31.184  14.298   9.136 -0.3756  0.0033  0.0511
44476W        W87393  33.210  12.393   8.743  0.2105 -0.1800  0.2312
44477W        W87394  29.911  10.869   9.055  0.3310 -0.1254 -0.0710
44478W        W87395  30.044  10.578   8.707  0.1812  0.0214  0.0758
44479W        W87396  33.027  11.936   9.029  0.0565 -0.1649  0.1307
44480W        W87397  30.239  12.043   8.377 -0.1763 -0.0261 -0.2326
44481W        W87398  31.894  13.502   9.119 -0.1349  0.2233 -0.1296
44482W        W87399  32.767  13.879   6.629  0.0391 -0.2766  0.0636
44483W        W87400  31.808  12.638   6.898  0.0147 -0.0460 -0.1011
44484W        W87401  29.839  11.339   7.522  0.3528  0.2751  0.0070
44485W        W87402  30.100  11.342   6.001 -0.0808  0.0716  0.1646
44486W        W87403  31.885  13.464   8.581 -0.4327 -0.0752  0.4172
44487W        W87404  31.615  10.620   9.139  0.0376  0.1624 -0.0540
44488W        W87405  33.509  11.844   9.138 -0.1320  0.1273 -0.2819
44489W        W87406  30.661  11.798   6.968  0.0878  0.1140  0.2476
44490W        W87407  31.202   8.740   9.461  0.1392 -0.0864 -0.1670
44491W        W87408  32.916  10.956   9.394 -0.2407 -0.1047 -0.1224
44492W        W87409  29.511  14.071   5.949  0.1758  0.0770 -0.0063
44493W        W87410  31.485  13.705   8.340 -0.1431 -0.0658 -0.1181
44494W        W87411  32.876  11.533   7.856 -0.0249  0.3455  0.0518
44495W        W87412  32.081  12.236   7.034 -0.2578  0.0563 -0.1977
44496W        W87413  29.733  12.610   8.712 -0.2200 -0.1595  0.2942
44497W        W87414  30.879  14.365   7.750  0.0454 -0.0790  0.1252
44498W        W87415  29.386  12.526   9.712  0.2863  0.0790  0.1056
44499W        W87416  28.820  11.255   9.651  0.0581 -0.1775  0.1608
44500W        W87417  29.911   9.295   9.006  0.0279  0.0134 -0.1088
44501W        W87418  29.193  14.856   8.604 -0.1163 -0.0241  0.2105
44502W        W87419  31.741  10.780   6.645 -0.0152 -0.0373  0.1277
44503W        W87420  31.570  10.921   8.117 -0.5111  0.0898 -0.3683
44504W        W87421  29.968  12.331   7.262  0.0443 -0.0342 -0.4628
44505W        W87422  32.349  12.598   5.618 -0.0668 -0.0478  0.2704
44506W        W87423  30.253  11.261   7.124 -0.0073  0.0151 -0.0946
44507W        W87424  32.812  13.215   6.231 -0.0942  0.2250  0.1599
44508W        W87425  28.487  11.810   6.982  0.0988 -0.2241 -0.1045
44509W        W87426  29.356  11.789   7.104 -0.1776  0.1531  0.0137
44510W        W87427  27.155  10.319   8.481  0.1469 -0.0670 -0.1523
44511W        W87428  28.911  10.195   5.341  0.0793 -0.2903  0.1582
44512W        W87429  30.763  10.808   6.482 -0.2343  0.1766  0.0192
44513W        W87430  30.350  11.343   9.320 -0.1616  0.2336 -0.2378
44514W        W87431  27.450  12.072   9.510  0.2183 -0.2841 -0.0761
44515W        W87432  31.940  15.696   9.129 -0.0233  0.1219 -0.0517
44516W        W87433  32.171  13.978   8.817 -0.2465  0.3625 -0.0963
44517W        W87434  31.018  13.218   6.574  0.2363 -0.1967  0.0439
44518W        W87435  23.934  11.659   9.558 -0.0731 -0.2675 -0.2976
44519W        W87436  29.930  10.333   7.728 -0.1264 -0.0768  0.0477
44520W        W87437  28.588  13.453   8.946 -0.2126 -0.2005 -0.0369
44521W        W87438  30.013  13.178   9.232  0.4231  0.2060 -0.0919
44522W        W87439  29.846  11.969   8.744  0.1474  0.0157 -0.2472
44523W        W87440  31.458  12.411   9.022  0.0039 -0.1628 -0.0178
44524W        W87441  30.748  12.847   7.316 -0.0782  0.5595 -0.0119
44525W        W87442  33.168  10.794   8.019  0.0339 -0.1805 -0.2030
44526W        W87443  32.899  10.023   8.763  0.1382  0.0300 -0.3334
44527W        W87444  28.850  11.801   6.659  0.1551 -0.1624  0.1373
44528W        W87445  30.861  13.833   7.863  0.2916  0.0865 -0.0530
44529W        W87446  30.576  13.030   8.697  0.0467 -0.0342 -0.4304
44530W        W87447  28.763  12.718   8.682 -0.0342 -0.3459 -0.1160
44531W        W87448  32.712  12.063   8.649 -0.3712 -0.1717 -0.0519
44532W        W87449  33.981  10.576   9.238  0.1756 -0.0413 -0.3137
44533W        W87450  26.652  11.464   8.989  0.0190 -0.1264  0.0188
44534W        W87451  31.569  14.315   9.454 -0.1296  0.2070  0.1470
44535W        W87452  31.871  11.788   7.997 -0.0564 -0.1739 -0.1596
44536W        W87453  31.384  12.837   9.329  0.0044 -0.0581  0.1594
44537W        W87454  31.572  10.053   7.216  0.1402  0.1596  0.2072
44538W        W87455  32.208  10.412   5.247 -0.1920  0.0923  0.1418
44539W        W87456  29.909  11.581   8.424 -0.0376 -0.0348  0.1079
44540W        W87457  30.931  11.976   9.417  0.0337  0.0887  0.1048
44541W        W87458  31.267  11.249   5.785 -0.0692  0.2085 -0.1871
44542W        W87459  31.557  13.414   6.434 -0.0975 -0.1460  0.0108
44543W        W87460  29.447  11.744   8.574  0.0230  0.0668  0.0450
44544W        W87461  32.404  12.693   7.891  0.3656  0.0428 -0.1619
44545W        W87462  30.831  10.696   7.974  0.2147  0.0868  0.3059
44546W        W87463  30.366  10.606   5.572 -0.0018 -0.0513 -0.3840
44547W        W87464  30.255  11.120   6.408 -0.1361  0.1088 -0.3168
44548W        W87465  28.982  15.526   8.067  0.0419  0.1090  0.0178
44549W        W87466  32.219  11.790   8.736  0.0408  0.2364 -0.0274
44550W        W87467  31.727  10.094   8.163 -0.0508 -0.0684  0.1554
44551W        W87468  30.493  11.589   6.214 -0.4414  0.2369 -0.0548
44552W        W87469  31.907  12.601   9.086  0.1082 -0.0265 -0.1618
44553W        W87470  30.637  12.830   7.848 -0.0145 -0.1750 -0.0049
44554W        W87471  31.867   9.569   8.205 -0.0526  0.5686 -0.1537
44555W        W87472  29.333  13.954   8.828 -0.0793  0.3740 -0.0627
44556W        W87473  30.748  12.375   9.155  0.0174  0.0665 -0.4194
44557W        W87474  30.442  11.848   9.445 -0.0189 -0.1035  0.1850
44558W        W87475  30.080  13.169   8.034  0.0257 -0.1242  0.0775
44559W        W87476  31.153  11.061   7.968  0.0680  0.3478 -0.0068
44560W        W87477  28.322  11.057   9.364  0.3156  0.1784  0.0092
44561W        W87478  30.936  12.863   9.218  0.0692  0.1238  0.2625
44562W        W87479  31.454  13.752   5.534  0.0535  0.5088  0.3074
44563W        W87480  31.735  12.245   8.202 -0.1392  0.2579  0.0250
44564W        W87481  29.804  12.665   9.213 -0.0854 -0.1117  0.1871
44565W        W87482  30.505   9.689   8.779 -0.2234 -0.2136  0.1007
44566W        W87483  32.303  12.333   9.408 -0.0523  0.2156 -0.3903
44567W        W87484  29.715  12.619   6.148  0.0545 -0.2717 -0.2175
44568W        W87485  28.633  11.985   8.473 -0.1367 -0.1669 -0.3937
44569W        W87486  30.880  12.275   6.380 -0.2310  0.1220  0.2407
44570W        W87487  31.490  12.336   7.791 -0.0970  0.3316 -0.0058
44571W        W87488  33.021   8.991   7.747  0.1324 -0.1550  0.3961
44572W        W87489  29.345  11.059   9.059  0.0475  0.1048 -0.3392
44573W        W87490  27.231  13.809   8.129  0.0685  0.2069  0.1443
44574W        W87491  31.036  12.070   7.894  0.0525 -0.2004  0.3433
44575W        W87492  28.268  12.230   5.854  0.3649  0.1075  0.2782
44576W        W87493  30.684  13.572   8.668 -0.0321  0.0799  0.0875
44577W        W87494  30.607  11.674   8.588 -0.1899 -0.1396 -0.0282
44578W        W87495  27.406  11.953   7.395 -0.1368 -0.0128 -0.2392
44579W        W87496  31.057  12.487   8.121  0.1124  0.0941  0.0904
44580W        W87497  30.333  12.145   6.962 -0.0581 -0.0936 -0.1164
44581W        W87498  30.705  11.909   7.484 -0.4457  0.2338  0.0196
44582W        W87499  29.601  12.217   9.235  0.1615  0.0365 -0.1989
44583W        W87500  30.927  12.017   8.356 -0.2489  0.1740 -0.1657
44584W        W87501  30.243  10.117   7.357  0.0270 -0.0130 -0.2055
44585W        W87502  29.627  11.575   7.942 -0.1346 -0.1596  0.1298
44586W        W87503  30.407  12.591   9.608 -0.0177 -0.2616 -0.5383
44587W        W87504  29.111  11.280   8.691 -0.2485 -0.0377 -0.2116
44588W        W87505  29.259  10.822   8.206  0.0479  0.0214  0.2231
44589W        W87506  32.977  14.901   7.745  0.0115  0.0119  0.2469
44590W        W87507  29.366  13.038   6.096  0.0816 -0.1471 -0.1728
44591W        W87508  28.975  12.360   8.960  0.1245 -0.4460 -0.2730
44592W        W87509  31.806  12.122   8.766  0.1843 -0.1338 -0.0887
44593W        W87510  33.476   9.568   8.222 -0.0457 -0.0201 -0.2344
44594W        W87511  28.301  13.768   8.317 -0.2034 -0.0200 -0.1365
44595W        W87512  29.414  11.294   8.276 -0.0771 -0.4030  0.0523
44596W        W87513  27.348  16.297   9.256  0.0215  0.2328  0.1137
44597W        W87514  33.161   9.192   8.350  0.0014 -0.0822  0.0543
44598W        W87515  32.314  14.349   6.125 -0.0536 -0.3141  0.2232
44599W        W87516  30.918  10.424   7.542 -0.2355 -0.2506 -0.0396
44600W        W87517  31.010  12.375   7.400 -0.1289  0.3411  0.0367
44601W        W87518  29.728  10.997   9.538 -0.0679 -0.1714 -0.2442
44602W        W87519  31.930  11.948   9.189  0.0836  0.0136  0.0085
44603W        W87520  30.388  11.421   8.243  0.1183 -0.0425  0.2869
44604W        W87521  30.707   9.574   6.736 -0.0079  0.1625 -0.1570
44605W        W87522  31.824   9.936   9.570 -0.0677 -0.1990  0.2479
44606W        W87523  33.152  15.209   9.236  0.1617 -0.1927  0.0146
44607W        W87524  31.331  11.604   6.340  0.2352 -0.2351  0.2786
44608W        W87525  31.201  10.798   9.615  0.1211 -0.0624 -0.0858
44609W        W87526  30.487  14.381   9.692 -0.0983  0.0256 -0.0419
44610W        W87527  31.269  11.697   8.674  0.1752  0.0874 -0.0767
44611W        W87528  29.978  12.750   6.854 -0.0992 -0.0902 -0.1602
44612W        W87529  30.719  11.179   7.875  0.2568 -0.0692  0.0344
44613W        W87530  33.208  11.369   9.139  0.2095  0.0591  0.0357
44614W        W87531  30.767   9.912   7.464  0.3914 -0.3073 -0.4086
44615W        W87532  32.444  14.423   8.215  0.1145 -0.1268 -0.1164
44616W        W87533  33.048  12.583   7.589 -0.1387  0.2481  0.0426
44617W        W87534  31.864  11.518   7.433 -0.2141 -0.2522 -0.0464
44618W        W87535  31.354  11.977   9.162 -0.2247 -0.0453 -0.2317
44619W        W87536  30.494  12.517   6.586  0.2136  0.3290 -0.2488
44620W        W87537  28.448  11.624   9.323  0.1027 -0.1814  0.1368
44621W        W87538  30.020  11.837   6.078 -0.0415 -0.2276 -0.0608
44622W        W87539  31.180  12.490   5.991 -0.1175 -0.2683 -0.3067
44623W        W87540  34.062  12.409   9.158  0.2568 -0.1908 -0.2858
44624W        W87541  30.673   9.903   8.381 -0.0288 -0.3825 -0.0538
44625W        W87542  28.306  11.183   8.401 -0.0175  0.0649 -0.0904
44626W        W87543  30.326  12.370   5.519  0.1642  0.3295  0.3810
44627W        W87544  30.749  14.216   5.254 -0.2094  0.1653 -0.3426
44628W        W87545  31.367  11.828   8.152  0.0600  0.1897 -0.0390
44629W        W87546  31.548   9.279   7.186 -0.3334  0.1423 -0.0386
44630W        W87547  29.300  12.800   8.975 -0.1805 -0.1294  0.1427
44631W        W87548  30.341  10.194   8.635 -0.2806  0.3195  0.1946
44632W        W87549  33.433  10.843   8.485  0.0659  0.1050  0.4413
44633W        W87550  33.823  13.394   9.469 -0.1691  0.1237  0.0375
44634W        W87551  31.457  11.342   8.324 -0.0135  0.1851 -0.0918
44635W        W87552   0.528   9.905   9.909 -0.0243  0.2547  0.1445
44636W        W87553  28.048  11.560   8.549  0.2656  0.1890  0.0769
44637W        W87554  30.624  11.182   8.887  0.2093 -0.2576 -0.1659
44638W        W87555  34.085  12.614   8.437  0.0356 -0.0960 -0.1755
44639W        W87556  29.283  12.878   8.433  0.2757 -0.0258 -0.0057
44640W        W87557  31.072  13.524   8.219  0.3096 -0.1148  0.0615
44641W        W87558  31.382  10.494   7.384  0.1625 -0.1784 -0.1758
44642W        W87559  31.379  13.869   6.533 -0.1875  0.0975 -0.0417
44643W        W87560  32.971  10.777   8.943 -0.1718  0.0331 -0.0871
44644W        W87561  30.913  13.359   7.724  0.1641  0.0251 -0.1899
44645W        W87562  30.560  12.422   5.993  0.1713 -0.1689  0.0495
44646W        W87563  31.373  12.106   6.249  0.0637  0.1165 -0.1475
44647W        W87564  31.394  13.687   7.770  0.0783  0.0911  0.1163
44648W        W87565  30.118  10.784   6.979  0.1486 -0.1060 -0.1380
44649W        W87566  33.701  12.755   9.323  0.1173 -0.0484 -0.0137
44650W        W87567  27.372  12.785   9.157 -0.0625 -0.0476 -0.2274
44651W        W87568  30.053  12.510   8.287 -0.0092 -0.0720  0.1597
44652W        W87569  28.366  12.662   7.505  0.0710  0.0665 -0.3130
44653W        W87570  31.539  11.208   6.540  0.2613  0.1751  0.1882
44654W        W87571  31.748  11.459   8.938 -0.1146  0.1901  0.1250
44655W        W87572  31.336  11.330   7.359 -0.3838  0.2204  0.0153
44656W        W87573  30.435  10.635   8.327 -0.1321  0.0177 -0.1280
44657W        W87574  31.131  13.816   8.750  0.2216 -0.2652  0.0179
44658W        W87575  31.493  12.345   7.155 -0.0338 -0.0607  0.1076
44659W        W87576  28.170  12.326   9.114 -0.0534  0.1981  0.1590
44660W        W87577  32.702  10.592   7.918 -0.5355  0.0255  0.1022
44661W        W87578  30.448  13.164   6.558 -0.0432 -0.0422  0.2609
44662W        W87579  28.403  12.398   8.678  0.0991  0.2559 -0.0255
44663W        W87580  31.739  13.075   8.891  0.0104 -0.1034  0.1819
44664W        W87581  32.473  14.834   8.800  0.1926 -0.2664 -0.0531
44665W        W87582  29.753  13.164   7.603  0.0094  0.1720 -0.0552
44666W        W87583  28.863  11.476   7.866 -0.0380  0.1202 -0.0502
44667W        W87584  32.349  10.140   8.981  0.0357 -0.2569 -0.3489
44668W        W87585  29.440   9.591   7.245 -0.0471 -0.1616  0.1379
44669W        W87586  27.741  10.643   7.321  0.1285  0.3558  0.0535
44670W        W87587  32.479  11.630   8.287  0.1239  0.4964 -0.1127
44671W        W87588  33.248  12.190   8.285 -0.3327  0.1934  0.0666
44672W        W87589  27.048  10.704   8.857  0.2010 -0.1263  0.0224
44673W        W87590  32.056  12.628   6.013 -0.1056  0.4726 -0.0580
44674W        W87591  29.966  12.999   5.289  0.0315  0.0200  0.0976
44675W        W87592  27.748  11.920   9.039  0.2396 -0.1449 -0.1042
44676W        W87593  31.241  10.331   8.728  0.0768  0.0136 -0.1250
44677W        W87594  27.547  10.549   8.693 -0.3543  0.2120 -0.1995
44678W        W87595  28.003  13.377   8.746  0.1094  0.0695 -0.0617
44679W        W87596  28.326  10.829   6.478  0.1404 -0.1914  0.0852
44680W        W87597  30.963  13.244   7.185  0.0173  0.3167 -0.1028
44681W        W87598  30.044  10.828   7.515  0.0706 -0.1938  0.2121
44682W        W87599  31.443  15.518   7.066  0.1849 -0.1131  0.0120
44683W        W87600  32.979  11.751   8.348  0.0948 -0.1937  0.2500
44684W        W87601  32.697  14.360   6.582 -0.0047  0.2596 -0.2791
44685W        W87602  28.537  11.627   9.855 -0.0067 -0.1926  0.4108
44686W        W87603  30.227  13.763   8.542 -0.3079  0.1652 -0.0563
44687W        W87604  32.328  12.850   9.224  0.0959 -0.0504 -0.0375
44688W        W87605  32.568   8.289   8.504  0.0557 -0.1660 -0.1230
44689W        W87606  29.069  10.758   8.788  0.0697  0.1547 -0.1230
44690W        W87607  29.322  11.966   8.113 -0.1710 -0.2141  0.3938
44691W        W87608  33.363  12.356   7.301 -0.2928 -0.2411  0.0576
44692W        W87609  31.382  13.874   6.033  0.0834  0.2470  0.4800
44693W        W87610   0.247  11.437   6.834  0.0715 -0.1603  0.1853
44694W        W87611  29.348  13.452   8.323  0.2499  0.0720  0.0487
44695W        W87612  30.153  11.781   7.795  0.0675 -0.0842  0.4026
44696W        W87613  31.684  14.133   6.970  0.0899 -0.0558  0.1349
44697W        W87614  31.699  12.215   6.656 -0.0961 -0.1678 -0.0574
44698W        W87615  30.828  11.818   6.512  0.1892 -0.1348 -0.0214
44699W        W87616  34.048  13.029   6.798  0.0137  0.0282 -0.1066
44700W        W87617  30.232  11.691   6.726 -0.0846 -0.1558 -0.2857
44701W        W87618  31.161  11.192   8.703 -0.1870  0.1717 -0.1995
44702W        W87619  32.073  10.713   8.221  0.0883  0.1809  0.0738
44703W        W87620  28.646  11.025   8.741 -0.2070 -0.2844 -0.1228
44704W        W87621  30.175  13.511   6.759 -0.3109  0.2704  0.1011
44705W        W87622  30.845  12.318   6.974 -0.0602 -0.1361  0.3275
44706W        W87623  30.400  14.919   9.366 -0.0528 -0.0458 -0.0916
44707W        W87624  32.961  15.007   8.797 -0.3671  0.0141 -0.2990
44708W        W87625  26.963  11.181   9.482  0.0710 -0.0157 -0.0890
44709W        W87626  31.631  10.955   8.776  0.1871 -0.1476  0.0234
44710W        W87627  30.734  11.033   8.360 -0.2982  0.0304 -0.0082
44711W        W87628  27.286  11.063   8.030 -0.1567  0.0029  0.2971
44712W        W87629  31.277  13.354   9.112 -0.0307  0.3392 -0.1294
44713W        W87630  32.712  11.537   8.784 -0.0627 -0.1365  0.0127
44714W        W87631  29.858  11.107   6.723 -0.1537  0.1361 -0.2039
44715W        W87632  30.324  11.316   7.606 -0.2032  0.0924  0.1960
44716W        W87633  29.009  10.653   5.627 -0.0588  0.1512 -0.1573
44717W        W87634  26.182  13.357   8.560  0.0038 -0.0492 -0.0684
44718W        W87635  31.886  14.748   9.471 -0.0546  0.2014 -0.0505
44719W        W87636  31.145  13.914   6.951  0.0204 -0.1508 -0.4217
44720W        W87637  26.986   9.555   9.485  0.3680  0.3802 -0.0619
44721W        W87638  31.821  14.637   6.231  0.0649 -0.2597  0.1027
44722W        W87639  31.743  12.833   7.692  0.2588  0.3813 -0.0569
44723W        W87640  32.025  10.601   8.783  0.0235 -0.0376  0.4468
44724W        W87641  31.096  11.789   7.218 -0.0544 -0.0667  0.0786
44725W        W87642  30.940  11.465   8.256  0.1381  0.0767 -0.2894
44726W        W87643  30.012  10.655   6.426 -0.2163  0.2348 -0.0930
44727W        W87644  30.583  11.763   7.953 -0.0198 -0.1003  0.1971
44728W        W87645  30.653  12.889   5.709  0.0501 -0.3602  0.2443
44729W        W87646  28.255  13.253   7.423  0.0588  0.0713  0.1914
44730W        W87647  30.246  10.945   7.951  0.1192  0.3393  0.2051
44731W        W87648  28.846  10.751   7.896  0.1961 -0.2198  0.2808
44732W        W87649  30.970  12.473   9.627 -0.0756  0.1015 -0.0203
44733W        W87650  32.087  11.168   6.655  0.1439  0.0120  0.3058
44734W        W87651  29.175  13.747   9.769  0.5286  0.1262 -0.2041
44735W        W87652  32.012  13.515   8.104  0.0600  0.3123  0.0504
44736W        W87653  34.549  12.648   8.781 -0.3493 -0.4477 -0.3090
44737W        W87654  30.274  10.608   9.207 -0.0751 -0.0706  0.2095
44738W        W87655  30.450  12.349   7.408 -0.2386  0.2203  0.0244
44739W        W87656  30.781  13.296   9.104 -0.0757 -0.2764 -0.0348
44740W        W87657  32.363  13.097   8.364 -0.1073 -0.2636 -0.2031
44741W        W87658  28.686  10.759   9.678  0.0254  0.0003 -0.1280
44742W        W87659  32.460  11.079   8.306 -0.2048  0.0741  0.3796
44743W        W87660  32.222  19.569   8.415  0.2193 -0.4069 -0.3617
44744W        W87661  31.001  10.759   8.860 -0.1208 -0.2207 -0.2995
44745W        W87662  30.735  18.561   2.820 -0.0644 -0.0915  0.0711
44746W        W87663  28.221  15.941   1.505  0.1495  0.0169 -0.3282
44747W        W87664  33.178  16.078  31.148 -0.1834 -0.0964 -0.1155
44748W        W87665  34.322  14.482   1.331  0.1200  0.2330  0.0947
44749W        W87666  28.444  15.342   2.346  0.0843 -0.0771 -0.1171
44750W        W87667  34.038  18.292  31.426 -0.1099 -0.1203  0.1264
44751W        W87668  27.145  15.515   2.905 -0.0589 -0.0105  0.0893
44752W        W87669  30.485  19.219   1.906 -0.0366 -0.1739  0.0362
44753W        W87670  31.158  18.547   4.053  0.0121  0.2836 -0.2563
44754W        W87671  30.822  17.398   2.773 -0.0233 -0.0172 -0.0898
44755W        W87672  29.880  18.912   1.652  0.0127 -0.0417  0.2285
44756W        W87673  30.187  19.165   2.251  0.1530 -0.1382 -0.1716
44757W        W87674  31.137  14.066   1.284 -0.2908 -0.1445  0.0634
44758W        W87675  27.846  15.092   3.251  0.0222  0.6070  0.2239
44759W        W87676  32.273  16.449   4.523  0.3506  0.3445  0.0602
44760W        W87677  29.614  15.518   0.635 -0.1116 -0.0810 -0.0386
44761W        W87678  30.956  16.462   3.715 -0.0027 -0.1588  0.0708
44762W        W87679  31.491  16.408   2.888  0.1138  0.0322 -0.3246
44763W        W87680  33.022  16.770   0.471  0.0876  0.0021 -0.3411
44764W        W87681  31.865  15.341  31.659  0.1437 -0.4080 -0.1571
44765W        W87682  32.464  14.924   2.581 -0.3693 -0.0179 -0.3426
44766W        W87683  31.960  18.065   1.031 -0.0264  0.0126 -0.1264
44767W        W87684  32.400  15.624  31.934  0.1900 -0.0446 -0.0748
44768W        W87685  29.387  14.302   1.312  0.1336  0.1376 -0.1175
44769W        W87686  31.412  14.800   3.061 -0.4516  0.0252 -0.0709
44770W        W87687  30.829  17.395   1.617  0.0702  0.2484 -0.2186
44771W        W87688  33.007  16.110   1.500 -0.2398 -0.2140  0.1802
44772W        W87689  30.360  16.579   1.708 -0.2157 -0.1039 -0.4239
44773W        W87690  30.340  17.271   2.918 -0.1432  0.3519  0.0502
44774W        W87691  31.777  14.577   3.948  0.0557 -0.0863  0.0213
44775W        W87692  31.495  17.926   1.169 -0.1171  0.1468 -0.0774
44776W        W87693  29.781  19.183  31.452 -0.0245 -0.3731  0.1571
44777W        W87694  29.200  19.533   1.234  0.1293 -0.0350 -0.3834
44778W        W87695  32.624  16.752  31.670 -0.1436 -0.0946  0.2063
44779W        W87696  31.937  18.194   4.241  0.0757 -0.0826  0.2698
44780W        W87697  31.381  18.378   3.563  0.0405  0.1968  0.2715
44781W        W87698  28.467  17.687  31.529 -0.2981 -0.1876  0.2135
44782W        W87699  32.318  17.625   3.494 -0.0585 -0.0868  0.0434
44783W        W87700  30.501  19.463   4.447 -0.1262  0.2510  0.1518
44784W        W87701  31.423  17.541   1.818  0.2677  0.1077  0.1194
44785W        W87702  30.937  17.228   1.059 -0.3287 -0.0052  0.0062
44786W        W87703  29.823  17.399   0.038 -0.0866  0.2933  0.1531
44787W        W87704  31.112  18.084   0.001 -0.0731  0.0259 -0.0094
44788W        W87705  30.783  16.384   1.560 -0.1655  0.0466 -0.0861
44789W        W87706  30.264  18.466   2.675 -0.0062 -0.3080  0.1821
44790W        W87707  31.101  13.441   3.533  0.1636  0.2186  0.1351
44791W        W87708  29.888  17.583  31.460  0.1672  0.2016 -0.0180
44792W        W87709  33.783  14.970   2.417 -0.1048  0.0541 -0.2654
44793W        W87710  31.685  15.084  30.783 -0.2214 -0.1335 -0.0941
44794W        W87711  32.389  15.400  31.514  0.3095  0.1068  0.0282
44795W        W87712  30.539  14.947   0.874  0.0318 -0.1970 -0.1753
44796W        W87713  29.592  17.023   0.263 -0.2211  0.1008 -0.0177
44797W        W87714  32.487  15.924   2.972 -0.1692 -0.0480 -0.0658
44798W        W87715  34.126  18.248   4.621  0.0823 -0.1951 -0.0528
44799W        W87716  32.866  15.283   1.209  0.3676 -0.1084  0.1039
44800W        W87717  34.195  16.526   1.316 -0.1517  0.3234  0.0680
44801W        W87718  29.491  18.997   3.018  0.0877 -0.0206 -0.0673
44802W        W87719  30.779  15.188   1.945 -0.0989 -0.1929 -0.0086
44803W        W87720  31.749  16.378   0.118 -0.4208 -0.1258  0.2154
44804W        W87721  34.376  17.682  30.870 -0.3473 -0.3651 -0.0992
44805W        W87722  30.788  18.903   0.703  0.1912 -0.0649 -0.0960
44806W        W87723  28.969  16.798   1.539 -0.5501  0.1788  0.1333
44807W        W87724  29.132  16.404   2.824  0.1549 -0.2449 -0.4114
44808W        W87725  31.168  18.164   2.686 -0.0920  0.1040  0.0861
44809W        W87726  27.274  15.609  31.358 -0.2641  0.0110 -0.2175
44810W        W87727  33.125  18.226   3.758  0.1160 -0.1181 -0.0191
44811W        W87728  30.272  19.238   4.877  0.0279 -0.1941  0.2453
44812W        W87729  32.005  15.198   2.558 -0.0527 -0.0070  0.1596
44813W        W87730  32.134  16.052  31.935  0.0585 -0.1619  0.2505
44814W        W87731  32.179  18.756  31.904  0.2615 -0.0186  0.0657
44815W        W87732  32.315  15.800  31.140  0.0321  0.2498  0.1437
44816W        W87733  33.569  14.567   2.597  0.1216  0.0274 -0.3500
44817W        W87734  31.948  16.985   2.331  0.0388  0.1199  0.0980
44818W        W87735  29.024  17.620  30.982  0.0276 -0.1760  0.1563
44819W        W87736  31.871  17.156   1.837  0.1379  0.1541  0.2444
44820W        W87737  32.371  16.990   3.850 -0.3193 -0.1259 -0.0848
44821W        W87738  34.536  16.811   0.816 -0.0946  0.3525 -0.1943
44822W        W87739  30.143  18.679   1.156  0.1660  0.1051 -0.1255
44823W        W87740  31.504  15.285   2.368  0.3452  0.2682  0.0544
44824W        W87741  31.027  16.069   2.447 -0.0271  0.3380 -0.0218
44825W        W87742  29.595  18.524   1.350  0.0088  0.1984  0.2458
44826W        W87743  29.371  18.977   1.397 -0.3115  0.2621 -0.0742
44827W        W87744  28.826  15.699   0.163  0.1764 -0.2038 -0.1386
44828W        W87745  29.199  16.953   4.199 -0.1167 -0.0511 -0.0475
44829W        W87746  29.756  18.074   4.259  0.0515 -0.0356 -0.0275
44830W        W87747  33.887  16.037  31.692  0.2369  0.2577 -0.0023
44831W        W87748  28.762  15.265   0.949 -0.1515  0.0667  0.1011
44832W        W87749  34.104  15.402   0.535 -0.2518  0.0532  0.2405
44833W        W87750  31.677  16.309   1.385  0.0365  0.1682 -0.2261
44834W        W87751  33.453  19.518   0.716 -0.2950 -0.2327  0.2692
44835W        W87752  31.093  15.082  31.800 -0.1782  0.0578 -0.0044
44836W        W87753  31.272  13.792  30.907 -0.2274 -0.0730 -0.5704
44837W        W87754  28.992  16.249   1.876  0.0435 -0.1631 -0.0519
44838W        W87755  29.474  16.851   1.420 -0.0788  0.2264 -0.0667
44839W        W87756  29.480  16.685   4.843 -0.0961  0.1717 -0.2530
44840W        W87757  30.946  15.470   2.430 -0.1143 -0.1071  0.0792
44841W        W87758  32.032  16.307   1.792 -0.4979 -0.1232 -0.1463
44842W        W87759  30.237  15.819  31.892  0.0429  0.3549 -0.1053
44843W        W87760  32.926  15.025   3.564  0.4867 -0.1299 -0.0782
44844W        W87761  31.219  16.056   1.503  0.2985  0.1955 -0.0442
44845W        W87762  29.100  17.027  31.761 -0.2862  0.0665 -0.0663
44846W        W87763  32.684  16.686   2.858  0.0284  0.1402 -0.1609
44847W        W87764  32.708  17.807  31.869 -0.0147 -0.1904  0.2683
44848W        W87765  31.746  17.801  31.694  0.3483  0.2160 -0.1167
44849W        W87766  30.770  19.678   0.579  0.0292 -0.3970  0.0499
44850W        W87767  32.017  14.972   4.323 -0.1565 -0.3151 -0.0242
44851W        W87768  30.376  17.331   0.817  0.1305  0.0379 -0.1035
44852W        W87769  28.182  20.576   1.503 -0.4217 -0.3315  0.1857
44853W        W87770  28.759  19.636   1.505 -0.1365 -0.4941  0.1899
44854W        W87771  32.101  16.104   1.097 -0.1277 -0.1190  0.1147
44855W        W87772  32.888  17.401   1.739  0.0839 -0.1139  0.1846
44856W        W87773  31.160  17.599   1.270 -0.1771 -0.2948 -0.0592
44857W        W87774  29.433  17.964   3.016 -0.1599  0.0395 -0.2631
44858W        W87775  31.844  14.434   1.552  0.0732  0.1439  0.2908
44859W        W87776  31.639  16.807   1.395 -0.0007 -0.1616  0.0861
44860W        W87777  31.774  17.639   1.485  0.2609  0.3170 -0.3189
44861W        W87778  31.893  14.994   0.630  0.3666 -0.0147  0.1479
44862W        W87779  33.765  17.505   1.130 -0.3188 -0.0367 -0.1086
44863W        W87780  28.547  17.697   1.293  0.2027 -0.1022 -0.1350
44864W        W87781  28.787  16.862   0.681  0.0554  0.1790 -0.0920
44865W        W87782  32.397  17.528   1.662 -0.0053 -0.0029 -0.4983
44866W        W87783  34.063  14.091  31.949  0.0000  0.1992 -0.0093
44867W        W87784  26.689  15.605   2.780  0.0502 -0.3788 -0.4659
44868W        W87785  31.521  16.136   2.344 -0.1001 -0.0267 -0.1504
44869W        W87786  29.616  16.485   1.060 -0.2940 -0.0466  0.0286
44870W        W87787  29.364  19.064   2.503 -0.1995  0.1383  0.0895
44871W        W87788  33.496  14.093   0.103  0.0550 -0.0415 -0.1506
44872W        W87789  32.698  14.845   1.753 -0.3232 -0.2030 -0.1149
44873W        W87790  31.305  17.640   4.535 -0.0548  0.3106  0.2786
44874W        W87791  34.559  15.408  31.715 -0.1817  0.1985  0.2511
44875W        W87792  32.828  14.703  31.848 -0.0790  0.1195 -0.2566
44876W        W87793  31.863  13.869   0.132  0.2300 -0.0009 -0.0327
44877W        W87794  31.328  17.014   2.557  0.1990  0.0893 -0.0260
44878W        W87795  31.288  17.617  31.834 -0.1809 -0.0198 -0.0192
44879W        W87796  32.793  17.541   2.229 -0.0958 -0.0932 -0.5286
44880W        W87797  32.189  14.914  30.663 -0.0717 -0.0460  0.0393
44881W        W87798  32.905  16.136   1.982 -0.0316  0.1640  0.0116
44882W        W87799  26.590  16.743   2.626  0.2015  0.0247 -0.0878
44883W        W87800  30.067  16.025   4.777  0.1348  0.1034 -0.1145
44884W        W87801  32.122  16.211  29.928 -0.1855 -0.0362  0.0515
44885W        W87802  32.776  16.491   0.863 -0.2053  0.0554  0.1892
44886W        W87803  31.117  17.945   0.453  0.3147  0.3072 -0.3805
44887W        W87804  32.035  16.439   2.355 -0.0187  0.0753  0.0641
44888W        W87805  27.766  18.632  30.578  0.2639  0.3077  0.2148
44889W        W87806  32.748  15.905   2.467  0.0976 -0.1994  0.3088
44890W        W87807  32.325  16.669   2.012 -0.1267  0.2440  0.0620
44891W        W87808  32.103  15.446   4.483  0.0065 -0.1836 -0.2455
44892W        W87809  32.508  15.221   4.094  0.0487  0.1781 -0.1340
44893W        W87810  32.316  15.217   0.844 -0.0929  0.0793 -0.1179
44894W        W87811  33.380  15.281   1.362 -0.2703 -0.1477  0.3523
44895W        W87812  30.384  16.678   1.231  0.2756  0.0446 -0.0040
44896W        W87813  31.408  16.023   4.561 -0.2867 -0.2418  0.1183
44897W        W87814  29.368  18.879   1.935  0.2640  0.1028  0.1541
44898W        W87815  28.977  18.619   1.657  0.2032 -0.1533 -0.0648
44899W        W87816  32.023  17.172   1.372 -0.1345  0.0096  0.0974
44900W        W87817  31.876  16.909   0.263 -0.0864 -0.0963 -0.1583
44901W        W87818  31.593  15.376   2.915 -0.1754 -0.0835  0.3249
44902W        W87819  30.697  14.387   0.117 -0.2446 -0.3228  0.0470
44903W        W87820  32.139  18.102  31.777  0.2131 -0.2455  0.1863
44904W        W87821  28.989  18.026  31.918  0.0390  0.2482  0.0505
44905W        W87822  33.065  14.861   1.340  0.1281  0.0815 -0.1597
44906W        W87823  31.223  16.601   1.595 -0.2019 -0.0789 -0.2281
44907W        W87824  31.273  16.372   0.092  0.0458  0.0535  0.0993
44908W        W87825  30.684  18.046   2.853  0.1108  0.1689 -0.2565
44909W        W87826  30.787  17.275  31.800 -0.3144  0.0937  0.1486
44910W        W87827   0.073  14.864   1.106 -0.0349  0.0286  0.1007
44911W        W87828  27.997  18.118   2.111  0.0963  0.0226 -0.0675
44912W        W87829  31.259  15.606   1.222  0.0420 -0.1272  0.2065
44913W        W87830  29.547  14.761  31.351  0.4373 -0.1914 -0.0269
44914W        W87831  33.543  15.351   2.581 -0.0285  0.0677 -0.2567
44915W        W87832  31.473  15.556  30.420  0.1950 -0.0165  0.1989
44916W        W87833  29.192  17.495   4.075 -0.0219  0.2338 -0.2156
44917W        W87834  31.145  16.507   2.177 -0.3377 -0.3048  0.2418
44918W        W87835  29.600  17.507   0.522  0.1152 -0.0103  0.3153
44919W        W87836  30.833  16.941   1.874 -0.1056  0.1603  0.0335
44920W        W87837  33.649  13.446  30.642 -0.2195 -0.1867  0.0663
44921W        W87838  32.854  18.488   0.380 -0.4094  0.2972  0.1429
44922W        W87839  30.082  17.859   3.889  0.0118  0.1893 -0.2946
44923W        W87840  29.776  16.002   0.219  0.1904 -0.0022  0.0814
44924W        W87841  33.428  16.136   3.748 -0.0479 -0.0776  0.3220
44925W        W87842  29.776  15.041  31.665  0.1305  0.0928 -0.0554
44926W        W87843  29.769  16.907   1.835  0.0031 -0.1186 -0.3175
44927W        W87844  32.257  18.018   1.501 -0.1631  0.1418  0.0498
44928W        W87845  31.259  17.129   1.516  0.0875  0.0054  0.1614
44929W        W87846  29.270  18.732  31.380  0.1393  0.0569 -0.1431
44930W        W87847  30.097  16.891   3.144 -0.2213  0.1256 -0.0280
44931W        W87848  30.947  17.364   2.226 -0.0554  0.0294  0.1291
44932W        W87849  30.593  15.874   1.329  0.2319 -0.0327 -0.0544
44933W        W87850  32.577  14.912   1.239 -0.1208  0.1486 -0.4403
44934W        W87851  33.306  17.569   1.028  0.0917  0.0140 -0.2435
44935W        W87852  31.322  17.060   1.994 -0.0515  0.2300 -0.3260
44936W        W87853  33.170  16.325   1.079 -0.1875  0.2414 -0.0468
44937W        W87854  30.129  17.230   5.104 -0.1360 -0.1700  0.1507
44938W        W87855  32.321  15.605   2.363 -0.0678 -0.0141  0.0550
44939W        W87856  33.218  16.630   2.065  0.0044  0.1407  0.0972
44940W        W87857  31.819  17.746   3.036 -0.0499  0.3958  0.2070
44941W        W87858  29.320  15.745   0.251 -0.0923  0.2553  0.0909
44942W        W87859  26.448  16.392   2.273 -0.0651  0.0855  0.1149
44943W        W87860  28.742  18.497   0.692  0.0955  0.2256 -0.1251
44944W        W87861  32.730  15.636   1.518 -0.2431 -0.4021 -0.3989
44945W        W87862  29.795  19.707   3.004 -0.0637 -0.0479  0.1663
44946W        W87863  28.231  18.416   1.570  0.1126 -0.1525  0.0299
44947W        W87864  28.251  17.490   2.551  0.3222  0.2935  0.0257
44948W        W87865  33.683  14.067  31.547  0.0014 -0.0330 -0.3462
44949W        W87866  31.286  16.547  31.542 -0.1068  0.1584  0.1298
44950W        W87867  30.561  17.754   2.510  0.1189 -0.1906 -0.2388
44951W        W87868  31.406  13.033   1.992 -0.0479 -0.1496 -0.1924
44952W        W87869  30.748  16.868   2.432  0.0164  0.0618  0.0251
44953W        W87870  32.701  14.162   3.778  0.1734  0.1305 -0.0865
44954W        W87871  30.643  15.706   2.079 -0.0864 -0.0434  0.2724
44955W        W87872  34.179  15.525   1.019  0.3175  0.2923  0.2140
44956W        W87873  30.175  18.028   2.400 -0.0123  0.0067 -0.1889
44957W        W87874  33.581  18.189   3.336  0.1518  0.0867  0.0881
44958W        W87875  27.476  15.915   3.069 -0.1035  0.2155  0.0431
44959W        W87876  33.792  15.207   0.147 -0.1278  0.2611  0.2511
44960W        W87877  30.165  15.709   0.592  0.2896 -0.0118 -0.1847
44961W        W87878  29.535  17.389   1.110 -0.0935 -0.0647  0.4152
44962W        W87879  34.070  16.615   0.841  0.1798  0.1861 -0.2233
44963W        W87880  30.401  16.877  31.555  0.0497 -0.0877 -0.1505
44964W        W87881  33.044  15.222   1.824 -0.1488  0.1710  0.0342
44965W        W87882  30.385  16.487   0.731 -0.1172  0.0680  0.0183
44966W        W87883  33.692  16.236   0.929 -0.0708  0.3421  0.1098
44967W        W87884  31.655  14.753  30.412  0.2184  0.2778 -0.0351
44968W        W87885  32.017  16.240   0.516  0.1603  0.0950  0.1822
44969W        W87886  29.613  16.634   4.145 -0.0298 -0.1085  0.0082
44970W        W87887  33.034  18.137   2.798  0.1423 -0.2051 -0.2642
44971W        W87888  33.197  13.147  31.888  0.3460  0.0036  0.1094
44972W        W87889  31.464  16.885   4.400  0.0548 -0.0275 -0.0811
44973W        W87890  33.380  17.062   1.199 -0.0348 -0.0444 -0.2880
44974W        W87891  30.190  16.796   2.673  0.0351  0.1191  0.3561
44975W        W87892  30.030  16.440   3.746  0.0866 -0.0903  0.1897
44976W        W87893  32.455  18.882   0.998 -0.1223  0.3650 -0.3535
44977W        W87894  33.907  15.811   0.668  0.0986 -0.0906 -0.0210
44978W        W87895  31.745  16.689   1.992  0.1544  0.1347  0.0893
44979W        W87896  33.296  16.221   2.366 -0.0438  0.1151  0.1636
44980W        W87897  33.059  14.973   0.331 -0.1562 -0.0473 -0.1135
44981W        W87898  29.929  16.461   1.553  0.2970  0.1132  0.1046
44982W        W87899  33.075  17.896   1.504  0.4891 -0.0047 -0.1928
44983W        W87900  30.630  14.749  30.683  0.1424  0.3402 -0.1314
44984W        W87901  32.398  16.134   2.161 -0.1296 -0.2286  0.0390
44985W        W87902  31.231  17.566   0.750  0.0278 -0.1371 -0.1654
44986W        W87903  33.125  16.098  31.665 -0.1507 -0.0357 -0.0142
44987W        W87904  32.945  16.789   1.154  0.0431  0.2390 -0.1020
44988W        W87905  27.354  15.063   1.921 -0.0695  0.2686 -0.2711
44989W        W87906  27.418  16.859   4.795 -0.0828 -0.0055 -0.0254
44990W        W87907  31.997  15.460   0.363  0.0467 -0.2991  0.2635
44991W        W87908  31.109  17.383   0.298  0.0059  0.1017  0.0504
44992W        W87909  32.797  17.033   2.030  0.0054 -0.2646  0.0345
44993W        W87910  32.050  15.948   3.277 -0.2748  0.1154  0.3948
44994W        W87911  32.787  13.945  31.387 -0.1077  0.4193  0.0648
44995W        W87912  32.739  16.085   4.255  0.0223 -0.2965  0.3063
44996W        W87913  29.056  17.689   1.120  0.0934 -0.1687  0.0797
44997W        W87914  32.348  14.689   0.842  0.0541 -0.0961  0.2068
44998W        W87915  29.766  19.852   1.707 -0.0222 -0.1422 -0.1262
44999W        W87916  29.636  16.648   2.272  0.0176 -0.2520  0.0092
45000W        W87917  29.274  18.422   2.163  0.1152  0.1071  0.0766
45001W        W87918  31.636  14.965   1.544  0.3574  0.2137 -0.1570
45002W        W87919  32.590  16.024   1.188 -0.1119  0.0376 -0.1031
45003W        W87920  32.354  17.322   2.578  0.1606 -0.0778 -0.0225
45004W        W87921  34.400  16.358   3.000  0.1905  0.0536 -0.0933
45005W        W87922  31.369  18.843   0.877  0.1809  0.1828 -0.3083
45006W        W87923  29.730  17.195   2.702 -0.1447  0.4009  0.0803
45007W        W87924  32.051  16.857   3.515  0.0811 -0.2715  0.1868
45008W        W87925  32.742  16.630   1.771 -0.2215 -0.0750  0.0298
45009W        W87926  30.466  17.285   2.394  0.0831 -0.1672 -0.1175
45010W        W87927  27.536  16.047   2.381 -0.1146 -0.1144  0.0447
45011W        W87928  31.157  16.015   3.017 -0.2623 -0.1972 -0.0271
45012W        W87929  33.521  14.179   1.130 -0.1058 -0.0117 -0.0626
45013W        W87930  30.769  16.336   0.240 -0.0341  0.2564  0.0617
45014W        W87931  30.943  16.904   0.307 -0.2504 -0.0094  0.1071
45015W        W87932  29.688  18.752   3.425 -0.0260 -0.0885  0.1211
45016W        W87933  28.279  17.335   0.744 -0.3025 -0.0836  0.0460
45017W        W87934  28.532  18.450   0.099 -0.0267 -0.0537  0.0149
45018W        W87935  31.600  15.915   0.199  0.0040 -0.0288 -0.0381
45019W        W87936  30.222  14.833  31.776 -0.0421 -0.0659 -0.0206
45020W        W87937  32.437  18.895   0.378 -0.0958  0.0548 -0.1479
45021W        W87938  33.646  15.802  31.300 -0.1178  0.0371  0.2479
45022W        W87939  29.283  18.213   1.697  0.0390 -0.2127  0.2604
45023W        W87940  30.679  15.416  31.914 -0.1546  0.1622  0.2762
45024W        W87941  31.964  16.344  31.551  0.0495 -0.1124 -0.2292
45025W        W87942  30.802  19.154   1.504 -0.1896 -0.0445 -0.1226
45026W        W87943  31.169  16.214   5.039  0.1096 -0.2497  0.1573
45027W        W87944  33.422  14.521  31.694 -0.0847  0.0281 -0.0713
45028W        W87945  33.239  17.042   3.544 -0.0531  0.0301  0.0451
45029W        W87946   0.360  14.143   1.468  0.1244 -0.2725  0.1091
45030W        W87947  30.562  16.316   5.535  0.3169  0.0005 -0.1889
45031W        W87948  31.356  15.703   2.118  0.1448  0.3351 -0.2745
45032W        W87949  31.275  17.878   2.245  0.2131  0.0238 -0.1370
45033W        W87950  30.113  16.842   4.276 -0.3331 -0.2425 -0.0922
45034W        W87951  31.639  15.618   4.950 -0.2457  0.0633  0.0674
45035W        W87952  28.466  18.488   3.281  0.1248  0.0554 -0.1234
45036W        W87953  33.576  16.402  31.810  0.2936 -0.4082  0.0709
45037W        W87954  27.837  16.682   2.109 -0.0604 -0.0431  0.1079
45038W        W87955  32.438  16.856   2.460 -0.1066 -0.1020  0.0224
45039W        W87956  32.155  14.710   2.227 -0.0812  0.3458 -0.1459
45040W        W87957  30.381  16.370  31.822 -0.1450  0.0247  0.0514
45041W        W87958  32.562  14.143   1.104 -0.0458  0.2738  0.0627
45042W        W87959  31.837  15.759  30.755  0.2005 -0.4217 -0.0674
45043W        W87960  29.715  16.483   0.546  0.0123 -0.1603  0.2884
45044W        W87961  30.077  18.428   1.581  0.0768  0.0164  0.3075
45045W        W87962  31.701  15.874   1.727  0.0137 -0.1561 -0.0709
45046W        W87963   1.482  16.271   1.184 -0.1837 -0.1626 -0.0555
45047W        W87964  29.634  16.747   3.631  0.1319  0.1880 -0.1473
45048W        W87965  33.195  15.659   2.245  0.0739 -0.1118 -0.0812
45049W        W87966  31.220  17.094  31.722 -0.0091 -0.1912  0.0552
45050W        W87967  34.398  14.625   0.158 -0.0615  0.1509 -0.0159
45051W        W87968  30.598  16.344   2.222  0.1954 -0.2307  0.0333
45052W        W87969  30.401  16.123   1.755  0.0679  0.3700 -0.0438
45053W        W87970  32.307  15.578   1.240 -0.0627 -0.0223 -0.0888
45054W        W87971  33.569  14.444   2.076  0.2344  0.1375 -0.1738
45055W        W87972  30.852  15.678  31.444 -0.2591 -0.0873 -0.2429
45056W        W87973  32.818  18.586   2.852  0.2153 -0.2032  0.0324
45057W        W87974  28.341  15.185  31.961 -0.1554  0.1135  0.1198
45058W        W87975   0.197  14.515   0.391 -0.0177 -0.0371  0.0958
45059W        W87976  28.830  18.136   1.096 -0.0047 -0.4158  0.1631
45060W        W87977  31.965  16.440   2.932  0.0383 -0.0903 -0.0990
45061W        W87978  32.054  18.194   2.999 -0.0891 -0.0813  0.1825
45062W        W87979  30.218  15.060   1.262 -0.1870  0.0683 -0.0665
45063W        W87980  32.055  17.150  31.844 -0.0959 -0.4302  0.0366
45064W        W87981  32.490  16.500   1.320 -0.1155 -0.1307 -0.1871
45065W        W87982  30.322  19.074   0.824  0.0122  0.0648  0.1919
45066W        W87983  33.489  16.036   1.338  0.2765  0.1038 -0.1271
45067W        W87984  32.505  17.527   0.806 -0.0653  0.1137 -0.3254
45068W        W87985  27.816  14.780   1.897  0.3874  0.0509 -0.0575
45069W        W87986  32.287  17.953   0.687 -0.2855 -0.0928 -0.3637
45070W        W87987  32.659  17.701   2.676 -0.1020 -0.0782  0.4143
45071W        W87988  31.594  15.102   1.065 -0.0337 -0.2813 -0.0263
45072W        W87989  27.305  16.901   3.121 -0.0982 -0.1802  0.0442
45073W        W87990  28.332  19.242   2.377  0.2240 -0.4393  0.0607
45074W        W87991   0.005  15.331   0.965  0.2890 -0.0566  0.1344
45075W        W87992  32.683  15.643   2.071  0.0141 -0.1354  0.1472
45076W        W87993  29.917  18.018   1.866 -0.1981 -0.3664  0.1936
45077W        W87994  30.831  14.330   3.816  0.1280  0.1737  0.1908
45078W        W87995  29.361  19.517   2.911  0.1677  0.1002 -0.1121
45079W        W87996  31.982  18.576   3.528  0.1815  0.0045  0.0836
45080W        W87997  30.605  15.795   0.314  0.1940  0.1721 -0.0036
45081W        W87998  30.985  16.790   4.163  0.0424 -0.4454 -0.0267
45082W        W87999  31.124  18.697   1.634 -0.1241 -0.0357 -0.1205
45083W        W88000  31.775  18.133   1.536 -0.1710 -0.0547 -0.0160
45084W        W88001  33.178  17.648   2.562  0.0558 -0.0557 -0.1441
45085W        W88002  31.115  16.943   0.725 -0.5847 -0.1791 -0.2689
45086W        W88003  32.744  17.689   4.671 -0.0759  0.1341 -0.0048
45087W        W88004  30.381  13.521   0.325 -0.0154 -0.3166 -0.1684
45088W        W88005  33.431  14.264   0.657  0.3159 -0.1450  0.1172
45089W        W88006  32.099  13.562  31.723 -0.0845  0.0509  0.0340
45090W        W88007  31.121  18.313   2.021  0.0570  0.0246 -0.1315
45091W        W88008  28.461  15.501   1.443 -0.2458 -0.1043  0.2452
45092W        W88009  29.654  16.341  31.123  0.3256  0.1699 -0.2403
45093W        W88010  29.277  18.093   2.587 -0.0320  0.0747 -0.2848
45094W        W88011  31.324  14.606   3.726 -0.0583  0.1682  0.0259
45095W        W88012  30.149  15.420   3.021  0.1854 -0.2446  0.0455
45096W        W88013  30.462  17.198   1.293  0.0764  0.1694 -0.3501
45097W        W88014  30.062  16.947   0.487  0.0641 -0.1114 -0.1259
45098W        W88015  32.063  17.742   0.292 -0.1276 -0.3267 -0.1894
45099W        W88016  31.125  14.822   1.841 -0.3492  0.0035  0.1141
45100W        W88017  29.592  14.835   0.935 -0.2605 -0.2195  0.0237
45101W        W88018  31.973  16.588   1.083  0.1235  0.1814 -0.2296
45102W        W88019  32.161  17.287   0.515  0.0871  0.2719  0.0092
45103W        W88020  32.868  13.389   0.734 -0.1862  0.2009  0.0963
45104W        W88021  32.989  19.722   4.061 -0.0056  0.0802  0.1558
45105W        W88022  29.724  15.444   0.172 -0.1124  0.3864  0.0866
45106W        W88023  31.124  15.741   4.246 -0.4418  0.1015 -0.0252
45107W        W88024  31.483  16.268   1.892 -0.1004  0.2852  0.0495
45108W        W88025  30.172  15.347  31.723 -0.1858  0.1925  0.2409
45109W        W88026  32.875  14.509   0.974  0.0445 -0.1744 -0.1896
45110W        W88027  32.508  18.216   2.718  0.1642  0.2143 -0.0419
45111W        W88028  32.441  18.606   2.363  0.2165 -0.0771  0.2369
45112W        W88029  29.959  17.157   2.216 -0.0910 -0.0829 -0.0564
45113W        W88030  30.475  19.581   1.533  0.2511  0.0532  0.0095
45114W        W88031  28.286  15.458   3.395 -0.1370  0.1026  0.2433
45115W        W88032  31.147  15.988   0.394  0.1217  0.0504 -0.1043
45116W        W88033  29.862  18.989   5.093 -0.2147 -0.0535 -0.2705
45117W        W88034  33.336  15.484  30.836  0.2206  0.3078  0.2781
45118W        W88035  34.481  14.393   2.806  0.1921 -0.0172 -0.1778
45119W        W88036  31.541  15.040  31.314  0.1024  0.0789 -0.1159
45120W        W88037  29.588  16.459   3.149  0.0438  0.1182 -0.3366
45121W        W88038  31.196  16.863   3.036 -0.1099 -0.1827 -0.0965
45122W        W88039  32.089  18.219   2.433  0.1072 -0.1241  0.0601
45123W        W88040  30.780  16.359   3.135  0.0891  0.0693 -0.0980
45124W        W88041   0.640  14.224   0.389  0.0359  0.1937  0.2676
45125W        W88042  31.113  15.175  31.128 -0.1963 -0.2845  0.1294
45126W        W88043  28.690  17.316   2.722  0.0092  0.3355 -0.1337
45127W        W88044  31.430  16.794   0.197  0.1881 -0.1503  0.1667
45128W        W88045  30.984  16.106   1.922  0.1236  0.3615 -0.3486
45129W        W88046  31.945  17.113   0.917 -0.3142  0.1082 -0.1749
45130W        W88047  33.172  16.720   4.652 -0.0207 -0.0550  0.0007
45131W        W88048  29.681  16.054   1.427 -0.6627 -0.1170  0.0441
45132W        W88049  33.055  15.815   1.115 -0.0729 -0.2376  0.0207
45133W        W88050  31.759  17.682   2.195  0.1512  0.2634  0.0051
45134W        W88051  31.830  16.987   4.081 -0.2929 -0.0910  0.3681
45135W        W88052  30.875  18.919   2.042  0.2765  0.0177 -0.1005
45136W        W88053  32.759  17.532   1.224 -0.0529  0.0944 -0.1656
45137W        W88054  30.263  16.424   3.007  0.0145 -0.0110  0.0026
45138W        W88055  28.690  17.190   1.069 -0.0121 -0.4406  0.0440
45139W        W88056  31.541  16.644   0.729  0.1085  0.0295  0.0033
45140W        W88057  32.601  16.248  31.801 -0.0557  0.0119  0.0813
45141W        W88058  28.281  14.218   2.510 -0.0057  0.0365  0.3570
45142W        W88059  32.722  16.028  31.298  0.0713  0.0158  0.1778
45143W        W88060  30.324  19.528   2.541 -0.1041 -0.0771 -0.0100
45144W        W88061  30.827  17.822   1.941 -0.2986  0.2204  0.0527
45145W        W88062  29.792  17.474   6.622  0.2928  0.4275  0.2013
45146W        W88063  30.885  16.039   4.663 -0.0393  0.2023 -0.0074
45147W        W88064  32.935  15.787   3.090  0.0595  0.1347  0.0694
45148W        W88065  33.690  15.087   4.246  0.2180 -0.1735  0.0858
45149W        W88066  28.880  15.557   4.706 -0.0313  0.2379 -0.0485
45150W        W88067  32.229  18.193   4.843 -0.1520 -0.0132  0.1103
45151W        W88068  30.303  15.984   6.535  0.2074  0.0491 -0.0369
45152W        W88069  32.123  16.968   8.058  0.1602 -0.0762 -0.1490
45153W        W88070  32.411  17.666   5.096 -0.1504  0.0940 -0.0994
45154W        W88071  31.754  17.749   4.346 -0.3877  0.2365 -0.3710
45155W        W88072  31.301  14.629   7.629 -0.1937 -0.1334  0.2471
45156W        W88073  30.549  18.162   6.357 -0.0732  0.0462  0.1633
45157W        W88074  30.732  13.770   3.821 -0.0409 -0.0353 -0.0112
45158W        W88075  27.160  14.461   5.607  0.2477 -0.1126  0.0850
45159W        W88076  33.116  15.956   6.439 -0.2798  0.0074  0.3496
45160W        W88077  28.749  16.701   4.103 -0.0910  0.2743 -0.0622
45161W        W88078  29.655  15.788   5.990 -0.6089  0.1962 -0.1666
45162W        W88079  31.122  15.600   4.810 -0.0077 -0.2159  0.1056
45163W        W88080  31.202  17.808   5.410 -0.1592 -0.2952  0.0045
45164W        W88081  29.986  16.081   5.724 -0.0503  0.1559  0.3664
45165W        W88082  31.625  13.426   5.942  0.0886 -0.1456 -0.1449
45166W        W88083  30.495  17.659   5.210  0.1430  0.1922 -0.2095
45167W        W88084  29.013  16.557   4.488  0.2038  0.0398  0.0253
45168W        W88085  28.827  16.120   5.285 -0.0945 -0.0322 -0.1475
45169W        W88086  27.658  15.769   5.165  0.1083 -0.2676 -0.0991
45170W        W88087  31.461  16.807   5.436  0.0770 -0.0330  0.1911
45171W        W88088  31.668  16.623   3.822 -0.0796  0.1135  0.0960
45172W        W88089  31.346  18.587   4.889 -0.0423 -0.3892  0.2643
45173W        W88090  30.666  17.055   3.861  0.2018  0.2044 -0.0249
45174W        W88091  32.583  14.570   4.990  0.4850 -0.1604 -0.2282
45175W        W88092  29.516  17.884   3.740  0.0220 -0.1509 -0.3592
45176W        W88093  28.394  19.217   4.180  0.0258 -0.2345  0.1035
45177W        W88094  30.670  19.831   4.767  0.1479  0.0624  0.0748
45178W        W88095  33.120  17.183   4.683 -0.0323 -0.1310 -0.3500
45179W        W88096  32.482  16.938   8.485  0.0828  0.0436 -0.2034
45180W        W88097  30.950  18.858   6.339  0.2213 -0.2679 -0.1843
45181W        W88098  28.925  17.611   3.591 -0.1335 -0.2822  0.3366
45182W        W88099  31.929  18.394   7.013  0.0173  0.0302 -0.0221
45183W        W88100  28.962  18.436   7.139  0.1033 -0.1970 -0.0615
45184W        W88101  28.839  16.117   6.726 -0.0156 -0.1516 -0.0879
45185W        W88102  33.572  15.879   4.678 -0.4958  0.1786 -0.0794
45186W        W88103  31.265  16.793   5.016  0.0639  0.1086 -0.1670
45187W        W88104  30.571  16.671   7.242 -0.1540  0.3243  0.2249
45188W        W88105  29.328  17.386   6.315 -0.0540  0.1559  0.0949
45189W        W88106  29.177  17.872   4.832 -0.2674  0.1306  0.2756
45190W        W88107  32.004  13.495   6.228  0.2877  0.1313 -0.1919
45191W        W88108  31.357  16.448   4.126  0.2204 -0.1071  0.2492
45192W        W88109  30.240  15.592   4.111  0.0136 -0.2607 -0.1664
45193W        W88110  30.985  15.157   3.407 -0.1817 -0.1779 -0.2824
45194W        W88111  31.026  16.899   3.522 -0.2456  0.2566  0.1509
45195W        W88112  30.140  16.430   5.068 -0.1201  0.0638 -0.1201
45196W        W88113  29.453  19.618   3.418  0.1091  0.0491  0.1484
45197W        W88114  31.335  17.379   5.030  0.0685  0.0611  0.2149
45198W        W88115  33.276  17.221   5.603  0.0478  0.0243  0.3789
45199W        W88116  30.572  17.686   4.244 -0.2140  0.0571 -0.3062
45200W        W88117  31.729  16.112   5.681  0.1766 -0.1926  0.3050
45201W        W88118  29.544  17.966   5.173  0.2304  0.2632  0.0832
45202W        W88119  29.319  16.047   5.476 -0.4001  0.1709  0.3772
45203W        W88120  30.442  16.148   4.440 -0.0027 -0.1864 -0.1259
45204W        W88121  34.434  19.381   4.085 -0.1010  0.1546 -0.2373
45205W        W88122  33.088  16.659   3.237 -0.0377  0.1524 -0.1345
45206W        W88123  31.311  15.726   2.678 -0.0104 -0.1369 -0.2129
45207W        W88124  30.388  17.841   6.006 -0.0425  0.3572  0.0610
45208W        W88125  30.684  16.078   7.355  0.2750 -0.2233 -0.0247
45209W        W88126  29.452  16.252   4.610  0.1270 -0.2021 -0.2556
45210W        W88127  33.891  14.969   7.590  0.5068 -0.0530  0.2360
45211W        W88128  30.673  16.943   7.666  0.0067 -0.0188  0.1892
45212W        W88129  31.285  16.347   5.492 -0.0165  0.2750  0.0364
45213W        W88130  31.612  16.150   7.749 -0.2566 -0.0032  0.0002
45214W        W88131  34.153  17.459   6.269  0.1042  0.1324  0.1511
45215W        W88132  32.469  17.056   1.031 -0.3262 -0.3354  0.1395
45216W        W88133  33.311  14.070   7.881 -0.2176  0.0411  0.1064
45217W        W88134  33.093  14.732   4.307  0.0956 -0.1829 -0.0200
45218W        W88135  29.348  17.443   4.547 -0.1568  0.2081 -0.0345
45219W        W88136  29.772  17.947   5.781 -0.1655 -0.0871  0.0505
45220W        W88137  33.810  17.766   5.289 -0.2519 -0.2329 -0.2533
45221W        W88138  33.647  14.537   3.449 -0.0702 -0.2543 -0.1230
45222W        W88139  30.932  19.995   4.298 -0.1276 -0.1761  0.0661
45223W        W88140  31.589  14.212   7.977  0.0732 -0.0126  0.1766
45224W        W88141  30.613  18.924   6.836 -0.1014  0.3583  0.1069
45225W        W88142  30.663  16.061   2.798 -0.1748  0.0003  0.0929
45226W        W88143  29.652  17.422   5.880 -0.2177 -0.3747  0.1090
45227W        W88144  30.064  17.541   2.577 -0.3471  0.0315  0.4156
45228W        W88145  26.841  15.052   3.713 -0.2993 -0.1127 -0.2121
45229W        W88146  30.049  17.762   4.960  0.0222 -0.0254  0.1899
45230W        W88147  32.862  16.095   3.552 -0.0104 -0.0278 -0.0100
45231W        W88148  29.807  13.979   7.048  0.1811  0.1297 -0.0362
45232W        W88149  32.666  14.284   4.264  0.0228 -0.0198 -0.4140
45233W        W88150  30.458  16.279   3.535 -0.1912  0.3018 -0.2096
45234W        W88151  33.053  18.876   5.452  0.1022 -0.0137  0.2818
45235W        W88152  32.790  16.874   4.962  0.1359  0.3306  0.1400
45236W        W88153  32.922  17.332   5.138  0.0631  0.3142  0.0444
45237W        W88154  29.653  15.170   8.606 -0.0408 -0.0534  0.2063
45238W        W88155  28.583  15.807   4.086  0.0434 -0.1347 -0.0019
45239W        W88156  30.309  14.423   7.713 -0.2473 -0.0957 -0.2892
45240W        W88157  29.514  16.330   5.852  0.0862  0.0366 -0.3209
45241W        W88158  32.578  15.178   6.379 -0.1520  0.1752 -0.0270
45242W        W88159  28.985  15.130   5.101  0.0706 -0.2220  0.0148
45243W        W88160  30.621  15.272   3.961 -0.1587 -0.2709  0.0859
45244W        W88161  32.062  15.293   5.087  0.1451 -0.2843 -0.1987
45245W        W88162  29.794  17.442   3.642 -0.0636 -0.0415 -0.3389
45246W        W88163  33.364  16.375   5.766  0.5350 -0.1892  0.2429
45247W        W88164  29.505  18.272   4.619  0.2181  0.1886 -0.1431
45248W        W88165  32.689  17.999   3.644 -0.0747  0.0066 -0.0221
45249W        W88166  33.003  19.260   3.831  0.2051 -0.1677 -0.1584
45250W        W88167  31.590  16.363   6.700  0.0794  0.2333 -0.0587
45251W        W88168  29.689  17.588   4.121  0.0283  0.1062 -0.0335
45252W        W88169  30.045  18.313   6.065  0.2038 -0.1553  0.0317
45253W        W88170  30.607  17.173   4.945 -0.1563 -0.1044  0.0295
45254W        W88171  28.840  12.446   5.873 -0.3309 -0.1356  0.1104
45255W        W88172  32.269  18.567   6.682 -0.3617 -0.2260  0.0901
45256W        W88173  33.789  17.391   8.131  0.0751  0.1773  0.1229
45257W        W88174  29.495  17.137   6.802 -0.3657 -0.2064 -0.1420
45258W        W88175  32.727  16.589   6.958  0.0853  0.2360 -0.2394
45259W        W88176  33.554  16.172   6.230 -0.1170  0.2818 -0.1514
45260W        W88177  32.125  15.779   5.056 -0.0456  0.0228  0.0343
45261W        W88178  29.161  16.540   3.855 -0.1752  0.2200  0.1176
45262W        W88179  31.539  18.165   3.035 -0.1095  0.3494 -0.0144
45263W        W88180  29.509  17.613   2.621 -0.1951 -0.2419 -0.0255
45264W        W88181  29.591  17.026   4.511 -0.3742  0.0561 -0.1632
45265W        W88182  31.844  18.037   3.424  0.1266 -0.0215  0.4287
45266W        W88183  31.683  16.666   6.311  0.0496  0.0954 -0.2553
45267W        W88184  29.423  16.911   8.043  0.0736  0.0064 -0.0190
45268W        W88185  30.958  14.601   7.253 -0.1597 -0.1648  0.2170
45269W        W88186  30.464  16.519   4.010 -0.1474  0.0096 -0.2776
45270W        W88187  30.262  18.988   5.370  0.1837 -0.0559 -0.1703
45271W        W88188  31.561  15.261   4.266  0.1373  0.0987 -0.0676
45272W        W88189  30.593  15.812   6.946 -0.0517  0.2140 -0.3982
45273W        W88190  30.350  16.907   6.269 -0.1600 -0.0370  0.1715
45274W        W88191  32.228  16.795   5.036 -0.1392  0.0231 -0.1477
45275W        W88192  30.413  15.821   3.178 -0.1267 -0.0228  0.2064
45276W        W88193  30.848  15.804   5.229  0.1087 -0.0096  0.0572
45277W        W88194  29.501  18.296   5.562  0.2495 -0.0021  0.4469
45278W        W88195  32.171  17.271   5.896 -0.2556  0.0501  0.0549
45279W        W88196  31.281  17.527   6.174  0.0357  0.0229 -0.3624
45280W        W88197  31.858  17.374   2.690  0.0988 -0.2624  0.0346
45281W        W88198  32.836  19.594   3.389 -0.0210 -0.2861  0.3022
45282W        W88199  28.513  16.644   4.543 -0.2634  0.4433  0.1157
45283W        W88200  31.370  16.103   8.504  0.1906 -0.0343  0.2121
45284W        W88201  30.986  17.060   4.628  0.1197 -0.3012  0.3016
45285W        W88202  29.575  14.504   6.224 -0.0539  0.0593  0.1438
45286W        W88203  29.922  16.473   4.605  0.3604  0.1358  0.1094
45287W        W88204  31.119  14.509   4.290  0.1316  0.5437  0.1039
45288W        W88205  28.386  19.532   3.758  0.2449  0.0832 -0.2387
45289W        W88206  32.213  16.309   5.005  0.1039  0.2373  0.1941
45290W        W88207  33.293  14.016   4.904  0.0011 -0.1603  0.0332
45291W        W88208  32.183  15.249   5.587  0.4203 -0.0306  0.0618
45292W        W88209  31.564  15.789   8.103  0.2616  0.1343 -0.4727
45293W        W88210  32.788  15.360   4.519  0.1501  0.5058  0.0324
45294W        W88211  32.007  16.743   6.714 -0.1162 -0.0102  0.1052
45295W        W88212  31.007  16.518   2.613 -0.1276 -0.0924 -0.0438
45296W        W88213  32.295  16.246   5.523  0.2224  0.1295 -0.1956
45297W        W88214  29.942  16.095   9.016 -0.0636 -0.1349 -0.0800
45298W        W88215  29.098  17.562   6.787  0.1790  0.0713  0.0413
45299W        W88216  31.146  17.584   7.982 -0.0198  0.2252  0.1397
45300W        W88217  31.295  16.828   6.786 -0.0996  0.0923  0.1289
45301W        W88218  30.093  14.413   6.222  0.2642 -0.0586 -0.0628
45302W        W88219  29.272  14.874   3.107 -0.2594  0.2137 -0.0738
45303W        W88220  28.737  17.924   3.978  0.3086  0.2614 -0.1249
45304W        W88221  30.106  16.919   3.711  0.1844  0.2318 -0.0489
45305W        W88222  30.502  15.710   4.927  0.0530  0.0392  0.1714
45306W        W88223  30.551  17.938   4.715  0.0108 -0.0218 -0.1313
45307W        W88224  30.288  17.766   3.006 -0.0870 -0.2208 -0.1207
45308W        W88225  31.706  16.076   6.272  0.0872  0.2414  0.0574
45309W        W88226  29.838  19.218   5.609 -0.1672  0.0814 -0.1220
45310W        W88227  33.061  16.284   5.385  0.0590 -0.0059  0.2329
45311W        W88228  28.750  17.208   4.431 -0.0456 -0.3098 -0.1718
45312W        W88229  31.274  15.638   3.300  0.3585  0.3382 -0.0280
45313W        W88230  28.716  15.657   3.224  0.2303 -0.1782  0.0599
45314W        W88231  32.142  14.449   4.247 -0.2668 -0.0910  0.1937
45315W        W88232  32.658  17.263   4.295  0.2488  0.3306 -0.0078
45316W        W88233  30.418  16.315   6.856 -0.2517 -0.0685  0.3055
45317W        W88234  31.458  15.382   8.449 -0.0791  0.0485  0.1761
45318W        W88235  29.682  17.067   3.993  0.1766  0.0151  0.1451
45319W        W88236  29.896  16.554   8.900  0.0224  0.1293  0.0647
45320W        W88237  31.862  15.070   3.775  0.0752  0.0454  0.1210
45321W        W88238  31.573  14.569   8.880 -0.0459  0.0193  0.0128
45322W        W88239  31.397  15.920   6.631  0.0849  0.2858  0.1442
45323W        W88240  28.483  16.172   4.434  0.1508  0.2574  0.1003
45324W        W88241  32.796  14.810   6.732 -0.1779 -0.0224 -0.1324
45325W        W88242  31.172  14.926   6.856  0.4577  0.2116  0.0698
45326W        W88243  30.864  15.935   3.426 -0.2654  0.1343 -0.1766
45327W        W88244  29.509  18.269   7.500 -0.0737  0.1907  0.1994
45328W        W88245  29.465  15.273   5.064 -0.1309 -0.3196  0.0139
45329W        W88246  31.142  17.375   3.594  0.0688 -0.0938  0.0877
45330W        W88247  30.461  15.336   7.005 -0.1250 -0.1920  0.0064
45331W        W88248  33.052  15.384   7.794  0.0840 -0.1920  0.0015
45332W        W88249  30.788  15.150   6.508 -0.0946 -0.4133 -0.0225
45333W        W88250  31.191  15.010   5.656  0.0144  0.0005  0.0735
45334W        W88251  32.398  15.664   7.055  0.3525  0.0604  0.0742
45335W        W88252  32.234  17.181   6.618  0.0152 -0.3253  0.1263
45336W        W88253  30.318  15.736   7.413  0.1300 -0.1163  0.1583
45337W        W88254  29.649  16.079   7.582 -0.0825 -0.2994  0.0327
45338W        W88255  30.807  15.479   6.103 -0.1905 -0.1060 -0.0730
45339W        W88256  31.986  17.359   5.210 -0.0909 -0.0217  0.1554
45340W        W88257  30.945  15.633   7.460 -0.1887  0.0002 -0.0771
45341W        W88258  29.065  18.152   3.447  0.4980 -0.1274  0.3331
45342W        W88259  29.221  15.537   5.444 -0.2512 -0.0746 -0.1713
45343W        W88260  31.346  17.486   2.521  0.0344 -0.3335 -0.3978
45344W        W88261  31.373  15.750   6.154  0.1071  0.0307  0.0013
45345W        W88262  30.082  16.497   6.543 -0.4851 -0.2010  0.4238
45346W        W88263  28.778  17.154   3.949  0.2314 -0.0196 -0.1992
45347W        W88264  29.506  20.241   4.279 -0.2539 -0.0972  0.1827
45348W        W88265  32.915  16.251   2.854 -0.2032  0.2302  0.0440
45349W        W88266  31.395  17.040   3.877 -0.2496  0.0917 -0.4015
45350W        W88267  32.540  14.586   5.608 -0.0199 -0.1795  0.0575
45351W        W88268  33.181  15.132   6.701  0.1134  0.1044  0.4042
45352W        W88269  32.098  14.715   5.244 -0.1368 -0.0539 -0.1788
45353W        W88270  32.710  13.617   7.175  0.1159 -0.1472  0.0040
45354W        W88271  31.050  13.900   4.163 -0.1647  0.3261  0.4508
45355W        W88272  31.478  17.612   3.361  0.0296  0.2353  0.0529
45356W        W88273  30.299  16.384   6.013 -0.4099  0.1537 -0.3331
45357W        W88274  30.250  18.381   8.568  0.3320 -0.2664 -0.0348
45358W        W88275  30.120  16.023   7.786 -0.0127 -0.1103 -0.3129
45359W        W88276  30.894  16.845   6.306 -0.2166  0.2959  0.2317
45360W        W88277  28.713  16.411   3.132  0.0504  0.0345 -0.0526
45361W        W88278  30.747  17.203   3.288 -0.2082  0.3664 -0.1847
45362W        W88279  32.020  17.704   4.762  0.1600 -0.0543 -0.0742
45363W        W88280  30.211  15.829   3.699  0.0685 -0.0468 -0.0438
45364W        W88281  32.149  14.592   4.707 -0.0047  0.1668 -0.1767
45365W        W88282  29.824  17.792   6.236 -0.0060 -0.1266 -0.2320
45366W        W88283  31.184  16.413   6.335  0.0301  0.3188  0.1145
45367W        W88284  30.770  16.675   4.953 -0.0666  0.2142 -0.1592
45368W        W88285  29.526  16.530   5.390 -0.1037  0.0786 -0.0854
45369W        W88286  30.151  15.553   4.588  0.2401  0.1055 -0.3135
45370W        W88287  32.063  16.115   8.663 -0.0779 -0.1963 -0.0830
45371W        W88288  32.806  17.132   5.707  0.0803  0.2997 -0.1473
45372W        W88289  31.926  17.060   7.613 -0.2335  0.0061 -0.1288
45373W        W88290  32.245  16.712   7.320 -0.3496 -0.3613  0.1612
45374W        W88291  31.692  17.158   6.709 -0.2117  0.1188 -0.2588
45375W        W88292  30.787  14.943   6.066  0.0179  0.0055 -0.0222
45376W        W88293  31.973  17.724   5.991  0.0288 -0.2174  0.1998
45377W        W88294  32.732  14.663   3.879 -0.1691  0.2163  0.1414
45378W        W88295  33.152  14.503   6.425  0.2003  0.1505 -0.4274
45379W        W88296  33.915  18.637   4.291  0.2285 -0.2568  0.4415
45380W        W88297  31.006  15.913   5.801 -0.0081 -0.2952 -0.0162
45381W        W88298  28.539  16.796   5.422  0.1791  0.4138  0.0386
45382W        W88299  33.927  15.347   7.922  0.0618  0.2277  0.1325
45383W        W88300  31.287  15.064   3.816  0.1549 -0.0779 -0.2515
45384W        W88301  32.525  16.103   6.109 -0.0694 -0.0683 -0.1731
45385W        W88302  31.014  17.339   4.177 -0.1325  0.1869 -0.2317
45386W        W88303  30.052  17.102   5.766  0.0177  0.1389 -0.0346
45387W        W88304  31.798  15.204   7.338  0.1049 -0.1361 -0.2692
45388W        W88305  27.923  13.324   4.786 -0.2289  0.0206  0.3792
45389W        W88306  30.042  15.246   7.247 -0.0957  0.2331 -0.0947
45390W        W88307  30.011  16.215   4.178 -0.1858 -0.0338 -0.0037
45391W        W88308  29.526  17.283   5.026 -0.1009 -0.1152  0.5330
45392W        W88309  31.127  17.961   4.824  0.2562 -0.2154 -0.0918
45393W        W88310  32.699  15.635   6.383 -0.3782 -0.2162 -0.0029
45394W        W88311  30.977  14.645   3.335 -0.0875 -0.2279 -0.1889
45395W        W88312  31.732  15.584   6.441  0.2924  0.1042 -0.0498
45396W        W88313  28.735  18.264   4.317 -0.3182  0.2532 -0.2445
45397W        W88314  32.074  15.554   3.882 -0.2427 -0.0012 -0.1562
45398W        W88315  30.830  17.710   5.836 -0.0758 -0.1815  0.0971
45399W        W88316  30.096  16.526   5.547  0.0094 -0.2081 -0.3153
45400W        W88317  28.973  18.603   3.302 -0.1446 -0.2252  0.1693
45401W        W88318  30.737  15.074   7.280 -0.4833 -0.2449 -0.0354
45402W        W88319  30.456  16.835   5.736 -0.1679  0.2893 -0.0252
45403W        W88320  29.655  16.654   6.806 -0.3202 -0.1419  0.2127
45404W        W88321  33.023  15.058   6.264 -0.0349  0.2248  0.1431
45405W        W88322  29.822  18.027   7.904  0.0483 -0.2414 -0.1156
45406W        W88323  30.075  18.437   8.090 -0.0511  0.0199 -0.1566
45407W        W88324  31.944  16.858   4.571  0.0652  0.0125 -0.0168
45408W        W88325  30.962  18.765   3.387 -0.0807  0.0159  0.2308
45409W        W88326  29.945  15.254   5.284  0.1553  0.1175 -0.0468
45410W        W88327  31.854  13.982   6.317 -0.0658 -0.3113  0.1502
45411W        W88328  30.942  16.755   5.413 -0.3122 -0.0147  0.3228
45412W        W88329  29.848  14.760   4.271 -0.1322 -0.0535  0.1875
45413W        W88330  30.221  17.396   4.072  0.1214  0.1043 -0.0766
45414W        W88331  28.068  18.085   6.814  0.1922 -0.0960 -0.0885
45415W        W88332  30.537  17.380   6.221  0.1625 -0.0268  0.0882
45416W        W88333  27.685  16.233   5.629  0.0634 -0.0522 -0.0236
45417W        W88334  31.536  16.966   3.400 -0.0019 -0.0741  0.0830
45418W        W88335  31.702  15.733   4.251  0.2175 -0.2380 -0.3857
45419W        W88336  30.231  18.264   4.487 -0.0615  0.1865 -0.4950
45420W        W88337  30.833  14.573   4.756  0.0067  0.3808 -0.2775
45421W        W88338  29.598  19.739   4.498  0.2637  0.2444  0.2121
45422W        W88339  28.857  17.152   3.226 -0.1674 -0.1357 -0.2465
45423W        W88340  31.335  17.999   6.396 -0.1419 -0.0194 -0.1101
45424W        W88341  31.051  17.879   4.108  0.0496 -0.1105  0.1988
45425W        W88342  31.527  15.671   7.533  0.3113 -0.0966  0.2134
45426W        W88343  31.367  15.315   1.839  0.0809  0.3618 -0.0738
45427W        W88344  31.964  17.611   6.851  0.2372  0.0565 -0.3272
45428W        W88345  33.544  16.351   4.632  0.0524  0.0523 -0.0270
45429W        W88346  32.054  17.104   7.083  0.1006  0.1522  0.0336
45430W        W88347  30.123  15.717   6.906 -0.0922  0.2790  0.2402
45431W        W88348  31.682  15.902   2.986  0.1852  0.1425 -0.2804
45432W        W88349  31.192  16.141   7.516  0.1716  0.0162 -0.2698
45433W        W88350  32.106  15.040   7.800 -0.3330 -0.0448 -0.0115
45434W        W88351  29.547  18.922   4.708  0.1358  0.3836  0.0036
45435W        W88352  31.938  18.035   5.182 -0.2397  0.1604  0.2764
45436W        W88353  31.202  16.036   3.824  0.0928  0.1129  0.1997
45437W        W88354  29.444  16.527   6.317 -0.1136  0.2684 -0.0884
45438W        W88355  31.641  14.241   5.917 -0.2005  0.3537  0.1214
45439W        W88356  30.239  17.528   3.465  0.2431 -0.1606 -0.0218
45440W        W88357  31.254  15.407   5.260  0.0008  0.0181 -0.2026
45441W        W88358  30.666  18.424   4.924 -0.0374  0.0183 -0.3356
45442W        W88359  30.684  17.298   6.682 -0.2584 -0.0565 -0.2633
45443W        W88360  31.414  17.606   8.429 -0.0054  0.0247 -0.1195
45444W        W88361  28.716  16.546   5.014  0.1066 -0.1808  0.3634
45445W        W88362  33.530  15.831   4.121 -0.0785  0.1484 -0.1546
45446W        W88363  29.548  15.122   6.391  0.1881  0.2251  0.0816
45447W        W88364  32.221  14.784   6.498 -0.4392  0.1467 -0.5040
45448W        W88365  30.250  15.183   4.282 -0.3013  0.1597 -0.0953
45449W        W88366  31.536  16.062   3.452 -0.1282  0.3196 -0.0073
45450W        W88367  29.531  16.307   7.162  0.3138  0.1367 -0.1915
45451W        W88368  29.941  14.831   7.032  0.4044 -0.0001  0.1473
45452W        W88369  32.349  15.182   3.648 -0.0727 -0.0251  0.0043
45453W        W88370  30.716  14.903   7.958 -0.0606  0.1138 -0.5202
45454W        W88371  32.356  17.231   2.059  0.1107  0.0561  0.1176
45455W        W88372  33.733  16.678   6.415  0.0048 -0.0116  0.0259
45456W        W88373  28.919  16.057   4.699 -0.1497  0.0135 -0.0773
45457W        W88374  29.405  14.841   3.943 -0.2173  0.1900  0.0775
45458W        W88375  29.861  16.212   6.244  0.2997 -0.4093  0.2168
45459W        W88376  30.245  17.815   6.524  0.0246  0.2257 -0.0363
45460W        W88377  33.055  17.050   6.976 -0.0194 -0.0786 -0.0874
45461W        W88378  29.127  16.839   5.241  0.1705 -0.0196  0.2212
45462W        W88379  30.417  17.421   5.712  0.2578 -0.2733  0.1267
45463W        W88380  30.094  16.987   6.685  0.0427 -0.2767  0.0461
45464W        W88381  30.440  17.754   1.576 -0.0734 -0.2286 -0.3250
45465W        W88382  32.345  15.057   4.723 -0.1489  0.0900  0.0025
45466W        W88383  32.146  17.289   4.299 -0.0379  0.2286  0.0449
45467W        W88384  30.401  16.832   5.273 -0.3441  0.4654  0.3295
45468W        W88385  31.425  17.856   5.843  0.3431 -0.0081 -0.2810
45469W        W88386  30.988  19.511   4.637 -0.3672  0.0244  0.2052
45470W        W88387  30.613  16.426   6.370  0.0476 -0.0108 -0.0919
45471W        W88388  30.887  17.084   7.153  0.3796 -0.2140  0.0373
45472W        W88389  29.250  17.115   3.731  0.1514  0.2033  0.4087
45473W        W88390  32.471  15.501   5.958 -0.0192  0.1498 -0.0987
45474W        W88391  32.318  16.802   6.192  0.0293  0.2463  0.2312
45475W        W88392  29.806  18.800   2.252  0.1540  0.0376 -0.1186
45476W        W88393  31.295  15.241   6.112 -0.1854  0.0296  0.1403
45477W        W88394  30.209  18.637   4.989  0.2674  0.1552 -0.1651
45478W        W88395  30.393  16.427   7.640  0.0054  0.0909 -0.0108
45479W        W88396  29.737  17.592   2.138 -0.0612 -0.2677  0.1327
45480W        W88397  31.370  17.032   6.136 -0.3996  0.0670  0.0871
45481W        W88398  30.057  17.316   6.288 -0.3544  0.1930 -0.2460
45482W        W88399  30.822  17.708   3.238 -0.2581  0.3475  0.0667
45483W        W88400  32.545  19.665   5.125  0.1471  0.0790 -0.5870
45484W        W88401  30.395  15.369   5.386 -0.0340  0.0242 -0.1090
45485W        W88402  32.518  17.786   5.945 -0.1603  0.0395 -0.0217
45486W        W88403  28.710  15.222   6.275  0.0095  0.3918 -0.1059
45487W        W88404  30.840  16.582   5.900 -0.1921  0.1434  0.1937
45488W        W88405  30.698  15.986   6.168 -0.1934  0.2933  0.2042
45489W        W88406  29.440  17.082   7.601  0.0260  0.0347  0.2048
45490W        W88407  26.966  17.573   4.954 -0.0199 -0.0089  0.1199
45491W        W88408  29.340  15.769   4.899  0.0006  0.1095  0.0161
45492W        W88409  28.782  17.769   7.531 -0.0042  0.0858  0.1944
45493W        W88410  31.492  14.764   7.219  0.3598 -0.1549  0.1594
45494W        W88411  30.603  16.763   6.715  0.0331 -0.2999  0.1320
45495W        W88412  29.351  19.629   5.579  0.0231 -0.2139 -0.1879
45496W        W88413  29.845  16.867   5.223  0.0621  0.0487 -0.0776
45497W        W88414  32.472  18.118   5.312  0.0135  0.1736 -0.0198
45498W        W88415  28.096  15.788   4.798  0.2952 -0.1468  0.0698
45499W        W88416  27.822  16.224   5.081 -0.1658  0.3050 -0.0504
45500W        W88417  31.654  17.926   7.151 -0.1795  0.2294  0.0556
45501W        W88418  31.783  15.656   5.452  0.2105 -0.2571 -0.0300
45502W        W88419  27.583  15.163   4.408  0.1236  0.0822  0.1720
45503W        W88420  32.627  17.910   7.293 -0.0189  0.1199 -0.3032
45504W        W88421  27.997  16.242   3.815 -0.0743  0.1835 -0.0657
45505W        W88422  31.608  13.784   7.298 -0.1139 -0.0238  0.0769
45506W        W88423  29.951  14.863   5.984 -0.0545  0.0083  0.1093
45507W        W88424  29.210  15.093   3.568 -0.1287 -0.1050 -0.0591
45508W        W88425  30.384  14.932   6.401  0.0915 -0.1080 -0.1827
45509W        W88426  32.600  18.307   3.981 -0.1965 -0.2959 -0.0456
45510W        W88427  31.742  15.150   4.719  0.1729  0.0789 -0.0831
45511W        W88428  30.840  17.188   5.864  0.1259 -0.3674  0.0465
45512W        W88429  29.890  17.289   7.573 -0.1125  0.3219 -0.0000
45513W        W88430  29.002  12.299   8.439 -0.0214  0.1090  0.0490
45514W        W88431  32.587  16.830   4.550  0.0728 -0.0829  0.2143
45515W        W88432  31.848  15.464   5.937 -0.1454  0.2635 -0.1230
45516W        W88433  32.117  16.340   6.428  0.1572  0.0860  0.0025
45517W        W88434  32.914  15.569   5.756  0.1726  0.4113 -0.2446
45518W        W88435  31.042  14.686   5.223  0.0349 -0.0929  0.1043
45519W        W88436  28.909  13.613   6.643 -0.0684  0.1661 -0.2825
45520W        W88437  29.952  13.939   6.225 -0.0957  0.4397 -0.0741
45521W        W88438  33.218  15.579   4.377 -0.0609 -0.1145  0.0463
45522W        W88439  29.842  15.210   4.666  0.5462  0.1795  0.1193
45523W        W88440  28.382  17.509   4.170 -0.1982  0.1804  0.3173
45524W        W88441  32.946  17.815   5.104  0.0658 -0.1041  0.0313
45525W        W88442  28.877  15.684   6.983 -0.0100  0.1270 -0.0149
45526W        W88443  29.735  15.844   4.471  0.0946  0.1353 -0.0239
45527W        W88444  29.296  16.050   6.417 -0.0529  0.2609 -0.0421
45528W        W88445  30.982  18.098   6.063  0.3050 -0.1892  0.0637
45529W        W88446  30.590  17.612   8.234 -0.0476 -0.3480 -0.0831
45530W        W88447  28.347  15.954   3.586 -0.4964  0.2987  0.1643
45531W        W88448  31.649  17.328   5.924 -0.1530  0.3039 -0.0011
45532W        W88449  30.009  18.367   5.537  0.1946 -0.4655  0.1834
45533W        W88450  33.985  18.732   5.754 -0.1086 -0.0145 -0.0028
45534W        W88451  29.988  17.271   4.627  0.1175 -0.1429 -0.1546
45535W        W88452  31.349  18.443   6.076  0.1845 -0.1192  0.1447
45536W        W88453  29.949  14.343   4.477 -0.1591 -0.1708  0.3707
45537W        W88454  30.239  16.793   4.800 -0.1431 -0.0364  0.2307
45538W        W88455  31.748  16.945   5.021 -0.4288  0.1418 -0.2233
45539W        W88456  31.682  17.618   5.501 -0.0019 -0.2045 -0.1582
45540W        W88457  30.206  18.240   6.749  0.2059 -0.0740  0.0995
45541W        W88458  29.911  14.792   3.702  0.0402 -0.0285  0.1418
45542W        W88459  29.298  17.840   5.979 -0.0021 -0.0144  0.2618
45543W        W88460  33.810  17.100   6.078  0.2099 -0.2018  0.2460
45544W        W88461  29.133  18.334   9.492 -0.1369  0.1463  0.1681
45545W        W88462  29.373  14.089   7.856  0.0582  0.4050  0.0202
45546W        W88463  31.891  14.578   6.803 -0.3483 -0.3053  0.0827
45547W        W88464  32.124  15.490   8.730 -0.0168  0.1783  0.3973
45548W        W88465  31.672  12.358   5.980 -0.1490 -0.1098  0.0279
45549W        W88466  32.419  19.261   9.645  0.1137 -0.2146  0.2008
45550W        W88467  33.444  21.836   9.199 -0.0325 -0.0255 -0.3050
45551W        W88468  32.639  15.163   9.177  0.2751 -0.2808 -0.2771
45552W        W88469  31.196  17.061   7.730 -0.1161  0.0513  0.2987
45553W        W88470  30.174  13.654   8.054 -0.2408  0.1323 -0.2789
45554W        W88471  29.603  12.717   7.816 -0.3510  0.0115  0.2658
45555W        W88472  27.558  15.190   8.287  0.1860  0.1249 -0.1039
45556W        W88473  31.079  14.076   8.254 -0.5113 -0.3553  0.0025
45557W        W88474  30.310  14.504   6.795  0.1172 -0.0742 -0.1161
45558W        W88475  31.021  15.610   8.334 -0.0642 -0.0665 -0.1228
45559W        W88476  30.088  14.339   7.257 -0.0619 -0.0508  0.1944
45560W        W88477  30.366  16.745   8.050  0.2740 -0.5792  0.0797
45561W        W88478  27.428  13.928   9.301  0.1462 -0.0188  0.0933
45562W        W88479  30.327  16.629   8.536 -0.1852  0.0544  0.0254
45563W        W88480  30.166  15.802   6.110  0.2326 -0.4070 -0.0872
45564W        W88481  29.571  17.309   8.527  0.0431  0.0520  0.1109
45565W        W88482  30.952  15.424   8.812  0.0956  0.1300  0.0749
45566W        W88483  29.746  13.896   8.365 -0.2738  0.0997 -0.2443
45567W        W88484  33.853  16.107   9.328  0.2452  0.2770 -0.1245
45568W        W88485  31.078  18.799   8.799  0.1871 -0.0689 -0.1474
45569W        W88486   0.594  18.321   8.885  0.0845 -0.3476  0.1802
45570W        W88487  29.433  14.439   8.280  0.1062  0.1665  0.3308
45571W        W88488  28.601  16.974   9.309  0.1479  0.0614 -0.0184
45572W        W88489  28.636  17.047   8.439  0.2998  0.1160  0.3125
45573W        W88490  33.457  18.828   8.769  0.0217 -0.1278 -0.1348
45574W        W88491  29.507  17.649   7.594  0.0085 -0.0426 -0.1230
45575W        W88492  29.816  14.754   8.850  0.1072 -0.3177 -0.0771
45576W        W88493  30.943  15.429   6.982  0.0764 -0.0681  0.2018
45577W        W88494  28.860  17.395   9.113 -0.0557 -0.0947 -0.0036
45578W        W88495  31.220  15.188   7.505 -0.0437  0.1061 -0.0970
45579W        W88496  30.261  15.284   9.678  0.0484 -0.1164 -0.1265
45580W        W88497  30.167  17.955   8.794 -0.2226  0.1616 -0.1159
45581W        W88498  31.958  15.677   7.256  0.3709  0.2774  0.0252
45582W        W88499  30.727  13.587   6.847 -0.2873  0.0515 -0.0344
45583W        W88500  32.809  15.759   8.077  0.0713 -0.3010 -0.1463
45584W        W88501  31.396  14.911   8.486  0.1642  0.2792 -0.2712
45585W        W88502  30.809  18.567   9.417  0.2644 -0.0636 -0.0474
45586W        W88503  29.700  15.010   9.338  0.1064  0.1896  0.4277
45587W        W88504  30.798  14.643   8.598 -0.0152 -0.0976  0.1455
45588W        W88505  31.728  15.794   8.652 -0.0122 -0.0192 -0.0937
45589W        W88506  31.085  18.032   8.295  0.0153  0.0194 -0.0286
45590W        W88507  28.401  16.853   8.042 -0.2099 -0.2219  0.1366
45591W        W88508  32.545  17.256   8.090 -0.0718  0.2385  0.3988
45592W        W88509  32.980  17.110   7.562  0.1065 -0.1418 -0.0869
45593W        W88510  31.899  18.594   6.355  0.0256 -0.2472  0.1225
45594W        W88511  30.099  14.144   9.280 -0.0868  0.0081 -0.2622
45595W        W88512  29.898  14.736   7.544  0.5623 -0.1663 -0.1214
45596W        W88513  32.166  15.104   9.696  0.1467  0.1021  0.0193
45597W        W88514  32.228  16.598   8.707 -0.1061  0.3875 -0.0700
45598W        W88515  34.354  15.468   8.187  0.1582 -0.6378  0.2235
45599W        W88516  32.963  15.192   8.290  0.0242  0.0028  0.0160
45600W        W88517  32.074  13.079   7.951  0.0874  0.1791  0.1258
45601W        W88518  31.247  12.720   8.644  0.1088  0.0665 -0.0572
45602W        W88519  29.727  15.806   7.144  0.1124 -0.1114 -0.2953
45603W        W88520  30.524  15.810   8.296 -0.0962 -0.1679  0.2983
45604W        W88521  31.780  17.578   8.765  0.0313  0.1276  0.4324
45605W        W88522  32.713  16.748   8.008 -0.2997  0.1263  0.1941
45606W        W88523  28.470  14.459   8.861  0.0114  0.1053 -0.1644
45607W        W88524  28.387  17.500   4.756 -0.1468  0.4279 -0.0241
45608W        W88525  32.520  14.258   9.099  0.1173 -0.0749 -0.0690
45609W        W88526  29.462  16.334   8.976 -0.0097  0.0173 -0.0541
45610W        W88527  29.554  12.077  10.106 -0.2472  0.2864  0.1456
45611W        W88528  28.573  17.981   9.033  0.2253  0.0323  0.1391
45612W        W88529  31.889  13.590   6.752  0.0894  0.0546 -0.2311
45613W        W88530  32.172  14.159   7.226  0.1628  0.0838 -0.1524
45614W        W88531  29.216  15.709   8.458 -0.0011 -0.1548  0.3009
45615W        W88532  33.548  17.633   8.966 -0.1973  0.3957  0.1562
45616W        W88533  31.944  15.122   6.259 -0.4489 -0.0239 -0.0312
45617W        W88534  31.248  18.061   6.887 -0.2275  0.0212  0.2117
45618W        W88535  29.455  14.398   8.789 -0.0652 -0.1752 -0.1262
45619W        W88536  31.378  12.234   8.534 -0.2178  0.0299 -0.0050
45620W        W88537  33.983  14.466   9.248 -0.0651 -0.0461  0.1835
45621W        W88538  27.895  14.411   5.942 -0.0373  0.2899  0.0720
45622W        W88539  29.461  14.682   9.617 -0.3283 -0.3744 -0.1381
45623W        W88540  29.494  16.907   8.945 -0.0824 -0.0655  0.0969
45624W        W88541  28.518  14.750   7.968  0.3979 -0.2133  0.0866
45625W        W88542  30.817  17.416   7.636 -0.0917 -0.2221 -0.1285
45626W        W88543  30.142  17.648   7.890 -0.0830 -0.1391 -0.1027
45627W        W88544  32.834  17.464   8.500  0.3465 -0.1077  0.0698
45628W        W88545  31.401  14.911   9.320 -0.1450 -0.3763 -0.1543
45629W        W88546  30.327  14.771   8.445  0.1176  0.0143 -0.0069
45630W        W88547  28.909  16.545   8.199 -0.1839 -0.3160  0.0736
45631W        W88548  31.578  17.269   7.918  0.1898  0.0582 -0.0412
45632W        W88549  30.127  11.082   8.546 -0.2817  0.0670 -0.0007
45633W        W88550  30.595  16.796   9.435 -0.0196  0.1937  0.0603
45634W        W88551  30.396  15.603   8.782  0.1738  0.0271  0.0606
45635W        W88552  29.722  14.130   9.733 -0.0636  0.0033 -0.0020
45636W        W88553  30.618  15.015   8.879  0.1285  0.2793 -0.1361
45637W        W88554  29.052  14.283   7.143 -0.3780 -0.2617 -0.1704
45638W        W88555  33.237  17.136   9.431  0.2047 -0.1580 -0.4170
45639W        W88556  31.081  17.217   9.684 -0.0202 -0.0713  0.0721
45640W        W88557  29.848  13.983   7.608  0.0924  0.2998  0.0629
45641W        W88558  30.807  17.292   9.050 -0.0197 -0.1334  0.1116
45642W        W88559  32.084  15.145   9.185  0.0696 -0.0961 -0.3997
45643W        W88560  27.750  13.878   8.075  0.1416  0.5159  0.0264
45644W        W88561  32.041  11.940   7.465 -0.2679 -0.0511 -0.2030
45645W        W88562  31.819  13.041   6.214  0.0524 -0.0625 -0.0052
45646W        W88563  30.757  18.413   7.606 -0.1081  0.2087  0.0799
45647W        W88564  32.541  15.549   5.422  0.1677  0.1302  0.0838
45648W        W88565  31.883  16.525   5.347 -0.1119  0.2141 -0.3195
45649W        W88566  31.202  17.260   6.574  0.0377 -0.1145 -0.1133
45650W        W88567  31.189  15.610   7.863  0.0856 -0.0872 -0.0136
45651W        W88568  32.937  13.521   7.821  0.1393 -0.0613  0.0663
45652W        W88569  32.920  18.469   8.203  0.0013  0.1216 -0.2735
45653W        W88570  30.459  15.960   9.192  0.0173 -0.1612  0.1104
45654W        W88571  32.824  17.042   8.758  0.1158 -0.1535 -0.1536
45655W        W88572  27.976  14.825   8.882  0.1322  0.2852 -0.0389
45656W        W88573  28.722  15.031   7.071  0.1200  0.0517 -0.3756
45657W        W88574  30.601  13.935   8.256  0.1584  0.1862 -0.0552
45658W        W88575  29.243  17.804   8.039  0.0714  0.1294 -0.0156
45659W        W88576  33.738  18.637  12.839  0.1228 -0.0154  0.3787
45660W        W88577  30.296  13.389   8.886  0.2171 -0.4103  0.1083
45661W        W88578  32.094  16.080   7.873  0.0454  0.0290 -0.3433
45662W        W88579  30.237  14.599   9.003 -0.2582  0.1401 -0.1474
45663W        W88580  27.462  14.095   8.443  0.1194 -0.0718  0.0078
45664W        W88581  33.821  15.392   8.509  0.0246 -0.1382 -0.4990
45665W        W88582  31.852  16.472   9.327  0.0214 -0.1246  0.0208
45666W        W88583  28.945  16.066   7.811 -0.1398 -0.1762  0.2644
45667W        W88584  32.344  11.507   6.384  0.0606 -0.0208  0.2595
45668W        W88585  30.333  18.419   9.187  0.1757  0.0786 -0.0890
45669W        W88586  30.836  17.663   9.475 -0.0936  0.1064  0.1140
45670W        W88587  32.231  17.486   8.554  0.0896 -0.1147 -0.2801
45671W        W88588  31.139  18.192   8.873 -0.2047 -0.0132  0.0766
45672W        W88589  29.969  18.714   6.766 -0.1430 -0.0031 -0.1339
45673W        W88590  32.225  17.284   9.434  0.1414 -0.0346  0.0696
45674W        W88591  29.982  16.487   7.942 -0.2839  0.0861  0.3929
45675W        W88592  31.127  14.601   8.099 -0.2098 -0.2481  0.0888
45676W        W88593  26.197  16.500   8.609 -0.0872 -0.0795  0.1328
45677W        W88594  30.795  14.121   8.687  0.0926 -0.2742  0.2647
45678W        W88595  29.699  15.138   7.742 -0.0991  0.0659 -0.0847
45679W        W88596  32.107  15.760   9.625  0.1389  0.2580  0.1337
45680W        W88597  32.219  15.420   6.590 -0.2524 -0.1686  0.0445
45681W        W88598  28.945  13.719   9.164  0.2956 -0.0609 -0.3743
45682W        W88599  30.376  16.093   8.698  0.1309  0.0650  0.1526
45683W        W88600  30.080  19.411   8.646  0.0654 -0.0391  0.1184
45684W        W88601  31.529  12.986   6.662 -0.0798  0.5587 -0.0962
45685W        W88602  28.695  14.440   6.814  0.0789 -0.0549  0.1877
45686W        W88603  30.583  15.467   9.219 -0.0536 -0.0217  0.2242
45687W        W88604  32.042  14.846   8.267 -0.2195  0.1068  0.0302
45688W        W88605  28.703  17.567   8.081 -0.2313 -0.1355 -0.3502
45689W        W88606   0.172  17.931   8.930  0.1810  0.0270 -0.0989
45690W        W88607  27.763  14.226   8.831 -0.3075  0.1662  0.1934
45691W        W88608  29.184  16.666   8.591  0.0511  0.1093  0.2874
45692W        W88609  29.660  17.422   8.054 -0.0357  0.3699  0.0595
45693W        W88610  31.994  19.235   9.271 -0.1002 -0.1089  0.2015
45694W        W88611  31.757  13.358   7.659 -0.2008  0.0380  0.1817
45695W        W88612  32.332  13.779   9.268  0.0350  0.0300  0.0213
45696W        W88613   1.092  15.944  10.003 -0.2563 -0.0362 -0.2080
45697W        W88614  32.159  14.630   9.082  0.0017  0.1654  0.0813
45698W        W88615  29.916  11.901   9.414 -0.0069 -0.0383 -0.1316
45699W        W88616  32.185  18.023   7.023  0.1714  0.2444  0.1507
45700W        W88617  30.410  15.171   5.933  0.2708  0.0199  0.4304
45701W        W88618  29.365  15.677   7.785  0.0698  0.3091  0.1257
45702W        W88619  31.417  17.432   9.328 -0.0595 -0.2073  0.1163
45703W        W88620  34.125  14.749   8.864 -0.0288  0.0407  0.0659
45704W        W88621  31.469  17.157   8.765 -0.0857  0.0313  0.1294
45705W        W88622  29.867  15.644   7.622  0.1663 -0.0911 -0.1636
45706W        W88623  29.311  17.556   8.937 -0.2646 -0.2781 -0.1857
45707W        W88624  32.908  13.390   8.883  0.0158  0.4750 -0.0538
45708W        W88625  31.110  16.970   9.230  0.0670  0.1902 -0.1691
45709W        W88626  32.702  16.512   9.426  0.1755 -0.0069 -0.1621
45710W        W88627  32.242  16.341   6.902 -0.3263 -0.1756  0.0424
45711W        W88628  29.931  13.405   8.412 -0.2387 -0.1792  0.0955
45712W        W88629  32.813  15.410   6.835  0.3462  0.0506  0.0142
45713W        W88630  31.942  13.899   7.666 -0.0845  0.2131  0.0581
45714W        W88631  29.881  14.792   6.517 -0.1204  0.0154 -0.3518
45715W        W88632  30.691  14.884   9.773  0.0771  0.0218 -0.1336
45716W        W88633  32.815  16.078   9.170  0.0317 -0.0718  0.2502
45717W        W88634  30.909  15.059   9.367 -0.2447 -0.1073 -0.0368
45718W        W88635  31.525  16.962   9.570 -0.3527  0.2360 -0.1694
45719W        W88636  29.269  15.312   8.874  0.1163 -0.2310  0.0918
45720W        W88637  31.018  15.878   9.452 -0.0396 -0.0808  0.1202
45721W        W88638  30.931  15.804   6.535  0.0877 -0.4859 -0.0421
45722W        W88639  33.130  18.284   9.065 -0.0022 -0.2617  0.1999
45723W        W88640  33.792  16.293   8.824  0.4015 -0.3230 -0.1037
45724W        W88641  30.407  15.237   8.313  0.0949 -0.2445 -0.2526
45725W        W88642  30.890  16.858   8.741 -0.0220 -0.1199 -0.0679
45726W        W88643  30.327  14.276   8.603  0.1219 -0.5193 -0.0007
45727W        W88644  28.951  16.695   9.030  0.3098  0.0994 -0.0114
45728W        W88645  33.639  14.823   8.674 -0.0065 -0.0891 -0.2472
45729W        W88646  32.253  15.346   7.458 -0.0641  0.0342 -0.1191
45730W        W88647  29.935  14.099   8.806 -0.0310 -0.0555  0.1519
45731W        W88648  30.953  16.264   6.788 -0.0516  0.0956 -0.0929
45732W        W88649  31.972  18.665   4.900  0.2038 -0.3487 -0.4203
45733W        W88650  31.491  16.710   9.023 -0.0653 -0.1013  0.1367
45734W        W88651  31.331  12.975   6.235  0.0434 -0.0034  0.1840
45735W        W88652  28.238  14.509  12.430 -0.0198 -0.2822  0.0587
45736W        W88653  32.320  13.522   5.859 -0.3210 -0.0089 -0.1092
45737W        W88654  29.987  15.613   8.558  0.1399 -0.0152  0.2923
45738W        W88655  30.667  18.021   9.046  0.1201 -0.0964  0.1747
45739W        W88656  30.843  15.351   5.638 -0.2208  0.0894  0.2304
45740W        W88657  27.387  14.894   9.151  0.1681  0.3594 -0.1422
45741W        W88658  31.373  13.202   7.398 -0.0615  0.2852 -0.2737
45742W        W88659  30.309  18.165   7.675 -0.0664 -0.2397 -0.0667
45743W        W88660  31.820  17.185   8.317  0.5085  0.1771 -0.1557
45744W        W88661  33.305  10.463   9.350  0.2089 -0.0581 -0.2320
45745W        W88662  32.326  16.131   9.129  0.2060 -0.2459  0.2508
45746W        W88663  31.612  16.026   7.128 -0.1483  0.1746 -0.4461
45747W        W88664  32.045  18.695   9.322 -0.0300  0.0922  0.1186
45748W        W88665  30.887  16.505   7.715 -0.2407 -0.1264 -0.0726
45749W        W88666  30.719  10.991   9.906 -0.0768 -0.2555 -0.1499
45750W        W88667  30.323  17.220   7.926 -0.0818 -0.3272 -0.0631
45751W        W88668  30.351  13.951   7.635 -0.0786  0.1782  0.0660
45752W        W88669  29.152  17.334   8.259 -0.3041  0.0145  0.1651
45753W        W88670  29.302  14.825   9.071  0.1919  0.0038 -0.0869
45754W        W88671  26.611  19.700   6.045  0.3108 -0.1708 -0.1061
45755W        W88672  31.291  17.063   8.300 -0.0470 -0.2204  0.1737
45756W        W88673  30.812  16.356   8.521  0.1132  0.1010  0.1062
45757W        W88674  30.953  19.735   8.494 -0.0708  0.1959 -0.1940
45758W        W88675  30.413  13.244   7.584  0.0058  0.0909 -0.3813
45759W        W88676  29.726  15.892   8.078 -0.1919 -0.0610 -0.1508
45760W        W88677  28.337  19.071   6.685 -0.1975 -0.0625  0.3902
45761W        W88678  33.263  17.607   6.592  0.4088 -0.2921 -0.1880
45762W        W88679  28.299  17.304   8.199  0.1112  0.1227 -0.0998
45763W        W88680  32.362  13.731   6.876  0.0286  0.2242  0.0716
45764W        W88681  32.851  14.175   9.502 -0.0393  0.0932 -0.0594
45765W        W88682  34.490  16.373   7.129  0.1721 -0.1756 -0.0829
45766W        W88683  30.917  20.200   8.801 -0.0763 -0.0319  0.2365
45767W        W88684  31.288  13.417   4.441 -0.2839  0.0836  0.1132
45768W        W88685  33.393  18.402   4.652  0.2039 -0.0953 -0.2551
45769W        W88686  29.367  14.257   5.145 -0.0313  0.2974 -0.1017
45770W        W88687  30.181  14.949   7.895 -0.2036  0.2127  0.2051
45771W        W88688  32.212  16.460   8.192  0.2230  0.1664 -0.0753
45772W        W88689  30.545  16.469   8.981 -0.0726  0.0797  0.0657
45773W        W88690  32.324  13.941   8.003 -0.2268 -0.0892  0.0394
45774W        W88691  33.471  16.917   7.409  0.1140 -0.1711 -0.1131
45775W        W88692  28.625  16.554   8.672  0.1442 -0.1409  0.2708
45776W        W88693  30.345  17.034   8.964  0.1748  0.1306 -0.4518
45777W        W88694  29.243  13.291   7.485 -0.2966 -0.0334 -0.2761
45778W        W88695  31.958  13.993   8.359  0.0964  0.1313  0.0103
45779W        W88696  28.169  14.179   9.279 -0.0547  0.2881  0.1025
45780W        W88697  30.253  15.591   7.960  0.0725 -0.0668  0.0999
45781W        W88698  30.211  16.463   9.383 -0.0500  0.0573 -0.0906
45782W        W88699  30.520  19.675   8.870  0.1000  0.0353  0.0461
45783W        W88700  30.850  13.809   9.199  0.0265 -0.0226 -0.0360
45784W        W88701  31.305  14.188   7.438 -0.0118 -0.0559  0.0448
45785W        W88702  30.343  17.109   7.098 -0.1075  0.2228  0.0147
45786W        W88703  29.386  12.204   8.727  0.1667  0.1317  0.1841
45787W        W88704  32.543  15.319   7.846 -0.0812 -0.0927  0.3469
45788W        W88705  29.706  15.639   8.933  0.2174 -0.1077 -0.3629
45789W        W88706  28.876  13.764   8.671 -0.0012 -0.0781 -0.0427
45790W        W88707  29.297  11.724   7.634 -0.1287 -0.1908  0.1687
45791W        W88708  32.925  17.512   7.242  0.0158 -0.1395 -0.0109
45792W        W88709  32.556  13.362   9.362  0.0446 -0.2811  0.1155
45793W        W88710  31.325  17.288   5.499  0.0425  0.1021 -0.2566
45794W        W88711  32.529  17.513   7.606  0.2148 -0.1086 -0.1205
45795W        W88712  31.723  17.843   7.719 -0.2379 -0.1635  0.0596
45796W        W88713  30.000  14.771   9.706 -0.3505 -0.0089  0.0505
45797W        W88714  31.047  19.729   7.659 -0.0054  0.0254 -0.0717
45798W        W88715  32.999  16.220   8.199 -0.0522 -0.0625  0.0668
45799W        W88716  32.427  14.280   7.656  0.4688  0.0150  0.2615
45800W        W88717  29.855  14.360   8.427 -0.1876 -0.1369  0.0845
45801W        W88718  29.803  14.383   7.897  0.3161 -0.1429 -0.3025
45802W        W88719  31.985  15.617   7.742  0.0121  0.0244  0.2333
45803W        W88720  29.669  15.954   9.423  0.1460 -0.2662 -0.0046
45804W        W88721  28.170  12.051   8.384  0.2014 -0.1360  0.0421
45805W        W88722  30.383  15.288   7.577  0.0102  0.1635  0.0126
45806W        W88723  30.072  16.612   7.056  0.0718 -0.0322  0.1509
45807W        W88724  31.235  18.038   7.659  0.2140  0.3205  0.0356
45808W        W88725  30.814  17.173   8.078 -0.0315 -0.1485  0.2766
45809W        W88726  30.703  15.463   7.952 -0.2978  0.0936  0.1301
45810W        W88727  33.450  16.233   7.886 -0.0357 -0.1286 -0.0229
45811W        W88728  29.699  14.437   9.298 -0.1650  0.0412 -0.1011
45812W        W88729  32.684  16.539   8.898  0.1292  0.3574  0.3174
45813W        W88730  32.805  13.935   8.241 -0.2400  0.0731 -0.2193
45814W        W88731  31.110  18.409   7.973  0.1680 -0.1057 -0.1510
45815W        W88732  31.084  16.556   7.193 -0.1376 -0.1685 -0.2027
45816W        W88733  29.843  16.105   6.763 -0.1729 -0.1656 -0.0180
45817W        W88734  28.946  14.917   8.124  0.1458  0.0220 -0.1476
45818W        W88735  31.319  18.664   9.800  0.0187 -0.0517 -0.2328
45819W        W88736  31.199  14.439   8.574  0.3320  0.0871  0.2278
45820W        W88737  30.952  17.587   7.001 -0.0175  0.0035 -0.1284
45821W        W88738  30.522  13.305   8.237  0.4621 -0.0448 -0.0219
45822W        W88739  27.806  17.440   8.129  0.1159 -0.1883  0.0778
45823W        W88740  32.775  17.048   9.256 -0.2124 -0.0799  0.0151
45824W        W88741  33.429  17.344   8.458  0.1726 -0.0741 -0.1011
45825W        W88742  31.464  14.348   6.423  0.2259 -0.0220  0.1800
45826W        W88743  29.467  15.353   5.897  0.3872  0.0504  0.3653
45827W        W88744  26.722  15.190   5.446 -0.0313 -0.2264 -0.2231
45828W        W88745  27.327  15.974   8.849 -0.1474  0.0347 -0.1952
45829W        W88746  29.575  19.920  13.691  0.0915  0.1452  0.0428
45830W        W88747  32.102  16.145   7.395 -0.1439 -0.3579  0.0449
45831W        W88748  28.988  11.508   9.160 -0.2475  0.1064 -0.1552
45832W        W88749  30.885  16.404   9.568 -0.3537  0.0067  0.1840
45833W        W88750  33.967  16.904   8.073 -0.0862 -0.1222  0.3532
45834W        W88751  31.846  15.046   8.658  0.0050 -0.4882  0.4169
45835W        W88752  31.753  15.345   9.500  0.3665  0.0013 -0.1404
45836W        W88753  30.155  17.912   9.321 -0.2598  0.3284 -0.0275
45837W        W88754  30.408  13.921   8.972 -0.0680 -0.0128  0.0887
45838W        W88755  31.777  16.734   8.593  0.4968 -0.0712  0.4232
45839W        W88756  33.296  18.251   8.527  0.1460 -0.2310  0.0892
45840W        W88757  29.228  12.959   9.529 -0.0376 -0.2226  0.0193
45841W        W88758  30.900  13.012   8.249 -0.0118 -0.0747  0.2180
45842W        W88759  31.274  15.055   9.912 -0.2903 -0.2695 -0.1513
45843W        W88760  29.517  16.419   7.997  0.0455  0.0708 -0.1286
45844W        W88761  32.496  15.298   8.426 -0.1661  0.0537 -0.2071
45845W        W88762  30.534  19.147   8.770  0.0432 -0.0561  0.0051
45846W        W88763  31.296  16.575   8.576  0.1267  0.1783 -0.1241
45847W        W88764  33.381  15.271   8.764 -0.0158  0.0750  0.4022
45848W        W88765  29.554  12.416   8.251  0.0860  0.2322 -0.1400
45849W        W88766  31.325  15.743   8.966  0.0833  0.0605 -0.2394
45850W        W88767  29.227  15.149   7.669 -0.2218  0.1003 -0.0199
45851W        W88768  29.659  13.132   8.791  0.1074 -0.1724  0.0167
45852W        W88769  30.093  15.519   9.270  0.0256 -0.3803  0.0097
45853W        W88770  32.673  14.135   7.147  0.2064  0.1148 -0.0168
45854W        W88771  32.013  18.224   8.040  0.2804 -0.1445 -0.2469
45855W        W88772  32.065  18.174   9.238  0.3226  0.1711  0.1938
45856W        W88773  29.714  20.629   2.144  0.1981 -0.0261 -0.3379
45857W        W88774  28.983  20.855   2.596 -0.0075 -0.2104  0.2902
45858W        W88775  31.443  19.310  30.791 -0.0231 -0.2306  0.2718
45859W        W88776  32.301  21.927  31.033  0.0065 -0.1937  0.0762
45860W        W88777  28.242  20.163   0.955  0.2650  0.0537  0.0686
45861W        W88778  31.549  20.270   1.936 -0.0550 -0.5920  0.1687
45862W        W88779  28.869  19.150   1.381 -0.0199 -0.0329  0.0438
45863W        W88780  32.740  21.410   1.114 -0.0529 -0.0491  0.0148
45864W        W88781  31.405  19.816   0.268  0.1039  0.1017  0.1602
45865W        W88782  30.755  20.083   0.060 -0.0613  0.1589 -0.2072
45866W        W88783  29.620  19.388   1.370 -0.3433 -0.0805  0.2803
45867W        W88784  29.044  21.268   2.301 -0.0246  0.0187 -0.3442
45868W        W88785  29.409  19.304   0.845  0.0219 -0.0696  0.1374
45869W        W88786  27.769  18.577   1.377  0.1455  0.1935 -0.0257
45870W        W88787  32.391  20.063   2.503  0.3282  0.2531  0.2446
45871W        W88788  28.844  19.290   2.472 -0.1359  0.0071 -0.2283
45872W        W88789  28.037  18.600   2.056  0.0115  0.0007 -0.3863
45873W        W88790  30.579  19.264   0.442  0.1335  0.1458  0.0903
45874W        W88791  30.290  22.056   1.177 -0.2878 -0.1500  0.2834
45875W        W88792  30.630  18.741   1.184  0.3471  0.1425 -0.1900
45876W        W88793  32.888  17.221   2.665  0.0183 -0.1012  0.1527
45877W        W88794  30.120  20.440   0.452  0.1544 -0.0658  0.1630
45878W        W88795  29.688  21.322   0.521 -0.1775 -0.0385 -0.0427
45879W        W88796  28.975  20.630   0.428 -0.2389 -0.1397 -0.0303
45880W        W88797  28.477  21.509   2.263  0.1579  0.0592  0.0665
45881W        W88798  31.764  18.499   1.218 -0.2228 -0.2571  0.0079
45882W        W88799  32.887  19.955   0.860  0.2534 -0.0687  0.1862
45883W        W88800  30.757  21.975   0.844 -0.1411 -0.0023  0.2637
45884W        W88801  32.165  17.787   2.698 -0.0155 -0.4978  0.3729
45885W        W88802  33.751  19.313   1.986  0.1827  0.1952  0.0379
45886W        W88803  29.073  22.648   1.671 -0.1638  0.1571  0.1946
45887W        W88804  29.326  22.157   2.631  0.3470 -0.0186  0.2858
45888W        W88805  28.940  20.573  30.849 -0.1429 -0.0337 -0.0461
45889W        W88806  31.869  21.280   1.089  0.3052 -0.1119 -0.3413
45890W        W88807  31.814  21.171   1.666  0.2829 -0.2418  0.1478
45891W        W88808  30.030  22.223   1.580 -0.1085 -0.1085 -0.2262
45892W        W88809  27.911  20.919   0.499 -0.0871  0.2202  0.0855
45893W        W88810  31.506  21.163   5.232  0.0046  0.1388  0.1860
45894W        W88811  29.078  21.765   2.424  0.0882  0.0077 -0.0173
45895W        W88812  31.589  18.471   2.640 -0.1051  0.1873 -0.1115
45896W        W88813  31.277  19.153   2.175  0.1701 -0.3386 -0.1721
45897W        W88814  31.564  22.079   0.371  0.0069 -0.0943  0.0427
45898W        W88815  30.640  20.609   0.859  0.1994 -0.0731  0.1098
45899W        W88816  30.810  21.627   2.410 -0.0950 -0.0434  0.0618
45900W        W88817  30.510  20.374   1.815  0.0431 -0.0715 -0.1166
45901W        W88818  33.846  20.294   2.958 -0.0442  0.1445  0.1550
45902W        W88819  27.971  19.939   0.220 -0.3782  0.2336  0.0781
45903W        W88820  31.891  20.519   0.338 -0.1615  0.2644  0.1181
45904W        W88821  29.959  19.411   1.699  0.0624 -0.1049  0.0694
45905W        W88822  29.787  19.763   0.866  0.2586  0.0295 -0.0688
45906W        W88823  31.725  16.950   2.890  0.1018 -0.1369  0.2649
45907W        W88824  30.934  20.143   0.528  0.1272  0.2002  0.0443
45908W        W88825  28.799  20.461   2.218 -0.0237 -0.2111 -0.0436
45909W        W88826  32.969  22.567   2.650 -0.0300 -0.0388  0.0254
45910W        W88827  30.892  18.844  31.054 -0.0979  0.0571  0.1644
45911W        W88828  33.275  20.038   2.651 -0.0752  0.0402 -0.1165
45912W        W88829  28.901  21.894   3.826 -0.1825 -0.0105  0.3507
45913W        W88830  28.584  20.618   0.092 -0.2677 -0.1555 -0.0453
45914W        W88831  31.824  21.076   0.483 -0.2434  0.0175 -0.2841
45915W        W88832  32.331  21.293   0.843  0.2994  0.4592 -0.3491
45916W        W88833  31.601  20.593   1.558 -0.0542  0.1043 -0.0559
45917W        W88834  30.513  20.099  31.054  0.0273 -0.1331 -0.0183
45918W        W88835  28.310  20.076   3.894  0.0332 -0.0149 -0.0043
45919W        W88836  28.186  18.435   2.841 -0.2681  0.1162  0.1202
45920W        W88837  28.758  18.682  30.808  0.4044  0.0059 -0.3839
45921W        W88838  33.242  21.760   1.827  0.2631 -0.3822 -0.2040
45922W        W88839  27.892  21.540   1.618  0.1127 -0.2670 -0.3294
45923W        W88840  32.964  20.265   0.423 -0.2665 -0.2681 -0.0062
45924W        W88841  29.294  21.220   2.944  0.3052 -0.0685  0.0009
45925W        W88842  32.098  19.645   1.391  0.3023 -0.0475  0.1848
45926W        W88843  32.937  17.365  31.007 -0.0101 -0.1674 -0.0677
45927W        W88844  32.258  16.909   2.929  0.0326 -0.0181  0.2591
45928W        W88845  30.552  19.946   2.807  0.0019  0.1430  0.0537
45929W        W88846  29.577  21.451   1.000 -0.1008 -0.1276 -0.0467
45930W        W88847  29.455  19.975  31.878 -0.3347  0.2113  0.0356
45931W        W88848  34.125  22.127   3.775  0.1085  0.0113 -0.1099
45932W        W88849  29.186  21.325   0.142 -0.3132 -0.0663 -0.0785
45933W        W88850  29.856  19.203   2.666  0.1239 -0.2740  0.2219
45934W        W88851  30.341  20.123   2.218 -0.0239 -0.0301  0.1403
45935W        W88852  30.887  20.316   3.653 -0.0829 -0.1681 -0.3985
45936W        W88853  31.793  21.048  30.953 -0.0438 -0.3875 -0.0779
45937W        W88854  28.116  21.593   3.055 -0.2555 -0.1384  0.4854
45938W        W88855  29.680  21.399  31.390  0.1469 -0.0134  0.0396
45939W        W88856  31.654  17.931   2.550  0.2128  0.0384 -0.0725
45940W        W88857  32.534  19.566   2.625 -0.1727 -0.0282  0.0610
45941W        W88858  31.251  17.768   2.972 -0.0940 -0.1561  0.0311
45942W        W88859  30.916  20.049   3.174 -0.3173  0.0206 -0.1211
45943W        W88860  29.468  20.648   1.044  0.1452  0.0970 -0.0385
45944W        W88861  28.949  20.274   2.715  0.0914 -0.1178  0.0655
45945W        W88862  32.040  20.082   0.341 -0.0684  0.4038 -0.1491
45946W        W88863  31.754  18.391  31.571 -0.2644  0.3111  0.2094
45947W        W88864  32.299  20.973   0.319  0.0562  0.4021 -0.3412
45948W        W88865  28.445  20.088   2.661 -0.3033 -0.3381 -0.1611
45949W        W88866  29.294  19.587   2.419  0.1904  0.2248 -0.0089
45950W        W88867  29.068  18.606   4.560  0.0410 -0.2581 -0.2579
45951W        W88868  26.609  20.334   3.130  0.0892 -0.0757 -0.4126
45952W        W88869  33.363  20.255   3.968  0.1971 -0.1997 -0.0626
45953W        W88870  29.964  18.736   0.685 -0.2421  0.1190 -0.2659
45954W        W88871  31.199  19.461   3.161  0.1497  0.3837 -0.2080
45955W        W88872  28.876  19.080   1.891 -0.0613 -0.0804  0.4368
45956W        W88873  27.833  20.269   1.285  0.0484 -0.2853  0.1464
45957W        W88874  34.408  19.315   3.545  0.1227 -0.0158 -0.1965
45958W        W88875  31.965  20.748   1.863 -0.3850 -0.1393  0.0625
45959W        W88876  32.103  21.407   2.933  0.0247  0.1256  0.0111
45960W        W88877  30.190  22.248   2.307  0.3554 -0.1982 -0.0696
45961W        W88878  28.090  21.194   2.298  0.2230 -0.2847  0.1495
45962W        W88879  28.591  17.023  30.313  0.1320  0.1028  0.1243
45963W        W88880  27.759  22.227   2.277 -0.0897  0.0939  0.0852
45964W        W88881  30.074  19.795   1.287 -0.1642 -0.0678 -0.1286
45965W        W88882  30.856  18.314   1.502 -0.0198  0.2674 -0.0908
45966W        W88883  33.508  21.658   3.005 -0.2807 -0.0774 -0.0860
45967W        W88884  31.084  19.312   0.612 -0.1192 -0.0230 -0.0600
45968W        W88885  29.216  21.556   4.258 -0.1961 -0.1004 -0.1667
45969W        W88886  32.826  19.063   2.486 -0.0902  0.3523  0.2992
45970W        W88887  32.166  19.063   2.319 -0.2456 -0.1039  0.2913
45971W        W88888  30.589  19.818   1.085 -0.1666  0.0269 -0.0408
45972W        W88889  28.807  19.463   0.479 -0.3264 -0.0639 -0.3550
45973W        W88890  32.848  21.124   1.557  0.2000 -0.2242  0.0886
45974W        W88891  28.551  21.416   1.008  0.2899 -0.4640 -0.1314
45975W        W88892  28.132  21.948   3.441 -0.2423  0.0896 -0.0882
45976W        W88893  30.554  19.673  31.753  0.2690 -0.1513  0.1538
45977W        W88894  32.591  19.507   0.313 -0.3143  0.0443 -0.3811
45978W        W88895  30.043  19.539   4.279  0.0570  0.1301 -0.0125
45979W        W88896  29.881  18.278   4.930 -0.2345 -0.0147  0.1289
45980W        W88897  29.951  21.033   0.272  0.1870 -0.0390  0.1027
45981W        W88898  28.624  20.416   4.206 -0.2071 -0.1151 -0.1212
45982W        W88899  31.295  18.046   1.702 -0.1524  0.3655 -0.1243
45983W        W88900  32.755  15.429  31.005  0.0592 -0.2577  0.0696
45984W        W88901  32.838  20.262   1.831  0.1578 -0.1078 -0.0185
45985W        W88902  32.734  21.281   0.510 -0.0313  0.5625 -0.1230
45986W        W88903  31.657  17.302  31.529 -0.1998 -0.0021  0.0065
45987W        W88904  30.171  17.516   0.394  0.2717 -0.0325  0.2331
45988W        W88905  26.906  20.008   1.102  0.1078 -0.0968  0.0640
45989W        W88906  30.581  22.263   0.394  0.1806  0.1092 -0.2871
45990W        W88907  30.244  19.975   1.718 -0.0812 -0.0641 -0.2947
45991W        W88908  30.464  18.194   1.862  0.2785 -0.0801  0.2646
45992W        W88909  31.149  19.390   2.660  0.0520  0.1497  0.0867
45993W        W88910  28.902  20.602   3.103 -0.1131  0.2983 -0.1685
45994W        W88911  32.928  22.040   4.886  0.2314  0.1664 -0.1537
45995W        W88912  31.513  20.247   0.465 -0.1244 -0.0465  0.1925
45996W        W88913  29.419  17.236   1.760  0.0321 -0.1173 -0.1982
45997W        W88914  29.828  18.289   0.914  0.1303  0.3249  0.2370
45998W        W88915  30.499  17.967   3.557 -0.3479 -0.0191 -0.2027
45999W        W88916  29.478  22.269   0.802  0.0013  0.1676 -0.1976
46000W        W88917  32.548  18.389  31.914 -0.0092 -0.1805 -0.1337
46001W        W88918  32.801  19.518  31.826  0.1214 -0.0433  0.2021
46002W        W88919  32.307  17.733   2.229  0.2704  0.3389  0.0753
46003W        W88920  31.087  18.756   2.528 -0.0973 -0.0487  0.3865
46004W        W88921  32.216  22.407   1.683 -0.1898 -0.1421 -0.1723
46005W        W88922  32.672  19.323   1.606 -0.2168  0.3223 -0.0218
46006W        W88923  29.783  20.257   0.755  0.2643  0.1770  0.0409
46007W        W88924  31.455  18.685   2.179 -0.0282 -0.2985  0.0591
46008W        W88925  30.392  19.131   2.817  0.0688 -0.3724  0.0218
46009W        W88926  30.046  21.092   2.467  0.1466 -0.1558 -0.2121
46010W        W88927  31.888  20.128   2.653 -0.0955 -0.2236 -0.1983
46011W        W88928  31.975  20.853   1.303 -0.0609  0.2186  0.0465
46012W        W88929  33.906  17.667   4.235  0.2313  0.1961 -0.3798
46013W        W88930  32.209  19.509   1.830 -0.1588 -0.0428  0.1108
46014W        W88931  29.251  21.592  31.704  0.1552 -0.1462 -0.1748
46015W        W88932  32.759  18.514  31.246  0.0056  0.0639 -0.0488
46016W        W88933  31.608  18.635   1.682 -0.0476 -0.0313  0.0624
46017W        W88934  29.791  20.506   2.709 -0.2461 -0.1062 -0.1846
46018W        W88935  31.337  21.061   1.851 -0.0886 -0.0824 -0.0927
46019W        W88936  31.083  20.609   3.214  0.1602  0.1134  0.1077
46020W        W88937  30.478  21.612   1.016  0.1146 -0.0558  0.1731
46021W        W88938  32.957  17.382   0.326 -0.2565  0.5078  0.0642
46022W        W88939  29.000  21.939   3.086 -0.0288  0.2730  0.5352
46023W        W88940  29.397  20.998  31.126  0.3059 -0.0857  0.2199
46024W        W88941  29.128  19.031   0.215 -0.0070  0.0637 -0.0370
46025W        W88942  32.354  18.200   2.050  0.1480 -0.1452  0.0573
46026W        W88943  31.488  19.106   2.931  0.0202  0.3083 -0.1886
46027W        W88944  30.150  18.450   2.137 -0.0965 -0.1172 -0.0555
46028W        W88945  31.734  19.459   3.200 -0.1589  0.0952  0.0467
46029W        W88946  30.231  21.831   1.803  0.2371  0.3235 -0.0129
46030W        W88947  31.707  22.965   2.848 -0.2486 -0.1007  0.2049
46031W        W88948  31.206  19.212   1.144  0.0587  0.1192  0.1804
46032W        W88949  32.153  21.137   2.143  0.0606 -0.1823 -0.1083
46033W        W88950  30.532  20.980   3.306 -0.0490  0.2806 -0.1576
46034W        W88951  28.651  21.122   0.262  0.1231  0.0513 -0.2021
46035W        W88952  31.696  19.061   2.475 -0.1076  0.1449  0.1454
46036W        W88953  27.840  18.972   2.475 -0.1338 -0.1040  0.2364
46037W        W88954  30.913  22.739   0.992  0.0470  0.1782  0.0455
46038W        W88955  32.274  20.205   3.057 -0.0683 -0.1540 -0.3597
46039W        W88956  30.843  21.912  31.907  0.0654 -0.0357  0.2684
46040W        W88957  29.003  20.427  31.911 -0.0568  0.1170 -0.1051
46041W        W88958  30.347  19.229   4.024 -0.0793  0.0036  0.0375
46042W        W88959  30.729  19.255   2.425 -0.0558 -0.1023 -0.0260
46043W        W88960  29.487  20.938   0.160  0.0436  0.1620  0.2343
46044W        W88961  29.610  18.872   0.406  0.0689  0.2376  0.0448
46045W        W88962  31.745  19.945   2.220  0.1098 -0.0566  0.0214
46046W        W88963  31.791  21.524   2.533  0.1698  0.1602  0.1705
46047W        W88964  31.929  18.939   1.021 -0.6370  0.1150 -0.0071
46048W        W88965  29.127  22.317   3.755  0.1315  0.0102  0.1097
46049W        W88966  29.694  18.506   1.879 -0.2322  0.0651  0.1289
46050W        W88967  32.337  21.014   1.580 -0.1845  0.1302 -0.1715
46051W        W88968  32.979  21.760   2.950  0.1461 -0.0587  0.0949
46052W        W88969  29.360  20.416   2.412 -0.4241  0.2484 -0.0768
46053W        W88970  26.881  20.899   3.355  0.1459 -0.1174 -0.1724
46054W        W88971  29.454  21.058   1.257  0.2416 -0.1112  0.1106
46055W        W88972  31.218  20.763   2.219  0.0229  0.1185 -0.0874
46056W        W88973  30.166  20.889   2.983 -0.2102 -0.0692  0.2022
46057W        W88974  28.340  22.100   1.480 -0.0666  0.1689 -0.4059
46058W        W88975  28.720  22.068   2.501  0.2505  0.1236 -0.0776
46059W        W88976  29.836  19.685  31.422  0.5724  0.0564 -0.2877
46060W        W88977  31.814  19.037   1.883  0.1479  0.1791  0.1877
46061W        W88978  29.967  18.427   3.138  0.1952  0.1012 -0.0375
46062W        W88979  33.223  18.629   1.980 -0.2043 -0.2712  0.1607
46063W        W88980  30.321  20.218   0.049 -0.0775  0.4106 -0.2060
46064W        W88981  30.976  18.304   3.165 -0.1805  0.1494  0.0914
46065W        W88982  29.378  19.962   2.157  0.1980 -0.2120  0.1488
46066W        W88983  33.743  21.309   1.839  0.1316 -0.2753 -0.0470
46067W        W88984  28.073  20.384   2.819 -0.1882  0.1270 -0.0956
46068W        W88985  31.808  19.966   3.431 -0.2601 -0.0278 -0.0428
46069W        W88986  31.290  20.186   2.391 -0.0694 -0.0391  0.1746
46070W        W88987  30.860  15.962  31.849 -0.3224 -0.3902 -0.1423
46071W        W88988  29.889  20.361  30.926 -0.1293  0.2048 -0.5532
46072W        W88989  29.371  21.198   3.858 -0.3047  0.1432  0.0630
46073W        W88990  31.279  21.678   2.639 -0.2405 -0.0895 -0.1737
46074W        W88991  29.041  19.243  31.640  0.2169 -0.2926 -0.0891
46075W        W88992  30.948  20.866   0.513  0.0054  0.0551  0.1394
46076W        W88993  32.125  19.615   2.410  0.0625  0.4416 -0.0515
46077W        W88994  31.997  18.919  31.402 -0.0692  0.1320  0.0883
46078W        W88995  31.452  20.794   0.291 -0.1563 -0.1818  0.3155
46079W        W88996  31.815  20.133   1.308 -0.0578  0.0104  0.2028
46080W        W88997  30.163  18.946   3.590  0.0112  0.1606 -0.0198
46081W        W88998  32.436  19.957   1.978  0.0387 -0.3142  0.0500
46082W        W88999  31.290  19.187   1.698 -0.0118  0.0160 -0.2756
46083W        W89000  29.652  19.286   2.123  0.1512 -0.1982  0.0852
46084W        W89001  30.393  20.596   3.673 -0.1398 -0.1266 -0.1912
46085W        W89002  31.389  20.967   3.327 -0.0222 -0.0457  0.0183
46086W        W89003  30.779  18.051   5.189  0.3724  0.1906  0.1186
46087W        W89004  33.469  20.478   2.682 -0.2009  0.1067  0.1554
46088W        W89005  32.149  20.332  31.691  0.2981  0.2869 -0.0432
46089W        W89006  33.088  19.016   1.619 -0.1735  0.0377 -0.0002
46090W        W89007  30.313  18.800  31.726  0.2354 -0.0867  0.0404
46091W        W89008  30.786  20.104  30.661  0.1282  0.0489 -0.0581
46092W        W89009  28.797  19.549   2.036 -0.3370 -0.1022  0.2238
46093W        W89010  31.737  18.618   3.114  0.2061  0.1067 -0.4083
46094W        W89011  30.267  19.581   0.722  0.1496 -0.0407 -0.0807
46095W        W89012  32.060  19.760   2.985  0.0276  0.0873 -0.2227
46096W        W89013  30.356  20.889   0.625  0.1831 -0.1169 -0.2443
46097W        W89014  31.572  21.564   0.532  0.0893 -0.0878 -0.1133
46098W        W89015  30.828  20.664  30.789  0.1342  0.0251  0.0160
46099W        W89016  30.049  21.093   1.958 -0.1190 -0.0954  0.4035
46100W        W89017  29.581  22.647   4.469 -0.3799  0.0902  0.0002
46101W        W89018  30.317  20.196   0.869 -0.0373  0.1398  0.0390
46102W        W89019  27.889  19.429  31.339 -0.2941  0.2563  0.1148
46103W        W89020  32.742  20.824   3.392 -0.2867 -0.0344 -0.1004
46104W        W89021  33.336  18.176   1.178 -0.2711  0.1511 -0.2959
46105W        W89022  30.986  18.479   0.830 -0.0971  0.0094 -0.0153
46106W        W89023  33.078  18.344   5.294  0.1342  0.0100  0.0450
46107W        W89024  30.579  21.280   0.682 -0.2812  0.1022 -0.3335
46108W        W89025  30.358  18.518   0.760  0.1824  0.0877  0.0351
46109W        W89026  30.893  23.045   3.592 -0.2362  0.1990  0.2957
46110W        W89027  29.501  20.897   2.608 -0.3198  0.0575 -0.2586
46111W        W89028  29.682  21.372   0.015 -0.1771  0.0725  0.0067
46112W        W89029  30.906  19.050   2.961  0.3398  0.0990  0.0651
46113W        W89030  32.035  19.310   2.769 -0.1443  0.1786  0.2189
46114W        W89031  32.956  20.798   1.937  0.3571  0.0726  0.1644
46115W        W89032  33.857  19.730   1.527  0.1028 -0.0850  0.1346
46116W        W89033  29.852  21.899   2.675 -0.2648  0.3672 -0.0638
46117W        W89034  29.471  20.000   2.679 -0.3575 -0.0375 -0.3733
46118W        W89035  29.636  20.787   3.118 -0.1773 -0.1624 -0.4187
46119W        W89036  33.942  21.261  31.395  0.0970  0.2511  0.0479
46120W        W89037  31.022  19.697  31.626 -0.1919 -0.0847 -0.0210
46121W        W89038  28.237  18.407   3.761 -0.2764 -0.1269  0.0782
46122W        W89039  31.244  18.679   2.986  0.1603 -0.1750 -0.0113
46123W        W89040  30.315  21.950   0.626  0.1048 -0.0912 -0.0997
46124W        W89041  30.831  16.435   1.045 -0.4296 -0.1017 -0.2753
46125W        W89042  29.020  23.108   1.424 -0.2172  0.4626  0.0318
46126W        W89043  29.406  20.962   4.284 -0.0469 -0.3810 -0.4499
46127W        W89044  28.036  21.103   3.853 -0.0521 -0.4266 -0.0158
46128W        W89045  28.448  23.834  29.736  0.2511 -0.2529  0.1993
46129W        W89046  29.854  20.833  31.232  0.1076  0.0107 -0.2194
46130W        W89047  30.664  21.684   0.346 -0.0494 -0.1889 -0.1565
46131W        W89048  32.488  21.743   3.266  0.2054 -0.0895 -0.2360
46132W        W89049  28.383  19.721   1.161  0.0603  0.1410 -0.0895
46133W        W89050  31.274  21.486   2.119  0.1300  0.1207  0.0117
46134W        W89051  27.561  20.524   0.521 -0.2689  0.0923 -0.0776
46135W        W89052  31.268  19.691   2.245  0.1061 -0.0443 -0.0377
46136W        W89053  31.726  20.257  31.948 -0.2497 -0.1470  0.0653
46137W        W89054  32.815  22.114   2.609 -0.3863 -0.1760  0.0443
46138W        W89055  33.609  17.541  30.212 -0.0137 -0.0952  0.3591
46139W        W89056  32.642  21.228   2.071 -0.1601  0.1383 -0.0858
46140W        W89057  30.521  18.692   1.779 -0.0727  0.4042  0.0399
46141W        W89058  33.910  18.688   2.700  0.1343  0.1421 -0.0790
46142W        W89059  31.443  19.442  31.682  0.3316  0.2713 -0.1391
46143W        W89060  28.114  18.966   0.202  0.0880  0.0557 -0.0137
46144W        W89061  30.699  19.612   4.022 -0.0212 -0.3153  0.0313
46145W        W89062  33.208  18.111   4.251 -0.1535  0.2309 -0.1547
46146W        W89063  28.792  21.077   2.974 -0.1471 -0.0368 -0.3928
46147W        W89064  31.037  23.216   0.870  0.0403  0.0847 -0.0282
46148W        W89065  30.178  18.368   0.276 -0.0195 -0.4954  0.3079
46149W        W89066  30.533  21.005   2.372 -0.0847 -0.1145  0.0313
46150W        W89067  34.478  19.309   2.241 -0.3043 -0.1320 -0.2258
46151W        W89068  32.182  24.458   0.353 -0.1646 -0.3243 -0.1499
46152W        W89069  31.818  18.613   4.455  0.0152  0.0754  0.2396
46153W        W89070  30.880  21.015   1.507 -0.0653 -0.0632 -0.1473
46154W        W89071  31.091  21.900   0.426  0.2854  0.1357  0.0477
46155W        W89072  29.679  20.869   1.669  0.0347 -0.1237  0.0995
46156W        W89073  26.714  18.646   2.368 -0.2114 -0.0167 -0.0400
46157W        W89074  31.387  17.313   3.021  0.3075  0.1149 -0.0922
46158W        W89075  28.573  20.682   3.433  0.1529 -0.0487  0.5033
46159W        W89076  32.746  16.837   3.566 -0.1498 -0.0265  0.1137
46160W        W89077  27.634  21.453   2.861  0.0854 -0.2806  0.1621
46161W        W89078  32.607  19.395  31.331  0.2772  0.0147  0.2410
46162W        W89079  30.863  19.504   2.040  0.1354 -0.0296  0.0670
46163W        W89080  29.902  18.068   2.810 -0.1019 -0.0875  0.0287
46164W        W89081  32.121  18.526   1.626 -0.2656  0.0880  0.1154
46165W        W89082  32.376  20.687   4.925 -0.2743 -0.2280  0.2639
46166W        W89083  31.427  19.945  31.402 -0.0053 -0.1111 -0.2581
46167W        W89084  32.098  20.325   2.137 -0.0450  0.0527  0.1385
46168W        W89085  28.155  18.797   1.155 -0.0067  0.1409 -0.2704
46169W        W89086  30.499  17.888  31.316  0.1263  0.1951  0.0411
46170W        W89087  29.032  18.431   0.293 -0.1864 -0.1283  0.0641
46171W        W89088  28.903  20.873   1.667  0.3059  0.3383  0.0813
46172W        W89089  31.504  21.133   2.744 -0.2958  0.1203 -0.1583
46173W        W89090  29.303  21.047   0.760  0.1054  0.1086  0.1593
46174W        W89091  32.715  20.452  31.758 -0.2110  0.4804  0.0951
46175W        W89092  32.491  18.685   3.602  0.2368 -0.0771 -0.0208
46176W        W89093  30.639  23.491  31.436 -0.0934 -0.1849  0.0238
46177W        W89094  32.532  19.896   1.489 -0.5530  0.0421 -0.0899
46178W        W89095  29.612  23.890   2.638  0.2548  0.0270 -0.2675
46179W        W89096  27.480  18.089   2.174  0.2817 -0.2715 -0.1353
46180W        W89097  31.242  22.059   2.324 -0.0191  0.3426 -0.0053
46181W        W89098  32.904  19.946   2.294  0.1066 -0.2361  0.3266
46182W        W89099  28.942  20.008   1.226  0.1670  0.4009 -0.0835
46183W        W89100  30.186  21.531   4.100  0.1555 -0.1930 -0.1934
46184W        W89101  28.724  22.999  31.770 -0.0672  0.1783  0.0052
46185W        W89102  32.684  17.880   1.866  0.1024 -0.0581 -0.4211
46186W        W89103  32.272  19.127   1.378  0.2731  0.1240  0.0214
46187W        W89104  30.032  19.806  31.846 -0.3660  0.3714 -0.1038
46188W        W89105  32.790  18.843   2.071 -0.1077  0.0440 -0.0523
46189W        W89106  32.688  19.517   2.105  0.3244  0.1321  0.1019
46190W        W89107  30.475  21.294   2.807  0.1014 -0.2289  0.3206
46191W        W89108  29.469  19.930   0.467 -0.2353 -0.0240  0.0326
46192W        W89109  30.133  20.439   3.220  0.0738 -0.2980 -0.1314
46193W        W89110  30.313  19.127   1.386 -0.1674  0.1630  0.1512
46194W        W89111  31.407  21.024   0.725  0.0032 -0.0808  0.1555
46195W        W89112  32.185  20.823   0.877 -0.0727 -0.1090  0.1591
46196W        W89113  29.547  19.945   1.229  0.1789 -0.0113  0.0311
46197W        W89114  33.359  18.684   0.875  0.0482  0.2655  0.1513
46198W        W89115  28.865  21.347   1.427  0.0222  0.1587 -0.0019
46199W        W89116  34.290  20.047   0.123  0.1215  0.0707 -0.0939
46200W        W89117  32.476  19.284   0.699 -0.3397  0.0061  0.0090
46201W        W89118  28.469  20.623   4.633  0.1260  0.3830 -0.1653
46202W        W89119  29.783  20.329   0.093  0.1165  0.0857  0.1875
46203W        W89120  29.016  20.917  31.911  0.1314 -0.0279  0.0589
46204W        W89121  28.391  21.567   1.486 -0.1618  0.0575  0.1171
46205W        W89122  29.104  18.921   0.719  0.1433 -0.3477 -0.1433
46206W        W89123  28.906  19.681   2.765  0.4692 -0.2686  0.3012
46207W        W89124  30.088  21.654   1.321  0.1172 -0.3391 -0.0710
46208W        W89125  29.757  21.113  30.327  0.0465 -0.3201 -0.2684
46209W        W89126  31.101  20.275  31.621 -0.2548 -0.4551 -0.0078
46210W        W89127  29.554  18.848   0.966 -0.2435 -0.0181  0.0278
46211W        W89128  28.047  18.330   1.050  0.2430 -0.1839 -0.2765
46212W        W89129  30.819  22.307   1.239 -0.2232  0.3239  0.0010
46213W        W89130  33.462  20.259   1.200  0.1024  0.1641  0.2565
46214W        W89131  30.752  19.373   1.044  0.1364 -0.0520  0.0855
46215W        W89132  33.823  19.396   4.418  0.4416  0.1051 -0.3008
46216W        W89133  28.637  20.948  31.509 -0.0553 -0.0622  0.2950
46217W        W89134  30.747  19.224   3.420 -0.0580 -0.1841  0.0232
46218W        W89135  31.020  19.643   1.410  0.0081 -0.2782 -0.0270
46219W        W89136  30.344  17.511  31.683 -0.1385 -0.1626  0.3304
46220W        W89137  29.781  19.675   2.436  0.0543 -0.0949 -0.1898
46221W        W89138  29.946  22.641   0.017  0.1459  0.1337 -0.2046
46222W        W89139  32.785  20.619   1.440  0.0654 -0.0431  0.0983
46223W        W89140  31.117  20.548   1.784  0.0393 -0.2079 -0.1134
46224W        W89141  30.766  20.542   1.350  0.2131 -0.2149  0.1915
46225W        W89142  28.892  17.996   2.105 -0.0617 -0.3472  0.3223
46226W        W89143  31.463  20.186   0.980  0.1992  0.0042 -0.0504
46227W        W89144  31.967  19.929   1.742 -0.0305 -0.0201  0.0783
46228W        W89145  32.502  21.399  30.437 -0.0909 -0.3958 -0.3109
46229W        W89146  33.819  19.783   3.023  0.3636  0.1617 -0.0388
46230W        W89147  31.716  19.810   0.658  0.0608  0.1462 -0.1203
46231W        W89148  29.702  18.927   3.887 -0.1124 -0.0311  0.0937
46232W        W89149  29.078  19.908   3.660  0.2094 -0.4169  0.0101
46233W        W89150  34.276  19.914   2.920  0.1369 -0.1390 -0.1341
46234W        W89151  28.591  18.933   0.958  0.0430 -0.3781 -0.0556
46235W        W89152  31.647  20.643   0.927 -0.2325 -0.0496 -0.0202
46236W        W89153  32.284  20.081  31.169 -0.0773 -0.1163 -0.0082
46237W        W89154  28.641  20.171   3.098 -0.0091  0.1847  0.2401
46238W        W89155  29.951  19.324   1.019  0.0083  0.1649 -0.1753
46239W        W89156  32.496  21.210   2.602 -0.2202  0.1269  0.1442
46240W        W89157  31.150  22.446   1.960  0.2216  0.1308 -0.0196
46241W        W89158  34.060  20.787   3.037 -0.0156  0.1592  0.2166
46242W        W89159  32.138  19.471  31.413  0.0658 -0.0853 -0.2474
46243W        W89160  32.711  19.806  30.943  0.2714 -0.3008 -0.2142
46244W        W89161  31.339  20.137   3.410  0.0459  0.0701 -0.0654
46245W        W89162  30.962  21.770   4.382 -0.0065  0.2648  0.1843
46246W        W89163  30.323  21.747   2.529 -0.2143  0.0557  0.0259
46247W        W89164  30.722  18.400   2.274 -0.2221  0.1819 -0.2312
46248W        W89165  28.673  18.363   2.554  0.0371 -0.1589  0.2216
46249W        W89166  29.585  21.224   3.416 -0.1129  0.2144 -0.1908
46250W        W89167  29.999  17.996   1.351  0.0548 -0.2917 -0.1497
46251W        W89168  30.761  19.710   3.525 -0.3493 -0.2706 -0.0993
46252W        W89169  29.194  19.731   0.816  0.2063 -0.3870  0.0578
46253W        W89170  30.227  19.645   2.047  0.4139  0.0041 -0.0304
46254W        W89171  30.679  21.861   1.449 -0.1437  0.2555  0.2353
46255W        W89172  31.250  20.182   1.449  0.2160 -0.2042  0.2220
46256W        W89173  30.869  19.122   3.891 -0.0285 -0.1785  0.1540
46257W        W89174  28.808  19.137   4.511 -0.2723 -0.1341  0.1697
46258W        W89175  31.370  19.040   3.906  0.0985  0.1105  0.2136
46259W        W89176  32.089  22.080   3.514 -0.0760 -0.2335  0.3152
46260W        W89177  27.276  16.923   4.206  0.1414 -0.0504 -0.0685
46261W        W89178  31.630  21.032   4.564 -0.2879  0.1191 -0.0041
46262W        W89179  27.393  19.015   5.620 -0.1332  0.1091 -0.0346
46263W        W89180  32.513  20.680   4.362  0.3000 -0.0054 -0.1333
46264W        W89181  32.258  20.625   6.788 -0.0789 -0.0062 -0.1038
46265W        W89182  32.789  19.271   4.327  0.2273 -0.1437  0.2419
46266W        W89183  30.830  17.546   4.759  0.1815  0.1943  0.2033
46267W        W89184  31.993  19.437   6.565 -0.0672 -0.1336 -0.0453
46268W        W89185  31.141  17.868   3.598  0.1330  0.0924  0.0422
46269W        W89186  29.087  17.938   9.229 -0.0945  0.1017 -0.0194
46270W        W89187  33.512  19.148   3.653  0.3520  0.0897  0.2295
46271W        W89188  27.237  21.056   5.562 -0.0918 -0.3006  0.1299
46272W        W89189  30.801  20.695   8.128  0.0802 -0.2720 -0.2252
46273W        W89190  29.881  18.576   4.536  0.0575 -0.3118 -0.0945
46274W        W89191  31.451  20.984   5.734  0.2067 -0.2419  0.0159
46275W        W89192  31.613  20.401   7.443  0.0619  0.1290 -0.1138
46276W        W89193  30.544  18.656   6.431 -0.1229  0.1716 -0.1299
46277W        W89194  31.717  21.313   4.177  0.0465 -0.0647 -0.1023
46278W        W89195  27.870  20.876   2.661  0.1839 -0.0662  0.1403
46279W        W89196  28.750  19.638   4.600 -0.2400  0.0928  0.0880
46280W        W89197  28.930  19.910   5.879  0.0764  0.0970  0.2365
46281W        W89198  31.385  18.162   4.347 -0.1949  0.0716  0.4419
46282W        W89199  32.737  17.446   6.743  0.2115 -0.0064 -0.2592
46283W        W89200  31.366  20.237   5.075 -0.1850 -0.2259  0.0668
46284W        W89201  31.206  21.440   3.354 -0.2734 -0.2963  0.0853
46285W        W89202  32.821  18.739   6.156  0.2037  0.0626  0.2597
46286W        W89203  30.331  18.724   5.797 -0.1029 -0.0878 -0.0974
46287W        W89204  31.059  21.958   4.955  0.0620 -0.1416  0.1123
46288W        W89205  31.307  21.154   3.964 -0.3154 -0.0863 -0.1366
46289W        W89206  31.360  22.573   4.780 -0.0777  0.0163  0.1105
46290W        W89207  31.625  21.625   5.649 -0.3247  0.0987 -0.0656
46291W        W89208  30.466  21.659   6.224 -0.0786 -0.0889 -0.0065
46292W        W89209  30.040  18.933   3.104  0.2461 -0.0488  0.2843
46293W        W89210  32.552  22.778   7.068  0.0993 -0.3085 -0.1126
46294W        W89211  30.525  21.999   6.958 -0.1033 -0.1484 -0.2655
46295W        W89212  31.969  19.673   6.089 -0.4214  0.1472  0.2594
46296W        W89213  32.593  20.334   3.407 -0.2048  0.1056  0.0450
46297W        W89214  31.867  20.641   5.813  0.3062 -0.0297 -0.2221
46298W        W89215  30.660  20.653   4.902  0.1535 -0.0076 -0.1961
46299W        W89216  30.051  18.882   7.226  0.0742  0.4017 -0.2094
46300W        W89217  31.238  19.598   5.097 -0.0293  0.1456  0.0835
46301W        W89218  31.551  18.934   7.183 -0.0964  0.2213  0.0453
46302W        W89219  31.254  20.738   2.785 -0.0901 -0.1644  0.0424
46303W        W89220  32.292  18.654   3.150 -0.0068  0.0104  0.0677
46304W        W89221  29.640  20.181   3.139 -0.1512  0.1995  0.3524
46305W        W89222  33.745  18.719   3.178  0.3158 -0.1538  0.0899
46306W        W89223  31.942  19.024   3.822 -0.2179  0.3155  0.0459
46307W        W89224  30.427  20.108   6.323 -0.0683  0.1066  0.2354
46308W        W89225  28.817  19.365   5.899  0.3166  0.0973  0.0137
46309W        W89226  32.642  20.508   5.978 -0.0344  0.1348  0.1993
46310W        W89227  30.481  20.134   3.858 -0.0799 -0.0806 -0.0349
46311W        W89228  31.770  18.140   6.173  0.0015  0.0262 -0.1998
46312W        W89229  30.938  19.322   6.140 -0.0254  0.4957 -0.0413
46313W        W89230  29.088  20.036   4.170 -0.0209 -0.1840  0.1088
46314W        W89231  30.691  21.475   3.367 -0.1026 -0.2219 -0.0798
46315W        W89232  32.276  21.386   4.869  0.5517  0.0935 -0.0660
46316W        W89233  32.145  20.352   3.585 -0.1462  0.1976 -0.0655
46317W        W89234  28.707  19.772   4.027  0.1984  0.0441 -0.0803
46318W        W89235  28.336  21.167   7.666 -0.3362 -0.1021  0.1383
46319W        W89236  28.586  18.891   5.714 -0.0736 -0.2372 -0.0013
46320W        W89237  30.509  18.833   3.211  0.3738 -0.1347  0.1015
46321W        W89238  33.210  20.843   6.545  0.0902  0.2283  0.2164
46322W        W89239  29.031  20.998   3.379  0.0181 -0.0220  0.3355
46323W        W89240  32.798  18.219   4.805 -0.2813 -0.0586 -0.1201
46324W        W89241  29.705  18.337   6.554  0.1439 -0.0841  0.0235
46325W        W89242  33.644  19.952   7.712  0.1540 -0.0137  0.0589
46326W        W89243  30.678  21.653   4.028 -0.2770  0.0406 -0.0717
46327W        W89244  30.797  17.744   6.428  0.0449 -0.1398  0.2148
46328W        W89245  31.652  16.571   5.810  0.0090  0.2815  0.0591
46329W        W89246  30.930  20.343   2.791 -0.2145  0.3059 -0.2613
46330W        W89247  30.818  19.752   5.561  0.2411  0.0598  0.3139
46331W        W89248  33.509  21.261   6.228  0.0332 -0.0154 -0.2616
46332W        W89249  33.297  19.016   3.233 -0.2448 -0.2176  0.0544
46333W        W89250  30.382  22.777   5.606  0.2032  0.0719 -0.2496
46334W        W89251  31.120  19.093   4.890  0.0556 -0.0306  0.1836
46335W        W89252  31.668  19.394   7.000 -0.1183 -0.1064  0.1610
46336W        W89253  29.563  21.125   2.170 -0.1066  0.1647 -0.0636
46337W        W89254  27.414  19.174   6.125 -0.1330 -0.1457  0.0676
46338W        W89255  29.583  20.737   4.844 -0.0070 -0.0622  0.0099
46339W        W89256  29.976  19.489   5.216 -0.4643 -0.1125  0.1729
46340W        W89257  31.262  21.232   6.332 -0.2391  0.0876 -0.2362
46341W        W89258  30.910  18.277   4.493  0.0622  0.2423  0.0848
46342W        W89259  30.618  19.821   5.985 -0.0911  0.1511 -0.2746
46343W        W89260  33.429  18.647   5.708 -0.0156 -0.1077  0.2851
46344W        W89261  30.228  20.413   4.228 -0.2908 -0.2260 -0.1872
46345W        W89262  31.954  21.768   3.859  0.1436 -0.0196  0.0222
46346W        W89263  31.359  22.556   3.058  0.0840  0.0429 -0.0154
46347W        W89264  33.264  21.136   3.155  0.1979 -0.3192  0.0318
46348W        W89265  29.156  19.933   5.231 -0.3171  0.3869 -0.4084
46349W        W89266  30.090  17.768   4.442  0.1410  0.1562  0.2787
46350W        W89267  29.036  18.404   6.302 -0.1814  0.0036 -0.0621
46351W        W89268  30.732  19.049   5.719 -0.2206  0.1054 -0.1911
46352W        W89269  33.079  18.719   4.905 -0.0500 -0.2103 -0.1747
46353W        W89270  30.551  18.232   4.021  0.0062  0.3359  0.0859
46354W        W89271  33.864  19.693   5.795 -0.3526  0.2384 -0.3656
46355W        W89272  32.738  19.900   3.025 -0.1527 -0.0809 -0.0765
46356W        W89273  29.699  19.577   3.898 -0.2402  0.2748  0.1154
46357W        W89274  31.472  18.501   6.582  0.0870  0.3224  0.3083
46358W        W89275  31.286  19.961   5.427  0.1537 -0.0698  0.0669
46359W        W89276  32.913  20.522   8.100  0.1017  0.0664 -0.0839
46360W        W89277  32.419  22.234   3.058 -0.1405  0.1413  0.0305
46361W        W89278  29.368  19.980   6.696 -0.0595 -0.2329 -0.2957
46362W        W89279  30.363  20.278   4.834  0.2029  0.0664  0.2300
46363W        W89280  30.419  20.399   5.868 -0.1635 -0.2390  0.1062
46364W        W89281  30.831  21.347   6.094 -0.3676  0.0239 -0.0606
46365W        W89282  31.518  18.055   3.890  0.2405  0.1310  0.1588
46366W        W89283  31.265  21.657   6.072  0.0578  0.1578 -0.2280
46367W        W89284  33.317  19.509   3.049  0.0709  0.1334  0.0516
46368W        W89285  29.579  20.301   7.083 -0.2527 -0.2684 -0.1427
46369W        W89286  30.306  18.008   7.184  0.1747 -0.0584  0.1355
46370W        W89287  32.173  19.149   7.845  0.1018 -0.1658  0.2307
46371W        W89288  30.907  20.117   5.101 -0.3382 -0.1454  0.1163
46372W        W89289  28.431  18.845   3.767 -0.0837  0.0866  0.2157
46373W        W89290  31.258  22.329   5.234  0.4315  0.1075  0.1195
46374W        W89291  29.671  21.457   5.080  0.1283  0.1589  0.1173
46375W        W89292  26.496  19.900   4.066  0.1227  0.3959 -0.1349
46376W        W89293  30.668  22.149   3.255  0.4424 -0.1281 -0.3579
46377W        W89294  32.271  17.826   4.333  0.1705 -0.2086 -0.1385
46378W        W89295  30.109  19.673   6.083  0.1279 -0.3469  0.0510
46379W        W89296  29.727  17.894   6.899  0.2770  0.2674 -0.2445
46380W        W89297  29.849  21.115   3.917 -0.3007 -0.1688 -0.1456
46381W        W89298  31.785  20.492   6.484 -0.4000  0.0097 -0.1854
46382W        W89299  30.724  19.266   5.260 -0.1446 -0.2014  0.3439
46383W        W89300  31.498  19.741   1.655  0.1305 -0.0173 -0.2221
46384W        W89301  31.446  20.674   8.794 -0.1211  0.2678  0.1203
46385W        W89302  31.985  19.030   6.135  0.1331 -0.2697  0.2857
46386W        W89303  31.984  18.589   2.136  0.1619  0.0523  0.0130
46387W        W89304  30.203  18.369   3.641 -0.3072 -0.2570 -0.0739
46388W        W89305  27.570  19.986   6.512 -0.0305  0.0206  0.2031
46389W        W89306  30.463  19.706   5.202 -0.2705 -0.0511 -0.2323
46390W        W89307  30.508  21.252   5.031  0.1964 -0.0130  0.1540
46391W        W89308  30.231  19.697   3.800  0.1294 -0.1050 -0.1749
46392W        W89309  33.019  22.798   3.119  0.4771  0.2436  0.0767
46393W        W89310  29.901  20.418   3.742 -0.0885  0.2540 -0.1082
46394W        W89311  31.241  18.717   7.618 -0.0759 -0.2600 -0.3379
46395W        W89312  33.175  21.968   3.375 -0.0780 -0.2657 -0.0738
46396W        W89313  28.397  17.117   5.765  0.1770 -0.2331  0.1786
46397W        W89314  31.597  19.900   5.831  0.1868  0.0569 -0.0073
46398W        W89315  32.599  17.855   3.121 -0.3489  0.1681 -0.1553
46399W        W89316  30.157  21.641   5.020  0.0649  0.0830  0.0985
46400W        W89317  32.813  17.837   4.104  0.0962 -0.2423  0.3159
46401W        W89318  31.675  18.252   5.565 -0.0055  0.0581  0.1555
46402W        W89319  30.097  18.938   6.335 -0.2316 -0.0944 -0.1941
46403W        W89320  33.870  19.043   7.842 -0.4054 -0.2349  0.2096
46404W        W89321  33.541  18.872   2.335  0.2453 -0.0717 -0.0438
46405W        W89322  32.358  18.638   6.124  0.2499  0.1576  0.2056
46406W        W89323  30.558  18.630   4.287  0.1385  0.2016 -0.0110
46407W        W89324  30.410  18.518   7.139  0.1644 -0.0435  0.2725
46408W        W89325  31.514  19.525   6.351 -0.0215 -0.1819  0.2070
46409W        W89326  28.661  20.327   6.042 -0.1059  0.2263  0.0756
46410W        W89327  33.185  22.053   7.210 -0.3132  0.0888  0.2058
46411W        W89328  30.688  20.376   4.429  0.0472 -0.0182 -0.0070
46412W        W89329  31.923  17.524   7.355  0.0569 -0.2153  0.1526
46413W        W89330  30.588  18.703   3.779  0.0531 -0.1371  0.6172
46414W        W89331  31.916  21.175   5.591 -0.0660 -0.0236 -0.0147
46415W        W89332  29.939  20.030   4.137  0.1658  0.0817 -0.1578
46416W        W89333  30.575  16.659   4.467 -0.0263 -0.1399  0.4090
46417W        W89334  30.766  21.143   4.056  0.3507  0.4847  0.3283
46418W        W89335  30.021  20.445   1.809  0.1492  0.1057 -0.1591
46419W        W89336  33.981  20.725   7.066 -0.1278  0.1123 -0.1955
46420W        W89337  29.309  22.675   2.226 -0.0567  0.2226  0.3010
46421W        W89338  33.508  18.101   5.074  0.0079  0.0689 -0.0387
46422W        W89339  30.909  20.329   5.651 -0.5873 -0.0490 -0.2558
46423W        W89340  28.962  19.526   3.348 -0.0628 -0.4289 -0.2431
46424W        W89341  26.888  19.771   3.746 -0.3753  0.0936  0.0672
46425W        W89342  32.505  19.174   3.690  0.1456  0.2700  0.0766
46426W        W89343  30.208  19.766   4.795  0.3547  0.0397 -0.1761
46427W        W89344  29.189  19.862   4.675  0.3635  0.1756 -0.1488
46428W        W89345  30.830  17.319   5.343 -0.2824  0.0065 -0.1730
46429W        W89346  29.561  20.303   6.256 -0.0121  0.2919 -0.1791
46430W        W89347  33.203  20.002   6.244 -0.4247 -0.0136 -0.4536
46431W        W89348  33.058  17.573   3.027  0.1894  0.1237  0.1519
46432W        W89349  33.602  21.192   7.346  0.1227  0.0455  0.0627
46433W        W89350  29.452  19.801   7.148 -0.1855 -0.1830 -0.0788
46434W        W89351  25.764  19.454   3.604  0.0875 -0.0710  0.1056
46435W        W89352  31.415  18.878   5.673 -0.6577  0.2368 -0.0298
46436W        W89353  30.283  19.926   5.610 -0.2879 -0.0488 -0.0775
46437W        W89354  30.176  21.361   3.218 -0.1359 -0.1337  0.0295
46438W        W89355  31.694  20.706   5.335 -0.1759 -0.1450 -0.4083
46439W        W89356  29.359  19.197   6.466  0.0650  0.0765  0.1585
46440W        W89357  30.765  21.284   4.508  0.2041  0.3232  0.1402
46441W        W89358  30.006  20.387   5.545  0.2691 -0.0074  0.0378
46442W        W89359  32.340  19.963   6.008 -0.3071  0.1978  0.1179
46443W        W89360  32.161  18.552   5.345  0.2445  0.3060  0.1915
46444W        W89361  31.434  19.973   3.853 -0.0204 -0.0830 -0.0118
46445W        W89362  32.002  19.040   3.308 -0.0797 -0.2562  0.5255
46446W        W89363  33.870  18.856   6.201 -0.1452 -0.0234 -0.0957
46447W        W89364  32.668  18.499   5.593 -0.1411 -0.1321 -0.4005
46448W        W89365  31.222  20.561   6.658 -0.1513 -0.0442 -0.0797
46449W        W89366  28.603  18.784   4.807 -0.0752  0.0848  0.0316
46450W        W89367  33.721  23.612   3.059  0.0617  0.2536  0.0455
46451W        W89368  32.303  20.050   7.446  0.1721  0.0148 -0.1905
46452W        W89369  30.749  19.508   2.916 -0.1858  0.0108 -0.1715
46453W        W89370  28.957  18.049   5.363 -0.0131 -0.3761  0.0792
46454W        W89371  30.326  20.883   4.020  0.2343  0.1029 -0.1318
46455W        W89372  32.180  18.747   7.264  0.2592 -0.0984 -0.0402
46456W        W89373  30.125  19.269   6.900 -0.3722 -0.1620  0.0195
46457W        W89374  31.395  20.218   2.931  0.1790  0.2659 -0.0386
46458W        W89375  29.635  20.948   5.406  0.1278  0.1718  0.1310
46459W        W89376  31.792  16.448   4.326 -0.1402  0.0847  0.2296
46460W        W89377  30.318  19.483   3.232 -0.2329  0.2119  0.1573
46461W        W89378  31.656  17.286   4.558 -0.1038  0.1035  0.0156
46462W        W89379  32.828  18.443   6.538 -0.0947  0.0723  0.0555
46463W        W89380  31.737  20.612   2.883 -0.1337 -0.2586  0.3728
46464W        W89381  30.747  17.936   7.897  0.2015  0.2598  0.1428
46465W        W89382  29.836  19.418   4.755 -0.2759 -0.0417 -0.1614
46466W        W89383  32.342  18.516   4.497  0.1426  0.1191  0.1588
46467W        W89384  29.030  18.199   7.555  0.0645 -0.1018 -0.0018
46468W        W89385  32.825  22.309   6.298 -0.2242 -0.1343  0.4752
46469W        W89386  30.448  19.294   6.239 -0.2283 -0.1448  0.2873
46470W        W89387  30.447  18.307   3.153 -0.0850  0.1826 -0.0407
46471W        W89388  30.067  19.084   4.445 -0.3026  0.1543  0.1905
46472W        W89389  30.788  17.963   7.374 -0.1511  0.3020 -0.3265
46473W        W89390  32.398  19.338   5.996  0.0894  0.0214  0.0355
46474W        W89391  31.802  20.316   3.992  0.2118  0.2307 -0.1145
46475W        W89392  33.863  19.131   6.747 -0.1472  0.2337  0.0563
46476W        W89393  29.520  20.828   6.515 -0.0387  0.1238 -0.1257
46477W        W89394  33.151  18.958   4.464  0.4561  0.0878 -0.1382
46478W        W89395  31.659  18.580   3.961  0.1076 -0.0325  0.0939
46479W        W89396  31.459  20.710   4.916  0.1314  0.0564  0.2533
46480W        W89397  29.183  18.649   7.583  0.2079 -0.0896  0.0797
46481W        W89398  31.873  20.178   6.110 -0.1549  0.0842 -0.0386
46482W        W89399  31.127  18.364   5.566  0.1269 -0.1030 -0.0233
46483W        W89400  30.661  18.013   6.850 -0.2515  0.0597  0.2029
46484W        W89401  32.733  19.376   5.443 -0.2871 -0.0116  0.2294
46485W        W89402  31.975  19.244   7.379  0.0985  0.3442 -0.0724
46486W        W89403  28.670  18.139   8.033 -0.0271  0.0094  0.1616
46487W        W89404  32.182  21.943   7.234  0.0301  0.0425  0.1201
46488W        W89405  32.465  17.509   3.942  0.2095 -0.0927 -0.3379
46489W        W89406  34.552  18.051   5.959 -0.0029 -0.0037  0.1170
46490W        W89407  31.957  21.566   5.229 -0.0056  0.2252  0.1058
46491W        W89408  31.336  18.815   4.431  0.0181 -0.0376 -0.0999
46492W        W89409  32.556  18.396   7.087 -0.2115 -0.0656 -0.2055
46493W        W89410  32.880  20.264   4.203 -0.2744  0.0003 -0.0665
46494W        W89411  30.910  18.273   3.703 -0.1594 -0.0162 -0.2252
46495W        W89412  31.929  18.646   5.796 -0.1688 -0.5095 -0.0305
46496W        W89413  31.847  23.147   4.455 -0.1960  0.0050 -0.0817
46497W        W89414  31.693  18.700   5.312  0.1838  0.0423  0.3060
46498W        W89415  32.090  19.491   3.612 -0.1908  0.0176 -0.1929
46499W        W89416  26.984  18.602   5.362 -0.1592 -0.2041  0.3589
46500W        W89417  27.828  21.267   6.241  0.0425 -0.1383  0.1497
46501W        W89418  28.261  19.689   5.000  0.0409  0.0752  0.1086
46502W        W89419  30.240  20.666   2.144  0.2018  0.2037 -0.1687
46503W        W89420  31.722  18.174   4.708 -0.1443 -0.0384  0.0690
46504W        W89421  31.712  20.989   7.614  0.3121  0.5595  0.0901
46505W        W89422  30.313  18.162   5.190  0.1912  0.2554 -0.2675
46506W        W89423  31.803  18.823   7.614  0.2156 -0.1206 -0.0982
46507W        W89424  31.071  21.489   4.944  0.0426  0.2129 -0.3393
46508W        W89425  31.389  18.200   5.183  0.0073  0.0591 -0.3691
46509W        W89426  30.414  21.225   6.439 -0.2430 -0.0262 -0.1211
46510W        W89427  29.577  19.285   4.290  0.0090 -0.0713 -0.2711
46511W        W89428  30.112  20.921   5.785  0.0552  0.0075  0.1289
46512W        W89429  30.360  18.796   7.658 -0.1112 -0.1534  0.0308
46513W        W89430  31.991  19.071   5.497 -0.0329 -0.1203  0.1577
46514W        W89431  31.212  19.405   4.192  0.2862  0.1881 -0.3454
46515W        W89432  34.103  19.489   6.541 -0.0282  0.0511  0.1172
46516W        W89433  32.545  20.864   7.271  0.1235  0.0868  0.0736
46517W        W89434  29.134  20.362   5.809  0.1394  0.2147 -0.4342
46518W        W89435  32.944  18.354   7.513 -0.3138  0.1570 -0.1132
46519W        W89436  32.258  19.190   4.164  0.0167  0.1645 -0.3263
46520W        W89437  29.959  21.655   4.538  0.1665 -0.1003 -0.0363
46521W        W89438  30.175  19.261   7.590 -0.1000  0.0672 -0.0643
46522W        W89439  32.130  19.734   7.816  0.5247 -0.1855 -0.1204
46523W        W89440  32.460  19.408   4.712 -0.0393 -0.3861 -0.1367
46524W        W89441  32.302  17.244   4.770 -0.0105  0.0281 -0.0716
46525W        W89442  32.497  19.793   4.392  0.0575 -0.1245 -0.0771
46526W        W89443  30.190  20.760   9.503 -0.1634 -0.2486 -0.1657
46527W        W89444  28.160  18.021   5.125 -0.3587  0.3431 -0.2548
46528W        W89445  29.899  20.156   4.631  0.2729 -0.2222 -0.0247
46529W        W89446  31.667  21.378   3.678  0.2557 -0.4190 -0.0577
46530W        W89447  32.051  20.976   6.343  0.1244 -0.1578 -0.0095
46531W        W89448  32.469  19.675   6.449  0.0085  0.2085  0.1841
46532W        W89449  28.827  21.576   4.619 -0.1653 -0.0991 -0.0445
46533W        W89450  31.082  20.995   4.782 -0.0128 -0.2852  0.1125
46534W        W89451  30.246  21.196   4.516  0.2207 -0.0615 -0.2705
46535W        W89452  31.848  21.055   3.135  0.3166  0.1352 -0.2299
46536W        W89453  29.379  21.781   5.321 -0.2039  0.0018  0.2502
46537W        W89454  32.582  22.245   7.211  0.1042 -0.2519 -0.4075
46538W        W89455  33.643  18.264   2.819 -0.1854  0.2053 -0.0251
46539W        W89456  31.853  20.598   4.570  0.0677 -0.0667 -0.1041
46540W        W89457  32.140  18.974   4.597 -0.1239 -0.2800 -0.2466
46541W        W89458  32.626  20.854   6.386  0.0124 -0.0075  0.1882
46542W        W89459  31.724  19.832   5.020 -0.0926 -0.2520 -0.2292
46543W        W89460  30.093  20.104   2.849 -0.2132  0.0257  0.0203
46544W        W89461  30.362  21.277   3.713 -0.3944  0.1074 -0.1447
46545W        W89462  34.627  18.243   6.424 -0.3368  0.2420 -0.0109
46546W        W89463  27.326  20.945   6.439  0.1485  0.1388  0.2064
46547W        W89464  32.748  21.133   4.966  0.3496  0.0513  0.2111
46548W        W89465  29.412  20.239   4.821  0.1352  0.3001  0.0092
46549W        W89466  30.017  20.926   3.484 -0.0269  0.0864 -0.1582
46550W        W89467  33.900  18.866   7.355  0.0387  0.2262 -0.0704
46551W        W89468  31.163  20.371   4.028 -0.0197  0.2848 -0.0901
46552W        W89469  32.641  18.868   6.806 -0.1826  0.1161 -0.0690
46553W        W89470  30.236  22.870   4.997  0.0763 -0.2682 -0.0791
46554W        W89471  30.982  18.369   6.533 -0.2676  0.0744  0.0045
46555W        W89472  31.011  20.845   5.990 -0.0638 -0.0307  0.1801
46556W        W89473  28.129  18.894   4.462 -0.2225  0.1706 -0.2789
46557W        W89474  32.401  19.384   3.214  0.0712 -0.2008  0.0050
46558W        W89475  29.850  19.730   5.655  0.0210  0.0720 -0.0512
46559W        W89476  32.710  16.565   7.542  0.1313  0.0390 -0.0574
46560W        W89477  31.526  19.488   4.687 -0.0542  0.1897 -0.1010
46561W        W89478  33.290  19.638   3.657  0.1174 -0.0384 -0.1339
46562W        W89479  30.103  20.440   8.353  0.1301  0.1587  0.1648
46563W        W89480  31.756  19.558   5.498 -0.1537 -0.0973  0.3176
46564W        W89481  29.924  17.963   3.393 -0.4309 -0.0400  0.2758
46565W        W89482  32.180  20.731   5.368  0.0426 -0.1245 -0.1152
46566W        W89483  31.469  18.941   3.436 -0.0080  0.4332 -0.1414
46567W        W89484  32.164  21.111   6.883 -0.2983 -0.0561  0.0890
46568W        W89485  27.893  19.328   4.911 -0.0744  0.1588  0.2445
46569W        W89486  32.172  17.982   3.853  0.2033 -0.1150 -0.3790
46570W        W89487  30.063  21.587   5.883  0.0366 -0.0744  0.0451
46571W        W89488  32.646  18.889   4.608  0.1857  0.1891  0.0264
46572W        W89489  31.107  22.356   7.315  0.1738  0.4785 -0.1785
46573W        W89490  28.805  17.741   4.474  0.0764 -0.1282 -0.0375
46574W        W89491  33.282  21.887   2.484  0.2871 -0.3576  0.0470
46575W        W89492  33.568  18.968   4.780  0.1692  0.0917 -0.0643
46576W        W89493  31.072  21.389   5.661 -0.1872  0.0821  0.1271
46577W        W89494  31.980  21.067   5.080  0.0239  0.1691  0.0381
46578W        W89495  32.284  19.653   7.038  0.0317  0.1689 -0.1137
46579W        W89496  28.303  19.304   5.780  0.1726  0.0041 -0.1270
46580W        W89497  34.090  21.762   7.131  0.3546 -0.1338  0.2436
46581W        W89498  32.267  20.257   4.476  0.3245  0.1455 -0.2072
46582W        W89499  30.501  18.829   2.389  0.2937  0.1021  0.1798
46583W        W89500  30.564  20.866   4.439 -0.2742  0.2572  0.1907
46584W        W89501  30.348  20.477   2.675  0.0984  0.1540  0.0944
46585W        W89502  33.154  19.100   7.034 -0.0365  0.2039  0.1003
46586W        W89503  31.796  16.557   7.223 -0.2298 -0.2195 -0.0428
46587W        W89504  32.004  20.375   5.009  0.0666  0.0168  0.0890
46588W        W89505   0.053  18.569   7.747  0.0592  0.0953  0.0232
46589W        W89506  32.721  20.102   6.320  0.1102 -0.0236  0.0995
46590W        W89507  30.791  21.477   8.622  0.0884 -0.0754  0.3991
46591W        W89508  30.406  20.015   3.306 -0.0218  0.1294  0.2078
46592W        W89509  33.802  20.813   6.595 -0.1091 -0.2886 -0.1387
46593W        W89510  29.927  19.939   3.485  0.2486  0.2702  0.0214
46594W        W89511  33.053  20.467   6.271  0.1407 -0.4012  0.0525
46595W        W89512  33.280  23.283   3.956 -0.2824  0.1066 -0.1677
46596W        W89513  30.751  20.651   3.987  0.1964  0.0208 -0.1062
46597W        W89514  33.431  19.865   5.797  0.0688 -0.0991 -0.2517
46598W        W89515  32.332  18.210   3.469 -0.1054 -0.1803 -0.2210
46599W        W89516  34.672  18.070   2.397 -0.1134  0.3331  0.0317
46600W        W89517  33.699  18.412   2.241  0.1352  0.0368 -0.3216
46601W        W89518  31.434  18.976   6.204 -0.3015  0.0106  0.1185
46602W        W89519  28.284  19.778   4.305  0.3059  0.3088 -0.0820
46603W        W89520  29.175  18.955   4.192  0.0682  0.0931 -0.0561
46604W        W89521  29.993  21.549   6.363  0.0281  0.1444  0.1094
46605W        W89522  30.068  19.877   8.189  0.0289 -0.5159 -0.1865
46606W        W89523  29.178  19.368   6.897  0.2902  0.2210 -0.1863
46607W        W89524  27.986  17.570   4.403  0.2450  0.0996 -0.0225
46608W        W89525  29.026  19.022   4.937  0.0836 -0.0540 -0.0233
46609W        W89526  31.654  20.506   3.427 -0.3480  0.0360 -0.1332
46610W        W89527  30.896  19.070   4.414 -0.5092  0.2590 -0.0861
46611W        W89528  30.757  17.553   3.800  0.1132  0.0928 -0.0858
46612W        W89529  30.423  21.285   5.812  0.1019 -0.1741  0.1546
46613W        W89530  32.511  21.809   4.621 -0.2609  0.1089 -0.1471
46614W        W89531  30.030  20.008   5.183 -0.0580 -0.1694  0.1788
46615W        W89532  32.858  21.862   6.647 -0.1494 -0.0558 -0.3371
46616W        W89533  28.602  19.936   3.498  0.0621 -0.2752  0.0310
46617W        W89534  30.552  18.173   5.628  0.0088  0.1189 -0.1544
46618W        W89535  31.636  19.293   5.894  0.1347 -0.2335  0.0440
46619W        W89536  29.803  19.266   3.472  0.1093 -0.0150 -0.0747
46620W        W89537  32.492  18.934   5.593 -0.0935  0.2241  0.1102
46621W        W89538  32.677  22.152   3.504 -0.0461  0.0408  0.2708
46622W        W89539  32.022  21.595   3.349 -0.3582 -0.2642  0.1948
46623W        W89540  30.288  20.811   5.311 -0.2750 -0.0266  0.0967
46624W        W89541  32.353  22.188   6.725 -0.0726 -0.3056  0.1208
46625W        W89542  28.602  17.369   7.150  0.1979  0.4045 -0.0521
46626W        W89543  32.504  20.233   3.896  0.0137 -0.1679  0.1646
46627W        W89544  31.947  21.488   8.084  0.5151  0.1337 -0.2831
46628W        W89545  32.011  21.834   4.659 -0.0403 -0.3504 -0.0659
46629W        W89546  32.305  18.193   6.383 -0.0419  0.1022  0.2540
46630W        W89547  31.088  19.864   2.753  0.1052 -0.0682  0.1000
46631W        W89548  28.894  18.893   6.233 -0.0810 -0.0470  0.3412
46632W        W89549  30.521  20.375   5.359 -0.1707  0.0298  0.0455
46633W        W89550  31.867  18.954   6.781  0.0483 -0.0815  0.2927
46634W        W89551  29.912  19.363   6.403  0.0668 -0.0866  0.0296
46635W        W89552  32.154  18.558   4.017  0.2278  0.3254 -0.1636
46636W        W89553  32.142  21.266   3.893 -0.0306  0.1610  0.0781
46637W        W89554  31.424  20.404   5.795 -0.0698 -0.1664 -0.0038
46638W        W89555  31.633  19.032   4.834  0.0925 -0.3231 -0.1581
46639W        W89556  31.993  20.221   6.963  0.1509 -0.0555  0.2383
46640W        W89557  31.078  18.794   5.275 -0.0876 -0.1905  0.4439
46641W        W89558  32.382  19.682   9.344 -0.0150 -0.2822 -0.1211
46642W        W89559  30.379  19.928   4.289 -0.0010  0.0302  0.1868
46643W        W89560  32.564  20.809   2.867  0.1023  0.2546 -0.2664
46644W        W89561  31.726  21.517   7.518  0.2782  0.1746  0.3191
46645W        W89562  33.552  21.641   7.035  0.1098  0.1931 -0.1447
46646W        W89563  32.429  20.241   5.152  0.1937  0.0793 -0.4057
46647W        W89564  32.204  19.914   4.791 -0.0219  0.0339 -0.0536
46648W        W89565  30.189  17.838   5.540  0.0672 -0.2679 -0.0491
46649W        W89566  31.734  20.042   4.509  0.1052  0.1372  0.0292
46650W        W89567  32.176  18.195   5.752  0.0505 -0.0739  0.1810
46651W        W89568  30.889  18.335   7.105 -0.0186  0.2664  0.0837
46652W        W89569  30.560  17.212   4.445  0.1103 -0.0396 -0.1905
46653W        W89570  31.208  19.501   3.645 -0.0326  0.1520  0.0064
46654W        W89571  31.373  20.072   6.366  0.1333 -0.4758 -0.1943
46655W        W89572  31.237  20.406   4.528  0.2421  0.0167 -0.0268
46656W        W89573  28.301  18.590   9.043  0.1053 -0.2650 -0.1416
46657W        W89574  28.814  19.435   9.190 -0.2524 -0.2622 -0.2453
46658W        W89575  32.263  17.922   7.664 -0.0884 -0.1665  0.2652
46659W        W89576  34.505  21.564   8.671  0.2716  0.0389  0.2305
46660W        W89577  30.581  18.345   8.109  0.2181  0.1414  0.1711
46661W        W89578  33.991  23.133   6.967 -0.2650 -0.3674  0.3716
46662W        W89579  33.623  19.947   8.811 -0.0529 -0.2211 -0.4212
46663W        W89580  33.925  23.723   8.620 -0.0828 -0.2116  0.3147
46664W        W89581  32.550  19.568   7.978 -0.0631 -0.2304 -0.1402
46665W        W89582  30.427  22.417   9.255 -0.0380  0.0174 -0.0538
46666W        W89583  30.558  18.623   5.394  0.2451  0.0575  0.1864
46667W        W89584  30.019  16.227   8.344  0.0785 -0.1141  0.1031
46668W        W89585  31.667  20.955   8.465 -0.3211  0.1104 -0.1627
46669W        W89586  29.664  19.082   8.811 -0.1558  0.2487 -0.1180
46670W        W89587  30.920  17.336   8.528  0.1078 -0.1073  0.1387
46671W        W89588  31.660  18.643   8.087 -0.0562 -0.1135  0.2110
46672W        W89589  29.154  21.609   9.309 -0.1916 -0.1090 -0.1967
46673W        W89590  30.207  20.894   8.525 -0.1365 -0.2373  0.2681
46674W        W89591  30.840  20.974   6.516  0.0530  0.1172  0.0255
46675W        W89592  27.709  18.279   8.052  0.1393 -0.1404 -0.0686
46676W        W89593  31.265  19.876   8.080  0.1209  0.1178  0.0525
46677W        W89594  32.596  16.062   9.679  0.1213 -0.0391 -0.1316
46678W        W89595  31.393  19.494   8.419  0.0672  0.0458 -0.1816
46679W        W89596  33.777  20.684   7.917  0.1330 -0.3543 -0.1513
46680W        W89597  32.175  21.416   7.272 -0.0356 -0.2172 -0.2086
46681W        W89598  33.927  18.857   9.287 -0.0118  0.0090  0.1622
46682W        W89599  27.437  17.249   8.474 -0.1147  0.1094 -0.2683
46683W        W89600  30.586  21.174   6.938  0.0272  0.0408  0.1242
46684W        W89601  31.713  22.008   7.427  0.1493  0.0767  0.2182
46685W        W89602  33.571  20.677   9.352  0.1036 -0.0609 -0.0721
46686W        W89603  30.697  20.769   5.624 -0.0130 -0.0664 -0.4239
46687W        W89604  32.419  22.480   8.228  0.1327 -0.1234  0.1982
46688W        W89605  32.975  22.113   9.454 -0.0172 -0.0566 -0.0788
46689W        W89606  31.610  21.187   7.080  0.0979 -0.4262 -0.2418
46690W        W89607  33.922  22.499   9.260 -0.0362 -0.1293 -0.0920
46691W        W89608  29.596  20.064  13.078  0.1050 -0.0455 -0.0746
46692W        W89609  29.221  19.315   7.406  0.2898  0.0390 -0.1452
46693W        W89610  32.679  18.086   7.905  0.2688  0.3277  0.0247
46694W        W89611  30.841  18.570   5.943  0.3715 -0.0325 -0.2310
46695W        W89612  33.384  18.615   7.357 -0.2615 -0.4262  0.0394
46696W        W89613  32.918  18.581   9.802 -0.0064  0.0014  0.1175
46697W        W89614  29.935  20.778   7.988 -0.1375 -0.1133  0.2871
46698W        W89615  31.906  17.771   8.284  0.1513 -0.2359 -0.0722
46699W        W89616  31.487  20.257   6.889  0.0240  0.0797 -0.3546
46700W        W89617  30.806  21.485   8.110 -0.1520 -0.2294  0.1585
46701W        W89618  29.151  21.391   8.306 -0.0818  0.0750 -0.0467
46702W        W89619  27.710  18.736   7.893 -0.4454  0.2596 -0.2359
46703W        W89620  32.411  22.187   8.645 -0.3699 -0.0283 -0.1265
46704W        W89621  32.640  22.928   7.943  0.0571  0.0795  0.2295
46705W        W89622  32.150  22.641   6.799 -0.0616  0.0286 -0.0503
46706W        W89623  28.736  20.616   5.584 -0.1032  0.0896 -0.2507
46707W        W89624  31.352  19.096   6.654 -0.2365  0.2346 -0.2227
46708W        W89625  33.864  17.749   8.496 -0.0320  0.0116 -0.4885
46709W        W89626  32.432  21.458   7.957  0.0043  0.1254 -0.2963
46710W        W89627   1.242  21.404   8.870 -0.0021  0.2558  0.0761
46711W        W89628  32.970  19.643   6.562  0.2287  0.0304 -0.0287
46712W        W89629  33.919  13.964   9.123 -0.0025  0.0462 -0.1260
46713W        W89630  31.677  21.877   7.942  0.1973 -0.0453  0.2548
46714W        W89631  30.496  20.534   6.557  0.3441 -0.1304  0.1409
46715W        W89632  31.981  20.218   7.790 -0.1043 -0.0699  0.0576
46716W        W89633   2.366  18.624  12.683 -0.1294  0.2621 -0.1933
46717W        W89634  30.403  18.799   8.293 -0.0275  0.0137 -0.1254
46718W        W89635  31.752  19.787   8.707 -0.0341  0.1240 -0.1669
46719W        W89636  29.634  21.525   8.506  0.1757  0.0504  0.3051
46720W        W89637  29.847  20.290   7.989  0.0437  0.0308  0.1101
46721W        W89638  29.447  19.473   7.775 -0.1829  0.1032 -0.2704
46722W        W89639  30.887  16.684   8.178 -0.4016 -0.2018  0.0073
46723W        W89640  32.183  20.156   8.264 -0.3167 -0.1651  0.2565
46724W        W89641  32.030  17.496   7.891 -0.1310 -0.1395 -0.0573
46725W        W89642  34.491  19.521   8.917  0.2169  0.0166 -0.3009
46726W        W89643  29.091  21.257   7.853 -0.0525 -0.2052 -0.1360
46727W        W89644  31.721  21.642   9.135  0.1424 -0.1979  0.0679
46728W        W89645   0.842  17.666   9.017 -0.1239 -0.0738 -0.0749
46729W        W89646  32.298  23.125   6.775  0.1814 -0.2539  0.0150
46730W        W89647  29.185  16.465   6.804  0.4092  0.0596 -0.1941
46731W        W89648  29.073  18.835   9.167 -0.1303 -0.2232  0.0661
46732W        W89649  29.194  17.117   9.325 -0.0311  0.0040 -0.1366
46733W        W89650  30.064  16.179   7.297 -0.0412  0.1071 -0.0815
46734W        W89651  32.423  17.762   8.193 -0.0231  0.0727  0.1786
46735W        W89652  31.400  19.133   7.926 -0.3689 -0.1682 -0.0127
46736W        W89653  28.818  20.811   8.031  0.0288 -0.0194 -0.1429
46737W        W89654  30.766  23.203   7.246  0.1065  0.2255  0.0312
46738W        W89655  32.158  24.222   9.569  0.3498  0.1814 -0.0072
46739W        W89656  32.897  20.511   7.564 -0.2673 -0.0979  0.0837
46740W        W89657  31.619  19.793   7.713  0.0807 -0.0268  0.1112
46741W        W89658  32.168  17.667   9.069  0.3458  0.0109  0.0882
46742W        W89659  29.663  21.847   8.980 -0.2902  0.0415  0.1783
46743W        W89660  32.284  21.462   8.428 -0.2240 -0.2599 -0.1838
46744W        W89661  29.902  17.489   8.883 -0.0881 -0.0069 -0.3046
46745W        W89662  32.922  21.450   7.908 -0.1271  0.1058  0.1948
46746W        W89663  31.259  20.769   7.139 -0.2654 -0.0821 -0.1047
46747W        W89664  29.193  20.373   8.873 -0.0147  0.0474  0.2252
46748W        W89665  31.829  20.678   8.002 -0.0050 -0.0404 -0.0996
46749W        W89666  28.512  18.181   7.477  0.0445 -0.1156 -0.1323
46750W        W89667  33.463  23.597   9.243  0.0549 -0.0678 -0.1511
46751W        W89668  30.716  22.258   7.818 -0.2160 -0.1172 -0.0102
46752W        W89669  29.912  18.751   8.478  0.2112  0.1333  0.0572
46753W        W89670  32.055  21.339   8.901  0.0303 -0.1413  0.0029
46754W        W89671  32.957  21.919   8.925  0.0627 -0.0075  0.0787
46755W        W89672  29.576  19.488   6.030 -0.3482 -0.0372 -0.0597
46756W        W89673  30.551  19.522   8.359  0.0047  0.2208  0.0856
46757W        W89674  33.046  17.566   8.073  0.2150  0.0756  0.0821
46758W        W89675  33.726  21.126   9.754 -0.1262 -0.1331 -0.3384
46759W        W89676  30.105  17.534   6.983  0.1528  0.2419  0.0539
46760W        W89677  32.423  18.405   7.602 -0.1089 -0.0843  0.1839
46761W        W89678  30.779  21.597   7.055 -0.4948  0.0728  0.0686
46762W        W89679  30.507  23.625   9.053  0.0674  0.2387  0.0776
46763W        W89680  30.376  17.479   7.424  0.0275  0.1216 -0.1932
46764W        W89681  31.214  21.749   8.943 -0.0015 -0.2041 -0.0984
46765W        W89682  32.207  20.994   7.663  0.3115 -0.2985 -0.1180
46766W        W89683  27.464  18.872   9.147 -0.1370  0.0738  0.3054
46767W        W89684  31.445  15.603   9.822  0.1043  0.1603 -0.1047
46768W        W89685  30.833  18.819   7.920  0.0740 -0.1839  0.1431
46769W        W89686  31.517  19.384   7.475  0.2557  0.2936 -0.0248
46770W        W89687  30.506  22.168   5.975 -0.5425 -0.1139 -0.2280
46771W        W89688  33.474  20.936   8.305 -0.2057  0.0488 -0.2787
46772W        W89689  33.006  21.040   8.922 -0.0713 -0.0851 -0.0582
46773W        W89690  32.354  18.617   8.006 -0.0622  0.3581  0.0679
46774W        W89691  33.849  23.362   9.542 -0.1415  0.0151 -0.0547
46775W        W89692  32.140  21.818   7.755  0.1257 -0.0088  0.2253
46776W        W89693  29.710  19.465   8.321 -0.0349  0.2757 -0.1010
46777W        W89694  28.809  20.488   7.039 -0.0991  0.1102 -0.0312
46778W        W89695  33.929  21.710   8.050 -0.0058 -0.1250  0.1791
46779W        W89696  31.775  19.329   8.624  0.1536 -0.1277  0.1493
46780W        W89697  30.350  22.376   8.712  0.0691  0.0162  0.0104
46781W        W89698  30.696  19.415   6.748 -0.1156 -0.4543  0.2767
46782W        W89699  31.634  17.915   9.140  0.0577  0.1557 -0.0342
46783W        W89700  31.238  22.275   8.768  0.0580  0.1387 -0.2267
46784W        W89701  30.325  21.798   7.356 -0.3067 -0.0330  0.2389
46785W        W89702  31.817  24.940   9.446  0.0349  0.3147 -0.2668
46786W        W89703  29.619  20.523   7.587  0.0724  0.0146 -0.2350
46787W        W89704  33.167  19.274   8.363 -0.1572 -0.0405 -0.1195
46788W        W89705  31.292  21.151   8.851 -0.1074  0.1877  0.3461
46789W        W89706  29.493  18.275   6.066  0.2680 -0.3131  0.0778
46790W        W89707  30.272  19.704   7.178 -0.3630  0.2003 -0.3484
46791W        W89708  33.513  19.311   8.021  0.2889 -0.1495  0.2608
46792W        W89709  32.999  19.300   7.872 -0.0802 -0.1422 -0.3129
46793W        W89710  31.481  18.501   8.565  0.0442 -0.2645 -0.0706
46794W        W89711  31.881  20.451   8.482 -0.0991  0.0461  0.1847
46795W        W89712  27.044  23.376   9.191  0.0567  0.1818  0.1615
46796W        W89713  32.731  18.968   8.128 -0.2757 -0.0582  0.1670
46797W        W89714  30.847  18.814   7.322  0.4274 -0.2172 -0.1068
46798W        W89715  33.962  17.919   8.062 -0.1265  0.0506  0.1776
46799W        W89716  31.077  19.211   7.118  0.2317 -0.0156  0.2169
46800W        W89717  31.543  21.228   8.021 -0.3072  0.2011 -0.1761
46801W        W89718  32.605  21.967   8.077  0.1457  0.0305 -0.0779
46802W        W89719  29.577  18.670   7.998  0.0777  0.0651 -0.2105
46803W        W89720  31.304  20.698   8.278  0.0032 -0.1294  0.3973
46804W        W89721  25.805  17.930   8.960 -0.2405  0.3253 -0.0770
46805W        W89722  32.620  19.230   9.105  0.1487  0.3753 -0.2647
46806W        W89723  30.916  19.984   6.938 -0.0891  0.5221 -0.3112
46807W        W89724  33.388  22.337   8.219 -0.2083 -0.0654  0.1865
46808W        W89725  32.650  19.718   8.932 -0.1416  0.1086  0.1631
46809W        W89726  29.806  17.499   9.376  0.0274  0.1017 -0.1186
46810W        W89727  27.588  17.220   8.974  0.2357  0.3125 -0.0915
46811W        W89728  34.457  21.808   7.715 -0.0002  0.1702 -0.2997
46812W        W89729  30.139  19.366   8.071 -0.1370 -0.3034 -0.3538
46813W        W89730  27.804  18.609   9.434  0.2154 -0.2225 -0.1400
46814W        W89731  31.917  19.844   9.137 -0.0607  0.0377  0.0631
46815W        W89732  33.615  19.824   8.248  0.0697  0.2528  0.0194
46816W        W89733  27.437  20.974   7.748 -0.3016  0.0347 -0.1946
46817W        W89734  30.220  19.693   6.596  0.1396  0.0029 -0.0626
46818W        W89735  27.337  18.609   8.091 -0.1499 -0.0332  0.0199
46819W        W89736  32.659  18.937   7.298 -0.1156  0.0465  0.1557
46820W        W89737  31.716  19.836   6.703  0.4831  0.0548 -0.0136
46821W        W89738  29.916  17.800   7.408 -0.1177 -0.2235 -0.2429
46822W        W89739  30.831  20.644   7.466  0.2683  0.1727  0.1196
46823W        W89740  31.423  16.468   9.588  0.2772 -0.0997 -0.0576
46824W        W89741  32.381  22.257   7.738  0.0340 -0.0700  0.0292
46825W        W89742  31.136  18.722   6.878  0.1169  0.1541 -0.0555
46826W        W89743  29.947  16.983   8.152  0.2003  0.1236 -0.1991
46827W        W89744  30.377  21.302   8.833 -0.1065  0.3209 -0.2421
46828W        W89745  30.977  20.300   7.780  0.0386  0.4214 -0.0501
46829W        W89746  31.243  19.555   6.841 -0.2371 -0.1118  0.3802
46830W        W89747  31.290  19.151   9.459  0.0041 -0.2855  0.3444
46831W        W89748  28.958  19.920   7.884 -0.1261  0.0475 -0.1199
46832W        W89749  32.703  20.221   8.645 -0.3167  0.3189  0.1058
46833W        W89750  31.376  18.961   8.430  0.5379 -0.4393  0.1163
46834W        W89751  29.915  19.650   7.741 -0.0621  0.2016  0.1273
46835W        W89752  31.832  21.924   9.719 -0.1323 -0.0238  0.0183
46836W        W89753  32.051  18.083   8.759 -0.0717 -0.4124  0.0710
46837W        W89754  29.300  20.896   8.145 -0.0174  0.0726 -0.2576
46838W        W89755  32.188  20.493   6.242 -0.0864  0.0315 -0.2983
46839W        W89756  33.987  21.658   9.532  0.2228  0.1904  0.1134
46840W        W89757  32.634  20.081   7.918  0.0961 -0.2325  0.1796
46841W        W89758  31.447  18.384   7.193 -0.1312  0.2102 -0.0973
46842W        W89759  32.072  18.555   8.417  0.2006  0.4081 -0.0298
46843W        W89760  31.542  18.148   8.076 -0.2482 -0.0846 -0.1318
46844W        W89761  30.797  21.905   7.490 -0.2090  0.2731 -0.1914
46845W        W89762  33.447  24.162   9.369 -0.0652 -0.1134  0.2798
46846W        W89763  30.810  20.400   6.179  0.2182  0.1352 -0.0608
46847W        W89764  30.126  19.836  12.936 -0.1332  0.1361 -0.1951
46848W        W89765  31.107  20.283   7.276  0.0634 -0.3156 -0.1229
46849W        W89766  32.942  19.161   5.864  0.3373  0.2293  0.1849
46850W        W89767  33.917  24.418   9.204 -0.0275 -0.0209  0.0939
46851W        W89768  30.160  16.843   7.589 -0.0849 -0.0231  0.2545
46852W        W89769  28.655  20.215   8.270  0.0631 -0.0217  0.0673
46853W        W89770  32.225  20.300   9.276  0.2060  0.3096 -0.0384
46854W        W89771  29.798  20.287   8.995 -0.2387 -0.1521  0.1340
46855W        W89772  29.894  21.214   8.792 -0.1368  0.2651  0.0003
46856W        W89773  32.220  19.462   8.897 -0.1497  0.0642  0.1667
46857W        W89774  31.566  18.969   8.978  0.0747  0.0756 -0.0058
46858W        W89775  31.185  21.563   7.664  0.1757  0.0523  0.0078
46859W        W89776  29.304  19.460   8.680 -0.2305  0.0281  0.0234
46860W        W89777   0.302  22.061   9.328  0.0033  0.2104 -0.1236
46861W        W89778  31.435  20.171   8.517  0.0735  0.1290  0.2546
46862W        W89779  31.752  23.372   9.304  0.2661 -0.1273  0.2057
46863W        W89780  30.497  17.616   8.693  0.4263  0.1554 -0.0457
46864W        W89781  30.783  20.613   6.983 -0.2453  0.1070 -0.6057
46865W        W89782  29.332  17.532   9.501  0.1028  0.1747 -0.2497
46866W        W89783  29.296  22.637   8.376 -0.0819 -0.2661  0.0395
46867W        W89784  33.404  19.105   7.566 -0.3567  0.0449  0.0556
46868W        W89785  33.074  21.925   7.778  0.1126 -0.1101 -0.2537
46869W        W89786  31.345  22.984   8.927 -0.2944 -0.1540 -0.0795
46870W        W89787  31.892  18.251   7.496  0.1355  0.2829  0.0964
46871W        W89788  30.298  21.416   8.259  0.1574  0.2012 -0.2698
46872W        W89789  30.129  21.364   7.163 -0.3264  0.2442 -0.3022
46873W        W89790  32.211  20.808   8.775  0.3895  0.3421 -0.1011
46874W        W89791  30.610  23.898   8.250  0.3289 -0.0047 -0.1295
46875W        W89792  32.887  17.934   8.359  0.3419 -0.2154  0.2769
46876W        W89793  33.827  21.696   8.948  0.1449 -0.1980 -0.0824
46877W        W89794  32.609  17.981   9.002 -0.0371 -0.0392  0.0286
46878W        W89795  31.262  20.671   7.685 -0.1494 -0.3479 -0.2430
46879W        W89796  30.656  18.041   8.562  0.0100 -0.0039  0.0782
46880W        W89797  33.233  21.030   7.871  0.0052  0.0210  0.0451
46881W        W89798  29.914  19.213   9.254 -0.3720  0.2029 -0.2169
46882W        W89799  31.812  18.508   8.915  0.1282  0.2432  0.0311
46883W        W89800  34.085  19.262   8.811  0.0322  0.3293 -0.0307
46884W        W89801  33.155  20.153   7.715  0.0285  0.0112 -0.1742
46885W        W89802  32.343  22.699   9.167  0.2027 -0.2325 -0.1813
46886W        W89803  29.538  22.272   8.681 -0.0952  0.1045  0.3253
46887W        W89804  30.102  21.528   9.290  0.0609 -0.0450 -0.1998
46888W        W89805  32.780  22.970   9.169  0.2497  0.2905  0.1349
46889W        W89806  28.884  16.964   7.451 -0.0204 -0.0119  0.1556
46890W        W89807   0.399  19.909   6.794 -0.0824 -0.0925  0.0708
46891W        W89808  29.498  20.013   7.643  0.0242  0.2566 -0.0448
46892W        W89809  30.957  19.207   7.626 -0.0673  0.0788  0.0661
46893W        W89810  31.158  17.650   8.827 -0.0123  0.1921  0.0174
46894W        W89811  32.156  22.336   9.556 -0.0279  0.4111 -0.0487
46895W        W89812  27.233  16.002   9.620 -0.1005  0.1012 -0.1167
46896W        W89813  30.454  17.104   8.450 -0.2359 -0.3588  0.1030
46897W        W89814  30.628  20.134   7.337  0.2044  0.0527 -0.0747
46898W        W89815  29.035  17.160   8.704 -0.1938 -0.0457 -0.1737
46899W        W89816  30.446  19.461   5.678 -0.2187 -0.2575 -0.0066
46900W        W89817  28.654  18.643   7.902  0.0099 -0.0386 -0.0833
46901W        W89818  30.043  20.142   9.433 -0.2291 -0.1747  0.4218
46902W        W89819  29.750  17.780   8.395 -0.0761  0.1715 -0.4305
46903W        W89820  32.979  20.605   7.072 -0.1137  0.0188 -0.1412
46904W        W89821  33.304  21.443   8.850 -0.3166  0.1827 -0.1068
46905W        W89822  30.372  20.962   7.832  0.1140  0.2592 -0.0784
46906W        W89823  34.003  23.042   9.225 -0.3548  0.0030 -0.2924
46907W        W89824  32.635  22.466   9.510  0.0223  0.1434 -0.3332
46908W        W89825  28.145  18.657   7.653  0.4139  0.0082  0.1865
46909W        W89826  30.472  24.414   9.384 -0.0792  0.1333  0.2834
46910W        W89827  34.153  23.959   9.024  0.0150 -0.0759  0.2277
46911W        W89828  29.888  18.327   7.150 -0.2103 -0.2812  0.0434
46912W        W89829  30.696  18.445   8.836 -0.0067  0.0668 -0.0929
46913W        W89830  30.430  22.311   7.400 -0.2382  0.1937 -0.2555
46914W        W89831  33.145  19.280   8.893  0.0212 -0.0068  0.6256
46915W        W89832  31.538  20.800   6.193 -0.0020  0.0104  0.1245
46916W        W89833  29.373  20.502   9.289  0.0126  0.3384  0.2868
46917W        W89834  28.147  18.674   5.834 -0.3171  0.1855 -0.2090
46918W        W89835  32.664  19.839   8.385 -0.0743 -0.0255  0.2046
46919W        W89836  29.855  22.781   6.396 -0.0614  0.1464 -0.1051
46920W        W89837  34.390  21.157   9.429 -0.0476 -0.0229  0.0363
46921W        W89838  31.984  21.831   8.782 -0.1638  0.1847 -0.0855
46922W        W89839  33.065  20.678   8.577 -0.0715  0.1087  0.1737
46923W        W89840  32.136  19.101   8.363  0.2778  0.0401 -0.2165
46924W        W89841  32.314  18.471   8.949 -0.1027  0.0023  0.2306
46925W        W89842  31.738  18.349   9.845  0.0262 -0.1053  0.0339
46926W        W89843  29.525  19.897   8.127 -0.0773 -0.1502 -0.0399
46927W        W89844  29.655  18.117   9.367 -0.1999 -0.3148 -0.0312
46928W        W89845  28.950  19.788   6.830 -0.1377 -0.1348 -0.2634
46929W        W89846  29.756  20.728   8.689 -0.1971 -0.0830  0.0242
46930W        W89847  29.082  19.886   8.852  0.2327  0.1423 -0.0658
46931W        W89848  29.984  17.029   8.643  0.0386 -0.1556  0.2117
46932W        W89849  32.752  23.202   6.963  0.0227  0.1475  0.1907
46933W        W89850  28.461  17.339   8.827  0.1361  0.0032  0.0278
46934W        W89851  27.706  17.780   8.477  0.1052  0.0915 -0.0671
46935W        W89852  30.886  21.103   7.299  0.0665  0.0420 -0.1255
46936W        W89853  33.634  22.810   9.594  0.1637 -0.0605 -0.2171
46937W        W89854  30.371  17.444   9.274  0.0047 -0.2577  0.0443
46938W        W89855  29.633  19.531   6.756 -0.1068  0.0279 -0.1117
46939W        W89856  29.624  17.471   7.138  0.0160  0.0048 -0.0978
46940W        W89857  28.195  20.331   8.389  0.0238 -0.0700 -0.0133
46941W        W89858  30.976  21.058   7.811 -0.1587  0.0547 -0.0044
46942W        W89859  31.293  21.595   8.196  0.3536 -0.2506 -0.1614
46943W        W89860  28.778  17.600   9.568  0.0699  0.0279 -0.0196
46944W        W89861  32.132  21.020   8.217 -0.2322  0.1200 -0.2161
46945W        W89862  33.723  22.757   7.999  0.2239  0.0755  0.2634
46946W        W89863  29.643  17.936   8.929 -0.3820  0.2345 -0.0827
46947W        W89864  31.789  19.410   8.084  0.4150  0.0560 -0.0589
46948W        W89865   2.612  22.835   9.604  0.2915  0.1089 -0.0127
46949W        W89866  27.186  17.690   8.615  0.1326 -0.0166 -0.1927
46950W        W89867  31.130  19.244   8.738 -0.2839 -0.0360 -0.1557
46951W        W89868  33.262  22.156   6.511  0.0717  0.0260  0.0333
46952W        W89869  30.641  19.909   9.346  0.1202  0.1872  0.0015
46953W        W89870  29.577  18.707   9.257  0.1820 -0.0273  0.1512
46954W        W89871  31.310  20.380   9.176  0.0681  0.0128  0.0387
46955W        W89872  30.004  18.897   7.966  0.2638  0.0844  0.0588
46956W        W89873   0.138  20.564   7.957  0.0136 -0.0884 -0.2033
46957W        W89874  32.875  22.492   9.048  0.0989  0.0048  0.0005
46958W        W89875  29.310  23.185   7.728 -0.0274 -0.1855  0.1207
46959W        W89876  33.439  23.021   9.166 -0.1819 -0.1216 -0.2509
46960W        W89877  31.568  14.087   8.690  0.1977 -0.0636 -0.1208
46961W        W89878  30.514  19.166   7.274  0.2843  0.2414  0.1514
46962W        W89879  29.983  18.504   7.591 -0.0195  0.1308  0.1114
46963W        W89880  34.125  16.039   8.496  0.0342  0.1196 -0.1493
46964W        W89881  27.250  18.488   8.803 -0.0825 -0.0401 -0.2946
46965W        W89882  32.574  17.991   6.759  0.4722  0.1177 -0.3942
46966W        W89883  32.129  21.871   9.285  0.4749  0.0635  0.0649
46967W        W89884  31.752  22.601   9.359 -0.1243 -0.1014 -0.1882
46968W        W89885  28.620  22.167   3.464 -0.3040  0.0207 -0.1669
46969W        W89886  30.508  22.220   1.719 -0.2468 -0.1090  0.1776
46970W        W89887  32.976  22.025  29.148 -0.1399 -0.1885 -0.0122
46971W        W89888  28.717  23.477   1.807  0.0337  0.1175 -0.0137
46972W        W89889  27.792  22.828   1.702 -0.2183  0.0737  0.1384
46973W        W89890  30.538  24.775   1.037 -0.0997 -0.0882 -0.0330
46974W        W89891  30.673  21.795   1.972  0.0202  0.0107  0.1914
46975W        W89892  32.599  24.339   3.069  0.1012  0.1497  0.1328
46976W        W89893  33.597  25.710   2.353  0.0829  0.0539  0.0944
46977W        W89894  30.286  25.510  29.691  0.1099 -0.0727  0.2769
46978W        W89895  28.607  23.401   1.349 -0.2935  0.2155 -0.2325
46979W        W89896  29.917  24.771   0.771  0.2205 -0.2204  0.1446
46980W        W89897  30.875  23.684   1.063  0.1091 -0.0110  0.0426
46981W        W89898  28.827  23.216   0.360  0.0373  0.0589 -0.4688
46982W        W89899  31.220  23.002   2.764 -0.3217  0.1359 -0.0908
46983W        W89900  30.039  21.574   0.284  0.0731 -0.0060 -0.0482
46984W        W89901  29.519  23.363   1.420 -0.2426  0.0594 -0.2987
46985W        W89902  30.299  23.889   1.051  0.0743 -0.1436 -0.1504
46986W        W89903  30.805  25.276   1.813 -0.1839 -0.0792  0.3623
46987W        W89904  30.498  22.596   3.420  0.0170 -0.1528 -0.1357
46988W        W89905  30.402  22.969   3.734  0.2227 -0.1189 -0.1121
46989W        W89906  30.104  24.019  30.880 -0.0460  0.0770  0.2947
46990W        W89907  30.710  23.491  29.476 -0.4540 -0.5952  0.1085
46991W        W89908  29.339  24.871   2.569  0.0937  0.1058 -0.3325
46992W        W89909  29.676  22.728   3.018  0.1401 -0.1701 -0.2377
46993W        W89910  32.075  21.920   2.804 -0.4928  0.0959 -0.1204
46994W        W89911  31.986  24.890   3.200  0.0626 -0.0728 -0.0568
46995W        W89912  30.194  24.386   1.148  0.0711  0.1242 -0.1533
46996W        W89913  29.992  24.921   1.246  0.2249 -0.0630  0.4179
46997W        W89914  32.964  23.982   3.604 -0.1723 -0.1787  0.0051
46998W        W89915  29.621  23.468   0.633  0.0422 -0.0963 -0.1835
46999W        W89916  28.466  25.279   1.607  0.0889 -0.0322 -0.2617
47000W        W89917  28.734  23.681   0.164  0.0210 -0.0404 -0.3703
47001W        W89918  32.765  26.878   0.478  0.1478 -0.1082 -0.0615
47002W        W89919  32.857  26.084   3.399  0.1537  0.3404 -0.0183
47003W        W89920  30.014  25.600   2.701  0.1278  0.0324  0.4115
47004W        W89921  27.433  24.967   0.487  0.0369  0.0055 -0.1311
47005W        W89922  32.182  26.678   3.234  0.0667 -0.0282  0.0101
47006W        W89923  28.976  26.766   2.229 -0.3487  0.1163 -0.2986
47007W        W89924  29.245  24.660   1.471 -0.3007  0.3609  0.3567
47008W        W89925  32.273  23.601  31.591  0.2004  0.0568  0.3108
47009W        W89926  32.470  23.928  31.051  0.0627 -0.0876 -0.3239
47010W        W89927  30.840  23.208   2.142  0.3657  0.0643  0.3162
47011W        W89928  29.904  23.219   3.080  0.0630 -0.0619  0.0288
47012W        W89929  28.369  26.206   0.940 -0.0728  0.2707 -0.0250
47013W        W89930  30.726  20.812   2.756  0.1353  0.0515  0.1973
47014W        W89931  28.998  24.183  31.907  0.1698  0.1807 -0.2177
47015W        W89932  30.974  22.812  31.649  0.0735  0.2005  0.1099
47016W        W89933  31.160  22.027  31.512  0.1727 -0.3713  0.1531
47017W        W89934  32.722  23.281   0.876  0.1332 -0.0712 -0.0850
47018W        W89935  29.963  23.201   1.487  0.1246 -0.1167 -0.0624
47019W        W89936  31.594  24.518  31.624 -0.0442 -0.1140  0.2031
47020W        W89937  30.948  20.197   1.058 -0.0064  0.0689 -0.0331
47021W        W89938  32.182  25.071   3.662  0.0140  0.1807  0.0174
47022W        W89939  30.455  22.644   1.292  0.1670 -0.0965  0.0153
47023W        W89940  29.695  22.047   2.194 -0.2356 -0.3519  0.2429
47024W        W89941  29.777  25.038   2.363  0.0158  0.0067 -0.0548
47025W        W89942  29.689  22.405   3.463  0.2991  0.0868 -0.0853
47026W        W89943  31.644  25.628  30.672  0.0150  0.1671 -0.0536
47027W        W89944  33.335  25.158   1.640  0.3013 -0.0811  0.0338
47028W        W89945  30.717  27.390   0.103  0.1132 -0.1022  0.0977
47029W        W89946  29.590  23.003   0.163  0.0612  0.1553  0.4918
47030W        W89947  29.414  24.695   2.044 -0.0422 -0.1129 -0.1186
47031W        W89948  29.034  23.727   4.060  0.0759  0.1315 -0.0422
47032W        W89949  29.479  22.474  30.732  0.1983 -0.0733  0.2391
47033W        W89950  33.195  23.790   2.774 -0.0508  0.0619 -0.1187
47034W        W89951  29.520  23.456   4.887  0.1956 -0.0091  0.1503
47035W        W89952  31.892  22.552   1.399  0.0149  0.0198 -0.2280
47036W        W89953  30.437  23.186   1.829  0.1603 -0.0887  0.3745
47037W        W89954  31.049  25.105   2.260  0.0921  0.1009  0.3205
47038W        W89955  30.716  23.794   0.565  0.2541  0.1966 -0.0480
47039W        W89956  31.780  23.093   1.374  0.0953 -0.0321 -0.1968
47040W        W89957  31.317  23.204   3.982  0.0513 -0.1293 -0.2546
47041W        W89958  30.039  23.690   0.609 -0.0612  0.1497 -0.2248
47042W        W89959  29.246  24.057   1.378  0.1460  0.0522  0.1448
47043W        W89960  30.709  23.662   3.367 -0.1631 -0.1300 -0.1071
47044W        W89961  34.181  22.998   1.263 -0.1612 -0.3577  0.4239
47045W        W89962  28.938  25.237   1.308 -0.0913 -0.0647  0.0145
47046W        W89963  29.375  23.926   3.189 -0.0517  0.2186 -0.0893
47047W        W89964  28.658  26.621   3.878  0.1012 -0.0105  0.1585
47048W        W89965  28.079  25.213   0.017  0.0553  0.1418 -0.3999
47049W        W89966  28.071  24.767   2.190  0.3466 -0.0869 -0.1048
47050W        W89967  29.463  23.910  31.652  0.0036  0.1410 -0.0656
47051W        W89968  27.782  20.531   4.222  0.2587  0.3363 -0.0487
47052W        W89969  29.679  24.905   1.637  0.2703  0.1275 -0.1334
47053W        W89970  29.438  23.987   2.139 -0.1137 -0.2690 -0.0892
47054W        W89971  28.973  22.834   3.621  0.1194 -0.0964  0.2070
47055W        W89972  29.911  24.331   0.322  0.2920  0.0533 -0.1023
47056W        W89973  28.403  23.885   1.085 -0.1411  0.1201 -0.0347
47057W        W89974  32.283  27.428   0.414  0.1684 -0.0129 -0.0314
47058W        W89975  32.298  21.108  31.224 -0.0114  0.1043  0.2662
47059W        W89976  30.282  24.057   0.461  0.2093  0.3210 -0.3156
47060W        W89977  29.378  21.973   3.418  0.1622 -0.2341 -0.4044
47061W        W89978  30.428  21.796   3.039  0.1459 -0.1243 -0.1245
47062W        W89979  29.778  23.376   4.323 -0.1800 -0.0991  0.0305
47063W        W89980  28.758  24.236   2.347 -0.2620  0.2947 -0.2358
47064W        W89981  31.876  23.794   2.654  0.0092  0.1190  0.3447
47065W        W89982  29.284  22.810  30.451 -0.1191 -0.3060  0.0238
47066W        W89983  33.680  21.211   1.313 -0.2254  0.0033  0.4680
47067W        W89984  31.585  23.505  31.760 -0.1305 -0.0420  0.0909
47068W        W89985  28.738  24.130   2.945 -0.3050  0.4942 -0.2070
47069W        W89986  29.802  21.649   3.636 -0.3276  0.3808  0.0464
47070W        W89987  30.951  26.298  30.952  0.2457 -0.0128  0.1385
47071W        W89988  30.588  25.803   3.658 -0.1256 -0.1920 -0.0119
47072W        W89989  30.751  24.697  31.257 -0.2400 -0.1979 -0.1332
47073W        W89990  29.653  22.161   3.046 -0.2681  0.1979  0.0343
47074W        W89991  29.387  22.272   0.328  0.2249  0.0242  0.0408
47075W        W89992  30.002  24.898   0.192  0.1892  0.2549  0.1338
47076W        W89993  30.836  23.632   0.064 -0.2266 -0.3271  0.1176
47077W        W89994  28.940  22.851   3.152  0.2773  0.0821 -0.1056
47078W        W89995  33.067  25.324   1.266 -0.0233 -0.0087 -0.1939
47079W        W89996  31.455  25.707   0.004 -0.0767 -0.2623 -0.1336
47080W        W89997  30.654  25.053   2.621 -0.2045 -0.1859 -0.0678
47081W        W89998  28.954  24.325   1.722  0.1047 -0.1985 -0.0106
47082W        W89999  30.466  23.564   1.471 -0.4145  0.0195 -0.2648
47083W        W90000  30.804  24.153   2.007  0.0675  0.0358  0.4036
47084W        W90001  28.101  24.295  31.480 -0.0105  0.2244  0.0322
47085W        W90002  29.837  25.377   0.902 -0.1519 -0.1072  0.0141
47086W        W90003  28.541  24.161   0.242  0.2376  0.0048  0.0086
47087W        W90004  29.994  24.471   1.622 -0.1474 -0.0262  0.1140
47088W        W90005  30.432  23.681   1.982 -0.0908  0.0797 -0.1946
47089W        W90006  31.515  23.936   1.070 -0.1257 -0.5607 -0.2808
47090W        W90007  28.644  22.510   2.972  0.1115 -0.0604  0.2924
47091W        W90008  30.377  22.788   2.159  0.3262  0.0668  0.0166
47092W        W90009  29.872  23.618   1.737 -0.3132 -0.1951  0.1326
47093W        W90010  28.578  26.122   3.451 -0.1198 -0.0373 -0.1097
47094W        W90011  31.337  22.438   1.072  0.0586 -0.1293  0.1399
47095W        W90012  32.227  22.801   0.073  0.1658 -0.1419 -0.0584
47096W        W90013  31.874  26.063   2.500 -0.2007 -0.0615  0.1412
47097W        W90014   0.013  23.632  31.589  0.0524 -0.2254  0.0594
47098W        W90015  32.031  22.889   0.983 -0.1303  0.2348 -0.1401
47099W        W90016  32.331  22.281  31.485 -0.3131  0.2818 -0.0243
47100W        W90017  29.671  24.560   3.311  0.3296 -0.1306  0.2377
47101W        W90018  31.552  23.364  31.270 -0.2037 -0.0240 -0.4641
47102W        W90019  29.849  25.811   1.717  0.0028 -0.0414 -0.1082
47103W        W90020  29.698  23.037   1.009  0.1374  0.0757 -0.3859
47104W        W90021  34.023  23.996  31.049 -0.0491 -0.1069 -0.0487
47105W        W90022  29.887  24.127   0.822 -0.0597  0.1235 -0.2284
47106W        W90023  30.999  23.475   2.634 -0.2781 -0.1776 -0.0584
47107W        W90024  31.331  25.051   1.820 -0.0265  0.3147 -0.0684
47108W        W90025  31.048  21.179   2.509 -0.0045  0.1615  0.1631
47109W        W90026  30.643  21.930  31.423 -0.1965  0.0689 -0.0249
47110W        W90027  29.703  24.495   2.421  0.2392  0.0522  0.0350
47111W        W90028  28.297  24.416   1.105  0.1054  0.3465 -0.1061
47112W        W90029  32.269  23.004   4.259  0.0411  0.2553  0.0715
47113W        W90030  31.144  21.932   1.320  0.0403  0.0153  0.1657
47114W        W90031  30.124  22.177   3.342  0.2821  0.1381 -0.0713
47115W        W90032  31.836  21.523   1.999 -0.0410 -0.3041 -0.0230
47116W        W90033  30.030  22.378   0.871  0.0558  0.1978  0.1159
47117W        W90034  32.266  22.775   2.019 -0.0642  0.1811  0.0954
47118W        W90035  32.547  20.344  29.071 -0.2361 -0.2880 -0.0327
47119W        W90036  31.853  22.935   3.992 -0.1079 -0.3078 -0.1521
47120W        W90037  29.205  23.648   1.699 -0.1506  0.2500 -0.0888
47121W        W90038  28.722  24.692   3.824  0.2681 -0.2054 -0.1298
47122W        W90039  31.648  24.855   4.410  0.3164 -0.0457 -0.0442
47123W        W90040  31.683  24.299  31.057  0.2371  0.3940 -0.3275
47124W        W90041  31.288  20.699   3.711  0.3941  0.1485 -0.1307
47125W        W90042  30.546  22.961   0.728  0.0665 -0.1192 -0.0817
47126W        W90043  30.649  24.196  30.660  0.2148 -0.1314 -0.1592
47127W        W90044  29.915  24.678  30.753 -0.0019 -0.2498 -0.0036
47128W        W90045  29.895  21.623   2.082 -0.0273  0.0603 -0.0726
47129W        W90046  31.333  24.682   1.383  0.3334  0.4154 -0.1168
47130W        W90047  31.708  23.279  29.844  0.0715  0.2227  0.0867
47131W        W90048  31.350  26.157   2.470  0.2216  0.1582  0.0705
47132W        W90049  28.930  23.247  31.316  0.0891 -0.1776 -0.0207
47133W        W90050  32.736  21.767   2.200 -0.1659  0.1562  0.2194
47134W        W90051  27.469  26.072   1.262 -0.1870  0.1128 -0.0437
47135W        W90052  31.271  21.701  31.953  0.3593  0.3533  0.0148
47136W        W90053  28.992  23.989   0.417  0.1170 -0.0644 -0.1354
47137W        W90054  31.459  21.069   1.327  0.3621  0.2532  0.1440
47138W        W90055  32.417  24.641  31.352  0.0550  0.0686 -0.0248
47139W        W90056  29.795  21.195   2.957  0.1869  0.3654 -0.1382
47140W        W90057  30.691  22.723   1.769 -0.0636  0.0348 -0.0385
47141W        W90058  27.505  24.580   2.327  0.3084 -0.2207  0.0661
47142W        W90059  31.353  23.865   2.566  0.1183  0.1437 -0.0683
47143W        W90060  32.871  22.180   0.509  0.3284 -0.1480  0.0558
47144W        W90061  30.748  23.834   2.838  0.2876 -0.0318 -0.0910
47145W        W90062  32.026  23.423   4.053  0.0780  0.2696 -0.0921
47146W        W90063  29.273  23.667  31.248  0.0043 -0.2866 -0.1493
47147W        W90064  32.133  21.979   2.046 -0.0010 -0.2242  0.0065
47148W        W90065  30.624  23.117   1.227  0.1087 -0.0021  0.0497
47149W        W90066  28.208  23.424   3.842 -0.1857  0.0951  0.1774
47150W        W90067  31.147  25.886   2.887  0.0447 -0.0358 -0.2049
47151W        W90068  28.447  24.710   0.302 -0.0541 -0.2729  0.3295
47152W        W90069  29.886  23.369   0.097  0.0365  0.1968  0.2404
47153W        W90070  30.463  23.106   3.242  0.1457 -0.1418  0.1344
47154W        W90071  31.020  25.027   2.946  0.1523 -0.0751  0.1804
47155W        W90072  29.554  24.299   1.744 -0.0411 -0.1255  0.0029
47156W        W90073  29.801  23.848   0.118  0.1392  0.4661  0.1256
47157W        W90074  31.849  22.689   3.480 -0.1912  0.0995 -0.2096
47158W        W90075  31.519  24.001   0.443  0.0664 -0.0282 -0.0911
47159W        W90076  28.559  21.604   4.158  0.3363  0.1313  0.3198
47160W        W90077  30.601  25.540   2.212  0.0617 -0.0524  0.1717
47161W        W90078  30.781  20.422   2.313 -0.0487  0.1375  0.1397
47162W        W90079  31.677  24.834   0.206  0.0252 -0.1007 -0.0511
47163W        W90080  30.353  23.961   3.052 -0.1647 -0.0371 -0.0645
47164W        W90081  29.102  23.535   0.626  0.0520  0.2999  0.2328
47165W        W90082  29.476  23.965   0.490 -0.3078 -0.0014  0.1435
47166W        W90083  30.337  25.505   1.707  0.0558  0.2378 -0.2332
47167W        W90084  30.775  20.812   1.991  0.0086  0.0685 -0.0490
47168W        W90085  27.786  24.577   1.332  0.2680 -0.1176  0.0761
47169W        W90086  31.027  24.429  31.644 -0.1653 -0.2627  0.0687
47170W        W90087  30.450  25.247   1.271  0.2266 -0.3678  0.2092
47171W        W90088  30.988  21.423   1.226  0.1481 -0.1012 -0.0953
47172W        W90089  31.411  25.462  31.147 -0.0904 -0.0890  0.0629
47173W        W90090  30.426  24.255   2.584  0.0769  0.3749 -0.0159
47174W        W90091  32.279  21.464   1.344  0.0750  0.2632  0.0987
47175W        W90092  32.416  24.130  31.477  0.0167  0.2028  0.1678
47176W        W90093  30.388  23.501   3.806  0.3077 -0.4232 -0.0904
47177W        W90094  29.523  23.426   2.799  0.0878 -0.2257  0.2793
47178W        W90095  31.840  25.219   1.058  0.3585  0.2011  0.0276
47179W        W90096  28.189  22.593   4.741 -0.5378  0.0191  0.2052
47180W        W90097  30.851  25.625   3.187  0.3432 -0.0075  0.0111
47181W        W90098  30.928  22.771   2.283 -0.0831 -0.2941 -0.0465
47182W        W90099  31.385  23.139   0.502 -0.1851  0.1758 -0.0476
47183W        W90100  29.117  20.727  31.470  0.1622 -0.0509 -0.1786
47184W        W90101  30.584  22.463   4.179 -0.0680 -0.0516 -0.1415
47185W        W90102  31.517  22.925   1.005  0.1342  0.2206  0.1385
47186W        W90103  30.695  23.558  29.979  0.2723  0.1973 -0.0454
47187W        W90104  32.419  22.931   0.687  0.1295  0.3365 -0.2759
47188W        W90105  30.361  23.425   4.287 -0.0951 -0.1495  0.1527
47189W        W90106  30.362  21.439   2.132 -0.0118 -0.0032  0.3864
47190W        W90107  30.245  22.660   0.451 -0.0251  0.2578 -0.3677
47191W        W90108  29.020  23.533   2.921 -0.0028  0.0572  0.4067
47192W        W90109  29.636  21.484   2.501 -0.5335  0.0887 -0.0725
47193W        W90110  32.224  24.775   2.367  0.1425  0.0835 -0.0117
47194W        W90111  29.843  23.993   1.316  0.1118  0.1390 -0.5135
47195W        W90112  29.239  24.401   2.378  0.0602 -0.0012 -0.0077
47196W        W90113  30.427  23.380   2.884 -0.1612 -0.0728  0.2314
47197W        W90114  29.228  22.400   3.214 -0.0421 -0.1055  0.2978
47198W        W90115  27.560  21.585   4.053 -0.2155 -0.1112  0.3166
47199W        W90116  33.252  25.404   2.183 -0.1110  0.0936 -0.0551
47200W        W90117  30.458  23.419   0.853 -0.1997  0.1831 -0.1399
47201W        W90118  31.680  22.141   2.981  0.1867  0.1164 -0.2352
47202W        W90119  31.297  23.277   1.454 -0.2704 -0.2538  0.4646
47203W        W90120  33.272  21.911   1.190  0.1008 -0.2444  0.2453
47204W        W90121  27.302  22.585   2.252  0.3917  0.1793 -0.1417
47205W        W90122  30.568  24.050   4.910  0.1872 -0.2468 -0.1475
47206W        W90123  30.988  22.818   0.445  0.0079 -0.2078 -0.0587
47207W        W90124  32.739  22.180   4.332  0.3978 -0.0833  0.0885
47208W        W90125  30.552  24.372  31.579 -0.4456  0.0541  0.1600
47209W        W90126  32.237  23.832   1.388  0.0466  0.4448  0.0424
47210W        W90127  31.729  22.488   2.578 -0.2176 -0.0875 -0.0447
47211W        W90128  29.988  23.309   2.590 -0.1900 -0.0298 -0.1845
47212W        W90129  27.881  25.047   2.731 -0.2821 -0.0434  0.2191
47213W        W90130  29.804  23.035  31.636  0.1819 -0.1447  0.2138
47214W        W90131  29.416  23.659  30.704  0.0462  0.2350 -0.0497
47215W        W90132  31.043  23.660   1.893 -0.1841 -0.5112 -0.1690
47216W        W90133  30.996  22.507   3.511  0.2446 -0.1732  0.0643
47217W        W90134  30.168  22.983   1.105 -0.0134 -0.2927 -0.0179
47218W        W90135  29.823  21.732   3.174  0.0425 -0.0722  0.1550
47219W        W90136  28.904  26.708  31.843  0.0252 -0.0179  0.0280
47220W        W90137  33.397  21.339   2.599  0.3150 -0.1049  0.0165
47221W        W90138  29.519  24.538   0.531  0.0852 -0.1123  0.2395
47222W        W90139  29.075  24.299   3.260 -0.3543  0.1847  0.1639
47223W        W90140  30.302  25.724   0.702 -0.0660  0.3764 -0.3370
47224W        W90141  30.444  23.358   2.366 -0.2597 -0.2364 -0.0554
47225W        W90142  31.725  23.508   1.676 -0.0414 -0.1686 -0.0165
47226W        W90143  30.613  24.240   0.959 -0.4045 -0.1516  0.1346
47227W        W90144  32.272  23.513   3.239  0.1309  0.1047  0.0268
47228W        W90145  30.996  24.700   1.926 -0.2891  0.1217  0.3710
47229W        W90146  29.464  23.781   1.013 -0.0066 -0.1057  0.2443
47230W        W90147  31.553  25.315   4.610  0.1889  0.3481 -0.1220
47231W        W90148  32.716  24.073   1.058 -0.0936  0.0013  0.2209
47232W        W90149  30.902  23.289   3.098  0.0979 -0.3471  0.1874
47233W        W90150  28.412  22.017   2.092  0.1042  0.2599  0.2818
47234W        W90151  30.070  24.671   3.724 -0.1993 -0.1274  0.2861
47235W        W90152  31.345  23.830   1.530  0.1890  0.0816  0.0583
47236W        W90153  29.977  23.086   2.113 -0.1540  0.0647  0.3290
47237W        W90154  31.303  24.874  30.652 -0.1759  0.1316  0.0523
47238W        W90155  29.573  23.359   1.941  0.2816  0.0852  0.0240
47239W        W90156  30.315  23.925  31.445  0.0572  0.1706 -0.1134
47240W        W90157  28.906  24.818  30.482  0.0365  0.1480  0.0969
47241W        W90158  31.824  26.218  31.586 -0.1601  0.1457  0.2391
47242W        W90159  32.635  23.785   0.651 -0.1541  0.1947  0.3297
47243W        W90160  31.116  24.161   1.208 -0.4352 -0.2156  0.4039
47244W        W90161  31.475  22.990  31.555 -0.1076 -0.0060  0.0660
47245W        W90162  29.161  24.752   0.988 -0.3437 -0.1508 -0.3937
47246W        W90163  29.308  23.420   2.345 -0.2884 -0.4480 -0.0504
47247W        W90164  30.502  26.243  30.402  0.0325 -0.0232 -0.0594
47248W        W90165  31.187  25.880   1.192 -0.0289  0.0815  0.0252
47249W        W90166  33.531  23.677   3.800 -0.0106  0.0829 -0.0515
47250W        W90167  31.222  20.543   0.708 -0.0057  0.1115 -0.1165
47251W        W90168  31.856  24.318   2.249 -0.0213  0.1175  0.1724
47252W        W90169  34.643  23.109   2.020  0.1459 -0.1878  0.1454
47253W        W90170  33.011  25.596   3.653  0.0896 -0.0351  0.2682
47254W        W90171  31.873  23.611   1.182  0.1780  0.1821 -0.1295
47255W        W90172  31.463  22.598   0.581 -0.5773  0.2481  0.1822
47256W        W90173  28.390  23.812   2.983  0.1045  0.0929  0.0051
47257W        W90174  33.533  22.692   3.290 -0.0911 -0.1739 -0.1604
47258W        W90175  27.505  25.337   2.639  0.2372 -0.0689 -0.0252
47259W        W90176  31.144  24.288  30.813  0.2592 -0.0879  0.3527
47260W        W90177  31.310  23.636   0.208  0.0813 -0.0124  0.0719
47261W        W90178  31.998  23.142  31.613 -0.1429 -0.1694 -0.1582
47262W        W90179  32.026  18.709   2.731  0.1136  0.2188 -0.1650
47263W        W90180  31.327  24.072  31.294  0.4278 -0.1588  0.0729
47264W        W90181  32.020  23.774   2.083 -0.0723 -0.0629 -0.1200
47265W        W90182  30.381  24.434   2.039  0.1151 -0.0394  0.2382
47266W        W90183  31.478  24.940   0.895 -0.2732 -0.1665  0.1170
47267W        W90184  30.458  24.914   1.644 -0.2059  0.0295  0.0209
47268W        W90185  31.087  22.728   1.421  0.0430 -0.0182  0.0710
47269W        W90186  33.626  25.240   1.224 -0.0864  0.0825  0.0438
47270W        W90187  28.194  22.403   3.732  0.2948 -0.1485 -0.1892
47271W        W90188  32.376  22.658   3.342  0.1511  0.0186 -0.1989
47272W        W90189  30.687  23.864   2.358  0.0329 -0.3638  0.0626
47273W        W90190  29.317  22.480   1.264 -0.0227 -0.2515  0.1200
47274W        W90191  31.163  24.297   1.713  0.0086 -0.3178 -0.1451
47275W        W90192  27.346  22.219   3.302 -0.2392 -0.0033 -0.3295
47276W        W90193  32.622  23.689   0.129 -0.1347  0.2033  0.0550
47277W        W90194  31.821  24.652   2.813  0.2145  0.1393  0.0624
47278W        W90195  29.260  23.637   0.172  0.1213  0.1059  0.1582
47279W        W90196  30.915  24.411   2.810 -0.0364 -0.0798  0.0662
47280W        W90197  28.494  20.504   1.873 -0.0423  0.2527 -0.0475
47281W        W90198  29.928  23.603   2.219 -0.1251  0.1896 -0.0788
47282W        W90199  27.903  24.150   2.237 -0.0914 -0.1378 -0.3388
47283W        W90200  30.906  22.044   2.759 -0.0869  0.1178  0.2802
47284W        W90201  33.636  24.788   1.523  0.1318  0.1340  0.0380
47285W        W90202  28.252  22.708   2.092 -0.0131  0.3908  0.2855
47286W        W90203  31.982  25.961  31.954 -0.0427  0.2090  0.1268
47287W        W90204  33.709  23.667   2.555 -0.1792  0.0712 -0.0940
47288W        W90205  29.459  24.807   0.093  0.0933  0.1281 -0.0170
47289W        W90206  30.004  23.475   1.097  0.0177  0.0004  0.0572
47290W        W90207  31.438  25.895   0.569 -0.0150 -0.0150  0.1280
47291W        W90208  29.741  21.376   1.608  0.4083  0.1931 -0.0799
47292W        W90209  32.125  24.431   3.462  0.1923  0.4681 -0.1804
47293W        W90210  31.460  26.111   1.554 -0.1163  0.2726  0.0650
47294W        W90211  31.104  19.749   0.936  0.0457 -0.0993 -0.0052
47295W        W90212  30.831  22.740   3.109  0.2077 -0.3026  0.0842
47296W        W90213  29.834  25.934   4.141 -0.1024  0.0812 -0.1796
47297W        W90214  31.749  22.015   2.484 -0.0577  0.0543 -0.2553
47298W        W90215  30.615  22.514   2.729  0.1494 -0.1454 -0.0433
47299W        W90216  30.270  24.787  31.480 -0.2150  0.4082 -0.3780
47300W        W90217  33.860  21.661   4.033  0.0162  0.3268 -0.0147
47301W        W90218  29.686  24.528   1.187  0.0251  0.1854  0.0375
47302W        W90219  30.306  26.015   2.558 -0.1816  0.0041  0.2614
47303W        W90220  28.016  23.578   1.188  0.2452 -0.1779 -0.1116
47304W        W90221  30.664  24.804   3.688 -0.2688 -0.1021  0.0034
47305W        W90222  31.320  24.496   0.114  0.1122 -0.1177 -0.3897
47306W        W90223  31.127  24.927   0.460  0.1271  0.3819 -0.1973
47307W        W90224  32.709  24.299   0.605  0.1223 -0.2871  0.3295
47308W        W90225  29.317  24.271   0.868  0.0837 -0.0726 -0.2543
47309W        W90226  32.854  26.093   1.005  0.3184  0.2124 -0.1220
47310W        W90227  28.827  22.274   0.238  0.1144 -0.0439  0.3873
47311W        W90228  34.019  20.925   1.545  0.0985  0.4685 -0.2179
47312W        W90229  30.437  21.263   0.222  0.0119 -0.4993  0.0762
47313W        W90230  29.876  22.592   2.093 -0.3072 -0.0284 -0.0654
47314W        W90231  28.051  21.907  31.172 -0.2668  0.1439  0.1812
47315W        W90232  29.399  26.685  31.722 -0.2714 -0.2562 -0.1848
47316W        W90233  32.555  22.731   1.151 -0.0941  0.2179 -0.2568
47317W        W90234  30.060  22.489   4.368  0.2231  0.1201  0.5058
47318W        W90235  29.854  21.975   3.945 -0.1597 -0.1985  0.1456
47319W        W90236  29.762  21.983   1.150  0.0883 -0.0309  0.0381
47320W        W90237  30.807  23.936  31.645 -0.1763 -0.1275  0.2003
47321W        W90238  33.111  23.298   1.254  0.0356 -0.0133  0.1025
47322W        W90239  28.635  21.236   1.849  0.0882 -0.3385 -0.1897
47323W        W90240  28.682  22.906   1.963 -0.0834  0.0880 -0.1817
47324W        W90241  33.078  24.064   1.449 -0.0354  0.2525 -0.2410
47325W        W90242  30.871  24.453   0.514 -0.3930 -0.0133  0.2636
47326W        W90243  30.812  21.318   1.988 -0.4166  0.2297 -0.0572
47327W        W90244  33.361  24.335   3.529  0.3145  0.1581  0.1266
47328W        W90245  29.066  23.877  30.434  0.1277  0.2434  0.3248
47329W        W90246  31.834  22.847   1.827 -0.1955 -0.1965  0.1619
47330W        W90247  30.159  23.550   3.348  0.0460  0.3384  0.1525
47331W        W90248  28.471  22.121  31.236 -0.0815  0.0674 -0.0127
47332W        W90249  30.761  24.605   2.379 -0.0803  0.1036 -0.2507
47333W        W90250  32.050  25.261  31.325  0.0521 -0.1382  0.2271
47334W        W90251  30.254  26.723  30.560 -0.3894  0.1565 -0.0118
47335W        W90252  29.614  26.694   1.959  0.1722  0.0981 -0.1821
47336W        W90253  31.411  24.792   4.975  0.0479  0.3396 -0.1236
47337W        W90254  27.995  23.145   3.477 -0.1283 -0.1951 -0.2193
47338W        W90255  30.262  24.476   0.007  0.3195 -0.1687 -0.0595
47339W        W90256  30.176  24.687   2.506 -0.0573  0.2029 -0.0087
47340W        W90257  32.889  24.444  31.750 -0.0799  0.4221 -0.0312
47341W        W90258  30.885  23.272   0.418  0.0750  0.1216 -0.2579
47342W        W90259  30.340  24.039   1.605 -0.0369  0.0249 -0.2077
47343W        W90260  29.765  22.060   4.445  0.0554 -0.1006  0.1698
47344W        W90261  28.738  23.123   4.269 -0.2364 -0.0180 -0.0669
47345W        W90262  31.849  24.222   0.825 -0.1478 -0.0221  0.0526
47346W        W90263  30.709  23.009   2.663 -0.1697  0.1085 -0.0438
47347W        W90264  32.237  24.350   1.288 -0.2942 -0.2218  0.2025
47348W        W90265  30.777  25.172  31.418  0.3534 -0.0123  0.1104
47349W        W90266  28.471  23.907   2.031 -0.0279  0.0037 -0.1954
47350W        W90267  31.723  23.028   0.040  0.1326 -0.1461  0.1828
47351W        W90268  30.236  25.192   2.344  0.0291 -0.0007  0.0738
47352W        W90269  31.376  24.090  31.783 -0.0236 -0.0631  0.0075
47353W        W90270  31.791  24.008   1.546  0.1381  0.1870 -0.0012
47354W        W90271  31.399  25.209   0.007  0.0729 -0.1564 -0.0179
47355W        W90272  30.005  23.155   0.627 -0.1358 -0.1173  0.0217
47356W        W90273  31.140  25.566   2.156  0.1544  0.0629 -0.2275
47357W        W90274  32.420  27.153   3.222 -0.0307  0.1929  0.0437
47358W        W90275  29.921  24.137   2.056 -0.1202 -0.0592  0.0911
47359W        W90276  31.771  24.955   1.506 -0.2080 -0.0053  0.1308
47360W        W90277  28.372  21.230   4.512  0.1624 -0.0322 -0.0257
47361W        W90278  30.709  24.446   1.526 -0.0191  0.0010  0.3027
47362W        W90279  30.430  22.347  31.881 -0.0947 -0.4893 -0.0824
47363W        W90280  31.438  21.503   1.082  0.1989  0.1033  0.0999
47364W        W90281  28.236  21.808   2.579  0.0886  0.1719 -0.0484
47365W        W90282  30.147  20.669   1.025 -0.1378  0.0262  0.0210
47366W        W90283  30.960  25.183   0.963 -0.1816 -0.1381  0.1795
47367W        W90284  32.386  24.236   2.234  0.1466  0.0351 -0.0425
47368W        W90285  30.471  23.178   5.310 -0.0315  0.0334  0.0605
47369W        W90286  30.286  21.834   3.701 -0.1058 -0.0154  0.0965
47370W        W90287  32.425  23.921   3.469  0.1160 -0.1161 -0.0449
47371W        W90288  31.415  23.697   3.952  0.2534  0.0650  0.2506
47372W        W90289  29.610  21.397   5.638 -0.1265 -0.1839 -0.0170
47373W        W90290  30.241  25.206   3.607  0.2370  0.1352 -0.0451
47374W        W90291  30.908  19.816   6.462  0.0950 -0.2667  0.1118
47375W        W90292  31.789  24.473   4.824  0.2661  0.0204 -0.1177
47376W        W90293  33.720  25.785   6.218  0.0264  0.3065  0.2453
47377W        W90294  31.205  23.425   3.485 -0.0301  0.1482  0.2316
47378W        W90295  30.455  23.460   5.966 -0.1943  0.0510 -0.1014
47379W        W90296  31.258  24.720   6.082  0.0372  0.2361  0.1146
47380W        W90297  30.132  20.725   4.695  0.1583  0.2338 -0.0215
47381W        W90298  29.176  20.681   6.221  0.2368 -0.0919  0.1300
47382W        W90299  32.967  23.428   5.570 -0.3007  0.3577  0.0429
47383W        W90300  28.688  23.259   3.208 -0.1214  0.2237 -0.1171
47384W        W90301  31.077  22.718   6.386  0.2211 -0.1761 -0.2554
47385W        W90302  31.226  22.024   3.182  0.1015  0.0106  0.3063
47386W        W90303  29.780  23.797   4.673 -0.1913  0.0420 -0.1970
47387W        W90304  30.855  21.538   6.542  0.3623  0.2874 -0.3867
47388W        W90305  31.660  21.323   6.051  0.0198 -0.0188  0.1026
47389W        W90306  30.577  23.908   4.036  0.0692  0.0867 -0.2518
47390W        W90307  28.497  22.574   5.107  0.0218  0.1199 -0.0078
47391W        W90308  29.839  22.322   6.753  0.2522 -0.1095 -0.0957
47392W        W90309  30.784  22.224   5.377 -0.0502 -0.0638  0.0167
47393W        W90310  31.765  21.608   6.982  0.0959  0.0747  0.1620
47394W        W90311  31.763  23.452   3.147 -0.0794 -0.1842 -0.0030
47395W        W90312  30.688  24.170   6.433  0.1231  0.1240  0.2338
47396W        W90313  29.634  24.400   6.639 -0.0599  0.0200 -0.1535
47397W        W90314  30.511  24.306   7.226  0.0603  0.0231 -0.0218
47398W        W90315  27.343  23.120   4.341  0.1530  0.1792 -0.3532
47399W        W90316  28.725  26.025   5.652 -0.3182  0.1501 -0.0279
47400W        W90317  29.199  24.834   5.224 -0.0609  0.1758 -0.0379
47401W        W90318  33.644  25.743   4.091  0.2874 -0.4015  0.1372
47402W        W90319  33.327  23.441   6.608 -0.1195  0.3990 -0.1141
47403W        W90320  32.541  25.244   6.252 -0.1561 -0.1264  0.2421
47404W        W90321  28.059  25.398   3.921 -0.3139 -0.0418 -0.1134
47405W        W90322  29.880  24.685   6.265 -0.0408 -0.0059  0.1121
47406W        W90323  32.167  25.908   5.803  0.3117  0.0083 -0.1407
47407W        W90324  31.559  24.554   6.443 -0.2936 -0.3010 -0.2552
47408W        W90325  32.484  22.231   5.784 -0.1758  0.2701 -0.1448
47409W        W90326  30.088  25.143   1.861 -0.1002  0.0519 -0.2348
47410W        W90327  30.900  22.446   4.895 -0.0451  0.1922 -0.2059
47411W        W90328  28.654  23.545   6.389 -0.1121  0.2893  0.0689
47412W        W90329  30.809  24.500   4.952  0.2715 -0.1236 -0.3653
47413W        W90330  33.236  24.332   7.625 -0.0408  0.2103  0.2255
47414W        W90331  29.265  23.174   4.401 -0.1271 -0.2156 -0.1414
47415W        W90332  30.824  23.944   1.573  0.3260 -0.0357  0.0545
47416W        W90333  32.022  20.990   2.654 -0.2250  0.1857  0.2889
47417W        W90334  32.414  21.653   3.725 -0.3195  0.0338  0.2485
47418W        W90335  31.401  22.869   6.070  0.3245  0.1251  0.2836
47419W        W90336  30.678  24.250   5.355  0.0846 -0.2390 -0.0557
47420W        W90337  29.976  22.005   6.095 -0.1564 -0.0287 -0.0313
47421W        W90338  33.481  24.094   5.049  0.0932  0.1954  0.1345
47422W        W90339  30.989  23.172   5.303  0.0349  0.0967  0.2783
47423W        W90340  32.224  21.380   5.944 -0.0288  0.0043 -0.1512
47424W        W90341  28.913  24.224   3.734 -0.2869 -0.0368 -0.3061
47425W        W90342  30.166  24.368   6.495 -0.0612  0.0917 -0.0886
47426W        W90343  31.207  24.628   4.472 -0.4684  0.1478  0.2690
47427W        W90344  32.271  25.359   4.937  0.2173 -0.2787  0.1132
47428W        W90345  31.773  25.136   4.001  0.0006  0.1319  0.0036
47429W        W90346  31.075  22.626   4.036  0.1127  0.2773 -0.1758
47430W        W90347  28.780  23.121   5.742 -0.0156 -0.0418  0.1140
47431W        W90348  30.248  24.676   5.925  0.1563  0.1140  0.0642
47432W        W90349  30.600  20.486   3.156  0.1769  0.0962 -0.0619
47433W        W90350  31.425  23.786   6.984 -0.0021  0.0247  0.1356
47434W        W90351  29.923  23.790   6.467 -0.2175  0.1648 -0.0849
47435W        W90352  31.440  22.076   5.725 -0.0069  0.3188  0.4812
47436W        W90353  31.373  22.836   5.247 -0.3061  0.2873 -0.2689
47437W        W90354  31.997  24.376   6.893  0.1008 -0.0659 -0.1355
47438W        W90355  31.258  23.631   0.750 -0.0759 -0.1035  0.2110
47439W        W90356  30.966  21.047   3.573 -0.2944 -0.0786  0.0946
47440W        W90357  30.364  22.726   6.492 -0.0633 -0.0422  0.1640
47441W        W90358  31.560  25.206   6.002  0.1246  0.1591 -0.1336
47442W        W90359  31.804  22.673   4.437 -0.0803  0.0381 -0.0918
47443W        W90360  32.946  25.569   6.635  0.0000  0.0451  0.0044
47444W        W90361  32.777  23.312   2.101 -0.1221 -0.0400 -0.1671
47445W        W90362  30.037  25.651   3.758 -0.2345 -0.3831 -0.1194
47446W        W90363  31.461  23.128   7.590 -0.0427 -0.0279 -0.0681
47447W        W90364  29.882  24.968   6.756  0.2728  0.0947 -0.2370
47448W        W90365  30.524  26.504   4.107  0.1127  0.0229 -0.2114
47449W        W90366  30.758  21.592   5.310 -0.1627 -0.0018 -0.0259
47450W        W90367  29.667  25.168   5.417  0.0822 -0.0077  0.0260
47451W        W90368  30.481  21.652   4.609 -0.0019 -0.0864  0.0230
47452W        W90369  29.856  26.430   8.030  0.0459 -0.0529  0.2061
47453W        W90370  33.679  22.256   1.953  0.3167  0.1637  0.0563
47454W        W90371  28.563  21.299   6.399 -0.0451  0.0424 -0.0711
47455W        W90372  33.852  20.284   4.687  0.0353  0.1410  0.2345
47456W        W90373  29.169  23.229   3.438  0.1263 -0.2297  0.1178
47457W        W90374  32.025  25.244   4.425  0.0737 -0.1042 -0.0036
47458W        W90375  32.291  22.503   4.336  0.3810 -0.0594  0.2223
47459W        W90376  32.247  23.291   2.066  0.2606 -0.4491 -0.1366
47460W        W90377  31.646  21.807   6.324  0.1021 -0.1310 -0.0666
47461W        W90378  30.935  23.307   4.592 -0.2713  0.1855 -0.2365
47462W        W90379  29.755  23.707   5.516  0.0115  0.1615 -0.0213
47463W        W90380  28.659  20.187   6.678 -0.2577  0.1774  0.2137
47464W        W90381  33.158  21.435   5.823 -0.2122 -0.0837  0.0584
47465W        W90382  29.070  21.989   6.647  0.0728  0.1007  0.1948
47466W        W90383  31.678  22.519   7.150  0.3610 -0.0960 -0.0635
47467W        W90384  30.967  21.898   3.563 -0.1594 -0.3236  0.0683
47468W        W90385  27.368  23.745   4.143 -0.1490 -0.1704  0.0371
47469W        W90386  32.644  21.796   7.613  0.2816 -0.0123 -0.0263
47470W        W90387  29.970  25.425   4.864 -0.0650  0.2042  0.0615
47471W        W90388  32.850  24.401   6.309 -0.1509  0.0146 -0.2215
47472W        W90389  32.346  24.802   6.117 -0.1129 -0.1358 -0.2703
47473W        W90390  30.257  23.031   6.099 -0.0443  0.0901 -0.3227
47474W        W90391  30.925  22.721   4.479  0.0211  0.0391 -0.3314
47475W        W90392  29.935  22.506   4.854 -0.1105 -0.3545  0.0050
47476W        W90393  29.117  25.320   2.934  0.1511 -0.0544 -0.1512
47477W        W90394  29.531  22.063   5.755  0.2179  0.0234  0.0341
47478W        W90395  31.946  25.069   5.644 -0.3551 -0.1716 -0.1132
47479W        W90396  31.771  23.986   4.733  0.1545  0.0140  0.2090
47480W        W90397  29.454  23.897   6.078 -0.0114 -0.3820  0.3379
47481W        W90398  31.713  21.360   6.574  0.0817  0.4654  0.1305
47482W        W90399  32.121  21.745   6.561  0.0688 -0.2063  0.0339
47483W        W90400  31.083  24.456   6.530 -0.0547  0.0208  0.0987
47484W        W90401  28.000  21.411   4.246  0.0130  0.1518 -0.1090
47485W        W90402  30.332  24.468   4.092  0.1375 -0.1821  0.0202
47486W        W90403  27.912  25.266   5.568 -0.0758  0.1833  0.0725
47487W        W90404  29.054  22.735   4.553 -0.0791 -0.1156  0.0939
47488W        W90405  31.149  25.326   6.232  0.1583 -0.2830  0.0141
47489W        W90406  32.703  21.628   4.083  0.1090  0.0553  0.1521
47490W        W90407  30.627  23.549   7.655 -0.1999 -0.0559  0.0630
47491W        W90408  31.090  23.244   6.294  0.0828  0.2035 -0.1869
47492W        W90409  30.032  23.287   5.134  0.0620 -0.0675  0.0555
47493W        W90410  27.759  24.139   5.637 -0.1616 -0.2335 -0.2754
47494W        W90411  32.764  21.608   5.058 -0.1571 -0.0183 -0.4906
47495W        W90412  32.002  22.523   2.978 -0.0799  0.1301  0.1980
47496W        W90413  30.959  23.140   7.653 -0.0298 -0.2629  0.1072
47497W        W90414  31.404  23.013   3.244  0.2149 -0.4502  0.1880
47498W        W90415  30.483  22.615   4.666 -0.3308 -0.0849 -0.0002
47499W        W90416  32.274  22.728   3.843 -0.0620 -0.3424  0.0282
47500W        W90417  31.393  25.635   5.940 -0.0008 -0.3669  0.2456
47501W        W90418  29.746  22.820   5.791  0.2528 -0.0529  0.0936
47502W        W90419  32.291  23.901   4.829 -0.3382  0.0014 -0.2966
47503W        W90420  30.303  22.892   4.206  0.0037 -0.0125 -0.2328
47504W        W90421  32.182  25.590   3.395 -0.1932 -0.2594  0.0553
47505W        W90422  27.291  24.169   4.444  0.1945 -0.1966  0.3047
47506W        W90423  32.685  23.384   7.526 -0.0856 -0.0080  0.0550
47507W        W90424  32.532  25.815   3.661  0.1205  0.1419  0.0657
47508W        W90425  31.581  22.601   5.639  0.0088 -0.0362  0.1541
47509W        W90426  30.782  23.045   4.118 -0.2505  0.0021 -0.0305
47510W        W90427  31.306  21.723   3.953  0.2415  0.1527 -0.0096
47511W        W90428  28.314  26.874   2.718  0.1974 -0.2174  0.1275
47512W        W90429  32.326  20.862   5.893  0.2931  0.1377  0.0071
47513W        W90430  30.217  22.085   6.538  0.0696  0.5632  0.0189
47514W        W90431  30.983  23.493   6.796 -0.0337  0.2267 -0.3082
47515W        W90432  31.967  23.138   5.592  0.2345 -0.0667  0.0817
47516W        W90433  31.917  25.143   2.684  0.1189 -0.2481  0.0278
47517W        W90434  31.505  24.228   6.097  0.0030  0.1171 -0.0819
47518W        W90435  30.064  24.854   3.274  0.2437  0.0323  0.1880
47519W        W90436  29.650  22.369   6.169  0.0347  0.0942 -0.0513
47520W        W90437  29.184  22.101   6.195 -0.0670  0.0576 -0.4406
47521W        W90438  29.156  24.341   6.507 -0.1413 -0.2520 -0.0281
47522W        W90439  30.702  24.645   6.120  0.0376 -0.2646 -0.2503
47523W        W90440  31.335  23.099   4.822  0.4368  0.0181 -0.1878
47524W        W90441  34.628  21.560   5.664  0.2336 -0.1155 -0.0602
47525W        W90442  31.633  21.859   3.491  0.0862  0.0170 -0.1234
47526W        W90443  31.014  24.930   6.479  0.1325 -0.2589 -0.2047
47527W        W90444  32.598  23.816   5.318  0.1079 -0.1613  0.0475
47528W        W90445  31.258  21.744   5.354  0.3249  0.0318  0.0140
47529W        W90446  31.557  25.111   6.487 -0.0357  0.2995 -0.2980
47530W        W90447  31.387  27.412   3.921  0.0642 -0.0206  0.2789
47531W        W90448  30.804  25.077   6.953 -0.3003  0.2658  0.0701
47532W        W90449  30.451  24.236   5.846  0.1250  0.1419 -0.0920
47533W        W90450  30.939  22.127   4.042 -0.0996  0.1785  0.1711
47534W        W90451  30.295  25.233   6.761 -0.2977  0.1793  0.0305
47535W        W90452  30.184  22.864   2.772  0.3337  0.0254 -0.0956
47536W        W90453  29.875  23.698   3.732  0.3693 -0.2025  0.0422
47537W        W90454  31.887  22.139   4.236 -0.1516 -0.1633 -0.0588
47538W        W90455  31.387  22.893   4.343 -0.1548 -0.0363  0.0409
47539W        W90456  29.425  21.998   7.039  0.3443 -0.2027 -0.0401
47540W        W90457  33.049  22.523   4.651  0.2586 -0.0466 -0.1808
47541W        W90458  29.063  24.150   5.868  0.2866  0.0127 -0.0092
47542W        W90459  32.257  23.420   4.735  0.2489 -0.0604 -0.0938
47543W        W90460  32.543  21.729   2.756 -0.1383  0.1539 -0.3449
47544W        W90461  30.620  23.141   6.380  0.1062 -0.2699  0.0038
47545W        W90462  29.354  24.928   5.927  0.1434 -0.2024 -0.2231
47546W        W90463  25.319  23.422   1.568  0.1767  0.3401 -0.1288
47547W        W90464  32.168  22.906   8.481  0.1968  0.0845 -0.0086
47548W        W90465  31.284  23.929   4.476  0.2556 -0.0976  0.0307
47549W        W90466  29.814  23.965   3.316 -0.3230 -0.1747  0.1105
47550W        W90467  31.189  22.723   8.482  0.0643  0.0730 -0.1026
47551W        W90468  31.349  23.359   2.105 -0.2495 -0.3249 -0.3094
47552W        W90469  30.587  25.189   3.169 -0.0749  0.2005 -0.0164
47553W        W90470  31.509  22.080   6.954  0.1457 -0.0824 -0.0656
47554W        W90471  30.329  23.869   6.175  0.0007 -0.5221  0.1440
47555W        W90472  30.771  23.063   5.818  0.2314  0.2988 -0.0008
47556W        W90473  30.670  23.677   4.554  0.3306  0.3107 -0.1258
47557W        W90474  32.505  24.286   5.578 -0.2385 -0.0915  0.1926
47558W        W90475  32.432  23.455   5.599 -0.0052  0.0559 -0.1954
47559W        W90476  29.541  24.708   7.028 -0.0749 -0.0516  0.2839
47560W        W90477  29.946  25.730   5.974  0.0368 -0.2437 -0.1182
47561W        W90478  30.997  21.962   6.759 -0.0498 -0.1393  0.1561
47562W        W90479  31.041  25.072   4.234  0.2525 -0.0527 -0.0222
47563W        W90480  32.347  22.834   6.316 -0.1828  0.1623  0.1772
47564W        W90481  30.744  24.287   3.719  0.0528 -0.1053  0.2418
47565W        W90482  28.658  23.122   5.246  0.0044 -0.1318  0.1248
47566W        W90483  30.995  23.889   3.682 -0.3705 -0.1295  0.1868
47567W        W90484  31.165  23.608   5.420  0.1585  0.0855 -0.2084
47568W        W90485  30.309  23.986   3.573  0.0507 -0.1084 -0.1694
47569W        W90486  29.924  23.687   2.914  0.0976 -0.4097  0.2682
47570W        W90487  29.578  23.258   5.562 -0.0425  0.0849  0.1089
47571W        W90488  33.616  22.179   3.404 -0.1785  0.0137 -0.0194
47572W        W90489  31.817  24.135   5.451  0.0742  0.1523 -0.0140
47573W        W90490  32.681  21.680   5.745 -0.0173 -0.5125  0.0950
47574W        W90491  33.355  21.657   6.544 -0.0194 -0.1075 -0.0371
47575W        W90492  31.563  24.066   2.980  0.1426 -0.0749  0.1215
47576W        W90493  32.276  23.174   7.291  0.2250  0.0548  0.1175
47577W        W90494  32.242  21.769   5.573 -0.2575  0.0015 -0.2675
47578W        W90495  32.308  25.306   2.990  0.0832  0.0820  0.1348
47579W        W90496  30.003  22.271   5.557  0.0171  0.0133 -0.0444
47580W        W90497  32.578  25.737   5.562  0.1151  0.0596 -0.0038
47581W        W90498  29.642  22.929   7.411 -0.2491 -0.0237 -0.0595
47582W        W90499  30.185  22.104   4.676 -0.0872  0.0622  0.0151
47583W        W90500  28.646  21.016   5.332 -0.3429 -0.0165  0.0628
47584W        W90501  31.039  23.984   5.129 -0.0098 -0.2101  0.2922
47585W        W90502  32.741  25.021   5.839 -0.1777  0.2478 -0.1852
47586W        W90503  33.947  24.234   5.238 -0.1949  0.0961  0.0889
47587W        W90504  32.632  23.143   4.611  0.3877 -0.1857  0.0478
47588W        W90505  29.375  24.350   3.699  0.0419 -0.1187  0.1519
47589W        W90506  32.207  22.033   5.105  0.0704 -0.0844 -0.2005
47590W        W90507  31.587  24.376   4.349 -0.0411  0.0080  0.3306
47591W        W90508  31.196  24.509   3.612 -0.0985 -0.4602 -0.0043
47592W        W90509  29.925  24.135   6.103  0.2923 -0.1133  0.3442
47593W        W90510  31.664  24.303   3.803  0.0155 -0.1995  0.0067
47594W        W90511  32.746  24.184   5.008  0.1870 -0.1299 -0.1725
47595W        W90512  32.593  25.302   5.454  0.1934  0.0741 -0.0216
47596W        W90513  33.034  21.806   6.185  0.2509 -0.1183  0.1646
47597W        W90514  31.223  23.986   6.481 -0.0526 -0.0078 -0.2502
47598W        W90515  30.459  20.267   8.064  0.2511 -0.2544  0.1270
47599W        W90516  33.418  25.839   6.662  0.0704  0.0943 -0.3680
47600W        W90517  29.823  22.440   2.622  0.0984 -0.1870  0.1721
47601W        W90518  32.923  23.383   2.622  0.3887 -0.1568  0.1084
47602W        W90519  32.755  23.140   4.061 -0.5327  0.4209  0.0181
47603W        W90520  31.276  25.201   3.828 -0.3450 -0.1230  0.1087
47604W        W90521  29.556  22.349   5.315 -0.3970 -0.0222  0.0562
47605W        W90522  31.345  23.717   5.934  0.2652 -0.0255 -0.1039
47606W        W90523  30.955  21.151   3.029 -0.2980 -0.0038  0.0459
47607W        W90524  31.296  22.176   6.482 -0.1098 -0.0246  0.2166
47608W        W90525  30.828  24.593   4.183  0.2775  0.1704 -0.0212
47609W        W90526  31.401  24.437   5.295 -0.0793 -0.1761 -0.2234
47610W        W90527  30.039  22.744   3.395  0.5095 -0.1326  0.1621
47611W        W90528  29.717  21.961   4.978  0.0704 -0.0406 -0.0871
47612W        W90529  28.059  23.595   8.377 -0.4718 -0.0243  0.1756
47613W        W90530  30.284  22.051   4.152  0.3574  0.2029  0.1797
47614W        W90531  31.511  23.297   5.274  0.3602  0.1262  0.3068
47615W        W90532  30.377  24.791   6.993  0.1997  0.0679  0.2476
47616W        W90533  32.873  24.630   6.780  0.1871 -0.2238 -0.0780
47617W        W90534  31.592  21.547   4.876  0.0552  0.0014 -0.0246
47618W        W90535  32.170  23.530   6.437  0.2902 -0.1655  0.2121
47619W        W90536  29.816  24.796   2.843  0.0708 -0.1661 -0.2105
47620W        W90537  31.544  22.499   4.050  0.1661 -0.1931 -0.1705
47621W        W90538  30.857  24.590   3.260 -0.0956  0.1613  0.0617
47622W        W90539  28.408  25.585   3.329  0.4120 -0.0074  0.2035
47623W        W90540  29.843  24.247   4.425  0.0672 -0.1130  0.0222
47624W        W90541  31.587  22.657   6.479 -0.1675  0.2474 -0.0491
47625W        W90542  31.276  24.104   5.615  0.4071 -0.1536  0.0082
47626W        W90543  31.492  23.912   3.482 -0.1700 -0.1562 -0.0047
47627W        W90544  32.989  23.621   6.184  0.2271  0.2645  0.2350
47628W        W90545  31.739  23.662   5.686 -0.3505  0.0916  0.0896
47629W        W90546  30.758  23.614   5.072  0.3717 -0.2791 -0.0802
47630W        W90547  32.813  23.926   5.727 -0.1643  0.0617  0.2341
47631W        W90548  33.942  23.667   4.690  0.0122  0.2446  0.1249
47632W        W90549  30.950  23.514   4.123 -0.3177 -0.0532 -0.2428
47633W        W90550  28.994  22.821   6.981 -0.1119 -0.0924  0.0746
47634W        W90551  31.812  23.096   6.525 -0.1640  0.0162  0.2196
47635W        W90552  31.751  22.472   5.158  0.3778  0.3187 -0.0749
47636W        W90553  30.137  22.488   3.859  0.2009  0.1599 -0.1382
47637W        W90554  31.070  25.040   3.406  0.0474 -0.3713  0.1885
47638W        W90555  29.410  25.553   6.415  0.1453 -0.0980 -0.1813
47639W        W90556  31.053  22.735   5.685 -0.0907  0.1008  0.3592
47640W        W90557  28.754  25.518   4.142  0.0612 -0.1321  0.1956
47641W        W90558  32.104  23.053   3.094 -0.0497  0.0467 -0.1550
47642W        W90559  31.509  23.418   2.589  0.1780 -0.2686  0.1138
47643W        W90560  32.345  25.938   4.072 -0.2357  0.0550  0.2299
47644W        W90561  30.765  23.798   5.633  0.0883 -0.1138 -0.3184
47645W        W90562  28.715  23.409   3.651 -0.2138 -0.2050  0.0914
47646W        W90563  28.700  25.111   4.368 -0.2369  0.1641 -0.2778
47647W        W90564  32.865  25.193   4.040 -0.4286  0.1453  0.0261
47648W        W90565  30.498  24.699   2.899 -0.1594  0.2923 -0.0634
47649W        W90566  31.056  24.524   5.703  0.1069 -0.1321  0.1829
47650W        W90567  31.750  23.409   4.857  0.0430  0.0993  0.4827
47651W        W90568  32.191  23.907   5.682  0.0701  0.3120  0.1715
47652W        W90569  32.154  24.115   3.887  0.2385  0.1088  0.0225
47653W        W90570  33.040  25.977   4.873  0.0082 -0.0378  0.0185
47654W        W90571  28.704  24.698   6.591 -0.2377  0.0379 -0.1356
47655W        W90572  30.773  19.883   2.390  0.2778  0.1488  0.1164
47656W        W90573  30.449  21.746   7.892 -0.1169 -0.0604  0.1438
47657W        W90574  32.737  23.237   6.026 -0.1351  0.2450  0.0100
47658W        W90575  29.429  24.925   6.441 -0.0564 -0.0728 -0.1312
47659W        W90576  31.517  25.082   5.345 -0.1447 -0.2019  0.0989
47660W        W90577  28.934  20.976   4.275  0.3200 -0.2897 -0.0495
47661W        W90578  32.436  22.718   7.559 -0.1463  0.0582 -0.1139
47662W        W90579  34.580  20.159   5.166 -0.0096 -0.1804 -0.0751
47663W        W90580  32.583  24.618   1.951  0.0342 -0.2146 -0.2498
47664W        W90581  31.270  21.353   4.456  0.1904  0.1042 -0.3531
47665W        W90582  29.291  24.898   3.108 -0.1129  0.2386 -0.0317
47666W        W90583  27.610  23.124   5.407  0.0449  0.2220 -0.0533
47667W        W90584  30.397  23.512   7.079  0.0636  0.1879  0.2127
47668W        W90585  27.731  22.079   4.997 -0.0376 -0.2395 -0.5189
47669W        W90586  31.157  24.208   4.066  0.0568  0.0400  0.0607
47670W        W90587  30.661  22.653   6.026  0.1832 -0.1834  0.2263
47671W        W90588  33.410  22.362   7.680 -0.1456  0.4388 -0.2492
47672W        W90589  30.583  21.950   5.028 -0.1454 -0.3403  0.0113
47673W        W90590  31.619  21.782   4.399 -0.1203  0.0577 -0.0704
47674W        W90591  30.334  22.374   5.100  0.1117 -0.1696  0.1323
47675W        W90592  29.788  21.658   7.417  0.2836  0.0775  0.1359
47676W        W90593  30.378  24.448   3.342 -0.0041 -0.0298 -0.1032
47677W        W90594  32.013  24.338   6.290 -0.4640  0.0646  0.0515
47678W        W90595  30.765  22.192   2.312  0.0942  0.0686  0.0208
47679W        W90596  33.218  25.610   7.046 -0.1655 -0.2428  0.1246
47680W        W90597  29.223  21.191   4.690 -0.4427 -0.0923 -0.3158
47681W        W90598  29.185  21.513   3.410  0.0781 -0.1562  0.1034
47682W        W90599  29.044  22.650   5.040 -0.0345 -0.0629  0.1699
47683W        W90600  31.611  24.618   5.726 -0.1086 -0.2340 -0.0864
47684W        W90601  34.586  24.868   5.360 -0.1187 -0.0072  0.2893
47685W        W90602  29.201  20.835   5.742 -0.0990 -0.2493  0.2305
47686W        W90603  32.607  24.671   1.484  0.1363 -0.3631 -0.4173
47687W        W90604  33.612  23.570   5.029 -0.2333  0.2383 -0.1068
47688W        W90605  31.510  25.521   5.029 -0.3511 -0.1447 -0.0787
47689W        W90606  31.464  22.359   3.532  0.2510 -0.1125 -0.1961
47690W        W90607  32.326  25.357   5.834 -0.2540 -0.0395  0.1678
47691W        W90608  31.128  22.325   6.037  0.0874  0.2144 -0.0976
47692W        W90609  33.787  25.265   6.312  0.1897 -0.3314 -0.1735
47693W        W90610  33.608  24.655   3.814  0.3455  0.0488  0.0743
47694W        W90611  31.548  21.618   3.004 -0.0768 -0.1878  0.2123
47695W        W90612  30.749  22.963   4.862  0.1645 -0.3108 -0.1796
47696W        W90613  30.810  25.845   6.336  0.3445 -0.1236  0.0984
47697W        W90614  32.724  23.007   5.524  0.1150 -0.0480  0.0586
47698W        W90615  31.211  20.631   5.393  0.1127  0.0233  0.1085
47699W        W90616  31.346  24.588   2.733 -0.0147  0.0393  0.0811
47700W        W90617  32.367  20.488   7.945 -0.1959  0.3565  0.1605
47701W        W90618  29.900  23.695   7.004  0.2885  0.2658  0.4188
47702W        W90619  29.499  25.222   6.841 -0.2807 -0.0835  0.2633
47703W        W90620  29.521  24.858   4.871  0.0021 -0.2085 -0.0439
47704W        W90621  29.355  24.653   8.007  0.0301  0.4452 -0.0738
47705W        W90622  31.229  23.591   4.854  0.1187 -0.0182 -0.3309
47706W        W90623  31.870  24.683   5.326  0.3620 -0.0974 -0.0690
47707W        W90624  31.055  24.087   3.243 -0.0999 -0.2746 -0.1335
47708W        W90625  32.073  21.881   5.992  0.2707  0.0882 -0.1202
47709W        W90626  32.079  24.442   5.744  0.0111 -0.1306 -0.0073
47710W        W90627  30.584  22.227   3.735 -0.0481  0.1875 -0.0698
47711W        W90628  32.685  21.212   3.833  0.2733  0.1959 -0.0952
47712W        W90629  32.739  23.330   5.095  0.2362  0.3542  0.3022
47713W        W90630  28.938  23.088   6.234 -0.0849 -0.2584  0.3243
47714W        W90631  28.578  24.436   4.937 -0.1832  0.1232  0.1492
47715W        W90632  29.986  25.588   2.130 -0.1288 -0.0220 -0.0216
47716W        W90633  29.764  24.342   4.896  0.1064  0.1942  0.1242
47717W        W90634  32.259  20.362   5.682  0.0228 -0.3097 -0.2382
47718W        W90635  29.773  21.131   6.132  0.3754 -0.1113  0.1762
47719W        W90636  29.638  24.627   3.996  0.4171 -0.1406  0.3811
47720W        W90637  30.226  20.854   6.832  0.2536  0.1241 -0.0975
47721W        W90638  31.657  24.427   3.287  0.1624 -0.2698  0.1720
47722W        W90639  29.803  20.624   4.271 -0.1344 -0.1206 -0.1969
47723W        W90640  26.815  21.262   4.710  0.2301 -0.1808  0.3016
47724W        W90641  32.685  25.591   4.691 -0.0036  0.0059  0.0724
47725W        W90642  33.288  25.410   4.024 -0.1541 -0.2820  0.0168
47726W        W90643  31.855  22.897   4.911 -0.3057  0.0072  0.0327
47727W        W90644  32.234  25.176   7.207 -0.0107  0.4223  0.2638
47728W        W90645  29.924  23.166   3.656  0.0645  0.3074 -0.0892
47729W        W90646  31.738  24.039   6.592 -0.0004  0.0627  0.1587
47730W        W90647  31.688  23.281   6.048 -0.2116  0.3504  0.1450
47731W        W90648  29.698  21.252   4.563 -0.1992  0.0451  0.1783
47732W        W90649  30.854  21.834   5.839 -0.0010  0.1436 -0.1016
47733W        W90650  32.201  24.255   4.427  0.0967 -0.0986 -0.1823
47734W        W90651  30.640  24.755   5.554  0.0501  0.1135  0.0826
47735W        W90652  33.671  27.344   6.661  0.2530  0.0795 -0.0053
47736W        W90653  31.212  22.470   6.844  0.1744  0.2803 -0.0002
47737W        W90654  31.679  25.333   3.553  0.0261  0.3951  0.3804
47738W        W90655  30.421  24.023   6.829  0.1106 -0.1721 -0.0389
47739W        W90656  32.743  23.771   3.159  0.0401  0.0153  0.0534
47740W        W90657  31.166  19.424   5.651 -0.0424 -0.0472  0.0004
47741W        W90658  32.475  23.594   4.278 -0.2377  0.0911 -0.3338
47742W        W90659  29.030  21.125   6.526 -0.2075  0.3304  0.0362
47743W        W90660  29.033  24.631   5.710  0.0907 -0.2621  0.1751
47744W        W90661  33.196  25.094   5.951  0.1718  0.1104  0.1413
47745W        W90662  31.120  20.871   4.299  0.1438  0.0097  0.0205
47746W        W90663  32.350  22.781   4.835  0.0102  0.2628 -0.2849
47747W        W90664  30.863  24.227   4.545 -0.4380  0.1229  0.1142
47748W        W90665  29.638  22.927   4.946  0.0956 -0.0996 -0.0164
47749W        W90666  31.237  22.148   4.522 -0.1336  0.2815  0.0048
47750W        W90667  33.005  22.297   5.714 -0.3003 -0.2180  0.1189
47751W        W90668  31.309  24.296   4.832 -0.2459  0.1202 -0.1217
47752W        W90669  34.290  24.237   7.428 -0.0976 -0.1657 -0.1342
47753W        W90670  29.209  22.762   4.049 -0.1202 -0.0195 -0.1838
47754W        W90671  31.614  24.757   2.264 -0.1308 -0.1295 -0.0593
47755W        W90672  30.704  25.330   6.381  0.2763 -0.1644 -0.3724
47756W        W90673  32.982  26.391   6.017 -0.0579  0.0764 -0.1062
47757W        W90674  30.709  25.541   6.884  0.1588  0.0500 -0.1293
47758W        W90675  33.035  24.784   4.810  0.0625 -0.0839 -0.1559
47759W        W90676  29.867  21.776   5.475 -0.2251 -0.2350  0.0935
47760W        W90677  31.588  23.816   5.126 -0.0069 -0.0451 -0.1405
47761W        W90678  32.140  23.635   5.281 -0.1318  0.3120 -0.2101
47762W        W90679  31.245  19.914   4.689 -0.3789 -0.0452 -0.1360
47763W        W90680  29.692  22.943   4.128  0.2313 -0.1663  0.0495
47764W        W90681  33.496  22.454   4.419  0.3037 -0.3504 -0.1026
47765W        W90682  31.121  26.033   5.989 -0.1373  0.0565  0.1244
47766W        W90683  33.272  24.043   5.931  0.0121 -0.0291  0.0402
47767W        W90684  31.454  23.937   7.896 -0.0475  0.0214  0.5825
47768W        W90685  29.587  22.571   9.098  0.0984 -0.1218 -0.1757
47769W        W90686  32.251  22.310   6.229  0.0378 -0.1068 -0.0355
47770W        W90687  32.577  21.132   8.733 -0.3111  0.5378  0.2768
47771W        W90688  28.753  21.712   8.340 -0.0976 -0.0336  0.2360
47772W        W90689  32.249  26.006   7.301  0.1887 -0.2529 -0.1390
47773W        W90690  33.636  22.754  13.392 -0.0481 -0.0977  0.0136
47774W        W90691  34.290  26.732   8.396  0.0059 -0.1576  0.0718
47775W        W90692  30.918  24.092   6.882 -0.1408 -0.1853  0.2138
47776W        W90693  32.747  24.904   7.322 -0.2709 -0.1975  0.0248
47777W        W90694  31.909  22.324   7.783  0.0409  0.0916 -0.1044
47778W        W90695  30.224  22.263   8.199 -0.3087  0.0364  0.1743
47779W        W90696  31.811  26.025   7.625  0.2594 -0.3658  0.3474
47780W        W90697  28.831  23.306   7.857  0.0645  0.1232  0.0034
47781W        W90698  26.831  22.397   7.547  0.1692  0.2601 -0.1160
47782W        W90699  29.647  24.110   8.920  0.1825 -0.0227 -0.2153
47783W        W90700  30.703  27.854   9.089  0.1489  0.0222  0.0504
47784W        W90701  33.708  18.120  12.895 -0.1160 -0.2702 -0.1804
47785W        W90702  30.961  25.278   8.228 -0.0285  0.3049  0.1542
47786W        W90703  29.673  23.208   6.175  0.1795  0.1485  0.2123
47787W        W90704  28.887  20.981   8.480  0.4555 -0.3560  0.1309
47788W        W90705  24.869  21.030   8.822 -0.1611 -0.0086 -0.0257
47789W        W90706  34.419  21.663   9.114 -0.1119  0.0853 -0.0454
47790W        W90707  28.877  23.479   8.766 -0.1745 -0.3710 -0.1068
47791W        W90708  30.614  24.298   8.571 -0.3141  0.1153  0.1474
47792W        W90709  31.775  24.380   8.703  0.0518 -0.2600 -0.1097
47793W        W90710  29.696  25.346   7.899 -0.1564  0.0249 -0.3607
47794W        W90711  27.984  25.579   8.790  0.0233 -0.1985  0.1366
47795W        W90712  28.532  24.374   7.846 -0.0145 -0.1846 -0.2689
47796W        W90713  33.085  25.069   6.894  0.2502  0.1455  0.1548
47797W        W90714  30.102  24.770   5.371  0.0591  0.2924 -0.1680
47798W        W90715  32.576  24.191   9.850  0.3568 -0.2072 -0.0798
47799W        W90716  29.330  23.214   9.118 -0.3610 -0.0288 -0.0719
47800W        W90717  31.857  23.900   6.113  0.1543  0.0933 -0.1120
47801W        W90718  31.804  24.694   8.263 -0.1913 -0.2069 -0.0821
47802W        W90719  28.354  23.380   8.722 -0.0202  0.0457  0.5020
47803W        W90720  30.194  25.198   7.229 -0.0443  0.0011 -0.0444
47804W        W90721  33.824  25.367   8.305  0.0620 -0.3859 -0.3087
47805W        W90722  29.453  23.904   6.603 -0.0891  0.0586  0.2732
47806W        W90723  32.439  23.651   8.953  0.1835 -0.3944  0.0604
47807W        W90724  29.394  21.944   8.278 -0.0260 -0.3667  0.0336
47808W        W90725  29.838  23.941   9.369  0.0918  0.0365 -0.0389
47809W        W90726  29.523  21.204   7.532  0.3518 -0.0283 -0.2530
47810W        W90727  30.317  25.806   6.452  0.0795  0.0883 -0.0745
47811W        W90728  31.596  22.579   8.798  0.2244  0.0358 -0.0312
47812W        W90729  31.127  27.024   8.469 -0.0795  0.0906  0.1177
47813W        W90730  27.121  22.940   8.780  0.1702 -0.0570 -0.1575
47814W        W90731  32.965  24.982   6.390  0.2272 -0.0854 -0.2665
47815W        W90732  32.908  25.249   8.268  0.1291 -0.0177  0.2046
47816W        W90733  30.886  24.390   7.524 -0.2019 -0.0317 -0.2529
47817W        W90734  29.504  23.148   8.201 -0.2047 -0.1923  0.1290
47818W        W90735  30.853  21.954   6.291  0.0217 -0.0470 -0.1204
47819W        W90736  30.138  22.601   7.785 -0.1581  0.1245 -0.0681
47820W        W90737  31.915  25.576   9.706 -0.2421 -0.0561 -0.0523
47821W        W90738  32.703  24.903   9.317  0.1659 -0.1645  0.0516
47822W        W90739  32.457  23.899   7.445 -0.2258 -0.2013  0.0212
47823W        W90740  30.853  23.181   8.754  0.0073 -0.1211 -0.1720
47824W        W90741  31.969  23.912   7.662 -0.0594 -0.0987  0.0810
47825W        W90742  27.847  25.105   8.015  0.1151  0.1898  0.2278
47826W        W90743  30.076  25.177   5.840  0.2788 -0.0046  0.0336
47827W        W90744  33.773  23.310   8.443  0.2471  0.1638 -0.0480
47828W        W90745  32.378  25.467   6.685 -0.1634 -0.0041 -0.2354
47829W        W90746  29.742  24.885   7.823 -0.2045 -0.0725 -0.1571
47830W        W90747  30.052  23.234   5.643  0.1703 -0.0422  0.0774
47831W        W90748  29.858  23.637   8.911 -0.2424 -0.2100  0.1530
47832W        W90749  29.190  21.638   8.749  0.2401  0.0364 -0.4060
47833W        W90750  28.910  21.266   9.076 -0.4617  0.2786  0.0124
47834W        W90751  32.072  23.937   7.141  0.2859  0.1825  0.0236
47835W        W90752  33.500  22.541   7.191  0.0415  0.0485  0.1177
47836W        W90753  32.067  22.371   8.949 -0.2435  0.0821  0.1406
47837W        W90754  29.752  23.917   8.446 -0.0041 -0.0711 -0.2055
47838W        W90755  32.366  25.605   8.807 -0.0550 -0.1942 -0.0672
47839W        W90756  33.115  24.934   9.622  0.1273  0.0115  0.2201
47840W        W90757  31.826  24.825   7.082 -0.1703  0.1007  0.1251
47841W        W90758  28.409  19.910   7.700  0.0152 -0.2385 -0.1640
47842W        W90759  28.990  22.145   8.626 -0.1454  0.1251  0.1658
47843W        W90760  29.265  25.573   7.312  0.0410 -0.3293  0.2584
47844W        W90761  30.019  22.146   7.166  0.0598  0.1050  0.2474
47845W        W90762  31.219  23.513   8.562 -0.1247 -0.1302 -0.1555
47846W        W90763  30.405  26.544   7.977 -0.0927  0.0898 -0.1133
47847W        W90764  29.742  24.338   8.006  0.2202 -0.0071  0.0693
47848W        W90765  29.284  22.180   9.128  0.5161  0.0546  0.0878
47849W        W90766  33.685  25.757   8.740 -0.1665 -0.0404 -0.2444
47850W        W90767  32.148  24.358   7.403 -0.0246 -0.1936  0.0084
47851W        W90768  27.590  23.226   9.246  0.0788  0.0260 -0.1552
47852W        W90769  30.816  23.718   6.130  0.0769 -0.2437 -0.1302
47853W        W90770  28.880  25.730   8.899 -0.1380 -0.3712  0.0654
47854W        W90771  32.401  25.942   8.350 -0.2112 -0.0672  0.0446
47855W        W90772  30.294  23.078   7.600  0.0243  0.2363  0.0078
47856W        W90773   0.879  26.289  12.843 -0.5097  0.0455 -0.2686
47857W        W90774  29.906  23.335   9.305 -0.0324 -0.4237  0.2755
47858W        W90775  29.172  23.072   8.549 -0.1310 -0.1258 -0.3375
47859W        W90776  31.103  25.059   7.361 -0.0750 -0.2407  0.1131
47860W        W90777  30.441  20.901   7.338  0.1610 -0.0706  0.2659
47861W        W90778  32.220  23.220   9.254 -0.1266  0.0916 -0.2279
47862W        W90779  30.327  24.479   4.990  0.3512 -0.1990  0.0718
47863W        W90780  33.032  24.407   9.577 -0.2375 -0.1283 -0.0595
47864W        W90781  32.101  27.074   8.780 -0.0763 -0.2907  0.1847
47865W        W90782  31.926  22.405   8.300  0.1652 -0.0075  0.3366
47866W        W90783  31.259  23.576   7.476 -0.0953  0.0186 -0.2943
47867W        W90784  31.505  23.420   8.116 -0.0238  0.0564  0.0209
47868W        W90785  33.084  22.845   7.043 -0.0232  0.2629 -0.1749
47869W        W90786  32.054  24.255   8.317  0.0639 -0.0222  0.3403
47870W        W90787  31.496  23.558   6.546 -0.1775  0.2451  0.0645
47871W        W90788  30.563  22.799   8.903  0.0350  0.0894  0.2185
47872W        W90789  32.402  22.935   9.684 -0.0907 -0.1113  0.1777
47873W        W90790  31.958  23.842   8.808 -0.4214 -0.0622  0.3731
47874W        W90791  32.142  22.780   7.961 -0.2429  0.0860 -0.0205
47875W        W90792  33.557  24.727   7.767 -0.1272 -0.1900 -0.1692
47876W        W90793  28.989  22.858   8.069  0.3078 -0.1204  0.1612
47877W        W90794  30.520  26.594  13.243  0.0129 -0.1394  0.0210
47878W        W90795  29.602  19.827   8.632  0.0603 -0.0924 -0.0660
47879W        W90796  31.029  22.656   7.686 -0.0325  0.0248 -0.2830
47880W        W90797  28.281  23.884   8.687  0.0980 -0.1644 -0.0996
47881W        W90798  28.985  24.999   6.980  0.0323 -0.1700 -0.1165
47882W        W90799  33.315  22.610   8.980  0.0931  0.1958 -0.0271
47883W        W90800  32.454  23.322   8.192  0.1635  0.1235 -0.0688
47884W        W90801  30.593  22.867   7.936 -0.1552 -0.1508 -0.2192
47885W        W90802  32.510  22.169   9.145  0.0117 -0.3531 -0.2781
47886W        W90803  30.880  22.858   6.854 -0.1619  0.0611  0.0027
47887W        W90804  30.230  23.735   8.545 -0.1849 -0.2780 -0.0377
47888W        W90805  34.271  26.460   9.198 -0.2301 -0.2707 -0.0119
47889W        W90806  31.421  24.631   7.369 -0.0442  0.3420  0.0903
47890W        W90807  31.424  23.288   7.101 -0.1265 -0.0223 -0.3095
47891W        W90808  30.124  23.995   7.331 -0.0565 -0.2794 -0.1712
47892W        W90809  30.995  24.882   7.806  0.0743  0.1829  0.0013
47893W        W90810  31.612  23.512   8.871 -0.0220  0.0965  0.1769
47894W        W90811  30.471  24.061   7.753 -0.0704  0.0511 -0.3993
47895W        W90812  29.369  25.607   5.473 -0.1801  0.1535 -0.0853
47896W        W90813  32.050  24.827   7.565  0.1383 -0.1104 -0.1301
47897W        W90814  30.050  25.747   9.264 -0.1461  0.1750 -0.0136
47898W        W90815  31.001  20.272   8.280  0.2993 -0.2516  0.2315
47899W        W90816  29.640  23.892   7.530 -0.3494 -0.0136 -0.0903
47900W        W90817  30.615  22.742   7.417 -0.0340  0.2060  0.4839
47901W        W90818  29.585  24.589   8.835  0.2041  0.1147  0.0962
47902W        W90819  32.286  23.538   7.757  0.0934 -0.0626 -0.2473
47903W        W90820  32.995  23.787   7.558 -0.1480  0.3396 -0.2243
47904W        W90821  30.040  24.462   8.536  0.3765  0.0027  0.3885
47905W        W90822  31.116  24.015   8.331  0.0571 -0.2215 -0.0249
47906W        W90823  28.653  24.433   6.106 -0.0512 -0.0289  0.0017
47907W        W90824  33.775  22.525   8.435  0.0195  0.0313 -0.0942
47908W        W90825  30.966  21.065   5.297 -0.0845  0.0463  0.0129
47909W        W90826  32.655  20.646   8.949  0.0372  0.2003  0.0420
47910W        W90827  29.217  24.752   8.531 -0.0863 -0.2548  0.0071
47911W        W90828  31.314  24.480   7.793 -0.6922 -0.2086 -0.0240
47912W        W90829  32.041  27.658   8.674 -0.0733  0.1350 -0.0289
47913W        W90830  29.940  23.281   6.631 -0.1305  0.0925 -0.3159
47914W        W90831  28.549  24.543   8.377  0.2679 -0.0664  0.1365
47915W        W90832  31.839  23.433   7.303  0.0062  0.1537 -0.1329
47916W        W90833  31.891  23.820   8.167 -0.0184 -0.1297 -0.3954
47917W        W90834  30.457  22.995   8.397 -0.0334 -0.0046  0.2512
47918W        W90835  30.602  21.065   8.369 -0.1978 -0.0467 -0.4504
47919W        W90836  31.010  23.597   8.088 -0.0288 -0.1882 -0.0826
47920W        W90837  30.675  22.478   8.318  0.1180  0.0995  0.0575
47921W        W90838  31.407  22.397   8.157  0.1706 -0.6602  0.3066
47922W        W90839  32.747  25.348   7.138 -0.1964  0.0845  0.1984
47923W        W90840  29.692  22.315   8.144 -0.0217  0.0691 -0.1949
47924W        W90841  30.208  27.915   9.424  0.3330  0.0215  0.3918
47925W        W90842  30.346  20.238   8.961  0.0956 -0.2328  0.0807
47926W        W90843  31.120  21.169   8.312 -0.2941  0.0417 -0.1119
47927W        W90844  31.428  25.580   8.849 -0.1613 -0.0771  0.2324
47928W        W90845  30.638  25.322   7.343 -0.1919  0.0801  0.2756
47929W        W90846  30.857  25.584   9.737  0.2742  0.0896  0.0133
47930W        W90847  32.997  22.471   7.410 -0.0736 -0.0055  0.0222
47931W        W90848  30.015  24.422   6.985 -0.2126 -0.0972 -0.0854
47932W        W90849  29.352  24.274   9.304  0.0587 -0.3982 -0.0877
47933W        W90850  31.542  22.577   7.590 -0.0391 -0.1163  0.1626
47934W        W90851  32.068  23.295   9.783  0.1753  0.1513  0.2013
47935W        W90852  34.209  22.959   9.709  0.1739 -0.2831 -0.0895
47936W        W90853  31.040  23.101   8.189 -0.0155  0.0206  0.2654
47937W        W90854  31.237  22.852   7.254 -0.0719 -0.0886 -0.1052
47938W        W90855  28.100  20.788   9.380  0.1089  0.2872  0.1564
47939W        W90856  32.190  25.490   8.222 -0.0477  0.2224  0.1367
47940W        W90857  29.967  22.889   8.163 -0.1770  0.0909 -0.0702
47941W        W90858  33.362  24.197   8.811  0.3524  0.0844 -0.1056
47942W        W90859  27.769  21.716   8.642  0.0020  0.1702  0.0918
47943W        W90860  30.834  24.434   8.069  0.2206 -0.2315  0.2744
47944W        W90861  30.802  23.835   7.336  0.2604 -0.0386  0.2942
47945W        W90862  31.289  21.708   7.179 -0.1169 -0.2051 -0.1506
47946W        W90863  32.379  24.654   7.065 -0.1890 -0.0769 -0.4356
47947W        W90864  31.835  23.002   7.034 -0.0962 -0.2067  0.0827
47948W        W90865  31.229  26.189   9.016  0.0927 -0.0760  0.3974
47949W        W90866  33.704  22.904   5.378  0.1727  0.1568  0.1733
47950W        W90867  29.699  24.874   8.322  0.0513 -0.2000 -0.0657
47951W        W90868  32.046  23.363   8.535 -0.2515  0.3298  0.0915
47952W        W90869  29.635  25.753   7.642 -0.3927  0.0431 -0.3107
47953W        W90870  27.817  21.268   9.257 -0.0069 -0.0163  0.0737
47954W        W90871  30.322  22.465   6.885  0.1479  0.3586 -0.1251
47955W        W90872  32.047  24.943   6.616  0.0434 -0.0050 -0.1031
47956W        W90873  31.860  24.427   7.837  0.2666 -0.1609  0.4655
47957W        W90874  31.344  24.578   9.072 -0.2216 -0.0695 -0.0696
47958W        W90875  26.949  24.054   8.928 -0.0266 -0.1371 -0.0866
47959W        W90876  30.362  21.634   6.748 -0.1764 -0.0722 -0.1037
47960W        W90877  30.655  24.614   6.623 -0.2963  0.3120 -0.1169
47961W        W90878  31.564  24.920   7.831  0.1545 -0.0790 -0.1653
47962W        W90879  32.132  22.412   7.295 -0.3938 -0.0085  0.2918
47963W        W90880  31.903  26.219   9.664  0.0740 -0.0572  0.0108
47964W        W90881  33.336  23.268   8.737  0.0517 -0.0538 -0.1224
47965W        W90882  30.284  27.009   7.970  0.0572  0.0379 -0.0821
47966W        W90883  31.103  24.368   8.659  0.3875 -0.0577  0.1430
47967W        W90884  32.944  22.246   8.530 -0.0794 -0.2797  0.1926
47968W        W90885  31.462  22.848   7.997 -0.1862 -0.2681 -0.0072
47969W        W90886  28.329  24.006   8.164  0.1462  0.1433  0.0226
47970W        W90887  33.635  26.260   8.716  0.1358  0.0128  0.0251
47971W        W90888  30.054  24.314   7.645  0.0745  0.2290  0.2145
47972W        W90889  31.946  25.164   8.481 -0.0604  0.1440 -0.2756
47973W        W90890  31.184  22.091   7.749  0.1075  0.3461 -0.0886
47974W        W90891  29.392  23.167   6.999 -0.1441 -0.0386 -0.0441
47975W        W90892  30.205  24.229   8.134 -0.0162  0.0030  0.2114
47976W        W90893  30.094  26.644   7.541 -0.1048 -0.0971 -0.2661
47977W        W90894  32.311  24.599   8.094 -0.1808 -0.1841 -0.1094
47978W        W90895  30.091  24.744   7.426 -0.1741 -0.0836 -0.2662
47979W        W90896  31.665  27.839   7.835  0.1419  0.2519  0.2307
47980W        W90897  32.394  23.609   6.974 -0.1445  0.0931 -0.1326
47981W        W90898  30.466  26.443   8.526 -0.2364  0.2494 -0.1204
47982W        W90899  29.457  20.016   9.148 -0.2688 -0.2724 -0.1533
47983W        W90900  33.003  26.094   8.285 -0.0618 -0.0400 -0.2612
47984W        W90901  29.975  25.592   8.550  0.1154 -0.4690  0.3368
47985W        W90902  32.880  22.647   8.312 -0.1473 -0.0263  0.0283
47986W        W90903  31.352  25.228   8.503 -0.0715 -0.4450 -0.1079
47987W        W90904  32.531  22.685   8.698  0.1319 -0.0087  0.0509
47988W        W90905  30.205  24.107   8.894  0.2300 -0.0766 -0.0182
47989W        W90906  30.496  21.905   8.407 -0.1898  0.0519 -0.1310
47990W        W90907  32.459  24.198   6.100  0.0761 -0.1866  0.0228
47991W        W90908  29.560  21.184   7.039  0.0070 -0.0889 -0.2779
47992W        W90909  29.965  22.237   9.015 -0.1019  0.1569 -0.0231
47993W        W90910  30.804  21.974   8.779  0.2246 -0.1083  0.0006
47994W        W90911  30.251  23.681   5.565  0.0377 -0.1470  0.3278
47995W        W90912  30.992  23.578   9.099 -0.2947  0.0475  0.1396
47996W        W90913  33.374  26.492   8.047 -0.0945  0.2452  0.0659
47997W        W90914  29.669  22.987   8.707 -0.1373 -0.0182  0.3410
47998W        W90915  32.844  26.699   8.714 -0.3003  0.3882 -0.3101
47999W        W90916  29.888  23.410   8.395  0.0458 -0.0894  0.2125
48000W        W90917  34.245  22.777   7.814 -0.1481  0.3316  0.0973
48001W        W90918  29.128  25.156   8.160  0.0324  0.3478  0.1516
48002W        W90919  26.664  22.031   8.883 -0.0386 -0.0461  0.0361
48003W        W90920  32.202  24.702   8.592  0.2922  0.4282 -0.0399
48004W        W90921  32.805  23.470   8.612 -0.0281  0.1525 -0.0481
48005W        W90922  27.977  23.827   7.297  0.1706 -0.1074  0.3704
48006W        W90923  30.084  23.544   7.519 -0.0016 -0.0667  0.1475
48007W        W90924  31.309  24.860   6.846  0.0841  0.1701  0.1468
48008W        W90925  31.231  20.900   9.279 -0.3954  0.1744  0.1152
48009W        W90926  31.927  22.880   7.515  0.0357 -0.0353 -0.2640
48010W        W90927  29.326  23.720   9.033  0.2068 -0.1863 -0.1519
48011W        W90928  32.213  24.728   9.735 -0.1409 -0.2313 -0.1213
48012W        W90929  29.923  22.576   8.637 -0.1476  0.1490 -0.2154
48013W        W90930  32.854  24.184   7.958  0.2022  0.2249  0.0098
48014W        W90931  31.804  25.959   8.140  0.0057  0.0135  0.0280
48015W        W90932  30.465  25.423   8.416  0.1936 -0.1793 -0.1018
48016W        W90933  31.576  25.947   9.286  0.0044 -0.0539 -0.1792
48017W        W90934  32.626  24.727   8.839 -0.1284  0.3372  0.0466
48018W        W90935  28.155  24.092   6.884  0.0491  0.2040  0.0722
48019W        W90936  31.736  27.500   8.218 -0.0152 -0.1043  0.0873
48020W        W90937  33.448  26.982   8.979  0.1222  0.3357 -0.0014
48021W        W90938  31.047  22.056   8.311 -0.3632 -0.0314 -0.4038
48022W        W90939  28.030  23.053   8.994  0.1686  0.1519  0.0590
48023W        W90940  28.815  25.552   5.723  0.0123  0.2210  0.1123
48024W        W90941  31.596  24.382   9.579  0.1336 -0.0622  0.0458
48025W        W90942  28.545  24.433   5.666 -0.0154  0.4119 -0.1814
48026W        W90943  30.913  25.537   8.724  0.0443  0.0781 -0.0067
48027W        W90944  29.217  20.463   6.705 -0.1299 -0.1462 -0.1949
48028W        W90945  30.677  23.467   8.399  0.1487  0.1625  0.2592
48029W        W90946  29.599  24.453   7.481  0.1179  0.0921 -0.0115
48030W        W90947  32.583  25.010   6.796  0.2004  0.4233 -0.3117
48031W        W90948  29.159  22.341   7.976  0.0704 -0.1151 -0.0552
48032W        W90949  31.457  25.112   9.083  0.0188 -0.0667 -0.0300
48033W        W90950  32.124  23.662   9.363  0.0382  0.4038  0.0327
48034W        W90951  34.519  22.256   9.106  0.1810  0.0824 -0.1985
48035W        W90952  34.418  21.922   8.278  0.0754 -0.3635  0.0360
48036W        W90953  29.170  22.644   8.864  0.2724  0.3469 -0.2527
48037W        W90954  31.472  20.952   6.655  0.0723  0.3023 -0.2401
48038W        W90955  29.297  22.957   6.604  0.0495  0.1607 -0.0744
48039W        W90956  31.722  24.200   7.280  0.1912  0.0480 -0.0096
48040W        W90957  29.451  23.458   8.651  0.0559 -0.1367 -0.0850
48041W        W90958  29.964  23.208   7.114  0.2075 -0.0563  0.1884
48042W        W90959  33.892  25.440   9.772 -0.0199  0.1536  0.1836
48043W        W90960  30.494  19.408   9.330 -0.2102 -0.0127  0.1323
48044W        W90961  27.584  22.017   7.685  0.1975  0.2464  0.0008
48045W        W90962  31.552  25.253   6.995  0.1164 -0.0395  0.0126
48046W        W90963  31.815  24.210   9.180 -0.1613 -0.3469 -0.1580
48047W        W90964  31.819  22.277   6.620 -0.0089  0.0978 -0.2112
48048W        W90965  29.103  23.514   5.986  0.1595  0.3356 -0.0631
48049W        W90966  28.392  22.207   7.091  0.3050 -0.2067 -0.1293
48050W        W90967  32.893  23.454   9.247 -0.0645 -0.1953 -0.1276
48051W        W90968  29.526  24.769   9.275  0.1250 -0.0407  0.1056
48052W        W90969  32.613  25.852   7.005  0.2433 -0.3114  0.4098
48053W        W90970  29.944  21.814   8.133 -0.1004  0.5294  0.2433
48054W        W90971  32.465  25.541   7.474  0.0986  0.1883 -0.0788
48055W        W90972  32.586  26.494   7.480  0.2560  0.0507 -0.1348
48056W        W90973  33.698  21.434   8.458 -0.0399  0.2621  0.1475
48057W        W90974  33.003  24.101   7.101 -0.1776 -0.1438  0.2693
48058W        W90975  31.795  28.177   8.199  0.0943  0.1756  0.2201
48059W        W90976  30.839  20.592   9.133  0.2848 -0.2441 -0.2951
48060W        W90977  31.329  23.017   6.718 -0.1156  0.1147 -0.5092
48061W        W90978  31.062  25.298   9.332 -0.2351  0.1355 -0.3192
48062W        W90979  32.036  25.043   8.016  0.1007  0.0658  0.4975
48063W        W90980  31.221  24.104   7.306 -0.1532  0.1139 -0.0627
48064W        W90981  31.583  23.903   8.542  0.0490  0.0607 -0.0178
48065W        W90982  31.283  19.818   7.257  0.0639 -0.0265 -0.1572
48066W        W90983  33.590  23.986   6.812 -0.1303  0.1109 -0.0026
48067W        W90984  31.253  24.801   9.504 -0.3465 -0.0429 -0.4789
48068W        W90985  31.702  25.475   8.068 -0.0568 -0.2693  0.1210
48069W        W90986  32.184  25.824   7.842  0.2000 -0.0052 -0.0146
48070W        W90987  32.279  20.012   8.758  0.1849  0.2625 -0.2826
48071W        W90988  28.732  22.954   8.775  0.1543 -0.1206 -0.0713
48072W        W90989  28.491  25.429   8.725 -0.1772  0.2544  0.2176
48073W        W90990  33.433  22.360   9.374  0.0033  0.1129 -0.1743
48074W        W90991  29.613  25.154   8.873 -0.0625 -0.1159 -0.1070
48075W        W90992  30.904  23.999   9.377  0.0226  0.0995 -0.4333
48076W        W90993  32.524  25.859   9.622 -0.2534  0.6392  0.3073
48077W        W90994  31.410  24.325   6.896 -0.0127 -0.0015  0.0945
48078W        W90995  31.127  27.361   2.958  0.0439 -0.2229 -0.1671
48079W        W90996  29.601  27.601  31.750 -0.0833  0.1610 -0.0481
48080W        W90997  32.346  26.174  31.716  0.2231  0.1325 -0.0801
48081W        W90998  32.633  28.001   1.377  0.0732  0.1582 -0.1115
48082W        W90999  29.351  26.125   0.769  0.1064  0.0182  0.1523
48083W        W91000  30.020  28.739   0.497  0.3299 -0.1060  0.0936
48084W        W91001  30.259  23.781   2.581 -0.0592  0.4602 -0.1918
48085W        W91002  29.317  28.689   2.354  0.1272  0.2786  0.2629
48086W        W91003  34.272  29.168   2.489 -0.4430  0.3375 -0.0217
48087W        W91004  30.983  27.579  31.672  0.2209 -0.1197 -0.0115
48088W        W91005  31.032  29.255   0.647 -0.1594  0.0979  0.1143
48089W        W91006  30.545  28.556   3.431 -0.0991  0.0943 -0.1030
48090W        W91007  29.829  24.678  31.718 -0.0949  0.1006 -0.1329
48091W        W91008  28.368  24.969   3.466  0.1116  0.0529  0.1141
48092W        W91009  31.297  28.465   1.625 -0.0031 -0.0280 -0.0594
48093W        W91010  29.253  27.064   1.460 -0.1842  0.2274 -0.1433
48094W        W91011  31.006  25.628   0.720  0.2391  0.2123  0.1291
48095W        W91012  30.012  26.627   0.148  0.1513 -0.0470 -0.0293
48096W        W91013  29.238  29.927   3.447  0.1017  0.2408  0.1205
48097W        W91014  31.350  25.472   3.184  0.0518 -0.1580 -0.1668
48098W        W91015  28.140  25.229   3.084  0.1157  0.0114 -0.3431
48099W        W91016  28.879  28.900  31.320 -0.2484  0.0652 -0.0537
48100W        W91017  30.319  25.411  31.261  0.1881 -0.1201 -0.2941
48101W        W91018  30.093  27.398   3.144  0.3695  0.1772  0.1294
48102W        W91019  30.908  28.076   1.811 -0.1591  0.2923 -0.1831
48103W        W91020  30.679  26.389   0.289 -0.0197  0.0268 -0.2963
48104W        W91021  31.323  25.590   1.632 -0.3313  0.0260  0.1526
48105W        W91022  31.087  28.478   2.042  0.3820 -0.1593  0.0524
48106W        W91023  30.537  28.669   1.556  0.3278 -0.0157 -0.2841
48107W        W91024  30.492  26.324   3.523 -0.2132 -0.1306  0.0532
48108W        W91025  28.994  27.149   2.534  0.0637  0.0273 -0.1992
48109W        W91026  29.887  30.317  31.517 -0.1383 -0.1594  0.0286
48110W        W91027  29.471  28.130   2.356  0.1240 -0.3390  0.1246
48111W        W91028  30.917  29.021   3.583 -0.2724  0.0128 -0.3090
48112W        W91029  33.632  28.981   1.109 -0.1861 -0.0270 -0.3333
48113W        W91030  30.293  30.049   3.951  0.2557 -0.0077 -0.1740
48114W        W91031  27.775  27.427   0.448  0.1146  0.0639  0.0975
48115W        W91032  32.032  29.850   2.592  0.0279  0.1054  0.2461
48116W        W91033  29.990  29.230   3.863 -0.0805  0.0081  0.3049
48117W        W91034  29.122  27.340   0.597  0.1963 -0.0825  0.0461
48118W        W91035  31.181  26.566   0.296 -0.2188  0.2940 -0.0536
48119W        W91036  29.685  27.747   1.078 -0.1938 -0.2632  0.0209
48120W        W91037  31.586  26.532   2.292 -0.1107  0.0752  0.1685
48121W        W91038  30.118  28.185   3.859  0.3440  0.1126  0.1974
48122W        W91039  27.854  30.551   1.294  0.2367 -0.1192  0.0279
48123W        W91040  32.858  27.195   2.919 -0.0417  0.2900  0.1221
48124W        W91041  29.677  26.339   0.445 -0.0805  0.1513  0.3716
48125W        W91042  31.012  26.195  30.468  0.1947  0.2812  0.0268
48126W        W91043  29.661  27.333  29.368 -0.1866  0.1957  0.2148
48127W        W91044  31.428  24.452   0.615 -0.1296 -0.4225  0.1646
48128W        W91045  29.439  25.137   1.254  0.0825 -0.1785 -0.0140
48129W        W91046  28.974  28.822   1.436  0.0861 -0.4222  0.0805
48130W        W91047  30.253  25.999   1.992  0.0394 -0.2607  0.1218
48131W        W91048  32.490  27.397   1.719 -0.0352  0.1681 -0.1978
48132W        W91049  31.172  28.042  31.758 -0.4384 -0.3161 -0.0612
48133W        W91050  31.219  26.832   0.727 -0.0587 -0.0788  0.1603
48134W        W91051  28.699  28.974   2.911  0.0472  0.3092 -0.1367
48135W        W91052  29.228  26.873   3.370 -0.0446 -0.3241 -0.0444
48136W        W91053  32.519  30.344  30.912 -0.0561  0.1516 -0.0092
48137W        W91054  33.082  29.142   1.148  0.1039  0.0414 -0.0005
48138W        W91055  30.304  27.020   0.520 -0.1116 -0.0735  0.2124
48139W        W91056  29.696  26.802   1.384 -0.1246  0.1165 -0.0173
48140W        W91057  28.887  28.416   4.155  0.0714  0.0279 -0.0746
48141W        W91058  26.756  28.202   3.048  0.0179 -0.3365 -0.2712
48142W        W91059  30.427  25.370  30.160 -0.1041 -0.3668 -0.0530
48143W        W91060  33.514  28.690   1.896  0.1856 -0.0810  0.3020
48144W        W91061  29.399  29.232   2.238 -0.0483 -0.2010 -0.0394
48145W        W91062  31.808  25.413   1.770  0.1680  0.0704 -0.0448
48146W        W91063  30.436  27.244   2.387  0.3685  0.1898  0.1316
48147W        W91064  33.578  27.955   2.757  0.0379 -0.1032 -0.1883
48148W        W91065  32.853  29.774  29.588  0.1953 -0.2393  0.0779
48149W        W91066  31.220  27.445   0.102 -0.1165  0.2407 -0.1449
48150W        W91067  31.073  26.868   3.014  0.1263  0.2965  0.2684
48151W        W91068  31.168  28.339  30.333 -0.1611 -0.2336  0.1339
48152W        W91069  29.351  28.723   0.594 -0.2667 -0.0529  0.0175
48153W        W91070  32.890  29.395   3.085 -0.0151 -0.1711 -0.3455
48154W        W91071  30.399  26.901   0.046 -0.0555 -0.0150 -0.0273
48155W        W91072  29.672  29.426   1.269 -0.0699 -0.4255 -0.3681
48156W        W91073  29.610  27.583   1.541  0.3065 -0.0289  0.2006
48157W        W91074  32.425  28.308   4.334  0.3121 -0.1908 -0.2697
48158W        W91075  28.687  31.055  30.711 -0.0566 -0.1004  0.0906
48159W        W91076  29.071  27.610   2.465  0.0640 -0.2358  0.0245
48160W        W91077  30.214  25.874  30.990  0.1915 -0.0386  0.0682
48161W        W91078  28.452  26.420   3.075  0.1894  0.3360 -0.1347
48162W        W91079  28.437  28.760   2.387 -0.1082 -0.0716 -0.1456
48163W        W91080  31.630  24.410   1.801  0.3355  0.2736 -0.0361
48164W        W91081  29.606  25.264   2.852  0.0393 -0.3550  0.1214
48165W        W91082  30.501  25.541   2.729 -0.3503 -0.1659 -0.2788
48166W        W91083  28.653  28.397   2.743  0.1868 -0.1033 -0.1032
48167W        W91084  31.469  27.942  31.117 -0.1192  0.0242 -0.2158
48168W        W91085  33.687  26.216  31.890  0.3373  0.0997 -0.4228
48169W        W91086  31.520  28.223  30.701  0.0950 -0.1141 -0.0752
48170W        W91087  28.198  27.724   2.661 -0.2042 -0.1459 -0.1000
48171W        W91088  30.551  25.829   0.140 -0.2094  0.1352 -0.1533
48172W        W91089  29.339  25.371   3.430 -0.0807 -0.0958  0.0904
48173W        W91090  30.137  26.778   1.733  0.0360 -0.0170  0.1482
48174W        W91091  31.435  26.851   3.734  0.4765 -0.0038  0.0281
48175W        W91092  29.181  25.149   1.915 -0.0368  0.2257 -0.0808
48176W        W91093  31.231  26.429   1.252 -0.1374 -0.1631 -0.2717
48177W        W91094  28.838  29.111   1.851 -0.1046 -0.1729 -0.0113
48178W        W91095  28.251  27.643   0.276  0.1414 -0.1619  0.0727
48179W        W91096  32.340  26.367   3.790  0.1667  0.2272  0.1217
48180W        W91097  31.192  29.964   3.470 -0.2514  0.0968  0.1202
48181W        W91098  33.185  29.449   2.175 -0.0222 -0.1183  0.1753
48182W        W91099  34.014  28.921   2.126 -0.2405  0.0052 -0.2006
48183W        W91100  29.931  27.363   0.762  0.0483  0.1599 -0.1031
48184W        W91101  28.258  27.795  31.434  0.1699 -0.0499 -0.1726
48185W        W91102  30.221  27.853   0.949 -0.0262 -0.0611  0.0699
48186W        W91103  29.526  28.428   1.803  0.1323  0.0941 -0.4483
48187W        W91104  30.480  27.932  30.958  0.0455  0.1361  0.2043
48188W        W91105  31.230  29.305   1.154 -0.1086 -0.0316  0.1483
48189W        W91106  31.740  27.322   0.150 -0.1322 -0.1179  0.0871
48190W        W91107  30.500  28.361   1.947  0.2217  0.2205 -0.1258
48191W        W91108  30.994  25.433   2.731  0.0233 -0.4701 -0.1298
48192W        W91109  32.552  28.448   1.197 -0.2438  0.0619 -0.2846
48193W        W91110  29.088  26.990   1.017  0.0269  0.2424  0.3229
48194W        W91111  30.827  24.688   0.062 -0.0236  0.2318  0.3608
48195W        W91112  31.239  28.891   2.983 -0.0939 -0.0086 -0.0231
48196W        W91113  28.568  29.893  31.649  0.3333 -0.1712 -0.2506
48197W        W91114  27.245  27.376   1.919 -0.0285 -0.4297 -0.1477
48198W        W91115  29.944  28.241   1.192 -0.0274 -0.1819  0.1109
48199W        W91116  32.209  26.051   1.280  0.0649  0.2000 -0.2225
48200W        W91117  30.464  27.739   3.203 -0.1156 -0.1338 -0.0583
48201W        W91118  31.087  26.908   1.170  0.1063 -0.3979 -0.0234
48202W        W91119  29.398  26.739   0.805 -0.0229 -0.0478  0.5413
48203W        W91120  29.666  29.488   1.903  0.2023  0.1279 -0.3270
48204W        W91121  29.443  24.267   0.116 -0.0800  0.1636 -0.3430
48205W        W91122  32.712  23.658  30.621  0.0864 -0.0439  0.1602
48206W        W91123  30.140  26.966   1.042  0.2506 -0.2106  0.0057
48207W        W91124  31.938  28.056  30.909  0.0622  0.3346 -0.1441
48208W        W91125  30.653  26.353  31.373  0.1062 -0.0471  0.0262
48209W        W91126  30.310  25.168   0.803  0.0755  0.0896  0.0673
48210W        W91127  30.023  28.697   5.083  0.0167  0.1867 -0.0810
48211W        W91128  31.767  26.585  30.804  0.2107 -0.1521 -0.0826
48212W        W91129  32.116  28.192   3.838  0.0737  0.1020 -0.2565
48213W        W91130  30.827  26.073  31.791  0.1932 -0.0080 -0.0962
48214W        W91131  34.655  29.264   1.467 -0.0168 -0.0449 -0.2486
48215W        W91132  28.578  28.171   1.959 -0.2162  0.0830 -0.2207
48216W        W91133  31.105  28.019   2.430 -0.1257  0.0828 -0.0935
48217W        W91134  31.679  29.264   2.116  0.2032 -0.0960  0.0450
48218W        W91135  31.257  24.280   2.198 -0.1212 -0.1760  0.1001
48219W        W91136  29.417  25.458  31.316 -0.1110 -0.3060  0.0710
48220W        W91137  29.460  27.778   0.639 -0.0800 -0.1704 -0.0207
48221W        W91138  29.024  31.073  29.389 -0.2031 -0.1009  0.1792
48222W        W91139  31.739  25.729   1.332 -0.1330 -0.1232 -0.2225
48223W        W91140  31.904  25.734   0.821  0.1612  0.3512  0.1738
48224W        W91141  29.965  26.317   1.642  0.1848  0.1807 -0.1331
48225W        W91142  33.758  26.076   3.743 -0.2337 -0.0945  0.2161
48226W        W91143  32.471  25.108   2.013 -0.2661 -0.0425  0.2186
48227W        W91144  30.428  28.854   2.434  0.3580  0.0406  0.0457
48228W        W91145  30.036  27.872   1.552 -0.0989  0.2891  0.0543
48229W        W91146  30.703  25.308   3.776  0.3165  0.2020 -0.3063
48230W        W91147  29.679  27.007   3.042 -0.2397  0.4852  0.2071
48231W        W91148  29.566  27.923   2.770 -0.0436  0.1422  0.0645
48232W        W91149  32.663  27.961   2.232  0.1021 -0.0952  0.2772
48233W        W91150  30.619  27.205   1.290 -0.2183  0.1699  0.1027
48234W        W91151  29.928  25.947   3.032 -0.3116 -0.2734  0.1696
48235W        W91152  29.626  25.310   0.080 -0.0831  0.1219  0.0790
48236W        W91153  28.549  29.561   0.449 -0.1053  0.1897 -0.0131
48237W        W91154  29.584  28.568   1.344  0.3565 -0.1600 -0.1570
48238W        W91155  28.824  26.802   1.442 -0.2063  0.3923 -0.3425
48239W        W91156  29.367  27.355   2.841  0.1363  0.0859  0.2945
48240W        W91157  29.622  28.917  31.714 -0.4546  0.0175  0.0264
48241W        W91158  30.079  27.551   2.124 -0.2302 -0.0765 -0.0480
48242W        W91159  28.171  26.783   1.698 -0.2666 -0.1455 -0.1142
48243W        W91160  32.078  24.699   1.842  0.0081 -0.0382 -0.1647
48244W        W91161  27.771  28.928   2.878 -0.2715 -0.1894  0.0068
48245W        W91162  31.567  25.767   2.045  0.1266 -0.0404  0.2745
48246W        W91163  29.024  25.844   0.351 -0.1475  0.1114 -0.0437
48247W        W91164  30.923  25.488   1.364  0.1142  0.4532 -0.0157
48248W        W91165  32.958  28.503  31.267 -0.1348  0.1082 -0.1658
48249W        W91166  29.288  25.701   1.985  0.3207 -0.0586  0.1611
48250W        W91167  30.004  26.415   2.129 -0.3317 -0.0799  0.5041
48251W        W91168  29.963  28.976   1.398  0.0549 -0.1026 -0.2187
48252W        W91169  30.473  26.801   2.161 -0.2574 -0.1478  0.0571
48253W        W91170  32.051  24.652  31.715  0.0801  0.1954  0.1411
48254W        W91171  32.540  29.001   1.204 -0.4517  0.0214  0.1653
48255W        W91172  28.923  27.570   2.966  0.1624  0.1146  0.0030
48256W        W91173  30.087  27.259   0.131 -0.0480  0.3910  0.2816
48257W        W91174  31.533  27.196   3.296  0.1930 -0.0797 -0.0375
48258W        W91175  30.936  25.147   0.099 -0.0802 -0.2070  0.0095
48259W        W91176  29.043  30.393   0.137 -0.0717 -0.1753  0.0572
48260W        W91177  29.513  28.444   2.887 -0.2981  0.0690  0.1323
48261W        W91178  29.557  25.928  31.497  0.0400  0.0339 -0.0823
48262W        W91179  29.270  26.548   1.199 -0.3653  0.1255  0.0576
48263W        W91180  30.516  26.003   3.005  0.1764 -0.0685 -0.1342
48264W        W91181  31.103  26.999  31.897 -0.2966 -0.2835  0.1250
48265W        W91182  31.426  25.478   0.899  0.0695 -0.4623 -0.2300
48266W        W91183  30.448  27.390   0.801 -0.1405  0.1770 -0.0148
48267W        W91184  29.936  28.117   0.569  0.3165  0.3381  0.2468
48268W        W91185  31.898  28.076   2.918  0.0339  0.1581  0.2651
48269W        W91186  32.085  26.243   4.545  0.0597 -0.0585 -0.2175
48270W        W91187  29.581  29.015   3.603  0.0270 -0.1186 -0.0951
48271W        W91188  30.614  24.951   0.547 -0.0783 -0.1617 -0.2450
48272W        W91189  31.940  29.138   0.956 -0.1562 -0.1004 -0.0168
48273W        W91190  30.321  26.037   1.484  0.2332 -0.1998  0.2130
48274W        W91191  28.905  27.786   0.605 -0.1184 -0.5026 -0.0240
48275W        W91192  29.179  27.366   3.352  0.4210 -0.0918  0.1830
48276W        W91193  29.747  28.655   0.907  0.1967 -0.0044  0.1166
48277W        W91194  31.741  24.586   1.133 -0.2017 -0.1266  0.1580
48278W        W91195  28.757  27.630   1.916  0.1999  0.1824 -0.2299
48279W        W91196  28.312  30.153   1.218 -0.0030 -0.0864  0.1578
48280W        W91197  29.720  31.051   0.548  0.0042  0.1714 -0.0816
48281W        W91198  32.403  26.124   0.245 -0.0116 -0.3297 -0.2511
48282W        W91199  31.442  28.532   0.650 -0.0187 -0.0970 -0.0550
48283W        W91200  31.172  26.301   2.023 -0.2265 -0.2778  0.2252
48284W        W91201  30.837  26.257   2.725  0.0188 -0.3040 -0.1988
48285W        W91202  32.725  27.799  31.358 -0.3835  0.0326  0.3867
48286W        W91203  31.484  25.607   2.580 -0.2201  0.1491 -0.1991
48287W        W91204  29.920  25.485   4.329 -0.1782  0.1103 -0.1338
48288W        W91205  31.919  29.138  31.884  0.3827 -0.2522  0.1574
48289W        W91206  30.589  27.305   4.006 -0.1451 -0.2900  0.2663
48290W        W91207  31.282  28.992   2.088  0.3449  0.0909  0.0434
48291W        W91208  29.163  27.393   4.335  0.0656  0.0219 -0.2269
48292W        W91209  30.661  25.439   0.476  0.1382 -0.0569 -0.1707
48293W        W91210  28.572  25.167  31.357 -0.0920 -0.3058  0.1171
48294W        W91211  31.075  27.183   3.516  0.3524  0.1173 -0.1760
48295W        W91212  33.679  29.085   1.655 -0.1087 -0.1212  0.1607
48296W        W91213  31.014  28.105  30.777 -0.1815  0.1770  0.1695
48297W        W91214  31.499  26.578   1.767  0.1868  0.0682  0.3449
48298W        W91215  30.449  27.762   4.757  0.0127 -0.3305 -0.0233
48299W        W91216  32.703  25.176   1.573  0.2079  0.1087 -0.4152
48300W        W91217  29.976  27.132  30.648 -0.1898  0.1168  0.2529
48301W        W91218  29.669  27.884   1.965 -0.0791 -0.1237 -0.0202
48302W        W91219  31.393  24.753   3.993  0.3855 -0.0492 -0.3198
48303W        W91220  32.356  29.169  31.090  0.1843  0.0808  0.0435
48304W        W91221  31.575  26.099   1.010 -0.0795 -0.3471 -0.2470
48305W        W91222  32.038  25.895   1.748 -0.2833 -0.4460  0.1714
48306W        W91223  31.748  27.202   2.511  0.0667  0.0893  0.2206
48307W        W91224  30.571  27.936   2.334  0.1268  0.0626 -0.3754
48308W        W91225  31.521  24.959   3.219 -0.1053  0.0625 -0.0256
48309W        W91226  32.369  30.739   3.438 -0.0994  0.0254 -0.2861
48310W        W91227  30.556  27.143  30.711 -0.6009  0.3271 -0.2559
48311W        W91228  30.246  26.909   2.745 -0.0731 -0.1228  0.0406
48312W        W91229  32.045  28.313   0.471 -0.1695 -0.1918  0.1474
48313W        W91230  30.396  26.745  31.553  0.1778 -0.2245  0.3204
48314W        W91231  28.538  28.666   1.847 -0.1314 -0.0625 -0.0307
48315W        W91232  33.556  26.950   3.302  0.2059  0.1459 -0.0675
48316W        W91233  29.834  25.999   1.183 -0.0422  0.0856 -0.4053
48317W        W91234  31.010  26.336   5.001  0.1307 -0.3357  0.0895
48318W        W91235  31.082  28.800   0.893  0.1547  0.0530 -0.1010
48319W        W91236  30.283  27.665   0.410  0.0306 -0.1115  0.0598
48320W        W91237  30.337  26.287  29.942  0.1376  0.3475 -0.0302
48321W        W91238  29.970  24.736   2.067 -0.0246 -0.2255 -0.1768
48322W        W91239  30.057  29.293   2.259 -0.1064 -0.0260 -0.1337
48323W        W91240  29.890  24.202  31.723  0.2961  0.1123  0.4174
48324W        W91241  30.711  26.808  31.110 -0.2528  0.0419 -0.1717
48325W        W91242  32.250  27.771   0.864 -0.0642  0.0102 -0.3314
48326W        W91243  32.523  28.161   0.778 -0.3113  0.2936  0.0853
48327W        W91244  30.016  25.220  31.686  0.2408 -0.2270  0.0969
48328W        W91245  32.796  28.492   3.093 -0.2320  0.1765 -0.4540
48329W        W91246  28.526  28.049   0.470 -0.0085 -0.0409  0.1971
48330W        W91247  29.545  27.185   1.014 -0.1034 -0.3510 -0.3271
48331W        W91248  30.551  29.513   2.576 -0.1748  0.4144  0.1343
48332W        W91249  31.247  26.384   3.013 -0.1214  0.1398  0.0256
48333W        W91250  30.244  28.388   0.803  0.0441  0.0826 -0.2185
48334W        W91251  30.832  27.191   2.022 -0.1239  0.2163  0.2519
48335W        W91252  31.729  26.202   1.977  0.2099 -0.1941 -0.0328
48336W        W91253  32.123  26.865   1.305  0.1945  0.1598  0.0606
48337W        W91254  30.833  27.510   2.422  0.1775  0.0908 -0.2635
48338W        W91255  31.732  28.240   1.654 -0.1252  0.1729  0.2878
48339W        W91256  29.977  27.927   2.471 -0.0234  0.1995  0.1850
48340W        W91257  32.034  27.194   1.913 -0.1401  0.0046 -0.1295
48341W        W91258  32.511  27.124  31.816 -0.0995 -0.0453  0.0786
48342W        W91259  29.853  26.138   2.581 -0.0851 -0.1196 -0.0139
48343W        W91260  30.267  26.309   4.983  0.0729  0.3630 -0.1507
48344W        W91261  30.281  28.379   4.296 -0.2422  0.1455  0.0409
48345W        W91262  29.993  27.925   3.013 -0.1374 -0.4390 -0.2054
48346W        W91263  30.228  25.376   0.259  0.0691 -0.1400  0.1990
48347W        W91264  29.693  27.089  31.801  0.1953  0.2297  0.2305
48348W        W91265  29.132  29.204   2.696  0.2250  0.0341 -0.1315
48349W        W91266  29.484  27.104   2.415  0.0798  0.3103  0.0466
48350W        W91267  27.890  28.748   0.370 -0.2201  0.1052 -0.2843
48351W        W91268  31.105  28.141   0.875  0.2591  0.0463 -0.0916
48352W        W91269  29.523  28.238   0.828  0.2722 -0.0668  0.0427
48353W        W91270  30.882  28.366   2.908 -0.2620 -0.2490  0.1026
48354W        W91271  29.807  27.102  31.208 -0.1496  0.3497 -0.0962
48355W        W91272  28.601  28.415   1.286 -0.1524 -0.0609 -0.0965
48356W        W91273  27.265  28.973  31.716  0.0376  0.0782  0.1902
48357W        W91274  29.735  29.999   0.565 -0.0089 -0.0001  0.0384
48358W        W91275  29.720  29.530   0.450  0.1680  0.2339  0.2163
48359W        W91276  32.662  28.481   2.597  0.3124 -0.1736  0.0511
48360W        W91277  30.326  23.650  30.632  0.0610 -0.1749  0.0468
48361W        W91278  32.138  28.146   1.256 -0.3015 -0.1729  0.0162
48362W        W91279  30.427  27.229   1.712 -0.1373 -0.1283  0.0896
48363W        W91280  30.175  28.856   3.266 -0.2964  0.0902  0.0917
48364W        W91281  28.395  28.118  31.849  0.1905  0.1655  0.0459
48365W        W91282  29.843  25.899   0.690 -0.1031 -0.3104 -0.0133
48366W        W91283  30.154  27.823   4.230  0.1451  0.0365 -0.1339
48367W        W91284  29.121  28.728   2.858 -0.0517  0.1349  0.0739
48368W        W91285  32.635  29.836   0.643 -0.3219  0.3042  0.1579
48369W        W91286  28.742  27.248  31.810  0.0639  0.0504 -0.0263
48370W        W91287  28.901  28.371   2.308  0.1284 -0.0838 -0.2355
48371W        W91288  32.350  25.286   2.480 -0.0266  0.0101 -0.2445
48372W        W91289  31.420  25.962  31.526 -0.1763 -0.0060  0.1716
48373W        W91290  30.265  26.536   0.599 -0.2087 -0.3231 -0.0718
48374W        W91291  28.430  28.821   0.739  0.0799 -0.0157  0.0162
48375W        W91292  30.239  28.157   3.391  0.0525  0.1966  0.1421
48376W        W91293  32.051  27.924   2.121 -0.1655 -0.1284  0.2607
48377W        W91294  29.041  26.418   0.374  0.1350 -0.1559 -0.1086
48378W        W91295  31.993  28.535   2.666  0.1494 -0.0988 -0.0257
48379W        W91296  30.057  27.453   1.286 -0.0771  0.2092 -0.1266
48380W        W91297  31.386  25.215   1.336 -0.1188 -0.0333 -0.0872
48381W        W91298  30.291  28.347   2.447 -0.2590  0.0930 -0.1592
48382W        W91299  31.531  26.661  31.825  0.1632 -0.1776 -0.3124
48383W        W91300  31.593  28.823   1.262  0.1458 -0.1128  0.0672
48384W        W91301  29.880  28.482   2.277  0.0709 -0.2022 -0.0472
48385W        W91302  32.519  27.843   0.347 -0.2026  0.1311  0.2041
48386W        W91303  32.692  28.953   2.357  0.1418  0.2100 -0.1889
48387W        W91304  30.458  26.337  30.902  0.0308  0.2686  0.2505
48388W        W91305  30.652  28.286   3.883  0.0535 -0.2204  0.1134
48389W        W91306  29.557  26.147   1.997  0.0321  0.0587 -0.1453
48390W        W91307  28.525  23.577   0.616  0.2200 -0.2695 -0.1390
48391W        W91308  29.347  29.072   1.718  0.1556  0.0136  0.2838
48392W        W91309  30.950  27.724   3.737 -0.0753  0.0055  0.0062
48393W        W91310  31.660  29.739   2.024  0.0134 -0.1323 -0.0051
48394W        W91311  28.748  25.420   0.765 -0.2854 -0.0731  0.3482
48395W        W91312  31.320  27.623   2.597 -0.0961  0.3337  0.1434
48396W        W91313  31.380  27.232   0.504 -0.0994  0.1509  0.0412
48397W        W91314  29.177  28.998  31.706  0.0849 -0.1356  0.1248
48398W        W91315  33.219  27.231   0.492  0.4267 -0.3894  0.3495
48399W        W91316  32.097  29.046   1.498 -0.3312  0.1694 -0.1097
48400W        W91317  30.031  26.451   3.074 -0.0577 -0.0330  0.0150
48401W        W91318  32.154  28.940   2.011  0.3353  0.2127  0.0249
48402W        W91319  34.200  28.477   2.352  0.1088 -0.2422 -0.2319
48403W        W91320  30.924  24.931   1.435  0.3296  0.2360  0.0627
48404W        W91321  28.763  28.449   0.761  0.1704  0.0153 -0.0000
48405W        W91322  28.423  29.639   1.306 -0.2382  0.1423  0.2042
48406W        W91323  32.437  25.710   2.739 -0.0685 -0.1021 -0.1315
48407W        W91324  32.035  25.544   3.892  0.2915  0.0142 -0.1087
48408W        W91325  32.240  28.005   0.016  0.0186  0.2159  0.1486
48409W        W91326  32.261  26.139   2.185  0.1780 -0.0227  0.1637
48410W        W91327  33.851  28.905   2.591  0.2909 -0.1666 -0.0550
48411W        W91328  29.259  29.188   4.609  0.1583  0.0019 -0.0703
48412W        W91329  30.546  27.653   1.952  0.0282 -0.3685 -0.1453
48413W        W91330  32.037  28.030   3.423  0.0906 -0.0936 -0.4618
48414W        W91331  28.203  28.727   1.255 -0.0905 -0.0509 -0.0963
48415W        W91332  31.012  29.448   1.828 -0.2813  0.1065 -0.1201
48416W        W91333  32.872  28.687   0.927 -0.4328  0.1552  0.1208
48417W        W91334  31.553  26.466   0.675  0.1034  0.0873  0.2964
48418W        W91335  34.003  26.912   3.339 -0.0503  0.2728 -0.1182
48419W        W91336  30.572  24.966   2.120  0.2490 -0.0120  0.1815
48420W        W91337  33.091  25.347  31.326 -0.1319 -0.3554 -0.1186
48421W        W91338  30.768  26.773   1.533  0.1368 -0.0668 -0.0371
48422W        W91339  29.966  27.305   2.655  0.1207  0.3159 -0.3635
48423W        W91340  29.186  27.171  31.933 -0.1624 -0.0578  0.0693
48424W        W91341  28.903  26.358   0.834  0.4656  0.0740  0.1471
48425W        W91342  28.171  28.297   0.735  0.2538 -0.1509  0.1291
48426W        W91343  30.072  24.395   2.979 -0.2079 -0.0979 -0.3312
48427W        W91344  31.055  26.768   1.979  0.2004 -0.1183 -0.4521
48428W        W91345  29.045  28.234   1.447 -0.1461  0.2244  0.1711
48429W        W91346  27.647  24.487   0.330  0.0994 -0.1523 -0.0150
48430W        W91347  31.712  27.020   1.513 -0.0325  0.0754 -0.1676
48431W        W91348  30.214  25.650   1.176 -0.1349  0.1264 -0.0095
48432W        W91349  29.032  25.458   2.470  0.1693 -0.2907  0.1693
48433W        W91350  28.635  27.316  31.275 -0.0035  0.0720 -0.3288
48434W        W91351  32.061  27.090   0.743 -0.2006  0.1807 -0.0678
48435W        W91352  30.182  26.092   0.373  0.0640 -0.2310 -0.2025
48436W        W91353  30.310  29.507   4.257  0.1714  0.2063 -0.3027
48437W        W91354  29.769  29.152   0.809 -0.2078  0.2196 -0.1806
48438W        W91355  30.448  27.767   3.723 -0.1259 -0.0544 -0.2837
48439W        W91356  30.093  26.937   3.298 -0.2257  0.0492  0.0027
48440W        W91357  29.065  28.388  31.592 -0.1781  0.0703  0.0817
48441W        W91358  30.584  27.333   3.511 -0.2608  0.1816 -0.2059
48442W        W91359  30.510  29.399   2.106  0.1229  0.0844  0.3862
48443W        W91360  32.801  29.060  31.331 -0.1549  0.1085  0.1173
48444W        W91361  29.745  27.173   1.852 -0.0886  0.1176  0.0583
48445W        W91362  30.024  29.647   2.826  0.1568  0.0173 -0.0504
48446W        W91363  29.428  24.430   2.865  0.2448  0.2612  0.2508
48447W        W91364  29.811  26.865   0.573  0.1405  0.1504  0.1149
48448W        W91365  31.981  27.608   2.596 -0.2578  0.0991  0.2626
48449W        W91366  29.816  27.590  31.313 -0.4640  0.3759  0.2199
48450W        W91367  32.272  27.052   2.327 -0.2699 -0.4238 -0.0767
48451W        W91368  31.110  26.295   0.750 -0.0927 -0.0161  0.1529
48452W        W91369  29.472  25.867   3.363  0.0853 -0.0490 -0.3248
48453W        W91370  28.752  28.777   3.731  0.1006  0.0144  0.0826
48454W        W91371  32.276  28.994   2.587 -0.1173  0.0824 -0.2019
48455W        W91372  27.513  23.784   2.477  0.0345  0.0743 -0.1392
48456W        W91373  30.638  26.858   0.897 -0.0581 -0.4613 -0.2869
48457W        W91374  31.912  28.667   0.133  0.4269 -0.0586  0.0746
48458W        W91375  30.007  28.404   3.009  0.1531 -0.0525  0.1071
48459W        W91376  30.939  26.185   1.540 -0.4913 -0.1782 -0.0989
48460W        W91377  31.921  25.557   2.336 -0.3412 -0.0981 -0.0494
48461W        W91378  31.750  27.863   1.258  0.1735 -0.1527  0.0766
48462W        W91379  30.991  27.846   4.651  0.3152  0.2543 -0.0415
48463W        W91380  29.745  26.318  31.775 -0.0455  0.1118 -0.0209
48464W        W91381  32.074  27.723   1.676 -0.3848 -0.2172  0.0738
48465W        W91382  31.166  28.436   3.939 -0.2775  0.0024  0.2013
48466W        W91383  29.223  29.954   3.925 -0.1336 -0.1714 -0.0273
48467W        W91384  30.410  29.814   1.208  0.0322  0.1105 -0.1259
48468W        W91385  32.243  28.588   1.620 -0.1280 -0.4379 -0.2664
48469W        W91386  28.690  25.468   2.040 -0.0795 -0.0115 -0.0073
48470W        W91387  29.244  28.619   0.069 -0.2191  0.4117  0.0662
48471W        W91388  29.739  27.741   0.220 -0.1263 -0.1520 -0.1864
48472W        W91389  31.659  27.797  31.703  0.1897  0.0496 -0.0728
48473W        W91390  29.858  26.490   0.974 -0.3536 -0.1436 -0.2368
48474W        W91391  30.633  26.053   0.639 -0.1183  0.3780 -0.0572
48475W        W91392  29.321  28.614   3.350  0.3531  0.3512 -0.1613
48476W        W91393  31.540  27.045   2.048 -0.0884  0.1272 -0.1118
48477W        W91394  31.495  28.606   4.240 -0.0954 -0.1583 -0.1235
48478W        W91395  29.630  28.071   3.354  0.1226  0.0461  0.0382
48479W        W91396  31.558  26.851   2.806  0.0104  0.2512  0.0228
48480W        W91397  33.434  27.334   2.891 -0.0713  0.1092 -0.1664
48481W        W91398  31.041  25.136   4.858 -0.0877 -0.2062 -0.1281
48482W        W91399  32.754  30.956   4.672 -0.2103  0.0497  0.0476
48483W        W91400  31.187  25.940   5.370 -0.2012  0.3347 -0.1966
48484W        W91401  30.507  28.527   5.756 -0.1347 -0.0384  0.1638
48485W        W91402  32.470  30.482   5.395 -0.2254  0.2418  0.1904
48486W        W91403  32.816  25.513   2.359 -0.1430  0.0983  0.1510
48487W        W91404  31.430  26.620   5.019  0.1125  0.0872 -0.0331
48488W        W91405  30.179  28.208   4.871  0.0386 -0.0141 -0.1735
48489W        W91406  30.398  26.483   2.736 -0.2847 -0.0353 -0.3624
48490W        W91407  30.395  24.100   4.454 -0.1880  0.0182 -0.0225
48491W        W91408  33.553  26.246   6.146  0.1664 -0.1466 -0.0847
48492W        W91409  29.895  27.681   4.671 -0.1184  0.0582 -0.2230
48493W        W91410  30.854  26.627   5.931 -0.2801  0.0554  0.1055
48494W        W91411  30.105  27.360   4.969 -0.1305 -0.3032 -0.0562
48495W        W91412  31.507  29.341   3.097 -0.0552  0.4935 -0.0241
48496W        W91413  32.401  24.832   5.562  0.0166  0.0272  0.0330
48497W        W91414  32.751  25.149   5.000 -0.1194  0.4306 -0.1551
48498W        W91415  31.623  29.679   3.478 -0.2746 -0.1059  0.0769
48499W        W91416  27.939  27.074   3.667  0.2011  0.1183  0.0127
48500W        W91417  30.204  25.848   5.161 -0.0534  0.0000 -0.0787
48501W        W91418  31.685  26.113   5.835 -0.1563 -0.4047  0.4239
48502W        W91419  32.076  27.773   4.650 -0.1728  0.0308 -0.0453
48503W        W91420  31.352  27.686   3.377  0.2963  0.1898  0.3073
48504W        W91421  30.134  29.855   4.751  0.1050 -0.3428 -0.0108
48505W        W91422  30.395  30.955   3.316 -0.0147 -0.2085 -0.0453
48506W        W91423  34.022  27.020   6.836  0.2637 -0.0408  0.0305
48507W        W91424  29.803  29.120   4.436 -0.3598  0.3639 -0.1322
48508W        W91425  27.959  30.091   4.209 -0.2051 -0.0654 -0.1426
48509W        W91426  31.474  29.898   4.996 -0.3638  0.1965 -0.2227
48510W        W91427  32.365  28.760   3.038  0.1694  0.0565  0.2173
48511W        W91428  31.817  30.723   5.020  0.0653 -0.0557  0.1120
48512W        W91429  31.106  29.227   4.621  0.1038 -0.2752  0.1706
48513W        W91430  29.869  28.589   4.017 -0.2096 -0.2167  0.1194
48514W        W91431  29.695  30.529   6.401  0.3058  0.1878  0.1956
48515W        W91432  29.141  27.899   5.718 -0.0103  0.3668 -0.0778
48516W        W91433  29.342  28.651   3.854 -0.0876  0.0032 -0.0516
48517W        W91434  32.062  29.886   4.847  0.0594  0.4002 -0.0330
48518W        W91435  32.267  30.535   2.036  0.0998  0.1661 -0.1734
48519W        W91436  29.248  29.925   4.959  0.2795 -0.2235 -0.0712
48520W        W91437  31.535  27.697   5.015  0.0304  0.2447  0.1514
48521W        W91438  29.959  30.497   5.907 -0.0481  0.1691  0.0814
48522W        W91439  32.823  26.910   7.299 -0.0467  0.2081  0.1575
48523W        W91440  29.581  29.564   3.568  0.4549  0.0170 -0.0450
48524W        W91441  32.671  25.630   3.189  0.3683 -0.0117  0.0772
48525W        W91442  30.290  25.613   3.246 -0.1198  0.0277 -0.2358
48526W        W91443  32.067  26.669   4.254  0.0408 -0.0771 -0.0193
48527W        W91444  31.817  25.531   5.769 -0.2759  0.3032  0.0712
48528W        W91445  29.773  29.146   6.248  0.1539  0.1508 -0.0856
48529W        W91446  31.786  25.849   6.272  0.1542  0.3893  0.2699
48530W        W91447   0.054  27.427   3.795  0.2913 -0.0185 -0.1135
48531W        W91448  29.549  28.247   3.798  0.1366  0.2711  0.1793
48532W        W91449  32.161  27.236   4.431 -0.2034  0.3345  0.3165
48533W        W91450  28.975  28.732   4.582 -0.1357  0.2476  0.0632
48534W        W91451  30.586  24.790   4.625 -0.1696 -0.0537 -0.0119
48535W        W91452  31.465  28.811   3.454 -0.1743 -0.1114  0.1232
48536W        W91453  31.913  28.599   4.788 -0.1940 -0.1115 -0.0382
48537W        W91454  30.415  28.713   4.705 -0.1260  0.0230  0.0651
48538W        W91455  30.194  26.565   4.468  0.1860 -0.1090  0.0673
48539W        W91456  29.301  26.513   6.610  0.2499 -0.1259  0.1611
48540W        W91457  30.011  26.233   5.417  0.0631 -0.0606  0.0742
48541W        W91458  29.552  25.555   2.384  0.2346  0.0895  0.4857
48542W        W91459  33.545  28.393   6.727 -0.0373  0.0316 -0.0773
48543W        W91460  29.798  26.495   6.441 -0.0506 -0.0937 -0.1643
48544W        W91461  29.838  25.406   3.304 -0.0814 -0.2742  0.1645
48545W        W91462  30.709  29.755   7.173 -0.0109 -0.0945  0.1390
48546W        W91463  31.734  29.290   6.765 -0.4403  0.1252 -0.0225
48547W        W91464  30.905  28.871   2.594 -0.4777  0.2774  0.1335
48548W        W91465  30.672  26.493   4.639 -0.2671  0.4510 -0.0461
48549W        W91466  31.102  25.152   5.754  0.1396 -0.1476 -0.2183
48550W        W91467  28.348  29.735   4.247  0.2981  0.3110 -0.0682
48551W        W91468  29.632  26.800   4.349  0.0991 -0.1378  0.1190
48552W        W91469  32.625  29.634   5.531  0.0135  0.2161 -0.4085
48553W        W91470  32.664  29.231   4.771  0.1060  0.3768 -0.0969
48554W        W91471  28.776  29.979   4.714  0.2971 -0.2421 -0.0865
48555W        W91472  31.089  28.725   4.559  0.1232 -0.2246  0.1659
48556W        W91473  32.496  27.401   4.749  0.0286 -0.0194 -0.1513
48557W        W91474  29.713  29.670   4.889  0.2372  0.2453 -0.1712
48558W        W91475  28.881  27.986   4.569  0.0851  0.2941  0.1348
48559W        W91476  29.080  26.614   4.800  0.0062 -0.3360  0.1759
48560W        W91477  29.024  23.113   4.888 -0.1057 -0.3291 -0.0128
48561W        W91478  31.408  27.501   5.507  0.1204 -0.1850  0.1345
48562W        W91479  32.493  25.454   4.249  0.3458 -0.1302 -0.0588
48563W        W91480  30.456  23.603   6.595 -0.0641 -0.4117  0.0222
48564W        W91481  30.030  24.872   4.898  0.2620 -0.0586 -0.2224
48565W        W91482  29.285  29.455   5.178 -0.0626 -0.0496 -0.0307
48566W        W91483  33.399  28.291   3.303  0.5172  0.4524  0.1946
48567W        W91484  32.247  24.322   5.140 -0.1926  0.0165 -0.1640
48568W        W91485  31.610  26.679   3.314  0.3051  0.0679  0.0322
48569W        W91486  31.022  27.162   5.332  0.0170 -0.1607  0.2933
48570W        W91487  28.473  25.358   5.384  0.0107  0.0291  0.1200
48571W        W91488  31.483  26.665   7.163 -0.0037  0.1258 -0.2695
48572W        W91489  29.930  24.197   3.935 -0.2613  0.2482  0.1636
48573W        W91490  33.056  27.923   4.884 -0.3860  0.0316 -0.2458
48574W        W91491  29.672  24.997   3.611  0.1777 -0.0274 -0.1331
48575W        W91492  30.390  26.971   4.837  0.4031  0.2111  0.2375
48576W        W91493  29.635  27.781   4.082 -0.0922 -0.2616  0.1553
48577W        W91494  28.072  26.890   4.702 -0.2148 -0.0455  0.0231
48578W        W91495  31.573  25.821   6.856  0.0340  0.2877 -0.0497
48579W        W91496  30.206  29.676   3.669  0.1467  0.1326  0.1268
48580W        W91497  33.377  29.345   5.391 -0.2019  0.0919  0.0487
48581W        W91498  31.463  29.310   4.272 -0.0334  0.1768  0.3599
48582W        W91499  31.867  24.788   6.108 -0.1763  0.0974  0.1820
48583W        W91500  27.048  25.493   3.375 -0.4368  0.3028  0.3206
48584W        W91501  30.563  30.188   6.699  0.0103  0.0432 -0.2045
48585W        W91502  32.618  29.569   6.015 -0.0445  0.0211  0.0678
48586W        W91503  30.469  24.988   4.184  0.2680  0.1940 -0.0423
48587W        W91504  31.689  31.156   5.227  0.0700  0.1809  0.0341
48588W        W91505  29.928  28.643   4.594 -0.2265  0.2863  0.0707
48589W        W91506  29.977  27.564   5.948  0.2999  0.0459 -0.1090
48590W        W91507  33.175  26.506   5.567  0.4546  0.1755  0.1853
48591W        W91508  32.554  28.674   6.692 -0.0239 -0.3796  0.3145
48592W        W91509  31.510  27.843   4.535 -0.1152 -0.1225 -0.0913
48593W        W91510  30.027  26.576   3.590 -0.5837  0.1182  0.0500
48594W        W91511  28.879  30.252   3.671  0.0928 -0.0639 -0.0153
48595W        W91512  29.353  29.662   2.609  0.0433  0.1064  0.1256
48596W        W91513  29.393  27.784   4.566 -0.3873  0.1278 -0.1279
48597W        W91514  29.634  30.160   4.583  0.0907  0.3913  0.1411
48598W        W91515  32.132  24.724   4.623 -0.0152  0.1016 -0.2460
48599W        W91516  29.624  27.492   6.383 -0.5537  0.1946 -0.0586
48600W        W91517  31.998  26.523   5.750 -0.1633  0.0028  0.3661
48601W        W91518  28.150  27.689   3.205 -0.1866 -0.0338 -0.2583
48602W        W91519  29.925  28.849   6.637 -0.0594  0.2203  0.0351
48603W        W91520  31.658  25.862   3.673 -0.3720 -0.2944 -0.1419
48604W        W91521  33.162  25.834   2.612 -0.1292  0.2111 -0.1769
48605W        W91522  32.862  28.551   4.278 -0.1887  0.2493  0.0636
48606W        W91523  32.870  26.927   3.386 -0.1216 -0.1512 -0.0717
48607W        W91524  30.503  26.422   1.799  0.0590 -0.0514 -0.1333
48608W        W91525  31.829  25.511   3.077 -0.2393  0.2098 -0.0401
48609W        W91526  29.186  27.646   6.693  0.0213  0.1382  0.0295
48610W        W91527  28.938  29.047   5.075  0.2010  0.0317 -0.0144
48611W        W91528  33.267  26.037   4.003 -0.1063  0.1376 -0.2945
48612W        W91529  32.628  27.357   3.598  0.1011  0.1285  0.0672
48613W        W91530  31.883  29.475   3.992  0.3099 -0.2427  0.5250
48614W        W91531  29.410  26.649   5.364 -0.1533  0.3980  0.5147
48615W        W91532  30.674  28.280   4.550  0.2600  0.2022  0.0357
48616W        W91533  31.167  28.236   4.439 -0.2128 -0.7193  0.2818
48617W        W91534  31.353  26.026   6.410  0.0147 -0.2070  0.2605
48618W        W91535  31.027  26.883   3.995 -0.0673  0.0605  0.0027
48619W        W91536  29.519  25.794   4.532 -0.2452 -0.1077 -0.1904
48620W        W91537  28.843  28.498   3.229  0.3632  0.1136 -0.0915
48621W        W91538  32.636  26.072   5.936  0.5139  0.0588 -0.0574
48622W        W91539  31.306  23.192   5.714  0.2302  0.1268  0.1795
48623W        W91540  30.549  26.532   7.414 -0.1297 -0.1910 -0.3623
48624W        W91541   0.096  29.127   6.931  0.0229 -0.3629 -0.2623
48625W        W91542  32.523  26.565   2.312  0.0969  0.1108 -0.1764
48626W        W91543  31.552  26.340   4.548  0.1066  0.2934  0.0299
48627W        W91544  29.669  26.818   3.868  0.1199  0.0239 -0.0929
48628W        W91545  32.556  26.313   5.443 -0.1917  0.3447  0.0447
48629W        W91546  29.467  27.593   5.903  0.1410  0.1281 -0.0695
48630W        W91547  31.368  28.538   5.706 -0.0843 -0.1005  0.2263
48631W        W91548  33.383  28.840   5.174  0.1217 -0.0861  0.1203
48632W        W91549  32.515  27.885   3.570 -0.1002  0.2454  0.0399
48633W        W91550  31.990  25.262   6.181 -0.1392  0.0945 -0.0691
48634W        W91551  29.636  25.418   3.870 -0.1659  0.0990 -0.0983
48635W        W91552  29.675  29.630   5.415 -0.0056  0.2380  0.1670
48636W        W91553  30.220  28.976   4.253  0.0697 -0.1042  0.0850
48637W        W91554  30.320  24.991   6.291  0.1427 -0.0180 -0.0258
48638W        W91555  31.998  27.357   4.959 -0.0734  0.0416 -0.2554
48639W        W91556  29.139  29.069   3.286 -0.1545  0.1237  0.1426
48640W        W91557  31.048  27.743   5.136  0.1184  0.0967 -0.2396
48641W        W91558  29.338  28.195   4.265  0.2894 -0.1191  0.1202
48642W        W91559  32.564  24.515   4.652 -0.1551 -0.0962  0.1735
48643W        W91560  28.868  29.636   5.928 -0.0207  0.2574  0.1854
48644W        W91561  28.580  25.444   2.846  0.1599 -0.3172  0.1136
48645W        W91562  27.608  28.689   3.734  0.2365 -0.0357 -0.0905
48646W        W91563  32.605  26.947   4.373 -0.0007 -0.0931 -0.1462
48647W        W91564  31.962  27.103   3.582  0.1249  0.2238 -0.0261
48648W        W91565  29.894  25.625   5.494 -0.0067 -0.2409 -0.1291
48649W        W91566  31.395  26.005   7.387  0.1503 -0.1685  0.1765
48650W        W91567  28.269  27.387   4.952 -0.1664  0.2812 -0.1144
48651W        W91568  32.764  25.602   6.102 -0.2323  0.0807 -0.1297
48652W        W91569  32.496  26.392   4.289  0.1517  0.1325  0.1137
48653W        W91570  32.151  30.336   4.972  0.1767 -0.2438  0.2921
48654W        W91571  31.837  26.308   5.019 -0.0039  0.2319 -0.0367
48655W        W91572  30.153  25.174   2.875 -0.1207 -0.0917 -0.0535
48656W        W91573  33.380  25.833   4.522 -0.1092 -0.3886  0.1949
48657W        W91574  31.565  25.992   3.211 -0.5231 -0.0306 -0.2303
48658W        W91575  27.802  27.213   4.510  0.0186  0.2253 -0.0094
48659W        W91576  32.956  27.769   3.746 -0.5651 -0.1040  0.0875
48660W        W91577  28.840  27.514   3.776  0.0129  0.2701  0.0811
48661W        W91578  29.460  28.114   6.002  0.0029 -0.0243 -0.1843
48662W        W91579  31.889  25.485   6.640 -0.0874  0.0245  0.2358
48663W        W91580  33.137  29.630   4.489 -0.0519  0.0302  0.1714
48664W        W91581  31.723  26.902   4.653  0.2679  0.0402  0.1714
48665W        W91582  30.158  25.250   5.273 -0.2381 -0.4142  0.0765
48666W        W91583  29.561  25.067   4.326 -0.1220  0.1536  0.4316
48667W        W91584  31.629  30.187   4.487  0.1311  0.2770 -0.1991
48668W        W91585  32.608  25.038   4.549  0.0949 -0.1238  0.1100
48669W        W91586  30.830  29.006   6.822 -0.0894  0.0946  0.0320
48670W        W91587  32.983  26.046   5.454 -0.4946 -0.2098 -0.0207
48671W        W91588  31.190  27.535   2.097 -0.2374 -0.3887 -0.2433
48672W        W91589  34.665  27.059   6.113  0.1902  0.1094  0.1783
48673W        W91590  30.127  27.241   4.376  0.1287  0.0396  0.0648
48674W        W91591  29.694  28.084   4.902 -0.2196  0.1592 -0.0720
48675W        W91592  30.972  29.453   2.864 -0.3788  0.2346  0.0708
48676W        W91593  29.534  27.036   5.733  0.1492 -0.0829 -0.1180
48677W        W91594  28.769  28.768   5.476 -0.1609  0.0426 -0.2849
48678W        W91595  28.385  28.111   3.390 -0.1658 -0.3579 -0.3434
48679W        W91596  28.999  26.991   6.550 -0.2957 -0.1998 -0.0311
48680W        W91597  31.199  23.686   3.010 -0.5204 -0.0278  0.0838
48681W        W91598  31.682  28.144   4.124  0.1405 -0.2245  0.1095
48682W        W91599  30.535  24.973   5.082 -0.0927  0.1367 -0.2326
48683W        W91600  34.034  26.509   7.017 -0.1999  0.0053 -0.0952
48684W        W91601  31.000  26.626   3.559 -0.1338  0.0873  0.1280
48685W        W91602  33.373  25.934   5.802 -0.0395  0.2342  0.0732
48686W        W91603  32.312  26.865   6.213 -0.0583  0.0672 -0.2448
48687W        W91604  32.066  28.607   4.204  0.2416  0.0277  0.0729
48688W        W91605  29.849  25.180   6.287  0.1997 -0.2799 -0.0619
48689W        W91606  32.376  28.263   7.343  0.0651 -0.2676  0.2940
48690W        W91607  29.499  26.052   5.409 -0.3313  0.0147 -0.0307
48691W        W91608  30.734  26.881   2.602 -0.0933  0.1516 -0.0397
48692W        W91609  29.036  25.563   4.648 -0.0847 -0.2440 -0.2764
48693W        W91610  30.869  25.261   5.329 -0.0325 -0.3620 -0.0196
48694W        W91611  31.404  28.117   5.301 -0.0756 -0.1816 -0.2530
48695W        W91612  30.196  26.846   4.026 -0.2318 -0.1319  0.1225
48696W        W91613  33.721  26.827   6.511  0.0385  0.1158  0.0048
48697W        W91614  29.946  28.028   5.723  0.3376 -0.3680 -0.0224
48698W        W91615  31.928  29.247   5.082  0.3846  0.1708 -0.0893
48699W        W91616  32.705  29.006   3.392  0.1680 -0.0511  0.0227
48700W        W91617  31.521  28.912   4.826  0.2800  0.0592  0.3336
48701W        W91618  32.038  25.611   7.215  0.2211 -0.1022  0.1478
48702W        W91619  31.965  28.237   4.475  0.4201 -0.1186  0.1664
48703W        W91620  29.605  26.012   6.338  0.0059 -0.1655 -0.1209
48704W        W91621  33.343  26.308   4.683 -0.0623  0.0778 -0.2819
48705W        W91622  30.222  28.886   5.530 -0.3650  0.0950 -0.0336
48706W        W91623  32.853  26.894   6.255 -0.0763  0.1899 -0.3246
48707W        W91624  29.730  22.803   6.909 -0.3000 -0.0367  0.0460
48708W        W91625  31.080  30.599   5.478 -0.2187  0.0703  0.0577
48709W        W91626  31.845  26.278   3.489 -0.1999 -0.0704 -0.1924
48710W        W91627  31.932  28.077   5.093 -0.0388 -0.0705 -0.0196
48711W        W91628  32.243  27.892   4.155 -0.0240 -0.0931 -0.2007
48712W        W91629  31.084  26.479   4.389 -0.2162 -0.0530 -0.2449
48713W        W91630  30.649  26.958   4.345 -0.0642 -0.1172  0.1761
48714W        W91631  32.265  27.620   5.623  0.0614  0.1893 -0.1679
48715W        W91632  30.874  25.605   5.866 -0.1397 -0.1914 -0.1341
48716W        W91633  32.665  27.467   4.182  0.0126  0.1759  0.1344
48717W        W91634  29.938  28.882   2.623  0.0421 -0.1026  0.2380
48718W        W91635  31.338  29.807   4.468 -0.0638  0.1956 -0.1301
48719W        W91636  31.404  26.314   3.621  0.1446  0.1725 -0.0287
48720W        W91637  28.965  27.582   4.805 -0.0381 -0.0958 -0.0715
48721W        W91638  29.943  27.814   6.843 -0.0947  0.2579  0.4789
48722W        W91639  30.587  26.803   3.156 -0.1624  0.0909 -0.0069
48723W        W91640  30.239  27.482   5.526  0.2513  0.4721  0.2690
48724W        W91641  32.531  28.662   6.141  0.1957  0.1893  0.2168
48725W        W91642  32.939  26.907   5.426 -0.0250  0.0145  0.3574
48726W        W91643  31.082  25.645   3.659 -0.1660 -0.0843  0.2019
48727W        W91644  32.982  27.419   4.575 -0.0670 -0.1530  0.3121
48728W        W91645  28.135  28.788   3.702 -0.0214 -0.0864 -0.0391
48729W        W91646  30.326  25.225   4.630  0.2058  0.0081 -0.0127
48730W        W91647  29.758  30.699   6.985 -0.1790  0.1503 -0.3594
48731W        W91648  29.857  28.300   6.715 -0.1843 -0.1257  0.0622
48732W        W91649  30.324  28.789   3.790  0.0059 -0.1769  0.1574
48733W        W91650  32.163  25.542   5.388  0.2001  0.1175 -0.1579
48734W        W91651  33.281  28.266   4.521 -0.1136  0.1502  0.2157
48735W        W91652  30.175  28.370   5.438  0.3313 -0.1679  0.0610
48736W        W91653  33.247  27.231   5.284  0.0801 -0.1352  0.0483
48737W        W91654  31.683  29.330   5.860 -0.1076  0.1679 -0.2241
48738W        W91655  30.885  29.345   5.329 -0.1113 -0.3811  0.1581
48739W        W91656  32.285  28.937   7.076  0.1836 -0.2195 -0.3314
48740W        W91657  33.294  29.084   2.745 -0.3725 -0.2751 -0.3235
48741W        W91658  31.358  25.495   5.478  0.1144 -0.3250  0.1601
48742W        W91659  30.960  26.360   6.355 -0.0739  0.0103  0.0896
48743W        W91660  32.222  26.765   4.735  0.0588  0.1273  0.2526
48744W        W91661  31.553  28.218   3.488  0.1161 -0.0556 -0.1013
48745W        W91662  30.641  26.649   5.219 -0.1095 -0.0432 -0.0711
48746W        W91663  31.255  27.903   4.128 -0.2501 -0.2168  0.0529
48747W        W91664  29.559  27.957   6.513  0.1175  0.2643 -0.0519
48748W        W91665  29.369  27.367   8.424 -0.0771  0.1468  0.2494
48749W        W91666  29.307  29.767   5.735  0.1902 -0.1731  0.0492
48750W        W91667  30.852  27.784   2.860 -0.0314  0.0818  0.3390
48751W        W91668  30.703  26.062   4.293  0.0596 -0.0916 -0.0937
48752W        W91669   0.385  29.654   4.622  0.0604  0.1173  0.0013
48753W        W91670  29.975  27.751   3.524 -0.2311 -0.1754  0.3685
48754W        W91671  28.619  30.660   5.375 -0.0035 -0.2067 -0.2296
48755W        W91672  28.983  30.414   4.855 -0.0722 -0.0190  0.3687
48756W        W91673  30.934  26.281   3.877  0.1424  0.1197  0.0781
48757W        W91674  29.866  28.227   6.216  0.4813 -0.1856  0.1736
48758W        W91675  31.736  27.532   5.945  0.1089  0.1652  0.1505
48759W        W91676  32.624  26.526   3.415  0.2687  0.0842 -0.1220
48760W        W91677  32.170  27.441   3.937 -0.0344  0.2534  0.2880
48761W        W91678  31.859  26.131   4.127  0.0830 -0.1770 -0.0582
48762W        W91679  32.758  28.716   5.108  0.0147 -0.0653  0.0442
48763W        W91680  32.279  25.658   6.248 -0.0038 -0.1566  0.3235
48764W        W91681  31.037  24.788   5.279  0.1689 -0.0014 -0.3508
48765W        W91682  31.096  27.435   4.289  0.1990 -0.1345 -0.2926
48766W        W91683  33.060  25.977   6.290 -0.0012  0.0549 -0.1728
48767W        W91684  29.150  28.877   6.341 -0.0146  0.1768  0.3602
48768W        W91685  32.848  26.688   3.968  0.2721 -0.0231  0.0117
48769W        W91686  30.932  26.846   4.784 -0.2814  0.0827 -0.2532
48770W        W91687  31.570  25.568   4.096 -0.5361 -0.3287 -0.0327
48771W        W91688  34.184  24.938   6.226  0.0930 -0.0817 -0.0464
48772W        W91689  30.608  28.038   5.154 -0.0227  0.3333 -0.1009
48773W        W91690  32.504  25.882   5.041 -0.4083 -0.1036  0.2594
48774W        W91691  27.797  30.508   3.759  0.3551  0.0046 -0.1377
48775W        W91692  30.001  29.312   5.722  0.1138  0.1341  0.0673
48776W        W91693  31.282  30.550   4.325  0.1113  0.2976 -0.2168
48777W        W91694  28.755  27.038   3.644  0.2876  0.0804  0.0511
48778W        W91695  33.093  28.943   1.982 -0.3300  0.2705  0.1071
48779W        W91696  31.489  26.547   4.095 -0.3224  0.1396  0.0975
48780W        W91697  33.942  26.640   5.964 -0.4597  0.0271  0.0033
48781W        W91698  29.720  27.434   5.473  0.3472  0.1786  0.2418
48782W        W91699  30.890  28.961   5.662 -0.0362  0.5104 -0.0774
48783W        W91700  31.744  29.635   5.336 -0.0634 -0.1858 -0.0686
48784W        W91701  29.826  26.637   5.687 -0.0844 -0.0125  0.0678
48785W        W91702  31.764  26.360   2.933  0.0435 -0.0605 -0.0528
48786W        W91703  32.918  27.835   6.120 -0.2917 -0.3543  0.1106
48787W        W91704  31.865  26.646   3.797 -0.0505 -0.0851 -0.0995
48788W        W91705  30.130  30.825   2.899  0.0815 -0.0459 -0.2429
48789W        W91706  30.249  25.807   4.496  0.2449 -0.0905  0.0974
48790W        W91707  31.145  26.004   4.553  0.1068  0.0052  0.1532
48791W        W91708  31.331  26.067   4.063  0.0769  0.1840 -0.2418
48792W        W91709  30.135  26.783   5.257  0.1702 -0.3291 -0.0122
48793W        W91710  32.523  27.277   6.487 -0.4118  0.2065 -0.4652
48794W        W91711  29.050  24.616   4.810  0.1385  0.1169  0.1772
48795W        W91712  33.299  26.539   4.044 -0.2478  0.0434  0.1614
48796W        W91713  32.694  28.192   3.944 -0.3208  0.3350 -0.0465
48797W        W91714  29.405  30.504   3.616  0.0341  0.2218 -0.5095
48798W        W91715  31.787  26.852   6.074 -0.0662  0.2345  0.0811
48799W        W91716  30.995  29.535   4.206  0.0064 -0.0941 -0.1456
48800W        W91717  30.328  25.934   5.699  0.4246  0.1143 -0.1622
48801W        W91718  33.575  30.249   5.174  0.0892  0.0423  0.0835
48802W        W91719  32.603  27.914   4.541 -0.0788  0.0433 -0.2917
48803W        W91720  30.377  25.465   4.107  0.1765 -0.1087  0.2096
48804W        W91721  31.609  27.383   4.626  0.1236 -0.2374  0.0299
48805W        W91722  30.024  30.436   3.867 -0.0056  0.0049 -0.0437
48806W        W91723  31.511  26.967   5.610  0.1580 -0.1016 -0.1459
48807W        W91724  32.892  26.388   5.115  0.1857 -0.0163  0.1267
48808W        W91725  29.933  29.339   3.251 -0.1063  0.0763 -0.0639
48809W        W91726  32.722  23.935   6.560  0.2532 -0.2475 -0.0584
48810W        W91727  31.543  28.575   5.205 -0.2413 -0.1487 -0.0803
48811W        W91728  31.120  30.100   5.743 -0.5024 -0.2693 -0.0416
48812W        W91729  29.264  28.936   5.419 -0.0511 -0.0679  0.2896
48813W        W91730  31.547  27.182   5.087  0.3262  0.2221 -0.2095
48814W        W91731  29.460  28.938   4.977  0.3841  0.0822  0.0579
48815W        W91732  28.989  30.183   5.830  0.0098 -0.1076 -0.1360
48816W        W91733  33.547  28.552   2.862  0.0839 -0.1992 -0.0780
48817W        W91734  29.618  28.941   3.075  0.1441 -0.0438  0.0236
48818W        W91735  34.311  29.809   3.385  0.2605  0.1888  0.0516
48819W        W91736  31.074  27.327   4.867  0.0918  0.1301 -0.2983
48820W        W91737  30.758  25.594   4.566 -0.0650 -0.2016 -0.0193
48821W        W91738  31.856  25.113   4.964 -0.1118  0.0349  0.0233
48822W        W91739  31.659  25.865   4.479  0.0437  0.2944  0.0417
48823W        W91740  28.350  26.999   3.334  0.2504  0.2351  0.1512
48824W        W91741  28.085  28.134   4.363  0.0501  0.4193  0.0614
48825W        W91742  28.146  25.175   5.094 -0.2576  0.1278 -0.2875
48826W        W91743  29.660  26.065   7.257 -0.1332  0.0637  0.0625
48827W        W91744  30.648  25.120   5.890  0.1560 -0.0286  0.0123
48828W        W91745  31.296  26.946   4.401  0.0576 -0.6214 -0.2068
48829W        W91746  29.038  27.815   4.096  0.0901 -0.0670 -0.2788
48830W        W91747  30.707  27.834   4.238 -0.0350 -0.0608  0.0864
48831W        W91748  30.684  25.796   5.302  0.0215  0.0000  0.2360
48832W        W91749  29.896  26.153   4.624 -0.0511  0.1714  0.0894
48833W        W91750  31.837  28.995   4.493  0.1495  0.4685  0.0108
48834W        W91751  32.982  27.627   1.982 -0.1540 -0.2146  0.2385
48835W        W91752  30.070  24.709   4.401 -0.2947  0.2242  0.0767
48836W        W91753  31.011  28.336   4.942 -0.1099  0.2485 -0.1435
48837W        W91754  31.738  27.694   3.698  0.3801  0.1051  0.1013
48838W        W91755  33.340  26.215   5.206 -0.2986 -0.2474  0.1671
48839W        W91756  31.699  25.811   5.393 -0.4619 -0.2629  0.0672
48840W        W91757  28.913  26.312   3.003  0.2510  0.1890  0.0783
48841W        W91758  29.359  28.435   4.679  0.1273  0.0860  0.1405
48842W        W91759  31.343  29.311   5.082  0.0549  0.0555  0.0846
48843W        W91760  31.401  28.036   2.024  0.0958  0.1953 -0.4626
48844W        W91761  29.821  28.119   4.365 -0.3044  0.0717  0.1810
48845W        W91762  30.509  29.454   6.822  0.0879 -0.2661  0.3395
48846W        W91763  31.567  26.339   5.401 -0.3170  0.0709 -0.4303
48847W        W91764  32.098  29.743   3.621  0.0209  0.2369 -0.1130
48848W        W91765  30.955  30.506   5.994 -0.4393 -0.3878 -0.1646
48849W        W91766  32.424  28.192   3.184  0.2090 -0.0731 -0.2430
48850W        W91767  32.349  24.979   4.127  0.1587 -0.3412 -0.1147
48851W        W91768  32.144  27.547   3.442  0.2382  0.0363 -0.1037
48852W        W91769  28.649  24.375   7.019  0.1186  0.0750  0.0747
48853W        W91770  30.200  29.043   6.031 -0.2976  0.0193 -0.2205
48854W        W91771  31.262  29.695   5.399  0.1117 -0.0937  0.0076
48855W        W91772  29.594  23.813   4.120 -0.1223  0.1085 -0.2234
48856W        W91773  33.261  25.498   5.567 -0.4335  0.0306  0.0655
48857W        W91774  30.864  27.971   3.316 -0.4796 -0.1641 -0.0920
48858W        W91775  29.178  27.520   5.289  0.1968 -0.0029  0.0212
48859W        W91776  30.103  27.870   5.224 -0.1987 -0.1717 -0.1879
48860W        W91777  31.384  26.517   5.916  0.0975  0.1528 -0.1273
48861W        W91778  31.766  27.571   4.208 -0.2597  0.0494  0.1598
48862W        W91779  30.912  28.248   5.495 -0.0070 -0.1192  0.2033
48863W        W91780  31.089  28.791   5.160 -0.2312 -0.0615 -0.0279
48864W        W91781  33.103  26.593   2.969 -0.0166 -0.4006 -0.1469
48865W        W91782  31.825  29.691   6.239  0.0030  0.1416 -0.2530
48866W        W91783  31.628  30.239   5.328 -0.2157 -0.2560  0.2309
48867W        W91784  30.674  28.791   7.291  0.1449 -0.0063 -0.2345
48868W        W91785  33.117  28.303   2.725  0.3689  0.3666  0.2071
48869W        W91786  29.026  23.898   6.328 -0.1454  0.0456 -0.2649
48870W        W91787  30.607  27.255   2.954 -0.0225  0.1963 -0.1566
48871W        W91788  32.616  28.865   3.955  0.6481 -0.0015 -0.1812
48872W        W91789  33.742  25.471   5.813  0.2261 -0.2112 -0.0781
48873W        W91790  32.220  27.329   6.056 -0.1672 -0.0363 -0.3110
48874W        W91791  31.063  25.604   4.112  0.2091 -0.4157 -0.1947
48875W        W91792  31.101  30.152   5.214  0.0536 -0.1623 -0.0129
48876W        W91793  33.783  26.129   4.340  0.3670  0.2486  0.0638
48877W        W91794  29.799  27.235   8.225 -0.2833  0.1654  0.1238
48878W        W91795  31.050  26.829   6.808 -0.0843  0.0683 -0.1449
48879W        W91796  33.295  27.099   6.467 -0.1176 -0.0883  0.0127
48880W        W91797  33.691  27.971   7.461 -0.0218 -0.0356  0.0604
48881W        W91798  29.563  25.628   8.970  0.0997  0.0075 -0.0661
48882W        W91799  33.554  28.862   6.668 -0.1018  0.0730  0.2448
48883W        W91800  32.199  27.308   8.252  0.0594 -0.0388 -0.0787
48884W        W91801  33.711  28.922   9.174  0.2843 -0.0918  0.3873
48885W        W91802  32.838  30.062   6.160  0.0237  0.1259 -0.0872
48886W        W91803  32.059  26.436   7.633 -0.0019 -0.0134  0.1237
48887W        W91804  31.265  28.035   9.025 -0.0033  0.2403 -0.3076
48888W        W91805  32.281  24.207   8.781  0.0917  0.3458 -0.1824
48889W        W91806  32.508  26.899   7.987  0.0252  0.2818  0.0403
48890W        W91807  31.216  28.245   6.770 -0.2749  0.1509  0.3769
48891W        W91808  31.992  28.175   7.666 -0.2460 -0.0813 -0.0874
48892W        W91809  32.070  27.062   6.973 -0.1956  0.0939  0.1456
48893W        W91810  30.409  29.182   8.482  0.1588 -0.3490  0.3434
48894W        W91811  30.866  26.353   8.214 -0.1298 -0.2868 -0.0487
48895W        W91812  30.227  27.722   7.475 -0.3271 -0.1419 -0.1661
48896W        W91813  30.230  28.538   7.002 -0.4087 -0.2750  0.1160
48897W        W91814  30.510  25.939   8.410 -0.0272  0.4599  0.1119
48898W        W91815  33.470  24.575   9.850  0.2877 -0.1639 -0.3261
48899W        W91816  32.820  25.676   8.573 -0.1170 -0.0914  0.2909
48900W        W91817  32.125  27.938   7.097 -0.2215  0.2162  0.1919
48901W        W91818  31.247  30.928   7.535  0.2125 -0.2569  0.0531
48902W        W91819  31.510  29.558   7.955  0.2474  0.2000  0.0229
48903W        W91820  30.140  26.573   7.018  0.0847 -0.2370  0.1781
48904W        W91821  31.289  26.291   6.862 -0.1747  0.0535  0.3761
48905W        W91822  32.320  29.086   5.385 -0.2158 -0.1190  0.2453
48906W        W91823  32.839  27.645   6.657  0.0321 -0.3841  0.1302
48907W        W91824  31.732  28.300   6.066  0.1162  0.0424 -0.1149
48908W        W91825  34.156  25.543   7.945  0.1521  0.0101 -0.2418
48909W        W91826  33.145  28.995   8.909 -0.1822 -0.0555  0.3023
48910W        W91827  31.016  29.678   4.910 -0.0872 -0.0238 -0.5654
48911W        W91828  31.141  26.896   6.173 -0.1070 -0.2094  0.1472
48912W        W91829  30.707  28.876   8.764  0.3308 -0.1573  0.0276
48913W        W91830  32.345  28.170   5.472  0.0251 -0.1755 -0.1920
48914W        W91831  31.563  27.237   7.190 -0.1211 -0.1498  0.4948
48915W        W91832  32.534  26.569   5.874 -0.0727 -0.2129  0.0646
48916W        W91833  30.880  25.758   8.168  0.2369 -0.1347 -0.1688
48917W        W91834  30.838  23.029   9.318 -0.0451 -0.0164 -0.1985
48918W        W91835  30.477  28.324   9.242 -0.0571  0.4648  0.1910
48919W        W91836  33.370  25.713   9.653 -0.0448 -0.1453 -0.0388
48920W        W91837  31.098  28.188   7.280  0.0112  0.0444 -0.2077
48921W        W91838  32.345  28.904   7.638 -0.0749 -0.1099  0.2606
48922W        W91839  30.816  27.714   7.920 -0.1148  0.2237 -0.4040
48923W        W91840  30.336  28.038   7.818 -0.0995 -0.1968  0.1129
48924W        W91841  33.438  29.648   6.934 -0.1971  0.0382  0.1178
48925W        W91842  33.189  30.611   7.371 -0.2367  0.2694  0.0494
48926W        W91843  32.929  28.413   6.890  0.1830 -0.0557 -0.4526
48927W        W91844  30.185  26.722   6.229  0.1651 -0.2955  0.1283
48928W        W91845  30.182  25.222   7.732  0.1100  0.1904  0.0801
48929W        W91846  34.120  24.952   6.940 -0.2939  0.1935  0.0908
48930W        W91847  31.439  29.998   8.383 -0.1386  0.0590 -0.0628
48931W        W91848  33.446  28.070   6.162  0.0827  0.1108 -0.0755
48932W        W91849  32.606  26.476   6.325 -0.2967 -0.2556 -0.3940
48933W        W91850  32.535  25.078   7.959  0.1423  0.0115 -0.1260
48934W        W91851   1.480  30.302  10.258  0.1862 -0.1573  0.1750
48935W        W91852  31.884  26.821   5.187  0.3373 -0.0504  0.0100
48936W        W91853  30.787  27.154   5.917  0.2475 -0.3991 -0.1506
48937W        W91854  33.274  28.121   7.702 -0.0856 -0.1989  0.0459
48938W        W91855  32.456  27.732   5.121  0.1818 -0.0466 -0.0724
48939W        W91856  30.432  27.613   6.666 -0.2885 -0.0776 -0.0569
48940W        W91857  29.126  30.983   6.068  0.3226  0.1523  0.1651
48941W        W91858  33.019  26.115   9.482 -0.3011 -0.1539 -0.0903
48942W        W91859  29.512  27.031   6.633 -0.0260  0.0751  0.0888
48943W        W91860  31.623  29.527   8.464  0.1217  0.2209 -0.1553
48944W        W91861  29.623  28.280   7.975 -0.3127 -0.3206 -0.2633
48945W        W91862  34.153  27.115   8.085 -0.0816 -0.0555  0.0933
48946W        W91863  32.629  26.361   8.112 -0.0132  0.0297  0.3661
48947W        W91864  33.177  27.079   5.845 -0.2050 -0.2568 -0.2503
48948W        W91865  33.574  27.819   5.789 -0.0678  0.2710  0.1380
48949W        W91866  33.618  27.063   7.098 -0.0538 -0.0506 -0.1242
48950W        W91867  31.874  28.717   6.847  0.3743 -0.2191 -0.0864
48951W        W91868  31.555  27.007   7.946 -0.0229 -0.2053 -0.0943
48952W        W91869  30.578  25.202   8.860  0.0902 -0.2185  0.0158
48953W        W91870  32.646  27.652   8.209 -0.0894  0.1063 -0.0326
48954W        W91871  29.608  25.405   5.862 -0.1453  0.1294  0.0252
48955W        W91872  31.478  27.404   7.654 -0.1841 -0.0002  0.1341
48956W        W91873  30.475  27.916   5.606  0.2112 -0.1527 -0.1239
48957W        W91874  29.607  26.164   9.117 -0.0936  0.1553 -0.0589
48958W        W91875  33.933  29.543   4.759 -0.0854  0.0448 -0.2044
48959W        W91876  33.430  30.239   8.154 -0.0895  0.4811  0.4412
48960W        W91877  33.305  30.123   7.571 -0.1556 -0.0872  0.1384
48961W        W91878  33.417  25.965   9.224 -0.3044  0.0751 -0.0283
48962W        W91879  28.925  26.505   6.253  0.0781  0.0990  0.2425
48963W        W91880  31.575  26.560   8.917 -0.0354  0.1493  0.0370
48964W        W91881  31.301  27.827   7.012 -0.1636 -0.1723  0.0975
48965W        W91882  31.759  26.864   8.398 -0.1806  0.5326 -0.1614
48966W        W91883  34.400  29.464   8.699 -0.2054 -0.4287 -0.0297
48967W        W91884  30.540  29.262   5.648  0.0966  0.1347 -0.1653
48968W        W91885  31.283  28.110   8.184  0.2907 -0.1403 -0.0009
48969W        W91886  32.436  26.632   8.947 -0.1880 -0.1173  0.1683
48970W        W91887  30.776  26.082   6.813 -0.1967  0.2628  0.2673
48971W        W91888  32.548  27.959   7.730 -0.3387  0.0334 -0.0165
48972W        W91889  29.135  28.303   6.427  0.1831 -0.0393  0.0616
48973W        W91890  29.446  25.824   6.824 -0.0366  0.0172 -0.0548
48974W        W91891  32.133  28.408   9.304 -0.0949 -0.3375 -0.0752
48975W        W91892   0.949  24.728   9.255 -0.1893 -0.3709  0.2114
48976W        W91893  29.217  22.566   9.476  0.3586  0.3864  0.1018
48977W        W91894  32.683  25.203   9.788  0.0666  0.1073 -0.0847
48978W        W91895  33.476  27.040   7.655  0.1232 -0.1724 -0.2016
48979W        W91896  30.522  28.285   7.367  0.1998 -0.4131  0.2498
48980W        W91897  33.021  26.502   7.279 -0.1231 -0.0909  0.0483
48981W        W91898  29.971  27.625   8.993 -0.0429 -0.1583 -0.0263
48982W        W91899  29.664  30.255   8.754 -0.0302  0.0159 -0.0872
48983W        W91900  30.926  25.663   7.640 -0.1385  0.1213 -0.0671
48984W        W91901  34.373  28.501   8.478  0.1386 -0.0604 -0.4434
48985W        W91902  27.950  27.596   8.383 -0.0970 -0.1041 -0.1377
48986W        W91903  33.171  29.335   6.587 -0.0900 -0.0271 -0.0184
48987W        W91904  31.463  26.459   7.611  0.0226 -0.0693  0.1627
48988W        W91905  30.655  26.991   8.880 -0.0650  0.1342  0.1553
48989W        W91906  30.159  24.783   8.166 -0.1085 -0.0705  0.0314
48990W        W91907  30.362  28.149   6.053  0.0599 -0.2415  0.0298
48991W        W91908  34.215  26.637   7.807  0.1318 -0.2393 -0.1863
48992W        W91909  31.988  26.424   9.229  0.1526 -0.0271  0.0005
48993W        W91910  32.638  26.385   6.919  0.0200 -0.3292 -0.0872
48994W        W91911  31.666  27.272   8.672 -0.5526 -0.1508 -0.1795
48995W        W91912  31.430  27.914   5.802 -0.0787 -0.1533 -0.0782
48996W        W91913  32.255  26.125   8.783  0.0541 -0.1977  0.3916
48997W        W91914  30.441  30.588   9.037 -0.1933 -0.0288 -0.0151
48998W        W91915  33.487  29.052   7.465 -0.2599 -0.2411  0.1822
48999W        W91916  30.459  24.530   7.791  0.2007 -0.1529  0.0823
49000W        W91917  31.450  28.320   7.717 -0.0084 -0.2221 -0.0253
49001W        W91918  30.505  27.652   6.128  0.1385  0.2063 -0.1348
49002W        W91919  31.248  26.897   7.535 -0.0149 -0.1239  0.2321
49003W        W91920  30.217  28.117   8.321 -0.0050 -0.0163  0.1258
49004W        W91921  31.401  29.114   5.517  0.0432 -0.2562 -0.2758
49005W        W91922  34.562  28.556   9.140 -0.1735 -0.2604 -0.2661
49006W        W91923  29.373  29.387   8.968  0.3471 -0.0336  0.1925
49007W        W91924  33.791  26.804   7.965  0.1300  0.0754  0.0427
49008W        W91925  31.080  28.605   7.515  0.1139 -0.1677 -0.2060
49009W        W91926  32.246  26.943   5.728  0.0759  0.0153  0.1830
49010W        W91927  31.104  27.413   7.294  0.0485  0.0268 -0.1185
49011W        W91928  34.061  25.081   9.445  0.1768  0.4864 -0.1290
49012W        W91929  32.660  28.009   6.949  0.1307 -0.0585 -0.1502
49013W        W91930  33.087  29.790   8.976  0.3160  0.3942 -0.0015
49014W        W91931  32.518  27.805   8.983  0.1043 -0.0030  0.0479
49015W        W91932  33.784  28.179   9.210 -0.0479  0.1128 -0.4068
49016W        W91933  34.028  27.323   6.342 -0.1513 -0.0650  0.1066
49017W        W91934  29.533  23.617   7.952 -0.1870 -0.3655 -0.0993
49018W        W91935  31.890  26.406   8.529 -0.0268 -0.1533 -0.2060
49019W        W91936  33.222  25.969   8.684 -0.0658 -0.0317  0.2267
49020W        W91937  29.490  29.159   6.655  0.1256  0.3584  0.0333
49021W        W91938  34.161  28.562   5.842  0.2954  0.1275 -0.0998
49022W        W91939  32.132  28.025   5.927  0.1426  0.2576 -0.1665
49023W        W91940  29.616  28.115   7.144 -0.0857 -0.0410 -0.1226
49024W        W91941  32.708  28.463   7.735 -0.1810 -0.0505 -0.2909
49025W        W91942  31.777  27.731   7.356 -0.3226 -0.0202  0.2218
49026W        W91943  33.192  27.097   8.569 -0.2547  0.2919 -0.2625
49027W        W91944  34.466  26.506   7.391 -0.0938 -0.2383  0.2937
49028W        W91945  31.242  27.824   7.579 -0.0420 -0.2105  0.0621
49029W        W91946  33.909  26.406   7.497  0.0902  0.2161 -0.0681
49030W        W91947  29.110  24.289   8.817 -0.3287  0.2035 -0.1146
49031W        W91948  33.961  29.434   9.016  0.1581 -0.0484  0.2009
49032W        W91949  29.673  29.671   6.008 -0.4316 -0.2308  0.0626
49033W        W91950  32.493  26.264   9.302 -0.1890  0.2212 -0.2102
49034W        W91951  31.513  27.865   6.432  0.2259  0.1256  0.0321
49035W        W91952  33.086  27.286   7.488 -0.4402 -0.1816 -0.2013
49036W        W91953  30.257  28.814   7.562  0.0275  0.0266 -0.3716
49037W        W91954  32.146  28.583   6.394 -0.0112 -0.1255 -0.3353
49038W        W91955  30.770  29.851   8.377 -0.0709 -0.0601 -0.2940
49039W        W91956  32.659  25.599   7.980 -0.3751 -0.0185 -0.3125
49040W        W91957  32.320  28.926   4.947 -0.2084  0.2632  0.2912
49041W        W91958  31.564  25.561   7.451  0.0126 -0.0799 -0.1922
49042W        W91959  31.789  26.878   7.510 -0.2171 -0.1703  0.0403
49043W        W91960  32.766  27.638   7.303 -0.0340 -0.0304 -0.1336
49044W        W91961  33.378  28.926   7.935 -0.3675 -0.5177  0.1726
49045W        W91962  30.940  24.601   7.040 -0.2738  0.0698 -0.2249
49046W        W91963  32.154  25.928   6.723 -0.1679 -0.2513  0.1074
49047W        W91964  33.093  27.213   7.970  0.0363 -0.0855  0.0084
49048W        W91965  32.444  25.142   8.496 -0.2373  0.2029  0.2047
49049W        W91966  31.800  28.271   5.581  0.1797 -0.0065  0.0160
49050W        W91967  32.352  28.110   6.469  0.1297  0.2661  0.1812
49051W        W91968  33.444  26.615   6.911 -0.2131  0.2119 -0.1574
49052W        W91969  33.918  28.190   6.036 -0.0304  0.0102  0.2456
49053W        W91970  32.575  28.206   6.011  0.1647 -0.0128 -0.0305
49054W        W91971  32.626  27.272   6.971 -0.1081  0.1865 -0.2745
49055W        W91972  33.971  28.156   8.477  0.0174 -0.0958  0.0761
49056W        W91973  31.355  26.401   8.404 -0.1423  0.1371  0.0914
49057W        W91974  31.474  28.364   8.679 -0.0325  0.0758 -0.1276
49058W        W91975  32.219  25.737   4.526  0.0214 -0.2214  0.0600
49059W        W91976  33.046  26.756   7.729  0.1723  0.0117  0.0267
49060W        W91977  33.976  26.917   7.432 -0.0835  0.3579  0.1360
49061W        W91978  31.096  25.548   7.235 -0.0249  0.1026 -0.1109
49062W        W91979  29.992  24.423   9.217 -0.1838 -0.0639  0.1235
49063W        W91980  30.039  26.136   8.419 -0.1245 -0.0399 -0.2773
49064W        W91981  30.601  27.470   5.146 -0.0334 -0.2548 -0.2231
49065W        W91982  32.919  28.124   7.376  0.2695  0.1998  0.0101
49066W        W91983  31.187  27.327   6.790 -0.0434  0.2512  0.1000
49067W        W91984  30.812  24.827   9.196  0.3403 -0.0490 -0.0902
49068W        W91985  32.194  26.428   6.650 -0.2120 -0.2975 -0.1074
49069W        W91986  31.108  26.597   5.439  0.0869  0.2459 -0.1623
49070W        W91987  30.827  27.266   9.286 -0.1208 -0.0265 -0.0635
49071W        W91988  32.623  26.011   7.725  0.1706 -0.0320  0.0978
49072W        W91989  29.758  27.210   8.717 -0.1185  0.3265 -0.1351
49073W        W91990  30.075  28.452   7.984 -0.2566  0.2062 -0.2223
49074W        W91991  31.861  30.310   9.382 -0.2305  0.1238 -0.0627
49075W        W91992  29.774  28.891   8.702  0.0560  0.2298 -0.1304
49076W        W91993  33.401  24.929   8.298 -0.1927  0.2624  0.1823
49077W        W91994  33.254  27.771   7.343 -0.0400  0.1311 -0.0368
49078W        W91995  31.642  28.237   7.161 -0.0257 -0.2227 -0.3776
49079W        W91996  31.052  27.951   8.591 -0.1051  0.1644 -0.1484
49080W        W91997  34.291  25.797   6.368  0.0306 -0.0531  0.0812
49081W        W91998  31.749  27.587   6.850 -0.0706 -0.0076 -0.2769
49082W        W91999  32.777  28.957   7.834  0.1549 -0.0570 -0.1011
49083W        W92000  30.089  25.755   8.036  0.0446  0.0992 -0.0847
49084W        W92001  30.804  28.248   6.389 -0.2314 -0.0063 -0.0204
49085W        W92002  33.218  26.450   8.515 -0.0723  0.0037  0.1406
49086W        W92003  28.425  27.876   6.300  0.2697  0.1033  0.1647
49087W        W92004  31.797  28.826   5.988 -0.2180  0.1793  0.2930
49088W        W92005  32.906  27.367   6.139  0.1435 -0.0978 -0.0473
49089W        W92006  33.554  25.954   8.255 -0.0007  0.2798 -0.1829
49090W        W92007  31.843  27.215   6.484  0.0575  0.2373  0.3984
49091W        W92008  30.579  27.291   7.645 -0.0002  0.1396  0.1549
49092W        W92009  28.779  28.002   6.616  0.0351  0.1933  0.2505
49093W        W92010  31.264  28.246   6.190  0.0585  0.0224  0.0311
49094W        W92011  31.272  27.458   6.065  0.2707  0.0350 -0.3048
49095W        W92012  32.007  27.768   6.362 -0.1487 -0.1478  0.4279
49096W        W92013  32.543  28.504   8.453  0.1548  0.0153 -0.2826
49097W        W92014  31.770  26.247   7.135 -0.0760 -0.1618 -0.2201
49098W        W92015  33.260  26.466   9.088 -0.1728 -0.0254  0.1407
49099W        W92016  31.166  25.363   6.733  0.1892 -0.1045  0.0947
49100W        W92017  33.538  28.383   5.730 -0.1160  0.0462 -0.2331
49101W        W92018  29.225  24.762   7.456 -0.1141 -0.2635 -0.2230
49102W        W92019  31.657  28.189   9.329 -0.1218 -0.1684  0.1219
49103W        W92020  33.021  27.724   7.826  0.1471 -0.1861  0.0070
49104W        W92021  31.950  27.225   5.467 -0.0377  0.0718 -0.2611
49105W        W92022  32.048  26.827   7.999  0.0425  0.4328 -0.2099
49106W        W92023  30.314  28.114   6.618  0.0322  0.0052  0.2989
49107W        W92024  30.908  29.123   9.110 -0.0307 -0.0311  0.2658
49108W        W92025  31.587  28.672   8.301 -0.2254 -0.0846 -0.0709
49109W        W92026  30.067  25.314   8.203  0.0539  0.2195  0.1047
49110W        W92027  33.466  26.592   7.542 -0.0627  0.2823  0.1457
49111W        W92028  31.102  27.238   7.869 -0.0871  0.0055  0.3279
49112W        W92029  30.653  27.435   7.105  0.1037  0.0458  0.2684
49113W        W92030  33.052  26.242   7.807 -0.1114 -0.3335 -0.0479
49114W        W92031  32.361  26.632   8.428 -0.1457  0.0720 -0.2469
49115W        W92032  30.790  27.444   8.653  0.1641 -0.1194  0.0611
49116W        W92033  31.272  23.966   8.952  0.3275 -0.0486 -0.0103
49117W        W92034  33.842  27.728   5.348  0.1435 -0.2103 -0.5665
49118W        W92035  30.585  24.982   8.029  0.1885  0.2854  0.0110
49119W        W92036  31.499  23.898   9.437 -0.0526 -0.1430 -0.1656
49120W        W92037  30.234  26.148   7.232 -0.0126 -0.0156  0.2379
49121W        W92038  31.797  28.658   8.913 -0.4985 -0.2564  0.2634
49122W        W92039  31.438  25.544   9.554  0.0158 -0.2947 -0.1012
49123W        W92040  32.140  28.561   5.247 -0.1308  0.2264 -0.0544
49124W        W92041  33.472  27.512   7.780  0.1044 -0.1061  0.0840
49125W        W92042  31.242  28.923   6.024  0.1781 -0.2614  0.1339
49126W        W92043  32.876  28.128   8.131 -0.2971  0.1956  0.0613
49127W        W92044  31.982  28.656   7.894  0.3929  0.0912  0.1181
49128W        W92045  29.350  28.486   8.345 -0.0922  0.1609 -0.0115
49129W        W92046  32.263  29.907   8.614  0.0789 -0.0650  0.1216
49130W        W92047  33.043  26.816   9.718 -0.2235  0.0276  0.1296
49131W        W92048  31.667  26.511   8.060 -0.0123  0.2906 -0.0758
49132W        W92049  31.054  26.219   7.757  0.3066  0.1959 -0.2556
49133W        W92050  30.755  29.319   7.324 -0.1149  0.1792 -0.2716
49134W        W92051  32.809  26.887   9.243  0.3161 -0.0040  0.3026
49135W        W92052  30.958  29.851   6.135  0.0628 -0.0094 -0.0023
49136W        W92053  29.466  27.403   9.090 -0.0693 -0.1041  0.0340
49137W        W92054  30.378  27.000   6.761 -0.2034  0.0604 -0.0690
49138W        W92055  31.312  29.040   8.116 -0.0334  0.1094 -0.1793
49139W        W92056  32.273  29.028   5.934 -0.3950  0.2058 -0.1394
49140W        W92057  33.974  29.057   6.911  0.1074 -0.1274 -0.0373
49141W        W92058  31.953  27.304   7.765  0.0091  0.0418  0.0179
49142W        W92059  33.657  28.668   7.180  0.0351  0.0899  0.0352
49143W        W92060  31.040  24.997   8.756 -0.0046 -0.1087  0.0090
49144W        W92061  31.207  26.965   8.972 -0.3602  0.2929 -0.2676
49145W        W92062  32.529  24.162   6.973  0.1634  0.2467 -0.0004
49146W        W92063  32.346  28.014   8.421 -0.0517  0.1951 -0.1113
49147W        W92064  30.673  25.827   7.289 -0.0623  0.1354 -0.2212
49148W        W92065  31.731  27.032   4.078 -0.1264 -0.1570 -0.0197
49149W        W92066  30.933  28.522   8.464  0.0204 -0.0305  0.2066
49150W        W92067  29.189  27.832   9.118 -0.0796  0.2160  0.1895
49151W        W92068  29.693  26.422   6.892 -0.0633  0.3651 -0.0040
49152W        W92069  33.997  28.609   6.370  0.1143  0.0653  0.0714
49153W        W92070  28.545  26.294   8.182 -0.0577  0.0881 -0.5083
49154W        W92071  28.905  25.933   6.971  0.0763  0.0864 -0.1675
49155W        W92072  32.442  29.839   6.884 -0.1430 -0.0038  0.2342
49156W        W92073  33.874  28.980   5.978 -0.3057 -0.2806  0.1169
49157W        W92074  30.917  28.368   8.956 -0.0894  0.1331 -0.0460
49158W        W92075  30.925  28.534   5.934  0.0335 -0.0782  0.0446
49159W        W92076  28.798  27.221   7.489  0.1330 -0.1927 -0.2054
49160W        W92077  32.581  24.300   8.402 -0.0218  0.0330  0.2223
49161W        W92078  32.117  29.843   9.106  0.1328 -0.1668 -0.0405
49162W        W92079  33.840  28.874   5.501 -0.2575 -0.2168 -0.1370
49163W        W92080  33.517  24.850   6.968  0.2117 -0.1458 -0.2593
49164W        W92081  33.017  26.860   6.827 -0.2332  0.0946  0.1737
49165W        W92082  32.759  29.091   6.923 -0.2775 -0.0225 -0.0579
49166W        W92083  34.394  26.186   6.684 -0.1668  0.1910 -0.1260
49167W        W92084  33.196  27.297   7.036 -0.2942  0.0509 -0.1902
49168W        W92085   0.328  26.744   9.432 -0.0274 -0.1196 -0.2611
49169W        W92086  30.603  26.066   7.888  0.1971 -0.2573  0.0940
49170W        W92087  30.808  26.853   7.764  0.1199  0.2851 -0.1148
49171W        W92088  32.517  27.711   6.256 -0.3239  0.2435 -0.4152
49172W        W92089  33.567  27.244   8.189  0.0498 -0.1081 -0.2933
49173W        W92090  32.223  26.632   7.094  0.1699 -0.0948 -0.3011
49174W        W92091  31.941  29.940   8.273  0.4272  0.1378 -0.0149
49175W        W92092  30.851  27.867   6.921  0.0579  0.1900 -0.3803
49176W        W92093  31.819  27.798   5.475  0.0903 -0.2405  0.0596
49177W        W92094  29.445  28.870   9.098  0.2539 -0.1286 -0.2263
49178W        W92095   3.555  27.184  10.360  0.0021 -0.0324 -0.0917
49179W        W92096  33.814  26.618   8.981  0.1165 -0.2425 -0.0788
49180W        W92097  30.371  24.665   8.899 -0.0279  0.0446  0.1601
49181W        W92098  30.293  27.494   8.024 -0.0428  0.2190  0.0786
49182W        W92099  30.801  27.271   6.408  0.1259 -0.1427 -0.1715
49183W        W92100   0.442  25.857   9.499 -0.0261  0.1243 -0.2352
49184W        W92101  30.536  27.074   5.473 -0.1301  0.1880 -0.2546
49185W        W92102  31.246  25.307   7.765  0.0201  0.2377 -0.1123
49186W        W92103  31.375  30.260   9.147  0.3650 -0.0248 -0.4263
49187W        W92104  33.477  28.505   8.161 -0.2098  0.0868 -0.2892
49188W        W92105  29.684  31.045   1.836 -0.0181  0.0698  0.0250
49189W        W92106  28.582  30.369   2.073 -0.1444  0.0420  0.0214
49190W        W92107  32.196  29.972   0.329 -0.0815  0.1628 -0.0459
49191W        W92108  32.221  30.337   0.787 -0.1729  0.1242 -0.1476
49192W        W92109  31.683  28.741   1.827  0.2499 -0.0997 -0.1000
49193W        W92110  33.105  31.744   1.243  0.0573  0.0479 -0.0505
49194W        W92111  29.960  30.875   2.200  0.0894 -0.0462  0.1162
49195W        W92112  30.581  31.368   2.051 -0.2136  0.0404 -0.0781
49196W        W92113  34.096  32.681   1.711  0.0832 -0.2547 -0.1451
49197W        W92114  31.317  31.095   1.617 -0.1379 -0.2390 -0.3035
49198W        W92115  30.772  30.121   1.683 -0.0703 -0.1880 -0.3408
49199W        W92116  31.230  30.699   1.978  0.0187 -0.0926  0.0436
49200W        W92117  28.451  29.276   0.940  0.1956  0.0207  0.1118
49201W        W92118  27.845  31.788   0.359  0.1409 -0.4055 -0.0837
49202W        W92119  30.483  29.541   3.116 -0.1840 -0.2337 -0.2344
49203W        W92120  29.103  31.392   1.084  0.0979  0.0903 -0.3419
49204W        W92121  28.494  31.906   2.380 -0.1037 -0.1061 -0.1260
49205W        W92122  30.949  28.922   0.117 -0.0687 -0.0150 -0.1796
49206W        W92123  31.364  33.399   0.622  0.0296  0.1270 -0.0254
49207W        W92124  30.464  29.285   3.518 -0.1831 -0.0753  0.0732
49208W        W92125  30.788  28.998   3.039 -0.2704 -0.0242  0.0579
49209W        W92126  31.746  31.584  30.525  0.0598 -0.0802 -0.1182
49210W        W92127  27.690  31.449  31.575  0.0672  0.1108  0.1801
49211W        W92128  28.370  31.676   2.804  0.3445 -0.1927  0.0089
49212W        W92129  29.132  30.523   2.147  0.0011 -0.2329 -0.1348
49213W        W92130  30.469  28.211   1.291 -0.0202 -0.0272 -0.0382
49214W        W92131  33.501  29.862   0.775 -0.3045 -0.4711  0.0250
49215W        W92132  30.888  34.192   0.438  0.0318  0.1769 -0.1955
49216W        W92133  30.629  32.080   2.662  0.1853  0.0664 -0.0292
49217W        W92134  31.868  30.916   3.873  0.2178 -0.2658 -0.1276
49218W        W92135  27.263  32.990   0.325  0.2006 -0.1212  0.2000
49219W        W92136  29.016  33.280   0.673  0.0879  0.1918  0.3028
49220W        W92137  31.253  33.344  31.022  0.1431 -0.0729  0.3807
49221W        W92138  32.392  31.512   0.107  0.0500  0.1024  0.1006
49222W        W92139  32.878  31.163   2.790  0.3015 -0.1102  0.1487
49223W        W92140  30.565  33.650   2.833  0.1768 -0.1923 -0.0013
49224W        W92141  31.428  32.431  30.390  0.0165  0.1279  0.2972
49225W        W92142  31.322  33.766   1.833 -0.1385 -0.2949 -0.1237
49226W        W92143  31.613  31.100   3.074  0.0698 -0.1533 -0.0659
49227W        W92144  31.868  31.658   2.106 -0.0927  0.1199 -0.0279
49228W        W92145  31.300  31.015   1.052 -0.1148  0.2573  0.0129
49229W        W92146  29.806  33.021   0.905  0.1098 -0.4407  0.1150
49230W        W92147  31.259  31.504   1.254  0.2777  0.1064 -0.3042
49231W        W92148  32.972  32.049   2.746 -0.1300  0.0636 -0.1600
49232W        W92149  29.053  31.980   3.838 -0.1322  0.0206  0.1245
49233W        W92150  31.837  29.704   0.511 -0.1750 -0.0959  0.1112
49234W        W92151  29.087  33.195  31.646  0.2118 -0.0574 -0.2789
49235W        W92152  29.710  30.312  30.538 -0.1418 -0.0461 -0.1830
49236W        W92153  31.095  30.630   1.381 -0.0441  0.0859 -0.2574
49237W        W92154  30.889  31.054   0.741 -0.0795  0.0611 -0.0501
49238W        W92155  30.539  29.100  31.811 -0.3019  0.1007  0.0842
49239W        W92156  28.377  31.801   1.894  0.0730 -0.3082 -0.0566
49240W        W92157  29.681  31.618   1.846  0.0016 -0.0497  0.2783
49241W        W92158  32.338  31.647   2.904 -0.0317  0.3286 -0.3614
49242W        W92159  31.551  29.183   1.597  0.1779  0.2378  0.1999
49243W        W92160  31.284  30.188   2.719  0.1056  0.1025 -0.2295
49244W        W92161  30.118  33.175   1.306  0.1088 -0.2380 -0.0720
49245W        W92162  29.398  30.993   0.937 -0.0631 -0.0526  0.0135
49246W        W92163  30.773  31.255  31.861  0.2800  0.0160 -0.1563
49247W        W92164  31.860  33.505   1.344  0.1174 -0.0492 -0.1294
49248W        W92165  31.136  31.462  31.044  0.4260 -0.0632 -0.2353
49249W        W92166  31.958  32.384  30.107 -0.3236  0.0197  0.4055
49250W        W92167  30.245  31.623   3.232 -0.0986  0.0255 -0.2219
49251W        W92168  29.539  32.405   1.885  0.2265 -0.1591 -0.1240
49252W        W92169  30.650  27.999   0.623  0.0613  0.0694  0.1754
49253W        W92170  32.915  31.633   3.067  0.0099  0.2155  0.2781
49254W        W92171  29.470  33.188   2.421 -0.1186  0.0950  0.2512
49255W        W92172  32.325  28.844   0.606  0.0305  0.1432  0.0064
49256W        W92173  31.301  32.218   0.970  0.0109  0.0334  0.0563
49257W        W92174  32.237  31.380   0.797  0.0484 -0.0445  0.0588
49258W        W92175  30.258  31.463  30.052 -0.0424  0.1098 -0.3010
49259W        W92176  32.300  29.402   0.204 -0.1643 -0.1120 -0.3758
49260W        W92177  31.404  29.271   2.587  0.0054 -0.0629 -0.2284
49261W        W92178  30.700  29.186   1.026  0.1894  0.2195  0.3183
49262W        W92179  29.547  30.709  31.344 -0.0515 -0.0062 -0.0835
49263W        W92180  31.395  32.036   2.928  0.1736  0.3334  0.1126
49264W        W92181  29.479  31.965  31.135  0.1718 -0.1584  0.1282
49265W        W92182  28.055  32.361   2.290 -0.0894 -0.1366 -0.2291
49266W        W92183  29.205  30.421   1.445 -0.1635 -0.3331 -0.2036
49267W        W92184  32.497  32.906   2.556  0.0358  0.4976  0.4669
49268W        W92185  31.348  32.975  30.463 -0.0092  0.1248 -0.0178
49269W        W92186  28.341  32.188   1.567  0.0189 -0.4549  0.2005
49270W        W92187  29.273  32.398   0.184  0.0883  0.4027 -0.3401
49271W        W92188  29.265  29.232   0.509 -0.0675 -0.1038 -0.2045
49272W        W92189  31.329  31.722   2.067 -0.0320  0.1536 -0.1724
49273W        W92190  32.723  29.174   0.638 -0.2522  0.0471  0.1317
49274W        W92191  29.983  29.770   1.433 -0.3355  0.1844  0.2185
49275W        W92192  32.738  27.907   2.790  0.0704 -0.4862 -0.2551
49276W        W92193  27.873  33.210   1.283  0.1007 -0.1575 -0.4038
49277W        W92194  32.824  33.166   1.414 -0.0481 -0.0243 -0.0460
49278W        W92195  31.831  30.851   1.177  0.2211  0.2211  0.0458
49279W        W92196  32.798  31.345  31.578 -0.2359  0.1610  0.0796
49280W        W92197  30.051  32.804   1.680  0.3393 -0.2031  0.1380
49281W        W92198  29.164  31.127  31.579 -0.1256 -0.0862  0.3166
49282W        W92199  28.296  29.092   2.030  0.1767  0.0067  0.0596
49283W        W92200  29.369  29.590   0.898 -0.1290  0.1714 -0.1043
49284W        W92201  30.677  28.707   4.198 -0.0267  0.1250  0.0136
49285W        W92202  29.380  31.400   0.032 -0.1702 -0.0355 -0.3100
49286W        W92203  32.286  30.494   0.279  0.0746  0.0153 -0.2264
49287W        W92204  29.337  31.661  31.573  0.0658  0.2029 -0.0083
49288W        W92205  28.436  32.626   0.729 -0.2085  0.0454 -0.0561
49289W        W92206  32.725  30.498   0.827  0.2767  0.1484 -0.1406
49290W        W92207  31.655  31.427   2.607 -0.2180 -0.4675  0.0623
49291W        W92208  32.031  32.381   3.395  0.2956  0.1504  0.1558
49292W        W92209  32.875  34.150  31.240  0.2045 -0.0382  0.0198
49293W        W92210  28.510  31.809   1.025 -0.1006 -0.1624 -0.0796
49294W        W92211  30.215  28.461  31.759  0.1957  0.1336  0.1697
49295W        W92212  29.306  32.299   0.877  0.0427 -0.0953  0.4170
49296W        W92213  28.600  31.366   2.266 -0.0895 -0.1930  0.1289
49297W        W92214  30.086  28.961  31.873 -0.3143 -0.0137 -0.1147
49298W        W92215  32.456  32.788   1.447 -0.1438  0.3330  0.3708
49299W        W92216  30.346  31.605   0.024  0.3194  0.1779  0.0294
49300W        W92217  29.165  31.470   3.533  0.3797 -0.0282  0.0860
49301W        W92218  32.438  29.465   2.738 -0.0845  0.0439 -0.0485
49302W        W92219  32.086  32.249   2.075  0.0327  0.0894 -0.1319
49303W        W92220  29.936  29.651   0.864  0.1542  0.0594 -0.0537
49304W        W92221  29.509  27.261  30.803 -0.0557  0.0389 -0.1436
49305W        W92222  31.871  30.758   0.183  0.1232 -0.0037  0.1641
49306W        W92223  28.102  32.605  31.169 -0.2664 -0.0715 -0.1050
49307W        W92224  29.625  31.488   0.868  0.2208 -0.3007 -0.1001
49308W        W92225  30.062  31.982   0.242 -0.2375  0.1856  0.1559
49309W        W92226  31.698  28.199   0.089 -0.0791 -0.1280  0.7679
49310W        W92227  29.489  32.767   2.857 -0.0923  0.0607  0.1486
49311W        W92228  31.719  28.991   3.922 -0.0451  0.1655 -0.0265
49312W        W92229  27.813  30.767   0.330  0.4076  0.0953 -0.1604
49313W        W92230  30.505  33.066   1.720  0.0103  0.0593  0.0755
49314W        W92231  30.607  30.105   0.492  0.0912 -0.4788 -0.3562
49315W        W92232  31.878  28.736   0.645  0.0715 -0.2827  0.5625
49316W        W92233  32.302  31.497   4.527  0.0215 -0.0847  0.1443
49317W        W92234  31.404  30.947   0.576  0.1904  0.1593 -0.1527
49318W        W92235  31.440  29.000  30.409 -0.1282  0.5012  0.0514
49319W        W92236  30.003  28.531   1.659  0.1225 -0.2683 -0.0470
49320W        W92237  30.540  32.024   0.480 -0.1255  0.0150 -0.1952
49321W        W92238  32.783  33.466   0.604  0.0946  0.3093 -0.1392
49322W        W92239  32.165  32.679   1.013 -0.2137 -0.2775  0.1942
49323W        W92240  32.674  28.878  30.843  0.0603  0.0891  0.0678
49324W        W92241  30.625  30.651   0.507 -0.2405  0.1761 -0.2475
49325W        W92242  29.664  32.041   2.744  0.1883 -0.1700 -0.2863
49326W        W92243  32.117  31.173   3.439 -0.2316 -0.0071 -0.2210
49327W        W92244  32.612  33.020   1.877 -0.4619 -0.1491  0.2700
49328W        W92245  31.870  29.213   3.505  0.2445 -0.1805 -0.5619
49329W        W92246  32.246  29.672  31.757 -0.0369 -0.1174 -0.3304
49330W        W92247  31.305  27.953   1.461 -0.2533 -0.1814  0.1836
49331W        W92248  27.859  34.193   0.641 -0.1506  0.3241 -0.0548
49332W        W92249  31.610  28.843   2.563  0.0622 -0.0857  0.1093
49333W        W92250  32.168  29.398   2.226  0.2215 -0.1297  0.1976
49334W        W92251  31.420  29.749   3.911  0.2312  0.5334 -0.1913
49335W        W92252  32.778  30.343   2.249  0.1245  0.3157  0.0528
49336W        W92253  30.015  31.284  30.525 -0.0674  0.2589  0.2098
49337W        W92254  31.592  28.500   3.024  0.1766 -0.3607 -0.0471
49338W        W92255  28.955  31.494  31.187  0.4412 -0.0086 -0.1824
49339W        W92256  30.635  30.786   1.055  0.1713 -0.0143 -0.1445
49340W        W92257  29.541  30.830   1.385 -0.0349  0.0169  0.0716
49341W        W92258  29.441  34.184   3.683 -0.0104  0.5278 -0.1379
49342W        W92259  30.894  33.373   0.438 -0.0829 -0.1928  0.0413
49343W        W92260  32.829  31.389  29.890 -0.1742 -0.1340  0.2491
49344W        W92261  30.921  30.225   3.077  0.1855 -0.2516  0.1161
49345W        W92262  31.732  29.732  30.534  0.0456 -0.0740  0.2056
49346W        W92263  29.770  33.015  31.784 -0.0483 -0.1624 -0.0399
49347W        W92264  28.864  31.691   1.981 -0.2255 -0.0289 -0.1362
49348W        W92265  30.487  27.704   1.423 -0.0952 -0.1002  0.1023
49349W        W92266  30.699  34.301   1.987  0.3333  0.1389  0.0309
49350W        W92267  27.622   0.224  30.555  0.2240 -0.2907 -0.0219
49351W        W92268  32.447  31.142   3.791 -0.0527 -0.0852  0.2127
49352W        W92269  28.958  33.257   1.243 -0.1176  0.1345  0.1034
49353W        W92270   0.099  28.367   1.116 -0.0142  0.1111 -0.2528
49354W        W92271  28.420  30.673   2.475  0.3416  0.0475  0.1772
49355W        W92272  28.039  30.995  31.025 -0.0699  0.4322 -0.0793
49356W        W92273  29.174  31.480   1.595 -0.0973 -0.2247 -0.2085
49357W        W92274  31.816  28.943   3.078 -0.1250 -0.0237  0.0491
49358W        W92275  31.951  31.759   1.209 -0.1662  0.1603 -0.1901
49359W        W92276  28.621  30.304   2.854 -0.2343  0.1171  0.0017
49360W        W92277  32.350  29.750   1.851  0.0671  0.0364  0.1148
49361W        W92278  31.533  32.751   0.215  0.2184 -0.0166 -0.0601
49362W        W92279  32.188  31.509   1.585 -0.1634 -0.2576 -0.0927
49363W        W92280  31.790  29.884  31.140  0.2676 -0.0027 -0.0062
49364W        W92281  32.159  30.691   1.590  0.1718  0.0812 -0.2068
49365W        W92282  28.724  29.619   3.667  0.0840  0.1774 -0.0193
49366W        W92283  29.130  28.783  30.837  0.2415  0.2396  0.1752
49367W        W92284  32.765  30.001   1.893  0.1009 -0.0903 -0.1348
49368W        W92285  29.499  30.093   0.994  0.0104 -0.1256 -0.1769
49369W        W92286  28.008  31.691   2.353  0.1843  0.0112  0.3317
49370W        W92287  31.243  31.985   1.529 -0.0655 -0.3566 -0.1329
49371W        W92288  28.428  31.118   0.169 -0.2926  0.0663  0.2977
49372W        W92289  27.981  33.110   0.665 -0.2569 -0.1004 -0.0207
49373W        W92290  29.958  30.347   2.140  0.0887  0.1563 -0.2068
49374W        W92291  32.521  32.259   1.498  0.0631  0.0730  0.0750
49375W        W92292  27.981  28.975   2.432 -0.1749 -0.0102  0.0303
49376W        W92293  31.318  30.521   0.362  0.0621 -0.1159 -0.0561
49377W        W92294  30.509  30.308   0.955  0.3417  0.1098 -0.1602
49378W        W92295  31.873  33.010   3.011  0.1877  0.5105  0.1333
49379W        W92296  30.982  29.474   3.333 -0.1742  0.2971 -0.0673
49380W        W92297  30.548  31.998   3.288 -0.1102  0.0299 -0.2681
49381W        W92298  31.063  30.564   0.824 -0.0396 -0.1462 -0.0070
49382W        W92299  32.587  34.188   2.566 -0.1191  0.1957 -0.0952
49383W        W92300  33.523  29.415   1.246  0.1529 -0.0814  0.1988
49384W        W92301  27.626  31.709  29.946 -0.0543 -0.3823  0.0235
49385W        W92302  29.941  31.893   2.325  0.1478  0.0174  0.1418
49386W        W92303  27.495  33.043   0.758 -0.0261  0.0344 -0.0519
49387W        W92304  30.822  28.970   1.925  0.0379  0.2085 -0.1630
49388W        W92305  27.596  33.103  31.889  0.1477  0.0415 -0.0275
49389W        W92306  28.933  33.701  31.756 -0.2904 -0.1551 -0.2429
49390W        W92307  29.901  31.379   2.235 -0.3169  0.3880  0.0829
49391W        W92308  31.644  28.008   2.519  0.0201 -0.2067 -0.0188
49392W        W92309  31.398  29.896   0.273  0.0591 -0.0207 -0.1912
49393W        W92310  33.321  31.295   0.362  0.2105  0.0590  0.1989
49394W        W92311   0.026  27.779   2.160 -0.1385 -0.2558 -0.1376
49395W        W92312  32.093  32.602   0.461  0.1608 -0.1559  0.3651
49396W        W92313  32.051  28.677   1.071  0.2973  0.3213 -0.1080
49397W        W92314  29.761  30.042   3.725  0.7584  0.2768 -0.1270
49398W        W92315  31.685  30.621   0.732 -0.2660 -0.0078  0.0429
49399W        W92316  26.882  31.483   1.292  0.2515 -0.2551  0.1999
49400W        W92317  32.234  31.930   3.329 -0.0602 -0.1275 -0.1635
49401W        W92318  29.492  32.865   2.007  0.0137 -0.0655  0.1056
49402W        W92319  30.129  30.619   1.203 -0.1368 -0.1643 -0.0820
49403W        W92320  28.781  32.146   1.203 -0.1566  0.0191 -0.0108
49404W        W92321  31.580  30.707   1.613 -0.0730  0.0408 -0.2064
49405W        W92322  32.800  32.703   1.091  0.0561 -0.0864  0.2503
49406W        W92323  29.519  30.352   0.062  0.1076  0.0496  0.2041
49407W        W92324  30.979  30.166   1.108 -0.2479  0.0171  0.1062
49408W        W92325  29.863  32.018   1.106 -0.0362  0.1540  0.0027
49409W        W92326  32.189  30.835   0.761 -0.0957  0.0502 -0.0828
49410W        W92327  29.860  29.433  31.931  0.2917  0.0031 -0.0283
49411W        W92328  28.501  33.048   0.450  0.0116 -0.2619  0.3762
49412W        W92329  31.931  29.286   2.705 -0.4439  0.0025  0.0764
49413W        W92330  31.357  31.869   0.270  0.1966  0.1028 -0.1180
49414W        W92331  32.649  29.835   0.072  0.4924  0.2246  0.1191
49415W        W92332  31.470  29.886   1.145 -0.0022  0.1708 -0.0725
49416W        W92333  30.929  30.318   2.150 -0.0639  0.3758  0.2190
49417W        W92334  30.819  30.411   2.647  0.0965  0.2909 -0.1859
49418W        W92335  28.444  29.564   3.118 -0.0425  0.1237  0.0662
49419W        W92336  33.667  34.303   2.200 -0.0086  0.1564  0.0959
49420W        W92337  31.876  28.219  31.394 -0.1854  0.0097  0.2296
49421W        W92338  33.470  29.573   2.557 -0.1161 -0.3271  0.1529
49422W        W92339  31.869  31.156   1.733 -0.1314 -0.0241  0.1852
49423W        W92340  31.738  29.594   0.041  0.1862 -0.2817  0.1205
49424W        W92341  29.624  32.627  31.437 -0.3925  0.2154 -0.0252
49425W        W92342  32.869  31.337   1.377  0.2177 -0.1084 -0.0497
49426W        W92343  29.921  28.140   0.062 -0.1568 -0.0130 -0.0119
49427W        W92344  33.091  30.215   3.639 -0.0737 -0.0137 -0.0763
49428W        W92345  32.076  31.986  31.418 -0.0476  0.1307  0.3374
49429W        W92346  31.460  30.399   1.138  0.0233  0.0596 -0.0404
49430W        W92347  33.130  30.006   0.398  0.0768 -0.1365 -0.1756
49431W        W92348  27.949  31.878   0.904  0.0921  0.1086 -0.0107
49432W        W92349  29.459  33.648   2.201  0.1707  0.1764  0.2864
49433W        W92350  29.229  30.445  31.603  0.0193 -0.2091 -0.2431
49434W        W92351  29.423  33.376  31.941 -0.0856  0.0093  0.0013
49435W        W92352  32.627  30.939   1.485 -0.3555  0.0858  0.0072
49436W        W92353  31.811  30.503   4.171 -0.0602 -0.2378 -0.0512
49437W        W92354  29.320  29.111   1.117  0.0422 -0.0863 -0.1782
49438W        W92355  34.024  30.243   0.866 -0.1955  0.0250 -0.3892
49439W        W92356  29.982  32.893  29.465  0.0427 -0.1500  0.1397
49440W        W92357  30.333  29.145   2.788 -0.1327  0.2129  0.0711
49441W        W92358  31.371  31.443   0.791 -0.0294 -0.1531 -0.0657
49442W        W92359  29.968  33.635   2.496  0.0220 -0.0098  0.1574
49443W        W92360  30.361  31.804   2.042  0.3634  0.0596  0.0144
49444W        W92361  31.479  29.732   2.502 -0.0011  0.1650 -0.0643
49445W        W92362  32.225  30.875   2.455  0.2602  0.0185 -0.2481
49446W        W92363  31.580  31.222   2.157  0.0954 -0.2211  0.0557
49447W        W92364  33.121  31.016   1.741  0.1709  0.3355 -0.0829
49448W        W92365  32.167  31.889   2.382 -0.0787  0.0261  0.1149
49449W        W92366  29.174  30.855   1.765 -0.0849 -0.0170  0.3175
49450W        W92367  32.064  32.494   1.453 -0.0176  0.1389 -0.2047
49451W        W92368  32.781  32.122   0.974  0.0702  0.2047 -0.0236
49452W        W92369  30.113  31.586   0.600 -0.0981 -0.3555  0.0231
49453W        W92370  29.627  30.464   3.058  0.0886  0.1474  0.1647
49454W        W92371  32.691  30.108   3.349  0.1204 -0.0323  0.2154
49455W        W92372  30.638  29.875   2.154 -0.0911 -0.2085  0.0749
49456W        W92373  30.434  28.607   2.860 -0.0854  0.0590  0.4457
49457W        W92374  31.663  32.860  30.049  0.1661  0.0882 -0.4191
49458W        W92375  29.267  31.899   3.067  0.1524 -0.0615 -0.3029
49459W        W92376  28.922  30.932   4.143  0.0557  0.1350 -0.1442
49460W        W92377  27.795  32.317   0.155  0.2714 -0.0131  0.1391
49461W        W92378  32.279  31.086   0.291  0.3375 -0.0418 -0.0453
49462W        W92379  31.513  29.071   0.740  0.1628 -0.0685  0.1973
49463W        W92380  30.397   0.064   2.000  0.1559  0.1002 -0.1304
49464W        W92381  31.657  28.559  31.616  0.0350 -0.1564  0.0196
49465W        W92382  25.484  33.167  31.886  0.0755 -0.1015 -0.0204
49466W        W92383  28.793  32.720  31.059  0.0456  0.0064 -0.1269
49467W        W92384  31.548  31.912   0.713 -0.0954 -0.0092 -0.0416
49468W        W92385  29.811  31.662  31.838  0.3688 -0.2632  0.1111
49469W        W92386  32.851  30.707   2.542  0.1484 -0.1260 -0.1853
49470W        W92387  32.780  28.613   1.585 -0.2108  0.0457 -0.1944
49471W        W92388  34.175  31.154   0.681 -0.1575  0.1525 -0.2357
49472W        W92389  30.824  29.659   0.812  0.2994 -0.0233  0.1938
49473W        W92390  31.096  32.127   1.985  0.0481  0.2116 -0.2685
49474W        W92391  31.294  29.658   0.731 -0.0647  0.0304  0.1895
49475W        W92392  31.687  27.621   3.063 -0.1565  0.1253 -0.0786
49476W        W92393  27.905  29.987   1.492 -0.4177 -0.2076 -0.0828
49477W        W92394  33.583  29.917   4.375  0.2247  0.4478 -0.3253
49478W        W92395  30.127  31.553   1.122 -0.0687  0.0636 -0.1050
49479W        W92396  32.082  34.140   0.940 -0.2367  0.1103 -0.0442
49480W        W92397  30.084  30.596   1.716 -0.3247  0.2100  0.0840
49481W        W92398  30.198  29.918   1.922  0.0342 -0.1056 -0.0199
49482W        W92399  32.653  29.424   2.187 -0.1856 -0.0627  0.1127
49483W        W92400  31.193  32.673  29.960  0.1324  0.2853 -0.1837
49484W        W92401  30.772  28.400   2.383 -0.2010 -0.2210  0.1558
49485W        W92402  29.801  33.763   1.360 -0.0223 -0.1980 -0.0419
49486W        W92403  28.724  31.760   1.488  0.1662  0.0549  0.1483
49487W        W92404  29.123  33.647   0.265  0.3865 -0.3297 -0.1447
49488W        W92405  28.879  29.773   0.076  0.0272 -0.0857  0.1461
49489W        W92406  31.981  29.924   0.972  0.2471  0.0421 -0.4291
49490W        W92407  28.984  33.019   2.050  0.2279 -0.0732  0.0015
49491W        W92408  34.029  29.705   2.423 -0.3009 -0.0942 -0.3010
49492W        W92409  30.125  30.308   0.534  0.1020  0.0711 -0.2331
49493W        W92410  30.397  30.995   0.231 -0.0658  0.4465 -0.0260
49494W        W92411  31.067  32.937   1.373 -0.0657  0.1582  0.0180
49495W        W92412  28.925  30.669   2.619 -0.1553 -0.3606 -0.1509
49496W        W92413  29.591  31.392   1.403 -0.0684 -0.2513 -0.3868
49497W        W92414  32.480  30.357   2.653  0.2852  0.0622 -0.0399
49498W        W92415  29.017  29.680   0.531 -0.1684  0.0775  0.3148
49499W        W92416  31.159  31.640   2.698 -0.1428 -0.3430  0.1423
49500W        W92417  28.831  31.448   0.208 -0.0517 -0.0546  0.0096
49501W        W92418  29.689  30.518   0.868 -0.0355  0.0199 -0.0292
49502W        W92419  28.816  29.839   1.551 -0.2595  0.3388 -0.4823
49503W        W92420  29.708  30.328   1.408 -0.2297 -0.2200  0.1196
49504W        W92421  33.114  32.435   2.557  0.0840  0.0369 -0.1562
49505W        W92422  26.647  31.096   2.015  0.0486  0.2485 -0.0970
49506W        W92423  33.823  32.510  31.453 -0.0536  0.1412  0.1913
49507W        W92424  31.767  30.716   2.113 -0.0346  0.0171  0.0597
49508W        W92425  31.751  32.071  30.611 -0.0516  0.0474  0.1822
49509W        W92426  33.449  31.749   0.134  0.3689  0.0863 -0.0173
49510W        W92427  32.154  33.623   0.619 -0.0240 -0.1396  0.0682
49511W        W92428  30.368  31.050   1.405 -0.0722  0.1713 -0.1339
49512W        W92429  31.413  33.385   2.167  0.1232 -0.0520  0.0735
49513W        W92430  33.321  32.045   1.762 -0.0643 -0.4152  0.1227
49514W        W92431  30.220  28.954   0.896 -0.3276  0.3277 -0.0369
49515W        W92432  29.332  32.870   1.018  0.2167 -0.2370 -0.0009
49516W        W92433  30.339  33.563  31.539 -0.2944 -0.2180  0.0723
49517W        W92434  32.048  31.212   2.821 -0.0908  0.1475  0.0735
49518W        W92435  31.928  30.375   1.303 -0.3567  0.0249 -0.2305
49519W        W92436  30.642  32.912   0.197 -0.0060  0.0724  0.3171
49520W        W92437  32.954  29.407   2.597  0.0890  0.4180  0.1038
49521W        W92438  29.554  32.308   2.371  0.1734 -0.1776  0.0416
49522W        W92439  30.572  31.527   1.537  0.3209 -0.1687 -0.0558
49523W        W92440  28.090  29.935  29.565 -0.3218  0.2716 -0.2302
49524W        W92441  30.949  31.874   1.159 -0.1247 -0.3945 -0.1457
49525W        W92442  31.014  31.901   0.657 -0.2107  0.1632  0.0097
49526W        W92443  30.528  32.514  30.891 -0.2613  0.0877 -0.0976
49527W        W92444  32.623  30.989   0.941 -0.0122  0.0172 -0.1638
49528W        W92445  31.718  30.068   2.905  0.0676  0.0084  0.0412
49529W        W92446  32.277  32.205   1.092  0.0339  0.0701 -0.2514
49530W        W92447  30.936  28.404   1.310 -0.1531 -0.0172  0.0745
49531W        W92448  31.759  29.426  30.927 -0.0561  0.0248 -0.3098
49532W        W92449  30.444  28.119   2.889  0.1351 -0.5589 -0.1115
49533W        W92450  29.361  31.848   2.274  0.2078 -0.1615  0.0461
49534W        W92451  28.169  33.039   0.046  0.2265  0.1340  0.2366
49535W        W92452  29.852  32.316  31.129 -0.5141 -0.1981  0.2087
49536W        W92453  28.308  32.063   0.541 -0.0102 -0.0074  0.0870
49537W        W92454  30.617  29.969   3.463  0.1700  0.2047  0.1535
49538W        W92455  30.448  30.363   2.003  0.0137  0.1026  0.1450
49539W        W92456  29.943  31.218   0.090 -0.3120 -0.3219  0.0389
49540W        W92457  28.193  31.315  30.528  0.0047  0.2906  0.2285
49541W        W92458  32.663  31.251  30.610  0.2095 -0.0551  0.1547
49542W        W92459  30.145  28.059   2.021  0.0429 -0.2050  0.0043
49543W        W92460  29.131  30.589   0.915  0.1656 -0.2093  0.2965
49544W        W92461  31.632  31.697   1.610 -0.2367 -0.3516  0.1182
49545W        W92462  32.635  30.848   2.050  0.1899 -0.0823 -0.0472
49546W        W92463  29.705  29.296  31.028 -0.0370  0.2018  0.1097
49547W        W92464  32.571  31.554   3.491 -0.1405 -0.0022  0.1954
49548W        W92465  31.383  31.905  30.368 -0.1098 -0.0166 -0.0186
49549W        W92466  33.971  29.461   3.316  0.3224 -0.1502 -0.0947
49550W        W92467  30.497  29.944   2.832 -0.2556 -0.0073  0.0246
49551W        W92468  29.359  30.644   0.489  0.1167 -0.1322  0.2967
49552W        W92469  31.829  29.931   1.477 -0.2641  0.2846 -0.2140
49553W        W92470  32.390  33.743   1.544  0.1237  0.0350  0.0328
49554W        W92471  33.036  33.858   0.756  0.0327  0.1329 -0.0940
49555W        W92472  30.149  32.037   2.916  0.0961  0.3075 -0.2442
49556W        W92473  30.219  32.783   0.711  0.3133  0.0358  0.0945
49557W        W92474  31.352  29.280   3.599  0.0700  0.1900  0.2856
49558W        W92475  30.265  32.529   0.298  0.0292 -0.1121 -0.5665
49559W        W92476  29.922  31.597   2.736  0.4153  0.0124 -0.0119
49560W        W92477  33.792  29.235   0.678 -0.0928 -0.3539  0.2681
49561W        W92478  31.758  30.917   2.580 -0.0373  0.3122  0.0891
49562W        W92479  29.255  31.872   0.592  0.2105 -0.4011 -0.1205
49563W        W92480  28.509  29.150   1.466 -0.2107 -0.3108 -0.1408
49564W        W92481  28.875  32.647   1.005  0.0442  0.1259 -0.1766
49565W        W92482  30.998  31.592   1.730 -0.1964  0.2131  0.0623
49566W        W92483  30.620  28.691   1.041 -0.0679  0.2971 -0.0231
49567W        W92484  30.346  29.418   0.755 -0.1561  0.0657 -0.1206
49568W        W92485  30.964  32.008  31.422  0.1436  0.1186  0.0611
49569W        W92486  29.072  32.824   1.499  0.0713  0.0903 -0.0814
49570W        W92487  30.298  29.946  31.503 -0.1577  0.1024 -0.0193
49571W        W92488  31.290  28.459   2.596 -0.5069 -0.0472  0.0201
49572W        W92489  30.334  30.572   2.448 -0.1432 -0.2141 -0.2994
49573W        W92490  31.148  30.117   4.162 -0.0842 -0.2382  0.3372
49574W        W92491  29.207  32.363   1.378  0.1959  0.0376  0.2334
49575W        W92492  31.560  30.128  30.766 -0.1129 -0.0607 -0.0368
49576W        W92493  32.120  32.724   2.272  0.0399 -0.0481 -0.2248
49577W        W92494  33.299  32.871   2.333  0.1584  0.1277  0.0422
49578W        W92495  30.126  32.257   0.727 -0.2688 -0.1497 -0.0898
49579W        W92496  32.649  31.861   2.385 -0.2021  0.0556 -0.0697
49580W        W92497  29.789  29.710   2.300 -0.1732 -0.0625  0.2148
49581W        W92498  26.007  34.144   0.166 -0.0055 -0.3625  0.0231
49582W        W92499  29.651  31.216  31.517  0.1613 -0.1323 -0.1076
49583W        W92500  30.972  29.376   2.359 -0.5286  0.0642  0.1501
49584W        W92501  30.624  29.220   1.563  0.1195  0.1352 -0.2070
49585W        W92502  32.642  29.110   1.723 -0.0705 -0.0337  0.1129
49586W        W92503  29.181  32.381   2.842  0.4174  0.1832 -0.3400
49587W        W92504  32.712  31.798   1.572  0.0379  0.0757  0.0405
49588W        W92505  30.878  32.126   6.735 -0.0496  0.1690 -0.1760
49589W        W92506  29.155  30.186   4.415 -0.0201 -0.1793 -0.0238
49590W        W92507  30.345  31.262   2.941  0.2275  0.1025 -0.4172
49591W        W92508  32.717  30.540   3.137 -0.4159 -0.3827 -0.2546
49592W        W92509  28.517  29.468   6.917 -0.2344  0.4723 -0.3767
49593W        W92510  32.718  33.815   3.979  0.1588  0.2517  0.1512
49594W        W92511  29.654  30.187   7.122  0.2193  0.0418  0.0488
49595W        W92512  33.616  31.236   5.085  0.1592  0.3262 -0.0210
49596W        W92513  34.051  31.200   5.297 -0.1865  0.0895  0.1479
49597W        W92514  32.782  31.549   4.653 -0.1325  0.1040  0.1448
49598W        W92515  32.829  31.473   6.839  0.0647  0.0349 -0.1317
49599W        W92516  30.730  31.112   5.359 -0.1470  0.0292  0.0615
49600W        W92517  29.686  30.080   2.734  0.2136  0.0867 -0.0656
49601W        W92518  28.219  28.110   5.445 -0.1483  0.2312 -0.2408
49602W        W92519  30.634  29.893   4.327 -0.2423  0.1237 -0.2288
49603W        W92520  29.335  32.068   5.180 -0.1978 -0.0632 -0.3546
49604W        W92521  29.853  30.651   4.543  0.1508 -0.0727 -0.0063
49605W        W92522  31.920  29.637   3.046 -0.1552 -0.2284  0.0245
49606W        W92523  31.662  32.753   3.640  0.2561 -0.1109  0.2810
49607W        W92524  31.568  30.844   6.839 -0.1873 -0.1008  0.0019
49608W        W92525  31.145  29.024   7.224  0.0225  0.0217  0.2541
49609W        W92526  30.379  31.637   2.554 -0.1440  0.0169  0.2819
49610W        W92527  28.697  29.893   2.043 -0.2807 -0.0471  0.1977
49611W        W92528  28.626  29.781   6.472 -0.3931 -0.3284 -0.3901
49612W        W92529  28.261  30.825   4.709 -0.0175 -0.0639  0.4946
49613W        W92530  31.812  29.859   5.772  0.0081  0.0807 -0.1416
49614W        W92531  32.962  31.586   4.200  0.3106 -0.0439 -0.0610
49615W        W92532  31.798  33.370   4.247  0.4902  0.0955  0.1441
49616W        W92533  32.598  33.681   4.683  0.2511 -0.0693 -0.0552
49617W        W92534  32.376  32.004   6.709  0.0336 -0.1796  0.1242
49618W        W92535  27.814  30.896   4.335 -0.3644 -0.1505 -0.3861
49619W        W92536  29.800  32.114   5.317  0.3474  0.3349 -0.0925
49620W        W92537  30.466  32.080   3.790  0.3950  0.1924  0.0934
49621W        W92538  34.489  30.982   3.753  0.1088 -0.0954 -0.0191
49622W        W92539  32.921  33.527   6.374  0.1134 -0.2133 -0.2340
49623W        W92540  32.859  32.425   5.872  0.2819 -0.0422  0.0226
49624W        W92541  30.855  31.048   1.644  0.0538 -0.0007 -0.2269
49625W        W92542  31.540  32.558   5.993 -0.0930  0.0376 -0.0751
49626W        W92543  31.067  32.730   5.403  0.0667  0.1680  0.1590
49627W        W92544  32.374  31.450   6.648 -0.1136 -0.0446  0.0815
49628W        W92545  30.924  32.189   3.048 -0.0931  0.0205 -0.2578
49629W        W92546  31.116  33.050   3.330 -0.1603  0.4957 -0.2181
49630W        W92547  30.957  31.808   3.425  0.1479 -0.0111 -0.0475
49631W        W92548  31.901  30.193   6.204  0.0523 -0.1067  0.2036
49632W        W92549  28.989  31.087   5.553 -0.2536  0.3811  0.1660
49633W        W92550  33.418  30.415   6.611  0.2200  0.0741  0.1884
49634W        W92551  30.092  32.373   2.514 -0.0577  0.2129  0.4917
49635W        W92552  32.385  30.229   1.554  0.1073  0.1030 -0.2185
49636W        W92553  29.395  31.555   2.662  0.0655  0.3445  0.0269
49637W        W92554  32.099  30.475   2.986 -0.2564 -0.0757  0.1069
49638W        W92555  30.404  29.129   6.498  0.0159  0.0766 -0.2781
49639W        W92556  31.533  31.312   4.083  0.2185  0.1437 -0.1486
49640W        W92557  29.938  30.254   6.722 -0.0839 -0.0573 -0.2211
49641W        W92558  32.964  30.426   5.307  0.1656 -0.1345 -0.1400
49642W        W92559  29.717  29.877   3.145 -0.1700  0.4014  0.0114
49643W        W92560  30.493  30.555   3.622  0.0599  0.1415 -0.2688
49644W        W92561  32.942  30.997   6.629 -0.1254 -0.0117 -0.2223
49645W        W92562  28.516  31.117   5.620 -0.1750 -0.3708  0.4503
49646W        W92563  34.035  32.098   4.966 -0.2471 -0.2622 -0.0408
49647W        W92564  32.525  31.623   3.992  0.2377  0.3712 -0.0599
49648W        W92565  32.322  31.019   4.365 -0.3187 -0.0313  0.0196
49649W        W92566  28.746  30.866   4.857 -0.1768  0.2965 -0.2250
49650W        W92567  31.555  32.113   7.331 -0.1924 -0.0531 -0.1563
49651W        W92568  30.615  29.448   6.125  0.0474 -0.0362  0.0209
49652W        W92569  30.125  29.443   1.768 -0.0861  0.0533 -0.1848
49653W        W92570  33.331  31.243   7.816 -0.0067  0.0759 -0.0414
49654W        W92571  27.601  30.306   7.061  0.1824 -0.1168  0.0519
49655W        W92572  31.505  28.260   4.786 -0.0593 -0.2907 -0.0811
49656W        W92573  31.344  31.750   4.296 -0.2434 -0.2697  0.0382
49657W        W92574  33.530  30.868   4.583  0.1621 -0.1435 -0.2646
49658W        W92575  31.365  33.326   1.559 -0.1351 -0.2245  0.0021
49659W        W92576  29.970  28.568   5.864  0.0669 -0.1564  0.1764
49660W        W92577  32.939  30.468   6.947 -0.0697 -0.2178 -0.0492
49661W        W92578  31.383  29.739   1.611  0.4066 -0.1220 -0.3168
49662W        W92579  31.750  31.005   4.510  0.1926  0.0179 -0.0661
49663W        W92580  33.082  33.113   6.095 -0.0110 -0.0849 -0.0286
49664W        W92581  33.164  30.696   2.158 -0.0017  0.1745  0.1109
49665W        W92582  28.094  30.221   6.121  0.0668 -0.0855 -0.2870
49666W        W92583  31.942  30.460   7.111  0.0348  0.4319  0.1222
49667W        W92584  31.078  31.461   6.984 -0.0946 -0.0595 -0.0946
49668W        W92585  30.732  34.074   2.960  0.3824 -0.2868  0.0802
49669W        W92586  31.218  31.723   6.516 -0.0805 -0.0288 -0.0728
49670W        W92587  29.060  30.963   1.297  0.1604 -0.0309  0.1062
49671W        W92588  29.692  30.954   5.873  0.1533 -0.0562  0.0935
49672W        W92589  32.736  32.142   5.404 -0.1861  0.1733 -0.1614
49673W        W92590  31.194  30.911   3.914 -0.2091 -0.1112 -0.1149
49674W        W92591  30.104  29.796   6.672 -0.0748  0.1102 -0.1252
49675W        W92592  32.158  29.461   4.566 -0.0510  0.1665 -0.1459
49676W        W92593  31.573  31.181   7.236  0.1258 -0.0157  0.2816
49677W        W92594  31.643  32.052   2.419 -0.1766 -0.1348  0.2744
49678W        W92595  29.743  30.608   2.601 -0.0102  0.2806 -0.4541
49679W        W92596  32.221  32.651   3.788 -0.3144 -0.0060  0.2325
49680W        W92597  28.952  31.501   5.841  0.0009  0.3889 -0.0346
49681W        W92598  29.489  31.815   5.661 -0.1274  0.0366  0.0365
49682W        W92599  31.596  28.669   6.416 -0.0560  0.0947 -0.1352
49683W        W92600  29.570  28.443   5.235 -0.2574  0.0806 -0.0639
49684W        W92601  33.730  29.953   6.563 -0.2864  0.1566 -0.2735
49685W        W92602  28.688  30.320   1.471  0.3113  0.0024 -0.1467
49686W        W92603  31.977  30.117   3.330  0.2440 -0.0887 -0.0703
49687W        W92604  30.934  31.600   5.262 -0.1596  0.1726  0.1864
49688W        W92605  28.092  31.461   5.423 -0.2076  0.0180  0.0338
49689W        W92606  32.749  29.635   6.490 -0.0271 -0.1376 -0.3041
49690W        W92607  31.135  30.710   3.093 -0.0824 -0.1651 -0.0032
49691W        W92608  33.590  32.349   4.926  0.0301  0.0532 -0.1038
49692W        W92609  31.486  32.808   4.119  0.1102  0.0316  0.4475
49693W        W92610  30.329  29.573   5.150 -0.0012 -0.2638  0.0282
49694W        W92611  28.706  28.191   5.559 -0.2963  0.2115 -0.0611
49695W        W92612  26.047  30.425   5.276  0.0498 -0.0498 -0.0092
49696W        W92613  31.380  30.894   5.866  0.1528  0.1786 -0.3511
49697W        W92614  29.863  31.391   5.533  0.2349  0.0306 -0.1105
49698W        W92615  32.480  33.103   5.424  0.2805 -0.0015 -0.2333
49699W        W92616  30.890  31.532   4.299  0.1399 -0.0996 -0.0619
49700W        W92617  31.909  32.504   6.369  0.1287 -0.4667  0.1737
49701W        W92618  32.250  30.634   6.008 -0.3902  0.0173 -0.0230
49702W        W92619  32.887  31.352   5.712 -0.0318  0.3499  0.1346
49703W        W92620  31.079  31.538   4.795  0.1897  0.0085  0.1400
49704W        W92621  29.492  29.231   4.070 -0.0811  0.2032  0.2435
49705W        W92622  31.763  31.622   6.023 -0.1001  0.1526 -0.1861
49706W        W92623  30.758  32.332   5.467 -0.3312 -0.2030 -0.0659
49707W        W92624  29.181  31.567   5.327  0.2513  0.2228  0.0964
49708W        W92625  31.779  33.061   2.109  0.0519 -0.0433 -0.0168
49709W        W92626  31.776  30.402   2.515 -0.1109 -0.0391 -0.1886
49710W        W92627  29.054  30.241   7.285 -0.1098 -0.1497 -0.0554
49711W        W92628  31.617  30.613   6.310 -0.2959  0.2186 -0.2170
49712W        W92629  29.168  30.124   1.791  0.0510 -0.0773 -0.2221
49713W        W92630  32.023  32.772   5.783  0.0174  0.2221 -0.0398
49714W        W92631  32.758  31.493   6.333  0.0341 -0.3864 -0.4640
49715W        W92632  32.853  30.466   1.693 -0.0889  0.1868 -0.4086
49716W        W92633  31.689  31.050   8.487 -0.0425  0.0072 -0.1042
49717W        W92634  33.054  32.511   3.446  0.0387 -0.2479 -0.0573
49718W        W92635  31.788  30.053   3.892  0.0735  0.1476  0.0260
49719W        W92636  33.226  29.938   5.380 -0.2103  0.5311 -0.2447
49720W        W92637  30.830  29.026   8.264 -0.0477 -0.0460 -0.4598
49721W        W92638  30.510  30.522   3.153  0.0488  0.1092  0.1549
49722W        W92639  32.997  33.276   7.276  0.2858 -0.3391 -0.0261
49723W        W92640  33.636  30.266   4.046 -0.1565 -0.0631  0.4696
49724W        W92641  33.491  30.547   2.770  0.0561  0.0173 -0.0345
49725W        W92642  27.144  30.838   6.512 -0.1092  0.0519  0.1714
49726W        W92643  31.402  32.750   7.073  0.3224 -0.1323 -0.0363
49727W        W92644  29.802  32.723   2.332  0.4552 -0.0267 -0.0345
49728W        W92645  31.023  29.949   6.628  0.1539 -0.4180 -0.3121
49729W        W92646  31.150  29.827   2.123  0.2349 -0.1707  0.2067
49730W        W92647  31.435  30.422   4.933 -0.1434 -0.1490  0.2782
49731W        W92648  28.969  32.778   3.076  0.0576 -0.1455 -0.0727
49732W        W92649  32.356  29.544   5.030  0.0314  0.1612 -0.0684
49733W        W92650  30.577  30.585   5.601  0.0893  0.2551 -0.3336
49734W        W92651  32.449  30.942   6.784 -0.0358 -0.1504  0.1355
49735W        W92652  32.027  29.055   6.388  0.1587  0.0100  0.0841
49736W        W92653  31.890  30.770   3.284  0.0407  0.1252  0.0157
49737W        W92654  30.111  31.717   4.958 -0.2544  0.2310  0.0569
49738W        W92655  28.749  33.713   1.103 -0.1423  0.3083  0.2578
49739W        W92656  31.475  29.219   6.312  0.2388  0.2673  0.0598
49740W        W92657  31.634  31.388   8.077  0.1133  0.1594  0.3030
49741W        W92658  30.652  32.999   6.879  0.0362  0.3614  0.0179
49742W        W92659  32.531  32.887   5.907  0.2575 -0.2074  0.0344
49743W        W92660  33.166  30.634   4.717  0.0005 -0.0246  0.0180
49744W        W92661  31.353  30.125   6.278 -0.1155  0.0357  0.0886
49745W        W92662  33.058  29.873   2.401 -0.0614  0.1466  0.1442
49746W        W92663  29.576  31.053   4.756 -0.1622  0.0452  0.0849
49747W        W92664  30.865  31.266   1.180 -0.0081 -0.0083  0.1445
49748W        W92665  30.849  29.739   3.797 -0.0607  0.0952 -0.0561
49749W        W92666  31.130  32.978   5.959 -0.0208 -0.4737 -0.1548
49750W        W92667  30.307  31.132   2.447  0.1200  0.1206  0.0990
49751W        W92668  32.404  32.580   5.464 -0.1899 -0.0751  0.2288
49752W        W92669  30.325  32.711   2.118  0.1038 -0.0318  0.1165
49753W        W92670  32.708  30.013   4.263  0.0219  0.0452 -0.3286
49754W        W92671  29.487  32.493   4.525 -0.0174  0.0752 -0.1343
49755W        W92672  29.821  31.123   2.660 -0.3462 -0.0862  0.0458
49756W        W92673  30.542  29.096   5.063  0.0474 -0.1711  0.1088
49757W        W92674  30.316  30.918   4.719  0.2610 -0.0131  0.0422
49758W        W92675  31.605  30.605   2.936 -0.1995 -0.1034 -0.0052
49759W        W92676  30.800  30.644   4.061 -0.0207  0.0465 -0.0796
49760W        W92677  32.713  30.484   5.929  0.3247  0.1424 -0.1963
49761W        W92678  31.412  32.906   6.547 -0.1865  0.0672 -0.3797
49762W        W92679  31.775  31.685   6.556  0.1976  0.1301 -0.2870
49763W        W92680  30.620  30.393   4.557 -0.0629 -0.0693 -0.1003
49764W        W92681  32.457  32.118   2.849 -0.2584 -0.1323  0.0547
49765W        W92682  31.075  32.375   5.835 -0.2312  0.1615 -0.1590
49766W        W92683  29.668  29.290   2.652 -0.1426 -0.3881 -0.2182
49767W        W92684  33.835  30.849   3.603  0.1988  0.3029  0.5800
49768W        W92685  29.716  29.746   4.324 -0.1464 -0.1552 -0.0924
49769W        W92686  29.646  30.836   4.132  0.0048  0.4120  0.1947
49770W        W92687  29.926  33.462   5.375 -0.1518  0.1312  0.0700
49771W        W92688  30.249  31.539   4.472 -0.0425  0.0997  0.4687
49772W        W92689  30.936  31.451   5.713  0.0633 -0.1395 -0.4186
49773W        W92690  31.429  31.280   6.639  0.1561 -0.1186 -0.1957
49774W        W92691  33.227  30.459   6.152  0.1262  0.0979  0.1172
49775W        W92692  29.552  30.100   6.196 -0.1896 -0.2393  0.1055
49776W        W92693  30.303  30.827   6.042  0.1071  0.0627  0.1104
49777W        W92694  28.676  31.211   6.103  0.2703  0.1644  0.0116
49778W        W92695  33.053  30.866   5.681 -0.0092  0.0961 -0.0937
49779W        W92696  30.753  29.794   5.417  0.2950  0.4045  0.3255
49780W        W92697  31.141  33.259   5.558 -0.1202 -0.0323  0.0146
49781W        W92698  30.009  31.236   4.955 -0.0928 -0.1142 -0.0509
49782W        W92699  33.221  33.807   6.661 -0.3661 -0.1736 -0.2452
49783W        W92700  32.601  31.241   7.943  0.2803 -0.1074  0.1749
49784W        W92701  29.549  30.524   1.837 -0.2751  0.0543  0.0793
49785W        W92702  28.010  30.038   5.368  0.3079  0.0505 -0.1162
49786W        W92703  31.171  31.065   2.657 -0.0354  0.0701 -0.2707
49787W        W92704  33.131  32.602   6.913  0.4557  0.1945 -0.2157
49788W        W92705  31.242  30.894   6.358 -0.2231  0.2408 -0.0140
49789W        W92706  30.428  31.605   3.931  0.0043  0.0358 -0.2457
49790W        W92707  29.269  30.664   4.500  0.1867  0.2251  0.0223
49791W        W92708  32.451  29.658   3.309 -0.0110  0.0654  0.1007
49792W        W92709  32.204  31.205   2.063 -0.0700 -0.1059  0.2111
49793W        W92710  28.434  29.908   5.161  0.1100 -0.1348  0.1036
49794W        W92711  33.074  29.427   5.805 -0.0608  0.0865 -0.0481
49795W        W92712  30.265  30.679   4.245 -0.3759  0.2995 -0.2123
49796W        W92713  30.686  30.509   5.088  0.2577  0.0598 -0.3517
49797W        W92714  29.986  29.182   5.187  0.1471  0.0609 -0.2178
49798W        W92715  32.455  31.778   4.949  0.0619 -0.1504 -0.1558
49799W        W92716  30.254  28.987   8.033  0.0315  0.0506  0.2264
49800W        W92717  33.883  32.505   6.746 -0.0523 -0.1092  0.0150
49801W        W92718  28.618  32.053   5.932  0.1157  0.0750  0.0836
49802W        W92719  30.123  30.120   3.394 -0.2128 -0.2755 -0.3236
49803W        W92720  29.294  30.379   2.661 -0.2033 -0.0923  0.0688
49804W        W92721  30.111  30.271   2.913  0.0947 -0.0518 -0.1879
49805W        W92722  32.063  31.389   5.532  0.2110  0.2058  0.1620
49806W        W92723  29.952  31.225   3.206  0.0652 -0.0703 -0.1252
49807W        W92724  33.465  28.838   4.197  0.2410 -0.0370 -0.1130
49808W        W92725  29.006  31.819   6.313  0.2544  0.3554 -0.0039
49809W        W92726  33.544  30.488   3.600 -0.0967 -0.0758  0.1081
49810W        W92727  30.746  30.213   3.863  0.0216  0.3103  0.0910
49811W        W92728  30.992  32.254   5.009 -0.0242 -0.1030 -0.1523
49812W        W92729  32.010  30.110   6.708 -0.0232  0.2489  0.2788
49813W        W92730  32.570  31.622   5.448 -0.2815  0.0136 -0.1085
49814W        W92731  30.583  29.571   4.723 -0.1748 -0.1504 -0.0708
49815W        W92732  32.368  30.170   6.371 -0.1390  0.0067  0.0583
49816W        W92733  32.087  30.881   5.398 -0.2413  0.1267  0.1505
49817W        W92734  30.007  30.486   8.113 -0.1216  0.1326  0.2776
49818W        W92735  31.025  29.405   5.832  0.0658  0.1739 -0.0412
49819W        W92736  32.988  33.277   5.286 -0.0107 -0.0847 -0.0619
49820W        W92737  34.651  29.739   1.695 -0.5515  0.1651 -0.2552
49821W        W92738  33.673  29.184   4.985 -0.0792  0.3094 -0.2866
49822W        W92739  32.892  29.610   5.091  0.0175 -0.0902  0.1218
49823W        W92740  31.960  31.725   5.090  0.0856  0.3410 -0.0097
49824W        W92741  29.628  31.166   7.005  0.0723 -0.0687  0.2287
49825W        W92742  32.354  30.783   4.974 -0.0579 -0.1980 -0.1795
49826W        W92743  30.014  31.083   4.381  0.1441  0.1436 -0.1645
49827W        W92744  31.828  29.086   8.121  0.1583 -0.0819  0.0838
49828W        W92745  31.028  31.298   3.129 -0.0521  0.1124 -0.0447
49829W        W92746  32.837  31.087   3.336 -0.0933  0.1040 -0.3098
49830W        W92747  30.792  31.094   4.848 -0.0990 -0.1635 -0.2250
49831W        W92748  29.286  29.456   6.177  0.1898 -0.2253  0.1374
49832W        W92749  32.764  32.271   6.879 -0.1779  0.1731  0.0332
49833W        W92750  29.444  30.902   2.294 -0.0325 -0.1409  0.0519
49834W        W92751  30.385  32.539   3.583  0.0819  0.2362  0.0848
49835W        W92752  30.588  32.340   4.668  0.0940  0.0089  0.2470
49836W        W92753  32.936  31.487   7.555  0.0477 -0.2556  0.2652
49837W        W92754  31.099  30.190   4.646  0.3136  0.2163  0.1420
49838W        W92755  32.531  30.718   8.074 -0.0127 -0.2513  0.1185
49839W        W92756  27.871  31.377   4.494  0.0287  0.1153  0.0287
49840W        W92757  31.875  29.770   4.354  0.1305 -0.2320 -0.1851
49841W        W92758  31.566  30.403   5.833 -0.0510 -0.0138  0.0288
49842W        W92759  31.113  32.506   6.361  0.0784 -0.0685  0.0067
49843W        W92760  29.871  32.712   3.568  0.5475  0.0139 -0.0590
49844W        W92761  32.351  30.222   3.648  0.0555 -0.1079 -0.0629
49845W        W92762  33.073  32.650   4.128  0.6530  0.0788  0.2232
49846W        W92763  30.859  30.954   3.513 -0.0415  0.3274 -0.1767
49847W        W92764  33.627  28.777   4.670  0.1354  0.0324  0.3536
49848W        W92765  33.801  31.971   5.969  0.0348  0.2612 -0.1063
49849W        W92766  29.171  30.698   5.329  0.1848  0.0103  0.1530
49850W        W92767  31.520  32.127   5.036  0.0274 -0.1567  0.2351
49851W        W92768  32.955  31.799   3.697 -0.1463 -0.0126 -0.2536
49852W        W92769  31.189  32.042   5.485  0.0406 -0.1813  0.3175
49853W        W92770  30.330  29.684   5.665  0.3413  0.0614  0.2488
49854W        W92771  31.248  31.310   6.163  0.2932 -0.4328  0.1584
49855W        W92772  31.624  32.314   4.460 -0.0621 -0.0875 -0.2995
49856W        W92773  29.398  30.866   2.887 -0.1037 -0.2540 -0.1780
49857W        W92774  29.948  31.865   3.730  0.1472 -0.1208 -0.0341
49858W        W92775  30.550  32.815   5.627 -0.1709 -0.1081 -0.5141
49859W        W92776  31.904  30.953   5.850 -0.2123 -0.2835 -0.0429
49860W        W92777  29.423  31.268   4.295 -0.0570 -0.0739 -0.0734
49861W        W92778  31.297  30.629   2.442 -0.0055  0.5915 -0.2013
49862W        W92779  30.783  30.764   2.312 -0.1834 -0.0072  0.0425
49863W        W92780  32.780  33.184   4.224  0.3412  0.1999  0.2475
49864W        W92781  30.198  30.389   4.905  0.0889  0.1316  0.0702
49865W        W92782  30.165  32.622   5.972 -0.0467 -0.1602 -0.0366
49866W        W92783  30.074  31.797   1.572 -0.1019 -0.0431  0.1266
49867W        W92784  31.392  31.650   3.189  0.0242 -0.2561  0.2646
49868W        W92785  30.457  30.346   6.243 -0.2075 -0.2358 -0.3978
49869W        W92786  30.214  31.832   7.451 -0.0784  0.0564 -0.0040
49870W        W92787  32.005  31.318   4.121  0.1852 -0.0627  0.0351
49871W        W92788  32.898  31.104   6.090 -0.1996 -0.1187  0.2163
49872W        W92789  33.789  30.807   2.467 -0.3234 -0.3137  0.0185
49873W        W92790  31.865  32.923   5.199  0.1334 -0.2832 -0.0268
49874W        W92791  28.715  30.076   4.088 -0.0830 -0.3355 -0.1545
49875W        W92792  29.873  30.788   4.999  0.0962 -0.0123  0.2995
49876W        W92793  31.536  30.242   6.795  0.0431  0.2896  0.0724
49877W        W92794   1.636  29.125   4.354  0.0509  0.0508 -0.1634
49878W        W92795  30.444  30.946   7.385 -0.1399  0.0478  0.0581
49879W        W92796  33.722  31.862   2.221  0.1453  0.3275 -0.0276
49880W        W92797  28.204  30.570   4.237  0.2172 -0.0917 -0.4396
49881W        W92798  29.834  30.092   5.145  0.0598 -0.1890  0.2702
49882W        W92799  31.855  28.908   5.514  0.0594  0.1258 -0.0890
49883W        W92800  32.874  30.248   1.244 -0.0214 -0.3806 -0.1289
49884W        W92801  29.012  30.461   3.200 -0.2793 -0.0610 -0.0532
49885W        W92802  32.169  32.918   3.406  0.2665 -0.0421 -0.1660
49886W        W92803  29.166  32.816   6.322 -0.1210  0.0265 -0.3854
49887W        W92804  31.456  31.582   5.193  0.0858 -0.0322 -0.0381
49888W        W92805  27.529  29.822   4.141  0.2990 -0.0386  0.4181
49889W        W92806   0.503  30.690   5.075  0.2137 -0.3744  0.0485
49890W        W92807  33.180  30.219   4.354 -0.0703  0.0596  0.1314
49891W        W92808  32.625  30.169   7.217 -0.1273 -0.0543 -0.1644
49892W        W92809  28.493  29.364   5.221  0.1684 -0.1350  0.0146
49893W        W92810  33.723  31.283   4.203  0.0260  0.0344 -0.1946
49894W        W92811  29.611  30.310   4.100  0.3355  0.1044 -0.1501
49895W        W92812  28.453  31.071   6.532 -0.0647  0.3568  0.0173
49896W        W92813  32.441  30.856   2.928  0.1227 -0.2473  0.1028
49897W        W92814  31.623  32.084   6.279  0.1029  0.4521  0.0876
49898W        W92815  30.914  29.855   2.619 -0.2487  0.3642 -0.0051
49899W        W92816  31.534  34.002   7.991  0.0725  0.0709  0.1616
49900W        W92817  29.645  29.666   6.526 -0.2632 -0.1044 -0.1343
49901W        W92818  28.341  31.295   4.665  0.2909  0.2134  0.1068
49902W        W92819  30.990  30.474   3.524  0.1074 -0.0704 -0.1345
49903W        W92820  32.193  32.060   5.396  0.0923  0.0266 -0.1893
49904W        W92821  33.459  32.725   5.960  0.3656 -0.0652 -0.0314
49905W        W92822  28.860  29.798   5.253 -0.2491  0.1096  0.0408
49906W        W92823  31.847  31.782   4.243  0.2616 -0.0658  0.1515
49907W        W92824  33.237  29.905   6.429 -0.0345 -0.0208  0.0973
49908W        W92825  29.888  32.457   2.943  0.1944  0.0736 -0.2696
49909W        W92826  32.793  31.104   4.168 -0.3989 -0.0341 -0.3509
49910W        W92827  32.034  31.661   3.769  0.2021  0.1022 -0.1248
49911W        W92828  29.206  29.600   6.726 -0.1640 -0.0202  0.1699
49912W        W92829  32.102  31.937   6.226  0.0001  0.0730  0.3080
49913W        W92830  31.322  33.158   4.548  0.0262 -0.1687 -0.1097
49914W        W92831  30.645  30.039   4.911 -0.3661 -0.1438  0.0860
49915W        W92832  30.428  31.289   6.471 -0.1619  0.0357  0.0269
49916W        W92833  30.212  32.052   4.584 -0.2470 -0.0036  0.2684
49917W        W92834  32.790  30.547   4.269  0.0156 -0.0399  0.0445
49918W        W92835  32.645  31.743   7.979 -0.2734 -0.1397 -0.0994
49919W        W92836  32.598  32.381   2.455  0.0267  0.2077  0.1039
49920W        W92837  32.158  28.505   5.858  0.1687  0.4205 -0.2322
49921W        W92838  31.133  32.633   4.479  0.2277  0.0447  0.3139
49922W        W92839  30.948  33.201   8.043 -0.5040 -0.0155  0.0099
49923W        W92840  29.314  32.206   6.455 -0.1477 -0.0434  0.1110
49924W        W92841  32.806  32.728   6.295 -0.1800  0.1063 -0.2706
49925W        W92842  32.761  32.092   4.489 -0.2143  0.1916  0.1334
49926W        W92843  30.760  31.350   2.594  0.1518 -0.0432 -0.0470
49927W        W92844  31.124  31.084   4.386 -0.1581 -0.0926  0.0003
49928W        W92845  29.192  28.390   5.656 -0.1673  0.2144 -0.1381
49929W        W92846  31.369  32.555   2.695  0.3225  0.2130  0.1114
49930W        W92847  30.607  29.179   4.479 -0.0802  0.0079 -0.1387
49931W        W92848  31.080  28.995   4.141 -0.0691  0.2415  0.1886
49932W        W92849  32.362  29.340   3.729 -0.0604 -0.1563 -0.3155
49933W        W92850  32.403  32.452   6.122  0.0608 -0.0210  0.0221
49934W        W92851  30.716  30.879   2.887  0.1081 -0.2119 -0.0493
49935W        W92852  30.437  30.921   1.943  0.4146  0.0645 -0.1410
49936W        W92853  30.283  31.696   5.422  0.1811  0.1652  0.0871
49937W        W92854  30.932  28.185   7.765 -0.3026  0.1069  0.1612
49938W        W92855  30.215  30.627   6.589  0.0868 -0.3806 -0.3048
49939W        W92856  30.191  32.434   4.036 -0.1151 -0.2884 -0.0047
49940W        W92857  29.095  29.890   6.268  0.0121 -0.2605 -0.1799
49941W        W92858  33.001  32.177   3.955 -0.1971 -0.2441 -0.0494
49942W        W92859  29.430  29.435   3.105 -0.0946  0.0907  0.0246
49943W        W92860  29.796  30.042   5.693  0.0396 -0.0789 -0.0979
49944W        W92861  31.235  31.109   5.389 -0.2321 -0.3163  0.1850
49945W        W92862  32.401  31.286   5.141 -0.0825  0.2039 -0.0193
49946W        W92863  32.441  31.569   5.918  0.1827 -0.3531 -0.1292
49947W        W92864  33.622  31.211   8.700  0.1743  0.3225 -0.0065
49948W        W92865  31.085  31.276   2.140  0.1039 -0.1150 -0.0945
49949W        W92866  32.574  30.060   8.025  0.0181 -0.2099  0.1087
49950W        W92867  31.863  31.529   7.539 -0.2580  0.0340  0.2418
49951W        W92868  28.026  29.589   5.116 -0.5094 -0.3000  0.2786
49952W        W92869  33.368  29.975   5.881  0.1290  0.1624 -0.0049
49953W        W92870  30.649  31.750   4.678  0.2102  0.0841 -0.0511
49954W        W92871  33.361  32.900   3.496  0.0320  0.0114  0.0208
49955W        W92872  31.164  33.533   6.011  0.3054  0.0746  0.1338
49956W        W92873  30.763  32.064   6.249 -0.0031 -0.1110 -0.1028
49957W        W92874  31.432  29.470   7.133  0.1604 -0.1216 -0.1436
49958W        W92875  32.963  31.680   5.127 -0.0074 -0.3087  0.0538
49959W        W92876  32.776  31.876   7.141  0.1168  0.2259  0.0418
49960W        W92877  34.014  32.401   4.519  0.1680 -0.1400  0.0883
49961W        W92878  31.964  30.494   3.691  0.1132  0.0338 -0.0327
49962W        W92879  33.267  30.877   3.572  0.0053  0.1727  0.4156
49963W        W92880  29.557  28.579   6.378  0.1006  0.1059  0.1404
49964W        W92881  30.651  31.451   3.526  0.2917 -0.2154  0.0127
49965W        W92882  33.669  31.764   7.417  0.1330  0.0674  0.1244
49966W        W92883  30.556  29.795   6.446  0.1143 -0.2243  0.1008
49967W        W92884  31.463  30.464   3.827 -0.0115  0.2384 -0.3998
49968W        W92885  31.292  32.519   3.188 -0.0525 -0.0457  0.0547
49969W        W92886  29.739  32.252   5.803  0.1547 -0.1631 -0.1296
49970W        W92887  30.104  30.252   4.387 -0.1614 -0.2894  0.0952
49971W        W92888  31.376  28.983   6.748 -0.1786 -0.0801  0.0597
49972W        W92889  30.146  32.200   6.196  0.1764 -0.0307  0.0600
49973W        W92890  31.981  32.233   5.839 -0.1567 -0.0719  0.0522
49974W        W92891  31.677  31.296   3.588  0.0182 -0.1972 -0.0592
49975W        W92892  33.952  30.196   3.615  0.4339  0.0714  0.0953
49976W        W92893  33.804  34.649   6.811 -0.6380  0.0257 -0.0211
49977W        W92894  32.991  32.504   8.234 -0.0711 -0.0847  0.1087
49978W        W92895  30.563  31.972   5.077  0.0054  0.0979 -0.0651
49979W        W92896  32.273  32.075   4.330 -0.1658  0.0698  0.3855
49980W        W92897  30.255  28.584   6.284  0.2940  0.1482 -0.0039
49981W        W92898  31.408  30.812   3.451 -0.1038 -0.5705  0.2269
49982W        W92899  31.597  30.722   5.452  0.0574  0.3887 -0.1325
49983W        W92900  32.581  31.203   7.314 -0.1067  0.0653 -0.2642
49984W        W92901  29.391  31.364   5.748 -0.0739  0.0753  0.3261
49985W        W92902  31.740  28.559   3.815  0.0205  0.1572  0.2337
49986W        W92903  30.910  33.895   5.798  0.2137 -0.1690  0.0185
49987W        W92904  30.362  31.080   3.895  0.2115 -0.0720 -0.2014
49988W        W92905  32.183  30.664   9.134  0.3131 -0.2537 -0.2031
49989W        W92906  32.261  29.704   6.433  0.1216  0.0789 -0.2299
49990W        W92907  31.238  29.180   8.585 -0.0314 -0.1936  0.0836
49991W        W92908  33.358  29.556   7.400 -0.1176 -0.0911  0.2583
49992W        W92909  30.602  28.569   7.890  0.3038  0.2349 -0.3068
49993W        W92910  31.303  32.506   7.533 -0.0510 -0.1261 -0.1821
49994W        W92911  33.216  33.371   7.947  0.0661 -0.1821 -0.0815
49995W        W92912  33.229  33.848   8.289 -0.1212 -0.1456  0.0448
49996W        W92913  31.770  31.022   7.704  0.0828  0.2892 -0.0726
49997W        W92914  30.645  31.116   8.231  0.1806 -0.0847 -0.0869
49998W        W92915  31.573  30.120   7.894  0.1972  0.1608 -0.2566
49999W        W92916  28.568  31.570   6.466 -0.2208 -0.0077 -0.1559
50000W        W92917  33.404  29.700   8.430 -0.2085  0.0032  0.0464
50001W        W92918  28.638  31.045   8.532  0.2001 -0.1097 -0.1818
50002W        W92919  32.685  29.566   9.400  0.1578 -0.1265 -0.1810
50003W        W92920  34.194  30.003   8.851 -0.1811 -0.0844  0.1766
50004W        W92921  32.405  33.802   6.743 -0.1041 -0.0801 -0.1238
50005W        W92922  32.288  25.099   8.993 -0.1012  0.1055  0.1784
50006W        W92923  30.320  32.748   8.680 -0.1032  0.1340  0.0754
50007W        W92924  31.449  31.431   5.685 -0.1853  0.0541  0.0661
50008W        W92925  30.705  29.435   8.743  0.3161 -0.3583 -0.2679
50009W        W92926  32.500  32.621   8.479 -0.3736 -0.2142  0.0878
50010W        W92927  31.313  28.809   8.949  0.0932 -0.3250  0.3336
50011W        W92928  33.380  30.151   9.144  0.0517  0.1337 -0.0163
50012W        W92929  29.961  32.044   8.324  0.0925 -0.0819  0.1833
50013W        W92930  32.541  33.217   8.609  0.3405 -0.1248 -0.0744
50014W        W92931  29.367  31.731   7.513  0.3633 -0.2030 -0.2360
50015W        W92932  32.167  32.128   9.667 -0.2083  0.1220 -0.1494
50016W        W92933  30.839  31.551   7.862  0.1768 -0.0407  0.3280
50017W        W92934  33.278  31.286   9.118  0.0311  0.0708  0.0484
50018W        W92935  29.856  32.923   7.989 -0.0994 -0.2639  0.1352
50019W        W92936  32.051  33.587   8.358  0.0560  0.0321 -0.0681
50020W        W92937  30.824  31.681   8.457  0.2873  0.4543 -0.0012
50021W        W92938  31.938  31.211   6.756 -0.0472 -0.0572 -0.1674
50022W        W92939  33.144  30.703   9.261  0.0728  0.1585  0.1875
50023W        W92940  30.149  30.001   9.006 -0.3430 -0.1325 -0.0290
50024W        W92941  29.333  31.711   6.644  0.0189  0.1401  0.2187
50025W        W92942  32.925  29.544   7.006 -0.1870 -0.2649  0.0418
50026W        W92943  31.029  29.297   6.347 -0.4929  0.0031 -0.1479
50027W        W92944  32.843  30.254   7.643 -0.1031  0.4680  0.2138
50028W        W92945  30.490  28.207   8.717  0.0603 -0.2012  0.1006
50029W        W92946  31.045  32.017   9.277  0.2433  0.3229  0.0834
50030W        W92947  31.169  31.188   8.026 -0.0999  0.0070 -0.0207
50031W        W92948  31.643  29.912   8.847  0.2620  0.1725 -0.0451
50032W        W92949  32.241  30.320   8.285 -0.3057 -0.1270 -0.2438
50033W        W92950  30.367  30.664   8.396 -0.2412  0.0998  0.0557
50034W        W92951  29.393  29.146   8.023  0.0770 -0.0463 -0.0815
50035W        W92952  33.734  32.790   7.533  0.0351 -0.1658 -0.2836
50036W        W92953   0.111  31.891   7.966  0.2807 -0.1394  0.3024
50037W        W92954  31.823  32.595   7.371 -0.5047  0.2023  0.0421
50038W        W92955  31.659  31.879   5.544 -0.0325  0.3278  0.0339
50039W        W92956  29.801  28.731   7.163 -0.2356 -0.1892 -0.0672
50040W        W92957  33.707  30.559   9.379  0.0900  0.0481 -0.0334
50041W        W92958  31.544  31.612   9.102  0.2697 -0.0231  0.2263
50042W        W92959  31.989  31.461   8.476  0.1220 -0.0251  0.2268
50043W        W92960  33.486  32.927   6.552  0.3571 -0.3326 -0.1156
50044W        W92961  33.438  29.448   7.865 -0.0727  0.1826 -0.0210
50045W        W92962  33.966  30.866   9.745 -0.1747  0.1386 -0.1950
50046W        W92963  31.653  33.352   5.926  0.0787 -0.3307  0.0162
50047W        W92964  32.935  30.315   8.971  0.2734  0.1729  0.0810
50048W        W92965  32.784  34.541   9.435  0.2110 -0.0658  0.1078
50049W        W92966  33.308  30.641   7.885  0.0990  0.0703  0.2990
50050W        W92967  30.837  30.653   7.464 -0.2660 -0.4080 -0.0753
50051W        W92968  30.146  33.448   6.980 -0.0670  0.3523  0.1557
50052W        W92969  30.753  31.078   7.713 -0.1938  0.2459  0.1847
50053W        W92970  28.897  30.782   6.491 -0.1954 -0.0218  0.0110
50054W        W92971  31.823  30.894   9.476 -0.3079 -0.0479  0.1945
50055W        W92972  31.980  32.614   9.130  0.2185 -0.1257 -0.2225
50056W        W92973  34.161  29.210   6.303 -0.2619  0.0442 -0.3675
50057W        W92974  33.172  28.774   7.073  0.0476  0.1571  0.0027
50058W        W92975  30.596  30.696   6.889 -0.2423 -0.0560 -0.0149
50059W        W92976  33.165  32.105   8.996 -0.0343  0.1538  0.3583
50060W        W92977  33.374  30.749   8.340 -0.0429  0.3853 -0.2647
50061W        W92978  32.469  32.044   5.808  0.0082  0.2199  0.3938
50062W        W92979  28.564  31.085   7.135  0.1851 -0.1218 -0.0197
50063W        W92980  30.483  30.137   8.059 -0.0538  0.0813  0.0869
50064W        W92981  30.843  30.390   9.133 -0.1324 -0.0368  0.2683
50065W        W92982  31.076  29.494   8.200 -0.0400 -0.0406  0.2651
50066W        W92983  32.153  27.784   7.979  0.3546  0.0510  0.1396
50067W        W92984  29.334  29.039   8.521  0.1457  0.2011 -0.0015
50068W        W92985  30.815  30.605   7.958 -0.0368  0.0547  0.1430
50069W        W92986  31.702  31.658   7.059 -0.0827  0.2040 -0.1242
50070W        W92987  31.730   0.447   9.441  0.2155 -0.0811 -0.1063
50071W        W92988  31.253  32.079   7.790  0.0741 -0.0257  0.3655
50072W        W92989  30.210  30.138   8.461  0.0962 -0.1036 -0.0018
50073W        W92990  31.224  29.924   7.056  0.1561 -0.2552 -0.0041
50074W        W92991  29.133  32.177   7.279  0.0471  0.2026  0.1354
50075W        W92992  33.207  32.941   7.530 -0.3197 -0.0115  0.0654
50076W        W92993  33.019  29.159   7.365 -0.0562  0.2473  0.2938
50077W        W92994  31.996  32.858   8.702  0.2218 -0.4993  0.2079
50078W        W92995  31.661  31.868   8.375  0.0382  0.1948 -0.1803
50079W        W92996  32.119  31.103   8.880  0.0788 -0.4012  0.0949
50080W        W92997  33.888  32.071   9.603  0.1683  0.0724 -0.0993
50081W        W92998  30.344  29.289   7.618  0.0470  0.0920  0.0109
50082W        W92999  32.381  31.597   9.549 -0.1029  0.1975 -0.1004
50083W        W93000  29.740  31.763   7.236 -0.1535 -0.3217 -0.2638
50084W        W93001  30.708  28.345   6.892  0.0313  0.0931 -0.1636
50085W        W93002  31.102  33.351   8.688  0.0048  0.0059  0.0866
50086W        W93003  31.992  28.574   7.294  0.2245  0.2062 -0.0262
50087W        W93004  31.204  31.433   3.607  0.1147 -0.1365 -0.0797
50088W        W93005  33.464  27.866   8.243  0.2202  0.1796  0.3512
50089W        W93006  32.927  30.382   8.160  0.2998 -0.0546  0.2585
50090W        W93007  34.122  28.985   8.775  0.0172 -0.0855 -0.1365
50091W        W93008  30.848  31.006   5.957 -0.1273  0.2362  0.1113
50092W        W93009  32.410  29.797   7.518  0.1183 -0.0650 -0.1694
50093W        W93010  31.829  32.881   7.809 -0.1744 -0.0321 -0.0746
50094W        W93011  33.013  32.107  10.099  0.0521  0.1568  0.1327
50095W        W93012  33.457  31.734   8.677 -0.1668  0.0327  0.0290
50096W        W93013  33.005  32.012   8.296  0.0194  0.3748 -0.0438
50097W        W93014  30.615  31.546   7.440 -0.0263  0.2170 -0.0625
50098W        W93015  32.390  31.705   8.884  0.3348  0.1391 -0.0388
50099W        W93016  29.878  29.656   9.218 -0.0906  0.3291 -0.1070
50100W        W93017  30.117  30.963   5.601  0.2052 -0.0617 -0.0386
50101W        W93018  32.083  29.998   7.214  0.2950 -0.0703 -0.0780
50102W        W93019  28.843  32.396   6.292 -0.1456  0.4286  0.0601
50103W        W93020  33.978  29.722   8.433 -0.0260  0.0011 -0.0072
50104W        W93021  31.623  30.547   8.399 -0.2404 -0.0080 -0.1818
50105W        W93022  32.552  30.695   7.260 -0.0163 -0.5129  0.2446
50106W        W93023  29.980  30.996   9.073 -0.0570  0.1016  0.0857
50107W        W93024  30.225  31.744   6.345  0.0623 -0.0944 -0.0159
50108W        W93025   3.654  27.990   9.560 -0.2198  0.2650 -0.1201
50109W        W93026  28.533  28.241   8.890 -0.2590 -0.2148 -0.0048
50110W        W93027  29.651  31.235   8.688  0.0875  0.3587  0.0901
50111W        W93028  31.376  30.717   7.950  0.1738  0.0663  0.0571
50112W        W93029  30.646  32.020   7.676 -0.3080 -0.1446  0.0975
50113W        W93030  31.701  31.102   6.292 -0.0746 -0.1737  0.0535
50114W        W93031  30.542  25.144   9.568  0.5509 -0.0802 -0.4526
50115W        W93032  31.753  32.400   7.839 -0.1447 -0.0522 -0.0290
50116W        W93033  30.844  32.462   7.775 -0.1871 -0.0350  0.0213
50117W        W93034  32.008  31.508   9.197  0.1941 -0.3565 -0.2967
50118W        W93035  31.330  30.566   7.212 -0.0396 -0.4338  0.0215
50119W        W93036  34.275  29.756   9.372 -0.0164  0.1570  0.1122
50120W        W93037  28.184  31.948   7.396  0.3613  0.1843  0.2113
50121W        W93038  30.340  30.201   5.404 -0.1602  0.2433  0.1626
50122W        W93039  29.935  29.898   8.051  0.4257  0.1284  0.0167
50123W        W93040  30.549  32.388   9.944 -0.0649 -0.0385 -0.2563
50124W        W93041   0.459  31.465   8.973  0.0855 -0.0401 -0.1556
50125W        W93042  32.139  30.965   7.182 -0.0239 -0.0543 -0.0751
50126W        W93043  31.358  30.737   9.312 -0.1589 -0.2093 -0.3664
50127W        W93044  29.172  30.408   8.907  0.4315  0.2192 -0.0974
50128W        W93045  31.877  29.139   7.643 -0.0711  0.2013  0.0374
50129W        W93046  31.681  29.046   7.216 -0.1589  0.3465 -0.2330
50130W        W93047  33.454  31.773   9.259  0.0330  0.1323  0.2857
50131W        W93048  30.998  31.826   7.341 -0.1242  0.1130 -0.2827
50132W        W93049  29.436  30.564   7.435 -0.0025  0.0788 -0.2085
50133W        W93050  33.307   0.065   8.823  0.0747 -0.1139  0.4212
50134W        W93051  31.060  28.674   6.427  0.3386 -0.0506  0.2359
50135W        W93052  29.293  31.501   7.081  0.1075  0.3364 -0.2869
50136W        W93053  33.220  32.686   9.069 -0.4363  0.1347  0.0957
50137W        W93054  34.506  29.464   8.193 -0.3367 -0.4530 -0.0295
50138W        W93055  31.695  30.695   8.892  0.1447 -0.2137  0.0264
50139W        W93056  31.119  30.806   8.354 -0.0993  0.1103 -0.0633
50140W        W93057  31.830  33.976   8.696  0.0756 -0.0024  0.0383
50141W        W93058  32.278  30.810   9.709  0.1477 -0.3939 -0.0145
50142W        W93059  31.181  28.322   9.445 -0.2040 -0.2794  0.3195
50143W        W93060  34.427  31.271   7.957  0.0388  0.1486  0.1632
50144W        W93061  31.116  30.918   6.881  0.1597 -0.3449 -0.0011
50145W        W93062  29.322  31.071   9.437  0.2188  0.0411  0.1979
50146W        W93063  31.351  32.190   8.235 -0.1834 -0.1615  0.0050
50147W        W93064  30.274  29.647   8.624  0.3822  0.0526 -0.0519
50148W        W93065  30.954  31.166   9.332  0.0282  0.0400 -0.1594
50149W        W93066  30.389  30.439   7.658  0.1065  0.1534  0.3635
50150W        W93067  30.438  29.571   8.127  0.3009  0.1691 -0.1260
50151W        W93068   0.112  28.914   5.624  0.1609 -0.1389 -0.0858
50152W        W93069  32.135  33.277   6.002 -0.0329 -0.0406  0.1535
50153W        W93070  34.195  30.287   8.255 -0.1335  0.1601  0.2186
50154W        W93071  30.867  30.375   8.402 -0.1211 -0.1427  0.0222
50155W        W93072  33.330  30.291   8.701  0.0458 -0.2603  0.3185
50156W        W93073  32.653  30.871   8.952  0.3733 -0.1199  0.0492
50157W        W93074  33.467  29.386   8.812 -0.0443 -0.0268  0.2890
50158W        W93075  31.525  28.837   7.666  0.0636  0.1231 -0.2079
50159W        W93076  31.293  30.451   8.693 -0.2239 -0.0660 -0.0906
50160W        W93077  32.994  30.992   7.147 -0.1151  0.0997  0.3268
50161W        W93078  31.689  33.221   8.621 -0.0488  0.1999 -0.1344
50162W        W93079  34.408  30.295   9.758  0.0840 -0.1198  0.2574
50163W        W93080  32.093  31.068   8.158 -0.1924 -0.1849  0.0436
50164W        W93081  31.987  30.264   8.796 -0.3304 -0.3345 -0.0010
50165W        W93082  31.043  30.014   7.977  0.2410  0.0585  0.0147
50166W        W93083  31.311  31.911   6.953 -0.0241 -0.1889 -0.1988
50167W        W93084  34.065  30.915   7.684 -0.1238 -0.0913  0.1166
50168W        W93085  30.283  28.691   8.447  0.3041  0.2232  0.0626
50169W        W93086   0.048  31.945   9.656  0.0864  0.0294  0.1875
50170W        W93087  33.319  29.008   6.203 -0.0450  0.0572  0.2454
50171W        W93088  33.715  29.861   8.855 -0.0758  0.1226  0.0959
50172W        W93089  34.546  32.061   8.359  0.2202 -0.0984  0.1371
50173W        W93090  31.373  31.553   7.625 -0.3207  0.1529  0.0702
50174W        W93091  27.685  29.023   7.958  0.2093  0.1907  0.0169
50175W        W93092  31.760  29.619   7.451  0.1360 -0.0168  0.0433
50176W        W93093  31.142  33.144   7.588  0.5138  0.1982  0.1971
50177W        W93094  32.979  33.000   8.157 -0.2605 -0.1646 -0.2039
50178W        W93095  32.097  29.484   8.295  0.1237  0.0426 -0.0453
50179W        W93096  29.378  29.914   9.033 -0.3187  0.0031 -0.3999
50180W        W93097  30.592  30.030   5.829  0.0941 -0.1554 -0.2348
50181W        W93098  32.980  31.707   8.715 -0.2252  0.3660 -0.3218
50182W        W93099  31.714  32.358   8.608  0.0205 -0.2993 -0.1012
50183W        W93100  32.363  29.437   7.851 -0.0280  0.4032  0.0321
50184W        W93101  28.877  31.961   6.788  0.2715  0.0024  0.0210
50185W        W93102  31.157  27.532   8.986 -0.0207  0.0638 -0.1575
50186W        W93103  31.281  34.474   9.393  0.2780 -0.2382  0.1730
50187W        W93104  30.574  31.985   7.136 -0.0985 -0.0158 -0.2873
50188W        W93105   0.059  26.271   9.463 -0.1376 -0.1524 -0.0132
50189W        W93106  34.450  30.636   7.445 -0.1092  0.1294 -0.0190
50190W        W93107  32.796  32.035   9.621 -0.0959  0.1469  0.1206
50191W        W93108  30.915  31.228   8.604 -0.2821  0.3010 -0.2510
50192W        W93109  32.881  29.995   9.406  0.1415 -0.0992 -0.0572
50193W        W93110  29.512  32.112   8.836  0.0063  0.0100  0.2363
50194W        W93111  30.689  31.541   9.473 -0.0546  0.1163 -0.2562
50195W        W93112  30.865  29.008   7.794  0.2903  0.3080  0.2280
50196W        W93113  32.926  33.485   8.382 -0.0364 -0.1744  0.1825
50197W        W93114  29.094  32.915   9.863  0.1271  0.2091  0.0539
50198W        W93115  29.048  33.617   8.205 -0.3771  0.1072 -0.2104
50199W        W93116  30.477  31.379   5.067 -0.0103 -0.4243  0.0688
50200W        W93117  33.023  32.048   7.601 -0.0343  0.2766 -0.1442
50201W        W93118  33.818  34.643   8.620 -0.0600 -0.1859  0.4116
50202W        W93119  32.103  30.767   8.529 -0.0174 -0.0354 -0.1620
50203W        W93120  30.801  33.830   9.621 -0.0201 -0.2240 -0.5462
50204W        W93121  29.029  31.305   6.544  0.2461  0.2620  0.4967
50205W        W93122  32.096  31.368   6.263 -0.2893 -0.0289  0.1629
50206W        W93123  31.511  33.692   8.367 -0.2305 -0.0569 -0.0953
50207W        W93124  33.156  29.246   4.908 -0.0663 -0.0633  0.0671
50208W        W93125  31.928  30.612   8.031  0.1190 -0.0749  0.0727
50209W        W93126  33.751  30.390   7.550  0.0956 -0.1428 -0.1826
50210W        W93127  30.076  32.223   9.591 -0.3179  0.0864  0.0658
50211W        W93128  31.999  30.026   7.750  0.0185 -0.1068  0.1637
50212W        W93129  34.649  32.398   6.817  0.2434  0.0260  0.2757
50213W        W93130  29.982  31.353   6.017 -0.1309 -0.0023 -0.0577
50214W        W93131  33.518  30.720   8.882  0.1169  0.0506 -0.2435
50215W        W93132  32.465  30.450   8.722 -0.0999  0.1080  0.1474
50216W        W93133  32.053  32.034   7.245  0.1419  0.0273 -0.0210
50217W        W93134  32.879  30.007   8.529  0.1493  0.0987  0.3017
50218W        W93135  32.314  34.238   8.605 -0.1393 -0.0750  0.3051
50219W        W93136  31.364  31.443   9.554 -0.0590  0.0799 -0.1487
50220W        W93137  33.526  31.087   9.526  0.1408 -0.3615 -0.0828
50221W        W93138  29.421  28.680   5.935  0.2041 -0.0682  0.1027
50222W        W93139  34.652  31.298   9.838  0.5549  0.1327 -0.0968
50223W        W93140  30.644  32.709   9.112  0.1160 -0.1291  0.1937
50224W        W93141  31.767  30.508   7.594 -0.0273 -0.3289 -0.3646
50225W        W93142  33.420  32.280   7.807  0.1906  0.1001 -0.1008
50226W        W93143  30.331  32.281   9.111  0.0191  0.2075 -0.0198
50227W        W93144  31.250  29.263   7.622 -0.2170 -0.3714  0.0617
50228W        W93145  32.937  30.646   8.592  0.2781  0.0778  0.1269
50229W        W93146  32.157  31.537   7.099 -0.2638 -0.2727 -0.0690
50230W        W93147  28.881  29.192   8.738 -0.1081 -0.0369 -0.1888
50231W        W93148  32.543  29.300   7.421 -0.0679 -0.0421  0.2832
50232W        W93149  30.783  30.085   7.515 -0.1022  0.2092  0.0396
50233W        W93150  33.390  32.769   9.559 -0.1048  0.0414 -0.1706
50234W        W93151  29.927  27.814   7.965  0.4113 -0.0223 -0.0102
50235W        W93152  32.331  32.539   6.652  0.2026 -0.0360 -0.0292
50236W        W93153  30.618  29.737   9.158 -0.1752  0.0741 -0.1387
50237W        W93154  29.595  34.086   6.761  0.1261 -0.0308 -0.1957
50238W        W93155  31.260  29.779   7.566 -0.1908 -0.1817 -0.0047
50239W        W93156  32.663  33.956   9.478 -0.0020 -0.0498  0.0022
50240W        W93157  30.301  30.857   7.923  0.1084  0.1220 -0.1081
50241W        W93158  32.460  32.852   8.987 -0.1406  0.2144 -0.0081
50242W        W93159  32.627  29.695   8.873  0.1019  0.0891  0.0644
50243W        W93160  32.232  28.390   6.881  0.1934 -0.0996 -0.0266
50244W        W93161  29.574  30.730   8.459 -0.0822  0.1194  0.3111
50245W        W93162  30.228  32.886   7.046 -0.0155 -0.1697  0.0114
50246W        W93163  32.882  29.656   7.574  0.0964 -0.1487  0.0090
50247W        W93164  32.393  31.668   7.524  0.1847 -0.1005 -0.0845
50248W        W93165  31.432  33.276   9.170 -0.1054  0.0319 -0.0390
50249W        W93166  31.742  29.758   6.921  0.0395 -0.2674 -0.2391
50250W        W93167  33.971  31.822   9.207  0.4346  0.0202  0.0484
50251W        W93168  30.765  33.639   7.706  0.3315  0.1882 -0.0408
50252W        W93169  32.248  32.624   7.671  0.3094  0.2978  0.0651
50253W        W93170  33.124  31.092   8.661 -0.2636 -0.2206 -0.2461
50254W        W93171  32.479  33.385   8.147 -0.1594 -0.2091 -0.0775
50255W        W93172  32.114  32.057   7.882  0.0890  0.2532  0.2765
50256W        W93173   0.123  29.688   5.058  0.0348 -0.0989 -0.1889
50257W        W93174  31.750  28.218   6.678 -0.2160 -0.3182  0.2073
50258W        W93175  31.548  32.257   9.070 -0.0884 -0.0490  0.1415
50259W        W93176  30.338  27.024   7.226 -0.2827 -0.0763  0.0084
50260W        W93177  29.589  30.999   5.423  0.0247 -0.1278 -0.3360
50261W        W93178  32.924  31.091   9.443  0.2603  0.1577  0.0317
50262W        W93179  28.812  29.741   8.704  0.3345  0.0825 -0.0012
50263W        W93180  32.275  30.995   7.668 -0.1887  0.0280 -0.2832
50264W        W93181  33.916  29.695   6.962 -0.0456  0.0051 -0.0428
50265W        W93182  29.251  29.517   8.468  0.0434 -0.0102  0.0392
50266W        W93183  28.440  31.516   7.345 -0.1704  0.2461 -0.2788
50267W        W93184  34.143  33.952   8.145  0.1445 -0.2306  0.1045
50268W        W93185  33.656  33.166   8.068 -0.3440  0.0408  0.0754
50269W        W93186  32.690  28.695   7.221 -0.3006  0.1175  0.2744
50270W        W93187  31.202  31.867   5.986  0.3291  0.0244 -0.3244
50271W        W93188  28.898  30.244   6.553 -0.1997  0.0222 -0.2058
50272W        W93189  31.002   0.124   9.664  0.2094  0.2184 -0.1378
50273W        W93190  29.696  32.425   9.347 -0.2499 -0.1220  0.0322
50274W        W93191  32.117  34.245   5.904  0.1469  0.0795  0.0054
50275W        W93192  33.033  29.310   8.175  0.3241 -0.2004  0.1286
50276W        W93193  32.142  31.551   7.986 -0.1401 -0.1248 -0.2505
50277W        W93194   0.263  30.839   8.159 -0.2214  0.0584 -0.0891
50278W        W93195  31.134  29.662   8.695  0.0179 -0.0563  0.1261
50279W        W93196  30.257  30.699   9.502  0.0162 -0.1649  0.0508
50280W        W93197  32.966  33.041   9.490  0.2159 -0.2014  0.0691
50281W        W93198  30.393  27.942   7.040 -0.0921  0.0520 -0.1972
50282W        W93199  34.324  29.046   5.721  0.1970 -0.1273  0.1954
50283W        W93200  33.004  31.667   9.315  0.1292  0.3381  0.2089
50284W        W93201  31.140  30.469   6.623 -0.0306 -0.0356 -0.0071
50285W        W93202  31.733  29.047   8.603 -0.1741 -0.3071  0.0977
50286W        W93203  31.616  32.023   9.514 -0.1131 -0.0179  0.0427
50287W        W93204  30.332  30.111   7.122 -0.1408  0.3188  0.1940
50288W        W93205  33.854  30.651   6.596 -0.0356 -0.1845 -0.0382
50289W        W93206  33.106  34.044   9.269  0.3196  0.2489 -0.0563
50290W        W93207  31.902  32.512   9.758 -0.0328 -0.4928 -0.1373
50291W        W93208  32.357  31.117   9.335 -0.1405 -0.1462 -0.0834
50292W        W93209  30.300  29.090   7.073 -0.1449  0.2671  0.0983
50293W        W93210  30.551  32.451   6.972  0.0414 -0.3384  0.0586
50294W        W93211  32.385  30.467   6.819 -0.2030 -0.3358 -0.3331
50295W        W93212   0.389  31.084   8.610  0.1004 -0.3173 -0.1954
50296W        W93213  30.787  29.586   7.730 -0.1065 -0.1713 -0.2725
50297W        W93214  33.340  27.541   6.332  0.1365 -0.0296  0.2766
50298W        W93215  27.896  33.998   8.479  0.1395 -0.1971  0.2093
50299W        W93216  32.770  31.333   8.960 -0.5399 -0.1914 -0.0530
50300W        W93217  29.857   0.021   0.185 -0.3190  0.0594  0.4638
50301W        W93218  32.545   0.212  31.806 -0.2713 -0.0599  0.3430
50302W        W93219  31.045   0.283   1.344  0.1624  0.6515 -0.0864
50303W        W93220  29.973   0.043   1.684 -0.0869 -0.0389 -0.0144
50304W        W93221  31.652  33.677   0.257  0.4076  0.0087 -0.1453
50305W        W93222  32.778  33.243  30.721  0.0116 -0.0022 -0.2177
50306W        W93223  31.585  33.374   2.693 -0.1679  0.0569 -0.1522
50307W        W93224  30.606  32.329   0.881 -0.1458  0.2131  0.0318
50308W        W93225  29.725  32.105   0.591  0.2052 -0.0284  0.1643
50309W        W93226  32.831   0.084   0.958 -0.1994 -0.1708 -0.1190
50310W        W93227  30.026   0.391  31.555 -0.3875  0.2894 -0.0489
50311W        W93228  29.345   0.373   2.249  0.2233  0.1208  0.3450
50312W        W93229  32.154  34.443   0.524 -0.0560  0.1478 -0.0166
50313W        W93230  31.272  32.309   0.473 -0.0102  0.1046  0.1992
50314W        W93231  31.791  32.515   2.979  0.2119 -0.2410  0.2861
50315W        W93232  28.041  33.051  31.486 -0.1666  0.3730  0.1163
50316W        W93233  29.336  33.955   0.649  0.0974  0.2827  0.3317
50317W        W93234  32.867   1.374   3.608 -0.0543 -0.0569 -0.3568
50318W        W93235  31.575  32.414  31.793 -0.2632  0.0223  0.5282
50319W        W93236  31.977   1.681   1.514 -0.1491 -0.4519  0.0568
50320W        W93237  30.872  33.540   3.186 -0.0222 -0.0891 -0.0395
50321W        W93238  31.199  32.662   3.722 -0.0034 -0.1643 -0.0366
50322W        W93239  31.719  33.927   3.357 -0.2665 -0.1171 -0.0822
50323W        W93240  33.139  34.375   2.664 -0.0419  0.4398  0.2348
50324W        W93241  33.289  33.243  30.974 -0.2387  0.3028  0.1201
50325W        W93242  29.624   1.003  31.811  0.3697  0.0760  0.2653
50326W        W93243  29.819  34.259   1.491  0.0662  0.0984 -0.1182
50327W        W93244  29.531  31.987   1.543 -0.2315 -0.2321 -0.0286
50328W        W93245  31.919  33.623   2.284 -0.1708  0.1028  0.2445
50329W        W93246  29.519  34.629   1.832  0.1261 -0.0941 -0.2067
50330W        W93247  29.979  34.599   1.165 -0.2627  0.0209  0.0726
50331W        W93248  30.953   0.078   1.997  0.4176  0.3285 -0.0132
50332W        W93249  28.889  34.523   0.639  0.1015 -0.0027 -0.0748
50333W        W93250  31.041  33.963   3.427 -0.4295  0.1044  0.0527
50334W        W93251  30.628  33.117   2.995  0.0130 -0.0038  0.4001
50335W        W93252  31.297  34.607   1.057 -0.0907  0.0860 -0.0174
50336W        W93253  33.302   1.068   0.618 -0.0550 -0.1856 -0.1240
50337W        W93254  33.032  32.271   1.421  0.0752 -0.4837 -0.0069
50338W        W93255  32.273  34.505  31.936  0.1591  0.2406  0.0501
50339W        W93256  32.621  34.249   0.206  0.1123  0.0020 -0.0593
50340W        W93257  31.135  32.698   0.973  0.2356  0.2118 -0.0580
50341W        W93258  28.800  34.278   2.545 -0.0665  0.2292  0.1784
50342W        W93259  30.511  32.096  31.877 -0.1140 -0.0273 -0.0483
50343W        W93260  28.841  33.842   4.944 -0.0008 -0.1643 -0.2880
50344W        W93261  32.794  33.664   1.177 -0.0285  0.0131  0.3217
50345W        W93262  30.810  34.603   0.688  0.0313 -0.0669  0.2229
50346W        W93263  32.171   0.777   2.546  0.1888 -0.2157 -0.0758
50347W        W93264  29.657   1.094   1.738  0.1880  0.0062 -0.0372
50348W        W93265  31.412   0.289   4.010  0.1060  0.2770  0.0660
50349W        W93266  30.844   0.447   2.332  0.3766  0.1106 -0.1427
50350W        W93267  30.228  34.062   2.754 -0.0883  0.0784  0.0044
50351W        W93268  30.796  32.431   0.373  0.1204 -0.1829 -0.3642
50352W        W93269  32.279  33.383   2.017 -0.1051  0.1772 -0.1144
50353W        W93270  30.413   0.269   2.545 -0.0434 -0.1377  0.1924
50354W        W93271  31.913  31.538   3.179  0.1978 -0.0833  0.3325
50355W        W93272  29.711  32.486   1.084 -0.0392 -0.1509 -0.4000
50356W        W93273  29.325  34.265   1.531 -0.0123  0.2250  0.1522
50357W        W93274  32.027   0.227   0.317 -0.1891  0.2435 -0.2234
50358W        W93275  33.768  31.498   1.595 -0.0012 -0.0782  0.0875
50359W        W93276  31.601  34.041   2.214  0.0661 -0.1045  0.1935
50360W        W93277  30.671  32.561  31.700  0.0139 -0.0386 -0.0379
50361W        W93278  28.212   1.500  31.837 -0.2517  0.1864  0.2339
50362W        W93279  34.173  33.680   1.393 -0.2230 -0.1136 -0.3372
50363W        W93280  29.789   0.330   3.572  0.1401  0.0418  0.2475
50364W        W93281  30.850  33.483   1.372  0.2757  0.4123 -0.0485
50365W        W93282  27.262  33.502   0.088 -0.4457 -0.0150  0.1166
50366W        W93283  30.096  32.207  31.631  0.1594  0.2821  0.0686
50367W        W93284  30.801  34.403   0.006 -0.1976 -0.0271 -0.1118
50368W        W93285  30.470  34.031   0.243 -0.2902 -0.1066  0.0377
50369W        W93286  31.615  31.098  31.072  0.0832 -0.1888 -0.1709
50370W        W93287  32.562  31.994  30.302 -0.1042  0.0129  0.4286
50371W        W93288  28.058  34.266   1.149 -0.1604  0.4082 -0.1850
50372W        W93289  28.932  34.228  29.956  0.0225 -0.0327 -0.0084
50373W        W93290  30.459  33.547   0.233 -0.2368 -0.1245  0.4447
50374W        W93291  32.140   0.328   2.254  0.0467 -0.1933 -0.1420
50375W        W93292  30.986  32.528   2.280  0.0292  0.1405 -0.1107
50376W        W93293  31.106  32.119   2.535  0.2342 -0.0937 -0.0178
50377W        W93294  33.536  33.553   3.920  0.2678  0.0388  0.0867
50378W        W93295  32.136  34.207   1.506  0.0001 -0.1842  0.1281
50379W        W93296  31.245   0.199   2.564 -0.0873 -0.0429 -0.1273
50380W        W93297  29.784  34.092  29.804 -0.0566 -0.0152 -0.2702
50381W        W93298  32.431  33.877   2.110  0.0026 -0.0367  0.2883
50382W        W93299  30.784  32.641   3.322  0.2508  0.2224  0.6617
50383W        W93300  29.877  32.354   1.539 -0.2288 -0.2647  0.1384
50384W        W93301  29.410  33.748   1.701  0.0140 -0.2704  0.2174
50385W        W93302  32.111  34.034   2.535 -0.1449  0.1442 -0.3275
50386W        W93303  29.775  34.233  31.840 -0.0372 -0.0147  0.0368
50387W        W93304  28.316  33.887   0.986  0.2158  0.1206  0.0995
50388W        W93305  31.515  34.125   1.076 -0.3287 -0.0683  0.0885
50389W        W93306  29.865  33.242   2.789 -0.3767 -0.0457  0.2213
50390W        W93307  30.781  32.456   1.356  0.1368  0.0390  0.0979
50391W        W93308  30.406   0.453   3.993 -0.1414  0.4404  0.1923
50392W        W93309  32.381  33.565   0.084  0.0059 -0.0583  0.1500
50393W        W93310  30.795   0.336   4.878 -0.2131  0.0472  0.1041
50394W        W93311  29.316  33.459  30.082  0.0482  0.3381 -0.0062
50395W        W93312   0.016   0.575   1.453  0.2118  0.1638  0.0904
50396W        W93313  30.711  34.587   2.413 -0.0285 -0.0581 -0.2957
50397W        W93314  31.306   0.466   1.994  0.2408 -0.0521  0.1090
50398W        W93315  30.421  34.523   2.900 -0.0947 -0.3334  0.3308
50399W        W93316  31.927  31.732  31.828  0.2341  0.0402  0.1669
50400W        W93317  29.767  32.457   0.121 -0.1874  0.1558 -0.2615
50401W        W93318  30.666  34.102   2.485  0.0360  0.0019  0.0326
50402W        W93319  31.067  33.984   2.157 -0.3136  0.2804 -0.2710
50403W        W93320  31.381  32.990   2.925  0.0776  0.0966  0.0956
50404W        W93321  34.067  34.070   2.830 -0.0179 -0.1833  0.1907
50405W        W93322  33.218  33.102   0.525 -0.2745  0.1865  0.0992
50406W        W93323  32.254  33.731   1.073 -0.0619 -0.0262  0.3864
50407W        W93324  29.424  33.262  30.514 -0.1666  0.1437  0.0783
50408W        W93325  34.106  33.264   3.234  0.3178  0.1184  0.1684
50409W        W93326  31.273  34.539   0.574  0.1018  0.2297  0.0623
50410W        W93327  30.964  33.284   2.722 -0.0925 -0.1441  0.0195
50411W        W93328  30.281  33.036   3.820  0.0730 -0.0913  0.2162
50412W        W93329  30.291  33.570   3.932 -0.0867  0.0246  0.0421
50413W        W93330  31.173   2.187   4.123  0.0536 -0.4083  0.1252
50414W        W93331  29.005  32.586  31.533  0.0872 -0.3383  0.1601
50415W        W93332  29.118  32.699   0.535 -0.0215 -0.3659  0.1695
50416W        W93333  30.935   0.894   2.078  0.1090 -0.1570 -0.1949
50417W        W93334  30.557   1.085   1.826  0.0526 -0.0646 -0.1606
50418W        W93335  31.165   1.450   2.951 -0.0688 -0.0492  0.1094
50419W        W93336  32.400  33.874   2.989  0.2466  0.2594 -0.2630
50420W        W93337  29.680  31.462   3.510 -0.1375 -0.3708 -0.1652
50421W        W93338  30.233  32.584   1.250 -0.4182 -0.1678  0.1938
50422W        W93339  32.088  33.215   2.560  0.2187 -0.1551  0.0384
50423W        W93340  30.812  33.438   4.578 -0.1250 -0.0657  0.0177
50424W        W93341  30.991  34.546   2.898 -0.1786  0.2799 -0.3516
50425W        W93342  30.188  34.466   2.445 -0.0433  0.2218  0.1312
50426W        W93343  32.301  34.499   2.191  0.1303 -0.1218 -0.0300
50427W        W93344  31.682   0.299   2.404 -0.2576  0.1157  0.2129
50428W        W93345  31.935  33.191   0.884  0.3316 -0.0352 -0.3343
50429W        W93346  31.079   0.404   0.690  0.0830 -0.3528 -0.0667
50430W        W93347  28.450   0.301   0.683 -0.0804  0.1604  0.0900
50431W        W93348  32.331  33.981   4.296 -0.1397 -0.1551 -0.1622
50432W        W93349  30.736  33.778   0.814 -0.0446 -0.1079  0.0618
50433W        W93350  31.679   0.031   4.299 -0.0955 -0.4513  0.2856
50434W        W93351  30.712  32.830   0.738 -0.4052 -0.2206 -0.0552
50435W        W93352  29.338  33.248   1.785 -0.2102  0.4281 -0.3759
50436W        W93353  28.198  34.075  31.220  0.2430  0.1463 -0.0518
50437W        W93354  31.136   0.606  29.463 -0.1367 -0.1173  0.1473
50438W        W93355  30.762  33.869  31.738 -0.0516  0.2147 -0.0589
50439W        W93356  34.109   0.626   2.676  0.2278  0.1825 -0.0537
50440W        W93357  31.209  33.007   2.403 -0.2570 -0.0124  0.0257
50441W        W93358  31.742  33.012   1.463 -0.1790  0.0504 -0.1152
50442W        W93359  33.054  34.227   0.343 -0.1267 -0.1295  0.1051
50443W        W93360  31.704  33.949   1.518 -0.2013 -0.4999  0.0033
50444W        W93361  34.078  34.482   2.451 -0.0853 -0.0001 -0.2570
50445W        W93362  29.026  33.909   2.097  0.2642 -0.0018 -0.2693
50446W        W93363  28.169  34.346   1.992 -0.3402 -0.0447 -0.0927
50447W        W93364  28.582  33.975   2.890  0.1109  0.3785 -0.2762
50448W        W93365  33.135  34.012   1.258 -0.2699 -0.1157 -0.1240
50449W        W93366  30.784  32.649   1.817 -0.1769 -0.1690  0.1547
50450W        W93367  34.247   1.087   2.463 -0.1846  0.1948  0.3107
50451W        W93368  33.035   0.087   0.521  0.0073 -0.2961  0.0138
50452W        W93369  30.065   0.974   2.683 -0.2907 -0.2479  0.0193
50453W        W93370  31.095  32.874  31.959  0.0168 -0.2528  0.0261
50454W        W93371  30.259  34.211   3.839  0.1117  0.4094 -0.3581
50455W        W93372  33.124  33.584   3.210 -0.2181 -0.1588 -0.1921
50456W        W93373  28.718  34.273  31.225 -0.1170 -0.1477 -0.0161
50457W        W93374  28.607   0.556   2.379 -0.5003  0.0170  0.2305
50458W        W93375  34.103  32.738   3.521  0.2079 -0.1259 -0.1729
50459W        W93376  31.633  32.836   0.722 -0.2499 -0.0865  0.0240
50460W        W93377  27.671  33.345   0.332 -0.0380 -0.1255 -0.3572
50461W        W93378  33.383  33.025   1.422 -0.0142  0.2775  0.1231
50462W        W93379  30.532  33.372   3.516 -0.3865 -0.2047  0.1126
50463W        W93380  33.213  32.143   3.173  0.0013  0.1274 -0.0880
50464W        W93381  30.395  33.309   2.486 -0.1911  0.1401 -0.1912
50465W        W93382  34.083   0.079   0.453  0.0797  0.0753 -0.0565
50466W        W93383  31.248  34.312   2.503 -0.0001  0.2505 -0.2914
50467W        W93384  30.443  31.998   1.231 -0.1529  0.3274 -0.1435
50468W        W93385  33.128  33.089   1.882 -0.2704 -0.0816  0.0944
50469W        W93386  32.033  34.060  29.644 -0.2689  0.0268  0.2459
50470W        W93387  28.866  31.491   2.967  0.1000  0.0372  0.1075
50471W        W93388  32.553  31.716   0.599  0.0550 -0.0741 -0.1833
50472W        W93389  31.281  34.270   1.825 -0.1146  0.2208  0.1901
50473W        W93390  29.968  32.939   0.255 -0.1301  0.0797 -0.0312
50474W        W93391  26.468  32.826   0.112 -0.0677 -0.1725 -0.2419
50475W        W93392  31.752   0.314   1.923 -0.0819 -0.1474 -0.0530
50476W        W93393  33.201   1.865   1.248 -0.2792 -0.0916 -0.0371
50477W        W93394  29.268  33.207   2.924 -0.0682 -0.1358 -0.0206
50478W        W93395  30.871  33.363  31.900 -0.4002 -0.2162 -0.4301
50479W        W93396  30.738  33.834   1.743 -0.2227 -0.2859  0.0828
50480W        W93397  33.397  34.609   1.296 -0.0612 -0.0641 -0.0243
50481W        W93398  32.777  33.500   1.828  0.0142  0.0341  0.1439
50482W        W93399  31.877  31.902   2.824 -0.2205  0.0178  0.0429
50483W        W93400  29.639  32.106  31.561 -0.1272 -0.0377 -0.1256
50484W        W93401  29.524  33.552   0.783  0.0167  0.0419  0.0961
50485W        W93402  32.143  30.967  31.732  0.1628 -0.4353  0.0415
50486W        W93403  33.418   0.125   0.834 -0.2512  0.0841 -0.1980
50487W        W93404  30.526  32.250   2.148  0.2179  0.1230  0.0984
50488W        W93405  28.417   1.187   1.107 -0.1693 -0.0426  0.0359
50489W        W93406  30.381   0.595   2.092 -0.1842 -0.1761 -0.0364
50490W        W93407  30.160   0.174   3.196 -0.0320  0.0429 -0.1953
50491W        W93408  28.539   1.394   0.313  0.1792  0.2355 -0.1930
50492W        W93409  28.067  34.408   0.224  0.1955 -0.3950  0.1574
50493W        W93410  31.841  32.345   0.799  0.0078 -0.0259  0.4510
50494W        W93411  30.546   0.705   1.389 -0.1528  0.0454 -0.0611
50495W        W93412  29.969  33.182   2.244 -0.3263 -0.0231  0.0342
50496W        W93413  33.239  33.992   2.346 -0.1071 -0.1171  0.0436
50497W        W93414  31.708  32.864   2.564 -0.1417  0.0615 -0.1108
50498W        W93415  28.529  33.849   0.132 -0.2877  0.1939  0.1045
50499W        W93416  31.273  31.378  31.753 -0.1675 -0.1115 -0.0289
50500W        W93417  29.505  34.155   2.044 -0.1756 -0.1579  0.3731
50501W        W93418  33.165  33.544   1.514 -0.0845  0.1893  0.0025
50502W        W93419  32.517  34.411   1.746 -0.0458 -0.0615  0.0458
50503W        W93420  29.188  33.667   3.649  0.0829  0.1083 -0.0152
50504W        W93421  28.842  34.277  31.786 -0.2504 -0.1951 -0.1410
50505W        W93422  29.484  33.320   1.264  0.1901  0.3194  0.0872
50506W        W93423  30.168   0.482   1.571 -0.0392  0.1038  0.0712
50507W        W93424  30.597  31.675   0.865  0.1264 -0.0717  0.1778
50508W        W93425  31.628  33.913   2.708 -0.3003  0.0563 -0.1215
50509W        W93426  30.007   0.789   0.636  0.0761  0.1832  0.0648
50510W        W93427  34.539   0.827   0.714  0.4644 -0.1251  0.1688
50511W        W93428  28.866  31.858   3.384  0.2287 -0.1216  0.0796
50512W        W93429  29.963  33.444   0.432 -0.0905 -0.1180 -0.0197
50513W        W93430  30.053   0.453   0.995 -0.3459  0.1842  0.2325
50514W        W93431  32.059  33.992   0.238  0.1367 -0.2011  0.2248
50515W        W93432  30.589  32.943   1.243  0.1295 -0.0453 -0.1062
50516W        W93433  31.610  32.669   1.156 -0.2580  0.0247  0.1600
50517W        W93434  30.191  32.903   4.402 -0.1137  0.3013 -0.1239
50518W        W93435  32.604  33.683   3.483  0.1920 -0.0005 -0.2903
50519W        W93436  33.098  33.526   3.724  0.3677 -0.1549 -0.2280
50520W        W93437  28.441  31.544   4.201  0.3459  0.1171 -0.4708
50521W        W93438  31.555  32.912   5.592  0.0634  0.0164 -0.1337
50522W        W93439  32.221   0.443   5.445 -0.2620 -0.3495  0.0255
50523W        W93440  31.994  33.782   6.091  0.2217  0.1237  0.1163
50524W        W93441  30.268  32.924   3.277  0.0598 -0.0599  0.0892
50525W        W93442  31.939  33.559   5.129 -0.0074  0.0753  0.2710
50526W        W93443  32.467  34.183   3.844  0.1206  0.0668  0.3563
50527W        W93444  29.105  34.039   4.584  0.1679  0.0455  0.1715
50528W        W93445  30.783   0.250   4.361  0.1927  0.2185  0.1238
50529W        W93446  30.653   0.409   3.390  0.2462  0.1482 -0.0077
50530W        W93447  29.917  33.893   6.393 -0.1384 -0.1139  0.2754
50531W        W93448  32.168  33.695   3.894 -0.0582  0.3157 -0.0914
50532W        W93449  30.012  33.805   3.589 -0.0526  0.0342 -0.1670
50533W        W93450  28.786  32.052   4.266  0.0231  0.3465  0.1915
50534W        W93451  31.695  33.480   6.469 -0.2936  0.0269 -0.0365
50535W        W93452  34.167  33.293   4.140 -0.3749 -0.0651 -0.0233
50536W        W93453  32.226   0.247   4.995  0.2187 -0.0048  0.1204
50537W        W93454  33.937  34.257   7.130 -0.1321 -0.2672  0.1624
50538W        W93455  31.744  34.417   6.188  0.1029 -0.0183  0.0205
50539W        W93456  33.353   1.940   6.040 -0.2091 -0.0664  0.1006
50540W        W93457  32.880  34.291   8.000  0.1965  0.0872 -0.4143
50541W        W93458  34.009  33.904   1.818 -0.2269 -0.0413  0.0494
50542W        W93459  31.390  33.616   3.083 -0.2362  0.0187 -0.0648
50543W        W93460  32.322  32.100   3.771  0.0945  0.2982  0.1702
50544W        W93461  31.369  32.187   3.566 -0.0598  0.0140  0.0569
50545W        W93462  30.719  33.745   5.322  0.0112  0.2611 -0.3448
50546W        W93463  30.137  33.480   4.473  0.2144  0.0533 -0.2543
50547W        W93464  31.713   0.205   5.282 -0.1821 -0.1289 -0.0041
50548W        W93465  29.212  33.859   4.123 -0.2838  0.2557 -0.1833
50549W        W93466  29.224   1.065   4.054  0.1521  0.5143 -0.1872
50550W        W93467  32.605  33.565   7.418 -0.0202  0.1077 -0.2298
50551W        W93468  31.053  34.551   4.110  0.2721  0.3509 -0.3413
50552W        W93469  29.987  32.338   2.001 -0.2002 -0.0255  0.0113
50553W        W93470  33.239  33.977   3.984  0.4068  0.0189 -0.0264
50554W        W93471  31.691  33.646   3.784 -0.0707  0.0176  0.3116
50555W        W93472  31.379  33.005   5.136  0.0611  0.1169  0.3144
50556W        W93473  31.488   0.994   2.960 -0.0950 -0.0227 -0.2380
50557W        W93474  32.027  34.012   5.390  0.1413  0.1152 -0.1382
50558W        W93475  28.558  33.545   6.528  0.1606 -0.1770  0.0562
50559W        W93476  31.179  32.296   4.037 -0.1733  0.1696  0.4874
50560W        W93477  30.516  34.174   5.716 -0.0733  0.0751 -0.0177
50561W        W93478  31.225  33.528   3.595 -0.3170 -0.2638 -0.1098
50562W        W93479  34.070  32.350   3.115 -0.1634  0.3051 -0.0605
50563W        W93480  29.119  33.534   4.513 -0.0941  0.3735 -0.2854
50564W        W93481  30.872  31.276   3.913 -0.2342  0.0449  0.2799
50565W        W93482  29.772  32.700   4.060 -0.0701 -0.0240  0.0061
50566W        W93483  27.651  31.692   4.804  0.1339  0.3284  0.0715
50567W        W93484  32.611  34.463   6.167  0.2708  0.0584  0.2951
50568W        W93485  31.316  34.120   3.067  0.2676 -0.0974 -0.0079
50569W        W93486  33.639  34.469   5.118 -0.2590 -0.2397 -0.3343
50570W        W93487  31.423  33.668   4.690 -0.0451 -0.2190  0.1385
50571W        W93488  34.034  32.055   7.051 -0.0559 -0.0532  0.1914
50572W        W93489  29.042  32.049   5.602  0.2104 -0.2944 -0.0306
50573W        W93490  30.742  32.975   2.253 -0.5635 -0.1765  0.1739
50574W        W93491  32.340  33.311   4.905  0.1711 -0.3024 -0.2154
50575W        W93492  32.783   1.431   6.766  0.1357  0.1560  0.0797
50576W        W93493  33.900   0.304   3.949  0.0939  0.0154  0.3695
50577W        W93494  30.345  32.333   1.656 -0.3043 -0.0350  0.0191
50578W        W93495  29.521   2.056   4.979 -0.0464  0.1340  0.3229
50579W        W93496  34.137  31.468   6.877  0.0174  0.1314  0.0433
50580W        W93497  29.697  33.964   5.382 -0.0798  0.1955 -0.0769
50581W        W93498  33.243  32.727   4.910 -0.0656  0.2900  0.0939
50582W        W93499  28.660   0.346   4.118  0.0570  0.0781 -0.3196
50583W        W93500  31.810  32.976   6.235 -0.2610  0.1978 -0.0938
50584W        W93501  32.947  32.914   2.751 -0.1014  0.1154 -0.1767
50585W        W93502  32.004  33.144   3.835  0.0097 -0.3630  0.0266
50586W        W93503  31.144   0.689   3.749 -0.2412  0.0751  0.3252
50587W        W93504  32.220  34.009   3.425  0.0132  0.2229 -0.1090
50588W        W93505  30.522  33.453   5.697 -0.1548 -0.0593  0.0268
50589W        W93506  30.741  32.521   3.961 -0.0473 -0.0050 -0.0831
50590W        W93507  29.234  33.359   4.035  0.0479  0.0138 -0.0746
50591W        W93508  33.570  33.708   4.752 -0.0979  0.0230  0.1642
50592W        W93509  33.572  32.212   4.254  0.0848  0.1605  0.0813
50593W        W93510  31.094  32.065   4.568 -0.1147  0.0170 -0.0270
50594W        W93511  32.323  32.842   4.943  0.3694  0.1554  0.0883
50595W        W93512  32.828  33.737   2.374 -0.2060  0.1812 -0.0846
50596W        W93513  32.960   0.706   3.857 -0.1609 -0.0206  0.0538
50597W        W93514  31.287  33.655   4.159  0.0708  0.0851 -0.4392
50598W        W93515  30.292  34.249   6.544 -0.1053  0.1397 -0.1194
50599W        W93516  33.342  34.430   6.640  0.1356 -0.1145 -0.1353
50600W        W93517  30.422  32.465   3.034 -0.0786 -0.0087  0.1860
50601W        W93518  29.341  32.573   7.500 -0.0830 -0.0730 -0.0623
50602W        W93519  31.086  33.436   5.045 -0.6937 -0.2382  0.1296
50603W        W93520  29.829  34.332   4.566  0.1891 -0.1842 -0.1062
50604W        W93521  30.636  32.661   5.140  0.0278 -0.1896  0.0804
50605W        W93522  32.087  33.047   4.522 -0.1594  0.2926  0.0648
50606W        W93523  30.351  33.046   6.507 -0.0073 -0.1439  0.0915
50607W        W93524  31.840  34.477   5.012  0.4099 -0.3160  0.1281
50608W        W93525  33.410   0.206   4.955  0.4247  0.1466 -0.1335
50609W        W93526  33.476  34.046   2.812 -0.0929 -0.0946 -0.2160
50610W        W93527  32.876  34.119   6.516  0.1128  0.3771  0.0803
50611W        W93528  30.592  33.871   3.589 -0.1972 -0.1467 -0.1875
50612W        W93529  33.967  34.072   5.860  0.0407  0.0048 -0.0264
50613W        W93530  31.194   0.141   3.285  0.0514 -0.0811 -0.1244
50614W        W93531  29.083  33.429   5.225  0.0778 -0.0904 -0.1489
50615W        W93532  32.011   0.015   7.444 -0.3654 -0.2424 -0.0954
50616W        W93533  30.145  33.020   5.399 -0.1028 -0.0339 -0.1161
50617W        W93534  29.929  33.207   4.113  0.0668  0.1105 -0.1122
50618W        W93535  30.765  32.961   3.703 -0.2408  0.0371  0.3771
50619W        W93536  31.986  33.077   8.208  0.1025 -0.1054  0.0720
50620W        W93537  31.537  33.529   5.380 -0.2490 -0.1055  0.0347
50621W        W93538  31.495  34.188   6.857  0.0656  0.1372 -0.0802
50622W        W93539  32.856  33.988   5.980  0.1070 -0.0340  0.3466
50623W        W93540  33.267  33.497   4.418 -0.1853  0.1210 -0.0534
50624W        W93541  33.060  33.607   4.947  0.2668  0.0823  0.0923
50625W        W93542  34.319  34.037   4.984  0.2316  0.3464  0.1243
50626W        W93543  32.000  34.171   3.015 -0.1695  0.1247  0.1878
50627W        W93544  31.951  32.011   4.682 -0.1229  0.0633 -0.0894
50628W        W93545  32.561   1.037   3.962  0.3091  0.0352 -0.0181
50629W        W93546  30.310  33.085   6.005 -0.1138 -0.3609 -0.2506
50630W        W93547  30.574  34.596   7.206  0.0431 -0.1803 -0.3038
50631W        W93548  32.290  32.659   2.961  0.3149  0.2712  0.0948
50632W        W93549  31.048  34.436   3.569 -0.1831 -0.1067  0.0213
50633W        W93550  31.735   0.542   4.373 -0.1966  0.2508  0.1573
50634W        W93551  33.203  34.233   3.220 -0.3321 -0.2858 -0.2336
50635W        W93552  29.809  34.452   6.556 -0.0889 -0.0234  0.3680
50636W        W93553  33.552  34.335   4.226  0.2036  0.1246 -0.1207
50637W        W93554  30.646  32.065   4.286  0.1844 -0.0449 -0.0726
50638W        W93555  32.224  32.511   4.575  0.3048 -0.2099 -0.1221
50639W        W93556  33.173  33.617   5.903  0.2122  0.0015 -0.2136
50640W        W93557  33.978  32.550   5.199  0.6077 -0.1936 -0.1805
50641W        W93558  30.973   0.584   6.887 -0.3430  0.1007 -0.0537
50642W        W93559  28.772  33.915   7.347 -0.0391  0.2388  0.1310
50643W        W93560  32.184  34.533   2.724  0.1856 -0.3131 -0.0209
50644W        W93561  33.189  34.132   4.507 -0.1209  0.0369 -0.0909
50645W        W93562  33.224  34.462   3.848  0.1528 -0.0965 -0.2079
50646W        W93563  32.914   0.246   2.731 -0.3013 -0.2414  0.2336
50647W        W93564  29.325  31.932   4.429  0.1402 -0.0375 -0.3697
50648W        W93565  32.922   0.890   7.585 -0.1347 -0.0125 -0.1346
50649W        W93566  29.508  32.304   3.221 -0.3528 -0.2156  0.3465
50650W        W93567  33.626  33.713   5.736 -0.0145 -0.0599  0.0620
50651W        W93568  31.166   0.633   3.209  0.1904  0.3500  0.1184
50652W        W93569  29.388  33.497   5.662  0.2616  0.0175 -0.3785
50653W        W93570  30.585  32.541   2.558 -0.0174  0.2201  0.1280
50654W        W93571  32.191  34.529   4.678 -0.3045  0.0268  0.0448
50655W        W93572  30.849  33.542   3.952  0.1722 -0.2338  0.1824
50656W        W93573  33.795  33.985   5.189  0.0042  0.2592  0.1769
50657W        W93574  30.689  31.856   5.670 -0.1668  0.0610 -0.1852
50658W        W93575  32.277  32.960   6.850  0.0935 -0.3300 -0.0533
50659W        W93576  33.121  34.562   4.712  0.1254 -0.0288  0.3056
50660W        W93577  31.782   0.200   4.738  0.2517 -0.0777 -0.1558
50661W        W93578  32.430  33.632   5.241  0.2602  0.0595 -0.0266
50662W        W93579  30.600  32.432   5.949 -0.1882  0.0854 -0.0248
50663W        W93580  30.214  33.542   6.155 -0.1834  0.1758  0.0591
50664W        W93581  30.958  32.932   4.885  0.0102 -0.0521 -0.1288
50665W        W93582  32.959  34.467   4.243  0.1472  0.0150  0.4015
50666W        W93583  34.203  32.818   3.028  0.1883 -0.1539 -0.3031
50667W        W93584  34.374  33.171   3.667 -0.0304 -0.0616  0.1092
50668W        W93585  32.456  33.210   3.080 -0.0592  0.1361  0.2650
50669W        W93586  31.461  33.251   3.903  0.0632 -0.0567  0.0351
50670W        W93587  32.496  34.547   4.190 -0.1755 -0.2978 -0.1106
50671W        W93588  33.809   0.317   5.187  0.3288  0.2620 -0.0359
50672W        W93589  34.014  32.103   8.282  0.0264  0.1490  0.0173
50673W        W93590  29.628  33.077   3.242 -0.0934  0.0324  0.1402
50674W        W93591  31.667  32.431   5.475  0.0879  0.1054 -0.0220
50675W        W93592  31.551  31.718   3.810  0.2224  0.1146 -0.1864
50676W        W93593  31.917  33.921   6.734  0.2583  0.2803  0.0312
50677W        W93594  30.868  31.793   3.892 -0.0292 -0.1568 -0.0545
50678W        W93595  33.069  31.567   2.588 -0.2098  0.0627 -0.0495
50679W        W93596  32.124  33.022   7.350 -0.0266  0.1216  0.0724
50680W        W93597  31.191  33.384   6.529  0.1906 -0.0055  0.3253
50681W        W93598  30.650  34.473   3.280 -0.1070 -0.3208  0.0691
50682W        W93599  32.800  33.379   2.802 -0.0686 -0.3192 -0.3315
50683W        W93600  29.010  34.159   5.505 -0.2894  0.0375 -0.2968
50684W        W93601  33.499  33.843   3.433  0.3818 -0.0656  0.1514
50685W        W93602   0.382  34.306   6.452  0.1956  0.0966  0.2542
50686W        W93603  32.798  33.112   4.779  0.0365  0.2276  0.3056
50687W        W93604  30.645  33.180   5.188 -0.0967 -0.0266  0.0114
50688W        W93605  31.660  32.794   4.609  0.2487  0.2152 -0.1505
50689W        W93606  30.024  33.223   4.851  0.0489  0.0915  0.2941
50690W        W93607  33.154   0.453   4.579  0.3259  0.0440  0.0772
50691W        W93608  29.972  32.578   5.451  0.0137 -0.1991 -0.0054
50692W        W93609  34.168  34.134   4.459 -0.1598  0.3649 -0.0521
50693W        W93610  33.780   0.082   4.626 -0.0886  0.1365 -0.2769
50694W        W93611  29.363  32.925   4.234  0.1001 -0.2006 -0.1972
50695W        W93612  30.978  33.255   1.923 -0.0740 -0.0396 -0.1232
50696W        W93613  30.019  31.803   5.805  0.2348 -0.2989 -0.1823
50697W        W93614  32.984  33.853   5.426 -0.1082 -0.2309 -0.1080
50698W        W93615  33.564  33.769   6.256 -0.3920  0.1080 -0.2873
50699W        W93616  32.873  33.743   7.024  0.1319  0.1360 -0.1062
50700W        W93617  31.627  33.885   5.697 -0.0938 -0.1468 -0.1646
50701W        W93618  29.530  31.692   3.986 -0.1328 -0.0298 -0.0042
50702W        W93619  33.773  33.248   4.440  0.1506  0.0503  0.0190
50703W        W93620  32.019  33.484   3.399 -0.0079  0.1477 -0.3043
50704W        W93621  29.006   1.858   5.712  0.0595 -0.2831  0.2257
50705W        W93622  30.544  33.265   4.240 -0.0407  0.3001  0.4442
50706W        W93623  32.021  32.356   5.025 -0.0448  0.2027 -0.0102
50707W        W93624  30.567  34.058   6.968 -0.0015  0.1656  0.0729
50708W        W93625  29.646  33.645   3.931 -0.0662 -0.3806 -0.0952
50709W        W93626  30.731  31.652   2.984  0.2179 -0.0331  0.2224
50710W        W93627  29.933  31.401   3.982 -0.1638 -0.1666 -0.4343
50711W        W93628  30.920  31.229   6.555  0.0055  0.0946  0.0089
50712W        W93629  31.744  33.854   4.253  0.1532 -0.1620  0.4888
50713W        W93630  32.266  34.020   4.951 -0.1432  0.2429  0.0199
50714W        W93631  31.279  33.282   7.042 -0.2956 -0.2569  0.1991
50715W        W93632  29.277  31.020   3.827 -0.0669 -0.2121  0.3184
50716W        W93633  31.079  34.323   4.979 -0.2138  0.0691 -0.1626
50717W        W93634  29.895  33.274   5.791 -0.0291  0.0981  0.1963
50718W        W93635  32.751  32.707   5.164  0.0634  0.2672  0.2649
50719W        W93636  31.277  32.878   1.881  0.2114 -0.3347  0.1558
50720W        W93637  30.720  33.376   6.207 -0.2666 -0.1961  0.0273
50721W        W93638  30.228  32.190   5.571 -0.1244 -0.1506  0.1538
50722W        W93639  34.244  31.672   5.499 -0.2640  0.6883  0.5550
50723W        W93640  29.233  32.383   5.976  0.1259 -0.1714 -0.1548
50724W        W93641  32.325  33.397   4.264  0.1014 -0.0465 -0.1788
50725W        W93642  33.819  34.495   5.595 -0.2904  0.1610  0.0744
50726W        W93643  32.630  34.269   4.605  0.3399  0.1573  0.0669
50727W        W93644  34.641  34.198   4.702  0.0763 -0.0009  0.0651
50728W        W93645  28.152  33.679   6.191  0.3783  0.1586  0.0673
50729W        W93646  30.927  34.069   3.961  0.0164  0.3217  0.2177
50730W        W93647  33.185   0.632   5.222  0.0538 -0.0128 -0.0508
50731W        W93648  33.366  33.236   5.722 -0.2975  0.0082 -0.2980
50732W        W93649  31.608  33.985   5.059 -0.1153  0.2988  0.0807
50733W        W93650  32.516  33.249   3.750  0.0757  0.3223 -0.2305
50734W        W93651  30.737  34.112   7.447  0.0152  0.0236  0.0749
50735W        W93652  32.010  33.984   8.091 -0.0084 -0.2366  0.3930
50736W        W93653  34.369  34.121   7.367 -0.0919 -0.0223 -0.1883
50737W        W93654  29.025  33.904   6.605  0.1181  0.0123 -0.2364
50738W        W93655  33.026   0.150   8.341  0.1009  0.3818  0.2091
50739W        W93656  30.590  33.266   8.961 -0.0857 -0.2214  0.0803
50740W        W93657  31.031  31.513   9.005 -0.0521  0.1721  0.2454
50741W        W93658  31.234  31.912   8.804  0.4042  0.0842 -0.3842
50742W        W93659  33.624   0.448   8.561 -0.1555  0.0677 -0.1164
50743W        W93660  29.599   0.187   7.502  0.0376  0.4966  0.1829
50744W        W93661  29.496  32.681   8.956  0.1243 -0.1805 -0.3197
50745W        W93662  31.752  33.287   4.777 -0.0534 -0.1848  0.1001
50746W        W93663  32.552   0.239   8.118  0.2368 -0.1723 -0.1092
50747W        W93664  30.060  31.328   7.325  0.2298 -0.1151 -0.0510
50748W        W93665  29.208  32.844   8.567 -0.3224 -0.1459  0.1353
50749W        W93666  29.208  34.500   6.746  0.2027  0.0800  0.3826
50750W        W93667  31.769  33.814   9.245 -0.0846  0.1045 -0.1704
50751W        W93668  32.443   0.549   8.538 -0.5354 -0.1248  0.0640
50752W        W93669  28.468  33.422   9.602 -0.0828 -0.2159  0.1291
50753W        W93670  31.370   1.414   9.558 -0.0617 -0.1922  0.2081
50754W        W93671  33.694  33.596   8.279  0.1282 -0.1038 -0.2209
50755W        W93672  32.257  32.848   6.300 -0.0645  0.1547 -0.0487
50756W        W93673  32.851  32.492   8.819 -0.0717  0.1787  0.1331
50757W        W93674  29.727  33.148   9.166 -0.1947 -0.0756  0.0403
50758W        W93675  28.965  31.523   9.240  0.2140 -0.0188 -0.1411
50759W        W93676  32.305  32.554   7.184 -0.2115  0.1067  0.0888
50760W        W93677  31.418  32.791   8.847 -0.0171 -0.4498 -0.2101
50761W        W93678  30.040  32.545   8.241  0.1513 -0.1446  0.2425
50762W        W93679  30.327   0.011   5.784  0.0425  0.0728 -0.1260
50763W        W93680  31.876  32.633   6.889 -0.0640  0.3637 -0.0068
50764W        W93681  32.543  32.323   8.096 -0.0172 -0.2551 -0.0493
50765W        W93682  34.339   0.998   7.982  0.2524 -0.2244  0.0284
50766W        W93683  32.624  33.016   7.307 -0.0510 -0.1757 -0.4714
50767W        W93684  32.539   1.221   8.125 -0.4034  0.0953  0.5246
50768W        W93685  29.316  34.313   9.582 -0.1593  0.0286 -0.3279
50769W        W93686   0.652  32.989   9.622 -0.1223  0.3153 -0.4628
50770W        W93687  31.646  32.720   8.266  0.0849 -0.0933  0.0984
50771W        W93688  33.072  33.526   9.281  0.2393  0.2273  0.1813
50772W        W93689  28.574  33.040   7.718 -0.1804  0.0838  0.4417
50773W        W93690  29.329  33.433   9.181 -0.0946  0.1882 -0.1978
50774W        W93691  30.512  31.529   8.839 -0.0651  0.4888  0.3928
50775W        W93692  30.726  32.745   8.207  0.2577  0.3246  0.1397
50776W        W93693  33.207  34.209   7.526 -0.1983  0.0324  0.2886
50777W        W93694  29.773  32.965   8.605  0.0450 -0.0444  0.3483
50778W        W93695  28.283  34.165   7.808  0.1122 -0.3015 -0.4088
50779W        W93696  29.615  33.807   9.154 -0.1662  0.1129  0.0748
50780W        W93697  31.229  32.980   8.434 -0.1328 -0.1015  0.4130
50781W        W93698  33.650  32.628   8.376  0.0858 -0.2980 -0.1019
50782W        W93699  30.844  33.784   8.711 -0.0805  0.1454  0.1411
50783W        W93700  31.698  33.975   7.244 -0.3855 -0.0950 -0.1956
50784W        W93701  34.146  34.564   9.467  0.0565 -0.3359  0.0843
50785W        W93702  31.542  33.886   6.204 -0.0373  0.0299 -0.2327
50786W        W93703  34.161  34.309   8.560  0.1530  0.1440 -0.2174
50787W        W93704  34.186  32.656   7.437 -0.1544  0.1626 -0.3390
50788W        W93705  31.448  33.754   8.892 -0.0686 -0.1826  0.0883
50789W        W93706  30.380  34.454   7.662 -0.1010 -0.0385  0.0956
50790W        W93707  31.750  33.160   6.979  0.0927  0.1839 -0.2654
50791W        W93708  31.963  33.340   9.814  0.1577 -0.0194 -0.1268
50792W        W93709  30.377  33.720   6.601  0.0723  0.0839 -0.1151
50793W        W93710  32.845  34.613   6.668  0.3103 -0.0090 -0.4514
50794W        W93711  30.025  33.401   8.433 -0.1167 -0.0446  0.0585
50795W        W93712  32.230  32.327   8.815  0.1948  0.1402  0.2938
50796W        W93713  32.385  33.793   7.795  0.1069  0.0467  0.0267
50797W        W93714  29.977  32.746   9.074 -0.2070 -0.1000 -0.0378
50798W        W93715  31.014  34.363   7.128 -0.1716 -0.0048 -0.3876
50799W        W93716  29.710   0.777   9.781 -0.1102  0.1451  0.0074
50800W        W93717  31.678  31.892   7.897 -0.2327 -0.2505  0.0473
50801W        W93718  29.251  33.945   7.641 -0.0476 -0.2421  0.0131
50802W        W93719  32.387  33.526   9.267  0.0240 -0.1178 -0.2422
50803W        W93720  30.196  34.144   7.973 -0.0291 -0.3442  0.0048
50804W        W93721  29.003   0.332   6.641 -0.2159  0.0315 -0.2235
50805W        W93722  32.395  34.400   8.078 -0.1110  0.0088  0.0520
50806W        W93723  30.409  32.573   7.431 -0.1029 -0.0072 -0.0810
50807W        W93724  29.666  33.444   8.786 -0.1329 -0.0047 -0.1735
50808W        W93725  31.601  33.054   7.408  0.1126  0.0687  0.0590
50809W        W93726  27.450  33.926   7.346 -0.1498  0.4401  0.2921
50810W        W93727  33.678  34.103   9.365 -0.2240  0.0734 -0.1133
50811W        W93728  30.234  33.084   7.488  0.1362 -0.1618 -0.0804
50812W        W93729  32.038  34.314   7.041  0.2516  0.2680 -0.1055
50813W        W93730  32.774   3.606  10.120  0.0587  0.1634 -0.2774
50814W        W93731  30.473  33.677   7.318 -0.1195  0.0657  0.1572
50815W        W93732  29.108  33.815   8.864 -0.1542 -0.1818  0.0441
50816W        W93733  32.181  33.898   9.590  0.2060  0.0408 -0.1079
50817W        W93734  29.731  34.049   9.580 -0.1175  0.1383 -0.0547
50818W        W93735  30.458  32.302   8.445 -0.2307  0.0055 -0.0466
50819W        W93736  31.682   1.202   8.872 -0.1588  0.0594 -0.1200
50820W        W93737  32.669  32.079   9.031 -0.2079  0.2161  0.0463
50821W        W93738  29.175  33.554   7.357 -0.0281  0.1746  0.1192
50822W        W93739   0.105  34.664   8.283 -0.0630 -0.1546  0.3595
50823W        W93740  29.615  32.395   7.944  0.0027  0.0274 -0.0315
50824W        W93741  32.102  32.512   8.238  0.0869 -0.0530 -0.1711
50825W        W93742  31.442  33.081   7.963 -0.0160 -0.1579 -0.3406
50826W        W93743  30.544   1.685   8.223 -0.0477 -0.0388 -0.2326
50827W        W93744  33.986  33.812   8.642 -0.4379  0.0170  0.3722
50828W        W93745  32.535  34.191   9.043 -0.2638 -0.0292  0.1553
50829W        W93746  32.725   0.180   8.714  0.1970  0.1449 -0.1718
50830W        W93747  30.128  33.154   8.852 -0.1432 -0.1975 -0.2645
50831W        W93748  34.283   0.642   8.318 -0.3660 -0.0530 -0.1433
50832W        W93749  30.998  33.837   8.240 -0.0773  0.0799  0.2501
50833W        W93750  33.923   0.919   8.601 -0.1587 -0.0374  0.0545
50834W        W93751  32.720  32.795   6.817 -0.2434 -0.2060  0.2745
50835W        W93752  31.245   0.020   8.558  0.2817  0.2984 -0.3085
50836W        W93753  29.959  33.361   6.504 -0.1714 -0.0233  0.1221
50837W        W93754  31.071  33.770   7.225 -0.2519  0.3211  0.1282
50838W        W93755  29.606  33.553   6.943  0.0352 -0.4599  0.2572
50839W        W93756  30.106  34.380   5.473  0.0563 -0.1985 -0.1846
50840W        W93757  32.665  33.333   6.810  0.0963  0.0719 -0.1680
50841W        W93758  32.186  33.315   7.724 -0.2545 -0.1065  0.3941
50842W        W93759  34.069   0.430   9.362  0.2961  0.0437  0.0865
50843W        W93760  32.205  33.441   7.079  0.4636  0.0121  0.3650
50844W        W93761  32.284  34.279   7.586 -0.0502  0.1487  0.0209
50845W        W93762  29.883  33.420   7.909  0.0086 -0.0961 -0.1034
50846W        W93763  29.202  34.097   8.114 -0.1172 -0.1941 -0.0108
50847W        W93764  31.815  33.469   7.407  0.2013  0.0327  0.0870
50848W        W93765  33.331  34.180   6.161  0.0303  0.0294  0.0791
50849W        W93766  33.014  34.669   7.245 -0.0615  0.2464 -0.3711
50850W        W93767  33.178   0.012   7.780 -0.2391  0.2904 -0.1869
50851W        W93768  33.403  33.321   9.590 -0.1796 -0.1222 -0.2343
50852W        W93769  30.213  31.468   9.493  0.3033  0.0855  0.0920
50853W        W93770  29.765  33.072   6.890  0.4684 -0.3233  0.2088
50854W        W93771  29.820  33.459   7.406 -0.0309  0.0059 -0.2236
50855W        W93772  30.878  32.614   9.601  0.1862 -0.0740  0.2305
50856W        W93773  33.158  32.850   8.589 -0.1083 -0.1243  0.0229
50857W        W93774  32.066  34.190   9.105  0.2702 -0.1838  0.5400
50858W        W93775  29.266  33.991   7.111  0.1692  0.2811 -0.0112
50859W        W93776  32.795   1.077   9.747  0.1675 -0.2586  0.3158
50860W        W93777  27.912   0.446   8.772 -0.0158 -0.3392  0.0621
50861W        W93778  28.193  34.068   8.916  0.1006  0.0966 -0.0523
50862W        W93779  32.153  31.980   8.428 -0.0499 -0.0215  0.2244
50863W        W93780  31.355  31.464   8.573 -0.2144  0.0863 -0.0814
50864W        W93781  31.232  34.187   7.593  0.4863 -0.1439 -0.0033
50865W        W93782  33.421   0.709   6.280  0.1612 -0.2275 -0.2152
50866W        W93783  30.748  32.138   8.906 -0.0840 -0.4232  0.2277
50867W        W93784  32.994  30.966   8.165  0.1827  0.1899 -0.0111
50868W        W93785  30.099  33.783   7.644  0.2791 -0.0502 -0.2091
50869W        W93786  30.232  34.443   8.386 -0.0954 -0.0291 -0.1854
50870W        W93787  31.227  34.086   9.752 -0.0289  0.1619 -0.2017
50871W        W93788  33.554  33.591   9.195  0.1215  0.0029  0.3285
50872W        W93789  33.583   0.323   7.113 -0.1214  0.1924  0.1458
50873W        W93790  30.294  32.702   7.881  0.1635 -0.4713 -0.0794
50874W        W93791  32.976  34.418   8.920 -0.1063  0.1584 -0.3444
50875W        W93792  29.792   1.489  10.079  0.2214  0.2247 -0.2238
50876W        W93793  32.711  34.625   7.687  0.0323  0.1874 -0.0047
50877W        W93794  33.386   0.840   8.308 -0.1791 -0.5251  0.0310
50878W        W93795  29.069  32.997   9.058  0.3165 -0.4376 -0.0484
50879W        W93796  32.464  32.880   8.035 -0.3816  0.0785  0.1492
50880W        W93797  32.246  33.901   7.219  0.1518  0.0950 -0.1561
50881W        W93798  29.897  30.234   9.480 -0.1980  0.0071  0.1187
50882W        W93799  29.961  34.485   7.042  0.0699  0.2469  0.0626
50883W        W93800  30.286   0.837   7.530 -0.1136 -0.1166 -0.0810
50884W        W93801  29.353   0.564   8.116 -0.2530 -0.4571  0.0118
50885W        W93802  34.425  30.741   7.982  0.0855  0.2880  0.1161
50886W        W93803  29.255   0.679   6.924  0.0995 -0.3153 -0.2691
50887W        W93804  30.792  32.096   8.149 -0.1982  0.0641  0.2507
50888W        W93805  28.202  33.309   7.339 -0.1741 -0.1127  0.0207
50889W        W93806   1.884   0.375   9.918  0.0887 -0.0775 -0.1003
50890W        W93807  34.182   0.830   9.758 -0.1440  0.2161 -0.0544
50891W        W93808  32.435  32.408   9.337  0.1696 -0.0131 -0.0543
50892W        W93809  31.224  34.401   8.017  0.0005  0.0346  0.3199
50893W        W93810  32.205   1.311   9.041  0.2737 -0.3647 -0.0918
50894W        W93811  31.923  32.154   6.779 -0.1528  0.3042  0.1268
50895W        W93812  30.037  33.918   8.407  0.0610  0.2289 -0.0527
50896W        W93813  32.090   0.052   7.946  0.2348  0.1138  0.3157
50897W        W93814  31.424  33.716   6.898 -0.0480  0.2018  0.0944
50898W        W93815   0.142  34.666   9.788  0.0137  0.1178 -0.0985
50899W        W93816  28.051  32.227   8.989  0.0974  0.1146 -0.3038
50900W        W93817  31.191  32.663   8.043  0.0178 -0.0236 -0.3098
50901W        W93818  30.528  33.989   8.375  0.0988  0.0700 -0.0351
50902W        W93819  30.497  34.668   9.689  0.0928  0.1929  0.0463
50903W        W93820  31.115  32.480   9.067 -0.0004 -0.0582  0.0023
50904W        W93821  31.579  30.130   7.325 -0.0818  0.2666 -0.1809
50905W        W93822  33.591   2.556   2.708 -0.0479 -0.1476 -0.1764
50906W        W93823  32.975   2.087   0.589 -0.1622 -0.1568  0.1584
50907W        W93824  32.703   2.176   4.400  0.1621  0.0124 -0.0011
50908W        W93825  33.938  33.754   3.249 -0.0076  0.1108  0.0751
50909W        W93826  34.292   2.406   2.644 -0.0276 -0.0393  0.4055
50910W        W93827  33.198   3.792   3.490  0.1277 -0.1654 -0.0081
50911W        W93828  32.071   2.399   0.106  0.0105  0.0130 -0.0868
50912W        W93829  33.265   0.786   2.502 -0.0324 -0.0761 -0.4414
50913W        W93830  34.553   1.963   0.748 -0.1855  0.0819  0.1393
50914W        W93831  30.959   3.503   1.149  0.3458  0.0789  0.0215
50915W        W93832  31.841   3.084   2.147  0.0312  0.2724 -0.1605
50916W        W93833   1.616   0.539   2.381 -0.1107 -0.0660 -0.1538
50917W        W93834   0.250   4.477  31.715  0.0730 -0.2037 -0.2634
50918W        W93835  32.032   1.060  30.535  0.2501  0.2144 -0.0480
50919W        W93836  33.737  34.102   3.792 -0.0144 -0.0175 -0.1922
50920W        W93837  34.303   2.362   2.124  0.1442  0.0444  0.1918
50921W        W93838   0.913   4.692   0.132 -0.1354  0.2776 -0.0770
50922W        W93839   0.210   3.870   2.197  0.1148  0.3680  0.1048
50923W        W93840  33.348   3.465   1.176  0.2985 -0.0732 -0.1405
50924W        W93841  32.965   5.148   2.669  0.3819 -0.0498  0.1363
50925W        W93842  32.446   4.394   2.266  0.3330  0.1724 -0.4015
50926W        W93843   0.226   4.022   3.821  0.1124 -0.0223  0.2383
50927W        W93844  33.462   4.807   0.962  0.0708  0.0043 -0.1809
50928W        W93845  33.622   2.923   3.634  0.1439 -0.2872  0.1948
50929W        W93846  34.592   3.202   1.618  0.1578  0.2597 -0.1715
50930W        W93847  32.968   1.927   2.042  0.0015 -0.1955 -0.1227
50931W        W93848   0.354   1.762   3.536 -0.1954 -0.2275 -0.4833
50932W        W93849  32.397   4.461   2.792 -0.4979 -0.3658  0.0036
50933W        W93850  33.857   2.596  31.423 -0.0976 -0.1323 -0.1240
50934W        W93851   2.370   0.937  31.790 -0.2158 -0.1510  0.1412
50935W        W93852  32.938   0.466   2.215 -0.1131  0.0297 -0.3284
50936W        W93853   0.137   5.410   0.803 -0.0504  0.1984 -0.4404
50937W        W93854  33.018   0.867   1.986 -0.1835 -0.1836 -0.1359
50938W        W93855  34.417   1.897   4.106  0.0466 -0.3033 -0.1435
50939W        W93856  33.106   3.062   1.419  0.2217  0.0258  0.0031
50940W        W93857  33.643   0.402   1.292 -0.0013 -0.0394  0.1898
50941W        W93858  34.263   1.526   3.536  0.0771 -0.1470  0.0839
50942W        W93859  33.893   0.479   1.818  0.0881  0.2977  0.0263
50943W        W93860  33.493  34.032   0.104 -0.1203  0.2133 -0.0681
50944W        W93861   0.338   1.806   3.034 -0.1803 -0.1200  0.1258
50945W        W93862   0.118   1.617   1.870 -0.2490  0.2639  0.1419
50946W        W93863  34.269   2.214   1.091  0.1253 -0.0039  0.0003
50947W        W93864  33.976   2.575   1.210 -0.1790 -0.1164 -0.1356
50948W        W93865  33.987   5.712   2.666  0.1862 -0.0963 -0.1016
50949W        W93866   0.344   0.641   4.225 -0.1706 -0.2503  0.0767
50950W        W93867   0.045   2.268   4.330  0.1070  0.0938 -0.1929
50951W        W93868  33.230   2.675   1.828 -0.3821 -0.3125 -0.1705
50952W        W93869  32.862   3.442   2.185  0.1023 -0.0019  0.1158
50953W        W93870  31.384   1.829  31.622  0.1878 -0.0102 -0.2921
50954W        W93871  33.794   3.463   0.982 -0.2871  0.0001 -0.1615
50955W        W93872   0.182   2.797   1.329 -0.0345  0.1994 -0.0238
50956W        W93873   0.041  33.393   2.490  0.1581 -0.0194 -0.1643
50957W        W93874  32.873   1.521   1.361 -0.2718  0.1016 -0.2306
50958W        W93875  32.958   1.402   1.873  0.2219 -0.0228 -0.2241
50959W        W93876  33.176   2.322   0.977  0.1309  0.1436 -0.2879
50960W        W93877  34.264   0.557   3.685 -0.1250 -0.2594  0.0019
50961W        W93878  34.536   1.028   3.399  0.0510 -0.0578 -0.2161
50962W        W93879  34.042   0.928   1.945  0.0904  0.2625  0.0959
50963W        W93880  32.240   3.231  31.898  0.0976 -0.1724 -0.1953
50964W        W93881  33.004   0.834   0.938 -0.2150  0.2251 -0.3842
50965W        W93882  34.500   1.516   3.116  0.2215  0.0764  0.2178
50966W        W93883  32.960   2.553   0.107  0.0591 -0.2599  0.2403
50967W        W93884   0.547   3.538   1.407 -0.1989 -0.2297  0.0125
50968W        W93885  33.633   1.928   1.570  0.2422 -0.1848  0.0655
50969W        W93886  32.844   0.909   0.471 -0.1374 -0.2947  0.0628
50970W        W93887  33.607   2.209   1.975  0.0738 -0.3122  0.1400
50971W        W93888  33.379  33.526   0.266 -0.2904 -0.1350  0.2160
50972W        W93889  30.939   5.277  31.810  0.0272  0.1148 -0.1359
50973W        W93890  32.509   1.513   1.779  0.1094  0.3085  0.0160
50974W        W93891   0.428   1.351   0.816  0.0284  0.2657  0.1900
50975W        W93892  32.650   0.598   4.249 -0.2462 -0.0090 -0.3753
50976W        W93893  33.449   2.522   1.311  0.3846  0.1552  0.2078
50977W        W93894  34.572   3.194   4.097  0.1373  0.0403  0.0326
50978W        W93895  32.981   0.395   3.495  0.1325  0.0696  0.0603
50979W        W93896   0.954   3.194   1.015 -0.1335 -0.0185 -0.0945
50980W        W93897  34.336   2.598   0.758 -0.0697 -0.0059 -0.3005
50981W        W93898  32.346   3.493   2.324  0.2718  0.1270  0.0782
50982W        W93899   0.017   1.382   3.719  0.0776  0.0230 -0.0339
50983W        W93900  33.474   2.100   0.617  0.0801  0.2976 -0.2686
50984W        W93901  34.476   4.048   0.692 -0.0826 -0.0497 -0.1019
50985W        W93902  33.828   1.486   1.681  0.1442  0.0095  0.1272
50986W        W93903  32.384   1.885   0.750 -0.5764 -0.1024  0.0948
50987W        W93904  34.658   1.992   2.773  0.0661 -0.0530  0.0722
50988W        W93905  31.426   3.095   3.715 -0.0855 -0.1838 -0.1523
50989W        W93906  33.606   4.151   2.074  0.3675 -0.0740 -0.0422
50990W        W93907   0.430   1.305   3.047  0.1569  0.0326 -0.1467
50991W        W93908  31.561   2.322   0.305 -0.2100  0.0513  0.0589
50992W        W93909  32.372   3.023   0.713 -0.1591  0.1459  0.2161
50993W        W93910  33.814   1.036   2.699  0.1423  0.2644 -0.3580
50994W        W93911  33.885   3.383   2.859  0.1278  0.0902  0.3456
50995W        W93912  34.359   2.921   1.223 -0.2007  0.0071  0.3639
50996W        W93913  32.711   2.414   1.864 -0.0425 -0.1503  0.3253
50997W        W93914  33.597   3.007   1.286  0.0113 -0.3245 -0.1447
50998W        W93915   0.850   0.986  30.858  0.2299  0.0784 -0.1747
50999W        W93916  33.405   0.670   1.678  0.0417 -0.5824 -0.0673
51000W        W93917  33.525   2.660   2.200 -0.2314 -0.0572 -0.1406
51001W        W93918   0.656   1.274   1.265 -0.1969  0.0527  0.2540
51002W        W93919  34.051   4.348   1.998  0.0229 -0.0333 -0.3515
51003W        W93920   0.021   0.383   4.619  0.0699 -0.0126  0.3032
51004W        W93921  34.340   0.285   1.786  0.1357 -0.1747 -0.2139
51005W        W93922  33.267   1.445   0.986 -0.1322 -0.3597  0.0900
51006W        W93923  31.593   4.203   1.966 -0.0694  0.0856  0.0209
51007W        W93924   0.369   3.164   1.085 -0.0559  0.1827  0.1832
51008W        W93925  32.881   2.483   1.362 -0.4169 -0.0576  0.3589
51009W        W93926  34.582  34.270   4.070 -0.3033  0.1056  0.4212
51010W        W93927  33.718   2.763   1.672 -0.0037  0.1734  0.1106
51011W        W93928  33.718   1.624   1.169  0.1127  0.1612  0.1485
51012W        W93929  34.565  34.654   1.258  0.1308 -0.2985  0.6619
51013W        W93930  33.910   3.237   3.313  0.0889  0.0871 -0.4089
51014W        W93931   0.185   4.021   4.384  0.0847  0.2831  0.0923
51015W        W93932  32.347   2.421   0.787  0.0584 -0.0803 -0.1669
51016W        W93933  31.879   2.286   3.668 -0.0274 -0.0564 -0.1416
51017W        W93934  34.362   3.204   0.572  0.1081  0.1219 -0.0222
51018W        W93935   1.002  33.114   1.547  0.1809  0.0814  0.0498
51019W        W93936  34.421   3.419   1.098  0.1906 -0.1201 -0.4924
51020W        W93937  32.800   2.601   0.644  0.3540 -0.3177  0.0166
51021W        W93938  33.265   4.035   2.982 -0.0207 -0.1136  0.3233
51022W        W93939  34.500   0.341   0.882 -0.1888 -0.1715 -0.0481
51023W        W93940   0.061   2.514   3.014 -0.0428 -0.1311  0.2156
51024W        W93941  34.376   0.233   2.619  0.0785 -0.0644 -0.4350
51025W        W93942  32.751   1.996   2.998  0.1053  0.1969 -0.1068
51026W        W93943  34.547  34.604   0.553 -0.1131  0.0212  0.2225
51027W        W93944   0.928   1.767   0.789 -0.1667  0.1396 -0.0571
51028W        W93945  34.222   2.852   1.707  0.2269  0.3308 -0.0701
51029W        W93946  33.421   2.403   3.286  0.0027  0.2781  0.0348
51030W        W93947  32.743   1.688   0.412 -0.2003  0.1385  0.1906
51031W        W93948  34.101   1.879   1.423  0.1196  0.1686  0.0223
51032W        W93949  34.172   1.916   2.416 -0.2342 -0.2522  0.2074
51033W        W93950  32.690   3.112   2.528 -0.2114 -0.0074 -0.1839
51034W        W93951   0.075   0.372   3.715  0.3226 -0.1289 -0.1537
51035W        W93952  32.150   2.405   4.141 -0.2854  0.1632 -0.1986
51036W        W93953  32.587  33.845  31.607  0.2943  0.0512 -0.1904
51037W        W93954   0.602   2.530  30.896  0.4244  0.1285  0.1646
51038W        W93955   0.280   1.609   2.581 -0.1576  0.2139 -0.2803
51039W        W93956  34.253   2.391   4.267 -0.1987  0.1235 -0.2470
51040W        W93957  33.641   2.619   0.807  0.0727  0.0096 -0.1128
51041W        W93958  32.760   3.414   1.276 -0.0625  0.1538  0.0916
51042W        W93959   0.079   3.024   3.108 -0.0515  0.3306  0.0313
51043W        W93960   1.240  33.995  31.794  0.1538  0.1392 -0.1581
51044W        W93961  33.281   3.415   2.692 -0.2092  0.1264 -0.2236
51045W        W93962  32.839   3.718   0.568 -0.1209 -0.0929  0.0579
51046W        W93963  33.088   2.299   4.049 -0.1360  0.1426 -0.1949
51047W        W93964   0.429   4.190   1.927  0.0329 -0.1350  0.0982
51048W        W93965  34.394   2.811  31.593 -0.1938  0.0473 -0.1249
51049W        W93966   0.336   2.125   1.845  0.0761 -0.2181  0.0327
51050W        W93967  33.355   5.129   2.138 -0.0842  0.1571  0.1150
51051W        W93968  33.226   1.715   5.163 -0.1463 -0.1659 -0.2117
51052W        W93969  34.195   0.790  31.389 -0.0182 -0.2991 -0.2664
51053W        W93970   0.210   3.295   5.668  0.1786 -0.0357 -0.0993
51054W        W93971   0.867   1.486   1.643  0.1598 -0.0775 -0.0516
51055W        W93972  30.503   0.968  31.905  0.2993 -0.1917  0.1225
51056W        W93973   0.061   1.959  30.872  0.1166 -0.1490 -0.0214
51057W        W93974  33.356   3.497   0.515  0.2615  0.4149 -0.0227
51058W        W93975  33.315   4.301  29.785 -0.1657  0.3135 -0.2983
51059W        W93976  33.851   1.527   2.730 -0.0214  0.1263  0.2836
51060W        W93977  32.761   2.031   1.117  0.0967 -0.0632  0.1858
51061W        W93978  32.064   2.367  29.518 -0.2052  0.2021  0.0116
51062W        W93979  33.399   0.375   3.945  0.0360 -0.0913  0.1415
51063W        W93980  34.518   4.248   4.122 -0.1225 -0.1594  0.0735
51064W        W93981  31.961   1.280   0.093  0.2643 -0.2220 -0.1605
51065W        W93982  32.244   3.141   3.374  0.0804 -0.2316  0.0416
51066W        W93983  33.480   0.724  31.503 -0.0072 -0.0977 -0.0426
51067W        W93984  33.536   3.104   0.725 -0.2301 -0.0931  0.0360
51068W        W93985  34.330   3.282   3.022 -0.1610 -0.2919  0.0763
51069W        W93986  34.457   4.225   2.905  0.1254 -0.5347  0.1070
51070W        W93987  31.907   1.175   0.626 -0.1725  0.0968  0.0268
51071W        W93988  31.392   2.534   3.635  0.2545  0.1105 -0.0116
51072W        W93989  34.376  34.162   2.153 -0.2964 -0.1362 -0.3318
51073W        W93990  33.170   1.151   3.918  0.1012  0.1802 -0.1331
51074W        W93991   1.154   3.794  28.827 -0.0035 -0.0458  0.2576
51075W        W93992   0.197   0.376   3.202 -0.1120  0.0905 -0.2540
51076W        W93993  33.716   1.819   0.185 -0.1419 -0.0899 -0.4029
51077W        W93994  32.349   2.017   3.735 -0.2534 -0.4382  0.0982
51078W        W93995  33.822  33.812   1.073 -0.0685 -0.0637  0.0045
51079W        W93996  34.555   3.826  30.516 -0.2851 -0.0005 -0.1499
51080W        W93997  32.443   0.340   2.649 -0.4413  0.1929  0.2184
51081W        W93998   0.027   2.395   1.014 -0.0230 -0.0595  0.3485
51082W        W93999  31.906   1.674   0.769 -0.1790  0.1101  0.0026
51083W        W94000  33.323   2.133   2.358  0.0253  0.0310 -0.2774
51084W        W94001  33.378   5.103   1.654 -0.0343  0.3222 -0.2179
51085W        W94002  34.460   2.016   1.807 -0.0643 -0.0030  0.0748
51086W        W94003   0.878   2.921   3.673 -0.0385 -0.1726 -0.4272
51087W        W94004  33.520   2.903   0.243 -0.3352  0.3474 -0.1351
51088W        W94005  34.106   3.140   3.778 -0.2175 -0.3059 -0.1036
51089W        W94006  34.396   1.543  31.168  0.5436  0.0917 -0.2032
51090W        W94007  34.029   4.541   3.505  0.0875 -0.0037 -0.1975
51091W        W94008   1.490   0.967  30.136 -0.1479 -0.0780 -0.0941
51092W        W94009   0.813   0.624   0.287  0.3002  0.3351 -0.1744
51093W        W94010  34.042   1.977   3.416 -0.2475 -0.5181 -0.0853
51094W        W94011  32.019   2.021   0.447  0.0042 -0.0694 -0.0019
51095W        W94012  33.021   3.290   0.796  0.4255 -0.1957  0.0413
51096W        W94013  33.891   1.493   3.185 -0.0807 -0.1535 -0.0543
51097W        W94014  33.836   1.065   4.556 -0.0577  0.1025  0.2219
51098W        W94015  33.846   3.108   2.020  0.0915 -0.1402  0.3356
51099W        W94016  34.629   0.818   1.976  0.2308  0.2376  0.1074
51100W        W94017  34.212   1.033   2.973  0.0481 -0.1654 -0.1483
51101W        W94018  34.667   1.898   2.260  0.1794  0.0886 -0.0640
51102W        W94019   1.464   1.718  31.235 -0.0411  0.4648 -0.2727
51103W        W94020  33.380   0.916   1.256 -0.0137  0.1201 -0.1948
51104W        W94021  33.815   2.429   3.603 -0.1314  0.0689 -0.0481
51105W        W94022  34.560   0.625   2.936 -0.2778  0.4303 -0.0642
51106W        W94023  31.411   0.046   1.577 -0.2537 -0.1831 -0.0306
51107W        W94024  34.033   2.341   1.705 -0.1474  0.0402 -0.1118
51108W        W94025  32.593   2.969   3.687 -0.1974 -0.0880 -0.1084
51109W        W94026  34.212   3.448   1.939  0.0705 -0.1517 -0.2179
51110W        W94027  33.870   0.087   2.941  0.2165 -0.2535  0.0002
51111W        W94028  34.243   2.824   3.405  0.2079  0.0053 -0.4234
51112W        W94029   0.361  33.270   3.888 -0.2253  0.3293  0.0274
51113W        W94030   0.876   1.759   4.442  0.0536  0.3097  0.0264
51114W        W94031  33.747   0.700   2.357 -0.1386  0.2288  0.2552
51115W        W94032  34.055   3.251   1.445 -0.2126  0.1546  0.0298
51116W        W94033  33.973   2.233   0.631 -0.2007 -0.1034  0.0239
51117W        W94034  34.071   4.127   3.257 -0.0682  0.2636  0.0384
51118W        W94035  34.455   2.979  30.181 -0.0573  0.1416 -0.1250
51119W        W94036  34.260   3.368   2.449 -0.1930 -0.0958 -0.1439
51120W        W94037  32.619   0.545   1.164 -0.3190 -0.2533  0.0402
51121W        W94038  32.358   2.198   1.351 -0.1992  0.2590  0.1637
51122W        W94039  33.730   2.034   2.710  0.0182 -0.0359 -0.0701
51123W        W94040  32.346  34.556   1.014  0.0114  0.0403 -0.0867
51124W        W94041  33.101   2.882   3.898 -0.3797  0.0275  0.1265
51125W        W94042   1.772   1.773   5.859  0.1747 -0.0303 -0.0679
51126W        W94043   1.170   0.021   7.111 -0.2344  0.2562 -0.3193
51127W        W94044  33.624   0.582   4.594 -0.1052  0.0447  0.1293
51128W        W94045   1.620   0.499   5.873  0.3261  0.2040 -0.2205
51129W        W94046   2.029   0.041   7.190  0.3071 -0.1505  0.0348
51130W        W94047  33.289   4.040   5.421  0.0458 -0.2039 -0.3073
51131W        W94048   0.440   0.056   3.529  0.2582  0.1220 -0.2325
51132W        W94049  34.226  34.543   5.970 -0.0849  0.1110 -0.4731
51133W        W94050  33.399   1.565   5.635 -0.0717 -0.0606 -0.4285
51134W        W94051  34.340   0.073   5.350 -0.1987 -0.1036 -0.0202
51135W        W94052   1.539   0.890   3.261  0.3218 -0.1219 -0.0903
51136W        W94053   1.212   0.158   5.921  0.0965  0.2154  0.2051
51137W        W94054   1.943   2.294   4.644  0.0599 -0.1073  0.0566
51138W        W94055  33.988   0.787   4.164  0.1321  0.2002  0.0574
51139W        W94056  33.664   0.500   5.910  0.1102 -0.0693 -0.0497
51140W        W94057   0.940  34.147   6.249 -0.0454  0.1766  0.0526
51141W        W94058  33.084   3.085   4.409  0.0621 -0.2570  0.0317
51142W        W94059  34.201   2.718   5.087 -0.0012 -0.1144 -0.2427
51143W        W94060  33.899   1.268   5.520 -0.0034 -0.6234  0.0833
51144W        W94061  33.204   1.698   3.862 -0.1469 -0.0398 -0.4238
51145W        W94062  34.466   2.754   3.982  0.0038 -0.2185  0.4549
51146W        W94063   0.750   3.199   6.458  0.0328  0.0471  0.1468
51147W        W94064  34.338   0.998   3.873 -0.0800  0.3455  0.1555
51148W        W94065  34.088   3.960   7.005  0.1225 -0.2406 -0.1536
51149W        W94066  34.362   4.021   5.176 -0.3950  0.1538  0.1347
51150W        W94067   0.630   0.995   4.550  0.0677  0.1781  0.1794
51151W        W94068   0.009   1.423   7.173 -0.0056 -0.0417 -0.1581
51152W        W94069  32.293   1.278   3.286 -0.2466  0.0908 -0.0569
51153W        W94070  32.839   2.614   4.807 -0.1712 -0.0898 -0.3577
51154W        W94071   0.505   2.744   3.300 -0.1012 -0.0604  0.1705
51155W        W94072  34.211  34.254   5.478 -0.0138 -0.0785  0.4314
51156W        W94073  34.421   2.036   5.495  0.2437 -0.0069 -0.3070
51157W        W94074   0.832   0.095   5.589  0.2943 -0.3465  0.2866
51158W        W94075  33.701   3.511   6.813  0.2162 -0.0102  0.3241
51159W        W94076   0.517   0.653   6.427 -0.2311  0.1355  0.2285
51160W        W94077   0.722   2.008   5.352 -0.1864  0.2618  0.2214
51161W        W94078   0.321   0.773   5.406  0.0849 -0.1224  0.0881
51162W        W94079   0.302   0.675   5.953 -0.0991 -0.0046 -0.6647
51163W        W94080   0.873   0.536   2.708  0.0193 -0.0759  0.2300
51164W        W94081  33.813   2.487   6.823  0.2606 -0.1128  0.0475
51165W        W94082   0.511   1.526   4.013  0.1838  0.2034  0.0787
51166W        W94083   0.980   1.668   3.916  0.2962  0.1290  0.1543
51167W        W94084  34.079   3.852   2.762  0.0384 -0.2439 -0.1003
51168W        W94085   0.828   3.297   5.975  0.1606  0.0647  0.0250
51169W        W94086   2.059   1.719   6.291 -0.1877 -0.0172  0.0857
51170W        W94087  34.624   1.672   5.847 -0.0216 -0.3976 -0.0020
51171W        W94088  33.138   2.604   4.375  0.4282 -0.3500 -0.0883
51172W        W94089   0.033   1.209   4.201  0.1371 -0.1448 -0.0579
51173W        W94090   0.191   0.124   4.187 -0.0056  0.1014  0.1463
51174W        W94091   0.839   0.619   4.838  0.2031  0.1503  0.2298
51175W        W94092   0.087   0.961   4.658  0.4601 -0.0568 -0.1174
51176W        W94093  33.298   0.227   5.493 -0.3255  0.1069 -0.3383
51177W        W94094  33.944   0.181   6.202  0.1217 -0.0071 -0.4411
51178W        W94095  33.927   1.404   7.829 -0.2138  0.2321  0.4531
51179W        W94096  34.222  34.007   3.534 -0.0873 -0.1987 -0.0913
51180W        W94097  34.551   0.275   5.758  0.0311 -0.0957 -0.1774
51181W        W94098   0.154  34.359   6.900  0.3642  0.0666  0.2466
51182W        W94099  34.267   0.298   4.874  0.3952  0.1310  0.1411
51183W        W94100   0.138   3.248   5.083  0.3075 -0.4150  0.4180
51184W        W94101  33.829  34.368   6.302 -0.0187  0.2202 -0.0130
51185W        W94102   1.483  34.569   5.588 -0.0912 -0.3944 -0.1116
51186W        W94103  33.317   0.791   3.523  0.2315  0.0793  0.0713
51187W        W94104  33.487   5.405   4.872  0.1318  0.0360  0.0357
51188W        W94105   1.693   3.435   4.937  0.0289  0.0175 -0.0097
51189W        W94106   0.246  34.591   4.627  0.3742  0.1804  0.3715
51190W        W94107   1.099   2.851   5.545 -0.1249 -0.1320  0.1056
51191W        W94108   0.747  34.426   3.259 -0.3528 -0.1293 -0.2186
51192W        W94109  33.355   1.807   3.234  0.0394  0.1725 -0.1979
51193W        W94110  33.848   0.998   5.938  0.0789  0.2195 -0.0693
51194W        W94111   0.012   4.111   5.663 -0.2974  0.0086  0.0452
51195W        W94112  34.597   0.811   5.663  0.3533  0.0642 -0.2223
51196W        W94113   0.821  33.614   6.205 -0.2563  0.2502 -0.1960
51197W        W94114  33.922   2.256   4.922  0.1244 -0.0785 -0.1797
51198W        W94115  33.629   1.718   7.131 -0.1328 -0.2291  0.0036
51199W        W94116   1.633   2.340   3.721  0.2474 -0.0143 -0.1953
51200W        W94117  34.076   1.439   6.769  0.1660 -0.0778  0.1922
51201W        W94118  34.450   1.491   5.342 -0.0293 -0.0074  0.1665
51202W        W94119  33.692  32.347   6.312 -0.0571  0.0336 -0.0634
51203W        W94120   1.794   1.226   2.807  0.2235  0.1827 -0.0504
51204W        W94121  33.523   2.874   3.115 -0.1091  0.1200 -0.0400
51205W        W94122   2.045   1.127   5.064 -0.3995 -0.1500 -0.2367
51206W        W94123   1.501   0.043   4.873  0.0541 -0.0249 -0.1242
51207W        W94124   0.918  33.490   7.230  0.0661  0.0270 -0.3345
51208W        W94125   1.997   1.244   4.472 -0.0199  0.0938 -0.0486
51209W        W94126  33.838   3.907   6.549 -0.2196 -0.0738  0.2468
51210W        W94127   2.918   0.136   5.821 -0.4425  0.1253  0.1446
51211W        W94128  33.138   1.918   4.409 -0.0377  0.1235  0.2629
51212W        W94129  33.971   2.128   3.977 -0.0986 -0.1162  0.0399
51213W        W94130   0.805  34.655   6.310  0.1984 -0.1318 -0.0321
51214W        W94131   0.486   4.678   7.629 -0.2075 -0.3417  0.2385
51215W        W94132   0.671   2.666   4.241 -0.2279 -0.0008  0.0900
51216W        W94133  33.702   1.663   3.687 -0.1485  0.0045 -0.2538
51217W        W94134   0.114   3.939   6.157 -0.2786  0.5424 -0.2329
51218W        W94135  34.314   2.316   3.742 -0.3251 -0.1487 -0.0822
51219W        W94136   0.367   2.212   4.984 -0.1548 -0.1608 -0.0253
51220W        W94137  33.428  34.126   5.487  0.1473 -0.1260  0.1565
51221W        W94138   3.169   0.176   5.362 -0.2663 -0.5750 -0.0359
51222W        W94139  33.823   2.470   5.916  0.0217 -0.0683 -0.2040
51223W        W94140   2.409   0.417   6.505  0.0699 -0.0796  0.4484
51224W        W94141   0.512   1.116   2.553 -0.0174  0.1134 -0.3425
51225W        W94142  34.494   0.707   4.252  0.2127  0.0548  0.0575
51226W        W94143   0.047   1.833   4.935  0.0823  0.0609  0.1795
51227W        W94144  34.300   0.556   6.127 -0.4478  0.1763  0.2989
51228W        W94145  34.067   0.327   5.682 -0.0042  0.0261 -0.0575
51229W        W94146   0.647   1.047   5.739  0.1224  0.2304  0.2187
51230W        W94147   2.511   1.441   6.251 -0.0407  0.0398  0.0628
51231W        W94148   0.321  32.509   4.168  0.1562  0.1860 -0.1569
51232W        W94149   0.359   0.635   4.943  0.1801  0.5752  0.2236
51233W        W94150   0.862   0.960   6.181  0.4523 -0.2045 -0.0687
51234W        W94151  33.447   2.520   7.182 -0.1993  0.2593 -0.0546
51235W        W94152   1.365   2.000   3.996 -0.0097  0.0225  0.1891
51236W        W94153  33.114   1.839   6.444  0.3310  0.1944 -0.1482
51237W        W94154  34.463   3.591   5.393  0.0626 -0.0358  0.1911
51238W        W94155   1.872  34.230   5.691 -0.1181  0.2554 -0.2160
51239W        W94156  34.033   1.758   5.706 -0.1182  0.0019  0.1576
51240W        W94157   0.633   2.618   7.282  0.0472 -0.1079  0.0476
51241W        W94158  33.976   2.883   5.505  0.0998 -0.1689  0.2246
51242W        W94159   2.248   1.022   5.542  0.2092 -0.0324 -0.3645
51243W        W94160   0.342   1.315   7.496 -0.2005  0.0288 -0.2149
51244W        W94161  34.172  32.859   5.838  0.0432 -0.4308  0.1237
51245W        W94162  34.591   0.010   6.352 -0.1948  0.1314  0.0863
51246W        W94163   0.735  34.512   4.746 -0.1551 -0.0702 -0.1604
51247W        W94164   0.385   0.189   6.116  0.0486  0.0167  0.0698
51248W        W94165  34.221   3.159   4.891 -0.2711 -0.1633 -0.0283
51249W        W94166   0.404   1.295   6.354  0.0482 -0.1555  0.0402
51250W        W94167   0.769   0.142   2.300  0.0392 -0.1833 -0.1278
51251W        W94168   2.478  33.537   6.655  0.0383 -0.1566  0.3961
51252W        W94169  34.478  33.809   5.714 -0.1486  0.0173  0.0561
51253W        W94170  34.180   1.302   6.289  0.1271  0.0273 -0.1955
51254W        W94171  32.624   0.788   6.548 -0.5796  0.0404  0.1018
51255W        W94172   1.093   0.568   2.191  0.0503  0.0353  0.0734
51256W        W94173   0.379   1.962   4.504 -0.1845 -0.3361  0.0688
51257W        W94174   1.302   0.650   4.534  0.1766 -0.4003  0.1229
51258W        W94175  34.512   3.172   6.781  0.0193  0.1159  0.2700
51259W        W94176  33.393   1.422   1.488 -0.1474  0.0306 -0.0671
51260W        W94177   0.781   0.952   3.046  0.0950 -0.3378 -0.0432
51261W        W94178  34.532   3.641   5.864 -0.0419  0.2454  0.2012
51262W        W94179   0.771  33.595   4.271  0.0705 -0.0555  0.1412
51263W        W94180  34.656   2.821   4.934 -0.2122  0.0994 -0.2182
51264W        W94181  31.236   4.045   4.117  0.1599  0.2661  0.0614
51265W        W94182  32.564   3.640   7.283  0.1843  0.1585  0.2062
51266W        W94183  33.268   2.900   4.837  0.2706 -0.2867  0.0348
51267W        W94184   1.999   2.027   5.461  0.3123 -0.0423 -0.2235
51268W        W94185  34.492   2.523   7.486  0.0935  0.3794  0.1548
51269W        W94186  34.094   3.832   5.560 -0.1029 -0.1411 -0.0975
51270W        W94187  34.538  33.642   6.147  0.1641 -0.1732 -0.0920
51271W        W94188   1.463  34.179   6.006  0.1123 -0.3317  0.1424
51272W        W94189  33.528   1.295   8.493 -0.2125 -0.0706  0.0812
51273W        W94190  34.618   0.961   5.139 -0.0182 -0.1354  0.3211
51274W        W94191  34.644   3.623   4.859 -0.0742 -0.4031  0.2376
51275W        W94192   0.788  33.462   5.618  0.1348 -0.0474 -0.0549
51276W        W94193  33.350   2.394   5.605  0.0997 -0.2651 -0.0327
51277W        W94194   0.031   1.675   4.444 -0.0259 -0.3300  0.0643
51278W        W94195   1.196   3.362   5.493  0.0201  0.1132  0.1938
51279W        W94196  34.210   0.663   5.251  0.2802 -0.0880  0.4296
51280W        W94197   1.098   0.332   3.828  0.3928  0.0041 -0.1110
51281W        W94198  34.311  33.061   4.828 -0.0923  0.2301  0.0946
51282W        W94199  34.565   2.626   6.117 -0.1643 -0.1902 -0.0753
51283W        W94200  34.039   1.360   4.927 -0.2014  0.2842 -0.4751
51284W        W94201   0.265   2.427   6.341 -0.1559 -0.0600  0.3186
51285W        W94202   0.263   2.970   3.826  0.3560 -0.4589  0.0392
51286W        W94203  33.367   3.393   4.716  0.0724 -0.0580  0.1443
51287W        W94204  33.883   4.720   6.406 -0.2416 -0.1509  0.0278
51288W        W94205  33.649   3.667   4.223  0.3056 -0.1828 -0.3642
51289W        W94206   0.336   0.321   5.602 -0.2819  0.4430  0.3078
51290W        W94207  34.330   2.597   5.664  0.0470 -0.3027  0.0812
51291W        W94208  34.306   1.309   5.809 -0.2450 -0.0502 -0.0813
51292W        W94209   1.532   0.317   3.437  0.1060  0.0830 -0.0640
51293W        W94210  34.206   0.809   4.708 -0.0392  0.2066  0.2323
51294W        W94211   0.010   0.359   6.824 -0.0345  0.0711  0.1818
51295W        W94212   0.721   1.063   6.660 -0.1273 -0.2816  0.3739
51296W        W94213   1.146  31.980   4.024  0.0754  0.2226 -0.1551
51297W        W94214  34.597   3.718   2.786 -0.0768  0.0314  0.0666
51298W        W94215  34.596   1.234   6.582  0.0680 -0.2007  0.0865
51299W        W94216   2.522  34.131   4.513 -0.0868 -0.1886 -0.2677
51300W        W94217  33.461   2.041   6.803  0.4686  0.2176 -0.1363
51301W        W94218  32.282   2.668   3.530  0.1918 -0.3811  0.0686
51302W        W94219   0.293   4.531   4.423 -0.3182  0.0428  0.2021
51303W        W94220   1.774   3.396   7.127  0.2196 -0.0829  0.0175
51304W        W94221   1.601   3.679   6.745  0.0730  0.2950  0.3922
51305W        W94222  33.982   2.730   4.038 -0.1540 -0.1865  0.0709
51306W        W94223  34.080   1.445   7.295  0.3368  0.1446  0.1224
51307W        W94224   1.020   2.420   5.243 -0.1812 -0.0904 -0.1666
51308W        W94225   1.946   2.782   4.540  0.2416  0.1149 -0.0806
51309W        W94226  33.762   1.815   5.223 -0.0456 -0.0993  0.0723
51310W        W94227   0.474  34.466   5.424 -0.2307  0.1007 -0.1643
51311W        W94228  34.167   4.304   6.664 -0.1887 -0.0694 -0.0114
51312W        W94229  33.706   1.218   3.967 -0.1892  0.3430  0.1903
51313W        W94230  34.150   1.443   3.962 -0.1136 -0.1165 -0.1540
51314W        W94231   0.193   1.821   5.461  0.2104  0.0725  0.3377
51315W        W94232   1.035   1.477   6.247 -0.4657  0.0220  0.0104
51316W        W94233   0.122   2.301   5.727  0.2320  0.2809 -0.0939
51317W        W94234  33.733   0.779   5.490 -0.1041 -0.0210 -0.1327
51318W        W94235   0.234  33.712   4.758 -0.0616 -0.2815  0.0158
51319W        W94236  34.364  34.585   4.495 -0.0963  0.0177 -0.0099
51320W        W94237  33.855  33.212   5.718  0.3246  0.0351  0.0034
51321W        W94238  33.719   3.269   5.075 -0.1296 -0.0358 -0.1671
51322W        W94239   1.938   0.352   6.248 -0.2983 -0.0371 -0.0710
51323W        W94240   1.310   0.905   5.966 -0.1282 -0.2472  0.0160
51324W        W94241  33.794   0.702   3.709  0.1561  0.0010 -0.0363
51325W        W94242   0.595   1.469   5.386 -0.0143  0.3536 -0.2458
51326W        W94243   0.052   1.937   7.345  0.3478 -0.1844  0.3582
51327W        W94244   1.433   4.165   7.531 -0.3070  0.0292 -0.2156
51328W        W94245   0.224  33.981   6.107 -0.2008  0.2361  0.2636
51329W        W94246  34.040   0.583   7.228 -0.2219  0.1566 -0.3949
51330W        W94247  33.575   0.406   9.125 -0.0353 -0.1936  0.0873
51331W        W94248  34.249   1.258   4.427  0.1159 -0.1103 -0.0728
51332W        W94249  33.787  32.637   5.602  0.0225 -0.4043  0.0059
51333W        W94250  32.146   3.156   5.376 -0.0161 -0.0485 -0.1664
51334W        W94251   0.610   1.017   3.934 -0.1477  0.4561  0.2169
51335W        W94252   2.430   0.211   6.896  0.1360  0.1519 -0.0868
51336W        W94253  34.125   3.111   4.322  0.0307 -0.0722  0.0588
51337W        W94254   0.288   3.897   7.088  0.2284 -0.3348 -0.1821
51338W        W94255   1.334  33.337   4.287  0.0576  0.1421  0.0066
51339W        W94256  34.509   1.369   4.848 -0.0016  0.1572 -0.2711
51340W        W94257   1.279   1.581   4.692  0.2150  0.0165  0.1272
51341W        W94258   2.516   2.922   5.499 -0.1942  0.2776 -0.0146
51342W        W94259  32.176   3.969   7.029 -0.3655  0.1215 -0.2175
51343W        W94260   0.440   4.038   9.558  0.0017 -0.1532  0.0174
51344W        W94261   1.376   0.163   7.938 -0.0847 -0.1365 -0.0171
51345W        W94262   0.267   0.532   9.146  0.0803 -0.0759 -0.1488
51346W        W94263   0.589   1.981   9.391  0.1258  0.0440 -0.2796
51347W        W94264   1.546  34.204   7.619  0.1415  0.1057 -0.2120
51348W        W94265  30.092  34.075  10.089  0.1917  0.0035  0.2263
51349W        W94266  34.554   0.685   9.456 -0.0027  0.3856 -0.2917
51350W        W94267  34.040   1.074   9.261 -0.1326 -0.1612  0.0099
51351W        W94268   2.347  34.153   7.829  0.3779  0.1742 -0.0111
51352W        W94269  33.640  34.199   8.823 -0.3143  0.0948  0.0754
51353W        W94270  34.319   3.417   7.602 -0.3983  0.1906  0.0072
51354W        W94271  32.941   0.884   6.175 -0.0173  0.2959  0.0382
51355W        W94272  33.726   1.645   8.774  0.0138  0.0803 -0.1169
51356W        W94273  34.169   3.775   7.972  0.1694  0.1208 -0.0761
51357W        W94274   0.325   2.306   7.647  0.0591 -0.0632  0.0605
51358W        W94275   0.378   2.588   9.604  0.0521  0.2914 -0.1677
51359W        W94276   0.539   2.125   7.242  0.2721 -0.1288 -0.0026
51360W        W94277   0.651   1.686   9.817  0.0675  0.2040  0.2140
51361W        W94278  34.170   2.426   6.348 -0.2753 -0.0478  0.0469
51362W        W94279  33.187   3.003   7.198  0.0189  0.3259  0.0528
51363W        W94280  33.962   2.036   6.723  0.1845 -0.0927 -0.1606
51364W        W94281   2.370   0.653  10.953  0.4061 -0.0582 -0.1183
51365W        W94282  33.269   4.169   8.469 -0.2185 -0.2089  0.0531
51366W        W94283  33.890   3.721   7.372 -0.3244 -0.3918 -0.0133
51367W        W94284   1.828   1.292   5.521 -0.0540  0.0482  0.0710
51368W        W94285   0.663   0.822   9.210 -0.0752  0.2008  0.1609
51369W        W94286  34.160   1.754   8.513  0.0857  0.2660  0.0598
51370W        W94287  33.971  34.633  10.015 -0.3523  0.0275  0.0984
51371W        W94288   0.580   2.732   9.096 -0.0896 -0.1058 -0.2963
51372W        W94289   1.478   1.229   7.921  0.0914  0.1112  0.0114
51373W        W94290   0.545  34.385   8.416  0.4524  0.0760  0.0794
51374W        W94291   0.275  33.907   9.469 -0.2072  0.3268  0.0819
51375W        W94292   3.111   2.268   8.826 -0.3775 -0.0551 -0.3594
51376W        W94293   1.545   0.346   5.255  0.0780  0.0489  0.2880
51377W        W94294   1.560   2.070   9.464 -0.2246 -0.1028  0.1648
51378W        W94295  33.735   3.889   9.352 -0.1548 -0.0311  0.1075
51379W        W94296  34.509   3.122   5.874 -0.2246  0.1308  0.0287
51380W        W94297  33.544   3.128   9.461  0.1959  0.0482  0.0492
51381W        W94298  33.440   3.473   7.229 -0.1035  0.1541 -0.1898
51382W        W94299   0.304   0.465   9.634  0.0088  0.5574  0.2692
51383W        W94300   0.420   0.751  10.088  0.1989  0.1311 -0.1062
51384W        W94301  33.729   1.792   7.612  0.0938 -0.0164 -0.1897
51385W        W94302  33.811  33.188   8.766  0.4271  0.0197  0.2483
51386W        W94303  34.508  33.711   9.011  0.2128  0.1267 -0.0981
51387W        W94304  34.641   1.694   8.561  0.2504 -0.2079 -0.0345
51388W        W94305  34.338   0.821   8.965  0.0654  0.4901 -0.1383
51389W        W94306   1.411   1.807   7.202 -0.1111  0.1823  0.0850
51390W        W94307   0.147   2.410   8.138 -0.3948  0.0184 -0.1592
51391W        W94308   1.180   0.855   6.947  0.0585 -0.2123  0.2143
51392W        W94309  34.631  34.521   7.641  0.3017 -0.0198  0.1722
51393W        W94310  33.200   2.382   8.459  0.0114 -0.0374  0.0477
51394W        W94311   0.933   3.571   7.879  0.1034 -0.0370 -0.2042
51395W        W94312   1.654  34.600   6.180  0.0969  0.4097  0.0735
51396W        W94313   1.060  34.007   7.895 -0.0074 -0.0788  0.0135
51397W        W94314  33.340   2.048   7.376 -0.1378 -0.0708  0.0463
51398W        W94315  31.982   2.102   9.131  0.0084  0.2004 -0.2361
51399W        W94316  34.300   2.393   6.921  0.1516 -0.0134  0.2249
51400W        W94317  34.156   1.431   9.758 -0.0238 -0.0652  0.0645
51401W        W94318   1.284   2.401   8.470 -0.0259  0.2620 -0.1388
51402W        W94319   0.971   0.064  10.441  0.0682  0.1433 -0.1120
51403W        W94320  30.193   0.904   9.840  0.1095  0.1341  0.3198
51404W        W94321   3.197   1.984  10.461  0.1433 -0.1595  0.0929
51405W        W94322   1.535   0.711   6.405 -0.1649 -0.0286 -0.2857
51406W        W94323  32.326   3.999   6.053 -0.0288  0.1816 -0.3550
51407W        W94324  33.435   1.361   7.993  0.2099  0.4445  0.1472
51408W        W94325  33.336  33.258   8.447 -0.1350  0.0163 -0.0118
51409W        W94326  34.105   2.993   9.329  0.2603 -0.1924  0.2979
51410W        W94327  33.157   1.640   7.025  0.1050  0.1552  0.0685
51411W        W94328  34.448   2.746   8.433 -0.0881  0.0523 -0.1666
51412W        W94329   0.253  34.002   8.265  0.4466  0.1423 -0.4229
51413W        W94330   0.672   1.118   9.606 -0.1261  0.0813 -0.3233
51414W        W94331  34.634   2.210   6.584 -0.2894 -0.2206  0.1000
51415W        W94332  33.712   1.724   8.202  0.3055 -0.1136  0.1348
51416W        W94333  34.615   1.715   9.782  0.1878  0.2067  0.2891
51417W        W94334   1.183   1.922   6.702 -0.1214  0.0519 -0.2314
51418W        W94335   2.090   1.295   5.971 -0.2438  0.2678 -0.2013
51419W        W94336  32.658   2.837   9.076  0.1888  0.0664 -0.0925
51420W        W94337   2.165   0.726   7.791 -0.2788 -0.1985 -0.3792
51421W        W94338   1.087   2.999   9.447 -0.1705  0.3197 -0.1531
51422W        W94339  33.488   0.800   7.205  0.1928  0.1586  0.1287
51423W        W94340   0.568   0.635   7.958  0.1695  0.1576 -0.0856
51424W        W94341  32.491   2.156   6.761 -0.0734  0.2021  0.2142
51425W        W94342   1.490   1.354   5.928 -0.0643 -0.1299 -0.1269
51426W        W94343   0.781   2.329   8.465  0.3086  0.0901  0.1519
51427W        W94344   0.725   1.735   8.402 -0.0793 -0.0990  0.1633
51428W        W94345   0.133   0.850   7.750  0.1058  0.3326 -0.0965
51429W        W94346   0.649   0.539   6.900  0.0520 -0.0744 -0.2208
51430W        W94347   2.042   1.768  10.375  0.1855 -0.0293  0.1032
51431W        W94348  34.310   1.766   6.243  0.3790 -0.1513  0.2676
51432W        W94349   1.178  33.168   9.878  0.0184  0.0481  0.2551
51433W        W94350  34.062   2.792   7.751 -0.3101 -0.0626  0.1418
51434W        W94351  34.408   2.025   9.431  0.0782  0.0911  0.1607
51435W        W94352  33.927   2.700   9.802 -0.1860  0.1588  0.2998
51436W        W94353   1.268   1.462   7.549  0.1665  0.1553  0.2683
51437W        W94354  30.025  33.594   9.190 -0.1753 -0.3988 -0.1992
51438W        W94355   1.672   1.202   6.407  0.1936 -0.3431  0.0376
51439W        W94356  31.342  33.567   9.515 -0.2434 -0.0468  0.1134
51440W        W94357   1.857   0.490   6.731  0.1035  0.2812  0.0085
51441W        W94358   4.195   2.831   9.791 -0.1725  0.1840 -0.0787
51442W        W94359   0.266   2.957   6.079  0.2574  0.0462  0.2311
51443W        W94360  33.217   0.868   9.257 -0.0679 -0.1829  0.1489
51444W        W94361   0.228   1.941   6.205 -0.2547  0.2784  0.0593
51445W        W94362   1.295   2.702   7.740  0.1598  0.1941  0.0543
51446W        W94363  34.098   2.255   8.537 -0.0161 -0.2851 -0.2134
51447W        W94364   0.820  34.272   6.762 -0.2998 -0.1701 -0.1291
51448W        W94365   0.271   0.934   6.797  0.1335  0.2230 -0.0777
51449W        W94366   0.006   1.004   8.539  0.2523 -0.2403 -0.3842
51450W        W94367   1.434   0.211   6.608  0.2885  0.0194 -0.3461
51451W        W94368   1.059   2.897   7.357 -0.0531  0.1023  0.0973
51452W        W94369  32.719   3.351   8.045  0.0462 -0.0491  0.0932
51453W        W94370   2.878  33.739   9.608  0.3294 -0.1091  0.2114
51454W        W94371  33.959   2.582   8.840 -0.2319 -0.0622 -0.1622
51455W        W94372  34.344   2.886   8.909  0.1870  0.3887  0.0868
51456W        W94373  34.484   2.077   8.289  0.1218 -0.2386  0.2797
51457W        W94374   0.366   2.850   6.944  0.0124  0.2755 -0.1064
51458W        W94375   0.594   3.587   9.383  0.4271 -0.0433  0.0199
51459W        W94376   0.791   3.548   8.314  0.0573 -0.1052  0.1418
51460W        W94377   1.100   0.092   9.278  0.1743  0.2036  0.2902
51461W        W94378  32.529   2.475   8.724  0.2478 -0.2525 -0.1172
51462W        W94379  33.226   3.551   8.227 -0.0457 -0.2510  0.3963
51463W        W94380   2.365   0.749   8.233 -0.1498 -0.3240  0.1176
51464W        W94381  34.040   2.028   8.038 -0.2101 -0.3074 -0.1533
51465W        W94382  34.403   1.616   7.938  0.0158  0.0576 -0.4788
51466W        W94383  33.206   0.576   8.759  0.2486  0.2118 -0.0137
51467W        W94384   0.622   0.169   9.236 -0.3810 -0.2181 -0.0285
51468W        W94385   1.876   0.336   7.613 -0.0867 -0.2400 -0.1809
51469W        W94386   0.585   1.270   9.043 -0.2236 -0.0653 -0.0621
51470W        W94387   0.804   1.433   7.418 -0.0943  0.0305 -0.0247
51471W        W94388   1.301   2.235   7.029 -0.3669  0.1349 -0.1915
51472W        W94389   2.320   1.755   8.050  0.3031  0.2477 -0.1573
51473W        W94390   0.594   1.749   6.468 -0.0737  0.0624 -0.0534
51474W        W94391   0.724   3.623   8.847 -0.0401  0.1102 -0.1568
51475W        W94392  34.416   1.286   8.879  0.1893  0.0024  0.1106
51476W        W94393  33.771   0.400  12.476  0.0964  0.2068 -0.3116
51477W        W94394   0.859   1.211   8.525  0.0170  0.0854 -0.0309
51478W        W94395  32.916   2.008   7.677  0.0252 -0.1331 -0.1518
51479W        W94396   1.420   1.467   6.793 -0.0246  0.1291 -0.2352
51480W        W94397   0.937   1.493   6.797  0.0742 -0.0542  0.0776
51481W        W94398  34.337   1.927   8.944 -0.2416  0.2981 -0.2419
51482W        W94399   2.822   0.552  10.181  0.3400 -0.1129 -0.3550
51483W        W94400   1.258   1.476   8.913  0.0987 -0.0634  0.0802
51484W        W94401  31.802   3.655   6.100  0.0489  0.0406 -0.0209
51485W        W94402  33.319  34.561   9.317  0.1400 -0.0481 -0.1465
51486W        W94403   1.288   0.624   9.277  0.0279 -0.1294  0.0427
51487W        W94404  32.751   0.643   8.979  0.2869 -0.1014  0.3396
51488W        W94405  33.620   2.973   7.522 -0.2143 -0.0173  0.2788
51489W        W94406   1.698   2.979   8.081  0.3092  0.0993  0.0079
51490W        W94407   1.370   3.327   8.343  0.3808 -0.2540  0.0877
51491W        W94408  33.623   1.605   6.597 -0.1094 -0.1899 -0.0127
51492W        W94409  33.564   2.722   7.999 -0.1195 -0.2239 -0.2857
51493W        W94410  33.731   2.842   6.441  0.2545  0.0798 -0.0958
51494W        W94411   2.011   1.339   9.921  0.1071 -0.2158  0.1029
51495W        W94412   0.177   1.532   9.018 -0.1571 -0.0354 -0.1086
51496W        W94413   1.065   2.352   8.036 -0.1786 -0.1815 -0.0245
51497W        W94414   0.894   0.574   5.907 -0.1309  0.1296  0.0177
51498W        W94415  32.851   1.995   5.918 -0.0452 -0.2474  0.1348
51499W        W94416   0.071   1.167   6.009 -0.0996  0.0023 -0.0579
51500W        W94417   0.409   0.298   8.533 -0.0370  0.0134  0.2384
51501W        W94418   2.651  33.716  10.342 -0.0878  0.2409  0.2401
51502W        W94419   0.718   1.755   8.913 -0.0936  0.2270 -0.0682
51503W        W94420  33.101   0.651   9.663 -0.1758 -0.1690 -0.2397
51504W        W94421   1.056  34.302   8.355 -0.0235 -0.0645 -0.1407
51505W        W94422  34.169  33.812   6.435 -0.2254 -0.1883 -0.2205
51506W        W94423  34.202   0.380   6.807  0.0408  0.1024 -0.2502
51507W        W94424   1.106   1.994   8.730 -0.1283 -0.0410  0.0567
51508W        W94425  34.597  33.172   9.150  0.0040 -0.3149  0.1780
51509W        W94426   1.185   0.857   7.464 -0.1641 -0.2021  0.2481
51510W        W94427   1.058   1.841   7.901 -0.0527 -0.1280  0.0122
51511W        W94428   0.233   0.278   7.808  0.0130 -0.0299 -0.0215
51512W        W94429   0.965   1.067   8.049 -0.3954  0.0954  0.0787
51513W        W94430   1.479   4.036   9.935  0.1460  0.1909  0.2040
51514W        W94431  32.651   0.481   9.511 -0.3556  0.0792  0.3781
51515W        W94432   2.040   0.344   8.096 -0.1595 -0.0450 -0.1391
51516W        W94433  34.249   1.889   7.559  0.1866  0.3620  0.2550
51517W        W94434   2.546  34.594   9.231  0.2579 -0.2615 -0.1114
51518W        W94435  32.705   5.652   8.980  0.1409 -0.1697  0.0730
51519W        W94436  33.778   6.224   3.193 -0.0305  0.0577 -0.1399
51520W        W94437  32.612   4.781   0.777  0.2320 -0.0889 -0.2735
51521W        W94438  33.879   5.190   2.258  0.2660 -0.2401  0.1097
51522W        W94439   0.827   4.704   3.263 -0.3260  0.1771 -0.4159
51523W        W94440  32.683   5.198   2.259  0.0651  0.0926 -0.1121
51524W        W94441  33.935   7.700   2.167 -0.2322  0.0764 -0.0886
51525W        W94442  34.652   4.739   2.007 -0.0129  0.0847  0.0043
51526W        W94443  33.279   4.195   1.709 -0.0498  0.2885  0.3229
51527W        W94444  33.481   6.135   0.924 -0.1626  0.0615 -0.1045
51528W        W94445   0.291   6.003   3.852 -0.0547  0.2601  0.3197
51529W        W94446  33.086   3.602   1.661 -0.1802 -0.1207  0.2038
51530W        W94447   0.295   5.010   3.835 -0.1382  0.1607 -0.0482
51531W        W94448   0.114   8.762   0.332 -0.1482  0.2686  0.1990
51532W        W94449  33.560   3.804   2.629 -0.3296  0.0519  0.0593
51533W        W94450  34.304   5.269   1.981 -0.0804 -0.4085  0.2469
51534W        W94451  32.922   4.460   2.165  0.1087 -0.0852  0.1263
51535W        W94452  32.830   7.474   2.161 -0.3228  0.0623  0.1746
51536W        W94453   1.684   5.914   4.225 -0.0308  0.2829  0.3159
51537W        W94454  34.185   6.500   3.256  0.0064 -0.2187  0.0883
51538W        W94455  32.482   8.330   2.008 -0.2288 -0.2117 -0.0565
51539W        W94456   2.665   6.218   1.547  0.3504 -0.4858 -0.1558
51540W        W94457   0.676   7.792   5.211 -0.1191  0.0531 -0.3101
51541W        W94458  33.363   4.980  31.290  0.1371 -0.1764 -0.0608
51542W        W94459  33.650   8.125   1.911  0.1691  0.3058 -0.2405
51543W        W94460  34.239   6.988   1.471  0.0896  0.1041  0.0555
51544W        W94461  34.453   5.738   1.704  0.1735 -0.1168  0.1610
51545W        W94462  34.089   6.979   2.066 -0.1166 -0.1836  0.0481
51546W        W94463  34.382   6.798   2.644  0.0159  0.0237 -0.3293
51547W        W94464  33.505   5.438   0.230  0.2271  0.0183 -0.1006
51548W        W94465   0.162   3.720   1.172  0.0363 -0.0632 -0.0023
51549W        W94466   0.489   4.632   1.650  0.1525  0.2148  0.1411
51550W        W94467   1.366   8.087   0.348 -0.0160  0.0072  0.1587
51551W        W94468  34.491   5.289  31.891 -0.1411 -0.1431 -0.1007
51552W        W94469   0.028   6.084   2.525  0.2620 -0.0138 -0.2287
51553W        W94470  31.460   4.706   0.433  0.0472 -0.1391 -0.0987
51554W        W94471  33.702   3.952   3.593 -0.2261 -0.1682  0.2457
51555W        W94472  33.733   4.248   2.799 -0.1531  0.0793  0.1268
51556W        W94473   0.014   7.021   3.854 -0.0372 -0.0370 -0.0510
51557W        W94474  33.023   1.917  31.316 -0.0312  0.0609 -0.2522
51558W        W94475  34.290   6.511   1.393  0.0957  0.0967 -0.1009
51559W        W94476  33.671   5.584   3.490  0.1481 -0.2222  0.4327
51560W        W94477   0.835   5.636   0.408  0.4863  0.0257  0.0164
51561W        W94478   0.251   8.252   1.376  0.2003  0.3477 -0.0419
51562W        W94479  33.829   4.774   1.868 -0.0126  0.1072  0.2447
51563W        W94480   1.145   5.406   2.552  0.1471  0.0327  0.0723
51564W        W94481   1.196   6.702   5.684  0.1170 -0.0148  0.1173
51565W        W94482  33.782   7.882   0.018  0.0697 -0.1604 -0.2262
51566W        W94483  31.835   6.685   1.524 -0.4492 -0.1944  0.1077
51567W        W94484  34.360   5.940   0.768  0.0490 -0.0253  0.1201
51568W        W94485  33.309   4.749   4.675 -0.1974 -0.3216 -0.1856
51569W        W94486  33.818   5.272   3.163 -0.0004  0.0723  0.0137
51570W        W94487  33.852   3.584   2.274 -0.1515 -0.2574 -0.0536
51571W        W94488  33.389   5.566   0.831 -0.0898  0.0711 -0.0470
51572W        W94489  33.084   7.009   2.146  0.1805  0.3862  0.0093
51573W        W94490  34.519   4.317   2.186  0.2942  0.0029  0.0458
51574W        W94491   1.854   3.483   1.715 -0.3277 -0.0425  0.1526
51575W        W94492  33.581   4.388   3.312  0.2168  0.0298 -0.1156
51576W        W94493  32.649   3.537  31.722  0.0178  0.3105 -0.3228
51577W        W94494   1.589   3.946   0.592  0.2005  0.1324 -0.2542
51578W        W94495   0.543   7.252   1.717  0.0283 -0.0777  0.2268
51579W        W94496   0.353   5.601   4.657 -0.0592 -0.2433 -0.0737
51580W        W94497  33.210   4.739   2.490  0.0941 -0.1077  0.1217
51581W        W94498  31.451   9.827   1.747 -0.1427 -0.0908  0.0095
51582W        W94499   0.111   8.592   1.731  0.2905 -0.0631 -0.3698
51583W        W94500  32.931   5.010   1.836  0.2198  0.1958  0.3534
51584W        W94501  34.053   5.658   2.115  0.3039  0.3750 -0.2431
51585W        W94502  33.519   2.979  31.464  0.0590  0.1046 -0.1480
51586W        W94503  34.523   7.270   2.333  0.1013  0.1411 -0.2091
51587W        W94504  33.523   5.254   2.619 -0.0511  0.0202 -0.0035
51588W        W94505   1.347   6.477   0.287  0.1957 -0.1760 -0.1798
51589W        W94506  33.718   4.736   4.206  0.0021 -0.1514 -0.0128
51590W        W94507  33.735   6.084   2.079 -0.0492 -0.1313  0.0807
51591W        W94508  34.226   5.557   4.121 -0.0920 -0.0657 -0.5003
51592W        W94509  33.305   6.118   2.183  0.2324 -0.0867  0.0015
51593W        W94510   0.913   7.171   0.635 -0.0993  0.1130 -0.0822
51594W        W94511  34.503   5.118   3.918 -0.1263  0.2267 -0.0776
51595W        W94512  32.541   5.317   0.718 -0.1491 -0.0283 -0.2518
51596W        W94513   1.096   4.572   4.155 -0.0231  0.0682  0.1431
51597W        W94514  34.019   5.792   0.290  0.0240  0.0302 -0.1075
51598W        W94515  33.651   7.835   0.920  0.0765  0.2784 -0.2010
51599W        W94516   0.758   3.540   4.395  0.1836  0.0570 -0.2508
51600W        W94517   1.944   6.056  30.892 -0.1139 -0.2215  0.1010
51601W        W94518   1.442   4.835   3.139  0.2061  0.1817  0.1702
51602W        W94519   0.177   5.526   3.956  0.1763  0.0936 -0.2402
51603W        W94520  33.167   6.028   3.112 -0.2754  0.2605 -0.2009
51604W        W94521   1.889   4.343   4.768 -0.0699  0.0030 -0.3814
51605W        W94522  33.251   7.403  31.596  0.0487 -0.1143 -0.0104
51606W        W94523   0.117   6.898  31.688  0.1844 -0.0729 -0.1649
51607W        W94524   1.385   4.353   1.807  0.0067 -0.3353  0.0330
51608W        W94525  34.600   6.398   1.020  0.0946  0.0264  0.1591
51609W        W94526  33.920   8.185  31.535  0.1488 -0.1150 -0.3008
51610W        W94527   0.748   7.175  30.722 -0.0227  0.0473 -0.0332
51611W        W94528  33.850   6.663   1.311  0.1692 -0.1058 -0.0106
51612W        W94529   0.114   4.548   1.253  0.2432 -0.4168 -0.1750
51613W        W94530  33.322   4.651   1.411  0.2608 -0.1012  0.3057
51614W        W94531  33.687   5.204   4.404  0.3955  0.2430 -0.0498
51615W        W94532   1.214   5.604   4.057  0.0710  0.0871  0.0138
51616W        W94533  32.400   6.789   2.722  0.2531  0.0955  0.0118
51617W        W94534   2.420   4.588   5.519  0.3047 -0.0391  0.3461
51618W        W94535  33.045   5.134   0.847 -0.1247  0.0351  0.1139
51619W        W94536   0.205   3.650   1.712  0.1855 -0.0567 -0.1769
51620W        W94537  31.159   8.119   2.898 -0.1343 -0.0121  0.2222
51621W        W94538  34.125   6.089   2.335  0.0883  0.2217 -0.0456
51622W        W94539   0.060   7.189   0.341  0.2106  0.0325 -0.2192
51623W        W94540   1.670   5.360   4.280 -0.0963  0.0112  0.0053
51624W        W94541  34.608   5.009   0.556  0.0379 -0.1401 -0.0243
51625W        W94542  34.191   4.616   3.003  0.1518 -0.3066 -0.1805
51626W        W94543  32.724   4.390  31.345 -0.0112 -0.0838  0.2749
51627W        W94544   0.447   4.392   3.501 -0.1919 -0.2307  0.0372
51628W        W94545  33.459   6.841   2.500  0.1620 -0.0087 -0.3258
51629W        W94546   0.654   6.439  31.277 -0.1359 -0.1901  0.0160
51630W        W94547  34.125   6.957   0.497  0.1490 -0.0306 -0.3579
51631W        W94548  33.011   5.627   2.158  0.0397  0.1470  0.1970
51632W        W94549  34.393   4.697   1.586 -0.1490 -0.0033 -0.1175
51633W        W94550  34.343   6.033   1.225  0.2870 -0.1052 -0.0166
51634W        W94551   1.417   7.728   0.016 -0.0553  0.2597 -0.1867
51635W        W94552  34.051   5.049   4.063 -0.3012 -0.1248  0.2019
51636W        W94553   0.910   2.370   1.372  0.2480 -0.0471 -0.2818
51637W        W94554   0.024   4.368   0.359  0.0180  0.0241 -0.2967
51638W        W94555  33.249   3.915   4.498 -0.0570 -0.2809  0.0355
51639W        W94556  34.404   5.342   2.505  0.0745 -0.0249  0.0627
51640W        W94557  33.602   3.373   1.647  0.1513 -0.1368  0.0069
51641W        W94558   0.994   5.342   1.899 -0.2705 -0.1403 -0.3324
51642W        W94559   2.885   7.930  31.551 -0.0908  0.0136  0.1643
51643W        W94560  34.606   6.740   3.405  0.1391 -0.1332 -0.0077
51644W        W94561   2.030   7.924  31.786 -0.1761 -0.0619 -0.0923
51645W        W94562   0.093   6.847   1.116 -0.0502 -0.0763  0.0270
51646W        W94563   0.168   5.127   2.354 -0.0865  0.2005 -0.1773
51647W        W94564   0.161   4.791   3.275 -0.4151  0.2820 -0.3108
51648W        W94565  33.826   3.466   4.649 -0.0284 -0.0505 -0.1671
51649W        W94566  33.140   4.401   3.508 -0.2378  0.1744 -0.1718
51650W        W94567  33.243   3.199   1.935 -0.1183 -0.0462 -0.2435
51651W        W94568   0.916   6.601   1.806  0.0572 -0.0982 -0.0792
51652W        W94569  31.027   4.474   0.611  0.0712  0.0923  0.1736
51653W        W94570  32.067   7.934   2.825 -0.1846  0.1736  0.2653
51654W        W94571  33.417   5.251   1.181  0.0918 -0.1287  0.1855
51655W        W94572  33.208   6.849   3.111  0.1392 -0.1180  0.2005
51656W        W94573   0.921   7.844   2.259  0.4668 -0.1231  0.5270
51657W        W94574   1.476   3.168   0.910  0.1993 -0.1537  0.0016
51658W        W94575  32.482   4.354   0.367 -0.0038  0.1005  0.2561
51659W        W94576  33.710   6.184   2.599 -0.1227  0.1531 -0.1075
51660W        W94577  34.305   6.470   3.820 -0.1638  0.2091  0.3409
51661W        W94578   0.069   9.140   1.510 -0.1689 -0.2035  0.0874
51662W        W94579  34.375   5.215   1.475  0.1414  0.1300 -0.0857
51663W        W94580  34.163   6.814   0.959  0.3095  0.1818 -0.1367
51664W        W94581  34.257   7.437   0.196  0.2015  0.1655  0.1489
51665W        W94582  33.891   4.989   3.655  0.1169  0.1702  0.4568
51666W        W94583  34.567   3.737   4.072 -0.1484 -0.1101  0.1024
51667W        W94584   0.103   5.269   3.480  0.0676  0.0251  0.1303
51668W        W94585  34.359   5.348   3.108  0.1025  0.2154 -0.0835
51669W        W94586  34.163   8.766   0.239 -0.1687 -0.1855  0.1713
51670W        W94587  32.091   4.311   1.337  0.3341 -0.0435 -0.0690
51671W        W94588  33.910   6.638   2.320  0.3430 -0.3027 -0.1182
51672W        W94589  33.335   7.346   0.832 -0.0966 -0.1258 -0.1168
51673W        W94590  34.149   7.784   1.053  0.1601  0.1936  0.1996
51674W        W94591   0.480   6.471   2.048 -0.1297 -0.2415  0.0086
51675W        W94592   1.733   3.726   1.132 -0.4723 -0.1126  0.0796
51676W        W94593   2.177   4.305   4.291  0.0388  0.0157 -0.1607
51677W        W94594  32.907   5.699   3.904  0.0376  0.3002 -0.0820
51678W        W94595  32.176   4.426   0.867 -0.2752  0.0996 -0.1561
51679W        W94596  33.984   3.887   1.850  0.2678 -0.1032  0.1617
51680W        W94597   0.963   6.076  31.517  0.2863 -0.1313  0.0015
51681W        W94598  33.839   8.218   1.407 -0.0822  0.0170 -0.0964
51682W        W94599   0.268   6.040   2.986 -0.3176  0.1517  0.1446
51683W        W94600   1.240   7.426   2.401 -0.0544 -0.0376 -0.1485
51684W        W94601  32.769   3.849   4.157  0.0334  0.1504 -0.3008
51685W        W94602  33.321   5.195   3.088 -0.2789  0.1310 -0.1595
51686W        W94603   0.580   5.164   2.682 -0.0885 -0.1126 -0.4242
51687W        W94604   0.886   4.565   2.092  0.3195 -0.1527  0.3413
51688W        W94605   0.614   6.159   0.315  0.1084 -0.1603  0.0522
51689W        W94606  33.320   4.653   1.978 -0.1000 -0.2674  0.2747
51690W        W94607  32.823   6.275   0.932 -0.1005  0.2087 -0.3706
51691W        W94608  34.069   4.982   2.690 -0.1808  0.0847 -0.1810
51692W        W94609  32.218   3.003   3.996  0.1003 -0.0351  0.2082
51693W        W94610   1.239  10.902  31.628 -0.0674  0.0357  0.2799
51694W        W94611  33.214   3.526   4.074  0.2972 -0.1856  0.1779
51695W        W94612  34.453   2.620   0.201  0.0419  0.1770 -0.0910
51696W        W94613   0.532   5.098   1.125 -0.2516 -0.0174  0.0953
51697W        W94614  33.863   6.200   1.438 -0.0917 -0.3445  0.0120
51698W        W94615  33.910   8.488   0.670  0.1426  0.2242  0.0575
51699W        W94616  34.169   6.098   1.861  0.2641 -0.1973 -0.1506
51700W        W94617  34.610   7.110   1.800 -0.4782 -0.1350  0.2092
51701W        W94618  32.003   7.714   0.321 -0.1095 -0.2066 -0.1368
51702W        W94619   0.901   6.360   4.752 -0.0113  0.1843  0.0815
51703W        W94620   0.561   6.093   0.857  0.0904  0.1541 -0.0082
51704W        W94621   1.782   7.863   1.200 -0.0829  0.1575  0.0351
51705W        W94622  33.440   4.381   0.664 -0.0253  0.2531  0.0071
51706W        W94623  33.992   2.350   3.049  0.2309  0.1558 -0.1407
51707W        W94624   0.125   6.924   2.988 -0.1755  0.0088 -0.0268
51708W        W94625  33.861   6.712   0.064  0.0811 -0.1006  0.1193
51709W        W94626  32.897   6.065   1.605  0.3420  0.1634 -0.0248
51710W        W94627   0.687   6.372   1.295  0.1485 -0.0089  0.3014
51711W        W94628  34.565   3.184   3.583  0.1982 -0.1885 -0.0527
51712W        W94629   0.438   5.261   4.285  0.0829  0.0808  0.0314
51713W        W94630  32.532   5.448   0.231 -0.2532  0.2266  0.0196
51714W        W94631  33.339   4.287   2.470  0.0096  0.0392 -0.2317
51715W        W94632  32.822   3.982   1.460 -0.1031 -0.4020 -0.2011
51716W        W94633  32.517   5.486   2.627 -0.2023 -0.2551 -0.2357
51717W        W94634   0.428   4.174   1.428 -0.0512  0.2016  0.0245
51718W        W94635  33.148   7.862   0.697 -0.0752 -0.0364  0.4273
51719W        W94636   0.610   6.197   3.518 -0.1010  0.0165 -0.2363
51720W        W94637   0.449   3.226   3.418 -0.0948 -0.0762  0.3269
51721W        W94638  34.383   3.730   1.565 -0.1495 -0.2587 -0.2357
51722W        W94639   0.098   5.369   1.789 -0.1412  0.0620 -0.1586
51723W        W94640  33.907   5.702   0.964 -0.4272 -0.1636  0.0177
51724W        W94641   0.378   8.294   2.555  0.0395  0.1129 -0.0609
51725W        W94642  34.003   3.631   3.926  0.0517 -0.0238 -0.0379
51726W        W94643   0.087   8.103   2.987  0.1499  0.2758  0.1286
51727W        W94644  33.614   3.458   3.643  0.0304 -0.0158 -0.0600
51728W        W94645   2.195   5.159   4.465  0.2722 -0.1407  0.1126
51729W        W94646   1.812   3.461   0.584  0.2293 -0.0185 -0.0224
51730W        W94647  32.274   5.297   1.314 -0.0522 -0.0468  0.0367
51731W        W94648  34.552   4.116   1.193 -0.1675 -0.1679  0.1819
51732W        W94649   1.181   5.603   5.594  0.0448 -0.2484  0.0682
51733W        W94650   0.455   6.588   0.908  0.1262 -0.1390  0.0712
51734W        W94651  32.842   7.736   3.056 -0.0634 -0.0106  0.0254
51735W        W94652  32.427   4.696   1.860  0.1246  0.1815  0.0471
51736W        W94653  34.497   4.568   0.759  0.2693 -0.1978  0.0031
51737W        W94654  33.695   7.007   1.679  0.1675  0.0805 -0.1053
51738W        W94655  33.070   6.551   2.349  0.1831 -0.2296  0.3531
51739W        W94656  34.238   8.096   2.924  0.2609  0.0625 -0.0340
51740W        W94657  34.111   4.754   6.933 -0.0804  0.2455 -0.0800
51741W        W94658  34.098   3.643   5.018 -0.2650  0.1901 -0.0379
51742W        W94659  31.062   4.893   3.052 -0.0327 -0.0625  0.3146
51743W        W94660  33.221   3.274   6.143 -0.1417 -0.0124 -0.2672
51744W        W94661   2.794   3.734   8.157 -0.1611  0.2542 -0.0024
51745W        W94662  33.148   7.041   5.618  0.2855  0.0053  0.3250
51746W        W94663   0.537   4.276   5.416  0.0155 -0.1238 -0.1066
51747W        W94664  31.902   3.757   5.640  0.1778 -0.0589  0.2191
51748W        W94665  32.110   4.705   3.244  0.1720 -0.1791 -0.1811
51749W        W94666  32.873   3.786   5.391 -0.1117 -0.3897  0.3008
51750W        W94667  32.901   3.531   4.566  0.0520 -0.1993  0.0091
51751W        W94668   0.267   6.374   6.216  0.0446  0.2579 -0.1662
51752W        W94669   0.842   5.784   4.535 -0.2299 -0.0696 -0.2982
51753W        W94670  34.320   5.494   5.216  0.0040  0.0549 -0.3379
51754W        W94671  32.388   5.865   4.505 -0.4065  0.0214  0.0922
51755W        W94672  33.603   4.507   3.831  0.2044 -0.1251 -0.1964
51756W        W94673   0.238   5.559   6.396  0.0635 -0.0734 -0.0052
51757W        W94674   0.211   6.346   5.169  0.0415  0.2081 -0.0611
51758W        W94675  33.890   5.914   4.095  0.1588  0.1953 -0.0064
51759W        W94676   0.827   6.150   2.063  0.0938  0.1897  0.1702
51760W        W94677   0.355   6.804   4.226 -0.0999 -0.1839 -0.1835
51761W        W94678  34.222   6.329   7.466 -0.3190 -0.1175 -0.1211
51762W        W94679  34.607   6.472   2.977  0.1194 -0.1032  0.0547
51763W        W94680  32.653   6.165   7.348 -0.1122  0.0722  0.1767
51764W        W94681   0.772   8.160   3.885  0.1640  0.2857  0.0811
51765W        W94682  33.209   6.397   4.507  0.0101 -0.0520  0.1658
51766W        W94683  32.009   5.493   6.132 -0.1075  0.1778  0.0306
51767W        W94684  32.880   5.827   6.482 -0.0396 -0.2311  0.1452
51768W        W94685  33.651   6.730   3.267 -0.1550  0.1446  0.2258
51769W        W94686   0.248   4.071   3.139  0.1236  0.4115 -0.3651
51770W        W94687   1.079   2.387   4.255  0.0503 -0.2796 -0.0562
51771W        W94688  32.968   4.366   5.311 -0.0261  0.0505  0.1370
51772W        W94689  33.955   5.316   4.905  0.1056  0.0883 -0.3936
51773W        W94690  32.848   4.967   6.464  0.0073 -0.0130 -0.0254
51774W        W94691  33.788   6.390   3.709  0.1917 -0.0174 -0.0284
51775W        W94692  33.463   6.009   6.631  0.3997  0.0501  0.1209
51776W        W94693  32.968   3.695   7.784 -0.0389  0.2801 -0.2109
51777W        W94694  33.348   4.818   7.607  0.0676 -0.0841  0.1523
51778W        W94695  33.098   2.170   4.867 -0.3024  0.0709  0.0385
51779W        W94696  32.855   7.612   6.260  0.0496  0.1216  0.0279
51780W        W94697   0.248   7.215   5.083  0.2371  0.0167 -0.3363
51781W        W94698  34.186   5.451   3.586 -0.1617  0.1683 -0.2504
51782W        W94699   0.022   5.977   4.818  0.0744 -0.3352 -0.2408
51783W        W94700  33.600   6.079   6.186 -0.0713 -0.0012 -0.0741
51784W        W94701  34.647   5.610   7.194 -0.0690  0.3556  0.1189
51785W        W94702   0.299   6.000   7.937  0.1966  0.1077 -0.2468
51786W        W94703  34.560   8.175   2.513 -0.4216 -0.2715  0.4592
51787W        W94704  33.436   3.920   6.986  0.2243  0.1615  0.2229
51788W        W94705  33.439   4.308   4.912 -0.2702 -0.1802  0.3246
51789W        W94706  32.973   4.029   6.731  0.0141 -0.1973 -0.1104
51790W        W94707  33.773   6.517   5.962 -0.0010 -0.0254  0.0967
51791W        W94708   0.777   2.192   6.289 -0.2241 -0.0713  0.1440
51792W        W94709  32.188   7.052   3.131 -0.1620  0.1954 -0.0826
51793W        W94710  33.271   3.174   6.659  0.0859  0.1087 -0.2160
51794W        W94711  32.838   4.172   3.205 -0.1197 -0.2336 -0.2518
51795W        W94712   1.313   4.038   6.179 -0.1187 -0.2336 -0.0446
51796W        W94713  34.294   3.585   4.523  0.0088  0.0613  0.0993
51797W        W94714  32.318   3.477   3.824 -0.2295  0.1552  0.0474
51798W        W94715  32.837   4.791   4.334 -0.4930 -0.1201 -0.1218
51799W        W94716  32.192   7.424   4.296 -0.2556  0.1427  0.4787
51800W        W94717  33.340   5.657   6.316  0.2968 -0.1569 -0.1636
51801W        W94718  32.643   3.556   5.008  0.0434 -0.1671  0.0763
51802W        W94719   0.104   6.161   5.769 -0.0355  0.1663  0.1076
51803W        W94720   0.304   5.247   5.952 -0.1409  0.0021  0.0230
51804W        W94721   0.649   3.339   5.246  0.1099 -0.0979 -0.0951
51805W        W94722  32.271   5.692   6.788 -0.1010  0.0831  0.0657
51806W        W94723  32.589   3.062   4.466  0.1027  0.1253  0.1388
51807W        W94724   0.030   5.242   5.489  0.0408  0.2397 -0.2369
51808W        W94725  34.113   4.692   5.981  0.1018  0.0548  0.1741
51809W        W94726  33.480   7.180   3.871  0.0969  0.0740  0.0899
51810W        W94727  32.308   5.250   8.008  0.0116  0.2075 -0.0568
51811W        W94728  32.249   5.436   4.750 -0.0077 -0.0820 -0.1866
51812W        W94729  33.380   7.080   8.457  0.1197  0.0954 -0.1301
51813W        W94730  33.214   6.880   6.248 -0.0034  0.1423  0.0912
51814W        W94731   2.191   6.402   3.512 -0.5831 -0.0967  0.1540
51815W        W94732  34.242   5.765   6.904 -0.0911 -0.1409  0.5354
51816W        W94733  32.143   6.346   6.528  0.0679 -0.1602  0.0930
51817W        W94734   0.102   4.481   6.103  0.1236 -0.1241  0.0585
51818W        W94735   1.405   3.915   2.990  0.0562 -0.2401  0.0840
51819W        W94736   0.163   6.495   4.687  0.1447 -0.0188  0.1186
51820W        W94737   1.215   1.931   6.047  0.1006 -0.0448 -0.2833
51821W        W94738  32.563   2.854   3.084 -0.0661  0.1270 -0.2804
51822W        W94739   1.562   3.074   5.310 -0.2379  0.0470  0.2954
51823W        W94740  33.301   3.662   6.498  0.1411  0.1711  0.0480
51824W        W94741  33.421   8.686   5.835  0.4906  0.1457 -0.1308
51825W        W94742   2.417   4.091   7.302  0.0616 -0.2554  0.3745
51826W        W94743  32.822   6.668   5.758 -0.1560  0.0435  0.1167
51827W        W94744  33.669   6.345   4.697 -0.0849 -0.1841 -0.3673
51828W        W94745   1.024   1.923   4.914  0.1615 -0.1291 -0.2889
51829W        W94746   2.869   6.783   5.667 -0.0326  0.1505 -0.0109
51830W        W94747   1.338   4.687   2.427 -0.0844  0.2869 -0.2473
51831W        W94748  33.643   7.010   5.980 -0.2554  0.2446  0.0196
51832W        W94749  33.674   6.293   5.271 -0.0572 -0.3679  0.1013
51833W        W94750  34.004   4.637   5.424 -0.1924  0.2957 -0.2629
51834W        W94751  31.691   3.913   4.305 -0.3286  0.0963  0.0462
51835W        W94752  32.110   3.026   4.529 -0.1976 -0.0308 -0.0129
51836W        W94753   0.399   6.865   6.088 -0.2509  0.0254 -0.1022
51837W        W94754  32.637   7.185   5.494  0.0877  0.1168 -0.0847
51838W        W94755  34.385   7.073   5.453  0.0889  0.1436  0.1198
51839W        W94756  33.633   3.686   5.539 -0.1324  0.2129  0.1697
51840W        W94757   0.838   4.630   5.754  0.4163  0.1343  0.0338
51841W        W94758  33.682   8.456   5.526  0.0547  0.2145 -0.5572
51842W        W94759  33.464   3.810   5.024  0.0601 -0.3720  0.0478
51843W        W94760   1.092   6.315   3.289  0.1624  0.1146 -0.1672
51844W        W94761   0.571   5.014   5.510 -0.0904 -0.1519 -0.0655
51845W        W94762  34.514   5.710   5.700  0.0915 -0.0779  0.0710
51846W        W94763  32.064   6.326   5.247 -0.0301  0.0361  0.1442
51847W        W94764  34.194   5.082   6.538  0.1931  0.0937  0.1050
51848W        W94765   0.991   3.883   4.763  0.1168  0.1406 -0.0214
51849W        W94766  33.048   4.980   5.085  0.0661 -0.3921 -0.1595
51850W        W94767  32.876   4.492   4.867  0.3161  0.3128 -0.2192
51851W        W94768  32.273   4.917   6.779 -0.1517 -0.0966 -0.1676
51852W        W94769   0.878   6.560   2.860  0.2589  0.1266  0.0820
51853W        W94770   0.512   4.233   5.951  0.0682  0.0521 -0.2232
51854W        W94771  32.849   4.558   6.056 -0.0745 -0.1773  0.1267
51855W        W94772   0.046   6.286   3.496  0.1508  0.1593  0.0432
51856W        W94773  33.862   6.096   7.667  0.0827  0.1089  0.0507
51857W        W94774  34.354   4.135   6.133  0.0354 -0.4091  0.0931
51858W        W94775   1.566   5.182   5.410  0.1434 -0.0265  0.1055
51859W        W94776  33.698   4.142   5.715 -0.3871 -0.2373 -0.0231
51860W        W94777  34.392   5.474   9.284  0.0802 -0.1046  0.0188
51861W        W94778  34.338   4.153   4.634  0.1632 -0.1126  0.1985
51862W        W94779   1.667   5.872   6.038  0.1954 -0.1207 -0.1052
51863W        W94780  32.116   5.231   3.487 -0.1325 -0.0877  0.2221
51864W        W94781   0.490   7.431   5.830 -0.0115  0.1254 -0.0022
51865W        W94782   1.049   5.207   5.329  0.1738  0.0438  0.0470
51866W        W94783  32.766   6.196   3.370 -0.0803 -0.0129 -0.3399
51867W        W94784  34.655   2.701   6.641  0.1574  0.0366 -0.0824
51868W        W94785  34.296   5.312   5.947  0.2416  0.2950  0.0133
51869W        W94786  33.388   4.197   6.370  0.0687 -0.2286  0.0981
51870W        W94787  33.822   5.117   6.059  0.3697  0.1062 -0.0684
51871W        W94788  33.584   3.121   4.060  0.0754  0.0325  0.1890
51872W        W94789  34.118   5.932   5.898 -0.1535  0.0259  0.0275
51873W        W94790  32.220   4.152   5.531  0.0339 -0.1501  0.3156
51874W        W94791  34.662   7.412   6.696  0.1022 -0.0231 -0.0507
51875W        W94792  34.590   4.640   3.795  0.1913  0.0907  0.0029
51876W        W94793  34.578   4.603   4.767  0.0535  0.0767 -0.3568
51877W        W94794  34.046   6.332   5.567 -0.0620 -0.2027 -0.1023
51878W        W94795   3.010   3.661   5.386 -0.1860  0.1509  0.0775
51879W        W94796  33.814   6.468   4.191 -0.0131  0.2225  0.0930
51880W        W94797  33.467   7.560   6.854 -0.0286  0.2094 -0.0904
51881W        W94798  34.077   6.571   6.669  0.2130 -0.0728  0.0162
51882W        W94799   0.064   5.946   6.668  0.1091  0.3946 -0.2820
51883W        W94800  34.407   4.635   6.393 -0.1566 -0.0557  0.1401
51884W        W94801   0.558   5.498   5.163  0.2013  0.2773  0.0922
51885W        W94802  34.202   6.060   6.477 -0.1428  0.2064  0.0416
51886W        W94803  33.007   1.533   6.000  0.0545  0.0236  0.1619
51887W        W94804   1.276   5.265   4.912  0.0883  0.0588 -0.1877
51888W        W94805  33.060   6.749   6.708 -0.3043 -0.0681  0.0045
51889W        W94806  33.868   4.267   6.212 -0.0044  0.0230 -0.1054
51890W        W94807  34.141   7.025   4.854  0.1762  0.0269  0.0056
51891W        W94808  34.021   4.033   4.185 -0.0956 -0.1260 -0.0734
51892W        W94809  33.991   5.114   5.556 -0.3317  0.1204 -0.0966
51893W        W94810  32.472   5.755   3.566  0.3322  0.2339 -0.1908
51894W        W94811  33.210   6.323   6.359  0.0709  0.0809  0.1047
51895W        W94812  32.545   3.101   6.512 -0.0578 -0.0982  0.1088
51896W        W94813  34.305   5.024   5.056  0.1698  0.2683 -0.4423
51897W        W94814   0.959   5.118   6.866  0.0646 -0.2760  0.1820
51898W        W94815  32.756   7.286   7.884  0.2892  0.0952 -0.0271
51899W        W94816  32.051   4.118   5.067 -0.1293  0.0497  0.4394
51900W        W94817  33.461   6.030   3.615  0.0801 -0.0728 -0.1023
51901W        W94818   2.150   4.815   4.998 -0.2429  0.2598  0.0304
51902W        W94819   0.932   7.649   5.681  0.4675 -0.0403 -0.0326
51903W        W94820   1.353   7.162   6.430  0.0492  0.0691 -0.1283
51904W        W94821  34.075   5.367   7.124  0.0477  0.1689 -0.3565
51905W        W94822  34.103   4.548   4.477  0.1290 -0.3715 -0.0010
51906W        W94823  32.877   4.083   6.223 -0.0577 -0.0786  0.0040
51907W        W94824   0.394   5.785   5.910 -0.1825  0.0153 -0.0448
51908W        W94825  33.456   4.748   6.717  0.1397 -0.0595 -0.0237
51909W        W94826   0.874   4.307   4.967 -0.0935  0.0390 -0.0033
51910W        W94827   0.153   5.779   5.336 -0.3181  0.1297 -0.2255
51911W        W94828   0.066   5.881   4.314  0.2421 -0.3942 -0.2124
51912W        W94829   0.916   4.841   6.333 -0.0735  0.0276  0.0735
51913W        W94830  34.152   3.349   5.724 -0.1633  0.0664  0.0648
51914W        W94831  33.320   6.702   3.951 -0.1872 -0.3183 -0.0195
51915W        W94832   0.031   4.906   7.743 -0.1878  0.1561  0.1695
51916W        W94833   0.800   2.302   4.696  0.0213  0.1113  0.3827
51917W        W94834  33.813   5.545   5.832  0.1453  0.0953 -0.0871
51918W        W94835  34.229   6.248   2.786  0.0001  0.0468  0.2913
51919W        W94836   0.305   6.589   3.749  0.1702 -0.1045 -0.2887
51920W        W94837   1.921   6.488   5.654  0.0468 -0.1544  0.3182
51921W        W94838  33.948   6.171   6.959  0.1251  0.2173  0.2273
51922W        W94839  33.280   4.046   3.978 -0.4290 -0.2426 -0.1663
51923W        W94840   0.481   4.979   6.982 -0.2393  0.1129  0.0383
51924W        W94841   2.055   5.268   6.956 -0.0384 -0.0662 -0.0477
51925W        W94842  33.299   6.584   5.844  0.1033  0.2700 -0.3029
51926W        W94843   0.047   5.379   4.965  0.3387  0.0254 -0.0370
51927W        W94844  34.538   4.475   5.262 -0.1005 -0.0380  0.3105
51928W        W94845   0.062   4.225   6.589  0.1237 -0.0596  0.1798
51929W        W94846  31.776   5.363   4.886  0.0845 -0.2288  0.1244
51930W        W94847  34.024   5.769   3.185  0.0602 -0.2421 -0.0855
51931W        W94848  33.479   5.342   7.229 -0.1173 -0.1672  0.1310
51932W        W94849   0.113   2.409   7.039 -0.1545 -0.0013  0.1319
51933W        W94850  33.424   3.764   7.629 -0.0243 -0.1843  0.0042
51934W        W94851   0.093   4.820   6.683  0.1338 -0.1229  0.0283
51935W        W94852   0.507   4.406   4.015 -0.0320 -0.3766 -0.3313
51936W        W94853  33.733   6.524   7.356 -0.0515  0.2197 -0.1611
51937W        W94854  34.539   4.881   5.808 -0.1247 -0.1980  0.1327
51938W        W94855   0.946   2.947   5.110 -0.1325  0.1178  0.0778
51939W        W94856  32.995   6.119   2.592 -0.1239  0.2077 -0.3417
51940W        W94857   0.493   4.779   6.043 -0.1189 -0.1879 -0.0041
51941W        W94858   2.147   3.748   7.554  0.2700  0.1561 -0.2334
51942W        W94859  32.014   4.982   4.565  0.0513 -0.0525  0.1332
51943W        W94860   0.386   2.118   6.751 -0.0468  0.0223  0.2127
51944W        W94861   2.651   3.310   6.126 -0.0023 -0.1599 -0.0900
51945W        W94862   0.723   7.853   6.154 -0.0044  0.2506  0.0172
51946W        W94863  32.259   4.913   5.568 -0.0640  0.1874 -0.0934
51947W        W94864  33.609   6.623   6.431  0.1581  0.4968 -0.3200
51948W        W94865   0.472   4.622   6.506 -0.1623  0.2987 -0.0442
51949W        W94866  34.172   4.957   7.878 -0.0835 -0.0942 -0.3014
51950W        W94867  33.106   3.453   5.109  0.3082  0.0514 -0.0813
51951W        W94868  33.781   4.944   7.327  0.0026 -0.2231 -0.1168
51952W        W94869   0.235   4.624   5.615  0.0006  0.2790  0.2169
51953W        W94870   2.499   3.695   5.846 -0.3201  0.1424  0.0171
51954W        W94871  34.236   4.809   2.263 -0.0747  0.1944 -0.1239
51955W        W94872   0.509   6.469   5.641  0.1978  0.3180  0.3308
51956W        W94873  32.577   4.099   5.145 -0.2963  0.2689 -0.3698
51957W        W94874  33.838   5.661   6.348 -0.0846 -0.5005 -0.1300
51958W        W94875  33.656   5.444   5.376  0.0884  0.2713  0.0438
51959W        W94876  33.006   3.990   4.964  0.0510  0.0610 -0.1652
51960W        W94877  34.038   6.850   5.677 -0.0163 -0.1177  0.0095
51961W        W94878  32.794   4.242   7.852  0.0985 -0.0792 -0.1727
51962W        W94879  33.651   2.966   6.953 -0.2791 -0.4149  0.1201
51963W        W94880  33.781   4.384   9.170 -0.2313 -0.2128  0.1823
51964W        W94881  33.400   2.461   8.928  0.1339 -0.2471 -0.2776
51965W        W94882   0.431   4.256   7.446 -0.2161  0.0009 -0.1740
51966W        W94883   0.300   2.507   8.627  0.2133 -0.1038  0.1833
51967W        W94884  32.869   5.279   8.658 -0.0922  0.0357 -0.1761
51968W        W94885   1.229   4.218   8.409 -0.0590 -0.0242  0.0099
51969W        W94886   0.970   4.668   8.581  0.0495  0.0463 -0.0489
51970W        W94887   1.795   4.377   9.042  0.1019 -0.0360 -0.0595
51971W        W94888   0.159   7.953   9.537  0.3063  0.0089  0.2239
51972W        W94889  33.418   4.002   8.972  0.2474 -0.1207 -0.2712
51973W        W94890  34.403   5.473   8.769  0.0639  0.0105  0.1605
51974W        W94891  33.672   2.981   9.017 -0.2905  0.0924 -0.0980
51975W        W94892   0.083   7.308   8.991  0.0716  0.1053 -0.2879
51976W        W94893   0.215   8.343   6.872 -0.0014  0.1480 -0.0887
51977W        W94894   0.638   4.083   9.071  0.1205  0.1203 -0.2157
51978W        W94895  33.528   6.723   8.862 -0.1581 -0.1772  0.0255
51979W        W94896   0.105   4.264   9.305  0.5286 -0.0015 -0.1762
51980W        W94897  33.361   5.913   7.763 -0.1719 -0.3138  0.1863
51981W        W94898   0.460   7.974   7.956 -0.0685 -0.2646 -0.3450
51982W        W94899   1.169   6.267   8.795 -0.2967 -0.2308  0.1511
51983W        W94900   0.959   4.937   9.356 -0.1866 -0.2418  0.0336
51984W        W94901   0.475   6.958   7.948 -0.0450 -0.1377  0.0457
51985W        W94902   0.686   3.663   7.347 -0.0629  0.0021 -0.4161
51986W        W94903  33.779   3.328   6.315  0.0332  0.0455 -0.0533
51987W        W94904  33.469   7.269   7.937 -0.1728  0.0573 -0.1156
51988W        W94905   0.400   5.555   8.473  0.2414  0.0280  0.0744
51989W        W94906  34.565   5.901   7.557  0.2535  0.2228 -0.0335
51990W        W94907  32.320   4.549   8.745 -0.0352  0.0374 -0.3913
51991W        W94908  32.866   4.523   6.643  0.1251 -0.1296 -0.0939
51992W        W94909   1.711   4.106   6.581 -0.0272 -0.0470 -0.0820
51993W        W94910   0.340   5.100   9.243  0.1160  0.0357  0.1587
51994W        W94911   2.194   4.711   5.911 -0.1663 -0.1168 -0.0158
51995W        W94912   1.509   2.637   9.460 -0.0584 -0.1504 -0.3968
51996W        W94913  33.779   4.929   8.628  0.1329  0.0902  0.1416
51997W        W94914  34.131   6.771   7.143  0.1251 -0.1205  0.3408
51998W        W94915  30.842   4.886   8.364 -0.0680 -0.1360 -0.1080
51999W        W94916  34.660   6.875   7.930  0.3438  0.1286  0.0179
52000W        W94917  33.526   4.453   8.130 -0.3348  0.2333  0.3691
52001W        W94918   0.726   6.803   9.175  0.2137  0.0977  0.0541
52002W        W94919  34.531   3.024   7.774  0.1394  0.0910 -0.1274
52003W        W94920   1.229   3.729   8.604 -0.1989  0.2439 -0.1036
52004W        W94921   0.228   3.306   7.070 -0.1000  0.0338  0.2441
52005W        W94922  31.175   0.591   9.675  0.1258  0.1201 -0.1101
52006W        W94923  32.695   2.788   9.652 -0.1207  0.0286 -0.1050
52007W        W94924  33.873   4.101   7.742  0.5434 -0.0797 -0.2127
52008W        W94925  33.582   7.357   7.488  0.1945 -0.2204  0.1608
52009W        W94926  33.081   2.724   9.295  0.0596  0.2334  0.3674
52010W        W94927  34.082   3.143   7.224 -0.2143 -0.0502 -0.0596
52011W        W94928   1.743   6.202  10.207  0.1615  0.1097 -0.2397
52012W        W94929   0.951   4.500   9.103  0.0622  0.3064  0.2277
52013W        W94930  32.674   4.220   5.708  0.1606  0.2431  0.2091
52014W        W94931  33.875   0.403   8.121  0.1427  0.2544 -0.0055
52015W        W94932  34.273   6.988   8.299 -0.2534 -0.0966 -0.0534
52016W        W94933  33.789   6.860   7.992  0.2101  0.0679 -0.1047
52017W        W94934   0.710   9.146   9.032  0.2592 -0.1227 -0.1250
52018W        W94935  32.601   4.959   8.349  0.3261 -0.2275 -0.4977
52019W        W94936   1.331   5.902   9.141  0.2648  0.0782  0.2351
52020W        W94937   0.374   4.771   8.219 -0.1052 -0.1877 -0.3744
52021W        W94938  34.502   3.838   9.277 -0.1516 -0.2015  0.0070
52022W        W94939  32.290   4.142   9.039  0.0268  0.0726 -0.0212
52023W        W94940  34.540   4.261   7.055  0.1110 -0.0432  0.1567
52024W        W94941  31.796   4.893   8.788  0.1009 -0.1557  0.0740
52025W        W94942   0.566   3.916   7.832  0.2641 -0.2094  0.2362
52026W        W94943   0.349   3.915   8.285  0.0600 -0.1927 -0.1912
52027W        W94944  32.635   7.254   9.361 -0.1706  0.1557 -0.3455
52028W        W94945   0.557   7.059   8.660 -0.1508 -0.1142 -0.1150
52029W        W94946  34.518   5.152   7.078 -0.1207 -0.0834  0.0739
52030W        W94947   0.422   5.854   9.807 -0.0776 -0.2001  0.0453
52031W        W94948   0.164   5.255   9.717  0.1877  0.0348 -0.1531
52032W        W94949  33.601   5.269   7.713  0.1872 -0.3936 -0.1292
52033W        W94950   0.083   4.377   8.428 -0.1928 -0.1431 -0.2693
52034W        W94951  34.645   4.590   8.921 -0.0186  0.0748 -0.0088
52035W        W94952  32.713   3.169   6.012  0.0787  0.0432  0.1525
52036W        W94953  32.351   4.155   7.514 -0.4934 -0.0886  0.1865
52037W        W94954  32.393   7.416   8.848  0.1301 -0.2877 -0.0204
52038W        W94955   0.148   2.966   8.782  0.1871  0.0140 -0.0915
52039W        W94956   0.942   5.543   9.700  0.1319  0.2013  0.1358
52040W        W94957  33.604   3.807   6.102 -0.0006  0.1133  0.2683
52041W        W94958   1.339   3.541   9.150  0.2474  0.1081  0.1954
52042W        W94959  34.335   5.406   7.577  0.1689 -0.2878  0.3112
52043W        W94960  33.404   3.233   8.584 -0.0741 -0.0670  0.0917
52044W        W94961  34.508   6.405   6.470 -0.2525  0.0840  0.4060
52045W        W94962   0.679   5.133   8.385  0.1285  0.0354  0.2058
52046W        W94963  34.315   4.286   7.999 -0.1398 -0.0086 -0.0516
52047W        W94964   1.720   3.533  10.198 -0.2023  0.0920 -0.0320
52048W        W94965   1.033   4.018   8.016  0.1094  0.0206 -0.1169
52049W        W94966  33.250   5.219   6.635 -0.1504  0.0125 -0.2228
52050W        W94967  33.962   6.211   8.145 -0.1890  0.0612  0.2460
52051W        W94968   0.257   4.353   7.943 -0.0016 -0.0024 -0.1288
52052W        W94969  33.961   3.833   8.852 -0.2844  0.0498 -0.2030
52053W        W94970  34.590   5.738   8.393  0.0993 -0.2319 -0.0995
52054W        W94971  33.583   6.400   9.212  0.1788  0.2235 -0.2559
52055W        W94972  34.541   5.048   9.080  0.2414  0.0561  0.4017
52056W        W94973  33.302   3.293   7.776  0.1125  0.0467  0.0985
52057W        W94974   0.392   3.335   7.990  0.0785  0.1498  0.3237
52058W        W94975  34.492   3.268   9.220  0.0884 -0.0672  0.0180
52059W        W94976  33.994   4.598   8.253 -0.1289 -0.0486 -0.0760
52060W        W94977   0.359   7.522   8.672 -0.4500 -0.0824  0.1294
52061W        W94978   2.907   6.591   8.645  0.1548  0.0211  0.0685
52062W        W94979   0.910   5.584   8.310  0.1654  0.1360  0.0231
52063W        W94980   0.895   7.086   8.225 -0.1164  0.1595 -0.0584
52064W        W94981  32.961   2.472   7.403  0.3970 -0.3909  0.2584
52065W        W94982  33.402   4.313   7.611  0.0246 -0.1664 -0.1148
52066W        W94983   0.018   7.430   7.933 -0.0056 -0.3053 -0.0323
52067W        W94984   2.290   5.206   9.882  0.0765  0.2054  0.0130
52068W        W94985   0.380   4.490   7.004 -0.0576  0.4140 -0.0598
52069W        W94986   0.765   3.132   7.050  0.0083 -0.2563 -0.1451
52070W        W94987  34.549   9.623   9.135 -0.0719 -0.1211  0.0495
52071W        W94988   0.591   4.020   6.580  0.4098  0.1650 -0.3033
52072W        W94989   0.683   7.319   7.643 -0.1466 -0.1969  0.2336
52073W        W94990  32.586   8.600   9.496  0.1114  0.0422 -0.1139
52074W        W94991   0.197   6.321   7.334 -0.0177  0.1134 -0.2907
52075W        W94992   0.073   6.179   8.389 -0.1061 -0.1291 -0.0393
52076W        W94993  34.467   3.584   8.842 -0.0120 -0.1233 -0.3476
52077W        W94994  34.563   4.333   7.538  0.1620  0.1654  0.2508
52078W        W94995  34.145   3.419   6.650  0.1343 -0.1821 -0.3452
52079W        W94996  32.114   3.050   9.173 -0.0033  0.1510 -0.3877
52080W        W94997   0.321   6.714   7.541 -0.3053 -0.1620 -0.1240
52081W        W94998   1.245   4.769   6.996  0.3108  0.2592  0.1267
52082W        W94999   1.196   9.031  10.076 -0.1679 -0.0261 -0.2044
52083W        W95000  33.826   7.228   8.261 -0.0991 -0.0773 -0.1462
52084W        W95001  33.280   7.568   8.732  0.3644 -0.2546  0.1984
52085W        W95002  33.861   4.080   8.277  0.0090  0.0050  0.1292
52086W        W95003  34.371   2.178   5.978 -0.3775 -0.2709 -0.2109
52087W        W95004  32.166   3.390   8.009 -0.0155 -0.1308 -0.0388
52088W        W95005   0.194   5.479   8.961  0.0966 -0.0732  0.5493
52089W        W95006   0.183   7.190   7.530  0.0615 -0.4773 -0.3383
52090W        W95007  33.302   5.676   8.205 -0.3142  0.1791 -0.4543
52091W        W95008  33.738   6.297   8.582 -0.3813 -0.2992  0.0500
52092W        W95009   0.942   7.191   9.604 -0.1109 -0.2178  0.1492
52093W        W95010  33.504   2.826   5.978  0.0119 -0.2105 -0.0417
52094W        W95011   2.021   6.515   8.940  0.0145  0.1374  0.1748
52095W        W95012  33.573   3.674   8.552  0.2246 -0.0143  0.1161
52096W        W95013  32.662   5.216   9.262 -0.0831  0.0530  0.1135
52097W        W95014   0.798   4.560   7.262 -0.0260 -0.1394  0.2048
52098W        W95015   1.661   1.740   9.869 -0.1131  0.2078  0.0042
52099W        W95016   0.542   7.491   8.195  0.1286  0.0627  0.0772
52100W        W95017   1.071   6.073   7.151 -0.2513  0.1473  0.3004
52101W        W95018  32.612   2.404   7.865  0.2641  0.0279  0.2205
52102W        W95019   0.807   4.903   7.964 -0.3441  0.0749  0.0881
52103W        W95020  33.151   3.158   8.996 -0.0673 -0.5010 -0.1085
52104W        W95021   1.416   4.507   9.788 -0.2941  0.4355 -0.0880
52105W        W95022  32.321   6.157   9.102  0.0239  0.1203 -0.1455
52106W        W95023  34.364   2.429   7.970 -0.3855  0.0822 -0.2457
52107W        W95024  33.341   5.201   6.041  0.4727 -0.0530 -0.1388
52108W        W95025  32.911   7.220   8.557  0.0223  0.0828 -0.1330
52109W        W95026  34.567   3.867   8.387  0.2149 -0.1166  0.0973
52110W        W95027   1.307   5.977   8.341  0.2490 -0.0903 -0.1899
52111W        W95028   0.969   6.813   7.651  0.0679 -0.2332  0.0464
52112W        W95029  34.067   3.597   8.426  0.1931 -0.1330  0.2915
52113W        W95030   0.640   3.201   7.587  0.2567 -0.0992 -0.0995
52114W        W95031  33.653   4.973   8.135  0.1032 -0.2296 -0.0453
52115W        W95032  32.373   3.617   8.401 -0.2128 -0.0349 -0.2404
52116W        W95033   0.077   5.209   8.290 -0.1802 -0.2747 -0.3879
52117W        W95034  34.278   6.448   8.448  0.2741 -0.0651  0.0219
52118W        W95035  33.055   4.681   8.032  0.1006  0.0776  0.2106
52119W        W95036  33.148   2.978   8.202  0.2311  0.0328  0.0103
52120W        W95037   2.071   2.863   9.512  0.0119 -0.1890 -0.1366
52121W        W95038  32.403   3.878   9.527  0.0698  0.1341  0.0941
52122W        W95039  34.129   3.124   8.050 -0.1826  0.0944 -0.0339
52123W        W95040  32.420   5.373   5.692  0.1000 -0.3918  0.1597
52124W        W95041  33.721   4.339   6.794  0.0514  0.1204 -0.1595
52125W        W95042   0.677   5.417   8.844  0.0226 -0.1697  0.0553
52126W        W95043   0.226   3.456   8.441 -0.0378  0.3051 -0.0051
52127W        W95044  32.557   2.382   9.309  0.0107  0.0630  0.0041
52128W        W95045   1.482   3.585   9.702  0.0273  0.2657 -0.1214
52129W        W95046   0.092   3.526   7.535  0.2361 -0.2384 -0.1923
52130W        W95047   0.666   3.123   8.518  0.1355  0.1694 -0.0084
52131W        W95048  34.267   8.037   9.648 -0.2726 -0.0681  0.1872
52132W        W95049  33.635   2.313   7.686 -0.2719  0.0123 -0.3942
52133W        W95050  32.399   3.227   8.743 -0.3080 -0.2999  0.0691
52134W        W95051   1.004   6.826   8.684 -0.1714 -0.2202 -0.3299
52135W        W95052  34.155   2.863   6.789  0.0163 -0.0362 -0.1632
52136W        W95053  34.494   7.662   9.334  0.1031 -0.2772  0.0832
52137W        W95054   0.682  11.448   1.816 -0.0879 -0.2190 -0.3367
52138W        W95055  34.031  10.220   1.077 -0.2274  0.1567 -0.1103
52139W        W95056  34.385   7.598   0.660 -0.3589  0.0667 -0.3337
52140W        W95057  33.022   6.211   3.841  0.2510 -0.0807  0.0131
52141W        W95058  33.075   9.041   2.137  0.2356  0.1144  0.0409
52142W        W95059  34.251   8.567   2.644 -0.2364 -0.2588  0.0037
52143W        W95060   1.340   8.436   0.716 -0.0799 -0.1734 -0.0584
52144W        W95061  31.191   6.967   2.214 -0.0098 -0.2370  0.0361
52145W        W95062  33.721   9.123   1.825  0.0757  0.1153  0.0097
52146W        W95063  34.218  10.812   1.800  0.0209  0.2318  0.3341
52147W        W95064  34.561   7.385   1.291  0.1691 -0.0094 -0.4579
52148W        W95065   1.017   9.533  31.551 -0.0048  0.1860 -0.2542
52149W        W95066   1.068  11.418   0.882 -0.2156  0.2502 -0.6133
52150W        W95067  32.796   8.552  31.256 -0.1065  0.3813  0.3321
52151W        W95068  33.329   7.813   1.708  0.1373  0.2741 -0.1509
52152W        W95069  31.623   5.956   3.606  0.0694 -0.0635 -0.0048
52153W        W95070   2.173   9.697   1.289 -0.0252  0.0292 -0.1925
52154W        W95071   1.550  12.570   0.729  0.0555 -0.1163  0.1475
52155W        W95072  33.705  11.098   0.542  0.2345  0.2919 -0.0038
52156W        W95073  33.316  10.827   1.154  0.3427  0.2409 -0.0189
52157W        W95074  33.332   9.290   1.031  0.1790  0.0290 -0.2686
52158W        W95075   0.009  11.603   2.811  0.0611 -0.2789 -0.2444
52159W        W95076  32.154  10.248  30.739 -0.0986 -0.0454  0.0900
52160W        W95077  33.510   8.803   3.760 -0.1615 -0.0069  0.3897
52161W        W95078   1.018   8.951   0.047 -0.0402 -0.0186  0.2462
52162W        W95079   0.482  10.633   2.512  0.1643 -0.1575  0.2753
52163W        W95080   0.378   7.855   2.218 -0.3787  0.5627 -0.1763
52164W        W95081  30.643  10.707   0.573 -0.3080  0.1276 -0.1221
52165W        W95082  32.794  11.158   0.598  0.0372 -0.3904  0.2608
52166W        W95083  32.175   9.423  30.225  0.0213  0.1361  0.2171
52167W        W95084   0.363   6.946   2.032 -0.2281 -0.2211  0.1829
52168W        W95085  33.322  11.335   1.945 -0.1060 -0.0315 -0.0426
52169W        W95086   1.008   7.505   1.772 -0.0386  0.2664  0.0255
52170W        W95087  33.944  10.269   1.580  0.2413  0.1360  0.0309
52171W        W95088  33.766   9.381   1.378 -0.2106  0.1003  0.3327
52172W        W95089  33.651   8.691  30.896  0.0956 -0.2218 -0.0912
52173W        W95090  33.807  10.576   2.061 -0.1361  0.2021  0.0103
52174W        W95091  33.867   8.982   2.855  0.3828 -0.0008 -0.0188
52175W        W95092  34.200   8.603  31.649  0.1888  0.5832 -0.0205
52176W        W95093   0.284  10.799   4.097  0.0335  0.0323 -0.3143
52177W        W95094  34.513   8.809   1.276  0.2425 -0.0480  0.0134
52178W        W95095   0.669   9.460   0.878  0.2675 -0.0884  0.2006
52179W        W95096  32.583   8.269   1.287  0.0574 -0.0927 -0.0241
52180W        W95097  34.226   9.575   2.702  0.0424 -0.0440 -0.3964
52181W        W95098   1.016   9.181   1.660  0.0960 -0.1627  0.0288
52182W        W95099  34.213   8.648   4.458 -0.2392  0.1508 -0.0691
52183W        W95100   0.542   8.761  31.938  0.4682 -0.0398 -0.0441
52184W        W95101  31.542  10.792   1.275 -0.2156  0.1631  0.1491
52185W        W95102  33.336  10.076   0.110  0.2110  0.0802 -0.0253
52186W        W95103  32.563   6.438   2.369 -0.0208 -0.0172 -0.0656
52187W        W95104  34.670  11.065   1.646  0.3300 -0.0589 -0.1236
52188W        W95105  33.916   6.543   1.793  0.3714 -0.0905 -0.2544
52189W        W95106   0.263   9.174  31.923  0.0451 -0.1889 -0.0418
52190W        W95107  33.895   8.090   2.522  0.5107  0.0779 -0.0745
52191W        W95108  34.370   7.895   1.522 -0.1626  0.1718  0.3613
52192W        W95109  31.638   7.816   2.126 -0.3647 -0.0399  0.1391
52193W        W95110  33.096   8.596   1.173  0.1079 -0.0111  0.3442
52194W        W95111  34.013   5.290  31.753  0.1019  0.2623 -0.2228
52195W        W95112  33.822   9.192   0.932  0.2261  0.0979  0.1511
52196W        W95113  32.378  10.975   0.783 -0.0381 -0.2213 -0.1049
52197W        W95114   0.116   6.200   1.413  0.7461  0.2020 -0.1857
52198W        W95115  31.464   8.982   0.669 -0.0836 -0.2600 -0.1697
52199W        W95116   0.240  10.231   2.752  0.1460  0.0827 -0.0699
52200W        W95117  33.542  10.281   1.205 -0.2810  0.1524  0.0810
52201W        W95118   0.261   8.484  30.937 -0.1546 -0.2064 -0.2245
52202W        W95119  34.433  12.153   1.675  0.2458 -0.0262  0.0488
52203W        W95120  33.980   8.682   1.179  0.2203 -0.0678 -0.0973
52204W        W95121  34.178  11.346   0.998  0.0555 -0.3313  0.0775
52205W        W95122  31.837   8.991   2.220  0.0219 -0.0825 -0.1503
52206W        W95123   2.411  10.670   1.582  0.0395 -0.2614 -0.2365
52207W        W95124  33.307  10.689   2.005 -0.0858 -0.2826 -0.0618
52208W        W95125  33.191  10.796   0.678 -0.1626 -0.2150 -0.1245
52209W        W95126  33.495  11.170   2.430 -0.2815 -0.1912  0.1482
52210W        W95127  34.257   9.736   3.700 -0.0915 -0.1771  0.1810
52211W        W95128   1.991  10.243   1.431 -0.1309 -0.0782  0.3384
52212W        W95129  34.244   9.928  31.814 -0.1708  0.3505 -0.4098
52213W        W95130  33.410  12.114   1.080 -0.0857  0.0996  0.0468
52214W        W95131  33.325   8.445   3.051  0.2089  0.0984  0.0507
52215W        W95132  33.540   9.278  31.577 -0.1629  0.0398  0.0712
52216W        W95133  33.517  11.167  31.578 -0.2132  0.0486 -0.1221
52217W        W95134   0.740   8.787   2.092 -0.3169 -0.0289  0.0300
52218W        W95135  33.737   9.906  30.985  0.1873 -0.1747 -0.1955
52219W        W95136   0.768   5.977   3.014 -0.0702 -0.0076  0.0900
52220W        W95137  32.574  10.694   0.454 -0.3538  0.0300  0.2967
52221W        W95138  34.659  11.079   3.164  0.1538  0.0314 -0.1790
52222W        W95139  34.400   7.833   3.573  0.0434  0.1438  0.1103
52223W        W95140  34.142  10.816   0.791  0.0276 -0.0834 -0.1101
52224W        W95141   0.628   8.912   0.932 -0.1218  0.2032 -0.2746
52225W        W95142  34.435   8.535   2.128 -0.1247  0.2967  0.0444
52226W        W95143   0.487   9.562   3.950  0.2443  0.0711 -0.1469
52227W        W95144  34.444  11.399  30.897  0.1116  0.3089  0.0459
52228W        W95145  32.742  10.096   1.147  0.0335  0.0269 -0.0603
52229W        W95146  33.086  10.962   1.704 -0.0149 -0.1746  0.2365
52230W        W95147  33.993   8.340   0.107  0.1868 -0.0823  0.0932
52231W        W95148  32.847   9.090   1.315 -0.1745 -0.4026 -0.1280
52232W        W95149  33.644   9.809   1.608  0.3184  0.0129 -0.1487
52233W        W95150  33.993  10.354   2.473  0.0643 -0.0532 -0.1657
52234W        W95151  33.386  10.812   3.714  0.1619  0.1247 -0.0561
52235W        W95152   1.192   7.086   3.079 -0.3339  0.1113  0.1780
52236W        W95153  31.692   7.059   2.981 -0.3003 -0.5565 -0.4655
52237W        W95154   0.524   8.289   2.007  0.0640 -0.2028 -0.0002
52238W        W95155  32.472  11.012   1.320  0.3814  0.0701 -0.2219
52239W        W95156  33.626  11.843  31.766 -0.0565 -0.0799 -0.0128
52240W        W95157   0.288   9.593  31.667  0.1153 -0.0152 -0.1953
52241W        W95158   1.265   7.962   2.675  0.0568 -0.2235  0.1041
52242W        W95159   0.266   8.704   2.187  0.1879 -0.0341 -0.0283
52243W        W95160   0.122   8.526   0.905 -0.1726 -0.0587  0.2740
52244W        W95161  34.441   8.843   0.720 -0.0189 -0.0384 -0.1453
52245W        W95162   1.614   8.468   1.817  0.3203 -0.0029  0.0218
52246W        W95163  33.388   9.319   3.852 -0.1350  0.3070  0.1009
52247W        W95164  34.224   9.586  29.717 -0.2347  0.3127  0.0085
52248W        W95165   0.026  12.159   2.871 -0.0418 -0.0201  0.0472
52249W        W95166  34.046   9.137  31.772 -0.3349  0.2086  0.0604
52250W        W95167   0.438   7.342   2.931  0.2279 -0.0047  0.1324
52251W        W95168  33.883  10.674   1.275 -0.0949  0.2133 -0.0054
52252W        W95169  33.945  11.547   1.702 -0.1784  0.0448 -0.1636
52253W        W95170  32.484  10.082   1.561 -0.1789  0.1694 -0.1549
52254W        W95171   0.641  10.903  30.094 -0.1188  0.1046  0.0833
52255W        W95172  32.640   6.891   3.194  0.0689  0.1271  0.1831
52256W        W95173  31.640   8.586   1.322 -0.0119  0.1717  0.1221
52257W        W95174  33.374   8.041   2.512  0.2208 -0.0723 -0.0993
52258W        W95175  34.256   8.505   1.615 -0.1736  0.0352 -0.1839
52259W        W95176  34.323   8.833   3.202 -0.2628  0.3028 -0.0298
52260W        W95177  33.816   9.969   0.261 -0.0329  0.0393 -0.2126
52261W        W95178  34.427   8.683   3.876 -0.1539 -0.2464 -0.4101
52262W        W95179   2.008   9.118  30.731 -0.3268 -0.0476 -0.2339
52263W        W95180  34.066  11.132   1.417 -0.2058 -0.1506 -0.1358
52264W        W95181  34.225   6.463   0.531  0.0637 -0.3467  0.2332
52265W        W95182   2.348   8.943   3.210 -0.1149 -0.0329  0.2544
52266W        W95183  32.903   6.816   2.731  0.1421 -0.0453  0.1480
52267W        W95184   0.030   7.620   3.138 -0.1083  0.0138 -0.0411
52268W        W95185  33.690   7.634   0.490 -0.0000  0.1738  0.2001
52269W        W95186  34.477  10.922  31.855  0.0358 -0.0408 -0.3017
52270W        W95187  33.721   7.491   1.794 -0.3374 -0.1759  0.0019
52271W        W95188  33.614  10.645   3.275 -0.0206  0.0132  0.1213
52272W        W95189  32.922   9.505  31.948  0.2038  0.2588  0.2896
52273W        W95190  34.617  11.485   1.194 -0.2733 -0.2732  0.1718
52274W        W95191   3.047   9.773   2.257 -0.0637 -0.0407 -0.2656
52275W        W95192   0.863   8.680  31.581  0.0941  0.1871 -0.1168
52276W        W95193  32.195  10.546  31.647 -0.1380 -0.0575  0.1186
52277W        W95194   0.726  10.346   0.161 -0.1788  0.0827  0.1711
52278W        W95195  33.628  10.874   1.686  0.1562 -0.1335  0.0045
52279W        W95196   0.568  10.030   0.704 -0.3868 -0.0577 -0.0808
52280W        W95197   0.446   8.984   1.736  0.1024  0.3196 -0.2518
52281W        W95198  34.037   9.319   3.254 -0.2028  0.2058 -0.2559
52282W        W95199  33.118   8.318   0.740  0.2867  0.0904  0.3063
52283W        W95200  32.203   6.898   1.938  0.1799  0.0487 -0.2399
52284W        W95201   0.128   9.046  31.443 -0.4098  0.0478 -0.0088
52285W        W95202   1.296  10.939   2.158  0.0364 -0.1057 -0.0180
52286W        W95203  34.201   8.681   4.952 -0.2925 -0.2651 -0.4469
52287W        W95204  33.127  12.199  31.778  0.0235  0.1687  0.3429
52288W        W95205   0.563   8.814  31.268  0.3187 -0.1759  0.1728
52289W        W95206  32.084  10.716   1.539 -0.0354  0.2399  0.0947
52290W        W95207  31.515  10.733   0.336  0.2392 -0.1971 -0.1910
52291W        W95208  34.067  10.382   0.535 -0.1578 -0.3591 -0.1242
52292W        W95209  33.945  10.978  31.810  0.4625 -0.0656  0.0921
52293W        W95210  34.668   7.652  31.298  0.2367 -0.0438  0.0573
52294W        W95211   1.667   8.945   2.984 -0.1877  0.2079 -0.1090
52295W        W95212  32.363  11.065   2.417 -0.1089  0.0770 -0.0355
52296W        W95213  33.302   9.113   0.029  0.2268  0.1445  0.2574
52297W        W95214  33.657  10.616   0.813  0.0550 -0.0418 -0.2107
52298W        W95215  34.471  11.302   0.635  0.2376 -0.0994  0.1601
52299W        W95216   0.864  11.892   1.059  0.3106  0.0185 -0.1527
52300W        W95217   1.051   7.671   0.715 -0.1152  0.0461 -0.2067
52301W        W95218  34.227  10.319   1.989 -0.0872  0.1583  0.3388
52302W        W95219  33.988   8.378  31.061 -0.1955  0.2789 -0.1873
52303W        W95220   0.836   8.717   1.502  0.3312  0.0845  0.1127
52304W        W95221  33.320   9.248   2.501  0.1219  0.0690  0.2322
52305W        W95222  33.541   8.918   2.235  0.0521  0.2076 -0.2825
52306W        W95223   0.822   6.623   0.498  0.0178 -0.5435  0.4384
52307W        W95224  34.576   8.410  31.950 -0.3245 -0.1479  0.1095
52308W        W95225  33.011  10.474   1.305  0.1574  0.1452 -0.0579
52309W        W95226  34.506   9.418   3.312  0.3542  0.0265  0.1506
52310W        W95227  34.537   8.986   1.980 -0.1767  0.0455 -0.1694
52311W        W95228   1.551  11.223   0.855 -0.2545 -0.3932  0.1913
52312W        W95229  34.667   8.127   1.946  0.0095 -0.2433  0.2981
52313W        W95230  34.214   8.310   1.020  0.2773 -0.1503  0.0948
52314W        W95231  34.494   9.863   1.908 -0.1002  0.1529  0.0020
52315W        W95232   1.307  10.973   1.280  0.0813  0.0317 -0.1894
52316W        W95233   0.360  11.144   1.331 -0.0557  0.2206 -0.0475
52317W        W95234   0.392   9.440   2.767 -0.0086  0.1257  0.0554
52318W        W95235   0.470   7.601   4.785  0.3185 -0.0333  0.1045
52319W        W95236  33.179  10.301   0.903 -0.2176 -0.0911  0.1876
52320W        W95237  33.911   9.633   1.956  0.2605  0.1448 -0.1988
52321W        W95238   0.085  10.483   1.753 -0.0687 -0.0035 -0.0117
52322W        W95239  34.344   9.349   1.741 -0.1397  0.0008  0.2787
52323W        W95240  33.265   9.444   1.474  0.0069 -0.1415  0.0565
52324W        W95241  34.187   8.112   1.982  0.2532 -0.1649 -0.0776
52325W        W95242  33.368   7.675   4.461  0.2376  0.0444  0.7018
52326W        W95243  31.916   8.932   0.422  0.1104  0.2293 -0.2661
52327W        W95244  33.855  10.698  30.926  0.0659 -0.2400 -0.2032
52328W        W95245  33.967   8.524   3.111  0.0488 -0.2918  0.2939
52329W        W95246  33.522   7.529   5.101 -0.0934 -0.2624 -0.3220
52330W        W95247  33.561   7.220   2.229 -0.1352 -0.1176 -0.0651
52331W        W95248  34.076   9.042   1.487 -0.1898 -0.0818  0.5999
52332W        W95249  33.228   6.580   0.839  0.0121 -0.1491 -0.0888
52333W        W95250  33.716   8.642   1.791  0.1689  0.0911  0.0285
52334W        W95251  34.381   8.348   0.522 -0.2997 -0.0945  0.3339
52335W        W95252   0.105   7.936  31.740 -0.0262  0.3119 -0.1850
52336W        W95253  33.315  11.267   0.893  0.0090 -0.0327  0.2090
52337W        W95254   0.347   9.371   4.423  0.3044 -0.2479 -0.0890
52338W        W95255   1.887   8.497   2.255  0.2927  0.1099  0.0083
52339W        W95256  31.370   6.803   3.319  0.0405  0.3956  0.0680
52340W        W95257   0.222   9.560   1.177  0.4631 -0.1359  0.0834
52341W        W95258  34.270   9.034   2.445 -0.2584  0.0145 -0.1596
52342W        W95259  33.105   7.516   3.968 -0.2032  0.0953  0.2397
52343W        W95260  34.516   7.152   0.830 -0.2544 -0.0070  0.0017
52344W        W95261  33.570   8.318   3.450  0.4044 -0.2651  0.0210
52345W        W95262  31.702   6.855   2.037  0.0459  0.0981 -0.1265
52346W        W95263  33.658  10.208   2.929  0.1035  0.0204 -0.2587
52347W        W95264   1.196   8.065   1.034 -0.0272  0.2096  0.3766
52348W        W95265  34.627   9.078   2.798 -0.1630 -0.2390 -0.1452
52349W        W95266   0.465   7.421  30.404 -0.1779  0.0856  0.0073
52350W        W95267   0.549   9.203   1.296  0.0372  0.0002 -0.0115
52351W        W95268  34.559   8.912  31.844 -0.1009 -0.2194  0.2805
52352W        W95269   0.786   9.136   2.819 -0.2236  0.1667 -0.2650
52353W        W95270  31.831   6.667   2.542 -0.2277 -0.2162 -0.1803
52354W        W95271  33.417   9.803  31.637  0.1654  0.0962 -0.3213
52355W        W95272  34.503  10.371   0.907 -0.0157 -0.0450  0.2660
52356W        W95273  33.642   8.590   2.698  0.0327 -0.0568  0.1189
52357W        W95274   0.388  11.262   3.311 -0.0924 -0.0885  0.0350
52358W        W95275  31.448   9.000   5.025 -0.0380  0.0001 -0.0525
52359W        W95276   0.653   7.315   5.382 -0.1037  0.1049 -0.3059
52360W        W95277  33.660   8.123   6.724 -0.2200 -0.0198  0.0650
52361W        W95278  32.052   7.158   8.024 -0.0582  0.2074  0.2610
52362W        W95279   0.689   6.583   7.196 -0.1072 -0.2232  0.0898
52363W        W95280   0.695  10.143   7.068 -0.1729 -0.0232  0.0141
52364W        W95281  34.460   6.007   3.916  0.3976  0.2518  0.0961
52365W        W95282  33.900   6.823   8.560 -0.2046  0.1412  0.1724
52366W        W95283  33.660   9.113   5.983 -0.0249  0.3359  0.1520
52367W        W95284   0.324   7.675   7.576  0.2447 -0.0280  0.1847
52368W        W95285   0.880   7.161   4.980  0.0390 -0.0152 -0.2386
52369W        W95286  32.940   7.481   6.883 -0.2238 -0.1552 -0.1358
52370W        W95287   1.970  11.631   5.746  0.0799  0.2620 -0.1641
52371W        W95288  32.383   7.587   3.085 -0.0322 -0.0875  0.0843
52372W        W95289  34.083   9.134   5.198 -0.2120  0.0204 -0.1984
52373W        W95290  33.265   8.026   6.037  0.2133 -0.1244  0.2620
52374W        W95291  34.566   8.380   5.222 -0.0380  0.2592  0.2541
52375W        W95292   1.365   9.932   6.249  0.1027 -0.1352 -0.4149
52376W        W95293  33.112   8.331   5.684  0.3937 -0.0469  0.0552
52377W        W95294  30.853   8.787   6.248  0.0133 -0.0630 -0.0457
52378W        W95295  34.592  10.547   3.170 -0.1127  0.0736 -0.2205
52379W        W95296  32.608  10.559   9.189 -0.1064 -0.1153  0.2076
52380W        W95297  32.924   9.869   3.312  0.2035 -0.0047 -0.2945
52381W        W95298  34.130  10.081   5.792 -0.2860 -0.2246  0.1718
52382W        W95299  32.954  11.673   4.205 -0.1056  0.0173 -0.2020
52383W        W95300  34.188   8.123   6.744 -0.0410 -0.1956 -0.1617
52384W        W95301   0.416   9.970   5.587  0.1541 -0.0422  0.0930
52385W        W95302  34.115   9.141   5.713  0.2961  0.0138 -0.0089
52386W        W95303  33.290   9.973   2.026  0.1411  0.1515  0.1640
52387W        W95304   0.174   7.676   1.671 -0.0445 -0.1191 -0.0514
52388W        W95305   0.606   8.792   5.867  0.0473  0.1593 -0.1478
52389W        W95306   0.261  11.792   5.496  0.0471  0.2464 -0.1558
52390W        W95307  32.922   5.833   4.846  0.0401  0.0744  0.1534
52391W        W95308  34.406   9.618   5.878  0.0338  0.1804 -0.1966
52392W        W95309  33.299   7.915   5.449  0.2346 -0.1258 -0.1115
52393W        W95310  33.995   6.862   3.602 -0.2050  0.1223  0.0285
52394W        W95311  33.248   8.920   6.768 -0.1356 -0.0250 -0.3216
52395W        W95312  32.860   8.791   5.873  0.1024 -0.1186 -0.0807
52396W        W95313  34.148   6.944   3.052 -0.3682  0.0307 -0.3555
52397W        W95314  32.764   9.289   6.620 -0.0902 -0.1052  0.3500
52398W        W95315  33.488   8.179   7.249 -0.0441  0.0622 -0.0977
52399W        W95316  33.672   8.078   2.979  0.0172  0.1832  0.0275
52400W        W95317   1.243   8.061   5.035  0.0053 -0.0442  0.3711
52401W        W95318  33.319  10.157   6.209  0.1770 -0.0490 -0.0359
52402W        W95319   0.639   6.046   6.307  0.1852  0.1148 -0.1446
52403W        W95320   0.338   9.645   6.397 -0.0158 -0.1375  0.1999
52404W        W95321  34.190  10.936   4.384 -0.1709 -0.0803 -0.4097
52405W        W95322  31.565   7.889   5.495  0.0187  0.0925 -0.1601
52406W        W95323  33.139  10.355   2.819  0.0648 -0.3208  0.0522
52407W        W95324  32.927   6.434   7.720 -0.0356 -0.2175 -0.0032
52408W        W95325   0.958   8.472   5.163 -0.1706 -0.1348  0.0348
52409W        W95326  32.879   8.072   5.143 -0.2245  0.0567 -0.0295
52410W        W95327  33.142   7.411   4.805 -0.0679 -0.3612 -0.0191
52411W        W95328  32.674   8.424   5.460 -0.2806  0.1383  0.3372
52412W        W95329  32.247  10.648   2.700 -0.0299  0.3089 -0.1976
52413W        W95330  33.998   7.368   5.765 -0.0742 -0.1310 -0.0784
52414W        W95331  33.180   6.581   5.338 -0.1436 -0.0837  0.0279
52415W        W95332   0.291   7.405   4.152  0.0386 -0.3277  0.2452
52416W        W95333  33.630   9.013   5.435  0.2482 -0.0668  0.2719
52417W        W95334  32.866   7.868   3.695  0.0893 -0.1502  0.1857
52418W        W95335  33.912   7.981   6.348 -0.2125 -0.2223 -0.0659
52419W        W95336   1.678   8.730   5.793  0.0837 -0.0293  0.0544
52420W        W95337  32.839   9.638   5.847  0.1291  0.1076 -0.3583
52421W        W95338  34.271   9.910   4.928 -0.1124 -0.1584  0.2875
52422W        W95339  33.676   8.293   4.670  0.1074  0.0570 -0.2638
52423W        W95340  33.010   9.807   6.450  0.0361 -0.2709  0.0244
52424W        W95341   0.263   7.409   2.086  0.1506  0.0177 -0.0365
52425W        W95342  33.764  10.594   4.202  0.0994  0.0297 -0.1362
52426W        W95343  33.934   9.569   4.843 -0.1138 -0.2093 -0.0240
52427W        W95344  33.220   9.170   5.161 -0.1478 -0.2317 -0.1301
52428W        W95345  32.522   6.878   8.073 -0.1705 -0.0794 -0.0796
52429W        W95346  33.560   8.380   6.276 -0.1779 -0.0870  0.1263
52430W        W95347  34.112   8.684   5.503 -0.0680  0.2447 -0.0181
52431W        W95348  31.905  10.064   7.630 -0.0885  0.1048  0.1218
52432W        W95349   1.308   9.607   4.479 -0.0228 -0.1528  0.1937
52433W        W95350  33.407   9.994   7.210 -0.1535 -0.0927 -0.4481
52434W        W95351  33.402   8.808   6.289  0.4897 -0.1211 -0.2659
52435W        W95352  34.621   6.978   6.371 -0.1369  0.0580  0.0516
52436W        W95353   0.199   9.191   2.339  0.0235 -0.0791  0.5572
52437W        W95354  33.185   8.890   3.417  0.3878 -0.1035  0.0677
52438W        W95355  34.358   7.565   5.438 -0.0621  0.1120 -0.1099
52439W        W95356  33.887   8.510   2.250  0.0648  0.1598  0.1236
52440W        W95357  33.933   7.623   6.734 -0.0971 -0.0533  0.0483
52441W        W95358  33.836   9.029   6.528 -0.3376  0.1306  0.0233
52442W        W95359  32.687   9.388   7.157 -0.3125 -0.3360  0.0922
52443W        W95360   0.114   7.227   8.372 -0.0889  0.1210  0.0726
52444W        W95361   0.267   9.874   4.269 -0.0992  0.0314  0.0588
52445W        W95362  33.252   8.779   4.730  0.0713 -0.0289  0.3558
52446W        W95363  34.082   6.107   4.975  0.1492  0.2550  0.1848
52447W        W95364   0.042   9.185   6.059  0.2372  0.0112  0.1865
52448W        W95365  33.474   9.467   3.303 -0.4706 -0.2544 -0.2046
52449W        W95366  33.730   9.283   4.271  0.1634 -0.1970  0.2801
52450W        W95367  32.268  12.448   4.054 -0.2311  0.0110 -0.3785
52451W        W95368   0.438   9.102   4.858 -0.1276 -0.0193  0.1589
52452W        W95369  33.710   7.203   3.383  0.1620 -0.0341  0.0323
52453W        W95370   0.732   8.948   5.341 -0.0202 -0.1937  0.2031
52454W        W95371   1.420   8.371   6.244  0.0480  0.2097  0.1609
52455W        W95372  33.035  10.946   5.681  0.1062  0.2890  0.0982
52456W        W95373  34.480   7.754   7.570 -0.2535  0.1631 -0.0336
52457W        W95374  33.478   8.070   4.236  0.1000 -0.0893  0.1191
52458W        W95375   1.344   8.901   6.125  0.2536  0.1242 -0.0017
52459W        W95376  34.628  10.172   4.543  0.2239  0.0805 -0.4011
52460W        W95377   0.144   8.084   4.645 -0.0066  0.0246 -0.0243
52461W        W95378  34.248   7.268   4.419  0.0748  0.1700  0.0464
52462W        W95379  33.083   8.778   5.392 -0.1967 -0.0110  0.1001
52463W        W95380  34.456   9.395   4.967  0.1370 -0.1020 -0.0401
52464W        W95381   0.552   6.060   4.950  0.0050  0.0488 -0.3960
52465W        W95382  34.516   7.951   5.077  0.2251 -0.2205  0.1229
52466W        W95383  33.569   7.962   7.703 -0.0622  0.0497  0.0934
52467W        W95384  34.185   9.072   7.957  0.1980  0.1830 -0.0483
52468W        W95385  34.468   9.986   6.168  0.2179  0.1151 -0.1231
52469W        W95386  33.979   8.513   6.488  0.1464 -0.0752  0.0075
52470W        W95387  33.337   7.073   5.150  0.3090  0.0864 -0.0472
52471W        W95388   0.372   8.143   5.154  0.0139 -0.0983  0.1177
52472W        W95389  32.381  10.418   6.952 -0.1203 -0.0807 -0.0424
52473W        W95390  33.082  10.006   4.878 -0.2225  0.2777  0.1530
52474W        W95391  30.762   7.189   5.718 -0.1540  0.0809 -0.1200
52475W        W95392   1.187   7.240   5.902 -0.1199 -0.3552 -0.0702
52476W        W95393  33.586   5.839   5.022 -0.0682  0.0220 -0.1666
52477W        W95394  33.782   7.806   7.198 -0.0331  0.0829 -0.0256
52478W        W95395  31.771   9.144   7.666 -0.2523  0.1175 -0.2547
52479W        W95396   0.476   9.913   2.072  0.2868 -0.1220  0.0720
52480W        W95397  32.555  10.107   6.584  0.0555  0.1164 -0.3287
52481W        W95398   0.228   8.351   5.910  0.0254 -0.0290  0.0542
52482W        W95399  33.671  10.877   7.375 -0.0178  0.0165 -0.1058
52483W        W95400   0.297   9.107   5.570 -0.2528  0.2191  0.0187
52484W        W95401  32.622   9.756   4.762  0.1068 -0.0684  0.0645
52485W        W95402  34.186   7.170   7.846 -0.0405  0.0612 -0.0102
52486W        W95403  34.059   7.542   7.549  0.0257 -0.2243 -0.0007
52487W        W95404  31.249   6.640   6.239  0.0807 -0.1629 -0.0451
52488W        W95405  34.607   6.976   4.620 -0.0941  0.2187  0.5568
52489W        W95406   0.511   6.853   2.533 -0.0753 -0.0503  0.3135
52490W        W95407   1.456   9.829   4.044 -0.0725  0.1369  0.0203
52491W        W95408  33.360   6.891   7.151 -0.1415 -0.0823 -0.1930
52492W        W95409  33.763  10.320   7.408  0.2914 -0.1905  0.0509
52493W        W95410  33.528   6.689   2.024 -0.1583  0.1150  0.0111
52494W        W95411  33.971   8.539   3.691  0.0994  0.0678  0.0290
52495W        W95412   0.173  10.315   4.033  0.0695 -0.0994  0.3264
52496W        W95413  34.256   7.293   3.859 -0.0949 -0.0695  0.0823
52497W        W95414  33.437  10.737   2.868  0.2339 -0.1634 -0.2015
52498W        W95415  34.549   9.929   5.559  0.0160 -0.0108 -0.1093
52499W        W95416  34.428  10.430   4.924  0.0686 -0.1438  0.0106
52500W        W95417  33.429  11.453   4.189 -0.0521  0.2212 -0.2214
52501W        W95418   0.948  10.011   4.788  0.0501 -0.5146 -0.1966
52502W        W95419  34.197   9.153   6.219  0.1137 -0.3148 -0.1170
52503W        W95420   0.079  10.356   6.870 -0.0045  0.0496 -0.3207
52504W        W95421  30.325   7.352   8.330 -0.0262  0.0968 -0.1745
52505W        W95422  32.717   7.271   4.990 -0.1841 -0.2034  0.0841
52506W        W95423  32.906  10.409   6.428  0.0984 -0.1893  0.3806
52507W        W95424  33.894   8.477   7.237  0.0189  0.2745 -0.2354
52508W        W95425  33.482  11.103   3.281  0.1423  0.0068 -0.0853
52509W        W95426  33.175   7.991   3.308 -0.0550  0.0241  0.3113
52510W        W95427  33.016  10.783   4.681  0.0894  0.2879  0.0160
52511W        W95428  32.862  11.537   2.765  0.4390 -0.0994 -0.2822
52512W        W95429  33.406  11.290   4.720  0.0712  0.1270  0.2420
52513W        W95430  32.765   8.097   6.513 -0.0865  0.1881  0.0956
52514W        W95431  34.450   7.278   2.888 -0.2046  0.1304 -0.0578
52515W        W95432  33.782  10.196   6.857  0.0826  0.0703 -0.1322
52516W        W95433  31.906  10.374   6.984  0.3730  0.2409 -0.2554
52517W        W95434  33.406   8.440   2.208 -0.1283 -0.2206 -0.2342
52518W        W95435  31.157   8.187   5.628  0.0749 -0.1473 -0.1792
52519W        W95436  33.685   8.089   5.133  0.0466 -0.0979 -0.2640
52520W        W95437  34.099  10.510   2.976 -0.0694  0.0276  0.2132
52521W        W95438  33.634   9.609   6.914 -0.1875 -0.0520  0.0411
52522W        W95439  34.270  10.841   5.669  0.1149 -0.2967  0.1911
52523W        W95440  33.171   8.334   4.582 -0.0803 -0.1062  0.0165
52524W        W95441  32.348   9.057   6.459 -0.1264  0.0039  0.0719
52525W        W95442   0.551   7.088   3.826  0.1461 -0.2528 -0.1250
52526W        W95443  33.132   5.189   4.543  0.3470  0.0686  0.0131
52527W        W95444  34.210   9.907   2.327  0.1721  0.4015  0.1438
52528W        W95445  31.890   7.236   4.938  0.0153  0.1478  0.1583
52529W        W95446  34.459   7.412   4.954 -0.0856  0.1660  0.1616
52530W        W95447  34.473   6.925   5.904  0.0431 -0.0481  0.0023
52531W        W95448  33.643   6.063   5.730 -0.1570 -0.0099 -0.0603
52532W        W95449  34.229  11.354   3.252  0.3896 -0.2004 -0.0033
52533W        W95450  31.561   7.183   6.178 -0.1666  0.1876 -0.1821
52534W        W95451   0.280   7.186   3.392  0.0017  0.0281 -0.2416
52535W        W95452   1.373   7.020   4.912 -0.0195 -0.1123 -0.0518
52536W        W95453  33.976  10.945   3.106 -0.3340  0.0875 -0.1074
52537W        W95454   0.515   8.376   4.333 -0.2159 -0.4289 -0.3356
52538W        W95455   0.957   9.245   5.718  0.1214 -0.3275  0.0904
52539W        W95456  30.936  10.047   5.961  0.1663 -0.0616  0.0965
52540W        W95457  34.370   7.277   3.392 -0.0803 -0.0844 -0.2936
52541W        W95458  33.459   7.094   6.636  0.0911 -0.1559  0.0328
52542W        W95459  32.760   9.886   5.312 -0.2732  0.0230  0.1670
52543W        W95460   1.067   8.863   2.528  0.1636 -0.0891  0.0959
52544W        W95461  34.066   8.697   6.037  0.1843  0.0029 -0.2222
52545W        W95462   1.408   9.450   6.484  0.1633 -0.1078 -0.0505
52546W        W95463   1.955   8.138   6.427 -0.0405  0.0986 -0.0253
52547W        W95464  32.849   7.045   4.028 -0.1313  0.2914 -0.0821
52548W        W95465  33.868   9.331   2.361  0.0785  0.1211  0.0600
52549W        W95466  34.451  10.004   4.143 -0.1709  0.1605  0.0901
52550W        W95467  32.470   6.657   7.163  0.1025  0.0673  0.0465
52551W        W95468  32.395   7.356   6.302  0.1689  0.0334 -0.1437
52552W        W95469  32.351   9.633   5.734 -0.1875  0.1420 -0.0590
52553W        W95470  33.263   8.379   5.148 -0.1016  0.0231 -0.1593
52554W        W95471  32.778   7.206   5.975  0.3076  0.0788 -0.1401
52555W        W95472  30.903   7.140   4.575  0.0579 -0.0415 -0.0103
52556W        W95473  33.801   7.783   5.480  0.0485  0.1863  0.1904
52557W        W95474  33.179  10.819   2.460 -0.1026 -0.0182 -0.0536
52558W        W95475   0.132   9.418   6.909  0.0191 -0.0602  0.0095
52559W        W95476   0.162   7.092   7.057 -0.1177 -0.0610 -0.2815
52560W        W95477  31.549   8.121   2.545 -0.2035 -0.1319  0.0682
52561W        W95478   1.149   7.175   4.457  0.1887  0.1052 -0.0496
52562W        W95479   0.356   8.583   5.478 -0.0510  0.1651  0.0128
52563W        W95480   0.201   9.569   5.790 -0.2660 -0.0224  0.1021
52564W        W95481  33.091   7.252   7.471  0.2305 -0.0918  0.1685
52565W        W95482   0.355   9.615   7.512 -0.0661  0.1095 -0.1874
52566W        W95483  32.522   6.396   8.023  0.2673 -0.1679 -0.1421
52567W        W95484  34.563  10.491   5.904  0.1691  0.0797 -0.0015
52568W        W95485  34.191   7.163   6.685 -0.2542 -0.0359 -0.3219
52569W        W95486  31.870   9.616   7.277 -0.1457 -0.1465  0.1353
52570W        W95487  34.403   9.090   4.170 -0.1766  0.0507 -0.3911
52571W        W95488  34.284   7.894   5.894 -0.0602  0.0285 -0.1722
52572W        W95489  33.895   7.200   5.267  0.0633  0.0944 -0.1161
52573W        W95490   0.075   9.909   6.722  0.1999  0.2977 -0.2058
52574W        W95491  32.088   6.730   6.819 -0.0946  0.0581 -0.3647
52575W        W95492   0.006   8.889   5.195  0.0242  0.1460  0.0934
52576W        W95493  33.962   8.903   4.056 -0.0919 -0.3840 -0.2033
52577W        W95494  31.310   6.930   4.803  0.1105  0.0031 -0.0011
52578W        W95495  34.223  10.414   6.659 -0.1592 -0.1427 -0.1984
52579W        W95496  31.422  10.011   9.123  0.1517  0.2483 -0.3850
52580W        W95497  32.751   8.789   6.579  0.2337 -0.0652 -0.0040
52581W        W95498  32.995   8.462   8.787  0.0389  0.1293 -0.1935
52582W        W95499  34.419   6.886   9.836  0.2830  0.1925 -0.0991
52583W        W95500  33.829   7.283   6.308  0.3062  0.0279 -0.1474
52584W        W95501   1.310   4.162   8.890  0.2133 -0.0651 -0.0110
52585W        W95502  31.966   8.975   8.076 -0.0346  0.2950 -0.1257
52586W        W95503  34.547   9.022   8.892 -0.1014  0.0235 -0.2389
52587W        W95504   0.830   5.995   8.071  0.1117 -0.0335 -0.0072
52588W        W95505   0.476   5.623   9.319 -0.1564  0.1630 -0.3995
52589W        W95506  34.103  10.078   9.005 -0.2290  0.0577 -0.0789
52590W        W95507  32.915   7.157   6.476  0.2552 -0.1173 -0.0441
52591W        W95508  31.875  10.851   9.506 -0.0652  0.2745 -0.0465
52592W        W95509  34.398   8.163   8.636 -0.2534  0.0694  0.0803
52593W        W95510  32.189  11.753   7.030  0.2393  0.1028 -0.1581
52594W        W95511   0.882   9.910   8.477 -0.1362 -0.0617  0.1640
52595W        W95512  33.234  11.750   7.570 -0.0982  0.1764  0.0360
52596W        W95513  31.739  12.606   6.410 -0.5980  0.1256  0.0420
52597W        W95514  33.480   9.513   7.517  0.5270 -0.4209 -0.0647
52598W        W95515  32.403   9.786   7.570 -0.1392 -0.2293 -0.2279
52599W        W95516   0.938   8.443   8.105  0.1219 -0.0601 -0.2945
52600W        W95517  34.656   9.951   9.429  0.1610 -0.0307  0.2458
52601W        W95518  33.031   9.722   8.362 -0.0420  0.0143  0.1223
52602W        W95519  32.285  11.257   7.280 -0.1025 -0.2036 -0.2104
52603W        W95520   0.186   8.823   8.205 -0.4352 -0.1234 -0.3422
52604W        W95521  33.191   6.228   8.732  0.1102 -0.0288  0.0373
52605W        W95522   0.657  10.119   8.878 -0.1205 -0.1844  0.1068
52606W        W95523   1.531   8.209   8.830  0.0399 -0.2524 -0.1263
52607W        W95524  33.593  10.583  12.779 -0.0905  0.0745  0.1465
52608W        W95525  32.024   6.089   8.634 -0.0937 -0.1332 -0.3600
52609W        W95526   0.266   7.080   9.977 -0.3083 -0.1678  0.2023
52610W        W95527  34.532   5.962   6.183 -0.0497  0.2377 -0.1579
52611W        W95528  33.235   8.042   8.869 -0.0834  0.0650 -0.2915
52612W        W95529   1.067  10.321   6.701 -0.0802 -0.0748 -0.0299
52613W        W95530  33.829   9.733   8.676 -0.0109  0.0327 -0.2867
52614W        W95531  30.790   9.242   8.829  0.4649 -0.1557 -0.0924
52615W        W95532  33.218  12.037   6.817 -0.0012 -0.2806 -0.0370
52616W        W95533  32.964   9.729   7.422 -0.0544 -0.0431 -0.1652
52617W        W95534  33.115  11.560   6.796 -0.1781  0.3435  0.1858
52618W        W95535  30.922   7.250   7.913  0.0213 -0.1685  0.0088
52619W        W95536   0.936  10.046   9.466  0.0484 -0.1548 -0.0119
52620W        W95537  32.534   9.186   5.926  0.1235  0.0293  0.0719
52621W        W95538  31.848   8.921   6.354  0.2132  0.0558 -0.0714
52622W        W95539  32.370   8.151   7.599  0.2133  0.0731 -0.2317
52623W        W95540   2.139   6.163   9.293  0.1600  0.0475  0.0703
52624W        W95541  33.422   6.590   8.357  0.1008 -0.1894 -0.1081
52625W        W95542  33.974   9.381   8.376  0.1958  0.1723 -0.4152
52626W        W95543  30.668   8.327   6.225 -0.2252 -0.3326  0.1321
52627W        W95544   3.552   8.365   9.534  0.0628 -0.1011  0.1764
52628W        W95545  32.314   8.157   6.699 -0.2027 -0.1141  0.0037
52629W        W95546  33.818  10.952   9.570 -0.0479 -0.2169  0.0992
52630W        W95547  33.950  10.631   7.068  0.1439  0.0386  0.3339
52631W        W95548  32.342   7.797   6.226 -0.2208  0.0433  0.5433
52632W        W95549  32.961   6.549   7.251 -0.0119  0.0097  0.0747
52633W        W95550  31.406   9.157   7.953 -0.5656  0.2651 -0.2637
52634W        W95551  33.053   8.473   6.750  0.1417 -0.1810  0.0772
52635W        W95552   0.419   7.549   7.073 -0.1615 -0.0665  0.0951
52636W        W95553  33.207   8.310   7.660  0.1603  0.0999 -0.0249
52637W        W95554  34.317   9.300   9.427 -0.1829 -0.0346 -0.0483
52638W        W95555  33.401  10.557   7.660  0.3610  0.0225 -0.1609
52639W        W95556  33.927  10.378   7.935  0.1875  0.0221 -0.2091
52640W        W95557   0.606   6.351   9.388  0.1001  0.3257 -0.0535
52641W        W95558  33.034   7.523   5.286 -0.1655 -0.2541  0.0925
52642W        W95559  32.904  10.367   6.953 -0.0376 -0.0664 -0.1890
52643W        W95560  32.672   8.079   5.901  0.0082 -0.2132  0.0469
52644W        W95561   0.343   9.757   9.134 -0.0954 -0.3370  0.3297
52645W        W95562  34.403  10.275   7.996 -0.0319  0.2812  0.1644
52646W        W95563  34.099   9.156   8.874  0.0565 -0.0608  0.1804
52647W        W95564  31.627   8.406   5.675 -0.0585  0.2162 -0.2391
52648W        W95565  33.695  11.402   8.828  0.1120 -0.0812 -0.0408
52649W        W95566  33.909   9.811   7.302  0.3270  0.5254  0.0379
52650W        W95567  33.436  10.049   8.517  0.1582 -0.0342  0.2378
52651W        W95568  32.664  11.942   9.604  0.1418 -0.0342 -0.0273
52652W        W95569  32.723   8.424   7.822 -0.1245 -0.2923  0.0357
52653W        W95570  31.560   7.886   6.969  0.1369 -0.1270  0.0628
52654W        W95571   0.013   7.773   8.399 -0.1928  0.1718 -0.3658
52655W        W95572  31.130   6.727   8.990 -0.1206 -0.1043 -0.0575
52656W        W95573   0.179   9.317   8.043  0.1688  0.1108 -0.3107
52657W        W95574  32.315   7.253   7.608 -0.0094  0.1155  0.0556
52658W        W95575   0.246   6.399   8.774  0.3320 -0.0181  0.4392
52659W        W95576  31.967  10.956   7.536  0.0728 -0.2264  0.0196
52660W        W95577  33.645   8.470   7.663  0.0043  0.0880 -0.2913
52661W        W95578  34.360   9.722   8.147 -0.1178 -0.1560  0.1570
52662W        W95579  34.380   7.981   8.094 -0.0291  0.1663 -0.0576
52663W        W95580  34.078   8.381   9.306 -0.1094 -0.0998 -0.1804
52664W        W95581  32.360   9.493   9.438 -0.3000 -0.1418  0.1423
52665W        W95582  31.085  10.475   9.235 -0.1180  0.2905  0.0828
52666W        W95583   0.225  10.858   5.930 -0.0755 -0.4498  0.1783
52667W        W95584   1.291   8.475   8.492  0.0046 -0.0004 -0.2679
52668W        W95585  33.752   8.954   7.603  0.2075 -0.2896  0.0526
52669W        W95586  32.827   9.078   9.381  0.1190 -0.1609 -0.4837
52670W        W95587  33.580  10.971   9.124 -0.0506  0.1583 -0.1540
52671W        W95588   2.206   9.349   9.456  0.1884  0.0080  0.0786
52672W        W95589   0.216   7.464   9.622 -0.0859  0.1786 -0.2267
52673W        W95590  34.534   6.734   7.439  0.0793 -0.0381  0.1000
52674W        W95591  34.506   8.132   9.121 -0.0424 -0.3135 -0.0781
52675W        W95592  32.170   7.268   7.110  0.1123  0.4858  0.0704
52676W        W95593  33.851   9.554   9.168 -0.2568  0.5874 -0.0063
52677W        W95594  33.103  10.884   7.339  0.1549  0.0048  0.1232
52678W        W95595   1.135  10.380   8.520 -0.0492  0.1431  0.0133
52679W        W95596  33.715   7.811   8.866 -0.2644  0.0023 -0.0999
52680W        W95597  33.471  10.390   8.163  0.0200  0.1326 -0.0752
52681W        W95598   1.461   6.428   9.770 -0.1183  0.0855 -0.3285
52682W        W95599  34.404   8.592   6.756 -0.0511 -0.0646 -0.2481
52683W        W95600  34.655  11.770   5.987 -0.1232 -0.1608 -0.1075
52684W        W95601  32.141   6.552   8.318 -0.2630 -0.0605  0.3092
52685W        W95602  31.616   7.796   8.572 -0.0502  0.1077 -0.1982
52686W        W95603  33.616   9.116   7.135 -0.2147  0.1927 -0.4213
52687W        W95604   0.965  11.060   7.435  0.2575  0.0201  0.3174
52688W        W95605  33.339   6.875   7.646 -0.0366 -0.1356 -0.0212
52689W        W95606  30.822   7.647   6.414 -0.3360  0.0832  0.1487
52690W        W95607  34.581  11.703   9.667 -0.0437 -0.3721  0.2392
52691W        W95608  32.291  10.334   7.904 -0.0038 -0.1891  0.2552
52692W        W95609  34.342   8.577   8.931 -0.1313 -0.4143 -0.1307
52693W        W95610  33.942   8.240   8.807  0.0665  0.0418  0.2606
52694W        W95611  31.865  10.087   8.866 -0.2111 -0.1233  0.0111
52695W        W95612  32.335   8.931   6.965 -0.3716  0.1271  0.2003
52696W        W95613  32.669   9.833   8.005  0.0605  0.0351  0.2591
52697W        W95614  32.786  11.065   7.712 -0.3217  0.1528 -0.0082
52698W        W95615   2.535   8.763   8.367 -0.0342 -0.0603 -0.2688
52699W        W95616   0.567  11.051   7.089 -0.1370 -0.4550  0.3937
52700W        W95617  33.139   9.211   7.250  0.1599  0.0304  0.0216
52701W        W95618  33.859  10.514   5.709  0.0487 -0.2508  0.0699
52702W        W95619   0.339   9.106   7.597 -0.0756 -0.2823 -0.2281
52703W        W95620   1.528   7.072   8.234  0.2459  0.0430 -0.0298
52704W        W95621  32.098   8.568   6.703  0.1149 -0.4077  0.0164
52705W        W95622   0.078   8.270   8.282 -0.1275  0.0345  0.4377
52706W        W95623   0.808   9.329   7.696  0.1103 -0.0878  0.1921
52707W        W95624   0.314   8.026   7.258  0.1007 -0.2314 -0.1174
52708W        W95625  34.514  11.104   9.981 -0.1628  0.3344 -0.0635
52709W        W95626  32.924  11.004   8.429 -0.1654  0.1077  0.0817
52710W        W95627  34.026   6.405   8.985  0.0258 -0.1281  0.2775
52711W        W95628  33.839   4.615   7.720 -0.3515  0.1674 -0.1122
52712W        W95629  31.514   8.063   6.061 -0.1216  0.0907 -0.3055
52713W        W95630  34.496   6.889   9.354  0.1187 -0.0379  0.1863
52714W        W95631   0.301   7.739   9.126 -0.1543 -0.0591  0.0204
52715W        W95632  31.704   4.781   9.326 -0.1701 -0.1180 -0.1157
52716W        W95633   0.120   8.642   8.726 -0.0681  0.2062  0.1104
52717W        W95634   1.682  10.260   9.175 -0.0958  0.1823  0.1360
52718W        W95635  32.826   5.952   7.844  0.2797 -0.0101 -0.0691
52719W        W95636  33.763  11.454   7.342  0.3453  0.0756  0.1715
52720W        W95637  33.861   8.118   8.084 -0.3563  0.1444 -0.0719
52721W        W95638   0.230   8.138   8.792 -0.0102 -0.0079  0.0509
52722W        W95639  32.670   9.114   8.638  0.2089  0.1243  0.1993
52723W        W95640  33.523  11.030   6.359 -0.0206 -0.0661  0.0136
52724W        W95641  31.595  10.153   6.476 -0.0170  0.0942 -0.0900
52725W        W95642   2.687  11.227   8.602 -0.1101 -0.2070 -0.2431
52726W        W95643  32.128   9.790   8.587 -0.0726  0.0778  0.0886
52727W        W95644  33.058  10.207   7.481  0.0968 -0.0051 -0.0467
52728W        W95645  34.235  10.167   7.209  0.1892 -0.1882 -0.1639
52729W        W95646   0.453   9.045   8.563 -0.2357  0.1784 -0.2312
52730W        W95647  34.228   7.283   9.130  0.0048 -0.2994  0.0716
52731W        W95648  34.260  12.255   8.678  0.4323 -0.0073 -0.0767
52732W        W95649  34.338   9.109   6.699 -0.0651  0.0057 -0.0457
52733W        W95650  31.222   9.393   6.789 -0.0387 -0.0136  0.0424
52734W        W95651  34.367  10.796   9.513  0.0721  0.3828 -0.1621
52735W        W95652  32.347   6.748   9.349 -0.0862  0.0884 -0.0902
52736W        W95653  33.031   7.840   7.839 -0.3117  0.0277  0.1327
52737W        W95654  34.509   3.439   8.125 -0.1447 -0.1898 -0.0469
52738W        W95655  30.261   4.590   9.513  0.1549 -0.3203  0.0791
52739W        W95656  34.055   6.859   6.190  0.2295  0.0275 -0.0419
52740W        W95657  33.392   9.360   6.524  0.4323  0.2596 -0.2146
52741W        W95658  32.739   5.518   8.081 -0.1146 -0.1779 -0.1210
52742W        W95659  34.145  10.640   7.565  0.0355  0.2560  0.2609
52743W        W95660  33.629   7.224   8.931  0.2764 -0.0219  0.0843
52744W        W95661  33.182   5.421   9.144  0.1692 -0.0167 -0.0230
52745W        W95662  34.388   7.195   7.361  0.0548  0.0453  0.0219
52746W        W95663  34.068   7.910   9.167 -0.0288 -0.0574  0.3201
52747W        W95664  34.214   6.636   7.912  0.0157  0.0335  0.2031
52748W        W95665  32.417  12.022   7.861 -0.0611  0.0413 -0.0854
52749W        W95666  30.530   7.522   9.268 -0.0076 -0.0876 -0.0136
52750W        W95667  33.124   9.561   7.872 -0.1835  0.1317  0.0444
52751W        W95668   0.558   9.757   7.990  0.0630 -0.5050  0.2181
52752W        W95669   0.054   8.682   9.302  0.0838  0.1455 -0.1188
52753W        W95670  32.080  11.245   8.614 -0.0591  0.0164  0.0227
52754W        W95671  32.793  13.491   3.145 -0.1943  0.1703 -0.1907
52755W        W95672  32.920  11.307   1.337 -0.2869  0.1723  0.0888
52756W        W95673  32.151  12.830   0.442 -0.2055 -0.0175 -0.3175
52757W        W95674  32.630  11.891   1.910 -0.1278 -0.4050  0.2004
52758W        W95675  33.851   9.464   3.746 -0.1023 -0.1087 -0.2319
52759W        W95676  33.551  13.496   2.055  0.1813 -0.0493  0.2579
52760W        W95677   1.603  10.275   2.259  0.1989 -0.1599 -0.0930
52761W        W95678  34.621  11.671   1.648  0.1174 -0.0188 -0.0653
52762W        W95679  31.514  12.722  31.630 -0.2469 -0.2707  0.0379
52763W        W95680  33.245  13.604   2.606  0.0322  0.1737 -0.0770
52764W        W95681   1.597   9.122   0.032  0.0250  0.0618  0.2075
52765W        W95682   1.277  11.412   3.854  0.2116  0.2844  0.0793
52766W        W95683   1.371  13.667   0.728 -0.0773  0.0069  0.0772
52767W        W95684  31.965  11.316   0.109  0.0235 -0.1349 -0.1158
52768W        W95685  32.107  13.376   2.586  0.0139  0.1665 -0.1578
52769W        W95686  33.939  12.933   1.077  0.2108  0.4586  0.0347
52770W        W95687  33.819  13.504   3.909  0.0807 -0.2554 -0.1034
52771W        W95688   1.958  14.962   0.740  0.2621  0.0735  0.0803
52772W        W95689  33.387  14.111   1.710 -0.1441 -0.2024  0.2088
52773W        W95690  34.498  13.934   1.311 -0.0208 -0.0167  0.0645
52774W        W95691  34.369  13.035   2.977  0.0648 -0.0742 -0.0857
52775W        W95692  34.596  13.492   3.127 -0.2769  0.0940 -0.3736
52776W        W95693   1.340  15.146   2.145  0.0106  0.0829 -0.2658
52777W        W95694  33.260  13.733   3.197  0.3206  0.1947  0.0979
52778W        W95695   1.013  14.165   2.664  0.2069 -0.2463 -0.2601
52779W        W95696   1.386  11.721   1.115  0.2174 -0.0596  0.0785
52780W        W95697   0.377  12.361   3.844  0.0173 -0.3338  0.4379
52781W        W95698  31.620  13.977   1.607  0.0795 -0.0511 -0.2834
52782W        W95699   0.073  14.977  31.950  0.1959  0.0430  0.0843
52783W        W95700  32.697  11.188  31.761 -0.0222 -0.1747 -0.0427
52784W        W95701   0.704  10.079   1.662 -0.0310  0.2336  0.0492
52785W        W95702   2.064  12.495   0.870  0.1082  0.0376  0.0661
52786W        W95703  33.193  12.293   3.528  0.1908 -0.1675  0.0710
52787W        W95704  33.102  14.296   2.853  0.1296  0.2901  0.0767
52788W        W95705  31.433  13.947   2.871 -0.0244 -0.1646  0.2571
52789W        W95706  32.537  13.536   1.320  0.0292  0.0559  0.0660
52790W        W95707  32.786  14.448   1.473  0.3242 -0.2874 -0.1758
52791W        W95708  31.068  12.885   2.287  0.1624  0.0409 -0.0312
52792W        W95709  32.782  11.819  31.696 -0.2261  0.1441 -0.0464
52793W        W95710  31.817  13.984   4.942 -0.0590 -0.1863  0.1483
52794W        W95711  33.260  13.189   1.632  0.2095  0.0171 -0.4373
52795W        W95712  33.981  11.413  31.575  0.1560 -0.3753 -0.1022
52796W        W95713  34.466  13.148   1.919 -0.1538  0.1238  0.1148
52797W        W95714   1.114  13.332   1.035 -0.0394 -0.3005  0.1374
52798W        W95715  32.486  12.904   4.185  0.0390  0.1404 -0.0791
52799W        W95716   0.297  13.267   3.525  0.0067 -0.3349  0.2227
52800W        W95717   0.255  14.236  31.915  0.1586  0.0723 -0.2177
52801W        W95718  33.534  12.995   0.802 -0.2668 -0.1019 -0.0010
52802W        W95719  33.078  13.029   0.992  0.0886 -0.0592 -0.1525
52803W        W95720  32.361  12.535   2.710  0.0846  0.2637  0.3420
52804W        W95721  32.846  13.995   2.586 -0.0363  0.1000 -0.0095
52805W        W95722  32.737  12.489   3.827 -0.2730 -0.1717 -0.1609
52806W        W95723  33.582  12.822   0.288 -0.1978 -0.1684  0.1657
52807W        W95724  33.571  11.914   3.107 -0.0252 -0.4299  0.0212
52808W        W95725  33.936  12.065   1.666  0.2127  0.1820 -0.1256
52809W        W95726  31.795  12.409   3.807  0.2112  0.0974 -0.1254
52810W        W95727  34.396  11.159   2.080  0.0167  0.2846 -0.4185
52811W        W95728   0.249   9.920   1.663 -0.3334  0.0920  0.2517
52812W        W95729   0.885  11.444   1.375  0.1901 -0.1081 -0.1191
52813W        W95730  33.058  12.490   1.180 -0.0300  0.0868 -0.0837
52814W        W95731  33.637  13.169   2.525 -0.2951  0.1196 -0.2470
52815W        W95732  33.895  12.414   0.027 -0.0100 -0.0629 -0.1189
52816W        W95733  34.098  13.484   1.980 -0.2919  0.1431  0.2529
52817W        W95734   0.019  12.713   2.169  0.0611 -0.0377 -0.1573
52818W        W95735   0.717  12.445   0.068 -0.0597 -0.2521  0.0517
52819W        W95736  32.677  14.525   2.766  0.3541  0.1589 -0.0308
52820W        W95737  34.651  11.966  31.706 -0.3300 -0.0521  0.1623
52821W        W95738  34.599  13.870  31.851  0.0058  0.1561 -0.1847
52822W        W95739  33.999  14.672   1.854 -0.0621  0.1466  0.2624
52823W        W95740   0.700  12.716   2.631 -0.2669 -0.0849  0.2574
52824W        W95741  32.925  12.582   4.726  0.2557  0.0762  0.0777
52825W        W95742   0.331  12.249   0.301  0.2680 -0.0794 -0.2892
52826W        W95743  34.431  15.278   2.290  0.2682  0.3582  0.3722
52827W        W95744  32.402  12.872   3.224  0.0719  0.0910 -0.2051
52828W        W95745   1.290  12.638   1.268 -0.0975 -0.0877 -0.1567
52829W        W95746   0.246  11.782   0.834  0.1410 -0.0473 -0.1107
52830W        W95747  30.566  12.920   1.052  0.5352 -0.2827  0.2207
52831W        W95748   1.194  10.280   2.689  0.0741 -0.1009 -0.0633
52832W        W95749  33.259  11.835   0.122 -0.1704 -0.0634 -0.1305
52833W        W95750   0.346  14.740   2.195  0.1393  0.1770  0.0393
52834W        W95751   0.474  11.868   2.694  0.0673  0.0252  0.0088
52835W        W95752   1.199  11.775   0.528  0.2924 -0.1310 -0.0845
52836W        W95753   0.025  12.108   3.476  0.1786  0.1857  0.1499
52837W        W95754  34.480  12.578   2.665 -0.0433 -0.1659  0.1041
52838W        W95755  33.895  13.338   1.492  0.1183 -0.0675 -0.2925
52839W        W95756   1.237  12.783   2.842 -0.4873  0.0308 -0.0490
52840W        W95757   0.830  10.977   0.993  0.0346 -0.2328 -0.1659
52841W        W95758   0.068  12.897   1.627  0.0159 -0.1398 -0.1282
52842W        W95759  33.545  12.537   3.281 -0.3111 -0.0407 -0.2677
52843W        W95760  34.046  14.230   3.202 -0.1011  0.2478 -0.1264
52844W        W95761   0.522  14.262  30.795  0.0186  0.2403  0.0989
52845W        W95762  33.550  14.531   1.477 -0.1144  0.3490  0.1198
52846W        W95763  34.393  13.508   2.657  0.0352 -0.2021 -0.0066
52847W        W95764  32.704  11.868   1.084  0.2584 -0.1291 -0.0819
52848W        W95765  32.037  11.150  30.709 -0.1710 -0.2227 -0.2299
52849W        W95766  32.795  10.816   0.974 -0.0508  0.0045 -0.0606
52850W        W95767   2.935  12.050   0.807  0.2444  0.0332  0.2214
52851W        W95768  33.144  14.577   1.830 -0.2071  0.0936 -0.4330
52852W        W95769  33.345  12.772   2.853 -0.0319 -0.3362  0.2024
52853W        W95770  33.895  12.014   0.845  0.0040  0.1183 -0.0734
52854W        W95771  34.318  11.110   2.760 -0.0967 -0.1282  0.1130
52855W        W95772  31.880  14.319  31.747  0.1622 -0.0215 -0.2930
52856W        W95773  34.526  12.420   0.221 -0.2015 -0.1018 -0.0668
52857W        W95774  34.497  13.600   0.362  0.0335  0.2678  0.1870
52858W        W95775  33.769  11.193   4.376 -0.0486 -0.0669 -0.3362
52859W        W95776   0.400  12.707   1.008  0.2397 -0.1847  0.0573
52860W        W95777   0.383  11.635   1.330 -0.1134 -0.2535  0.1152
52861W        W95778   0.391  11.493   0.459  0.0216  0.1975 -0.1402
52862W        W95779   0.675  13.308   2.557  0.2807  0.0677  0.4437
52863W        W95780   0.009  15.244   4.982  0.0904  0.2804  0.0639
52864W        W95781   1.128  13.799  31.708 -0.3008  0.0537 -0.1871
52865W        W95782  31.402  14.591   1.255 -0.2700  0.1877 -0.3660
52866W        W95783   0.042  12.230   0.735  0.0990 -0.1571 -0.1488
52867W        W95784  33.779  12.893   4.132 -0.1472 -0.0977 -0.0659
52868W        W95785  32.724  11.993   3.485  0.0156 -0.2885  0.2026
52869W        W95786  33.927  14.247   1.598 -0.2859  0.1160  0.0228
52870W        W95787  31.415  13.459   1.713  0.2028  0.1774  0.0214
52871W        W95788   0.969  12.850  30.564 -0.0396 -0.2654 -0.0362
52872W        W95789  34.285  11.770   2.021  0.1151 -0.1907  0.1473
52873W        W95790  33.124  11.870   3.755 -0.0425  0.2527 -0.0425
52874W        W95791  32.930  11.147   3.963  0.0181  0.1245  0.1472
52875W        W95792   0.237  11.410   1.999  0.0452 -0.0918 -0.0004
52876W        W95793  34.124  12.362   1.273  0.1409 -0.2508 -0.1036
52877W        W95794  33.451  12.794   1.318  0.5874  0.0021  0.2968
52878W        W95795  34.324  12.400   3.579  0.1060 -0.1606 -0.2584
52879W        W95796  33.008  11.974   1.507 -0.2591 -0.1524  0.0125
52880W        W95797  33.536  13.351   1.134  0.1769 -0.1146 -0.1559
52881W        W95798  34.672  10.676   2.693 -0.0887  0.1905 -0.0686
52882W        W95799  34.639  11.609   4.020  0.3036 -0.0503  0.1857
52883W        W95800  33.591  11.942   3.558 -0.0922  0.0592 -0.0105
52884W        W95801  33.794  11.612   1.154 -0.0476 -0.0282  0.0908
52885W        W95802  33.287  11.378   0.379  0.1314  0.0334  0.0485
52886W        W95803  33.147  12.269  30.766 -0.1305  0.0927 -0.0705
52887W        W95804  31.500  12.677   2.408  0.0587  0.1125  0.2498
52888W        W95805   0.872  13.611   3.508 -0.4635  0.2042  0.0230
52889W        W95806   0.491  11.346   0.902  0.3109  0.0755  0.1931
52890W        W95807   1.375  12.892   0.289 -0.2211 -0.1328  0.0730
52891W        W95808  34.386  13.441   4.410 -0.2364  0.2972 -0.3804
52892W        W95809  34.262  11.561   2.534 -0.0031 -0.1446  0.2329
52893W        W95810  32.728  13.954   3.079 -0.2196 -0.2088 -0.3374
52894W        W95811   1.225  13.663   1.407  0.1833 -0.1716 -0.3638
52895W        W95812  31.431  14.184   4.064 -0.2545 -0.0073  0.0691
52896W        W95813  33.639  13.449   3.358 -0.1802  0.1402  0.0141
52897W        W95814   2.334  11.154   1.334  0.1812 -0.0854 -0.0833
52898W        W95815  32.572  11.670   2.376 -0.0859  0.2456 -0.1277
52899W        W95816   0.426  12.212   1.184 -0.0876  0.0105 -0.0999
52900W        W95817   0.638  11.468   2.350  0.0035  0.1286 -0.4796
52901W        W95818   0.912  12.429   1.030  0.2333  0.1103 -0.1641
52902W        W95819  33.143  13.314   3.525 -0.0042  0.0758  0.0399
52903W        W95820  32.734  13.564   3.657  0.1489 -0.1781 -0.0718
52904W        W95821  33.966  13.184   0.413 -0.0479 -0.1464 -0.0370
52905W        W95822   1.521  10.645   0.946 -0.1506  0.2903 -0.2612
52906W        W95823   0.273  13.336   1.615  0.1194  0.1920  0.1604
52907W        W95824  34.361  14.548   0.711 -0.1616  0.3857  0.1309
52908W        W95825   0.523  11.831  31.858 -0.0552 -0.1099 -0.1562
52909W        W95826   1.425  11.716   2.321 -0.1195 -0.0636 -0.0995
52910W        W95827   0.366  12.274  31.679  0.2218 -0.0200 -0.0177
52911W        W95828  33.270  12.750   2.274 -0.2533 -0.0277 -0.1634
52912W        W95829  32.888  14.150   1.920  0.3855  0.2212 -0.2901
52913W        W95830  34.434  12.245   2.162  0.1734 -0.1191  0.2658
52914W        W95831   0.421  11.858   2.082  0.0862  0.2573  0.2590
52915W        W95832  34.108  12.648   2.261 -0.2753 -0.0865  0.1732
52916W        W95833   0.034  14.819   2.562  0.2341 -0.1266  0.2525
52917W        W95834   1.137  13.227   2.240  0.1323  0.1899  0.2026
52918W        W95835   0.303  14.273   1.983 -0.0129  0.0103  0.3368
52919W        W95836  33.436  11.303   1.363  0.0721 -0.2155 -0.0559
52920W        W95837  33.085  13.703   1.756 -0.2160 -0.1356 -0.0931
52921W        W95838  33.264  12.268   2.878  0.0214 -0.1835 -0.0231
52922W        W95839  33.798  11.321   2.838 -0.1091  0.2354 -0.2534
52923W        W95840  33.755  13.036  29.910 -0.1256 -0.1042 -0.0851
52924W        W95841  32.968  11.627   0.712  0.1034 -0.0126 -0.2657
52925W        W95842  33.875  10.885   2.585 -0.2205  0.4786 -0.2963
52926W        W95843  34.230  12.152   2.626 -0.3310  0.2206 -0.1940
52927W        W95844  32.030  11.518   2.458 -0.1426  0.0341  0.0230
52928W        W95845   1.443  15.297   0.227  0.0944  0.0571  0.1092
52929W        W95846  32.520  11.394   0.988 -0.0908 -0.0546 -0.2262
52930W        W95847   0.475   9.351  31.142  0.1003  0.0192  0.0582
52931W        W95848  32.692  13.275   1.716  0.1574 -0.0026 -0.0261
52932W        W95849  33.768  15.154   0.869 -0.0260  0.1562 -0.2145
52933W        W95850  33.369  13.487  31.081  0.1281  0.0617 -0.1273
52934W        W95851  34.192  13.157   2.304  0.1966 -0.1867 -0.2180
52935W        W95852  33.577  13.042   3.665 -0.0528 -0.2961 -0.0016
52936W        W95853  33.399  12.736  30.269  0.2322 -0.4157 -0.0817
52937W        W95854  32.663  13.054   3.715 -0.0671  0.0305  0.1214
52938W        W95855  34.336  12.653   1.823  0.2238  0.2653 -0.2584
52939W        W95856   1.047  13.779   2.328  0.1940 -0.3250  0.1611
52940W        W95857   0.061  11.809  30.841 -0.1053  0.1536  0.1162
52941W        W95858  32.910  12.985   3.089  0.0400  0.1419  0.0956
52942W        W95859  33.206  11.680   1.159  0.1837  0.0394  0.0236
52943W        W95860  31.921  11.829   0.459 -0.2575 -0.1407 -0.2699
52944W        W95861  31.487  13.619   1.068  0.4122  0.1253 -0.1037
52945W        W95862   0.601  13.097   0.838  0.2700 -0.0862  0.1557
52946W        W95863   0.370  11.549   3.750 -0.0451 -0.0687  0.3750
52947W        W95864  32.027  12.427   2.343  0.1569  0.1091 -0.1563
52948W        W95865  32.549  12.905   1.166 -0.3023 -0.0396  0.1490
52949W        W95866   0.333  10.582   0.731 -0.0672 -0.3054 -0.0704
52950W        W95867  32.580  10.583   1.632 -0.1559  0.0743  0.2058
52951W        W95868  32.020   9.165  31.549 -0.0445  0.2225 -0.0418
52952W        W95869   0.792  12.256   2.533 -0.0238  0.1428  0.0428
52953W        W95870  34.368  13.071   0.860  0.1030  0.1287  0.1136
52954W        W95871  33.296  12.691   1.792 -0.0809  0.0503  0.0278
52955W        W95872   0.807  11.040   5.039  0.0081 -0.2315  0.0139
52956W        W95873  33.447  12.277   1.533 -0.2121 -0.0111 -0.0145
52957W        W95874  33.753  12.345   2.824 -0.2220  0.0154 -0.0884
52958W        W95875  34.620  13.994   4.363 -0.1092 -0.2582  0.0582
52959W        W95876   0.482  12.650   3.288  0.1269  0.1072 -0.1237
52960W        W95877  33.782  11.562   2.296 -0.1513  0.0892 -0.0597
52961W        W95878  31.979  13.900   2.475 -0.0398 -0.1378  0.0029
52962W        W95879  32.903  10.272   3.656 -0.2339 -0.2321 -0.0117
52963W        W95880  33.444  13.543   4.858 -0.0458  0.0019 -0.1782
52964W        W95881  33.499  10.411   2.442  0.1066 -0.1090 -0.1850
52965W        W95882  33.001  13.103   2.558  0.0268  0.2127 -0.1948
52966W        W95883  33.609  11.917   2.040 -0.1226  0.1552  0.1299
52967W        W95884   1.345  12.278   2.789 -0.0828  0.0548 -0.0136
52968W        W95885   0.189  13.427   0.020 -0.1506  0.0142 -0.1759
52969W        W95886   0.020  13.092   2.568  0.1381  0.0237 -0.1324
52970W        W95887  32.095  11.990   2.635 -0.1747  0.0469  0.1763
52971W        W95888  31.694  12.228   2.044 -0.3041  0.0427 -0.2731
52972W        W95889   1.300  12.180   0.896 -0.2097 -0.3294  0.0059
52973W        W95890  33.417  12.645   4.604  0.2414  0.0559  0.0362
52974W        W95891   0.114  13.829   1.809  0.1445 -0.3902  0.0208
52975W        W95892   0.007  15.312   5.472  0.0129  0.3270 -0.0237
52976W        W95893  33.795  11.678   4.606 -0.1343  0.0148 -0.0008
52977W        W95894  33.092  12.251   5.423  0.2957 -0.1086  0.2346
52978W        W95895  33.597  10.925   5.883  0.2259  0.0462  0.0636
52979W        W95896  33.501  12.180   6.437 -0.1208  0.2733 -0.0115
52980W        W95897  33.148  14.635   5.908 -0.3762 -0.2081 -0.2376
52981W        W95898  33.965  12.109   3.281 -0.3253  0.1395  0.0282
52982W        W95899  33.276  10.158   6.730  0.2892  0.0234  0.0713
52983W        W95900  32.696  13.830   4.496  0.2166 -0.0123 -0.0344
52984W        W95901  33.245  10.683   6.653 -0.2428  0.2192  0.1589
52985W        W95902  33.056  12.262   6.391 -0.1889 -0.0025 -0.0961
52986W        W95903   1.217   9.499   6.015 -0.1853 -0.0614 -0.2720
52987W        W95904  33.780  12.834   5.943  0.1317  0.1250  0.0964
52988W        W95905  34.420  10.927   5.070  0.1359  0.1414  0.0303
52989W        W95906  30.219  11.754   2.913  0.1733 -0.0118 -0.0468
52990W        W95907   0.727  12.115   6.283  0.1932  0.4174  0.2911
52991W        W95908   0.467  15.801   3.598  0.0112  0.2862 -0.1446
52992W        W95909   1.688  12.430   6.263  0.0695 -0.3129  0.2058
52993W        W95910  32.596  11.290   5.758  0.2982 -0.1763  0.1682
52994W        W95911  30.861  16.256   4.190  0.1467  0.2186 -0.1554
52995W        W95912  33.174  13.909   6.319 -0.1714 -0.2382  0.2807
52996W        W95913  32.196  12.022   6.529  0.1744 -0.2404  0.2646
52997W        W95914  32.389  13.358   4.489 -0.2218  0.0363  0.1672
52998W        W95915  30.603  14.408   8.148 -0.1025  0.0338 -0.2858
52999W        W95916  34.670  13.248   4.755 -0.0273 -0.3000  0.1600
53000W        W95917  33.060  12.845   5.652 -0.1724  0.3440  0.2375
53001W        W95918   0.244  12.280   6.462 -0.0794  0.3993 -0.0358
53002W        W95919  33.480  14.821   6.263 -0.0920 -0.2183 -0.0994
53003W        W95920   0.599  12.059   3.533 -0.0413  0.0916  0.0205
53004W        W95921  33.697   9.859   3.540  0.1705 -0.0764 -0.4388
53005W        W95922   0.893  11.371   6.852  0.0085  0.2054 -0.0570
53006W        W95923   1.075  14.130   5.225 -0.3136 -0.0918 -0.1538
53007W        W95924  33.981  10.220   3.379  0.0526 -0.1814 -0.2132
53008W        W95925  32.131  13.694   5.421 -0.1113  0.3315 -0.0991
53009W        W95926  33.805  12.965   3.264 -0.0727 -0.0066 -0.1720
53010W        W95927  33.035  13.631   5.260 -0.3616 -0.1014 -0.1232
53011W        W95928  31.203  12.796   7.738  0.0526  0.0967 -0.0539
53012W        W95929  34.388  10.870   6.622  0.3056 -0.2421 -0.1627
53013W        W95930  34.458   9.949   3.251 -0.3327 -0.0608  0.0834
53014W        W95931  31.954  12.756   5.044  0.1089  0.0231 -0.0217
53015W        W95932  33.976  12.240   6.280  0.1052  0.0989 -0.3284
53016W        W95933  34.380  10.268   3.715  0.0464 -0.1527 -0.2801
53017W        W95934   0.133  14.562   3.882  0.0528  0.1450 -0.1253
53018W        W95935  32.839  14.990   4.906 -0.1651 -0.1055 -0.0224
53019W        W95936  33.556  12.680   6.480 -0.1335  0.0221  0.0752
53020W        W95937   1.566  14.656   5.079 -0.0472  0.0713  0.0723
53021W        W95938  31.953  15.084   3.068 -0.1249  0.0069  0.3205
53022W        W95939  32.517  10.980   6.663 -0.2878 -0.1105 -0.0847
53023W        W95940  33.236  15.130   4.565  0.2718  0.0074 -0.4468
53024W        W95941  33.960  10.627   3.743  0.0283 -0.0247  0.0379
53025W        W95942   0.206  15.882   6.426 -0.2509  0.0927  0.2066
53026W        W95943  32.545  13.080   5.627  0.0576  0.0884  0.0006
53027W        W95944  34.047  12.860   3.697 -0.5530 -0.2066  0.3029
53028W        W95945  31.043  13.195   5.272  0.2845  0.0069 -0.1943
53029W        W95946  33.251  11.832   4.589  0.3829 -0.1302 -0.1274
53030W        W95947   1.068  10.894   6.845  0.0634 -0.1423  0.1108
53031W        W95948  32.685  10.586   5.836  0.2095 -0.2030  0.1034
53032W        W95949  32.927  11.357   4.618 -0.0280 -0.1117 -0.1399
53033W        W95950  32.568  13.553   2.682  0.0967  0.1133  0.0060
53034W        W95951  32.807  13.482   4.830 -0.1302  0.1750  0.0154
53035W        W95952  33.773  12.484   7.603 -0.1775 -0.2014  0.0931
53036W        W95953  32.015  12.556   4.525 -0.1010  0.2440 -0.1873
53037W        W95954  32.985  15.189   5.297  0.1212  0.1077 -0.0679
53038W        W95955  32.803  13.123   5.173 -0.2305  0.0198  0.1117
53039W        W95956   0.619  10.039   3.855  0.1548  0.3729  0.2224
53040W        W95957  32.603  13.596   5.365  0.1800 -0.0514 -0.0638
53041W        W95958  33.962  10.108   3.898  0.2451  0.1481 -0.2909
53042W        W95959  34.303  13.752   4.051  0.1913 -0.4031  0.3272
53043W        W95960  31.195  12.091   4.128  0.0184  0.1064  0.0063
53044W        W95961  31.041  11.766   3.744  0.2071 -0.0114 -0.1316
53045W        W95962  33.651  13.809   6.590 -0.2530  0.3297  0.2408
53046W        W95963  31.705  13.147   2.395 -0.3264 -0.0944  0.5372
53047W        W95964   1.543  12.400   7.409  0.1016 -0.3148 -0.1917
53048W        W95965  33.198  13.781   6.882  0.1384  0.2639  0.0779
53049W        W95966  34.100  14.437   3.646  0.0190  0.0986 -0.0386
53050W        W95967  33.296  13.426   6.464 -0.0591 -0.0237 -0.4480
53051W        W95968  31.853  12.542   5.536 -0.1823  0.0998 -0.0734
53052W        W95969   0.805  12.855   4.932 -0.1297 -0.0324  0.3758
53053W        W95970   1.142  11.261   5.479  0.4406  0.2749 -0.2057
53054W        W95971  31.739  13.234   3.102  0.0251 -0.2505 -0.2393
53055W        W95972   1.438  12.182   6.793 -0.0863  0.0290  0.0704
53056W        W95973   0.667  10.595   3.893 -0.1464  0.0665 -0.2665
53057W        W95974   1.224  11.025   4.111 -0.0176  0.0323 -0.3182
53058W        W95975   0.681  12.813   7.600  0.1312  0.3661 -0.0377
53059W        W95976  33.090  10.795   6.177  0.3998 -0.0388 -0.0351
53060W        W95977   2.001  12.150   5.874  0.1775 -0.0564 -0.2012
53061W        W95978  33.985  15.292   3.286  0.2790  0.1644  0.0451
53062W        W95979   1.569  12.425   5.697  0.1306 -0.1979 -0.0281
53063W        W95980  33.246  11.743   6.309 -0.3221  0.3982  0.0738
53064W        W95981  32.523  11.521   4.903 -0.3211  0.2465 -0.0036
53065W        W95982  34.656  13.968   3.268  0.2524  0.0432  0.2553
53066W        W95983  33.317  14.221   3.921 -0.1306 -0.1345 -0.0843
53067W        W95984  31.273  15.002   4.789 -0.2068 -0.1385  0.2979
53068W        W95985   0.453  12.206   3.057 -0.2737  0.1571  0.0518
53069W        W95986  31.453  12.698   2.925 -0.1680 -0.0729  0.0790
53070W        W95987   0.121  10.589   5.412  0.3626 -0.1211  0.2253
53071W        W95988   1.950  11.521   6.452  0.0292 -0.1376 -0.0220
53072W        W95989  31.695  14.491   5.062 -0.0463  0.0998 -0.0504
53073W        W95990   1.735  12.890   7.457 -0.2266  0.0473  0.0448
53074W        W95991  33.358  10.893   4.296  0.1046  0.1244 -0.0742
53075W        W95992  34.594  12.594   3.236 -0.1133 -0.1408  0.0260
53076W        W95993  31.710  15.002   5.831 -0.1070 -0.1424  0.1473
53077W        W95994   0.032   8.971   4.574 -0.0930  0.2357 -0.0852
53078W        W95995  32.793  14.018   5.068 -0.1765 -0.2583  0.2811
53079W        W95996  33.265  13.060   6.129 -0.0400  0.0929 -0.0057
53080W        W95997   0.555  12.575   5.804 -0.1236  0.0310 -0.0456
53081W        W95998   0.165   8.955   3.365  0.1192 -0.4342 -0.1770
53082W        W95999  34.633  11.168   5.400 -0.0591 -0.1014  0.0169
53083W        W96000  34.008  11.234   5.755  0.0162  0.0435  0.3901
53084W        W96001  32.492  13.487   6.498 -0.0291 -0.1259  0.1272
53085W        W96002  34.127  12.484   4.059  0.1528 -0.0963 -0.1849
53086W        W96003  34.071  14.216   6.116  0.2692  0.0112  0.0741
53087W        W96004  33.866  13.410   5.243 -0.1678 -0.2866  0.1738
53088W        W96005  34.040  11.938   7.152 -0.3311  0.1856 -0.0209
53089W        W96006  30.766  13.042   3.850  0.0359 -0.0930  0.2849
53090W        W96007  33.888  12.607   4.516 -0.1915 -0.2637 -0.2840
53091W        W96008  31.907  13.638   4.550 -0.1887 -0.3523  0.0283
53092W        W96009  32.955  13.344   5.671 -0.1438 -0.1994  0.0814
53093W        W96010  33.922  10.071   5.335  0.1173 -0.1406 -0.1039
53094W        W96011  32.841  11.764   5.948  0.3140 -0.1046 -0.0580
53095W        W96012  32.814  12.855   7.052 -0.0636  0.0729  0.1886
53096W        W96013  33.397  11.391   3.715  0.1297 -0.0488 -0.0231
53097W        W96014  33.807  13.917   4.923  0.2891  0.1741 -0.2441
53098W        W96015   0.684  13.445   6.121  0.2481 -0.0081  0.0007
53099W        W96016  32.747  13.027   4.601  0.1011 -0.0469 -0.0657
53100W        W96017  34.177  11.750   4.904 -0.2383  0.0103 -0.0093
53101W        W96018  31.435  12.902   4.420  0.0807  0.1759 -0.1938
53102W        W96019   1.464  10.822   6.567  0.1235  0.0191  0.0769
53103W        W96020   1.442  12.437   7.941 -0.0644  0.4111  0.2494
53104W        W96021  31.386  10.388   6.861  0.1000  0.2615  0.2381
53105W        W96022  31.464  12.757   5.290 -0.2106  0.1589  0.1549
53106W        W96023  33.635  12.133   4.715  0.0512  0.0891 -0.2920
53107W        W96024  34.558  12.557   4.382 -0.0404 -0.1100 -0.1732
53108W        W96025  31.563  12.616   4.778  0.0543  0.1909  0.0385
53109W        W96026  32.498  13.458   7.956 -0.3188  0.0851 -0.0194
53110W        W96027  33.779  12.557   5.036 -0.1343 -0.0903 -0.2206
53111W        W96028  33.207  12.231   4.924 -0.1368  0.1269 -0.1831
53112W        W96029   1.721  14.044   7.240 -0.1249  0.0105 -0.2720
53113W        W96030  34.549   9.290   5.471  0.0837 -0.1486  0.0621
53114W        W96031  34.236  13.417   5.561  0.0247  0.0454 -0.0366
53115W        W96032  34.103  13.443   6.514  0.0974  0.0335  0.0228
53116W        W96033  32.303  13.803   4.212  0.0166  0.2450 -0.2826
53117W        W96034  33.955  13.826   5.649 -0.3748  0.0349  0.3307
53118W        W96035   1.547  11.836   6.483  0.1149 -0.4775  0.1761
53119W        W96036  32.985  14.679   5.292 -0.0701 -0.0921 -0.2423
53120W        W96037  32.217  14.170   6.670 -0.1154  0.2551 -0.0529
53121W        W96038  32.615  11.638   6.850  0.0981  0.1832 -0.2387
53122W        W96039   0.776  12.153   5.738  0.0764 -0.1771 -0.1359
53123W        W96040  32.769  14.147   6.132 -0.1552  0.0347 -0.1418
53124W        W96041  33.546  14.220   5.706  0.3252  0.1700 -0.1820
53125W        W96042  34.253  13.225   3.956  0.2695 -0.1275  0.1165
53126W        W96043  34.322  10.934   3.458  0.6497  0.1159 -0.0248
53127W        W96044  32.516  14.087   5.574 -0.2106  0.1178 -0.0286
53128W        W96045  32.522  13.064   2.710  0.1812  0.1170 -0.2440
53129W        W96046  33.806  15.505   4.467  0.0401  0.0390 -0.0095
53130W        W96047  32.972  12.783   6.487  0.1604 -0.1996  0.0897
53131W        W96048   0.536  12.628   4.485  0.3848  0.2559 -0.0955
53132W        W96049  33.605  13.276   4.449  0.1507  0.2304  0.2764
53133W        W96050  33.386  13.351   7.293  0.0268  0.0126  0.3008
53134W        W96051  33.306  12.716   5.077 -0.0123  0.1811 -0.0903
53135W        W96052  34.100  11.972   5.326 -0.4286  0.2368  0.1916
53136W        W96053  34.339  13.012   1.347  0.2769 -0.0394  0.3180
53137W        W96054   0.398  13.960   4.601 -0.0080 -0.1319  0.0887
53138W        W96055  34.144  13.968   4.520 -0.1908  0.0313 -0.2822
53139W        W96056   0.324  13.836   6.298  0.0594 -0.1144 -0.0169
53140W        W96057  31.685  12.980   3.684  0.1685 -0.0611  0.0294
53141W        W96058  34.605  10.681   4.487  0.0370  0.3808  0.1092
53142W        W96059  32.564  12.418   4.414 -0.1680 -0.1290  0.0875
53143W        W96060  33.728  13.139   6.382 -0.2876  0.1324  0.2262
53144W        W96061   1.191  10.721   3.711  0.1905 -0.0335  0.1668
53145W        W96062  33.397  11.943   4.193  0.0510 -0.0324  0.1317
53146W        W96063  32.453  10.865   5.355  0.1397  0.0978  0.2344
53147W        W96064  34.509  11.211   5.954  0.0037 -0.0423 -0.3320
53148W        W96065  34.094   9.117   4.629 -0.0885 -0.1532  0.0843
53149W        W96066   2.919  13.386   1.966 -0.0400 -0.1690  0.0621
53150W        W96067  33.974  10.878   5.272 -0.0606 -0.0831  0.3953
53151W        W96068   1.260   9.668   5.016  0.1183 -0.1677 -0.1059
53152W        W96069  33.083  13.549   4.400  0.1416  0.1011 -0.3753
53153W        W96070  29.901  14.026   2.010 -0.3792  0.0901  0.1059
53154W        W96071   1.269  12.891   5.147 -0.0214 -0.0404  0.0598
53155W        W96072  34.539  13.802   5.973 -0.0763 -0.1898 -0.1313
53156W        W96073  34.570  13.653   6.573  0.0413 -0.1222 -0.0323
53157W        W96074   0.195  12.916   4.316  0.0812  0.0962 -0.1455
53158W        W96075   1.614  14.168   6.475  0.0424 -0.0873 -0.0080
53159W        W96076  33.706  13.050   4.877  0.1966  0.0792  0.0830
53160W        W96077  34.151  12.442   5.426  0.1423 -0.0308  0.3804
53161W        W96078  34.221  12.569   5.886 -0.2799 -0.2396 -0.0283
53162W        W96079  33.580  12.598   5.475  0.0028  0.0020 -0.0872
53163W        W96080  32.766  13.660   6.030 -0.3340  0.2004  0.1995
53164W        W96081  32.726  11.303   5.285 -0.2333  0.0835  0.1416
53165W        W96082  33.137  14.410   2.352 -0.2849 -0.0648  0.2700
53166W        W96083  31.241  14.409   6.828 -0.2385  0.3464 -0.0405
53167W        W96084   0.125   8.936   6.999  0.1309 -0.3420  0.0937
53168W        W96085  34.316  12.094   4.527  0.0771  0.1743 -0.1143
53169W        W96086  32.706  12.562   5.243 -0.1555 -0.0603  0.2873
53170W        W96087  32.387  12.789   4.833 -0.1741  0.0082  0.0126
53171W        W96088  32.411  11.238   4.069  0.2369  0.1496  0.0013
53172W        W96089  33.752  11.686   5.621  0.1479  0.1359  0.1160
53173W        W96090   2.873   9.052   5.310  0.1061 -0.3874  0.0410
53174W        W96091  32.306  13.235   5.073  0.2636  0.0619  0.1683
53175W        W96092   0.124  10.897   6.859  0.1083 -0.0715  0.0869
53176W        W96093   0.168  10.873   7.830  0.0098  0.3894  0.1330
53177W        W96094   0.644  10.792   4.656  0.0944 -0.1540 -0.2815
53178W        W96095  32.709  12.272   5.779 -0.0109 -0.2015 -0.0154
53179W        W96096   1.742  13.798   6.829  0.4007  0.2092 -0.0239
53180W        W96097  34.295  13.440   7.063  0.2152  0.1003 -0.0819
53181W        W96098  34.083  11.389   5.328  0.0852 -0.2390  0.0115
53182W        W96099   0.829  14.377   6.765 -0.1693 -0.0429  0.1940
53183W        W96100  34.079  11.003   6.199  0.0358  0.1232 -0.1231
53184W        W96101  34.472  12.160   5.682  0.0091  0.1240  0.4887
53185W        W96102  33.562  12.123   5.243 -0.1147  0.2550  0.0329
53186W        W96103  33.084  11.513   5.616 -0.2071 -0.1149  0.0671
53187W        W96104   0.127  10.965   6.383  0.2323  0.0016  0.1617
53188W        W96105   0.470  14.089   5.271 -0.1330  0.2539 -0.2183
53189W        W96106   0.054  13.851   5.474  0.1980  0.1109  0.0753
53190W        W96107   0.537  14.432   4.910  0.2150 -0.0366 -0.2192
53191W        W96108  33.619  10.828   4.701  0.2015 -0.2017  0.0552
53192W        W96109  32.945  13.856   4.053  0.1593 -0.1507 -0.2623
53193W        W96110  34.516  13.022   3.492 -0.1707 -0.1706  0.3485
53194W        W96111  33.754  12.219   5.786 -0.0933 -0.2256  0.0421
53195W        W96112  33.871  14.761   5.270  0.1417 -0.2329 -0.1993
53196W        W96113  29.751  14.816   8.179  0.0460 -0.1009  0.0986
53197W        W96114  33.250  11.376   7.259 -0.1475  0.0730 -0.0191
53198W        W96115  31.037  11.562   7.749  0.2872 -0.3136 -0.4122
53199W        W96116   1.117  12.598   9.296  0.1008 -0.1490 -0.0821
53200W        W96117  33.652  10.921   7.951  0.3308  0.3201  0.0277
53201W        W96118  31.560   9.535   9.300  0.2019  0.2853 -0.1714
53202W        W96119  31.789  11.302   7.014 -0.0571  0.1489  0.3808
53203W        W96120   2.504  12.751   7.037  0.2286  0.3054  0.0027
53204W        W96121  34.429   8.524   9.693 -0.0376  0.0427 -0.1927
53205W        W96122  34.180  14.039   8.351  0.0673 -0.3221  0.1448
53206W        W96123  32.711  12.732   5.998 -0.1229 -0.3309 -0.1481
53207W        W96124  32.317  11.544   7.814  0.2561  0.3415  0.1001
53208W        W96125  32.922  12.117   7.686 -0.1482 -0.1327 -0.3200
53209W        W96126  33.555  12.560   8.327  0.1498  0.0301 -0.2242
53210W        W96127   2.378  12.085   8.445  0.2290  0.0918 -0.3164
53211W        W96128  32.095  12.609   8.268  0.0961  0.3363 -0.1515
53212W        W96129  32.889  13.359   8.362 -0.1702  0.2405  0.2187
53213W        W96130   0.900  13.550   9.332 -0.0330  0.0057 -0.0710
53214W        W96131  31.514  14.886   6.505  0.0522  0.0494 -0.0666
53215W        W96132   0.840  12.461   8.545 -0.0875  0.0935 -0.0888
53216W        W96133  33.965  13.554   8.305  0.1483 -0.0236 -0.0316
53217W        W96134  32.237  12.351   8.824  0.1256  0.0156 -0.0544
53218W        W96135  32.942  13.247   7.413 -0.1809 -0.0363 -0.1043
53219W        W96136  34.219  10.576   6.199 -0.2821 -0.2418 -0.5300
53220W        W96137  34.331  11.308   8.330  0.0209 -0.2168 -0.3021
53221W        W96138  34.313  14.501   6.872 -0.1445 -0.2761 -0.0400
53222W        W96139  32.775  11.403   7.336  0.0208 -0.0829 -0.3465
53223W        W96140  30.923  15.117   8.437  0.1795  0.1227  0.2565
53224W        W96141  34.405  12.917   7.091 -0.0064 -0.1527  0.0384
53225W        W96142  33.334  10.524   5.827 -0.2522  0.1141 -0.0277
53226W        W96143  34.211   9.854   6.773 -0.0195  0.0373 -0.0379
53227W        W96144  33.375  13.321   8.511 -0.0633 -0.4675  0.1324
53228W        W96145  34.442  10.660   7.143 -0.2359  0.1021 -0.0964
53229W        W96146  34.209  12.228   7.581 -0.0167 -0.1586  0.2850
53230W        W96147  31.629  15.905   9.466  0.0700 -0.2166  0.0024
53231W        W96148  32.597  13.771   8.852  0.1449 -0.1386 -0.0110
53232W        W96149  32.145  12.870   8.720 -0.0004  0.2043 -0.1260
53233W        W96150  32.337  13.336   8.877  0.1539  0.0166 -0.1088
53234W        W96151  34.109  10.623   8.367  0.1020  0.2090 -0.0672
53235W        W96152  34.568  12.655   9.329 -0.3364 -0.1324  0.0189
53236W        W96153  32.727  11.903   6.438 -0.1964 -0.1784  0.2972
53237W        W96154  34.622  12.605   7.395 -0.0030  0.0789  0.1075
53238W        W96155   0.010  12.471   6.904 -0.1830  0.0287 -0.0085
53239W        W96156  32.386  10.057   9.479  0.1717 -0.0958 -0.1293
53240W        W96157  32.455   9.599   6.308 -0.0305  0.4597  0.1325
53241W        W96158   0.236  11.406   6.236 -0.1037  0.0065  0.0878
53242W        W96159  31.500  11.823   7.616  0.1516 -0.1518  0.2231
53243W        W96160  33.809  12.054   9.491  0.1487  0.3211 -0.0176
53244W        W96161  32.194  12.233   4.884  0.1284 -0.0155 -0.0256
53245W        W96162  33.090  13.103   9.497 -0.3906 -0.3285  0.1523
53246W        W96163   1.467  12.749   9.611 -0.0612  0.1225 -0.2473
53247W        W96164  34.457  12.202   6.175 -0.0604 -0.0452  0.0192
53248W        W96165  31.095  10.910   7.248 -0.0390  0.2066 -0.3484
53249W        W96166  32.745  12.273   8.124 -0.1131  0.1787  0.0000
53250W        W96167  31.681  11.839   7.075 -0.0364  0.2592 -0.1227
53251W        W96168  34.122  14.538   8.379 -0.2443  0.2076 -0.1986
53252W        W96169  31.847  11.902   6.174 -0.1438  0.4189 -0.0748
53253W        W96170   0.935  13.232   7.791  0.5954 -0.2616  0.2900
53254W        W96171  33.403  12.932   7.480 -0.0959 -0.2888 -0.0987
53255W        W96172  34.546  13.092   6.550 -0.4047  0.1510 -0.0865
53256W        W96173   0.160  11.136   8.287 -0.0083  0.0376  0.2306
53257W        W96174   0.242  12.937   7.163  0.3712  0.0786  0.0241
53258W        W96175  33.545  14.520   7.705  0.2122  0.2091  0.0388
53259W        W96176  33.988  13.311   5.993  0.1862  0.1022 -0.1177
53260W        W96177   1.912  11.190   9.332  0.1013  0.1067 -0.1970
53261W        W96178  33.295  14.821   8.256 -0.1293 -0.2279  0.0036
53262W        W96179  32.817  13.980   7.751  0.1469 -0.1899 -0.1122
53263W        W96180  33.390  13.057   6.829 -0.2309  0.4538 -0.2209
53264W        W96181  34.319  11.604   7.476  0.0034 -0.1230  0.1216
53265W        W96182   1.603  14.355   9.519  0.0640 -0.1351  0.2995
53266W        W96183  32.835  13.339   6.811 -0.1566 -0.0188  0.1297
53267W        W96184  34.077  11.834   6.640 -0.1708  0.0321  0.1766
53268W        W96185  33.343  13.224   9.057  0.1980  0.0224 -0.0448
53269W        W96186   0.336  11.966   7.025 -0.1230 -0.0832 -0.1809
53270W        W96187  32.325  10.896   7.859 -0.0535  0.5097  0.4348
53271W        W96188  30.986  12.069   8.828 -0.0319  0.0536 -0.2211
53272W        W96189   2.102  11.570   9.670 -0.0966  0.2287  0.1992
53273W        W96190   1.807  11.834   9.223  0.2777  0.0525 -0.0308
53274W        W96191  33.407  10.527   7.092  0.1738 -0.0507  0.1025
53275W        W96192  33.909  10.851   6.642 -0.0918  0.0309  0.0366
53276W        W96193  32.003  12.405   7.827  0.0332  0.0364 -0.0190
53277W        W96194  33.876  11.365   6.471  0.5195 -0.0824  0.0601
53278W        W96195  33.874  13.125   7.329  0.2245 -0.1308  0.3182
53279W        W96196   0.875  11.770   7.719 -0.1022 -0.2870  0.0947
53280W        W96197  34.405  11.332   6.418  0.1969  0.3011  0.1245
53281W        W96198   0.419  11.508   7.842  0.0095 -0.0404 -0.1343
53282W        W96199  34.653  12.336   7.795 -0.1750 -0.0130  0.2449
53283W        W96200  32.620  12.910   7.534  0.0604  0.0782  0.0218
53284W        W96201  32.163  12.076   8.357 -0.0148 -0.1182 -0.2005
53285W        W96202  32.542  11.848   7.377  0.0779  0.2450  0.0267
53286W        W96203   0.465  10.164   9.353 -0.2159 -0.0007  0.1813
53287W        W96204  33.128  11.722   9.552  0.0608 -0.2574 -0.0456
53288W        W96205  32.033  14.494   5.707 -0.0542 -0.2210  0.5836
53289W        W96206  31.589  14.726   7.979 -0.1000  0.1575 -0.0348
53290W        W96207   0.555  11.950   8.036 -0.1961 -0.0826 -0.1437
53291W        W96208  33.770  11.363  13.407  0.1722  0.0444  0.1714
53292W        W96209   0.396  11.797   6.549 -0.0202 -0.1889  0.1370
53293W        W96210  31.711  12.294   9.461  0.0364  0.1723 -0.3076
53294W        W96211  32.386  13.263   7.080 -0.3203 -0.0108 -0.1475
53295W        W96212  33.970  11.872   8.930 -0.1228  0.0086 -0.0266
53296W        W96213  34.253  12.873   7.605  0.4220 -0.1059 -0.2750
53297W        W96214  32.252  12.794   7.089 -0.1494 -0.0448  0.3398
53298W        W96215  33.788  13.047   8.299  0.2784  0.0080  0.2057
53299W        W96216  32.318  13.297   7.550  0.3504  0.1210 -0.1356
53300W        W96217  34.257  13.710   8.826 -0.2910  0.3141 -0.0304
53301W        W96218  34.501  10.961   8.662 -0.0258  0.1567 -0.1280
53302W        W96219  33.432  11.088   6.839 -0.0716  0.0892 -0.1433
53303W        W96220   0.223  12.212   5.943 -0.1024  0.0990  0.0810
53304W        W96221   3.253  11.822   9.045  0.0265  0.1238 -0.2790
53305W        W96222  31.790  11.739   8.492 -0.0504  0.2045 -0.2657
53306W        W96223  32.001  13.073   6.675 -0.1790  0.3242 -0.2324
53307W        W96224  31.938  14.198   9.162  0.0944 -0.0368 -0.1458
53308W        W96225  31.611  15.247   7.795  0.0410 -0.0282  0.1134
53309W        W96226  33.865  11.615   8.398  0.1996  0.1821 -0.2724
53310W        W96227  32.132  14.328   9.622  0.0041 -0.1283  0.1666
53311W        W96228  34.658  13.195   9.181 -0.2050 -0.2535  0.0452
53312W        W96229  34.179  11.599   6.068 -0.2694 -0.2348  0.0711
53313W        W96230  34.551  12.059   7.280 -0.2532  0.2658  0.1739
53314W        W96231  32.416  13.773   7.516 -0.1543 -0.1273  0.1415
53315W        W96232  33.616  11.765   6.700  0.0955  0.2818  0.0441
53316W        W96233  31.023  13.235   9.552  0.0052  0.1613 -0.1990
53317W        W96234  31.784  13.093   7.159 -0.0311 -0.1615  0.4699
53318W        W96235  32.758  12.390   7.224 -0.1303  0.1156 -0.0462
53319W        W96236   1.894  12.302   8.196  0.2700 -0.1217 -0.1282
53320W        W96237   0.123  11.549   7.423 -0.0076  0.0791 -0.0877
53321W        W96238  32.570  12.179   6.802 -0.1516  0.0589 -0.1136
53322W        W96239   1.069  13.191   7.240  0.0008  0.2805  0.0669
53323W        W96240   0.024  13.313   5.438  0.3819  0.0838 -0.4048
53324W        W96241  31.798  13.037   8.389  0.0716  0.1722  0.0857
53325W        W96242   0.348  12.076   7.521 -0.2143 -0.1394  0.0236
53326W        W96243  34.632  15.266   8.559 -0.1601  0.3847  0.2149
53327W        W96244  33.515  10.706   5.369  0.2298 -0.0130  0.0517
53328W        W96245   0.639  11.056   7.923  0.0562 -0.1365 -0.1533
53329W        W96246  34.053  12.548   7.982 -0.1257  0.1196  0.0047
53330W        W96247  33.116  12.670   8.072  0.1294  0.1214 -0.2527
53331W        W96248   0.621  11.581   7.317 -0.1909  0.2714  0.1172
53332W        W96249   0.164   9.856   8.292  0.0068 -0.0637 -0.1458
53333W        W96250  32.959  11.917   7.196 -0.3025 -0.0053  0.3357
53334W        W96251  32.599  11.056   8.760 -0.2149 -0.0441 -0.4346
53335W        W96252  32.592   9.706   8.539 -0.1081 -0.0412  0.2180
53336W        W96253  34.572  14.201   6.450  0.0973 -0.0631  0.2375
53337W        W96254   0.940  10.607   7.202 -0.0642  0.1745  0.0705
53338W        W96255  33.493  11.851   7.193 -0.1380  0.1569  0.1086
53339W        W96256  34.231  10.948   7.959  0.0069  0.1672 -0.0187
53340W        W96257  33.097  12.918   8.599  0.1536  0.2872 -0.0528
53341W        W96258   0.198  15.165   6.742 -0.0381  0.0611  0.2123
53342W        W96259   2.238  11.478   9.137 -0.0592 -0.3711  0.1985
53343W        W96260  33.278  12.535   6.048 -0.0595 -0.1597  0.1353
53344W        W96261  34.003  14.535   6.491 -0.0098 -0.0187 -0.1895
53345W        W96262  32.463  14.535   6.995  0.2666 -0.2847  0.1053
53346W        W96263   1.000  12.060   8.161 -0.0134  0.0996 -0.0299
53347W        W96264   1.603  11.881   7.814  0.0005  0.1506 -0.2021
53348W        W96265  33.709  12.284   6.864 -0.1899  0.0826 -0.1593
53349W        W96266  31.453  10.923   7.609 -0.2810  0.2725 -0.0030
53350W        W96267  31.680  15.068   5.330  0.1933  0.2332  0.2600
53351W        W96268   0.785  13.891   7.071  0.0402 -0.2333 -0.1914
53352W        W96269  32.622  10.357   7.445  0.0624 -0.4915 -0.1303
53353W        W96270  32.981  11.304   6.207  0.1439 -0.0996  0.0145
53354W        W96271  33.386  11.720   8.599  0.1448  0.2247  0.1001
53355W        W96272  33.590  11.606   9.995  0.0234  0.1300 -0.0847
53356W        W96273   1.355  11.400   6.518 -0.0117  0.2428 -0.1289
53357W        W96274  32.636  12.973   8.871 -0.0416  0.2457  0.4640
53358W        W96275  31.176  10.875   6.762 -0.3733 -0.3548  0.2022
53359W        W96276  33.942  11.387   7.925  0.2214  0.0941 -0.2867
53360W        W96277   0.005   8.218   7.627 -0.2385 -0.1665  0.2220
53361W        W96278  33.277  11.162   7.698  0.0351 -0.0228  0.0559
53362W        W96279  33.408  12.265   7.789 -0.1583 -0.2760  0.0425
53363W        W96280  33.732  11.793   6.215  0.2820 -0.1629  0.1258
53364W        W96281  33.685  12.735   7.059  0.2428  0.2770  0.1346
53365W        W96282   1.230  12.659   8.806 -0.2010 -0.3202 -0.0874
53366W        W96283  31.041   9.616   9.308  0.0587  0.0886  0.3040
53367W        W96284   0.236  12.771   8.387 -0.0305 -0.1304  0.1536
53368W        W96285  32.627  14.191   8.622  0.1110 -0.0748  0.2021
53369W        W96286  32.602  10.187   8.356 -0.1130  0.1158 -0.3985
53370W        W96287   0.336  12.847   9.176 -0.3042 -0.0914  0.0232
53371W        W96288   0.545  15.715   1.290  0.0504  0.0574 -0.0410
53372W        W96289   0.065  15.827  31.506  0.4453 -0.1494 -0.0264
53373W        W96290  33.361  14.671   0.973  0.0640 -0.0508  0.1063
53374W        W96291  34.539  14.945   4.494 -0.0069  0.1289  0.2156
53375W        W96292  34.328  15.765   2.087 -0.3264 -0.0202 -0.0808
53376W        W96293   0.139  18.859   3.119  0.0399  0.0488  0.0008
53377W        W96294   0.409  14.121   3.034 -0.0321  0.1886  0.0967
53378W        W96295  34.279  13.920   2.223 -0.2562  0.0952 -0.3183
53379W        W96296  33.427  16.699   0.787 -0.1057  0.1734  0.0707
53380W        W96297   0.753  15.592   1.785 -0.1038  0.4694 -0.0541
53381W        W96298   1.529  16.231   1.795  0.2098 -0.1732  0.1936
53382W        W96299  34.667  15.940   3.352 -0.3280  0.2624  0.1466
53383W        W96300  34.238  17.096  30.997  0.6491 -0.0077  0.4119
53384W        W96301  34.095  13.524   0.064  0.1934 -0.3086  0.1670
53385W        W96302   0.090  15.539   1.419  0.1379 -0.1143 -0.0342
53386W        W96303  33.932  16.263   2.349  0.1341 -0.2793 -0.1517
53387W        W96304  33.583  14.953   1.761 -0.0657  0.1881 -0.2011
53388W        W96305   1.254  19.128   1.664 -0.1645  0.2080 -0.1262
53389W        W96306  33.859  17.038   1.000 -0.1933 -0.0417 -0.0614
53390W        W96307  29.992  19.879   0.422  0.1610  0.1415 -0.1364
53391W        W96308   0.209  18.388   0.110  0.2243  0.0701 -0.3805
53392W        W96309   0.230  18.794   4.184  0.1949  0.0797 -0.0332
53393W        W96310  32.875  17.938  31.118  0.0242 -0.3183  0.2581
53394W        W96311   0.375  18.009   3.323  0.0922 -0.0083  0.1413
53395W        W96312  34.330  17.786   0.648  0.2430  0.1415 -0.0847
53396W        W96313  34.455  17.727  31.805 -0.3282  0.2957 -0.1109
53397W        W96314  33.401  17.476   3.391  0.3078  0.0732 -0.0216
53398W        W96315  32.417  17.133   3.401  0.0011  0.3401  0.2561
53399W        W96316  32.869  16.535  31.005  0.1193 -0.0105 -0.3934
53400W        W96317   2.658  16.609   1.128  0.1648  0.0364  0.0209
53401W        W96318   0.895  16.013   2.014  0.0741  0.0644 -0.1609
53402W        W96319  32.820  17.970   0.375  0.2756 -0.2669  0.1467
53403W        W96320  33.175  14.219   3.350 -0.0120 -0.1909 -0.0800
53404W        W96321  34.110  16.812   1.752  0.3439  0.1137  0.1403
53405W        W96322  33.894  16.794   2.877  0.1352  0.0997  0.1942
53406W        W96323   1.442  15.015   1.623  0.3324  0.0258 -0.1749
53407W        W96324  33.497  17.975   2.427 -0.0793 -0.0020 -0.1186
53408W        W96325  31.772  16.478   3.366  0.1009 -0.0064 -0.0058
53409W        W96326   0.648  15.832  31.588  0.2045 -0.0752 -0.2414
53410W        W96327  34.229  18.269   4.082 -0.1748  0.2780 -0.2296
53411W        W96328   0.119  16.286   0.693  0.0523 -0.1139  0.0727
53412W        W96329  33.817  16.893   0.486 -0.3066  0.0512  0.1500
53413W        W96330  34.552  17.392   0.195 -0.0433 -0.0520  0.1436
53414W        W96331  33.593  16.946   1.636 -0.1837 -0.1003 -0.1732
53415W        W96332  33.880  15.366   1.458 -0.1388 -0.1030  0.0683
53416W        W96333   2.727  18.126   0.833 -0.0625  0.0192 -0.0335
53417W        W96334  32.598  16.608   0.260  0.2256 -0.0258  0.0125
53418W        W96335  32.421  16.351   2.673  0.1240 -0.1042 -0.0019
53419W        W96336   0.129  17.847  31.426  0.0174 -0.2048 -0.1684
53420W        W96337  33.500  15.331   2.062  0.2283 -0.0658 -0.2128
53421W        W96338  33.422  16.911   4.279 -0.2840  0.2115  0.1045
53422W        W96339  33.594  16.407   4.114  0.2744  0.2009 -0.1230
53423W        W96340  34.248  16.154   0.885 -0.2144 -0.1041 -0.1582
53424W        W96341  34.146  14.824   3.291  0.1127 -0.1877  0.1837
53425W        W96342  34.105  15.111   2.757  0.1193 -0.1150  0.2385
53426W        W96343  31.804  15.448   1.967  0.1556  0.1751 -0.0876
53427W        W96344  32.469  15.178   2.126 -0.0539 -0.1167 -0.2743
53428W        W96345  34.274  15.116   0.093  0.3510  0.3520  0.0922
53429W        W96346   0.721  15.117   1.786  0.0375 -0.1423  0.1917
53430W        W96347  32.165  16.714   1.535  0.0330  0.2020 -0.3741
53431W        W96348  32.734  14.506   3.249 -0.1619  0.0292 -0.1691
53432W        W96349  33.693  15.176  30.560 -0.1649  0.0188  0.1463
53433W        W96350  32.232  18.351   0.370  0.1097 -0.0079  0.1982
53434W        W96351   0.522  18.957   0.683 -0.1816  0.2024 -0.4822
53435W        W96352   0.601  13.646   0.587 -0.1674 -0.0662  0.1409
53436W        W96353  33.466  16.435   2.831  0.1332  0.0681 -0.1553
53437W        W96354  32.524  14.346  31.013  0.0565  0.2047 -0.1677
53438W        W96355  33.634  15.965   0.254 -0.0166 -0.0808  0.0476
53439W        W96356  34.415  15.051   1.477  0.2563  0.3076  0.1107
53440W        W96357  34.263  16.946   0.276  0.0453 -0.0436 -0.1083
53441W        W96358  31.686  15.482   1.446  0.0465 -0.1082  0.0081
53442W        W96359  33.259  15.719   1.736  0.0906 -0.1655 -0.2969
53443W        W96360  32.974  17.069   3.950 -0.0567 -0.4122  0.3979
53444W        W96361  33.445  17.847   3.005 -0.2510  0.0892  0.1410
53445W        W96362   0.731  17.257  31.013  0.0383 -0.2335 -0.0292
53446W        W96363  33.653  16.642   1.210  0.2051 -0.0268  0.1129
53447W        W96364  33.801  17.063   3.385  0.2391 -0.3083  0.3194
53448W        W96365  33.999  14.366   2.297  0.5531  0.3642  0.1165
53449W        W96366   0.923  14.549  29.948 -0.1503 -0.1058  0.0286
53450W        W96367  32.423  16.441  31.322  0.1455  0.1426 -0.1771
53451W        W96368   1.804  14.970   0.240 -0.0297  0.0595 -0.1049
53452W        W96369  34.266  17.156  31.736 -0.1889  0.0201  0.0756
53453W        W96370   0.524  14.845   2.659  0.1028  0.1004  0.3680
53454W        W96371  34.627  16.468   3.489  0.2313 -0.0544 -0.0468
53455W        W96372  33.109  19.251   2.087 -0.2780  0.1988 -0.0654
53456W        W96373  34.275  15.214   3.677 -0.3347 -0.0698 -0.0519
53457W        W96374   0.207  18.391  31.561  0.2390  0.1532 -0.0571
53458W        W96375  33.806  17.002  31.952 -0.0406  0.0392  0.0967
53459W        W96376  33.771  14.561   4.148 -0.3775 -0.0960 -0.2186
53460W        W96377  34.356  17.113   2.505  0.0442  0.2138 -0.4464
53461W        W96378  33.094  19.527   2.563  0.0195  0.0821  0.0759
53462W        W96379  33.406  17.848  31.355  0.1981  0.0721 -0.2342
53463W        W96380  33.257  17.659  31.853 -0.2099 -0.3621  0.0793
53464W        W96381  34.354  16.005  31.865 -0.0574  0.2028 -0.5871
53465W        W96382  32.536  17.062   1.610  0.2867 -0.2302  0.1789
53466W        W96383  34.289  14.760   3.950  0.2969 -0.0250 -0.0032
53467W        W96384   0.719  15.596   2.320  0.1374 -0.0993  0.1918
53468W        W96385  31.568  19.697   1.170 -0.1329 -0.1066  0.3156
53469W        W96386  34.175  16.805   5.276  0.3304 -0.0287 -0.0354
53470W        W96387   0.699  14.061  31.661  0.1297 -0.1158 -0.4826
53471W        W96388  34.495  14.438   3.360 -0.1504 -0.0294  0.0883
53472W        W96389  34.469  17.587   2.487 -0.0220 -0.1576 -0.2398
53473W        W96390   1.418  15.106  31.115  0.0595  0.0926 -0.0664
53474W        W96391  33.922  17.362   2.459  0.2274 -0.1234  0.0614
53475W        W96392  34.191  14.879   4.945 -0.0389 -0.1244  0.0533
53476W        W96393   0.212  12.294   1.807  0.0512 -0.0212  0.0487
53477W        W96394  34.597  14.371   2.284  0.4219 -0.0033  0.1160
53478W        W96395   0.748  16.657   0.081 -0.2560  0.1919  0.3526
53479W        W96396  34.429  14.409   4.580  0.2061  0.0146  0.3492
53480W        W96397   1.386  17.225   2.222  0.0418  0.0363 -0.0975
53481W        W96398   0.095  15.989   0.223 -0.0640  0.1429 -0.2002
53482W        W96399  33.371  16.088   3.235 -0.1349  0.0002 -0.0677
53483W        W96400  33.086  16.662   2.594 -0.3088 -0.0766  0.3323
53484W        W96401  34.233  16.365   1.996 -0.0171 -0.1388 -0.0966
53485W        W96402  34.243  17.375   1.183 -0.0955  0.0850 -0.1456
53486W        W96403  33.940  19.641   2.575  0.1416  0.2427  0.1528
53487W        W96404  33.801  15.749   1.714 -0.0310 -0.0161 -0.3097
53488W        W96405  33.202  14.704   3.133 -0.0004 -0.1094  0.0313
53489W        W96406  33.450  15.070   3.427  0.1214  0.2193  0.0644
53490W        W96407  32.662  15.467   2.768 -0.3109 -0.3255  0.4744
53491W        W96408   0.157  15.692   2.252 -0.0568  0.1446 -0.0814
53492W        W96409  33.135  17.825   2.069  0.3037 -0.0321  0.0439
53493W        W96410   1.418  14.043   1.085  0.0606 -0.0993 -0.0942
53494W        W96411   0.603  17.021   2.919  0.1256  0.0249 -0.2187
53495W        W96412  34.662  16.777  30.906 -0.0166 -0.1610 -0.1275
53496W        W96413  33.085  14.808   2.646 -0.0401 -0.2335  0.1517
53497W        W96414  34.129  14.054   2.663 -0.2089  0.0129  0.3235
53498W        W96415  33.433  15.815   2.769  0.1071  0.1333  0.1779
53499W        W96416  33.637  14.235   4.497  0.0421 -0.1183  0.0646
53500W        W96417  34.373  15.853   0.473  0.0082 -0.1124 -0.2261
53501W        W96418   0.804  14.942  30.261  0.3593  0.1588 -0.1893
53502W        W96419  33.859  18.670  30.894 -0.1715 -0.0613 -0.1633
53503W        W96420  32.255  14.202   5.150 -0.0745  0.1846 -0.1316
53504W        W96421  33.618  18.212   3.843 -0.2714  0.3450 -0.2401
53505W        W96422  33.013  13.598   0.312  0.0722 -0.2448 -0.0330
53506W        W96423   0.730  16.021  31.084  0.0841  0.0931 -0.1601
53507W        W96424   0.476  17.607   0.438  0.1785  0.0852  0.0109
53508W        W96425  34.562  14.974   0.509  0.3279 -0.1157 -0.1286
53509W        W96426  33.918  15.527   3.992  0.0072  0.1884 -0.2028
53510W        W96427  33.610  16.693   2.418  0.2664  0.0659 -0.2245
53511W        W96428  31.521  15.550   3.756 -0.0313  0.1070  0.2343
53512W        W96429   1.104  17.727   0.799 -0.3684  0.1834  0.0140
53513W        W96430  34.475  16.894  31.385 -0.1462 -0.1394  0.0435
53514W        W96431   1.071  16.788   1.161  0.1837  0.0758 -0.1083
53515W        W96432   0.368  16.739   0.852 -0.0210 -0.1727  0.2320
53516W        W96433  33.686  17.100   2.113  0.1671  0.0215  0.1223
53517W        W96434   0.352  13.664   1.178 -0.0604  0.3638 -0.1380
53518W        W96435  31.831  17.415   3.725  0.0571 -0.1176 -0.4444
53519W        W96436  33.333  17.067   3.024  0.0851  0.1341  0.0885
53520W        W96437   0.408  15.092   0.521 -0.2626 -0.0711  0.0228
53521W        W96438   0.846  15.140   2.281 -0.3458  0.1443 -0.2709
53522W        W96439   1.525  17.418   0.793 -0.0825 -0.0844  0.0175
53523W        W96440  32.544  18.449   0.736  0.0195  0.3281 -0.2412
53524W        W96441  33.761  16.742  31.009  0.0585  0.3706 -0.1419
53525W        W96442  34.587  15.887   1.124  0.1798  0.1210 -0.0162
53526W        W96443   0.332  15.330  31.466  0.0568  0.0365  0.0036
53527W        W96444  33.589  16.606   3.370  0.1359  0.0734  0.2809
53528W        W96445  33.366  17.466   1.578 -0.0742  0.0244  0.0576
53529W        W96446  34.360  17.390  31.346 -0.0681  0.2976 -0.0410
53530W        W96447   0.279  16.328   1.783  0.0785 -0.2121  0.0504
53531W        W96448  33.730  17.866   0.179  0.1884  0.0570 -0.3618
53532W        W96449  34.549  16.622   1.645  0.2207  0.0467  0.4039
53533W        W96450  33.887  16.272   3.049  0.0315  0.1498  0.1889
53534W        W96451  32.844  17.143   3.136  0.3758 -0.0718  0.0553
53535W        W96452  31.603  14.768  31.778 -0.0307 -0.0042 -0.4539
53536W        W96453  33.855  15.581   2.880  0.2980 -0.0907  0.0858
53537W        W96454  33.945  14.892   1.341 -0.1978 -0.2419 -0.4181
53538W        W96455  33.417  17.195   2.556  0.0563  0.1139 -0.1010
53539W        W96456   1.135  15.411   0.720  0.0059  0.2318 -0.0103
53540W        W96457   0.674  13.716   1.545 -0.0710 -0.2156 -0.0073
53541W        W96458  34.050  16.792   2.230 -0.2805  0.2241  0.2379
53542W        W96459   0.128  13.886   2.312  0.0451  0.1164 -0.2735
53543W        W96460  32.155  14.500   2.832 -0.0294 -0.2731  0.0680
53544W        W96461  32.248  18.465  31.497  0.0175  0.1296  0.0735
53545W        W96462   0.607  15.151   1.265  0.1212  0.3866  0.3421
53546W        W96463   1.631  15.650   1.258 -0.2949 -0.0441  0.1986
53547W        W96464  34.527  14.186   3.786  0.0346  0.0343 -0.0285
53548W        W96465  33.203  17.215  31.709  0.1100  0.0744  0.2278
53549W        W96466  31.530  18.952  31.814 -0.1612 -0.3328 -0.0847
53550W        W96467   0.166  17.316   2.738 -0.0210  0.0394 -0.2021
53551W        W96468   1.735  16.923   3.867  0.1686 -0.1305  0.0690
53552W        W96469  33.708  16.560   1.977 -0.0614 -0.0996  0.1513
53553W        W96470   1.689  16.622   3.095 -0.3309  0.2476  0.0702
53554W        W96471  34.166  17.649   1.637 -0.0821  0.0542  0.1481
53555W        W96472  32.941  16.982  31.363 -0.3827  0.1370 -0.1503
53556W        W96473   1.766  15.833   2.016  0.2379 -0.0803 -0.1581
53557W        W96474   1.171  13.413   2.727  0.1721  0.2720  0.0967
53558W        W96475  33.921  15.668   5.402 -0.0829  0.3192 -0.3873
53559W        W96476  33.711  14.703  31.330 -0.1839 -0.2357  0.0982
53560W        W96477  33.934  15.786  30.485 -0.0092  0.4792 -0.3038
53561W        W96478  33.330  16.499   1.525  0.0794  0.2064 -0.1016
53562W        W96479  33.105  12.820   3.642 -0.3022 -0.1632  0.2121
53563W        W96480  33.714  14.874   3.030  0.3732  0.1705 -0.1911
53564W        W96481  33.902  14.610   0.870  0.1622  0.0958 -0.0355
53565W        W96482  34.040  14.601   2.782  0.2672 -0.2532  0.2493
53566W        W96483  33.371  16.175   1.864  0.0082  0.1404  0.1506
53567W        W96484   0.362  14.337   2.511  0.1823 -0.0639  0.2479
53568W        W96485   0.715  12.471   1.485 -0.1480  0.1859 -0.2529
53569W        W96486  33.361  16.878   0.070 -0.1104  0.1051 -0.0237
53570W        W96487   0.919  16.807   2.234  0.0151 -0.0572 -0.0450
53571W        W96488  34.633  15.831   2.869  0.0937 -0.2751 -0.2674
53572W        W96489  34.480  14.843   1.917 -0.1589 -0.1805  0.0811
53573W        W96490  34.201  15.873   2.598 -0.1434  0.2144 -0.1370
53574W        W96491   1.448  16.599   3.622 -0.0934  0.0258  0.1350
53575W        W96492   0.522  17.832   1.730 -0.1399  0.2281 -0.2555
53576W        W96493  31.308  14.372   1.769  0.0992  0.1467  0.0975
53577W        W96494   1.132  18.080   2.347  0.0700  0.0001 -0.3198
53578W        W96495  32.418  15.979   4.630  0.1707  0.1810 -0.2963
53579W        W96496   0.043  18.194   4.242  0.0132  0.0333 -0.2022
53580W        W96497   0.365  15.125   3.164  0.3682 -0.1224 -0.2242
53581W        W96498  33.915  16.244   1.589 -0.3555 -0.0523 -0.0939
53582W        W96499   0.591  14.584   0.751 -0.1641 -0.1347  0.0556
53583W        W96500  34.010  15.484   2.367  0.0898 -0.2930 -0.3126
53584W        W96501  34.043  16.548   0.050 -0.1799 -0.0500  0.1464
53585W        W96502  34.144  19.077   4.367  0.2230  0.0863  0.1866
53586W        W96503  33.703  13.847   2.968  0.2242 -0.0324 -0.0595
53587W        W96504  34.670  15.400   1.860  0.0493  0.2214 -0.1359
53588W        W96505   0.392  16.100   1.093  0.1346  0.0530  0.1427
53589W        W96506  33.581  15.633   1.004 -0.0155  0.0748  0.0656
53590W        W96507   0.467  18.684   1.972  0.3039  0.3379  0.0480
53591W        W96508  32.267  17.658   6.408 -0.0195 -0.0332  0.2420
53592W        W96509  34.210  17.994   5.084 -0.0953 -0.1695 -0.1867
53593W        W96510  32.877  15.860   4.697 -0.0326 -0.0029  0.0188
53594W        W96511  33.769  13.432   6.895 -0.1149 -0.1866 -0.1313
53595W        W96512  33.569  16.424   7.369 -0.1191  0.0140 -0.1630
53596W        W96513  34.324  18.875   6.448 -0.1767 -0.0758  0.1418
53597W        W96514   0.000  15.662   5.949  0.0269 -0.0257  0.2696
53598W        W96515  31.129  13.070   5.755  0.1436 -0.3052  0.0836
53599W        W96516  33.647  16.820   3.810  0.4056  0.0654 -0.1090
53600W        W96517  34.196  15.762   6.187 -0.2021 -0.0762 -0.1856
53601W        W96518  34.335  16.202   5.254 -0.0475 -0.1880  0.0225
53602W        W96519   0.953  15.367   7.212  0.3676 -0.1106  0.0727
53603W        W96520   0.319  17.661   2.386  0.1163 -0.2533 -0.2315
53604W        W96521  33.136  16.576   3.719  0.1326  0.1214  0.2781
53605W        W96522  33.104  16.579   7.241 -0.1493 -0.0908 -0.2387
53606W        W96523  34.585  15.133   5.969 -0.1686  0.1756  0.0207
53607W        W96524   0.568  17.714   3.735  0.0141 -0.2486  0.0243
53608W        W96525   1.864  18.907   7.240  0.2083  0.1398  0.0786
53609W        W96526  34.072  15.764   4.918  0.2932  0.2076  0.0218
53610W        W96527  33.018  19.777   5.101  0.1129 -0.2118 -0.3937
53611W        W96528   0.727  19.397   2.129 -0.1962  0.1334 -0.2680
53612W        W96529   0.424  17.269   4.646 -0.1103 -0.1808  0.2258
53613W        W96530  34.586  17.748   2.004  0.3220  0.0490 -0.2066
53614W        W96531  33.811  15.947   5.857 -0.0067 -0.0573  0.2221
53615W        W96532   1.355  17.635   1.239 -0.1603 -0.3670  0.1947
53616W        W96533   1.326  16.209   5.137  0.0805  0.0126 -0.1064
53617W        W96534   0.426  15.702   7.802 -0.0380 -0.1029 -0.3135
53618W        W96535  29.666  16.636   7.468 -0.4490 -0.0095  0.0290
53619W        W96536   1.220  17.755   5.555 -0.1519 -0.0053 -0.1075
53620W        W96537  33.304  14.756   3.774 -0.2053  0.1423 -0.1255
53621W        W96538  34.337  12.979   4.380 -0.0856  0.0223  0.1265
53622W        W96539   0.901  18.064   4.678  0.2177  0.0825 -0.1236
53623W        W96540  33.571  14.801   6.747 -0.0308  0.0631  0.2791
53624W        W96541   0.734  17.622   5.879  0.2243  0.2170  0.2902
53625W        W96542  34.421  16.516   2.482  0.2272 -0.0654 -0.0982
53626W        W96543  34.526  17.134   6.096  0.0894  0.0882 -0.2606
53627W        W96544  30.720  15.931   7.817 -0.2618 -0.3244 -0.2670
53628W        W96545  32.019  15.363   8.241  0.3059 -0.2205 -0.0630
53629W        W96546  31.625  14.857   2.627 -0.0067 -0.0075  0.1733
53630W        W96547  32.638  16.869   6.572 -0.1844 -0.1716 -0.0668
53631W        W96548   0.732  16.041   4.622 -0.1270 -0.1028 -0.0493
53632W        W96549   0.615  16.563   2.536  0.2091 -0.0266 -0.0642
53633W        W96550   0.144  16.254   2.716 -0.2058  0.0846  0.0552
53634W        W96551  32.364  19.026   5.092 -0.0033  0.2507 -0.1974
53635W        W96552  34.004  12.979   5.509  0.2747 -0.0275 -0.3250
53636W        W96553  34.186  17.984   7.438 -0.1288  0.0583  0.2445
53637W        W96554  34.650  16.125   2.134 -0.0750 -0.1067 -0.1775
53638W        W96555  33.334  18.594   4.158 -0.0252 -0.0973  0.2757
53639W        W96556  33.697  15.753   3.493  0.2351 -0.3296 -0.1806
53640W        W96557  32.390  13.908   6.273 -0.0736  0.0974  0.0874
53641W        W96558  34.440  16.979   3.684 -0.1092  0.0917  0.0066
53642W        W96559  32.049  13.956   5.877 -0.0191  0.0769 -0.2197
53643W        W96560   0.918  16.479   4.544  0.0054 -0.2164  0.0065
53644W        W96561  33.549  17.148   6.978  0.3091 -0.1053 -0.0218
53645W        W96562  33.077  15.865   3.959  0.2762  0.3472  0.0781
53646W        W96563  33.664  15.240   6.486  0.2073  0.0945  0.0829
53647W        W96564  33.734  18.086   4.300  0.2074 -0.1818 -0.0534
53648W        W96565  32.518  15.691   4.241  0.0939 -0.0843  0.0675
53649W        W96566  33.922  16.603   4.400  0.0118  0.1722  0.0097
53650W        W96567  32.368  15.973   3.706 -0.1287 -0.2116 -0.0644
53651W        W96568   0.145  14.356   6.980  0.1346 -0.2667 -0.1579
53652W        W96569  34.049  14.832   4.483 -0.2306 -0.0412  0.4410
53653W        W96570  33.358  18.946   6.137 -0.0617 -0.0870 -0.1299
53654W        W96571  32.426  17.223   5.357  0.0889  0.0248 -0.2213
53655W        W96572  33.214  15.614   3.530 -0.2064  0.1586  0.2249
53656W        W96573  32.883  18.059   5.701  0.0083 -0.6211  0.0571
53657W        W96574  34.261  15.488   5.733 -0.1116  0.0923  0.1735
53658W        W96575  32.840  18.401   3.422  0.0186  0.0369 -0.0396
53659W        W96576  33.822  16.226   4.970 -0.2453  0.0792 -0.1951
53660W        W96577   0.007  19.800   4.817 -0.0271 -0.4594 -0.2592
53661W        W96578  33.637  15.280   7.012 -0.2147 -0.1462 -0.1336
53662W        W96579  34.254  15.237   4.213 -0.1872 -0.1164  0.0285
53663W        W96580   0.299  18.074   7.994  0.0527 -0.3734  0.2366
53664W        W96581  33.438  17.153   7.846 -0.0096 -0.0921  0.1467
53665W        W96582   2.186  17.376   5.727  0.0987  0.0569 -0.1793
53666W        W96583  32.594  17.291   6.170  0.1413 -0.1484  0.2034
53667W        W96584  33.698  18.112   6.472  0.1702 -0.1447 -0.1509
53668W        W96585  33.853  14.091   3.852  0.3764  0.2253 -0.0774
53669W        W96586   0.829  17.421   1.533  0.0169  0.0681 -0.0425
53670W        W96587  32.458  16.321   3.335 -0.0323  0.0657 -0.0651
53671W        W96588  34.167  13.984   6.576  0.0057  0.1222  0.0254
53672W        W96589  31.906  16.007   4.646 -0.2377  0.0929 -0.2225
53673W        W96590   0.589  14.418   7.223  0.0098  0.3387  0.0113
53674W        W96591  33.301  18.739   8.212  0.0246  0.2274  0.0224
53675W        W96592   0.016  19.367   3.154 -0.1656  0.2194 -0.0557
53676W        W96593   0.950  13.655   7.482  0.0588  0.1803 -0.3331
53677W        W96594  31.916  17.076   6.269  0.0999 -0.0973  0.1412
53678W        W96595  34.175  19.484   3.166 -0.1962 -0.1036  0.1367
53679W        W96596  33.256  15.934   5.861 -0.1326 -0.1092  0.0915
53680W        W96597  33.822  17.848   4.781  0.3012  0.0449 -0.1804
53681W        W96598   1.568  17.735   3.004 -0.1910 -0.3201  0.0636
53682W        W96599  31.743  16.101   5.171  0.1110 -0.0329 -0.2357
53683W        W96600   0.466  18.471   4.517 -0.2311  0.0976  0.2242
53684W        W96601  33.614  14.020   3.411 -0.1858 -0.0223 -0.0806
53685W        W96602  31.342  15.905   5.348 -0.1707  0.0604 -0.0422
53686W        W96603  32.293  14.130   4.665  0.2356  0.1357 -0.1168
53687W        W96604   0.342  15.755   5.505  0.2093  0.2078  0.1933
53688W        W96605  34.416  19.307   6.910  0.2069 -0.1296 -0.0071
53689W        W96606  33.484  17.713   7.042  0.2660  0.1981  0.2685
53690W        W96607  31.705  16.490   4.792 -0.1632 -0.1502 -0.0549
53691W        W96608   0.054  16.617   4.038 -0.0295 -0.2328 -0.0036
53692W        W96609  32.798  16.329   4.699 -0.0776 -0.2759 -0.3491
53693W        W96610  34.080  16.550   3.860  0.0765  0.1405 -0.4686
53694W        W96611  33.970  18.407   5.193 -0.1198  0.1176  0.0474
53695W        W96612  34.023  16.231   7.108 -0.1224  0.1403  0.2201
53696W        W96613  34.002  16.055   4.456 -0.0009 -0.0729  0.0682
53697W        W96614   0.047  17.096   4.147 -0.0244 -0.0196 -0.2187
53698W        W96615  34.202  15.306   5.302 -0.0368  0.3256  0.2322
53699W        W96616  34.467  14.618   6.071 -0.2033 -0.0819 -0.0328
53700W        W96617  33.278  18.217   8.000  0.0560  0.2046  0.0127
53701W        W96618  32.738  16.501   2.310 -0.0166  0.0017 -0.0865
53702W        W96619  33.756  18.365   5.988  0.2963  0.1946  0.0634
53703W        W96620   0.867  16.333   3.998 -0.0780  0.2576  0.2978
53704W        W96621  34.297  14.424   5.208 -0.3492 -0.1200 -0.0643
53705W        W96622  33.535  17.116   6.505 -0.1285  0.1195 -0.2606
53706W        W96623  34.141  16.946   4.784 -0.2054  0.2524  0.1841
53707W        W96624  32.358  17.551   7.081  0.1737  0.1392  0.0624
53708W        W96625  34.009  17.125   3.890 -0.2885 -0.0092 -0.2050
53709W        W96626   0.361  14.920   6.195  0.0490  0.2489  0.0575
53710W        W96627  33.344  16.845   6.000  0.3473 -0.1912  0.2381
53711W        W96628  31.192  15.096   8.042 -0.1634  0.0891  0.1206
53712W        W96629  31.500  13.724   3.321  0.0499  0.1526 -0.1434
53713W        W96630  31.861  17.047   5.584  0.0500  0.0312  0.1724
53714W        W96631   1.958  17.827   4.488 -0.2016  0.1608  0.1962
53715W        W96632  34.095  15.149   6.094  0.2048 -0.1952 -0.2013
53716W        W96633  34.532  17.148   1.693  0.0549  0.0993 -0.1903
53717W        W96634  32.980  16.636   4.186 -0.1439  0.0214 -0.0173
53718W        W96635  32.523  14.759   7.603  0.2550 -0.0778  0.1499
53719W        W96636   0.679  14.365   6.075  0.0720 -0.3806  0.0205
53720W        W96637  32.724  16.348   6.497  0.0786 -0.1361  0.0034
53721W        W96638  32.452  17.029   7.654 -0.2759  0.1427 -0.3275
53722W        W96639  32.744  15.035   5.746  0.1312 -0.2356 -0.1338
53723W        W96640   1.987  17.870   2.540 -0.2118  0.1077  0.0143
53724W        W96641  33.129  16.690   6.507  0.1538  0.1251 -0.3160
53725W        W96642  33.518  18.268   6.972  0.1572 -0.0357 -0.0130
53726W        W96643  34.233  15.853   3.093 -0.0832 -0.0785 -0.1136
53727W        W96644  34.645  17.161   3.216 -0.0670 -0.0073  0.2769
53728W        W96645  34.327  17.490   5.222  0.3648 -0.0546 -0.1046
53729W        W96646  32.750  13.358   4.131 -0.0435  0.0055  0.1631
53730W        W96647  32.695  18.251   6.112  0.2519  0.1019 -0.2707
53731W        W96648  33.927  17.343   4.901 -0.2559 -0.1842  0.0138
53732W        W96649  32.097  16.324   5.968 -0.0912  0.2491 -0.0286
53733W        W96650  31.565  17.048   7.219  0.0538  0.2182  0.0242
53734W        W96651  34.177  15.314   4.727  0.1723  0.3361 -0.3903
53735W        W96652  33.564  17.405   4.507  0.2228 -0.1210 -0.0286
53736W        W96653  34.621  18.512   3.797  0.0472  0.1362 -0.2604
53737W        W96654  30.699  14.817   6.838  0.2664  0.2643 -0.0900
53738W        W96655   0.304  13.683   4.986  0.4055  0.1002 -0.0743
53739W        W96656  33.293  17.739   5.534  0.4760 -0.0751 -0.1336
53740W        W96657  32.168  15.828   5.724 -0.1857 -0.0430 -0.1351
53741W        W96658  32.779  17.594   5.539  0.0745  0.2076 -0.0937
53742W        W96659   0.204  13.559   4.317  0.0464  0.1084 -0.0152
53743W        W96660  33.523  18.587   5.208  0.2091  0.1436  0.0149
53744W        W96661  32.548  18.581   5.023 -0.1870 -0.2312 -0.0277
53745W        W96662  33.869  17.115   4.333  0.0649 -0.5123 -0.1863
53746W        W96663  34.608  17.204   5.605 -0.0073  0.1412 -0.0161
53747W        W96664   0.307  14.766   5.228 -0.0382 -0.4631 -0.1420
53748W        W96665  32.275  16.804   5.637  0.0293 -0.0430  0.2537
53749W        W96666   2.366  19.316   8.922  0.4422  0.0180 -0.1116
53750W        W96667  32.613  16.014   5.140 -0.0428 -0.0783  0.1486
53751W        W96668  34.059  17.958   5.997 -0.3042  0.4985  0.3691
53752W        W96669  34.304  16.842   4.225 -0.0516  0.0580  0.0297
53753W        W96670  33.628  19.185   5.753 -0.0596  0.1323  0.3357
53754W        W96671  31.745  17.589   6.364  0.0659 -0.1551  0.0116
53755W        W96672   0.941  18.092   5.735 -0.1370  0.0624 -0.2450
53756W        W96673  30.694  14.893   0.028  0.0136  0.1166  0.0589
53757W        W96674  33.671  15.433   5.995  0.0354 -0.1072  0.0097
53758W        W96675  33.692  16.767   4.836 -0.0205  0.2558 -0.0418
53759W        W96676   0.317  16.895   6.209  0.3590 -0.2043 -0.4272
53760W        W96677   0.008  16.089   3.841 -0.1093  0.2001 -0.2530
53761W        W96678  33.339  12.526   4.112 -0.1728  0.1854 -0.1072
53762W        W96679  34.404  16.840   2.902  0.2391 -0.0556  0.0435
53763W        W96680   0.655  17.627   4.963  0.0998  0.0703 -0.0879
53764W        W96681  33.000  15.183   4.052  0.0970  0.1960 -0.1184
53765W        W96682   0.182  17.366   3.674  0.0846 -0.1349  0.1317
53766W        W96683  33.486  16.487   5.271 -0.1069 -0.4710  0.0436
53767W        W96684  32.844  13.662   2.161  0.0180 -0.4036 -0.1249
53768W        W96685   0.509  17.334   4.110 -0.1307 -0.0681 -0.2428
53769W        W96686  33.037  17.502   5.998  0.2317  0.1591 -0.3334
53770W        W96687  34.402  17.882   4.546  0.1081 -0.1235  0.0843
53771W        W96688  33.004  19.714   5.634  0.2188 -0.0222 -0.2169
53772W        W96689  34.513  18.488   7.270  0.2390  0.1346  0.1075
53773W        W96690  33.757  17.774   3.694 -0.2286  0.1808  0.1566
53774W        W96691  34.319  19.513   4.597  0.0657  0.0190 -0.3322
53775W        W96692   0.139  17.609   4.306  0.1411 -0.0722  0.0765
53776W        W96693  33.549  17.639   6.190 -0.2908 -0.0657 -0.0493
53777W        W96694  34.437  15.378   3.112 -0.2946 -0.2378  0.1312
53778W        W96695  34.541  14.831   5.395  0.2303  0.3318  0.1672
53779W        W96696   0.666  16.630   7.265  0.0630  0.0690  0.1857
53780W        W96697  32.120  16.534   3.959 -0.3903  0.0980  0.1804
53781W        W96698   1.029  16.921   3.853 -0.2043 -0.1378 -0.1865
53782W        W96699  33.837  16.549   5.948 -0.1445 -0.0562  0.2600
53783W        W96700  34.294  14.803   7.447 -0.1680 -0.1152  0.2239
53784W        W96701  31.530  15.275   8.956 -0.0339 -0.4023 -0.0501
53785W        W96702  34.668  18.286   3.277  0.0132  0.0306 -0.2319
53786W        W96703  32.629  16.498   5.801 -0.0647 -0.2317  0.2527
53787W        W96704  32.532  15.484   4.914  0.3347 -0.0738 -0.3119
53788W        W96705  31.360  14.445   4.703 -0.1316  0.1099  0.2166
53789W        W96706  34.471  16.544   5.626  0.0018  0.1229 -0.0598
53790W        W96707  33.876  14.940   3.680  0.0495 -0.0926 -0.1549
53791W        W96708  34.636  15.427   7.762 -0.0385  0.3085 -0.0320
53792W        W96709  34.432  13.920   6.996  0.3076 -0.3068  0.0452
53793W        W96710  32.386  13.700   3.285  0.4394 -0.0799  0.1928
53794W        W96711  34.465  16.085   6.666 -0.2361 -0.0987  0.2547
53795W        W96712  34.308  18.383   8.343 -0.0265  0.1497 -0.2798
53796W        W96713   0.151  18.993   6.665 -0.0822 -0.0673  0.0895
53797W        W96714  33.608  14.741   4.680  0.2176  0.1759  0.1025
53798W        W96715  34.579  17.916   8.330 -0.0902  0.0772  0.2334
53799W        W96716  32.678  14.715   6.257  0.0287 -0.2217  0.2904
53800W        W96717  33.786  17.567   6.636 -0.0885 -0.2005  0.0127
53801W        W96718  32.600  16.429   3.836  0.0468  0.3077  0.0770
53802W        W96719  33.216  16.121   4.983  0.1934  0.1523 -0.1301
53803W        W96720   1.075  15.900   3.632  0.2669  0.0157  0.2205
53804W        W96721  31.737  18.037   6.670 -0.1705 -0.4378 -0.1130
53805W        W96722  33.983  16.053   3.964 -0.3650 -0.1874  0.3065
53806W        W96723  34.351  19.637   5.672  0.2375 -0.3261 -0.1891
53807W        W96724  32.056  13.061   5.772 -0.4508 -0.0332  0.1659
53808W        W96725  34.368  16.294   4.203  0.0424 -0.3373  0.1137
53809W        W96726  34.006  18.440   3.640 -0.1747  0.1400 -0.3390
53810W        W96727  33.494  14.402   5.106 -0.0139  0.0392  0.1123
53811W        W96728  33.408  19.317   6.505  0.1704  0.0213 -0.2081
53812W        W96729  32.513  15.798   8.673 -0.0230 -0.0097 -0.1604
53813W        W96730  34.233  14.994   8.412  0.0031  0.0316  0.0573
53814W        W96731  32.927  16.123   7.676 -0.1233  0.1155 -0.0354
53815W        W96732  33.856  15.267   9.167  0.0930 -0.3002  0.1400
53816W        W96733  34.017  14.495   7.785  0.2032 -0.3439 -0.0990
53817W        W96734   0.539  14.260   8.607 -0.0071  0.0729 -0.1060
53818W        W96735  33.496  16.670   6.885  0.1978 -0.2727  0.2216
53819W        W96736  32.496  15.620   9.234 -0.1819 -0.1222  0.0094
53820W        W96737  33.197  15.359   7.262 -0.3229  0.1093 -0.3072
53821W        W96738   1.143  14.057   9.456  0.1109 -0.1646 -0.0204
53822W        W96739   1.292  18.224   7.611 -0.2991 -0.3938 -0.2229
53823W        W96740  33.708  17.582   5.731  0.0684  0.1096  0.1586
53824W        W96741  32.438  15.823   7.632 -0.0762  0.2631  0.2309
53825W        W96742   0.966  13.697   8.844 -0.0866  0.0605  0.0872
53826W        W96743  33.458  17.710   7.809  0.0033  0.0550 -0.0260
53827W        W96744   0.205  17.216   9.002  0.2870  0.2927 -0.1880
53828W        W96745  31.258  16.250   8.044  0.1090 -0.0948  0.4070
53829W        W96746  32.694  19.360   8.540 -0.6473 -0.2814  0.2695
53830W        W96747  34.003  17.320   7.124 -0.0162 -0.0858 -0.0866
53831W        W96748  33.230  19.040   9.619 -0.1730 -0.3788  0.0896
53832W        W96749  34.203  18.308   5.624  0.1117 -0.2857 -0.1491
53833W        W96750   0.224  18.574   9.079 -0.0210 -0.3472 -0.1885
53834W        W96751   0.104  16.174   9.894  0.1134 -0.0153 -0.2946
53835W        W96752  31.935  16.538   7.739 -0.2589 -0.0087 -0.1253
53836W        W96753  32.132  15.822   6.215 -0.1297  0.0844 -0.2033
53837W        W96754   1.027  14.060   8.520  0.0179 -0.0824 -0.0692
53838W        W96755  33.750  18.277   8.309 -0.4411 -0.0828  0.0814
53839W        W96756  33.748  15.960   7.508 -0.0842 -0.0096  0.2348
53840W        W96757   0.312  17.530   8.101  0.1144 -0.1700  0.0511
53841W        W96758  31.465  16.735   7.990 -0.0393 -0.2121 -0.3381
53842W        W96759  31.696  14.497   8.397 -0.0124 -0.2639  0.2536
53843W        W96760  33.115  13.756   7.397 -0.1096 -0.0205  0.0841
53844W        W96761  32.958  18.770   9.123  0.0245  0.4437 -0.0000
53845W        W96762  33.734  18.164   7.681  0.1511  0.0387  0.0181
53846W        W96763  34.501  16.029   8.177 -0.2728 -0.2571 -0.2893
53847W        W96764  33.811  16.573   7.775 -0.5570 -0.0912  0.0870
53848W        W96765   0.410  19.162   5.503  0.0312 -0.0589  0.0423
53849W        W96766  31.711  17.782   9.597 -0.3032 -0.1203  0.1527
53850W        W96767  33.697  19.061   5.280  0.1605 -0.0434 -0.1832
53851W        W96768  29.950  17.866   9.782 -0.5770  0.0580  0.3193
53852W        W96769   0.448  17.892   6.233  0.2736 -0.2365  0.0493
53853W        W96770  33.620  15.792   8.653 -0.2951  0.2189  0.1255
53854W        W96771  33.414  17.800   8.303 -0.2163  0.0212  0.0381
53855W        W96772  31.764  16.251   8.255 -0.0949  0.1598  0.4887
53856W        W96773  33.431  16.257   8.467  0.0894 -0.2020  0.0848
53857W        W96774  32.736  15.224   7.390  0.2952 -0.1080 -0.0541
53858W        W96775  34.029  15.379   7.364 -0.1097 -0.1090  0.0671
53859W        W96776  34.144  15.825   8.992 -0.2323 -0.0768  0.0817
53860W        W96777  32.531  14.897   8.095  0.2113  0.5485  0.0400
53861W        W96778  33.711  13.846   8.009 -0.0424  0.0586 -0.2713
53862W        W96779  33.074  15.995   8.681  0.0532 -0.2496  0.1256
53863W        W96780  34.161  15.093  13.150 -0.0466 -0.4283  0.1341
53864W        W96781  33.579  14.300   6.198  0.1441  0.0113  0.0899
53865W        W96782  32.152  14.445   8.627 -0.0998 -0.2224 -0.1391
53866W        W96783  32.413  19.388   7.462  0.2387  0.2335 -0.1818
53867W        W96784  30.876  19.045   9.155  0.2047  0.0396 -0.0457
53868W        W96785   3.138  21.672   9.008 -0.0085  0.0308 -0.1531
53869W        W96786   0.114  18.119   7.518  0.2732  0.0953  0.0478
53870W        W96787  34.124  16.744   8.845 -0.2168 -0.1737  0.1358
53871W        W96788   3.403  14.232   9.677  0.1558 -0.1565  0.1021
53872W        W96789  33.272  16.646   7.764 -0.1920 -0.3303 -0.4116
53873W        W96790  34.544  14.683   9.108  0.1376 -0.1676  0.0136
53874W        W96791   0.751  16.626   6.281 -0.2569  0.1315 -0.0055
53875W        W96792  33.044  18.595   6.978 -0.2273 -0.1705  0.1443
53876W        W96793  33.362  14.852   7.250  0.0661  0.1400  0.0399
53877W        W96794   0.709  11.921   9.246 -0.2302 -0.1027  0.3042
53878W        W96795   0.944  19.467   8.192  0.2552 -0.2977 -0.0053
53879W        W96796  34.025  18.592   8.764  0.3621  0.0519  0.1203
53880W        W96797  34.332  16.534   7.968  0.2056  0.1666 -0.1663
53881W        W96798  33.283  13.200   8.005 -0.2004  0.2785 -0.1594
53882W        W96799  34.571  16.801   9.040 -0.1761 -0.2101 -0.0437
53883W        W96800  32.867  15.886   6.850  0.0601  0.2248  0.0547
53884W        W96801  33.025  18.082   6.961  0.0688 -0.0347 -0.1575
53885W        W96802  31.130  18.096   9.389 -0.1162  0.0319  0.1752
53886W        W96803  33.286  15.788   7.655 -0.0767 -0.1121  0.1081
53887W        W96804  32.064  14.785   7.290  0.4218 -0.3189  0.2116
53888W        W96805  33.081  13.780   8.621 -0.1286  0.1079 -0.1231
53889W        W96806   1.619  14.432   8.984  0.1203  0.2143  0.4101
53890W        W96807  29.243  15.839   8.993  0.4839 -0.1446 -0.0568
53891W        W96808  32.025  14.521   7.858  0.0918  0.3544 -0.1998
53892W        W96809   0.482  16.787   9.179 -0.0357  0.0017 -0.2664
53893W        W96810  33.600  15.413   7.585 -0.1231 -0.0585  0.1371
53894W        W96811   0.434  16.733   7.772 -0.0801 -0.1811  0.2186
53895W        W96812  34.665  17.707   7.764  0.1397 -0.1943 -0.1769
53896W        W96813  33.513  14.361   9.153 -0.1040 -0.0533 -0.1737
53897W        W96814  33.082  14.411   6.957 -0.0544 -0.0907  0.2618
53898W        W96815   1.582  15.807   8.419 -0.1032  0.3832  0.1315
53899W        W96816  33.364  17.384   7.414  0.0688  0.1058 -0.0536
53900W        W96817  32.819  16.796   6.141  0.0065  0.0287  0.0494
53901W        W96818   0.240  15.065   8.959 -0.3022  0.1307  0.1426
53902W        W96819  33.746  15.770   6.425  0.4024  0.0921  0.3141
53903W        W96820  34.139  13.010   9.253  0.1527  0.0473 -0.4923
53904W        W96821   0.154  17.567   8.592 -0.1572 -0.1933  0.0456
53905W        W96822  31.304  17.506   7.343  0.0670 -0.1651 -0.2759
53906W        W96823  34.129  17.523   7.816 -0.1886 -0.2205 -0.1647
53907W        W96824  33.311  15.828   8.153 -0.0216  0.0561  0.3726
53908W        W96825   0.549  14.053   9.557  0.0944  0.1213  0.0734
53909W        W96826  33.679  14.333   8.195  0.2620  0.2797 -0.1635
53910W        W96827   0.323  14.537   8.195 -0.1281  0.2297 -0.2291
53911W        W96828   0.602  15.331   8.174 -0.1571 -0.3171  0.0687
53912W        W96829   1.859  19.466   9.118 -0.2132  0.1681 -0.5677
53913W        W96830  32.824  15.696   7.390  0.0542  0.0118 -0.1042
53914W        W96831  33.358  16.165   9.140  0.0334 -0.2188  0.0587
53915W        W96832  29.173  14.271   9.476 -0.0750 -0.0810 -0.0027
53916W        W96833  32.863  14.772   7.223  0.1631  0.0327 -0.0409
53917W        W96834   1.885  18.795   6.757 -0.0450  0.5463 -0.3390
53918W        W96835  32.544  16.269   7.949 -0.3432  0.4409 -0.0658
53919W        W96836  31.791  15.186   6.740 -0.1984  0.3608 -0.0457
53920W        W96837   0.026  14.660   8.601 -0.3501 -0.0031  0.1352
53921W        W96838   1.486  16.345   8.274  0.4392  0.3062 -0.0295
53922W        W96839   0.191  13.066   8.767 -0.3857 -0.1635 -0.1185
53923W        W96840  33.075  17.052   8.262 -0.0428 -0.4801  0.1151
53924W        W96841  34.500  15.714   8.593  0.0097  0.0998  0.0904
53925W        W96842   0.249  19.267   8.879 -0.0042 -0.2207 -0.0837
53926W        W96843   1.149  15.516   8.774  0.0789  0.0410 -0.2123
53927W        W96844  32.660  17.479   9.018  0.3633 -0.1517 -0.1487
53928W        W96845  34.407  17.080   7.946  0.0867  0.2909  0.0119
53929W        W96846  33.435  13.623   7.713 -0.0199  0.1333 -0.3847
53930W        W96847  32.600  16.287   8.486  0.0688  0.0741 -0.0202
53931W        W96848   0.032  18.314   8.637  0.3685  0.0382  0.1330
53932W        W96849  34.229  14.008   7.852  0.0482 -0.1437 -0.1094
53933W        W96850  32.817  18.269   8.688 -0.0049 -0.3626  0.1431
53934W        W96851  32.359  17.074   8.937 -0.0514  0.0113  0.3460
53935W        W96852  34.269  15.752   7.662 -0.0402 -0.0238 -0.3541
53936W        W96853   0.645  14.728   8.945  0.2473  0.0563 -0.1221
53937W        W96854  32.346  15.096   6.999  0.1258  0.1898 -0.0567
53938W        W96855  34.492  15.332   7.169 -0.0157 -0.1752  0.0878
53939W        W96856  34.353  14.998   7.884  0.5196 -0.1584 -0.1987
53940W        W96857   0.417  18.740   5.735 -0.1513  0.1454 -0.1461
53941W        W96858   0.001  20.053   8.847  0.0325 -0.1508 -0.3394
53942W        W96859  30.184  12.320   9.288  0.2049  0.0027  0.2586
53943W        W96860   3.099  19.709   8.451 -0.0139  0.2077  0.0581
53944W        W96861  31.072  16.429   9.042 -0.4963 -0.0810  0.1753
53945W        W96862  30.862  15.951   8.855 -0.1548  0.2246  0.2291
53946W        W96863  33.886  16.825   7.193 -0.2015 -0.0300 -0.0365
53947W        W96864  34.083  14.903   7.019  0.0428  0.2103  0.1487
53948W        W96865  32.679  16.164   7.238  0.0292 -0.1473 -0.0788
53949W        W96866  34.671  14.139   8.455 -0.0282  0.1283  0.1669
53950W        W96867   0.148  17.244   7.644  0.1730  0.1472  0.0770
53951W        W96868   0.693  14.812  13.023  0.0668  0.1693 -0.0596
53952W        W96869  33.642  13.899   8.516  0.0431 -0.0432  0.2584
53953W        W96870  34.195  15.277   8.785  0.0014 -0.1003 -0.0024
53954W        W96871  31.107  14.861   8.916 -0.1251  0.1678 -0.1933
53955W        W96872   1.229  14.619   6.719  0.1871 -0.0981 -0.3696
53956W        W96873   0.174  15.596   8.209  0.1068  0.1317 -0.0454
53957W        W96874  31.422  17.623   6.796 -0.0310  0.1917  0.0698
53958W        W96875   1.595  18.366   6.653 -0.0363  0.1704 -0.1508
53959W        W96876   1.384  17.242   7.778 -0.0833  0.0536  0.1363
53960W        W96877  33.763  15.188   5.542  0.1307  0.0268 -0.1936
53961W        W96878   0.336  18.542   7.290  0.0377  0.2147  0.3587
53962W        W96879   1.636  17.143   7.372 -0.0866 -0.0996  0.0850
53963W        W96880   0.520  16.229   9.353 -0.0421  0.0238 -0.1563
53964W        W96881  30.804  15.370   9.756 -0.1219 -0.0445 -0.1028
53965W        W96882   2.551  18.537   9.444 -0.1506 -0.0816 -0.2887
53966W        W96883  33.119  16.274   6.815 -0.2325 -0.1927 -0.0607
53967W        W96884  32.809  17.822   6.330  0.1324  0.0850  0.1436
53968W        W96885  33.447  14.998   7.820  0.0901 -0.1037 -0.2601
53969W        W96886  32.076  18.989   8.840  0.1962  0.0703 -0.0935
53970W        W96887   0.110  14.813   7.462  0.0974 -0.3026 -0.4203
53971W        W96888  32.659  12.672   8.362  0.4693 -0.2447 -0.3176
53972W        W96889   0.812  15.852   9.615  0.2971  0.2011  0.0036
53973W        W96890   0.601  13.360   8.957  0.0537 -0.0007 -0.0254
53974W        W96891  32.966  16.617   8.476  0.2454  0.0089 -0.1716
53975W        W96892  33.416  14.103   7.210 -0.0398  0.0188  0.0767
53976W        W96893  33.607  12.338   9.001 -0.1491 -0.0251 -0.2416
53977W        W96894  33.775  13.244   7.771  0.0396  0.1865 -0.4108
53978W        W96895  32.484  14.685   9.455 -0.0540 -0.0207 -0.0157
53979W        W96896  31.599  16.188   8.914 -0.0349 -0.0221  0.3909
53980W        W96897   0.643  14.886   7.960  0.0751 -0.3755 -0.1336
53981W        W96898  33.747  14.475   7.243  0.1594  0.3422  0.0453
53982W        W96899  33.584  16.791   8.824 -0.0558 -0.0870 -0.0446
53983W        W96900  33.809  12.161   8.025 -0.0007 -0.1457 -0.0277
53984W        W96901   1.094  17.321   7.408 -0.0141 -0.3011  0.1040
53985W        W96902  33.811  14.358   8.694 -0.2146 -0.0246  0.0373
53986W        W96903   0.426  14.961   8.519 -0.2064 -0.0807  0.1393
53987W        W96904  33.509  16.788   8.286 -0.3129  0.0376 -0.0542
53988W        W96905  34.537  21.962   2.542  0.3353 -0.2224  0.0539
53989W        W96906  32.078  18.519   0.796  0.2333 -0.0055 -0.0820
53990W        W96907  32.660  18.052   1.108  0.1249 -0.2539  0.0114
53991W        W96908  32.366  17.421   3.029  0.2450  0.1159  0.1406
53992W        W96909  33.278  19.068   2.740  0.0119  0.1054  0.1588
53993W        W96910  34.006  19.001   2.287 -0.1329  0.2447  0.0788
53994W        W96911  34.537  18.408  31.265 -0.0017 -0.3499 -0.0524
53995W        W96912  33.895  17.822   3.206 -0.3019  0.1219  0.0631
53996W        W96913  33.269  21.412   0.518  0.2149  0.3198 -0.0452
53997W        W96914  31.688  19.449   3.943  0.1471 -0.1786 -0.0217
53998W        W96915  33.786  18.384   1.545 -0.0035 -0.2577  0.2181
53999W        W96916  33.035  20.504   2.392  0.1536 -0.4087  0.2197
54000W        W96917   2.170  20.132   1.825  0.5431 -0.1557 -0.1569
54001W        W96918  31.257  19.819  30.786 -0.1203  0.0173  0.1681
54002W        W96919  33.350  19.987   1.653 -0.2891 -0.1125  0.1304
54003W        W96920  33.018  18.730   3.792 -0.0207  0.2737 -0.1427
54004W        W96921   0.780  23.075   0.831 -0.2525 -0.0686  0.1672
54005W        W96922  33.584  21.647   2.160  0.2738 -0.1853 -0.0744
54006W        W96923  33.429  19.704   2.124 -0.1400  0.1138  0.2555
54007W        W96924  33.714  22.219   2.512  0.2388 -0.1767  0.2252
54008W        W96925  33.959  21.276   3.130 -0.0938 -0.3152  0.2401
54009W        W96926   0.641  21.281   2.517  0.0683  0.2343  0.2998
54010W        W96927  33.437  20.191   0.127 -0.1410 -0.0093 -0.1837
54011W        W96928  33.245  21.206   4.922  0.1285  0.1892  0.1095
54012W        W96929  33.981  21.845   1.832 -0.0845 -0.2353 -0.2617
54013W        W96930   0.073  20.495   0.382 -0.0493  0.2271 -0.2370
54014W        W96931  32.209  20.520   2.669  0.2684  0.2564  0.0582
54015W        W96932  31.529  21.263   0.078  0.2890  0.0159  0.0188
54016W        W96933   0.087  22.200   0.160  0.1204 -0.2720  0.5665
54017W        W96934  33.460  17.174   0.721  0.4396 -0.3480 -0.3726
54018W        W96935   0.054  18.527   2.265  0.0303 -0.2780 -0.4051
54019W        W96936  32.221  20.687   3.230  0.1932  0.1580 -0.1192
54020W        W96937   0.569  19.315   2.566  0.4154 -0.0705  0.1891
54021W        W96938  33.779  21.081   3.507 -0.2847  0.1605 -0.1285
54022W        W96939  33.322  15.925   0.659 -0.1448 -0.1142  0.0685
54023W        W96940  32.852  16.004   0.720 -0.0601  0.0545  0.0582
54024W        W96941  33.852  20.359   4.170  0.1766  0.1659 -0.3467
54025W        W96942  33.122  18.492   1.488  0.0940 -0.0340  0.4013
54026W        W96943  33.896  17.724  31.131 -0.1890  0.1085  0.0903
54027W        W96944  32.951  21.477   2.549  0.1295  0.1074  0.0847
54028W        W96945  33.818  21.386   0.670  0.0808 -0.1805  0.0193
54029W        W96946  33.588  20.388  31.559  0.0460 -0.2402  0.1270
54030W        W96947   0.097  17.006   1.256 -0.1835  0.2367  0.0084
54031W        W96948  31.692  21.051   2.283 -0.0938 -0.1416 -0.1201
54032W        W96949   1.241  18.097   3.203 -0.0242  0.1808 -0.1105
54033W        W96950  34.541  20.560   2.301  0.1403 -0.0362  0.1298
54034W        W96951  32.469  20.624   1.820 -0.1087 -0.4513  0.0097
54035W        W96952  32.792  21.311   3.151 -0.0621 -0.0250  0.0309
54036W        W96953  34.093  19.919  31.054 -0.0689 -0.2027 -0.0730
54037W        W96954  32.782  18.945   3.271  0.1747 -0.0333 -0.0062
54038W        W96955   0.124  19.216   2.676 -0.0214  0.0377  0.0458
54039W        W96956  34.311  15.718   4.289 -0.2327  0.3206  0.2268
54040W        W96957  33.335  20.475  31.075  0.0606 -0.1603  0.2412
54041W        W96958  33.717  20.062   2.434  0.1011 -0.1288 -0.0102
54042W        W96959  32.952  19.767   1.771 -0.0256 -0.5103  0.0189
54043W        W96960   1.472  18.140   2.760 -0.1435 -0.1464  0.1565
54044W        W96961  33.129  17.919   3.380  0.0288  0.0770 -0.0618
54045W        W96962  31.346  18.019  31.504  0.1092 -0.1226 -0.1540
54046W        W96963  33.446  20.335   2.096 -0.0353  0.0321 -0.1081
54047W        W96964  33.615  19.596   0.248  0.0257  0.1680 -0.1366
54048W        W96965   0.177  17.825   2.794 -0.2437  0.3686  0.2607
54049W        W96966  31.554  17.187   0.507 -0.1848  0.2364 -0.1929
54050W        W96967  33.413  23.770   1.221  0.0981 -0.0239  0.0696
54051W        W96968  33.807  18.412   1.008  0.0727  0.1759  0.1949
54052W        W96969  33.194  17.302   2.097  0.2673  0.0392 -0.0437
54053W        W96970  33.532  20.676   3.266  0.3899  0.0321  0.1815
54054W        W96971  30.541  18.882  30.697 -0.0239  0.1345 -0.0720
54055W        W96972   0.117  19.250   0.864  0.0270 -0.6137  0.2139
54056W        W96973  31.000  19.000   0.194  0.5417  0.0463 -0.5323
54057W        W96974   0.705  22.540  31.644 -0.1594  0.3129  0.2350
54058W        W96975  31.710  19.165   4.339  0.0141 -0.1161  0.0026
54059W        W96976  33.438  18.803  31.877  0.1370 -0.0407  0.1061
54060W        W96977  34.622  22.705   2.969 -0.0793  0.1985  0.1309
54061W        W96978  33.225  21.114   3.673  0.0019  0.0075  0.0150
54062W        W96979   0.652  19.781   0.127 -0.0572 -0.1930  0.3602
54063W        W96980   0.411  21.408   3.482 -0.1475 -0.0935 -0.0686
54064W        W96981  32.966  21.592   4.511 -0.0447 -0.5455 -0.2829
54065W        W96982   0.060  20.285   2.997  0.1282 -0.3117 -0.0012
54066W        W96983  34.099  19.481   0.053  0.0346  0.0543 -0.1699
54067W        W96984  32.776  21.924   1.227  0.0864 -0.2227 -0.4430
54068W        W96985  33.188  17.443   4.240 -0.3949 -0.0421 -0.3154
54069W        W96986  33.317  19.610  31.809 -0.0931 -0.0780 -0.1252
54070W        W96987   1.230  18.926  30.905  0.0586 -0.1036 -0.0346
54071W        W96988  33.824  19.249   1.411  0.1424 -0.1934  0.0950
54072W        W96989   0.241  21.873   3.498  0.0225  0.0856 -0.2271
54073W        W96990   1.828  18.458   1.876 -0.2181 -0.0627 -0.2697
54074W        W96991  34.087  22.278   0.833 -0.0093  0.0297  0.0716
54075W        W96992   0.752  20.159   0.959 -0.1980 -0.3239 -0.0357
54076W        W96993  33.713  17.849   1.512  0.0256 -0.1671  0.1423
54077W        W96994  33.370  19.466   1.632  0.4322  0.0405  0.0800
54078W        W96995  34.620  20.846  30.176 -0.1880 -0.1206 -0.3312
54079W        W96996  32.908  17.764   0.789  0.1256 -0.0551 -0.0118
54080W        W96997  30.506  21.361   1.571  0.1694  0.0870 -0.0252
54081W        W96998  33.544  19.396   2.486  0.1401  0.1952  0.2113
54082W        W96999  31.744  19.435   2.120 -0.1586 -0.0184  0.0545
54083W        W97000  32.958  17.202   0.839  0.1152  0.0698  0.1640
54084W        W97001  33.582  18.753   1.332  0.0642 -0.0578 -0.3053
54085W        W97002  31.687  20.577   2.393 -0.1399 -0.2191  0.0567
54086W        W97003  34.658  20.318   3.551 -0.1119 -0.1984  0.1868
54087W        W97004  33.932  17.814  30.579 -0.3726  0.0627 -0.0114
54088W        W97005  32.653  18.729   1.536  0.0094 -0.3773  0.0210
54089W        W97006  33.501  19.056   0.501  0.1734  0.1087  0.1907
54090W        W97007   1.022  20.584   1.014 -0.1173  0.0676 -0.1628
54091W        W97008  33.382  21.591  31.837 -0.2910  0.0379 -0.5319
54092W        W97009   0.690  17.468   2.763 -0.0485 -0.2362 -0.0939
54093W        W97010  31.627  18.230   2.101 -0.1089  0.0840 -0.2174
54094W        W97011  30.916  19.817  31.153 -0.0203  0.0581  0.1824
54095W        W97012  32.795  18.373   1.880 -0.0907  0.1969 -0.3016
54096W        W97013   1.705  20.029   3.692  0.2635 -0.3566  0.2176
54097W        W97014  34.646  20.095   2.531 -0.1232  0.1379  0.1892
54098W        W97015  34.015  15.890   1.286 -0.0678 -0.2776  0.1629
54099W        W97016  32.601  22.405   2.164 -0.0600 -0.0949 -0.0904
54100W        W97017   0.252  20.980   0.511 -0.3117 -0.2803 -0.1037
54101W        W97018  34.195  18.648   2.010  0.3283 -0.0814 -0.1625
54102W        W97019  33.556  21.485   3.548  0.2064  0.0929 -0.0256
54103W        W97020  33.158  19.265   0.185  0.1035 -0.1909 -0.1696
54104W        W97021  33.065  22.161   1.579 -0.2405  0.0299  0.0910
54105W        W97022  33.681  17.418  31.701 -0.0276  0.1516  0.0688
54106W        W97023  33.354  18.217   0.063 -0.0351 -0.0484 -0.0739
54107W        W97024  33.265  18.499   3.110 -0.0502 -0.2898 -0.0199
54108W        W97025  34.491  20.687   3.844 -0.0562  0.1454 -0.0380
54109W        W97026  32.686  19.987   0.047 -0.0063 -0.0324  0.1526
54110W        W97027  33.871  20.608   2.484 -0.0768 -0.1851  0.1570
54111W        W97028   0.430  18.912   1.232  0.0018  0.1636 -0.0191
54112W        W97029  34.153  17.917   1.182 -0.0451  0.0007 -0.1972
54113W        W97030  34.620  18.865   1.335  0.2739 -0.2057 -0.0689
54114W        W97031  31.944  20.864   3.622  0.1045  0.0234 -0.0109
54115W        W97032  33.959  17.807   2.711 -0.1250  0.1933  0.0158
54116W        W97033   0.065  18.584   1.747  0.3223  0.0032  0.0741
54117W        W97034  34.474  18.883   2.518  0.3385  0.2108 -0.0457
54118W        W97035  32.960  20.125   1.321 -0.1188 -0.2341  0.0713
54119W        W97036  34.437  18.755   0.725  0.0140 -0.2349  0.1796
54120W        W97037  34.040  21.577   1.069  0.0307 -0.0358 -0.1048
54121W        W97038  32.253  21.563   2.350  0.1529  0.0996 -0.0842
54122W        W97039  34.050  23.830   3.796 -0.3910 -0.3670 -0.2455
54123W        W97040  33.068  19.136  31.619 -0.1013 -0.1025  0.1942
54124W        W97041   0.412  17.968  30.193 -0.2141 -0.4950 -0.2845
54125W        W97042  34.290  20.499   1.738  0.0674  0.1063 -0.1991
54126W        W97043  34.282  18.530   1.131  0.1573 -0.1680  0.2776
54127W        W97044  32.292  20.859  30.679  0.1111 -0.3049  0.4450
54128W        W97045   1.231  22.829   1.827 -0.1927 -0.0442 -0.2925
54129W        W97046  33.090  20.481   3.062  0.1097 -0.0889 -0.2809
54130W        W97047  32.418  20.175   1.093  0.1576 -0.0162 -0.0328
54131W        W97048  33.243  21.427   1.457 -0.2167  0.1054 -0.2563
54132W        W97049  34.494  21.770   0.940  0.2229  0.4641 -0.0116
54133W        W97050  33.706  22.002   0.967 -0.1499  0.0911  0.0359
54134W        W97051  32.537  19.574   1.086  0.1013  0.0824  0.0121
54135W        W97052  33.842  20.008   1.046  0.0342  0.1401  0.0563
54136W        W97053  32.951  22.025   3.908 -0.0543 -0.3551  0.0421
54137W        W97054  32.117  22.871   2.512  0.0720 -0.0890  0.1522
54138W        W97055  33.134  20.927   1.223  0.1628 -0.0228  0.1776
54139W        W97056  32.563  20.980   1.133 -0.2124 -0.0479 -0.0646
54140W        W97057  32.267  21.526   1.847 -0.3116 -0.0098 -0.1442
54141W        W97058  31.730  20.326  31.411 -0.0471  0.0926 -0.2468
54142W        W97059  32.153  20.404   1.538 -0.0994  0.0988 -0.3330
54143W        W97060   2.330  20.690   0.706 -0.0560  0.3034 -0.2356
54144W        W97061   0.541  18.027   0.194  0.0013  0.0286  0.0704
54145W        W97062  34.392  18.022   2.905  0.0828  0.0379 -0.0931
54146W        W97063  32.562  23.185   2.863 -0.2279 -0.0629 -0.1247
54147W        W97064  31.345  19.497  30.350  0.3535 -0.0876  0.1513
54148W        W97065  33.739  17.956   0.894  0.2675  0.0854  0.1407
54149W        W97066  33.685  22.256   0.447  0.0888  0.0557 -0.0275
54150W        W97067  34.162  21.973   1.350 -0.1203 -0.3162  0.1682
54151W        W97068  33.846  21.562   2.636  0.1720 -0.1376 -0.0764
54152W        W97069  34.044  21.029   0.432  0.0090  0.2425 -0.2726
54153W        W97070  31.687  18.068   0.243 -0.2192 -0.1780  0.3356
54154W        W97071  32.864  18.931   0.666  0.1888 -0.2729  0.0251
54155W        W97072  34.229  19.514   1.865 -0.1854 -0.4025 -0.2276
54156W        W97073  33.787  19.134   2.874  0.2620  0.1908 -0.2557
54157W        W97074   0.989  20.228  31.890 -0.4732 -0.3054  0.1747
54158W        W97075  32.196  17.640  31.566 -0.0210 -0.1718  0.2850
54159W        W97076  32.828  19.141   1.183  0.1713  0.1233 -0.1831
54160W        W97077   0.632  19.146  31.516 -0.2012 -0.2388 -0.1940
54161W        W97078   0.422  18.753   2.571  0.0095  0.0881 -0.1876
54162W        W97079  31.572  19.266   0.730  0.0125  0.1938 -0.2204
54163W        W97080   0.219  15.888  30.856 -0.3009 -0.0258  0.0273
54164W        W97081  32.572  18.925  31.525  0.0787 -0.0692 -0.3423
54165W        W97082  32.963  19.453   0.780 -0.0457  0.0583  0.0441
54166W        W97083  33.378  20.885   2.322  0.1002 -0.0273 -0.0684
54167W        W97084  33.888  20.650   0.790 -0.1730  0.0895 -0.3100
54168W        W97085  33.280  19.991   3.193 -0.0229  0.1360 -0.1374
54169W        W97086  33.095  20.128  30.758 -0.1663 -0.2140 -0.1704
54170W        W97087  34.259  21.703   2.974  0.1673  0.0938 -0.1266
54171W        W97088  30.985  21.012   0.996  0.3323 -0.0150 -0.0269
54172W        W97089  33.572  22.899   1.407  0.0160  0.0108  0.3093
54173W        W97090   0.671  19.878   1.388 -0.0639  0.0593  0.0009
54174W        W97091  32.270  19.819   0.728  0.2420 -0.0265  0.2017
54175W        W97092  33.211  18.535   2.529  0.0127 -0.0758  0.0165
54176W        W97093  34.390  20.592  31.008 -0.0946 -0.0697 -0.4789
54177W        W97094  31.938  18.624  30.996 -0.0673 -0.0466 -0.0899
54178W        W97095  34.174  21.341   3.763  0.2424 -0.1991  0.0717
54179W        W97096   1.940  18.267   2.793  0.1886  0.1314 -0.1022
54180W        W97097  33.743  17.373   2.950  0.0903  0.1493 -0.3920
54181W        W97098  32.530  20.826   2.313 -0.0624 -0.2615  0.0158
54182W        W97099  32.304  18.980   1.866  0.0940 -0.0701  0.0745
54183W        W97100  33.100  16.956   1.619  0.2120 -0.0979 -0.1302
54184W        W97101  32.802  17.507   3.551  0.2199 -0.0667 -0.0450
54185W        W97102  33.161  19.776   0.343  0.0976 -0.1819  0.0615
54186W        W97103  31.528  19.331   0.199  0.1079 -0.4293  0.2465
54187W        W97104   0.680  19.794   2.561 -0.1235 -0.0245  0.2319
54188W        W97105   0.086  18.373   1.318  0.0286 -0.2195 -0.0317
54189W        W97106  31.670  16.763  31.728 -0.1019 -0.2413 -0.0325
54190W        W97107  33.173  17.769   3.844 -0.3085  0.1811  0.2642
54191W        W97108  33.454  19.751   1.233 -0.0243 -0.1346 -0.1977
54192W        W97109  32.237  22.870   1.500  0.1911 -0.1177 -0.0543
54193W        W97110  31.559  19.762   2.767 -0.1594  0.2053  0.0067
54194W        W97111  34.374  19.829   2.239  0.1883  0.3539  0.1629
54195W        W97112  33.776  19.973   1.952 -0.2890  0.1695  0.0415
54196W        W97113   0.125  19.528   1.898 -0.0946  0.2789  0.0895
54197W        W97114   0.844  17.624   0.073  0.0575  0.0265  0.0516
54198W        W97115   1.218  18.616   2.482 -0.1363  0.2517  0.1318
54199W        W97116  33.192  20.647   0.128 -0.2485  0.0793 -0.3282
54200W        W97117   1.268  20.646   2.362  0.2281  0.2451 -0.0095
54201W        W97118   0.468  18.952  30.101  0.0204  0.1743 -0.3005
54202W        W97119  33.197  21.292   2.089 -0.1251  0.1838 -0.0590
54203W        W97120  33.542  17.337   3.927  0.0524  0.2519  0.0948
54204W        W97121   0.006  20.903  30.700 -0.2898 -0.1454  0.4314
54205W        W97122  33.504  21.009   0.848 -0.0047 -0.0135 -0.0761
54206W        W97123  32.820  18.193   2.307 -0.2560 -0.1783 -0.0352
54207W        W97124  34.175  22.893   3.439  0.1739 -0.4175  0.0311
54208W        W97125   0.219  21.059   6.961 -0.1161  0.0644  0.0425
54209W        W97126  33.316  19.395   4.302  0.1747 -0.0101 -0.0660
54210W        W97127  33.236  19.386   5.283  0.1092 -0.0285 -0.2572
54211W        W97128  33.351  17.989   5.926  0.2502 -0.1022 -0.0828
54212W        W97129  33.255  19.517   6.083  0.1753  0.2012 -0.0631
54213W        W97130  32.354  21.137   3.451 -0.0385  0.3226  0.0042
54214W        W97131  34.648  17.485   4.844  0.0531 -0.1341 -0.1657
54215W        W97132  32.617  18.809   4.073 -0.1316 -0.2753  0.1406
54216W        W97133   0.254  19.094   2.208 -0.2707  0.2293 -0.0276
54217W        W97134   1.802  19.406   5.384  0.0458  0.0055 -0.1538
54218W        W97135   0.898  18.133   3.718  0.0904 -0.2572 -0.4609
54219W        W97136  34.325  20.585   7.567  0.1518 -0.1007 -0.1389
54220W        W97137  34.080  22.783   4.992 -0.3531  0.0833 -0.1733
54221W        W97138  32.572  19.620   3.859  0.0106  0.0477 -0.2870
54222W        W97139  32.740  19.247   6.347  0.1103  0.1052  0.0518
54223W        W97140  33.308  20.289   4.471  0.1505 -0.0155 -0.0832
54224W        W97141  34.207  22.873   4.498 -0.0365 -0.1576  0.2840
54225W        W97142   0.241  22.585   3.909 -0.0251  0.2707 -0.1506
54226W        W97143  31.865  23.554   6.859 -0.0381 -0.2733  0.0580
54227W        W97144  32.796  20.428   5.427 -0.1116  0.3952 -0.0973
54228W        W97145   0.587  19.309   4.039 -0.0586 -0.1139 -0.1696
54229W        W97146  33.537  23.000   6.970 -0.1245  0.0877 -0.0362
54230W        W97147  33.109  20.955   5.924  0.1533  0.0751  0.2012
54231W        W97148   1.075  21.810   8.594  0.1554  0.2395 -0.0892
54232W        W97149   0.298  22.821   3.391  0.3460  0.0147 -0.0760
54233W        W97150  34.166  20.361   5.047  0.0304 -0.2012 -0.1447
54234W        W97151   0.932  20.538   6.260  0.2842  0.2212 -0.1219
54235W        W97152  33.539  20.668   3.828 -0.2984 -0.0433  0.1979
54236W        W97153  33.668  22.995   3.781  0.0653  0.0977 -0.2473
54237W        W97154  34.248  17.997   3.647 -0.0873 -0.0152 -0.3130
54238W        W97155  33.364  18.034   7.398  0.3247 -0.2085 -0.2393
54239W        W97156  32.969  21.590   3.582 -0.0904  0.0249  0.0104
54240W        W97157  34.159  18.632   7.900 -0.0767 -0.2571  0.1613
54241W        W97158   1.571  21.839   6.857  0.1616  0.1612  0.0909
54242W        W97159   0.412  18.556   3.423 -0.1677  0.0545 -0.0758
54243W        W97160   0.596  17.975   4.288  0.4746 -0.1081 -0.0258
54244W        W97161  32.149  21.938   8.309 -0.1016  0.0761 -0.3295
54245W        W97162  32.965  18.822   7.720  0.3125 -0.0134  0.0445
54246W        W97163  33.348  17.038   5.143 -0.2014 -0.0157  0.1200
54247W        W97164  32.982  20.774   4.000  0.2596 -0.2152  0.0105
54248W        W97165   0.894  20.332   3.231 -0.3094 -0.0937  0.2256
54249W        W97166  34.305  19.080   2.967 -0.0621 -0.2619 -0.0813
54250W        W97167   1.069  19.172   4.044 -0.1175 -0.0773  0.2955
54251W        W97168  34.340  20.201   3.886 -0.1541 -0.2365 -0.0096
54252W        W97169   0.876  19.745   9.404  0.0549  0.1305  0.0274
54253W        W97170   0.354  21.823   5.711  0.0388  0.2192 -0.2986
54254W        W97171  34.218  20.340   2.670  0.1706  0.0115  0.1311
54255W        W97172  32.091  20.813   4.125  0.1700  0.3185 -0.2223
54256W        W97173  32.400  19.885   3.504 -0.0092  0.0924 -0.1036
54257W        W97174  34.245  18.449   6.112 -0.1898  0.0345  0.0158
54258W        W97175  33.943  21.362   5.342  0.1601  0.0329  0.0728
54259W        W97176  33.946  18.399   7.228 -0.2062  0.0463 -0.1634
54260W        W97177  32.501  20.720   3.796  0.1145 -0.0498  0.1049
54261W        W97178  31.513  19.176   5.313 -0.0896  0.0915 -0.1300
54262W        W97179  33.753  19.632   5.251  0.3503  0.2900 -0.2675
54263W        W97180  33.604  19.385   7.178 -0.1789  0.2132 -0.1412
54264W        W97181  34.073  18.470   6.698  0.0851 -0.1085 -0.4992
54265W        W97182  33.997  19.089   3.442  0.2510 -0.0117 -0.0323
54266W        W97183   0.663  17.989   2.870 -0.2762 -0.4413 -0.0518
54267W        W97184  34.429  19.754   3.747 -0.0993  0.2072  0.2488
54268W        W97185  33.335  19.462   4.780 -0.0460  0.1399  0.1372
54269W        W97186   0.297  18.351   2.892  0.2065  0.0386 -0.0515
54270W        W97187  32.658  22.048   5.314  0.1900  0.2198  0.0837
54271W        W97188  33.007  20.641   4.701  0.1042  0.1088 -0.1709
54272W        W97189   1.019  17.987   5.146 -0.0732 -0.0371 -0.1863
54273W        W97190  33.815  21.405   6.609  0.3751  0.1103 -0.1369
54274W        W97191   0.132  17.940   3.835  0.0572 -0.0704  0.1449
54275W        W97192  32.589  19.972   5.547  0.0513  0.1728 -0.1563
54276W        W97193  33.639  19.028   4.093  0.0118 -0.3665 -0.3562
54277W        W97194  33.505  20.755   6.058 -0.0943  0.2638 -0.0276
54278W        W97195  33.976  20.235   7.949 -0.0554 -0.1854 -0.1954
54279W        W97196   0.858  18.363   4.159  0.0127  0.1170  0.2346
54280W        W97197  33.229  21.383   8.327  0.0395  0.0117  0.1852
54281W        W97198  32.730  20.123   4.703 -0.3108 -0.0535 -0.1024
54282W        W97199   0.417  21.154   2.088  0.1568 -0.1677  0.3296
54283W        W97200  33.460  19.901   4.819 -0.3489 -0.1939  0.1335
54284W        W97201  31.862  19.784   7.284  0.0668  0.0081  0.2289
54285W        W97202   1.414  17.282   3.718  0.0693 -0.1356 -0.1426
54286W        W97203  34.620  19.875   3.293 -0.1868 -0.3053  0.0717
54287W        W97204   1.017  21.270   4.738  0.1817 -0.1962  0.2958
54288W        W97205   0.896  19.055   7.796  0.1431  0.1812  0.1922
54289W        W97206  33.786  19.884   4.441 -0.0140 -0.1442 -0.1274
54290W        W97207  34.444  18.021   6.945 -0.2347  0.1822 -0.0859
54291W        W97208  32.125  19.927   5.412 -0.6880 -0.0856  0.0028
54292W        W97209  34.086  21.862   5.098 -0.0081 -0.2387 -0.2032
54293W        W97210  33.897  17.171   8.647 -0.0188  0.1142 -0.0884
54294W        W97211   0.619  22.604   5.108 -0.2684 -0.0038 -0.0537
54295W        W97212   0.468  20.199   2.395  0.0146  0.2753  0.0047
54296W        W97213   0.654  19.487   5.146  0.0763 -0.1071  0.2088
54297W        W97214  32.514  21.258   4.321 -0.0632  0.1316  0.2072
54298W        W97215  34.432  21.000   4.251  0.0781 -0.1157 -0.1071
54299W        W97216  32.758  19.706   6.052 -0.3014 -0.1656 -0.0759
54300W        W97217  31.580  20.729   4.180  0.0525  0.1525 -0.1199
54301W        W97218   0.700  19.324   3.128 -0.0548  0.1065  0.1198
54302W        W97219  33.480  18.652   3.675  0.1681 -0.0631 -0.1805
54303W        W97220  32.772  19.972   7.414 -0.3095 -0.0423 -0.1833
54304W        W97221   0.293  20.302   5.545  0.0512  0.3587 -0.1346
54305W        W97222  34.125  20.095   5.954  0.1673  0.2333 -0.0188
54306W        W97223   0.004  19.257   6.285  0.2247 -0.1051  0.1115
54307W        W97224  32.453  19.014   2.808  0.0841  0.0796  0.0805
54308W        W97225  34.398  21.141   4.806  0.3118 -0.0209  0.0189
54309W        W97226  33.369  22.694   5.026 -0.3021  0.0593 -0.1371
54310W        W97227   0.287  20.615   2.565  0.3022  0.1319  0.0269
54311W        W97228  33.116  20.507   3.563  0.0614 -0.2524 -0.1506
54312W        W97229  33.121  20.036   8.990 -0.1388  0.3591 -0.2257
54313W        W97230   2.263  18.131   4.223 -0.0261 -0.1895 -0.0563
54314W        W97231  32.552  17.090   7.089  0.1234 -0.0535 -0.1629
54315W        W97232  34.643  19.912   4.340  0.0781  0.2907  0.3232
54316W        W97233  34.594  21.454   6.807  0.0442  0.0320  0.3855
54317W        W97234  32.498  21.689   6.933  0.0732 -0.1154  0.1532
54318W        W97235  33.979  19.361   3.903 -0.2446  0.2296  0.2299
54319W        W97236  32.262  19.153   6.998 -0.0561 -0.0215  0.0569
54320W        W97237  33.102  21.126   4.357 -0.0418 -0.1239 -0.1507
54321W        W97238  33.156  18.407   6.039 -0.0481 -0.3632 -0.1099
54322W        W97239  32.287  19.487   5.534  0.1731 -0.3535 -0.2491
54323W        W97240  30.642  18.912   4.839  0.3652  0.0409 -0.1825
54324W        W97241   0.183  21.159   5.855  0.1654  0.0260 -0.0467
54325W        W97242  34.239  18.853   3.887 -0.0002  0.0138 -0.0092
54326W        W97243  32.629  20.008   6.793 -0.0357 -0.1629  0.0038
54327W        W97244  32.857  19.210   4.929  0.1483 -0.0065 -0.2299
54328W        W97245  34.196  21.248   7.913  0.0364 -0.1281 -0.0285
54329W        W97246   0.192  19.306   5.004  0.0056 -0.1797 -0.2843
54330W        W97247  33.985  20.824   4.105  0.2302 -0.1341 -0.0341
54331W        W97248  34.487  18.438   5.119  0.0237  0.2190  0.1847
54332W        W97249  34.005  20.056   5.473  0.0797  0.2252  0.0727
54333W        W97250  34.119  20.287   2.132  0.1057  0.0207  0.3267
54334W        W97251  31.730  20.227   5.404 -0.0291  0.1295 -0.3587
54335W        W97252   0.320  19.416   6.880  0.0071  0.1106  0.2189
54336W        W97253   1.684  19.705   6.765  0.1512  0.0256  0.0139
54337W        W97254  33.549  18.582   7.837  0.0545  0.0030  0.3450
54338W        W97255  34.651  19.176   4.486 -0.0617 -0.0799 -0.0014
54339W        W97256  33.395  18.185   1.792 -0.2746 -0.0788  0.1724
54340W        W97257  32.141  21.606   4.272  0.0365 -0.0244  0.1419
54341W        W97258  32.166  19.880   4.025  0.1770 -0.0159 -0.1211
54342W        W97259  32.725  20.940   7.759 -0.0330  0.0797 -0.2281
54343W        W97260  33.095  20.939   2.736 -0.3652  0.4307 -0.1242
54344W        W97261   0.832  19.304   4.574  0.0376  0.2256 -0.2006
54345W        W97262  34.565  21.004   5.275 -0.1447  0.0333  0.4987
54346W        W97263   0.243  19.694   2.368 -0.3363  0.4824 -0.0191
54347W        W97264  32.917  22.895   5.003  0.0193 -0.2069  0.0342
54348W        W97265  33.932  22.668   4.138  0.1000  0.2823 -0.1225
54349W        W97266  34.167  19.772   6.942 -0.0038 -0.2291 -0.2483
54350W        W97267  34.205  19.788   4.216 -0.1794 -0.3157  0.2164
54351W        W97268  33.774  19.334   6.165 -0.2268  0.1338  0.0293
54352W        W97269  33.438  19.808   4.115  0.1728 -0.1102 -0.2234
54353W        W97270  34.408  18.669   4.324  0.0711  0.3424  0.3033
54354W        W97271  33.864  20.301   7.357  0.1729 -0.0506  0.1232
54355W        W97272  34.443  17.492   3.982  0.2319  0.1763 -0.1162
54356W        W97273  33.568  18.778   6.956  0.1206  0.1332 -0.0529
54357W        W97274  34.302  21.019   3.424 -0.2741  0.0262 -0.1485
54358W        W97275   0.310  22.269   5.461 -0.5002  0.0406 -0.0033
54359W        W97276  33.338  17.834   0.488  0.0379  0.1284  0.2685
54360W        W97277  34.310  20.074   4.629 -0.0372  0.0079 -0.0114
54361W        W97278  33.560  21.395   4.456 -0.0720 -0.1484 -0.2876
54362W        W97279  32.111  21.030   4.566 -0.2290 -0.2662 -0.2684
54363W        W97280  34.073  19.289   5.481  0.0358  0.0606  0.0240
54364W        W97281   1.873  17.394   4.775  0.3340  0.2564 -0.0780
54365W        W97282   0.474  20.399   6.572 -0.2110 -0.0121  0.1158
54366W        W97283  32.898  21.316   5.401  0.3569  0.3782 -0.0571
54367W        W97284  32.957  20.059   3.618  0.2325  0.3458  0.1467
54368W        W97285  33.486  20.851   4.378  0.3152 -0.0551  0.1335
54369W        W97286  34.449  21.265   2.927 -0.1965  0.2416 -0.1284
54370W        W97287  33.993  21.040   6.208 -0.2938  0.2069 -0.1693
54371W        W97288  32.070  19.465   5.069 -0.1230 -0.0067 -0.0529
54372W        W97289  33.464  21.924   3.819  0.0736 -0.0532 -0.0962
54373W        W97290   1.914  18.997   4.193  0.2464 -0.0810  0.1886
54374W        W97291  33.507  19.772   6.718  0.0155  0.1460 -0.4363
54375W        W97292  33.836  19.963   3.872  0.2166  0.0785  0.0417
54376W        W97293  33.314  20.242   7.208  0.1052 -0.1666 -0.1046
54377W        W97294   0.393  19.638   3.454  0.1132 -0.1559  0.1429
54378W        W97295  32.272  19.052   6.509  0.0457 -0.0952 -0.0527
54379W        W97296  32.834  19.277   2.914 -0.3405  0.4672  0.0922
54380W        W97297  34.645  20.005   5.823 -0.0390  0.0085 -0.2903
54381W        W97298  31.901  17.289   3.247  0.1364  0.1110 -0.2235
54382W        W97299  33.267  21.523   4.010  0.1322 -0.2050  0.1149
54383W        W97300  32.020  19.568   4.446 -0.2597 -0.1163  0.3836
54384W        W97301   1.063  19.088   3.478  0.2675  0.1397  0.1594
54385W        W97302  33.783  20.240   6.857  0.1480  0.0955  0.0405
54386W        W97303  33.253  23.729   3.289 -0.1216  0.3873  0.0157
54387W        W97304  33.846  20.666   1.994 -0.0107 -0.2301 -0.1925
54388W        W97305   0.107  21.843   5.105  0.2676 -0.0753  0.0433
54389W        W97306  34.101  22.881   6.452  0.2184 -0.1436 -0.1135
54390W        W97307  34.273  20.368   3.178  0.0004 -0.1833 -0.2983
54391W        W97308  34.125  19.344   7.326 -0.2365 -0.1794 -0.0572
54392W        W97309   0.756  20.980   3.429 -0.0825  0.1138 -0.0261
54393W        W97310  33.605  21.144   4.034  0.1759 -0.1556 -0.1095
54394W        W97311  34.071  20.018   3.457  0.0331  0.0138 -0.1404
54395W        W97312  34.066  18.804   4.751  0.5700 -0.0525 -0.1009
54396W        W97313   0.701  19.898   7.258  0.1728  0.0468 -0.1077
54397W        W97314  34.115  18.353   3.176  0.0578 -0.0520  0.0603
54398W        W97315  32.887  18.522   4.372 -0.5925  0.1354  0.2501
54399W        W97316  32.347  21.237   5.357  0.0549  0.2804  0.0680
54400W        W97317  32.653  19.381   6.877  0.0596 -0.0485 -0.1179
54401W        W97318  33.023  20.238   5.799  0.3010 -0.4127  0.0213
54402W        W97319  32.995  19.766   4.550 -0.1451  0.0286  0.0098
54403W        W97320   0.948  19.075   2.796 -0.2011 -0.4065  0.0451
54404W        W97321   0.211  18.709   6.215  0.0078 -0.0683 -0.3568
54405W        W97322  33.428  18.574   6.515  0.1869  0.0075 -0.1608
54406W        W97323  32.191  17.652   5.567  0.1363  0.3214  0.1890
54407W        W97324  32.748  21.598   1.611  0.0212 -0.0626 -0.4017
54408W        W97325  34.337  19.264   7.810 -0.4340  0.2433 -0.1999
54409W        W97326   1.570  20.160   8.231 -0.0488 -0.0799 -0.2824
54410W        W97327  33.604  18.170   5.545 -0.3655  0.1836 -0.2472
54411W        W97328  34.262  19.180   5.978  0.1426  0.1920  0.2692
54412W        W97329  34.195  21.702   6.645  0.0652 -0.0638 -0.0432
54413W        W97330  33.385  21.455   5.314 -0.3495  0.0811  0.0621
54414W        W97331  34.573  17.918   5.412  0.3593 -0.1511  0.1465
54415W        W97332  33.537  20.374   6.403 -0.1920 -0.1394  0.1917
54416W        W97333  33.463  17.548   5.014 -0.0280 -0.1372  0.0231
54417W        W97334  33.947  20.653   5.727 -0.0708  0.1161 -0.3851
54418W        W97335  33.309  17.861   4.627 -0.0533  0.0149 -0.0785
54419W        W97336   0.858  17.434   5.428 -0.0011  0.2322 -0.1684
54420W        W97337  34.581  19.245   5.439  0.0111  0.0685  0.0520
54421W        W97338  34.515  20.964   7.291 -0.0810  0.0541  0.0411
54422W        W97339   0.106  20.821   3.456 -0.0437 -0.1354 -0.0291
54423W        W97340   1.095  22.341   6.960 -0.2289 -0.1046  0.0212
54424W        W97341   0.780  20.116   3.817 -0.2210 -0.1700 -0.3833
54425W        W97342  33.601  20.205   3.438  0.2855  0.1193 -0.2021
54426W        W97343  33.527  20.586   4.874 -0.0767 -0.1305 -0.1281
54427W        W97344  33.879  19.526   7.738 -0.1441  0.0490  0.0170
54428W        W97345  31.742  22.007   5.308  0.0365 -0.0186 -0.0802
54429W        W97346   0.733  21.286   8.547  0.1674 -0.3074  0.1999
54430W        W97347  34.503  21.117   8.756 -0.4171 -0.1116 -0.1118
54431W        W97348   0.623  18.844   8.973  0.0785  0.3168 -0.0708
54432W        W97349   0.361  19.742   8.948 -0.1301 -0.2454  0.0860
54433W        W97350  34.338  16.758   7.512 -0.0845 -0.2286  0.2394
54434W        W97351  34.345  19.970   9.382 -0.2340  0.0581 -0.1180
54435W        W97352  33.179  20.212   8.414 -0.2724  0.4422 -0.0713
54436W        W97353  29.802  18.269  12.854  0.3584  0.0232 -0.1552
54437W        W97354   1.217  19.835   7.133  0.1073  0.0837 -0.0517
54438W        W97355  30.838  19.110   8.362  0.0562  0.2206 -0.2474
54439W        W97356  34.672  20.580   7.006 -0.0383 -0.0689 -0.1995
54440W        W97357  33.128  20.077   6.776  0.1640  0.0843 -0.1253
54441W        W97358  33.889  21.228   9.219 -0.2053 -0.1744 -0.0247
54442W        W97359  34.158  19.774   8.693 -0.0385 -0.2318  0.0085
54443W        W97360  34.119  22.495   8.793 -0.1283  0.1010 -0.1500
54444W        W97361   2.315  21.876   8.571 -0.1549 -0.4851 -0.1559
54445W        W97362   0.711  20.866   8.850  0.3324  0.4585  0.1546
54446W        W97363  33.105  22.652   9.559 -0.0030  0.0082  0.1405
54447W        W97364  33.106  20.999   7.377  0.1050  0.1886  0.2295
54448W        W97365  33.156  22.246   5.234 -0.1413  0.0450 -0.1547
54449W        W97366   0.445  21.719   7.211  0.0393  0.0539 -0.2549
54450W        W97367   0.705  21.486   9.051 -0.2313  0.0618  0.1885
54451W        W97368  33.833  19.534   9.108 -0.0416  0.0515  0.1538
54452W        W97369  33.694  21.303   7.821  0.0268  0.1678 -0.1843
54453W        W97370  33.216  18.099   6.469  0.2629 -0.0971 -0.2639
54454W        W97371   1.654  20.663   8.848  0.0228 -0.0995 -0.2122
54455W        W97372   0.591  20.486   8.471 -0.0250  0.1171  0.0546
54456W        W97373   1.006  20.127   8.505 -0.0505  0.3108 -0.0782
54457W        W97374  34.189  23.147   8.754 -0.1608 -0.0442 -0.1028
54458W        W97375  29.093  19.766   9.494 -0.2817 -0.1907 -0.0439
54459W        W97376  34.462  19.345   8.427 -0.3814 -0.1018 -0.3204
54460W        W97377  33.934  17.910   7.000  0.3236  0.1142 -0.1559
54461W        W97378   0.074  21.646   9.609 -0.1381 -0.1146 -0.0040
54462W        W97379  32.567  20.367   7.166  0.5742  0.0157 -0.0860
54463W        W97380   0.384  21.003   8.133 -0.0798 -0.1239  0.1288
54464W        W97381  34.651  23.093   8.986 -0.2251  0.2246  0.1467
54465W        W97382  33.636  21.830   7.520  0.1110 -0.1089 -0.1164
54466W        W97383   0.695  21.770   9.470 -0.1299 -0.0817  0.1531
54467W        W97384  31.593  23.093   8.471 -0.1257 -0.1915  0.1834
54468W        W97385  34.576  20.499   9.104  0.5696  0.1534 -0.3226
54469W        W97386   3.280  23.488   9.488 -0.0307  0.0454 -0.0474
54470W        W97387  34.293  22.458   8.220  0.1438 -0.3899 -0.4499
54471W        W97388  33.100  17.827   8.768  0.1438  0.0447  0.0862
54472W        W97389   1.614  21.645   8.657 -0.1768  0.0950 -0.3574
54473W        W97390   1.317  20.110   9.403  0.0183  0.1533 -0.1051
54474W        W97391  34.592  18.899   8.115  0.1901 -0.1676  0.1557
54475W        W97392   0.122  20.326   8.414 -0.1310 -0.2789 -0.3361
54476W        W97393  33.494  20.640   7.457 -0.1064  0.1603  0.2339
54477W        W97394  31.279  19.903   8.894 -0.2225 -0.0674 -0.1263
54478W        W97395  34.561  21.014   8.301  0.3804 -0.1993 -0.0042
54479W        W97396   0.409  20.387   8.928  0.2620  0.0447 -0.1743
54480W        W97397  34.304  19.810   7.588 -0.0710  0.0105  0.1199
54481W        W97398  33.038  17.750   9.274 -0.2617 -0.1677 -0.1519
54482W        W97399   0.834  17.967   6.790  0.1604  0.1535  0.2526
54483W        W97400  32.838  21.705   8.448  0.0886 -0.2961 -0.1236
54484W        W97401  31.553  18.368   9.362 -0.0793  0.0698 -0.4746
54485W        W97402  34.574  22.014   6.522  0.0780  0.1216 -0.2809
54486W        W97403  34.049  21.183   8.760  0.0249 -0.3653  0.2790
54487W        W97404   0.475  19.506   6.396  0.0329  0.2422 -0.0684
54488W        W97405   1.006  22.942   7.541 -0.1953 -0.2366 -0.2304
54489W        W97406  33.440  20.419   8.840  0.2705  0.0251 -0.1299
54490W        W97407  33.986  17.731   9.094  0.2137  0.2134  0.0500
54491W        W97408  33.715  19.880   6.251  0.2042 -0.1679  0.2116
54492W        W97409  31.794  20.265   8.934 -0.0609 -0.0264 -0.0323
54493W        W97410  33.713  19.845   7.163  0.0175 -0.2459 -0.0407
54494W        W97411   1.389  18.899   9.297  0.2725  0.0105 -0.2046
54495W        W97412   2.379  22.801   8.774  0.1203 -0.1643  0.1790
54496W        W97413   0.854  22.042   7.293 -0.0718 -0.0856 -0.0771
54497W        W97414  32.749  21.017   6.811 -0.0505 -0.0178  0.2204
54498W        W97415  33.889  20.665   8.676 -0.1565 -0.0301 -0.0486
54499W        W97416   1.228  23.336   8.669  0.2232  0.2760 -0.0645
54500W        W97417  34.367  21.005   6.772  0.0705  0.1809 -0.4283
54501W        W97418  32.446  21.360   6.463  0.2078  0.1143  0.0630
54502W        W97419  33.858  22.036   8.473 -0.0599 -0.0984 -0.0150
54503W        W97420  34.288  20.636   8.067 -0.3437 -0.0221 -0.1445
54504W        W97421  33.245  19.680   7.570  0.1261 -0.0825  0.1135
54505W        W97422  34.365  17.281   8.819 -0.0454  0.2614 -0.0658
54506W        W97423   1.348  19.298   8.727  0.3663 -0.0625  0.1141
54507W        W97424  29.083  23.100  13.041 -0.0324 -0.2675 -0.1817
54508W        W97425  32.540  21.938   9.583 -0.0299  0.2233 -0.4009
54509W        W97426   0.168  21.016   9.186  0.1923  0.2641  0.2254
54510W        W97427   0.715  20.540   9.975 -0.1857 -0.2874  0.4068
54511W        W97428  31.756  20.710   6.978 -0.1451  0.0366  0.3367
54512W        W97429   0.302  21.482   8.452 -0.1301  0.2354  0.0412
54513W        W97430   3.041  20.209   8.711 -0.3543 -0.0662  0.0676
54514W        W97431   0.349  18.179   9.387 -0.1869 -0.2444 -0.2925
54515W        W97432  33.148  19.729   8.073 -0.1548 -0.2381 -0.1142
54516W        W97433   0.229  18.515   8.242 -0.2840  0.1228  0.0449
54517W        W97434  34.312  20.642   9.509 -0.0408 -0.1724 -0.3492
54518W        W97435  31.759  19.874   8.240  0.0391 -0.2475  0.1603
54519W        W97436  33.027  21.563   7.010  0.0014  0.1727  0.2332
54520W        W97437   3.092  18.659   9.427 -0.2060  0.0273 -0.0956
54521W        W97438   0.644  22.483   6.707  0.1280  0.0965  0.1278
54522W        W97439   0.766  20.287   8.054  0.0134 -0.0896  0.2144
54523W        W97440   1.100  20.565   9.146  0.0301  0.0174 -0.0041
54524W        W97441  34.352  18.380   9.010  0.0416  0.1151  0.1335
54525W        W97442  32.935  19.504   9.371  0.1437 -0.1711  0.2302
54526W        W97443  33.260  19.716   8.573  0.0619 -0.2607 -0.2844
54527W        W97444   2.368  20.543   8.298  0.0689  0.4661 -0.1369
54528W        W97445  34.600  21.900   7.036  0.0857 -0.0586  0.2737
54529W        W97446   1.391  21.789   8.203  0.0826 -0.1613  0.0124
54530W        W97447  34.179  20.055   6.487  0.2659  0.1764 -0.2068
54531W        W97448  33.712  22.173   8.964  0.1424 -0.1849 -0.0665
54532W        W97449   0.031  19.490   8.023 -0.1309 -0.0072  0.2280
54533W        W97450  33.003  17.825   7.628  0.0088 -0.1661 -0.1105
54534W        W97451   0.333  20.402   6.070 -0.0526 -0.2301 -0.0791
54535W        W97452  32.668  18.394   9.329  0.0191 -0.0182  0.0612
54536W        W97453  33.974  19.412   8.248  0.0866  0.2399 -0.3271
54537W        W97454   1.147  21.929   7.659 -0.3355  0.1438  0.0497
54538W        W97455   0.379  19.890   8.070  0.0883 -0.1099  0.0311
54539W        W97456  34.432  18.888   7.483 -0.0276 -0.1757 -0.2391
54540W        W97457  34.278  22.267   7.761  0.3500  0.0187  0.2496
54541W        W97458   0.999  22.381   7.998 -0.4206  0.0271 -0.1392
54542W        W97459  33.765  22.864   8.777 -0.1168 -0.0176  0.2039
54543W        W97460  32.491  20.619   8.427 -0.0996 -0.3214 -0.0624
54544W        W97461  34.178  21.451   8.344 -0.0063 -0.2325 -0.2534
54545W        W97462   0.871  21.928   8.168  0.0144 -0.2196  0.0501
54546W        W97463   0.317  17.773   6.754 -0.3079  0.2958  0.3159
54547W        W97464  32.531  18.754   8.533 -0.1908  0.0679 -0.0593
54548W        W97465   0.580  22.075  10.601  0.1227  0.1217 -0.0433
54549W        W97466   0.005  19.813   8.416 -0.0481  0.1849  0.2365
54550W        W97467  34.570  22.734   8.633 -0.0996 -0.0109 -0.1590
54551W        W97468  33.127  20.301   5.036 -0.0522  0.1417  0.1646
54552W        W97469  34.633  20.993   7.766 -0.0491  0.0071  0.0475
54553W        W97470   0.235  19.794   7.614  0.0521 -0.2002  0.2288
54554W        W97471  34.256  20.189   8.400  0.1388  0.2056  0.0118
54555W        W97472   0.250  21.689   7.731 -0.0775  0.2096  0.0339
54556W        W97473   1.160  20.311   7.802 -0.0784  0.1442 -0.0800
54557W        W97474  32.674  20.476   6.679 -0.3511 -0.0896  0.1758
54558W        W97475   2.400  20.957   9.047 -0.2603  0.1578 -0.3185
54559W        W97476   0.856  23.695   8.503 -0.0225  0.1685  0.1166
54560W        W97477  32.862  19.398   7.316  0.0477  0.0764 -0.1776
54561W        W97478  33.294  17.202   8.966  0.0159 -0.1257  0.1212
54562W        W97479   0.747  19.800   7.725  0.2985  0.1585 -0.2447
54563W        W97480  32.156  20.966  10.082 -0.2288  0.1908  0.0479
54564W        W97481  34.197  19.813   8.114  0.0116 -0.4837 -0.4332
54565W        W97482   0.265  18.811   8.629  0.0520 -0.1137  0.0102
54566W        W97483   2.070  20.238   8.033 -0.0936 -0.1383  0.2050
54567W        W97484  33.049  21.417   9.233  0.1355 -0.0759 -0.2892
54568W        W97485  34.193  20.823   9.022 -0.0673  0.2736  0.1523
54569W        W97486  34.509  23.171   5.918 -0.2751  0.1811  0.2462
54570W        W97487   3.220  20.962   7.920  0.1708  0.0698  0.1497
54571W        W97488  33.966  16.060   7.950 -0.0193 -0.0075  0.3119
54572W        W97489   0.185  20.115   9.328  0.0337 -0.3244  0.0307
54573W        W97490  33.852  22.273   8.011  0.0138 -0.1519 -0.1235
54574W        W97491   0.507  22.112   6.366 -0.3491 -0.2900  0.1610
54575W        W97492   1.240  20.537   8.240  0.0908 -0.2011  0.0173
54576W        W97493  34.246  21.975   8.795 -0.5083  0.0851 -0.0411
54577W        W97494  34.368  21.915   6.091  0.1081  0.1086  0.1282
54578W        W97495   0.128  22.147   6.009 -0.1912  0.0348 -0.1227
54579W        W97496   1.534  17.155   9.542  0.0081 -0.0576  0.0678
54580W        W97497  33.834  18.806   8.315 -0.0240  0.3251 -0.1347
54581W        W97498   5.358  20.734   9.115  0.0551  0.0041 -0.1714
54582W        W97499  32.872  20.977   8.255  0.0719 -0.0230 -0.2862
54583W        W97500  33.187  21.558   7.517 -0.0186  0.1503 -0.0850
54584W        W97501  34.526  21.445   7.387  0.4057  0.4317  0.0918
54585W        W97502   1.784  22.472   9.165 -0.0905 -0.0814  0.1597
54586W        W97503  33.585  19.356   8.658 -0.2267  0.2581  0.4106
54587W        W97504  34.441  16.008   9.463  0.2061 -0.0784 -0.4655
54588W        W97505  31.557  18.015   8.645  0.2347  0.0297 -0.1013
54589W        W97506   0.413  19.442   8.433  0.1325  0.3041 -0.0727
54590W        W97507  33.532  20.645   6.960  0.2722  0.2364 -0.1004
54591W        W97508  33.378  20.486   8.059  0.1210  0.1631  0.2950
54592W        W97509   1.751  23.521   8.694 -0.2461 -0.0375  0.2802
54593W        W97510   1.212  18.388   8.455  0.1510 -0.2245 -0.0169
54594W        W97511   1.474  18.872   8.436  0.1333  0.1068 -0.2311
54595W        W97512   0.227  21.577   8.994 -0.4443  0.3085 -0.3672
54596W        W97513   1.835  19.268   6.945  0.1681 -0.2101  0.0246
54597W        W97514   1.373  20.295   8.743 -0.1973 -0.3929 -0.1074
54598W        W97515  34.459  23.220   8.078 -0.3327 -0.0399 -0.0705
54599W        W97516  32.507  17.837   9.490 -0.0435 -0.0674  0.0191
54600W        W97517   1.621  21.509   9.149 -0.1557 -0.5959 -0.0704
54601W        W97518   1.534  22.165   7.316  0.1043  0.0260 -0.0193
54602W        W97519   0.661  17.306   8.485 -0.0322 -0.5136 -0.1379
54603W        W97520   0.810  20.432   7.430  0.2753  0.1103  0.0575
54604W        W97521  34.176  25.885   3.031  0.2321  0.0112 -0.0694
54605W        W97522  34.454  22.561   0.198  0.3246  0.1405  0.0500
54606W        W97523  32.974  22.346   1.088 -0.3123 -0.0841 -0.4345
54607W        W97524  33.123  22.426   3.498 -0.0330  0.0417 -0.0128
54608W        W97525  34.215  23.561   1.279  0.1927  0.3364  0.0587
54609W        W97526  31.987  25.115   2.135  0.3321 -0.0005  0.1386
54610W        W97527  32.993  19.612   1.265 -0.2065  0.1966 -0.1543
54611W        W97528  33.248  23.412   2.076 -0.0799  0.0514  0.2388
54612W        W97529  31.005  24.630   1.012  0.0971 -0.1771 -0.3229
54613W        W97530   0.781  24.450   1.646 -0.2241  0.0927  0.1030
54614W        W97531  33.492  23.463   0.584  0.0494  0.2744  0.0957
54615W        W97532  32.885  23.789   2.273 -0.0750 -0.0147  0.3918
54616W        W97533  33.082  24.733   0.198  0.0739 -0.1021 -0.2577
54617W        W97534  32.432  22.410   0.778  0.0252 -0.1353 -0.1045
54618W        W97535  33.115  23.867   0.784 -0.0432  0.0561 -0.2856
54619W        W97536  32.118  23.367   2.671 -0.1608 -0.1378  0.0548
54620W        W97537  33.974  24.821  31.448 -0.0565  0.0863 -0.2480
54621W        W97538   2.423  25.747   2.015 -0.1175  0.3414  0.1874
54622W        W97539  34.338  24.001   1.083  0.0309  0.1822  0.1611
54623W        W97540  34.160  24.714  31.900  0.1676  0.0911  0.2919
54624W        W97541  33.072  24.783   0.735  0.1533 -0.0332  0.2157
54625W        W97542  34.405  25.471   2.784 -0.0920  0.3273  0.0290
54626W        W97543  33.399  23.735  31.864 -0.1520 -0.1389  0.2552
54627W        W97544  32.363  27.278   2.761  0.1016  0.2455 -0.0559
54628W        W97545  32.803  24.266  31.185 -0.1325 -0.1619  0.1830
54629W        W97546   0.346  25.360   0.670 -0.0061 -0.2466  0.0962
54630W        W97547  34.145  23.737   2.299  0.1115  0.0824  0.0703
54631W        W97548  33.359  26.877   2.653 -0.0725  0.3435 -0.1619
54632W        W97549  30.733  24.337  28.394  0.1511  0.1438 -0.1906
54633W        W97550   0.259  22.663   1.723  0.0901 -0.0872  0.0519
54634W        W97551  34.184  21.045   1.054  0.1450 -0.2185 -0.0502
54635W        W97552  33.927  24.766   2.276 -0.0146  0.1068  0.0846
54636W        W97553  33.864  22.769   2.324  0.1762  0.3618  0.0600
54637W        W97554   0.541  25.083   0.345 -0.0529 -0.0609 -0.4481
54638W        W97555  34.043  23.175   1.776  0.0754 -0.0728  0.1615
54639W        W97556  34.425  24.413   0.832 -0.0359 -0.1443  0.1892
54640W        W97557  33.372  24.825   3.177 -0.0078 -0.1984  0.1005
54641W        W97558  31.531  21.922   1.884  0.3065  0.1529  0.0704
54642W        W97559  32.285  23.372   1.076 -0.0483  0.2493  0.1554
54643W        W97560  32.002  24.009   3.243 -0.0560  0.1152  0.1877
54644W        W97561  32.502  21.855   0.322  0.3588 -0.1640  0.2554
54645W        W97562  34.471  23.167  31.411  0.0462  0.0792  0.0750
54646W        W97563  33.783  23.524  30.258 -0.1729  0.0569 -0.0870
54647W        W97564  33.849  23.096   3.154  0.1063  0.2450  0.1704
54648W        W97565  33.552  24.770   1.023  0.1218 -0.0020 -0.1312
54649W        W97566  34.390  25.655   0.030  0.2309  0.0324 -0.2438
54650W        W97567   0.128  24.706   0.193 -0.2120  0.0221  0.0912
54651W        W97568  32.503  23.780   1.862  0.0237  0.1887 -0.1184
54652W        W97569  33.571  22.406   1.435 -0.1140 -0.2068 -0.1106
54653W        W97570  33.852  24.500   2.790 -0.0878 -0.1583  0.0334
54654W        W97571  34.200  23.231   4.059 -0.2364  0.3140  0.1417
54655W        W97572  33.721  24.108   0.833 -0.1543  0.3248 -0.2460
54656W        W97573  31.507  23.877   2.019 -0.0217 -0.1949 -0.2268
54657W        W97574  32.179  24.801   1.072 -0.0648  0.1334 -0.4980
54658W        W97575  32.905  22.742   2.050 -0.0170 -0.0246 -0.2049
54659W        W97576  31.767  23.581   0.455  0.0243 -0.4156  0.0571
54660W        W97577  32.616  22.080   1.739  0.1095  0.2213 -0.2810
54661W        W97578   1.320  23.828   0.789  0.2078  0.3625 -0.1427
54662W        W97579  33.425  22.986   0.875 -0.0535  0.4252 -0.2162
54663W        W97580  32.633  22.935   2.418 -0.1332 -0.1112 -0.0747
54664W        W97581  34.364  22.759   1.735 -0.1173 -0.2572  0.2308
54665W        W97582  31.718  26.835   0.386  0.1765 -0.0261 -0.2701
54666W        W97583  33.471  24.942   0.488 -0.2829 -0.1402 -0.0839
54667W        W97584  33.154  23.042   1.676 -0.0242 -0.1104 -0.0409
54668W        W97585  32.998  24.307   3.994 -0.2374  0.2016  0.2962
54669W        W97586  32.786  20.785  30.983  0.2344  0.1944 -0.2660
54670W        W97587  32.479  23.156  31.743 -0.1226  0.1975  0.0769
54671W        W97588  31.513  25.029  31.339 -0.0322  0.0160 -0.2703
54672W        W97589  33.453  23.976   1.756  0.0322  0.3492  0.1264
54673W        W97590  31.206  22.972   1.843  0.1775  0.1789 -0.3476
54674W        W97591  34.059  22.500   1.347  0.1815  0.2686  0.2230
54675W        W97592  33.356  23.913   2.236  0.1499  0.3837 -0.0848
54676W        W97593  32.157  23.153   3.599  0.0989 -0.1331  0.0635
54677W        W97594  34.394  24.428   0.304  0.2997 -0.1243  0.0195
54678W        W97595  34.274  24.888   0.540  0.1199  0.0247 -0.1017
54679W        W97596  34.574  24.655   2.143 -0.1213 -0.0281 -0.0796
54680W        W97597  33.085  22.186   2.115 -0.1222 -0.2397 -0.0474
54681W        W97598  33.075  22.822   1.239  0.1844 -0.0732  0.1013
54682W        W97599  31.179  27.140   1.668  0.1853  0.0156  0.0507
54683W        W97600  34.464  22.482   3.583  0.0144 -0.0352 -0.0215
54684W        W97601  31.396  21.485   1.598  0.0190  0.0208  0.1121
54685W        W97602  33.746  23.131   4.237 -0.2076 -0.1949 -0.0966
54686W        W97603  32.343  23.925   2.894  0.0565 -0.2822  0.1491
54687W        W97604  32.595  24.673   0.107 -0.0101  0.1560 -0.3342
54688W        W97605  34.092  21.919   2.337 -0.0877 -0.2400 -0.1915
54689W        W97606   1.397  24.530  31.939 -0.0369 -0.2371  0.0180
54690W        W97607   1.152  26.625   1.177  0.1427  0.2294  0.1469
54691W        W97608  33.749  24.654   0.207 -0.1677 -0.1385  0.0347
54692W        W97609  32.386  25.586   0.430  0.0283  0.0774 -0.2781
54693W        W97610  32.856  23.221  30.476 -0.1468 -0.0376  0.2455
54694W        W97611  33.178  26.488  31.312  0.2980 -0.3862 -0.0604
54695W        W97612  32.204  28.509   2.210 -0.2965 -0.0445  0.0229
54696W        W97613  34.248  22.688  31.487 -0.4594  0.1175 -0.1169
54697W        W97614  31.010  22.041   1.784  0.1044  0.0874 -0.4531
54698W        W97615  34.627  22.300   1.630 -0.0723 -0.0892 -0.1789
54699W        W97616   0.274  22.509   0.530  0.2794  0.0390  0.0692
54700W        W97617  33.399  26.273   1.771  0.2773  0.0201  0.0464
54701W        W97618   0.810  24.185   4.990  0.4025 -0.0778 -0.2810
54702W        W97619  32.888  24.143   1.922 -0.2173 -0.0341 -0.0065
54703W        W97620   0.347  22.695   0.012  0.2368  0.3827  0.2033
54704W        W97621  33.020  24.519   2.223  0.0208 -0.1249 -0.3648
54705W        W97622  32.420  24.813   2.824  0.1380  0.0716  0.1909
54706W        W97623  34.121  25.230   1.297  0.2082 -0.0576  0.2238
54707W        W97624  31.624  22.001   1.177  0.0304 -0.1263 -0.0163
54708W        W97625  33.554  24.295   1.338 -0.0806  0.0810 -0.2100
54709W        W97626  34.088  23.962   2.767 -0.0271 -0.0766  0.1379
54710W        W97627  34.453  23.548   0.257  0.2162 -0.1933 -0.0143
54711W        W97628  34.153  23.228   2.251  0.3952 -0.1509  0.0759
54712W        W97629  32.788  24.109   2.655 -0.0546 -0.0350  0.0815
54713W        W97630  31.960  24.111  30.383 -0.0102 -0.2680 -0.1322
54714W        W97631  33.213  24.350   0.993 -0.4183  0.2718 -0.0920
54715W        W97632  31.863  25.601   0.335  0.0217  0.0756  0.0933
54716W        W97633   0.738  25.911   2.497  0.1579  0.0837  0.1911
54717W        W97634   0.308  24.128   1.049 -0.2274 -0.1556 -0.1779
54718W        W97635  32.643  23.123   0.295  0.0855  0.1585 -0.2080
54719W        W97636  31.451  25.062   2.658 -0.1391  0.0012  0.0520
54720W        W97637   0.619  24.565  31.386  0.1195 -0.0057 -0.1331
54721W        W97638  34.634  24.043   0.610 -0.0550  0.0058  0.0048
54722W        W97639  31.441  22.331   1.549  0.0115 -0.2315 -0.0127
54723W        W97640  34.210  24.308   2.314  0.1752  0.1107  0.1367
54724W        W97641  32.235  22.259   0.022 -0.1643 -0.1040 -0.0909
54725W        W97642  33.859  26.594   2.514  0.1680 -0.0334 -0.1953
54726W        W97643  34.172  24.806  29.492 -0.0791 -0.2256  0.0311
54727W        W97644  33.471  24.901   2.099  0.0737  0.0998  0.1024
54728W        W97645  33.910  23.726  31.882  0.0368 -0.1736  0.1761
54729W        W97646  33.199  24.322   0.451  0.2562 -0.0429 -0.3206
54730W        W97647  33.412  23.251   3.429 -0.1655  0.2619  0.0845
54731W        W97648  32.379  23.757   2.423  0.2237  0.3503 -0.4524
54732W        W97649  33.120  23.031   2.369  0.2984  0.3881  0.1008
54733W        W97650  31.793  23.147   2.238  0.2135 -0.0016 -0.0583
54734W        W97651  32.756  20.805   0.224 -0.1151 -0.1251 -0.2049
54735W        W97652   1.903  27.263   0.317 -0.2082 -0.0343 -0.1702
54736W        W97653  32.263  23.943   0.931 -0.2796 -0.0565 -0.0325
54737W        W97654  33.647  26.950   2.243  0.0615 -0.4504  0.0961
54738W        W97655  32.750  21.996  31.321  0.1185  0.0729 -0.2416
54739W        W97656  32.688  23.634   1.232  0.0982  0.0957  0.1716
54740W        W97657  32.443  26.874   1.865 -0.0454  0.1858  0.4049
54741W        W97658  33.624  20.990   2.852 -0.2674  0.2539 -0.0545
54742W        W97659  32.195  25.190   0.719  0.2206 -0.0847  0.1405
54743W        W97660  33.099  26.450   0.446 -0.0875  0.1305  0.0274
54744W        W97661  32.451  24.805   0.662  0.0903  0.1603 -0.1518
54745W        W97662  32.651  25.718   1.366 -0.4709 -0.0349 -0.0844
54746W        W97663  32.907  26.451   1.475  0.5093 -0.1013 -0.2224
54747W        W97664  34.004  24.211   0.027 -0.0844 -0.0842 -0.1096
54748W        W97665   1.017  26.020   1.124  0.3551 -0.0850 -0.1620
54749W        W97666  32.961  22.290   3.037 -0.0752 -0.2066 -0.0338
54750W        W97667   0.347  19.413  31.946 -0.4383 -0.1284 -0.0783
54751W        W97668   0.325  24.820   4.007 -0.0354  0.2396  0.0829
54752W        W97669  33.885  23.883   1.354 -0.0142 -0.0952  0.0266
54753W        W97670  33.044  25.002  30.047 -0.0986 -0.1256 -0.0339
54754W        W97671  33.515  24.815  30.727  0.3916  0.0106  0.1591
54755W        W97672  32.177  24.170   1.794  0.0155  0.2735  0.1512
54756W        W97673  32.188  26.472  30.673  0.0576  0.0068 -0.3065
54757W        W97674  33.052  24.031   0.097  0.2774 -0.0515 -0.1473
54758W        W97675  33.420  22.326   2.891 -0.3379  0.1458  0.1841
54759W        W97676  32.493  21.408   0.007 -0.0844  0.0999  0.1202
54760W        W97677  32.969  23.313   3.146  0.0624  0.0554 -0.1572
54761W        W97678  32.939  24.751   4.292  0.0927 -0.1116 -0.0042
54762W        W97679  31.080  21.351   0.329 -0.0837  0.1134 -0.2337
54763W        W97680  34.346  23.597   1.858  0.2433 -0.1699  0.0066
54764W        W97681  33.955  23.510   0.358 -0.0342 -0.2435  0.0149
54765W        W97682  34.355  26.896   0.463  0.2238  0.0567  0.1121
54766W        W97683  33.846  26.630   1.381 -0.1123 -0.1355  0.4491
54767W        W97684  33.038  23.227  31.928  0.1414  0.1641 -0.1363
54768W        W97685  32.602  20.808   0.686 -0.2094 -0.2359  0.0060
54769W        W97686   0.167  25.581   2.476 -0.1151 -0.2891  0.0588
54770W        W97687  34.231  23.050   0.225 -0.0711  0.0182  0.0483
54771W        W97688  33.944  24.073   1.990  0.1822 -0.0268 -0.1196
54772W        W97689  33.910  25.068   0.810  0.0804 -0.3257  0.0354
54773W        W97690  31.737  22.380   2.083 -0.2966 -0.1502  0.0247
54774W        W97691  33.517  23.391   1.555  0.0696  0.0153  0.0147
54775W        W97692   0.271  23.608   2.940  0.2336  0.0770  0.2184
54776W        W97693  33.850  22.669   0.927 -0.0429  0.0485  0.1708
54777W        W97694  33.918  25.888  30.334 -0.4555  0.1435 -0.3296
54778W        W97695  34.188  24.040   3.284  0.0104 -0.1178 -0.0246
54779W        W97696   1.750  21.138   0.038  0.0878 -0.3562  0.0471
54780W        W97697  34.659  22.479   2.152  0.2866 -0.1518  0.1673
54781W        W97698  31.990  26.425   0.101  0.0905 -0.0222 -0.0261
54782W        W97699  33.633  23.877   0.330 -0.1394 -0.1250 -0.0759
54783W        W97700  33.823  25.539   2.801  0.0699 -0.0330  0.0192
54784W        W97701  33.887  25.238   3.972  0.1541  0.2026  0.2474
54785W        W97702  30.371  24.560   0.472 -0.0432  0.1057  0.0982
54786W        W97703  33.731  23.166   2.565 -0.0836  0.1447  0.3209
54787W        W97704  33.085  24.954  31.053  0.2185  0.1272 -0.1779
54788W        W97705   1.002  25.677   0.033 -0.1868  0.0871 -0.0621
54789W        W97706  34.576  23.229   1.060 -0.0421 -0.2457 -0.0828
54790W        W97707  33.528  23.259   0.151 -0.0496 -0.2623  0.2886
54791W        W97708  33.224  25.235   0.826  0.0242 -0.3063 -0.2007
54792W        W97709  32.308  23.413   0.531  0.3136 -0.1473  0.1545
54793W        W97710  32.718  22.201  31.882  0.0776 -0.0865 -0.0991
54794W        W97711  33.017  24.928  31.598 -0.4822  0.2241  0.0610
54795W        W97712  33.466  22.453   3.840 -0.2063  0.0973  0.3460
54796W        W97713  32.628  23.072   3.442 -0.1883  0.4313 -0.1673
54797W        W97714  32.646  24.535   1.026  0.0427 -0.3454  0.1322
54798W        W97715  32.758  22.589   1.600  0.1228  0.0728 -0.3084
54799W        W97716  34.161  23.180   0.777 -0.0573 -0.4839  0.1260
54800W        W97717  31.406  22.806   2.335  0.3619  0.2579 -0.1207
54801W        W97718  33.491  21.515   1.002 -0.1922  0.1305  0.1016
54802W        W97719  32.916  23.055  31.497  0.1012 -0.2449  0.1570
54803W        W97720  34.125  24.838   3.145  0.3229 -0.1906 -0.2182
54804W        W97721   0.501  25.094   3.194 -0.1399 -0.2913  0.0862
54805W        W97722  31.853  22.976   0.513 -0.2424 -0.0358  0.4678
54806W        W97723   0.250  22.402   1.085  0.1281  0.0597  0.1642
54807W        W97724  34.086  24.532   1.830 -0.1035 -0.3309 -0.2622
54808W        W97725   0.680  25.377   2.401 -0.0771 -0.0383 -0.0129
54809W        W97726  30.872  21.624   2.956 -0.0808 -0.0074  0.2704
54810W        W97727  33.154  24.227   3.104 -0.0151  0.1728 -0.2564
54811W        W97728  33.523  23.024   2.075 -0.1018  0.0917  0.0508
54812W        W97729  32.676  23.975   3.962 -0.0992 -0.1309 -0.2397
54813W        W97730  33.963  21.605  31.800 -0.1061  0.0605  0.3588
54814W        W97731  32.202  23.339   1.571  0.0813  0.0505  0.1404
54815W        W97732  34.528  22.222   0.611  0.0066 -0.0748  0.0266
54816W        W97733  33.080  24.867   1.302 -0.0940  0.0116  0.2565
54817W        W97734  34.089  21.818   0.605  0.2128  0.1086  0.0354
54818W        W97735  33.196  25.914   2.106 -0.0839  0.0916 -0.0073
54819W        W97736  31.944  21.768   1.550  0.1401  0.0503  0.0243
54820W        W97737  33.967  23.678   0.845 -0.1708  0.1875  0.1746
54821W        W97738  33.944  25.845  31.065  0.3345 -0.4010  0.0849
54822W        W97739  33.050  23.645   1.675  0.0134  0.1817 -0.1322
54823W        W97740  34.332  24.378   2.894  0.2482  0.1142  0.1612
54824W        W97741  34.323  23.408   4.559  0.3411  0.1180 -0.3508
54825W        W97742  31.104  22.465   2.654 -0.5696  0.0260  0.1700
54826W        W97743  32.809  24.119   4.406  0.0737 -0.0572  0.2125
54827W        W97744  34.426  23.791   7.700  0.2475 -0.0949 -0.0453
54828W        W97745  34.204  24.529   5.566  0.0025  0.3339  0.1056
54829W        W97746  33.689  25.393   7.115 -0.4193  0.1073 -0.1909
54830W        W97747  31.729  22.235   6.110 -0.0386  0.0737 -0.1095
54831W        W97748  34.332  19.670   6.180  0.0311 -0.2124  0.0681
54832W        W97749  31.719  24.798   3.625 -0.1312  0.1238 -0.0806
54833W        W97750  33.992  22.079   5.522  0.0261  0.3747 -0.1606
54834W        W97751   0.401  22.187   4.848 -0.0127 -0.1002  0.1351
54835W        W97752  33.101  21.827   5.456 -0.2047  0.0216 -0.1815
54836W        W97753  34.199  24.075   4.776 -0.0876 -0.0174  0.0925
54837W        W97754  31.341  22.822   3.676 -0.0705  0.0802 -0.0250
54838W        W97755  31.956  22.230   5.682  0.0963 -0.2572  0.2028
54839W        W97756  34.381  24.533   3.407 -0.0381  0.0172  0.1078
54840W        W97757  33.410  25.675   5.109  0.1008 -0.1367  0.2819
54841W        W97758   1.128  24.601   2.904 -0.2220  0.1156  0.0140
54842W        W97759  34.033  23.781   5.277  0.2296  0.1416  0.0126
54843W        W97760  32.417  26.373   4.932 -0.0187  0.2189  0.0005
54844W        W97761  34.285  25.131   3.643  0.2977 -0.1252 -0.0571
54845W        W97762   0.246  27.251   6.892  0.1812  0.0491 -0.1276
54846W        W97763  33.725  23.892   3.421 -0.1000  0.1376 -0.1785
54847W        W97764  34.474  25.236   5.697  0.1015 -0.2134 -0.0315
54848W        W97765   1.665  25.598   2.512 -0.2575  0.4488 -0.0359
54849W        W97766   0.543  24.713   2.842 -0.4113 -0.0660  0.2313
54850W        W97767  34.624  25.202   6.203 -0.1519 -0.2810 -0.1297
54851W        W97768  32.482  23.517   3.783 -0.3369  0.0455  0.2339
54852W        W97769  33.641  24.139   3.918  0.2156 -0.2638 -0.1152
54853W        W97770  33.232  23.866   4.127 -0.0461 -0.0935 -0.0972
54854W        W97771   1.317  21.230   5.238  0.0497  0.0398  0.2456
54855W        W97772  32.277  24.830   5.092  0.2406  0.0024  0.1278
54856W        W97773  33.865  22.637   6.886  0.1171  0.1211 -0.0902
54857W        W97774  34.623  25.688   4.353  0.4093 -0.1111  0.0034
54858W        W97775  33.835  24.408   4.735 -0.0471 -0.0990  0.1116
54859W        W97776  33.205  23.832   4.618  0.1906  0.0836 -0.0464
54860W        W97777  33.296  22.500   6.149 -0.1684  0.0016 -0.1347
54861W        W97778   0.087  22.232   7.885  0.3391 -0.0740 -0.0018
54862W        W97779   1.088  22.179   3.716 -0.0171 -0.0389  0.3401
54863W        W97780  32.509  26.838   6.705 -0.0278  0.0629 -0.1072
54864W        W97781   0.787  23.974   5.436 -0.0182 -0.1358 -0.2712
54865W        W97782  34.435  23.513   5.500  0.0363 -0.1011 -0.0313
54866W        W97783   1.442  24.798   3.680  0.3800  0.0421  0.0331
54867W        W97784  33.257  24.476   6.107  0.4085 -0.0836 -0.2269
54868W        W97785  33.503  23.798   5.541  0.3612 -0.1123 -0.4780
54869W        W97786  33.297  25.532   8.368  0.0069  0.1020  0.0581
54870W        W97787  32.718  24.908   2.376  0.0412  0.1023  0.2352
54871W        W97788  31.026  24.236   6.088 -0.0463  0.1346 -0.1630
54872W        W97789  33.341  24.611   5.149 -0.3460  0.0592 -0.1541
54873W        W97790  32.515  21.854   6.176 -0.0782  0.1734 -0.1530
54874W        W97791   1.342  24.700   4.221  0.1122 -0.3112 -0.0811
54875W        W97792  32.163  20.097   6.508 -0.0091 -0.0446 -0.0305
54876W        W97793  32.248  23.132   5.187 -0.2718  0.2733  0.1774
54877W        W97794  32.421  24.497   6.579 -0.2395 -0.2934  0.1095
54878W        W97795  33.653  22.842   5.858 -0.2535  0.0078  0.2058
54879W        W97796  33.779  21.929   6.517 -0.0779 -0.2148  0.1706
54880W        W97797  33.765  22.369   5.067  0.0584 -0.0379  0.0610
54881W        W97798  30.682  22.129   4.559 -0.2157  0.0936 -0.3869
54882W        W97799   0.105  24.354   4.807 -0.0845  0.0293  0.2137
54883W        W97800  33.831  24.423   3.384  0.3419  0.1125  0.0609
54884W        W97801  34.049  25.005   5.723  0.0056  0.1391 -0.1725
54885W        W97802  33.363  23.305   2.837 -0.2240  0.2764  0.0982
54886W        W97803  33.302  25.193   5.038 -0.1299  0.2336  0.0801
54887W        W97804   1.047  24.389   3.472 -0.0778  0.0173  0.0582
54888W        W97805  32.344  22.115   3.979 -0.1928  0.3310 -0.0649
54889W        W97806  34.220  23.693   6.722 -0.1429 -0.1151  0.0588
54890W        W97807   0.184  23.407   3.923  0.3699  0.2101 -0.1306
54891W        W97808  34.297  24.272   3.882 -0.1827  0.0019 -0.1706
54892W        W97809  33.520  24.373   5.635 -0.1200 -0.2223  0.0971
54893W        W97810   2.115  25.565   3.003  0.0832 -0.0616  0.1391
54894W        W97811  31.958  23.277   8.043  0.3082  0.0107 -0.1708
54895W        W97812  32.499  22.696   2.871 -0.3633 -0.1044  0.1792
54896W        W97813  34.306  24.463   6.707  0.0937  0.0916 -0.0778
54897W        W97814  33.639  26.266   6.645 -0.0029 -0.0591  0.1140
54898W        W97815   0.700  23.471   2.677 -0.0261  0.1522  0.0972
54899W        W97816   0.368  23.827   3.481  0.1954  0.0195  0.1995
54900W        W97817  31.424  23.457   4.435  0.1840 -0.0303  0.0920
54901W        W97818   0.093  23.205   4.377  0.4196 -0.4685 -0.0283
54902W        W97819  34.065  23.275   5.019  0.1252  0.2515 -0.0762
54903W        W97820  33.798  25.024   3.467  0.2024 -0.0302  0.1436
54904W        W97821  34.001  23.986   7.095 -0.2749  0.0742  0.2917
54905W        W97822  31.675  23.262   3.607 -0.1031  0.1408 -0.2873
54906W        W97823   0.722  23.307   7.115  0.0437 -0.0231  0.1125
54907W        W97824  34.489  24.787   3.975 -0.1835  0.0109  0.1987
54908W        W97825  34.132  26.246   5.414  0.2661  0.5767  0.0565
54909W        W97826   1.529  22.832   4.643  0.2449  0.1787 -0.1931
54910W        W97827  32.989  24.693   3.371 -0.1725 -0.1992 -0.0950
54911W        W97828   1.338  24.169   3.074 -0.2383  0.0360  0.0393
54912W        W97829   0.685  23.489   3.875 -0.0765 -0.1068 -0.2213
54913W        W97830   0.688  24.183   3.735 -0.2283 -0.2292  0.0560
54914W        W97831  33.573  25.323   3.166  0.0277 -0.0923 -0.2388
54915W        W97832  32.744  24.827   3.803 -0.1569  0.1777  0.0941
54916W        W97833  32.813  25.233   2.724  0.1750  0.0031 -0.0439
54917W        W97834   0.380  23.845   4.989  0.1709 -0.2391  0.1399
54918W        W97835  31.991  23.629   3.616 -0.0846 -0.6180  0.1160
54919W        W97836  32.722  22.521   5.290  0.0922  0.3495  0.3791
54920W        W97837   1.569  21.694   5.365  0.0796  0.0228 -0.0592
54921W        W97838  34.361  24.515   5.089 -0.0596 -0.4267  0.1622
54922W        W97839   0.052  23.641   5.891  0.2369  0.2983  0.1212
54923W        W97840  34.604  23.907   2.646  0.2060 -0.0016  0.0673
54924W        W97841  32.542  22.300   4.785  0.0746 -0.1366 -0.0932
54925W        W97842  32.804  22.695   5.906 -0.1236  0.0387  0.1117
54926W        W97843  33.132  23.318   4.801 -0.2774 -0.0187 -0.1027
54927W        W97844   1.179  26.039   5.206 -0.0083 -0.3637 -0.0539
54928W        W97845  34.395  24.707   7.350  0.1122 -0.2082  0.1681
54929W        W97846  33.463  23.504   4.446 -0.1383  0.0598 -0.1063
54930W        W97847  34.081  22.604   5.465  0.3286  0.0257 -0.3251
54931W        W97848  34.624  22.975   3.751 -0.1144  0.1514 -0.0306
54932W        W97849  34.509  23.490   5.019  0.0723 -0.2243 -0.1898
54933W        W97850   0.583  24.371   6.868 -0.1179 -0.0300  0.2454
54934W        W97851  32.620  24.396   3.602  0.0961 -0.0292 -0.0876
54935W        W97852  34.575  23.897   6.308  0.0737 -0.1288 -0.1543
54936W        W97853   1.117  25.105   3.967 -0.2145 -0.1093  0.1221
54937W        W97854   0.360  23.375   5.597 -0.0488  0.2204 -0.0317
54938W        W97855  32.947  24.533   5.751 -0.1282  0.0171 -0.0177
54939W        W97856   1.058  24.668   4.996  0.0522 -0.0818  0.0204
54940W        W97857  33.204  24.026   6.434  0.0583  0.1387  0.0123
54941W        W97858   1.585  25.249   4.686  0.3832 -0.3488 -0.0294
54942W        W97859  33.526  22.026   6.030  0.1255 -0.0300 -0.1617
54943W        W97860  33.867  23.420   6.494  0.1082 -0.0360 -0.0828
54944W        W97861   1.203  25.049   7.984  0.0273 -0.1806  0.0724
54945W        W97862  34.636  22.085   3.874  0.0996  0.1656  0.1668
54946W        W97863  33.122  24.158   5.369 -0.2679 -0.4220  0.0509
54947W        W97864  34.391  23.428   3.642  0.0356  0.0135  0.0302
54948W        W97865  33.100  24.331   4.725  0.0955  0.0357  0.3607
54949W        W97866   0.352  23.939   3.978 -0.0779 -0.2240  0.2589
54950W        W97867  34.094  26.910   4.869  0.0265  0.2336  0.3005
54951W        W97868  33.291  21.688   4.881 -0.1812 -0.0493  0.0019
54952W        W97869   1.591  23.800   4.767 -0.0228  0.0470  0.0281
54953W        W97870   0.220  23.443   6.338  0.0431 -0.1584 -0.1689
54954W        W97871  31.901  22.715   6.084 -0.0907  0.0778 -0.3053
54955W        W97872  33.708  21.476   4.917 -0.3522 -0.0394 -0.0556
54956W        W97873  34.238  25.145   2.134 -0.0262  0.1811  0.2765
54957W        W97874  33.140  22.682   4.103  0.0912 -0.0306 -0.0859
54958W        W97875   0.575  24.325   6.208 -0.2783 -0.1839  0.2723
54959W        W97876  33.090  22.931   3.650 -0.1143  0.0443 -0.0411
54960W        W97877   0.605  24.656   4.742  0.1811 -0.0504 -0.1331
54961W        W97878   1.650  24.298   4.405 -0.1025  0.1687  0.0122
54962W        W97879  32.038  22.309   4.721  0.0906  0.2042  0.0455
54963W        W97880  31.840  23.844   4.247  0.4056 -0.3143  0.0186
54964W        W97881   0.282  24.949   5.696 -0.0907 -0.0067 -0.0284
54965W        W97882  32.607  26.017   6.519 -0.2119  0.2477 -0.0680
54966W        W97883  32.413  26.760   5.294 -0.5259  0.0561  0.1994
54967W        W97884   2.191  24.555   3.653  0.0949  0.3309 -0.0766
54968W        W97885  34.648  23.806   4.631  0.1004 -0.0064  0.2961
54969W        W97886  33.505  24.890   4.707 -0.0307 -0.1568  0.2106
54970W        W97887  33.193  23.015   5.931 -0.0877 -0.0959  0.0200
54971W        W97888  32.213  22.305   2.483  0.0898  0.1016 -0.0990
54972W        W97889  32.907  25.571   5.175  0.2204  0.0470  0.0915
54973W        W97890  34.155  23.669   5.988 -0.0036  0.1190  0.0879
54974W        W97891   1.818  25.174   3.344  0.0924 -0.3025 -0.1609
54975W        W97892  34.180  23.497   3.180 -0.5321  0.0623  0.1685
54976W        W97893   0.813  24.690   3.832 -0.2015  0.2119 -0.2649
54977W        W97894  32.751  23.672   4.763 -0.0547 -0.0188  0.2567
54978W        W97895  34.632  26.364   4.579  0.2382  0.1987 -0.0230
54979W        W97896  34.411  22.719   6.852 -0.1820 -0.1031 -0.2163
54980W        W97897  33.756  22.138   4.185  0.1406 -0.0153  0.0064
54981W        W97898   0.549  27.073   6.106 -0.1843  0.0840  0.0281
54982W        W97899  34.534  24.794   5.904  0.0929 -0.2692  0.0580
54983W        W97900  32.739  22.559   3.776 -0.2917 -0.3248  0.1101
54984W        W97901  34.153  23.420   2.713 -0.3114 -0.0658 -0.2112
54985W        W97902  33.964  24.381   4.211  0.0092 -0.1382 -0.0987
54986W        W97903   1.036  24.535   5.454 -0.2002  0.0455 -0.0632
54987W        W97904  32.963  23.442   3.645  0.1140 -0.1697 -0.0447
54988W        W97905   0.545  24.340   5.652  0.1876 -0.0989 -0.3838
54989W        W97906  33.254  22.595   1.771 -0.0717  0.4512  0.2823
54990W        W97907  33.465  23.834   7.377 -0.1068  0.0809 -0.0571
54991W        W97908  33.184  22.761   5.483  0.1220  0.1588  0.1400
54992W        W97909   0.142  23.066   5.246 -0.0100  0.1272 -0.1036
54993W        W97910  33.867  22.663   1.818 -0.1647  0.1204 -0.0987
54994W        W97911  32.313  22.816   5.800 -0.2895  0.1092  0.0466
54995W        W97912  34.499  23.984   5.183 -0.1036 -0.1226 -0.0309
54996W        W97913   0.196  24.650   4.446  0.0813  0.0710  0.0575
54997W        W97914  34.298  20.509   6.638 -0.3768  0.0366  0.2132
54998W        W97915  33.319  26.020   3.520  0.1209 -0.1665 -0.1674
54999W        W97916  33.075  23.725   5.118  0.2762 -0.0238 -0.0304
55000W        W97917   0.192  22.228   4.363  0.0202  0.1381 -0.0693
55001W        W97918  32.969  23.452   4.371 -0.2069  0.0934 -0.1285
55002W        W97919  32.750  24.657   5.220 -0.2698 -0.0117  0.2181
55003W        W97920   0.362  25.190   1.554  0.3051 -0.2318  0.0015
55004W        W97921   1.881  26.804   5.797  0.2622  0.0142 -0.0741
55005W        W97922  34.394  25.723   7.563 -0.2109 -0.2235 -0.3316
55006W        W97923  33.635  24.024   4.448  0.0476 -0.2241  0.1520
55007W        W97924   1.781  24.267   4.852 -0.1328  0.2781 -0.2184
55008W        W97925  34.146  25.557   5.554 -0.1889  0.3386 -0.1600
55009W        W97926  34.510  25.511   3.872  0.1493  0.0436  0.0667
55010W        W97927   0.505  23.023   3.826 -0.2744 -0.1472 -0.0105
55011W        W97928  33.660  20.272   5.918 -0.1858  0.1252 -0.2078
55012W        W97929   0.075  24.288   6.038  0.1124  0.2290  0.1006
55013W        W97930  34.372  24.509   4.580  0.3315 -0.1463  0.0154
55014W        W97931   0.023  24.113   2.204  0.0501 -0.1773 -0.2150
55015W        W97932  33.926  25.542   5.002 -0.4487  0.0512 -0.0202
55016W        W97933   0.126  20.731   6.552 -0.0537  0.3369  0.0312
55017W        W97934  33.437  24.890   6.401  0.0412  0.0695 -0.3156
55018W        W97935  32.004  24.625   3.993 -0.3231  0.2711  0.2028
55019W        W97936  32.693  22.731   4.389 -0.0164 -0.1898 -0.0360
55020W        W97937  33.886  22.366   5.945 -0.0899  0.2589  0.1514
55021W        W97938  33.875  23.427   3.599  0.2569  0.2273 -0.0673
55022W        W97939  34.394  22.005   4.762  0.3286 -0.0545 -0.1826
55023W        W97940  32.678  23.191   1.522 -0.1960  0.2898 -0.1748
55024W        W97941  33.602  23.611   6.159  0.1846 -0.3492 -0.0969
55025W        W97942  32.911  22.366   6.846  0.4028 -0.0900 -0.0775
55026W        W97943  34.202  20.985   2.542  0.1834  0.0351 -0.2913
55027W        W97944  34.333  23.044   5.340 -0.0123  0.2602  0.1259
55028W        W97945   0.577  24.441   4.211  0.1971  0.0707  0.0938
55029W        W97946   0.880  26.076   6.220 -0.0769 -0.2696 -0.0991
55030W        W97947  33.068  18.949   6.574  0.0516  0.2529 -0.4546
55031W        W97948   0.683  23.047   5.302 -0.1303 -0.2361  0.0583
55032W        W97949  33.540  23.005   6.328 -0.3130  0.1864 -0.0303
55033W        W97950  32.642  23.400   6.525  0.0429  0.3007 -0.0370
55034W        W97951  33.280  21.951   4.347 -0.3113  0.0438 -0.0793
55035W        W97952  33.815  24.727   5.275  0.1184  0.0309 -0.0975
55036W        W97953  33.646  21.630   5.724 -0.2774  0.2001  0.1296
55037W        W97954  33.533  22.388   5.582  0.0163  0.3761  0.1833
55038W        W97955   0.177  24.340   3.618 -0.3820 -0.1261 -0.1921
55039W        W97956   0.285  24.787   6.191 -0.0895  0.0784 -0.1714
55040W        W97957  32.686  20.872   5.506 -0.3682  0.2929  0.1629
55041W        W97958  33.311  23.000   4.426  0.2179  0.0334  0.0664
55042W        W97959  34.411  25.465   4.756  0.0623  0.0961  0.1332
55043W        W97960  33.606  21.890   5.271 -0.2803  0.0572  0.0304
55044W        W97961  33.889  25.656   6.631 -0.1680  0.3666  0.0245
55045W        W97962  34.281  25.778   8.780  0.0807 -0.0213 -0.0225
55046W        W97963  33.558  23.204   7.969  0.0399 -0.1754  0.2790
55047W        W97964   0.463  22.105  10.002  0.2442  0.0786  0.3432
55048W        W97965   0.470  23.052   9.413  0.1857 -0.0004  0.2045
55049W        W97966   2.207  24.332   5.134  0.0451  0.0047  0.2856
55050W        W97967  31.621  22.016   8.487 -0.2460 -0.0789 -0.0380
55051W        W97968  33.120  23.315   7.761 -0.0677 -0.0667 -0.0997
55052W        W97969  33.485  23.706   8.773 -0.1459 -0.0045  0.7167
55053W        W97970   1.625  23.128   8.336  0.0697 -0.2127 -0.3319
55054W        W97971   0.533  22.550   9.636  0.2693  0.0673  0.2368
55055W        W97972  34.547  25.714   6.846  0.1015  0.0834 -0.1225
55056W        W97973   0.219  23.897   5.498 -0.0532 -0.0569  0.1952
55057W        W97974  30.973  24.005   7.792 -0.3008 -0.3783 -0.0331
55058W        W97975  32.750  24.080   8.813 -0.3328 -0.1648  0.3029
55059W        W97976  34.408  26.273   8.265  0.2997 -0.1743 -0.1860
55060W        W97977   1.211  25.554   7.915  0.0463  0.1386 -0.3146
55061W        W97978  33.784  24.596   8.158  0.0781 -0.1402 -0.0865
55062W        W97979  33.121  25.757   7.926 -0.2184 -0.0166  0.1339
55063W        W97980  33.038  24.544   9.081  0.0845 -0.4034  0.0036
55064W        W97981  34.358  24.549   8.284 -0.1417 -0.1611 -0.0724
55065W        W97982   0.123  23.451   7.685  0.0553 -0.1949  0.0033
55066W        W97983   0.434  25.241   8.103  0.1439 -0.1785  0.1175
55067W        W97984  33.267  24.453   8.114 -0.3313 -0.0202  0.1190
55068W        W97985  32.222  23.983   6.616 -0.1085 -0.0116  0.2134
55069W        W97986   0.283  23.393   4.837  0.2389 -0.0135  0.0434
55070W        W97987   0.836  21.538   6.570 -0.1444 -0.0458 -0.0182
55071W        W97988  32.731  25.791   9.089 -0.1760  0.2105  0.0576
55072W        W97989   2.014  22.084   8.992  0.0528  0.0401 -0.2441
55073W        W97990  31.883  25.393   9.044 -0.0063  0.1499  0.1046
55074W        W97991  32.992  23.173   8.259  0.0697  0.1224 -0.2936
55075W        W97992  33.005  22.973   6.360  0.3317 -0.2710 -0.2407
55076W        W97993  33.293  20.594   5.582 -0.0408 -0.1860  0.1837
55077W        W97994  33.983  24.922   8.494  0.1318 -0.0998 -0.0788
55078W        W97995  33.828  24.321   8.644 -0.0525 -0.0073  0.0550
55079W        W97996  33.618  25.433   9.263  0.3159 -0.2447  0.0731
55080W        W97997  32.410  25.376   9.387  0.0959 -0.0021 -0.1114
55081W        W97998  33.755  25.894   7.001 -0.1693  0.0549 -0.0852
55082W        W97999  33.475  24.693   9.288  0.3388 -0.3926 -0.2556
55083W        W98000  33.778  24.490   6.684 -0.3007  0.0247  0.1371
55084W        W98001  31.920  22.960   8.949 -0.0110  0.1610 -0.1532
55085W        W98002  31.142  24.760   8.257  0.1156 -0.1970  0.0390
55086W        W98003  34.232  24.617   8.790  0.2690 -0.1593 -0.1864
55087W        W98004  32.718  23.301   9.707  0.2812  0.1181 -0.3429
55088W        W98005  33.612  23.368   7.523 -0.0066 -0.3532 -0.0105
55089W        W98006  34.347  23.550   9.719  0.1693 -0.0843  0.2085
55090W        W98007  32.198  22.617   5.385 -0.1092 -0.1113  0.3483
55091W        W98008  33.922  23.232   6.047 -0.1886 -0.0143 -0.3609
55092W        W98009  32.366  24.050   7.983  0.3203 -0.1107  0.1778
55093W        W98010   0.064  22.938   7.630  0.0385 -0.0082 -0.0805
55094W        W98011   0.028  22.614   6.064 -0.0096  0.2679 -0.1782
55095W        W98012  33.425  26.201   7.214 -0.4328 -0.0587 -0.0100
55096W        W98013  33.764  24.273   7.666 -0.0763  0.2453 -0.0846
55097W        W98014  33.363  22.816   8.421  0.0226  0.0563  0.0506
55098W        W98015   0.677  22.524   6.144  0.0512  0.0698  0.1107
55099W        W98016  34.362  25.860   5.151 -0.0926  0.3005  0.1428
55100W        W98017  33.025  23.623   6.925  0.3362  0.1350 -0.0824
55101W        W98018  33.672  24.183   6.273 -0.1528  0.1539  0.0684
55102W        W98019  34.105  23.296   7.725 -0.2751 -0.0188 -0.3532
55103W        W98020   0.160  22.720   7.177 -0.0097  0.1617 -0.2128
55104W        W98021   1.207  25.973   9.693  0.1102 -0.2349  0.4316
55105W        W98022  33.168  22.789   7.940  0.0051 -0.0157 -0.2368
55106W        W98023   2.078  20.213   9.382 -0.2859 -0.2278 -0.3433
55107W        W98024  33.974  23.369   5.529 -0.2804 -0.2924 -0.0530
55108W        W98025  34.164  27.082   5.905  0.0806 -0.0965 -0.1336
55109W        W98026  34.346  22.536   7.325  0.1211  0.1302 -0.0409
55110W        W98027  33.066  23.957   9.147  0.1722  0.0687 -0.1051
55111W        W98028  32.608  24.361   9.211  0.2074  0.0763  0.2028
55112W        W98029   0.525  26.830   6.973 -0.1116  0.0356 -0.2920
55113W        W98030   0.472  23.950   6.535  0.0095 -0.0935 -0.3889
55114W        W98031   3.349  21.666   8.567  0.2939 -0.1598 -0.1070
55115W        W98032   0.194  25.834   7.688  0.2099 -0.1471 -0.0487
55116W        W98033  34.662  25.112   7.093  0.2221 -0.2586 -0.0188
55117W        W98034   0.258  26.047   6.722 -0.1560 -0.0985  0.3152
55118W        W98035  33.341  23.565   8.264 -0.0259 -0.0941 -0.4939
55119W        W98036  33.920  22.277   7.332 -0.2626  0.0377  0.3200
55120W        W98037  31.954  25.374   7.655 -0.1934  0.0254  0.2973
55121W        W98038  33.502  21.926   7.982 -0.0860 -0.1687  0.3021
55122W        W98039   2.336  23.150   9.294 -0.0779  0.1852 -0.2504
55123W        W98040  32.312  23.743   8.474 -0.0774  0.1832 -0.2780
55124W        W98041  33.969  23.842   7.569 -0.1052  0.1000  0.0694
55125W        W98042   0.487  22.793   8.389 -0.0805 -0.2642  0.0431
55126W        W98043  33.184  24.674   7.252  0.3520  0.0313 -0.1673
55127W        W98044  33.664  24.080   8.254 -0.2832  0.1332  0.1447
55128W        W98045  34.319  23.547   7.265  0.0337 -0.0755  0.1459
55129W        W98046  33.319  23.908   7.922 -0.3324  0.1025 -0.0422
55130W        W98047   0.555  22.926   6.377  0.0367  0.4576 -0.2172
55131W        W98048   0.877  25.291   9.116 -0.0458  0.2548  0.2298
55132W        W98049   0.581  23.556   9.364  0.1506 -0.4830 -0.2549
55133W        W98050   0.593  23.419   6.056 -0.1837 -0.2618  0.0377
55134W        W98051  32.979  22.933   8.704  0.0666  0.1333 -0.0455
55135W        W98052  33.318  25.231   7.920 -0.2260  0.1762  0.1068
55136W        W98053   1.384  22.479   9.555  0.1603 -0.0979  0.0176
55137W        W98054   0.978  22.411   9.895  0.0463 -0.3337  0.0780
55138W        W98055  34.222  24.224   6.228 -0.0256 -0.0088 -0.1832
55139W        W98056  32.448  23.142  10.201 -0.1222 -0.1145 -0.1611
55140W        W98057   1.025  22.717   4.854  0.2705  0.0483  0.3449
55141W        W98058  31.696  21.485   8.524 -0.1287 -0.0588  0.0402
55142W        W98059  33.636  22.197   6.926 -0.0855  0.2325  0.1697
55143W        W98060   0.087  22.352   9.704  0.1695  0.1233 -0.0893
55144W        W98061   0.718  26.291   6.713 -0.0828 -0.1301  0.1761
55145W        W98062   1.883  22.933   8.889  0.0158  0.0839  0.1902
55146W        W98063   1.187  26.115   8.015 -0.1146 -0.2726  0.0514
55147W        W98064  33.899  25.661   7.494  0.4173  0.1474  0.2246
55148W        W98065   1.624  21.990   9.328 -0.2191 -0.0248 -0.1668
55149W        W98066   0.713  22.320   8.413  0.0989  0.0879 -0.0030
55150W        W98067  34.548  24.537   7.843  0.1461  0.0671 -0.3221
55151W        W98068  33.390  21.842   8.618  0.0082  0.0644  0.4179
55152W        W98069   0.600  25.155   4.927 -0.0030  0.1663  0.0648
55153W        W98070  33.781  23.381   8.944 -0.0305 -0.1382  0.3623
55154W        W98071   3.051  24.675   9.460  0.1799 -0.0161  0.0910
55155W        W98072   0.990  22.167   6.346  0.1110 -0.2217  0.0723
55156W        W98073  33.285  24.372   6.758 -0.4389  0.1482  0.4163
55157W        W98074  33.627  25.611   7.924 -0.0480 -0.2874 -0.1973
55158W        W98075  33.823  23.631   8.042  0.1623  0.1145 -0.1643
55159W        W98076  34.074  24.721   7.799 -0.0762  0.0604  0.0860
55160W        W98077  32.443  23.157   8.832 -0.1445  0.2464  0.0557
55161W        W98078  34.372  22.722   9.135  0.0290 -0.1163  0.2422
55162W        W98079  34.290  22.415   6.296  0.2851 -0.4890  0.2858
55163W        W98080  33.147  23.733   9.635 -0.1709  0.0048 -0.2431
55164W        W98081  31.371  25.737   8.373 -0.2732  0.2657  0.1701
55165W        W98082   0.327  22.999   5.949 -0.1818 -0.0794 -0.0378
55166W        W98083   0.499  24.418   8.892 -0.0685  0.2535  0.1173
55167W        W98084  33.517  24.341   7.193 -0.1640  0.0205 -0.1827
55168W        W98085  33.654  26.721   8.448  0.1542  0.0652 -0.1650
55169W        W98086   0.651  21.961   8.775  0.1023 -0.0100 -0.1748
55170W        W98087  34.372  22.389   5.775 -0.1639  0.1392  0.0132
55171W        W98088  33.445  21.159   6.849 -0.1534  0.0207 -0.0860
55172W        W98089  34.328  23.049   7.345 -0.1620 -0.0640 -0.1034
55173W        W98090   1.309  24.259   5.129  0.1778  0.0761 -0.1850
55174W        W98091  33.403  25.111   7.415 -0.2749 -0.0251  0.3195
55175W        W98092  33.534  26.862   9.536  0.0633  0.0295  0.1297
55176W        W98093  33.614  25.228   8.777  0.0772  0.4106  0.1107
55177W        W98094  32.175  23.269   5.992  0.2633  0.3583  0.2477
55178W        W98095   3.603  23.863   9.618 -0.2724 -0.0837  0.0427
55179W        W98096   0.455  25.330   7.594 -0.2721 -0.0080 -0.5235
55180W        W98097   2.319  22.557   9.227 -0.0612  0.0566 -0.1029
55181W        W98098   0.080  22.539   5.117  0.0548 -0.0860  0.1492
55182W        W98099  34.101  22.986   8.288  0.0623 -0.3420  0.3966
55183W        W98100  33.733  22.460   6.432 -0.3276 -0.1789 -0.1104
55184W        W98101  34.634  23.149   9.460 -0.0932  0.1066  0.0826
55185W        W98102  33.868  22.824   7.510  0.1577 -0.1638  0.3001
55186W        W98103   0.312  28.069   7.006  0.2002 -0.3506 -0.2766
55187W        W98104  32.656  24.348   7.509  0.2320 -0.0923  0.0966
55188W        W98105   0.756  22.176   5.781 -0.1765 -0.0777 -0.0730
55189W        W98106  31.856  24.887   8.906  0.2968 -0.2618 -0.0054
55190W        W98107  34.612  24.924   6.600 -0.1764  0.0770  0.2060
55191W        W98108  33.878  24.965   7.359  0.0594  0.2249 -0.1188
55192W        W98109   1.250  25.537   9.341 -0.2915  0.0026  0.1324
55193W        W98110  34.438  24.016   5.662  0.1166 -0.1589 -0.3087
55194W        W98111   0.075  23.857   7.359  0.0976  0.0594 -0.5651
55195W        W98112   0.083  24.889   8.195  0.0026 -0.3322 -0.1854
55196W        W98113  34.314  24.084   8.582 -0.2239  0.0693 -0.1622
55197W        W98114   0.783  24.047   7.752  0.3512 -0.1100 -0.0403
55198W        W98115   3.324  24.693   8.971 -0.0405  0.1932 -0.0412
55199W        W98116  32.818  23.697   7.991 -0.0292  0.2779  0.3577
55200W        W98117  33.389  22.931   7.530  0.1487  0.0206 -0.1396
55201W        W98118  33.584  24.999   9.687 -0.1979 -0.2522  0.2211
55202W        W98119  30.751  21.095   9.067 -0.2840 -0.0992  0.1092
55203W        W98120   0.450  21.304   9.430  0.3029  0.3870 -0.0396
55204W        W98121  33.141  23.966   8.422  0.1621  0.0251 -0.1385
55205W        W98122   1.024  22.299   8.897 -0.0011  0.2043  0.1594
55206W        W98123   0.601  21.463   8.031 -0.1402 -0.1146 -0.1641
55207W        W98124  32.516  23.687   6.052  0.0530  0.2003 -0.3163
55208W        W98125  32.987  21.288   6.449  0.2746  0.0110 -0.1411
55209W        W98126   1.510  27.105  12.127 -0.1421 -0.2263  0.1906
55210W        W98127   0.178  22.700   9.257 -0.0298  0.2217  0.1205
55211W        W98128  33.291  22.690   6.652 -0.3162 -0.0143  0.2122
55212W        W98129  32.831  22.388   7.890  0.0502 -0.2798 -0.0845
55213W        W98130   0.069  24.350   7.417 -0.0851 -0.0051 -0.1700
55214W        W98131   0.149  25.568   7.274 -0.1781 -0.1138 -0.2881
55215W        W98132   1.725  25.833   7.333 -0.0798 -0.0727  0.3224
55216W        W98133   2.151  20.476   8.916  0.1030 -0.0857 -0.2729
55217W        W98134  34.286  23.483   9.239 -0.3585  0.2379  0.1987
55218W        W98135   0.372  26.153   9.059  0.3263 -0.1316 -0.4193
55219W        W98136   0.129  21.989   8.674  0.2095 -0.1580 -0.0557
55220W        W98137   0.075  27.192   9.096 -0.1391  0.2125 -0.1932
55221W        W98138  33.923  26.853   0.788 -0.0860 -0.0611  0.4205
55222W        W98139  34.218  26.270  31.272 -0.0187 -0.4479  0.2940
55223W        W98140  32.151  27.526  31.912  0.0548  0.0569 -0.0022
55224W        W98141  33.326  24.442   2.691 -0.1136 -0.1417  0.0250
55225W        W98142   0.374  24.636   2.339  0.5076 -0.0401  0.0933
55226W        W98143  32.919  28.140   1.774  0.2333 -0.1822  0.4330
55227W        W98144   0.266  22.888  31.493 -0.0959 -0.2002 -0.0165
55228W        W98145  32.926  25.506   1.866 -0.1234 -0.1769 -0.2543
55229W        W98146  31.255  27.429   1.273  0.0120  0.0119  0.0860
55230W        W98147  31.883  26.355   1.479  0.1556  0.1301  0.1913
55231W        W98148  34.571  26.159   0.337 -0.2479 -0.1950 -0.1875
55232W        W98149  33.777  25.235   2.398 -0.1687  0.1394 -0.1202
55233W        W98150  34.358  27.764   1.660 -0.0205  0.3249  0.0344
55234W        W98151  34.632  26.121  31.498 -0.0317  0.1706  0.3173
55235W        W98152  32.408  25.669   2.113  0.1083 -0.1089  0.2056
55236W        W98153  32.966  26.824  31.952 -0.1536  0.4034  0.0863
55237W        W98154   0.765  28.759   1.364 -0.0795 -0.2851 -0.1769
55238W        W98155   1.236  29.060   2.646 -0.4082 -0.0244  0.1021
55239W        W98156  33.942  27.400   2.003 -0.0203  0.1869  0.1560
55240W        W98157  33.859  28.090   2.242 -0.1478 -0.0427  0.0764
55241W        W98158  33.577  29.020   0.210  0.0221 -0.1992 -0.3106
55242W        W98159   0.069  29.393   2.016 -0.0357 -0.1533 -0.2540
55243W        W98160  34.545  28.216  31.424 -0.1373 -0.0932  0.0363
55244W        W98161  34.118  29.247   3.880  0.1318  0.1894  0.0082
55245W        W98162  34.382  27.901  31.003 -0.0452  0.0442  0.1723
55246W        W98163  34.647  29.533   1.024  0.2331 -0.0888 -0.1500
55247W        W98164  34.414  26.713   3.112  0.2254  0.0861 -0.4105
55248W        W98165  33.266  27.321   2.400  0.3340 -0.0334 -0.0367
55249W        W98166  34.111  27.240   0.230 -0.1284  0.0995 -0.1397
55250W        W98167  34.147  26.448   0.705  0.0950 -0.0396  0.1995
55251W        W98168   0.130  26.374   1.415 -0.2256  0.0952 -0.0793
55252W        W98169  34.081  29.192   1.326  0.1547 -0.0595 -0.0557
55253W        W98170  34.235  27.241   0.909 -0.1116  0.0854  0.0548
55254W        W98171  33.478  28.180   1.603  0.3983 -0.1479 -0.1061
55255W        W98172  30.720  26.394   2.265  0.0404 -0.0816 -0.0725
55256W        W98173  31.133  25.487  31.636  0.1370  0.0487 -0.1232
55257W        W98174  32.702  27.588   3.198 -0.1128  0.0040  0.0632
55258W        W98175  33.840  26.561   4.043  0.0798 -0.0575  0.1224
55259W        W98176  34.333  25.117  30.551  0.0557 -0.2415 -0.1256
55260W        W98177  34.140  30.707   2.850  0.1992 -0.3684 -0.3115
55261W        W98178  33.268  27.446   0.989 -0.0135 -0.2211 -0.0001
55262W        W98179  34.220  27.880  31.598 -0.0713 -0.0338  0.1709
55263W        W98180  31.278  25.412   0.415  0.0728 -0.2134  0.4383
55264W        W98181  33.906  27.875   1.801 -0.2892 -0.0299  0.2306
55265W        W98182  34.273  26.442   2.259  0.0665  0.1157 -0.0871
55266W        W98183  34.520  26.212   3.139 -0.1504  0.0992  0.2810
55267W        W98184  32.350  28.136  31.257 -0.0824  0.0953  0.0380
55268W        W98185  32.033  28.507   3.312 -0.1387 -0.3224  0.2322
55269W        W98186  33.613  26.328   0.382  0.1374  0.0045  0.0804
55270W        W98187  32.269  26.129   3.312  0.1936  0.1483 -0.0392
55271W        W98188  31.968  27.201   3.063 -0.1252  0.1694  0.1832
55272W        W98189  33.948  25.539   0.906  0.3317  0.4035  0.0498
55273W        W98190  32.454  27.321   0.889 -0.1129  0.0900 -0.0830
55274W        W98191  33.075  28.291   1.287  0.1588  0.0184  0.0294
55275W        W98192  32.502  26.572   0.088 -0.1834  0.4173  0.2645
55276W        W98193  34.066  24.713   3.759 -0.0127  0.0629 -0.0141
55277W        W98194  32.750  27.470   2.467  0.2246 -0.1009  0.0007
55278W        W98195  31.917  26.154   0.539 -0.0193  0.0788 -0.2955
55279W        W98196  31.678  26.696   1.107  0.0830 -0.1463 -0.0517
55280W        W98197  32.747  27.367   0.210 -0.2094  0.3882  0.0585
55281W        W98198  31.654  27.567   2.192 -0.0202  0.1380  0.2944
55282W        W98199  33.966  26.696   0.130  0.0507 -0.1153 -0.1630
55283W        W98200  31.726  29.481   1.296 -0.3648  0.0737 -0.1636
55284W        W98201  33.356  26.752   1.883  0.0577  0.2385 -0.0332
55285W        W98202   0.144  24.480  31.675 -0.3464  0.0127  0.0727
55286W        W98203  32.680  29.492   1.055  0.3998  0.0631 -0.0048
55287W        W98204  31.864  26.147  29.933  0.1521  0.1900 -0.1765
55288W        W98205  32.940  27.932   0.989  0.2375  0.1468 -0.2944
55289W        W98206  31.000  27.288   0.847  0.0289 -0.0961  0.0225
55290W        W98207  30.957  30.326   0.168 -0.1348  0.0740  0.5738
55291W        W98208  33.095  26.518   3.546 -0.0413 -0.0610 -0.5263
55292W        W98209  32.713  27.755  31.867 -0.2624 -0.4447  0.0968
55293W        W98210   0.878  29.652   3.361  0.0248  0.4048  0.0789
55294W        W98211  34.371  29.681   3.957  0.1968  0.0415 -0.2848
55295W        W98212   0.312  28.207   0.310 -0.0603 -0.0777  0.0223
55296W        W98213  33.114  28.042  31.743  0.0077  0.2402 -0.1893
55297W        W98214  31.323  29.813   3.013  0.1626  0.2289  0.3483
55298W        W98215  34.248  26.907   2.076 -0.2197  0.1201  0.0758
55299W        W98216   0.384  27.175  30.725  0.2415 -0.1095  0.0696
55300W        W98217  31.337  29.374   0.252  0.1063 -0.1724  0.0524
55301W        W98218  32.739  26.073   2.332 -0.0189  0.1143 -0.2352
55302W        W98219  33.024  27.496  31.062 -0.1000  0.0273  0.0140
55303W        W98220  33.565  25.659   1.846 -0.0134  0.0120  0.2637
55304W        W98221  33.259  27.986  31.241 -0.2915  0.0340 -0.1607
55305W        W98222  34.186  27.697   2.304  0.3151  0.1148 -0.2654
55306W        W98223   1.283  26.267   3.131  0.0142  0.1303  0.2694
55307W        W98224  33.229  29.564  30.442  0.0012  0.0478 -0.2909
55308W        W98225   0.318  27.656   1.650 -0.4400 -0.1461  0.2451
55309W        W98226   0.975  24.355  30.241  0.0136  0.1137 -0.0473
55310W        W98227   0.371  28.525   2.561  0.1276  0.2329  0.0233
55311W        W98228   0.259  28.081  31.022  0.0638  0.2366 -0.3304
55312W        W98229  33.923  28.471   1.896  0.0043 -0.4645  0.1716
55313W        W98230  34.604  28.619   1.550  0.0408 -0.0057 -0.2611
55314W        W98231  31.560  26.771  31.288  0.1376  0.0109  0.2018
55315W        W98232  32.160  26.731  31.690  0.0283  0.1989 -0.0329
55316W        W98233  33.241  26.967   3.753 -0.2040  0.1310 -0.1431
55317W        W98234  32.958  26.603   0.882 -0.1788  0.0956  0.0119
55318W        W98235  32.722  29.576   1.516 -0.0340  0.0890 -0.0557
55319W        W98236  34.292  26.859   2.605  0.0678  0.0451 -0.0736
55320W        W98237  33.104  26.254  31.843  0.2197  0.1198  0.1557
55321W        W98238  32.007  27.375   1.276  0.3476  0.0916 -0.4271
55322W        W98239  34.023  28.359  31.724 -0.0911 -0.2781  0.1406
55323W        W98240   0.606  26.854   1.246  0.0340  0.1743 -0.6618
55324W        W98241  33.038  28.491   0.017 -0.0490 -0.0885 -0.0378
55325W        W98242  33.617  26.484   3.032 -0.0974 -0.1767 -0.2802
55326W        W98243  33.454  26.833   0.207  0.0729 -0.4355 -0.0024
55327W        W98244  34.163  25.489   0.464  0.1712  0.0287 -0.0125
55328W        W98245  31.734  28.099   0.764  0.0861 -0.2656  0.3050
55329W        W98246  33.441  26.138   1.284 -0.1614 -0.1125  0.1264
55330W        W98247  33.391  29.985   2.887  0.0420  0.1823 -0.1264
55331W        W98248  31.889  27.046  30.453  0.0074 -0.2775 -0.0477
55332W        W98249  32.862  26.493   1.951 -0.2230  0.0680  0.2533
55333W        W98250  32.665  26.039   1.839 -0.0296  0.2474 -0.1631
55334W        W98251   0.945  26.060   1.596  0.4296 -0.1329 -0.1154
55335W        W98252   2.016  28.978   4.036  0.4932  0.0031 -0.3190
55336W        W98253   0.484  28.502  31.892 -0.2444 -0.1844  0.2797
55337W        W98254  34.201  28.791   1.648  0.1601  0.0229 -0.0338
55338W        W98255   0.121  26.697   0.473  0.3106 -0.1002  0.0227
55339W        W98256  32.231  27.708   2.990 -0.1080  0.0397  0.0831
55340W        W98257  30.775  27.733   1.020  0.4870  0.4296  0.0293
55341W        W98258  34.572  28.195   2.511 -0.0930 -0.0798  0.1955
55342W        W98259  34.328  26.995  31.831 -0.0189  0.1730 -0.2966
55343W        W98260   0.102  26.830   2.234 -0.0621 -0.1914 -0.0362
55344W        W98261   0.339  27.153   0.477  0.2288 -0.3994  0.0670
55345W        W98262  34.339  28.107   2.063 -0.2620  0.2348  0.1818
55346W        W98263  33.627  27.622   2.403  0.3761  0.0227  0.0216
55347W        W98264  31.269  28.063   3.035 -0.1431 -0.2699 -0.3157
55348W        W98265  33.988  26.116   1.046 -0.1655  0.0776 -0.0496
55349W        W98266  34.082  25.395   3.194 -0.2147 -0.1018  0.1635
55350W        W98267  33.814  26.020   2.660  0.1610  0.2622  0.0647
55351W        W98268  31.546  27.488   1.713  0.0024 -0.2739 -0.2645
55352W        W98269  33.536  25.968  31.454  0.0659 -0.0826  0.2945
55353W        W98270  34.477  30.198   0.602  0.0857 -0.1787  0.0102
55354W        W98271  32.488  26.458   1.220  0.0777 -0.0366 -0.0084
55355W        W98272   0.735  28.048   3.462  0.0852  0.0849  0.1294
55356W        W98273  33.147  27.833   2.514 -0.2100 -0.2242 -0.1089
55357W        W98274  34.203  27.731   0.683  0.2554 -0.3337 -0.1131
55358W        W98275  33.862  27.446   1.481 -0.0849  0.0151 -0.1027
55359W        W98276  34.207  24.067  31.560  0.0954 -0.1080  0.0287
55360W        W98277  32.062  30.098  30.721 -0.0536 -0.2011 -0.1734
55361W        W98278   0.163  30.388   1.042 -0.0156  0.3021 -0.0611
55362W        W98279  33.784  29.350   2.111  0.1264 -0.2846 -0.0490
55363W        W98280   0.326  27.360  31.253  0.2870  0.0381 -0.1157
55364W        W98281   2.643  27.755   1.241 -0.0142  0.3881  0.1892
55365W        W98282  33.288  26.115   0.711 -0.1258  0.0345 -0.0847
55366W        W98283  34.259  28.292   0.931  0.4145 -0.1010  0.3061
55367W        W98284  31.172  26.627   2.575 -0.0015  0.1567  0.1127
55368W        W98285  34.133  25.242  30.070  0.0077  0.3079 -0.0301
55369W        W98286  33.917  29.007   3.501  0.3826  0.2113  0.0094
55370W        W98287  33.285  28.282   2.083  0.2195 -0.1937 -0.1088
55371W        W98288  32.602  28.222  31.645 -0.0634 -0.0059  0.1956
55372W        W98289   0.588  26.418  31.697 -0.0122 -0.4264 -0.3859
55373W        W98290  32.702  28.549   2.048 -0.2086  0.0441  0.4481
55374W        W98291  33.729  27.924  31.335 -0.0207  0.0303  0.0701
55375W        W98292  33.783  27.639   0.945  0.0674 -0.2067 -0.0433
55376W        W98293  33.116  27.698   0.243  0.2559 -0.1360  0.1792
55377W        W98294  34.163  26.180  29.950  0.0564 -0.1956  0.4448
55378W        W98295  33.818  26.510   1.969 -0.2023  0.0319  0.0768
55379W        W98296  33.014  30.316   2.760 -0.1285 -0.0759 -0.0723
55380W        W98297  32.352  25.496  31.034  0.3451 -0.3518 -0.0212
55381W        W98298  32.608  26.389   0.629 -0.0390  0.0445  0.0653
55382W        W98299  34.158  28.241  30.509 -0.1374  0.4235  0.0245
55383W        W98300  33.707  28.029  31.863  0.2026  0.2518 -0.1238
55384W        W98301  33.378  28.549   0.990  0.2655 -0.1241  0.1919
55385W        W98302   0.847  28.249   2.261 -0.1224  0.0679  0.1748
55386W        W98303  32.834  25.324   0.007 -0.3686 -0.2475  0.0748
55387W        W98304  33.793  28.584   1.290  0.1481 -0.0532 -0.0076
55388W        W98305  32.796  27.512   1.232  0.2834 -0.1492  0.2388
55389W        W98306   0.135  26.482   4.090  0.1677 -0.0359 -0.3553
55390W        W98307   1.079  26.245  31.047 -0.3397  0.2227 -0.1215
55391W        W98308  33.372  25.856   0.257  0.0125  0.3291  0.0949
55392W        W98309  32.983  27.084   0.948  0.2645 -0.0155  0.0575
55393W        W98310  33.396  26.275   2.394  0.2992  0.1666 -0.0874
55394W        W98311  34.181  24.320  30.730 -0.0464  0.0790 -0.1343
55395W        W98312   0.643  28.361   1.060  0.0415 -0.0888 -0.1243
55396W        W98313  32.030  26.650   2.114  0.3346  0.1618  0.2088
55397W        W98314  33.947  25.356  31.259  0.2060 -0.0692 -0.0067
55398W        W98315  32.612  26.972   1.406  0.2128  0.0172 -0.0178
55399W        W98316  34.226  29.326   0.857 -0.1498 -0.0868 -0.2269
55400W        W98317  33.499  28.523   0.463 -0.0815  0.1841  0.2012
55401W        W98318   0.544  28.619   1.997 -0.1125  0.2338  0.2248
55402W        W98319  34.289  30.249   3.055  0.0396  0.0691 -0.0472
55403W        W98320  34.071  26.359  30.393  0.0892  0.3745  0.0389
55404W        W98321  34.232  26.576   1.730  0.1722 -0.0072 -0.1145
55405W        W98322  33.644  27.033   1.189  0.2624 -0.1361 -0.2756
55406W        W98323   0.040  28.408   2.059  0.0670  0.2808  0.1685
55407W        W98324   1.597  27.418   1.328  0.0097 -0.1577 -0.1107
55408W        W98325   0.001  25.715   0.485  0.0505 -0.0781  0.0700
55409W        W98326  32.009  26.708   2.588  0.3586  0.1341  0.1170
55410W        W98327  33.476  27.788   1.990 -0.2227 -0.0905 -0.0245
55411W        W98328   0.274  28.618   0.666 -0.0581  0.2225 -0.0165
55412W        W98329  31.183  27.087   2.353  0.3541  0.0169 -0.0758
55413W        W98330   1.388  26.607   4.081 -0.0196 -0.1822 -0.2929
55414W        W98331  33.134  25.839   1.542 -0.1380 -0.0403  0.1582
55415W        W98332  32.326  25.993   0.779 -0.0419  0.3025  0.0926
55416W        W98333  33.045  25.511   0.466  0.0074 -0.0192  0.0622
55417W        W98334  34.504  24.891  31.440  0.0970 -0.1581 -0.4544
55418W        W98335  31.638  27.169   1.006  0.0822  0.0808 -0.3327
55419W        W98336  33.755  23.272   1.066  0.1325 -0.0893 -0.1240
55420W        W98337  32.689  26.345  31.074 -0.1442 -0.1262  0.0035
55421W        W98338  33.823  25.694   1.394 -0.2433  0.1307  0.0289
55422W        W98339  33.152  24.494   1.670  0.2605  0.2402 -0.0464
55423W        W98340  33.391  24.338  31.911  0.0136  0.1838 -0.1444
55424W        W98341  33.716  27.266   0.645  0.1167 -0.1620  0.3041
55425W        W98342   1.049  27.084   1.342  0.2143  0.3067  0.0747
55426W        W98343   1.307  29.667   3.212 -0.0763 -0.4863  0.4471
55427W        W98344  32.973  26.472   2.499 -0.4254  0.2848 -0.0805
55428W        W98345   0.991  28.780   2.993 -0.1082 -0.0400  0.2393
55429W        W98346  32.466  24.830   3.319  0.1085  0.1150 -0.0249
55430W        W98347  34.313  27.722   3.259 -0.0500  0.0394 -0.0314
55431W        W98348  32.468  26.838   0.909 -0.2090  0.1990  0.0295
55432W        W98349  32.244  26.234   2.799 -0.0656  0.0772 -0.0008
55433W        W98350   0.565  25.752  31.729 -0.3513 -0.0780 -0.0387
55434W        W98351   1.857  26.882   2.862  0.0608  0.0449  0.1183
55435W        W98352   0.864  27.404   0.147 -0.1470  0.2056 -0.0961
55436W        W98353  34.606  29.169   3.029 -0.2763  0.1108 -0.2906
55437W        W98354  32.252  25.482   1.557  0.2900 -0.0382 -0.0795
55438W        W98355  33.226  27.730   1.554  0.0445 -0.0835  0.4242
55439W        W98356  33.889  27.942   1.348 -0.0792 -0.1284  0.2107
55440W        W98357  32.272  25.541   1.077 -0.0365 -0.0973  0.2015
55441W        W98358   1.270  30.103   1.887 -0.0054  0.1529  0.0014
55442W        W98359  33.055  28.610   5.507  0.0279 -0.1869  0.1308
55443W        W98360   1.008  25.805   4.609  0.0625  0.1202 -0.0978
55444W        W98361  33.507  27.933   4.107 -0.3945  0.0797  0.1472
55445W        W98362  32.521  24.495   4.091  0.0966  0.1405 -0.0674
55446W        W98363  33.797  27.765   6.336  0.1628  0.0614 -0.6330
55447W        W98364   0.438  28.973   6.052 -0.1944 -0.2383  0.2048
55448W        W98365  34.082  24.910   4.791  0.1210 -0.1956 -0.0597
55449W        W98366  34.526  22.996   4.862 -0.4188  0.1260  0.2266
55450W        W98367  33.104  28.655   2.368  0.1502  0.1636  0.1709
55451W        W98368  34.179  26.437   4.397  0.0607  0.2539  0.0241
55452W        W98369   0.971  27.028   3.168  0.1681 -0.2614  0.1304
55453W        W98370   1.220  25.254   6.628  0.0999 -0.3214  0.0731
55454W        W98371   2.291  28.262   4.665  0.2289 -0.2775 -0.1736
55455W        W98372  32.557  26.675   2.903  0.1295 -0.0955 -0.2824
55456W        W98373  33.348  27.424   3.891 -0.1171  0.0692  0.1933
55457W        W98374  34.606  26.217   5.614 -0.0198  0.1198  0.0977
55458W        W98375   0.345  29.746   4.091  0.0269  0.0841 -0.2202
55459W        W98376   2.602  28.246   5.627 -0.0963  0.3482 -0.1474
55460W        W98377  32.630  28.532   3.580 -0.1383  0.2775 -0.1906
55461W        W98378  32.069  30.068   2.129  0.4659 -0.0178 -0.1031
55462W        W98379   1.394  28.253   4.915  0.1213  0.0009  0.1506
55463W        W98380   1.236  30.369   5.042  0.0160 -0.1828 -0.0122
55464W        W98381   1.275  29.827   3.908 -0.2551  0.2311  0.2824
55465W        W98382   0.278  29.636   6.356  0.0351  0.0710 -0.0759
55466W        W98383   1.339  27.969   4.016 -0.1999 -0.0747  0.0835
55467W        W98384  32.862  28.342   4.756 -0.2395 -0.1134 -0.0727
55468W        W98385  34.084  27.651   6.690 -0.1129 -0.0777 -0.1481
55469W        W98386   0.458  28.062   4.470  0.1190 -0.0671 -0.2929
55470W        W98387  33.890  29.423   2.805  0.0322 -0.2213 -0.0786
55471W        W98388  33.192  27.758   2.983 -0.0599 -0.1952 -0.1373
55472W        W98389   0.362  25.082   4.516  0.0868  0.0768 -0.0121
55473W        W98390  33.058  30.091   4.841 -0.2486 -0.0080  0.2245
55474W        W98391   0.395  26.338   5.435 -0.0271 -0.3044 -0.4620
55475W        W98392   1.210  29.036   4.780  0.0512 -0.0525 -0.3137
55476W        W98393  32.400  26.845   3.859  0.1396 -0.1479 -0.3031
55477W        W98394  33.006  24.946   1.927  0.2547  0.0727 -0.0518
55478W        W98395  34.444  27.280   6.696 -0.5305  0.0203 -0.0721
55479W        W98396  33.793  25.878   5.396  0.0565 -0.2578  0.1847
55480W        W98397  32.342  27.542   2.217 -0.4310  0.1992 -0.0790
55481W        W98398  33.291  27.827   5.339  0.1489 -0.2541 -0.1717
55482W        W98399  33.811  27.411   4.102  0.2009  0.0376 -0.0047
55483W        W98400   0.433  27.014   3.242 -0.1445  0.0579  0.2006
55484W        W98401  34.033  27.245   2.466  0.1885  0.1162 -0.2486
55485W        W98402  32.216  29.125   4.135 -0.0282  0.2267  0.0196
55486W        W98403  34.584  25.739   5.800  0.2692  0.0077 -0.0658
55487W        W98404   0.450  31.108   5.584 -0.1498  0.0587  0.0343
55488W        W98405   0.233  29.512   3.290 -0.2411  0.0353 -0.1653
55489W        W98406  32.220  28.882   3.600 -0.0477  0.1148 -0.1466
55490W        W98407  33.772  27.381   3.324  0.1178  0.5860 -0.0976
55491W        W98408  33.818  24.612   6.049 -0.1704  0.2963 -0.0143
55492W        W98409   0.020  27.960   4.249 -0.1399 -0.0703  0.1344
55493W        W98410  31.812  26.763   6.692  0.0102  0.0519 -0.0464
55494W        W98411  34.441  29.380   3.532  0.2981  0.0674  0.0701
55495W        W98412  32.118  29.502   5.824 -0.0577  0.0771 -0.0531
55496W        W98413  32.959  25.751   4.232  0.4783 -0.4588 -0.0620
55497W        W98414   0.590  25.923   5.060 -0.3891 -0.0633 -0.3986
55498W        W98415  33.554  24.828   5.687 -0.1714  0.1313 -0.2680
55499W        W98416  34.030  25.642   3.735 -0.3194 -0.2928 -0.3231
55500W        W98417  34.458  26.096   4.111 -0.0269 -0.0674 -0.3390
55501W        W98418  32.220  29.210   3.162  0.3324 -0.3377  0.0219
55502W        W98419  33.159  25.365   4.570  0.2496  0.0704  0.0223
55503W        W98420  33.262  26.706   5.071 -0.0669  0.1736 -0.4527
55504W        W98421  33.123  28.756   4.753 -0.0658  0.0681 -0.1449
55505W        W98422   0.319  28.120   4.983 -0.0666  0.2631 -0.0397
55506W        W98423   0.819  25.390   4.297  0.3078 -0.0227 -0.0451
55507W        W98424  33.167  27.498   5.679 -0.1881 -0.2245 -0.1664
55508W        W98425  33.571  24.422   1.984 -0.2224 -0.1926  0.0910
55509W        W98426  32.526  29.892   2.444 -0.1268  0.0309 -0.1594
55510W        W98427  33.616  26.500   3.577 -0.1510 -0.0022  0.1764
55511W        W98428   0.070  29.796   3.661 -0.1493 -0.0721 -0.0821
55512W        W98429  32.833  27.443   5.144  0.0598 -0.1533 -0.1047
55513W        W98430  34.281  25.968   4.619  0.0736  0.1335  0.0420
55514W        W98431  33.493  29.296   4.545 -0.2642  0.0012  0.0951
55515W        W98432  32.459  28.823   4.446 -0.1098  0.2830 -0.3085
55516W        W98433   0.929  27.426   5.518  0.1762  0.0400  0.0955
55517W        W98434   0.495  27.503   4.118  0.2608  0.1949  0.0466
55518W        W98435  33.268  28.386   5.113  0.1196 -0.0427  0.1100
55519W        W98436   0.149  24.398   6.527 -0.1437 -0.0720 -0.1041
55520W        W98437  33.875  27.012   2.884  0.0338  0.0819  0.0694
55521W        W98438  32.201  29.821   5.418 -0.1210 -0.2270  0.0504
55522W        W98439   1.309  26.535   6.763  0.1523  0.2739  0.4034
55523W        W98440  33.082  28.266   0.651 -0.1089  0.3488 -0.0014
55524W        W98441   1.017  26.672   4.452 -0.0836  0.0728  0.1221
55525W        W98442  34.635  27.971   3.683  0.0528  0.0216  0.0744
55526W        W98443  33.029  26.709   4.485 -0.0458 -0.0297 -0.0852
55527W        W98444   0.424  26.832   5.255 -0.1697 -0.2902 -0.0655
55528W        W98445   0.502  28.612   3.367  0.0776  0.0072 -0.0972
55529W        W98446   1.683  28.411   2.324  0.2876 -0.1834  0.0893
55530W        W98447   0.965  25.027   5.328 -0.0685 -0.2957  0.3036
55531W        W98448   0.610  28.918   3.892  0.0994 -0.0825 -0.1218
55532W        W98449   1.799  29.100   3.506 -0.1150 -0.1379  0.1024
55533W        W98450  32.790  28.954   2.862 -0.0916 -0.1660 -0.1113
55534W        W98451  32.216  30.118   4.404  0.0550  0.0323  0.0775
55535W        W98452  33.602  24.089   2.981  0.1633 -0.2446  0.0671
55536W        W98453  33.827  27.693   3.702  0.1299  0.0787  0.2968
55537W        W98454  33.137  24.916   5.417  0.0699  0.0969 -0.3268
55538W        W98455  34.471  29.381   4.841  0.0086 -0.2529 -0.2008
55539W        W98456  32.658  29.789   4.707 -0.3114  0.0818  0.1221
55540W        W98457  34.256  28.186   4.516  0.2133 -0.0770 -0.2864
55541W        W98458  31.532  25.263   2.200  0.0005  0.2424  0.1283
55542W        W98459   0.316  25.973   3.257 -0.0307 -0.2373 -0.0003
55543W        W98460  33.791  27.908   3.185 -0.1593  0.0998 -0.0444
55544W        W98461  34.377  27.336   2.860  0.4119 -0.2926  0.2595
55545W        W98462  32.957  28.034   3.303  0.0861 -0.1004  0.0152
55546W        W98463  34.145  26.162   5.935  0.4019 -0.0304 -0.1153
55547W        W98464   0.420  26.966   4.042  0.1584 -0.2360  0.0356
55548W        W98465  33.177  26.457   6.479  0.1497 -0.0714 -0.0229
55549W        W98466  33.551  25.550   3.609  0.0785 -0.2214  0.0680
55550W        W98467  33.665  26.310   5.680  0.1993 -0.1330 -0.0893
55551W        W98468  33.052  28.753   6.565 -0.1329 -0.0472 -0.0356
55552W        W98469   1.237  27.834   3.544 -0.0549  0.1479  0.1461
55553W        W98470  32.998  26.246   4.312  0.0274  0.2908  0.1441
55554W        W98471  34.296  27.545   5.415 -0.0054  0.4351 -0.0967
55555W        W98472   0.677  26.792   4.835  0.1918 -0.1528  0.3670
55556W        W98473  34.435  28.470   4.149 -0.0278  0.0998 -0.1082
55557W        W98474  33.130  29.779   3.341 -0.1998 -0.0535 -0.0212
55558W        W98475  34.083  26.999   4.228  0.1405  0.2157  0.0816
55559W        W98476   0.124  27.485   4.417  0.3236  0.1231  0.1098
55560W        W98477   0.574  25.493   5.369 -0.1787 -0.0857 -0.1993
55561W        W98478  34.169  26.338   4.907  0.0479 -0.1238 -0.0247
55562W        W98479  32.808  28.140   5.268  0.0225 -0.2727 -0.0659
55563W        W98480  33.021  25.174   3.176  0.0251  0.2221 -0.3179
55564W        W98481  34.604  26.973   4.457  0.1623  0.3143 -0.1549
55565W        W98482   2.299  26.972   3.073  0.2322 -0.0362 -0.1701
55566W        W98483  33.187  28.199   3.794 -0.0843  0.0745  0.2070
55567W        W98484   0.198  29.046   2.449  0.1629  0.1222 -0.0256
55568W        W98485  33.394  29.395   4.029  0.1294  0.1973  0.0058
55569W        W98486  34.238  25.195   5.215  0.2486  0.2014 -0.0590
55570W        W98487   0.068  26.877   5.615  0.1765 -0.0087  0.1516
55571W        W98488  32.284  27.612   6.770  0.0115 -0.2946 -0.0449
55572W        W98489  33.523  25.002   4.182 -0.4320 -0.1429  0.2692
55573W        W98490   1.394  27.314   3.146 -0.1336 -0.1055 -0.2052
55574W        W98491  32.780  26.162   3.887 -0.2483  0.3111 -0.2697
55575W        W98492   1.127  28.510   5.584  0.2143  0.4105 -0.1980
55576W        W98493  33.731  26.971   3.822 -0.0452 -0.0845 -0.0557
55577W        W98494  34.475  27.221   3.350 -0.2598  0.1637  0.1606
55578W        W98495   0.702  28.435   3.838  0.0207  0.4041  0.2304
55579W        W98496  34.103  26.317   3.393 -0.0294 -0.0287 -0.1534
55580W        W98497  33.117  27.376   3.374 -0.0193 -0.2482 -0.1350
55581W        W98498   0.874  29.434   4.675 -0.2201 -0.1525  0.3957
55582W        W98499   0.053  29.293   3.955  0.0815 -0.1319  0.2254
55583W        W98500   0.134  29.106   4.606 -0.3304  0.2737 -0.2303
55584W        W98501   0.217  29.005   3.502 -0.0663  0.1402  0.2555
55585W        W98502  33.671  28.204   3.702  0.0540  0.2541 -0.1941
55586W        W98503  32.414  28.253   4.936  0.2557  0.0682 -0.2559
55587W        W98504  33.326  26.731   6.115  0.0970  0.2294 -0.0772
55588W        W98505  33.713  25.884   3.210 -0.0941  0.0661  0.1728
55589W        W98506  30.845  28.018   5.963 -0.0333  0.3735  0.2521
55590W        W98507  33.049  27.963   4.198 -0.1657 -0.2410 -0.1002
55591W        W98508  32.847  29.864   2.894  0.0581 -0.1436 -0.2514
55592W        W98509   0.655  25.089   3.691 -0.2465  0.1836 -0.1324
55593W        W98510  34.019  28.492   2.826 -0.0006  0.3109  0.2299
55594W        W98511  31.074  28.499   3.433  0.1971  0.0054 -0.0240
55595W        W98512  33.700  30.794   4.100 -0.0410 -0.0337 -0.1428
55596W        W98513  33.432  27.596   4.445 -0.2286  0.3133 -0.2358
55597W        W98514   1.187  25.453   2.534  0.2006 -0.1384 -0.1335
55598W        W98515  33.417  25.367   6.640 -0.2974  0.2569 -0.1842
55599W        W98516  32.610  30.086   5.154  0.1530 -0.4592  0.0226
55600W        W98517  33.452  24.503   4.345 -0.2311  0.2576 -0.2694
55601W        W98518   0.556  26.203   3.647  0.0792 -0.1810  0.1644
55602W        W98519   0.228  26.580   3.217 -0.0123 -0.0463  0.0965
55603W        W98520  34.592  27.842   4.738  0.1617 -0.0691 -0.2438
55604W        W98521   1.028  28.352   6.557  0.0007 -0.0899  0.0265
55605W        W98522   2.811  28.273   6.204  0.2314  0.1050  0.1364
55606W        W98523  31.035  25.640   4.987  0.0307 -0.2399 -0.0683
55607W        W98524  34.235  27.285   7.181 -0.0072 -0.0601 -0.0942
55608W        W98525  34.314  27.695   3.996 -0.1035  0.0631  0.3341
55609W        W98526  33.482  26.978   4.304  0.0253  0.3688 -0.2185
55610W        W98527   0.522  27.767   2.879  0.2724  0.2211  0.1065
55611W        W98528  33.926  24.032   5.720 -0.0582  0.0650 -0.1585
55612W        W98529  33.545  29.831   2.097 -0.0984  0.0920  0.1341
55613W        W98530   0.278  26.076   4.397  0.0609 -0.2498  0.1537
55614W        W98531   0.689  26.513   4.128 -0.0362  0.1156  0.3367
55615W        W98532   0.464  29.968   3.390 -0.2315  0.1249  0.0304
55616W        W98533   0.447  24.787   1.843 -0.1150  0.4884  0.1250
55617W        W98534   0.252  28.360   4.060 -0.4979  0.2135  0.0900
55618W        W98535  33.638  29.809   3.858 -0.0387 -0.1991  0.1653
55619W        W98536  34.122  29.048   3.050  0.4064 -0.1089 -0.2225
55620W        W98537   0.638  29.668   5.086  0.1794  0.1197  0.2033
55621W        W98538  34.573  27.833   5.733 -0.1028 -0.0075  0.2089
55622W        W98539  32.737  26.110   2.874  0.2640  0.3272  0.1787
55623W        W98540   2.191  26.972   6.779  0.0047 -0.2976 -0.0164
55624W        W98541  34.230  28.319   3.673 -0.0188  0.0604 -0.0022
55625W        W98542  33.137  28.825   3.244  0.1748  0.0420  0.1294
55626W        W98543  34.242  27.240   3.731  0.1334  0.2245 -0.1673
55627W        W98544   0.499  25.572   4.665  0.1666 -0.2445 -0.0713
55628W        W98545  33.729  28.204   4.770 -0.2867  0.0207  0.3132
55629W        W98546  34.375  26.627   3.782  0.2493  0.0623  0.2629
55630W        W98547   0.135  28.527   2.993  0.2962  0.0328  0.0764
55631W        W98548  33.987  29.046   4.482  0.1618  0.1103 -0.0034
55632W        W98549  33.083  26.146   6.847 -0.1415 -0.3673  0.1943
55633W        W98550  33.841  28.071   6.983  0.0390 -0.1251 -0.0517
55634W        W98551  33.297  25.553   6.162  0.0306  0.1679 -0.4402
55635W        W98552  32.597  25.296   3.603  0.3651  0.0569 -0.1859
55636W        W98553   0.263  26.531   5.978 -0.1773 -0.2233 -0.2757
55637W        W98554  32.152  26.070   5.338  0.1512 -0.1012  0.1631
55638W        W98555   0.048  25.358   5.166 -0.0318 -0.0254 -0.0264
55639W        W98556  33.087  28.983   3.907  0.1457  0.0627  0.3806
55640W        W98557   1.570  27.598   6.014  0.0451 -0.1403  0.1153
55641W        W98558  34.434  26.639   5.895 -0.1278  0.1076  0.0452
55642W        W98559  32.922  24.750   2.864 -0.0669 -0.0191 -0.1537
55643W        W98560  33.277  26.099   3.005  0.0132  0.2853 -0.4160
55644W        W98561  34.242  27.425   4.470 -0.2038 -0.1005 -0.0124
55645W        W98562   1.256  29.448   5.169 -0.1877  0.1387 -0.1068
55646W        W98563  32.689  27.113   5.754  0.0983  0.1027 -0.2865
55647W        W98564  33.807  27.244   4.615 -0.0788 -0.1224  0.0004
55648W        W98565  33.660  26.729   4.713  0.1988 -0.2101  0.0567
55649W        W98566  32.754  26.926   4.865  0.1269 -0.1597  0.0413
55650W        W98567   0.161  25.846   5.363 -0.0741 -0.2932  0.2657
55651W        W98568  33.331  27.127   4.783  0.2167  0.0866  0.2112
55652W        W98569  32.893  29.442   3.577 -0.1006  0.2462 -0.0005
55653W        W98570  33.563  27.737   4.914  0.0536  0.0763 -0.0535
55654W        W98571   0.485  25.759   2.081  0.0475 -0.1046  0.1898
55655W        W98572  34.113  28.143   6.596 -0.2716 -0.2551 -0.0483
55656W        W98573  33.741  26.029   4.862 -0.3062 -0.1245 -0.2502
55657W        W98574  34.440  28.715   3.293  0.0036 -0.3372 -0.2254
55658W        W98575   0.002  26.244   3.627  0.2204 -0.0395  0.2728
55659W        W98576  33.514  26.828   5.573  0.1318  0.1680  0.0737
55660W        W98577  33.902  27.786   4.519  0.2796 -0.3390  0.2214
55661W        W98578  32.717  27.192   8.460  0.1011  0.0119  0.0117
55662W        W98579  32.626  27.392   7.783  0.1181 -0.1230 -0.0657
55663W        W98580  32.968  25.374   7.612  0.0519 -0.2859 -0.1525
55664W        W98581   1.097  24.834   8.385  0.2675 -0.1650  0.2557
55665W        W98582  34.276  25.317   6.583 -0.0886  0.0071  0.0475
55666W        W98583  33.933  27.408   7.583  0.0034  0.1281 -0.1382
55667W        W98584  32.762  26.166   8.747  0.1674  0.1166  0.1192
55668W        W98585   2.167  25.478   8.964 -0.0834  0.0807 -0.2643
55669W        W98586   1.072  26.643   8.223  0.0617 -0.1120  0.0262
55670W        W98587  34.498  14.652  12.997 -0.2817  0.1673 -0.4727
55671W        W98588  33.336  28.284   7.215  0.0293 -0.2384  0.1185
55672W        W98589  34.233  26.036   7.152  0.1698 -0.1997  0.0709
55673W        W98590  34.439  27.011   7.557 -0.1009 -0.1367 -0.0746
55674W        W98591  33.687  26.349   9.419  0.1730 -0.0561 -0.2565
55675W        W98592   0.205  30.312   9.857 -0.2980 -0.0078 -0.0283
55676W        W98593   2.566  28.940   9.650  0.0475 -0.1468 -0.0933
55677W        W98594   0.396  27.509   7.757  0.0782  0.2498 -0.2159
55678W        W98595  33.246  28.944   8.397 -0.0993 -0.0342 -0.0830
55679W        W98596  34.125  28.527   7.928 -0.2193 -0.2166 -0.0185
55680W        W98597  32.880  28.985   5.931  0.0838  0.0516 -0.1131
55681W        W98598   0.588  29.251   6.468 -0.0572 -0.2094 -0.1202
55682W        W98599   0.524  27.790   8.561  0.3555  0.0107 -0.0466
55683W        W98600  34.226  30.521   9.330  0.2416 -0.1695 -0.0976
55684W        W98601   0.765  29.586   6.856 -0.0968 -0.2160  0.2637
55685W        W98602   0.603  25.705   6.446  0.0022 -0.0834  0.0295
55686W        W98603  34.504  26.151   7.781 -0.1982  0.2064  0.0506
55687W        W98604  34.260  28.056   9.431  0.5498 -0.0335  0.4622
55688W        W98605   0.261  25.118   8.856  0.0983  0.2029 -0.1256
55689W        W98606   0.253  28.152   8.946  0.1245  0.0535  0.2094
55690W        W98607  33.365  25.632   7.498 -0.0486 -0.0306 -0.4341
55691W        W98608   0.079  27.743   8.086 -0.0390  0.2427 -0.2984
55692W        W98609  34.159  25.478   7.085 -0.0287  0.1270 -0.4204
55693W        W98610   0.752  28.828   7.394  0.0885 -0.1894  0.2949
55694W        W98611  34.445  26.632   5.304  0.0047 -0.2726 -0.1284
55695W        W98612   0.283  28.490   6.178 -0.2331 -0.0321 -0.1548
55696W        W98613  32.435  30.187   9.158 -0.1531  0.0517 -0.3247
55697W        W98614  34.225  29.697   5.439  0.0573  0.0989 -0.0657
55698W        W98615  33.943  28.515   8.850 -0.6429  0.1705 -0.4674
55699W        W98616  33.941  27.155   9.154 -0.1478 -0.3325 -0.1704
55700W        W98617   1.027  26.533   8.763  0.0073  0.1999 -0.1251
55701W        W98618   1.324  28.873   9.572  0.0816 -0.0748 -0.3070
55702W        W98619  34.660  27.620   7.062 -0.0120  0.0314 -0.3179
55703W        W98620  33.505  26.096   7.746 -0.1261 -0.0535  0.4561
55704W        W98621   0.454  27.343   8.273 -0.2930  0.4163  0.4609
55705W        W98622   1.171  26.229   9.195 -0.1632 -0.1208 -0.3115
55706W        W98623  34.151  27.782   7.787 -0.1902 -0.2031  0.0005
55707W        W98624   0.160  27.266   7.365 -0.0268 -0.0330  0.0717
55708W        W98625  30.322  27.324   9.241  0.2027 -0.2968 -0.0433
55709W        W98626  33.879  24.913   9.033 -0.0973  0.1521 -0.0042
55710W        W98627  33.667  27.157   6.018  0.3408 -0.1788 -0.1044
55711W        W98628  34.433  28.146   8.821 -0.0501 -0.3375  0.1537
55712W        W98629   0.040  28.554   8.122  0.0329  0.0785 -0.0338
55713W        W98630  34.125  28.078   5.572  0.1188  0.1241 -0.0882
55714W        W98631  33.300  27.770   6.855 -0.0435 -0.1687  0.1287
55715W        W98632  34.102  29.266   5.257  0.3552  0.0015 -0.1747
55716W        W98633  34.648  28.336   5.745 -0.3754  0.1548  0.0878
55717W        W98634  34.414  27.696   8.447 -0.0546  0.0522  0.0923
55718W        W98635   1.057  27.410   7.108  0.0558  0.4023  0.0687
55719W        W98636   0.337  28.713   7.720  0.5570  0.0473 -0.1066
55720W        W98637   0.142  23.612   9.093 -0.0458 -0.2444 -0.4364
55721W        W98638   2.260  27.874   9.650  0.3711  0.0532  0.1582
55722W        W98639  33.936  26.328   8.179  0.0791 -0.0274 -0.2174
55723W        W98640  34.040  26.824   5.488  0.1691 -0.1904 -0.1581
55724W        W98641  33.495  28.588   6.250  0.0799  0.0300 -0.0035
55725W        W98642  32.394  27.231   5.304  0.1723 -0.1883  0.2037
55726W        W98643   0.580  24.383   9.479 -0.2191 -0.0863 -0.3749
55727W        W98644   0.582  29.104   9.718  0.1908 -0.3522 -0.1301
55728W        W98645  32.847  30.092   5.653 -0.1501  0.1076  0.0652
55729W        W98646  34.457  28.427   6.299 -0.0150 -0.1383 -0.2338
55730W        W98647   1.180  27.887   7.329 -0.3284 -0.0698 -0.0275
55731W        W98648  32.820  28.172   8.794 -0.3970  0.1696  0.2731
55732W        W98649   0.416  27.547   6.104 -0.0336 -0.2192 -0.1016
55733W        W98650   0.089  28.411   4.538 -0.1671  0.0110  0.0972
55734W        W98651  32.548  29.222   8.982  0.0133  0.0141  0.2922
55735W        W98652  33.644  27.327   5.571  0.0053 -0.2157  0.0479
55736W        W98653  32.722  27.726   5.653  0.1382  0.0951 -0.1352
55737W        W98654   0.222  26.761   7.378 -0.0150  0.0079 -0.1222
55738W        W98655   1.453  26.841   9.280 -0.4588 -0.0449  0.1456
55739W        W98656  33.625  28.967   8.697  0.1645  0.3033  0.2475
55740W        W98657  34.503  26.875   7.064  0.3539  0.1122  0.0387
55741W        W98658   0.145  26.452   8.567 -0.2367  0.0642 -0.2142
55742W        W98659  33.741  27.639   9.232  0.2752  0.1006  0.3672
55743W        W98660  33.755  26.519   5.219  0.2324 -0.1854 -0.0983
55744W        W98661   0.382  26.991   7.792  0.2106  0.2963 -0.2298
55745W        W98662   2.109  28.335   9.850 -0.3157  0.3877 -0.1270
55746W        W98663   0.213  26.556   6.524  0.3522  0.0392  0.1271
55747W        W98664   0.832  27.107   7.966  0.2123 -0.1368 -0.2931
55748W        W98665  32.774  25.308   8.930  0.0963 -0.1379  0.1470
55749W        W98666   1.093  27.847   6.381 -0.2011  0.2495 -0.0692
55750W        W98667  32.047  28.615   8.408 -0.0669  0.0688 -0.1908
55751W        W98668   0.263  30.891  10.128  0.3659 -0.1015  0.1145
55752W        W98669  33.037  24.979   8.645 -0.0305  0.0232  0.5228
55753W        W98670  33.703  29.294   8.258 -0.0975  0.2740  0.1071
55754W        W98671   0.257  28.846   6.487 -0.0908  0.0785 -0.0347
55755W        W98672   0.017  30.691   9.579 -0.4336  0.1264  0.2453
55756W        W98673   1.705  26.931   6.610  0.3631 -0.4198  0.0994
55757W        W98674   0.235  24.094   9.247 -0.1617 -0.1027 -0.0224
55758W        W98675   0.518  25.754   7.007  0.0246  0.0147  0.0351
55759W        W98676  34.337  26.877   8.874 -0.0921  0.2209  0.2157
55760W        W98677  34.583  28.899   6.112 -0.2128  0.1068 -0.1171
55761W        W98678  32.970  28.634   8.149 -0.0101 -0.0843  0.0358
55762W        W98679   0.227  28.009   6.043 -0.0106 -0.2417  0.3100
55763W        W98680   0.534  27.589   7.195  0.0548 -0.1902  0.2736
55764W        W98681  33.244  28.502   8.613  0.3676  0.1873  0.0240
55765W        W98682  34.571  28.199   5.257  0.1909  0.1133  0.3589
55766W        W98683   1.073  29.372   7.954 -0.0146  0.1904  0.0143
55767W        W98684  34.190  24.203   7.967  0.0348 -0.0136 -0.0373
55768W        W98685  34.174  25.439   6.065 -0.0420 -0.2024 -0.1277
55769W        W98686   0.692  26.609   6.305 -0.0483 -0.1890 -0.1049
55770W        W98687   3.085  25.734   8.441  0.0459 -0.0865 -0.4993
55771W        W98688   0.000  28.004   6.488 -0.0612 -0.0007  0.3470
55772W        W98689  34.641  28.963   5.083  0.1314 -0.0488 -0.1938
55773W        W98690  33.914  31.485   9.640  0.1187 -0.0210 -0.2652
55774W        W98691  34.355  29.210   7.736 -0.1897 -0.1175  0.2147
55775W        W98692   1.812  27.731   7.743  0.1861  0.0043  0.2654
55776W        W98693   0.861  28.911   9.224 -0.1630  0.0536 -0.1045
55777W        W98694  34.059  28.586   6.838  0.1213  0.1704 -0.1436
55778W        W98695   0.194  26.211   8.102 -0.0230  0.2509 -0.0001
55779W        W98696  32.366  27.000   7.499  0.1083  0.2159 -0.3787
55780W        W98697   0.533  28.012   6.429  0.1067 -0.2158 -0.3290
55781W        W98698  34.547  25.822   8.209  0.1306  0.2860  0.0405
55782W        W98699  33.925  29.066   7.872  0.1602  0.1181 -0.1174
55783W        W98700  33.852  28.389   5.228 -0.0246  0.3053 -0.1215
55784W        W98701   0.078  29.684   9.088  0.0734 -0.3620  0.1351
55785W        W98702   0.014  27.184   8.013 -0.1535 -0.2125 -0.6565
55786W        W98703   0.851  25.803   9.194 -0.1694  0.0086 -0.2485
55787W        W98704  32.987  25.941   7.344 -0.1008  0.0148  0.0035
55788W        W98705   1.048  27.115   9.057  0.0936 -0.3961  0.2450
55789W        W98706  33.734  27.030   5.151  0.1993 -0.2154  0.1897
55790W        W98707  34.437  28.119   8.191  0.1632 -0.4301 -0.0981
55791W        W98708  33.514  28.089   8.765  0.0970  0.0298 -0.0473
55792W        W98709   0.065  27.558   8.737  0.2832  0.1925 -0.1309
55793W        W98710  33.705  27.575   7.153 -0.1916 -0.0061  0.2706
55794W        W98711  32.957  26.789   8.233  0.2808  0.1954  0.2185
55795W        W98712   0.702  27.925   8.008 -0.0406  0.1675  0.2577
55796W        W98713  33.076  27.606   8.521  0.0147 -0.0603  0.1466
55797W        W98714   0.341  26.042   5.853  0.1946 -0.0404  0.1946
55798W        W98715   0.301  26.327   7.620  0.4151 -0.1039  0.1590
55799W        W98716   0.008  26.688   7.934  0.0099  0.0493  0.0905
55800W        W98717   1.338  27.644   9.384 -0.0382 -0.1018  0.3632
55801W        W98718  33.408  24.695   8.750 -0.1890 -0.1711 -0.1587
55802W        W98719   1.951  30.292   7.442 -0.0201  0.1617 -0.0941
55803W        W98720   0.170  28.619   8.722  0.4030 -0.0684  0.0168
55804W        W98721   1.416  25.333   8.401  0.2476  0.0829 -0.2223
55805W        W98722   1.245  27.337   6.602 -0.1960  0.0682 -0.1724
55806W        W98723  33.897  28.762   8.316  0.2301  0.1144  0.0025
55807W        W98724   2.097  30.811   7.070 -0.0191 -0.1758  0.0712
55808W        W98725   1.913  29.407   9.824  0.2355 -0.1882 -0.5156
55809W        W98726  34.491  28.157   7.720  0.0897 -0.2191 -0.0753
55810W        W98727  33.543  27.516   8.760  0.1355  0.2246  0.1871
55811W        W98728   0.572  29.057   8.861  0.0565 -0.3171 -0.1217
55812W        W98729   1.995  27.952   6.364 -0.1992 -0.1616  0.2110
55813W        W98730   1.586  27.296   9.081  0.1757 -0.2511  0.4099
55814W        W98731  33.988  26.027   7.820 -0.1547 -0.2178  0.0443
55815W        W98732   0.007  28.340   7.279  0.0835 -0.1050  0.3424
55816W        W98733  33.028  28.209   6.434  0.2918  0.0500 -0.0449
55817W        W98734   0.148  25.919   8.644  0.0877 -0.0792  0.4841
55818W        W98735  30.944  26.515   8.681  0.3246  0.4582 -0.5355
55819W        W98736   0.460  26.715   8.213 -0.0761 -0.1051 -0.0987
55820W        W98737  33.975  27.780   8.790 -0.0714  0.0627  0.2117
55821W        W98738  32.131  25.861   9.212  0.0304  0.0613  0.0797
55822W        W98739  34.409  26.688   6.482  0.0414  0.1408 -0.2690
55823W        W98740   0.281  28.157   7.833  0.1843  0.0547  0.0998
55824W        W98741  32.255  27.606   7.471  0.0892  0.0647  0.1458
55825W        W98742  32.084  29.034   9.138  0.0775 -0.0187  0.0269
55826W        W98743  34.454  26.914   9.370  0.0887  0.2407 -0.1141
55827W        W98744  33.214  25.557   8.912  0.1107  0.1090 -0.0246
55828W        W98745  33.913  27.131   8.605  0.0055 -0.1959 -0.1350
55829W        W98746   0.739  25.306   6.688  0.3508  0.1990  0.0944
55830W        W98747   0.724  28.709   6.314 -0.2216  0.0223  0.1650
55831W        W98748  34.052  28.871   7.413 -0.0200 -0.2804 -0.1769
55832W        W98749   0.416  22.961   8.882 -0.4030  0.0492 -0.0371
55833W        W98750   0.123  27.401   5.742 -0.1479 -0.0854 -0.0457
55834W        W98751   0.534  26.353   7.193 -0.0563  0.2475 -0.0914
55835W        W98752  34.128  26.346   8.722  0.3520  0.2075 -0.0990
55836W        W98753   2.430  29.411   9.524 -0.2212  0.0315 -0.0774
55837W        W98754  32.856  32.163   1.909 -0.0778 -0.2912  0.2479
55838W        W98755  31.584  30.099   0.675  0.1639 -0.0919 -0.2710
55839W        W98756  31.058  28.874   1.448 -0.3098  0.0903 -0.0171
55840W        W98757  33.874  28.497   3.332  0.1232  0.0873  0.0370
55841W        W98758   0.502  29.208   1.144  0.2101  0.0816  0.1285
55842W        W98759  33.722  32.899   3.129  0.1641  0.0715  0.0765
55843W        W98760  33.256  28.820   1.508 -0.1732  0.0373 -0.3843
55844W        W98761   0.155  29.396   0.190 -0.1255 -0.0984  0.0556
55845W        W98762  31.820  30.556  31.704  0.1669 -0.4488 -0.0588
55846W        W98763   1.575  30.458   2.070 -0.0617  0.2108  0.0167
55847W        W98764  33.733  30.961   0.553 -0.0311 -0.0674 -0.5646
55848W        W98765   1.492  29.417   2.824  0.4310  0.1729 -0.1882
55849W        W98766   0.940  29.643  31.669  0.2840 -0.0915  0.0671
55850W        W98767  31.637  31.633  31.311 -0.0243  0.0183 -0.0504
55851W        W98768  32.375  30.639   1.181 -0.1590 -0.0834 -0.1179
55852W        W98769   0.016  32.298   1.764 -0.0847  0.1736  0.1682
55853W        W98770  33.375  32.118   0.969  0.0097 -0.1914  0.0985
55854W        W98771   1.782  32.585   1.219 -0.0463  0.2433  0.0156
55855W        W98772  33.901  29.643   1.029 -0.0761 -0.2834  0.1359
55856W        W98773  34.386  31.188   1.953 -0.1289 -0.0239  0.0380
55857W        W98774  34.154  31.399   0.240  0.0290 -0.0196 -0.0114
55858W        W98775  33.408   0.416   2.093 -0.1708  0.0745 -0.3088
55859W        W98776  34.504  31.552  31.365 -0.2998 -0.0447  0.5345
55860W        W98777   0.118  33.330   1.986 -0.0816  0.0554  0.1241
55861W        W98778   1.490  31.142  30.165  0.0185  0.0771 -0.0510
55862W        W98779   2.128  32.941   0.733 -0.1994  0.1280 -0.2886
55863W        W98780   0.353  32.718   0.942  0.2075  0.1443 -0.0291
55864W        W98781  32.727  30.270  31.586  0.2855 -0.2914 -0.0471
55865W        W98782  33.308  32.251   0.201  0.0307  0.1937  0.1765
55866W        W98783   0.907  32.076  31.716  0.2287 -0.1342  0.0087
55867W        W98784  31.455  30.226   2.134  0.1564  0.2632 -0.0340
55868W        W98785  34.391  31.996   1.299  0.4825 -0.0772  0.0487
55869W        W98786   1.232  30.224   2.442  0.2047  0.0687  0.2489
55870W        W98787   0.427  33.199   1.625 -0.0844 -0.2432  0.0201
55871W        W98788  34.404  30.063   2.629  0.1472 -0.1702  0.0052
55872W        W98789  34.042  30.104   1.368  0.2203  0.1361 -0.2382
55873W        W98790  31.609  32.143   1.909  0.1423  0.0883 -0.3585
55874W        W98791  32.588  31.393   2.405 -0.1001  0.0603  0.0152
55875W        W98792  33.937  28.714   0.757  0.2743  0.0612 -0.0882
55876W        W98793  32.865  33.111   3.319 -0.0573 -0.0924  0.1144
55877W        W98794   0.040  32.048   0.604 -0.1213 -0.0537 -0.0148
55878W        W98795  32.534  32.486   0.688 -0.1371 -0.3096 -0.2675
55879W        W98796   0.182  33.358  30.192  0.2124  0.1662  0.0084
55880W        W98797  34.470  33.002   1.268 -0.0189 -0.3089  0.2049
55881W        W98798   0.623  30.486   0.764  0.0471 -0.4070  0.1181
55882W        W98799   2.580  29.992   3.193 -0.0673 -0.2500  0.0233
55883W        W98800  33.465  32.361  31.156 -0.0040  0.3882 -0.1334
55884W        W98801  32.385  31.807   1.945 -0.0946 -0.2200 -0.1351
55885W        W98802  32.772  31.281   0.516  0.1150  0.0178 -0.3088
55886W        W98803  33.234  30.238   1.880 -0.2516 -0.2521 -0.0474
55887W        W98804   1.600  32.767   0.351  0.1065 -0.0813 -0.2514
55888W        W98805  34.235  29.929   1.821 -0.2459  0.3072  0.0411
55889W        W98806   0.540  33.371  31.614  0.3094  0.1213  0.2594
55890W        W98807  32.481  29.949   1.159 -0.1665 -0.4023 -0.2051
55891W        W98808  31.615  31.421   0.147 -0.0439 -0.2397  0.0937
55892W        W98809  34.595  27.806   2.863 -0.1051 -0.1408  0.2208
55893W        W98810  33.224  30.389   0.896 -0.0275  0.0653  0.1071
55894W        W98811  31.796  30.198   0.201  0.0393  0.0028 -0.2992
55895W        W98812  34.673  31.220   1.478  0.2091  0.0379 -0.0152
55896W        W98813  33.296  32.610   1.097 -0.0716  0.1383 -0.3748
55897W        W98814   0.947  29.903   1.558 -0.3099  0.0287  0.0642
55898W        W98815  33.490  30.704  31.571  0.2175  0.0963  0.0968
55899W        W98816  34.044  33.140   1.688 -0.1856 -0.1176 -0.2459
55900W        W98817  33.199  30.702   0.517  0.1660 -0.1777 -0.2992
55901W        W98818   0.141  27.961   0.738  0.4397 -0.1080  0.1232
55902W        W98819  32.358  33.272   1.506 -0.0108  0.2239  0.1152
55903W        W98820  33.548  31.232  30.550  0.2298 -0.0060  0.3224
55904W        W98821  31.195  32.825  30.989  0.2051  0.1927 -0.1728
55905W        W98822  33.308  30.367   3.212  0.2159  0.0921 -0.2630
55906W        W98823   2.320  32.132   1.169 -0.1203 -0.0602 -0.0523
55907W        W98824  34.295  29.637   1.397 -0.2188  0.0113 -0.0768
55908W        W98825  32.396  30.251  30.417 -0.3534  0.0930 -0.0694
55909W        W98826   0.732  31.786   1.205  0.1800 -0.0698 -0.1546
55910W        W98827  33.762  32.446   0.875 -0.0611  0.0726 -0.1475
55911W        W98828   3.026  31.805  31.184  0.0324 -0.4278  0.0937
55912W        W98829  34.567  32.021   2.164 -0.0282 -0.0759  0.1080
55913W        W98830  33.029  31.155   2.227 -0.1348 -0.1187 -0.0760
55914W        W98831   0.426  29.786   1.980 -0.0591 -0.0960  0.0039
55915W        W98832   0.892  33.099  30.077  0.1344 -0.1876  0.0412
55916W        W98833  31.945  32.256  31.015 -0.0431  0.1405 -0.0118
55917W        W98834   0.421  28.989   1.636 -0.0278 -0.1479  0.0021
55918W        W98835   1.512  31.223   0.887 -0.1462 -0.1389  0.1155
55919W        W98836   0.837  30.011   2.260  0.0559  0.1072 -0.0908
55920W        W98837  34.629  32.382   3.245  0.2818  0.2020  0.0496
55921W        W98838   0.271  32.181   0.059 -0.0895 -0.1280 -0.0050
55922W        W98839   2.032  29.268   3.092 -0.3347 -0.1756 -0.1974
55923W        W98840   0.274  32.344  30.586  0.2485  0.0144  0.1029
55924W        W98841   0.501  31.327   0.657  0.0788 -0.0260 -0.0438
55925W        W98842  34.267  30.593   1.707  0.1516  0.0918 -0.2381
55926W        W98843   1.159  32.161   0.693 -0.1936 -0.4010 -0.2273
55927W        W98844  31.791  31.309   0.560 -0.0480 -0.1739 -0.0375
55928W        W98845  33.241  31.521   1.674  0.1867 -0.2704 -0.5055
55929W        W98846  32.247  31.125   1.201 -0.1949 -0.2133  0.1436
55930W        W98847  33.176  29.299   1.618  0.2839  0.1275 -0.3099
55931W        W98848  31.151  31.383   0.384  0.3792 -0.3185 -0.1911
55932W        W98849  31.686  32.189   3.972  0.3085 -0.2888 -0.1014
55933W        W98850   1.894  29.418   2.201 -0.3169  0.0631 -0.3162
55934W        W98851   0.203  32.183   1.133 -0.4756  0.2160 -0.2242
55935W        W98852   2.095  30.538   2.927 -0.1569 -0.0380 -0.1339
55936W        W98853  31.771  31.349   1.078  0.0525 -0.1222 -0.4262
55937W        W98854   0.064  30.788  31.941 -0.2313  0.1164 -0.2944
55938W        W98855  32.855  32.802  31.599  0.0671 -0.0486  0.0619
55939W        W98856   0.845  32.596   0.746 -0.0431  0.0272  0.5134
55940W        W98857  34.037  30.112   0.021  0.1045 -0.3684  0.0252
55941W        W98858  33.923  30.322   2.596 -0.2158  0.2603 -0.0743
55942W        W98859   1.369  29.821   0.484 -0.3960 -0.1771 -0.2136
55943W        W98860  33.314  28.963   0.627  0.0833  0.0864  0.2408
55944W        W98861   1.829  30.216   1.748  0.5519 -0.0748 -0.1876
55945W        W98862   0.761  27.176   3.597 -0.0433  0.0081 -0.1456
55946W        W98863  34.474  32.909   0.263 -0.0938 -0.2054  0.3511
55947W        W98864  32.034  31.879   0.697  0.0642 -0.1404 -0.0976
55948W        W98865  33.059  30.812   1.279 -0.3483  0.1930 -0.0658
55949W        W98866   0.235  33.172   1.162  0.0210 -0.0343  0.1757
55950W        W98867   1.644  30.100   2.728  0.4042  0.4779  0.0315
55951W        W98868   0.860  31.788   0.608 -0.2198  0.0359  0.1638
55952W        W98869  34.447  34.146   0.223  0.2725  0.2836 -0.0594
55953W        W98870  34.222  31.865   2.437  0.3202  0.2667  0.2503
55954W        W98871   0.292  30.088   0.668 -0.0588  0.0911 -0.1659
55955W        W98872  33.434  27.947   1.160  0.1323  0.0395 -0.2950
55956W        W98873   0.755  30.278   1.860 -0.0130  0.0507 -0.1223
55957W        W98874  34.306  30.508   1.213 -0.1747  0.1445 -0.0777
55958W        W98875  32.753  29.347  31.816 -0.2115 -0.2278  0.4337
55959W        W98876   1.604  30.591   2.904 -0.0483  0.1684 -0.0525
55960W        W98877  33.876  32.829  29.940  0.0956  0.2173  0.0657
55961W        W98878  32.250  29.519   1.307 -0.3370  0.1763 -0.0117
55962W        W98879  32.917  32.348  31.222  0.1140  0.1924 -0.2006
55963W        W98880  33.834  32.452  30.405  0.2379  0.2546 -0.2141
55964W        W98881  33.916  29.898   2.954  0.0008 -0.0371 -0.0439
55965W        W98882  34.426  29.963   1.064  0.0820  0.2217 -0.0981
55966W        W98883  31.701  29.492   4.712  0.4479  0.0269 -0.1185
55967W        W98884   0.237  30.209   1.865 -0.0874 -0.0488 -0.1261
55968W        W98885  32.795  31.110   0.077  0.2625  0.2548  0.1733
55969W        W98886  32.977  30.690   0.035  0.0552  0.2095  0.3613
55970W        W98887  30.825  28.516   0.554 -0.2673  0.0417  0.2552
55971W        W98888   0.531  32.790   2.779  0.0578  0.4015  0.0657
55972W        W98889  30.925  29.753   1.334  0.1911  0.1996  0.1765
55973W        W98890  34.409  33.508   0.430  0.1066 -0.0834  0.0925
55974W        W98891  33.963  32.925  31.770  0.0988 -0.2007 -0.1998
55975W        W98892   0.244  29.900   1.144  0.0314  0.1427 -0.0865
55976W        W98893  33.596  33.057   0.192 -0.3323 -0.4890  0.1716
55977W        W98894  33.363  31.262   1.300 -0.1184 -0.0657  0.0745
55978W        W98895  34.112  31.640   3.361 -0.2778  0.1049 -0.0921
55979W        W98896  34.270  30.899   0.204 -0.0442 -0.0246  0.0265
55980W        W98897  33.408  29.603   0.332 -0.1930  0.0214  0.1256
55981W        W98898   0.245  32.616   1.411  0.2946 -0.0855 -0.1172
55982W        W98899  33.137  32.739   0.182  0.4322 -0.3461  0.1714
55983W        W98900   1.381  29.202   1.708  0.1144 -0.0133 -0.3429
55984W        W98901  34.428  28.289   0.463 -0.0017 -0.1749 -0.2868
55985W        W98902  34.187  31.048   1.537  0.2334 -0.0803 -0.0081
55986W        W98903   0.407  31.991   1.561  0.0257 -0.0682 -0.1172
55987W        W98904  33.381  31.616   0.837  0.1775 -0.1164 -0.0157
55988W        W98905  33.250  31.563  31.691  0.3455  0.1202 -0.2381
55989W        W98906  33.068  32.492   0.657  0.3357 -0.1255 -0.1307
55990W        W98907  33.606  33.339   1.774 -0.3879  0.3683 -0.3355
55991W        W98908  33.895  33.714   0.293 -0.0907 -0.1454  0.0082
55992W        W98909   1.078  31.654   2.608  0.1565  0.1258  0.0520
55993W        W98910  34.025  29.385  31.883  0.0587 -0.0453 -0.2100
55994W        W98911  33.495  31.208   1.999 -0.2281  0.0425 -0.1268
55995W        W98912  32.845  32.742   2.219 -0.1280  0.1493 -0.3564
55996W        W98913  33.506  30.748   1.083 -0.0601  0.2864 -0.0889
55997W        W98914  31.814  30.312   1.797  0.0908  0.0886  0.0351
55998W        W98915  34.019  32.729   0.321 -0.0370 -0.0539 -0.4067
55999W        W98916  34.385  33.227  31.815 -0.1806  0.1158  0.0098
56000W        W98917  34.673  33.490   1.487  0.2425  0.2183 -0.1238
56001W        W98918   0.235  34.238   1.468  0.0626  0.0635  0.0099
56002W        W98919  32.654  31.340   1.884 -0.0836 -0.1382 -0.3553
56003W        W98920   0.139  29.878   2.996  0.2798 -0.0051  0.1174
56004W        W98921   0.895  31.405   1.482 -0.3492 -0.0293 -0.0125
56005W        W98922  33.664  30.872   3.080  0.1833  0.1544 -0.1522
56006W        W98923   0.887  30.996  31.902  0.3284  0.0712 -0.0885
56007W        W98924  33.386  27.850   0.635 -0.2697 -0.0860  0.3768
56008W        W98925   0.586  31.496   2.291  0.3782 -0.3542  0.0466
56009W        W98926  34.582  31.645   1.781 -0.1688  0.3737 -0.0170
56010W        W98927  33.639  30.481   0.643  0.0171  0.0126 -0.0348
56011W        W98928   0.230  32.988  31.676 -0.0585  0.1544 -0.0245
56012W        W98929  34.446  28.735   0.643  0.1993 -0.1597 -0.0106
56013W        W98930   1.006  31.011   0.697  0.0840  0.0374  0.3038
56014W        W98931  34.026  30.764   0.942 -0.3316  0.0906  0.0173
56015W        W98932  32.508  30.655  31.832 -0.0339  0.0871 -0.2925
56016W        W98933  33.657  32.950  31.337 -0.2150 -0.1530  0.3785
56017W        W98934  33.213  31.862   2.231  0.1185  0.0637  0.1098
56018W        W98935  33.734  31.400   2.527  0.0940  0.1156  0.1325
56019W        W98936  32.437  31.355  31.058 -0.2563  0.1192  0.1476
56020W        W98937   0.081  31.721   1.212 -0.4081  0.3180 -0.3081
56021W        W98938  33.707  33.327   1.206 -0.2271  0.3552 -0.0564
56022W        W98939   2.290  32.694   0.252  0.2538  0.0259  0.0931
56023W        W98940   0.448  28.912   2.922 -0.0178 -0.0198  0.0187
56024W        W98941  34.405  30.429  31.578 -0.3266 -0.1501  0.1954
56025W        W98942  32.948  31.613   0.135 -0.1669 -0.0311  0.2136
56026W        W98943  32.481  30.940  31.372  0.3263 -0.2296  0.1089
56027W        W98944  33.194  32.846  29.273 -0.2750 -0.0251  0.0525
56028W        W98945   0.309  30.942   0.959 -0.0078 -0.0605 -0.2653
56029W        W98946  34.380  28.773   4.546 -0.0827 -0.0632 -0.0698
56030W        W98947   2.671  30.143   2.198  0.0213 -0.3084 -0.0860
56031W        W98948  33.853  30.544   1.362  0.0964  0.1929 -0.1018
56032W        W98949  31.904  29.184   0.456 -0.1753  0.1766  0.0549
56033W        W98950   1.194  29.433   0.250  0.1721 -0.2746  0.2229
56034W        W98951  33.218  28.935  30.997 -0.1405  0.1840  0.1677
56035W        W98952  31.772  27.569   0.766 -0.2143  0.2312  0.0515
56036W        W98953  29.918  31.077   1.043  0.1274 -0.0838 -0.2914
56037W        W98954   0.520  31.083   1.576  0.4157 -0.0976 -0.1495
56038W        W98955  34.416  29.274   4.330  0.3585 -0.0834 -0.0997
56039W        W98956  31.466  28.912   0.268 -0.1847  0.1108  0.3692
56040W        W98957   0.484  32.318   1.941  0.0087 -0.2848 -0.1260
56041W        W98958   0.040  31.054   0.516 -0.2384  0.4572  0.1550
56042W        W98959   0.128   0.017   2.806 -0.2810  0.1296 -0.3336
56043W        W98960  33.947  30.360   2.098  0.1998  0.0890 -0.1944
56044W        W98961  33.071  31.966   0.519 -0.3175 -0.1291 -0.4362
56045W        W98962  34.141  28.006   2.722  0.0389 -0.2225 -0.3469
56046W        W98963  33.505  32.614   3.891 -0.2602 -0.2266  0.0465
56047W        W98964  33.772  29.689   1.670  0.2770 -0.1242  0.2710
56048W        W98965  33.675  30.979   1.544 -0.0863  0.2329  0.0695
56049W        W98966  33.282  29.448   0.772  0.2537  0.3986 -0.0117
56050W        W98967   0.188  31.210   1.988  0.0838 -0.0120 -0.2017
56051W        W98968  33.841  30.621  31.151 -0.0732  0.1597 -0.1140
56052W        W98969  33.521  34.555   0.370 -0.0200  0.2143 -0.0279
56053W        W98970   0.858  28.694   2.528 -0.1258 -0.0352 -0.0140
56054W        W98971  33.216  31.093   0.859  0.0255  0.5126  0.2577
56055W        W98972   1.512  32.510   0.758  0.3632 -0.0400 -0.0759
56056W        W98973  34.567  29.546   2.450 -0.0486  0.0551 -0.4031
56057W        W98974  34.309  32.464   1.243 -0.0213 -0.1665 -0.0196
56058W        W98975  33.638  31.716   6.862 -0.4223  0.1089 -0.1870
56059W        W98976  33.347  31.015   2.550 -0.0698  0.1693  0.2239
56060W        W98977  32.241  29.839   4.042 -0.0020 -0.1567  0.0260
56061W        W98978   0.867  29.334   5.484 -0.2681  0.1009  0.0113
56062W        W98979   0.823  31.255   3.959 -0.2124  0.3069 -0.2306
56063W        W98980   0.832  31.277   6.279  0.0718 -0.1873  0.0422
56064W        W98981   0.579  32.060   3.297  0.1855 -0.1023 -0.0761
56065W        W98982  31.372  31.014   4.834 -0.0518  0.1248 -0.2695
56066W        W98983  32.299  30.661   4.026  0.0335 -0.0850 -0.0184
56067W        W98984  33.747  29.695   5.249  0.2195  0.2507 -0.1142
56068W        W98985   1.501  29.425   3.788  0.1466  0.1039  0.0707
56069W        W98986  33.610  30.221   7.086  0.1924  0.0611  0.2696
56070W        W98987  34.354  32.510   2.163  0.1363  0.1323  0.1848
56071W        W98988  34.235  30.607   3.387  0.1050 -0.1701  0.2520
56072W        W98989  33.947  31.252   7.306  0.3146  0.0676 -0.2243
56073W        W98990  32.465  31.055   5.772 -0.3287  0.1171  0.1061
56074W        W98991  33.952  31.939   6.496  0.0254  0.2218 -0.0365
56075W        W98992   0.482  31.152   6.593  0.1785 -0.0928  0.0145
56076W        W98993  33.452  31.807   5.048  0.2458  0.1793  0.3119
56077W        W98994  31.939  32.710   4.202 -0.3990 -0.3251 -0.1937
56078W        W98995   0.108  31.921   3.458  0.2346  0.0090 -0.3639
56079W        W98996  33.328  32.081   7.199  0.0756 -0.0722  0.1735
56080W        W98997  34.224  31.112   3.354  0.0540 -0.0884 -0.2675
56081W        W98998   1.087  32.220   6.354 -0.0892 -0.1570 -0.0618
56082W        W98999  33.752  32.287   1.878 -0.0072 -0.0764  0.0404
56083W        W99000  32.945  31.297   3.775  0.0518  0.0431 -0.0409
56084W        W99001   0.555  31.584   6.782  0.2447 -0.0984  0.0168
56085W        W99002  33.210  33.018   4.477  0.1940  0.1843  0.1015
56086W        W99003   0.031  31.444   0.817 -0.0926 -0.2001 -0.1621
56087W        W99004   1.011  29.486   2.837  0.3360 -0.2332 -0.1539
56088W        W99005   2.106  28.151   5.476 -0.2291 -0.0439 -0.2395
56089W        W99006  34.305  31.611   4.636  0.0474 -0.0250 -0.0955
56090W        W99007  33.509  29.561   6.173 -0.3890  0.2520  0.0065
56091W        W99008   0.067  30.535   4.568 -0.0683  0.0588  0.0248
56092W        W99009  34.173  30.959   4.306  0.4115  0.0973 -0.1568
56093W        W99010  34.154  30.593   3.901  0.1184  0.2691  0.4132
56094W        W99011  33.028  31.795   5.997 -0.2440  0.2882 -0.2257
56095W        W99012  32.099  29.419   7.171 -0.1931 -0.2184 -0.0880
56096W        W99013  34.352  29.575   2.962  0.0759 -0.2262  0.1009
56097W        W99014  32.022  30.795   6.546  0.1910 -0.0259 -0.0730
56098W        W99015  34.474  30.481   5.533 -0.0623 -0.0888 -0.2010
56099W        W99016   0.003  30.204   3.322 -0.2366  0.4996 -0.0549
56100W        W99017   0.407  30.483   2.348 -0.1887 -0.0353  0.1121
56101W        W99018  33.074  31.211   4.964 -0.0397 -0.0944 -0.0846
56102W        W99019  33.487  29.780   4.813 -0.1433 -0.3960 -0.1733
56103W        W99020  34.418  32.204   7.777  0.0831 -0.0638  0.0524
56104W        W99021  32.793  32.656   4.627 -0.0691  0.1723  0.0168
56105W        W99022  32.475  32.180   7.555 -0.1149 -0.2986  0.2952
56106W        W99023  33.959  31.786   2.898 -0.0445  0.1469  0.0335
56107W        W99024  30.577  31.098   4.337 -0.2106  0.0707 -0.2582
56108W        W99025  33.262  33.093   3.981  0.0581  0.1633  0.0794
56109W        W99026  32.476  31.058   6.304  0.0709  0.0078 -0.0227
56110W        W99027  34.368  31.866   3.763  0.1729  0.4480  0.0620
56111W        W99028  34.095  30.054   4.144  0.3589  0.1187  0.0050
56112W        W99029   1.361  30.038   4.445  0.3707 -0.1020  0.0553
56113W        W99030   0.993  31.161   5.790  0.0901  0.0642  0.1154
56114W        W99031  31.520  30.315   3.316  0.0085 -0.4446 -0.2222
56115W        W99032  32.309  29.954   2.957  0.0325  0.1898  0.1452
56116W        W99033   1.479  30.586   3.888  0.2398 -0.0492 -0.2554
56117W        W99034  32.785  32.485   2.972 -0.0622  0.0648 -0.1329
56118W        W99035  34.112  28.870   4.942  0.1020  0.0523 -0.2140
56119W        W99036  31.409  29.710   6.034 -0.1044 -0.1768  0.0709
56120W        W99037  33.865  32.825   4.813  0.1359  0.5285 -0.0612
56121W        W99038  34.162  32.162   4.136  0.3929 -0.1182 -0.0021
56122W        W99039  33.038  29.164   4.391 -0.1225  0.2862 -0.2850
56123W        W99040   0.216  30.379   6.591  0.0600 -0.2574  0.1298
56124W        W99041  33.471  29.020   2.261 -0.3916  0.0544 -0.3621
56125W        W99042  34.499  33.434   4.521  0.1380  0.1362  0.1039
56126W        W99043  33.440  31.731   4.047  0.0319 -0.2502  0.0234
56127W        W99044   0.665  30.898   3.313  0.1970 -0.1579  0.0645
56128W        W99045  32.435  30.007   5.854  0.0334  0.3743 -0.0438
56129W        W99046  34.573  30.742   4.191  0.1816 -0.0160  0.2950
56130W        W99047  32.714  33.424   5.787  0.1377  0.0261 -0.0016
56131W        W99048  33.140  29.997   7.123  0.0797 -0.1199 -0.0401
56132W        W99049   0.954  30.510   3.021  0.0665 -0.0525 -0.2126
56133W        W99050  34.500  32.027   5.125 -0.3876  0.3597 -0.0597
56134W        W99051  33.638  32.992   5.221 -0.1799 -0.3307  0.0544
56135W        W99052   0.276  28.598   5.135 -0.3308  0.1630  0.0428
56136W        W99053  33.737  31.279   3.340  0.1686  0.1226 -0.1513
56137W        W99054  34.508  31.491   5.056 -0.0581 -0.0685  0.3554
56138W        W99055   2.481  29.862   6.754 -0.1566  0.0111 -0.0606
56139W        W99056  33.643  32.422   2.367 -0.0014  0.0586 -0.0417
56140W        W99057   0.611  28.872   5.381  0.0569 -0.1822 -0.1334
56141W        W99058  33.453  30.485   5.634  0.0828  0.1895  0.2370
56142W        W99059  33.363  32.159   5.961  0.5086  0.1262  0.2972
56143W        W99060   2.824  30.298   6.670  0.1324 -0.1649  0.2142
56144W        W99061  33.701  33.420   2.943  0.0745 -0.0434 -0.2279
56145W        W99062   0.089  30.745   3.245  0.0149  0.0398 -0.0068
56146W        W99063   0.482  29.390   3.677  0.0662 -0.0069  0.0832
56147W        W99064  34.592  30.030   5.376 -0.2694 -0.3802  0.0710
56148W        W99065  34.400  31.932   3.072  0.3227 -0.1822  0.1680
56149W        W99066   0.416  31.009   3.794 -0.0316  0.2394  0.1548
56150W        W99067  33.216  32.384   4.522  0.0314 -0.0395 -0.0766
56151W        W99068  33.821  30.366   3.164 -0.1188 -0.0695 -0.2127
56152W        W99069  33.135  30.792   3.077  0.1210 -0.0111  0.2341
56153W        W99070  32.115  30.629   4.578  0.3931  0.0858 -0.2012
56154W        W99071   0.423  29.932   5.476 -0.0829  0.0059  0.3435
56155W        W99072  33.128  32.172   5.055  0.0198  0.1209  0.0445
56156W        W99073  34.230  30.307   7.777  0.1386 -0.0243 -0.0565
56157W        W99074  32.655  29.806   3.756 -0.0462  0.0134 -0.0163
56158W        W99075   0.982  29.326   3.732  0.0272 -0.1926  0.0824
56159W        W99076  32.109  31.169   4.832 -0.2494 -0.2438 -0.0116
56160W        W99077  33.605  30.675   1.918  0.2461  0.0890  0.2273
56161W        W99078   1.002  32.284   3.555 -0.0551 -0.1914 -0.2252
56162W        W99079   2.081  31.557   5.700  0.1793 -0.0404  0.0793
56163W        W99080   0.472  30.088   4.873  0.1597 -0.0781 -0.3601
56164W        W99081   0.391  29.232   5.041 -0.3394  0.0571  0.1700
56165W        W99082  33.375  27.783   3.454  0.0034 -0.1364 -0.1324
56166W        W99083  34.660  29.270   6.455  0.0898  0.1877 -0.0234
56167W        W99084  34.648  31.220   6.654 -0.0693  0.1147  0.1982
56168W        W99085   1.234  31.494   4.212  0.0786 -0.0044  0.0110
56169W        W99086  33.036  31.867   6.712  0.0527  0.0411  0.2537
56170W        W99087   0.175  32.536   2.247 -0.1999  0.0038 -0.2435
56171W        W99088  34.276  29.486   5.899  0.0606  0.0489 -0.1073
56172W        W99089  33.949  29.815   6.072 -0.0345 -0.2734 -0.0983
56173W        W99090  34.545  31.526   2.278 -0.2286  0.2415 -0.3226
56174W        W99091  33.963  30.693   7.075 -0.2289  0.0725  0.0672
56175W        W99092  34.509  31.358   4.201  0.0986  0.1293 -0.0066
56176W        W99093  33.055  28.139   5.716 -0.2873 -0.3230 -0.2215
56177W        W99094  31.424  28.626   7.095 -0.0355  0.3152 -0.1032
56178W        W99095   0.220  31.642   6.450  0.2351 -0.1245  0.0248
56179W        W99096  34.449  28.879   3.769 -0.2503  0.0760 -0.0666
56180W        W99097   2.107  29.899   5.051  0.3645  0.1026 -0.0067
56181W        W99098   0.628  31.803   2.738  0.1171 -0.4383  0.2672
56182W        W99099  33.941  31.635   5.009  0.3764 -0.0546  0.1092
56183W        W99100  34.037  31.538   2.071  0.0342 -0.0036  0.2236
56184W        W99101  33.748  31.662   3.670  0.1583 -0.1709 -0.3893
56185W        W99102  34.513  29.842   6.892 -0.1305  0.0196  0.0800
56186W        W99103   0.440  30.579   6.086  0.0271  0.5050 -0.0709
56187W        W99104  33.966  30.045   4.654 -0.2187 -0.2701 -0.0631
56188W        W99105  33.401  31.857   6.348  0.1580 -0.1992  0.2304
56189W        W99106  33.559  30.305   4.700 -0.4245 -0.1217 -0.0001
56190W        W99107   1.072  30.961   2.889 -0.0322  0.1186  0.0509
56191W        W99108  32.525  28.657   5.536 -0.0264  0.1920 -0.1630
56192W        W99109  34.426  32.209   7.268  0.1858 -0.0135 -0.1591
56193W        W99110  34.157  31.512   1.219 -0.2371  0.3491 -0.1371
56194W        W99111   0.846  30.571   3.646  0.1331 -0.3095  0.3171
56195W        W99112   0.155  31.644   3.951  0.0279  0.2541  0.2696
56196W        W99113   1.035  27.477   2.828  0.1677  0.2507  0.0123
56197W        W99114  33.255  31.257   5.399 -0.0482 -0.0505 -0.0478
56198W        W99115   0.871  32.079   4.441  0.2507 -0.0796  0.1389
56199W        W99116  34.016  32.629   8.011  0.1201 -0.2169 -0.1359
56200W        W99117  34.070  31.447   5.897 -0.0109 -0.0333 -0.1325
56201W        W99118  33.766  30.829   6.118 -0.0677 -0.1411 -0.0920
56202W        W99119  33.499  30.755   6.949 -0.0139  0.1807 -0.1572
56203W        W99120  33.298  31.584   3.436  0.0368  0.1592 -0.0049
56204W        W99121  32.581  29.468   4.315 -0.1341  0.0582 -0.0899
56205W        W99122  33.474  31.256   3.785 -0.0449  0.0886  0.1131
56206W        W99123  34.430  31.172   7.452  0.1592  0.1757  0.0119
56207W        W99124  33.282  31.456   6.579  0.4418  0.0061  0.2435
56208W        W99125  33.001  32.862   5.623 -0.0359 -0.2413 -0.2628
56209W        W99126  33.942  31.010   1.976  0.1581  0.2000 -0.1777
56210W        W99127  33.373  31.383   6.043  0.1004 -0.1745  0.1510
56211W        W99128  34.011  31.241   2.951  0.0856 -0.2227  0.0186
56212W        W99129  34.090  32.877   4.425  0.0408 -0.0559 -0.4401
56213W        W99130   0.790  30.319   5.264 -0.3108 -0.1835  0.1660
56214W        W99131  33.567  28.978   3.150  0.0502  0.2361  0.0609
56215W        W99132   1.236  30.410   6.137  0.1186 -0.3561 -0.0489
56216W        W99133  33.190  31.909   5.536 -0.1646  0.0075 -0.1374
56217W        W99134  33.981  30.493   5.654 -0.1848 -0.0396 -0.0150
56218W        W99135   0.163  31.659   4.454 -0.2829  0.0462 -0.3317
56219W        W99136   0.559  33.752   2.739  0.3487  0.0302  0.0403
56220W        W99137   0.231  32.109   6.132  0.1332 -0.0108 -0.2239
56221W        W99138  34.252  31.537   6.304  0.3397  0.3488 -0.0506
56222W        W99139  34.651  30.354   5.974 -0.1091 -0.3112  0.0042
56223W        W99140   0.709  29.190   3.225 -0.0288  0.0978  0.0027
56224W        W99141   0.773  30.200   5.825  0.3092  0.3255  0.1742
56225W        W99142  33.620  32.466   3.383  0.0029 -0.5685  0.0254
56226W        W99143  34.280  30.082   5.779 -0.0322 -0.1314  0.0149
56227W        W99144  32.816  30.656   3.671  0.1136  0.0254  0.0488
56228W        W99145  33.636  29.902   3.356 -0.0338  0.0595  0.0185
56229W        W99146  33.149  31.188   4.469 -0.0976 -0.0981  0.1828
56230W        W99147  34.341  30.366   4.787  0.1045  0.0913  0.0556
56231W        W99148  33.184  29.848   3.971  0.0690  0.1665  0.0539
56232W        W99149  34.442  31.530   2.744 -0.1228  0.2629  0.1588
56233W        W99150   0.067  30.063   4.689  0.0884 -0.2906  0.0038
56234W        W99151   0.366  31.246   4.227  0.3867 -0.0154 -0.0613
56235W        W99152  33.234  31.829   4.597 -0.1435 -0.0548  0.5668
56236W        W99153  33.390  32.580   2.948  0.0250  0.1851 -0.0475
56237W        W99154   2.775  31.925   1.014 -0.0052 -0.2334 -0.2194
56238W        W99155   1.821  30.464   4.305 -0.0288 -0.0815  0.0263
56239W        W99156  34.415  31.116   6.128 -0.0408  0.1580  0.0422
56240W        W99157  34.239  30.713   2.259  0.0266  0.1410 -0.1410
56241W        W99158   0.589  31.389   4.923 -0.1586  0.2506 -0.1749
56242W        W99159   1.374  31.791   0.921 -0.2066  0.0282 -0.1648
56243W        W99160  33.475  31.770   2.684 -0.0390 -0.2264  0.1428
56244W        W99161   0.522  30.984   4.648 -0.0548  0.0361 -0.2251
56245W        W99162   0.128  30.564   3.676  0.0035 -0.0603 -0.0556
56246W        W99163   1.283  31.787   6.599  0.1236  0.0116  0.1780
56247W        W99164  31.730  31.965   3.338  0.1581 -0.1978  0.1159
56248W        W99165  32.888  31.484   0.927  0.2985  0.3637 -0.0542
56249W        W99166  32.585  32.244   4.945  0.1283 -0.0956 -0.0708
56250W        W99167  32.613  30.344   4.714 -0.1221 -0.1356 -0.1797
56251W        W99168  33.387  30.704   5.178 -0.0702 -0.1746  0.2627
56252W        W99169  33.356  29.225   3.533  0.2488 -0.0248 -0.1449
56253W        W99170  33.173  30.784   4.049 -0.0636 -0.1406  0.2309
56254W        W99171  34.456  28.738   2.699 -0.1319 -0.1410  0.3564
56255W        W99172   1.778  29.166   4.879 -0.0575 -0.1801  0.1326
56256W        W99173  33.709  32.894   2.657 -0.1771 -0.0324  0.0654
56257W        W99174  34.652  30.043   6.360  0.0860 -0.0751 -0.0979
56258W        W99175   0.788  30.368   6.406  0.0557 -0.0484  0.1814
56259W        W99176  33.159  29.935   1.532 -0.0268 -0.0800  0.0417
56260W        W99177  34.067  30.211   5.119  0.3212 -0.0039  0.0739
56261W        W99178  32.711  30.581   6.485 -0.3102 -0.1393  0.0358
56262W        W99179   1.378  32.257   5.820 -0.0850  0.3910  0.2281
56263W        W99180  33.840  29.372   5.657 -0.2252  0.0724 -0.3100
56264W        W99181   1.911  32.158   7.111  0.0880  0.0362 -0.0181
56265W        W99182  34.334  29.839   4.928 -0.0520 -0.0498 -0.1662
56266W        W99183   0.361  30.122   7.187  0.1825  0.1910  0.0588
56267W        W99184   0.394  30.826   2.843 -0.5978  0.3029  0.1252
56268W        W99185  32.774  30.907   5.268 -0.0198 -0.0044 -0.2844
56269W        W99186   0.072  30.462   2.807 -0.1602  0.0663 -0.0421
56270W        W99187   0.801  30.504   8.851 -0.1615  0.0191 -0.0990
56271W        W99188  33.682  30.164   1.705  0.0199  0.0263 -0.0708
56272W        W99189   1.898  31.586   7.350 -0.1083  0.2821 -0.0513
56273W        W99190  30.869  27.597   5.619 -0.1231 -0.1772 -0.1100
56274W        W99191  34.591  31.475   3.507 -0.0935  0.3763  0.0990
56275W        W99192   0.690  31.279   2.903  0.2177  0.1091  0.2697
56276W        W99193  34.586  29.361   5.457  0.1792 -0.2121  0.1557
56277W        W99194  34.347  32.569   4.841 -0.0694  0.2011  0.2042
56278W        W99195   0.229  33.717  10.059  0.0465  0.0062 -0.1886
56279W        W99196   0.874  29.886   7.287 -0.2023  0.0835 -0.1442
56280W        W99197   0.156  30.958   7.703 -0.2529  0.0884  0.0980
56281W        W99198  32.789  28.928   8.543 -0.0119 -0.1180 -0.1803
56282W        W99199  34.658  29.584   7.297 -0.0122  0.2920 -0.2959
56283W        W99200  34.579  25.754   9.367  0.1814  0.3637 -0.1004
56284W        W99201  33.486  29.187   7.011  0.2207  0.0545 -0.1692
56285W        W99202  33.814  33.109   9.305  0.2457  0.2830 -0.1364
56286W        W99203   0.598  29.829   8.580 -0.0290 -0.1561 -0.0275
56287W        W99204  33.208  31.680   9.910  0.0166 -0.1218 -0.0845
56288W        W99205   0.225  32.434   7.339  0.2270  0.0471 -0.1860
56289W        W99206  32.896  29.166   5.420 -0.1516 -0.1379  0.2335
56290W        W99207  32.971  29.463   8.612 -0.2154 -0.1219 -0.2050
56291W        W99208  33.842  33.523   9.592 -0.3602 -0.1673  0.3003
56292W        W99209   2.476  33.021  11.647 -0.0716  0.3066  0.2441
56293W        W99210   1.143  33.100  10.391 -0.1127  0.0312 -0.0235
56294W        W99211   0.288  31.280   7.204  0.0233  0.0402 -0.2833
56295W        W99212  33.960  31.725   8.602  0.0224  0.0097 -0.1980
56296W        W99213   0.619  34.089   7.689 -0.2545 -0.1071 -0.0245
56297W        W99214  33.768  31.344   6.324  0.0387 -0.0957 -0.3448
56298W        W99215   1.458  29.933   8.284  0.0700  0.0791  0.0096
56299W        W99216   1.158  32.282   7.301  0.0213 -0.1490  0.1312
56300W        W99217   0.913  31.774   9.203 -0.1830 -0.1919  0.3671
56301W        W99218  33.418  31.354   7.216  0.0312 -0.1324  0.0143
56302W        W99219  33.697  30.281   6.091  0.1973  0.0610  0.4906
56303W        W99220   0.276  28.717   7.137 -0.3084 -0.0820  0.2286
56304W        W99221   0.981  31.352   6.789  0.0238  0.0565 -0.1126
56305W        W99222   1.498  29.577   8.841 -0.1598 -0.0680  0.0365
56306W        W99223   2.165  34.262  11.199 -0.1878  0.1388  0.0800
56307W        W99224  32.542  28.721   8.926 -0.1735 -0.1817  0.1556
56308W        W99225   0.642  32.948   9.097 -0.2683 -0.3154 -0.1280
56309W        W99226   0.001  28.456   6.778  0.1862 -0.0670  0.3841
56310W        W99227   0.644  31.098   7.628  0.0209  0.0330 -0.0162
56311W        W99228   0.645  30.523   6.897  0.3624 -0.3270  0.2851
56312W        W99229  33.918  31.470   7.858 -0.4154 -0.0449 -0.1657
56313W        W99230  33.492  29.632   9.240 -0.0505 -0.0189 -0.2214
56314W        W99231  34.556  31.605   7.243 -0.2347  0.1234  0.0547
56315W        W99232  31.875  34.399   8.311  0.1436  0.2544 -0.0020
56316W        W99233  33.866  32.279   7.560  0.2758 -0.0440 -0.0627
56317W        W99234  31.568  27.843   8.561  0.1242 -0.0618 -0.4186
56318W        W99235  33.310  32.360   8.576 -0.1025 -0.1437  0.2317
56319W        W99236  33.539  32.505   7.195 -0.1021  0.2404  0.1961
56320W        W99237   0.038  31.163   9.385 -0.1765  0.2399  0.0066
56321W        W99238  34.436  28.837   7.129  0.0704  0.2103  0.0599
56322W        W99239  33.088  29.856   8.017  0.2943 -0.1623  0.1262
56323W        W99240   1.296  28.101   5.927 -0.0307 -0.0286 -0.0077
56324W        W99241   0.093  29.523   7.739 -0.1955  0.0614 -0.2081
56325W        W99242  33.939  31.059   8.137 -0.1850  0.1152 -0.0027
56326W        W99243  33.886  30.395   8.978  0.2199 -0.1326 -0.2220
56327W        W99244  33.122  28.627   7.517  0.3253  0.0214 -0.2359
56328W        W99245  33.140   1.379  12.640 -0.3477 -0.2974  0.3196
56329W        W99246  33.571  30.933   7.484  0.0425 -0.0853 -0.0954
56330W        W99247  34.392  28.079   6.967  0.1367  0.2973 -0.0281
56331W        W99248  33.926  30.534   4.474  0.0578 -0.0863 -0.0734
56332W        W99249  34.537  32.709   9.305 -0.1287  0.2651 -0.1141
56333W        W99250  34.202  31.146   9.388  0.1123  0.0482 -0.0249
56334W        W99251   0.707  31.795   6.356 -0.0398  0.2361 -0.2956
56335W        W99252  34.296  31.996   8.888  0.1082  0.0618  0.0297
56336W        W99253   1.851  32.313   9.010  0.2866  0.2815  0.3702
56337W        W99254   1.203  32.158   9.282 -0.0093  0.0327  0.0389
56338W        W99255   0.538  32.485   8.450 -0.1867 -0.1216 -0.1165
56339W        W99256   0.102  29.145   8.996  0.0133  0.1202 -0.1070
56340W        W99257  34.214  29.656   6.505 -0.1624 -0.0419  0.1378
56341W        W99258  32.829  32.492   7.320  0.0242  0.0948  0.0562
56342W        W99259  33.983  30.967   8.979 -0.0702  0.0931  0.3103
56343W        W99260   1.888  27.325   8.102  0.2342  0.1288  0.0990
56344W        W99261  34.350  32.327   9.608 -0.1827  0.0447 -0.1297
56345W        W99262  34.447  31.856   6.745  0.0645  0.3696 -0.1528
56346W        W99263   0.420  30.059   6.192 -0.1906  0.1244  0.2197
56347W        W99264   2.453  29.773   8.777  0.1431 -0.2365  0.0427
56348W        W99265   0.396  30.967   9.125  0.1061 -0.1331 -0.0113
56349W        W99266  34.172  31.871   7.516 -0.1886  0.0486  0.0590
56350W        W99267   0.458  32.125   6.593  0.0994  0.2472 -0.0835
56351W        W99268  30.462  31.145   9.231  0.1813  0.0288  0.0326
56352W        W99269  32.834  30.790   7.691 -0.0083  0.0839 -0.3771
56353W        W99270  32.707  29.128   6.410 -0.1890 -0.2419 -0.1091
56354W        W99271   1.487  31.482  10.123 -0.0324 -0.2063  0.2125
56355W        W99272   0.628  28.354   8.409  0.2176 -0.3195  0.0706
56356W        W99273   0.332  31.510   9.560  0.4194  0.3539 -0.0484
56357W        W99274  34.335  29.355   6.833 -0.1068  0.0977 -0.0919
56358W        W99275   1.554  32.532   9.406 -0.0389  0.0489  0.0342
56359W        W99276   0.691  31.223  10.039  0.1757 -0.1188 -0.1843
56360W        W99277   0.112  30.327   5.071 -0.1544  0.0608 -0.1106
56361W        W99278   1.400  31.296   6.452  0.1880  0.0915 -0.1466
56362W        W99279   1.744  29.429   8.410 -0.1363  0.0651  0.2336
56363W        W99280   0.290  29.379   9.406 -0.1558 -0.1679  0.0761
56364W        W99281   1.099  30.216   7.832  0.0753  0.2330 -0.1083
56365W        W99282   1.129  28.863   7.799  0.0094 -0.3275  0.1620
56366W        W99283   0.726  30.612   8.372  0.0436 -0.4026  0.0603
56367W        W99284  34.118  31.242   8.570  0.2732 -0.0138 -0.0132
56368W        W99285   0.602  31.602   7.375 -0.2230 -0.0274 -0.0270
56369W        W99286  34.245  31.938   9.864  0.0906 -0.1569 -0.1320
56370W        W99287   0.269  29.721   8.213 -0.1411  0.0190 -0.0440
56371W        W99288  34.617  30.071   7.511 -0.0642  0.0925 -0.0202
56372W        W99289   0.005  31.306   8.810  0.2275 -0.0528  0.0282
56373W        W99290   0.151  30.448   7.814  0.0656 -0.0236  0.0855
56374W        W99291   1.054  28.411   8.617  0.2804  0.0055 -0.0659
56375W        W99292  34.426  29.732   4.445 -0.1475 -0.1239  0.0515
56376W        W99293  34.476  30.737  10.023 -0.1563  0.1133 -0.1720
56377W        W99294  34.055  29.559   7.959  0.0211  0.1753 -0.1476
56378W        W99295   1.150  32.206   8.500 -0.0998  0.0447  0.0518
56379W        W99296   0.387  30.667   7.323  0.0080 -0.1010 -0.0626
56380W        W99297   1.131  31.191   8.371  0.2378 -0.2321 -0.1696
56381W        W99298  34.578  30.199   9.091 -0.1122 -0.2673  0.1719
56382W        W99299  33.756  30.043   5.578 -0.1736  0.0621 -0.1211
56383W        W99300   1.385  31.332   7.441  0.0585 -0.1074  0.0633
56384W        W99301   0.495  31.693   9.992 -0.0377 -0.2275 -0.0906
56385W        W99302  33.881  29.392   7.349 -0.0484 -0.1535 -0.2084
56386W        W99303   0.312  30.471   5.611 -0.2829  0.2305  0.2852
56387W        W99304   1.660  30.404   9.114  0.0870 -0.2860  0.0395
56388W        W99305  32.363  29.278   6.692  0.1767 -0.0437 -0.2506
56389W        W99306  34.235  31.810   7.985 -0.1095  0.0089 -0.1630
56390W        W99307  34.150  32.420   9.066  0.3269  0.0618 -0.0491
56391W        W99308   0.769   0.514   5.329 -0.1275 -0.0462  0.2107
56392W        W99309   0.123  29.408   5.959  0.1181  0.0496  0.0465
56393W        W99310  34.550  30.973   8.450  0.3551  0.2376  0.0571
56394W        W99311   0.144  32.604   6.377 -0.0726  0.1902  0.0741
56395W        W99312  33.777  29.339   6.570  0.2005 -0.0183  0.1413
56396W        W99313  32.535  29.343   8.356 -0.0847  0.0069 -0.0966
56397W        W99314  33.383  32.771   7.982 -0.4374  0.1854 -0.2792
56398W        W99315   0.696  29.378   5.976 -0.2525  0.0329  0.0027
56399W        W99316  32.826  33.179   9.006  0.0032  0.2072  0.0805
56400W        W99317  33.022  28.549   6.075 -0.0791 -0.0619 -0.0740
56401W        W99318   1.024  31.722   7.154 -0.0198  0.1065  0.4709
56402W        W99319   1.763  31.013   9.471 -0.1312 -0.0638  0.1692
56403W        W99320  34.163  30.202   6.237  0.0451  0.1343 -0.2696
56404W        W99321  33.762  29.866   7.383  0.1048 -0.0699  0.4209
56405W        W99322  33.916  30.751   8.520  0.2927 -0.2629 -0.1733
56406W        W99323   2.672  32.522   6.399 -0.2871  0.2237 -0.0397
56407W        W99324   0.188  31.951   7.485  0.2900  0.1798 -0.0704
56408W        W99325   0.696  31.546   8.484 -0.2330  0.0500  0.2486
56409W        W99326   2.722  33.450  11.662 -0.3113  0.0126 -0.0440
56410W        W99327  33.382  28.877   5.727  0.0576  0.1246 -0.1324
56411W        W99328   2.012  29.969   7.086  0.2863 -0.1259 -0.0759
56412W        W99329  34.312  30.468   8.738 -0.0712  0.1556 -0.1203
56413W        W99330   1.018  30.093   9.610 -0.0409 -0.0979  0.3064
56414W        W99331  32.824  30.130   6.657  0.0282 -0.2352  0.0103
56415W        W99332  33.253  27.336   9.241  0.0068 -0.0573  0.2509
56416W        W99333  33.811  30.569   8.024  0.1294  0.0858  0.1975
56417W        W99334   1.227  28.608   9.061  0.2944 -0.4044  0.0988
56418W        W99335   0.676  28.529   8.928  0.1045 -0.2177  0.1009
56419W        W99336  34.154  33.939   9.546  0.1253  0.4395  0.1265
56420W        W99337  32.531  31.041   8.464  0.1028 -0.0689 -0.0281
56421W        W99338   1.753  28.514   5.991 -0.0276 -0.3397  0.0090
56422W        W99339  34.460  32.633   8.228 -0.0244  0.2247  0.0213
56423W        W99340  33.557  31.584   8.185  0.1608 -0.3119 -0.1989
56424W        W99341   0.949  32.883   6.463 -0.1058  0.1726 -0.0019
56425W        W99342   2.034  28.676   8.971  0.0013 -0.1020 -0.1573
56426W        W99343  34.244  30.643   6.113  0.2303  0.0419  0.1235
56427W        W99344   0.191  31.852   8.728 -0.3287  0.2058 -0.2063
56428W        W99345   0.483  31.576   5.940  0.3222 -0.1012 -0.0557
56429W        W99346   0.431  31.005   9.679  0.0661  0.3034 -0.1495
56430W        W99347   1.830  29.718   9.353  0.0916  0.1939  0.1995
56431W        W99348   0.809  31.005   8.769 -0.1518 -0.2375 -0.3748
56432W        W99349  34.047  30.235   6.811  0.1111 -0.1996  0.0583
56433W        W99350   0.240  30.822   6.866  0.0770  0.1162 -0.0846
56434W        W99351  33.679  32.758   8.886 -0.1449  0.2298  0.0152
56435W        W99352  33.834  30.055   9.337 -0.2469  0.1750  0.3433
56436W        W99353  33.673  28.609   7.697 -0.3043 -0.0240 -0.1256
56437W        W99354   0.416  28.905   8.388 -0.0338  0.0749 -0.1596
56438W        W99355  32.086  29.446   8.805 -0.1829  0.3854 -0.0300
56439W        W99356   1.483  29.211   7.584 -0.0419 -0.2120  0.2206
56440W        W99357  32.056  30.322   5.651  0.0141 -0.0291 -0.1693
56441W        W99358  32.297  30.426   7.722  0.2720  0.0703  0.4130
56442W        W99359  34.466  28.677   7.638  0.5417  0.0852 -0.0017
56443W        W99360  29.964  30.639   8.706  0.1573 -0.0403 -0.1703
56444W        W99361   0.130  29.857   9.941  0.0438 -0.0944 -0.1053
56445W        W99362   0.039  31.682   9.179  0.0874  0.1297 -0.2540
56446W        W99363   1.199  29.521   8.431  0.2747  0.0797  0.1007
56447W        W99364  34.258  29.679   7.538 -0.1610 -0.2454  0.0143
56448W        W99365  33.932  32.615   9.479 -0.2116  0.1343  0.2548
56449W        W99366  32.248  29.000   8.639  0.2939  0.1918  0.2444
56450W        W99367  33.776  30.000   7.901 -0.0116  0.0763  0.0156
56451W        W99368   0.533  32.590   6.744  0.1203  0.1128 -0.2129
56452W        W99369  30.703  28.201   8.181 -0.1403 -0.0771 -0.2418
56453W        W99370   0.444  31.965   8.309  0.0188 -0.2281 -0.0181
56454W        W99371  33.211  34.377   0.852 -0.0509  0.0029  0.2193
56455W        W99372  33.222  33.114  31.635 -0.1636 -0.3682 -0.0242
56456W        W99373  34.119  31.904   1.733 -0.2543 -0.1479 -0.0796
56457W        W99374   0.755   0.955   1.912  0.0958 -0.0886 -0.0021
56458W        W99375   0.609  34.238   0.926 -0.1104 -0.0238  0.1370
56459W        W99376  33.689  32.206   2.868  0.0272 -0.1285  0.0365
56460W        W99377  31.784  34.466   1.299 -0.0258  0.3833  0.1469
56461W        W99378  31.769  33.509   1.812 -0.5098  0.0018 -0.1481
56462W        W99379   0.466  34.593  31.618 -0.1402  0.1060  0.0138
56463W        W99380  34.139  33.862   0.697 -0.3815  0.2960  0.0159
56464W        W99381  33.237  34.433  31.458 -0.0286 -0.0884 -0.3177
56465W        W99382  32.683  34.376   0.692  0.1031 -0.1598  0.2614
56466W        W99383  33.255   1.273   2.308 -0.0746  0.2391  0.2044
56467W        W99384   1.490   1.076   1.011  0.0340  0.1405  0.2714
56468W        W99385   1.901  32.257  31.475 -0.0520 -0.1205 -0.3594
56469W        W99386   1.064  34.352   1.232  0.0430 -0.2022  0.0496
56470W        W99387  33.717  34.310   1.044 -0.0443 -0.0371 -0.0886
56471W        W99388  32.900  32.695   1.633 -0.0452 -0.1757  0.1499
56472W        W99389  33.834   1.347   2.232  0.1017  0.3222 -0.0270
56473W        W99390  34.069  34.589   3.538  0.2116  0.0910  0.0293
56474W        W99391  34.110  34.452   4.057 -0.0251 -0.3478 -0.0743
56475W        W99392  32.883  33.749   0.193  0.2774  0.0541 -0.3905
56476W        W99393   0.529  33.578   2.269  0.1473 -0.0519  0.0636
56477W        W99394  34.544  32.915   1.780 -0.1228 -0.1903  0.2739
56478W        W99395   0.388  34.077  31.528 -0.2795 -0.1899  0.1766
56479W        W99396  32.855  33.234   2.286 -0.0442 -0.0097 -0.2607
56480W        W99397   2.367  34.639   0.922  0.1224 -0.0108  0.2629
56481W        W99398  32.452  32.524   1.903 -0.0597 -0.0335  0.2133
56482W        W99399  32.107  32.953   1.789  0.1768 -0.1086  0.4679
56483W        W99400  32.505  33.105   1.003 -0.2394  0.2272 -0.2974
56484W        W99401   0.371   1.074  31.693  0.1329 -0.4383  0.3156
56485W        W99402   0.522   0.692   2.261 -0.0471 -0.1265 -0.0910
56486W        W99403  33.587  32.949   0.897 -0.1338  0.0735  0.3428
56487W        W99404   0.224  33.147   0.177  0.1447 -0.2444  0.1042
56488W        W99405  32.532  33.933   0.542 -0.0675  0.0071 -0.1359
56489W        W99406  33.881   2.347   2.338  0.0413  0.2816  0.2460
56490W        W99407  34.012  32.594   4.007  0.3752 -0.0116  0.3869
56491W        W99408  34.282   1.068   1.063 -0.1014  0.2039  0.2913
56492W        W99409   0.948  34.502   0.477  0.1978 -0.0485 -0.2262
56493W        W99410  34.248  33.400   0.946  0.1250 -0.1491  0.2524
56494W        W99411   0.890  32.163   1.526 -0.2283 -0.1760  0.0503
56495W        W99412  34.666  34.004   0.624  0.2334  0.1817 -0.1141
56496W        W99413   1.546  32.417   2.263  0.1596  0.2027 -0.2331
56497W        W99414   0.505  33.068   2.347  0.2028  0.2510 -0.3593
56498W        W99415  33.762  33.412   0.685 -0.2399 -0.0530 -0.2841
56499W        W99416  34.271   1.322   0.603  0.1752  0.0005 -0.1267
56500W        W99417  33.245  32.424   2.082  0.2468  0.0926  0.2848
56501W        W99418  33.611  33.754   1.559 -0.0982  0.2287 -0.0563
56502W        W99419   0.246  34.214   1.973  0.1298  0.3538  0.3869
56503W        W99420  34.180  33.099   2.659 -0.2061 -0.2444  0.0910
56504W        W99421  31.106  33.996   1.442 -0.0163 -0.1159  0.0577
56505W        W99422  33.846  32.829   1.311  0.2260 -0.0171  0.0562
56506W        W99423   0.052   1.564   0.456  0.1965  0.2646  0.0983
56507W        W99424  32.703   0.735   2.570  0.1364 -0.2815 -0.2510
56508W        W99425  34.200  34.250   1.338 -0.0023 -0.3519  0.1594
56509W        W99426  33.656  33.253   2.276 -0.1562  0.1481 -0.1745
56510W        W99427   0.304   0.880   1.027  0.1658  0.1850  0.0396
56511W        W99428   0.044   0.732   2.482  0.4022  0.0568  0.1241
56512W        W99429   1.635  31.618   1.849  0.2933 -0.1282  0.2464
56513W        W99430   2.697   0.432   0.349  0.2545  0.0243  0.2036
56514W        W99431  33.925   0.078   0.959 -0.0584 -0.1347  0.0380
56515W        W99432   0.149   1.303   1.332  0.0097  0.0945  0.0121
56516W        W99433  34.599  32.874   3.300  0.2922  0.1247 -0.0363
56517W        W99434  34.246  34.356  30.803 -0.0904 -0.3474 -0.1998
56518W        W99435  33.579   0.958   3.141 -0.0277 -0.1194 -0.0268
56519W        W99436  33.861   1.053   1.434  0.1678  0.0933 -0.0299
56520W        W99437   0.373  34.406   2.416  0.1187  0.2237  0.0474
56521W        W99438   0.188  34.312   3.250  0.1430 -0.1634  0.3427
56522W        W99439  32.623  32.417   4.135 -0.1374  0.2946  0.0760
56523W        W99440  34.542  34.337   2.568  0.1183  0.5919 -0.0285
56524W        W99441  32.854  33.137  31.215  0.4914 -0.1711 -0.0221
56525W        W99442  34.559  32.516   0.830  0.0220 -0.1335 -0.1201
56526W        W99443  33.319  33.580   1.046 -0.0994 -0.0604 -0.2215
56527W        W99444  34.619   1.076  29.924  0.0275 -0.0803 -0.0151
56528W        W99445   1.405  33.189   0.242  0.0728  0.0885 -0.1037
56529W        W99446   0.196   0.407   1.912 -0.3976 -0.3001  0.0070
56530W        W99447   0.175   0.697   0.071  0.0935 -0.5024 -0.0875
56531W        W99448  34.064  32.563   2.634  0.1611 -0.3902 -0.2127
56532W        W99449  34.373  32.326   0.310  0.1859  0.0379 -0.2763
56533W        W99450  34.186  32.123   0.812  0.1591 -0.2379 -0.0668
56534W        W99451  33.243  34.597   2.245  0.0599  0.2665  0.0322
56535W        W99452   1.864  32.950   1.604  0.0897 -0.0163 -0.2095
56536W        W99453   1.868   0.106   2.341  0.2009 -0.2143  0.3118
56537W        W99454  32.133  34.662   1.733 -0.0333 -0.1950 -0.1088
56538W        W99455  34.580  34.068  31.658  0.0559 -0.2584  0.0676
56539W        W99456  32.522   0.073   0.392  0.2619  0.0707 -0.2504
56540W        W99457  34.527  34.468   1.711 -0.2943  0.3486  0.0307
56541W        W99458   0.270  34.218   0.053  0.1131 -0.1400  0.0092
56542W        W99459  32.816   0.548   1.644 -0.0030  0.0579 -0.0470
56543W        W99460   0.362   1.896  31.861 -0.0490 -0.0105  0.0384
56544W        W99461  34.118  32.792   0.820 -0.0693  0.4010 -0.1115
56545W        W99462   0.149  34.381   0.942 -0.2509 -0.2789  0.0536
56546W        W99463  33.553   1.127   1.919  0.1165 -0.0599  0.0670
56547W        W99464  34.592  33.181  31.306 -0.0490  0.2966  0.1541
56548W        W99465  31.450  32.531   2.210  0.2061 -0.7001 -0.3315
56549W        W99466   1.370  32.789   1.792  0.1350  0.1740 -0.0189
56550W        W99467  33.754  34.263   1.676 -0.0066 -0.0299  0.4046
56551W        W99468   3.643   0.026   0.691  0.4605  0.1330  0.0093
56552W        W99469  33.414  32.570   1.617 -0.0729  0.0606 -0.0988
56553W        W99470   0.584   0.168   2.872 -0.3691 -0.0612  0.1526
56554W        W99471  31.844   0.561   0.684  0.0345  0.1812  0.3563
56555W        W99472   1.502  32.207   2.934  0.0515 -0.0980  0.4153
56556W        W99473   0.970  33.982   2.550  0.0528 -0.0358 -0.0233
56557W        W99474  34.271  34.356   0.859  0.2207  0.0719 -0.0265
56558W        W99475  34.027  34.160  31.854  0.0878  0.0718 -0.2475
56559W        W99476  33.642  32.586   0.012 -0.1152  0.0592  0.0838
56560W        W99477  33.047   0.107   1.793 -0.0103  0.1290 -0.0679
56561W        W99478   0.545  34.070   0.478 -0.0481  0.2074  0.1384
56562W        W99479   0.967  34.009   3.637  0.4457  0.1969 -0.1001
56563W        W99480   1.537  34.315   2.051 -0.0307  0.4249  0.3479
56564W        W99481  32.380  32.159   0.382 -0.1111  0.0051  0.0349
56565W        W99482  34.259   1.439   1.381 -0.2794 -0.0811 -0.2066
56566W        W99483  33.653  31.815   1.236  0.0018  0.0029 -0.1175
56567W        W99484  32.558  32.416   3.444 -0.1041  0.0997  0.1616
56568W        W99485  33.547   0.059   1.801  0.2577 -0.0780  0.2101
56569W        W99486  33.605  34.477  31.848 -0.1465  0.0557 -0.2750
56570W        W99487   0.212   0.782  29.610 -0.2201 -0.0757  0.1335
56571W        W99488   1.593  33.588   1.106  0.1800  0.0557  0.1491
56572W        W99489  34.451   0.999  31.753 -0.1086  0.0391  0.0170
56573W        W99490  32.559  34.144   1.207 -0.0021  0.2495 -0.1170
56574W        W99491  33.403   0.155   2.639 -0.0300  0.0840 -0.3167
56575W        W99492  33.873   0.230   2.441  0.1072  0.1855 -0.1983
56576W        W99493  32.834  33.962   1.641 -0.0911 -0.0161  0.2861
56577W        W99494  34.651  33.091   4.159 -0.0947  0.2608 -0.1066
56578W        W99495  32.420  32.836   4.177  0.1784 -0.3811 -0.1735
56579W        W99496  32.776  32.112   6.358  0.2048 -0.0275 -0.0649
56580W        W99497   0.592  32.947   4.889 -0.3416  0.3250 -0.2128
56581W        W99498   0.874  33.215   2.821 -0.2088  0.3167 -0.1648
56582W        W99499  33.448  32.112   3.738  0.1935  0.0689 -0.4947
56583W        W99500  34.606  34.384   5.206  0.1922  0.1880 -0.4429
56584W        W99501  34.455  32.214   6.350 -0.0869 -0.7204  0.3747
56585W        W99502   0.893  33.167   3.981  0.1939  0.1038 -0.0989
56586W        W99503   0.398  32.934   7.532  0.0184  0.3484  0.1956
56587W        W99504  34.217  33.642   2.612 -0.0893  0.0344  0.1895
56588W        W99505  33.627  33.844   4.287  0.0225 -0.2260  0.0765
56589W        W99506  33.774  31.942   7.904 -0.0673  0.1609 -0.2258
56590W        W99507   0.560  34.382   5.980  0.0076  0.1902  0.1522
56591W        W99508   1.204  33.651   3.909  0.2731 -0.1146 -0.0302
56592W        W99509  34.136  32.136   5.496 -0.1115  0.0571  0.2700
56593W        W99510   0.629  31.877   3.808  0.0520 -0.1162  0.0281
56594W        W99511  33.775  33.062   3.855 -0.0782  0.3910 -0.1397
56595W        W99512  34.041  33.551   3.739 -0.1612 -0.1981  0.1771
56596W        W99513   1.395  34.253   6.572 -0.1300 -0.0873  0.0592
56597W        W99514  33.499  34.504   7.255  0.0785  0.0469  0.2708
56598W        W99515   0.978  33.514   2.433  0.1554  0.4456 -0.1853
56599W        W99516  33.941  33.733   7.649  0.0993 -0.1381  0.2071
56600W        W99517  33.656  31.658   5.499 -0.1006 -0.0636  0.0903
56601W        W99518   0.193  31.443   7.748  0.0368  0.1377  0.0079
56602W        W99519   0.311  34.356   7.348 -0.0090  0.1651 -0.0950
56603W        W99520  34.497  33.405   2.956 -0.1286  0.0221 -0.0497
56604W        W99521  33.706   0.034   7.723  0.3955  0.0166  0.2027
56605W        W99522  33.193  32.422   6.324 -0.0217 -0.0598 -0.0956
56606W        W99523   1.681  32.797   3.576  0.5575 -0.1211 -0.0977
56607W        W99524   0.319  33.231   2.941 -0.1868  0.0791 -0.2498
56608W        W99525   0.393   0.107   6.620  0.0176  0.1795  0.1053
56609W        W99526   0.109  33.242   4.928  0.0458  0.1282  0.1440
56610W        W99527  33.858  31.923   4.560  0.1503  0.2681 -0.2155
56611W        W99528   0.094  33.933   2.671 -0.0299  0.2138  0.3408
56612W        W99529  33.277  33.093   3.064 -0.4900 -0.0171 -0.2018
56613W        W99530   0.152  33.850   7.229 -0.1730 -0.0768  0.1076
56614W        W99531  34.337   1.479   1.998  0.0084  0.0812  0.0200
56615W        W99532   1.261  32.847   6.064 -0.1251 -0.0839  0.4899
56616W        W99533  33.724  34.355   3.273 -0.0464  0.2401  0.0429
56617W        W99534  34.132  30.943   5.736 -0.0543 -0.2230  0.2078
56618W        W99535  34.089  33.663   4.649 -0.0672  0.2110  0.2157
56619W        W99536  34.048   0.043   7.353  0.1326 -0.1794 -0.0436
56620W        W99537   0.754  33.829   8.278 -0.0028  0.2845  0.3304
56621W        W99538  33.498  32.155   6.727  0.2893 -0.0975 -0.0970
56622W        W99539  34.541  33.960   1.684  0.1198 -0.0806 -0.1101
56623W        W99540  32.827  32.801   3.759 -0.0562 -0.2356 -0.3173
56624W        W99541   0.350  33.388   5.867  0.3596  0.3770  0.5432
56625W        W99542   1.252  33.384   5.907 -0.1728 -0.1583 -0.2433
56626W        W99543  34.151  33.228   6.331  0.1962  0.0412  0.0098
56627W        W99544  33.735  33.774   2.372 -0.1396 -0.2054 -0.0795
56628W        W99545   1.837  31.787   3.414  0.1593 -0.3281 -0.0893
56629W        W99546  34.370  34.480   3.032  0.2911  0.0676  0.3589
56630W        W99547   0.892  33.577   7.744 -0.2582 -0.2305 -0.0510
56631W        W99548   0.417  32.783   6.034  0.1802 -0.0119  0.2730
56632W        W99549   1.723  33.543   3.749  0.0516 -0.1860 -0.1577
56633W        W99550  33.315  34.062   4.985 -0.0557 -0.1923 -0.3004
56634W        W99551   0.329  32.512   5.657 -0.1871  0.2527  0.0214
56635W        W99552   0.774  33.130   3.370  0.0834 -0.1306 -0.1966
56636W        W99553  33.870  33.372   5.002  0.1778  0.3043 -0.2010
56637W        W99554  31.980  33.296   5.541 -0.0512  0.2455  0.1655
56638W        W99555  34.198   0.540   7.754  0.0454  0.2194  0.2824
56639W        W99556  33.679  31.959   3.291  0.2281  0.1951  0.0178
56640W        W99557   0.412  33.429   6.974 -0.0393  0.0380  0.0856
56641W        W99558   0.054  33.884   6.597 -0.1396  0.1097  0.2508
56642W        W99559  34.520  33.054   7.442  0.2035  0.0879 -0.1317
56643W        W99560   0.488  33.631   5.203 -0.1481 -0.1375  0.1195
56644W        W99561  32.541  33.867   8.254 -0.1145  0.0163 -0.0437
56645W        W99562   0.230  31.235   6.163  0.1926 -0.0831  0.1514
56646W        W99563   1.093  33.402   1.041  0.0827 -0.0306  0.0041
56647W        W99564   1.507  32.854   4.498 -0.1390 -0.0778 -0.0247
56648W        W99565  34.569  34.518   3.621 -0.1179  0.1090  0.1295
56649W        W99566   2.195  33.056   1.207 -0.1445  0.4337  0.0572
56650W        W99567  34.489  32.367   3.761 -0.1122  0.3047 -0.2610
56651W        W99568   0.607  32.808   3.772  0.3149  0.0615 -0.1139
56652W        W99569   0.112  32.833   5.177  0.0622  0.0519  0.3023
56653W        W99570  32.300  33.700   5.717  0.1399  0.0768 -0.0908
56654W        W99571  33.620  32.174   5.472 -0.3113 -0.1971  0.1088
56655W        W99572   0.301  32.329   2.893 -0.1657  0.2131  0.1060
56656W        W99573   0.068  33.144   6.196 -0.1149 -0.0997  0.1513
56657W        W99574   0.387  32.726   3.301  0.0185 -0.1203 -0.1317
56658W        W99575  34.335  32.863   6.983  0.2903 -0.2847 -0.0359
56659W        W99576  34.474  32.319   2.607 -0.3188 -0.0218 -0.1632
56660W        W99577   1.227  32.976   3.095 -0.1797 -0.0418  0.0835
56661W        W99578  33.662  33.356   3.440 -0.1485 -0.1226  0.0826
56662W        W99579  34.670   0.544   8.703 -0.1940 -0.1734  0.1726
56663W        W99580   0.808  34.119   4.123 -0.0244  0.0489  0.1563
56664W        W99581  33.499  33.568   5.282 -0.0055 -0.0628  0.2067
56665W        W99582   2.874  33.440   3.559 -0.0228  0.0140 -0.3721
56666W        W99583  34.196  33.093   5.339 -0.0608  0.0097  0.1092
56667W        W99584  34.397  33.315   5.839  0.0258 -0.1677  0.0458
56668W        W99585   1.327  34.196   7.049 -0.1115 -0.2147  0.1389
56669W        W99586  32.115  32.335   2.593  0.0935 -0.0271 -0.0903
56670W        W99587  33.488  34.660   5.977 -0.1656  0.0850 -0.1963
56671W        W99588   2.505  33.031   3.096 -0.1433 -0.1714 -0.1718
56672W        W99589   0.369  32.304   3.662 -0.0881  0.1782 -0.1232
56673W        W99590   0.011  32.073   4.167 -0.2029  0.1664 -0.3831
56674W        W99591   0.067  33.365   5.408  0.5082 -0.0790 -0.1820
56675W        W99592   0.805  34.085   8.727  0.1443 -0.0737  0.1932
56676W        W99593   0.436  34.124   4.482 -0.1214  0.0505 -0.1571
56677W        W99594  33.746  32.205   8.741 -0.0998 -0.0060 -0.0011
56678W        W99595  33.139  33.230   6.747 -0.0986  0.2297  0.0299
56679W        W99596  33.391   0.118   4.344 -0.2037  0.0039  0.1806
56680W        W99597  34.082  32.370   6.052  0.2235  0.0884  0.4043
56681W        W99598  33.417  33.275   4.834 -0.4646 -0.1770 -0.2350
56682W        W99599  34.040  33.585   5.462 -0.0423  0.1551  0.2543
56683W        W99600   0.872  32.499   5.677  0.1959 -0.1282 -0.0315
56684W        W99601   1.137   0.351   7.540  0.4927 -0.1752  0.0299
56685W        W99602  34.425  32.585   4.293 -0.1038 -0.0020  0.1893
56686W        W99603  33.204  33.547   2.120 -0.5044  0.0043  0.0857
56687W        W99604   0.623  33.004   5.560 -0.1218  0.1254  0.0525
56688W        W99605  33.319  32.519   5.354  0.1488  0.0383 -0.2586
56689W        W99606  32.625  32.135   8.560  0.1812 -0.0359  0.0013
56690W        W99607  32.776  34.025   5.021 -0.1281  0.0503  0.2070
56691W        W99608  34.112  34.458   4.877 -0.0125 -0.1091 -0.1022
56692W        W99609   1.481  34.151   4.070  0.1920 -0.1286  0.0132
56693W        W99610   2.689  33.487   5.407  0.0627  0.2443 -0.1677
56694W        W99611   0.948  32.162   2.979  0.0235 -0.0257  0.1819
56695W        W99612  33.430  30.999   6.434 -0.2053  0.1039  0.0388
56696W        W99613   0.022  33.875   4.348  0.1536  0.0090 -0.1190
56697W        W99614   1.026  33.664   5.209  0.0391 -0.0175  0.0470
56698W        W99615  34.405  33.517   5.030  0.0109  0.1439  0.3110
56699W        W99616   0.581  33.905   6.609  0.1921  0.1324  0.1079
56700W        W99617   0.056   1.287   8.054  0.0214  0.0651 -0.0304
56701W        W99618   0.366   1.374   8.584  0.2017 -0.2043 -0.3073
56702W        W99619  33.647  33.296   7.554  0.0567  0.0103 -0.0177
56703W        W99620   0.105   0.124   8.876 -0.1876  0.1006 -0.2635
56704W        W99621  34.453   0.259   8.048 -0.1318  0.0491  0.0443
56705W        W99622  33.692   0.769   9.502  0.4095  0.0066  0.4436
56706W        W99623  33.772  34.567   9.158 -0.2336  0.2714 -0.0775
56707W        W99624  34.064  33.040   8.307  0.1551  0.0815 -0.0269
56708W        W99625  34.128  34.363   7.710  0.1992 -0.2526 -0.1132
56709W        W99626  34.371  31.612   9.520 -0.0187 -0.3417  0.1116
56710W        W99627  34.366  34.529  10.290  0.1386  0.1347  0.2587
56711W        W99628   0.980  34.362   9.798 -0.0112 -0.0691  0.3159
56712W        W99629  33.506  33.804   7.831  0.2806  0.1318  0.0044
56713W        W99630  33.700  34.169   7.617  0.2203 -0.1328  0.0522
56714W        W99631   0.415   1.028   8.252 -0.2718 -0.0624  0.1683
56715W        W99632  34.090  32.571   8.562 -0.1784  0.2347  0.3687
56716W        W99633   2.706   0.904   7.954  0.1783 -0.1480 -0.2233
56717W        W99634  33.601  33.423   6.663  0.0157 -0.1513  0.0380
56718W        W99635  33.407  32.151   9.644 -0.1850  0.0208  0.2716
56719W        W99636  33.037  31.466   8.218 -0.2779  0.0040  0.0748
56720W        W99637  34.591  33.514   9.683  0.0177  0.4660  0.0453
56721W        W99638  31.253  33.713  10.085 -0.1362 -0.1846  0.0689
56722W        W99639   0.328  32.858   8.109 -0.0688  0.0932 -0.0494
56723W        W99640   2.059  34.121   9.018 -0.0096  0.1536 -0.1874
56724W        W99641  33.581  34.438   9.699 -0.1095 -0.0315 -0.0014
56725W        W99642   1.319  34.027   9.101 -0.3068 -0.2904 -0.1258
56726W        W99643   0.836  33.957  10.019 -0.1334  0.1481 -0.1230
56727W        W99644  33.905  32.818   6.247 -0.4343 -0.0266  0.0289
56728W        W99645  33.133   0.144   9.709 -0.0222 -0.0246 -0.0346
56729W        W99646   0.282  33.856   8.742 -0.3759  0.2594 -0.2514
56730W        W99647  34.345   0.315   9.735  0.0470  0.0702  0.0164
56731W        W99648   1.331  33.620   8.256 -0.0588  0.1391 -0.0489
56732W        W99649  34.655  34.368   8.672  0.0702  0.0388 -0.0774
56733W        W99650   1.640  34.016  10.349  0.0618 -0.2175 -0.1547
56734W        W99651   1.176  32.819   8.468 -0.0241  0.0870 -0.0087
56735W        W99652  34.510  33.832   8.533  0.0213  0.2706  0.0690
56736W        W99653  33.417  33.754   8.739  0.1625 -0.1271 -0.1211
56737W        W99654  33.718  34.173   8.340  0.0208  0.0291 -0.1298
56738W        W99655   3.295  31.217  10.359 -0.3042  0.2743 -0.0258
56739W        W99656  33.887  33.679   7.026 -0.0678  0.0696  0.3637
56740W        W99657   0.302  33.887  10.649  0.4480  0.2285 -0.0519
56741W        W99658   3.496  34.119   8.642  0.1936  0.1122 -0.0228
56742W        W99659  34.462  32.735   9.891  0.1229  0.0236  0.1462
56743W        W99660   1.117  33.588   9.013 -0.0697 -0.0592 -0.1472
56744W        W99661  34.646  32.664   7.734  0.0056 -0.0274 -0.1330
56745W        W99662   1.490  34.359  10.854  0.0478  0.3699 -0.2199
56746W        W99663   0.861   0.524   9.589 -0.2146 -0.1340  0.0434
56747W        W99664  34.324  32.742   6.494  0.4996 -0.0652  0.0029
56748W        W99665   3.205  27.679   9.647 -0.3993 -0.0594  0.0848
56749W        W99666   0.086  34.041   7.714  0.1945 -0.2547  0.3363
56750W        W99667   1.029   0.959   8.924 -0.0713  0.0796 -0.0597
56751W        W99668   2.213   1.667   9.601 -0.0186  0.0650  0.0452
56752W        W99669  34.608   1.245   9.944 -0.0679  0.1050 -0.2435
56753W        W99670  34.638  34.205   9.885 -0.0602  0.0661  0.0375
56754W        W99671  31.380  32.591   9.471 -0.2362 -0.0257  0.1384
56755W        W99672   0.672  32.375   6.183 -0.1799  0.5333  0.1687
56756W        W99673   1.683  34.146   8.739  0.3628 -0.1256 -0.2571
56757W        W99674   0.895  32.025   6.776  0.0100  0.1744 -0.0432
56758W        W99675   1.029   0.468   8.909  0.1889  0.0247  0.3513
56759W        W99676   2.323   1.262  10.925  0.2215 -0.2384  0.0434
56760W        W99677  34.516  34.247   8.124  0.2535 -0.3116  0.0373
56761W        W99678  31.836  31.876   8.826 -0.0790  0.0665  0.2404
56762W        W99679   0.013  33.354   6.610  0.0570 -0.2055  0.0724
56763W        W99680   0.882  34.370   9.146 -0.0721  0.0466 -0.3831
56764W        W99681  34.606  33.299   8.295  0.2645 -0.3555  0.0447
56765W        W99682  34.169  32.923   8.989 -0.0450 -0.2731  0.3133
56766W        W99683  34.122  34.103   9.014  0.3205  0.0096 -0.0330
56767W        W99684   1.668  34.559   8.421  0.4770 -0.0075 -0.0914
56768W        W99685  34.567  32.935   8.629  0.1509 -0.2176 -0.2910
56769W        W99686   0.398  33.500   6.337  0.0369 -0.0489 -0.0321
56770W        W99687  33.002  32.435   9.409  0.1284  0.2663 -0.2023
56771W        W99688   1.775  34.587   9.693 -0.0572 -0.0793 -0.6180
56772W        W99689   0.017   0.148   9.347  0.0286 -0.1423  0.1404
56773W        W99690   0.090  33.411   8.736  0.1287  0.1158  0.0421
56774W        W99691  32.555  34.317   9.865 -0.0200  0.1166 -0.2230
56775W        W99692   1.364  32.165   7.752 -0.2960 -0.1560 -0.2129
56776W        W99693  34.315  34.663   9.008 -0.3362 -0.1066  0.0334
56777W        W99694   1.809  34.567   7.912  0.4563 -0.3396 -0.2055
56778W        W99695   1.221  33.878   8.620 -0.2101 -0.1073 -0.0686
56779W        W99696   0.168  32.463   9.659  0.2318 -0.0226 -0.2412
56780W        W99697  34.086  34.605   8.162 -0.3830  0.0384  0.1156
56781W        W99698  34.269  33.375   8.695 -0.1737  0.0581  0.2433
56782W        W99699   0.086  33.287   7.809  0.0784 -0.0808 -0.1923
56783W        W99700  34.600  32.375   8.732  0.1256 -0.0622 -0.0604
56784W        W99701  32.035  32.116   9.186 -0.0190  0.0358 -0.1387
56785W        W99702   1.090  31.464   8.797  0.0600  0.1679  0.1573
56786W        W99703   0.761  32.618   7.287 -0.0308 -0.3700  0.0269
56787W        W99704  33.597   1.585   9.265  0.2026 -0.1565 -0.1402
56788W        W99705  34.354  30.520   6.611  0.2514  0.2711  0.1806
56789W        W99706  33.720  31.208   6.829  0.0570  0.2492  0.1097
56790W        W99707  33.152   1.067   8.729 -0.0065 -0.1053  0.3234
56791W        W99708   0.843  32.802   7.999  0.2965 -0.0622  0.0784
56792W        W99709  33.950  33.102   6.753  0.3391 -0.2058  0.0480
56793W        W99710   1.187  30.369   9.135 -0.0222 -0.0702  0.0702
56794W        W99711  34.324  33.843   6.985  0.0524  0.3332  0.2590
56795W        W99712   0.783   0.006   8.744  0.0213  0.2065  0.1389
56796W        W99713   0.754  32.106   8.874 -0.0120  0.2266  0.2476
  34.67364  34.67364  31.96167
